ITEM: TIMESTEP
149000
ITEM: NUMBER OF ATOMS
754
ITEM: BOX BOUNDS ff ff pp
-0.021 0.521
-0.021 0.5
-0.001 0.001
ITEM: ATOMS id type type x y z ix iy iz vx vy vz fx fy fz vx vy vz p p rho 
1 1 1 0.0072861 0.00481783 0 0 0 0 -0.0030785 -0.00533892 0 0.053639 -0.0196012 0 -0.0030785 -0.00533892 0 519.198 519.198 1001.23 
2 1 1 0.0259195 0.00465739 0 0 0 0 0.0201376 -0.00396832 0 -0.00106192 -0.00583236 0 0.0201376 -0.00396832 0 532.788 532.788 1001.26 
3 1 1 0.0578069 0.00589441 0 0 0 0 0.0577731 -0.0102238 0 -0.0687871 0.0664294 0 0.0577731 -0.0102238 0 548.659 548.659 1001.3 
4 1 1 0.0711527 0.00644138 0 0 0 0 0.0607489 0.0074251 0 -0.0355351 -0.0278944 0 0.0607489 0.0074251 0 526.312 526.312 1001.25 
5 1 1 0.0878247 0.00553922 0 0 0 0 0.0733997 -0.0109322 0 -0.0231195 0.0453566 0 0.0733997 -0.0109322 0 557.456 557.456 1001.32 
6 1 1 0.106252 0.00590561 0 0 0 0 0.0987278 -0.0151276 0 -0.0407894 0.0936155 0 0.0987278 -0.0151276 0 554.932 554.932 1001.32 
7 1 1 0.140124 0.00743978 0 0 0 0 0.111137 -0.00336069 0 -0.0567327 0.0211408 0 0.111137 -0.00336069 0 547.972 547.972 1001.3 
8 1 1 0.127765 0.0157884 0 0 0 0 0.115518 -0.020318 0 -0.0687136 0.0695541 0 0.115518 -0.020318 0 522.128 522.128 1001.24 
9 1 1 0.16324 0.00747051 0 0 0 0 0.130792 0.00241305 0 -0.017726 -0.00197278 0 0.130792 0.00241305 0 555.911 555.911 1001.32 
10 1 1 0.173922 0.00740942 0 0 0 0 0.127389 -0.000840284 0 -0.0131151 -0.0412513 0 0.127389 -0.000840284 0 553.985 553.985 1001.31 
11 1 1 0.0233851 0.0145609 0 0 0 0 0.00705488 -0.0302756 0 0.0437472 0.0790045 0 0.00705488 -0.0302756 0 496.632 496.632 1001.18 
12 1 1 0.041798 0.00587858 0 0 0 0 0.0307162 -0.00746906 0 0.0656859 0.0291062 0 0.0307162 -0.00746906 0 532.945 532.945 1001.26 
13 1 1 0.056559 0.0142912 0 0 0 0 0.060409 0.0233479 0 -0.043805 0.0589691 0 0.060409 0.0233479 0 497.786 497.786 1001.18 
14 1 1 0.0785421 0.0120992 0 0 0 0 0.0664504 0.00435166 0 -0.0661141 -0.0297908 0 0.0664504 0.00435166 0 485.948 485.948 1001.15 
15 1 1 0.0979826 0.0114224 0 0 0 0 0.100294 -0.00229349 0 -0.10508 -0.0942055 0 0.100294 -0.00229349 0 508.256 508.256 1001.21 
16 1 1 0.127557 0.00594432 0 0 0 0 0.111846 -0.00141703 0 -0.0663663 0.0350894 0 0.111846 -0.00141703 0 563.402 563.402 1001.34 
17 1 1 0.128113 0.0254149 0 0 0 0 0.109345 -0.0491099 0 -0.033059 0.00186995 0 0.109345 -0.0491099 0 456.875 456.875 1001.08 
18 1 1 0.151223 0.0069855 0 0 0 0 0.120129 -0.0034605 0 -0.0849667 -0.0456885 0 0.120129 -0.0034605 0 553.654 553.654 1001.31 
19 1 1 0.169572 0.0173953 0 0 0 0 0.143432 -0.0028673 0 -0.0804473 -0.0560042 0 0.143432 -0.0028673 0 513.892 513.892 1001.22 
20 1 1 0.159656 0.0234729 0 0 0 0 0.138994 -0.00854458 0 -0.0311241 -0.0449493 0 0.138994 -0.00854458 0 461.588 461.588 1001.1 
21 1 1 0.023693 0.0282945 0 0 0 0 0.0600996 -0.0233275 0 0.0100022 0.0378035 0 0.0600996 -0.0233275 0 381.392 381.392 1000.91 
22 1 1 0.0354174 0.0129364 0 0 0 0 0.0737196 -0.00470464 0 -0.0609421 -0.0491517 0 0.0737196 -0.00470464 0 496.935 496.935 1001.18 
23 1 1 0.0476248 0.0139104 0 0 0 0 0.119133 -0.0228401 0 -0.0449124 0.00911642 0 0.119133 -0.0228401 0 475.978 475.978 1001.13 
24 1 1 0.0706584 0.0304444 0 0 0 0 0.0444464 -0.0672589 0 -0.112639 0.0684576 0 0.0444464 -0.0672589 0 425.959 425.959 1001.01 
25 1 1 0.0641067 0.0233154 0 0 0 0 0.0441675 0.00374891 0 0.0177494 0.0323218 0 0.0441675 0.00374891 0 433.321 433.321 1001.03 
26 1 1 0.117252 0.00938802 0 0 0 0 0.101662 -0.00305032 0 -0.061387 -0.0896368 0 0.101662 -0.00305032 0 521.281 521.281 1001.24 
27 1 1 0.117964 0.0182204 0 0 0 0 0.0936436 -0.00307295 0 -0.0573985 0.0040516 0 0.0936436 -0.00307295 0 488.74 488.74 1001.16 
28 1 1 0.147952 0.016476 0 0 0 0 0.130569 -0.00263737 0 -0.0289015 0.0210165 0 0.130569 -0.00263737 0 500.887 500.887 1001.19 
29 1 1 0.158157 0.0151014 0 0 0 0 0.124573 -0.00883543 0 0.0156434 0.0325771 0 0.124573 -0.00883543 0 522.506 522.506 1001.24 
30 1 1 0.167643 0.0278354 0 0 0 0 0.158291 -0.0303427 0 0.0633729 0.0709206 0 0.158291 -0.0303427 0 432.603 432.603 1001.03 
31 1 1 0.0155508 0.0112694 0 0 0 0 0.00656734 0.000730454 0 -0.0104058 0.037161 0 0.00656734 0.000730454 0 486.145 486.145 1001.15 
32 1 1 0.032456 0.0195878 0 0 0 0 0.0310893 -0.0605751 0 -0.0323413 0.0776672 0 0.0310893 -0.0605751 0 466.806 466.806 1001.11 
33 1 1 0.0594117 0.0341028 0 0 0 0 0.076266 -0.0049056 0 0.000655579 -0.0460302 0 0.076266 -0.0049056 0 311.908 311.908 1000.74 
34 1 1 0.077487 0.0196708 0 0 0 0 0.0615185 0.0277671 0 -0.0616441 0.04069 0 0.0615185 0.0277671 0 440.5 440.5 1001.05 
35 1 1 0.108275 0.0275598 0 0 0 0 0.0913374 -0.0151408 0 -0.109495 -0.0534653 0 0.0913374 -0.0151408 0 421.566 421.566 1001 
36 1 1 0.118023 0.028338 0 0 0 0 0.0939933 -0.00124759 0 -0.033971 0.00247791 0 0.0939933 -0.00124759 0 423.477 423.477 1001.01 
37 1 1 0.136901 0.0156292 0 0 0 0 0.130058 -0.0040566 0 -0.0386852 -0.0217532 0 0.130058 -0.0040566 0 498.007 498.007 1001.18 
38 1 1 0.150168 0.0263249 0 0 0 0 0.11616 -0.024468 0 -0.0615596 -0.052702 0 0.11616 -0.024468 0 429.385 429.385 1001.02 
39 1 1 0.164732 0.0380555 0 0 0 0 0.138356 -0.00302551 0 0.00183453 -0.0100937 0 0.138356 -0.00302551 0 316.821 316.821 1000.75 
40 1 1 0.133597 0.0444271 0 0 0 0 0.135518 -0.0271275 0 0.0342376 -0.134176 0 0.135518 -0.0271275 0 316.658 316.658 1000.75 
41 1 1 0.00824111 0.0176298 0 0 0 0 0.00498649 -0.0171105 0 0.00968159 -0.0621461 0 0.00498649 -0.0171105 0 428.351 428.351 1001.02 
42 1 1 0.0294048 0.0448797 0 0 0 0 0.0406453 -0.0358875 0 0.0638461 0.0218646 0 0.0406453 -0.0358875 0 276.41 276.41 1000.66 
43 1 1 0.0444238 0.021432 0 0 0 0 0.0151393 -0.019081 0 0.00254766 -0.00524682 0 0.0151393 -0.019081 0 404.708 404.708 1000.96 
44 1 1 0.0690113 0.0413151 0 0 0 0 0.10487 -0.0648238 0 -0.106847 -0.0083476 0 0.10487 -0.0648238 0 305.242 305.242 1000.73 
45 1 1 0.0889034 0.015746 0 0 0 0 0.0640358 -0.0334747 0 -0.0793161 0.098551 0 0.0640358 -0.0334747 0 549.701 549.701 1001.3 
46 1 1 0.0960419 0.029488 0 0 0 0 0.120003 -0.00348753 0 0.0427185 0.00835502 0 0.120003 -0.00348753 0 393.655 393.655 1000.93 
47 1 1 0.139752 0.023719 0 0 0 0 0.114106 0.0132538 0 -0.0201673 -0.0235236 0 0.114106 0.0132538 0 454.798 454.798 1001.08 
48 1 1 0.1566 0.0347304 0 0 0 0 0.170809 -0.0436206 0 0.00676131 -0.0115874 0 0.170809 -0.0436206 0 354.331 354.331 1000.84 
49 1 1 0.154158 0.0441297 0 0 0 0 0.147773 -0.0303504 0 0.00353513 -0.106069 0 0.147773 -0.0303504 0 298.949 298.949 1000.71 
50 1 1 0.13304 0.0635322 0 0 0 0 0.159942 -0.103178 0 0.0750653 -0.0877577 0 0.159942 -0.103178 0 159.483 159.483 1000.38 
51 1 1 0.0178409 0.0223969 0 0 0 0 0.0522483 -0.0129695 0 -0.0326272 0.0215189 0 0.0522483 -0.0129695 0 399.498 399.498 1000.95 
52 1 1 0.035187 0.0285081 0 0 0 0 0.0158755 -0.0281715 0 -0.00927771 -0.00599654 0 0.0158755 -0.0281715 0 367.022 367.022 1000.87 
53 1 1 0.0546095 0.0250228 0 0 0 0 0.0231704 0.00678169 0 -0.116568 0.0828765 0 0.0231704 0.00678169 0 389.792 389.792 1000.93 
54 1 1 0.0788753 0.0294268 0 0 0 0 0.127176 0.00584967 0 0.0417071 -0.0301326 0 0.127176 0.00584967 0 367.357 367.357 1000.87 
55 1 1 0.0865477 0.0378495 0 0 0 0 0.116006 -0.0552246 0 -0.0205215 -0.051795 0 0.116006 -0.0552246 0 355.394 355.394 1000.84 
56 1 1 0.0963276 0.0393295 0 0 0 0 0.07477 0.00261145 0 -0.0159276 0.0644077 0 0.07477 0.00261145 0 341.473 341.473 1000.81 
57 1 1 0.125833 0.0356394 0 0 0 0 0.122517 -0.0476921 0 -0.0515733 -0.0136625 0 0.122517 -0.0476921 0 354.319 354.319 1000.84 
58 1 1 0.116469 0.0398274 0 0 0 0 0.0970585 -0.0491381 0 -0.0426759 0.0341221 0 0.0970585 -0.0491381 0 340.339 340.339 1000.81 
59 1 1 0.144336 0.0442282 0 0 0 0 0.149894 -0.043651 0 -0.00936374 0.0171393 0 0.149894 -0.043651 0 287.474 287.474 1000.68 
60 1 1 0.145937 0.0549239 0 0 0 0 0.209604 -0.00999922 0 0.000994803 0.00182316 0 0.209604 -0.00999922 0 170.902 170.902 1000.41 
61 1 1 0.0462085 0.0316126 0 0 0 0 0.0393709 -0.0298075 0 0.0287186 -0.0395377 0 0.0393709 -0.0298075 0 370.8 370.8 1000.88 
62 1 1 0.00855099 0.0287951 0 0 0 0 0.0119203 -0.0414551 0 -0.00471141 -0.0209938 0 0.0119203 -0.0414551 0 428.495 428.495 1001.02 
63 1 1 0.0669948 0.0154888 0 0 0 0 0.0801224 -0.026176 0 -0.000573938 -0.0245773 0 0.0801224 -0.026176 0 480.413 480.413 1001.14 
64 1 1 0.0414833 0.0473176 0 0 0 0 0.00155976 -0.0139235 0 -0.0806686 -0.0273183 0 0.00155976 -0.0139235 0 228.717 228.717 1000.54 
65 1 1 0.0787307 0.0420501 0 0 0 0 0.0743229 -0.0459841 0 -0.111153 0.115013 0 0.0743229 -0.0459841 0 301.477 301.477 1000.72 
66 1 1 0.10885 0.0167313 0 0 0 0 0.111262 0.00277164 0 -0.0444331 0.00975787 0 0.111262 0.00277164 0 485.784 485.784 1001.15 
67 1 1 0.106733 0.0358266 0 0 0 0 0.0744978 0.00782812 0 -0.051003 -0.0218035 0 0.0744978 0.00782812 0 341.946 341.946 1000.81 
68 1 1 0.135864 0.0331562 0 0 0 0 0.114646 -0.016265 0 -0.0331642 0.0401141 0 0.114646 -0.016265 0 382.334 382.334 1000.91 
69 1 1 0.144846 0.0347538 0 0 0 0 0.143513 -0.0100732 0 0.0444783 -0.0168884 0 0.143513 -0.0100732 0 353.126 353.126 1000.84 
70 1 1 0.156444 0.0627401 0 0 0 0 0.154703 -0.0315246 0 -0.0150474 0.0418802 0 0.154703 -0.0315246 0 259.816 259.816 1000.62 
71 1 1 0.0136569 0.043917 0 0 0 0 0.0168685 -0.0670135 0 -0.100903 -0.0102795 0 0.0168685 -0.0670135 0 290.161 290.161 1000.69 
72 1 1 0.038096 0.0587203 0 0 0 0 0.110134 -0.0129325 0 -0.0787212 0.00313123 0 0.110134 -0.0129325 0 77.798 77.798 1000.19 
73 1 1 0.0254934 0.0361487 0 0 0 0 0.0509749 -0.0247873 0 -0.0138115 0.044695 0 0.0509749 -0.0247873 0 300.984 300.984 1000.72 
74 1 1 0.0518103 0.039823 0 0 0 0 0.0405728 -0.00409144 0 -0.0924629 0.085709 0 0.0405728 -0.00409144 0 277.315 277.315 1000.66 
75 1 1 0.071596 0.0523445 0 0 0 0 0.035806 -0.0588915 0 0.0700531 -0.105348 0 0.035806 -0.0588915 0 201.397 201.397 1000.48 
76 1 1 0.100023 0.0199401 0 0 0 0 0.0867559 -0.0254454 0 -0.0470911 -0.0266227 0 0.0867559 -0.0254454 0 471.977 471.977 1001.12 
77 1 1 0.0884572 0.0251804 0 0 0 0 0.110435 -0.0735674 0 -0.143323 0.0816232 0 0.110435 -0.0735674 0 453.351 453.351 1001.08 
78 1 1 0.119612 0.0547795 0 0 0 0 0.13212 -0.0448558 0 -0.0141923 -0.0447224 0 0.13212 -0.0448558 0 191.132 191.132 1000.45 
79 1 1 0.125143 0.0477203 0 0 0 0 0.107405 -0.0577074 0 -0.125966 0.0191844 0 0.107405 -0.0577074 0 296.704 296.704 1000.7 
80 1 1 0.12846 0.0731614 0 0 0 0 0.104565 -0.0465086 0 -0.0812948 -0.0603411 0 0.104565 -0.0465086 0 113.26 113.26 1000.27 
81 1 1 0.012857 0.0361255 0 0 0 0 -0.00488752 -0.0915384 0 0.0552585 0.0923312 0 -0.00488752 -0.0915384 0 367.036 367.036 1000.87 
82 1 1 0.012784 0.0521206 0 0 0 0 0.0187328 -0.0885876 0 -0.0971545 0.0994059 0 0.0187328 -0.0885876 0 187.567 187.567 1000.45 
83 1 1 0.0383936 0.0375022 0 0 0 0 0.0955195 -0.0274602 0 -0.0252581 0.0915266 0 0.0955195 -0.0274602 0 318.944 318.944 1000.76 
84 1 1 0.024736 0.0519302 0 0 0 0 -0.0293693 -0.0948546 0 0.0476443 0.102551 0 -0.0293693 -0.0948546 0 201.68 201.68 1000.48 
85 1 1 0.0592448 0.0457575 0 0 0 0 0.0515257 -0.0357671 0 -0.135227 0.170802 0 0.0515257 -0.0357671 0 279.305 279.305 1000.66 
86 1 1 0.0868608 0.0497226 0 0 0 0 0.0519209 -0.0274754 0 -0.0112856 -0.0860639 0 0.0519209 -0.0274754 0 224.266 224.266 1000.53 
87 1 1 0.0995331 0.0480495 0 0 0 0 0.0966695 -0.0103148 0 -0.103544 0.0155176 0 0.0966695 -0.0103148 0 235.787 235.787 1000.56 
88 1 1 0.10866 0.0581612 0 0 0 0 0.164344 -0.0425839 0 -0.177141 0.0200065 0 0.164344 -0.0425839 0 228.553 228.553 1000.54 
89 1 1 0.109463 0.0470662 0 0 0 0 0.124885 -0.00761609 0 0.0194289 -0.0333443 0 0.124885 -0.00761609 0 278.657 278.657 1000.66 
90 1 1 0.12036 0.0642066 0 0 0 0 0.201934 0.00237326 0 -0.091945 -0.137641 0 0.201934 0.00237326 0 100.413 100.413 1000.24 
91 1 1 0.053431 0.0651173 0 0 0 0 0.090458 -0.0322472 0 -0.218499 0.106363 0 0.090458 -0.0322472 0 193.953 193.953 1000.46 
92 1 1 0.0280123 0.0619992 0 0 0 0 0.113586 -0.109894 0 -0.050145 0.0706429 0 0.113586 -0.109894 0 107.314 107.314 1000.26 
93 1 1 0.0105463 0.0601813 0 0 0 0 -0.0254478 -0.0746645 0 0.0825132 0.0486418 0 -0.0254478 -0.0746645 0 74.9886 74.9886 1000.18 
94 1 1 0.0632189 0.0573623 0 0 0 0 0.0725695 -0.0411277 0 -0.154163 -0.0140643 0 0.0725695 -0.0411277 0 234.221 234.221 1000.56 
95 1 1 0.0716431 0.0690753 0 0 0 0 0.14227 -0.0614295 0 -0.0705058 -0.0694206 0 0.14227 -0.0614295 0 155.356 155.356 1000.37 
96 1 1 0.0902734 0.0709023 0 0 0 0 0.105566 -0.0418685 0 -0.129306 -0.0510544 0 0.105566 -0.0418685 0 220.73 220.73 1000.52 
97 1 1 0.0479613 0.0530372 0 0 0 0 0.08917 -0.048594 0 0.143017 0.0552586 0 0.08917 -0.048594 0 237.41 237.41 1000.56 
98 1 1 0.08164 0.0589628 0 0 0 0 0.118503 -0.0712226 0 -0.16489 0.0286045 0 0.118503 -0.0712226 0 248.258 248.258 1000.59 
99 1 1 0.0953442 0.057778 0 0 0 0 0.130072 -0.0427771 0 0.0104165 0.0423303 0 0.130072 -0.0427771 0 222.121 222.121 1000.53 
100 1 1 0.105945 0.0707283 0 0 0 0 0.0863657 -0.0724161 0 0.113458 0.00632451 0 0.0863657 -0.0724161 0 219.243 219.243 1000.52 
101 1 1 0.179292 0.0149221 0 0 0 0 0.137091 -0.00569426 0 -0.0165437 0.012884 0 0.137091 -0.00569426 0 514.679 514.679 1001.22 
102 1 1 0.188832 0.016746 0 0 0 0 0.151603 -0.0266392 0 -0.0771347 -0.0200125 0 0.151603 -0.0266392 0 528.744 528.744 1001.25 
103 1 1 0.189418 0.0252505 0 0 0 0 0.155029 -0.0237754 0 -0.0119708 0.0162281 0 0.155029 -0.0237754 0 463.8 463.8 1001.1 
104 1 1 0.186771 0.00590373 0 0 0 0 0.142399 -0.0122157 0 -0.0113955 0.0247412 0 0.142399 -0.0122157 0 577.969 577.969 1001.37 
105 1 1 0.196674 0.0109925 0 0 0 0 0.146887 0.0141432 0 -0.000700104 -0.0393279 0 0.146887 0.0141432 0 532.432 532.432 1001.26 
106 1 1 0.205171 0.0054009 0 0 0 0 0.143219 -0.00838531 0 -0.0237493 0.0512138 0 0.143219 -0.00838531 0 566.821 566.821 1001.34 
107 1 1 0.214812 0.0122095 0 0 0 0 0.149311 -0.018872 0 0.0152265 -0.0513446 0 0.149311 -0.018872 0 546.547 546.547 1001.3 
108 1 1 0.222323 0.00597021 0 0 0 0 0.173287 -0.007436 0 -0.0251083 -0.0150068 0 0.173287 -0.007436 0 574.708 574.708 1001.36 
109 1 1 0.223095 0.0176274 0 0 0 0 0.169923 -0.0109892 0 0.0378901 0.110535 0 0.169923 -0.0109892 0 513.611 513.611 1001.22 
110 1 1 0.230799 0.0155829 0 0 0 0 0.168719 0.0253488 0 -0.005454 -0.0489806 0 0.168719 0.0253488 0 503.68 503.68 1001.19 
111 1 1 0.23483 0.00729543 0 0 0 0 0.156318 0.0142536 0 0.0160086 -0.0382998 0 0.156318 0.0142536 0 529.862 529.862 1001.26 
112 1 1 0.243927 0.00948593 0 0 0 0 0.156731 0.0031057 0 -0.000721193 0.0508765 0 0.156731 0.0031057 0 551.763 551.763 1001.31 
113 1 1 0.25399 0.00625863 0 0 0 0 0.145812 -0.00503983 0 0.020982 -0.0408356 0 0.145812 -0.00503983 0 551.785 551.785 1001.31 
114 1 1 0.262253 0.0120558 0 0 0 0 0.137273 0.0469115 0 0.0603937 0.060345 0 0.137273 0.0469115 0 517.08 517.08 1001.23 
115 1 1 0.267767 0.0232695 0 0 0 0 0.210837 0.0529545 0 0.0665068 0.0204926 0 0.210837 0.0529545 0 410.523 410.523 1000.97 
116 1 1 0.269645 0.00689067 0 0 0 0 0.100856 0.00118058 0 -0.00575672 -0.0143305 0 0.100856 0.00118058 0 537.891 537.891 1001.28 
117 1 1 0.280422 0.00808768 0 0 0 0 0.129428 -0.0170539 0 0.103422 0.00725939 0 0.129428 -0.0170539 0 523.591 523.591 1001.24 
118 1 1 0.288659 0.0100721 0 0 0 0 0.112553 0.0123487 0 0.0738413 -0.0225223 0 0.112553 0.0123487 0 498.167 498.167 1001.18 
119 1 1 0.298163 0.00583555 0 0 0 0 0.108577 3.33789e-05 0 0.0951883 0.0613657 0 0.108577 3.33789e-05 0 527.979 527.979 1001.25 
120 1 1 0.307174 0.0172526 0 0 0 0 0.119136 0.0242002 0 0.117312 0.0439946 0 0.119136 0.0242002 0 459.405 459.405 1001.09 
121 1 1 0.30908 0.00900203 0 0 0 0 0.0798485 0.0109341 0 0.0666181 -0.0307352 0 0.0798485 0.0109341 0 502.861 502.861 1001.19 
122 1 1 0.319808 0.00567535 0 0 0 0 0.0719486 -0.000238717 0 0.0890866 -0.00179066 0 0.0719486 -0.000238717 0 507.343 507.343 1001.2 
123 1 1 0.341399 0.0140645 0 0 0 0 0.0788899 0.0134411 0 0.0357163 0.0330862 0 0.0788899 0.0134411 0 467.098 467.098 1001.11 
124 1 1 0.336082 0.00580007 0 0 0 0 0.0871467 -0.0063316 0 0.0376846 0.0336511 0 0.0871467 -0.0063316 0 525.271 525.271 1001.25 
125 1 1 0.351307 0.00586642 0 0 0 0 0.0597512 0.00568667 0 -0.0124062 0.00820131 0 0.0597512 0.00568667 0 468.911 468.911 1001.11 
126 1 1 0.359837 0.0138279 0 0 0 0 0.0594661 0.00518722 0 0.0663045 -0.00770605 0 0.0594661 0.00518722 0 440.862 440.862 1001.05 
127 1 1 0.365337 0.00667611 0 0 0 0 0.0544544 -0.00738042 0 0.00156447 -0.033552 0 0.0544544 -0.00738042 0 481.083 481.083 1001.14 
128 1 1 0.377341 0.0070835 0 0 0 0 0.0533693 0.0116641 0 0.0533298 0.00909476 0 0.0533693 0.0116641 0 474.787 474.787 1001.13 
129 1 1 0.402562 0.00822612 0 0 0 0 0.00358678 0.000816684 0 -0.0112662 0.00947793 0 0.00358678 0.000816684 0 463.818 463.818 1001.1 
130 1 1 0.412075 0.00775576 0 0 0 0 0.00791227 -0.00147148 0 0.00734861 -0.0334711 0 0.00791227 -0.00147148 0 461.3 461.3 1001.09 
131 1 1 0.424511 0.00565386 0 0 0 0 0.0249779 -0.0099325 0 0.00771456 0.0339107 0 0.0249779 -0.0099325 0 491.405 491.405 1001.17 
132 1 1 0.417779 0.0161664 0 0 0 0 0.00628061 -0.0249911 0 -0.0138358 0.0361435 0 0.00628061 -0.0249911 0 432.273 432.273 1001.03 
133 1 1 0.435834 0.00948336 0 0 0 0 0.0261192 0.00727782 0 -0.0382327 -0.036427 0 0.0261192 0.00727782 0 441.072 441.072 1001.05 
134 1 1 0.445552 0.0156601 0 0 0 0 0.0389784 -0.00324821 0 -0.0252736 0.0277662 0 0.0389784 -0.00324821 0 442.4 442.4 1001.05 
135 1 1 0.446557 0.00518523 0 0 0 0 0.0303296 -0.00961333 0 -0.0414374 0.0351328 0 0.0303296 -0.00961333 0 490.843 490.843 1001.16 
136 1 1 0.456281 0.0113469 0 0 0 0 0.0231479 0.0130277 0 -0.036729 -0.0350133 0 0.0231479 0.0130277 0 441.832 441.832 1001.05 
137 1 1 0.465129 0.00525191 0 0 0 0 0.0126435 -0.000416489 0 -0.0103675 0.0153601 0 0.0126435 -0.000416489 0 483.406 483.406 1001.15 
138 1 1 0.479208 0.00657235 0 0 0 0 0.0141922 -0.00275313 0 -0.000818255 0.00440641 0 0.0141922 -0.00275313 0 475.341 475.341 1001.13 
139 1 1 0.492388 0.00574861 0 0 0 0 0.00796157 0.00398508 0 0.00219286 0.00905838 0 0.00796157 0.00398508 0 471.611 471.611 1001.12 
140 1 1 0.175079 0.0352433 0 0 0 0 0.149641 -0.0398953 0 -0.0117796 -0.0263262 0 0.149641 -0.0398953 0 361.495 361.495 1000.86 
141 1 1 0.177839 0.0242406 0 0 0 0 0.172645 -0.00482707 0 0.00870209 0.00657108 0 0.172645 -0.00482707 0 450.007 450.007 1001.07 
142 1 1 0.205967 0.0487956 0 0 0 0 0.218794 -0.054145 0 -0.0596075 -0.0869316 0 0.218794 -0.054145 0 300.788 300.788 1000.71 
143 1 1 0.196268 0.0322609 0 0 0 0 0.143926 -0.051322 0 -0.0290023 -0.0391216 0 0.143926 -0.051322 0 393.5 393.5 1000.93 
144 1 1 0.204429 0.028263 0 0 0 0 0.183905 -0.0182879 0 0.0676909 0.00138679 0 0.183905 -0.0182879 0 430.574 430.574 1001.02 
145 1 1 0.200084 0.0192412 0 0 0 0 0.17582 -0.00270028 0 -0.0104633 -0.00691549 0 0.17582 -0.00270028 0 515.149 515.149 1001.22 
146 1 1 0.214535 0.0338075 0 0 0 0 0.167759 0.00294969 0 -0.0288909 0.0401145 0 0.167759 0.00294969 0 403.649 403.649 1000.96 
147 1 1 0.208858 0.0171128 0 0 0 0 0.17706 -0.00625868 0 -0.0451206 -0.0130906 0 0.17706 -0.00625868 0 529.92 529.92 1001.26 
148 1 1 0.215767 0.0252929 0 0 0 0 0.193168 -0.0176463 0 0.0122303 -0.0709764 0 0.193168 -0.0176463 0 450.973 450.973 1001.07 
149 1 1 0.23298 0.0253237 0 0 0 0 0.179047 0.0197277 0 0.0455973 -0.058227 0 0.179047 0.0197277 0 448.638 448.638 1001.06 
150 1 1 0.245603 0.0386551 0 0 0 0 0.192682 0.0218872 0 0.0380316 -0.131004 0 0.192682 0.0218872 0 331.934 331.934 1000.79 
151 1 1 0.241461 0.0189122 0 0 0 0 0.174153 -0.00874043 0 0.0312369 -0.0683911 0 0.174153 -0.00874043 0 488.793 488.793 1001.16 
152 1 1 0.24396 0.0282004 0 0 0 0 0.214088 -0.0128244 0 -0.0123365 0.00898261 0 0.214088 -0.0128244 0 413.199 413.199 1000.98 
153 1 1 0.25094 0.0178009 0 0 0 0 0.177829 -0.00655274 0 0.0471475 -0.0509917 0 0.177829 -0.00655274 0 479.116 479.116 1001.14 
154 1 1 0.273021 0.0175074 0 0 0 0 0.137703 -0.0368644 0 0.0586967 -0.0307638 0 0.137703 -0.0368644 0 499.829 499.829 1001.19 
155 1 1 0.290701 0.0195866 0 0 0 0 0.133375 0.0188372 0 0.0588626 0.00611947 0 0.133375 0.0188372 0 462.214 462.214 1001.1 
156 1 1 0.281184 0.0198504 0 0 0 0 0.143125 0.023934 0 0.0216674 -0.0408254 0 0.143125 0.023934 0 460.835 460.835 1001.09 
157 1 1 0.299004 0.01736 0 0 0 0 0.105707 0.00424889 0 0.0688131 -0.00217547 0 0.105707 0.00424889 0 477.162 477.162 1001.13 
158 1 1 0.299475 0.0290447 0 0 0 0 0.149926 0.0234315 0 0.0549133 -0.019186 0 0.149926 0.0234315 0 362.283 362.283 1000.86 
159 1 1 0.317299 0.0236512 0 0 0 0 0.11529 0.0298016 0 0.0436776 0.0294877 0 0.11529 0.0298016 0 422.268 422.268 1001 
160 1 1 0.31879 0.0161029 0 0 0 0 0.0938755 0.00642152 0 0.0599539 0.0144967 0 0.0938755 0.00642152 0 462.908 462.908 1001.1 
161 1 1 0.328335 0.012819 0 0 0 0 0.0724321 -0.0107865 0 0.0489911 0.0385888 0 0.0724321 -0.0107865 0 487.524 487.524 1001.16 
162 1 1 0.342037 0.0247708 0 0 0 0 0.0449172 0.0280599 0 0.090349 0.0286486 0 0.0449172 0.0280599 0 363.493 363.493 1000.86 
163 1 1 0.348858 0.0159176 0 0 0 0 0.0594565 0.0213944 0 0.0673026 0.0134433 0 0.0594565 0.0213944 0 435.145 435.145 1001.03 
164 1 1 0.369259 0.0242229 0 0 0 0 0.0508262 -0.00663199 0 0.0109279 0.0396417 0 0.0508262 -0.00663199 0 371.851 371.851 1000.88 
165 1 1 0.390636 0.00634447 0 0 0 0 0.0127237 0.00660804 0 0.0161628 0.0210806 0 0.0127237 0.00660804 0 491.54 491.54 1001.17 
166 1 1 0.37097 0.0159767 0 0 0 0 0.0631429 -0.00378027 0 0.0413076 -0.0054819 0 0.0631429 -0.00378027 0 431.187 431.187 1001.02 
167 1 1 0.390331 0.0224464 0 0 0 0 0.0739637 0.0100065 0 0.00268141 0.0491991 0 0.0739637 0.0100065 0 407.599 407.599 1000.97 
168 1 1 0.40949 0.0185197 0 0 0 0 0.0430218 0.0203533 0 0.00826186 -0.0267589 0 0.0430218 0.0203533 0 392.375 392.375 1000.93 
169 1 1 0.396096 0.0332896 0 0 0 0 0.0723621 0.0147219 0 0.0288753 0.033395 0 0.0723621 0.0147219 0 286.16 286.16 1000.68 
170 1 1 0.397071 0.0152853 0 0 0 0 0.0526055 0.00529719 0 -0.0131627 0.013558 0 0.0526055 0.00529719 0 430.806 430.806 1001.02 
171 1 1 0.401432 0.0236681 0 0 0 0 0.0609849 0.0316872 0 0.0039686 0.0112719 0 0.0609849 0.0316872 0 362.087 362.087 1000.86 
172 1 1 0.427232 0.0151654 0 0 0 0 0.0256822 -0.0103317 0 -0.015813 0.049858 0 0.0256822 -0.0103317 0 428.566 428.566 1001.02 
173 1 1 0.437345 0.0191176 0 0 0 0 0.0554622 -0.00610198 0 -0.00348755 -0.0111526 0 0.0554622 -0.00610198 0 406.783 406.783 1000.97 
174 1 1 0.463891 0.0164747 0 0 0 0 0.0445163 -0.00901648 0 -0.00350893 -0.0077734 0 0.0445163 -0.00901648 0 416.611 416.611 1000.99 
175 1 1 0.462233 0.0279883 0 0 0 0 0.0334045 -0.0115911 0 -0.0158461 -0.00745001 0 0.0334045 -0.0115911 0 351.017 351.017 1000.83 
176 1 1 0.473675 0.0139819 0 0 0 0 0.0256004 0.00104729 0 -0.0315513 0.00145664 0 0.0256004 0.00104729 0 434.012 434.012 1001.03 
177 1 1 0.484724 0.0147681 0 0 0 0 0.0185198 0.00583445 0 -0.00743929 -0.017227 0 0.0185198 0.00583445 0 434.14 434.14 1001.03 
178 1 1 0.491725 0.0190416 0 0 0 0 -0.00191965 0.0212712 0 0.00236016 0.0232718 0 -0.00191965 0.0212712 0 405.221 405.221 1000.96 
179 1 1 0.166949 0.0495156 0 0 0 0 0.1945 -0.0209632 0 -0.0690595 0.0200163 0 0.1945 -0.0209632 0 227.114 227.114 1000.54 
180 1 1 0.184011 0.0333253 0 0 0 0 0.170234 0.0215589 0 -0.00719746 0.0109891 0 0.170234 0.0215589 0 368.643 368.643 1000.88 
181 1 1 0.183523 0.0446416 0 0 0 0 0.172483 -0.0125875 0 0.0562865 0.0387227 0 0.172483 -0.0125875 0 290.875 290.875 1000.69 
182 1 1 0.192495 0.0414466 0 0 0 0 0.193434 -0.0266333 0 0.0298387 -0.0581915 0 0.193434 -0.0266333 0 317.707 317.707 1000.75 
183 1 1 0.207305 0.0580598 0 0 0 0 0.213833 -0.0451532 0 0.036418 -0.0426265 0 0.213833 -0.0451532 0 242.391 242.391 1000.58 
184 1 1 0.195047 0.0507562 0 0 0 0 0.20543 -0.043822 0 -0.0376813 0.0249215 0 0.20543 -0.043822 0 277.152 277.152 1000.66 
185 1 1 0.204657 0.0390773 0 0 0 0 0.185304 -0.0290021 0 -0.0100616 -0.0231411 0 0.185304 -0.0290021 0 363.348 363.348 1000.86 
186 1 1 0.224894 0.0304524 0 0 0 0 0.187027 -0.00955314 0 -0.0245038 -0.0337602 0 0.187027 -0.00955314 0 429.397 429.397 1001.02 
187 1 1 0.233796 0.0348085 0 0 0 0 0.234064 -0.00853853 0 0.104769 0.0142617 0 0.234064 -0.00853853 0 343.381 343.381 1000.82 
188 1 1 0.235735 0.0439772 0 0 0 0 0.212681 0.0319888 0 0.0318336 -0.0669858 0 0.212681 0.0319888 0 313.866 313.866 1000.75 
189 1 1 0.255741 0.0424406 0 0 0 0 0.184935 0.0158601 0 0.0849805 -0.000826046 0 0.184935 0.0158601 0 260.846 260.846 1000.62 
190 1 1 0.258171 0.0204623 0 0 0 0 0.200315 0.0376518 0 0.146247 0.0261286 0 0.200315 0.0376518 0 454.276 454.276 1001.08 
191 1 1 0.26503 0.0434036 0 0 0 0 0.150046 0.0459883 0 0.0135751 -0.0545544 0 0.150046 0.0459883 0 234.545 234.545 1000.56 
192 1 1 0.261672 0.0327813 0 0 0 0 0.194456 0.0279799 0 0.0625926 -0.0559879 0 0.194456 0.0279799 0 381.578 381.578 1000.91 
193 1 1 0.288875 0.029766 0 0 0 0 0.151253 0.0328125 0 0.092849 0.00697988 0 0.151253 0.0328125 0 386.202 386.202 1000.92 
194 1 1 0.275653 0.0456048 0 0 0 0 0.191518 0.0363043 0 0.00629068 -0.0891084 0 0.191518 0.0363043 0 285.679 285.679 1000.68 
195 1 1 0.295572 0.0384381 0 0 0 0 0.123711 0.0443801 0 0.0913158 -0.0179609 0 0.123711 0.0443801 0 300.084 300.084 1000.71 
196 1 1 0.307471 0.0288236 0 0 0 0 0.118786 0.0233805 0 0.0897736 0.0373143 0 0.118786 0.0233805 0 378.234 378.234 1000.9 
197 1 1 0.316141 0.0349655 0 0 0 0 0.123032 0.0257671 0 0.0913108 0.0626331 0 0.123032 0.0257671 0 298.932 298.932 1000.71 
198 1 1 0.325354 0.029498 0 0 0 0 0.110722 0.00346402 0 0.0714602 0.0365204 0 0.110722 0.00346402 0 381.02 381.02 1000.9 
199 1 1 0.334845 0.0305455 0 0 0 0 0.0761924 0.0598132 0 0.0824787 0.042773 0 0.0761924 0.0598132 0 345.719 345.719 1000.82 
200 1 1 0.331433 0.0197596 0 0 0 0 0.0940929 -0.0134602 0 0.0537031 0.0270052 0 0.0940929 -0.0134602 0 420.667 420.667 1001 
201 1 1 0.357327 0.02177 0 0 0 0 0.0696012 -0.000488201 0 0.0754419 0.00316402 0 0.0696012 -0.000488201 0 392.491 392.491 1000.93 
202 1 1 0.343457 0.037527 0 0 0 0 0.102283 -0.00273094 0 0.0464587 0.0293534 0 0.102283 -0.00273094 0 281.473 281.473 1000.67 
203 1 1 0.360902 0.0308556 0 0 0 0 0.0943887 0.0341856 0 0.0139164 0.0570778 0 0.0943887 0.0341856 0 301.574 301.574 1000.72 
204 1 1 0.368934 0.0364169 0 0 0 0 0.0663651 0.0250026 0 -0.00931962 0.0546565 0 0.0663651 0.0250026 0 286.159 286.159 1000.68 
205 1 1 0.384174 0.013908 0 0 0 0 0.0500837 0.023013 0 -0.00145613 0.04437 0 0.0500837 0.023013 0 447.265 447.265 1001.06 
206 1 1 0.379753 0.0216851 0 0 0 0 0.0610933 0.0281389 0 -0.0328903 0.0358864 0 0.0610933 0.0281389 0 387.36 387.36 1000.92 
207 1 1 0.41683 0.0372726 0 0 0 0 0.0972826 -0.0196689 0 -0.0642148 0.0811275 0 0.0972826 -0.0196689 0 276.581 276.581 1000.66 
208 1 1 0.42815 0.0253972 0 0 0 0 0.0472292 -0.0350531 0 0.0315303 0.0242686 0 0.0472292 -0.0350531 0 387.323 387.323 1000.92 
209 1 1 0.409261 0.0297515 0 0 0 0 0.0644197 0.022908 0 -0.0108773 -0.0209917 0 0.0644197 0.022908 0 296.672 296.672 1000.7 
210 1 1 0.437288 0.0311239 0 0 0 0 0.0603932 -0.00449222 0 -0.0110504 0.036081 0 0.0603932 -0.00449222 0 319.402 319.402 1000.76 
211 1 1 0.419571 0.0271309 0 0 0 0 0.0709873 -0.00742406 0 -0.0842128 -0.010024 0 0.0709873 -0.00742406 0 361.59 361.59 1000.86 
212 1 1 0.445158 0.0280157 0 0 0 0 0.0543489 0.0172405 0 0.00450052 -0.0115794 0 0.0543489 0.0172405 0 340.24 340.24 1000.81 
213 1 1 0.453447 0.0203395 0 0 0 0 0.0311918 0.0131782 0 0.0400192 0.00598983 0 0.0311918 0.0131782 0 398.033 398.033 1000.95 
214 1 1 0.467333 0.03582 0 0 0 0 0.0391035 0.0155004 0 0.0221049 0.0217039 0 0.0391035 0.0155004 0 285.051 285.051 1000.68 
215 1 1 0.481826 0.0244379 0 0 0 0 -0.00663218 0.0134269 0 0.0116919 0.0185467 0 -0.00663218 0.0134269 0 373.079 373.079 1000.89 
216 1 1 0.471459 0.0228692 0 0 0 0 0.0309235 0.0276799 0 0.014656 0.0189248 0 0.0309235 0.0276799 0 366.772 366.772 1000.87 
217 1 1 0.489707 0.0312611 0 0 0 0 -0.0163805 0.00912342 0 -0.0179037 -0.00425529 0 -0.0163805 0.00912342 0 304.187 304.187 1000.72 
218 1 1 0.180103 0.0571584 0 0 0 0 0.203399 -0.030349 0 0.000287207 -0.0931223 0 0.203399 -0.030349 0 215.122 215.122 1000.51 
219 1 1 0.136439 0.0553476 0 0 0 0 0.130295 -0.0955633 0 0.082778 0.0112636 0 0.130295 -0.0955633 0 258.428 258.428 1000.61 
220 1 1 0.158122 0.0532768 0 0 0 0 0.150965 -0.0433404 0 0.0601953 -0.0361098 0 0.150965 -0.0433404 0 269.138 269.138 1000.64 
221 1 1 0.190569 0.0585107 0 0 0 0 0.229836 -0.0339843 0 -0.0161956 0.039741 0 0.229836 -0.0339843 0 221.795 221.795 1000.53 
222 1 1 0.174126 0.0467056 0 0 0 0 0.170915 -0.0452201 0 0.0265158 -0.0122559 0 0.170915 -0.0452201 0 322.968 322.968 1000.77 
223 1 1 0.215508 0.0458822 0 0 0 0 0.224766 -0.0221065 0 0.0712887 0.00530623 0 0.224766 -0.0221065 0 299.072 299.072 1000.71 
224 1 1 0.222974 0.0419566 0 0 0 0 0.225976 -0.0584521 0 0.0702931 -0.0786308 0 0.225976 -0.0584521 0 338.832 338.832 1000.8 
225 1 1 0.228978 0.0506979 0 0 0 0 0.214386 0.000640951 0 -0.010502 -0.043833 0 0.214386 0.000640951 0 300.874 300.874 1000.71 
226 1 1 0.239185 0.0582596 0 0 0 0 0.237829 -0.0133089 0 0.0304646 -0.169478 0 0.237829 -0.0133089 0 211.279 211.279 1000.5 
227 1 1 0.252989 0.030449 0 0 0 0 0.180584 0.00465063 0 0.0380848 -0.0556003 0 0.180584 0.00465063 0 400.576 400.576 1000.95 
228 1 1 0.245539 0.0477176 0 0 0 0 0.215221 0.0207941 0 0.131193 0.0438561 0 0.215221 0.0207941 0 252.34 252.34 1000.6 
229 1 1 0.257033 0.0543088 0 0 0 0 0.233431 0.075132 0 0.0913123 -0.149578 0 0.233431 0.075132 0 220.593 220.593 1000.52 
230 1 1 0.271263 0.0339867 0 0 0 0 0.176996 0.0894488 0 0.0979974 0.0916939 0 0.176996 0.0894488 0 362.833 362.833 1000.86 
231 1 1 0.278989 0.030654 0 0 0 0 0.155532 -0.00744788 0 0.0586564 -0.0175629 0 0.155532 -0.00744788 0 417.702 417.702 1000.99 
232 1 1 0.284556 0.0402319 0 0 0 0 0.161306 0.0397247 0 0.108176 0.0150555 0 0.161306 0.0397247 0 311.564 311.564 1000.74 
233 1 1 0.307212 0.0402521 0 0 0 0 0.112349 0.0479017 0 0.0346141 -0.00264611 0 0.112349 0.0479017 0 263.007 263.007 1000.63 
234 1 1 0.290452 0.0505194 0 0 0 0 0.150583 0.0741683 0 0.063507 0.00759119 0 0.150583 0.0741683 0 194.842 194.842 1000.46 