ITEM: TIMESTEP
188000
ITEM: NUMBER OF ATOMS
754
ITEM: BOX BOUNDS ff ff pp
-0.021 0.521
-0.021 0.5
-0.001 0.001
ITEM: ATOMS id type type x y z ix iy iz vx vy vz fx fy fz vx vy vz p p rho 
1 1 1 0.00613129 0.00226574 0 0 0 0 -0.00135702 -0.00666742 0 0.0192535 0.00368503 0 -0.00135702 -0.00666742 0 461.378 461.378 1001.09 
2 1 1 0.0293499 0.00479051 0 0 0 0 0.0110709 -0.00470195 0 -0.0350806 0.019777 0 0.0110709 -0.00470195 0 421.952 421.952 1001 
3 1 1 0.0635987 0.00584959 0 0 0 0 0.0153276 -0.00920192 0 -0.0229345 0.0173987 0 0.0153276 -0.00920192 0 462.446 462.446 1001.1 
4 1 1 0.0777028 0.00512448 0 0 0 0 0.0290917 0.00996756 0 -0.0113539 -0.000933828 0 0.0290917 0.00996756 0 432.231 432.231 1001.03 
5 1 1 0.095783 0.00503674 0 0 0 0 0.0140187 -0.0097953 0 -0.0376573 0.0183293 0 0.0140187 -0.0097953 0 460.56 460.56 1001.09 
6 1 1 0.110541 0.00594268 0 0 0 0 0.0353251 0.00216131 0 -0.0420579 0.0125256 0 0.0353251 0.00216131 0 458.232 458.232 1001.09 
7 1 1 0.156709 0.00513371 0 0 0 0 -0.0390791 -0.00148112 0 -0.0211186 0.00894509 0 -0.0390791 -0.00148112 0 453.979 453.979 1001.08 
8 1 1 0.133516 0.0141467 0 0 0 0 -0.0372768 -0.00754108 0 -0.034235 -0.0320872 0 -0.0372768 -0.00754108 0 396.983 396.983 1000.94 
9 1 1 0.189591 0.00601046 0 0 0 0 -0.0165344 -0.00111492 0 -0.075696 -0.0238401 0 -0.0165344 -0.00111492 0 440.084 440.084 1001.04 
10 1 1 0.201291 0.00683357 0 0 0 0 -0.00768372 -0.00392376 0 -0.00881667 -0.017299 0 -0.00768372 -0.00392376 0 440.882 440.882 1001.05 
11 1 1 0.0326706 0.0167602 0 0 0 0 0.00981174 -0.0117926 0 -0.0211808 -0.0550254 0 0.00981174 -0.0117926 0 379.942 379.942 1000.9 
12 1 1 0.0506526 0.00610094 0 0 0 0 0.0257541 0.0104792 0 -0.0247535 -0.0135933 0 0.0257541 0.0104792 0 415.073 415.073 1000.99 
13 1 1 0.0703905 0.0136447 0 0 0 0 0.0166869 -0.0216094 0 0.0320139 0.00478794 0 0.0166869 -0.0216094 0 399.974 399.974 1000.95 
14 1 1 0.0856127 0.0109878 0 0 0 0 0.0157032 0.00475613 0 -0.000806369 0.0238134 0 0.0157032 0.00475613 0 424.297 424.297 1001.01 
15 1 1 0.104421 0.0141525 0 0 0 0 0.01601 -0.0209384 0 0.0223277 -0.0105306 0 0.01601 -0.0209384 0 392.885 392.885 1000.93 
16 1 1 0.139979 0.00602267 0 0 0 0 0.00366048 0.00179192 0 0.0181857 0.00662652 0 0.00366048 0.00179192 0 427.608 427.608 1001.02 
17 1 1 0.152525 0.0190186 0 0 0 0 0.0302385 0.00781612 0 -0.010702 -0.0164981 0 0.0302385 0.00781612 0 373.152 373.152 1000.89 
18 1 1 0.170774 0.00590435 0 0 0 0 -0.0294536 -0.00552279 0 -0.0801808 0.0119948 0 -0.0294536 -0.00552279 0 453.162 453.162 1001.08 
19 1 1 0.199055 0.0154185 0 0 0 0 -0.0180728 0.00744791 0 -0.0332973 -0.0403229 0 -0.0180728 0.00744791 0 405.098 405.098 1000.96 
20 1 1 0.189787 0.0167537 0 0 0 0 -0.0101542 -0.00898717 0 -0.00692706 0.0125751 0 -0.0101542 -0.00898717 0 416.237 416.237 1000.99 
21 1 1 0.032617 0.0259119 0 0 0 0 0.0157524 -0.0141806 0 -0.00787643 0.0360515 0 0.0157524 -0.0141806 0 326.838 326.838 1000.78 
22 1 1 0.0404684 0.00820322 0 0 0 0 0.0206766 -0.00823806 0 -0.0195804 0.0065733 0 0.0206766 -0.00823806 0 436.353 436.353 1001.04 
23 1 1 0.0581272 0.01471 0 0 0 0 0.0184451 0.00753148 0 -0.00327211 0.0125946 0 0.0184451 0.00753148 0 376.647 376.647 1000.89 
24 1 1 0.0853556 0.0278026 0 0 0 0 0.0383227 0.000527651 0 -0.045388 0.0307548 0 0.0383227 0.000527651 0 303.582 303.582 1000.72 
25 1 1 0.0736626 0.0290918 0 0 0 0 0.038347 -0.00814804 0 -0.0227686 -0.045544 0 0.038347 -0.00814804 0 289.051 289.051 1000.69 
26 1 1 0.12575 0.00488637 0 0 0 0 0.0195591 0.00318732 0 -0.0298282 0.00566296 0 0.0195591 0.00318732 0 454.257 454.257 1001.08 
27 1 1 0.124756 0.0159745 0 0 0 0 -0.0213976 0.0324408 0 0.0527102 0.0793644 0 -0.0213976 0.0324408 0 391.319 391.319 1000.93 
28 1 1 0.168098 0.0148518 0 0 0 0 0.0108068 0.0118609 0 0.0074469 0.0310895 0 0.0108068 0.0118609 0 418.972 418.972 1000.99 
29 1 1 0.180203 0.00980311 0 0 0 0 -0.0211291 -0.00806153 0 -0.0330634 0.0001951 0 -0.0211291 -0.00806153 0 424.65 424.65 1001.01 
30 1 1 0.2011 0.023135 0 0 0 0 2.17871e-05 0.00184996 0 -0.0328051 0.0233388 0 2.17871e-05 0.00184996 0 345.892 345.892 1000.82 
31 1 1 0.0184043 0.00895054 0 0 0 0 0.0049564 0.00103447 0 0.0328009 -0.004521 0 0.0049564 0.00103447 0 418.113 418.113 1000.99 
32 1 1 0.042096 0.0168841 0 0 0 0 0.00574475 -0.0179024 0 0.0110579 0.0633116 0 0.00574475 -0.0179024 0 370.634 370.634 1000.88 
33 1 1 0.0639282 0.0337998 0 0 0 0 0.0137009 -0.0130236 0 -0.0141649 0.0147356 0 0.0137009 -0.0130236 0 263.999 263.999 1000.63 
34 1 1 0.0877166 0.018584 0 0 0 0 0.0276107 -0.00243393 0 0.0265137 0.0327786 0 0.0276107 -0.00243393 0 377.453 377.453 1000.9 
35 1 1 0.12973 0.0248989 0 0 0 0 0.0663536 0.0101209 0 -0.0506845 -0.0169697 0 0.0663536 0.0101209 0 330.032 330.032 1000.78 
36 1 1 0.140248 0.0189233 0 0 0 0 0.0137532 -0.0225895 0 -0.0277209 0.0284485 0 0.0137532 -0.0225895 0 392.806 392.806 1000.93 
37 1 1 0.147767 0.0117125 0 0 0 0 -0.00584545 0.0308983 0 -0.0299552 0.0264799 0 -0.00584545 0.0308983 0 405.487 405.487 1000.96 
38 1 1 0.180156 0.0188615 0 0 0 0 0.0107331 0.0054742 0 -0.0197443 -0.0115304 0 0.0107331 0.0054742 0 385.818 385.818 1000.92 
39 1 1 0.197157 0.032142 0 0 0 0 -0.000797965 0.0240875 0 -0.0140709 0.0312374 0 -0.000797965 0.0240875 0 282.699 282.699 1000.67 
40 1 1 0.15529 0.0303292 0 0 0 0 0.00449867 0.0237787 0 0.00787148 0.0734565 0 0.00449867 0.0237787 0 303.188 303.188 1000.72 
41 1 1 0.0119775 0.01377 0 0 0 0 0.0101325 -0.0126292 0 -0.0421488 0.00952134 0 0.0101325 -0.0126292 0 375.227 375.227 1000.89 
42 1 1 0.0341328 0.0410299 0 0 0 0 0.000102653 -0.00833548 0 -0.0468483 0.0285648 0 0.000102653 -0.00833548 0 196.137 196.137 1000.47 
43 1 1 0.0516034 0.0178229 0 0 0 0 0.0130729 0.00600207 0 -0.0386045 -0.0408722 0 0.0130729 0.00600207 0 350.581 350.581 1000.83 
44 1 1 0.0792465 0.0359701 0 0 0 0 0.0110512 0.00875467 0 -0.0265689 0.000852831 0 0.0110512 0.00875467 0 242.024 242.024 1000.58 
45 1 1 0.0972607 0.0155989 0 0 0 0 0.0183467 0.00351231 0 -0.0122377 0.0188508 0 0.0183467 0.00351231 0 389.493 389.493 1000.92 
46 1 1 0.118124 0.0282686 0 0 0 0 0.048196 0.00626897 0 0.0527554 -0.0333749 0 0.048196 0.00626897 0 291.536 291.536 1000.69 
47 1 1 0.160264 0.01544 0 0 0 0 0.0219016 -0.0176862 0 -0.0223818 0.0260583 0 0.0219016 -0.0176862 0 423.033 423.033 1001 
48 1 1 0.188528 0.0264503 0 0 0 0 0.02176 0.00384046 0 -0.0297253 0.00378847 0 0.02176 0.00384046 0 331.694 331.694 1000.79 
49 1 1 0.185083 0.0346009 0 0 0 0 0.0217942 0.0195865 0 -0.0289596 0.00794257 0 0.0217942 0.0195865 0 273.416 273.416 1000.65 
50 1 1 0.167424 0.0489179 0 0 0 0 0.0222703 -0.0122284 0 -0.00371347 0.0456159 0 0.0222703 -0.0122284 0 227.281 227.281 1000.54 
51 1 1 0.0245443 0.0156556 0 0 0 0 -0.00368493 0.00147939 0 -0.0116186 0.0749939 0 -0.00368493 0.00147939 0 394.481 394.481 1000.94 
52 1 1 0.0463916 0.0265928 0 0 0 0 0.0356074 -0.00285288 0 -0.0624752 0.0165815 0 0.0356074 -0.00285288 0 298.524 298.524 1000.71 
53 1 1 0.0664046 0.0212692 0 0 0 0 0.0289305 -0.0118918 0 -0.0453823 -0.00356972 0 0.0289305 -0.0118918 0 347.25 347.25 1000.82 
54 1 1 0.0950279 0.0286604 0 0 0 0 0.0322315 0.0149529 0 -0.0488475 0.020172 0 0.0322315 0.0149529 0 291.871 291.871 1000.69 
55 1 1 0.0983016 0.0382347 0 0 0 0 0.0507974 0.0116916 0 0.073102 -0.0368275 0 0.0507974 0.0116916 0 188.705 188.705 1000.45 
56 1 1 0.109264 0.03278 0 0 0 0 0.0179495 0.00328392 0 -0.0565534 -0.0105551 0 0.0179495 0.00328392 0 246.075 246.075 1000.58 
57 1 1 0.145976 0.0277733 0 0 0 0 0.00134757 -0.0114964 0 0.00662445 -0.0191637 0 0.00134757 -0.0114964 0 331.483 331.483 1000.79 
58 1 1 0.137733 0.0318788 0 0 0 0 0.036659 0.0204764 0 -0.0271903 0.0054926 0 0.036659 0.0204764 0 294.053 294.053 1000.7 
59 1 1 0.175645 0.0335109 0 0 0 0 0.0115005 -0.0163644 0 -0.0380179 0.00216351 0 0.0115005 -0.0163644 0 290.271 290.271 1000.69 
60 1 1 0.17829 0.0444033 0 0 0 0 -0.00223222 -0.00985202 0 0.00746079 0.0318084 0 -0.00223222 -0.00985202 0 224.659 224.659 1000.53 
61 1 1 0.0579103 0.0275132 0 0 0 0 0.0375103 -0.00302745 0 -0.0338868 -0.0182396 0 0.0375103 -0.00302745 0 307.877 307.877 1000.73 
62 1 1 0.00853013 0.0208776 0 0 0 0 -0.0304497 0.00226103 0 0.0465209 -0.0478148 0 -0.0304497 0.00226103 0 322.18 322.18 1000.77 
63 1 1 0.077376 0.018563 0 0 0 0 0.0218185 0.0171049 0 -0.0101861 -0.0212539 0 0.0218185 0.0171049 0 351.373 351.373 1000.83 
64 1 1 0.0466658 0.0436345 0 0 0 0 -0.0303479 -0.016208 0 -0.0466656 0.000500662 0 -0.0303479 -0.016208 0 190.121 190.121 1000.45 
65 1 1 0.0891178 0.0404168 0 0 0 0 0.0189907 -0.0170838 0 0.0200465 -0.0137262 0 0.0189907 -0.0170838 0 216.125 216.125 1000.51 
66 1 1 0.116733 0.0135184 0 0 0 0 0.00507853 0.00632533 0 0.0140509 -0.0309791 0 0.00507853 0.00632533 0 417.647 417.647 1000.99 
67 1 1 0.12706 0.0336103 0 0 0 0 0.0261434 0.0109471 0 -0.0667434 0.0573162 0 0.0261434 0.0109471 0 272.655 272.655 1000.65 
68 1 1 0.163882 0.0267642 0 0 0 0 -0.00889741 -0.00189815 0 -0.0479217 -0.0170404 0 -0.00889741 -0.00189815 0 332.438 332.438 1000.79 
69 1 1 0.173546 0.0236992 0 0 0 0 0.0201948 0.0104469 0 0.00317556 0.0489884 0 0.0201948 0.0104469 0 353.047 353.047 1000.84 
70 1 1 0.188063 0.0533359 0 0 0 0 0.0146546 0.0328932 0 -0.017948 -0.0500533 0 0.0146546 0.0328932 0 176.762 176.762 1000.42 
71 1 1 0.0098785 0.0325205 0 0 0 0 0.0179188 0.00727873 0 -0.0142465 -0.0481362 0 0.0179188 0.00727873 0 240.042 240.042 1000.57 
72 1 1 0.0374456 0.0523284 0 0 0 0 -0.00803009 -0.00389285 0 0.0611963 0.000680449 0 -0.00803009 -0.00389285 0 139.362 139.362 1000.33 
73 1 1 0.0232943 0.0308514 0 0 0 0 0.00241251 -0.0292433 0 -0.0192049 0.0844279 0 0.00241251 -0.0292433 0 295.853 295.853 1000.7 
74 1 1 0.0509167 0.0357507 0 0 0 0 0.0034024 0.000825456 0 0.00793093 -0.0141424 0 0.0034024 0.000825456 0 213.803 213.803 1000.51 
75 1 1 0.0798018 0.0476885 0 0 0 0 0.0292055 -0.0102077 0 -0.0219806 -0.0545944 0 0.0292055 -0.0102077 0 169.255 169.255 1000.4 
76 1 1 0.113199 0.021036 0 0 0 0 0.00921303 0.0349286 0 -0.0480795 0.0254055 0 0.00921303 0.0349286 0 338.136 338.136 1000.8 
77 1 1 0.10263 0.025487 0 0 0 0 0.0187125 -0.0130564 0 0.0679535 0.00913767 0 0.0187125 -0.0130564 0 328.679 328.679 1000.78 
78 1 1 0.156375 0.0432091 0 0 0 0 0.0156863 0.0335875 0 -0.0196993 0.000334612 0 0.0156863 0.0335875 0 220.848 220.848 1000.53 
79 1 1 0.146736 0.0393779 0 0 0 0 0.0215008 0.00862556 0 -0.00772761 -0.0103535 0 0.0215008 0.00862556 0 219.907 219.907 1000.52 
80 1 1 0.157866 0.0582941 0 0 0 0 0.0220794 0.00856949 0 -0.0721616 0.00489326 0 0.0220794 0.00856949 0 166.046 166.046 1000.39 
81 1 1 0.0183637 0.0243887 0 0 0 0 -0.00534083 -0.018192 0 0.0201267 0.045185 0 -0.00534083 -0.018192 0 341.747 341.747 1000.81 
82 1 1 0.0127736 0.0403726 0 0 0 0 0.0155613 -0.0193348 0 -0.0513164 -0.0102822 0 0.0155613 -0.0193348 0 212.662 212.662 1000.51 
83 1 1 0.0384813 0.0326796 0 0 0 0 0.0126608 -0.0385848 0 0.0260529 0.0179484 0 0.0126608 -0.0385848 0 271.831 271.831 1000.65 
84 1 1 0.0241752 0.0412095 0 0 0 0 0.0179528 -0.0183808 0 0.0134659 0.0819662 0 0.0179528 -0.0183808 0 209.171 209.171 1000.5 
85 1 1 0.0697342 0.0427531 0 0 0 0 0.0105285 -0.00676099 0 -0.0425475 -0.00874123 0 0.0105285 -0.00676099 0 181.998 181.998 1000.43 
86 1 1 0.107984 0.0436493 0 0 0 0 0.0580201 0.00819394 0 -0.0196823 0.0503553 0 0.0580201 0.00819394 0 201.889 201.889 1000.48 
87 1 1 0.117748 0.0406457 0 0 0 0 0.044046 0.00596311 0 -0.0328914 0.0670553 0 0.044046 0.00596311 0 240.267 240.267 1000.57 
88 1 1 0.127487 0.0466552 0 0 0 0 0.0238978 0.018581 0 -0.00553145 -0.0674853 0 0.0238978 0.018581 0 205.714 205.714 1000.49 
89 1 1 0.136223 0.0431685 0 0 0 0 0.0221084 0.0325228 0 0.0412737 -0.0235453 0 0.0221084 0.0325228 0 184.225 184.225 1000.44 
90 1 1 0.146922 0.0504003 0 0 0 0 0.0108303 0.0234868 0 -0.0522654 0.0170875 0 0.0108303 0.0234868 0 153.411 153.411 1000.36 
91 1 1 0.0521589 0.0559203 0 0 0 0 0.0172821 -0.0337391 0 0.00291634 0.0424367 0 0.0172821 -0.0337391 0 183.098 183.098 1000.44 
92 1 1 0.024897 0.0548591 0 0 0 0 -0.0151979 -0.0086336 0 -0.0355404 0.00852137 0 -0.0151979 -0.0086336 0 165.985 165.985 1000.39 
93 1 1 0.0127556 0.0506648 0 0 0 0 0.00181382 -0.00977764 0 -0.0132215 0.00954387 0 0.00181382 -0.00977764 0 143.05 143.05 1000.34 
94 1 1 0.0681149 0.0546675 0 0 0 0 0.0147438 -0.0136256 0 -0.0491369 -0.0471618 0 0.0147438 -0.0136256 0 102.322 102.322 1000.24 
95 1 1 0.0844662 0.058986 0 0 0 0 0.0481578 -0.0153211 0 -0.0115521 -0.0397406 0 0.0481578 -0.0153211 0 169.516 169.516 1000.4 
96 1 1 0.106535 0.0572353 0 0 0 0 0.0295846 -0.00164536 0 0.0646431 0.0346442 0 0.0295846 -0.00164536 0 208.37 208.37 1000.5 
97 1 1 0.0592207 0.0446668 0 0 0 0 0.0105587 -0.0223016 0 -0.0547421 1.63626e-05 0 0.0105587 -0.0223016 0 180.423 180.423 1000.43 
98 1 1 0.0956994 0.050597 0 0 0 0 0.0293903 -0.0101153 0 -0.0459405 -0.0588256 0 0.0293903 -0.0101153 0 202.802 202.802 1000.48 
99 1 1 0.120347 0.05475 0 0 0 0 0.0333983 0.0426027 0 -0.0840373 -0.0137689 0 0.0333983 0.0426027 0 125.33 125.33 1000.3 
100 1 1 0.136122 0.0585877 0 0 0 0 -0.000368157 0.0329656 0 0.0581293 -0.0114193 0 -0.000368157 0.0329656 0 182.683 182.683 1000.43 
101 1 1 0.210256 0.0144406 0 0 0 0 -0.0284172 -0.00467502 0 -0.0503685 0.0346181 0 -0.0284172 -0.00467502 0 414.911 414.911 1000.98 
102 1 1 0.220851 0.0167853 0 0 0 0 0.00871019 -0.015262 0 -0.0493729 0.0178988 0 0.00871019 -0.015262 0 414.187 414.187 1000.98 
103 1 1 0.230048 0.0246753 0 0 0 0 0.0124518 0.0231395 0 -0.101513 0.0088309 0 0.0124518 0.0231395 0 340.369 340.369 1000.81 
104 1 1 0.214037 0.00578839 0 0 0 0 -0.00745971 -0.00408993 0 -0.0103863 0.00538117 0 -0.00745971 -0.00408993 0 464.245 464.245 1001.1 
105 1 1 0.224953 0.00857327 0 0 0 0 -0.00716846 0.00246791 0 -0.0111024 -0.000699236 0 -0.00716846 0.00246791 0 452.271 452.271 1001.07 
106 1 1 0.23647 0.00512556 0 0 0 0 -0.00422702 -0.00780774 0 -0.00580124 -0.00465279 0 -0.00422702 -0.00780774 0 477.658 477.658 1001.13 
107 1 1 0.246994 0.0141396 0 0 0 0 0.00443483 0.00342421 0 -0.0510488 0.0136256 0 0.00443483 0.00342421 0 446.729 446.729 1001.06 
108 1 1 0.250651 0.00578092 0 0 0 0 0.0025556 0.00487993 0 -0.0115447 0.0154495 0 0.0025556 0.00487993 0 480.897 480.897 1001.14 
109 1 1 0.260753 0.0123237 0 0 0 0 -0.0132809 0.0131225 0 -0.0577436 0.0295497 0 -0.0132809 0.0131225 0 472.656 472.656 1001.12 
110 1 1 0.272186 0.0163773 0 0 0 0 -0.0242797 -0.00578689 0 -0.112647 -0.0174371 0 -0.0242797 -0.00578689 0 437.419 437.419 1001.04 
111 1 1 0.26697 0.00524485 0 0 0 0 -0.0282132 0.00215421 0 -0.0340299 -0.0151661 0 -0.0282132 0.00215421 0 501.3 501.3 1001.19 
112 1 1 0.27785 0.00906059 0 0 0 0 -0.0211554 -0.00484056 0 -0.0316327 0.0368141 0 -0.0211554 -0.00484056 0 495.706 495.706 1001.18 
113 1 1 0.287919 0.00616148 0 0 0 0 -0.0236857 0.000259943 0 -0.0391941 -0.0211635 0 -0.0236857 0.000259943 0 492.695 492.695 1001.17 
114 1 1 0.299716 0.0168489 0 0 0 0 -0.019938 0.0121679 0 -0.109427 -0.000372931 0 -0.019938 0.0121679 0 458.005 458.005 1001.09 
115 1 1 0.326015 0.0254203 0 0 0 0 -0.0291528 -0.0172679 0 -0.114211 0.00388805 0 -0.0291528 -0.0172679 0 435.06 435.06 1001.03 
116 1 1 0.300296 0.00598624 0 0 0 0 -0.0273005 0.00394045 0 -0.0193148 -0.00148482 0 -0.0273005 0.00394045 0 522.043 522.043 1001.24 
117 1 1 0.318036 0.00549422 0 0 0 0 -0.0259183 -0.000409634 0 -0.0686039 -0.0360756 0 -0.0259183 -0.000409634 0 526.852 526.852 1001.25 
118 1 1 0.326997 0.0103982 0 0 0 0 -0.0353103 -0.00122101 0 -0.0296477 0.0180829 0 -0.0353103 -0.00122101 0 533.393 533.393 1001.27 
119 1 1 0.337605 0.00477912 0 0 0 0 -0.0176373 -0.0058765 0 -0.110202 -6.1931e-05 0 -0.0176373 -0.0058765 0 544.8 544.8 1001.29 
120 1 1 0.348761 0.0249144 0 0 0 0 -0.0228288 0.0278474 0 -0.0503628 -0.0125924 0 -0.0228288 0.0278474 0 438.427 438.427 1001.04 
121 1 1 0.348355 0.0131636 0 0 0 0 -0.0223133 0.00284116 0 -0.0500735 0.00262419 0 -0.0223133 0.00284116 0 522.24 522.24 1001.24 
122 1 1 0.353863 0.00553308 0 0 0 0 -0.0135666 -0.00477734 0 -0.0892152 0.00113006 0 -0.0135666 -0.00477734 0 562.924 562.924 1001.33 
123 1 1 0.375283 0.0151215 0 0 0 0 -0.0487403 0.0135093 0 -0.0770286 0.00359552 0 -0.0487403 0.0135093 0 528.276 528.276 1001.25 
124 1 1 0.367765 0.00625862 0 0 0 0 -0.0309122 0.0108372 0 -0.0707387 0.00144345 0 -0.0309122 0.0108372 0 557.467 557.467 1001.32 
125 1 1 0.37986 0.00691131 0 0 0 0 -0.0416694 -0.0025848 0 -0.0558972 -0.00404652 0 -0.0416694 -0.0025848 0 592.181 592.181 1001.4 
126 1 1 0.391848 0.0202277 0 0 0 0 -0.0287048 0.0131815 0 -0.0794619 -0.0524137 0 -0.0287048 0.0131815 0 494.053 494.053 1001.17 
127 1 1 0.391437 0.00657883 0 0 0 0 -0.0531698 0.012232 0 -0.0872765 -0.00541133 0 -0.0531698 0.012232 0 580.388 580.388 1001.38 
128 1 1 0.39729 0.0125489 0 0 0 0 -0.0271157 0.00382933 0 -0.0566528 0.0831654 0 -0.0271157 0.00382933 0 567.764 567.764 1001.35 
129 1 1 0.416619 0.0105881 0 0 0 0 -0.0283977 -0.0121367 0 -0.04003 0.0117257 0 -0.0283977 -0.0121367 0 602.239 602.239 1001.43 
130 1 1 0.425665 0.00596321 0 0 0 0 -0.00662037 -0.00668664 0 -0.0670486 -0.00815278 0 -0.00662037 -0.00668664 0 629.38 629.38 1001.49 
131 1 1 0.438656 0.00641831 0 0 0 0 -0.00656132 0.00716568 0 -0.0567333 0.0203039 0 -0.00656132 0.00716568 0 588.523 588.523 1001.4 
132 1 1 0.433364 0.0142553 0 0 0 0 -0.0127635 -0.00315773 0 -0.05396 -0.0155754 0 -0.0127635 -0.00315773 0 575.051 575.051 1001.36 
133 1 1 0.446038 0.0149797 0 0 0 0 0.00827141 0.0127617 0 0.004588 -0.0983729 0 0.00827141 0.0127617 0 586.734 586.734 1001.39 
134 1 1 0.454875 0.0206779 0 0 0 0 -0.0142333 -0.0132382 0 -0.10539 0.077025 0 -0.0142333 -0.0132382 0 552.577 552.577 1001.31 
135 1 1 0.451017 0.00619899 0 0 0 0 -0.0137201 -0.0118602 0 -0.0243312 -0.00128503 0 -0.0137201 -0.0118602 0 624.234 624.234 1001.48 
136 1 1 0.458358 0.0134726 0 0 0 0 0.00537011 -0.0248689 0 -0.0141712 -0.0102788 0 0.00537011 -0.0248689 0 606.669 606.669 1001.44 
137 1 1 0.465115 0.00516742 0 0 0 0 0.00868663 0.0115378 0 -0.00764754 0.0285223 0 0.00868663 0.0115378 0 637.234 637.234 1001.51 
138 1 1 0.478712 0.00604649 0 0 0 0 -0.0128804 0.0051699 0 0.0533911 0.0463751 0 -0.0128804 0.0051699 0 635.725 635.725 1001.51 
139 1 1 0.492822 0.00555997 0 0 0 0 -2.77961e-05 -0.00347384 0 0.000509945 0.0172367 0 -2.77961e-05 -0.00347384 0 633.805 633.805 1001.5 
140 1 1 0.207828 0.0320537 0 0 0 0 -0.0104244 -0.0158574 0 -0.0279802 0.023718 0 -0.0104244 -0.0158574 0 271.585 271.585 1000.65 
141 1 1 0.212459 0.0229838 0 0 0 0 0.0154043 -0.0247074 0 -0.0766751 0.00104175 0 0.0154043 -0.0247074 0 350.271 350.271 1000.83 
142 1 1 0.254785 0.0392634 0 0 0 0 -0.0177256 0.0146137 0 -0.095926 0.0275036 0 -0.0177256 0.0146137 0 286.445 286.445 1000.68 
143 1 1 0.241418 0.0269276 0 0 0 0 -0.000958916 -0.0121936 0 -0.0787491 -0.00832216 0 -0.000958916 -0.0121936 0 348.971 348.971 1000.83 
144 1 1 0.250434 0.0268388 0 0 0 0 -0.0284268 0.0215564 0 -0.0769826 0.014952 0 -0.0284268 0.0215564 0 366.609 366.609 1000.87 
145 1 1 0.231579 0.0155683 0 0 0 0 -0.00294121 0.00789153 0 -0.0613824 0.0237382 0 -0.00294121 0.00789153 0 401.351 401.351 1000.95 
146 1 1 0.259028 0.0305318 0 0 0 0 -0.0137233 0.0250998 0 -0.02902 0.0111034 0 -0.0137233 0.0250998 0 336.916 336.916 1000.8 
147 1 1 0.240221 0.0166501 0 0 0 0 -0.00770192 -0.0223212 0 -0.0684744 -0.0127403 0 -0.00770192 -0.0223212 0 428.878 428.878 1001.02 
148 1 1 0.256506 0.0183292 0 0 0 0 -0.0101563 0.0258941 0 -0.0838415 0.0471246 0 -0.0101563 0.0258941 0 430.6 430.6 1001.02 
149 1 1 0.277822 0.0265063 0 0 0 0 -0.0100827 -0.0182849 0 -0.0504789 0.00884756 0 -0.0100827 -0.0182849 0 373.46 373.46 1000.89 
150 1 1 0.296614 0.0360806 0 0 0 0 -0.0169989 0.022196 0 -0.069786 0.00165854 0 -0.0169989 0.022196 0 308.217 308.217 1000.73 
151 1 1 0.282848 0.0177083 0 0 0 0 -0.0176555 -0.00998561 0 -0.0701618 0.00313757 0 -0.0176555 -0.00998561 0 445.867 445.867 1001.06 
152 1 1 0.289267 0.0263042 0 0 0 0 -0.0214295 0.0030239 0 -0.0653307 0.0144626 0 -0.0214295 0.0030239 0 375.844 375.844 1000.89 
153 1 1 0.291842 0.015397 0 0 0 0 -0.0144042 0.0108374 0 -0.0596701 0.00984433 0 -0.0144042 0.0108374 0 449.715 449.715 1001.07 
154 1 1 0.309377 0.0107574 0 0 0 0 -0.0446589 -0.00409024 0 -0.050422 0.0615096 0 -0.0446589 -0.00409024 0 513.102 513.102 1001.22 
155 1 1 0.330607 0.0164525 0 0 0 0 -0.00377669 -0.0157541 0 -0.0729871 0.0537131 0 -0.00377669 -0.0157541 0 515.788 515.788 1001.22 
156 1 1 0.318342 0.0173919 0 0 0 0 -0.0136455 -0.00594724 0 -0.0671233 -0.0189427 0 -0.0136455 -0.00594724 0 479.102 479.102 1001.14 
157 1 1 0.341117 0.0145949 0 0 0 0 -0.00781972 0.000708902 0 -0.0741966 0.014122 0 -0.00781972 0.000708902 0 523.709 523.709 1001.24 
158 1 1 0.339059 0.0243649 0 0 0 0 -0.0323597 -0.0106804 0 -0.0536048 0.0197951 0 -0.0323597 -0.0106804 0 452.975 452.975 1001.08 
159 1 1 0.362418 0.0297082 0 0 0 0 -0.0219918 -0.00208779 0 -0.0839238 0.0284839 0 -0.0219918 -0.00208779 0 438.078 438.078 1001.04 
160 1 1 0.356791 0.0201951 0 0 0 0 -0.0453744 0.0103897 0 -0.0942598 -0.0291234 0 -0.0453744 0.0103897 0 483.287 483.287 1001.15 
161 1 1 0.361571 0.0136079 0 0 0 0 -0.0289675 0.00832943 0 -0.0481971 -0.00589392 0 -0.0289675 0.00832943 0 521.168 521.168 1001.24 
162 1 1 0.377672 0.0258276 0 0 0 0 -0.0316212 -0.0048401 0 -0.0591766 0.036949 0 -0.0316212 -0.0048401 0 486.244 486.244 1001.15 
163 1 1 0.384849 0.0168825 0 0 0 0 -0.0237631 -0.0250747 0 -0.0768256 0.0590023 0 -0.0237631 -0.0250747 0 536.258 536.258 1001.27 
164 1 1 0.408699 0.0313697 0 0 0 0 -0.00396131 -0.00478892 0 -0.129147 0.0260192 0 -0.00396131 -0.00478892 0 465.618 465.618 1001.1 
165 1 1 0.406948 0.0048488 0 0 0 0 -0.0524538 -0.0128761 0 -0.0770985 -0.0163653 0 -0.0524538 -0.0128761 0 621.031 621.031 1001.47 
166 1 1 0.406167 0.0224634 0 0 0 0 0.00806823 0.00692172 0 -0.0175565 0.0343347 0 0.00806823 0.00692172 0 531.604 531.604 1001.26 
167 1 1 0.417335 0.0383065 0 0 0 0 -0.020117 -0.0216776 0 -0.0170951 -0.0109074 0 -0.020117 -0.0216776 0 423.764 423.764 1001.01 
168 1 1 0.427017 0.0187877 0 0 0 0 -0.0397793 -0.0220134 0 -0.0249847 0.00110303 0 -0.0397793 -0.0220134 0 542.112 542.112 1001.29 
169 1 1 0.427082 0.0474268 0 0 0 0 -0.0497483 -0.000841389 0 -0.0646605 -0.033485 0 -0.0497483 -0.000841389 0 372.013 372.013 1000.88 
170 1 1 0.418245 0.0182399 0 0 0 0 -0.0476051 -0.0419262 0 -0.079343 0.056543 0 -0.0476051 -0.0419262 0 560.791 560.791 1001.33 
171 1 1 0.426925 0.0315279 0 0 0 0 0.00342157 -0.0375943 0 -0.0942664 0.0569313 0 0.00342157 -0.0375943 0 491.157 491.157 1001.17 
172 1 1 0.441634 0.0208822 0 0 0 0 -0.034432 -0.0148618 0 -0.093236 -0.00228046 0 -0.034432 -0.0148618 0 598.594 598.594 1001.42 
173 1 1 0.447727 0.0295671 0 0 0 0 -0.0268278 -0.0313587 0 -0.0357107 -0.0623221 0 -0.0268278 -0.0313587 0 496.92 496.92 1001.18 
174 1 1 0.473046 0.0142094 0 0 0 0 -0.00584378 -0.00678703 0 -0.023862 -0.0682836 0 -0.00584378 -0.00678703 0 609.046 609.046 1001.44 
175 1 1 0.472476 0.026907 0 0 0 0 0.0151637 -0.053678 0 -0.00462804 -0.0256583 0 0.0151637 -0.053678 0 542.196 542.196 1001.29 
176 1 1 0.480365 0.0216977 0 0 0 0 0.0206982 -0.0217484 0 -0.000585244 0.112459 0 0.0206982 -0.0217484 0 565.661 565.661 1001.34 
177 1 1 0.485116 0.013542 0 0 0 0 0.0172678 -0.0194243 0 -0.0586089 0.00448035 0 0.0172678 -0.0194243 0 601.064 601.064 1001.42 
178 1 1 0.491442 0.0190618 0 0 0 0 0.0134751 0.0287711 0 0.0118774 -0.0239935 0 0.0134751 0.0287711 0 587.917 587.917 1001.39 
179 1 1 0.200981 0.0425482 0 0 0 0 0.00808869 0.0189865 0 0.0171703 0.000153966 0 0.00808869 0.0189865 0 217.725 217.725 1000.52 
180 1 1 0.220687 0.0280205 0 0 0 0 -0.00385885 -0.0187366 0 -0.0458229 0.0280983 0 -0.00385885 -0.0187366 0 334.647 334.647 1000.79 
181 1 1 0.224276 0.0373201 0 0 0 0 -0.021769 -0.0077946 0 0.00614236 0.0712198 0 -0.021769 -0.0077946 0 282.847 282.847 1000.67 
182 1 1 0.233991 0.0342369 0 0 0 0 -0.00274089 0.0106218 0 -0.0580755 -0.0156685 0 -0.00274089 0.0106218 0 291.445 291.445 1000.69 
183 1 1 0.257897 0.0500498 0 0 0 0 -0.00371493 0.0164394 0 -0.0950611 0.0285098 0 -0.00371493 0.0164394 0 186.314 186.314 1000.44 
184 1 1 0.245667 0.047391 0 0 0 0 -0.00631172 0.0317912 0 -0.0921497 -0.0528187 0 -0.00631172 0.0317912 0 164.682 164.682 1000.39 
185 1 1 0.244302 0.0374625 0 0 0 0 -0.0049592 0.0268107 0 -0.0605452 0.00694769 0 -0.0049592 0.0268107 0 248.275 248.275 1000.59 
186 1 1 0.266547 0.0228076 0 0 0 0 -0.0272244 0.0189165 0 -0.0266019 0.00755363 0 -0.0272244 0.0189165 0 403.566 403.566 1000.96 
187 1 1 0.284514 0.0344851 0 0 0 0 -0.0149998 0.0140947 0 -0.0964889 -0.0333729 0 -0.0149998 0.0140947 0 303.174 303.174 1000.72 
188 1 1 0.290247 0.0434085 0 0 0 0 -0.0390622 0.00479624 0 -0.0702842 -0.0175728 0 -0.0390622 0.00479624 0 284.014 284.014 1000.67 
189 1 1 0.30771 0.0323704 0 0 0 0 -0.0276069 0.000355338 0 -0.108336 -0.00770501 0 -0.0276069 0.000355338 0 373.103 373.103 1000.89 
190 1 1 0.309271 0.0202637 0 0 0 0 -0.0230679 -0.00799265 0 -0.0225654 0.0157962 0 -0.0230679 -0.00799265 0 451.781 451.781 1001.07 
191 1 1 0.314441 0.0400653 0 0 0 0 -0.0264236 -0.00758286 0 -0.0830382 0.066562 0 -0.0264236 -0.00758286 0 319.481 319.481 1000.76 
192 1 1 0.316755 0.0280713 0 0 0 0 -0.0447018 -0.00946698 0 -0.0751882 0.0599069 0 -0.0447018 -0.00946698 0 406.158 406.158 1000.96 
193 1 1 0.344262 0.0357721 0 0 0 0 -0.0647813 -0.0210298 0 -0.130545 0.011959 0 -0.0647813 -0.0210298 0 371.287 371.287 1000.88 
194 1 1 0.32613 0.0466041 0 0 0 0 -0.0308613 -0.0181771 0 -0.0813596 0.0419042 0 -0.0308613 -0.0181771 0 285.826 285.826 1000.68 
195 1 1 0.350321 0.0456114 0 0 0 0 -0.0262533 -0.00645763 0 -0.104081 -0.069944 0 -0.0262533 -0.00645763 0 298.5 298.5 1000.71 
196 1 1 0.353378 0.0336142 0 0 0 0 -0.0203601 0.0239362 0 -0.0604437 -0.0195747 0 -0.0203601 0.0239362 0 385.306 385.306 1000.91 
197 1 1 0.369649 0.0440114 0 0 0 0 -0.017577 0.0197466 0 -0.0209659 0.0196848 0 -0.017577 0.0197466 0 322.531 322.531 1000.77 
198 1 1 0.369544 0.0330918 0 0 0 0 -0.0450693 0.0375868 0 -0.103345 -0.0334332 0 -0.0450693 0.0375868 0 388.767 388.767 1000.92 
199 1 1 0.379466 0.0374798 0 0 0 0 -0.0199516 -0.0184644 0 -0.119457 0.0378548 0 -0.0199516 -0.0184644 0 416.158 416.158 1000.99 
200 1 1 0.36853 0.0202531 0 0 0 0 -0.0339515 0.0188863 0 -0.0638898 0.00658316 0 -0.0339515 0.0188863 0 510.369 510.369 1001.21 
201 1 1 0.397002 0.0280636 0 0 0 0 0.00405085 -0.00252045 0 -0.039017 -0.0142828 0 0.00405085 -0.00252045 0 473.29 473.29 1001.12 
202 1 1 0.387445 0.0428249 0 0 0 0 -0.0478633 0.00604839 0 -0.0440698 -0.031322 0 -0.0478633 0.00604839 0 337.924 337.924 1000.8 
203 1 1 0.396734 0.0366335 0 0 0 0 -0.0546017 -0.0329213 0 -0.104222 -0.0101334 0 -0.0546017 -0.0329213 0 423.042 423.042 1001 
204 1 1 0.407096 0.053251 0 0 0 0 -0.0430015 -0.0294301 0 -0.165691 -0.0313996 0 -0.0430015 -0.0294301 0 322.325 322.325 1000.77 
205 1 1 0.40633 0.0156249 0 0 0 0 -0.0548275 -0.00506678 0 -0.0912534 -0.0792302 0 -0.0548275 -0.00506678 0 566.447 566.447 1001.34 
206 1 1 0.418382 0.0281044 0 0 0 0 0.00950045 -0.00445211 0 -0.114562 -0.101486 0 0.00950045 -0.00445211 0 479.785 479.785 1001.14 
207 1 1 0.443162 0.0455677 0 0 0 0 -0.0142831 -0.05017 0 -0.0632314 0.0204188 0 -0.0142831 -0.05017 0 421.57 421.57 1001 
208 1 1 0.44169 0.0358299 0 0 0 0 -0.0111802 0.00761917 0 -0.026095 -0.0349542 0 -0.0111802 0.00761917 0 449.965 449.965 1001.07 
209 1 1 0.431907 0.0403845 0 0 0 0 -0.0405482 0.00876818 0 -0.0695364 -0.0607514 0 -0.0405482 0.00876818 0 381.96 381.96 1000.91 
210 1 1 0.45533 0.0350137 0 0 0 0 -0.00247574 -0.0151187 0 -0.101741 0.0683728 0 -0.00247574 -0.0151187 0 536.225 536.225 1001.27 
211 1 1 0.43452 0.0275747 0 0 0 0 -0.0107579 0.00135623 0 -0.0796695 0.0197722 0 -0.0107579 0.00135623 0 530.746 530.746 1001.26 
212 1 1 0.461239 0.0287089 0 0 0 0 -0.00942846 0.0166762 0 0.00504667 -0.130529 0 -0.00942846 0.0166762 0 530.4 530.4 1001.26 
213 1 1 0.466539 0.0180786 0 0 0 0 -0.0238194 0.0349269 0 -0.0729203 -0.000590129 0 -0.0238194 0.0349269 0 583.446 583.446 1001.38 
214 1 1 0.473273 0.0438102 0 0 0 0 0.0282169 -0.00110871 0 0.113755 -0.0446831 0 0.0282169 -0.00110871 0 462.244 462.244 1001.1 
215 1 1 0.489397 0.0292041 0 0 0 0 -0.0287272 0.00247533 0 -0.0313052 -0.0425003 0 -0.0287272 0.00247533 0 562.513 562.513 1001.33 
216 1 1 0.480814 0.0342558 0 0 0 0 -0.0228632 0.0430889 0 -0.0153543 -0.0990443 0 -0.0228632 0.0430889 0 522.136 522.136 1001.24 
217 1 1 0.489363 0.0399703 0 0 0 0 -0.0130096 -0.0297152 0 -0.0364922 0.103942 0 -0.0130096 -0.0297152 0 486.543 486.543 1001.15 
218 1 1 0.22314 0.0482988 0 0 0 0 -0.022815 -0.00482336 0 -0.0157383 -0.0216675 0 -0.022815 -0.00482336 0 203.464 203.464 1000.48 
219 1 1 0.165369 0.0371349 0 0 0 0 -0.00587352 -0.00882533 0 0.00911025 0.0324109 0 -0.00587352 -0.00882533 0 291.432 291.432 1000.69 
220 1 1 0.191885 0.0434564 0 0 0 0 -0.00635497 0.0219474 0 -0.0286375 -0.0216568 0 -0.00635497 0.0219474 0 203.513 203.513 1000.48 
221 1 1 0.234769 0.0452988 0 0 0 0 -0.0203774 -0.0149175 0 -0.0644822 0.0993005 0 -0.0203774 -0.0149175 0 217.627 217.627 1000.52 
222 1 1 0.213884 0.0389906 0 0 0 0 -0.0118378 -0.0139289 0 -0.0582433 -0.0144503 0 -0.0118378 -0.0139289 0 261.55 261.55 1000.62 
223 1 1 0.265527 0.0423315 0 0 0 0 -0.0209381 0.021802 0 -0.0767084 -0.0025454 0 -0.0209381 0.021802 0 251.432 251.432 1000.6 
224 1 1 0.270103 0.0327702 0 0 0 0 0.00100165 -0.00737723 0 -0.0801445 0.0205003 0 0.00100165 -0.00737723 0 343.785 343.785 1000.82 
225 1 1 0.276804 0.0410793 0 0 0 0 -0.0471975 -0.00757332 0 -0.0278674 0.0514089 0 -0.0471975 -0.00757332 0 288.765 288.765 1000.69 
226 1 1 0.293439 0.0537356 0 0 0 0 0.000140217 0.010049 0 -0.0975633 0.0096076 0 0.000140217 0.010049 0 230.075 230.075 1000.55 
227 1 1 0.299389 0.0265469 0 0 0 0 -0.0315402 0.0263633 0 -0.0550269 -0.00114507 0 -0.0315402 0.0263633 0 382.817 382.817 1000.91 
228 1 1 0.303843 0.0433543 0 0 0 0 -0.0142919 0.02594 0 -0.101994 0.0176925 0 -0.0142919 0.02594 0 261.58 261.58 1000.62 
229 1 1 0.314255 0.0519519 0 0 0 0 0.0100036 0.000252545 0 -0.0954796 -0.0572187 0 0.0100036 0.000252545 0 268.297 268.297 1000.64 