ITEM: TIMESTEP
91000
ITEM: NUMBER OF ATOMS
754
ITEM: BOX BOUNDS ff ff pp
-0.021 0.521
-0.021 0.5
-0.001 0.001
ITEM: ATOMS id type type x y z ix iy iz vx vy vz fx fy fz vx vy vz p p rho 
1 1 1 0.00735964 0.0065298 0 0 0 0 -0.007096 -0.00360816 0 -0.00551921 0.0176648 0 -0.007096 -0.00360816 0 472.637 472.637 1001.12 
2 1 1 0.0201789 0.00749005 0 0 0 0 0.009767 0.00112008 0 0.0427893 -0.0452913 0 0.009767 0.00112008 0 485.995 485.995 1001.15 
3 1 1 0.049864 0.00652209 0 0 0 0 -0.0120435 0.00358813 0 0.0648318 0.0396621 0 -0.0120435 0.00358813 0 502.247 502.247 1001.19 
4 1 1 0.0683349 0.00717861 0 0 0 0 -0.0244651 0.00193659 0 0.0343424 -0.00823441 0 -0.0244651 0.00193659 0 500.305 500.305 1001.19 
5 1 1 0.0887634 0.00731404 0 0 0 0 -0.0320749 -0.00198344 0 0.0263678 0.0066346 0 -0.0320749 -0.00198344 0 505.704 505.704 1001.2 
6 1 1 0.101292 0.00702339 0 0 0 0 -0.0510103 0.0137465 0 -0.0393783 0.00427826 0 -0.0510103 0.0137465 0 530.354 530.354 1001.26 
7 1 1 0.138753 0.00743624 0 0 0 0 -0.0494628 0.00451612 0 -0.0634397 -0.00349129 0 -0.0494628 0.00451612 0 544.192 544.192 1001.29 
8 1 1 0.145983 0.0135916 0 0 0 0 -0.0515288 0.0103222 0 -0.118652 -0.0147182 0 -0.0515288 0.0103222 0 527.388 527.388 1001.25 
9 1 1 0.173241 0.00720849 0 0 0 0 -0.0981681 -0.0189385 0 -0.0898662 0.00516682 0 -0.0981681 -0.0189385 0 580.1 580.1 1001.38 
10 1 1 0.194673 0.00712509 0 0 0 0 -0.125378 -0.00593141 0 -0.101466 0.00333309 0 -0.125378 -0.00593141 0 588.459 588.459 1001.4 
11 1 1 0.0192194 0.0220171 0 0 0 0 -0.0164665 0.0183943 0 -0.00327871 -0.0499967 0 -0.0164665 0.0183943 0 352.088 352.088 1000.84 
12 1 1 0.0339928 0.00653242 0 0 0 0 0.0120723 -0.00689075 0 0.038524 -0.0373269 0 0.0120723 -0.00689075 0 482.176 482.176 1001.14 
13 1 1 0.0600554 0.0108278 0 0 0 0 -0.0168341 0.00872099 0 -0.0747203 0.0131663 0 -0.0168341 0.00872099 0 476.156 476.156 1001.13 
14 1 1 0.0786367 0.00917447 0 0 0 0 -0.0450437 0.00677314 0 -0.00286789 0.0190539 0 -0.0450437 0.00677314 0 478.098 478.098 1001.13 
15 1 1 0.100752 0.015423 0 0 0 0 -0.0480285 -0.00367549 0 -0.0726269 0.0902045 0 -0.0480285 -0.00367549 0 473.026 473.026 1001.12 
16 1 1 0.127162 0.00790482 0 0 0 0 -0.052586 -0.0123539 0 -0.110145 0.0403448 0 -0.052586 -0.0123539 0 538.509 538.509 1001.28 
17 1 1 0.138112 0.0196618 0 0 0 0 -0.0441667 0.00593033 0 -0.0805414 0.0654789 0 -0.0441667 0.00593033 0 479.228 479.228 1001.14 
18 1 1 0.163232 0.0101396 0 0 0 0 -0.0756087 0.0265061 0 -0.0500796 -0.0442321 0 -0.0756087 0.0265061 0 549.482 549.482 1001.3 
19 1 1 0.183808 0.0090142 0 0 0 0 -0.0995651 0.0168014 0 -0.0600359 -0.0309396 0 -0.0995651 0.0168014 0 564.348 564.348 1001.34 
20 1 1 0.187757 0.0179571 0 0 0 0 -0.141679 0.0345092 0 -0.0636334 0.0480773 0 -0.141679 0.0345092 0 541.074 541.074 1001.28 
21 1 1 0.029845 0.0247322 0 0 0 0 0.00121321 -0.00330269 0 0.0498082 -0.0169048 0 0.00121321 -0.00330269 0 321.844 321.844 1000.76 
22 1 1 0.0267356 0.0135457 0 0 0 0 0.0261956 0.0094816 0 -0.00869681 0.0831214 0 0.0261956 0.0094816 0 441.419 441.419 1001.05 
23 1 1 0.0429296 0.0129723 0 0 0 0 0.00742909 0.0108058 0 0.00431678 -0.0252928 0 0.00742909 0.0108058 0 447.635 447.635 1001.06 
24 1 1 0.0793807 0.031747 0 0 0 0 -0.0434932 0.0227124 0 -0.0854047 0.0723882 0 -0.0434932 0.0227124 0 282.222 282.222 1000.67 
25 1 1 0.0835525 0.0177566 0 0 0 0 -0.0447183 -0.00733157 0 -0.0801887 0.0122116 0 -0.0447183 -0.00733157 0 418.636 418.636 1000.99 
26 1 1 0.115364 0.00698329 0 0 0 0 -0.0709331 -0.00457186 0 -0.073576 0.0161684 0 -0.0709331 -0.00457186 0 526.812 526.812 1001.25 
27 1 1 0.130161 0.0168641 0 0 0 0 -0.0569051 -0.00248547 0 -0.0850645 -0.0769325 0 -0.0569051 -0.00248547 0 486.593 486.593 1001.15 
28 1 1 0.15332 0.00676513 0 0 0 0 -0.0674101 -0.00911566 0 -0.0883727 -0.00422221 0 -0.0674101 -0.00911566 0 571.802 571.802 1001.36 
29 1 1 0.178322 0.0180381 0 0 0 0 -0.126635 0.00776414 0 -0.0679336 0.0670832 0 -0.126635 0.00776414 0 542.363 542.363 1001.29 
30 1 1 0.189337 0.0314431 0 0 0 0 -0.0936075 0.0239357 0 0.0332326 -0.0788296 0 -0.0936075 0.0239357 0 416.101 416.101 1000.99 
31 1 1 0.0136391 0.0150189 0 0 0 0 0.0467852 -0.0361815 0 0.0366625 -0.011921 0 0.0467852 -0.0361815 0 414.847 414.847 1000.98 
32 1 1 0.036476 0.0183403 0 0 0 0 -0.0233456 0.0247413 0 -0.0194354 -0.0292748 0 -0.0233456 0.0247413 0 409.258 409.258 1000.97 
33 1 1 0.0745129 0.0222581 0 0 0 0 -0.0222689 0.0506954 0 0.0193791 0.0295827 0 -0.0222689 0.0506954 0 374.043 374.043 1000.89 
34 1 1 0.0922433 0.0180313 0 0 0 0 -0.0540478 0.00986589 0 -0.0754618 -0.01809 0 -0.0540478 0.00986589 0 429.635 429.635 1001.02 
35 1 1 0.120333 0.0179698 0 0 0 0 -0.0363333 -0.0120446 0 -0.117545 -0.0376185 0 -0.0363333 -0.0120446 0 469.424 469.424 1001.11 
36 1 1 0.137371 0.0302431 0 0 0 0 -0.0566375 -0.0223557 0 -0.156766 -0.136211 0 -0.0566375 -0.0223557 0 361.378 361.378 1000.86 
37 1 1 0.157289 0.0179097 0 0 0 0 -0.0788437 0.0112744 0 -0.111937 0.0101304 0 -0.0788437 0.0112744 0 496.633 496.633 1001.18 
38 1 1 0.169057 0.0179057 0 0 0 0 -0.100791 0.0286032 0 -0.0310109 0.0268051 0 -0.100791 0.0286032 0 521.487 521.487 1001.24 
39 1 1 0.181634 0.030087 0 0 0 0 -0.122354 0.0452653 0 -0.0516132 -0.0862791 0 -0.122354 0.0452653 0 436.362 436.362 1001.04 
40 1 1 0.165704 0.0482355 0 0 0 0 -0.0805227 0.0778226 0 -0.0966572 -0.0730745 0 -0.0805227 0.0778226 0 235.84 235.84 1000.56 
41 1 1 0.008063 0.0217376 0 0 0 0 -0.00777739 -0.0240557 0 -0.0174021 -0.101468 0 -0.00777739 -0.0240557 0 370.144 370.144 1000.88 
42 1 1 0.0370488 0.0406414 0 0 0 0 -0.0261419 -0.00368151 0 0.115063 0.0145127 0 -0.0261419 -0.00368151 0 231.12 231.12 1000.55 
43 1 1 0.0524395 0.0183388 0 0 0 0 -0.0260206 0.00339959 0 -0.0497609 0.021425 0 -0.0260206 0.00339959 0 413.106 413.106 1000.98 
44 1 1 0.0723659 0.0388506 0 0 0 0 -0.0368243 0.0823088 0 0.0373413 0.0372919 0 -0.0368243 0.0823088 0 206.719 206.719 1000.49 
45 1 1 0.101132 0.0260617 0 0 0 0 -0.0483594 -0.0064911 0 -0.0366282 0.0176411 0 -0.0483594 -0.0064911 0 352.32 352.32 1000.84 
46 1 1 0.1268 0.0262153 0 0 0 0 -0.0504513 -0.00288915 0 -0.0885157 0.025227 0 -0.0504513 -0.00288915 0 376.053 376.053 1000.89 
47 1 1 0.149219 0.0223346 0 0 0 0 -0.0628488 0.0244883 0 -0.0609505 -0.00763431 0 -0.0628488 0.0244883 0 450.324 450.324 1001.07 
48 1 1 0.173616 0.0286021 0 0 0 0 -0.0907696 0.0272533 0 -0.106748 -0.0743455 0 -0.0907696 0.0272533 0 442.306 442.306 1001.05 
49 1 1 0.172531 0.0401422 0 0 0 0 -0.0997811 0.067018 0 0.00188974 -0.014917 0 -0.0997811 0.067018 0 290.058 290.058 1000.69 
50 1 1 0.15899 0.0568224 0 0 0 0 -0.0806185 0.0431407 0 -0.0952427 0.0577847 0 -0.0806185 0.0431407 0 222.088 222.088 1000.53 
51 1 1 0.0096106 0.0320474 0 0 0 0 0.0407388 -0.0692536 0 0.0882988 -0.0182959 0 0.0407388 -0.0692536 0 267.979 267.979 1000.64 
52 1 1 0.044607 0.0249895 0 0 0 0 -0.0108807 0.0151549 0 0.0172306 0.0430752 0 -0.0108807 0.0151549 0 349.55 349.55 1000.83 
53 1 1 0.0593879 0.021863 0 0 0 0 0.00609775 0.00594342 0 0.0617518 0.0824979 0 0.00609775 0.00594342 0 387.888 387.888 1000.92 
54 1 1 0.0881573 0.0277779 0 0 0 0 -0.0268405 0.0104908 0 -0.0427118 0.0167816 0 -0.0268405 0.0104908 0 328.406 328.406 1000.78 
55 1 1 0.110421 0.0357536 0 0 0 0 -0.0707905 -0.0221971 0 -0.129497 -0.0545043 0 -0.0707905 -0.0221971 0 300.176 300.176 1000.71 
56 1 1 0.126557 0.0361133 0 0 0 0 -0.054808 0.0343006 0 -0.20086 0.0836862 0 -0.054808 0.0343006 0 303.712 303.712 1000.72 
57 1 1 0.145704 0.0325113 0 0 0 0 -0.0404217 0.0493502 0 -0.0896052 0.0816935 0 -0.0404217 0.0493502 0 370.244 370.244 1000.88 
58 1 1 0.149205 0.0462169 0 0 0 0 -0.0916027 0.053162 0 -0.156342 -0.138786 0 -0.0916027 0.053162 0 238.792 238.792 1000.57 
59 1 1 0.164422 0.0355447 0 0 0 0 -0.0663757 0.0432635 0 -0.0648265 0.0522478 0 -0.0663757 0.0432635 0 346.428 346.428 1000.82 
60 1 1 0.174743 0.0520588 0 0 0 0 -0.0960375 0.100965 0 -0.0807846 -0.0248134 0 -0.0960375 0.100965 0 242.748 242.748 1000.58 
61 1 1 0.058273 0.0319338 0 0 0 0 0.00569244 -0.0121134 0 -0.057183 0.0325233 0 0.00569244 -0.0121134 0 289.305 289.305 1000.69 
62 1 1 0.0221658 0.0300135 0 0 0 0 0.000928255 0.021291 0 -0.0415654 0.141061 0 0.000928255 0.021291 0 291.168 291.168 1000.69 
63 1 1 0.06976 0.0181607 0 0 0 0 -0.0214658 0.00657374 0 -0.105764 -0.084206 0 -0.0214658 0.00657374 0 412.852 412.852 1000.98 
64 1 1 0.0602289 0.0425437 0 0 0 0 -0.0478598 0.0117813 0 0.0425242 0.0314135 0 -0.0478598 0.0117813 0 172.772 172.772 1000.41 
65 1 1 0.0984251 0.0328543 0 0 0 0 -0.0277339 0.0422668 0 -0.14077 0.159174 0 -0.0277339 0.0422668 0 292.604 292.604 1000.7 
66 1 1 0.111122 0.0152153 0 0 0 0 -0.0445248 0.0144181 0 -0.11766 -0.014639 0 -0.0445248 0.0144181 0 474.82 474.82 1001.13 
67 1 1 0.137638 0.0397853 0 0 0 0 -0.0497772 -0.0136495 0 -0.0235592 -0.00640583 0 -0.0497772 -0.0136495 0 259.363 259.363 1000.62 
68 1 1 0.154314 0.0325508 0 0 0 0 -0.0719155 0.06458 0 -0.0996906 0.0122118 0 -0.0719155 0.06458 0 392.036 392.036 1000.93 
69 1 1 0.16277 0.0260419 0 0 0 0 -0.0986061 0.0439292 0 -0.134992 -0.0720635 0 -0.0986061 0.0439292 0 425.487 425.487 1001.01 
70 1 1 0.152874 0.0645453 0 0 0 0 0.017318 0.110016 0 0.0497252 -0.0645455 0 0.017318 0.110016 0 85.7832 85.7832 1000.2 
71 1 1 0.0269483 0.0423843 0 0 0 0 -0.0446935 0.0249885 0 0.0323967 -0.0631198 0 -0.0446935 0.0249885 0 228.651 228.651 1000.54 
72 1 1 0.0364584 0.0509785 0 0 0 0 -0.0832792 0.008407 0 0.10572 0.0593003 0 -0.0832792 0.008407 0 111.529 111.529 1000.27 
73 1 1 0.0348865 0.0321964 0 0 0 0 0.0229822 0.030946 0 0.00816609 -0.0161785 0 0.0229822 0.030946 0 271.123 271.123 1000.64 
74 1 1 0.06731 0.0314606 0 0 0 0 -0.00452362 0.0430769 0 -0.0566939 -0.0210726 0 -0.00452362 0.0430769 0 291.477 291.477 1000.69 
75 1 1 0.0879235 0.0374609 0 0 0 0 -0.0349792 -0.0261564 0 -0.00523243 0.0330096 0 -0.0349792 -0.0261564 0 241.681 241.681 1000.57 
76 1 1 0.111546 0.024233 0 0 0 0 -0.0375433 0.00492352 0 -0.0912018 0.0854859 0 -0.0375433 0.00492352 0 402.199 402.199 1000.95 
77 1 1 0.118698 0.0326916 0 0 0 0 -0.0391284 -0.000406931 0 -0.0828388 -0.0373439 0 -0.0391284 -0.000406931 0 305.292 305.292 1000.73 
78 1 1 0.144083 0.0507014 0 0 0 0 -0.0405122 0.108601 0 -0.132958 0.033544 0 -0.0405122 0.108601 0 200.973 200.973 1000.48 
79 1 1 0.156401 0.0438291 0 0 0 0 -0.0696736 0.0523083 0 -0.0264288 -0.0708995 0 -0.0696736 0.0523083 0 277.209 277.209 1000.66 
80 1 1 0.12737 0.0643615 0 0 0 0 -0.0110032 -0.0414528 0 -0.18467 -0.0588735 0 -0.0110032 -0.0414528 0 77.6431 77.6431 1000.18 
81 1 1 0.00829028 0.0418851 0 0 0 0 -0.0318293 -0.0873685 0 -0.117501 0.00279707 0 -0.0318293 -0.0873685 0 146.642 146.642 1000.35 
82 1 1 0.0174419 0.038444 0 0 0 0 0.0292322 0.0327542 0 0.0011411 -0.0717902 0 0.0292322 0.0327542 0 199.288 199.288 1000.47 
83 1 1 0.0472447 0.0324832 0 0 0 0 0.019154 0.0160415 0 -0.00865353 0.0528911 0 0.019154 0.0160415 0 293.359 293.359 1000.7 
84 1 1 0.0500039 0.0416991 0 0 0 0 -0.0358248 0.0312862 0 0.0237178 0.0416996 0 -0.0358248 0.0312862 0 210.886 210.886 1000.5 
85 1 1 0.0846547 0.0462426 0 0 0 0 -0.0914358 0.0682467 0 -0.182681 0.0796277 0 -0.0914358 0.0682467 0 210.053 210.053 1000.5 
86 1 1 0.104227 0.0421671 0 0 0 0 -0.0759431 0.0283202 0 -0.233989 0.181415 0 -0.0759431 0.0283202 0 214.254 214.254 1000.51 
87 1 1 0.11453 0.0461349 0 0 0 0 -0.121917 -0.0187655 0 -0.152786 0.110916 0 -0.121917 -0.0187655 0 229.145 229.145 1000.54 
88 1 1 0.122902 0.049009 0 0 0 0 -0.055582 -0.0237356 0 -0.1641 -0.152181 0 -0.055582 -0.0237356 0 173.355 173.355 1000.41 
89 1 1 0.132 0.0461414 0 0 0 0 -0.0547788 -0.0275468 0 -0.171883 -0.043036 0 -0.0547788 -0.0275468 0 234.062 234.062 1000.56 
90 1 1 0.134161 0.0572567 0 0 0 0 -0.00481519 -0.0170685 0 -0.0649781 0.0536949 0 -0.00481519 -0.0170685 0 205.843 205.843 1000.49 
91 1 1 0.0275738 0.0595119 0 0 0 0 -0.0211566 0.0422213 0 0.145904 -0.0545961 0 -0.0211566 0.0422213 0 125.343 125.343 1000.3 
92 1 1 0.0102625 0.0555746 0 0 0 0 0.00563365 0.00484456 0 0.0755716 -0.069234 0 0.00563365 0.00484456 0 183.641 183.641 1000.44 
93 1 1 0.0194433 0.0504049 0 0 0 0 -0.0718848 0.0580622 0 0.0494369 -0.118811 0 -0.0718848 0.0580622 0 185.987 185.987 1000.44 
94 1 1 0.0596822 0.0532841 0 0 0 0 -0.045988 0.02842 0 -0.000891591 0.129182 0 -0.045988 0.02842 0 116.652 116.652 1000.28 
95 1 1 0.0468506 0.0512912 0 0 0 0 -0.0309704 0.00499869 0 0.0259282 0.166906 0 -0.0309704 0.00499869 0 118.504 118.504 1000.28 
96 1 1 0.0792756 0.056577 0 0 0 0 -0.0520673 0.104375 0 0.0146785 0.144559 0 -0.0520673 0.104375 0 122.424 122.424 1000.29 
97 1 1 0.0714464 0.0482287 0 0 0 0 -0.0209062 0.0586521 0 -0.133492 0.098186 0 -0.0209062 0.0586521 0 176.761 176.761 1000.42 
98 1 1 0.0946007 0.0478689 0 0 0 0 -0.168606 0.0344554 0 -0.00701642 0.107905 0 -0.168606 0.0344554 0 227.13 227.13 1000.54 
99 1 1 0.116761 0.0583103 0 0 0 0 -0.0638704 -0.0706055 0 -0.328594 0.0442377 0 -0.0638704 -0.0706055 0 127.689 127.689 1000.3 
100 1 1 0.102135 0.0564816 0 0 0 0 -0.104041 -0.0107102 0 -0.0623154 0.242535 0 -0.104041 -0.0107102 0 204.592 204.592 1000.49 
101 1 1 0.195054 0.0205769 0 0 0 0 -0.144046 0.00388199 0 -0.0984352 -0.0164499 0 -0.144046 0.00388199 0 520.555 520.555 1001.23 
102 1 1 0.201879 0.0123531 0 0 0 0 -0.139402 0.0290628 0 -0.0275965 0.037948 0 -0.139402 0.0290628 0 569.129 569.129 1001.35 
103 1 1 0.205667 0.0216054 0 0 0 0 -0.157518 0.0523315 0 0.00831158 -0.0436356 0 -0.157518 0.0523315 0 511.798 511.798 1001.21 
104 1 1 0.210394 0.00755956 0 0 0 0 -0.163959 -2.10805e-05 0 -0.0768085 -0.032667 0 -0.163959 -2.10805e-05 0 623.449 623.449 1001.48 
105 1 1 0.214204 0.0160216 0 0 0 0 -0.176024 0.000684523 0 -0.0401194 0.0555821 0 -0.176024 0.000684523 0 567.372 567.372 1001.35 
106 1 1 0.222575 0.00760912 0 0 0 0 -0.162707 6.365e-05 0 -0.0385704 -0.0237617 0 -0.162707 6.365e-05 0 612.273 612.273 1001.45 
107 1 1 0.226304 0.0152736 0 0 0 0 -0.21257 0.0121924 0 0.016176 -0.0863335 0 -0.21257 0.0121924 0 566.997 566.997 1001.34 
108 1 1 0.235495 0.00734461 0 0 0 0 -0.172871 0.00348445 0 -0.0856762 0.055711 0 -0.172871 0.00348445 0 604.422 604.422 1001.43 
109 1 1 0.232206 0.0207137 0 0 0 0 -0.209682 0.017285 0 0.0423178 -0.0130699 0 -0.209682 0.017285 0 534.953 534.953 1001.27 
110 1 1 0.240826 0.0140463 0 0 0 0 -0.228209 0.0425094 0 -0.053226 0.000518783 0 -0.228209 0.0425094 0 561.316 561.316 1001.33 
111 1 1 0.249096 0.00712232 0 0 0 0 -0.221661 0.00221861 0 0.0398255 0.0128211 0 -0.221661 0.00221861 0 618.718 618.718 1001.47 
112 1 1 0.259382 0.00939933 0 0 0 0 -0.225835 0.0118956 0 -0.011073 0.0356605 0 -0.225835 0.0118956 0 595.738 595.738 1001.41 
113 1 1 0.267907 0.0088144 0 0 0 0 -0.219885 -0.0204087 0 0.0733596 -0.00722109 0 -0.219885 -0.0204087 0 605.943 605.943 1001.44 
114 1 1 0.276978 0.00959033 0 0 0 0 -0.190679 -0.00137627 0 0.0817077 0.00944849 0 -0.190679 -0.00137627 0 592.49 592.49 1001.4 
115 1 1 0.286247 0.0182783 0 0 0 0 -0.214595 0.0165399 0 0.0693335 -0.0995758 0 -0.214595 0.0165399 0 544.384 544.384 1001.29 
116 1 1 0.286867 0.00810275 0 0 0 0 -0.201739 0.010729 0 0.0875635 0.0212513 0 -0.201739 0.010729 0 598.828 598.828 1001.42 
117 1 1 0.296497 0.00886085 0 0 0 0 -0.205257 0.00034284 0 0.011417 0.026795 0 -0.205257 0.00034284 0 613.553 613.553 1001.45 
118 1 1 0.30916 0.00709914 0 0 0 0 -0.184832 0.00586607 0 0.0720307 -0.027202 0 -0.184832 0.00586607 0 623.932 623.932 1001.48 
119 1 1 0.317289 0.0112784 0 0 0 0 -0.165184 -0.0228606 0 0.0251968 -0.0408218 0 -0.165184 -0.0228606 0 576.624 576.624 1001.37 
120 1 1 0.323017 0.0183109 0 0 0 0 -0.163569 -0.0187417 0 0.0623895 -0.0165643 0 -0.163569 -0.0187417 0 521.513 521.513 1001.24 
121 1 1 0.327136 0.00714323 0 0 0 0 -0.147735 -0.000239533 0 0.0654774 0.00627813 0 -0.147735 -0.000239533 0 601.467 601.467 1001.43 
122 1 1 0.339757 0.00735505 0 0 0 0 -0.145965 -0.00648089 0 0.061218 0.023928 0 -0.145965 -0.00648089 0 596.444 596.444 1001.41 
123 1 1 0.344311 0.0146905 0 0 0 0 -0.107312 -0.0258221 0 0.0869784 -0.00280916 0 -0.107312 -0.0258221 0 548.065 548.065 1001.3 
124 1 1 0.353516 0.00733232 0 0 0 0 -0.132489 0.000927767 0 -0.0193441 -0.0227201 0 -0.132489 0.000927767 0 587.345 587.345 1001.39 
125 1 1 0.365934 0.00741452 0 0 0 0 -0.139449 0.00635752 0 0.0466603 -0.0012316 0 -0.139449 0.00635752 0 550.529 550.529 1001.31 
126 1 1 0.368366 0.0158607 0 0 0 0 -0.0788332 0.0100978 0 0.0642801 -0.0578794 0 -0.0788332 0.0100978 0 524.245 524.245 1001.24 
127 1 1 0.378738 0.00745458 0 0 0 0 -0.130224 -0.0257023 0 0.0528222 0.0531192 0 -0.130224 -0.0257023 0 594.683 594.683 1001.41 
128 1 1 0.390914 0.00768984 0 0 0 0 -0.109363 -0.000447172 0 -0.000506598 -0.0146706 0 -0.109363 -0.000447172 0 549.217 549.217 1001.3 
129 1 1 0.403936 0.00712181 0 0 0 0 -0.081859 -0.0182175 0 0.0331997 -0.0247451 0 -0.081859 -0.0182175 0 563.884 563.884 1001.34 
130 1 1 0.413736 0.0130171 0 0 0 0 -0.104764 -0.016225 0 -0.0450162 -0.0246736 0 -0.104764 -0.016225 0 515.906 515.906 1001.22 
131 1 1 0.419267 0.00658513 0 0 0 0 -0.0228454 -0.00603271 0 0.17474 -0.0190806 0 -0.0228454 -0.00603271 0 547.183 547.183 1001.3 
132 1 1 0.413669 0.0206417 0 0 0 0 -0.0634056 -0.00395712 0 0.00582488 -0.021008 0 -0.0634056 -0.00395712 0 461.085 461.085 1001.09 
133 1 1 0.429443 0.0123247 0 0 0 0 -0.0502379 -0.0318139 0 -0.00808608 0.0160145 0 -0.0502379 -0.0318139 0 522.606 522.606 1001.24 
134 1 1 0.442896 0.01551 0 0 0 0 -0.0191936 0.00708959 0 0.048305 0.0147471 0 -0.0191936 0.00708959 0 510.412 510.412 1001.21 
135 1 1 0.436086 0.00688912 0 0 0 0 0.0133274 -0.00137608 0 0.128762 0.0476948 0 0.0133274 -0.00137608 0 553.936 553.936 1001.31 
136 1 1 0.449641 0.0070754 0 0 0 0 -0.00327051 0.00170959 0 -0.0338088 0.022484 0 -0.00327051 0.00170959 0 568.41 568.41 1001.35 
137 1 1 0.464051 0.00654431 0 0 0 0 0.0131638 0.000951152 0 -0.0689147 0.0273024 0 0.0131638 0.000951152 0 552.24 552.24 1001.31 
138 1 1 0.482234 0.00678267 0 0 0 0 0.0233701 -0.011357 0 -0.0372206 -0.0404378 0 0.0233701 -0.011357 0 528.261 528.261 1001.25 
139 1 1 0.492858 0.00921959 0 0 0 0 0.00795306 0.0144193 0 -0.0440711 -0.0105214 0 0.00795306 0.0144193 0 514.379 514.379 1001.22 
140 1 1 0.192599 0.0407848 0 0 0 0 -0.170156 0.0758877 0 -0.10719 0.014913 0 -0.170156 0.0758877 0 315.88 315.88 1000.75 
141 1 1 0.199165 0.0304686 0 0 0 0 -0.131831 0.0449833 0 -0.00396294 -0.00594441 0 -0.131831 0.0449833 0 418.443 418.443 1000.99 
142 1 1 0.221442 0.0453678 0 0 0 0 -0.224373 0.106583 0 0.00130768 -0.000252461 0 -0.224373 0.106583 0 267.432 267.432 1000.64 
143 1 1 0.212442 0.0289468 0 0 0 0 -0.178964 0.057226 0 -0.0292634 -0.0270088 0 -0.178964 0.057226 0 440.212 440.212 1001.04 
144 1 1 0.229809 0.0398129 0 0 0 0 -0.235314 0.0550777 0 0.0171902 -0.0120582 0 -0.235314 0.0550777 0 335.646 335.646 1000.8 
145 1 1 0.220241 0.0238359 0 0 0 0 -0.203462 0.02923 0 0.00776877 0.0131145 0 -0.203462 0.02923 0 490.645 490.645 1001.16 
146 1 1 0.240666 0.0384402 0 0 0 0 -0.232938 0.0424269 0 -0.00804831 0.0321057 0 -0.232938 0.0424269 0 361.266 361.266 1000.86 
147 1 1 0.226681 0.0311407 0 0 0 0 -0.214282 0.0236987 0 -0.00325172 -0.0486056 0 -0.214282 0.0236987 0 419.358 419.358 1001 
148 1 1 0.237435 0.0297135 0 0 0 0 -0.246251 0.0367111 0 -0.012442 -0.0107646 0 -0.246251 0.0367111 0 443.626 443.626 1001.05 
149 1 1 0.244115 0.0229899 0 0 0 0 -0.213981 0.0380722 0 0.0509697 0.00481695 0 -0.213981 0.0380722 0 502.785 502.785 1001.19 
150 1 1 0.266209 0.0309657 0 0 0 0 -0.267875 -0.0195171 0 -0.00759743 0.053215 0 -0.267875 -0.0195171 0 436.909 436.909 1001.04 
151 1 1 0.252078 0.0173648 0 0 0 0 -0.222689 -0.0182661 0 0.0222407 -0.00118228 0 -0.222689 -0.0182661 0 550.608 550.608 1001.31 
152 1 1 0.258694 0.0226553 0 0 0 0 -0.241748 0.0308392 0 -0.00798946 0.00663154 0 -0.241748 0.0308392 0 499.983 499.983 1001.19 
153 1 1 0.266545 0.0199178 0 0 0 0 -0.22284 -0.0402874 0 0.0985602 -0.0770361 0 -0.22284 -0.0402874 0 522.614 522.614 1001.24 
154 1 1 0.295261 0.0212293 0 0 0 0 -0.214063 -0.00608798 0 -0.0568014 -0.0568343 0 -0.214063 -0.00608798 0 513.985 513.985 1001.22 
155 1 1 0.302602 0.0151939 0 0 0 0 -0.19002 -0.0362044 0 0.0738237 0.103103 0 -0.19002 -0.0362044 0 572.251 572.251 1001.36 
156 1 1 0.3036 0.0270433 0 0 0 0 -0.240015 -0.0411274 0 0.064922 0.00790733 0 -0.240015 -0.0411274 0 467.721 467.721 1001.11 
157 1 1 0.311549 0.0200756 0 0 0 0 -0.17805 -0.0245432 0 0.0349179 -0.0230991 0 -0.17805 -0.0245432 0 504.319 504.319 1001.2 
158 1 1 0.315702 0.0283936 0 0 0 0 -0.204603 -0.0493069 0 0.0557701 0.0502364 0 -0.204603 -0.0493069 0 436.118 436.118 1001.04 
159 1 1 0.325724 0.0268888 0 0 0 0 -0.184984 -0.0237943 0 0.030762 -0.0224934 0 -0.184984 -0.0237943 0 457.152 457.152 1001.08 
160 1 1 0.33252 0.0158972 0 0 0 0 -0.148007 -0.000279532 0 0.0532835 0.0495859 0 -0.148007 -0.000279532 0 530.685 530.685 1001.26 
161 1 1 0.338414 0.0232639 0 0 0 0 -0.151783 -0.042616 0 0.0222288 0.013075 0 -0.151783 -0.042616 0 482.04 482.04 1001.14 
162 1 1 0.349109 0.0238027 0 0 0 0 -0.144386 -0.0107217 0 0.123491 -0.0209262 0 -0.144386 -0.0107217 0 468.265 468.265 1001.11 
163 1 1 0.355597 0.0155246 0 0 0 0 -0.112094 0.0027832 0 0.117305 0.0270345 0 -0.112094 0.0027832 0 535.216 535.216 1001.27 
164 1 1 0.374122 0.0261086 0 0 0 0 -0.0956719 0.0160139 0 0.0099643 0.0234705 0 -0.0956719 0.0160139 0 416.342 416.342 1000.99 
165 1 1 0.392807 0.015916 0 0 0 0 -0.0909784 -0.023686 0 0.0319389 0.00645791 0 -0.0909784 -0.023686 0 509.402 509.402 1001.21 
166 1 1 0.378946 0.0158453 0 0 0 0 -0.103192 -0.000126672 0 0.0399923 0.0339181 0 -0.103192 -0.000126672 0 525.978 525.978 1001.25 
167 1 1 0.389353 0.0304059 0 0 0 0 -0.133803 0.00197783 0 0.107957 -0.0185771 0 -0.133803 0.00197783 0 379.482 379.482 1000.9 
168 1 1 0.402002 0.0160431 0 0 0 0 -0.0520657 -0.0114054 0 0.159453 -0.0013382 0 -0.0520657 -0.0114054 0 497.432 497.432 1001.18 
169 1 1 0.401215 0.0352173 0 0 0 0 -0.108116 -0.0411268 0 0.101044 -0.0187318 0 -0.108116 -0.0411268 0 352.421 352.421 1000.84 
170 1 1 0.398301 0.0255062 0 0 0 0 -0.133609 -0.0386406 0 -0.0498576 -0.052262 0 -0.133609 -0.0386406 0 407.028 407.028 1000.97 
171 1 1 0.408078 0.0273564 0 0 0 0 -0.116428 -0.0226387 0 0.0847672 0.0715435 0 -0.116428 -0.0226387 0 400.613 400.613 1000.95 
172 1 1 0.425734 0.0185292 0 0 0 0 -0.103731 -0.0495656 0 -0.0362883 0.0896627 0 -0.103731 -0.0495656 0 475.683 475.683 1001.13 
173 1 1 0.437625 0.0216926 0 0 0 0 -0.0673399 -0.0545284 0 -0.0524093 -0.0916988 0 -0.0673399 -0.0545284 0 465.127 465.127 1001.1 
174 1 1 0.45494 0.0143682 0 0 0 0 -0.0100192 -0.0203698 0 0.0602625 0.0317629 0 -0.0100192 -0.0203698 0 505.667 505.667 1001.2 
175 1 1 0.462823 0.0178461 0 0 0 0 -0.0340509 0.0144923 0 0.140538 -0.0200037 0 -0.0340509 0.0144923 0 495.516 495.516 1001.18 
176 1 1 0.473088 0.0110527 0 0 0 0 -0.0156005 0.00213595 0 -0.115493 0.0461507 0 -0.0156005 0.00213595 0 532.09 532.09 1001.26 
177 1 1 0.485467 0.0179513 0 0 0 0 -0.0113512 0.0110577 0 -0.054296 -0.100881 0 -0.0113512 0.0110577 0 470.851 470.851 1001.12 
178 1 1 0.490362 0.0230351 0 0 0 0 -0.00464287 -0.00213104 0 0.0549784 -0.0802001 0 -0.00464287 -0.00213104 0 428.578 428.578 1001.02 
179 1 1 0.181801 0.0418178 0 0 0 0 -0.1099 0.0284315 0 -0.0212276 -0.0144309 0 -0.1099 0.0284315 0 291.077 291.077 1000.69 
180 1 1 0.206373 0.0362535 0 0 0 0 -0.143276 0.0795247 0 -0.0215011 0.0515855 0 -0.143276 0.0795247 0 358.747 358.747 1000.85 
181 1 1 0.209989 0.0477331 0 0 0 0 -0.217419 0.0884064 0 -0.00975934 -0.0321367 0 -0.217419 0.0884064 0 263.623 263.623 1000.63 
182 1 1 0.217653 0.0374781 0 0 0 0 -0.176344 0.0820163 0 -0.0390097 -0.0187467 0 -0.176344 0.0820163 0 342.354 342.354 1000.81 
183 1 1 0.225895 0.0547945 0 0 0 0 -0.284212 0.123949 0 -0.0450501 0.0712284 0 -0.284212 0.123949 0 195.551 195.551 1000.46 
184 1 1 0.214964 0.0544019 0 0 0 0 -0.260355 0.110465 0 -0.0221486 0.0310015 0 -0.260355 0.110465 0 187.205 187.205 1000.45 
185 1 1 0.234904 0.049035 0 0 0 0 -0.289271 0.0567817 0 0.0083541 -0.065515 0 -0.289271 0.0567817 0 261.573 261.573 1000.62 
186 1 1 0.250518 0.0309284 0 0 0 0 -0.232814 -0.00228584 0 -0.0366461 -0.0246575 0 -0.232814 -0.00228584 0 446.796 446.796 1001.06 
187 1 1 0.257348 0.0358646 0 0 0 0 -0.249569 0.0412698 0 0.0116057 -0.0720989 0 -0.249569 0.0412698 0 387.123 387.123 1000.92 
188 1 1 0.264037 0.0436014 0 0 0 0 -0.299531 0.0105736 0 0.0589171 -0.0662864 0 -0.299531 0.0105736 0 323.576 323.576 1000.77 
189 1 1 0.275056 0.0387297 0 0 0 0 -0.262648 -0.0194569 0 0.0278147 0.0113063 0 -0.262648 -0.0194569 0 374.181 374.181 1000.89 
190 1 1 0.276365 0.0190736 0 0 0 0 -0.241546 -0.0138868 0 -0.0578384 0.0379147 0 -0.241546 -0.0138868 0 536.408 536.408 1001.27 
191 1 1 0.285814 0.0387388 0 0 0 0 -0.271023 0.00224103 0 -0.00110182 -0.0391807 0 -0.271023 0.00224103 0 348.459 348.459 1000.83 
192 1 1 0.285651 0.027658 0 0 0 0 -0.263644 -0.0242647 0 0.0245459 0.100468 0 -0.263644 -0.0242647 0 463.764 463.764 1001.1 
193 1 1 0.306395 0.0355791 0 0 0 0 -0.22804 -0.0869714 0 -0.033937 0.0317937 0 -0.22804 -0.0869714 0 400.455 400.455 1000.95 
194 1 1 0.295566 0.0515389 0 0 0 0 -0.294731 -0.0824577 0 0.116349 -0.0290684 0 -0.294731 -0.0824577 0 245.127 245.127 1000.58 
195 1 1 0.315312 0.039527 0 0 0 0 -0.23605 -0.0417479 0 0.0962855 -0.0365596 0 -0.23605 -0.0417479 0 316.545 316.545 1000.75 
196 1 1 0.325446 0.037329 0 0 0 0 -0.188598 -0.0757958 0 -0.0292349 -0.0238376 0 -0.188598 -0.0757958 0 355.085 355.085 1000.84 
197 1 1 0.337576 0.0402019 0 0 0 0 -0.206349 -0.0150829 0 -0.076168 0.0476504 0 -0.206349 -0.0150829 0 304.787 304.787 1000.72 
198 1 1 0.334536 0.0314037 0 0 0 0 -0.145314 -0.0449512 0 0.197271 -0.0136462 0 -0.145314 -0.0449512 0 397.406 397.406 1000.94 
199 1 1 0.345333 0.0433261 0 0 0 0 -0.132065 -0.0674122 0 0.114415 -0.0398189 0 -0.132065 -0.0674122 0 299.279 299.279 1000.71 
200 1 1 0.347105 0.0331029 0 0 0 0 -0.185893 -0.0134939 0 -0.0333128 -0.00555856 0 -0.185893 -0.0134939 0 394.768 394.768 1000.94 
201 1 1 0.362544 0.0219252 0 0 0 0 -0.0979652 -0.0308609 0 0.0555995 0.0293702 0 -0.0979652 -0.0308609 0 495.467 495.467 1001.18 
202 1 1 0.359108 0.0397524 0 0 0 0 -0.115928 -0.0423231 0 0.00423426 0.0245038 0 -0.115928 -0.0423231 0 315.47 315.47 1000.75 
203 1 1 0.367726 0.0321247 0 0 0 0 -0.176556 -0.0267272 0 0.0555803 -0.0241661 0 -0.176556 -0.0267272 0 371.319 371.319 1000.88 
204 1 1 0.374908 0.040233 0 0 0 0 -0.120077 -0.0213597 0 0.0804011 0.0317653 0 -0.120077 -0.0213597 0 300.872 300.872 1000.71 
205 1 1 0.384786 0.0213867 0 0 0 0 -0.0875447 -0.0446502 0 0.0770069 0.0337215 0 -0.0875447 -0.0446502 0 481.553 481.553 1001.14 
206 1 1 0.381628 0.03408 0 0 0 0 -0.122201 -0.0221901 0 0.0277312 0.0148838 0 -0.122201 -0.0221901 0 367.15 367.15 1000.87 
207 1 1 0.41911 0.0402725 0 0 0 0 -0.00129741 -0.0685982 0 0.0332485 0.0259852 0 -0.00129741 -0.0685982 0 281.751 281.751 1000.67 
208 1 1 0.431242 0.0314238 0 0 0 0 -0.0416554 -0.108036 0 -0.00847421 0.0357816 0 -0.0416554 -0.108036 0 374.872 374.872 1000.89 
209 1 1 0.415835 0.0337159 0 0 0 0 -0.130359 -0.0258448 0 -0.127478 0.0498365 0 -0.130359 -0.0258448 0 313.988 313.988 1000.75 
210 1 1 0.44171 0.0297767 0 0 0 0 -0.0243736 -0.0363212 0 0.0236913 0.0581312 0 -0.0243736 -0.0363212 0 386.297 386.297 1000.92 
211 1 1 0.42328 0.027092 0 0 0 0 -0.0801201 -0.0254266 0 0.112941 0.0395908 0 -0.0801201 -0.0254266 0 389.505 389.505 1000.92 
212 1 1 0.451153 0.0327178 0 0 0 0 -0.0635733 0.0378632 0 -0.00521853 -0.0026748 0 -0.0635733 0.0378632 0 329.272 329.272 1000.78 
213 1 1 0.451534 0.0227921 0 0 0 0 -0.0384391 0.00578817 0 -0.0168556 0.0317302 0 -0.0384391 0.00578817 0 412.206 412.206 1000.98 
214 1 1 0.468296 0.025837 0 0 0 0 0.00320377 0.00620124 0 0.0471229 0.129955 0 0.00320377 0.00620124 0 443.746 443.746 1001.05 
215 1 1 0.478674 0.0297969 0 0 0 0 0.0117433 -0.0141364 0 0.11947 -0.0433378 0 0.0117433 -0.0141364 0 386.612 386.612 1000.92 
216 1 1 0.476014 0.0186277 0 0 0 0 -0.00705369 -0.0455457 0 -0.0141091 0.0753212 0 -0.00705369 -0.0455457 0 485.174 485.174 1001.15 
217 1 1 0.48913 0.0328498 0 0 0 0 -0.00428439 0.0065424 0 0.011059 -0.005937 0 -0.00428439 0.0065424 0 353.917 353.917 1000.84 
218 1 1 0.191846 0.0531458 0 0 0 0 -0.175832 0.148386 0 0.054379 -0.0515704 0 -0.175832 0.148386 0 229.428 229.428 1000.55 
219 1 1 0.169769 0.0621828 0 0 0 0 -0.0247982 0.121466 0 -0.205007 -0.0214568 0 -0.0247982 0.121466 0 161.832 161.832 1000.38 
220 1 1 0.184315 0.0529055 0 0 0 0 -0.14474 0.109636 0 -0.0990636 0.0162891 0 -0.14474 0.109636 0 251.654 251.654 1000.6 
221 1 1 0.201354 0.056542 0 0 0 0 -0.215383 0.078007 0 0.0737551 -0.0406372 0 -0.215383 0.078007 0 204.846 204.846 1000.49 
222 1 1 0.200832 0.044709 0 0 0 0 -0.216448 0.0642637 0 -0.0534997 -0.0138754 0 -0.216448 0.0642637 0 293.909 293.909 1000.7 
223 1 1 0.246746 0.054444 0 0 0 0 -0.28546 0.0600992 0 -0.0606732 -0.0352249 0 -0.28546 0.0600992 0 220.957 220.957 1000.53 
224 1 1 0.246958 0.0427344 0 0 0 0 -0.280357 0.0166069 0 0.038657 0.0626711 0 -0.280357 0.0166069 0 308.191 308.191 1000.73 
225 1 1 0.256154 0.0475226 0 0 0 0 -0.29987 0.053289 0 0.00204046 -0.0029506 0 -0.29987 0.053289 0 243.454 243.454 1000.58 
226 1 1 0.264154 0.0574371 0 0 0 0 -0.282955 0.0130046 0 -0.0299744 -0.0773289 0 -0.282955 0.0130046 0 183.476 183.476 1000.44 
227 1 1 0.27561 0.0295302 0 0 0 0 -0.270396 0.00221073 0 0.0231361 -0.0680646 0 -0.270396 0.00221073 0 443.905 443.905 1001.05 
228 1 1 0.272514 0.0486125 0 0 0 0 -0.307138 -0.0386777 0 0.0548655 0.0275535 0 -0.307138 -0.0386777 0 292.024 292.024 1000.69 
229 1 1 0.284078 0.0478294 0 0 0 0 -0.280283 -0.00815226 0 -0.013211 0.0241343 0 -0.280283 -0.00815226 0 283.884 283.884 1000.67 
230 1 1 0.294469 0.0331339 0 0 0 0 -0.277114 -0.0193038 0 0.061091 -0.0170273 0 -0.277114 -0.0193038 0 409.575 409.575 1000.97 
231 1 1 0.296914 0.0429034 0 0 0 0 -0.219793 -0.070973 0 0.0549138 0.0301337 0 -0.219793 -0.070973 0 325.9 325.9 1000.77 
232 1 1 0.30826 0.0465325 0 0 0 0 -0.243923 -0.0748772 0 -0.0370005 0.0392079 0 -0.243923 -0.0748772 0 292.789 292.789 1000.7 