ITEM: TIMESTEP
1000
ITEM: NUMBER OF ATOMS
754
ITEM: BOX BOUNDS ff ff pp
-0.021 0.521
-0.021 0.5
-0.001 0.001
ITEM: ATOMS id type type x y z ix iy iz vx vy vz fx fy fz vx vy vz p p rho 
1 1 1 0.00977565 0.00967665 0 0 0 0 -0.0496152 -0.0547077 0 -0.271169 -0.233669 0 -0.0496152 -0.0547077 0 1434.54 1434.54 1003.38 
2 1 1 0.019914 0.0097637 0 0 0 0 -0.0149711 -0.0294255 0 0.0836697 0.115414 0 -0.0149711 -0.0294255 0 1364.49 1364.49 1003.22 
3 1 1 0.0299279 0.00978 0 0 0 0 -0.0164768 -0.0262351 0 0.0560513 0.114446 0 -0.0164768 -0.0262351 0 1375.29 1375.29 1003.24 
4 1 1 0.0399532 0.00978134 0 0 0 0 -0.00944919 -0.0248891 0 0.166599 0.169403 0 -0.00944919 -0.0248891 0 1350.49 1350.49 1003.18 
5 1 1 0.0499695 0.00978303 0 0 0 0 -0.00555769 -0.0231241 0 0.212225 0.226026 0 -0.00555769 -0.0231241 0 1324.9 1324.9 1003.13 
6 1 1 0.0599833 0.00978469 0 0 0 0 -0.00116884 -0.0214624 0 0.285712 0.278413 0 -0.00116884 -0.0214624 0 1288.38 1288.38 1003.04 
7 1 1 0.0699955 0.00978722 0 0 0 0 0.00308653 -0.0195876 0 0.350104 0.327961 0 0.00308653 -0.0195876 0 1242.36 1242.36 1002.93 
8 1 1 0.0800057 0.00979105 0 0 0 0 0.00690955 -0.0174264 0 0.403668 0.372355 0 0.00690955 -0.0174264 0 1188.45 1188.45 1002.81 
9 1 1 0.0900135 0.00979622 0 0 0 0 0.00992001 -0.0149881 0 0.439733 0.411663 0 0.00992001 -0.0149881 0 1128.24 1128.24 1002.66 
10 1 1 0.100018 0.00980237 0 0 0 0 0.0115201 -0.0124202 0 0.440162 0.444523 0 0.0115201 -0.0124202 0 1064.63 1064.63 1002.52 
11 1 1 0.00987914 0.0197869 0 0 0 0 -0.0230604 -0.0266194 0 0.0478685 0.0470307 0 -0.0230604 -0.0266194 0 1250.83 1250.83 1002.95 
12 1 1 0.0199462 0.0198203 0 0 0 0 -0.00903764 -0.0219824 0 0.0895211 0.0242741 0 -0.00903764 -0.0219824 0 1189.09 1189.09 1002.81 
13 1 1 0.0299348 0.0198329 0 0 0 0 -0.0148171 -0.0195265 0 0.0867062 0.0564196 0 -0.0148171 -0.0195265 0 1209.17 1209.17 1002.85 
14 1 1 0.0399587 0.0198423 0 0 0 0 -0.00714054 -0.0167867 0 0.211976 0.0962892 0 -0.00714054 -0.0167867 0 1176.21 1176.21 1002.78 
15 1 1 0.0499734 0.0198484 0 0 0 0 -0.00371337 -0.0147405 0 0.246909 0.12322 0 -0.00371337 -0.0147405 0 1149.01 1149.01 1002.71 
16 1 1 0.0599871 0.0198533 0 0 0 0 0.00081795 -0.012736 0 0.322628 0.151977 0 0.00081795 -0.012736 0 1109.98 1109.98 1002.62 
17 1 1 0.0700001 0.0198588 0 0 0 0 0.00537683 -0.0103704 0 0.386653 0.18516 0 0.00537683 -0.0103704 0 1061.74 1061.74 1002.51 
18 1 1 0.0800116 0.0198652 0 0 0 0 0.00951749 -0.00763866 0 0.438698 0.219391 0 0.00951749 -0.00763866 0 1005.34 1005.34 1002.38 
19 1 1 0.0900208 0.0198735 0 0 0 0 0.0127799 -0.00447624 0 0.471019 0.252667 0 0.0127799 -0.00447624 0 942.324 942.324 1002.23 
20 1 1 0.100026 0.0198838 0 0 0 0 0.0144746 -0.000815074 0 0.464923 0.286767 0 0.0144746 -0.000815074 0 876.776 876.776 1002.07 
21 1 1 0.00990491 0.0297169 0 0 0 0 -0.020785 -0.0385321 0 0.00385833 0.0774463 0 -0.020785 -0.0385321 0 1148.57 1148.57 1002.71 
22 1 1 0.0199552 0.0297219 0 0 0 0 -0.00748923 -0.0384109 0 0.131262 0.102119 0 -0.00748923 -0.0384109 0 1094.68 1094.68 1002.59 
23 1 1 0.0299474 0.0297344 0 0 0 0 -0.0113721 -0.0348728 0 0.13096 0.159146 0 -0.0113721 -0.0348728 0 1097.39 1097.39 1002.59 
24 1 1 0.0399664 0.0297446 0 0 0 0 -0.00504289 -0.0323338 0 0.235319 0.180993 0 -0.00504289 -0.0323338 0 1061.61 1061.61 1002.51 
25 1 1 0.0499789 0.0297511 0 0 0 0 -0.00179241 -0.0303887 0 0.272923 0.206705 0 -0.00179241 -0.0303887 0 1030.98 1030.98 1002.44 
26 1 1 0.0599928 0.0297572 0 0 0 0 0.00310268 -0.0281406 0 0.35351 0.236761 0 0.00310268 -0.0281406 0 987.931 987.931 1002.34 
27 1 1 0.0700067 0.0297639 0 0 0 0 0.00806064 -0.0254667 0 0.419733 0.270782 0 0.00806064 -0.0254667 0 934.363 934.363 1002.21 
28 1 1 0.0800207 0.0297729 0 0 0 0 0.0129786 -0.0220495 0 0.474508 0.306231 0 0.0129786 -0.0220495 0 872.784 872.784 1002.07 
29 1 1 0.0900343 0.0297885 0 0 0 0 0.0177176 -0.0160867 0 0.523278 0.3781 0 0.0177176 -0.0160867 0 806.98 806.98 1001.91 
30 1 1 0.100043 0.0298101 0 0 0 0 0.02037 -0.0078818 0 0.525209 0.486865 0 0.02037 -0.0078818 0 738.464 738.464 1001.75 
31 1 1 0.00992017 0.0396979 0 0 0 0 -0.0186393 -0.0386058 0 0.021655 0.14823 0 -0.0186393 -0.0386058 0 1009.4 1009.4 1002.39 
32 1 1 0.0199648 0.0397073 0 0 0 0 -0.00505257 -0.0372888 0 0.180703 0.158256 0 -0.00505257 -0.0372888 0 948.391 948.391 1002.24 
33 1 1 0.0299596 0.0397179 0 0 0 0 -0.00840526 -0.034898 0 0.152746 0.177956 0 -0.00840526 -0.034898 0 946.452 946.452 1002.24 
34 1 1 0.0399736 0.0397261 0 0 0 0 -0.00323687 -0.0330988 0 0.254397 0.188038 0 -0.00323687 -0.0330988 0 910.784 910.784 1002.15 
35 1 1 0.0499853 0.0397326 0 0 0 0 0.000362712 -0.031192 0 0.301178 0.20925 0 0.000362712 -0.031192 0 875.194 875.194 1002.07 
36 1 1 0.0599994 0.0397391 0 0 0 0 0.00561325 -0.0289816 0 0.384789 0.232046 0 0.00561325 -0.0289816 0 828.177 828.177 1001.96 
37 1 1 0.0700144 0.039746 0 0 0 0 0.0109438 -0.0264784 0 0.448459 0.255184 0 0.0109438 -0.0264784 0 768.537 768.537 1001.82 
38 1 1 0.0800352 0.0397572 0 0 0 0 0.018599 -0.022355 0 0.542767 0.294221 0 0.018599 -0.022355 0 705.212 705.212 1001.67 
39 1 1 0.0900536 0.0397741 0 0 0 0 0.0254471 -0.0154317 0 0.636563 0.395782 0 0.0254471 -0.0154317 0 621.407 621.407 1001.47 
40 1 1 0.100064 0.0397851 0 0 0 0 0.0284008 -0.0114194 0 0.628681 0.436054 0 0.0284008 -0.0114194 0 516.025 516.025 1001.22 
41 1 1 0.00993493 0.0496652 0 0 0 0 -0.0165808 -0.0444018 0 0.0182095 0.174495 0 -0.0165808 -0.0444018 0 877.305 877.305 1002.08 
42 1 1 0.0199715 0.0496713 0 0 0 0 -0.00399532 -0.0440775 0 0.193251 0.167343 0 -0.00399532 -0.0440775 0 820.729 820.729 1001.94 
43 1 1 0.0299683 0.0496785 0 0 0 0 -0.00648853 -0.0425714 0 0.161562 0.179119 0 -0.00648853 -0.0425714 0 816.307 816.307 1001.93 
44 1 1 0.03998 0.0496852 0 0 0 0 -0.00170647 -0.0410885 0 0.26379 0.181691 0 -0.00170647 -0.0410885 0 780.147 780.147 1001.85 
45 1 1 0.0499913 0.0496909 0 0 0 0 0.0021926 -0.0396212 0 0.314216 0.185087 0 0.0021926 -0.0396212 0 742.104 742.104 1001.76 
46 1 1 0.0600053 0.0496962 0 0 0 0 0.007607 -0.038084 0 0.397857 0.186766 0 0.007607 -0.038084 0 693.749 693.749 1001.64 
47 1 1 0.0700217 0.0497017 0 0 0 0 0.0133779 -0.0363838 0 0.457571 0.186146 0 0.0133779 -0.0363838 0 631.764 631.764 1001.5 
48 1 1 0.08005 0.0497111 0 0 0 0 0.024571 -0.032959 0 0.619902 0.210029 0 0.024571 -0.032959 0 570.313 570.313 1001.35 
49 1 1 0.0900585 0.0497197 0 0 0 0 0.0272097 -0.029291 0 0.639268 0.253104 0 0.0272097 -0.029291 0 454.427 454.427 1001.08 
50 1 1 0.100126 0.0497764 0 0 0 0 0.0483421 -0.0111909 0 0.871425 0.478424 0 0.0483421 -0.0111909 0 400.822 400.822 1000.95 
51 1 1 0.00994776 0.0596398 0 0 0 0 -0.0143996 -0.0482557 0 0.0201237 0.23002 0 -0.0143996 -0.0482557 0 732.353 732.353 1001.73 
52 1 1 0.0199767 0.0596458 0 0 0 0 -0.00322218 -0.0476011 0 0.19988 0.218424 0 -0.00322218 -0.0476011 0 678.168 678.168 1001.61 
53 1 1 0.0299756 0.0596518 0 0 0 0 -0.00478933 -0.0462452 0 0.166463 0.22175 0 -0.00478933 -0.0462452 0 669.638 669.638 1001.59 
54 1 1 0.0399854 0.0596575 0 0 0 0 -0.000540099 -0.0450537 0 0.257067 0.211339 0 -0.000540099 -0.0450537 0 635.045 635.045 1001.51 
55 1 1 0.0499959 0.0596617 0 0 0 0 0.00333625 -0.0442136 0 0.306287 0.193977 0 0.00333625 -0.0442136 0 597.726 597.726 1001.42 
56 1 1 0.0600093 0.059665 0 0 0 0 0.00866468 -0.0436068 0 0.386474 0.171213 0 0.00866468 -0.0436068 0 550.723 550.723 1001.31 
57 1 1 0.0700263 0.0596674 0 0 0 0 0.0146397 -0.0432653 0 0.442301 0.141388 0 0.0146397 -0.0432653 0 490.148 490.148 1001.16 
58 1 1 0.0800581 0.0596698 0 0 0 0 0.0278032 -0.0427801 0 0.650216 0.112904 0 0.0278032 -0.0427801 0 430.858 430.858 1001.02 
59 1 1 0.0900659 0.059672 0 0 0 0 0.0294917 -0.0420251 0 0.641871 0.0979796 0 0.0294917 -0.0420251 0 297.353 297.353 1000.71 
60 1 1 0.100242 0.0597127 0 0 0 0 0.0887756 -0.0276259 0 1.49119 0.32591 0 0.0887756 -0.0276259 0 291.538 291.538 1000.69 
61 1 1 0.00996006 0.0696188 0 0 0 0 -0.0117384 -0.0520931 0 0.021128 0.266918 0 -0.0117384 -0.0520931 0 582.452 582.452 1001.38 
62 1 1 0.019981 0.0696247 0 0 0 0 -0.00268711 -0.0512635 0 0.185791 0.239304 0 -0.00268711 -0.0512635 0 535.578 535.578 1001.27 
63 1 1 0.0299811 0.0696289 0 0 0 0 -0.00354028 -0.0505445 0 0.157107 0.218204 0 -0.00354028 -0.0505445 0 524.846 524.846 1001.24 
64 1 1 0.0399896 0.0696329 0 0 0 0 0.000137884 -0.0498774 0 0.232157 0.190132 0 0.000137884 -0.0498774 0 493.514 493.514 1001.17 
65 1 1 0.0499988 0.0696356 0 0 0 0 0.00365841 -0.0496959 0 0.274625 0.150982 0 0.00365841 -0.0496959 0 459.726 459.726 1001.09 
66 1 1 0.0600107 0.0696366 0 0 0 0 0.00848826 -0.0501378 0 0.345257 0.100176 0 0.00848826 -0.0501378 0 417.686 417.686 1000.99 
67 1 1 0.0700257 0.0696353 0 0 0 0 0.013792 -0.0514234 0 0.38972 0.0372602 0 0.013792 -0.0514234 0 363.307 363.307 1000.86 
68 1 1 0.0800549 0.0696294 0 0 0 0 0.0260147 -0.0544616 0 0.582613 -0.0524719 0 0.0260147 -0.0544616 0 313.377 313.377 1000.74 
69 1 1 0.0900606 0.0696215 0 0 0 0 0.027451 -0.0582892 0 0.583871 -0.154118 0 0.027451 -0.0582892 0 194.586 194.586 1000.46 
70 1 1 0.100184 0.0696032 0 0 0 0 0.0685906 -0.0645716 0 1.18659 -0.257787 0 0.0685906 -0.0645716 0 163.502 163.502 1000.39 
71 1 1 0.00997044 0.0796029 0 0 0 0 -0.00855521 -0.0551919 0 0.0379737 0.31181 0 -0.00855521 -0.0551919 0 424.956 424.956 1001.01 
72 1 1 0.0199851 0.0796076 0 0 0 0 -0.00206 -0.0535717 0 0.154215 0.302959 0 -0.00206 -0.0535717 0 388.896 388.896 1000.92 
73 1 1 0.0299849 0.0796116 0 0 0 0 -0.00284499 -0.0527064 0 0.126426 0.270651 0 -0.00284499 -0.0527064 0 381.782 381.782 1000.91 
74 1 1 0.0399926 0.0796149 0 0 0 0 0.000386594 -0.0522733 0 0.187784 0.224681 0 0.000386594 -0.0522733 0 355.889 355.889 1000.85 
75 1 1 0.0500001 0.0796168 0 0 0 0 0.00319933 -0.0525326 0 0.217138 0.163916 0 0.00319933 -0.0525326 0 328.898 328.898 1000.78 
76 1 1 0.0600095 0.0796161 0 0 0 0 0.00704462 -0.0538969 0 0.271313 0.084063 0 0.00704462 -0.0538969 0 295.765 295.765 1000.7 
77 1 1 0.0700208 0.079612 0 0 0 0 0.0110493 -0.0565885 0 0.302825 -0.0131007 0 0.0110493 -0.0565885 0 252.262 252.262 1000.6 
78 1 1 0.0800419 0.0796012 0 0 0 0 0.0198434 -0.0618171 0 0.436261 -0.143033 0 0.0198434 -0.0618171 0 212.985 212.985 1000.51 
79 1 1 0.0900472 0.0795838 0 0 0 0 0.021672 -0.0699385 0 0.458649 -0.324203 0 0.021672 -0.0699385 0 128.466 128.466 1000.31 
80 1 1 0.100107 0.0795633 0 0 0 0 0.0413546 -0.0781499 0 0.738314 -0.480286 0 0.0413546 -0.0781499 0 92.8227 92.8227 1000.22 
81 1 1 0.00996492 0.0896008 0 0 0 0 -0.00870243 -0.0567638 0 0.0483372 0.2672 0 -0.00870243 -0.0567638 0 259.501 259.501 1000.62 
82 1 1 0.0199877 0.0895897 0 0 0 0 -0.00101562 -0.0591909 0 0.13664 0.224706 0 -0.00101562 -0.0591909 0 221.01 221.01 1000.53 
83 1 1 0.0299883 0.0895919 0 0 0 0 -0.00211093 -0.0583668 0 0.0905776 0.201662 0 -0.00211093 -0.0583668 0 218.188 218.188 1000.52 
84 1 1 0.0399949 0.0895944 0 0 0 0 0.00043311 -0.0581275 0 0.13174 0.152351 0 0.00043311 -0.0581275 0 199.858 199.858 1000.48 
85 1 1 0.0500004 0.0895954 0 0 0 0 0.00231296 -0.0586566 0 0.144696 0.0868565 0 0.00231296 -0.0586566 0 182.497 182.497 1000.43 
86 1 1 0.0600067 0.0895938 0 0 0 0 0.00478484 -0.0603349 0 0.175217 0.0013343 0 0.00478484 -0.0603349 0 162.628 162.628 1000.39 
87 1 1 0.0700138 0.0895888 0 0 0 0 0.00727489 -0.0634799 0 0.192148 -0.106269 0 0.00727489 -0.0634799 0 136.775 136.775 1000.33 
88 1 1 0.0800258 0.0895779 0 0 0 0 0.0122214 -0.0688959 0 0.26205 -0.24179 0 0.0122214 -0.0688959 0 113.713 113.713 1000.27 
89 1 1 0.0900283 0.0895597 0 0 0 0 0.0129574 -0.0776273 0 0.269112 -0.438881 0 0.0129574 -0.0776273 0 67.2699 67.2699 1000.16 
90 1 1 0.100057 0.0895412 0 0 0 0 0.022289 -0.0857648 0 0.398613 -0.61019 0 0.022289 -0.0857648 0 46.7487 46.7487 1000.11 
91 1 1 0.00993856 0.0995889 0 0 0 0 -0.0137967 -0.0537587 0 0.0537687 0.474054 0 -0.0137967 -0.0537587 0 141.786 141.786 1000.34 
92 1 1 0.0199862 0.0995837 0 0 0 0 -0.00161296 -0.0565067 0 0.0921195 0.377921 0 -0.00161296 -0.0565067 0 113.653 113.653 1000.27 
93 1 1 0.0299916 0.0995954 0 0 0 0 -0.00144152 -0.0542483 0 0.056521 0.311786 0 -0.00144152 -0.0542483 0 108.108 108.108 1000.26 
94 1 1 0.0399965 0.0996023 0 0 0 0 0.000174689 -0.0537094 0 0.0748697 0.217237 0 0.000174689 -0.0537094 0 96.5017 96.5017 1000.23 
95 1 1 0.0500002 0.099604 0 0 0 0 0.00129813 -0.0547758 0 0.078151 0.113833 0 0.00129813 -0.0547758 0 85.3491 85.3491 1000.2 
96 1 1 0.0600036 0.0996014 0 0 0 0 0.0025673 -0.0573738 0 0.0891155 -0.000435927 0 0.0025673 -0.0573738 0 73.7471 73.7471 1000.18 
97 1 1 0.0700073 0.0995939 0 0 0 0 0.00378448 -0.061843 0 0.0938511 -0.134161 0 0.00378448 -0.061843 0 60.2061 60.2061 1000.14 
98 1 1 0.0800125 0.0995804 0 0 0 0 0.00581673 -0.0683121 0 0.116735 -0.27673 0 0.00581673 -0.0683121 0 48.5502 48.5502 1000.12 
99 1 1 0.0900125 0.0995592 0 0 0 0 0.00551818 -0.0781424 0 0.104991 -0.47404 0 0.00551818 -0.0781424 0 29.7652 29.7652 1000.07 
100 1 1 0.100027 0.0995418 0 0 0 0 0.0105051 -0.0854155 0 0.18146 -0.611897 0 0.0105051 -0.0854155 0 28.6383 28.6383 1000.07 
101 1 1 0.11002 0.0098088 0 0 0 0 0.0117389 -0.00994492 0 0.420072 0.469358 0 0.0117389 -0.00994492 0 1002.54 1002.54 1002.37 
102 1 1 0.120018 0.00981435 0 0 0 0 0.010528 -0.00792319 0 0.36821 0.482609 0 0.010528 -0.00792319 0 946.861 946.861 1002.24 
103 1 1 0.130014 0.00981851 0 0 0 0 0.00861295 -0.00647175 0 0.306211 0.486464 0 0.00861295 -0.00647175 0 899.325 899.325 1002.13 
104 1 1 0.14001 0.00982125 0 0 0 0 0.00656197 -0.00555963 0 0.243911 0.483925 0 0.00656197 -0.00555963 0 860.587 860.587 1002.04 
105 1 1 0.150007 0.0098229 0 0 0 0 0.00475182 -0.00501728 0 0.188051 0.479846 0 0.00475182 -0.00501728 0 830.077 830.077 1001.96 
106 1 1 0.160005 0.00982388 0 0 0 0 0.00329764 -0.00467148 0 0.1406 0.477368 0 0.00329764 -0.00467148 0 806.905 806.905 1001.91 
107 1 1 0.170003 0.00982447 0 0 0 0 0.00220432 -0.00443489 0 0.102189 0.476713 0 0.00220432 -0.00443489 0 789.855 789.855 1001.87 
108 1 1 0.180002 0.00982484 0 0 0 0 0.00142673 -0.00427102 0 0.0723536 0.477312 0 0.00142673 -0.00427102 0 777.63 777.63 1001.84 
109 1 1 0.190001 0.00982506 0 0 0 0 0.000896375 -0.00415756 0 0.0498407 0.478659 0 0.000896375 -0.00415756 0 769.099 769.099 1001.82 
110 1 1 0.200001 0.00982519 0 0 0 0 0.000546684 -0.00407977 0 0.0333295 0.480296 0 0.000546684 -0.00407977 0 763.324 763.324 1001.81 
111 1 1 0.21 0.00982527 0 0 0 0 0.000323718 -0.0040278 0 0.0216124 0.481878 0 0.000323718 -0.0040278 0 759.534 759.534 1001.8 
112 1 1 0.22 0.00982531 0 0 0 0 0.000186164 -0.00399419 0 0.0135796 0.483217 0 0.000186164 -0.00399419 0 757.126 757.126 1001.79 
113 1 1 0.23 0.00982534 0 0 0 0 0.000104033 -0.0039732 0 0.0082694 0.484248 0 0.000104033 -0.0039732 0 755.645 755.645 1001.79 
114 1 1 0.24 0.00982535 0 0 0 0 5.66598e-05 -0.00396054 0 0.00489728 0.484988 0 5.66598e-05 -0.00396054 0 754.762 754.762 1001.79 
115 1 1 0.25 0.00982536 0 0 0 0 3.04485e-05 -0.00395311 0 0.00285833 0.485493 0 3.04485e-05 -0.00395311 0 754.248 754.248 1001.79 
116 1 1 0.26 0.00982536 0 0 0 0 1.69212e-05 -0.00394876 0 0.00171773 0.48583 0 1.69212e-05 -0.00394876 0 753.949 753.949 1001.79 
117 1 1 0.27 0.00982536 0 0 0 0 1.1209e-05 -0.00394603 0 0.00119125 0.486064 0 1.1209e-05 -0.00394603 0 753.76 753.76 1001.79 
118 1 1 0.28 0.00982536 0 0 0 0 1.09938e-05 -0.00394387 0 0.00112038 0.486251 0 1.09938e-05 -0.00394387 0 753.611 753.611 1001.78 
119 1 1 0.29 0.00982537 0 0 0 0 1.59211e-05 -0.00394145 0 0.00145197 0.486436 0 1.59211e-05 -0.00394145 0 753.442 753.442 1001.78 
120 1 1 0.3 0.00982537 0 0 0 0 2.73071e-05 -0.003938 0 0.00221113 0.486651 0 2.73071e-05 -0.003938 0 753.197 753.197 1001.78 
121 1 1 0.31 0.00982538 0 0 0 0 4.82e-05 -0.00393267 0 0.00347938 0.486907 0 4.82e-05 -0.00393267 0 752.809 752.809 1001.78 
122 1 1 0.32 0.00982539 0 0 0 0 8.35735e-05 -0.00392456 0 0.00536074 0.487187 0 8.35735e-05 -0.00392456 0 752.197 752.197 1001.78 
123 1 1 0.33 0.0098254 0 0 0 0 0.000140561 -0.00391283 0 0.00793465 0.487417 0 0.000140561 -0.00391283 0 751.266 751.266 1001.78 
124 1 1 0.34 0.00982543 0 0 0 0 0.000228546 -0.00389711 0 0.011192 0.487441 0 0.000228546 -0.00389711 0 749.91 749.91 1001.78 
125 1 1 0.35 0.00982548 0 0 0 0 0.000358917 -0.00387809 0 0.014959 0.486996 0 0.000358917 -0.00387809 0 748.037 748.037 1001.77 
126 1 1 0.360001 0.00982555 0 0 0 0 0.000544333 -0.00385858 0 0.0188252 0.485693 0 0.000544333 -0.00385858 0 745.596 745.596 1001.77 
127 1 1 0.370001 0.00982564 0 0 0 0 0.000797453 -0.00384468 0 0.0220988 0.483043 0 0.000797453 -0.00384468 0 742.619 742.619 1001.76 
128 1 1 0.380002 0.00982576 0 0 0 0 0.00112933 -0.00384719 0 0.0238208 0.478514 0 0.00112933 -0.00384719 0 739.265 739.265 1001.75 
129 1 1 0.390003 0.00982591 0 0 0 0 0.00154786 -0.0038826 0 0.0228602 0.471655 0 0.00154786 -0.0038826 0 735.855 735.855 1001.74 
130 1 1 0.400005 0.00982607 0 0 0 0 0.00205637 -0.00397378 0 0.0180377 0.462244 0 0.00205637 -0.00397378 0 732.89 732.89 1001.74 
131 1 1 0.410007 0.00982621 0 0 0 0 0.00265576 -0.00414967 0 0.00836565 0.450429 0 0.00265576 -0.00414967 0 731.041 731.041 1001.73 
132 1 1 0.420011 0.00982628 0 0 0 0 0.00334776 -0.00444269 0 -0.00652001 0.436933 0 0.00334776 -0.00444269 0 731.102 731.102 1001.73 
133 1 1 0.430015 0.00982616 0 0 0 0 0.00411626 -0.00489533 0 -0.0277768 0.422849 0 0.00411626 -0.00489533 0 733.82 733.82 1001.74 
134 1 1 0.440021 0.00982573 0 0 0 0 0.00503883 -0.00555627 0 -0.054125 0.40894 0 0.00503883 -0.00555627 0 740.359 740.359 1001.75 
135 1 1 0.450029 0.00982474 0 0 0 0 0.00613189 -0.00643564 0 -0.0805174 0.398663 0 0.00613189 -0.00643564 0 751.053 751.053 1001.78 
136 1 1 0.460041 0.00982253 0 0 0 0 0.00695033 -0.00777045 0 -0.135725 0.390318 0 0.00695033 -0.00777045 0 765.282 765.282 1001.81 
137 1 1 0.470061 0.00981967 0 0 0 0 0.0109258 -0.00901278 0 -0.133447 0.390186 0 0.0109258 -0.00901278 0 792.984 792.984 1001.88 
138 1 1 0.480071 0.00980177 0 0 0 0 0.00718689 -0.012035 0 -0.256172 0.451731 0 0.00718689 -0.012035 0 800.81 800.81 1001.9 
139 1 1 0.490198 0.00971489 0 0 0 0 0.0346317 -0.0350785 0 -0.188341 0.290221 0 0.0346317 -0.0350785 0 892.807 892.807 1002.11 
140 1 1 0.110027 0.0198947 0 0 0 0 0.0143498 0.0029057 0 0.437995 0.319464 0 0.0143498 0.0029057 0 813.204 813.204 1001.93 
141 1 1 0.120023 0.0199028 0 0 0 0 0.0122927 0.00545291 0 0.372366 0.332351 0 0.0122927 0.00545291 0 757.775 757.775 1001.79 
142 1 1 0.130018 0.0199076 0 0 0 0 0.00965953 0.00686523 0 0.300535 0.331003 0 0.00965953 0.00686523 0 712.008 712.008 1001.69 
143 1 1 0.140012 0.0199101 0 0 0 0 0.0070436 0.0075205 0 0.231302 0.319688 0 0.0070436 0.0075205 0 676.78 676.78 1001.6 
144 1 1 0.150008 0.0199113 0 0 0 0 0.00491517 0.0076768 0 0.17454 0.301993 0 0.00491517 0.0076768 0 649.921 649.921 1001.54 
145 1 1 0.160005 0.0199117 0 0 0 0 0.00334772 0.00759926 0 0.129932 0.284152 0 0.00334772 0.00759926 0 629.567 629.567 1001.49 
146 1 1 0.170003 0.0199118 0 0 0 0 0.00222434 0.00747991 0 0.0947823 0.269804 0 0.00222434 0.00747991 0 614.511 614.511 1001.46 
147 1 1 0.180002 0.0199118 0 0 0 0 0.00143899 0.00738143 0 0.0676437 0.259309 0 0.00143899 0.00738143 0 603.64 603.64 1001.43 
148 1 1 0.190001 0.0199118 0 0 0 0 0.000908076 0.00731357 0 0.0471773 0.252137 0 0.000908076 0.00731357 0 595.954 595.954 1001.41 
149 1 1 0.200001 0.0199117 0 0 0 0 0.000558216 0.00727231 0 0.0320247 0.247557 0 0.000558216 0.00727231 0 590.663 590.663 1001.4 
150 1 1 0.21 0.0199117 0 0 0 0 0.000333814 0.00724951 0 0.0211053 0.244802 0 0.000333814 0.00724951 0 587.129 587.129 1001.39 
151 1 1 0.22 0.0199117 0 0 0 0 0.000194099 0.00723793 0 0.0134856 0.243239 0 0.000194099 0.00723793 0 584.841 584.841 1001.39 
152 1 1 0.23 0.0199117 0 0 0 0 0.000109747 0.00723256 0 0.00835246 0.242405 0 0.000109747 0.00723256 0 583.406 583.406 1001.38 
153 1 1 0.24 0.0199117 0 0 0 0 6.05009e-05 0.00723034 0 0.00503064 0.241989 0 6.05009e-05 0.00723034 0 582.534 582.534 1001.38 
154 1 1 0.25 0.0199117 0 0 0 0 3.29195e-05 0.00722958 0 0.00298576 0.241797 0 3.29195e-05 0.00722958 0 582.017 582.017 1001.38 
155 1 1 0.26 0.0199117 0 0 0 0 1.85155e-05 0.00722942 0 0.00182243 0.241715 0 1.85155e-05 0.00722942 0 581.71 581.71 1001.38 
156 1 1 0.27 0.0199117 0 0 0 0 1.23451e-05 0.00722945 0 0.00127463 0.241679 0 1.23451e-05 0.00722945 0 581.515 581.515 1001.38 
157 1 1 0.28 0.0199117 0 0 0 0 1.20042e-05 0.00722946 0 0.00118811 0.241652 0 1.20042e-05 0.00722946 0 581.359 581.359 1001.38 
158 1 1 0.29 0.0199117 0 0 0 0 1.7055e-05 0.00722928 0 0.00150381 0.241601 0 1.7055e-05 0.00722928 0 581.187 581.187 1001.38 
159 1 1 0.3 0.0199117 0 0 0 0 2.87006e-05 0.00722861 0 0.00223091 0.241488 0 2.87006e-05 0.00722861 0 580.944 580.944 1001.38 
160 1 1 0.31 0.0199117 0 0 0 0 4.97748e-05 0.00722686 0 0.00342227 0.241254 0 4.97748e-05 0.00722686 0 580.57 580.57 1001.38 
161 1 1 0.32 0.0199117 0 0 0 0 8.48106e-05 0.00722285 0 0.00513713 0.240803 0 8.48106e-05 0.00722285 0 579.996 579.996 1001.38 
162 1 1 0.33 0.0199117 0 0 0 0 0.000140101 0.00721447 0 0.00739291 0.239996 0 0.000140101 0.00721447 0 579.149 579.149 1001.37 
163 1 1 0.34 0.0199117 0 0 0 0 0.000223579 0.00719806 0 0.0101064 0.238642 0 0.000223579 0.00719806 0 577.954 577.954 1001.37 
164 1 1 0.35 0.0199117 0 0 0 0 0.000344362 0.00716786 0 0.013034 0.236518 0 0.000344362 0.00716786 0 576.363 576.363 1001.37 
165 1 1 0.360001 0.0199116 0 0 0 0 0.000511906 0.00711524 0 0.0157285 0.233403 0 0.000511906 0.00711524 0 574.375 574.375 1001.36 
166 1 1 0.370001 0.0199115 0 0 0 0 0.000734796 0.00702819 0 0.0175345 0.229149 0 0.000734796 0.00702819 0 572.069 572.069 1001.36 
167 1 1 0.380002 0.0199114 0 0 0 0 0.0010195 0.00689117 0 0.0176425 0.223786 0 0.0010195 0.00689117 0 569.628 569.628 1001.35 
168 1 1 0.390003 0.0199111 0 0 0 0 0.0013695 0.00668555 0 0.0152116 0.217626 0 0.0013695 0.00668555 0 567.355 567.355 1001.35 
169 1 1 0.400005 0.0199106 0 0 0 0 0.00178432 0.00639063 0 0.00946022 0.211358 0 0.00178432 0.00639063 0 565.661 565.661 1001.34 
170 1 1 0.410007 0.0199098 0 0 0 0 0.0022632 0.005985 0 -0.000138401 0.206054 0 0.0022632 0.005985 0 565.049 565.049 1001.34 
171 1 1 0.42001 0.0199086 0 0 0 0 0.00280879 0.00544896 0 -0.0133479 0.203166 0 0.00280879 0.00544896 0 566.059 566.059 1001.34 
172 1 1 0.430014 0.0199067 0 0 0 0 0.00338959 0.00475979 0 -0.0316364 0.204297 0 0.00338959 0.00475979 0 569.043 569.043 1001.35 
173 1 1 0.440019 0.0199039 0 0 0 0 0.00410421 0.0038847 0 -0.0536048 0.210376 0 0.00410421 0.0038847 0 575.044 575.044 1001.36 
174 1 1 0.450026 0.0198997 0 0 0 0 0.00496238 0.00282552 0 -0.0702826 0.224089 0 0.00496238 0.00282552 0 583.981 583.981 1001.38 
175 1 1 0.460034 0.019893 0 0 0 0 0.00503416 0.00135505 0 -0.127967 0.246481 0 0.00503416 0.00135505 0 593.401 593.401 1001.41 
176 1 1 0.470053 0.0198823 0 0 0 0 0.00950221 -0.00103733 0 -0.103743 0.261353 0 0.00950221 -0.00103733 0 621.575 621.575 1001.47 
177 1 1 0.480039 0.0198689 0 0 0 0 0.00264974 -0.00265889 0 -0.156841 0.306899 0 0.00264974 -0.00265889 0 613.842 613.842 1001.46 
178 1 1 0.490093 0.019834 0 0 0 0 0.0099185 -0.00603058 0 -0.316978 0.443554 0 0.0099185 -0.00603058 0 665.291 665.291 1001.58 
179 1 1 0.110042 0.0298332 0 0 0 0 0.0191475 0.000539863 0 0.479043 0.593491 0 0.0191475 0.000539863 0 668.877 668.877 1001.59 
180 1 1 0.120031 0.0298491 0 0 0 0 0.0144737 0.00549218 0 0.371051 0.625984 0 0.0144737 0.00549218 0 613.434 613.434 1001.45 
181 1 1 0.130021 0.0298552 0 0 0 0 0.0102595 0.00665908 0 0.281943 0.59898 0 0.0102595 0.00665908 0 567.305 567.305 1001.35 
182 1 1 0.140013 0.029856 0 0 0 0 0.0070002 0.00617494 0 0.206451 0.556102 0 0.0070002 0.00617494 0 532.307 532.307 1001.26 
183 1 1 0.150008 0.0298555 0 0 0 0 0.00464164 0.00545372 0 0.148843 0.516102 0 0.00464164 0.00545372 0 507.702 507.702 1001.2 
184 1 1 0.160005 0.0298549 0 0 0 0 0.00303125 0.00481094 0 0.10772 0.48237 0 0.00303125 0.00481094 0 490.136 490.136 1001.16 
185 1 1 0.170003 0.0298544 0 0 0 0 0.00197236 0.00431155 0 0.0777961 0.456145 0 0.00197236 0.00431155 0 477.418 477.418 1001.13 
186 1 1 0.180002 0.029854 0 0 0 0 0.00126231 0.00396457 0 0.0553645 0.43694 0 0.00126231 0.00396457 0 468.357 468.357 1001.11 
187 1 1 0.190001 0.0298538 0 0 0 0 0.000793296 0.00373698 0 0.0387504 0.423378 0 0.000793296 0.00373698 0 461.976 461.976 1001.1 
188 1 1 0.200001 0.0298537 0 0 0 0 0.000488228 0.00359436 0 0.0265166 0.414174 0 0.000488228 0.00359436 0 457.57 457.57 1001.09 
189 1 1 0.21 0.0298536 0 0 0 0 0.000293213 0.00350862 0 0.0176582 0.40816 0 0.000293213 0.00350862 0 454.605 454.605 1001.08 
190 1 1 0.22 0.0298535 0 0 0 0 0.000171554 0.00345894 0 0.0114165 0.404372 0 0.000171554 0.00345894 0 452.668 452.668 1001.07 
191 1 1 0.23 0.0298535 0 0 0 0 9.7725e-05 0.00343112 0 0.00715956 0.402069 0 9.7725e-05 0.00343112 0 451.441 451.441 1001.07 
192 1 1 0.24 0.0298535 0 0 0 0 5.4318e-05 0.00341603 0 0.00436747 0.400717 0 5.4318e-05 0.00341603 0 450.687 450.687 1001.07 
193 1 1 0.25 0.0298535 0 0 0 0 2.98136e-05 0.00340804 0 0.00262558 0.399943 0 2.98136e-05 0.00340804 0 450.235 450.235 1001.07 
194 1 1 0.26 0.0298535 0 0 0 0 1.69105e-05 0.00340382 0 0.00162175 0.399501 0 1.69105e-05 0.00340382 0 449.963 449.963 1001.07 
195 1 1 0.27 0.0298535 0 0 0 0 1.13216e-05 0.00340137 0 0.00114146 0.399228 0 1.13216e-05 0.00340137 0 449.788 449.788 1001.07 
196 1 1 0.28 0.0298535 0 0 0 0 1.09294e-05 0.00339943 0 0.00105646 0.399011 0 1.09294e-05 0.00339943 0 449.649 449.649 1001.07 
197 1 1 0.29 0.0298535 0 0 0 0 1.52975e-05 0.00339697 0 0.00131263 0.39876 0 1.52975e-05 0.00339697 0 449.497 449.497 1001.07 
198 1 1 0.3 0.0298535 0 0 0 0 2.53677e-05 0.00339285 0 0.00190745 0.398384 0 2.53677e-05 0.00339285 0 449.287 449.287 1001.07 
199 1 1 0.31 0.0298535 0 0 0 0 4.34075e-05 0.00338539 0 0.00286819 0.397776 0 4.34075e-05 0.00338539 0 448.969 448.969 1001.07 
200 1 1 0.32 0.0298535 0 0 0 0 7.29973e-05 0.00337196 0 0.00421944 0.396799 0 7.29973e-05 0.00337196 0 448.491 448.491 1001.06 
201 1 1 0.33 0.0298534 0 0 0 0 0.000118993 0.0033485 0 0.00594394 0.395286 0 0.000118993 0.0033485 0 447.796 447.796 1001.06 
202 1 1 0.34 0.0298534 0 0 0 0 0.000187333 0.00330895 0 0.00793907 0.393054 0 0.000187333 0.00330895 0 446.835 446.835 1001.06 
203 1 1 0.35 0.0298533 0 0 0 0 0.000284599 0.00324467 0 0.00998046 0.389937 0 0.000284599 0.00324467 0 445.582 445.582 1001.06 
204 1 1 0.360001 0.0298532 0 0 0 0 0.000417327 0.0031441 0 0.0117036 0.385846 0 0.000417327 0.0031441 0 444.049 444.049 1001.05 
205 1 1 0.370001 0.0298529 0 0 0 0 0.000591138 0.00299259 0 0.0126185 0.380848 0 0.000591138 0.00299259 0 442.311 442.311 1001.05 
206 1 1 0.380002 0.0298526 0 0 0 0 0.00081 0.00277283 0 0.012172 0.375242 0 0.00081 0.00277283 0 440.518 440.518 1001.05 
207 1 1 0.390003 0.029852 0 0 0 0 0.00107593 0.00246563 0 0.0098492 0.369625 0 0.00107593 0.00246563 0 438.899 438.899 1001.04 
208 1 1 0.400004 0.0298511 0 0 0 0 0.00138819 0.00205117 0 0.00520179 0.364906 0 0.00138819 0.00205117 0 437.745 437.745 1001.04 
209 1 1 0.410005 0.0298497 0 0 0 0 0.00174668 0.00150971 0 -0.00205304 0.362242 0 0.00174668 0.00150971 0 437.412 437.412 1001.04 
210 1 1 0.420008 0.0298477 0 0 0 0 0.00215584 0.000821765 0 -0.011505 0.36288 0 0.00215584 0.000821765 0 438.281 438.281 1001.04 
211 1 1 0.430011 0.0298448 0 0 0 0 0.00257751 -3.08233e-05 0 -0.0247748 0.368153 0 0.00257751 -3.08233e-05 0 440.538 440.538 1001.05 
212 1 1 0.440015 0.0298407 0 0 0 0 0.00309641 -0.00108278 0 -0.0412417 0.379085 0 0.00309641 -0.00108278 0 445.159 445.159 1001.06 
213 1 1 0.45002 0.0298348 0 0 0 0 0.00375929 -0.00238655 0 -0.0497246 0.395522 0 0.00375929 -0.00238655 0 452.314 452.314 1001.07 
214 1 1 0.460025 0.0298267 0 0 0 0 0.00330806 -0.00388932 0 -0.0988696 0.422157 0 0.00330806 -0.00388932 0 458.102 458.102 1001.09 
215 1 1 0.470038 0.0298136 0 0 0 0 0.00631656 -0.00633588 0 -0.0941786 0.453045 0 0.00631656 -0.00633588 0 481.631 481.631 1001.14 
216 1 1 0.480028 0.0297972 0 0 0 0 0.0020446 -0.00992954 0 -0.101229 0.458743 0 0.0020446 -0.00992954 0 485.469 485.469 1001.15 
217 1 1 0.49006 0.0297855 0 0 0 0 0.00665589 -0.0109096 0 -0.198696 0.512238 0 0.00665589 -0.0109096 0 510.746 510.746 1001.21 
218 1 1 0.110065 0.0398151 0 0 0 0 0.0273556 -0.00112805 0 0.575804 0.561466 0 0.0273556 -0.00112805 0 412.294 412.294 1000.98 
219 1 1 0.120045 0.0398327 0 0 0 0 0.0185534 0.00513499 0 0.388765 0.628573 0 0.0185534 0.00513499 0 351.1 351.1 1000.83 
220 1 1 0.130024 0.0398407 0 0 0 0 0.0103358 0.00744549 0 0.239105 0.630104 0 0.0103358 0.00744549 0 316.411 316.411 1000.75 
221 1 1 0.140013 0.0398414 0 0 0 0 0.00597507 0.00696457 0 0.155669 0.587898 0 0.00597507 0.00696457 0 295.01 295.01 1000.7 
222 1 1 0.150007 0.0398402 0 0 0 0 0.00371878 0.00594274 0 0.10642 0.542907 0 0.00371878 0.00594274 0 279.47 279.47 1000.66 
223 1 1 0.160004 0.0398391 0 0 0 0 0.0023127 0.00506766 0 0.0741912 0.505187 0 0.0023127 0.00506766 0 268.726 268.726 1000.64 
224 1 1 0.170002 0.0398383 0 0 0 0 0.00146656 0.00441448 0 0.052951 0.475806 0 0.00146656 0.00441448 0 260.909 260.909 1000.62 
225 1 1 0.180001 0.0398377 0 0 0 0 0.000928225 0.00396674 0 0.037641 0.454226 0 0.000928225 0.00396674 0 255.292 255.292 1000.61 
226 1 1 0.190001 0.0398373 0 0 0 0 0.000581244 0.00367555 0 0.0265053 0.43896 0 0.000581244 0.00367555 0 251.295 251.295 1000.6 
227 1 1 0.2 0.0398371 0 0 0 0 0.000358543 0.00349302 0 0.0183445 0.428498 0 0.000358543 0.00349302 0 248.489 248.489 1000.59 
228 1 1 0.21 0.039837 0 0 0 0 0.000216568 0.00338242 0 0.0123851 0.421559 0 0.000216568 0.00338242 0 246.568 246.568 1000.59 
229 1 1 0.22 0.039837 0 0 0 0 0.000127686 0.00331749 0 0.00812734 0.417106 0 0.000127686 0.00331749 0 245.289 245.289 1000.58 
230 1 1 0.23 0.0398369 0 0 0 0 7.33784e-05 0.00328051 0 0.00517512 0.414339 0 7.33784e-05 0.00328051 0 244.463 244.463 1000.58 
231 1 1 0.24 0.0398369 0 0 0 0 4.11698e-05 0.00326004 0 0.00320501 0.412671 0 4.11698e-05 0.00326004 0 243.947 243.947 1000.58 
232 1 1 0.25 0.0398369 0 0 0 0 2.28161e-05 0.00324895 0 0.00195539 0.41169 0 2.28161e-05 0.00324895 0 243.631 243.631 1000.58 