ITEM: TIMESTEP
132000
ITEM: NUMBER OF ATOMS
754
ITEM: BOX BOUNDS ff ff pp
-0.021 0.521
-0.021 0.5
-0.001 0.001
ITEM: ATOMS id type type x y z ix iy iz vx vy vz fx fy fz vx vy vz p p rho 
1 1 1 0.00765661 0.00530789 0 0 0 0 0.00569386 -0.00692742 0 0.011982 -0.000667124 0 0.00569386 -0.00692742 0 648.204 648.204 1001.54 
2 1 1 0.0213141 0.0064607 0 0 0 0 0.0121746 -0.01342 0 -0.0132726 0.00804299 0 0.0121746 -0.01342 0 658.509 658.509 1001.56 
3 1 1 0.0447018 0.0100123 0 0 0 0 0.0345853 0.00987897 0 0.038252 -0.0722792 0 0.0345853 0.00987897 0 643.164 643.164 1001.52 
4 1 1 0.0552291 0.00581476 0 0 0 0 0.0796283 -0.0264777 0 0.0764006 0.0372886 0 0.0796283 -0.0264777 0 665.206 665.206 1001.58 
5 1 1 0.070032 0.00634918 0 0 0 0 0.0945212 0.00956145 0 0.109355 0.00876728 0 0.0945212 0.00956145 0 660.911 660.911 1001.57 
6 1 1 0.0844076 0.00672537 0 0 0 0 0.126076 -0.0146987 0 0.0354203 0.0166976 0 0.126076 -0.0146987 0 665.508 665.508 1001.58 
7 1 1 0.115815 0.00591911 0 0 0 0 0.138353 -0.00612033 0 0.0462881 0.0214623 0 0.138353 -0.00612033 0 632.361 632.361 1001.5 
8 1 1 0.106011 0.0182939 0 0 0 0 0.0638196 0.00242347 0 0.134432 0.0683078 0 0.0638196 0.00242347 0 560.946 560.946 1001.33 
9 1 1 0.143103 0.00795428 0 0 0 0 0.0700675 0.0119266 0 0.0994795 0.00969655 0 0.0700675 0.0119266 0 580.336 580.336 1001.38 
10 1 1 0.154708 0.00695967 0 0 0 0 0.0703232 -0.0163091 0 0.10471 -0.0243352 0 0.0703232 -0.0163091 0 578.909 578.909 1001.37 
11 1 1 0.0188243 0.0226701 0 0 0 0 0.0605552 -0.0392707 0 -0.00613097 -0.0284425 0 0.0605552 -0.0392707 0 581.75 581.75 1001.38 
12 1 1 0.0352547 0.00597536 0 0 0 0 0.0511502 -5.73854e-05 0 0.0126467 0.00476345 0 0.0511502 -5.73854e-05 0 669.071 669.071 1001.59 
13 1 1 0.0453523 0.0188741 0 0 0 0 0.0641228 -0.0365386 0 0.0480147 0.0546616 0 0.0641228 -0.0365386 0 599.267 599.267 1001.42 
14 1 1 0.0655026 0.0133985 0 0 0 0 0.0774959 -0.00968249 0 -0.000260748 -0.0235288 0 0.0774959 -0.00968249 0 632.659 632.659 1001.5 
15 1 1 0.077128 0.0144619 0 0 0 0 0.119268 -0.0411453 0 0.076977 -0.0444168 0 0.119268 -0.0411453 0 626.119 626.119 1001.48 
16 1 1 0.104797 0.00965872 0 0 0 0 0.118652 -0.00751961 0 0.114171 0.0315604 0 0.118652 -0.00751961 0 604.358 604.358 1001.43 
17 1 1 0.105156 0.0282123 0 0 0 0 0.135747 0.0135255 0 0.0697367 -0.0801296 0 0.135747 0.0135255 0 479.39 479.39 1001.14 
18 1 1 0.131584 0.0065666 0 0 0 0 0.0717596 -0.00649147 0 0.00175371 -0.0168817 0 0.0717596 -0.00649147 0 592.239 592.239 1001.4 
19 1 1 0.146035 0.0166362 0 0 0 0 0.0833439 -0.00991216 0 0.0890205 0.0134201 0 0.0833439 -0.00991216 0 539.45 539.45 1001.28 
20 1 1 0.138544 0.0248536 0 0 0 0 0.0810459 0.0209011 0 0.102228 -0.051722 0 0.0810459 0.0209011 0 480.409 480.409 1001.14 
21 1 1 0.0206306 0.0331518 0 0 0 0 -0.00925242 -0.0016662 0 -0.0269411 -0.131043 0 -0.00925242 -0.0016662 0 506.105 506.105 1001.2 
22 1 1 0.0281507 0.0141786 0 0 0 0 0.0275729 -0.0461224 0 0.00463429 -0.0233065 0 0.0275729 -0.0461224 0 623.779 623.779 1001.48 
23 1 1 0.0357575 0.0175807 0 0 0 0 0.00808012 -0.00474393 0 0.0184688 -0.0609777 0 0.00808012 -0.00474393 0 602.144 602.144 1001.43 
24 1 1 0.0543537 0.0463297 0 0 0 0 0.0507002 -0.0707392 0 0.0483668 -0.0462148 0 0.0507002 -0.0707392 0 395.499 395.499 1000.94 
25 1 1 0.0555463 0.0285414 0 0 0 0 0.0463842 -0.0646922 0 0.0818226 -0.0215097 0 0.0463842 -0.0646922 0 539.374 539.374 1001.28 
26 1 1 0.0965086 0.00780204 0 0 0 0 0.127252 0.0188565 0 0.0104723 -0.0526646 0 0.127252 0.0188565 0 610.223 610.223 1001.45 
27 1 1 0.0959519 0.0197105 0 0 0 0 0.0893403 0.0176561 0 0.12531 -0.0951508 0 0.0893403 0.0176561 0 549.514 549.514 1001.3 
28 1 1 0.124633 0.0128467 0 0 0 0 0.128889 0.0563521 0 -0.0139775 -0.0146972 0 0.128889 0.0563521 0 568.41 568.41 1001.35 
29 1 1 0.135449 0.0164026 0 0 0 0 0.103315 0.0214155 0 0.15067 -0.0612043 0 0.103315 0.0214155 0 539.687 539.687 1001.28 
30 1 1 0.147463 0.0287984 0 0 0 0 0.0514721 0.0200281 0 0.0960015 -0.0612601 0 0.0514721 0.0200281 0 442.552 442.552 1001.05 
31 1 1 0.0170137 0.0144158 0 0 0 0 -0.00306937 0.0133946 0 -0.045156 -0.0746792 0 -0.00306937 0.0133946 0 625.751 625.751 1001.48 
32 1 1 0.0279647 0.0253384 0 0 0 0 0.0160744 0.00683057 0 0.00314258 0.0277111 0 0.0160744 0.00683057 0 556.926 556.926 1001.32 
33 1 1 0.0486672 0.038083 0 0 0 0 0.0466401 -0.0451911 0 0.058161 -0.0527295 0 0.0466401 -0.0451911 0 465.003 465.003 1001.1 
34 1 1 0.0619864 0.0209694 0 0 0 0 0.0745453 -0.0371352 0 0.0691571 0.000988907 0 0.0745453 -0.0371352 0 595.425 595.425 1001.41 
35 1 1 0.0885552 0.0275024 0 0 0 0 0.0907519 -0.00238224 0 0.0216883 -0.0979191 0 0.0907519 -0.00238224 0 509.687 509.687 1001.21 
36 1 1 0.0971558 0.0314826 0 0 0 0 0.121735 -0.00781255 0 0.145709 -0.0254284 0 0.121735 -0.00781255 0 457.499 457.499 1001.09 
37 1 1 0.11515 0.0162796 0 0 0 0 0.0845569 -0.0384077 0 0.0615632 -0.0104073 0 0.0845569 -0.0384077 0 566.897 566.897 1001.34 
38 1 1 0.126171 0.0212942 0 0 0 0 0.0950049 0.0436295 0 0.120659 0.0250932 0 0.0950049 0.0436295 0 514.117 514.117 1001.22 
39 1 1 0.141553 0.0388442 0 0 0 0 0.109266 0.047721 0 0.0899643 -0.0602847 0 0.109266 0.047721 0 369.373 369.373 1000.88 
40 1 1 0.112624 0.0460992 0 0 0 0 0.0926646 -0.00939401 0 0.0757047 0.0054883 0 0.0926646 -0.00939401 0 364.079 364.079 1000.86 
41 1 1 0.00832939 0.0164716 0 0 0 0 0.0086752 -0.01256 0 -0.0141677 0.0757118 0 0.0086752 -0.01256 0 611.45 611.45 1001.45 
42 1 1 0.021305 0.0542936 0 0 0 0 0.0112227 -0.0602708 0 0.0712465 -0.0406082 0 0.0112227 -0.0602708 0 364.94 364.94 1000.87 
43 1 1 0.0355937 0.0288878 0 0 0 0 0.0551641 -0.0699065 0 0.114398 -0.0203515 0 0.0551641 -0.0699065 0 539.548 539.548 1001.28 
44 1 1 0.0469192 0.0550558 0 0 0 0 0.0711648 -0.0894368 0 0.0741727 -0.0127469 0 0.0711648 -0.0894368 0 333.19 333.19 1000.79 
45 1 1 0.0690121 0.0265355 0 0 0 0 0.0962675 -0.0559162 0 0.122345 -0.00560537 0 0.0962675 -0.0559162 0 556.287 556.287 1001.32 
46 1 1 0.0814708 0.0313502 0 0 0 0 0.0778034 -0.0130923 0 0.0150601 0.0431787 0 0.0778034 -0.0130923 0 505.904 505.904 1001.2 
47 1 1 0.116145 0.0260275 0 0 0 0 0.114604 -0.0497654 0 0.0963914 -0.0408031 0 0.114604 -0.0497654 0 492.164 492.164 1001.17 
48 1 1 0.134109 0.0316457 0 0 0 0 0.101773 0.0519607 0 0.0294343 -0.00506271 0 0.101773 0.0519607 0 430.068 430.068 1001.02 
49 1 1 0.129572 0.0418007 0 0 0 0 0.0809758 0.023562 0 0.178835 0.0112471 0 0.0809758 0.023562 0 364.489 364.489 1000.87 
50 1 1 0.103285 0.0619934 0 0 0 0 0.0922643 0.0412219 0 0.11183 0.192865 0 0.0922643 0.0412219 0 234.817 234.817 1000.56 
51 1 1 0.0092386 0.0273234 0 0 0 0 0.0142644 -0.0395599 0 0.0914262 -0.0333365 0 0.0142644 -0.0395599 0 560.8 560.8 1001.33 
52 1 1 0.0289971 0.0387954 0 0 0 0 0.0445924 -0.0537354 0 0.0796763 -0.094092 0 0.0445924 -0.0537354 0 464.962 464.962 1001.1 
53 1 1 0.0461878 0.0275404 0 0 0 0 0.0563891 -0.00388474 0 -0.00108065 -0.0454546 0 0.0563891 -0.00388474 0 547.727 547.727 1001.3 
54 1 1 0.0596693 0.0367521 0 0 0 0 0.0647896 -0.0450396 0 0.13181 -0.0803355 0 0.0647896 -0.0450396 0 473.668 473.668 1001.12 
55 1 1 0.0681095 0.0441037 0 0 0 0 0.0627328 -0.0591893 0 0.0631707 0.00344601 0 0.0627328 -0.0591893 0 409.175 409.175 1000.97 
56 1 1 0.0796319 0.0412633 0 0 0 0 0.0743664 -0.0344966 0 0.132643 0.0514002 0 0.0743664 -0.0344966 0 426.059 426.059 1001.01 
57 1 1 0.103701 0.0397314 0 0 0 0 0.0901381 0.00841583 0 0.0429542 0.00358018 0 0.0901381 0.00841583 0 402.158 402.158 1000.95 
58 1 1 0.0948103 0.0470855 0 0 0 0 0.122396 -0.0273478 0 0.0661579 -0.0186123 0 0.122396 -0.0273478 0 361.055 361.055 1000.86 
59 1 1 0.12188 0.0440236 0 0 0 0 0.067712 0.0430381 0 0.0172332 -0.108648 0 0.067712 0.0430381 0 362.629 362.629 1000.86 
60 1 1 0.121874 0.0560951 0 0 0 0 0.103486 0.0344095 0 0.157092 0.00157144 0 0.103486 0.0344095 0 259.863 259.863 1000.62 
61 1 1 0.039109 0.0379412 0 0 0 0 0.00651338 -0.0299868 0 0.0121413 -0.0576389 0 0.00651338 -0.0299868 0 472.802 472.802 1001.12 
62 1 1 0.0108826 0.0360797 0 0 0 0 -0.0248322 -0.052484 0 -0.0110483 0.0675606 0 -0.0248322 -0.052484 0 504.416 504.416 1001.2 
63 1 1 0.0543488 0.0156725 0 0 0 0 0.0460628 -0.0269042 0 0.0803915 -0.0128735 0 0.0460628 -0.0269042 0 623.265 623.265 1001.48 
64 1 1 0.0324381 0.0584123 0 0 0 0 0.0371128 -0.0741227 0 0.148371 -0.039477 0 0.0371128 -0.0741227 0 350.126 350.126 1000.83 
65 1 1 0.0609296 0.0518541 0 0 0 0 0.0881021 -0.0500715 0 0.0642955 -0.0790537 0 0.0881021 -0.0500715 0 358.589 358.589 1000.85 
66 1 1 0.0889198 0.0158244 0 0 0 0 0.0890822 -0.00297959 0 0.0147779 0.017616 0 0.0890822 -0.00297959 0 592.682 592.682 1001.41 
67 1 1 0.0906791 0.0399237 0 0 0 0 0.0575733 -0.0462896 0 0.0209983 -0.0236169 0 0.0575733 -0.0462896 0 412.149 412.149 1000.98 
68 1 1 0.113663 0.0348434 0 0 0 0 0.103671 -0.016757 0 0.0922545 0.100064 0 0.103671 -0.016757 0 431.197 431.197 1001.02 
69 1 1 0.124483 0.0316395 0 0 0 0 0.0891093 0.0498708 0 0.0378771 0.0160929 0 0.0891093 0.0498708 0 436.605 436.605 1001.04 
70 1 1 0.115772 0.0707459 0 0 0 0 0.253345 -0.0233657 0 0.106563 0.0247418 0 0.253345 -0.0233657 0 219.607 219.607 1000.52 
71 1 1 0.0113286 0.056268 0 0 0 0 0.0105714 -0.0518345 0 -0.03416 0.0282615 0 0.0105714 -0.0518345 0 383.715 383.715 1000.91 
72 1 1 0.0291005 0.0782677 0 0 0 0 0.061177 -0.124338 0 -0.0322656 -0.11073 0 0.061177 -0.124338 0 179.483 179.483 1000.43 
73 1 1 0.0208802 0.0437322 0 0 0 0 0.00266541 -0.0687022 0 0.013729 0.0664513 0 0.00266541 -0.0687022 0 434.431 434.431 1001.03 
74 1 1 0.0418181 0.0481763 0 0 0 0 0.0359051 -0.0680707 0 0.0569869 -0.0567089 0 0.0359051 -0.0680707 0 384.651 384.651 1000.91 
75 1 1 0.0567645 0.0627917 0 0 0 0 0.133696 -0.0661727 0 0.0772772 -0.0335531 0 0.133696 -0.0661727 0 294.064 294.064 1000.7 
76 1 1 0.078144 0.0209065 0 0 0 0 0.084716 -0.000525528 0 0.113668 0.072414 0 0.084716 -0.000525528 0 582.582 582.582 1001.38 
77 1 1 0.0705576 0.0346424 0 0 0 0 0.029347 -0.0394712 0 0.0558767 -0.0354676 0 0.029347 -0.0394712 0 491.804 491.804 1001.17 
78 1 1 0.0947739 0.0587765 0 0 0 0 0.166036 -0.0523571 0 0.0700183 -0.0419895 0 0.166036 -0.0523571 0 282.942 282.942 1000.67 
79 1 1 0.105215 0.0514499 0 0 0 0 0.102653 0.0175018 0 0.099203 -0.0286064 0 0.102653 0.0175018 0 323.019 323.019 1000.77 
80 1 1 0.0934654 0.0761651 0 0 0 0 0.285245 -0.0571579 0 -0.160506 0.0577171 0 0.285245 -0.0571579 0 240.964 240.964 1000.57 
81 1 1 0.0106048 0.0462649 0 0 0 0 -0.00018144 -0.0217417 0 -0.00385198 -0.115957 0 -0.00018144 -0.0217417 0 439.081 439.081 1001.04 
82 1 1 0.0139397 0.0664366 0 0 0 0 -0.0136511 -0.0447123 0 -0.124765 -0.19121 0 -0.0136511 -0.0447123 0 293.368 293.368 1000.7 
83 1 1 0.0321362 0.0492779 0 0 0 0 -0.000104454 -0.0330008 0 -0.0534896 -0.0939417 0 -0.000104454 -0.0330008 0 393.896 393.896 1000.94 
84 1 1 0.0242008 0.0661582 0 0 0 0 -0.0267816 -0.0600293 0 0.0499178 -0.0399163 0 -0.0267816 -0.0600293 0 259.328 259.328 1000.62 
85 1 1 0.0456846 0.0640137 0 0 0 0 0.0463546 -0.119459 0 -0.0420621 0.0365859 0 0.0463546 -0.119459 0 311.238 311.238 1000.74 
86 1 1 0.0672335 0.0595231 0 0 0 0 0.0904945 -0.116925 0 0.180917 0.0510317 0 0.0904945 -0.116925 0 312.199 312.199 1000.74 
87 1 1 0.0751976 0.0520698 0 0 0 0 0.141563 -0.0570522 0 0.102766 0.000337146 0 0.141563 -0.0570522 0 340.593 340.593 1000.81 
88 1 1 0.0779044 0.0646564 0 0 0 0 0.162682 -0.0354912 0 0.00567515 0.0493397 0 0.162682 -0.0354912 0 302.264 302.264 1000.72 
89 1 1 0.0843342 0.0511564 0 0 0 0 0.117725 -0.0311434 0 0.183213 0.0253655 0 0.117725 -0.0311434 0 344.345 344.345 1000.82 
90 1 1 0.0870064 0.0643572 0 0 0 0 0.0789843 -0.0280173 0 0.177357 0.141811 0 0.0789843 -0.0280173 0 279.667 279.667 1000.66 
91 1 1 0.026051 0.090013 0 0 0 0 0.0926386 -0.162928 0 0.119096 -0.12821 0 0.0926386 -0.162928 0 123.832 123.832 1000.29 
92 1 1 0.016001 0.0844945 0 0 0 0 0.0274983 -0.0737369 0 -0.0746061 -0.0386177 0 0.0274983 -0.0737369 0 133.37 133.37 1000.32 
93 1 1 0.0138821 0.0752783 0 0 0 0 -0.0174 -0.0406001 0 0.0249157 -0.0843505 0 -0.0174 -0.0406001 0 221.856 221.856 1000.53 
94 1 1 0.0440376 0.0777926 0 0 0 0 0.107733 -0.187797 0 0.133813 -0.0866884 0 0.107733 -0.187797 0 254.4 254.4 1000.6 
95 1 1 0.0420798 0.0887461 0 0 0 0 0.151633 -0.189977 0 0.112758 -0.0167768 0 0.151633 -0.189977 0 132.647 132.647 1000.32 
96 1 1 0.0621175 0.0850364 0 0 0 0 0.221172 -0.136827 0 0.0049761 0.0999013 0 0.221172 -0.136827 0 167.143 167.143 1000.4 
97 1 1 0.0352621 0.0692408 0 0 0 0 0.0312468 -0.132565 0 0.090692 -0.0769254 0 0.0312468 -0.132565 0 293.648 293.648 1000.7 
98 1 1 0.0555493 0.074149 0 0 0 0 0.115989 -0.14986 0 0.0365365 0.0181086 0 0.115989 -0.14986 0 250.855 250.855 1000.6 
99 1 1 0.0676356 0.0718855 0 0 0 0 0.15728 -0.0792149 0 0.13156 -0.0826313 0 0.15728 -0.0792149 0 253.677 253.677 1000.6 
100 1 1 0.0780661 0.0801085 0 0 0 0 0.199272 -0.0872966 0 0.300619 0.180813 0 0.199272 -0.0872966 0 289.321 289.321 1000.69 
101 1 1 0.155162 0.0164267 0 0 0 0 0.0907615 0.0147914 0 0.118058 -0.0802282 0 0.0907615 0.0147914 0 531.646 531.646 1001.26 
102 1 1 0.16456 0.0158405 0 0 0 0 0.0762531 0.0115514 0 0.0922071 -0.0534471 0 0.0762531 0.0115514 0 524.794 524.794 1001.24 
103 1 1 0.167757 0.0241328 0 0 0 0 0.078589 0.0284116 0 0.0625341 0.0708126 0 0.078589 0.0284116 0 457.622 457.622 1001.09 
104 1 1 0.167357 0.00641226 0 0 0 0 0.0624099 0.0152627 0 0.0978774 0.0365548 0 0.0624099 0.0152627 0 576.788 576.788 1001.37 
105 1 1 0.176415 0.0103899 0 0 0 0 0.0410478 -0.0132775 0 0.107221 0.0114967 0 0.0410478 -0.0132775 0 545.207 545.207 1001.29 
106 1 1 0.187104 0.00576641 0 0 0 0 0.0710154 0.0032361 0 0.0480595 0.0303814 0 0.0710154 0.0032361 0 561.08 561.08 1001.33 
107 1 1 0.19506 0.0142779 0 0 0 0 0.0687758 0.00272489 0 0.000568566 -0.0274532 0 0.0687758 0.00272489 0 506.054 506.054 1001.2 
108 1 1 0.20124 0.00676176 0 0 0 0 0.0577315 0.00353623 0 0.0438116 -0.0359692 0 0.0577315 0.00353623 0 536.264 536.264 1001.27 
109 1 1 0.201575 0.0203744 0 0 0 0 0.0509591 0.0192197 0 0.114992 -0.0492731 0 0.0509591 0.0192197 0 448.925 448.925 1001.07 
110 1 1 0.208691 0.0129496 0 0 0 0 0.0682225 0.00651873 0 0.0816959 -0.0105297 0 0.0682225 0.00651873 0 493.795 493.795 1001.17 
111 1 1 0.216555 0.00590347 0 0 0 0 0.0382435 -0.000315473 0 0.0622302 -0.00662432 0 0.0382435 -0.000315473 0 523.523 523.523 1001.24 
112 1 1 0.230028 0.00747598 0 0 0 0 0.0212244 0.00561578 0 0.00540674 0.0030401 0 0.0212244 0.00561578 0 504.369 504.369 1001.2 
113 1 1 0.241043 0.00728803 0 0 0 0 0.0239594 -0.0082918 0 -0.00268208 -0.00737316 0 0.0239594 -0.0082918 0 493.461 493.461 1001.17 
114 1 1 0.251144 0.00941745 0 0 0 0 0.0232721 0.00934694 0 -0.0148826 -0.00507101 0 0.0232721 0.00934694 0 471.18 471.18 1001.12 
115 1 1 0.251264 0.0182351 0 0 0 0 0.015595 0.0029011 0 0.0631744 0.00620956 0 0.015595 0.0029011 0 423.829 423.829 1001.01 
116 1 1 0.260109 0.00754007 0 0 0 0 0.0240726 -0.00541671 0 0.0811356 -0.0335765 0 0.0240726 -0.00541671 0 478.077 478.077 1001.13 
117 1 1 0.270915 0.00776927 0 0 0 0 0.0332226 -0.00734024 0 -0.0043125 0.0268216 0 0.0332226 -0.00734024 0 483.611 483.611 1001.15 
118 1 1 0.281357 0.00797516 0 0 0 0 0.0151391 0.0163471 0 -0.0219025 0.0024818 0 0.0151391 0.0163471 0 466.757 466.757 1001.11 
119 1 1 0.292541 0.00691163 0 0 0 0 0.00266011 -0.00389812 0 0.00431295 -0.0335966 0 0.00266011 -0.00389812 0 471.226 471.226 1001.12 
120 1 1 0.299009 0.0167043 0 0 0 0 0.0195841 -0.0100487 0 -0.0146753 -0.0280255 0 0.0195841 -0.0100487 0 412.431 412.431 1000.98 
121 1 1 0.303748 0.00824109 0 0 0 0 0.0134923 -0.0055519 0 0.0192289 -0.0196287 0 0.0134923 -0.0055519 0 469.994 469.994 1001.12 
122 1 1 0.315833 0.00602577 0 0 0 0 0.0182858 0.00548519 0 -0.0260407 -0.027114 0 0.0182858 0.00548519 0 483.053 483.053 1001.15 
123 1 1 0.328501 0.0149749 0 0 0 0 0.0673869 0.0170029 0 0.00253596 -0.0393177 0 0.0673869 0.0170029 0 419.821 419.821 1001 
124 1 1 0.329503 0.0067625 0 0 0 0 0.0016356 -0.00309649 0 0.0300399 -0.0257392 0 0.0016356 -0.00309649 0 463.488 463.488 1001.1 
125 1 1 0.342657 0.00710331 0 0 0 0 0.02158 -0.00962304 0 0.0457025 -0.00851234 0 0.02158 -0.00962304 0 475.243 475.243 1001.13 
126 1 1 0.352855 0.0150276 0 0 0 0 0.0454181 -0.00699737 0 0.00634179 -0.0448087 0 0.0454181 -0.00699737 0 421.543 421.543 1001 
127 1 1 0.356112 0.00592503 0 0 0 0 0.0344039 -0.00110133 0 0.0442983 -0.000435081 0 0.0344039 -0.00110133 0 480.289 480.289 1001.14 
128 1 1 0.370848 0.00662561 0 0 0 0 0.034578 -0.00575566 0 -0.0243755 -2.90813e-05 0 0.034578 -0.00575566 0 472.898 472.898 1001.12 
129 1 1 0.396862 0.00663354 0 0 0 0 0.053958 0.00778432 0 0.0312033 0.00159894 0 0.053958 0.00778432 0 447.955 447.955 1001.06 
130 1 1 0.409846 0.00751931 0 0 0 0 0.0226426 0.00111825 0 -0.0046625 0.0070592 0 0.0226426 0.00111825 0 439.516 439.516 1001.04 
131 1 1 0.420331 0.00757133 0 0 0 0 0.0206222 0.00299771 0 0.00414544 -0.0308695 0 0.0206222 0.00299771 0 428.466 428.466 1001.02 
132 1 1 0.413944 0.0188704 0 0 0 0 0.0194274 -0.00915015 0 0.0208665 -0.0657388 0 0.0194274 -0.00915015 0 368.35 368.35 1000.87 
133 1 1 0.430402 0.00822919 0 0 0 0 0.015336 -0.00273865 0 0.0463421 -0.0121223 0 0.015336 -0.00273865 0 423.627 423.627 1001.01 
134 1 1 0.440079 0.0171023 0 0 0 0 0.00603631 -0.0157577 0 0.0433339 0.0460223 0 0.00603631 -0.0157577 0 383.167 383.167 1000.91 
135 1 1 0.441247 0.0067697 0 0 0 0 0.0274418 -0.00644055 0 0.00975709 -0.00976932 0 0.0274418 -0.00644055 0 432.781 432.781 1001.03 
136 1 1 0.451269 0.009266 0 0 0 0 0.0224041 0.00841986 0 -0.0125114 0.0245261 0 0.0224041 0.00841986 0 416.614 416.614 1000.99 
137 1 1 0.461749 0.00579644 0 0 0 0 0.0181686 -0.00530172 0 0.0138527 -0.0340988 0 0.0181686 -0.00530172 0 425.423 425.423 1001.01 
138 1 1 0.479885 0.00674785 0 0 0 0 -0.00931618 -0.010279 0 -0.0229133 -0.0262465 0 -0.00931618 -0.010279 0 423.792 423.792 1001.01 
139 1 1 0.492237 0.0063487 0 0 0 0 0.00437733 -0.00123089 0 -0.004647 -0.00167461 0 0.00437733 -0.00123089 0 416.448 416.448 1000.99 
140 1 1 0.15282 0.0370284 0 0 0 0 0.0999169 0.0149193 0 0.0837043 -0.0303097 0 0.0999169 0.0149193 0 372.7 372.7 1000.89 
141 1 1 0.156317 0.0254301 0 0 0 0 0.0524158 -0.0225977 0 0.0800815 0.0238803 0 0.0524158 -0.0225977 0 463.588 463.588 1001.1 
142 1 1 0.175182 0.044595 0 0 0 0 0.0825586 0.0136534 0 0.115394 0.0724565 0 0.0825586 0.0136534 0 278.986 278.986 1000.66 
143 1 1 0.175714 0.0314213 0 0 0 0 0.0521832 0.0345202 0 0.0923317 -0.0451761 0 0.0521832 0.0345202 0 390.706 390.706 1000.93 
144 1 1 0.183607 0.0288204 0 0 0 0 0.0601584 -0.0113189 0 0.101857 0.0406129 0 0.0601584 -0.0113189 0 410.345 410.345 1000.97 
145 1 1 0.175866 0.0193181 0 0 0 0 0.0701714 0.0323971 0 0.124236 -0.00408655 0 0.0701714 0.0323971 0 485.172 485.172 1001.15 
146 1 1 0.193526 0.036233 0 0 0 0 0.0410797 0.00293333 0 -0.00207003 -0.0287289 0 0.0410797 0.00293333 0 328.044 328.044 1000.78 
147 1 1 0.185446 0.0160314 0 0 0 0 0.0455649 -0.0328559 0 0.125524 0.012136 0 0.0455649 -0.0328559 0 510.076 510.076 1001.21 
148 1 1 0.190625 0.0251757 0 0 0 0 0.0371913 -0.018145 0 0.200283 -0.00554516 0 0.0371913 -0.018145 0 430.697 430.697 1001.02 
149 1 1 0.21319 0.0212457 0 0 0 0 0.0357634 0.00272821 0 0.0492562 0.0031091 0 0.0357634 0.00272821 0 431.421 431.421 1001.02 
150 1 1 0.227208 0.0335935 0 0 0 0 0.0198943 -0.00728654 0 0.088448 -0.0315832 0 0.0198943 -0.00728654 0 304.18 304.18 1000.72 
151 1 1 0.220855 0.0145259 0 0 0 0 0.0627662 0.0169367 0 0.0788636 0.074268 0 0.0627662 0.0169367 0 473.653 473.653 1001.12 
152 1 1 0.220702 0.0266216 0 0 0 0 0.0258298 0.0169613 0 0.105276 -0.03407 0 0.0258298 0.0169613 0 375.852 375.852 1000.89 
153 1 1 0.229164 0.0173416 0 0 0 0 0.0512204 0.0110262 0 0.0929446 -0.0102264 0 0.0512204 0.0110262 0 450.123 450.123 1001.07 
154 1 1 0.262563 0.0175507 0 0 0 0 0.0141311 0.000968957 0 -0.0174667 0.0125879 0 0.0141311 0.000968957 0 429.523 429.523 1001.02 
155 1 1 0.278583 0.0170294 0 0 0 0 0.0221376 0.0204907 0 0.00558786 -0.0295011 0 0.0221376 0.0204907 0 416.021 416.021 1000.99 
156 1 1 0.269647 0.0195578 0 0 0 0 0.00564663 -0.0202007 0 0.0209345 0.00286658 0 0.00564663 -0.0202007 0 413.099 413.099 1000.98 
157 1 1 0.289443 0.0165217 0 0 0 0 0.020423 0.00433822 0 0.0461294 0.00208954 0 0.020423 0.00433822 0 414.495 414.495 1000.98 
158 1 1 0.285006 0.0252268 0 0 0 0 0.0603443 0.0116412 0 0.0366024 -0.00243793 0 0.0603443 0.0116412 0 352.956 352.956 1000.84 
159 1 1 0.30597 0.0249043 0 0 0 0 0.0469444 -0.00808767 0 0.0427635 -0.0283266 0 0.0469444 -0.00808767 0 352.686 352.686 1000.84 
160 1 1 0.310345 0.0166132 0 0 0 0 0.0209039 -0.0201124 0 -0.0107701 -0.0128427 0 0.0209039 -0.0201124 0 416.222 416.222 1000.99 
161 1 1 0.318724 0.015346 0 0 0 0 0.0487919 -0.0135185 0 0.0226752 0.00191077 0 0.0487919 -0.0135185 0 424.297 424.297 1001.01 
162 1 1 0.335427 0.0229166 0 0 0 0 0.0784324 -0.0101265 0 -0.0310616 0.0091696 0 0.0784324 -0.0101265 0 371.04 371.04 1000.88 
163 1 1 0.33992 0.0147831 0 0 0 0 0.0509223 -0.0145494 0 0.0265455 -0.0239434 0 0.0509223 -0.0145494 0 427.857 427.857 1001.02 
164 1 1 0.358305 0.0256061 0 0 0 0 0.0635996 0.00902552 0 0.0177336 -0.047575 0 0.0635996 0.00902552 0 332.695 332.695 1000.79 
165 1 1 0.384699 0.00706499 0 0 0 0 0.0510794 -0.0103254 0 -0.00964587 -0.0312611 0 0.0510794 -0.0103254 0 457.145 457.145 1001.08 
166 1 1 0.363463 0.0139477 0 0 0 0 0.04167 0.00364051 0 0.0358856 0.00921853 0 0.04167 0.00364051 0 433.702 433.702 1001.03 
167 1 1 0.378427 0.023673 0 0 0 0 0.0445282 -0.00140719 0 0.0232424 -0.0466696 0 0.0445282 -0.00140719 0 361.318 361.318 1000.86 
168 1 1 0.403734 0.0142327 0 0 0 0 0.0213452 0.0195737 0 0.0394006 -0.0172119 0 0.0213452 0.0195737 0 406.974 406.974 1000.97 
169 1 1 0.386125 0.0289471 0 0 0 0 0.0419723 0.0446033 0 0.0584441 0.0040266 0 0.0419723 0.0446033 0 323.667 323.667 1000.77 
170 1 1 0.388283 0.0160517 0 0 0 0 0.0288863 -0.00201011 0 0.0337449 -0.0154748 0 0.0288863 -0.00201011 0 409.906 409.906 1000.97 
171 1 1 0.394658 0.0195682 0 0 0 0 0.00922927 0.013496 0 -0.00228876 -0.0013263 0 0.00922927 0.013496 0 383.682 383.682 1000.91 
172 1 1 0.421639 0.0175143 0 0 0 0 0.0208278 0.0108116 0 0.0303951 -0.0085185 0 0.0208278 0.0108116 0 369.413 369.413 1000.88 
173 1 1 0.431606 0.0180091 0 0 0 0 0.00473298 0.00176561 0 0.0654 0.00105063 0 0.00473298 0.00176561 0 368.112 368.112 1000.87 
174 1 1 0.46075 0.0164606 0 0 0 0 -0.00379114 0.00597947 0 -0.0174925 -0.0402396 0 -0.00379114 0.00597947 0 364.826 364.826 1000.87 
175 1 1 0.461276 0.0251724 0 0 0 0 -0.0198429 0.034895 0 0.00765941 0.00566175 0 -0.0198429 0.034895 0 297.079 297.079 1000.71 
176 1 1 0.471191 0.0107093 0 0 0 0 -0.00370786 0.0279949 0 0.0105741 0.0563349 0 -0.00370786 0.0279949 0 403.26 403.26 1000.96 
177 1 1 0.482687 0.0158982 0 0 0 0 -0.000827998 -0.0225536 0 -0.0171208 -0.0128854 0 -0.000827998 -0.0225536 0 375.706 375.706 1000.89 
178 1 1 0.490617 0.0177057 0 0 0 0 0.00856295 0.00483904 0 0.0107299 -0.0309564 0 0.00856295 0.00483904 0 353.162 353.162 1000.84 
179 1 1 0.138979 0.0479065 0 0 0 0 0.0814348 0.0178135 0 0.107604 -0.0529533 0 0.0814348 0.0178135 0 293.417 293.417 1000.7 
180 1 1 0.162307 0.0344931 0 0 0 0 0.0498651 0.0106988 0 0.065225 -0.109702 0 0.0498651 0.0106988 0 388.571 388.571 1000.92 
181 1 1 0.160151 0.047915 0 0 0 0 0.087799 0.0284664 0 0.167275 -0.125804 0 0.087799 0.0284664 0 270.298 270.298 1000.64 
182 1 1 0.168384 0.0386524 0 0 0 0 0.0417942 0.0291293 0 0.0873508 0.0785332 0 0.0417942 0.0291293 0 339.453 339.453 1000.81 
183 1 1 0.175193 0.0561599 0 0 0 0 0.0582827 0.0815339 0 0.188503 0.00335772 0 0.0582827 0.0815339 0 213.59 213.59 1000.51 
184 1 1 0.165253 0.0542283 0 0 0 0 0.12832 0.0671201 0 0.0604839 -0.0179509 0 0.12832 0.0671201 0 245.972 245.972 1000.58 
185 1 1 0.183736 0.0409519 0 0 0 0 0.0422328 0.0208409 0 0.118317 -0.0850978 0 0.0422328 0.0208409 0 307.007 307.007 1000.73 
186 1 1 0.202061 0.0285849 0 0 0 0 0.0327344 0.0139226 0 0.153237 0.0212952 0 0.0327344 0.0139226 0 376.869 376.869 1000.89 
187 1 1 0.211752 0.0322475 0 0 0 0 0.0255391 0.0145717 0 0.0761912 -0.00851583 0 0.0255391 0.0145717 0 326.79 326.79 1000.78 
188 1 1 0.21903 0.0392454 0 0 0 0 -0.0130147 0.0160356 0 0.094481 0.0662194 0 -0.0130147 0.0160356 0 257.576 257.576 1000.61 
189 1 1 0.237898 0.0352499 0 0 0 0 0.00687226 0.0389311 0 0.11335 -0.0156131 0 0.00687226 0.0389311 0 286.689 286.689 1000.68 
190 1 1 0.240107 0.0163576 0 0 0 0 0.0510307 -0.00109143 0 0.0278089 -0.00342517 0 0.0510307 -0.00109143 0 444.11 444.11 1001.05 
191 1 1 0.248503 0.0339657 0 0 0 0 0.0249555 0.00649025 0 0.0893485 0.0142799 0 0.0249555 0.00649025 0 296.732 296.732 1000.71 
192 1 1 0.244348 0.0253213 0 0 0 0 0.0121442 0.0404458 0 0.0368129 0.0294246 0 0.0121442 0.0404458 0 374.352 374.352 1000.89 
193 1 1 0.274241 0.0285452 0 0 0 0 0.03491 -0.0261076 0 -0.022045 0.00994686 0 0.03491 -0.0261076 0 337.981 337.981 1000.8 
194 1 1 0.256715 0.0413186 0 0 0 0 0.0253376 -0.007826 0 0.105533 0.0304624 0 0.0253376 -0.007826 0 230.263 230.263 1000.55 
195 1 1 0.283362 0.0343954 0 0 0 0 0.0289245 -0.00202934 0 0.0226702 0.0663585 0 0.0289245 -0.00202934 0 285.731 285.731 1000.68 
196 1 1 0.295301 0.0268137 0 0 0 0 0.05379 0.000842539 0 -0.0356601 0.00339534 0 0.05379 0.000842539 0 336.98 336.98 1000.8 
197 1 1 0.303603 0.034728 0 0 0 0 0.0589214 0.00423659 0 0.0103694 -0.0395218 0 0.0589214 0.00423659 0 270.734 270.734 1000.64 
198 1 1 0.315067 0.0287416 0 0 0 0 0.0249965 -0.0237585 0 -0.0130653 0.00383308 0 0.0249965 -0.0237585 0 329.251 329.251 1000.78 
199 1 1 0.326702 0.0327136 0 0 0 0 0.0427521 -0.0441575 0 0.00989797 -0.0762664 0 0.0427521 -0.0441575 0 294.204 294.204 1000.7 
200 1 1 0.323531 0.0244597 0 0 0 0 0.0331243 -0.020388 0 -0.00163393 -0.00926637 0 0.0331243 -0.020388 0 363.396 363.396 1000.86 
201 1 1 0.348736 0.0209004 0 0 0 0 0.0650887 -0.00106314 0 -0.0520088 0.0185244 0 0.0650887 -0.00106314 0 378.808 378.808 1000.9 
202 1 1 0.333492 0.0389255 0 0 0 0 0.0309232 -0.0175138 0 -0.0149779 -0.0272298 0 0.0309232 -0.0175138 0 233.273 233.273 1000.55 
203 1 1 0.348294 0.032716 0 0 0 0 0.0491735 -0.0270811 0 0.03394 -0.0602628 0 0.0491735 -0.0270811 0 288.239 288.239 1000.68 
204 1 1 0.356423 0.0365804 0 0 0 0 0.0560926 0.00334382 0 0.0331722 -0.0281178 0 0.0560926 0.00334382 0 252.253 252.253 1000.6 
205 1 1 0.377198 0.0141715 0 0 0 0 0.0425632 -0.00276866 0 0.0290772 -0.0122103 0 0.0425632 -0.00276866 0 428.646 428.646 1001.02 
206 1 1 0.368368 0.0204434 0 0 0 0 0.0531803 -0.0121169 0 0.0181954 -0.0209568 0 0.0531803 -0.0121169 0 385.813 385.813 1000.92 
207 1 1 0.400352 0.0360659 0 0 0 0 0.023725 0.058777 0 0.0984556 -0.0262466 0 0.023725 0.058777 0 252.634 252.634 1000.6 
208 1 1 0.422903 0.0278727 0 0 0 0 0.00900094 0.0217359 0 -0.00775145 -0.0303592 0 0.00900094 0.0217359 0 292.735 292.735 1000.7 
209 1 1 0.403692 0.0237889 0 0 0 0 0.00925417 0.0187088 0 -0.0126779 0.0603941 0 0.00925417 0.0187088 0 345.816 345.816 1000.82 
210 1 1 0.431141 0.029568 0 0 0 0 -0.00194257 0.0240028 0 0.0177238 -0.0298259 0 -0.00194257 0.0240028 0 276.369 276.369 1000.66 
211 1 1 0.410225 0.0300996 0 0 0 0 -0.00379749 -0.00756862 0 0.0446237 -0.0690307 0 -0.00379749 -0.00756862 0 288.851 288.851 1000.69 
212 1 1 0.441103 0.0274382 0 0 0 0 -0.0277485 -0.00851886 0 0.0812576 -0.058956 0 -0.0277485 -0.00851886 0 306.425 306.425 1000.73 
213 1 1 0.450307 0.0179591 0 0 0 0 0.0059992 0.0132671 0 0.00114318 0.00205237 0 0.0059992 0.0132671 0 371.944 371.944 1000.88 
214 1 1 0.465298 0.0332639 0 0 0 0 0.000182182 0.0262593 0 0.0220513 -0.0140506 0 0.000182182 0.0262593 0 236.55 236.55 1000.56 
215 1 1 0.479401 0.0248663 0 0 0 0 0.0212291 -0.0290039 0 0.0333751 -0.00586518 0 0.0212291 -0.0290039 0 316.887 316.887 1000.75 
216 1 1 0.470522 0.0196213 0 0 0 0 -0.0245992 0.00870514 0 0.0589567 -0.00222215 0 -0.0245992 0.00870514 0 348.494 348.494 1000.83 
217 1 1 0.490657 0.0283555 0 0 0 0 -0.00223608 0.0114383 0 -0.0473351 -0.00165839 0 -0.00223608 0.0114383 0 271.544 271.544 1000.65 
218 1 1 0.141978 0.0594532 0 0 0 0 0.191859 -0.00142439 0 0.212226 0.0410662 0 0.191859 -0.00142439 0 240.214 240.214 1000.57 
219 1 1 0.114982 0.0604197 0 0 0 0 0.122568 0.0144871 0 0.0195738 -0.105838 0 0.122568 0.0144871 0 250.541 250.541 1000.6 
220 1 1 0.130999 0.0543703 0 0 0 0 0.110763 0.0190107 0 0.0890193 -0.0448972 0 0.110763 0.0190107 0 245.579 245.579 1000.58 
221 1 1 0.151184 0.0560082 0 0 0 0 0.16432 0.0648986 0 0.173989 0.211392 0 0.16432 0.0648986 0 231.589 231.589 1000.55 
222 1 1 0.150357 0.0463987 0 0 0 0 0.102889 0.028641 0 0.020322 -0.0732926 0 0.102889 0.028641 0 280.414 280.414 1000.67 
223 1 1 0.192429 0.0475239 0 0 0 0 -0.0133396 0.030843 0 0.217973 -0.0373821 0 -0.0133396 0.030843 0 236.762 236.762 1000.56 
224 1 1 0.202227 0.0390661 0 0 0 0 0.00636988 0.0337382 0 0.0834081 0.0629726 0 0.00636988 0.0337382 0 286.008 286.008 1000.68 
225 1 1 0.209448 0.0448294 0 0 0 0 -0.0219257 0.0348525 0 0.115666 0.0463536 0 -0.0219257 0.0348525 0 234.094 234.094 1000.56 
226 1 1 0.216364 0.0504467 0 0 0 0 -0.00848293 0.0109664 0 0.167925 0.104047 0 -0.00848293 0.0109664 0 197.625 197.625 1000.47 
227 1 1 0.233214 0.0250651 0 0 0 0 0.0381394 0.00711814 0 0.073264 0.0607848 0 0.0381394 0.00711814 0 386.363 386.363 1000.92 
228 1 1 0.230115 0.043568 0 0 0 0 -0.0256092 0.00754139 0 0.0251862 0.0289143 0 -0.0256092 0.00754139 0 220.328 220.328 1000.52 
229 1 1 0.243979 0.0437689 0 0 0 0 -0.0176278 0.0159875 0 -0.0300082 0.0814142 0 -0.0176278 0.0159875 0 213.115 213.115 1000.51 
230 1 1 0.257036 0.0267788 0 0 0 0 0.00999667 0.00774058 0 0.0282104 0.0054886 0 0.00999667 0.00774058 0 363.976 363.976 1000.86 
231 1 1 0.262808 0.0324679 0 0 0 0 0.0327723 -0.00804224 0 0.0623537 -0.0428254 0 0.0327723 -0.00804224 0 314.692 314.692 1000.75 
232 1 1 0.271132 0.0377389 0 0 0 0 0.0297477 -0.0247668 0 0.0672646 -0.0299881 0 0.0297477 -0.0247668 0 262.178 262.178 1000.62 
233 1 1 0.293764 0.0371949 0 0 0 0 0.058418 -0.00906121 0 -0.000247719 -0.00478461 0 0.058418 -0.00906121 0 258.887 258.887 1000.62 