ITEM: TIMESTEP
170000
ITEM: NUMBER OF ATOMS
754
ITEM: BOX BOUNDS ff ff pp
-0.021 0.521
-0.021 0.5
-0.001 0.001
ITEM: ATOMS id type type x y z ix iy iz vx vy vz fx fy fz vx vy vz p p rho 
1 1 1 0.00669074 0.00354385 0 0 0 0 -0.00409112 -0.00924992 0 -0.00146998 0.0196046 0 -0.00409112 -0.00924992 0 469.368 469.368 1001.11 
2 1 1 0.0270382 0.00461454 0 0 0 0 -0.0071151 -0.00801338 0 0.0118272 -0.00377928 0 -0.0071151 -0.00801338 0 444.971 444.971 1001.06 
3 1 1 0.0603498 0.00627826 0 0 0 0 -0.004365 -0.00349406 0 0.024413 0.0264719 0 -0.004365 -0.00349406 0 458.916 458.916 1001.09 
4 1 1 0.0746756 0.0051304 0 0 0 0 -0.0116662 -0.00227327 0 0.013128 0.0255344 0 -0.0116662 -0.00227327 0 469.74 469.74 1001.11 
5 1 1 0.0920993 0.00553137 0 0 0 0 -0.00561199 -0.00497681 0 0.000438034 -0.00377557 0 -0.00561199 -0.00497681 0 444.075 444.075 1001.05 
6 1 1 0.109074 0.00618562 0 0 0 0 -0.0508292 -0.00660383 0 0.0313812 -0.00168456 0 -0.0508292 -0.00660383 0 463.411 463.411 1001.1 
7 1 1 0.154824 0.00631867 0 0 0 0 0.0334502 -0.02112 0 -0.0379797 -0.0291594 0 0.0334502 -0.02112 0 458.322 458.322 1001.09 
8 1 1 0.135485 0.0134675 0 0 0 0 -0.00028955 -0.0159386 0 -0.0321258 0.00558929 0 -0.00028955 -0.0159386 0 418.173 418.173 1000.99 
9 1 1 0.184508 0.00560278 0 0 0 0 0.0573029 -0.0160182 0 -0.0125252 0.0134606 0 0.0573029 -0.0160182 0 483.867 483.867 1001.15 
10 1 1 0.198433 0.00626291 0 0 0 0 0.0771824 0.000395783 0 -0.0557583 0.0350908 0 0.0771824 0.000395783 0 493.305 493.305 1001.17 
11 1 1 0.0280572 0.0168303 0 0 0 0 0.0484896 -0.0147083 0 -0.0332721 -0.00288374 0 0.0484896 -0.0147083 0 394.803 394.803 1000.94 
12 1 1 0.0470688 0.0055694 0 0 0 0 -0.0161936 0.0084535 0 0.0431657 -0.024806 0 -0.0161936 0.0084535 0 464.62 464.62 1001.1 
13 1 1 0.0658962 0.0143742 0 0 0 0 0.0431875 -0.0134084 0 0.0202748 -0.00392145 0 0.0431875 -0.0134084 0 395.46 395.46 1000.94 
14 1 1 0.0840436 0.0116124 0 0 0 0 -0.00310032 -0.00781127 0 0.0282689 0.00334099 0 -0.00310032 -0.00781127 0 439.082 439.082 1001.04 
15 1 1 0.100907 0.0115105 0 0 0 0 0.000210295 0.0401683 0 0.0737579 0.0185895 0 0.000210295 0.0401683 0 413.265 413.265 1000.98 
16 1 1 0.1407 0.00596294 0 0 0 0 -0.00783816 -0.00275539 0 -0.0944967 0.0205605 0 -0.00783816 -0.00275539 0 453.905 453.905 1001.08 
17 1 1 0.145518 0.0201859 0 0 0 0 0.0516983 -0.0244943 0 0.0037712 -0.0235977 0 0.0516983 -0.0244943 0 405.061 405.061 1000.96 
18 1 1 0.16802 0.00596538 0 0 0 0 0.0542076 0.0002209 0 -0.00197408 0.0132547 0 0.0542076 0.0002209 0 463.691 463.691 1001.1 
19 1 1 0.191932 0.0146851 0 0 0 0 0.0858995 -0.00990794 0 -0.0755776 -0.00962899 0 0.0858995 -0.00990794 0 432.508 432.508 1001.03 
20 1 1 0.184521 0.0174669 0 0 0 0 0.105533 -0.0252129 0 0.0154943 0.00826576 0 0.105533 -0.0252129 0 395.188 395.188 1000.94 
21 1 1 0.0295504 0.0296597 0 0 0 0 -0.00676032 0.00402138 0 0.0635481 -0.0466292 0 -0.00676032 0.00402138 0 296.533 296.533 1000.7 
22 1 1 0.0374228 0.00974342 0 0 0 0 0.0216078 -0.00417751 0 -0.00174977 0.0320083 0 0.0216078 -0.00417751 0 451.514 451.514 1001.07 
23 1 1 0.0553292 0.0149483 0 0 0 0 0.0225359 -0.0129207 0 0.00492331 0.00941092 0 0.0225359 -0.0129207 0 420.292 420.292 1001 
24 1 1 0.0777061 0.0273897 0 0 0 0 0.0136514 0.0141751 0 0.00850093 -0.00636018 0 0.0136514 0.0141751 0 322.153 322.153 1000.77 
25 1 1 0.0684684 0.0242577 0 0 0 0 0.00508817 0.0220079 0 -0.0143795 0.033818 0 0.00508817 0.0220079 0 326.946 326.946 1000.78 
26 1 1 0.124893 0.00511015 0 0 0 0 -0.00925352 -0.00586672 0 0.0114264 0.0404274 0 -0.00925352 -0.00586672 0 492.661 492.661 1001.17 
27 1 1 0.126994 0.0150708 0 0 0 0 -0.0161594 0.00959248 0 0.00735721 0.0644404 0 -0.0161594 0.00959248 0 394.874 394.874 1000.94 
28 1 1 0.162902 0.0146554 0 0 0 0 0.0379691 -0.00814117 0 0.0386764 0.00347425 0 0.0379691 -0.00814117 0 415.256 415.256 1000.99 
29 1 1 0.17584 0.0118833 0 0 0 0 0.05158 0.00554782 0 -0.0295242 0.0217309 0 0.05158 0.00554782 0 453.716 453.716 1001.08 
30 1 1 0.193997 0.0250428 0 0 0 0 0.0700036 -0.00869647 0 -0.0712124 0.00383307 0 0.0700036 -0.00869647 0 375.883 375.883 1000.89 
31 1 1 0.0183117 0.0101375 0 0 0 0 0.00196663 0.00963242 0 0.0228847 -0.00841146 0 0.00196663 0.00963242 0 436.88 436.88 1001.04 
32 1 1 0.0360686 0.0179566 0 0 0 0 0.0203435 0.0188893 0 0.037255 -0.0119822 0 0.0203435 0.0188893 0 401.003 401.003 1000.95 
33 1 1 0.0613975 0.0327853 0 0 0 0 0.00219318 0.0241279 0 0.0571032 -0.0187971 0 0.00219318 0.0241279 0 254.619 254.619 1000.61 
34 1 1 0.0850996 0.0192406 0 0 0 0 0.0257904 -0.00341707 0 -0.030734 0.000428831 0 0.0257904 -0.00341707 0 387.468 387.468 1000.92 
35 1 1 0.120047 0.024794 0 0 0 0 0.0423194 -0.0102719 0 0.00449962 -0.00310155 0 0.0423194 -0.0102719 0 356.647 356.647 1000.85 
36 1 1 0.131768 0.0230422 0 0 0 0 0.0851878 -0.0206383 0 0.0678628 0.00114968 0 0.0851878 -0.0206383 0 363.323 363.323 1000.86 
37 1 1 0.148057 0.0135277 0 0 0 0 0.0149412 -0.0166556 0 0.0980008 -0.0493204 0 0.0149412 -0.0166556 0 420.132 420.132 1001 
38 1 1 0.173258 0.0198727 0 0 0 0 0.0750424 -0.0443065 0 -0.097024 0.0193583 0 0.0750424 -0.0443065 0 413.221 413.221 1000.98 
39 1 1 0.19051 0.0335752 0 0 0 0 0.0735389 -0.0467542 0 -0.0702413 0.0170911 0 0.0735389 -0.0467542 0 285.274 285.274 1000.68 
40 1 1 0.152939 0.0338577 0 0 0 0 0.0159829 -0.047218 0 0.00649148 0.00781177 0 0.0159829 -0.047218 0 275.742 275.742 1000.66 
41 1 1 0.0109531 0.0143913 0 0 0 0 0.0156425 -0.00600452 0 -0.0144908 -0.00814868 0 0.0156425 -0.00600452 0 417.693 417.693 1000.99 
42 1 1 0.0310908 0.0443646 0 0 0 0 0.0131554 0.0023815 0 0.0373456 -0.0578731 0 0.0131554 0.0023815 0 177.002 177.002 1000.42 
43 1 1 0.0473212 0.0163494 0 0 0 0 0.0300306 0.0126118 0 -0.00926627 -0.00254973 0 0.0300306 0.0126118 0 400.682 400.682 1000.95 
44 1 1 0.0742487 0.0351909 0 0 0 0 0.0301215 0.00222478 0 -0.0257906 0.0270454 0 0.0301215 0.00222478 0 267.272 267.272 1000.64 
45 1 1 0.0951568 0.01788 0 0 0 0 0.0188076 -0.00276399 0 -0.00853319 -0.0438875 0 0.0188076 -0.00276399 0 401.959 401.959 1000.95 
46 1 1 0.11064 0.027922 0 0 0 0 0.0378744 -0.00263801 0 0.0123386 0.0144075 0 0.0378744 -0.00263801 0 299.898 299.898 1000.71 
47 1 1 0.158599 0.0189802 0 0 0 0 0.0233057 -0.0357566 0 -0.167169 0.0586259 0 0.0233057 -0.0357566 0 391.077 391.077 1000.93 
48 1 1 0.18178 0.0269231 0 0 0 0 0.0505616 -0.0201367 0 -0.0276835 0.0391908 0 0.0505616 -0.0201367 0 314.22 314.22 1000.75 
49 1 1 0.180515 0.0362795 0 0 0 0 0.0766332 -0.0269144 0 -0.125278 0.0202349 0 0.0766332 -0.0269144 0 237.963 237.963 1000.57 
50 1 1 0.158335 0.0521978 0 0 0 0 0.0808601 -0.000749983 0 -0.0515151 -0.0446908 0 0.0808601 -0.000749983 0 108.201 108.201 1000.26 
51 1 1 0.0204707 0.0200825 0 0 0 0 0.0248377 -0.0228735 0 0.0272216 0.00366581 0 0.0248377 -0.0228735 0 377.834 377.834 1000.9 
52 1 1 0.0388771 0.0285983 0 0 0 0 0.0133486 -0.0034317 0 -0.0264417 0.0191069 0 0.0133486 -0.0034317 0 317.128 317.128 1000.75 
53 1 1 0.0580038 0.0243236 0 0 0 0 0.0482259 -0.0301493 0 0.0107933 0.0381684 0 0.0482259 -0.0301493 0 355.285 355.285 1000.84 
54 1 1 0.0879334 0.0291487 0 0 0 0 0.0223757 -0.0120975 0 0.0393219 0.00982543 0 0.0223757 -0.0120975 0 305.589 305.589 1000.73 
55 1 1 0.0957721 0.0328864 0 0 0 0 0.00376694 0.018583 0 -0.0254326 0.0302247 0 0.00376694 0.018583 0 264.16 264.16 1000.63 
56 1 1 0.105336 0.0358763 0 0 0 0 0.0120328 -0.0372127 0 -0.000643594 0.0176307 0 0.0120328 -0.0372127 0 267.838 267.838 1000.64 
57 1 1 0.143041 0.0274935 0 0 0 0 0.0455191 -0.0104525 0 -0.0760535 0.0518768 0 0.0455191 -0.0104525 0 370.24 370.24 1000.88 
58 1 1 0.127897 0.0314704 0 0 0 0 0.0259136 -0.0363797 0 0.00479055 0.0194722 0 0.0259136 -0.0363797 0 303.758 303.758 1000.72 
59 1 1 0.168802 0.0357608 0 0 0 0 0.0486685 -0.0462141 0 7.0495e-05 0.091743 0 0.0486685 -0.0462141 0 288.387 288.387 1000.69 
60 1 1 0.171597 0.0454114 0 0 0 0 0.0643138 -0.0462284 0 0.0761588 0.0561215 0 0.0643138 -0.0462284 0 205.762 205.762 1000.49 
61 1 1 0.0466299 0.0260196 0 0 0 0 0.028095 0.00523967 0 0.127396 -0.00639658 0 0.028095 0.00523967 0 353.471 353.471 1000.84 
62 1 1 0.00870082 0.0224782 0 0 0 0 -0.00858696 -0.0189615 0 0.00800116 0.00842541 0 -0.00858696 -0.0189615 0 369.872 369.872 1000.88 
63 1 1 0.0741644 0.0155702 0 0 0 0 0.0318434 0.0295221 0 -0.0159688 0.0325487 0 0.0318434 0.0295221 0 387.59 387.59 1000.92 
64 1 1 0.0428744 0.0465809 0 0 0 0 0.0172112 -0.0168775 0 0.0465445 -0.0176737 0 0.0172112 -0.0168775 0 159.013 159.013 1000.38 
65 1 1 0.0864971 0.0396284 0 0 0 0 0.0230671 0.0113985 0 0.0116913 -0.0115101 0 0.0230671 0.0113985 0 239.04 239.04 1000.57 
66 1 1 0.11702 0.0133456 0 0 0 0 -0.00479518 -0.0326998 0 -0.00574688 0.0472561 0 -0.00479518 -0.0326998 0 451.409 451.409 1001.07 
67 1 1 0.118248 0.0361331 0 0 0 0 0.0759449 -0.00726482 0 -0.0113757 -0.0187496 0 0.0759449 -0.00726482 0 243.027 243.027 1000.58 
68 1 1 0.157892 0.0279122 0 0 0 0 0.0833598 -0.0161827 0 -0.0497089 0.0390882 0 0.0833598 -0.0161827 0 314.584 314.584 1000.75 
69 1 1 0.16933 0.0280827 0 0 0 0 0.0552452 -0.0400941 0 -0.0068932 -0.0718313 0 0.0552452 -0.0400941 0 347.689 347.689 1000.83 
70 1 1 0.182016 0.0528895 0 0 0 0 0.0818724 -0.0536675 0 -0.104436 0.123671 0 0.0818724 -0.0536675 0 199.348 199.348 1000.47 
71 1 1 0.0121594 0.0315004 0 0 0 0 0.0155396 -0.030641 0 -0.0923461 0.0315134 0 0.0155396 -0.030641 0 321.55 321.55 1000.76 
72 1 1 0.0374171 0.056309 0 0 0 0 -0.0229328 -0.0154616 0 0.08699 -0.0613698 0 -0.0229328 -0.0154616 0 123.795 123.795 1000.29 
73 1 1 0.0219349 0.0412188 0 0 0 0 -0.0248184 -0.0224858 0 0.022135 -0.0755955 0 -0.0248184 -0.0224858 0 206.219 206.219 1000.49 
74 1 1 0.0511305 0.0353666 0 0 0 0 -0.00520856 -0.0324827 0 -0.0105651 0.0585306 0 -0.00520856 -0.0324827 0 292.675 292.675 1000.7 
75 1 1 0.0779639 0.0458868 0 0 0 0 0.00962895 -0.00614407 0 -0.0342943 0.0110174 0 0.00962895 -0.00614407 0 208.27 208.27 1000.5 
76 1 1 0.110677 0.0178492 0 0 0 0 0.0399139 0.00602929 0 -0.0768955 -0.036492 0 0.0399139 0.00602929 0 379.181 379.181 1000.9 
77 1 1 0.100945 0.0234792 0 0 0 0 0.0280326 0.0205637 0 0.00427321 0.0375671 0 0.0280326 0.0205637 0 348.773 348.773 1000.83 
78 1 1 0.148817 0.0438837 0 0 0 0 0.131017 -0.0205075 0 -0.0656218 -0.000524853 0 0.131017 -0.0205075 0 209.247 209.247 1000.5 
79 1 1 0.139968 0.0352689 0 0 0 0 0.0359356 -0.00955022 0 0.00599228 0.102556 0 0.0359356 -0.00955022 0 281.904 281.904 1000.67 
80 1 1 0.147331 0.058722 0 0 0 0 0.0197678 -0.032339 0 0.104422 0.00927696 0 0.0197678 -0.032339 0 148.749 148.749 1000.35 
81 1 1 0.0218381 0.030878 0 0 0 0 -0.0052883 -0.0214445 0 -0.00558604 -0.058212 0 -0.0052883 -0.0214445 0 335.203 335.203 1000.8 
82 1 1 0.00993062 0.0406452 0 0 0 0 -0.0114454 -0.0137042 0 0.047092 0.0722571 0 -0.0114454 -0.0137042 0 237.584 237.584 1000.56 
83 1 1 0.0385401 0.0383772 0 0 0 0 -0.0238356 -0.000111663 0 0.0244012 -0.0340808 0 -0.0238356 -0.000111663 0 233.764 233.764 1000.56 
84 1 1 0.0207299 0.0508362 0 0 0 0 0.0116209 -0.0179405 0 0.0338456 -0.0866367 0 0.0116209 -0.0179405 0 178.159 178.159 1000.42 
85 1 1 0.0655219 0.0417942 0 0 0 0 -0.0022044 0.00266102 0 0.0430423 0.0321159 0 -0.0022044 0.00266102 0 232.588 232.588 1000.55 
86 1 1 0.0996597 0.0446058 0 0 0 0 0.0743094 0.0132333 0 -0.0412407 0.0226625 0 0.0743094 0.0132333 0 178.258 178.258 1000.42 
87 1 1 0.111359 0.0446355 0 0 0 0 0.0133543 -0.0305826 0 -0.0646039 0.00693459 0 0.0133543 -0.0305826 0 173.01 173.01 1000.41 
88 1 1 0.12254 0.0472322 0 0 0 0 0.0170078 -0.0540565 0 0.0362579 0.0592706 0 0.0170078 -0.0540565 0 220.628 220.628 1000.52 
89 1 1 0.131382 0.0407388 0 0 0 0 0.0793317 -0.000772182 0 -0.102024 0.0119692 0 0.0793317 -0.000772182 0 214.752 214.752 1000.51 
90 1 1 0.138332 0.0492422 0 0 0 0 0.0673431 -0.0435009 0 0.0443134 0.0434094 0 0.0673431 -0.0435009 0 253.997 253.997 1000.6 
91 1 1 0.0531016 0.0580064 0 0 0 0 -0.0271501 0.000492804 0 0.0468223 0.0868553 0 -0.0271501 0.000492804 0 196.542 196.542 1000.47 
92 1 1 0.0267623 0.0604918 0 0 0 0 -0.0292274 0.00791674 0 0.0146969 -0.133934 0 -0.0292274 0.00791674 0 76.7662 76.7662 1000.18 
93 1 1 0.0117377 0.0541481 0 0 0 0 0.00898426 -0.0181836 0 -0.0109814 0.0029925 0 0.00898426 -0.0181836 0 160.713 160.713 1000.38 
94 1 1 0.0663641 0.0521877 0 0 0 0 -0.031423 0.00417934 0 -0.0451672 0.0406474 0 -0.031423 0.00417934 0 141.688 141.688 1000.34 
95 1 1 0.0779459 0.0599004 0 0 0 0 0.016639 -0.0297689 0 0.0704511 -0.000599837 0 0.016639 -0.0297689 0 211.566 211.566 1000.5 
96 1 1 0.100622 0.0593356 0 0 0 0 0.0697639 -0.0296324 0 -0.0523868 0.0333614 0 0.0697639 -0.0296324 0 238.774 238.774 1000.57 
97 1 1 0.0539546 0.0450565 0 0 0 0 0.0161833 -0.00583573 0 0.033976 0.0658987 0 0.0161833 -0.00583573 0 233.164 233.164 1000.55 
98 1 1 0.0899594 0.0502373 0 0 0 0 0.0121273 -0.0223551 0 0.0151167 0.0463194 0 0.0121273 -0.0223551 0 179.363 179.363 1000.43 
99 1 1 0.113162 0.054377 0 0 0 0 0.0648311 0.00505535 0 0.031933 -0.0980349 0 0.0648311 0.00505535 0 69.1085 69.1085 1000.16 
100 1 1 0.129331 0.0596751 0 0 0 0 0.0565478 -0.0427476 0 -0.12703 0.0387926 0 0.0565478 -0.0427476 0 202.789 202.789 1000.48 
101 1 1 0.202016 0.014955 0 0 0 0 0.101513 -0.00698677 0 0.0448782 0.0456096 0 0.101513 -0.00698677 0 430.096 430.096 1001.02 
102 1 1 0.211451 0.016469 0 0 0 0 0.0710334 0.0302435 0 -0.0211262 -0.00388892 0 0.0710334 0.0302435 0 410.962 410.962 1000.98 
103 1 1 0.215982 0.0246039 0 0 0 0 0.121901 -0.00462528 0 -0.0313749 0.00201765 0 0.121901 -0.00462528 0 381.248 381.248 1000.91 
104 1 1 0.211309 0.00626921 0 0 0 0 0.0636035 0.0108701 0 -0.094134 0.013134 0 0.0636035 0.0108701 0 489.121 489.121 1001.16 
105 1 1 0.220602 0.00997731 0 0 0 0 0.0719168 -0.02487 0 -0.0160816 -0.0112637 0 0.0719168 -0.02487 0 487.546 487.546 1001.16 
106 1 1 0.231016 0.00517186 0 0 0 0 0.0819812 0.00500581 0 -0.01685 -0.012417 0 0.0819812 0.00500581 0 490.169 490.169 1001.16 
107 1 1 0.240572 0.0120625 0 0 0 0 0.0601735 0.0153403 0 -0.0185606 0.0235038 0 0.0601735 0.0153403 0 475.608 475.608 1001.13 
108 1 1 0.24831 0.00558614 0 0 0 0 0.0470436 0.00438221 0 -0.0595851 0.0500259 0 0.0470436 0.00438221 0 518.789 518.789 1001.23 
109 1 1 0.253468 0.013398 0 0 0 0 0.0854419 -0.0315838 0 -0.0516676 0.0426459 0 0.0854419 -0.0315838 0 478.597 478.597 1001.14 
110 1 1 0.261912 0.0158098 0 0 0 0 0.125365 -0.00504879 0 0.0107512 0.00117775 0 0.125365 -0.00504879 0 460.97 460.97 1001.09 
111 1 1 0.263523 0.00609056 0 0 0 0 0.0688776 -0.0100774 0 -0.0765529 -0.0343307 0 0.0688776 -0.0100774 0 524.411 524.411 1001.24 
112 1 1 0.273576 0.00977685 0 0 0 0 0.0869741 -0.00773784 0 -0.069482 0.0772141 0 0.0869741 -0.00773784 0 478.398 478.398 1001.14 
113 1 1 0.283096 0.00572775 0 0 0 0 0.0855509 0.00464758 0 -0.0796841 -0.0130574 0 0.0855509 0.00464758 0 517.053 517.053 1001.23 
114 1 1 0.291385 0.0151011 0 0 0 0 0.111445 0.014018 0 -0.0520942 0.000421188 0 0.111445 0.014018 0 462.673 462.673 1001.1 
115 1 1 0.312585 0.0275278 0 0 0 0 0.147378 0.00589269 0 -0.0751059 0.0105949 0 0.147378 0.00589269 0 392.852 392.852 1000.93 
116 1 1 0.29648 0.00681334 0 0 0 0 0.0884063 -0.0184509 0 -0.0752527 -0.00346817 0 0.0884063 -0.0184509 0 535.831 535.831 1001.27 
117 1 1 0.310104 0.00577988 0 0 0 0 0.113131 0.00682542 0 -0.0315313 0.000994968 0 0.113131 0.00682542 0 555.381 555.381 1001.32 
118 1 1 0.318593 0.0124225 0 0 0 0 0.117651 -0.00923292 0 -0.0380116 -0.0501701 0 0.117651 -0.00923292 0 526.421 526.421 1001.25 
119 1 1 0.326208 0.00510549 0 0 0 0 0.131044 -0.0123634 0 -0.0498762 0.107961 0 0.131044 -0.0123634 0 560.033 560.033 1001.33 
120 1 1 0.341483 0.0218924 0 0 0 0 0.111965 0.00722842 0 0.0129277 0.00220535 0 0.111965 0.00722842 0 494.863 494.863 1001.17 
121 1 1 0.337071 0.0114719 0 0 0 0 0.136746 0.0226815 0 -0.082519 0.0118166 0 0.136746 0.0226815 0 509.45 509.45 1001.21 
122 1 1 0.343983 0.00576547 0 0 0 0 0.119165 -0.00762232 0 -0.0555439 -0.0695779 0 0.119165 -0.00762232 0 546.676 546.676 1001.3 
123 1 1 0.365873 0.0152776 0 0 0 0 0.127697 -0.0145836 0 -0.0167975 0.0128958 0 0.127697 -0.0145836 0 550.276 550.276 1001.31 
124 1 1 0.360363 0.00582772 0 0 0 0 0.115026 0.019706 0 -0.0913102 -0.0334604 0 0.115026 0.019706 0 595.148 595.148 1001.41 
125 1 1 0.37286 0.00698923 0 0 0 0 0.104751 0.00702569 0 -0.00238369 0.0491068 0 0.104751 0.00702569 0 575.999 575.999 1001.37 
126 1 1 0.381353 0.0159102 0 0 0 0 0.132597 0.0400386 0 0.00165767 -0.120472 0 0.132597 0.0400386 0 532.074 532.074 1001.26 
127 1 1 0.385031 0.00611029 0 0 0 0 0.094501 -0.0104656 0 -0.0767658 0.0709821 0 0.094501 -0.0104656 0 562.735 562.735 1001.33 
128 1 1 0.392324 0.0118735 0 0 0 0 0.0684632 0.0156383 0 -0.00268265 -0.0429896 0 0.0684632 0.0156383 0 517.9 517.9 1001.23 
129 1 1 0.410531 0.0113282 0 0 0 0 0.0922607 0.0251342 0 0.0338325 -0.0640162 0 0.0922607 0.0251342 0 564.313 564.313 1001.34 
130 1 1 0.418423 0.00585892 0 0 0 0 0.0546202 0.0026362 0 0.010076 -0.0494443 0 0.0546202 0.0026362 0 592.044 592.044 1001.4 
131 1 1 0.433164 0.00617601 0 0 0 0 0.0566103 -0.00689419 0 -0.0296072 -0.0668672 0 0.0566103 -0.00689419 0 606.78 606.78 1001.44 
132 1 1 0.425981 0.0136227 0 0 0 0 0.0772273 0.0112191 0 0.0178965 0.163883 0 0.0772273 0.0112191 0 593.394 593.394 1001.41 
133 1 1 0.439895 0.0125902 0 0 0 0 0.0404554 0.0329653 0 0.0634895 0.0445444 0 0.0404554 0.0329653 0 552.057 552.057 1001.31 
134 1 1 0.449523 0.016344 0 0 0 0 0.0123249 0.00864105 0 -0.0382287 0.040659 0 0.0123249 0.00864105 0 544.624 544.624 1001.29 
135 1 1 0.448568 0.00527612 0 0 0 0 0.0212848 0.0107946 0 0.00346095 0.0124429 0 0.0212848 0.0107946 0 581.597 581.597 1001.38 
136 1 1 0.457524 0.0117985 0 0 0 0 0.00433922 0.0105145 0 0.00550175 0.000182276 0 0.00433922 0.0105145 0 576.04 576.04 1001.37 
137 1 1 0.465736 0.00509602 0 0 0 0 3.49416e-05 -0.00645688 0 -0.0112078 0.00808052 0 3.49416e-05 -0.00645688 0 584.484 584.484 1001.39 
138 1 1 0.478538 0.00662225 0 0 0 0 0.00329408 0.00622293 0 0.0223977 -0.0256222 0 0.00329408 0.00622293 0 567.985 567.985 1001.35 
139 1 1 0.492682 0.00544792 0 0 0 0 0.00221417 -0.00160865 0 -0.00164333 -0.00908803 0 0.00221417 -0.00160865 0 578.111 578.111 1001.37 
140 1 1 0.201705 0.0341052 0 0 0 0 0.0987115 0.0107987 0 -0.0513741 -0.0454289 0 0.0987115 0.0107987 0 261.683 261.683 1000.62 
141 1 1 0.203761 0.024098 0 0 0 0 0.0690054 0.0203311 0 -0.00397987 0.0213846 0 0.0690054 0.0203311 0 339.551 339.551 1000.81 
142 1 1 0.244525 0.0375806 0 0 0 0 0.119999 -0.0145429 0 -0.087355 0.0531935 0 0.119999 -0.0145429 0 321.894 321.894 1000.76 
143 1 1 0.226752 0.0257806 0 0 0 0 0.126593 0.000586139 0 -0.0145307 0.017323 0 0.126593 0.000586139 0 366.888 366.888 1000.87 
144 1 1 0.238725 0.0262961 0 0 0 0 0.129023 0.00724406 0 0.0200003 -0.00903228 0 0.129023 0.00724406 0 376.095 376.095 1000.89 
145 1 1 0.224564 0.0168741 0 0 0 0 0.0635315 -0.0169445 0 -0.0135258 -0.0146738 0 0.0635315 -0.0169445 0 447.481 447.481 1001.06 
146 1 1 0.251188 0.0319525 0 0 0 0 0.115653 -0.0388686 0 -0.092619 -0.00745397 0 0.115653 -0.0388686 0 364.604 364.604 1000.87 
147 1 1 0.234202 0.0162265 0 0 0 0 0.0604973 0.0291542 0 -0.0600984 0.0264107 0 0.0604973 0.0291542 0 428.912 428.912 1001.02 
148 1 1 0.24586 0.0209153 0 0 0 0 0.112585 -0.0380071 0 -0.0357084 -0.00599416 0 0.112585 -0.0380071 0 428.394 428.394 1001.02 
149 1 1 0.268184 0.0256993 0 0 0 0 0.108087 0.00187207 0 -0.0508632 0.0599446 0 0.108087 0.00187207 0 387.32 387.32 1000.92 
150 1 1 0.285119 0.0334326 0 0 0 0 0.131703 -0.0160864 0 -0.0757596 0.05704 0 0.131703 -0.0160864 0 343.08 343.08 1000.81 
151 1 1 0.272112 0.0182588 0 0 0 0 0.113473 0.0151604 0 -0.0358724 -0.0581507 0 0.113473 0.0151604 0 437.654 437.654 1001.04 
152 1 1 0.28109 0.0249258 0 0 0 0 0.110599 0.00324237 0 -0.036368 0.024938 0 0.110599 0.00324237 0 402.635 402.635 1000.96 
153 1 1 0.28331 0.0163265 0 0 0 0 0.096199 -0.0182009 0 -0.00959677 -0.0209789 0 0.096199 -0.0182009 0 460.764 460.764 1001.09 
154 1 1 0.302885 0.0140748 0 0 0 0 0.106499 -0.0245247 0 -0.062571 0.0141793 0 0.106499 -0.0245247 0 510.181 510.181 1001.21 
155 1 1 0.323299 0.0216294 0 0 0 0 0.10307 -0.00682866 0 -0.0575386 0.0530828 0 0.10307 -0.00682866 0 472.399 472.399 1001.12 
156 1 1 0.31262 0.0176115 0 0 0 0 0.10437 -0.0130906 0 -0.129376 0.0306847 0 0.10437 -0.0130906 0 478.793 478.793 1001.14 
157 1 1 0.330229 0.0155393 0 0 0 0 0.109888 -0.0141356 0 -0.0489923 -0.0679029 0 0.109888 -0.0141356 0 512.581 512.581 1001.22 
158 1 1 0.333804 0.0261496 0 0 0 0 0.111965 -0.0197632 0 -0.160911 0.0348579 0 0.111965 -0.0197632 0 473.047 473.047 1001.12 
159 1 1 0.351516 0.0286562 0 0 0 0 0.157002 -0.00188614 0 -0.199705 0.0227192 0 0.157002 -0.00188614 0 435.842 435.842 1001.03 
160 1 1 0.348443 0.0178074 0 0 0 0 0.117617 0.0149213 0 -0.0509998 -0.0198131 0 0.117617 0.0149213 0 498.185 498.185 1001.18 
161 1 1 0.353407 0.0121017 0 0 0 0 0.118572 -0.00823513 0 -0.0791358 0.056524 0 0.118572 -0.00823513 0 555.689 555.689 1001.32 
162 1 1 0.36889 0.0285976 0 0 0 0 0.153806 -0.00615262 0 -0.0555348 0.0413494 0 0.153806 -0.00615262 0 449.883 449.883 1001.07 
163 1 1 0.374266 0.0185865 0 0 0 0 0.142468 0.00719085 0 -0.0600385 0.000590158 0 0.142468 0.00719085 0 542.738 542.738 1001.29 
164 1 1 0.395064 0.0335691 0 0 0 0 0.131673 0.042944 0 -0.172996 -0.125737 0 0.131673 0.042944 0 446.062 446.062 1001.06 
165 1 1 0.401284 0.00575022 0 0 0 0 0.076864 -0.0142033 0 -0.0354294 -0.0274304 0 0.076864 -0.0142033 0 544.237 544.237 1001.29 
166 1 1 0.393072 0.0207364 0 0 0 0 0.14425 0.0352386 0 0.00419457 0.0394639 0 0.14425 0.0352386 0 520.169 520.169 1001.23 
167 1 1 0.408954 0.0344731 0 0 0 0 0.1383 0.0877519 0 -0.0298464 0.0419176 0 0.1383 0.0877519 0 435.476 435.476 1001.03 
168 1 1 0.420115 0.018258 0 0 0 0 0.0867517 -0.00751423 0 0.00753418 0.0807836 0 0.0867517 -0.00751423 0 532.175 532.175 1001.26 
169 1 1 0.416846 0.0436606 0 0 0 0 0.127262 0.000397195 0 0.00677282 -0.222431 0 0.127262 0.000397195 0 366.067 366.067 1000.87 
170 1 1 0.409605 0.0206562 0 0 0 0 0.0977264 0.0151321 0 0.0718625 0.0189259 0 0.0977264 0.0151321 0 504.188 504.188 1001.2 
171 1 1 0.416327 0.0284106 0 0 0 0 0.0784432 0.0317684 0 -0.0955872 -0.0962651 0 0.0784432 0.0317684 0 457.452 457.452 1001.09 
172 1 1 0.433606 0.0197649 0 0 0 0 0.0581843 0.0146178 0 0.0103751 -0.126633 0 0.0581843 0.0146178 0 525.608 525.608 1001.25 
173 1 1 0.443985 0.0232136 0 0 0 0 0.0447434 0.0753358 0 0.0113731 0.0273175 0 0.0447434 0.0753358 0 471.11 471.11 1001.12 
174 1 1 0.470099 0.0151059 0 0 0 0 0.0348615 -0.0107866 0 0.03158 -0.0256246 0 0.0348615 -0.0107866 0 553.348 553.348 1001.31 
175 1 1 0.467036 0.0275366 0 0 0 0 0.0231808 -0.00761975 0 0.0519328 -0.00847012 0 0.0231808 -0.00761975 0 466.136 466.136 1001.11 
176 1 1 0.47673 0.0188696 0 0 0 0 0.023484 0.0405256 0 0.0139403 0.0413513 0 0.023484 0.0405256 0 505.63 505.63 1001.2 
177 1 1 0.484587 0.0131621 0 0 0 0 -0.00537083 -9.22619e-05 0 -0.0311613 0.070978 0 -0.00537083 -9.22619e-05 0 565.453 565.453 1001.34 
178 1 1 0.491693 0.0190262 0 0 0 0 -0.0072896 -0.00983864 0 -0.00347361 -0.0404638 0 -0.0072896 -0.00983864 0 547.893 547.893 1001.3 
179 1 1 0.196573 0.0438766 0 0 0 0 0.096571 -0.0360986 0 -0.070956 0.0350161 0 0.096571 -0.0360986 0 202.338 202.338 1000.48 
180 1 1 0.212914 0.0319661 0 0 0 0 0.0814559 -0.0273097 0 -0.0503605 0.0387766 0 0.0814559 -0.0273097 0 318.165 318.165 1000.76 
181 1 1 0.218889 0.0429938 0 0 0 0 0.111634 -0.0300689 0 -0.088206 -0.00596578 0 0.111634 -0.0300689 0 249.119 249.119 1000.59 
182 1 1 0.224185 0.0361156 0 0 0 0 0.0972938 -0.0233813 0 -0.0368816 -0.0411355 0 0.0972938 -0.0233813 0 289.876 289.876 1000.69 
183 1 1 0.244477 0.0499398 0 0 0 0 0.13537 -0.0141998 0 -0.0118737 0.0110607 0 0.13537 -0.0141998 0 199.079 199.079 1000.47 
184 1 1 0.235655 0.0447917 0 0 0 0 0.124298 -0.00692712 0 -0.101654 0.0320794 0 0.124298 -0.00692712 0 241.805 241.805 1000.57 
185 1 1 0.233746 0.0339009 0 0 0 0 0.128382 0.00902585 0 -0.0348418 0.0154226 0 0.128382 0.00902585 0 316.255 316.255 1000.75 
186 1 1 0.256157 0.0240609 0 0 0 0 0.130956 -0.0300097 0 -0.0123047 0.021119 0 0.130956 -0.0300097 0 430.852 430.852 1001.02 
187 1 1 0.274718 0.0338813 0 0 0 0 0.131498 0.010703 0 -0.0819478 -0.0351314 0 0.131498 0.010703 0 310.663 310.663 1000.74 
188 1 1 0.279597 0.0436779 0 0 0 0 0.154338 -0.0091136 0 -0.0891589 -0.00979111 0 0.154338 -0.0091136 0 272.962 272.962 1000.65 
189 1 1 0.294263 0.0358813 0 0 0 0 0.161628 -0.038737 0 -0.0440705 0.0268928 0 0.161628 -0.038737 0 329.153 329.153 1000.78 
190 1 1 0.302045 0.0225738 0 0 0 0 0.124005 -0.0176653 0 -0.0629911 0.0272771 0 0.124005 -0.0176653 0 422.375 422.375 1001 
191 1 1 0.304896 0.0427529 0 0 0 0 0.116178 -0.02132 0 -0.0891485 0.00806764 0 0.116178 -0.02132 0 286.413 286.413 1000.68 
192 1 1 0.303908 0.0328569 0 0 0 0 0.179275 -0.0313837 0 -0.0241261 -0.0198622 0 0.179275 -0.0313837 0 379.704 379.704 1000.9 
193 1 1 0.33114 0.0343045 0 0 0 0 0.171114 0.0189427 0 -0.121938 0.0355725 0 0.171114 0.0189427 0 383.941 383.941 1000.91 
194 1 1 0.316167 0.0510715 0 0 0 0 0.124324 -0.0166098 0 -0.0555218 -0.0930571 0 0.124324 -0.0166098 0 203.92 203.92 1000.48 
195 1 1 0.33666 0.0420555 0 0 0 0 0.178873 -0.0076222 0 -0.0333339 -0.00145526 0 0.178873 -0.0076222 0 316.726 316.726 1000.75 
196 1 1 0.343642 0.0337666 0 0 0 0 0.13833 -0.00930941 0 -0.00667668 -0.0707106 0 0.13833 -0.00930941 0 367.366 367.366 1000.87 
197 1 1 0.356692 0.0404931 0 0 0 0 0.168781 0.0137017 0 -0.0470615 0.0182299 0 0.168781 0.0137017 0 374.672 374.672 1000.89 
198 1 1 0.360155 0.032178 0 0 0 0 0.152012 -0.0259113 0 0.0251647 0.00356074 0 0.152012 -0.0259113 0 406.735 406.735 1000.97 
199 1 1 0.368892 0.0411401 0 0 0 0 0.149495 0.035238 0 -0.1868 -0.122298 0 0.149495 0.035238 0 356.986 356.986 1000.85 
200 1 1 0.360138 0.0211038 0 0 0 0 0.113702 0.000394711 0 -0.0603385 -0.020649 0 0.113702 0.000394711 0 515.991 515.991 1001.22 
201 1 1 0.385906 0.0253047 0 0 0 0 0.12593 0.0275987 0 -0.0160941 0.0762522 0 0.12593 0.0275987 0 455.242 455.242 1001.08 
202 1 1 0.376284 0.0412522 0 0 0 0 0.161996 0.0140507 0 0.0733056 0.0790211 0 0.161996 0.0140507 0 377.24 377.24 1000.9 
203 1 1 0.386142 0.0370093 0 0 0 0 0.168447 0.0467503 0 -0.00834053 0.0362143 0 0.168447 0.0467503 0 406.178 406.178 1000.96 
204 1 1 0.393397 0.0499754 0 0 0 0 0.160764 0.117637 0 0.106799 0.0272029 0 0.160764 0.117637 0 275.321 275.321 1000.65 
205 1 1 0.401711 0.0170675 0 0 0 0 0.0835581 -0.0162281 0 -0.0399029 -0.000167443 0 0.0835581 -0.0162281 0 560.716 560.716 1001.33 
206 1 1 0.40195 0.0293982 0 0 0 0 0.134115 -0.016949 0 0.00443713 -0.197077 0 0.134115 -0.016949 0 427.002 427.002 1001.01 
207 1 1 0.431993 0.0443004 0 0 0 0 0.0899611 0.078912 0 -0.0351448 -0.20815 0 0.0899611 0.078912 0 413.123 413.123 1000.98 
208 1 1 0.43761 0.0307093 0 0 0 0 0.0489684 0.0634985 0 0.033988 0.0977239 0 0.0489684 0.0634985 0 475.125 475.125 1001.13 
209 1 1 0.423075 0.0340063 0 0 0 0 0.094835 0.03326 0 0.139249 0.26894 0 0.094835 0.03326 0 458.473 458.473 1001.09 
210 1 1 0.448835 0.0347756 0 0 0 0 0.0659014 0.0291466 0 0.00749433 -0.0667729 0 0.0659014 0.0291466 0 435.184 435.184 1001.03 
211 1 1 0.428495 0.0282303 0 0 0 0 0.0767654 0.0433835 0 0.0552482 -0.0209105 0 0.0767654 0.0433835 0 480.131 480.131 1001.14 
212 1 1 0.453967 0.0271959 0 0 0 0 0.0572375 -0.0191698 0 0.0418336 0.0205716 0 0.0572375 -0.0191698 0 501.412 501.412 1001.19 
213 1 1 0.461625 0.0193428 0 0 0 0 0.0480638 -0.0145526 0 -0.0165687 0.00258187 0 0.0480638 -0.0145526 0 557.535 557.535 1001.32 
214 1 1 0.471171 0.0380799 0 0 0 0 -0.00917961 -0.00370395 0 -0.00712903 0.0259287 0 -0.00917961 -0.00370395 0 413.72 413.72 1000.98 
215 1 1 0.48627 0.0260853 0 0 0 0 0.0400581 0.0269449 0 0.0105716 0.0392496 0 0.0400581 0.0269449 0 491.573 491.573 1001.17 
216 1 1 0.476798 0.02915 0 0 0 0 0.0485456 0.0314054 0 -0.0101769 0.0229981 0 0.0485456 0.0314054 0 435.206 435.206 1001.03 
217 1 1 0.489811 0.0347995 0 0 0 0 -0.00221276 0.0277723 0 -0.0125511 0.0460886 0 -0.00221276 0.0277723 0 424.948 424.948 1001.01 
218 1 1 0.213554 0.0516134 0 0 0 0 0.107469 -0.00902181 0 0.0209099 -0.022313 0 0.107469 -0.00902181 0 155.141 155.141 1000.37 
219 1 1 0.160006 0.0428523 0 0 0 0 0.0741341 -0.0309759 0 -0.0417798 -0.0138412 0 0.0741341 -0.0309759 0 222.242 222.242 1000.53 
220 1 1 0.186646 0.0448258 0 0 0 0 0.071288 -0.037963 0 -0.0371095 -0.0226778 0 0.071288 -0.037963 0 200.237 200.237 1000.48 
221 1 1 0.227216 0.0505384 0 0 0 0 0.10546 -0.0330576 0 -0.0483496 0.0243471 0 0.10546 -0.0330576 0 225.353 225.353 1000.54 
222 1 1 0.207478 0.0415 0 0 0 0 0.114896 0.0130844 0 -0.0922153 -0.0118451 0 0.114896 0.0130844 0 219.812 219.812 1000.52 
223 1 1 0.254867 0.0431898 0 0 0 0 0.126878 -0.0133303 0 -0.013383 -0.0075107 0 0.126878 -0.0133303 0 270.083 270.083 1000.64 
224 1 1 0.262371 0.0336972 0 0 0 0 0.0881992 -0.00193038 0 -0.0371541 0.0287004 0 0.0881992 -0.00193038 0 320.362 320.362 1000.76 
225 1 1 0.267222 0.0414413 0 0 0 0 0.143012 -0.0214686 0 -0.0570242 0.0459751 0 0.143012 -0.0214686 0 290.853 290.853 1000.69 
226 1 1 0.279792 0.052213 0 0 0 0 0.127526 -0.0101747 0 -0.0320542 0.0721633 0 0.127526 -0.0101747 0 207.028 207.028 1000.49 
227 1 1 0.293216 0.0249603 0 0 0 0 0.110084 -0.0235365 0 -0.121022 0.0256745 0 0.110084 -0.0235365 0 427.183 427.183 1001.01 
228 1 1 0.291272 0.0450165 0 0 0 0 0.154708 -0.0434881 0 -0.069087 0.00665621 0 0.154708 -0.0434881 0 263.216 263.216 1000.63 
229 1 1 0.302243 0.0516146 0 0 0 0 0.142125 -0.00486787 0 -0.0581661 0.0717335 0 0.142125 -0.00486787 0 257.461 257.461 1000.61 
230 1 1 0.314443 0.039448 0 0 0 0 0.150945 -0.00849374 0 -0.102394 0.0238572 0 0.150945 -0.00849374 0 301.283 301.283 1000.72 
231 1 1 0.320883 0.0315075 0 0 0 0 0.1816 -0.00432936 0 -0.00918698 -0.0619325 0 0.1816 -0.00432936 0 371.229 371.229 1000.88 
232 1 1 0.32344 0.0429806 0 0 0 0 0.136733 -0.000142524 0 -0.059198 0.0612911 0 0.136733 -0.000142524 0 311.992 311.992 1000.74 
233 1 1 0.347326 0.0434277 0 0 0 0 0.205239 -0.0105607 0 -0.148358 -0.0381274 0 0.205239 -0.0105607 0 338.073 338.073 1000.8 