ITEM: TIMESTEP
150000
ITEM: NUMBER OF ATOMS
754
ITEM: BOX BOUNDS ff ff pp
-0.021 0.521
-0.021 0.5
-0.001 0.001
ITEM: ATOMS id type type x y z ix iy iz vx vy vz fx fy fz vx vy vz p p rho 
1 1 1 0.00727825 0.0047487 0 0 0 0 0.00123556 -0.00851203 0 0.00557471 -0.0476991 0 0.00123556 -0.00851203 0 504.607 504.607 1001.2 
2 1 1 0.0261227 0.00461768 0 0 0 0 0.0202167 -0.00407007 0 0.0260267 0.0163366 0 0.0202167 -0.00407007 0 519.385 519.385 1001.23 
3 1 1 0.0583501 0.00582928 0 0 0 0 0.0512778 -0.00296946 0 -0.032736 0.0411869 0 0.0512778 -0.00296946 0 529.483 529.483 1001.26 
4 1 1 0.0717309 0.00649536 0 0 0 0 0.0550748 0.00320271 0 -0.0943733 -0.0601245 0 0.0550748 0.00320271 0 519.046 519.046 1001.23 
5 1 1 0.0885483 0.00545673 0 0 0 0 0.0710556 -0.00573405 0 0.00159734 0.0489437 0 0.0710556 -0.00573405 0 552.455 552.455 1001.31 
6 1 1 0.107221 0.00580427 0 0 0 0 0.0949246 -0.00450019 0 -0.00705928 0.0548869 0 0.0949246 -0.00450019 0 554.928 554.928 1001.32 
7 1 1 0.141194 0.0074167 0 0 0 0 0.102564 -0.000858523 0 -0.0958975 0.00389315 0 0.102564 -0.000858523 0 547.002 547.002 1001.3 
8 1 1 0.128876 0.0156266 0 0 0 0 0.106427 -0.0121296 0 -0.0783146 0.0712856 0 0.106427 -0.0121296 0 507.529 507.529 1001.2 
9 1 1 0.164535 0.00749288 0 0 0 0 0.127806 0.00172048 0 -0.0277827 0.000370608 0 0.127806 0.00172048 0 546.425 546.425 1001.3 
10 1 1 0.175192 0.00737854 0 0 0 0 0.127601 -0.00536404 0 0.0107654 -0.030922 0 0.127601 -0.00536404 0 547.789 547.789 1001.3 
11 1 1 0.0234872 0.014297 0 0 0 0 0.0131216 -0.0226583 0 0.0931435 0.0413919 0 0.0131216 -0.0226583 0 472.638 472.638 1001.12 
12 1 1 0.0421423 0.00581549 0 0 0 0 0.0383597 -0.00516836 0 0.0550343 -0.00160271 0 0.0383597 -0.00516836 0 526.95 526.95 1001.25 
13 1 1 0.0571481 0.014548 0 0 0 0 0.0579463 0.0278261 0 0.0243412 0.00374855 0 0.0579463 0.0278261 0 475.459 475.459 1001.13 
14 1 1 0.0791821 0.0121261 0 0 0 0 0.0619782 0.00108236 0 0.0158559 -0.0405807 0 0.0619782 0.00108236 0 492.315 492.315 1001.17 
15 1 1 0.0989179 0.0113457 0 0 0 0 0.0874373 -0.0131542 0 -0.146544 -0.0941848 0 0.0874373 -0.0131542 0 523.547 523.547 1001.24 
16 1 1 0.128649 0.00595068 0 0 0 0 0.10679 0.00270079 0 -0.00769265 0.0428222 0 0.10679 0.00270079 0 549.157 549.157 1001.3 
17 1 1 0.129184 0.0249229 0 0 0 0 0.104713 -0.0488247 0 -0.0413188 -0.0148387 0 0.104713 -0.0488247 0 447.931 447.931 1001.06 
18 1 1 0.152379 0.0069223 0 0 0 0 0.111652 -0.00933292 0 -0.0618234 -0.0486415 0 0.111652 -0.00933292 0 542.423 542.423 1001.29 
19 1 1 0.170951 0.0173334 0 0 0 0 0.132373 -0.00940163 0 -0.116817 -0.0591471 0 0.132373 -0.00940163 0 499.648 499.648 1001.19 
20 1 1 0.161033 0.023354 0 0 0 0 0.136445 -0.0151848 0 -0.0117171 -0.0846391 0 0.136445 -0.0151848 0 453.686 453.686 1001.08 
21 1 1 0.0242901 0.0280828 0 0 0 0 0.0588226 -0.0187104 0 -0.052198 0.0388057 0 0.0588226 -0.0187104 0 373.96 373.96 1000.89 
22 1 1 0.0361067 0.0128576 0 0 0 0 0.0639122 -0.0110504 0 -0.128331 -0.0716246 0 0.0639122 -0.0110504 0 491.95 491.95 1001.17 
23 1 1 0.0487806 0.0136818 0 0 0 0 0.110739 -0.0225575 0 -0.0981449 -0.0288522 0 0.110739 -0.0225575 0 472.714 472.714 1001.12 
24 1 1 0.0710481 0.0298109 0 0 0 0 0.0349491 -0.0592929 0 -0.0611675 0.0577226 0 0.0349491 -0.0592929 0 391.019 391.019 1000.93 
25 1 1 0.0645575 0.0233602 0 0 0 0 0.0452892 0.00416669 0 0.0231645 -0.0379256 0 0.0452892 0.00416669 0 425.813 425.813 1001.01 
26 1 1 0.118234 0.00930225 0 0 0 0 0.0952579 -0.0143199 0 -0.0542959 -0.110109 0 0.0952579 -0.0143199 0 529.853 529.853 1001.26 
27 1 1 0.118875 0.0181959 0 0 0 0 0.0886333 -0.00184365 0 -0.0161897 0.0133134 0 0.0886333 -0.00184365 0 481.453 481.453 1001.14 
28 1 1 0.149242 0.0164547 0 0 0 0 0.12731 -0.00238855 0 -0.0224443 -0.0212677 0 0.12731 -0.00238855 0 494.253 494.253 1001.17 
29 1 1 0.159416 0.0150287 0 0 0 0 0.127029 -0.00603662 0 0.0353099 0.0147702 0 0.127029 -0.00603662 0 509.745 509.745 1001.21 
30 1 1 0.169258 0.0275642 0 0 0 0 0.164193 -0.0240211 0 0.039793 0.0155446 0 0.164193 -0.0240211 0 421.66 421.66 1001 
31 1 1 0.015616 0.0112916 0 0 0 0 0.00675268 0.00351403 0 0.00662985 0.010376 0 0.00675268 0.00351403 0 475.692 475.692 1001.13 
32 1 1 0.0327397 0.0190229 0 0 0 0 0.0253749 -0.0519852 0 -0.0763402 0.0228896 0 0.0253749 -0.0519852 0 449.943 449.943 1001.07 
33 1 1 0.0601746 0.0340298 0 0 0 0 0.0751821 -0.00919365 0 0.0114422 -0.0226101 0 0.0751821 -0.00919365 0 329.082 329.082 1000.78 
34 1 1 0.0780734 0.0199655 0 0 0 0 0.0560536 0.0303008 0 -0.0317788 0.0106832 0 0.0560536 0.0303008 0 443.992 443.992 1001.05 
35 1 1 0.109128 0.0273795 0 0 0 0 0.0795657 -0.0204312 0 -0.0765587 -0.0437353 0 0.0795657 -0.0204312 0 412.41 412.41 1000.98 
36 1 1 0.118945 0.0283177 0 0 0 0 0.0905377 -0.00325146 0 -0.0218591 -0.0294423 0 0.0905377 -0.00325146 0 415.307 415.307 1000.99 
37 1 1 0.138179 0.0155801 0 0 0 0 0.126296 -0.00533759 0 -0.0375189 -0.012062 0 0.126296 -0.00533759 0 503.719 503.719 1001.2 
38 1 1 0.151298 0.0260494 0 0 0 0 0.110046 -0.0301201 0 -0.0337462 -0.0550628 0 0.110046 -0.0301201 0 426.802 426.802 1001.01 
39 1 1 0.166121 0.0380154 0 0 0 0 0.13973 -0.00498255 0 0.0281199 -0.027335 0 0.13973 -0.00498255 0 330.215 330.215 1000.78 
40 1 1 0.134962 0.0440818 0 0 0 0 0.137032 -0.0419737 0 -0.0181133 -0.0992645 0 0.137032 -0.0419737 0 309.435 309.435 1000.74 
41 1 1 0.00829567 0.0174319 0 0 0 0 0.00612763 -0.0219733 0 -0.00336635 -0.0148157 0 0.00612763 -0.0219733 0 436.205 436.205 1001.04 
42 1 1 0.029847 0.044537 0 0 0 0 0.0477671 -0.0321028 0 0.0501839 0.0110678 0 0.0477671 -0.0321028 0 256.1 256.1 1000.61 
43 1 1 0.0445724 0.0212344 0 0 0 0 0.0144627 -0.0209949 0 -0.0229591 -0.0219392 0 0.0144627 -0.0209949 0 418.419 418.419 1000.99 
44 1 1 0.0699952 0.0406521 0 0 0 0 0.0916006 -0.067636 0 -0.123016 -0.0542969 0 0.0916006 -0.067636 0 309.813 309.813 1000.74 
45 1 1 0.0894978 0.0154664 0 0 0 0 0.0546776 -0.0224233 0 -0.0589683 0.0762687 0 0.0546776 -0.0224233 0 509.885 509.885 1001.21 
46 1 1 0.0972585 0.0294506 0 0 0 0 0.123071 -0.00457028 0 -0.0236571 -0.0321225 0 0.123071 -0.00457028 0 400.039 400.039 1000.95 
47 1 1 0.140881 0.0238348 0 0 0 0 0.111724 0.00982674 0 -0.0334687 -0.0445318 0 0.111724 0.00982674 0 445.149 445.149 1001.06 
48 1 1 0.158304 0.0342862 0 0 0 0 0.169306 -0.0450783 0 -0.041892 -0.0282238 0 0.169306 -0.0450783 0 358.484 358.484 1000.85 
49 1 1 0.155637 0.0437659 0 0 0 0 0.147908 -0.0420507 0 0.00411411 -0.0941645 0 0.147908 -0.0420507 0 291.916 291.916 1000.69 
50 1 1 0.134694 0.062456 0 0 0 0 0.170799 -0.110827 0 0.127693 -0.0514102 0 0.170799 -0.110827 0 172.451 172.451 1000.41 
51 1 1 0.0183369 0.0222833 0 0 0 0 0.0465771 -0.0098435 0 -0.0825451 0.0465829 0 0.0465771 -0.0098435 0 415.898 415.898 1000.99 
52 1 1 0.0353482 0.0282235 0 0 0 0 0.0169293 -0.0283768 0 0.0369758 0.00232743 0 0.0169293 -0.0283768 0 369.691 369.691 1000.88 
53 1 1 0.0547776 0.0251329 0 0 0 0 0.0107586 0.0150285 0 -0.0953839 0.0447504 0 0.0107586 0.0150285 0 393.062 393.062 1000.93 
54 1 1 0.0801628 0.0294704 0 0 0 0 0.129615 0.00260783 0 -0.00389018 -0.00619473 0 0.129615 0.00260783 0 389.064 389.064 1000.92 
55 1 1 0.0876946 0.037266 0 0 0 0 0.112947 -0.0610388 0 -0.0144352 -0.0647977 0 0.112947 -0.0610388 0 342.674 342.674 1000.81 
56 1 1 0.0970615 0.0393878 0 0 0 0 0.0720797 0.00929219 0 -0.0559283 0.0280982 0 0.0720797 0.00929219 0 322.917 322.917 1000.77 
57 1 1 0.127031 0.0351595 0 0 0 0 0.117439 -0.047901 0 -0.0424204 0.0118809 0 0.117439 -0.047901 0 370.44 370.44 1000.88 
58 1 1 0.117416 0.039358 0 0 0 0 0.0921108 -0.0447638 0 -0.0345229 0.0309566 0 0.0921108 -0.0447638 0 337.319 337.319 1000.8 
59 1 1 0.145826 0.0438006 0 0 0 0 0.148279 -0.041399 0 -0.0329994 0.0171182 0 0.148279 -0.041399 0 290.793 290.793 1000.69 
60 1 1 0.148021 0.0548367 0 0 0 0 0.20593 -0.00770185 0 -0.0666023 0.055257 0 0.20593 -0.00770185 0 215.934 215.934 1000.51 
61 1 1 0.0466087 0.0312902 0 0 0 0 0.0401438 -0.0347017 0 -0.0288997 -0.0437553 0 0.0401438 -0.0347017 0 351.822 351.822 1000.84 
62 1 1 0.0086646 0.0283688 0 0 0 0 0.0101074 -0.0439517 0 0.00349734 -0.0168218 0 0.0101074 -0.0439517 0 378.09 378.09 1000.9 
63 1 1 0.0677777 0.0152186 0 0 0 0 0.0755992 -0.027115 0 -0.100885 0.00361921 0 0.0755992 -0.027115 0 476.743 476.743 1001.13 
64 1 1 0.0414492 0.0471616 0 0 0 0 -0.00876711 -0.0166522 0 -0.0866641 -0.0442872 0 -0.00876711 -0.0166522 0 228.441 228.441 1000.54 
65 1 1 0.0794129 0.0416457 0 0 0 0 0.0625054 -0.0352362 0 -0.0945881 0.0487905 0 0.0625054 -0.0352362 0 303.82 303.82 1000.72 
66 1 1 0.109934 0.0167651 0 0 0 0 0.105337 0.00385449 0 -0.0514267 0.000361424 0 0.105337 0.00385449 0 484.171 484.171 1001.15 
67 1 1 0.107453 0.0358928 0 0 0 0 0.0697176 0.00570724 0 -0.0122128 -0.0134772 0 0.0697176 0.00570724 0 347.475 347.475 1000.83 
68 1 1 0.13699 0.0330119 0 0 0 0 0.110637 -0.0129528 0 -0.0479359 0.0101726 0 0.110637 -0.0129528 0 378.79 378.79 1000.9 
69 1 1 0.14631 0.0346405 0 0 0 0 0.149632 -0.0127811 0 0.0633825 -0.0397733 0 0.149632 -0.0127811 0 356.901 356.901 1000.85 
70 1 1 0.157991 0.0624365 0 0 0 0 0.154917 -0.0299905 0 0.0383607 -0.0109506 0 0.154917 -0.0299905 0 218.2 218.2 1000.52 
71 1 1 0.0137696 0.0432314 0 0 0 0 0.00578799 -0.0701033 0 -0.0943962 -0.0792585 0 0.00578799 -0.0701033 0 270.212 270.212 1000.64 
72 1 1 0.0391581 0.0585995 0 0 0 0 0.102275 -0.0121012 0 -0.03874 0.0795749 0 0.102275 -0.0121012 0 123.551 123.551 1000.29 
73 1 1 0.0259819 0.0359356 0 0 0 0 0.0461092 -0.0178208 0 -0.0896019 0.100545 0 0.0461092 -0.0178208 0 320.048 320.048 1000.76 
74 1 1 0.0521618 0.0398289 0 0 0 0 0.0303328 0.00411365 0 -0.104945 0.0785826 0 0.0303328 0.00411365 0 290.62 290.62 1000.69 
75 1 1 0.0719929 0.0517116 0 0 0 0 0.0434871 -0.0666892 0 0.0563704 -0.0202907 0 0.0434871 -0.0666892 0 238.205 238.205 1000.57 
76 1 1 0.100856 0.0196723 0 0 0 0 0.080022 -0.0279677 0 -0.0994087 -0.0242332 0 0.080022 -0.0279677 0 469.13 469.13 1001.11 
77 1 1 0.089485 0.0244902 0 0 0 0 0.0954492 -0.0637475 0 -0.0906893 0.0558354 0 0.0954492 -0.0637475 0 445.122 445.122 1001.06 
78 1 1 0.120929 0.0542985 0 0 0 0 0.131696 -0.0506806 0 0.00140337 -0.0818336 0 0.131696 -0.0506806 0 208.681 208.681 1000.5 
79 1 1 0.126152 0.0471476 0 0 0 0 0.0946608 -0.0570484 0 -0.0691502 -0.0242539 0 0.0946608 -0.0570484 0 282.268 282.268 1000.67 
80 1 1 0.129472 0.0726681 0 0 0 0 0.0986136 -0.0525919 0 -0.0129159 -0.013756 0 0.0986136 -0.0525919 0 114.666 114.666 1000.27 
81 1 1 0.0128457 0.0352647 0 0 0 0 0.00346668 -0.0800972 0 0.0861567 0.0851689 0 0.00346668 -0.0800972 0 346.135 346.135 1000.82 
82 1 1 0.0129191 0.0512803 0 0 0 0 0.00842203 -0.0791884 0 -0.0912899 0.0299837 0 0.00842203 -0.0791884 0 180.732 180.732 1000.43 
83 1 1 0.0393243 0.0372779 0 0 0 0 0.0894297 -0.0177759 0 -0.0725184 0.072366 0 0.0894297 -0.0177759 0 309.856 309.856 1000.74 
84 1 1 0.0244607 0.0510369 0 0 0 0 -0.0262517 -0.0832905 0 0.00660014 0.095142 0 -0.0262517 -0.0832905 0 197.715 197.715 1000.47 
85 1 1 0.0596887 0.0454961 0 0 0 0 0.0383472 -0.0177815 0 -0.0869339 0.148445 0 0.0383472 -0.0177815 0 276.58 276.58 1000.66 
86 1 1 0.0873742 0.0493999 0 0 0 0 0.0511445 -0.0371801 0 -0.00771739 -0.0645434 0 0.0511445 -0.0371801 0 252.985 252.985 1000.6 
87 1 1 0.100444 0.047958 0 0 0 0 0.0858591 -0.00795525 0 -0.0745635 0.0258993 0 0.0858591 -0.00795525 0 257.943 257.943 1000.61 
88 1 1 0.110204 0.0577498 0 0 0 0 0.145179 -0.0394375 0 -0.166101 0.037545 0 0.145179 -0.0394375 0 219.356 219.356 1000.52 
89 1 1 0.110723 0.0469648 0 0 0 0 0.126493 -0.0131426 0 0.0234472 -0.0628296 0 0.126493 -0.0131426 0 272.691 272.691 1000.65 
90 1 1 0.122311 0.0641527 0 0 0 0 0.187366 -0.0141398 0 -0.181622 -0.104706 0 0.187366 -0.0141398 0 131.921 131.921 1000.31 
91 1 1 0.0542155 0.0648531 0 0 0 0 0.0668955 -0.0208508 0 -0.1813 0.0928182 0 0.0668955 -0.0208508 0 192.701 192.701 1000.46 
92 1 1 0.0290963 0.0609499 0 0 0 0 0.102053 -0.0999707 0 -0.177813 0.113807 0 0.102053 -0.0999707 0 125.01 125.01 1000.3 
93 1 1 0.010351 0.0594662 0 0 0 0 -0.0138216 -0.0684555 0 0.14523 0.0673246 0 -0.0138216 -0.0684555 0 96.188 96.188 1000.23 
94 1 1 0.0638534 0.0569462 0 0 0 0 0.0552506 -0.0414593 0 -0.164281 0.0134047 0 0.0552506 -0.0414593 0 221.2 221.2 1000.53 
95 1 1 0.0730191 0.0684321 0 0 0 0 0.132133 -0.0663754 0 -0.0998793 -0.00640883 0 0.132133 -0.0663754 0 198.086 198.086 1000.47 
96 1 1 0.0912531 0.0704479 0 0 0 0 0.0904885 -0.0494315 0 -0.126272 -0.0722012 0 0.0904885 -0.0494315 0 214.881 214.881 1000.51 
97 1 1 0.0489347 0.0525786 0 0 0 0 0.104003 -0.0427294 0 0.143218 0.0285572 0 0.104003 -0.0427294 0 217.353 217.353 1000.52 
98 1 1 0.0827326 0.0582716 0 0 0 0 0.100159 -0.0670523 0 -0.147427 0.0525467 0 0.100159 -0.0670523 0 236.133 236.133 1000.56 
99 1 1 0.0966465 0.0573846 0 0 0 0 0.129785 -0.0360419 0 -0.0145334 0.104031 0 0.129785 -0.0360419 0 224.57 224.57 1000.53 
100 1 1 0.106876 0.0700134 0 0 0 0 0.10008 -0.0699267 0 0.115926 0.0285448 0 0.10008 -0.0699267 0 227.559 227.559 1000.54 
101 1 1 0.180652 0.0148728 0 0 0 0 0.134435 -0.00418277 0 -0.016919 0.0108359 0 0.134435 -0.00418277 0 517.065 517.065 1001.23 
102 1 1 0.190303 0.0164752 0 0 0 0 0.142604 -0.0268371 0 -0.0678231 0.00707949 0 0.142604 -0.0268371 0 521.103 521.103 1001.24 
103 1 1 0.190961 0.0250172 0 0 0 0 0.153427 -0.0224887 0 -0.0122423 -0.03048 0 0.153427 -0.0224887 0 456.148 456.148 1001.08 
104 1 1 0.188193 0.00579598 0 0 0 0 0.141971 -0.00867304 0 0.00610487 0.0139641 0 0.141971 -0.00867304 0 577.566 577.566 1001.37 
105 1 1 0.198141 0.0111107 0 0 0 0 0.146749 0.00889388 0 -0.0198008 -0.034117 0 0.146749 0.00889388 0 545.99 545.99 1001.29 
106 1 1 0.206598 0.00535281 0 0 0 0 0.141896 -0.000710964 0 0.0446526 0.0717065 0 0.141896 -0.000710964 0 572.009 572.009 1001.36 
107 1 1 0.216314 0.0119883 0 0 0 0 0.150999 -0.0252649 0 0.000947824 -0.0523569 0 0.150999 -0.0252649 0 546.171 546.171 1001.3 
108 1 1 0.224041 0.00588874 0 0 0 0 0.170255 -0.00860753 0 -0.0166899 -0.00122262 0 0.170255 -0.00860753 0 564.07 564.07 1001.34 
109 1 1 0.224813 0.01757 0 0 0 0 0.17335 -0.00158882 0 0.00762847 0.0498769 0 0.17335 -0.00158882 0 507.744 507.744 1001.2 
110 1 1 0.232475 0.0158043 0 0 0 0 0.165903 0.018398 0 -0.0405237 -0.0718231 0 0.165903 0.018398 0 508.118 508.118 1001.21 
111 1 1 0.236406 0.00741064 0 0 0 0 0.159295 0.00867377 0 0.0296566 -0.0541934 0 0.159295 0.00867377 0 547.192 547.192 1001.3 
112 1 1 0.245498 0.00954729 0 0 0 0 0.157435 0.00893684 0 0.02039 0.0547417 0 0.157435 0.00893684 0 538.591 538.591 1001.28 
113 1 1 0.255463 0.00619204 0 0 0 0 0.148866 -0.00728598 0 0.055726 -0.0139514 0 0.148866 -0.00728598 0 556.532 556.532 1001.32 
114 1 1 0.263653 0.0125474 0 0 0 0 0.142198 0.0508803 0 0.0249121 -0.0209911 0 0.142198 0.0508803 0 515.587 515.587 1001.22 
115 1 1 0.269919 0.0238171 0 0 0 0 0.219533 0.0569474 0 0.10077 0.0529107 0 0.219533 0.0569474 0 437.21 437.21 1001.04 
116 1 1 0.270645 0.00689244 0 0 0 0 0.0985707 -0.00079891 0 -0.0234674 -0.0334619 0 0.0985707 -0.00079891 0 547.181 547.181 1001.3 
117 1 1 0.28176 0.00792393 0 0 0 0 0.137004 -0.0151566 0 0.0119824 0.0184052 0 0.137004 -0.0151566 0 533.276 533.276 1001.26 
118 1 1 0.289827 0.0101837 0 0 0 0 0.120963 0.00983066 0 0.0626386 -0.0118405 0 0.120963 0.00983066 0 510.509 510.509 1001.21 
119 1 1 0.299307 0.00586842 0 0 0 0 0.119653 0.00618144 0 0.108735 0.0407229 0 0.119653 0.00618144 0 523.355 523.355 1001.24 
120 1 1 0.30843 0.017517 0 0 0 0 0.132047 0.0284015 0 0.0984719 0.0199411 0 0.132047 0.0284015 0 464.268 464.268 1001.1 
121 1 1 0.309915 0.00909739 0 0 0 0 0.0873216 0.00877167 0 0.0520958 -0.0243247 0 0.0873216 0.00877167 0 507.667 507.667 1001.2 
122 1 1 0.32058 0.00567215 0 0 0 0 0.0820723 -0.000612694 0 0.0749947 -0.00342416 0 0.0820723 -0.000612694 0 511.143 511.143 1001.21 
123 1 1 0.342206 0.0142068 0 0 0 0 0.0827075 0.0147684 0 0.0177804 -0.0321275 0 0.0827075 0.0147684 0 462.592 462.592 1001.1 
124 1 1 0.336979 0.00575213 0 0 0 0 0.0923283 -0.00312683 0 0.0589337 0.00939947 0 0.0923283 -0.00312683 0 520.259 520.259 1001.23 
125 1 1 0.351895 0.00593064 0 0 0 0 0.0580664 0.00725502 0 -0.0280136 0.0176567 0 0.0580664 0.00725502 0 484.128 484.128 1001.15 
126 1 1 0.360474 0.0138715 0 0 0 0 0.0681147 0.00317745 0 0.0917729 -0.0297408 0 0.0681147 0.00317745 0 443.672 443.672 1001.05 
127 1 1 0.365888 0.0065837 0 0 0 0 0.0559426 -0.0108624 0 0.0343314 -0.0295113 0 0.0559426 -0.0108624 0 480.075 480.075 1001.14 
128 1 1 0.377906 0.00720314 0 0 0 0 0.0596855 0.0122257 0 0.0512424 -0.00195132 0 0.0596855 0.0122257 0 474.913 474.913 1001.13 
129 1 1 0.402589 0.00824113 0 0 0 0 0.00213272 0.00243453 0 -0.026344 0.0147836 0 0.00213272 0.00243453 0 461.823 461.823 1001.1 
130 1 1 0.412161 0.00772034 0 0 0 0 0.00923564 -0.0057308 0 0.021688 -0.0353115 0 0.00923564 -0.0057308 0 463.359 463.359 1001.1 
131 1 1 0.424762 0.00556869 0 0 0 0 0.0250999 -0.00706852 0 -0.00759173 2.46003e-05 0 0.0250999 -0.00706852 0 484.133 484.133 1001.15 
132 1 1 0.417842 0.0159389 0 0 0 0 0.00675187 -0.0202879 0 0.0291824 0.0368465 0 0.00675187 -0.0202879 0 429.232 429.232 1001.02 
133 1 1 0.436072 0.00953508 0 0 0 0 0.0216702 0.00303998 0 -0.0396615 -0.0375633 0 0.0216702 0.00303998 0 458.405 458.405 1001.09 
134 1 1 0.445929 0.0156422 0 0 0 0 0.0361843 -0.000374276 0 -0.0162232 0.0168521 0 0.0361843 -0.000374276 0 433.125 433.125 1001.03 
135 1 1 0.446843 0.00510614 0 0 0 0 0.0266478 -0.00614942 0 -0.00156504 0.0119897 0 0.0266478 -0.00614942 0 489.21 489.21 1001.16 
136 1 1 0.456488 0.0114533 0 0 0 0 0.0181733 0.00827384 0 -0.0574979 -0.0562203 0 0.0181733 0.00827384 0 454.036 454.036 1001.08 
137 1 1 0.465251 0.00525146 0 0 0 0 0.0116131 0.000235699 0 -0.00571678 -0.0188634 0 0.0116131 0.000235699 0 483.919 483.919 1001.15 
138 1 1 0.479349 0.00654615 0 0 0 0 0.0136936 -0.00240262 0 -0.00864484 -0.00533844 0 0.0136936 -0.00240262 0 475.065 475.065 1001.13 
139 1 1 0.492469 0.0057926 0 0 0 0 0.00814523 0.00476464 0 0.00278416 0.00278603 0 0.00814523 0.00476464 0 472.094 472.094 1001.12 
140 1 1 0.176565 0.0348341 0 0 0 0 0.147436 -0.0414713 0 -0.0275452 0.00118249 0 0.147436 -0.0414713 0 365.463 365.463 1000.87 
141 1 1 0.179567 0.0241914 0 0 0 0 0.172744 -0.00511342 0 -0.00940738 -0.0237602 0 0.172744 -0.00511342 0 451.805 451.805 1001.07 
142 1 1 0.208122 0.0482096 0 0 0 0 0.212652 -0.0623044 0 -0.071877 -0.0674426 0 0.212652 -0.0623044 0 300.313 300.313 1000.71 
143 1 1 0.197695 0.0317222 0 0 0 0 0.141703 -0.0561126 0 0.004148 -0.0497868 0 0.141703 -0.0561126 0 402.327 402.327 1000.96 
144 1 1 0.206305 0.0280795 0 0 0 0 0.19102 -0.0182001 0 0.0572675 0.00724397 0 0.19102 -0.0182001 0 436.872 436.872 1001.04 
145 1 1 0.201832 0.0192102 0 0 0 0 0.17342 -0.00351127 0 -0.0446784 -0.017982 0 0.17342 -0.00351127 0 501.87 501.87 1001.19 
146 1 1 0.216201 0.0338527 0 0 0 0 0.165839 0.00547552 0 -0.00504836 -0.00329232 0 0.165839 0.00547552 0 396.892 396.892 1000.94 
147 1 1 0.210602 0.0170406 0 0 0 0 0.171549 -0.00802521 0 -0.0380978 -0.0359824 0 0.171549 -0.00802521 0 519.054 519.054 1001.23 
148 1 1 0.217705 0.0250808 0 0 0 0 0.19378 -0.0239542 0 0.00478159 -0.0505457 0 0.19378 -0.0239542 0 461.874 461.874 1001.1 
149 1 1 0.234795 0.0254853 0 0 0 0 0.184039 0.0129932 0 0.0426775 -0.0690308 0 0.184039 0.0129932 0 442.777 442.777 1001.05 
150 1 1 0.247548 0.0387914 0 0 0 0 0.196095 0.00556499 0 0.0304056 -0.169933 0 0.196095 0.00556499 0 330.274 330.274 1000.78 
151 1 1 0.243218 0.0187896 0 0 0 0 0.176525 -0.0148572 0 0.0196651 -0.0411673 0 0.176525 -0.0148572 0 490.221 490.221 1001.16 
152 1 1 0.246094 0.0280735 0 0 0 0 0.212124 -0.0127154 0 -0.0050461 -0.0244468 0 0.212124 -0.0127154 0 422.713 422.713 1001 
153 1 1 0.252738 0.0177051 0 0 0 0 0.181535 -0.0122771 0 -0.00211991 -0.0461375 0 0.181535 -0.0122771 0 488.813 488.813 1001.16 
154 1 1 0.274442 0.0171186 0 0 0 0 0.147006 -0.0407194 0 0.122196 -0.0542947 0 0.147006 -0.0407194 0 487.024 487.024 1001.16 
155 1 1 0.292072 0.0197784 0 0 0 0 0.141153 0.0195625 0 0.0688768 0.00449486 0 0.141153 0.0195625 0 462.836 462.836 1001.1 
156 1 1 0.282622 0.0200599 0 0 0 0 0.14444 0.0171288 0 0.00207553 -0.0693673 0 0.14444 0.0171288 0 472.657 472.657 1001.12 
157 1 1 0.300103 0.0173979 0 0 0 0 0.114215 0.0034208 0 0.0798327 -0.0235352 0 0.114215 0.0034208 0 470.586 470.586 1001.12 
158 1 1 0.301002 0.0292599 0 0 0 0 0.15503 0.019452 0 0.0350883 -0.0672691 0 0.15503 0.019452 0 381.434 381.434 1000.91 
159 1 1 0.318483 0.0239603 0 0 0 0 0.121988 0.0317564 0 0.0862528 -0.00840494 0 0.121988 0.0317564 0 419.933 419.933 1001 
160 1 1 0.319764 0.0161762 0 0 0 0 0.100749 0.00808699 0 0.0655039 0.0179423 0 0.100749 0.00808699 0 467.985 467.985 1001.11 
161 1 1 0.329094 0.0127278 0 0 0 0 0.0797155 -0.00764738 0 0.084929 0.00948904 0 0.0797155 -0.00764738 0 485.417 485.417 1001.15 
162 1 1 0.342539 0.0250654 0 0 0 0 0.0555616 0.0306482 0 0.0847234 0.0114391 0 0.0555616 0.0306482 0 379.2 379.2 1000.9 
163 1 1 0.349495 0.0161366 0 0 0 0 0.0681217 0.0223725 0 0.0768718 -0.00389552 0 0.0681217 0.0223725 0 436.596 436.596 1001.04 
164 1 1 0.369778 0.0241784 0 0 0 0 0.0533928 -0.00201547 0 0.0407101 0.0286776 0 0.0533928 -0.00201547 0 374.913 374.913 1000.89 
165 1 1 0.390774 0.00641987 0 0 0 0 0.0149864 0.00826118 0 0.0257629 0.00441435 0 0.0149864 0.00826118 0 479.237 479.237 1001.14 
166 1 1 0.371624 0.0159337 0 0 0 0 0.0678916 -0.0046222 0 0.0369047 -0.0207462 0 0.0678916 -0.0046222 0 431.989 431.989 1001.03 
167 1 1 0.391072 0.0225689 0 0 0 0 0.0741918 0.0143191 0 -0.000890596 0.0101591 0 0.0741918 0.0143191 0 391.479 391.479 1000.93 
168 1 1 0.409925 0.0187015 0 0 0 0 0.0435385 0.0158484 0 0.0109927 -0.0673063 0 0.0435385 0.0158484 0 400.468 400.468 1000.95 
169 1 1 0.396827 0.0334556 0 0 0 0 0.0737026 0.0188203 0 -0.0260633 0.0254609 0 0.0737026 0.0188203 0 294.319 294.319 1000.7 
170 1 1 0.397584 0.0153444 0 0 0 0 0.0500472 0.0066056 0 -0.0463246 0.00130861 0 0.0500472 0.0066056 0 431.495 431.495 1001.02 
171 1 1 0.402036 0.023985 0 0 0 0 0.059942 0.0317646 0 -0.0415102 -0.0295906 0 0.059942 0.0317646 0 361.942 361.942 1000.86 
172 1 1 0.427472 0.0150938 0 0 0 0 0.0223559 -0.00400353 0 -0.0563999 0.0686478 0 0.0223559 -0.00400353 0 436.987 436.987 1001.04 
173 1 1 0.437898 0.0190556 0 0 0 0 0.0549942 -0.00607228 0 -0.00502067 0.021861 0 0.0549942 -0.00607228 0 411.75 411.75 1000.98 
174 1 1 0.464333 0.0163812 0 0 0 0 0.0436488 -0.00958968 0 -0.0136938 -0.00337185 0 0.0436488 -0.00958968 0 421.517 421.517 1001 
175 1 1 0.462559 0.0278648 0 0 0 0 0.031635 -0.0130195 0 -0.00831815 -0.0284771 0 0.031635 -0.0130195 0 346.424 346.424 1000.82 
176 1 1 0.473915 0.0139905 0 0 0 0 0.0223709 0.000811769 0 -0.0147236 -0.018063 0 0.0223709 0.000811769 0 436.531 436.531 1001.04 
177 1 1 0.484903 0.014813 0 0 0 0 0.0172363 0.00302962 0 -0.0163074 -0.0374409 0 0.0172363 0.00302962 0 434.149 434.149 1001.03 
178 1 1 0.491705 0.0192604 0 0 0 0 -0.00210419 0.0223378 0 -0.0139562 -0.0273485 0 -0.00210419 0.0223378 0 407.629 407.629 1000.97 
179 1 1 0.16885 0.0493324 0 0 0 0 0.184925 -0.0152638 0 -0.0945418 0.0966194 0 0.184925 -0.0152638 0 263.658 263.658 1000.63 
180 1 1 0.185704 0.0335424 0 0 0 0 0.168015 0.0218421 0 -0.0431206 -0.0151778 0 0.168015 0.0218421 0 374.306 374.306 1000.89 
181 1 1 0.185273 0.0445469 0 0 0 0 0.177557 -0.0061551 0 0.0106113 0.0758574 0 0.177557 -0.0061551 0 300.717 300.717 1000.71 
182 1 1 0.194449 0.0411496 0 0 0 0 0.197126 -0.0327198 0 0.0601455 -0.0377274 0 0.197126 -0.0327198 0 326.919 326.919 1000.78 
183 1 1 0.209457 0.0575767 0 0 0 0 0.216294 -0.052192 0 0.0081889 -0.0720958 0 0.216294 -0.052192 0 246.962 246.962 1000.59 
184 1 1 0.197082 0.0503322 0 0 0 0 0.201506 -0.0410883 0 -0.0156704 0.0319961 0 0.201506 -0.0410883 0 278.724 278.724 1000.66 
185 1 1 0.206499 0.0387732 0 0 0 0 0.182403 -0.0319889 0 -0.0453327 -0.0311458 0 0.182403 -0.0319889 0 366.02 366.02 1000.87 
186 1 1 0.226743 0.0303327 0 0 0 0 0.182323 -0.0143262 0 -0.0643333 -0.0488539 0 0.182323 -0.0143262 0 418.794 418.794 1000.99 
187 1 1 0.23619 0.0347328 0 0 0 0 0.244054 -0.00657981 0 0.0528738 0.0242507 0 0.244054 -0.00657981 0 371.513 371.513 1000.88 
188 1 1 0.237867 0.0442584 0 0 0 0 0.213188 0.0237368 0 -0.0494336 -0.0608153 0 0.213188 0.0237368 0 309.246 309.246 1000.73 
189 1 1 0.25763 0.0425971 0 0 0 0 0.192374 0.0160462 0 0.0247466 -0.0201939 0 0.192374 0.0160462 0 290.042 290.042 1000.69 
190 1 1 0.260252 0.0208578 0 0 0 0 0.215329 0.0418091 0 0.0965342 0.0446869 0 0.215329 0.0418091 0 459.706 459.706 1001.09 
191 1 1 0.266548 0.0438413 0 0 0 0 0.153823 0.0423494 0 0.0633459 0.0201199 0 0.153823 0.0423494 0 281.869 281.869 1000.67 
192 1 1 0.263647 0.0330101 0 0 0 0 0.200423 0.016914 0 0.028503 -0.150594 0 0.200423 0.016914 0 365.772 365.772 1000.87 
193 1 1 0.290436 0.0300971 0 0 0 0 0.161397 0.0334562 0 0.0493349 -0.00547044 0 0.161397 0.0334562 0 394.214 394.214 1000.94 
194 1 1 0.277576 0.045901 0 0 0 0 0.193242 0.0222377 0 0.0276868 -0.150572 0 0.193242 0.0222377 0 283.91 283.91 1000.67 
195 1 1 0.296861 0.0388642 0 0 0 0 0.134157 0.0405923 0 0.0811212 -0.0644362 0 0.134157 0.0405923 0 306.656 306.656 1000.73 
196 1 1 0.308713 0.0290731 0 0 0 0 0.129878 0.0269405 0 0.0947802 0.000194756 0 0.129878 0.0269405 0 377.505 377.505 1000.9 
197 1 1 0.317431 0.0352595 0 0 0 0 0.135045 0.0332102 0 0.128667 0.0658298 0 0.135045 0.0332102 0 326.918 326.918 1000.78 
198 1 1 0.326503 0.0295452 0 0 0 0 0.119113 0.00587459 0 0.0784326 -0.0253118 0 0.119113 0.00587459 0 373.758 373.758 1000.89 
199 1 1 0.335654 0.0311581 0 0 0 0 0.085867 0.0622225 0 0.0670841 -0.0267838 0 0.085867 0.0622225 0 343.415 343.415 1000.82 
200 1 1 0.332402 0.0196446 0 0 0 0 0.0996565 -0.00898409 0 0.0292181 0.0467933 0 0.0996565 -0.00898409 0 439.664 439.664 1001.04 
201 1 1 0.358069 0.0217628 0 0 0 0 0.0790494 -0.000730223 0 0.086857 -0.0239235 0 0.0790494 -0.000730223 0 392.472 392.472 1000.93 
202 1 1 0.344515 0.0375112 0 0 0 0 0.109567 -0.000310259 0 0.105069 -0.00530061 0 0.109567 -0.000310259 0 282.901 282.901 1000.67 
203 1 1 0.361854 0.0312292 0 0 0 0 0.0958842 0.0402494 0 0.0130786 0.050941 0 0.0958842 0.0402494 0 320.586 320.586 1000.76 
204 1 1 0.369596 0.0366947 0 0 0 0 0.0662687 0.0306289 0 0.0136312 0.0248989 0 0.0662687 0.0306289 0 281.434 281.434 1000.67 
205 1 1 0.38468 0.0141634 0 0 0 0 0.0512585 0.0282468 0 0.0352957 0.0395732 0 0.0512585 0.0282468 0 445.061 445.061 1001.06 
206 1 1 0.38035 0.021986 0 0 0 0 0.0585103 0.0320594 0 -0.00353594 0.026274 0 0.0585103 0.0320594 0 394.762 394.762 1000.94 
207 1 1 0.417769 0.0371252 0 0 0 0 0.09032 -0.00966241 0 -0.04443 0.0919199 0 0.09032 -0.00966241 0 278.689 278.689 1000.66 
208 1 1 0.428637 0.0250591 0 0 0 0 0.0502445 -0.0324347 0 0.0148892 0.0164694 0 0.0502445 -0.0324347 0 380.461 380.461 1000.9 
209 1 1 0.409905 0.029966 0 0 0 0 0.0644303 0.0201065 0 0.0273145 -0.0361491 0 0.0644303 0.0201065 0 311.145 311.145 1000.74 
210 1 1 0.437882 0.0310969 0 0 0 0 0.0582713 -0.000915918 0 -0.0377049 0.0099873 0 0.0582713 -0.000915918 0 328.144 328.144 1000.78 
211 1 1 0.420236 0.0270447 0 0 0 0 0.0617764 -0.00987851 0 -0.0510865 -0.0452601 0 0.0617764 -0.00987851 0 358.035 358.035 1000.85 
212 1 1 0.4457 0.0281741 0 0 0 0 0.053909 0.0143016 0 -0.0237112 -0.0536368 0 0.053909 0.0143016 0 343.359 343.359 1000.82 
213 1 1 0.45378 0.0204716 0 0 0 0 0.0355328 0.0131344 0 0.031818 -0.0171742 0 0.0355328 0.0131344 0 399.407 399.407 1000.95 
214 1 1 0.467737 0.0359845 0 0 0 0 0.0413933 0.0173984 0 0.0203577 -0.000764664 0 0.0413933 0.0173984 0 290.39 290.39 1000.69 
215 1 1 0.481767 0.0245732 0 0 0 0 -0.00487521 0.0135602 0 0.0103226 -0.0418172 0 -0.00487521 0.0135602 0 367.788 367.788 1000.87 
216 1 1 0.471775 0.0231566 0 0 0 0 0.032059 0.0298371 0 0.00516914 0.020654 0 0.032059 0.0298371 0 377.629 377.629 1000.9 
217 1 1 0.489536 0.0313404 0 0 0 0 -0.0173747 0.00688591 0 0.00225401 -0.0649955 0 -0.0173747 0.00688591 0 315.61 315.61 1000.75 
218 1 1 0.18214 0.056796 0 0 0 0 0.204153 -0.0421577 0 0.0116527 -0.100106 0 0.204153 -0.0421577 0 223.65 223.65 1000.53 
219 1 1 0.137783 0.0543968 0 0 0 0 0.1388 -0.0941154 0 0.0311527 -0.0281145 0 0.1388 -0.0941154 0 236.6 236.6 1000.56 
220 1 1 0.159675 0.0528325 0 0 0 0 0.160198 -0.0452305 0 0.100061 -0.00140891 0 0.160198 -0.0452305 0 250.134 250.134 1000.59 
221 1 1 0.192855 0.0581873 0 0 0 0 0.226722 -0.0309098 0 -0.0263191 -0.0094101 0 0.226722 -0.0309098 0 223.777 223.777 1000.53 
222 1 1 0.175856 0.0462386 0 0 0 0 0.174891 -0.0484848 0 0.0526273 -0.0654318 0 0.174891 -0.0484848 0 288.065 288.065 1000.68 
223 1 1 0.217801 0.0456667 0 0 0 0 0.234116 -0.0204963 0 0.0970594 0.0304367 0 0.234116 -0.0204963 0 307.314 307.314 1000.73 
224 1 1 0.225275 0.0413389 0 0 0 0 0.233824 -0.064006 0 0.092102 -0.0242272 0 0.233824 -0.064006 0 341.949 341.949 1000.81 
225 1 1 0.231108 0.0506631 0 0 0 0 0.210833 -0.00806224 0 -0.0442664 -0.145358 0 0.210833 -0.00806224 0 277.89 277.89 1000.66 
226 1 1 0.241576 0.0580416 0 0 0 0 0.239846 -0.0291264 0 0.0144225 -0.0916343 0 0.239846 -0.0291264 0 228.672 228.672 1000.54 
227 1 1 0.254819 0.0304608 0 0 0 0 0.18571 -0.00215091 0 0.0404624 -0.0650318 0 0.18571 -0.00215091 0 398.084 398.084 1000.95 
228 1 1 0.247762 0.047953 0 0 0 0 0.229665 0.0264546 0 0.102315 0.0517246 0 0.229665 0.0264546 0 267.063 267.063 1000.63 
229 1 1 0.259414 0.0549693 0 0 0 0 0.241175 0.0553885 0 0.0836018 -0.163008 0 0.241175 0.0553885 0 244.826 244.826 1000.58 
230 1 1 0.273099 0.0349249 0 0 0 0 0.19017 0.09766 0 0.164005 0.0156503 0 0.19017 0.09766 0 362.017 362.017 1000.86 
231 1 1 0.280581 0.03057 0 0 0 0 0.163008 -0.00919146 0 0.0765317 -0.0188953 0 0.163008 -0.00919146 0 408.173 408.173 1000.97 
232 1 1 0.286221 0.0406232 0 0 0 0 0.171391 0.0383334 0 0.0460135 -0.0774242 0 0.171391 0.0383334 0 315.164 315.164 1000.75 
233 1 1 0.308358 0.0407281 0 0 0 0 0.117065 0.0466811 0 0.0528296 -0.0169493 0 0.117065 0.0466811 0 288.066 288.066 1000.68 
234 1 1 0.292002 0.0512793 0 0 0 0 0.159617 0.0783769 0 0.0938378 0.0974368 0 0.159617 0.0783769 0 234.554 234.554 1000.56 