ITEM: TIMESTEP
154000
ITEM: NUMBER OF ATOMS
754
ITEM: BOX BOUNDS ff ff pp
-0.021 0.521
-0.021 0.5
-0.001 0.001
ITEM: ATOMS id type type x y z ix iy iz vx vy vz fx fy fz vx vy vz p p rho 
1 1 1 0.00741315 0.00427519 0 0 0 0 0.00219647 -0.0115557 0 -0.0155829 0.00427522 0 0.00219647 -0.0115557 0 486.015 486.015 1001.15 
2 1 1 0.0268833 0.00439345 0 0 0 0 0.0193401 -0.00633115 0 0.00874961 0.00781652 0 0.0193401 -0.00633115 0 501.142 501.142 1001.19 
3 1 1 0.0601717 0.00593687 0 0 0 0 0.0408363 0.00290598 0 -0.0276168 -0.0106692 0 0.0408363 0.00290598 0 478.939 478.939 1001.14 
4 1 1 0.0735644 0.00629803 0 0 0 0 0.0363937 -0.00934922 0 -0.0491712 -0.00494396 0 0.0363937 -0.00934922 0 506.821 506.821 1001.2 
5 1 1 0.0908965 0.00541708 0 0 0 0 0.0416569 0.000704538 0 -0.0723116 -0.00376133 0 0.0416569 0.000704538 0 535.341 535.341 1001.27 
6 1 1 0.110573 0.00634926 0 0 0 0 0.0689414 0.0208889 0 -0.0806714 -0.0137738 0 0.0689414 0.0208889 0 525.232 525.232 1001.25 
7 1 1 0.144603 0.00751672 0 0 0 0 0.0700895 -0.00016949 0 -0.0418487 -0.0405085 0 0.0700895 -0.00016949 0 527.092 527.092 1001.25 
8 1 1 0.132323 0.0154796 0 0 0 0 0.0695404 -0.00229185 0 -0.0569246 -0.0208552 0 0.0695404 -0.00229185 0 479.821 479.821 1001.14 
9 1 1 0.169411 0.0073174 0 0 0 0 0.11971 -0.0112113 0 -0.0104045 -0.0213625 0 0.11971 -0.0112113 0 531.172 531.172 1001.26 
10 1 1 0.180706 0.00704574 0 0 0 0 0.141769 -0.00460323 0 -0.0418322 0.0315049 0 0.141769 -0.00460323 0 547.049 547.049 1001.3 
11 1 1 0.0242895 0.0138796 0 0 0 0 0.0239421 0.00185972 0 0.00840359 0.0544982 0 0.0239421 0.00185972 0 450.975 450.975 1001.07 
12 1 1 0.0442708 0.00570281 0 0 0 0 0.0620091 -0.00341587 0 0.00150609 -0.0181438 0 0.0620091 -0.00341587 0 511.84 511.84 1001.21 
13 1 1 0.0593738 0.0158097 0 0 0 0 0.0491622 0.0295761 0 -0.0392569 -0.0380167 0 0.0491622 0.0295761 0 437.403 437.403 1001.04 
14 1 1 0.081513 0.0120803 0 0 0 0 0.0532351 -0.000290994 0 -0.032074 0.00367315 0 0.0532351 -0.000290994 0 471.685 471.685 1001.12 
15 1 1 0.101758 0.0102487 0 0 0 0 0.0537649 -0.0311558 0 -0.098738 0.0227641 0 0.0537649 -0.0311558 0 531.033 531.033 1001.26 
16 1 1 0.132544 0.00627849 0 0 0 0 0.0864015 0.0095541 0 -0.0624797 -0.0140989 0 0.0864015 0.0095541 0 527.216 527.216 1001.25 
17 1 1 0.133121 0.0232065 0 0 0 0 0.0957981 -0.0367863 0 -0.00885503 0.0239642 0 0.0957981 -0.0367863 0 440.712 440.712 1001.05 
18 1 1 0.156562 0.00632578 0 0 0 0 0.0995615 -0.0115859 0 -0.0251616 0.0382843 0 0.0995615 -0.0115859 0 553.027 553.027 1001.31 
19 1 1 0.175759 0.0167192 0 0 0 0 0.116915 -0.0149251 0 0.0124761 0.018587 0 0.116915 -0.0149251 0 491.557 491.557 1001.17 
20 1 1 0.166295 0.0225089 0 0 0 0 0.125036 -0.0214276 0 -0.0289546 0.0075447 0 0.125036 -0.0214276 0 443.929 443.929 1001.05 
21 1 1 0.0263564 0.0277901 0 0 0 0 0.0466578 0.00190174 0 -0.0130064 0.0243131 0 0.0466578 0.00190174 0 347.141 347.141 1000.82 
22 1 1 0.0377621 0.0121085 0 0 0 0 0.0154468 -0.0224514 0 -0.125284 -0.016811 0 0.0154468 -0.0224514 0 473.993 473.993 1001.12 
23 1 1 0.0519566 0.0131501 0 0 0 0 0.048944 0.00172406 0 -0.121593 0.0704028 0 0.048944 0.00172406 0 453.576 453.576 1001.08 
24 1 1 0.072851 0.0280435 0 0 0 0 0.0659198 -0.0316154 0 0.0715484 0.0497936 0 0.0659198 -0.0316154 0 379.267 379.267 1000.9 
25 1 1 0.065855 0.0230452 0 0 0 0 0.0123939 -0.0163464 0 -0.0833296 0.00409919 0 0.0123939 -0.0163464 0 399.62 399.62 1000.95 
26 1 1 0.121661 0.00827126 0 0 0 0 0.0714306 -0.0243985 0 -0.0876732 0.0308797 0 0.0714306 -0.0243985 0 538.814 538.814 1001.28 
27 1 1 0.12202 0.0180772 0 0 0 0 0.066841 -0.00844665 0 -0.0453038 -0.0531784 0 0.066841 -0.00844665 0 464.402 464.402 1001.1 
28 1 1 0.153915 0.0158213 0 0 0 0 0.105647 -0.0298802 0 -0.0495156 -0.0316033 0 0.105647 -0.0298802 0 491.87 491.87 1001.17 
29 1 1 0.164342 0.014692 0 0 0 0 0.111188 -0.013819 0 -0.0791449 -0.0196989 0 0.111188 -0.013819 0 494.458 494.458 1001.17 
30 1 1 0.175721 0.0268179 0 0 0 0 0.149593 -0.0172087 0 -0.0658157 -0.00428531 0 0.149593 -0.0172087 0 407.485 407.485 1000.97 
31 1 1 0.0160722 0.0114325 0 0 0 0 0.0153537 -0.00147399 0 -0.000154317 -0.0409704 0 0.0153537 -0.00147399 0 446.57 446.57 1001.06 
32 1 1 0.0332126 0.0177578 0 0 0 0 0.00146115 -0.0116788 0 -0.0161588 0.0660424 0 0.00146115 -0.0116788 0 428.233 428.233 1001.02 
33 1 1 0.0621991 0.0337599 0 0 0 0 0.0198525 -0.00287673 0 -0.0933804 -0.011128 0 0.0198525 -0.00287673 0 311.153 311.153 1000.74 
34 1 1 0.0798888 0.0207369 0 0 0 0 0.0338588 0.00333216 0 -0.0366647 -0.0699469 0 0.0338588 0.00333216 0 423.188 423.188 1001 
35 1 1 0.111773 0.0265088 0 0 0 0 0.0586079 -0.0191834 0 -0.0211251 0.0127568 0 0.0586079 -0.0191834 0 392.762 392.762 1000.93 
36 1 1 0.12226 0.0279324 0 0 0 0 0.0766105 -0.0134499 0 0.00415403 -0.000152249 0 0.0766105 -0.0134499 0 401.402 401.402 1000.95 
37 1 1 0.143144 0.0154097 0 0 0 0 0.116676 -0.00427804 0 -0.0687977 -0.00951253 0 0.116676 -0.00427804 0 478.16 478.16 1001.13 
38 1 1 0.155493 0.0248064 0 0 0 0 0.104057 -0.0281972 0 0.0146116 0.00697724 0 0.104057 -0.0281972 0 420.83 420.83 1001 
39 1 1 0.171942 0.0378198 0 0 0 0 0.148618 -0.00123679 0 -0.015098 0.0168652 0 0.148618 -0.00123679 0 305.108 305.108 1000.72 
40 1 1 0.140013 0.0416105 0 0 0 0 0.112275 -0.069239 0 -0.0408618 0.0235578 0 0.112275 -0.069239 0 307.116 307.116 1000.73 
41 1 1 0.00876959 0.0164296 0 0 0 0 0.0195488 -0.024969 0 0.0350007 0.0182961 0 0.0195488 -0.024969 0 423.615 423.615 1001.01 
42 1 1 0.0316335 0.0436903 0 0 0 0 0.025673 -0.0148546 0 -0.109233 -0.00905441 0 0.025673 -0.0148546 0 234.635 234.635 1000.56 
43 1 1 0.0450242 0.0197421 0 0 0 0 0.00956307 -0.0556522 0 0.00698171 -0.0577952 0 0.00956307 -0.0556522 0 411.295 411.295 1000.98 
44 1 1 0.072335 0.0380963 0 0 0 0 0.0250354 -0.0531363 0 -0.131435 0.0578613 0 0.0250354 -0.0531363 0 322.675 322.675 1000.77 
45 1 1 0.0910689 0.0152739 0 0 0 0 0.0297594 0.00820888 0 -0.000898423 0.0366846 0 0.0297594 0.00820888 0 483.678 483.678 1001.15 
46 1 1 0.101938 0.0289456 0 0 0 0 0.102563 -0.0186111 0 -0.0842447 -0.00981168 0 0.102563 -0.0186111 0 378.125 378.125 1000.9 
47 1 1 0.145036 0.0240092 0 0 0 0 0.0938738 -9.53001e-05 0 -0.0360027 -0.0250364 0 0.0938738 -9.53001e-05 0 425.727 425.727 1001.01 
48 1 1 0.164678 0.0322643 0 0 0 0 0.150908 -0.0554144 0 -0.0135096 -0.00392188 0 0.150908 -0.0554144 0 362.765 362.765 1000.86 
49 1 1 0.161326 0.0416789 0 0 0 0 0.134722 -0.050962 0 -0.0119568 0.0521355 0 0.134722 -0.050962 0 287.835 287.835 1000.68 
50 1 1 0.141864 0.0583442 0 0 0 0 0.172818 -0.0869281 0 -0.0809791 0.0752312 0 0.172818 -0.0869281 0 182.506 182.506 1000.43 
51 1 1 0.0195293 0.0220676 0 0 0 0 0.0100891 -0.00249488 0 -0.104682 0.0052852 0 0.0100891 -0.00249488 0 394.229 394.229 1000.94 
52 1 1 0.0364117 0.0274481 0 0 0 0 0.0367602 -0.00709059 0 0.0317874 0.048522 0 0.0367602 -0.00709059 0 341.958 341.958 1000.81 
53 1 1 0.054852 0.0260089 0 0 0 0 0.00555678 0.0209875 0 0.0376488 -0.0343672 0 0.00555678 0.0209875 0 358.746 358.746 1000.85 
54 1 1 0.0844314 0.0294662 0 0 0 0 0.0663015 0.00380908 0 -0.18616 0.0301367 0 0.0663015 0.00380908 0 367.424 367.424 1000.87 
55 1 1 0.091775 0.0348225 0 0 0 0 0.0887602 -0.053598 0 -0.0680213 0.0408812 0 0.0887602 -0.053598 0 338.419 338.419 1000.8 
56 1 1 0.0995891 0.0400282 0 0 0 0 0.0514115 0.0109068 0 -0.0598672 -0.071332 0 0.0514115 0.0109068 0 275.492 275.492 1000.65 
57 1 1 0.131311 0.0334623 0 0 0 0 0.0906581 -0.0377469 0 -0.103048 -0.00449969 0 0.0906581 -0.0377469 0 367.159 367.159 1000.87 
58 1 1 0.120549 0.0375576 0 0 0 0 0.0635697 -0.0516227 0 -0.0455598 -0.041427 0 0.0635697 -0.0516227 0 335.803 335.803 1000.8 
59 1 1 0.151806 0.0425789 0 0 0 0 0.152473 -0.0216324 0 0.00371133 0.0209917 0 0.152473 -0.0216324 0 267.447 267.447 1000.64 
60 1 1 0.155605 0.0542218 0 0 0 0 0.174652 -0.0293164 0 -0.0621877 -0.0688665 0 0.174652 -0.0293164 0 199.836 199.836 1000.48 
61 1 1 0.0477209 0.0298003 0 0 0 0 0.00707665 -0.0369394 0 -0.111524 -0.0184959 0 0.00707665 -0.0369394 0 345.194 345.194 1000.82 
62 1 1 0.00850006 0.0265515 0 0 0 0 -0.0194088 -0.0412704 0 -0.0248207 0.0375552 0 -0.0194088 -0.0412704 0 351.394 351.394 1000.83 
63 1 1 0.0701214 0.014527 0 0 0 0 0.0440974 -0.00658701 0 -0.0481897 0.0243544 0 0.0440974 -0.00658701 0 462.297 462.297 1001.1 
64 1 1 0.040887 0.0466911 0 0 0 0 0.00213897 -0.00389884 0 0.126261 0.0115033 0 0.00213897 -0.00389884 0 205.749 205.749 1000.49 
65 1 1 0.0813468 0.0404751 0 0 0 0 0.0394261 -0.0335225 0 -0.0286498 -0.030559 0 0.0394261 -0.0335225 0 280.423 280.423 1000.67 
66 1 1 0.11355 0.0168502 0 0 0 0 0.0770231 -0.00172422 0 -0.0520998 -0.0309988 0 0.0770231 -0.00172422 0 462.277 462.277 1001.1 
67 1 1 0.110025 0.0362661 0 0 0 0 0.0594568 0.015097 0 -0.014646 0.0114568 0 0.0594568 0.015097 0 313.2 313.2 1000.74 
68 1 1 0.14133 0.032303 0 0 0 0 0.113043 -0.0270372 0 0.0425236 -0.0377399 0 0.113043 -0.0270372 0 370.336 370.336 1000.88 
69 1 1 0.15272 0.0336607 0 0 0 0 0.160821 -0.0376455 0 -0.0561464 -0.0557873 0 0.160821 -0.0376455 0 333.315 333.315 1000.79 
70 1 1 0.16393 0.0610252 0 0 0 0 0.134214 -0.036974 0 -0.0717728 0.0395224 0 0.134214 -0.036974 0 127.125 127.125 1000.3 
71 1 1 0.0132484 0.0403239 0 0 0 0 -0.0325583 -0.0717569 0 -0.101687 0.0045368 0 -0.0325583 -0.0717569 0 260.924 260.924 1000.62 
72 1 1 0.042759 0.0577761 0 0 0 0 0.0763623 -0.0307721 0 -0.0898622 -0.00826317 0 0.0763623 -0.0307721 0 108.377 108.377 1000.26 
73 1 1 0.0270681 0.0357283 0 0 0 0 0.00590644 0.00915666 0 -0.0994092 0.082796 0 0.00590644 0.00915666 0 296.761 296.761 1000.71 
74 1 1 0.0528881 0.0397754 0 0 0 0 0.00718114 -0.00882385 0 -0.0668419 0.00597659 0 0.00718114 -0.00882385 0 251.021 251.021 1000.6 
75 1 1 0.0738996 0.0493311 0 0 0 0 0.0417652 -0.0406542 0 -0.0467084 0.0907951 0 0.0417652 -0.0406542 0 231.945 231.945 1000.55 
76 1 1 0.103296 0.0184549 0 0 0 0 0.0392189 -0.0305656 0 -0.0835392 -0.00261559 0 0.0392189 -0.0305656 0 466.533 466.533 1001.11 
77 1 1 0.0928678 0.0229112 0 0 0 0 0.0856153 -0.0191848 0 0.0189364 0.0560678 0 0.0856153 -0.0191848 0 439.893 439.893 1001.04 
78 1 1 0.126398 0.0520743 0 0 0 0 0.143199 -0.063835 0 0.0287623 -0.056972 0 0.143199 -0.063835 0 221.742 221.742 1000.53 
79 1 1 0.12964 0.0448673 0 0 0 0 0.094303 -0.0574422 0 0.0746892 -0.0219009 0 0.094303 -0.0574422 0 279.822 279.822 1000.66 
80 1 1 0.133473 0.069931 0 0 0 0 0.110708 -0.0835348 0 0.0802747 -0.0411705 0 0.110708 -0.0835348 0 115.829 115.829 1000.28 
81 1 1 0.0140759 0.032863 0 0 0 0 0.0598449 -0.0466635 0 0.117289 0.0400106 0 0.0598449 -0.0466635 0 331.356 331.356 1000.79 
82 1 1 0.0127097 0.0489558 0 0 0 0 -0.0141173 -0.0420271 0 -0.0328113 0.01323 0 -0.0141173 -0.0420271 0 176.838 176.838 1000.42 
83 1 1 0.0417478 0.0368744 0 0 0 0 0.0278474 -0.00749443 0 -0.13941 0.0220574 0 0.0278474 -0.00749443 0 283.927 283.927 1000.67 
84 1 1 0.0232319 0.0488838 0 0 0 0 -0.0355559 -0.0237656 0 -0.00973116 0.12777 0 -0.0355559 -0.0237656 0 164.883 164.883 1000.39 
85 1 1 0.0612985 0.0447975 0 0 0 0 0.0523011 -0.0331482 0 0.0515012 -0.0743175 0 0.0523011 -0.0331482 0 256.12 256.12 1000.61 
86 1 1 0.089602 0.0472991 0 0 0 0 0.0615839 -0.0596724 0 0.0246425 0.0160285 0 0.0615839 -0.0596724 0 263.092 263.092 1000.63 
87 1 1 0.103468 0.0477373 0 0 0 0 0.0737684 -0.00434458 0 0.00960717 0.00478477 0 0.0737684 -0.00434458 0 242.15 242.15 1000.58 
88 1 1 0.114985 0.0562463 0 0 0 0 0.0957996 -0.0442176 0 -0.100538 -0.0444239 0 0.0957996 -0.0442176 0 191.413 191.413 1000.46 
89 1 1 0.115248 0.0459729 0 0 0 0 0.0915975 -0.0315002 0 -0.0925123 -0.00987007 0 0.0915975 -0.0315002 0 243.075 243.075 1000.58 
90 1 1 0.128223 0.0619939 0 0 0 0 0.111283 -0.0875296 0 -0.117526 -0.0975864 0 0.111283 -0.0875296 0 178.675 178.675 1000.42 
91 1 1 0.0556442 0.0644696 0 0 0 0 0.017359 -0.0102476 0 -0.0301806 -0.0360471 0 0.017359 -0.0102476 0 154.114 154.114 1000.37 
92 1 1 0.0313427 0.0576456 0 0 0 0 0.00230398 -0.0674454 0 -0.240312 0.0864874 0 0.00230398 -0.0674454 0 120.61 120.61 1000.29 
93 1 1 0.0104315 0.0573312 0 0 0 0 0.0133616 -0.0378125 0 0.0522924 0.056542 0 0.0133616 -0.0378125 0 79.5077 79.5077 1000.19 
94 1 1 0.0655995 0.0557071 0 0 0 0 0.0428543 -0.0208281 0 0.000782463 0.0389107 0 0.0428543 -0.0208281 0 173.621 173.621 1000.41 
95 1 1 0.0766267 0.0658866 0 0 0 0 0.0385981 -0.0603786 0 -0.21561 0.0208457 0 0.0385981 -0.0603786 0 246.145 246.145 1000.59 
96 1 1 0.094157 0.0678037 0 0 0 0 0.0646178 -0.0780183 0 -0.0123844 -0.00785152 0 0.0646178 -0.0780183 0 237.084 237.084 1000.56 
97 1 1 0.0526378 0.0514937 0 0 0 0 0.060155 -0.0217512 0 -0.16208 -0.0495375 0 0.060155 -0.0217512 0 195.253 195.253 1000.46 
98 1 1 0.0855725 0.0556853 0 0 0 0 0.047733 -0.067799 0 -0.0741482 -0.0142908 0 0.047733 -0.067799 0 227.076 227.076 1000.54 
99 1 1 0.101305 0.0564731 0 0 0 0 0.0972159 -0.010636 0 -0.0940988 0.047675 0 0.0972159 -0.010636 0 208.625 208.625 1000.5 
100 1 1 0.111906 0.067706 0 0 0 0 0.143425 -0.0472819 0 0.0336619 0.0247743 0 0.143425 -0.0472819 0 184.381 184.381 1000.44 
101 1 1 0.185528 0.0148885 0 0 0 0 0.110795 0.00717409 0 -0.0170278 0.0112919 0 0.110795 0.00717409 0 507.234 507.234 1001.2 
102 1 1 0.195728 0.0156536 0 0 0 0 0.135289 -0.0168512 0 -0.0038475 -0.0214195 0 0.135289 -0.0168512 0 511.178 511.178 1001.21 
103 1 1 0.19686 0.0243329 0 0 0 0 0.137441 -0.0121541 0 -0.0627907 0.0165694 0 0.137441 -0.0121541 0 448.16 448.16 1001.06 
104 1 1 0.193754 0.00568864 0 0 0 0 0.135731 -0.00224872 0 -0.000612609 -0.0113758 0 0.135731 -0.00224872 0 565.012 565.012 1001.34 
105 1 1 0.204123 0.0110877 0 0 0 0 0.148408 0.000676461 0 -0.040753 0.034564 0 0.148408 0.000676461 0 538.476 538.476 1001.28 
106 1 1 0.212297 0.00564063 0 0 0 0 0.141655 -0.000369417 0 -0.00771261 -0.0788822 0 0.141655 -0.000369417 0 556.745 556.745 1001.32 
107 1 1 0.222527 0.0108867 0 0 0 0 0.160127 -0.0198269 0 0.0168773 0.076699 0 0.160127 -0.0198269 0 550.555 550.555 1001.31 
108 1 1 0.230682 0.00597837 0 0 0 0 0.160386 0.016974 0 -0.0540339 0.0160023 0 0.160386 0.016974 0 564.43 564.43 1001.34 
109 1 1 0.231718 0.0176148 0 0 0 0 0.164619 -0.000322355 0 -0.0545144 -0.0223533 0 0.164619 -0.000322355 0 508.544 508.544 1001.21 
110 1 1 0.238931 0.0160194 0 0 0 0 0.167835 0.00162414 0 0.0692152 0.00260361 0 0.167835 0.00162414 0 496.818 496.818 1001.18 
111 1 1 0.242861 0.00739818 0 0 0 0 0.153289 -0.00281218 0 -0.0421942 -0.00605586 0 0.153289 -0.00281218 0 548.729 548.729 1001.3 
112 1 1 0.252062 0.00971915 0 0 0 0 0.17115 -0.00711193 0 -0.00206451 -0.0341549 0 0.17115 -0.00711193 0 524.893 524.893 1001.25 
113 1 1 0.26173 0.00629529 0 0 0 0 0.15613 0.0085878 0 -0.0459612 -0.0414373 0 0.15613 0.0085878 0 548.205 548.205 1001.3 
114 1 1 0.269611 0.0146165 0 0 0 0 0.159906 0.0519143 0 0.0590355 -0.030216 0 0.159906 0.0519143 0 485.105 485.105 1001.15 
115 1 1 0.279168 0.0263363 0 0 0 0 0.239193 0.062335 0 0.0299907 -0.0398934 0 0.239193 0.062335 0 414.814 414.814 1000.98 
116 1 1 0.274714 0.00688101 0 0 0 0 0.116634 0.00236692 0 0.0838353 -0.0215232 0 0.116634 0.00236692 0 544.152 544.152 1001.29 
117 1 1 0.287308 0.00739662 0 0 0 0 0.14095 -0.0169875 0 0.0261666 -0.0348508 0 0.14095 -0.0169875 0 543.457 543.457 1001.29 
118 1 1 0.295316 0.0107296 0 0 0 0 0.153835 0.0246749 0 0.0452399 0.0517377 0 0.153835 0.0246749 0 499.692 499.692 1001.19 
119 1 1 0.304315 0.00589201 0 0 0 0 0.127125 -0.0164277 0 0.0236438 -0.0763643 0 0.127125 -0.0164277 0 524.91 524.91 1001.25 
120 1 1 0.314485 0.018613 0 0 0 0 0.164924 0.0247606 0 0.0342973 0.0145015 0 0.164924 0.0247606 0 472.967 472.967 1001.12 
121 1 1 0.31418 0.00976037 0 0 0 0 0.125255 0.0281187 0 0.0606203 0.0410403 0 0.125255 0.0281187 0 503.349 503.349 1001.19 
122 1 1 0.32438 0.00541804 0 0 0 0 0.102405 -0.0109811 0 0.0169408 -0.00118306 0 0.102405 -0.0109811 0 542.005 542.005 1001.29 
123 1 1 0.345852 0.0148129 0 0 0 0 0.10198 0.0172584 0 0.0470701 0.0117769 0 0.10198 0.0172584 0 475.83 475.83 1001.13 
124 1 1 0.341007 0.00591872 0 0 0 0 0.104514 0.00795802 0 -0.0155719 -0.0164723 0 0.104514 0.00795802 0 530.164 530.164 1001.26 
125 1 1 0.354452 0.00629897 0 0 0 0 0.077537 0.00719007 0 0.0796784 -0.0341475 0 0.077537 0.00719007 0 501.403 501.403 1001.19 
126 1 1 0.363698 0.0136776 0 0 0 0 0.085473 -0.0119606 0 -0.00343229 -0.0255172 0 0.085473 -0.0119606 0 476.846 476.846 1001.13 
127 1 1 0.368526 0.00620856 0 0 0 0 0.0803726 -0.00110479 0 0.0747129 0.0483925 0 0.0803726 -0.00110479 0 520.448 520.448 1001.23 
128 1 1 0.380563 0.0077498 0 0 0 0 0.0663195 0.0167256 0 -0.0318154 0.0204112 0 0.0663195 0.0167256 0 490.492 490.492 1001.16 
129 1 1 0.40274 0.00858811 0 0 0 0 0.00802769 0.0150226 0 0.0295761 0.0244937 0 0.00802769 0.0150226 0 475.921 475.921 1001.13 
130 1 1 0.412613 0.00720735 0 0 0 0 0.0136821 -0.0165524 0 0.0152224 0.000594293 0 0.0136821 -0.0165524 0 488.625 488.625 1001.16 
131 1 1 0.425691 0.00550062 0 0 0 0 0.0213517 0.00274869 0 -0.00349262 0.0109186 0 0.0213517 0.00274869 0 491.473 491.473 1001.17 
132 1 1 0.418438 0.0154913 0 0 0 0 0.024977 -0.00498896 0 0.0406123 0.00481892 0 0.024977 -0.00498896 0 453.556 453.556 1001.08 
133 1 1 0.436705 0.00942594 0 0 0 0 0.0122371 -0.00421931 0 -0.00680721 0.0147271 0 0.0122371 -0.00421931 0 477.187 477.187 1001.13 
134 1 1 0.447109 0.0157927 0 0 0 0 0.0239108 0.00633339 0 -0.017782 0.00154091 0 0.0239108 0.00633339 0 446.147 446.147 1001.06 
135 1 1 0.447535 0.00508022 0 0 0 0 0.00855116 0.00257258 0 -0.0293854 -0.000485709 0 0.00855116 0.00257258 0 498.943 498.943 1001.18 
136 1 1 0.456926 0.0115067 0 0 0 0 0.0058056 -0.00298214 0 -0.013539 -0.0141765 0 0.0058056 -0.00298214 0 469.541 469.541 1001.11 
137 1 1 0.465588 0.00522354 0 0 0 0 0.00479615 -0.00217155 0 -0.0172724 -0.0100773 0 0.00479615 -0.00217155 0 502.156 502.156 1001.19 
138 1 1 0.479719 0.00649888 0 0 0 0 0.00281524 -0.000878074 0 -0.0326117 -0.00809773 0 0.00281524 -0.000878074 0 487.8 487.8 1001.16 
139 1 1 0.492761 0.00597389 0 0 0 0 0.00569193 0.00268374 0 -0.00860665 -0.0138952 0 0.00569193 0.00268374 0 487.744 487.744 1001.16 
140 1 1 0.182304 0.0335228 0 0 0 0 0.141174 -0.0205754 0 -0.00229945 0.0284469 0 0.141174 -0.0205754 0 376.677 376.677 1000.89 
141 1 1 0.186206 0.0238389 0 0 0 0 0.156757 -0.0116685 0 -0.0359026 0.00293172 0 0.156757 -0.0116685 0 445.291 445.291 1001.06 
142 1 1 0.216482 0.0456095 0 0 0 0 0.209804 -0.0643756 0 0.010876 -0.0123608 0 0.209804 -0.0643756 0 313.943 313.943 1000.75 
143 1 1 0.203368 0.0295286 0 0 0 0 0.146531 -0.0439761 0 0.0544748 0.0647098 0 0.146531 -0.0439761 0 419.492 419.492 1001 
144 1 1 0.214256 0.0273424 0 0 0 0 0.200081 -0.020712 0 -0.0386388 -0.0114565 0 0.200081 -0.020712 0 435.994 435.994 1001.03 
145 1 1 0.208119 0.0189554 0 0 0 0 0.139582 -0.0113985 0 -0.0525542 -0.0333623 0 0.139582 -0.0113985 0 484.822 484.822 1001.15 
146 1 1 0.223188 0.0341931 0 0 0 0 0.191433 0.0163217 0 0.0908487 0.0469302 0 0.191433 0.0163217 0 357.967 357.967 1000.85 
147 1 1 0.217117 0.0167293 0 0 0 0 0.157256 -0.00552058 0 -0.0100553 -0.00823925 0 0.157256 -0.00552058 0 503.874 503.874 1001.2 
148 1 1 0.224958 0.0241595 0 0 0 0 0.160245 -0.0186232 0 -0.0847262 -0.00235426 0 0.160245 -0.0186232 0 464.699 464.699 1001.1 
149 1 1 0.242625 0.0256539 0 0 0 0 0.203713 -0.00144458 0 -0.00305972 -0.00654697 0 0.203713 -0.00144458 0 427.051 427.051 1001.01 
150 1 1 0.255689 0.038346 0 0 0 0 0.213638 -0.0133213 0 0.0366555 0.00355051 0 0.213638 -0.0133213 0 329.126 329.126 1000.78 
151 1 1 0.250196 0.0184349 0 0 0 0 0.168998 -0.0020692 0 -0.0377966 -0.0226409 0 0.168998 -0.0020692 0 490.294 490.294 1001.16 
152 1 1 0.254357 0.0271468 0 0 0 0 0.20714 -0.0388622 0 0.043215 -0.063545 0 0.20714 -0.0388622 0 432.215 432.215 1001.03 
153 1 1 0.260122 0.0172423 0 0 0 0 0.18927 0.000159588 0 0.0392415 0.07738 0 0.18927 0.000159588 0 483.399 483.399 1001.15 
154 1 1 0.280858 0.0154072 0 0 0 0 0.16044 -0.0354566 0 -0.0477044 0.0789992 0 0.16044 -0.0354566 0 500.191 500.191 1001.19 
155 1 1 0.29844 0.0206746 0 0 0 0 0.173032 0.0259396 0 0.019442 0.0258916 0 0.173032 0.0259396 0 471.93 471.93 1001.12 
156 1 1 0.288586 0.0198973 0 0 0 0 0.153868 -0.0254156 0 -0.00602006 -0.0821702 0 0.153868 -0.0254156 0 485.427 485.427 1001.15 
157 1 1 0.30547 0.0174613 0 0 0 0 0.152882 -0.00315568 0 0.0566216 -0.0361363 0 0.152882 -0.00315568 0 491.143 491.143 1001.17 
158 1 1 0.307567 0.0294953 0 0 0 0 0.175314 -0.0123808 0 0.036352 -0.106724 0 0.175314 -0.0123808 0 387.402 387.402 1000.92 
159 1 1 0.324106 0.025223 0 0 0 0 0.158012 0.0317106 0 0.0635631 -0.000113446 0 0.158012 0.0317106 0 423.697 423.697 1001.01 
160 1 1 0.324307 0.0163803 0 0 0 0 0.129215 -0.00161549 0 0.0925013 -0.033835 0 0.129215 -0.00161549 0 482.036 482.036 1001.14 
161 1 1 0.333117 0.0124757 0 0 0 0 0.121454 -0.00530721 0 0.0741892 0.00853688 0 0.121454 -0.00530721 0 508.663 508.663 1001.21 
162 1 1 0.345678 0.0262002 0 0 0 0 0.102866 0.0193804 0 0.104031 -0.072766 0 0.102866 0.0193804 0 394.001 394.001 1000.94 
163 1 1 0.35305 0.0170299 0 0 0 0 0.106998 0.020098 0 0.0475175 -0.026271 0 0.106998 0.020098 0 444.126 444.126 1001.05 
164 1 1 0.3724 0.0246839 0 0 0 0 0.0813804 0.0299791 0 0.0793592 0.0702999 0 0.0813804 0.0299791 0 397.628 397.628 1000.94 
165 1 1 0.391667 0.00668805 0 0 0 0 0.0307145 0.00242096 0 0.0345731 -0.0281073 0 0.0307145 0.00242096 0 486.676 486.676 1001.15 
166 1 1 0.374808 0.0158564 0 0 0 0 0.0914771 0.00431547 0 0.0349108 0.0317423 0 0.0914771 0.00431547 0 456.362 456.362 1001.08 
167 1 1 0.39397 0.0233914 0 0 0 0 0.0690689 0.0276461 0 -0.0152094 0.0388809 0 0.0690689 0.0276461 0 402.12 402.12 1000.95 
168 1 1 0.411426 0.0188588 0 0 0 0 0.0284366 -0.00902878 0 -0.0416877 -0.0682298 0 0.0284366 -0.00902878 0 419.956 419.956 1001 
169 1 1 0.399867 0.0346964 0 0 0 0 0.0792468 0.0423224 0 0.00914181 0.0267067 0 0.0792468 0.0423224 0 304.356 304.356 1000.72 
170 1 1 0.399453 0.0158032 0 0 0 0 0.0443363 0.0172268 0 -0.00917182 0.0199167 0 0.0443363 0.0172268 0 448.538 448.538 1001.06 
171 1 1 0.404395 0.0253419 0 0 0 0 0.0594369 0.0380016 0 -0.00137474 0.0126162 0 0.0594369 0.0380016 0 362.921 362.921 1000.86 
172 1 1 0.428151 0.0153323 0 0 0 0 0.0153316 0.0125817 0 0.0118588 0.0134635 0 0.0153316 0.0125817 0 450.081 450.081 1001.07 
173 1 1 0.439861 0.0189486 0 0 0 0 0.0385165 0.00128471 0 -0.0642039 0.0127628 0 0.0385165 0.00128471 0 437.977 437.977 1001.04 
174 1 1 0.465896 0.0160224 0 0 0 0 0.0344061 -0.00777008 0 -0.0165359 0.00232634 0 0.0344061 -0.00777008 0 443.108 443.108 1001.05 
175 1 1 0.463667 0.0272988 0 0 0 0 0.0241066 -0.0139793 0 -0.0101854 0.000625177 0 0.0241066 -0.0139793 0 374.922 374.922 1000.89 
176 1 1 0.474576 0.0141441 0 0 0 0 0.0117138 0.00971467 0 -0.0143708 0.0321976 0 0.0117138 0.00971467 0 448.098 448.098 1001.06 
177 1 1 0.485384 0.0146989 0 0 0 0 0.00553383 -0.00671494 0 -0.0295829 -0.00980287 0 0.00553383 -0.00671494 0 450.696 450.696 1001.07 
178 1 1 0.491618 0.0200162 0 0 0 0 -0.0022952 0.0106795 0 -0.0042272 -0.0663417 0 -0.0022952 0.0106795 0 416.52 416.52 1000.99 
179 1 1 0.175398 0.0489784 0 0 0 0 0.150345 -0.0132661 0 -0.0159044 -0.0475604 0 0.150345 -0.0132661 0 242.623 242.623 1000.58 
180 1 1 0.192152 0.0344307 0 0 0 0 0.156792 0.0204046 0 -0.00686574 -0.0401488 0 0.156792 0.0204046 0 340.163 340.163 1000.81 
181 1 1 0.192729 0.0446691 0 0 0 0 0.194284 0.00658345 0 0.0226819 -0.00706507 0 0.194284 0.00658345 0 274.097 274.097 1000.65 
182 1 1 0.202262 0.0394244 0 0 0 0 0.185186 -0.0479822 0 -0.0555681 0.00916049 0 0.185186 -0.0479822 0 332.173 332.173 1000.79 
183 1 1 0.217894 0.0547368 0 0 0 0 0.200797 -0.0798211 0 -0.0432743 0.00912843 0 0.200797 -0.0798211 0 263.912 263.912 1000.63 
184 1 1 0.204971 0.0490018 0 0 0 0 0.197543 -0.0254014 0 0.0299024 0.0144062 0 0.197543 -0.0254014 0 257.656 257.656 1000.61 
185 1 1 0.213205 0.0371469 0 0 0 0 0.150459 -0.0501617 0 -0.0808015 -0.048183 0 0.150459 -0.0501617 0 379.949 379.949 1000.9 
186 1 1 0.233708 0.0295831 0 0 0 0 0.171395 -0.0192305 0 0.0022044 -0.00848386 0 0.171395 -0.0192305 0 418.345 418.345 1000.99 
187 1 1 0.24588 0.0345357 0 0 0 0 0.226264 -0.0057081 0 -0.0917293 -0.0242893 0 0.226264 -0.0057081 0 369.514 369.514 1000.88 
188 1 1 0.246518 0.0445488 0 0 0 0 0.226307 -0.00302946 0 0.0441519 -0.0268159 0 0.226307 -0.00302946 0 271.365 271.365 1000.64 
189 1 1 0.265481 0.0427896 0 0 0 0 0.193374 -0.0271529 0 -0.00473865 -0.193285 0 0.193374 -0.0271529 0 299.916 299.916 1000.71 
190 1 1 0.269684 0.0225715 0 0 0 0 0.24904 0.0256776 0 0.0209312 -0.146175 0 0.24904 0.0256776 0 438.335 438.335 1001.04 
191 1 1 0.27352 0.0458031 0 0 0 0 0.201921 0.0498266 0 0.114783 -0.0702605 0 0.201921 0.0498266 0 292.755 292.755 1000.7 
192 1 1 0.272037 0.0330103 0 0 0 0 0.217735 0.00742011 0 0.0288819 0.126828 0 0.217735 0.00742011 0 361.608 361.608 1000.86 
193 1 1 0.297451 0.0313637 0 0 0 0 0.180911 0.0245646 0 -0.00768339 -0.073216 0 0.180911 0.0245646 0 393.07 393.07 1000.93 
194 1 1 0.285524 0.0460767 0 0 0 0 0.208906 0.0109928 0 0.083043 0.146771 0 0.208906 0.0109928 0 300.092 300.092 1000.71 
195 1 1 0.303172 0.0402805 0 0 0 0 0.182026 0.0379673 0 0.0945354 0.0344112 0 0.182026 0.0379673 0 309.676 309.676 1000.74 
196 1 1 0.314972 0.0306735 0 0 0 0 0.181961 0.0522269 0 0.0718817 0.00701307 0 0.181961 0.0522269 0 374.198 374.198 1000.89 
197 1 1 0.323619 0.0371153 0 0 0 0 0.169175 0.0534506 0 0.0587336 0.006354 0 0.169175 0.0534506 0 326.177 326.177 1000.77 
198 1 1 0.331849 0.0298709 0 0 0 0 0.145702 0.0133322 0 0.0428648 0.0350602 0 0.145702 0.0133322 0 404.792 404.792 1000.96 
199 1 1 0.340029 0.033621 0 0 0 0 0.133924 0.0628074 0 0.08968 0.0105341 0 0.133924 0.0628074 0 340.265 340.265 1000.81 
200 1 1 0.336746 0.0199245 0 0 0 0 0.11575 0.0212881 0 0.0243819 0.0311511 0 0.11575 0.0212881 0 472.39 472.39 1001.12 
201 1 1 0.362078 0.0218531 0 0 0 0 0.122325 0.0072533 0 0.1009 0.0247463 0 0.122325 0.0072533 0 415.488 415.488 1000.99 
202 1 1 0.349573 0.0376924 0 0 0 0 0.141068 0.0108336 0 0.0562573 0.0338172 0 0.141068 0.0108336 0 315.482 315.482 1000.75 
203 1 1 0.365801 0.0329673 0 0 0 0 0.102801 0.0399065 0 0.0155739 -0.0408299 0 0.102801 0.0399065 0 336.18 336.18 1000.8 
204 1 1 0.372498 0.0384649 0 0 0 0 0.0827539 0.0595248 0 0.0546153 0.0582488 0 0.0827539 0.0595248 0 285.47 285.47 1000.68 
205 1 1 0.386993 0.0156971 0 0 0 0 0.0676294 0.0434925 0 0.0560215 -0.0106989 0 0.0676294 0.0434925 0 437.024 437.024 1001.04 
206 1 1 0.382722 0.0235579 0 0 0 0 0.065459 0.0457082 0 0.0482152 0.0249518 0 0.065459 0.0457082 0 403.575 403.575 1000.96 
207 1 1 0.42088 0.0374328 0 0 0 0 0.0672881 0.0195914 0 -0.0280763 0.0182068 0 0.0672881 0.0195914 0 313.764 313.764 1000.75 
208 1 1 0.430865 0.0241764 0 0 0 0 0.0590651 -0.00703174 0 0.000325859 0.0805466 0 0.0590651 -0.00703174 0 402.482 402.482 1000.96 
209 1 1 0.412434 0.0306077 0 0 0 0 0.0610153 0.0120234 0 0.00140766 -0.0210026 0 0.0610153 0.0120234 0 319.883 319.883 1000.76 
210 1 1 0.439955 0.0312543 0 0 0 0 0.0452323 0.00702612 0 -0.0296108 0.00288698 0 0.0452323 0.00702612 0 343.062 343.062 1000.81 
211 1 1 0.421945 0.0264937 0 0 0 0 0.0264929 -0.0150648 0 -0.0441616 0.0126446 0 0.0264929 -0.0150648 0 369.989 369.989 1000.88 
212 1 1 0.447775 0.0284634 0 0 0 0 0.0505888 0.000592969 0 -0.00957387 -0.0331366 0 0.0505888 0.000592969 0 350.679 350.679 1000.83 
213 1 1 0.45548 0.0208706 0 0 0 0 0.0459153 0.00520945 0 -0.00361962 -0.0296362 0 0.0459153 0.00520945 0 412.676 412.676 1000.98 
214 1 1 0.469387 0.036766 0 0 0 0 0.038222 0.0197107 0 -0.0284794 -0.0117133 0 0.038222 0.0197107 0 299.33 299.33 1000.71 
215 1 1 0.481825 0.0250172 0 0 0 0 0.00894245 0.00655102 0 0.0283834 -0.0386229 0 0.00894245 0.00655102 0 382.064 382.064 1000.91 
216 1 1 0.473002 0.0245368 0 0 0 0 0.0271094 0.039122 0 -0.0253658 0.0149013 0 0.0271094 0.039122 0 382.726 382.726 1000.91 
217 1 1 0.489115 0.031616 0 0 0 0 0.00208193 0.0110182 0 0.0700605 0.0248617 0 0.00208193 0.0110182 0 320.638 320.638 1000.76 
218 1 1 0.190379 0.0547039 0 0 0 0 0.199688 -0.0472687 0 -0.0834183 0.073072 0 0.199688 -0.0472687 0 214.508 214.508 1000.51 
219 1 1 0.143763 0.0507004 0 0 0 0 0.148165 -0.0903953 0 -0.0578795 0.0194832 0 0.148165 -0.0903953 0 253.599 253.599 1000.6 
220 1 1 0.166608 0.0510707 0 0 0 0 0.173312 -0.0422073 0 -0.0506916 -0.0198651 0 0.173312 -0.0422073 0 242.862 242.862 1000.58 
221 1 1 0.201574 0.0570136 0 0 0 0 0.213647 -0.0292444 0 0.00790698 -0.0208547 0 0.213647 -0.0292444 0 212.927 212.927 1000.51 
222 1 1 0.182866 0.0438333 0 0 0 0 0.171145 -0.0664464 0 -0.0177277 0.0194422 0 0.171145 -0.0664464 0 282.412 282.412 1000.67 
223 1 1 0.227646 0.0450803 0 0 0 0 0.244689 -0.0105582 0 -0.0622696 0.000719371 0 0.244689 -0.0105582 0 302.421 302.421 1000.72 
224 1 1 0.23484 0.0387976 0 0 0 0 0.236215 -0.0621872 0 -0.0271962 -0.005228 0 0.236215 -0.0621872 0 381.63 381.63 1000.91 
225 1 1 0.239146 0.0496494 0 0 0 0 0.19579 -0.038758 0 -0.00310324 -0.0735311 0 0.19579 -0.038758 0 251.716 251.716 1000.6 
226 1 1 0.251054 0.056708 0 0 0 0 0.232574 -0.0261718 0 -0.0170939 0.0219627 0 0.232574 -0.0261718 0 247.138 247.138 1000.59 
227 1 1 0.262785 0.0303108 0 0 0 0 0.208532 0.000725185 0 4.84148e-05 -0.016875 0 0.208532 0.000725185 0 391.075 391.075 1000.93 
228 1 1 0.257539 0.0491057 0 0 0 0 0.241266 0.0187202 0 -0.065648 -0.0899276 0 0.241266 0.0187202 0 237.918 237.918 1000.57 
229 1 1 0.269329 0.0556604 0 0 0 0 0.26039 0.000867263 0 0.0836023 -0.0119081 0 0.26039 0.000867263 0 224.887 224.887 1000.53 
230 1 1 0.28142 0.0386615 0 0 0 0 0.215008 0.0690317 0 -0.0151979 -0.183689 0 0.215008 0.0690317 0 316.896 316.896 1000.75 
231 1 1 0.287919 0.0301672 0 0 0 0 0.206295 -0.00947709 0 0.101368 0.00129814 0 0.206295 -0.00947709 0 410.699 410.699 1000.97 
232 1 1 0.293811 0.0419727 0 0 0 0 0.212112 0.0330358 0 0.0915922 0.0255518 0 0.212112 0.0330358 0 312.497 312.497 1000.74 
233 1 1 0.313519 0.041921 0 0 0 0 0.143425 0.00851681 0 0.0867734 -0.0660949 0 0.143425 0.00851681 0 301.782 301.782 1000.72 
234 1 1 0.299066 0.0546391 0 0 0 0 0.187798 0.0685149 0 0.00588179 -0.181607 0 0.187798 0.0685149 0 266.688 266.688 1000.63 