ITEM: TIMESTEP
25000
ITEM: NUMBER OF ATOMS
754
ITEM: BOX BOUNDS ff ff pp
-0.021 0.521
-0.021 0.5
-0.001 0.001
ITEM: ATOMS id type type x y z ix iy iz vx vy vz fx fy fz vx vy vz p p rho 
1 1 1 0.00886521 0.00855675 0 0 0 0 -0.00504993 0.00400744 0 0.107712 -0.0427456 0 -0.00504993 0.00400744 0 558.928 558.928 1001.33 
2 1 1 0.021719 0.00763699 0 0 0 0 0.00790614 -0.0192688 0 0.427186 -0.0355563 0 0.00790614 -0.0192688 0 676.818 676.818 1001.6 
3 1 1 0.0382527 0.00762761 0 0 0 0 0.103897 -0.0159225 0 0.505034 0.0312725 0 0.103897 -0.0159225 0 729.104 729.104 1001.73 
4 1 1 0.0546332 0.00751625 0 0 0 0 0.146825 -0.00850602 0 0.168257 0.0222205 0 0.146825 -0.00850602 0 726.781 726.781 1001.72 
5 1 1 0.072526 0.00806069 0 0 0 0 0.209809 -0.00415829 0 0.186327 -0.0801204 0 0.209809 -0.00415829 0 633.941 633.941 1001.5 
6 1 1 0.0890287 0.00766326 0 0 0 0 0.227178 -0.0148095 0 0.11208 -0.0126436 0 0.227178 -0.0148095 0 633.556 633.556 1001.5 
7 1 1 0.106973 0.00773334 0 0 0 0 0.271184 -0.00335681 0 0.129279 0.0342649 0 0.271184 -0.00335681 0 624.374 624.374 1001.48 
8 1 1 0.120853 0.00750992 0 0 0 0 0.261931 0.00723202 0 -0.0726494 0.0657741 0 0.261931 0.00723202 0 676.035 676.035 1001.6 
9 1 1 0.138845 0.00822179 0 0 0 0 0.296515 -0.00578566 0 0.0721544 -0.0934462 0 0.296515 -0.00578566 0 675.486 675.486 1001.6 
10 1 1 0.154105 0.00804298 0 0 0 0 0.268934 0.011208 0 -0.103344 0.0412433 0 0.268934 0.011208 0 717.143 717.143 1001.7 
11 1 1 0.017557 0.0153113 0 0 0 0 0.111004 -0.00130773 0 -0.154472 -0.11027 0 0.111004 -0.00130773 0 608.329 608.329 1001.44 
12 1 1 0.0342099 0.0135894 0 0 0 0 0.130751 -0.0289961 0 -0.5655 -0.059881 0 0.130751 -0.0289961 0 648.04 648.04 1001.54 
13 1 1 0.0519686 0.0139908 0 0 0 0 0.181633 -0.0148169 0 -0.678839 -0.0301308 0 0.181633 -0.0148169 0 643.327 643.327 1001.52 
14 1 1 0.0672935 0.0126817 0 0 0 0 0.146648 -0.034088 0 -0.495528 0.0772966 0 0.146648 -0.034088 0 588.13 588.13 1001.39 
15 1 1 0.0829984 0.0136144 0 0 0 0 0.184679 0.0220301 0 -0.301777 0.0013532 0 0.184679 0.0220301 0 582.783 582.783 1001.38 
16 1 1 0.0989862 0.0128196 0 0 0 0 0.228711 -0.0399321 0 -0.240543 -0.157632 0 0.228711 -0.0399321 0 603.586 603.586 1001.43 
17 1 1 0.115434 0.0164268 0 0 0 0 0.244545 0.0194016 0 -0.33212 -0.083708 0 0.244545 0.0194016 0 560.66 560.66 1001.33 
18 1 1 0.133394 0.0129077 0 0 0 0 0.275987 0.00444325 0 -0.261704 -0.00109027 0 0.275987 0.00444325 0 640.878 640.878 1001.52 
19 1 1 0.146877 0.0146164 0 0 0 0 0.302742 -0.0195429 0 -0.274878 0.0790895 0 0.302742 -0.0195429 0 619.519 619.519 1001.47 
20 1 1 0.154707 0.0187939 0 0 0 0 0.308053 0.0347872 0 0.012947 -0.0425105 0 0.308053 0.0347872 0 557.061 557.061 1001.32 
21 1 1 0.00887058 0.0208617 0 0 0 0 -0.0534354 -0.043204 0 0.0273785 -0.138496 0 -0.0534354 -0.043204 0 464.365 464.365 1001.1 
22 1 1 0.0246464 0.0194749 0 0 0 0 -0.0376328 -0.0644771 0 0.193048 -0.110077 0 -0.0376328 -0.0644771 0 554.317 554.317 1001.31 
23 1 1 0.0402335 0.0190606 0 0 0 0 -0.000750516 -0.047181 0 0.466945 0.0142572 0 -0.000750516 -0.047181 0 605.671 605.671 1001.44 
24 1 1 0.0567507 0.0195702 0 0 0 0 0.112428 -0.00898105 0 0.642314 -0.011722 0 0.112428 -0.00898105 0 632.037 632.037 1001.5 
25 1 1 0.073062 0.0198097 0 0 0 0 0.178087 -0.0419155 0 0.163274 -0.206255 0 0.178087 -0.0419155 0 568.528 568.528 1001.35 
26 1 1 0.0897981 0.019481 0 0 0 0 0.215251 -0.0509973 0 0.0562009 -0.0197615 0 0.215251 -0.0509973 0 536.195 536.195 1001.27 
27 1 1 0.105064 0.0185344 0 0 0 0 0.223115 -0.0307097 0 0.0114896 0.0911112 0 0.223115 -0.0307097 0 539.415 539.415 1001.28 
28 1 1 0.124686 0.0165121 0 0 0 0 0.310426 -0.0564373 0 0.00960115 0.0497248 0 0.310426 -0.0564373 0 592.225 592.225 1001.4 
29 1 1 0.139524 0.0235393 0 0 0 0 0.321306 -0.0114573 0 0.134012 -0.165302 0 0.321306 -0.0114573 0 498.189 498.189 1001.18 
30 1 1 0.15912 0.028744 0 0 0 0 0.339583 0.0717336 0 0.0106899 -0.0644647 0 0.339583 0.0717336 0 492.207 492.207 1001.17 
31 1 1 0.0157058 0.0273451 0 0 0 0 0.120542 -0.0589773 0 -0.0894358 0.123823 0 0.120542 -0.0589773 0 477.848 477.848 1001.13 
32 1 1 0.0320561 0.0263302 0 0 0 0 0.218649 -0.0318952 0 -0.0641689 0.0515132 0 0.218649 -0.0318952 0 497.377 497.377 1001.18 
33 1 1 0.0477305 0.0258042 0 0 0 0 0.197665 -0.0568973 0 -0.18603 0.0101741 0 0.197665 -0.0568973 0 474.381 474.381 1001.13 
34 1 1 0.0652023 0.0262401 0 0 0 0 0.207085 -0.0215638 0 0.0177165 -0.00379021 0 0.207085 -0.0215638 0 421.847 421.847 1001 
35 1 1 0.0838805 0.0267059 0 0 0 0 0.251335 -0.0205054 0 0.0721344 0.0880315 0 0.251335 -0.0205054 0 444.739 444.739 1001.06 
36 1 1 0.104088 0.0274209 0 0 0 0 0.285502 0.0126931 0 -0.0516236 0.065807 0 0.285502 0.0126931 0 469.57 469.57 1001.11 
37 1 1 0.123675 0.0273712 0 0 0 0 0.338623 0.0105753 0 0.0198721 0.0680034 0 0.338623 0.0105753 0 459.803 459.803 1001.09 
38 1 1 0.133814 0.0254195 0 0 0 0 0.289195 -0.0166428 0 -0.294126 0.152254 0 0.289195 -0.0166428 0 458.763 458.763 1001.09 
39 1 1 0.149803 0.0274263 0 0 0 0 0.312268 0.00832945 0 -0.182893 0.029716 0 0.312268 0.00832945 0 530.324 530.324 1001.26 
40 1 1 0.159927 0.0410063 0 0 0 0 0.306203 0.0848689 0 -0.17619 -0.121714 0 0.306203 0.0848689 0 374.18 374.18 1000.89 
41 1 1 0.0110002 0.0336316 0 0 0 0 -0.00381035 -0.109313 0 -0.0450384 0.00645284 0 -0.00381035 -0.109313 0 350.003 350.003 1000.83 
42 1 1 0.0257914 0.0320552 0 0 0 0 0.00136093 -0.0833232 0 -0.0775916 0.0357921 0 0.00136093 -0.0833232 0 443.285 443.285 1001.05 
43 1 1 0.0421649 0.0319251 0 0 0 0 0.0368856 -0.0781162 0 0.128918 -0.111164 0 0.0368856 -0.0781162 0 456.691 456.691 1001.08 
44 1 1 0.0571384 0.0311276 0 0 0 0 0.103503 -0.0742677 0 0.178867 0.0817717 0 0.103503 -0.0742677 0 474.72 474.72 1001.13 
45 1 1 0.0746868 0.0294568 0 0 0 0 0.209689 -0.10373 0 0.122095 0.0247312 0 0.209689 -0.10373 0 464.12 464.12 1001.1 
46 1 1 0.0948027 0.0279712 0 0 0 0 0.300393 -0.0921646 0 0.0461959 0.0069048 0 0.300393 -0.0921646 0 424.062 424.062 1001.01 
47 1 1 0.115324 0.0271858 0 0 0 0 0.320456 -0.110982 0 -0.173085 -0.0172051 0 0.320456 -0.110982 0 457.338 457.338 1001.09 
48 1 1 0.141778 0.0350407 0 0 0 0 0.337641 -0.0365323 0 -0.195593 -0.110334 0 0.337641 -0.0365323 0 430.16 430.16 1001.02 
49 1 1 0.15258 0.0390823 0 0 0 0 0.300792 -0.0312499 0 -0.189767 -0.0675767 0 0.300792 -0.0312499 0 327.201 327.201 1000.78 
50 1 1 0.160437 0.0562153 0 0 0 0 0.16146 0.0291389 0 -0.404799 -0.127288 0 0.16146 0.0291389 0 227.448 227.448 1000.54 
51 1 1 0.0118447 0.0413666 0 0 0 0 0.0297227 -0.100032 0 0.0734912 -0.254418 0 0.0297227 -0.100032 0 304.416 304.416 1000.72 
52 1 1 0.0267308 0.0388991 0 0 0 0 0.0608848 -0.0989985 0 0.0618684 0.104848 0 0.0608848 -0.0989985 0 354.48 354.48 1000.84 
53 1 1 0.0409302 0.0386505 0 0 0 0 0.04163 -0.0707017 0 0.0254904 0.0178783 0 0.04163 -0.0707017 0 393.22 393.22 1000.93 
54 1 1 0.0578397 0.0378935 0 0 0 0 0.165201 -0.0893197 0 0.125693 0.000387669 0 0.165201 -0.0893197 0 372.841 372.841 1000.89 
55 1 1 0.0750142 0.036716 0 0 0 0 0.244597 -0.0717767 0 0.160473 0.0875301 0 0.244597 -0.0717767 0 384.345 384.345 1000.91 
56 1 1 0.0932365 0.0361633 0 0 0 0 0.297516 -0.0450974 0 0.0268898 0.0298843 0 0.297516 -0.0450974 0 343.691 343.691 1000.82 
57 1 1 0.109987 0.03621 0 0 0 0 0.305634 -0.0409464 0 0.149472 0.0572989 0 0.305634 -0.0409464 0 343.939 343.939 1000.82 
58 1 1 0.131746 0.0377105 0 0 0 0 0.350729 0.0357811 0 -0.120267 -0.0432464 0 0.350729 0.0357811 0 332.569 332.569 1000.79 
59 1 1 0.152843 0.0513474 0 0 0 0 0.188293 0.0270586 0 -0.199624 -0.213265 0 0.188293 0.0270586 0 291.937 291.937 1000.69 
60 1 1 0.165897 0.0608813 0 0 0 0 0.235157 -0.0687758 0 -0.116261 -0.212141 0 0.235157 -0.0687758 0 272.819 272.819 1000.65 
61 1 1 0.012042 0.0483988 0 0 0 0 0.0352741 -0.088526 0 0.095555 0.105519 0 0.0352741 -0.088526 0 267.382 267.382 1000.64 
62 1 1 0.0251914 0.0460576 0 0 0 0 0.0113775 -0.116034 0 0.0610892 -0.266695 0 0.0113775 -0.116034 0 256.288 256.288 1000.61 
63 1 1 0.0414629 0.0450257 0 0 0 0 0.113328 -0.0868201 0 0.163964 0.173425 0 0.113328 -0.0868201 0 316.661 316.661 1000.75 
64 1 1 0.0576904 0.0441158 0 0 0 0 0.171349 -0.105366 0 -0.00388476 0.0623581 0 0.171349 -0.105366 0 299.324 299.324 1000.71 
65 1 1 0.0725417 0.0430692 0 0 0 0 0.174688 -0.0946863 0 -0.0229167 0.052542 0 0.174688 -0.0946863 0 297.37 297.37 1000.71 
66 1 1 0.0878051 0.0408514 0 0 0 0 0.18903 -0.126101 0 -0.0584575 -0.100943 0 0.18903 -0.126101 0 280.479 280.479 1000.67 
67 1 1 0.106204 0.0411944 0 0 0 0 0.254827 -0.0708763 0 -0.0026581 0.0968321 0 0.254827 -0.0708763 0 283.531 283.531 1000.67 
68 1 1 0.122958 0.0373101 0 0 0 0 0.255568 -0.0746202 0 -0.0870738 0.0417688 0 0.255568 -0.0746202 0 329.194 329.194 1000.78 
69 1 1 0.142851 0.0431758 0 0 0 0 0.235527 -0.0245661 0 -0.0748467 -0.0496927 0 0.235527 -0.0245661 0 279.056 279.056 1000.66 
70 1 1 0.162646 0.0768789 0 0 0 0 0.0900662 -0.254179 0 -0.418897 -0.272383 0 0.0900662 -0.254179 0 53.926 53.926 1000.13 
71 1 1 0.0099204 0.0553474 0 0 0 0 -0.0271343 -0.186606 0 0.222868 0.134369 0 -0.0271343 -0.186606 0 98.4239 98.4239 1000.23 
72 1 1 0.0246926 0.0529644 0 0 0 0 -0.0226226 -0.101259 0 -0.183197 -0.114682 0 -0.0226226 -0.101259 0 213.675 213.675 1000.51 
73 1 1 0.0393974 0.0514814 0 0 0 0 0.0974695 -0.126721 0 0.0393669 0.178464 0 0.0974695 -0.126721 0 198.242 198.242 1000.47 
74 1 1 0.0538362 0.0508174 0 0 0 0 0.0975151 -0.133855 0 -0.160321 -0.0387432 0 0.0975151 -0.133855 0 211.27 211.27 1000.5 
75 1 1 0.0690687 0.0494576 0 0 0 0 0.164612 -0.12417 0 0.0639198 0.0824691 0 0.164612 -0.12417 0 211.882 211.882 1000.5 
76 1 1 0.0854311 0.0475278 0 0 0 0 0.232505 -0.110829 0 0.041694 0.0306861 0 0.232505 -0.110829 0 192.757 192.757 1000.46 
77 1 1 0.100769 0.0464717 0 0 0 0 0.235692 -0.082409 0 -0.0503141 0.0696507 0 0.235692 -0.082409 0 215.077 215.077 1000.51 
78 1 1 0.121302 0.0447271 0 0 0 0 0.296147 -0.0655911 0 -0.144814 0.0943317 0 0.296147 -0.0655911 0 233.934 233.934 1000.56 
79 1 1 0.14021 0.0511602 0 0 0 0 0.257695 0.0548002 0 -0.334773 0.0903116 0 0.257695 0.0548002 0 261.682 261.682 1000.62 
80 1 1 0.147288 0.0715355 0 0 0 0 -0.00901961 -0.0128065 0 -0.109369 -0.181733 0 -0.00901961 -0.0128065 0 -19.9112 -19.9112 999.953 
81 1 1 0.00927633 0.0675535 0 0 0 0 -0.136643 0.0547626 0 0.184421 -0.285852 0 -0.136643 0.0547626 0 87.2592 87.2592 1000.21 
82 1 1 0.0260906 0.0590816 0 0 0 0 0.0709121 -0.14671 0 -0.210443 0.382842 0 0.0709121 -0.14671 0 218.466 218.466 1000.52 
83 1 1 0.0383778 0.0588517 0 0 0 0 0.0847717 -0.146788 0 0.217109 0.0156204 0 0.0847717 -0.146788 0 64.6715 64.6715 1000.15 
84 1 1 0.0537898 0.0576231 0 0 0 0 0.136996 -0.149228 0 0.0101976 0.0780184 0 0.136996 -0.149228 0 121.381 121.381 1000.29 
85 1 1 0.0681143 0.0564414 0 0 0 0 0.196109 -0.136201 0 0.122905 0.107681 0 0.196109 -0.136201 0 88.907 88.907 1000.21 
86 1 1 0.0832937 0.0544271 0 0 0 0 0.238573 -0.135363 0 0.0582572 0.0555191 0 0.238573 -0.135363 0 100.535 100.535 1000.24 
87 1 1 0.0988597 0.0533106 0 0 0 0 0.289048 -0.0965671 0 0.0558979 0.184804 0 0.289048 -0.0965671 0 110.172 110.172 1000.26 
88 1 1 0.116171 0.050643 0 0 0 0 0.311218 -0.0513286 0 -0.181131 0.162747 0 0.311218 -0.0513286 0 155.256 155.256 1000.37 
89 1 1 0.131995 0.0498868 0 0 0 0 0.229347 -0.0335839 0 -0.321749 0.102571 0 0.229347 -0.0335839 0 221.164 221.164 1000.53 
90 1 1 0.146714 0.0605097 0 0 0 0 0.0842685 -0.0452147 0 -0.162372 0.0699315 0 0.0842685 -0.0452147 0 340.847 340.847 1000.81 
91 1 1 0.00897688 0.0711763 0 0 0 0 0.0561652 -0.145619 0 -0.337357 0.291763 0 0.0561652 -0.145619 0 44.1974 44.1974 1000.11 
92 1 1 0.0208029 0.0676696 0 0 0 0 0.0606947 -0.229515 0 -0.0696571 -0.231882 0 0.0606947 -0.229515 0 7.44755 7.44755 1000.02 
93 1 1 0.0356363 0.0653743 0 0 0 0 0.0329128 -0.153583 0 0.214765 0.0891809 0 0.0329128 -0.153583 0 70.0507 70.0507 1000.17 
94 1 1 0.0507664 0.0638767 0 0 0 0 0.12124 -0.191559 0 -0.0726535 0.207004 0 0.12124 -0.191559 0 102.706 102.706 1000.24 
95 1 1 0.0651387 0.0629008 0 0 0 0 0.177895 -0.179375 0 0.132008 0.0655847 0 0.177895 -0.179375 0 71.1176 71.1176 1000.17 
96 1 1 0.0800071 0.0605687 0 0 0 0 0.23371 -0.173477 0 0.0636981 0.151642 0 0.23371 -0.173477 0 96.4717 96.4717 1000.23 
97 1 1 0.0950795 0.0588076 0 0 0 0 0.290015 -0.135753 0 0.0495043 0.223921 0 0.290015 -0.135753 0 95.9868 95.9868 1000.23 
98 1 1 0.111309 0.0561702 0 0 0 0 0.347888 -0.0760672 0 -0.102687 0.370205 0 0.347888 -0.0760672 0 115.187 115.187 1000.27 
99 1 1 0.125639 0.0575277 0 0 0 0 0.274126 0.0627878 0 -0.257638 0.360688 0 0.274126 0.0627878 0 144.505 144.505 1000.34 
100 1 1 0.135124 0.0653447 0 0 0 0 0.0285481 0.133363 0 -0.477376 0.0449225 0 0.0285481 0.133363 0 102.504 102.504 1000.24 
101 1 1 0.164859 0.0178107 0 0 0 0 0.289676 0.0135335 0 -0.14487 -0.0156411 0 0.289676 0.0135335 0 609.079 609.079 1001.44 
102 1 1 0.165816 0.00898841 0 0 0 0 0.242441 0.0212344 0 0.00626135 -0.137683 0 0.242441 0.0212344 0 670.449 670.449 1001.59 
103 1 1 0.175365 0.0142716 0 0 0 0 0.252858 0.00664874 0 -0.130659 0.121712 0 0.252858 0.00664874 0 648.81 648.81 1001.54 
104 1 1 0.180209 0.00847764 0 0 0 0 0.255447 -0.0192319 0 -0.0159921 -0.104455 0 0.255447 -0.0192319 0 701.106 701.106 1001.66 
105 1 1 0.188746 0.0171151 0 0 0 0 0.22724 0.0254036 0 -0.105632 -0.054047 0 0.22724 0.0254036 0 604.035 604.035 1001.43 
106 1 1 0.192618 0.00851882 0 0 0 0 0.236226 -0.000477495 0 -0.00400526 0.0573826 0 0.236226 -0.000477495 0 690.706 690.706 1001.64 
107 1 1 0.200494 0.0154558 0 0 0 0 0.212879 0.0737997 0 0.106525 -0.0744344 0 0.212879 0.0737997 0 620.48 620.48 1001.47 
108 1 1 0.20591 0.00869116 0 0 0 0 0.177606 -0.00223839 0 0.0948139 0.218073 0 0.177606 -0.00223839 0 684.392 684.392 1001.62 
109 1 1 0.214944 0.0116222 0 0 0 0 0.164876 0.0192867 0 -0.102501 0.0315568 0 0.164876 0.0192867 0 617.247 617.247 1001.46 
110 1 1 0.222296 0.0101045 0 0 0 0 0.171292 -0.0354462 0 -0.0602467 -0.046523 0 0.171292 -0.0354462 0 639.153 639.153 1001.51 
111 1 1 0.23065 0.0110436 0 0 0 0 0.180202 0.000887593 0 -0.0775627 -0.0769601 0 0.180202 0.000887593 0 664.293 664.293 1001.57 
112 1 1 0.238288 0.0107082 0 0 0 0 0.189571 -0.00112814 0 0.0179392 -0.122677 0 0.189571 -0.00112814 0 690.91 690.91 1001.64 
113 1 1 0.246284 0.0106929 0 0 0 0 0.188681 0.0199685 0 0.0459784 0.0107678 0 0.188681 0.0199685 0 698.983 698.983 1001.66 
114 1 1 0.254065 0.0104575 0 0 0 0 0.17577 0.0159812 0 0.13174 0.0705438 0 0.17577 0.0159812 0 688.718 688.718 1001.63 
115 1 1 0.262195 0.0103028 0 0 0 0 0.163086 0.0109931 0 0.117439 0.0874128 0 0.163086 0.0109931 0 668.143 668.143 1001.58 
116 1 1 0.270374 0.0101714 0 0 0 0 0.145428 0.00591427 0 0.115253 0.0578775 0 0.145428 0.00591427 0 645.628 645.628 1001.53 
117 1 1 0.278789 0.0101021 0 0 0 0 0.131702 0.0038857 0 0.124825 0.024634 0 0.131702 0.0038857 0 623.742 623.742 1001.48 
118 1 1 0.287365 0.0100251 0 0 0 0 0.11474 0.00399352 0 0.119896 -0.000960861 0 0.11474 0.00399352 0 608.432 608.432 1001.44 
119 1 1 0.296133 0.00994168 0 0 0 0 0.0991769 0.00511818 0 0.121651 -0.0035653 0 0.0991769 0.00511818 0 596.506 596.506 1001.41 
120 1 1 0.30509 0.00985404 0 0 0 0 0.0842839 0.00535381 0 0.103974 -0.0059308 0 0.0842839 0.00535381 0 588.53 588.53 1001.4 
121 1 1 0.314209 0.00976848 0 0 0 0 0.0715241 0.00520801 0 0.0883913 -0.0048357 0 0.0715241 0.00520801 0 581.293 581.293 1001.38 
122 1 1 0.32347 0.0096908 0 0 0 0 0.0609387 0.00465433 0 0.0726622 -0.00320003 0 0.0609387 0.00465433 0 573.958 573.958 1001.36 
123 1 1 0.332843 0.00962325 0 0 0 0 0.0519413 0.00389694 0 0.0635565 -0.00209665 0 0.0519413 0.00389694 0 566.527 566.527 1001.34 
124 1 1 0.342317 0.00956514 0 0 0 0 0.0441258 0.00310448 0 0.0562858 -0.00117201 0 0.0441258 0.00310448 0 559.06 559.06 1001.33 
125 1 1 0.351872 0.00951701 0 0 0 0 0.0370944 0.00232338 0 0.0508883 -0.000647805 0 0.0370944 0.00232338 0 551.497 551.497 1001.31 
126 1 1 0.361504 0.00947647 0 0 0 0 0.0310466 0.00162266 0 0.0439956 -0.000338223 0 0.0310466 0.00162266 0 544.164 544.164 1001.29 
127 1 1 0.371196 0.00944341 0 0 0 0 0.0256656 0.00103834 0 0.0398003 -0.00022969 0 0.0256656 0.00103834 0 537.473 537.473 1001.27 
128 1 1 0.380948 0.00941395 0 0 0 0 0.0212217 0.000437183 0 0.0331663 -0.000278906 0 0.0212217 0.000437183 0 531.61 531.61 1001.26 
129 1 1 0.390744 0.00939223 0 0 0 0 0.0173002 0.000115607 0 0.0298729 -0.000514054 0 0.0173002 0.000115607 0 526.559 526.559 1001.25 
130 1 1 0.400588 0.00936795 0 0 0 0 0.0143 -0.000393817 0 0.0236056 -0.000190785 0 0.0143 -0.000393817 0 522.407 522.407 1001.24 
131 1 1 0.410471 0.00934557 0 0 0 0 0.0116225 -0.000666002 0 0.021331 -0.000920206 0 0.0116225 -0.000666002 0 518.97 518.97 1001.23 
132 1 1 0.420382 0.0093495 0 0 0 0 0.00966464 -0.000704916 0 0.0157224 -0.000504122 0 0.00966464 -0.000704916 0 516.034 516.034 1001.22 
133 1 1 0.430346 0.00926823 0 0 0 0 0.00787205 -0.00129649 0 0.0138196 -0.000477317 0 0.00787205 -0.00129649 0 514.503 514.503 1001.22 
134 1 1 0.440313 0.00937844 0 0 0 0 0.00644072 -0.000722403 0 0.00901583 -0.00159874 0 0.00644072 -0.000722403 0 511.533 511.533 1001.21 
135 1 1 0.450322 0.00917692 0 0 0 0 0.0051922 -0.00153999 0 0.00801015 -0.00119426 0 0.0051922 -0.00153999 0 512.04 512.04 1001.21 
136 1 1 0.460347 0.00939036 0 0 0 0 0.00341946 -0.00033369 0 0.00438909 -0.00143124 0 0.00341946 -0.00033369 0 508.147 508.147 1001.21 
137 1 1 0.470461 0.00905967 0 0 0 0 0.00325432 -0.00331905 0 0.00451125 -0.00385741 0 0.00325432 -0.00331905 0 511.047 511.047 1001.21 
138 1 1 0.480394 0.00950736 0 0 0 0 0.00260043 0.000309587 0 0.00396362 -0.00227516 0 0.00260043 0.000309587 0 503.287 503.287 1001.19 
139 1 1 0.49089 0.00837205 0 0 0 0 0.00171978 -0.00413983 0 -0.000589632 -0.00240801 0 0.00171978 -0.00413983 0 502.014 502.014 1001.19 
140 1 1 0.168236 0.033815 0 0 0 0 0.315226 0.0837439 0 -0.0558647 0.0625139 0 0.315226 0.0837439 0 479.932 479.932 1001.14 
141 1 1 0.171071 0.025417 0 0 0 0 0.26807 0.0391697 0 -0.107508 -0.176339 0 0.26807 0.0391697 0 520.286 520.286 1001.23 
142 1 1 0.178995 0.0321753 0 0 0 0 0.320176 -0.00526502 0 -0.0342569 -0.0267839 0 0.320176 -0.00526502 0 448.403 448.403 1001.06 
143 1 1 0.182418 0.0230301 0 0 0 0 0.246973 -3.28309e-06 0 -0.0313917 -0.0317475 0 0.246973 -3.28309e-06 0 582.959 582.959 1001.38 
144 1 1 0.191069 0.0333364 0 0 0 0 0.331163 0.028729 0 -0.0382974 -0.344869 0 0.331163 0.028729 0 482.49 482.49 1001.14 
145 1 1 0.194904 0.0247055 0 0 0 0 0.253209 0.0388423 0 0.0389739 0.00411341 0 0.253209 0.0388423 0 527.977 527.977 1001.25 
146 1 1 0.2035 0.0290052 0 0 0 0 0.314813 0.104206 0 0.137759 0.00102511 0 0.314813 0.104206 0 470.684 470.684 1001.12 
147 1 1 0.208633 0.0225294 0 0 0 0 0.206557 -0.0160379 0 0.0656751 0.0685929 0 0.206557 -0.0160379 0 574.283 574.283 1001.36 
148 1 1 0.21606 0.0238903 0 0 0 0 0.234275 0.0558226 0 0.15034 0.311033 0 0.234275 0.0558226 0 528.989 528.989 1001.25 
149 1 1 0.223436 0.0231912 0 0 0 0 0.193068 -0.0205354 0 0.125715 0.0937512 0 0.193068 -0.0205354 0 522.509 522.509 1001.24 
150 1 1 0.230966 0.0230947 0 0 0 0 0.178228 -0.0219357 0 0.0502859 0.0869132 0 0.178228 -0.0219357 0 501.361 501.361 1001.19 
151 1 1 0.238962 0.0233961 0 0 0 0 0.169522 -0.0225707 0 -0.0499997 -0.125877 0 0.169522 -0.0225707 0 491.487 491.487 1001.17 
152 1 1 0.24689 0.0235331 0 0 0 0 0.172197 -0.00713184 0 -0.0656558 -0.21455 0 0.172197 -0.00713184 0 511.669 511.669 1001.21 
153 1 1 0.254854 0.0233203 0 0 0 0 0.176369 0.0130089 0 -0.0126823 -0.189558 0 0.176369 0.0130089 0 540.073 540.073 1001.28 
154 1 1 0.262891 0.0231029 0 0 0 0 0.174062 0.0300827 0 0.0382729 -0.127125 0 0.174062 0.0300827 0 554.457 554.457 1001.31 
155 1 1 0.271011 0.0226493 0 0 0 0 0.163051 0.0362671 0 0.0922325 -0.0638507 0 0.163051 0.0362671 0 556.816 556.816 1001.32 
156 1 1 0.279314 0.0222013 0 0 0 0 0.147307 0.0388301 0 0.127569 -0.0109166 0 0.147307 0.0388301 0 545.991 545.991 1001.29 
157 1 1 0.287814 0.0217354 0 0 0 0 0.129628 0.0364721 0 0.139533 0.0311057 0 0.129628 0.0364721 0 529.385 529.385 1001.26 
158 1 1 0.296521 0.0213172 0 0 0 0 0.111951 0.031454 0 0.134638 0.0559991 0 0.111951 0.031454 0 511.716 511.716 1001.21 
159 1 1 0.305412 0.0209617 0 0 0 0 0.0956911 0.0249797 0 0.121554 0.0606776 0 0.0956911 0.0249797 0 495.263 495.263 1001.18 
160 1 1 0.314472 0.020677 0 0 0 0 0.0813596 0.0190116 0 0.106347 0.0508921 0 0.0813596 0.0190116 0 480.698 480.698 1001.14 
161 1 1 0.323677 0.0204538 0 0 0 0 0.0689418 0.0143445 0 0.0910159 0.0348359 0 0.0689418 0.0143445 0 468.632 468.632 1001.11 
162 1 1 0.333007 0.0202771 0 0 0 0 0.0582188 0.0112253 0 0.0786897 0.0200962 0 0.0582188 0.0112253 0 458.698 458.698 1001.09 
163 1 1 0.342444 0.0201324 0 0 0 0 0.0490938 0.00923133 0 0.0676105 0.0101894 0 0.0490938 0.00923133 0 450.508 450.508 1001.07 
164 1 1 0.35197 0.0200105 0 0 0 0 0.0411055 0.00782926 0 0.0602216 0.00536172 0 0.0411055 0.00782926 0 443.584 443.584 1001.05 
165 1 1 0.361574 0.0199047 0 0 0 0 0.0341088 0.00661145 0 0.0524768 0.00344808 0 0.0341088 0.00661145 0 437.505 437.505 1001.04 
166 1 1 0.371242 0.0198153 0 0 0 0 0.0279733 0.00546116 0 0.0464278 0.00220133 0 0.0279733 0.00546116 0 432.187 432.187 1001.03 
167 1 1 0.380966 0.0197361 0 0 0 0 0.0225765 0.00439445 0 0.038997 0.00184529 0 0.0225765 0.00439445 0 427.457 427.457 1001.01 
168 1 1 0.390734 0.0196707 0 0 0 0 0.0180622 0.00332377 0 0.0335711 0.00091344 0 0.0180622 0.00332377 0 423.502 423.502 1001.01 
169 1 1 0.400544 0.0196115 0 0 0 0 0.0140542 0.00237167 0 0.0271236 7.84216e-05 0 0.0140542 0.00237167 0 420.04 420.04 1001 
170 1 1 0.410367 0.0195644 0 0 0 0 0.0108191 0.0016795 0 0.0230118 -0.00068079 0 0.0108191 0.0016795 0 417.308 417.308 1000.99 
171 1 1 0.420245 0.0195164 0 0 0 0 0.00805214 0.000760343 0 0.0178604 -0.00153452 0 0.00805214 0.000760343 0 414.91 414.91 1000.98 
172 1 1 0.430086 0.0194804 0 0 0 0 0.00596772 0.000452366 0 0.0158879 -0.00279202 0 0.00596772 0.000452366 0 413.09 413.09 1000.98 
173 1 1 0.440001 0.0194392 0 0 0 0 0.00397172 -6.26038e-05 0 0.0119475 -0.00297222 0 0.00397172 -6.26038e-05 0 411.36 411.36 1000.98 
174 1 1 0.449946 0.0193983 0 0 0 0 0.00337934 -0.00102023 0 0.00958331 -0.0046389 0 0.00337934 -0.00102023 0 410.31 410.31 1000.97 
175 1 1 0.459822 0.0193631 0 0 0 0 0.00260925 0.00054301 0 0.00839161 -0.00398692 0 0.00260925 0.00054301 0 409.122 409.122 1000.97 
176 1 1 0.469907 0.0191938 0 0 0 0 0.00128461 -0.00314516 0 0.00514162 -0.00469338 0 0.00128461 -0.00314516 0 411.161 411.161 1000.98 
177 1 1 0.480207 0.0192695 0 0 0 0 0.00164682 -0.000760327 0 0.00316194 -0.00767019 0 0.00164682 -0.000760327 0 408.683 408.683 1000.97 
178 1 1 0.489974 0.0187691 0 0 0 0 0.00129329 -0.0028467 0 0.000232405 -0.00620729 0 0.00129329 -0.0028467 0 408.214 408.214 1000.97 
179 1 1 0.166189 0.0469649 0 0 0 0 0.266145 0.0249806 0 -0.00334555 -0.1409 0 0.266145 0.0249806 0 311.306 311.306 1000.74 
180 1 1 0.175167 0.0438607 0 0 0 0 0.305236 0.0354921 0 -0.106953 -0.257302 0 0.305236 0.0354921 0 375.732 375.732 1000.89 
181 1 1 0.185563 0.0514561 0 0 0 0 0.291826 0.00655482 0 -0.00578701 -0.129247 0 0.291826 0.00655482 0 291.698 291.698 1000.69 
182 1 1 0.184768 0.0393656 0 0 0 0 0.277301 0.0430348 0 -0.0586086 0.0896831 0 0.277301 0.0430348 0 402.51 402.51 1000.96 
183 1 1 0.193704 0.0503136 0 0 0 0 0.346735 0.115139 0 0.0520806 -0.208329 0 0.346735 0.115139 0 274.308 274.308 1000.65 
184 1 1 0.197246 0.0409988 0 0 0 0 0.219871 0.0288121 0 -0.227656 0.0138264 0 0.219871 0.0288121 0 412.617 412.617 1000.98 
185 1 1 0.204223 0.0412725 0 0 0 0 0.280292 0.0915967 0 -0.0963138 0.0255523 0 0.280292 0.0915967 0 426.52 426.52 1001.01 
186 1 1 0.211607 0.0396509 0 0 0 0 0.310196 0.0352544 0 -0.0875235 -0.204416 0 0.310196 0.0352544 0 455.608 455.608 1001.08 
187 1 1 0.217866 0.0381295 0 0 0 0 0.303198 0.0157157 0 0.0192358 -0.18881 0 0.303198 0.0157157 0 460.579 460.579 1001.09 
188 1 1 0.223986 0.0377656 0 0 0 0 0.309537 0.0512967 0 0.179827 0.0715814 0 0.309537 0.0512967 0 445.807 445.807 1001.06 
189 1 1 0.230776 0.0371738 0 0 0 0 0.290531 0.0553485 0 0.225282 0.1035 0 0.290531 0.0553485 0 450.503 450.503 1001.07 
190 1 1 0.237442 0.0363207 0 0 0 0 0.246338 0.0329145 0 0.364067 0.0266753 0 0.246338 0.0329145 0 444.037 444.037 1001.05 
191 1 1 0.244809 0.0357822 0 0 0 0 0.206027 0.036047 0 0.402513 0.0720524 0 0.206027 0.036047 0 394.435 394.435 1000.94 
192 1 1 0.252838 0.0352708 0 0 0 0 0.154375 0.0309358 0 0.277866 0.031717 0 0.154375 0.0309358 0 334.588 334.588 1000.79 
193 1 1 0.261218 0.0347582 0 0 0 0 0.121895 0.0306297 0 0.145983 -0.0146471 0 0.121895 0.0306297 0 291.671 291.671 1000.69 
194 1 1 0.269952 0.0342781 0 0 0 0 0.109896 0.0332159 0 0.0554939 -0.0525732 0 0.109896 0.0332159 0 284.239 284.239 1000.68 
195 1 1 0.278782 0.0337775 0 0 0 0 0.105401 0.0365823 0 0.0212076 -0.062009 0 0.105401 0.0365823 0 300.889 300.889 1000.71 
196 1 1 0.287661 0.0332686 0 0 0 0 0.103104 0.039047 0 0.0246034 -0.0554832 0 0.103104 0.039047 0 322.56 322.56 1000.77 
197 1 1 0.296596 0.032768 0 0 0 0 0.0993121 0.0394058 0 0.038124 -0.0456509 0 0.0993121 0.0394058 0 339.838 339.838 1000.81 
198 1 1 0.305592 0.0322873 0 0 0 0 0.0934348 0.03815 0 0.0548638 -0.0334149 0 0.0934348 0.03815 0 349.915 349.915 1000.83 
199 1 1 0.314674 0.0318451 0 0 0 0 0.0854416 0.0355386 0 0.0696131 -0.0209402 0 0.0854416 0.0355386 0 353.005 353.005 1000.84 
200 1 1 0.32385 0.0314466 0 0 0 0 0.0759265 0.0319755 0 0.0808269 -0.00987316 0 0.0759265 0.0319755 0 350.054 350.054 1000.83 
201 1 1 0.333132 0.031098 0 0 0 0 0.0655633 0.0279679 0 0.0850461 -0.00156494 0 0.0655633 0.0279679 0 343.06 343.06 1000.81 
202 1 1 0.342518 0.0307984 0 0 0 0 0.0552209 0.0238927 0 0.0825017 0.00334152 0 0.0552209 0.0238927 0 334.139 334.139 1000.79 
203 1 1 0.352004 0.0305443 0 0 0 0 0.0455886 0.0200174 0 0.0752876 0.00563434 0 0.0455886 0.0200174 0 325.113 325.113 1000.77 
204 1 1 0.361578 0.0303328 0 0 0 0 0.0370108 0.016514 0 0.0655918 0.00601881 0 0.0370108 0.016514 0 316.873 316.873 1000.75 
205 1 1 0.371229 0.0301545 0 0 0 0 0.0297147 0.0133414 0 0.0554801 0.00545351 0 0.0297147 0.0133414 0 309.943 309.943 1000.74 
206 1 1 0.38094 0.0300116 0 0 0 0 0.0235661 0.0106144 0 0.0459834 0.00387885 0 0.0235661 0.0106144 0 304.193 304.193 1000.72 
207 1 1 0.390708 0.0298864 0 0 0 0 0.0186223 0.00814009 0 0.0377788 0.0022437 0 0.0186223 0.00814009 0 299.667 299.667 1000.71 
208 1 1 0.400513 0.0297924 0 0 0 0 0.014532 0.00625033 0 0.030699 0.000505455 0 0.014532 0.00625033 0 295.875 295.875 1000.7 
209 1 1 0.410367 0.0296998 0 0 0 0 0.011557 0.00414715 0 0.0253673 -0.00146873 0 0.011557 0.00414715 0 293.11 293.11 1000.7 
210 1 1 0.420235 0.0296302 0 0 0 0 0.00899985 0.00323219 0 0.0204955 -0.0021525 0 0.00899985 0.00323219 0 290.763 290.763 1000.69 
211 1 1 0.430166 0.0295588 0 0 0 0 0.00733175 0.00123384 0 0.0165122 -0.00409493 0 0.00733175 0.00123384 0 289.008 289.008 1000.69 
212 1 1 0.440092 0.0294931 0 0 0 0 0.00635099 0.00126389 0 0.0136995 -0.00308573 0 0.00635099 0.00126389 0 288.193 288.193 1000.68 
213 1 1 0.450093 0.0293248 0 0 0 0 0.00486032 -0.00119505 0 0.00970554 -0.00587385 0 0.00486032 -0.00119505 0 288.559 288.559 1000.69 
214 1 1 0.460079 0.0295478 0 0 0 0 0.00432336 0.00111371 0 0.007311 -0.00340618 0 0.00432336 0.00111371 0 284.632 284.632 1000.68 
215 1 1 0.470127 0.0286467 0 0 0 0 0.00417558 -0.00321834 0 0.00524191 -0.00644208 0 0.00417558 -0.00321834 0 296.092 296.092 1000.7 
216 1 1 0.480153 0.0295226 0 0 0 0 0.000751758 0.000531608 0 0.00176584 -0.00748721 0 0.000751758 0.000531608 0 284.758 284.758 1000.68 
217 1 1 0.490251 0.0286088 0 0 0 0 8.19416e-05 -0.00356742 0 -0.00377485 -0.00951327 0 8.19416e-05 -0.00356742 0 293.06 293.06 1000.7 
218 1 1 0.17645 0.0526398 0 0 0 0 0.328356 0.0259114 0 -0.0799674 0.0580691 0 0.328356 0.0259114 0 267.106 267.106 1000.63 
219 1 1 0.168271 0.0673974 0 0 0 0 0.182011 -0.0541446 0 -0.0237883 -0.0122094 0 0.182011 -0.0541446 0 227.316 227.316 1000.54 
220 1 1 0.179939 0.061743 0 0 0 0 0.300021 0.00314002 0 -0.0173121 -0.115718 0 0.300021 0.00314002 0 159.168 159.168 1000.38 
221 1 1 0.18778 0.0682349 0 0 0 0 0.265405 0.094624 0 -0.0194503 -0.259822 0 0.265405 0.094624 0 167.893 167.893 1000.4 
222 1 1 0.193774 0.0599961 0 0 0 0 0.258168 0.0799606 0 -0.107193 -0.0485004 0 0.258168 0.0799606 0 197.801 197.801 1000.47 
223 1 1 0.201755 0.0593748 0 0 0 0 0.328524 0.063205 0 0.075222 -0.0963851 0 0.328524 0.063205 0 229.77 229.77 1000.55 
224 1 1 0.208519 0.053266 0 0 0 0 0.307517 -0.0808345 0 -0.0371268 -0.113856 0 0.307517 -0.0808345 0 308.45 308.45 1000.73 
225 1 1 0.214948 0.0544342 0 0 0 0 0.334537 0.0153518 0 0.110527 -0.0628392 0 0.334537 0.0153518 0 254.94 254.94 1000.61 
226 1 1 0.221744 0.0560374 0 0 0 0 0.327734 0.113992 0 -0.0649609 0.00067422 0 0.327734 0.113992 0 237.713 237.713 1000.57 
227 1 1 0.227789 0.0535043 0 0 0 0 0.304992 0.056159 0 -0.0425267 -0.313114 0 0.304992 0.056159 0 285.138 285.138 1000.68 
228 1 1 0.234314 0.0521647 0 0 0 0 0.310426 0.0864601 0 0.0166947 -0.13307 0 0.310426 0.0864601 0 293.897 293.897 1000.7 
229 1 1 0.241035 0.0509802 0 0 0 0 0.30639 0.112423 0 0.0714277 0.0186663 0 0.30639 0.112423 0 300.856 300.856 1000.71 
230 1 1 0.24781 0.0494897 0 0 0 0 0.288351 0.106695 0 0.127533 0.0409662 0 0.288351 0.106695 0 319.92 319.92 1000.76 
231 1 1 0.254796 0.0481617 0 0 0 0 0.264683 0.0998731 0 0.218162 0.0643972 0 0.264683 0.0998731 0 329.613 329.613 1000.78 
232 1 1 0.262138 0.0469519 0 0 0 0 0.237004 0.0933642 0 0.282758 0.0804272 0 0.237004 0.0933642 0 326.983 326.983 1000.78 
233 1 1 0.26985 0.0458415 0 0 0 0 0.19832 0.087764 0 0.311631 0.0991997 0 0.19832 0.087764 0 308.585 308.585 1000.73 
234 1 1 0.27794 0.044836 0 0 0 0 0.159169 0.0801917 0 0.303574 0.119673 0 0.159169 0.0801917 0 272.352 272.352 1000.65 
235 1 1 0.286455 0.0439243 0 0 0 0 0.124269 0.0696592 0 0.247253 0.132999 0 0.124269 0.0696592 0 233.245 233.245 1000.55 
236 1 1 0.295289 0.0431456 0 0 0 0 0.0968225 0.0574307 0 0.175499 0.125443 0 0.0968225 0.0574307 0 202.493 202.493 1000.48 