ITEM: TIMESTEP
92000
ITEM: NUMBER OF ATOMS
754
ITEM: BOX BOUNDS ff ff pp
-0.021 0.521
-0.021 0.5
-0.001 0.001
ITEM: ATOMS id type type x y z ix iy iz vx vy vz fx fy fz vx vy vz p p rho 
1 1 1 0.0072902 0.00650467 0 0 0 0 -0.00631294 -0.00176593 0 0.021826 0.00521639 0 -0.00631294 -0.00176593 0 473.207 473.207 1001.12 
2 1 1 0.0203025 0.00747629 0 0 0 0 0.014957 -0.00393608 0 0.0451779 -0.0393367 0 0.014957 -0.00393608 0 499.731 499.731 1001.19 
3 1 1 0.0497837 0.00657939 0 0 0 0 -0.00397173 0.00734215 0 0.0720967 0.0251554 0 -0.00397173 0.00734215 0 516.94 516.94 1001.23 
4 1 1 0.068106 0.00719079 0 0 0 0 -0.0219044 0.000124537 0 0.0078392 -0.0235673 0 -0.0219044 0.000124537 0 510.21 510.21 1001.21 
5 1 1 0.0884504 0.00729395 0 0 0 0 -0.0308841 -0.00244164 0 -0.00304849 -0.0131756 0 -0.0308841 -0.00244164 0 512.351 512.351 1001.22 
6 1 1 0.100764 0.00715722 0 0 0 0 -0.0541033 0.0125484 0 -0.0155097 -0.0217969 0 -0.0541033 0.0125484 0 531.414 531.414 1001.26 
7 1 1 0.13822 0.00747772 0 0 0 0 -0.0573094 0.00382252 0 -0.0702816 -0.0116615 0 -0.0573094 0.00382252 0 543.291 543.291 1001.29 
8 1 1 0.145399 0.0136857 0 0 0 0 -0.0651769 0.00819226 0 -0.11106 -0.0230235 0 -0.0651769 0.00819226 0 532.714 532.714 1001.26 
9 1 1 0.172211 0.00703677 0 0 0 0 -0.108053 -0.0141775 0 -0.0784451 0.0740038 0 -0.108053 -0.0141775 0 576.327 576.327 1001.37 
10 1 1 0.193362 0.00707738 0 0 0 0 -0.136778 -0.00293012 0 -0.0919013 0.046002 0 -0.136778 -0.00293012 0 577.411 577.411 1001.37 
11 1 1 0.0190613 0.0221729 0 0 0 0 -0.01498 0.0126202 0 0.0266856 -0.0446263 0 -0.01498 0.0126202 0 349.278 349.278 1000.83 
12 1 1 0.0341368 0.00644721 0 0 0 0 0.0168194 -0.0096243 0 0.0404309 -0.00830965 0 0.0168194 -0.0096243 0 478.993 478.993 1001.14 
13 1 1 0.0598445 0.010927 0 0 0 0 -0.0250917 0.0112816 0 -0.0658196 0.0353938 0 -0.0250917 0.0112816 0 480.138 480.138 1001.14 
14 1 1 0.0781915 0.00925741 0 0 0 0 -0.0434221 0.00995614 0 0.030443 0.0327698 0 -0.0434221 0.00995614 0 491.644 491.644 1001.17 
15 1 1 0.100229 0.0154519 0 0 0 0 -0.0566205 0.00974904 0 -0.0793377 0.134612 0 -0.0566205 0.00974904 0 478.874 478.874 1001.14 
16 1 1 0.126573 0.00780214 0 0 0 0 -0.0650766 -0.00840009 0 -0.104332 0.0240366 0 -0.0650766 -0.00840009 0 553.905 553.905 1001.31 
17 1 1 0.137622 0.0197628 0 0 0 0 -0.0542327 0.0141811 0 -0.0915155 0.0819182 0 -0.0542327 0.0141811 0 496.171 496.171 1001.18 
18 1 1 0.162443 0.0103709 0 0 0 0 -0.0823514 0.0189731 0 -0.0703495 -0.0860539 0 -0.0823514 0.0189731 0 545.615 545.615 1001.29 
19 1 1 0.182776 0.00915112 0 0 0 0 -0.106878 0.00977381 0 -0.0639403 -0.0991779 0 -0.106878 0.00977381 0 552.451 552.451 1001.31 
20 1 1 0.186309 0.0183191 0 0 0 0 -0.147673 0.0374153 0 -0.0440426 0.00312145 0 -0.147673 0.0374153 0 559.566 559.566 1001.33 
21 1 1 0.0298772 0.024706 0 0 0 0 0.00445516 -0.000814379 0 0.00650395 0.0604207 0 0.00445516 -0.000814379 0 318.049 318.049 1000.76 
22 1 1 0.0269903 0.0136911 0 0 0 0 0.0245052 0.0190245 0 -0.0164488 0.079392 0 0.0245052 0.0190245 0 447.063 447.063 1001.06 
23 1 1 0.0429995 0.0130723 0 0 0 0 0.00591999 0.00953704 0 -0.0288126 0.00715023 0 0.00591999 0.00953704 0 451.155 451.155 1001.07 
24 1 1 0.0789007 0.0320242 0 0 0 0 -0.0521099 0.032792 0 -0.0649431 0.0967953 0 -0.0521099 0.032792 0 281.983 281.983 1000.67 
25 1 1 0.0830543 0.0176964 0 0 0 0 -0.055167 -0.00447633 0 -0.0993905 0.0431235 0 -0.055167 -0.00447633 0 426.786 426.786 1001.01 
26 1 1 0.114613 0.00694998 0 0 0 0 -0.0791525 -0.00179316 0 -0.0686292 0.0339179 0 -0.0791525 -0.00179316 0 537.317 537.317 1001.27 
27 1 1 0.129542 0.0167988 0 0 0 0 -0.0668792 -0.0104922 0 -0.0936592 -0.052235 0 -0.0668792 -0.0104922 0 494.376 494.376 1001.17 
28 1 1 0.1526 0.00668103 0 0 0 0 -0.0765944 -0.007091 0 -0.070468 0.0405703 0 -0.0765944 -0.007091 0 570.497 570.497 1001.35 
29 1 1 0.177018 0.0181441 0 0 0 0 -0.134128 0.0129286 0 -0.0623041 0.0189186 0 -0.134128 0.0129286 0 566.357 566.357 1001.34 
30 1 1 0.188421 0.0316373 0 0 0 0 -0.0901675 0.0139934 0 0.0174736 -0.0931135 0 -0.0901675 0.0139934 0 402.467 402.467 1000.96 
31 1 1 0.0141254 0.0146641 0 0 0 0 0.0500006 -0.0337792 0 0.0154306 0.0558864 0 0.0500006 -0.0337792 0 424.624 424.624 1001.01 
32 1 1 0.0362384 0.0185696 0 0 0 0 -0.0233646 0.0203236 0 0.0183505 -0.0424321 0 -0.0233646 0.0203236 0 421.21 421.21 1001 
33 1 1 0.0742999 0.0227801 0 0 0 0 -0.0207334 0.0532239 0 0.00604369 0.0201616 0 -0.0207334 0.0532239 0 363.911 363.911 1000.86 
34 1 1 0.0916606 0.0181318 0 0 0 0 -0.0621293 0.0106464 0 -0.0612265 0.0308077 0 -0.0621293 0.0106464 0 432.27 432.27 1001.03 
35 1 1 0.119901 0.0178327 0 0 0 0 -0.0500959 -0.0153075 0 -0.114935 -0.0118538 0 -0.0500959 -0.0153075 0 469.465 469.465 1001.11 
36 1 1 0.136707 0.0299525 0 0 0 0 -0.076311 -0.0352633 0 -0.18567 -0.0819158 0 -0.076311 -0.0352633 0 352.51 352.51 1000.84 
37 1 1 0.156436 0.0180321 0 0 0 0 -0.0920059 0.0131804 0 -0.115277 0.0198271 0 -0.0920059 0.0131804 0 504.119 504.119 1001.2 
38 1 1 0.168022 0.0182031 0 0 0 0 -0.106486 0.0304669 0 -0.0753795 0.00627888 0 -0.106486 0.0304669 0 536.728 536.728 1001.27 
39 1 1 0.180389 0.0304983 0 0 0 0 -0.12605 0.0365935 0 -0.0152547 -0.0601038 0 -0.12605 0.0365935 0 416.154 416.154 1000.99 
40 1 1 0.164843 0.0489566 0 0 0 0 -0.0923555 0.0666167 0 -0.109581 -0.116855 0 -0.0923555 0.0666167 0 234.17 234.17 1000.56 
41 1 1 0.00797684 0.0214301 0 0 0 0 -0.00936058 -0.0376453 0 -0.0060579 -0.112386 0 -0.00936058 -0.0376453 0 368.204 368.204 1000.87 
42 1 1 0.0368565 0.0406186 0 0 0 0 -0.01242 -0.000980845 0 0.120087 0.0300944 0 -0.01242 -0.000980845 0 225.85 225.85 1000.54 
43 1 1 0.0521524 0.0183953 0 0 0 0 -0.031028 0.0085801 0 -0.0364181 0.0673076 0 -0.031028 0.0085801 0 409.924 409.924 1000.97 
44 1 1 0.0720146 0.0396844 0 0 0 0 -0.0338537 0.0837102 0 0.0074748 -0.0207751 0 -0.0338537 0.0837102 0 191.772 191.772 1000.46 
45 1 1 0.100621 0.0260083 0 0 0 0 -0.0541303 -0.00455165 0 -0.0650274 0.0233145 0 -0.0541303 -0.00455165 0 348.51 348.51 1000.83 
46 1 1 0.126243 0.0262097 0 0 0 0 -0.060819 0.00183299 0 -0.0855653 0.0481705 0 -0.060819 0.00183299 0 365.043 365.043 1000.87 
47 1 1 0.148559 0.0225801 0 0 0 0 -0.0689324 0.0253448 0 -0.0447893 0.0229071 0 -0.0689324 0.0253448 0 443.476 443.476 1001.05 
48 1 1 0.172642 0.0288454 0 0 0 0 -0.103818 0.0219055 0 -0.115869 -0.0057758 0 -0.103818 0.0219055 0 435.97 435.97 1001.03 
49 1 1 0.171532 0.0408021 0 0 0 0 -0.0999438 0.0641645 0 -0.00954841 -0.0420857 0 -0.0999438 0.0641645 0 291.85 291.85 1000.69 
50 1 1 0.158124 0.0572935 0 0 0 0 -0.0923032 0.0502381 0 -0.112104 0.0519884 0 -0.0923032 0.0502381 0 236.609 236.609 1000.56 
51 1 1 0.0100631 0.0313623 0 0 0 0 0.048596 -0.0675315 0 0.0383658 0.0429189 0 0.048596 -0.0675315 0 270.743 270.743 1000.64 
52 1 1 0.0445104 0.0251638 0 0 0 0 -0.00802708 0.0192347 0 0.0285461 0.0231894 0 -0.00802708 0.0192347 0 345.277 345.277 1000.82 
53 1 1 0.0594788 0.0219665 0 0 0 0 0.0115746 0.0140564 0 0.0329704 0.0495184 0 0.0115746 0.0140564 0 391.721 391.721 1000.93 
54 1 1 0.0878654 0.0278958 0 0 0 0 -0.0314744 0.0127159 0 -0.0393885 0.0228412 0 -0.0314744 0.0127159 0 332.361 332.361 1000.79 
55 1 1 0.109642 0.0355121 0 0 0 0 -0.0840215 -0.0252099 0 -0.103755 0.00780693 0 -0.0840215 -0.0252099 0 285.074 285.074 1000.68 
56 1 1 0.125891 0.0364936 0 0 0 0 -0.0781335 0.0406626 0 -0.187288 0.0281326 0 -0.0781335 0.0406626 0 321.726 321.726 1000.76 
57 1 1 0.145227 0.0330532 0 0 0 0 -0.0559027 0.0583793 0 -0.183672 0.0670169 0 -0.0559027 0.0583793 0 377.429 377.429 1000.9 
58 1 1 0.14819 0.0466593 0 0 0 0 -0.111393 0.034558 0 -0.176685 -0.17509 0 -0.111393 0.034558 0 226.111 226.111 1000.54 
59 1 1 0.16373 0.0360054 0 0 0 0 -0.0718809 0.0477962 0 -0.02974 0.017564 0 -0.0718809 0.0477962 0 341.381 341.381 1000.81 
60 1 1 0.173728 0.0530353 0 0 0 0 -0.107089 0.0936163 0 -0.103092 -0.097628 0 -0.107089 0.0936163 0 237.872 237.872 1000.57 
61 1 1 0.0582953 0.0318431 0 0 0 0 -0.00161917 -0.00557548 0 -0.0655141 0.0834127 0 -0.00161917 -0.00557548 0 309.621 309.621 1000.74 
62 1 1 0.0221674 0.0302991 0 0 0 0 0.000573606 0.0347807 0 0.0298807 0.0904173 0 0.000573606 0.0347807 0 295.629 295.629 1000.7 
63 1 1 0.0694943 0.0181849 0 0 0 0 -0.0309509 -0.00132126 0 -0.0586409 -0.0443676 0 -0.0309509 -0.00132126 0 414.698 414.698 1000.98 
64 1 1 0.0597766 0.0426803 0 0 0 0 -0.0426983 0.0155515 0 0.0442247 0.0347228 0 -0.0426983 0.0155515 0 159.361 159.361 1000.38 
65 1 1 0.0980628 0.0333732 0 0 0 0 -0.044857 0.061138 0 -0.147211 0.16226 0 -0.044857 0.061138 0 299.596 299.596 1000.71 
66 1 1 0.110609 0.0153539 0 0 0 0 -0.0580417 0.0134686 0 -0.112155 -0.00219407 0 -0.0580417 0.0134686 0 478.534 478.534 1001.14 
67 1 1 0.137131 0.0396545 0 0 0 0 -0.051658 -0.0116131 0 -0.0208282 0.0396731 0 -0.051658 -0.0116131 0 253.282 253.282 1000.6 
68 1 1 0.153544 0.0331942 0 0 0 0 -0.0816709 0.063135 0 -0.0623816 -0.0368048 0 -0.0816709 0.063135 0 410.279 410.279 1000.97 
69 1 1 0.161705 0.026443 0 0 0 0 -0.114215 0.0367864 0 -0.12811 -0.0458725 0 -0.114215 0.0367864 0 408.545 408.545 1000.97 
70 1 1 0.153057 0.0655985 0 0 0 0 0.0182835 0.100941 0 -0.043536 -0.0825535 0 0.0182835 0.100941 0 63.2309 63.2309 1000.15 
71 1 1 0.0265265 0.0426027 0 0 0 0 -0.0387795 0.0188691 0 0.0702639 -0.0422086 0 -0.0387795 0.0188691 0 245.968 245.968 1000.58 
72 1 1 0.0356969 0.0510952 0 0 0 0 -0.0685511 0.0152707 0 0.149214 0.0584152 0 -0.0685511 0.0152707 0 114.086 114.086 1000.27 
73 1 1 0.0351113 0.0324903 0 0 0 0 0.021245 0.02807 0 -0.0375119 -0.0305319 0 0.021245 0.02807 0 267.133 267.133 1000.63 
74 1 1 0.0672347 0.0318896 0 0 0 0 -0.0105201 0.0428269 0 -0.0379672 0.0196186 0 -0.0105201 0.0428269 0 292.421 292.421 1000.69 
75 1 1 0.0875689 0.0372226 0 0 0 0 -0.0361115 -0.0204762 0 -0.0164033 0.0630625 0 -0.0361115 -0.0204762 0 239.202 239.202 1000.57 
76 1 1 0.111117 0.0243358 0 0 0 0 -0.0483217 0.0154412 0 -0.0938677 0.0966455 0 -0.0483217 0.0154412 0 420.834 420.834 1001 
77 1 1 0.118256 0.0326697 0 0 0 0 -0.0499588 -0.0032546 0 -0.110329 -0.00890569 0 -0.0499588 -0.0032546 0 311.037 311.037 1000.74 
78 1 1 0.143606 0.0517835 0 0 0 0 -0.0548716 0.106626 0 -0.105742 -0.0608257 0 -0.0548716 0.106626 0 204.189 204.189 1000.49 
79 1 1 0.155688 0.0443178 0 0 0 0 -0.0732416 0.0460012 0 -0.038356 -0.0311636 0 -0.0732416 0.0460012 0 268.484 268.484 1000.64 
80 1 1 0.127138 0.0639102 0 0 0 0 -0.036291 -0.0476195 0 -0.250754 -0.0489277 0 -0.036291 -0.0476195 0 78.5632 78.5632 1000.19 
81 1 1 0.00791202 0.041017 0 0 0 0 -0.0417597 -0.0859915 0 -0.045584 0.0191256 0 -0.0417597 -0.0859915 0 147.66 147.66 1000.35 
82 1 1 0.0177139 0.0387336 0 0 0 0 0.0237739 0.0256222 0 -0.102386 -0.0603977 0 0.0237739 0.0256222 0 188.306 188.306 1000.45 
83 1 1 0.0474295 0.0326729 0 0 0 0 0.0177632 0.0218962 0 -0.0205929 0.0509022 0 0.0177632 0.0218962 0 306.289 306.289 1000.73 
84 1 1 0.0496641 0.0420468 0 0 0 0 -0.0322015 0.0383463 0 0.0384496 0.0863484 0 -0.0322015 0.0383463 0 208.644 208.644 1000.5 
85 1 1 0.0836361 0.0469599 0 0 0 0 -0.111528 0.0743116 0 -0.156555 0.0342391 0 -0.111528 0.0743116 0 221.933 221.933 1000.53 
86 1 1 0.103329 0.042551 0 0 0 0 -0.103226 0.0488312 0 -0.22429 0.161668 0 -0.103226 0.0488312 0 197.456 197.456 1000.47 
87 1 1 0.113225 0.0460136 0 0 0 0 -0.138907 -0.00620461 0 -0.141799 0.095133 0 -0.138907 -0.00620461 0 232.922 232.922 1000.55 
88 1 1 0.122252 0.0486961 0 0 0 0 -0.0740935 -0.0375406 0 -0.152062 -0.0786259 0 -0.0740935 -0.0375406 0 164.464 164.464 1000.39 
89 1 1 0.131359 0.0458465 0 0 0 0 -0.072544 -0.0300876 0 -0.131231 0.00235986 0 -0.072544 -0.0300876 0 224.188 224.188 1000.53 
90 1 1 0.134053 0.0571285 0 0 0 0 -0.0182712 -0.00896447 0 -0.166899 0.0802666 0 -0.0182712 -0.00896447 0 226.161 226.161 1000.54 
91 1 1 0.0274556 0.0598964 0 0 0 0 -0.00258684 0.0347701 0 0.168447 -0.0734151 0 -0.00258684 0.0347701 0 115.787 115.787 1000.28 
92 1 1 0.0103502 0.0555957 0 0 0 0 0.0109412 -0.000192425 0 0.0128277 -0.0194288 0 0.0109412 -0.000192425 0 215.09 215.09 1000.51 
93 1 1 0.0187649 0.0509023 0 0 0 0 -0.0634335 0.0410013 0 0.0963861 -0.174061 0 -0.0634335 0.0410013 0 193.241 193.241 1000.46 
94 1 1 0.0592177 0.0536334 0 0 0 0 -0.0469808 0.0417887 0 -0.0199279 0.0980425 0 -0.0469808 0.0417887 0 117.189 117.189 1000.28 
95 1 1 0.0465479 0.0514337 0 0 0 0 -0.0298439 0.0235021 0 -0.0012978 0.140356 0 -0.0298439 0.0235021 0 110.473 110.473 1000.26 
96 1 1 0.0787606 0.0576837 0 0 0 0 -0.0511716 0.115669 0 0.000152079 0.0363996 0 -0.0511716 0.115669 0 75.2969 75.2969 1000.18 
97 1 1 0.0711475 0.0488789 0 0 0 0 -0.0398563 0.0720904 0 -0.194913 0.137595 0 -0.0398563 0.0720904 0 192.79 192.79 1000.46 
98 1 1 0.0929321 0.0482637 0 0 0 0 -0.163686 0.0437892 0 0.0877582 0.0568776 0 -0.163686 0.0437892 0 227.488 227.488 1000.54 
99 1 1 0.115947 0.0576378 0 0 0 0 -0.0983438 -0.0627569 0 -0.25645 0.0882711 0 -0.0983438 -0.0627569 0 130.673 130.673 1000.31 
100 1 1 0.101069 0.0565165 0 0 0 0 -0.108499 0.017999 0 -0.0200633 0.250439 0 -0.108499 0.017999 0 209.687 209.687 1000.5 
101 1 1 0.193568 0.0206052 0 0 0 0 -0.152067 0.00176757 0 -0.0360831 -0.0179251 0 -0.152067 0.00176757 0 535.93 535.93 1001.27 
102 1 1 0.200463 0.0126571 0 0 0 0 -0.144013 0.0308352 0 -0.0543209 -0.0215211 0 -0.144013 0.0308352 0 552.169 552.169 1001.31 
103 1 1 0.204101 0.0220951 0 0 0 0 -0.155183 0.0446987 0 0.0241075 -0.0829678 0 -0.155183 0.0446987 0 517.252 517.252 1001.23 
104 1 1 0.20872 0.00754601 0 0 0 0 -0.169429 -0.00236687 0 -0.0351255 -0.00539505 0 -0.169429 -0.00236687 0 623.139 623.139 1001.48 
105 1 1 0.212421 0.0160708 0 0 0 0 -0.180529 0.00948449 0 -0.0387097 0.0859091 0 -0.180529 0.00948449 0 560.178 560.178 1001.33 
106 1 1 0.220934 0.00759392 0 0 0 0 -0.165287 -0.00322274 0 -0.0147446 -0.0261759 0 -0.165287 -0.00322274 0 621.524 621.524 1001.47 
107 1 1 0.224202 0.0153412 0 0 0 0 -0.207275 0.00164222 0 0.0512593 -0.0725043 0 -0.207275 0.00164222 0 567.594 567.594 1001.35 
108 1 1 0.233723 0.00741453 0 0 0 0 -0.1807 0.0101253 0 -0.0493361 0.0618061 0 -0.1807 0.0101253 0 594.249 594.249 1001.41 
109 1 1 0.230144 0.020874 0 0 0 0 -0.202565 0.0147321 0 0.0695448 -0.0145055 0 -0.202565 0.0147321 0 541.905 541.905 1001.29 
110 1 1 0.23852 0.0144601 0 0 0 0 -0.23207 0.0390697 0 -0.00423764 -0.0535024 0 -0.23207 0.0390697 0 538.449 538.449 1001.28 
111 1 1 0.246913 0.00713746 0 0 0 0 -0.214922 -0.000566796 0 0.0483639 -0.0532091 0 -0.214922 -0.000566796 0 609.771 609.771 1001.45 
112 1 1 0.25712 0.00953497 0 0 0 0 -0.226327 0.0155248 0 8.96801e-05 0.0441432 0 -0.226327 0.0155248 0 583.887 583.887 1001.38 
113 1 1 0.265758 0.00859537 0 0 0 0 -0.20961 -0.0247512 0 0.0917378 -0.0770726 0 -0.20961 -0.0247512 0 598.609 598.609 1001.42 
114 1 1 0.275113 0.0095768 0 0 0 0 -0.183182 -0.00205894 0 0.0406267 -0.0169074 0 -0.183182 -0.00205894 0 572.03 572.03 1001.36 
115 1 1 0.284137 0.0183874 0 0 0 0 -0.208134 0.00568115 0 0.0333569 -0.0640912 0 -0.208134 0.00568115 0 525.211 525.211 1001.25 
116 1 1 0.284895 0.00821042 0 0 0 0 -0.193642 0.00999412 0 0.0506156 -0.0205007 0 -0.193642 0.00999412 0 599.752 599.752 1001.42 
117 1 1 0.294444 0.00886967 0 0 0 0 -0.204865 0.000372472 0 0.0174647 -0.0278226 0 -0.204865 0.000372472 0 588.17 588.17 1001.39 
118 1 1 0.307353 0.00713387 0 0 0 0 -0.177645 0.000576561 0 0.0342965 -0.0505021 0 -0.177645 0.000576561 0 609.523 609.523 1001.44 
119 1 1 0.315657 0.0110353 0 0 0 0 -0.160787 -0.0253256 0 0.0567953 0.00523616 0 -0.160787 -0.0253256 0 566.13 566.13 1001.34 
120 1 1 0.321411 0.0181104 0 0 0 0 -0.158139 -0.0216101 0 0.0304884 -0.0272252 0 -0.158139 -0.0216101 0 502.389 502.389 1001.19 
121 1 1 0.325693 0.00714666 0 0 0 0 -0.141179 0.00025687 0 0.0558103 -0.00122172 0 -0.141179 0.00025687 0 576.568 576.568 1001.37 
122 1 1 0.338333 0.00730944 0 0 0 0 -0.138968 -0.00269754 0 0.0466894 0.0307051 0 -0.138968 -0.00269754 0 585.182 585.182 1001.39 
123 1 1 0.343277 0.0144384 0 0 0 0 -0.100488 -0.0242076 0 0.0404235 0.032315 0 -0.100488 -0.0242076 0 535.398 535.398 1001.27 
124 1 1 0.352187 0.0073283 0 0 0 0 -0.133631 -0.00184947 0 0.00358972 -0.0201644 0 -0.133631 -0.00184947 0 576.986 576.986 1001.37 
125 1 1 0.364557 0.00746633 0 0 0 0 -0.136481 0.00360374 0 0.00397754 -0.0438678 0 -0.136481 0.00360374 0 529.164 529.164 1001.26 
126 1 1 0.367618 0.0159188 0 0 0 0 -0.0707025 0.0010788 0 0.0758423 -0.089765 0 -0.0707025 0.0010788 0 517.748 517.748 1001.23 
127 1 1 0.377463 0.0072334 0 0 0 0 -0.124998 -0.0187687 0 0.0358344 0.0584854 0 -0.124998 -0.0187687 0 587.099 587.099 1001.39 
128 1 1 0.389828 0.00767154 0 0 0 0 -0.107194 -0.00346761 0 0.0344659 -0.0311792 0 -0.107194 -0.00346761 0 537.335 537.335 1001.27 
129 1 1 0.403135 0.00693619 0 0 0 0 -0.0787798 -0.0180345 0 0.0234052 0.0327463 0 -0.0787798 -0.0180345 0 575.298 575.298 1001.36 
130 1 1 0.412675 0.0128349 0 0 0 0 -0.106097 -0.0206786 0 0.0264169 -0.0465386 0 -0.106097 -0.0206786 0 497.769 497.769 1001.18 
131 1 1 0.419121 0.00651396 0 0 0 0 -0.00818915 -0.00808126 0 0.0693792 -0.0126589 0 -0.00818915 -0.00808126 0 537.529 537.529 1001.27 
132 1 1 0.413047 0.0205965 0 0 0 0 -0.0604212 -0.00512585 0 0.0494824 -0.0010164 0 -0.0604212 -0.00512585 0 441.293 441.293 1001.05 
133 1 1 0.428946 0.0120133 0 0 0 0 -0.0478416 -0.0307356 0 0.0516685 -0.00290054 0 -0.0478416 -0.0307356 0 512.931 512.931 1001.22 
134 1 1 0.442738 0.0155985 0 0 0 0 -0.012117 0.0109174 0 0.0750593 0.0550171 0 -0.012117 0.0109174 0 515.377 515.377 1001.22 
135 1 1 0.436281 0.00689897 0 0 0 0 0.024816 0.00280867 0 0.0632926 0.0172022 0 0.024816 0.00280867 0 529.989 529.989 1001.26 
136 1 1 0.449596 0.00710688 0 0 0 0 -0.00527755 0.00433545 0 0.000986148 0.024716 0 -0.00527755 0.00433545 0 567.405 567.405 1001.35 
137 1 1 0.464137 0.00656623 0 0 0 0 0.00377214 0.00324588 0 -0.0873386 0.00675675 0 0.00377214 0.00324588 0 563.887 563.887 1001.34 
138 1 1 0.482441 0.00664364 0 0 0 0 0.0176026 -0.0164228 0 -0.068141 -0.0407758 0 0.0176026 -0.0164228 0 515.206 515.206 1001.22 
139 1 1 0.49291 0.00935775 0 0 0 0 0.00266916 0.0131559 0 -0.0428178 -0.0117834 0 0.00266916 0.0131559 0 508.586 508.586 1001.21 
140 1 1 0.190837 0.0415446 0 0 0 0 -0.181685 0.0751927 0 -0.0906286 -0.0296267 0 -0.181685 0.0751927 0 328.156 328.156 1000.78 
141 1 1 0.19784 0.0309268 0 0 0 0 -0.133768 0.0472146 0 -0.0311182 0.0486407 0 -0.133768 0.0472146 0 404.472 404.472 1000.96 
142 1 1 0.2192 0.0464338 0 0 0 0 -0.223816 0.105744 0 0.0075261 -0.00771217 0 -0.223816 0.105744 0 254.67 254.67 1000.61 
143 1 1 0.210644 0.029504 0 0 0 0 -0.180145 0.0539325 0 -0.000461962 -0.0154522 0 -0.180145 0.0539325 0 444.694 444.694 1001.06 
144 1 1 0.227467 0.0403487 0 0 0 0 -0.232633 0.0512866 0 0.022288 -0.0449582 0 -0.232633 0.0512866 0 333.036 333.036 1000.79 
145 1 1 0.218212 0.0241391 0 0 0 0 -0.202362 0.0310889 0 0.0130569 0.012624 0 -0.202362 0.0310889 0 479.447 479.447 1001.14 
146 1 1 0.238334 0.0388783 0 0 0 0 -0.233372 0.044369 0 -0.00118471 0.000983129 0 -0.233372 0.044369 0 351.588 351.588 1000.84 
147 1 1 0.224538 0.0313511 0 0 0 0 -0.214003 0.0181236 0 0.00588287 -0.0433632 0 -0.214003 0.0181236 0 413.77 413.77 1000.98 
148 1 1 0.234972 0.030074 0 0 0 0 -0.245745 0.0351826 0 0.0185098 -0.00982156 0 -0.245745 0.0351826 0 427.93 427.93 1001.02 
149 1 1 0.242007 0.0233638 0 0 0 0 -0.207423 0.0362903 0 0.0574247 -0.0271917 0 -0.207423 0.0362903 0 490.582 490.582 1001.16 
150 1 1 0.263531 0.0307918 0 0 0 0 -0.267325 -0.0157324 0 0.015087 0.0187882 0 -0.267325 -0.0157324 0 427.343 427.343 1001.01 
151 1 1 0.249867 0.017177 0 0 0 0 -0.219092 -0.0199154 0 0.0355596 -0.0159787 0 -0.219092 -0.0199154 0 540.758 540.758 1001.28 
152 1 1 0.256282 0.0229536 0 0 0 0 -0.239775 0.027627 0 0.0428158 -0.050346 0 -0.239775 0.027627 0 477.72 477.72 1001.13 
153 1 1 0.264365 0.019481 0 0 0 0 -0.214064 -0.0463608 0 0.0516853 -0.0166286 0 -0.214064 -0.0463608 0 518.918 518.918 1001.23 
154 1 1 0.29309 0.021132 0 0 0 0 -0.21997 -0.0139298 0 -0.0440951 -0.0690898 0 -0.21997 -0.0139298 0 505.118 505.118 1001.2 
155 1 1 0.300742 0.0148951 0 0 0 0 -0.182406 -0.024344 0 0.0635474 0.0937823 0 -0.182406 -0.024344 0 544.963 544.963 1001.29 
156 1 1 0.30124 0.0266254 0 0 0 0 -0.231845 -0.0431053 0 0.078421 -0.0313912 0 -0.231845 -0.0431053 0 461.849 461.849 1001.1 
157 1 1 0.309786 0.0198176 0 0 0 0 -0.174892 -0.0273436 0 0.0273753 -0.0249073 0 -0.174892 -0.0273436 0 484.429 484.429 1001.15 
158 1 1 0.313681 0.0279305 0 0 0 0 -0.200215 -0.0435412 0 0.0220744 0.0483021 0 -0.200215 -0.0435412 0 427.762 427.762 1001.02 
159 1 1 0.323894 0.0266384 0 0 0 0 -0.180917 -0.0264011 0 0.0452723 -0.0230236 0 -0.180917 -0.0264011 0 441.877 441.877 1001.05 
160 1 1 0.331069 0.0159166 0 0 0 0 -0.142462 0.00339555 0 0.040122 0.0124733 0 -0.142462 0.00339555 0 522.055 522.055 1001.24 
161 1 1 0.336904 0.0228428 0 0 0 0 -0.15049 -0.0420042 0 0.00719464 0.00375344 0 -0.15049 -0.0420042 0 482.523 482.523 1001.14 
162 1 1 0.347738 0.0236791 0 0 0 0 -0.129499 -0.0145434 0 0.133966 -0.0479515 0 -0.129499 -0.0145434 0 448.253 448.253 1001.06 
163 1 1 0.354543 0.0155713 0 0 0 0 -0.0987688 0.00692737 0 0.107148 0.0424452 0 -0.0987688 0.00692737 0 522.968 522.968 1001.24 
164 1 1 0.373169 0.0262808 0 0 0 0 -0.0947799 0.0179664 0 0.00598491 0.00905573 0 -0.0947799 0.0179664 0 389.706 389.706 1000.93 
165 1 1 0.391926 0.0156809 0 0 0 0 -0.0844626 -0.0236905 0 0.0817497 -0.00647985 0 -0.0844626 -0.0236905 0 505.222 505.222 1001.2 
166 1 1 0.377927 0.0158641 0 0 0 0 -0.101207 0.00335238 0 -0.000549275 0.0268257 0 -0.101207 0.00335238 0 511.044 511.044 1001.21 
167 1 1 0.388089 0.0304176 0 0 0 0 -0.11844 0.00025932 0 0.155059 -0.00955545 0 -0.11844 0.00025932 0 362.9 362.9 1000.86 
168 1 1 0.401559 0.0159407 0 0 0 0 -0.0378287 -0.00839278 0 0.0850908 0.0585946 0 -0.0378287 -0.00839278 0 487.408 487.408 1001.16 
169 1 1 0.400178 0.0347844 0 0 0 0 -0.100453 -0.0458627 0 0.0255446 -0.0601213 0 -0.100453 -0.0458627 0 355.27 355.27 1000.84 
170 1 1 0.396932 0.0250916 0 0 0 0 -0.140407 -0.0439458 0 -0.0606494 -0.0374135 0 -0.140407 -0.0439458 0 390.533 390.533 1000.93 
171 1 1 0.406973 0.0271687 0 0 0 0 -0.104196 -0.0154778 0 0.122816 0.0454247 0 -0.104196 -0.0154778 0 404.096 404.096 1000.96 
172 1 1 0.424678 0.018091 0 0 0 0 -0.107075 -0.0379729 0 -0.0257656 0.109345 0 -0.107075 -0.0379729 0 476.04 476.04 1001.13 
173 1 1 0.436917 0.0210974 0 0 0 0 -0.0747157 -0.0642697 0 -0.0674038 -0.0654818 0 -0.0747157 -0.0642697 0 464.152 464.152 1001.1 
174 1 1 0.454871 0.014197 0 0 0 0 -0.0039742 -0.0135249 0 0.0405711 0.0900368 0 -0.0039742 -0.0135249 0 492.173 492.173 1001.17 
175 1 1 0.462557 0.0179791 0 0 0 0 -0.0190078 0.0119556 0 0.112007 -0.00688606 0 -0.0190078 0.0119556 0 491.266 491.266 1001.17 
176 1 1 0.472876 0.0110974 0 0 0 0 -0.0256862 0.00648633 0 -0.0476344 0.0223268 0 -0.0256862 0.00648633 0 524.414 524.414 1001.24 
177 1 1 0.48532 0.0180034 0 0 0 0 -0.0181642 -0.000865392 0 -0.0598862 -0.102175 0 -0.0181642 -0.000865392 0 461.454 461.454 1001.1 
178 1 1 0.490351 0.022972 0 0 0 0 0.00263102 -0.0104676 0 0.0665135 -0.0600852 0 0.00263102 -0.0104676 0 418.072 418.072 1000.99 
179 1 1 0.180684 0.0420994 0 0 0 0 -0.113616 0.0285947 0 -0.0457105 0.0157164 0 -0.113616 0.0285947 0 303.103 303.103 1000.72 
180 1 1 0.204924 0.0370765 0 0 0 0 -0.147029 0.0847491 0 -0.0451208 0.0319389 0 -0.147029 0.0847491 0 334.457 334.457 1000.79 
181 1 1 0.20782 0.0485982 0 0 0 0 -0.216234 0.0838365 0 0.0290655 -0.0430627 0 -0.216234 0.0838365 0 275.897 275.897 1000.66 
182 1 1 0.215869 0.0382849 0 0 0 0 -0.180436 0.0789427 0 -0.038845 -0.0256484 0 -0.180436 0.0789427 0 331.865 331.865 1000.79 
183 1 1 0.223027 0.0560634 0 0 0 0 -0.288833 0.129307 0 -0.033344 0.0160075 0 -0.288833 0.129307 0 159.926 159.926 1000.38 
184 1 1 0.212361 0.0555117 0 0 0 0 -0.259636 0.111275 0 0.0381753 -0.0091783 0 -0.259636 0.111275 0 173.156 173.156 1000.41 
185 1 1 0.232022 0.0495716 0 0 0 0 -0.286466 0.0505433 0 0.0312746 -0.0305757 0 -0.286466 0.0505433 0 264.859 264.859 1000.63 
186 1 1 0.248168 0.0308924 0 0 0 0 -0.237357 -0.00479726 0 -0.0436492 -0.0114932 0 -0.237357 -0.00479726 0 450.557 450.557 1001.07 
187 1 1 0.25486 0.0362398 0 0 0 0 -0.247901 0.0335838 0 0.0173659 -0.0550435 0 -0.247901 0.0335838 0 379.357 379.357 1000.9 
188 1 1 0.261069 0.0436724 0 0 0 0 -0.293584 0.00335268 0 0.0439269 -0.0493878 0 -0.293584 0.00335268 0 322.495 322.495 1000.77 
189 1 1 0.272453 0.0385345 0 0 0 0 -0.258042 -0.0197977 0 0.0519822 -0.00912822 0 -0.258042 -0.0197977 0 365.857 365.857 1000.87 
190 1 1 0.273918 0.0189576 0 0 0 0 -0.247126 -0.00957225 0 -0.0245724 0.0393905 0 -0.247126 -0.00957225 0 518.27 518.27 1001.23 
191 1 1 0.283112 0.0387302 0 0 0 0 -0.26839 -0.00445133 0 0.0475667 -0.0638092 0 -0.26839 -0.00445133 0 331.256 331.256 1000.79 
192 1 1 0.28303 0.0274762 0 0 0 0 -0.260544 -0.0127009 0 0.0328173 0.0935519 0 -0.260544 -0.0127009 0 441.707 441.707 1001.05 
193 1 1 0.304107 0.0347294 0 0 0 0 -0.228861 -0.0830621 0 0.024624 0.0397951 0 -0.228861 -0.0830621 0 392.74 392.74 1000.93 
194 1 1 0.292689 0.0507014 0 0 0 0 -0.280464 -0.0852099 0 0.120212 -0.0118296 0 -0.280464 -0.0852099 0 240.007 240.007 1000.57 
195 1 1 0.313008 0.0390839 0 0 0 0 -0.225047 -0.0468869 0 0.0882814 -0.044444 0 -0.225047 -0.0468869 0 289.884 289.884 1000.69 
196 1 1 0.323543 0.036555 0 0 0 0 -0.191673 -0.0793803 0 -0.0118828 -0.036866 0 -0.191673 -0.0793803 0 359.599 359.599 1000.85 
197 1 1 0.335469 0.0400726 0 0 0 0 -0.214903 -0.0116164 0 -0.0620263 0.00260491 0 -0.214903 -0.0116164 0 266.659 266.659 1000.63 
198 1 1 0.333189 0.0309565 0 0 0 0 -0.125249 -0.044056 0 0.142553 0.0377973 0 -0.125249 -0.044056 0 370.656 370.656 1000.88 
199 1 1 0.344065 0.0426305 0 0 0 0 -0.12246 -0.0718519 0 0.0457616 -0.0340486 0 -0.12246 -0.0718519 0 288.838 288.838 1000.69 
200 1 1 0.345229 0.0329628 0 0 0 0 -0.189072 -0.0148005 0 -0.0241399 -0.0128279 0 -0.189072 -0.0148005 0 397.175 397.175 1000.94 
201 1 1 0.361594 0.0216368 0 0 0 0 -0.0923154 -0.0269736 0 0.0445523 0.0412183 0 -0.0923154 -0.0269736 0 498.172 498.172 1001.18 
202 1 1 0.357955 0.0393413 0 0 0 0 -0.114652 -0.0399823 0 0.0273 0.0143404 0 -0.114652 -0.0399823 0 305.251 305.251 1000.73 
203 1 1 0.366003 0.0318487 0 0 0 0 -0.167109 -0.0281059 0 0.104227 0.00566248 0 -0.167109 -0.0281059 0 354.475 354.475 1000.84 
204 1 1 0.373743 0.0400356 0 0 0 0 -0.113863 -0.0185041 0 0.0244742 0.021022 0 -0.113863 -0.0185041 0 300.718 300.718 1000.71 
205 1 1 0.383948 0.0209674 0 0 0 0 -0.0809968 -0.0388097 0 0.0327372 0.0680703 0 -0.0809968 -0.0388097 0 484.82 484.82 1001.15 
206 1 1 0.380421 0.033864 0 0 0 0 -0.119553 -0.0217357 0 0.0222817 -0.0106565 0 -0.119553 -0.0217357 0 372.162 372.162 1000.88 
207 1 1 0.419091 0.0395972 0 0 0 0 -0.00421678 -0.0665174 0 -0.0842548 0.00868593 0 -0.00421678 -0.0665174 0 268.645 268.645 1000.64 
208 1 1 0.430819 0.030367 0 0 0 0 -0.0424323 -0.103153 0 0.00205117 0.0450554 0 -0.0424323 -0.103153 0 382.79 382.79 1000.91 
209 1 1 0.414465 0.0334879 0 0 0 0 -0.142933 -0.0193055 0 -0.0711622 0.0642525 0 -0.142933 -0.0193055 0 284.384 284.384 1000.68 
210 1 1 0.441485 0.0294426 0 0 0 0 -0.0214331 -0.0312421 0 0.0259624 0.0245874 0 -0.0214331 -0.0312421 0 365.527 365.527 1000.87 
211 1 1 0.42253 0.0268673 0 0 0 0 -0.070906 -0.0194498 0 0.0357159 0.0614814 0 -0.070906 -0.0194498 0 369.72 369.72 1000.88 
212 1 1 0.450524 0.0330699 0 0 0 0 -0.0612835 0.031882 0 0.0443241 -0.0957984 0 -0.0612835 0.031882 0 321.667 321.667 1000.76 
213 1 1 0.451142 0.0228724 0 0 0 0 -0.0399037 0.0097447 0 -0.00137854 0.0355138 0 -0.0399037 0.0097447 0 390.143 390.143 1000.93 
214 1 1 0.468358 0.0259713 0 0 0 0 0.00931761 0.0196143 0 0.0454353 0.0996568 0 0.00931761 0.0196143 0 423.29 423.29 1001 
215 1 1 0.478863 0.0296226 0 0 0 0 0.0254492 -0.0209102 0 0.112327 -0.0690637 0 0.0254492 -0.0209102 0 376.285 376.285 1000.89 
216 1 1 0.475936 0.0182282 0 0 0 0 -0.00893547 -0.0334372 0 -0.0160845 0.132683 0 -0.00893547 -0.0334372 0 487.606 487.606 1001.16 
217 1 1 0.4891 0.0329102 0 0 0 0 -0.0014788 0.00550171 0 0.0422124 -0.0163166 0 -0.0014788 0.00550171 0 340.993 340.993 1000.81 
218 1 1 0.190121 0.0545959 0 0 0 0 -0.169634 0.141426 0 0.055285 -0.063417 0 -0.169634 0.141426 0 200.33 200.33 1000.48 
219 1 1 0.169392 0.0633904 0 0 0 0 -0.0517359 0.118845 0 -0.253209 -0.0205155 0 -0.0517359 0.118845 0 179.725 179.725 1000.43 
220 1 1 0.18282 0.0540002 0 0 0 0 -0.153566 0.108644 0 -0.0468757 -0.0243547 0 -0.153566 0.108644 0 251.476 251.476 1000.6 
221 1 1 0.199244 0.0572927 0 0 0 0 -0.206593 0.0714168 0 0.0651713 -0.0698589 0 -0.206593 0.0714168 0 192.079 192.079 1000.46 
222 1 1 0.198637 0.045332 0 0 0 0 -0.222324 0.0593036 0 -0.0459119 -0.0650468 0 -0.222324 0.0593036 0 300.812 300.812 1000.71 
223 1 1 0.243858 0.0550126 0 0 0 0 -0.292496 0.0529105 0 -0.0563273 -0.0785461 0 -0.292496 0.0529105 0 220.279 220.279 1000.52 
224 1 1 0.24419 0.0429397 0 0 0 0 -0.272602 0.0240752 0 0.0948915 0.0712904 0 -0.272602 0.0240752 0 308.396 308.396 1000.73 
225 1 1 0.253159 0.0480511 0 0 0 0 -0.298267 0.0519518 0 0.0278015 -0.00867797 0 -0.298267 0.0519518 0 217.163 217.163 1000.52 
226 1 1 0.261302 0.0575143 0 0 0 0 -0.287486 0.00199372 0 -0.0515567 -0.106331 0 -0.287486 0.00199372 0 164.087 164.087 1000.39 
227 1 1 0.272927 0.0295035 0 0 0 0 -0.265542 -0.00835005 0 0.0605641 -0.105311 0 -0.265542 -0.00835005 0 434.758 434.758 1001.03 
228 1 1 0.269481 0.048245 0 0 0 0 -0.298865 -0.0352808 0 0.0868268 0.0337355 0 -0.298865 -0.0352808 0 296.109 296.109 1000.7 
229 1 1 0.28127 0.0477575 0 0 0 0 -0.281128 -0.00657582 0 0.00527196 0.00738336 0 -0.281128 -0.00657582 0 267.448 267.448 1000.64 
230 1 1 0.291727 0.0329268 0 0 0 0 -0.271127 -0.0227012 0 0.0464285 -0.0383546 0 -0.271127 -0.0227012 0 392.869 392.869 1000.93 
231 1 1 0.29474 0.0422105 0 0 0 0 -0.215228 -0.0678183 0 0.0217352 0.0262711 0 -0.215228 -0.0678183 0 325.867 325.867 1000.77 
232 1 1 0.305804 0.0458048 0 0 0 0 -0.246855 -0.070754 0 -0.00293675 0.0329276 0 -0.246855 -0.070754 0 289.08 289.08 1000.69 