ITEM: TIMESTEP
203000
ITEM: NUMBER OF ATOMS
754
ITEM: BOX BOUNDS ff ff pp
-0.021 0.521
-0.021 0.5
-0.001 0.001
ITEM: ATOMS id type type x y z ix iy iz vx vy vz fx fy fz vx vy vz p p rho 
1 1 1 0.0058356 0.000786762 0 0 0 0 -0.000290906 -0.0112835 0 0.00424565 0.0178808 0 -0.000290906 -0.0112835 0 475.39 475.39 1001.13 
2 1 1 0.0288327 0.00523066 0 0 0 0 -0.00557308 0.000465333 0 0.00644562 -0.0123367 0 -0.00557308 0.000465333 0 424.578 424.578 1001.01 
3 1 1 0.0647051 0.00438258 0 0 0 0 0.000340938 -0.00457157 0 -0.0128459 0.0120068 0 0.000340938 -0.00457157 0 445.322 445.322 1001.06 
4 1 1 0.0795547 0.00592472 0 0 0 0 -0.00891178 0.00146937 0 -0.00952441 0.00139773 0 -0.00891178 0.00146937 0 429.817 429.817 1001.02 
5 1 1 0.0948065 0.00461843 0 0 0 0 -0.0170668 -0.000199725 0 -0.00847058 0.00733127 0 -0.0170668 -0.000199725 0 464.056 464.056 1001.1 
6 1 1 0.109631 0.00621584 0 0 0 0 -0.0342946 -0.000118099 0 -0.0106569 -0.0109413 0 -0.0342946 -0.000118099 0 445.731 445.731 1001.06 
7 1 1 0.150142 0.00605141 0 0 0 0 -0.0460282 0.00535876 0 0.0166955 0.0078655 0 -0.0460282 0.00535876 0 460.81 460.81 1001.09 
8 1 1 0.130018 0.0135444 0 0 0 0 -0.0236384 -0.00114077 0 -0.0233211 0.0296022 0 -0.0236384 -0.00114077 0 424.012 424.012 1001.01 
9 1 1 0.182077 0.00512603 0 0 0 0 -0.0769686 0.00973201 0 -0.0279083 0.0404478 0 -0.0769686 0.00973201 0 474.187 474.187 1001.13 
10 1 1 0.196443 0.00534502 0 0 0 0 -0.0640401 -0.0229107 0 -0.0650974 0.00412892 0 -0.0640401 -0.0229107 0 512.434 512.434 1001.22 
11 1 1 0.0336648 0.01539 0 0 0 0 -0.00231955 0.00517232 0 -0.0248227 0.00183853 0 -0.00231955 0.00517232 0 389.654 389.654 1000.93 
12 1 1 0.0506643 0.00643079 0 0 0 0 -0.0106423 -0.00391658 0 0.00322818 0.00511704 0 -0.0106423 -0.00391658 0 427.577 427.577 1001.01 
13 1 1 0.0722872 0.0129845 0 0 0 0 -0.00559544 0.0101116 0 -0.0228532 0.00321856 0 -0.00559544 0.0101116 0 405.436 405.436 1000.96 
14 1 1 0.0862309 0.0125083 0 0 0 0 -0.0137308 0.00685593 0 -0.0331531 -0.00763172 0 -0.0137308 0.00685593 0 395.859 395.859 1000.94 
15 1 1 0.10538 0.0137082 0 0 0 0 -0.0176759 0.0229702 0 -0.0228425 0.0270699 0 -0.0176759 0.0229702 0 409.762 409.762 1000.97 
16 1 1 0.137488 0.00599934 0 0 0 0 -0.0410421 -0.00014849 0 -0.017072 -0.0101054 0 -0.0410421 -0.00014849 0 472.69 472.69 1001.12 
17 1 1 0.15323 0.0201626 0 0 0 0 -0.0259675 0.0142324 0 -0.0349145 0.0606803 0 -0.0259675 0.0142324 0 398.901 398.901 1000.95 
18 1 1 0.164543 0.0049597 0 0 0 0 -0.0397385 -0.00781721 0 -0.00850232 0.0455006 0 -0.0397385 -0.00781721 0 495.001 495.001 1001.17 
19 1 1 0.192494 0.0147465 0 0 0 0 -0.0509865 0.0074698 0 0.0177027 0.026726 0 -0.0509865 0.0074698 0 440.611 440.611 1001.05 
20 1 1 0.186029 0.0160348 0 0 0 0 -0.0516563 -0.0272433 0 -0.060124 -0.0363404 0 -0.0516563 -0.0272433 0 442.695 442.695 1001.05 
21 1 1 0.0319222 0.0274824 0 0 0 0 -0.0112759 0.0364419 0 0.0074615 0.0196406 0 -0.0112759 0.0364419 0 283.379 283.379 1000.67 
22 1 1 0.0403422 0.00755753 0 0 0 0 -0.0103573 0.00322164 0 0.0108403 0.00604713 0 -0.0103573 0.00322164 0 405.792 405.792 1000.96 
23 1 1 0.0590374 0.0139798 0 0 0 0 -0.020676 -0.0105922 0 -0.0334385 0.0138582 0 -0.020676 -0.0105922 0 392.028 392.028 1000.93 
24 1 1 0.0847017 0.0292358 0 0 0 0 -0.0379351 0.00434064 0 -0.0226534 -0.000310801 0 -0.0379351 0.00434064 0 278.242 278.242 1000.66 
25 1 1 0.0734473 0.0269196 0 0 0 0 -0.0356123 -0.00582858 0 -0.0111925 0.017021 0 -0.0356123 -0.00582858 0 311.345 311.345 1000.74 
26 1 1 0.123271 0.0051105 0 0 0 0 -0.0365704 0.0035417 0 -0.00318099 0.0111489 0 -0.0365704 0.0035417 0 468.093 468.093 1001.11 
27 1 1 0.123979 0.0203312 0 0 0 0 -0.0126224 0.0128071 0 -0.0389127 -0.0219249 0 -0.0126224 0.0128071 0 360.136 360.136 1000.86 
28 1 1 0.165449 0.0191395 0 0 0 0 -0.077666 0.027737 0 -0.0222097 0.00964833 0 -0.077666 0.027737 0 401.395 401.395 1000.95 
29 1 1 0.172603 0.0114305 0 0 0 0 -0.0737936 0.0246235 0 -0.0461748 -0.0384187 0 -0.0737936 0.0246235 0 454.934 454.934 1001.08 
30 1 1 0.195614 0.0245939 0 0 0 0 -0.0825458 0.00601564 0 -0.0510379 -0.00168214 0 -0.0825458 0.00601564 0 391.95 391.95 1000.93 
31 1 1 0.0194091 0.0093079 0 0 0 0 0.00245254 0.00539788 0 -0.00541648 -0.0109006 0 0.00245254 0.00539788 0 411.049 411.049 1000.98 
32 1 1 0.0406273 0.0191687 0 0 0 0 -0.0255594 0.0242526 0 0.000648917 -0.00544805 0 -0.0255594 0.0242526 0 357.384 357.384 1000.85 
33 1 1 0.0648693 0.0324936 0 0 0 0 -0.0184687 -0.000803724 0 -0.0422587 0.036792 0 -0.0184687 -0.000803724 0 272.575 272.575 1000.65 
34 1 1 0.091207 0.0204651 0 0 0 0 -0.000501981 0.0188177 0 -0.0288106 0.00203102 0 -0.000501981 0.0188177 0 347.283 347.283 1000.82 
35 1 1 0.132902 0.0267842 0 0 0 0 -0.0475729 0.0169845 0 -0.0795577 0.0125918 0 -0.0475729 0.0169845 0 341.071 341.071 1000.81 
36 1 1 0.137612 0.017922 0 0 0 0 -0.0236744 0.0135373 0 -0.0319385 0.0181265 0 -0.0236744 0.0135373 0 405.764 405.764 1000.96 
37 1 1 0.145631 0.0146602 0 0 0 0 -0.0433831 0.00751206 0 -0.060847 -0.0231658 0 -0.0433831 0.00751206 0 429.628 429.628 1001.02 
38 1 1 0.177321 0.0173703 0 0 0 0 -0.0673027 -0.00613058 0 -0.0443867 0.0565367 0 -0.0673027 -0.00613058 0 437.278 437.278 1001.04 
39 1 1 0.193743 0.0344813 0 0 0 0 -0.0652051 -0.00229847 0 -0.0806463 -0.00742311 0 -0.0652051 -0.00229847 0 321.033 321.033 1000.76 
40 1 1 0.154129 0.032958 0 0 0 0 -0.0397235 -0.00482602 0 -0.0921483 -0.0140744 0 -0.0397235 -0.00482602 0 326.11 326.11 1000.77 
41 1 1 0.0133471 0.0128827 0 0 0 0 0.00560531 -0.00173649 0 -0.0244235 -0.0058219 0 0.00560531 -0.00173649 0 404.75 404.75 1000.96 
42 1 1 0.0329377 0.0402417 0 0 0 0 -0.00920548 0.00835133 0 0.00188707 0.042313 0 -0.00920548 0.00835133 0 211.439 211.439 1000.5 
43 1 1 0.0503553 0.0158572 0 0 0 0 -0.0280073 -0.00215951 0 -0.024692 0.0283255 0 -0.0280073 -0.00215951 0 375.744 375.744 1000.89 
44 1 1 0.0774861 0.0362325 0 0 0 0 -0.0311469 0.00266517 0 -0.0292924 0.00550366 0 -0.0311469 0.00266517 0 239.667 239.667 1000.57 
45 1 1 0.0976473 0.0152727 0 0 0 0 -0.0201457 -0.00898884 0 -0.0322258 0.0298727 0 -0.0201457 -0.00898884 0 407.751 407.751 1000.97 
46 1 1 0.120709 0.029749 0 0 0 0 -0.0430593 0.00546922 0 -0.0587955 0.00159155 0 -0.0430593 0.00546922 0 307.042 307.042 1000.73 
47 1 1 0.158507 0.0133986 0 0 0 0 -0.0581442 -0.00824081 0 -0.0789268 -0.00365714 0 -0.0581442 -0.00824081 0 446.689 446.689 1001.06 
48 1 1 0.184624 0.0272997 0 0 0 0 -0.0703958 -0.00443364 0 -0.0214039 -0.0344677 0 -0.0703958 -0.00443364 0 372.05 372.05 1000.88 
49 1 1 0.181569 0.0353018 0 0 0 0 -0.0574708 0.0175243 0 -0.0292783 0.049961 0 -0.0574708 0.0175243 0 312.882 312.882 1000.74 
50 1 1 0.167447 0.0528956 0 0 0 0 -0.0358176 0.0473645 0 -0.120656 0.0375907 0 -0.0358176 0.0473645 0 212.688 212.688 1000.51 
51 1 1 0.0255229 0.0180926 0 0 0 0 0.0121878 0.00926522 0 -0.0105822 0.00879879 0 0.0121878 0.00926522 0 362.859 362.859 1000.86 
52 1 1 0.0484797 0.0257475 0 0 0 0 -0.00713803 -0.0058478 0 -0.032698 0.0398492 0 -0.00713803 -0.0058478 0 320.099 320.099 1000.76 
53 1 1 0.0662522 0.0186271 0 0 0 0 -0.0171387 -0.0183638 0 -0.0211438 0.00234913 0 -0.0171387 -0.0183638 0 383.676 383.676 1000.91 
54 1 1 0.0948062 0.0303724 0 0 0 0 -0.0375046 0.0123758 0 -0.0446299 0.0195374 0 -0.0375046 0.0123758 0 273.802 273.802 1000.65 
55 1 1 0.101774 0.0378926 0 0 0 0 -0.0260626 0.015444 0 -0.0271156 0.0234185 0 -0.0260626 0.015444 0 232.304 232.304 1000.55 
56 1 1 0.111118 0.0325377 0 0 0 0 -0.0233972 -0.0117297 0 -0.0927302 0.0376605 0 -0.0233972 -0.0117297 0 287.416 287.416 1000.68 
57 1 1 0.145495 0.0266528 0 0 0 0 -0.0388575 0.0104433 0 -0.0447059 0.0247931 0 -0.0388575 0.0104433 0 364.861 364.861 1000.87 
58 1 1 0.139064 0.0341284 0 0 0 0 -0.0229187 0.0063161 0 -0.0769643 0.0220071 0 -0.0229187 0.0063161 0 289.024 289.024 1000.69 
59 1 1 0.171934 0.0373266 0 0 0 0 -0.0565464 0.0509127 0 -0.0393963 -0.0305914 0 -0.0565464 0.0509127 0 274.248 274.248 1000.65 
60 1 1 0.177456 0.0481676 0 0 0 0 -0.0538287 0.0220534 0 -0.11334 -0.0799674 0 -0.0538287 0.0220534 0 296.195 296.195 1000.7 
61 1 1 0.0584978 0.026029 0 0 0 0 -0.0127628 -0.00931164 0 -0.00904069 0.0125628 0 -0.0127628 -0.00931164 0 321.638 321.638 1000.76 
62 1 1 0.00808815 0.0179988 0 0 0 0 -0.00222259 -0.014211 0 -0.0162316 0.0413024 0 -0.00222259 -0.014211 0 376.294 376.294 1000.89 
63 1 1 0.0796519 0.0192596 0 0 0 0 -0.00200141 0.0013059 0 -0.0278363 0.00980415 0 -0.00200141 0.0013059 0 364.374 364.374 1000.87 
64 1 1 0.0436708 0.0428168 0 0 0 0 0.00398973 0.0114268 0 -0.00780328 0.0201431 0 0.00398973 0.0114268 0 212.063 212.063 1000.5 
65 1 1 0.0894611 0.0400942 0 0 0 0 -0.0332026 0.0144223 0 -0.0615972 -0.0207495 0 -0.0332026 0.0144223 0 228.762 228.762 1000.54 
66 1 1 0.117755 0.0140462 0 0 0 0 -0.0175724 -0.00789905 0 -0.0565811 0.00285449 0 -0.0175724 -0.00789905 0 409.835 409.835 1000.97 
67 1 1 0.127437 0.0361152 0 0 0 0 -0.0262813 0.016109 0 -0.0390643 0.00823037 0 -0.0262813 0.016109 0 265.942 265.942 1000.63 
68 1 1 0.162207 0.0281811 0 0 0 0 -0.00385107 0.0349483 0 -0.011829 -0.00489792 0 -0.00385107 0.0349483 0 352.531 352.531 1000.84 
69 1 1 0.173203 0.0267754 0 0 0 0 -0.0228683 0.00917476 0 -0.0786445 -0.00201036 0 -0.0228683 0.00917476 0 355.617 355.617 1000.84 
70 1 1 0.185739 0.0568324 0 0 0 0 -0.0693537 0.0166881 0 -0.00254174 -0.0136957 0 -0.0693537 0.0166881 0 230.404 230.404 1000.55 
71 1 1 0.0105931 0.0289221 0 0 0 0 0.0124905 -0.0172797 0 -0.000330557 0.0597322 0 0.0124905 -0.0172797 0 299.221 299.221 1000.71 
72 1 1 0.0391851 0.0536957 0 0 0 0 0.00946249 0.010088 0 0.0018952 -0.00509789 0 0.00946249 0.010088 0 177.437 177.437 1000.42 
73 1 1 0.0233577 0.0334183 0 0 0 0 -0.0202647 0.0219875 0 -0.015477 -0.0389945 0 -0.0202647 0.0219875 0 259.75 259.75 1000.62 
74 1 1 0.0521822 0.0357002 0 0 0 0 0.000334767 0.00235228 0 -0.016333 -0.00464343 0 0.000334767 0.00235228 0 249.571 249.571 1000.59 
75 1 1 0.0793252 0.0462508 0 0 0 0 -0.0435778 0.00903233 0 -0.0372871 0.0141394 0 -0.0435778 0.00903233 0 206.04 206.04 1000.49 
76 1 1 0.112011 0.0213201 0 0 0 0 -0.0228803 -0.0117545 0 -0.00573747 0.0185662 0 -0.0228803 -0.0117545 0 368.836 368.836 1000.88 
77 1 1 0.103246 0.0259664 0 0 0 0 -0.0316835 0.0218825 0 -0.06613 -0.00505962 0 -0.0316835 0.0218825 0 303.217 303.217 1000.72 
78 1 1 0.156734 0.0477729 0 0 0 0 -0.0396908 0.0294845 0 -0.069671 -0.00977116 0 -0.0396908 0.0294845 0 232.914 232.914 1000.55 
79 1 1 0.147438 0.0403504 0 0 0 0 -0.0286335 0.0172786 0 -0.0437707 0.031675 0 -0.0286335 0.0172786 0 247.317 247.317 1000.59 
80 1 1 0.156755 0.0629882 0 0 0 0 -0.0410002 0.030382 0 -0.054133 -0.0198277 0 -0.0410002 0.030382 0 169.366 169.366 1000.4 
81 1 1 0.0195185 0.0244578 0 0 0 0 0.00493288 -0.00156056 0 -0.0172127 -0.0280402 0 0.00493288 -0.00156056 0 331.24 331.24 1000.79 
82 1 1 0.0117671 0.0379655 0 0 0 0 -0.021704 -0.00495697 0 0.0178988 0.0408695 0 -0.021704 -0.00495697 0 224.527 224.527 1000.53 
83 1 1 0.0400769 0.0316664 0 0 0 0 -0.00036597 0.0170916 0 -0.0419971 0.00796095 0 -0.00036597 0.0170916 0 266.153 266.153 1000.63 
84 1 1 0.0227253 0.0438127 0 0 0 0 -0.0148768 0.0157265 0 0.0271852 -0.023817 0 -0.0148768 0.0157265 0 193.745 193.745 1000.46 
85 1 1 0.0670643 0.0420262 0 0 0 0 -0.0262331 0.0137171 0 0.00594003 0.0346438 0 -0.0262331 0.0137171 0 190.589 190.589 1000.45 
86 1 1 0.109613 0.0469765 0 0 0 0 -0.0417148 -0.000992237 0 -0.0764469 -0.0173939 0 -0.0417148 -0.000992237 0 208.412 208.412 1000.5 
87 1 1 0.117178 0.0420251 0 0 0 0 -0.030091 0.0149817 0 -0.0177042 -0.0337463 0 -0.030091 0.0149817 0 220.979 220.979 1000.53 
88 1 1 0.127625 0.0476419 0 0 0 0 -0.0449525 0.00567972 0 -0.0583181 0.0490823 0 -0.0449525 0.00567972 0 203.152 203.152 1000.48 
89 1 1 0.137116 0.045444 0 0 0 0 -0.036672 0.0136055 0 -0.0661988 -0.00583318 0 -0.036672 0.0136055 0 212.961 212.961 1000.51 
90 1 1 0.146974 0.0533401 0 0 0 0 -0.0460736 0.0123355 0 -0.113923 -0.00531849 0 -0.0460736 0.0123355 0 215.837 215.837 1000.51 
91 1 1 0.0535107 0.0560983 0 0 0 0 0.00776718 0.0293233 0 -0.00841868 0.021034 0 0.00776718 0.0293233 0 167.968 167.968 1000.4 
92 1 1 0.0262065 0.0557312 0 0 0 0 0.0101486 0.0141704 0 -0.0678752 -0.00235433 0 0.0101486 0.0141704 0 155.997 155.997 1000.37 
93 1 1 0.0133438 0.0499469 0 0 0 0 0.00949401 0.0164285 0 0.00985642 0.0156176 0 0.00949401 0.0164285 0 152.338 152.338 1000.36 
94 1 1 0.0687281 0.0547067 0 0 0 0 -0.0084257 0.0347512 0 -0.054129 0.0281172 0 -0.0084257 0.0347512 0 174.127 174.127 1000.41 
95 1 1 0.0846393 0.0579545 0 0 0 0 -0.0337446 0.0244731 0 0.0165119 0.0276578 0 -0.0337446 0.0244731 0 187.522 187.522 1000.45 
96 1 1 0.104291 0.0586959 0 0 0 0 -0.0550369 0.0147029 0 -7.79298e-06 0.0159945 0 -0.0550369 0.0147029 0 145.324 145.324 1000.35 
97 1 1 0.0566059 0.0444883 0 0 0 0 -0.0191517 0.0178056 0 0.0164106 0.00109371 0 -0.0191517 0.0178056 0 194.624 194.624 1000.46 
98 1 1 0.0959193 0.0488927 0 0 0 0 -0.0494587 0.00449224 0 -0.0675124 0.0447467 0 -0.0494587 0.00449224 0 245.723 245.723 1000.58 
99 1 1 0.120161 0.0569043 0 0 0 0 -0.0699402 0.013488 0 -0.0716626 0.015858 0 -0.0699402 0.013488 0 134.8 134.8 1000.32 
100 1 1 0.136194 0.0606366 0 0 0 0 -0.0519239 0.00484936 0 -0.132626 0.025695 0 -0.0519239 0.00484936 0 189.959 189.959 1000.45 
101 1 1 0.203118 0.0134004 0 0 0 0 -0.0560787 -0.0118662 0 0.00722577 -0.000681922 0 -0.0560787 -0.0118662 0 464.905 464.905 1001.1 
102 1 1 0.214194 0.0163109 0 0 0 0 -0.08907 -0.000196595 0 -0.0295944 0.00618208 0 -0.08907 -0.000196595 0 449.113 449.113 1001.07 
103 1 1 0.22048 0.026597 0 0 0 0 -0.11362 0.00422447 0 -0.0364115 -0.0315976 0 -0.11362 0.00422447 0 403.726 403.726 1000.96 
104 1 1 0.211202 0.00542514 0 0 0 0 -0.0427588 0.00424366 0 -0.0628998 0.0098504 0 -0.0427588 0.00424366 0 489.502 489.502 1001.16 
105 1 1 0.22132 0.00893888 0 0 0 0 -0.0495723 0.00160845 0 -0.0345292 -0.0322081 0 -0.0495723 0.00160845 0 493.699 493.699 1001.17 
106 1 1 0.232406 0.00484643 0 0 0 0 -0.0532449 0.00467078 0 -0.0339627 0.0255576 0 -0.0532449 0.00467078 0 513.441 513.441 1001.22 
107 1 1 0.240304 0.0151904 0 0 0 0 -0.0881927 0.012278 0 -0.00390056 0.00944793 0 -0.0881927 0.012278 0 466.984 466.984 1001.11 
108 1 1 0.24626 0.00625806 0 0 0 0 -0.0605907 -0.00867612 0 -0.0730842 0.00455213 0 -0.0605907 -0.00867612 0 531.073 531.073 1001.26 
109 1 1 0.251537 0.0140086 0 0 0 0 -0.0895286 0.00279129 0 -0.0261183 0.0183743 0 -0.0895286 0.00279129 0 478.183 478.183 1001.13 
110 1 1 0.258356 0.0172584 0 0 0 0 -0.111176 0.0282038 0 0.0301062 -0.00653877 0 -0.111176 0.0282038 0 467.386 467.386 1001.11 
111 1 1 0.260137 0.00525858 0 0 0 0 -0.0765043 0.0216983 0 -0.0588744 -0.00658762 0 -0.0765043 0.0216983 0 516.016 516.016 1001.22 
112 1 1 0.267709 0.010729 0 0 0 0 -0.108462 0.00669562 0 -0.0413607 0.0468831 0 -0.108462 0.00669562 0 526.721 526.721 1001.25 
113 1 1 0.278046 0.0054688 0 0 0 0 -0.119999 0.00729022 0 -0.0430736 -0.0482922 0 -0.119999 0.00729022 0 529.247 529.247 1001.26 
114 1 1 0.287946 0.0159436 0 0 0 0 -0.0893679 -0.0312583 0 -0.0244763 -0.0132393 0 -0.0893679 -0.0312583 0 499.852 499.852 1001.19 
115 1 1 0.311098 0.0243114 0 0 0 0 -0.148621 0.00663013 0 -0.0645071 0.0358946 0 -0.148621 0.00663013 0 469.704 469.704 1001.11 
116 1 1 0.291754 0.00562512 0 0 0 0 -0.118972 -0.00820125 0 -0.0727294 0.0829164 0 -0.118972 -0.00820125 0 549.065 549.065 1001.3 
117 1 1 0.307023 0.00523295 0 0 0 0 -0.107823 -0.00651129 0 -0.0146052 -0.0980719 0 -0.107823 -0.00651129 0 541.376 541.376 1001.28 
118 1 1 0.31725 0.00932428 0 0 0 0 -0.0906177 -0.00995008 0 -0.016529 0.0990039 0 -0.0906177 -0.00995008 0 533.547 533.547 1001.27 
119 1 1 0.327525 0.0054071 0 0 0 0 -0.0904932 0.00810559 0 -0.00811535 -0.0696627 0 -0.0904932 0.00810559 0 545.827 545.827 1001.29 
120 1 1 0.336596 0.0245455 0 0 0 0 -0.131734 -0.015666 0 -0.0149072 0.0345549 0 -0.131734 -0.015666 0 454.694 454.694 1001.08 
121 1 1 0.336671 0.0129175 0 0 0 0 -0.128615 -0.000564149 0 -0.0378201 -0.00999296 0 -0.128615 -0.000564149 0 502.5 502.5 1001.19 
122 1 1 0.343011 0.0051717 0 0 0 0 -0.0945145 -0.0102401 0 0.0129805 0.0713738 0 -0.0945145 -0.0102401 0 561.01 561.01 1001.33 
123 1 1 0.363218 0.0143502 0 0 0 0 -0.108827 -0.00653555 0 -0.0156557 0.0098015 0 -0.108827 -0.00653555 0 521.982 521.982 1001.24 
124 1 1 0.356986 0.00608281 0 0 0 0 -0.0712111 -0.00441782 0 0.0182391 -0.0457496 0 -0.0712111 -0.00441782 0 552.858 552.858 1001.31 
125 1 1 0.37066 0.00569403 0 0 0 0 -0.0753952 0.00845954 0 0.0115711 0.0760133 0 -0.0753952 0.00845954 0 567.873 567.873 1001.35 
126 1 1 0.378773 0.0191532 0 0 0 0 -0.0858742 -0.0108237 0 0.0594511 0.0434143 0 -0.0858742 -0.0108237 0 496.651 496.651 1001.18 
127 1 1 0.382733 0.00696456 0 0 0 0 -0.090943 0.000367718 0 -0.102544 0.00692816 0 -0.090943 0.000367718 0 540.894 540.894 1001.28 
128 1 1 0.38588 0.0150849 0 0 0 0 -0.0964572 0.0257293 0 0.0371773 -0.0455457 0 -0.0964572 0.0257293 0 497.625 497.625 1001.18 
129 1 1 0.405559 0.00831849 0 0 0 0 -0.087158 0.0009708 0 0.0275039 0.025309 0 -0.087158 0.0009708 0 539.288 539.288 1001.28 
130 1 1 0.417508 0.00576181 0 0 0 0 -0.075717 -0.00782809 0 0.00296539 -0.0479272 0 -0.075717 -0.00782809 0 556.717 556.717 1001.32 
131 1 1 0.434275 0.0046995 0 0 0 0 -0.046864 -0.00146181 0 0.0238672 0.035637 0 -0.046864 -0.00146181 0 572.07 572.07 1001.36 
132 1 1 0.425107 0.0119796 0 0 0 0 -0.0518553 -0.0252382 0 0.0679011 0.0303739 0 -0.0518553 -0.0252382 0 538.557 538.557 1001.28 
133 1 1 0.441483 0.0126598 0 0 0 0 -0.00689835 -0.00932611 0 0.125995 0.0281445 0 -0.00689835 -0.00932611 0 517.084 517.084 1001.23 
134 1 1 0.450066 0.0198149 0 0 0 0 -0.0195915 0.000932304 0 -0.0363725 0.0442239 0 -0.0195915 0.000932304 0 492.103 492.103 1001.17 
135 1 1 0.450121 0.00598937 0 0 0 0 -0.0371134 -0.00844138 0 -0.078034 0.0286859 0 -0.0371134 -0.00844138 0 561.155 561.155 1001.33 
136 1 1 0.454914 0.0131338 0 0 0 0 -0.0220133 0.00122545 0 0.109122 -0.00158959 0 -0.0220133 0.00122545 0 512.688 512.688 1001.22 
137 1 1 0.464759 0.00482984 0 0 0 0 -0.0103466 -0.00579258 0 -0.0298691 -0.0305173 0 -0.0103466 -0.00579258 0 542.458 542.458 1001.29 
138 1 1 0.478743 0.00624071 0 0 0 0 -0.00894176 -0.000190033 0 0.0105378 -0.00652114 0 -0.00894176 -0.000190033 0 527.899 527.899 1001.25 
139 1 1 0.492652 0.00522004 0 0 0 0 -0.00639285 -0.00435572 0 0.0282401 0.0020226 0 -0.00639285 -0.00435572 0 555.439 555.439 1001.32 
140 1 1 0.202993 0.0320546 0 0 0 0 -0.0590975 0.0236964 0 -0.0370082 0.0415167 0 -0.0590975 0.0236964 0 331.23 331.23 1000.79 
141 1 1 0.205954 0.0203044 0 0 0 0 -0.0956552 0.00851024 0 -0.0639774 0.0429106 0 -0.0956552 0.00851024 0 416.851 416.851 1000.99 
142 1 1 0.243475 0.0422312 0 0 0 0 -0.128636 0.0231395 0 -0.0344004 -0.0103869 0 -0.128636 0.0231395 0 284.391 284.391 1000.68 
143 1 1 0.232964 0.0254952 0 0 0 0 -0.108572 0.0094223 0 -0.0403876 0.0220854 0 -0.108572 0.0094223 0 404.069 404.069 1000.96 
144 1 1 0.241119 0.0303279 0 0 0 0 -0.10105 0.0192453 0 -0.0654822 0.00615811 0 -0.10105 0.0192453 0 365.11 365.11 1000.87 
145 1 1 0.224165 0.0180926 0 0 0 0 -0.0964009 0.0074177 0 -0.0430353 -0.0181459 0 -0.0964009 0.0074177 0 432.777 432.777 1001.03 
146 1 1 0.250818 0.0343545 0 0 0 0 -0.103322 0.0202734 0 -0.0634322 -0.0138164 0 -0.103322 0.0202734 0 341.811 341.811 1000.81 
147 1 1 0.232742 0.0149641 0 0 0 0 -0.0799667 0.00135094 0 -0.0476366 0.0332989 0 -0.0799667 0.00135094 0 468.622 468.622 1001.11 
148 1 1 0.246065 0.0230754 0 0 0 0 -0.12413 0.00941905 0 -0.0419751 -0.0356642 0 -0.12413 0.00941905 0 421.93 421.93 1001 
149 1 1 0.267199 0.0248796 0 0 0 0 -0.130518 0.0141112 0 -0.0471403 0.0578619 0 -0.130518 0.0141112 0 439.972 439.972 1001.04 
150 1 1 0.283116 0.0376182 0 0 0 0 -0.151593 -0.0160294 0 -0.011655 -0.0199076 0 -0.151593 -0.0160294 0 358.789 358.789 1000.85 
151 1 1 0.271733 0.0176013 0 0 0 0 -0.115008 0.0242978 0 -0.0159542 0.00855172 0 -0.115008 0.0242978 0 473.587 473.587 1001.12 
152 1 1 0.279087 0.0270422 0 0 0 0 -0.11166 -0.028259 0 -0.0251982 -0.0414542 0 -0.11166 -0.028259 0 431.601 431.601 1001.02 
153 1 1 0.280821 0.0149581 0 0 0 0 -0.112811 0.00372446 0 -0.0403932 0.032131 0 -0.112811 0.00372446 0 478.931 478.931 1001.14 
154 1 1 0.298355 0.0128423 0 0 0 0 -0.0934962 0.00508903 0 -0.0376685 -0.00400308 0 -0.0934962 0.00508903 0 498.525 498.525 1001.18 
155 1 1 0.319003 0.0172114 0 0 0 0 -0.145531 0.00622419 0 -0.0221433 -0.0267445 0 -0.145531 0.00622419 0 494.144 494.144 1001.17 
156 1 1 0.307538 0.0159308 0 0 0 0 -0.108107 -0.00517621 0 -0.0398933 -0.0487118 0 -0.108107 -0.00517621 0 516.52 516.52 1001.23 
157 1 1 0.329176 0.0157009 0 0 0 0 -0.134311 0.0173918 0 -0.0492502 0.00590706 0 -0.134311 0.0173918 0 491.271 491.271 1001.17 
158 1 1 0.325956 0.0252879 0 0 0 0 -0.136407 0.00408546 0 -0.0519693 -0.0554412 0 -0.136407 0.00408546 0 448.132 448.132 1001.06 
159 1 1 0.348594 0.0284595 0 0 0 0 -0.142557 -0.0348428 0 -0.0173982 -0.0201154 0 -0.142557 -0.0348428 0 433.454 433.454 1001.03 
160 1 1 0.344661 0.0186615 0 0 0 0 -0.102047 -0.0342495 0 -0.0720351 -0.0260784 0 -0.102047 -0.0342495 0 512.557 512.557 1001.22 
161 1 1 0.350771 0.0136755 0 0 0 0 -0.121597 -0.0137376 0 0.0283923 -0.0202919 0 -0.121597 -0.0137376 0 527.36 527.36 1001.25 
162 1 1 0.364476 0.0264581 0 0 0 0 -0.109967 -0.019591 0 -0.0348129 -0.0137445 0 -0.109967 -0.019591 0 479.23 479.23 1001.14 
163 1 1 0.371627 0.0157445 0 0 0 0 -0.101325 -0.00359412 0 0.006088 0.0530091 0 -0.101325 -0.00359412 0 525.241 525.241 1001.25 
164 1 1 0.398927 0.031363 0 0 0 0 -0.117027 -0.0166955 0 -0.0621877 -0.0595831 0 -0.117027 -0.0166955 0 415.33 415.33 1000.99 
165 1 1 0.395303 0.00552013 0 0 0 0 -0.101294 -0.00607752 0 0.0237929 -0.0449059 0 -0.101294 -0.00607752 0 552.12 552.12 1001.31 
166 1 1 0.399768 0.020924 0 0 0 0 -0.0648653 -0.0214906 0 -0.0157742 0.0124587 0 -0.0648653 -0.0214906 0 490.584 490.584 1001.16 
167 1 1 0.408864 0.0355004 0 0 0 0 -0.0851139 -0.0151941 0 -0.0276546 -0.057624 0 -0.0851139 -0.0151941 0 395.264 395.264 1000.94 
168 1 1 0.418642 0.0177801 0 0 0 0 -0.0685584 -0.0020707 0 0.00512571 -0.032958 0 -0.0685584 -0.0020707 0 495.553 495.553 1001.18 
169 1 1 0.412921 0.0425273 0 0 0 0 -0.134868 -0.0375444 0 -0.0453666 0.058383 0 -0.134868 -0.0375444 0 355.374 355.374 1000.84 
170 1 1 0.409598 0.0151342 0 0 0 0 -0.0650358 -0.0133921 0 0.00403249 0.00406629 0 -0.0650358 -0.0133921 0 539.198 539.198 1001.28 
171 1 1 0.418426 0.0287165 0 0 0 0 -0.0885767 -0.0109091 0 -0.0387311 0.0153063 0 -0.0885767 -0.0109091 0 423.682 423.682 1001.01 
172 1 1 0.434268 0.0163782 0 0 0 0 -0.0432819 -0.022297 0 -0.0170725 0.0121434 0 -0.0432819 -0.022297 0 518.534 518.534 1001.23 
173 1 1 0.440871 0.0242151 0 0 0 0 -0.0678426 -0.0211887 0 0.0112211 0.00807917 0 -0.0678426 -0.0211887 0 480.839 480.839 1001.14 
174 1 1 0.471042 0.0135761 0 0 0 0 -0.00803452 0.00336729 0 0.0380325 -0.014105 0 -0.00803452 0.00336729 0 519.096 519.096 1001.23 
175 1 1 0.467742 0.0242478 0 0 0 0 -0.0462901 0.00709487 0 0.0933637 0.0217519 0 -0.0462901 0.00709487 0 459.688 459.688 1001.09 
176 1 1 0.479399 0.0207726 0 0 0 0 -0.0523126 -0.0154699 0 -0.0654012 -0.035131 0 -0.0523126 -0.0154699 0 485.036 485.036 1001.15 
177 1 1 0.483438 0.0134516 0 0 0 0 0.00984663 -0.00464581 0 0.0413772 0.016313 0 0.00984663 -0.00464581 0 504.291 504.291 1001.2 
178 1 1 0.491935 0.0175411 0 0 0 0 -0.00159793 -0.00707271 0 -0.0660188 0.0222514 0 -0.00159793 -0.00707271 0 510.249 510.249 1001.21 
179 1 1 0.198545 0.0456614 0 0 0 0 -0.0547772 0.0273531 0 -0.0445023 -0.00389991 0 -0.0547772 0.0273531 0 277.397 277.397 1000.66 
180 1 1 0.212294 0.0295218 0 0 0 0 -0.0973911 0.0246637 0 -0.0391925 0.0186035 0 -0.0973911 0.0246637 0 373.301 373.301 1000.89 
181 1 1 0.218378 0.0404407 0 0 0 0 -0.0784984 0.0435591 0 -0.039057 -0.00498909 0 -0.0784984 0.0435591 0 289.38 289.38 1000.69 
182 1 1 0.226504 0.0348032 0 0 0 0 -0.109977 -0.0116716 0 -0.0540681 0.0170803 0 -0.109977 -0.0116716 0 349.389 349.389 1000.83 
183 1 1 0.246424 0.0534012 0 0 0 0 -0.110947 0.0270573 0 -0.00241098 0.0234979 0 -0.110947 0.0270573 0 235.186 235.186 1000.56 
184 1 1 0.235286 0.0507478 0 0 0 0 -0.114451 0.0221694 0 -0.00946336 -0.0508665 0 -0.114451 0.0221694 0 239.93 239.93 1000.57 
185 1 1 0.233601 0.0387423 0 0 0 0 -0.111141 0.0134719 0 -0.0614783 0.0517325 0 -0.111141 0.0134719 0 301.709 301.709 1000.72 
186 1 1 0.25688 0.0265608 0 0 0 0 -0.126346 0.0303353 0 -0.0920726 -0.00802358 0 -0.126346 0.0303353 0 397.267 397.267 1000.94 
187 1 1 0.272084 0.0340102 0 0 0 0 -0.128327 0.0121431 0 -0.0641986 0.0567885 0 -0.128327 0.0121431 0 376.713 376.713 1000.89 
188 1 1 0.276175 0.0446834 0 0 0 0 -0.130183 0.0154523 0 -0.00770743 0.020266 0 -0.130183 0.0154523 0 281.073 281.073 1000.67 
189 1 1 0.293353 0.0339497 0 0 0 0 -0.145726 0.0172419 0 -0.0349391 -0.0214574 0 -0.145726 0.0172419 0 376.354 376.354 1000.89 
190 1 1 0.298336 0.0217841 0 0 0 0 -0.124533 0.0122352 0 -0.0117469 -0.0242597 0 -0.124533 0.0122352 0 452.763 452.763 1001.07 
191 1 1 0.299467 0.0426071 0 0 0 0 -0.156229 0.0277143 0 -0.041848 0.0105676 0 -0.156229 0.0277143 0 330.516 330.516 1000.79 
192 1 1 0.302724 0.0306472 0 0 0 0 -0.145467 0.0261482 0 -0.070051 -0.0144644 0 -0.145467 0.0261482 0 406.607 406.607 1000.97 
193 1 1 0.32983 0.0340258 0 0 0 0 -0.12335 -0.00693043 0 -0.0456045 -0.0110082 0 -0.12335 -0.00693043 0 405.556 405.556 1000.96 
194 1 1 0.311785 0.0476383 0 0 0 0 -0.168749 0.0224756 0 -0.0770612 -0.00703672 0 -0.168749 0.0224756 0 308.339 308.339 1000.73 
195 1 1 0.333045 0.0437528 0 0 0 0 -0.16292 -0.00399446 0 -0.0211872 -0.0243619 0 -0.16292 -0.00399446 0 353.779 353.779 1000.84 
196 1 1 0.340758 0.0340085 0 0 0 0 -0.137373 -0.0149659 0 -0.0390424 -0.0171901 0 -0.137373 -0.0149659 0 391.773 391.773 1000.93 
197 1 1 0.355673 0.0449071 0 0 0 0 -0.14196 -0.0315993 0 -0.033531 -0.0484734 0 -0.14196 -0.0315993 0 333.119 333.119 1000.79 
198 1 1 0.354934 0.0340078 0 0 0 0 -0.145854 -0.0159028 0 0.00432884 -0.0378264 0 -0.145854 -0.0159028 0 390.341 390.341 1000.93 
199 1 1 0.365183 0.0365227 0 0 0 0 -0.148431 -0.00382657 0 -0.061789 0.0410861 0 -0.148431 -0.00382657 0 373.832 373.832 1000.89 
200 1 1 0.357177 0.0211903 0 0 0 0 -0.107229 0.00730275 0 -0.0630641 -0.000706811 0 -0.107229 0.00730275 0 466.414 466.414 1001.11 
201 1 1 0.388885 0.026012 0 0 0 0 -0.0855702 -0.0177059 0 0.0327094 0.00186326 0 -0.0855702 -0.0177059 0 460.621 460.621 1001.09 
202 1 1 0.372152 0.0414317 0 0 0 0 -0.104847 -0.0217778 0 0.0702027 -0.00426861 0 -0.104847 -0.0217778 0 347.164 347.164 1000.82 
203 1 1 0.381553 0.0329667 0 0 0 0 -0.146761 -0.0121838 0 -0.0441401 -0.016489 0 -0.146761 -0.0121838 0 424.639 424.639 1001.01 
204 1 1 0.391315 0.0500055 0 0 0 0 -0.126808 -0.0135074 0 -0.0806796 -0.0552222 0 -0.126808 -0.0135074 0 296.847 296.847 1000.71 
205 1 1 0.395012 0.0159036 0 0 0 0 -0.0777708 -0.0171601 0 -0.0362449 -0.0840625 0 -0.0777708 -0.0171601 0 516.812 516.812 1001.23 
206 1 1 0.409014 0.0252761 0 0 0 0 -0.0821157 -0.0166831 0 0.0843286 0.00137361 0 -0.0821157 -0.0166831 0 459.147 459.147 1001.09 
207 1 1 0.436636 0.0396848 0 0 0 0 -0.0340648 -0.0332281 0 -0.021598 0.0927947 0 -0.0340648 -0.0332281 0 371.481 371.481 1000.88 
208 1 1 0.432953 0.0311532 0 0 0 0 -0.0733834 -0.0303563 0 0.0454844 0.0406042 0 -0.0733834 -0.0303563 0 432.671 432.671 1001.03 
209 1 1 0.423677 0.036955 0 0 0 0 -0.0450028 -0.0637146 0 0.0571666 -0.0756409 0 -0.0450028 -0.0637146 0 392.226 392.226 1000.93 
210 1 1 0.445742 0.032482 0 0 0 0 -0.05381 -0.0544703 0 0.0764051 -0.0116079 0 -0.05381 -0.0544703 0 414.922 414.922 1000.98 
211 1 1 0.427226 0.0238158 0 0 0 0 -0.0639179 -0.0620007 0 0.0238042 -0.0058567 0 -0.0639179 -0.0620007 0 489.945 489.945 1001.16 
212 1 1 0.455388 0.0272217 0 0 0 0 -0.0365676 -0.00570597 0 0.0681729 -0.00656307 0 -0.0365676 -0.00570597 0 461.26 461.26 1001.09 
213 1 1 0.463036 0.0167841 0 0 0 0 -0.022047 -0.0328943 0 -0.0261764 -0.00145531 0 -0.022047 -0.0328943 0 507.827 507.827 1001.2 
214 1 1 0.477659 0.0394656 0 0 0 0 0.0198923 -0.0131915 0 0.095753 -0.0472124 0 0.0198923 -0.0131915 0 341.331 341.331 1000.81 
215 1 1 0.489064 0.0273146 0 0 0 0 -0.00363172 -0.0276279 0 0.0455238 0.0223432 0 -0.00363172 -0.0276279 0 473.845 473.845 1001.12 
216 1 1 0.478144 0.0297012 0 0 0 0 -0.00398397 -0.03094 0 -0.0679177 0.0942111 0 -0.00398397 -0.03094 0 433.867 433.867 1001.03 
217 1 1 0.489204 0.0367802 0 0 0 0 -0.0117306 -0.03836 0 -0.0490652 -0.0492983 0 -0.0117306 -0.03836 0 409.144 409.144 1000.97 
218 1 1 0.215354 0.0522896 0 0 0 0 -0.0908161 0.0458452 0 -0.0825817 0.0184321 0 -0.0908161 0.0458452 0 236.288 236.288 1000.56 
219 1 1 0.163506 0.039959 0 0 0 0 -0.059858 0.0283565 0 -0.0657882 0.00152931 0 -0.059858 0.0283565 0 298.879 298.879 1000.71 
220 1 1 0.188668 0.0447343 0 0 0 0 -0.0463426 0.000524658 0 -0.0643545 0.0340338 0 -0.0463426 0.000524658 0 286.038 286.038 1000.68 
221 1 1 0.225627 0.0505172 0 0 0 0 -0.0955925 0.0359497 0 -0.0670171 -0.0169012 0 -0.0955925 0.0359497 0 272.103 272.103 1000.65 
222 1 1 0.208932 0.041143 0 0 0 0 -0.0675533 0.0478344 0 -0.0743578 0.00254902 0 -0.0675533 0.0478344 0 285.833 285.833 1000.68 
223 1 1 0.254879 0.0443118 0 0 0 0 -0.128313 0.0171344 0 -0.091204 0.00908241 0 -0.128313 0.0171344 0 290.453 290.453 1000.69 
224 1 1 0.262227 0.0359753 0 0 0 0 -0.0977001 0.040638 0 -0.0585514 -0.00314268 0 -0.0977001 0.040638 0 350.218 350.218 1000.83 
225 1 1 0.266019 0.0462281 0 0 0 0 -0.122742 0.0392427 0 -0.0569616 -0.0443834 0 -0.122742 0.0392427 0 274.151 274.151 1000.65 
226 1 1 0.281711 0.0552317 0 0 0 0 -0.143606 0.0264267 0 -0.0979943 -0.00836954 0 -0.143606 0.0264267 0 245.363 245.363 1000.58 
227 1 1 0.288387 0.0258957 0 0 0 0 -0.114268 -0.00629209 0 -0.0406462 0.0406795 0 -0.114268 -0.00629209 0 427.42 427.42 1001.01 
228 1 1 0.289235 0.0459071 0 0 0 0 -0.164329 0.00901014 0 -0.0513443 0.0113017 0 -0.164329 0.00901014 0 291.596 291.596 1000.69 
229 1 1 0.301016 0.0533258 0 0 0 0 -0.168499 0.0151489 0 -0.0489466 -0.0138847 0 -0.168499 0.0151489 0 268.142 268.142 1000.64 