ITEM: TIMESTEP
31000
ITEM: NUMBER OF ATOMS
754
ITEM: BOX BOUNDS ff ff pp
-0.021 0.521
-0.021 0.5
-0.001 0.001
ITEM: ATOMS id type type x y z ix iy iz vx vy vz fx fy fz vx vy vz p p rho 
1 1 1 0.0110537 0.00713514 0 0 0 0 0.0429701 -0.0371334 0 -0.0796748 0.0715269 0 0.0429701 -0.0371334 0 553.904 553.904 1001.31 
2 1 1 0.0261881 0.00768351 0 0 0 0 0.00466863 0.0515539 0 -0.360519 0.185602 0 0.00466863 0.0515539 0 460.729 460.729 1001.09 
3 1 1 0.0488731 0.00725985 0 0 0 0 0.119462 -0.000388563 0 -0.272081 0.0323126 0 0.119462 -0.000388563 0 560.137 560.137 1001.33 
4 1 1 0.0639048 0.00874032 0 0 0 0 0.0493994 0.0424457 0 -0.384735 0.0928475 0 0.0493994 0.0424457 0 526.352 526.352 1001.25 
5 1 1 0.0851045 0.00690597 0 0 0 0 0.131949 -0.00635534 0 -0.238634 0.153964 0 0.131949 -0.00635534 0 616.909 616.909 1001.46 
6 1 1 0.100004 0.00823199 0 0 0 0 0.119864 0.0113094 0 -0.277289 -0.13542 0 0.119864 0.0113094 0 561.254 561.254 1001.33 
7 1 1 0.122413 0.00786375 0 0 0 0 0.214533 0.0246409 0 -0.130195 0.0811242 0 0.214533 0.0246409 0 615.578 615.578 1001.46 
8 1 1 0.135122 0.00817522 0 0 0 0 0.205549 -0.00416737 0 -0.116042 -0.0681147 0 0.205549 -0.00416737 0 614.749 614.749 1001.46 
9 1 1 0.154426 0.0072929 0 0 0 0 0.19175 -0.00732346 0 -0.207206 0.063021 0 0.19175 -0.00732346 0 647.423 647.423 1001.53 
10 1 1 0.169213 0.00883095 0 0 0 0 0.233519 -0.00299651 0 -0.100705 -0.126713 0 0.233519 -0.00299651 0 662.479 662.479 1001.57 
11 1 1 0.0177929 0.0151375 0 0 0 0 0.0497414 -0.0124759 0 0.540979 -0.206294 0 0.0497414 -0.0124759 0 489.592 489.592 1001.16 
12 1 1 0.0350428 0.0101124 0 0 0 0 0.0990529 -0.10003 0 0.300798 -0.0686752 0 0.0990529 -0.10003 0 548.589 548.589 1001.3 
13 1 1 0.0544461 0.0139962 0 0 0 0 0.140881 0.00202455 0 0.425112 0.0138524 0 0.140881 0.00202455 0 532.991 532.991 1001.26 
14 1 1 0.0714886 0.0106824 0 0 0 0 0.126242 -0.0540718 0 0.185619 -0.158433 0 0.126242 -0.0540718 0 530.496 530.496 1001.26 
15 1 1 0.0918735 0.0153997 0 0 0 0 0.176263 0.0454521 0 0.0318517 -0.00329057 0 0.176263 0.0454521 0 500.107 500.107 1001.19 
16 1 1 0.110991 0.00916439 0 0 0 0 0.192591 -0.0672285 0 -0.0662816 0.0702901 0 0.192591 -0.0672285 0 593.342 593.342 1001.41 
17 1 1 0.126899 0.0171016 0 0 0 0 0.167094 -0.00724916 0 -0.0810249 -0.0943027 0 0.167094 -0.00724916 0 540.056 540.056 1001.28 
18 1 1 0.147136 0.0125392 0 0 0 0 0.206847 -0.0167204 0 -0.0993846 0.00430968 0 0.206847 -0.0167204 0 595.728 595.728 1001.41 
19 1 1 0.161946 0.0145635 0 0 0 0 0.251215 -0.00806088 0 0.111612 -0.0503289 0 0.251215 -0.00806088 0 602.022 602.022 1001.43 
20 1 1 0.172325 0.0200269 0 0 0 0 0.251756 -0.000276471 0 -0.216946 -0.0193454 0 0.251756 -0.000276471 0 559.336 559.336 1001.33 
21 1 1 0.00964806 0.0170679 0 0 0 0 0.00570719 -0.0376156 0 -0.184138 0.029273 0 0.00570719 -0.0376156 0 416.64 416.64 1000.99 
22 1 1 0.0315225 0.0183048 0 0 0 0 0.125795 -0.00851965 0 -0.28358 -0.281247 0 0.125795 -0.00851965 0 415.511 415.511 1000.99 
23 1 1 0.0450416 0.0164806 0 0 0 0 0.00231895 -0.0171568 0 -0.317596 0.115997 0 0.00231895 -0.0171568 0 462.41 462.41 1001.1 
24 1 1 0.0708251 0.0184676 0 0 0 0 0.217909 0.000341498 0 -0.291276 0.205725 0 0.217909 0.000341498 0 463.949 463.949 1001.1 
25 1 1 0.0820339 0.0157898 0 0 0 0 0.0873112 -0.0703747 0 -0.145403 0.107691 0 0.0873112 -0.0703747 0 493.476 493.476 1001.17 
26 1 1 0.102412 0.0173697 0 0 0 0 0.186005 -0.0483892 0 0.00436298 -0.114088 0 0.186005 -0.0483892 0 524.77 524.77 1001.24 
27 1 1 0.116342 0.0177438 0 0 0 0 0.13934 -0.0101127 0 -0.115064 -0.0450076 0 0.13934 -0.0101127 0 509.147 509.147 1001.21 
28 1 1 0.140488 0.0155119 0 0 0 0 0.196412 0.0222348 0 -0.109496 0.0375608 0 0.196412 0.0222348 0 568.096 568.096 1001.35 
29 1 1 0.157506 0.0203911 0 0 0 0 0.240357 -0.0581987 0 -0.186337 0.0448953 0 0.240357 -0.0581987 0 559.409 559.409 1001.33 
30 1 1 0.177414 0.0317703 0 0 0 0 0.254818 0.0329323 0 -0.0520631 -0.0985177 0 0.254818 0.0329323 0 447.388 447.388 1001.06 
31 1 1 0.0201436 0.0247217 0 0 0 0 0.0816189 -0.0446567 0 0.00113611 0.0421916 0 0.0816189 -0.0446567 0 404.344 404.344 1000.96 
32 1 1 0.038648 0.0235705 0 0 0 0 0.116226 -0.0688853 0 0.304375 0.0219761 0 0.116226 -0.0688853 0 435.33 435.33 1001.03 
33 1 1 0.0575855 0.0234231 0 0 0 0 0.197667 -0.0723266 0 0.10495 -0.341626 0 0.197667 -0.0723266 0 448.242 448.242 1001.06 
34 1 1 0.0770884 0.026691 0 0 0 0 0.180589 0.0194744 0 -0.0593331 -0.192677 0 0.180589 0.0194744 0 437.056 437.056 1001.04 
35 1 1 0.0991857 0.0256489 0 0 0 0 0.213183 -0.0343897 0 -0.104506 -0.0155439 0 0.213183 -0.0343897 0 466.907 466.907 1001.11 
36 1 1 0.120256 0.029352 0 0 0 0 0.233987 0.0241385 0 -0.098218 -0.130133 0 0.233987 0.0241385 0 395.597 395.597 1000.94 
37 1 1 0.142295 0.0271945 0 0 0 0 0.238599 -0.0308828 0 -0.230964 -0.0481136 0 0.238599 -0.0308828 0 472.014 472.014 1001.12 
38 1 1 0.149024 0.0260363 0 0 0 0 0.26384 -0.0119416 0 0.0333072 -0.156361 0 0.26384 -0.0119416 0 488.214 488.214 1001.16 
39 1 1 0.166986 0.0278774 0 0 0 0 0.256068 0.0177578 0 -0.14456 -0.0502426 0 0.256068 0.0177578 0 472.431 472.431 1001.12 
40 1 1 0.173093 0.0435553 0 0 0 0 0.160297 0.0152543 0 -0.167925 0.0769876 0 0.160297 0.0152543 0 293.789 293.789 1000.7 
41 1 1 0.00883859 0.0281605 0 0 0 0 -0.0421297 -0.0944905 0 0.0432784 -0.0554755 0 -0.0421297 -0.0944905 0 315.63 315.63 1000.75 
42 1 1 0.0268748 0.0264993 0 0 0 0 -0.0341602 -0.0716199 0 -0.134935 0.246921 0 -0.0341602 -0.0716199 0 316.99 316.99 1000.75 
43 1 1 0.0501852 0.0279377 0 0 0 0 0.1369 -0.0433722 0 -0.38437 -0.012656 0 0.1369 -0.0433722 0 330.58 330.58 1000.79 
44 1 1 0.0624668 0.0273592 0 0 0 0 0.0901893 -0.0454166 0 0.31943 0.117289 0 0.0901893 -0.0454166 0 381.996 381.996 1000.91 
45 1 1 0.0872555 0.0246538 0 0 0 0 0.223515 -0.054455 0 -0.0169352 0.0693485 0 0.223515 -0.054455 0 362.188 362.188 1000.86 
46 1 1 0.111386 0.0236012 0 0 0 0 0.254528 -0.0228395 0 -0.173369 0.188487 0 0.254528 -0.0228395 0 432.648 432.648 1001.03 
47 1 1 0.130796 0.0222132 0 0 0 0 0.21903 -0.022143 0 -0.0790647 0.199293 0 0.21903 -0.022143 0 522.432 522.432 1001.24 
48 1 1 0.157738 0.0316207 0 0 0 0 0.221791 -0.0668457 0 -0.0171267 0.0634086 0 0.221791 -0.0668457 0 390.644 390.644 1000.93 
49 1 1 0.168205 0.0375535 0 0 0 0 0.223159 -0.0441742 0 -0.208393 0.00658654 0 0.223159 -0.0441742 0 364.514 364.514 1000.87 
50 1 1 0.165107 0.0552955 0 0 0 0 0.0787425 -0.0599507 0 0.309254 0.0176863 0 0.0787425 -0.0599507 0 174.443 174.443 1000.41 
51 1 1 0.0136272 0.034908 0 0 0 0 0.0411646 -0.0447818 0 -0.048552 0.063127 0 0.0411646 -0.0447818 0 253.513 253.513 1000.6 
52 1 1 0.0347709 0.0348756 0 0 0 0 0.168364 -0.0593176 0 -0.196918 -0.0700988 0 0.168364 -0.0593176 0 324.897 324.897 1000.77 
53 1 1 0.0437972 0.0348913 0 0 0 0 0.0533291 -0.0651297 0 0.12817 -0.105514 0 0.0533291 -0.0651297 0 277.043 277.043 1000.66 
54 1 1 0.0700169 0.0328751 0 0 0 0 0.218582 -0.0515801 0 -0.164484 0.134797 0 0.218582 -0.0515801 0 282.756 282.756 1000.67 
55 1 1 0.0897449 0.0341838 0 0 0 0 0.24195 0.00389591 0 -0.117835 0.221238 0 0.24195 0.00389591 0 254.943 254.943 1000.61 
56 1 1 0.110569 0.0345093 0 0 0 0 0.273608 -0.0162077 0 -0.127456 -0.0512054 0 0.273608 -0.0162077 0 315.44 315.44 1000.75 
57 1 1 0.128471 0.0343379 0 0 0 0 0.250584 -0.0458912 0 -0.244345 -0.123542 0 0.250584 -0.0458912 0 345.4 345.4 1000.82 
58 1 1 0.148526 0.0388954 0 0 0 0 0.185379 0.0181291 0 -0.268994 0.00214849 0 0.185379 0.0181291 0 287.677 287.677 1000.68 
59 1 1 0.161901 0.0483536 0 0 0 0 0.118126 -0.0635788 0 0.0119079 -0.0021168 0 0.118126 -0.0635788 0 302.779 302.779 1000.72 
60 1 1 0.180105 0.0542367 0 0 0 0 0.169494 -0.101797 0 -0.406984 0.108101 0 0.169494 -0.101797 0 236.289 236.289 1000.56 
61 1 1 0.0155512 0.0394168 0 0 0 0 0.00831805 -0.15677 0 -0.147873 0.274837 0 0.00831805 -0.15677 0 196.878 196.878 1000.47 
62 1 1 0.0298866 0.039184 0 0 0 0 0.0946046 -0.115375 0 -0.252298 -0.0835991 0 0.0946046 -0.115375 0 212.441 212.441 1000.51 
63 1 1 0.0528765 0.0392517 0 0 0 0 0.236853 -0.1099 0 -0.150368 -0.00810647 0 0.236853 -0.1099 0 243.873 243.873 1000.58 
64 1 1 0.0673837 0.0408384 0 0 0 0 0.168224 -0.00609752 0 0.0608886 0.039446 0 0.168224 -0.00609752 0 177.977 177.977 1000.42 
65 1 1 0.0816344 0.0367363 0 0 0 0 0.164984 -0.110888 0 0.216371 0.109871 0 0.164984 -0.110888 0 287.313 287.313 1000.68 
66 1 1 0.0995417 0.0339084 0 0 0 0 0.195229 -0.0792118 0 -0.0396758 0.0685394 0 0.195229 -0.0792118 0 333.113 333.113 1000.79 
67 1 1 0.120907 0.04019 0 0 0 0 0.217034 0.0343769 0 -0.127777 0.0532437 0 0.217034 0.0343769 0 249.957 249.957 1000.59 
68 1 1 0.13693 0.0334653 0 0 0 0 0.230147 -0.0510068 0 0.0403549 0.0328798 0 0.230147 -0.0510068 0 356.76 356.76 1000.85 
69 1 1 0.155681 0.0412792 0 0 0 0 0.163326 -0.0465082 0 -0.140753 -0.0261555 0 0.163326 -0.0465082 0 301.633 301.633 1000.72 
70 1 1 0.162543 0.0630051 0 0 0 0 0.0255775 -0.117631 0 0.298874 0.193489 0 0.0255775 -0.117631 0 143.187 143.187 1000.34 
71 1 1 0.0203377 0.0481459 0 0 0 0 0.180761 -0.129368 0 -0.413701 0.267788 0 0.180761 -0.129368 0 143.971 143.971 1000.34 
72 1 1 0.0236329 0.04636 0 0 0 0 0.00469352 -0.132647 0 0.0631747 -0.12015 0 0.00469352 -0.132647 0 73.5175 73.5175 1000.17 
73 1 1 0.0414378 0.0461133 0 0 0 0 0.00577919 -0.06921 0 0.182181 0.100454 0 0.00577919 -0.06921 0 142.959 142.959 1000.34 
74 1 1 0.057846 0.042587 0 0 0 0 0.0739547 -0.137084 0 0.0867597 0.0624624 0 0.0739547 -0.137084 0 193.198 193.198 1000.46 
75 1 1 0.0794995 0.0437015 0 0 0 0 0.178035 -0.0461819 0 0.0328321 0.0972243 0 0.178035 -0.0461819 0 165.835 165.835 1000.39 
76 1 1 0.0999849 0.0428988 0 0 0 0 0.239669 -0.0500914 0 -0.0782092 0.0190048 0 0.239669 -0.0500914 0 230.137 230.137 1000.55 
77 1 1 0.112063 0.0430225 0 0 0 0 0.118434 -0.0413165 0 -0.180458 0.0412643 0 0.118434 -0.0413165 0 170.789 170.789 1000.41 
78 1 1 0.135414 0.0434142 0 0 0 0 0.181552 0.0010385 0 -0.114956 -0.0173941 0 0.181552 0.0010385 0 252.018 252.018 1000.6 
79 1 1 0.148971 0.0520426 0 0 0 0 0.101909 -0.0136487 0 0.0267203 -0.0572029 0 0.101909 -0.0136487 0 253.387 253.387 1000.6 
80 1 1 0.141431 0.0682862 0 0 0 0 -0.0846983 -0.0359963 0 0.307438 -0.0393404 0 -0.0846983 -0.0359963 0 84.7178 84.7178 1000.2 
81 1 1 0.00296208 0.0567372 0 0 0 0 0.0587704 -0.130277 0 0.119713 -0.0347579 0 0.0587704 -0.130277 0 27.2105 27.2105 1000.06 
82 1 1 0.0320099 0.0536187 0 0 0 0 0.113256 -0.0775094 0 -0.12048 -0.14877 0 0.113256 -0.0775094 0 78.3138 78.3138 1000.19 
83 1 1 0.0439274 0.0502041 0 0 0 0 0.137258 -0.154529 0 0.155257 -0.0830352 0 0.137258 -0.154529 0 8.22533 8.22533 1000.02 
84 1 1 0.0636644 0.0502775 0 0 0 0 0.20508 -0.0901662 0 0.0876959 0.0627732 0 0.20508 -0.0901662 0 54.3525 54.3525 1000.13 
85 1 1 0.0813971 0.0500961 0 0 0 0 0.247725 -0.0805773 0 0.113045 0.0364949 0 0.247725 -0.0805773 0 72.5737 72.5737 1000.17 
86 1 1 0.097569 0.048287 0 0 0 0 0.203975 -0.0393449 0 -0.204662 0.21994 0 0.203975 -0.0393449 0 155.713 155.713 1000.37 
87 1 1 0.115955 0.0516378 0 0 0 0 0.235179 0.0239401 0 -0.349428 -0.0385953 0 0.235179 0.0239401 0 151.785 151.785 1000.36 
88 1 1 0.127984 0.0490381 0 0 0 0 0.0818018 -0.0447887 0 -0.12044 -0.0385191 0 0.0818018 -0.0447887 0 194.674 194.674 1000.46 
89 1 1 0.140528 0.0485922 0 0 0 0 0.0875452 -0.0160495 0 -0.0958232 0.123315 0 0.0875452 -0.0160495 0 276.56 276.56 1000.66 
90 1 1 0.148587 0.0595867 0 0 0 0 0.00343225 -0.0351289 0 -0.0175774 -0.0391228 0 0.00343225 -0.0351289 0 88.1328 88.1328 1000.21 
91 1 1 0.010136 0.0701938 0 0 0 0 -0.0790745 -0.026251 0 -0.0742966 -0.479242 0 -0.0790745 -0.026251 0 57.5563 57.5563 1000.14 
92 1 1 0.0114303 0.0599317 0 0 0 0 -0.0574617 -0.13371 0 0.418458 -0.552871 0 -0.0574617 -0.13371 0 85.8615 85.8615 1000.2 
93 1 1 0.0363824 0.0575558 0 0 0 0 0.0410003 -0.102674 0 0.144247 -0.149574 0 0.0410003 -0.102674 0 64.4873 64.4873 1000.15 
94 1 1 0.0578018 0.054001 0 0 0 0 0.10491 -0.142496 0 -0.136614 0.0299833 0 0.10491 -0.142496 0 52.2054 52.2054 1000.12 
95 1 1 0.0754292 0.0541048 0 0 0 0 0.133401 -0.0977418 0 -0.16066 0.12812 0 0.133401 -0.0977418 0 92.4565 92.4565 1000.22 
96 1 1 0.093648 0.0533508 0 0 0 0 0.174742 -0.0419065 0 -0.273774 0.310591 0 0.174742 -0.0419065 0 113.44 113.44 1000.27 
97 1 1 0.11014 0.0555461 0 0 0 0 0.159284 0.0089613 0 -0.40205 0.0886684 0 0.159284 0.0089613 0 76.9832 76.9832 1000.18 
98 1 1 0.124357 0.0582758 0 0 0 0 0.0493965 0.124667 0 -0.357338 0.204802 0 0.0493965 0.124667 0 196.342 196.342 1000.47 
99 1 1 0.134415 0.0634906 0 0 0 0 0.0014763 0.0689375 0 -0.220762 -0.389473 0 0.0014763 0.0689375 0 239.603 239.603 1000.57 
100 1 1 0.131264 0.0735668 0 0 0 0 -0.118337 0.061601 0 -0.110945 -0.43399 0 -0.118337 0.061601 0 -57.0548 -57.0548 999.864 
101 1 1 0.179812 0.0184625 0 0 0 0 0.226161 0.00521114 0 -0.0200446 0.0811382 0 0.226161 0.00521114 0 588.987 588.987 1001.4 
102 1 1 0.180604 0.00824843 0 0 0 0 0.239645 -0.00737805 0 -0.0709618 0.0168263 0 0.239645 -0.00737805 0 709.579 709.579 1001.68 
103 1 1 0.189163 0.0152445 0 0 0 0 0.213148 0.0249599 0 0.000991702 0.0677498 0 0.213148 0.0249599 0 608.037 608.037 1001.44 
104 1 1 0.194371 0.00800214 0 0 0 0 0.204166 -0.00732031 0 -0.0789072 0.0380824 0 0.204166 -0.00732031 0 664.879 664.879 1001.58 
105 1 1 0.201781 0.0162589 0 0 0 0 0.223797 -0.0188552 0 -0.0485695 0.0494821 0 0.223797 -0.0188552 0 637.716 637.716 1001.51 
106 1 1 0.206948 0.00917888 0 0 0 0 0.225071 0.0121391 0 -0.0760846 -0.11457 0 0.225071 0.0121391 0 689.847 689.847 1001.63 
107 1 1 0.213507 0.0175955 0 0 0 0 0.203885 -0.0244884 0 -0.0282032 -0.172066 0 0.203885 -0.0244884 0 602.191 602.191 1001.43 
108 1 1 0.21833 0.00812289 0 0 0 0 0.234496 -0.0138416 0 0.143868 0.104401 0 0.234496 -0.0138416 0 682.688 682.688 1001.62 
109 1 1 0.226557 0.0146639 0 0 0 0 0.214062 0.0802184 0 -0.0615419 0.00327018 0 0.214062 0.0802184 0 646.713 646.713 1001.53 
110 1 1 0.232771 0.00891023 0 0 0 0 0.176927 -0.0585696 0 -0.142107 -0.184634 0 0.176927 -0.0585696 0 682.75 682.75 1001.62 
111 1 1 0.241461 0.011627 0 0 0 0 0.226094 0.0516536 0 0.073166 0.232059 0 0.226094 0.0516536 0 689.197 689.197 1001.63 
112 1 1 0.248845 0.00998152 0 0 0 0 0.187322 0.0290552 0 0.0931388 -0.017621 0 0.187322 0.0290552 0 721.958 721.958 1001.71 
113 1 1 0.2567 0.0108373 0 0 0 0 0.167463 0.0137424 0 0.174612 0.11483 0 0.167463 0.0137424 0 658.74 658.74 1001.56 
114 1 1 0.26505 0.00974124 0 0 0 0 0.168724 -0.0317702 0 0.030494 0.116458 0 0.168724 -0.0317702 0 605.727 605.727 1001.44 
115 1 1 0.273207 0.0106877 0 0 0 0 0.176603 -0.0162832 0 -0.0539161 0.00682194 0 0.176603 -0.0162832 0 588.911 588.911 1001.4 
116 1 1 0.281199 0.0106073 0 0 0 0 0.183837 -0.0220152 0 -0.0604722 -0.130447 0 0.183837 -0.0220152 0 631.055 631.055 1001.5 
117 1 1 0.289041 0.0108887 0 0 0 0 0.193084 0.00314453 0 0.00694864 -0.138101 0 0.193084 0.00314453 0 660.34 660.34 1001.56 
118 1 1 0.296846 0.0106932 0 0 0 0 0.19628 0.0127129 0 0.038204 -0.0862917 0 0.19628 0.0127129 0 681.629 681.629 1001.62 
119 1 1 0.30465 0.0105257 0 0 0 0 0.185568 0.020734 0 0.106719 0.0363455 0 0.185568 0.020734 0 684.681 684.681 1001.62 
120 1 1 0.312589 0.0103019 0 0 0 0 0.17099 0.016675 0 0.135521 0.0682355 0 0.17099 0.016675 0 671.747 671.747 1001.59 
121 1 1 0.320721 0.0101317 0 0 0 0 0.152685 0.0119932 0 0.125764 0.0678064 0 0.152685 0.0119932 0 650.165 650.165 1001.54 
122 1 1 0.329036 0.0100005 0 0 0 0 0.134352 0.00831138 0 0.137339 0.0521004 0 0.134352 0.00831138 0 624.865 624.865 1001.48 
123 1 1 0.337572 0.00989529 0 0 0 0 0.115307 0.00616849 0 0.132167 0.0334892 0 0.115307 0.00616849 0 602.351 602.351 1001.43 
124 1 1 0.346317 0.00980038 0 0 0 0 0.097057 0.00471068 0 0.124033 0.0242744 0 0.097057 0.00471068 0 584.569 584.569 1001.39 
125 1 1 0.355273 0.00971935 0 0 0 0 0.0808552 0.00342853 0 0.100193 0.00968863 0 0.0808552 0.00342853 0 572.484 572.484 1001.36 
126 1 1 0.364406 0.00964987 0 0 0 0 0.0680625 0.002843 0 0.0762319 -0.00263021 0 0.0680625 0.002843 0 564.697 564.697 1001.34 
127 1 1 0.373682 0.00958965 0 0 0 0 0.0581126 0.0027587 0 0.057278 -0.00955862 0 0.0581126 0.0027587 0 559.937 559.937 1001.33 
128 1 1 0.383072 0.00952909 0 0 0 0 0.0505217 0.00288459 0 0.0448165 -0.0101265 0 0.0505217 0.00288459 0 556.599 556.599 1001.32 
129 1 1 0.392555 0.00947707 0 0 0 0 0.0440987 0.00264449 0 0.0393764 -0.00870871 0 0.0440987 0.00264449 0 553.239 553.239 1001.31 
130 1 1 0.402116 0.00942896 0 0 0 0 0.038317 0.00268959 0 0.0359927 -0.00475671 0 0.038317 0.00268959 0 548.908 548.908 1001.3 
131 1 1 0.411756 0.00936767 0 0 0 0 0.0328677 0.00172327 0 0.0329702 -0.0036298 0 0.0328677 0.00172327 0 544.02 544.02 1001.29 
132 1 1 0.421444 0.00937779 0 0 0 0 0.0278121 0.00215654 0 0.029841 0.000326125 0 0.0278121 0.00215654 0 537.884 537.884 1001.28 
133 1 1 0.431212 0.00924412 0 0 0 0 0.0227669 0.000609561 0 0.0258785 -0.00152739 0 0.0227669 0.000609561 0 533.646 533.646 1001.27 
134 1 1 0.441001 0.0093866 0 0 0 0 0.0183599 0.00160131 0 0.0219646 0.00269931 0 0.0183599 0.00160131 0 526.979 526.979 1001.25 
135 1 1 0.450873 0.00910573 0 0 0 0 0.0145375 -0.00100553 0 0.0171793 -0.00258156 0 0.0145375 -0.00100553 0 525.402 525.402 1001.25 
136 1 1 0.460719 0.00943287 0 0 0 0 0.0104787 0.00229905 0 0.0147952 0.00405398 0 0.0104787 0.00229905 0 518.34 518.34 1001.23 
137 1 1 0.470763 0.00885846 0 0 0 0 0.00744636 -0.00321465 0 0.00869916 -0.00128383 0 0.00744636 -0.00321465 0 521.608 521.608 1001.24 
138 1 1 0.480609 0.00957027 0 0 0 0 0.00491782 0.00214368 0 0.00415928 0.00229353 0 0.00491782 0.00214368 0 509.935 509.935 1001.21 
139 1 1 0.491006 0.00814696 0 0 0 0 0.00207458 -0.0034874 0 -0.00260178 -0.00226173 0 0.00207458 -0.0034874 0 507.895 507.895 1001.2 
140 1 1 0.185766 0.0368984 0 0 0 0 0.250171 0.00375793 0 -0.160694 -0.109862 0 0.250171 0.00375793 0 394.387 394.387 1000.94 
141 1 1 0.186274 0.0269753 0 0 0 0 0.246584 0.0238839 0 -0.113259 -0.0242756 0 0.246584 0.0238839 0 493.661 493.661 1001.17 
142 1 1 0.197684 0.0310657 0 0 0 0 0.308947 -0.0383126 0 0.0354811 0.00812134 0 0.308947 -0.0383126 0 472.83 472.83 1001.12 
143 1 1 0.196731 0.023637 0 0 0 0 0.229034 0.0148413 0 -0.0525407 -0.0531155 0 0.229034 0.0148413 0 558.789 558.789 1001.33 
144 1 1 0.210086 0.0319524 0 0 0 0 0.290274 0.00730979 0 -0.148185 0.156481 0 0.290274 0.00730979 0 484.316 484.316 1001.15 
145 1 1 0.210835 0.025858 0 0 0 0 0.249925 -0.0276135 0 -0.124764 -0.126157 0 0.249925 -0.0276135 0 521.291 521.291 1001.24 
146 1 1 0.221474 0.03401 0 0 0 0 0.249261 0.0515353 0 -0.102777 -0.21109 0 0.249261 0.0515353 0 491.101 491.101 1001.17 
147 1 1 0.222832 0.0220517 0 0 0 0 0.271365 0.019961 0 -0.0102183 0.242422 0 0.271365 0.019961 0 602.923 602.923 1001.43 
148 1 1 0.230903 0.0281056 0 0 0 0 0.217007 0.0229346 0 -0.146731 -0.167435 0 0.217007 0.0229346 0 484.386 484.386 1001.15 
149 1 1 0.237043 0.0208044 0 0 0 0 0.23265 -0.0905496 0 0.0857368 -0.0425954 0 0.23265 -0.0905496 0 554.301 554.301 1001.31 
150 1 1 0.244376 0.0274935 0 0 0 0 0.234429 0.164632 0 0.0542609 -0.146803 0 0.234429 0.164632 0 580.798 580.798 1001.38 
151 1 1 0.250522 0.023317 0 0 0 0 0.208718 -0.023044 0 -0.145682 -0.344312 0 0.208718 -0.023044 0 556.387 556.387 1001.32 
152 1 1 0.258556 0.0229995 0 0 0 0 0.25412 0.0139161 0 -0.0294932 -0.0420264 0 0.25412 0.0139161 0 603.924 603.924 1001.43 
153 1 1 0.265728 0.0230339 0 0 0 0 0.237018 0.0431949 0 0.168229 0.214776 0 0.237018 0.0431949 0 609.406 609.406 1001.44 
154 1 1 0.272831 0.0229204 0 0 0 0 0.199317 0.0212171 0 0.29845 0.245842 0 0.199317 0.0212171 0 573.226 573.226 1001.36 
155 1 1 0.280759 0.022723 0 0 0 0 0.173002 -0.012949 0 0.223447 0.144488 0 0.173002 -0.012949 0 522.924 522.924 1001.24 
156 1 1 0.288823 0.0230109 0 0 0 0 0.151081 -0.0200556 0 0.0681503 0.0116902 0 0.151081 -0.0200556 0 480.114 480.114 1001.14 
157 1 1 0.297064 0.0231815 0 0 0 0 0.150197 -0.0137459 0 -0.0162579 -0.146928 0 0.150197 -0.0137459 0 476.498 476.498 1001.13 
158 1 1 0.305283 0.023212 0 0 0 0 0.153874 0.00484644 0 -0.0301836 -0.20504 0 0.153874 0.00484644 0 498.609 498.609 1001.18 
159 1 1 0.313516 0.0230261 0 0 0 0 0.156365 0.0228261 0 -0.00920237 -0.184606 0 0.156365 0.0228261 0 522.654 522.654 1001.24 
160 1 1 0.321771 0.022675 0 0 0 0 0.153578 0.0344072 0 0.0296626 -0.127357 0 0.153578 0.0344072 0 537.241 537.241 1001.27 
161 1 1 0.330118 0.0222338 0 0 0 0 0.145803 0.0397985 0 0.0705216 -0.0686786 0 0.145803 0.0397985 0 540.826 540.826 1001.28 
162 1 1 0.338587 0.0217636 0 0 0 0 0.133402 0.0402286 0 0.101929 -0.0165596 0 0.133402 0.0402286 0 535.318 535.318 1001.27 
163 1 1 0.347212 0.0213099 0 0 0 0 0.118521 0.036816 0 0.121648 0.0283939 0 0.118521 0.036816 0 523.363 523.363 1001.24 
164 1 1 0.356005 0.0209069 0 0 0 0 0.102103 0.0306169 0 0.124581 0.0583164 0 0.102103 0.0306169 0 508.04 508.04 1001.21 
165 1 1 0.364968 0.0205773 0 0 0 0 0.0863044 0.0232994 0 0.113348 0.0697351 0 0.0863044 0.0232994 0 491.526 491.526 1001.17 
166 1 1 0.374091 0.0203197 0 0 0 0 0.0721197 0.0162344 0 0.0945591 0.0635831 0 0.0721197 0.0162344 0 475.855 475.855 1001.13 
167 1 1 0.383348 0.0201323 0 0 0 0 0.0604355 0.0107901 0 0.0744182 0.0447563 0 0.0604355 0.0107901 0 462.463 462.463 1001.1 
168 1 1 0.392717 0.0199909 0 0 0 0 0.0508257 0.00747749 0 0.0597314 0.0243192 0 0.0508257 0.00747749 0 452.04 452.04 1001.07 
169 1 1 0.402179 0.0198778 0 0 0 0 0.0431277 0.00590088 0 0.0497203 0.0103867 0 0.0431277 0.00590088 0 444.404 444.404 1001.05 
170 1 1 0.411697 0.0197881 0 0 0 0 0.0363569 0.00498772 0 0.0452873 0.0016044 0 0.0363569 0.00498772 0 438.791 438.791 1001.04 
171 1 1 0.421311 0.0197005 0 0 0 0 0.0304062 0.00502204 0 0.0404501 6.06839e-05 0 0.0304062 0.00502204 0 434.135 434.135 1001.03 
172 1 1 0.43094 0.0196245 0 0 0 0 0.0252747 0.00422102 0 0.0370146 -0.00198101 0 0.0252747 0.00422102 0 430.525 430.525 1001.02 
173 1 1 0.44065 0.0195616 0 0 0 0 0.0202895 0.00443 0 0.0320157 0.000274299 0 0.0202895 0.00443 0 426.806 426.806 1001.01 
174 1 1 0.450455 0.0194367 0 0 0 0 0.0157488 0.00266732 0 0.0258765 -0.00109668 0 0.0157488 0.00266732 0 425.046 425.046 1001.01 
175 1 1 0.460228 0.0194971 0 0 0 0 0.0123493 0.00444394 0 0.0191514 0.000686372 0 0.0123493 0.00444394 0 421.017 421.017 1001 
176 1 1 0.470139 0.0191087 0 0 0 0 0.0079761 0.000820309 0 0.0170218 -2.95332e-05 0 0.0079761 0.000820309 0 424.442 424.442 1001.01 
177 1 1 0.480402 0.0192721 0 0 0 0 0.00582414 0.00169678 0 0.00893529 -0.000192144 0 0.00582414 0.00169678 0 419.273 419.273 1001 
178 1 1 0.490093 0.0186778 0 0 0 0 0.0030931 5.34182e-05 0 0.00175908 -0.00402346 0 0.0030931 5.34182e-05 0 416.648 416.648 1000.99 
179 1 1 0.181479 0.0476064 0 0 0 0 0.221255 -0.0354707 0 -0.0616698 -0.201545 0 0.221255 -0.0354707 0 300.442 300.442 1000.71 
180 1 1 0.192223 0.0427034 0 0 0 0 0.278068 -0.0260458 0 -0.107852 0.159916 0 0.278068 -0.0260458 0 347.767 347.767 1000.83 
181 1 1 0.204467 0.050685 0 0 0 0 0.275783 0.00105358 0 -0.309209 0.0989859 0 0.275783 0.00105358 0 267.984 267.984 1000.64 
182 1 1 0.199995 0.0413102 0 0 0 0 0.224583 0.0135294 0 -0.0595264 -0.0607794 0 0.224583 0.0135294 0 370.889 370.889 1000.88 
183 1 1 0.213776 0.0541209 0 0 0 0 0.302447 0.0242091 0 -0.113295 -0.0880022 0 0.302447 0.0242091 0 215.795 215.795 1000.51 
184 1 1 0.209868 0.0419631 0 0 0 0 0.237794 -0.0268184 0 0.00259548 -0.162873 0 0.237794 -0.0268184 0 365.69 365.69 1000.87 
185 1 1 0.21826 0.0450467 0 0 0 0 0.227308 0.0123203 0 0.0274081 -0.105077 0 0.227308 0.0123203 0 333.856 333.856 1000.79 
186 1 1 0.227839 0.0395969 0 0 0 0 0.249148 -0.00990505 0 0.0585578 -0.0709042 0 0.249148 -0.00990505 0 356.856 356.856 1000.85 
187 1 1 0.237701 0.0352428 0 0 0 0 0.3713 -0.0933759 0 -0.0642339 0.0624882 0 0.3713 -0.0933759 0 469.188 469.188 1001.11 
188 1 1 0.242545 0.0419319 0 0 0 0 0.28245 0.0249693 0 0.0558408 -0.210796 0 0.28245 0.0249693 0 370.597 370.597 1000.88 
189 1 1 0.250882 0.0404726 0 0 0 0 0.401024 0.0203759 0 0.187942 -0.0199843 0 0.401024 0.0203759 0 325.072 325.072 1000.77 
190 1 1 0.256084 0.0345763 0 0 0 0 0.328254 -0.0947689 0 -0.0129276 0.010409 0 0.328254 -0.0947689 0 384.412 384.412 1000.91 
191 1 1 0.26221 0.040554 0 0 0 0 0.287548 0.159923 0 -0.249644 0.161634 0 0.287548 0.159923 0 373.739 373.739 1000.89 
192 1 1 0.268173 0.0379402 0 0 0 0 0.292801 0.0458208 0 -0.00511943 -0.169312 0 0.292801 0.0458208 0 392.852 392.852 1000.93 
193 1 1 0.274835 0.0369148 0 0 0 0 0.294325 0.033144 0 0.0207087 -0.0552682 0 0.294325 0.033144 0 399.807 399.807 1000.95 
194 1 1 0.281354 0.0365322 0 0 0 0 0.277574 0.0516764 0 0.0938655 0.100632 0 0.277574 0.0516764 0 410.14 410.14 1000.97 
195 1 1 0.288184 0.0358869 0 0 0 0 0.251706 0.04512 0 0.223843 0.0693346 0 0.251706 0.04512 0 417.415 417.415 1000.99 
196 1 1 0.295492 0.0353037 0 0 0 0 0.209206 0.0409534 0 0.305717 0.0639435 0 0.209206 0.0409534 0 395.315 395.315 1000.94 
197 1 1 0.303339 0.0347637 0 0 0 0 0.161875 0.0358288 0 0.282887 0.0676385 0 0.161875 0.0358288 0 345.072 345.072 1000.82 
198 1 1 0.311705 0.0342823 0 0 0 0 0.125449 0.0296425 0 0.182868 0.0407273 0 0.125449 0.0296425 0 294.669 294.669 1000.7 
199 1 1 0.320398 0.0338572 0 0 0 0 0.104896 0.0262224 0 0.0930008 -0.00931163 0 0.104896 0.0262224 0 268.268 268.268 1000.64 
200 1 1 0.329262 0.0334576 0 0 0 0 0.0956953 0.0269359 0 0.0413977 -0.0540534 0 0.0956953 0.0269359 0 266.548 266.548 1000.63 
201 1 1 0.338203 0.0330502 0 0 0 0 0.091548 0.0295848 0 0.0226549 -0.0650058 0 0.091548 0.0295848 0 280.909 280.909 1000.67 
202 1 1 0.347194 0.032633 0 0 0 0 0.0888164 0.03114 0 0.018535 -0.0581497 0 0.0888164 0.03114 0 301.16 301.16 1000.72 
203 1 1 0.356229 0.0322221 0 0 0 0 0.0856233 0.0309393 0 0.0216868 -0.0518031 0 0.0856233 0.0309393 0 320.308 320.308 1000.76 
204 1 1 0.365319 0.0318332 0 0 0 0 0.0815939 0.0297171 0 0.0273234 -0.0491137 0 0.0815939 0.0297171 0 334.96 334.96 1000.8 
205 1 1 0.374471 0.0314706 0 0 0 0 0.0763386 0.0280884 0 0.0372353 -0.0449961 0 0.0763386 0.0280884 0 344.045 344.045 1000.82 
206 1 1 0.383697 0.0311436 0 0 0 0 0.0699569 0.0262556 0 0.0492342 -0.035485 0 0.0699569 0.0262556 0 347.251 347.251 1000.82 
207 1 1 0.393008 0.0308325 0 0 0 0 0.062284 0.0236708 0 0.0608886 -0.02481 0 0.062284 0.0236708 0 345.024 345.024 1000.82 
208 1 1 0.402402 0.0305862 0 0 0 0 0.053996 0.0214969 0 0.0666877 -0.012391 0 0.053996 0.0214969 0 338.486 338.486 1000.8 
209 1 1 0.411908 0.0303115 0 0 0 0 0.0455096 0.0178381 0 0.0659173 -0.00536759 0 0.0455096 0.0178381 0 330.517 330.517 1000.79 
210 1 1 0.421479 0.0301559 0 0 0 0 0.0377217 0.0162525 0 0.0603836 0.0023084 0 0.0377217 0.0162525 0 321.7 321.7 1000.76 
211 1 1 0.431165 0.029904 0 0 0 0 0.0305377 0.0120145 0 0.0520488 0.00237028 0 0.0305377 0.0120145 0 315.298 315.298 1000.75 
212 1 1 0.440912 0.0298431 0 0 0 0 0.0243975 0.0123192 0 0.0408065 0.00770686 0 0.0243975 0.0123192 0 308.335 308.335 1000.73 
213 1 1 0.450729 0.0294388 0 0 0 0 0.0192485 0.00635673 0 0.0326799 0.00191382 0 0.0192485 0.00635673 0 307.441 307.441 1000.73 
214 1 1 0.460568 0.0298555 0 0 0 0 0.0139094 0.0109195 0 0.0229605 0.00998439 0 0.0139094 0.0109195 0 297.511 297.511 1000.71 
215 1 1 0.470518 0.0285847 0 0 0 0 0.00994106 0.00217576 0 0.0134979 0.0011752 0 0.00994106 0.00217576 0 311.133 311.133 1000.74 
216 1 1 0.480277 0.0297117 0 0 0 0 0.00389984 0.00715167 0 0.00322052 0.00302378 0 0.00389984 0.00715167 0 294.727 294.727 1000.7 
217 1 1 0.490237 0.0285405 0 0 0 0 -0.000277011 0.00238324 0 -0.002703 -8.39682e-05 0 -0.000277011 0.00238324 0 304.062 304.062 1000.72 
218 1 1 0.192977 0.0544633 0 0 0 0 0.26545 -0.0135574 0 -0.0139304 -0.216359 0 0.26545 -0.0135574 0 202.254 202.254 1000.48 
219 1 1 0.180123 0.0613281 0 0 0 0 0.15821 -0.112588 0 -0.399024 0.126535 0 0.15821 -0.112588 0 130.522 130.522 1000.31 
220 1 1 0.195166 0.0604534 0 0 0 0 0.222328 -0.0400221 0 -0.114079 -0.111495 0 0.222328 -0.0400221 0 185.621 185.621 1000.44 
221 1 1 0.205498 0.070081 0 0 0 0 0.299639 -0.0126003 0 -0.0876202 -0.144204 0 0.299639 -0.0126003 0 81.8011 81.8011 1000.19 
222 1 1 0.20722 0.0619822 0 0 0 0 0.209742 -0.0222636 0 0.00798741 -0.185217 0 0.209742 -0.0222636 0 211.853 211.853 1000.5 
223 1 1 0.221084 0.0584672 0 0 0 0 0.306074 -0.0959429 0 -0.0201044 -0.145815 0 0.306074 -0.0959429 0 256.997 256.997 1000.61 
224 1 1 0.228926 0.0489021 0 0 0 0 0.369279 -0.0611317 0 -0.0590953 0.0411618 0 0.369279 -0.0611317 0 333.579 333.579 1000.79 
225 1 1 0.235548 0.0521898 0 0 0 0 0.304002 -0.0668139 0 -0.195183 0.0937363 0 0.304002 -0.0668139 0 306.639 306.639 1000.73 
226 1 1 0.240998 0.0613898 0 0 0 0 0.351091 0.0502567 0 0.0888915 -0.0909037 0 0.351091 0.0502567 0 168.218 168.218 1000.4 
227 1 1 0.245567 0.0515286 0 0 0 0 0.305179 -0.0432 0 0.0827107 -0.0600644 0 0.305179 -0.0432 0 304.666 304.666 1000.72 
228 1 1 0.253159 0.0550502 0 0 0 0 0.286256 0.0277366 0 -0.236596 -0.0927285 0 0.286256 0.0277366 0 329.287 329.287 1000.78 
229 1 1 0.259237 0.0565334 0 0 0 0 0.285431 0.0728067 0 0.00572052 0.0778205 0 0.285431 0.0728067 0 280.178 280.178 1000.67 
230 1 1 0.265932 0.053166 0 0 0 0 0.312659 -0.0517272 0 0.0569353 -0.334557 0 0.312659 -0.0517272 0 337.924 337.924 1000.8 
231 1 1 0.272836 0.0536993 0 0 0 0 0.32211 0.0590168 0 0.0370464 -0.0258305 0 0.32211 0.0590168 0 301.568 301.568 1000.72 
232 1 1 0.2794 0.052911 0 0 0 0 0.311566 0.0795505 0 0.00516749 -0.144485 0 0.311566 0.0795505 0 323.706 323.706 1000.77 
233 1 1 0.286012 0.0516381 0 0 0 0 0.309641 0.0849758 0 0.0368963 -0.162647 0 0.309641 0.0849758 0 337.48 337.48 1000.8 
234 1 1 0.292804 0.05046 0 0 0 0 0.303189 0.0967178 0 0.0775585 -0.0507806 0 0.303189 0.0967178 0 343.424 343.424 1000.82 
235 1 1 0.299636 0.0492282 0 0 0 0 0.291824 0.0938013 0 0.125463 -0.0101984 0 0.291824 0.0938013 0 351.592 351.592 1000.84 
236 1 1 0.306666 0.0481012 0 0 0 0 0.277491 0.0899789 0 0.171176 0.00138908 0 0.277491 0.0899789 0 358.364 358.364 1000.85 
237 1 1 0.313871 0.0470592 0 0 0 0 0.255398 0.0894998 0 0.23051 0.00275167 0 0.255398 0.0894998 0 360.925 360.925 1000.86 