ITEM: TIMESTEP
114000
ITEM: NUMBER OF ATOMS
754
ITEM: BOX BOUNDS ff ff pp
-0.021 0.521
-0.021 0.5
-0.001 0.001
ITEM: ATOMS id type type x y z ix iy iz vx vy vz fx fy fz vx vy vz p p rho 
1 1 1 0.00693913 0.00621224 0 0 0 0 -0.00610783 0.00335043 0 0.00331671 -0.0309736 0 -0.00610783 0.00335043 0 648.368 648.368 1001.54 
2 1 1 0.0197132 0.00695289 0 0 0 0 -0.0158135 0.00832499 0 0.0874429 -0.0125209 0 -0.0158135 0.00832499 0 659.691 659.691 1001.56 
3 1 1 0.0443029 0.00808181 0 0 0 0 -0.0465006 0.00689982 0 0.00300074 0.0110001 0 -0.0465006 0.00689982 0 656.5 656.5 1001.56 
4 1 1 0.0547689 0.00679725 0 0 0 0 -0.0542055 0.000101804 0 0.0328809 0.0196088 0 -0.0542055 0.000101804 0 650.868 650.868 1001.54 
5 1 1 0.0708692 0.00726 0 0 0 0 -0.105712 -0.0282976 0 -0.0258185 0.0216762 0 -0.105712 -0.0282976 0 643.872 643.872 1001.53 
6 1 1 0.0801007 0.00977806 0 0 0 0 -0.105585 0.0120606 0 0.0316889 -0.0311854 0 -0.105585 0.0120606 0 610.484 610.484 1001.45 
7 1 1 0.108434 0.00723196 0 0 0 0 -0.092694 0.0157558 0 0.166622 0.0270345 0 -0.092694 0.0157558 0 626.228 626.228 1001.48 
8 1 1 0.113335 0.0138465 0 0 0 0 -0.138257 0.0296586 0 0.0582571 0.10056 0 -0.138257 0.0296586 0 593.894 593.894 1001.41 
9 1 1 0.144224 0.00598068 0 0 0 0 -0.0978735 -0.00160598 0 0.0128275 0.042333 0 -0.0978735 -0.00160598 0 600.033 600.033 1001.42 
10 1 1 0.160478 0.00711634 0 0 0 0 -0.142875 -0.0111163 0 0.0720069 -0.0173204 0 -0.142875 -0.0111163 0 583.358 583.358 1001.38 
11 1 1 0.0189559 0.0227587 0 0 0 0 -0.024337 0.0193488 0 0.0142503 -0.0181942 0 -0.024337 0.0193488 0 583.282 583.282 1001.38 
12 1 1 0.0324769 0.00656344 0 0 0 0 -0.0288609 0.00341152 0 0.0333765 -0.00995667 0 -0.0288609 0.00341152 0 671.723 671.723 1001.59 
13 1 1 0.0468267 0.0193306 0 0 0 0 -0.0547464 0.01489 0 0.0354482 -0.0403294 0 -0.0547464 0.01489 0 600.133 600.133 1001.42 
14 1 1 0.0626533 0.0115703 0 0 0 0 -0.0875576 0.0508451 0 0.0938893 -0.0216801 0 -0.0875576 0.0508451 0 629.245 629.245 1001.49 
15 1 1 0.0739229 0.0196448 0 0 0 0 -0.102325 -0.00208284 0 0.149653 0.0284064 0 -0.102325 -0.00208284 0 597.425 597.425 1001.42 
16 1 1 0.0984803 0.00953665 0 0 0 0 -0.0942675 0.00368316 0 0.126232 0.0274966 0 -0.0942675 0.00368316 0 618.742 618.742 1001.47 
17 1 1 0.108773 0.0231931 0 0 0 0 -0.121216 0.0364573 0 0.106244 0.00874266 0 -0.121216 0.0364573 0 534.076 534.076 1001.27 
18 1 1 0.131859 0.00926597 0 0 0 0 -0.0953224 -0.0340381 0 0.138747 -0.0794925 0 -0.0953224 -0.0340381 0 589.669 589.669 1001.4 
19 1 1 0.152371 0.0124079 0 0 0 0 -0.11359 0.0414307 0 0.0827927 0.00657773 0 -0.11359 0.0414307 0 549.063 549.063 1001.3 
20 1 1 0.146227 0.0207541 0 0 0 0 -0.150509 -0.00585673 0 0.00641833 0.0505049 0 -0.150509 -0.00585673 0 511.831 511.831 1001.21 
21 1 1 0.0229481 0.0294551 0 0 0 0 -0.0403069 0.0316799 0 0.0406444 0.0664508 0 -0.0403069 0.0316799 0 546.105 546.105 1001.3 
22 1 1 0.026354 0.0147198 0 0 0 0 -0.0145139 0.00119097 0 -0.039567 0.0387179 0 -0.0145139 0.00119097 0 631.321 631.321 1001.5 
23 1 1 0.0377737 0.0158473 0 0 0 0 -0.044636 0.015401 0 0.0438876 -0.0463268 0 -0.044636 0.015401 0 621.968 621.968 1001.47 
24 1 1 0.0604242 0.0462122 0 0 0 0 -0.134147 0.0558434 0 -0.0151636 -0.0123672 0 -0.134147 0.0558434 0 370.421 370.421 1000.88 
25 1 1 0.0596186 0.0251697 0 0 0 0 -0.0921132 0.0723153 0 0.0421915 0.0983403 0 -0.0921132 0.0723153 0 544.232 544.232 1001.29 
26 1 1 0.0893109 0.00761119 0 0 0 0 -0.0882752 -0.028239 0 0.18988 0.0226705 0 -0.0882752 -0.028239 0 621.36 621.36 1001.47 
27 1 1 0.100687 0.0184622 0 0 0 0 -0.159611 -0.00753192 0 0.0841313 -0.134303 0 -0.159611 -0.00753192 0 574.103 574.103 1001.36 
28 1 1 0.122388 0.00683097 0 0 0 0 -0.146728 0.00187478 0 0.0205238 0.0457058 0 -0.146728 0.00187478 0 604.569 604.569 1001.43 
29 1 1 0.139886 0.0153941 0 0 0 0 -0.128967 0.0067205 0 0.0156233 0.0785716 0 -0.128967 0.0067205 0 554.664 554.664 1001.32 
30 1 1 0.15341 0.0257492 0 0 0 0 -0.147499 0.00408223 0 0.0492254 0.0327255 0 -0.147499 0.00408223 0 463.567 463.567 1001.1 
31 1 1 0.0144802 0.0146797 0 0 0 0 -0.00569854 0.00554389 0 0.0618622 -0.0535617 0 -0.00569854 0.00554389 0 616.394 616.394 1001.46 
32 1 1 0.0321581 0.022376 0 0 0 0 -0.0396755 0.0400054 0 -0.0514325 -0.025573 0 -0.0396755 0.0400054 0 579.233 579.233 1001.37 
33 1 1 0.058942 0.0363428 0 0 0 0 -0.121128 0.0480679 0 0.033049 -0.0280223 0 -0.121128 0.0480679 0 470.441 470.441 1001.12 
34 1 1 0.0669948 0.0206042 0 0 0 0 -0.0977661 0.0119008 0 0.0947553 0.0783163 0 -0.0977661 0.0119008 0 584.296 584.296 1001.39 
35 1 1 0.0918296 0.020132 0 0 0 0 -0.132284 0.0537594 0 0.0526977 0.0137316 0 -0.132284 0.0537594 0 578.851 578.851 1001.37 
36 1 1 0.0994151 0.0288559 0 0 0 0 -0.119858 -0.0294809 0 0.114266 0.0502283 0 -0.119858 -0.0294809 0 477.997 477.997 1001.13 
37 1 1 0.120583 0.0181264 0 0 0 0 -0.107112 -0.0156559 0 0.0940326 0.0451835 0 -0.107112 -0.0156559 0 556.438 556.438 1001.32 
38 1 1 0.129985 0.0187084 0 0 0 0 -0.125483 -0.0243146 0 0.0936533 -0.0330801 0 -0.125483 -0.0243146 0 538.529 538.529 1001.28 
39 1 1 0.14593 0.0331565 0 0 0 0 -0.154055 -0.0318366 0 0.0867747 -0.0579823 0 -0.154055 -0.0318366 0 401.223 401.223 1000.95 
40 1 1 0.12197 0.0455031 0 0 0 0 -0.185052 0.00800775 0 0.0365125 0.170331 0 -0.185052 0.00800775 0 359.586 359.586 1000.85 
41 1 1 0.00797254 0.0200992 0 0 0 0 -0.00259616 0.00722708 0 -0.0325324 -0.0815513 0 -0.00259616 0.00722708 0 570.068 570.068 1001.35 
42 1 1 0.0300463 0.0545241 0 0 0 0 -0.0784684 0.0441379 0 -0.0465511 -0.137462 0 -0.0784684 0.0441379 0 371.378 371.378 1000.88 
43 1 1 0.0419496 0.0278771 0 0 0 0 -0.0875958 0.0316964 0 0.0338048 -0.0412384 0 -0.0875958 0.0316964 0 539.299 539.299 1001.28 
44 1 1 0.0520852 0.0546568 0 0 0 0 -0.114069 0.103828 0 0.0406453 -0.064929 0 -0.114069 0.103828 0 327.394 327.394 1000.78 
45 1 1 0.0741509 0.0323445 0 0 0 0 -0.144598 0.000619981 0 0.0386658 -0.100312 0 -0.144598 0.000619981 0 506.267 506.267 1001.2 
46 1 1 0.0894311 0.0331455 0 0 0 0 -0.162913 0.102147 0 0.169206 -0.0105021 0 -0.162913 0.102147 0 460.405 460.405 1001.09 
47 1 1 0.114778 0.0289213 0 0 0 0 -0.144293 -0.00554756 0 0.154352 -0.0929275 0 -0.144293 -0.00554756 0 476.41 476.41 1001.13 
48 1 1 0.136714 0.0270579 0 0 0 0 -0.197734 0.0129249 0 0.158115 -0.0508396 0 -0.197734 0.0129249 0 463.911 463.911 1001.1 
49 1 1 0.138429 0.0379684 0 0 0 0 -0.0917494 -0.0137415 0 0.0127075 0.0976159 0 -0.0917494 -0.0137415 0 369.091 369.091 1000.88 
50 1 1 0.110401 0.0577338 0 0 0 0 -0.237761 0.0134744 0 0.219065 0.100601 0 -0.237761 0.0134744 0 246.364 246.364 1000.59 
51 1 1 0.00916999 0.030787 0 0 0 0 -0.0204476 0.0518961 0 0.0926193 -0.0250814 0 -0.0204476 0.0518961 0 494.969 494.969 1001.17 
52 1 1 0.0324072 0.0330766 0 0 0 0 -0.0828038 0.0644523 0 -0.0295468 0.0213822 0 -0.0828038 0.0644523 0 501.931 501.931 1001.19 
53 1 1 0.0512943 0.0325349 0 0 0 0 -0.118973 0.0377833 0 -0.0182328 -0.182229 0 -0.118973 0.0377833 0 503.886 503.886 1001.2 
54 1 1 0.0680102 0.0352804 0 0 0 0 -0.11227 0.0665804 0 0.0584496 0.0238791 0 -0.11227 0.0665804 0 484.391 484.391 1001.15 
55 1 1 0.0740885 0.0466305 0 0 0 0 -0.164838 0.0287762 0 0.141116 -0.171906 0 -0.164838 0.0287762 0 357.268 357.268 1000.85 
56 1 1 0.0878163 0.0481708 0 0 0 0 -0.16184 0.0408167 0 0.1514 -0.215932 0 -0.16184 0.0408167 0 332.105 332.105 1000.79 
57 1 1 0.107346 0.0367714 0 0 0 0 -0.165934 0.0375863 0 0.0191151 0.00495098 0 -0.165934 0.0375863 0 399.333 399.333 1000.95 
58 1 1 0.0990953 0.0487591 0 0 0 0 -0.189723 -0.007126 0 0.0599621 -0.0672643 0 -0.189723 -0.007126 0 314.643 314.643 1000.75 
59 1 1 0.128543 0.0354357 0 0 0 0 -0.160876 0.0226991 0 0.121775 0.0784694 0 -0.160876 0.0226991 0 382.904 382.904 1000.91 
60 1 1 0.132478 0.047472 0 0 0 0 -0.20269 -0.0243853 0 0.0490776 0.0342533 0 -0.20269 -0.0243853 0 316.869 316.869 1000.75 
61 1 1 0.0418116 0.0377763 0 0 0 0 -0.0763867 0.0435752 0 0.0831896 -0.0242981 0 -0.0763867 0.0435752 0 455.544 455.544 1001.08 
62 1 1 0.01669 0.0369712 0 0 0 0 -0.0237771 0.000685244 0 0.0824942 -0.120321 0 -0.0237771 0.000685244 0 455.648 455.648 1001.08 
63 1 1 0.0537032 0.0182764 0 0 0 0 -0.0754134 0.0165801 0 0.0307222 -0.0770149 0 -0.0754134 0.0165801 0 595.32 595.32 1001.41 
64 1 1 0.0430367 0.0535609 0 0 0 0 -0.0889825 0.0863038 0 -0.0401227 0.111204 0 -0.0889825 0.0863038 0 352.683 352.683 1000.84 
65 1 1 0.06683 0.0511391 0 0 0 0 -0.149885 0.0978047 0 0.0794885 0.00205946 0 -0.149885 0.0978047 0 325.597 325.597 1000.77 
66 1 1 0.0837168 0.0185038 0 0 0 0 -0.0843554 -0.00873526 0 0.0484691 0.0747286 0 -0.0843554 -0.00873526 0 596.562 596.562 1001.41 
67 1 1 0.0968253 0.0383914 0 0 0 0 -0.187742 -0.00323509 0 0.0596356 0.128257 0 -0.187742 -0.00323509 0 412.551 412.551 1000.98 
68 1 1 0.117018 0.0388956 0 0 0 0 -0.175249 -0.0150183 0 0.0535233 0.080702 0 -0.175249 -0.0150183 0 391.354 391.354 1000.93 
69 1 1 0.12538 0.0280757 0 0 0 0 -0.141428 -0.00170625 0 0.0638016 -0.0256889 0 -0.141428 -0.00170625 0 452.377 452.377 1001.07 
70 1 1 0.10095 0.0709821 0 0 0 0 -0.155962 0.0488058 0 0.356193 -0.0723075 0 -0.155962 0.0488058 0 193.603 193.603 1000.46 
71 1 1 0.0198485 0.0487237 0 0 0 0 -0.112543 0.113196 0 0.170162 0.185973 0 -0.112543 0.113196 0 401.425 401.425 1000.95 
72 1 1 0.0278397 0.0706966 0 0 0 0 -0.0685495 0.115511 0 -0.0735787 -0.0372855 0 -0.0685495 0.115511 0 250.761 250.761 1000.6 
73 1 1 0.0274418 0.0415663 0 0 0 0 -0.0722368 0.0937187 0 -0.10663 -0.0207726 0 -0.0722368 0.0937187 0 448.882 448.882 1001.07 
74 1 1 0.0492625 0.0442529 0 0 0 0 -0.103977 0.0695969 0 0.0369353 -0.0206927 0 -0.103977 0.0695969 0 393.225 393.225 1000.93 
75 1 1 0.0608453 0.0606773 0 0 0 0 -0.132203 0.0881639 0 0.12106 -0.212079 0 -0.132203 0.0881639 0 270.744 270.744 1000.64 
76 1 1 0.082494 0.0293016 0 0 0 0 -0.138567 -0.04157 0 0.0880957 -0.189514 0 -0.138567 -0.04157 0 512.151 512.151 1001.21 
77 1 1 0.0820391 0.0418668 0 0 0 0 -0.170372 0.00390279 0 0.0370091 -0.0774841 0 -0.170372 0.00390279 0 391.692 391.692 1000.93 
78 1 1 0.100498 0.0590291 0 0 0 0 -0.224226 0.0569415 0 0.0613841 0.0717821 0 -0.224226 0.0569415 0 232.301 232.301 1000.55 
79 1 1 0.107667 0.0472332 0 0 0 0 -0.204 0.0201034 0 0.360833 -0.0453187 0 -0.204 0.0201034 0 316.372 316.372 1000.75 
80 1 1 0.0835893 0.0854071 0 0 0 0 -0.198869 0.0733362 0 0.0356258 -0.205042 0 -0.198869 0.0733362 0 97.7348 97.7348 1000.23 
81 1 1 0.0104332 0.0425323 0 0 0 0 0.00381501 0.0831953 0 -0.0787891 -0.0781086 0 0.00381501 0.0831953 0 399.164 399.164 1000.95 
82 1 1 0.0112017 0.0533192 0 0 0 0 0.00974067 0.13518 0 0.219954 0.179544 0 0.00974067 0.13518 0 376.494 376.494 1000.89 
83 1 1 0.0357552 0.0462935 0 0 0 0 -0.0975214 0.0615838 0 0.0748502 -0.00618669 0 -0.0975214 0.0615838 0 409.238 409.238 1000.97 
84 1 1 0.0352655 0.0640477 0 0 0 0 -0.0968729 0.0812236 0 0.15256 -0.171964 0 -0.0968729 0.0812236 0 292.569 292.569 1000.7 
85 1 1 0.0521031 0.0670645 0 0 0 0 -0.143367 0.105899 0 -0.0523719 -0.00946503 0 -0.143367 0.105899 0 239.625 239.625 1000.57 
86 1 1 0.0689927 0.0660896 0 0 0 0 -0.133022 0.0898808 0 0.196166 -0.105008 0 -0.133022 0.0898808 0 242.9 242.9 1000.58 
87 1 1 0.0765509 0.057403 0 0 0 0 -0.14259 0.0345965 0 0.0719443 -0.075462 0 -0.14259 0.0345965 0 292.329 292.329 1000.69 
88 1 1 0.0820503 0.0664792 0 0 0 0 -0.173428 0.0738575 0 0.0615388 -0.2086 0 -0.173428 0.0738575 0 230.56 230.56 1000.55 
89 1 1 0.0883776 0.0558656 0 0 0 0 -0.195629 0.0686746 0 0.227704 0.106347 0 -0.195629 0.0686746 0 279.62 279.62 1000.66 
90 1 1 0.0910834 0.0689604 0 0 0 0 -0.183285 0.0481756 0 0.172924 -0.24353 0 -0.183285 0.0481756 0 197.766 197.766 1000.47 
91 1 1 0.0153714 0.0844393 0 0 0 0 -0.0164506 0.210965 0 -0.182175 -0.300795 0 -0.0164506 0.210965 0 557.005 557.005 1001.32 
92 1 1 0.0141536 0.0659793 0 0 0 0 0.00581004 0.248352 0 -0.139769 0.42966 0 0.00581004 0.248352 0 341.007 341.007 1000.81 
93 1 1 0.0214063 0.0620496 0 0 0 0 -0.0586487 0.139189 0 -0.153456 -0.223281 0 -0.0586487 0.139189 0 321.294 321.294 1000.76 
94 1 1 0.0369413 0.0831143 0 0 0 0 -0.0770962 0.212343 0 0.261917 -0.187463 0 -0.0770962 0.212343 0 380.743 380.743 1000.9 
95 1 1 0.0261296 0.0839251 0 0 0 0 -0.0317061 0.24836 0 0.206563 -0.0385838 0 -0.0317061 0.24836 0 366.055 366.055 1000.87 
96 1 1 0.0483017 0.0847476 0 0 0 0 -0.138764 0.191106 0 0.547778 0.0359014 0 -0.138764 0.191106 0 372.512 372.512 1000.88 
97 1 1 0.043444 0.0682432 0 0 0 0 -0.121388 0.101524 0 0.0347658 0.072079 0 -0.121388 0.101524 0 275.13 275.13 1000.65 
98 1 1 0.060582 0.0736534 0 0 0 0 -0.124995 0.0988946 0 0.061107 -0.110873 0 -0.124995 0.0988946 0 190.959 190.959 1000.45 
99 1 1 0.0765711 0.0761446 0 0 0 0 -0.200909 0.11537 0 -0.0760168 -0.0242966 0 -0.200909 0.11537 0 194.795 194.795 1000.46 
100 1 1 0.0635162 0.084954 0 0 0 0 -0.15781 0.123989 0 0.331799 0.062893 0 -0.15781 0.123989 0 226.276 226.276 1000.54 
101 1 1 0.160483 0.0174408 0 0 0 0 -0.0971309 -0.0142856 0 0.104989 0.0218559 0 -0.0971309 -0.0142856 0 518.533 518.533 1001.23 
102 1 1 0.169657 0.015042 0 0 0 0 -0.106643 -0.0275599 0 0.0577664 0.00472771 0 -0.106643 -0.0275599 0 533.351 533.351 1001.27 
103 1 1 0.171069 0.0247302 0 0 0 0 -0.0712189 -0.0275803 0 0.0370779 0.010825 0 -0.0712189 -0.0275803 0 455.717 455.717 1001.08 
104 1 1 0.173787 0.00671467 0 0 0 0 -0.109297 -0.00819386 0 0.000188785 0.0104316 0 -0.109297 -0.00819386 0 577.874 577.874 1001.37 
105 1 1 0.181461 0.0139321 0 0 0 0 -0.0800547 -0.0297957 0 0.0469776 -0.017536 0 -0.0800547 -0.0297957 0 532.744 532.744 1001.26 
106 1 1 0.188124 0.00685569 0 0 0 0 -0.076361 0.00340987 0 0.106198 -0.0284984 0 -0.076361 0.00340987 0 566.287 566.287 1001.34 
107 1 1 0.193204 0.0154307 0 0 0 0 -0.0660748 -0.0054347 0 0.0109348 0.00179546 0 -0.0660748 -0.0054347 0 515.295 515.295 1001.22 
108 1 1 0.201166 0.00663995 0 0 0 0 -0.0726063 -0.0113067 0 0.0789616 0.0299317 0 -0.0726063 -0.0113067 0 565.387 565.387 1001.34 
109 1 1 0.200616 0.0180157 0 0 0 0 -0.0263309 -0.026859 0 0.0603907 0.0471808 0 -0.0263309 -0.026859 0 490.092 490.092 1001.16 
110 1 1 0.209516 0.0133345 0 0 0 0 -0.0331317 -0.0225375 0 0.0213125 -0.0445219 0 -0.0331317 -0.0225375 0 515.754 515.754 1001.22 
111 1 1 0.216288 0.00651371 0 0 0 0 -0.0472356 0.00373442 0 0.0419673 -0.0155004 0 -0.0472356 0.00373442 0 547.164 547.164 1001.3 
112 1 1 0.227643 0.00834358 0 0 0 0 -0.0275907 -0.0246929 0 0.0741455 0.0126135 0 -0.0275907 -0.0246929 0 529.951 529.951 1001.26 
113 1 1 0.237572 0.00791978 0 0 0 0 -0.0147521 0.0128106 0 0.0953192 -0.0275621 0 -0.0147521 0.0128106 0 522.904 522.904 1001.24 
114 1 1 0.24922 0.00741299 0 0 0 0 -0.0217829 0.000842021 0 0.0895332 0.0437413 0 -0.0217829 0.000842021 0 536.96 536.96 1001.27 
115 1 1 0.252296 0.0165021 0 0 0 0 -0.033043 -0.0368834 0 0.0348595 0.0194404 0 -0.033043 -0.0368834 0 486.958 486.958 1001.16 
116 1 1 0.261556 0.00677141 0 0 0 0 -0.027043 -0.00425268 0 0.0224257 -0.00942997 0 -0.027043 -0.00425268 0 537.007 537.007 1001.27 
117 1 1 0.27289 0.00944928 0 0 0 0 -0.0412555 0.0124161 0 -0.0475649 -0.0346349 0 -0.0412555 0.0124161 0 501.222 501.222 1001.19 
118 1 1 0.28207 0.00766108 0 0 0 0 -0.0409404 -0.00622023 0 0.0658197 -0.0176472 0 -0.0409404 -0.00622023 0 501.866 501.866 1001.19 
119 1 1 0.294298 0.0070394 0 0 0 0 -0.0395533 -0.00774785 0 0.015064 -0.0135458 0 -0.0395533 -0.00774785 0 494.183 494.183 1001.17 
120 1 1 0.296335 0.0180362 0 0 0 0 -0.0140713 -0.00510346 0 0.0528324 -0.0592872 0 -0.0140713 -0.00510346 0 421.07 421.07 1001 
121 1 1 0.304317 0.00913701 0 0 0 0 -0.0320199 0.0054839 0 0.0807582 -0.00575672 0 -0.0320199 0.0054839 0 474.062 474.062 1001.12 
122 1 1 0.316067 0.00615329 0 0 0 0 -0.0448491 -0.00114394 0 0.0410562 -0.0126243 0 -0.0448491 -0.00114394 0 493.852 493.852 1001.17 
123 1 1 0.325186 0.011489 0 0 0 0 -0.0549701 -0.00602777 0 0.0502311 0.0226645 0 -0.0549701 -0.00602777 0 456.305 456.305 1001.08 
124 1 1 0.333962 0.00674145 0 0 0 0 -0.0339811 -0.00627524 0 0.0215125 -0.01612 0 -0.0339811 -0.00627524 0 481.93 481.93 1001.14 
125 1 1 0.346566 0.00744181 0 0 0 0 -0.0398424 0.00155339 0 -0.0255593 0.0190421 0 -0.0398424 0.00155339 0 459.524 459.524 1001.09 
126 1 1 0.351587 0.0155315 0 0 0 0 -0.0555205 0.0161222 0 0.0623869 -0.0595482 0 -0.0555205 0.0161222 0 403.947 403.947 1000.96 
127 1 1 0.358347 0.00751132 0 0 0 0 -0.0582701 0.00548956 0 0.0314533 -0.0112905 0 -0.0582701 0.00548956 0 447.62 447.62 1001.06 
128 1 1 0.369851 0.007218 0 0 0 0 -0.0579608 0.00098232 0 0.101427 0.00628676 0 -0.0579608 0.00098232 0 454.834 454.834 1001.08 
129 1 1 0.393665 0.00627655 0 0 0 0 -0.0166829 0.00926698 0 0.00361815 0.010499 0 -0.0166829 0.00926698 0 448.106 448.106 1001.06 
130 1 1 0.407246 0.00775101 0 0 0 0 -0.000690188 -0.0316475 0 0.00268214 -0.0133842 0 -0.000690188 -0.0316475 0 448.754 448.754 1001.07 
131 1 1 0.41898 0.00734522 0 0 0 0 0.0328119 0.00597948 0 -0.0268892 0.0114151 0 0.0328119 0.00597948 0 441.769 441.769 1001.05 
132 1 1 0.410223 0.0165243 0 0 0 0 0.0223042 -0.0106504 0 -0.000164776 0.00562028 0 0.0223042 -0.0106504 0 390.222 390.222 1000.93 
133 1 1 0.429732 0.00792862 0 0 0 0 0.00212244 0.0146222 0 0.0142721 0.010675 0 0.00212244 0.0146222 0 440.865 440.865 1001.05 
134 1 1 0.441912 0.0172684 0 0 0 0 -0.00677329 0.0170035 0 -0.0204955 0.00200652 0 -0.00677329 0.0170035 0 384.612 384.612 1000.91 
135 1 1 0.440734 0.00731558 0 0 0 0 -0.0135576 -0.000865648 0 -0.0353899 -0.0145975 0 -0.0135576 -0.000865648 0 441.731 441.731 1001.05 
136 1 1 0.450115 0.00949366 0 0 0 0 -0.0210509 -0.00134099 0 0.00227734 -0.00627599 0 -0.0210509 -0.00134099 0 424.667 424.667 1001.01 
137 1 1 0.460447 0.00641323 0 0 0 0 -0.00412548 -0.00888033 0 0.000193314 -0.0350476 0 -0.00412548 -0.00888033 0 444.682 444.682 1001.06 
138 1 1 0.477836 0.00681711 0 0 0 0 0.00955016 -0.00525311 0 0.0256323 -0.00933959 0 0.00955016 -0.00525311 0 443.125 443.125 1001.05 
139 1 1 0.491302 0.00627641 0 0 0 0 0.00873956 0.000221195 0 0.00325404 -0.00658638 0 0.00873956 0.000221195 0 437.749 437.749 1001.04 
140 1 1 0.156562 0.0364667 0 0 0 0 -0.0783563 -0.0480389 0 0.0598523 0.0540515 0 -0.0783563 -0.0480389 0 353.549 353.549 1000.84 
141 1 1 0.163407 0.0283902 0 0 0 0 -0.142723 -0.0494884 0 0.0869215 -0.00285027 0 -0.142723 -0.0494884 0 428.766 428.766 1001.02 
142 1 1 0.180689 0.0478082 0 0 0 0 -0.0968474 -0.0484778 0 0.13398 0.0308556 0 -0.0968474 -0.0484778 0 241.229 241.229 1000.57 
143 1 1 0.178709 0.0320779 0 0 0 0 -0.0821433 -0.0288705 0 0.0516528 -0.0191326 0 -0.0821433 -0.0288705 0 384.854 384.854 1000.91 
144 1 1 0.190285 0.0340073 0 0 0 0 -0.115342 -0.0775032 0 -0.0246214 0.0277111 0 -0.115342 -0.0775032 0 347.553 347.553 1000.83 
145 1 1 0.18108 0.0217347 0 0 0 0 -0.125793 -0.0158613 0 0.0861905 -0.0629914 0 -0.125793 -0.0158613 0 476.809 476.809 1001.13 
146 1 1 0.199004 0.0396815 0 0 0 0 -0.110786 -0.0295986 0 0.10893 -0.0444958 0 -0.110786 -0.0295986 0 286.943 286.943 1000.68 
147 1 1 0.190202 0.0254324 0 0 0 0 -0.0505796 -0.0803588 0 0.0890907 0.0258159 0 -0.0505796 -0.0803588 0 432.655 432.655 1001.03 
148 1 1 0.200685 0.0285589 0 0 0 0 -0.0591039 -0.0156079 0 0.0398983 -0.0591862 0 -0.0591039 -0.0156079 0 396.012 396.012 1000.94 
149 1 1 0.211716 0.0220706 0 0 0 0 -0.041715 -0.012614 0 0.111922 0.0159529 0 -0.041715 -0.012614 0 446.237 446.237 1001.06 
150 1 1 0.232161 0.033497 0 0 0 0 -0.0378193 0.0185662 0 -0.0207944 -0.060907 0 -0.0378193 0.0185662 0 341.246 341.246 1000.81 
151 1 1 0.220384 0.016939 0 0 0 0 -0.0330855 0.00820662 0 0.052379 -0.0467813 0 -0.0330855 0.00820662 0 479.491 479.491 1001.14 
152 1 1 0.223198 0.0266505 0 0 0 0 -0.0442496 0.00964731 0 0.0521222 -0.026101 0 -0.0442496 0.00964731 0 403.805 403.805 1000.96 
153 1 1 0.230037 0.0180189 0 0 0 0 -0.0594982 -0.0211284 0 0.0855008 -0.0765315 0 -0.0594982 -0.0211284 0 466.561 466.561 1001.11 
154 1 1 0.262422 0.0156251 0 0 0 0 -0.0224251 0.0198873 0 0.043635 0.0298075 0 -0.0224251 0.0198873 0 483.435 483.435 1001.15 
155 1 1 0.277782 0.018244 0 0 0 0 -0.00562887 -0.0245586 0 0.0582528 -0.0469168 0 -0.00562887 -0.0245586 0 438.997 438.997 1001.04 
156 1 1 0.26829 0.0211869 0 0 0 0 -0.0524429 0.00395646 0 0.114198 0.0421411 0 -0.0524429 0.00395646 0 434.552 434.552 1001.03 
157 1 1 0.288206 0.0162955 0 0 0 0 -0.00763778 0.00565761 0 0.0353298 -0.0113572 0 -0.00763778 0.00565761 0 441.37 441.37 1001.05 
158 1 1 0.281427 0.0266994 0 0 0 0 -0.0661416 0.000820894 0 0.106162 -0.0231325 0 -0.0661416 0.000820894 0 372.318 372.318 1000.88 
159 1 1 0.303936 0.0242214 0 0 0 0 -0.0420156 0.0297093 0 0.0353133 0.00621136 0 -0.0420156 0.0297093 0 365.876 365.876 1000.87 
160 1 1 0.308819 0.0166247 0 0 0 0 -0.0312661 0.0100922 0 0.0582888 -0.038691 0 -0.0312661 0.0100922 0 424.378 424.378 1001.01 
161 1 1 0.317213 0.0176011 0 0 0 0 -0.0464826 0.0109166 0 0.0909519 0.00517302 0 -0.0464826 0.0109166 0 419.252 419.252 1001 
162 1 1 0.329309 0.0207928 0 0 0 0 -0.0269685 -0.0055031 0 0.0993226 -0.0354635 0 -0.0269685 -0.0055031 0 384.217 384.217 1000.91 
163 1 1 0.337554 0.015353 0 0 0 0 -0.0707852 0.0068788 0 0.0900286 -0.00280788 0 -0.0707852 0.0068788 0 426.602 426.602 1001.01 
164 1 1 0.356398 0.0224938 0 0 0 0 -0.0597707 0.00618009 0 0.0510895 0.0394578 0 -0.0597707 0.00618009 0 349.105 349.105 1000.83 
165 1 1 0.381356 0.00826792 0 0 0 0 -0.0418679 -0.0280959 0 -0.00953002 -0.00965667 0 -0.0418679 -0.0280959 0 459.618 459.618 1001.09 
166 1 1 0.36499 0.015629 0 0 0 0 -0.0413053 -0.00910049 0 -0.0294743 0.0234865 0 -0.0413053 -0.00910049 0 403.447 403.447 1000.96 
167 1 1 0.378162 0.0257278 0 0 0 0 -0.0309172 -0.0306963 0 -0.0489199 -0.0260613 0 -0.0309172 -0.0306963 0 323.48 323.48 1000.77 
168 1 1 0.399067 0.0143261 0 0 0 0 0.030614 -0.0048846 0 0.0525109 -0.0278531 0 0.030614 -0.0048846 0 404.05 404.05 1000.96 
169 1 1 0.386854 0.0283056 0 0 0 0 -0.0219757 -0.0320025 0 0.0610656 0.0106289 0 -0.0219757 -0.0320025 0 294.798 294.798 1000.7 
170 1 1 0.386347 0.01561 0 0 0 0 0.00513337 -0.0244621 0 8.4243e-06 0.0305966 0 0.00513337 -0.0244621 0 405.053 405.053 1000.96 
171 1 1 0.394283 0.0215063 0 0 0 0 -0.0180743 -0.0347971 0 -0.0231611 -0.024507 0 -0.0180743 -0.0347971 0 351.393 351.393 1000.83 
172 1 1 0.42029 0.0164402 0 0 0 0 0.00204424 0.00482233 0 0.00854139 -0.0105545 0 0.00204424 0.00482233 0 394.382 394.382 1000.94 
173 1 1 0.431607 0.0170219 0 0 0 0 0.0283676 0.0191248 0 -0.0332328 -0.0386434 0 0.0283676 0.0191248 0 388.013 388.013 1000.92 
174 1 1 0.458008 0.0170946 0 0 0 0 0.0295648 -0.0432347 0 -0.0032252 -0.0120724 0 0.0295648 -0.0432347 0 380.119 380.119 1000.9 
175 1 1 0.464767 0.0214572 0 0 0 0 -0.0147792 0.0247139 0 -0.0678944 0.0421699 0 -0.0147792 0.0247139 0 347.367 347.367 1000.83 
176 1 1 0.469217 0.0110722 0 0 0 0 0.0119527 0.00277988 0 0.0625007 -0.0211663 0 0.0119527 0.00277988 0 418.048 418.048 1000.99 
177 1 1 0.482987 0.0146823 0 0 0 0 0.00176599 0.00531694 0 0.0144198 0.0504487 0 0.00176599 0.00531694 0 403.674 403.674 1000.96 
178 1 1 0.491085 0.0177443 0 0 0 0 -0.00620223 0.00317134 0 -0.014458 -0.0174573 0 -0.00620223 0.00317134 0 375.768 375.768 1000.89 
179 1 1 0.147926 0.0442099 0 0 0 0 -0.167092 0.000416626 0 -0.0534062 0.0739 0 -0.167092 0.000416626 0 307.154 307.154 1000.73 
180 1 1 0.16702 0.0378964 0 0 0 0 -0.12539 -0.0529413 0 0.0807519 -0.0028609 0 -0.12539 -0.0529413 0 328.187 328.187 1000.78 
181 1 1 0.16665 0.0457691 0 0 0 0 -0.13267 -0.0540054 0 0.0169039 0.0431882 0 -0.13267 -0.0540054 0 249.158 249.158 1000.59 
182 1 1 0.178466 0.0396317 0 0 0 0 -0.104634 -0.0367473 0 0.104298 -0.0126624 0 -0.104634 -0.0367473 0 313.32 313.32 1000.74 
183 1 1 0.180296 0.0570373 0 0 0 0 -0.0959294 -0.0964124 0 0.141509 0.0217803 0 -0.0959294 -0.0964124 0 169.175 169.175 1000.4 
184 1 1 0.170001 0.0544397 0 0 0 0 -0.146841 -0.0800883 0 -0.0480297 -0.000190291 0 -0.146841 -0.0800883 0 172.18 172.18 1000.41 
185 1 1 0.190931 0.0447259 0 0 0 0 -0.0933952 -0.0733094 0 -0.0293933 0.0190576 0 -0.0933952 -0.0733094 0 253.949 253.949 1000.6 
186 1 1 0.208797 0.0313306 0 0 0 0 -0.0941632 -0.0189183 0 0.0425126 -0.0113959 0 -0.0941632 -0.0189183 0 368.083 368.083 1000.87 
187 1 1 0.219327 0.0337442 0 0 0 0 -0.0535514 -0.027124 0 0.0249114 -0.0354257 0 -0.0535514 -0.027124 0 342.218 342.218 1000.81 
188 1 1 0.224627 0.0421377 0 0 0 0 -0.0518083 -0.0142535 0 0.0880457 -0.0215668 0 -0.0518083 -0.0142535 0 262.926 262.926 1000.62 
189 1 1 0.242955 0.034374 0 0 0 0 -0.0213636 -0.0184152 0 0.0261256 0.00605575 0 -0.0213636 -0.0184152 0 335.787 335.787 1000.8 
190 1 1 0.241765 0.0161975 0 0 0 0 -0.0816638 0.0171308 0 0.0786791 0.00219531 0 -0.0816638 0.0171308 0 480.658 480.658 1001.14 
191 1 1 0.253758 0.0355634 0 0 0 0 -0.0445707 -0.00220321 0 -0.0124985 -0.0182592 0 -0.0445707 -0.00220321 0 328.711 328.711 1000.78 
192 1 1 0.247402 0.0255853 0 0 0 0 -0.0447805 -0.0419397 0 0.103694 -0.00291547 0 -0.0447805 -0.0419397 0 414.173 414.173 1000.98 
193 1 1 0.272811 0.0310338 0 0 0 0 -0.0322978 -0.0145365 0 0.0786687 -0.00335263 0 -0.0322978 -0.0145365 0 355.227 355.227 1000.84 
194 1 1 0.258124 0.0451356 0 0 0 0 -0.0284445 -0.00845128 0 0.101394 -0.0347086 0 -0.0284445 -0.00845128 0 243.68 243.68 1000.58 
195 1 1 0.284163 0.0368223 0 0 0 0 -0.0515645 0.0183899 0 0.00620937 -0.0906853 0 -0.0515645 0.0183899 0 274.81 274.81 1000.65 
196 1 1 0.291077 0.0275446 0 0 0 0 -0.0676166 -0.0107884 0 0.128417 0.00149377 0 -0.0676166 -0.0107884 0 348.018 348.018 1000.83 
197 1 1 0.298993 0.033365 0 0 0 0 -0.062334 -0.0156839 0 0.111541 0.0259628 0 -0.062334 -0.0156839 0 298.12 298.12 1000.71 
198 1 1 0.310368 0.0310253 0 0 0 0 -0.0217168 0.0078322 0 0.151442 -0.0316076 0 -0.0217168 0.0078322 0 312.839 312.839 1000.74 
199 1 1 0.324676 0.0332115 0 0 0 0 -0.0421591 -0.0110438 0 0.0553176 0.0229009 0 -0.0421591 -0.0110438 0 283.863 283.863 1000.67 
200 1 1 0.320516 0.026141 0 0 0 0 -0.0308883 0.00165274 0 -0.000818744 0.0202464 0 -0.0308883 0.00165274 0 351.514 351.514 1000.83 
201 1 1 0.344137 0.021473 0 0 0 0 -0.0570938 -0.0144895 0 0.0330131 -0.0359333 0 -0.0570938 -0.0144895 0 364.23 364.23 1000.86 
202 1 1 0.334109 0.0368802 0 0 0 0 -0.0746068 0.0112798 0 0.0538943 -0.0365886 0 -0.0746068 0.0112798 0 229.658 229.658 1000.55 
203 1 1 0.347891 0.0312741 0 0 0 0 -0.0283164 0.0190538 0 0.0726957 -0.00599908 0 -0.0283164 0.0190538 0 269.39 269.39 1000.64 
204 1 1 0.356753 0.0335946 0 0 0 0 -0.0392501 0.00666512 0 -0.00478042 0.00180129 0 -0.0392501 0.00666512 0 249.898 249.898 1000.59 
205 1 1 0.375478 0.0172437 0 0 0 0 -0.00266915 -0.0214992 0 0.0259655 -0.0237728 0 -0.00266915 -0.0214992 0 395.458 395.458 1000.94 
206 1 1 0.366413 0.0252521 0 0 0 0 -0.0342001 -0.0528216 0 0.0468428 0.00636385 0 -0.0342001 -0.0528216 0 327.151 327.151 1000.78 
207 1 1 0.406751 0.0362058 0 0 0 0 -0.0617002 -0.0467154 0 0.0204065 -0.0059005 0 -0.0617002 -0.0467154 0 236.41 236.41 1000.56 
208 1 1 0.422023 0.0255391 0 0 0 0 -0.00567322 -0.00321433 0 0.0365501 -0.0415394 0 -0.00567322 -0.00321433 0 323.188 323.188 1000.77 
209 1 1 0.403345 0.0254824 0 0 0 0 0.00171881 -0.0286625 0 0.0384006 -0.0104029 0 0.00171881 -0.0286625 0 317.174 317.174 1000.75 
210 1 1 0.433369 0.025531 0 0 0 0 -0.0473284 0.0431663 0 0.0107602 0.00202465 0 -0.0473284 0.0431663 0 323.338 323.338 1000.77 
211 1 1 0.412433 0.0274426 0 0 0 0 -0.00218779 0.00594521 0 0.0065822 0.0233062 0 -0.00218779 0.00594521 0 302.228 302.228 1000.72 
212 1 1 0.443625 0.0289289 0 0 0 0 0.0255246 -0.0342868 0 0.00787977 0.0207888 0 0.0255246 -0.0342868 0 293.597 293.597 1000.7 
213 1 1 0.450511 0.0218226 0 0 0 0 0.00464978 -0.0109449 0 0.0201933 -0.0593326 0 0.00464978 -0.0109449 0 355.467 355.467 1000.84 
214 1 1 0.467814 0.0320633 0 0 0 0 -0.0175229 0.0023842 0 -0.0120202 -0.0770114 0 -0.0175229 0.0023842 0 267.414 267.414 1000.64 
215 1 1 0.480407 0.025899 0 0 0 0 -0.0257597 0.0283538 0 0.012896 0.0545363 0 -0.0257597 0.0283538 0 323.073 323.073 1000.77 
216 1 1 0.47382 0.0205858 0 0 0 0 0.00285855 -0.0216255 0 0.0331602 -0.0378172 0 0.00285855 -0.0216255 0 357.812 357.812 1000.85 
217 1 1 0.49037 0.0287246 0 0 0 0 -0.0243602 -0.0292222 0 -0.00209904 -0.0547707 0 -0.0243602 -0.0292222 0 287.179 287.179 1000.68 
218 1 1 0.141436 0.0594779 0 0 0 0 -0.176036 -0.0371994 0 0.177042 0.0349639 0 -0.176036 -0.0371994 0 173.747 173.747 1000.41 
219 1 1 0.12095 0.0554298 0 0 0 0 -0.216062 -0.0249732 0 0.0529184 0.0757765 0 -0.216062 -0.0249732 0 289.517 289.517 1000.69 
220 1 1 0.13874 0.0525506 0 0 0 0 -0.188383 -0.0475662 0 0.140476 -0.0584946 0 -0.188383 -0.0475662 0 249.348 249.348 1000.59 
221 1 1 0.156544 0.0558224 0 0 0 0 -0.176761 -0.0593461 0 0.0786035 0.0360076 0 -0.176761 -0.0593461 0 180.164 180.164 1000.43 
222 1 1 0.154746 0.04805 0 0 0 0 -0.16867 -0.0573087 0 0.0858204 -0.00713191 0 -0.16867 -0.0573087 0 256.226 256.226 1000.61 
223 1 1 0.202245 0.0497368 0 0 0 0 -0.0518824 -0.0715429 0 0.105435 0.00287757 0 -0.0518824 -0.0715429 0 206.943 206.943 1000.49 
224 1 1 0.21006 0.0409122 0 0 0 0 -0.0564903 -0.0459098 0 -0.0314527 0.0374342 0 -0.0564903 -0.0459098 0 279.834 279.834 1000.66 
225 1 1 0.217033 0.0477908 0 0 0 0 -0.0477393 -0.0349092 0 0.0408117 -0.0104214 0 -0.0477393 -0.0349092 0 225.548 225.548 1000.54 
226 1 1 0.226227 0.0540521 0 0 0 0 -0.0289016 -0.0122018 0 0.00733155 -0.0366314 0 -0.0289016 -0.0122018 0 167.546 167.546 1000.4 
227 1 1 0.236216 0.0245159 0 0 0 0 -0.0557564 0.0267112 0 0.0392246 0.0394261 0 -0.0557564 0.0267112 0 414.694 414.694 1000.98 
228 1 1 0.235162 0.0430053 0 0 0 0 -0.0318926 -0.000761512 0 0.0672875 0.0227132 0 -0.0318926 -0.000761512 0 263.942 263.942 1000.63 
229 1 1 0.246397 0.0446432 0 0 0 0 -0.0474407 -0.00201145 0 0.0209451 -0.0181137 0 -0.0474407 -0.00201145 0 246.068 246.068 1000.58 
230 1 1 0.25826 0.0261915 0 0 0 0 -0.066207 0.00329853 0 0.0662296 -0.013057 0 -0.066207 0.00329853 0 406.868 406.868 1000.97 
231 1 1 0.264284 0.0349422 0 0 0 0 -0.0439098 -0.0067443 0 0.0596895 -0.00595113 0 -0.0439098 -0.0067443 0 330.845 330.845 1000.79 
232 1 1 0.272168 0.0417102 0 0 0 0 -0.0453174 -0.010562 0 0.0250425 -0.0637976 0 -0.0453174 -0.010562 0 251.57 251.57 1000.6 