ITEM: TIMESTEP
75000
ITEM: NUMBER OF ATOMS
754
ITEM: BOX BOUNDS ff ff pp
-0.021 0.521
-0.021 0.5
-0.001 0.001
ITEM: ATOMS id type type x y z ix iy iz vx vy vz fx fy fz vx vy vz p p rho 
1 1 1 0.00829036 0.00680391 0 0 0 0 -0.0121675 0.00570855 0 -0.0540593 0.0185815 0 -0.0121675 0.00570855 0 445.585 445.585 1001.06 
2 1 1 0.0196714 0.00826737 0 0 0 0 0.00116014 -0.00664247 0 0.0261654 -0.112861 0 0.00116014 -0.00664247 0 446.917 446.917 1001.06 
3 1 1 0.0502453 0.0069779 0 0 0 0 0.0303812 0.000886481 0 -0.0561939 0.0197791 0 0.0303812 0.000886481 0 493.945 493.945 1001.17 
4 1 1 0.0688015 0.0072106 0 0 0 0 0.0459567 -0.0259249 0 -0.0427521 -0.0983884 0 0.0459567 -0.0259249 0 482.11 482.11 1001.14 
5 1 1 0.0902283 0.00777906 0 0 0 0 0.0344861 0.00169863 0 0.0372642 -0.0300059 0 0.0344861 0.00169863 0 485.004 485.004 1001.15 
6 1 1 0.102414 0.00728083 0 0 0 0 0.0159632 0.00595018 0 -0.0299833 0.0405947 0 0.0159632 0.00595018 0 484.964 484.964 1001.15 
7 1 1 0.139031 0.00920608 0 0 0 0 -0.000770658 -0.00358378 0 0.0107718 -0.054972 0 -0.000770658 -0.00358378 0 454.182 454.182 1001.08 
8 1 1 0.147738 0.00947199 0 0 0 0 -0.0197739 0.0285133 0 0.0514864 0.0497912 0 -0.0197739 0.0285133 0 453.787 453.787 1001.08 
9 1 1 0.186 0.00757549 0 0 0 0 -0.0681226 0.00492889 0 -0.0103256 0.0312447 0 -0.0681226 0.00492889 0 469.147 469.147 1001.11 
10 1 1 0.207484 0.00822957 0 0 0 0 -0.035288 -0.00159397 0 -0.0563597 -0.0425506 0 -0.035288 -0.00159397 0 464.397 464.397 1001.1 
11 1 1 0.0165125 0.0198652 0 0 0 0 0.0624121 -0.0213011 0 0.0860096 0.147199 0 0.0624121 -0.0213011 0 336.833 336.833 1000.8 
12 1 1 0.0334326 0.00676488 0 0 0 0 0.000610962 -0.0141735 0 -0.0242719 -0.0253895 0 0.000610962 -0.0141735 0 470.567 470.567 1001.12 
13 1 1 0.0586461 0.011408 0 0 0 0 0.024314 0.00948515 0 0.00580491 0.00369467 0 0.024314 0.00948515 0 456.999 456.999 1001.08 
14 1 1 0.0798559 0.00867892 0 0 0 0 0.0578892 0.00766998 0 -0.0203866 -0.0101716 0 0.0578892 0.00766998 0 466.555 466.555 1001.11 
15 1 1 0.100451 0.0202807 0 0 0 0 0.0113168 -0.0122617 0 0.0096714 -0.0611967 0 0.0113168 -0.0122617 0 393.494 393.494 1000.93 
16 1 1 0.128954 0.00828562 0 0 0 0 -0.0118211 -0.0111063 0 0.0100211 0.00298392 0 -0.0118211 -0.0111063 0 467.451 467.451 1001.11 
17 1 1 0.144235 0.0194971 0 0 0 0 -0.0568081 0.0212785 0 0.0368709 -0.00687512 0 -0.0568081 0.0212785 0 372.408 372.408 1000.88 
18 1 1 0.173644 0.00729772 0 0 0 0 -0.0532743 0.00451791 0 -0.0312531 -0.0158591 0 -0.0532743 0.00451791 0 477.125 477.125 1001.13 
19 1 1 0.196787 0.00884792 0 0 0 0 -0.054304 -0.0188966 0 -0.0156933 -0.0332743 0 -0.054304 -0.0188966 0 460.292 460.292 1001.09 
20 1 1 0.200723 0.0173387 0 0 0 0 -0.0523419 -0.0149083 0 0.0102286 0.0275977 0 -0.0523419 -0.0149083 0 393.909 393.909 1000.94 
21 1 1 0.0279783 0.0228176 0 0 0 0 0.0745691 0.0247185 0 -0.0709227 0.000883642 0 0.0745691 0.0247185 0 335.597 335.597 1000.8 
22 1 1 0.0262734 0.0138596 0 0 0 0 0.00994501 0.00251826 0 -0.0689688 0.0366473 0 0.00994501 0.00251826 0 414.694 414.694 1000.98 
23 1 1 0.0419601 0.0123044 0 0 0 0 0.0652934 -0.0148036 0 0.00405262 0.0447683 0 0.0652934 -0.0148036 0 447.041 447.041 1001.06 
24 1 1 0.0772931 0.0280055 0 0 0 0 0.0150849 0.0700878 0 0.0211521 -0.0948417 0 0.0150849 0.0700878 0 311.926 311.926 1000.74 
25 1 1 0.083409 0.0180784 0 0 0 0 0.00804455 0.0334477 0 -0.0449657 -0.0732514 0 0.00804455 0.0334477 0 396.1 396.1 1000.94 
26 1 1 0.117688 0.00754046 0 0 0 0 0.00304089 0.00970293 0 0.017266 -0.029107 0 0.00304089 0.00970293 0 473.754 473.754 1001.12 
27 1 1 0.132293 0.0176485 0 0 0 0 -0.0390986 -0.017745 0 0.0592224 -0.0461713 0 -0.0390986 -0.017745 0 392.294 392.294 1000.93 
28 1 1 0.15787 0.0076583 0 0 0 0 -0.0360557 -0.0075715 0 0.0544954 -0.0517097 0 -0.0360557 -0.0075715 0 476.505 476.505 1001.13 
29 1 1 0.189518 0.0178346 0 0 0 0 -0.0250322 0.00163049 0 -0.0331001 -0.0438169 0 -0.0250322 0.00163049 0 392.275 392.275 1000.93 
30 1 1 0.205705 0.0258555 0 0 0 0 -0.0674278 0.0274054 0 -0.0642401 -0.00525081 0 -0.0674278 0.0274054 0 313.09 313.09 1000.74 
31 1 1 0.0107105 0.017205 0 0 0 0 0.00953691 -0.0170124 0 -0.0912274 -0.0574476 0 0.00953691 -0.0170124 0 349.973 349.973 1000.83 
32 1 1 0.0370658 0.019285 0 0 0 0 -0.00241982 -0.0628523 0 0.0116306 -0.0283856 0 -0.00241982 -0.0628523 0 375.68 375.68 1000.89 
33 1 1 0.0730325 0.0178113 0 0 0 0 0.0463556 0.0171084 0 0.00407168 0.0924165 0 0.0463556 0.0171084 0 403.377 403.377 1000.96 
34 1 1 0.0940676 0.0165403 0 0 0 0 -0.00328725 0.016938 0 0.0598054 -0.0457687 0 -0.00328725 0.016938 0 425.12 425.12 1001.01 
35 1 1 0.120389 0.0167289 0 0 0 0 -0.0246394 0.0477713 0 0.0156622 0.0201701 0 -0.0246394 0.0477713 0 411.163 411.163 1000.98 
36 1 1 0.137003 0.0268222 0 0 0 0 -0.00146841 0.0335227 0 0.0136025 -0.00623965 0 -0.00146841 0.0335227 0 305.09 305.09 1000.72 
37 1 1 0.164219 0.0129647 0 0 0 0 -0.0444763 0.0152743 0 0.0191624 0.0780395 0 -0.0444763 0.0152743 0 448.991 448.991 1001.07 
38 1 1 0.179266 0.0160523 0 0 0 0 -0.034136 -0.000461977 0 -0.0374244 -0.0353039 0 -0.034136 -0.000461977 0 413.306 413.306 1000.98 
39 1 1 0.193819 0.0259781 0 0 0 0 -0.0711755 0.00226573 0 -0.025567 0.00756211 0 -0.0711755 0.00226573 0 315.865 315.865 1000.75 
40 1 1 0.178201 0.0365316 0 0 0 0 -0.0938067 0.0604419 0 -0.0612764 -0.0444906 0 -0.0938067 0.0604419 0 194.922 194.922 1000.46 
41 1 1 0.00707896 0.0267718 0 0 0 0 0.00654075 -0.0425155 0 0.107013 0.0666879 0 0.00654075 -0.0425155 0 265.485 265.485 1000.63 
42 1 1 0.0387591 0.0429809 0 0 0 0 0.0989087 -0.00604858 0 -0.118548 -0.0116522 0 0.0989087 -0.00604858 0 141.585 141.585 1000.34 
43 1 1 0.0515792 0.0188314 0 0 0 0 0.0381707 0.0296691 0 -0.100813 -0.120551 0 0.0381707 0.0296691 0 409.295 409.295 1000.97 
44 1 1 0.0762593 0.0382949 0 0 0 0 0.0241613 0.0192066 0 -0.0426409 -0.0824308 0 0.0241613 0.0192066 0 210.572 210.572 1000.5 
45 1 1 0.101576 0.0299538 0 0 0 0 0.000613396 -0.0188465 0 0.0218692 -0.035127 0 0.000613396 -0.0188465 0 293.486 293.486 1000.7 
46 1 1 0.126325 0.0250159 0 0 0 0 0.0181063 -0.00584286 0 0.0342208 0.0467891 0 0.0181063 -0.00584286 0 337.476 337.476 1000.8 
47 1 1 0.153936 0.0192244 0 0 0 0 -0.0342669 0.00479531 0 0.028085 -0.0595312 0 -0.0342669 0.00479531 0 382.915 382.915 1000.91 
48 1 1 0.18108 0.0252043 0 0 0 0 -0.0798494 0.00241126 0 0.0608648 0.0184209 0 -0.0798494 0.00241126 0 322.012 322.012 1000.76 
49 1 1 0.188307 0.0340616 0 0 0 0 -0.0900335 -0.0255281 0 0.00287554 -0.0085836 0 -0.0900335 -0.0255281 0 225.486 225.486 1000.54 
50 1 1 0.169898 0.0475777 0 0 0 0 -0.114787 0.04376 0 0.0194791 0.0673167 0 -0.114787 0.04376 0 109.392 109.392 1000.26 
51 1 1 0.00950164 0.0386065 0 0 0 0 0.0286632 -0.0559454 0 -0.109957 -0.0132714 0 0.0286632 -0.0559454 0 176.901 176.901 1000.42 
52 1 1 0.0443241 0.0255657 0 0 0 0 0.0649244 -0.0348385 0 -0.0215092 -0.00754926 0 0.0649244 -0.0348385 0 324.07 324.07 1000.77 
53 1 1 0.0578629 0.0264951 0 0 0 0 0.0434707 -0.0426231 0 0.0950933 -0.187509 0 0.0434707 -0.0426231 0 336.603 336.603 1000.8 
54 1 1 0.0872881 0.0258845 0 0 0 0 0.0164895 0.0216996 0 0.0678601 0.028009 0 0.0164895 0.0216996 0 333.987 333.987 1000.79 
55 1 1 0.109807 0.0357259 0 0 0 0 0.0147441 0.0303823 0 -0.0371367 -0.0783161 0 0.0147441 0.0303823 0 217.894 217.894 1000.52 
56 1 1 0.129224 0.036374 0 0 0 0 -0.0443322 0.0315117 0 -0.0140984 -0.123606 0 -0.0443322 0.0315117 0 217.143 217.143 1000.52 
57 1 1 0.151416 0.0293572 0 0 0 0 -0.0453729 0.018817 0 0.0159798 -0.0509702 0 -0.0453729 0.018817 0 268.271 268.271 1000.64 
58 1 1 0.157388 0.0384931 0 0 0 0 -0.0596974 0.0131147 0 -0.0119759 0.0286801 0 -0.0596974 0.0131147 0 173.477 173.477 1000.41 
59 1 1 0.171824 0.0287632 0 0 0 0 -0.0450133 0.00750991 0 -0.0148717 0.0648964 0 -0.0450133 0.00750991 0 288.909 288.909 1000.69 
60 1 1 0.187251 0.0434743 0 0 0 0 -0.0998169 -0.0176458 0 0.06795 0.0334622 0 -0.0998169 -0.0176458 0 136.267 136.267 1000.32 
61 1 1 0.0557098 0.0321074 0 0 0 0 0.042441 0.0572235 0 -0.103967 0.16569 0 0.042441 0.0572235 0 290.153 290.153 1000.69 
62 1 1 0.0230316 0.0303994 0 0 0 0 -0.0600547 -0.00519582 0 -0.0504806 -0.140628 0 -0.0600547 -0.00519582 0 252.411 252.411 1000.6 
63 1 1 0.065261 0.0179177 0 0 0 0 0.0781139 -0.0507899 0 -0.073198 0.202515 0 0.0781139 -0.0507899 0 407.489 407.489 1000.97 
64 1 1 0.0674357 0.0404178 0 0 0 0 -0.0101048 -0.0276735 0 -0.163129 0.0992665 0 -0.0101048 -0.0276735 0 215.571 215.571 1000.51 
65 1 1 0.0926007 0.0341189 0 0 0 0 0.0143606 0.0393915 0 0.109448 -0.140453 0 0.0143606 0.0393915 0 266.531 266.531 1000.63 
66 1 1 0.109524 0.0130781 0 0 0 0 0.0272198 -0.00964087 0 0.014662 0.0177166 0 0.0272198 -0.00964087 0 447.596 447.596 1001.06 
67 1 1 0.142432 0.0328463 0 0 0 0 -0.0560914 0.0433091 0 -0.0104449 0.0137909 0 -0.0560914 0.0433091 0 235.395 235.395 1000.56 
68 1 1 0.160521 0.0270297 0 0 0 0 -0.0605143 0.00856957 0 0.0443875 -0.0594095 0 -0.0605143 0.00856957 0 303.256 303.256 1000.72 
69 1 1 0.168779 0.0192983 0 0 0 0 -0.0423277 0.00630501 0 0.00975113 0.0319137 0 -0.0423277 0.00630501 0 393.377 393.377 1000.93 
70 1 1 0.159571 0.04987 0 0 0 0 -0.0992731 0.0460151 0 0.0174721 0.0698255 0 -0.0992731 0.0460151 0 111.006 111.006 1000.26 
71 1 1 0.0281534 0.0378344 0 0 0 0 0.11353 -0.0529227 0 -0.0791245 0.23261 0 0.11353 -0.0529227 0 178.527 178.527 1000.42 
72 1 1 0.049395 0.0492567 0 0 0 0 0.0351757 0.039272 0 -0.273805 -0.0213209 0 0.0351757 0.039272 0 137.203 137.203 1000.33 
73 1 1 0.0362999 0.0314119 0 0 0 0 -0.0154875 -0.0344669 0 -0.0622337 -0.0385416 0 -0.0154875 -0.0344669 0 252.052 252.052 1000.6 
74 1 1 0.0686488 0.0305124 0 0 0 0 0.00647454 -0.00914477 0 -0.113545 -0.228822 0 0.00647454 -0.00914477 0 300.465 300.465 1000.71 
75 1 1 0.0869765 0.038959 0 0 0 0 0.0805183 0.0310416 0 0.0258586 -0.109343 0 0.0805183 0.0310416 0 216.94 216.94 1000.52 
76 1 1 0.110533 0.0232092 0 0 0 0 -0.00817438 0.0390174 0 0.114659 -0.0667149 0 -0.00817438 0.0390174 0 361.474 361.474 1000.86 
77 1 1 0.118125 0.028842 0 0 0 0 -0.00640127 0.0327904 0 0.0721332 -0.0134029 0 -0.00640127 0.0327904 0 304.64 304.64 1000.72 
78 1 1 0.14606 0.0408733 0 0 0 0 -0.0428839 0.0423944 0 0.0678568 0.0233213 0 -0.0428839 0.0423944 0 154.489 154.489 1000.37 
79 1 1 0.166064 0.0372833 0 0 0 0 -0.0658372 0.00215126 0 0.00826002 0.0108382 0 -0.0658372 0.00215126 0 191.193 191.193 1000.45 
80 1 1 0.120935 0.0518853 0 0 0 0 -0.0062703 0.0684562 0 0.135776 0.130016 0 -0.0062703 0.0684562 0 119.184 119.184 1000.28 
81 1 1 0.00571531 0.0519213 0 0 0 0 -0.0154927 -0.0655203 0 -0.2224 -0.0653933 0 -0.0154927 -0.0655203 0 28.9977 28.9977 1000.07 
82 1 1 0.0168461 0.0347012 0 0 0 0 -0.0205453 -0.0237798 0 -0.0890362 -0.0576456 0 -0.0205453 -0.0237798 0 222.299 222.299 1000.53 
83 1 1 0.0447239 0.0366593 0 0 0 0 0.0308775 -0.0691251 0 0.0170361 0.0397203 0 0.0308775 -0.0691251 0 218.77 218.77 1000.52 
84 1 1 0.0562501 0.0426311 0 0 0 0 -0.0130316 0.00517247 0 -0.00994117 -0.199728 0 -0.0130316 0.00517247 0 204.73 204.73 1000.49 
85 1 1 0.083755 0.047634 0 0 0 0 4.20253e-05 0.028899 0 0.131694 -0.0493993 0 4.20253e-05 0.028899 0 184.894 184.894 1000.44 
86 1 1 0.100059 0.0415403 0 0 0 0 0.0473841 0.0197521 0 0.0470928 0.0547368 0 0.0473841 0.0197521 0 203.169 203.169 1000.48 
87 1 1 0.111461 0.0460908 0 0 0 0 -0.0279449 0.0586238 0 0.121055 0.00987477 0 -0.0279449 0.0586238 0 141.753 141.753 1000.34 
88 1 1 0.11928 0.0395041 0 0 0 0 0.0157533 0.0261121 0 0.187584 0.048286 0 0.0157533 0.0261121 0 194.287 194.287 1000.46 
89 1 1 0.13339 0.0426021 0 0 0 0 -0.0351801 0.0452605 0 0.023929 -0.0276653 0 -0.0351801 0.0452605 0 144.29 144.29 1000.34 
90 1 1 0.134195 0.0494081 0 0 0 0 -0.0594122 0.078221 0 0.0693027 0.187258 0 -0.0594122 0.078221 0 96.0877 96.0877 1000.23 
91 1 1 0.0404883 0.0567892 0 0 0 0 -0.0784378 -0.0283167 0 -0.112325 -0.117977 0 -0.0784378 -0.0283167 0 104.148 104.148 1000.25 
92 1 1 0.0155131 0.0465329 0 0 0 0 0.00510431 -0.0170461 0 0.189079 0.194092 0 0.00510431 -0.0170461 0 95.2809 95.2809 1000.23 
93 1 1 0.0298806 0.0487475 0 0 0 0 -0.00985641 -0.0692244 0 -0.392465 0.0689608 0 -0.00985641 -0.0692244 0 121.829 121.829 1000.29 
94 1 1 0.0677397 0.0604803 0 0 0 0 0.0368755 -0.085662 0 -0.348313 -0.184825 0 0.0368755 -0.085662 0 134.252 134.252 1000.32 
95 1 1 0.059471 0.0517369 0 0 0 0 -0.0213922 0.0456567 0 0.00283706 0.0270723 0 -0.0213922 0.0456567 0 151.942 151.942 1000.36 
96 1 1 0.0756813 0.0677514 0 0 0 0 0.140479 -0.0643184 0 0.0255837 -0.378982 0 0.140479 -0.0643184 0 40.3035 40.3035 1000.1 
97 1 1 0.074672 0.0514954 0 0 0 0 0.0530908 -0.00858707 0 -0.152642 -0.205276 0 0.0530908 -0.00858707 0 216.624 216.624 1000.51 
98 1 1 0.0935134 0.053393 0 0 0 0 0.0574247 0.0167582 0 0.123602 -0.122928 0 0.0574247 0.0167582 0 160.867 160.867 1000.38 
99 1 1 0.104022 0.0531376 0 0 0 0 0.0582563 0.0915217 0 0.185528 0.122241 0 0.0582563 0.0915217 0 142.688 142.688 1000.34 
100 1 1 0.0861782 0.0630499 0 0 0 0 0.13995 0.048228 0 0.179832 -0.284627 0 0.13995 0.048228 0 95.4232 95.4232 1000.23 
101 1 1 0.212297 0.0175435 0 0 0 0 -0.0831868 0.0326882 0 -0.0501435 -0.0431787 0 -0.0831868 0.0326882 0 399.803 399.803 1000.95 
102 1 1 0.217781 0.00854528 0 0 0 0 -0.0679544 0.0310357 0 0.0134854 0.0606141 0 -0.0679544 0.0310357 0 464.404 464.404 1001.1 
103 1 1 0.223805 0.018398 0 0 0 0 -0.0341798 -0.00861433 0 -0.122508 -0.0372295 0 -0.0341798 -0.00861433 0 405.138 405.138 1000.96 
104 1 1 0.227661 0.00843169 0 0 0 0 -0.0759079 -0.0197042 0 0.0577483 -0.0119475 0 -0.0759079 -0.0197042 0 493.828 493.828 1001.17 
105 1 1 0.235632 0.0148942 0 0 0 0 -0.0597354 -0.00442477 0 -0.0912509 0.0253901 0 -0.0597354 -0.00442477 0 455.698 455.698 1001.08 
106 1 1 0.240833 0.00718747 0 0 0 0 -0.0686555 0.00760253 0 -0.0664339 -0.0111005 0 -0.0686555 0.00760253 0 517.062 517.062 1001.23 
107 1 1 0.24964 0.0141008 0 0 0 0 -0.0684725 -0.0136663 0 -0.0779269 0.0276897 0 -0.0684725 -0.0136663 0 473.516 473.516 1001.12 
108 1 1 0.25551 0.00746859 0 0 0 0 -0.0591408 -0.015204 0 -0.114225 -0.0408228 0 -0.0591408 -0.015204 0 519.267 519.267 1001.23 
109 1 1 0.260019 0.0189996 0 0 0 0 -0.0646696 0.00667588 0 -0.1592 -0.0413542 0 -0.0646696 0.00667588 0 436.886 436.886 1001.04 
110 1 1 0.265303 0.00986473 0 0 0 0 -0.0836081 0.0447548 0 -0.0565451 0.0340984 0 -0.0836081 0.0447548 0 504.44 504.44 1001.2 
111 1 1 0.275092 0.00806908 0 0 0 0 -0.0677723 -0.0400924 0 -0.0386447 0.00907169 0 -0.0677723 -0.0400924 0 540.113 540.113 1001.28 
112 1 1 0.28596 0.00873481 0 0 0 0 -0.067408 0.0144196 0 -0.109636 -0.00607648 0 -0.067408 0.0144196 0 544.955 544.955 1001.29 
113 1 1 0.29598 0.00820739 0 0 0 0 -0.0885319 0.0167837 0 -0.0679875 -2.77776e-05 0 -0.0885319 0.0167837 0 556.852 556.852 1001.32 
114 1 1 0.306158 0.00878977 0 0 0 0 -0.126821 0.0118681 0 -0.0540793 0.00100383 0 -0.126821 0.0118681 0 581.377 581.377 1001.38 
115 1 1 0.316007 0.0194728 0 0 0 0 -0.119046 -0.0240957 0 -0.0497311 -0.114333 0 -0.119046 -0.0240957 0 523.389 523.389 1001.24 
116 1 1 0.316949 0.0077459 0 0 0 0 -0.133952 0.00941046 0 -0.103359 0.0269399 0 -0.133952 0.00941046 0 601.089 601.089 1001.43 
117 1 1 0.325046 0.0114011 0 0 0 0 -0.0978555 -0.0512551 0 -0.0951604 0.0137382 0 -0.0978555 -0.0512551 0 593.248 593.248 1001.41 
118 1 1 0.33415 0.00730415 0 0 0 0 -0.0871113 -0.00122153 0 -0.0866554 -0.00294719 0 -0.0871113 -0.00122153 0 624.208 624.208 1001.48 
119 1 1 0.344015 0.0103441 0 0 0 0 -0.10919 0.0331943 0 -0.116601 -0.0403135 0 -0.10919 0.0331943 0 619.139 619.139 1001.47 
120 1 1 0.352817 0.0197743 0 0 0 0 -0.174487 0.030497 0 -0.0527616 -0.134856 0 -0.174487 0.030497 0 555.909 555.909 1001.32 
121 1 1 0.352979 0.00755534 0 0 0 0 -0.131982 -0.0027417 0 -0.0806743 0.0372467 0 -0.131982 -0.0027417 0 641.442 641.442 1001.52 
122 1 1 0.365182 0.00807244 0 0 0 0 -0.170729 0.0262816 0 -0.0449332 -0.0855306 0 -0.170729 0.0262816 0 641.645 641.645 1001.52 
123 1 1 0.373556 0.0166123 0 0 0 0 -0.199462 -0.00760455 0 -0.0713326 -0.0531407 0 -0.199462 -0.00760455 0 598.017 598.017 1001.42 
124 1 1 0.376933 0.00775311 0 0 0 0 -0.143169 -0.038676 0 0.00185046 0.0584697 0 -0.143169 -0.038676 0 671.467 671.467 1001.59 
125 1 1 0.388419 0.008387 0 0 0 0 -0.112248 0.0115566 0 0.0124912 -0.0880105 0 -0.112248 0.0115566 0 677.003 677.003 1001.6 
126 1 1 0.393332 0.0173918 0 0 0 0 -0.156919 -0.0131962 0 -0.115393 -0.00967738 0 -0.156919 -0.0131962 0 611.317 611.317 1001.45 
127 1 1 0.400734 0.00709985 0 0 0 0 -0.114547 0.00201547 0 -0.0930918 0.0515952 0 -0.114547 0.00201547 0 710.675 710.675 1001.68 
128 1 1 0.41221 0.00942525 0 0 0 0 -0.121827 -0.00234584 0 -0.194061 -0.120051 0 -0.121827 -0.00234584 0 682.559 682.559 1001.62 
129 1 1 0.42275 0.00735353 0 0 0 0 -0.11502 -0.00180799 0 -0.100532 0.0231946 0 -0.11502 -0.00180799 0 689.749 689.749 1001.63 
130 1 1 0.42852 0.0157421 0 0 0 0 -0.0983501 -0.0289144 0 -0.110621 -0.0404133 0 -0.0983501 -0.0289144 0 639.178 639.178 1001.51 
131 1 1 0.434842 0.00831141 0 0 0 0 -0.0647513 -0.0258298 0 -0.0390119 -0.0483847 0 -0.0647513 -0.0258298 0 685.307 685.307 1001.62 
132 1 1 0.428705 0.0238964 0 0 0 0 -0.134368 -0.0121499 0 0.0402547 -0.025717 0 -0.134368 -0.0121499 0 577.981 577.981 1001.37 
133 1 1 0.439503 0.016987 0 0 0 0 -0.121156 0.00113369 0 0.00590262 -0.0801674 0 -0.121156 0.00113369 0 622.104 622.104 1001.47 
134 1 1 0.448724 0.0209283 0 0 0 0 -0.0440162 -0.0403844 0 -0.0305993 -0.093848 0 -0.0440162 -0.0403844 0 612.214 612.214 1001.45 
135 1 1 0.446483 0.00750315 0 0 0 0 -0.0755198 0.0157584 0 -0.0808841 0.0106092 0 -0.0755198 0.0157584 0 698.265 698.265 1001.65 
136 1 1 0.452851 0.0120829 0 0 0 0 -0.0518315 -0.0204194 0 0.228166 -0.0396074 0 -0.0518315 -0.0204194 0 696.57 696.57 1001.65 
137 1 1 0.463502 0.0064035 0 0 0 0 -0.0373261 -0.0112045 0 -0.0887389 0.0639366 0 -0.0373261 -0.0112045 0 737.666 737.666 1001.75 
138 1 1 0.477571 0.00767628 0 0 0 0 -0.0123324 -0.00854147 0 -0.0170575 -0.07406 0 -0.0123324 -0.00854147 0 694.92 694.92 1001.65 
139 1 1 0.490105 0.00719115 0 0 0 0 0.00782106 -0.00735287 0 0.0474298 0.0214644 0 0.00782106 -0.00735287 0 687.856 687.856 1001.63 
140 1 1 0.21096 0.0356795 0 0 0 0 -0.0906797 -0.0077518 0 -0.00821299 -0.0156352 0 -0.0906797 -0.0077518 0 209.339 209.339 1000.5 
141 1 1 0.21652 0.0262338 0 0 0 0 -0.0409116 -0.0212995 0 -0.0616967 0.0225128 0 -0.0409116 -0.0212995 0 321.952 321.952 1000.76 
142 1 1 0.249048 0.0355982 0 0 0 0 -0.103893 0.0283815 0 -0.0643889 -0.0251912 0 -0.103893 0.0283815 0 239.97 239.97 1000.57 
143 1 1 0.232198 0.0232733 0 0 0 0 -0.0412007 0.00718748 0 -0.12146 0.0254159 0 -0.0412007 0.00718748 0 363.814 363.814 1000.86 
144 1 1 0.260364 0.0359366 0 0 0 0 -0.113422 -0.0140601 0 -0.124792 0.0043388 0 -0.113422 -0.0140601 0 257.946 257.946 1000.61 
145 1 1 0.245163 0.0207232 0 0 0 0 -0.0625088 0.00967447 0 -0.076362 -0.0315485 0 -0.0625088 0.00967447 0 405.002 405.002 1000.96 
146 1 1 0.272427 0.0347836 0 0 0 0 -0.0925729 0.00264254 0 -0.0947546 -0.0153916 0 -0.0925729 0.00264254 0 295.671 295.671 1000.7 
147 1 1 0.253488 0.0267928 0 0 0 0 -0.10432 -0.00401297 0 -0.0604206 -0.0207796 0 -0.10432 -0.00401297 0 350.307 350.307 1000.83 
148 1 1 0.264959 0.0271413 0 0 0 0 -0.0996143 0.00652347 0 -0.104421 -0.00120055 0 -0.0996143 0.00652347 0 358.011 358.011 1000.85 
149 1 1 0.271052 0.018309 0 0 0 0 -0.0535486 -0.0124708 0 -0.11436 -0.00777003 0 -0.0535486 -0.0124708 0 455.918 455.918 1001.08 
150 1 1 0.299565 0.0289919 0 0 0 0 -0.123604 0.036405 0 -0.131375 -0.0250079 0 -0.123604 0.036405 0 398.714 398.714 1000.95 
151 1 1 0.281783 0.0180404 0 0 0 0 -0.12009 0.0167644 0 -0.184865 -0.0745778 0 -0.12009 0.0167644 0 474.082 474.082 1001.12 
152 1 1 0.290429 0.0198738 0 0 0 0 -0.117247 0.00533505 0 -0.103331 0.00289091 0 -0.117247 0.00533505 0 469.358 469.358 1001.11 
153 1 1 0.298633 0.0186158 0 0 0 0 -0.118641 0.042813 0 -0.0883786 -0.0290582 0 -0.118641 0.042813 0 494.643 494.643 1001.17 
154 1 1 0.327837 0.0206105 0 0 0 0 -0.151102 0.0133631 0 -0.119955 -0.0199852 0 -0.151102 0.0133631 0 526.781 526.781 1001.25 
155 1 1 0.335681 0.019156 0 0 0 0 -0.186664 0.0276536 0 -0.091302 -0.0342687 0 -0.186664 0.0276536 0 547.411 547.411 1001.3 
156 1 1 0.33793 0.0319688 0 0 0 0 -0.112301 -0.00465486 0 -0.0851646 -0.129074 0 -0.112301 -0.00465486 0 421.419 421.419 1001 
157 1 1 0.34437 0.020229 0 0 0 0 -0.162658 -0.00471536 0 -0.164754 0.0211282 0 -0.162658 -0.00471536 0 548.776 548.776 1001.3 
158 1 1 0.347066 0.0309978 0 0 0 0 -0.128498 0.0370865 0 -0.0823713 -0.0217951 0 -0.128498 0.0370865 0 448.942 448.942 1001.07 
159 1 1 0.3572 0.0289702 0 0 0 0 -0.161373 0.0115276 0 -0.0871202 -0.0590216 0 -0.161373 0.0115276 0 478.947 478.947 1001.14 
160 1 1 0.361159 0.0157404 0 0 0 0 -0.142464 0.01424 0 -0.104349 -0.0292672 0 -0.142464 0.01424 0 593.843 593.843 1001.41 
161 1 1 0.366324 0.0232361 0 0 0 0 -0.165449 0.0462908 0 -0.0602113 0.0585738 0 -0.165449 0.0462908 0 543.249 543.249 1001.29 
162 1 1 0.376686 0.0269032 0 0 0 0 -0.098787 -0.0207312 0 -0.0660875 0.0459548 0 -0.098787 -0.0207312 0 524.258 524.258 1001.24 
163 1 1 0.383569 0.0174371 0 0 0 0 -0.212998 -0.0537143 0 -0.148524 -0.0533932 0 -0.212998 -0.0537143 0 596.562 596.562 1001.41 
164 1 1 0.396082 0.0274397 0 0 0 0 -0.182564 -0.00477053 0 -0.0397266 -0.0362545 0 -0.182564 -0.00477053 0 544.188 544.188 1001.29 
165 1 1 0.408966 0.0221893 0 0 0 0 -0.143972 -0.0263529 0 -0.0137145 0.0543494 0 -0.143972 -0.0263529 0 602.672 602.672 1001.43 
166 1 1 0.402004 0.0162536 0 0 0 0 -0.13539 -0.0208273 0 0.040665 0.0893188 0 -0.13539 -0.0208273 0 643.796 643.796 1001.53 
167 1 1 0.417322 0.0346848 0 0 0 0 -0.150523 -0.0193302 0 -0.0728254 -0.0695657 0 -0.150523 -0.0193302 0 480.243 480.243 1001.14 
168 1 1 0.416457 0.0169508 0 0 0 0 -0.0774542 -0.0101461 0 0.0720664 -0.0230749 0 -0.0774542 -0.0101461 0 632.497 632.497 1001.5 
169 1 1 0.421588 0.043169 0 0 0 0 -0.137772 -0.0547209 0 0.0276798 0.0111225 0 -0.137772 -0.0547209 0 402.519 402.519 1000.96 
170 1 1 0.419869 0.0264982 0 0 0 0 -0.121724 -0.0103294 0 -0.115609 0.0217869 0 -0.121724 -0.0103294 0 557.081 557.081 1001.32 
171 1 1 0.429101 0.0346101 0 0 0 0 -0.10752 -0.0302463 0 -0.0448225 -0.0479341 0 -0.10752 -0.0302463 0 482.793 482.793 1001.15 
172 1 1 0.438793 0.0268059 0 0 0 0 -0.0895838 -0.0592149 0 -0.0466776 -0.0478657 0 -0.0895838 -0.0592149 0 549.792 549.792 1001.3 
173 1 1 0.451203 0.028872 0 0 0 0 -0.0868886 -0.0340744 0 -0.0360641 0.0828943 0 -0.0868886 -0.0340744 0 554.745 554.745 1001.32 
174 1 1 0.460567 0.0180702 0 0 0 0 -0.0581316 -0.0623408 0 -0.0835505 0.0186912 0 -0.0581316 -0.0623408 0 662.831 662.831 1001.57 
175 1 1 0.472038 0.0241937 0 0 0 0 -0.0823588 -0.0571663 0 0.0427186 -0.036037 0 -0.0823588 -0.0571663 0 610.841 610.841 1001.45 
176 1 1 0.468685 0.0149971 0 0 0 0 0.0349171 -0.0330859 0 0.107509 -0.0273289 0 0.0349171 -0.0330859 0 679.843 679.843 1001.61 
177 1 1 0.480086 0.0152706 0 0 0 0 0.0493716 0.0137827 0 -0.0157438 0.0694594 0 0.0493716 0.0137827 0 665.189 665.189 1001.58 
178 1 1 0.490716 0.0167383 0 0 0 0 -0.00617248 0.0146812 0 -0.00171975 0.0390608 0 -0.00617248 0.0146812 0 653.212 653.212 1001.55 
179 1 1 0.199621 0.0346171 0 0 0 0 -0.0929148 0.00846691 0 -0.0645005 0.00837115 0 -0.0929148 0.00846691 0 220.197 220.197 1000.52 
180 1 1 0.224214 0.0307058 0 0 0 0 -0.0738675 -0.00206248 0 -0.0473219 0.00370806 0 -0.0738675 -0.00206248 0 285.045 285.045 1000.68 
181 1 1 0.236486 0.0361222 0 0 0 0 -0.0949224 0.0350732 0 -0.0808373 0.0966649 0 -0.0949224 0.0350732 0 231.65 231.65 1000.55 
182 1 1 0.240307 0.0292996 0 0 0 0 -0.0782873 0.0180244 0 -0.0958083 -0.0198608 0 -0.0782873 0.0180244 0 300.096 300.096 1000.71 
183 1 1 0.256731 0.0459838 0 0 0 0 -0.0659011 0.00813283 0 -0.0582051 -0.00454964 0 -0.0659011 0.00813283 0 168.662 168.662 1000.4 
184 1 1 0.247095 0.0428004 0 0 0 0 -0.0938538 0.0229144 0 -0.223105 0.0807931 0 -0.0938538 0.0229144 0 177.203 177.203 1000.42 
185 1 1 0.267923 0.0431161 0 0 0 0 -0.109524 0.00627501 0 -0.147397 0.00494371 0 -0.109524 0.00627501 0 203.797 203.797 1000.48 
186 1 1 0.277527 0.026402 0 0 0 0 -0.0909885 0.0452268 0 -0.0752007 0.050247 0 -0.0909885 0.0452268 0 392.092 392.092 1000.93 
187 1 1 0.288373 0.0301556 0 0 0 0 -0.0929478 0.0261376 0 -0.135589 -0.0183719 0 -0.0929478 0.0261376 0 374.862 374.862 1000.89 
188 1 1 0.301973 0.0391908 0 0 0 0 -0.112204 0.0362208 0 -0.156112 -0.0238789 0 -0.112204 0.0362208 0 303.269 303.269 1000.72 
189 1 1 0.313022 0.0402357 0 0 0 0 -0.142992 -0.0130445 0 -0.128374 -0.00237909 0 -0.142992 -0.0130445 0 328.181 328.181 1000.78 
190 1 1 0.308245 0.0187 0 0 0 0 -0.109198 0.0146394 0 -0.168302 -0.0398016 0 -0.109198 0.0146394 0 517.747 517.747 1001.23 
191 1 1 0.320866 0.0379754 0 0 0 0 -0.148857 0.0119377 0 -0.132167 -0.0153146 0 -0.148857 0.0119377 0 367.065 367.065 1000.87 
192 1 1 0.320125 0.0278596 0 0 0 0 -0.0962483 0.0113744 0 -0.201928 0.0710619 0 -0.0962483 0.0113744 0 452.802 452.802 1001.07 
193 1 1 0.336369 0.0434649 0 0 0 0 -0.13955 0.0327362 0 -0.0642886 -0.0552783 0 -0.13955 0.0327362 0 319.411 319.411 1000.76 
194 1 1 0.33507 0.0542009 0 0 0 0 -0.163378 0.0744124 0 -0.142421 -0.0827151 0 -0.163378 0.0744124 0 232.892 232.892 1000.55 
195 1 1 0.347098 0.0404496 0 0 0 0 -0.135729 0.0514232 0 -0.0923427 -0.0168185 0 -0.135729 0.0514232 0 365.297 365.297 1000.87 
196 1 1 0.358223 0.038109 0 0 0 0 -0.167628 0.063686 0 -0.152901 -0.0366205 0 -0.167628 0.063686 0 393.037 393.037 1000.93 
197 1 1 0.366527 0.046331 0 0 0 0 -0.166434 0.0193513 0 0.0633581 -0.162071 0 -0.166434 0.0193513 0 321.136 321.136 1000.76 
198 1 1 0.367539 0.0343276 0 0 0 0 -0.153759 -0.015317 0 -0.105788 -0.0604688 0 -0.153759 -0.015317 0 455.989 455.989 1001.08 
199 1 1 0.378891 0.0453323 0 0 0 0 -0.183599 -0.0300679 0 -0.23055 0.217615 0 -0.183599 -0.0300679 0 366.87 366.87 1000.87 
200 1 1 0.375602 0.0375993 0 0 0 0 -0.203709 -0.0186331 0 -0.0454909 -0.0718718 0 -0.203709 -0.0186331 0 438.032 438.032 1001.04 
201 1 1 0.386014 0.027424 0 0 0 0 -0.135794 -0.0286354 0 -0.109411 0.0850508 0 -0.135794 -0.0286354 0 528.457 528.457 1001.25 
202 1 1 0.38632 0.0497573 0 0 0 0 -0.206305 -0.0574275 0 -0.0823237 -0.0341848 0 -0.206305 -0.0574275 0 327.06 327.06 1000.78 
203 1 1 0.394812 0.0389966 0 0 0 0 -0.137619 -0.02657 0 0.053963 -0.0225443 0 -0.137619 -0.02657 0 429.156 429.156 1001.02 
204 1 1 0.400372 0.0468711 0 0 0 0 -0.150234 -0.0446891 0 -0.0632262 -0.136926 0 -0.150234 -0.0446891 0 365.968 365.968 1000.87 
205 1 1 0.404738 0.0308198 0 0 0 0 -0.12411 -0.097892 0 -0.052837 -0.0793903 0 -0.12411 -0.097892 0 527.97 527.97 1001.25 
206 1 1 0.407946 0.0381567 0 0 0 0 -0.174942 -0.0303922 0 -0.103771 0.0500981 0 -0.174942 -0.0303922 0 459.991 459.991 1001.09 
207 1 1 0.432295 0.0511015 0 0 0 0 -0.0769082 -0.0858718 0 -0.092792 -0.100102 0 -0.0769082 -0.0858718 0 348.796 348.796 1000.83 
208 1 1 0.444216 0.0505626 0 0 0 0 -0.0941749 -0.0706975 0 -0.0512191 -0.0655456 0 -0.0941749 -0.0706975 0 373.66 373.66 1000.89 
209 1 1 0.433307 0.0425199 0 0 0 0 -0.109274 -0.050325 0 -0.0161436 0.00342551 0 -0.109274 -0.050325 0 427.474 427.474 1001.01 
210 1 1 0.446601 0.0413669 0 0 0 0 -0.051084 -0.110927 0 0.0126008 -0.0437401 0 -0.051084 -0.110927 0 440.041 440.041 1001.04 
211 1 1 0.441174 0.0349079 0 0 0 0 -0.113931 -0.0603922 0 -0.00667123 -0.0522077 0 -0.113931 -0.0603922 0 487.877 487.877 1001.16 
212 1 1 0.458215 0.036879 0 0 0 0 -0.0580408 -0.0442876 0 0.0150521 -0.0678151 0 -0.0580408 -0.0442876 0 501.917 501.917 1001.19 
213 1 1 0.46148 0.0279172 0 0 0 0 -0.0661628 -0.0720394 0 0.00791835 0.0090365 0 -0.0661628 -0.0720394 0 574.676 574.676 1001.36 
214 1 1 0.471524 0.0332995 0 0 0 0 -0.0657786 -0.0571079 0 -0.0853135 0.0311494 0 -0.0657786 -0.0571079 0 537.777 537.777 1001.28 
215 1 1 0.481017 0.0353055 0 0 0 0 0.0227409 -0.103333 0 -0.00974949 0.129558 0 0.0227409 -0.103333 0 531.012 531.012 1001.26 
216 1 1 0.483001 0.024808 0 0 0 0 -0.0367847 -0.00645887 0 -0.137254 -0.125945 0 -0.0367847 -0.00645887 0 607.921 607.921 1001.44 
217 1 1 0.490629 0.0287839 0 0 0 0 0.0385207 0.0229752 0 0.0693526 0.111165 0 0.0385207 0.0229752 0 591.77 591.77 1001.4 
218 1 1 0.216341 0.0419493 0 0 0 0 -0.0736345 -0.0091544 0 -0.0563122 0.00713587 0 -0.0736345 -0.0091544 0 160.932 160.932 1000.38 
219 1 1 0.178326 0.0474219 0 0 0 0 -0.118884 0.0342286 0 -0.000250121 0.140492 0 -0.118884 0.0342286 0 102.057 102.057 1000.24 
220 1 1 0.201282 0.0424839 0 0 0 0 -0.0728778 0.00340436 0 -0.0850755 0.0796634 0 -0.0728778 0.00340436 0 147.36 147.36 1000.35 
221 1 1 0.232088 0.0475987 0 0 0 0 -0.11845 0.0194281 0 -0.0472574 0.0308647 0 -0.11845 0.0194281 0 148.091 148.091 1000.35 
222 1 1 0.227019 0.0389695 0 0 0 0 -0.0962018 0.00799738 0 -0.102408 -0.0231616 0 -0.0962018 0.00799738 0 207.933 207.933 1000.49 
223 1 1 0.280891 0.0476347 0 0 0 0 -0.0999728 0.0318165 0 -0.113324 -0.0684042 0 -0.0999728 0.0318165 0 182.797 182.797 1000.43 
224 1 1 0.281591 0.0379805 0 0 0 0 -0.108483 0.0488446 0 -0.0925967 -0.0255316 0 -0.108483 0.0488446 0 288.182 288.182 1000.68 
225 1 1 0.292671 0.0390501 0 0 0 0 -0.106125 0.0347339 0 -0.196012 0.0441747 0 -0.106125 0.0347339 0 299.468 299.468 1000.71 
226 1 1 0.297992 0.050746 0 0 0 0 -0.0897105 0.0263651 0 -0.144733 0.0255674 0 -0.0897105 0.0263651 0 197.136 197.136 1000.47 
227 1 1 0.308952 0.030035 0 0 0 0 -0.103985 -0.00818557 0 -0.0916679 0.00103539 0 -0.103985 -0.00818557 0 409.421 409.421 1000.97 
228 1 1 0.307477 0.0489598 0 0 0 0 -0.0707349 0.0606472 0 -0.157165 -0.0183425 0 -0.0707349 0.0606472 0 219.564 219.564 1000.52 
229 1 1 0.319418 0.05193 0 0 0 0 -0.0945985 -0.00692579 0 -0.0999273 -0.123192 0 -0.0945985 -0.00692579 0 239.845 239.845 1000.57 
230 1 1 0.330589 0.0319249 0 0 0 0 -0.11773 0.0472906 0 -0.177459 -0.0151574 0 -0.11773 0.0472906 0 416.153 416.153 1000.99 
231 1 1 0.327722 0.0448124 0 0 0 0 -0.106963 0.0171509 0 -0.152503 0.0575755 0 -0.106963 0.0171509 0 313.029 313.029 1000.74 
232 1 1 0.346684 0.0498177 0 0 0 0 -0.169546 0.0391127 0 -0.172682 -0.063482 0 -0.169546 0.0391127 0 281.829 281.829 1000.67 