ITEM: TIMESTEP
110000
ITEM: NUMBER OF ATOMS
754
ITEM: BOX BOUNDS ff ff pp
-0.021 0.521
-0.021 0.5
-0.001 0.001
ITEM: ATOMS id type type x y z ix iy iz vx vy vz fx fy fz vx vy vz p p rho 
1 1 1 0.0072618 0.00601943 0 0 0 0 -0.0107682 0.00282945 0 0.0147891 0.0114724 0 -0.0107682 0.00282945 0 626.561 626.561 1001.49 
2 1 1 0.0208143 0.00675463 0 0 0 0 -0.0334104 -0.000606152 0 -0.000340281 0.0202041 0 -0.0334104 -0.000606152 0 640.465 640.465 1001.52 
3 1 1 0.046257 0.00768169 0 0 0 0 -0.0495083 0.0156764 0 0.00199137 -0.0331476 0 -0.0495083 0.0156764 0 645.157 645.157 1001.53 
4 1 1 0.0573105 0.00676071 0 0 0 0 -0.0742629 0.00238381 0 0.059348 -0.0120762 0 -0.0742629 0.00238381 0 656.735 656.735 1001.56 
5 1 1 0.075074 0.00810473 0 0 0 0 -0.100536 -0.00211901 0 -0.00149131 -0.0665662 0 -0.100536 -0.00211901 0 662.062 662.062 1001.57 
6 1 1 0.0845432 0.00888173 0 0 0 0 -0.114297 0.0231638 0 0.0282591 0.0233052 0 -0.114297 0.0231638 0 658.398 658.398 1001.56 
7 1 1 0.113456 0.00696015 0 0 0 0 -0.148977 0.0033054 0 0.0573365 -0.0113844 0 -0.148977 0.0033054 0 651.958 651.958 1001.55 
8 1 1 0.119577 0.0130415 0 0 0 0 -0.169177 0.00999324 0 -0.000297882 0.0949426 0 -0.169177 0.00999324 0 607.396 607.396 1001.44 
9 1 1 0.148529 0.00630525 0 0 0 0 -0.120598 -0.00191935 0 0.118825 -0.0576601 0 -0.120598 -0.00191935 0 630.306 630.306 1001.49 
10 1 1 0.166194 0.00745464 0 0 0 0 -0.146026 0.000661122 0 0.0206065 -0.0404977 0 -0.146026 0.000661122 0 594.132 594.132 1001.41 
11 1 1 0.019598 0.022241 0 0 0 0 -0.0101597 -6.40556e-05 0 -0.0107904 0.0433099 0 -0.0101597 -6.40556e-05 0 565.034 565.034 1001.34 
12 1 1 0.0338136 0.00659744 0 0 0 0 -0.0337303 -0.00277914 0 -0.00891994 -0.0129742 0 -0.0337303 -0.00277914 0 663.242 663.242 1001.57 
13 1 1 0.0493735 0.018359 0 0 0 0 -0.071962 0.0349535 0 0.0328816 -0.0417098 0 -0.071962 0.0349535 0 608.998 608.998 1001.44 
14 1 1 0.066793 0.0101795 0 0 0 0 -0.114758 0.00749654 0 0.0338822 0.108335 0 -0.114758 0.00749654 0 651.836 651.836 1001.54 
15 1 1 0.079327 0.0197496 0 0 0 0 -0.158918 -0.00444242 0 0.0332945 0.000685031 0 -0.158918 -0.00444242 0 554.591 554.591 1001.32 
16 1 1 0.102964 0.009185 0 0 0 0 -0.126982 0.0161752 0 0.0503635 0.00201276 0 -0.126982 0.0161752 0 650.543 650.543 1001.54 
17 1 1 0.11434 0.022326 0 0 0 0 -0.158795 0.0122928 0 0.0790437 -0.0109342 0 -0.158795 0.0122928 0 529.303 529.303 1001.26 
18 1 1 0.13693 0.0101532 0 0 0 0 -0.155352 -0.0199977 0 0.0549202 0.00636126 0 -0.155352 -0.0199977 0 619.004 619.004 1001.47 
19 1 1 0.157621 0.0109647 0 0 0 0 -0.142434 0.0202713 0 0.0227435 0.0825229 0 -0.142434 0.0202713 0 581.109 581.109 1001.38 
20 1 1 0.152745 0.0209077 0 0 0 0 -0.179635 0.00750725 0 0.0627382 -0.0667823 0 -0.179635 0.00750725 0 542.087 542.087 1001.29 
21 1 1 0.0248245 0.0286931 0 0 0 0 -0.0499896 0.0175815 0 0.0161892 -0.0172926 0 -0.0499896 0.0175815 0 508.887 508.887 1001.21 
22 1 1 0.0268986 0.0149063 0 0 0 0 -0.019238 -0.00677264 0 0.05109 0.0270503 0 -0.019238 -0.00677264 0 611.29 611.29 1001.45 
23 1 1 0.039664 0.0152276 0 0 0 0 -0.0481146 0.0123841 0 0.001103 0.0484504 0 -0.0481146 0.0123841 0 628.518 628.518 1001.49 
24 1 1 0.0655578 0.0439958 0 0 0 0 -0.116823 0.0614796 0 -0.0684043 -0.0530043 0 -0.116823 0.0614796 0 380.705 380.705 1000.9 
25 1 1 0.0637166 0.0227769 0 0 0 0 -0.112408 0.0487274 0 0.0285117 0.0688567 0 -0.112408 0.0487274 0 570.567 570.567 1001.35 
26 1 1 0.0936477 0.00832532 0 0 0 0 -0.118467 -0.0048644 0 0.0279918 -0.0215227 0 -0.118467 -0.0048644 0 659.527 659.527 1001.56 
27 1 1 0.107142 0.0181059 0 0 0 0 -0.162245 0.0188163 0 0.0604077 -0.0552909 0 -0.162245 0.0188163 0 581.34 581.34 1001.38 
28 1 1 0.128554 0.00680054 0 0 0 0 -0.162651 0.00648526 0 0.069324 -0.0432794 0 -0.162651 0.00648526 0 640.17 640.17 1001.52 
29 1 1 0.145371 0.0155805 0 0 0 0 -0.146494 -0.0179763 0 0.0489943 0.10506 0 -0.146494 -0.0179763 0 581.107 581.107 1001.38 
30 1 1 0.159868 0.0261317 0 0 0 0 -0.180314 -0.0250998 0 0.0832649 0.0800573 0 -0.180314 -0.0250998 0 494.858 494.858 1001.17 
31 1 1 0.0149774 0.014055 0 0 0 0 -0.0186356 0.0250495 0 0.0240989 -0.0115203 0 -0.0186356 0.0250495 0 613.047 613.047 1001.45 
32 1 1 0.0335825 0.020849 0 0 0 0 -0.0310552 0.0321489 0 -0.0232482 0.0327891 0 -0.0310552 0.0321489 0 554.056 554.056 1001.31 
33 1 1 0.0637247 0.0343065 0 0 0 0 -0.112751 0.0540256 0 -0.0243852 -0.0355973 0 -0.112751 0.0540256 0 444.296 444.296 1001.05 
34 1 1 0.0715894 0.0204864 0 0 0 0 -0.137549 0.00350156 0 0.0984883 -0.0193706 0 -0.137549 0.00350156 0 580.563 580.563 1001.38 
35 1 1 0.097537 0.0186922 0 0 0 0 -0.147003 0.017521 0 -0.00758955 0.0453882 0 -0.147003 0.017521 0 540.868 540.868 1001.28 
36 1 1 0.105644 0.0297008 0 0 0 0 -0.192019 -0.00355538 0 0.112666 -0.0291513 0 -0.192019 -0.00355538 0 513.565 513.565 1001.22 
37 1 1 0.125717 0.0186018 0 0 0 0 -0.150164 0.00109708 0 0.119053 -0.0489122 0 -0.150164 0.00109708 0 566.845 566.845 1001.34 
38 1 1 0.135755 0.0196834 0 0 0 0 -0.166523 -0.0268821 0 0.119624 0.00491757 0 -0.166523 -0.0268821 0 545.255 545.255 1001.29 
39 1 1 0.152232 0.0341242 0 0 0 0 -0.149511 -0.0168211 0 -0.0390534 -0.0363007 0 -0.149511 -0.0168211 0 421.428 421.428 1001 
40 1 1 0.129739 0.0466265 0 0 0 0 -0.210388 -0.0579905 0 0.0792677 0.0209305 0 -0.210388 -0.0579905 0 339.602 339.602 1000.81 
41 1 1 0.00783211 0.019387 0 0 0 0 0.00476556 0.0247329 0 0.00585067 -0.00243389 0 0.00476556 0.0247329 0 558.233 558.233 1001.32 
42 1 1 0.0334206 0.0509514 0 0 0 0 -0.0917973 0.114685 0 0.0279531 0.010986 0 -0.0917973 0.114685 0 326.562 326.562 1000.78 
43 1 1 0.0453155 0.0263983 0 0 0 0 -0.0793883 0.0447223 0 -0.0384167 -0.0524219 0 -0.0793883 0.0447223 0 519.722 519.722 1001.23 
44 1 1 0.0567802 0.050397 0 0 0 0 -0.116269 0.087078 0 -0.00932619 0.166849 0 -0.116269 0.087078 0 322.514 322.514 1000.77 
45 1 1 0.0799293 0.0320834 0 0 0 0 -0.134766 0.00658317 0 -0.0567452 -0.00570847 0 -0.134766 0.00658317 0 482.423 482.423 1001.14 
46 1 1 0.0973882 0.029325 0 0 0 0 -0.220485 0.0822378 0 -0.00372806 0.120695 0 -0.220485 0.0822378 0 504.262 504.262 1001.2 
47 1 1 0.121537 0.0289496 0 0 0 0 -0.185709 4.57386e-05 0 0.0337088 0.0158036 0 -0.185709 4.57386e-05 0 460.133 460.133 1001.09 
48 1 1 0.144998 0.0269497 0 0 0 0 -0.201735 -0.0110032 0 -0.0624201 0.0476009 0 -0.201735 -0.0110032 0 470.611 470.611 1001.12 
49 1 1 0.142934 0.0389604 0 0 0 0 -0.154124 -0.0293628 0 0.211185 0.0156324 0 -0.154124 -0.0293628 0 358.567 358.567 1000.85 
50 1 1 0.120853 0.057982 0 0 0 0 -0.270136 -0.0304506 0 -0.055839 0.0837431 0 -0.270136 -0.0304506 0 254.493 254.493 1000.6 
51 1 1 0.0104058 0.0288497 0 0 0 0 -0.0327343 0.048413 0 -0.0448718 0.0175303 0 -0.0327343 0.048413 0 457.558 457.558 1001.09 
52 1 1 0.0357345 0.0306748 0 0 0 0 -0.0841733 0.0527445 0 0.0185583 0.0486529 0 -0.0841733 0.0527445 0 503.377 503.377 1001.19 
53 1 1 0.0555753 0.0299564 0 0 0 0 -0.0930975 0.0740877 0 -0.0325438 0.0236168 0 -0.0930975 0.0740877 0 484.747 484.747 1001.15 
54 1 1 0.0725763 0.0329272 0 0 0 0 -0.114195 0.0545464 0 0.0148106 0.0171162 0 -0.114195 0.0545464 0 442.486 442.486 1001.05 
55 1 1 0.0816834 0.0441613 0 0 0 0 -0.207038 0.0824669 0 0.0245576 -0.0497294 0 -0.207038 0.0824669 0 391.795 391.795 1000.93 
56 1 1 0.0954534 0.044438 0 0 0 0 -0.219765 0.122285 0 0.144728 0.0495664 0 -0.219765 0.122285 0 363.081 363.081 1000.86 
57 1 1 0.114338 0.0352771 0 0 0 0 -0.19013 0.0331608 0 0.0879365 0.0392206 0 -0.19013 0.0331608 0 437.553 437.553 1001.04 
58 1 1 0.107743 0.0484176 0 0 0 0 -0.252008 0.0289326 0 0.186823 -0.0417573 0 -0.252008 0.0289326 0 342.604 342.604 1000.81 
59 1 1 0.135852 0.034864 0 0 0 0 -0.195774 -0.00434043 0 0.00366404 0.151122 0 -0.195774 -0.00434043 0 451.055 451.055 1001.07 
60 1 1 0.140509 0.0487646 0 0 0 0 -0.181281 -0.0508874 0 -0.107759 0.127575 0 -0.181281 -0.0508874 0 388.665 388.665 1000.92 
61 1 1 0.0455128 0.0357716 0 0 0 0 -0.107649 0.0533472 0 0.055113 0.0448056 0 -0.107649 0.0533472 0 480.471 480.471 1001.14 
62 1 1 0.0176538 0.0361457 0 0 0 0 -0.0324198 0.0314387 0 0.026998 0.0173747 0 -0.0324198 0.0314387 0 482.661 482.661 1001.15 
63 1 1 0.0573173 0.0170462 0 0 0 0 -0.0981681 0.0430015 0 -0.0105433 -0.00367566 0 -0.0981681 0.0430015 0 599.431 599.431 1001.42 
64 1 1 0.0466051 0.0508105 0 0 0 0 -0.0985808 0.0534972 0 0.0698255 0.0314155 0 -0.0985808 0.0534972 0 330.728 330.728 1000.79 
65 1 1 0.0736614 0.0471295 0 0 0 0 -0.190724 0.0911712 0 0.0332351 0.0938987 0 -0.190724 0.0911712 0 399.954 399.954 1000.95 
66 1 1 0.0875937 0.0191717 0 0 0 0 -0.118987 -0.0150178 0 0.134693 -0.0700567 0 -0.118987 -0.0150178 0 560.853 560.853 1001.33 
67 1 1 0.10468 0.0399083 0 0 0 0 -0.204706 -0.0588489 0 0.0441776 -0.0704449 0 -0.204706 -0.0588489 0 365.277 365.277 1000.87 
68 1 1 0.124378 0.0395046 0 0 0 0 -0.199188 -0.0061307 0 0.0935145 -0.0555935 0 -0.199188 -0.0061307 0 363.72 363.72 1000.86 
69 1 1 0.13183 0.0282345 0 0 0 0 -0.174661 0.001787 0 0.0175652 -0.0368323 0 -0.174661 0.001787 0 486.661 486.661 1001.15 
70 1 1 0.110671 0.068609 0 0 0 0 -0.334798 0.0543612 0 0.388273 0.133334 0 -0.334798 0.0543612 0 221.672 221.672 1000.53 
71 1 1 0.024002 0.0455661 0 0 0 0 -0.079601 0.0568812 0 -0.10477 0.0708177 0 -0.079601 0.0568812 0 463.17 463.17 1001.1 
72 1 1 0.0295772 0.0642326 0 0 0 0 -0.0280781 0.191 0 0.0205402 0.156122 0 -0.0280781 0.191 0 293.847 293.847 1000.7 
73 1 1 0.0300233 0.0380921 0 0 0 0 -0.0680682 0.0750243 0 0.0591601 0.0397368 0 -0.0680682 0.0750243 0 437.323 437.323 1001.04 
74 1 1 0.0538483 0.0413196 0 0 0 0 -0.124356 0.0799051 0 0.0024146 -0.0375544 0 -0.124356 0.0799051 0 409.323 409.323 1000.97 
75 1 1 0.0671094 0.0557186 0 0 0 0 -0.175023 0.146781 0 0.0373303 -0.0134944 0 -0.175023 0.146781 0 208.665 208.665 1000.5 
76 1 1 0.0888884 0.0293483 0 0 0 0 -0.170994 0.0254143 0 0.02253 0.00140645 0 -0.170994 0.0254143 0 541.168 541.168 1001.28 
77 1 1 0.0896757 0.0410662 0 0 0 0 -0.214719 0.0448511 0 0.0944062 -0.167044 0 -0.214719 0.0448511 0 398.688 398.688 1000.95 
78 1 1 0.110432 0.0573338 0 0 0 0 -0.281404 0.0276045 0 0.166351 -0.00692271 0 -0.281404 0.0276045 0 240.34 240.34 1000.57 
79 1 1 0.118097 0.0462655 0 0 0 0 -0.288308 0.0200774 0 0.00817994 0.0652411 0 -0.288308 0.0200774 0 288.558 288.558 1000.69 
80 1 1 0.0921007 0.0801425 0 0 0 0 -0.224037 0.183749 0 0.0959821 -0.168696 0 -0.224037 0.183749 0 88.5936 88.5936 1000.21 
81 1 1 0.0093697 0.0392937 0 0 0 0 0.0383979 0.0705235 0 -0.00158663 0.0574408 0 0.0383979 0.0705235 0 339.603 339.603 1000.81 
82 1 1 0.012459 0.0480349 0 0 0 0 -0.0575788 0.137755 0 -0.0295402 -0.048175 0 -0.0575788 0.137755 0 288.644 288.644 1000.69 
83 1 1 0.0398166 0.0437933 0 0 0 0 -0.0954842 0.0643586 0 -0.0466261 -0.00896027 0 -0.0954842 0.0643586 0 375.669 375.669 1000.89 
84 1 1 0.0397092 0.0598923 0 0 0 0 -0.116541 0.125413 0 -0.0154245 -0.0742973 0 -0.116541 0.125413 0 284.498 284.498 1000.68 
85 1 1 0.058064 0.062537 0 0 0 0 -0.158574 0.128594 0 0.0739585 -0.104499 0 -0.158574 0.128594 0 299.003 299.003 1000.71 
86 1 1 0.075403 0.0623242 0 0 0 0 -0.174111 0.102527 0 -0.0329817 -0.114478 0 -0.174111 0.102527 0 209.977 209.977 1000.5 
87 1 1 0.0830289 0.0551786 0 0 0 0 -0.180134 0.0749187 0 0.0712318 -0.0448323 0 -0.180134 0.0749187 0 297.669 297.669 1000.71 
88 1 1 0.089801 0.061624 0 0 0 0 -0.212309 0.157679 0 0.0624047 -0.104821 0 -0.212309 0.157679 0 238.28 238.28 1000.57 
89 1 1 0.0976635 0.0545984 0 0 0 0 -0.246544 0.00403539 0 -0.00453582 0.0100719 0 -0.246544 0.00403539 0 301.477 301.477 1000.72 
90 1 1 0.099616 0.0651051 0 0 0 0 -0.234315 0.120734 0 0.0382634 0.0227567 0 -0.234315 0.120734 0 176.383 176.383 1000.42 
91 1 1 0.0157827 0.0747595 0 0 0 0 -0.0862658 0.222336 0 0.655048 0.266102 0 -0.0862658 0.222336 0 548.587 548.587 1001.3 
92 1 1 0.012701 0.0594299 0 0 0 0 0.0591977 0.104429 0 -0.00453127 0.0462278 0 0.0591977 0.104429 0 284.884 284.884 1000.68 
93 1 1 0.0215347 0.0570884 0 0 0 0 0.0441162 0.0934468 0 -0.161501 0.124105 0 0.0441162 0.0934468 0 460.842 460.842 1001.09 
94 1 1 0.0419817 0.0752573 0 0 0 0 -0.171125 0.148379 0 0.0102465 0.239506 0 -0.171125 0.148379 0 171.212 171.212 1000.41 
95 1 1 0.0306464 0.0734847 0 0 0 0 -0.182711 0.244103 0 0.122878 0.110147 0 -0.182711 0.244103 0 79.5807 79.5807 1000.19 
96 1 1 0.0565946 0.0778617 0 0 0 0 -0.21641 0.164412 0 -0.0678278 -0.0168344 0 -0.21641 0.164412 0 124.315 124.315 1000.3 
97 1 1 0.0487562 0.0644767 0 0 0 0 -0.135665 0.0750754 0 -0.0508306 0.135145 0 -0.135665 0.0750754 0 313.908 313.908 1000.75 
98 1 1 0.0666845 0.0682582 0 0 0 0 -0.183064 0.15207 0 0.106107 0.00538679 0 -0.183064 0.15207 0 187.714 187.714 1000.45 
99 1 1 0.0836152 0.0718485 0 0 0 0 -0.156749 0.0910171 0 -0.00953741 0.0656031 0 -0.156749 0.0910171 0 273.263 273.263 1000.65 
100 1 1 0.0723153 0.0800765 0 0 0 0 -0.252393 0.114381 0 -0.0402076 0.051076 0 -0.252393 0.114381 0 199.839 199.839 1000.48 
101 1 1 0.164999 0.0179925 0 0 0 0 -0.124036 -0.0146992 0 0.0562769 0.000319796 0 -0.124036 -0.0146992 0 536.169 536.169 1001.27 
102 1 1 0.174368 0.016151 0 0 0 0 -0.121481 -0.0216944 0 -0.0404607 -0.0385336 0 -0.121481 -0.0216944 0 545.02 545.02 1001.29 
103 1 1 0.174852 0.0255754 0 0 0 0 -0.125181 -0.0100352 0 0.119096 -0.0518581 0 -0.125181 -0.0100352 0 491.823 491.823 1001.17 
104 1 1 0.178399 0.00709085 0 0 0 0 -0.12729 -0.0121059 0 0.0994117 0.0141093 0 -0.12729 -0.0121059 0 624.731 624.731 1001.48 
105 1 1 0.184977 0.0148116 0 0 0 0 -0.098334 -0.015104 0 0.0770834 -0.0211439 0 -0.098334 -0.015104 0 564.991 564.991 1001.34 
106 1 1 0.192055 0.00659164 0 0 0 0 -0.115919 0.00364386 0 0.0552063 0.0384135 0 -0.115919 0.00364386 0 586.139 586.139 1001.39 
107 1 1 0.19616 0.0156916 0 0 0 0 -0.0846026 -0.00628966 0 0.0399254 -0.00558319 0 -0.0846026 -0.00628966 0 540.766 540.766 1001.28 
108 1 1 0.204583 0.0074186 0 0 0 0 -0.0984316 -0.0207782 0 0.074742 -0.0206193 0 -0.0984316 -0.0207782 0 583.371 583.371 1001.38 
109 1 1 0.202293 0.019631 0 0 0 0 -0.0663994 -0.0472509 0 0.150952 -0.00675945 0 -0.0663994 -0.0472509 0 506.002 506.002 1001.2 
110 1 1 0.211422 0.0139098 0 0 0 0 -0.0613181 -0.00637779 0 0.045379 -0.0185614 0 -0.0613181 -0.00637779 0 540.896 540.896 1001.28 
111 1 1 0.218615 0.00636748 0 0 0 0 -0.074019 0.00154243 0 0.0942886 0.0124237 0 -0.074019 0.00154243 0 566.96 566.96 1001.34 
112 1 1 0.229588 0.00941794 0 0 0 0 -0.0678327 -0.0248059 0 0.0543205 -0.0190273 0 -0.0678327 -0.0248059 0 555.919 555.919 1001.32 
113 1 1 0.239091 0.00721255 0 0 0 0 -0.061701 0.0174179 0 0.124314 0.0163997 0 -0.061701 0.0174179 0 540.866 540.866 1001.28 
114 1 1 0.250912 0.00771406 0 0 0 0 -0.0661971 -0.0115497 0 0.0750438 0.00308014 0 -0.0661971 -0.0115497 0 543.289 543.289 1001.29 
115 1 1 0.254211 0.0180644 0 0 0 0 -0.0693228 -0.035449 0 0.109992 -0.0198438 0 -0.0693228 -0.035449 0 484 484 1001.15 
116 1 1 0.262927 0.00715478 0 0 0 0 -0.0386531 -0.0188822 0 0.0340634 0.0515079 0 -0.0386531 -0.0188822 0 556.205 556.205 1001.32 
117 1 1 0.274406 0.00875614 0 0 0 0 -0.0397606 0.0206363 0 0.022953 0.0011655 0 -0.0397606 0.0206363 0 506.414 506.414 1001.2 
118 1 1 0.284082 0.00786837 0 0 0 0 -0.0585097 -0.000879799 0 0.0359326 -0.0307551 0 -0.0585097 -0.000879799 0 505.496 505.496 1001.2 
119 1 1 0.296232 0.00721212 0 0 0 0 -0.0578148 -0.000184942 0 0.0464929 -0.008653 0 -0.0578148 -0.000184942 0 512.047 512.047 1001.21 
120 1 1 0.297427 0.0178614 0 0 0 0 -0.0416416 0.013377 0 0.0793511 -0.0306449 0 -0.0416416 0.013377 0 426.267 426.267 1001.01 
121 1 1 0.306344 0.00895041 0 0 0 0 -0.071853 0.00450114 0 0.0943931 0.00198349 0 -0.071853 0.00450114 0 478.445 478.445 1001.14 
122 1 1 0.318383 0.00626288 0 0 0 0 -0.0726218 -0.00421249 0 0.0764081 0.00247328 0 -0.0726218 -0.00421249 0 504.492 504.492 1001.2 
123 1 1 0.327748 0.0119369 0 0 0 0 -0.0691702 -0.0152085 0 -0.00321863 0.0219699 0 -0.0691702 -0.0152085 0 455.156 455.156 1001.08 
124 1 1 0.335481 0.00690838 0 0 0 0 -0.0462721 -0.00413073 0 0.0629713 0.0160906 0 -0.0462721 -0.00413073 0 500.973 500.973 1001.19 
125 1 1 0.348176 0.00744417 0 0 0 0 -0.0408903 -0.000202862 0 0.00340192 -0.0105344 0 -0.0408903 -0.000202862 0 465.374 465.374 1001.1 
126 1 1 0.354307 0.0146057 0 0 0 0 -0.0755536 0.0241386 0 0.0204858 0.0263655 0 -0.0755536 0.0241386 0 432.411 432.411 1001.03 
127 1 1 0.360868 0.00723948 0 0 0 0 -0.0670776 0.00635754 0 0.0199663 0.020288 0 -0.0670776 0.00635754 0 472.121 472.121 1001.12 
128 1 1 0.372707 0.00725223 0 0 0 0 -0.0784748 -0.00148995 0 0.00300007 -0.000310834 0 -0.0784748 -0.00148995 0 469.248 469.248 1001.11 
129 1 1 0.394431 0.00612814 0 0 0 0 -0.0209109 -0.00402111 0 0.012663 0.0250614 0 -0.0209109 -0.00402111 0 478.728 478.728 1001.14 
130 1 1 0.407127 0.00877849 0 0 0 0 0.00901232 -0.0135087 0 -0.0321199 -0.0625533 0 0.00901232 -0.0135087 0 447.353 447.353 1001.06 
131 1 1 0.417695 0.00720687 0 0 0 0 0.0276081 -0.00132654 0 0.0310379 0.0309233 0 0.0276081 -0.00132654 0 463.035 463.035 1001.1 
132 1 1 0.409492 0.0172506 0 0 0 0 0.00911251 -0.023042 0 0.0481212 0.0072482 0 0.00911251 -0.023042 0 386.471 386.471 1000.92 
133 1 1 0.429629 0.00745236 0 0 0 0 0.00383066 0.0102032 0 -0.0210073 0.00719097 0 0.00383066 0.0102032 0 456.634 456.634 1001.08 
134 1 1 0.442103 0.0168401 0 0 0 0 -0.00530386 0.0050396 0 0.0158585 0.0113668 0 -0.00530386 0.0050396 0 387.796 387.796 1000.92 
135 1 1 0.441071 0.00748565 0 0 0 0 -0.00234648 -0.00969873 0 -0.0116409 0.032203 0 -0.00234648 -0.00969873 0 463.32 463.32 1001.1 
136 1 1 0.450879 0.00929155 0 0 0 0 -0.0137514 0.0145293 0 -0.0389679 -0.0436712 0 -0.0137514 0.0145293 0 417.382 417.382 1000.99 
137 1 1 0.460523 0.00681836 0 0 0 0 -0.00121404 -0.012311 0 0.00283622 0.0104759 0 -0.00121404 -0.012311 0 442.451 442.451 1001.05 
138 1 1 0.477655 0.00700973 0 0 0 0 -0.00270436 -0.00331802 0 0.0340228 -0.00764476 0 -0.00270436 -0.00331802 0 443.962 443.962 1001.05 
139 1 1 0.491012 0.00625814 0 0 0 0 0.00445922 -0.00144119 0 0.0177119 0.0253735 0 0.00445922 -0.00144119 0 458.316 458.316 1001.09 
140 1 1 0.16108 0.0384733 0 0 0 0 -0.150665 -0.0465758 0 0.0954114 0.0104096 0 -0.150665 -0.0465758 0 404.486 404.486 1000.96 
141 1 1 0.169286 0.03096 0 0 0 0 -0.139706 -0.0804076 0 -0.0219252 0.0427317 0 -0.139706 -0.0804076 0 430.45 430.45 1001.02 
142 1 1 0.185327 0.0500392 0 0 0 0 -0.122017 -0.0619092 0 -0.0187938 0.0338203 0 -0.122017 -0.0619092 0 275.033 275.033 1000.65 
143 1 1 0.182602 0.0328047 0 0 0 0 -0.111031 -0.00376972 0 0.0472648 -0.0364704 0 -0.111031 -0.00376972 0 392.693 392.693 1000.93 
144 1 1 0.194743 0.0373954 0 0 0 0 -0.11558 -0.0883453 0 0.0796775 -0.0104133 0 -0.11558 -0.0883453 0 311.787 311.787 1000.74 
145 1 1 0.186295 0.0223941 0 0 0 0 -0.133117 -0.0286401 0 0.0519812 0.0836192 0 -0.133117 -0.0286401 0 503.974 503.974 1001.2 
146 1 1 0.204231 0.0404779 0 0 0 0 -0.139437 -0.0111435 0 -0.0260424 -0.0174329 0 -0.139437 -0.0111435 0 301.179 301.179 1000.72 
147 1 1 0.193332 0.0289035 0 0 0 0 -0.103109 -0.0835538 0 0.0785896 -0.0428708 0 -0.103109 -0.0835538 0 423.367 423.367 1001 
148 1 1 0.203541 0.0287936 0 0 0 0 -0.0878597 -0.000403417 0 0.0721885 0.0270221 0 -0.0878597 -0.000403417 0 426.447 426.447 1001.01 
149 1 1 0.214451 0.0226754 0 0 0 0 -0.0902835 -0.0162664 0 0.0740414 0.00087447 0 -0.0902835 -0.0162664 0 473.551 473.551 1001.12 
150 1 1 0.233626 0.0324102 0 0 0 0 -0.0422661 0.0307231 0 0.0602027 0.00271173 0 -0.0422661 0.0307231 0 353.687 353.687 1000.84 
151 1 1 0.222189 0.0165351 0 0 0 0 -0.0633637 0.00551071 0 0.110107 0.0512295 0 -0.0633637 0.00551071 0 489.318 489.318 1001.16 
152 1 1 0.225498 0.026077 0 0 0 0 -0.0736597 0.0197635 0 0.0962435 -0.0280417 0 -0.0736597 0.0197635 0 409.138 409.138 1000.97 
153 1 1 0.233334 0.0182015 0 0 0 0 -0.103496 0.0129501 0 0.0662072 -0.0481621 0 -0.103496 0.0129501 0 500.322 500.322 1001.19 
154 1 1 0.263978 0.0154799 0 0 0 0 -0.0571652 -0.00917761 0 0.0979873 0.0349404 0 -0.0571652 -0.00917761 0 502.549 502.549 1001.19 
155 1 1 0.278685 0.0185687 0 0 0 0 -0.0442228 0.010005 0 0.114407 -0.0756698 0 -0.0442228 0.010005 0 448.921 448.921 1001.07 
156 1 1 0.271309 0.0213388 0 0 0 0 -0.0951762 -0.0111051 0 0.0720939 0.0323654 0 -0.0951762 -0.0111051 0 433.408 433.408 1001.03 
157 1 1 0.289077 0.0162158 0 0 0 0 -0.0427097 -0.00485311 0 0.108589 0.0467483 0 -0.0427097 -0.00485311 0 445.058 445.058 1001.06 
158 1 1 0.285091 0.0266773 0 0 0 0 -0.109598 -7.52757e-05 0 0.0478558 -0.000761798 0 -0.109598 -7.52757e-05 0 376.584 376.584 1000.89 
159 1 1 0.30589 0.0232816 0 0 0 0 -0.0521685 0.0159973 0 0.0025884 0.0430578 0 -0.0521685 0.0159973 0 390.799 390.799 1000.93 
160 1 1 0.310605 0.0160384 0 0 0 0 -0.0597136 0.0176273 0 0.0576323 0.00784959 0 -0.0597136 0.0176273 0 438.738 438.738 1001.04 
161 1 1 0.319704 0.0175108 0 0 0 0 -0.0742914 -0.00837157 0 0.0422195 0.0441338 0 -0.0742914 -0.00837157 0 438.019 438.019 1001.04 
162 1 1 0.331376 0.0208106 0 0 0 0 -0.0747068 0.00376656 0 0.0838806 -0.00165012 0 -0.0747068 0.00376656 0 395.685 395.685 1000.94 
163 1 1 0.340923 0.0153956 0 0 0 0 -0.093452 -0.00832273 0 0.0214015 0.026075 0 -0.093452 -0.00832273 0 430.992 430.992 1001.02 
164 1 1 0.359038 0.0227561 0 0 0 0 -0.0712039 -0.0203699 0 0.0260088 0.0690129 0 -0.0712039 -0.0203699 0 367.355 367.355 1000.87 
165 1 1 0.382968 0.00935787 0 0 0 0 -0.0418137 -0.0236817 0 0.020709 -0.000268974 0 -0.0418137 -0.0236817 0 470.434 470.434 1001.12 
166 1 1 0.366534 0.0162634 0 0 0 0 -0.041109 -0.019093 0 0.0287595 -0.0123828 0 -0.041109 -0.019093 0 392.435 392.435 1000.93 
167 1 1 0.379049 0.0270531 0 0 0 0 -0.0187636 -0.0382398 0 0.0439351 0.0275251 0 -0.0187636 -0.0382398 0 326.829 326.829 1000.78 
168 1 1 0.398252 0.0145803 0 0 0 0 0.00983263 -0.0157766 0 0.062253 0.0811156 0 0.00983263 -0.0157766 0 434.846 434.846 1001.03 
169 1 1 0.388245 0.0295388 0 0 0 0 -0.0371219 -0.0274379 0 -0.0509893 -0.00462575 0 -0.0371219 -0.0274379 0 276.386 276.386 1000.66 
170 1 1 0.38643 0.0169742 0 0 0 0 -0.007679 -0.0392126 0 -0.0144139 0.0161228 0 -0.007679 -0.0392126 0 405.92 405.92 1000.96 
171 1 1 0.394702 0.0227632 0 0 0 0 -0.00941707 -0.0242813 0 0.0438135 -0.027041 0 -0.00941707 -0.0242813 0 360.524 360.524 1000.86 
172 1 1 0.419981 0.0162452 0 0 0 0 0.0174513 0.00233202 0 -0.0527003 0.0288195 0 0.0174513 0.00233202 0 408.067 408.067 1000.97 
173 1 1 0.430482 0.0161828 0 0 0 0 0.0239295 0.0217148 0 0.0292893 0.00707484 0 0.0239295 0.0217148 0 420.457 420.457 1001 
174 1 1 0.45716 0.0183781 0 0 0 0 0.0110287 -0.016347 0 0.0386839 -0.0765457 0 0.0110287 -0.016347 0 394.769 394.769 1000.94 
175 1 1 0.464862 0.0206614 0 0 0 0 0.00791371 0.0166527 0 -0.0224969 0.00859435 0 0.00791371 0.0166527 0 360.488 360.488 1000.86 
176 1 1 0.469191 0.0109938 0 0 0 0 -0.00711071 0.00224748 0 0.0201592 0.000550797 0 -0.00711071 0.00224748 0 416.19 416.19 1000.99 
177 1 1 0.482892 0.0148432 0 0 0 0 0.00259632 -0.0105019 0 -0.0024003 0.0185104 0 0.00259632 -0.0105019 0 412.666 412.666 1000.98 
178 1 1 0.491311 0.0176596 0 0 0 0 -0.00488532 -0.000160945 0 0.00229282 0.0152327 0 -0.00488532 -0.000160945 0 389.028 389.028 1000.92 
179 1 1 0.153643 0.0448562 0 0 0 0 -0.121682 -0.0259091 0 -0.0360365 -0.0176452 0 -0.121682 -0.0259091 0 266.098 266.098 1000.63 
180 1 1 0.172126 0.0402223 0 0 0 0 -0.134046 -0.057365 0 0.109161 -0.0373152 0 -0.134046 -0.057365 0 303.482 303.482 1000.72 
181 1 1 0.172435 0.0479452 0 0 0 0 -0.16766 -0.0464432 0 0.140449 -0.0480556 0 -0.16766 -0.0464432 0 257.008 257.008 1000.61 
182 1 1 0.183661 0.0410205 0 0 0 0 -0.148792 -0.03202 0 0.0321219 -0.0234022 0 -0.148792 -0.03202 0 334.014 334.014 1000.79 
183 1 1 0.184995 0.0611252 0 0 0 0 -0.130285 -0.103063 0 0.0381471 -0.0298461 0 -0.130285 -0.103063 0 162.614 162.614 1000.39 
184 1 1 0.175378 0.0575687 0 0 0 0 -0.134664 -0.0740987 0 0.0594987 -0.0123669 0 -0.134664 -0.0740987 0 179.177 179.177 1000.43 
185 1 1 0.194928 0.047591 0 0 0 0 -0.119668 -0.0631253 0 0.147412 -0.0618923 0 -0.119668 -0.0631253 0 241.902 241.902 1000.57 
186 1 1 0.212794 0.0321571 0 0 0 0 -0.107817 -0.0209989 0 0.0631215 -0.00181932 0 -0.107817 -0.0209989 0 397.341 397.341 1000.94 
187 1 1 0.222043 0.0347412 0 0 0 0 -0.0850298 -0.0261434 0 0.0706271 0.0231249 0 -0.0850298 -0.0261434 0 352.246 352.246 1000.84 
188 1 1 0.227478 0.04257 0 0 0 0 -0.0883824 -0.00462349 0 0.0621426 -0.0215776 0 -0.0883824 -0.00462349 0 294.632 294.632 1000.7 
189 1 1 0.244 0.0351876 0 0 0 0 -0.0303052 -0.0208937 0 0.0251876 0.00413363 0 -0.0303052 -0.0208937 0 335.537 335.537 1000.8 
190 1 1 0.2453 0.0157711 0 0 0 0 -0.0899478 0.000369784 0 0.00425556 0.0552264 0 -0.0899478 0.000369784 0 502.606 502.606 1001.19 
191 1 1 0.255639 0.0356335 0 0 0 0 -0.0582102 -0.00304717 0 0.0688931 0.0184015 0 -0.0582102 -0.00304717 0 330.982 330.982 1000.79 
192 1 1 0.24995 0.0273026 0 0 0 0 -0.0803042 -0.0400149 0 0.0745572 -0.0286016 0 -0.0803042 -0.0400149 0 410.094 410.094 1000.97 
193 1 1 0.27516 0.0315566 0 0 0 0 -0.0892919 -0.00606972 0 0.133813 -0.0503303 0 -0.0892919 -0.00606972 0 345.22 345.22 1000.82 
194 1 1 0.260215 0.0453003 0 0 0 0 -0.0771004 0.00166455 0 0.094939 -0.0195903 0 -0.0771004 0.00166455 0 248.516 248.516 1000.59 
195 1 1 0.286326 0.0356297 0 0 0 0 -0.0577797 0.0323651 0 0.0424923 0.0461337 0 -0.0577797 0.0323651 0 273.09 273.09 1000.65 
196 1 1 0.295002 0.0279924 0 0 0 0 -0.128256 -0.00937192 0 0.119556 0.00884172 0 -0.128256 -0.00937192 0 344.928 344.928 1000.82 
197 1 1 0.302399 0.0343056 0 0 0 0 -0.106456 -0.0323126 0 0.0884536 0.0361137 0 -0.106456 -0.0323126 0 259.497 259.497 1000.62 
198 1 1 0.312512 0.0303519 0 0 0 0 -0.0822023 0.0234136 0 0.0831935 -0.00902443 0 -0.0822023 0.0234136 0 305.582 305.582 1000.73 
199 1 1 0.327027 0.0338608 0 0 0 0 -0.0732381 -0.018251 0 0.0494553 0.0212834 0 -0.0732381 -0.018251 0 267.353 267.353 1000.64 
200 1 1 0.321737 0.0264389 0 0 0 0 -0.0350121 -0.0170943 0 0.0563774 0.0434179 0 -0.0350121 -0.0170943 0 352.702 352.702 1000.84 
201 1 1 0.346849 0.0219724 0 0 0 0 -0.0791777 -0.00555317 0 0.043542 -0.0335119 0 -0.0791777 -0.00555317 0 379.671 379.671 1000.9 
202 1 1 0.3375 0.0364338 0 0 0 0 -0.0954611 0.00942893 0 0.0673418 0.0185472 0 -0.0954611 0.00942893 0 237.667 237.667 1000.56 
203 1 1 0.349672 0.0306131 0 0 0 0 -0.059434 0.0116501 0 0.0399045 0.0393919 0 -0.059434 0.0116501 0 261.069 261.069 1000.62 
204 1 1 0.358191 0.0338556 0 0 0 0 -0.0381621 -0.0238876 0 0.0681228 0.085637 0 -0.0381621 -0.0238876 0 254.006 254.006 1000.6 
205 1 1 0.375605 0.0180397 0 0 0 0 -0.00299314 -0.0210484 0 0.0133422 0.0130426 0 -0.00299314 -0.0210484 0 378.444 378.444 1000.9 
206 1 1 0.368192 0.0274448 0 0 0 0 -0.0509746 -0.051626 0 -0.0151619 -0.0224226 0 -0.0509746 -0.051626 0 311.862 311.862 1000.74 
207 1 1 0.409446 0.0375814 0 0 0 0 -0.0688043 -0.0153965 0 -0.0209197 -0.100569 0 -0.0688043 -0.0153965 0 221.647 221.647 1000.53 
208 1 1 0.422802 0.0255472 0 0 0 0 -0.0349597 0.00668653 0 0.0501181 -0.0275893 0 -0.0349597 0.00668653 0 351.251 351.251 1000.83 
209 1 1 0.403856 0.0267341 0 0 0 0 -0.0223521 -0.0373427 0 0.00170886 0.0461455 0 -0.0223521 -0.0373427 0 334.488 334.488 1000.79 
210 1 1 0.435043 0.0241491 0 0 0 0 -0.0311869 0.0232207 0 -0.0510541 0.0604516 0 -0.0311869 0.0232207 0 361.894 361.894 1000.86 
211 1 1 0.412441 0.0273979 0 0 0 0 -0.00323962 -0.000761912 0 0.052227 0.00733553 0 -0.00323962 -0.000761912 0 294.205 294.205 1000.7 
212 1 1 0.442991 0.0303611 0 0 0 0 -0.00303924 -0.0330807 0 0.0978987 0.00889364 0 -0.00303924 -0.0330807 0 316.721 316.721 1000.75 
213 1 1 0.45012 0.0220438 0 0 0 0 0.0190351 -0.00893535 0 -0.04042 0.0290995 0 0.0190351 -0.00893535 0 359.823 359.823 1000.85 
214 1 1 0.468316 0.0314197 0 0 0 0 -0.00893011 0.0264644 0 -0.00377836 -0.0240916 0 -0.00893011 0.0264644 0 266.891 266.891 1000.63 
215 1 1 0.481421 0.0254775 0 0 0 0 -0.022596 -0.00646226 0 -0.0309092 0.0705162 0 -0.022596 -0.00646226 0 333.471 333.471 1000.79 
216 1 1 0.473874 0.0210762 0 0 0 0 -0.00745475 -0.00312155 0 0.0197429 -0.0348568 0 -0.00745475 -0.00312155 0 368.664 368.664 1000.88 
217 1 1 0.491297 0.0296735 0 0 0 0 -0.0182396 -0.0189738 0 -0.0376026 0.0084694 0 -0.0182396 -0.0189738 0 330.644 330.644 1000.79 
218 1 1 0.150336 0.0615413 0 0 0 0 -0.270348 -0.070458 0 0.17138 0.0884292 0 -0.270348 -0.070458 0 212.631 212.631 1000.51 
219 1 1 0.130532 0.0575982 0 0 0 0 -0.278604 -0.0799846 0 0.180668 0.128149 0 -0.278604 -0.0799846 0 303.986 303.986 1000.72 
220 1 1 0.148052 0.0540579 0 0 0 0 -0.270283 -0.0248812 0 0.101289 -0.0490339 0 -0.270283 -0.0248812 0 245.525 245.525 1000.58 
221 1 1 0.164105 0.0585552 0 0 0 0 -0.189026 -0.0723625 0 -0.0229837 0.0126291 0 -0.189026 -0.0723625 0 171.502 171.502 1000.41 
222 1 1 0.161745 0.0504887 0 0 0 0 -0.167926 -0.0668637 0 -0.0595191 0.0137292 0 -0.167926 -0.0668637 0 276.095 276.095 1000.66 
223 1 1 0.204991 0.0525523 0 0 0 0 -0.0801666 -0.0707753 0 0.0208834 0.0060536 0 -0.0801666 -0.0707753 0 239.391 239.391 1000.57 
224 1 1 0.212388 0.0429849 0 0 0 0 -0.0770208 -0.0530572 0 0.153218 -0.00845622 0 -0.0770208 -0.0530572 0 266.024 266.024 1000.63 
225 1 1 0.219503 0.0491927 0 0 0 0 -0.0736577 -0.0353188 0 0.0543678 -0.000978732 0 -0.0736577 -0.0353188 0 208.008 208.008 1000.49 
226 1 1 0.227637 0.0542568 0 0 0 0 -0.0479694 -0.00541768 0 0.0730898 0.0252215 0 -0.0479694 -0.00541768 0 161.907 161.907 1000.39 
227 1 1 0.2392 0.0240298 0 0 0 0 -0.101868 -0.00571877 0 0.129663 0.0969736 0 -0.101868 -0.00571877 0 451.137 451.137 1001.07 
228 1 1 0.237243 0.043328 0 0 0 0 -0.078395 -0.0165116 0 0.126629 0.0408927 0 -0.078395 -0.0165116 0 269.808 269.808 1000.64 
229 1 1 0.248522 0.0448446 0 0 0 0 -0.0596534 -0.0124609 0 0.0489124 0.0510437 0 -0.0596534 -0.0124609 0 244.339 244.339 1000.58 
230 1 1 0.261599 0.0262091 0 0 0 0 -0.10078 -0.0104226 0 0.0712019 0.0641734 0 -0.10078 -0.0104226 0 406.29 406.29 1000.96 
231 1 1 0.266428 0.0353132 0 0 0 0 -0.0605168 -0.0113918 0 0.0329447 0.00112775 0 -0.0605168 -0.0113918 0 336.231 336.231 1000.8 
232 1 1 0.274567 0.0418605 0 0 0 0 -0.0787978 0.000850146 0 0.110104 0.00879836 0 -0.0787978 0.000850146 0 262.414 262.414 1000.62 