ITEM: TIMESTEP
55000
ITEM: NUMBER OF ATOMS
754
ITEM: BOX BOUNDS ff ff pp
-0.021 0.521
-0.021 0.5
-0.001 0.001
ITEM: ATOMS id type type x y z ix iy iz vx vy vz fx fy fz vx vy vz p p rho 
1 1 1 0.00862161 0.0081071 0 0 0 0 0.0532619 -0.0431699 0 -0.154576 -0.127429 0 0.0532619 -0.0431699 0 373.754 373.754 1000.89 
2 1 1 0.0229752 0.00714343 0 0 0 0 -0.0699672 0.0117896 0 -0.101998 -0.0560728 0 -0.0699672 0.0117896 0 443.28 443.28 1001.05 
3 1 1 0.0497309 0.00789663 0 0 0 0 -0.0938112 -0.0138932 0 -0.0743022 -0.0137838 0 -0.0938112 -0.0138932 0 524.308 524.308 1001.24 
4 1 1 0.0645364 0.00704541 0 0 0 0 -0.0342593 -0.0183495 0 0.0962696 -0.0316387 0 -0.0342593 -0.0183495 0 431.084 431.084 1001.02 
5 1 1 0.0927828 0.00806795 0 0 0 0 -0.0123925 -0.014946 0 -0.00437133 -0.0212885 0 -0.0123925 -0.014946 0 438.961 438.961 1001.04 
6 1 1 0.105073 0.00783015 0 0 0 0 -0.0334221 -0.0209404 0 -0.0223811 0.0199314 0 -0.0334221 -0.0209404 0 488.027 488.027 1001.16 
7 1 1 0.144141 0.00949655 0 0 0 0 -0.0199902 -0.00837844 0 -0.069533 -0.0561298 0 -0.0199902 -0.00837844 0 478.183 478.183 1001.13 
8 1 1 0.154978 0.00720387 0 0 0 0 0.015997 -0.00285721 0 -0.0633998 0.08399 0 0.015997 -0.00285721 0 537.067 537.067 1001.27 
9 1 1 0.184352 0.00867768 0 0 0 0 0.0458647 -0.013486 0 0.0139834 -0.0456876 0 0.0458647 -0.013486 0 520.41 520.41 1001.23 
10 1 1 0.208824 0.00834148 0 0 0 0 0.0788098 0.00096587 0 -0.128406 -0.0357374 0 0.0788098 0.00096587 0 516.224 516.224 1001.22 
11 1 1 0.0196859 0.023451 0 0 0 0 -0.156311 0.167087 0 -0.341582 -0.352251 0 -0.156311 0.167087 0 306.316 306.316 1000.73 
12 1 1 0.0377064 0.00764067 0 0 0 0 -0.0883969 0.000999396 0 -0.0398124 -0.0147078 0 -0.0883969 0.000999396 0 462.679 462.679 1001.1 
13 1 1 0.0573789 0.0143032 0 0 0 0 -0.109797 0.00167967 0 -0.027716 -0.0374931 0 -0.109797 0.00167967 0 504.622 504.622 1001.2 
14 1 1 0.0787786 0.00744121 0 0 0 0 -0.0635107 0.011987 0 -0.00959686 0.0867373 0 -0.0635107 0.011987 0 538.782 538.782 1001.28 
15 1 1 0.104606 0.0164468 0 0 0 0 -0.0152134 0.0356037 0 0.0517976 0.0794054 0 -0.0152134 0.0356037 0 416.866 416.866 1000.99 
16 1 1 0.131993 0.00717315 0 0 0 0 -0.0344297 -0.00531229 0 -0.0147729 0.072601 0 -0.0344297 -0.00531229 0 496.58 496.58 1001.18 
17 1 1 0.150384 0.0179508 0 0 0 0 0.0106643 0.00396401 0 -0.0307748 -0.0318184 0 0.0106643 0.00396401 0 389.382 389.382 1000.92 
18 1 1 0.172579 0.00755576 0 0 0 0 0.0781329 0.021489 0 -0.0144603 0.0351071 0 0.0781329 0.021489 0 508.306 508.306 1001.21 
19 1 1 0.19631 0.00777098 0 0 0 0 0.0870423 -0.0100418 0 -0.0633786 0.0474129 0 0.0870423 -0.0100418 0 511.641 511.641 1001.21 
20 1 1 0.200893 0.015773 0 0 0 0 0.010775 0.00887083 0 -0.0263472 0.0179842 0 0.010775 0.00887083 0 453.768 453.768 1001.08 
21 1 1 0.0182539 0.0139423 0 0 0 0 0.0165246 0.100416 0 -0.368981 0.334386 0 0.0165246 0.100416 0 366.539 366.539 1000.87 
22 1 1 0.0302577 0.0144621 0 0 0 0 -0.114611 0.0328282 0 -0.0403994 0.0297939 0 -0.114611 0.0328282 0 469.745 469.745 1001.11 
23 1 1 0.0430274 0.0166493 0 0 0 0 -0.138484 -0.00168504 0 0.0654951 0.0307688 0 -0.138484 -0.00168504 0 328.987 328.987 1000.78 
24 1 1 0.0808205 0.020885 0 0 0 0 0.00253829 -0.0541948 0 -0.0696103 0.0759153 0 0.00253829 -0.0541948 0 355.507 355.507 1000.84 
25 1 1 0.0872105 0.0146023 0 0 0 0 -0.0765496 0.00228229 0 0.158004 0.0135927 0 -0.0765496 0.00228229 0 435.03 435.03 1001.03 
26 1 1 0.118013 0.00790191 0 0 0 0 0.01547 0.0121953 0 0.0583289 -0.0248998 0 0.01547 0.0121953 0 482.698 482.698 1001.15 
27 1 1 0.138444 0.0166383 0 0 0 0 0.0620364 -0.0199793 0 -0.102908 0.0109934 0 0.0620364 -0.0199793 0 421.435 421.435 1001 
28 1 1 0.165384 0.0123595 0 0 0 0 -0.0296865 -0.0760086 0 -0.0320207 -0.121079 0 -0.0296865 -0.0760086 0 479.737 479.737 1001.14 
29 1 1 0.191328 0.0193704 0 0 0 0 0.045012 -0.015724 0 -0.0380385 -0.0460106 0 0.045012 -0.015724 0 419.325 419.325 1001 
30 1 1 0.207048 0.0269257 0 0 0 0 0.0653778 -0.0454583 0 -0.0289883 -0.00206978 0 0.0653778 -0.0454583 0 362.709 362.709 1000.86 
31 1 1 0.00795895 0.0178291 0 0 0 0 -0.0368711 -0.0206682 0 0.337585 0.493024 0 -0.0368711 -0.0206682 0 368.243 368.243 1000.87 
32 1 1 0.0331559 0.0215556 0 0 0 0 -0.0848532 0.0217827 0 -0.144696 -0.0214066 0 -0.0848532 0.0217827 0 361.969 361.969 1000.86 
33 1 1 0.0731709 0.014684 0 0 0 0 -0.0427116 -0.0235607 0 -0.112612 0.0706427 0 -0.0427116 -0.0235607 0 383.769 383.769 1000.91 
34 1 1 0.0976654 0.0196522 0 0 0 0 0.0273521 -0.0586055 0 -0.08571 0.0114511 0 0.0273521 -0.0586055 0 369.138 369.138 1000.88 
35 1 1 0.126936 0.0151046 0 0 0 0 0.0364911 0.0301244 0 -0.0955903 0.011601 0 0.0364911 0.0301244 0 435.013 435.013 1001.03 
36 1 1 0.14336 0.0247219 0 0 0 0 -0.00992781 0.0177286 0 -0.10503 0.0754624 0 -0.00992781 0.0177286 0 337.482 337.482 1000.8 
37 1 1 0.173112 0.0198144 0 0 0 0 -0.000603659 -0.0415442 0 -0.168194 -0.0786029 0 -0.000603659 -0.0415442 0 413.245 413.245 1000.98 
38 1 1 0.183302 0.016475 0 0 0 0 0.0463626 0.000612144 0 -0.139901 0.0650822 0 0.0463626 0.000612144 0 450.998 450.998 1001.07 
39 1 1 0.196916 0.0269466 0 0 0 0 0.0632063 0.0190916 0 -0.0109853 0.0152542 0 0.0632063 0.0190916 0 348.458 348.458 1000.83 
40 1 1 0.185852 0.0422822 0 0 0 0 0.0174592 -0.0627475 0 -0.0842392 -0.067607 0 0.0174592 -0.0627475 0 201.238 201.238 1000.48 
41 1 1 0.00664079 0.0338507 0 0 0 0 -0.0478154 0.0388462 0 0.111854 -0.54128 0 -0.0478154 0.0388462 0 263.906 263.906 1000.63 
42 1 1 0.0171003 0.0317516 0 0 0 0 -0.166907 0.13388 0 0.277116 -0.145529 0 -0.166907 0.13388 0 204.328 204.328 1000.49 
43 1 1 0.0511252 0.0206022 0 0 0 0 -0.0300185 -0.10993 0 -0.220769 0.180564 0 -0.0300185 -0.10993 0 295.994 295.994 1000.7 
44 1 1 0.0771055 0.0288378 0 0 0 0 -0.023996 -0.00273621 0 -0.0158021 0.00497547 0 -0.023996 -0.00273621 0 222.808 222.808 1000.53 
45 1 1 0.109856 0.0259437 0 0 0 0 -0.00481555 0.056993 0 -0.121796 0.0255086 0 -0.00481555 0.056993 0 293.755 293.755 1000.7 
46 1 1 0.130826 0.024288 0 0 0 0 -0.000170055 0.0145351 0 0.000969899 -0.0250468 0 -0.000170055 0.0145351 0 346.246 346.246 1000.82 
47 1 1 0.16036 0.0182741 0 0 0 0 0.0144368 0.0066357 0 -0.0886779 0.139587 0 0.0144368 0.0066357 0 420.341 420.341 1001 
48 1 1 0.186428 0.0298491 0 0 0 0 0.0258608 -0.0456676 0 -0.0459572 -0.0351491 0 0.0258608 -0.0456676 0 296.206 296.206 1000.7 
49 1 1 0.194854 0.0365628 0 0 0 0 0.0357401 -0.000626414 0 -0.0294669 -0.0140514 0 0.0357401 -0.000626414 0 266.713 266.713 1000.63 
50 1 1 0.180348 0.05222 0 0 0 0 0.0167978 -0.0660025 0 0.0287772 0.00528946 0 0.0167978 -0.0660025 0 86.0279 86.0279 1000.2 
51 1 1 0.00630099 0.0464923 0 0 0 0 0.123961 0.00978238 0 0.298157 -0.0539432 0 0.123961 0.00978238 0 139.662 139.662 1000.33 
52 1 1 0.0438743 0.0295173 0 0 0 0 -0.192034 0.0449001 0 0.429517 -0.368956 0 -0.192034 0.0449001 0 309.268 309.268 1000.73 
53 1 1 0.0576675 0.0294586 0 0 0 0 -0.0617622 -0.0872357 0 -0.232016 0.000127202 0 -0.0617622 -0.0872357 0 222.093 222.093 1000.53 
54 1 1 0.0915064 0.0261701 0 0 0 0 -0.00857252 -0.0250684 0 -0.057827 0.0286229 0 -0.00857252 -0.0250684 0 291.48 291.48 1000.69 
55 1 1 0.114387 0.0327656 0 0 0 0 0.00632836 -0.0152122 0 -0.025383 0.0981244 0 0.00632836 -0.0152122 0 226.665 226.665 1000.54 
56 1 1 0.134569 0.0339226 0 0 0 0 -0.0202359 -0.0280265 0 0.0598455 -0.118439 0 -0.0202359 -0.0280265 0 260.423 260.423 1000.62 
57 1 1 0.158238 0.0268391 0 0 0 0 0.0323233 -0.013702 0 -0.00786547 -0.0434047 0 0.0323233 -0.013702 0 334.293 334.293 1000.79 
58 1 1 0.163298 0.0402137 0 0 0 0 -0.0109725 -0.00253173 0 -0.0782938 0.0324597 0 -0.0109725 -0.00253173 0 181.558 181.558 1000.43 
59 1 1 0.178265 0.0362805 0 0 0 0 0.00403122 -0.0660456 0 -0.0163363 0.0727145 0 0.00403122 -0.0660456 0 239.716 239.716 1000.57 
60 1 1 0.196955 0.0471748 0 0 0 0 0.00856822 -0.0179309 0 -0.0277598 -0.0851674 0 0.00856822 -0.0179309 0 82.9815 82.9815 1000.2 
61 1 1 0.0379765 0.03015 0 0 0 0 0.0988243 0.0729059 0 -0.856219 0.179269 0 0.0988243 0.0729059 0 244.849 244.849 1000.58 
62 1 1 0.0254383 0.0297388 0 0 0 0 0.00911943 -0.131614 0 0.250486 0.416888 0 0.00911943 -0.131614 0 157.732 157.732 1000.38 
63 1 1 0.0648636 0.0197273 0 0 0 0 -0.109438 0.016343 0 0.215884 -0.140943 0 -0.109438 0.016343 0 411.671 411.671 1000.98 
64 1 1 0.0743407 0.0381584 0 0 0 0 -0.137733 -0.0332288 0 -0.143552 0.00818995 0 -0.137733 -0.0332288 0 152.683 152.683 1000.36 
65 1 1 0.100326 0.031466 0 0 0 0 -0.0285964 -0.0294469 0 0.0536225 -0.0438177 0 -0.0285964 -0.0294469 0 201.89 201.89 1000.48 
66 1 1 0.115616 0.0157502 0 0 0 0 -0.0392047 -0.053895 0 -0.0494578 0.113914 0 -0.0392047 -0.053895 0 415.424 415.424 1000.99 
67 1 1 0.147154 0.0321148 0 0 0 0 0.0197938 -0.0171986 0 -0.159181 0.0418532 0 0.0197938 -0.0171986 0 255.685 255.685 1000.61 
68 1 1 0.166935 0.0316262 0 0 0 0 0.00654152 -0.0458222 0 -0.0747584 -0.0812061 0 0.00654152 -0.0458222 0 291.296 291.296 1000.69 
69 1 1 0.176023 0.0264605 0 0 0 0 0.0126268 -0.048072 0 -0.00429734 0.00941847 0 0.0126268 -0.048072 0 363.687 363.687 1000.86 
70 1 1 0.172238 0.0538363 0 0 0 0 -0.0391381 -0.077036 0 -0.024232 -0.0266539 0 -0.0391381 -0.077036 0 70.8316 70.8316 1000.17 
71 1 1 0.0251319 0.0494792 0 0 0 0 -0.237266 0.190867 0 -1.00819 0.0963295 0 -0.237266 0.190867 0 460.469 460.469 1001.09 
72 1 1 0.0148399 0.0374484 0 0 0 0 0.108069 0.227419 0 0.368496 0.122059 0 0.108069 0.227419 0 120.062 120.062 1000.29 
73 1 1 0.0329272 0.0452039 0 0 0 0 -0.245022 0.00810199 0 0.447264 -0.866518 0 -0.245022 0.00810199 0 42.2322 42.2322 1000.1 
74 1 1 0.067048 0.0281774 0 0 0 0 -0.0327622 -0.0417968 0 0.152643 0.307467 0 -0.0327622 -0.0417968 0 337.299 337.299 1000.8 
75 1 1 0.0851391 0.0337684 0 0 0 0 -0.0468098 -0.0593414 0 0.0908653 0.150086 0 -0.0468098 -0.0593414 0 221.524 221.524 1000.53 
76 1 1 0.120991 0.0248146 0 0 0 0 -0.0161924 -0.100039 0 -0.0915045 0.0460869 0 -0.0161924 -0.100039 0 303.994 303.994 1000.72 
77 1 1 0.125147 0.0348864 0 0 0 0 -0.0435404 -0.0185493 0 -0.22886 0.0243209 0 -0.0435404 -0.0185493 0 194.454 194.454 1000.46 
78 1 1 0.154295 0.0360149 0 0 0 0 0.00654687 0.010553 0 -0.058931 0.0776241 0 0.00654687 0.010553 0 209.324 209.324 1000.5 
79 1 1 0.171223 0.0440389 0 0 0 0 0.0136904 -0.0491158 0 -0.0369086 -0.087048 0 0.0136904 -0.0491158 0 163.045 163.045 1000.39 
80 1 1 0.139575 0.0522602 0 0 0 0 -0.0729022 -0.0228964 0 -0.137952 0.0263706 0 -0.0729022 -0.0228964 0 61.2196 61.2196 1000.15 
81 1 1 0.0101782 0.0920218 0 0 0 0 -0.0133261 -0.224566 0 -0.120129 -0.545894 0 -0.0133261 -0.224566 0 50.8866 50.8866 1000.12 
82 1 1 0.0326776 0.0375064 0 0 0 0 -0.226852 0.0904367 0 -0.245197 -0.363402 0 -0.226852 0.0904367 0 -62.8979 -62.8979 999.85 
83 1 1 0.0471391 0.0370413 0 0 0 0 -0.205462 0.0755751 0 0.198831 0.450795 0 -0.205462 0.0755751 0 339.434 339.434 1000.81 
84 1 1 0.0602632 0.0379455 0 0 0 0 -0.123776 -0.114468 0 0.200577 0.0199476 0 -0.123776 -0.114468 0 162.072 162.072 1000.39 
85 1 1 0.095144 0.0382961 0 0 0 0 -0.0516493 -0.0571259 0 -0.143326 0.145949 0 -0.0516493 -0.0571259 0 163.282 163.282 1000.39 
86 1 1 0.105915 0.0401631 0 0 0 0 0.0195833 0.00643522 0 -0.0560077 0.0921417 0 0.0195833 0.00643522 0 159.388 159.388 1000.38 
87 1 1 0.124943 0.0460651 0 0 0 0 -0.0705795 -0.0567454 0 -0.0804719 -0.124922 0 -0.0705795 -0.0567454 0 115.049 115.049 1000.27 
88 1 1 0.136445 0.0410422 0 0 0 0 -0.0436427 -0.0209072 0 -0.0337448 0.0754836 0 -0.0436427 -0.0209072 0 191.229 191.229 1000.45 
89 1 1 0.146516 0.0450853 0 0 0 0 -0.0724327 -0.0362743 0 -0.0737184 -0.0907675 0 -0.0724327 -0.0362743 0 158.977 158.977 1000.38 
90 1 1 0.152921 0.0494397 0 0 0 0 -0.0663727 -0.0309363 0 0.00566869 -0.0113319 0 -0.0663727 -0.0309363 0 116.81 116.81 1000.28 
91 1 1 0.0143838 0.0621578 0 0 0 0 0.0244508 -0.328087 0 0.783979 -0.47484 0 0.0244508 -0.328087 0 296.152 296.152 1000.7 
92 1 1 0.00647471 0.0655492 0 0 0 0 -0.029681 -0.104271 0 -0.478492 -0.424154 0 -0.029681 -0.104271 0 -49.7033 -49.7033 999.882 
93 1 1 0.0370186 0.0513105 0 0 0 0 -0.227082 0.0573466 0 0.336852 -0.463465 0 -0.227082 0.0573466 0 13.6427 13.6427 1000.03 
94 1 1 0.049 0.0484466 0 0 0 0 -0.217854 -0.0350744 0 -0.0347922 0.490073 0 -0.217854 -0.0350744 0 213.616 213.616 1000.51 
95 1 1 0.0601763 0.0452848 0 0 0 0 -0.221194 -0.10752 0 0.271106 0.0856521 0 -0.221194 -0.10752 0 103.363 103.363 1000.25 
96 1 1 0.0725701 0.0484269 0 0 0 0 -0.132304 -0.14735 0 -0.0592445 0.215197 0 -0.132304 -0.14735 0 147.377 147.377 1000.35 
97 1 1 0.0832307 0.0441494 0 0 0 0 -0.0217379 -0.086299 0 0.19667 0.145143 0 -0.0217379 -0.086299 0 103.852 103.852 1000.25 
98 1 1 0.114139 0.0445858 0 0 0 0 -0.125514 0.0443168 0 -0.149647 0.20616 0 -0.125514 0.0443168 0 156.476 156.476 1000.37 
99 1 1 0.125143 0.0514842 0 0 0 0 -0.102111 -0.0409318 0 -0.0326419 0.0276321 0 -0.102111 -0.0409318 0 72.5734 72.5734 1000.17 
100 1 1 0.0974647 0.0504009 0 0 0 0 -0.0988683 -0.0419869 0 -0.086983 0.132297 0 -0.0988683 -0.0419869 0 163.401 163.401 1000.39 
101 1 1 0.210476 0.019055 0 0 0 0 0.0581632 -0.0494456 0 0.0255127 0.0492101 0 0.0581632 -0.0494456 0 428.358 428.358 1001.02 
102 1 1 0.218411 0.00965594 0 0 0 0 0.0949829 -0.0168242 0 0.012217 -0.000898381 0 0.0949829 -0.0168242 0 535.193 535.193 1001.27 
103 1 1 0.221773 0.0176591 0 0 0 0 0.0551396 0.00589881 0 -0.0679911 -0.0243057 0 0.0551396 0.00589881 0 456.07 456.07 1001.08 
104 1 1 0.229659 0.00762261 0 0 0 0 0.0912728 0.00446747 0 -0.0934425 -0.0211865 0 0.0912728 0.00446747 0 549.344 549.344 1001.3 
105 1 1 0.232669 0.0164336 0 0 0 0 0.0562866 0.0121809 0 -0.0324274 0.0924907 0 0.0562866 0.0121809 0 483.589 483.589 1001.15 
106 1 1 0.241435 0.00849889 0 0 0 0 0.0687588 0.0151983 0 -0.0586072 -0.0527497 0 0.0687588 0.0151983 0 555.158 555.158 1001.32 
107 1 1 0.248055 0.0149726 0 0 0 0 0.0336401 0.011627 0 -0.0123098 0.112439 0 0.0336401 0.011627 0 486.725 486.725 1001.15 
108 1 1 0.253936 0.00823399 0 0 0 0 0.0483984 0.00592509 0 -0.0407839 -0.030221 0 0.0483984 0.00592509 0 538.791 538.791 1001.28 
109 1 1 0.260738 0.0173431 0 0 0 0 0.0422598 -0.00901373 0 -0.0704359 -0.00986517 0 0.0422598 -0.00901373 0 466.17 466.17 1001.11 
110 1 1 0.265455 0.00884494 0 0 0 0 0.0534099 -0.0280233 0 -0.0174291 -0.0408026 0 0.0534099 -0.0280233 0 554.939 554.939 1001.32 
111 1 1 0.275734 0.00885343 0 0 0 0 0.0693347 0.0189534 0 -0.0461525 0.00697183 0 0.0693347 0.0189534 0 523.275 523.275 1001.24 
112 1 1 0.286343 0.00850109 0 0 0 0 0.0599657 -0.0141438 0 -0.00686872 0.0292259 0 0.0599657 -0.0141438 0 574.741 574.741 1001.36 
113 1 1 0.298037 0.00848329 0 0 0 0 0.0856488 -0.00198057 0 -0.115242 -0.0435712 0 0.0856488 -0.00198057 0 555.858 555.858 1001.32 
114 1 1 0.307984 0.0097103 0 0 0 0 0.0771762 -0.00152089 0 0.0285634 -0.0490967 0 0.0771762 -0.00152089 0 563.472 563.472 1001.34 
115 1 1 0.318786 0.0176171 0 0 0 0 0.0720363 -0.0345468 0 -0.19071 0.115903 0 0.0720363 -0.0345468 0 515.868 515.868 1001.22 
116 1 1 0.318889 0.0072727 0 0 0 0 0.0859104 -0.0108908 0 -0.0503665 0.0734967 0 0.0859104 -0.0108908 0 612.039 612.039 1001.45 
117 1 1 0.326713 0.0140749 0 0 0 0 0.108214 0.016845 0 0.0141746 -0.0858421 0 0.108214 0.016845 0 546.205 546.205 1001.3 
118 1 1 0.334934 0.00750024 0 0 0 0 0.0816577 -0.0207396 0 -0.168191 0.0876132 0 0.0816577 -0.0207396 0 621.378 621.378 1001.47 
119 1 1 0.347138 0.00862204 0 0 0 0 0.105805 0.00305309 0 0.0686276 -0.261472 0 0.105805 0.00305309 0 606.765 606.765 1001.44 
120 1 1 0.357017 0.0140847 0 0 0 0 0.102541 0.0199575 0 -0.24483 0.0527601 0 0.102541 0.0199575 0 624.493 624.493 1001.48 
121 1 1 0.36273 0.00647452 0 0 0 0 0.0779401 0.00471283 0 -0.106297 0.292543 0 0.0779401 0.00471283 0 723.309 723.309 1001.71 
122 1 1 0.37682 0.0092466 0 0 0 0 0.107975 -0.0117532 0 -0.471176 -0.283127 0 0.107975 -0.0117532 0 636.945 636.945 1001.51 
123 1 1 0.376983 0.0210415 0 0 0 0 0.116455 0.0952335 0 -0.000474946 -0.0205859 0 0.116455 0.0952335 0 542.066 542.066 1001.29 
124 1 1 0.383778 0.0113031 0 0 0 0 0.137584 0.0118952 0 -0.0170205 -0.0808221 0 0.137584 0.0118952 0 644.191 644.191 1001.53 
125 1 1 0.393223 0.00900489 0 0 0 0 0.131895 0.0263004 0 -0.142487 0.133651 0 0.131895 0.0263004 0 708.355 708.355 1001.68 
126 1 1 0.399697 0.0198065 0 0 0 0 0.184843 0.12719 0 -0.0674607 -0.436221 0 0.184843 0.12719 0 560.969 560.969 1001.33 
127 1 1 0.402504 0.00829439 0 0 0 0 0.0540854 0.0165775 0 0.0213997 0.192688 0 0.0540854 0.0165775 0 715.715 715.715 1001.7 
128 1 1 0.412116 0.0114997 0 0 0 0 0.0691791 -0.0448293 0 -0.0126928 -0.40612 0 0.0691791 -0.0448293 0 667.773 667.773 1001.58 
129 1 1 0.421456 0.00709235 0 0 0 0 0.113475 -0.00951062 0 -0.106002 0.312356 0 0.113475 -0.00951062 0 708.238 708.238 1001.68 
130 1 1 0.429706 0.0145366 0 0 0 0 0.117957 -0.00742184 0 -0.110388 -0.307394 0 0.117957 -0.00742184 0 631.309 631.309 1001.5 
131 1 1 0.435506 0.00790582 0 0 0 0 0.0777626 0.0115574 0 -0.029955 0.292605 0 0.0777626 0.0115574 0 734.472 734.472 1001.74 
132 1 1 0.439085 0.0195839 0 0 0 0 0.0648653 0.0940252 0 -0.111734 -0.294608 0 0.0648653 0.0940252 0 642.664 642.664 1001.52 
133 1 1 0.445815 0.00899322 0 0 0 0 0.0337886 0.031261 0 -0.10533 0.148105 0 0.0337886 0.031261 0 689.694 689.694 1001.63 
134 1 1 0.450132 0.01694 0 0 0 0 0.0242378 0.0818073 0 0.117102 -0.202401 0 0.0242378 0.0818073 0 702.07 702.07 1001.66 
135 1 1 0.457093 0.00804906 0 0 0 0 -0.00107436 -0.0222824 0 -0.0962673 -0.0525913 0 -0.00107436 -0.0222824 0 730.162 730.162 1001.73 
136 1 1 0.463994 0.0133377 0 0 0 0 -0.00985007 0.0196466 0 0.0300517 -0.0362425 0 -0.00985007 0.0196466 0 707.101 707.101 1001.68 
137 1 1 0.472111 0.00740887 0 0 0 0 -0.0151773 -0.00308632 0 -0.0866195 0.124105 0 -0.0151773 -0.00308632 0 738.397 738.397 1001.75 
138 1 1 0.481169 0.0107279 0 0 0 0 -0.00987838 -0.00784853 0 -0.0180186 -0.168598 0 -0.00987838 -0.00784853 0 710.576 710.576 1001.68 
139 1 1 0.49102 0.00734929 0 0 0 0 0.000484009 -0.0113701 0 -0.0060709 0.0639132 0 0.000484009 -0.0113701 0 701.549 701.549 1001.66 
140 1 1 0.213985 0.0367585 0 0 0 0 0.0587928 0.0099761 0 -0.00409669 0.0423762 0 0.0587928 0.0099761 0 241.722 241.722 1000.57 
141 1 1 0.21881 0.0281376 0 0 0 0 0.0351704 0.0327297 0 -0.142581 -0.0443683 0 0.0351704 0.0327297 0 366.944 366.944 1000.87 
142 1 1 0.246985 0.0291326 0 0 0 0 0.129412 0.0338929 0 -0.00323273 0.0843002 0 0.129412 0.0338929 0 352.508 352.508 1000.84 
143 1 1 0.226974 0.0270492 0 0 0 0 0.03553 -0.0221436 0 0.0746104 0.0110889 0 0.03553 -0.0221436 0 356.664 356.664 1000.85 
144 1 1 0.254357 0.0375687 0 0 0 0 0.146839 0.0486327 0 -0.0651411 -0.138977 0 0.146839 0.0486327 0 254.615 254.615 1000.61 
145 1 1 0.239135 0.0213928 0 0 0 0 0.0668325 0.0257379 0 0.0330206 -0.14023 0 0.0668325 0.0257379 0 437.064 437.064 1001.04 
146 1 1 0.2689 0.0339616 0 0 0 0 0.15685 -0.0386109 0 -0.152485 -0.0042083 0 0.15685 -0.0386109 0 308.909 308.909 1000.73 
147 1 1 0.253349 0.0241836 0 0 0 0 0.0923945 0.0119684 0 -0.0673246 -0.0669417 0 0.0923945 0.0119684 0 409.671 409.671 1000.97 
148 1 1 0.261584 0.0287625 0 0 0 0 0.0540797 0.0417793 0 0.107201 -0.00527961 0 0.0540797 0.0417793 0 358.536 358.536 1000.85 
149 1 1 0.270054 0.0189762 0 0 0 0 0.0171123 -0.024762 0 -0.045787 0.0381444 0 0.0171123 -0.024762 0 450.976 450.976 1001.07 
150 1 1 0.298208 0.0241813 0 0 0 0 0.0700652 -0.0119957 0 -0.0894402 0.00854535 0 0.0700652 -0.0119957 0 441.572 441.572 1001.05 
151 1 1 0.280653 0.0181931 0 0 0 0 0.0564548 0.0177231 0 -0.0716511 -0.0369792 0 0.0564548 0.0177231 0 458.134 458.134 1001.09 
152 1 1 0.291298 0.016752 0 0 0 0 0.0308978 -0.0385404 0 -0.00080949 0.0467733 0 0.0308978 -0.0385404 0 491.571 491.571 1001.17 
153 1 1 0.30447 0.0177269 0 0 0 0 0.045466 0.0159344 0 -0.0983268 -0.0221587 0 0.045466 0.0159344 0 503.151 503.151 1001.19 
154 1 1 0.328954 0.0239653 0 0 0 0 0.122308 -0.02375 0 -0.108439 0.062671 0 0.122308 -0.02375 0 487.33 487.33 1001.16 
155 1 1 0.336989 0.017292 0 0 0 0 0.108558 -0.0122491 0 -0.104208 0.0219857 0 0.108558 -0.0122491 0 532.783 532.783 1001.26 
156 1 1 0.340851 0.0269007 0 0 0 0 0.136695 -0.0274037 0 -0.134757 -0.00280489 0 0.136695 -0.0274037 0 441.171 441.171 1001.05 
157 1 1 0.346483 0.0168887 0 0 0 0 0.119088 -0.00112995 0 -0.125863 -0.00558502 0 0.119088 -0.00112995 0 548.269 548.269 1001.3 
158 1 1 0.350363 0.0283406 0 0 0 0 0.152208 0.000215021 0 -0.0764238 -0.0176476 0 0.152208 0.000215021 0 450.184 450.184 1001.07 
159 1 1 0.357272 0.022674 0 0 0 0 0.158601 -0.0167255 0 -0.0768368 0.11178 0 0.158601 -0.0167255 0 532.114 532.114 1001.26 
160 1 1 0.36815 0.0150066 0 0 0 0 0.168415 -0.0793595 0 -0.090597 0.0972711 0 0.168415 -0.0793595 0 593.202 593.202 1001.41 
161 1 1 0.368833 0.0250136 0 0 0 0 0.121625 -0.0357802 0 -0.0590746 -0.0937255 0 0.121625 -0.0357802 0 508.127 508.127 1001.21 
162 1 1 0.382015 0.029268 0 0 0 0 0.128687 0.021327 0 -0.1472 -0.208706 0 0.128687 0.021327 0 514.801 514.801 1001.22 
163 1 1 0.388556 0.0191985 0 0 0 0 0.0832788 -0.0830259 0 -0.0907916 0.265804 0 0.0832788 -0.0830259 0 564.031 564.031 1001.34 
164 1 1 0.397139 0.0254854 0 0 0 0 0.145131 0.0230253 0 -0.229844 0.0350575 0 0.145131 0.0230253 0 526.789 526.789 1001.25 
165 1 1 0.408252 0.0287323 0 0 0 0 0.251933 -0.00860715 0 -0.0931879 -0.0209721 0 0.251933 -0.00860715 0 490.574 490.574 1001.16 
166 1 1 0.410905 0.0183401 0 0 0 0 0.106114 -0.0202258 0 -0.267078 0.233518 0 0.106114 -0.0202258 0 665.094 665.094 1001.58 
167 1 1 0.41829 0.0307231 0 0 0 0 0.205256 0.041129 0 -0.157895 -0.100178 0 0.205256 0.041129 0 547.604 547.604 1001.3 
168 1 1 0.420603 0.0198247 0 0 0 0 0.0783821 0.0116646 0 -0.179664 -0.0861108 0 0.0783821 0.0116646 0 639.78 639.78 1001.52 
169 1 1 0.425801 0.0351809 0 0 0 0 0.0973085 0.0973319 0 -0.0236499 -0.21202 0 0.0973085 0.0973319 0 503.965 503.965 1001.2 
170 1 1 0.428649 0.023554 0 0 0 0 0.034506 0.0347965 0 -0.0155536 0.281865 0 0.034506 0.0347965 0 631.852 631.852 1001.5 
171 1 1 0.437599 0.0296696 0 0 0 0 -0.016843 0.0467709 0 -0.0278372 0.0857342 0 -0.016843 0.0467709 0 478.246 478.246 1001.13 
172 1 1 0.446942 0.0250793 0 0 0 0 0.0644522 -0.00250671 0 -0.096507 0.328238 0 0.0644522 -0.00250671 0 571.59 571.59 1001.36 
173 1 1 0.45436 0.0292176 0 0 0 0 0.0792931 0.0816787 0 -0.0840248 -0.110874 0 0.0792931 0.0816787 0 544.238 544.238 1001.29 
174 1 1 0.461154 0.0209084 0 0 0 0 0.013104 -0.00499361 0 -0.117022 0.118221 0 0.013104 -0.00499361 0 653.39 653.39 1001.55 
175 1 1 0.470584 0.0286846 0 0 0 0 0.092791 0.0526103 0 -0.000892102 -0.103623 0 0.092791 0.0526103 0 578.706 578.706 1001.37 
176 1 1 0.472629 0.0200962 0 0 0 0 -0.0331211 0.0253212 0 0.0449987 -0.0610117 0 -0.0331211 0.0253212 0 680.315 680.315 1001.61 
177 1 1 0.482125 0.0190625 0 0 0 0 -0.0230827 -0.0382946 0 -0.0344925 0.127063 0 -0.0230827 -0.0382946 0 701.593 701.593 1001.66 
178 1 1 0.491157 0.0189456 0 0 0 0 -0.00145269 0.0148607 0 0.00491184 -0.0530311 0 -0.00145269 0.0148607 0 678.214 678.214 1001.61 
179 1 1 0.204971 0.0377827 0 0 0 0 0.03307 -0.0660598 0 -0.0877501 -0.0170497 0 0.03307 -0.0660598 0 233.981 233.981 1000.56 
180 1 1 0.225331 0.0382632 0 0 0 0 0.0735922 -0.0587595 0 -0.0368493 -0.061741 0 0.0735922 -0.0587595 0 232.253 232.253 1000.55 
181 1 1 0.236981 0.0389092 0 0 0 0 0.0973048 -0.0329174 0 -0.0142144 0.0873062 0 0.0973048 -0.0329174 0 246.901 246.901 1000.59 
182 1 1 0.236632 0.0309915 0 0 0 0 0.114291 -0.0282735 0 -0.141524 -0.00435262 0 0.114291 -0.0282735 0 328.018 328.018 1000.78 
183 1 1 0.251646 0.049182 0 0 0 0 0.0484774 -0.0254871 0 -0.0575061 -0.0525866 0 0.0484774 -0.0254871 0 131.366 131.366 1000.31 
184 1 1 0.245225 0.0420888 0 0 0 0 0.0353267 0.000269624 0 -0.0640556 0.0128198 0 0.0353267 0.000269624 0 194.348 194.348 1000.46 
185 1 1 0.260257 0.0428806 0 0 0 0 0.126856 0.00436403 0 0.0570289 -0.0191447 0 0.126856 0.00436403 0 201.132 201.132 1000.48 
186 1 1 0.275269 0.0270505 0 0 0 0 0.0723324 -0.0468819 0 -0.0450982 0.0588362 0 0.0723324 -0.0468819 0 405.257 405.257 1000.96 
187 1 1 0.286857 0.0266264 0 0 0 0 0.126181 0.0125716 0 -0.0238579 0.0048822 0 0.126181 0.0125716 0 392.7 392.7 1000.93 
188 1 1 0.297673 0.0330496 0 0 0 0 0.127809 -0.00691329 0 -0.0717467 0.0324928 0 0.127809 -0.00691329 0 358.904 358.904 1000.85 
189 1 1 0.315329 0.0426038 0 0 0 0 0.084342 0.0040209 0 -0.150684 -0.0695071 0 0.084342 0.0040209 0 274.004 274.004 1000.65 
190 1 1 0.31261 0.0230216 0 0 0 0 0.0837029 -0.0473775 0 -0.133059 -0.0420094 0 0.0837029 -0.0473775 0 462.985 462.985 1001.1 
191 1 1 0.32735 0.0446902 0 0 0 0 0.110676 -0.0940683 0 -0.216988 0.000507027 0 0.110676 -0.0940683 0 269.874 269.874 1000.64 
192 1 1 0.318628 0.031707 0 0 0 0 0.120978 -0.0159488 0 -0.176613 -0.0757769 0 0.120978 -0.0159488 0 380.546 380.546 1000.9 
193 1 1 0.335211 0.0340649 0 0 0 0 0.154995 -0.000780208 0 -0.111878 -0.000537294 0 0.154995 -0.000780208 0 381.558 381.558 1000.91 
194 1 1 0.339077 0.0444042 0 0 0 0 0.169388 -0.0227339 0 -0.126276 0.0982536 0 0.169388 -0.0227339 0 286.733 286.733 1000.68 
195 1 1 0.345801 0.0379421 0 0 0 0 0.120741 -0.0221988 0 -0.115571 -0.0128371 0 0.120741 -0.0221988 0 355.902 355.902 1000.85 
196 1 1 0.35918 0.0361899 0 0 0 0 0.11794 -0.0149763 0 -0.176701 0.0256325 0 0.11794 -0.0149763 0 425.508 425.508 1001.01 
197 1 1 0.370322 0.0432372 0 0 0 0 0.207378 -0.00480363 0 -0.249419 -0.088276 0 0.207378 -0.00480363 0 364.578 364.578 1000.87 
198 1 1 0.366021 0.0321157 0 0 0 0 0.147097 0.00950078 0 -0.022759 0.0778183 0 0.147097 0.00950078 0 453.083 453.083 1001.08 
199 1 1 0.376872 0.0493124 0 0 0 0 0.221648 0.049568 0 -0.0406903 -0.00791332 0 0.221648 0.049568 0 266.527 266.527 1000.63 
200 1 1 0.377234 0.0373707 0 0 0 0 0.105866 0.0234645 0 -0.0247636 0.050933 0 0.105866 0.0234645 0 416.664 416.664 1000.99 
201 1 1 0.388142 0.0331773 0 0 0 0 0.177339 -0.098933 0 -0.122419 0.0589155 0 0.177339 -0.098933 0 469.263 469.263 1001.11 
202 1 1 0.394681 0.043766 0 0 0 0 0.151265 0.0471128 0 -0.217978 0.148067 0 0.151265 0.0471128 0 390.874 390.874 1000.93 
203 1 1 0.398149 0.0363038 0 0 0 0 0.121256 0.0176259 0 0.143379 -0.0115375 0 0.121256 0.0176259 0 493.53 493.53 1001.17 
204 1 1 0.405194 0.0470547 0 0 0 0 0.117697 0.023797 0 -0.0662639 -0.150829 0 0.117697 0.023797 0 373.381 373.381 1000.89 
205 1 1 0.409328 0.036238 0 0 0 0 0.0523756 0.0458518 0 -0.111792 0.168187 0 0.0523756 0.0458518 0 416.938 416.938 1000.99 
206 1 1 0.417488 0.0442937 0 0 0 0 0.0448067 0.0517932 0 -0.0152781 -0.235255 0 0.0448067 0.0517932 0 408.131 408.131 1000.97 
207 1 1 0.429001 0.0417083 0 0 0 0 0.174722 0.0961258 0 -0.232874 0.36689 0 0.174722 0.0961258 0 405.638 405.638 1000.96 
208 1 1 0.436365 0.0497949 0 0 0 0 0.157558 0.134569 0 -0.263593 -0.0410382 0 0.157558 0.134569 0 341.257 341.257 1000.81 
209 1 1 0.438218 0.0381968 0 0 0 0 0.12334 0.12111 0 0.0568613 -0.290835 0 0.12334 0.12111 0 499.966 499.966 1001.19 
210 1 1 0.444753 0.0490798 0 0 0 0 0.156816 0.0355542 0 0.0529896 0.0801028 0 0.156816 0.0355542 0 368.234 368.234 1000.87 
211 1 1 0.448121 0.0390645 0 0 0 0 0.0370158 0.0480867 0 -0.104447 -0.270647 0 0.0370158 0.0480867 0 545.586 545.586 1001.29 
212 1 1 0.456423 0.0409447 0 0 0 0 0.0768391 0.00693472 0 0.0672693 0.221291 0 0.0768391 0.00693472 0 486.855 486.855 1001.16 
213 1 1 0.462764 0.0333218 0 0 0 0 0.0717374 0.0240073 0 0.0561561 -0.0211427 0 0.0717374 0.0240073 0 550.899 550.899 1001.31 
214 1 1 0.469979 0.041519 0 0 0 0 0.0462317 0.0446921 0 -0.0352353 -0.0964636 0 0.0462317 0.0446921 0 493.522 493.522 1001.17 
215 1 1 0.477963 0.0380581 0 0 0 0 0.086211 0.093489 0 -0.0717775 0.107318 0 0.086211 0.093489 0 486.909 486.909 1001.16 
216 1 1 0.481937 0.0304952 0 0 0 0 0.00681495 -0.0512794 0 0.00382953 -0.168469 0 0.00681495 -0.0512794 0 591.547 591.547 1001.4 
217 1 1 0.490367 0.0306883 0 0 0 0 0.00993149 -0.0288736 0 -0.0843605 0.0301457 0 0.00993149 -0.0288736 0 637.89 637.89 1001.51 
218 1 1 0.22141 0.0458422 0 0 0 0 0.0645004 0.00776366 0 -0.17127 -0.0564715 0 0.0645004 0.00776366 0 144.96 144.96 1000.34 
219 1 1 0.189825 0.0518261 0 0 0 0 -0.0244671 -0.0615157 0 0.0105037 0.00393536 0 -0.0244671 -0.0615157 0 70.1112 70.1112 1000.17 
220 1 1 0.208539 0.0465974 0 0 0 0 0.0202066 -0.0398285 0 0.0395898 0.137536 0 0.0202066 -0.0398285 0 156.359 156.359 1000.37 
221 1 1 0.236364 0.0551279 0 0 0 0 0.00997372 -0.015519 0 0.0590579 -0.0433467 0 0.00997372 -0.015519 0 96.5437 96.5437 1000.23 
222 1 1 0.232083 0.0478368 0 0 0 0 -0.00591776 -0.061151 0 0.0484527 -0.101756 0 -0.00591776 -0.061151 0 152.309 152.309 1000.36 
223 1 1 0.275145 0.0404208 0 0 0 0 0.0764946 0.0118327 0 0.0268466 0.0274483 0 0.0764946 0.0118327 0 266.892 266.892 1000.63 
224 1 1 0.284712 0.0351524 0 0 0 0 0.0716601 -0.0292465 0 -0.138855 0.0422172 0 0.0716601 -0.0292465 0 329.449 329.449 1000.78 
225 1 1 0.290657 0.0415707 0 0 0 0 0.080359 -0.0256773 0 -0.150884 0.0921332 0 0.080359 -0.0256773 0 257.643 257.643 1000.61 
226 1 1 0.29389 0.0495541 0 0 0 0 0.103089 -0.000209606 0 -0.0697781 0.0796457 0 0.103089 -0.000209606 0 195.321 195.321 1000.46 
227 1 1 0.308354 0.0320834 0 0 0 0 0.154773 -0.0295808 0 -0.194107 0.16477 0 0.154773 -0.0295808 0 367.659 367.659 1000.87 
228 1 1 0.303549 0.0414071 0 0 0 0 0.0713667 -0.056027 0 0.0207641 0.0154696 0 0.0713667 -0.056027 0 249.438 249.438 1000.59 
229 1 1 0.315033 0.050104 0 0 0 0 0.126718 -0.072268 0 -0.0282162 0.0793613 0 0.126718 -0.072268 0 194.265 194.265 1000.46 
230 1 1 0.325598 0.0340883 0 0 0 0 0.118786 -0.0757209 0 -0.0501823 0.050949 0 0.118786 -0.0757209 0 382.435 382.435 1000.91 
231 1 1 0.330089 0.0517608 0 0 0 0 0.109067 -0.0661624 0 -0.162506 -0.00799197 0 0.109067 -0.0661624 0 192.786 192.786 1000.46 
232 1 1 0.345226 0.0525014 0 0 0 0 0.174526 -0.0497362 0 -0.245461 -0.0711188 0 0.174526 -0.0497362 0 222.627 222.627 1000.53 
233 1 1 0.353727 0.0429513 0 0 0 0 0.207838 0.000573349 0 -0.0965661 0.0475516 0 0.207838 0.000573349 0 328.972 328.972 1000.78 
234 1 1 0.35486 0.0539975 0 0 0 0 0.195627 -0.0210365 0 -0.0558641 0.0944884 0 0.195627 -0.0210365 0 208.857 208.857 1000.5 