ITEM: TIMESTEP
5000
ITEM: NUMBER OF ATOMS
754
ITEM: BOX BOUNDS ff ff pp
-0.021 0.521
-0.021 0.5
-0.001 0.001
ITEM: ATOMS id type type x y z ix iy iz vx vy vz fx fy fz vx vy vz p p rho 
1 1 1 0.00957632 0.00921578 0 0 0 0 0.011875 0.009266 0 -0.0741079 -0.0612038 0 0.011875 0.009266 0 1035.4 1035.4 1002.45 
2 1 1 0.0201925 0.00964778 0 0 0 0 0.00161749 -0.00181458 0 -0.154298 -0.122421 0 0.00161749 -0.00181458 0 1091.13 1091.13 1002.58 
3 1 1 0.0304773 0.00950612 0 0 0 0 0.0078504 0.00136563 0 -0.110859 -0.0530564 0 0.0078504 0.00136563 0 1087.13 1087.13 1002.57 
4 1 1 0.040857 0.00958331 0 0 0 0 0.0104398 0.000596069 0 -0.224318 -0.0708469 0 0.0104398 0.000596069 0 1117.53 1117.53 1002.64 
5 1 1 0.0512163 0.00955258 0 0 0 0 0.0152168 -0.00113403 0 -0.191083 -0.0532243 0 0.0152168 -0.00113403 0 1143.15 1143.15 1002.7 
6 1 1 0.0615693 0.00955932 0 0 0 0 0.018217 0.0030358 0 -0.271623 0.0144471 0 0.018217 0.0030358 0 1163.42 1163.42 1002.75 
7 1 1 0.0720968 0.00945085 0 0 0 0 0.0298583 -0.010617 0 -0.280245 -0.0792354 0 0.0298583 -0.010617 0 1232.64 1232.64 1002.91 
8 1 1 0.0822736 0.00965861 0 0 0 0 0.0161238 0.0223628 0 -0.491028 0.204665 0 0.0161238 0.0223628 0 1169.35 1169.35 1002.76 
9 1 1 0.0938203 0.00894961 0 0 0 0 0.107373 -0.0503672 0 -0.861006 0.112438 0 0.107373 -0.0503672 0 1680.85 1680.85 1003.95 
10 1 1 0.102189 0.00957272 0 0 0 0 -0.0328848 -0.00594998 0 0.0238628 0.226495 0 -0.0328848 -0.00594998 0 1041.15 1041.15 1002.46 
11 1 1 0.0100816 0.0192516 0 0 0 0 0.00330924 -0.00558019 0 -0.141274 -0.0534252 0 0.00330924 -0.00558019 0 976.065 976.065 1002.31 
12 1 1 0.0201727 0.0191533 0 0 0 0 0.00462922 -0.00439039 0 -0.0950645 0.00708326 0 0.00462922 -0.00439039 0 1000.64 1000.64 1002.37 
13 1 1 0.0305963 0.0193072 0 0 0 0 0.0108574 -0.00685513 0 -0.0883499 0.0096898 0 0.0108574 -0.00685513 0 991.817 991.817 1002.34 
14 1 1 0.0408669 0.0192139 0 0 0 0 0.0131938 -0.00853846 0 -0.210199 0.0280026 0 0.0131938 -0.00853846 0 1025.97 1025.97 1002.43 
15 1 1 0.0512212 0.019203 0 0 0 0 0.0167075 -0.00818037 0 -0.160499 0.058917 0 0.0167075 -0.00818037 0 1046.87 1046.87 1002.47 
16 1 1 0.0615708 0.0191683 0 0 0 0 0.0211423 -0.00853386 0 -0.233391 0.0497336 0 0.0211423 -0.00853386 0 1070.39 1070.39 1002.53 
17 1 1 0.0721127 0.0190518 0 0 0 0 0.0296237 -0.0120123 0 -0.347142 0.130938 0 0.0296237 -0.0120123 0 1135.34 1135.34 1002.68 
18 1 1 0.0822372 0.0190194 0 0 0 0 0.0295471 -0.00883121 0 -0.0908568 0.17586 0 0.0295471 -0.00883121 0 1103.67 1103.67 1002.61 
19 1 1 0.0936631 0.0186286 0 0 0 0 0.0645974 -0.041519 0 -0.907061 0.585098 0 0.0645974 -0.041519 0 1440.36 1440.36 1003.39 
20 1 1 0.102117 0.0195298 0 0 0 0 -0.0278348 -0.00293691 0 0.347088 0.421967 0 -0.0278348 -0.00293691 0 764.225 764.225 1001.81 
21 1 1 0.00992297 0.0289548 0 0 0 0 0.00498159 -0.00541537 0 -0.086982 0.00450902 0 0.00498159 -0.00541537 0 843.661 843.661 1002 
22 1 1 0.02035 0.0290003 0 0 0 0 0.00470991 -0.00544486 0 -0.07854 0.0269371 0 0.00470991 -0.00544486 0 864.79 864.79 1002.05 
23 1 1 0.030479 0.028867 0 0 0 0 0.00803791 -0.0099257 0 -0.0940767 0.0329474 0 0.00803791 -0.0099257 0 857.263 857.263 1002.03 
24 1 1 0.0409012 0.0289455 0 0 0 0 0.0166258 -0.00488862 0 -0.175214 0.0155183 0 0.0166258 -0.00488862 0 902.573 902.573 1002.14 
25 1 1 0.0511695 0.0288311 0 0 0 0 0.0143818 -0.0115205 0 -0.164731 0.0593262 0 0.0143818 -0.0115205 0 902.319 902.319 1002.13 
26 1 1 0.0615503 0.028801 0 0 0 0 0.0283188 -0.00792358 0 -0.152376 0.0449269 0 0.0283188 -0.00792358 0 955.252 955.252 1002.26 
27 1 1 0.0720102 0.0285951 0 0 0 0 0.0230596 -0.0159589 0 -0.302203 0.188775 0 0.0230596 -0.0159589 0 960.055 960.055 1002.27 
28 1 1 0.0821664 0.0286539 0 0 0 0 0.0324565 -0.0104185 0 -0.101192 0.0235279 0 0.0324565 -0.0104185 0 979.901 979.901 1002.32 
29 1 1 0.0935734 0.0282297 0 0 0 0 0.0527268 -0.0180937 0 -0.606912 0.331395 0 0.0527268 -0.0180937 0 1261.51 1261.51 1002.98 
30 1 1 0.102008 0.0290596 0 0 0 0 -0.0124063 -0.015208 0 0.833036 0.14943 0 -0.0124063 -0.015208 0 644.042 644.042 1001.53 
31 1 1 0.0100445 0.0387352 0 0 0 0 0.00504831 -0.0080233 0 -0.109869 -0.0248566 0 0.00504831 -0.0080233 0 743.124 743.124 1001.76 
32 1 1 0.0202501 0.038651 0 0 0 0 0.00259237 -0.00869119 0 -0.0416875 -0.0102982 0 0.00259237 -0.00869119 0 765.221 765.221 1001.81 
33 1 1 0.0305756 0.0386685 0 0 0 0 0.0121032 -0.0101567 0 -0.135977 -0.0260316 0 0.0121032 -0.0101567 0 759.471 759.471 1001.8 
34 1 1 0.040804 0.0385821 0 0 0 0 0.0125012 -0.0142568 0 -0.0948964 0.0157699 0 0.0125012 -0.0142568 0 806.835 806.835 1001.91 
35 1 1 0.0511318 0.038494 0 0 0 0 0.0137872 -0.0144212 0 -0.198012 0.0640712 0 0.0137872 -0.0144212 0 782.305 782.305 1001.85 
36 1 1 0.0614392 0.0383903 0 0 0 0 0.0319342 -0.0147841 0 -0.0409911 0.0567206 0 0.0319342 -0.0147841 0 864.91 864.91 1002.05 
37 1 1 0.071943 0.0382055 0 0 0 0 0.0135275 -0.020981 0 -0.359155 0.12361 0 0.0135275 -0.020981 0 807.996 807.996 1001.91 
38 1 1 0.0821333 0.0380707 0 0 0 0 0.0638314 -0.0120095 0 0.00488355 0.121462 0 0.0638314 -0.0120095 0 912.281 912.281 1002.16 
39 1 1 0.0936093 0.0376222 0 0 0 0 0.0334054 -0.0242019 0 -0.376101 0.454911 0 0.0334054 -0.0242019 0 1079.59 1079.59 1002.55 
40 1 1 0.101964 0.038716 0 0 0 0 0.0194234 -0.0386464 0 0.381614 -0.0916324 0 0.0194234 -0.0386464 0 489.095 489.095 1001.16 
41 1 1 0.0100308 0.0485025 0 0 0 0 0.00350311 -0.0112587 0 -0.101004 0.0107128 0 0.00350311 -0.0112587 0 631.482 631.482 1001.5 
42 1 1 0.0202729 0.0484314 0 0 0 0 0.00429863 -0.013476 0 -0.0226543 0.037706 0 0.00429863 -0.013476 0 650.127 650.127 1001.54 
43 1 1 0.0305016 0.0483637 0 0 0 0 0.00695283 -0.017207 0 -0.135143 0.0481214 0 0.00695283 -0.017207 0 641.155 641.155 1001.52 
44 1 1 0.040709 0.0482909 0 0 0 0 0.0141118 -0.0151107 0 -0.0263996 0.0840847 0 0.0141118 -0.0151107 0 680.603 680.603 1001.61 
45 1 1 0.0510407 0.0482024 0 0 0 0 0.0101341 -0.0183325 0 -0.227995 0.0789847 0 0.0101341 -0.0183325 0 658.328 658.328 1001.56 
46 1 1 0.0612419 0.0480055 0 0 0 0 0.0282008 -0.023785 0 -0.0102693 0.0942116 0 0.0282008 -0.023785 0 740.168 740.168 1001.75 
47 1 1 0.071773 0.0478789 0 0 0 0 0.0116294 -0.0208225 0 -0.303566 0.132844 0 0.0116294 -0.0208225 0 685.816 685.816 1001.62 
48 1 1 0.0818072 0.0473265 0 0 0 0 0.0566499 -0.050278 0 -0.000896813 0.114696 0 0.0566499 -0.050278 0 778.69 778.69 1001.84 
49 1 1 0.0935407 0.047638 0 0 0 0 0.0398621 0.00149075 0 -0.435206 -0.0558309 0 0.0398621 0.00149075 0 908.721 908.721 1002.15 
50 1 1 0.10201 0.0475099 0 0 0 0 0.0264578 -0.0497515 0 -0.269553 -0.47473 0 0.0264578 -0.0497515 0 503.901 503.901 1001.2 
51 1 1 0.0100267 0.0582986 0 0 0 0 0.00353841 -0.0125689 0 -0.0771793 0.0141581 0 0.00353841 -0.0125689 0 519.237 519.237 1001.23 
52 1 1 0.0202273 0.0582055 0 0 0 0 0.00234487 -0.0148432 0 -0.0172629 0.0273852 0 0.00234487 -0.0148432 0 530.555 530.555 1001.26 
53 1 1 0.0304497 0.0581598 0 0 0 0 0.00851824 -0.0157491 0 -0.111825 0.0222083 0 0.00851824 -0.0157491 0 525.281 525.281 1001.25 
54 1 1 0.0406135 0.0580589 0 0 0 0 0.0102927 -0.0183675 0 -0.0287295 0.0491551 0 0.0102927 -0.0183675 0 563.116 563.116 1001.34 
55 1 1 0.050903 0.0579469 0 0 0 0 0.00822772 -0.0200442 0 -0.186006 0.0648835 0 0.00822772 -0.0200442 0 544.267 544.267 1001.29 
56 1 1 0.0610408 0.0577106 0 0 0 0 0.0204457 -0.0259037 0 -0.0415769 0.126077 0 0.0204457 -0.0259037 0 606.468 606.468 1001.44 
57 1 1 0.0714441 0.0575715 0 0 0 0 0.00686148 -0.0236104 0 -0.174975 0.143753 0 0.00686148 -0.0236104 0 588.812 588.812 1001.4 
58 1 1 0.0814783 0.0569445 0 0 0 0 0.0196518 -0.0554047 0 -0.305261 0.181354 0 0.0196518 -0.0554047 0 610.338 610.338 1001.45 
59 1 1 0.0921283 0.0569348 0 0 0 0 0.0127191 -0.00289755 0 -0.674224 0.48875 0 0.0127191 -0.00289755 0 819.641 819.641 1001.94 
60 1 1 0.102151 0.0571566 0 0 0 0 -0.011316 -0.0471149 0 -1.24247 0.32634 0 -0.011316 -0.0471149 0 768.913 768.913 1001.82 
61 1 1 0.0100379 0.0681137 0 0 0 0 0.00392849 -0.0156352 0 -0.0604667 0.0152335 0 0.00392849 -0.0156352 0 407.287 407.287 1000.97 
62 1 1 0.0202129 0.0680116 0 0 0 0 0.00299348 -0.019079 0 -0.0200531 0.0316539 0 0.00299348 -0.019079 0 415.728 415.728 1000.99 
63 1 1 0.0303732 0.0679543 0 0 0 0 0.00746987 -0.019214 0 -0.0794151 0.0440857 0 0.00746987 -0.019214 0 418.859 418.859 1000.99 
64 1 1 0.0404967 0.0678343 0 0 0 0 0.00660604 -0.0222082 0 -0.0281928 0.076886 0 0.00660604 -0.0222082 0 435.248 435.248 1001.03 
65 1 1 0.0507333 0.0677159 0 0 0 0 0.00979541 -0.0210468 0 -0.105746 0.0844443 0 0.00979541 -0.0210468 0 432.936 432.936 1001.03 
66 1 1 0.0608281 0.0674816 0 0 0 0 0.00986793 -0.027079 0 -0.0526162 0.167669 0 0.00986793 -0.027079 0 460.269 460.269 1001.09 
67 1 1 0.0711195 0.0673163 0 0 0 0 0.00754817 -0.0283091 0 -0.0945438 0.134499 0 0.00754817 -0.0283091 0 467.475 467.475 1001.11 
68 1 1 0.0811785 0.066826 0 0 0 0 0.00529495 -0.0407841 0 -0.173375 0.271172 0 0.00529495 -0.0407841 0 463.623 463.623 1001.1 
69 1 1 0.0910764 0.0669154 0 0 0 0 0.00795247 -0.018949 0 0.00143205 0.844757 0 0.00795247 -0.018949 0 561.571 561.571 1001.33 
70 1 1 0.101835 0.0660575 0 0 0 0 0.0621879 -0.0742472 0 -0.172808 1.12572 0 0.0621879 -0.0742472 0 488.82 488.82 1001.16 
71 1 1 0.0100429 0.0779936 0 0 0 0 0.00210248 -0.016522 0 -0.0534206 0.0275607 0 0.00210248 -0.016522 0 296.409 296.409 1000.7 
72 1 1 0.0201245 0.0779366 0 0 0 0 0.00114926 -0.0191727 0 -0.00908633 0.0354012 0 0.00114926 -0.0191727 0 296.093 296.093 1000.7 
73 1 1 0.0302767 0.077847 0 0 0 0 0.007097 -0.0195084 0 -0.0410942 0.0594242 0 0.007097 -0.0195084 0 301.861 301.861 1000.72 
74 1 1 0.0403824 0.0777428 0 0 0 0 0.00421697 -0.0207689 0 -0.0434854 0.0782864 0 0.00421697 -0.0207689 0 309.008 309.008 1000.73 
75 1 1 0.0505452 0.0775999 0 0 0 0 0.00998861 -0.0209275 0 -0.0367764 0.0910233 0 0.00998861 -0.0209275 0 323.124 323.124 1000.77 
76 1 1 0.0606375 0.0773894 0 0 0 0 0.00240317 -0.0243223 0 -0.0490392 0.148897 0 0.00240317 -0.0243223 0 317.523 317.523 1000.75 
77 1 1 0.0708586 0.0771844 0 0 0 0 0.0118916 -0.0236413 0 -0.0577373 0.163242 0 0.0118916 -0.0236413 0 349.4 349.4 1000.83 
78 1 1 0.0808293 0.0768796 0 0 0 0 -0.00612077 -0.0278523 0 0.0905074 0.291946 0 -0.00612077 -0.0278523 0 346.118 346.118 1000.82 
79 1 1 0.0910458 0.0767399 0 0 0 0 -0.00463868 -0.0446736 0 0.303687 0.397026 0 -0.00463868 -0.0446736 0 316.913 316.913 1000.75 
80 1 1 0.101039 0.0761817 0 0 0 0 -0.0172159 -0.104855 0 1.04059 0.187087 0 -0.0172159 -0.104855 0 246.99 246.99 1000.59 
81 1 1 0.0100037 0.0878571 0 0 0 0 0.00474188 -0.021373 0 -0.037832 0.0431505 0 0.00474188 -0.021373 0 173.501 173.501 1000.41 
82 1 1 0.0201444 0.0876828 0 0 0 0 0.00396483 -0.0230381 0 0.00472668 0.0530143 0 0.00396483 -0.0230381 0 171.244 171.244 1000.41 
83 1 1 0.0301794 0.0876274 0 0 0 0 0.00686252 -0.0233354 0 -0.00706123 0.068032 0 0.00686252 -0.0233354 0 169.412 169.412 1000.4 
84 1 1 0.0402721 0.0875027 0 0 0 0 0.004068 -0.0243479 0 -0.0316519 0.0968333 0 0.004068 -0.0243479 0 174.52 174.52 1000.42 
85 1 1 0.0503486 0.0873469 0 0 0 0 0.00818881 -0.0247218 0 0.00295738 0.124365 0 0.00818881 -0.0247218 0 184.053 184.053 1000.44 
86 1 1 0.0604452 0.0871618 0 0 0 0 0.00283563 -0.0259209 0 -0.0209124 0.133099 0 0.00283563 -0.0259209 0 173.19 173.19 1000.41 
87 1 1 0.0705411 0.0869075 0 0 0 0 0.0086001 -0.0236988 0 0.00503064 0.19332 0 0.0086001 -0.0236988 0 197.135 197.135 1000.47 
88 1 1 0.0806298 0.0867048 0 0 0 0 -0.0116453 -0.0283905 0 0.0912835 0.137136 0 -0.0116453 -0.0283905 0 166.9 166.9 1000.4 
89 1 1 0.0907943 0.0866179 0 0 0 0 -0.0211124 -0.00822791 0 0.0151012 -0.0414221 0 -0.0211124 -0.00822791 0 161.71 161.71 1000.38 
90 1 1 0.100948 0.0859553 0 0 0 0 -0.098784 -0.0354883 0 0.563036 -0.384096 0 -0.098784 -0.0354883 0 203.894 203.894 1000.48 
91 1 1 0.00980519 0.0978841 0 0 0 0 0.00731473 -0.0241846 0 0.00513366 -0.0251713 0 0.00731473 -0.0241846 0 75.4371 75.4371 1000.18 
92 1 1 0.0200649 0.0978265 0 0 0 0 0.00280616 -0.0155921 0 0.003558 0.0318081 0 0.00280616 -0.0155921 0 76.5637 76.5637 1000.18 
93 1 1 0.0300711 0.0977898 0 0 0 0 0.00386424 -0.0181333 0 0.0053363 0.0221431 0 0.00386424 -0.0181333 0 74.4792 74.4792 1000.18 
94 1 1 0.0401506 0.0976508 0 0 0 0 0.00398223 -0.0200361 0 -0.00588853 0.0466988 0 0.00398223 -0.0200361 0 77.1376 77.1376 1000.18 
95 1 1 0.0502044 0.0974912 0 0 0 0 0.00647806 -0.0195178 0 0.00627534 0.0695096 0 0.00647806 -0.0195178 0 78.5879 78.5879 1000.19 
96 1 1 0.0602807 0.097297 0 0 0 0 0.00579229 -0.0196971 0 -0.00401064 0.0825125 0 0.00579229 -0.0196971 0 81.582 81.582 1000.19 
97 1 1 0.070337 0.0970315 0 0 0 0 0.00771053 -0.0137726 0 0.011104 0.125825 0 0.00771053 -0.0137726 0 87.3423 87.3423 1000.21 
98 1 1 0.0804921 0.0968556 0 0 0 0 0.00106723 -0.00325607 0 -0.0242058 0.0866232 0 0.00106723 -0.00325607 0 85.4892 85.4892 1000.2 
99 1 1 0.0904302 0.0963698 0 0 0 0 -0.000329899 0.033883 0 -0.0868976 0.217234 0 -0.000329899 0.033883 0 119.96 119.96 1000.29 
100 1 1 0.101292 0.0957949 0 0 0 0 -0.0684764 0.0216088 0 -0.638973 0.175509 0 -0.0684764 0.0216088 0 176.954 176.954 1000.42 
101 1 1 0.114933 0.0104885 0 0 0 0 0.242059 0.052936 0 -0.4935 -0.115699 0 0.242059 0.052936 0 309.1 309.1 1000.73 
102 1 1 0.122878 0.00991179 0 0 0 0 0.0773092 -0.0149911 0 -0.296457 -0.344734 0 0.0773092 -0.0149911 0 682.933 682.933 1001.62 
103 1 1 0.132968 0.0100692 0 0 0 0 0.125331 0.0105416 0 0.0891629 0.0540934 0 0.125331 0.0105416 0 487.373 487.373 1001.16 
104 1 1 0.142231 0.0100082 0 0 0 0 0.0836674 0.00541855 0 -0.0945425 -0.0124729 0 0.0836674 0.00541855 0 580.019 580.019 1001.38 
105 1 1 0.151841 0.00997895 0 0 0 0 0.0764784 0.00600983 0 0.0481079 0.00484466 0 0.0764784 0.00600983 0 549.74 549.74 1001.3 
106 1 1 0.161406 0.00992817 0 0 0 0 0.0582815 0.00385828 0 0.0164884 -0.00657583 0 0.0582815 0.00385828 0 560.729 560.729 1001.33 
107 1 1 0.171089 0.00989073 0 0 0 0 0.0470391 0.00271327 0 0.0424582 -0.00835706 0 0.0470391 0.00271327 0 550.313 550.313 1001.31 
108 1 1 0.180823 0.00985543 0 0 0 0 0.0360688 0.0012282 0 0.0362908 -0.0106225 0 0.0360688 0.0012282 0 546.69 546.69 1001.3 
109 1 1 0.190622 0.00982873 0 0 0 0 0.0278592 0.000340874 0 0.0361896 -0.0106649 0 0.0278592 0.000340874 0 540.239 540.239 1001.28 
110 1 1 0.200466 0.00980764 0 0 0 0 0.0211419 -0.000476827 0 0.0312687 -0.0125939 0 0.0211419 -0.000476827 0 535.452 535.452 1001.27 
111 1 1 0.210348 0.00979148 0 0 0 0 0.0160564 -0.0010773 0 0.0263132 -0.0128722 0 0.0160564 -0.0010773 0 530.899 530.899 1001.26 
112 1 1 0.220259 0.00977923 0 0 0 0 0.0120668 -0.00154007 0 0.0209924 -0.0131362 0 0.0120668 -0.00154007 0 527.481 527.481 1001.25 
113 1 1 0.230193 0.00976999 0 0 0 0 0.00907187 -0.00188775 0 0.0166069 -0.0130807 0 0.00907187 -0.00188775 0 524.581 524.581 1001.24 
114 1 1 0.240144 0.00976304 0 0 0 0 0.00678102 -0.00215128 0 0.0124715 -0.0128848 0 0.00678102 -0.00215128 0 522.443 522.443 1001.24 
115 1 1 0.250107 0.00975782 0 0 0 0 0.00506078 -0.00234958 0 0.00925216 -0.0125439 0 0.00506078 -0.00234958 0 520.796 520.796 1001.24 
116 1 1 0.260079 0.00975393 0 0 0 0 0.00376397 -0.0024971 0 0.00656983 -0.0121322 0 0.00376397 -0.0024971 0 519.605 519.605 1001.23 
117 1 1 0.270059 0.00975102 0 0 0 0 0.0027909 -0.00260678 0 0.00450176 -0.0116714 0 0.0027909 -0.00260678 0 518.754 518.754 1001.23 
118 1 1 0.280044 0.00974884 0 0 0 0 0.0020606 -0.00268696 0 0.00290752 -0.0111517 0 0.0020606 -0.00268696 0 518.171 518.171 1001.23 
119 1 1 0.290033 0.0097472 0 0 0 0 0.00151303 -0.00274407 0 0.00168809 -0.0105972 0 0.00151303 -0.00274407 0 517.793 517.793 1001.23 
120 1 1 0.300024 0.00974597 0 0 0 0 0.00110116 -0.00278398 0 0.000750491 -0.00999916 0 0.00110116 -0.00278398 0 517.569 517.569 1001.23 
121 1 1 0.310018 0.00974502 0 0 0 0 0.000791465 -0.00281078 0 1.88576e-05 -0.00934772 0 0.000791465 -0.00281078 0 517.464 517.464 1001.23 
122 1 1 0.320014 0.00974429 0 0 0 0 0.000557369 -0.00282676 0 -0.000535351 -0.00862531 0 0.000557369 -0.00282676 0 517.448 517.448 1001.23 
123 1 1 0.330011 0.00974371 0 0 0 0 0.000379793 -0.0028353 0 -0.00105068 -0.00783469 0 0.000379793 -0.0028353 0 517.496 517.496 1001.23 
124 1 1 0.340009 0.00974326 0 0 0 0 0.000247424 -0.00283583 0 -0.00137092 -0.0069647 0 0.000247424 -0.00283583 0 517.622 517.622 1001.23 
125 1 1 0.350007 0.00974285 0 0 0 0 0.00013788 -0.0028335 0 -0.00185899 -0.00599418 0 0.00013788 -0.0028335 0 517.751 517.751 1001.23 
126 1 1 0.360006 0.00974254 0 0 0 0 7.22885e-05 -0.00282374 0 -0.00202619 -0.00498939 0 7.22885e-05 -0.00282374 0 518.015 518.015 1001.23 
127 1 1 0.370006 0.00974218 0 0 0 0 -1.76742e-05 -0.00281404 0 -0.00251513 -0.00378344 0 -1.76742e-05 -0.00281404 0 518.168 518.168 1001.23 
128 1 1 0.380006 0.00974197 0 0 0 0 -2.25273e-05 -0.0027994 0 -0.00274698 -0.00271067 0 -2.25273e-05 -0.0027994 0 518.595 518.595 1001.23 
129 1 1 0.390006 0.00974149 0 0 0 0 -0.00013915 -0.00277906 0 -0.00297544 -0.00117846 0 -0.00013915 -0.00277906 0 518.735 518.735 1001.23 
130 1 1 0.400008 0.00974137 0 0 0 0 -6.7666e-05 -0.00277463 0 -0.00375247 -0.000135026 0 -6.7666e-05 -0.00277463 0 519.361 519.361 1001.23 
131 1 1 0.410008 0.00974053 0 0 0 0 -0.000267602 -0.00272936 0 -0.00305046 0.00168438 0 -0.000267602 -0.00272936 0 519.445 519.445 1001.23 
132 1 1 0.420013 0.00974057 0 0 0 0 -6.38496e-05 -0.00274588 0 -0.00561705 0.00283333 0 -6.38496e-05 -0.00274588 0 520.353 520.353 1001.23 
133 1 1 0.430012 0.00973806 0 0 0 0 -0.000409237 -0.00269171 0 -0.00180447 0.00526649 0 -0.000409237 -0.00269171 0 520.318 520.318 1001.23 
134 1 1 0.440026 0.00973843 0 0 0 0 3.52187e-05 -0.00282131 0 -0.00927396 0.00565582 0 3.52187e-05 -0.00282131 0 521.462 521.462 1001.24 
135 1 1 0.450024 0.00973108 0 0 0 0 -0.000374779 -0.00279497 0 0.00157473 0.00775613 0 -0.000374779 -0.00279497 0 521.524 521.524 1001.24 
136 1 1 0.460059 0.00973612 0 0 0 0 0.000459833 -0.0023994 0 -0.013589 0.0100634 0 0.000459833 -0.0023994 0 522.94 522.94 1001.24 
137 1 1 0.470091 0.00966516 0 0 0 0 0.00053601 -0.00451187 0 0.00221434 0.0182961 0 0.00053601 -0.00451187 0 521.609 521.609 1001.24 
138 1 1 0.480109 0.00979534 0 0 0 0 0.00234246 -0.00262899 0 -0.0200743 0.0114863 0 0.00234246 -0.00262899 0 525.977 525.977 1001.25 
139 1 1 0.490461 0.00935727 0 0 0 0 0.00394008 -0.00544226 0 -0.0189805 0.031195 0 0.00394008 -0.00544226 0 539.401 539.401 1001.28 
140 1 1 0.115027 0.0207901 0 0 0 0 0.213166 0.0461283 0 -0.715222 -0.0630425 0 0.213166 0.0461283 0 248.357 248.357 1000.59 
141 1 1 0.122866 0.0206638 0 0 0 0 0.0837938 0.0305776 0 0.0300643 0.0692913 0 0.0837938 0.0305776 0 594.627 594.627 1001.41 
142 1 1 0.133059 0.0207417 0 0 0 0 0.136559 0.0376224 0 0.097077 0.0411277 0 0.136559 0.0376224 0 339.392 339.392 1000.81 
143 1 1 0.142111 0.0206242 0 0 0 0 0.078252 0.0271568 0 -0.0942723 -0.0278695 0 0.078252 0.0271568 0 458.594 458.594 1001.09 
144 1 1 0.151757 0.0205294 0 0 0 0 0.0755605 0.0244011 0 0.0794516 0.00591745 0 0.0755605 0.0244011 0 396.335 396.335 1000.94 
145 1 1 0.161298 0.020403 0 0 0 0 0.0539884 0.0194237 0 0.00494524 0.00194264 0 0.0539884 0.0194237 0 418.951 418.951 1000.99 
146 1 1 0.171005 0.0202897 0 0 0 0 0.0438403 0.0156633 0 0.0408936 0.00663453 0 0.0438403 0.0156633 0 408.305 408.305 1000.97 
147 1 1 0.18075 0.0201895 0 0 0 0 0.0329455 0.0117674 0 0.0312468 0.00456836 0 0.0329455 0.0117674 0 409.376 409.376 1000.97 
148 1 1 0.190567 0.0201075 0 0 0 0 0.0255961 0.00862716 0 0.0323759 0.00498069 0 0.0255961 0.00862716 0 405.067 405.067 1000.96 
149 1 1 0.200422 0.0200426 0 0 0 0 0.0192309 0.00600944 0 0.0268029 0.00275558 0 0.0192309 0.00600944 0 403.416 403.416 1000.96 
150 1 1 0.210316 0.0199923 0 0 0 0 0.014642 0.00392247 0 0.023707 0.000934709 0 0.014642 0.00392247 0 400.474 400.474 1000.95 
151 1 1 0.220235 0.0199539 0 0 0 0 0.0109762 0.00229854 0 0.0186082 -0.000881935 0 0.0109762 0.00229854 0 398.635 398.635 1000.95 
152 1 1 0.230175 0.0199249 0 0 0 0 0.00825946 0.00104903 0 0.0150378 -0.002454 0 0.00825946 0.00104903 0 396.797 396.797 1000.94 
153 1 1 0.24013 0.0199032 0 0 0 0 0.0061747 9.77586e-05 0 0.011361 -0.00368737 0 0.0061747 9.77586e-05 0 395.491 395.491 1000.94 
154 1 1 0.250096 0.0198869 0 0 0 0 0.00461424 -0.000619692 0 0.0085731 -0.00459986 0 0.00461424 -0.000619692 0 394.432 394.432 1000.94 
155 1 1 0.260072 0.0198747 0 0 0 0 0.00343539 -0.00115771 0 0.00617816 -0.00524477 0 0.00343539 -0.00115771 0 393.681 393.681 1000.93 
156 1 1 0.270053 0.0198657 0 0 0 0 0.00255117 -0.0015588 0 0.00433766 -0.00567958 0 0.00255117 -0.0015588 0 393.146 393.146 1000.93 
157 1 1 0.28004 0.0198589 0 0 0 0 0.00188688 -0.00185543 0 0.00287715 -0.00595298 0 0.00188688 -0.00185543 0 392.793 392.793 1000.93 
158 1 1 0.29003 0.0198539 0 0 0 0 0.00138836 -0.00207259 0 0.00175723 -0.00610373 0 0.00138836 -0.00207259 0 392.583 392.583 1000.93 
159 1 1 0.300022 0.0198501 0 0 0 0 0.00101355 -0.00222917 0 0.000901913 -0.00616078 0 0.00101355 -0.00222917 0 392.481 392.481 1000.93 
160 1 1 0.310017 0.0198473 0 0 0 0 0.000732519 -0.00233969 0 0.000234348 -0.00615386 0 0.000732519 -0.00233969 0 392.465 392.465 1000.93 
161 1 1 0.320013 0.0198452 0 0 0 0 0.000520143 -0.00241468 0 -0.000250656 -0.00609816 0 0.000520143 -0.00241468 0 392.516 392.516 1000.93 
162 1 1 0.33001 0.0198436 0 0 0 0 0.00035923 -0.0024628 0 -0.000732957 -0.00600461 0 0.00035923 -0.0024628 0 392.611 392.611 1000.93 
163 1 1 0.340008 0.0198423 0 0 0 0 0.00024095 -0.00248901 0 -0.00095822 -0.00588207 0 0.00024095 -0.00248901 0 392.783 392.783 1000.93 
164 1 1 0.350006 0.0198413 0 0 0 0 0.000138489 -0.00249931 0 -0.00145518 -0.0057109 0 0.000138489 -0.00249931 0 392.92 392.92 1000.93 
165 1 1 0.360006 0.0198404 0 0 0 0 8.75768e-05 -0.00249541 0 -0.00148361 -0.00554251 0 8.75768e-05 -0.00249541 0 393.236 393.236 1000.93 
166 1 1 0.370005 0.0198397 0 0 0 0 -9.78399e-06 -0.00248026 0 -0.00201445 -0.0052756 0 -9.78399e-06 -0.00248026 0 393.345 393.345 1000.93 
167 1 1 0.380005 0.019839 0 0 0 0 1.40319e-05 -0.00245864 0 -0.00212697 -0.00508172 0 1.40319e-05 -0.00245864 0 393.855 393.855 1000.94 
168 1 1 0.390005 0.0198382 0 0 0 0 -0.000137507 -0.00242051 0 -0.00223868 -0.0047086 0 -0.000137507 -0.00242051 0 393.899 393.899 1000.94 
169 1 1 0.400007 0.0198374 0 0 0 0 -1.1836e-05 -0.00239714 0 -0.00331265 -0.00446198 0 -1.1836e-05 -0.00239714 0 394.593 394.593 1000.94 
170 1 1 0.410006 0.0198363 0 0 0 0 -0.00027108 -0.00232926 0 -0.00183829 -0.00413024 0 -0.00027108 -0.00232926 0 394.662 394.662 1000.94 
171 1 1 0.420012 0.0198344 0 0 0 0 -1.96909e-05 -0.00233766 0 -0.00542855 -0.00351624 0 -1.96909e-05 -0.00233766 0 395.445 395.445 1000.94 
172 1 1 0.430008 0.0198325 0 0 0 0 -0.000444098 -0.00226362 0 -0.000554945 -0.00405353 0 -0.000444098 -0.00226362 0 395.62 395.62 1000.94 
173 1 1 0.440024 0.0198262 0 0 0 0 1.58341e-05 -0.00230047 0 -0.00896345 -0.0021788 0 1.58341e-05 -0.00230047 0 396.653 396.653 1000.94 
174 1 1 0.450009 0.0198206 0 0 0 0 -0.000905119 -0.00226212 0 0.00105225 -0.0025253 0 -0.000905119 -0.00226212 0 396.617 396.617 1000.94 
175 1 1 0.460054 0.0197909 0 0 0 0 0.000596556 -0.00340741 0 -0.0145589 -0.00217059 0 0.000596556 -0.00340741 0 399.389 399.389 1000.95 
176 1 1 0.469988 0.0198166 0 0 0 0 -0.0022207 -0.00107066 0 0.00546777 -0.00481003 0 -0.0022207 -0.00107066 0 398.709 398.709 1000.95 
177 1 1 0.480141 0.0196307 0 0 0 0 0.000933876 -0.00533827 0 -0.0184802 0.0107589 0 0.000933876 -0.00533827 0 400.648 400.648 1000.95 
178 1 1 0.48993 0.0197588 0 0 0 0 -0.00178891 -0.00422709 0 0.000367875 0.0117024 0 -0.00178891 -0.00422709 0 402.905 402.905 1000.96 
179 1 1 0.1154 0.0314196 0 0 0 0 0.206851 0.0555392 0 -0.508847 -0.157989 0 0.206851 0.0555392 0 163.137 163.137 1000.39 
180 1 1 0.122708 0.0315245 0 0 0 0 0.0766826 0.0455383 0 0.0968014 -0.0734711 0 0.0766826 0.0455383 0 389.308 389.308 1000.92 
181 1 1 0.133179 0.0316062 0 0 0 0 0.138016 0.0618116 0 -0.0822936 -0.0387185 0 0.138016 0.0618116 0 245.956 245.956 1000.58 
182 1 1 0.142003 0.0313914 0 0 0 0 0.075374 0.0551802 0 -0.0504495 -0.0237775 0 0.075374 0.0551802 0 368.007 368.007 1000.87 
183 1 1 0.151664 0.0310984 0 0 0 0 0.075216 0.0476932 0 0.0925329 0.00713697 0 0.075216 0.0476932 0 299.738 299.738 1000.71 
184 1 1 0.161159 0.0308312 0 0 0 0 0.050301 0.0377273 0 0.0218146 -0.00415193 0 0.050301 0.0377273 0 323.415 323.415 1000.77 
185 1 1 0.170885 0.030601 0 0 0 0 0.0409607 0.0292063 0 0.0583153 0.00510769 0 0.0409607 0.0292063 0 305.237 305.237 1000.73 
186 1 1 0.180642 0.0304197 0 0 0 0 0.0294406 0.0222787 0 0.0368447 0.00301897 0 0.0294406 0.0222787 0 305.688 305.688 1000.73 
187 1 1 0.19048 0.0302779 0 0 0 0 0.022718 0.0165711 0 0.0385887 0.000561815 0 0.022718 0.0165711 0 298.223 298.223 1000.71 
188 1 1 0.200353 0.0301695 0 0 0 0 0.0167293 0.0121604 0 0.0284176 -0.00144057 0 0.0167293 0.0121604 0 295.8 295.8 1000.7 
189 1 1 0.210263 0.0300872 0 0 0 0 0.012645 0.00872897 0 0.0247257 -0.00415211 0 0.012645 0.00872897 0 292.052 292.052 1000.69 
190 1 1 0.220194 0.0300253 0 0 0 0 0.00939417 0.00610288 0 0.0186441 -0.00650061 0 0.00939417 0.00610288 0 289.89 289.89 1000.69 
191 1 1 0.230144 0.0299789 0 0 0 0 0.00703343 0.00410537 0 0.0148989 -0.00856005 0 0.00703343 0.00410537 0 287.828 287.828 1000.68 
192 1 1 0.240107 0.0299443 0 0 0 0 0.00523294 0.002598 0 0.0111212 -0.0101568 0 0.00523294 0.002598 0 286.4 286.4 1000.68 
193 1 1 0.250079 0.0299184 0 0 0 0 0.0038977 0.00146486 0 0.00836956 -0.0113505 0 0.0038977 0.00146486 0 285.261 285.261 1000.68 
194 1 1 0.260059 0.0298992 0 0 0 0 0.0028953 0.000615187 0 0.00605911 -0.0121886 0 0.0028953 0.000615187 0 284.45 284.45 1000.68 
195 1 1 0.270044 0.0298849 0 0 0 0 0.00214707 -1.86468e-05 0 0.00430647 -0.0127193 0 0.00214707 -1.86468e-05 0 283.865 283.865 1000.67 
196 1 1 0.280032 0.0298742 0 0 0 0 0.00158718 -0.000489221 0 0.00292992 -0.0129992 0 0.00158718 -0.000489221 0 283.469 283.469 1000.67 
197 1 1 0.290024 0.0298663 0 0 0 0 0.00116862 -0.000836943 0 0.00188539 -0.0130747 0 0.00116862 -0.000836943 0 283.217 283.217 1000.67 
198 1 1 0.300018 0.0298603 0 0 0 0 0.000854736 -0.00109206 0 0.00108723 -0.0129927 0 0.000854736 -0.00109206 0 283.075 283.075 1000.67 
199 1 1 0.310014 0.0298559 0 0 0 0 0.000620379 -0.00127724 0 0.000462167 -0.0127846 0 0.000620379 -0.00127724 0 283.02 283.02 1000.67 
200 1 1 0.32001 0.0298525 0 0 0 0 0.000443884 -0.00140957 0 1.68754e-05 -0.0124754 0 0.000443884 -0.00140957 0 283.034 283.034 1000.67 
201 1 1 0.330008 0.0298499 0 0 0 0 0.000311117 -0.00150148 0 -0.000430371 -0.0120729 0 0.000311117 -0.00150148 0 283.091 283.091 1000.67 
202 1 1 0.340006 0.029848 0 0 0 0 0.000215224 -0.00156299 0 -0.000619365 -0.0115955 0 0.000215224 -0.00156299 0 283.225 283.225 1000.67 
203 1 1 0.350005 0.0298464 0 0 0 0 0.000131183 -0.00159964 0 -0.00107024 -0.0110393 0 0.000131183 -0.00159964 0 283.323 283.323 1000.67 
204 1 1 0.360005 0.029845 0 0 0 0 9.54427e-05 -0.0016192 0 -0.00107641 -0.0104004 0 9.54427e-05 -0.0016192 0 283.598 283.598 1000.67 
205 1 1 0.370005 0.0298439 0 0 0 0 1.33328e-05 -0.00162056 0 -0.001523 -0.00972465 0 1.33328e-05 -0.00162056 0 283.672 283.672 1000.67 
206 1 1 0.380005 0.0298428 0 0 0 0 4.48738e-05 -0.00161302 0 -0.00166721 -0.00886647 0 4.48738e-05 -0.00161302 0 284.118 284.118 1000.68 
207 1 1 0.390005 0.0298418 0 0 0 0 -8.32303e-05 -0.0015904 0 -0.00162084 -0.00815716 0 -8.32303e-05 -0.0015904 0 284.174 284.174 1000.68 
208 1 1 0.400007 0.0298404 0 0 0 0 2.25115e-05 -0.00155688 0 -0.00281986 -0.00693513 0 2.25115e-05 -0.00155688 0 284.722 284.722 1000.68 
209 1 1 0.410006 0.0298393 0 0 0 0 -0.000173114 -0.00152744 0 -0.00111593 -0.0063251 0 -0.000173114 -0.00152744 0 284.97 284.97 1000.68 
210 1 1 0.420011 0.029837 0 0 0 0 -6.34221e-05 -0.00145227 0 -0.00499417 -0.00454844 0 -6.34221e-05 -0.00145227 0 285.324 285.324 1000.68 
211 1 1 0.430006 0.0298353 0 0 0 0 -0.000242376 -0.00144778 0 2.05018e-05 -0.00423519 0 -0.000242376 -0.00144778 0 286.302 286.302 1000.68 
212 1 1 0.440015 0.0298286 0 0 0 0 -0.000399618 -0.00137779 0 -0.00818602 -0.00107546 0 -0.000399618 -0.00137779 0 286.001 286.001 1000.68 
213 1 1 0.450006 0.0298273 0 0 0 0 -0.000202342 -0.00158164 0 0.00170369 -0.00481362 0 -0.000202342 -0.00158164 0 288.358 288.358 1000.69 
214 1 1 0.460009 0.0298046 0 0 0 0 -0.00174246 -0.000750189 0 -0.0100296 0.00765846 0 -0.00174246 -0.000750189 0 286.024 286.024 1000.68 
215 1 1 0.470031 0.029767 0 0 0 0 0.000998343 -0.00457289 0 -0.00498568 -0.00395376 0 0.000998343 -0.00457289 0 291.317 291.317 1000.69 
216 1 1 0.479986 0.029756 0 0 0 0 -0.00129517 -0.00119591 0 0.00811625 0.000108685 0 -0.00129517 -0.00119591 0 290.175 290.175 1000.69 
217 1 1 0.490115 0.0296699 0 0 0 0 0.00105249 -0.00375974 0 -0.0123582 -0.000392906 0 0.00105249 -0.00375974 0 286.959 286.959 1000.68 
218 1 1 0.116924 0.0414602 0 0 0 0 0.251382 0.0564145 0 -0.419951 0.131195 0 0.251382 0.0564145 0 190.562 190.562 1000.45 
219 1 1 0.122736 0.0425407 0 0 0 0 0.0903329 0.128521 0 0.158248 0.174119 0 0.0903329 0.128521 0 144.254 144.254 1000.34 
220 1 1 0.13286 0.0419817 0 0 0 0 0.124436 0.0855376 0 -0.0596634 -0.0881462 0 0.124436 0.0855376 0 127.127 127.127 1000.3 
221 1 1 0.141484 0.041697 0 0 0 0 0.0566962 0.0756398 0 0.0241219 0.00414057 0 0.0566962 0.0756398 0 156.773 156.773 1000.37 
222 1 1 0.15121 0.0412704 0 0 0 0 0.0557469 0.0583734 0 0.044258 0.0105672 0 0.0557469 0.0583734 0 132.251 132.251 1000.31 
223 1 1 0.16081 0.0409325 0 0 0 0 0.0346058 0.0467282 0 0.00482189 0.0217874 0 0.0346058 0.0467282 0 165.101 165.101 1000.39 
224 1 1 0.170616 0.0406428 0 0 0 0 0.0292815 0.0350059 0 0.0479959 0.0196604 0 0.0292815 0.0350059 0 154.309 154.309 1000.37 
225 1 1 0.180442 0.0404172 0 0 0 0 0.0206062 0.0264009 0 0.0230272 0.0251844 0 0.0206062 0.0264009 0 163.388 163.388 1000.39 
226 1 1 0.19033 0.0402406 0 0 0 0 0.0160363 0.019097 0 0.0298378 0.0205843 0 0.0160363 0.019097 0 161.185 161.185 1000.38 
227 1 1 0.200242 0.0401064 0 0 0 0 0.0117762 0.0135039 0 0.0213417 0.0180218 0 0.0117762 0.0135039 0 162.238 162.238 1000.39 