ITEM: TIMESTEP
140000
ITEM: NUMBER OF ATOMS
754
ITEM: BOX BOUNDS ff ff pp
-0.021 0.521
-0.021 0.5
-0.001 0.001
ITEM: ATOMS id type type x y z ix iy iz vx vy vz fx fy fz vx vy vz p p rho 
1 1 1 0.00754122 0.00499977 0 0 0 0 -0.00549697 -0.00116196 0 0.0221318 0.000773416 0 -0.00549697 -0.00116196 0 581.891 581.891 1001.38 
2 1 1 0.0228396 0.00564849 0 0 0 0 0.0349037 -0.0165381 0 0.0455466 0.00237236 0 0.0349037 -0.0165381 0 614.871 614.871 1001.46 
3 1 1 0.0503215 0.00817773 0 0 0 0 0.0994088 -0.0471373 0 0.0162801 0.0250594 0 0.0994088 -0.0471373 0 599.302 599.302 1001.42 
4 1 1 0.0628142 0.00579699 0 0 0 0 0.118258 0.0028705 0 0.0176319 -0.0130492 0 0.118258 0.0028705 0 578.55 578.55 1001.37 
5 1 1 0.0790466 0.00621808 0 0 0 0 0.116106 0.01062 0 0.0456384 0.0315871 0 0.116106 0.01062 0 604.423 604.423 1001.43 
6 1 1 0.0954244 0.00647533 0 0 0 0 0.129169 -0.00810747 0 0.0480645 0.0269741 0 0.129169 -0.00810747 0 612.632 612.632 1001.45 
7 1 1 0.127838 0.00685871 0 0 0 0 0.156449 0.0155381 0 0.0208391 0.0102406 0 0.156449 0.0155381 0 573.972 573.972 1001.36 
8 1 1 0.114748 0.0187151 0 0 0 0 0.146957 -0.0252704 0 0.0833309 -0.0361908 0 0.146957 -0.0252704 0 548.265 548.265 1001.3 
9 1 1 0.151632 0.00765199 0 0 0 0 0.128296 -0.0137544 0 -0.0152326 0.0474994 0 0.128296 -0.0137544 0 609.56 609.56 1001.45 
10 1 1 0.162707 0.00696383 0 0 0 0 0.110046 0.0180849 0 0.010825 -0.033782 0 0.110046 0.0180849 0 560.78 560.78 1001.33 
11 1 1 0.0229465 0.0187228 0 0 0 0 0.0132377 -0.059812 0 -0.0764523 0.0373598 0 0.0132377 -0.059812 0 525.767 525.767 1001.25 
12 1 1 0.0392604 0.005942 0 0 0 0 0.0422387 0.00831718 0 -0.0334583 0.0129684 0 0.0422387 0.00831718 0 576.408 576.408 1001.37 
13 1 1 0.0503907 0.0163968 0 0 0 0 0.0686827 -0.0402661 0 0.0147062 -0.0399304 0 0.0686827 -0.0402661 0 547.282 547.282 1001.3 
14 1 1 0.0721773 0.012239 0 0 0 0 0.077017 -0.013148 0 -0.0600695 0.000936259 0 0.077017 -0.013148 0 603.468 603.468 1001.43 
15 1 1 0.0868918 0.0120586 0 0 0 0 0.125174 -0.0253463 0 -0.0297602 0.00109424 0 0.125174 -0.0253463 0 607.822 607.822 1001.44 
16 1 1 0.116006 0.00738608 0 0 0 0 0.138662 -0.0383953 0 -0.0118142 0.000583261 0 0.138662 -0.0383953 0 607.794 607.794 1001.44 
17 1 1 0.117631 0.0279986 0 0 0 0 0.145648 -0.0130364 0 -0.138351 -0.0139762 0 0.145648 -0.0130364 0 447.14 447.14 1001.06 
18 1 1 0.139388 0.00701879 0 0 0 0 0.128475 0.0115279 0 0.0341979 -0.0121541 0 0.128475 0.0115279 0 596.847 596.847 1001.42 
19 1 1 0.155702 0.0171342 0 0 0 0 0.151042 0.0204638 0 0.0705392 -0.0225947 0 0.151042 0.0204638 0 526.27 526.27 1001.25 
20 1 1 0.147169 0.0254314 0 0 0 0 0.125915 -0.026089 0 0.00200807 -0.0769063 0 0.125915 -0.026089 0 467.559 467.559 1001.11 
21 1 1 0.0201449 0.0307193 0 0 0 0 0.00570327 -0.0306216 0 0.0487212 0.0031767 0 0.00570327 -0.0306216 0 435.156 435.156 1001.03 
22 1 1 0.030445 0.0126326 0 0 0 0 0.0339154 -0.000268113 0 -0.00111683 0.00887412 0 0.0339154 -0.000268113 0 558.488 558.488 1001.32 
23 1 1 0.0381535 0.01586 0 0 0 0 0.0694958 -0.0284773 0 0.121906 0.00532547 0 0.0694958 -0.0284773 0 577.714 577.714 1001.37 
24 1 1 0.0615038 0.0396824 0 0 0 0 0.117674 -0.109876 0 -0.00142876 -0.0361955 0 0.117674 -0.109876 0 386.66 386.66 1000.92 
25 1 1 0.0611497 0.0247585 0 0 0 0 0.0383152 -0.0328166 0 -0.104528 0.0105451 0 0.0383152 -0.0328166 0 500.837 500.837 1001.19 
26 1 1 0.106505 0.00875652 0 0 0 0 0.121327 0.0137299 0 -0.0111479 -0.0182216 0 0.121327 0.0137299 0 551.411 551.411 1001.31 
27 1 1 0.106726 0.0189445 0 0 0 0 0.159672 -0.0114261 0 -0.0549183 0.0266726 0 0.159672 -0.0114261 0 538.691 538.691 1001.28 
28 1 1 0.135673 0.0159796 0 0 0 0 0.140142 0.0151145 0 -0.0273589 -0.0159227 0 0.140142 0.0151145 0 533.757 533.757 1001.27 
29 1 1 0.145766 0.0154933 0 0 0 0 0.141984 -0.00871493 0 0.0235955 0.120288 0 0.141984 -0.00871493 0 544.073 544.073 1001.29 
30 1 1 0.154911 0.0290939 0 0 0 0 0.1251 0.00912342 0 0.0598968 0.0383482 0 0.1251 0.00912342 0 452.555 452.555 1001.07 
31 1 1 0.0163471 0.0128667 0 0 0 0 -0.0113084 -0.025381 0 -0.011091 0.029269 0 -0.0113084 -0.025381 0 563.736 563.736 1001.34 
32 1 1 0.0298172 0.0251984 0 0 0 0 0.0376199 -0.0307652 0 -0.0350507 -0.126077 0 0.0376199 -0.0307652 0 484.466 484.466 1001.15 
33 1 1 0.0535698 0.0343268 0 0 0 0 0.0693747 -0.026113 0 0.0256004 0.101529 0 0.0693747 -0.026113 0 425.862 425.862 1001.01 
34 1 1 0.0696958 0.0193455 0 0 0 0 0.11918 -0.00892525 0 -0.0476125 0.00715726 0 0.11918 -0.00892525 0 517.109 517.109 1001.23 
35 1 1 0.0979104 0.0268197 0 0 0 0 0.124929 -0.000117504 0 -0.00763571 0.0534196 0 0.124929 -0.000117504 0 474.409 474.409 1001.13 
36 1 1 0.107654 0.0302964 0 0 0 0 0.127755 -0.0369149 0 0.00886864 -0.051285 0 0.127755 -0.0369149 0 399.9 399.9 1000.95 
37 1 1 0.124111 0.0152408 0 0 0 0 0.133339 -0.00696123 0 0.0335593 -0.030516 0 0.133339 -0.00696123 0 553.773 553.773 1001.31 
38 1 1 0.137148 0.0250259 0 0 0 0 0.152828 0.0439026 0 0.0210326 0.0130045 0 0.152828 0.0439026 0 459.041 459.041 1001.09 
39 1 1 0.151987 0.0396091 0 0 0 0 0.128552 -0.0358441 0 0.0108162 -0.0119894 0 0.128552 -0.0358441 0 342.367 342.367 1000.81 
40 1 1 0.121632 0.0454166 0 0 0 0 0.126854 -0.0173553 0 0.0449455 0.0533478 0 0.126854 -0.0173553 0 330.588 330.588 1000.79 
41 1 1 0.00811347 0.0171751 0 0 0 0 -0.00840055 0.0116066 0 -0.0305614 -0.0262661 0 -0.00840055 0.0116066 0 502.796 502.796 1001.19 
42 1 1 0.0243089 0.0500371 0 0 0 0 0.0607624 -0.0452583 0 0.0705744 -0.048501 0 0.0607624 -0.0452583 0 290.211 290.211 1000.69 
43 1 1 0.0415153 0.0234572 0 0 0 0 0.048796 -0.0429927 0 -0.060873 0.100929 0 0.048796 -0.0429927 0 499.459 499.459 1001.18 
44 1 1 0.0563947 0.047658 0 0 0 0 0.140378 -0.0997131 0 0.0596714 -0.0172299 0 0.140378 -0.0997131 0 287.275 287.275 1000.68 
45 1 1 0.0795399 0.0215286 0 0 0 0 0.129886 -0.0684208 0 -0.031847 0.00856089 0 0.129886 -0.0684208 0 529.789 529.789 1001.26 
46 1 1 0.0876397 0.0312315 0 0 0 0 0.0760956 -0.0102228 0 -0.0121915 -0.0745069 0 0.0760956 -0.0102228 0 421.777 421.777 1001 
47 1 1 0.12736 0.0232331 0 0 0 0 0.155656 -0.00746692 0 -0.0127138 0.065623 0 0.155656 -0.00746692 0 502.766 502.766 1001.19 
48 1 1 0.143242 0.0350625 0 0 0 0 0.132601 0.0443475 0 0.0210425 -0.0374352 0 0.132601 0.0443475 0 382.838 382.838 1000.91 
49 1 1 0.140167 0.0438042 0 0 0 0 0.161428 0.0204845 0 0.0348114 0.0176371 0 0.161428 0.0204845 0 328.477 328.477 1000.78 
50 1 1 0.116576 0.0663209 0 0 0 0 0.209028 0.0267689 0 0.0263781 -0.0537035 0 0.209028 0.0267689 0 161.341 161.341 1000.38 
51 1 1 0.0126407 0.0242993 0 0 0 0 0.0631519 -0.0248741 0 0.0238214 0.0272979 0 0.0631519 -0.0248741 0 502.923 502.923 1001.19 
52 1 1 0.0322538 0.032221 0 0 0 0 0.0345464 -0.0818914 0 0.0681155 0.138686 0 0.0345464 -0.0818914 0 459.425 459.425 1001.09 
53 1 1 0.0504164 0.0263377 0 0 0 0 0.0590681 -0.0254905 0 -0.00672383 -0.0246416 0 0.0590681 -0.0254905 0 480.982 480.982 1001.14 
54 1 1 0.0674295 0.0312536 0 0 0 0 0.132214 -0.060401 0 0.0439616 0.0511569 0 0.132214 -0.060401 0 467.93 467.93 1001.11 
55 1 1 0.0760607 0.0407868 0 0 0 0 0.114319 -0.029911 0 0.0294942 0.041726 0 0.114319 -0.029911 0 359.851 359.851 1000.85 
56 1 1 0.0873837 0.039667 0 0 0 0 0.125146 -0.00468607 0 0.0208681 0.0168512 0 0.125146 -0.00468607 0 397.571 397.571 1000.94 
57 1 1 0.11271 0.0390754 0 0 0 0 0.14865 -0.0158238 0 0.0189835 -0.0445352 0 0.14865 -0.0158238 0 400.836 400.836 1000.95 
58 1 1 0.105361 0.0436185 0 0 0 0 0.148252 -0.0469644 0 -0.000356923 0.0604615 0 0.148252 -0.0469644 0 369.669 369.669 1000.88 
59 1 1 0.130555 0.0461014 0 0 0 0 0.153062 0.0270284 0 0.019888 -0.0300383 0 0.153062 0.0270284 0 290.128 290.128 1000.69 
60 1 1 0.133848 0.0569712 0 0 0 0 0.109211 -0.0335692 0 -0.192303 -0.0585268 0 0.109211 -0.0335692 0 249.045 249.045 1000.59 
61 1 1 0.042051 0.0351136 0 0 0 0 0.0573302 -0.0451324 0 -0.0425837 -0.0284054 0 0.0573302 -0.0451324 0 369.61 369.61 1000.88 
62 1 1 0.00928577 0.0331542 0 0 0 0 -0.0202825 -0.0429662 0 0.00107813 -0.0216679 0 -0.0202825 -0.0429662 0 428.789 428.789 1001.02 
63 1 1 0.0595778 0.0148049 0 0 0 0 0.0687099 0.0244143 0 0.0544509 0.0535968 0 0.0687099 0.0244143 0 512.489 512.489 1001.22 
64 1 1 0.0377371 0.0506647 0 0 0 0 0.0806402 -0.10707 0 -0.05615 0.0781684 0 0.0806402 -0.10707 0 278.978 278.978 1000.66 
65 1 1 0.0687064 0.0467587 0 0 0 0 0.124366 -0.0467928 0 0.0640653 0.0706791 0 0.124366 -0.0467928 0 323.411 323.411 1000.77 
66 1 1 0.0980555 0.0167312 0 0 0 0 0.125579 0.0121461 0 0.0169047 -0.0450971 0 0.125579 0.0121461 0 541.807 541.807 1001.29 
67 1 1 0.0980928 0.0360782 0 0 0 0 0.10613 -0.0235702 0 0.000697161 0.0650565 0 0.10613 -0.0235702 0 394.049 394.049 1000.94 
68 1 1 0.123784 0.0346883 0 0 0 0 0.138715 -0.0062988 0 0.0526045 -0.0388021 0 0.138715 -0.0062988 0 439.15 439.15 1001.04 
69 1 1 0.132827 0.0345472 0 0 0 0 0.11389 0.0029038 0 0.0404943 -0.0495201 0 0.11389 0.0029038 0 393.771 393.771 1000.93 
70 1 1 0.136938 0.068302 0 0 0 0 0.270672 -0.0596889 0 -0.0177288 -0.103447 0 0.270672 -0.0596889 0 228.641 228.641 1000.54 
71 1 1 0.0114879 0.0512542 0 0 0 0 -0.000177977 -0.0870493 0 0.037428 -0.0484869 0 -0.000177977 -0.0870493 0 304.454 304.454 1000.72 
72 1 1 0.0327051 0.0662028 0 0 0 0 0.0121215 -0.159372 0 -0.112898 0.0440987 0 0.0121215 -0.159372 0 205.092 205.092 1000.49 
73 1 1 0.0221075 0.0398789 0 0 0 0 0.0281457 -0.0401258 0 0.0040708 -0.01881 0 0.0281457 -0.0401258 0 387.947 387.947 1000.92 
74 1 1 0.0453742 0.0427786 0 0 0 0 0.0607854 -0.0432638 0 0.0616472 0.0403548 0 0.0607854 -0.0432638 0 367.538 367.538 1000.87 
75 1 1 0.0671619 0.0563673 0 0 0 0 0.120691 -0.0643617 0 -0.097678 0.0588795 0 0.120691 -0.0643617 0 250.921 250.921 1000.6 
76 1 1 0.0880991 0.0203647 0 0 0 0 0.16413 0.00149331 0 0.0528892 0.0658803 0 0.16413 0.00149331 0 526.405 526.405 1001.25 
77 1 1 0.0765776 0.0312959 0 0 0 0 0.111618 -0.0585656 0 0.0831609 -0.03761 0 0.111618 -0.0585656 0 458.327 458.327 1001.09 
78 1 1 0.106424 0.0562454 0 0 0 0 0.145245 -0.00301483 0 0.0780157 0.0104752 0 0.145245 -0.00301483 0 232.588 232.588 1000.55 
79 1 1 0.116027 0.0527749 0 0 0 0 0.111464 -0.0222991 0 -0.128655 -0.127649 0 0.111464 -0.0222991 0 250.925 250.925 1000.6 
80 1 1 0.111596 0.0750233 0 0 0 0 0.239052 0.00875527 0 0.0900124 -0.121739 0 0.239052 0.00875527 0 109.079 109.079 1000.26 
81 1 1 0.0117689 0.0425946 0 0 0 0 0.0280212 -0.0462048 0 0.018579 -0.00704499 0 0.0280212 -0.0462048 0 378.12 378.12 1000.9 
82 1 1 0.0124532 0.0605996 0 0 0 0 -0.0265149 -0.080774 0 -0.0414499 -0.0437517 0 -0.0265149 -0.080774 0 217.307 217.307 1000.52 
83 1 1 0.0325875 0.0430066 0 0 0 0 0.0150066 -0.0950815 0 0.067026 0.046534 0 0.0150066 -0.0950815 0 346.569 346.569 1000.82 
84 1 1 0.0243079 0.0588211 0 0 0 0 0.0484712 -0.0951226 0 0.105897 0.144179 0 0.0484712 -0.0951226 0 280.534 280.534 1000.67 
85 1 1 0.0511251 0.0543714 0 0 0 0 0.074437 -0.116528 0 0.056492 -0.00848648 0 0.074437 -0.116528 0 344.607 344.607 1000.82 
86 1 1 0.0789736 0.0527455 0 0 0 0 0.119408 -0.0592128 0 -0.116117 0.0139634 0 0.119408 -0.0592128 0 265.005 265.005 1000.63 
87 1 1 0.0879518 0.0490449 0 0 0 0 0.170984 -0.0269358 0 -0.0627259 0.026669 0 0.170984 -0.0269358 0 327.249 327.249 1000.78 
88 1 1 0.0904636 0.060677 0 0 0 0 0.188474 -0.0399549 0 0.061817 0.124771 0 0.188474 -0.0399549 0 197.344 197.344 1000.47 
89 1 1 0.0978285 0.049789 0 0 0 0 0.15821 -0.0407679 0 -0.0780334 -0.0760268 0 0.15821 -0.0407679 0 327.17 327.17 1000.78 
90 1 1 0.101507 0.063913 0 0 0 0 0.211441 0.00716963 0 -0.0650527 0.00179924 0 0.211441 0.00716963 0 190.849 190.849 1000.45 
91 1 1 0.0370553 0.0750856 0 0 0 0 0.191944 -0.184255 0 0.140145 -0.0468806 0 0.191944 -0.184255 0 98.3155 98.3155 1000.23 
92 1 1 0.0178742 0.0754571 0 0 0 0 0.0651222 -0.146737 0 0.161843 -0.138856 0 0.0651222 -0.146737 0 63.8184 63.8184 1000.15 
93 1 1 0.0136879 0.0700702 0 0 0 0 -0.00481579 -0.10675 0 -0.0553751 -0.0428043 0 -0.00481579 -0.10675 0 137.522 137.522 1000.33 
94 1 1 0.0535372 0.0642147 0 0 0 0 0.0894093 -0.13318 0 -0.0505536 0.118262 0 0.0894093 -0.13318 0 244.522 244.522 1000.58 
95 1 1 0.0564624 0.0754152 0 0 0 0 0.183069 -0.1285 0 -0.0166507 0.0949112 0 0.183069 -0.1285 0 204.242 204.242 1000.49 
96 1 1 0.0773379 0.0762449 0 0 0 0 0.158533 -0.0813999 0 -0.00683264 0.00616504 0 0.158533 -0.0813999 0 182.503 182.503 1000.43 
97 1 1 0.0407232 0.0598531 0 0 0 0 0.122282 -0.0764812 0 0.0163943 0.0846239 0 0.122282 -0.0764812 0 221.767 221.767 1000.53 
98 1 1 0.0679279 0.0651241 0 0 0 0 0.167631 -0.0793414 0 -0.0533636 0.0712028 0 0.167631 -0.0793414 0 201.717 201.717 1000.48 
99 1 1 0.0815298 0.0647052 0 0 0 0 0.183116 -0.0836038 0 0.0770784 -0.00730237 0 0.183116 -0.0836038 0 224.463 224.463 1000.53 
100 1 1 0.0977792 0.0762612 0 0 0 0 0.178651 -0.051983 0 -0.298649 -0.121531 0 0.178651 -0.051983 0 189.577 189.577 1000.45 
101 1 1 0.165756 0.015531 0 0 0 0 0.161626 -0.00541801 0 0.0193231 0.0456646 0 0.161626 -0.00541801 0 539.162 539.162 1001.28 
102 1 1 0.174391 0.0172719 0 0 0 0 0.158563 0.0164018 0 0.0082809 -0.080876 0 0.158563 0.0164018 0 523.169 523.169 1001.24 
103 1 1 0.176207 0.0265104 0 0 0 0 0.137823 0.00839413 0 0.0707957 -0.0464548 0 0.137823 0.00839413 0 472.119 472.119 1001.12 
104 1 1 0.174861 0.00709519 0 0 0 0 0.113836 -0.0123727 0 0.0368899 -0.0515857 0 0.113836 -0.0123727 0 571.776 571.776 1001.36 
105 1 1 0.184042 0.00987079 0 0 0 0 0.123709 -0.00278093 0 0.0191431 0.0736652 0 0.123709 -0.00278093 0 551.795 551.795 1001.31 
106 1 1 0.194017 0.00594542 0 0 0 0 0.106278 0.000836833 0 0.0447872 -0.0246793 0 0.106278 0.000836833 0 568.146 568.146 1001.35 
107 1 1 0.202789 0.0138253 0 0 0 0 0.113422 -0.0267639 0 -0.00895683 -0.0247901 0 0.113422 -0.0267639 0 545.774 545.774 1001.29 
108 1 1 0.20818 0.0064921 0 0 0 0 0.122386 0.000663401 0 0.108877 0.0371127 0 0.122386 0.000663401 0 583.219 583.219 1001.38 
109 1 1 0.209251 0.0203899 0 0 0 0 0.138538 -0.0126715 0 0.0639632 -0.0174767 0 0.138538 -0.0126715 0 472.52 472.52 1001.12 
110 1 1 0.216738 0.0132116 0 0 0 0 0.129101 0.0122227 0 0.0649458 0.0738243 0 0.129101 0.0122227 0 524.888 524.888 1001.25 
111 1 1 0.222483 0.00664077 0 0 0 0 0.100892 0.0101056 0 0.0477952 -0.0357378 0 0.100892 0.0101056 0 546.616 546.616 1001.3 
112 1 1 0.233177 0.00840193 0 0 0 0 0.0690073 0.0219722 0 0.0856274 0.0187718 0 0.0690073 0.0219722 0 518.302 518.302 1001.23 
113 1 1 0.243859 0.00665114 0 0 0 0 0.0622984 -0.0135496 0 0.089498 -0.0169447 0 0.0622984 -0.0135496 0 519.642 519.642 1001.23 
114 1 1 0.254054 0.00967455 0 0 0 0 0.055857 0.00466139 0 0.0500952 0.0468292 0 0.055857 0.00466139 0 475.045 475.045 1001.13 
115 1 1 0.254515 0.0193388 0 0 0 0 0.0726739 0.027975 0 0.12002 0.033709 0 0.0726739 0.027975 0 442.467 442.467 1001.05 
116 1 1 0.263023 0.00704753 0 0 0 0 0.0462775 0.00131374 0 0.0235577 -0.00215063 0 0.0462775 0.00131374 0 503.584 503.584 1001.19 
117 1 1 0.273618 0.00817887 0 0 0 0 0.0402585 0.00815353 0 0.0382405 -0.00077105 0 0.0402585 0.00815353 0 490.346 490.346 1001.16 
118 1 1 0.282638 0.00912875 0 0 0 0 0.0251785 0.00779952 0 0.0516224 -0.00753491 0 0.0251785 0.00779952 0 470.011 470.011 1001.12 
119 1 1 0.293038 0.00641091 0 0 0 0 0.0192852 -0.000663893 0 0.0337743 0.00994885 0 0.0192852 -0.000663893 0 491.13 491.13 1001.17 
120 1 1 0.300928 0.0163718 0 0 0 0 0.0374384 0.00444804 0 0.038704 0.0176841 0 0.0374384 0.00444804 0 434.471 434.471 1001.03 
121 1 1 0.30481 0.00794583 0 0 0 0 0.0155941 -0.00177204 0 0.0454022 0.0228235 0 0.0155941 -0.00177204 0 472.088 472.088 1001.12 
122 1 1 0.317002 0.00596037 0 0 0 0 0.0141059 -0.0083745 0 -0.00495905 -0.00130356 0 0.0141059 -0.0083745 0 477.092 477.092 1001.13 
123 1 1 0.33455 0.0145201 0 0 0 0 0.0852147 -0.021196 0 -0.00443521 0.00590532 0 0.0852147 -0.021196 0 426.747 426.747 1001.01 
124 1 1 0.330895 0.00659051 0 0 0 0 0.0328836 -0.000852575 0 0.0294479 -0.0183469 0 0.0328836 -0.000852575 0 467.91 467.91 1001.11 
125 1 1 0.345653 0.00603919 0 0 0 0 0.0541572 -0.0152711 0 0.0313575 0.0319669 0 0.0541572 -0.0152711 0 498.494 498.494 1001.18 
126 1 1 0.356207 0.0142796 0 0 0 0 0.0365383 -0.0112639 0 0.00190693 -0.000196629 0 0.0365383 -0.0112639 0 444.645 444.645 1001.06 
127 1 1 0.360189 0.0062604 0 0 0 0 0.0624238 0.00846068 0 0.00394071 -8.76196e-06 0 0.0624238 0.00846068 0 467.943 467.943 1001.11 
128 1 1 0.373636 0.00658389 0 0 0 0 0.0420632 0.00358841 0 -0.000304346 0.00977224 0 0.0420632 0.00358841 0 489.601 489.601 1001.16 
129 1 1 0.400851 0.00760176 0 0 0 0 0.0326779 0.0113927 0 -0.0211234 -0.00326971 0 0.0326779 0.0113927 0 455.428 455.428 1001.08 
130 1 1 0.411547 0.00778037 0 0 0 0 0.0148157 -0.00294493 0 -0.0464478 -0.00965937 0 0.0148157 -0.00294493 0 432.399 432.399 1001.03 
131 1 1 0.422377 0.00694464 0 0 0 0 0.0263695 -0.0140096 0 -0.000839328 -0.00226941 0 0.0263695 -0.0140096 0 450.898 450.898 1001.07 
132 1 1 0.416115 0.0179563 0 0 0 0 0.0256173 -0.006633 0 -0.0210305 -0.0106628 0 0.0256173 -0.006633 0 416.209 416.209 1000.99 
133 1 1 0.432605 0.00837179 0 0 0 0 0.0348268 0.00963579 0 0.00654821 0.00938483 0 0.0348268 0.00963579 0 425.35 425.35 1001.01 
134 1 1 0.441648 0.0165654 0 0 0 0 0.0370819 -0.00860622 0 0.0367568 -0.0136104 0 0.0370819 -0.00860622 0 404.905 404.905 1000.96 
135 1 1 0.443679 0.0062799 0 0 0 0 0.0298545 -0.00742832 0 -0.00751255 -0.0048277 0 0.0298545 -0.00742832 0 461.749 461.749 1001.1 
136 1 1 0.453203 0.0100124 0 0 0 0 0.0306234 0.00669834 0 0.032034 0.00560655 0 0.0306234 0.00669834 0 421.628 421.628 1001 
137 1 1 0.463609 0.00527805 0 0 0 0 0.0232819 -1.85494e-05 0 -0.0215409 0.024552 0 0.0232819 -1.85494e-05 0 448.074 448.074 1001.06 
138 1 1 0.478688 0.00644733 0 0 0 0 -0.0101814 0.00633975 0 0.034012 0.0101236 0 -0.0101814 0.00633975 0 440.972 440.972 1001.05 
139 1 1 0.492177 0.00596074 0 0 0 0 -0.00389867 -0.00872311 0 0.00667457 0.0101899 0 -0.00389867 -0.00872311 0 440.007 440.007 1001.04 
140 1 1 0.162638 0.0378417 0 0 0 0 0.144087 -0.00183392 0 -0.0316005 -0.0548815 0 0.144087 -0.00183392 0 376.234 376.234 1000.89 
141 1 1 0.163063 0.025057 0 0 0 0 0.123702 -0.0163893 0 0.11853 -0.0709786 0 0.123702 -0.0163893 0 474.828 474.828 1001.13 
142 1 1 0.184973 0.0480972 0 0 0 0 0.190114 0.0573429 0 0.171266 -0.0112504 0 0.190114 0.0573429 0 283.252 283.252 1000.67 
143 1 1 0.182652 0.0335152 0 0 0 0 0.1225 0.0204852 0 0.0811211 -0.0327709 0 0.1225 0.0204852 0 384.611 384.611 1000.91 
144 1 1 0.191331 0.0288201 0 0 0 0 0.119927 -0.00928479 0 0.0174967 -0.0180798 0 0.119927 -0.00928479 0 405.135 405.135 1000.96 
145 1 1 0.184812 0.0202278 0 0 0 0 0.146543 -0.0108965 0 0.0672214 -0.0153572 0 0.146543 -0.0108965 0 526.774 526.774 1001.25 
146 1 1 0.19959 0.0357106 0 0 0 0 0.135373 -0.0136041 0 0.154353 -0.0399937 0 0.135373 -0.0136041 0 403.28 403.28 1000.96 
147 1 1 0.192761 0.0165893 0 0 0 0 0.148684 0.0292891 0 0.130384 -0.0680348 0 0.148684 0.0292891 0 519.139 519.139 1001.23 
148 1 1 0.199735 0.024281 0 0 0 0 0.161832 0.0101333 0 0.0483011 0.0756727 0 0.161832 0.0101333 0 454.058 454.058 1001.08 
149 1 1 0.219387 0.022375 0 0 0 0 0.119154 0.0293757 0 0.0740956 0.0211501 0 0.119154 0.0293757 0 442.34 442.34 1001.05 
150 1 1 0.231999 0.0345139 0 0 0 0 0.102316 0.0403642 0 0.096597 0.062709 0 0.102316 0.0403642 0 334.415 334.415 1000.79 
151 1 1 0.228026 0.0175077 0 0 0 0 0.127028 0.0397233 0 0.0912321 -0.0430869 0 0.127028 0.0397233 0 460.904 460.904 1001.09 
152 1 1 0.227256 0.02796 0 0 0 0 0.138949 0.0159908 0 0.11047 -0.0118626 0 0.138949 0.0159908 0 402.424 402.424 1000.96 
153 1 1 0.237046 0.0177558 0 0 0 0 0.133872 -0.00398075 0 0.0144908 0.00613988 0 0.133872 -0.00398075 0 478.482 478.482 1001.14 
154 1 1 0.264197 0.0180951 0 0 0 0 0.0474832 0.0104757 0 0.0716467 0.00579627 0 0.0474832 0.0104757 0 449.233 449.233 1001.07 
155 1 1 0.282024 0.0182478 0 0 0 0 0.0667469 0.0134841 0 0.0428192 -0.00149159 0 0.0667469 0.0134841 0 415.875 415.875 1000.99 
156 1 1 0.271559 0.0188153 0 0 0 0 0.0503314 -0.000877164 0 0.113232 0.0210237 0 0.0503314 -0.000877164 0 433.536 433.536 1001.03 
157 1 1 0.292253 0.0168651 0 0 0 0 0.0489532 0.00058637 0 0.0326262 0.012605 0 0.0489532 0.00058637 0 416.105 416.105 1000.99 
158 1 1 0.289902 0.0265408 0 0 0 0 0.0613269 0.0263203 0 0.0486205 0.0233768 0 0.0613269 0.0263203 0 344.249 344.249 1000.82 
159 1 1 0.309841 0.02318 0 0 0 0 0.0457276 -0.0247151 0 0.0300058 0.0530053 0 0.0457276 -0.0247151 0 367.39 367.39 1000.87 
160 1 1 0.312769 0.0158236 0 0 0 0 0.0482546 0.00193668 0 0.0274557 0.0193911 0 0.0482546 0.00193668 0 424.075 424.075 1001.01 
161 1 1 0.322736 0.0143121 0 0 0 0 0.0506541 -0.0136507 0 0.0318394 -0.000742054 0 0.0506541 -0.0136507 0 448.115 448.115 1001.06 
162 1 1 0.339909 0.0230894 0 0 0 0 0.0296079 0.0164853 0 -0.0517319 0.0157776 0 0.0296079 0.0164853 0 357.181 357.181 1000.85 
163 1 1 0.34431 0.0144266 0 0 0 0 0.0537758 0.00923589 0 -0.0183165 0.0376459 0 0.0537758 0.00923589 0 426.182 426.182 1001.01 
164 1 1 0.363976 0.0254416 0 0 0 0 0.0690641 -0.0104902 0 -0.00892532 -0.0184668 0 0.0690641 -0.0104902 0 354.302 354.302 1000.84 
165 1 1 0.38871 0.00609913 0 0 0 0 0.0438946 0.000583874 0 -0.0355121 0.0298831 0 0.0438946 0.000583874 0 492.065 492.065 1001.17 
166 1 1 0.366827 0.0150002 0 0 0 0 0.0354168 0.0197581 0 -0.00254649 0.0203733 0 0.0354168 0.0197581 0 403.716 403.716 1000.96 
167 1 1 0.383461 0.0230468 0 0 0 0 0.0790168 -0.00890799 0 0.00766109 -0.0035025 0 0.0790168 -0.00890799 0 375.163 375.163 1000.89 
168 1 1 0.406306 0.0160775 0 0 0 0 0.0386067 0.0280849 0 -0.00578636 0.000568949 0 0.0386067 0.0280849 0 391.027 391.027 1000.93 
169 1 1 0.390324 0.0320186 0 0 0 0 0.0596052 0.0231775 0 0.019067 -0.0420347 0 0.0596052 0.0231775 0 298.673 298.673 1000.71 
170 1 1 0.391883 0.0156522 0 0 0 0 0.0579626 -0.00921016 0 0.0101816 -0.00415513 0 0.0579626 -0.00921016 0 446.02 446.02 1001.06 
171 1 1 0.396265 0.0205212 0 0 0 0 0.0402275 0.0252909 0 0.0683529 0.0863253 0 0.0402275 0.0252909 0 399.42 399.42 1000.95 
172 1 1 0.424222 0.017611 0 0 0 0 0.0380912 -0.0213147 0 0.0153563 -0.0537801 0 0.0380912 -0.0213147 0 404.14 404.14 1000.96 
173 1 1 0.433123 0.0186386 0 0 0 0 0.0311746 0.0128005 0 0.0283095 0.0098551 0 0.0311746 0.0128005 0 382.601 382.601 1000.91 
174 1 1 0.460799 0.0167637 0 0 0 0 0.0136682 0.00276941 0 0.0500877 -0.00275448 0 0.0136682 0.00276941 0 375.242 375.242 1000.89 
175 1 1 0.460135 0.0278035 0 0 0 0 -0.00211117 0.021219 0 0.059795 -0.0336718 0 -0.00211117 0.021219 0 283.096 283.096 1000.67 
176 1 1 0.471349 0.0132944 0 0 0 0 0.0138484 0.0187439 0 0.0292463 -0.0334832 0 0.0138484 0.0187439 0 394.411 394.411 1000.94 
177 1 1 0.483107 0.0144212 0 0 0 0 0.014292 -0.00757227 0 0.0152089 0.0350866 0 0.014292 -0.00757227 0 400.54 400.54 1000.95 
178 1 1 0.491449 0.0178932 0 0 0 0 0.00881964 0.00463864 0 -0.00480173 0.0219982 0 0.00881964 0.00463864 0 369.853 369.853 1000.88 
179 1 1 0.150122 0.0498787 0 0 0 0 0.175021 0.0241969 0 -0.017759 -0.0375914 0 0.175021 0.0241969 0 255.533 255.533 1000.61 
180 1 1 0.170026 0.0325458 0 0 0 0 0.136217 -0.00218827 0 0.0764244 0.120098 0 0.136217 -0.00218827 0 428.468 428.468 1001.02 
181 1 1 0.16958 0.0465711 0 0 0 0 0.122516 -0.0439684 0 0.0550109 -0.00832244 0 0.122516 -0.0439684 0 300.914 300.914 1000.71 
182 1 1 0.177007 0.0423227 0 0 0 0 0.157513 0.00938563 0 0.0179556 -0.145424 0 0.157513 0.00938563 0 281.601 281.601 1000.67 
183 1 1 0.187629 0.0604473 0 0 0 0 0.216026 0.00445339 0 0.100718 -0.123563 0 0.216026 0.00445339 0 193.588 193.588 1000.46 
184 1 1 0.177242 0.0557811 0 0 0 0 0.183841 -0.0200817 0 0.0553653 -0.0816586 0 0.183841 -0.0200817 0 278.448 278.448 1000.66 
185 1 1 0.190606 0.0408113 0 0 0 0 0.125891 0.00374807 0 0.0615736 0.0138775 0 0.125891 0.00374807 0 380.902 380.902 1000.9 
186 1 1 0.209725 0.0307013 0 0 0 0 0.134056 0.0170003 0 0.0475389 -0.0663243 0 0.134056 0.0170003 0 405.59 405.59 1000.96 
187 1 1 0.216961 0.0342226 0 0 0 0 0.122859 0.023247 0 0.169895 0.00712518 0 0.122859 0.023247 0 365.082 365.082 1000.87 
188 1 1 0.222007 0.0416324 0 0 0 0 0.0901305 0.0292766 0 0.0965442 -0.0289439 0 0.0901305 0.0292766 0 298.82 298.82 1000.71 
189 1 1 0.242346 0.0392093 0 0 0 0 0.10462 0.0553608 0 0.125082 -0.0101526 0 0.10462 0.0553608 0 280.426 280.426 1000.67 
190 1 1 0.245688 0.0175318 0 0 0 0 0.093915 0.0351668 0 0.0756667 0.0256652 0 0.093915 0.0351668 0 474.776 474.776 1001.13 
191 1 1 0.25385 0.0372295 0 0 0 0 0.0965968 0.0726429 0 0.0334105 0.0281347 0 0.0965968 0.0726429 0 281.3 281.3 1000.67 
192 1 1 0.248242 0.0291937 0 0 0 0 0.0983767 0.0501091 0 0.102069 0.00473691 0 0.0983767 0.0501091 0 353.895 353.895 1000.84 
193 1 1 0.278267 0.0275295 0 0 0 0 0.0815414 0.00594745 0 0.0776066 0.0629168 0 0.0815414 0.00594745 0 359.512 359.512 1000.85 
194 1 1 0.261338 0.0422976 0 0 0 0 0.0939669 0.0240426 0 0.109601 0.00230061 0 0.0939669 0.0240426 0 275.855 275.855 1000.66 
195 1 1 0.287088 0.0352041 0 0 0 0 0.0728096 0.0156486 0 0.0479856 0.03809 0 0.0728096 0.0156486 0 279.78 279.78 1000.66 
196 1 1 0.299753 0.027309 0 0 0 0 0.06969 0.00920192 0 0.0253011 0.00819507 0 0.06969 0.00920192 0 329.421 329.421 1000.78 
197 1 1 0.308376 0.034723 0 0 0 0 0.0636126 -0.00591439 0 0.0300768 -0.0143 0 0.0636126 -0.00591439 0 267.956 267.956 1000.64 
198 1 1 0.318072 0.0287769 0 0 0 0 0.0612849 0.0214272 0 0.0291845 0.00835619 0 0.0612849 0.0214272 0 315.719 315.719 1000.75 
199 1 1 0.330099 0.0290147 0 0 0 0 0.039291 -0.033219 0 0.00787272 0.0711793 0 0.039291 -0.033219 0 322.069 322.069 1000.77 
200 1 1 0.325801 0.0220667 0 0 0 0 0.0287922 -0.0392683 0 0.0460052 0.00838119 0 0.0287922 -0.0392683 0 386.483 386.483 1000.92 
201 1 1 0.352906 0.0211423 0 0 0 0 0.0457221 0.00606922 0 -0.010357 0.0255834 0 0.0457221 0.00606922 0 386.672 386.672 1000.92 
202 1 1 0.336682 0.0379674 0 0 0 0 0.0550399 -0.00550156 0 0.0369383 0.0163903 0 0.0550399 -0.00550156 0 255.586 255.586 1000.61 
203 1 1 0.353585 0.0305797 0 0 0 0 0.0737983 -0.0193611 0 -0.00337047 0.0336183 0 0.0737983 -0.0193611 0 302.906 302.906 1000.72 
204 1 1 0.362076 0.0359507 0 0 0 0 0.0805165 -0.00922442 0 0.0131973 0.030829 0 0.0805165 -0.00922442 0 253.412 253.412 1000.6 
205 1 1 0.380472 0.0134047 0 0 0 0 0.0294473 -0.0140662 0 -0.0146309 0.0353362 0 0.0294473 -0.0140662 0 452.491 452.491 1001.07 
206 1 1 0.373285 0.0203908 0 0 0 0 0.0754034 0.00882612 0 0.0142711 0.0040194 0 0.0754034 0.00882612 0 370.728 370.728 1000.88 
207 1 1 0.406206 0.0392555 0 0 0 0 0.116499 0.00893044 0 0.0693795 -0.074757 0 0.116499 0.00893044 0 236.825 236.825 1000.56 
208 1 1 0.424347 0.0282818 0 0 0 0 0.034905 -0.0153905 0 0.0572646 -0.0335618 0 0.034905 -0.0153905 0 303.081 303.081 1000.72 
209 1 1 0.404829 0.0267015 0 0 0 0 0.0249436 0.0385501 0 0.0251349 0.000611396 0 0.0249436 0.0385501 0 329.495 329.495 1000.78 
210 1 1 0.432177 0.0313422 0 0 0 0 0.040131 0.0121334 0 0.0530113 -0.0247959 0 0.040131 0.0121334 0 263.478 263.478 1000.63 
211 1 1 0.412269 0.0284524 0 0 0 0 0.0676639 -0.0254985 0 0.0724908 0.00884626 0 0.0676639 -0.0254985 0 327.572 327.572 1000.78 
212 1 1 0.441284 0.0268361 0 0 0 0 0.0244871 0.00274652 0 0.0264368 0.0370701 0 0.0244871 0.00274652 0 332.447 332.447 1000.79 
213 1 1 0.451603 0.0189472 0 0 0 0 0.0199918 0.0162213 0 0.000316027 0.0168936 0 0.0199918 0.0162213 0 375.983 375.983 1000.89 
214 1 1 0.46542 0.0348295 0 0 0 0 0.00582872 0.0114765 0 0.00630006 -0.0158981 0 0.00582872 0.0114765 0 221.013 221.013 1000.53 
215 1 1 0.481724 0.0236148 0 0 0 0 0.0192606 0.000250948 0 -0.0403417 0.0361998 0 0.0192606 0.000250948 0 341.429 341.429 1000.81 
216 1 1 0.469738 0.0208088 0 0 0 0 0.00641484 0.0206253 0 0.0208053 0.00808692 0 0.00641484 0.0206253 0 348.657 348.657 1000.83 
217 1 1 0.490327 0.0297302 0 0 0 0 -0.00243268 0.0194637 0 0.00449571 0.00974651 0 -0.00243268 0.0194637 0 264.613 264.613 1000.63 
218 1 1 0.15998 0.0590073 0 0 0 0 0.220965 -0.0151454 0 0.042176 -0.0286543 0 0.220965 -0.0151454 0 237.624 237.624 1000.56 
219 1 1 0.122926 0.0593816 0 0 0 0 0.13081 -0.0104819 0 0.181226 0.0187937 0 0.13081 -0.0104819 0 222.061 222.061 1000.53 
220 1 1 0.141821 0.0554325 0 0 0 0 0.180454 -0.000429007 0 0.136603 -0.0813813 0 0.180454 -0.000429007 0 227.507 227.507 1000.54 
221 1 1 0.169688 0.0610748 0 0 0 0 0.264724 0.00527904 0 -0.0568822 -0.162833 0 0.264724 0.00527904 0 206.105 206.105 1000.49 
222 1 1 0.159773 0.048265 0 0 0 0 0.147338 0.0215216 0 0.0369605 -0.0387984 0 0.147338 0.0215216 0 285.401 285.401 1000.68 
223 1 1 0.198471 0.0485025 0 0 0 0 0.128572 -0.0382085 0 0.0757194 -0.0920496 0 0.128572 -0.0382085 0 264.662 264.662 1000.63 
224 1 1 0.207007 0.041724 0 0 0 0 0.116076 0.0220695 0 0.154923 0.017368 0 0.116076 0.0220695 0 268.06 268.06 1000.64 
225 1 1 0.213471 0.048999 0 0 0 0 0.123021 0.0659979 0 0.119966 -0.0494045 0 0.123021 0.0659979 0 221.039 221.039 1000.53 
226 1 1 0.22144 0.0538564 0 0 0 0 0.118551 0.0482053 0 0.125844 0.0140085 0 0.118551 0.0482053 0 200.856 200.856 1000.48 
227 1 1 0.239418 0.0278785 0 0 0 0 0.114111 0.0455789 0 0.0803495 -0.00646777 0 0.114111 0.0455789 0 359.179 359.179 1000.85 
228 1 1 0.231211 0.04534 0 0 0 0 0.0850669 0.0291841 0 0.191944 0.0317815 0 0.0850669 0.0291841 0 254.081 254.081 1000.6 
229 1 1 0.244131 0.0473714 0 0 0 0 0.0491244 0.0634227 0 0.152746 0.0314512 0 0.0491244 0.0634227 0 203.749 203.749 1000.48 
230 1 1 0.259652 0.0286116 0 0 0 0 0.0742801 0.0436356 0 0.125132 0.0488537 0 0.0742801 0.0436356 0 325.148 325.148 1000.77 
231 1 1 0.268 0.0310516 0 0 0 0 0.0949068 -0.0219472 0 0.035397 0.0469101 0 0.0949068 -0.0219472 0 332.448 332.448 1000.79 
232 1 1 0.27543 0.0373556 0 0 0 0 0.061681 0.0222569 0 0.0165855 0.0394686 0 0.061681 0.0222569 0 255.574 255.574 1000.61 
233 1 1 0.299036 0.0373323 0 0 0 0 0.0698146 0.0174773 0 0.016006 0.0373335 0 0.0698146 0.0174773 0 267.939 267.939 1000.64 
234 1 1 0.281353 0.0455296 0 0 0 0 0.0407653 0.0236194 0 0.0641794 0.0720293 0 0.0407653 0.0236194 0 189.994 189.994 1000.45 
235 1 1 0.292016 0.0449894 0 0 0 0 0.0618197 0.00663894 0 -0.0163545 0.0538475 0 0.0618197 0.00663894 0 196.379 196.379 1000.47 