ITEM: TIMESTEP
142000
ITEM: NUMBER OF ATOMS
754
ITEM: BOX BOUNDS ff ff pp
-0.021 0.521
-0.021 0.5
-0.001 0.001
ITEM: ATOMS id type type x y z ix iy iz vx vy vz fx fy fz vx vy vz p p rho 
1 1 1 0.00750116 0.00496815 0 0 0 0 0.00190146 -0.00199458 0 0.028886 -0.0117396 0 0.00190146 -0.00199458 0 575.418 575.418 1001.36 
2 1 1 0.0236366 0.00531815 0 0 0 0 0.044516 -0.0158061 0 0.0347348 -0.0011143 0 0.044516 -0.0158061 0 594.144 594.144 1001.41 
3 1 1 0.0522573 0.00734009 0 0 0 0 0.0921138 -0.0339743 0 -0.0511146 0.0675311 0 0.0921138 -0.0339743 0 595.971 595.971 1001.41 
4 1 1 0.0651722 0.00584125 0 0 0 0 0.113819 0.00318363 0 -0.0578663 0.00690817 0 0.113819 0.00318363 0 582.867 582.867 1001.38 
5 1 1 0.0814448 0.00644987 0 0 0 0 0.12078 0.00802215 0 -0.0252785 -0.0540825 0 0.12078 0.00802215 0 588.965 588.965 1001.4 
6 1 1 0.0981125 0.00640084 0 0 0 0 0.139605 0.00171782 0 0.0275702 0.0441043 0 0.139605 0.00171782 0 605.365 605.365 1001.44 
7 1 1 0.130952 0.00719186 0 0 0 0 0.15131 0.0160946 0 -0.0798731 -0.0083149 0 0.15131 0.0160946 0 580.726 580.726 1001.38 
8 1 1 0.11788 0.0181139 0 0 0 0 0.163773 -0.0334356 0 0.0417678 -0.0304537 0 0.163773 -0.0334356 0 540.079 540.079 1001.28 
9 1 1 0.15415 0.00747349 0 0 0 0 0.124495 -0.00446932 0 -0.0201827 0.0295821 0 0.124495 -0.00446932 0 586.989 586.989 1001.39 
10 1 1 0.164933 0.00722988 0 0 0 0 0.113253 0.00792105 0 0.0248542 -0.0366373 0 0.113253 0.00792105 0 553.069 553.069 1001.31 
11 1 1 0.0231176 0.0176308 0 0 0 0 0.00783392 -0.0488586 0 0.0171838 0.0425985 0 0.00783392 -0.0488586 0 535.386 535.386 1001.27 
12 1 1 0.0400473 0.00613453 0 0 0 0 0.0360611 0.00939107 0 -0.0260983 -0.00669088 0 0.0360611 0.00939107 0 576.974 576.974 1001.37 
13 1 1 0.0517418 0.0154899 0 0 0 0 0.0664412 -0.0493571 0 -0.0201714 -0.0252592 0 0.0664412 -0.0493571 0 539.88 539.88 1001.28 
14 1 1 0.0735891 0.0119742 0 0 0 0 0.0644526 -0.0120312 0 -0.0269884 0.015778 0 0.0644526 -0.0120312 0 577.485 577.485 1001.37 
15 1 1 0.0893131 0.011578 0 0 0 0 0.117509 -0.0214464 0 -0.0146586 0.022163 0 0.117509 -0.0214464 0 585.872 585.872 1001.39 
16 1 1 0.118788 0.00668277 0 0 0 0 0.139973 -0.0287502 0 0.0103612 0.080814 0 0.139973 -0.0287502 0 600.642 600.642 1001.42 
17 1 1 0.120271 0.027704 0 0 0 0 0.119882 -0.0165604 0 -0.0800884 -0.0207301 0 0.119882 -0.0165604 0 458.01 458.01 1001.09 
18 1 1 0.142026 0.00717804 0 0 0 0 0.133527 0.00379499 0 0.0180003 -0.0479337 0 0.133527 0.00379499 0 576.501 576.501 1001.37 
19 1 1 0.158837 0.0174245 0 0 0 0 0.160014 0.00676221 0 0.000551598 -0.0759431 0 0.160014 0.00676221 0 525.32 525.32 1001.25 
20 1 1 0.149724 0.0247671 0 0 0 0 0.130497 -0.0378124 0 0.0354325 -0.0247875 0 0.130497 -0.0378124 0 473.287 473.287 1001.12 
21 1 1 0.0204138 0.0301275 0 0 0 0 0.0227672 -0.0281406 0 0.089409 0.0153084 0 0.0227672 -0.0281406 0 448.252 448.252 1001.06 
22 1 1 0.0311107 0.0126552 0 0 0 0 0.0330774 0.00265539 0 0.00831378 0.0136384 0 0.0330774 0.00265539 0 540.708 540.708 1001.28 
23 1 1 0.0398119 0.0153162 0 0 0 0 0.0945629 -0.0249715 0 0.093076 0.0313475 0 0.0945629 -0.0249715 0 553.837 553.837 1001.31 
24 1 1 0.0638868 0.0373706 0 0 0 0 0.12108 -0.120213 0 0.0240221 -0.0368173 0 0.12108 -0.120213 0 388.924 388.924 1000.92 
25 1 1 0.061781 0.0241812 0 0 0 0 0.0293602 -0.0245387 0 0.0152107 0.04568 0 0.0293602 -0.0245387 0 488.018 488.018 1001.16 
26 1 1 0.108901 0.00898304 0 0 0 0 0.117703 0.00799614 0 -0.0140603 -0.0372909 0 0.117703 0.00799614 0 577.24 577.24 1001.37 
27 1 1 0.109762 0.0187418 0 0 0 0 0.142316 -0.00944623 0 -0.0818224 -0.0040005 0 0.142316 -0.00944623 0 515.136 515.136 1001.22 
28 1 1 0.138453 0.0162882 0 0 0 0 0.139858 0.0171379 0 0.0185272 0.0042541 0 0.139858 0.0171379 0 516.579 516.579 1001.23 
29 1 1 0.148665 0.0155233 0 0 0 0 0.146819 0.00821865 0 0.0125441 0.0106467 0 0.146819 0.00821865 0 549.333 549.333 1001.3 
30 1 1 0.157558 0.0293242 0 0 0 0 0.138886 0.0111935 0 0.0520938 -0.0317477 0 0.138886 0.0111935 0 432.713 432.713 1001.03 
31 1 1 0.0160769 0.0123817 0 0 0 0 -0.0173596 -0.024318 0 -0.0307346 -0.0152822 0 -0.0173596 -0.024318 0 540.394 540.394 1001.28 
32 1 1 0.030444 0.0242927 0 0 0 0 0.0237441 -0.0585918 0 -0.0644137 -0.0988319 0 0.0237441 -0.0585918 0 475.662 475.662 1001.13 
33 1 1 0.0549882 0.0340068 0 0 0 0 0.0693124 -0.00727449 0 -0.0361388 0.0577905 0 0.0693124 -0.00727449 0 391.916 391.916 1000.93 
34 1 1 0.0719123 0.0191905 0 0 0 0 0.0996744 -0.00634687 0 -0.0917155 0.0150302 0 0.0996744 -0.00634687 0 519.68 519.68 1001.23 
35 1 1 0.100391 0.0269467 0 0 0 0 0.123139 0.013683 0 -0.0106451 0.058039 0 0.123139 0.013683 0 455.471 455.471 1001.08 
36 1 1 0.110214 0.0295127 0 0 0 0 0.127032 -0.0380687 0 -0.0172899 0.0454642 0 0.127032 -0.0380687 0 442.504 442.504 1001.05 
37 1 1 0.12681 0.0151147 0 0 0 0 0.136777 -0.00142229 0 0.0154125 0.0599883 0 0.136777 -0.00142229 0 569.513 569.513 1001.35 
38 1 1 0.140254 0.0258814 0 0 0 0 0.157395 0.0387201 0 0.00841313 -0.0586953 0 0.157395 0.0387201 0 459.529 459.529 1001.09 
39 1 1 0.154653 0.0389018 0 0 0 0 0.140397 -0.032249 0 0.0778347 0.0381246 0 0.140397 -0.032249 0 371.965 371.965 1000.88 
40 1 1 0.12426 0.0451574 0 0 0 0 0.13588 -0.00923761 0 0.0378907 0.00922393 0 0.13588 -0.00923761 0 320.036 320.036 1000.76 
41 1 1 0.00792555 0.0173686 0 0 0 0 -0.00788997 0.00874646 0 0.0316727 0.0024219 0 -0.00788997 0.00874646 0 491.2 491.2 1001.17 
42 1 1 0.0256368 0.0489771 0 0 0 0 0.0698648 -0.0633756 0 -0.00502577 -0.0797121 0 0.0698648 -0.0633756 0 302.309 302.309 1000.72 
43 1 1 0.0424168 0.0227972 0 0 0 0 0.0443028 -0.0235133 0 0.00562976 0.0556411 0 0.0443028 -0.0235133 0 501.038 501.038 1001.19 
44 1 1 0.0593323 0.0457638 0 0 0 0 0.153793 -0.0851907 0 0.042681 0.122138 0 0.153793 -0.0851907 0 323.781 323.781 1000.77 
45 1 1 0.0821138 0.0201261 0 0 0 0 0.128862 -0.073016 0 -0.00888623 -0.0375169 0 0.128862 -0.073016 0 525.486 525.486 1001.25 
46 1 1 0.0891374 0.0308693 0 0 0 0 0.0750026 -0.0251282 0 0.0073121 -0.0469983 0 0.0750026 -0.0251282 0 433.537 433.537 1001.03 
47 1 1 0.130407 0.023195 0 0 0 0 0.149001 0.00168931 0 -0.0346076 0.00769231 0 0.149001 0.00168931 0 486.893 486.893 1001.16 
48 1 1 0.145934 0.0358072 0 0 0 0 0.136028 0.0276672 0 0.0100937 -0.104341 0 0.136028 0.0276672 0 374.127 374.127 1000.89 
49 1 1 0.14344 0.0442142 0 0 0 0 0.164022 0.019108 0 -0.0194902 -0.0372297 0 0.164022 0.019108 0 310.221 310.221 1000.74 
50 1 1 0.120812 0.0667081 0 0 0 0 0.212212 0.0103495 0 -0.0205931 -0.105923 0 0.212212 0.0103495 0 186.746 186.746 1000.44 
51 1 1 0.0139197 0.0238496 0 0 0 0 0.0628061 -0.0210531 0 -0.0136159 0.00821607 0 0.0628061 -0.0210531 0 471.555 471.555 1001.12 
52 1 1 0.0330612 0.0308983 0 0 0 0 0.0440409 -0.0517535 0 0.00715315 0.10033 0 0.0440409 -0.0517535 0 431.262 431.262 1001.02 
53 1 1 0.0515336 0.0257984 0 0 0 0 0.0505273 -0.0260701 0 -0.0568706 0.0195369 0 0.0505273 -0.0260701 0 459.406 459.406 1001.09 
54 1 1 0.0701119 0.0301933 0 0 0 0 0.133686 -0.0441423 0 -0.013467 0.0859211 0 0.133686 -0.0441423 0 457.941 457.941 1001.09 
55 1 1 0.078414 0.0402489 0 0 0 0 0.12037 -0.0249848 0 0.0122492 -0.00921683 0 0.12037 -0.0249848 0 368.078 368.078 1000.87 
56 1 1 0.0898601 0.0396083 0 0 0 0 0.118683 -0.00221841 0 -0.0706108 -0.00093779 0 0.118683 -0.00221841 0 376.586 376.586 1000.89 
57 1 1 0.115726 0.0386383 0 0 0 0 0.152257 -0.0296867 0 0.000963478 -0.0766902 0 0.152257 -0.0296867 0 396.213 396.213 1000.94 
58 1 1 0.108284 0.0428257 0 0 0 0 0.142116 -0.033724 0 -0.0534361 0.0235878 0 0.142116 -0.033724 0 377.97 377.97 1000.9 
59 1 1 0.133619 0.046472 0 0 0 0 0.152582 0.00570286 0 -0.0109351 -0.152088 0 0.152582 0.00570286 0 318.37 318.37 1000.76 
60 1 1 0.135694 0.0562804 0 0 0 0 0.0823016 -0.032227 0 -0.0299351 0.048992 0 0.0823016 -0.032227 0 247.005 247.005 1000.59 
61 1 1 0.0431093 0.0341675 0 0 0 0 0.050444 -0.0485583 0 -0.00636952 -0.00403105 0 0.050444 -0.0485583 0 405.491 405.491 1000.96 
62 1 1 0.00888064 0.0322324 0 0 0 0 -0.0201774 -0.0498295 0 0.00184616 -0.0345453 0 -0.0201774 -0.0498295 0 417.871 417.871 1000.99 
63 1 1 0.0611106 0.0153706 0 0 0 0 0.0854384 0.0291625 0 0.0684521 -0.0196171 0 0.0854384 0.0291625 0 512.403 512.403 1001.22 
64 1 1 0.0392238 0.0487889 0 0 0 0 0.0673428 -0.0770617 0 -0.0610021 0.163775 0 0.0673428 -0.0770617 0 271.009 271.009 1000.64 
65 1 1 0.0712488 0.0459285 0 0 0 0 0.125567 -0.0387728 0 -0.0411426 -0.0152018 0 0.125567 -0.0387728 0 310.887 310.887 1000.74 
66 1 1 0.100585 0.0168456 0 0 0 0 0.126517 -0.000702076 0 -0.0177785 -0.0568616 0 0.126517 -0.000702076 0 542.644 542.644 1001.29 
67 1 1 0.100203 0.035746 0 0 0 0 0.104551 -0.012002 0 -0.00418869 0.0365282 0 0.104551 -0.012002 0 404.63 404.63 1000.96 
68 1 1 0.126657 0.0344916 0 0 0 0 0.147071 -0.0125174 0 0.0138744 -0.0164603 0 0.147071 -0.0125174 0 417.011 417.011 1000.99 
69 1 1 0.135206 0.0345814 0 0 0 0 0.125372 0.00445924 0 0.0547888 0.0472544 0 0.125372 0.00445924 0 412.833 412.833 1000.98 
70 1 1 0.142317 0.0668743 0 0 0 0 0.265133 -0.0801061 0 -0.0582434 -0.0402117 0 0.265133 -0.0801061 0 245.265 245.265 1000.58 
71 1 1 0.0116022 0.0494222 0 0 0 0 0.0133083 -0.0943471 0 0.0807995 0.00765379 0 0.0133083 -0.0943471 0 302.343 302.343 1000.72 
72 1 1 0.0327447 0.0632042 0 0 0 0 -0.00188169 -0.134678 0 0.00971203 0.185608 0 -0.00188169 -0.134678 0 216.132 216.132 1000.51 
73 1 1 0.022656 0.0390079 0 0 0 0 0.0266609 -0.0470104 0 -0.00712546 -0.0349123 0 0.0266609 -0.0470104 0 386.655 386.655 1000.92 
74 1 1 0.0467156 0.0419978 0 0 0 0 0.0724104 -0.0364071 0 0.0468873 0.00874439 0 0.0724104 -0.0364071 0 355.206 355.206 1000.84 
75 1 1 0.0692244 0.055217 0 0 0 0 0.0810729 -0.0513499 0 -0.222902 0.0516074 0 0.0810729 -0.0513499 0 246.825 246.825 1000.59 
76 1 1 0.0913947 0.0204643 0 0 0 0 0.160435 0.00623929 0 -0.0768865 -0.0199138 0 0.160435 0.00623929 0 510.445 510.445 1001.21 
77 1 1 0.0789871 0.0300775 0 0 0 0 0.129451 -0.0614835 0 0.0679473 -5.47791e-05 0 0.129451 -0.0614835 0 468.297 468.297 1001.11 
78 1 1 0.109466 0.0561542 0 0 0 0 0.156554 -0.00674113 0 0.0062809 -0.0223042 0 0.156554 -0.00674113 0 240.753 240.753 1000.57 
79 1 1 0.117977 0.0520429 0 0 0 0 0.0856283 -0.0490354 0 -0.0761248 -0.0900126 0 0.0856283 -0.0490354 0 254.913 254.913 1000.61 
80 1 1 0.116474 0.075014 0 0 0 0 0.242342 -0.00631083 0 -0.0790476 -0.006661 0 0.242342 -0.00631083 0 114.721 114.721 1000.27 
81 1 1 0.012354 0.0416337 0 0 0 0 0.0289635 -0.0510445 0 -0.0147815 -0.0398854 0 0.0289635 -0.0510445 0 366.779 366.779 1000.87 
82 1 1 0.0118975 0.0588949 0 0 0 0 -0.0249371 -0.0887472 0 0.0634732 -0.0440688 0 -0.0249371 -0.0887472 0 230.845 230.845 1000.55 
83 1 1 0.0331049 0.041246 0 0 0 0 0.0393249 -0.0787324 0 0.125024 0.0761672 0 0.0393249 -0.0787324 0 353.207 353.207 1000.84 
84 1 1 0.0253458 0.0573173 0 0 0 0 0.0457588 -0.0557676 0 -0.148383 0.125348 0 0.0457588 -0.0557676 0 319.706 319.706 1000.76 
85 1 1 0.0527773 0.0520211 0 0 0 0 0.092605 -0.117632 0 0.0997814 0.00844021 0 0.092605 -0.117632 0 320.319 320.319 1000.76 
86 1 1 0.0811911 0.0516285 0 0 0 0 0.106199 -0.0506191 0 -0.0111743 0.0633088 0 0.106199 -0.0506191 0 269.134 269.134 1000.64 
87 1 1 0.0911748 0.0485751 0 0 0 0 0.148173 -0.0182931 0 -0.1218 0.0516366 0 0.148173 -0.0182931 0 307.87 307.87 1000.73 
88 1 1 0.0943323 0.0601633 0 0 0 0 0.197673 -0.0141631 0 0.0368913 0.0700042 0 0.197673 -0.0141631 0 231.257 231.257 1000.55 
89 1 1 0.100816 0.0488394 0 0 0 0 0.140616 -0.050146 0 -0.0699401 -0.00240613 0 0.140616 -0.050146 0 319.237 319.237 1000.76 
90 1 1 0.105619 0.0640302 0 0 0 0 0.202449 0.00206055 0 -0.00214656 -0.0406519 0 0.202449 0.00206055 0 197.014 197.014 1000.47 
91 1 1 0.0412343 0.0714636 0 0 0 0 0.224487 -0.168136 0 0.101619 0.228973 0 0.224487 -0.168136 0 190.303 190.303 1000.45 
92 1 1 0.0195784 0.0722369 0 0 0 0 0.103923 -0.173261 0 0.157589 -0.0595079 0 0.103923 -0.173261 0 88.5292 88.5292 1000.21 
93 1 1 0.0134338 0.0678322 0 0 0 0 -0.0223747 -0.115687 0 -0.0901422 -0.0407852 0 -0.0223747 -0.115687 0 85.0843 85.0843 1000.2 
94 1 1 0.0553024 0.0618371 0 0 0 0 0.0934974 -0.10352 0 0.106994 0.123423 0 0.0934974 -0.10352 0 275.631 275.631 1000.65 
95 1 1 0.0601004 0.073164 0 0 0 0 0.181361 -0.0932735 0 -0.00448537 0.183582 0 0.181361 -0.0932735 0 241.336 241.336 1000.57 
96 1 1 0.0805049 0.0746659 0 0 0 0 0.157874 -0.0750614 0 -0.00861016 0.0485628 0 0.157874 -0.0750614 0 198.313 198.313 1000.47 
97 1 1 0.0431315 0.0584411 0 0 0 0 0.113418 -0.0710736 0 -0.0851673 -0.0662636 0 0.113418 -0.0710736 0 213.883 213.883 1000.51 
98 1 1 0.071153 0.0637181 0 0 0 0 0.155661 -0.0625716 0 -0.0343296 0.0601356 0 0.155661 -0.0625716 0 219.79 219.79 1000.52 
99 1 1 0.0852722 0.0630246 0 0 0 0 0.18533 -0.0850593 0 -0.071191 -0.0131198 0 0.18533 -0.0850593 0 234.321 234.321 1000.56 
100 1 1 0.100667 0.0750597 0 0 0 0 0.112241 -0.0621574 0 -0.249772 0.0284593 0 0.112241 -0.0621574 0 198.756 198.756 1000.47 
101 1 1 0.168999 0.015499 0 0 0 0 0.161256 8.92855e-05 0 -0.00938351 0.00177639 0 0.161256 8.92855e-05 0 541.537 541.537 1001.28 
102 1 1 0.177575 0.0174413 0 0 0 0 0.159014 0.00198695 0 -0.00532343 -0.0411117 0 0.159014 0.00198695 0 538.694 538.694 1001.28 
103 1 1 0.179067 0.0265274 0 0 0 0 0.145335 -0.00702906 0 -0.00250546 -0.0741556 0 0.145335 -0.00702906 0 461.062 461.062 1001.09 
104 1 1 0.177241 0.00672333 0 0 0 0 0.124245 -0.0228461 0 0.0553927 -0.0166247 0 0.124245 -0.0228461 0 577.279 577.279 1001.37 
105 1 1 0.186575 0.0100128 0 0 0 0 0.130363 0.0160487 0 0.0299627 0.0556512 0 0.130363 0.0160487 0 560.564 560.564 1001.33 
106 1 1 0.196245 0.00590087 0 0 0 0 0.114765 -0.00518808 0 0.0340107 -0.0125542 0 0.114765 -0.00518808 0 582.416 582.416 1001.38 
107 1 1 0.205073 0.0132561 0 0 0 0 0.116955 -0.0269035 0 0.0446023 0.0243191 0 0.116955 -0.0269035 0 554.888 554.888 1001.32 
108 1 1 0.210862 0.00654543 0 0 0 0 0.143514 0.00260514 0 0.0462996 -0.0185515 0 0.143514 0.00260514 0 570.59 570.59 1001.35 
109 1 1 0.212123 0.0200549 0 0 0 0 0.147008 -0.0218777 0 0.0153985 -0.0601024 0 0.147008 -0.0218777 0 490.781 490.781 1001.16 
110 1 1 0.219464 0.0136038 0 0 0 0 0.144409 0.0265517 0 0.0765257 0.0400662 0 0.144409 0.0265517 0 515.249 515.249 1001.22 
111 1 1 0.224642 0.00676514 0 0 0 0 0.116658 0.00263474 0 0.0790668 -0.0318883 0 0.116658 0.00263474 0 543.217 543.217 1001.29 
112 1 1 0.234786 0.00887227 0 0 0 0 0.0925574 0.02407 0 0.105999 0.00101377 0 0.0925574 0.02407 0 520.219 520.219 1001.23 
113 1 1 0.245327 0.00635802 0 0 0 0 0.0849309 -0.0142493 0 0.10752 0.016029 0 0.0849309 -0.0142493 0 534.001 534.001 1001.27 
114 1 1 0.255288 0.00989918 0 0 0 0 0.0680335 0.0181268 0 0.0506589 0.0580987 0 0.0680335 0.0181268 0 494.823 494.823 1001.17 
115 1 1 0.256271 0.0199592 0 0 0 0 0.104298 0.0343897 0 0.146935 0.0231282 0 0.104298 0.0343897 0 447.947 447.947 1001.06 
116 1 1 0.264039 0.00705087 0 0 0 0 0.0558592 -0.00189774 0 0.0536311 -0.021686 0 0.0558592 -0.00189774 0 504.518 504.518 1001.2 
117 1 1 0.27451 0.00834177 0 0 0 0 0.0496656 0.00783412 0 0.0476447 -0.00524816 0 0.0496656 0.00783412 0 494.815 494.815 1001.17 
118 1 1 0.283285 0.00927857 0 0 0 0 0.0406222 0.00777159 0 0.0773948 0.00776917 0 0.0406222 0.00777159 0 479.927 479.927 1001.14 
119 1 1 0.293532 0.0063914 0 0 0 0 0.0308783 -0.00233204 0 0.0654195 -0.0212911 0 0.0308783 -0.00233204 0 490.963 490.963 1001.16 
120 1 1 0.301768 0.0164716 0 0 0 0 0.0466759 0.00531622 0 0.0419867 -0.00491963 0 0.0466759 0.00531622 0 433.032 433.032 1001.03 
121 1 1 0.30524 0.00797059 0 0 0 0 0.0283585 0.00497258 0 0.0611396 0.0321674 0 0.0283585 0.00497258 0 481.448 481.448 1001.14 
122 1 1 0.317276 0.00580908 0 0 0 0 0.0138031 -0.00604455 0 0.00859738 0.0173857 0 0.0138031 -0.00604455 0 483.252 483.252 1001.15 
123 1 1 0.336204 0.0141266 0 0 0 0 0.07923 -0.0169749 0 -0.0411406 0.0248176 0 0.07923 -0.0169749 0 437.398 437.398 1001.04 
124 1 1 0.331626 0.00652205 0 0 0 0 0.0406684 -0.00643966 0 0.0370984 -0.0258047 0 0.0406684 -0.00643966 0 483.699 483.699 1001.15 
125 1 1 0.346811 0.00580071 0 0 0 0 0.0610252 -0.00805477 0 0.0288865 0.0272369 0 0.0610252 -0.00805477 0 484.842 484.842 1001.15 
126 1 1 0.356924 0.014049 0 0 0 0 0.0352241 -0.0115387 0 -0.0104582 -0.000893373 0 0.0352241 -0.0115387 0 438.691 438.691 1001.04 
127 1 1 0.361415 0.00642647 0 0 0 0 0.0597165 0.00801815 0 -0.0215724 -0.00493253 0 0.0597165 0.00801815 0 469.35 469.35 1001.11 
128 1 1 0.374474 0.00664498 0 0 0 0 0.0406484 0.00246753 0 -0.00726175 -0.0132186 0 0.0406484 0.00246753 0 476.905 476.905 1001.13 
129 1 1 0.401437 0.0078184 0 0 0 0 0.0266168 0.0104568 0 -0.0288349 -0.00516484 0 0.0266168 0.0104568 0 460.096 460.096 1001.09 
130 1 1 0.41176 0.00771294 0 0 0 0 0.00690891 -0.00310505 0 -0.0216393 0.00764611 0 0.00690891 -0.00310505 0 443.59 443.59 1001.05 
131 1 1 0.422889 0.00665878 0 0 0 0 0.0246139 -0.0145604 0 -0.0141304 -0.00183082 0 0.0246139 -0.0145604 0 458.889 458.889 1001.09 
132 1 1 0.416606 0.017779 0 0 0 0 0.0237211 -0.0118022 0 0.00451982 -0.0348491 0 0.0237211 -0.0118022 0 410.608 410.608 1000.97 
133 1 1 0.433322 0.00858802 0 0 0 0 0.0369952 0.0118494 0 0.0116185 0.00921372 0 0.0369952 0.0118494 0 434.645 434.645 1001.03 
134 1 1 0.442473 0.0163639 0 0 0 0 0.0445777 -0.0113046 0 0.0248476 -0.00999117 0 0.0445777 -0.0113046 0 410.192 410.192 1000.97 
135 1 1 0.444277 0.00610605 0 0 0 0 0.0302622 -0.010116 0 0.0104983 -0.0181951 0 0.0302622 -0.010116 0 464.944 464.944 1001.1 
136 1 1 0.453868 0.010166 0 0 0 0 0.0357165 0.00949053 0 0.0126113 0.0177558 0 0.0357165 0.00949053 0 426.96 426.96 1001.01 
137 1 1 0.464043 0.00530301 0 0 0 0 0.0199541 0.00184746 0 -0.00967443 -0.00690556 0 0.0199541 0.00184746 0 455.435 455.435 1001.08 
138 1 1 0.478569 0.00656704 0 0 0 0 -0.00152569 0.00502344 0 0.0393609 -0.0166331 0 -0.00152569 0.00502344 0 444.736 444.736 1001.06 
139 1 1 0.492115 0.00580405 0 0 0 0 -0.00192 -0.00659397 0 0.00994851 0.00692548 0 -0.00192 -0.00659397 0 444.097 444.097 1001.05 
140 1 1 0.165392 0.0376236 0 0 0 0 0.130212 -0.0206294 0 -0.0613362 -0.0920553 0 0.130212 -0.0206294 0 386.393 386.393 1000.92 
141 1 1 0.165837 0.0246561 0 0 0 0 0.153846 -0.0194983 0 0.13034 0.0343007 0 0.153846 -0.0194983 0 482.35 482.35 1001.14 
142 1 1 0.18915 0.0491607 0 0 0 0 0.225393 0.0457459 0 0.126321 -0.0924334 0 0.225393 0.0457459 0 279.475 279.475 1000.66 
143 1 1 0.18533 0.0338193 0 0 0 0 0.146369 0.00967172 0 0.120034 -0.0612437 0 0.146369 0.00967172 0 406.196 406.196 1000.96 
144 1 1 0.193777 0.028674 0 0 0 0 0.125037 -0.00276114 0 0.0315919 0.0609207 0 0.125037 -0.00276114 0 434.78 434.78 1001.03 
145 1 1 0.187877 0.0199566 0 0 0 0 0.160195 -0.0157346 0 0.0578105 -0.0171567 0 0.160195 -0.0157346 0 513.44 513.44 1001.22 
146 1 1 0.202581 0.0353304 0 0 0 0 0.161 -0.0244789 0 0.0608717 -0.0521995 0 0.161 -0.0244789 0 397.511 397.511 1000.94 
147 1 1 0.196001 0.0169756 0 0 0 0 0.173656 0.0100717 0 0.0901769 -0.0719995 0 0.173656 0.0100717 0 522.999 522.999 1001.24 
148 1 1 0.203074 0.024619 0 0 0 0 0.170754 0.02141 0 0.0275185 0.0173881 0 0.170754 0.02141 0 461.057 461.057 1001.09 
149 1 1 0.221938 0.0229974 0 0 0 0 0.135811 0.0321615 0 0.0661009 0.00510062 0 0.135811 0.0321615 0 448.34 448.34 1001.06 
150 1 1 0.234261 0.0354325 0 0 0 0 0.124616 0.0492468 0 0.0982222 0.0148166 0 0.124616 0.0492468 0 333.807 333.807 1000.79 
151 1 1 0.230742 0.0181739 0 0 0 0 0.14166 0.0262763 0 0.0294483 -0.0676275 0 0.14166 0.0262763 0 482.062 482.062 1001.14 
152 1 1 0.230282 0.0282482 0 0 0 0 0.163702 0.0125703 0 0.100284 -0.0202574 0 0.163702 0.0125703 0 399.762 399.762 1000.95 
153 1 1 0.239779 0.017691 0 0 0 0 0.140054 -0.00186668 0 0.0405162 0.00793437 0 0.140054 -0.00186668 0 484.752 484.752 1001.15 
154 1 1 0.265347 0.0182837 0 0 0 0 0.0685576 0.00791904 0 0.108711 -0.0224154 0 0.0685576 0.00791904 0 449.716 449.716 1001.07 
155 1 1 0.283442 0.0185095 0 0 0 0 0.0753734 0.01276 0 0.0400161 -0.00751561 0 0.0753734 0.01276 0 426.88 426.88 1001.01 
156 1 1 0.27285 0.0188318 0 0 0 0 0.0795492 0.00260346 0 0.127646 0.0110084 0 0.0795492 0.00260346 0 440.421 440.421 1001.05 
157 1 1 0.293328 0.0168983 0 0 0 0 0.0590212 0.003336 0 0.049544 0.0120123 0 0.0590212 0.003336 0 427.496 427.496 1001.01 
158 1 1 0.291281 0.0271049 0 0 0 0 0.0784218 0.0292386 0 0.0943553 -0.00313951 0 0.0784218 0.0292386 0 350.514 350.514 1000.83 
159 1 1 0.310868 0.02281 0 0 0 0 0.0589689 -0.011455 0 0.0786499 0.0605586 0 0.0589689 -0.011455 0 377.537 377.537 1000.9 
160 1 1 0.313797 0.0158817 0 0 0 0 0.0543797 0.00330252 0 0.0273332 -0.0061686 0 0.0543797 0.00330252 0 428.444 428.444 1001.02 
161 1 1 0.323832 0.014025 0 0 0 0 0.058914 -0.0154694 0 0.0344085 -0.017526 0 0.058914 -0.0154694 0 448.498 448.498 1001.06 
162 1 1 0.340394 0.0234318 0 0 0 0 0.019691 0.0169845 0 -0.0344994 -0.00755237 0 0.019691 0.0169845 0 358.105 358.105 1000.85 
163 1 1 0.345363 0.0146631 0 0 0 0 0.0514813 0.0140233 0 -0.00617533 0.00735796 0 0.0514813 0.0140233 0 422.846 422.846 1001 
164 1 1 0.365318 0.0251835 0 0 0 0 0.0650844 -0.0150368 0 -0.0247794 -0.015763 0 0.0650844 -0.0150368 0 352.819 352.819 1000.84 
165 1 1 0.389481 0.00616357 0 0 0 0 0.0324387 0.00472145 0 -0.0609279 0.00791939 0 0.0324387 0.00472145 0 483.474 483.474 1001.15 
166 1 1 0.367539 0.0154135 0 0 0 0 0.0367462 0.020556 0 0.0121708 -0.013955 0 0.0367462 0.020556 0 403.222 403.222 1000.96 
167 1 1 0.385057 0.022839 0 0 0 0 0.0796696 -0.0118742 0 -0.00470412 -0.0204924 0 0.0796696 -0.0118742 0 384.456 384.456 1000.91 
168 1 1 0.407051 0.0166469 0 0 0 0 0.0351979 0.0286872 0 -0.0202917 -0.00224828 0 0.0351979 0.0286872 0 396.806 396.806 1000.94 
169 1 1 0.391532 0.0323899 0 0 0 0 0.0608625 0.0148814 0 -0.00853138 -0.0260234 0 0.0608625 0.0148814 0 298.565 298.565 1000.71 
170 1 1 0.393043 0.0154434 0 0 0 0 0.0578323 -0.0110972 0 -0.00804646 -0.0050917 0 0.0578323 -0.0110972 0 438.178 438.178 1001.04 
171 1 1 0.397195 0.0211776 0 0 0 0 0.0522424 0.0385808 0 0.033233 0.0174791 0 0.0522424 0.0385808 0 387.391 387.391 1000.92 
172 1 1 0.424985 0.0170635 0 0 0 0 0.0376228 -0.032367 0 -0.0207406 -0.0361164 0 0.0376228 -0.032367 0 410.578 410.578 1000.97 
173 1 1 0.433825 0.0189003 0 0 0 0 0.0393147 0.0127425 0 0.0393788 -0.010747 0 0.0393147 0.0127425 0 381.069 381.069 1000.9 
174 1 1 0.461189 0.0167972 0 0 0 0 0.0254091 0.000339293 0 0.0488354 -0.016332 0 0.0254091 0.000339293 0 384.093 384.093 1000.91 
175 1 1 0.46023 0.0281261 0 0 0 0 0.0119365 0.011125 0 0.0595753 -0.0496182 0 0.0119365 0.011125 0 298.956 298.956 1000.71 
176 1 1 0.471704 0.0135896 0 0 0 0 0.0215893 0.0114641 0 0.0350491 -0.0284335 0 0.0215893 0.0114641 0 402.804 402.804 1000.96 
177 1 1 0.483427 0.0143427 0 0 0 0 0.017266 -0.000397154 0 0.00897244 0.027054 0 0.017266 -0.000397154 0 406.432 406.432 1000.96 
178 1 1 0.491604 0.0180188 0 0 0 0 0.00655539 0.00801454 0 -0.0156263 0.00931254 0 0.00655539 0.00801454 0 375.187 375.187 1000.89 
179 1 1 0.153589 0.0502767 0 0 0 0 0.173006 0.0144748 0 0.0214949 -0.060881 0 0.173006 0.0144748 0 274.831 274.831 1000.65 
180 1 1 0.172874 0.0326487 0 0 0 0 0.146881 0.00770703 0 0.0164879 -0.024125 0 0.146881 0.00770703 0 414.603 414.603 1000.98 
181 1 1 0.172212 0.045784 0 0 0 0 0.143134 -0.0306695 0 0.103804 0.0988247 0 0.143134 -0.0306695 0 305.128 305.128 1000.72 
182 1 1 0.180175 0.0422688 0 0 0 0 0.159488 -0.00976318 0 0.0243446 -0.0123309 0 0.159488 -0.00976318 0 304.961 304.961 1000.72 
183 1 1 0.19211 0.0603433 0 0 0 0 0.229691 -0.0115958 0 0.00194262 -0.0347724 0 0.229691 -0.0115958 0 208.246 208.246 1000.5 
184 1 1 0.181 0.055122 0 0 0 0 0.190075 -0.0488379 0 0.00855682 -0.151203 0 0.190075 -0.0488379 0 287.694 287.694 1000.68 
185 1 1 0.193265 0.0408014 0 0 0 0 0.138144 -0.00867589 0 0.0414986 -0.102858 0 0.138144 -0.00867589 0 363.613 363.613 1000.86 
186 1 1 0.212538 0.0308799 0 0 0 0 0.14877 0.00152253 0 0.0827652 -0.0635066 0 0.14877 0.00152253 0 408.301 408.301 1000.97 
187 1 1 0.219822 0.0346928 0 0 0 0 0.162009 0.0233971 0 0.151004 -0.0215323 0 0.162009 0.0233971 0 373.278 373.278 1000.89 
188 1 1 0.224046 0.0421144 0 0 0 0 0.113105 0.0197056 0 0.10227 -0.039805 0 0.113105 0.0197056 0 309.14 309.14 1000.73 
189 1 1 0.244714 0.0402555 0 0 0 0 0.131319 0.0480828 0 0.0942627 -0.0543351 0 0.131319 0.0480828 0 288.504 288.504 1000.69 
190 1 1 0.247749 0.0182489 0 0 0 0 0.112595 0.034754 0 0.0769112 -0.0317798 0 0.112595 0.034754 0 471.218 471.218 1001.12 
191 1 1 0.255877 0.0387407 0 0 0 0 0.106614 0.0775665 0 0.0549208 0.0137059 0 0.106614 0.0775665 0 288.055 288.055 1000.68 
192 1 1 0.250431 0.0301715 0 0 0 0 0.120421 0.0471583 0 0.0898674 -0.0270794 0 0.120421 0.0471583 0 350.186 350.186 1000.83 
193 1 1 0.280066 0.0277674 0 0 0 0 0.0981356 0.0176743 0 0.064466 0.0389522 0 0.0981356 0.0176743 0 356.878 356.878 1000.85 
194 1 1 0.263526 0.0428006 0 0 0 0 0.126269 0.0272099 0 0.158351 0.0236601 0 0.126269 0.0272099 0 280.058 280.058 1000.67 
195 1 1 0.288653 0.0356017 0 0 0 0 0.0828274 0.0250509 0 0.033898 0.0452196 0 0.0828274 0.0250509 0 283.164 283.164 1000.67 
196 1 1 0.301189 0.0275148 0 0 0 0 0.0734574 0.0118 0 0.0125828 0.0110887 0 0.0734574 0.0118 0 341.969 341.969 1000.81 
197 1 1 0.309725 0.0345776 0 0 0 0 0.0713714 -0.00787032 0 0.0360287 -0.00344296 0 0.0713714 -0.00787032 0 284.784 284.784 1000.68 
198 1 1 0.319365 0.0291842 0 0 0 0 0.0676806 0.0175282 0 0.0273633 -0.0387609 0 0.0676806 0.0175282 0 322.166 322.166 1000.77 
199 1 1 0.330912 0.0285385 0 0 0 0 0.0425603 -0.0130209 0 0.0196482 0.0990444 0 0.0425603 -0.0130209 0 333.471 333.471 1000.79 
200 1 1 0.326507 0.0213045 0 0 0 0 0.0427788 -0.0355731 0 0.0712737 0.0238026 0 0.0427788 -0.0355731 0 393.771 393.771 1000.93 
201 1 1 0.353805 0.0213024 0 0 0 0 0.0441166 0.00975405 0 -0.00285945 0.00447159 0 0.0441166 0.00975405 0 383.612 383.612 1000.91 
202 1 1 0.337857 0.03787 0 0 0 0 0.0622762 -0.0044977 0 0.0283758 -0.00812016 0 0.0622762 -0.0044977 0 253.512 253.512 1000.6 
203 1 1 0.355062 0.0302537 0 0 0 0 0.0741668 -0.0127475 0 0.00759265 0.0278091 0 0.0741668 -0.0127475 0 306.752 306.752 1000.73 
204 1 1 0.363707 0.0358211 0 0 0 0 0.0819129 -0.00375353 0 -0.00321356 0.0163971 0 0.0819129 -0.00375353 0 259.661 259.661 1000.62 
205 1 1 0.381083 0.0131949 0 0 0 0 0.0330444 -0.00582545 0 0.0410316 0.0360381 0 0.0330444 -0.00582545 0 455.249 455.249 1001.08 
206 1 1 0.374818 0.020568 0 0 0 0 0.0768607 0.00877634 0 0.00406128 6.38054e-05 0 0.0768607 0.00877634 0 376.322 376.322 1000.89 
207 1 1 0.408668 0.0392467 0 0 0 0 0.127148 -0.0101244 0 0.0169644 -0.0936495 0 0.127148 -0.0101244 0 254.671 254.671 1000.61 
208 1 1 0.425133 0.0278706 0 0 0 0 0.0425774 -0.0255128 0 0.00881413 -0.0489265 0 0.0425774 -0.0255128 0 318.392 318.392 1000.76 
209 1 1 0.405418 0.0274663 0 0 0 0 0.0349945 0.0380547 0 0.062275 -0.0029433 0 0.0349945 0.0380547 0 321.215 321.215 1000.76 
210 1 1 0.433103 0.0315044 0 0 0 0 0.0517193 0.00403037 0 0.0441304 -0.0409657 0 0.0517193 0.00403037 0 283.518 283.518 1000.67 
211 1 1 0.413768 0.0279541 0 0 0 0 0.0804869 -0.0235752 0 0.040997 0.0178135 0 0.0804869 -0.0235752 0 327.664 327.664 1000.78 
212 1 1 0.441866 0.0269478 0 0 0 0 0.0339557 0.00808412 0 0.0498642 0.0115407 0 0.0339557 0.00808412 0 335.191 335.191 1000.8 
213 1 1 0.451977 0.0192994 0 0 0 0 0.0174304 0.0183733 0 -0.0172645 0.000815191 0 0.0174304 0.0183733 0 378.13 378.13 1000.9 
214 1 1 0.465586 0.0350357 0 0 0 0 0.0112238 0.0095821 0 0.0371451 -0.00158145 0 0.0112238 0.0095821 0 243.452 243.452 1000.58 
215 1 1 0.482003 0.0236816 0 0 0 0 0.00878133 0.00600318 0 -0.045626 0.0115116 0 0.00878133 0.00600318 0 349.555 349.555 1000.83 
216 1 1 0.469929 0.0212349 0 0 0 0 0.0124073 0.02176 0 0.0290381 0.00180156 0 0.0124073 0.02176 0 351.169 351.169 1000.83 
217 1 1 0.490276 0.0301188 0 0 0 0 -0.00279719 0.0194068 0 -0.00617633 -0.0104241 0 -0.00279719 0.0194068 0 276.724 276.724 1000.66 
218 1 1 0.164526 0.0586422 0 0 0 0 0.235319 -0.0221204 0 0.0616606 -0.0144047 0 0.235319 -0.0221204 0 241.342 241.342 1000.57 
219 1 1 0.125944 0.0591851 0 0 0 0 0.16747 -0.0116043 0 0.102845 -0.0353033 0 0.16747 -0.0116043 0 242.998 242.998 1000.58 
220 1 1 0.145705 0.0553047 0 0 0 0 0.204936 -0.012133 0 0.0654892 -0.02954 0 0.204936 -0.012133 0 239.188 239.188 1000.57 
221 1 1 0.174778 0.0608728 0 0 0 0 0.241119 -0.021656 0 -0.112096 -0.0780501 0 0.241119 -0.021656 0 237.562 237.562 1000.56 
222 1 1 0.162803 0.0485667 0 0 0 0 0.155186 0.00682546 0 0.0292266 -0.0961048 0 0.155186 0.00682546 0 276.233 276.233 1000.66 
223 1 1 0.201284 0.0475879 0 0 0 0 0.157848 -0.0476609 0 0.177536 0.0276807 0 0.157848 -0.0476609 0 285.161 285.161 1000.68 
224 1 1 0.209666 0.0421914 0 0 0 0 0.149902 0.0256666 0 0.132747 0.0204143 0 0.149902 0.0256666 0 287.913 287.913 1000.68 
225 1 1 0.216209 0.050124 0 0 0 0 0.14962 0.040765 0 0.0841061 -0.152385 0 0.14962 0.040765 0 253.652 253.652 1000.6 
226 1 1 0.224194 0.0549616 0 0 0 0 0.161192 0.0648839 0 0.221503 0.0997784 0 0.161192 0.0648839 0 210.506 210.506 1000.5 
227 1 1 0.241887 0.0287501 0 0 0 0 0.132361 0.0416757 0 0.07139 -0.0260196 0 0.132361 0.0416757 0 368.726 368.726 1000.88 
228 1 1 0.233333 0.0459776 0 0 0 0 0.126392 0.0352274 0 0.159143 0.00882747 0 0.126392 0.0352274 0 266.102 266.102 1000.63 
229 1 1 0.245499 0.0487166 0 0 0 0 0.0890356 0.0713584 0 0.18647 0.0330727 0 0.0890356 0.0713584 0 206.456 206.456 1000.49 
230 1 1 0.261445 0.0295702 0 0 0 0 0.10473 0.0513249 0 0.131041 0.0165497 0 0.10473 0.0513249 0 339.215 339.215 1000.81 
231 1 1 0.269991 0.0307386 0 0 0 0 0.104277 -0.00842081 0 0.0465837 0.0570173 0 0.104277 -0.00842081 0 356.214 356.214 1000.85 
232 1 1 0.276714 0.03785 0 0 0 0 0.0685446 0.0260933 0 0.0464178 0.000996018 0 0.0685446 0.0260933 0 272.87 272.87 1000.65 
233 1 1 0.300484 0.0377455 0 0 0 0 0.0761344 0.0236863 0 0.0417921 0.0184825 0 0.0761344 0.0236863 0 255.121 255.121 1000.61 
234 1 1 0.282381 0.0461888 0 0 0 0 0.0649961 0.0418358 0 0.141878 0.0743534 0 0.0649961 0.0418358 0 214.862 214.862 1000.51 
235 1 1 0.293229 0.0452602 0 0 0 0 0.0601449 0.0211239 0 0.00076865 0.0710852 0 0.0601449 0.0211239 0 213.953 213.953 1000.51 