ITEM: TIMESTEP
192000
ITEM: NUMBER OF ATOMS
754
ITEM: BOX BOUNDS ff ff pp
-0.021 0.521
-0.021 0.5
-0.001 0.001
ITEM: ATOMS id type type x y z ix iy iz vx vy vz fx fy fz vx vy vz p p rho 
1 1 1 0.00614701 0.00195176 0 0 0 0 -4.24236e-05 -0.00887519 0 -0.0208358 -0.0261344 0 -4.24236e-05 -0.00887519 0 456.785 456.785 1001.08 
2 1 1 0.0295189 0.00488176 0 0 0 0 -0.00188722 0.00748954 0 0.00133407 0.00530787 0 -0.00188722 0.00748954 0 424.663 424.663 1001.01 
3 1 1 0.0640343 0.00547656 0 0 0 0 0.0077933 -0.0109928 0 -0.00699828 -0.0270672 0 0.0077933 -0.0109928 0 431.443 431.443 1001.02 
4 1 1 0.0787723 0.0054913 0 0 0 0 0.0242871 0.00788222 0 -0.0102134 -0.00314613 0 0.0242871 0.00788222 0 428.764 428.764 1001.02 
5 1 1 0.0959975 0.00470397 0 0 0 0 -0.00107635 -0.00714908 0 -0.0225181 -0.00166124 0 -0.00107635 -0.00714908 0 452.568 452.568 1001.07 
6 1 1 0.111483 0.00610218 0 0 0 0 0.00970996 0.00407551 0 -0.0632822 -0.0272861 0 0.00970996 0.00407551 0 449.967 449.967 1001.07 
7 1 1 0.155071 0.00519333 0 0 0 0 -0.0401721 0.0067866 0 0.0167902 0.0033937 0 -0.0401721 0.0067866 0 458.632 458.632 1001.09 
8 1 1 0.131982 0.0136845 0 0 0 0 -0.032566 -0.0118191 0 0.0572105 0.014268 0 -0.032566 -0.0118191 0 412.027 412.027 1000.98 
9 1 1 0.188444 0.0058746 0 0 0 0 -0.0361067 -0.00454112 0 -0.0184732 0.00673017 0 -0.0361067 -0.00454112 0 453.887 453.887 1001.08 
10 1 1 0.200778 0.00655618 0 0 0 0 -0.0206501 -0.00839402 0 -0.0403649 -0.00313966 0 -0.0206501 -0.00839402 0 453.65 453.65 1001.08 
11 1 1 0.0329223 0.0159128 0 0 0 0 0.0054697 -0.0246889 0 0.0155739 -0.00961234 0 0.0054697 -0.0246889 0 377.94 377.94 1000.9 
12 1 1 0.0513782 0.0063862 0 0 0 0 0.00891901 0.00466004 0 -0.0329396 -0.0251928 0 0.00891901 0.00466004 0 414.544 414.544 1000.98 
13 1 1 0.0711968 0.0128796 0 0 0 0 0.0211641 -0.0136652 0 -0.0251423 0.0138209 0 0.0211641 -0.0136652 0 397.585 397.585 1000.94 
14 1 1 0.0862004 0.01133 0 0 0 0 0.0111745 0.0118466 0 -0.0048423 -0.00445473 0 0.0111745 0.0118466 0 410.014 410.014 1000.97 
15 1 1 0.105148 0.0133558 0 0 0 0 0.0169895 -0.0150837 0 -0.0225586 0.00772296 0 0.0169895 -0.0150837 0 411.275 411.275 1000.98 
16 1 1 0.140144 0.00606628 0 0 0 0 -0.000155556 -0.000574242 0 -0.0449423 -0.0153943 0 -0.000155556 -0.000574242 0 442.523 442.523 1001.05 
17 1 1 0.153696 0.0193287 0 0 0 0 0.0264403 0.0107946 0 -0.0227121 0.0173567 0 0.0264403 0.0107946 0 387.222 387.222 1000.92 
18 1 1 0.169073 0.00576982 0 0 0 0 -0.0489734 -0.00307503 0 -0.0136987 -0.0213594 0 -0.0489734 -0.00307503 0 448.775 448.775 1001.07 
19 1 1 0.197952 0.0153269 0 0 0 0 -0.0366897 -0.0100072 0 -0.05383 -0.0466999 0 -0.0366897 -0.0100072 0 410.071 410.071 1000.97 
20 1 1 0.189292 0.0165517 0 0 0 0 -0.0161107 2.52337e-05 0 -0.0368225 0.0039067 0 -0.0161107 2.52337e-05 0 409.232 409.232 1000.97 
21 1 1 0.0330157 0.025682 0 0 0 0 0.00179849 0.00204778 0 -0.0432168 0.0153871 0 0.00179849 0.00204778 0 320.748 320.748 1000.76 
22 1 1 0.0410478 0.00785798 0 0 0 0 0.00795825 -0.00852465 0 -0.0522281 -0.00416978 0 0.00795825 -0.00852465 0 411.542 411.542 1000.98 
23 1 1 0.0589182 0.0149527 0 0 0 0 0.0202678 0.00235798 0 0.0209215 -0.0399715 0 0.0202678 0.00235798 0 375.041 375.041 1000.89 
24 1 1 0.0865101 0.0280533 0 0 0 0 0.0184037 0.0113996 0 -0.0693945 -0.0102888 0 0.0184037 0.0113996 0 297.193 297.193 1000.71 
25 1 1 0.0748148 0.028514 0 0 0 0 0.0170709 -0.0174955 0 -0.060753 -0.0220019 0 0.0170709 -0.0174955 0 293.906 293.906 1000.7 
26 1 1 0.126093 0.00507159 0 0 0 0 -0.00352785 0.00652537 0 -0.0655798 -0.0127018 0 -0.00352785 0.00652537 0 451.541 451.541 1001.07 
27 1 1 0.124307 0.0176347 0 0 0 0 -0.00375268 0.0418856 0 0.0506519 -0.0612351 0 -0.00375268 0.0418856 0 375.25 375.25 1000.89 
28 1 1 0.168661 0.0156561 0 0 0 0 0.0179899 0.0302457 0 -0.0160555 0.040166 0 0.0179899 0.0302457 0 404.56 404.56 1000.96 
29 1 1 0.178941 0.00950818 0 0 0 0 -0.0432097 -0.00495056 0 -0.0268743 0.0183148 0 -0.0432097 -0.00495056 0 437.251 437.251 1001.04 
30 1 1 0.200742 0.0233528 0 0 0 0 -0.0171954 0.00944505 0 -0.0267872 -0.000751313 0 -0.0171954 0.00944505 0 354.774 354.774 1000.84 
31 1 1 0.018835 0.00889699 0 0 0 0 0.0127694 -0.00294158 0 -0.00885858 -0.0104025 0 0.0127694 -0.00294158 0 406.713 406.713 1000.97 
32 1 1 0.0423378 0.016728 0 0 0 0 0.00405845 0.00918196 0 -0.0462107 0.0346989 0 0.00405845 0.00918196 0 366.467 366.467 1000.87 
33 1 1 0.0644445 0.0333299 0 0 0 0 0.0140996 -0.0105321 0 0.017289 -0.0214762 0 0.0140996 -0.0105321 0 256.699 256.699 1000.61 
34 1 1 0.0890496 0.0187437 0 0 0 0 0.036159 0.00929492 0 0.00372518 -0.000824501 0 0.036159 0.00929492 0 366.908 366.908 1000.87 
35 1 1 0.13207 0.025248 0 0 0 0 0.0521454 0.00989256 0 -0.00727467 -0.0182274 0 0.0521454 0.00989256 0 336.775 336.775 1000.8 
36 1 1 0.14038 0.0182768 0 0 0 0 -0.0107036 -0.0117501 0 -0.088248 0.00999495 0 -0.0107036 -0.0117501 0 391.704 391.704 1000.93 
37 1 1 0.147366 0.0129704 0 0 0 0 -0.0108861 0.0272935 0 0.00954015 -0.0197107 0 -0.0108861 0.0272935 0 416.022 416.022 1000.99 
38 1 1 0.180432 0.0188342 0 0 0 0 0.00180528 -0.00846625 0 0.00224246 -0.0463203 0 0.00180528 -0.00846625 0 394.897 394.897 1000.94 
39 1 1 0.196904 0.0331733 0 0 0 0 -0.0127373 0.024324 0 -0.0201923 -0.0310887 0 -0.0127373 0.024324 0 281.761 281.761 1000.67 
40 1 1 0.155422 0.031703 0 0 0 0 -5.21411e-05 0.0366867 0 -0.0245786 -0.0566425 0 -5.21411e-05 0.0366867 0 302.062 302.062 1000.72 
41 1 1 0.0120705 0.0133649 0 0 0 0 -0.000494463 -0.00722728 0 -0.0100198 0.0149428 0 -0.000494463 -0.00722728 0 390.114 390.114 1000.93 
42 1 1 0.0337439 0.0408474 0 0 0 0 -0.0152599 -0.00342578 0 -0.0193773 -0.0338071 0 -0.0152599 -0.00342578 0 216.817 216.817 1000.52 
43 1 1 0.0517995 0.0176457 0 0 0 0 -0.0019012 -0.0140838 0 -0.0229877 -0.0387366 0 -0.0019012 -0.0140838 0 354.387 354.387 1000.84 
44 1 1 0.0793202 0.0362225 0 0 0 0 -0.00875606 0.00290721 0 -0.0392767 -0.0397953 0 -0.00875606 0.00290721 0 237.221 237.221 1000.56 
45 1 1 0.0978431 0.0158165 0 0 0 0 0.0117287 0.00567637 0 0.00267368 -0.0240851 0 0.0117287 0.00567637 0 392.279 392.279 1000.93 
46 1 1 0.120292 0.0283618 0 0 0 0 0.0506552 0.00448125 0 -0.037611 0.0642505 0 0.0506552 0.00448125 0 300.156 300.156 1000.71 
47 1 1 0.160803 0.0148007 0 0 0 0 0.00194631 -0.0173205 0 -0.0610907 -0.0327214 0 0.00194631 -0.0173205 0 413.299 413.299 1000.98 
48 1 1 0.189081 0.026622 0 0 0 0 0.00376435 0.00691752 0 -0.0802288 -0.0281458 0 0.00376435 0.00691752 0 335.394 335.394 1000.8 
49 1 1 0.185573 0.0352041 0 0 0 0 0.00045816 0.00703557 0 -0.0947563 -0.0488216 0 0.00045816 0.00703557 0 278.796 278.796 1000.66 
50 1 1 0.168239 0.0490421 0 0 0 0 0.0153259 0.0214067 0 -0.021987 0.0689641 0 0.0153259 0.0214067 0 235.702 235.702 1000.56 
51 1 1 0.0244584 0.016229 0 0 0 0 0.00090046 0.0228818 0 0.0335279 0.0287368 0 0.00090046 0.0228818 0 373.134 373.134 1000.89 
52 1 1 0.0473839 0.0265358 0 0 0 0 0.0190627 -0.00103823 0 -0.0184508 -0.0163323 0 0.0190627 -0.00103823 0 300.561 300.561 1000.71 
53 1 1 0.0671263 0.0206942 0 0 0 0 0.00772322 -0.0171811 0 -0.0360736 -0.0243094 0 0.00772322 -0.0171811 0 348.839 348.839 1000.83 
54 1 1 0.0957452 0.0292391 0 0 0 0 0.0051807 0.0137528 0 -0.0473359 -0.0403524 0 0.0051807 0.0137528 0 281.895 281.895 1000.67 
55 1 1 0.100627 0.0384926 0 0 0 0 0.0561812 0.000722808 0 -0.0431759 0.00424682 0 0.0561812 0.000722808 0 226.076 226.076 1000.54 
56 1 1 0.109804 0.0328199 0 0 0 0 0.016551 0.000985428 0 0.0561309 0.0204326 0 0.016551 0.000985428 0 263.441 263.441 1000.63 
57 1 1 0.146115 0.0271003 0 0 0 0 0.00792767 -0.0197773 0 0.0226786 -0.0232841 0 0.00792767 -0.0197773 0 332.911 332.911 1000.79 
58 1 1 0.13886 0.0326809 0 0 0 0 0.0181674 0.021555 0 -0.0367147 -0.00790658 0 0.0181674 0.021555 0 287.004 287.004 1000.68 
59 1 1 0.175611 0.0330845 0 0 0 0 -0.0137139 0.00131096 0 -0.0616226 0.0723262 0 -0.0137139 0.00131096 0 312.309 312.309 1000.74 
60 1 1 0.178217 0.0444875 0 0 0 0 -0.000125351 0.0152003 0 -0.0158786 0.0469632 0 -0.000125351 0.0152003 0 249.176 249.176 1000.59 
61 1 1 0.0590358 0.0272458 0 0 0 0 0.0157173 -0.00943909 0 -0.0422709 -0.0222681 0 0.0157173 -0.00943909 0 296.533 296.533 1000.7 
62 1 1 0.0078972 0.0205105 0 0 0 0 -0.000565411 -0.0186227 0 0.0473085 -0.0407757 0 -0.000565411 -0.0186227 0 347.765 347.765 1000.83 
63 1 1 0.0781688 0.0189586 0 0 0 0 0.0189379 0.0034859 0 -0.00246667 -0.0187951 0 0.0189379 0.0034859 0 360.532 360.532 1000.86 
64 1 1 0.0453308 0.0430941 0 0 0 0 -0.0313207 -0.0103757 0 0.0257131 0.0179865 0 -0.0313207 -0.0103757 0 193.552 193.552 1000.46 
65 1 1 0.0899832 0.0396871 0 0 0 0 0.022893 -0.0171872 0 -0.0200436 0.0389034 0 0.022893 -0.0171872 0 221.082 221.082 1000.53 
66 1 1 0.117117 0.0135219 0 0 0 0 0.0141664 5.06066e-06 0 0.00187373 -0.0226053 0 0.0141664 5.06066e-06 0 400.523 400.523 1000.95 
67 1 1 0.1277 0.0344007 0 0 0 0 0.01063 0.0230994 0 -0.0240669 -0.000585666 0 0.01063 0.0230994 0 274.73 274.73 1000.65 
68 1 1 0.16322 0.0265491 0 0 0 0 -0.0204065 -0.00654629 0 -0.00156498 -0.00332523 0 -0.0204065 -0.00654629 0 344.511 344.511 1000.82 
69 1 1 0.174169 0.0245131 0 0 0 0 0.00611624 0.0279174 0 -0.0452171 0.0257695 0 0.00611624 0.0279174 0 359.751 359.751 1000.85 
70 1 1 0.18859 0.05416 0 0 0 0 0.0131892 0.0109481 0 0.0059973 0.0169172 0 0.0131892 0.0109481 0 191.402 191.402 1000.46 
71 1 1 0.010371 0.032318 0 0 0 0 0.00338555 -0.0176019 0 -0.0154752 -0.0894433 0 0.00338555 -0.0176019 0 254.912 254.912 1000.61 
72 1 1 0.0376994 0.0523831 0 0 0 0 0.0181477 0.00689439 0 0.0376589 0.081392 0 0.0181477 0.00689439 0 139.244 139.244 1000.33 
73 1 1 0.0234831 0.0303779 0 0 0 0 0.0110199 0.00531597 0 0.0274818 0.0591211 0 0.0110199 0.00531597 0 291.939 291.939 1000.69 
74 1 1 0.0512274 0.035716 0 0 0 0 0.0120666 -0.00114709 0 0.0105921 -0.00359651 0 0.0120666 -0.00114709 0 234.875 234.875 1000.56 
75 1 1 0.080662 0.0470396 0 0 0 0 0.0111666 -0.0174852 0 -0.0216035 0.0303613 0 0.0111666 -0.0174852 0 180.888 180.888 1000.43 
76 1 1 0.113191 0.0223253 0 0 0 0 -0.00519513 0.0228146 0 -0.0274442 -0.0917341 0 -0.00519513 0.0228146 0 334.498 334.498 1000.79 
77 1 1 0.103751 0.024912 0 0 0 0 0.0293326 -0.0147362 0 -0.0388695 -0.0420496 0 0.0293326 -0.0147362 0 318.221 318.221 1000.76 
78 1 1 0.156971 0.0444286 0 0 0 0 0.0146229 0.0269275 0 0.0262514 0.010375 0 0.0146229 0.0269275 0 215.134 215.134 1000.51 
79 1 1 0.147656 0.0395853 0 0 0 0 0.0239616 0.00380084 0 -0.0235592 -0.0306326 0 0.0239616 0.00380084 0 239.201 239.201 1000.57 
80 1 1 0.158383 0.0588742 0 0 0 0 0.00834435 0.0234058 0 0.00617236 0.0687104 0 0.00834435 0.0234058 0 189.976 189.976 1000.45 
81 1 1 0.0183587 0.0240072 0 0 0 0 0.00391021 -0.00349341 0 0.0113328 0.013213 0 0.00391021 -0.00349341 0 330.665 330.665 1000.79 
82 1 1 0.0130126 0.0395431 0 0 0 0 -0.00209858 -0.02027 0 0.00660105 0.012997 0 -0.00209858 -0.02027 0 211.827 211.827 1000.5 
83 1 1 0.0390049 0.0312638 0 0 0 0 0.0111955 -0.0288112 0 -0.0205575 0.0328656 0 0.0111955 -0.0288112 0 278.679 278.679 1000.66 
84 1 1 0.024804 0.0411613 0 0 0 0 0.00802192 0.0139416 0 -0.0577058 0.0413465 0 0.00802192 0.0139416 0 223.083 223.083 1000.53 
85 1 1 0.0698664 0.0423399 0 0 0 0 -0.0027279 -0.0122393 0 -0.0393909 -0.0145597 0 -0.0027279 -0.0122393 0 192.309 192.309 1000.46 
86 1 1 0.110039 0.0445366 0 0 0 0 0.0389234 0.0334324 0 -0.0567324 0.0527088 0 0.0389234 0.0334324 0 218.802 218.802 1000.52 
87 1 1 0.119013 0.0412068 0 0 0 0 0.0144575 0.0127101 0 -0.0750547 -0.0611383 0 0.0144575 0.0127101 0 239.713 239.713 1000.57 
88 1 1 0.128347 0.0469511 0 0 0 0 0.0196631 0.00379264 0 -0.0172908 0.00130021 0 0.0196631 0.00379264 0 197.357 197.357 1000.47 
89 1 1 0.137323 0.0442 0 0 0 0 0.0284368 0.0173417 0 -0.027029 -0.0384708 0 0.0284368 0.0173417 0 210.541 210.541 1000.5 
90 1 1 0.147033 0.0516109 0 0 0 0 0.00128903 0.0323803 0 0.00759415 0.02879 0 0.00128903 0.0323803 0 175.257 175.257 1000.42 
91 1 1 0.0527121 0.0550308 0 0 0 0 0.00830907 -0.0104644 0 -0.0191156 0.0486721 0 0.00830907 -0.0104644 0 177.371 177.371 1000.42 
92 1 1 0.0242205 0.05467 0 0 0 0 -0.0109527 0.000324871 0 0.0392568 0.0380818 0 -0.0109527 0.000324871 0 156.701 156.701 1000.37 
93 1 1 0.0128537 0.0503194 0 0 0 0 0.0040084 -0.0103398 0 0.0234949 0.00501153 0 0.0040084 -0.0103398 0 163.212 163.212 1000.39 
94 1 1 0.0684331 0.0540211 0 0 0 0 0.00582587 -0.0161063 0 -0.00652961 0.0722112 0 0.00582587 -0.0161063 0 132.313 132.313 1000.31 
95 1 1 0.0860943 0.0581847 0 0 0 0 0.0280005 -0.0218928 0 -0.057597 0.0114076 0 0.0280005 -0.0218928 0 179.666 179.666 1000.43 
96 1 1 0.107865 0.0575379 0 0 0 0 0.0242085 0.0156081 0 -0.116896 0.0140318 0 0.0242085 0.0156081 0 182.746 182.746 1000.43 
97 1 1 0.058947 0.0438779 0 0 0 0 -0.0237599 -0.0154541 0 -0.0613704 0.0410988 0 -0.0237599 -0.0154541 0 192.558 192.558 1000.46 
98 1 1 0.0965502 0.0498357 0 0 0 0 0.0167498 -0.0231771 0 -0.00231957 0.0263979 0 0.0167498 -0.0231771 0 205.9 205.9 1000.49 
99 1 1 0.121122 0.0562649 0 0 0 0 0.0141819 0.0278713 0 0.00702402 -0.0215538 0 0.0141819 0.0278713 0 142.657 142.657 1000.34 
100 1 1 0.136624 0.0597041 0 0 0 0 0.0206014 0.0223969 0 0.00367429 -0.00899574 0 0.0206014 0.0223969 0 176.174 176.174 1000.42 
101 1 1 0.208858 0.0143863 0 0 0 0 -0.0389187 -0.000911502 0 -0.0043255 -0.0219576 0 -0.0389187 -0.000911502 0 419.75 419.75 1001 
102 1 1 0.220596 0.0163218 0 0 0 0 -0.0221869 -0.00736375 0 -0.0826051 0.00780261 0 -0.0221869 -0.00736375 0 414.836 414.836 1000.98 
103 1 1 0.229555 0.025579 0 0 0 0 -0.0366905 0.0190528 0 -0.0947677 -0.0326307 0 -0.0366905 0.0190528 0 356.673 356.673 1000.85 
104 1 1 0.213668 0.00567462 0 0 0 0 -0.0111842 -0.00183114 0 -0.0136657 0.00162463 0 -0.0111842 -0.00183114 0 461.687 461.687 1001.1 
105 1 1 0.224509 0.00857644 0 0 0 0 -0.0147428 -0.00190533 0 -0.00868484 -0.0235117 0 -0.0147428 -0.00190533 0 457.69 457.69 1001.09 
106 1 1 0.236178 0.00484469 0 0 0 0 -0.0123642 -0.00402219 0 -0.0397988 -0.000822729 0 -0.0123642 -0.00402219 0 487.131 487.131 1001.16 
107 1 1 0.246765 0.0143782 0 0 0 0 -0.0156149 0.00723703 0 -0.0654529 0.00278953 0 -0.0156149 0.00723703 0 443.991 443.991 1001.05 
108 1 1 0.250524 0.00609084 0 0 0 0 -0.0132328 0.00932147 0 -0.053219 0.00131134 0 -0.0132328 0.00932147 0 479.741 479.741 1001.14 
109 1 1 0.259612 0.0130102 0 0 0 0 -0.0443843 0.0195299 0 -0.0572455 -0.012236 0 -0.0443843 0.0195299 0 456.628 456.628 1001.08 
110 1 1 0.270272 0.0160406 0 0 0 0 -0.0701718 -0.00735599 0 -0.0848375 0.0191872 0 -0.0701718 -0.00735599 0 451.1 451.1 1001.07 
111 1 1 0.265577 0.00512175 0 0 0 0 -0.039565 -0.00842473 0 -0.0374321 -0.0376151 0 -0.039565 -0.00842473 0 499.084 499.084 1001.18 
112 1 1 0.276585 0.00917863 0 0 0 0 -0.0439874 0.0103785 0 -0.0517965 0.0406106 0 -0.0439874 0.0103785 0 484.917 484.917 1001.15 
113 1 1 0.286653 0.00600216 0 0 0 0 -0.0403173 -0.00782181 0 -0.0575986 -0.0244968 0 -0.0403173 -0.00782181 0 500.881 500.881 1001.19 
114 1 1 0.297915 0.017304 0 0 0 0 -0.0684361 0.00972406 0 -0.0779585 -0.0209693 0 -0.0684361 0.00972406 0 454.092 454.092 1001.08 
115 1 1 0.323858 0.0247594 0 0 0 0 -0.0763769 -0.0146006 0 -0.0908905 -0.0187422 0 -0.0763769 -0.0146006 0 447.774 447.774 1001.06 
116 1 1 0.298991 0.00610834 0 0 0 0 -0.0368717 0.00180086 0 -0.00128551 0.00164022 0 -0.0368717 0.00180086 0 503.275 503.275 1001.19 
117 1 1 0.316234 0.00523185 0 0 0 0 -0.0619459 -0.0115672 0 -0.0806043 -0.0173653 0 -0.0619459 -0.0115672 0 533.006 533.006 1001.26 
118 1 1 0.325379 0.010544 0 0 0 0 -0.0489217 0.00712509 0 -0.043843 0.0260381 0 -0.0489217 0.00712509 0 522.796 522.796 1001.24 
119 1 1 0.335929 0.00458019 0 0 0 0 -0.0612288 -0.00494837 0 -0.062141 -0.0020303 0 -0.0612288 -0.00494837 0 554.953 554.953 1001.32 
120 1 1 0.347266 0.0258505 0 0 0 0 -0.0543808 0.017867 0 -0.0742515 -0.0426805 0 -0.0543808 0.017867 0 443.204 443.204 1001.05 
121 1 1 0.346935 0.0131458 0 0 0 0 -0.051821 -0.00545844 0 -0.0842081 -0.0471697 0 -0.051821 -0.00545844 0 527.251 527.251 1001.25 
122 1 1 0.352471 0.00536672 0 0 0 0 -0.0553748 -0.00012618 0 -0.0986933 0.0263634 0 -0.0553748 -0.00012618 0 559.934 559.934 1001.33 
123 1 1 0.372956 0.0154196 0 0 0 0 -0.0624229 -0.00256826 0 -0.00671895 -0.0504402 0 -0.0624229 -0.00256826 0 527.042 527.042 1001.25 
124 1 1 0.365928 0.00653343 0 0 0 0 -0.0607007 -0.00110755 0 -0.053055 -0.0453455 0 -0.0607007 -0.00110755 0 552.075 552.075 1001.31 
125 1 1 0.377792 0.00687595 0 0 0 0 -0.0585147 0.00115979 0 -0.0376013 -0.00561904 0 -0.0585147 0.00115979 0 559.229 559.229 1001.33 
126 1 1 0.390029 0.0203881 0 0 0 0 -0.0633513 -0.00268215 0 -0.112417 -0.00628041 0 -0.0633513 -0.00268215 0 515.783 515.783 1001.22 
127 1 1 0.389033 0.00670761 0 0 0 0 -0.0537261 -0.00738773 0 0.0831174 -0.0345058 0 -0.0537261 -0.00738773 0 566.455 566.455 1001.34 
128 1 1 0.395484 0.0132108 0 0 0 0 -0.0676066 0.0216548 0 -0.0669973 -0.0244506 0 -0.0676066 0.0216548 0 553.88 553.88 1001.31 
129 1 1 0.414883 0.0100951 0 0 0 0 -0.0609413 -0.0120269 0 -0.0705294 0.00459442 0 -0.0609413 -0.0120269 0 598.09 598.09 1001.42 
130 1 1 0.424708 0.00554411 0 0 0 0 -0.0395814 -0.01129 0 -0.0766612 0.0215309 0 -0.0395814 -0.01129 0 610.069 610.069 1001.45 
131 1 1 0.437983 0.00670099 0 0 0 0 -0.0231382 -0.00075178 0 -0.00600578 -0.0441646 0 -0.0231382 -0.00075178 0 599.288 599.288 1001.42 
132 1 1 0.432291 0.0141524 0 0 0 0 -0.0431501 -0.00233295 0 -0.0811396 -0.0182821 0 -0.0431501 -0.00233295 0 580.976 580.976 1001.38 
133 1 1 0.446229 0.0147402 0 0 0 0 -0.00429148 -0.0174268 0 -0.0593978 -0.0124942 0 -0.00429148 -0.0174268 0 582.819 582.819 1001.38 
134 1 1 0.453485 0.0206281 0 0 0 0 -0.0497855 0.00319859 0 -0.0488058 -0.0141052 0 -0.0497855 0.00319859 0 564.78 564.78 1001.34 
135 1 1 0.450321 0.00588438 0 0 0 0 -0.0180677 -0.00104275 0 0.0382059 0.0250183 0 -0.0180677 -0.00104275 0 609.522 609.522 1001.44 
136 1 1 0.458465 0.0126551 0 0 0 0 -0.000610173 -0.00903862 0 -0.03577 0.0409903 0 -0.000610173 -0.00903862 0 594.345 594.345 1001.41 
137 1 1 0.465251 0.0054654 0 0 0 0 -0.00251198 -0.00283433 0 -0.0293512 -0.0566276 0 -0.00251198 -0.00283433 0 612.542 612.542 1001.45 
138 1 1 0.478735 0.00637258 0 0 0 0 0.0125265 0.00327507 0 0.0390734 -0.0423081 0 0.0125265 0.00327507 0 609.977 609.977 1001.45 
139 1 1 0.492834 0.00550147 0 0 0 0 0.000987986 -0.001772 0 0.00556156 -0.00267117 0 0.000987986 -0.001772 0 619.735 619.735 1001.47 
140 1 1 0.207232 0.0316641 0 0 0 0 -0.0190197 -0.00585396 0 0.0139302 -0.00266884 0 -0.0190197 -0.00585396 0 310.161 310.161 1000.74 
141 1 1 0.21238 0.0218967 0 0 0 0 -0.0203097 -0.0288061 0 -0.069166 -0.0128924 0 -0.0203097 -0.0288061 0 379.342 379.342 1000.9 
142 1 1 0.253395 0.0399093 0 0 0 0 -0.0487356 0.0169131 0 -0.0371732 -0.0335016 0 -0.0487356 0.0169131 0 268.047 268.047 1000.64 
143 1 1 0.240746 0.0263707 0 0 0 0 -0.0317863 -0.0145736 0 -0.0495428 -0.0216432 0 -0.0317863 -0.0145736 0 362.917 362.917 1000.86 
144 1 1 0.248774 0.0277152 0 0 0 0 -0.0499452 0.0220868 0 -0.0253079 -0.0112288 0 -0.0499452 0.0220868 0 358.754 358.754 1000.85 
145 1 1 0.231011 0.0160851 0 0 0 0 -0.0244606 0.0184377 0 -0.0355914 0.00763616 0 -0.0244606 0.0184377 0 419.631 419.631 1001 
146 1 1 0.258178 0.0316317 0 0 0 0 -0.0305417 0.0293148 0 -0.0464019 -0.00149192 0 -0.0305417 0.0293148 0 338.051 338.051 1000.8 
147 1 1 0.2393 0.0156848 0 0 0 0 -0.0382946 -0.0227239 0 -0.0403032 0.00573384 0 -0.0382946 -0.0227239 0 432.711 432.711 1001.03 
148 1 1 0.255321 0.0196482 0 0 0 0 -0.0471742 0.0376541 0 -0.0740385 0.0107349 0 -0.0471742 0.0376541 0 417.404 417.404 1000.99 
149 1 1 0.276887 0.0257962 0 0 0 0 -0.0382094 -0.0174685 0 -0.0907482 -0.0231789 0 -0.0382094 -0.0174685 0 392.489 392.489 1000.93 
150 1 1 0.295237 0.0370268 0 0 0 0 -0.0538005 0.0250294 0 -0.0846173 0.0133287 0 -0.0538005 0.0250294 0 316.612 316.612 1000.75 
151 1 1 0.28141 0.0172519 0 0 0 0 -0.0539638 -0.0128209 0 -0.0820378 -0.0173287 0 -0.0539638 -0.0128209 0 446.962 446.962 1001.06 
152 1 1 0.287801 0.0265813 0 0 0 0 -0.0504523 0.012572 0 -0.0621426 0.00336585 0 -0.0504523 0.012572 0 380.677 380.677 1000.9 
153 1 1 0.290681 0.0157003 0 0 0 0 -0.0458931 0.00139288 0 -0.0930831 -0.0472505 0 -0.0458931 0.00139288 0 456.263 456.263 1001.08 
154 1 1 0.307317 0.0111125 0 0 0 0 -0.0596399 0.0214502 0 -0.0423427 0.0493299 0 -0.0596399 0.0214502 0 500.005 500.005 1001.19 
155 1 1 0.32976 0.0162168 0 0 0 0 -0.0406043 0.00304258 0 -0.0906702 0.0280169 0 -0.0406043 0.00304258 0 502.958 502.958 1001.19 
156 1 1 0.317057 0.0168994 0 0 0 0 -0.0502416 -0.0179057 0 -0.0703687 -0.010827 0 -0.0502416 -0.0179057 0 489.512 489.512 1001.16 
157 1 1 0.340007 0.0146826 0 0 0 0 -0.0474623 0.00290871 0 -0.0815864 -0.0152508 0 -0.0474623 0.00290871 0 516.059 516.059 1001.22 
158 1 1 0.337194 0.0240613 0 0 0 0 -0.0611208 -0.00402505 0 -0.0738528 -0.00677494 0 -0.0611208 -0.00402505 0 453.697 453.697 1001.08 
159 1 1 0.360816 0.0297848 0 0 0 0 -0.0583297 0.00396439 0 -0.0852881 -0.0195489 0 -0.0583297 0.00396439 0 431.348 431.348 1001.02 
160 1 1 0.35436 0.0203146 0 0 0 0 -0.0702827 -0.003805 0 -0.0202854 -0.0393672 0 -0.0702827 -0.003805 0 484.847 484.847 1001.15 
161 1 1 0.359927 0.0139032 0 0 0 0 -0.0520018 0.00698105 0 -0.0437413 -0.00789607 0 -0.0520018 0.00698105 0 521.336 521.336 1001.24 
162 1 1 0.37571 0.0258627 0 0 0 0 -0.0691764 0.00573211 0 -0.0692301 0.00588587 0 -0.0691764 0.00573211 0 476.626 476.626 1001.13 
163 1 1 0.382795 0.0164703 0 0 0 0 -0.0820798 0.00153239 0 -0.140598 0.051679 0 -0.0820798 0.00153239 0 528.568 528.568 1001.25 
164 1 1 0.407337 0.0315689 0 0 0 0 -0.0605821 0.0152884 0 -0.072796 0.039754 0 -0.0605821 0.0152884 0 460.88 460.88 1001.09 
165 1 1 0.404476 0.00448493 0 0 0 0 -0.0631245 -0.000907641 0 -0.0108009 0.026164 0 -0.0631245 -0.000907641 0 614.94 614.94 1001.46 
166 1 1 0.406159 0.0226727 0 0 0 0 -0.0163733 -0.00215416 0 -0.0868631 -0.0666091 0 -0.0163733 -0.00215416 0 514.152 514.152 1001.22 
167 1 1 0.416168 0.0373496 0 0 0 0 -0.0397108 -0.0293493 0 -0.0461411 -0.048884 0 -0.0397108 -0.0293493 0 429.089 429.089 1001.02 
168 1 1 0.425364 0.0180126 0 0 0 0 -0.0423847 -0.0165962 0 -0.0198163 -0.00583085 0 -0.0423847 -0.0165962 0 563.088 563.088 1001.34 
169 1 1 0.424638 0.0471535 0 0 0 0 -0.072245 -0.0108372 0 -0.0594506 -0.0194764 0 -0.072245 -0.0108372 0 367.102 367.102 1000.87 
170 1 1 0.415801 0.0170462 0 0 0 0 -0.0681155 -0.0215117 0 0.00101965 -0.00541149 0 -0.0681155 -0.0215117 0 565.533 565.533 1001.34 
171 1 1 0.426151 0.0306505 0 0 0 0 -0.0444689 -0.00604333 0 -0.128205 0.0267675 0 -0.0444689 -0.00604333 0 484.166 484.166 1001.15 
172 1 1 0.439365 0.0199502 0 0 0 0 -0.0726951 -0.0336764 0 -0.0133177 -0.0285703 0 -0.0726951 -0.0336764 0 558.1 558.1 1001.32 
173 1 1 0.446552 0.0280483 0 0 0 0 -0.0301843 -0.0418871 0 -0.0260794 -0.0527044 0 -0.0301843 -0.0418871 0 526.173 526.173 1001.25 
174 1 1 0.472599 0.0136088 0 0 0 0 -0.0165469 -0.0130957 0 -0.00988846 0.0352712 0 -0.0165469 -0.0130957 0 590.458 590.458 1001.4 
175 1 1 0.472932 0.0251886 0 0 0 0 0.00447992 -0.023326 0 -0.0199678 0.0910767 0 0.00447992 -0.023326 0 556.143 556.143 1001.32 
176 1 1 0.480791 0.0213991 0 0 0 0 -0.00440449 -0.0050728 0 -0.0687177 -0.00930033 0 -0.00440449 -0.0050728 0 575.322 575.322 1001.36 
177 1 1 0.485148 0.0131405 0 0 0 0 -0.0142388 0.00720197 0 -0.0470589 0.0728229 0 -0.0142388 0.00720197 0 602.1 602.1 1001.43 
178 1 1 0.49197 0.0195204 0 0 0 0 0.00507554 -0.0116265 0 -0.0647017 -0.107447 0 0.00507554 -0.0116265 0 584.454 584.454 1001.39 
179 1 1 0.201374 0.0433491 0 0 0 0 0.00687759 0.0212521 0 -0.00778008 0.0318501 0 0.00687759 0.0212521 0 229.748 229.748 1000.55 
180 1 1 0.220079 0.0276401 0 0 0 0 -0.0281194 0.00189774 0 -0.0839521 0.0439284 0 -0.0281194 0.00189774 0 344.029 344.029 1000.82 
181 1 1 0.223375 0.0374137 0 0 0 0 -0.0247804 0.00838179 0 -0.0374617 0.0152884 0 -0.0247804 0.00838179 0 284.679 284.679 1000.68 
182 1 1 0.233434 0.0345362 0 0 0 0 -0.022758 0.00649194 0 -0.0296608 -0.016758 0 -0.022758 0.00649194 0 296.14 296.14 1000.7 
183 1 1 0.256864 0.0510155 0 0 0 0 -0.0498025 0.0291336 0 -0.0843285 0.0334682 0 -0.0498025 0.0291336 0 203.617 203.617 1000.48 
184 1 1 0.244542 0.0482018 0 0 0 0 -0.0480285 0.0104477 0 -0.0850614 -0.00570166 0 -0.0480285 0.0104477 0 203.761 203.761 1000.48 
185 1 1 0.24333 0.0383632 0 0 0 0 -0.0485137 0.0159392 0 -0.106967 -0.0740001 0 -0.0485137 0.0159392 0 268.681 268.681 1000.64 
186 1 1 0.265215 0.023598 0 0 0 0 -0.0394433 0.0199736 0 -0.0145303 -0.00729045 0 -0.0394433 0.0199736 0 401.775 401.775 1000.95 
187 1 1 0.282957 0.0347193 0 0 0 0 -0.0615847 -0.00287543 0 -0.106634 -0.0271592 0 -0.0615847 -0.00287543 0 328.465 328.465 1000.78 
188 1 1 0.288104 0.0435194 0 0 0 0 -0.0668556 0.00212876 0 -0.0717104 0.012588 0 -0.0668556 0.00212876 0 279.508 279.508 1000.66 
189 1 1 0.305687 0.0323205 0 0 0 0 -0.0712575 2.90033e-05 0 -0.0609794 0.00284578 0 -0.0712575 2.90033e-05 0 371.23 371.23 1000.88 
190 1 1 0.307991 0.0200536 0 0 0 0 -0.0439675 -0.000768597 0 -0.0497694 0.0222627 0 -0.0439675 -0.000768597 0 458.559 458.559 1001.09 
191 1 1 0.312595 0.0402934 0 0 0 0 -0.0679187 0.0152602 0 -0.0932735 0.0216317 0 -0.0679187 0.0152602 0 332.311 332.311 1000.79 
192 1 1 0.314411 0.0282794 0 0 0 0 -0.0708944 0.0183722 0 -0.0565734 0.022464 0 -0.0708944 0.0183722 0 414.537 414.537 1000.98 
193 1 1 0.340945 0.0350855 0 0 0 0 -0.089724 -0.0134637 0 0.00198694 0.014603 0 -0.089724 -0.0134637 0 383.237 383.237 1000.91 
194 1 1 0.32426 0.0463237 0 0 0 0 -0.060204 0.00358601 0 -0.060297 0.0109933 0 -0.060204 0.00358601 0 303.175 303.175 1000.72 
195 1 1 0.348118 0.0448868 0 0 0 0 -0.0871815 -0.0230021 0 -0.160248 -0.00397122 0 -0.0871815 -0.0230021 0 319.536 319.536 1000.76 
196 1 1 0.351818 0.0342137 0 0 0 0 -0.06078 0.00393792 0 -0.0903409 -0.0553506 0 -0.06078 0.00393792 0 390.108 390.108 1000.93 
197 1 1 0.368423 0.0448628 0 0 0 0 -0.0539654 0.0176783 0 -0.126323 -0.0156412 0 -0.0539654 0.0176783 0 343.29 343.29 1000.82 
198 1 1 0.367001 0.0342281 0 0 0 0 -0.0758907 0.0203651 0 -0.0363947 -0.0543782 0 -0.0758907 0.0203651 0 406.997 406.997 1000.97 
199 1 1 0.377545 0.0370182 0 0 0 0 -0.0760916 -0.00450198 0 -0.093213 0.00879012 0 -0.0760916 -0.00450198 0 401.425 401.425 1000.95 
200 1 1 0.36648 0.0209728 0 0 0 0 -0.0703549 0.0137219 0 -0.0662311 -0.0369249 0 -0.0703549 0.0137219 0 492.12 492.12 1001.17 
201 1 1 0.396668 0.0277244 0 0 0 0 -0.0239472 -0.0150412 0 -0.0979521 -0.0265323 0 -0.0239472 -0.0150412 0 474.057 474.057 1001.12 
202 1 1 0.385059 0.0427352 0 0 0 0 -0.0764156 -0.00778345 0 -0.0892297 -0.00991855 0 -0.0764156 -0.00778345 0 373.031 373.031 1000.89 
203 1 1 0.39363 0.0352695 0 0 0 0 -0.0939584 -0.0330354 0 -0.0301977 0.025406 0 -0.0939584 -0.0330354 0 428.423 428.423 1001.02 
204 1 1 0.403883 0.0518797 0 0 0 0 -0.110189 -0.0326573 0 -0.0762433 -0.0211325 0 -0.110189 -0.0326573 0 323.654 323.654 1000.77 
205 1 1 0.403469 0.0150541 0 0 0 0 -0.0822175 -0.00983546 0 -0.00443053 0.0366638 0 -0.0822175 -0.00983546 0 558.983 558.983 1001.33 
206 1 1 0.417795 0.0270035 0 0 0 0 -0.0359482 -0.0396604 0 -0.0723923 0.00764912 0 -0.0359482 -0.0396604 0 503.29 503.29 1001.19 
207 1 1 0.441913 0.0438805 0 0 0 0 -0.0482866 -0.031423 0 -0.0842438 0.0577608 0 -0.0482866 -0.031423 0 430.386 430.386 1001.02 
208 1 1 0.440997 0.0354692 0 0 0 0 -0.0300818 -0.0295302 0 -0.0977014 -0.10081 0 -0.0300818 -0.0295302 0 476.404 476.404 1001.13 
209 1 1 0.429692 0.0401728 0 0 0 0 -0.0637788 -0.0187505 0 0.0267883 -0.0573614 0 -0.0637788 -0.0187505 0 420.805 420.805 1001 
210 1 1 0.453843 0.0347332 0 0 0 0 -0.0707355 -0.00168195 0 -0.0852261 0.0140589 0 -0.0707355 -0.00168195 0 485.443 485.443 1001.15 
211 1 1 0.433461 0.0276459 0 0 0 0 -0.0372696 0.000632111 0 -0.00569601 -0.0236366 0 -0.0372696 0.000632111 0 509.176 509.176 1001.21 
212 1 1 0.460838 0.02847 0 0 0 0 -0.0149957 -0.0188013 0 -0.044077 -0.0216305 0 -0.0149957 -0.0188013 0 526.024 526.024 1001.25 
213 1 1 0.46512 0.0189171 0 0 0 0 -0.0396093 -0.000585178 0 0.0132687 -0.0985211 0 -0.0396093 -0.000585178 0 569.306 569.306 1001.35 
214 1 1 0.474944 0.0432935 0 0 0 0 0.0555487 -0.0290023 0 -0.0066766 -0.0941054 0 0.0555487 -0.0290023 0 450.941 450.941 1001.07 
215 1 1 0.488694 0.0292313 0 0 0 0 0.00991496 0.00257127 0 0.132433 -0.0153779 0 0.00991496 0.00257127 0 533.944 533.944 1001.27 
216 1 1 0.479929 0.0345502 0 0 0 0 -0.0260776 -0.0289662 0 -0.0785274 -0.184886 0 -0.0260776 -0.0289662 0 502.196 502.196 1001.19 
217 1 1 0.48861 0.0390947 0 0 0 0 -0.0153437 -0.0187038 0 0.0807057 -0.0151299 0 -0.0153437 -0.0187038 0 474.967 474.967 1001.13 
218 1 1 0.222097 0.0482183 0 0 0 0 -0.0303547 0.0080494 0 -0.0443516 0.0862654 0 -0.0303547 0.0080494 0 243.796 243.796 1000.58 
219 1 1 0.16539 0.0371282 0 0 0 0 0.00824573 0.00896565 0 0.0606204 0.0289847 0 0.00824573 0.00896565 0 280.593 280.593 1000.67 
220 1 1 0.191418 0.0442478 0 0 0 0 -0.0144544 0.0190563 0 -0.0193192 0.0159659 0 -0.0144544 0.0190563 0 220.421 220.421 1000.52 
221 1 1 0.233326 0.0457357 0 0 0 0 -0.0492428 0.0347908 0 -0.0706101 0.110334 0 -0.0492428 0.0347908 0 230.92 230.92 1000.55 
222 1 1 0.213027 0.0384177 0 0 0 0 -0.0273866 -0.00973067 0 -0.0014057 0.0319028 0 -0.0273866 -0.00973067 0 282.985 282.985 1000.67 
223 1 1 0.264036 0.0430489 0 0 0 0 -0.0520153 0.0136509 0 -0.0409968 -0.0455235 0 -0.0520153 0.0136509 0 266.524 266.524 1000.63 
224 1 1 0.269391 0.0327352 0 0 0 0 -0.0341534 0.00770534 0 -0.057915 0.0331333 0 -0.0341534 0.00770534 0 343.271 343.271 1000.82 
225 1 1 0.274757 0.0413127 0 0 0 0 -0.0535158 0.0203138 0 -0.0126201 0.0614471 0 -0.0535158 0.0203138 0 289.047 289.047 1000.69 
226 1 1 0.292444 0.0540644 0 0 0 0 -0.0507148 0.00477857 0 -0.132929 -0.0258328 0 -0.0507148 0.00477857 0 220.078 220.078 1000.52 
227 1 1 0.297737 0.0273145 0 0 0 0 -0.0514201 0.00811392 0 -0.0216127 -0.08162 0 -0.0514201 0.00811392 0 387.181 387.181 1000.92 
228 1 1 0.302283 0.0444896 0 0 0 0 -0.0642034 0.0276111 0 -0.0868323 -0.0304539 0 -0.0642034 0.0276111 0 280.54 280.54 1000.67 