ITEM: TIMESTEP
58000
ITEM: NUMBER OF ATOMS
754
ITEM: BOX BOUNDS ff ff pp
-0.021 0.521
-0.021 0.5
-0.001 0.001
ITEM: ATOMS id type type x y z ix iy iz vx vy vz fx fy fz vx vy vz p p rho 
1 1 1 0.00915874 0.00691858 0 0 0 0 -0.00834603 -0.00262927 0 0.0846222 0.316894 0 -0.00834603 -0.00262927 0 436.086 436.086 1001.04 
2 1 1 0.0212279 0.00732881 0 0 0 0 -0.0464894 0.0176771 0 0.00798605 0.193958 0 -0.0464894 0.0176771 0 414.902 414.902 1000.98 
3 1 1 0.0477918 0.00730014 0 0 0 0 -0.0376965 -0.0131613 0 -0.0603427 0.230835 0 -0.0376965 -0.0131613 0 441.966 441.966 1001.05 
4 1 1 0.0637445 0.00722259 0 0 0 0 -0.026639 0.0297419 0 -0.0340076 0.0578433 0 -0.026639 0.0297419 0 493.56 493.56 1001.17 
5 1 1 0.091911 0.0078725 0 0 0 0 -0.0407008 0.00925773 0 0.00205746 0.0959682 0 -0.0407008 0.00925773 0 504.325 504.325 1001.2 
6 1 1 0.104387 0.00724959 0 0 0 0 -0.0122789 -0.0201837 0 -0.0173938 0.0415397 0 -0.0122789 -0.0201837 0 452.763 452.763 1001.07 
7 1 1 0.143341 0.00896851 0 0 0 0 -0.0288327 -0.0251573 0 -0.00936716 -0.0243768 0 -0.0288327 -0.0251573 0 509.891 509.891 1001.21 
8 1 1 0.154766 0.00772242 0 0 0 0 -0.0310648 0.0342427 0 -0.102652 0.0641107 0 -0.0310648 0.0342427 0 490.254 490.254 1001.16 
9 1 1 0.185996 0.00811387 0 0 0 0 0.0647501 -0.0216848 0 0.054628 0.00360083 0 0.0647501 -0.0216848 0 508.021 508.021 1001.21 
10 1 1 0.210483 0.00822174 0 0 0 0 0.034141 -0.00883294 0 -0.0934888 -0.0136659 0 0.034141 -0.00883294 0 512.101 512.101 1001.21 
11 1 1 0.0147282 0.0265097 0 0 0 0 -0.121152 0.078944 0 0.110773 0.459802 0 -0.121152 0.078944 0 172.115 172.115 1000.41 
12 1 1 0.0354723 0.00763944 0 0 0 0 -0.0637638 0.00851466 0 -0.00866164 0.188188 0 -0.0637638 0.00851466 0 425.867 425.867 1001.01 
13 1 1 0.0554477 0.0134718 0 0 0 0 -0.0256885 -0.0564517 0 -0.0255687 0.0322851 0 -0.0256885 -0.0564517 0 360.239 360.239 1000.86 
14 1 1 0.0775345 0.00738394 0 0 0 0 -0.0227754 -0.02767 0 -0.0662455 -0.00114356 0 -0.0227754 -0.02767 0 403.531 403.531 1000.96 
15 1 1 0.104587 0.0177792 0 0 0 0 0.00873581 0.0472035 0 -0.0320212 -0.00558615 0 0.00873581 0.0472035 0 382.366 382.366 1000.91 
16 1 1 0.130956 0.00738518 0 0 0 0 -0.0341468 0.0168514 0 0.00736331 0.0653926 0 -0.0341468 0.0168514 0 485.612 485.612 1001.15 
17 1 1 0.150618 0.0179787 0 0 0 0 0.0037812 -7.27865e-05 0 -0.0563341 0.0210321 0 0.0037812 -7.27865e-05 0 398.032 398.032 1000.95 
18 1 1 0.174668 0.00827666 0 0 0 0 0.0610701 0.0245842 0 -0.032012 0.0123335 0 0.0610701 0.0245842 0 479.891 479.891 1001.14 
19 1 1 0.198469 0.00781847 0 0 0 0 0.0544885 0.0130668 0 -0.112304 0.0452947 0 0.0544885 0.0130668 0 526.128 526.128 1001.25 
20 1 1 0.201261 0.0161339 0 0 0 0 0.0184448 0.0172069 0 0.0654891 0.0533604 0 0.0184448 0.0172069 0 443.712 443.712 1001.05 
21 1 1 0.0176748 0.0175282 0 0 0 0 -0.0206391 0.113082 0 0.121836 0.283989 0 -0.0206391 0.113082 0 313.658 313.658 1000.75 
22 1 1 0.027513 0.0144709 0 0 0 0 -0.0743543 -0.0285334 0 0.00895421 0.171367 0 -0.0743543 -0.0285334 0 370.919 370.919 1000.88 
23 1 1 0.0401455 0.0169008 0 0 0 0 -0.0724332 6.03168e-05 0 -0.1221 0.0378937 0 -0.0724332 6.03168e-05 0 356.62 356.62 1000.85 
24 1 1 0.0806176 0.0199288 0 0 0 0 -0.0115064 -0.0131082 0 -0.091002 0.073919 0 -0.0115064 -0.0131082 0 333.565 333.565 1000.79 
25 1 1 0.0860142 0.0145221 0 0 0 0 -0.0217013 -0.00257987 0 -0.0683913 0.075473 0 -0.0217013 -0.00257987 0 426.125 426.125 1001.01 
26 1 1 0.118442 0.00799538 0 0 0 0 0.0110105 -0.00685425 0 -0.0128768 -0.0214136 0 0.0110105 -0.00685425 0 483.339 483.339 1001.15 
27 1 1 0.139585 0.0161233 0 0 0 0 0.0120016 -0.0123349 0 -0.137727 0.0500882 0 0.0120016 -0.0123349 0 417.477 417.477 1000.99 
28 1 1 0.164735 0.00976164 0 0 0 0 -0.00991895 -0.0867684 0 0.0413769 0.0576503 0 -0.00991895 -0.0867684 0 490.839 490.839 1001.16 
29 1 1 0.192408 0.0187664 0 0 0 0 0.0258727 -0.0228279 0 -0.0580508 -0.00715604 0 0.0258727 -0.0228279 0 419.421 419.421 1001 
30 1 1 0.208911 0.0256141 0 0 0 0 0.0574024 -0.0385494 0 -0.0489783 0.0438878 0 0.0574024 -0.0385494 0 379.597 379.597 1000.9 
31 1 1 0.00862854 0.0182838 0 0 0 0 0.028848 0.0057024 0 0.0357732 0.323085 0 0.028848 0.0057024 0 376.034 376.034 1000.89 
32 1 1 0.0314691 0.0222202 0 0 0 0 -0.039078 0.0414515 0 -0.0807585 0.3699 0 -0.039078 0.0414515 0 226.758 226.758 1000.54 
33 1 1 0.0711321 0.0150053 0 0 0 0 -0.0713239 0.0421079 0 0.0726129 0.0764141 0 -0.0713239 0.0421079 0 411.853 411.853 1000.98 
34 1 1 0.0976386 0.0180397 0 0 0 0 -0.0287068 -0.0481327 0 -0.143401 0.0103802 0 -0.0287068 -0.0481327 0 367.708 367.708 1000.87 
35 1 1 0.127753 0.0160947 0 0 0 0 0.0198001 0.0343864 0 -0.063153 -0.0206461 0 0.0198001 0.0343864 0 420.852 420.852 1001 
36 1 1 0.142765 0.0254343 0 0 0 0 -0.0214011 0.0216085 0 0.0366519 -0.0469402 0 -0.0214011 0.0216085 0 331.917 331.917 1000.79 
37 1 1 0.172217 0.0181226 0 0 0 0 -0.0544136 -0.0668736 0 -0.108671 -0.0158126 0 -0.0544136 -0.0668736 0 423.359 423.359 1001 
38 1 1 0.183978 0.0167504 0 0 0 0 -0.00233157 0.0108406 0 -0.147055 -0.0305688 0 -0.00233157 0.0108406 0 428.995 428.995 1001.02 
39 1 1 0.198514 0.0274827 0 0 0 0 0.0372432 0.0135644 0 -0.115721 -0.0307819 0 0.0372432 0.0135644 0 331.074 331.074 1000.79 
40 1 1 0.18599 0.0402038 0 0 0 0 -0.00655435 -0.0741014 0 -0.0613705 -0.0395906 0 -0.00655435 -0.0741014 0 202.202 202.202 1000.48 
41 1 1 0.0063667 0.0336837 0 0 0 0 0.0104235 -0.00692274 0 -0.480269 -0.115237 0 0.0104235 -0.00692274 0 -28.7544 -28.7544 999.932 
42 1 1 0.0147226 0.0350706 0 0 0 0 -0.00742367 0.115333 0 -0.348996 -0.564763 0 -0.00742367 0.115333 0 -35.8536 -35.8536 999.915 
43 1 1 0.0492223 0.0194337 0 0 0 0 -0.079951 -2.27248e-05 0 -0.15347 0.0284968 0 -0.079951 -2.27248e-05 0 356.887 356.887 1000.85 
44 1 1 0.0761465 0.0287605 0 0 0 0 -0.0383959 0.00725992 0 -0.0302837 0.117908 0 -0.0383959 0.00725992 0 258.625 258.625 1000.61 
45 1 1 0.109168 0.0275363 0 0 0 0 -0.0404159 0.0422852 0 -0.0922742 -0.0532068 0 -0.0404159 0.0422852 0 289.102 289.102 1000.69 
46 1 1 0.130676 0.0245264 0 0 0 0 -0.0167658 0.00170899 0 -0.105084 -0.0007263 0 -0.0167658 0.00170899 0 336.229 336.229 1000.8 
47 1 1 0.160382 0.0187962 0 0 0 0 -0.00979265 0.0117807 0 -0.0278292 -0.112631 0 -0.00979265 0.0117807 0 407.242 407.242 1000.97 
48 1 1 0.187075 0.0283131 0 0 0 0 0.0226423 -0.0513964 0 0.0377504 0.0674561 0 0.0226423 -0.0513964 0 323.583 323.583 1000.77 
49 1 1 0.195738 0.0365607 0 0 0 0 0.0205685 -0.000492648 0 -0.0789329 -0.0247597 0 0.0205685 -0.000492648 0 245.643 245.643 1000.58 
50 1 1 0.180881 0.0502634 0 0 0 0 0.0157352 -0.0640763 0 -0.0272989 0.0373373 0 0.0157352 -0.0640763 0 67.8286 67.8286 1000.16 
51 1 1 0.00859326 0.0461942 0 0 0 0 0.105523 0.0703055 0 0.523612 2.7433 0 0.105523 0.0703055 0 237.065 237.065 1000.56 
52 1 1 0.0421303 0.0288949 0 0 0 0 0.0240703 -0.0379187 0 -0.270382 0.291256 0 0.0240703 -0.0379187 0 181.429 181.429 1000.43 
53 1 1 0.0544791 0.0277865 0 0 0 0 -0.126123 -0.0225596 0 -0.00423063 0.155896 0 -0.126123 -0.0225596 0 294.084 294.084 1000.7 
54 1 1 0.0911773 0.0255059 0 0 0 0 -0.0145619 -0.0166443 0 -0.0893621 0.0488186 0 -0.0145619 -0.0166443 0 270.132 270.132 1000.64 
55 1 1 0.114403 0.0328932 0 0 0 0 -0.0114518 0.0181482 0 -0.107227 0.0177452 0 -0.0114518 0.0181482 0 268.373 268.373 1000.64 
56 1 1 0.134212 0.0327259 0 0 0 0 -0.00814405 -0.0387863 0 -0.0356174 0.0928321 0 -0.00814405 -0.0387863 0 250.721 250.721 1000.6 
57 1 1 0.158812 0.026369 0 0 0 0 -0.000516024 -0.00962486 0 -0.127169 0.090742 0 -0.000516024 -0.00962486 0 325.487 325.487 1000.77 
58 1 1 0.162551 0.0401921 0 0 0 0 -0.0361391 -0.00277361 0 -0.0331737 -0.0215094 0 -0.0361391 -0.00277361 0 189.25 189.25 1000.45 
59 1 1 0.178168 0.0346162 0 0 0 0 -0.0136461 -0.0471437 0 -0.0583316 0.051125 0 -0.0136461 -0.0471437 0 274.161 274.161 1000.65 
60 1 1 0.196932 0.0462379 0 0 0 0 -0.0111901 -0.0392363 0 -0.0398559 0.0220024 0 -0.0111901 -0.0392363 0 84.5182 84.5182 1000.2 
61 1 1 0.0399444 0.0323841 0 0 0 0 0.061983 0.0927222 0 -0.247339 0.280546 0 0.061983 0.0927222 0 23.1202 23.1202 1000.06 
62 1 1 0.0269691 0.0272255 0 0 0 0 0.0622702 -0.0504446 0 -0.170912 0.274707 0 0.0622702 -0.0504446 0 90.1256 90.1256 1000.21 
63 1 1 0.0635201 0.0193876 0 0 0 0 -0.00730313 -0.0194456 0 -0.136403 0.12902 0 -0.00730313 -0.0194456 0 310.439 310.439 1000.74 
64 1 1 0.0701598 0.0374592 0 0 0 0 -0.129558 -0.00624446 0 -0.0358126 0.0943108 0 -0.129558 -0.00624446 0 96.1663 96.1663 1000.23 
65 1 1 0.099594 0.0306134 0 0 0 0 -0.0284815 -0.0188378 0 -0.0807146 0.119714 0 -0.0284815 -0.0188378 0 208.725 208.725 1000.5 
66 1 1 0.114 0.0148262 0 0 0 0 -0.0694701 -0.00774641 0 -0.0737057 0.0949723 0 -0.0694701 -0.00774641 0 444.853 444.853 1001.06 
67 1 1 0.147202 0.0317796 0 0 0 0 -0.00703777 -0.00678343 0 -0.000240278 0.0161731 0 -0.00703777 -0.00678343 0 268.707 268.707 1000.64 
68 1 1 0.166931 0.03013 0 0 0 0 4.92742e-05 -0.0482292 0 0.026834 0.0396628 0 4.92742e-05 -0.0482292 0 281.678 281.678 1000.67 
69 1 1 0.176373 0.0250584 0 0 0 0 0.00646196 -0.0473786 0 -0.0595385 -0.00722252 0 0.00646196 -0.0473786 0 347.045 347.045 1000.82 
70 1 1 0.171063 0.0513586 0 0 0 0 -0.0372478 -0.0834128 0 0.00145167 0.0581961 0 -0.0372478 -0.0834128 0 70.4214 70.4214 1000.17 
71 1 1 0.0190976 0.0543384 0 0 0 0 -0.27707 -0.408871 0 -1.42745 -3.22439 0 -0.27707 -0.408871 0 -1837.38 -1837.38 995.567 
72 1 1 0.0192145 0.0439609 0 0 0 0 0.16105 0.397392 0 0.589553 4.42458 0 0.16105 0.397392 0 309.694 309.694 1000.74 
73 1 1 0.031152 0.0419268 0 0 0 0 0.0200583 -0.0801532 0 0.283038 1.2471 0 0.0200583 -0.0801532 0 48.6185 48.6185 1000.12 
74 1 1 0.067494 0.0275856 0 0 0 0 0.0435586 -0.0118002 0 -0.183065 0.0924515 0 0.0435586 -0.0118002 0 240.121 240.121 1000.57 
75 1 1 0.0840475 0.032835 0 0 0 0 -0.0332337 -0.00782684 0 -0.0728631 0.0912776 0 -0.0332337 -0.00782684 0 177.653 177.653 1000.42 
76 1 1 0.120005 0.0220195 0 0 0 0 -0.0481504 -0.0854168 0 -0.103609 0.101019 0 -0.0481504 -0.0854168 0 319.886 319.886 1000.76 
77 1 1 0.123019 0.0342608 0 0 0 0 -0.0768729 -0.0329863 0 0.0764455 -0.108731 0 -0.0768729 -0.0329863 0 245.023 245.023 1000.58 
78 1 1 0.154222 0.0366683 0 0 0 0 -0.0103714 0.0293101 0 -0.0511381 0.0200389 0 -0.0103714 0.0293101 0 210.227 210.227 1000.5 
79 1 1 0.171484 0.0422427 0 0 0 0 0.00549624 -0.0661146 0 -0.0130352 -0.011628 0 0.00549624 -0.0661146 0 176.52 176.52 1000.42 
80 1 1 0.136729 0.0514606 0 0 0 0 -0.113432 -0.029832 0 -0.0841709 0.0366999 0 -0.113432 -0.029832 0 73.4542 73.4542 1000.17 
81 1 1 0.00981979 0.0837092 0 0 0 0 -0.0514596 -0.332189 0 -1.31989 -1.00295 0 -0.0514596 -0.332189 0 72.3167 72.3167 1000.17 
82 1 1 0.0263222 0.0375819 0 0 0 0 -0.200142 -0.0430448 0 0.240994 -0.116762 0 -0.200142 -0.0430448 0 71.4018 71.4018 1000.17 
83 1 1 0.0435548 0.0402645 0 0 0 0 -0.0723625 0.117333 0 -0.419392 0.521821 0 -0.0723625 0.117333 0 -42.2257 -42.2257 999.899 
84 1 1 0.0572685 0.0350635 0 0 0 0 -0.0897352 -0.059993 0 -0.11855 0.240799 0 -0.0897352 -0.059993 0 168.679 168.679 1000.4 
85 1 1 0.0934318 0.0372317 0 0 0 0 -0.0478575 -0.0180468 0 0.0733687 0.0876721 0 -0.0478575 -0.0180468 0 169.1 169.1 1000.4 
86 1 1 0.105943 0.0407928 0 0 0 0 -0.0283334 0.0416987 0 -0.244112 0.111431 0 -0.0283334 0.0416987 0 132.936 132.936 1000.32 
87 1 1 0.122341 0.04403 0 0 0 0 -0.101049 -0.0633413 0 -0.0314757 0.0850376 0 -0.101049 -0.0633413 0 154.18 154.18 1000.37 
88 1 1 0.134833 0.0408326 0 0 0 0 -0.0669027 0.00380783 0 -0.107648 0.0508224 0 -0.0669027 0.00380783 0 152.458 152.458 1000.36 
89 1 1 0.143986 0.0437401 0 0 0 0 -0.0953003 -0.0481159 0 -0.0465983 0.00309008 0 -0.0953003 -0.0481159 0 147.374 147.374 1000.35 
90 1 1 0.150932 0.0484249 0 0 0 0 -0.0682989 -0.0343557 0 -0.0374007 0.0396377 0 -0.0682989 -0.0343557 0 87.797 87.797 1000.21 
91 1 1 0.0222228 0.0614903 0 0 0 0 0.365151 0.279826 0 -1.45057 -6.63843 0 0.365151 0.279826 0 -5066.65 -5066.65 987.476 
92 1 1 0.00540092 0.0629417 0 0 0 0 0.156314 -0.152162 0 4.73242 1.00506 0 0.156314 -0.152162 0 -1671.63 -1671.63 995.972 
93 1 1 0.0353314 0.0529414 0 0 0 0 -0.120669 0.0743781 0 -4.14903 -0.0109732 0 -0.120669 0.0743781 0 -561.997 -561.997 998.657 
94 1 1 0.0439194 0.0513663 0 0 0 0 -0.125225 0.127131 0 -0.800582 -1.60125 0 -0.125225 0.127131 0 -327.552 -327.552 999.218 
95 1 1 0.0552896 0.0431766 0 0 0 0 -0.14353 -0.015202 0 -0.532615 0.164909 0 -0.14353 -0.015202 0 68.1413 68.1413 1000.16 
96 1 1 0.0686367 0.0456277 0 0 0 0 -0.120726 -0.0469875 0 0.000229178 0.0171419 0 -0.120726 -0.0469875 0 99.9534 99.9534 1000.24 
97 1 1 0.0829462 0.0424426 0 0 0 0 -0.026294 -0.0219168 0 -0.27258 0.150862 0 -0.026294 -0.0219168 0 113.202 113.202 1000.27 
98 1 1 0.109762 0.0464154 0 0 0 0 -0.163329 0.0588309 0 -0.109079 -0.0688092 0 -0.163329 0.0588309 0 32.3685 32.3685 1000.08 
99 1 1 0.12183 0.0502823 0 0 0 0 -0.124014 -0.035209 0 -0.0816961 0.0724066 0 -0.124014 -0.035209 0 73.2881 73.2881 1000.17 
100 1 1 0.0941117 0.049943 0 0 0 0 -0.118318 0.0110516 0 -0.0219952 0.0904264 0 -0.118318 0.0110516 0 179.058 179.058 1000.43 
101 1 1 0.212343 0.0178523 0 0 0 0 0.0644778 -0.0323331 0 -0.00177456 0.0320688 0 0.0644778 -0.0323331 0 460.664 460.664 1001.09 
102 1 1 0.221114 0.00914902 0 0 0 0 0.0779573 -0.0195176 0 -0.104791 -0.0245149 0 0.0779573 -0.0195176 0 523.263 523.263 1001.24 
103 1 1 0.223075 0.0178205 0 0 0 0 0.03382 0.00784063 0 -0.0341316 0.0266205 0 0.03382 0.00784063 0 451.794 451.794 1001.07 
104 1 1 0.23191 0.00781705 0 0 0 0 0.0609977 0.0143737 0 -0.0612866 0.064881 0 0.0609977 0.0143737 0 535.951 535.951 1001.27 
105 1 1 0.234077 0.0170327 0 0 0 0 0.0359365 0.0159878 0 -0.0524183 -0.0723846 0 0.0359365 0.0159878 0 467.349 467.349 1001.11 
106 1 1 0.243158 0.00863287 0 0 0 0 0.0434098 -0.00471856 0 -0.0942429 -0.0215627 0 0.0434098 -0.00471856 0 518.083 518.083 1001.23 
107 1 1 0.249189 0.0157921 0 0 0 0 0.0441376 0.0346912 0 0.0312398 -0.00443334 0 0.0441376 0.0346912 0 489.731 489.731 1001.16 
108 1 1 0.255114 0.00824928 0 0 0 0 0.0318381 -0.00666668 0 -0.0135943 -0.0445362 0 0.0318381 -0.00666668 0 516.774 516.774 1001.23 
109 1 1 0.261694 0.0170853 0 0 0 0 0.0249582 -0.00815258 0 -0.0191624 -0.00178993 0 0.0249582 -0.00815258 0 478.084 478.084 1001.13 
110 1 1 0.267113 0.00800444 0 0 0 0 0.0576597 -0.0230076 0 0.0018263 0.0421514 0 0.0576597 -0.0230076 0 545.137 545.137 1001.29 
111 1 1 0.277539 0.00942436 0 0 0 0 0.0492619 0.0170072 0 -0.0741787 -0.0265105 0 0.0492619 0.0170072 0 517.99 517.99 1001.23 
112 1 1 0.288005 0.00821907 0 0 0 0 0.0491074 -0.00807351 0 -0.0234778 -0.0149485 0 0.0491074 -0.00807351 0 558.945 558.945 1001.33 
113 1 1 0.300104 0.00832868 0 0 0 0 0.0537714 -0.00458126 0 -0.0894454 0.00947935 0 0.0537714 -0.00458126 0 565.417 565.417 1001.34 
114 1 1 0.310261 0.00937045 0 0 0 0 0.0684397 -0.0214979 0 -0.0656667 -0.0612113 0 0.0684397 -0.0214979 0 553.451 553.451 1001.31 
115 1 1 0.320317 0.0172379 0 0 0 0 0.043864 0.00792752 0 0.0249344 0.0886152 0 0.043864 0.00792752 0 510.808 510.808 1001.21 
116 1 1 0.321269 0.00727119 0 0 0 0 0.0723024 0.00616665 0 -0.0547409 0.00802648 0 0.0723024 0.00616665 0 594.444 594.444 1001.41 
117 1 1 0.329626 0.0142042 0 0 0 0 0.0735873 -0.00316014 0 -0.180942 -0.00804336 0 0.0735873 -0.00316014 0 544.533 544.533 1001.29 
118 1 1 0.336777 0.00740503 0 0 0 0 0.0489998 0.00836447 0 -0.0288216 0.00946546 0 0.0489998 0.00836447 0 624.14 624.14 1001.48 
119 1 1 0.350164 0.00791748 0 0 0 0 0.0760237 -0.0271572 0 -0.26026 0.0641916 0 0.0760237 -0.0271572 0 659.894 659.894 1001.56 
120 1 1 0.3594 0.014829 0 0 0 0 0.0714492 0.0239841 0 -0.0207096 -0.00748844 0 0.0714492 0.0239841 0 585.991 585.991 1001.39 
121 1 1 0.364121 0.0072542 0 0 0 0 0.01677 0.0246822 0 -0.104167 -0.0642807 0 0.01677 0.0246822 0 610.733 610.733 1001.45 
122 1 1 0.378717 0.0082474 0 0 0 0 0.0449555 -0.0350417 0 -0.0589721 0.0430877 0 0.0449555 -0.0350417 0 700.534 700.534 1001.66 
123 1 1 0.380243 0.0226829 0 0 0 0 0.096786 -0.00381496 0 -0.0852044 -0.339873 0 0.096786 -0.00381496 0 539.431 539.431 1001.28 
124 1 1 0.387236 0.011208 0 0 0 0 0.0830035 -0.0126445 0 -0.210417 0.00347428 0 0.0830035 -0.0126445 0 619.137 619.137 1001.47 
125 1 1 0.396449 0.00990011 0 0 0 0 0.0739712 0.0179259 0 -0.25436 -0.10935 0 0.0739712 0.0179259 0 668.543 668.543 1001.58 
126 1 1 0.404451 0.0212273 0 0 0 0 0.126169 -0.0209344 0 -0.210887 -0.262066 0 0.126169 -0.0209344 0 619.441 619.441 1001.47 
127 1 1 0.403982 0.00937217 0 0 0 0 0.0446623 0.0426537 0 0.0183766 -0.0149722 0 0.0446623 0.0426537 0 718.677 718.677 1001.7 
128 1 1 0.414242 0.00910263 0 0 0 0 0.0578449 -0.0829559 0 -0.166864 0.0765397 0 0.0578449 -0.0829559 0 747.405 747.405 1001.77 
129 1 1 0.424463 0.00784131 0 0 0 0 0.0936473 0.0364001 0 -0.0344287 -0.027776 0 0.0936473 0.0364001 0 758.117 758.117 1001.8 
130 1 1 0.43224 0.0142451 0 0 0 0 0.0431745 0.026418 0 -0.231158 0.25481 0 0.0431745 0.026418 0 725.161 725.161 1001.72 
131 1 1 0.437916 0.00849182 0 0 0 0 0.0800375 -0.00971499 0 -0.0700778 -0.269611 0 0.0800375 -0.00971499 0 751.111 751.111 1001.78 
132 1 1 0.440278 0.0214896 0 0 0 0 0.0149342 0.0362087 0 -0.123916 -0.183242 0 0.0149342 0.0362087 0 620.122 620.122 1001.47 
133 1 1 0.44652 0.0105882 0 0 0 0 0.0140679 0.0797343 0 -0.101642 0.155815 0 0.0140679 0.0797343 0 772.271 772.271 1001.83 
134 1 1 0.451317 0.0182486 0 0 0 0 0.0450423 0.0105706 0 -0.0329617 -0.105822 0 0.0450423 0.0105706 0 655.271 655.271 1001.55 
135 1 1 0.456525 0.00737301 0 0 0 0 -0.0327818 -0.0160459 0 -0.0571567 0.0265239 0 -0.0327818 -0.0160459 0 806.1 806.1 1001.91 
136 1 1 0.463792 0.0137176 0 0 0 0 -0.00977721 0.00880975 0 -0.0794257 0.00158738 0 -0.00977721 0.00880975 0 756.364 756.364 1001.79 
137 1 1 0.471149 0.00771007 0 0 0 0 -0.0495771 0.0132534 0 -0.10819 -0.0148455 0 -0.0495771 0.0132534 0 797.085 797.085 1001.89 
138 1 1 0.480787 0.00990266 0 0 0 0 -0.0182034 -0.0350535 0 -0.0572685 -0.00925714 0 -0.0182034 -0.0350535 0 795.059 795.059 1001.88 
139 1 1 0.491029 0.0074613 0 0 0 0 0.00044968 0.0121423 0 -0.0123225 -0.00733414 0 0.00044968 0.0121423 0 791.666 791.666 1001.87 
140 1 1 0.215576 0.037319 0 0 0 0 0.0430413 0.0237712 0 -0.0761447 0.0121917 0 0.0430413 0.0237712 0 226.874 226.874 1000.54 
141 1 1 0.219148 0.0288122 0 0 0 0 -0.00895849 0.0121888 0 -0.0818309 -0.0510618 0 -0.00895849 0.0121888 0 317.707 317.707 1000.75 
142 1 1 0.250712 0.030546 0 0 0 0 0.112063 0.0574842 0 -0.120333 0.0331984 0 0.112063 0.0574842 0 309.638 309.638 1000.74 
143 1 1 0.228419 0.0265094 0 0 0 0 0.0552538 -0.0133645 0 0.00841668 0.0197363 0 0.0552538 -0.0133645 0 364.739 364.739 1000.87 
144 1 1 0.258216 0.0384216 0 0 0 0 0.105701 0.0100334 0 -0.139169 -0.0938136 0 0.105701 0.0100334 0 231.149 231.149 1000.55 
145 1 1 0.241391 0.0216655 0 0 0 0 0.0856486 -0.00168668 0 0.063041 -0.0444458 0 0.0856486 -0.00168668 0 442.374 442.374 1001.05 
146 1 1 0.272737 0.0329614 0 0 0 0 0.0985846 -0.0232644 0 -0.160113 0.0667591 0 0.0985846 -0.0232644 0 336.075 336.075 1000.8 
147 1 1 0.255604 0.024268 0 0 0 0 0.0557438 0.000217674 0 -0.0992858 0.019922 0 0.0557438 0.000217674 0 397.062 397.062 1000.94 
148 1 1 0.263774 0.0297827 0 0 0 0 0.0893868 0.0191184 0 0.0796516 -0.128004 0 0.0893868 0.0191184 0 343.919 343.919 1000.82 
149 1 1 0.270277 0.0184485 0 0 0 0 -0.00343437 -0.00895421 0 -0.0555721 0.0723943 0 -0.00343437 -0.00895421 0 456.078 456.078 1001.08 
150 1 1 0.299973 0.0238195 0 0 0 0 0.0533279 -0.0100834 0 -0.0029638 0.0394996 0 0.0533279 -0.0100834 0 448.935 448.935 1001.07 
151 1 1 0.28205 0.018525 0 0 0 0 0.0406943 0.00356508 0 -0.00191769 -0.0388814 0 0.0406943 0.00356508 0 468.542 468.542 1001.11 
152 1 1 0.292278 0.0160159 0 0 0 0 0.0332392 -0.00874142 0 -0.0122875 0.0842362 0 0.0332392 -0.00874142 0 506.87 506.87 1001.2 
153 1 1 0.305278 0.0180549 0 0 0 0 0.0106879 0.00507033 0 -0.0621973 -0.0348766 0 0.0106879 0.00507033 0 484.281 484.281 1001.15 
154 1 1 0.331938 0.0235319 0 0 0 0 0.0734652 -0.00885317 0 -0.14683 -0.00113654 0 0.0734652 -0.00885317 0 479.229 479.229 1001.14 
155 1 1 0.340072 0.0168975 0 0 0 0 0.101311 -0.0167507 0 -0.0377774 -0.0296357 0 0.101311 -0.0167507 0 538.381 538.381 1001.28 
156 1 1 0.344305 0.0262492 0 0 0 0 0.0905028 -0.00948752 0 -0.183415 0.106518 0 0.0905028 -0.00948752 0 452.327 452.327 1001.07 
157 1 1 0.34925 0.0169702 0 0 0 0 0.0694443 0.00994591 0 -0.0693088 0.0415568 0 0.0694443 0.00994591 0 542.26 542.26 1001.29 
158 1 1 0.354249 0.0283192 0 0 0 0 0.100865 -0.00128606 0 -0.172865 -0.0203224 0 0.100865 -0.00128606 0 462.74 462.74 1001.1 
159 1 1 0.361809 0.0227213 0 0 0 0 0.137744 0.0136605 0 -0.170705 0.0314985 0 0.137744 0.0136605 0 554.695 554.695 1001.32 
160 1 1 0.372509 0.013657 0 0 0 0 0.10606 -0.0124623 0 -0.31251 0.0938639 0 0.10606 -0.0124623 0 657.925 657.925 1001.56 
161 1 1 0.371865 0.0235222 0 0 0 0 0.0792605 -0.0496731 0 -0.115835 0.0915152 0 0.0792605 -0.0496731 0 535.388 535.388 1001.27 
162 1 1 0.385247 0.0293611 0 0 0 0 0.0820252 -0.00311141 0 -0.205401 0.0057341 0 0.0820252 -0.00311141 0 521.994 521.994 1001.24 
163 1 1 0.390967 0.018394 0 0 0 0 0.0736888 0.0225553 0 -0.0720611 0.18521 0 0.0736888 0.0225553 0 590.622 590.622 1001.4 
164 1 1 0.400596 0.026031 0 0 0 0 0.0916601 0.0141012 0 -0.117745 0.0074357 0 0.0916601 0.0141012 0 541.663 541.663 1001.28 
165 1 1 0.414904 0.0287857 0 0 0 0 0.174436 0.0182522 0 -0.378397 0.102465 0 0.174436 0.0182522 0 536.972 536.972 1001.27 
166 1 1 0.413208 0.0186036 0 0 0 0 0.0535984 0.0210887 0 -0.12436 -0.045018 0 0.0535984 0.0210887 0 630.513 630.513 1001.49 
167 1 1 0.422782 0.0320784 0 0 0 0 0.0890174 0.0569266 0 -0.300593 0.0517186 0 0.0890174 0.0569266 0 542.777 542.777 1001.29 
168 1 1 0.422194 0.0190945 0 0 0 0 0.0350658 -0.0525867 0 -0.0923416 -0.0618063 0 0.0350658 -0.0525867 0 650.668 650.668 1001.54 
169 1 1 0.428649 0.0380597 0 0 0 0 0.089084 0.106379 0 -0.0214646 0.0517512 0 0.089084 0.106379 0 465.916 465.916 1001.11 
170 1 1 0.429978 0.0248594 0 0 0 0 0.0482869 0.0299643 0 -0.0421314 -0.0883893 0 0.0482869 0.0299643 0 590.238 590.238 1001.4 
171 1 1 0.437596 0.0312698 0 0 0 0 0.0100392 0.0557871 0 -0.0966527 0.00852561 0 0.0100392 0.0557871 0 578.787 578.787 1001.37 
172 1 1 0.448068 0.0267372 0 0 0 0 0.00566967 0.0867179 0 -0.192946 -0.0384756 0 0.00566967 0.0867179 0 595.688 595.688 1001.41 
173 1 1 0.456132 0.0310009 0 0 0 0 0.046475 0.0466743 0 -0.0195008 0.0124983 0 0.046475 0.0466743 0 597.045 597.045 1001.42 
174 1 1 0.461224 0.0216603 0 0 0 0 -0.00390071 0.0518527 0 -0.0457814 0.0839615 0 -0.00390071 0.0518527 0 688.082 688.082 1001.63 
175 1 1 0.473011 0.0299126 0 0 0 0 0.0628815 0.0326146 0 -0.107537 -0.0262787 0 0.0628815 0.0326146 0 642.711 642.711 1001.52 
176 1 1 0.471783 0.0203482 0 0 0 0 -0.0198982 -0.0108639 0 0.0595758 -0.118139 0 -0.0198982 -0.0108639 0 705.432 705.432 1001.67 
177 1 1 0.481463 0.0180826 0 0 0 0 -0.0195248 -0.0359334 0 -0.00785887 -0.0272438 0 -0.0195248 -0.0359334 0 729.233 729.233 1001.73 
178 1 1 0.491161 0.0187331 0 0 0 0 5.04862e-05 -0.0247896 0 -0.0343058 -0.00920451 0 5.04862e-05 -0.0247896 0 722.938 722.938 1001.71 
179 1 1 0.205685 0.0359392 0 0 0 0 0.0198328 -0.0521755 0 0.000797244 0.0795442 0 0.0198328 -0.0521755 0 237.442 237.442 1000.56 
180 1 1 0.227434 0.0363553 0 0 0 0 0.0677144 -0.0660045 0 -0.0190338 -0.00854086 0 0.0677144 -0.0660045 0 260.521 260.521 1000.62 
181 1 1 0.239547 0.0383132 0 0 0 0 0.0677724 -0.0115464 0 -0.108384 0.0224163 0 0.0677724 -0.0115464 0 250.043 250.043 1000.59 
182 1 1 0.23931 0.0300864 0 0 0 0 0.0686689 -0.031049 0 -0.0781858 0.00550256 0 0.0686689 -0.031049 0 328.308 328.308 1000.78 
183 1 1 0.252973 0.0481321 0 0 0 0 0.046092 -0.0406168 0 0.0397764 0.00139994 0 0.046092 -0.0406168 0 145.236 145.236 1000.35 
184 1 1 0.24628 0.0421761 0 0 0 0 0.040747 0.00293298 0 0.0309184 -0.0182843 0 0.040747 0.00293298 0 223.291 223.291 1000.53 
185 1 1 0.264196 0.042965 0 0 0 0 0.132219 0.00150351 0 -0.00218831 -0.00192247 0 0.132219 0.00150351 0 198.508 198.508 1000.47 
186 1 1 0.277302 0.0258657 0 0 0 0 0.0647985 -0.0337996 0 -0.0174117 0.02997 0 0.0647985 -0.0337996 0 421.8 421.8 1001 
187 1 1 0.290274 0.0270117 0 0 0 0 0.0941823 0.0145929 0 -0.145714 0.0130219 0 0.0941823 0.0145929 0 392.52 392.52 1000.93 
188 1 1 0.301059 0.0331912 0 0 0 0 0.0941974 0.0174981 0 -0.118311 0.0586639 0 0.0941974 0.0174981 0 335.213 335.213 1000.8 
189 1 1 0.317095 0.0424261 0 0 0 0 0.0383801 -0.0110361 0 -0.0836089 -0.0142905 0 0.0383801 -0.0110361 0 250.366 250.366 1000.6 
190 1 1 0.31447 0.0215179 0 0 0 0 0.0364419 -0.0463182 0 -0.187897 0.0679284 0 0.0364419 -0.0463182 0 466.085 466.085 1001.11 
191 1 1 0.32984 0.0420487 0 0 0 0 0.0610397 -0.0787793 0 -0.109437 0.0533859 0 0.0610397 -0.0787793 0 290.536 290.536 1000.69 
192 1 1 0.321314 0.0307944 0 0 0 0 0.0582058 -0.0428675 0 -0.184313 -0.0369559 0 0.0582058 -0.0428675 0 377.248 377.248 1000.9 
193 1 1 0.339222 0.0340905 0 0 0 0 0.108546 0.00465614 0 -0.174361 0.0357017 0 0.108546 0.00465614 0 357.729 357.729 1000.85 
194 1 1 0.343293 0.0442358 0 0 0 0 0.104808 0.00963786 0 -0.238791 0.0805717 0 0.104808 0.00963786 0 286.554 286.554 1000.68 
195 1 1 0.349081 0.0372872 0 0 0 0 0.104182 -0.0175641 0 -0.00774647 0.0575142 0 0.104182 -0.0175641 0 350.291 350.291 1000.83 
196 1 1 0.362079 0.035736 0 0 0 0 0.0811968 -0.016977 0 -0.0987413 -0.0130592 0 0.0811968 -0.016977 0 395.347 395.347 1000.94 
197 1 1 0.375218 0.0427206 0 0 0 0 0.114971 -0.0242464 0 -0.294719 0.0166424 0 0.114971 -0.0242464 0 363.082 363.082 1000.86 
198 1 1 0.370128 0.0326674 0 0 0 0 0.122338 0.0280432 0 -0.0968294 0.0568066 0 0.122338 0.0280432 0 395.021 395.021 1000.94 
199 1 1 0.383144 0.0508472 0 0 0 0 0.189857 0.0558324 0 -0.146919 0.0179402 0 0.189857 0.0558324 0 244.899 244.899 1000.58 
200 1 1 0.380767 0.0382731 0 0 0 0 0.131338 0.0307961 0 0.0386301 -0.0271862 0 0.131338 0.0307961 0 441.302 441.302 1001.05 
201 1 1 0.392624 0.031134 0 0 0 0 0.124496 -0.0186196 0 -0.121931 0.334068 0 0.124496 -0.0186196 0 539.182 539.182 1001.28 
202 1 1 0.398124 0.0457691 0 0 0 0 0.0815851 0.0795205 0 -0.213207 0.0695274 0 0.0815851 0.0795205 0 339.034 339.034 1000.81 
203 1 1 0.402207 0.036642 0 0 0 0 0.129718 0.00582757 0 -0.135085 -0.0162035 0 0.129718 0.00582757 0 444.189 444.189 1001.05 
204 1 1 0.408136 0.0477453 0 0 0 0 0.0752746 0.0407967 0 -0.107039 0.173551 0 0.0752746 0.0407967 0 331.671 331.671 1000.79 
205 1 1 0.410729 0.0375523 0 0 0 0 0.0476884 0.0226167 0 -0.000274315 -0.180735 0 0.0476884 0.0226167 0 483.176 483.176 1001.15 
206 1 1 0.419064 0.0443859 0 0 0 0 0.0503168 -0.0391 0 -0.109911 -0.107229 0 0.0503168 -0.0391 0 408.374 408.374 1000.97 
207 1 1 0.432888 0.0458531 0 0 0 0 0.0888258 0.145437 0 -0.173695 -0.130196 0 0.0888258 0.145437 0 412.764 412.764 1000.98 
208 1 1 0.44051 0.0533144 0 0 0 0 0.134853 0.0974462 0 -0.0245645 -0.110374 0 0.134853 0.0974462 0 347.015 347.015 1000.82 
209 1 1 0.441563 0.0404594 0 0 0 0 0.0820281 0.052341 0 -0.265133 0.0440194 0 0.0820281 0.052341 0 456.251 456.251 1001.08 
210 1 1 0.449218 0.0506761 0 0 0 0 0.114926 0.0546533 0 -0.322982 -0.146186 0 0.114926 0.0546533 0 430.433 430.433 1001.02 
211 1 1 0.44892 0.0389688 0 0 0 0 0.0222004 -0.0375976 0 0.0297723 0.0260803 0 0.0222004 -0.0375976 0 540.599 540.599 1001.28 
212 1 1 0.45886 0.0424892 0 0 0 0 0.0719656 0.0739527 0 -0.160358 -0.0654959 0 0.0719656 0.0739527 0 498.927 498.927 1001.18 
213 1 1 0.464992 0.0334426 0 0 0 0 0.0652394 -0.0158874 0 -0.149018 -0.0231885 0 0.0652394 -0.0158874 0 593.353 593.353 1001.41 
214 1 1 0.471324 0.0421845 0 0 0 0 0.0435142 -0.00495462 0 -0.028883 -0.169704 0 0.0435142 -0.00495462 0 538.831 538.831 1001.28 
215 1 1 0.480201 0.0406648 0 0 0 0 0.0621439 0.066202 0 -0.128955 -0.165157 0 0.0621439 0.066202 0 535.868 535.868 1001.27 
216 1 1 0.482278 0.0287796 0 0 0 0 0.0122099 -0.0546345 0 -0.0599317 0.0166733 0 0.0122099 -0.0546345 0 692.399 692.399 1001.64 
217 1 1 0.490276 0.030505 0 0 0 0 -0.00872437 0.0151494 0 -0.0142786 0.00615843 0 -0.00872437 0.0151494 0 726.051 726.051 1001.72 
218 1 1 0.222533 0.0457643 0 0 0 0 0.0145609 -0.0119278 0 -0.109459 -0.0401147 0 0.0145609 -0.0119278 0 140.028 140.028 1000.33 
219 1 1 0.189351 0.0500853 0 0 0 0 -0.0070163 -0.0491993 0 0.0221932 0.0907273 0 -0.0070163 -0.0491993 0 74.7912 74.7912 1000.18 
220 1 1 0.209238 0.0458666 0 0 0 0 0.021472 -0.0160959 0 -0.0429527 0.01898 0 0.021472 -0.0160959 0 173.593 173.593 1000.41 
221 1 1 0.236858 0.0543012 0 0 0 0 0.0224468 -0.0431098 0 0.0482373 -0.0883131 0 0.0224468 -0.0431098 0 96.4024 96.4024 1000.23 
222 1 1 0.23197 0.0455851 0 0 0 0 -0.0053275 -0.0857533 0 -0.00962098 -0.0419514 0 -0.0053275 -0.0857533 0 146.896 146.896 1000.35 
223 1 1 0.277366 0.0410042 0 0 0 0 0.0665097 0.0290238 0 -0.0501863 0.0666663 0 0.0665097 0.0290238 0 236.445 236.445 1000.56 
224 1 1 0.286313 0.0344618 0 0 0 0 0.0387538 -0.0195048 0 -0.0764007 0.00398328 0 0.0387538 -0.0195048 0 327.012 327.012 1000.78 
225 1 1 0.292503 0.0410809 0 0 0 0 0.0516319 -0.0146792 0 -0.0057501 -0.0238356 0 0.0516319 -0.0146792 0 263.382 263.382 1000.63 
226 1 1 0.296524 0.0498399 0 0 0 0 0.070779 0.0140662 0 -0.0914837 -0.0134335 0 0.070779 0.0140662 0 190.384 190.384 1000.45 
227 1 1 0.312047 0.0318283 0 0 0 0 0.0945018 8.3954e-05 0 -0.141784 -0.0294079 0 0.0945018 8.3954e-05 0 380.791 380.791 1000.9 
228 1 1 0.305746 0.0400901 0 0 0 0 0.0696731 -0.0210501 0 -0.05865 0.194666 0 0.0696731 -0.0210501 0 281.256 281.256 1000.67 
229 1 1 0.318521 0.0484761 0 0 0 0 0.102141 -0.0372187 0 -0.107936 0.0807085 0 0.102141 -0.0372187 0 179.904 179.904 1000.43 
230 1 1 0.328958 0.0321122 0 0 0 0 0.10527 -0.0554573 0 -0.0532188 0.0620719 0 0.10527 -0.0554573 0 392.5 392.5 1000.93 
231 1 1 0.332457 0.04976 0 0 0 0 0.0482454 -0.06599 0 -0.159563 0.00940979 0 0.0482454 -0.06599 0 203.491 203.491 1000.48 
232 1 1 0.349425 0.0507549 0 0 0 0 0.113596 -0.0631377 0 -0.117984 -0.0216511 0 0.113596 -0.0631377 0 243.1 243.1 1000.58 
233 1 1 0.359271 0.0430969 0 0 0 0 0.155236 0.00593498 0 -0.223448 0.00119517 0 0.155236 0.00593498 0 307.853 307.853 1000.73 