ITEM: TIMESTEP
24000
ITEM: NUMBER OF ATOMS
754
ITEM: BOX BOUNDS ff ff pp
-0.021 0.521
-0.021 0.5
-0.001 0.001
ITEM: ATOMS id type type x y z ix iy iz vx vy vz fx fy fz vx vy vz p p rho 
1 1 1 0.00899456 0.00850848 0 0 0 0 -0.020499 -0.00052549 0 -0.239136 0.0405513 0 -0.020499 -0.00052549 0 849.292 849.292 1002.01 
2 1 1 0.0218784 0.00783713 0 0 0 0 -0.0369874 -0.029155 0 0.323349 0.147374 0 -0.0369874 -0.029155 0 877.651 877.651 1002.08 
3 1 1 0.0375251 0.00781853 0 0 0 0 0.040229 -0.0286464 0 0.679242 0.128498 0 0.040229 -0.0286464 0 929.38 929.38 1002.2 
4 1 1 0.0532789 0.00762871 0 0 0 0 0.120608 -0.018529 0 0.496508 0.0033402 0 0.120608 -0.018529 0 887.014 887.014 1002.1 
5 1 1 0.0705539 0.00808617 0 0 0 0 0.181349 -0.00454365 0 0.386922 -0.130712 0 0.181349 -0.00454365 0 794.509 794.509 1001.88 
6 1 1 0.0868483 0.00784364 0 0 0 0 0.203283 -0.0226544 0 0.4459 -0.055828 0 0.203283 -0.0226544 0 729.593 729.593 1001.73 
7 1 1 0.104317 0.00780105 0 0 0 0 0.257916 -0.00743954 0 0.151927 -0.113108 0 0.257916 -0.00743954 0 667.385 667.385 1001.58 
8 1 1 0.118248 0.00751299 0 0 0 0 0.251515 -0.00778305 0 0.239585 0.010655 0 0.251515 -0.00778305 0 678.223 678.223 1001.61 
9 1 1 0.135932 0.00824844 0 0 0 0 0.285145 0.00181631 0 0.0812279 -0.10928 0 0.285145 0.00181631 0 668.979 668.979 1001.59 
10 1 1 0.151342 0.00797793 0 0 0 0 0.28343 0.0024323 0 -0.13367 0.00118817 0 0.28343 0.0024323 0 707.015 707.015 1001.67 
11 1 1 0.0164173 0.0153121 0 0 0 0 0.108771 -0.0105575 0 0.161306 0.410797 0 0.108771 -0.0105575 0 782.074 782.074 1001.85 
12 1 1 0.0326151 0.013869 0 0 0 0 0.183963 -0.0340356 0 -0.260041 0.237302 0 0.183963 -0.0340356 0 857.738 857.738 1002.03 
13 1 1 0.0498031 0.0141366 0 0 0 0 0.247139 -0.0210679 0 -0.26479 0.147152 0 0.247139 -0.0210679 0 824.26 824.26 1001.95 
14 1 1 0.0655495 0.0130928 0 0 0 0 0.202598 -0.0531765 0 -0.391152 0.119016 0 0.202598 -0.0531765 0 766.513 766.513 1001.82 
15 1 1 0.0809806 0.0134434 0 0 0 0 0.216366 0.00471645 0 -0.0741233 0.23721 0 0.216366 0.00471645 0 700.664 700.664 1001.66 
16 1 1 0.0965683 0.0131363 0 0 0 0 0.250606 -0.0242109 0 -0.0482728 -0.195034 0 0.250606 -0.0242109 0 665.266 665.266 1001.58 
17 1 1 0.112793 0.0162118 0 0 0 0 0.279051 0.0217387 0 -0.112488 -0.0316911 0 0.279051 0.0217387 0 589.308 589.308 1001.4 
18 1 1 0.130477 0.0128783 0 0 0 0 0.305788 0.00308752 0 -0.270153 -0.0678274 0 0.305788 0.00308752 0 637.583 637.583 1001.51 
19 1 1 0.143697 0.0148761 0 0 0 0 0.330703 -0.0312811 0 -0.202514 -0.0619143 0 0.330703 -0.0312811 0 606.843 606.843 1001.44 
20 1 1 0.151645 0.0184346 0 0 0 0 0.302977 0.037153 0 0.0437652 -0.101391 0 0.302977 0.037153 0 575.676 575.676 1001.37 
21 1 1 0.00943628 0.0212719 0 0 0 0 -0.0610013 -0.0511707 0 -0.177085 0.363976 0 -0.0610013 -0.0511707 0 691.171 691.171 1001.64 
22 1 1 0.0250343 0.0200754 0 0 0 0 -0.0286527 -0.0628128 0 -0.194376 0.429799 0 -0.0286527 -0.0628128 0 726.729 726.729 1001.72 
23 1 1 0.0404526 0.0195885 0 0 0 0 -0.0318837 -0.0644123 0 -0.0635302 0.376254 0 -0.0318837 -0.0644123 0 747.532 747.532 1001.77 
24 1 1 0.0559921 0.0197113 0 0 0 0 0.0437178 -0.0278021 0 0.502547 0.367142 0 0.0437178 -0.0278021 0 727.296 727.296 1001.72 
25 1 1 0.0714169 0.0201339 0 0 0 0 0.144534 -0.0283465 0 0.570742 0.00456919 0 0.144534 -0.0283465 0 661.754 661.754 1001.57 
26 1 1 0.087674 0.019989 0 0 0 0 0.207648 -0.0522512 0 0.241258 -0.0593286 0 0.207648 -0.0522512 0 617.706 617.706 1001.46 
27 1 1 0.102857 0.0189131 0 0 0 0 0.214832 -0.0475936 0 0.111613 0.118984 0 0.214832 -0.0475936 0 586.096 586.096 1001.39 
28 1 1 0.121588 0.0171191 0 0 0 0 0.306633 -0.0642671 0 0.131042 -0.00973009 0 0.306633 -0.0642671 0 599.408 599.408 1001.42 
29 1 1 0.136404 0.0235753 0 0 0 0 0.298674 0.0029545 0 0.254329 -0.109106 0 0.298674 0.0029545 0 502.639 502.639 1001.19 
30 1 1 0.155738 0.0280184 0 0 0 0 0.335818 0.071303 0 0.0182694 0.0987097 0 0.335818 0.071303 0 493.084 493.084 1001.17 
31 1 1 0.0145115 0.0280316 0 0 0 0 0.111079 -0.0846955 0 0.373598 0.568195 0 0.111079 -0.0846955 0 542.229 542.229 1001.29 
32 1 1 0.029933 0.0267345 0 0 0 0 0.199355 -0.0580567 0 0.332644 0.6864 0 0.199355 -0.0580567 0 619.243 619.243 1001.47 
33 1 1 0.0456769 0.0264005 0 0 0 0 0.209449 -0.0659558 0 0.0872604 0.341188 0 0.209449 -0.0659558 0 633.492 633.492 1001.5 
34 1 1 0.0631262 0.0264921 0 0 0 0 0.211789 -0.0342792 0 -0.0677842 0.257065 0 0.211789 -0.0342792 0 584.275 584.275 1001.39 
35 1 1 0.0813995 0.0269757 0 0 0 0 0.246186 -0.0355994 0 0.043424 0.133888 0 0.246186 -0.0355994 0 540.476 540.476 1001.28 
36 1 1 0.101193 0.0273563 0 0 0 0 0.291758 -0.00310281 0 0.017788 0.17085 0 0.291758 -0.00310281 0 503.761 503.761 1001.2 
37 1 1 0.120306 0.0273397 0 0 0 0 0.333677 -0.0062483 0 0.0219078 0.0800628 0 0.333677 -0.0062483 0 480.282 480.282 1001.14 
38 1 1 0.13076 0.0256963 0 0 0 0 0.317646 -0.0394584 0 -0.186986 0.12048 0 0.317646 -0.0394584 0 478.606 478.606 1001.14 
39 1 1 0.146566 0.0274012 0 0 0 0 0.33507 -0.0061746 0 -0.235794 0.221687 0 0.33507 -0.0061746 0 490.809 490.809 1001.16 
40 1 1 0.156778 0.0401107 0 0 0 0 0.320225 0.0944531 0 0.0134045 -0.192812 0 0.320225 0.0944531 0 372.637 372.637 1000.88 
41 1 1 0.0110475 0.0347242 0 0 0 0 -0.00799141 -0.113233 0 0.125959 0.552794 0 -0.00799141 -0.113233 0 434.384 434.384 1001.03 
42 1 1 0.0257155 0.0329892 0 0 0 0 0.0174392 -0.111935 0 -0.107955 0.552914 0 0.0174392 -0.111935 0 471.097 471.097 1001.12 
43 1 1 0.0418134 0.0326605 0 0 0 0 0.0422815 -0.0768965 0 -0.321924 0.403744 0 0.0422815 -0.0768965 0 535.774 535.774 1001.27 
44 1 1 0.0562191 0.0319355 0 0 0 0 0.0822937 -0.0900242 0 0.0934306 0.256019 0 0.0822937 -0.0900242 0 521.702 521.702 1001.24 
45 1 1 0.0726767 0.030529 0 0 0 0 0.189343 -0.114608 0 0.315443 0.216974 0 0.189343 -0.114608 0 533.058 533.058 1001.26 
46 1 1 0.0918444 0.0289323 0 0 0 0 0.286246 -0.104171 0 0.339453 0.135148 0 0.286246 -0.104171 0 496.585 496.585 1001.18 
47 1 1 0.112032 0.0282882 0 0 0 0 0.334278 -0.109634 0 0.0149138 -0.0400524 0 0.334278 -0.109634 0 478.578 478.578 1001.14 
48 1 1 0.138284 0.0353493 0 0 0 0 0.359805 -0.0235719 0 -0.128174 -0.197599 0 0.359805 -0.0235719 0 396.811 396.811 1000.94 
49 1 1 0.149461 0.0393564 0 0 0 0 0.321838 -0.0211462 0 -0.166411 -0.266589 0 0.321838 -0.0211462 0 356.875 356.875 1000.85 
50 1 1 0.158591 0.0558261 0 0 0 0 0.207979 0.0499264 0 -0.422721 -0.0869685 0 0.207979 0.0499264 0 240.788 240.788 1000.57 
51 1 1 0.0116271 0.0422594 0 0 0 0 0.016009 -0.0906407 0 0.0827633 0.703389 0 0.016009 -0.0906407 0 320.04 320.04 1000.76 
52 1 1 0.0261615 0.0399702 0 0 0 0 0.0538776 -0.113951 0 0.00276044 0.358347 0 0.0538776 -0.113951 0 354.103 354.103 1000.84 
53 1 1 0.0404993 0.0394135 0 0 0 0 0.0495478 -0.0902767 0 -0.216733 0.484643 0 0.0495478 -0.0902767 0 410.124 410.124 1000.97 
54 1 1 0.0562707 0.0388009 0 0 0 0 0.149631 -0.0957111 0 0.0825304 0.270622 0 0.149631 -0.0957111 0 422.634 422.634 1001 
55 1 1 0.0726669 0.037517 0 0 0 0 0.224259 -0.0937048 0 0.223625 0.309573 0 0.224259 -0.0937048 0 441.678 441.678 1001.05 
56 1 1 0.0902923 0.0366608 0 0 0 0 0.287712 -0.0589708 0 0.229966 0.219507 0 0.287712 -0.0589708 0 398.536 398.536 1000.95 
57 1 1 0.107017 0.0366814 0 0 0 0 0.287696 -0.0552684 0 0.156052 0.0820526 0 0.287696 -0.0552684 0 377.591 377.591 1000.9 
58 1 1 0.128174 0.0373768 0 0 0 0 0.360471 0.0272322 0 0.0460236 0.117792 0 0.360471 0.0272322 0 334.204 334.204 1000.79 
59 1 1 0.150833 0.0509823 0 0 0 0 0.215613 0.0413296 0 -0.343346 0.079437 0 0.215613 0.0413296 0 257.367 257.367 1000.61 
60 1 1 0.163451 0.0614507 0 0 0 0 0.255302 -0.0459568 0 -0.183351 -0.13712 0 0.255302 -0.0459568 0 229.39 229.39 1000.55 
61 1 1 0.0117568 0.0494707 0 0 0 0 0.029985 -0.133123 0 -0.183984 0.683668 0 0.029985 -0.133123 0 117.859 117.859 1000.28 
62 1 1 0.0251169 0.0470476 0 0 0 0 0.00732542 -0.082111 0 -0.205849 0.253299 0 0.00732542 -0.082111 0 279.465 279.465 1000.66 
63 1 1 0.0404033 0.0460555 0 0 0 0 0.101023 -0.121586 0 0.00375873 0.398852 0 0.101023 -0.121586 0 284.187 284.187 1000.68 
64 1 1 0.0559842 0.0452128 0 0 0 0 0.171271 -0.116619 0 -0.0801638 0.293085 0 0.171271 -0.116619 0 327.388 327.388 1000.78 
65 1 1 0.0707835 0.0440882 0 0 0 0 0.176868 -0.113696 0 -0.0041954 0.234158 0 0.176868 -0.113696 0 339.13 339.13 1000.81 
66 1 1 0.0858768 0.0420819 0 0 0 0 0.196507 -0.123847 0 -0.0236677 0.0359309 0 0.196507 -0.123847 0 326.265 326.265 1000.78 
67 1 1 0.103651 0.041989 0 0 0 0 0.255576 -0.0901288 0 0.000677466 0.0897513 0 0.255576 -0.0901288 0 305.856 305.856 1000.73 
68 1 1 0.120365 0.0381221 0 0 0 0 0.26029 -0.0903327 0 -0.020165 0.087371 0 0.26029 -0.0903327 0 320.55 320.55 1000.76 
69 1 1 0.140444 0.0434397 0 0 0 0 0.246122 -0.0313891 0 -0.146918 0.00571804 0 0.246122 -0.0313891 0 302.873 302.873 1000.72 
70 1 1 0.161529 0.0792532 0 0 0 0 0.130539 -0.218308 0 -0.275866 -0.387301 0 0.130539 -0.218308 0 60.3803 60.3803 1000.14 
71 1 1 0.0102861 0.0573205 0 0 0 0 -0.0306545 -0.209645 0 -0.439098 0.615306 0 -0.0306545 -0.209645 0 -111.662 -111.662 999.734 
72 1 1 0.0247771 0.0539681 0 0 0 0 0.0142864 -0.110385 0 -0.464028 0.51039 0 0.0142864 -0.110385 0 167.41 167.41 1000.4 
73 1 1 0.0384794 0.0528764 0 0 0 0 0.0832277 -0.148978 0 -0.0437881 0.216083 0 0.0832277 -0.148978 0 169.247 169.247 1000.4 
74 1 1 0.0527587 0.0521613 0 0 0 0 0.120557 -0.137869 0 -0.272532 0.153514 0 0.120557 -0.137869 0 208.035 208.035 1000.49 
75 1 1 0.0674625 0.0507893 0 0 0 0 0.156503 -0.144776 0 0.0222632 0.155349 0 0.156503 -0.144776 0 230.611 230.611 1000.55 
76 1 1 0.0831307 0.0486898 0 0 0 0 0.227669 -0.125628 0 0.0485592 0.11663 0 0.227669 -0.125628 0 226.163 226.163 1000.54 
77 1 1 0.0983833 0.0473774 0 0 0 0 0.240204 -0.101382 0 0.0116553 0.0586969 0 0.240204 -0.101382 0 228.956 228.956 1000.54 
78 1 1 0.118266 0.0454645 0 0 0 0 0.308347 -0.0832164 0 -0.0232629 0.086153 0 0.308347 -0.0832164 0 230.081 230.081 1000.55 
79 1 1 0.137464 0.0506966 0 0 0 0 0.286056 0.0339784 0 -0.103936 0.292484 0 0.286056 0.0339784 0 241.369 241.369 1000.57 
80 1 1 0.147272 0.0716004 0 0 0 0 0.0100131 -0.000937122 0 -0.204917 -0.160743 0 0.0100131 -0.000937122 0 72.0813 72.0813 1000.17 
81 1 1 0.0108123 0.0667751 0 0 0 0 -0.164061 0.112199 0 -0.876222 -0.500878 0 -0.164061 0.112199 0 -60.3635 -60.3635 999.856 
82 1 1 0.025187 0.0609251 0 0 0 0 0.1187 -0.228727 0 -0.534232 0.299206 0 0.1187 -0.228727 0 -17.4955 -17.4955 999.958 
83 1 1 0.0376767 0.0603109 0 0 0 0 0.0560215 -0.145356 0 -0.11566 0.0427433 0 0.0560215 -0.145356 0 80.8445 80.8445 1000.19 
84 1 1 0.0524133 0.0591834 0 0 0 0 0.140198 -0.165339 0 -0.134602 0.121991 0 0.140198 -0.165339 0 105.587 105.587 1000.25 
85 1 1 0.0662274 0.0578768 0 0 0 0 0.180756 -0.153617 0 0.0749414 0.208981 0 0.180756 -0.153617 0 131.282 131.282 1000.31 
86 1 1 0.0809436 0.0558295 0 0 0 0 0.231332 -0.149199 0 0.0651032 0.210078 0 0.231332 -0.149199 0 132.2 132.2 1000.31 
87 1 1 0.0960044 0.0543973 0 0 0 0 0.280697 -0.123537 0 0.117692 0.280055 0 0.280697 -0.123537 0 141.987 141.987 1000.34 
88 1 1 0.112971 0.0512825 0 0 0 0 0.326052 -0.0797123 0 -0.0501055 0.241075 0 0.326052 -0.0797123 0 164.876 164.876 1000.39 
89 1 1 0.129514 0.0503063 0 0 0 0 0.265052 -0.0515463 0 -0.244777 0.0842756 0 0.265052 -0.0515463 0 220.213 220.213 1000.52 
90 1 1 0.145749 0.0609378 0 0 0 0 0.109846 -0.0320127 0 -0.204931 -0.331631 0 0.109846 -0.0320127 0 229.459 229.459 1000.55 
91 1 1 0.00804697 0.073211 0 0 0 0 0.171554 -0.312182 0 -3.19254 1.07517 0 0.171554 -0.312182 0 -172.242 -172.242 999.589 
92 1 1 0.0201266 0.06962 0 0 0 0 0.0740173 -0.135157 0 -0.85149 -1.47598 0 0.0740173 -0.135157 0 -265.092 -265.092 999.368 
93 1 1 0.0353988 0.0669768 0 0 0 0 0.0223928 -0.171166 0 -0.306789 -0.29789 0 0.0223928 -0.171166 0 23.4111 23.4111 1000.06 
94 1 1 0.0495068 0.0658999 0 0 0 0 0.129244 -0.210826 0 -0.0863355 -0.0936973 0 0.129244 -0.210826 0 45.4854 45.4854 1000.11 
95 1 1 0.0634462 0.0647188 0 0 0 0 0.161001 -0.187791 0 0.0352803 0.163061 0 0.161001 -0.187791 0 79.1646 79.1646 1000.19 
96 1 1 0.0777064 0.0623973 0 0 0 0 0.225456 -0.193931 0 0.104517 0.22639 0 0.225456 -0.193931 0 88.5377 88.5377 1000.21 
97 1 1 0.0922261 0.0602932 0 0 0 0 0.27918 -0.164324 0 0.111517 0.351063 0 0.27918 -0.164324 0 104.682 104.682 1000.25 
98 1 1 0.107798 0.0571473 0 0 0 0 0.350915 -0.121501 0 0.0676397 0.471666 0 0.350915 -0.121501 0 120.043 120.043 1000.29 
99 1 1 0.122745 0.0571398 0 0 0 0 0.30392 0.012128 0 -0.196065 0.493206 0 0.30392 0.012128 0 152.128 152.128 1000.36 
100 1 1 0.134503 0.0640707 0 0 0 0 0.0982583 0.119275 0 -0.555889 0.151084 0 0.0982583 0.119275 0 163.512 163.512 1000.39 
101 1 1 0.161891 0.017675 0 0 0 0 0.301999 0.0144903 0 -0.111367 -0.100429 0 0.301999 0.0144903 0 588.387 588.387 1001.4 
102 1 1 0.163406 0.00871965 0 0 0 0 0.239955 0.0314982 0 -0.116549 -0.0670955 0 0.239955 0.0314982 0 676.052 676.052 1001.6 
103 1 1 0.172775 0.0142943 0 0 0 0 0.263033 -0.0111631 0 -0.03302 0.125364 0 0.263033 -0.0111631 0 630.293 630.293 1001.49 
104 1 1 0.177679 0.0085984 0 0 0 0 0.248282 -0.00435795 0 0.110814 -0.116683 0 0.248282 -0.00435795 0 680.238 680.238 1001.61 
105 1 1 0.186424 0.0168446 0 0 0 0 0.238141 0.0286785 0 -0.183691 -0.0506683 0 0.238141 0.0286785 0 606.282 606.282 1001.44 
106 1 1 0.19027 0.00853735 0 0 0 0 0.232676 0.000342739 0 0.00895053 -0.141147 0 0.232676 0.000342739 0 688.199 688.199 1001.63 
107 1 1 0.198446 0.0146954 0 0 0 0 0.196502 0.0771158 0 0.109113 -0.0208407 0 0.196502 0.0771158 0 611.802 611.802 1001.45 
108 1 1 0.204195 0.00886014 0 0 0 0 0.167188 -0.0316016 0 0.0033468 0.161516 0 0.167188 -0.0316016 0 668.812 668.812 1001.58 
109 1 1 0.213241 0.0114504 0 0 0 0 0.176505 0.0150808 0 -0.101649 0.000475883 0 0.176505 0.0150808 0 627.121 627.121 1001.49 
110 1 1 0.220552 0.0104118 0 0 0 0 0.177246 -0.0237491 0 0.0364973 -0.188284 0 0.177246 -0.0237491 0 642.796 642.796 1001.52 
111 1 1 0.228804 0.0109878 0 0 0 0 0.188601 0.0108942 0 -0.00619432 -0.10101 0 0.188601 0.0108942 0 654.154 654.154 1001.55 
112 1 1 0.236415 0.0106569 0 0 0 0 0.184288 0.0101176 0 0.0678813 -0.00944896 0 0.184288 0.0101176 0 661.173 661.173 1001.57 
113 1 1 0.244439 0.010502 0 0 0 0 0.179708 0.0169056 0 0.0740954 0.14125 0 0.179708 0.0169056 0 658.016 658.016 1001.56 
114 1 1 0.252389 0.0103233 0 0 0 0 0.160162 0.0106717 0 0.0885848 0.133748 0 0.160162 0.0106717 0 649.048 649.048 1001.54 
115 1 1 0.260635 0.010222 0 0 0 0 0.149614 0.00564384 0 0.0782272 0.0951313 0 0.149614 0.00564384 0 635.271 635.271 1001.51 
116 1 1 0.268988 0.0101281 0 0 0 0 0.132175 0.00324285 0 0.0919981 0.0451798 0 0.132175 0.00324285 0 620.423 620.423 1001.47 
117 1 1 0.277543 0.0100646 0 0 0 0 0.117923 0.00402153 0 0.108144 0.00811484 0 0.117923 0.00402153 0 605.595 605.595 1001.44 
118 1 1 0.286283 0.00997918 0 0 0 0 0.101865 0.00516916 0 0.112163 -0.0039839 0 0.101865 0.00516916 0 593.199 593.199 1001.41 
119 1 1 0.295205 0.00988735 0 0 0 0 0.0867981 0.00568302 0 0.104056 -0.0100579 0 0.0867981 0.00568302 0 583.57 583.57 1001.38 
120 1 1 0.304301 0.00979903 0 0 0 0 0.0738491 0.00553584 0 0.0871549 -0.0140217 0 0.0738491 0.00553584 0 575.242 575.242 1001.36 
121 1 1 0.313539 0.00971749 0 0 0 0 0.0626325 0.00489595 0 0.0724933 -0.0149471 0 0.0626325 0.00489595 0 567.457 567.457 1001.35 
122 1 1 0.322899 0.00964703 0 0 0 0 0.053428 0.00404497 0 0.0620827 -0.0146785 0 0.053428 0.00404497 0 560.049 560.049 1001.33 
123 1 1 0.332359 0.0095876 0 0 0 0 0.0451183 0.00321071 0 0.0560399 -0.013736 0 0.0451183 0.00321071 0 552.965 552.965 1001.31 
124 1 1 0.341907 0.00953769 0 0 0 0 0.0379982 0.00238479 0 0.0492165 -0.0120829 0 0.0379982 0.00238479 0 546.029 546.029 1001.3 
125 1 1 0.35153 0.00949711 0 0 0 0 0.0315152 0.00167073 0 0.0439735 -0.0106988 0 0.0315152 0.00167073 0 539.324 539.324 1001.28 
126 1 1 0.361218 0.0094632 0 0 0 0 0.0261728 0.00105045 0 0.0383257 -0.00963869 0 0.0261728 0.00105045 0 533.137 533.137 1001.26 
127 1 1 0.370962 0.00943561 0 0 0 0 0.021277 0.000542693 0 0.033913 -0.00894504 0 0.021277 0.000542693 0 527.613 527.613 1001.25 
128 1 1 0.380754 0.00941177 0 0 0 0 0.0175383 2.1795e-05 0 0.0285835 -0.00875629 0 0.0175383 2.1795e-05 0 522.835 522.835 1001.24 
129 1 1 0.390588 0.00939291 0 0 0 0 0.0140126 -0.0002294 0 0.0250271 -0.00847676 0 0.0140126 -0.0002294 0 518.762 518.762 1001.23 
130 1 1 0.400458 0.00937368 0 0 0 0 0.0116719 -0.000728128 0 0.0203928 -0.00830597 0 0.0116719 -0.000728128 0 515.416 515.416 1001.22 
131 1 1 0.410367 0.00935348 0 0 0 0 0.00927065 -0.000894963 0 0.0176878 -0.0084936 0 0.00927065 -0.000894963 0 512.664 512.664 1001.22 
132 1 1 0.420294 0.00935796 0 0 0 0 0.0079172 -0.000965697 0 0.0141319 -0.00806313 0 0.0079172 -0.000965697 0 510.325 510.325 1001.21 
133 1 1 0.430275 0.00928258 0 0 0 0 0.0063369 -0.00155409 0 0.011396 -0.00782941 0 0.0063369 -0.00155409 0 509.035 509.035 1001.21 
134 1 1 0.440254 0.00938636 0 0 0 0 0.00544766 -0.000842405 0 0.00884532 -0.00913092 0 0.00544766 -0.000842405 0 506.67 506.67 1001.2 
135 1 1 0.450275 0.00919341 0 0 0 0 0.0042755 -0.00174944 0 0.00614283 -0.00825466 0 0.0042755 -0.00174944 0 506.875 506.875 1001.2 
136 1 1 0.460315 0.00939466 0 0 0 0 0.00299457 -0.000503097 0 0.00519178 -0.00996652 0 0.00299457 -0.000503097 0 504.089 504.089 1001.2 
137 1 1 0.470431 0.00909257 0 0 0 0 0.00282701 -0.00324789 0 0.00553012 -0.0123771 0 0.00282701 -0.00324789 0 505.72 505.72 1001.2 
138 1 1 0.480369 0.00950507 0 0 0 0 0.00234452 0.000166703 0 0.0095816 -0.0119439 0 0.00234452 0.000166703 0 499.215 499.215 1001.18 
139 1 1 0.490873 0.00841418 0 0 0 0 0.00159086 -0.00427489 0 -0.00355991 -0.0117462 0 0.00159086 -0.00427489 0 495.458 495.458 1001.18 
140 1 1 0.165057 0.0330395 0 0 0 0 0.320588 0.0704536 0 -0.115315 0.150237 0 0.320588 0.0704536 0 465.382 465.382 1001.1 
141 1 1 0.16834 0.0249166 0 0 0 0 0.276933 0.061873 0 -0.0759442 -0.181434 0 0.276933 0.061873 0 523.73 523.73 1001.24 
142 1 1 0.175782 0.0322214 0 0 0 0 0.321875 -0.00354006 0 -0.0460044 -0.0551424 0 0.321875 -0.00354006 0 457.423 457.423 1001.09 
143 1 1 0.179933 0.0230076 0 0 0 0 0.250588 0.00659236 0 -0.0614888 -0.122119 0 0.250588 0.00659236 0 551.004 551.004 1001.31 
144 1 1 0.18776 0.0328503 0 0 0 0 0.328684 0.0680686 0 0.0567428 -0.316849 0 0.328684 0.0680686 0 460.047 460.047 1001.09 
145 1 1 0.192422 0.0243285 0 0 0 0 0.242474 0.0361134 0 0.0376936 0.0501067 0 0.242474 0.0361134 0 524.083 524.083 1001.24 
146 1 1 0.200432 0.027966 0 0 0 0 0.299511 0.103675 0 0.134295 0.0319763 0 0.299511 0.103675 0 488.59 488.59 1001.16 
147 1 1 0.206611 0.0227331 0 0 0 0 0.198606 -0.0239395 0 0.0609696 0.0458628 0 0.198606 -0.0239395 0 536.315 536.315 1001.27 
148 1 1 0.213824 0.0235016 0 0 0 0 0.213578 0.0237305 0 0.0946803 0.248981 0 0.213578 0.0237305 0 522.955 522.955 1001.24 
149 1 1 0.221581 0.0234362 0 0 0 0 0.179591 -0.0264881 0 0.043961 -0.012284 0 0.179591 -0.0264881 0 505.773 505.773 1001.2 
150 1 1 0.229202 0.0233351 0 0 0 0 0.176602 -0.0229593 0 0.00257439 -0.124539 0 0.176602 -0.0229593 0 503.944 503.944 1001.2 
151 1 1 0.237229 0.0235395 0 0 0 0 0.177658 -0.00481293 0 -0.0192118 -0.274889 0 0.177658 -0.00481293 0 510.597 510.597 1001.21 
152 1 1 0.245128 0.0234992 0 0 0 0 0.179691 0.0134999 0 0.00555209 -0.304202 0 0.179691 0.0134999 0 521.934 521.934 1001.24 
153 1 1 0.253088 0.023115 0 0 0 0 0.176021 0.0270405 0 0.043955 -0.240083 0 0.176021 0.0270405 0 532.838 532.838 1001.26 
154 1 1 0.261184 0.0227638 0 0 0 0 0.16633 0.0368739 0 0.079307 -0.152153 0 0.16633 0.0368739 0 532.33 532.33 1001.26 
155 1 1 0.269444 0.0222756 0 0 0 0 0.149788 0.0378756 0 0.106094 -0.0653394 0 0.149788 0.0378756 0 526.18 526.18 1001.25 
156 1 1 0.27792 0.0218218 0 0 0 0 0.131441 0.0365989 0 0.116658 0.00797619 0 0.131441 0.0365989 0 515.34 515.34 1001.22 
157 1 1 0.2866 0.0213942 0 0 0 0 0.113492 0.0315253 0 0.117165 0.0537709 0 0.113492 0.0315253 0 503.424 503.424 1001.19 
158 1 1 0.295478 0.0210328 0 0 0 0 0.0971665 0.0254177 0 0.107553 0.0705063 0 0.0971665 0.0254177 0 491.8 491.8 1001.17 
159 1 1 0.304522 0.02074 0 0 0 0 0.0827206 0.0195434 0 0.0964346 0.0644739 0 0.0827206 0.0195434 0 480.955 480.955 1001.14 
160 1 1 0.313716 0.0205081 0 0 0 0 0.0701202 0.0149884 0 0.0858168 0.0480779 0 0.0701202 0.0149884 0 470.871 470.871 1001.12 
161 1 1 0.323037 0.0203238 0 0 0 0 0.0593073 0.0118307 0 0.0759296 0.0292558 0 0.0593073 0.0118307 0 461.573 461.573 1001.1 
162 1 1 0.332468 0.0201724 0 0 0 0 0.0498683 0.00976872 0 0.0672678 0.0138813 0 0.0498683 0.00976872 0 453.117 453.117 1001.08 
163 1 1 0.34199 0.0200449 0 0 0 0 0.0418039 0.00824616 0 0.0600208 0.00393579 0 0.0418039 0.00824616 0 445.459 445.459 1001.06 
164 1 1 0.351592 0.0199364 0 0 0 0 0.0345809 0.0069576 0 0.0535048 -0.00225227 0 0.0345809 0.0069576 0 438.576 438.576 1001.04 
165 1 1 0.361262 0.0198429 0 0 0 0 0.0284072 0.00570825 0 0.0465339 -0.00617068 0 0.0284072 0.00570825 0 432.521 432.521 1001.03 
166 1 1 0.370988 0.0197651 0 0 0 0 0.0229469 0.00456695 0 0.0402174 -0.00918388 0 0.0229469 0.00456695 0 427.245 427.245 1001.01 
167 1 1 0.380762 0.0196967 0 0 0 0 0.0183659 0.00347754 0 0.0334849 -0.0110978 0 0.0183659 0.00347754 0 422.797 422.797 1001 
168 1 1 0.390572 0.0196417 0 0 0 0 0.0144449 0.00248568 0 0.0282368 -0.0131936 0 0.0144449 0.00248568 0 419.054 419.054 1000.99 
169 1 1 0.400418 0.0195917 0 0 0 0 0.0111441 0.00160834 0 0.0226446 -0.0148912 0 0.0111441 0.00160834 0 415.998 415.998 1000.99 
170 1 1 0.410271 0.0195512 0 0 0 0 0.00834399 0.000978481 0 0.0189306 -0.0161679 0 0.00834399 0.000978481 0 413.506 413.506 1000.98 
171 1 1 0.420175 0.019512 0 0 0 0 0.00614106 0.000154251 0 0.0145515 -0.0180476 0 0.00614106 0.000154251 0 411.493 411.493 1000.98 
172 1 1 0.430036 0.0194785 0 0 0 0 0.0042386 -5.78677e-05 0 0.012873 -0.0196157 0 0.0042386 -5.78677e-05 0 409.858 409.858 1000.97 
173 1 1 0.439968 0.0194424 0 0 0 0 0.00269776 -0.000551828 0 0.00964551 -0.0202878 0 0.00269776 -0.000551828 0 408.573 408.573 1000.97 
174 1 1 0.449918 0.0194103 0 0 0 0 0.00228307 -0.00133715 0 0.00746468 -0.0229795 0 0.00228307 -0.00133715 0 407.497 407.497 1000.97 
175 1 1 0.459801 0.0193598 0 0 0 0 0.00168847 0.000119378 0 0.00793717 -0.021544 0 0.00168847 0.000119378 0 406.887 406.887 1000.97 
176 1 1 0.469896 0.019227 0 0 0 0 0.000803932 -0.00345372 0 0.00606655 -0.0238039 0 0.000803932 -0.00345372 0 408.174 408.174 1000.97 
177 1 1 0.480192 0.0192773 0 0 0 0 0.0014392 -0.00077872 0 0.00574417 -0.0264758 0 0.0014392 -0.00077872 0 406.19 406.19 1000.96 
178 1 1 0.489962 0.0187996 0 0 0 0 0.00113034 -0.00322268 0 -0.000883801 -0.0279775 0 0.00113034 -0.00322268 0 404.682 404.682 1000.96 
179 1 1 0.16351 0.0466486 0 0 0 0 0.270237 0.039249 0 -0.024127 -0.23894 0 0.270237 0.039249 0 314.072 314.072 1000.75 
180 1 1 0.172065 0.0433623 0 0 0 0 0.313944 0.0645089 0 -0.0931778 -0.252301 0 0.313944 0.0645089 0 351.599 351.599 1000.84 
181 1 1 0.182622 0.0513302 0 0 0 0 0.29905 0.0194271 0 -0.158827 -0.17912 0 0.29905 0.0194271 0 275.077 275.077 1000.65 
182 1 1 0.181968 0.0390052 0 0 0 0 0.282123 0.0289593 0 -0.017302 0.106923 0 0.282123 0.0289593 0 393.071 393.071 1000.93 
183 1 1 0.190278 0.0490529 0 0 0 0 0.338518 0.137883 0 0.0610838 -0.260504 0 0.338518 0.137883 0 302.904 302.904 1000.72 
184 1 1 0.194911 0.0407217 0 0 0 0 0.247371 0.0280623 0 -0.236096 -0.0519437 0 0.247371 0.0280623 0 404.801 404.801 1000.96 
185 1 1 0.201392 0.0403868 0 0 0 0 0.283697 0.0851079 0 0.00655353 0.082298 0 0.283697 0.0851079 0 417.451 417.451 1000.99 
186 1 1 0.208481 0.0392008 0 0 0 0 0.312963 0.0527069 0 0.0128875 -0.0851122 0 0.312963 0.0527069 0 426.929 426.929 1001.01 
187 1 1 0.214868 0.0378805 0 0 0 0 0.295755 0.0322704 0 0.0657363 -0.0878042 0 0.295755 0.0322704 0 432.191 432.191 1001.03 
188 1 1 0.221015 0.0372883 0 0 0 0 0.283554 0.044699 0 0.243412 0.0728076 0 0.283554 0.044699 0 427.844 427.844 1001.02 
189 1 1 0.228026 0.0366732 0 0 0 0 0.2581 0.0455105 0 0.297609 0.0996055 0 0.2581 0.0455105 0 415.55 415.55 1000.99 
190 1 1 0.235207 0.036006 0 0 0 0 0.201062 0.0300956 0 0.288802 0.0414295 0 0.201062 0.0300956 0 389.025 389.025 1000.92 
191 1 1 0.242991 0.0354497 0 0 0 0 0.159902 0.0315001 0 0.238248 0.0178918 0 0.159902 0.0315001 0 348.267 348.267 1000.83 
192 1 1 0.251444 0.034967 0 0 0 0 0.127736 0.0309776 0 0.121391 -0.0556285 0 0.127736 0.0309776 0 316.396 316.396 1000.75 
193 1 1 0.260065 0.0344388 0 0 0 0 0.111233 0.0340348 0 0.0651293 -0.108872 0 0.111233 0.0340348 0 309.155 309.155 1000.73 
194 1 1 0.26887 0.0339225 0 0 0 0 0.107595 0.0380833 0 0.0492887 -0.134485 0 0.107595 0.0380833 0 315.524 315.524 1000.75 
195 1 1 0.27773 0.0333922 0 0 0 0 0.105075 0.0403589 0 0.0471394 -0.140833 0 0.105075 0.0403589 0 325.337 325.337 1000.77 
196 1 1 0.286639 0.0328682 0 0 0 0 0.101089 0.0408492 0 0.0532408 -0.135923 0 0.101089 0.0408492 0 333.284 333.284 1000.79 
197 1 1 0.295623 0.0323723 0 0 0 0 0.0949127 0.0395221 0 0.0592437 -0.12397 0 0.0949127 0.0395221 0 337.487 337.487 1000.8 
198 1 1 0.30469 0.0319124 0 0 0 0 0.0865447 0.0366429 0 0.0679235 -0.105796 0 0.0865447 0.0366429 0 337.951 337.951 1000.8 
199 1 1 0.313862 0.0315023 0 0 0 0 0.0766967 0.0328709 0 0.0741433 -0.0862019 0 0.0766967 0.0328709 0 335.166 335.166 1000.8 
200 1 1 0.323139 0.0311433 0 0 0 0 0.0660622 0.0286121 0 0.0770851 -0.0677666 0 0.0660622 0.0286121 0 330.146 330.146 1000.78 
201 1 1 0.332526 0.0308363 0 0 0 0 0.0555673 0.0243698 0 0.0747869 -0.0528859 0 0.0555673 0.0243698 0 323.956 323.956 1000.77 
202 1 1 0.342014 0.0305772 0 0 0 0 0.0458309 0.0203905 0 0.0689957 -0.0421034 0 0.0458309 0.0203905 0 317.566 317.566 1000.75 
203 1 1 0.351591 0.0303606 0 0 0 0 0.0372332 0.0167756 0 0.0609204 -0.0351733 0 0.0372332 0.0167756 0 311.578 311.578 1000.74 
204 1 1 0.361245 0.0301825 0 0 0 0 0.029859 0.0136087 0 0.0520997 -0.0312975 0 0.029859 0.0136087 0 306.27 306.27 1000.73 
205 1 1 0.370962 0.0300342 0 0 0 0 0.0237348 0.0107761 0 0.0436304 -0.0295743 0 0.0237348 0.0107761 0 301.766 301.766 1000.72 
206 1 1 0.38073 0.0299167 0 0 0 0 0.0186399 0.00842417 0 0.0360074 -0.0294864 0 0.0186399 0.00842417 0 297.961 297.961 1000.71 
207 1 1 0.390543 0.0298147 0 0 0 0 0.0145821 0.00627102 0 0.0295266 -0.0299457 0 0.0145821 0.00627102 0 294.903 294.903 1000.7 
208 1 1 0.400385 0.0297381 0 0 0 0 0.0112483 0.00468046 0 0.0239583 -0.0306536 0 0.0112483 0.00468046 0 292.324 292.324 1000.69 
209 1 1 0.410266 0.0296649 0 0 0 0 0.00883371 0.00288143 0 0.019964 -0.0318839 0 0.00883371 0.00288143 0 290.354 290.354 1000.69 
210 1 1 0.420157 0.0296037 0 0 0 0 0.00678685 0.00210737 0 0.0159852 -0.0313032 0 0.00678685 0.00210737 0 288.805 288.805 1000.69 
211 1 1 0.430101 0.0295509 0 0 0 0 0.00554617 0.000395499 0 0.0132224 -0.032716 0 0.00554617 0.000395499 0 287.54 287.54 1000.68 
212 1 1 0.440036 0.0294852 0 0 0 0 0.00484899 0.000364462 0 0.0117575 -0.0302686 0 0.00484899 0.000364462 0 287.033 287.033 1000.68 
213 1 1 0.45005 0.0293397 0 0 0 0 0.00377309 -0.00173693 0 0.00694732 -0.0321354 0 0.00377309 -0.00173693 0 287.525 287.525 1000.68 
214 1 1 0.46004 0.0295409 0 0 0 0 0.00353738 0.000310277 0 0.00726322 -0.0294105 0 0.00353738 0.000310277 0 284.308 284.308 1000.68 
215 1 1 0.470088 0.0286813 0 0 0 0 0.00366452 -0.00366618 0 0.00637314 -0.0308272 0 0.00366452 -0.00366618 0 294.846 294.846 1000.7 
216 1 1 0.480147 0.0295198 0 0 0 0 0.000463059 7.94597e-05 0 0.00093522 -0.035087 0 0.000463059 7.94597e-05 0 284.064 284.064 1000.67 
217 1 1 0.490249 0.0286469 0 0 0 0 0.000295599 -0.00400472 0 -0.00783452 -0.0418488 0 0.000295599 -0.00400472 0 292.074 292.074 1000.69 
218 1 1 0.17314 0.0524326 0 0 0 0 0.331602 0.0165021 0 -0.0102884 -0.0108161 0 0.331602 0.0165021 0 270.93 270.93 1000.64 
219 1 1 0.166436 0.0679503 0 0 0 0 0.185991 -0.0542512 0 -0.136231 -0.152582 0 0.185991 -0.0542512 0 175.705 175.705 1000.42 
220 1 1 0.176954 0.0616413 0 0 0 0 0.295593 0.0189704 0 0.0149865 -0.200611 0 0.295593 0.0189704 0 169.677 169.677 1000.4 
221 1 1 0.185107 0.0671342 0 0 0 0 0.269043 0.126916 0 0.0329762 -0.279422 0 0.269043 0.126916 0 147.771 147.771 1000.35 
222 1 1 0.191136 0.0591837 0 0 0 0 0.269057 0.0812718 0 -0.0725146 0.0575719 0 0.269057 0.0812718 0 219.128 219.128 1000.52 
223 1 1 0.198511 0.0586949 0 0 0 0 0.319992 0.0724071 0 0.119802 -0.0320573 0 0.319992 0.0724071 0 241.027 241.027 1000.57 
224 1 1 0.205423 0.0539806 0 0 0 0 0.312054 -0.0583469 0 -0.077003 -0.28348 0 0.312054 -0.0583469 0 279.303 279.303 1000.66 
225 1 1 0.211678 0.0542363 0 0 0 0 0.320518 0.0263522 0 0.0269191 -0.149915 0 0.320518 0.0263522 0 269.513 269.513 1000.64 
226 1 1 0.218442 0.0548951 0 0 0 0 0.33179 0.115416 0 0.00391932 -0.0194734 0 0.33179 0.115416 0 260.876 260.876 1000.62 
227 1 1 0.224718 0.0527849 0 0 0 0 0.308747 0.0861735 0 0.00932562 -0.240286 0 0.308747 0.0861735 0 282.825 282.825 1000.67 
228 1 1 0.231234 0.0512352 0 0 0 0 0.30501 0.0988962 0 0.0563411 -0.0992167 0 0.30501 0.0988962 0 301.537 301.537 1000.72 
229 1 1 0.238029 0.0498716 0 0 0 0 0.293728 0.109368 0 0.148302 0.0443241 0 0.293728 0.109368 0 310.787 310.787 1000.74 
230 1 1 0.245014 0.0484463 0 0 0 0 0.269847 0.10218 0 0.223815 0.0842406 0 0.269847 0.10218 0 316.304 316.304 1000.75 
231 1 1 0.252287 0.047189 0 0 0 0 0.236131 0.0949741 0 0.278556 0.123468 0 0.236131 0.0949741 0 312.668 312.668 1000.74 
232 1 1 0.259944 0.0460475 0 0 0 0 0.201146 0.087642 0 0.299025 0.15773 0 0.201146 0.087642 0 294.736 294.736 1000.7 
233 1 1 0.268053 0.0450033 0 0 0 0 0.161476 0.0797878 0 0.26546 0.174162 0 0.161476 0.0797878 0 267.574 267.574 1000.64 
234 1 1 0.276522 0.0440854 0 0 0 0 0.125808 0.0698427 0 0.213854 0.172817 0 0.125808 0.0698427 0 240.52 240.52 1000.57 
235 1 1 0.285347 0.043287 0 0 0 0 0.0988407 0.0580619 0 0.154012 0.149264 0 0.0988407 0.0580619 0 219.867 219.867 1000.52 
236 1 1 0.294413 0.0426266 0 0 0 0 0.0796972 0.046991 0 0.107544 0.107959 0 0.0796972 0.046991 0 207.711 207.711 1000.49 
237 1 1 0.303653 0.0420836 0 0 0 0 0.0667072 0.0384385 0 0.0838562 0.0637003 0 0.0667072 0.0384385 0 201.954 201.954 1000.48 