ITEM: TIMESTEP
164000
ITEM: NUMBER OF ATOMS
754
ITEM: BOX BOUNDS ff ff pp
-0.021 0.521
-0.021 0.5
-0.001 0.001
ITEM: ATOMS id type type x y z ix iy iz vx vy vz fx fy fz vx vy vz p p rho 
1 1 1 0.00681361 0.0040624 0 0 0 0 -0.00123188 -0.00373883 0 0.00939397 -0.0159082 0 -0.00123188 -0.00373883 0 486.718 486.718 1001.15 
2 1 1 0.0272821 0.00472167 0 0 0 0 -0.00165795 0.0056264 0 0.00766584 -0.0122332 0 -0.00165795 0.0056264 0 475.126 475.126 1001.13 
3 1 1 0.061257 0.00641487 0 0 0 0 -0.017284 0.00340485 0 -0.0226734 -0.00112809 0 -0.017284 0.00340485 0 463.569 463.569 1001.1 
4 1 1 0.0751429 0.00549286 0 0 0 0 -0.00107538 -0.00969241 0 -0.0299149 0.0185364 0 -0.00107538 -0.00969241 0 484.698 484.698 1001.15 
5 1 1 0.092176 0.00557386 0 0 0 0 0.00258664 0.00229534 0 0.00259997 0.000877686 0 0.00258664 0.00229534 0 488.131 488.131 1001.16 
6 1 1 0.111969 0.00647348 0 0 0 0 -0.0342483 -0.00546076 0 -0.0677775 0.0202413 0 -0.0342483 -0.00546076 0 473.099 473.099 1001.12 
7 1 1 0.15193 0.00673621 0 0 0 0 0.0610747 0.00174666 0 -0.0529397 0.00695137 0 0.0610747 0.00174666 0 477.847 477.847 1001.13 
8 1 1 0.135821 0.0142115 0 0 0 0 -0.0109127 -0.00922943 0 -0.0462008 0.0130996 0 -0.0109127 -0.00922943 0 428.797 428.797 1001.02 
9 1 1 0.180058 0.0061857 0 0 0 0 0.099718 -0.00403519 0 -0.0547318 0.0242393 0 0.099718 -0.00403519 0 512.6 512.6 1001.22 
10 1 1 0.193038 0.00652745 0 0 0 0 0.10282 -0.00182232 0 -0.0409084 -0.016646 0 0.10282 -0.00182232 0 499.359 499.359 1001.18 
11 1 1 0.0256284 0.0170248 0 0 0 0 0.0183948 0.0225422 0 0.0743731 -0.100174 0 0.0183948 0.0225422 0 382.013 382.013 1000.91 
12 1 1 0.0475566 0.00508073 0 0 0 0 0.00796611 -0.00113716 0 -0.0302491 0.0281597 0 0.00796611 -0.00113716 0 478.013 478.013 1001.13 
13 1 1 0.0632485 0.014985 0 0 0 0 0.0413128 -0.0148381 0 0.0375821 0.048393 0 0.0413128 -0.0148381 0 408.395 408.395 1000.97 
14 1 1 0.0843681 0.0120239 0 0 0 0 0.00256705 -0.00128637 0 -0.0387404 -0.0129281 0 0.00256705 -0.00128637 0 451.653 451.653 1001.07 
15 1 1 0.101993 0.0098459 0 0 0 0 -0.0260225 0.0162059 0 -0.00235291 0.0166729 0 -0.0260225 0.0162059 0 442.935 442.935 1001.05 
16 1 1 0.138914 0.00625327 0 0 0 0 0.0609985 -0.00443889 0 -0.0370652 0.00192729 0 0.0609985 -0.00443889 0 464.504 464.504 1001.1 
17 1 1 0.141832 0.0212224 0 0 0 0 0.0760339 -0.0112748 0 -0.0284552 -0.0148609 0 0.0760339 -0.0112748 0 405.82 405.82 1000.96 
18 1 1 0.164621 0.00621736 0 0 0 0 0.0647726 -0.00631624 0 -0.0179973 -0.00932711 0 0.0647726 -0.00631624 0 507.277 507.277 1001.2 
19 1 1 0.186272 0.0152859 0 0 0 0 0.0885837 -0.011932 0 0.0165806 0.0222204 0 0.0885837 -0.011932 0 473.995 473.995 1001.12 
20 1 1 0.178235 0.0191405 0 0 0 0 0.116244 -0.0349384 0 -0.0545012 0.0391399 0 0.116244 -0.0349384 0 420.797 420.797 1001 
21 1 1 0.0301025 0.0285427 0 0 0 0 0.00377587 0.0245522 0 -0.0747377 0.0249166 0 0.00377587 0.0245522 0 331.578 331.578 1000.79 
22 1 1 0.0368408 0.0102027 0 0 0 0 -0.00322377 -0.00450189 0 0.0122407 -0.00500131 0 -0.00322377 -0.00450189 0 480.268 480.268 1001.14 
23 1 1 0.054277 0.0153462 0 0 0 0 0.0151192 0.0140035 0 -0.00892693 -0.0755513 0 0.0151192 0.0140035 0 407.621 407.621 1000.97 
24 1 1 0.0769333 0.0267834 0 0 0 0 0.0162343 0.00253376 0 -0.0265435 0.0233018 0 0.0162343 0.00253376 0 339.325 339.325 1000.81 
25 1 1 0.0676968 0.0235131 0 0 0 0 0.0234854 0.00833737 0 -0.0330201 -0.00985261 0 0.0234854 0.00833737 0 354.337 354.337 1000.84 
26 1 1 0.124967 0.00620352 0 0 0 0 0.00875008 -0.0283139 0 -0.00307058 -0.00029091 0 0.00875008 -0.0283139 0 498.457 498.457 1001.18 
27 1 1 0.126635 0.015625 0 0 0 0 0.031666 -0.0219722 0 -0.0416439 0.0251068 0 0.031666 -0.0219722 0 453.247 453.247 1001.08 
28 1 1 0.160872 0.0149847 0 0 0 0 0.0460707 0.000226164 0 -0.0531526 -0.0152985 0 0.0460707 0.000226164 0 445.033 445.033 1001.06 
29 1 1 0.172501 0.0125209 0 0 0 0 0.0548094 -0.0281324 0 -0.022906 0.0386679 0 0.0548094 -0.0281324 0 455.255 455.255 1001.08 
30 1 1 0.188289 0.025453 0 0 0 0 0.108934 -0.00720495 0 -0.00503646 0.0261063 0 0.108934 -0.00720495 0 367.031 367.031 1000.87 
31 1 1 0.0180931 0.00969253 0 0 0 0 0.0122884 -0.00276125 0 -0.0298709 0.0679145 0 0.0122884 -0.00276125 0 450.253 450.253 1001.07 
32 1 1 0.0349477 0.017404 0 0 0 0 0.0262324 -0.0160827 0 -0.0461069 0.0765364 0 0.0262324 -0.0160827 0 405.083 405.083 1000.96 
33 1 1 0.0618702 0.0319206 0 0 0 0 -0.00948208 -0.00311973 0 -0.000568504 0.0544495 0 -0.00948208 -0.00311973 0 305.308 305.308 1000.73 
34 1 1 0.0829855 0.0192429 0 0 0 0 0.0384238 -0.00439471 0 0.0167498 0.0524834 0 0.0384238 -0.00439471 0 410.66 410.66 1000.97 
35 1 1 0.11721 0.0251211 0 0 0 0 0.0563068 -0.00197407 0 -0.0162756 0.0151277 0 0.0563068 -0.00197407 0 337.567 337.567 1000.8 
36 1 1 0.128534 0.0247972 0 0 0 0 0.0330418 -0.0414913 0 -0.0042383 0.0315131 0 0.0330418 -0.0414913 0 388.223 388.223 1000.92 
37 1 1 0.148302 0.0142359 0 0 0 0 -0.00414762 -0.0156728 0 -0.0492956 0.0219736 0 -0.00414762 -0.0156728 0 450.506 450.506 1001.07 
38 1 1 0.167089 0.022158 0 0 0 0 0.11372 -0.0299673 0 0.00608258 -0.0154566 0 0.11372 -0.0299673 0 391.351 391.351 1000.93 
39 1 1 0.184847 0.0359595 0 0 0 0 0.110683 -0.0338315 0 -0.0296819 0.0111165 0 0.110683 -0.0338315 0 296.487 296.487 1000.7 
40 1 1 0.150768 0.0365114 0 0 0 0 0.0692402 -0.0392395 0 -0.114186 -0.010113 0 0.0692402 -0.0392395 0 301.616 301.616 1000.72 
41 1 1 0.0102212 0.0149862 0 0 0 0 0.00589178 -0.0161174 0 0.0121562 0.0156441 0 0.00589178 -0.0161174 0 416.857 416.857 1000.99 
42 1 1 0.0314316 0.0434226 0 0 0 0 -0.0168231 0.0205615 0 -0.0270466 0.0207063 0 -0.0168231 0.0205615 0 176.673 176.673 1000.42 
43 1 1 0.0458554 0.0157577 0 0 0 0 0.0100697 -0.0016648 0 0.0743058 0.0861824 0 0.0100697 -0.0016648 0 443.46 443.46 1001.05 
44 1 1 0.0728989 0.0353913 0 0 0 0 0.00735814 -0.0092092 0 0.0260978 0.0311169 0 0.00735814 -0.0092092 0 289.724 289.724 1000.69 
45 1 1 0.0940036 0.0173088 0 0 0 0 0.0187447 0.0156386 0 -0.0163382 -0.00754756 0 0.0187447 0.0156386 0 406.449 406.449 1000.96 
46 1 1 0.108682 0.0282521 0 0 0 0 0.0290167 -0.00857121 0 0.001014 0.0184272 0 0.0290167 -0.00857121 0 359.446 359.446 1000.85 
47 1 1 0.154384 0.0216279 0 0 0 0 0.0979718 -0.041428 0 -0.0277654 -0.0162439 0 0.0979718 -0.041428 0 395.797 395.797 1000.94 
48 1 1 0.177752 0.0287432 0 0 0 0 0.0927688 -0.033624 0 -0.0934093 -0.0167068 0 0.0927688 -0.033624 0 349.432 349.432 1000.83 
49 1 1 0.174125 0.0382479 0 0 0 0 0.120092 -0.0330247 0 -0.00839421 0.00141854 0 0.120092 -0.0330247 0 246.609 246.609 1000.59 
50 1 1 0.153259 0.0527621 0 0 0 0 0.0800608 -0.0288018 0 0.00110696 0.0666537 0 0.0800608 -0.0288018 0 201.206 201.206 1000.48 
51 1 1 0.0193022 0.0212231 0 0 0 0 0.0172273 -0.0128209 0 0.0230414 -0.0173316 0 0.0172273 -0.0128209 0 377.996 377.996 1000.9 
52 1 1 0.0381814 0.0285155 0 0 0 0 0.00268467 0.0199986 0 0.0217033 -0.0709625 0 0.00268467 0.0199986 0 340.216 340.216 1000.81 
53 1 1 0.0555295 0.026108 0 0 0 0 0.024883 -0.026152 0 0.0645554 -0.0205974 0 0.024883 -0.026152 0 347.572 347.572 1000.83 
54 1 1 0.0871545 0.0299146 0 0 0 0 0.00842262 -0.00942651 0 -0.00413791 -0.0210588 0 0.00842262 -0.00942651 0 344.53 344.53 1000.82 
55 1 1 0.0956564 0.0320349 0 0 0 0 -0.000528132 0.00748377 0 -0.0246269 0.0614609 0 -0.000528132 0.00748377 0 304.446 304.446 1000.72 
56 1 1 0.103737 0.0381235 0 0 0 0 0.0408368 -0.0345657 0 -0.00995977 -0.00188338 0 0.0408368 -0.0345657 0 258.539 258.539 1000.61 
57 1 1 0.138771 0.0288388 0 0 0 0 0.0850757 -0.035094 0 0.0108013 0.0406418 0 0.0850757 -0.035094 0 368.024 368.024 1000.87 
58 1 1 0.125512 0.0337176 0 0 0 0 0.0504921 -0.0352016 0 -0.0101661 -0.00880081 0 0.0504921 -0.0352016 0 314.597 314.597 1000.75 
59 1 1 0.164964 0.0392098 0 0 0 0 0.0912308 -0.0537068 0 -0.083446 -0.0287448 0 0.0912308 -0.0537068 0 270.155 270.155 1000.64 
60 1 1 0.168312 0.0489701 0 0 0 0 0.0682886 -0.0693062 0 -0.079004 0.0014245 0 0.0682886 -0.0693062 0 182.86 182.86 1000.43 
61 1 1 0.0468736 0.0261076 0 0 0 0 -0.0162244 -0.0168815 0 -0.00774822 0.0488857 0 -0.0162244 -0.0168815 0 343.708 343.708 1000.82 
62 1 1 0.00887042 0.0236803 0 0 0 0 0.00827421 -0.0212008 0 -0.0436275 -7.74051e-05 0 0.00827421 -0.0212008 0 365.548 365.548 1000.87 
63 1 1 0.0726816 0.0147194 0 0 0 0 0.0175934 0.0025586 0 -0.00792231 0.00539421 0 0.0175934 0.0025586 0 414.28 414.28 1000.98 
64 1 1 0.0422533 0.0471721 0 0 0 0 0.00829459 -0.00234631 0 0.0153601 -0.0327379 0 0.00829459 -0.00234631 0 134.471 134.471 1000.32 
65 1 1 0.0844585 0.0388897 0 0 0 0 0.0434846 0.0088964 0 0.022551 0.0269465 0 0.0434846 0.0088964 0 243.168 243.168 1000.58 
66 1 1 0.117384 0.015718 0 0 0 0 0.00115056 -0.0367156 0 -0.0664675 -0.0364729 0 0.00115056 -0.0367156 0 425.07 425.07 1001.01 
67 1 1 0.114755 0.0364057 0 0 0 0 0.0393497 -0.00639951 0 0.0205389 0.0183704 0 0.0393497 -0.00639951 0 219.012 219.012 1000.52 
68 1 1 0.152665 0.0296737 0 0 0 0 0.0901265 -0.0346906 0 -0.0291712 -0.0263151 0 0.0901265 -0.0346906 0 332.783 332.783 1000.79 
69 1 1 0.16516 0.0295379 0 0 0 0 0.0920403 -0.0278842 0 -0.0692456 0.056943 0 0.0920403 -0.0278842 0 346.083 346.083 1000.82 
70 1 1 0.17575 0.0574108 0 0 0 0 0.113182 -0.0652909 0 -0.00397086 -0.119213 0 0.113182 -0.0652909 0 176.893 176.893 1000.42 
71 1 1 0.0106479 0.0339867 0 0 0 0 0.0162813 -0.0521633 0 0.0597955 0.0216514 0 0.0162813 -0.0521633 0 344.675 344.675 1000.82 
72 1 1 0.0405171 0.0563411 0 0 0 0 -0.0762015 0.00868495 0 0.0582927 -0.0186779 0 -0.0762015 0.00868495 0 136.249 136.249 1000.32 
73 1 1 0.0237271 0.0403296 0 0 0 0 -0.0439191 0.0522139 0 0.0769932 -0.0555951 0 -0.0439191 0.0522139 0 204.152 204.152 1000.49 
74 1 1 0.0514627 0.0376895 0 0 0 0 -0.013609 -0.0348967 0 0.0301103 -0.00812882 0 -0.013609 -0.0348967 0 273.781 273.781 1000.65 
75 1 1 0.0775433 0.0464954 0 0 0 0 0.0104777 -0.0180419 0 -0.0811506 0.0370212 0 0.0104777 -0.0180419 0 237.076 237.076 1000.56 
76 1 1 0.107631 0.0169221 0 0 0 0 0.0525977 0.0144213 0 0.00836431 0.0338402 0 0.0525977 0.0144213 0 436.714 436.714 1001.04 
77 1 1 0.0988609 0.022922 0 0 0 0 0.0480192 0.00392288 0 -0.0414338 -0.0109338 0 0.0480192 0.00392288 0 373.056 373.056 1000.89 
78 1 1 0.140058 0.0453924 0 0 0 0 0.147863 -0.0404708 0 0.0362746 0.0814953 0 0.147863 -0.0404708 0 197.156 197.156 1000.47 
79 1 1 0.137953 0.0373569 0 0 0 0 0.0437085 -0.0594338 0 -0.0720038 0.106667 0 0.0437085 -0.0594338 0 304.898 304.898 1000.72 
80 1 1 0.145913 0.0612239 0 0 0 0 0.063319 -0.0564245 0 -0.199624 0.0549444 0 0.063319 -0.0564245 0 153.885 153.885 1000.37 
81 1 1 0.0210847 0.0313154 0 0 0 0 0.0400075 -0.00413277 0 -0.0627332 0.0129026 0 0.0400075 -0.00413277 0 317.443 317.443 1000.75 
82 1 1 0.0111941 0.0430642 0 0 0 0 -0.0186137 -0.0645437 0 -0.0335291 0.0792898 0 -0.0186137 -0.0645437 0 217.6 217.6 1000.52 
83 1 1 0.0403227 0.0378923 0 0 0 0 -0.030273 0.00899039 0 -0.00362392 0.0346886 0 -0.030273 0.00899039 0 272.93 272.93 1000.65 
84 1 1 0.0204054 0.0505471 0 0 0 0 -0.00397787 0.0201892 0 0.0553947 -0.0419197 0 -0.00397787 0.0201892 0 158.588 158.588 1000.38 
85 1 1 0.0650088 0.0422767 0 0 0 0 0.0231838 -0.0145572 0 0.00170656 0.00787273 0 0.0231838 -0.0145572 0 235.216 235.216 1000.56 
86 1 1 0.0958324 0.044499 0 0 0 0 0.0494485 -0.00981546 0 -0.00118831 0.00730152 0 0.0494485 -0.00981546 0 200.318 200.318 1000.48 
87 1 1 0.108947 0.0463731 0 0 0 0 0.0545578 -0.0258505 0 0.0296115 -0.0129018 0 0.0545578 -0.0258505 0 182.085 182.085 1000.43 
88 1 1 0.121711 0.0506072 0 0 0 0 0.0279313 -0.056627 0 -0.103198 0.00890974 0 0.0279313 -0.056627 0 216.439 216.439 1000.51 
89 1 1 0.125019 0.042222 0 0 0 0 0.11851 -0.0464193 0 -0.00643654 0.00770307 0 0.11851 -0.0464193 0 233.522 233.522 1000.56 
90 1 1 0.134886 0.0529154 0 0 0 0 0.046876 -0.0760378 0 0.0503431 0.0121023 0 0.046876 -0.0760378 0 162.614 162.614 1000.39 
91 1 1 0.0555246 0.060017 0 0 0 0 -0.0381134 -0.062805 0 -0.0640841 0.0314058 0 -0.0381134 -0.062805 0 188.443 188.443 1000.45 
92 1 1 0.0284096 0.0581468 0 0 0 0 -0.0226179 0.0546438 0 -0.0154463 0.0008682 0 -0.0226179 0.0546438 0 136.961 136.961 1000.33 
93 1 1 0.011466 0.0552159 0 0 0 0 -0.00168117 -0.0169868 0 -0.00433194 -0.00752384 0 -0.00168117 -0.0169868 0 118.212 118.212 1000.28 
94 1 1 0.0666854 0.0530533 0 0 0 0 0.00655516 -0.0309905 0 0.0426851 0.0154601 0 0.00655516 -0.0309905 0 167.754 167.754 1000.4 
95 1 1 0.0777802 0.0617003 0 0 0 0 0.00889316 -0.0322569 0 -0.0722801 0.00896415 0 0.00889316 -0.0322569 0 208.401 208.401 1000.5 
96 1 1 0.0971492 0.0616973 0 0 0 0 0.0214327 -0.0455369 0 0.125593 0.0171857 0 0.0214327 -0.0455369 0 215.425 215.425 1000.51 
97 1 1 0.0546421 0.0466461 0 0 0 0 -0.0240289 -0.0465266 0 -0.0847477 0.0641718 0 -0.0240289 -0.0465266 0 213.982 213.982 1000.51 
98 1 1 0.0885496 0.0518851 0 0 0 0 0.0319357 -0.0166179 0 0.0219812 -0.0659271 0 0.0319357 -0.0166179 0 234.756 234.756 1000.56 
99 1 1 0.108842 0.0542136 0 0 0 0 0.0855641 -0.0184517 0 0.00168096 0.0547953 0 0.0855641 -0.0184517 0 116.867 116.867 1000.28 
100 1 1 0.124487 0.0627097 0 0 0 0 0.0930425 -0.0510024 0 -0.0339123 -0.0195066 0 0.0930425 -0.0510024 0 161.863 161.863 1000.38 
101 1 1 0.196047 0.0151516 0 0 0 0 0.108848 0.00599897 0 -0.00311042 -0.00905221 0 0.108848 0.00599897 0 452.177 452.177 1001.07 
102 1 1 0.206667 0.0150489 0 0 0 0 0.0882627 0.0114542 0 -0.0252908 0.0286165 0 0.0882627 0.0114542 0 454.463 454.463 1001.08 
103 1 1 0.208695 0.0247293 0 0 0 0 0.118374 0.00463865 0 -0.00533378 -0.0263504 0 0.118374 0.00463865 0 376.001 376.001 1000.89 
104 1 1 0.205994 0.00608597 0 0 0 0 0.103153 -0.00100445 0 -0.0398749 -0.00477137 0 0.103153 -0.00100445 0 504.108 504.108 1001.2 
105 1 1 0.21606 0.0106863 0 0 0 0 0.0919446 -0.00313094 0 -0.0753265 0.00586609 0 0.0919446 -0.00313094 0 498.748 498.748 1001.18 
106 1 1 0.225365 0.00500853 0 0 0 0 0.10903 -0.00886853 0 -0.0591287 0.044136 0 0.10903 -0.00886853 0 518.96 518.96 1001.23 
107 1 1 0.236181 0.0112935 0 0 0 0 0.103866 0.0162851 0 -0.105201 -0.0146356 0 0.103866 0.0162851 0 475.023 475.023 1001.13 
108 1 1 0.244163 0.0060999 0 0 0 0 0.0940791 -0.0063849 0 -0.0975466 -0.0403274 0 0.0940791 -0.0063849 0 512.926 512.926 1001.22 
109 1 1 0.246891 0.0155405 0 0 0 0 0.132617 -0.0354053 0 -0.0499899 -0.0124025 0 0.132617 -0.0354053 0 470.471 470.471 1001.12 
110 1 1 0.254435 0.016463 0 0 0 0 0.136586 -0.00554742 0 -0.0556316 -0.0746093 0 0.136586 -0.00554742 0 469.483 469.483 1001.11 
111 1 1 0.257281 0.00635307 0 0 0 0 0.127949 -0.0141054 0 -0.0192794 0.0660734 0 0.127949 -0.0141054 0 525.186 525.186 1001.25 
112 1 1 0.267434 0.0102068 0 0 0 0 0.120277 0.0158322 0 -0.0709771 -0.0786477 0 0.120277 0.0158322 0 494.924 494.924 1001.17 
113 1 1 0.276372 0.00580851 0 0 0 0 0.132065 -0.0224971 0 -0.0498095 0.0655197 0 0.132065 -0.0224971 0 521.762 521.762 1001.24 
114 1 1 0.284485 0.0149588 0 0 0 0 0.121281 -0.00824289 0 -0.0979623 0.0180591 0 0.121281 -0.00824289 0 473.564 473.564 1001.12 
115 1 1 0.302005 0.0279779 0 0 0 0 0.211516 -0.0141013 0 -0.121569 -0.0272588 0 0.211516 -0.0141013 0 424.332 424.332 1001.01 
116 1 1 0.289442 0.00731722 0 0 0 0 0.152167 -0.00466091 0 -0.0710158 -0.00784696 0 0.152167 -0.00466091 0 544.31 544.31 1001.29 
117 1 1 0.302214 0.00605984 0 0 0 0 0.146665 0.0126326 0 -0.0221523 -0.119408 0 0.146665 0.0126326 0 579.113 579.113 1001.37 
118 1 1 0.310837 0.0126924 0 0 0 0 0.139221 -0.01815 0 -0.00984253 0.0294697 0 0.139221 -0.01815 0 535.823 535.823 1001.27 
119 1 1 0.317959 0.00509697 0 0 0 0 0.136814 0.0148779 0 0.0383782 0.131803 0 0.136814 0.0148779 0 594.549 594.549 1001.41 
120 1 1 0.332625 0.0209536 0 0 0 0 0.189499 0.0138379 0 0.00757863 0.0686833 0 0.189499 0.0138379 0 474.644 474.644 1001.13 
121 1 1 0.328447 0.0115856 0 0 0 0 0.135813 -0.00780081 0 -0.0229981 -0.109085 0 0.135813 -0.00780081 0 521.532 521.532 1001.24 
122 1 1 0.336175 0.00509822 0 0 0 0 0.134852 -0.00894867 0 -0.035224 0.109772 0 0.134852 -0.00894867 0 559.315 559.315 1001.33 
123 1 1 0.357973 0.0151179 0 0 0 0 0.134357 -0.000824399 0 0.0239694 0.0846789 0 0.134357 -0.000824399 0 530.774 530.774 1001.26 
124 1 1 0.352942 0.00605833 0 0 0 0 0.126539 -0.00498359 0 -0.0373697 -0.118294 0 0.126539 -0.00498359 0 555.251 555.251 1001.32 
125 1 1 0.365462 0.00709405 0 0 0 0 0.130156 0.00910126 0 0.0274934 -0.0336161 0 0.130156 0.00910126 0 565.889 565.889 1001.34 
126 1 1 0.373737 0.0142644 0 0 0 0 0.124131 -0.0020379 0 -0.0265594 -0.0145552 0 0.124131 -0.0020379 0 522.336 522.336 1001.24 
127 1 1 0.378451 0.00566918 0 0 0 0 0.112404 0.0119348 0 0.033333 0.13225 0 0.112404 0.0119348 0 582.07 582.07 1001.38 
128 1 1 0.387768 0.0114048 0 0 0 0 0.081899 0.012089 0 -0.0143778 -0.150836 0 0.081899 0.012089 0 520.195 520.195 1001.23 
129 1 1 0.406073 0.0107251 0 0 0 0 0.0621719 0.00934129 0 0.0331128 -0.0873343 0 0.0621719 0.00934129 0 504.713 504.713 1001.2 
130 1 1 0.415565 0.0057016 0 0 0 0 0.0410827 -0.00835798 0 0.000738009 0.0477247 0 0.0410827 -0.00835798 0 577.78 577.78 1001.37 
131 1 1 0.429348 0.00598904 0 0 0 0 0.0635013 0.00901453 0 0.0395848 -0.00263063 0 0.0635013 0.00901453 0 543.204 543.204 1001.29 
132 1 1 0.422098 0.0148521 0 0 0 0 0.0462237 -0.0270745 0 0.0612771 -0.053527 0 0.0462237 -0.0270745 0 549.96 549.96 1001.3 
133 1 1 0.438186 0.0108667 0 0 0 0 0.0190503 0.0255653 0 0.00613351 0.0185414 0 0.0190503 0.0255653 0 533.446 533.446 1001.27 
134 1 1 0.448937 0.0161292 0 0 0 0 0.00951174 -0.00174765 0 -0.0281042 0.0153379 0 0.00951174 -0.00174765 0 506.499 506.499 1001.2 
135 1 1 0.447581 0.00502826 0 0 0 0 0.00723914 -0.00100839 0 0.0386054 0.0067194 0 0.00723914 -0.00100839 0 551.233 551.233 1001.31 
136 1 1 0.457375 0.0113306 0 0 0 0 0.0029342 0.00448886 0 -0.0126379 0.0101334 0 0.0029342 0.00448886 0 540.544 540.544 1001.28 
137 1 1 0.465527 0.0052968 0 0 0 0 0.00340536 0.00214437 0 0.0125164 -0.0119194 0 0.00340536 0.00214437 0 550.495 550.495 1001.31 
138 1 1 0.478778 0.006185 0 0 0 0 -0.0114351 0.00377293 0 0.0168285 0.0220808 0 -0.0114351 0.00377293 0 538.451 538.451 1001.28 
139 1 1 0.492723 0.00562168 0 0 0 0 -0.00355689 -0.00638269 0 0.00923303 0.00666641 0 -0.00355689 -0.00638269 0 534.25 534.25 1001.27 
140 1 1 0.195085 0.0329536 0 0 0 0 0.119071 0.0178586 0 -0.0103902 0.0294495 0 0.119071 0.0178586 0 293.197 293.197 1000.7 
141 1 1 0.199085 0.0234724 0 0 0 0 0.0936814 0.00130329 0 -0.0539114 0.0290134 0 0.0936814 0.00130329 0 393.341 393.341 1000.93 
142 1 1 0.235294 0.0392723 0 0 0 0 0.174183 -0.0452072 0 0.00991819 0.0674231 0 0.174183 -0.0452072 0 329.113 329.113 1000.78 
143 1 1 0.218525 0.0258118 0 0 0 0 0.143951 -0.0129171 0 -0.00119563 0.105486 0 0.143951 -0.0129171 0 408.177 408.177 1000.97 
144 1 1 0.231107 0.0260755 0 0 0 0 0.138122 -0.00293014 0 -0.054747 0.0254052 0 0.138122 -0.00293014 0 398.972 398.972 1000.95 
145 1 1 0.219891 0.0178746 0 0 0 0 0.0952903 -0.0165626 0 -0.0376522 -0.0282773 0 0.0952903 -0.0165626 0 480.408 480.408 1001.14 
146 1 1 0.242866 0.0340543 0 0 0 0 0.162929 -0.027059 0 -0.102752 -0.0393366 0 0.162929 -0.027059 0 372.636 372.636 1000.88 
147 1 1 0.229515 0.0153475 0 0 0 0 0.0905697 0.00224509 0 -0.0323302 0.0174513 0 0.0905697 0.00224509 0 474.702 474.702 1001.13 
148 1 1 0.238534 0.0226625 0 0 0 0 0.12198 -0.0236385 0 0.0363219 0.00213667 0 0.12198 -0.0236385 0 433.381 433.381 1001.03 
149 1 1 0.260437 0.0255618 0 0 0 0 0.142337 0.00246795 0 -0.0259314 0.0520487 0 0.142337 0.00246795 0 407.445 407.445 1000.97 
150 1 1 0.275465 0.0354015 0 0 0 0 0.183251 -0.0426324 0 -0.0354737 0.00651567 0 0.183251 -0.0426324 0 370.551 370.551 1000.88 
151 1 1 0.264822 0.0172111 0 0 0 0 0.13025 -0.00090582 0 -0.0478718 0.0642329 0 0.13025 -0.00090582 0 486.599 486.599 1001.15 
152 1 1 0.273296 0.0251564 0 0 0 0 0.159328 -0.00826301 0 -0.0745837 -0.00135194 0 0.159328 -0.00826301 0 408.799 408.799 1000.97 
153 1 1 0.276702 0.0173163 0 0 0 0 0.12506 -0.0158319 0 -0.00673227 -0.039428 0 0.12506 -0.0158319 0 468.319 468.319 1001.11 
154 1 1 0.295608 0.0148776 0 0 0 0 0.127314 -0.0122678 0 -0.000629778 0.0822946 0 0.127314 -0.0122678 0 514.867 514.867 1001.22 
155 1 1 0.315294 0.0219323 0 0 0 0 0.169499 0.0127878 0 -0.0520715 -0.0163822 0 0.169499 0.0127878 0 479.633 479.633 1001.14 
156 1 1 0.304641 0.0178501 0 0 0 0 0.154695 0.0110833 0 -0.096027 -0.00345033 0 0.154695 0.0110833 0 481.31 481.31 1001.14 
157 1 1 0.322297 0.0160345 0 0 0 0 0.161659 -0.0088384 0 -0.100043 -0.0517725 0 0.161659 -0.0088384 0 511.695 511.695 1001.21 
158 1 1 0.325181 0.0274904 0 0 0 0 0.152262 -0.030718 0 -0.000176129 0.0435389 0 0.152262 -0.030718 0 452.555 452.555 1001.07 
159 1 1 0.341293 0.0284096 0 0 0 0 0.156417 0.0196836 0 -0.0345087 -0.0830092 0 0.156417 0.0196836 0 440.421 440.421 1001.05 
160 1 1 0.340143 0.0166053 0 0 0 0 0.161605 0.0245987 0 -0.0441282 0.0497158 0 0.161605 0.0245987 0 539.826 539.826 1001.28 
161 1 1 0.346137 0.0124683 0 0 0 0 0.120664 0.00856581 0 -0.0188512 -0.0256999 0 0.120664 0.00856581 0 555.13 555.13 1001.32 
162 1 1 0.359484 0.0280727 0 0 0 0 0.15713 0.0369582 0 -0.00886652 -0.0299821 0 0.15713 0.0369582 0 468.526 468.526 1001.11 
163 1 1 0.365935 0.0186967 0 0 0 0 0.135371 0.00481343 0 -0.0390115 -0.114913 0 0.135371 0.00481343 0 483.973 483.973 1001.15 
164 1 1 0.384994 0.0307341 0 0 0 0 0.159854 0.0561337 0 0.0459888 -0.121263 0 0.159854 0.0561337 0 408.582 408.582 1000.97 
165 1 1 0.396642 0.00535731 0 0 0 0 0.0670862 -0.00618144 0 0.0117794 0.123831 0 0.0670862 -0.00618144 0 547.219 547.219 1001.3 
166 1 1 0.38532 0.0180288 0 0 0 0 0.119237 0.0512353 0 0.0125056 0.0690206 0 0.119237 0.0512353 0 506.204 506.204 1001.2 
167 1 1 0.401994 0.0298932 0 0 0 0 0.0987189 0.087463 0 0.0413755 -0.0400223 0 0.0987189 0.087463 0 363.194 363.194 1000.86 
168 1 1 0.415049 0.0178234 0 0 0 0 0.0711278 0.0127203 0 0.0447335 0.0365206 0 0.0711278 0.0127203 0 518.596 518.596 1001.23 
169 1 1 0.409386 0.0400768 0 0 0 0 0.106812 0.0699291 0 0.0644285 0.0266986 0 0.106812 0.0699291 0 342.196 342.196 1000.81 
170 1 1 0.404385 0.0184559 0 0 0 0 0.0664838 0.0415398 0 0.0823141 0.0634183 0 0.0664838 0.0415398 0 501.491 501.491 1001.19 
171 1 1 0.411287 0.027836 0 0 0 0 0.0830406 -0.00825077 0 -0.0267681 -0.0350289 0 0.0830406 -0.00825077 0 420.173 420.173 1001 
172 1 1 0.430725 0.0174476 0 0 0 0 0.0342584 0.0385151 0 0.0320253 0.037272 0 0.0342584 0.0385151 0 495.727 495.727 1001.18 
173 1 1 0.441692 0.020021 0 0 0 0 0.0241183 0.0328023 0 0.0485914 0.057935 0 0.0241183 0.0328023 0 471.114 471.114 1001.12 
174 1 1 0.46853 0.0154971 0 0 0 0 0.0187867 -0.00625544 0 0.0198963 0.000217584 0 0.0187867 -0.00625544 0 507.526 507.526 1001.2 
175 1 1 0.46592 0.027272 0 0 0 0 0.0205489 0.0138726 0 -0.0113706 0.00983694 0 0.0205489 0.0138726 0 430.108 430.108 1001.02 
176 1 1 0.475632 0.0167264 0 0 0 0 0.0161834 0.0328126 0 0.006875 0.0180073 0 0.0161834 0.0328126 0 480.562 480.562 1001.14 
177 1 1 0.484786 0.0138776 0 0 0 0 -0.00729918 -0.0125691 0 0.0159059 -0.00103102 0 -0.00729918 -0.0125691 0 512.433 512.433 1001.22 
178 1 1 0.491723 0.019151 0 0 0 0 0.0055175 -0.00545023 0 -0.00865182 0.0405394 0 0.0055175 -0.00545023 0 488.382 488.382 1001.16 
179 1 1 0.190115 0.0461414 0 0 0 0 0.12018 -0.0275504 0 -0.0707562 -0.0312712 0 0.12018 -0.0275504 0 209.526 209.526 1000.5 
180 1 1 0.207078 0.0336192 0 0 0 0 0.118875 -0.0228803 0 -0.0867267 -0.00889673 0 0.118875 -0.0228803 0 329.703 329.703 1000.78 
181 1 1 0.210785 0.0441739 0 0 0 0 0.157805 -0.00808924 0 -0.0572113 -0.0123512 0 0.157805 -0.00808924 0 229.707 229.707 1000.55 
182 1 1 0.217282 0.0373179 0 0 0 0 0.130592 -0.0202501 0 -0.0216452 -0.015475 0 0.130592 -0.0202501 0 308.175 308.175 1000.73 
183 1 1 0.236266 0.0508423 0 0 0 0 0.149919 -0.0102675 0 -0.0857306 -0.0265549 0 0.149919 -0.0102675 0 240.51 240.51 1000.57 
184 1 1 0.225964 0.0456307 0 0 0 0 0.196101 -0.0260419 0 -0.0864436 0.0552144 0 0.196101 -0.0260419 0 233.054 233.054 1000.55 
185 1 1 0.226514 0.0338322 0 0 0 0 0.114247 -0.000771107 0 -0.0405307 -0.00505458 0 0.114247 -0.000771107 0 342.271 342.271 1000.81 
186 1 1 0.248517 0.026264 0 0 0 0 0.132631 -0.0342524 0 -0.0596602 -0.0373673 0 0.132631 -0.0342524 0 409.663 409.663 1000.97 
187 1 1 0.266034 0.0333015 0 0 0 0 0.165728 0.00413408 0 -0.118492 0.0216471 0 0.165728 0.00413408 0 329.814 329.814 1000.78 
188 1 1 0.26842 0.0438759 0 0 0 0 0.208263 -0.00696117 0 -0.0377561 0.0291236 0 0.208263 -0.00696117 0 242.006 242.006 1000.58 
189 1 1 0.284444 0.038791 0 0 0 0 0.162896 -0.0493341 0 -0.0172291 -0.0455608 0 0.162896 -0.0493341 0 317.249 317.249 1000.75 
190 1 1 0.292629 0.0237454 0 0 0 0 0.182728 -0.0055568 0 -0.0307573 -0.0754462 0 0.182728 -0.0055568 0 430.183 430.183 1001.02 
191 1 1 0.294895 0.0443266 0 0 0 0 0.217075 -0.0357268 0 -0.0757414 0.0335933 0 0.217075 -0.0357268 0 304.042 304.042 1000.72 
192 1 1 0.292832 0.0341212 0 0 0 0 0.189647 -0.0137866 0 -0.0135638 -0.01238 0 0.189647 -0.0137866 0 327.276 327.276 1000.78 
193 1 1 0.318824 0.0336661 0 0 0 0 0.227183 0.00996774 0 -0.0439962 -0.0495625 0 0.227183 0.00996774 0 371.958 371.958 1000.88 
194 1 1 0.307233 0.0503354 0 0 0 0 0.173873 0.0292756 0 -0.0758654 -0.0165951 0 0.173873 0.0292756 0 229.264 229.264 1000.54 
195 1 1 0.324727 0.0416876 0 0 0 0 0.217651 0.0226183 0 -0.0383373 0.0279764 0 0.217651 0.0226183 0 378.479 378.479 1000.9 
196 1 1 0.334147 0.0334717 0 0 0 0 0.196768 0.0169872 0 -0.096706 -0.0761289 0 0.196768 0.0169872 0 411.783 411.783 1000.98 
197 1 1 0.344678 0.0407939 0 0 0 0 0.225334 -0.0114847 0 0.0261571 -0.0576068 0 0.225334 -0.0114847 0 336.842 336.842 1000.8 
198 1 1 0.349712 0.0320726 0 0 0 0 0.204868 0.0250981 0 0.0171843 0.0572312 0 0.204868 0.0250981 0 405.655 405.655 1000.96 
199 1 1 0.358334 0.0393382 0 0 0 0 0.193566 0.0148099 0 -0.127171 -0.0742109 0 0.193566 0.0148099 0 342.822 342.822 1000.81 
200 1 1 0.351119 0.0219078 0 0 0 0 0.16974 -0.0149956 0 0.0342227 -0.110866 0 0.16974 -0.0149956 0 455.703 455.703 1001.08 
201 1 1 0.377651 0.0231442 0 0 0 0 0.155348 0.0417257 0 -0.0327783 0.103562 0 0.155348 0.0417257 0 484.808 484.808 1001.15 
202 1 1 0.36622 0.0404486 0 0 0 0 0.185715 0.0367456 0 0.00488473 -0.0527698 0 0.185715 0.0367456 0 360.82 360.82 1000.86 
203 1 1 0.377445 0.0358713 0 0 0 0 0.132989 0.015861 0 -0.0157757 -0.0583019 0 0.132989 0.015861 0 397.855 397.855 1000.94 
204 1 1 0.384485 0.0449421 0 0 0 0 0.155084 0.0356626 0 0.0207318 0.0812041 0 0.155084 0.0356626 0 264.805 264.805 1000.63 
205 1 1 0.396021 0.0177855 0 0 0 0 0.107247 0.0141759 0 -0.00570048 -0.0300077 0 0.107247 0.0141759 0 539.261 539.261 1001.28 
206 1 1 0.393535 0.0281174 0 0 0 0 0.139394 0.0207372 0 0.0252183 -0.0148408 0 0.139394 0.0207372 0 440.447 440.447 1001.05 
207 1 1 0.427164 0.0401523 0 0 0 0 0.0679279 0.036148 0 -0.0174873 0.0359095 0 0.0679279 0.036148 0 353.501 353.501 1000.84 
208 1 1 0.435158 0.0274653 0 0 0 0 0.0335304 0.053724 0 0.0102464 0.00688794 0 0.0335304 0.053724 0 431.33 431.33 1001.02 
209 1 1 0.418608 0.0322902 0 0 0 0 0.0624094 0.0435243 0 0.0172121 0.0905852 0 0.0624094 0.0435243 0 420.679 420.679 1001 
210 1 1 0.445176 0.0325884 0 0 0 0 0.0604782 0.0228882 0 -0.0262501 0.0421925 0 0.0604782 0.0228882 0 401.696 401.696 1000.95 
211 1 1 0.424893 0.026519 0 0 0 0 0.0505924 0.0189744 0 0.0464135 0.0387077 0 0.0505924 0.0189744 0 462.302 462.302 1001.1 
212 1 1 0.451488 0.0280653 0 0 0 0 0.0298878 -0.00543083 0 0.0166784 -0.0252532 0 0.0298878 -0.00543083 0 455.401 455.401 1001.08 
213 1 1 0.45884 0.0202107 0 0 0 0 0.0356291 -0.013104 0 0.0354942 0.00523509 0 0.0356291 -0.013104 0 490.964 490.964 1001.16 
214 1 1 0.471327 0.038212 0 0 0 0 0.00601438 0.00483951 0 -0.0177069 -0.0274473 0 0.00601438 0.00483951 0 364.1 364.1 1000.86 
215 1 1 0.484199 0.0251806 0 0 0 0 0.0310625 0.0029667 0 -0.00825685 0.0231556 0 0.0310625 0.0029667 0 423.84 423.84 1001.01 
216 1 1 0.474459 0.0278073 0 0 0 0 0.0184743 0.0201617 0 0.0728613 -0.0164307 0 0.0184743 0.0201617 0 401.472 401.472 1000.95 
217 1 1 0.490116 0.0335349 0 0 0 0 -0.00515712 0.0188924 0 -0.0356515 0.0109301 0 -0.00515712 0.0188924 0 419.189 419.189 1001 
218 1 1 0.206894 0.0520409 0 0 0 0 0.134931 -0.0107253 0 -0.109032 0.0174003 0 0.134931 -0.0107253 0 203.691 203.691 1000.48 
219 1 1 0.155047 0.0447151 0 0 0 0 0.0864144 -0.0390559 0 -0.0128133 0.0328667 0 0.0864144 -0.0390559 0 262.518 262.518 1000.62 
220 1 1 0.1809 0.0470882 0 0 0 0 0.123129 -0.039561 0 -0.0602001 -0.00879388 0 0.123129 -0.039561 0 180.63 180.63 1000.43 
221 1 1 0.219914 0.0528642 0 0 0 0 0.134051 -0.0418194 0 -0.0363578 -0.0092076 0 0.134051 -0.0418194 0 211.106 211.106 1000.5 
222 1 1 0.199086 0.0410093 0 0 0 0 0.153537 -0.00332442 0 -0.0161058 0.0368586 0 0.153537 -0.00332442 0 246.255 246.255 1000.59 
223 1 1 0.247133 0.0438818 0 0 0 0 0.141592 -0.0127097 0 -0.0850628 0.0206462 0 0.141592 -0.0127097 0 246.971 246.971 1000.59 
224 1 1 0.254904 0.0344908 0 0 0 0 0.1599 -0.0253679 0 -0.0299737 0.0351452 0 0.1599 -0.0253679 0 364.796 364.796 1000.87 
225 1 1 0.257742 0.0438633 0 0 0 0 0.168563 -0.0537771 0 -0.0175316 0.0164216 0 0.168563 -0.0537771 0 281.867 281.867 1000.67 
226 1 1 0.271005 0.0538397 0 0 0 0 0.164216 -0.0288187 0 -0.0343083 -0.0344329 0 0.164216 -0.0288187 0 201.648 201.648 1000.48 
227 1 1 0.284128 0.0266701 0 0 0 0 0.194011 -0.0417412 0 -0.134464 0.0638961 0 0.194011 -0.0417412 0 433.933 433.933 1001.03 
228 1 1 0.280716 0.0472536 0 0 0 0 0.205558 -0.0310283 0 -0.115153 -0.00331233 0 0.205558 -0.0310283 0 273.709 273.709 1000.65 
229 1 1 0.292619 0.0536734 0 0 0 0 0.18138 -0.0541322 0 -0.0784451 -0.0146469 0 0.18138 -0.0541322 0 215.274 215.274 1000.51 
230 1 1 0.303752 0.0399 0 0 0 0 0.200043 0.000368164 0 -0.0826406 -0.0144371 0 0.200043 0.000368164 0 335.574 335.574 1000.8 
231 1 1 0.309456 0.0308164 0 0 0 0 0.197272 0.00549639 0 0.0146784 0.0601229 0 0.197272 0.00549639 0 418.917 418.917 1000.99 
232 1 1 0.313995 0.0439128 0 0 0 0 0.187252 -0.00613467 0 -0.0912407 -0.0858689 0 0.187252 -0.00613467 0 294.468 294.468 1000.7 
233 1 1 0.334021 0.043409 0 0 0 0 0.214666 0.000375898 0 0.0311349 0.0282415 0 0.214666 0.000375898 0 316.022 316.022 1000.75 