ITEM: TIMESTEP
67000
ITEM: NUMBER OF ATOMS
754
ITEM: BOX BOUNDS ff ff pp
-0.021 0.521
-0.021 0.5
-0.001 0.001
ITEM: ATOMS id type type x y z ix iy iz vx vy vz fx fy fz vx vy vz p p rho 
1 1 1 0.00836908 0.00783402 0 0 0 0 0.00171218 -0.0039835 0 -0.0326688 -0.0668111 0 0.00171218 -0.0039835 0 470.186 470.186 1001.12 
2 1 1 0.0194096 0.00759102 0 0 0 0 0.0107848 -0.00106167 0 0.0203773 0.0867526 0 0.0107848 -0.00106167 0 479.987 479.987 1001.14 
3 1 1 0.0473569 0.00687962 0 0 0 0 0.0285985 -0.00637047 0 -0.0100397 0.101426 0 0.0285985 -0.00637047 0 515.122 515.122 1001.22 
4 1 1 0.0647136 0.0076207 0 0 0 0 0.0428495 -0.00252657 0 0.0255819 0.00309901 0 0.0428495 -0.00252657 0 485.499 485.499 1001.15 
5 1 1 0.0893118 0.00733564 0 0 0 0 -0.00905687 0.0026085 0 0.0630016 0.00698927 0 -0.00905687 0.0026085 0 493.003 493.003 1001.17 
6 1 1 0.102387 0.00745479 0 0 0 0 -0.0268332 -0.00179789 0 0.000362159 -0.0148856 0 -0.0268332 -0.00179789 0 474.429 474.429 1001.13 
7 1 1 0.140133 0.00789912 0 0 0 0 -0.0349438 0.0217529 0 0.0183178 0.054886 0 -0.0349438 0.0217529 0 452.905 452.905 1001.07 
8 1 1 0.150149 0.00938615 0 0 0 0 -0.0375061 -0.0181067 0 0.0574446 -0.0503561 0 -0.0375061 -0.0181067 0 461.14 461.14 1001.09 
9 1 1 0.189809 0.00813992 0 0 0 0 -0.000726574 0.00567059 0 -0.146719 -0.0609878 0 -0.000726574 0.00567059 0 453.15 453.15 1001.08 
10 1 1 0.209538 0.00814125 0 0 0 0 -0.0333338 -0.000677866 0 0.0419538 -0.0171445 0 -0.0333338 -0.000677866 0 480.479 480.479 1001.14 
11 1 1 0.0135368 0.0254154 0 0 0 0 0.0290501 -0.0792088 0 0.0372686 -0.121928 0 0.0290501 -0.0792088 0 315.334 315.334 1000.75 
12 1 1 0.0330249 0.00703242 0 0 0 0 -0.00418557 -0.0160149 0 0.0316081 0.0862782 0 -0.00418557 -0.0160149 0 501.352 501.352 1001.19 
13 1 1 0.056688 0.0118833 0 0 0 0 0.038549 -0.00826598 0 -0.0221985 -0.0793077 0 0.038549 -0.00826598 0 470.446 470.446 1001.12 
14 1 1 0.0760647 0.00806604 0 0 0 0 0.0258931 0.0161152 0 0.0595721 -0.0279687 0 0.0258931 0.0161152 0 482.552 482.552 1001.14 
15 1 1 0.100761 0.0208194 0 0 0 0 -0.0463142 0.0178347 0 0.0970216 -0.0699964 0 -0.0463142 0.0178347 0 364.14 364.14 1000.86 
16 1 1 0.129541 0.00873255 0 0 0 0 0.00757623 0.000956035 0 0.0129174 -0.0188795 0 0.00757623 0.000956035 0 450.642 450.642 1001.07 
17 1 1 0.148426 0.0182155 0 0 0 0 -0.0318088 0.00867703 0 -0.0472089 0.0388924 0 -0.0318088 0.00867703 0 361.447 361.447 1000.86 
18 1 1 0.177484 0.00735489 0 0 0 0 -0.0300222 -0.0258573 0 -0.103021 0.0669432 0 -0.0300222 -0.0258573 0 498.384 498.384 1001.18 
19 1 1 0.199752 0.00921485 0 0 0 0 -0.0152385 0.00968331 0 -0.0446546 -0.00799504 0 -0.0152385 0.00968331 0 460.733 460.733 1001.09 
20 1 1 0.203804 0.0184752 0 0 0 0 0.00552568 0.00868571 0 -0.123885 -0.0835105 0 0.00552568 0.00868571 0 392.003 392.003 1000.93 
21 1 1 0.0220723 0.0212434 0 0 0 0 0.0839869 -0.0175181 0 -0.162025 0.0529297 0 0.0839869 -0.0175181 0 396.798 396.798 1000.94 
22 1 1 0.0247931 0.0147924 0 0 0 0 0.00247361 0.0185222 0 -0.0344137 -0.17229 0 0.00247361 0.0185222 0 451.45 451.45 1001.07 
23 1 1 0.038244 0.0151206 0 0 0 0 0.0400387 -0.0255611 0 0.0478635 -0.183116 0 0.0400387 -0.0255611 0 436.305 436.305 1001.04 
24 1 1 0.0771843 0.0221523 0 0 0 0 -0.0192089 0.0553251 0 0.0932264 -0.0162562 0 -0.0192089 0.0553251 0 328.364 328.364 1000.78 
25 1 1 0.0829089 0.0150609 0 0 0 0 -0.0179547 0.0204953 0 0.0440549 0.0723403 0 -0.0179547 0.0204953 0 426.586 426.586 1001.01 
26 1 1 0.117699 0.00734739 0 0 0 0 -0.0116733 0.000200112 0 0.0274584 -0.0170617 0 -0.0116733 0.000200112 0 480.146 480.146 1001.14 
27 1 1 0.136513 0.0178082 0 0 0 0 -0.0544766 0.0255412 0 -0.00342918 -0.0803643 0 -0.0544766 0.0255412 0 380.937 380.937 1000.9 
28 1 1 0.162265 0.00683689 0 0 0 0 -0.0601721 0.0133946 0 -0.0680951 0.0283071 0 -0.0601721 0.0133946 0 462.528 462.528 1001.1 
29 1 1 0.191568 0.0173609 0 0 0 0 -0.0358183 -0.000461779 0 0.0128233 0.0303299 0 -0.0358183 -0.000461779 0 405.196 405.196 1000.96 
30 1 1 0.209728 0.0244176 0 0 0 0 -0.0323007 0.00556778 0 -0.0468195 0.0268582 0 -0.0323007 0.00556778 0 343.575 343.575 1000.82 
31 1 1 0.00970005 0.0168599 0 0 0 0 -0.0079723 -0.00738285 0 0.0286999 0.0861817 0 -0.0079723 -0.00738285 0 445.243 445.243 1001.06 
32 1 1 0.034376 0.0218719 0 0 0 0 0.0773231 -0.0175676 0 0.010793 0.131871 0 0.0773231 -0.0175676 0 363.663 363.663 1000.86 
33 1 1 0.070084 0.0176457 0 0 0 0 0.0141065 0.0212899 0 0.0492847 -0.0863304 0 0.0141065 0.0212899 0 414.289 414.289 1000.98 
34 1 1 0.0946707 0.0158604 0 0 0 0 -0.00767192 0.00259257 0 0.0169525 -0.00732396 0 -0.00767192 0.00259257 0 425.714 425.714 1001.01 
35 1 1 0.12451 0.0159345 0 0 0 0 -0.0828736 -0.0258433 0 -0.0253973 0.0150929 0 -0.0828736 -0.0258433 0 388.934 388.934 1000.92 
36 1 1 0.139656 0.0251368 0 0 0 0 -0.067196 -0.00202189 0 0.00642362 0.0346527 0 -0.067196 -0.00202189 0 311.816 311.816 1000.74 
37 1 1 0.167076 0.0140948 0 0 0 0 -0.0196206 -0.022016 0 0.0411766 -0.00890651 0 -0.0196206 -0.022016 0 427.865 427.865 1001.02 
38 1 1 0.180672 0.016401 0 0 0 0 -0.0215931 -0.0164719 0 0.0754029 -0.011207 0 -0.0215931 -0.0164719 0 398.85 398.85 1000.95 
39 1 1 0.197801 0.0267411 0 0 0 0 -0.0344047 -0.0174115 0 -0.02673 -0.015098 0 -0.0344047 -0.0174115 0 297.789 297.789 1000.71 
40 1 1 0.183446 0.0342549 0 0 0 0 -0.0433411 -0.0247868 0 -0.02758 0.118536 0 -0.0433411 -0.0247868 0 210.191 210.191 1000.5 
41 1 1 0.00791494 0.0315735 0 0 0 0 0.0613682 -0.0294611 0 -0.245847 -0.0574263 0 0.0613682 -0.0294611 0 262.664 262.664 1000.62 
42 1 1 0.0256747 0.04226 0 0 0 0 0.186156 0.00364274 0 -0.00698801 -0.0269913 0 0.186156 0.00364274 0 194.239 194.239 1000.46 
43 1 1 0.047343 0.0174072 0 0 0 0 0.0340432 -0.00615063 0 0.0750231 -0.0193341 0 0.0340432 -0.00615063 0 433.417 433.417 1001.03 
44 1 1 0.0751151 0.0336225 0 0 0 0 0.00224915 0.0852817 0 0.0439037 0.0684458 0 0.00224915 0.0852817 0 214.134 214.134 1000.51 
45 1 1 0.104725 0.0299089 0 0 0 0 -0.0524611 0.0157549 0 -0.0396727 -0.0178265 0 -0.0524611 0.0157549 0 281.158 281.158 1000.67 
46 1 1 0.126756 0.0250716 0 0 0 0 -0.0227222 0.0123873 0 0.0479872 -0.0177057 0 -0.0227222 0.0123873 0 304.852 304.852 1000.72 
47 1 1 0.157704 0.0176382 0 0 0 0 -0.0632657 0.0150077 0 -0.00232623 0.0756222 0 -0.0632657 0.0150077 0 365.711 365.711 1000.87 
48 1 1 0.187206 0.0259313 0 0 0 0 -0.0422753 -0.0160976 0 -0.0906932 0.00662965 0 -0.0422753 -0.0160976 0 322.19 322.19 1000.77 
49 1 1 0.194502 0.0359402 0 0 0 0 -0.0505354 -0.0164599 0 -0.0881375 -0.0323055 0 -0.0505354 -0.0164599 0 189.079 189.079 1000.45 
50 1 1 0.17878 0.0460829 0 0 0 0 -0.0803184 -0.0109259 0 -0.104828 0.0921033 0 -0.0803184 -0.0109259 0 110.267 110.267 1000.26 
51 1 1 0.00621302 0.0433412 0 0 0 0 0.0312539 -0.118749 0 0.225386 0.13295 0 0.0312539 -0.118749 0 192.354 192.354 1000.46 
52 1 1 0.0428031 0.0273231 0 0 0 0 -0.0013143 -0.00616128 0 -0.154314 0.0684816 0 -0.0013143 -0.00616128 0 292.813 292.813 1000.7 
53 1 1 0.0543435 0.0258474 0 0 0 0 0.0518373 -0.00914 0 0.101591 0.0698904 0 0.0518373 -0.00914 0 337.357 337.357 1000.8 
54 1 1 0.0881289 0.0245983 0 0 0 0 -0.0361809 0.000469045 0 0.0461852 0.0243527 0 -0.0361809 0.000469045 0 316.445 316.445 1000.75 
55 1 1 0.109653 0.0332362 0 0 0 0 -0.0518432 0.0161234 0 0.125492 0.0514212 0 -0.0518432 0.0161234 0 244.284 244.284 1000.58 
56 1 1 0.131998 0.0334805 0 0 0 0 -0.027403 0.0282209 0 -0.00678649 -0.00319264 0 -0.027403 0.0282209 0 211.013 211.013 1000.5 
57 1 1 0.155869 0.0281872 0 0 0 0 -0.0604844 0.0157641 0 -0.0382427 -0.0495647 0 -0.0604844 0.0157641 0 282.12 282.12 1000.67 
58 1 1 0.160494 0.0383203 0 0 0 0 -0.0170192 -0.0144613 0 -0.0289623 0.04481 0 -0.0170192 -0.0144613 0 150.258 150.258 1000.36 
59 1 1 0.175602 0.0306391 0 0 0 0 -0.0446143 -0.0379917 0 -0.0435908 0.00772885 0 -0.0446143 -0.0379917 0 253.4 253.4 1000.6 
60 1 1 0.194595 0.0450492 0 0 0 0 -0.0587304 -0.00551443 0 -0.103562 -0.0413702 0 -0.0587304 -0.00551443 0 110.111 110.111 1000.26 
61 1 1 0.0472817 0.0340554 0 0 0 0 0.129676 -0.0466587 0 -0.0630502 -0.133298 0 0.129676 -0.0466587 0 237.717 237.717 1000.57 
62 1 1 0.0280602 0.0300631 0 0 0 0 -0.0211923 0.00996406 0 -0.116085 -0.173617 0 -0.0211923 0.00996406 0 264.601 264.601 1000.63 
63 1 1 0.0607389 0.020709 0 0 0 0 0.0151516 0.0117186 0 0.0916106 -0.000306232 0 0.0151516 0.0117186 0 420.773 420.773 1001 
64 1 1 0.0649626 0.039506 0 0 0 0 0.0306311 0.0369523 0 0.152063 0.090711 0 0.0306311 0.0369523 0 301.677 301.677 1000.72 
65 1 1 0.094292 0.0308628 0 0 0 0 -0.0520381 0.0167457 0 0.0576523 0.0185111 0 -0.0520381 0.0167457 0 235.116 235.116 1000.56 
66 1 1 0.109358 0.0134377 0 0 0 0 -0.0167277 -0.010867 0 0.0571808 0.0412558 0 -0.0167277 -0.010867 0 419.136 419.136 1000.99 
67 1 1 0.145782 0.0309348 0 0 0 0 -0.0206664 0.00399435 0 -0.0123578 0.0239843 0 -0.0206664 0.00399435 0 239.941 239.941 1000.57 
68 1 1 0.164649 0.026998 0 0 0 0 -0.0397665 -0.0147972 0 0.0162353 0.030409 0 -0.0397665 -0.0147972 0 295.073 295.073 1000.7 
69 1 1 0.173587 0.0204421 0 0 0 0 -0.0691817 -0.0364768 0 -0.0542949 0.0534088 0 -0.0691817 -0.0364768 0 376.113 376.113 1000.89 
70 1 1 0.166998 0.0473317 0 0 0 0 -0.070009 0.00568855 0 -0.0800359 0.111058 0 -0.070009 0.00568855 0 78.5717 78.5717 1000.19 
71 1 1 0.0216958 0.0459337 0 0 0 0 0.0846204 -0.0866382 0 -0.311029 -0.0371678 0 0.0846204 -0.0866382 0 183.24 183.24 1000.44 
72 1 1 0.0414421 0.0469402 0 0 0 0 0.144924 0.00609501 0 -0.239461 0.284637 0 0.144924 0.00609501 0 177.517 177.517 1000.42 
73 1 1 0.0320373 0.0359284 0 0 0 0 0.0790808 -0.0354859 0 0.25095 -0.225289 0 0.0790808 -0.0354859 0 306.662 306.662 1000.73 
74 1 1 0.0673836 0.0292078 0 0 0 0 0.00779708 0.0265846 0 -0.0522943 -0.0888742 0 0.00779708 0.0265846 0 277.988 277.988 1000.66 
75 1 1 0.0819178 0.0345182 0 0 0 0 0.0262896 0.0638087 0 0.0855632 0.108369 0 0.0262896 0.0638087 0 260.852 260.852 1000.62 
76 1 1 0.113713 0.0199154 0 0 0 0 -0.0608665 0.0251691 0 0.053332 0.0578901 0 -0.0608665 0.0251691 0 372.285 372.285 1000.88 
77 1 1 0.119674 0.0284506 0 0 0 0 -0.0223161 -0.0403605 0 -0.00999796 0.106565 0 -0.0223161 -0.0403605 0 280.169 280.169 1000.67 
78 1 1 0.150711 0.038505 0 0 0 0 -0.0586761 0.0186295 0 -0.0164705 0.000597615 0 -0.0586761 0.0186295 0 120.076 120.076 1000.29 
79 1 1 0.17036 0.0383738 0 0 0 0 -0.032594 -0.0228349 0 -0.0497172 -0.00994433 0 -0.032594 -0.0228349 0 169.196 169.196 1000.4 
80 1 1 0.125571 0.0496903 0 0 0 0 -0.107794 -0.00372737 0 0.0985388 0.0715928 0 -0.107794 -0.00372737 0 77.1726 77.1726 1000.18 
81 1 1 0.00644447 0.0625181 0 0 0 0 -0.0473486 -0.153505 0 -0.066346 -0.0491618 0 -0.0473486 -0.153505 0 84.4379 84.4379 1000.2 
82 1 1 0.0159494 0.0341929 0 0 0 0 -0.0482746 -0.0123557 0 0.197114 0.241079 0 -0.0482746 -0.0123557 0 201.358 201.358 1000.48 
83 1 1 0.0422513 0.0422588 0 0 0 0 0.0346095 -0.0460781 0 0.0010153 -0.060454 0 0.0346095 -0.0460781 0 214.101 214.101 1000.51 
84 1 1 0.0563459 0.0372795 0 0 0 0 0.0333336 0.111473 0 -0.0133221 -0.0501704 0 0.0333336 0.111473 0 257.844 257.844 1000.61 
85 1 1 0.0884345 0.0400567 0 0 0 0 -0.0888015 0.0943575 0 -0.031333 0.13931 0 -0.0888015 0.0943575 0 197.142 197.142 1000.47 
86 1 1 0.0994308 0.0422569 0 0 0 0 -0.03228 -0.0131921 0 0.128001 -0.0600788 0 -0.03228 -0.0131921 0 161.837 161.837 1000.38 
87 1 1 0.115287 0.0416095 0 0 0 0 -0.0504677 0.0132787 0 0.0181562 0.0925254 0 -0.0504677 0.0132787 0 168.646 168.646 1000.4 
88 1 1 0.124258 0.0405752 0 0 0 0 -0.133907 -0.023147 0 0.0830321 -0.0590919 0 -0.133907 -0.023147 0 151.145 151.145 1000.36 
89 1 1 0.13698 0.040701 0 0 0 0 -0.0490151 -0.00201491 0 0.0179822 0.0535619 0 -0.0490151 -0.00201491 0 151.763 151.763 1000.36 
90 1 1 0.141479 0.0459532 0 0 0 0 -0.119492 0.00217301 0 0.0302689 0.12333 0 -0.119492 0.00217301 0 84.4258 84.4258 1000.2 
91 1 1 0.0416633 0.0596918 0 0 0 0 0.134963 -0.115497 0 -0.453251 -0.162449 0 0.134963 -0.115497 0 145.393 145.393 1000.35 
92 1 1 0.0161766 0.0543408 0 0 0 0 0.0614702 -0.159378 0 -0.130464 -0.14185 0 0.0614702 -0.159378 0 118.641 118.641 1000.28 
93 1 1 0.0247808 0.055758 0 0 0 0 0.0161112 -0.0176493 0 0.202544 -0.282752 0 0.0161112 -0.0176493 0 -14.341 -14.341 999.966 
94 1 1 0.0531203 0.0592367 0 0 0 0 0.254772 0.105781 0 0.103427 -0.103173 0 0.254772 0.105781 0 120.99 120.99 1000.29 
95 1 1 0.0565345 0.0488724 0 0 0 0 0.110291 0.06573 0 -0.106072 -0.138489 0 0.110291 0.06573 0 202.076 202.076 1000.48 
96 1 1 0.0659262 0.0560283 0 0 0 0 0.0782105 0.286411 0 0.153812 0.00986757 0 0.0782105 0.286411 0 98.6209 98.6209 1000.23 
97 1 1 0.0730563 0.0476642 0 0 0 0 -0.0815443 0.107804 0 0.246732 -0.192762 0 -0.0815443 0.107804 0 191.659 191.659 1000.46 
98 1 1 0.0954019 0.0491179 0 0 0 0 -0.118088 0.0420009 0 0.134889 0.116417 0 -0.118088 0.0420009 0 104.663 104.663 1000.25 
99 1 1 0.109231 0.0484647 0 0 0 0 -0.148662 0.0274005 0 0.0262727 0.130039 0 -0.148662 0.0274005 0 85.3509 85.3509 1000.2 
100 1 1 0.0822049 0.0540391 0 0 0 0 -0.0731864 0.123442 0 0.297815 0.0694373 0 -0.0731864 0.123442 0 217.105 217.105 1000.52 
101 1 1 0.21623 0.0155669 0 0 0 0 -0.000313776 -0.00233953 0 -0.127495 0.0648546 0 -0.000313776 -0.00233953 0 430.561 430.561 1001.02 
102 1 1 0.222555 0.00742632 0 0 0 0 -0.0326028 -0.00228756 0 -0.0979292 0.0283026 0 -0.0326028 -0.00228756 0 511.251 511.251 1001.21 
103 1 1 0.224188 0.0185158 0 0 0 0 -0.00223426 -0.00131969 0 0.0244014 0.00656144 0 -0.00223426 -0.00131969 0 414.789 414.789 1000.98 
104 1 1 0.233287 0.00920488 0 0 0 0 -0.0421289 0.00410683 0 -0.109875 -0.00558096 0 -0.0421289 0.00410683 0 462.344 462.344 1001.1 
105 1 1 0.236945 0.0166639 0 0 0 0 0.0256388 -0.0111503 0 -0.0667564 -0.0410945 0 0.0256388 -0.0111503 0 434.35 434.35 1001.03 
106 1 1 0.244082 0.00789298 0 0 0 0 -0.0122761 -0.0249812 0 -0.0397519 -0.0295873 0 -0.0122761 -0.0249812 0 493.661 493.661 1001.17 
107 1 1 0.252284 0.0155068 0 0 0 0 0.00456325 -0.0149771 0 -0.0930081 0.0205201 0 0.00456325 -0.0149771 0 462.069 462.069 1001.1 
108 1 1 0.257321 0.0074977 0 0 0 0 0.010846 0.00242588 0 -0.0430268 0.00576227 0 0.010846 0.00242588 0 532.656 532.656 1001.26 
109 1 1 0.262367 0.0168011 0 0 0 0 -0.0134807 0.0315861 0 -0.0293759 0.0691957 0 -0.0134807 0.0315861 0 450.01 450.01 1001.07 
110 1 1 0.269739 0.00796507 0 0 0 0 -0.0225658 0.00228328 0 -0.106212 0.00145795 0 -0.0225658 0.00228328 0 531.447 531.447 1001.26 
111 1 1 0.278668 0.0102225 0 0 0 0 -0.0161317 0.00466439 0 -0.0686683 -0.0410214 0 -0.0161317 0.00466439 0 538.09 538.09 1001.28 
112 1 1 0.289482 0.00744617 0 0 0 0 -0.0289491 0.00841554 0 -0.035929 0.0672773 0 -0.0289491 0.00841554 0 556.834 556.834 1001.32 
113 1 1 0.300836 0.00817453 0 0 0 0 -0.033662 -0.0132848 0 -0.084826 -0.0357854 0 -0.033662 -0.0132848 0 563.498 563.498 1001.34 
114 1 1 0.313001 0.00848059 0 0 0 0 -0.0231245 -0.00283181 0 -0.142428 -0.0259934 0 -0.0231245 -0.00283181 0 558.139 558.139 1001.32 
115 1 1 0.321828 0.0190705 0 0 0 0 -0.0332357 0.0259584 0 -0.0563221 -0.0179096 0 -0.0332357 0.0259584 0 495.743 495.743 1001.18 
116 1 1 0.323588 0.00789418 0 0 0 0 -0.0259183 0.00488364 0 -0.111938 -0.0180307 0 -0.0259183 0.00488364 0 573.672 573.672 1001.36 
117 1 1 0.330871 0.0139278 0 0 0 0 -0.0370301 -0.00981318 0 -0.12383 -0.0166574 0 -0.0370301 -0.00981318 0 551.053 551.053 1001.31 
118 1 1 0.338259 0.007412 0 0 0 0 -0.0223113 -0.00597673 0 -0.0240232 0.0063478 0 -0.0223113 -0.00597673 0 606.39 606.39 1001.44 
119 1 1 0.350142 0.00833324 0 0 0 0 -0.0379574 0.0172155 0 -0.132556 0.00672114 0 -0.0379574 0.0172155 0 625.431 625.431 1001.48 
120 1 1 0.361207 0.0166942 0 0 0 0 -0.0367626 0.0270833 0 -0.109253 -0.0048888 0 -0.0367626 0.0270833 0 544.583 544.583 1001.29 
121 1 1 0.361402 0.00740235 0 0 0 0 -0.0911339 0.00839728 0 -0.0432087 0.0392672 0 -0.0911339 0.00839728 0 612.505 612.505 1001.45 
122 1 1 0.376484 0.00727601 0 0 0 0 -0.113862 -0.0193758 0 -0.107129 0.0266941 0 -0.113862 -0.0193758 0 654.002 654.002 1001.55 
123 1 1 0.383737 0.0175002 0 0 0 0 -0.0632113 -0.0260181 0 -0.210257 0.122424 0 -0.0632113 -0.0260181 0 581.386 581.386 1001.38 
124 1 1 0.38727 0.0107287 0 0 0 0 -0.0732664 -0.0206764 0 -0.148769 -0.0270954 0 -0.0732664 -0.0206764 0 623.034 623.034 1001.48 
125 1 1 0.395444 0.00854798 0 0 0 0 -0.0557787 -0.0216339 0 -0.0542447 -0.0583439 0 -0.0557787 -0.0216339 0 663.932 663.932 1001.57 
126 1 1 0.402493 0.0173147 0 0 0 0 -0.131392 -0.00968555 0 0.0245184 0.174483 0 -0.131392 -0.00968555 0 601.413 601.413 1001.43 
127 1 1 0.406177 0.00960825 0 0 0 0 -0.000652568 -0.019314 0 -0.174192 -0.0697041 0 -0.000652568 -0.019314 0 661.127 661.127 1001.57 
128 1 1 0.41584 0.00808807 0 0 0 0 -0.015193 0.0263269 0 0.0418621 -0.0612701 0 -0.015193 0.0263269 0 708.781 708.781 1001.68 
129 1 1 0.428402 0.00748824 0 0 0 0 -0.0162575 -0.017755 0 -0.136321 0.0932993 0 -0.0162575 -0.017755 0 751.957 751.957 1001.78 
130 1 1 0.432436 0.0172413 0 0 0 0 -0.0276831 0.00297611 0 -0.0318025 -0.148198 0 -0.0276831 0.00297611 0 660.019 660.019 1001.56 
131 1 1 0.43978 0.00829685 0 0 0 0 -0.0478126 0.0226743 0 -0.116306 -0.0255854 0 -0.0478126 0.0226743 0 709.143 709.143 1001.68 
132 1 1 0.438603 0.0233802 0 0 0 0 -0.0720823 0.0254362 0 -0.0858485 -0.00920594 0 -0.0720823 0.0254362 0 596.991 596.991 1001.42 
133 1 1 0.445485 0.0154816 0 0 0 0 -0.0150349 0.0246812 0 -0.0581442 0.0188759 0 -0.0150349 0.0246812 0 661.241 661.241 1001.57 
134 1 1 0.452131 0.0209488 0 0 0 0 -0.0471703 0.0254712 0 -0.0641211 -0.102635 0 -0.0471703 0.0254712 0 630.912 630.912 1001.5 
135 1 1 0.451591 0.00762373 0 0 0 0 -0.0671028 -0.00283271 0 0.00245022 -0.098352 0 -0.0671028 -0.00283271 0 727.173 727.173 1001.72 
136 1 1 0.460093 0.0136273 0 0 0 0 -0.0758334 -0.0203943 0 -0.12139 0.0294234 0 -0.0758334 -0.0203943 0 698.414 698.414 1001.65 
137 1 1 0.465732 0.00766437 0 0 0 0 -0.0391481 -0.00622875 0 0.0983842 0.00137543 0 -0.0391481 -0.00622875 0 742.536 742.536 1001.76 
138 1 1 0.478697 0.00745558 0 0 0 0 -0.0222746 -0.013747 0 0.00330723 0.0425456 0 -0.0222746 -0.013747 0 755.755 755.755 1001.79 
139 1 1 0.491076 0.00795404 0 0 0 0 -0.0110841 -0.00986401 0 -0.0543275 -0.0214797 0 -0.0110841 -0.00986401 0 729.475 729.475 1001.73 
140 1 1 0.216326 0.037173 0 0 0 0 -0.0315039 -0.0288396 0 -0.114689 -0.0254114 0 -0.0315039 -0.0288396 0 205.899 205.899 1000.49 
141 1 1 0.217845 0.0285318 0 0 0 0 -0.00758314 -0.0215807 0 0.00524903 -0.0481639 0 -0.00758314 -0.0215807 0 312.957 312.957 1000.74 
142 1 1 0.254308 0.0337284 0 0 0 0 -0.0221429 0.0171027 0 -0.105727 0.0157174 0 -0.0221429 0.0171027 0 254.857 254.857 1000.61 
143 1 1 0.231894 0.024276 0 0 0 0 0.0329268 -0.0319194 0 -0.0148238 0.0232987 0 0.0329268 -0.0319194 0 360.301 360.301 1000.86 
144 1 1 0.263882 0.0377039 0 0 0 0 0.0194587 -0.0200499 0 -0.0988511 -0.0496132 0 0.0194587 -0.0200499 0 239.565 239.565 1000.57 
145 1 1 0.246811 0.0210148 0 0 0 0 0.0162279 -0.0181283 0 -0.0570929 -0.0257281 0 0.0162279 -0.0181283 0 402.64 402.64 1000.96 
146 1 1 0.276588 0.034256 0 0 0 0 -0.00402766 0.0227076 0 -0.131747 -0.0519191 0 -0.00402766 0.0227076 0 295.855 295.855 1000.7 
147 1 1 0.258219 0.0269637 0 0 0 0 -0.00130309 0.0194475 0 -0.118267 -0.106241 0 -0.00130309 0.0194475 0 341.995 341.995 1000.81 
148 1 1 0.268857 0.0274897 0 0 0 0 -0.00331709 -0.0254143 0 -0.101224 0.0782409 0 -0.00331709 -0.0254143 0 357.065 357.065 1000.85 
149 1 1 0.271315 0.0192444 0 0 0 0 0.0296616 -0.00525549 0 -0.00811219 -0.0653437 0 0.0296616 -0.00525549 0 443.608 443.608 1001.05 
150 1 1 0.303624 0.027167 0 0 0 0 0.0143407 0.0255492 0 -0.110467 -0.134279 0 0.0143407 0.0255492 0 383.997 383.997 1000.91 
151 1 1 0.285253 0.0172027 0 0 0 0 0.0100798 -0.0161995 0 -0.0869066 0.0223705 0 0.0100798 -0.0161995 0 475.302 475.302 1001.13 
152 1 1 0.294773 0.0186966 0 0 0 0 0.0196446 0.0453807 0 -0.0869478 -0.0884049 0 0.0196446 0.0453807 0 478.319 478.319 1001.13 
153 1 1 0.304278 0.01617 0 0 0 0 -0.0462337 -0.00332791 0 -0.0388158 0.128778 0 -0.0462337 -0.00332791 0 496.381 496.381 1001.18 
154 1 1 0.335289 0.0210457 0 0 0 0 -0.0163632 -0.0275935 0 -0.166928 0.0260542 0 -0.0163632 -0.0275935 0 497.239 497.239 1001.18 
155 1 1 0.344329 0.0170695 0 0 0 0 -0.0243651 0.0233293 0 -0.179339 0.00972104 0 -0.0243651 0.0233293 0 547.474 547.474 1001.3 
156 1 1 0.344029 0.0294895 0 0 0 0 -0.0580868 0.0576079 0 -0.0640776 -0.0292506 0 -0.0580868 0.0576079 0 403.253 403.253 1000.96 
157 1 1 0.352316 0.0193783 0 0 0 0 -0.0374619 0.0308334 0 -0.128001 -0.0119073 0 -0.0374619 0.0308334 0 529.125 529.125 1001.26 
158 1 1 0.354968 0.0282669 0 0 0 0 -0.0589469 0.0280656 0 -0.0351668 0.0279368 0 -0.0589469 0.0280656 0 457.031 457.031 1001.08 
159 1 1 0.365968 0.0256042 0 0 0 0 -0.0525815 0.0571461 0 -0.249336 0.0773341 0 -0.0525815 0.0571461 0 463.68 463.68 1001.1 
160 1 1 0.371048 0.0139025 0 0 0 0 -0.0729727 0.0321113 0 -0.12962 -0.0536227 0 -0.0729727 0.0321113 0 612.416 612.416 1001.45 
161 1 1 0.374481 0.022896 0 0 0 0 -0.0271182 -0.0382082 0 -0.0472984 -0.0086356 0 -0.0271182 -0.0382082 0 520.309 520.309 1001.23 
162 1 1 0.38351 0.0281031 0 0 0 0 -0.0666819 -0.00677423 0 -0.128515 -0.023829 0 -0.0666819 -0.00677423 0 485.373 485.373 1001.15 
163 1 1 0.39445 0.0216903 0 0 0 0 -0.0310939 -0.0198751 0 -0.15794 -0.222142 0 -0.0310939 -0.0198751 0 599.516 599.516 1001.42 
164 1 1 0.405514 0.0277061 0 0 0 0 -0.0181264 0.0194432 0 -0.348751 -0.082418 0 -0.0181264 0.0194432 0 493.18 493.18 1001.17 
165 1 1 0.416754 0.0270746 0 0 0 0 -0.0434487 -0.0471019 0 0.0193672 -0.111521 0 -0.0434487 -0.0471019 0 556.125 556.125 1001.32 
166 1 1 0.413766 0.0184958 0 0 0 0 -0.107552 -0.0499511 0 -0.235295 0.00452724 0 -0.107552 -0.0499511 0 600.849 600.849 1001.42 
167 1 1 0.42521 0.0351311 0 0 0 0 -0.0388411 0.0120345 0 -0.174892 -0.0549867 0 -0.0388411 0.0120345 0 500.633 500.633 1001.19 
168 1 1 0.42304 0.0163756 0 0 0 0 -0.0156441 0.00910608 0 -0.187806 0.0795994 0 -0.0156441 0.00910608 0 647.702 647.702 1001.54 
169 1 1 0.430373 0.0446967 0 0 0 0 -0.060217 0.0160276 0 -0.0750415 -0.0825353 0 -0.060217 0.0160276 0 374.332 374.332 1000.89 
170 1 1 0.427831 0.0269278 0 0 0 0 -0.100261 -0.00144182 0 -0.086086 -0.00697953 0 -0.100261 -0.00144182 0 569.312 569.312 1001.35 
171 1 1 0.435833 0.0353621 0 0 0 0 -0.0430539 0.0216418 0 -0.0609776 -0.0820613 0 -0.0430539 0.0216418 0 471.163 471.163 1001.12 
172 1 1 0.44439 0.0293504 0 0 0 0 -0.058956 -0.00836665 0 -0.0719914 -0.0489883 0 -0.058956 -0.00836665 0 574.956 574.956 1001.36 
173 1 1 0.45572 0.0322394 0 0 0 0 -0.0318472 -0.0230516 0 0.0357033 0.0297596 0 -0.0318472 -0.0230516 0 551.007 551.007 1001.31 
174 1 1 0.461586 0.0240948 0 0 0 0 0.0132244 -0.0332717 0 -0.0148551 -0.196671 0 0.0132244 -0.0332717 0 610.988 610.988 1001.45 
175 1 1 0.475542 0.0281924 0 0 0 0 -0.0116332 -0.0467452 0 -0.0188108 -0.0210453 0 -0.0116332 -0.0467452 0 613.263 613.263 1001.45 
176 1 1 0.470254 0.0180184 0 0 0 0 -0.0322699 -0.0447113 0 -0.0239422 -0.0512145 0 -0.0322699 -0.0447113 0 709.349 709.349 1001.68 
177 1 1 0.479154 0.0148609 0 0 0 0 -0.0237007 0.00708524 0 0.0073466 0.0552468 0 -0.0237007 0.00708524 0 735.122 735.122 1001.74 
178 1 1 0.490655 0.0175088 0 0 0 0 -0.00711419 -0.0205716 0 0.0310128 -0.00847874 0 -0.00711419 -0.0205716 0 722.784 722.784 1001.71 
179 1 1 0.205212 0.0347742 0 0 0 0 -0.0454965 0.00394891 0 -0.0464086 -0.0215404 0 -0.0454965 0.00394891 0 226.118 226.118 1000.54 
180 1 1 0.2287 0.0317869 0 0 0 0 -0.0359603 -0.0237089 0 -0.0491802 0.0144967 0 -0.0359603 -0.0237089 0 267.68 267.68 1000.64 
181 1 1 0.241488 0.0366489 0 0 0 0 -0.0255692 -0.0240158 0 -0.103758 -0.0137192 0 -0.0255692 -0.0240158 0 230.239 230.239 1000.55 
182 1 1 0.243632 0.0283687 0 0 0 0 -0.000635874 0.000321867 0 -0.13534 0.0402835 0 -0.000635874 0.000321867 0 328.707 328.707 1000.78 
183 1 1 0.25901 0.0455856 0 0 0 0 0.0334872 -0.00611722 0 -0.185094 0.0439722 0 0.0334872 -0.00611722 0 152.839 152.839 1000.36 
184 1 1 0.248247 0.0422055 0 0 0 0 0.0179595 0.000257195 0 0.0365274 -0.00902933 0 0.0179595 0.000257195 0 145.562 145.562 1000.35 
185 1 1 0.271189 0.0430682 0 0 0 0 0.0154014 -0.000325012 0 -0.0840791 -0.0274756 0 0.0154014 -0.000325012 0 205.879 205.879 1000.49 
186 1 1 0.280901 0.0244297 0 0 0 0 0.00851837 0.0116433 0 -0.0809422 0.0433842 0 0.00851837 0.0116433 0 390.148 390.148 1000.93 
187 1 1 0.293028 0.0278106 0 0 0 0 -0.0291929 0.0112162 0 -0.0953957 0.0727411 0 -0.0291929 0.0112162 0 382.098 382.098 1000.91 
188 1 1 0.30572 0.0352475 0 0 0 0 0.0172246 0.048562 0 -0.0975754 0.104133 0 0.0172246 0.048562 0 327.999 327.999 1000.78 
189 1 1 0.318852 0.0416169 0 0 0 0 -0.0142423 -0.00908471 0 -0.137633 -0.0547362 0 -0.0142423 -0.00908471 0 266.18 266.18 1000.63 
190 1 1 0.313214 0.0186779 0 0 0 0 -0.0273225 -0.0240421 0 -0.0625036 0.0518927 0 -0.0273225 -0.0240421 0 479.346 479.346 1001.14 
191 1 1 0.328948 0.0373288 0 0 0 0 -0.0615078 -0.0129976 0 -0.0502462 0.0837489 0 -0.0615078 -0.0129976 0 337.985 337.985 1000.8 
192 1 1 0.322594 0.0289768 0 0 0 0 0.0060148 -0.0215544 0 -0.0672033 -0.0425097 0 0.0060148 -0.0215544 0 407.629 407.629 1000.97 
193 1 1 0.343522 0.0383811 0 0 0 0 -0.0293358 0.0841125 0 -0.211068 -0.0203753 0 -0.0293358 0.0841125 0 312.745 312.745 1000.74 
194 1 1 0.342966 0.0473899 0 0 0 0 -0.0529752 0.0682191 0 -0.0356689 0.0635781 0 -0.0529752 0.0682191 0 223.517 223.517 1000.53 
195 1 1 0.354027 0.037187 0 0 0 0 -0.0207466 0.00706089 0 -0.124875 0.0772513 0 -0.0207466 0.00706089 0 342.549 342.549 1000.81 
196 1 1 0.36508 0.0355057 0 0 0 0 -0.0215198 0.00714509 0 -0.135547 -0.0216097 0 -0.0215198 0.00714509 0 404.194 404.194 1000.96 
197 1 1 0.377047 0.0431181 0 0 0 0 -0.0562793 0.0203236 0 -0.160908 0.0513335 0 -0.0562793 0.0203236 0 336.008 336.008 1000.8 
198 1 1 0.375467 0.0340768 0 0 0 0 -0.0265163 0.0265987 0 -0.146401 -0.0240006 0 -0.0265163 0.0265987 0 415.944 415.944 1000.99 
199 1 1 0.38871 0.0499673 0 0 0 0 -0.069802 -0.0429538 0 -0.162044 -0.0594507 0 -0.069802 -0.0429538 0 300.803 300.803 1000.71 
200 1 1 0.386269 0.0394616 0 0 0 0 -0.0508939 -0.0217654 0 -0.203509 -0.0701761 0 -0.0508939 -0.0217654 0 395.86 395.86 1000.94 
201 1 1 0.394211 0.0292979 0 0 0 0 -0.0664635 -0.0311015 0 -0.0155671 0.12383 0 -0.0664635 -0.0311015 0 514.215 514.215 1001.22 
202 1 1 0.398758 0.0502413 0 0 0 0 -0.0788434 0.0289002 0 -0.23858 0.0536713 0 -0.0788434 0.0289002 0 296.458 296.458 1000.7 
203 1 1 0.404638 0.0405763 0 0 0 0 -0.0896992 0.0200604 0 -0.10952 -0.249802 0 -0.0896992 0.0200604 0 440 440 1001.04 
204 1 1 0.409286 0.0482164 0 0 0 0 -0.0606268 -0.035837 0 -0.101027 0.0479596 0 -0.0606268 -0.035837 0 353.249 353.249 1000.84 
205 1 1 0.411846 0.0339101 0 0 0 0 -0.0382063 -0.0226142 0 -0.0915725 0.228244 0 -0.0382063 -0.0226142 0 496.44 496.44 1001.18 
206 1 1 0.419636 0.0433737 0 0 0 0 -0.0835156 -0.0526105 0 -0.30268 -0.21547 0 -0.0835156 -0.0526105 0 419.434 419.434 1001 
207 1 1 0.435952 0.0528352 0 0 0 0 0.00382929 0.0289242 0 -0.0759115 -0.083797 0 0.00382929 0.0289242 0 348.542 348.542 1000.83 
208 1 1 0.447712 0.0574769 0 0 0 0 -0.00403524 -0.0530636 0 -0.173021 -0.312219 0 -0.00403524 -0.0530636 0 329.771 329.771 1000.78 
209 1 1 0.440986 0.0447501 0 0 0 0 -0.0784222 0.0199391 0 -0.103524 -0.0920653 0 -0.0784222 0.0199391 0 434.732 434.732 1001.03 
210 1 1 0.451318 0.0472653 0 0 0 0 -0.0275178 -0.0644166 0 -0.111909 0.0713632 0 -0.0275178 -0.0644166 0 430.601 430.601 1001.02 
211 1 1 0.448945 0.0378601 0 0 0 0 -0.058535 -0.024087 0 -0.0989573 -0.061147 0 -0.058535 -0.024087 0 499.029 499.029 1001.18 
212 1 1 0.461049 0.0426512 0 0 0 0 -0.0198561 -0.0686765 0 -0.104493 -0.288225 0 -0.0198561 -0.0686765 0 500.956 500.956 1001.19 
213 1 1 0.466677 0.0315478 0 0 0 0 -0.0303936 -0.0254868 0 -0.139729 0.0517353 0 -0.0303936 -0.0254868 0 590.148 590.148 1001.4 
214 1 1 0.473312 0.0389867 0 0 0 0 0.00803475 -0.0692892 0 -0.00974014 -0.0660693 0 0.00803475 -0.0692892 0 526.659 526.659 1001.25 
215 1 1 0.481857 0.0416789 0 0 0 0 -0.027957 -0.0228766 0 -0.0657628 -0.015232 0 -0.027957 -0.0228766 0 556.151 556.151 1001.32 
216 1 1 0.482792 0.0247347 0 0 0 0 0.0198954 -0.0361524 0 0.00752577 0.0759144 0 0.0198954 -0.0361524 0 672.333 672.333 1001.59 
217 1 1 0.490167 0.0295641 0 0 0 0 0.0118343 -0.00888556 0 -0.0323041 -0.0551564 0 0.0118343 -0.00888556 0 665.723 665.723 1001.58 
218 1 1 0.220878 0.0441059 0 0 0 0 -0.0444998 -0.0266074 0 -0.036681 -0.0297429 0 -0.0444998 -0.0266074 0 126.712 126.712 1000.3 
219 1 1 0.186405 0.0471359 0 0 0 0 -0.0756713 -0.0252323 0 -0.069114 0.0400842 0 -0.0756713 -0.0252323 0 104.021 104.021 1000.25 
220 1 1 0.205983 0.0438442 0 0 0 0 -0.064699 -0.0266713 0 0.0444922 -0.0125778 0 -0.064699 -0.0266713 0 150.64 150.64 1000.36 
221 1 1 0.239053 0.0481653 0 0 0 0 -0.0296108 -0.0513719 0 -0.218705 0.0911497 0 -0.0296108 -0.0513719 0 132.537 132.537 1000.32 
222 1 1 0.230966 0.0392228 0 0 0 0 -0.0130557 -0.03388 0 -0.00535462 0.105537 0 -0.0130557 -0.03388 0 198.356 198.356 1000.47 
223 1 1 0.283326 0.0446516 0 0 0 0 0.0467932 0.0388153 0 -0.138715 0.0122876 0 0.0467932 0.0388153 0 206.845 206.845 1000.49 
224 1 1 0.286053 0.0347687 0 0 0 0 -0.0281884 0.025739 0 0.00323972 0.00833939 0 -0.0281884 0.025739 0 311.81 311.81 1000.74 
225 1 1 0.296106 0.0387681 0 0 0 0 0.00620027 -0.024056 0 -0.0918333 0.0283413 0 0.00620027 -0.024056 0 272.755 272.755 1000.65 
226 1 1 0.300337 0.0501176 0 0 0 0 0.0201831 -0.00554383 0 -0.0580364 0.00371849 0 0.0201831 -0.00554383 0 182.842 182.842 1000.43 
227 1 1 0.314389 0.0303356 0 0 0 0 -0.0426848 -0.00394216 0 -0.0279095 0.051144 0 -0.0426848 -0.00394216 0 392.028 392.028 1000.93 
228 1 1 0.308873 0.0447791 0 0 0 0 0.0146027 0.0585251 0 -0.0420549 -0.0880672 0 0.0146027 0.0585251 0 242.894 242.894 1000.58 
229 1 1 0.322061 0.0495538 0 0 0 0 0.00802324 0.0429273 0 -0.0119178 0.00561455 0 0.00802324 0.0429273 0 183.231 183.231 1000.44 
230 1 1 0.333776 0.0294628 0 0 0 0 0.0192261 -0.00129804 0 -0.034015 0.0900442 0 0.0192261 -0.00129804 0 412.042 412.042 1000.98 
231 1 1 0.33302 0.0454168 0 0 0 0 -0.0267316 -0.031317 0 -0.0694227 0.0146543 0 -0.0267316 -0.031317 0 253.451 253.451 1000.6 