ITEM: TIMESTEP
137000
ITEM: NUMBER OF ATOMS
754
ITEM: BOX BOUNDS ff ff pp
-0.021 0.521
-0.021 0.5
-0.001 0.001
ITEM: ATOMS id type type x y z ix iy iz vx vy vz fx fy fz vx vy vz p p rho 
1 1 1 0.00771744 0.00504621 0 0 0 0 -0.00386743 -0.00295708 0 -0.0241471 0.015166 0 -0.00386743 -0.00295708 0 615.015 615.015 1001.46 
2 1 1 0.0220086 0.0060378 0 0 0 0 0.0208293 -0.00850706 0 0.042781 -0.0228551 0 0.0208293 -0.00850706 0 643.985 643.985 1001.53 
3 1 1 0.0475645 0.00943125 0 0 0 0 0.0808365 -0.0317126 0 0.0706244 -0.0600252 0 0.0808365 -0.0317126 0 621.433 621.433 1001.47 
4 1 1 0.0595045 0.00556116 0 0 0 0 0.0987233 0.0104933 0 0.0843502 0.00654581 0 0.0987233 0.0104933 0 635.166 635.166 1001.51 
5 1 1 0.0756256 0.00624211 0 0 0 0 0.117625 -0.0117847 0 -0.0506902 0.0483341 0 0.117625 -0.0117847 0 652.243 652.243 1001.55 
6 1 1 0.091498 0.00661891 0 0 0 0 0.140918 0.00348986 0 -0.0807338 -0.0606334 0 0.140918 0.00348986 0 634.844 634.844 1001.5 
7 1 1 0.1232 0.00644342 0 0 0 0 0.152154 0.0142142 0 0.0140237 -0.0149899 0 0.152154 0.0142142 0 605.155 605.155 1001.43 
8 1 1 0.110751 0.0190936 0 0 0 0 0.120894 0.00422312 0 0.0660106 -0.103059 0 0.120894 0.00422312 0 533.425 533.425 1001.27 
9 1 1 0.147798 0.00808066 0 0 0 0 0.118939 -0.00995203 0 0.0893831 -0.0299814 0 0.118939 -0.00995203 0 597.141 597.141 1001.42 
10 1 1 0.159371 0.00645712 0 0 0 0 0.111641 0.00929702 0 0.0269425 0.0854276 0 0.111641 0.00929702 0 621.566 621.566 1001.47 
11 1 1 0.021971 0.0204989 0 0 0 0 0.0527287 -0.0534344 0 -0.0925311 -0.0391075 0 0.0527287 -0.0534344 0 545.996 545.996 1001.29 
12 1 1 0.0378728 0.00587585 0 0 0 0 0.0498497 -0.00382758 0 -0.0231654 0.0257295 0 0.0498497 -0.00382758 0 617.547 617.547 1001.46 
13 1 1 0.0484135 0.0174252 0 0 0 0 0.0608975 -0.0296517 0 0.0274493 -0.019003 0 0.0608975 -0.0296517 0 558.856 558.856 1001.33 
14 1 1 0.069739 0.0126289 0 0 0 0 0.0850419 -0.0145111 0 -0.0362271 0.0242479 0 0.0850419 -0.0145111 0 599.345 599.345 1001.42 
15 1 1 0.0831308 0.0127335 0 0 0 0 0.120389 -0.021983 0 0.0396182 0.0357709 0 0.120389 -0.021983 0 635.191 635.191 1001.51 
16 1 1 0.111707 0.00854028 0 0 0 0 0.151569 -0.0382455 0 -0.0450939 -0.0156021 0 0.151569 -0.0382455 0 599.523 599.523 1001.42 
17 1 1 0.112775 0.0282811 0 0 0 0 0.169958 -0.00556506 0 -0.00519119 -0.0174673 0 0.169958 -0.00556506 0 455.117 455.117 1001.08 
18 1 1 0.135856 0.00665493 0 0 0 0 0.106989 0.0102342 0 0.0667882 0.0373417 0 0.106989 0.0102342 0 600.117 600.117 1001.42 
19 1 1 0.151499 0.0165877 0 0 0 0 0.130956 0.0112297 0 0.0392481 0.0521153 0 0.130956 0.0112297 0 514.774 514.774 1001.22 
20 1 1 0.143487 0.0257072 0 0 0 0 0.116414 0.00751508 0 0.0443899 -0.0856262 0 0.116414 0.00751508 0 464.126 464.126 1001.1 
21 1 1 0.0201335 0.0317062 0 0 0 0 -0.00400549 -0.0372071 0 0.0390625 0.0365037 0 -0.00400549 -0.0372071 0 466.442 466.442 1001.11 
22 1 1 0.0294819 0.0127174 0 0 0 0 0.0288956 -0.00788062 0 0.0281978 0.0564184 0 0.0288956 -0.00788062 0 611.737 611.737 1001.45 
23 1 1 0.0366879 0.0167407 0 0 0 0 0.0321198 -0.0284666 0 0.0712542 -0.021921 0 0.0321198 -0.0284666 0 574.569 574.569 1001.36 
24 1 1 0.0580491 0.0426059 0 0 0 0 0.107396 -0.0843345 0 0.082357 -0.0531972 0 0.107396 -0.0843345 0 410.334 410.334 1000.97 
25 1 1 0.0592801 0.0258534 0 0 0 0 0.0853207 -0.0400763 0 -0.0907347 0.0212618 0 0.0853207 -0.0400763 0 541.794 541.794 1001.29 
26 1 1 0.102896 0.00828327 0 0 0 0 0.118877 0.0164602 0 -0.00929957 0.0198737 0 0.118877 0.0164602 0 596.822 596.822 1001.41 
27 1 1 0.101918 0.0194439 0 0 0 0 0.151578 -0.0207362 0 0.10644 0.0105372 0 0.151578 -0.0207362 0 561.61 561.61 1001.33 
28 1 1 0.131352 0.0152173 0 0 0 0 0.144969 0.0379575 0 0.0321723 -0.0508586 0 0.144969 0.0379575 0 532.992 532.992 1001.26 
29 1 1 0.14165 0.0161492 0 0 0 0 0.132868 -0.0269277 0 0.0149254 -0.0142836 0 0.132868 -0.0269277 0 533.466 533.466 1001.27 
30 1 1 0.151474 0.0290015 0 0 0 0 0.10464 -0.00210806 0 0.0548761 0.0259513 0 0.10464 -0.00210806 0 486.421 486.421 1001.15 
31 1 1 0.0167037 0.0137485 0 0 0 0 -0.0112906 -0.0314662 0 -0.0191063 -0.00320629 0 -0.0112906 -0.0314662 0 595.939 595.939 1001.41 
32 1 1 0.0287927 0.0256079 0 0 0 0 0.0251415 -0.00189654 0 0.0533383 -0.0392055 0 0.0251415 -0.00189654 0 512.205 512.205 1001.22 
33 1 1 0.0516749 0.0355223 0 0 0 0 0.0618668 -0.0499957 0 -0.0492559 0.0482286 0 0.0618668 -0.0499957 0 433.397 433.397 1001.03 
34 1 1 0.0663125 0.0196569 0 0 0 0 0.0992859 -0.0129336 0 0.0885095 0.0212474 0 0.0992859 -0.0129336 0 558.72 558.72 1001.33 
35 1 1 0.0940981 0.0268979 0 0 0 0 0.127689 -0.00424441 0 0.0222867 0.0395413 0 0.127689 -0.00424441 0 473.071 473.071 1001.12 
36 1 1 0.103866 0.0310246 0 0 0 0 0.126759 -0.0118674 0 -0.0243689 -0.0451316 0 0.126759 -0.0118674 0 437.057 437.057 1001.04 
37 1 1 0.12031 0.0152424 0 0 0 0 0.117901 0.00275074 0 0.0567486 0.0365032 0 0.117901 0.00275074 0 565.152 565.152 1001.34 
38 1 1 0.1326 0.0237377 0 0 0 0 0.150702 0.0449987 0 0.0292224 -0.0367539 0 0.150702 0.0449987 0 476.365 476.365 1001.13 
39 1 1 0.148049 0.0402876 0 0 0 0 0.136468 -0.00191419 0 -0.0220698 -0.127684 0 0.136468 -0.00191419 0 357.337 357.337 1000.85 
40 1 1 0.117966 0.0459327 0 0 0 0 0.118171 -0.00950239 0 0.0416201 -0.0709645 0 0.118171 -0.00950239 0 365.046 365.046 1000.87 
41 1 1 0.0082709 0.0167223 0 0 0 0 -0.00436493 0.0165228 0 0.000329727 0.01028 0 -0.00436493 0.0165228 0 568.473 568.473 1001.35 
42 1 1 0.0228172 0.0513846 0 0 0 0 0.040466 -0.0489101 0 0.0456011 0.0519118 0 0.040466 -0.0489101 0 315.123 315.123 1000.75 
43 1 1 0.0395522 0.025132 0 0 0 0 0.0828137 -0.068127 0 -0.0744815 0.0682981 0 0.0828137 -0.068127 0 527.215 527.215 1001.25 
44 1 1 0.0523132 0.0505014 0 0 0 0 0.133693 -0.0896454 0 0.0151633 -0.0299277 0 0.133693 -0.0896454 0 338.823 338.823 1000.8 
45 1 1 0.0753431 0.0235721 0 0 0 0 0.147693 -0.0666034 0 -0.00705846 -0.0132121 0 0.147693 -0.0666034 0 538.708 538.708 1001.28 
46 1 1 0.0853163 0.0312312 0 0 0 0 0.0766112 0.00636768 0 0.0188228 -0.00157807 0 0.0766112 0.00636768 0 470.09 470.09 1001.12 
47 1 1 0.122735 0.0238295 0 0 0 0 0.14713 -0.0319943 0 0.0697926 0.0604739 0 0.14713 -0.0319943 0 529.489 529.489 1001.26 
48 1 1 0.139443 0.0337187 0 0 0 0 0.118363 0.0403823 0 0.0478424 0.0454866 0 0.118363 0.0403823 0 406.262 406.262 1000.96 
49 1 1 0.135544 0.0431727 0 0 0 0 0.145402 0.0239489 0 0.0530562 -0.0296182 0 0.145402 0.0239489 0 318.652 318.652 1000.76 
50 1 1 0.11049 0.0651854 0 0 0 0 0.192974 0.052592 0 0.115488 -0.127894 0 0.192974 0.052592 0 143.065 143.065 1000.34 
51 1 1 0.010951 0.0252282 0 0 0 0 0.0485091 -0.0377861 0 0.0445114 0.0409291 0 0.0485091 -0.0377861 0 533.853 533.853 1001.27 
52 1 1 0.0313522 0.035073 0 0 0 0 0.0341778 -0.0964085 0 -0.0777806 -0.0545693 0 0.0341778 -0.0964085 0 464.972 464.972 1001.1 
53 1 1 0.0487937 0.0269208 0 0 0 0 0.0485953 -0.0151751 0 0.00809572 -0.00265268 0 0.0485953 -0.0151751 0 512.634 512.634 1001.22 
54 1 1 0.0638527 0.0333181 0 0 0 0 0.102039 -0.0776868 0 0.117734 0.0518722 0 0.102039 -0.0776868 0 499.566 499.566 1001.19 
55 1 1 0.0727205 0.0418349 0 0 0 0 0.110738 -0.0372176 0 -0.00372482 -0.00101997 0 0.110738 -0.0372176 0 383.692 383.692 1000.91 
56 1 1 0.0839924 0.0400324 0 0 0 0 0.0970144 -0.0205767 0 0.0832382 0.0301097 0 0.0970144 -0.0205767 0 410.616 410.616 1000.97 
57 1 1 0.108568 0.0395253 0 0 0 0 0.120945 -0.0160911 0 0.116839 -0.0195988 0 0.120945 -0.0160911 0 393.333 393.333 1000.93 
58 1 1 0.101059 0.0451692 0 0 0 0 0.133577 -0.048573 0 0.0725602 -0.0653031 0 0.133577 -0.048573 0 361.335 361.335 1000.86 
59 1 1 0.126268 0.0453053 0 0 0 0 0.124194 0.0222413 0 0.171549 0.0375402 0 0.124194 0.0222413 0 314.617 314.617 1000.75 
60 1 1 0.129504 0.0574585 0 0 0 0 0.172766 0.00671315 0 -0.086779 -0.15611 0 0.172766 0.00671315 0 222.477 222.477 1000.53 
61 1 1 0.0402743 0.0362986 0 0 0 0 0.0514416 -0.0343633 0 0.122254 -0.00171862 0 0.0514416 -0.0343633 0 431.24 431.24 1001.02 
62 1 1 0.00989448 0.034303 0 0 0 0 -0.0192726 -0.0328125 0 -0.0133428 -0.0320098 0 -0.0192726 -0.0328125 0 471.452 471.452 1001.12 
63 1 1 0.0575616 0.0145039 0 0 0 0 0.0708167 -0.00706641 0 -0.0274797 0.104249 0 0.0708167 -0.00706641 0 597.177 597.177 1001.42 
64 1 1 0.0352583 0.0539841 0 0 0 0 0.0770442 -0.105509 0 0.0617348 -0.0597892 0 0.0770442 -0.105509 0 329.084 329.084 1000.78 
65 1 1 0.0655001 0.0485359 0 0 0 0 0.0904572 -0.0704814 0 0.054268 0.0507527 0 0.0904572 -0.0704814 0 324.281 324.281 1000.77 
66 1 1 0.0943046 0.0162558 0 0 0 0 0.12408 0.0158063 0 0.0278288 0.0199652 0 0.12408 0.0158063 0 576.22 576.22 1001.37 
67 1 1 0.0948996 0.0373024 0 0 0 0 0.105242 -0.0564543 0 0.0303522 0.0412113 0 0.105242 -0.0564543 0 414.905 414.905 1000.98 
68 1 1 0.119812 0.0346921 0 0 0 0 0.129623 0.00346365 0 -0.00701593 0.00394972 0 0.129623 0.00346365 0 448.763 448.763 1001.07 
69 1 1 0.129486 0.0339956 0 0 0 0 0.109319 0.03601 0 0.0362362 -0.0781069 0 0.109319 0.03601 0 411.466 411.466 1000.98 
70 1 1 0.128784 0.0695743 0 0 0 0 0.270123 -0.028745 0 0.0234938 -0.0485073 0 0.270123 -0.028745 0 271.498 271.498 1000.65 
71 1 1 0.0115284 0.0535777 0 0 0 0 0.000237714 -0.0670539 0 -0.0013231 -0.0572894 0 0.000237714 -0.0670539 0 368.774 368.774 1000.88 
72 1 1 0.0316415 0.0709568 0 0 0 0 0.0524049 -0.155654 0 -0.042028 0.00169803 0 0.0524049 -0.155654 0 269.247 269.247 1000.64 
73 1 1 0.0213853 0.0410631 0 0 0 0 0.0176291 -0.0423835 0 0.0423648 0.028678 0 0.0176291 -0.0423835 0 386.987 386.987 1000.92 
74 1 1 0.0439382 0.0444338 0 0 0 0 0.0379315 -0.0691468 0 0.0230406 0.0634596 0 0.0379315 -0.0691468 0 331.772 331.772 1000.79 
75 1 1 0.0633727 0.0586193 0 0 0 0 0.125499 -0.0864692 0 0.00983465 0.0652497 0 0.125499 -0.0864692 0 246.615 246.615 1000.59 
76 1 1 0.0836528 0.020632 0 0 0 0 0.129426 -0.0171581 0 0.0965251 0.0261857 0 0.129426 -0.0171581 0 582.086 582.086 1001.38 
77 1 1 0.0735693 0.0327322 0 0 0 0 0.0900944 -0.0378992 0 0.0665876 -0.0284712 0 0.0900944 -0.0378992 0 458.273 458.273 1001.09 
78 1 1 0.102389 0.056569 0 0 0 0 0.128392 -0.0264794 0 -0.0109798 0.143506 0 0.128392 -0.0264794 0 292.933 292.933 1000.7 
79 1 1 0.112044 0.0526971 0 0 0 0 0.150608 0.0241468 0 -0.0627145 -0.052056 0 0.150608 0.0241468 0 313.829 313.829 1000.75 
80 1 1 0.105038 0.0744309 0 0 0 0 0.197434 0.0145189 0 0.0875435 0.152724 0 0.197434 0.0145189 0 252.567 252.567 1000.6 
81 1 1 0.0110353 0.0440033 0 0 0 0 0.0203672 -0.0497165 0 0.0374054 0.0168981 0 0.0203672 -0.0497165 0 424.785 424.785 1001.01 
82 1 1 0.0130346 0.0628475 0 0 0 0 -0.0158462 -0.0742473 0 0.0343744 0.043667 0 -0.0158462 -0.0742473 0 267.545 267.545 1000.64 
83 1 1 0.0322129 0.0458517 0 0 0 0 0.0137096 -0.0906901 0 0.0076234 -0.0274643 0 0.0137096 -0.0906901 0 387.571 387.571 1000.92 
84 1 1 0.023535 0.0620456 0 0 0 0 0.00503086 -0.107243 0 0.084271 -0.0807072 0 0.00503086 -0.107243 0 186.64 186.64 1000.44 
85 1 1 0.0489473 0.0578483 0 0 0 0 0.0761414 -0.118036 0 -0.0275746 0.0274993 0 0.0761414 -0.118036 0 351.105 351.105 1000.83 
86 1 1 0.0745981 0.0546304 0 0 0 0 0.172325 -0.0718706 0 -0.117042 0.0912875 0 0.172325 -0.0718706 0 310.132 310.132 1000.74 
87 1 1 0.0828228 0.0498114 0 0 0 0 0.163654 -0.0250734 0 0.063782 0.0378371 0 0.163654 -0.0250734 0 367.182 367.182 1000.87 
88 1 1 0.0853304 0.0624267 0 0 0 0 0.150014 -0.0667302 0 0.129389 -0.0395038 0 0.150014 -0.0667302 0 243.676 243.676 1000.58 
89 1 1 0.0926321 0.0504055 0 0 0 0 0.18793 -0.00262246 0 -0.0615184 -0.043466 0 0.18793 -0.00262246 0 340.651 340.651 1000.81 
90 1 1 0.0949235 0.0637942 0 0 0 0 0.219773 0.000812139 0 0.0594193 0.0150031 0 0.219773 0.000812139 0 208.872 208.872 1000.5 
91 1 1 0.03199 0.0805681 0 0 0 0 0.147049 -0.188075 0 0.106335 0.0563404 0 0.147049 -0.188075 0 106.792 106.792 1000.25 
92 1 1 0.0167438 0.0794 0 0 0 0 0.0158139 -0.121617 0 0.0779456 -0.0538399 0 0.0158139 -0.121617 0 81.2174 81.2174 1000.19 
93 1 1 0.013679 0.072772 0 0 0 0 0.00213166 -0.0703517 0 0.0107734 -0.0947761 0 0.00213166 -0.0703517 0 161.781 161.781 1000.38 
94 1 1 0.0504141 0.0686969 0 0 0 0 0.121144 -0.16489 0 -0.0803453 0.106238 0 0.121144 -0.16489 0 262.267 262.267 1000.62 
95 1 1 0.0508643 0.0796756 0 0 0 0 0.18927 -0.155655 0 0.000760926 0.0883264 0 0.18927 -0.155655 0 177.882 177.882 1000.42 
96 1 1 0.0724147 0.0788521 0 0 0 0 0.17682 -0.0992073 0 -0.12552 0.108779 0 0.17682 -0.0992073 0 192.08 192.08 1000.46 
97 1 1 0.0375597 0.0626984 0 0 0 0 0.0792372 -0.11425 0 0.164413 0.0960537 0 0.0792372 -0.11425 0 285.387 285.387 1000.68 
98 1 1 0.0627708 0.0678587 0 0 0 0 0.169947 -0.10145 0 0.0483377 0.0442954 0 0.169947 -0.10145 0 181.507 181.507 1000.43 
99 1 1 0.0763372 0.0672673 0 0 0 0 0.170987 -0.0901874 0 -0.0492314 0.0474397 0 0.170987 -0.0901874 0 292.145 292.145 1000.69 
100 1 1 0.090899 0.0773048 0 0 0 0 0.273214 -0.0323434 0 -0.163882 0.0863765 0 0.273214 -0.0323434 0 236.036 236.036 1000.56 
101 1 1 0.161155 0.0159982 0 0 0 0 0.142693 -0.0239202 0 0.0638145 0.0196097 0 0.142693 -0.0239202 0 543.5 543.5 1001.29 
102 1 1 0.169862 0.0165412 0 0 0 0 0.137469 0.0246792 0 0.108469 0.0357488 0 0.137469 0.0246792 0 516.017 516.017 1001.22 
103 1 1 0.17249 0.025953 0 0 0 0 0.1099 0.0295455 0 0.0768558 -0.0589247 0 0.1099 0.0295455 0 489.165 489.165 1001.16 
104 1 1 0.171689 0.00718688 0 0 0 0 0.0992568 0.00498868 0 0.0213976 -0.0347654 0 0.0992568 0.00498868 0 571.475 571.475 1001.36 
105 1 1 0.180384 0.0101024 0 0 0 0 0.116495 -0.00527311 0 0.0702731 -0.0339381 0 0.116495 -0.00527311 0 567.833 567.833 1001.35 
106 1 1 0.191112 0.0059248 0 0 0 0 0.0900482 -4.05677e-05 0 0.0180402 -0.0173011 0 0.0900482 -4.05677e-05 0 559.544 559.544 1001.33 
107 1 1 0.199414 0.014316 0 0 0 0 0.108083 -0.0057094 0 0.0537357 -0.039309 0 0.108083 -0.0057094 0 528.486 528.486 1001.25 
108 1 1 0.204964 0.00663162 0 0 0 0 0.0939231 -0.00764233 0 0.0783932 0.00139185 0 0.0939231 -0.00764233 0 570.414 570.414 1001.35 
109 1 1 0.205535 0.0206743 0 0 0 0 0.107043 -0.0061811 0 0.101529 -0.0139831 0 0.107043 -0.0061811 0 461.26 461.26 1001.09 
110 1 1 0.213171 0.0130689 0 0 0 0 0.108896 0.000391388 0 0.0613556 0.0152466 0 0.108896 0.000391388 0 519.503 519.503 1001.23 
111 1 1 0.21963 0.00622456 0 0 0 0 0.087616 0.014135 0 0.0703721 0.0173749 0 0.087616 0.014135 0 530.639 530.639 1001.26 
112 1 1 0.231511 0.00787487 0 0 0 0 0.0434523 0.0125671 0 0.0597073 0.0371432 0 0.0434523 0.0125671 0 531.98 531.98 1001.26 
113 1 1 0.242403 0.00694639 0 0 0 0 0.0364875 -0.00674888 0 0.0714919 -0.00952303 0 0.0364875 -0.00674888 0 502.424 502.424 1001.19 
114 1 1 0.252611 0.00967235 0 0 0 0 0.0403038 -0.000652685 0 0.0417696 -0.015112 0 0.0403038 -0.000652685 0 463.519 463.519 1001.1 
115 1 1 0.252812 0.0186512 0 0 0 0 0.0446121 0.0169744 0 0.0523267 0.0368086 0 0.0446121 0.0169744 0 429.611 429.611 1001.02 
116 1 1 0.261763 0.00708034 0 0 0 0 0.0386614 -0.00543792 0 0.00650808 0.0364915 0 0.0386614 -0.00543792 0 498.386 498.386 1001.18 
117 1 1 0.272542 0.00793403 0 0 0 0 0.032687 0.00825407 0 0.0199465 0.00303652 0 0.032687 0.00825407 0 481.769 481.769 1001.14 
118 1 1 0.282065 0.00881603 0 0 0 0 0.0151536 0.0137893 0 0.0132521 -0.018729 0 0.0151536 0.0137893 0 460.055 460.055 1001.09 
119 1 1 0.292656 0.00651369 0 0 0 0 0.00671636 -0.00702664 0 0.0232755 0.0256748 0 0.00671636 -0.00702664 0 481.296 481.296 1001.14 
120 1 1 0.300003 0.0163141 0 0 0 0 0.0245638 -0.00182837 0 0.0300943 0.0375411 0 0.0245638 -0.00182837 0 424.848 424.848 1001.01 
121 1 1 0.304445 0.00804558 0 0 0 0 0.0116095 -0.00363541 0 -0.0043116 0.00122995 0 0.0116095 -0.00363541 0 469.213 469.213 1001.11 
122 1 1 0.316574 0.00615233 0 0 0 0 0.0138137 -0.00295867 0 0.0074804 -0.0234121 0 0.0138137 -0.00295867 0 469.814 469.814 1001.11 
123 1 1 0.332048 0.015071 0 0 0 0 0.0787071 -0.0127891 0 0.0354224 -0.044059 0 0.0787071 -0.0127891 0 411.156 411.156 1000.98 
124 1 1 0.330064 0.00659251 0 0 0 0 0.0219726 -0.00104687 0 0.0315332 0.0193701 0 0.0219726 -0.00104687 0 462.672 462.672 1001.1 
125 1 1 0.344231 0.00653341 0 0 0 0 0.0407917 -0.0155316 0 0.0365237 -0.00899461 0 0.0407917 -0.0155316 0 499.913 499.913 1001.19 
126 1 1 0.355061 0.0145957 0 0 0 0 0.0404378 -0.00981548 0 -0.0103394 0.000418301 0 0.0404378 -0.00981548 0 434.278 434.278 1001.03 
127 1 1 0.35838 0.00603588 0 0 0 0 0.0560685 0.0058504 0 0.0334717 0.0123832 0 0.0560685 0.0058504 0 472.402 472.402 1001.12 
128 1 1 0.372476 0.00648921 0 0 0 0 0.0345337 0.00171486 0 0.022329 0.0213336 0 0.0345337 0.00171486 0 484.125 484.125 1001.15 
129 1 1 0.399631 0.00721656 0 0 0 0 0.0492797 0.0141604 0 -0.0328869 -0.00419241 0 0.0492797 0.0141604 0 445.657 445.657 1001.06 
130 1 1 0.410955 0.00778229 0 0 0 0 0.0226578 0.00352801 0 -0.0151136 -0.0162802 0 0.0226578 0.00352801 0 443.059 443.059 1001.05 
131 1 1 0.421567 0.00733857 0 0 0 0 0.027317 -0.0115996 0 0.00830853 -0.00756454 0 0.027317 -0.0115996 0 437.004 437.004 1001.04 
132 1 1 0.415286 0.0181612 0 0 0 0 0.0294702 -0.00949359 0 -0.00862165 0.0270538 0 0.0294702 -0.00949359 0 394.187 394.187 1000.94 
133 1 1 0.431612 0.00816714 0 0 0 0 0.0309245 0.00323008 0 0.0111679 0.0232283 0 0.0309245 0.00323008 0 419.557 419.557 1001 
134 1 1 0.440761 0.0167478 0 0 0 0 0.022375 -0.00393043 0 0.0318056 -0.0072044 0 0.022375 -0.00393043 0 401.556 401.556 1000.95 
135 1 1 0.442761 0.00646424 0 0 0 0 0.0314004 -0.00533269 0 -0.00615628 -0.00140976 0 0.0314004 -0.00533269 0 448.126 448.126 1001.06 
136 1 1 0.452394 0.00978228 0 0 0 0 0.0239193 0.00935721 0 0.0235114 -0.0127327 0 0.0239193 0.00935721 0 418.53 418.53 1000.99 
137 1 1 0.462864 0.00538101 0 0 0 0 0.0255151 -0.00695856 0 -0.0058724 0.0267489 0 0.0255151 -0.00695856 0 427.076 427.076 1001.01 
138 1 1 0.479129 0.00633351 0 0 0 0 -0.0176175 -0.000638918 0 0.0069771 0.0425547 0 -0.0176175 -0.000638918 0 434.54 434.54 1001.03 
139 1 1 0.492283 0.00620694 0 0 0 0 -0.00237086 -0.00658701 0 -0.00882269 -0.0142825 0 -0.00237086 -0.00658701 0 427.421 427.421 1001.01 
140 1 1 0.158426 0.0376715 0 0 0 0 0.12979 0.00971599 0 0.0867572 0.00665662 0 0.12979 0.00971599 0 343.157 343.157 1000.82 
141 1 1 0.159901 0.0251476 0 0 0 0 0.0902749 0.00724531 0 0.0709366 -0.0205383 0 0.0902749 0.00724531 0 502.605 502.605 1001.19 
142 1 1 0.180262 0.046424 0 0 0 0 0.126353 0.052433 0 0.141453 0.0191606 0 0.126353 0.052433 0 277.861 277.861 1000.66 
143 1 1 0.179385 0.0327485 0 0 0 0 0.0957087 0.0272449 0 0.0796598 0.0247926 0 0.0957087 0.0272449 0 381.671 381.671 1000.91 
144 1 1 0.187889 0.0288964 0 0 0 0 0.107362 0.00611196 0 0.0502994 -0.0341398 0 0.107362 0.00611196 0 419.711 419.711 1001 
145 1 1 0.180744 0.0203967 0 0 0 0 0.123627 0.00195853 0 0.0761679 -0.0559698 0 0.123627 0.00195853 0 504.693 504.693 1001.2 
146 1 1 0.196318 0.0359867 0 0 0 0 0.082777 -0.00757284 0 0.149211 0.00292465 0 0.082777 -0.00757284 0 374.286 374.286 1000.89 
147 1 1 0.189024 0.0156224 0 0 0 0 0.100135 0.0244816 0 0.131889 0.102939 0 0.100135 0.0244816 0 537.298 537.298 1001.27 
148 1 1 0.195227 0.0243743 0 0 0 0 0.135931 -0.013682 0 0.109959 0.0401855 0 0.135931 -0.013682 0 457.93 457.93 1001.09 
149 1 1 0.21622 0.0216668 0 0 0 0 0.0904305 0.016534 0 0.098205 0.0473791 0 0.0904305 0.016534 0 445.814 445.814 1001.06 
150 1 1 0.229389 0.0336777 0 0 0 0 0.0708073 0.0157882 0 0.102974 0.0660919 0 0.0708073 0.0157882 0 314.957 314.957 1000.75 
151 1 1 0.224743 0.0161704 0 0 0 0 0.0932128 0.0452456 0 0.0730768 0.0285191 0 0.0932128 0.0452456 0 469.079 469.079 1001.11 
152 1 1 0.223676 0.0274674 0 0 0 0 0.0977773 0.0162589 0 0.139679 0.00286969 0 0.0977773 0.0162589 0 383.358 383.358 1000.91 
153 1 1 0.233257 0.01777 0 0 0 0 0.113959 0.00448927 0 0.0904766 -0.0202479 0 0.113959 0.00448927 0 459.994 459.994 1001.09 
154 1 1 0.263167 0.0177922 0 0 0 0 0.0215039 0.00866382 0 0.0656078 0.0176122 0 0.0215039 0.00866382 0 435.844 435.844 1001.03 
155 1 1 0.280254 0.0178328 0 0 0 0 0.0494111 0.0138592 0 0.0718274 -0.000951204 0 0.0494111 0.0138592 0 406.686 406.686 1000.97 
156 1 1 0.270482 0.0189165 0 0 0 0 0.0260839 -0.00608566 0 0.036666 0.0195371 0 0.0260839 -0.00608566 0 419.353 419.353 1001 
157 1 1 0.290951 0.0168186 0 0 0 0 0.0385509 0.00365086 0 0.019353 -0.00559768 0 0.0385509 0.00365086 0 410.584 410.584 1000.97 
158 1 1 0.288152 0.0258921 0 0 0 0 0.0595301 0.0169426 0 -0.0179454 0.019282 0 0.0595301 0.0169426 0 336.211 336.211 1000.8 
159 1 1 0.308491 0.0240303 0 0 0 0 0.0475414 -0.0279023 0 -0.0272917 -0.0124479 0 0.0475414 -0.0279023 0 354.298 354.298 1000.84 
160 1 1 0.311525 0.0158784 0 0 0 0 0.0334361 -0.00673156 0 0.0504376 0.0371701 0 0.0334361 -0.00673156 0 423.268 423.268 1001 
161 1 1 0.321297 0.014716 0 0 0 0 0.0482618 -0.0132595 0 -0.0113666 -0.00504971 0 0.0482618 -0.0132595 0 424.376 424.376 1001.01 
162 1 1 0.338711 0.0227272 0 0 0 0 0.0508247 0.00597748 0 -0.0629116 0.0474639 0 0.0508247 0.00597748 0 365.923 365.923 1000.87 
163 1 1 0.342653 0.014295 0 0 0 0 0.0563494 -0.00108875 0 -0.0102895 0.0480274 0 0.0563494 -0.00108875 0 438.874 438.874 1001.04 
164 1 1 0.361819 0.0256619 0 0 0 0 0.0740897 -0.00485072 0 -0.000820179 -0.00617846 0 0.0740897 -0.00485072 0 336.666 336.666 1000.8 
165 1 1 0.387257 0.00628834 0 0 0 0 0.051099 -0.0134703 0 -0.00813693 0.0393189 0 0.051099 -0.0134703 0 494.38 494.38 1001.17 
166 1 1 0.365673 0.0144867 0 0 0 0 0.0422909 0.0149857 0 -0.0216073 0.0160291 0 0.0422909 0.0149857 0 429.923 429.923 1001.02 
167 1 1 0.381223 0.0232922 0 0 0 0 0.0686653 -0.00860975 0 0.039148 0.0086896 0 0.0686653 -0.00860975 0 360.877 360.877 1000.86 
168 1 1 0.405179 0.0152765 0 0 0 0 0.035191 0.0246654 0 0.0181111 0.00613173 0 0.035191 0.0246654 0 392.87 392.87 1000.93 
169 1 1 0.38861 0.0310848 0 0 0 0 0.0543958 0.0380633 0 0.0206381 -0.028469 0 0.0543958 0.0380633 0 297.443 297.443 1000.71 
170 1 1 0.390234 0.0158718 0 0 0 0 0.0500088 -0.00588208 0 0.035739 0.00365144 0 0.0500088 -0.00588208 0 443.753 443.753 1001.05 
171 1 1 0.395347 0.0200879 0 0 0 0 0.0219249 0.00745919 0 0.0460024 0.0194418 0 0.0219249 0.00745919 0 400.241 400.241 1000.95 
172 1 1 0.423117 0.0179308 0 0 0 0 0.0352702 -0.000331555 0 0.0154015 -0.0535816 0 0.0352702 -0.000331555 0 378.548 378.548 1000.9 
173 1 1 0.432329 0.0182981 0 0 0 0 0.0222942 0.00980539 0 0.0147789 0.0121338 0 0.0222942 0.00980539 0 382.685 382.685 1000.91 
174 1 1 0.460601 0.0166624 0 0 0 0 0.000936082 0.00345577 0 0.0278071 0.00482136 0 0.000936082 0.00345577 0 368.262 368.262 1000.87 
175 1 1 0.460416 0.0269645 0 0 0 0 -0.0144148 0.0334416 0 0.0209501 -0.0163076 0 -0.0144148 0.0334416 0 268.271 268.271 1000.64 
176 1 1 0.4711 0.0125028 0 0 0 0 0.00310763 0.0339401 0 0.0208624 -0.0360935 0 0.00310763 0.0339401 0 382.895 382.895 1000.91 
177 1 1 0.482787 0.0148086 0 0 0 0 0.00689739 -0.0178523 0 0.0170117 0.0284008 0 0.00689739 -0.0178523 0 395.02 395.02 1000.94 
178 1 1 0.491155 0.01781 0 0 0 0 0.0105283 0.00137526 0 -0.00188101 0.0147653 0 0.0105283 0.00137526 0 365.749 365.749 1000.87 
179 1 1 0.144974 0.049017 0 0 0 0 0.160315 0.0307422 0 0.117178 0.0013725 0 0.160315 0.0307422 0 291.02 291.02 1000.69 
180 1 1 0.166318 0.0332548 0 0 0 0 0.110372 -0.0422036 0 0.0834292 0.0801188 0 0.110372 -0.0422036 0 405.359 405.359 1000.96 
181 1 1 0.165901 0.0477141 0 0 0 0 0.127304 -0.0302952 0 -0.0319627 -0.0531191 0 0.127304 -0.0302952 0 319.62 319.62 1000.76 
182 1 1 0.172599 0.041286 0 0 0 0 0.128615 0.0560819 0 0.14985 -0.0879831 0 0.128615 0.0560819 0 319.287 319.287 1000.76 
183 1 1 0.181577 0.0595687 0 0 0 0 0.185226 0.0511788 0 0.127748 -0.0842625 0 0.185226 0.0511788 0 201.8 201.8 1000.48 
184 1 1 0.17212 0.0560092 0 0 0 0 0.155902 0.00541165 0 0.0960602 -0.0759209 0 0.155902 0.00541165 0 245.082 245.082 1000.58 
185 1 1 0.187267 0.0409604 0 0 0 0 0.0968694 -0.0146857 0 0.0625529 0.0264886 0 0.0968694 -0.0146857 0 336.931 336.931 1000.8 
186 1 1 0.205946 0.0298819 0 0 0 0 0.115647 0.0337699 0 0.083988 -0.0079524 0 0.115647 0.0337699 0 374.074 374.074 1000.89 
187 1 1 0.214121 0.0334387 0 0 0 0 0.070716 0.0296782 0 0.100026 -0.00645691 0 0.070716 0.0296782 0 356.939 356.939 1000.85 
188 1 1 0.219901 0.040606 0 0 0 0 0.0497372 0.0350852 0 0.114033 0.030186 0 0.0497372 0.0350852 0 291.101 291.101 1000.69 
189 1 1 0.239804 0.0375365 0 0 0 0 0.0664035 0.0537655 0 0.0984768 0.0286995 0 0.0664035 0.0537655 0 268.004 268.004 1000.64 
190 1 1 0.243191 0.0166783 0 0 0 0 0.0736448 0.0195379 0 0.058564 0.0557716 0 0.0736448 0.0195379 0 465.501 465.501 1001.1 
191 1 1 0.251166 0.0353208 0 0 0 0 0.0802501 0.0513647 0 0.0676402 0.0884611 0 0.0802501 0.0513647 0 273.73 273.73 1000.65 
192 1 1 0.245859 0.0276739 0 0 0 0 0.0586037 0.050533 0 0.132341 0.0206981 0 0.0586037 0.050533 0 357.964 357.964 1000.85 
193 1 1 0.276239 0.0276001 0 0 0 0 0.053373 -0.00981781 0 0.0785441 0.0457577 0 0.053373 -0.00981781 0 365.487 365.487 1000.87 
194 1 1 0.259024 0.0416227 0 0 0 0 0.0636362 0.0189628 0 0.0571613 0.0324232 0 0.0636362 0.0189628 0 248.124 248.124 1000.59 
195 1 1 0.285224 0.034812 0 0 0 0 0.0508398 0.0120409 0 0.0619643 0.0129219 0 0.0508398 0.0120409 0 282.178 282.178 1000.67 
196 1 1 0.297842 0.0270541 0 0 0 0 0.0564201 0.00776669 0 0.0451611 0.00765629 0 0.0564201 0.00776669 0 328.881 328.881 1000.78 
197 1 1 0.306575 0.0348088 0 0 0 0 0.0583178 -0.00025171 0 0.00187763 -0.00965658 0 0.0583178 -0.00025171 0 250.885 250.885 1000.6 
198 1 1 0.316482 0.028281 0 0 0 0 0.0424797 0.00859679 0 0.0597951 0.0651386 0 0.0424797 0.00859679 0 329.732 329.732 1000.78 
199 1 1 0.328908 0.0302702 0 0 0 0 0.0412744 -0.0476708 0 -0.00611396 0.02618 0 0.0412744 -0.0476708 0 313.656 313.656 1000.75 
200 1 1 0.325053 0.0231656 0 0 0 0 0.0247666 -0.0326714 0 -0.012747 -0.0253749 0 0.0247666 -0.0326714 0 379.901 379.901 1000.9 
201 1 1 0.351511 0.0210189 0 0 0 0 0.0476749 0.00319512 0 -0.0108034 0.00571076 0 0.0476749 0.00319512 0 385.246 385.246 1000.91 
202 1 1 0.335217 0.0381827 0 0 0 0 0.0423619 -0.00953804 0 0.0446543 0.0223491 0 0.0423619 -0.00953804 0 241.773 241.773 1000.57 
203 1 1 0.351388 0.031262 0 0 0 0 0.0713956 -0.0258604 0 0.0190186 0.0276462 0 0.0713956 -0.0258604 0 310.221 310.221 1000.74 
204 1 1 0.359755 0.0363015 0 0 0 0 0.0739587 -0.0122208 0 0.0241949 -0.00413576 0 0.0739587 -0.0122208 0 251.4 251.4 1000.6 
205 1 1 0.379472 0.0138451 0 0 0 0 0.0396176 -0.0129241 0 -0.0499497 -0.00977296 0 0.0396176 -0.0129241 0 433.899 433.899 1001.03 
206 1 1 0.371187 0.0201866 0 0 0 0 0.0632613 0.00329068 0 0.0399651 0.0338489 0 0.0632613 0.00329068 0 390.123 390.123 1000.93 
207 1 1 0.403173 0.0385758 0 0 0 0 0.0849461 0.0360126 0 0.0874943 -0.0801387 0 0.0849461 0.0360126 0 206.279 206.279 1000.49 
208 1 1 0.42354 0.0285005 0 0 0 0 0.0195148 0.000642373 0 0.0451517 -0.0309785 0 0.0195148 0.000642373 0 309.01 309.01 1000.73 
209 1 1 0.404211 0.0255055 0 0 0 0 0.0163342 0.0412583 0 0.0243382 0.00626246 0 0.0163342 0.0412583 0 356.739 356.739 1000.85 
210 1 1 0.431321 0.0308133 0 0 0 0 0.0164921 0.0223135 0 0.0644321 -0.00826634 0 0.0164921 0.0223135 0 252.319 252.319 1000.6 
211 1 1 0.410742 0.0292161 0 0 0 0 0.0325074 -0.0249871 0 0.104763 0.00836826 0 0.0325074 -0.0249871 0 320.773 320.773 1000.76 
212 1 1 0.440745 0.0269095 0 0 0 0 0.0109796 -0.00768397 0 0.0350404 0.0414385 0 0.0109796 -0.00768397 0 322.454 322.454 1000.77 
213 1 1 0.450985 0.0185509 0 0 0 0 0.019813 0.0107625 0 0.0252815 0.0112507 0 0.019813 0.0107625 0 376.424 376.424 1000.89 
214 1 1 0.465317 0.0343942 0 0 0 0 0.00150519 0.0179001 0 0.00142965 -0.0192112 0 0.00150519 0.0179001 0 219.458 219.458 1000.52 
215 1 1 0.480925 0.023784 0 0 0 0 0.0326408 -0.0119977 0 -0.0169763 0.0419011 0 0.0326408 -0.0119977 0 324.169 324.169 1000.77 
216 1 1 0.469723 0.0202454 0 0 0 0 -0.0058831 0.0165443 0 0.0297672 0.0144748 0 -0.0058831 0.0165443 0 356.764 356.764 1000.85 
217 1 1 0.490414 0.0291478 0 0 0 0 -0.00381948 0.0190335 0 0.0134416 0.0123373 0 -0.00381948 0.0190335 0 266.13 266.13 1000.63 
218 1 1 0.153285 0.0594098 0 0 0 0 0.230723 -0.0101852 0 -0.0485832 -0.0389757 0 0.230723 -0.0101852 0 256.878 256.878 1000.61 
219 1 1 0.119865 0.0598691 0 0 0 0 0.0817703 -0.023194 0 0.039019 0.0416001 0 0.0817703 -0.023194 0 224.947 224.947 1000.53 
220 1 1 0.137117 0.0551096 0 0 0 0 0.136178 0.0194688 0 0.0759339 -0.015242 0 0.136178 0.0194688 0 294.327 294.327 1000.7 
221 1 1 0.161838 0.0599567 0 0 0 0 0.250436 0.0675815 0 0.0909316 -0.143626 0 0.250436 0.0675815 0 204.644 204.644 1000.49 
222 1 1 0.155726 0.0474967 0 0 0 0 0.119303 0.0250839 0 0.0865823 0.0222226 0 0.119303 0.0250839 0 276.608 276.608 1000.66 
223 1 1 0.19492 0.0489214 0 0 0 0 0.103595 0.0116858 0 0.138847 -0.115844 0 0.103595 0.0116858 0 272.956 272.956 1000.65 
224 1 1 0.204183 0.0409803 0 0 0 0 0.0737017 0.030434 0 0.128956 -0.0325826 0 0.0737017 0.030434 0 289.456 289.456 1000.69 
225 1 1 0.210497 0.047092 0 0 0 0 0.0713342 0.056688 0 0.174731 0.0473686 0 0.0713342 0.056688 0 214.6 214.6 1000.51 
226 1 1 0.218409 0.0523609 0 0 0 0 0.0837253 0.0542379 0 0.111172 -0.0230877 0 0.0837253 0.0542379 0 196.041 196.041 1000.47 
227 1 1 0.236398 0.0264796 0 0 0 0 0.0876753 0.0446513 0 0.0707433 0.0464877 0 0.0876753 0.0446513 0 393.313 393.313 1000.93 
228 1 1 0.229633 0.0444927 0 0 0 0 0.0212 0.0269711 0 0.170397 0.0260921 0 0.0212 0.0269711 0 234.987 234.987 1000.56 
229 1 1 0.243369 0.0456081 0 0 0 0 0.00488629 0.0535913 0 0.0946656 0.0374046 0 0.00488629 0.0535913 0 219.254 219.254 1000.52 
230 1 1 0.258031 0.0275426 0 0 0 0 0.0365051 0.0271457 0 0.0810162 0.062897 0 0.0365051 0.0271457 0 355.327 355.327 1000.84 
231 1 1 0.265427 0.0317816 0 0 0 0 0.0744958 -0.0224368 0 0.0727527 -0.0212495 0 0.0744958 -0.0224368 0 307.1 307.1 1000.73 
232 1 1 0.273581 0.0369658 0 0 0 0 0.0613291 0.00109459 0 0.0133589 0.0906755 0 0.0613291 0.00109459 0 258.534 258.534 1000.61 
233 1 1 0.296971 0.0369748 0 0 0 0 0.068211 0.00553489 0 0.0120273 0.0486198 0 0.068211 0.00553489 0 270.718 270.718 1000.64 
234 1 1 0.280264 0.0452419 0 0 0 0 0.0372769 -0.00399123 0 -0.0271041 0.0660155 0 0.0372769 -0.00399123 0 173.559 173.559 1000.41 