ITEM: TIMESTEP
80000
ITEM: NUMBER OF ATOMS
754
ITEM: BOX BOUNDS ff ff pp
-0.021 0.521
-0.021 0.5
-0.001 0.001
ITEM: ATOMS id type type x y z ix iy iz vx vy vz fx fy fz vx vy vz p p rho 
1 1 1 0.00784195 0.00713061 0 0 0 0 -0.00803771 0.00172554 0 0.00538324 -0.0159002 0 -0.00803771 0.00172554 0 459.662 459.662 1001.09 
2 1 1 0.0198521 0.00750402 0 0 0 0 0.00529667 -0.0137131 0 -0.00126417 0.0192569 0 0.00529667 -0.0137131 0 467.797 467.797 1001.11 
3 1 1 0.0514295 0.00694289 0 0 0 0 0.0141773 0.000559813 0 -0.0684618 0.0151657 0 0.0141773 0.000559813 0 493.554 493.554 1001.17 
4 1 1 0.0704815 0.00659059 0 0 0 0 0.0226567 0.0177057 0 -0.0490265 0.0727017 0 0.0226567 0.0177057 0 527.821 527.821 1001.25 
5 1 1 0.0915014 0.00774112 0 0 0 0 0.0105922 -0.00145297 0 -0.0638939 0.0116931 0 0.0105922 -0.00145297 0 484.36 484.36 1001.15 
6 1 1 0.103126 0.00748846 0 0 0 0 0.0132869 -0.00719602 0 -0.0182475 -0.0409327 0 0.0132869 -0.00719602 0 509.645 509.645 1001.21 
7 1 1 0.13953 0.00819251 0 0 0 0 0.0196357 -0.0346515 0 0.0241364 -0.00154445 0 0.0196357 -0.0346515 0 487.411 487.411 1001.16 
8 1 1 0.147144 0.0114035 0 0 0 0 -0.00313531 0.043904 0 0.0310968 -0.0352622 0 -0.00313531 0.043904 0 443.532 443.532 1001.05 
9 1 1 0.182395 0.00790298 0 0 0 0 -0.0803855 0.00119153 0 -0.0333501 -0.0394647 0 -0.0803855 0.00119153 0 487.942 487.942 1001.16 
10 1 1 0.205167 0.00762865 0 0 0 0 -0.0603794 -0.0200847 0 -0.0431871 -0.00766657 0 -0.0603794 -0.0200847 0 492.983 492.983 1001.17 
11 1 1 0.0193247 0.0197253 0 0 0 0 0.0356216 0.000451366 0 -0.0777471 0.012306 0 0.0356216 0.000451366 0 375.206 375.206 1000.89 
12 1 1 0.0336491 0.00640615 0 0 0 0 0.00686527 -0.000894506 0 -0.00818357 -0.00130395 0 0.00686527 -0.000894506 0 493.425 493.425 1001.17 
13 1 1 0.0601927 0.0110017 0 0 0 0 0.0217087 -0.0256392 0 -0.0962582 0.0123826 0 0.0217087 -0.0256392 0 490.913 490.913 1001.16 
14 1 1 0.0816197 0.00892348 0 0 0 0 0.00458126 -0.00394029 0 -0.0942177 -0.0312568 0 0.00458126 -0.00394029 0 507.623 507.623 1001.2 
15 1 1 0.101383 0.0189086 0 0 0 0 0.0244066 -0.0402623 0 -0.00750636 -0.019258 0 0.0244066 -0.0402623 0 429.293 429.293 1001.02 
16 1 1 0.128473 0.00852019 0 0 0 0 -0.00324608 0.0174657 0 0.0354726 0.00492797 0 -0.00324608 0.0174657 0 491.624 491.624 1001.17 
17 1 1 0.141804 0.02051 0 0 0 0 -0.0430566 0.0143389 0 0.0172732 -0.0404369 0 -0.0430566 0.0143389 0 431.854 431.854 1001.03 
18 1 1 0.170443 0.00760065 0 0 0 0 -0.0720709 0.0111387 0 -0.000591788 0.0263703 0 -0.0720709 0.0111387 0 505.06 505.06 1001.2 
19 1 1 0.193649 0.00808239 0 0 0 0 -0.0727834 -0.00744259 0 -0.0525675 0.0416026 0 -0.0727834 -0.00744259 0 487.741 487.741 1001.16 
20 1 1 0.197964 0.0171964 0 0 0 0 -0.0613996 0.00242104 0 -0.0263309 -0.0114222 0 -0.0613996 0.00242104 0 439.043 439.043 1001.04 
21 1 1 0.0306408 0.0241475 0 0 0 0 0.0310693 0.0178222 0 -0.0966995 -0.0882583 0 0.0310693 0.0178222 0 331.252 331.252 1000.79 
22 1 1 0.0260109 0.014352 0 0 0 0 -0.0102561 0.0112721 0 0.0261398 0.00970827 0 -0.0102561 0.0112721 0 405.615 405.615 1000.96 
23 1 1 0.0437745 0.0121606 0 0 0 0 0.00952091 0.00243513 0 -0.0672479 0.00717987 0 0.00952091 0.00243513 0 458.197 458.197 1001.09 
24 1 1 0.0786812 0.0309928 0 0 0 0 0.0268604 0.0357861 0 -0.0469297 -0.144399 0 0.0268604 0.0357861 0 282.94 282.94 1000.67 
25 1 1 0.0836926 0.0188866 0 0 0 0 0.0168206 0.00318539 0 0.0489467 -0.0312363 0 0.0168206 0.00318539 0 426.479 426.479 1001.01 
26 1 1 0.118043 0.00762876 0 0 0 0 0.00864007 -0.00624406 0 -0.00556302 -0.0284096 0 0.00864007 -0.00624406 0 507.175 507.175 1001.2 
27 1 1 0.131188 0.0165814 0 0 0 0 -0.00453328 -0.0194553 0 0.0569927 0.0109137 0 -0.00453328 -0.0194553 0 464.91 464.91 1001.1 
28 1 1 0.156741 0.00691975 0 0 0 0 -0.012248 -0.00896059 0 0.00152448 0.0681865 0 -0.012248 -0.00896059 0 499.712 499.712 1001.19 
29 1 1 0.187749 0.0175469 0 0 0 0 -0.0462197 -0.00673593 0 -0.0329262 0.0265554 0 -0.0462197 -0.00673593 0 428.613 428.613 1001.02 
30 1 1 0.201372 0.027547 0 0 0 0 -0.102766 0.0421931 0 -0.0453164 0.0476611 0 -0.102766 0.0421931 0 318.924 318.924 1000.76 
31 1 1 0.0110216 0.0164118 0 0 0 0 0.0108918 -0.0114875 0 0.0151447 0.0311304 0 0.0108918 -0.0114875 0 389.062 389.062 1000.92 
32 1 1 0.0372822 0.0165734 0 0 0 0 0.000888596 -0.0316981 0 -0.0561272 0.154444 0 0.000888596 -0.0316981 0 407.183 407.183 1000.97 
33 1 1 0.0757115 0.0191192 0 0 0 0 0.0483271 0.0290929 0 -0.0989885 0.0324904 0 0.0483271 0.0290929 0 412.306 412.306 1000.98 
34 1 1 0.0942022 0.0171522 0 0 0 0 0.00218255 0.00714547 0 -0.0200898 -0.0286964 0 0.00218255 0.00714547 0 424.026 424.026 1001.01 
35 1 1 0.119784 0.0187083 0 0 0 0 0.00279332 0.0229725 0 0.0516699 -0.058267 0 0.00279332 0.0229725 0 431.053 431.053 1001.02 
36 1 1 0.137146 0.0281483 0 0 0 0 0.00929866 0.0180834 0 0.051091 0.0193239 0 0.00929866 0.0180834 0 335.081 335.081 1000.8 
37 1 1 0.162327 0.0146377 0 0 0 0 -0.0367976 0.0429857 0 -0.00657142 0.00498406 0 -0.0367976 0.0429857 0 451.003 451.003 1001.07 
38 1 1 0.177219 0.016028 0 0 0 0 -0.0475236 0.00432685 0 -0.0270835 0.0281266 0 -0.0475236 0.00432685 0 458.096 458.096 1001.09 
39 1 1 0.190307 0.0261955 0 0 0 0 -0.0658984 0.00837804 0 0.0229417 0.0459898 0 -0.0658984 0.00837804 0 325.812 325.812 1000.77 
40 1 1 0.173326 0.0395426 0 0 0 0 -0.0914034 0.0624824 0 0.0494729 0.0436751 0 -0.0914034 0.0624824 0 168.813 168.813 1000.4 
41 1 1 0.00787992 0.0248785 0 0 0 0 0.0240499 -0.032637 0 -0.0180937 0.0104246 0 0.0240499 -0.032637 0 300.9 300.9 1000.71 
42 1 1 0.0418736 0.0423708 0 0 0 0 0.0114806 -0.0106665 0 -0.220983 -0.011704 0 0.0114806 -0.0106665 0 164.426 164.426 1000.39 
43 1 1 0.0523071 0.0195852 0 0 0 0 -0.00200489 0.000727645 0 -0.00776148 -0.0771683 0 -0.00200489 0.000727645 0 384.399 384.399 1000.91 
44 1 1 0.0766321 0.0376416 0 0 0 0 -0.0125505 -0.0456318 0 -0.0397077 -0.0632451 0 -0.0125505 -0.0456318 0 250.294 250.294 1000.59 
45 1 1 0.102082 0.0290163 0 0 0 0 0.0144998 -0.0211559 0 0.0066263 -0.0246367 0 0.0144998 -0.0211559 0 346.566 346.566 1000.82 
46 1 1 0.127667 0.0251877 0 0 0 0 0.0276503 0.0120273 0 -0.0449821 0.0374471 0 0.0276503 0.0120273 0 369.076 369.076 1000.88 
47 1 1 0.15241 0.019401 0 0 0 0 -0.0227525 0.00855192 0 0.0446529 0.0413816 0 -0.0227525 0.00855192 0 460.09 460.09 1001.09 
48 1 1 0.178096 0.025752 0 0 0 0 -0.03932 0.0154043 0 0.0648866 0.017745 0 -0.03932 0.0154043 0 359.091 359.091 1000.85 
49 1 1 0.183625 0.0337398 0 0 0 0 -0.0946288 0.0179372 0 0.0107152 0.105135 0 -0.0946288 0.0179372 0 269.128 269.128 1000.64 
50 1 1 0.165028 0.050335 0 0 0 0 -0.0783458 0.065839 0 0.0875867 0.0268868 0 -0.0783458 0.065839 0 95.4132 95.4132 1000.23 
51 1 1 0.00942014 0.0363222 0 0 0 0 -0.0198782 -0.0479865 0 0.0400135 -0.00406944 0 -0.0198782 -0.0479865 0 181.386 181.386 1000.43 
52 1 1 0.046451 0.0245576 0 0 0 0 0.0196643 -0.00184968 0 -0.114511 0.0580827 0 0.0196643 -0.00184968 0 371.06 371.06 1000.88 
53 1 1 0.060255 0.0239398 0 0 0 0 0.028894 -0.0285707 0 -0.109758 0.11332 0 0.028894 -0.0285707 0 374.79 374.79 1000.89 
54 1 1 0.0884331 0.0271584 0 0 0 0 0.0262715 0.0215359 0 -0.0135185 -0.0262677 0 0.0262715 0.0215359 0 358.09 358.09 1000.85 
55 1 1 0.110433 0.0367085 0 0 0 0 0.0218476 0.0111134 0 0.0675716 -0.00223981 0 0.0218476 0.0111134 0 266.792 266.792 1000.63 
56 1 1 0.127696 0.0369133 0 0 0 0 -0.0116385 -0.000717133 0 0.0585072 0.0200955 0 -0.0116385 -0.000717133 0 275.556 275.556 1000.65 
57 1 1 0.149329 0.0301497 0 0 0 0 -0.0381422 0.0124303 0 0.00957438 0.0119869 0 -0.0381422 0.0124303 0 255.596 255.596 1000.61 
58 1 1 0.154333 0.0398559 0 0 0 0 -0.0554555 0.0422231 0 0.0305433 0.0424791 0 -0.0554555 0.0422231 0 230.439 230.439 1000.55 
59 1 1 0.169549 0.0303766 0 0 0 0 -0.04569 0.0523386 0 -0.000374106 0.0583585 0 -0.04569 0.0523386 0 294.532 294.532 1000.7 
60 1 1 0.182951 0.0434599 0 0 0 0 -0.0723592 0.0261313 0 0.0266347 0.137551 0 -0.0723592 0.0261313 0 167.927 167.927 1000.4 
61 1 1 0.0569902 0.0342967 0 0 0 0 0.0165027 -0.00128106 0 -0.0379185 -0.177095 0 0.0165027 -0.00128106 0 262.785 262.785 1000.62 
62 1 1 0.0207885 0.0298946 0 0 0 0 -0.022464 0.012362 0 0.0772295 0.156111 0 -0.022464 0.012362 0 253.342 253.342 1000.6 
63 1 1 0.0675627 0.0171032 0 0 0 0 0.0246214 -0.00944201 0 -0.0251882 -0.00838382 0 0.0246214 -0.00944201 0 446.831 446.831 1001.06 
64 1 1 0.0661019 0.0405309 0 0 0 0 -0.0374797 0.032752 0 -0.0305352 0.0780903 0 -0.0374797 0.032752 0 266.743 266.743 1000.63 
65 1 1 0.094578 0.034131 0 0 0 0 0.0589713 -0.0268899 0 0.0167801 -0.00471474 0 0.0589713 -0.0268899 0 282.839 282.839 1000.67 
66 1 1 0.110876 0.0132389 0 0 0 0 0.0259434 0.0179033 0 -0.00454901 0.0400752 0 0.0259434 0.0179033 0 477.205 477.205 1001.13 
67 1 1 0.140082 0.0360431 0 0 0 0 -0.0329409 0.080536 0 0.0783766 0.0153135 0 -0.0329409 0.080536 0 226.946 226.946 1000.54 
68 1 1 0.158109 0.0274629 0 0 0 0 -0.0338377 0.0174121 0 0.0446882 0.0812884 0 -0.0338377 0.0174121 0 321.643 321.643 1000.76 
69 1 1 0.167182 0.0203021 0 0 0 0 -0.0168642 0.0353118 0 0.0494592 0.0629149 0 -0.0168642 0.0353118 0 409.281 409.281 1000.97 
70 1 1 0.15516 0.0525046 0 0 0 0 -0.0725514 0.0658134 0 0.0734116 0.0682474 0 -0.0725514 0.0658134 0 112.801 112.801 1000.27 
71 1 1 0.0317722 0.0369089 0 0 0 0 0.0213844 -0.00284711 0 -0.219528 0.133238 0 0.0213844 -0.00284711 0 148.14 148.14 1000.35 
72 1 1 0.0474416 0.0505479 0 0 0 0 -0.0850202 0.0126725 0 -0.0282526 -0.0768593 0 -0.0850202 0.0126725 0 97.9837 97.9837 1000.23 
73 1 1 0.0351664 0.0301515 0 0 0 0 -0.0291821 -0.00370251 0 -0.0180461 0.120954 0 -0.0291821 -0.00370251 0 299.458 299.458 1000.71 
74 1 1 0.0680823 0.0287824 0 0 0 0 -0.0180009 -0.0320121 0 0.00174686 0.0906446 0 -0.0180009 -0.0320121 0 283.237 283.237 1000.67 
75 1 1 0.0899141 0.039739 0 0 0 0 0.0349799 0.00397787 0 -0.115163 -0.067716 0 0.0349799 0.00397787 0 180.492 180.492 1000.43 
76 1 1 0.111312 0.02457 0 0 0 0 0.0293301 0.0133077 0 0.00830669 -0.0451189 0 0.0293301 0.0133077 0 370.858 370.858 1000.88 
77 1 1 0.118419 0.0306176 0 0 0 0 0.017823 0.0329362 0 0.0400751 -0.0348092 0 0.017823 0.0329362 0 295.785 295.785 1000.7 
78 1 1 0.144991 0.0431383 0 0 0 0 -0.00164259 0.0473571 0 0.0352117 0.0109095 0 -0.00164259 0.0473571 0 181.814 181.814 1000.43 
79 1 1 0.16268 0.0381084 0 0 0 0 -0.0638 0.0290824 0 0.0545991 0.0421232 0 -0.0638 0.0290824 0 234.341 234.341 1000.56 
80 1 1 0.121966 0.0568458 0 0 0 0 0.0342717 0.133339 0 0.054429 0.117738 0 0.0342717 0.133339 0 235.473 235.473 1000.56 
81 1 1 0.00518491 0.0494561 0 0 0 0 0.00681065 -0.0332817 0 0.105443 0.0568788 0 0.00681065 -0.0332817 0 122.271 122.271 1000.29 
82 1 1 0.0167463 0.0341398 0 0 0 0 0.0127525 -0.00434576 0 0.0377947 0.0112458 0 0.0127525 -0.00434576 0 151.76 151.76 1000.36 
83 1 1 0.0456741 0.03402 0 0 0 0 0.0118079 -0.0423931 0 -0.00981438 0.0600884 0 0.0118079 -0.0423931 0 268.502 268.502 1000.64 
84 1 1 0.055555 0.0419686 0 0 0 0 -0.0236597 -0.0131188 0 -0.122974 0.0383508 0 -0.0236597 -0.0131188 0 192.157 192.157 1000.46 
85 1 1 0.0855791 0.0474768 0 0 0 0 0.0602866 -0.0243185 0 -0.00933966 -0.161527 0 0.0602866 -0.0243185 0 207.56 207.56 1000.49 
86 1 1 0.103344 0.0427562 0 0 0 0 0.0686212 0.00867698 0 -0.0135656 -0.112778 0 0.0686212 0.00867698 0 250.497 250.497 1000.6 
87 1 1 0.112193 0.0482263 0 0 0 0 0.0667728 0.0200309 0 0.190284 -0.160666 0 0.0667728 0.0200309 0 123.487 123.487 1000.29 
88 1 1 0.12105 0.0419547 0 0 0 0 0.0413063 0.0728256 0 -0.0219165 0.104037 0 0.0413063 0.0728256 0 171.179 171.179 1000.41 
89 1 1 0.13267 0.0447482 0 0 0 0 0.00397527 0.0287219 0 0.0446693 -0.0703267 0 0.00397527 0.0287219 0 125.473 125.473 1000.3 
90 1 1 0.132718 0.0541228 0 0 0 0 0.0102948 0.102698 0 0.17678 -0.0424682 0 0.0102948 0.102698 0 129.516 129.516 1000.31 
91 1 1 0.0358661 0.0545558 0 0 0 0 -0.100417 -0.0177347 0 -0.00659385 0.200715 0 -0.100417 -0.0177347 0 215.279 215.279 1000.51 
92 1 1 0.0168637 0.0476537 0 0 0 0 -0.00990334 0.0779284 0 -0.328111 0.0807183 0 -0.00990334 0.0779284 0 187.369 187.369 1000.45 
93 1 1 0.0250709 0.0471583 0 0 0 0 -0.0957306 0.0199133 0 0.300291 0.0214316 0 -0.0957306 0.0199133 0 329.094 329.094 1000.78 
94 1 1 0.0655235 0.0559409 0 0 0 0 -0.087274 -0.0788625 0 -0.00837291 0.0850354 0 -0.087274 -0.0788625 0 169.79 169.79 1000.4 
95 1 1 0.0566389 0.0537032 0 0 0 0 -0.110316 0.0265182 0 -0.212074 -0.119589 0 -0.110316 0.0265182 0 83.3893 83.3893 1000.2 
96 1 1 0.0820722 0.0599346 0 0 0 0 0.0876622 -0.189445 0 -0.251553 0.22741 0 0.0876622 -0.189445 0 231.275 231.275 1000.55 
97 1 1 0.0749939 0.0485159 0 0 0 0 -0.045307 -0.0804167 0 -0.196506 0.000698349 0 -0.045307 -0.0804167 0 196.754 196.754 1000.47 
98 1 1 0.0975019 0.0522025 0 0 0 0 0.0848695 -0.0458833 0 -0.0152039 0.0406708 0 0.0848695 -0.0458833 0 309.515 309.515 1000.74 
99 1 1 0.109896 0.0579729 0 0 0 0 0.157561 0.0927578 0 -0.0460184 -0.0296594 0 0.157561 0.0927578 0 85.1869 85.1869 1000.2 
100 1 1 0.0948821 0.0626062 0 0 0 0 0.208877 -0.047939 0 0.125484 -0.0647987 0 0.208877 -0.047939 0 36.9766 36.9766 1000.09 
101 1 1 0.20743 0.0186839 0 0 0 0 -0.10893 0.0156493 0 -0.0151833 -0.00452838 0 -0.10893 0.0156493 0 418.792 418.792 1000.99 
102 1 1 0.214154 0.0104751 0 0 0 0 -0.0824204 0.0421234 0 -0.052788 -0.0320621 0 -0.0824204 0.0421234 0 457.807 457.807 1001.09 
103 1 1 0.220283 0.0179107 0 0 0 0 -0.100635 -0.00617216 0 -0.0834861 0.0378834 0 -0.100635 -0.00617216 0 457.209 457.209 1001.09 
104 1 1 0.223921 0.00748324 0 0 0 0 -0.0799087 -0.0177057 0 -0.0500587 0.0264242 0 -0.0799087 -0.0177057 0 519.843 519.843 1001.23 
105 1 1 0.23128 0.0152732 0 0 0 0 -0.119512 0.0114491 0 -0.104399 -0.00402249 0 -0.119512 0.0114491 0 446.465 446.465 1001.06 
106 1 1 0.23689 0.00757802 0 0 0 0 -0.0892859 0.00823093 0 -0.0708346 0.00363121 0 -0.0892859 0.00823093 0 536.679 536.679 1001.27 
107 1 1 0.244878 0.0139769 0 0 0 0 -0.119298 0.00565182 0 -0.0686757 0.0359182 0 -0.119298 0.00565182 0 522.756 522.756 1001.24 
108 1 1 0.251435 0.00684281 0 0 0 0 -0.109502 0.0010202 0 -0.0983739 0.0508185 0 -0.109502 0.0010202 0 549.825 549.825 1001.3 
109 1 1 0.254538 0.0192379 0 0 0 0 -0.154844 0.00937451 0 -0.138328 0.0361832 0 -0.154844 0.00937451 0 448.074 448.074 1001.06 
110 1 1 0.260262 0.0114444 0 0 0 0 -0.120361 0.00907307 0 -0.103516 -0.0643422 0 -0.120361 0.00907307 0 525.281 525.281 1001.25 
111 1 1 0.270043 0.00684919 0 0 0 0 -0.142039 -0.0042192 0 -0.117807 0.0894224 0 -0.142039 -0.0042192 0 589.801 589.801 1001.4 
112 1 1 0.280926 0.00946583 0 0 0 0 -0.143668 0.00535575 0 -0.146271 -0.0618847 0 -0.143668 0.00535575 0 569.407 569.407 1001.35 
113 1 1 0.289584 0.00894231 0 0 0 0 -0.169819 0.0167203 0 -0.074108 0.0143659 0 -0.169819 0.0167203 0 576.521 576.521 1001.37 
114 1 1 0.298491 0.00916609 0 0 0 0 -0.180214 0.00702321 0 -0.0713715 0.0477354 0 -0.180214 0.00702321 0 582.452 582.452 1001.38 
115 1 1 0.309195 0.0177133 0 0 0 0 -0.160685 -0.0271654 0 -0.10606 0.0891944 0 -0.160685 -0.0271654 0 564.423 564.423 1001.34 
116 1 1 0.308721 0.00789881 0 0 0 0 -0.187007 -0.00362427 0 0.0269053 -0.00569005 0 -0.187007 -0.00362427 0 626.632 626.632 1001.49 
117 1 1 0.318663 0.00964241 0 0 0 0 -0.160925 -0.0203253 0 -0.0993911 0.0463756 0 -0.160925 -0.0203253 0 618.746 618.746 1001.47 
118 1 1 0.328138 0.00773348 0 0 0 0 -0.145967 0.015676 0 -0.0190626 -0.0229881 0 -0.145967 0.015676 0 652.866 652.866 1001.55 
119 1 1 0.336726 0.0111353 0 0 0 0 -0.168925 0.00604035 0 -0.0119636 0.0282145 0 -0.168925 0.00604035 0 626.731 626.731 1001.49 
120 1 1 0.344104 0.0199662 0 0 0 0 -0.178245 -0.0141733 0 -0.0441967 -0.0130268 0 -0.178245 -0.0141733 0 548.121 548.121 1001.3 
121 1 1 0.345311 0.00783666 0 0 0 0 -0.168882 0.00205305 0 0.00285308 -0.0782133 0 -0.168882 0.00205305 0 613.079 613.079 1001.45 
122 1 1 0.356727 0.00807642 0 0 0 0 -0.150219 -0.0127799 0 0.0337522 0.0328405 0 -0.150219 -0.0127799 0 613.105 613.105 1001.45 
123 1 1 0.36329 0.0166902 0 0 0 0 -0.215757 0.0117366 0 -0.0620856 -0.0397478 0 -0.215757 0.0117366 0 593.799 593.799 1001.41 
124 1 1 0.369229 0.00691601 0 0 0 0 -0.161224 0.0028495 0 0.0447044 0.0407905 0 -0.161224 0.0028495 0 664.197 664.197 1001.57 
125 1 1 0.382629 0.00837237 0 0 0 0 -0.134475 -0.0205943 0 -0.107132 -0.0671614 0 -0.134475 -0.0205943 0 673.449 673.449 1001.6 
126 1 1 0.383708 0.0164829 0 0 0 0 -0.201278 -0.026372 0 0.0903094 0.0053865 0 -0.201278 -0.026372 0 620.443 620.443 1001.47 
127 1 1 0.394433 0.00770945 0 0 0 0 -0.130758 0.0162034 0 -0.0126495 0.0288169 0 -0.130758 0.0162034 0 624.074 624.074 1001.48 
128 1 1 0.404686 0.00895019 0 0 0 0 -0.156579 -0.00257688 0 0.010115 -0.0077827 0 -0.156579 -0.00257688 0 679.36 679.36 1001.61 
129 1 1 0.416597 0.00725774 0 0 0 0 -0.122377 -0.0096162 0 -0.029596 0.000402238 0 -0.122377 -0.0096162 0 640.786 640.786 1001.52 
130 1 1 0.423162 0.0146054 0 0 0 0 -0.0965317 -0.00163702 0 0.0586839 0.0879498 0 -0.0965317 -0.00163702 0 585.496 585.496 1001.39 
131 1 1 0.430175 0.00730052 0 0 0 0 -0.125458 -0.0108123 0 -0.0327823 0.02195 0 -0.125458 -0.0108123 0 663.886 663.886 1001.57 
132 1 1 0.422821 0.0232193 0 0 0 0 -0.0974666 -0.0213133 0 0.0576267 -0.0719286 0 -0.0974666 -0.0213133 0 525.788 525.788 1001.25 
133 1 1 0.434951 0.0161166 0 0 0 0 -0.0670717 -0.0336825 0 0.0177394 -0.0210537 0 -0.0670717 -0.0336825 0 620.964 620.964 1001.47 
134 1 1 0.445798 0.0186862 0 0 0 0 -0.0509929 -0.0466459 0 0.113905 -0.0371367 0 -0.0509929 -0.0466459 0 569.385 569.385 1001.35 
135 1 1 0.442168 0.00791387 0 0 0 0 -0.0812549 -0.00265065 0 0.00551791 -0.0257492 0 -0.0812549 -0.00265065 0 632.963 632.963 1001.5 
136 1 1 0.451197 0.0100059 0 0 0 0 -0.0437944 -0.0583258 0 -0.0183189 0.0295417 0 -0.0437944 -0.0583258 0 608.835 608.835 1001.44 
137 1 1 0.461791 0.00669006 0 0 0 0 -0.00863818 0.0119626 0 0.0993258 -0.0434441 0 -0.00863818 0.0119626 0 641.877 641.877 1001.52 
138 1 1 0.477464 0.00684669 0 0 0 0 0.0196029 -0.00304055 0 0.12391 0.0917522 0 0.0196029 -0.00304055 0 674.851 674.851 1001.6 
139 1 1 0.490635 0.00722539 0 0 0 0 0.0105713 0.00257186 0 0.0405972 0.0135286 0 0.0105713 0.00257186 0 630.973 630.973 1001.5 
140 1 1 0.206133 0.0356658 0 0 0 0 -0.100901 0.00921514 0 -0.0268249 0.0474736 0 -0.100901 0.00921514 0 250.699 250.699 1000.6 
141 1 1 0.213262 0.0259669 0 0 0 0 -0.0932684 0.011725 0 -0.109849 0.0691145 0 -0.0932684 0.011725 0 339.181 339.181 1000.81 
142 1 1 0.242734 0.0373497 0 0 0 0 -0.145261 0.0400713 0 -0.0761267 0.0348829 0 -0.145261 0.0400713 0 232.11 232.11 1000.55 
143 1 1 0.228494 0.0244464 0 0 0 0 -0.104824 0.0348836 0 -0.0822429 0.0208672 0 -0.104824 0.0348836 0 395.926 395.926 1000.94 
144 1 1 0.253047 0.0357513 0 0 0 0 -0.176715 0.0112976 0 -0.0919136 0.0836594 0 -0.176715 0.0112976 0 292.43 292.43 1000.69 
145 1 1 0.240523 0.021144 0 0 0 0 -0.127449 0.0124239 0 -0.138053 0.0371758 0 -0.127449 0.0124239 0 422.947 422.947 1001 
146 1 1 0.265592 0.0349528 0 0 0 0 -0.184011 0.010836 0 -0.147531 0.0651734 0 -0.184011 0.010836 0 304.529 304.529 1000.72 
147 1 1 0.247243 0.0272226 0 0 0 0 -0.148495 0.0265324 0 -0.086768 0.0669135 0 -0.148495 0.0265324 0 367.654 367.654 1000.87 
148 1 1 0.259067 0.0276354 0 0 0 0 -0.131153 0.00639582 0 -0.0555895 -0.0295425 0 -0.131153 0.00639582 0 388.424 388.424 1000.92 
149 1 1 0.266241 0.0185495 0 0 0 0 -0.144676 0.0337528 0 -0.175522 0.110134 0 -0.144676 0.0337528 0 492.587 492.587 1001.17 
150 1 1 0.291833 0.0307575 0 0 0 0 -0.187592 0.0407593 0 -0.119632 0.0230069 0 -0.187592 0.0407593 0 390.435 390.435 1000.93 
151 1 1 0.274265 0.0181972 0 0 0 0 -0.166623 -0.00418586 0 -0.035525 0.00632969 0 -0.166623 -0.00418586 0 503.708 503.708 1001.2 
152 1 1 0.282923 0.0206128 0 0 0 0 -0.182717 0.0278076 0 -0.0948164 0.043237 0 -0.182717 0.0278076 0 476.823 476.823 1001.13 
153 1 1 0.291509 0.020422 0 0 0 0 -0.167979 0.0188764 0 -0.111413 -0.0929961 0 -0.167979 0.0188764 0 489.738 489.738 1001.16 
154 1 1 0.318297 0.0212401 0 0 0 0 -0.223879 0.00936494 0 -0.0354779 -0.0162008 0 -0.223879 0.00936494 0 518.566 518.566 1001.23 
155 1 1 0.32576 0.0194885 0 0 0 0 -0.204393 -0.0198885 0 -0.0309752 -0.0504886 0 -0.204393 -0.0198885 0 541.08 541.08 1001.28 
156 1 1 0.330251 0.0308917 0 0 0 0 -0.203826 -0.0203197 0 -0.163348 0.0302389 0 -0.203826 -0.0203197 0 448.688 448.688 1001.06 
157 1 1 0.334437 0.0207374 0 0 0 0 -0.218664 0.0171834 0 -0.0266073 0.0167264 0 -0.218664 0.0171834 0 516.923 516.923 1001.23 
158 1 1 0.339157 0.0321304 0 0 0 0 -0.188336 0.00237013 0 -0.0977161 -0.0858373 0 -0.188336 0.00237013 0 436.535 436.535 1001.04 
159 1 1 0.347532 0.029089 0 0 0 0 -0.217773 -0.00634161 0 -0.0101887 -0.0677186 0 -0.217773 -0.00634161 0 468.57 468.57 1001.11 
160 1 1 0.352349 0.0165786 0 0 0 0 -0.202322 0.0144939 0 -0.0199651 -0.0598135 0 -0.202322 0.0144939 0 559.268 559.268 1001.33 
161 1 1 0.357945 0.0249561 0 0 0 0 -0.168951 0.0112424 0 -0.0512323 -0.0507135 0 -0.168951 0.0112424 0 507.203 507.203 1001.2 
162 1 1 0.369762 0.0259798 0 0 0 0 -0.184809 -0.021151 0 -0.119138 -0.0291653 0 -0.184809 -0.021151 0 564.358 564.358 1001.34 
163 1 1 0.372804 0.0149345 0 0 0 0 -0.18894 -0.0175332 0 0.113544 0.181641 0 -0.18894 -0.0175332 0 622.56 622.56 1001.48 
164 1 1 0.387599 0.0263436 0 0 0 0 -0.138849 -0.0342556 0 0.0580266 0.0278997 0 -0.138849 -0.0342556 0 540.186 540.186 1001.28 
165 1 1 0.403426 0.0199888 0 0 0 0 -0.0746289 -0.0710562 0 0.00864819 -0.0119215 0 -0.0746289 -0.0710562 0 544.749 544.749 1001.29 
166 1 1 0.394336 0.0166263 0 0 0 0 -0.177305 0.0163841 0 -0.0058323 -0.0590698 0 -0.177305 0.0163841 0 544.913 544.913 1001.29 
167 1 1 0.408838 0.0332786 0 0 0 0 -0.191627 -0.0382544 0 -0.0434467 -0.0546121 0 -0.191627 -0.0382544 0 460.659 460.659 1001.09 
168 1 1 0.41224 0.0162952 0 0 0 0 -0.107963 -0.010972 0 -0.0104784 0.0396861 0 -0.107963 -0.010972 0 600.989 600.989 1001.42 
169 1 1 0.414757 0.040848 0 0 0 0 -0.127111 -0.0448507 0 0.0714466 -0.0411261 0 -0.127111 -0.0448507 0 383.552 383.552 1000.91 
170 1 1 0.412926 0.0264036 0 0 0 0 -0.147281 0.00469792 0 -0.0157083 0.0269807 0 -0.147281 0.00469792 0 478.637 478.637 1001.14 
171 1 1 0.42304 0.0321726 0 0 0 0 -0.135562 -0.0584005 0 -0.0524684 0.0436366 0 -0.135562 -0.0584005 0 468.536 468.536 1001.11 
172 1 1 0.434221 0.0234772 0 0 0 0 -0.0919571 -0.0550313 0 0.0110141 0.126655 0 -0.0919571 -0.0550313 0 527.59 527.59 1001.25 
173 1 1 0.446976 0.0269302 0 0 0 0 -0.0811488 -0.0514454 0 -0.0279031 0.0069378 0 -0.0811488 -0.0514454 0 523.905 523.905 1001.24 
174 1 1 0.458444 0.016387 0 0 0 0 -0.0183667 -0.0140521 0 -0.0138146 0.00167575 0 -0.0183667 -0.0140521 0 590.202 590.202 1001.4 
175 1 1 0.468911 0.0211329 0 0 0 0 -0.0446069 -0.0653857 0 0.022384 0.0353033 0 -0.0446069 -0.0653857 0 591.411 591.411 1001.4 
176 1 1 0.470832 0.0131894 0 0 0 0 0.0231258 -0.0366076 0 -0.0494497 0.00816533 0 0.0231258 -0.0366076 0 668.59 668.59 1001.58 
177 1 1 0.482831 0.0157973 0 0 0 0 0.0731125 -0.00333267 0 0.0302138 -0.017331 0 0.0731125 -0.00333267 0 559.587 559.587 1001.33 
178 1 1 0.491028 0.0183138 0 0 0 0 0.00653264 0.0619621 0 -0.0976521 0.112506 0 0.00653264 0.0619621 0 589.874 589.874 1001.4 
179 1 1 0.194415 0.0360745 0 0 0 0 -0.115971 0.0481884 0 -0.0316704 0.0560972 0 -0.115971 0.0481884 0 204.884 204.884 1000.49 
180 1 1 0.22009 0.0308325 0 0 0 0 -0.0903554 0.0118401 0 -0.0396519 0.0640952 0 -0.0903554 0.0118401 0 317.409 317.409 1000.75 
181 1 1 0.230902 0.0388464 0 0 0 0 -0.135108 0.065628 0 -0.0914833 0.0321544 0 -0.135108 0.065628 0 210.297 210.297 1000.5 
182 1 1 0.234805 0.030538 0 0 0 0 -0.13798 0.0328809 0 -0.0603493 0.0615147 0 -0.13798 0.0328809 0 298.609 298.609 1000.71 
183 1 1 0.251671 0.0465526 0 0 0 0 -0.148892 0.0220803 0 -0.190708 0.0584422 0 -0.148892 0.0220803 0 173.602 173.602 1000.41 
184 1 1 0.239917 0.0447904 0 0 0 0 -0.179635 0.0592613 0 -0.0928034 0.0574854 0 -0.179635 0.0592613 0 167.785 167.785 1000.4 
185 1 1 0.260674 0.0439244 0 0 0 0 -0.171208 0.0237603 0 -0.0694637 0.0173758 0 -0.171208 0.0237603 0 199.956 199.956 1000.48 
186 1 1 0.271824 0.0291112 0 0 0 0 -0.139367 0.0508123 0 -0.0913952 -0.0496361 0 -0.139367 0.0508123 0 380.625 380.625 1000.9 
187 1 1 0.281752 0.0310932 0 0 0 0 -0.167078 0.0146252 0 -0.0910492 0.000916794 0 -0.167078 0.0146252 0 394.897 394.897 1000.94 
188 1 1 0.294224 0.0409675 0 0 0 0 -0.198306 0.0306068 0 -0.146117 -0.0380565 0 -0.198306 0.0306068 0 321.072 321.072 1000.76 
189 1 1 0.30354 0.0401059 0 0 0 0 -0.230122 0.00702584 0 -0.106755 -0.00597906 0 -0.230122 0.00702584 0 329.661 329.661 1000.78 
190 1 1 0.300512 0.0197409 0 0 0 0 -0.191483 0.0220009 0 -0.106158 -0.0461739 0 -0.191483 0.0220009 0 513.877 513.877 1001.22 
191 1 1 0.3122 0.0381447 0 0 0 0 -0.196828 0.00233615 0 -0.0895489 0.0162932 0 -0.196828 0.00233615 0 361.295 361.295 1000.86 
192 1 1 0.312752 0.0290725 0 0 0 0 -0.191013 0.0239602 0 -0.12352 -0.0252514 0 -0.191013 0.0239602 0 459.202 459.202 1001.09 
193 1 1 0.32854 0.0438065 0 0 0 0 -0.173098 -0.0240233 0 -0.062791 -0.111291 0 -0.173098 -0.0240233 0 352.601 352.601 1000.84 
194 1 1 0.32532 0.0568868 0 0 0 0 -0.222678 0.0257915 0 -0.0933387 -0.139955 0 -0.222678 0.0257915 0 185.314 185.314 1000.44 
195 1 1 0.339125 0.0421102 0 0 0 0 -0.177613 0.00785332 0 -0.0368099 -0.0715405 0 -0.177613 0.00785332 0 336.706 336.706 1000.8 
196 1 1 0.348566 0.0404167 0 0 0 0 -0.203221 0.0185645 0 -0.0430503 -0.0673117 0 -0.203221 0.0185645 0 385.332 385.332 1000.91 
197 1 1 0.357625 0.0454976 0 0 0 0 -0.193924 -0.0574533 0 -0.023802 -0.107358 0 -0.193924 -0.0574533 0 356.737 356.737 1000.85 
198 1 1 0.357827 0.033806 0 0 0 0 -0.230131 0.0135288 0 -0.0555016 0.0471323 0 -0.230131 0.0135288 0 427.5 427.5 1001.01 
199 1 1 0.367672 0.0460375 0 0 0 0 -0.245313 0.0330598 0 0.0153293 -0.00968923 0 -0.245313 0.0330598 0 323.582 323.582 1000.77 
200 1 1 0.366434 0.0355614 0 0 0 0 -0.161282 -0.0503513 0 -0.00180144 0.0613042 0 -0.161282 -0.0503513 0 420.258 420.258 1001 
201 1 1 0.378137 0.026135 0 0 0 0 -0.166946 -0.036875 0 0.0103447 -0.0332932 0 -0.166946 -0.036875 0 493.891 493.891 1001.17 
202 1 1 0.376164 0.0460808 0 0 0 0 -0.18775 -0.0929575 0 0.0243325 -0.03929 0 -0.18775 -0.0929575 0 358.31 358.31 1000.85 
203 1 1 0.387479 0.0369233 0 0 0 0 -0.17137 -0.0598303 0 -0.116572 -0.0351285 0 -0.17137 -0.0598303 0 404.552 404.552 1000.96 
204 1 1 0.391803 0.044542 0 0 0 0 -0.178116 -0.0331952 0 0.0673966 0.0293043 0 -0.178116 -0.0331952 0 340.91 340.91 1000.81 
205 1 1 0.397484 0.0271648 0 0 0 0 -0.161027 -0.0371253 0 0.0566048 0.0117975 0 -0.161027 -0.0371253 0 523.268 523.268 1001.24 
206 1 1 0.398725 0.0361963 0 0 0 0 -0.178945 -0.047499 0 0.0623031 0.0826805 0 -0.178945 -0.047499 0 432.049 432.049 1001.03 
207 1 1 0.427034 0.0471405 0 0 0 0 -0.1167 -0.0658039 0 0.0239983 0.0740894 0 -0.1167 -0.0658039 0 282.128 282.128 1000.67 
208 1 1 0.439485 0.0449388 0 0 0 0 -0.0967216 -0.139577 0 -0.00720224 0.0169873 0 -0.0967216 -0.139577 0 384.437 384.437 1000.91 
209 1 1 0.428067 0.0393477 0 0 0 0 -0.10963 -0.067334 0 -0.0624677 0.0379822 0 -0.10963 -0.067334 0 393.416 393.416 1000.93 
210 1 1 0.443777 0.0363278 0 0 0 0 -0.0459324 -0.0843216 0 0.120169 0.0396124 0 -0.0459324 -0.0843216 0 434.071 434.071 1001.03 
211 1 1 0.435367 0.032224 0 0 0 0 -0.115752 -0.0486869 0 0.0122852 -0.0599349 0 -0.115752 -0.0486869 0 433.337 433.337 1001.03 
212 1 1 0.456028 0.0340827 0 0 0 0 -0.0370051 -0.0533059 0 -0.00248102 0.0604064 0 -0.0370051 -0.0533059 0 437.638 437.638 1001.04 
213 1 1 0.457623 0.0247966 0 0 0 0 -0.0936858 -0.0516664 0 -0.00784527 0.0419338 0 -0.0936858 -0.0516664 0 533.711 533.711 1001.27 
214 1 1 0.468641 0.0304769 0 0 0 0 -0.0257538 -0.0541911 0 0.0913682 0.0370341 0 -0.0257538 -0.0541911 0 500.034 500.034 1001.19 
215 1 1 0.481498 0.0318954 0 0 0 0 -0.0130336 -0.0378459 0 -0.0517943 0.0593374 0 -0.0130336 -0.0378459 0 501.004 501.004 1001.19 
216 1 1 0.47987 0.0239982 0 0 0 0 -0.0775577 -0.021708 0 0.0218452 -0.063566 0 -0.0775577 -0.021708 0 516.822 516.822 1001.23 
217 1 1 0.491506 0.0305708 0 0 0 0 -0.0162542 0.0268479 0 -0.119379 -0.0370212 0 -0.0162542 0.0268479 0 493.533 493.533 1001.17 
218 1 1 0.211221 0.041978 0 0 0 0 -0.131752 0.0127768 0 -0.0929248 0.0913857 0 -0.131752 0.0127768 0 181.838 181.838 1000.43 
219 1 1 0.17294 0.0498397 0 0 0 0 -0.0868904 0.0652656 0 0.0874359 0.0438895 0 -0.0868904 0.0652656 0 74.7786 74.7786 1000.18 
220 1 1 0.196745 0.0437847 0 0 0 0 -0.107236 0.0514387 0 -0.0457092 0.0815618 0 -0.107236 0.0514387 0 147.112 147.112 1000.35 
221 1 1 0.22473 0.0490382 0 0 0 0 -0.178995 0.0431495 0 -0.101354 0.0626102 0 -0.178995 0.0431495 0 142.027 142.027 1000.34 
222 1 1 0.220857 0.0397856 0 0 0 0 -0.14888 0.0276893 0 -0.0671274 0.04854 0 -0.14888 0.0276893 0 210.913 210.913 1000.5 
223 1 1 0.273981 0.0491409 0 0 0 0 -0.178597 0.0295864 0 -0.142487 0.0245137 0 -0.178597 0.0295864 0 184.441 184.441 1000.44 
224 1 1 0.274712 0.0404562 0 0 0 0 -0.175191 0.0517649 0 -0.181612 -0.00197998 0 -0.175191 0.0517649 0 281.38 281.38 1000.67 
225 1 1 0.284931 0.0415026 0 0 0 0 -0.198371 0.0597562 0 -0.130949 0.0353729 0 -0.198371 0.0597562 0 290.195 290.195 1000.69 
226 1 1 0.291647 0.0525572 0 0 0 0 -0.171225 0.0482309 0 -0.187945 0.0558257 0 -0.171225 0.0482309 0 181.502 181.502 1000.43 
227 1 1 0.301955 0.0293587 0 0 0 0 -0.174783 -0.017525 0 -0.122171 0.0320938 0 -0.174783 -0.017525 0 451.518 451.518 1001.07 
228 1 1 0.301268 0.0511786 0 0 0 0 -0.175506 0.0217877 0 -0.185892 -0.0641266 0 -0.175506 0.0217877 0 227.226 227.226 1000.54 
229 1 1 0.312545 0.0504655 0 0 0 0 -0.186609 -0.0458047 0 -0.176953 -0.0104818 0 -0.186609 -0.0458047 0 293.96 293.96 1000.7 
230 1 1 0.32282 0.0337844 0 0 0 0 -0.187969 0.0152691 0 -0.118177 -0.0904861 0 -0.187969 0.0152691 0 404.98 404.98 1000.96 
231 1 1 0.320511 0.045992 0 0 0 0 -0.182535 0.0280222 0 -0.102765 0.00794909 0 -0.182535 0.0280222 0 306.917 306.917 1000.73 
232 1 1 0.336172 0.0510859 0 0 0 0 -0.241454 0.0119374 0 -0.0678575 -0.079371 0 -0.241454 0.0119374 0 277.913 277.913 1000.66 
233 1 1 0.349048 0.0507169 0 0 0 0 -0.198851 0.0471656 0 -0.132808 -0.0356518 0 -0.198851 0.0471656 0 218.08 218.08 1000.52 