ITEM: TIMESTEP
180000
ITEM: NUMBER OF ATOMS
754
ITEM: BOX BOUNDS ff ff pp
-0.021 0.521
-0.021 0.5
-0.001 0.001
ITEM: ATOMS id type type x y z ix iy iz vx vy vz fx fy fz vx vy vz p p rho 
1 1 1 0.006559 0.00269711 0 0 0 0 -0.00441048 -0.00747875 0 -0.00633461 -0.028531 0 -0.00441048 -0.00747875 0 468.199 468.199 1001.11 
2 1 1 0.0281578 0.00459922 0 0 0 0 0.0164934 0.00937183 0 -0.00949102 0.0264004 0 0.0164934 0.00937183 0 444.385 444.385 1001.05 
3 1 1 0.0615186 0.00651133 0 0 0 0 0.0312586 -0.00257541 0 0.0227804 -0.00366556 0 0.0312586 -0.00257541 0 439.254 439.254 1001.04 
4 1 1 0.0754011 0.00475852 0 0 0 0 0.0218424 -0.0035038 0 0.0149734 0.00436018 0 0.0218424 -0.0035038 0 451.985 451.985 1001.07 
5 1 1 0.0934991 0.00568275 0 0 0 0 0.033423 -0.000790371 0 0.0206102 -0.0353866 0 0.033423 -0.000790371 0 443.885 443.885 1001.05 
6 1 1 0.107694 0.00580229 0 0 0 0 0.0213338 0.00268524 0 0.05223 -0.0362278 0 0.0213338 0.00268524 0 453.633 453.633 1001.08 
7 1 1 0.157861 0.00553973 0 0 0 0 0.0157765 -0.00349437 0 -0.0428924 -0.0207792 0 0.0157765 -0.00349437 0 436.456 436.456 1001.04 
8 1 1 0.134684 0.0136687 0 0 0 0 -0.00940589 0.0140346 0 0.0372465 -0.0224224 0 -0.00940589 0.0140346 0 419.527 419.527 1001 
9 1 1 0.188467 0.0054272 0 0 0 0 0.0316896 0.0102506 0 0.00200513 0.018833 0 0.0316896 0.0102506 0 456.228 456.228 1001.08 
10 1 1 0.201847 0.00672708 0 0 0 0 -0.00197751 0.00360878 0 -0.0365489 -0.0130744 0 -0.00197751 0.00360878 0 455.448 455.448 1001.08 
11 1 1 0.0310608 0.0161767 0 0 0 0 0.0280525 0.0116391 0 -0.00684028 -0.00871511 0 0.0280525 0.0116391 0 391.971 391.971 1000.93 
12 1 1 0.0483649 0.00555904 0 0 0 0 0.0281399 -0.00184968 0 -0.00450138 0.0202876 0 0.0281399 -0.00184968 0 440.785 440.785 1001.05 
13 1 1 0.0693585 0.0142311 0 0 0 0 0.0172339 0.00798907 0 -0.0352508 -0.0514132 0 0.0172339 0.00798907 0 400.019 400.019 1000.95 
14 1 1 0.0846155 0.0109393 0 0 0 0 0.0120927 -0.00175244 0 -0.00656877 -0.00134444 0 0.0120927 -0.00175244 0 417.334 417.334 1000.99 
15 1 1 0.103174 0.01438 0 0 0 0 0.0288362 0.012789 0 -0.0328551 -0.017674 0 0.0288362 0.012789 0 396.296 396.296 1000.94 
16 1 1 0.13977 0.00591593 0 0 0 0 0.00607479 -0.000677838 0 -0.0059403 0.0242499 0 0.00607479 -0.000677838 0 449.047 449.047 1001.07 
17 1 1 0.149644 0.0181241 0 0 0 0 0.0425917 -0.00307748 0 -0.0129653 0.0508156 0 0.0425917 -0.00307748 0 389.663 389.663 1000.93 
18 1 1 0.170707 0.00617403 0 0 0 0 0.0134493 0.00316339 0 0.0205901 -0.0244797 0 0.0134493 0.00316339 0 446.183 446.183 1001.06 
19 1 1 0.198622 0.0139927 0 0 0 0 0.0304632 0.0131607 0 -0.0776255 0.0185437 0 0.0304632 0.0131607 0 417.548 417.548 1000.99 
20 1 1 0.190253 0.0170455 0 0 0 0 0.0133108 0.008132 0 -0.0625075 -0.058264 0 0.0133108 0.008132 0 397.958 397.958 1000.94 
21 1 1 0.030998 0.0278435 0 0 0 0 0.0213266 -0.0336091 0 -0.015681 0.00564422 0 0.0213266 -0.0336091 0 305.958 305.958 1000.73 
22 1 1 0.038708 0.00931689 0 0 0 0 0.0126191 -0.0151982 0 0.0294881 -0.0219223 0 0.0126191 -0.0151982 0 428.558 428.558 1001.02 
23 1 1 0.057256 0.0142002 0 0 0 0 0.00657196 0.00555122 0 -0.0187568 0.00951789 0 0.00657196 0.00555122 0 405.256 405.256 1000.96 
24 1 1 0.081103 0.028237 0 0 0 0 0.0541177 -0.000828043 0 0.0557774 -0.0362664 0 0.0541177 -0.000828043 0 301.364 301.364 1000.72 
25 1 1 0.0702609 0.0274493 0 0 0 0 0.0399904 0.041379 0 0.0111197 0.0136502 0 0.0399904 0.041379 0 298.863 298.863 1000.71 
26 1 1 0.1246 0.00484505 0 0 0 0 0.0040042 -0.0037897 0 -0.00346909 0.0080096 0 0.0040042 -0.0037897 0 463.386 463.386 1001.1 
27 1 1 0.126501 0.0157049 0 0 0 0 0.000863575 -0.0120726 0 -0.0392208 -0.0403471 0 0.000863575 -0.0120726 0 405.167 405.167 1000.96 
28 1 1 0.166799 0.0144433 0 0 0 0 0.0342977 0.000201964 0 -0.0456724 -0.0110368 0 0.0342977 0.000201964 0 406.476 406.476 1000.97 
29 1 1 0.180494 0.010919 0 0 0 0 0.0193198 -0.0211237 0 -0.0621938 -0.0167548 0 0.0193198 -0.0211237 0 431.532 431.532 1001.02 
30 1 1 0.199245 0.0234966 0 0 0 0 0.0381279 -0.016212 0 -0.00421917 -0.00357692 0 0.0381279 -0.016212 0 346.575 346.575 1000.82 
31 1 1 0.0188281 0.00967873 0 0 0 0 -0.00414346 -0.0211343 0 -0.0241967 -0.0104984 0 -0.00414346 -0.0211343 0 431.513 431.513 1001.02 
32 1 1 0.0406654 0.0185925 0 0 0 0 0.0404154 -0.00959966 0 -0.0455372 -0.0676586 0 0.0404154 -0.00959966 0 377.102 377.102 1000.9 
33 1 1 0.0624406 0.0344268 0 0 0 0 0.0171767 0.00678084 0 0.00853461 -0.0304088 0 0.0171767 0.00678084 0 263.174 263.174 1000.63 
34 1 1 0.0865352 0.018928 0 0 0 0 0.00513438 -0.00356478 0 0.000897827 0.00443208 0 0.00513438 -0.00356478 0 367.774 367.774 1000.87 
35 1 1 0.124418 0.0238207 0 0 0 0 0.0485327 0.00546909 0 0.0431431 0.0225662 0 0.0485327 0.00546909 0 342.573 342.573 1000.81 
36 1 1 0.138458 0.0214313 0 0 0 0 0.0293503 -0.0231684 0 -0.0260065 -0.0962568 0 0.0293503 -0.0231684 0 363.356 363.356 1000.86 
37 1 1 0.148411 0.0108129 0 0 0 0 -0.0123399 -0.0097913 0 -0.0194155 0.0471981 0 -0.0123399 -0.0097913 0 426.816 426.816 1001.01 
38 1 1 0.17846 0.0182805 0 0 0 0 0.0311117 0.00368887 0 -0.0188305 0.00045309 0 0.0311117 0.00368887 0 388.878 388.878 1000.92 
39 1 1 0.195713 0.0314298 0 0 0 0 0.0394428 -0.00163451 0 -0.0422375 -0.000740492 0 0.0394428 -0.00163451 0 286.21 286.21 1000.68 
40 1 1 0.154954 0.0304811 0 0 0 0 0.0136461 -0.014354 0 -0.0011504 -0.0112152 0 0.0136461 -0.014354 0 309.188 309.188 1000.73 
41 1 1 0.0112364 0.0138952 0 0 0 0 -0.000964943 0.00925967 0 0.0426955 -0.0129856 0 -0.000964943 0.00925967 0 401.821 401.821 1000.95 
42 1 1 0.0330111 0.042392 0 0 0 0 0.0219385 -0.024224 0 -0.0313408 0.0201747 0 0.0219385 -0.024224 0 203.616 203.616 1000.48 
43 1 1 0.049374 0.0169908 0 0 0 0 0.0303332 0.00187613 0 0.0345494 -0.00600381 0 0.0303332 0.00187613 0 388.669 388.669 1000.92 
44 1 1 0.0775158 0.0356917 0 0 0 0 0.0377326 -0.00331028 0 -0.0217038 0.00430578 0 0.0377326 -0.00331028 0 255.014 255.014 1000.61 
45 1 1 0.095895 0.0165595 0 0 0 0 0.00507201 -0.0229151 0 0.0230157 -0.0151932 0 0.00507201 -0.0229151 0 379.781 379.781 1000.9 
46 1 1 0.11532 0.0278045 0 0 0 0 0.0451868 -0.00567143 0 -0.045041 0.0123121 0 0.0451868 -0.00567143 0 307.04 307.04 1000.73 
47 1 1 0.158974 0.0172126 0 0 0 0 -0.00152268 -0.0193645 0 0.0203669 -0.0173235 0 -0.00152268 -0.0193645 0 390.984 390.984 1000.93 
48 1 1 0.186206 0.0259644 0 0 0 0 0.0359961 0.0037958 0 -0.039507 0.0113371 0 0.0359961 0.0037958 0 336.232 336.232 1000.8 
49 1 1 0.183083 0.0340413 0 0 0 0 0.0184973 -0.0108903 0 0.0424148 0.0221438 0 0.0184973 -0.0108903 0 284.605 284.605 1000.68 
50 1 1 0.164666 0.0502925 0 0 0 0 0.0563253 -0.0204268 0 -0.0481605 0.0263623 0 0.0563253 -0.0204268 0 203.561 203.561 1000.48 
51 1 1 0.0232885 0.0181329 0 0 0 0 0.0291337 -0.0353992 0 -0.00830237 -0.0754908 0 0.0291337 -0.0353992 0 383.488 383.488 1000.91 
52 1 1 0.04175 0.0275005 0 0 0 0 0.059384 -0.0191164 0 0.0508641 -0.0138076 0 0.059384 -0.0191164 0 307.937 307.937 1000.73 
53 1 1 0.0628674 0.0224678 0 0 0 0 0.0485617 -0.018483 0 -0.0232952 -0.0425341 0 0.0485617 -0.018483 0 343.749 343.749 1000.82 
54 1 1 0.0916075 0.0280289 0 0 0 0 0.0479815 -0.00465865 0 -0.02481 0.00140963 0 0.0479815 -0.00465865 0 297.465 297.465 1000.71 
55 1 1 0.0963047 0.0361036 0 0 0 0 0.0181147 0.0356607 0 -0.018569 -0.00839745 0 0.0181147 0.0356607 0 232.078 232.078 1000.55 
56 1 1 0.107203 0.0331101 0 0 0 0 0.0130117 -0.0191062 0 0.0286283 -0.00382362 0 0.0130117 -0.0191062 0 258.612 258.612 1000.61 
57 1 1 0.145532 0.0280452 0 0 0 0 0.0109703 0.00427971 0 0.0037662 -0.063043 0 0.0109703 0.00427971 0 311.582 311.582 1000.74 
58 1 1 0.133726 0.0299521 0 0 0 0 0.076748 0.0166319 0 -0.0730135 0.0433111 0 0.076748 0.0166319 0 295.123 295.123 1000.7 
59 1 1 0.173499 0.0345757 0 0 0 0 0.0402925 -0.00885532 0 -0.0148345 -0.0396098 0 0.0402925 -0.00885532 0 276.168 276.168 1000.66 
60 1 1 0.177769 0.0449582 0 0 0 0 0.0280787 0.0105199 0 -0.0601724 -0.0302604 0 0.0280787 0.0105199 0 215.102 215.102 1000.51 
61 1 1 0.0537109 0.026702 0 0 0 0 0.077109 0.0171057 0 -0.0482438 0.0037932 0 0.077109 0.0171057 0 315.569 315.569 1000.75 
62 1 1 0.00959938 0.0206474 0 0 0 0 0.0140421 -0.0134828 0 -0.0126065 0.0378911 0 0.0140421 -0.0134828 0 355.422 355.422 1000.84 
63 1 1 0.0758709 0.0174387 0 0 0 0 0.0117775 0.0050416 0 0.0203135 -0.0317466 0 0.0117775 0.0050416 0 375.354 375.354 1000.89 
64 1 1 0.046552 0.0450576 0 0 0 0 0.0242144 -0.0164916 0 -0.0173532 -0.011693 0 0.0242144 -0.0164916 0 192.517 192.517 1000.46 
65 1 1 0.088179 0.0405883 0 0 0 0 -0.00190907 0.0173998 0 -0.0183371 -0.0271083 0 -0.00190907 0.0173998 0 216.029 216.029 1000.51 
66 1 1 0.116519 0.0123 0 0 0 0 -0.00268038 0.0094793 0 0.0339591 0.00805474 0 -0.00268038 0.0094793 0 419.936 419.936 1001 
67 1 1 0.123283 0.0345131 0 0 0 0 0.0428794 -0.0213562 0 0.0412716 -0.00621801 0 0.0428794 -0.0213562 0 268.004 268.004 1000.64 
68 1 1 0.162944 0.0267781 0 0 0 0 0.0268866 -0.00168617 0 -0.0420558 0.00588495 0 0.0268866 -0.00168617 0 335.677 335.677 1000.8 
69 1 1 0.172405 0.0240643 0 0 0 0 0.0119238 -0.0190852 0 -0.00671687 0.0272874 0 0.0119238 -0.0190852 0 351.437 351.437 1000.83 
70 1 1 0.185803 0.0521178 0 0 0 0 0.0331093 -0.00978167 0 0.0454325 0.0111483 0 0.0331093 -0.00978167 0 196.492 196.492 1000.47 
71 1 1 0.00990112 0.0308573 0 0 0 0 -0.0292265 0.0216991 0 0.0668405 0.0161579 0 -0.0292265 0.0216991 0 286.564 286.564 1000.68 
72 1 1 0.0385205 0.0532986 0 0 0 0 0.00865797 -0.0226684 0 -0.0631838 0.0772463 0 0.00865797 -0.0226684 0 153.77 153.77 1000.37 
73 1 1 0.0217927 0.0355081 0 0 0 0 0.0234794 -0.0777187 0 0.0184713 -0.013273 0 0.0234794 -0.0777187 0 269.331 269.331 1000.64 
74 1 1 0.050739 0.0351597 0 0 0 0 -0.00447865 0.00910748 0 0.0219076 0.00367012 0 -0.00447865 0.00910748 0 257.197 257.197 1000.61 
75 1 1 0.077864 0.046553 0 0 0 0 0.0187069 0.0248361 0 0.0315352 0.0288591 0 0.0187069 0.0248361 0 195.915 195.915 1000.47 
76 1 1 0.111975 0.0186832 0 0 0 0 0.00791794 0.0256396 0 0.0183416 0.0120762 0 0.00791794 0.0256396 0 372.806 372.806 1000.89 
77 1 1 0.102172 0.0257116 0 0 0 0 0.000308182 0.0165532 0 0.0211513 -0.0725855 0 0.000308182 0.0165532 0 315.66 315.66 1000.75 
78 1 1 0.155062 0.0420513 0 0 0 0 0.0189471 -0.0142056 0 0.0161949 0.0483132 0 0.0189471 -0.0142056 0 231.912 231.912 1000.55 
79 1 1 0.144244 0.0374151 0 0 0 0 0.0418876 0.0367463 0 -0.0147553 0.0166431 0 0.0418876 0.0367463 0 242.341 242.341 1000.58 
80 1 1 0.153249 0.0576797 0 0 0 0 0.0730349 0.00772017 0 0.0308568 0.044441 0 0.0730349 0.00772017 0 159.126 159.126 1000.38 
81 1 1 0.0203544 0.0266721 0 0 0 0 -0.0315245 -0.0355286 0 -0.0370662 0.031536 0 -0.0315245 -0.0355286 0 329.056 329.056 1000.78 
82 1 1 0.0108636 0.0409691 0 0 0 0 0.024418 0.00508015 0 0.0394147 -0.0336656 0 0.024418 0.00508015 0 207.653 207.653 1000.49 
83 1 1 0.0381316 0.0358328 0 0 0 0 0.0103536 -0.0352115 0 -0.00148204 -0.016386 0 0.0103536 -0.0352115 0 244.634 244.634 1000.58 
84 1 1 0.0227415 0.0452186 0 0 0 0 0.0207355 -0.0730314 0 -0.0141151 -0.00941904 0 0.0207355 -0.0730314 0 197.946 197.946 1000.47 
85 1 1 0.0676469 0.0427216 0 0 0 0 0.0239875 0.00629963 0 0.0227711 -0.0555168 0 0.0239875 0.00629963 0 206.314 206.314 1000.49 
86 1 1 0.103688 0.0448163 0 0 0 0 0.0409378 -0.0241784 0 0.0456912 0.0102952 0 0.0409378 -0.0241784 0 193.144 193.144 1000.46 
87 1 1 0.11364 0.0413246 0 0 0 0 0.0559518 -0.0112217 0 0.0381996 0.0223074 0 0.0559518 -0.0112217 0 211.145 211.145 1000.5 
88 1 1 0.125916 0.0449852 0 0 0 0 0.0214826 -0.00727735 0 -0.0314578 0.041078 0 0.0214826 -0.00727735 0 202.699 202.699 1000.48 
89 1 1 0.134616 0.0411722 0 0 0 0 0.0219959 0.0122434 0 0.00131626 0.0154012 0 0.0219959 0.0122434 0 225.543 225.543 1000.54 
90 1 1 0.145188 0.0486375 0 0 0 0 0.0296526 0.0346894 0 -0.069734 0.0247849 0 0.0296526 0.0346894 0 197.714 197.714 1000.47 
91 1 1 0.0516737 0.0589652 0 0 0 0 -0.00553813 -0.0206816 0 -0.00134063 -0.0708879 0 -0.00553813 -0.0206816 0 152.397 152.397 1000.36 
92 1 1 0.02493 0.0568526 0 0 0 0 -0.00404244 -0.0474648 0 0.0376494 0.0675457 0 -0.00404244 -0.0474648 0 144.436 144.436 1000.34 
93 1 1 0.0123845 0.0521187 0 0 0 0 0.0073948 -0.0223947 0 0.0258755 0.0319546 0 0.0073948 -0.0223947 0 141.242 141.242 1000.34 
94 1 1 0.0653239 0.0545605 0 0 0 0 0.0308164 0.0200047 0 0.0804161 0.0343205 0 0.0308164 0.0200047 0 120.95 120.95 1000.29 
95 1 1 0.0812883 0.0586264 0 0 0 0 0.0337235 0.0135215 0 0.00037739 0.0320857 0 0.0337235 0.0135215 0 195.992 195.992 1000.47 
96 1 1 0.104687 0.0578305 0 0 0 0 0.0353329 -0.00465026 0 -0.0249233 0.0142054 0 0.0353329 -0.00465026 0 176.247 176.247 1000.42 
97 1 1 0.0570837 0.0457152 0 0 0 0 0.0467071 0.00318483 0 -0.0527556 -0.0578828 0 0.0467071 0.00318483 0 185.096 185.096 1000.44 
98 1 1 0.092866 0.0506913 0 0 0 0 0.0258596 0.00494692 0 0.00628786 0.0211822 0 0.0258596 0.00494692 0 176.452 176.452 1000.42 
99 1 1 0.117784 0.0529295 0 0 0 0 0.000260831 -0.00392275 0 0.00887217 0.129897 0 0.000260831 -0.00392275 0 165.95 165.95 1000.39 
100 1 1 0.134075 0.0571111 0 0 0 0 0.0824505 -0.00567893 0 -0.043125 0.0969444 0 0.0824505 -0.00567893 0 225.727 225.727 1000.54 
101 1 1 0.209979 0.015567 0 0 0 0 0.0464846 -0.010266 0 -0.104518 -0.0762656 0 0.0464846 -0.010266 0 401.047 401.047 1000.95 
102 1 1 0.218276 0.0177049 0 0 0 0 0.0492936 -0.00597193 0 -0.0183803 -0.0362827 0 0.0492936 -0.00597193 0 389.473 389.473 1000.92 
103 1 1 0.226159 0.0239475 0 0 0 0 0.0784617 -0.00359976 0 -0.0394083 -0.00559064 0 0.0784617 -0.00359976 0 356.926 356.926 1000.85 
104 1 1 0.214292 0.00607192 0 0 0 0 0.00318001 -0.00297743 0 -0.0286789 -0.0109721 0 0.00318001 -0.00297743 0 460.815 460.815 1001.09 
105 1 1 0.224716 0.00865406 0 0 0 0 0.0137335 -0.00792125 0 -0.0240545 0.00162176 0 0.0137335 -0.00792125 0 453.288 453.288 1001.08 
106 1 1 0.236602 0.00519791 0 0 0 0 0.0101517 0.00245045 0 -0.0676718 0.000250095 0 0.0101517 0.00245045 0 476.245 476.245 1001.13 
107 1 1 0.244615 0.0139669 0 0 0 0 0.0382963 0.00839622 0 0.0324469 -0.0324892 0 0.0382963 0.00839622 0 440.004 440.004 1001.04 
108 1 1 0.250879 0.00586935 0 0 0 0 0.0016487 -0.0048814 0 -0.0510706 0.00308948 0 0.0016487 -0.0048814 0 481.394 481.394 1001.14 
109 1 1 0.259497 0.0121195 0 0 0 0 0.0368412 -0.00477047 0 0.00513071 0.0129135 0 0.0368412 -0.00477047 0 472.089 472.089 1001.12 
110 1 1 0.270875 0.0159349 0 0 0 0 0.0474459 0.0127675 0 -0.104031 -0.0249103 0 0.0474459 0.0127675 0 447.346 447.346 1001.06 
111 1 1 0.267478 0.00511047 0 0 0 0 0.0132951 -0.00108294 0 -0.0414075 -0.0119609 0 0.0132951 -0.00108294 0 505.236 505.236 1001.2 
112 1 1 0.278367 0.00987397 0 0 0 0 0.0165689 -0.0107889 0 -0.0440772 -0.0362453 0 0.0165689 -0.0107889 0 482.161 482.161 1001.14 
113 1 1 0.287799 0.00546209 0 0 0 0 0.0151314 0.00960054 0 -0.0190851 0.0260312 0 0.0151314 0.00960054 0 505.368 505.368 1001.2 
114 1 1 0.298471 0.0151985 0 0 0 0 0.0402758 0.0114826 0 0.00333424 0.0321674 0 0.0402758 0.0114826 0 468.688 468.688 1001.11 
115 1 1 0.324483 0.026973 0 0 0 0 0.0749206 -0.0226601 0 -0.131271 -0.0669268 0 0.0749206 -0.0226601 0 414.522 414.522 1000.98 
116 1 1 0.301749 0.00607854 0 0 0 0 0.0105531 -0.0113249 0 -0.0812207 -0.0136184 0 0.0105531 -0.0113249 0 527.149 527.149 1001.25 
117 1 1 0.31819 0.00498808 0 0 0 0 0.0352862 0.00180198 0 -0.0832741 0.0183723 0 0.0352862 0.00180198 0 530.748 530.748 1001.26 
118 1 1 0.326912 0.0114181 0 0 0 0 0.0409284 -0.0216798 0 -0.0684505 -0.020381 0 0.0409284 -0.0216798 0 519.687 519.687 1001.23 
119 1 1 0.336206 0.00496339 0 0 0 0 0.0502295 -0.000378279 0 -0.0974711 0.0173408 0 0.0502295 -0.000378279 0 553.297 553.297 1001.31 
120 1 1 0.348542 0.0233376 0 0 0 0 0.0322026 0.00941742 0 -0.0656228 0.00488309 0 0.0322026 0.00941742 0 454.604 454.604 1001.08 
121 1 1 0.347045 0.0129012 0 0 0 0 0.0572929 0.00197029 0 -0.105548 -0.0417747 0 0.0572929 0.00197029 0 512.816 512.816 1001.22 
122 1 1 0.352113 0.00589817 0 0 0 0 0.0453749 -0.000926613 0 -0.0667158 -0.0528738 0 0.0453749 -0.000926613 0 547.724 547.724 1001.3 
123 1 1 0.375428 0.0150222 0 0 0 0 0.0486107 -0.0146343 0 -0.0958117 -0.0081305 0 0.0486107 -0.0146343 0 548.168 548.168 1001.3 
124 1 1 0.367586 0.00557549 0 0 0 0 0.0327944 0.0115525 0 -0.0409647 -0.00201604 0 0.0327944 0.0115525 0 569.238 569.238 1001.35 
125 1 1 0.380482 0.00707672 0 0 0 0 0.0369732 -0.00994669 0 -0.129432 0.0165322 0 0.0369732 -0.00994669 0 582.533 582.533 1001.38 
126 1 1 0.391324 0.0182788 0 0 0 0 0.0348202 0.0289822 0 -0.128381 -0.0415241 0 0.0348202 0.0289822 0 523.596 523.596 1001.24 
127 1 1 0.391864 0.00613757 0 0 0 0 0.036852 0.00628143 0 -0.0922258 0.00305174 0 0.036852 0.00628143 0 576.424 576.424 1001.37 
128 1 1 0.398001 0.0134795 0 0 0 0 0.027581 -0.00805661 0 -0.0925129 -0.0698232 0 0.027581 -0.00805661 0 555.15 555.15 1001.32 
129 1 1 0.418134 0.0120324 0 0 0 0 0.0237184 -0.00487503 0 -0.177034 -0.0677672 0 0.0237184 -0.00487503 0 598.145 598.145 1001.42 
130 1 1 0.423839 0.00638564 0 0 0 0 0.0367107 -0.00961735 0 -0.000813629 0.035331 0 0.0367107 -0.00961735 0 622.309 622.309 1001.48 
131 1 1 0.437235 0.00597485 0 0 0 0 0.0313619 0.00186454 0 -0.0225646 0.016898 0 0.0313619 0.00186454 0 617.778 617.778 1001.46 
132 1 1 0.432914 0.0140206 0 0 0 0 0.0412977 0.00794401 0 -0.13752 -0.0340074 0 0.0412977 0.00794401 0 592.696 592.696 1001.41 
133 1 1 0.444997 0.0136426 0 0 0 0 0.0266648 0.00711296 0 -0.0579999 0.0123686 0 0.0266648 0.00711296 0 594.138 594.138 1001.41 
134 1 1 0.452363 0.0210592 0 0 0 0 0.0526056 0.0349344 0 0.0202211 -0.113102 0 0.0526056 0.0349344 0 569.004 569.004 1001.35 
135 1 1 0.451137 0.00641943 0 0 0 0 0.0210236 0.00781458 0 -0.0591205 -0.0491903 0 0.0210236 0.00781458 0 616.657 616.657 1001.46 
136 1 1 0.45764 0.01327 0 0 0 0 -0.00114539 0.0250806 0 0.0610115 0.0249723 0 -0.00114539 0.0250806 0 602.36 602.36 1001.43 
137 1 1 0.465249 0.00509636 0 0 0 0 -0.011163 -0.00447881 0 0.00205513 -0.000172499 0 -0.011163 -0.00447881 0 628.111 628.111 1001.49 
138 1 1 0.479645 0.00634399 0 0 0 0 0.00309753 -0.00921088 0 -0.0526751 -0.0108067 0 0.00309753 -0.00921088 0 631.306 631.306 1001.5 
139 1 1 0.492732 0.00558952 0 0 0 0 0.00251358 0.00713614 0 0.00220507 -0.00337905 0 0.00251358 0.00713614 0 624.164 624.164 1001.48 
140 1 1 0.207586 0.0333088 0 0 0 0 0.0223415 -0.0105208 0 -0.0574504 -0.0395448 0 0.0223415 -0.0105208 0 267.616 267.616 1000.64 
141 1 1 0.209711 0.0245239 0 0 0 0 0.0483965 -0.0103629 0 -0.0474754 -0.0304018 0 0.0483965 -0.0103629 0 334.762 334.762 1000.8 
142 1 1 0.253075 0.0383116 0 0 0 0 0.0482587 0.0135204 0 -0.0213586 -0.0382245 0 0.0482587 0.0135204 0 275.058 275.058 1000.65 
143 1 1 0.238162 0.0267449 0 0 0 0 0.0831381 0.0121381 0 -0.0790897 -0.013919 0 0.0831381 0.0121381 0 349.96 349.96 1000.83 
144 1 1 0.249485 0.0260821 0 0 0 0 0.0585194 -0.00197458 0 -0.0993829 -0.00445245 0 0.0585194 -0.00197458 0 369.697 369.697 1000.88 
145 1 1 0.229698 0.0151379 0 0 0 0 0.0465854 0.00261109 0 -0.0257562 0.00850361 0 0.0465854 0.00261109 0 423.085 423.085 1001 
146 1 1 0.258225 0.0292704 0 0 0 0 0.0359848 -0.00256912 0 -0.0308484 0.0371278 0 0.0359848 -0.00256912 0 359.938 359.938 1000.85 
147 1 1 0.238883 0.0175964 0 0 0 0 0.0361558 -0.00422722 0 -0.0392877 -0.0271823 0 0.0361558 -0.00422722 0 414.892 414.892 1000.98 
148 1 1 0.254699 0.0179701 0 0 0 0 0.056516 -0.013399 0 -0.051979 0.0220873 0 0.056516 -0.013399 0 436.22 436.22 1001.04 
149 1 1 0.276147 0.0275479 0 0 0 0 0.0504584 0.00490162 0 -0.0635941 -0.0518926 0 0.0504584 0.00490162 0 361.384 361.384 1000.86 
150 1 1 0.294822 0.0343446 0 0 0 0 0.0627168 0.0202101 0 -0.0448082 0.00487428 0 0.0627168 0.0202101 0 329.5 329.5 1000.78 
151 1 1 0.281453 0.0183401 0 0 0 0 0.0573041 -0.00666147 0 -0.0776117 -0.0386352 0 0.0573041 -0.00666147 0 425.871 425.871 1001.01 
152 1 1 0.288699 0.0255056 0 0 0 0 0.0383708 0.0145128 0 -0.0709272 0.00635097 0 0.0383708 0.0145128 0 381.289 381.289 1000.91 
153 1 1 0.290932 0.0154206 0 0 0 0 0.0391776 -0.00197921 0 -0.0809773 -0.0532842 0 0.0391776 -0.00197921 0 454.717 454.717 1001.08 
154 1 1 0.309579 0.0124447 0 0 0 0 0.0248293 -0.0195441 0 -0.0956318 -0.0541206 0 0.0248293 -0.0195441 0 495.633 495.633 1001.18 
155 1 1 0.329225 0.0191836 0 0 0 0 0.0268561 -0.040029 0 -0.0495893 -0.0296149 0 0.0268561 -0.040029 0 478.357 478.357 1001.14 
156 1 1 0.31803 0.0166301 0 0 0 0 0.0205388 0.0119216 0 0.00665048 0.0740834 0 0.0205388 0.0119216 0 477.113 477.113 1001.13 
157 1 1 0.338722 0.0148061 0 0 0 0 0.0686701 0.000992685 0 -0.0560173 -0.0461764 0 0.0686701 0.000992685 0 503.776 503.776 1001.2 
158 1 1 0.339613 0.0247924 0 0 0 0 0.0149173 -0.00682287 0 -0.0745743 0.0560039 0 0.0149173 -0.00682287 0 441.263 441.263 1001.05 
159 1 1 0.361143 0.0297339 0 0 0 0 0.0445051 0.00812596 0 -0.0860671 -0.00127991 0 0.0445051 0.00812596 0 442.961 442.961 1001.05 
160 1 1 0.357068 0.0185174 0 0 0 0 0.0372828 0.0287099 0 -0.0800629 0.0257069 0 0.0372828 0.0287099 0 487.122 487.122 1001.16 
161 1 1 0.361577 0.0127421 0 0 0 0 0.0484598 0.00351218 0 -0.0753019 0.00574981 0 0.0484598 0.00351218 0 525.986 525.986 1001.25 
162 1 1 0.378383 0.0278158 0 0 0 0 0.0274351 -0.0309652 0 -0.127389 -0.0416437 0 0.0274351 -0.0309652 0 467.56 467.56 1001.11 
163 1 1 0.383698 0.0180175 0 0 0 0 0.0564266 0.0103256 0 -0.102433 -0.0381093 0 0.0564266 0.0103256 0 531.691 531.691 1001.26 
164 1 1 0.405887 0.0323721 0 0 0 0 0.063468 -0.0267024 0 -0.12212 -0.010591 0 0.063468 -0.0267024 0 447.42 447.42 1001.06 
165 1 1 0.406879 0.0050681 0 0 0 0 0.0346462 0.00575222 0 0.00659151 -0.02698 0 0.0346462 0.00575222 0 610.465 610.465 1001.45 
166 1 1 0.403734 0.0226139 0 0 0 0 0.0629205 -0.000981841 0 -0.0631175 -0.0046649 0 0.0629205 -0.000981841 0 510.233 510.233 1001.21 
167 1 1 0.417645 0.0386354 0 0 0 0 0.0347899 0.00405144 0 -0.114794 0.0132762 0 0.0347899 0.00405144 0 413.47 413.47 1000.98 
168 1 1 0.427575 0.0206642 0 0 0 0 0.0363163 -0.0113192 0 -0.108121 -0.0983783 0 0.0363163 -0.0113192 0 562.997 562.997 1001.34 
169 1 1 0.426922 0.0459212 0 0 0 0 0.0453938 0.057667 0 -0.0751112 -0.0701663 0 0.0453938 0.057667 0 368.446 368.446 1000.87 
170 1 1 0.417797 0.0200831 0 0 0 0 0.054322 -0.0106233 0 -0.0675636 0.0300921 0 0.054322 -0.0106233 0 555.859 555.859 1001.32 
171 1 1 0.423729 0.0324149 0 0 0 0 0.0597765 0.0354331 0 -0.0108549 -0.130149 0 0.0597765 0.0354331 0 467.801 467.801 1001.11 
172 1 1 0.440898 0.0211693 0 0 0 0 0.0549754 0.0101896 0 -0.0868312 0.035407 0 0.0549754 0.0101896 0 561.106 561.106 1001.33 
173 1 1 0.448038 0.0300202 0 0 0 0 0.0238763 0.0192649 0 -0.11152 -0.13881 0 0.0238763 0.0192649 0 519.3 519.3 1001.23 
174 1 1 0.472656 0.0136522 0 0 0 0 0.00738096 0.00456676 0 -0.00788085 0.0273786 0 0.00738096 0.00456676 0 616.699 616.699 1001.46 
175 1 1 0.470717 0.0278157 0 0 0 0 0.0233794 0.0142006 0 -0.0530116 -0.0529711 0 0.0233794 0.0142006 0 547.244 547.244 1001.3 
176 1 1 0.479156 0.0232194 0 0 0 0 0.0190576 0.0126464 0 -0.0626287 -0.119733 0 0.0190576 0.0126464 0 559.13 559.13 1001.33 
177 1 1 0.483921 0.0147033 0 0 0 0 -0.00118942 -0.00194005 0 -0.00334319 -0.0858725 0 -0.00118942 -0.00194005 0 599.024 599.024 1001.42 
178 1 1 0.490876 0.0177379 0 0 0 0 0.00211089 -0.000743152 0 0.0453837 0.00825649 0 0.00211089 -0.000743152 0 589.712 589.712 1001.4 
179 1 1 0.200688 0.0420079 0 0 0 0 0.0105842 -0.00803643 0 -0.0422651 0.0631996 0 0.0105842 -0.00803643 0 217.873 217.873 1000.52 
180 1 1 0.219093 0.0302039 0 0 0 0 0.0413659 -0.0290707 0 -0.0178335 -0.0339169 0 0.0413659 -0.0290707 0 298.639 298.639 1000.71 
181 1 1 0.22518 0.0396389 0 0 0 0 0.0215171 -0.0364155 0 -0.0488949 -0.020987 0 0.0215171 -0.0364155 0 250.601 250.601 1000.6 
182 1 1 0.231633 0.0335118 0 0 0 0 0.0502525 -0.0046758 0 -0.0329265 0.0576308 0 0.0502525 -0.0046758 0 300.371 300.371 1000.71 
183 1 1 0.255277 0.0490687 0 0 0 0 0.069676 0.0124934 0 -0.0629365 0.0428049 0 0.069676 0.0124934 0 202.135 202.135 1000.48 
184 1 1 0.243503 0.0452437 0 0 0 0 0.0533606 0.00821402 0 -0.0799268 0.0354978 0 0.0533606 0.00821402 0 219.343 219.343 1000.52 
185 1 1 0.242973 0.0354306 0 0 0 0 0.0509345 0.0232537 0 -0.103899 -0.00751815 0 0.0509345 0.0232537 0 288.411 288.411 1000.69 
186 1 1 0.266351 0.0219663 0 0 0 0 0.0485326 -0.00588943 0 -0.159741 0.0196822 0 0.0485326 -0.00588943 0 413.88 413.88 1000.98 
187 1 1 0.282889 0.0335588 0 0 0 0 0.0435901 -0.00105567 0 -0.0404104 0.0264383 0 0.0435901 -0.00105567 0 323.06 323.06 1000.77 
188 1 1 0.290231 0.042946 0 0 0 0 0.0472672 0.00156927 0 -0.102376 0.0214286 0 0.0472672 0.00156927 0 268.037 268.037 1000.64 
189 1 1 0.306432 0.0321858 0 0 0 0 0.0641586 -0.0115803 0 -0.129742 0.0764216 0 0.0641586 -0.0115803 0 364.503 364.503 1000.87 
190 1 1 0.309885 0.0213495 0 0 0 0 0.0262955 -0.0145778 0 -0.12679 -0.0248415 0 0.0262955 -0.0145778 0 441.23 441.23 1001.05 
191 1 1 0.31314 0.0417555 0 0 0 0 0.0563886 -0.0179355 0 -0.0582517 -0.0625157 0 0.0563886 -0.0179355 0 298.419 298.419 1000.71 
192 1 1 0.315999 0.030168 0 0 0 0 0.0605067 -0.0293951 0 -0.0929349 -0.0293664 0 0.0605067 -0.0293951 0 381.281 381.281 1000.91 
193 1 1 0.343741 0.0366032 0 0 0 0 0.0767659 0.0121492 0 -0.134276 -0.089298 0 0.0767659 0.0121492 0 363.867 363.867 1000.86 
194 1 1 0.325261 0.0486194 0 0 0 0 0.049947 -0.0198708 0 -0.0765312 -0.0326009 0 0.049947 -0.0198708 0 266.431 266.431 1000.63 
195 1 1 0.349 0.0435596 0 0 0 0 0.0582657 0.0352209 0 -0.0673014 0.0121724 0 0.0582657 0.0352209 0 319.281 319.281 1000.76 
196 1 1 0.35298 0.0316845 0 0 0 0 0.0399388 0.0087078 0 -0.0502863 0.096097 0 0.0399388 0.0087078 0 421.166 421.166 1001 
197 1 1 0.368343 0.0422799 0 0 0 0 0.067 0.0310542 0 -0.0748878 -0.0310478 0 0.067 0.0310542 0 341.21 341.21 1000.81 
198 1 1 0.369723 0.0302587 0 0 0 0 0.0371923 0.0120648 0 -0.0618303 0.0771465 0 0.0371923 0.0120648 0 445.925 445.925 1001.06 
199 1 1 0.377764 0.0396599 0 0 0 0 0.0481928 -0.0398439 0 -0.0681911 -0.0253306 0 0.0481928 -0.0398439 0 377.42 377.42 1000.9 
200 1 1 0.368643 0.0196689 0 0 0 0 0.0335519 -0.011975 0 -0.0633799 0.010971 0 0.0335519 -0.011975 0 509.284 509.284 1001.21 
201 1 1 0.394547 0.0280782 0 0 0 0 0.0678849 0.0116111 0 -0.00166706 -0.0304357 0 0.0678849 0.0116111 0 462.368 462.368 1001.1 
202 1 1 0.387695 0.0419316 0 0 0 0 0.0558605 0.0145012 0 -0.0613129 0.06708 0 0.0558605 0.0145012 0 376.45 376.45 1000.89 
203 1 1 0.397554 0.0384353 0 0 0 0 0.042594 -0.0180332 0 -0.158641 -0.00946709 0 0.042594 -0.0180332 0 405.027 405.027 1000.96 
204 1 1 0.405031 0.0542139 0 0 0 0 0.0792843 -0.00768586 0 0.0114499 0.0408183 0 0.0792843 -0.00768586 0 300.562 300.562 1000.71 
205 1 1 0.4078 0.0145561 0 0 0 0 0.0172873 0.000556795 0 -0.0715444 0.0305073 0 0.0172873 0.000556795 0 570.101 570.101 1001.35 
206 1 1 0.413953 0.0279917 0 0 0 0 0.0981474 0.00318949 0 -0.0644348 -0.0563553 0 0.0981474 0.00318949 0 491.153 491.153 1001.17 
207 1 1 0.440329 0.0473968 0 0 0 0 0.0662337 0.00687858 0 -0.0231685 0.0239133 0 0.0662337 0.00687858 0 391.029 391.029 1000.93 
208 1 1 0.441501 0.0353524 0 0 0 0 0.00743543 0.0185097 0 -0.026745 -0.13733 0 0.00743543 0.0185097 0 478.131 478.131 1001.13 
209 1 1 0.432925 0.0388403 0 0 0 0 0.0473007 0.01164 0 -0.199921 -0.0634124 0 0.0473007 0.01164 0 430.522 430.522 1001.02 
210 1 1 0.455218 0.0368235 0 0 0 0 0.0271012 0.0136704 0 -0.0480237 0.0128908 0 0.0271012 0.0136704 0 496.378 496.378 1001.18 
211 1 1 0.43308 0.0274563 0 0 0 0 0.0326555 -0.00761612 0 0.0258619 0.0726377 0 0.0326555 -0.00761612 0 522.84 522.84 1001.24 
212 1 1 0.460157 0.026063 0 0 0 0 0.0448185 0.0142878 0 -0.0138085 0.0315456 0 0.0448185 0.0142878 0 561.062 561.062 1001.33 
213 1 1 0.46639 0.0175407 0 0 0 0 0.0397066 -0.0159495 0 -0.100368 0.0299953 0 0.0397066 -0.0159495 0 603.377 603.377 1001.43 
214 1 1 0.472369 0.040599 0 0 0 0 0.0374728 0.0588505 0 -0.125079 0.102161 0 0.0374728 0.0588505 0 483.445 483.445 1001.15 
215 1 1 0.49002 0.027933 0 0 0 0 0.00176038 0.0161837 0 -0.00451776 0.0202551 0 0.00176038 0.0161837 0 555.409 555.409 1001.32 
216 1 1 0.480662 0.0322765 0 0 0 0 0.0317635 0.0183921 0 -0.0542053 -0.109531 0 0.0317635 0.0183921 0 509.498 509.498 1001.21 
217 1 1 0.489771 0.0399924 0 0 0 0 0.014382 0.0385294 0 0.0626992 -0.0495964 0 0.014382 0.0385294 0 524.492 524.492 1001.24 
218 1 1 0.222708 0.0494296 0 0 0 0 0.0534683 -0.0319114 0 -0.0796819 0.0362916 0 0.0534683 -0.0319114 0 195.039 195.039 1000.46 
219 1 1 0.165323 0.038713 0 0 0 0 0.0177225 -0.0321035 0 -0.0957774 0.0372259 0 0.0177225 -0.0321035 0 254.997 254.997 1000.61 
220 1 1 0.191731 0.0417907 0 0 0 0 0.0123647 0.00261479 0 -0.0919519 0.0835497 0 0.0123647 0.00261479 0 232.008 232.008 1000.55 
221 1 1 0.234379 0.0477539 0 0 0 0 0.019801 -0.0262082 0 -0.0566068 -0.0472099 0 0.019801 -0.0262082 0 213.899 213.899 1000.51 
222 1 1 0.213889 0.0403594 0 0 0 0 0.00364525 -0.0290804 0 -0.0423577 0.0233045 0 0.00364525 -0.0290804 0 223.931 223.931 1000.53 
223 1 1 0.264268 0.0413526 0 0 0 0 0.0561134 -0.00772909 0 -0.0629075 0.0153124 0 0.0561134 -0.00772909 0 278.688 278.688 1000.66 
224 1 1 0.268474 0.0334679 0 0 0 0 0.0340087 -0.00446831 0 -0.0657954 -0.00223422 0 0.0340087 -0.00446831 0 332.881 332.881 1000.79 
225 1 1 0.277452 0.0417263 0 0 0 0 0.0466584 0.00453915 0 -0.148979 -0.0182385 0 0.0466584 0.00453915 0 277.642 277.642 1000.66 
226 1 1 0.290351 0.0530208 0 0 0 0 0.0728714 0.010779 0 -0.0617415 -0.000498191 0 0.0728714 0.010779 0 210.424 210.424 1000.5 
227 1 1 0.299666 0.025013 0 0 0 0 0.0240554 0.012496 0 -0.0385679 -0.0065966 0 0.0240554 0.012496 0 401.15 401.15 1000.95 
228 1 1 0.301738 0.0425924 0 0 0 0 0.0614078 -0.00684598 0 -0.0604986 0.0173683 0 0.0614078 -0.00684598 0 292.187 292.187 1000.69 
229 1 1 0.311804 0.0510832 0 0 0 0 0.0456316 -0.00173193 0 -0.078724 0.0664554 0 0.0456316 -0.00173193 0 234.157 234.157 1000.56 
230 1 1 0.323227 0.0380367 0 0 0 0 0.0333588 -0.00684733 0 -0.0889601 0.0558844 0 0.0333588 -0.00684733 0 327.484 327.484 1000.78 
231 1 1 0.333711 0.03167 0 0 0 0 0.0536047 0.00027458 0 -0.0914072 -0.0647465 0 0.0536047 0.00027458 0 388.824 388.824 1000.92 