ITEM: TIMESTEP
121000
ITEM: NUMBER OF ATOMS
754
ITEM: BOX BOUNDS ff ff pp
-0.021 0.521
-0.021 0.5
-0.001 0.001
ITEM: ATOMS id type type x y z ix iy iz vx vy vz fx fy fz vx vy vz p p rho 
1 1 1 0.0069211 0.00601446 0 0 0 0 0.00182914 -0.00344168 0 0.00240667 -0.044336 0 0.00182914 -0.00344168 0 664.985 664.985 1001.58 
2 1 1 0.0201953 0.00705478 0 0 0 0 0.0197332 -0.000124243 0 -0.00601722 -0.0537232 0 0.0197332 -0.000124243 0 661.616 661.616 1001.57 
3 1 1 0.0424045 0.00887281 0 0 0 0 -0.000377415 0.0170115 0 0.0476248 0.00888747 0 -0.000377415 0.0170115 0 650.381 650.381 1001.54 
4 1 1 0.0523302 0.00660187 0 0 0 0 -0.0163949 -0.0030803 0 0.039927 0.0105317 0 -0.0163949 -0.0030803 0 658.57 658.57 1001.56 
5 1 1 0.0661705 0.0068674 0 0 0 0 -0.0250247 -0.0126605 0 0.0706118 -0.0576422 0 -0.0250247 -0.0126605 0 646.794 646.794 1001.53 
6 1 1 0.0759684 0.00977233 0 0 0 0 -0.00714101 0.00745325 0 0.119496 -0.0155926 0 -0.00714101 0.00745325 0 612.74 612.74 1001.45 
7 1 1 0.105877 0.0071531 0 0 0 0 0.0117467 -0.011925 0 0.090075 -0.00402477 0 0.0117467 -0.011925 0 600.279 600.279 1001.42 
8 1 1 0.105493 0.0177005 0 0 0 0 -0.0715892 0.0420269 0 0.141593 -0.100414 0 -0.0715892 0.0420269 0 522.238 522.238 1001.24 
9 1 1 0.14045 0.00726483 0 0 0 0 -0.0179171 0.0223442 0 0.0740571 -0.0265139 0 -0.0179171 0.0223442 0 547.085 547.085 1001.3 
10 1 1 0.153337 0.00655619 0 0 0 0 -0.0534914 -0.00420839 0 0.121312 0.0378662 0 -0.0534914 -0.00420839 0 569.276 569.276 1001.35 
11 1 1 0.0170716 0.0236771 0 0 0 0 -0.0224262 0.00233991 0 0.0243539 -0.160804 0 -0.0224262 0.00233991 0 557.464 557.464 1001.32 
12 1 1 0.0318184 0.00688653 0 0 0 0 0.00846945 -0.00367485 0 0.0381081 -0.0646603 0 0.00846945 -0.00367485 0 651.907 651.907 1001.54 
13 1 1 0.0442174 0.0204585 0 0 0 0 -0.0253088 0.00720201 0 0.00377393 -0.0587604 0 -0.0253088 0.00720201 0 585.692 585.692 1001.39 
14 1 1 0.0593783 0.0138196 0 0 0 0 -0.000522133 0.0207302 0 0.115994 -0.0380736 0 -0.000522133 0.0207302 0 595.992 595.992 1001.41 
15 1 1 0.0701181 0.017546 0 0 0 0 0.00899743 -0.0498138 0 0.147063 0.0552705 0 0.00899743 -0.0498138 0 589.494 589.494 1001.4 
16 1 1 0.0965489 0.0104133 0 0 0 0 0.0456121 0.0164503 0 0.0970813 -0.00299498 0 0.0456121 0.0164503 0 571.513 571.513 1001.36 
17 1 1 0.10171 0.0257032 0 0 0 0 -0.0761307 0.0308381 0 0.0948654 -0.000911335 0 -0.0761307 0.0308381 0 488.152 488.152 1001.16 
18 1 1 0.127935 0.00641621 0 0 0 0 -0.0137722 -0.0194767 0 0.0396323 0.0981128 0 -0.0137722 -0.0194767 0 613.465 613.465 1001.45 
19 1 1 0.14571 0.0149993 0 0 0 0 -0.0750164 0.040282 0 0.0662471 -0.0076711 0 -0.0750164 0.040282 0 508.417 508.417 1001.21 
20 1 1 0.137422 0.0210762 0 0 0 0 -0.0742256 0.0290899 0 0.184096 0.0940903 0 -0.0742256 0.0290899 0 471.343 471.343 1001.12 
21 1 1 0.0215661 0.0317147 0 0 0 0 -0.01333 0.0427256 0 0.0273545 0.0623659 0 -0.01333 0.0427256 0 510.467 510.467 1001.21 
22 1 1 0.0256349 0.0161181 0 0 0 0 0.00167678 0.0260057 0 0.00571308 0.0377309 0 0.00167678 0.0260057 0 621.294 621.294 1001.47 
23 1 1 0.0358372 0.0162802 0 0 0 0 -0.0149559 0.00655824 0 0.00581966 0.0425442 0 -0.0149559 0.00655824 0 619.166 619.166 1001.47 
24 1 1 0.0529808 0.0486191 0 0 0 0 -0.040282 0.0168054 0 0.134147 0.0143681 0 -0.040282 0.0168054 0 359.089 359.089 1000.85 
25 1 1 0.0548754 0.0303772 0 0 0 0 -0.0406171 0.0471179 0 0.0367871 -0.113198 0 -0.0406171 0.0471179 0 496.386 496.386 1001.18 
26 1 1 0.0867068 0.0065994 0 0 0 0 0.019728 -0.0300966 0 0.141345 -0.0421643 0 0.019728 -0.0300966 0 620.309 620.309 1001.47 
27 1 1 0.0934064 0.0171075 0 0 0 0 -0.0610402 -0.000213218 0 0.0954023 0.012023 0 -0.0610402 -0.000213218 0 557.249 557.249 1001.32 
28 1 1 0.115959 0.00850951 0 0 0 0 -0.0101275 0.0331898 0 0.247877 -0.0450689 0 -0.0101275 0.0331898 0 571.237 571.237 1001.35 
29 1 1 0.132767 0.0159342 0 0 0 0 -0.0659258 -0.016584 0 0.0894105 -0.107456 0 -0.0659258 -0.016584 0 531.163 531.163 1001.26 
30 1 1 0.146607 0.02684 0 0 0 0 -0.0425103 0.017176 0 0.0808524 0.00222359 0 -0.0425103 0.017176 0 413.433 413.433 1000.98 
31 1 1 0.014825 0.013961 0 0 0 0 0.0188184 -0.0153152 0 0.046008 0.128729 0 0.0188184 -0.0153152 0 640.114 640.114 1001.52 
32 1 1 0.029023 0.0247925 0 0 0 0 -0.0319379 0.0157092 0 0.0386885 -0.108792 0 -0.0319379 0.0157092 0 581.883 581.883 1001.38 
33 1 1 0.0512865 0.0396253 0 0 0 0 -0.105456 0.0250126 0 0.000758558 -0.122724 0 -0.105456 0.0250126 0 438.247 438.247 1001.04 
34 1 1 0.0612177 0.0231476 0 0 0 0 -0.0545345 0.0297761 0 0.0835054 -0.0908147 0 -0.0545345 0.0297761 0 553.543 553.543 1001.31 
35 1 1 0.086022 0.0242037 0 0 0 0 -0.0397247 0.04172 0 0.0671009 -0.0349018 0 -0.0397247 0.04172 0 540.85 540.85 1001.28 
36 1 1 0.0933605 0.0295626 0 0 0 0 -0.0447902 0.0303621 0 0.113495 0.0330531 0 -0.0447902 0.0303621 0 501.19 501.19 1001.19 
37 1 1 0.11541 0.0175397 0 0 0 0 -0.0710826 0.00575764 0 -0.0220721 0.0757886 0 -0.0710826 0.00575764 0 536.151 536.151 1001.27 
38 1 1 0.123437 0.0171827 0 0 0 0 -0.0485772 0.0069864 0 0.170721 0.111914 0 -0.0485772 0.0069864 0 539.437 539.437 1001.28 
39 1 1 0.138874 0.0325796 0 0 0 0 -0.060085 0.0231395 0 0.0991031 0.0309152 0 -0.060085 0.0231395 0 368.399 368.399 1000.87 
40 1 1 0.112099 0.0473841 0 0 0 0 -0.0832294 0.0213299 0 0.12182 -0.0835054 0 -0.0832294 0.0213299 0 327.343 327.343 1000.78 
41 1 1 0.00769084 0.0197618 0 0 0 0 0.00537651 -0.0368221 0 0.0110416 -0.114945 0 0.00537651 -0.0368221 0 581.327 581.327 1001.38 
42 1 1 0.025319 0.0581007 0 0 0 0 -0.0617004 0.0022511 0 -0.00897463 -0.217467 0 -0.0617004 0.0022511 0 348.891 348.891 1000.83 
43 1 1 0.0360921 0.0296071 0 0 0 0 -0.0675708 0.034571 0 0.0638796 0.0337789 0 -0.0675708 0.034571 0 538.094 538.094 1001.28 
44 1 1 0.045209 0.0600594 0 0 0 0 -0.0763462 0.0394833 0 0.0893394 -0.251865 0 -0.0763462 0.0394833 0 332.344 332.344 1000.79 
45 1 1 0.0671732 0.029628 0 0 0 0 -0.059159 -0.0385715 0 0.0700897 0.0808521 0 -0.059159 -0.0385715 0 536.127 536.127 1001.27 
46 1 1 0.0805898 0.0353023 0 0 0 0 -0.0808402 -0.0074692 0 0.188929 -0.000414941 0 -0.0808402 -0.0074692 0 442.501 442.501 1001.05 
47 1 1 0.110119 0.0286018 0 0 0 0 0.000679492 0.00227574 0 0.106063 -0.0289478 0 0.000679492 0.00227574 0 456.481 456.481 1001.08 
48 1 1 0.128353 0.0280065 0 0 0 0 -0.0321433 0.015594 0 0.158858 -0.00671943 0 -0.0321433 0.015594 0 454.457 454.457 1001.08 
49 1 1 0.131438 0.038165 0 0 0 0 -0.0857212 0.0268194 0 0.0578505 0.0968626 0 -0.0857212 0.0268194 0 335.126 335.126 1000.8 
50 1 1 0.0995679 0.0608362 0 0 0 0 -0.0643273 0.043505 0 0.178281 -0.16948 0 -0.0643273 0.043505 0 285.206 285.206 1000.68 
51 1 1 0.00904463 0.0315708 0 0 0 0 -0.00686458 -0.00116006 0 -0.0667968 0.0741628 0 -0.00686458 -0.00116006 0 531.622 531.622 1001.26 
52 1 1 0.0283475 0.0381995 0 0 0 0 -0.0437241 0.0572722 0 -0.012122 -0.0995262 0 -0.0437241 0.0572722 0 460.442 460.442 1001.09 
53 1 1 0.0449804 0.0307271 0 0 0 0 -0.0464489 -0.0496728 0 0.0855681 0.0567915 0 -0.0464489 -0.0496728 0 531.397 531.397 1001.26 
54 1 1 0.0613426 0.0394103 0 0 0 0 -0.0737128 0.0261821 0 0.101209 -0.129226 0 -0.0737128 0.0261821 0 411.474 411.474 1000.98 
55 1 1 0.066534 0.0476449 0 0 0 0 -0.0594045 0.00990477 0 0.111158 -0.106668 0 -0.0594045 0.00990477 0 365.178 365.178 1000.87 
56 1 1 0.080043 0.0480325 0 0 0 0 -0.0665766 -0.0570443 0 0.0446884 -0.168439 0 -0.0665766 -0.0570443 0 351.339 351.339 1000.83 
57 1 1 0.0989179 0.0389089 0 0 0 0 -0.0397048 0.0139749 0 0.220096 -0.0895628 0 -0.0397048 0.0139749 0 386.675 386.675 1000.92 
58 1 1 0.0901656 0.0492997 0 0 0 0 -0.0364037 0.0169581 0 0.247594 0.0187588 0 -0.0364037 0.0169581 0 317.766 317.766 1000.75 
59 1 1 0.120532 0.0379387 0 0 0 0 -0.0696482 0.045995 0 0.132488 0.0326186 0 -0.0696482 0.045995 0 348.85 348.85 1000.83 
60 1 1 0.12161 0.0486874 0 0 0 0 -0.106826 0.0654346 0 0.128131 0.0591917 0 -0.106826 0.0654346 0 293.981 293.981 1000.7 
61 1 1 0.0385586 0.0406497 0 0 0 0 0.00537138 -0.00353897 0 0.138001 -0.183101 0 0.00537138 -0.00353897 0 438.755 438.755 1001.04 
62 1 1 0.0144726 0.0382869 0 0 0 0 -0.0373262 -0.0205567 0 -0.0233926 -0.0990796 0 -0.0373262 -0.0205567 0 445.719 445.719 1001.06 
63 1 1 0.0510553 0.0182575 0 0 0 0 0.00310209 -0.0186763 0 0.0410733 -0.0372108 0 0.00310209 -0.0186763 0 596.601 596.601 1001.41 
64 1 1 0.0373569 0.0603541 0 0 0 0 -0.0516909 0.070029 0 -0.00990413 -0.186861 0 -0.0516909 0.070029 0 330.314 330.314 1000.78 
65 1 1 0.0591046 0.0560607 0 0 0 0 -0.0583593 0.0226163 0 0.0940988 -0.147246 0 -0.0583593 0.0226163 0 300.706 300.706 1000.71 
66 1 1 0.0814707 0.0162962 0 0 0 0 0.0354902 -0.0204099 0 0.112163 0.118033 0 0.0354902 -0.0204099 0 600.612 600.612 1001.42 
67 1 1 0.0884954 0.0389748 0 0 0 0 -0.0628135 0.0231138 0 0.074955 -0.0282234 0 -0.0628135 0.0231138 0 383.857 383.857 1000.91 
68 1 1 0.108409 0.0381163 0 0 0 0 -0.0492405 -0.0247235 0 0.172355 -0.0394821 0 -0.0492405 -0.0247235 0 390.743 390.743 1000.93 
69 1 1 0.119257 0.0290226 0 0 0 0 -0.0205319 0.00847658 0 0.180882 -0.0693282 0 -0.0205319 0.00847658 0 444.3 444.3 1001.05 
70 1 1 0.0984579 0.071862 0 0 0 0 0.0664968 -0.0161654 0 0.171693 0.0286376 0 0.0664968 -0.0161654 0 164.134 164.134 1000.39 
71 1 1 0.0145152 0.0539411 0 0 0 0 -0.0665283 0.0499841 0 -0.049906 0.204457 0 -0.0665283 0.0499841 0 360.278 360.278 1000.86 
72 1 1 0.0249796 0.0794961 0 0 0 0 -0.0179475 0.087145 0 0.0355019 -0.248016 0 -0.0179475 0.087145 0 279.317 279.317 1000.66 
73 1 1 0.022047 0.0467928 0 0 0 0 -0.0264524 0.0527265 0 0.173958 -0.170722 0 -0.0264524 0.0527265 0 417.067 417.067 1000.99 
74 1 1 0.0431409 0.0481819 0 0 0 0 -0.0637677 0.0512379 0 0.0375808 0.0622725 0 -0.0637677 0.0512379 0 376.714 376.714 1000.89 
75 1 1 0.0535922 0.063767 0 0 0 0 -0.0644855 0.0241149 0 0.158594 -0.0431415 0 -0.0644855 0.0241149 0 261.732 261.732 1000.62 
76 1 1 0.0758006 0.0269993 0 0 0 0 -0.0608434 -0.0500151 0 0.102252 -0.182031 0 -0.0608434 -0.0500151 0 534.664 534.664 1001.27 
77 1 1 0.0722542 0.0400132 0 0 0 0 -0.0830999 -0.0593745 0 0.111983 -0.0290997 0 -0.0830999 -0.0593745 0 428.864 428.864 1001.02 
78 1 1 0.0900721 0.0611697 0 0 0 0 -0.0744358 -0.0122501 0 0.151206 -0.116941 0 -0.0744358 -0.0122501 0 238.175 238.175 1000.57 
79 1 1 0.100058 0.0482509 0 0 0 0 -0.0556665 0.0190909 0 0.126483 0.0787495 0 -0.0556665 0.0190909 0 313.712 313.712 1000.75 
80 1 1 0.0754664 0.085071 0 0 0 0 -0.0046256 -0.0863984 0 0.250068 -0.164584 0 -0.0046256 -0.0863984 0 135.283 135.283 1000.32 
81 1 1 0.0100925 0.0472137 0 0 0 0 0.00787974 0.0528664 0 0.0433038 -0.17575 0 0.00787974 0.0528664 0 434.821 434.821 1001.03 
82 1 1 0.0123574 0.0655092 0 0 0 0 0.0176117 0.118735 0 -0.0252258 -0.469319 0 0.0176117 0.118735 0 312.593 312.593 1000.74 
83 1 1 0.0321033 0.0486944 0 0 0 0 -0.035276 0.0237628 0 0.0355098 0.0604971 0 -0.035276 0.0237628 0 394.927 394.927 1000.94 
84 1 1 0.0291519 0.066022 0 0 0 0 -0.0727929 0.0338012 0 0.110216 0.202318 0 -0.0727929 0.0338012 0 304.508 304.508 1000.72 
85 1 1 0.0447248 0.0730981 0 0 0 0 -0.0383198 0.0144791 0 0.0231328 -0.182751 0 -0.0383198 0.0144791 0 216.646 216.646 1000.52 
86 1 1 0.0632285 0.0683515 0 0 0 0 -0.0451812 -0.0309416 0 0.0730568 -0.183114 0 -0.0451812 -0.0309416 0 244.71 244.71 1000.58 
87 1 1 0.0697381 0.0568524 0 0 0 0 -0.0337435 -0.0337384 0 0.187283 0.0125509 0 -0.0337435 -0.0337384 0 318.073 318.073 1000.76 
88 1 1 0.0733504 0.0689964 0 0 0 0 -0.0479158 0.00752558 0 0.128838 -0.164354 0 -0.0479158 0.00752558 0 214.573 214.573 1000.51 
89 1 1 0.0801545 0.0571565 0 0 0 0 -0.0588969 -0.0334137 0 0.113548 -0.0655225 0 -0.0588969 -0.0334137 0 280.447 280.447 1000.67 
90 1 1 0.0822847 0.0696831 0 0 0 0 -0.0681284 -0.0172853 0 0.209948 -0.0966345 0 -0.0681284 -0.0172853 0 201.7 201.7 1000.48 
91 1 1 0.0182718 0.0940406 0 0 0 0 0.102006 0.123089 0 -0.0298748 -0.243112 0 0.102006 0.123089 0 122.981 122.981 1000.29 
92 1 1 0.014922 0.0825334 0 0 0 0 -0.00706164 0.141734 0 -0.0435174 -0.237237 0 -0.00706164 0.141734 0 187.575 187.575 1000.45 
93 1 1 0.0166067 0.0693297 0 0 0 0 -0.0221171 0.118523 0 0.213158 0.0423945 0 -0.0221171 0.118523 0 291.072 291.072 1000.69 
94 1 1 0.0364341 0.0876238 0 0 0 0 0.0502771 0.0354804 0 0.168865 -0.0846017 0 0.0502771 0.0354804 0 135.59 135.59 1000.32 
95 1 1 0.0288819 0.0975822 0 0 0 0 0.0728454 0.109586 0 0.136354 -0.407 0 0.0728454 0.109586 0 51.8767 51.8767 1000.12 
96 1 1 0.0492188 0.093983 0 0 0 0 0.0473924 0.0203223 0 -0.121613 -0.429911 0 0.0473924 0.0203223 0 154.307 154.307 1000.37 
97 1 1 0.0358792 0.0775235 0 0 0 0 -0.0821369 0.0462118 0 0.109988 -0.422976 0 -0.0821369 0.0462118 0 212.877 212.877 1000.51 
98 1 1 0.0522049 0.0776606 0 0 0 0 -0.0605607 0.0751181 0 0.192384 0.0463896 0 -0.0605607 0.0751181 0 200.458 200.458 1000.48 
99 1 1 0.0647675 0.0793659 0 0 0 0 -0.129991 -0.0249676 0 0.0447921 -0.0795258 0 -0.129991 -0.0249676 0 184.546 184.546 1000.44 
100 1 1 0.0608409 0.0929488 0 0 0 0 0.0693315 0.0248139 0 0.24257 -0.461167 0 0.0693315 0.0248139 0 83.0171 83.0171 1000.2 
101 1 1 0.154547 0.0169195 0 0 0 0 -0.0691607 -0.0214941 0 0.101661 -0.0909932 0 -0.0691607 -0.0214941 0 503.825 503.825 1001.2 
102 1 1 0.163826 0.0140101 0 0 0 0 -0.0620149 0.00815473 0 0.042811 0.075193 0 -0.0620149 0.00815473 0 507.186 507.186 1001.2 
103 1 1 0.16631 0.0241937 0 0 0 0 -0.0530432 -0.00842368 0 0.0623723 -0.0579092 0 -0.0530432 -0.00842368 0 413.891 413.891 1000.98 
104 1 1 0.167522 0.00662375 0 0 0 0 -0.0532666 -0.00165971 0 0.0949856 -0.0277656 0 -0.0532666 -0.00165971 0 554.555 554.555 1001.32 
105 1 1 0.17668 0.0122961 0 0 0 0 -0.0558298 -0.0219634 0 0.0847598 -0.04134 0 -0.0558298 -0.0219634 0 519.203 519.203 1001.23 
106 1 1 0.184646 0.00619045 0 0 0 0 -0.0253339 -0.00574805 0 0.037763 0.0508711 0 -0.0253339 -0.00574805 0 549.614 549.614 1001.3 
107 1 1 0.190172 0.0145583 0 0 0 0 -0.0038346 -0.0262625 0 0.0772795 -0.00143597 0 -0.0038346 -0.0262625 0 489.991 489.991 1001.16 
108 1 1 0.198392 0.00659454 0 0 0 0 -0.0101942 0.000477032 0 0.0808647 -0.0237394 0 -0.0101942 0.000477032 0 526.216 526.216 1001.25 
109 1 1 0.200044 0.0174833 0 0 0 0 -0.00691078 0.0217816 0 0.0168348 0.0611546 0 -0.00691078 0.0217816 0 457.687 457.687 1001.09 
110 1 1 0.20719 0.01237 0 0 0 0 -0.0189984 -0.00374855 0 0.0343545 0.020764 0 -0.0189984 -0.00374855 0 487.882 487.882 1001.16 
111 1 1 0.214714 0.00634441 0 0 0 0 -0.00627104 -0.00775796 0 0.033237 -0.00567362 0 -0.00627104 -0.00775796 0 525.519 525.519 1001.25 
112 1 1 0.227213 0.00737165 0 0 0 0 0.0177588 -0.00688498 0 0.0433186 0.00618112 0 0.0177588 -0.00688498 0 510.58 510.58 1001.21 
113 1 1 0.238673 0.00785044 0 0 0 0 0.0250795 -0.00589016 0 -0.0068729 0.0155477 0 0.0250795 -0.00589016 0 510.594 510.594 1001.21 
114 1 1 0.248814 0.00827047 0 0 0 0 0.0106951 0.0136883 0 0.0281963 -0.00975055 0 0.0106951 0.0136883 0 512.308 512.308 1001.22 
115 1 1 0.251069 0.0161483 0 0 0 0 -0.000896339 0.0267529 0 0.0140402 0.0432102 0 -0.000896339 0.0267529 0 475.366 475.366 1001.13 
116 1 1 0.260262 0.00679358 0 0 0 0 -0.0191492 0.00797386 0 0.00824877 0.00565278 0 -0.0191492 0.00797386 0 512.61 512.61 1001.22 
117 1 1 0.26995 0.00954755 0 0 0 0 -0.025344 -0.00954048 0 0.0589356 -0.0226437 0 -0.025344 -0.00954048 0 497.058 497.058 1001.18 
118 1 1 0.280435 0.00728279 0 0 0 0 -0.010831 -0.00479389 0 0.0374315 0.0108488 0 -0.010831 -0.00479389 0 506.024 506.024 1001.2 
119 1 1 0.292547 0.00672855 0 0 0 0 -0.0111891 0.000765628 0 0.0195745 0.00619238 0 -0.0111891 0.000765628 0 494.511 494.511 1001.17 
120 1 1 0.296618 0.0172058 0 0 0 0 0.0105411 -0.0102076 0 0.00603652 0.0137475 0 0.0105411 -0.0102076 0 424.3 424.3 1001.01 
121 1 1 0.303375 0.00918977 0 0 0 0 -0.00256948 -0.00765018 0 0.0125746 -0.0217963 0 -0.00256948 -0.00765018 0 469.674 469.674 1001.11 
122 1 1 0.314377 0.0060839 0 0 0 0 -0.00686619 -0.00192777 0 0.0415486 -0.0129886 0 -0.00686619 -0.00192777 0 491.573 491.573 1001.17 
123 1 1 0.323352 0.0120397 0 0 0 0 0.0111438 0.0177782 0 0.0937424 0.00902139 0 0.0111438 0.0177782 0 462.222 462.222 1001.1 
124 1 1 0.33164 0.00634753 0 0 0 0 -0.0340193 0.00207839 0 -0.00404924 0.0222196 0 -0.0340193 0.00207839 0 488.222 488.222 1001.16 
125 1 1 0.343623 0.00789933 0 0 0 0 -0.0383776 0.00612789 0 0.0307404 -0.0199349 0 -0.0383776 0.00612789 0 444.95 444.95 1001.06 
126 1 1 0.349926 0.015555 0 0 0 0 0.00580718 -0.0103089 0 0.0505093 -0.0105795 0 0.00580718 -0.0103089 0 393.696 393.696 1000.93 
127 1 1 0.355498 0.00689817 0 0 0 0 -0.0248335 -0.0204962 0 0.0412946 -0.00957739 0 -0.0248335 -0.0204962 0 461.872 461.872 1001.1 
128 1 1 0.367922 0.00739497 0 0 0 0 0.00270411 -0.00212539 0 0.0642943 -0.0152856 0 0.00270411 -0.00212539 0 438.101 438.101 1001.04 
129 1 1 0.392999 0.00634192 0 0 0 0 0.00594929 -0.00242321 0 0.0540421 0.00149669 0 0.00594929 -0.00242321 0 443.648 443.648 1001.05 
130 1 1 0.407792 0.00687311 0 0 0 0 0.0137451 0.00623267 0 0.00103268 0.023057 0 0.0137451 0.00623267 0 449.527 449.527 1001.07 
131 1 1 0.419837 0.00731135 0 0 0 0 -0.00556885 -0.0053146 0 -0.0167676 0.00162674 0 -0.00556885 -0.0053146 0 432.866 432.866 1001.03 
132 1 1 0.411862 0.0169212 0 0 0 0 0.0252977 0.0254728 0 -0.0134368 0.0374719 0 0.0252977 0.0254728 0 368.462 368.462 1000.87 
133 1 1 0.429925 0.00879616 0 0 0 0 0.00248261 0.00469228 0 -0.0100612 -0.0207473 0 0.00248261 0.00469228 0 415.538 415.538 1000.99 
134 1 1 0.44094 0.0186233 0 0 0 0 -0.0148805 0.012851 0 0.00600407 -0.0439069 0 -0.0148805 0.012851 0 352.262 352.262 1000.84 
135 1 1 0.440059 0.00699603 0 0 0 0 -0.00304021 -0.00310259 0 0.0182414 0.011192 0 -0.00304021 -0.00310259 0 430.921 430.921 1001.02 
136 1 1 0.449046 0.00961736 0 0 0 0 -0.00327956 -0.00158262 0 0.0622213 -0.0363034 0 -0.00327956 -0.00158262 0 426.539 426.539 1001.01 
137 1 1 0.460551 0.00560598 0 0 0 0 0.0101568 -0.00854954 0 0.00148969 0.0229102 0 0.0101568 -0.00854954 0 451.461 451.461 1001.07 
138 1 1 0.47903 0.00642727 0 0 0 0 0.024742 -0.00120932 0 0.00162609 0.0228671 0 0.024742 -0.00120932 0 433.424 433.424 1001.03 
139 1 1 0.491573 0.00637149 0 0 0 0 -0.000610101 0.00617481 0 0.00765975 0.000173649 0 -0.000610101 0.00617481 0 440.752 440.752 1001.05 
140 1 1 0.150114 0.0357781 0 0 0 0 -0.0678686 0.00862305 0 0.194383 -0.0148024 0 -0.0678686 0.00862305 0 347.202 347.202 1000.82 
141 1 1 0.156771 0.0254572 0 0 0 0 -0.0534456 -0.00927832 0 0.0924861 0.12909 0 -0.0534456 -0.00927832 0 424.4 424.4 1001.01 
142 1 1 0.175556 0.0455429 0 0 0 0 -0.0673402 -0.0279011 0 0.0305937 -0.0111076 0 -0.0673402 -0.0279011 0 230.267 230.267 1000.55 
143 1 1 0.1744 0.0298397 0 0 0 0 -0.0180737 -0.0382782 0 0.129033 0.0272813 0 -0.0180737 -0.0382782 0 357.303 357.303 1000.85 
144 1 1 0.183832 0.0301661 0 0 0 0 -0.0773305 -0.0225734 0 0.0310921 0.0664076 0 -0.0773305 -0.0225734 0 377.171 377.171 1000.9 
145 1 1 0.175778 0.0191603 0 0 0 0 -0.0434497 -0.0237062 0 0.0308168 0.0857769 0 -0.0434497 -0.0237062 0 475.412 475.412 1001.13 
146 1 1 0.192923 0.0371538 0 0 0 0 -0.0578311 -0.0323751 0 0.122042 0.0278762 0 -0.0578311 -0.0323751 0 278.455 278.455 1000.66 
147 1 1 0.187039 0.0215344 0 0 0 0 -0.046135 -0.0484144 0 0.0177525 -0.0470401 0 -0.046135 -0.0484144 0 431.45 431.45 1001.02 
148 1 1 0.196401 0.0269992 0 0 0 0 -0.0613022 -0.022084 0 -0.0236339 0.0231763 0 -0.0613022 -0.022084 0 379.226 379.226 1000.9 
149 1 1 0.211052 0.0215963 0 0 0 0 0.00968162 -0.0104474 0 0.0145342 -0.0329255 0 0.00968162 -0.0104474 0 419.843 419.843 1001 
150 1 1 0.229225 0.0336541 0 0 0 0 -0.0472674 -0.000928999 0 0.00211228 0.0147599 0 -0.0472674 -0.000928999 0 323.011 323.011 1000.77 
151 1 1 0.218937 0.0162727 0 0 0 0 -0.0170249 -0.0202971 0 0.0228454 -0.00836852 0 -0.0170249 -0.0202971 0 468.188 468.188 1001.11 
152 1 1 0.221366 0.0264744 0 0 0 0 -0.0141957 -0.0132617 0 0.00773518 -0.0134222 0 -0.0141957 -0.0132617 0 359.606 359.606 1000.85 
153 1 1 0.228065 0.016262 0 0 0 0 -0.00953365 -0.0123705 0 0.000100922 0.0496362 0 -0.00953365 -0.0123705 0 459.231 459.231 1001.09 
154 1 1 0.261601 0.0172657 0 0 0 0 -0.0104696 0.0147853 0 0.00881365 -0.0309888 0 -0.0104696 0.0147853 0 443.844 443.844 1001.05 
155 1 1 0.277896 0.0163465 0 0 0 0 -0.00497365 -0.0166287 0 -0.0186202 0.0297841 0 -0.00497365 -0.0166287 0 458.842 458.842 1001.09 
156 1 1 0.267948 0.0216058 0 0 0 0 0.0327243 -0.00449419 0 0.0290136 -0.0511355 0 0.0327243 -0.00449419 0 415.135 415.135 1000.99 
157 1 1 0.288177 0.0166515 0 0 0 0 0.0125139 0.00232536 0 0.0234613 -0.0212818 0 0.0125139 0.00232536 0 437 437 1001.04 
158 1 1 0.280242 0.0256541 0 0 0 0 0.0206541 -0.0280065 0 0.0651949 0.00225139 0 0.0206541 -0.0280065 0 372.011 372.011 1000.88 
159 1 1 0.302667 0.0257999 0 0 0 0 0.0112065 0.0039235 0 0.0666871 -0.0564198 0 0.0112065 0.0039235 0 354.822 354.822 1000.84 
160 1 1 0.307785 0.0172328 0 0 0 0 0.00908151 0.0107864 0 0.0657849 -0.00285051 0 0.00908151 0.0107864 0 410.09 410.09 1000.97 
161 1 1 0.316258 0.0176065 0 0 0 0 0.00408166 -0.0175453 0 0.0208838 -0.0360613 0 0.00408166 -0.0175453 0 423.852 423.852 1001.01 
162 1 1 0.329085 0.0212442 0 0 0 0 0.0144023 0.030978 0 0.0463692 0.0536442 0 0.0144023 0.030978 0 387.328 387.328 1000.92 
163 1 1 0.335523 0.0157965 0 0 0 0 0.00869541 -0.000496186 0 0.0710382 -0.0252808 0 0.00869541 -0.000496186 0 417.639 417.639 1000.99 
164 1 1 0.353877 0.0237196 0 0 0 0 -0.0035064 0.019728 0 0.0990587 -0.00497986 0 -0.0035064 0.019728 0 333.72 333.72 1000.79 
165 1 1 0.379825 0.00731034 0 0 0 0 0.0103005 -0.00274308 0 0.0996901 0.00580517 0 0.0103005 -0.00274308 0 456.547 456.547 1001.08 
166 1 1 0.362045 0.0151404 0 0 0 0 -0.0283285 -0.00827372 0 0.0683735 -0.0148195 0 -0.0283285 -0.00827372 0 406.335 406.335 1000.96 
167 1 1 0.376333 0.0237964 0 0 0 0 -0.00992699 -0.0171678 0 0.0408126 0.0198689 0 -0.00992699 -0.0171678 0 347.874 347.874 1000.83 
168 1 1 0.401532 0.0136531 0 0 0 0 0.0326033 -0.0128346 0 -0.0022619 -0.01035 0 0.0326033 -0.0128346 0 400.578 400.578 1000.95 
169 1 1 0.385562 0.0271643 0 0 0 0 -0.0244366 -0.00493762 0 0.0117157 -0.0024241 0 -0.0244366 -0.00493762 0 302.595 302.595 1000.72 
170 1 1 0.386961 0.0150197 0 0 0 0 0.0119942 0.00638766 0 -0.0120723 0.0406147 0 0.0119942 0.00638766 0 391.312 391.312 1000.93 
171 1 1 0.393821 0.019379 0 0 0 0 0.00349434 -0.0219302 0 -0.00518196 0.0358649 0 0.00349434 -0.0219302 0 352.003 352.003 1000.84 
172 1 1 0.4209 0.0169964 0 0 0 0 0.0128506 0.00664072 0 -0.00396773 -0.0337572 0 0.0128506 0.00664072 0 375.147 375.147 1000.89 
173 1 1 0.432341 0.0178229 0 0 0 0 -0.00670836 0.00065695 0 -0.0270147 -0.0267027 0 -0.00670836 0.00065695 0 370.82 370.82 1000.88 
174 1 1 0.459685 0.015185 0 0 0 0 0.020182 -0.00216626 0 -0.00150168 0.054762 0 0.020182 -0.00216626 0 389.488 389.488 1000.92 
175 1 1 0.463328 0.0230126 0 0 0 0 -0.0158802 0.0155637 0 0.0109755 -0.017191 0 -0.0158802 0.0155637 0 330.771 330.771 1000.79 
176 1 1 0.470551 0.0113165 0 0 0 0 0.0127599 -0.00532358 0 -0.0198043 -0.053809 0 0.0127599 -0.00532358 0 417.41 417.41 1000.99 
177 1 1 0.483029 0.0163465 0 0 0 0 -0.0043866 0.0268845 0 -0.0175721 -0.042165 0 -0.0043866 0.0268845 0 373.656 373.656 1000.89 
178 1 1 0.490823 0.0174923 0 0 0 0 -0.0013078 -0.00986889 0 -0.000205019 -0.00700003 0 -0.0013078 -0.00986889 0 367.713 367.713 1000.87 
179 1 1 0.138673 0.0448248 0 0 0 0 -0.0910568 0.0311848 0 0.104845 0.0692003 0 -0.0910568 0.0311848 0 246.244 246.244 1000.59 
180 1 1 0.162095 0.0346567 0 0 0 0 -0.0451274 -0.028283 0 -0.0321051 0.0455699 0 -0.0451274 -0.028283 0 338.748 338.748 1000.8 
181 1 1 0.159403 0.0435833 0 0 0 0 -0.0580493 -0.0126954 0 0.0914315 0.0510447 0 -0.0580493 -0.0126954 0 241.553 241.553 1000.57 
182 1 1 0.171287 0.0382577 0 0 0 0 -0.0944765 0.00854299 0 0.0900217 0.0343015 0 -0.0944765 0.00854299 0 280.264 280.264 1000.67 
183 1 1 0.175915 0.052255 0 0 0 0 -0.0509094 -0.0268814 0 0.0388233 0.112005 0 -0.0509094 -0.0268814 0 176.483 176.483 1000.42 
184 1 1 0.160908 0.050751 0 0 0 0 -0.0680168 -0.0094665 0 0.202194 0.111627 0 -0.0680168 -0.0094665 0 164.354 164.354 1000.39 
185 1 1 0.185693 0.0403872 0 0 0 0 -0.0565942 -0.0425872 0 0.00466011 0.0777601 0 -0.0565942 -0.0425872 0 258.568 258.568 1000.61 
186 1 1 0.204104 0.0297781 0 0 0 0 -0.0503365 -0.0248795 0 0.0181452 -0.00343255 0 -0.0503365 -0.0248795 0 345.235 345.235 1000.82 
187 1 1 0.214721 0.0322407 0 0 0 0 -0.0692522 -0.00769054 0 0.0475385 0.0325906 0 -0.0692522 -0.00769054 0 310.432 310.432 1000.74 
188 1 1 0.222364 0.0409666 0 0 0 0 -0.0280949 -0.0270805 0 -0.0118146 -0.0409767 0 -0.0280949 -0.0270805 0 263.441 263.441 1000.63 
189 1 1 0.241274 0.0334931 0 0 0 0 -0.0327126 -0.00756007 0 -0.0273286 0.0126152 0 -0.0327126 -0.00756007 0 325.769 325.769 1000.77 
190 1 1 0.237932 0.0173784 0 0 0 0 -0.0232684 0.00104927 0 0.107294 -0.0734063 0 -0.0232684 0.00104927 0 458.225 458.225 1001.09 
191 1 1 0.250413 0.0352338 0 0 0 0 -0.0435959 -0.00948374 0 0.0169025 -0.0213506 0 -0.0435959 -0.00948374 0 314.824 314.824 1000.75 
192 1 1 0.245406 0.0233874 0 0 0 0 -0.0288827 -0.0124257 0 -0.00253164 0.0538177 0 -0.0288827 -0.0124257 0 422.235 422.235 1001 
193 1 1 0.271945 0.0304 0 0 0 0 0.00193648 -0.00480075 0 0.0263957 0.00408881 0 0.00193648 -0.00480075 0 335.156 335.156 1000.8 
194 1 1 0.257524 0.0438675 0 0 0 0 -0.00371648 -0.0276097 0 -0.0189115 -0.0185011 0 -0.00371648 -0.0276097 0 234.913 234.913 1000.56 
195 1 1 0.281777 0.0366803 0 0 0 0 -0.0100982 -0.0128553 0 0.0634277 -0.0321114 0 -0.0100982 -0.0128553 0 286.529 286.529 1000.68 
196 1 1 0.28971 0.0272259 0 0 0 0 0.0237411 -0.00214599 0 0.0767459 0.00108891 0 0.0237411 -0.00214599 0 353.464 353.464 1000.84 
197 1 1 0.298055 0.0328351 0 0 0 0 0.0305526 0.00525409 0 0.081097 0.0518556 0 0.0305526 0.00525409 0 299.562 299.562 1000.71 
198 1 1 0.31122 0.0309004 0 0 0 0 0.0286327 -0.00632325 0 0.0163261 -0.0101842 0 0.0286327 -0.00632325 0 321.426 321.426 1000.76 
199 1 1 0.323669 0.0337046 0 0 0 0 0.00890668 0.0210191 0 0.0433987 -0.00608295 0 0.00890668 0.0210191 0 297.263 297.263 1000.71 
200 1 1 0.319703 0.0263387 0 0 0 0 0.0187857 -0.00548378 0 0.0840913 -0.0400332 0 0.0187857 -0.00548378 0 357.714 357.714 1000.85 
201 1 1 0.342378 0.0212433 0 0 0 0 0.0167641 0.00716854 0 0.109457 -8.76984e-05 0 0.0167641 0.00716854 0 369.022 369.022 1000.88 
202 1 1 0.331215 0.037926 0 0 0 0 -0.00789451 0.0299666 0 0.0625272 0.0370126 0 -0.00789451 0.0299666 0 235.224 235.224 1000.56 
203 1 1 0.346639 0.0323058 0 0 0 0 -0.0141214 0.0135855 0 0.0227681 0.00581777 0 -0.0141214 0.0135855 0 261.312 261.312 1000.62 
204 1 1 0.354934 0.0346586 0 0 0 0 -0.0107571 0.0218696 0 0.0237297 0.0023524 0 -0.0107571 0.0218696 0 249.021 249.021 1000.59 
205 1 1 0.375404 0.0157498 0 0 0 0 -0.00538021 -0.0195424 0 0.00222395 -0.00275384 0 -0.00538021 -0.0195424 0 416.318 416.318 1000.99 
206 1 1 0.365079 0.0223831 0 0 0 0 -0.00400978 -0.0301328 0 0.0537993 0.0272326 0 -0.00400978 -0.0301328 0 358.368 358.368 1000.85 
207 1 1 0.402739 0.0336565 0 0 0 0 -0.0517995 -0.022907 0 0.0281418 0.0166353 0 -0.0517995 -0.022907 0 255.163 255.163 1000.61 
208 1 1 0.421592 0.0257115 0 0 0 0 -0.00377868 0.0131545 0 0.042003 0.0330275 0 -0.00377868 0.0131545 0 303.395 303.395 1000.72 
209 1 1 0.403156 0.0238056 0 0 0 0 -0.00692344 -0.0114878 0 0.0269005 0.0428482 0 -0.00692344 -0.0114878 0 325.493 325.493 1000.77 
210 1 1 0.43183 0.0276828 0 0 0 0 -0.00612529 0.0181008 0 -0.00947732 -0.0133256 0 -0.00612529 0.0181008 0 289.049 289.049 1000.69 
211 1 1 0.412681 0.0289666 0 0 0 0 -0.0056502 0.0248304 0 -0.080183 -0.0374065 0 -0.0056502 0.0248304 0 273.503 273.503 1000.65 
212 1 1 0.44405 0.0282184 0 0 0 0 -0.00663857 -0.00113453 0 -0.00736128 -0.0227062 0 -0.00663857 -0.00113453 0 299.897 299.897 1000.71 
213 1 1 0.450984 0.0189997 0 0 0 0 -0.00184785 -0.0452349 0 -0.0392972 0.0602988 0 -0.00184785 -0.0452349 0 366.553 366.553 1000.87 
214 1 1 0.466348 0.0313235 0 0 0 0 -0.0191282 -0.00562142 0 0.023177 0.0455235 0 -0.0191282 -0.00562142 0 261.287 261.287 1000.62 
215 1 1 0.479112 0.0277735 0 0 0 0 -0.00866134 -0.000900762 0 0.0173666 -0.104606 0 -0.00866134 -0.000900762 0 302.596 302.596 1000.72 
216 1 1 0.473372 0.0189411 0 0 0 0 -0.0181284 -0.0106372 0 -0.0190962 0.0536869 0 -0.0181284 -0.0106372 0 370.875 370.875 1000.88 
217 1 1 0.489348 0.0274545 0 0 0 0 0.000187319 0.00173758 0 0.0458905 0.0336786 0 0.000187319 0.00173758 0 278.596 278.596 1000.66 
218 1 1 0.133405 0.0582642 0 0 0 0 -0.0425931 0.0104439 0 0.212078 0.0660277 0 -0.0425931 0.0104439 0 175.671 175.671 1000.42 
219 1 1 0.109845 0.0568134 0 0 0 0 -0.0568757 0.04473 0 0.258151 0.0109823 0 -0.0568757 0.04473 0 284.408 284.408 1000.68 
220 1 1 0.128655 0.0512853 0 0 0 0 -0.0782469 0.00400858 0 0.209166 -0.00767957 0 -0.0782469 0.00400858 0 262.872 262.872 1000.62 
221 1 1 0.147467 0.0540016 0 0 0 0 -0.0832986 -0.00430393 0 0.12254 0.00626533 0 -0.0832986 -0.00430393 0 155.465 155.465 1000.37 
222 1 1 0.147205 0.0445406 0 0 0 0 -0.059476 -0.0234527 0 0.109705 0.0807576 0 -0.059476 -0.0234527 0 235.472 235.472 1000.56 
223 1 1 0.199428 0.0462508 0 0 0 0 -0.0499419 -0.0178586 0 -0.0572561 0.0517986 0 -0.0499419 -0.0178586 0 221.509 221.509 1000.53 
224 1 1 0.20577 0.0388678 0 0 0 0 -0.0566826 -0.0174607 0 0.0122704 0.0178856 0 -0.0566826 -0.0174607 0 265.471 265.471 1000.63 
225 1 1 0.215098 0.0450383 0 0 0 0 -0.0292904 -0.0410278 0 -0.0618036 0.015479 0 -0.0292904 -0.0410278 0 208.405 208.405 1000.5 
226 1 1 0.223178 0.0521453 0 0 0 0 -0.062793 -0.0262666 0 -0.0482629 0.0371091 0 -0.062793 -0.0262666 0 148.982 148.982 1000.35 
227 1 1 0.233219 0.0261324 0 0 0 0 -0.0251874 0.00558869 0 0.0447645 -0.045651 0 -0.0251874 0.00558869 0 387.916 387.916 1000.92 
228 1 1 0.233609 0.0433633 0 0 0 0 -0.0200753 0.00535957 0 -0.0155436 -0.024035 0 -0.0200753 0.00535957 0 213.732 213.732 1000.51 
229 1 1 0.244248 0.0442886 0 0 0 0 -0.0136181 -0.00651507 0 0.0459514 -0.0103865 0 -0.0136181 -0.00651507 0 243.081 243.081 1000.58 
230 1 1 0.256105 0.0264172 0 0 0 0 0.00405447 0.00688925 0 0.0589648 -0.000172552 0 0.00405447 0.00688925 0 399.164 399.164 1000.95 