ITEM: TIMESTEP
111000
ITEM: NUMBER OF ATOMS
754
ITEM: BOX BOUNDS ff ff pp
-0.021 0.521
-0.021 0.5
-0.001 0.001
ITEM: ATOMS id type type x y z ix iy iz vx vy vz fx fy fz vx vy vz p p rho 
1 1 1 0.00716374 0.00605633 0 0 0 0 -0.00892527 0.00464128 0 0.0168995 0.0147526 0 -0.00892527 0.00464128 0 632.082 632.082 1001.5 
2 1 1 0.0204847 0.0067624 0 0 0 0 -0.0322633 0.00224609 0 0.0253512 0.0299039 0 -0.0322633 0.00224609 0 646.025 646.025 1001.53 
3 1 1 0.0457628 0.00782163 0 0 0 0 -0.0493912 0.0122532 0 -0.00129795 -0.0119377 0 -0.0493912 0.0122532 0 650.906 650.906 1001.54 
4 1 1 0.0566005 0.0067809 0 0 0 0 -0.0681443 0.00173667 0 0.0548474 0.0119251 0 -0.0681443 0.00173667 0 652.012 652.012 1001.55 
5 1 1 0.0740596 0.00803616 0 0 0 0 -0.102879 -0.0124719 0 -0.052257 -0.10839 0 -0.102879 -0.0124719 0 644.14 644.14 1001.53 
6 1 1 0.0834121 0.00912395 0 0 0 0 -0.112397 0.0250351 0 0.00224437 -0.0114174 0 -0.112397 0.0250351 0 628.757 628.757 1001.49 
7 1 1 0.112004 0.0069855 0 0 0 0 -0.140547 0.00216427 0 0.0674932 -0.0146609 0 -0.140547 0.00216427 0 636.374 636.374 1001.51 
8 1 1 0.117895 0.0131804 0 0 0 0 -0.165991 0.0169827 0 0.0405792 0.024223 0 -0.165991 0.0169827 0 595.943 595.943 1001.41 
9 1 1 0.147378 0.0062526 0 0 0 0 -0.110642 -0.00851625 0 0.0263004 -0.0505652 0 -0.110642 -0.00851625 0 609.367 609.367 1001.44 
10 1 1 0.164749 0.00743108 0 0 0 0 -0.143042 -0.00550298 0 0.0381448 -0.0625613 0 -0.143042 -0.00550298 0 589.307 589.307 1001.4 
11 1 1 0.0194886 0.0222679 0 0 0 0 -0.0119384 0.00607077 0 -0.0118122 0.0510846 0 -0.0119384 0.00607077 0 562.612 562.612 1001.33 
12 1 1 0.0334713 0.00656457 0 0 0 0 -0.0346492 -0.00343911 0 -0.0109231 -0.00206659 0 -0.0346492 -0.00343911 0 658.756 658.756 1001.56 
13 1 1 0.0486733 0.0186782 0 0 0 0 -0.0680222 0.0290715 0 0.0339744 -0.0822902 0 -0.0680222 0.0290715 0 598.397 598.397 1001.42 
14 1 1 0.0656688 0.0103254 0 0 0 0 -0.110159 0.0223971 0 0.0540928 0.126714 0 -0.110159 0.0223971 0 643.766 643.766 1001.53 
15 1 1 0.0777678 0.0197042 0 0 0 0 -0.151683 -0.00405581 0 0.0829588 0.0127091 0 -0.151683 -0.00405581 0 573.404 573.404 1001.36 
16 1 1 0.101728 0.00933488 0 0 0 0 -0.120116 0.0131439 0 0.0766416 -0.0748475 0 -0.120116 0.0131439 0 630.374 630.374 1001.49 
17 1 1 0.112799 0.0224501 0 0 0 0 -0.149087 0.013593 0 0.0679968 0.031319 0 -0.149087 0.013593 0 541.366 541.366 1001.28 
18 1 1 0.135425 0.00995818 0 0 0 0 -0.144271 -0.0188435 0 0.141341 0.0184052 0 -0.144271 -0.0188435 0 603.635 603.635 1001.43 
19 1 1 0.156208 0.0112193 0 0 0 0 -0.139581 0.0307494 0 0.020742 0.10476 0 -0.139581 0.0307494 0 576.369 576.369 1001.37 
20 1 1 0.150991 0.0209422 0 0 0 0 -0.170884 -0.000461437 0 0.0899975 -0.0651634 0 -0.170884 -0.000461437 0 527.442 527.442 1001.25 
21 1 1 0.0243275 0.0288606 0 0 0 0 -0.0492858 0.0158142 0 -0.0235321 0.00383812 0 -0.0492858 0.0158142 0 522.157 522.157 1001.24 
22 1 1 0.026732 0.0148458 0 0 0 0 -0.0143818 -0.00554981 0 0.0267808 -0.0201451 0 -0.0143818 -0.00554981 0 614.821 614.821 1001.46 
23 1 1 0.0391851 0.0153685 0 0 0 0 -0.0478554 0.01545 0 0.0098524 -0.0158234 0 -0.0478554 0.01545 0 618.24 618.24 1001.47 
24 1 1 0.064354 0.0445793 0 0 0 0 -0.124154 0.0557798 0 -0.0410764 -0.0450572 0 -0.124154 0.0557798 0 378.716 378.716 1000.9 
25 1 1 0.0626142 0.0232923 0 0 0 0 -0.107808 0.054264 0 0.0450086 0.0122044 0 -0.107808 0.054264 0 557.027 557.027 1001.32 
26 1 1 0.0924764 0.00825689 0 0 0 0 -0.115832 -0.00953739 0 0.0276407 -0.0814074 0 -0.115832 -0.00953739 0 629.81 629.81 1001.49 
27 1 1 0.105546 0.0182644 0 0 0 0 -0.158434 0.0137719 0 0.0307379 -0.0423839 0 -0.158434 0.0137719 0 577.017 577.017 1001.37 
28 1 1 0.126962 0.00684326 0 0 0 0 -0.156422 0.00193929 0 0.0336698 -0.0201411 0 -0.156422 0.00193929 0 612.981 612.981 1001.45 
29 1 1 0.143933 0.0154474 0 0 0 0 -0.141355 -0.00935296 0 0.0277031 0.0407091 0 -0.141355 -0.00935296 0 570.637 570.637 1001.35 
30 1 1 0.158117 0.0259264 0 0 0 0 -0.16982 -0.0163366 0 0.0924483 0.074268 0 -0.16982 -0.0163366 0 487.384 487.384 1001.16 
31 1 1 0.0148061 0.0142911 0 0 0 0 -0.0157143 0.0216091 0 0.0319549 -0.0563816 0 -0.0157143 0.0216091 0 606.579 606.579 1001.44 
32 1 1 0.0332604 0.021186 0 0 0 0 -0.0334199 0.0355398 0 -0.0211288 0.00517043 0 -0.0334199 0.0355398 0 574.399 574.399 1001.36 
33 1 1 0.0625778 0.0348328 0 0 0 0 -0.116916 0.0517263 0 -0.0500987 -0.00912017 0 -0.116916 0.0517263 0 460.807 460.807 1001.09 
34 1 1 0.07027 0.0205041 0 0 0 0 -0.125954 0.000595466 0 0.0869581 -0.0521026 0 -0.125954 0.000595466 0 574.47 574.47 1001.36 
35 1 1 0.0960675 0.0188963 0 0 0 0 -0.146544 0.0241941 0 0.0306258 0.0839108 0 -0.146544 0.0241941 0 566.862 566.862 1001.34 
36 1 1 0.103802 0.0296333 0 0 0 0 -0.175316 -0.0111822 0 0.164493 -0.122307 0 -0.175316 -0.0111822 0 491.803 491.803 1001.17 
37 1 1 0.12428 0.0185725 0 0 0 0 -0.137699 -0.0071671 0 0.109122 -0.0869634 0 -0.137699 -0.0071671 0 555.389 555.389 1001.32 
38 1 1 0.134156 0.019417 0 0 0 0 -0.153641 -0.0259146 0 0.103294 -0.00983901 0 -0.153641 -0.0259146 0 549.039 549.039 1001.3 
39 1 1 0.150716 0.0339308 0 0 0 0 -0.154415 -0.021265 0 -0.00479181 -0.0744965 0 -0.154415 -0.021265 0 410.621 410.621 1000.97 
40 1 1 0.127696 0.0460872 0 0 0 0 -0.198984 -0.0479544 0 0.16008 0.163303 0 -0.198984 -0.0479544 0 353.679 353.679 1000.84 
41 1 1 0.00788438 0.0196224 0 0 0 0 0.00548088 0.0221359 0 0.00516784 -0.0706498 0 0.00548088 0.0221359 0 560.803 560.803 1001.33 
42 1 1 0.032506 0.0520967 0 0 0 0 -0.0898677 0.112376 0 -0.0566373 -0.0382429 0 -0.0898677 0.112376 0 367.773 367.773 1000.87 
43 1 1 0.0445031 0.026818 0 0 0 0 -0.0827883 0.0395931 0 -0.012528 -0.0384414 0 -0.0827883 0.0395931 0 534.642 534.642 1001.27 
44 1 1 0.0556078 0.0513578 0 0 0 0 -0.117929 0.103986 0 -0.0186526 0.135704 0 -0.117929 0.103986 0 331.169 331.169 1000.79 
45 1 1 0.0785545 0.0321513 0 0 0 0 -0.140731 0.00730613 0 -0.00655506 -0.00460932 0 -0.140731 0.00730613 0 502.607 502.607 1001.19 
46 1 1 0.0951952 0.0302049 0 0 0 0 -0.216427 0.0922443 0 0.0336715 0.043527 0 -0.216427 0.0922443 0 507.12 507.12 1001.2 
47 1 1 0.119706 0.0289553 0 0 0 0 -0.179825 0.00093886 0 0.0526161 -0.0243741 0 -0.179825 0.00093886 0 472.422 472.422 1001.12 
48 1 1 0.142948 0.0268678 0 0 0 0 -0.208032 -0.00472099 0 -0.0353815 0.0286178 0 -0.208032 -0.00472099 0 478.029 478.029 1001.13 
49 1 1 0.141511 0.0386767 0 0 0 0 -0.129761 -0.02784 0 0.174673 0.0518848 0 -0.129761 -0.02784 0 380.832 380.832 1000.9 
50 1 1 0.118139 0.0577407 0 0 0 0 -0.271285 -0.0173381 0 0.056838 0.146351 0 -0.271285 -0.0173381 0 261.269 261.269 1000.62 
51 1 1 0.010068 0.0293308 0 0 0 0 -0.0344687 0.0478623 0 0.0509147 -0.0589646 0 -0.0344687 0.0478623 0 478.784 478.784 1001.14 
52 1 1 0.0349037 0.0312282 0 0 0 0 -0.0824316 0.0576721 0 0.00710297 0.0363693 0 -0.0824316 0.0576721 0 499.564 499.564 1001.19 
53 1 1 0.0546164 0.030705 0 0 0 0 -0.0992737 0.0749374 0 -0.0820704 -0.00567368 0 -0.0992737 0.0749374 0 500.301 500.301 1001.19 
54 1 1 0.0714414 0.0334815 0 0 0 0 -0.113334 0.0559849 0 0.0313143 0.00704699 0 -0.113334 0.0559849 0 478.443 478.443 1001.14 
55 1 1 0.0796321 0.0449572 0 0 0 0 -0.202075 0.0763527 0 0.0336846 -0.059543 0 -0.202075 0.0763527 0 378.221 378.221 1000.9 
56 1 1 0.0933339 0.0456663 0 0 0 0 -0.204684 0.120389 0 0.137701 -0.0493881 0 -0.204684 0.120389 0 353.896 353.896 1000.84 
57 1 1 0.112483 0.0356239 0 0 0 0 -0.180781 0.0363474 0 0.061926 -0.0263717 0 -0.180781 0.0363474 0 415.261 415.261 1000.99 
58 1 1 0.105326 0.0486704 0 0 0 0 -0.231456 0.0204215 0 0.127937 -0.0906573 0 -0.231456 0.0204215 0 318.332 318.332 1000.76 
59 1 1 0.133902 0.0348974 0 0 0 0 -0.192985 0.0098803 0 0.0346262 0.107033 0 -0.192985 0.0098803 0 419.393 419.393 1001 
60 1 1 0.138621 0.0483256 0 0 0 0 -0.195934 -0.0375345 0 -0.156485 0.0925838 0 -0.195934 -0.0375345 0 341.658 341.658 1000.81 
61 1 1 0.0444723 0.0363171 0 0 0 0 -0.100325 0.0546575 0 0.081894 -0.0264036 0 -0.100325 0.0546575 0 462.88 462.88 1001.1 
62 1 1 0.0173636 0.0364572 0 0 0 0 -0.026144 0.0302769 0 0.151279 -0.0720141 0 -0.026144 0.0302769 0 452.236 452.236 1001.07 
63 1 1 0.0563378 0.0174586 0 0 0 0 -0.0971144 0.0386051 0 0.0202377 -0.0913338 0 -0.0971144 0.0386051 0 603.74 603.74 1001.43 
64 1 1 0.0456614 0.051375 0 0 0 0 -0.0909324 0.0599852 0 0.0599237 0.104343 0 -0.0909324 0.0599852 0 343.806 343.806 1000.82 
65 1 1 0.0717918 0.0480843 0 0 0 0 -0.182364 0.0996128 0 0.111853 0.0441079 0 -0.182364 0.0996128 0 356.355 356.355 1000.85 
66 1 1 0.0864769 0.0189846 0 0 0 0 -0.104835 -0.0213069 0 0.100651 -0.0100482 0 -0.104835 -0.0213069 0 572.536 572.536 1001.36 
67 1 1 0.102658 0.0393041 0 0 0 0 -0.199765 -0.0587399 0 0.0340622 0.0678335 0 -0.199765 -0.0587399 0 395.176 395.176 1000.94 
68 1 1 0.122442 0.0394081 0 0 0 0 -0.18869 -0.0128187 0 0.11432 -0.0534563 0 -0.18869 -0.0128187 0 378.829 378.829 1000.9 
69 1 1 0.130101 0.0282296 0 0 0 0 -0.170573 -0.00276319 0 0.0539691 -0.0638354 0 -0.170573 -0.00276319 0 473.999 473.999 1001.12 
70 1 1 0.107556 0.069208 0 0 0 0 -0.288078 0.0637633 0 0.428335 0.0312575 0 -0.288078 0.0637633 0 192.203 192.203 1000.46 
71 1 1 0.0231414 0.0461752 0 0 0 0 -0.093267 0.0648935 0 -0.0932829 0.0829034 0 -0.093267 0.0648935 0 421.12 421.12 1001 
72 1 1 0.0292802 0.0661695 0 0 0 0 -0.0321584 0.192297 0 -0.125903 -0.206047 0 -0.0321584 0.192297 0 262.402 262.402 1000.62 
73 1 1 0.0293643 0.0388699 0 0 0 0 -0.0637639 0.0807509 0 -0.03207 0.0573741 0 -0.0637639 0.0807509 0 452.628 452.628 1001.07 
74 1 1 0.0526144 0.042093 0 0 0 0 -0.121367 0.0749937 0 0.0360637 -0.0766293 0 -0.121367 0.0749937 0 407.223 407.223 1000.97 
75 1 1 0.0653875 0.0571619 0 0 0 0 -0.168515 0.140671 0 0.0621971 -0.112067 0 -0.168515 0.140671 0 270.207 270.207 1000.64 
76 1 1 0.0871921 0.0295886 0 0 0 0 -0.168206 0.0206292 0 0.02234 -0.0820308 0 -0.168206 0.0206292 0 527.778 527.778 1001.25 
77 1 1 0.0875834 0.0414223 0 0 0 0 -0.203289 0.0276828 0 0.0882918 -0.16802 0 -0.203289 0.0276828 0 395.397 395.397 1000.94 
78 1 1 0.107714 0.0576265 0 0 0 0 -0.262148 0.032429 0 0.145268 0.0969431 0 -0.262148 0.032429 0 255.832 255.832 1000.61 
79 1 1 0.115229 0.0464978 0 0 0 0 -0.283609 0.0255323 0 0.084487 0.0460761 0 -0.283609 0.0255323 0 317.63 317.63 1000.75 
80 1 1 0.0898944 0.0818765 0 0 0 0 -0.21779 0.16186 0 -0.0247371 -0.183882 0 -0.21779 0.16186 0 96.5907 96.5907 1000.23 
81 1 1 0.00975295 0.0400255 0 0 0 0 0.0371485 0.0759744 0 0.0249989 0.0284794 0 0.0371485 0.0759744 0 392.021 392.021 1000.93 
82 1 1 0.0119038 0.0493922 0 0 0 0 -0.0515895 0.133511 0 0.14113 0.0223801 0 -0.0515895 0.133511 0 354.707 354.707 1000.84 
83 1 1 0.0388392 0.0444264 0 0 0 0 -0.100108 0.0627045 0 -0.0290498 -0.0376122 0 -0.100108 0.0627045 0 394.229 394.229 1000.94 
84 1 1 0.0385485 0.0611003 0 0 0 0 -0.11522 0.115304 0 0.0729933 -0.115638 0 -0.11522 0.115304 0 304.909 304.909 1000.72 
85 1 1 0.0565029 0.0637699 0 0 0 0 -0.15351 0.118588 0 -0.0321104 -0.0927857 0 -0.15351 0.118588 0 272.732 272.732 1000.65 
86 1 1 0.0736684 0.0633022 0 0 0 0 -0.172013 0.0941436 0 0.116795 -0.0335877 0 -0.172013 0.0941436 0 228.613 228.613 1000.54 
87 1 1 0.0812699 0.0558875 0 0 0 0 -0.171714 0.0663393 0 0.0796701 -0.101039 0 -0.171714 0.0663393 0 294.183 294.183 1000.7 
88 1 1 0.087715 0.0631348 0 0 0 0 -0.204297 0.143739 0 0.0529486 -0.139215 0 -0.204297 0.143739 0 242.677 242.677 1000.58 
89 1 1 0.0952013 0.0546605 0 0 0 0 -0.245337 0.0106968 0 0.0332536 0.0886378 0 -0.245337 0.0106968 0 298.339 298.339 1000.71 
90 1 1 0.0973052 0.0663093 0 0 0 0 -0.227031 0.118383 0 0.0879756 -0.0791163 0 -0.227031 0.118383 0 194.538 194.538 1000.46 
91 1 1 0.0152929 0.0771168 0 0 0 0 -0.0139691 0.246763 0 0.44941 0.129863 0 -0.0139691 0.246763 0 675.947 675.947 1001.6 
92 1 1 0.0132821 0.0605548 0 0 0 0 0.0543578 0.122759 0 -0.0357436 0.376971 0 0.0543578 0.122759 0 353.715 353.715 1000.84 
93 1 1 0.0218953 0.0580925 0 0 0 0 0.0261539 0.108349 0 -0.0890444 0.0397858 0 0.0261539 0.108349 0 370.351 370.351 1000.88 
94 1 1 0.0403272 0.0768862 0 0 0 0 -0.156495 0.17765 0 0.287581 0.255087 0 -0.156495 0.17765 0 214.651 214.651 1000.51 
95 1 1 0.0288997 0.0760094 0 0 0 0 -0.163119 0.260219 0 0.174183 0.272772 0 -0.163119 0.260219 0 227.236 227.236 1000.54 
96 1 1 0.0543887 0.0795011 0 0 0 0 -0.224281 0.163623 0 -0.0699078 0.0278352 0 -0.224281 0.163623 0 180.661 180.661 1000.43 
97 1 1 0.0473856 0.0652994 0 0 0 0 -0.137803 0.0891674 0 0.0213387 0.0953261 0 -0.137803 0.0891674 0 302.436 302.436 1000.72 
98 1 1 0.0649176 0.0697802 0 0 0 0 -0.169545 0.150836 0 0.113062 0.0216772 0 -0.169545 0.150836 0 195.078 195.078 1000.46 
99 1 1 0.0820263 0.0728014 0 0 0 0 -0.162357 0.100344 0 -0.0901517 0.0722928 0 -0.162357 0.100344 0 218.495 218.495 1000.52 
100 1 1 0.0698016 0.0812532 0 0 0 0 -0.247785 0.120907 0 0.139398 0.0627548 0 -0.247785 0.120907 0 213.365 213.365 1000.51 
101 1 1 0.163786 0.0178498 0 0 0 0 -0.118924 -0.013781 0 0.0259924 0.0281536 0 -0.118924 -0.013781 0 535.163 535.163 1001.27 
102 1 1 0.173142 0.0159105 0 0 0 0 -0.123007 -0.026303 0 0.0311547 -0.0417846 0 -0.123007 -0.026303 0 545.122 545.122 1001.29 
103 1 1 0.173676 0.025442 0 0 0 0 -0.109451 -0.016484 0 0.15131 -0.0657579 0 -0.109451 -0.016484 0 470.246 470.246 1001.12 
104 1 1 0.177178 0.00697509 0 0 0 0 -0.117818 -0.0107753 0 0.0717743 -0.00376579 0 -0.117818 -0.0107753 0 603.086 603.086 1001.43 
105 1 1 0.184031 0.0146462 0 0 0 0 -0.091235 -0.0180105 0 0.0383708 -0.0252317 0 -0.091235 -0.0180105 0 554.658 554.658 1001.32 
106 1 1 0.190925 0.00664772 0 0 0 0 -0.109524 0.0072275 0 0.0491028 0.0247549 0 -0.109524 0.0072275 0 584.055 584.055 1001.38 
107 1 1 0.19534 0.0156276 0 0 0 0 -0.0791052 -0.00645061 0 0.0457414 0.00423988 0 -0.0791052 -0.00645061 0 529.56 529.56 1001.26 
108 1 1 0.203641 0.00719972 0 0 0 0 -0.0905004 -0.0226957 0 0.075823 -0.0179198 0 -0.0905004 -0.0226957 0 576.01 576.01 1001.37 
109 1 1 0.201713 0.0191585 0 0 0 0 -0.0502923 -0.0466854 0 0.135173 0.015144 0 -0.0502923 -0.0466854 0 499.527 499.527 1001.19 
110 1 1 0.210834 0.0138303 0 0 0 0 -0.0559892 -0.00977561 0 0.0335839 -0.0460395 0 -0.0559892 -0.00977561 0 530.503 530.503 1001.26 
111 1 1 0.217925 0.00638893 0 0 0 0 -0.0641652 0.00287885 0 0.0699121 0.000705311 0 -0.0641652 0.00287885 0 560.607 560.607 1001.33 
112 1 1 0.228949 0.00915739 0 0 0 0 -0.0595969 -0.0271021 0 0.0908726 -0.0282894 0 -0.0595969 -0.0271021 0 541.353 541.353 1001.28 
113 1 1 0.238537 0.00739718 0 0 0 0 -0.0492815 0.0191699 0 0.071773 0.0341666 0 -0.0492815 0.0191699 0 536.453 536.453 1001.27 
114 1 1 0.250308 0.0075998 0 0 0 0 -0.0542778 -0.0110679 0 0.159594 -0.00194034 0 -0.0542778 -0.0110679 0 542.821 542.821 1001.29 
115 1 1 0.253581 0.0176946 0 0 0 0 -0.0567716 -0.0384557 0 0.11005 -0.0456115 0 -0.0567716 -0.0384557 0 482.576 482.576 1001.15 
116 1 1 0.262551 0.00699316 0 0 0 0 -0.0367241 -0.0133568 0 -0.0195803 0.0310017 0 -0.0367241 -0.0133568 0 548.812 548.812 1001.3 
117 1 1 0.274019 0.00896078 0 0 0 0 -0.0376299 0.0199358 0 0.00187972 -0.00480955 0 -0.0376299 0.0199358 0 505.612 505.612 1001.2 
118 1 1 0.283519 0.00784186 0 0 0 0 -0.0542763 -0.0042008 0 0.0523114 -0.0346715 0 -0.0542763 -0.0042008 0 500.355 500.355 1001.19 
119 1 1 0.295678 0.00720033 0 0 0 0 -0.05296 -0.00223974 0 0.0260106 -0.0324649 0 -0.05296 -0.00223974 0 496.602 496.602 1001.18 
120 1 1 0.297053 0.0179743 0 0 0 0 -0.0335409 0.00914493 0 0.0650892 -0.0490843 0 -0.0335409 0.00914493 0 427.162 427.162 1001.01 
121 1 1 0.305681 0.0089944 0 0 0 0 -0.0606728 0.00432869 0 0.103186 -0.00737336 0 -0.0606728 0.00432869 0 479.137 479.137 1001.14 
122 1 1 0.317699 0.00622273 0 0 0 0 -0.0644978 -0.00369324 0 0.0600099 -0.00421893 0 -0.0644978 -0.00369324 0 496.164 496.164 1001.18 
123 1 1 0.327058 0.0117946 0 0 0 0 -0.0683324 -0.0133042 0 0.0161762 0.00825496 0 -0.0683324 -0.0133042 0 459.344 459.344 1001.09 
124 1 1 0.33505 0.00687096 0 0 0 0 -0.0403084 -0.00347019 0 0.0452618 -0.0117116 0 -0.0403084 -0.00347019 0 484.392 484.392 1001.15 
125 1 1 0.347768 0.007439 0 0 0 0 -0.0407409 -0.000662102 0 -0.00577045 0.00553494 0 -0.0407409 -0.000662102 0 466.561 466.561 1001.11 
126 1 1 0.353563 0.0148576 0 0 0 0 -0.0731041 0.0258062 0 0.0253416 0.000435439 0 -0.0731041 0.0258062 0 420.37 420.37 1001 
127 1 1 0.360208 0.00730858 0 0 0 0 -0.0649115 0.00724713 0 0.0188063 -0.0110909 0 -0.0649115 0.00724713 0 461.674 461.674 1001.1 
128 1 1 0.371927 0.00723485 0 0 0 0 -0.0771092 -0.00175433 0 0.0239276 -0.0202935 0 -0.0771092 -0.00175433 0 458.662 458.662 1001.09 
129 1 1 0.394224 0.00610491 0 0 0 0 -0.0203689 -0.000357692 0 -0.0164855 0.0381951 0 -0.0203689 -0.000357692 0 469.826 469.826 1001.11 
130 1 1 0.407199 0.00860667 0 0 0 0 0.00535187 -0.0208218 0 -0.0339374 -0.0664137 0 0.00535187 -0.0208218 0 443.453 443.453 1001.05 
131 1 1 0.41799 0.00720818 0 0 0 0 0.0309963 0.00157109 0 0.0326288 0.0161794 0 0.0309963 0.00157109 0 452.21 452.21 1001.07 
132 1 1 0.409611 0.0170245 0 0 0 0 0.0146645 -0.0218231 0 0.0380142 0.00194237 0 0.0146645 -0.0218231 0 390.158 390.158 1000.93 
133 1 1 0.42966 0.00755747 0 0 0 0 0.00251561 0.010793 0 0.000945917 0.00345219 0 0.00251561 0.010793 0 452.135 452.135 1001.07 
134 1 1 0.442055 0.0169006 0 0 0 0 -0.00440233 0.00724743 0 -0.00542098 0.0267561 0 -0.00440233 0.00724743 0 392.456 392.456 1000.93 
135 1 1 0.441034 0.00740267 0 0 0 0 -0.00520652 -0.00676376 0 -0.0522186 -0.00138127 0 -0.00520652 -0.00676376 0 446.85 446.85 1001.06 
136 1 1 0.450721 0.0094112 0 0 0 0 -0.0175972 0.00931903 0 -0.0292903 -0.045688 0 -0.0175972 0.00931903 0 425.07 425.07 1001.01 
137 1 1 0.460514 0.00670022 0 0 0 0 -0.00078412 -0.0112012 0 0.0137988 -0.00677841 0 -0.00078412 -0.0112012 0 439.974 439.974 1001.04 
138 1 1 0.47765 0.00697034 0 0 0 0 0.00156916 -0.00446919 0 0.0473427 -0.019692 0 0.00156916 -0.00446919 0 442.554 442.554 1001.05 
139 1 1 0.491067 0.00625359 0 0 0 0 0.00625018 0.00033153 0 0.0177717 -0.000802436 0 0.00625018 0.00033153 0 443.515 443.515 1001.05 
140 1 1 0.159647 0.0379993 0 0 0 0 -0.13457 -0.0485694 0 0.178596 -0.0665087 0 -0.13457 -0.0485694 0 368.262 368.262 1000.87 
141 1 1 0.167865 0.030184 0 0 0 0 -0.144973 -0.0739086 0 -0.0840747 0.0551517 0 -0.144973 -0.0739086 0 433.033 433.033 1001.03 
142 1 1 0.184097 0.0494355 0 0 0 0 -0.12336 -0.0587421 0 -0.00187336 0.00502245 0 -0.12336 -0.0587421 0 254.806 254.806 1000.61 
143 1 1 0.18152 0.0327343 0 0 0 0 -0.105072 -0.0107753 0 0.062044 -0.0872638 0 -0.105072 -0.0107753 0 394.996 394.996 1000.94 
144 1 1 0.193623 0.0365096 0 0 0 0 -0.109345 -0.0882416 0 0.00696496 0.00564822 0 -0.109345 -0.0882416 0 337.715 337.715 1000.8 
145 1 1 0.184985 0.0221524 0 0 0 0 -0.129827 -0.0197729 0 0.00585719 0.0523799 0 -0.129827 -0.0197729 0 497.977 497.977 1001.18 
146 1 1 0.202834 0.0403515 0 0 0 0 -0.139343 -0.0145001 0 0.0391824 -0.0347745 0 -0.139343 -0.0145001 0 298.941 298.941 1000.71 
147 1 1 0.192351 0.028039 0 0 0 0 -0.0926273 -0.0886587 0 0.0860896 -0.0713431 0 -0.0926273 -0.0886587 0 426.538 426.538 1001.01 
148 1 1 0.202709 0.0287912 0 0 0 0 -0.0787564 -0.000751985 0 0.104625 -0.050184 0 -0.0787564 -0.000751985 0 413.632 413.632 1000.98 
149 1 1 0.213589 0.0225137 0 0 0 0 -0.0814488 -0.0160722 0 0.060628 0.011862 0 -0.0814488 -0.0160722 0 464.146 464.146 1001.1 
150 1 1 0.233234 0.032717 0 0 0 0 -0.0366861 0.03043 0 0.0364391 -0.00659673 0 -0.0366861 0.03043 0 357.906 357.906 1000.85 
151 1 1 0.221616 0.0166132 0 0 0 0 -0.051705 0.00982385 0 0.0928082 0.011655 0 -0.051705 0.00982385 0 493.908 493.908 1001.17 
152 1 1 0.224811 0.0262583 0 0 0 0 -0.0641257 0.0166158 0 0.0616837 -0.0203826 0 -0.0641257 0.0166158 0 415.337 415.337 1000.99 
153 1 1 0.232345 0.0182921 0 0 0 0 -0.0939707 0.00472143 0 0.112539 -0.107004 0 -0.0939707 0.00472143 0 483.587 483.587 1001.15 
154 1 1 0.263457 0.0154072 0 0 0 0 -0.0472148 -0.00478379 0 0.0645699 0.0115536 0 -0.0472148 -0.00478379 0 494.656 494.656 1001.17 
155 1 1 0.278307 0.0186234 0 0 0 0 -0.0317178 0.000883067 0 0.103458 -0.0786208 0 -0.0317178 0.000883067 0 442.654 442.654 1001.05 
156 1 1 0.270401 0.0212445 0 0 0 0 -0.0863854 -0.00769222 0 0.0817175 0.023597 0 -0.0863854 -0.00769222 0 437.414 437.414 1001.04 
157 1 1 0.288711 0.0161903 0 0 0 0 -0.0305796 -0.000426848 0 0.10234 0.0245071 0 -0.0305796 -0.000426848 0 446.42 446.42 1001.06 
158 1 1 0.284025 0.026674 0 0 0 0 -0.103098 -0.000302993 0 0.051762 -0.0170057 0 -0.103098 -0.000302993 0 370.434 370.434 1000.88 
159 1 1 0.30537 0.0234609 0 0 0 0 -0.0516849 0.0199346 0 0.00504091 0.00377053 0 -0.0516849 0.0199346 0 379.147 379.147 1000.9 
160 1 1 0.310045 0.0162137 0 0 0 0 -0.0521814 0.0170764 0 0.0792662 -0.0160478 0 -0.0521814 0.0170764 0 434.832 434.832 1001.03 
161 1 1 0.318986 0.0174525 0 0 0 0 -0.0691434 -0.00308285 0 0.0472226 0.0346805 0 -0.0691434 -0.00308285 0 425.717 425.717 1001.01 
162 1 1 0.33068 0.0208425 0 0 0 0 -0.064297 0.00238494 0 0.100229 -0.0306953 0 -0.064297 0.00238494 0 389.698 389.698 1000.93 
163 1 1 0.340004 0.0153271 0 0 0 0 -0.0899868 -0.00523865 0 0.0362431 0.0181942 0 -0.0899868 -0.00523865 0 428.202 428.202 1001.02 
164 1 1 0.358339 0.0225879 0 0 0 0 -0.068616 -0.013238 0 0.0222169 0.0410643 0 -0.068616 -0.013238 0 357.413 357.413 1000.85 
165 1 1 0.382563 0.00911294 0 0 0 0 -0.0394537 -0.025541 0 0.0307977 -0.0451814 0 -0.0394537 -0.025541 0 455.488 455.488 1001.08 
166 1 1 0.366136 0.0160681 0 0 0 0 -0.0385409 -0.0194111 0 -0.000271965 0.0019548 0 -0.0385409 -0.0194111 0 401.365 401.365 1000.95 
167 1 1 0.378873 0.0266872 0 0 0 0 -0.017284 -0.034957 0 -0.0304015 0.0192235 0 -0.017284 -0.034957 0 321.316 321.316 1000.76 
168 1 1 0.39838 0.0144626 0 0 0 0 0.0155397 -0.00827488 0 0.0317005 0.0399836 0 0.0155397 -0.00827488 0 419.973 419.973 1001 
169 1 1 0.387852 0.0292565 0 0 0 0 -0.0403308 -0.0292091 0 -0.0196972 -0.0231173 0 -0.0403308 -0.0292091 0 290.822 290.822 1000.69 
170 1 1 0.386356 0.0165861 0 0 0 0 -0.00659541 -0.0381128 0 0.0329057 -0.0182995 0 -0.00659541 -0.0381128 0 404.175 404.175 1000.96 
171 1 1 0.394627 0.0224975 0 0 0 0 -0.00646816 -0.0288024 0 0.0298853 -0.0745315 0 -0.00646816 -0.0288024 0 355.237 355.237 1000.84 
172 1 1 0.420128 0.0162809 0 0 0 0 0.0119486 0.00462759 0 -0.0224427 0.0047984 0 0.0119486 0.00462759 0 403.772 403.772 1000.96 
173 1 1 0.430736 0.0164021 0 0 0 0 0.0268701 0.021953 0 0.00692049 -0.00996664 0 0.0268701 0.021953 0 405.764 405.764 1000.96 
174 1 1 0.457296 0.0181706 0 0 0 0 0.0161412 -0.0251008 0 0.044922 -0.066543 0 0.0161412 -0.0251008 0 378.988 378.988 1000.9 
175 1 1 0.464922 0.0208323 0 0 0 0 0.00390021 0.0176214 0 -0.0484848 0.0122385 0 0.00390021 0.0176214 0 359.568 359.568 1000.85 
176 1 1 0.469133 0.0110144 0 0 0 0 -0.0044238 0.00187968 0 0.027855 -0.0153904 0 -0.0044238 0.00187968 0 419.696 419.696 1001 
177 1 1 0.482919 0.0147497 0 0 0 0 0.0028025 -0.00805432 0 0.0170753 0.0211527 0 0.0028025 -0.00805432 0 405.296 405.296 1000.96 
178 1 1 0.49126 0.0176655 0 0 0 0 -0.00532418 0.00129182 0 -0.020262 0.00468572 0 -0.00532418 0.00129182 0 379.948 379.948 1000.9 
179 1 1 0.1524 0.0445967 0 0 0 0 -0.128254 -0.0248746 0 -0.0653248 0.0488047 0 -0.128254 -0.0248746 0 307.865 307.865 1000.73 
180 1 1 0.170831 0.039631 0 0 0 0 -0.12628 -0.0602387 0 0.017573 -0.036467 0 -0.12628 -0.0602387 0 327.118 327.118 1000.78 
181 1 1 0.170837 0.0474547 0 0 0 0 -0.152385 -0.051727 0 0.115921 -0.0321129 0 -0.152385 -0.051727 0 254.469 254.469 1000.6 
182 1 1 0.1822 0.0406931 0 0 0 0 -0.142659 -0.0334036 0 0.0885363 0.00677407 0 -0.142659 -0.0334036 0 324.919 324.919 1000.77 
183 1 1 0.183711 0.0600804 0 0 0 0 -0.126287 -0.105023 0 0.0241818 -0.0281379 0 -0.126287 -0.105023 0 169.307 169.307 1000.4 
184 1 1 0.174064 0.0568147 0 0 0 0 -0.129371 -0.0766589 0 0.0543661 -0.0347614 0 -0.129371 -0.0766589 0 182.091 182.091 1000.43 
185 1 1 0.193808 0.0469275 0 0 0 0 -0.105046 -0.0692656 0 0.0807096 -0.0411364 0 -0.105046 -0.0692656 0 252.336 252.336 1000.6 
186 1 1 0.211747 0.0319423 0 0 0 0 -0.102094 -0.0216347 0 0.0425626 -0.0353139 0 -0.102094 -0.0216347 0 383.701 383.701 1000.91 
187 1 1 0.221233 0.0344914 0 0 0 0 -0.07661 -0.0240818 0 0.0642795 0.00665852 0 -0.07661 -0.0240818 0 352.511 352.511 1000.84 
188 1 1 0.226633 0.042505 0 0 0 0 -0.08073 -0.00831237 0 0.0729293 -0.0594363 0 -0.08073 -0.00831237 0 277.423 277.423 1000.66 
189 1 1 0.243709 0.0349778 0 0 0 0 -0.0281388 -0.0209839 0 0.0188118 -0.0147016 0 -0.0281388 -0.0209839 0 337.468 337.468 1000.8 
190 1 1 0.2444 0.0158084 0 0 0 0 -0.090198 0.00691728 0 -0.0102898 0.0617436 0 -0.090198 0.00691728 0 496.691 496.691 1001.18 
191 1 1 0.255098 0.0356106 0 0 0 0 -0.0500957 -0.00167157 0 0.0760769 0.0015175 0 -0.0500957 -0.00167157 0 332.037 332.037 1000.79 
192 1 1 0.249186 0.0268853 0 0 0 0 -0.0725523 -0.0430826 0 0.0567275 -0.0317323 0 -0.0725523 -0.0430826 0 410.284 410.284 1000.97 
193 1 1 0.274345 0.0314683 0 0 0 0 -0.0734314 -0.0113227 0 0.130738 -0.0425455 0 -0.0734314 -0.0113227 0 349.014 349.014 1000.83 
194 1 1 0.259505 0.0453004 0 0 0 0 -0.0648085 -0.00164062 0 0.126715 -0.0499304 0 -0.0648085 -0.00164062 0 245.546 245.546 1000.58 
195 1 1 0.285764 0.0359673 0 0 0 0 -0.0549136 0.034456 0 0.000804386 -0.0221514 0 -0.0549136 0.034456 0 281.507 281.507 1000.67 
196 1 1 0.29379 0.0278942 0 0 0 0 -0.113673 -0.0104227 0 0.127534 -0.0442514 0 -0.113673 -0.0104227 0 342.794 342.794 1000.81 
197 1 1 0.301386 0.0340022 0 0 0 0 -0.0960922 -0.0281493 0 0.100471 0.0317546 0 -0.0960922 -0.0281493 0 283.987 283.987 1000.67 
198 1 1 0.311749 0.0305775 0 0 0 0 -0.0697284 0.0213146 0 0.140122 -0.0149161 0 -0.0697284 0.0213146 0 318.177 318.177 1000.76 
199 1 1 0.326324 0.0336807 0 0 0 0 -0.0670864 -0.0178768 0 0.0530349 -0.0245843 0 -0.0670864 -0.0178768 0 271.961 271.961 1000.65 
200 1 1 0.321413 0.02629 0 0 0 0 -0.0303649 -0.0125221 0 0.0228349 0.0153992 0 -0.0303649 -0.0125221 0 348.516 348.516 1000.83 
201 1 1 0.346084 0.021891 0 0 0 0 -0.0735291 -0.0104668 0 0.0443624 -0.0828094 0 -0.0735291 -0.0104668 0 366.25 366.25 1000.87 
202 1 1 0.336581 0.0365333 0 0 0 0 -0.0888342 0.0105626 0 0.0572572 -0.0242107 0 -0.0888342 0.0105626 0 237.592 237.592 1000.56 
203 1 1 0.349106 0.0307468 0 0 0 0 -0.0533371 0.0148727 0 0.071139 0.0197712 0 -0.0533371 0.0148727 0 278.842 278.842 1000.66 
204 1 1 0.357838 0.0336627 0 0 0 0 -0.0335565 -0.0144961 0 0.0185413 0.0503646 0 -0.0335565 -0.0144961 0 254.539 254.539 1000.6 
205 1 1 0.375581 0.0178356 0 0 0 0 -0.00239565 -0.019769 0 0.0111313 0.0155185 0 -0.00239565 -0.019769 0 388.93 388.93 1000.92 
206 1 1 0.367683 0.0269145 0 0 0 0 -0.0500423 -0.0544232 0 0.0321603 -0.0321247 0 -0.0500423 -0.0544232 0 314.364 314.364 1000.75 
207 1 1 0.408748 0.0373725 0 0 0 0 -0.0701277 -0.0263127 0 -0.0184868 -0.0778774 0 -0.0701277 -0.0263127 0 230.677 230.677 1000.55 
208 1 1 0.422489 0.0255906 0 0 0 0 -0.0274213 0.00214075 0 0.0891946 -0.0775368 0 -0.0274213 0.00214075 0 334.309 334.309 1000.79 
209 1 1 0.403637 0.0263816 0 0 0 0 -0.0205163 -0.0332814 0 0.00911011 0.0097725 0 -0.0205163 -0.0332814 0 322.796 322.796 1000.77 
210 1 1 0.434701 0.0244108 0 0 0 0 -0.0372538 0.029161 0 -0.0557752 0.0296167 0 -0.0372538 0.029161 0 345.519 345.519 1000.82 
211 1 1 0.412433 0.0273922 0 0 0 0 0.000827275 -0.000369098 0 0.0198773 -0.00948143 0 0.000827275 -0.000369098 0 307.039 307.039 1000.73 
212 1 1 0.443019 0.0300237 0 0 0 0 0.00858058 -0.0346255 0 0.110593 -0.0542883 0 0.00858058 -0.0346255 0 296.41 296.41 1000.7 
213 1 1 0.450285 0.0219737 0 0 0 0 0.0138501 -0.00520168 0 -0.04314 0.0437801 0 0.0138501 -0.00520168 0 358.858 358.858 1000.85 
214 1 1 0.468222 0.0316664 0 0 0 0 -0.00997614 0.022589 0 -0.00562025 -0.0495879 0 -0.00997614 0.022589 0 270.727 270.727 1000.64 
215 1 1 0.481184 0.0254518 0 0 0 0 -0.0247551 0.00147051 0 0.00201548 0.0582905 0 -0.0247551 0.00147051 0 331.81 331.81 1000.79 
216 1 1 0.473815 0.0210232 0 0 0 0 -0.0041996 -0.00751827 0 0.0431194 -0.0398174 0 -0.0041996 -0.00751827 0 360.978 360.978 1000.86 
217 1 1 0.491096 0.0294781 0 0 0 0 -0.0219172 -0.0204351 0 -0.0227126 -0.0525193 0 -0.0219172 -0.0204351 0 295.953 295.953 1000.7 
218 1 1 0.147743 0.0608859 0 0 0 0 -0.247443 -0.0602066 0 0.224617 0.0607489 0 -0.247443 -0.0602066 0 195.782 195.782 1000.47 
219 1 1 0.12786 0.0568595 0 0 0 0 -0.255573 -0.0676666 0 0.211186 0.0484019 0 -0.255573 -0.0676666 0 273.194 273.194 1000.65 
220 1 1 0.145411 0.0537815 0 0 0 0 -0.256254 -0.0307281 0 0.0989693 -0.0645532 0 -0.256254 -0.0307281 0 264.595 264.595 1000.63 
221 1 1 0.162197 0.0578338 0 0 0 0 -0.192308 -0.0716315 0 -0.0523412 -0.0267715 0 -0.192308 -0.0716315 0 185.861 185.861 1000.44 
222 1 1 0.160035 0.0498329 0 0 0 0 -0.174105 -0.0636814 0 -0.0373602 0.0355883 0 -0.174105 -0.0636814 0 258.2 258.2 1000.61 
223 1 1 0.204207 0.0518465 0 0 0 0 -0.0764736 -0.0701949 0 0.0610011 -0.00788565 0 -0.0764736 -0.0701949 0 219.213 219.213 1000.52 
224 1 1 0.211697 0.0424487 0 0 0 0 -0.061952 -0.0539265 0 0.105769 -0.00471513 0 -0.061952 -0.0539265 0 278.583 278.583 1000.66 
225 1 1 0.218795 0.0488375 0 0 0 0 -0.0679517 -0.0355289 0 0.0357445 -0.0123949 0 -0.0679517 -0.0355289 0 223.228 223.228 1000.53 
226 1 1 0.227201 0.0542164 0 0 0 0 -0.0397101 -0.00300757 0 0.081314 0.0311583 0 -0.0397101 -0.00300757 0 179.205 179.205 1000.43 
227 1 1 0.238259 0.0240213 0 0 0 0 -0.086304 0.0039991 0 0.140804 0.0489907 0 -0.086304 0.0039991 0 439.532 439.532 1001.04 
228 1 1 0.236531 0.0431855 0 0 0 0 -0.0638268 -0.0119871 0 0.120159 0.0393026 0 -0.0638268 -0.0119871 0 271.489 271.489 1000.65 
229 1 1 0.247949 0.044745 0 0 0 0 -0.0554723 -0.00757043 0 0.0210886 0.0261736 0 -0.0554723 -0.00757043 0 250.162 250.162 1000.59 
230 1 1 0.260634 0.0261394 0 0 0 0 -0.0921955 -0.00367028 0 0.075621 0.0491546 0 -0.0921955 -0.00367028 0 409.596 409.596 1000.97 
231 1 1 0.265839 0.0352021 0 0 0 0 -0.0575097 -0.0107035 0 0.0268596 0.0114039 0 -0.0575097 -0.0107035 0 332.081 332.081 1000.79 
232 1 1 0.273834 0.041864 0 0 0 0 -0.0680259 -0.000396189 0 0.0544772 -0.0493105 0 -0.0680259 -0.000396189 0 254.306 254.306 1000.6 