ITEM: TIMESTEP
43000
ITEM: NUMBER OF ATOMS
754
ITEM: BOX BOUNDS ff ff pp
-0.021 0.521
-0.021 0.5
-0.001 0.001
ITEM: ATOMS id type type x y z ix iy iz vx vy vz fx fy fz vx vy vz p p rho 
1 1 1 0.0104087 0.00678215 0 0 0 0 -0.0181585 -0.0166687 0 0.0814216 0.00443326 0 -0.0181585 -0.0166687 0 396.486 396.486 1000.94 
2 1 1 0.0288353 0.00707679 0 0 0 0 0.0160789 -0.0154779 0 -0.106846 0.103765 0 0.0160789 -0.0154779 0 468.215 468.215 1001.11 
3 1 1 0.0573989 0.00792242 0 0 0 0 0.0156133 0.0161807 0 -0.145037 0.00440099 0 0.0156133 0.0161807 0 480.516 480.516 1001.14 
4 1 1 0.0699421 0.00814709 0 0 0 0 -0.0059987 -0.0096583 0 -0.0955517 -0.0667235 0 -0.0059987 -0.0096583 0 518.35 518.35 1001.23 
5 1 1 0.0942021 0.00866505 0 0 0 0 0.0072509 -0.0137874 0 -0.00243911 -0.0664266 0 0.0072509 -0.0137874 0 509.707 509.707 1001.21 
6 1 1 0.10686 0.00776977 0 0 0 0 0.0173248 0.00854847 0 -0.115611 0.0908863 0 0.0173248 0.00854847 0 551.954 551.954 1001.31 
7 1 1 0.14008 0.00806657 0 0 0 0 0.0810877 0.0126923 0 -0.0911901 0.0187545 0 0.0810877 0.0126923 0 605.043 605.043 1001.43 
8 1 1 0.152741 0.00773751 0 0 0 0 0.0683434 -0.0048245 0 -0.120119 0.0441675 0 0.0683434 -0.0048245 0 576.001 576.001 1001.37 
9 1 1 0.173368 0.00752808 0 0 0 0 0.112147 0.00202743 0 -0.00479754 0.048835 0 0.112147 0.00202743 0 578.279 578.279 1001.37 
10 1 1 0.193227 0.00805705 0 0 0 0 0.159331 0.00371858 0 -0.031359 -0.00510764 0 0.159331 0.00371858 0 586.954 586.954 1001.39 
11 1 1 0.0229609 0.0138883 0 0 0 0 -0.0249919 0.00622104 0 -0.00547315 -0.0610114 0 -0.0249919 0.00622104 0 425.405 425.405 1001.01 
12 1 1 0.0429941 0.00776495 0 0 0 0 0.023225 -0.000158781 0 -0.0461193 0.0467924 0 0.023225 -0.000158781 0 458.063 458.063 1001.09 
13 1 1 0.0634632 0.0163284 0 0 0 0 0.0439017 -0.00668995 0 -0.0814171 0.0239977 0 0.0439017 -0.00668995 0 388.601 388.601 1000.92 
14 1 1 0.0829868 0.00799363 0 0 0 0 0.0289657 0.0169301 0 -0.139157 0.0903603 0 0.0289657 0.0169301 0 525.719 525.719 1001.25 
15 1 1 0.104226 0.0160533 0 0 0 0 0.0435172 0.00255103 0 0.00956856 0.0380499 0 0.0435172 0.00255103 0 470.139 470.139 1001.12 
16 1 1 0.127239 0.00801848 0 0 0 0 0.142758 0.00840539 0 0.0282991 -0.0174808 0 0.142758 0.00840539 0 530.186 530.186 1001.26 
17 1 1 0.141337 0.0159618 0 0 0 0 0.107128 0.00328944 0 0.0242411 0.0353919 0 0.107128 0.00328944 0 518.333 518.333 1001.23 
18 1 1 0.164839 0.0107409 0 0 0 0 0.103731 0.00482658 0 -0.123526 -0.0416654 0 0.103731 0.00482658 0 589.837 589.837 1001.4 
19 1 1 0.184564 0.0109891 0 0 0 0 0.110873 -0.0605999 0 -0.197366 -0.0115254 0 0.110873 -0.0605999 0 559.618 559.618 1001.33 
20 1 1 0.192965 0.0191801 0 0 0 0 0.131195 -0.0329011 0 -0.0245506 -0.0288911 0 0.131195 -0.0329011 0 510.821 510.821 1001.21 
21 1 1 0.0138856 0.0137014 0 0 0 0 0.0500015 0.0294867 0 -0.0870775 0.171702 0 0.0500015 0.0294867 0 371.81 371.81 1000.88 
22 1 1 0.0364625 0.0150793 0 0 0 0 -0.000555618 -0.0235211 0 -0.0947335 -0.0194575 0 -0.000555618 -0.0235211 0 406.103 406.103 1000.96 
23 1 1 0.0506545 0.01433 0 0 0 0 0.0354521 0.0015531 0 -0.0904909 0.0175942 0 0.0354521 0.0015531 0 414.841 414.841 1000.98 
24 1 1 0.0810427 0.0216271 0 0 0 0 0.0345774 0.0363641 0 0.0321565 -0.0745838 0 0.0345774 0.0363641 0 392.219 392.219 1000.93 
25 1 1 0.09227 0.0167186 0 0 0 0 0.0355184 0.0161354 0 -0.255162 -0.101233 0 0.0355184 0.0161354 0 455.29 455.29 1001.08 
26 1 1 0.117248 0.0103592 0 0 0 0 0.0319813 -0.0653472 0 -0.0842634 -0.0482394 0 0.0319813 -0.0653472 0 544.296 544.296 1001.29 
27 1 1 0.130638 0.0168099 0 0 0 0 0.058102 0.0160431 0 -0.129081 0.0451272 0 0.058102 0.0160431 0 483.002 483.002 1001.15 
28 1 1 0.157314 0.0158054 0 0 0 0 0.129707 -0.0399343 0 -0.0749129 -0.0184353 0 0.129707 -0.0399343 0 513.425 513.425 1001.22 
29 1 1 0.178585 0.0175098 0 0 0 0 0.177773 0.0446772 0 0.10132 0.0521663 0 0.177773 0.0446772 0 480.021 480.021 1001.14 
30 1 1 0.195909 0.0328907 0 0 0 0 0.110497 -0.0207629 0 0.0517469 -0.110988 0 0.110497 -0.0207629 0 362.621 362.621 1000.86 
31 1 1 0.0213583 0.0235504 0 0 0 0 -0.0298261 0.00813996 0 -0.12636 0.0821072 0 -0.0298261 0.00813996 0 315.524 315.524 1000.75 
32 1 1 0.0444182 0.022055 0 0 0 0 -0.0207036 0.00288845 0 -0.133879 -0.062885 0 -0.0207036 0.00288845 0 349.663 349.663 1000.83 
33 1 1 0.0764084 0.0155621 0 0 0 0 0.0613767 -0.0347412 0 -0.14535 0.00238574 0 0.0613767 -0.0347412 0 452.589 452.589 1001.07 
34 1 1 0.0928309 0.0243023 0 0 0 0 0.0462136 -0.02241 0 -0.025037 0.0379789 0 0.0462136 -0.02241 0 377.925 377.925 1000.9 
35 1 1 0.118059 0.0180764 0 0 0 0 0.0931755 -0.100544 0 -0.0561076 0.0259098 0 0.0931755 -0.100544 0 465.084 465.084 1001.1 
36 1 1 0.139414 0.0253765 0 0 0 0 0.0871701 -0.0471179 0 -0.137316 0.0962902 0 0.0871701 -0.0471179 0 351.865 351.865 1000.84 
37 1 1 0.163865 0.0242608 0 0 0 0 0.131475 -0.0158349 0 -0.0457552 0.0286242 0 0.131475 -0.0158349 0 397.574 397.574 1000.94 
38 1 1 0.171641 0.0211197 0 0 0 0 0.117766 -0.0842353 0 -0.0254629 -0.0253099 0 0.117766 -0.0842353 0 446.406 446.406 1001.06 
39 1 1 0.188132 0.0255358 0 0 0 0 0.0891279 -0.0188445 0 -0.0611874 0.012733 0 0.0891279 -0.0188445 0 447.232 447.232 1001.06 
40 1 1 0.18254 0.045161 0 0 0 0 0.0163217 0.034136 0 -0.0246525 -0.0563509 0 0.0163217 0.034136 0 225.889 225.889 1000.54 
41 1 1 0.00850559 0.0214496 0 0 0 0 -0.034288 -0.0543816 0 0.0620588 -0.00423837 0 -0.034288 -0.0543816 0 216.887 216.887 1000.52 
42 1 1 0.0320583 0.0224284 0 0 0 0 0.0318841 -0.0379238 0 -0.116666 0.112457 0 0.0318841 -0.0379238 0 273.238 273.238 1000.65 
43 1 1 0.058524 0.0229866 0 0 0 0 -0.0406133 0.0191113 0 -0.0879612 0.0281741 0 -0.0406133 0.0191113 0 306.105 306.105 1000.73 
44 1 1 0.0767842 0.0315094 0 0 0 0 0.0391466 0.0205133 0 -0.116981 -0.0866381 0 0.0391466 0.0205133 0 266.467 266.467 1000.63 
45 1 1 0.105227 0.0245113 0 0 0 0 0.0877056 -0.0136737 0 -0.162744 -0.0454904 0 0.0877056 -0.0136737 0 391.08 391.08 1000.93 
46 1 1 0.126853 0.0251618 0 0 0 0 0.0603665 -0.00172064 0 -0.0585725 -0.139558 0 0.0603665 -0.00172064 0 400.539 400.539 1000.95 
47 1 1 0.15006 0.0209869 0 0 0 0 0.112479 0.0180045 0 0.0348711 -0.100384 0 0.112479 0.0180045 0 469.79 469.79 1001.11 
48 1 1 0.179239 0.0298147 0 0 0 0 0.122509 0.0277201 0 -0.236463 0.0405723 0 0.122509 0.0277201 0 375.987 375.987 1000.89 
49 1 1 0.186256 0.0364334 0 0 0 0 0.112969 -0.00551929 0 -0.0345377 0.0331286 0 0.112969 -0.00551929 0 280.463 280.463 1000.67 
50 1 1 0.179827 0.0573137 0 0 0 0 0.0449744 0.0114157 0 -0.145795 -0.0597191 0 0.0449744 0.0114157 0 54.3613 54.3613 1000.13 
51 1 1 0.0129919 0.0305599 0 0 0 0 0.00387292 0.0522398 0 -0.0667368 0.131391 0 0.00387292 0.0522398 0 162.934 162.934 1000.39 
52 1 1 0.0485347 0.0286024 0 0 0 0 0.0869024 -0.0198201 0 -0.0921158 0.0971854 0 0.0869024 -0.0198201 0 256.518 256.518 1000.61 
53 1 1 0.0595713 0.0321201 0 0 0 0 0.164782 0.000111167 0 -0.0651148 -0.0173659 0 0.164782 0.000111167 0 201.236 201.236 1000.48 
54 1 1 0.0877303 0.0319136 0 0 0 0 0.0969501 -0.0124929 0 -0.149759 -0.0702197 0 0.0969501 -0.0124929 0 286.303 286.303 1000.68 
55 1 1 0.107595 0.0389825 0 0 0 0 0.0601119 -0.0108716 0 -0.00402698 -0.168643 0 0.0601119 -0.0108716 0 218.943 218.943 1000.52 
56 1 1 0.130387 0.0328139 0 0 0 0 0.0755748 0.00946091 0 -0.0360816 0.0182492 0 0.0755748 0.00946091 0 356.215 356.215 1000.85 
57 1 1 0.149121 0.0299078 0 0 0 0 0.152921 -0.0591782 0 -0.115626 0.066071 0 0.152921 -0.0591782 0 368.537 368.537 1000.88 
58 1 1 0.159195 0.0410449 0 0 0 0 0.0618355 0.0108459 0 -0.0427824 0.00869802 0 0.0618355 0.0108459 0 249.73 249.73 1000.59 
59 1 1 0.173899 0.0438222 0 0 0 0 0.0810189 -0.0290344 0 -0.0495706 -0.0724583 0 0.0810189 -0.0290344 0 255.624 255.624 1000.61 
60 1 1 0.193569 0.0461789 0 0 0 0 0.0632753 -0.00110572 0 -0.108115 0.11031 0 0.0632753 -0.00110572 0 215.185 215.185 1000.51 
61 1 1 0.011001 0.0365993 0 0 0 0 0.00746582 0.0561299 0 0.102941 1.36028 0 0.00746582 0.0561299 0 150.756 150.756 1000.36 
62 1 1 0.0357173 0.0307958 0 0 0 0 0.0731706 -0.0172627 0 -0.0733862 -0.0353069 0 0.0731706 -0.0172627 0 198.566 198.566 1000.47 
63 1 1 0.0693993 0.0247917 0 0 0 0 0.0561286 -0.0732592 0 -0.241574 0.0762794 0 0.0561286 -0.0732592 0 314.837 314.837 1000.75 
64 1 1 0.0822775 0.0404908 0 0 0 0 0.0233791 -0.00905802 0 -0.109329 0.00469461 0 0.0233791 -0.00905802 0 109.201 109.201 1000.26 
65 1 1 0.100755 0.0328383 0 0 0 0 0.0852644 0.00260935 0 -0.0619812 -0.113115 0 0.0852644 0.00260935 0 265.598 265.598 1000.63 
66 1 1 0.114368 0.0266925 0 0 0 0 0.0483028 -0.0702067 0 -0.0269351 -0.0856083 0 0.0483028 -0.0702067 0 380.524 380.524 1000.9 
67 1 1 0.137544 0.0366735 0 0 0 0 0.0905936 -0.0335035 0 0.123052 -0.000345656 0 0.0905936 -0.0335035 0 292.025 292.025 1000.69 
68 1 1 0.160207 0.0310822 0 0 0 0 0.114871 0.012948 0 -0.0775139 0.0297356 0 0.114871 0.012948 0 344.432 344.432 1000.82 
69 1 1 0.170897 0.0344513 0 0 0 0 0.0870688 -0.0672872 0 -0.0334089 -0.0381903 0 0.0870688 -0.0672872 0 322.55 322.55 1000.77 
70 1 1 0.172514 0.05731 0 0 0 0 0.0459958 0.00256086 0 -0.101949 0.014673 0 0.0459958 0.00256086 0 77.1761 77.1761 1000.18 
71 1 1 0.0324474 0.0437893 0 0 0 0 0.0481266 -0.0594035 0 -0.119246 -0.0297677 0 0.0481266 -0.0594035 0 51.8397 51.8397 1000.12 
72 1 1 0.024028 0.0322741 0 0 0 0 -0.039467 -0.0938715 0 -0.0422089 0.107976 0 -0.039467 -0.0938715 0 132.143 132.143 1000.31 
73 1 1 0.0486674 0.0369073 0 0 0 0 0.0405012 -0.0318411 0 -0.144035 0.0779669 0 0.0405012 -0.0318411 0 119.224 119.224 1000.28 
74 1 1 0.0705068 0.0371382 0 0 0 0 0.0561798 -0.0405056 0 -0.23734 -0.136488 0 0.0561798 -0.0405056 0 216.316 216.316 1000.51 
75 1 1 0.0929647 0.03982 0 0 0 0 -0.00499865 -0.0134955 0 -0.19389 0.0412744 0 -0.00499865 -0.0134955 0 243.301 243.301 1000.58 
76 1 1 0.116814 0.0342209 0 0 0 0 0.0791711 -0.0960016 0 0.0224209 0.0974996 0 0.0791711 -0.0960016 0 267.897 267.897 1000.64 
77 1 1 0.122809 0.040475 0 0 0 0 0.08088 -0.073639 0 -0.104979 0.00450731 0 0.08088 -0.073639 0 217.371 217.371 1000.52 
78 1 1 0.148946 0.038751 0 0 0 0 0.0699732 -0.0359093 0 -0.040944 -0.0180431 0 0.0699732 -0.0359093 0 266.14 266.14 1000.63 
79 1 1 0.16496 0.0468109 0 0 0 0 0.0926457 -0.0218018 0 -0.0907576 0.0738462 0 0.0926457 -0.0218018 0 206.591 206.591 1000.49 
80 1 1 0.143744 0.0579807 0 0 0 0 -0.0136461 -0.0907781 0 -0.13321 0.0404558 0 -0.0136461 -0.0907781 0 73.5018 73.5018 1000.17 
81 1 1 0.00531537 0.0502503 0 0 0 0 -0.239437 0.0846992 0 -4.00786 0.647948 0 -0.239437 0.0846992 0 -223.197 -223.197 999.468 
82 1 1 0.0370421 0.0400362 0 0 0 0 0.0596808 -0.0779064 0 0.0774906 0.0629267 0 0.0596808 -0.0779064 0 119.492 119.492 1000.28 
83 1 1 0.0624599 0.0420791 0 0 0 0 0.0141396 0.0254296 0 -0.341642 0.0619161 0 0.0141396 0.0254296 0 154.712 154.712 1000.37 
84 1 1 0.075999 0.0472563 0 0 0 0 -0.0671681 0.0100659 0 -0.141271 0.0137915 0 -0.0671681 0.0100659 0 122.296 122.296 1000.29 
85 1 1 0.0970465 0.0468241 0 0 0 0 -0.0319623 -0.0549705 0 -0.128216 -0.0793835 0 -0.0319623 -0.0549705 0 144.086 144.086 1000.34 
86 1 1 0.108049 0.0466841 0 0 0 0 0.00466334 -0.0732352 0 -0.0805755 -0.0782135 0 0.00466334 -0.0732352 0 193.565 193.565 1000.46 
87 1 1 0.123454 0.0483785 0 0 0 0 0.0396897 -0.0137204 0 0.151845 -0.0740566 0 0.0396897 -0.0137204 0 136.442 136.442 1000.32 
88 1 1 0.136412 0.0463591 0 0 0 0 0.0582305 -0.0587167 0 -0.118201 0.0644924 0 0.0582305 -0.0587167 0 189.255 189.255 1000.45 
89 1 1 0.147388 0.047218 0 0 0 0 0.0481223 -0.0390487 0 -0.0170179 0.0224574 0 0.0481223 -0.0390487 0 182.497 182.497 1000.43 
90 1 1 0.153311 0.0547484 0 0 0 0 0.0850844 -0.0570881 0 -0.0145957 -0.0249339 0 0.0850844 -0.0570881 0 81.1254 81.1254 1000.19 
91 1 1 0.00980855 0.0491638 0 0 0 0 0.177874 -0.243415 0 2.78131 -3.2242 0 0.177874 -0.243415 0 -896.323 -896.323 997.852 
92 1 1 0.0246226 0.0402922 0 0 0 0 0.0611643 -0.0443125 0 -0.6234 0.285929 0 0.0611643 -0.0443125 0 80.8952 80.8952 1000.19 
93 1 1 0.0507289 0.044003 0 0 0 0 0.122811 -0.013031 0 -0.221787 0.278175 0 0.122811 -0.013031 0 121.803 121.803 1000.29 
94 1 1 0.0660048 0.0499727 0 0 0 0 0.0198417 0.0726974 0 -0.233999 0.0494907 0 0.0198417 0.0726974 0 57.8487 57.8487 1000.14 
95 1 1 0.0845238 0.0533313 0 0 0 0 -0.0648767 0.0496474 0 -0.42464 -0.136128 0 -0.0648767 0.0496474 0 179.75 179.75 1000.43 
96 1 1 0.0912234 0.0593489 0 0 0 0 -0.18236 0.0770062 0 -0.0243429 -0.0893857 0 -0.18236 0.0770062 0 78.829 78.829 1000.19 
97 1 1 0.0998807 0.0573592 0 0 0 0 -0.245542 -0.0840767 0 0.088249 -0.117047 0 -0.245542 -0.0840767 0 87.9732 87.9732 1000.21 
98 1 1 0.115463 0.0540222 0 0 0 0 -0.0166394 -0.144222 0 0.138818 0.126433 0 -0.0166394 -0.144222 0 237.21 237.21 1000.56 
99 1 1 0.132186 0.0530219 0 0 0 0 -0.0193402 -0.0261376 0 -0.0407795 0.202085 0 -0.0193402 -0.0261376 0 87.6908 87.6908 1000.21 
100 1 1 0.113116 0.064077 0 0 0 0 -0.134131 -0.151662 0 -0.00598806 -0.0505105 0 -0.134131 -0.151662 0 89.5184 89.5184 1000.21 
101 1 1 0.201216 0.019991 0 0 0 0 0.105799 0.0199416 0 -0.1352 -0.00509767 0 0.105799 0.0199416 0 494.016 494.016 1001.17 
102 1 1 0.203626 0.00943665 0 0 0 0 0.159352 0.0194552 0 -0.0775771 0.000996619 0 0.159352 0.0194552 0 574.326 574.326 1001.36 
103 1 1 0.210999 0.0170778 0 0 0 0 0.15146 0.00760079 0 -0.0629689 -0.0314067 0 0.15146 0.00760079 0 524.556 524.556 1001.24 
104 1 1 0.215005 0.00789545 0 0 0 0 0.130841 -0.0118649 0 -0.0376699 0.0133045 0 0.130841 -0.0118649 0 614.91 614.91 1001.46 
105 1 1 0.221934 0.0161309 0 0 0 0 0.0992792 0.0082095 0 -0.0804688 0.0133662 0 0.0992792 0.0082095 0 536.372 536.372 1001.27 
106 1 1 0.228118 0.0079173 0 0 0 0 0.164491 -0.00540892 0 -0.030488 -0.0666792 0 0.164491 -0.00540892 0 610.608 610.608 1001.45 
107 1 1 0.237905 0.0143855 0 0 0 0 0.141264 0.0195116 0 -0.124295 0.0604564 0 0.141264 0.0195116 0 598.035 598.035 1001.42 
108 1 1 0.242578 0.00784195 0 0 0 0 0.153115 -0.0109964 0 -0.0387698 0.0463118 0 0.153115 -0.0109964 0 647.202 647.202 1001.53 
109 1 1 0.249984 0.0183752 0 0 0 0 0.167413 -0.0110048 0 -0.153612 -0.0889606 0 0.167413 -0.0110048 0 545.946 545.946 1001.29 
110 1 1 0.253971 0.0103274 0 0 0 0 0.13196 0.0278827 0 -0.17822 -0.0162257 0 0.13196 0.0278827 0 616.108 616.108 1001.46 
111 1 1 0.262178 0.00901302 0 0 0 0 0.164029 -0.0337383 0 0.0117652 0.0207554 0 0.164029 -0.0337383 0 643.324 643.324 1001.52 
112 1 1 0.27301 0.00895419 0 0 0 0 0.174131 0.0163587 0 -0.236509 0.000912562 0 0.174131 0.0163587 0 650.239 650.239 1001.54 
113 1 1 0.282444 0.00989267 0 0 0 0 0.180904 -0.0405981 0 -0.0602359 0.0995368 0 0.180904 -0.0405981 0 661.075 661.075 1001.57 
114 1 1 0.291828 0.00899732 0 0 0 0 0.213403 0.0328916 0 -0.125934 -0.0183873 0 0.213403 0.0328916 0 676.357 676.357 1001.6 
115 1 1 0.299588 0.0187994 0 0 0 0 0.302364 0.0785571 0 0.0164388 0.0436752 0 0.302364 0.0785571 0 559.918 559.918 1001.33 
116 1 1 0.302655 0.0080523 0 0 0 0 0.173115 0.0183198 0 -0.045247 0.122822 0 0.173115 0.0183198 0 685.512 685.512 1001.62 
117 1 1 0.310525 0.0129696 0 0 0 0 0.156117 -0.00875741 0 -0.0453142 -0.11612 0 0.156117 -0.00875741 0 591.163 591.163 1001.4 
118 1 1 0.319458 0.0086969 0 0 0 0 0.190775 -0.0925253 0 -0.232253 -0.0461002 0 0.190775 -0.0925253 0 646.325 646.325 1001.53 
119 1 1 0.327672 0.0109103 0 0 0 0 0.244894 0.0253126 0 0.0360767 0.0167628 0 0.244894 0.0253126 0 643.445 643.445 1001.53 
120 1 1 0.335182 0.0111502 0 0 0 0 0.221798 0.0554784 0 -0.0342411 0.031523 0 0.221798 0.0554784 0 662.202 662.202 1001.57 
121 1 1 0.3417 0.0113846 0 0 0 0 0.191042 0.0408137 0 0.208485 0.025748 0 0.191042 0.0408137 0 671.713 671.713 1001.59 
122 1 1 0.349594 0.00983919 0 0 0 0 0.176359 -0.0168173 0 0.120707 -0.0426109 0 0.176359 -0.0168173 0 665.758 665.758 1001.58 
123 1 1 0.357475 0.0100763 0 0 0 0 0.153753 0.00956243 0 0.0897886 0.153275 0 0.153753 0.00956243 0 616.434 616.434 1001.46 
124 1 1 0.365629 0.0102775 0 0 0 0 0.146783 -0.00481115 0 -0.0548791 0.0826806 0 0.146783 -0.00481115 0 587.61 587.61 1001.39 
125 1 1 0.373668 0.0102803 0 0 0 0 0.149753 -0.0212757 0 -0.132286 -0.00391769 0 0.149753 -0.0212757 0 596.995 596.995 1001.42 
126 1 1 0.3816 0.0106521 0 0 0 0 0.163257 -0.0127243 0 -0.0889588 -0.07523 0 0.163257 -0.0127243 0 619.264 619.264 1001.47 
127 1 1 0.389419 0.0105998 0 0 0 0 0.169482 -0.0125435 0 -0.0671408 -0.157441 0 0.169482 -0.0125435 0 651.059 651.059 1001.54 
128 1 1 0.397129 0.0109898 0 0 0 0 0.171294 0.0228244 0 -0.0404442 -0.0260307 0 0.171294 0.0228244 0 672.606 672.606 1001.59 
129 1 1 0.404864 0.0102172 0 0 0 0 0.167812 -0.00776189 0 0.0100396 -0.120654 0 0.167812 -0.00776189 0 688.873 688.873 1001.63 
130 1 1 0.412584 0.0110539 0 0 0 0 0.155792 0.050699 0 0.0494108 0.152978 0 0.155792 0.050699 0 694.792 694.792 1001.65 
131 1 1 0.420489 0.0096754 0 0 0 0 0.139706 -0.0188486 0 0.0574957 -0.210212 0 0.139706 -0.0188486 0 710.989 710.989 1001.68 
132 1 1 0.42844 0.0110001 0 0 0 0 0.115008 0.0658467 0 0.0651509 0.207034 0 0.115008 0.0658467 0 694.353 694.353 1001.65 
133 1 1 0.436657 0.00917305 0 0 0 0 0.0902909 -0.0114204 0 0.0899548 -0.172061 0 0.0902909 -0.0114204 0 702.022 702.022 1001.66 
134 1 1 0.445164 0.0107492 0 0 0 0 0.0653679 0.0599628 0 0.0736248 0.174664 0 0.0653679 0.0599628 0 690.389 690.389 1001.64 
135 1 1 0.453844 0.00861652 0 0 0 0 0.0366587 -0.0107099 0 0.030813 -0.145166 0 0.0366587 -0.0107099 0 688.061 688.061 1001.63 
136 1 1 0.462945 0.0106276 0 0 0 0 0.0325503 0.0416873 0 0.089412 0.167226 0 0.0325503 0.0416873 0 669.974 669.974 1001.59 
137 1 1 0.471858 0.00819666 0 0 0 0 0.0027767 -0.00657267 0 -0.0118961 -0.0320523 0 0.0027767 -0.00657267 0 668.274 668.274 1001.58 
138 1 1 0.481411 0.01028 0 0 0 0 0.010774 0.00757407 0 0.0449465 0.039329 0 0.010774 0.00757407 0 633.508 633.508 1001.5 
139 1 1 0.490962 0.00761479 0 0 0 0 -0.00521169 -0.00527001 0 -0.0100958 0.0109503 0 -0.00521169 -0.00527001 0 627.291 627.291 1001.49 
140 1 1 0.206574 0.0341168 0 0 0 0 0.0896207 0.016267 0 -0.135045 0.107773 0 0.0896207 0.016267 0 353.39 353.39 1000.84 
141 1 1 0.208188 0.0281379 0 0 0 0 0.114814 -0.0182438 0 -0.0640952 -0.0326573 0 0.114814 -0.0182438 0 406.411 406.411 1000.96 
142 1 1 0.227622 0.0301057 0 0 0 0 0.192168 0.000836265 0 -0.126673 0.00720916 0 0.192168 0.000836265 0 415.699 415.699 1000.99 
143 1 1 0.217881 0.025672 0 0 0 0 0.133001 0.0371614 0 -0.0241347 0.0350463 0 0.133001 0.0371614 0 448.98 448.98 1001.07 
144 1 1 0.236382 0.0302861 0 0 0 0 0.167159 -0.00130338 0 0.0557922 0.0364359 0 0.167159 -0.00130338 0 412.472 412.472 1000.98 
145 1 1 0.230105 0.0194193 0 0 0 0 0.106398 -0.0591542 0 -0.0863775 0.0237095 0 0.106398 -0.0591542 0 527.653 527.653 1001.25 
146 1 1 0.246591 0.0354263 0 0 0 0 0.193311 -0.0147432 0 -0.102633 0.0129233 0 0.193311 -0.0147432 0 333.651 333.651 1000.79 
147 1 1 0.242459 0.0239658 0 0 0 0 0.0873936 -0.00993192 0 -0.05384 0.0826469 0 0.0873936 -0.00993192 0 484.683 484.683 1001.15 
148 1 1 0.254156 0.0280883 0 0 0 0 0.12152 0.00362745 0 -0.0816106 -0.0625111 0 0.12152 0.00362745 0 468.027 468.027 1001.11 
149 1 1 0.260999 0.020885 0 0 0 0 0.147584 -0.0172275 0 -0.0587975 0.0266551 0 0.147584 -0.0172275 0 531.523 531.523 1001.26 
150 1 1 0.281359 0.0296268 0 0 0 0 0.257741 -0.0827723 0 -0.103417 -0.0347311 0 0.257741 -0.0827723 0 461.809 461.809 1001.1 
151 1 1 0.269629 0.0188613 0 0 0 0 0.123587 -0.0270229 0 -0.00360418 -0.0370068 0 0.123587 -0.0270229 0 559.885 559.885 1001.33 
152 1 1 0.280052 0.0192343 0 0 0 0 0.154682 0.00346483 0 -0.0163197 0.0374977 0 0.154682 0.00346483 0 558.992 558.992 1001.33 
153 1 1 0.291645 0.0192471 0 0 0 0 0.146384 -0.112948 0 -0.0756722 0.0116857 0 0.146384 -0.112948 0 546.853 546.853 1001.3 
154 1 1 0.304522 0.0270593 0 0 0 0 0.214574 -0.00928309 0 -0.152626 -0.206832 0 0.214574 -0.00928309 0 528.945 528.945 1001.25 
155 1 1 0.312817 0.0195929 0 0 0 0 0.297391 0.0066545 0 -0.0148531 0.062941 0 0.297391 0.0066545 0 582.519 582.519 1001.38 
156 1 1 0.317117 0.0298678 0 0 0 0 0.26137 -0.0553437 0 -0.0800367 -0.123985 0 0.26137 -0.0553437 0 474.54 474.54 1001.13 
157 1 1 0.323902 0.0205537 0 0 0 0 0.20915 -0.0849826 0 -0.0125487 -0.0458968 0 0.20915 -0.0849826 0 616.585 616.585 1001.46 
158 1 1 0.329707 0.0263666 0 0 0 0 0.196626 0.063482 0 -0.00680386 -0.113343 0 0.196626 0.063482 0 526.123 526.123 1001.25 
159 1 1 0.337012 0.0262065 0 0 0 0 0.221267 0.0539102 0 -0.181401 -0.220415 0 0.221267 0.0539102 0 533.35 533.35 1001.27 
160 1 1 0.344041 0.023762 0 0 0 0 0.234618 -0.00384385 0 -0.0168998 -0.266748 0 0.234618 -0.00384385 0 556.308 556.308 1001.32 
161 1 1 0.351358 0.0236842 0 0 0 0 0.255358 0.042359 0 0.00163645 0.0582599 0 0.255358 0.042359 0 549.531 549.531 1001.3 
162 1 1 0.357931 0.0233486 0 0 0 0 0.227371 0.049889 0 0.0406199 0.15442 0 0.227371 0.049889 0 560.654 560.654 1001.33 
163 1 1 0.364903 0.0229119 0 0 0 0 0.215934 0.0312913 0 0.19634 0.136786 0 0.215934 0.0312913 0 565.157 565.157 1001.34 
164 1 1 0.372247 0.0225978 0 0 0 0 0.186282 0.0129323 0 0.239361 0.143842 0 0.186282 0.0129323 0 546.15 546.15 1001.3 
165 1 1 0.379913 0.0225506 0 0 0 0 0.146888 -0.000806631 0 0.188988 0.123336 0 0.146888 -0.000806631 0 505.444 505.444 1001.2 
166 1 1 0.387973 0.0225739 0 0 0 0 0.118275 -0.0138143 0 0.0784944 0.0256511 0 0.118275 -0.0138143 0 464.211 464.211 1001.1 
167 1 1 0.396294 0.022771 0 0 0 0 0.105455 -0.00992359 0 -0.00326997 -0.064631 0 0.105455 -0.00992359 0 447.147 447.147 1001.06 
168 1 1 0.404621 0.0227179 0 0 0 0 0.0965104 -0.00798065 0 -0.029728 -0.159112 0 0.0965104 -0.00798065 0 452.285 452.285 1001.07 
169 1 1 0.413097 0.0229893 0 0 0 0 0.093985 0.0146761 0 -0.0316447 -0.142843 0 0.093985 0.0146761 0 461.596 461.596 1001.1 
170 1 1 0.421449 0.0222504 0 0 0 0 0.0832342 0.00619581 0 -0.0579314 -0.142619 0 0.0832342 0.00619581 0 474.897 474.897 1001.13 
171 1 1 0.430084 0.0229031 0 0 0 0 0.0916886 0.0400742 0 -0.0611184 -0.092075 0 0.0916886 0.0400742 0 479.639 479.639 1001.14 
172 1 1 0.438394 0.0212222 0 0 0 0 0.0805341 -0.000938254 0 -0.075874 -0.0736413 0 0.0805341 -0.000938254 0 515.911 515.911 1001.22 
173 1 1 0.447021 0.0224663 0 0 0 0 0.0890305 0.047723 0 0.00453951 -0.0233045 0 0.0890305 0.047723 0 492.85 492.85 1001.17 
174 1 1 0.455394 0.019919 0 0 0 0 0.0647634 -0.0196266 0 -0.0545394 -0.0175689 0 0.0647634 -0.0196266 0 536.756 536.756 1001.27 
175 1 1 0.464217 0.0221687 0 0 0 0 0.0611851 0.0433413 0 -0.00246355 -0.108138 0 0.0611851 0.0433413 0 511.48 511.48 1001.21 
176 1 1 0.472912 0.0192318 0 0 0 0 0.0441356 -0.014536 0 -0.0435957 -0.0358377 0 0.0441356 -0.014536 0 550.258 550.258 1001.31 
177 1 1 0.482221 0.0205125 0 0 0 0 0.0214668 0.0225753 0 -0.0378778 -0.0431476 0 0.0214668 0.0225753 0 537.942 537.942 1001.28 
178 1 1 0.491042 0.0189833 0 0 0 0 0.016512 0.0027283 0 -0.0231148 -0.0015771 0 0.016512 0.0027283 0 545.765 545.765 1001.29 
179 1 1 0.199301 0.0438625 0 0 0 0 0.0420018 -0.0267528 0 -0.0862821 -0.0549645 0 0.0420018 -0.0267528 0 227.755 227.755 1000.54 
180 1 1 0.215117 0.0416431 0 0 0 0 0.0936531 0.000318398 0 -0.12461 -0.0145956 0 0.0936531 0.000318398 0 305.192 305.192 1000.73 
181 1 1 0.224569 0.046462 0 0 0 0 0.108137 -0.0745887 0 0.103211 0.00265613 0 0.108137 -0.0745887 0 213.431 213.431 1000.51 
182 1 1 0.222492 0.0363586 0 0 0 0 0.134653 -0.0937211 0 -0.0474391 0.00927834 0 0.134653 -0.0937211 0 337.838 337.838 1000.8 
183 1 1 0.241209 0.051213 0 0 0 0 0.117391 -0.0361628 0 -0.102448 0.08349 0 0.117391 -0.0361628 0 214.049 214.049 1000.51 
184 1 1 0.235358 0.0409676 0 0 0 0 0.16576 0.0281558 0 -0.340574 0.0692884 0 0.16576 0.0281558 0 305.843 305.843 1000.73 
185 1 1 0.243689 0.0436132 0 0 0 0 0.159679 -0.014743 0 0.0956246 -0.0329998 0 0.159679 -0.014743 0 253.201 253.201 1000.6 
186 1 1 0.257998 0.0347799 0 0 0 0 0.182275 -0.0614568 0 0.0320751 0.029584 0 0.182275 -0.0614568 0 390.712 390.712 1000.93 
187 1 1 0.270102 0.0274428 0 0 0 0 0.207815 -0.0269856 0 -0.230504 0.0798811 0 0.207815 -0.0269856 0 475.33 475.33 1001.13 
188 1 1 0.274283 0.0376542 0 0 0 0 0.208695 -0.0530884 0 -0.0166067 -0.0343048 0 0.208695 -0.0530884 0 391.501 391.501 1000.93 
189 1 1 0.292591 0.0405054 0 0 0 0 0.271566 0.0250877 0 -0.039297 -0.00313524 0 0.271566 0.0250877 0 344.341 344.341 1000.82 
190 1 1 0.289063 0.0282107 0 0 0 0 0.254192 -0.0232788 0 -0.0310473 0.0392606 0 0.254192 -0.0232788 0 488.478 488.478 1001.16 
191 1 1 0.295901 0.0513604 0 0 0 0 0.328215 0.00788396 0 0.00798222 -0.111882 0 0.328215 0.00788396 0 248.393 248.393 1000.59 
192 1 1 0.297239 0.0344126 0 0 0 0 0.187235 -0.0692028 0 -0.0564926 -0.0258488 0 0.187235 -0.0692028 0 438.781 438.781 1001.04 
193 1 1 0.308725 0.0343871 0 0 0 0 0.257644 0.0100759 0 0.104955 0.239206 0 0.257644 0.0100759 0 408.701 408.701 1000.97 
194 1 1 0.313016 0.0470944 0 0 0 0 0.240466 -0.00487693 0 0.0803658 -0.333591 0 0.240466 -0.00487693 0 331.865 331.865 1000.79 
195 1 1 0.321222 0.0363594 0 0 0 0 0.240537 0.0287337 0 -0.221069 0.181933 0 0.240537 0.0287337 0 424.355 424.355 1001.01 
196 1 1 0.328506 0.0390621 0 0 0 0 0.274736 -0.0205286 0 0.141672 -0.131366 0 0.274736 -0.0205286 0 398.609 398.609 1000.95 
197 1 1 0.336172 0.0425321 0 0 0 0 0.345145 0.0599971 0 0.150718 -0.0420916 0 0.345145 0.0599971 0 343.408 343.408 1000.82 
198 1 1 0.342383 0.0363429 0 0 0 0 0.271085 -0.0800153 0 -0.15222 0.0185739 0 0.271085 -0.0800153 0 440.633 440.633 1001.05 
199 1 1 0.348721 0.0397448 0 0 0 0 0.263734 0.0852269 0 -0.225383 0.145441 0 0.263734 0.0852269 0 403.819 403.819 1000.96 
200 1 1 0.355441 0.03886 0 0 0 0 0.288127 0.0369763 0 -0.13411 -0.253452 0 0.288127 0.0369763 0 442.475 442.475 1001.05 
201 1 1 0.362184 0.0381333 0 0 0 0 0.293949 0.0426024 0 -0.0559801 -0.152287 0 0.293949 0.0426024 0 457.113 457.113 1001.08 
202 1 1 0.368616 0.0375631 0 0 0 0 0.296222 0.0631843 0 0.0245306 0.0367125 0 0.296222 0.0631843 0 458.264 458.264 1001.09 
203 1 1 0.375269 0.0367624 0 0 0 0 0.289859 0.0605494 0 0.052165 0.0820371 0 0.289859 0.0605494 0 468.435 468.435 1001.11 
204 1 1 0.381957 0.0361819 0 0 0 0 0.27276 0.0626982 0 0.136815 0.119606 0 0.27276 0.0626982 0 474.562 474.562 1001.13 
205 1 1 0.388866 0.035542 0 0 0 0 0.246909 0.0568977 0 0.229889 0.0809984 0 0.246909 0.0568977 0 476.753 476.753 1001.13 
206 1 1 0.396181 0.0349833 0 0 0 0 0.211796 0.0572357 0 0.280501 0.0793057 0 0.211796 0.0572357 0 460.873 460.873 1001.09 
207 1 1 0.403867 0.0344659 0 0 0 0 0.16856 0.0581861 0 0.267934 0.0929048 0 0.16856 0.0581861 0 426.574 426.574 1001.01 
208 1 1 0.411973 0.0339621 0 0 0 0 0.131748 0.0571353 0 0.193773 0.124531 0 0.131748 0.0571353 0 391.657 391.657 1000.93 
209 1 1 0.420409 0.0335543 0 0 0 0 0.100518 0.0567623 0 0.106093 0.0942854 0 0.100518 0.0567623 0 365.621 365.621 1000.87 
210 1 1 0.428901 0.0331038 0 0 0 0 0.0792805 0.0482521 0 0.0747998 0.16426 0 0.0792805 0.0482521 0 362.275 362.275 1000.86 
211 1 1 0.437723 0.0327044 0 0 0 0 0.0526911 0.0567454 0 -0.0262341 0.0411175 0 0.0526911 0.0567454 0 341.478 341.478 1000.81 
212 1 1 0.44644 0.0324361 0 0 0 0 0.0422474 0.0257843 0 -0.0525294 0.0472195 0 0.0422474 0.0257843 0 372.917 372.917 1000.89 
213 1 1 0.455464 0.0317276 0 0 0 0 0.0407178 0.0822408 0 -0.00837754 0.0295359 0 0.0407178 0.0822408 0 369.975 369.975 1000.88 
214 1 1 0.463706 0.0322679 0 0 0 0 0.0099827 0.00146168 0 0.0319732 0.171872 0 0.0099827 0.00146168 0 379.094 379.094 1000.9 
215 1 1 0.472728 0.0303227 0 0 0 0 0.0173576 0.0657746 0 -0.0189841 0.126737 0 0.0173576 0.0657746 0 381.914 381.914 1000.91 
216 1 1 0.480989 0.0315579 0 0 0 0 -0.0132282 0.0057601 0 -0.0669626 0.0238367 0 -0.0132282 0.0057601 0 402.307 402.307 1000.96 
217 1 1 0.489973 0.0300534 0 0 0 0 -0.0122551 0.0243562 0 0.0173987 0.00514226 0 -0.0122551 0.0243562 0 414.322 414.322 1000.98 
218 1 1 0.208567 0.0472716 0 0 0 0 0.123612 -0.0503514 0 0.0408052 0.0478005 0 0.123612 -0.0503514 0 220.244 220.244 1000.52 
219 1 1 0.18681 0.0559675 0 0 0 0 0.0632351 -0.040643 0 0.0608046 0.0112281 0 0.0632351 -0.040643 0 129.104 129.104 1000.31 
220 1 1 0.205266 0.0555153 0 0 0 0 0.0318289 -0.0440976 0 -0.00258743 -0.0546664 0 0.0318289 -0.0440976 0 113.861 113.861 1000.27 
221 1 1 0.231476 0.0592123 0 0 0 0 0.148257 -0.0661527 0 -0.209993 0.100268 0 0.148257 -0.0661527 0 102.517 102.517 1000.24 
222 1 1 0.226839 0.0524287 0 0 0 0 0.116641 -0.0677533 0 -0.0385396 -0.0256723 0 0.116641 -0.0677533 0 115.899 115.899 1000.28 
223 1 1 0.256959 0.0445163 0 0 0 0 0.273767 -0.0722799 0 -0.282968 0.0483293 0 0.273767 -0.0722799 0 310.075 310.075 1000.74 
224 1 1 0.266886 0.0390813 0 0 0 0 0.262518 -0.0683 0 -0.211171 -0.00143684 0 0.262518 -0.0683 0 356.062 356.062 1000.85 
225 1 1 0.27106 0.0496521 0 0 0 0 0.294784 -0.0614011 0 -0.0642827 -0.0103531 0 0.294784 -0.0614011 0 229.567 229.567 1000.55 
226 1 1 0.277675 0.0572869 0 0 0 0 0.213842 -0.0858708 0 -0.218218 -0.0967377 0 0.213842 -0.0858708 0 241.32 241.32 1000.57 
227 1 1 0.282431 0.0421591 0 0 0 0 0.263996 -0.0789346 0 -0.0922669 -0.0537144 0 0.263996 -0.0789346 0 357.008 357.008 1000.85 
228 1 1 0.285502 0.0500525 0 0 0 0 0.239569 -0.0925833 0 -0.105377 0.0425419 0 0.239569 -0.0925833 0 281.798 281.798 1000.67 
229 1 1 0.297576 0.0590737 0 0 0 0 0.214912 -0.0654512 0 -0.202618 -0.0513688 0 0.214912 -0.0654512 0 188.321 188.321 1000.45 
230 1 1 0.304286 0.0442895 0 0 0 0 0.294172 -0.0614018 0 -0.164773 -0.0579587 0 0.294172 -0.0614018 0 354.18 354.18 1000.84 
231 1 1 0.305376 0.0610158 0 0 0 0 0.276767 -0.0107425 0 -0.0108982 -0.131847 0 0.276767 -0.0107425 0 180.099 180.099 1000.43 
232 1 1 0.312711 0.053432 0 0 0 0 0.288324 -0.00231802 0 0.15966 0.194254 0 0.288324 -0.00231802 0 236.797 236.797 1000.56 
233 1 1 0.323462 0.0485723 0 0 0 0 0.300057 -0.0822299 0 -0.179954 0.113547 0 0.300057 -0.0822299 0 308.682 308.682 1000.73 
234 1 1 0.327435 0.0592411 0 0 0 0 0.238316 0.0379616 0 -0.129312 -0.193677 0 0.238316 0.0379616 0 236.291 236.291 1000.56 
235 1 1 0.334284 0.0524006 0 0 0 0 0.2562 -0.0235472 0 0.00326327 -0.0668585 0 0.2562 -0.0235472 0 296.298 296.298 1000.7 
236 1 1 0.341914 0.0556367 0 0 0 0 0.255935 0.0392684 0 -0.0951311 -0.0330264 0 0.255935 0.0392684 0 286.403 286.403 1000.68 