ITEM: TIMESTEP
187000
ITEM: NUMBER OF ATOMS
754
ITEM: BOX BOUNDS ff ff pp
-0.021 0.521
-0.021 0.5
-0.001 0.001
ITEM: ATOMS id type type x y z ix iy iz vx vy vz fx fy fz vx vy vz p p rho 
1 1 1 0.00615447 0.00232869 0 0 0 0 -0.00329612 -0.00590838 0 0.014059 -0.014913 0 -0.00329612 -0.00590838 0 458.102 458.102 1001.09 
2 1 1 0.0292251 0.00484757 0 0 0 0 0.0137209 -0.00629201 0 -0.0115447 0.00561389 0 0.0137209 -0.00629201 0 422.247 422.247 1001 
3 1 1 0.0634315 0.0059455 0 0 0 0 0.0181419 -0.010003 0 -0.0256767 -0.00218031 0 0.0181419 -0.010003 0 452.549 452.549 1001.07 
4 1 1 0.077406 0.00502591 0 0 0 0 0.030245 0.00964374 0 -0.00901837 0.00561104 0 0.030245 0.00964374 0 435.822 435.822 1001.03 
5 1 1 0.0956169 0.00514025 0 0 0 0 0.0191927 -0.0108649 0 -0.0489718 0.000927374 0 0.0191927 -0.0108649 0 456.446 456.446 1001.08 
6 1 1 0.110169 0.00592515 0 0 0 0 0.0389333 0.00141006 0 -0.0201301 0.00319496 0 0.0389333 0.00141006 0 448.402 448.402 1001.06 
7 1 1 0.157086 0.00515167 0 0 0 0 -0.0360698 -0.00214565 0 -0.0308582 0.00668518 0 -0.0360698 -0.00214565 0 453.213 453.213 1001.08 
8 1 1 0.133864 0.0142038 0 0 0 0 -0.0319368 -0.00375516 0 -0.0565237 -0.0341622 0 -0.0319368 -0.00375516 0 399.183 399.183 1000.95 
9 1 1 0.18971 0.00600988 0 0 0 0 -0.00717477 0.00133137 0 -0.0841547 -0.018556 0 -0.00717477 0.00133137 0 439.146 439.146 1001.04 
10 1 1 0.201367 0.00686315 0 0 0 0 -0.00766287 -0.00199688 0 0.00808981 -0.0158592 0 -0.00766287 -0.00199688 0 441.925 441.925 1001.05 
11 1 1 0.0325586 0.0168434 0 0 0 0 0.0126306 -0.00480437 0 -0.0270695 -0.0600524 0 0.0126306 -0.00480437 0 377.161 377.161 1000.9 
12 1 1 0.050384 0.00598848 0 0 0 0 0.0277937 0.0118746 0 -0.0120047 -0.00710637 0 0.0277937 0.0118746 0 419.919 419.919 1001 
13 1 1 0.070236 0.0138533 0 0 0 0 0.0142439 -0.019833 0 0.0117092 -0.0332582 0 0.0142439 -0.019833 0 396.373 396.373 1000.94 
14 1 1 0.0854613 0.010949 0 0 0 0 0.0145157 0.00305587 0 0.018738 0.0070899 0 0.0145157 0.00305587 0 420.473 420.473 1001 
15 1 1 0.104274 0.0143493 0 0 0 0 0.0133304 -0.0181109 0 0.0214264 -0.0363757 0 0.0133304 -0.0181109 0 391.582 391.582 1000.93 
16 1 1 0.139953 0.00600457 0 0 0 0 0.00160966 0.00178605 0 0.0136742 -0.00573536 0 0.00160966 0.00178605 0 434.158 434.158 1001.03 
17 1 1 0.152217 0.0189291 0 0 0 0 0.0316285 0.0102191 0 -0.0109902 -0.0254653 0 0.0316285 0.0102191 0 376.988 376.988 1000.9 
18 1 1 0.171018 0.0059658 0 0 0 0 -0.019177 -0.00665357 0 -0.0922747 0.00667348 0 -0.019177 -0.00665357 0 451.34 451.34 1001.07 
19 1 1 0.199211 0.0153191 0 0 0 0 -0.0131488 0.0123183 0 -0.0493593 -0.0415937 0 -0.0131488 0.0123183 0 403.544 403.544 1000.96 
20 1 1 0.189886 0.0168468 0 0 0 0 -0.0097571 -0.00945071 0 0.00092709 -0.00319577 0 -0.0097571 -0.00945071 0 405.531 405.531 1000.96 
21 1 1 0.0324525 0.0260703 0 0 0 0 0.0170733 -0.017351 0 -0.0167911 0.0185136 0 0.0170733 -0.017351 0 331.108 331.108 1000.79 
22 1 1 0.0402477 0.00828775 0 0 0 0 0.0233807 -0.00882198 0 -0.023332 0.00304686 0 0.0233807 -0.00882198 0 429.748 429.748 1001.02 
23 1 1 0.0579486 0.0146372 0 0 0 0 0.0172155 0.00694818 0 0.0207978 -0.00179568 0 0.0172155 0.00694818 0 382.812 382.812 1000.91 
24 1 1 0.0849466 0.0278114 0 0 0 0 0.0435517 -0.00226551 0 -0.0428497 0.0190894 0 0.0435517 -0.00226551 0 303.005 303.005 1000.72 
25 1 1 0.073265 0.0291435 0 0 0 0 0.040991 -0.00190621 0 -0.0221745 -0.0601746 0 0.040991 -0.00190621 0 289.422 289.422 1000.69 
26 1 1 0.125538 0.00485493 0 0 0 0 0.0224049 0.0030872 0 -0.0155601 -0.0020495 0 0.0224049 0.0030872 0 454.788 454.788 1001.08 
27 1 1 0.124997 0.0156928 0 0 0 0 -0.026734 0.0237432 0 0.0353662 0.0693044 0 -0.026734 0.0237432 0 394.063 394.063 1000.94 
28 1 1 0.167989 0.0147455 0 0 0 0 0.0110782 0.00953605 0 -0.0101904 0.0103136 0 0.0110782 0.00953605 0 416.983 416.983 1000.99 
29 1 1 0.180396 0.0098855 0 0 0 0 -0.0177397 -0.00853827 0 -0.0276484 0.00606748 0 -0.0177397 -0.00853827 0 427.591 427.591 1001.01 
30 1 1 0.201074 0.0231223 0 0 0 0 0.00520341 0.000754176 0 -0.0568549 -0.00314137 0 0.00520341 0.000754176 0 349.019 349.019 1000.83 
31 1 1 0.0183764 0.00893838 0 0 0 0 0.000635977 0.0011502 0 0.0376725 0.00375102 0 0.000635977 0.0011502 0 419.81 419.81 1001 
32 1 1 0.0420383 0.0170917 0 0 0 0 0.00596042 -0.0233092 0 -0.0134666 0.0280389 0 0.00596042 -0.0233092 0 369.169 369.169 1000.88 
33 1 1 0.0637826 0.0339314 0 0 0 0 0.0155063 -0.0132432 0 -0.017269 -0.00905799 0 0.0155063 -0.0132432 0 261.474 261.474 1000.62 
34 1 1 0.0874589 0.0186222 0 0 0 0 0.0239569 -0.0050407 0 0.0362588 0.0134136 0 0.0239569 -0.0050407 0 373.986 373.986 1000.89 
35 1 1 0.129043 0.024785 0 0 0 0 0.071053 0.01272 0 -0.0288224 -0.0244429 0 0.071053 0.01272 0 330.757 330.757 1000.79 
36 1 1 0.140096 0.0191706 0 0 0 0 0.0166167 -0.0269266 0 -0.0228762 0.0443053 0 0.0166167 -0.0269266 0 383.188 383.188 1000.91 
37 1 1 0.147811 0.0114214 0 0 0 0 -0.00324273 0.0270893 0 -0.011897 0.037137 0 -0.00324273 0.0270893 0 410.8 410.8 1000.98 
38 1 1 0.180041 0.0187985 0 0 0 0 0.0123789 0.00701419 0 -0.0113249 -0.0145321 0 0.0123789 0.00701419 0 382.994 382.994 1000.91 
39 1 1 0.197152 0.0319168 0 0 0 0 0.00179979 0.020712 0 -0.0338337 0.0267219 0 0.00179979 0.020712 0 286.617 286.617 1000.68 
40 1 1 0.155251 0.0301341 0 0 0 0 0.00304494 0.0151906 0 0.0174018 0.0737866 0 0.00304494 0.0151906 0 307.083 307.083 1000.73 
41 1 1 0.0118547 0.013896 0 0 0 0 0.0141391 -0.0123488 0 -0.0231782 -0.0163337 0 0.0141391 -0.0123488 0 381.708 381.708 1000.91 
42 1 1 0.0341042 0.0411273 0 0 0 0 0.00546597 -0.011128 0 -0.0437864 0.0214811 0 0.00546597 -0.011128 0 198.851 198.851 1000.47 
43 1 1 0.05145 0.0177399 0 0 0 0 0.0176355 0.0104013 0 -0.0380282 -0.0360328 0 0.0176355 0.0104013 0 357.756 357.756 1000.85 
44 1 1 0.0791232 0.0358814 0 0 0 0 0.013432 0.00883401 0 -0.015986 8.56726e-05 0 0.013432 0.00883401 0 245.918 245.918 1000.58 
45 1 1 0.0970672 0.0155753 0 0 0 0 0.0202942 0.00103048 0 -0.0213425 0.0243393 0 0.0202942 0.00103048 0 392.082 392.082 1000.93 
46 1 1 0.117677 0.028188 0 0 0 0 0.0409444 0.00971101 0 0.066202 -0.024634 0 0.0409444 0.00971101 0 296.21 296.21 1000.7 
47 1 1 0.160039 0.0156273 0 0 0 0 0.0228739 -0.0198062 0 0.00277814 0.0106777 0 0.0228739 -0.0198062 0 416.171 416.171 1000.99 
48 1 1 0.188294 0.0264055 0 0 0 0 0.0249424 0.00518438 0 -0.0228696 -0.0213564 0 0.0249424 0.00518438 0 334.597 334.597 1000.79 
49 1 1 0.184848 0.0344085 0 0 0 0 0.0249299 0.0185811 0 -0.0216593 0.00940918 0 0.0249299 0.0185811 0 278.663 278.663 1000.66 
50 1 1 0.167198 0.0490606 0 0 0 0 0.023147 -0.0159589 0 -0.0134862 0.0184817 0 0.023147 -0.0159589 0 229.453 229.453 1000.55 
51 1 1 0.0245717 0.0156895 0 0 0 0 -0.0013459 -0.0085702 0 -0.0315584 0.0964879 0 -0.0013459 -0.0085702 0 390.644 390.644 1000.93 
52 1 1 0.0459943 0.0266286 0 0 0 0 0.0439863 -0.00438247 0 -0.0773933 0.0124101 0 0.0439863 -0.00438247 0 295.647 295.647 1000.7 
53 1 1 0.0660861 0.0213865 0 0 0 0 0.0347531 -0.0117274 0 -0.0541171 0.00136306 0 0.0347531 -0.0117274 0 345.657 345.657 1000.82 
54 1 1 0.0946779 0.0285122 0 0 0 0 0.0374702 0.0145681 0 -0.0413398 -0.010944 0 0.0374702 0.0145681 0 297.745 297.745 1000.71 
55 1 1 0.0978367 0.0380997 0 0 0 0 0.0419439 0.0154594 0 0.0769551 -0.0302379 0 0.0419439 0.0154594 0 200.736 200.736 1000.48 
56 1 1 0.109052 0.0327403 0 0 0 0 0.0244807 0.0044531 0 -0.0521556 -0.00774005 0 0.0244807 0.0044531 0 256.471 256.471 1000.61 
57 1 1 0.145961 0.0278722 0 0 0 0 0.00192714 -0.00833886 0 -0.0160025 -0.0317187 0 0.00192714 -0.00833886 0 323.027 323.027 1000.77 
58 1 1 0.137355 0.0316663 0 0 0 0 0.0388287 0.0220907 0 -0.012093 -0.0307529 0 0.0388287 0.0220907 0 297.711 297.711 1000.71 
59 1 1 0.175506 0.0336744 0 0 0 0 0.0161588 -0.0161734 0 -0.0403343 -0.00498316 0 0.0161588 -0.0161734 0 288.014 288.014 1000.68 
60 1 1 0.178311 0.044518 0 0 0 0 -0.00190568 -0.0127677 0 -0.0114435 0.0195155 0 -0.00190568 -0.0127677 0 223.599 223.599 1000.53 
61 1 1 0.057523 0.0275286 0 0 0 0 0.0398345 7.48509e-05 0 -0.00990949 -0.0333223 0 0.0398345 7.48509e-05 0 306.671 306.671 1000.73 
62 1 1 0.00884757 0.0208289 0 0 0 0 -0.0322683 0.00720842 0 -0.0118284 -0.0354995 0 -0.0322683 0.00720842 0 331.018 331.018 1000.79 
63 1 1 0.077154 0.0183798 0 0 0 0 0.0224866 0.0192637 0 -0.00135751 -0.0152202 0 0.0224866 0.0192637 0 359.574 359.574 1000.85 
64 1 1 0.046938 0.0438014 0 0 0 0 -0.0235769 -0.0171204 0 -0.0690558 0.0127984 0 -0.0235769 -0.0171204 0 193.512 193.512 1000.46 
65 1 1 0.0889324 0.0405807 0 0 0 0 0.0181605 -0.0155778 0 -0.00495916 -0.0137385 0 0.0181605 -0.0155778 0 215.575 215.575 1000.51 
66 1 1 0.11669 0.0134283 0 0 0 0 0.00369611 0.0116667 0 0.0108534 -0.0552485 0 0.00369611 0.0116667 0 417.595 417.595 1000.99 
67 1 1 0.126757 0.0335375 0 0 0 0 0.0346715 0.00345452 0 -0.0759792 0.0684683 0 0.0346715 0.00345452 0 272.679 272.679 1000.65 
68 1 1 0.163942 0.0267726 0 0 0 0 -0.00304716 9.28615e-05 0 -0.0529482 -0.0164402 0 -0.00304716 9.28615e-05 0 333.997 333.997 1000.79 
69 1 1 0.173347 0.0236188 0 0 0 0 0.019265 0.00572783 0 0.0117711 0.0321913 0 0.019265 0.00572783 0 354.826 354.826 1000.84 
70 1 1 0.187903 0.0529927 0 0 0 0 0.0175268 0.0350221 0 -0.030768 0.0120847 0 0.0175268 0.0350221 0 180.683 180.683 1000.43 
71 1 1 0.00970383 0.0324194 0 0 0 0 0.0166436 0.0128301 0 0.0309487 -0.0451769 0 0.0166436 0.0128301 0 247.331 247.331 1000.59 
72 1 1 0.0375617 0.052378 0 0 0 0 -0.0149998 -0.0059404 0 0.0571899 0.0307234 0 -0.0149998 -0.0059404 0 153.351 153.351 1000.36 
73 1 1 0.0232537 0.0311854 0 0 0 0 0.00614103 -0.0375089 0 -0.0412757 0.0586004 0 0.00614103 -0.0375089 0 292.478 292.478 1000.69 
74 1 1 0.050887 0.0357326 0 0 0 0 0.00276199 0.00286744 0 0.00370417 -0.0212856 0 0.00276199 0.00286744 0 230.236 230.236 1000.55 
75 1 1 0.0795067 0.0477584 0 0 0 0 0.0294932 -0.00352342 0 0.0137273 -0.0605123 0 0.0294932 -0.00352342 0 173.245 173.245 1000.41 
76 1 1 0.11308 0.0206966 0 0 0 0 0.0145431 0.0328252 0 -0.0386325 0.0102839 0 0.0145431 0.0328252 0 347.12 347.12 1000.82 
77 1 1 0.102478 0.0256149 0 0 0 0 0.0119106 -0.0124996 0 0.0465131 -0.0156778 0 0.0119106 -0.0124996 0 317.697 317.697 1000.75 
78 1 1 0.156217 0.0428755 0 0 0 0 0.0159598 0.0327722 0 0.0134031 0.0142222 0 0.0159598 0.0327722 0 233.195 233.195 1000.55 
79 1 1 0.146516 0.0392768 0 0 0 0 0.0227864 0.011689 0 -0.0130019 -0.0395656 0 0.0227864 0.011689 0 224.388 224.388 1000.53 
80 1 1 0.157602 0.0582148 0 0 0 0 0.0312048 0.00741814 0 -0.0842008 0.0136754 0 0.0312048 0.00741814 0 165.448 165.448 1000.39 
81 1 1 0.01844 0.0245951 0 0 0 0 -0.0101768 -0.0229455 0 0.0610148 0.035721 0 -0.0101768 -0.0229455 0 333.539 333.539 1000.79 
82 1 1 0.0125973 0.0405559 0 0 0 0 0.0195458 -0.0171959 0 -0.020528 -0.0269826 0 0.0195458 -0.0171959 0 209.478 209.478 1000.5 
83 1 1 0.0383696 0.0330694 0 0 0 0 0.00939138 -0.0394329 0 0.0282907 -0.00166681 0 0.00939138 -0.0394329 0 263.487 263.487 1000.63 
84 1 1 0.0239989 0.0414394 0 0 0 0 0.017301 -0.0275475 0 -0.00295838 0.0756655 0 0.017301 -0.0275475 0 209.259 209.259 1000.5 
85 1 1 0.0696014 0.0428106 0 0 0 0 0.0162143 -0.00477985 0 -0.0519194 -0.024615 0 0.0162143 -0.00477985 0 189.506 189.506 1000.45 
86 1 1 0.1074 0.0436052 0 0 0 0 0.0586885 0.000717611 0 0.00630627 0.0747828 0 0.0586885 0.000717611 0 202.95 202.95 1000.48 
87 1 1 0.117296 0.0406245 0 0 0 0 0.0459729 -0.00169072 0 -0.00541908 0.0609306 0 0.0459729 -0.00169072 0 233.282 233.282 1000.55 
88 1 1 0.127244 0.0464243 0 0 0 0 0.0244848 0.027555 0 -0.0029544 -0.0782912 0 0.0244848 0.027555 0 200.871 200.871 1000.48 
89 1 1 0.136018 0.0428349 0 0 0 0 0.0191392 0.0339877 0 0.0112904 -0.00261462 0 0.0191392 0.0339877 0 193.891 193.891 1000.46 
90 1 1 0.146785 0.0501869 0 0 0 0 0.0164354 0.0193293 0 -0.0405802 0.0498693 0 0.0164354 0.0193293 0 163.99 163.99 1000.39 
91 1 1 0.05199 0.0562813 0 0 0 0 0.0162043 -0.0382745 0 0.0143362 0.0357633 0 0.0162043 -0.0382745 0 178.946 178.946 1000.43 
92 1 1 0.0250231 0.0549536 0 0 0 0 -0.00977414 -0.010338 0 -0.0544642 0.021483 0 -0.00977414 -0.010338 0 166.983 166.983 1000.4 
93 1 1 0.0127356 0.0507738 0 0 0 0 0.00223068 -0.0121152 0 0.00486453 0.0284073 0 0.00223068 -0.0121152 0 145.213 145.213 1000.35 
94 1 1 0.0679336 0.0547896 0 0 0 0 0.0217761 -0.0106332 0 -0.0686538 -0.00849847 0 0.0217761 -0.0106332 0 114.222 114.222 1000.27 
95 1 1 0.0839847 0.059116 0 0 0 0 0.047792 -0.0104556 0 0.0164379 -0.0436377 0 0.047792 -0.0104556 0 166.191 166.191 1000.4 
96 1 1 0.106272 0.0572702 0 0 0 0 0.0229811 -0.00526254 0 0.047077 0.0290155 0 0.0229811 -0.00526254 0 203.7 203.7 1000.48 
97 1 1 0.0590851 0.0448902 0 0 0 0 0.0161335 -0.0221974 0 -0.0414821 -0.00220249 0 0.0161335 -0.0221974 0 177.419 177.419 1000.42 
98 1 1 0.0953789 0.0506727 0 0 0 0 0.0346902 -0.0052231 0 -0.0442746 -0.0253286 0 0.0346902 -0.0052231 0 199.158 199.158 1000.47 
99 1 1 0.119964 0.0543304 0 0 0 0 0.0428679 0.0408601 0 -0.0728674 0.0416251 0 0.0428679 0.0408601 0 146.137 146.137 1000.35 
100 1 1 0.136154 0.0582597 0 0 0 0 -0.00547969 0.0320618 0 0.0249808 0.0261413 0 -0.00547969 0.0320618 0 192.51 192.51 1000.46 
101 1 1 0.210511 0.0145034 0 0 0 0 -0.0224649 -0.00798713 0 -0.0529418 0.021486 0 -0.0224649 -0.00798713 0 413.632 413.632 1000.98 
102 1 1 0.220732 0.0169418 0 0 0 0 0.014969 -0.015847 0 -0.0580386 -0.00668682 0 0.014969 -0.015847 0 403.984 403.984 1000.96 
103 1 1 0.229865 0.0244533 0 0 0 0 0.0241109 0.0210482 0 -0.0973323 0.0271099 0 0.0241109 0.0210482 0 345.761 345.761 1000.82 
104 1 1 0.214105 0.00582983 0 0 0 0 -0.00605877 -0.00414915 0 -0.0134656 -0.00412685 0 -0.00605877 -0.00414915 0 464.797 464.797 1001.1 
105 1 1 0.225015 0.00854639 0 0 0 0 -0.00526483 0.00275922 0 -0.0214305 -0.00425327 0 -0.00526483 0.00275922 0 450.319 450.319 1001.07 
106 1 1 0.236509 0.00519669 0 0 0 0 -0.00375302 -0.00627432 0 -0.00202926 -0.0193123 0 -0.00375302 -0.00627432 0 472.563 472.563 1001.12 
107 1 1 0.246918 0.0141135 0 0 0 0 0.0109943 0.00182972 0 -0.0607643 0.0126258 0 0.0109943 0.00182972 0 443.889 443.889 1001.05 
108 1 1 0.250625 0.00574239 0 0 0 0 0.00222638 0.00281276 0 0.0156251 0.0187773 0 0.00222638 0.00281276 0 482.542 482.542 1001.14 
109 1 1 0.260851 0.012205 0 0 0 0 -0.0064023 0.0105709 0 -0.0613653 0.0156019 0 -0.0064023 0.0105709 0 472.626 472.626 1001.12 
110 1 1 0.272364 0.0164206 0 0 0 0 -0.0113365 -0.0028089 0 -0.109096 -0.0335357 0 -0.0113365 -0.0028089 0 438.377 438.377 1001.04 
111 1 1 0.267226 0.00521443 0 0 0 0 -0.0228174 0.00377765 0 -0.055304 -0.0115742 0 -0.0228174 0.00377765 0 501.91 501.91 1001.19 
112 1 1 0.278047 0.00912587 0 0 0 0 -0.0185844 -0.00807315 0 -0.0148976 0.0174468 0 -0.0185844 -0.00807315 0 491.044 491.044 1001.17 
113 1 1 0.288126 0.00614541 0 0 0 0 -0.0173169 0.00300331 0 -0.0681464 -0.025462 0 -0.0173169 0.00300331 0 494.117 494.117 1001.17 
114 1 1 0.299859 0.0167179 0 0 0 0 -0.00883678 0.0143408 0 -0.0827468 -0.0364374 0 -0.00883678 0.0143408 0 457.84 457.84 1001.09 
115 1 1 0.326243 0.0255894 0 0 0 0 -0.0164105 -0.0164618 0 -0.104705 -0.0149799 0 -0.0164105 -0.0164618 0 435.933 435.933 1001.03 
116 1 1 0.300566 0.00594688 0 0 0 0 -0.0270389 0.00389013 0 0.0124563 0.00215575 0 -0.0270389 0.00389013 0 516.647 516.647 1001.23 
117 1 1 0.318258 0.00547953 0 0 0 0 -0.019053 0.0033715 0 -0.0489892 -0.0292632 0 -0.019053 0.0033715 0 530.5 530.5 1001.26 
118 1 1 0.32733 0.0104234 0 0 0 0 -0.0307588 -0.00381103 0 -0.0525907 0.0251414 0 -0.0307588 -0.00381103 0 529.971 529.971 1001.26 
119 1 1 0.33772 0.00483995 0 0 0 0 -0.00564095 -0.00616261 0 -0.093176 0.00305948 0 -0.00564095 -0.00616261 0 545.509 545.509 1001.29 
120 1 1 0.348959 0.0246268 0 0 0 0 -0.0167492 0.0295059 0 -0.055007 -0.0109699 0 -0.0167492 0.0295059 0 445.708 445.708 1001.06 
121 1 1 0.348544 0.0131336 0 0 0 0 -0.0150606 0.00308238 0 -0.0757696 -0.00666723 0 -0.0150606 0.00308238 0 517.52 517.52 1001.23 
122 1 1 0.353945 0.00557671 0 0 0 0 -0.00297152 -0.00399013 0 -0.0920086 -0.0155491 0 -0.00297152 -0.00399013 0 561.167 561.167 1001.33 
123 1 1 0.375724 0.0149907 0 0 0 0 -0.0389833 0.0123356 0 -0.0911349 0.0127797 0 -0.0389833 0.0123356 0 536.912 536.912 1001.27 
124 1 1 0.368034 0.00615254 0 0 0 0 -0.0228325 0.010225 0 -0.0688459 0.00990813 0 -0.0228325 0.010225 0 556.357 556.357 1001.32 
125 1 1 0.380243 0.00692946 0 0 0 0 -0.0347665 -0.000884227 0 -0.0601076 -0.0198514 0 -0.0347665 -0.000884227 0 585.262 585.262 1001.39 
126 1 1 0.392083 0.0200659 0 0 0 0 -0.0181349 0.0192034 0 -0.0966857 -0.0523457 0 -0.0181349 0.0192034 0 501.877 501.877 1001.19 
127 1 1 0.391913 0.00645954 0 0 0 0 -0.041693 0.0110058 0 -0.107453 0.023043 0 -0.041693 0.0110058 0 586.259 586.259 1001.39 
128 1 1 0.397538 0.0125504 0 0 0 0 -0.0228274 -0.00393044 0 -0.0230952 0.0491828 0 -0.0228274 -0.00393044 0 566.549 566.549 1001.34 
129 1 1 0.416885 0.0107181 0 0 0 0 -0.0253364 -0.0142785 0 -0.00929562 0.0262134 0 -0.0253364 -0.0142785 0 600.481 600.481 1001.42 
130 1 1 0.42569 0.00602453 0 0 0 0 0.00156315 -0.00581846 0 -0.0745367 -0.00334444 0 0.00156315 -0.00581846 0 619.107 619.107 1001.47 
131 1 1 0.438687 0.00636044 0 0 0 0 0.000351125 0.00448119 0 -0.0633264 0.0216753 0 0.000351125 0.00448119 0 592.452 592.452 1001.4 
132 1 1 0.433465 0.0142797 0 0 0 0 -0.00780278 -0.00142333 0 -0.034197 -0.0145032 0 -0.00780278 -0.00142333 0 575.574 575.574 1001.36 
133 1 1 0.445955 0.0148037 0 0 0 0 0.00830117 0.0218613 0 -0.00360458 -0.052468 0 0.00830117 0.0218613 0 586.423 586.423 1001.39 
134 1 1 0.454952 0.0208504 0 0 0 0 -0.000815752 -0.020874 0 -0.123452 0.0462466 0 -0.000815752 -0.020874 0 557.34 557.34 1001.32 
135 1 1 0.451144 0.00631185 0 0 0 0 -0.0116278 -0.0104605 0 -0.0129857 -0.0186413 0 -0.0116278 -0.0104605 0 613.675 613.675 1001.45 
136 1 1 0.458297 0.0137009 0 0 0 0 0.00697622 -0.0201941 0 -0.0127579 -0.0613224 0 0.00697622 -0.0201941 0 601.272 601.272 1001.43 
137 1 1 0.465032 0.00507623 0 0 0 0 0.00769346 0.00628745 0 0.0230568 0.0557525 0 0.00769346 0.00628745 0 627.295 627.295 1001.49 
138 1 1 0.478863 0.006018 0 0 0 0 -0.0168752 0.000700873 0 0.0168106 0.0300936 0 -0.0168752 0.000700873 0 625.009 625.009 1001.48 
139 1 1 0.492823 0.00559889 0 0 0 0 -9.68823e-05 -0.00404878 0 0.000828937 -0.00396838 0 -9.68823e-05 -0.00404878 0 625.908 625.908 1001.48 
140 1 1 0.207919 0.0322257 0 0 0 0 -0.00770865 -0.0183397 0 -0.0191317 0.0189639 0 -0.00770865 -0.0183397 0 271.277 271.277 1000.64 
141 1 1 0.212267 0.0232256 0 0 0 0 0.0227671 -0.0237001 0 -0.0505639 -0.0175029 0 0.0227671 -0.0237001 0 347.965 347.965 1000.83 
142 1 1 0.254908 0.0391242 0 0 0 0 -0.0067403 0.0131625 0 -0.0930046 6.60405e-05 0 -0.0067403 0.0131625 0 278.428 278.428 1000.66 
143 1 1 0.241385 0.0270367 0 0 0 0 0.00770487 -0.00939982 0 -0.072694 -0.03717 0 0.00770487 -0.00939982 0 347.112 347.112 1000.82 
144 1 1 0.250672 0.0266299 0 0 0 0 -0.0190055 0.0200108 0 -0.0830053 0.0136418 0 -0.0190055 0.0200108 0 366.771 366.771 1000.87 
145 1 1 0.231573 0.0154973 0 0 0 0 0.0043392 0.00640977 0 -0.0620519 0.00251704 0 0.0043392 0.00640977 0 407.893 407.893 1000.97 
146 1 1 0.259146 0.0302879 0 0 0 0 -0.00977366 0.023654 0 -0.0399413 0.0127669 0 -0.00977366 0.023654 0 344.255 344.255 1000.82 
147 1 1 0.240266 0.0168617 0 0 0 0 -0.00121175 -0.0199126 0 -0.0467827 -0.0276469 0 -0.00121175 -0.0199126 0 422.146 422.146 1001 
148 1 1 0.256559 0.0180953 0 0 0 0 -0.000575955 0.0207566 0 -0.0789453 0.0414326 0 -0.000575955 0.0207566 0 433.198 433.198 1001.03 
149 1 1 0.277889 0.0266913 0 0 0 0 -0.00324868 -0.0187256 0 -0.0665297 0.00021006 0 -0.00324868 -0.0187256 0 373.132 373.132 1000.89 
150 1 1 0.296743 0.0358592 0 0 0 0 -0.00868191 0.0221514 0 -0.0734185 -0.000848379 0 -0.00868191 0.0221514 0 314.477 314.477 1000.75 
151 1 1 0.282983 0.0178041 0 0 0 0 -0.00959493 -0.0091623 0 -0.0682066 -0.015773 0 -0.00959493 -0.0091623 0 439.395 439.395 1001.04 
152 1 1 0.289444 0.0262736 0 0 0 0 -0.0139422 0.00332396 0 -0.0624754 -0.0176527 0 -0.0139422 0.00332396 0 375.041 375.041 1000.89 
153 1 1 0.291951 0.0152949 0 0 0 0 -0.00727045 0.00923846 0 -0.0615905 0.0175926 0 -0.00727045 0.00923846 0 452.845 452.845 1001.07 
154 1 1 0.309782 0.0108304 0 0 0 0 -0.0355119 -0.0105141 0 -0.105524 0.0468853 0 -0.0355119 -0.0105141 0 509.481 509.481 1001.21 
155 1 1 0.330603 0.0166375 0 0 0 0 0.00460711 -0.0213176 0 -0.0711934 0.042498 0 0.00460711 -0.0213176 0 507.315 507.315 1001.2 
156 1 1 0.318446 0.0174362 0 0 0 0 -0.00763252 -0.00287593 0 -0.0353722 -0.0349312 0 -0.00763252 -0.00287593 0 474.408 474.408 1001.13 
157 1 1 0.34115 0.0145946 0 0 0 0 0.00103174 -0.000706148 0 -0.0782845 0.0103189 0 0.00103174 -0.000706148 0 517.519 517.519 1001.23 
158 1 1 0.339348 0.0244747 0 0 0 0 -0.0255396 -0.0110749 0 -0.061911 -0.0112742 0 -0.0255396 -0.0110749 0 450.565 450.565 1001.07 
159 1 1 0.362585 0.02974 0 0 0 0 -0.0113059 -0.00416145 0 -0.0974824 0.00802942 0 -0.0113059 -0.00416145 0 433.471 433.471 1001.03 
160 1 1 0.357192 0.0200733 0 0 0 0 -0.0348119 0.0139166 0 -0.0865651 -0.0285895 0 -0.0348119 0.0139166 0 482.627 482.627 1001.15 
161 1 1 0.361835 0.0135209 0 0 0 0 -0.0240982 0.00908852 0 -0.0341149 -0.00773556 0 -0.0240982 0.00908852 0 521.305 521.305 1001.24 
162 1 1 0.377961 0.0259 0 0 0 0 -0.0266773 -0.00996662 0 -0.0314359 0.052583 0 -0.0266773 -0.00996662 0 476.354 476.354 1001.13 
163 1 1 0.38504 0.0171571 0 0 0 0 -0.0148899 -0.0291707 0 -0.0765482 0.00713471 0 -0.0148899 -0.0291707 0 528.743 528.743 1001.25 
164 1 1 0.408664 0.0314225 0 0 0 0 0.010825 -0.00536176 0 -0.126708 -0.0115954 0 0.010825 -0.00536176 0 461.505 461.505 1001.1 
165 1 1 0.407418 0.00496307 0 0 0 0 -0.0408457 -0.00951944 0 -0.118491 -0.0361026 0 -0.0408457 -0.00951944 0 606.95 606.95 1001.44 
166 1 1 0.406078 0.0224139 0 0 0 0 0.00977662 0.00266443 0 -0.0158267 0.0384785 0 0.00977662 0.00266443 0 527.082 527.082 1001.25 
167 1 1 0.417533 0.0385176 0 0 0 0 -0.0198439 -0.020195 0 0.00803212 -0.0157138 0 -0.0198439 -0.020195 0 414.186 414.186 1000.98 
168 1 1 0.427399 0.0190077 0 0 0 0 -0.0361081 -0.0218729 0 -0.0408308 -0.00475414 0 -0.0361081 -0.0218729 0 551.29 551.29 1001.31 
169 1 1 0.427529 0.0474142 0 0 0 0 -0.0390408 0.00323997 0 -0.114711 -0.0342444 0 -0.0390408 0.00323997 0 372.525 372.525 1000.88 
170 1 1 0.418666 0.018677 0 0 0 0 -0.0360518 -0.0445449 0 -0.115129 -0.0158655 0 -0.0360518 -0.0445449 0 553.595 553.595 1001.31 
171 1 1 0.426837 0.0319232 0 0 0 0 0.0140468 -0.0407327 0 -0.0879894 -0.00291709 0 0.0140468 -0.0407327 0 474.667 474.667 1001.13 
172 1 1 0.441923 0.0210332 0 0 0 0 -0.0235561 -0.0157694 0 -0.0919125 0.0128213 0 -0.0235561 -0.0157694 0 580.769 580.769 1001.38 
173 1 1 0.447972 0.0298359 0 0 0 0 -0.0216625 -0.02184 0 -0.0519651 -0.0937961 0 -0.0216625 -0.02184 0 499.546 499.546 1001.19 
174 1 1 0.473086 0.0142288 0 0 0 0 -0.00201935 0.00288382 0 -0.0425658 -0.085976 0 -0.00201935 0.00288382 0 606.234 606.234 1001.44 
175 1 1 0.472323 0.0274173 0 0 0 0 0.0154858 -0.047188 0 -0.00927783 -0.085261 0 0.0154858 -0.047188 0 537.88 537.88 1001.28 
176 1 1 0.480165 0.0219809 0 0 0 0 0.0188397 -0.0342375 0 0.0263877 0.0825235 0 0.0188397 -0.0342375 0 559.422 559.422 1001.33 
177 1 1 0.484914 0.0137325 0 0 0 0 0.0225139 -0.0185734 0 -0.0287662 -0.0144149 0 0.0225139 -0.0185734 0 602.622 602.622 1001.43 
178 1 1 0.491319 0.0187717 0 0 0 0 0.0109887 0.0284284 0 0.0301551 0.0225158 0 0.0109887 0.0284284 0 586.754 586.754 1001.39 
179 1 1 0.200915 0.0423645 0 0 0 0 0.00514716 0.0175946 0 0.0297401 0.0242181 0 0.00514716 0.0175946 0 222.183 222.183 1000.53 
180 1 1 0.220699 0.0282226 0 0 0 0 0.00144205 -0.021596 0 -0.0454568 0.0220957 0 0.00144205 -0.021596 0 332.415 332.415 1000.79 
181 1 1 0.224497 0.037436 0 0 0 0 -0.0224728 -0.0154642 0 0.00504119 0.0592695 0 -0.0224728 -0.0154642 0 276.488 276.488 1000.66 
182 1 1 0.233977 0.0341198 0 0 0 0 0.00577365 0.0127441 0 -0.0854286 -0.0184886 0 0.00577365 0.0127441 0 292.732 292.732 1000.7 
183 1 1 0.257885 0.0499043 0 0 0 0 0.00609991 0.0128322 0 -0.0747242 0.0305344 0 0.00609991 0.0128322 0 196.57 196.57 1000.47 
184 1 1 0.245677 0.0470511 0 0 0 0 0.00415622 0.0358305 0 -0.0871189 -0.017578 0 0.00415622 0.0358305 0 179.176 179.176 1000.43 
185 1 1 0.244324 0.0371919 0 0 0 0 0.000148496 0.0271401 0 -0.0309645 -0.0103925 0 0.000148496 0.0271401 0 258.834 258.834 1000.62 
186 1 1 0.266802 0.0226217 0 0 0 0 -0.0235443 0.0182519 0 -0.0390615 0.00478634 0 -0.0235443 0.0182519 0 402.734 402.734 1000.96 
187 1 1 0.284605 0.0343304 0 0 0 0 -0.00354388 0.0166178 0 -0.0993908 -0.0103266 0 -0.00354388 0.0166178 0 310.747 310.747 1000.74 
188 1 1 0.290595 0.0433538 0 0 0 0 -0.0304709 0.00613398 0 -0.0761715 -0.00549851 0 -0.0304709 0.00613398 0 279.593 279.593 1000.66 
189 1 1 0.307928 0.032356 0 0 0 0 -0.0158897 0.00259109 0 -0.0943506 -0.0288497 0 -0.0158897 0.00259109 0 368.277 368.277 1000.87 
190 1 1 0.309489 0.0203494 0 0 0 0 -0.0206816 -0.00921374 0 -0.0207708 0.00711922 0 -0.0206816 -0.00921374 0 448.133 448.133 1001.06 
191 1 1 0.314661 0.0401778 0 0 0 0 -0.0173918 -0.0147398 0 -0.0745523 0.0548305 0 -0.0173918 -0.0147398 0 316.496 316.496 1000.75 
192 1 1 0.317152 0.028199 0 0 0 0 -0.0342842 -0.015928 0 -0.102983 0.052177 0 -0.0342842 -0.015928 0 406.231 406.231 1000.96 
193 1 1 0.344827 0.0359858 0 0 0 0 -0.0477477 -0.0214432 0 -0.158246 -0.00659696 0 -0.0477477 -0.0214432 0 370.543 370.543 1000.88 
194 1 1 0.326388 0.0468062 0 0 0 0 -0.0205707 -0.0220211 0 -0.0942043 0.0250688 0 -0.0205707 -0.0220211 0 286.015 286.015 1000.68 
195 1 1 0.350529 0.0456279 0 0 0 0 -0.0156584 0.00337313 0 -0.0817457 -0.094563 0 -0.0156584 0.00337313 0 302.618 302.618 1000.72 
196 1 1 0.353554 0.0333684 0 0 0 0 -0.0153404 0.024983 0 -0.0307115 -0.00271763 0 -0.0153404 0.024983 0 391.387 391.387 1000.93 
197 1 1 0.369811 0.0438285 0 0 0 0 -0.0148591 0.0168919 0 -0.0286796 0.0235787 0 -0.0148591 0.0168919 0 328.399 328.399 1000.78 
198 1 1 0.369936 0.0326933 0 0 0 0 -0.0333557 0.0419283 0 -0.0958953 -0.0376206 0 -0.0333557 0.0419283 0 405.427 405.427 1000.96 
199 1 1 0.379601 0.0376747 0 0 0 0 -0.00716867 -0.0203141 0 -0.10224 -0.00178177 0 -0.00716867 -0.0203141 0 410.238 410.238 1000.97 
200 1 1 0.368833 0.0200674 0 0 0 0 -0.0266714 0.0182122 0 -0.0623162 0.00406086 0 -0.0266714 0.0182122 0 507.061 507.061 1001.2 
201 1 1 0.396943 0.0280862 0 0 0 0 0.00766846 -0.00231107 0 -0.0222358 0.00913057 0 0.00766846 -0.00231107 0 474.277 474.277 1001.13 
202 1 1 0.387896 0.0427447 0 0 0 0 -0.0422435 0.00973515 0 -0.0574881 -0.03127 0 -0.0422435 0.00973515 0 352.191 352.191 1000.84 
203 1 1 0.397221 0.0369523 0 0 0 0 -0.0431235 -0.0306551 0 -0.0904218 -0.0297585 0 -0.0431235 -0.0306551 0 416.199 416.199 1000.99 
204 1 1 0.407428 0.0535186 0 0 0 0 -0.0235319 -0.0239843 0 -0.167427 -0.0587447 0 -0.0235319 -0.0239843 0 317.776 317.776 1000.75 
205 1 1 0.406828 0.0156249 0 0 0 0 -0.0450557 0.00505119 0 -0.0768513 -0.0892342 0 -0.0450557 0.00505119 0 563.367 563.367 1001.34 
206 1 1 0.418221 0.0280972 0 0 0 0 0.022636 0.00503237 0 -0.110433 -0.0614222 0 0.022636 0.00503237 0 480.166 480.166 1001.14 
207 1 1 0.443261 0.0460808 0 0 0 0 -0.00535627 -0.0520073 0 -0.0919269 0.00225084 0 -0.00535627 -0.0520073 0 406.394 406.394 1000.96 
208 1 1 0.441786 0.035733 0 0 0 0 -0.00788256 0.0113517 0 -0.0311413 -0.0268326 0 -0.00788256 0.0113517 0 457.625 457.625 1001.09 
209 1 1 0.432272 0.0402623 0 0 0 0 -0.0325883 0.0156645 0 -0.0632934 -0.0557219 0 -0.0325883 0.0156645 0 398.885 398.885 1000.95 
210 1 1 0.455319 0.0352108 0 0 0 0 0.00278179 -0.025129 0 0.00824142 0.105168 0 0.00278179 -0.025129 0 517.033 517.033 1001.23 
211 1 1 0.434585 0.0275625 0 0 0 0 -0.0024057 0.00110624 0 -0.063309 -0.0125461 0 -0.0024057 0.00110624 0 518.112 518.112 1001.23 
212 1 1 0.461331 0.0284789 0 0 0 0 -0.00850124 0.0288425 0 -0.0189747 -0.0772786 0 -0.00850124 0.0288425 0 523.935 523.935 1001.24 
213 1 1 0.466737 0.0177313 0 0 0 0 -0.015787 0.0335648 0 -0.062912 0.0262488 0 -0.015787 0.0335648 0 591.332 591.332 1001.4 
214 1 1 0.473046 0.0437934 0 0 0 0 0.0166723 0.00490601 0 0.0854314 -0.0673278 0 0.0166723 0.00490601 0 451.417 451.417 1001.07 
215 1 1 0.489656 0.0291489 0 0 0 0 -0.0224817 0.00893223 0 -0.0609872 -0.0582436 0 -0.0224817 0.00893223 0 550.528 550.528 1001.31 
216 1 1 0.481028 0.0337718 0 0 0 0 -0.0192362 0.0519648 0 -0.0443343 -0.0347244 0 -0.0192362 0.0519648 0 509.124 509.124 1001.21 
217 1 1 0.489489 0.0403024 0 0 0 0 -0.0128992 -0.0361242 0 0.0304242 0.0044376 0 -0.0128992 -0.0361242 0 494.951 494.951 1001.17 
218 1 1 0.223359 0.0483365 0 0 0 0 -0.020766 -0.00271736 0 -0.0216779 -0.0104496 0 -0.020766 -0.00271736 0 206.082 206.082 1000.49 
219 1 1 0.165431 0.037241 0 0 0 0 -0.00626847 -0.0122512 0 -0.00454691 0.0288453 0 -0.00626847 -0.0122512 0 286.215 286.215 1000.68 
220 1 1 0.191931 0.0432261 0 0 0 0 -0.00302064 0.02414 0 -0.0275322 -0.0169991 0 -0.00302064 0.02414 0 212.841 212.841 1000.51 
221 1 1 0.234927 0.0455042 0 0 0 0 -0.0113802 -0.0256798 0 -0.0848559 0.0815494 0 -0.0113802 -0.0256798 0 220.314 220.314 1000.52 
222 1 1 0.213973 0.039122 0 0 0 0 -0.00608249 -0.0123974 0 -0.0402897 -0.0102896 0 -0.00608249 -0.0123974 0 259.389 259.389 1000.62 
223 1 1 0.265694 0.0421093 0 0 0 0 -0.0123287 0.0224303 0 -0.0719544 -0.00574489 0 -0.0123287 0.0224303 0 257.87 257.87 1000.61 
224 1 1 0.270048 0.0328529 0 0 0 0 0.00955613 -0.0090336 0 -0.0649361 0.00895456 0 0.00955613 -0.0090336 0 338.425 338.425 1000.8 
225 1 1 0.277255 0.0411797 0 0 0 0 -0.0424768 -0.0121765 0 -0.0540158 0.0265257 0 -0.0424768 -0.0121765 0 285.056 285.056 1000.68 
226 1 1 0.293382 0.0536373 0 0 0 0 0.0109964 0.00951827 0 -0.0877577 -0.000454843 0 0.0109964 0.00951827 0 229.44 229.44 1000.55 
227 1 1 0.299675 0.0262827 0 0 0 0 -0.0255322 0.0261335 0 -0.0496738 0.00589043 0 -0.0255322 0.0261335 0 387.651 387.651 1000.92 
228 1 1 0.303929 0.0431104 0 0 0 0 -0.00299632 0.0226839 0 -0.0948331 0.0371765 0 -0.00299632 0.0226839 0 271.904 271.904 1000.65 
229 1 1 0.314103 0.0519129 0 0 0 0 0.0198699 0.00747064 0 -0.0725024 -0.0615424 0 0.0198699 0.00747064 0 259.874 259.874 1000.62 