ITEM: TIMESTEP
73000
ITEM: NUMBER OF ATOMS
754
ITEM: BOX BOUNDS ff ff pp
-0.021 0.521
-0.021 0.5
-0.001 0.001
ITEM: ATOMS id type type x y z ix iy iz vx vy vz fx fy fz vx vy vz p p rho 
1 1 1 0.0084537 0.00682297 0 0 0 0 -0.00250787 -0.00893557 0 -0.0370357 0.0741055 0 -0.00250787 -0.00893557 0 457.459 457.459 1001.09 
2 1 1 0.0196671 0.00822212 0 0 0 0 0.000692511 0.0102712 0 -0.0141373 -0.0583418 0 0.000692511 0.0102712 0 460.974 460.974 1001.09 
3 1 1 0.0495454 0.00701824 0 0 0 0 0.0405787 -0.00556044 0 -0.046829 0.0108721 0 0.0405787 -0.00556044 0 490.605 490.605 1001.16 
4 1 1 0.0677601 0.00758793 0 0 0 0 0.0569722 -0.0108451 0 -0.0225858 -0.0770247 0 0.0569722 -0.0108451 0 490.46 490.46 1001.16 
5 1 1 0.0896138 0.00771096 0 0 0 0 0.0244092 0.00564964 0 0.0687647 -0.0287173 0 0.0244092 0.00564964 0 484.601 484.601 1001.15 
6 1 1 0.102071 0.00727078 0 0 0 0 0.0169827 -0.00452142 0 0.0168584 0.022584 0 0.0169827 -0.00452142 0 475.488 475.488 1001.13 
7 1 1 0.139075 0.00917832 0 0 0 0 -0.00253138 0.00667741 0 0.00204649 -0.0528909 0 -0.00253138 0.00667741 0 451.019 451.019 1001.07 
8 1 1 0.148222 0.00901423 0 0 0 0 -0.0288695 0.0164479 0 0.0392185 0.0596721 0 -0.0288695 0.0164479 0 463.226 463.226 1001.1 
9 1 1 0.187341 0.0075818 0 0 0 0 -0.065157 -0.006295 0 -0.0304432 0.0480627 0 -0.065157 -0.006295 0 472.873 472.873 1001.12 
10 1 1 0.208108 0.00820175 0 0 0 0 -0.0267153 0.00338686 0 -0.0413401 -0.0117931 0 -0.0267153 0.00338686 0 476.823 476.823 1001.13 
11 1 1 0.0154543 0.0205917 0 0 0 0 0.0429692 -0.0501252 0 0.0853706 0.106377 0 0.0429692 -0.0501252 0 317.68 317.68 1000.75 
12 1 1 0.0333722 0.00698045 0 0 0 0 0.00658204 -0.00571377 0 -0.0350914 -0.0502613 0 0.00658204 -0.00571377 0 492.636 492.636 1001.17 
13 1 1 0.0582712 0.0112288 0 0 0 0 0.0157725 0.00664203 0 -0.000961139 0.0196995 0 0.0157725 0.00664203 0 462.922 462.922 1001.1 
14 1 1 0.0786861 0.00856747 0 0 0 0 0.0571847 0.00424785 0 0.0188947 -0.0134754 0 0.0571847 0.00424785 0 472.156 472.156 1001.12 
15 1 1 0.10024 0.0204943 0 0 0 0 0.0103339 -0.0115026 0 -0.00912901 0.0166169 0 0.0103339 -0.0115026 0 378.998 378.998 1000.9 
16 1 1 0.129217 0.00853865 0 0 0 0 -0.0152066 -0.0114045 0 0.0179893 -0.0358525 0 -0.0152066 -0.0114045 0 454.465 454.465 1001.08 
17 1 1 0.145422 0.0191048 0 0 0 0 -0.0608727 0.0176658 0 0.00125805 0.00720699 0 -0.0608727 0.0176658 0 366.836 366.836 1000.87 
18 1 1 0.174671 0.0071745 0 0 0 0 -0.0505776 0.00768022 0 0.00143001 -0.00835653 0 -0.0505776 0.00768022 0 475.538 475.538 1001.13 
19 1 1 0.197808 0.00919573 0 0 0 0 -0.0475559 -0.0147284 0 -0.0299771 -0.0376228 0 -0.0475559 -0.0147284 0 457.22 457.22 1001.09 
20 1 1 0.201791 0.0177182 0 0 0 0 -0.0543083 -0.0218548 0 0.0025297 0.00840863 0 -0.0543083 -0.0218548 0 389.828 389.828 1000.93 
21 1 1 0.026348 0.0223789 0 0 0 0 0.0847542 0.0216742 0 0.0141171 -0.0219013 0 0.0847542 0.0216742 0 340.099 340.099 1000.81 
22 1 1 0.0259046 0.0139563 0 0 0 0 0.0269677 -0.0128625 0 -0.0594026 0.0460048 0 0.0269677 -0.0128625 0 429.381 429.381 1001.02 
23 1 1 0.0406531 0.0127292 0 0 0 0 0.059579 -0.0264973 0 0.0914447 0.0254709 0 0.059579 -0.0264973 0 441.509 441.509 1001.05 
24 1 1 0.0771322 0.0265023 0 0 0 0 0.00323209 0.0804646 0 0.00608784 -0.0401999 0 0.00323209 0.0804646 0 306.844 306.844 1000.73 
25 1 1 0.0831086 0.0172773 0 0 0 0 0.0199911 0.0445131 0 -0.00719 -0.0295456 0 0.0199911 0.0445131 0 394.342 394.342 1000.94 
26 1 1 0.117649 0.00733172 0 0 0 0 0.00183022 0.00927425 0 -0.014031 0.0212764 0 0.00183022 0.00927425 0 473.468 473.468 1001.12 
27 1 1 0.1332 0.0179358 0 0 0 0 -0.0511349 -0.0111121 0 0.0418344 -0.0335327 0 -0.0511349 -0.0111121 0 376.117 376.117 1000.89 
28 1 1 0.158686 0.00768169 0 0 0 0 -0.0454047 0.00491669 0 0.0390375 -0.044789 0 -0.0454047 0.00491669 0 482.848 482.848 1001.15 
29 1 1 0.18997 0.017731 0 0 0 0 -0.0209746 0.00796594 0 -0.00716151 -0.019504 0 -0.0209746 0.00796594 0 387.199 387.199 1000.92 
30 1 1 0.206935 0.0253452 0 0 0 0 -0.0567748 0.0237373 0 -0.031086 0.0138199 0 -0.0567748 0.0237373 0 314.88 314.88 1000.75 
31 1 1 0.0103749 0.0174118 0 0 0 0 0.023385 -0.000685794 0 -0.056299 -0.122575 0 0.023385 -0.000685794 0 367.231 367.231 1000.87 
32 1 1 0.0370982 0.0204473 0 0 0 0 0.00409031 -0.0512124 0 -0.0871663 -0.0828217 0 0.00409031 -0.0512124 0 380.574 380.574 1000.9 
33 1 1 0.0721379 0.0176184 0 0 0 0 0.0442028 0.00197021 0 -0.00810011 0.0527379 0 0.0442028 0.00197021 0 396.303 396.303 1000.94 
34 1 1 0.0942325 0.0161803 0 0 0 0 -0.0118534 0.0173694 0 0.00825725 0.0185967 0 -0.0118534 0.0173694 0 422.503 422.503 1001 
35 1 1 0.120946 0.0158809 0 0 0 0 -0.0310502 0.034029 0 0.0260456 0.0945569 0 -0.0310502 0.034029 0 407.957 407.957 1000.97 
36 1 1 0.137116 0.0261512 0 0 0 0 -0.0114158 0.032897 0 0.0649401 0.0107557 0 -0.0114158 0.032897 0 296.494 296.494 1000.7 
37 1 1 0.165161 0.0128735 0 0 0 0 -0.0480269 -0.00590694 0 -0.0152366 0.0774031 0 -0.0480269 -0.00590694 0 452.738 452.738 1001.07 
38 1 1 0.179858 0.0160266 0 0 0 0 -0.0240452 0.00272995 0 -0.0585418 -0.0136499 0 -0.0240452 0.00272995 0 414.797 414.797 1000.98 
39 1 1 0.195152 0.025978 0 0 0 0 -0.0606267 -0.00291424 0 -0.0586896 0.0285725 0 -0.0606267 -0.00291424 0 318.618 318.618 1000.76 
40 1 1 0.17994 0.0353759 0 0 0 0 -0.0792648 0.0532593 0 -0.0727967 0.0433061 0 -0.0792648 0.0532593 0 205.737 205.737 1000.49 
41 1 1 0.00719072 0.0278163 0 0 0 0 -0.0203763 -0.0686558 0 0.132811 0.166041 0 -0.0203763 -0.0686558 0 238.426 238.426 1000.57 
42 1 1 0.0364256 0.0429489 0 0 0 0 0.137026 0.0106538 0 -0.176505 -0.0644408 0 0.137026 0.0106538 0 127.144 127.144 1000.3 
43 1 1 0.0505837 0.018098 0 0 0 0 0.0611587 0.0412437 0 -0.082747 -0.012489 0 0.0611587 0.0412437 0 411.491 411.491 1000.98 
44 1 1 0.0758144 0.0376887 0 0 0 0 0.0187956 0.0412341 0 0.0196376 -0.1025 0 0.0187956 0.0412341 0 224.531 224.531 1000.53 
45 1 1 0.101766 0.0302931 0 0 0 0 -0.0213561 -0.0128715 0 0.0932107 -0.0636374 0 -0.0213561 -0.0128715 0 268.285 268.285 1000.64 
46 1 1 0.126091 0.0251725 0 0 0 0 0.00506707 -0.00863604 0 0.0421937 -0.00328786 0 0.00506707 -0.00863604 0 323.745 323.745 1000.77 
47 1 1 0.15465 0.0190294 0 0 0 0 -0.0375368 0.0156324 0 0.025142 -0.0644694 0 -0.0375368 0.0156324 0 368.578 368.578 1000.88 
48 1 1 0.182798 0.0252437 0 0 0 0 -0.0903323 -0.00593165 0 0.0167517 0.0235366 0 -0.0903323 -0.00593165 0 311.629 311.629 1000.74 
49 1 1 0.190074 0.0346149 0 0 0 0 -0.0867851 -0.0279549 0 -0.00928937 -0.0224362 0 -0.0867851 -0.0279549 0 210.218 210.218 1000.5 
50 1 1 0.172285 0.0468191 0 0 0 0 -0.122402 0.0318699 0 0.00681605 0.0608471 0 -0.122402 0.0318699 0 106.886 106.886 1000.25 
51 1 1 0.00878353 0.0396584 0 0 0 0 0.0417139 -0.0377204 0 -0.0654064 -0.182528 0 0.0417139 -0.0377204 0 184.01 184.01 1000.44 
52 1 1 0.0430547 0.0262639 0 0 0 0 0.0556784 -0.0349781 0 0.131797 -0.00128247 0 0.0556784 -0.0349781 0 320.702 320.702 1000.76 
53 1 1 0.0571342 0.0269215 0 0 0 0 0.0317311 0.000311617 0 0.0180456 -0.172732 0 0.0317311 0.000311617 0 329.513 329.513 1000.78 
54 1 1 0.0870691 0.025519 0 0 0 0 0.00402684 0.0159437 0 0.0864399 0.00106812 0 0.00402684 0.0159437 0 335.001 335.001 1000.8 
55 1 1 0.109419 0.0350574 0 0 0 0 0.0228035 0.0356491 0 -0.00797591 -0.0387163 0 0.0228035 0.0356491 0 209.138 209.138 1000.5 
56 1 1 0.130085 0.0356211 0 0 0 0 -0.0400167 0.0415229 0 -0.0482225 -0.0239257 0 -0.0400167 0.0415229 0 203.283 203.283 1000.48 
57 1 1 0.152356 0.028995 0 0 0 0 -0.0490052 0.0170407 0 0.0214729 -0.00233429 0 -0.0490052 0.0170407 0 263.048 263.048 1000.63 
58 1 1 0.158498 0.0383016 0 0 0 0 -0.0506353 0.00690636 0 -0.0422008 0.00731625 0 -0.0506353 0.00690636 0 153.803 153.803 1000.37 
59 1 1 0.172724 0.0288288 0 0 0 0 -0.0452668 -0.0135756 0 0.00105723 0.0721196 0 -0.0452668 -0.0135756 0 284.865 284.865 1000.68 
60 1 1 0.189307 0.0438981 0 0 0 0 -0.104317 -0.0239111 0 0.00355703 0.0150321 0 -0.104317 -0.0239111 0 127.31 127.31 1000.3 
61 1 1 0.0545239 0.031415 0 0 0 0 0.080316 0.00790865 0 -0.213915 0.239276 0 0.080316 0.00790865 0 309.947 309.947 1000.74 
62 1 1 0.0242043 0.0302746 0 0 0 0 -0.0580334 0.0150179 0 0.018559 -0.0622029 0 -0.0580334 0.0150179 0 317.145 317.145 1000.75 
63 1 1 0.0636222 0.0191997 0 0 0 0 0.0800654 -0.0699236 0 0.0608137 -0.0238633 0 0.0800654 -0.0699236 0 384.813 384.813 1000.91 
64 1 1 0.0673661 0.0409568 0 0 0 0 0.018069 -0.0188148 0 -0.119139 -0.122505 0 0.018069 -0.0188148 0 187.303 187.303 1000.45 
65 1 1 0.0924911 0.0331468 0 0 0 0 -0.00285389 0.0540642 0 0.0786136 -0.0380992 0 -0.00285389 0.0540642 0 290.557 290.557 1000.69 
66 1 1 0.109072 0.0132709 0 0 0 0 0.0156827 -0.00777735 0 0.0771387 -0.0349331 0 0.0156827 -0.00777735 0 434.525 434.525 1001.03 
67 1 1 0.143568 0.0320929 0 0 0 0 -0.0558425 0.0329168 0 -0.0312944 0.018319 0 -0.0558425 0.0329168 0 236.123 236.123 1000.56 
68 1 1 0.161767 0.0268476 0 0 0 0 -0.0623618 0.00861564 0 -0.0128028 0.00275553 0 -0.0623618 0.00861564 0 307.765 307.765 1000.73 
69 1 1 0.169686 0.0192795 0 0 0 0 -0.0492133 -0.00432134 0 0.036537 0.0389231 0 -0.0492133 -0.00432134 0 387.506 387.506 1000.92 
70 1 1 0.161584 0.0489739 0 0 0 0 -0.101088 0.0431726 0 -0.0071668 0.0415748 0 -0.101088 0.0431726 0 99.0211 99.0211 1000.24 
71 1 1 0.0258605 0.0393969 0 0 0 0 0.111263 -0.0992077 0 0.0614709 0.11399 0 0.111263 -0.0992077 0 121.837 121.837 1000.29 
72 1 1 0.0480373 0.0484797 0 0 0 0 0.0955612 0.0342946 0 -0.163032 0.0533658 0 0.0955612 0.0342946 0 154.539 154.539 1000.37 
73 1 1 0.0363079 0.0321826 0 0 0 0 0.0199003 -0.0445198 0 -0.194293 0.03827 0 0.0199003 -0.0445198 0 243.493 243.493 1000.58 
74 1 1 0.0683062 0.030396 0 0 0 0 0.0254779 0.0180469 0 -0.0444131 -0.0915517 0 0.0254779 0.0180469 0 321.571 321.571 1000.76 
75 1 1 0.0852851 0.0381495 0 0 0 0 0.0842258 0.0490573 0 0.056748 -0.0784779 0 0.0842258 0.0490573 0 186.835 186.835 1000.44 
76 1 1 0.110921 0.0223664 0 0 0 0 -0.0300122 0.0449114 0 0.0898095 -0.0254271 0 -0.0300122 0.0449114 0 366.205 366.205 1000.87 
77 1 1 0.118349 0.0282553 0 0 0 0 -0.0157705 0.0250571 0 0.0365797 0.0344001 0 -0.0157705 0.0250571 0 319.126 319.126 1000.76 
78 1 1 0.147062 0.0400773 0 0 0 0 -0.0561905 0.0367441 0 0.0382394 0.0301318 0 -0.0561905 0.0367441 0 128.58 128.58 1000.31 
79 1 1 0.167352 0.0373453 0 0 0 0 -0.0627643 -0.00781541 0 -0.0125655 0.0220966 0 -0.0627643 -0.00781541 0 176.22 176.22 1000.42 
80 1 1 0.121361 0.0507453 0 0 0 0 -0.035065 0.0455469 0 0.114602 0.100545 0 -0.035065 0.0455469 0 110.807 110.807 1000.26 
81 1 1 0.00584174 0.0536893 0 0 0 0 0.00979189 -0.12871 0 -0.327243 0.395918 0 0.00979189 -0.12871 0 101.643 101.643 1000.24 
82 1 1 0.0170671 0.0351156 0 0 0 0 0.00822701 -0.0135461 0 -0.220934 -0.133805 0 0.00822701 -0.0135461 0 205.694 205.694 1000.49 
83 1 1 0.0440532 0.0381846 0 0 0 0 0.0350966 -0.0782368 0 0.0321185 -0.0455235 0 0.0350966 -0.0782368 0 218.699 218.699 1000.52 
84 1 1 0.0565522 0.0421549 0 0 0 0 -0.0168038 0.0432748 0 -0.0175134 -0.18147 0 -0.0168038 0.0432748 0 222.278 222.278 1000.53 
85 1 1 0.0841848 0.0465962 0 0 0 0 -0.0425662 0.0749219 0 0.139689 -0.161212 0 -0.0425662 0.0749219 0 141.698 141.698 1000.34 
86 1 1 0.0993646 0.0412992 0 0 0 0 0.0232313 0.00328456 0 0.0665131 0.0735752 0 0.0232313 0.00328456 0 196.326 196.326 1000.47 
87 1 1 0.112226 0.044797 0 0 0 0 -0.0466202 0.0702635 0 0.0602596 -0.014601 0 -0.0466202 0.0702635 0 92.0282 92.0282 1000.22 
88 1 1 0.119308 0.0392106 0 0 0 0 -0.0208763 0.00238931 0 0.199821 0.084137 0 -0.0208763 0.00238931 0 188.649 188.649 1000.45 
89 1 1 0.134198 0.0417948 0 0 0 0 -0.0440557 0.0351947 0 0.00804502 0.0201311 0 -0.0440557 0.0351947 0 146.678 146.678 1000.35 
90 1 1 0.135548 0.047997 0 0 0 0 -0.0756744 0.0629204 0 0.0622916 0.105536 0 -0.0756744 0.0629204 0 70.6207 70.6207 1000.17 
91 1 1 0.0418701 0.0569895 0 0 0 0 -0.060052 0.00533274 0 -0.0764119 -0.0827981 0 -0.060052 0.00533274 0 94.6031 94.6031 1000.23 
92 1 1 0.0158629 0.0469319 0 0 0 0 -0.0427829 -0.0236747 0 0.180255 0.156058 0 -0.0427829 -0.0236747 0 111.826 111.826 1000.27 
93 1 1 0.0291752 0.0502562 0 0 0 0 0.0758047 -0.0856067 0 -0.273819 0.142031 0 0.0758047 -0.0856067 0 148.98 148.98 1000.35 
94 1 1 0.0661066 0.061887 0 0 0 0 0.124905 -0.0498938 0 -0.327738 -0.258461 0 0.124905 -0.0498938 0 114.693 114.693 1000.27 
95 1 1 0.0597776 0.0508524 0 0 0 0 -0.00692741 0.0401074 0 -0.0947652 0.0827787 0 -0.00692741 0.0401074 0 148.739 148.739 1000.35 
96 1 1 0.0729949 0.0679811 0 0 0 0 0.128825 0.0445352 0 0.0133659 -0.502882 0 0.128825 0.0445352 0 -15.6234 -15.6234 999.963 
97 1 1 0.0733824 0.0512618 0 0 0 0 0.0683887 0.0263856 0 0.0368406 -0.0882563 0 0.0683887 0.0263856 0 239.488 239.488 1000.57 
98 1 1 0.0926446 0.0527928 0 0 0 0 0.0280609 0.0436951 0 0.159967 -0.123183 0 0.0280609 0.0436951 0 148.517 148.517 1000.35 
99 1 1 0.103445 0.051499 0 0 0 0 -0.00353822 0.0717215 0 0.282249 0.0935477 0 -0.00353822 0.0717215 0 136.348 136.348 1000.32 
100 1 1 0.0837464 0.0615168 0 0 0 0 0.101188 0.1019 0 0.18965 -0.193964 0 0.101188 0.1019 0 132.016 132.016 1000.31 
101 1 1 0.213832 0.0168385 0 0 0 0 -0.0699414 0.0364313 0 -0.0642093 -0.00163547 0 -0.0699414 0.0364313 0 406.834 406.834 1000.97 
102 1 1 0.219145 0.00800373 0 0 0 0 -0.0684542 0.0228565 0 0.000886408 0.0396086 0 -0.0684542 0.0228565 0 472.686 472.686 1001.12 
103 1 1 0.224227 0.0185359 0 0 0 0 -0.00986686 -0.0047192 0 -0.0794938 -0.0286624 0 -0.00986686 -0.0047192 0 394.76 394.76 1000.94 
104 1 1 0.229222 0.0088215 0 0 0 0 -0.0795846 -0.018375 0 0.0130834 -0.0260491 0 -0.0795846 -0.018375 0 502.221 502.221 1001.19 
105 1 1 0.236643 0.0151549 0 0 0 0 -0.040588 -0.0216377 0 -0.0959144 0.0551867 0 -0.040588 -0.0216377 0 452 452 1001.07 
106 1 1 0.242071 0.00705873 0 0 0 0 -0.0549454 0.004223 0 -0.063084 0.0231852 0 -0.0549454 0.004223 0 526.953 526.953 1001.25 
107 1 1 0.25081 0.0144648 0 0 0 0 -0.0491693 -0.0214698 0 -0.0700716 0.00307677 0 -0.0491693 -0.0214698 0 466.001 466.001 1001.11 
108 1 1 0.256528 0.00767226 0 0 0 0 -0.0422441 -0.00496377 0 -0.0865299 -0.0450148 0 -0.0422441 -0.00496377 0 531.981 531.981 1001.26 
109 1 1 0.261022 0.0187693 0 0 0 0 -0.0377489 0.0175318 0 -0.0898264 -0.0664237 0 -0.0377489 0.0175318 0 435.337 435.337 1001.03 
110 1 1 0.266835 0.00901225 0 0 0 0 -0.0695041 0.0388503 0 -0.064748 0.0512113 0 -0.0695041 0.0388503 0 507.435 507.435 1001.2 
111 1 1 0.276309 0.00892705 0 0 0 0 -0.0556472 -0.0439627 0 -0.0243484 -0.0171539 0 -0.0556472 -0.0439627 0 537.678 537.678 1001.28 
112 1 1 0.287145 0.00845942 0 0 0 0 -0.0521059 0.0141337 0 -0.0610671 -0.0148887 0 -0.0521059 0.0141337 0 547.305 547.305 1001.3 
113 1 1 0.297567 0.00787798 0 0 0 0 -0.071435 0.0141102 0 -0.0537569 0.0413041 0 -0.071435 0.0141102 0 571.876 571.876 1001.36 
114 1 1 0.308555 0.00856503 0 0 0 0 -0.113424 0.00973994 0 -0.0544672 0.0180849 0 -0.113424 0.00973994 0 595.916 595.916 1001.41 
115 1 1 0.318239 0.019772 0 0 0 0 -0.101023 -0.00659084 0 -0.124693 -0.073519 0 -0.101023 -0.00659084 0 522.635 522.635 1001.24 
116 1 1 0.319438 0.00764937 0 0 0 0 -0.114116 -0.00161814 0 -0.107227 0.0581528 0 -0.114116 -0.00161814 0 612.66 612.66 1001.45 
117 1 1 0.326818 0.0124323 0 0 0 0 -0.0816791 -0.0486116 0 -0.0368598 -0.0617522 0 -0.0816791 -0.0486116 0 586.295 586.295 1001.39 
118 1 1 0.335753 0.00732295 0 0 0 0 -0.0723493 0.000314349 0 -0.0893907 -0.0174577 0 -0.0723493 0.000314349 0 628.447 628.447 1001.49 
119 1 1 0.345939 0.00965682 0 0 0 0 -0.0866595 0.0328714 0 -0.04566 0.0307474 0 -0.0866595 0.0328714 0 621.324 621.324 1001.47 
120 1 1 0.3561 0.0189592 0 0 0 0 -0.148344 0.0482575 0 -0.177852 -0.0432695 0 -0.148344 0.0482575 0 567.303 567.303 1001.35 
121 1 1 0.355497 0.00767416 0 0 0 0 -0.119262 -0.00659441 0 -0.0753701 -0.0178021 0 -0.119262 -0.00659441 0 649.569 649.569 1001.54 
122 1 1 0.368451 0.00741669 0 0 0 0 -0.15621 0.0325665 0 -0.0473113 0.0617155 0 -0.15621 0.0325665 0 668.269 668.269 1001.58 
123 1 1 0.377269 0.0167377 0 0 0 0 -0.165766 -0.00622519 0 -0.214503 0.00457285 0 -0.165766 -0.00622519 0 608.486 608.486 1001.44 
124 1 1 0.379851 0.00874625 0 0 0 0 -0.149224 -0.0568937 0 0.00140161 -0.013125 0 -0.149224 -0.0568937 0 694.177 694.177 1001.64 
125 1 1 0.390667 0.0080937 0 0 0 0 -0.110117 0.0166052 0 -0.0476817 -0.00520283 0 -0.110117 0.0166052 0 669.565 669.565 1001.59 
126 1 1 0.396127 0.0176004 0 0 0 0 -0.12275 -0.0056484 0 -0.135173 -0.0538213 0 -0.12275 -0.0056484 0 610.975 610.975 1001.45 
127 1 1 0.402775 0.00733053 0 0 0 0 -0.0898334 -0.0278207 0 -0.087749 0.1318 0 -0.0898334 -0.0278207 0 734.514 734.514 1001.74 
128 1 1 0.414262 0.0092478 0 0 0 0 -0.0819952 0.0177443 0 -0.204769 -0.0460145 0 -0.0819952 0.0177443 0 687.307 687.307 1001.63 
129 1 1 0.424758 0.0074397 0 0 0 0 -0.0862169 -0.00472124 0 -0.0951729 -0.0097229 0 -0.0862169 -0.00472124 0 688.108 688.108 1001.63 
130 1 1 0.430193 0.0162397 0 0 0 0 -0.0667738 -0.0215241 0 -0.160485 -0.0203104 0 -0.0667738 -0.0215241 0 656.002 656.002 1001.55 
131 1 1 0.436138 0.00875034 0 0 0 0 -0.0670257 -0.0159588 0 0.0182332 -0.0764537 0 -0.0670257 -0.0159588 0 700.637 700.637 1001.66 
132 1 1 0.431519 0.0240965 0 0 0 0 -0.14637 -0.00635792 0 0.0195295 -0.0490348 0 -0.14637 -0.00635792 0 589.193 589.193 1001.4 
133 1 1 0.441843 0.0168395 0 0 0 0 -0.108107 0.0128625 0 -0.103618 -0.0538581 0 -0.108107 0.0128625 0 624.344 624.344 1001.48 
134 1 1 0.449468 0.0215049 0 0 0 0 -0.033942 -0.0147934 0 0.0215059 -0.134819 0 -0.033942 -0.0147934 0 622.89 622.89 1001.48 
135 1 1 0.447776 0.00720253 0 0 0 0 -0.056559 0.0124332 0 -0.0293554 0.0407177 0 -0.056559 0.0124332 0 719.232 719.232 1001.7 
136 1 1 0.454287 0.0124956 0 0 0 0 -0.0888575 -0.0225036 0 0.12402 0.0132208 0 -0.0888575 -0.0225036 0 711.441 711.441 1001.69 
137 1 1 0.464135 0.00676458 0 0 0 0 -0.0277111 -0.022445 0 -0.023219 0.0118604 0 -0.0277111 -0.022445 0 755.335 755.335 1001.79 
138 1 1 0.477803 0.00765464 0 0 0 0 -0.0104442 0.00841248 0 -0.0154847 -0.0377987 0 -0.0104442 0.00841248 0 704.155 704.155 1001.67 
139 1 1 0.490063 0.00738905 0 0 0 0 -0.00481533 -0.0110024 0 0.0700002 -0.00476345 0 -0.00481533 -0.0110024 0 711.909 711.909 1001.69 
140 1 1 0.212685 0.0358759 0 0 0 0 -0.0813048 -0.0119814 0 -0.041933 0.00477882 0 -0.0813048 -0.0119814 0 205.987 205.987 1000.49 
141 1 1 0.217179 0.0267517 0 0 0 0 -0.0251161 -0.0295628 0 -0.0637438 0.0206421 0 -0.0251161 -0.0295628 0 321.477 321.477 1000.76 
142 1 1 0.250925 0.0350939 0 0 0 0 -0.0844461 0.0229041 0 -0.0702378 -0.0113406 0 -0.0844461 0.0229041 0 247.456 247.456 1000.59 
143 1 1 0.232751 0.0232489 0 0 0 0 -0.0144506 -0.00376071 0 -0.106175 0.0290753 0 -0.0144506 -0.00376071 0 358.525 358.525 1000.85 
144 1 1 0.262311 0.0362735 0 0 0 0 -0.0799194 -0.0195944 0 -0.160343 0.0170311 0 -0.0799194 -0.0195944 0 242.987 242.987 1000.58 
145 1 1 0.246201 0.0205207 0 0 0 0 -0.0411715 0.0089953 0 -0.0939523 0.02507 0 -0.0411715 0.0089953 0 402.806 402.806 1000.96 
146 1 1 0.274039 0.0347308 0 0 0 0 -0.0705199 0.0021703 0 -0.0676677 -0.00023897 0 -0.0705199 0.0021703 0 298.495 298.495 1000.71 
147 1 1 0.255421 0.026904 0 0 0 0 -0.0879002 -0.00685233 0 -0.0908078 0.00323541 0 -0.0879002 -0.00685233 0 346.129 346.129 1000.82 
148 1 1 0.266691 0.0270672 0 0 0 0 -0.0727397 0.00141688 0 -0.118238 0.00825026 0 -0.0727397 0.00141688 0 355.867 355.867 1000.85 
149 1 1 0.271833 0.0185527 0 0 0 0 -0.024787 -0.0114748 0 -0.115659 -0.0076373 0 -0.024787 -0.0114748 0 450.547 450.547 1001.07 
150 1 1 0.301704 0.028262 0 0 0 0 -0.087964 0.0343121 0 -0.185725 0.0396636 0 -0.087964 0.0343121 0 401.617 401.617 1000.95 
151 1 1 0.283749 0.017607 0 0 0 0 -0.0753867 0.0246411 0 -0.200043 -0.0119455 0 -0.0753867 0.0246411 0 481.583 481.583 1001.14 
152 1 1 0.292547 0.0197986 0 0 0 0 -0.0943446 0.0030122 0 -0.110001 -0.0107684 0 -0.0943446 0.0030122 0 480.012 480.012 1001.14 
153 1 1 0.300724 0.0177766 0 0 0 0 -0.0890506 0.0407249 0 -0.135959 0.00503274 0 -0.0890506 0.0407249 0 494.67 494.67 1001.17 
154 1 1 0.330617 0.0203854 0 0 0 0 -0.128146 0.00766698 0 -0.0894988 0.0386554 0 -0.128146 0.00766698 0 524.281 524.281 1001.24 
155 1 1 0.339111 0.0186146 0 0 0 0 -0.152764 0.0253765 0 -0.18269 0.0122366 0 -0.152764 0.0253765 0 547.009 547.009 1001.3 
156 1 1 0.33992 0.0318276 0 0 0 0 -0.0867256 0.0175572 0 -0.105551 -0.092201 0 -0.0867256 0.0175572 0 429.504 429.504 1001.02 
157 1 1 0.347271 0.0203675 0 0 0 0 -0.128891 -0.00565303 0 -0.125692 -0.0454183 0 -0.128891 -0.00565303 0 553.151 553.151 1001.31 
158 1 1 0.349483 0.0302256 0 0 0 0 -0.115791 0.0391186 0 -0.0254133 0.000438124 0 -0.115791 0.0391186 0 453.004 453.004 1001.08 
159 1 1 0.360162 0.0285977 0 0 0 0 -0.132929 0.0258422 0 -0.139556 -0.0663325 0 -0.132929 0.0258422 0 487.941 487.941 1001.16 
160 1 1 0.363855 0.0153903 0 0 0 0 -0.13152 0.0219341 0 0.00907523 -0.0419857 0 -0.13152 0.0219341 0 607.177 607.177 1001.44 
161 1 1 0.369458 0.0224719 0 0 0 0 -0.145963 0.0289973 0 -0.110359 0.0831608 0 -0.145963 0.0289973 0 562.85 562.85 1001.33 
162 1 1 0.378567 0.0273077 0 0 0 0 -0.0904341 -0.0186146 0 -0.0339077 -0.0121936 0 -0.0904341 -0.0186146 0 527.185 527.185 1001.25 
163 1 1 0.387505 0.0184665 0 0 0 0 -0.181424 -0.0522939 0 -0.123004 0.0357094 0 -0.181424 -0.0522939 0 601.998 601.998 1001.43 
164 1 1 0.399545 0.0274789 0 0 0 0 -0.161108 -0.00191995 0 -0.122672 0.0283983 0 -0.161108 -0.00191995 0 554.487 554.487 1001.32 
165 1 1 0.411741 0.0229326 0 0 0 0 -0.129819 -0.0509687 0 -0.0963861 0.129944 0 -0.129819 -0.0509687 0 595.088 595.088 1001.41 
166 1 1 0.404803 0.0168577 0 0 0 0 -0.146726 -0.0333714 0 0.0704818 -0.0441983 0 -0.146726 -0.0333714 0 641.862 641.862 1001.52 
167 1 1 0.420198 0.0349952 0 0 0 0 -0.134371 -0.0131366 0 -0.121043 -0.0183215 0 -0.134371 -0.0131366 0 488.315 488.315 1001.16 
168 1 1 0.418246 0.0170495 0 0 0 0 -0.102939 0.000474694 0 0.112743 -0.0427073 0 -0.102939 0.000474694 0 648.153 648.153 1001.54 
169 1 1 0.424361 0.0441803 0 0 0 0 -0.137578 -0.0425873 0 -0.0388008 -0.0919223 0 -0.137578 -0.0425873 0 393.657 393.657 1000.93 
170 1 1 0.422043 0.0267733 0 0 0 0 -0.0969968 -0.0142727 0 -0.0762675 -0.033274 0 -0.0969968 -0.0142727 0 571.973 571.973 1001.36 
171 1 1 0.431117 0.0351344 0 0 0 0 -0.0960177 -0.0226362 0 -0.0137494 -0.0375277 0 -0.0960177 -0.0226362 0 490.034 490.034 1001.16 
172 1 1 0.440466 0.0278523 0 0 0 0 -0.0760858 -0.0458454 0 -0.0740041 -0.0427975 0 -0.0760858 -0.0458454 0 544.108 544.108 1001.29 
173 1 1 0.452768 0.0297843 0 0 0 0 -0.0689568 -0.0561917 0 -0.0710673 0.0662465 0 -0.0689568 -0.0561917 0 565.725 565.725 1001.34 
174 1 1 0.461482 0.0194872 0 0 0 0 -0.0300524 -0.0787299 0 -0.141025 0.0481596 0 -0.0300524 -0.0787299 0 673.126 673.126 1001.6 
175 1 1 0.473631 0.0253257 0 0 0 0 -0.0715443 -0.0546237 0 -0.104357 -0.0458599 0 -0.0715443 -0.0546237 0 630.733 630.733 1001.5 
176 1 1 0.468346 0.0156322 0 0 0 0 -0.00249801 -0.0304898 0 0.159354 -0.0103732 0 -0.00249801 -0.0304898 0 706.441 706.441 1001.67 
177 1 1 0.479168 0.015135 0 0 0 0 0.0381094 0.00042945 0 0.099584 0.048711 0 0.0381094 0.00042945 0 679.957 679.957 1001.61 
178 1 1 0.490781 0.0165284 0 0 0 0 0.000871886 0.00522489 0 -0.0337079 0.0609857 0 0.000871886 0.00522489 0 682.945 682.945 1001.62 
179 1 1 0.201383 0.0345807 0 0 0 0 -0.0827952 -0.00364847 0 -0.0546013 0.019501 0 -0.0827952 -0.00364847 0 227.028 227.028 1000.54 
180 1 1 0.225602 0.0307734 0 0 0 0 -0.0649806 -0.00566893 0 -0.0433053 0.0275804 0 -0.0649806 -0.00566893 0 279.41 279.41 1000.66 
181 1 1 0.23826 0.0356879 0 0 0 0 -0.0814073 0.00766129 0 -0.0788031 0.114775 0 -0.0814073 0.00766129 0 217.174 217.174 1000.52 
182 1 1 0.24165 0.0289871 0 0 0 0 -0.0572776 0.0139434 0 -0.0676505 -0.00733828 0 -0.0572776 0.0139434 0 314.977 314.977 1000.75 
183 1 1 0.257885 0.0458013 0 0 0 0 -0.0503973 0.00973301 0 -0.0517232 0.00357514 0 -0.0503973 0.00973301 0 168.467 168.467 1000.4 
184 1 1 0.248464 0.0424457 0 0 0 0 -0.0432698 0.0129969 0 -0.208415 0.0450622 0 -0.0432698 0.0129969 0 154.686 154.686 1000.37 
185 1 1 0.269749 0.0430451 0 0 0 0 -0.0728864 0.00155676 0 -0.152102 0.00698605 0 -0.0728864 0.00155676 0 195.283 195.283 1000.46 
186 1 1 0.279155 0.0256458 0 0 0 0 -0.0704454 0.030554 0 -0.110426 0.0519296 0 -0.0704454 0.030554 0 400.515 400.515 1000.95 
187 1 1 0.289964 0.0295607 0 0 0 0 -0.0686293 0.0328612 0 -0.0670205 -0.0146202 0 -0.0686293 0.0328612 0 368.836 368.836 1000.88 
188 1 1 0.303902 0.0384286 0 0 0 0 -0.0807221 0.0411229 0 -0.152506 -0.0384079 0 -0.0807221 0.0411229 0 299.44 299.44 1000.71 
189 1 1 0.315471 0.0405212 0 0 0 0 -0.102325 -0.01605 0 -0.146985 0.0201896 0 -0.102325 -0.01605 0 336.335 336.335 1000.8 
190 1 1 0.310063 0.0184253 0 0 0 0 -0.0756657 0.0124713 0 -0.0933528 0.00613814 0 -0.0756657 0.0124713 0 527.773 527.773 1001.25 
191 1 1 0.323565 0.0376644 0 0 0 0 -0.121029 0.0174507 0 -0.12178 0.00577154 0 -0.121029 0.0174507 0 368.189 368.189 1000.87 
192 1 1 0.321595 0.0278168 0 0 0 0 -0.051541 -0.00643009 0 -0.174465 0.0640912 0 -0.051541 -0.00643009 0 448.137 448.137 1001.06 
193 1 1 0.338959 0.0426473 0 0 0 0 -0.117448 0.0496874 0 -0.114424 -0.0804831 0 -0.117448 0.0496874 0 290.635 290.635 1000.69 
194 1 1 0.338003 0.0525281 0 0 0 0 -0.129156 0.0919647 0 -0.157545 -0.0396292 0 -0.129156 0.0919647 0 244.051 244.051 1000.58 
195 1 1 0.349581 0.0394187 0 0 0 0 -0.113786 0.051121 0 -0.0624492 0.0103636 0 -0.113786 0.051121 0 370.419 370.419 1000.88 
196 1 1 0.361169 0.0368764 0 0 0 0 -0.124905 0.0560224 0 -0.209637 0.0803764 0 -0.124905 0.0560224 0 409.728 409.728 1000.97 
197 1 1 0.369843 0.0456915 0 0 0 0 -0.164027 0.0441349 0 -0.0244732 -0.106802 0 -0.164027 0.0441349 0 314.811 314.811 1000.75 
198 1 1 0.370338 0.0345273 0 0 0 0 -0.12858 -0.00616351 0 -0.0721648 -0.0276814 0 -0.12858 -0.00616351 0 451.632 451.632 1001.07 
199 1 1 0.382135 0.0463764 0 0 0 0 -0.142727 -0.0683346 0 -0.139628 0.0678821 0 -0.142727 -0.0683346 0 341.617 341.617 1000.81 
200 1 1 0.379507 0.0378981 0 0 0 0 -0.17963 -0.0142779 0 -0.187306 0.0114071 0 -0.17963 -0.0142779 0 447.545 447.545 1001.06 
201 1 1 0.388496 0.028151 0 0 0 0 -0.115607 -0.0397976 0 -0.0413145 -0.0177128 0 -0.115607 -0.0397976 0 524.2 524.2 1001.24 
202 1 1 0.390258 0.0507351 0 0 0 0 -0.187537 -0.0385464 0 -0.0773874 -0.111711 0 -0.187537 -0.0385464 0 315.822 315.822 1000.75 
203 1 1 0.397559 0.0395237 0 0 0 0 -0.136768 -0.0271284 0 -0.00506198 0.00743786 0 -0.136768 -0.0271284 0 432.33 432.33 1001.03 
204 1 1 0.40322 0.0474911 0 0 0 0 -0.134262 -0.0158547 0 -0.072369 -0.134609 0 -0.134262 -0.0158547 0 377.109 377.109 1000.9 
205 1 1 0.407092 0.0325062 0 0 0 0 -0.110808 -0.0670419 0 -0.0601257 -0.162296 0 -0.110808 -0.0670419 0 517.852 517.852 1001.23 
206 1 1 0.411286 0.0389935 0 0 0 0 -0.161287 -0.0560889 0 -0.0321546 0.12508 0 -0.161287 -0.0560889 0 470.877 470.877 1001.12 
207 1 1 0.433631 0.0526328 0 0 0 0 -0.0620874 -0.0603476 0 -0.00365249 -0.188009 0 -0.0620874 -0.0603476 0 351.354 351.354 1000.83 
208 1 1 0.445918 0.0519379 0 0 0 0 -0.0702859 -0.0739522 0 -0.17346 0.10257 0 -0.0702859 -0.0739522 0 360.163 360.163 1000.86 
209 1 1 0.435377 0.0435145 0 0 0 0 -0.0972978 -0.0502775 0 -0.033278 -0.00428306 0 -0.0972978 -0.0502775 0 424.394 424.394 1001.01 
210 1 1 0.447753 0.0433796 0 0 0 0 -0.0662905 -0.0889403 0 0.0731403 -0.112079 0 -0.0662905 -0.0889403 0 438.426 438.426 1001.04 
211 1 1 0.443482 0.0359481 0 0 0 0 -0.116088 -0.0421105 0 -0.00984444 -0.0794569 0 -0.116088 -0.0421105 0 508.686 508.686 1001.21 
212 1 1 0.459285 0.0376941 0 0 0 0 -0.0447745 -0.0428439 0 -0.0995244 0.0785769 0 -0.0447745 -0.0428439 0 526.959 526.959 1001.25 
213 1 1 0.462909 0.0293289 0 0 0 0 -0.0773645 -0.0659063 0 0.0335994 -0.0700588 0 -0.0773645 -0.0659063 0 564.486 564.486 1001.34 
214 1 1 0.472579 0.0345302 0 0 0 0 -0.0389065 -0.0672696 0 -0.105961 0.0518626 0 -0.0389065 -0.0672696 0 529.851 529.851 1001.26 
215 1 1 0.480626 0.0376147 0 0 0 0 0.0131464 -0.120209 0 0.0933483 -0.0506576 0 0.0131464 -0.120209 0 537.28 537.28 1001.27 
216 1 1 0.483437 0.0246922 0 0 0 0 -0.006469 0.0153868 0 -0.114951 -0.0424309 0 -0.006469 0.0153868 0 641.473 641.473 1001.52 
217 1 1 0.490065 0.0286391 0 0 0 0 0.0127719 -0.00699443 0 0.146305 0.0861542 0 0.0127719 -0.00699443 0 625.445 625.445 1001.48 
218 1 1 0.217662 0.0422708 0 0 0 0 -0.0604545 -0.0233084 0 -0.0277422 0.0473437 0 -0.0604545 -0.0233084 0 146.398 146.398 1000.35 
219 1 1 0.180671 0.0468602 0 0 0 0 -0.114039 0.0212229 0 -0.0413896 0.0874763 0 -0.114039 0.0212229 0 94.1397 94.1397 1000.22 
220 1 1 0.202608 0.0425525 0 0 0 0 -0.06023 -0.00966854 0 -0.0505675 0.0478834 0 -0.06023 -0.00966854 0 133.296 133.296 1000.32 
221 1 1 0.234309 0.0472609 0 0 0 0 -0.104956 0.0136811 0 -0.0420036 0.0367944 0 -0.104956 0.0136811 0 152.504 152.504 1000.36 
222 1 1 0.228726 0.0388351 0 0 0 0 -0.0737654 0.00569664 0 -0.109354 0.000691281 0 -0.0737654 0.00569664 0 207.211 207.211 1000.49 
223 1 1 0.282586 0.0469887 0 0 0 0 -0.0688498 0.0331166 0 -0.14196 -0.0337 0 -0.0688498 0.0331166 0 196.67 196.67 1000.47 
224 1 1 0.283479 0.0369855 0 0 0 0 -0.0786905 0.0497988 0 -0.139246 0.0148039 0 -0.0786905 0.0497988 0 291.076 291.076 1000.69 
225 1 1 0.294407 0.038501 0 0 0 0 -0.0687463 0.0199523 0 -0.145387 0.0627629 0 -0.0687463 0.0199523 0 329.064 329.064 1000.78 
226 1 1 0.29948 0.0503166 0 0 0 0 -0.0584357 0.0161723 0 -0.145767 0.0409784 0 -0.0584357 0.0161723 0 200.334 200.334 1000.48 
227 1 1 0.310808 0.0302251 0 0 0 0 -0.0831048 -0.0101112 0 -0.0639571 -0.0119772 0 -0.0831048 -0.0101112 0 391.918 391.918 1000.93 
228 1 1 0.308501 0.0477609 0 0 0 0 -0.0340423 0.0572916 0 -0.115563 0.0365952 0 -0.0340423 0.0572916 0 207.025 207.025 1000.49 
229 1 1 0.321004 0.0518636 0 0 0 0 -0.0629972 0.0147074 0 -0.140456 -0.116719 0 -0.0629972 0.0147074 0 235.65 235.65 1000.56 
230 1 1 0.332561 0.0309994 0 0 0 0 -0.0785418 0.0445648 0 -0.178667 0.0155903 0 -0.0785418 0.0445648 0 429.837 429.837 1001.02 
231 1 1 0.329654 0.0445975 0 0 0 0 -0.0870165 0.00389387 0 -0.102729 0.0605752 0 -0.0870165 0.00389387 0 304.351 304.351 1000.72 