ITEM: TIMESTEP
4000
ITEM: NUMBER OF ATOMS
754
ITEM: BOX BOUNDS ff ff pp
-0.021 0.521
-0.021 0.5
-0.001 0.001
ITEM: ATOMS id type type x y z ix iy iz vx vy vz fx fy fz vx vy vz p p rho 
1 1 1 0.00952874 0.00919982 0 0 0 0 -0.0105642 -0.0146029 0 0.28849 0.311692 0 -0.0105642 -0.0146029 0 1455.29 1455.29 1003.43 
2 1 1 0.0201145 0.00965792 0 0 0 0 0.00760149 -0.00777581 0 0.123325 0.217815 0 0.00760149 -0.00777581 0 1422.69 1422.69 1003.35 
3 1 1 0.0303593 0.0095055 0 0 0 0 0.0110435 -0.00692441 0 0.0779176 0.207702 0 0.0110435 -0.00692441 0 1411.68 1411.68 1003.33 
4 1 1 0.040644 0.00957843 0 0 0 0 0.0253985 -0.00498814 0 0.0810054 0.178916 0 0.0253985 -0.00498814 0 1392.21 1392.21 1003.28 
5 1 1 0.050949 0.00956699 0 0 0 0 0.0338713 -0.00610439 0 -0.0126291 0.153385 0 0.0338713 -0.00610439 0 1395 1395 1003.29 
6 1 1 0.061218 0.0095647 0 0 0 0 0.046074 -0.00707597 0 0.00373523 0.157679 0 0.046074 -0.00707597 0 1384.05 1384.05 1003.26 
7 1 1 0.0715883 0.00954581 0 0 0 0 0.0656785 -0.011635 0 -0.0917633 0.085824 0 0.0656785 -0.011635 0 1403.64 1403.64 1003.31 
8 1 1 0.081791 0.00958431 0 0 0 0 0.0749328 -0.00558515 0 -0.0740393 0.155389 0 0.0749328 -0.00558515 0 1376.51 1376.51 1003.25 
9 1 1 0.0924451 0.00942314 0 0 0 0 0.142379 -0.0368225 0 0.337623 -0.177296 0 0.142379 -0.0368225 0 1521.48 1521.48 1003.58 
10 1 1 0.101949 0.00967048 0 0 0 0 0.0824378 -0.0107585 0 -0.636615 0.024835 0 0.0824378 -0.0107585 0 1095.2 1095.2 1002.59 
11 1 1 0.0100352 0.0193152 0 0 0 0 -0.00165406 -0.013582 0 0.205229 0.222224 0 -0.00165406 -0.013582 0 1308.42 1308.42 1003.09 
12 1 1 0.0200687 0.0192077 0 0 0 0 0.012508 -0.0101304 0 0.070379 0.167488 0 0.012508 -0.0101304 0 1316.04 1316.04 1003.1 
13 1 1 0.0304645 0.0193847 0 0 0 0 0.0115152 -0.0108112 0 0.0635048 0.0950019 0 0.0115152 -0.0108112 0 1307.68 1307.68 1003.08 
14 1 1 0.0406342 0.0193228 0 0 0 0 0.0265606 -0.0154316 0 0.0997598 0.117222 0 0.0265606 -0.0154316 0 1281.59 1281.59 1003.02 
15 1 1 0.0509591 0.0193224 0 0 0 0 0.0323051 -0.0169954 0 -0.0246683 0.107245 0 0.0323051 -0.0169954 0 1289.58 1289.58 1003.04 
16 1 1 0.061212 0.0193051 0 0 0 0 0.0451011 -0.0202962 0 0.0247276 0.117065 0 0.0451011 -0.0202962 0 1273.13 1273.13 1003 
17 1 1 0.0716095 0.0192591 0 0 0 0 0.0640531 -0.0289002 0 -0.118764 0.0946682 0 0.0640531 -0.0289002 0 1303.82 1303.82 1003.08 
18 1 1 0.081792 0.0192655 0 0 0 0 0.0655102 -0.0371629 0 -0.12761 0.0629337 0 0.0655102 -0.0371629 0 1253.91 1253.91 1002.96 
19 1 1 0.0925576 0.0192515 0 0 0 0 0.134544 -0.0627073 0 0.0690581 -0.279367 0 0.134544 -0.0627073 0 1478.3 1478.3 1003.48 
20 1 1 0.102085 0.0196964 0 0 0 0 0.0628718 -0.0183717 0 -1.20774 -0.117549 0 0.0628718 -0.0183717 0 975.693 975.693 1002.31 
21 1 1 0.00987066 0.0290539 0 0 0 0 -0.000459501 -0.0198632 0 0.189576 0.240886 0 -0.000459501 -0.0198632 0 1167.59 1167.59 1002.76 
22 1 1 0.0202524 0.029115 0 0 0 0 0.0126543 -0.02205 0 0.0084882 0.214388 0 0.0126543 -0.02205 0 1175.92 1175.92 1002.78 
23 1 1 0.0303788 0.0290319 0 0 0 0 0.00725349 -0.0279825 0 0.0986543 0.23897 0 0.00725349 -0.0279825 0 1154.49 1154.49 1002.73 
24 1 1 0.0406469 0.029052 0 0 0 0 0.0284068 -0.0214188 0 0.0948001 0.246181 0 0.0284068 -0.0214188 0 1132.48 1132.48 1002.67 
25 1 1 0.0509384 0.029017 0 0 0 0 0.0285872 -0.0289415 0 -0.0309295 0.200347 0 0.0285872 -0.0289415 0 1143.85 1143.85 1002.7 
26 1 1 0.0611741 0.0289726 0 0 0 0 0.0421983 -0.030482 0 0.0710598 0.24114 0 0.0421983 -0.030482 0 1125.06 1125.06 1002.66 
27 1 1 0.0715922 0.0288958 0 0 0 0 0.0554585 -0.0444067 0 -0.164076 0.189269 0 0.0554585 -0.0444067 0 1157.3 1157.3 1002.73 
28 1 1 0.0817679 0.0289013 0 0 0 0 0.054485 -0.0443213 0 -0.116644 0.29441 0 0.054485 -0.0443213 0 1108.67 1108.67 1002.62 
29 1 1 0.0926364 0.0287438 0 0 0 0 0.124413 -0.0811091 0 -0.153832 0.203391 0 0.124413 -0.0811091 0 1397.31 1397.31 1003.29 
30 1 1 0.102163 0.0293855 0 0 0 0 0.0336308 -0.0472482 0 -1.75181 0.0682124 0 0.0336308 -0.0472482 0 819.445 819.445 1001.94 
31 1 1 0.00997688 0.0388519 0 0 0 0 0.00285932 -0.0222812 0 0.155392 0.304551 0 0.00285932 -0.0222812 0 1018.89 1018.89 1002.41 
32 1 1 0.0201946 0.0387835 0 0 0 0 0.00667131 -0.0246232 0 0.0273979 0.314131 0 0.00667131 -0.0246232 0 1014.16 1014.16 1002.4 
33 1 1 0.0304112 0.0387978 0 0 0 0 0.0156085 -0.0219047 0 0.099006 0.283705 0 0.0156085 -0.0219047 0 1001.1 1001.1 1002.37 
34 1 1 0.0406235 0.0387708 0 0 0 0 0.020288 -0.0279437 0 0.0486906 0.241495 0 0.020288 -0.0279437 0 993.973 993.973 1002.35 
35 1 1 0.0509035 0.0387129 0 0 0 0 0.0276993 -0.0331387 0 -0.0138639 0.252353 0 0.0276993 -0.0331387 0 1000.11 1000.11 1002.36 
36 1 1 0.0610979 0.0386292 0 0 0 0 0.0332164 -0.0375423 0 0.104794 0.288192 0 0.0332164 -0.0375423 0 980.638 980.638 1002.32 
37 1 1 0.0715928 0.0385496 0 0 0 0 0.0510299 -0.050771 0 -0.189251 0.279161 0 0.0510299 -0.050771 0 1017.62 1017.62 1002.41 
38 1 1 0.081617 0.0383849 0 0 0 0 0.0402687 -0.0588748 0 0.222894 0.492377 0 0.0402687 -0.0588748 0 959.477 959.477 1002.27 
39 1 1 0.092947 0.0382697 0 0 0 0 0.0999014 -0.109093 0 -0.492658 0.440667 0 0.0999014 -0.109093 0 1197.67 1197.67 1002.83 
40 1 1 0.102057 0.0391788 0 0 0 0 -0.0249136 -0.0583369 0 -0.633753 0.0713047 0 -0.0249136 -0.0583369 0 677.088 677.088 1001.6 
41 1 1 0.009976 0.0486609 0 0 0 0 0.00265379 -0.0264192 0 0.12915 0.290368 0 0.00265379 -0.0264192 0 876.287 876.287 1002.07 
42 1 1 0.0202069 0.0486218 0 0 0 0 0.00772273 -0.0295627 0 0.0212296 0.267803 0 0.00772273 -0.0295627 0 873.722 873.722 1002.07 
43 1 1 0.0303847 0.048594 0 0 0 0 0.0121006 -0.0330903 0 0.0605949 0.246458 0 0.0121006 -0.0330903 0 873.681 873.681 1002.07 
44 1 1 0.0405562 0.048528 0 0 0 0 0.0140273 -0.0363869 0 0.0675047 0.269484 0 0.0140273 -0.0363869 0 852.731 852.731 1002.02 
45 1 1 0.0508338 0.0484688 0 0 0 0 0.026471 -0.0387169 0 -0.00883872 0.260889 0 0.026471 -0.0387169 0 861.725 861.725 1002.04 
46 1 1 0.0609809 0.0483383 0 0 0 0 0.0207715 -0.0467032 0 0.133635 0.275614 0 0.0207715 -0.0467032 0 840.191 840.191 1001.99 
47 1 1 0.071473 0.0482376 0 0 0 0 0.0437716 -0.0549187 0 -0.157468 0.324181 0 0.0437716 -0.0549187 0 866.13 866.13 1002.05 
48 1 1 0.081398 0.0479339 0 0 0 0 0.0189177 -0.0755052 0 0.417123 0.304406 0 0.0189177 -0.0755052 0 806.415 806.415 1001.91 
49 1 1 0.0928634 0.0477999 0 0 0 0 0.0927032 -0.0564977 0 -0.407659 0.893771 0 0.0927032 -0.0564977 0 953.24 953.24 1002.25 
50 1 1 0.101885 0.0480262 0 0 0 0 -0.0181308 -0.0766807 0 0.46517 0.743272 0 -0.0181308 -0.0766807 0 651.739 651.739 1001.54 
51 1 1 0.00998027 0.0584798 0 0 0 0 0.00167764 -0.0306711 0 0.113897 0.337406 0 0.00167764 -0.0306711 0 720.905 720.905 1001.71 
52 1 1 0.0201849 0.0584171 0 0 0 0 0.00525429 -0.0341621 0 0.0136417 0.333146 0 0.00525429 -0.0341621 0 713.773 713.773 1001.69 
53 1 1 0.0303313 0.0583799 0 0 0 0 0.0110289 -0.0349093 0 0.0747292 0.332683 0 0.0110289 -0.0349093 0 713.35 713.35 1001.69 
54 1 1 0.0404991 0.0583122 0 0 0 0 0.0107238 -0.0379229 0 0.0466783 0.312034 0 0.0107238 -0.0379229 0 691.512 691.512 1001.64 
55 1 1 0.0507297 0.0582283 0 0 0 0 0.022439 -0.0412722 0 -0.00201557 0.308186 0 0.022439 -0.0412722 0 711.143 711.143 1001.68 
56 1 1 0.0608619 0.0580728 0 0 0 0 0.0112807 -0.0503977 0 0.130844 0.29883 0 0.0112807 -0.0503977 0 686.384 686.384 1001.63 
57 1 1 0.0712513 0.0579428 0 0 0 0 0.0301011 -0.0546578 0 -0.143602 0.338054 0 0.0301011 -0.0546578 0 699.234 699.234 1001.66 
58 1 1 0.0812534 0.0576122 0 0 0 0 0.0124871 -0.0791136 0 0.36329 0.239483 0 0.0124871 -0.0791136 0 688.162 688.162 1001.63 
59 1 1 0.0917861 0.057274 0 0 0 0 0.038892 -0.0709229 0 0.10651 0.723688 0 0.038892 -0.0709229 0 704.574 704.574 1001.67 
60 1 1 0.101661 0.0578706 0 0 0 0 0.0548155 -0.0997498 0 0.983892 0.575929 0 0.0548155 -0.0997498 0 540.549 540.549 1001.28 
61 1 1 0.00999088 0.0683196 0 0 0 0 0.00215704 -0.0323095 0 0.097104 0.338367 0 0.00215704 -0.0323095 0 565.272 565.272 1001.34 
62 1 1 0.0201668 0.068256 0 0 0 0 0.00531288 -0.0356679 0 0.0174579 0.316978 0 0.00531288 -0.0356679 0 559.643 559.643 1001.33 
63 1 1 0.0302748 0.0682086 0 0 0 0 0.00902657 -0.0371501 0 0.0625604 0.315877 0 0.00902657 -0.0371501 0 562.011 562.011 1001.33 
64 1 1 0.0404195 0.0681267 0 0 0 0 0.00747552 -0.040632 0 0.0267307 0.294419 0 0.00747552 -0.040632 0 545.724 545.724 1001.29 
65 1 1 0.0505873 0.0680138 0 0 0 0 0.016483 -0.0431478 0 0.0225887 0.316208 0 0.016483 -0.0431478 0 559.689 559.689 1001.33 
66 1 1 0.0607333 0.0678605 0 0 0 0 0.00607092 -0.0507257 0 0.0707747 0.270947 0 0.00607092 -0.0507257 0 537.885 537.885 1001.28 
67 1 1 0.0709843 0.067698 0 0 0 0 0.0183349 -0.0507642 0 -0.061406 0.29276 0 0.0183349 -0.0507642 0 550.924 550.924 1001.31 
68 1 1 0.0811099 0.0674072 0 0 0 0 0.000457349 -0.0748207 0 0.20285 0.241474 0 0.000457349 -0.0748207 0 551.638 551.638 1001.31 
69 1 1 0.0910797 0.0674756 0 0 0 0 -0.0150197 -0.0776344 0 0.257331 0.0314423 0 -0.0150197 -0.0776344 0 509.852 509.852 1001.21 
70 1 1 0.101533 0.0672184 0 0 0 0 -0.0236866 -0.128462 0 1.09407 -0.3336 0 -0.0236866 -0.128462 0 486.408 486.408 1001.15 
71 1 1 0.0100089 0.0782165 0 0 0 0 0.00230934 -0.0353649 0 0.0648518 0.357923 0 0.00230934 -0.0353649 0 410.224 410.224 1000.97 
72 1 1 0.0201043 0.0781846 0 0 0 0 0.00236051 -0.0371163 0 0.0112772 0.335151 0 0.00236051 -0.0371163 0 409.621 409.621 1000.97 
73 1 1 0.0301979 0.0781116 0 0 0 0 0.00640295 -0.0396234 0 0.0576407 0.334908 0 0.00640295 -0.0396234 0 407.42 407.42 1000.97 
74 1 1 0.0403237 0.0780247 0 0 0 0 0.00608686 -0.0411017 0 0.0206302 0.322939 0 0.00608686 -0.0411017 0 397.277 397.277 1000.94 
75 1 1 0.0504335 0.0778938 0 0 0 0 0.010638 -0.0432119 0 0.0309414 0.331761 0 0.010638 -0.0432119 0 403.993 403.993 1000.96 
76 1 1 0.0605934 0.0777331 0 0 0 0 0.00519331 -0.0477182 0 0.00105951 0.295031 0 0.00519331 -0.0477182 0 393.776 393.776 1000.93 
77 1 1 0.0707282 0.0775248 0 0 0 0 0.0119712 -0.0472826 0 0.029141 0.298343 0 0.0119712 -0.0472826 0 413.488 413.488 1000.98 
78 1 1 0.0809428 0.0773045 0 0 0 0 -0.0144717 -0.0558589 0 -0.064518 0.216085 0 -0.0144717 -0.0558589 0 384.903 384.903 1000.91 
79 1 1 0.0911992 0.0772672 0 0 0 0 -0.0161579 -0.0480193 0 -0.199342 -0.202468 0 -0.0161579 -0.0480193 0 426.036 426.036 1001.01 
80 1 1 0.10169 0.0771232 0 0 0 0 -0.0963594 -0.0623398 0 0.183429 -0.744863 0 -0.0963594 -0.0623398 0 517.634 517.634 1001.23 
81 1 1 0.00995394 0.0881233 0 0 0 0 0.00259737 -0.0383899 0 0.0882417 0.312598 0 0.00259737 -0.0383899 0 236.223 236.223 1000.56 
82 1 1 0.0201017 0.0879749 0 0 0 0 0.00420334 -0.0421898 0 0.0131109 0.332894 0 0.00420334 -0.0421898 0 236.518 236.518 1000.56 
83 1 1 0.0301166 0.0879265 0 0 0 0 0.00430536 -0.0428617 0 0.0510874 0.325256 0 0.00430536 -0.0428617 0 231.877 231.877 1000.55 
84 1 1 0.0402185 0.0878223 0 0 0 0 0.00557027 -0.0450215 0 0.0186907 0.313637 0 0.00557027 -0.0450215 0 227.018 227.018 1000.54 
85 1 1 0.0502726 0.0876813 0 0 0 0 0.00620207 -0.0471008 0 0.0274631 0.316708 0 0.00620207 -0.0471008 0 230.205 230.205 1000.55 
86 1 1 0.0604034 0.0875126 0 0 0 0 0.00531835 -0.0487033 0 -0.0152953 0.309451 0 0.00531835 -0.0487033 0 226.24 226.24 1000.54 
87 1 1 0.0704644 0.0872599 0 0 0 0 0.00618986 -0.0501515 0 0.0140689 0.312742 0 0.00618986 -0.0501515 0 241.811 241.811 1000.57 
88 1 1 0.0807412 0.0870548 0 0 0 0 -0.00500754 -0.0443761 0 -0.215 0.252584 0 -0.00500754 -0.0443761 0 232.669 232.669 1000.55 
89 1 1 0.0909405 0.0866984 0 0 0 0 0.000671389 -0.0166714 0 -0.367759 0.379699 0 0.000671389 -0.0166714 0 330.17 330.17 1000.78 
90 1 1 0.101982 0.0861582 0 0 0 0 -0.0554753 -0.0196494 0 -2.14804 0.323552 0 -0.0554753 -0.0196494 0 469.739 469.739 1001.11 
91 1 1 0.00976887 0.0981386 0 0 0 0 -0.00330781 -0.0335616 0 0.17383 0.321304 0 -0.00330781 -0.0335616 0 117.495 117.495 1000.28 
92 1 1 0.020035 0.0980541 0 0 0 0 0.00271999 -0.0369875 0 0.0159835 0.413535 0 0.00271999 -0.0369875 0 119.201 119.201 1000.28 
93 1 1 0.0300406 0.0980306 0 0 0 0 0.0015855 -0.0364128 0 0.0324181 0.381472 0 0.0015855 -0.0364128 0 113.694 113.694 1000.27 
94 1 1 0.0401088 0.0979205 0 0 0 0 0.00386032 -0.039346 0 0.018215 0.361712 0 0.00386032 -0.039346 0 111.743 111.743 1000.27 
95 1 1 0.0501464 0.0977681 0 0 0 0 0.00460516 -0.0408691 0 0.0240225 0.367577 0 0.00460516 -0.0408691 0 112.884 112.884 1000.27 
96 1 1 0.0602219 0.0975799 0 0 0 0 0.00575051 -0.0413275 0 0.00448648 0.368777 0 0.00575051 -0.0413275 0 110.714 110.714 1000.26 
97 1 1 0.0702666 0.0972833 0 0 0 0 0.00639256 -0.0413612 0 0.0036241 0.424802 0 0.00639256 -0.0413612 0 119.281 119.281 1000.28 
98 1 1 0.0804464 0.0970008 0 0 0 0 0.00935059 -0.032699 0 -0.101857 0.51775 0 0.00935059 -0.032699 0 124.091 124.091 1000.3 
99 1 1 0.0903948 0.0962923 0 0 0 0 0.00769852 -0.0307718 0 -0.0959924 0.910419 0 0.00769852 -0.0307718 0 161.481 161.481 1000.38 
100 1 1 0.101367 0.095797 0 0 0 0 0.0581663 -0.037385 0 -0.69988 0.996054 0 0.0581663 -0.037385 0 194.806 194.806 1000.46 
101 1 1 0.112672 0.0100123 0 0 0 0 0.18636 0.0302698 0 0.878979 0.414054 0 0.18636 0.0302698 0 598.668 598.668 1001.42 
102 1 1 0.121954 0.00991078 0 0 0 0 0.10429 0.00575299 0 0.0729864 0.091633 0 0.10429 0.00575299 0 718.5 718.5 1001.7 
103 1 1 0.13179 0.00995458 0 0 0 0 0.107944 0.0107727 0 0.189593 0.0864746 0 0.107944 0.0107727 0 655.068 655.068 1001.55 
104 1 1 0.141391 0.00993271 0 0 0 0 0.0811209 0.00770471 0 0.137845 0.0443452 0 0.0811209 0.00770471 0 651.726 651.726 1001.54 
105 1 1 0.151113 0.0099097 0 0 0 0 0.0679944 0.00606981 0 0.12811 0.0448103 0 0.0679944 0.00606981 0 629.094 629.094 1001.49 
106 1 1 0.160849 0.00987981 0 0 0 0 0.0522158 0.00379796 0 0.101037 0.0414748 0 0.0522158 0.00379796 0 617.468 617.468 1001.46 
107 1 1 0.170647 0.00985526 0 0 0 0 0.0408079 0.00231482 0 0.0859366 0.0416104 0 0.0408079 0.00231482 0 603.943 603.943 1001.43 
108 1 1 0.180485 0.00983482 0 0 0 0 0.0310666 0.000873253 0 0.0688113 0.0374574 0 0.0310666 0.000873253 0 593.935 593.935 1001.41 
109 1 1 0.190363 0.00981851 0 0 0 0 0.0236937 -0.000268681 0 0.0543077 0.035636 0 0.0236937 -0.000268681 0 585.37 585.37 1001.39 
110 1 1 0.20027 0.00980596 0 0 0 0 0.017845 -0.00115598 0 0.0416051 0.0342217 0 0.017845 -0.00115598 0 579.04 579.04 1001.37 
111 1 1 0.2102 0.00979639 0 0 0 0 0.0134467 -0.00185325 0 0.0320464 0.0332791 0 0.0134467 -0.00185325 0 573.995 573.995 1001.36 
112 1 1 0.220148 0.00978921 0 0 0 0 0.0100873 -0.00239233 0 0.0242231 0.0326162 0 0.0100873 -0.00239233 0 570.223 570.223 1001.35 
113 1 1 0.23011 0.00978385 0 0 0 0 0.00756086 -0.00280699 0 0.0184787 0.0321269 0 0.00756086 -0.00280699 0 567.345 567.345 1001.35 
114 1 1 0.240081 0.00977987 0 0 0 0 0.00566211 -0.00312411 0 0.0142978 0.0317078 0 0.00566211 -0.00312411 0 565.142 565.142 1001.34 
115 1 1 0.25006 0.00977692 0 0 0 0 0.00423966 -0.00336566 0 0.0114334 0.0312525 0 0.00423966 -0.00336566 0 563.412 563.412 1001.34 
116 1 1 0.260044 0.00977475 0 0 0 0 0.00317718 -0.003546 0 0.00960574 0.0306914 0 0.00317718 -0.003546 0 561.994 561.994 1001.33 
117 1 1 0.270032 0.00977317 0 0 0 0 0.00238361 -0.00367995 0 0.00860634 0.0299984 0 0.00238361 -0.00367995 0 560.765 560.765 1001.33 
118 1 1 0.280024 0.00977203 0 0 0 0 0.00179157 -0.00377758 0 0.00821035 0.0291176 0 0.00179157 -0.00377758 0 559.627 559.627 1001.33 
119 1 1 0.290018 0.00977121 0 0 0 0 0.00135029 -0.00384649 0 0.00825067 0.0280332 0 0.00135029 -0.00384649 0 558.506 558.506 1001.32 
120 1 1 0.300013 0.00977063 0 0 0 0 0.0010219 -0.00389272 0 0.00859129 0.0267379 0 0.0010219 -0.00389272 0 557.354 557.354 1001.32 
121 1 1 0.310009 0.00977023 0 0 0 0 0.000778304 -0.00392097 0 0.0091325 0.0252326 0 0.000778304 -0.00392097 0 556.136 556.136 1001.32 
122 1 1 0.320007 0.00976997 0 0 0 0 0.000597889 -0.00393515 0 0.00978341 0.023522 0 0.000597889 -0.00393515 0 554.831 554.831 1001.32 
123 1 1 0.330005 0.00976981 0 0 0 0 0.000466621 -0.0039382 0 0.0105106 0.0216075 0 0.000466621 -0.0039382 0 553.432 553.432 1001.31 
124 1 1 0.340004 0.00976973 0 0 0 0 0.00036869 -0.0039324 0 0.0112519 0.0195068 0 0.00036869 -0.0039324 0 551.925 551.925 1001.31 
125 1 1 0.350003 0.0097697 0 0 0 0 0.000302837 -0.00392083 0 0.0119845 0.0171933 0 0.000302837 -0.00392083 0 550.326 550.326 1001.31 
126 1 1 0.360003 0.00976972 0 0 0 0 0.00025024 -0.00390172 0 0.0128079 0.0147262 0 0.00025024 -0.00390172 0 548.614 548.614 1001.3 
127 1 1 0.370003 0.00976975 0 0 0 0 0.00021819 -0.00388454 0 0.0133458 0.0120166 0 0.00021819 -0.00388454 0 546.802 546.802 1001.3 
128 1 1 0.380003 0.00976984 0 0 0 0 0.000201777 -0.00385296 0 0.0144808 0.00916495 0 0.000201777 -0.00385296 0 544.936 544.936 1001.29 
129 1 1 0.390004 0.00976979 0 0 0 0 0.000154997 -0.0038398 0 0.0145823 0.00611038 0 0.000154997 -0.0038398 0 542.835 542.835 1001.29 
130 1 1 0.400005 0.00977001 0 0 0 0 0.000215201 -0.00379295 0 0.0162173 0.00270394 0 0.000215201 -0.00379295 0 540.93 540.93 1001.28 
131 1 1 0.410007 0.00976955 0 0 0 0 5.16634e-05 -0.00378626 0 0.0159868 -0.00044999 0 5.16634e-05 -0.00378626 0 538.394 538.394 1001.28 
132 1 1 0.420009 0.00977011 0 0 0 0 0.000322125 -0.00373564 0 0.0179139 -0.00465796 0 0.000322125 -0.00373564 0 536.61 536.61 1001.27 
133 1 1 0.430012 0.00976813 0 0 0 0 -0.000183487 -0.00374865 0 0.0181076 -0.00804834 0 -0.000183487 -0.00374865 0 533.354 533.354 1001.27 
134 1 1 0.44002 0.00976959 0 0 0 0 0.00066793 -0.00369724 0 0.0190931 -0.0132388 0 0.00066793 -0.00369724 0 531.982 531.982 1001.26 
135 1 1 0.450026 0.00976314 0 0 0 0 -0.000533268 -0.0037599 0 0.0222789 -0.0167086 0 -0.000533268 -0.0037599 0 527.673 527.673 1001.25 
136 1 1 0.460045 0.00976511 0 0 0 0 0.00147101 -0.00338551 0 0.0210406 -0.0206532 0 0.00147101 -0.00338551 0 526.612 526.612 1001.25 
137 1 1 0.470085 0.00971825 0 0 0 0 -8.69718e-05 -0.00580205 0 0.0263415 -0.0272805 0 -8.69718e-05 -0.00580205 0 520.615 520.615 1001.23 
138 1 1 0.480077 0.00982307 0 0 0 0 0.00320443 -0.00222548 0 0.0371601 -0.0497853 0 0.00320443 -0.00222548 0 521.159 521.159 1001.24 
139 1 1 0.490417 0.00942024 0 0 0 0 0.00358047 -0.0061213 0 0.036815 -0.0348494 0 0.00358047 -0.0061213 0 523.385 523.385 1001.24 
140 1 1 0.112866 0.0202925 0 0 0 0 0.192124 0.0468801 0 0.761327 0.245168 0 0.192124 0.0468801 0 429.982 429.982 1001.02 
141 1 1 0.121978 0.0203379 0 0 0 0 0.0996113 0.0344892 0 -0.00872349 0.100173 0 0.0996113 0.0344892 0 613.309 613.309 1001.45 
142 1 1 0.131806 0.0203863 0 0 0 0 0.111019 0.0328721 0 0.211394 0.106882 0 0.111019 0.0328721 0 510.322 510.322 1001.21 
143 1 1 0.141324 0.020342 0 0 0 0 0.0761656 0.0273538 0 0.12889 0.0881061 0 0.0761656 0.0273538 0 515.931 515.931 1001.22 
144 1 1 0.151051 0.0202813 0 0 0 0 0.0645075 0.0237304 0 0.129888 0.0805647 0 0.0645075 0.0237304 0 487.103 487.103 1001.16 
145 1 1 0.160782 0.0202038 0 0 0 0 0.0479304 0.0188528 0 0.100833 0.0711569 0 0.0479304 0.0188528 0 477.339 477.339 1001.13 
146 1 1 0.170595 0.0201302 0 0 0 0 0.03767 0.0146258 0 0.0834847 0.0701819 0 0.03767 0.0146258 0 464.15 464.15 1001.1 
147 1 1 0.180442 0.0200679 0 0 0 0 0.0281937 0.010924 0 0.0641678 0.0656363 0 0.0281937 0.010924 0 456.605 456.605 1001.08 
148 1 1 0.19033 0.0200174 0 0 0 0 0.0215144 0.00780815 0 0.0518376 0.0617102 0 0.0215144 0.00780815 0 449.014 449.014 1001.07 
149 1 1 0.200244 0.019978 0 0 0 0 0.0161392 0.00533624 0 0.0392254 0.0585124 0 0.0161392 0.00533624 0 443.719 443.719 1001.05 
150 1 1 0.210181 0.0199479 0 0 0 0 0.0121485 0.00340147 0 0.0303347 0.0557515 0 0.0121485 0.00340147 0 439.383 439.383 1001.04 
151 1 1 0.220134 0.0199251 0 0 0 0 0.00910343 0.00191136 0 0.0229814 0.0535994 0 0.00910343 0.00191136 0 436.127 436.127 1001.04 
152 1 1 0.230099 0.0199081 0 0 0 0 0.00682108 0.000776798 0 0.017587 0.0519453 0 0.00682108 0.000776798 0 433.606 433.606 1001.03 
153 1 1 0.240073 0.0198954 0 0 0 0 0.00510665 -8.3363e-05 0 0.0135992 0.0506512 0 0.00510665 -8.3363e-05 0 431.665 431.665 1001.02 
154 1 1 0.250054 0.019886 0 0 0 0 0.00382353 -0.000733219 0 0.0107988 0.0495788 0 0.00382353 -0.000733219 0 430.137 430.137 1001.02 
155 1 1 0.26004 0.0198791 0 0 0 0 0.00286397 -0.00122417 0 0.00893031 0.0486092 0 0.00286397 -0.00122417 0 428.895 428.895 1001.02 
156 1 1 0.270029 0.0198739 0 0 0 0 0.00214762 -0.00159528 0 0.00779493 0.0476505 0 0.00214762 -0.00159528 0 427.835 427.835 1001.02 
157 1 1 0.280022 0.0198702 0 0 0 0 0.00161358 -0.00187646 0 0.00721466 0.0466238 0 0.00161358 -0.00187646 0 426.874 426.874 1001.01 
158 1 1 0.290016 0.0198674 0 0 0 0 0.0012158 -0.00209054 0 0.00704473 0.0454784 0 0.0012158 -0.00209054 0 425.952 425.952 1001.01 
159 1 1 0.300012 0.0198654 0 0 0 0 0.000919942 -0.00225467 0 0.00716488 0.0441811 0 0.000919942 -0.00225467 0 425.025 425.025 1001.01 
160 1 1 0.310009 0.0198639 0 0 0 0 0.000700582 -0.00238177 0 0.00748933 0.0427162 0 0.000700582 -0.00238177 0 424.064 424.064 1001.01 
161 1 1 0.320006 0.0198628 0 0 0 0 0.000537631 -0.00248165 0 0.00792606 0.0410803 0 0.000537631 -0.00248165 0 423.045 423.045 1001 
162 1 1 0.330005 0.019862 0 0 0 0 0.000419552 -0.0025616 0 0.00845797 0.0392745 0 0.000419552 -0.0025616 0 421.964 421.964 1001 
163 1 1 0.340004 0.0198614 0 0 0 0 0.000329296 -0.00262695 0 0.00900957 0.0373163 0 0.000329296 -0.00262695 0 420.796 420.796 1001 
164 1 1 0.350003 0.019861 0 0 0 0 0.000270915 -0.0026827 0 0.00955499 0.0351991 0 0.000270915 -0.0026827 0 419.569 419.569 1001 
165 1 1 0.360003 0.0198607 0 0 0 0 0.000219587 -0.00272971 0 0.01025 0.0329585 0 0.000219587 -0.00272971 0 418.247 418.247 1000.99 
166 1 1 0.370003 0.0198603 0 0 0 0 0.000189975 -0.00277497 0 0.0105288 0.0305791 0 0.000189975 -0.00277497 0 416.839 416.839 1000.99 
167 1 1 0.380003 0.01986 0 0 0 0 0.00017729 -0.00281176 0 0.0116945 0.028065 0 0.00017729 -0.00281176 0 415.434 415.434 1000.99 
168 1 1 0.390004 0.0198596 0 0 0 0 0.000112604 -0.00285354 0 0.0113165 0.0255023 0 0.000112604 -0.00285354 0 413.715 413.715 1000.98 
169 1 1 0.400004 0.0198591 0 0 0 0 0.000214854 -0.00288875 0 0.0131902 0.0226205 0 0.000214854 -0.00288875 0 412.421 412.421 1000.98 
170 1 1 0.410006 0.0198582 0 0 0 0 -4.10147e-05 -0.00292 0 0.0125105 0.0200182 0 -4.10147e-05 -0.00292 0 410.164 410.164 1000.97 
171 1 1 0.420008 0.0198571 0 0 0 0 0.000360793 -0.0029988 0 0.0139646 0.0165892 0 0.000360793 -0.0029988 0 409.135 409.135 1000.97 
172 1 1 0.43001 0.0198551 0 0 0 0 -0.000330279 -0.00296828 0 0.0148268 0.0136354 0 -0.000330279 -0.00296828 0 406.31 406.31 1000.96 
173 1 1 0.440018 0.0198506 0 0 0 0 0.000647867 -0.00320666 0 0.0143947 0.010702 0 0.000647867 -0.00320666 0 405.557 405.557 1000.96 
174 1 1 0.450016 0.0198451 0 0 0 0 -0.000957454 -0.00317821 0 0.0164635 0.00639375 0 -0.000957454 -0.00317821 0 401.838 401.838 1000.95 
175 1 1 0.460039 0.019827 0 0 0 0 0.0016975 -0.0041944 0 0.016661 -5.96198e-05 0 0.0016975 -0.0041944 0 402.775 402.775 1000.96 
176 1 1 0.470012 0.0198302 0 0 0 0 -0.00308479 -0.00207946 0 0.0193145 0.00216693 0 -0.00308479 -0.00207946 0 396.314 396.314 1000.94 
177 1 1 0.480118 0.0196944 0 0 0 0 0.00336474 -0.00755791 0 0.00573452 -0.00391622 0 0.00336474 -0.00755791 0 398.725 398.725 1000.95 
178 1 1 0.489949 0.0198063 0 0 0 0 -0.00300119 -0.00482243 0 0.0476536 -0.0364492 0 -0.00300119 -0.00482243 0 399.895 399.895 1000.95 
179 1 1 0.113239 0.0307769 0 0 0 0 0.206073 0.0670669 0 0.585108 0.213324 0 0.206073 0.0670669 0 246.88 246.88 1000.59 
180 1 1 0.121968 0.0309851 0 0 0 0 0.0807974 0.0609259 0 -0.10717 0.034956 0 0.0807974 0.0609259 0 515.745 515.745 1001.22 
181 1 1 0.131868 0.0309775 0 0 0 0 0.116371 0.0609648 0 0.248739 0.0933792 0 0.116371 0.0609648 0 380.488 380.488 1000.9 
182 1 1 0.141251 0.0308251 0 0 0 0 0.0724971 0.0547545 0 0.138679 0.106401 0 0.0724971 0.0547545 0 398.341 398.341 1000.95 
183 1 1 0.150973 0.0306233 0 0 0 0 0.0619692 0.0444685 0 0.138101 0.116818 0 0.0619692 0.0444685 0 366.396 366.396 1000.87 
184 1 1 0.160687 0.0304529 0 0 0 0 0.0430223 0.0351777 0 0.100489 0.106807 0 0.0430223 0.0351777 0 358.646 358.646 1000.85 
185 1 1 0.170511 0.0303094 0 0 0 0 0.0333993 0.0267238 0 0.0858016 0.0947495 0 0.0333993 0.0267238 0 343.466 343.466 1000.82 
186 1 1 0.180372 0.0301968 0 0 0 0 0.0243154 0.0200635 0 0.0615165 0.0858392 0 0.0243154 0.0200635 0 336.175 336.175 1000.8 
187 1 1 0.190274 0.0301105 0 0 0 0 0.0183023 0.0148035 0 0.0489882 0.0767805 0 0.0183023 0.0148035 0 328.932 328.932 1000.78 
188 1 1 0.200201 0.030045 0 0 0 0 0.0135676 0.0107241 0 0.0362272 0.0694105 0 0.0135676 0.0107241 0 324.117 324.117 1000.77 
189 1 1 0.210148 0.0299958 0 0 0 0 0.0101344 0.00760459 0 0.0276385 0.0633432 0 0.0101344 0.00760459 0 320.275 320.275 1000.76 
190 1 1 0.220109 0.0299592 0 0 0 0 0.00754883 0.0052357 0 0.0207214 0.0585251 0 0.00754883 0.0052357 0 317.455 317.455 1000.75 
191 1 1 0.230081 0.0299319 0 0 0 0 0.00563313 0.00344529 0 0.0157148 0.0547521 0 0.00563313 0.00344529 0 315.3 315.3 1000.75 
192 1 1 0.240059 0.0299117 0 0 0 0 0.00420362 0.00209577 0 0.0120226 0.0517851 0 0.00420362 0.00209577 0 313.659 313.659 1000.75 
193 1 1 0.250044 0.0298968 0 0 0 0 0.00314003 0.00108077 0 0.00944137 0.0493829 0 0.00314003 0.00108077 0 312.375 312.375 1000.74 
194 1 1 0.260032 0.0298858 0 0 0 0 0.00234778 0.000318615 0 0.00769104 0.0473757 0 0.00234778 0.000318615 0 311.337 311.337 1000.74 
195 1 1 0.270024 0.0298776 0 0 0 0 0.00175808 -0.00025338 0 0.00658349 0.0456017 0 0.00175808 -0.00025338 0 310.453 310.453 1000.74 
196 1 1 0.280018 0.0298717 0 0 0 0 0.00131939 -0.000682664 0 0.00596284 0.0439338 0 0.00131939 -0.000682664 0 309.657 309.657 1000.74 
197 1 1 0.290013 0.0298672 0 0 0 0 0.000993251 -0.00100502 0 0.00570414 0.0422766 0 0.000993251 -0.00100502 0 308.897 308.897 1000.73 
198 1 1 0.30001 0.029864 0 0 0 0 0.000751176 -0.00124722 0 0.00570034 0.0405572 0 0.000751176 -0.00124722 0 308.137 308.137 1000.73 
199 1 1 0.310007 0.0298616 0 0 0 0 0.000572219 -0.00142932 0 0.0058818 0.0387288 0 0.000572219 -0.00142932 0 307.351 307.351 1000.73 
200 1 1 0.320005 0.0298599 0 0 0 0 0.000439561 -0.00156644 0 0.00616514 0.0367622 0 0.000439561 -0.00156644 0 306.517 306.517 1000.73 
201 1 1 0.330004 0.0298586 0 0 0 0 0.000344654 -0.00166993 0 0.00654438 0.0346398 0 0.000344654 -0.00166993 0 305.636 305.636 1000.73 
202 1 1 0.340003 0.0298576 0 0 0 0 0.000271638 -0.00174809 0 0.00694765 0.0323538 0 0.000271638 -0.00174809 0 304.681 304.681 1000.72 
203 1 1 0.350003 0.0298568 0 0 0 0 0.000227254 -0.00180746 0 0.00734434 0.0299068 0 0.000227254 -0.00180746 0 303.681 303.681 1000.72 
204 1 1 0.360002 0.0298562 0 0 0 0 0.000186907 -0.00185267 0 0.00791071 0.027281 0 0.000186907 -0.00185267 0 302.603 302.603 1000.72 
205 1 1 0.370003 0.0298557 0 0 0 0 0.000165902 -0.00188586 0 0.00804965 0.0245261 0 0.000165902 -0.00188586 0 301.445 301.445 1000.72 
206 1 1 0.380003 0.0298551 0 0 0 0 0.000163867 -0.0019142 0 0.00906455 0.0215448 0 0.000163867 -0.0019142 0 300.32 300.32 1000.71 
207 1 1 0.390004 0.0298545 0 0 0 0 0.000103272 -0.00192462 0 0.00864747 0.0184911 0 0.000103272 -0.00192462 0 298.873 298.873 1000.71 
208 1 1 0.400004 0.0298536 0 0 0 0 0.000213126 -0.00195176 0 0.0101165 0.0152081 0 0.000213126 -0.00195176 0 297.883 297.883 1000.71 
209 1 1 0.410005 0.0298528 0 0 0 0 -2.91558e-05 -0.00193077 0 0.00981875 0.0116425 0 -2.91558e-05 -0.00193077 0 295.991 295.991 1000.7 
210 1 1 0.420008 0.0298508 0 0 0 0 0.000315986 -0.00196942 0 0.0100462 0.00836892 0 0.000315986 -0.00196942 0 295.169 295.169 1000.7 
211 1 1 0.430007 0.0298494 0 0 0 0 -0.000239135 -0.00191924 0 0.0123861 0.00388391 0 -0.000239135 -0.00191924 0 293.124 293.124 1000.7 
212 1 1 0.440014 0.0298436 0 0 0 0 0.000275295 -0.00204852 0 0.00912662 0.000559511 0 0.000275295 -0.00204852 0 291.92 291.92 1000.69 
213 1 1 0.450007 0.0298429 0 0 0 0 -0.000457695 -0.00185671 0 0.0146948 -0.00609528 0 -0.000457695 -0.00185671 0 290.26 290.26 1000.69 
214 1 1 0.460018 0.0298185 0 0 0 0 -0.000478853 -0.00214698 0 0.00751393 -0.00447239 0 -0.000478853 -0.00214698 0 288.599 288.599 1000.69 
215 1 1 0.47002 0.0298108 0 0 0 0 0.000528038 -0.00407596 0 0.0200707 -0.0247383 0 0.000528038 -0.00407596 0 288.217 288.217 1000.68 
216 1 1 0.479999 0.0297712 0 0 0 0 -0.00130835 -0.00181011 0 0.00756774 -0.0146548 0 -0.00130835 -0.00181011 0 283.333 283.333 1000.67 
217 1 1 0.490096 0.0297119 0 0 0 0 0.00219582 -0.00446036 0 0.0186996 -0.0220175 0 0.00219582 -0.00446036 0 284.524 284.524 1000.68 
218 1 1 0.114266 0.0409421 0 0 0 0 0.266397 0.0577232 0 0.442785 -0.126496 0 0.266397 0.0577232 0 88.3501 88.3501 1000.21 
219 1 1 0.121927 0.0413959 0 0 0 0 0.0764591 0.101117 0 -0.00122725 0.174121 0 0.0764591 0.101117 0 318.62 318.62 1000.76 
220 1 1 0.131667 0.0411327 0 0 0 0 0.1066 0.0785293 0 0.238344 0.21772 0 0.1066 0.0785293 0 194.605 194.605 1000.46 
221 1 1 0.140933 0.0409521 0 0 0 0 0.0525171 0.0695999 0 0.100019 0.173155 0 0.0525171 0.0695999 0 216.044 216.044 1000.51 
222 1 1 0.1507 0.0406945 0 0 0 0 0.0451381 0.0535738 0 0.117459 0.137046 0 0.0451381 0.0535738 0 195.807 195.807 1000.47 
223 1 1 0.160482 0.0404755 0 0 0 0 0.0301944 0.0415667 0 0.071674 0.132451 0 0.0301944 0.0415667 0 198.992 198.992 1000.47 
224 1 1 0.170352 0.0402981 0 0 0 0 0.0232214 0.0310523 0 0.0649451 0.114596 0 0.0232214 0.0310523 0 192.812 192.812 1000.46 
225 1 1 0.180254 0.0401589 0 0 0 0 0.0168055 0.0226299 0 0.0461624 0.1024 0 0.0168055 0.0226299 0 190.602 190.602 1000.45 
226 1 1 0.190186 0.0400525 0 0 0 0 0.0125982 0.0160013 0 0.0365226 0.0906839 0 0.0125982 0.0160013 0 187.431 187.431 1000.45 
227 1 1 0.200136 0.0399723 0 0 0 0 0.00930573 0.0108946 0 0.0270088 0.0810928 0 0.00930573 0.0108946 0 185.324 185.324 1000.44 
228 1 1 0.2101 0.0399122 0 0 0 0 0.00693955 0.00699575 0 0.0205769 0.0733727 0 0.00693955 0.00699575 0 183.47 183.47 1000.44 
229 1 1 0.220074 0.0398676 0 0 0 0 0.00515939 0.00404379 0 0.0153984 0.0673112 0 0.00515939 0.00404379 0 182.089 182.089 1000.43 
230 1 1 0.230054 0.0398344 0 0 0 0 0.00384491 0.00181798 0 0.0116684 0.0625641 0 0.00384491 0.00181798 0 181.003 181.003 1000.43 
231 1 1 0.24004 0.0398099 0 0 0 0 0.00286526 0.000145202 0 0.00889122 0.0588557 0 0.00286526 0.000145202 0 180.165 180.165 1000.43 