ITEM: TIMESTEP
204000
ITEM: NUMBER OF ATOMS
754
ITEM: BOX BOUNDS ff ff pp
-0.021 0.521
-0.021 0.5
-0.001 0.001
ITEM: ATOMS id type type x y z ix iy iz vx vy vz fx fy fz vx vy vz p p rho 
1 1 1 0.00583455 0.000677467 0 0 0 0 2.80179e-05 -0.0105427 0 0.00401146 -0.0271744 0 2.80179e-05 -0.0105427 0 472.672 472.672 1001.12 
2 1 1 0.0287811 0.00522974 0 0 0 0 -0.00475047 -0.000690017 0 0.00845453 -0.00179496 0 -0.00475047 -0.000690017 0 422.293 422.293 1001 
3 1 1 0.0647018 0.00434129 0 0 0 0 -0.000984339 -0.00369791 0 -0.0103406 -0.00160695 0 -0.000984339 -0.00369791 0 442.97 442.97 1001.05 
4 1 1 0.0794588 0.00593834 0 0 0 0 -0.0102652 0.00124482 0 -0.017145 -0.0121753 0 -0.0102652 0.00124482 0 433.606 433.606 1001.03 
5 1 1 0.0946336 0.00461927 0 0 0 0 -0.0174779 0.000474488 0 0.00612371 -0.00280138 0 -0.0174779 0.000474488 0 455.97 455.97 1001.08 
6 1 1 0.109281 0.00620711 0 0 0 0 -0.0355739 -0.00161705 0 -0.013602 -0.0193391 0 -0.0355739 -0.00161705 0 447.62 447.62 1001.06 
7 1 1 0.149693 0.00611054 0 0 0 0 -0.0438101 0.00633354 0 0.0247087 0.0071543 0 -0.0438101 0.00633354 0 464.46 464.46 1001.1 
8 1 1 0.129771 0.0135442 0 0 0 0 -0.0260088 0.00121079 0 -0.0127001 -0.00908378 0 -0.0260088 0.00121079 0 422.457 422.457 1001 
9 1 1 0.181292 0.00524407 0 0 0 0 -0.0802849 0.0136272 0 -0.0221479 0.0283149 0 -0.0802849 0.0136272 0 484.393 484.393 1001.15 
10 1 1 0.195767 0.00511507 0 0 0 0 -0.0712812 -0.0227149 0 -0.0565883 -0.0251628 0 -0.0712812 -0.0227149 0 506.492 506.492 1001.2 
11 1 1 0.0336273 0.0154387 0 0 0 0 -0.00515772 0.0044668 0 -0.0238896 -0.0216437 0 -0.00515772 0.0044668 0 379.925 379.925 1000.9 
12 1 1 0.0505624 0.00639117 0 0 0 0 -0.00969018 -0.00398717 0 0.0201315 -0.0189477 0 -0.00969018 -0.00398717 0 424.13 424.13 1001.01 
13 1 1 0.0722149 0.0130871 0 0 0 0 -0.00880936 0.0103142 0 -0.0444419 -0.00103795 0 -0.00880936 0.0103142 0 404.261 404.261 1000.96 
14 1 1 0.0860783 0.0125698 0 0 0 0 -0.0167883 0.00549339 0 -0.00748214 -0.0244735 0 -0.0167883 0.00549339 0 402.984 402.984 1000.96 
15 1 1 0.105188 0.0139486 0 0 0 0 -0.0208385 0.0249417 0 -0.0367614 -0.00174021 0 -0.0208385 0.0249417 0 408.286 408.286 1000.97 
16 1 1 0.137065 0.00598995 0 0 0 0 -0.0435205 -0.00184053 0 -0.0313548 -0.0228035 0 -0.0435205 -0.00184053 0 462.54 462.54 1001.1 
17 1 1 0.152945 0.0203397 0 0 0 0 -0.0312248 0.0210802 0 -0.0677713 0.0616556 0 -0.0312248 0.0210802 0 401.445 401.445 1000.95 
18 1 1 0.164138 0.00490486 0 0 0 0 -0.0411243 -0.0030404 0 -0.0170026 0.0191632 0 -0.0411243 -0.0030404 0 492.306 492.306 1001.17 
19 1 1 0.191994 0.0148339 0 0 0 0 -0.0492286 0.00993731 0 0.0156767 0.0117144 0 -0.0492286 0.00993731 0 450.262 450.262 1001.07 
20 1 1 0.185476 0.0157426 0 0 0 0 -0.0590567 -0.0312436 0 -0.0714698 -0.0271364 0 -0.0590567 -0.0312436 0 441.973 441.973 1001.05 
21 1 1 0.0318123 0.0278507 0 0 0 0 -0.0107405 0.0369382 0 -0.00420315 -0.0282015 0 -0.0107405 0.0369382 0 292.937 292.937 1000.7 
22 1 1 0.0402447 0.00759553 0 0 0 0 -0.00914853 0.00434371 0 0.00949826 0.022748 0 -0.00914853 0.00434371 0 411.795 411.795 1000.98 
23 1 1 0.0588141 0.0138817 0 0 0 0 -0.0240231 -0.00892954 0 -0.0137277 0.0135271 0 -0.0240231 -0.00892954 0 397.491 397.491 1000.94 
24 1 1 0.084306 0.0292762 0 0 0 0 -0.0412268 0.00376209 0 -0.0422933 -0.0161147 0 -0.0412268 0.00376209 0 289.985 289.985 1000.69 
25 1 1 0.0730812 0.0268637 0 0 0 0 -0.0376025 -0.00536359 0 -0.0322629 -0.0248387 0 -0.0376025 -0.00536359 0 313.558 313.558 1000.74 
26 1 1 0.122904 0.00514919 0 0 0 0 -0.0367698 0.00418895 0 0.00152886 -0.00255924 0 -0.0367698 0.00418895 0 458.691 458.691 1001.09 
27 1 1 0.123828 0.0204439 0 0 0 0 -0.0176984 0.0097214 0 -0.0537747 -0.0417805 0 -0.0176984 0.0097214 0 373.334 373.334 1000.89 
28 1 1 0.164661 0.0194161 0 0 0 0 -0.0797243 0.0273615 0 -0.00692939 -0.0281253 0 -0.0797243 0.0273615 0 408.862 408.862 1000.97 
29 1 1 0.171834 0.0116542 0 0 0 0 -0.080309 0.0203509 0 -0.0763917 -0.0445074 0 -0.080309 0.0203509 0 459.576 459.576 1001.09 
30 1 1 0.194758 0.0246505 0 0 0 0 -0.0885373 0.00542368 0 -0.061762 -0.0179012 0 -0.0885373 0.00542368 0 393.124 393.124 1000.93 
31 1 1 0.0194284 0.009357 0 0 0 0 0.00135153 0.0044571 0 -0.0162562 -0.000735483 0 0.00135153 0.0044571 0 413.566 413.566 1000.98 
32 1 1 0.0403717 0.0194041 0 0 0 0 -0.0254981 0.0228305 0 -0.00254534 -0.0328213 0 -0.0254981 0.0228305 0 356.584 356.584 1000.85 
33 1 1 0.0646595 0.0324985 0 0 0 0 -0.0233829 0.0018057 0 -0.0492697 -0.0149411 0 -0.0233829 0.0018057 0 274.87 274.87 1000.65 
34 1 1 0.0911866 0.0206466 0 0 0 0 -0.00368284 0.0174516 0 -0.0237088 -0.0483503 0 -0.00368284 0.0174516 0 351.784 351.784 1000.84 
35 1 1 0.132386 0.0269589 0 0 0 0 -0.0553763 0.0179902 0 -0.0447885 -0.00305436 0 -0.0553763 0.0179902 0 338.85 338.85 1000.8 
36 1 1 0.137357 0.018063 0 0 0 0 -0.027572 0.0144967 0 -0.0281644 -0.0090217 0 -0.027572 0.0144967 0 404.553 404.553 1000.96 
37 1 1 0.14516 0.014722 0 0 0 0 -0.050676 0.00493047 0 -0.0725408 -0.0233288 0 -0.050676 0.00493047 0 427.584 427.584 1001.01 
38 1 1 0.176627 0.0173415 0 0 0 0 -0.0712556 0.000438867 0 -0.0251977 0.0531244 0 -0.0712556 0.000438867 0 431.557 431.557 1001.02 
39 1 1 0.193043 0.0344575 0 0 0 0 -0.0747704 -0.00212702 0 -0.0860056 0.0121827 0 -0.0747704 -0.00212702 0 333.679 333.679 1000.79 
40 1 1 0.153681 0.0328999 0 0 0 0 -0.0496481 -0.00652562 0 -0.0766503 -0.0275229 0 -0.0496481 -0.00652562 0 326.044 326.044 1000.77 
41 1 1 0.0133881 0.0128618 0 0 0 0 0.00262685 -0.00254957 0 -0.0297742 -0.00499957 0 0.00262685 -0.00254957 0 400.867 400.867 1000.95 
42 1 1 0.0328478 0.040355 0 0 0 0 -0.00869048 0.0143999 0 0.00637881 0.0810083 0 -0.00869048 0.0143999 0 221.297 221.297 1000.53 
43 1 1 0.0500612 0.0158506 0 0 0 0 -0.030783 0.000794324 0 -0.0227811 0.0217713 0 -0.030783 0.000794324 0 379.64 379.64 1000.9 
44 1 1 0.0771575 0.036261 0 0 0 0 -0.0345987 0.00300939 0 -0.0271876 -0.00368296 0 -0.0345987 0.00300939 0 249.605 249.605 1000.59 
45 1 1 0.0974285 0.0151913 0 0 0 0 -0.023577 -0.007358 0 -0.0283914 -0.0261547 0 -0.023577 -0.007358 0 397.032 397.032 1000.94 
46 1 1 0.120242 0.0298055 0 0 0 0 -0.0501937 0.00601593 0 -0.0734016 0.00478868 0 -0.0501937 0.00601593 0 309.598 309.598 1000.74 
47 1 1 0.157881 0.0133107 0 0 0 0 -0.0667233 -0.00904507 0 -0.0612888 -0.0332808 0 -0.0667233 -0.00904507 0 442.085 442.085 1001.05 
48 1 1 0.183909 0.0272282 0 0 0 0 -0.0727299 -0.0098762 0 -0.0136885 -0.082529 0 -0.0727299 -0.0098762 0 372.594 372.594 1000.88 
49 1 1 0.180981 0.0355058 0 0 0 0 -0.0602274 0.0229843 0 -0.00820711 0.0540961 0 -0.0602274 0.0229843 0 319.859 319.859 1000.76 
50 1 1 0.167021 0.0533857 0 0 0 0 -0.0495547 0.0502965 0 -0.104129 0.0114086 0 -0.0495547 0.0502965 0 222.069 222.069 1000.53 
51 1 1 0.0256377 0.0181879 0 0 0 0 0.0106945 0.00983752 0 -0.0172177 -0.00466194 0 0.0106945 0.00983752 0 366.109 366.109 1000.87 
52 1 1 0.0483908 0.0257109 0 0 0 0 -0.0106269 -0.00135017 0 -0.0209703 0.0312103 0 -0.0106269 -0.00135017 0 321.099 321.099 1000.76 
53 1 1 0.0660689 0.0184426 0 0 0 0 -0.0196139 -0.0185629 0 -0.0222193 -0.0133242 0 -0.0196139 -0.0185629 0 377.147 377.147 1000.9 
54 1 1 0.0944055 0.0305059 0 0 0 0 -0.0424882 0.0143627 0 -0.0482207 0.0138062 0 -0.0424882 0.0143627 0 280.385 280.385 1000.67 
55 1 1 0.101498 0.038068 0 0 0 0 -0.0293252 0.0194269 0 -0.0241972 0.069444 0 -0.0293252 0.0194269 0 249.584 249.584 1000.59 
56 1 1 0.110835 0.032441 0 0 0 0 -0.0331041 -0.00744733 0 -0.0640515 0.0250486 0 -0.0331041 -0.00744733 0 287.63 287.63 1000.68 
57 1 1 0.14508 0.0267655 0 0 0 0 -0.0443643 0.0119164 0 -0.0463469 -0.0114404 0 -0.0443643 0.0119164 0 358.916 358.916 1000.85 
58 1 1 0.138788 0.0341989 0 0 0 0 -0.0323812 0.007976 0 -0.0833376 -0.0104139 0 -0.0323812 0.007976 0 295.644 295.644 1000.7 
59 1 1 0.171343 0.0378241 0 0 0 0 -0.0616701 0.0482714 0 -0.0529539 0.00326949 0 -0.0616701 0.0482714 0 298.738 298.738 1000.71 
60 1 1 0.176856 0.048343 0 0 0 0 -0.0660247 0.0134966 0 -0.0800303 -0.070065 0 -0.0660247 0.0134966 0 277.233 277.233 1000.66 
61 1 1 0.0583668 0.0259395 0 0 0 0 -0.0134088 -0.00860249 0 0.00049084 -0.0127647 0 -0.0134088 -0.00860249 0 325.596 325.596 1000.77 
62 1 1 0.0080621 0.0178784 0 0 0 0 -0.00292655 -0.00981738 0 0.0179423 0.0275506 0 -0.00292655 -0.00981738 0 370.279 370.279 1000.88 
63 1 1 0.079611 0.0192766 0 0 0 0 -0.00617164 0.00218172 0 -0.0529375 -0.00240445 0 -0.00617164 0.00218172 0 361.793 361.793 1000.86 
64 1 1 0.0437041 0.0429435 0 0 0 0 0.00240996 0.0137712 0 -0.0154769 0.0264356 0 0.00240996 0.0137712 0 218.168 218.168 1000.52 
65 1 1 0.0890937 0.0402361 0 0 0 0 -0.0403866 0.0139541 0 -0.0587609 0.0361877 0 -0.0403866 0.0139541 0 240.685 240.685 1000.57 
66 1 1 0.117545 0.0139664 0 0 0 0 -0.0243239 -0.00784492 0 -0.0610256 -0.014059 0 -0.0243239 -0.00784492 0 412.617 412.617 1000.98 
67 1 1 0.127151 0.0362793 0 0 0 0 -0.0310113 0.0167242 0 -0.0425326 -0.00223078 0 -0.0310113 0.0167242 0 271.197 271.197 1000.64 
68 1 1 0.162152 0.0285276 0 0 0 0 -0.00760962 0.0342991 0 -0.0655665 -0.00164154 0 -0.00760962 0.0342991 0 353.005 353.005 1000.84 
69 1 1 0.17293 0.0268613 0 0 0 0 -0.0319184 0.00836718 0 -0.0700436 -0.0340824 0 -0.0319184 0.00836718 0 365.532 365.532 1000.87 
70 1 1 0.185044 0.0569905 0 0 0 0 -0.0695963 0.0151017 0 -0.00995541 -0.028804 0 -0.0695963 0.0151017 0 244.003 244.003 1000.58 
71 1 1 0.0107192 0.0287776 0 0 0 0 0.0123961 -0.0116083 0 0.0137279 0.0175044 0 0.0123961 -0.0116083 0 298.628 298.628 1000.71 
72 1 1 0.0392791 0.0537984 0 0 0 0 0.00910392 0.0106349 0 -0.00693441 0.0211498 0 0.00910392 0.0106349 0 184.333 184.333 1000.44 
73 1 1 0.0231435 0.0336113 0 0 0 0 -0.0224746 0.016558 0 -0.0350384 -0.0637413 0 -0.0224746 0.016558 0 260.456 260.456 1000.62 
74 1 1 0.0521743 0.035717 0 0 0 0 -0.00198588 0.00102517 0 -0.027852 -0.0307789 0 -0.00198588 0.00102517 0 256.291 256.291 1000.61 
75 1 1 0.0788739 0.0463538 0 0 0 0 -0.0464232 0.0115871 0 -0.00267381 0.0432058 0 -0.0464232 0.0115871 0 210.581 210.581 1000.5 
76 1 1 0.111779 0.0212102 0 0 0 0 -0.0235146 -0.010166 0 -0.0017106 -0.000193442 0 -0.0235146 -0.010166 0 364.964 364.964 1000.87 
77 1 1 0.102895 0.0261755 0 0 0 0 -0.0386149 0.019928 0 -0.035032 -0.0421375 0 -0.0386149 0.019928 0 316.636 316.636 1000.75 
78 1 1 0.156299 0.0480635 0 0 0 0 -0.047204 0.0289069 0 -0.0590052 -0.00405055 0 -0.047204 0.0289069 0 241.023 241.023 1000.57 
79 1 1 0.14713 0.0405402 0 0 0 0 -0.0332507 0.0206095 0 -0.0213798 0.0236127 0 -0.0332507 0.0206095 0 263.933 263.933 1000.63 
80 1 1 0.156305 0.0632861 0 0 0 0 -0.0495886 0.029294 0 -0.10277 0.011247 0 -0.0495886 0.029294 0 184.055 184.055 1000.44 
81 1 1 0.0195547 0.0244227 0 0 0 0 0.00233385 -0.0053981 0 -0.0343975 -0.0533475 0 0.00233385 -0.0053981 0 329.958 329.958 1000.78 
82 1 1 0.0115634 0.0379382 0 0 0 0 -0.0186874 -0.000341223 0 0.0318054 0.0347915 0 -0.0186874 -0.000341223 0 238.649 238.649 1000.57 
83 1 1 0.0400527 0.0318406 0 0 0 0 -0.00452854 0.0178139 0 -0.0108244 -0.00100319 0 -0.00452854 0.0178139 0 270.654 270.654 1000.64 
84 1 1 0.0225955 0.0439551 0 0 0 0 -0.011127 0.0127178 0 0.0466295 -0.0298362 0 -0.011127 0.0127178 0 200.35 200.35 1000.48 
85 1 1 0.0668041 0.0421881 0 0 0 0 -0.0260089 0.0187246 0 0.00164279 0.0619478 0 -0.0260089 0.0187246 0 212.209 212.209 1000.5 
86 1 1 0.109147 0.0469582 0 0 0 0 -0.0512599 -0.00244347 0 -0.0976164 -0.00796567 0 -0.0512599 -0.00244347 0 211.71 211.71 1000.5 
87 1 1 0.116865 0.0421527 0 0 0 0 -0.0325869 0.0104262 0 -0.0323409 -0.0467866 0 -0.0325869 0.0104262 0 230.774 230.774 1000.55 
88 1 1 0.127141 0.0477303 0 0 0 0 -0.051844 0.0122401 0 -0.0521247 0.0681128 0 -0.051844 0.0122401 0 206.121 206.121 1000.49 
89 1 1 0.136709 0.0455815 0 0 0 0 -0.0446841 0.0138417 0 -0.0769962 0.0188951 0 -0.0446841 0.0138417 0 226.603 226.603 1000.54 
90 1 1 0.146447 0.0534649 0 0 0 0 -0.0593857 0.0127809 0 -0.114467 0.0297226 0 -0.0593857 0.0127809 0 212.709 212.709 1000.51 
91 1 1 0.0535814 0.0564075 0 0 0 0 0.00622694 0.0324157 0 -0.0219914 0.0467655 0 0.00622694 0.0324157 0 173.856 173.856 1000.41 
92 1 1 0.0262719 0.0558778 0 0 0 0 0.00309324 0.0152367 0 -0.0454655 0.0355962 0 0.00309324 0.0152367 0 163.672 163.672 1000.39 
93 1 1 0.0134408 0.0501292 0 0 0 0 0.0097372 0.0199193 0 -0.00976849 0.0724449 0 0.0097372 0.0199193 0 174.364 174.364 1000.41 
94 1 1 0.0686118 0.055075 0 0 0 0 -0.014911 0.0387432 0 -0.0538663 0.0559974 0 -0.014911 0.0387432 0 181.373 181.373 1000.43 
95 1 1 0.0843151 0.0582156 0 0 0 0 -0.0309979 0.0276704 0 0.0343693 0.0323613 0 -0.0309979 0.0276704 0 196.361 196.361 1000.47 
96 1 1 0.103735 0.0588568 0 0 0 0 -0.056214 0.0175293 0 -0.0311649 0.0426123 0 -0.056214 0.0175293 0 168.264 168.264 1000.4 
97 1 1 0.0564212 0.0446698 0 0 0 0 -0.0176768 0.0184643 0 -0.00334799 0.0190809 0 -0.0176768 0.0184643 0 204.047 204.047 1000.49 
98 1 1 0.0953868 0.0489614 0 0 0 0 -0.0568392 0.00927597 0 -0.060684 0.0316585 0 -0.0568392 0.00927597 0 228.296 228.296 1000.54 
99 1 1 0.119426 0.0570564 0 0 0 0 -0.0766223 0.0168724 0 -0.043748 0.0686292 0 -0.0766223 0.0168724 0 155.634 155.634 1000.37 
100 1 1 0.135599 0.0607043 0 0 0 0 -0.0670611 0.00890127 0 -0.123928 0.0509619 0 -0.0670611 0.00890127 0 194.427 194.427 1000.46 
101 1 1 0.202559 0.0132753 0 0 0 0 -0.0559924 -0.0132221 0 -0.0108045 -0.0414702 0 -0.0559924 -0.0132221 0 462.726 462.726 1001.1 
102 1 1 0.213286 0.0163135 0 0 0 0 -0.0926532 0.000914616 0 -0.0260386 0.00917305 0 -0.0926532 0.000914616 0 450.247 450.247 1001.07 
103 1 1 0.219323 0.0266185 0 0 0 0 -0.117928 -0.000123753 0 -0.0391332 -0.0391828 0 -0.117928 -0.000123753 0 401.972 401.972 1000.95 
104 1 1 0.210734 0.00547473 0 0 0 0 -0.0510266 0.00555149 0 -0.0804955 0.0198846 0 -0.0510266 0.00555149 0 492.623 492.623 1001.17 
105 1 1 0.220807 0.00893165 0 0 0 0 -0.0529963 -0.00316004 0 -0.0207661 -0.0579652 0 -0.0529963 -0.00316004 0 488.364 488.364 1001.16 
106 1 1 0.231851 0.00490675 0 0 0 0 -0.0577996 0.00757292 0 -0.040242 0.0174208 0 -0.0577996 0.00757292 0 514.055 514.055 1001.22 
107 1 1 0.239422 0.0153102 0 0 0 0 -0.0880531 0.0112181 0 0.0142235 -0.0444132 0 -0.0880531 0.0112181 0 472.316 472.316 1001.12 
108 1 1 0.245613 0.00616717 0 0 0 0 -0.0689942 -0.00934893 0 -0.0690171 -0.0363727 0 -0.0689942 -0.00934893 0 523.843 523.843 1001.24 
109 1 1 0.250623 0.0140418 0 0 0 0 -0.0934782 0.0040074 0 -0.0534243 -0.0128888 0 -0.0934782 0.0040074 0 483.076 483.076 1001.15 
110 1 1 0.257263 0.0175287 0 0 0 0 -0.107648 0.0256084 0 0.035353 -0.0508569 0 -0.107648 0.0256084 0 465.46 465.46 1001.1 
111 1 1 0.259339 0.00547139 0 0 0 0 -0.0830449 0.0201434 0 -0.0617219 0.00172023 0 -0.0830449 0.0201434 0 510.615 510.615 1001.21 
112 1 1 0.266602 0.0108266 0 0 0 0 -0.11272 0.0133892 0 -0.0249019 0.0651353 0 -0.11272 0.0133892 0 505.826 505.826 1001.2 
113 1 1 0.27682 0.00550931 0 0 0 0 -0.125315 0.000863664 0 -0.0548282 -0.0791642 0 -0.125315 0.000863664 0 530.885 530.885 1001.26 
114 1 1 0.287033 0.0156219 0 0 0 0 -0.093547 -0.0326242 0 -0.0396284 -0.0234197 0 -0.093547 -0.0326242 0 491.465 491.465 1001.17 
115 1 1 0.309574 0.0243956 0 0 0 0 -0.156117 0.0103936 0 -0.0575944 0.0182564 0 -0.156117 0.0103936 0 458.992 458.992 1001.09 
116 1 1 0.290527 0.00558819 0 0 0 0 -0.125799 0.000863725 0 -0.0342195 0.0661205 0 -0.125799 0.000863725 0 539.467 539.467 1001.28 
117 1 1 0.305936 0.00511415 0 0 0 0 -0.109157 -0.017068 0 -0.0294486 -0.0716978 0 -0.109157 -0.017068 0 541.095 541.095 1001.28 
118 1 1 0.316333 0.00928471 0 0 0 0 -0.0929869 0.00215628 0 -0.0291446 0.120923 0 -0.0929869 0.00215628 0 527.05 527.05 1001.25 
119 1 1 0.326611 0.00544104 0 0 0 0 -0.0923601 -0.00141965 0 -0.0237961 -0.112444 0 -0.0923601 -0.00141965 0 541.241 541.241 1001.28 
120 1 1 0.335276 0.0244055 0 0 0 0 -0.132283 -0.0126708 0 0.0187537 0.0150213 0 -0.132283 -0.0126708 0 455.622 455.622 1001.08 
121 1 1 0.335373 0.0129046 0 0 0 0 -0.130563 -0.00188764 0 0.0286229 -0.0168693 0 -0.130563 -0.00188764 0 513.219 513.219 1001.22 
122 1 1 0.342068 0.00510759 0 0 0 0 -0.0943105 -0.00252578 0 -0.0103617 0.0542724 0 -0.0943105 -0.00252578 0 553.929 553.929 1001.31 
123 1 1 0.362126 0.0142863 0 0 0 0 -0.109586 -0.00640523 0 0.00873812 -0.0130396 0 -0.109586 -0.00640523 0 517.74 517.74 1001.23 
124 1 1 0.356283 0.0060104 0 0 0 0 -0.0697066 -0.0100916 0 0.016839 -0.0597649 0 -0.0697066 -0.0100916 0 550.315 550.315 1001.31 
125 1 1 0.369912 0.00581864 0 0 0 0 -0.0741816 0.0160607 0 -0.0047549 0.0489775 0 -0.0741816 0.0160607 0 547.374 547.374 1001.3 
126 1 1 0.377935 0.0190769 0 0 0 0 -0.0823795 -0.00430845 0 -0.0132631 0.0899439 0 -0.0823795 -0.00430845 0 492.534 492.534 1001.17 
127 1 1 0.381768 0.00696807 0 0 0 0 -0.101755 0.000714214 0 -0.0606788 -0.0280608 0 -0.101755 0.000714214 0 541.54 541.54 1001.28 
128 1 1 0.384942 0.0153102 0 0 0 0 -0.0909962 0.0189423 0 0.0662981 -0.0699539 0 -0.0909962 0.0189423 0 504.841 504.841 1001.2 
129 1 1 0.404704 0.00834864 0 0 0 0 -0.0840171 0.00468501 0 0.0447411 0.0588842 0 -0.0840171 0.00468501 0 535.127 535.127 1001.27 
130 1 1 0.416752 0.00565955 0 0 0 0 -0.0754004 -0.0121926 0 -0.00113374 -0.0318905 0 -0.0754004 -0.0121926 0 553.693 553.693 1001.31 
131 1 1 0.433819 0.00469531 0 0 0 0 -0.0440289 0.000230573 0 0.0158582 -0.0072916 0 -0.0440289 0.000230573 0 558.127 558.127 1001.32 
132 1 1 0.424625 0.0117411 0 0 0 0 -0.0449957 -0.0225536 0 0.0542419 0.0103193 0 -0.0449957 -0.0225536 0 532.479 532.479 1001.26 
133 1 1 0.441478 0.0125833 0 0 0 0 0.00497316 -0.00584199 0 0.073202 0.0323017 0 0.00497316 -0.00584199 0 521.27 521.27 1001.24 
134 1 1 0.449849 0.0198489 0 0 0 0 -0.0237715 0.00550251 0 -0.0377345 0.0303911 0 -0.0237715 0.00550251 0 484.428 484.428 1001.15 
135 1 1 0.449711 0.00591611 0 0 0 0 -0.044319 -0.00616657 0 -0.0438713 -0.0105702 0 -0.044319 -0.00616657 0 546.696 546.696 1001.3 
136 1 1 0.454758 0.0131457 0 0 0 0 -0.00927733 0.00123599 0 0.110337 -0.00660214 0 -0.00927733 0.00123599 0 514.023 514.023 1001.22 
137 1 1 0.464638 0.0047565 0 0 0 0 -0.0140499 -0.00874623 0 -0.0349581 -0.0211462 0 -0.0140499 -0.00874623 0 540.318 540.318 1001.28 
138 1 1 0.478662 0.00623208 0 0 0 0 -0.00735982 -0.0016565 0 0.0177975 -0.0196989 0 -0.00735982 -0.0016565 0 525.576 525.576 1001.25 
139 1 1 0.492605 0.00517371 0 0 0 0 -0.00274278 -0.00493935 0 0.0356395 -0.024815 0 -0.00274278 -0.00493935 0 538.299 538.299 1001.28 
140 1 1 0.202379 0.032314 0 0 0 0 -0.0639614 0.0281183 0 -0.0463533 0.0340425 0 -0.0639614 0.0281183 0 345.462 345.462 1000.82 
141 1 1 0.204963 0.0204111 0 0 0 0 -0.102434 0.0127957 0 -0.0502682 0.0249149 0 -0.102434 0.0127957 0 422.411 422.411 1001 
142 1 1 0.242174 0.0424554 0 0 0 0 -0.131356 0.0216714 0 -0.00735379 -0.02523 0 -0.131356 0.0216714 0 295.31 295.31 1000.7 
143 1 1 0.231855 0.0256007 0 0 0 0 -0.11307 0.011659 0 -0.0470834 0.0124079 0 -0.11307 0.011659 0 403.48 403.48 1000.96 
144 1 1 0.240067 0.0305205 0 0 0 0 -0.109621 0.0193941 0 -0.0767811 -0.00944905 0 -0.109621 0.0193941 0 369.521 369.521 1000.88 
145 1 1 0.223176 0.018157 0 0 0 0 -0.101108 0.00550237 0 -0.0453338 -0.0143829 0 -0.101108 0.00550237 0 446.52 446.52 1001.06 
146 1 1 0.249748 0.0345478 0 0 0 0 -0.110717 0.0182923 0 -0.0558527 -0.019074 0 -0.110717 0.0182923 0 350.043 350.043 1000.83 
147 1 1 0.231912 0.0149955 0 0 0 0 -0.0861972 0.00516455 0 -0.0511862 0.0186563 0 -0.0861972 0.00516455 0 467.809 467.809 1001.11 
148 1 1 0.244802 0.0231479 0 0 0 0 -0.128022 0.00536379 0 -0.0261918 -0.0523996 0 -0.128022 0.00536379 0 424.048 424.048 1001.01 
149 1 1 0.265869 0.0250549 0 0 0 0 -0.135289 0.021214 0 -0.0225869 0.06068 0 -0.135289 0.021214 0 432.744 432.744 1001.03 
150 1 1 0.281594 0.0374402 0 0 0 0 -0.152842 -0.0195219 0 -0.0145929 -0.0630284 0 -0.152842 -0.0195219 0 358.665 358.665 1000.85 
151 1 1 0.270568 0.017841 0 0 0 0 -0.117845 0.0231306 0 -0.042567 -0.0330917 0 -0.117845 0.0231306 0 477.13 477.13 1001.13 
152 1 1 0.277956 0.0267465 0 0 0 0 -0.114552 -0.0299126 0 -0.0323438 0.0193518 0 -0.114552 -0.0299126 0 432.326 432.326 1001.03 
153 1 1 0.279668 0.0150092 0 0 0 0 -0.117814 0.00613892 0 -0.0466056 0.00616159 0 -0.117814 0.00613892 0 490.737 490.737 1001.16 
154 1 1 0.2974 0.0128862 0 0 0 0 -0.0974655 0.00371533 0 -0.0270719 -0.0365293 0 -0.0974655 0.00371533 0 511.168 511.168 1001.21 
155 1 1 0.31753 0.0172558 0 0 0 0 -0.148672 0.00269516 0 -0.0468873 -0.0322484 0 -0.148672 0.00269516 0 495.415 495.415 1001.18 
156 1 1 0.306438 0.0158477 0 0 0 0 -0.111854 -0.0114848 0 -0.0173874 -0.0661815 0 -0.111854 -0.0114848 0 503.375 503.375 1001.19 
157 1 1 0.327805 0.0158731 0 0 0 0 -0.13948 0.0166148 0 -0.0468428 -0.0179467 0 -0.13948 0.0166148 0 493.166 493.166 1001.17 
158 1 1 0.324559 0.0253011 0 0 0 0 -0.143036 -0.00108521 0 -0.0701992 -0.0306508 0 -0.143036 -0.00108521 0 448.755 448.755 1001.07 
159 1 1 0.347156 0.0280955 0 0 0 0 -0.144943 -0.0376975 0 -0.0292888 -0.0439203 0 -0.144943 -0.0376975 0 435.449 435.449 1001.03 
160 1 1 0.343595 0.0183058 0 0 0 0 -0.111601 -0.0363581 0 -0.0841292 -0.0194159 0 -0.111601 -0.0363581 0 498.796 498.796 1001.18 
161 1 1 0.349577 0.0135263 0 0 0 0 -0.116233 -0.0159522 0 0.0476799 -0.0259872 0 -0.116233 -0.0159522 0 522.82 522.82 1001.24 
162 1 1 0.36336 0.0262571 0 0 0 0 -0.113445 -0.0199724 0 -0.000344368 -0.0076595 0 -0.113445 -0.0199724 0 460.155 460.155 1001.09 
163 1 1 0.370614 0.0157407 0 0 0 0 -0.101251 0.00284651 0 -0.0158189 0.0655072 0 -0.101251 0.00284651 0 512.114 512.114 1001.21 
164 1 1 0.397727 0.0311569 0 0 0 0 -0.121766 -0.0247249 0 -0.0236519 -0.0904717 0 -0.121766 -0.0247249 0 422.609 422.609 1001 
165 1 1 0.394296 0.00543643 0 0 0 0 -0.100183 -0.0102829 0 -0.0402238 -0.0312242 0 -0.100183 -0.0102829 0 545.386 545.386 1001.29 
166 1 1 0.399112 0.0207121 0 0 0 0 -0.0665161 -0.0207988 0 -0.00830979 0.00402067 0 -0.0665161 -0.0207988 0 485.049 485.049 1001.15 
167 1 1 0.407994 0.0353112 0 0 0 0 -0.088918 -0.0228917 0 -0.0434638 -0.0832965 0 -0.088918 -0.0228917 0 393.402 393.402 1000.93 
168 1 1 0.41796 0.0177346 0 0 0 0 -0.0677549 -0.00715208 0 0.00690934 -0.0737288 0 -0.0677549 -0.00715208 0 498.338 498.338 1001.18 
169 1 1 0.411559 0.0421893 0 0 0 0 -0.136426 -0.0300511 0 0.0371508 0.0855736 0 -0.136426 -0.0300511 0 363.204 363.204 1000.86 
170 1 1 0.408953 0.0149991 0 0 0 0 -0.0635442 -0.0137222 0 0.019299 -0.0197482 0 -0.0635442 -0.0137222 0 515.666 515.666 1001.22 
171 1 1 0.417527 0.0286111 0 0 0 0 -0.0904193 -0.0104796 0 0.0121373 0.00154099 0 -0.0904193 -0.0104796 0 431.506 431.506 1001.02 
172 1 1 0.43383 0.0161636 0 0 0 0 -0.04351 -0.0207083 0 0.00209127 0.0172151 0 -0.04351 -0.0207083 0 511.726 511.726 1001.21 
173 1 1 0.440194 0.0240034 0 0 0 0 -0.0678508 -0.0214469 0 -0.0189825 -0.0204815 0 -0.0678508 -0.0214469 0 467.659 467.659 1001.11 
174 1 1 0.470984 0.0135987 0 0 0 0 -0.00345946 0.000925852 0 0.0230495 -0.025076 0 -0.00345946 0.000925852 0 509.006 509.006 1001.21 
175 1 1 0.467327 0.0243254 0 0 0 0 -0.0373251 0.00793055 0 0.0553453 -0.0163596 0 -0.0373251 0.00793055 0 464.166 464.166 1001.1 
176 1 1 0.478851 0.0206005 0 0 0 0 -0.0561077 -0.0187822 0 0.0144808 -0.0139413 0 -0.0561077 -0.0187822 0 481.127 481.127 1001.14 
177 1 1 0.48356 0.0134182 0 0 0 0 0.0136577 -0.0019001 0 0.0503339 0.0469511 0 0.0136577 -0.0019001 0 508.451 508.451 1001.21 
178 1 1 0.491882 0.0174839 0 0 0 0 -0.00897308 -0.00449904 0 -0.0598376 0.0323309 0 -0.00897308 -0.00449904 0 499.714 499.714 1001.19 
179 1 1 0.197967 0.045928 0 0 0 0 -0.0610209 0.0256828 0 -0.0778905 -0.0346954 0 -0.0610209 0.0256828 0 279.896 279.896 1000.67 
180 1 1 0.211301 0.0297738 0 0 0 0 -0.101418 0.0256752 0 -0.00710281 -0.011978 0 -0.101418 0.0256752 0 372.559 372.559 1000.88 
181 1 1 0.217576 0.0408706 0 0 0 0 -0.0816545 0.0423614 0 -0.00491966 -0.0270453 0 -0.0816545 0.0423614 0 303.734 303.734 1000.72 
182 1 1 0.225372 0.0346925 0 0 0 0 -0.116402 -0.0103135 0 -0.0678192 -0.012728 0 -0.116402 -0.0103135 0 349.986 349.986 1000.83 
183 1 1 0.245314 0.0536859 0 0 0 0 -0.111217 0.0294928 0 -0.000102082 0.0409784 0 -0.111217 0.0294928 0 246.909 246.909 1000.59 
184 1 1 0.234132 0.0509471 0 0 0 0 -0.116298 0.0180632 0 -0.0385625 -0.00379023 0 -0.116298 0.0180632 0 257.108 257.108 1000.61 
185 1 1 0.232447 0.0389035 0 0 0 0 -0.119987 0.0185557 0 -0.101725 0.033363 0 -0.119987 0.0185557 0 318.402 318.402 1000.76 
186 1 1 0.255568 0.0268551 0 0 0 0 -0.135885 0.0282264 0 -0.0696074 -0.0274324 0 -0.135885 0.0282264 0 405.69 405.69 1000.96 
187 1 1 0.270765 0.0341551 0 0 0 0 -0.135302 0.0164077 0 -0.0464533 -0.00293195 0 -0.135302 0.0164077 0 377.084 377.084 1000.9 
188 1 1 0.274871 0.0448457 0 0 0 0 -0.130712 0.0171955 0 0.00865008 -0.00370614 0 -0.130712 0.0171955 0 295.47 295.47 1000.7 
189 1 1 0.291874 0.0341113 0 0 0 0 -0.149984 0.0152941 0 -0.0431463 -0.0118941 0 -0.149984 0.0152941 0 383.066 383.066 1000.91 
190 1 1 0.297087 0.0218905 0 0 0 0 -0.125157 0.00908512 0 0.00379835 -0.038164 0 -0.125157 0.00908512 0 459.594 459.594 1001.09 
191 1 1 0.297886 0.0428874 0 0 0 0 -0.159979 0.0281059 0 -0.0180948 -0.0101444 0 -0.159979 0.0281059 0 330.71 330.71 1000.79 
192 1 1 0.301236 0.0308971 0 0 0 0 -0.151775 0.0236046 0 -0.0304786 -0.0217092 0 -0.151775 0.0236046 0 410.792 410.792 1000.98 
193 1 1 0.328569 0.0339479 0 0 0 0 -0.128828 -0.00882711 0 -0.0546985 -0.0172161 0 -0.128828 -0.00882711 0 403.183 403.183 1000.96 
194 1 1 0.310052 0.0478492 0 0 0 0 -0.177673 0.0193376 0 -0.0771447 -0.0602723 0 -0.177673 0.0193376 0 304.344 304.344 1000.72 
195 1 1 0.331404 0.0436988 0 0 0 0 -0.165022 -0.00689416 0 -0.024318 -0.0199534 0 -0.165022 -0.00689416 0 352.466 352.466 1000.84 
196 1 1 0.339361 0.0338503 0 0 0 0 -0.141704 -0.0162243 0 -0.0405942 -0.0194821 0 -0.141704 -0.0162243 0 398.459 398.459 1000.95 
197 1 1 0.354231 0.0445692 0 0 0 0 -0.146739 -0.0355152 0 -0.0469459 -0.00305304 0 -0.146739 -0.0355152 0 337.462 337.462 1000.8 
198 1 1 0.353484 0.0338206 0 0 0 0 -0.143596 -0.0217996 0 0.0312221 -0.0758022 0 -0.143596 -0.0217996 0 396.744 396.744 1000.94 
199 1 1 0.363669 0.0365011 0 0 0 0 -0.154041 -0.000563333 0 -0.034098 -0.0121518 0 -0.154041 -0.000563333 0 379.887 379.887 1000.9 
200 1 1 0.35607 0.021259 0 0 0 0 -0.114261 0.00598422 0 -0.0514298 -0.0182587 0 -0.114261 0.00598422 0 480.303 480.303 1001.14 
201 1 1 0.388044 0.0258425 0 0 0 0 -0.0830908 -0.0159617 0 0.00929859 0.0309487 0 -0.0830908 -0.0159617 0 459.126 459.126 1001.09 
202 1 1 0.371137 0.041208 0 0 0 0 -0.0987801 -0.0227885 0 0.0366625 -0.0145173 0 -0.0987801 -0.0227885 0 346.996 346.996 1000.82 
203 1 1 0.380068 0.032826 0 0 0 0 -0.149194 -0.0162039 0 0.00373385 -0.0824672 0 -0.149194 -0.0162039 0 416.216 416.216 1000.99 
204 1 1 0.390007 0.0498349 0 0 0 0 -0.13412 -0.0209148 0 -0.0453275 -0.073872 0 -0.13412 -0.0209148 0 304.719 304.719 1000.72 
205 1 1 0.39422 0.0156849 0 0 0 0 -0.0804317 -0.0261173 0 -0.00876952 -0.0729047 0 -0.0804317 -0.0261173 0 506.686 506.686 1001.2 
206 1 1 0.408234 0.0251051 0 0 0 0 -0.0743934 -0.0172719 0 0.0305136 -0.0266068 0 -0.0743934 -0.0172719 0 457.033 457.033 1001.08 
207 1 1 0.436281 0.0394007 0 0 0 0 -0.0370606 -0.0236364 0 -0.022786 0.0461276 0 -0.0370606 -0.0236364 0 371.595 371.595 1000.88 
208 1 1 0.432249 0.0308651 0 0 0 0 -0.067142 -0.0273559 0 0.05717 -0.00461704 0 -0.067142 -0.0273559 0 427.279 427.279 1001.01 
209 1 1 0.423256 0.0362835 0 0 0 0 -0.0397911 -0.0699682 0 0.0315395 -0.0230054 0 -0.0397911 -0.0699682 0 399.646 399.646 1000.95 
210 1 1 0.445247 0.0319367 0 0 0 0 -0.0450146 -0.0535477 0 0.0734042 0.0285656 0 -0.0450146 -0.0535477 0 421.672 421.672 1001 
211 1 1 0.426605 0.0231931 0 0 0 0 -0.0604221 -0.0620692 0 0.0536101 -0.0122271 0 -0.0604221 -0.0620692 0 472.832 472.832 1001.12 
212 1 1 0.455063 0.0271532 0 0 0 0 -0.0285011 -0.00786191 0 0.0735775 -0.0379258 0 -0.0285011 -0.00786191 0 445.875 445.875 1001.06 
213 1 1 0.4628 0.0164606 0 0 0 0 -0.0251945 -0.0311171 0 -0.0171322 0.0292961 0 -0.0251945 -0.0311171 0 500.542 500.542 1001.19 
214 1 1 0.477908 0.0393071 0 0 0 0 0.0287834 -0.0188834 0 0.0561292 -0.0245733 0 0.0287834 -0.0188834 0 366.904 366.904 1000.87 
215 1 1 0.48905 0.0270444 0 0 0 0 6.59153e-05 -0.0268161 0 0.0230596 -0.0224235 0 6.59153e-05 -0.0268161 0 460.861 460.861 1001.09 
216 1 1 0.478065 0.0294442 0 0 0 0 -0.0122902 -0.0201314 0 -0.0519971 0.0587052 0 -0.0122902 -0.0201314 0 431.582 431.582 1001.02 
217 1 1 0.489069 0.0363673 0 0 0 0 -0.0140982 -0.0436169 0 0.0173534 -0.0681324 0 -0.0140982 -0.0436169 0 396.861 396.861 1000.94 
218 1 1 0.214399 0.0527633 0 0 0 0 -0.100368 0.0488516 0 -0.067603 0.0485319 0 -0.100368 0.0488516 0 245.045 245.045 1000.58 
219 1 1 0.162862 0.0402411 0 0 0 0 -0.0693003 0.0279806 0 -0.111826 -0.0106053 0 -0.0693003 0.0279806 0 286.135 286.135 1000.68 
220 1 1 0.18816 0.044764 0 0 0 0 -0.0556591 0.00557991 0 -0.100484 0.0648406 0 -0.0556591 0.00557991 0 294.922 294.922 1000.7 
221 1 1 0.224632 0.0508668 0 0 0 0 -0.103608 0.0341119 0 -0.0660092 -0.0138413 0 -0.103608 0.0341119 0 262.444 262.444 1000.62 
222 1 1 0.208213 0.0416201 0 0 0 0 -0.0759819 0.0474669 0 -0.0768697 -0.0149449 0 -0.0759819 0.0474669 0 293.078 293.078 1000.7 
223 1 1 0.253547 0.0444864 0 0 0 0 -0.137889 0.0178396 0 -0.0705101 -0.00986319 0 -0.137889 0.0178396 0 292.524 292.524 1000.7 
224 1 1 0.261217 0.0363756 0 0 0 0 -0.104498 0.0392099 0 -0.059665 -0.0318085 0 -0.104498 0.0392099 0 350.932 350.932 1000.83 
225 1 1 0.264754 0.046588 0 0 0 0 -0.130235 0.032779 0 -0.0845545 -0.0772255 0 -0.130235 0.032779 0 278.31 278.31 1000.66 
226 1 1 0.280222 0.0554943 0 0 0 0 -0.15418 0.0260223 0 -0.0821075 0.0154369 0 -0.15418 0.0260223 0 251.125 251.125 1000.6 
227 1 1 0.287218 0.0258519 0 0 0 0 -0.119339 -0.00291639 0 -0.0621182 0.0207312 0 -0.119339 -0.00291639 0 434.585 434.585 1001.03 
228 1 1 0.287566 0.0460018 0 0 0 0 -0.169299 0.00990197 0 -0.0324494 -0.00196826 0 -0.169299 0.00990197 0 301.623 301.623 1000.72 
229 1 1 0.299306 0.0534678 0 0 0 0 -0.173339 0.0134915 0 -0.0415008 -0.0205502 0 -0.173339 0.0134915 0 269.87 269.87 1000.64 