ITEM: TIMESTEP
49000
ITEM: NUMBER OF ATOMS
754
ITEM: BOX BOUNDS ff ff pp
-0.021 0.521
-0.021 0.5
-0.001 0.001
ITEM: ATOMS id type type x y z ix iy iz vx vy vz fx fy fz vx vy vz p p rho 
1 1 1 0.00785113 0.00873291 0 0 0 0 -0.0029037 0.0903346 0 -0.0733372 -0.397673 0 -0.0029037 0.0903346 0 270.892 270.892 1000.64 
2 1 1 0.026235 0.00655924 0 0 0 0 -0.0537106 -0.00937803 0 -0.052945 0.101334 0 -0.0537106 -0.00937803 0 309.274 309.274 1000.73 
3 1 1 0.0551901 0.00831819 0 0 0 0 -0.0676599 0.000542149 0 -0.16317 -0.138604 0 -0.0676599 0.000542149 0 389.685 389.685 1000.93 
4 1 1 0.0677306 0.00724124 0 0 0 0 -0.0544683 -0.0124135 0 -0.0307569 -0.117239 0 -0.0544683 -0.0124135 0 430.499 430.499 1001.02 
5 1 1 0.0943782 0.00797699 0 0 0 0 -0.0203743 0.00565402 0 -0.104064 -0.00782758 0 -0.0203743 0.00565402 0 453.025 453.025 1001.08 
6 1 1 0.105938 0.00885635 0 0 0 0 -0.0146678 -0.00298447 0 0.033118 -0.120703 0 -0.0146678 -0.00298447 0 487.45 487.45 1001.16 
7 1 1 0.143402 0.00930923 0 0 0 0 0.0312596 0.0136958 0 -0.0338304 -0.0826375 0 0.0312596 0.0136958 0 475.969 475.969 1001.13 
8 1 1 0.154625 0.00773907 0 0 0 0 -0.00356468 0.00180908 0 -0.032677 -0.0723393 0 -0.00356468 0.00180908 0 499.638 499.638 1001.19 
9 1 1 0.180182 0.00861567 0 0 0 0 0.102235 0.0177594 0 -0.0810578 -0.0801028 0 0.102235 0.0177594 0 482.212 482.212 1001.14 
10 1 1 0.202334 0.00797493 0 0 0 0 0.125563 0.00483267 0 -0.104889 0.012996 0 0.125563 0.00483267 0 540.714 540.714 1001.28 
11 1 1 0.0244139 0.0143083 0 0 0 0 -0.0444911 0.00520943 0 -0.481356 -0.242304 0 -0.0444911 0.00520943 0 185.563 185.563 1000.44 
12 1 1 0.0423593 0.00780584 0 0 0 0 -0.0622646 -0.00222032 0 -0.404964 -0.160404 0 -0.0622646 -0.00222032 0 402.688 402.688 1000.96 
13 1 1 0.0627859 0.0158692 0 0 0 0 -0.0780568 -0.0192726 0 -0.232432 -0.0680391 0 -0.0780568 -0.0192726 0 375.592 375.592 1000.89 
14 1 1 0.0818835 0.0084137 0 0 0 0 -0.0457278 -0.0208525 0 -0.153149 -0.11394 0 -0.0457278 -0.0208525 0 462.239 462.239 1001.1 
15 1 1 0.105404 0.0157641 0 0 0 0 -0.00444994 -0.0125824 0 -0.0715751 -0.00084837 0 -0.00444994 -0.0125824 0 427.63 427.63 1001.02 
16 1 1 0.133012 0.00794974 0 0 0 0 0.0278329 -0.0108014 0 -0.237491 -0.066292 0 0.0278329 -0.0108014 0 505.826 505.826 1001.2 
17 1 1 0.147415 0.0168232 0 0 0 0 0.0871141 0.0213332 0 -0.0249415 0.0405648 0 0.0871141 0.0213332 0 433.36 433.36 1001.03 
18 1 1 0.16869 0.00836131 0 0 0 0 0.0446225 -0.0644134 0 0.0347598 0.0414684 0 0.0446225 -0.0644134 0 535.758 535.758 1001.27 
19 1 1 0.190269 0.00878814 0 0 0 0 0.110308 -0.0207441 0 0.0307747 -0.0412215 0 0.110308 -0.0207441 0 544.759 544.759 1001.29 
20 1 1 0.198705 0.0163307 0 0 0 0 0.0612232 -0.038556 0 -0.0517833 0.0518924 0 0.0612232 -0.038556 0 467.263 467.263 1001.11 
21 1 1 0.0142954 0.0119399 0 0 0 0 0.0065348 -0.0473553 0 -0.0354622 0.508523 0 0.0065348 -0.0473553 0 329.672 329.672 1000.78 
22 1 1 0.0361021 0.0144586 0 0 0 0 0.0177866 -0.00407694 0 -0.434123 -0.241361 0 0.0177866 -0.00407694 0 260.81 260.81 1000.62 
23 1 1 0.0487215 0.0156597 0 0 0 0 -0.0752582 0.0292825 0 -0.131697 0.0189716 0 -0.0752582 0.0292825 0 335.315 335.315 1000.8 
24 1 1 0.0817126 0.0227619 0 0 0 0 -0.0205777 -0.0014776 0 -0.107978 -0.153577 0 -0.0205777 -0.0014776 0 344.71 344.71 1000.82 
25 1 1 0.0907575 0.0156407 0 0 0 0 -0.0581708 -0.0362059 0 -0.0257393 0.0243737 0 -0.0581708 -0.0362059 0 394.18 394.18 1000.94 
26 1 1 0.118531 0.00746072 0 0 0 0 -0.00971176 -0.01502 0 -0.127238 0.0512541 0 -0.00971176 -0.01502 0 536.999 536.999 1001.27 
27 1 1 0.134221 0.0175311 0 0 0 0 0.0765245 -0.00893468 0 -0.0319496 -0.072189 0 0.0765245 -0.00893468 0 427.906 427.906 1001.02 
28 1 1 0.163845 0.0147095 0 0 0 0 0.0891968 -0.00932178 0 -0.108935 -0.0969614 0 0.0891968 -0.00932178 0 474.101 474.101 1001.13 
29 1 1 0.1875 0.0191827 0 0 0 0 0.0940279 0.0143254 0 -0.135324 -0.0242409 0 0.0940279 0.0143254 0 429.652 429.652 1001.02 
30 1 1 0.202139 0.0300319 0 0 0 0 0.0925868 -0.0611958 0 -0.0230122 -0.0212974 0 0.0925868 -0.0611958 0 351.051 351.051 1000.83 
31 1 1 0.0151737 0.0224561 0 0 0 0 -0.25058 -0.0703659 0 -0.299183 -0.318947 0 -0.25058 -0.0703659 0 -312.932 -312.932 999.253 
32 1 1 0.039016 0.0211221 0 0 0 0 -0.102383 0.0141588 0 0.089175 -0.274204 0 -0.102383 0.0141588 0 186.145 186.145 1000.44 
33 1 1 0.0768534 0.0146371 0 0 0 0 -0.0334991 0.00677443 0 -0.186301 -0.01836 0 -0.0334991 0.00677443 0 386.982 386.982 1000.92 
34 1 1 0.0959847 0.0231766 0 0 0 0 0.0498308 -0.0396166 0 -0.123251 -0.152719 0 0.0498308 -0.0396166 0 321.151 321.151 1000.76 
35 1 1 0.122325 0.0143422 0 0 0 0 0.0749593 -0.012284 0 0.147024 0.0674504 0 0.0749593 -0.012284 0 479.177 479.177 1001.14 
36 1 1 0.142215 0.0244897 0 0 0 0 0.0309682 -0.000891757 0 0.0311656 -0.0101015 0 0.0309682 -0.000891757 0 384.999 384.999 1000.91 
37 1 1 0.170594 0.0223446 0 0 0 0 0.0808195 -0.0594523 0 -0.097767 -0.037022 0 0.0808195 -0.0594523 0 405.989 405.989 1000.96 
38 1 1 0.178372 0.0175236 0 0 0 0 0.0977802 -0.0303479 0 -0.0364131 0.0149084 0 0.0977802 -0.0303479 0 462.125 462.125 1001.1 
39 1 1 0.192984 0.0256992 0 0 0 0 0.0737659 0.0225427 0 -0.0490228 -0.00376024 0 0.0737659 0.0225427 0 369.572 369.572 1000.88 
40 1 1 0.183733 0.0450387 0 0 0 0 0.0324202 -0.0338983 0 0.0495731 -0.0994467 0 0.0324202 -0.0338983 0 163.548 163.548 1000.39 
41 1 1 0.00620318 0.0268275 0 0 0 0 0.010264 0.190038 0 1.91541 -0.767078 0 0.010264 0.190038 0 150.281 150.281 1000.36 
42 1 1 0.0272789 0.0252844 0 0 0 0 -0.0494019 0.0987337 0 -0.219443 0.317562 0 -0.0494019 0.0987337 0 522.179 522.179 1001.24 
43 1 1 0.0549692 0.0234201 0 0 0 0 -0.0482187 -0.00912987 0 -0.11712 -0.0922514 0 -0.0482187 -0.00912987 0 269.541 269.541 1000.64 
44 1 1 0.0780812 0.0304946 0 0 0 0 0.00995153 -0.046004 0 -0.0765523 -0.125325 0 0.00995153 -0.046004 0 216.965 216.965 1000.52 
45 1 1 0.10777 0.0239541 0 0 0 0 0.0334008 0.00207066 0 0.0480602 0.029023 0 0.0334008 0.00207066 0 313.224 313.224 1000.74 
46 1 1 0.129357 0.0238683 0 0 0 0 0.0418304 -0.0139631 0 0.0239434 0.0347874 0 0.0418304 -0.0139631 0 323.407 323.407 1000.77 
47 1 1 0.156941 0.0199965 0 0 0 0 0.0996667 -0.0406359 0 -0.105639 -0.0539209 0 0.0996667 -0.0406359 0 415.924 415.924 1000.99 
48 1 1 0.183737 0.0312881 0 0 0 0 0.0563502 0.00602739 0 -0.0125474 -0.129576 0 0.0563502 0.00602739 0 321.313 321.313 1000.76 
49 1 1 0.19201 0.0364514 0 0 0 0 0.065462 -0.000477208 0 -0.0873632 -0.0348522 0 0.065462 -0.000477208 0 265.61 265.61 1000.63 
50 1 1 0.180419 0.0559589 0 0 0 0 -0.0122837 -0.0527464 0 -0.0214655 -0.0734224 0 -0.0122837 -0.0527464 0 69.986 69.986 1000.17 
51 1 1 0.00527016 0.0387772 0 0 0 0 -0.0787909 0.027193 0 1.34818 0.410685 0 -0.0787909 0.027193 0 49.167 49.167 1000.12 
52 1 1 0.0503499 0.0276667 0 0 0 0 -0.0456721 0.00547621 0 -0.16756 -0.168186 0 -0.0456721 0.00547621 0 146.947 146.947 1000.35 
53 1 1 0.0635102 0.0313501 0 0 0 0 -0.0559215 -0.0246026 0 -0.40648 -0.187504 0 -0.0559215 -0.0246026 0 230.161 230.161 1000.55 
54 1 1 0.0906717 0.0291368 0 0 0 0 0.0196317 -0.06939 0 -0.0359377 -0.0870931 0 0.0196317 -0.06939 0 248.084 248.084 1000.59 
55 1 1 0.111944 0.0355879 0 0 0 0 0.0771912 -0.0752815 0 -0.0576524 -0.0437509 0 0.0771912 -0.0752815 0 199.211 199.211 1000.47 
56 1 1 0.134693 0.0336168 0 0 0 0 0.046137 0.0154076 0 -0.154874 -0.0275966 0 0.046137 0.0154076 0 232.071 232.071 1000.55 
57 1 1 0.155824 0.027649 0 0 0 0 0.0718534 -0.0249263 0 -0.157007 -0.00152245 0 0.0718534 -0.0249263 0 332.105 332.105 1000.79 
58 1 1 0.162158 0.041188 0 0 0 0 0.040026 -0.0208795 0 -0.00942845 -0.089819 0 0.040026 -0.0208795 0 228.875 228.875 1000.54 
59 1 1 0.177541 0.0409229 0 0 0 0 0.0333019 -0.0720668 0 -0.103675 -0.111738 0 0.0333019 -0.0720668 0 239.972 239.972 1000.57 
60 1 1 0.196018 0.0471324 0 0 0 0 0.0277418 0.0156489 0 -0.0342543 -0.0891688 0 0.0277418 0.0156489 0 172.075 172.075 1000.41 
61 1 1 0.0203124 0.0280886 0 0 0 0 0.49802 -0.060404 0 -1.10924 1.04019 0 0.49802 -0.060404 0 310.569 310.569 1000.74 
62 1 1 0.0324268 0.0323722 0 0 0 0 -0.131828 0.251069 0 -1.30704 2.06263 0 -0.131828 0.251069 0 158.894 158.894 1000.38 
63 1 1 0.0687237 0.0207542 0 0 0 0 -0.0457741 -0.0525215 0 -0.0662452 -0.00797257 0 -0.0457741 -0.0525215 0 314.103 314.103 1000.75 
64 1 1 0.0804978 0.0394569 0 0 0 0 -0.077204 -0.0258177 0 -0.107673 -0.0251651 0 -0.077204 -0.0258177 0 155.716 155.716 1000.37 
65 1 1 0.102913 0.0319362 0 0 0 0 -0.0296448 -0.0052287 0 -0.17001 0.0128148 0 -0.0296448 -0.0052287 0 255.902 255.902 1000.61 
66 1 1 0.117139 0.0207811 0 0 0 0 0.0117742 -0.11206 0 -0.219937 0.0348697 0 0.0117742 -0.11206 0 373.691 373.691 1000.89 
67 1 1 0.143728 0.0339363 0 0 0 0 0.0814258 -0.0445572 0 -0.0587716 -0.0193841 0 0.0814258 -0.0445572 0 273.72 273.72 1000.65 
68 1 1 0.165018 0.0319815 0 0 0 0 0.0429259 0.0237608 0 -0.0346446 -0.0125777 0 0.0429259 0.0237608 0 282.471 282.471 1000.67 
69 1 1 0.174874 0.0298753 0 0 0 0 0.0399966 -0.0752295 0 -0.0740182 0.0200119 0 0.0399966 -0.0752295 0 323.43 323.43 1000.77 
70 1 1 0.173722 0.05696 0 0 0 0 -0.00520063 -0.0264311 0 -0.0671484 -0.0905445 0 -0.00520063 -0.0264311 0 62.3639 62.3639 1000.15 
71 1 1 0.0260991 0.0401938 0 0 0 0 0.103711 0.106078 0 2.01782 -2.20786 0 0.103711 0.106078 0 -1051.89 -1051.89 997.476 
72 1 1 0.0208728 0.03575 0 0 0 0 -0.393358 -0.121035 0 -1.42054 -2.63767 0 -0.393358 -0.121035 0 -688.678 -688.678 998.352 
73 1 1 0.0465769 0.0374132 0 0 0 0 -0.110936 0.0630596 0 -0.317096 -0.0226449 0 -0.110936 0.0630596 0 95.0487 95.0487 1000.23 
74 1 1 0.0694847 0.0333345 0 0 0 0 -0.0643213 -0.077641 0 -0.0725157 -0.120745 0 -0.0643213 -0.077641 0 188.519 188.519 1000.45 
75 1 1 0.0896979 0.0383178 0 0 0 0 -0.0893872 -0.0628625 0 -0.0632741 -0.156582 0 -0.0893872 -0.0628625 0 163.962 163.962 1000.39 
76 1 1 0.120756 0.030295 0 0 0 0 0.0331859 -0.0628162 0 -0.124462 -0.109315 0 0.0331859 -0.0628162 0 294.007 294.007 1000.7 
77 1 1 0.124792 0.0366381 0 0 0 0 0.0109295 -0.0539083 0 0.0335891 0.0251431 0 0.0109295 -0.0539083 0 241.261 241.261 1000.57 
78 1 1 0.152586 0.0367093 0 0 0 0 0.0529583 -0.0262865 0 -0.0521483 -0.033628 0 0.0529583 -0.0262865 0 242.988 242.988 1000.58 
79 1 1 0.169122 0.0458447 0 0 0 0 0.054328 -0.0223522 0 -0.0340352 -0.0706095 0 0.054328 -0.0223522 0 186.948 186.948 1000.44 
80 1 1 0.141642 0.05386 0 0 0 0 -0.0251076 -0.0423156 0 0.0719084 0.0492964 0 -0.0251076 -0.0423156 0 104.612 104.612 1000.25 
81 1 1 0.00961918 0.0914474 0 0 0 0 0.0380091 0.379313 0 -0.130103 -1.51443 0 0.0380091 0.379313 0 -235.39 -235.39 999.439 
82 1 1 0.0417432 0.0329826 0 0 0 0 -0.0654222 -0.0526533 0 -0.683615 0.241944 0 -0.0654222 -0.0526533 0 202.077 202.077 1000.48 
83 1 1 0.0577774 0.0408841 0 0 0 0 -0.156535 -0.0819024 0 -0.134459 -0.244707 0 -0.156535 -0.0819024 0 152.158 152.158 1000.36 
84 1 1 0.0696297 0.044916 0 0 0 0 -0.136105 -0.107322 0 -0.0646624 -0.228152 0 -0.136105 -0.107322 0 154.265 154.265 1000.37 
85 1 1 0.0954254 0.0430262 0 0 0 0 0.0122347 -0.074565 0 0.0729174 -0.114671 0 0.0122347 -0.074565 0 161.338 161.338 1000.38 
86 1 1 0.106262 0.0421162 0 0 0 0 -0.0528179 -0.0781684 0 0.0189844 -0.0143324 0 -0.0528179 -0.0781684 0 142.993 142.993 1000.34 
87 1 1 0.126681 0.0471332 0 0 0 0 0.0261621 -0.000632733 0 -0.143455 0.00135071 0 0.0261621 -0.000632733 0 124.272 124.272 1000.3 
88 1 1 0.137859 0.0435254 0 0 0 0 0.00361979 -0.0500085 0 -0.0666375 -0.0394907 0 0.00361979 -0.0500085 0 146.195 146.195 1000.35 
89 1 1 0.148964 0.0457115 0 0 0 0 -0.00652582 -0.00758942 0 -0.0966664 0.0336941 0 -0.00652582 -0.00758942 0 113.597 113.597 1000.27 
90 1 1 0.156237 0.0512926 0 0 0 0 -0.0150984 -0.0449897 0 -0.19819 0.0329057 0 -0.0150984 -0.0449897 0 91.4444 91.4444 1000.22 
91 1 1 0.0089128 0.0642877 0 0 0 0 0.198822 0.380718 0 -0.124627 -1.53018 0 0.198822 0.380718 0 -372.275 -372.275 999.111 
92 1 1 0.00681364 0.0532362 0 0 0 0 -0.0886362 0.632223 0 1.10166 -1.00815 0 -0.0886362 0.632223 0 23.3997 23.3997 1000.06 
93 1 1 0.0507572 0.0460251 0 0 0 0 -0.137268 0.0396946 0 -0.365981 -0.0814418 0 -0.137268 0.0396946 0 75.2112 75.2112 1000.18 
94 1 1 0.0613588 0.0520517 0 0 0 0 -0.172438 -0.0296065 0 -0.203052 -0.204194 0 -0.172438 -0.0296065 0 41.0172 41.0172 1000.1 
95 1 1 0.0745755 0.0524257 0 0 0 0 -0.221113 -0.0903342 0 -0.0836928 -0.28391 0 -0.221113 -0.0903342 0 101.216 101.216 1000.24 
96 1 1 0.0808188 0.0579015 0 0 0 0 -0.157501 -0.128508 0 0.0797505 -0.242169 0 -0.157501 -0.128508 0 63.2969 63.2969 1000.15 
97 1 1 0.0888899 0.0508222 0 0 0 0 -0.141135 -0.125869 0 0.00459503 -0.0892694 0 -0.141135 -0.125869 0 113.017 113.017 1000.27 
98 1 1 0.116631 0.0464292 0 0 0 0 0.0379829 -0.110557 0 -0.084633 0.179912 0 0.0379829 -0.110557 0 124.917 124.917 1000.3 
99 1 1 0.130165 0.0530773 0 0 0 0 -0.0529865 -0.00429907 0 -0.0959915 -0.0674727 0 -0.0529865 -0.00429907 0 54.7072 54.7072 1000.13 
100 1 1 0.103976 0.0545951 0 0 0 0 -0.153541 -0.117046 0 0.126711 0.18146 0 -0.153541 -0.117046 0 215.158 215.158 1000.51 
101 1 1 0.206603 0.0210257 0 0 0 0 0.0777099 0.00199051 0 -0.05915 -0.133348 0 0.0777099 0.00199051 0 431.475 431.475 1001.02 
102 1 1 0.212007 0.0102906 0 0 0 0 0.131327 0.00704293 0 -0.0768759 -0.0763816 0 0.131327 0.00704293 0 529.246 529.246 1001.26 
103 1 1 0.21768 0.0172472 0 0 0 0 0.0740425 0.000125494 0 -0.0566031 -0.01075 0 0.0740425 0.000125494 0 481.003 481.003 1001.14 
104 1 1 0.222892 0.00739451 0 0 0 0 0.124521 -0.00270975 0 -0.0636054 0.0143677 0 0.124521 -0.00270975 0 562.53 562.53 1001.33 
105 1 1 0.228075 0.0168042 0 0 0 0 0.102134 0.00302639 0 -0.0804835 -0.076133 0 0.102134 0.00302639 0 488.118 488.118 1001.16 
106 1 1 0.236225 0.00764992 0 0 0 0 0.107722 0.00692008 0 -0.110384 0.0167317 0 0.107722 0.00692008 0 567.866 567.866 1001.35 
107 1 1 0.244681 0.0153015 0 0 0 0 0.0870004 -0.00453128 0 -0.106058 -0.0335785 0 0.0870004 -0.00453128 0 529.96 529.96 1001.26 
108 1 1 0.249963 0.00786307 0 0 0 0 0.0868545 0.000148355 0 -0.102163 0.0172793 0 0.0868545 0.000148355 0 586.455 586.455 1001.39 
109 1 1 0.256961 0.0178302 0 0 0 0 0.0810135 0.000467826 0 -0.0817718 -0.0382919 0 0.0810135 0.000467826 0 496.123 496.123 1001.18 
110 1 1 0.26095 0.0101568 0 0 0 0 0.110435 -0.0246616 0 -0.113307 0.0212871 0 0.110435 -0.0246616 0 571.721 571.721 1001.36 
111 1 1 0.270258 0.00804852 0 0 0 0 0.113858 0.00958941 0 -0.046371 0.0419381 0 0.113858 0.00958941 0 627.691 627.691 1001.49 
112 1 1 0.281715 0.00976602 0 0 0 0 0.114428 -0.00777316 0 -0.162942 -0.0810657 0 0.114428 -0.00777316 0 592.657 592.657 1001.41 
113 1 1 0.290961 0.00813067 0 0 0 0 0.138377 -0.0075337 0 0.0389173 0.132403 0 0.138377 -0.0075337 0 629.213 629.213 1001.49 
114 1 1 0.302855 0.00956558 0 0 0 0 0.126902 -0.0122511 0 -0.215954 0.0544325 0 0.126902 -0.0122511 0 607.414 607.414 1001.44 
115 1 1 0.312276 0.0205654 0 0 0 0 0.122147 -0.0376049 0 -0.0702438 -0.119256 0 0.122147 -0.0376049 0 523.664 523.664 1001.24 
116 1 1 0.312002 0.00909359 0 0 0 0 0.142634 -0.0184252 0 -0.0229811 -0.122846 0 0.142634 -0.0184252 0 619.416 619.416 1001.47 
117 1 1 0.319781 0.0123773 0 0 0 0 0.148302 0.0226934 0 -0.0556722 0.0890472 0 0.148302 0.0226934 0 624.48 624.48 1001.48 
118 1 1 0.327516 0.00795311 0 0 0 0 0.131249 0.0371656 0 0.108644 -0.0512894 0 0.131249 0.0371656 0 635.468 635.468 1001.51 
119 1 1 0.340325 0.00836499 0 0 0 0 0.14768 -0.0879077 0 -0.079883 0.115646 0 0.14768 -0.0879077 0 669.532 669.532 1001.59 
120 1 1 0.346965 0.0132309 0 0 0 0 0.187669 0.0427492 0 -0.0130292 -0.0701653 0 0.187669 0.0427492 0 580.5 580.5 1001.38 
121 1 1 0.355466 0.0117263 0 0 0 0 0.218617 -0.056531 0 -0.125795 -0.288657 0 0.218617 -0.056531 0 588.675 588.675 1001.4 
122 1 1 0.362943 0.00705474 0 0 0 0 0.267482 -0.0247512 0 0.0977226 0.348419 0 0.267482 -0.0247512 0 644.128 644.128 1001.53 
123 1 1 0.36947 0.0154589 0 0 0 0 0.194969 0.138274 0 -0.178917 -0.18734 0 0.194969 0.138274 0 546.54 546.54 1001.3 
124 1 1 0.375378 0.0109818 0 0 0 0 0.187967 -0.00499283 0 -0.00531213 -0.119033 0 0.187967 -0.00499283 0 558.232 558.232 1001.32 
125 1 1 0.383001 0.00982884 0 0 0 0 0.193851 -0.0037687 0 0.0332056 0.0116738 0 0.193851 -0.0037687 0 597.943 597.943 1001.42 
126 1 1 0.390244 0.0109933 0 0 0 0 0.1601 0.0589591 0 0.0494241 0.243891 0 0.1601 0.0589591 0 609.878 609.878 1001.45 
127 1 1 0.39787 0.00979071 0 0 0 0 0.137568 0.0320248 0 0.0420022 0.00225402 0 0.137568 0.0320248 0 620.025 620.025 1001.47 
128 1 1 0.405792 0.0104047 0 0 0 0 0.117503 -0.0313283 0 0.049987 0.282989 0 0.117503 -0.0313283 0 604.723 604.723 1001.43 
129 1 1 0.414254 0.00855994 0 0 0 0 0.137125 0.0267948 0 -0.0639455 0.137197 0 0.137125 0.0267948 0 612.366 612.366 1001.45 
130 1 1 0.421675 0.013147 0 0 0 0 0.130421 -0.0777237 0 -0.0888722 -0.216297 0 0.130421 -0.0777237 0 513.203 513.203 1001.22 
131 1 1 0.428959 0.00815936 0 0 0 0 0.123414 0.0437967 0 -0.0296044 0.0200746 0 0.123414 0.0437967 0 675.272 675.272 1001.6 
132 1 1 0.435227 0.0156064 0 0 0 0 0.0922164 -5.55945e-06 0 -0.0528148 -0.342463 0 0.0922164 -5.55945e-06 0 490.644 490.644 1001.16 
133 1 1 0.442174 0.00774834 0 0 0 0 0.0637951 0.0201824 0 -0.0360224 0.101987 0 0.0637951 0.0201824 0 689.944 689.944 1001.63 
134 1 1 0.448791 0.0149131 0 0 0 0 0.0220959 0.00335677 0 -0.0797256 -0.349628 0 0.0220959 0.00335677 0 542.823 542.823 1001.29 
135 1 1 0.456299 0.00749375 0 0 0 0 0.0286614 0.0124695 0 -0.101591 0.0878183 0 0.0286614 0.0124695 0 670.287 670.287 1001.59 
136 1 1 0.464773 0.0132749 0 0 0 0 0.000588393 -0.0174708 0 -0.11835 -0.254799 0 0.000588393 -0.0174708 0 601.866 601.866 1001.43 
137 1 1 0.471948 0.00742821 0 0 0 0 0.00107644 0.0192154 0 -0.0295723 0.13477 0 0.00107644 0.0192154 0 675.342 675.342 1001.6 
138 1 1 0.482047 0.0103518 0 0 0 0 -0.00903395 -0.0275464 0 -0.120261 0.031658 0 -0.00903395 -0.0275464 0 635.859 635.859 1001.51 
139 1 1 0.490824 0.00764605 0 0 0 0 -0.00151251 0.0111619 0 0.00623073 -0.00554225 0 -0.00151251 0.0111619 0 635.463 635.463 1001.51 
140 1 1 0.210696 0.0357611 0 0 0 0 0.0542741 0.0322668 0 -0.0416103 -0.0350671 0 0.0542741 0.0322668 0 275.385 275.385 1000.65 
141 1 1 0.214588 0.0270146 0 0 0 0 0.0965156 -0.00784547 0 -0.0634363 0.0388316 0 0.0965156 -0.00784547 0 368.564 368.564 1000.88 
142 1 1 0.238315 0.0293202 0 0 0 0 0.169088 -0.0281642 0 -0.088499 -0.0104562 0 0.169088 -0.0281642 0 358.218 358.218 1000.85 
143 1 1 0.224285 0.0276575 0 0 0 0 0.0767475 0.0190032 0 -0.10691 -0.106323 0 0.0767475 0.0190032 0 404.012 404.012 1000.96 
144 1 1 0.245837 0.032604 0 0 0 0 0.132361 0.0905058 0 -0.0623375 0.103724 0 0.132361 0.0905058 0 318.307 318.307 1000.76 
145 1 1 0.235118 0.0183012 0 0 0 0 0.0740091 0.0376123 0 -0.041991 0.123099 0 0.0740091 0.0376123 0 490.205 490.205 1001.16 
146 1 1 0.257147 0.0356851 0 0 0 0 0.193703 -0.00871247 0 0.115332 -0.0956438 0 0.193703 -0.00871247 0 310.313 310.313 1000.74 
147 1 1 0.247934 0.0235122 0 0 0 0 0.0892675 -0.00788049 0 -0.0716946 0.0317302 0 0.0892675 -0.00788049 0 436.126 436.126 1001.04 
148 1 1 0.259076 0.0273207 0 0 0 0 0.0480636 -0.00611349 0 -0.0467795 0.0972623 0 0.0480636 -0.00611349 0 404.979 404.979 1000.96 
149 1 1 0.26783 0.0204825 0 0 0 0 0.0682058 -0.0144759 0 -0.142771 -0.0493486 0 0.0682058 -0.0144759 0 491.48 491.48 1001.17 
150 1 1 0.292598 0.0254938 0 0 0 0 0.111765 -0.043078 0 -0.129086 0.0826363 0 0.111765 -0.043078 0 483.468 483.468 1001.15 
151 1 1 0.276084 0.0172681 0 0 0 0 0.0864942 -0.0100072 0 -0.0410728 0.109487 0 0.0864942 -0.0100072 0 533.595 533.595 1001.27 
152 1 1 0.288056 0.0190761 0 0 0 0 0.0969188 -0.0215646 0 -0.143905 -0.0657206 0 0.0969188 -0.0215646 0 558.025 558.025 1001.32 
153 1 1 0.299741 0.0163744 0 0 0 0 0.114604 0.0243153 0 -0.0972123 0.0680999 0 0.114604 0.0243153 0 560.139 560.139 1001.33 
154 1 1 0.318291 0.0257348 0 0 0 0 0.248044 -0.0199145 0 -0.0957188 -0.0567385 0 0.248044 -0.0199145 0 458.434 458.434 1001.09 
155 1 1 0.328107 0.0191233 0 0 0 0 0.183846 -0.0384435 0 -0.141301 -0.0984198 0 0.183846 -0.0384435 0 571.994 571.994 1001.36 
156 1 1 0.330327 0.0275872 0 0 0 0 0.197186 0.0027977 0 0.0222419 0.0427396 0 0.197186 0.0027977 0 502.423 502.423 1001.19 
157 1 1 0.336788 0.0171223 0 0 0 0 0.221959 -0.0258375 0 -0.103066 0.0785078 0 0.221959 -0.0258375 0 577.754 577.754 1001.37 
158 1 1 0.341104 0.0280054 0 0 0 0 0.156895 0.000254339 0 -0.0785288 0.0261158 0 0.156895 0.000254339 0 465.686 465.686 1001.11 
159 1 1 0.347134 0.0254593 0 0 0 0 0.145777 -0.0741047 0 0.124887 -0.0327988 0 0.145777 -0.0741047 0 504.043 504.043 1001.2 
160 1 1 0.356426 0.0195825 0 0 0 0 0.189386 -0.0888143 0 0.189738 0.155735 0 0.189386 -0.0888143 0 589.147 589.147 1001.4 
161 1 1 0.36259 0.0259223 0 0 0 0 0.106403 0.0127662 0 -0.127914 -0.0579758 0 0.106403 0.0127662 0 522.709 522.709 1001.24 
162 1 1 0.371412 0.0258927 0 0 0 0 0.20627 0.0142227 0 -0.0288479 0.161392 0 0.20627 0.0142227 0 539.316 539.316 1001.28 
163 1 1 0.379103 0.0241458 0 0 0 0 0.201528 -0.0355353 0 -0.0419691 -0.202341 0 0.201528 -0.0355353 0 576.414 576.414 1001.37 
164 1 1 0.38557 0.0248995 0 0 0 0 0.210835 0.0324997 0 -0.0239303 -0.152935 0 0.210835 0.0324997 0 561.471 561.471 1001.33 
165 1 1 0.392387 0.0257163 0 0 0 0 0.237365 0.106427 0 0.124361 0.0611254 0 0.237365 0.106427 0 556.994 556.994 1001.32 
166 1 1 0.398796 0.0228651 0 0 0 0 0.226095 -0.0517318 0 0.0784537 -0.528676 0 0.226095 -0.0517318 0 535.42 535.42 1001.27 
167 1 1 0.405495 0.024978 0 0 0 0 0.223012 0.124421 0 0.0788362 0.256478 0 0.223012 0.124421 0 527.891 527.891 1001.25 
168 1 1 0.411971 0.0219835 0 0 0 0 0.201797 -0.028923 0 0.0902229 -0.378335 0 0.201797 -0.028923 0 538.839 538.839 1001.28 
169 1 1 0.418321 0.0247246 0 0 0 0 0.137721 0.138699 0 0.176538 0.499669 0 0.137721 0.138699 0 524.181 524.181 1001.24 
170 1 1 0.425964 0.0229584 0 0 0 0 0.0753113 0.0820797 0 -0.0261012 0.138505 0 0.0753113 0.0820797 0 506.483 506.483 1001.2 
171 1 1 0.434221 0.0249369 0 0 0 0 0.0765148 0.109715 0 0.290749 0.480358 0 0.0765148 0.109715 0 545.315 545.315 1001.29 
172 1 1 0.442364 0.0219481 0 0 0 0 0.0541713 0.0970881 0 0.0339734 0.452292 0 0.0541713 0.0970881 0 477.953 477.953 1001.13 
173 1 1 0.451827 0.024706 0 0 0 0 0.0382006 0.0210514 0 -0.222407 0.309692 0 0.0382006 0.0210514 0 536.714 536.714 1001.27 
174 1 1 0.458301 0.0201612 0 0 0 0 0.0499357 0.0386399 0 0.0411794 0.0780614 0 0.0499357 0.0386399 0 531.964 531.964 1001.26 
175 1 1 0.467355 0.0237822 0 0 0 0 0.0253769 0.0628806 0 -0.16964 0.342539 0 0.0253769 0.0628806 0 542.675 542.675 1001.29 
176 1 1 0.474471 0.0196735 0 0 0 0 -0.00548493 0.015896 0 -0.154464 -0.208446 0 -0.00548493 0.015896 0 572.117 572.117 1001.36 
177 1 1 0.482546 0.0213683 0 0 0 0 -0.00124091 0.0158334 0 0.00699313 -0.189875 0 -0.00124091 0.0158334 0 593.33 593.33 1001.41 
178 1 1 0.49134 0.0193084 0 0 0 0 -0.000545351 -0.00745857 0 -0.0303004 -0.162926 0 -0.000545351 -0.00745857 0 596.478 596.478 1001.41 
179 1 1 0.201585 0.0412645 0 0 0 0 0.0599519 -0.0504328 0 0.0642245 -0.042711 0 0.0599519 -0.0504328 0 232.981 232.981 1000.55 
180 1 1 0.219928 0.0405896 0 0 0 0 0.0888967 -0.0358559 0 0.0506714 -0.0469571 0 0.0888967 -0.0358559 0 231.602 231.602 1000.55 
181 1 1 0.231687 0.042108 0 0 0 0 0.101183 -0.0696266 0 -0.104377 -0.00456939 0 0.101183 -0.0696266 0 215.918 215.918 1000.51 
182 1 1 0.229132 0.0326509 0 0 0 0 0.101313 -0.0284999 0 0.0480079 0.0361111 0 0.101313 -0.0284999 0 351.413 351.413 1000.83 
183 1 1 0.247579 0.0502007 0 0 0 0 0.0853032 -0.0147752 0 -0.0728996 -0.0450882 0 0.0853032 -0.0147752 0 133.7 133.7 1000.32 
184 1 1 0.241148 0.0422041 0 0 0 0 0.0800685 0.00261332 0 0.0518813 -0.0708083 0 0.0800685 0.00261332 0 238.335 238.335 1000.57 
185 1 1 0.253577 0.0425742 0 0 0 0 0.123366 0.000814243 0 -0.174517 0.0306688 0 0.123366 0.000814243 0 254.963 254.963 1000.61 
186 1 1 0.269156 0.0307873 0 0 0 0 0.152528 -0.0697683 0 -0.228036 0.0243847 0 0.152528 -0.0697683 0 369.741 369.741 1000.88 
187 1 1 0.279242 0.0263265 0 0 0 0 0.131475 -0.00857958 0 -0.013661 0.0342439 0 0.131475 -0.00857958 0 432.317 432.317 1001.03 
188 1 1 0.28784 0.0342891 0 0 0 0 0.218195 -0.049355 0 -0.167943 0.0927606 0 0.218195 -0.049355 0 349.049 349.049 1000.83 
189 1 1 0.307072 0.0419705 0 0 0 0 0.189798 0.00831193 0 -0.148813 -0.0357215 0 0.189798 0.00831193 0 294.699 294.699 1000.7 
190 1 1 0.303344 0.0257984 0 0 0 0 0.230111 -0.0552605 0 -0.0917732 0.0248951 0 0.230111 -0.0552605 0 466.611 466.611 1001.11 
191 1 1 0.31474 0.049366 0 0 0 0 0.303835 -0.0535539 0 -0.098773 -0.0341874 0 0.303835 -0.0535539 0 248.847 248.847 1000.59 
192 1 1 0.308579 0.0319531 0 0 0 0 0.19258 -0.00450613 0 -0.0184094 0.0500709 0 0.19258 -0.00450613 0 407.78 407.78 1000.97 
193 1 1 0.324221 0.0345481 0 0 0 0 0.221717 -0.0228101 0 -0.129365 0.0240821 0 0.221717 -0.0228101 0 411.595 411.595 1000.98 
194 1 1 0.327433 0.0458678 0 0 0 0 0.212076 -0.005825 0 -0.0832642 -0.0103418 0 0.212076 -0.005825 0 285.519 285.519 1000.68 
195 1 1 0.334659 0.0382671 0 0 0 0 0.24013 0.0150323 0 0.0167093 -0.0720322 0 0.24013 0.0150323 0 349.854 349.854 1000.83 
196 1 1 0.346607 0.03728 0 0 0 0 0.294664 -0.0109423 0 -0.0790072 -0.00434751 0 0.294664 -0.0109423 0 386.322 386.322 1000.92 
197 1 1 0.355351 0.0435288 0 0 0 0 0.263125 -0.0325718 0 -0.0663381 -0.0255853 0 0.263125 -0.0325718 0 326.302 326.302 1000.78 
198 1 1 0.356758 0.0330242 0 0 0 0 0.193572 -0.0163131 0 -0.136436 -0.0678387 0 0.193572 -0.0163131 0 489.433 489.433 1001.16 
199 1 1 0.362364 0.0449714 0 0 0 0 0.257027 0.086525 0 0.163229 0.0588545 0 0.257027 0.086525 0 284.558 284.558 1000.68 
200 1 1 0.368388 0.0366657 0 0 0 0 0.163431 -0.017597 0 0.0792055 0.121365 0 0.163431 -0.017597 0 381.807 381.807 1000.91 
201 1 1 0.376865 0.0383127 0 0 0 0 0.197887 -0.0299303 0 -0.0316399 -0.282208 0 0.197887 -0.0299303 0 366.866 366.866 1000.87 
202 1 1 0.383554 0.0417411 0 0 0 0 0.1878 0.0542079 0 -0.0319588 -0.143131 0 0.1878 0.0542079 0 336.155 336.155 1000.8 
203 1 1 0.390361 0.0381253 0 0 0 0 0.185328 -0.0833373 0 -0.109125 -0.249549 0 0.185328 -0.0833373 0 402.517 402.517 1000.96 
204 1 1 0.397277 0.0413169 0 0 0 0 0.181853 0.0988642 0 -0.15606 0.0741071 0 0.181853 0.0988642 0 346.103 346.103 1000.82 
205 1 1 0.403772 0.0381091 0 0 0 0 0.166849 -0.0395892 0 -0.251004 -0.389414 0 0.166849 -0.0395892 0 430.836 430.836 1001.02 
206 1 1 0.410621 0.03932 0 0 0 0 0.184126 0.0716127 0 -0.16498 -0.0748333 0 0.184126 0.0716127 0 434.749 434.749 1001.03 
207 1 1 0.417173 0.0390744 0 0 0 0 0.195848 0.0732117 0 -0.0457986 -0.141925 0 0.195848 0.0732117 0 451.575 451.575 1001.07 
208 1 1 0.423764 0.0396736 0 0 0 0 0.197976 0.153266 0 -0.00710964 0.350284 0 0.197976 0.153266 0 415.822 415.822 1000.99 
209 1 1 0.430037 0.0361902 0 0 0 0 0.191085 -0.0855635 0 -0.018147 -0.500872 0 0.191085 -0.0855635 0 515.18 515.18 1001.22 
210 1 1 0.436523 0.0400026 0 0 0 0 0.147155 0.191513 0 -0.0893934 0.376971 0 0.147155 0.191513 0 403.669 403.669 1000.96 
211 1 1 0.443591 0.0374761 0 0 0 0 0.122849 0.0330847 0 -0.236999 -0.475974 0 0.122849 0.0330847 0 494.201 494.201 1001.17 
212 1 1 0.449743 0.0370379 0 0 0 0 0.134877 0.0946515 0 0.104552 -0.177029 0 0.134877 0.0946515 0 512.549 512.549 1001.22 
213 1 1 0.457943 0.0348767 0 0 0 0 0.0781666 -0.0274869 0 0.12394 -0.519509 0 0.0781666 -0.0274869 0 515.572 515.572 1001.22 
214 1 1 0.465868 0.0365088 0 0 0 0 0.0823874 0.088539 0 0.0308735 -0.184986 0 0.0823874 0.088539 0 485.897 485.897 1001.15 
215 1 1 0.472696 0.0354626 0 0 0 0 0.0350913 0.0565927 0 0.166563 -0.291368 0 0.0350913 0.0565927 0 459.683 459.683 1001.09 
216 1 1 0.480267 0.0313785 0 0 0 0 0.0205003 -0.0441271 0 0.0739251 -0.019922 0 0.0205003 -0.0441271 0 462.554 462.554 1001.1 
217 1 1 0.489958 0.0306072 0 0 0 0 0.00277706 -0.00721689 0 -0.0122781 0.0249998 0 0.00277706 -0.00721689 0 461.878 461.878 1001.1 
218 1 1 0.215644 0.0455795 0 0 0 0 0.102561 -0.00838076 0 -0.0257252 -0.00398113 0 0.102561 -0.00838076 0 171.67 171.67 1000.41 
219 1 1 0.190285 0.0543345 0 0 0 0 0.0286341 -0.0241438 0 -0.123367 -0.0511307 0 0.0286341 -0.0241438 0 92.548 92.548 1000.22 
220 1 1 0.207268 0.0515248 0 0 0 0 0.0276687 -0.096669 0 -0.0456277 -0.112819 0 0.0276687 -0.096669 0 97.6935 97.6935 1000.23 
221 1 1 0.23612 0.0562895 0 0 0 0 0.0165693 -0.0347388 0 -0.129673 0.0595046 0 0.0165693 -0.0347388 0 87.1603 87.1603 1000.21 
222 1 1 0.231984 0.0498532 0 0 0 0 0.0393151 -0.00988627 0 -0.164997 -0.0163971 0 0.0393151 -0.00988627 0 127.621 127.621 1000.3 
223 1 1 0.269578 0.0409797 0 0 0 0 0.156812 -0.0390606 0 -0.271594 0.0812794 0 0.156812 -0.0390606 0 301.734 301.734 1000.72 
224 1 1 0.277951 0.0367806 0 0 0 0 0.132468 -0.013652 0 -0.0449638 0.00722484 0 0.132468 -0.013652 0 337.474 337.474 1000.8 
225 1 1 0.283751 0.0453214 0 0 0 0 0.134064 -0.083654 0 -0.0874572 -0.00124161 0 0.134064 -0.083654 0 291.978 291.978 1000.69 
226 1 1 0.287151 0.0519051 0 0 0 0 0.128359 -0.071813 0 -0.0667586 0.0594164 0 0.128359 -0.071813 0 200.415 200.415 1000.48 
227 1 1 0.296593 0.0363582 0 0 0 0 0.214821 -0.0892159 0 -0.0228105 0.0374759 0 0.214821 -0.0892159 0 363.13 363.13 1000.86 
228 1 1 0.2978 0.0450129 0 0 0 0 0.153772 -0.0668247 0 -0.212379 0.0883621 0 0.153772 -0.0668247 0 307.812 307.812 1000.73 
229 1 1 0.307335 0.0552107 0 0 0 0 0.130922 -0.0730768 0 -0.0479442 -0.0788372 0 0.130922 -0.0730768 0 168.252 168.252 1000.4 
230 1 1 0.317281 0.0395865 0 0 0 0 0.158613 -0.0939581 0 -0.0706574 -0.0644545 0 0.158613 -0.0939581 0 375.662 375.662 1000.89 
231 1 1 0.320492 0.0568639 0 0 0 0 0.208798 -0.113623 0 -0.141118 -0.0252562 0 0.208798 -0.113623 0 234.728 234.728 1000.56 
232 1 1 0.330714 0.0543258 0 0 0 0 0.275402 -0.0131788 0 -0.0185347 -0.0959393 0 0.275402 -0.0131788 0 222.494 222.494 1000.53 
233 1 1 0.339878 0.0450759 0 0 0 0 0.256043 -0.0713195 0 -0.0533035 -0.0064682 0 0.256043 -0.0713195 0 340.692 340.692 1000.81 
234 1 1 0.341417 0.0568377 0 0 0 0 0.252007 -0.0648253 0 0.0265233 -0.00168807 0 0.252007 -0.0648253 0 222.826 222.826 1000.53 
235 1 1 0.349124 0.0510036 0 0 0 0 0.234012 0.00766215 0 0.0112 0.0471099 0 0.234012 0.00766215 0 262.952 262.952 1000.62 