ITEM: TIMESTEP
157000
ITEM: NUMBER OF ATOMS
754
ITEM: BOX BOUNDS ff ff pp
-0.021 0.521
-0.021 0.5
-0.001 0.001
ITEM: ATOMS id type type x y z ix iy iz vx vy vz fx fy fz vx vy vz p p rho 
1 1 1 0.00736314 0.00404024 0 0 0 0 -0.00649564 -0.00366874 0 -0.0275764 0.0129284 0 -0.00649564 -0.00366874 0 484.222 484.222 1001.15 
2 1 1 0.0273901 0.00429371 0 0 0 0 0.011222 0.000954644 0 -0.0495842 0.0186804 0 0.011222 0.000954644 0 501.541 501.541 1001.19 
3 1 1 0.0612017 0.00601363 0 0 0 0 0.0257605 0.00388091 0 -0.0642184 0.0125868 0 0.0257605 0.00388091 0 476.336 476.336 1001.13 
4 1 1 0.074405 0.00609468 0 0 0 0 0.0206972 -0.00466839 0 -0.0235459 -0.00479955 0 0.0206972 -0.00466839 0 497.75 497.75 1001.18 
5 1 1 0.0917492 0.00541358 0 0 0 0 0.0170769 -0.000963707 0 -0.0473979 -0.00682977 0 0.0170769 -0.000963707 0 517.492 517.492 1001.23 
6 1 1 0.11216 0.00681 0 0 0 0 0.0356338 0.00858143 0 -0.104207 -0.0354791 0 0.0356338 0.00858143 0 497.995 497.995 1001.18 
7 1 1 0.146647 0.00731035 0 0 0 0 0.071631 -0.0128782 0 0.0484476 -0.0298082 0 0.071631 -0.0128782 0 512.682 512.682 1001.22 
8 1 1 0.134172 0.0152974 0 0 0 0 0.0537842 -0.00998843 0 -0.0548649 -0.025826 0 0.0537842 -0.00998843 0 470.123 470.123 1001.12 
9 1 1 0.172841 0.00697023 0 0 0 0 0.107341 -0.010325 0 -0.0332741 0.000424735 0 0.107341 -0.010325 0 523.824 523.824 1001.24 
10 1 1 0.184699 0.00695768 0 0 0 0 0.125919 -0.0057441 0 -0.0283493 -0.0334614 0 0.125919 -0.0057441 0 524.354 524.354 1001.24 
11 1 1 0.0249622 0.0142745 0 0 0 0 0.0187025 0.0254798 0 -0.0406828 0.0735523 0 0.0187025 0.0254798 0 432.685 432.685 1001.03 
12 1 1 0.0459673 0.00552026 0 0 0 0 0.0471101 -0.00824826 0 -0.0643955 -0.0120696 0 0.0471101 -0.00824826 0 493.251 493.251 1001.17 
13 1 1 0.0606781 0.0163474 0 0 0 0 0.0400871 0.00206783 0 -0.0122101 -0.109254 0 0.0400871 0.00206783 0 423.223 423.223 1001 
14 1 1 0.0829152 0.0120956 0 0 0 0 0.0401159 2.86163e-06 0 -0.0438562 -0.014238 0 0.0401159 2.86163e-06 0 479.021 479.021 1001.14 
15 1 1 0.10284 0.00953526 0 0 0 0 0.0175354 -0.0147475 0 -0.109512 0.0572973 0 0.0175354 -0.0147475 0 515.38 515.38 1001.22 
16 1 1 0.134795 0.00646447 0 0 0 0 0.0631884 0.00270163 0 -0.06683 -0.0205415 0 0.0631884 0.00270163 0 507.999 507.999 1001.21 
17 1 1 0.135903 0.0222456 0 0 0 0 0.0890783 -0.026195 0 -0.0170667 0.037408 0 0.0890783 -0.026195 0 429.382 429.382 1001.02 
18 1 1 0.159399 0.00618779 0 0 0 0 0.0896061 0.000287547 0 -0.0320119 0.014857 0 0.0896061 0.000287547 0 534.343 534.343 1001.27 
19 1 1 0.179267 0.0163326 0 0 0 0 0.114604 -0.012885 0 -0.0237656 -0.0119953 0 0.114604 -0.012885 0 469.957 469.957 1001.12 
20 1 1 0.169962 0.0218383 0 0 0 0 0.120062 -0.0267092 0 -0.0159539 -0.0508211 0 0.120062 -0.0267092 0 435.79 435.79 1001.03 
21 1 1 0.0278125 0.0278895 0 0 0 0 0.0511965 0.00306225 0 0.0124712 -0.00696035 0 0.0511965 0.00306225 0 340.599 340.599 1000.81 
22 1 1 0.0376538 0.0113597 0 0 0 0 -0.0174532 -0.0278424 0 -0.034309 -0.0120576 0 -0.0174532 -0.0278424 0 455.569 455.569 1001.08 
23 1 1 0.0529388 0.0135359 0 0 0 0 0.0205619 0.0213689 0 -0.0491696 0.0314887 0 0.0205619 0.0213689 0 445.014 445.014 1001.06 
24 1 1 0.0748524 0.0273128 0 0 0 0 0.0571261 -0.0186277 0 -0.0953119 0.0259537 0 0.0571261 -0.0186277 0 365.26 365.26 1000.87 
25 1 1 0.0660082 0.022772 0 0 0 0 0.00744552 0.00143319 0 0.0621788 0.0720505 0 0.00744552 0.00143319 0 382.181 382.181 1000.91 
26 1 1 0.123381 0.0076866 0 0 0 0 0.045193 -0.0172645 0 -0.0582236 -0.00376751 0 0.045193 -0.0172645 0 519.986 519.986 1001.23 
27 1 1 0.123796 0.0175728 0 0 0 0 0.0520899 -0.02527 0 -0.038226 -0.0508429 0 0.0520899 -0.02527 0 455.898 455.898 1001.08 
28 1 1 0.156714 0.0150172 0 0 0 0 0.0784643 -0.0179592 0 -0.0847533 0.0633101 0 0.0784643 -0.0179592 0 487.152 487.152 1001.16 
29 1 1 0.167355 0.014227 0 0 0 0 0.0920641 -0.0166168 0 -0.0442536 -0.009838 0 0.0920641 -0.0166168 0 485.884 485.884 1001.15 
30 1 1 0.179874 0.0263103 0 0 0 0 0.12968 -0.0161198 0 -0.0279986 0.00410107 0 0.12968 -0.0161198 0 396.133 396.133 1000.94 
31 1 1 0.0165513 0.0111069 0 0 0 0 0.0181143 -0.0208279 0 0.0256314 -0.0552106 0 0.0181143 -0.0208279 0 455.66 455.66 1001.08 
32 1 1 0.0333027 0.0177885 0 0 0 0 0.00824151 0.0107606 0 0.053791 0.0327311 0 0.00824151 0.0107606 0 418.422 418.422 1000.99 
33 1 1 0.0624518 0.0334124 0 0 0 0 0.00143523 -0.0229967 0 -0.0220375 -0.0649191 0 0.00143523 -0.0229967 0 332.81 332.81 1000.79 
34 1 1 0.0808283 0.0204903 0 0 0 0 0.0305038 -0.0175677 0 -0.00515941 -0.0431549 0 0.0305038 -0.0175677 0 430.685 430.685 1001.02 
35 1 1 0.11339 0.0259386 0 0 0 0 0.0495347 -0.0201373 0 -0.0145369 -0.0112695 0 0.0495347 -0.0201373 0 383.809 383.809 1000.91 
36 1 1 0.124652 0.0274621 0 0 0 0 0.0826047 -0.0204711 0 -0.00434365 -0.0491232 0 0.0826047 -0.0204711 0 394.818 394.818 1000.94 
37 1 1 0.146132 0.0152145 0 0 0 0 0.0791351 -0.00952338 0 -0.126151 -0.018308 0 0.0791351 -0.00952338 0 467.738 467.738 1001.11 
38 1 1 0.158725 0.0240247 0 0 0 0 0.113633 -0.0250005 0 0.0488234 -0.0147144 0 0.113633 -0.0250005 0 409.297 409.297 1000.97 
39 1 1 0.176215 0.0377694 0 0 0 0 0.134837 -0.00641027 0 -0.0428774 -0.0570104 0 0.134837 -0.00641027 0 306.352 306.352 1000.73 
40 1 1 0.143404 0.0397242 0 0 0 0 0.118395 -0.0560649 0 0.0279485 0.032906 0 0.118395 -0.0560649 0 313.432 313.432 1000.74 
41 1 1 0.0094521 0.0158529 0 0 0 0 0.0226903 -0.012493 0 -0.00523823 0.0263593 0 0.0226903 -0.012493 0 411.194 411.194 1000.98 
42 1 1 0.0319244 0.0432356 0 0 0 0 -0.001329 -0.0150577 0 -0.0403816 0.00778531 0 -0.001329 -0.0150577 0 211.375 211.375 1000.5 
43 1 1 0.0454124 0.0180057 0 0 0 0 0.0163652 -0.0546167 0 0.00177621 0.0368648 0 0.0163652 -0.0546167 0 431.804 431.804 1001.02 
44 1 1 0.072595 0.0368449 0 0 0 0 -0.000996416 -0.0314455 0 -0.0222472 0.036515 0 -0.000996416 -0.0314455 0 313.085 313.085 1000.74 
45 1 1 0.0919318 0.0157234 0 0 0 0 0.0297011 0.0220748 0 0.0212419 0.0364795 0 0.0297011 0.0220748 0 449.458 449.458 1001.07 
46 1 1 0.104719 0.0285352 0 0 0 0 0.0854342 -0.0061394 0 -0.042283 0.0342753 0 0.0854342 -0.0061394 0 368.596 368.596 1000.88 
47 1 1 0.147773 0.0238146 0 0 0 0 0.0907134 -0.0153269 0 8.22795e-05 -0.0661722 0 0.0907134 -0.0153269 0 419.421 419.421 1001 
48 1 1 0.16918 0.0307765 0 0 0 0 0.147615 -0.0402699 0 -0.0310428 0.0601593 0 0.147615 -0.0402699 0 356.229 356.229 1000.85 
49 1 1 0.165334 0.0404117 0 0 0 0 0.133005 -0.0344821 0 -0.00406384 0.0324107 0 0.133005 -0.0344821 0 284.381 284.381 1000.68 
50 1 1 0.146483 0.0561012 0 0 0 0 0.132451 -0.0641336 0 -0.12532 0.0525225 0 0.132451 -0.0641336 0 189.545 189.545 1000.45 
51 1 1 0.0193734 0.0219635 0 0 0 0 -0.0166964 -0.00562754 0 -0.033297 -0.022451 0 -0.0166964 -0.00562754 0 394.854 394.854 1000.94 
52 1 1 0.0374753 0.0273785 0 0 0 0 0.0288559 0.000188128 0 -0.0557167 0.00807486 0 0.0288559 0.000188128 0 371.85 371.85 1000.88 
53 1 1 0.0550906 0.0264914 0 0 0 0 0.00463911 0.0122967 0 -0.037391 -0.0175763 0 0.00463911 0.0122967 0 346.246 346.246 1000.82 
54 1 1 0.0857553 0.02969 0 0 0 0 0.0325845 0.00865225 0 -0.018684 -0.00869914 0 0.0325845 0.00865225 0 351.568 351.568 1000.83 
55 1 1 0.0940135 0.0334384 0 0 0 0 0.0584956 -0.0404746 0 -0.0989886 0.0186984 0 0.0584956 -0.0404746 0 337.686 337.686 1000.8 
56 1 1 0.100926 0.0399306 0 0 0 0 0.0398412 -0.0159509 0 -0.0249249 -0.0595119 0 0.0398412 -0.0159509 0 265.802 265.802 1000.63 
57 1 1 0.133536 0.0321861 0 0 0 0 0.0622054 -0.049809 0 -0.0262339 -0.0383157 0 0.0622054 -0.049809 0 364.807 364.807 1000.87 
58 1 1 0.122263 0.0360013 0 0 0 0 0.0519951 -0.0460395 0 -0.0205901 0.0568855 0 0.0519951 -0.0460395 0 319.861 319.861 1000.76 
59 1 1 0.15632 0.0418802 0 0 0 0 0.145839 -0.0266043 0 -0.0349291 -0.0142602 0 0.145839 -0.0266043 0 265.508 265.508 1000.63 
60 1 1 0.160537 0.0531204 0 0 0 0 0.152337 -0.042512 0 -0.0922115 -0.043546 0 0.152337 -0.042512 0 194.037 194.037 1000.46 
61 1 1 0.0475303 0.0285503 0 0 0 0 -0.0123392 -0.0468894 0 -0.00371102 -0.0268976 0 -0.0123392 -0.0468894 0 333.328 333.328 1000.79 
62 1 1 0.00800605 0.0255203 0 0 0 0 -0.00458594 -0.0290792 0 0.105969 0.0228207 0 -0.00458594 -0.0290792 0 345.243 345.243 1000.82 
63 1 1 0.0712126 0.0144086 0 0 0 0 0.0287184 -0.00132636 0 -0.0314705 0.0185248 0 0.0287184 -0.00132636 0 442.381 442.381 1001.05 
64 1 1 0.0414826 0.0466391 0 0 0 0 0.028889 0.00145994 0 -0.00347797 0.0278901 0 0.028889 0.00145994 0 198.992 198.992 1000.47 
65 1 1 0.0823871 0.0394644 0 0 0 0 0.0288979 -0.0285767 0 -0.0379486 0.0525536 0 0.0288979 -0.0285767 0 276.033 276.033 1000.66 
66 1 1 0.115501 0.0167478 0 0 0 0 0.0510401 -0.00339409 0 -0.0818433 8.12637e-05 0 0.0510401 -0.00339409 0 455.513 455.513 1001.08 
67 1 1 0.111677 0.0366979 0 0 0 0 0.051051 0.0101692 0 -0.0170369 -0.0502767 0 0.051051 0.0101692 0 292.609 292.609 1000.7 
68 1 1 0.144991 0.0314376 0 0 0 0 0.128145 -0.0268307 0 -0.00203883 0.0254092 0 0.128145 -0.0268307 0 361.605 361.605 1000.86 
69 1 1 0.157119 0.032384 0 0 0 0 0.131928 -0.0446758 0 -0.0676228 -0.00500613 0 0.131928 -0.0446758 0 332.215 332.215 1000.79 
70 1 1 0.167633 0.0600233 0 0 0 0 0.116581 -0.0296553 0 -0.0138 0.0443097 0 0.116581 -0.0296553 0 118.088 118.088 1000.28 
71 1 1 0.0118555 0.0381833 0 0 0 0 -0.0529102 -0.0719777 0 0.00967549 0.00439544 0 -0.0529102 -0.0719777 0 258.049 258.049 1000.61 
72 1 1 0.0442653 0.0568932 0 0 0 0 0.0157042 -0.0239536 0 -0.224348 0.0552225 0 0.0157042 -0.0239536 0 115.355 115.355 1000.27 
73 1 1 0.026767 0.0364676 0 0 0 0 -0.0241533 0.0400788 0 -0.0668721 0.0772283 0 -0.0241533 0.0400788 0 280.223 280.223 1000.67 
74 1 1 0.0527042 0.0395415 0 0 0 0 -0.0179837 -0.00910818 0 -0.0388735 -0.0289485 0 -0.0179837 -0.00910818 0 244.69 244.69 1000.58 
75 1 1 0.0750266 0.048429 0 0 0 0 0.0376902 -0.0265703 0 0.0246526 -0.0125435 0 0.0376902 -0.0265703 0 227.646 227.646 1000.54 
76 1 1 0.104362 0.0175797 0 0 0 0 0.0385056 -0.0277658 0 0.0334025 0.00247274 0 0.0385056 -0.0277658 0 466.907 466.907 1001.11 
77 1 1 0.0952703 0.0226091 0 0 0 0 0.0674171 -0.00215124 0 -0.0893132 0.0391609 0 0.0674171 -0.00215124 0 414.141 414.141 1000.98 
78 1 1 0.130702 0.0498907 0 0 0 0 0.139605 -0.0782239 0 -0.0426385 -0.012476 0 0.139605 -0.0782239 0 245.366 245.366 1000.58 
79 1 1 0.132712 0.0429485 0 0 0 0 0.103614 -0.0737258 0 -0.0331599 -0.0709735 0 0.103614 -0.0737258 0 302.88 302.88 1000.72 
80 1 1 0.137261 0.0671846 0 0 0 0 0.140521 -0.09763 0 0.0633213 -0.0108589 0 0.140521 -0.09763 0 136.263 136.263 1000.32 
81 1 1 0.0163391 0.0317689 0 0 0 0 0.0845556 -0.0234823 0 0.013261 0.0804656 0 0.0845556 -0.0234823 0 307.241 307.241 1000.73 
82 1 1 0.0122328 0.0476846 0 0 0 0 -0.0160527 -0.0475063 0 0.00907604 -0.0682844 0 -0.0160527 -0.0475063 0 169.966 169.966 1000.4 
83 1 1 0.0420139 0.0369138 0 0 0 0 -0.00586597 0.0121427 0 -0.075009 0.0471291 0 -0.00586597 0.0121427 0 276.953 276.953 1000.66 
84 1 1 0.022137 0.0487858 0 0 0 0 -0.037338 0.0147859 0 -0.00580505 0.0713175 0 -0.037338 0.0147859 0 199.934 199.934 1000.48 
85 1 1 0.0629501 0.0436399 0 0 0 0 0.0520831 -0.0366722 0 -0.0473002 0.0454013 0 0.0520831 -0.0366722 0 238.639 238.639 1000.57 
86 1 1 0.0915297 0.0457709 0 0 0 0 0.0663635 -0.0385894 0 0.0115925 0.0773941 0 0.0663635 -0.0385894 0 252.774 252.774 1000.6 
87 1 1 0.105644 0.0475886 0 0 0 0 0.0655239 -0.00689993 0 -0.077523 -0.0181922 0 0.0655239 -0.00689993 0 209.953 209.953 1000.5 
88 1 1 0.117437 0.0546863 0 0 0 0 0.0729812 -0.0567621 0 -0.00988456 -0.010192 0 0.0729812 -0.0567621 0 204.541 204.541 1000.49 
89 1 1 0.117686 0.0450312 0 0 0 0 0.0792944 -0.0319534 0 0.0492102 -0.00685376 0 0.0792944 -0.0319534 0 236.742 236.742 1000.56 
90 1 1 0.131113 0.0591051 0 0 0 0 0.0832745 -0.0990282 0 -0.0844307 0.00661861 0 0.0832745 -0.0990282 0 181.749 181.749 1000.43 
91 1 1 0.056098 0.0638762 0 0 0 0 0.0137506 -0.0317481 0 -0.0117811 -0.0765233 0 0.0137506 -0.0317481 0 142.903 142.903 1000.34 
92 1 1 0.030487 0.0562222 0 0 0 0 -0.0460073 -0.0213943 0 -0.0289823 0.18574 0 -0.0460073 -0.0213943 0 124.791 124.791 1000.3 
93 1 1 0.0109711 0.0564649 0 0 0 0 0.0199963 -0.0215931 0 0.0212498 0.041771 0 0.0199963 -0.0215931 0 65.3041 65.3041 1000.16 
94 1 1 0.0666888 0.0551559 0 0 0 0 0.022622 -0.0193246 0 -0.110166 -0.0180497 0 0.022622 -0.0193246 0 187.086 187.086 1000.44 
95 1 1 0.0769672 0.0643115 0 0 0 0 -0.00264944 -0.0424186 0 -0.00159736 0.0490546 0 -0.00264944 -0.0424186 0 227.523 227.523 1000.54 
96 1 1 0.0959261 0.065595 0 0 0 0 0.0478698 -0.0660845 0 -0.0989984 0.0414224 0 0.0478698 -0.0660845 0 245.462 245.462 1000.58 
97 1 1 0.0537829 0.050485 0 0 0 0 0.0256574 -0.0456861 0 -0.0149425 -0.0582864 0 0.0256574 -0.0456861 0 201.28 201.28 1000.48 
98 1 1 0.0867112 0.0536577 0 0 0 0 0.0308317 -0.0610578 0 -0.0304481 0.0892137 0 0.0308317 -0.0610578 0 228.202 228.202 1000.54 
99 1 1 0.103815 0.0562058 0 0 0 0 0.0721919 -0.0133016 0 -0.0591878 -0.042117 0 0.0721919 -0.0133016 0 181.094 181.094 1000.43 
100 1 1 0.116246 0.0662737 0 0 0 0 0.141959 -0.050734 0 -0.0345231 -0.0174417 0 0.141959 -0.050734 0 150.241 150.241 1000.36 
101 1 1 0.18879 0.015019 0 0 0 0 0.105771 -0.000915125 0 -0.0192476 -0.0271116 0 0.105771 -0.000915125 0 486.456 486.456 1001.15 
102 1 1 0.199628 0.0150695 0 0 0 0 0.12109 -0.019035 0 -0.0671789 0.0167634 0 0.12109 -0.019035 0 501.425 501.425 1001.19 
103 1 1 0.200607 0.0241529 0 0 0 0 0.11364 0.00131713 0 -0.0432109 0.0411945 0 0.11364 0.00131713 0 425.982 425.982 1001.01 
104 1 1 0.197696 0.00567423 0 0 0 0 0.12711 0.0046743 0 0.000421252 0.035613 0 0.12711 0.0046743 0 550.397 550.397 1001.31 
105 1 1 0.208313 0.0112134 0 0 0 0 0.128935 0.00253536 0 -0.0740736 -0.0379875 0 0.128935 0.00253536 0 523.662 523.662 1001.24 
106 1 1 0.216494 0.00536196 0 0 0 0 0.137881 -0.0104593 0 0.00566613 0.0399047 0 0.137881 -0.0104593 0 549.229 549.229 1001.3 
107 1 1 0.22723 0.0107323 0 0 0 0 0.148408 0.00521846 0 -0.0769563 0.0163016 0 0.148408 0.00521846 0 522.879 522.879 1001.24 
108 1 1 0.235222 0.00623646 0 0 0 0 0.144946 -0.00279755 0 -0.01423 -0.0497252 0 0.144946 -0.00279755 0 530.545 530.545 1001.26 
109 1 1 0.236536 0.0174395 0 0 0 0 0.159219 -0.0142189 0 0.00182079 -0.0539246 0 0.159219 -0.0142189 0 483.864 483.864 1001.15 
110 1 1 0.244132 0.0160724 0 0 0 0 0.169025 0.000178628 0 -0.0771906 -0.0165161 0 0.169025 0.000178628 0 494.038 494.038 1001.17 
111 1 1 0.247392 0.00728405 0 0 0 0 0.152032 -0.00637355 0 0.0210122 -0.0280898 0 0.152032 -0.00637355 0 540.899 540.899 1001.28 
112 1 1 0.257067 0.0095795 0 0 0 0 0.163084 0.00095647 0 -0.011828 0.0233373 0 0.163084 0.00095647 0 529.753 529.753 1001.26 
113 1 1 0.266252 0.00635335 0 0 0 0 0.148999 -0.00089978 0 0.0228637 0.0214572 0 0.148999 -0.00089978 0 542.732 542.732 1001.29 
114 1 1 0.274454 0.01575 0 0 0 0 0.15374 0.0145655 0 -0.0811393 -0.171023 0 0.15374 0.0145655 0 498.121 498.121 1001.18 
115 1 1 0.28632 0.02794 0 0 0 0 0.232951 0.0384622 0 -0.0413996 -0.141871 0 0.232951 0.0384622 0 415.029 415.029 1000.99 
116 1 1 0.278593 0.00685688 0 0 0 0 0.142136 -0.00247328 0 0.085188 0.0132604 0 0.142136 -0.00247328 0 541.906 541.906 1001.29 
117 1 1 0.291738 0.00678533 0 0 0 0 0.149955 -0.0247902 0 -0.028518 -0.0478612 0 0.149955 -0.0247902 0 563.159 563.159 1001.34 
118 1 1 0.300121 0.0115754 0 0 0 0 0.165406 0.030659 0 0.0184269 0.0267361 0 0.165406 0.030659 0 506.913 506.913 1001.2 
119 1 1 0.30827 0.00545246 0 0 0 0 0.139279 -0.000295136 0 0.0654328 0.0965614 0 0.139279 -0.000295136 0 553.165 553.165 1001.31 
120 1 1 0.319717 0.0196085 0 0 0 0 0.185602 0.0431936 0 0.0584593 0.0220853 0 0.185602 0.0431936 0 465.433 465.433 1001.1 
121 1 1 0.318175 0.010566 0 0 0 0 0.137451 0.0180066 0 0.00911002 -0.0689569 0 0.137451 0.0180066 0 523.86 523.86 1001.24 
122 1 1 0.327432 0.00524728 0 0 0 0 0.103797 0.0020452 0 0.0538191 0.0490349 0 0.103797 0.0020452 0 550.833 550.833 1001.31 
123 1 1 0.349207 0.0153643 0 0 0 0 0.120346 0.0159215 0 0.0315091 -0.0474025 0 0.120346 0.0159215 0 478.457 478.457 1001.14 
124 1 1 0.344131 0.00597059 0 0 0 0 0.10681 -0.00516713 0 0.0329702 -0.0300066 0 0.10681 -0.00516713 0 538.834 538.834 1001.28 
125 1 1 0.357186 0.00640851 0 0 0 0 0.103107 0.00414957 0 0.0621821 0.0238499 0 0.103107 0.00414957 0 525.833 525.833 1001.25 
126 1 1 0.366197 0.0133883 0 0 0 0 0.0832964 -0.00197198 0 0.0239099 0.0620424 0 0.0832964 -0.00197198 0 497.06 497.06 1001.18 
127 1 1 0.371229 0.0063458 0 0 0 0 0.0954962 0.00427588 0 0.00606853 -0.0404252 0 0.0954962 0.00427588 0 524.1 524.1 1001.24 
128 1 1 0.382488 0.00846066 0 0 0 0 0.0646915 0.0321677 0 0.0121471 0.0516601 0 0.0646915 0.0321677 0 498.164 498.164 1001.18 
129 1 1 0.403176 0.00912903 0 0 0 0 0.0221338 0.0206012 0 0.0482011 0.0134432 0 0.0221338 0.0206012 0 484.04 484.04 1001.15 
130 1 1 0.413133 0.00674426 0 0 0 0 0.0223039 -0.0140139 0 0.0353149 0.000519285 0 0.0223039 -0.0140139 0 509.966 509.966 1001.21 
131 1 1 0.426368 0.00562624 0 0 0 0 0.0253005 0.00479364 0 0.0232041 -0.00386846 0 0.0253005 0.00479364 0 499.778 499.778 1001.19 
132 1 1 0.41938 0.0153831 0 0 0 0 0.0364961 -0.00264151 0 0.0152962 0.000721565 0 0.0364961 -0.00264151 0 456.379 456.379 1001.08 
133 1 1 0.437056 0.00945163 0 0 0 0 0.0120619 0.00774782 0 0.0102725 0.0442646 0 0.0120619 0.00774782 0 495.53 495.53 1001.18 
134 1 1 0.447781 0.0159905 0 0 0 0 0.0213994 0.00655192 0 -0.0102203 -0.00576994 0 0.0213994 0.00655192 0 455.307 455.307 1001.08 
135 1 1 0.447653 0.00514203 0 0 0 0 -0.000192967 0.000681255 0 -0.0238323 -0.0115899 0 -0.000192967 0.000681255 0 503.375 503.375 1001.19 
136 1 1 0.457048 0.011389 0 0 0 0 0.00336803 -0.00430707 0 0.00592177 -0.00136482 0 0.00336803 -0.00430707 0 481.126 481.126 1001.14 
137 1 1 0.465644 0.00516508 0 0 0 0 -0.00108361 -0.000964103 0 -0.0178794 0.00624627 0 -0.00108361 -0.000964103 0 508.582 508.582 1001.21 
138 1 1 0.479641 0.0064129 0 0 0 0 -0.00752924 -0.00525812 0 -0.0240933 -0.0116127 0 -0.00752924 -0.00525812 0 491.101 491.101 1001.17 
139 1 1 0.492872 0.00597591 0 0 0 0 0.00153471 -0.0023671 0 -0.0121973 -0.0111759 0 0.00153471 -0.0023671 0 494.214 494.214 1001.17 
140 1 1 0.186498 0.0329894 0 0 0 0 0.136142 -0.0164082 0 -0.0387093 -0.000463465 0 0.136142 -0.0164082 0 347.626 347.626 1000.83 
141 1 1 0.190766 0.0236102 0 0 0 0 0.146348 -0.00243544 0 -0.0489737 0.0173439 0 0.146348 -0.00243544 0 437.973 437.973 1001.04 
142 1 1 0.222769 0.0435799 0 0 0 0 0.204461 -0.0695377 0 -0.0621298 0.00378259 0 0.204461 -0.0695377 0 319.553 319.553 1000.76 
143 1 1 0.208005 0.0284073 0 0 0 0 0.160878 -0.0361992 0 0.0186779 -0.0214879 0 0.160878 -0.0361992 0 413.736 413.736 1000.98 
144 1 1 0.219962 0.0267448 0 0 0 0 0.178667 -0.0162523 0 -0.0649096 0.0208539 0 0.178667 -0.0162523 0 430.731 430.731 1001.02 
145 1 1 0.212123 0.0184713 0 0 0 0 0.128472 -0.0173989 0 -0.0230301 0.0217039 0 0.128472 -0.0173989 0 480.314 480.314 1001.14 
146 1 1 0.229291 0.0347416 0 0 0 0 0.210654 0.0126806 0 0.0122582 -0.0674139 0 0.210654 0.0126806 0 357.548 357.548 1000.85 
147 1 1 0.221598 0.0163821 0 0 0 0 0.137856 -0.0214572 0 -0.0749839 -0.0635505 0 0.137856 -0.0214572 0 500.529 500.529 1001.19 
148 1 1 0.229487 0.023698 0 0 0 0 0.146379 -0.0111368 0 -0.0138878 0.0178187 0 0.146379 -0.0111368 0 445.78 445.78 1001.06 
149 1 1 0.248554 0.0256433 0 0 0 0 0.1904 0.00298641 0 -0.0349613 0.021222 0 0.1904 0.00298641 0 430.903 430.903 1001.02 
150 1 1 0.262038 0.0379127 0 0 0 0 0.204434 -0.0209829 0 -0.048756 -0.0780146 0 0.204434 -0.0209829 0 338.321 338.321 1000.8 
151 1 1 0.254954 0.0181189 0 0 0 0 0.147656 -0.0190166 0 -0.0468863 -0.0326924 0 0.147656 -0.0190166 0 482.283 482.283 1001.14 
152 1 1 0.260719 0.0259507 0 0 0 0 0.210701 -0.0310818 0 -0.0563684 0.0881185 0 0.210701 -0.0310818 0 434.608 434.608 1001.03 
153 1 1 0.265954 0.0174677 0 0 0 0 0.193556 0.00735771 0 -0.0479821 -0.0402001 0 0.193556 0.00735771 0 500.084 500.084 1001.19 
154 1 1 0.285507 0.0149709 0 0 0 0 0.155734 0.00886223 0 0.0383534 0.101577 0 0.155734 0.00886223 0 534.183 534.183 1001.27 
155 1 1 0.303631 0.0215603 0 0 0 0 0.170418 0.0284848 0 -0.0281209 -0.0593883 0 0.170418 0.0284848 0 467.508 467.508 1001.11 
156 1 1 0.29306 0.0187933 0 0 0 0 0.145642 -0.0431314 0 0.00362861 0.00335607 0 0.145642 -0.0431314 0 493.225 493.225 1001.17 
157 1 1 0.310247 0.017061 0 0 0 0 0.162572 -0.0261126 0 0.00727147 -0.0730289 0 0.162572 -0.0261126 0 501.992 501.992 1001.19 
158 1 1 0.313 0.0288171 0 0 0 0 0.1868 -0.0228115 0 0.0231511 0.060486 0 0.1868 -0.0228115 0 401.419 401.419 1000.95 
159 1 1 0.329047 0.0261864 0 0 0 0 0.169723 0.0304725 0 0.0399654 -0.0315544 0 0.169723 0.0304725 0 433.039 433.039 1001.03 
160 1 1 0.328689 0.016233 0 0 0 0 0.16226 -0.00463366 0 0.0780677 0.0160372 0 0.16226 -0.00463366 0 505.834 505.834 1001.2 
161 1 1 0.336996 0.0123611 0 0 0 0 0.132207 -0.00382661 0 -0.0129084 -0.0126994 0 0.132207 -0.00382661 0 534.916 534.916 1001.27 
162 1 1 0.349287 0.0265037 0 0 0 0 0.134095 0.00635144 0 0.0460824 0.0202894 0 0.134095 0.00635144 0 409.579 409.579 1000.97 
163 1 1 0.35645 0.0174976 0 0 0 0 0.119079 0.0116782 0 0.0416808 -0.0208632 0 0.119079 0.0116782 0 468.774 468.774 1001.11 
164 1 1 0.375263 0.0259131 0 0 0 0 0.10996 0.0499981 0 0.0847475 0.0389427 0 0.10996 0.0499981 0 420.762 420.762 1001 
165 1 1 0.392727 0.00660246 0 0 0 0 0.0393179 -0.00872695 0 0.0234411 -0.0403448 0 0.0393179 -0.00872695 0 502.322 502.322 1001.19 
166 1 1 0.37771 0.0161957 0 0 0 0 0.100462 0.0173868 0 0.00790564 0.0218437 0 0.100462 0.0173868 0 472.043 472.043 1001.12 
167 1 1 0.396024 0.0245437 0 0 0 0 0.0704718 0.0514237 0 0.0271637 0.0784158 0 0.0704718 0.0514237 0 405.037 405.037 1000.96 
168 1 1 0.412106 0.0183604 0 0 0 0 0.019678 -0.0216667 0 0.00506438 -0.0186338 0 0.019678 -0.0216667 0 437.261 437.261 1001.04 
169 1 1 0.402385 0.0360557 0 0 0 0 0.0897806 0.0464255 0 0.0258149 -0.00567138 0 0.0897806 0.0464255 0 308.38 308.38 1000.73 
170 1 1 0.400769 0.0164199 0 0 0 0 0.0444521 0.0231686 0 0.00850183 0.00805941 0 0.0444521 0.0231686 0 453.312 453.312 1001.08 
171 1 1 0.406242 0.0265621 0 0 0 0 0.0639126 0.0409314 0 0.00895111 -0.0232848 0 0.0639126 0.0409314 0 370.577 370.577 1000.88 
172 1 1 0.428719 0.0157446 0 0 0 0 0.0229973 0.0144493 0 0.0248508 0.0045419 0 0.0229973 0.0144493 0 454.455 454.455 1001.08 
173 1 1 0.440704 0.0190365 0 0 0 0 0.0187559 0.00387796 0 -0.0465949 -0.00463156 0 0.0187559 0.00387796 0 447.386 447.386 1001.06 
174 1 1 0.466883 0.0158087 0 0 0 0 0.0315688 -0.00636655 0 -0.0136493 0.0032149 0 0.0315688 -0.00636655 0 459.935 459.935 1001.09 
175 1 1 0.464341 0.0269569 0 0 0 0 0.0214545 -0.00756882 0 -0.00173661 0.0212896 0 0.0214545 -0.00756882 0 385.994 385.994 1000.92 
176 1 1 0.474858 0.0146388 0 0 0 0 0.00763885 0.0230423 0 -0.00746539 0.0288894 0 0.00763885 0.0230423 0 457.432 457.432 1001.09 
177 1 1 0.485406 0.0145086 0 0 0 0 -0.00361883 -0.00576522 0 -0.0214188 -0.00614424 0 -0.00361883 -0.00576522 0 463.364 463.364 1001.1 
178 1 1 0.491546 0.0200415 0 0 0 0 -0.0021605 -0.00832744 0 0.00428354 -0.0536359 0 -0.0021605 -0.00832744 0 430.284 430.284 1001.02 
179 1 1 0.179949 0.0482618 0 0 0 0 0.154934 -0.0329831 0 0.0256155 -0.0248391 0 0.154934 -0.0329831 0 234 234 1000.56 
180 1 1 0.196866 0.0347229 0 0 0 0 0.15741 -0.00285436 0 0.00432342 -0.0794949 0 0.15741 -0.00285436 0 337.51 337.51 1000.8 
181 1 1 0.198569 0.0447681 0 0 0 0 0.190986 -0.00166069 0 -0.0372483 -0.0309654 0 0.190986 -0.00166069 0 247.546 247.546 1000.59 
182 1 1 0.207424 0.0382461 0 0 0 0 0.159436 -0.0266243 0 -0.057288 0.0697736 0 0.159436 -0.0266243 0 335.476 335.476 1000.8 
183 1 1 0.223771 0.0525466 0 0 0 0 0.192898 -0.0629895 0 -0.0122677 0.0731878 0 0.192898 -0.0629895 0 262.631 262.631 1000.62 
184 1 1 0.21105 0.0482062 0 0 0 0 0.209332 -0.0301532 0 0.0579357 -0.0428683 0 0.209332 -0.0301532 0 255.073 255.073 1000.61 
185 1 1 0.217433 0.0354616 0 0 0 0 0.13435 -0.0576537 0 -0.0229817 0.0309066 0 0.13435 -0.0576537 0 365.647 365.647 1000.87 
186 1 1 0.238659 0.0287673 0 0 0 0 0.153054 -0.0373697 0 -0.077983 -0.0531534 0 0.153054 -0.0373697 0 421.49 421.49 1001 
187 1 1 0.252353 0.0341843 0 0 0 0 0.209498 -0.0198204 0 -0.019848 -0.0549927 0 0.209498 -0.0198204 0 373.975 373.975 1000.89 
188 1 1 0.25339 0.0443889 0 0 0 0 0.225035 -0.00572543 0 -0.0543914 -0.000799673 0 0.225035 -0.00572543 0 282.101 282.101 1000.67 
189 1 1 0.271343 0.0414053 0 0 0 0 0.200201 -0.0487321 0 0.0354854 0.0516036 0 0.200201 -0.0487321 0 321.063 321.063 1000.76 
190 1 1 0.277203 0.022837 0 0 0 0 0.2508 0.00513023 0 -0.00147281 0.0435979 0 0.2508 0.00513023 0 430.102 430.102 1001.02 
191 1 1 0.279914 0.0466335 0 0 0 0 0.213927 -0.000772135 0 -0.0476018 -0.171077 0 0.213927 -0.000772135 0 286.843 286.843 1000.68 
192 1 1 0.278739 0.0337807 0 0 0 0 0.22519 0.0344755 0 -0.0345759 -0.0165326 0 0.22519 0.0344755 0 364.749 364.749 1000.87 
193 1 1 0.303009 0.0318186 0 0 0 0 0.196119 0.0116796 0 0.096906 0.0421159 0 0.196119 0.0116796 0 402.697 402.697 1000.96 
194 1 1 0.292304 0.0471997 0 0 0 0 0.241285 0.0590782 0 0.0557541 0.0679445 0 0.241285 0.0590782 0 289.668 289.668 1000.69 
195 1 1 0.309134 0.0414729 0 0 0 0 0.214067 0.0309881 0 0.0651831 -0.134065 0 0.214067 0.0309881 0 340.225 340.225 1000.81 
196 1 1 0.320619 0.0320098 0 0 0 0 0.188508 0.0271958 0 -0.0285683 -0.11862 0 0.188508 0.0271958 0 369.601 369.601 1000.88 
197 1 1 0.329084 0.0387542 0 0 0 0 0.200212 0.0592107 0 0.121535 0.0432607 0 0.200212 0.0592107 0 342.878 342.878 1000.81 
198 1 1 0.336502 0.0305603 0 0 0 0 0.167946 0.0303983 0 0.0914808 0.0054411 0 0.167946 0.0303983 0 397.709 397.709 1000.94 
199 1 1 0.34455 0.0355841 0 0 0 0 0.167267 0.0662067 0 0.0935648 -0.0141419 0 0.167267 0.0662067 0 348.944 348.944 1000.83 
200 1 1 0.340411 0.0206622 0 0 0 0 0.129928 0.0270063 0 0.0417808 0.00823058 0 0.129928 0.0270063 0 470.203 470.203 1001.12 
201 1 1 0.366269 0.0221852 0 0 0 0 0.156532 0.0124715 0 0.091011 -0.0166584 0 0.156532 0.0124715 0 428.76 428.76 1001.02 
202 1 1 0.354017 0.0381812 0 0 0 0 0.156469 0.0187559 0 0.0669018 -0.00957637 0 0.156469 0.0187559 0 338.117 338.117 1000.8 
203 1 1 0.368978 0.0339791 0 0 0 0 0.107594 0.0292713 0 -0.0057706 -0.0184861 0 0.107594 0.0292713 0 352.5 352.5 1000.84 
204 1 1 0.375292 0.0405969 0 0 0 0 0.103633 0.081057 0 0.0528362 0.0256211 0 0.103633 0.081057 0 282.799 282.799 1000.67 
205 1 1 0.389294 0.0168139 0 0 0 0 0.0842357 0.0276863 0 0.0291169 -0.0694327 0 0.0842357 0.0276863 0 443.526 443.526 1001.05 
206 1 1 0.385029 0.0250412 0 0 0 0 0.0907387 0.0523304 0 0.0832606 0.00950203 0 0.0907387 0.0523304 0 404.255 404.255 1000.96 
207 1 1 0.422742 0.0380873 0 0 0 0 0.0581205 0.0226781 0 -0.0043676 -0.0128129 0 0.0581205 0.0226781 0 307.785 307.785 1000.73 
208 1 1 0.432517 0.0244184 0 0 0 0 0.0484229 0.0230792 0 -0.0482918 0.0794191 0 0.0484229 0.0230792 0 407.413 407.413 1000.97 
209 1 1 0.414263 0.0308729 0 0 0 0 0.0623732 0.00690398 0 0.0232076 -0.00827623 0 0.0623732 0.00690398 0 350.48 350.48 1000.83 
210 1 1 0.441266 0.0315346 0 0 0 0 0.0444787 0.0121383 0 0.00992123 0.0137174 0 0.0444787 0.0121383 0 345.244 345.244 1000.82 
211 1 1 0.422566 0.0261661 0 0 0 0 0.0183408 -0.00482477 0 0.00812145 0.0428504 0 0.0183408 -0.00482477 0 397.098 397.098 1000.94 
212 1 1 0.449236 0.0283591 0 0 0 0 0.0448444 -0.00679143 0 -0.0351447 -0.0169171 0 0.0448444 -0.00679143 0 362.831 362.831 1000.86 
213 1 1 0.456734 0.0209051 0 0 0 0 0.0357246 -0.00288357 0 -0.0344335 -0.029904 0 0.0357246 -0.00288357 0 427.172 427.172 1001.01 
214 1 1 0.47036 0.0373014 0 0 0 0 0.0253101 0.0162003 0 -0.0529985 -0.00655315 0 0.0253101 0.0162003 0 307.049 307.049 1000.73 
215 1 1 0.482274 0.0250943 0 0 0 0 0.0205837 -0.000256887 0 0.0262101 -0.018414 0 0.0205837 -0.000256887 0 382.077 382.077 1000.91 
216 1 1 0.473677 0.0257524 0 0 0 0 0.0173865 0.0398794 0 -0.038626 -0.0226321 0 0.0173865 0.0398794 0 380.306 380.306 1000.9 
217 1 1 0.489478 0.0321223 0 0 0 0 0.0190368 0.0215474 0 0.0248727 0.0104066 0 0.0190368 0.0215474 0 338.514 338.514 1000.8 
218 1 1 0.195883 0.0535642 0 0 0 0 0.168636 -0.0316145 0 -0.0714972 0.0282982 0 0.168636 -0.0316145 0 237.645 237.645 1000.56 
219 1 1 0.147855 0.0482486 0 0 0 0 0.124296 -0.0705108 0 -0.0676961 0.0667809 0 0.124296 -0.0705108 0 244.979 244.979 1000.58 
220 1 1 0.171458 0.049787 0 0 0 0 0.149189 -0.0423129 0 -0.0644929 0.00164528 0 0.149189 -0.0423129 0 209.526 209.526 1000.5 
221 1 1 0.207988 0.055921 0 0 0 0 0.21054 -0.0455539 0 -0.050675 -0.0422718 0 0.21054 -0.0455539 0 187.763 187.763 1000.45 
222 1 1 0.187937 0.0421667 0 0 0 0 0.166879 -0.040472 0 -0.0212438 0.096388 0 0.166879 -0.040472 0 270.149 270.149 1000.64 
223 1 1 0.234502 0.0447915 0 0 0 0 0.212022 -0.00862872 0 -0.0834357 -0.0114918 0 0.212022 -0.00862872 0 304.984 304.984 1000.72 
224 1 1 0.241733 0.0370049 0 0 0 0 0.222792 -0.0544382 0 -0.0467932 0.038058 0 0.222792 -0.0544382 0 364.944 364.944 1000.87 
225 1 1 0.245021 0.0481742 0 0 0 0 0.194898 -0.0588943 0 -0.0115391 -0.0546262 0 0.194898 -0.0588943 0 253.332 253.332 1000.6 
226 1 1 0.257879 0.0558956 0 0 0 0 0.218974 -0.0308348 0 -0.0778972 -0.0206932 0 0.218974 -0.0308348 0 248.641 248.641 1000.59 
227 1 1 0.269 0.029962 0 0 0 0 0.20575 -0.0304743 0 0.000716263 -0.115134 0 0.20575 -0.0304743 0 391.996 391.996 1000.93 
228 1 1 0.264538 0.0491508 0 0 0 0 0.231157 -0.0139246 0 0.0280766 -0.0625469 0 0.231157 -0.0139246 0 229.603 229.603 1000.55 
229 1 1 0.277253 0.0556452 0 0 0 0 0.257665 -0.00382332 0 -0.0762972 -0.0314235 0 0.257665 -0.00382332 0 247.918 247.918 1000.59 
230 1 1 0.287806 0.0397311 0 0 0 0 0.21622 0.00672118 0 0.0706006 -0.112901 0 0.21622 0.00672118 0 318.756 318.756 1000.76 
231 1 1 0.294521 0.0301131 0 0 0 0 0.23053 0.00928368 0 0.0334599 0.0585726 0 0.23053 0.00928368 0 423.061 423.061 1001 
232 1 1 0.300392 0.0431274 0 0 0 0 0.215514 0.0389581 0 -0.073964 -0.0618238 0 0.215514 0.0389581 0 337.211 337.211 1000.8 
233 1 1 0.318504 0.0422256 0 0 0 0 0.197975 0.0227821 0 0.208038 0.0883214 0 0.197975 0.0227821 0 355.218 355.218 1000.84 