ITEM: TIMESTEP
201000
ITEM: NUMBER OF ATOMS
754
ITEM: BOX BOUNDS ff ff pp
-0.021 0.521
-0.021 0.5
-0.001 0.001
ITEM: ATOMS id type type x y z ix iy iz vx vy vz fx fy fz vx vy vz p p rho 
1 1 1 0.005854 0.00102171 0 0 0 0 -0.00168175 -0.0120052 0 0.000511828 -0.0291956 0 -0.00168175 -0.0120052 0 462.049 462.049 1001.1 
2 1 1 0.0289572 0.00520774 0 0 0 0 -0.00673793 0.00146383 0 0.0042199 0.0114302 0 -0.00673793 0.00146383 0 419.824 419.824 1001 
3 1 1 0.064668 0.00449445 0 0 0 0 0.003446 -0.00671711 0 -0.00955647 -0.00570164 0 0.003446 -0.00671711 0 438.996 438.996 1001.04 
4 1 1 0.0797002 0.00589096 0 0 0 0 -0.00533834 0.00194348 0 -0.0276414 -0.00784738 0 -0.00533834 0.00194348 0 428.074 428.074 1001.02 
5 1 1 0.0951342 0.0046213 0 0 0 0 -0.0155918 0.00025841 0 0.00747399 -0.0133849 0 -0.0155918 0.00025841 0 452.679 452.679 1001.07 
6 1 1 0.11028 0.00619387 0 0 0 0 -0.0301872 0.0019635 0 -0.034163 -0.00775263 0 -0.0301872 0.0019635 0 445.838 445.838 1001.06 
7 1 1 0.151098 0.00597075 0 0 0 0 -0.0491467 0.00293691 0 0.0127776 0.0233724 0 -0.0491467 0.00293691 0 457.548 457.548 1001.09 
8 1 1 0.13045 0.0135917 0 0 0 0 -0.0193879 -0.00272265 0 -0.00211972 -0.0350667 0 -0.0193879 -0.00272265 0 418.916 418.916 1000.99 
9 1 1 0.183564 0.00504111 0 0 0 0 -0.072001 -0.00178906 0 -0.018182 0.0486956 0 -0.072001 -0.00178906 0 481.026 481.026 1001.14 
10 1 1 0.197595 0.00576678 0 0 0 0 -0.0518335 -0.0184872 0 -0.0316679 -0.0404707 0 -0.0518335 -0.0184872 0 490.499 490.499 1001.16 
11 1 1 0.0336534 0.0152817 0 0 0 0 0.00337714 0.00546809 0 -0.0264745 -0.0159294 0 0.00337714 0.00546809 0 375.578 375.578 1000.89 
12 1 1 0.0508884 0.00650236 0 0 0 0 -0.0115247 -0.00300508 0 0.00949513 -0.0189379 0 -0.0115247 -0.00300508 0 418.239 418.239 1000.99 
13 1 1 0.0723303 0.0127975 0 0 0 0 0.00130148 0.00833944 0 -0.0395531 0.0172975 0 0.00130148 0.00833944 0 400.942 400.942 1000.95 
14 1 1 0.0864414 0.0123442 0 0 0 0 -0.00727177 0.00934173 0 -0.0131751 -0.0186527 0 -0.00727177 0.00934173 0 399.817 399.817 1000.95 
15 1 1 0.105666 0.0133104 0 0 0 0 -0.0106733 0.0163202 0 -0.0527197 0.0115957 0 -0.0106733 0.0163202 0 411.044 411.044 1000.98 
16 1 1 0.138258 0.0059857 0 0 0 0 -0.0359825 0.00107027 0 -0.0348618 -0.00113074 0 -0.0359825 0.00107027 0 459.427 459.427 1001.09 
17 1 1 0.153674 0.020004 0 0 0 0 -0.0191911 0.00279417 0 -0.0226407 0.0147568 0 -0.0191911 0.00279417 0 401.368 401.368 1000.95 
18 1 1 0.165315 0.00517855 0 0 0 0 -0.0376512 -0.0125959 0 -0.0205871 -0.0074524 0 -0.0376512 -0.0125959 0 474.602 474.602 1001.13 
19 1 1 0.193559 0.014654 0 0 0 0 -0.0550999 0.00170928 0 0.0105223 0.00645305 0 -0.0550999 0.00170928 0 444.22 444.22 1001.05 
20 1 1 0.186921 0.0164935 0 0 0 0 -0.038085 -0.01808 0 -0.0620241 -0.0503568 0 -0.038085 -0.01808 0 432.214 432.214 1001.03 
21 1 1 0.0321602 0.0268048 0 0 0 0 -0.0124471 0.0302101 0 0.00478959 0.0275685 0 -0.0124471 0.0302101 0 302.107 302.107 1000.72 
22 1 1 0.0405701 0.00751846 0 0 0 0 -0.0121937 0.000674373 0 -0.000402269 0.0150203 0 -0.0121937 0.000674373 0 408.177 408.177 1000.97 
23 1 1 0.0593863 0.0142134 0 0 0 0 -0.0141665 -0.0124825 0 -0.0198473 -0.00378552 0 -0.0141665 -0.0124825 0 388.899 388.899 1000.92 
24 1 1 0.0854019 0.0291313 0 0 0 0 -0.0323638 0.00640447 0 -0.0357189 -0.0327355 0 -0.0323638 0.00640447 0 281.928 281.928 1000.67 
25 1 1 0.0741113 0.0270556 0 0 0 0 -0.030308 -0.00824824 0 -0.0490362 -0.0223635 0 -0.030308 -0.00824824 0 309.486 309.486 1000.74 
26 1 1 0.123994 0.00505839 0 0 0 0 -0.0354682 0.00134999 0 -0.00611046 -0.00331128 0 -0.0354682 0.00134999 0 456.906 456.906 1001.08 
27 1 1 0.124151 0.0200221 0 0 0 0 -0.00529924 0.0177291 0 -0.0159024 -0.02236 0 -0.00529924 0.0177291 0 369.304 369.304 1000.88 
28 1 1 0.166923 0.0185996 0 0 0 0 -0.0682609 0.0260504 0 -0.0781931 -0.0171521 0 -0.0682609 0.0260504 0 407.116 407.116 1000.97 
29 1 1 0.173983 0.0108484 0 0 0 0 -0.0649816 0.0326528 0 -0.0280223 -0.0125163 0 -0.0649816 0.0326528 0 450.199 450.199 1001.07 
30 1 1 0.197129 0.0244494 0 0 0 0 -0.0687275 0.00858179 0 -0.0579978 -0.0311733 0 -0.0687275 0.00858179 0 379.586 379.586 1000.9 
31 1 1 0.0193489 0.00917971 0 0 0 0 0.00324481 0.00730352 0 -0.00728879 -0.00126134 0 0.00324481 0.00730352 0 412.867 412.867 1000.98 
32 1 1 0.0411323 0.0186599 0 0 0 0 -0.0247416 0.0263406 0 -0.0120572 -0.0142379 0 -0.0247416 0.0263406 0 354.791 354.791 1000.84 
33 1 1 0.0651335 0.0325555 0 0 0 0 -0.00804449 -0.00509693 0 -0.0406497 -0.02818 0 -0.00804449 -0.00509693 0 267.497 267.497 1000.64 
34 1 1 0.0911575 0.0200738 0 0 0 0 0.00566109 0.0198291 0 -0.0190241 -0.0289613 0 0.00566109 0.0198291 0 350.905 350.905 1000.83 
35 1 1 0.133667 0.0264586 0 0 0 0 -0.0283071 0.0158084 0 -0.0714441 -0.00912396 0 -0.0283071 0.0158084 0 341.306 341.306 1000.81 
36 1 1 0.138042 0.0176971 0 0 0 0 -0.0206249 0.00813321 0 0.0110683 0.0180134 0 -0.0206249 0.00813321 0 405.106 405.106 1000.96 
37 1 1 0.146344 0.014456 0 0 0 0 -0.0280434 0.0126447 0 -0.0726207 -0.0155446 0 -0.0280434 0.0126447 0 426.677 426.677 1001.01 
38 1 1 0.178548 0.0175946 0 0 0 0 -0.0542404 -0.0148356 0 -0.0490938 0.00647255 0 -0.0542404 -0.0148356 0 421.094 421.094 1001 
39 1 1 0.194845 0.0344899 0 0 0 0 -0.0450157 0.00233286 0 -0.0964389 -0.0247204 0 -0.0450157 0.00233286 0 316.601 316.601 1000.75 
40 1 1 0.154725 0.0330001 0 0 0 0 -0.0206849 0.0006288 0 -0.0486236 -0.0310809 0 -0.0206849 0.0006288 0 316.13 316.13 1000.75 
41 1 1 0.0131705 0.0129145 0 0 0 0 0.0121008 -0.00180432 0 -0.0334548 0.00395127 0 0.0121008 -0.00180432 0 399.517 399.517 1000.95 
42 1 1 0.0331152 0.0401791 0 0 0 0 -0.00794274 -0.00149668 0 -0.010946 0.0350495 0 -0.00794274 -0.00149668 0 220.271 220.271 1000.52 
43 1 1 0.0508552 0.0159679 0 0 0 0 -0.0218702 -0.00918765 0 -0.0243455 0.0258259 0 -0.0218702 -0.00918765 0 372.975 372.975 1000.89 
44 1 1 0.0780366 0.0361908 0 0 0 0 -0.0236588 0.00137424 0 -0.0440941 0.00304301 0 -0.0236588 0.00137424 0 240.488 240.488 1000.57 
45 1 1 0.0979796 0.0154847 0 0 0 0 -0.0131166 -0.0118064 0 -0.0169668 -0.0378004 0 -0.0131166 -0.0118064 0 392.598 392.598 1000.93 
46 1 1 0.121415 0.0296233 0 0 0 0 -0.0271142 0.00788437 0 -0.0812282 -0.0208077 0 -0.0271142 0.00788437 0 305.712 305.712 1000.73 
47 1 1 0.159483 0.0135304 0 0 0 0 -0.0394792 -0.00526862 0 -0.0809299 -0.01783 0 -0.0394792 -0.00526862 0 437.586 437.586 1001.04 
48 1 1 0.185984 0.0272954 0 0 0 0 -0.0651589 0.00400072 0 -0.039093 -0.0406645 0 -0.0651589 0.00400072 0 363.481 363.481 1000.86 
49 1 1 0.182679 0.0350826 0 0 0 0 -0.0538657 0.00456724 0 0.00260876 0.0476887 0 -0.0538657 0.00456724 0 317.875 317.875 1000.76 
50 1 1 0.167935 0.0520378 0 0 0 0 -0.0152889 0.0384353 0 -0.0427966 0.0205247 0 -0.0152889 0.0384353 0 226.666 226.666 1000.54 
51 1 1 0.0252605 0.017909 0 0 0 0 0.0137046 0.00950695 0 0.00154232 -0.0275843 0 0.0137046 0.00950695 0 361.617 361.617 1000.86 
52 1 1 0.0485495 0.0259304 0 0 0 0 0.000248467 -0.0115343 0 -0.0319315 -0.00182211 0 0.000248467 -0.0115343 0 311.225 311.225 1000.74 
53 1 1 0.0665578 0.0189929 0 0 0 0 -0.0136958 -0.0182712 0 0.00145461 -0.00286681 0 -0.0136958 -0.0182712 0 367.142 367.142 1000.87 
54 1 1 0.0954338 0.0301568 0 0 0 0 -0.0246203 0.00940267 0 -0.0580465 -0.00261245 0 -0.0246203 0.00940267 0 278.026 278.026 1000.66 
55 1 1 0.102232 0.0376907 0 0 0 0 -0.0190829 0.00412303 0 -0.0440945 0.090175 0 -0.0190829 0.00412303 0 244.942 244.942 1000.58 
56 1 1 0.11139 0.0328163 0 0 0 0 -0.00403326 -0.0143438 0 -0.0570424 -0.0240584 0 -0.00403326 -0.0143438 0 276.185 276.185 1000.66 
57 1 1 0.146166 0.0264922 0 0 0 0 -0.0277614 0.00536648 0 -0.0653098 0.00141308 0 -0.0277614 0.00536648 0 354.48 354.48 1000.84 
58 1 1 0.139362 0.0340114 0 0 0 0 -0.00786434 0.00596369 0 -0.0544261 -0.0446657 0 -0.00786434 0.00596369 0 292.723 292.723 1000.7 
59 1 1 0.172962 0.0362931 0 0 0 0 -0.0461755 0.0516457 0 -0.0587826 0.0497512 0 -0.0461755 0.0516457 0 304.894 304.894 1000.72 
60 1 1 0.178271 0.0475356 0 0 0 0 -0.0273222 0.0401087 0 -0.113386 -0.0644354 0 -0.0273222 0.0401087 0 263.354 263.354 1000.63 
61 1 1 0.0587376 0.0262296 0 0 0 0 -0.0111972 -0.0106485 0 0.00433878 -0.0106267 0 -0.0111972 -0.0106485 0 313.275 313.275 1000.74 
62 1 1 0.00811447 0.0183595 0 0 0 0 -0.000458942 -0.0214205 0 0.0160467 0.00830757 0 -0.000458942 -0.0214205 0 364.4 364.4 1000.87 
63 1 1 0.0796115 0.019238 0 0 0 0 0.00580291 0.0012578 0 -0.0565065 -0.0134641 0 0.00580291 0.0012578 0 360.309 360.309 1000.86 
64 1 1 0.0436059 0.0426524 0 0 0 0 0.000953695 0.00473878 0 0.0343352 0.0374997 0 0.000953695 0.00473878 0 211.12 211.12 1000.5 
65 1 1 0.0900037 0.0398013 0 0 0 0 -0.0218869 0.014572 0 -0.0221124 0.057005 0 -0.0218869 0.014572 0 233.239 233.239 1000.55 
66 1 1 0.117973 0.0141691 0 0 0 0 -0.00462871 -0.003266 0 -0.0567698 -0.0579288 0 -0.00462871 -0.003266 0 402.182 402.182 1000.95 
67 1 1 0.127868 0.0358083 0 0 0 0 -0.0165778 0.0143919 0 -0.0490249 0.00435717 0 -0.0165778 0.0143919 0 271.068 271.068 1000.64 
68 1 1 0.162262 0.0274916 0 0 0 0 -0.00263398 0.0330029 0 -0.015828 0.0255359 0 -0.00263398 0.0330029 0 353.703 353.703 1000.84 
69 1 1 0.173514 0.0265409 0 0 0 0 -0.00997183 0.0147031 0 -0.0159052 -0.0506862 0 -0.00997183 0.0147031 0 355.661 355.661 1000.84 
70 1 1 0.18709 0.0564382 0 0 0 0 -0.0640528 0.0236243 0 -0.0482708 -0.035028 0 -0.0640528 0.0236243 0 233.426 233.426 1000.55 
71 1 1 0.0103778 0.0293777 0 0 0 0 0.00837405 -0.0280695 0 0.038077 0.0177636 0 0.00837405 -0.0280695 0 290.04 290.04 1000.69 
72 1 1 0.0390127 0.0534839 0 0 0 0 0.00757395 0.011434 0 0.010316 0.0124563 0 0.00757395 0.011434 0 169.798 169.798 1000.4 
73 1 1 0.0237093 0.0328824 0 0 0 0 -0.0146994 0.0310798 0 -0.0332719 -0.0446798 0 -0.0146994 0.0310798 0 263.488 263.488 1000.63 
74 1 1 0.0521366 0.0356378 0 0 0 0 0.00412818 0.00323981 0 -0.019852 -0.0039356 0 0.00412818 0.00323981 0 247.579 247.579 1000.59 
75 1 1 0.0800996 0.0461235 0 0 0 0 -0.0326775 0.00343577 0 -0.0449269 0.0481357 0 -0.0326775 0.00343577 0 204.886 204.886 1000.49 
76 1 1 0.112447 0.0215899 0 0 0 0 -0.0201218 -0.0155883 0 -0.0253731 0.00677941 0 -0.0201218 -0.0155883 0 353.558 353.558 1000.84 
77 1 1 0.103757 0.0254996 0 0 0 0 -0.0203452 0.0242477 0 -0.0264766 -0.0297114 0 -0.0203452 0.0242477 0 317.124 317.124 1000.75 
78 1 1 0.157363 0.0471521 0 0 0 0 -0.0227901 0.0326114 0 -0.0625394 -0.0132821 0 -0.0227901 0.0326114 0 239.938 239.938 1000.57 
79 1 1 0.147931 0.0400767 0 0 0 0 -0.0207233 0.0102424 0 -0.021965 0.0255213 0 -0.0207233 0.0102424 0 258.785 258.785 1000.62 
80 1 1 0.157468 0.0623426 0 0 0 0 -0.0313717 0.0347004 0 -0.0459128 0.00211206 0 -0.0313717 0.0347004 0 166.657 166.657 1000.4 
81 1 1 0.0193659 0.02441 0 0 0 0 0.0102719 0.00606529 0 -0.0400063 -0.0357383 0 0.0102719 0.00606529 0 322.6 322.6 1000.77 
82 1 1 0.0122086 0.0381342 0 0 0 0 -0.0209864 -0.0112723 0 -0.0236509 -0.004014 0 -0.0209864 -0.0112723 0 231.937 231.937 1000.55 
83 1 1 0.0400085 0.0313289 0 0 0 0 0.0069112 0.0168344 0 -0.0211143 -0.0102633 0 0.0069112 0.0168344 0 273.536 273.536 1000.65 
84 1 1 0.0230999 0.043443 0 0 0 0 -0.0225613 0.0212235 0 0.045124 -0.0247584 0 -0.0225613 0.0212235 0 196.181 196.181 1000.47 
85 1 1 0.0676228 0.0418398 0 0 0 0 -0.0303506 0.00534274 0 0.0266057 0.0462731 0 -0.0303506 0.00534274 0 204.613 204.613 1000.49 
86 1 1 0.110264 0.0469405 0 0 0 0 -0.0242342 0.00516731 0 -0.0772379 -0.0312136 0 -0.0242342 0.00516731 0 200.956 200.956 1000.48 
87 1 1 0.117743 0.0416715 0 0 0 0 -0.0268193 0.018668 0 -0.00113838 0.00113149 0 -0.0268193 0.018668 0 229.797 229.797 1000.55 
88 1 1 0.128391 0.0476119 0 0 0 0 -0.0314743 -0.000853869 0 -0.0711697 0.000632638 0 -0.0314743 -0.000853869 0 203.967 203.967 1000.48 
89 1 1 0.137694 0.0451841 0 0 0 0 -0.0215879 0.0122277 0 -0.0647133 0.0376606 0 -0.0215879 0.0122277 0 219.898 219.898 1000.52 
90 1 1 0.147629 0.0530936 0 0 0 0 -0.0195078 0.0122018 0 -0.114485 0.0134581 0 -0.0195078 0.0122018 0 212.511 212.511 1000.51 
91 1 1 0.0533393 0.0555846 0 0 0 0 0.00909281 0.02186 0 -0.0033053 0.0499178 0 0.00909281 0.02186 0 172.969 172.969 1000.41 
92 1 1 0.025854 0.0554588 0 0 0 0 0.0246999 0.0132167 0 -0.047092 0.0296062 0 0.0246999 0.0132167 0 157.1 157.1 1000.37 
93 1 1 0.0131815 0.0496977 0 0 0 0 0.0063059 0.00833173 0 0.00786791 0.0767505 0 0.0063059 0.00833173 0 169.221 169.221 1000.4 
94 1 1 0.0687942 0.0541122 0 0 0 0 0.000601849 0.0243026 0 -0.0189842 0.0835718 0 0.000601849 0.0243026 0 167.995 167.995 1000.4 
95 1 1 0.08534 0.0575446 0 0 0 0 -0.0350367 0.0160062 0 -0.000858732 0.0471463 0 -0.0350367 0.0160062 0 190.458 190.458 1000.45 
96 1 1 0.105379 0.0584504 0 0 0 0 -0.0539614 0.0101446 0 -0.0282618 0.0404791 0 -0.0539614 0.0101446 0 155.782 155.782 1000.37 
97 1 1 0.0569958 0.0441461 0 0 0 0 -0.0190381 0.0164177 0 -0.0271712 0.0202483 0 -0.0190381 0.0164177 0 200.738 200.738 1000.48 
98 1 1 0.0967362 0.0488841 0 0 0 0 -0.0316894 -0.00283976 0 -0.0884854 0.00481689 0 -0.0316894 -0.00283976 0 223.922 223.922 1000.53 
99 1 1 0.121354 0.0567096 0 0 0 0 -0.047149 0.00592432 0 -0.11708 0.0646607 0 -0.047149 0.00592432 0 155.376 155.376 1000.37 
100 1 1 0.136948 0.0605917 0 0 0 0 -0.0247129 0.000560806 0 -0.0869694 0.0191374 0 -0.0247129 0.000560806 0 183.85 183.85 1000.44 
101 1 1 0.204258 0.0136239 0 0 0 0 -0.0579103 -0.0108771 0 0.00784214 -0.0121075 0 -0.0579103 -0.0108771 0 455.144 455.144 1001.08 
102 1 1 0.215903 0.0163126 0 0 0 0 -0.0814241 0.000584123 0 -0.0541043 -0.013043 0 -0.0814241 0.000584123 0 442.437 442.437 1001.05 
103 1 1 0.222664 0.0264632 0 0 0 0 -0.10466 0.0080156 0 -0.0323827 -0.00570374 0 -0.10466 0.0080156 0 385.425 385.425 1000.92 
104 1 1 0.21192 0.00537932 0 0 0 0 -0.0300839 0.000212644 0 -0.0552696 0.0300209 0 -0.0300839 0.000212644 0 485.143 485.143 1001.15 
105 1 1 0.222237 0.00884027 0 0 0 0 -0.0417723 0.00709204 0 -0.0211206 -0.0186937 0 -0.0417723 0.00709204 0 479.343 479.343 1001.14 
106 1 1 0.233398 0.00478664 0 0 0 0 -0.0464064 0.00185476 0 -0.0365895 -0.00619558 0 -0.0464064 0.00185476 0 508.193 508.193 1001.21 
107 1 1 0.242044 0.01497 0 0 0 0 -0.0847781 0.00924716 0 -0.0346877 0.000488312 0 -0.0847781 0.00924716 0 461.801 461.801 1001.1 
108 1 1 0.247334 0.00640547 0 0 0 0 -0.0480383 -0.00583661 0 -0.0211828 -0.0440353 0 -0.0480383 -0.00583661 0 511.755 511.755 1001.21 
109 1 1 0.253281 0.0139551 0 0 0 0 -0.0856515 0.00309596 0 -0.00675329 -0.0419393 0 -0.0856515 0.00309596 0 475.599 475.599 1001.13 
110 1 1 0.260668 0.0166895 0 0 0 0 -0.119534 0.0269128 0 0.0418058 0.0130318 0 -0.119534 0.0269128 0 467.285 467.285 1001.11 
111 1 1 0.261515 0.00487941 0 0 0 0 -0.0608869 0.0146593 0 -0.0661074 0.0566609 0 -0.0608869 0.0146593 0 519.089 519.089 1001.23 
112 1 1 0.269782 0.0106404 0 0 0 0 -0.0991673 0.00469518 0 -0.0308852 -0.0419838 0 -0.0991673 0.00469518 0 509.163 509.163 1001.21 
113 1 1 0.280319 0.00524905 0 0 0 0 -0.105826 0.0113467 0 -0.0922741 0.0218822 0 -0.105826 0.0113467 0 529.642 529.642 1001.26 
114 1 1 0.289723 0.0165077 0 0 0 0 -0.0903827 -0.0248198 0 0.0186763 -0.0422028 0 -0.0903827 -0.0248198 0 482.931 482.931 1001.15 
115 1 1 0.31393 0.0242298 0 0 0 0 -0.135271 0.00215274 0 -0.0537953 -0.00742579 0 -0.135271 0.00215274 0 467.798 467.798 1001.11 
116 1 1 0.293937 0.00589729 0 0 0 0 -0.0981717 -0.0153659 0 -0.094889 -0.0460658 0 -0.0981717 -0.0153659 0 535.282 535.282 1001.27 
117 1 1 0.309127 0.00518037 0 0 0 0 -0.101904 0.00959872 0 -0.0313016 -0.0155228 0 -0.101904 0.00959872 0 537.958 537.958 1001.28 
118 1 1 0.319012 0.00970148 0 0 0 0 -0.0852161 -0.0249501 0 -0.0390137 0.000759101 0 -0.0852161 -0.0249501 0 535.802 535.802 1001.27 
119 1 1 0.32931 0.00511283 0 0 0 0 -0.0875339 0.0186251 0 -0.0392582 -0.0154069 0 -0.0875339 0.0186251 0 544.901 544.901 1001.29 
120 1 1 0.339184 0.0249443 0 0 0 0 -0.125358 -0.0240282 0 -0.0391648 0.0132339 0 -0.125358 -0.0240282 0 457.386 457.386 1001.09 
121 1 1 0.339152 0.0128951 0 0 0 0 -0.118191 0.00263246 0 -0.0390397 -0.0203038 0 -0.118191 0.00263246 0 520.253 520.253 1001.23 
122 1 1 0.344936 0.00547962 0 0 0 0 -0.0978539 -0.0176213 0 -0.00735116 -0.0352622 0 -0.0978539 -0.0176213 0 555.945 555.945 1001.32 
123 1 1 0.365374 0.0145057 0 0 0 0 -0.106129 -0.00949087 0 0.00448687 0.000539537 0 -0.106129 -0.00949087 0 529.184 529.184 1001.26 
124 1 1 0.358492 0.00607618 0 0 0 0 -0.0806036 0.00399484 0 0.0627028 -0.0108091 0 -0.0806036 0.00399484 0 552.04 552.04 1001.31 
125 1 1 0.372166 0.00570789 0 0 0 0 -0.074415 -0.00981776 0 -0.0254883 0.0578603 0 -0.074415 -0.00981776 0 572.685 572.685 1001.36 
126 1 1 0.380643 0.019462 0 0 0 0 -0.102776 -0.0183356 0 0.0554494 0.00931686 0 -0.102776 -0.0183356 0 505.816 505.816 1001.2 
127 1 1 0.384342 0.00691584 0 0 0 0 -0.071199 0.0053624 0 -0.0688335 -0.0543473 0 -0.071199 0.0053624 0 555.111 555.111 1001.32 
128 1 1 0.387867 0.0145113 0 0 0 0 -0.0999366 0.0289282 0 -0.0111724 0.0106197 0 -0.0999366 0.0289282 0 522.118 522.118 1001.24 
129 1 1 0.407387 0.00842236 0 0 0 0 -0.095314 -0.0124317 0 0.0278935 0.106794 0 -0.095314 -0.0124317 0 552.697 552.697 1001.31 
130 1 1 0.419044 0.00578717 0 0 0 0 -0.0783608 0.00551595 0 0.02113 -0.0464733 0 -0.0783608 0.00551595 0 564.231 564.231 1001.34 
131 1 1 0.435217 0.004828 0 0 0 0 -0.0458021 -0.0131806 0 -0.0431977 0.0249667 0 -0.0458021 -0.0131806 0 593.249 593.249 1001.41 
132 1 1 0.426317 0.0125388 0 0 0 0 -0.0686203 -0.0301159 0 0.0653007 -0.00503436 0 -0.0686203 -0.0301159 0 548.348 548.348 1001.3 
133 1 1 0.44195 0.0128947 0 0 0 0 -0.0405806 -0.0136936 0 0.126545 -0.00695058 0 -0.0405806 -0.0136936 0 544.396 544.396 1001.29 
134 1 1 0.450395 0.0199196 0 0 0 0 -0.0148061 -0.0115986 0 0.0170461 0.0717681 0 -0.0148061 -0.0115986 0 509.877 509.877 1001.21 
135 1 1 0.450628 0.00617443 0 0 0 0 -0.0115593 -0.00844133 0 -0.134586 -0.0336292 0 -0.0115593 -0.00844133 0 561.378 561.378 1001.33 
136 1 1 0.45559 0.0130911 0 0 0 0 -0.0439564 0.00339462 0 0.0881255 -0.00561835 0 -0.0439564 0.00339462 0 536.556 536.556 1001.27 
137 1 1 0.464916 0.00489166 0 0 0 0 -0.00591783 -0.00124851 0 -0.0044992 0.0114363 0 -0.00591783 -0.00124851 0 555.677 555.677 1001.32 
138 1 1 0.478938 0.00622828 0 0 0 0 -0.00984995 0.00126829 0 0.00141563 -0.0203502 0 -0.00984995 0.00126829 0 559.988 559.988 1001.33 
139 1 1 0.492816 0.00530289 0 0 0 0 -0.00856364 -0.00421969 0 -0.018261 -0.00232302 0 -0.00856364 -0.00421969 0 562.263 562.263 1001.33 
140 1 1 0.204106 0.0316715 0 0 0 0 -0.0524693 0.0147524 0 -0.015221 0.0235194 0 -0.0524693 0.0147524 0 336.395 336.395 1000.8 
141 1 1 0.207719 0.0202263 0 0 0 0 -0.0807601 -0.000912134 0 -0.0551457 0.0232613 0 -0.0807601 -0.000912134 0 419.129 419.129 1000.99 
142 1 1 0.245959 0.041745 0 0 0 0 -0.118782 0.0250999 0 -0.0401707 0.0025811 0 -0.118782 0.0250999 0 283.944 283.944 1000.67 
143 1 1 0.235024 0.0253586 0 0 0 0 -0.0967718 0.00382092 0 -0.0608438 0.0278806 0 -0.0967718 0.00382092 0 401.117 401.117 1000.95 
144 1 1 0.243 0.0299317 0 0 0 0 -0.087508 0.0208382 0 -0.0705108 -0.0363025 0 -0.087508 0.0208382 0 367.36 367.36 1000.87 
145 1 1 0.225983 0.0178977 0 0 0 0 -0.0851565 0.0123002 0 -0.0420362 -0.0280988 0 -0.0851565 0.0123002 0 437.891 437.891 1001.04 
146 1 1 0.252749 0.0339274 0 0 0 0 -0.0899371 0.0220507 0 -0.0492246 -0.00996177 0 -0.0899371 0.0220507 0 341.838 341.838 1000.81 
147 1 1 0.234252 0.0149805 0 0 0 0 -0.0716664 -0.00208108 0 -0.0350848 -0.0104767 0 -0.0716664 -0.00208108 0 460.148 460.148 1001.09 
148 1 1 0.248412 0.0227818 0 0 0 0 -0.10934 0.020108 0 -0.0820434 -0.0489427 0 -0.10934 0.020108 0 415.317 415.317 1000.99 
149 1 1 0.269699 0.024708 0 0 0 0 -0.118816 0.00353262 0 -0.0569199 0.0309725 0 -0.118816 0.00353262 0 431.7 431.7 1001.02 
150 1 1 0.286094 0.037873 0 0 0 0 -0.144725 -0.00959174 0 -0.056602 -0.0401491 0 -0.144725 -0.00959174 0 344.499 344.499 1000.82 
151 1 1 0.27397 0.0171652 0 0 0 0 -0.108445 0.0179398 0 -0.0496133 0.0257327 0 -0.108445 0.0179398 0 479.079 479.079 1001.14 
152 1 1 0.281232 0.0274635 0 0 0 0 -0.101653 -0.0122464 0 -0.0673465 -0.081101 0 -0.101653 -0.0122464 0 414.829 414.829 1000.98 
153 1 1 0.283004 0.0149635 0 0 0 0 -0.106384 -0.00437298 0 -0.019953 0.0202187 0 -0.106384 -0.00437298 0 490.084 490.084 1001.16 
154 1 1 0.300138 0.0127202 0 0 0 0 -0.0850811 0.00696568 0 -0.0208897 -0.0267777 0 -0.0850811 0.00696568 0 506.841 506.841 1001.2 
155 1 1 0.321807 0.0170329 0 0 0 0 -0.133416 0.0105838 0 -0.110622 -0.0232148 0 -0.133416 0.0105838 0 500.639 500.639 1001.19 
156 1 1 0.309636 0.0159528 0 0 0 0 -0.102366 0.000858474 0 0.012323 -0.00498363 0 -0.102366 0.000858474 0 506.768 506.768 1001.2 
157 1 1 0.331736 0.0153855 0 0 0 0 -0.122252 0.0133574 0 -0.0379597 0.0042925 0 -0.122252 0.0133574 0 502.815 502.815 1001.19 
158 1 1 0.32857 0.0250757 0 0 0 0 -0.125554 0.0168344 0 -0.0427126 -0.0342234 0 -0.125554 0.0168344 0 453.09 453.09 1001.08 
159 1 1 0.351392 0.0290754 0 0 0 0 -0.137042 -0.0264803 0 -0.0384595 -0.0702568 0 -0.137042 -0.0264803 0 430.321 430.321 1001.02 
160 1 1 0.346597 0.019251 0 0 0 0 -0.094213 -0.0239851 0 0.00391217 -0.0603998 0 -0.094213 -0.0239851 0 496.717 496.717 1001.18 
161 1 1 0.353165 0.0138887 0 0 0 0 -0.113976 -0.00740877 0 -0.0954191 -0.0220282 0 -0.113976 -0.00740877 0 523.926 523.926 1001.24 
162 1 1 0.366655 0.0267535 0 0 0 0 -0.109318 -0.00785662 0 0.0367091 -0.0786034 0 -0.109318 -0.00785662 0 459.951 459.951 1001.09 
163 1 1 0.373653 0.0159241 0 0 0 0 -0.101146 -0.013366 0 -0.0114715 0.0105114 0 -0.101146 -0.013366 0 528.911 528.911 1001.25 
164 1 1 0.401046 0.0315906 0 0 0 0 -0.0926832 -0.0080959 0 -0.138211 -0.0138008 0 -0.0926832 -0.0080959 0 427.615 427.615 1001.02 
165 1 1 0.397348 0.00551877 0 0 0 0 -0.102949 0.00678792 0 -0.0148465 -0.0459818 0 -0.102949 0.00678792 0 554.204 554.204 1001.31 
166 1 1 0.40106 0.0213524 0 0 0 0 -0.0654447 -0.020956 0 0.0357719 -0.0565193 0 -0.0654447 -0.020956 0 500.33 500.33 1001.19 
167 1 1 0.410514 0.0356952 0 0 0 0 -0.0806723 -0.00569805 0 -0.00325616 -0.007678 0 -0.0806723 -0.00569805 0 404.821 404.821 1000.96 
168 1 1 0.420012 0.0177479 0 0 0 0 -0.0681969 0.00430139 0 -0.0141926 -0.0253919 0 -0.0681969 0.00430139 0 521.123 521.123 1001.24 
169 1 1 0.415473 0.0434193 0 0 0 0 -0.119176 -0.0509551 0 -0.0750989 0.0333013 0 -0.119176 -0.0509551 0 367.666 367.666 1000.87 
170 1 1 0.410849 0.015408 0 0 0 0 -0.0578587 -0.0144585 0 -0.0775 -0.00257599 0 -0.0578587 -0.0144585 0 534.897 534.897 1001.27 
171 1 1 0.420079 0.0289925 0 0 0 0 -0.0757355 -0.0179837 0 -0.0435538 0.0286204 0 -0.0757355 -0.0179837 0 452.016 452.016 1001.07 
172 1 1 0.435032 0.0168724 0 0 0 0 -0.031806 -0.0277205 0 -0.0689608 0.0329163 0 -0.031806 -0.0277205 0 530.101 530.101 1001.26 
173 1 1 0.442241 0.0246788 0 0 0 0 -0.0683544 -0.0264181 0 -0.0182222 0.0568977 0 -0.0683544 -0.0264181 0 491.694 491.694 1001.17 
174 1 1 0.471252 0.0134817 0 0 0 0 -0.0114063 0.00564295 0 -0.0111403 -0.0153015 0 -0.0114063 0.00564295 0 535.188 535.188 1001.27 
175 1 1 0.468878 0.0241824 0 0 0 0 -0.0662016 -0.00162339 0 0.0548157 0.0452673 0 -0.0662016 -0.00162339 0 487.072 487.072 1001.16 
176 1 1 0.480243 0.0210075 0 0 0 0 -0.029621 -0.00827827 0 -0.105967 -0.0203542 0 -0.029621 -0.00827827 0 506.266 506.266 1001.2 
177 1 1 0.483392 0.0135742 0 0 0 0 -0.0060265 -0.00689124 0 0.0819804 -0.00882456 0 -0.0060265 -0.00689124 0 536.604 536.604 1001.27 
178 1 1 0.491843 0.0177365 0 0 0 0 0.00914971 -0.0120518 0 -0.00887629 0.0111861 0 0.00914971 -0.0120518 0 524.622 524.622 1001.24 
179 1 1 0.199534 0.0451291 0 0 0 0 -0.0444931 0.0244878 0 -0.0426861 0.0310209 0 -0.0444931 0.0244878 0 264.677 264.677 1000.63 
180 1 1 0.214181 0.0290581 0 0 0 0 -0.0915749 0.021574 0 -0.0229368 -0.00912404 0 -0.0915749 0.021574 0 362.346 362.346 1000.86 
181 1 1 0.219849 0.0395637 0 0 0 0 -0.0674127 0.0432379 0 -0.0473787 0.017808 0 -0.0674127 0.0432379 0 301.718 301.718 1000.72 
182 1 1 0.228559 0.0350286 0 0 0 0 -0.0948511 -0.00946267 0 -0.0721449 -0.051103 0 -0.0948511 -0.00946267 0 333.975 333.975 1000.79 
183 1 1 0.248647 0.0529519 0 0 0 0 -0.111359 0.01775 0 0.00968458 0.0461509 0 -0.111359 0.01775 0 239.438 239.438 1000.57 
184 1 1 0.237515 0.0502007 0 0 0 0 -0.107335 0.0320764 0 -0.0593153 -0.0146963 0 -0.107335 0.0320764 0 242.31 242.31 1000.58 
185 1 1 0.235691 0.0385899 0 0 0 0 -0.0993061 0.00202047 0 -0.0552652 0.0215241 0 -0.0993061 0.00202047 0 306.82 306.82 1000.73 
186 1 1 0.259201 0.025945 0 0 0 0 -0.105785 0.0307073 0 -0.0680658 -0.00860038 0 -0.105785 0.0307073 0 405.712 405.712 1000.96 
187 1 1 0.274512 0.0338942 0 0 0 0 -0.115079 -0.000871199 0 -0.0511984 0.0406337 0 -0.115079 -0.000871199 0 370.53 370.53 1000.88 
188 1 1 0.278771 0.0443855 0 0 0 0 -0.12928 0.014817 0 -0.000665952 -0.0372035 0 -0.12928 0.014817 0 290.766 290.766 1000.69 
189 1 1 0.296173 0.0335572 0 0 0 0 -0.135945 0.0216857 0 -0.051106 -0.00997974 0 -0.135945 0.0216857 0 379.4 379.4 1000.9 
190 1 1 0.30079 0.0214675 0 0 0 0 -0.119323 0.0195078 0 -0.0271557 -0.036697 0 -0.119323 0.0195078 0 461.204 461.204 1001.09 
191 1 1 0.302497 0.0420856 0 0 0 0 -0.146262 0.0241017 0 -0.0296405 0.0180634 0 -0.146262 0.0241017 0 336.775 336.775 1000.8 
192 1 1 0.305477 0.0301164 0 0 0 0 -0.129299 0.0256672 0 -0.045406 0.00453861 0 -0.129299 0.0256672 0 415.365 415.365 1000.99 
193 1 1 0.332192 0.0341523 0 0 0 0 -0.113 -0.00633298 0 -0.0414141 -0.00264435 0 -0.113 -0.00633298 0 400.96 400.96 1000.95 
194 1 1 0.314958 0.0471806 0 0 0 0 -0.148271 0.021769 0 -0.115601 -0.000411094 0 -0.148271 0.021769 0 318.399 318.399 1000.76 
195 1 1 0.336245 0.0438011 0 0 0 0 -0.156713 -0.00198605 0 -0.0137729 0.014638 0 -0.156713 -0.00198605 0 351.636 351.636 1000.84 
196 1 1 0.343391 0.0342303 0 0 0 0 -0.125479 -0.00637051 0 -0.0659049 -0.0390619 0 -0.125479 -0.00637051 0 398.68 398.68 1000.95 
197 1 1 0.358462 0.0453993 0 0 0 0 -0.138016 -0.0162523 0 -0.00950517 -0.0861855 0 -0.138016 -0.0162523 0 329.711 329.711 1000.78 
198 1 1 0.357812 0.03426 0 0 0 0 -0.139261 -0.0109761 0 -0.0520758 -0.00539756 0 -0.139261 -0.0109761 0 398.078 398.078 1000.95 
199 1 1 0.368002 0.0366552 0 0 0 0 -0.133294 -0.00858436 0 -0.0387171 -0.00578564 0 -0.133294 -0.00858436 0 398.588 398.588 1000.95 
200 1 1 0.359184 0.021065 0 0 0 0 -0.0936303 0.00450737 0 -0.06127 0.00686686 0 -0.0936303 0.00450737 0 487.152 487.152 1001.16 
201 1 1 0.390675 0.0263665 0 0 0 0 -0.0930064 -0.0167901 0 0.00757819 0.0116444 0 -0.0930064 -0.0167901 0 463.844 463.844 1001.1 
202 1 1 0.374424 0.0418268 0 0 0 0 -0.122644 -0.0173259 0 0.0579134 -0.0740114 0 -0.122644 -0.0173259 0 364.72 364.72 1000.87 
203 1 1 0.384349 0.0331722 0 0 0 0 -0.13156 -0.00995414 0 -0.0826406 0.00574068 0 -0.13156 -0.00995414 0 433.559 433.559 1001.03 
204 1 1 0.393673 0.0501827 0 0 0 0 -0.110246 -0.00620395 0 -0.0289927 0.00151892 0 -0.110246 -0.00620395 0 305.214 305.214 1000.73 
205 1 1 0.396503 0.0160359 0 0 0 0 -0.0715536 0.00374055 0 0.0242619 -0.0940794 0 -0.0715536 0.00374055 0 522.92 522.92 1001.24 
206 1 1 0.410843 0.0255653 0 0 0 0 -0.0998172 -0.0115435 0 0.0417956 -0.06991 0 -0.0998172 -0.0115435 0 470.371 470.371 1001.12 
207 1 1 0.437268 0.0405307 0 0 0 0 -0.0298741 -0.0500957 0 -0.00049852 0.0459148 0 -0.0298741 -0.0500957 0 394.537 394.537 1000.94 
208 1 1 0.434503 0.0318193 0 0 0 0 -0.080989 -0.0357274 0 0.0340226 -0.0304616 0 -0.080989 -0.0357274 0 448.225 448.225 1001.06 
209 1 1 0.424723 0.0380395 0 0 0 0 -0.058307 -0.0443203 0 0.0220844 -0.0810867 0 -0.058307 -0.0443203 0 400.598 400.598 1000.95 
210 1 1 0.446964 0.0334607 0 0 0 0 -0.0671013 -0.0411371 0 0.0223906 -0.131054 0 -0.0671013 -0.0411371 0 439.537 439.537 1001.04 
211 1 1 0.428577 0.025003 0 0 0 0 -0.0706218 -0.0559878 0 0.0341499 -0.0441424 0 -0.0706218 -0.0559878 0 487.887 487.887 1001.16 
212 1 1 0.456278 0.0272908 0 0 0 0 -0.0518767 -0.00165561 0 0.0482044 -0.0404227 0 -0.0518767 -0.00165561 0 472.417 472.417 1001.12 
213 1 1 0.463415 0.017397 0 0 0 0 -0.0151103 -0.0269781 0 -0.04805 -0.050272 0 -0.0151103 -0.0269781 0 521.242 521.242 1001.24 
214 1 1 0.477495 0.0397167 0 0 0 0 -0.00190492 -0.0158707 0 0.0673656 0.042234 0 -0.00190492 -0.0158707 0 409.332 409.332 1000.97 
215 1 1 0.489262 0.0279167 0 0 0 0 -0.0157779 -0.0322068 0 0.0289907 0.000585605 0 -0.0157779 -0.0322068 0 479.401 479.401 1001.14 
216 1 1 0.47813 0.030451 0 0 0 0 0.00322678 -0.0408675 0 0.0131325 0.0112997 0 0.00322678 -0.0408675 0 462.184 462.184 1001.1 
217 1 1 0.489276 0.0373845 0 0 0 0 0.00586053 -0.0219789 0 -0.0875816 -0.0844213 0 0.00586053 -0.0219789 0 424.335 424.335 1001.01 
218 1 1 0.217026 0.0514221 0 0 0 0 -0.0777061 0.0417551 0 -0.0272561 0.0147756 0 -0.0777061 0.0417551 0 250.419 250.419 1000.6 
219 1 1 0.164545 0.0393877 0 0 0 0 -0.0443396 0.0289187 0 -0.0776109 -0.0160398 0 -0.0443396 0.0289187 0 294.04 294.04 1000.7 
220 1 1 0.189463 0.0447951 0 0 0 0 -0.0346356 -0.00552381 0 -0.0515598 0.0193526 0 -0.0346356 -0.00552381 0 271.227 271.227 1000.64 
221 1 1 0.227396 0.0497542 0 0 0 0 -0.0819815 0.0402508 0 -0.0607295 -0.0157194 0 -0.0819815 0.0402508 0 255.567 255.567 1000.61 
222 1 1 0.210104 0.0402032 0 0 0 0 -0.0499047 0.0452291 0 -0.0712792 0.0251951 0 -0.0499047 0.0452291 0 289.617 289.617 1000.69 
223 1 1 0.257232 0.0439857 0 0 0 0 -0.106823 0.0149226 0 -0.0790762 0.0126024 0 -0.106823 0.0149226 0 288.311 288.311 1000.69 
224 1 1 0.264058 0.0351645 0 0 0 0 -0.0855338 0.0398786 0 -0.03482 0.0078781 0 -0.0855338 0.0398786 0 350.087 350.087 1000.83 
225 1 1 0.268318 0.0453213 0 0 0 0 -0.106711 0.0506765 0 -0.0945888 -0.0794198 0 -0.106711 0.0506765 0 280.652 280.652 1000.67 
226 1 1 0.284369 0.0547219 0 0 0 0 -0.122477 0.0233346 0 -0.0613198 0.0478261 0 -0.122477 0.0233346 0 242.978 242.978 1000.58 
227 1 1 0.290558 0.0261296 0 0 0 0 -0.103112 -0.0172703 0 -0.0527731 0.0339474 0 -0.103112 -0.0172703 0 425.41 425.41 1001.01 
228 1 1 0.292386 0.0457452 0 0 0 0 -0.150063 0.00726829 0 -0.0656551 -0.00241174 0 -0.150063 0.00726829 0 297.59 297.59 1000.71 
229 1 1 0.304248 0.0529667 0 0 0 0 -0.153575 0.0210662 0 -0.0618692 -0.0459279 0 -0.153575 0.0210662 0 271.491 271.491 1000.65 