ITEM: TIMESTEP
168000
ITEM: NUMBER OF ATOMS
754
ITEM: BOX BOUNDS ff ff pp
-0.021 0.521
-0.021 0.5
-0.001 0.001
ITEM: ATOMS id type type x y z ix iy iz vx vy vz fx fy fz vx vy vz p p rho 
1 1 1 0.00676423 0.0037442 0 0 0 0 -0.00286659 -0.0103886 0 0.000873911 -0.0288642 0 -0.00286659 -0.0103886 0 467.812 467.812 1001.11 
2 1 1 0.027182 0.00474873 0 0 0 0 -0.00593715 -0.00480562 0 -0.00589379 -0.0269368 0 -0.00593715 -0.00480562 0 454.951 454.951 1001.08 
3 1 1 0.0605214 0.0063761 0 0 0 0 -0.0134192 -0.00514867 0 0.0433676 -0.0232052 0 -0.0134192 -0.00514867 0 453.337 453.337 1001.08 
4 1 1 0.0749075 0.00520434 0 0 0 0 -0.0104552 -0.00498814 0 -0.0149026 -0.022863 0 -0.0104552 -0.00498814 0 473.3 473.3 1001.12 
5 1 1 0.0921895 0.00560631 0 0 0 0 -0.0028542 -0.00192984 0 -0.0233814 -0.0206629 0 -0.0028542 -0.00192984 0 458.15 458.15 1001.09 
6 1 1 0.110141 0.00630048 0 0 0 0 -0.0537716 -0.00494314 0 0.0105763 -0.0221657 0 -0.0537716 -0.00494314 0 463.392 463.392 1001.1 
7 1 1 0.154051 0.00664532 0 0 0 0 0.0443995 -0.0109029 0 -0.024925 -0.0463901 0 0.0443995 -0.0109029 0 455.557 455.557 1001.08 
8 1 1 0.13546 0.0137829 0 0 0 0 0.000462757 -0.0149481 0 0.0304006 -0.0107576 0 0.000462757 -0.0149481 0 426.912 426.912 1001.01 
9 1 1 0.183315 0.00591183 0 0 0 0 0.0636223 -0.0136054 0 -0.0562028 -0.0356483 0 0.0636223 -0.0136054 0 483.314 483.314 1001.15 
10 1 1 0.196786 0.00632479 0 0 0 0 0.0864143 -0.00597178 0 -0.0210649 0.00592888 0 0.0864143 -0.00597178 0 488.509 488.509 1001.16 
11 1 1 0.0270595 0.017105 0 0 0 0 0.0490465 -0.0118451 0 0.046518 -0.0302749 0 0.0490465 -0.0118451 0 394.002 394.002 1000.94 
12 1 1 0.0474142 0.00535493 0 0 0 0 -0.0155936 0.0120788 0 -0.0565248 -0.00659881 0 -0.0155936 0.0120788 0 465.337 465.337 1001.1 
13 1 1 0.0650404 0.0146008 0 0 0 0 0.0434484 -0.00917231 0 -0.0168563 -0.0339924 0 0.0434484 -0.00917231 0 405.571 405.571 1000.96 
14 1 1 0.0841661 0.011779 0 0 0 0 -0.00845354 -0.00881036 0 0.00299146 -0.00651234 0 -0.00845354 -0.00881036 0 433.639 433.639 1001.03 
15 1 1 0.101068 0.0107732 0 0 0 0 -0.0156884 0.0326185 0 0.046917 0.0433914 0 -0.0156884 0.0326185 0 431.909 431.909 1001.03 
16 1 1 0.140607 0.00604575 0 0 0 0 0.0176969 -0.00522997 0 -0.138018 -0.0137797 0 0.0176969 -0.00522997 0 460.432 460.432 1001.09 
17 1 1 0.144466 0.0206292 0 0 0 0 0.0549534 -0.0195647 0 -0.0470437 0.00158296 0 0.0549534 -0.0195647 0 394.962 394.962 1000.94 
18 1 1 0.166952 0.0059905 0 0 0 0 0.0529937 -0.0027983 0 0.00692214 0.00101966 0 0.0529937 -0.0027983 0 482.494 482.494 1001.14 
19 1 1 0.190072 0.0148677 0 0 0 0 0.0982042 -0.00912424 0 -0.014569 0.00778616 0 0.0982042 -0.00912424 0 436.405 436.405 1001.04 
20 1 1 0.182465 0.0179745 0 0 0 0 0.100373 -0.0257488 0 0.0166722 0.00664205 0 0.100373 -0.0257488 0 414.055 414.055 1000.98 
21 1 1 0.0297779 0.02946 0 0 0 0 -0.0141336 0.0157634 0 -0.00957692 -0.0562719 0 -0.0141336 0.0157634 0 314.707 314.707 1000.75 
22 1 1 0.0370378 0.00988167 0 0 0 0 0.015312 -0.00915881 0 0.0665539 -0.00184451 0 0.015312 -0.00915881 0 445.309 445.309 1001.06 
23 1 1 0.0548979 0.0152209 0 0 0 0 0.0198221 -0.013705 0 0.00236704 -0.0242043 0 0.0198221 -0.013705 0 410.799 410.799 1000.98 
24 1 1 0.0774578 0.0271063 0 0 0 0 0.0116946 0.0132573 0 0.0167941 0.00522061 0 0.0116946 0.0132573 0 329.748 329.748 1000.78 
25 1 1 0.0683287 0.0238965 0 0 0 0 0.00922598 0.0140799 0 -0.00538925 0.0219239 0 0.00922598 0.0140799 0 343.616 343.616 1000.82 
26 1 1 0.12507 0.00530068 0 0 0 0 -0.00671284 -0.013563 0 -0.0435862 0.0115177 0 -0.00671284 -0.013563 0 485.038 485.038 1001.15 
27 1 1 0.12724 0.0150256 0 0 0 0 -0.00528366 -0.00491266 0 -0.103906 0.0441413 0 -0.00528366 -0.00491266 0 422.776 422.776 1001 
28 1 1 0.162246 0.0148155 0 0 0 0 0.0288451 -0.00734662 0 0.0296904 -0.0158186 0 0.0288451 -0.00734662 0 431.651 431.651 1001.02 
29 1 1 0.174739 0.0118519 0 0 0 0 0.0576178 -0.00363857 0 -0.0237972 0.0378381 0 0.0576178 -0.00363857 0 453.371 453.371 1001.08 
30 1 1 0.192402 0.0252073 0 0 0 0 0.0900141 -0.0075078 0 -0.108828 -0.0186735 0 0.0900141 -0.0075078 0 363.122 363.122 1000.86 
31 1 1 0.0182946 0.00992896 0 0 0 0 0.0005284 0.0105989 0 -0.0368769 -0.00979269 0 0.0005284 0.0105989 0 435.079 435.079 1001.03 
32 1 1 0.0357264 0.0175553 0 0 0 0 0.0154292 0.0194632 0 0.0220776 0.0127936 0 0.0154292 0.0194632 0 402.167 402.167 1000.95 
33 1 1 0.0614588 0.0323093 0 0 0 0 -0.00779376 0.0215122 0 0.00360467 0.0504208 0 -0.00779376 0.0215122 0 289.343 289.343 1000.69 
34 1 1 0.084514 0.0192798 0 0 0 0 0.0332056 9.52613e-05 0 -0.0238541 -0.026127 0 0.0332056 9.52613e-05 0 387.837 387.837 1000.92 
35 1 1 0.119199 0.0249668 0 0 0 0 0.0434651 -0.006913 0 -0.00332479 -0.0358377 0 0.0434651 -0.006913 0 346.75 346.75 1000.82 
36 1 1 0.130281 0.0234831 0 0 0 0 0.0622839 -0.0242377 0 0.120104 0.0462283 0 0.0622839 -0.0242377 0 373.787 373.787 1000.89 
37 1 1 0.147975 0.013787 0 0 0 0 -0.00503678 -0.0102605 0 0.0518903 0.0115975 0 -0.00503678 -0.0102605 0 423.373 423.373 1001 
38 1 1 0.171512 0.0207502 0 0 0 0 0.0989165 -0.0418297 0 -0.100485 -0.0414907 0 0.0989165 -0.0418297 0 394.233 394.233 1000.94 
39 1 1 0.188892 0.0344813 0 0 0 0 0.0884464 -0.0426462 0 -0.0502887 -0.0798598 0 0.0884464 -0.0426462 0 284.595 284.595 1000.68 
40 1 1 0.152566 0.0348021 0 0 0 0 0.0240473 -0.046671 0 -0.0550448 -0.0208067 0 0.0240473 -0.046671 0 289.293 289.293 1000.69 
41 1 1 0.0106345 0.0145104 0 0 0 0 0.015107 -0.00687302 0 0.0153306 0.00647509 0 0.015107 -0.00687302 0 413.739 413.739 1000.98 
42 1 1 0.0309352 0.0441978 0 0 0 0 0.000772319 0.0137329 0 0.0528101 -0.0362212 0 0.000772319 0.0137329 0 191.304 191.304 1000.45 
43 1 1 0.0467204 0.0160926 0 0 0 0 0.0290889 0.0128294 0 0.00808024 -0.00606338 0 0.0290889 0.0128294 0 412.794 412.794 1000.98 
44 1 1 0.0736329 0.0351948 0 0 0 0 0.0295995 -0.00199527 0 0.0481119 0.00783313 0 0.0295995 -0.00199527 0 273.328 273.328 1000.65 
45 1 1 0.0947537 0.0178303 0 0 0 0 0.0207711 0.00756283 0 -0.00996309 -0.037094 0 0.0207711 0.00756283 0 396.071 396.071 1000.94 
46 1 1 0.109914 0.0279956 0 0 0 0 0.0346293 -0.00431964 0 -0.00397515 -0.00968611 0 0.0346293 -0.00431964 0 317.003 317.003 1000.75 
47 1 1 0.157743 0.0198068 0 0 0 0 0.0612609 -0.0456791 0 -0.127327 0.00924062 0 0.0612609 -0.0456791 0 397.441 397.441 1000.94 
48 1 1 0.180694 0.0274043 0 0 0 0 0.0585392 -0.0283075 0 -0.0163592 -0.00465118 0 0.0585392 -0.0283075 0 338.72 338.72 1000.8 
49 1 1 0.178704 0.0368745 0 0 0 0 0.102656 -0.0326792 0 -0.0885969 0.0236465 0 0.102656 -0.0326792 0 257.428 257.428 1000.61 
50 1 1 0.156639 0.0522081 0 0 0 0 0.0873811 -0.00206792 0 0.016163 0.0743979 0 0.0873811 -0.00206792 0 166.056 166.056 1000.39 
51 1 1 0.020024 0.0205438 0 0 0 0 0.0199245 -0.0221026 0 -0.0137472 0.0112941 0 0.0199245 -0.0221026 0 376.877 376.877 1000.89 
52 1 1 0.0385825 0.0286929 0 0 0 0 0.0153291 -0.00527625 0 0.026034 -0.0383305 0 0.0153291 -0.00527625 0 323.769 323.769 1000.77 
53 1 1 0.0570404 0.0249579 0 0 0 0 0.0472672 -0.0317485 0 -0.0163975 -0.0218822 0 0.0472672 -0.0317485 0 344.502 344.502 1000.82 
54 1 1 0.0875657 0.0293946 0 0 0 0 0.0146899 -0.0127738 0 0.0187054 -0.0246555 0 0.0146899 -0.0127738 0 313.267 313.267 1000.74 
55 1 1 0.0956734 0.0325557 0 0 0 0 0.00454294 0.01515 0 0.0242871 -0.0217907 0 0.00454294 0.01515 0 283.847 283.847 1000.67 
56 1 1 0.105042 0.0366341 0 0 0 0 0.0198693 -0.0383003 0 -0.0569759 -0.0281833 0 0.0198693 -0.0383003 0 250.294 250.294 1000.59 
57 1 1 0.141937 0.0277837 0 0 0 0 0.0652871 -0.0184471 0 -0.0986296 0.000914285 0 0.0652871 -0.0184471 0 353.236 353.236 1000.84 
58 1 1 0.12733 0.0322124 0 0 0 0 0.0332741 -0.0380494 0 -0.0361305 -0.0375029 0 0.0332741 -0.0380494 0 305.49 305.49 1000.73 
59 1 1 0.167788 0.036841 0 0 0 0 0.0541887 -0.0598016 0 -0.0948708 0.00943657 0 0.0541887 -0.0598016 0 278.431 278.431 1000.66 
60 1 1 0.170468 0.0464446 0 0 0 0 0.0500511 -0.055953 0 0.0119416 0.0490751 0 0.0500511 -0.055953 0 217.167 217.167 1000.52 
61 1 1 0.0463612 0.0259146 0 0 0 0 -1.54947e-05 0.0043179 0 0.0960143 0.0192702 0 -1.54947e-05 0.0043179 0 351.516 351.516 1000.83 
62 1 1 0.00887787 0.0228742 0 0 0 0 -0.00755821 -0.0203054 0 0.00324338 0.00340443 0 -0.00755821 -0.0203054 0 364.251 364.251 1000.87 
63 1 1 0.0735452 0.0150643 0 0 0 0 0.0285853 0.019847 0 0.0507328 0.0292433 0 0.0285853 0.019847 0 408.54 408.54 1000.97 
64 1 1 0.0426351 0.0468824 0 0 0 0 0.00885759 -0.0126634 0 0.0467596 0.00670489 0 0.00885759 -0.0126634 0 180.045 180.045 1000.43 
65 1 1 0.0860032 0.0393745 0 0 0 0 0.0283075 0.0133651 0 -0.0728046 -0.00437438 0 0.0283075 0.0133651 0 246.436 246.436 1000.59 
66 1 1 0.117128 0.0140794 0 0 0 0 -0.00686991 -0.0401739 0 0.028373 -0.00777245 0 -0.00686991 -0.0401739 0 426.596 426.596 1001.01 
67 1 1 0.116779 0.0362416 0 0 0 0 0.0675049 -0.0041137 0 0.0800255 -0.00469174 0 0.0675049 -0.0041137 0 252.414 252.414 1000.6 
68 1 1 0.15616 0.0283359 0 0 0 0 0.0879677 -0.0265218 0 0.00969841 0.0416483 0 0.0879677 -0.0265218 0 337.462 337.462 1000.8 
69 1 1 0.168188 0.0287019 0 0 0 0 0.0605622 -0.022907 0 -0.0665702 -0.0615356 0 0.0605622 -0.022907 0 336.466 336.466 1000.8 
70 1 1 0.180158 0.0542416 0 0 0 0 0.102192 -0.0790066 0 -0.0643814 0.102012 0 0.102192 -0.0790066 0 199.233 199.233 1000.47 
71 1 1 0.0116933 0.0321709 0 0 0 0 0.0289185 -0.0368305 0 0.00129912 0.000705832 0 0.0289185 -0.0368305 0 309.447 309.447 1000.74 
72 1 1 0.03809 0.0565064 0 0 0 0 -0.0438336 -0.00439551 0 0.100304 -0.0147284 0 -0.0438336 -0.00439551 0 131.81 131.81 1000.31 
73 1 1 0.022443 0.0414545 0 0 0 0 -0.0257004 0.000280469 0 -0.0215998 -0.135342 0 -0.0257004 0.000280469 0 221.445 221.445 1000.53 
74 1 1 0.051199 0.0361107 0 0 0 0 -0.00219648 -0.0406418 0 -0.00512361 -0.00341197 0 -0.00219648 -0.0406418 0 279.99 279.99 1000.67 
75 1 1 0.0777509 0.0460344 0 0 0 0 0.00924678 -0.00846007 0 0.0412001 0.00423296 0 0.00924678 -0.00846007 0 219.863 219.863 1000.52 
76 1 1 0.109754 0.0176294 0 0 0 0 0.0508957 0.0153778 0 -0.0137049 -0.0331491 0 0.0508957 0.0153778 0 393.354 393.354 1000.93 
77 1 1 0.100375 0.0231558 0 0 0 0 0.029404 0.0115762 0 -0.0269046 0.0306986 0 0.029404 0.0115762 0 357.523 357.523 1000.85 
78 1 1 0.146044 0.0442922 0 0 0 0 0.144725 -0.0205543 0 -0.062293 0.0166479 0 0.144725 -0.0205543 0 220.743 220.743 1000.52 
79 1 1 0.139288 0.0356522 0 0 0 0 0.0318126 -0.0277845 0 0.0150841 0.0179556 0 0.0318126 -0.0277845 0 288.981 288.981 1000.69 
80 1 1 0.147073 0.0594196 0 0 0 0 0.00984589 -0.0376175 0 -0.045328 0.0618192 0 0.00984589 -0.0376175 0 151.678 151.678 1000.36 
81 1 1 0.0218787 0.0311621 0 0 0 0 0.00255472 -0.00795491 0 -0.090307 -0.0630427 0 0.00255472 -0.00795491 0 312.567 312.567 1000.74 
82 1 1 0.0102709 0.041092 0 0 0 0 -0.021899 -0.0316052 0 0.0407023 0.0589634 0 -0.021899 -0.0316052 0 236.768 236.768 1000.56 
83 1 1 0.0390857 0.0382857 0 0 0 0 -0.0301431 0.00825096 0 0.0399051 -0.0662575 0 -0.0301431 0.00825096 0 236.367 236.367 1000.56 
84 1 1 0.0205437 0.051003 0 0 0 0 0.00751688 0.000337666 0 -0.0116665 -0.0623735 0 0.00751688 0.000337666 0 167.143 167.143 1000.4 
85 1 1 0.0655805 0.0418165 0 0 0 0 0.000136638 -0.00529705 0 -0.0637609 0.0279059 0 0.000136638 -0.00529705 0 229.419 229.419 1000.55 
86 1 1 0.0981577 0.0444117 0 0 0 0 0.0720939 0.00612299 0 0.0583664 0.0551131 0 0.0720939 0.00612299 0 206.403 206.403 1000.49 
87 1 1 0.110907 0.0452344 0 0 0 0 0.0331026 -0.0296452 0 -0.0932191 -0.0426169 0 0.0331026 -0.0296452 0 181.619 181.619 1000.43 
88 1 1 0.122287 0.0483732 0 0 0 0 0.00964425 -0.057498 0 0.0481916 -0.0235873 0 0.00964425 -0.057498 0 200.659 200.659 1000.48 
89 1 1 0.129569 0.0408745 0 0 0 0 0.10128 -0.014724 0 -0.088869 0.115203 0 0.10128 -0.014724 0 249.772 249.772 1000.59 
90 1 1 0.137066 0.0502294 0 0 0 0 0.0601634 -0.0556948 0 -0.000768057 0.0687423 0 0.0601634 -0.0556948 0 218.085 218.085 1000.52 
91 1 1 0.0537631 0.0582181 0 0 0 0 -0.0394394 -0.0222192 0 0.0451466 0.104875 0 -0.0394394 -0.0222192 0 198.278 198.278 1000.47 
92 1 1 0.0273538 0.0600773 0 0 0 0 -0.0292949 0.0328853 0 -0.0204625 -0.0451517 0 -0.0292949 0.0328853 0 107.3 107.3 1000.26 
93 1 1 0.0115647 0.0545155 0 0 0 0 0.00751011 -0.0184155 0 0.0358777 -0.00270448 0 0.00751011 -0.0184155 0 157.629 157.629 1000.37 
94 1 1 0.066824 0.0522412 0 0 0 0 -0.012472 -0.00897648 0 -0.10738 0.103927 0 -0.012472 -0.00897648 0 179.165 179.165 1000.43 
95 1 1 0.0777807 0.0604945 0 0 0 0 0.000909769 -0.0293696 0 0.0631713 0.00267784 0 0.000909769 -0.0293696 0 200.873 200.873 1000.48 
96 1 1 0.0991534 0.0600119 0 0 0 0 0.0729447 -0.0379377 0 0.0171358 0.0275154 0 0.0729447 -0.0379377 0 214.515 214.515 1000.51 
97 1 1 0.0537813 0.0453194 0 0 0 0 -0.00205995 -0.0204115 0 0.118862 0.0416979 0 -0.00205995 -0.0204115 0 225.956 225.956 1000.54 
98 1 1 0.0896836 0.0508067 0 0 0 0 0.0181543 -0.0323214 0 -0.0645573 0.0598961 0 0.0181543 -0.0323214 0 203.538 203.538 1000.48 
99 1 1 0.111901 0.0542003 0 0 0 0 0.0640311 0.0103997 0 -0.0342185 0.116202 0 0.0640311 0.0103997 0 130.288 130.288 1000.31 
100 1 1 0.127959 0.0606125 0 0 0 0 0.0783939 -0.0506017 0 -0.04926 0.0205514 0 0.0783939 -0.0506017 0 191.787 191.787 1000.46 
101 1 1 0.200068 0.0151289 0 0 0 0 0.0944216 -0.00825861 0 -0.00987713 -0.0515834 0 0.0944216 -0.00825861 0 435.009 435.009 1001.03 
102 1 1 0.209985 0.0158583 0 0 0 0 0.0764484 0.0293624 0 -0.00600016 -0.00189873 0 0.0764484 0.0293624 0 435.655 435.655 1001.03 
103 1 1 0.213516 0.0246965 0 0 0 0 0.123362 -0.00446078 0 0.0350627 -0.0118282 0 0.123362 -0.00446078 0 377.748 377.748 1000.9 
104 1 1 0.209818 0.00609418 0 0 0 0 0.0850047 0.00548766 0 -0.0686622 0.0179696 0 0.0850047 0.00548766 0 494.412 494.412 1001.17 
105 1 1 0.219164 0.0104025 0 0 0 0 0.0708043 -0.0163391 0 0.011918 -0.0493801 0 0.0708043 -0.0163391 0 483.275 483.275 1001.15 
106 1 1 0.229312 0.00505059 0 0 0 0 0.0891384 0.00670401 0 -0.0431753 0.0222012 0 0.0891384 0.00670401 0 497.268 497.268 1001.18 
107 1 1 0.239348 0.0117877 0 0 0 0 0.0626211 0.0121123 0 -0.02638 -0.00797666 0 0.0626211 0.0121123 0 478.409 478.409 1001.14 
108 1 1 0.247223 0.00562293 0 0 0 0 0.0615486 -0.00847114 0 -0.0570399 0.0247805 0 0.0615486 -0.00847114 0 519.477 519.477 1001.23 
109 1 1 0.25161 0.0140916 0 0 0 0 0.101268 -0.0362039 0 -0.0583229 0.0022393 0 0.101268 -0.0362039 0 478.47 478.47 1001.14 
110 1 1 0.259445 0.0159441 0 0 0 0 0.120667 -0.00991575 0 -0.00337154 0.038302 0 0.120667 -0.00991575 0 467.285 467.285 1001.11 
111 1 1 0.261917 0.00619201 0 0 0 0 0.0935003 -0.00109979 0 -0.13783 -0.057634 0 0.0935003 -0.00109979 0 520.201 520.201 1001.23 
112 1 1 0.271691 0.010064 0 0 0 0 0.0993124 -0.0177485 0 -0.0323578 -0.0316605 0 0.0993124 -0.0177485 0 487.186 487.186 1001.16 
113 1 1 0.281221 0.00560871 0 0 0 0 0.103334 0.00644478 0 -0.064322 -0.00542846 0 0.103334 0.00644478 0 516.037 516.037 1001.22 
114 1 1 0.289074 0.0148651 0 0 0 0 0.1173 0.00740875 0 0.0071504 0.0434876 0 0.1173 0.00740875 0 480.782 480.782 1001.14 
115 1 1 0.309452 0.0274789 0 0 0 0 0.165613 -0.00300381 0 -0.0749618 0.0411353 0 0.165613 -0.00300381 0 403.227 403.227 1000.96 
116 1 1 0.294534 0.00709663 0 0 0 0 0.105887 -0.00869694 0 -0.0817992 -0.0644871 0 0.105887 -0.00869694 0 529.148 529.148 1001.26 
117 1 1 0.307739 0.00576069 0 0 0 0 0.124342 -0.00772507 0 -0.052103 0.0940322 0 0.124342 -0.00772507 0 546.706 546.706 1001.3 
118 1 1 0.31615 0.0124825 0 0 0 0 0.126324 0.0024575 0 -0.0668177 -0.0236841 0 0.126324 0.0024575 0 521.013 521.013 1001.24 
119 1 1 0.323519 0.00546475 0 0 0 0 0.13662 -0.0162848 0 -0.00663049 -0.101816 0 0.13662 -0.0162848 0 546.584 546.584 1001.3 
120 1 1 0.339173 0.0217177 0 0 0 0 0.124583 0.0124948 0 -0.177197 -0.0690994 0 0.124583 0.0124948 0 489.748 489.748 1001.16 
121 1 1 0.33416 0.0111483 0 0 0 0 0.151258 0.00569211 0 0.00879459 0.117368 0 0.151258 0.00569211 0 534.786 534.786 1001.27 
122 1 1 0.341515 0.00567115 0 0 0 0 0.127935 0.0184965 0 -0.0472933 -0.0682718 0 0.127935 0.0184965 0 551.753 551.753 1001.31 
123 1 1 0.363303 0.0154806 0 0 0 0 0.129147 -0.000615104 0 -0.0382379 -0.0964867 0 0.129147 -0.000615104 0 538.962 538.962 1001.28 
124 1 1 0.357917 0.00554071 0 0 0 0 0.12594 0.00260768 0 -0.00470282 0.105563 0 0.12594 0.00260768 0 587.26 587.26 1001.39 
125 1 1 0.370661 0.00700933 0 0 0 0 0.119182 -0.0081148 0 -0.138076 0.0098112 0 0.119182 -0.0081148 0 565.562 565.562 1001.34 
126 1 1 0.378697 0.0149433 0 0 0 0 0.130787 0.0482259 0 0.0439798 0.130076 0 0.130787 0.0482259 0 533.529 533.529 1001.27 
127 1 1 0.382998 0.00631163 0 0 0 0 0.107267 -0.00253641 0 0.00241623 -0.116672 0 0.107267 -0.00253641 0 563.235 563.235 1001.34 
128 1 1 0.390917 0.0115367 0 0 0 0 0.0741029 0.0140418 0 -0.0199582 0.034032 0 0.0741029 0.0140418 0 551.939 551.939 1001.31 
129 1 1 0.408818 0.0108445 0 0 0 0 0.0778044 0.0162615 0 0.0851966 0.0411814 0 0.0778044 0.0162615 0 562.026 562.026 1001.33 
130 1 1 0.417367 0.00573634 0 0 0 0 0.0507878 0.00747204 0 0.0181985 0.0309024 0 0.0507878 0.00747204 0 589.92 589.92 1001.4 
131 1 1 0.431971 0.00621186 0 0 0 0 0.0621225 0.00104404 0 -0.0509041 -0.0236965 0 0.0621225 0.00104404 0 579.86 579.86 1001.37 
132 1 1 0.424494 0.0137401 0 0 0 0 0.0710313 -0.0198563 0 0.0213965 0.0555189 0 0.0710313 -0.0198563 0 563.807 563.807 1001.34 
133 1 1 0.439181 0.0119776 0 0 0 0 0.0318247 0.0293555 0 0.00980722 -0.0206492 0 0.0318247 0.0293555 0 543.032 543.032 1001.29 
134 1 1 0.449278 0.0162145 0 0 0 0 0.0105052 0.00539785 0 0.0633999 0.000617876 0 0.0105052 0.00539785 0 528.147 528.147 1001.25 
135 1 1 0.448158 0.00510292 0 0 0 0 0.0193707 0.00610877 0 0.0236724 0.0117217 0 0.0193707 0.00610877 0 568.294 568.294 1001.35 
136 1 1 0.457464 0.0116045 0 0 0 0 0.0020525 0.00872784 0 0.0155789 0.0162134 0 0.0020525 0.00872784 0 553.697 553.697 1001.31 
137 1 1 0.465702 0.00523019 0 0 0 0 0.00308586 -0.00611758 0 -0.0228344 -0.00738378 0 0.00308586 -0.00611758 0 566.497 566.497 1001.34 
138 1 1 0.478523 0.00646751 0 0 0 0 -0.00159885 0.00852068 0 0.0264391 0.0044855 0 -0.00159885 0.00852068 0 550.053 550.053 1001.3 
139 1 1 0.492646 0.00547436 0 0 0 0 0.000706608 -0.00127988 0 0.00998294 0.00100593 0 0.000706608 -0.00127988 0 556.334 556.334 1001.32 
140 1 1 0.199628 0.0337843 0 0 0 0 0.107712 0.0201258 0 -0.0439147 -0.0466465 0 0.107712 0.0201258 0 286.433 286.433 1000.68 
141 1 1 0.202349 0.0237526 0 0 0 0 0.0725853 0.0136755 0 -0.0394764 0.019221 0 0.0725853 0.0136755 0 368.749 368.749 1000.88 
142 1 1 0.241893 0.0379627 0 0 0 0 0.144591 -0.0230728 0 -0.111329 0.00995254 0 0.144591 -0.0230728 0 318.9 318.9 1000.76 
143 1 1 0.224149 0.0257681 0 0 0 0 0.134066 0.0015088 0 -0.0479019 -0.040571 0 0.134066 0.0015088 0 384.898 384.898 1000.91 
144 1 1 0.236213 0.0261545 0 0 0 0 0.122706 0.00612435 0 0.0189715 0.0181297 0 0.122706 0.00612435 0 388.965 388.965 1000.92 
145 1 1 0.22323 0.0171783 0 0 0 0 0.0707725 -0.0147648 0 -0.0566479 -0.0182225 0 0.0707725 -0.0147648 0 449.355 449.355 1001.07 
146 1 1 0.248678 0.0326988 0 0 0 0 0.133389 -0.036184 0 -0.05567 -0.0316945 0 0.133389 -0.036184 0 363.815 363.815 1000.86 
147 1 1 0.232839 0.0157214 0 0 0 0 0.0752736 0.020154 0 -0.0771288 0.0418672 0 0.0752736 0.020154 0 454.741 454.741 1001.08 
148 1 1 0.243535 0.021634 0 0 0 0 0.120504 -0.0325514 0 -0.0159632 -0.0218416 0 0.120504 -0.0325514 0 426.168 426.168 1001.01 
149 1 1 0.265864 0.0257212 0 0 0 0 0.124612 -0.00124106 0 -0.0992922 -0.0408993 0 0.124612 -0.00124106 0 394.6 394.6 1000.94 
150 1 1 0.282295 0.0338779 0 0 0 0 0.151806 -0.0286087 0 -0.0749235 0.0231731 0 0.151806 -0.0286087 0 345.201 345.201 1000.82 
151 1 1 0.26976 0.0178329 0 0 0 0 0.120846 0.0256134 0 -0.0185331 0.0046036 0 0.120846 0.0256134 0 443.09 443.09 1001.05 
152 1 1 0.278812 0.0249122 0 0 0 0 0.118023 -0.00204802 0 -0.0233309 0.00776704 0 0.118023 -0.00204802 0 410.356 410.356 1000.97 
153 1 1 0.281344 0.0166541 0 0 0 0 0.102095 -0.0152078 0 -0.0355216 0.0121618 0 0.102095 -0.0152078 0 462.49 462.49 1001.1 
154 1 1 0.300631 0.0145145 0 0 0 0 0.118562 -0.0171704 0 -0.0274076 -0.0723143 0 0.118562 -0.0171704 0 495.523 495.523 1001.18 
155 1 1 0.321106 0.021867 0 0 0 0 0.11838 -0.0148186 0 -0.0752349 -0.0155546 0 0.11838 -0.0148186 0 467.1 467.1 1001.11 
156 1 1 0.310251 0.0178758 0 0 0 0 0.130168 -0.011256 0 -0.0683352 -0.0845789 0 0.130168 -0.011256 0 485.477 485.477 1001.15 
157 1 1 0.32789 0.0157036 0 0 0 0 0.124014 -0.00410227 0 -0.0341859 0.0176032 0 0.124014 -0.00410227 0 509.725 509.725 1001.21 
158 1 1 0.331221 0.0265757 0 0 0 0 0.143199 -0.0215957 0 -0.0858726 -0.0356733 0 0.143199 -0.0215957 0 458.964 458.964 1001.09 
159 1 1 0.34802 0.0286959 0 0 0 0 0.184868 -0.000515111 0 0.0297328 -0.042578 0 0.184868 -0.000515111 0 431.904 431.904 1001.03 
160 1 1 0.345977 0.0174815 0 0 0 0 0.12949 0.0170638 0 -0.055196 -0.0316093 0 0.12949 0.0170638 0 517.415 517.415 1001.23 
161 1 1 0.350928 0.0123362 0 0 0 0 0.12558 -0.0128364 0 0.0392555 -0.0269418 0 0.12558 -0.0128364 0 551.806 551.806 1001.31 
162 1 1 0.365748 0.0287324 0 0 0 0 0.157642 -0.00432915 0 0.036354 -0.109743 0 0.157642 -0.00432915 0 451.45 451.45 1001.07 
163 1 1 0.371339 0.0184892 0 0 0 0 0.145356 -0.000119796 0 0.0626152 0.106636 0 0.145356 -0.000119796 0 523.783 523.783 1001.24 
164 1 1 0.391953 0.03254 0 0 0 0 0.177465 0.052423 0 -0.0923992 0.0298797 0 0.177465 0.052423 0 417.956 417.956 1000.99 
165 1 1 0.399666 0.00583739 0 0 0 0 0.0835203 0.00909112 0 -0.000824419 -0.0891925 0 0.0835203 0.00909112 0 571.139 571.139 1001.35 
166 1 1 0.390309 0.0200585 0 0 0 0 0.131178 0.0372466 0 0.0397563 -0.0933784 0 0.131178 0.0372466 0 503.51 503.51 1001.19 
167 1 1 0.406294 0.0328763 0 0 0 0 0.122183 0.0711949 0 0.110757 0.0697751 0 0.122183 0.0711949 0 425.076 425.076 1001.01 
168 1 1 0.418388 0.0183667 0 0 0 0 0.0876967 0.00323904 0 0.0272657 -0.132325 0 0.0876967 0.00323904 0 530.366 530.366 1001.26 
169 1 1 0.414271 0.0430137 0 0 0 0 0.131171 0.062098 0 -0.00888468 -0.173946 0 0.131171 0.062098 0 381.098 381.098 1000.9 
170 1 1 0.407717 0.0202461 0 0 0 0 0.0933471 0.030972 0 0.0256743 -0.139154 0 0.0933471 0.030972 0 492.629 492.629 1001.17 
171 1 1 0.414611 0.0277709 0 0 0 0 0.0886733 0.0229944 0 0.0300804 0.112459 0 0.0886733 0.0229944 0 458.541 458.541 1001.09 
172 1 1 0.432451 0.0191786 0 0 0 0 0.0551408 0.0409052 0 -0.0180344 -0.0819768 0 0.0551408 0.0409052 0 517.385 517.385 1001.23 
173 1 1 0.443121 0.0218346 0 0 0 0 0.0420806 0.0605981 0 0.03889 0.0709498 0 0.0420806 0.0605981 0 490.644 490.644 1001.16 
174 1 1 0.469458 0.0152596 0 0 0 0 0.0287173 -0.00558289 0 -9.66325e-05 -0.0346673 0 0.0287173 -0.00558289 0 526.308 526.308 1001.25 
175 1 1 0.466635 0.0276271 0 0 0 0 0.0176591 -0.000334322 0 -0.0290023 -0.0518429 0 0.0176591 -0.000334322 0 453.563 453.563 1001.08 
176 1 1 0.476309 0.0181101 0 0 0 0 0.0186831 0.036186 0 0.0215269 -0.0164346 0 0.0186831 0.036186 0 503.413 503.413 1001.19 
177 1 1 0.484655 0.0133033 0 0 0 0 -0.00182404 -0.0127326 0 0.0183772 0.0235539 0 -0.00182404 -0.0127326 0 533.088 533.088 1001.26 
178 1 1 0.491802 0.0191215 0 0 0 0 -0.00304977 -0.000850531 0 -0.0289526 -0.0402225 0 -0.00304977 -0.000850531 0 514.699 514.699 1001.22 
179 1 1 0.194531 0.0446863 0 0 0 0 0.105365 -0.0431074 0 -0.0239781 0.0458262 0 0.105365 -0.0431074 0 216.829 216.829 1000.52 
180 1 1 0.211197 0.0325561 0 0 0 0 0.0902815 -0.030087 0 -0.0178906 -0.0191045 0 0.0902815 -0.030087 0 313.567 313.567 1000.74 
181 1 1 0.216492 0.0435507 0 0 0 0 0.127363 -0.0248131 0 -0.0423326 -0.0376753 0 0.127363 -0.0248131 0 246.273 246.273 1000.59 
182 1 1 0.222127 0.0365137 0 0 0 0 0.109004 -0.0178181 0 -0.0604762 -0.00560909 0 0.109004 -0.0178181 0 301.537 301.537 1000.72 
183 1 1 0.241777 0.0502332 0 0 0 0 0.133875 -0.0156049 0 0.0123798 -0.0230021 0 0.133875 -0.0156049 0 215.149 215.149 1000.51 
184 1 1 0.232918 0.0449805 0 0 0 0 0.149389 -0.0110859 0 -0.116112 0.00611627 0 0.149389 -0.0110859 0 257.746 257.746 1000.61 
185 1 1 0.231169 0.0337794 0 0 0 0 0.126265 0.00249898 0 0.0570327 0.0362548 0 0.126265 0.00249898 0 331.58 331.58 1000.79 
186 1 1 0.25354 0.0247216 0 0 0 0 0.128526 -0.0367816 0 0.0366289 0.0327427 0 0.128526 -0.0367816 0 420.636 420.636 1001 
187 1 1 0.271962 0.0336308 0 0 0 0 0.141341 0.0126285 0 0.00203704 -0.000411921 0 0.141341 0.0126285 0 333.056 333.056 1000.79 
188 1 1 0.276273 0.0438108 0 0 0 0 0.178617 -0.00312507 0 -0.111557 -0.0228118 0 0.178617 -0.00312507 0 268.206 268.206 1000.64 
189 1 1 0.290971 0.0367301 0 0 0 0 0.166019 -0.0468642 0 0.00168818 0.0282407 0 0.166019 -0.0468642 0 332.627 332.627 1000.79 
190 1 1 0.299369 0.0229912 0 0 0 0 0.145708 -0.0235519 0 -0.123845 -0.0131106 0 0.145708 -0.0235519 0 433.613 433.613 1001.03 
191 1 1 0.302289 0.0431969 0 0 0 0 0.146756 -0.0230872 0 -0.166271 0.0124997 0 0.146756 -0.0230872 0 298.942 298.942 1000.71 
192 1 1 0.300274 0.0334171 0 0 0 0 0.183279 -0.0240232 0 -0.0165483 -0.0148201 0 0.183279 -0.0240232 0 358.094 358.094 1000.85 
193 1 1 0.327426 0.0339874 0 0 0 0 0.199099 0.0123676 0 -0.088568 -0.0146242 0 0.199099 0.0123676 0 392.677 392.677 1000.93 
194 1 1 0.313536 0.0511658 0 0 0 0 0.140062 0.00671485 0 -0.068345 -0.114507 0 0.140062 0.00671485 0 215.258 215.258 1000.51 
195 1 1 0.332963 0.0421979 0 0 0 0 0.191721 -0.00342661 0 -0.10016 -0.0250794 0 0.191721 -0.00342661 0 335.953 335.953 1000.8 
196 1 1 0.340838 0.0338034 0 0 0 0 0.144047 0.0035483 0 -0.0753277 -0.0547834 0 0.144047 0.0035483 0 387.273 387.273 1000.92 
197 1 1 0.353162 0.0403368 0 0 0 0 0.186863 -0.00063531 0 -0.11943 0.0774333 0 0.186863 -0.00063531 0 367.438 367.438 1000.87 
198 1 1 0.357113 0.0326261 0 0 0 0 0.156595 -0.0140523 0 -0.103999 -0.141613 0 0.156595 -0.0140523 0 415.694 415.694 1000.99 
199 1 1 0.365559 0.0402907 0 0 0 0 0.177837 0.0430147 0 -0.0573 0.0772229 0 0.177837 0.0430147 0 351.514 351.514 1000.83 
200 1 1 0.357648 0.021112 0 0 0 0 0.139374 -0.00590031 0 -0.148132 0.0636902 0 0.139374 -0.00590031 0 508.691 508.691 1001.21 
201 1 1 0.383364 0.0248587 0 0 0 0 0.130035 0.0233594 0 -0.0932694 -0.103038 0 0.130035 0.0233594 0 478.765 478.765 1001.14 
202 1 1 0.373174 0.0411435 0 0 0 0 0.154406 0.00052398 0 -0.0297014 0.0173115 0 0.154406 0.00052398 0 353.858 353.858 1000.84 
203 1 1 0.382882 0.0362707 0 0 0 0 0.153187 0.0237638 0 0.097677 0.112152 0 0.153187 0.0237638 0 387.845 387.845 1000.92 
204 1 1 0.390422 0.0478076 0 0 0 0 0.140274 0.0981494 0 0.0225333 0.0915501 0 0.140274 0.0981494 0 351.964 351.964 1000.84 
205 1 1 0.399973 0.0175024 0 0 0 0 0.0896923 -0.0272927 0 -0.0589274 -0.0487055 0 0.0896923 -0.0272927 0 511.971 511.971 1001.21 
206 1 1 0.399217 0.0292286 0 0 0 0 0.14006 0.0303642 0 -0.0382884 -0.107081 0 0.14006 0.0303642 0 441.081 441.081 1001.05 
207 1 1 0.430184 0.0424808 0 0 0 0 0.0874645 0.0899478 0 0.0652526 0.143817 0 0.0874645 0.0899478 0 393.257 393.257 1000.93 
208 1 1 0.436686 0.0296121 0 0 0 0 0.0434161 0.0506107 0 0.00536202 0.0179307 0 0.0434161 0.0506107 0 448.16 448.16 1001.06 
209 1 1 0.421412 0.033749 0 0 0 0 0.0763329 0.00770701 0 0.0183368 -0.105637 0 0.0763329 0.00770701 0 419.818 419.818 1001 
210 1 1 0.447553 0.0340436 0 0 0 0 0.0619518 0.0425788 0 0.0476768 -0.0249844 0 0.0619518 0.0425788 0 428.656 428.656 1001.02 
211 1 1 0.427135 0.0274221 0 0 0 0 0.0600251 0.0333104 0 0.0357103 0.0166991 0 0.0600251 0.0333104 0 468.679 468.679 1001.11 
212 1 1 0.452955 0.0275822 0 0 0 0 0.0445439 -0.0182052 0 0.0688319 -0.0269143 0 0.0445439 -0.0182052 0 470.328 470.328 1001.12 
213 1 1 0.460624 0.0196379 0 0 0 0 0.0509384 -0.0151917 0 -0.00869742 -0.0242705 0 0.0509384 -0.0151917 0 516.833 516.833 1001.23 
214 1 1 0.471321 0.0381981 0 0 0 0 -0.00547005 -0.00662207 0 -0.0403804 0.00949165 0 -0.00547005 -0.00662207 0 384.221 384.221 1000.91 
215 1 1 0.485513 0.0256128 0 0 0 0 0.0358115 0.019627 0 0.0456103 -0.00683434 0 0.0358115 0.019627 0 468.015 468.015 1001.11 
216 1 1 0.475832 0.0285959 0 0 0 0 0.0464534 0.0234897 0 0.029694 0.0215939 0 0.0464534 0.0234897 0 434.93 434.93 1001.03 
217 1 1 0.489866 0.0343221 0 0 0 0 -0.00410355 0.0209731 0 0.0523364 -0.0103571 0 -0.00410355 0.0209731 0 422.767 422.767 1001 
218 1 1 0.211457 0.0517669 0 0 0 0 0.103198 -0.00636759 0 0.000510603 0.0113246 0 0.103198 -0.00636759 0 195.662 195.662 1000.47 
219 1 1 0.158449 0.0434188 0 0 0 0 0.0815327 -0.0272077 0 0.000132158 -0.0543473 0 0.0815327 -0.0272077 0 228.237 228.237 1000.54 
220 1 1 0.185104 0.0455672 0 0 0 0 0.084652 -0.0365845 0 -0.0723445 0.0228977 0 0.084652 -0.0365845 0 214.51 214.51 1000.51 
221 1 1 0.224982 0.0512395 0 0 0 0 0.118052 -0.0371815 0 -0.0500304 0.000794107 0 0.118052 -0.0371815 0 218.253 218.253 1000.52 
222 1 1 0.204973 0.041234 0 0 0 0 0.135397 0.0124487 0 -0.0563579 0.0186187 0 0.135397 0.0124487 0 240.287 240.287 1000.57 
223 1 1 0.252321 0.0434449 0 0 0 0 0.126605 -0.0122369 0 0.00493473 -0.00549882 0 0.126605 -0.0122369 0 275.212 275.212 1000.65 
224 1 1 0.26044 0.0338031 0 0 0 0 0.108137 -0.00876201 0 -0.160518 0.00224921 0 0.108137 -0.00876201 0 340.612 340.612 1000.81 
225 1 1 0.264241 0.0420086 0 0 0 0 0.15447 -0.0353994 0 -0.044935 0.0971403 0 0.15447 -0.0353994 0 286.762 286.762 1000.68 
226 1 1 0.277129 0.0525873 0 0 0 0 0.139658 -0.0266388 0 -0.090237 0.0595643 0 0.139658 -0.0266388 0 218.667 218.667 1000.52 
227 1 1 0.290719 0.0254611 0 0 0 0 0.139248 -0.0252014 0 -0.139457 -0.00790486 0 0.139248 -0.0252014 0 414.362 414.362 1000.98 
228 1 1 0.288052 0.0458702 0 0 0 0 0.166773 -0.0404423 0 -0.0251378 -0.0328465 0 0.166773 -0.0404423 0 264.359 264.359 1000.63 
229 1 1 0.299264 0.0519037 0 0 0 0 0.155005 -0.025432 0 -0.0624588 0.0736787 0 0.155005 -0.025432 0 243.319 243.319 1000.58 
230 1 1 0.311199 0.0396611 0 0 0 0 0.172322 -0.0115885 0 -0.093172 -0.019299 0 0.172322 -0.0115885 0 321.75 321.75 1000.76 
231 1 1 0.317226 0.0314171 0 0 0 0 0.186115 0.0132635 0 -0.018491 -0.0545864 0 0.186115 0.0132635 0 385.088 385.088 1000.91 
232 1 1 0.320598 0.0431655 0 0 0 0 0.147587 -0.0183015 0 -0.0261364 0.0537064 0 0.147587 -0.0183015 0 308.533 308.533 1000.73 