ITEM: TIMESTEP
175000
ITEM: NUMBER OF ATOMS
754
ITEM: BOX BOUNDS ff ff pp
-0.021 0.521
-0.021 0.5
-0.001 0.001
ITEM: ATOMS id type type x y z ix iy iz vx vy vz fx fy fz vx vy vz p p rho 
1 1 1 0.00660293 0.0031412 0 0 0 0 0.00107737 -0.00851198 0 0.00195829 -0.0159231 0 0.00107737 -0.00851198 0 481.694 481.694 1001.14 
2 1 1 0.0272493 0.00435592 0 0 0 0 0.0164805 8.51933e-05 0 0.0339043 0.0146034 0 0.0164805 8.51933e-05 0 464.416 464.416 1001.1 
3 1 1 0.0604253 0.00639919 0 0 0 0 0.00952768 0.00577596 0 0.0407459 -4.8027e-05 0 0.00952768 0.00577596 0 447.533 447.533 1001.06 
4 1 1 0.0745588 0.00502093 0 0 0 0 0.00964299 -0.00458733 0 0.0406847 -0.0171508 0 0.00964299 -0.00458733 0 458.801 458.801 1001.09 
5 1 1 0.0921753 0.0054743 0 0 0 0 0.0152412 0.0053991 0 0.0572965 0.0208566 0 0.0152412 0.0053991 0 444.612 444.612 1001.06 
6 1 1 0.107459 0.00585082 0 0 0 0 -0.0128388 -0.00585619 0 0.0617991 -0.000258695 0 -0.0128388 -0.00585619 0 468.424 468.424 1001.11 
7 1 1 0.156459 0.00547277 0 0 0 0 0.0365009 -0.00182312 0 0.00114451 0.0417247 0 0.0365009 -0.00182312 0 473.96 473.96 1001.12 
8 1 1 0.135286 0.0130349 0 0 0 0 -0.00542997 0.00407524 0 -0.0198064 0.0519369 0 -0.00542997 0.00407524 0 426.448 426.448 1001.01 
9 1 1 0.186914 0.00518649 0 0 0 0 0.0338275 0.000171739 0 -0.0384864 0.014943 0 0.0338275 0.000171739 0 486.054 486.054 1001.15 
10 1 1 0.201207 0.00647299 0 0 0 0 0.0321819 0.00513574 0 -0.0818016 -0.002351 0 0.0321819 0.00513574 0 463.832 463.832 1001.1 
11 1 1 0.0297922 0.0161163 0 0 0 0 0.0227811 -0.0105146 0 -0.0171701 0.029014 0 0.0227811 -0.0105146 0 399.835 399.835 1000.95 
12 1 1 0.0471312 0.00568452 0 0 0 0 0.0180682 -0.00159299 0 0.0411921 -0.00684131 0 0.0180682 -0.00159299 0 448.823 448.823 1001.07 
13 1 1 0.0680667 0.013879 0 0 0 0 0.0368622 -0.000414377 0 -0.0521306 0.032795 0 0.0368622 -0.000414377 0 401.432 401.432 1000.95 
14 1 1 0.0841718 0.0112209 0 0 0 0 0.00537566 -0.00840902 0 0.00694642 -0.00165984 0 0.00537566 -0.00840902 0 424.113 424.113 1001.01 
15 1 1 0.101652 0.0134264 0 0 0 0 0.02444 0.0295356 0 0.0280498 -0.0595461 0 0.02444 0.0295356 0 405.469 405.469 1000.96 
16 1 1 0.139687 0.00597316 0 0 0 0 -0.011993 0.000547429 0 0.0773189 -0.00476344 0 -0.011993 0.000547429 0 460.788 460.788 1001.09 
17 1 1 0.147736 0.0189518 0 0 0 0 0.0330266 -0.0229951 0 -0.0217595 -6.2115e-05 0 0.0330266 -0.0229951 0 379.025 379.025 1000.9 
18 1 1 0.170138 0.00604662 0 0 0 0 0.0195497 0.00137238 0 -0.0828107 -0.00584248 0 0.0195497 0.00137238 0 438.747 438.747 1001.04 
19 1 1 0.195822 0.0140159 0 0 0 0 0.0771379 -0.0125931 0 -0.0258136 0.0177277 0 0.0771379 -0.0125931 0 425.668 425.668 1001.01 
20 1 1 0.188856 0.016642 0 0 0 0 0.0486219 -0.000815675 0 -0.140842 0.0488341 0 0.0486219 -0.000815675 0 406.398 406.398 1000.96 
21 1 1 0.0299987 0.0292433 0 0 0 0 0.0192784 -0.0186588 0 0.0051701 -0.0393664 0 0.0192784 -0.0186588 0 303.784 303.784 1000.72 
22 1 1 0.0382349 0.00972315 0 0 0 0 0.00969301 -0.00131343 0 -0.0144588 -0.0221206 0 0.00969301 -0.00131343 0 433.484 433.484 1001.03 
23 1 1 0.0564669 0.0143311 0 0 0 0 0.0228581 -0.0111216 0 -0.00544038 0.0183217 0 0.0228581 -0.0111216 0 416.298 416.298 1000.99 
24 1 1 0.0788504 0.0278976 0 0 0 0 0.0348629 0.00840378 0 0.0532674 0.0117053 0 0.0348629 0.00840378 0 298.369 298.369 1000.71 
25 1 1 0.068807 0.0255898 0 0 0 0 0.0148104 0.0302671 0 0.0405985 0.0179358 0 0.0148104 0.0302671 0 309.849 309.849 1000.74 
26 1 1 0.124539 0.00505252 0 0 0 0 -0.00427572 -0.00154289 0 0.0163511 -0.018756 0 -0.00427572 -0.00154289 0 459.477 459.477 1001.09 
27 1 1 0.126416 0.015884 0 0 0 0 -0.00651631 0.0102775 0 0.0266669 -0.0561285 0 -0.00651631 0.0102775 0 400.591 400.591 1000.95 
28 1 1 0.1649 0.0144605 0 0 0 0 0.0342579 -0.000418861 0 -0.0023235 0.00103216 0 0.0342579 -0.000418861 0 394.347 394.347 1000.94 
29 1 1 0.17841 0.0118826 0 0 0 0 0.0576544 -0.012182 0 0.0114096 -0.038645 0 0.0576544 -0.012182 0 447.635 447.635 1001.06 
30 1 1 0.197 0.0244568 0 0 0 0 0.0548895 -0.0170293 0 -0.0217864 -0.0274633 0 0.0548895 -0.0170293 0 344.213 344.213 1000.82 
31 1 1 0.0186508 0.0103568 0 0 0 0 0.00937467 -0.00288002 0 -0.0052292 -0.0291074 0 0.00937467 -0.00288002 0 431.152 431.152 1001.02 
32 1 1 0.038014 0.0186029 0 0 0 0 0.0568699 0.00769732 0 0.0313837 -0.0246153 0 0.0568699 0.00769732 0 380.978 380.978 1000.9 
33 1 1 0.0618591 0.033729 0 0 0 0 0.00953232 0.0158273 0 -0.0185386 0.00578686 0 0.00953232 0.0158273 0 255.855 255.855 1000.61 
34 1 1 0.0861178 0.0191224 0 0 0 0 0.0146243 -0.00178618 0 -0.0170366 -0.00968064 0 0.0146243 -0.00178618 0 380.975 380.975 1000.9 
35 1 1 0.122247 0.0241255 0 0 0 0 0.0433876 -0.0156053 0 -0.0119158 -0.000161297 0 0.0433876 -0.0156053 0 343.192 343.192 1000.82 
36 1 1 0.136093 0.0221683 0 0 0 0 0.0726692 -0.0129914 0 -0.0841235 0.00410353 0 0.0726692 -0.0129914 0 378.041 378.041 1000.9 
37 1 1 0.148989 0.0120278 0 0 0 0 -0.00110804 -0.0371672 0 -0.0995102 0.00501904 0 -0.00110804 -0.0371672 0 434.312 434.312 1001.03 
38 1 1 0.176244 0.0184057 0 0 0 0 0.0571569 -0.0117321 0 -0.00101489 0.0455545 0 0.0571569 -0.0117321 0 409.753 409.753 1000.97 
39 1 1 0.193469 0.0318231 0 0 0 0 0.0492473 -0.0175275 0 -0.0112689 0.0518908 0 0.0492473 -0.0175275 0 282.216 282.216 1000.67 
40 1 1 0.154067 0.0316842 0 0 0 0 0.0253333 -0.0361012 0 -0.0237909 0.0407089 0 0.0253333 -0.0361012 0 301.696 301.696 1000.72 
41 1 1 0.0113363 0.0138937 0 0 0 0 -0.000667768 -0.0104958 0 -0.0165321 0.0222365 0 -0.000667768 -0.0104958 0 415.604 415.604 1000.99 
42 1 1 0.0319253 0.0437103 0 0 0 0 0.018928 -0.0249101 0 0.00229252 -0.0194381 0 0.018928 -0.0249101 0 185.421 185.421 1000.44 
43 1 1 0.0484352 0.0168844 0 0 0 0 0.0132043 0.00694699 0 -0.00912716 -0.026736 0 0.0132043 0.00694699 0 397.101 397.101 1000.94 
44 1 1 0.0755845 0.0356669 0 0 0 0 0.0306311 0.00920387 0 0.0439758 -0.0343674 0 0.0306311 0.00920387 0 259.622 259.622 1000.62 
45 1 1 0.0957642 0.0173722 0 0 0 0 0.00529971 -0.0123949 0 -0.0335678 -0.00555423 0 0.00529971 -0.0123949 0 386.371 386.371 1000.92 
46 1 1 0.112769 0.0280377 0 0 0 0 0.048768 0.00186963 0 0.0269918 -0.0277852 0 0.048768 0.00186963 0 307.358 307.358 1000.73 
47 1 1 0.158806 0.0179055 0 0 0 0 0.00990676 -0.0120495 0 0.0247855 0.0123017 0 0.00990676 -0.0120495 0 375.864 375.864 1000.89 
48 1 1 0.184092 0.0261851 0 0 0 0 0.0452068 -0.0120798 0 -0.00961575 -0.00206031 0 0.0452068 -0.0120798 0 338.524 338.524 1000.8 
49 1 1 0.182538 0.0350095 0 0 0 0 0.0127419 -0.0255265 0 -0.0609377 0.00453304 0 0.0127419 -0.0255265 0 262.645 262.645 1000.62 
50 1 1 0.161714 0.051622 0 0 0 0 0.0582632 -0.02426 0 -0.00615073 -0.0138503 0 0.0582632 -0.02426 0 134.354 134.354 1000.32 
51 1 1 0.0218751 0.0192231 0 0 0 0 0.028992 -0.0133613 0 -0.00616674 -0.00670111 0 0.028992 -0.0133613 0 398.438 398.438 1000.95 
52 1 1 0.039589 0.0283531 0 0 0 0 0.0240108 -0.0112306 0 0.0641028 -0.0328188 0 0.0240108 -0.0112306 0 308.961 308.961 1000.73 
53 1 1 0.0604191 0.0232989 0 0 0 0 0.049299 -0.0140009 0 -0.00521751 -0.0150353 0 0.049299 -0.0140009 0 360.605 360.605 1000.86 
54 1 1 0.0894327 0.0285463 0 0 0 0 0.0354747 -0.0120145 0 0.016776 -0.0148456 0 0.0354747 -0.0120145 0 313.369 313.369 1000.74 
55 1 1 0.0956827 0.0342749 0 0 0 0 0.000206354 0.036045 0 0.0432586 0.0108598 0 0.000206354 0.036045 0 249.864 249.864 1000.59 
56 1 1 0.106342 0.0342518 0 0 0 0 0.0254932 -0.0259592 0 -0.0135626 0.0111092 0 0.0254932 -0.0259592 0 269.415 269.415 1000.64 
57 1 1 0.144574 0.0275554 0 0 0 0 0.0233828 0.0104931 0 -0.00472145 0.0135237 0 0.0233828 0.0104931 0 325.337 325.337 1000.77 
58 1 1 0.12993 0.0299338 0 0 0 0 0.0628758 -0.0177358 0 0.0787217 0.0566732 0 0.0628758 -0.0177358 0 289.439 289.439 1000.69 
59 1 1 0.171203 0.0346868 0 0 0 0 0.048422 -0.00153879 0 0.00323437 0.0277113 0 0.048422 -0.00153879 0 275.969 275.969 1000.66 
60 1 1 0.175345 0.0443707 0 0 0 0 0.0697496 0.00397894 0 -0.0671031 0.060943 0 0.0697496 0.00397894 0 223.244 223.244 1000.53 
61 1 1 0.0495739 0.0261593 0 0 0 0 0.0794796 0.00344335 0 0.0429848 0.0164825 0 0.0794796 0.00344335 0 324.606 324.606 1000.77 
62 1 1 0.00877396 0.0215914 0 0 0 0 0.0124836 -0.0187838 0 0.0363811 -0.011091 0 0.0124836 -0.0187838 0 370.584 370.584 1000.88 
63 1 1 0.0753384 0.0169763 0 0 0 0 0.0132975 0.0194063 0 -0.0211852 -0.0569154 0 0.0132975 0.0194063 0 370.269 370.269 1000.88 
64 1 1 0.0447344 0.0457584 0 0 0 0 0.0481182 -0.013607 0 0.00406326 0.0119609 0 0.0481182 -0.013607 0 189.085 189.085 1000.45 
65 1 1 0.087831 0.0399475 0 0 0 0 0.0241111 0.00488784 0 -0.0586983 0.0162062 0 0.0241111 0.00488784 0 217.954 217.954 1000.52 
66 1 1 0.116718 0.0122748 0 0 0 0 -0.00375702 -0.0093018 0 0.00969695 0.0334978 0 -0.00375702 -0.0093018 0 429.433 429.433 1001.02 
67 1 1 0.121287 0.035556 0 0 0 0 0.0448566 -0.0154714 0 -0.0376944 -0.017597 0 0.0448566 -0.0154714 0 254.65 254.65 1000.61 
68 1 1 0.161159 0.0272416 0 0 0 0 0.0473096 -0.0157055 0 -0.0501353 0.00253324 0 0.0473096 -0.0157055 0 334.128 334.128 1000.79 
69 1 1 0.171577 0.0256424 0 0 0 0 0.0270698 -0.0433717 0 -0.0595636 0.0371804 0 0.0270698 -0.0433717 0 353.685 353.685 1000.84 
70 1 1 0.184502 0.0520645 0 0 0 0 0.024571 0.00933096 0 -0.0417012 0.0356938 0 0.024571 0.00933096 0 200.211 200.211 1000.48 
71 1 1 0.0116885 0.0304216 0 0 0 0 -0.0307383 -0.0078654 0 -0.0500733 0.0579686 0 -0.0307383 -0.0078654 0 308.117 308.117 1000.73 
72 1 1 0.0375068 0.0548859 0 0 0 0 0.0207144 -0.0366847 0 0.0410159 0.0102228 0 0.0207144 -0.0366847 0 128.772 128.772 1000.31 
73 1 1 0.0211732 0.0391143 0 0 0 0 -0.00143609 -0.0597482 0 0.0476659 -0.057088 0 -0.00143609 -0.0597482 0 248.333 248.333 1000.59 
74 1 1 0.0508894 0.0347389 0 0 0 0 -0.00132173 0.00535477 0 0.00976454 0.039666 0 -0.00132173 0.00535477 0 279.788 279.788 1000.66 
75 1 1 0.0776837 0.0457654 0 0 0 0 -0.0142449 0.00538408 0 0.0334857 0.0424827 0 -0.0142449 0.00538408 0 208.069 208.069 1000.49 
76 1 1 0.111728 0.0178672 0 0 0 0 0.00710376 0.00464853 0 -0.0186356 0.0337198 0 0.00710376 0.00464853 0 381.028 381.028 1000.9 
77 1 1 0.10207 0.024653 0 0 0 0 0.0118975 0.0216242 0 -0.0518812 -0.00175133 0 0.0118975 0.0216242 0 307.389 307.389 1000.73 
78 1 1 0.153566 0.0429558 0 0 0 0 0.0534069 -0.0168041 0 -0.139327 -0.0139938 0 0.0534069 -0.0168041 0 224.894 224.894 1000.53 
79 1 1 0.141974 0.035832 0 0 0 0 0.0448311 0.0256801 0 0.0251779 0.0246714 0 0.0448311 0.0256801 0 264.182 264.182 1000.63 
80 1 1 0.149744 0.0575765 0 0 0 0 0.0691117 -0.00796536 0 0.0118751 0.0654167 0 0.0691117 -0.00796536 0 170.047 170.047 1000.4 
81 1 1 0.0214019 0.0289117 0 0 0 0 -0.0125313 -0.0508412 0 -0.0219953 -0.0126481 0 -0.0125313 -0.0508412 0 318.887 318.887 1000.76 
82 1 1 0.00996991 0.0405962 0 0 0 0 0.0104053 0.00667384 0 0.0307656 0.00814759 0 0.0104053 0.00667384 0 232.878 232.878 1000.55 
83 1 1 0.037826 0.0375655 0 0 0 0 -0.00436931 -0.0306584 0 0.0443288 -0.0422001 0 -0.00436931 -0.0306584 0 236.626 236.626 1000.56 
84 1 1 0.0216394 0.0487378 0 0 0 0 0.0222778 -0.0613065 0 0.00296736 -0.0584175 0 0.0222778 -0.0613065 0 182.287 182.287 1000.43 
85 1 1 0.0663963 0.0422256 0 0 0 0 0.0306688 0.0131687 0 -0.00950293 -0.00300007 0 0.0306688 0.0131687 0 211.746 211.746 1000.5 
86 1 1 0.102126 0.0453699 0 0 0 0 0.0267576 0.00717253 0 -0.0321194 -0.0588948 0 0.0267576 0.00717253 0 184.811 184.811 1000.44 
87 1 1 0.1118 0.0426752 0 0 0 0 0.0154836 -0.0443099 0 0.0583809 0.0234028 0 0.0154836 -0.0443099 0 182.861 182.861 1000.43 
88 1 1 0.124129 0.0455317 0 0 0 0 0.0431842 -0.0173578 0 0.0208623 0.0286177 0 0.0431842 -0.0173578 0 226.681 226.681 1000.54 
89 1 1 0.133759 0.0408342 0 0 0 0 0.0195749 0.00118811 0 -0.0675918 0.0205347 0 0.0195749 0.00118811 0 223.118 223.118 1000.53 
90 1 1 0.142345 0.047746 0 0 0 0 0.0846621 -0.0106664 0 -0.0460345 0.110363 0 0.0846621 -0.0106664 0 215.031 215.031 1000.51 
91 1 1 0.0521436 0.0588142 0 0 0 0 -0.013485 0.0209648 0 0.012128 -0.022796 0 -0.013485 0.0209648 0 152.655 152.655 1000.36 
92 1 1 0.0255497 0.0593918 0 0 0 0 -0.0184641 -0.045121 0 0.0172762 -0.0370204 0 -0.0184641 -0.045121 0 107.928 107.928 1000.26 
93 1 1 0.012068 0.0532029 0 0 0 0 0.00514266 -0.0203103 0 0.00740825 0.00207744 0 0.00514266 -0.0203103 0 132.558 132.558 1000.32 
94 1 1 0.0649181 0.0531433 0 0 0 0 -0.0148521 0.0303783 0 0.0710334 0.0438626 0 -0.0148521 0.0303783 0 115.829 115.829 1000.28 
95 1 1 0.0795013 0.0586282 0 0 0 0 0.0370163 -0.0154127 0 0.00387194 0.05275 0 0.0370163 -0.0154127 0 215.791 215.791 1000.51 
96 1 1 0.102977 0.0582055 0 0 0 0 0.0304988 -0.0126368 0 -0.016674 0.0423727 0 0.0304988 -0.0126368 0 187.313 187.313 1000.45 
97 1 1 0.0549196 0.0452838 0 0 0 0 0.0275792 0.0101075 0 0.0602188 -0.00352434 0 0.0275792 0.0101075 0 231.683 231.683 1000.55 
98 1 1 0.0912945 0.0500878 0 0 0 0 0.0389382 0.0132383 0 -0.00451663 0.0493323 0 0.0389382 0.0132383 0 184.324 184.324 1000.44 
99 1 1 0.116668 0.0538186 0 0 0 0 0.0580233 -0.0213152 0 -0.109168 0.0153794 0 0.0580233 -0.0213152 0 121.389 121.389 1000.29 
100 1 1 0.130885 0.0580527 0 0 0 0 0.0302595 -0.0208056 0 0.105517 0.0177177 0 0.0302595 -0.0208056 0 213.754 213.754 1000.51 
101 1 1 0.20681 0.015313 0 0 0 0 0.0776831 0.0167735 0 -0.0745121 -0.00617585 0 0.0776831 0.0167735 0 399.953 399.953 1000.95 
102 1 1 0.215158 0.0176038 0 0 0 0 0.0758591 0.01273 0 -0.0177129 -0.0439136 0 0.0758591 0.01273 0 392.631 392.631 1000.93 
103 1 1 0.221614 0.0242624 0 0 0 0 0.101955 -0.00871499 0 -0.0312759 0.000552681 0 0.101955 -0.00871499 0 350.089 350.089 1000.83 
104 1 1 0.213588 0.00641919 0 0 0 0 0.0290948 -0.00817059 0 -0.0567903 -0.0310368 0 0.0290948 -0.00817059 0 463.384 463.384 1001.1 
105 1 1 0.223417 0.00905874 0 0 0 0 0.0390775 -0.00817017 0 -0.0405537 0.0174353 0 0.0390775 -0.00817017 0 471.546 471.546 1001.12 
106 1 1 0.23488 0.00524243 0 0 0 0 0.063472 -0.00291216 0 -0.0951801 -0.00888727 0 0.063472 -0.00291216 0 482.02 482.02 1001.14 
107 1 1 0.242981 0.0130558 0 0 0 0 0.0347178 0.0240964 0 -0.0306542 0.00811367 0 0.0347178 0.0240964 0 444.598 444.598 1001.06 
108 1 1 0.250018 0.00595554 0 0 0 0 0.0263724 0.00397183 0 -0.012467 -0.0186614 0 0.0263724 0.00397183 0 475.523 475.523 1001.13 
109 1 1 0.257274 0.0124958 0 0 0 0 0.0629243 -0.00913973 0 -0.0752088 0.0135836 0 0.0629243 -0.00913973 0 478.887 478.887 1001.14 
110 1 1 0.267429 0.0155304 0 0 0 0 0.0876555 -0.000866032 0 -0.078445 0.0298868 0 0.0876555 -0.000866032 0 457.05 457.05 1001.08 
111 1 1 0.266081 0.00529232 0 0 0 0 0.0392406 -0.0117141 0 -0.0244312 0.0317949 0 0.0392406 -0.0117141 0 524.344 524.344 1001.24 
112 1 1 0.276948 0.0100997 0 0 0 0 0.04779 0.00700038 0 -0.0909277 -0.0483188 0 0.04779 0.00700038 0 472.64 472.64 1001.12 
113 1 1 0.286353 0.0055184 0 0 0 0 0.0454269 -0.0107816 0 -0.0447268 0.0055574 0 0.0454269 -0.0107816 0 512.608 512.608 1001.22 
114 1 1 0.296057 0.0152896 0 0 0 0 0.0693044 -0.00701225 0 -0.110669 -0.0216099 0 0.0693044 -0.00701225 0 481.261 481.261 1001.14 
115 1 1 0.319101 0.027525 0 0 0 0 0.123239 -0.00534467 0 -0.0081307 -0.00712285 0 0.123239 -0.00534467 0 405.393 405.393 1000.96 
116 1 1 0.300092 0.0064101 0 0 0 0 0.0578907 0.00139043 0 -0.0777093 -0.00988838 0 0.0578907 0.00139043 0 528.516 528.516 1001.25 
117 1 1 0.31516 0.00537124 0 0 0 0 0.0859147 -0.019248 0 -0.0765306 0.0128494 0 0.0859147 -0.019248 0 542.164 542.164 1001.29 
118 1 1 0.323627 0.0119177 0 0 0 0 0.0849325 -0.00122334 0 -0.0386841 0.0188806 0 0.0849325 -0.00122334 0 505.474 505.474 1001.2 
119 1 1 0.332158 0.00532076 0 0 0 0 0.106557 -0.00195864 0 -0.0488059 -0.0673009 0 0.106557 -0.00195864 0 535.852 535.852 1001.27 
120 1 1 0.346266 0.0224947 0 0 0 0 0.0628315 0.0170912 0 -0.117651 0.0135386 0 0.0628315 0.0170912 0 467.025 467.025 1001.11 
121 1 1 0.342951 0.0124902 0 0 0 0 0.104568 0.01722 0 -0.0617302 -0.0237852 0 0.104568 0.01722 0 529.743 529.743 1001.26 
122 1 1 0.34895 0.00552291 0 0 0 0 0.0809259 0.00832802 0 -0.0583095 0.0357901 0 0.0809259 0.00832802 0 553.654 553.654 1001.31 
123 1 1 0.371594 0.0153033 0 0 0 0 0.0995797 0.00972705 0 -0.0576461 -0.0316396 0 0.0995797 0.00972705 0 540.316 540.316 1001.28 
124 1 1 0.36484 0.00565426 0 0 0 0 0.0731689 -0.0194025 0 -0.024995 0.0174098 0 0.0731689 -0.0194025 0 563.5 563.5 1001.34 
125 1 1 0.377542 0.00743002 0 0 0 0 0.0754437 0.00393589 0 -0.0696513 -0.0368436 0 0.0754437 0.00393589 0 563.841 563.841 1001.34 
126 1 1 0.387592 0.0169166 0 0 0 0 0.110447 0.018181 0 -0.0875742 0.0399844 0 0.110447 0.018181 0 530.533 530.533 1001.26 
127 1 1 0.388899 0.0059431 0 0 0 0 0.0740081 -0.00483905 0 0.0182516 0.0223348 0 0.0740081 -0.00483905 0 567.853 567.853 1001.35 
128 1 1 0.395756 0.0128688 0 0 0 0 0.0575549 0.0295837 0 -0.0593969 -0.0173994 0 0.0575549 0.0295837 0 542.701 542.701 1001.29 
129 1 1 0.41508 0.0114496 0 0 0 0 0.0856999 0.00891305 0 -0.0408943 0.120784 0 0.0856999 0.00891305 0 603.092 603.092 1001.43 
130 1 1 0.421566 0.00647146 0 0 0 0 0.0637596 0.0268213 0 -0.0554924 -0.0477323 0 0.0637596 0.0268213 0 614.097 614.097 1001.46 
131 1 1 0.435411 0.005493 0 0 0 0 0.0387546 0.00764107 0 0.00290974 0.113265 0 0.0387546 0.00764107 0 651.705 651.705 1001.54 
132 1 1 0.429799 0.0141193 0 0 0 0 0.0704197 -0.0222455 0 -0.0110735 -0.0533645 0 0.0704197 -0.0222455 0 590.1 590.1 1001.4 
133 1 1 0.442836 0.0139205 0 0 0 0 0.0638537 -0.0023567 0 -0.0839846 -0.143654 0 0.0638537 -0.0023567 0 587.279 587.279 1001.39 
134 1 1 0.450217 0.0180074 0 0 0 0 0.0285193 0.0662834 0 0.0700302 0.0721951 0 0.0285193 0.0662834 0 561.104 561.104 1001.33 
135 1 1 0.449784 0.00571513 0 0 0 0 0.0265797 0.00741427 0 -0.000531445 0.0388601 0 0.0265797 0.00741427 0 615.229 615.229 1001.46 
136 1 1 0.45784 0.0124667 0 0 0 0 0.00226547 0.0144857 0 -0.023113 -0.0236306 0 0.00226547 0.0144857 0 604.482 604.482 1001.43 
137 1 1 0.465591 0.00503524 0 0 0 0 -0.00280272 0.0016359 0 -0.00375374 0.0176281 0 -0.00280272 0.0016359 0 617.096 617.096 1001.46 
138 1 1 0.479093 0.00661507 0 0 0 0 0.0148926 -0.00348952 0 -0.00285033 0.00307534 0 0.0148926 -0.00348952 0 614.03 614.03 1001.46 
139 1 1 0.49268 0.00537204 0 0 0 0 -0.000801137 0.000188689 0 0.00462491 0.0120197 0 -0.000801137 0.000188689 0 605.557 605.557 1001.44 
140 1 1 0.205611 0.0339204 0 0 0 0 0.0571851 -0.0134391 0 -0.0731241 -0.0186096 0 0.0571851 -0.0134391 0 265.547 265.547 1000.63 
141 1 1 0.206959 0.0248207 0 0 0 0 0.0588585 0.00108797 0 -0.0156119 -0.0490448 0 0.0588585 0.00108797 0 347.585 347.585 1000.83 
142 1 1 0.249709 0.0375871 0 0 0 0 0.0890029 0.01257 0 -0.0506302 0.0203505 0 0.0890029 0.01257 0 289.515 289.515 1000.69 
143 1 1 0.232957 0.0261271 0 0 0 0 0.122032 0.012357 0 -0.0358782 -0.000836257 0 0.122032 0.012357 0 361.716 361.716 1000.86 
144 1 1 0.245055 0.026349 0 0 0 0 0.113022 -0.00619618 0 -0.0617149 -0.0280373 0 0.113022 -0.00619618 0 366.069 366.069 1000.87 
145 1 1 0.227287 0.0156669 0 0 0 0 0.0456843 -0.0259024 0 -0.00628848 0.0229079 0 0.0456843 -0.0259024 0 436.611 436.611 1001.04 
146 1 1 0.255641 0.0301129 0 0 0 0 0.0684837 -0.0283805 0 -0.0500566 0.0334729 0 0.0684837 -0.0283805 0 362.005 362.005 1000.86 
147 1 1 0.236736 0.017473 0 0 0 0 0.047801 0.0141223 0 -0.0080169 -0.0516111 0 0.047801 0.0141223 0 423.611 423.611 1001.01 
148 1 1 0.251002 0.0191382 0 0 0 0 0.088995 -0.0321773 0 -0.0461366 0.0154401 0 0.088995 -0.0321773 0 444.049 444.049 1001.05 
149 1 1 0.272949 0.0266423 0 0 0 0 0.0804421 0.027528 0 -0.0671413 -0.0161856 0 0.0804421 0.027528 0 369.841 369.841 1000.88 
150 1 1 0.290865 0.0333947 0 0 0 0 0.0972193 0.0138452 0 -0.0639164 0.0402628 0 0.0972193 0.0138452 0 323.584 323.584 1000.77 
151 1 1 0.277442 0.0185006 0 0 0 0 0.100072 0.000135797 0 -0.0429094 -0.00918879 0 0.100072 0.000135797 0 424.459 424.459 1001.01 
152 1 1 0.285779 0.0251385 0 0 0 0 0.0746232 0.00218605 0 -0.0502795 -0.00966208 0 0.0746232 0.00218605 0 385.132 385.132 1000.91 
153 1 1 0.287786 0.0154518 0 0 0 0 0.0795332 -0.00844715 0 -0.0229759 0.0456997 0 0.0795332 -0.00844715 0 462.526 462.526 1001.1 
154 1 1 0.307127 0.0131069 0 0 0 0 0.0661963 -0.0134526 0 -0.0372841 0.0121788 0 0.0661963 -0.0134526 0 489.644 489.644 1001.16 
155 1 1 0.327185 0.0210426 0 0 0 0 0.0514056 -0.0300054 0 -0.0413228 -0.0713857 0 0.0514056 -0.0300054 0 465.152 465.152 1001.1 
156 1 1 0.316514 0.0170441 0 0 0 0 0.0546876 -0.0154773 0 -0.102056 -0.0263245 0 0.0546876 -0.0154773 0 471.02 471.02 1001.12 
157 1 1 0.335073 0.014722 0 0 0 0 0.0826799 -0.00529171 0 -0.0519811 0.0515325 0 0.0826799 -0.00529171 0 512.449 512.449 1001.22 
158 1 1 0.337739 0.0255182 0 0 0 0 0.0610423 -0.0125022 0 -0.0464349 -0.0465779 0 0.0610423 -0.0125022 0 439.603 439.603 1001.04 
159 1 1 0.357386 0.0290736 0 0 0 0 0.101996 0.0177233 0 -0.0204899 0.00544326 0 0.101996 0.0177233 0 432.236 432.236 1001.03 
160 1 1 0.353722 0.017955 0 0 0 0 0.0934147 -0.00714516 0 -0.0546103 0.011927 0 0.0934147 -0.00714516 0 498.911 498.911 1001.18 
161 1 1 0.358302 0.0124885 0 0 0 0 0.0781582 0.0143358 0 -0.0482333 -0.0197277 0 0.0781582 0.0143358 0 530.513 530.513 1001.26 
162 1 1 0.37519 0.0287143 0 0 0 0 0.100493 0.00138371 0 -0.0846286 -0.0584896 0 0.100493 0.00138371 0 459.204 459.204 1001.09 
163 1 1 0.379999 0.0181414 0 0 0 0 0.0917877 -0.0209395 0 -0.0568715 0.0295632 0 0.0917877 -0.0209395 0 526.493 526.493 1001.25 
164 1 1 0.401016 0.0335624 0 0 0 0 0.121968 -0.0251169 0 -0.0100272 0.0167738 0 0.121968 -0.0251169 0 435.429 435.429 1001.03 
165 1 1 0.404731 0.00547582 0 0 0 0 0.0560785 -0.0157997 0 -0.061158 -0.104606 0 0.0560785 -0.0157997 0 608.087 608.087 1001.44 
166 1 1 0.399327 0.0224933 0 0 0 0 0.108299 0.0163734 0 -0.0202494 -0.0986238 0 0.108299 0.0163734 0 489.204 489.204 1001.16 
167 1 1 0.414332 0.0379102 0 0 0 0 0.0908509 0.0362262 0 -0.0233859 -0.116866 0 0.0908509 0.0362262 0 394.921 394.921 1000.94 
168 1 1 0.424538 0.019786 0 0 0 0 0.0794944 0.0434125 0 -0.063815 -0.0746601 0 0.0794944 0.0434125 0 544.195 544.195 1001.29 
169 1 1 0.423605 0.0433595 0 0 0 0 0.107748 0.0168343 0 -0.223495 0.135738 0 0.107748 0.0168343 0 389.96 389.96 1000.93 
170 1 1 0.414659 0.0212599 0 0 0 0 0.0738771 -0.0191714 0 -0.128346 -0.157152 0 0.0738771 -0.0191714 0 524.957 524.957 1001.25 
171 1 1 0.419801 0.029473 0 0 0 0 0.0907056 0.0583722 0 0.0908074 0.166123 0 0.0907056 0.0583722 0 467.814 467.814 1001.11 
172 1 1 0.437155 0.0203698 0 0 0 0 0.0908833 0.0324769 0 0.00115309 -0.00794022 0 0.0908833 0.0324769 0 553.614 553.614 1001.31 
173 1 1 0.446146 0.0270681 0 0 0 0 0.0351488 0.0807343 0 0.00372994 0.0103358 0 0.0351488 0.0807343 0 501.634 501.634 1001.19 
174 1 1 0.471879 0.0142121 0 0 0 0 0.0312859 -0.0217421 0 -0.0540208 -0.00891164 0 0.0312859 -0.0217421 0 591.247 591.247 1001.4 
175 1 1 0.468953 0.0272873 0 0 0 0 0.0494913 -7.96455e-05 0 -0.0247059 0.0300439 0 0.0494913 -7.96455e-05 0 520.974 520.974 1001.24 
176 1 1 0.477998 0.0213557 0 0 0 0 0.0250455 0.0546782 0 -0.010198 -0.030784 0 0.0250455 0.0546782 0 539.669 539.669 1001.28 
177 1 1 0.484131 0.0140302 0 0 0 0 -0.00822564 0.0257131 0 0.0261617 -0.0221464 0 -0.00822564 0.0257131 0 586.29 586.29 1001.39 
178 1 1 0.491259 0.0181467 0 0 0 0 -0.0112885 -0.0163202 0 -0.00353892 0.0122413 0 -0.0112885 -0.0163202 0 587.716 587.716 1001.39 
179 1 1 0.199741 0.0426287 0 0 0 0 0.0304887 -0.0172943 0 -0.0769837 0.0162853 0 0.0304887 -0.0172943 0 232.794 232.794 1000.55 
180 1 1 0.216468 0.0311764 0 0 0 0 0.0626524 -0.010024 0 -0.0192202 -0.02054 0 0.0626524 -0.010024 0 296.71 296.71 1000.7 
181 1 1 0.223091 0.0413811 0 0 0 0 0.0578005 -0.0337894 0 -0.0460295 -0.0107811 0 0.0578005 -0.0337894 0 253.291 253.291 1000.6 
182 1 1 0.228525 0.0345011 0 0 0 0 0.0756783 -0.034121 0 -0.0491989 0.0328587 0 0.0756783 -0.034121 0 308.35 308.35 1000.73 
183 1 1 0.250689 0.0491472 0 0 0 0 0.109225 -0.0152468 0 -0.0434151 0.0197418 0 0.109225 -0.0152468 0 189.713 189.713 1000.45 
184 1 1 0.240441 0.0449173 0 0 0 0 0.0718918 0.00863086 0 -0.0715043 -0.00254293 0 0.0718918 0.00863086 0 236.824 236.824 1000.56 
185 1 1 0.239332 0.0344453 0 0 0 0 0.0926396 0.0136844 0 -0.0723752 0.0273591 0 0.0926396 0.0136844 0 291.077 291.077 1000.69 
186 1 1 0.262207 0.0226512 0 0 0 0 0.109561 -0.023234 0 -0.0624575 0.0303472 0 0.109561 -0.023234 0 416.675 416.675 1000.99 
187 1 1 0.279893 0.0338164 0 0 0 0 0.0785452 -0.00828994 0 -0.065999 0.000208685 0 0.0785452 -0.00828994 0 327.911 327.911 1000.78 
188 1 1 0.286257 0.0432177 0 0 0 0 0.110862 -0.00985627 0 -0.0951118 -0.00318626 0 0.110862 -0.00985627 0 268.648 268.648 1000.64 
189 1 1 0.301461 0.0338013 0 0 0 0 0.125861 -0.0469207 0 -0.051114 0.00108446 0 0.125861 -0.0469207 0 361.136 361.136 1000.86 
190 1 1 0.307148 0.0219321 0 0 0 0 0.0774451 -0.0107038 0 -0.0765886 0.00674582 0 0.0774451 -0.0107038 0 434.766 434.766 1001.03 
191 1 1 0.309782 0.0421276 0 0 0 0 0.0824573 -0.00235423 0 -0.0696453 0.00591588 0 0.0824573 -0.00235423 0 280.38 280.38 1000.67 
192 1 1 0.311694 0.0314009 0 0 0 0 0.119727 -0.0229081 0 -0.145781 0.00525112 0 0.119727 -0.0229081 0 382.062 382.062 1000.91 
193 1 1 0.338315 0.035478 0 0 0 0 0.125834 0.0252661 0 -0.0283921 0.00211592 0 0.125834 0.0252661 0 350.003 350.003 1000.83 
194 1 1 0.321647 0.0495948 0 0 0 0 0.09308 -0.0281121 0 -0.0516224 0.0346735 0 0.09308 -0.0281121 0 238.836 238.836 1000.57 
195 1 1 0.344579 0.0423805 0 0 0 0 0.12699 0.0162933 0 -0.127223 0.0126355 0 0.12699 0.0162933 0 331.064 331.064 1000.79 
196 1 1 0.349823 0.032465 0 0 0 0 0.0951358 -0.0308139 0 -0.124382 0.01921 0 0.0951358 -0.0308139 0 411.653 411.653 1000.98 
197 1 1 0.364019 0.0410675 0 0 0 0 0.112539 0.0136577 0 -0.13889 0.0196745 0 0.112539 0.0136577 0 340.363 340.363 1000.81 
198 1 1 0.366923 0.0309874 0 0 0 0 0.0899299 -0.0292725 0 -0.193005 -0.0354646 0 0.0899299 -0.0292725 0 440.006 440.006 1001.04 
199 1 1 0.374127 0.041102 0 0 0 0 0.0884965 -0.0202931 0 0.0268667 -0.0198719 0 0.0884965 -0.0202931 0 364.222 364.222 1000.86 
200 1 1 0.365456 0.020307 0 0 0 0 0.0934057 -0.0193382 0 -0.0822 0.0440713 0 0.0934057 -0.0193382 0 521.295 521.295 1001.24 
201 1 1 0.39128 0.0270883 0 0 0 0 0.0745917 0.0275426 0 -0.129894 -0.0467009 0 0.0745917 0.0275426 0 462.796 462.796 1001.1 
202 1 1 0.383923 0.0420034 0 0 0 0 0.110211 -0.00716022 0 -0.198677 -0.0796603 0 0.110211 -0.00716022 0 364.138 364.138 1000.86 
203 1 1 0.393233 0.0386774 0 0 0 0 0.116224 0.0154847 0 -0.0340902 -0.050783 0 0.116224 0.0154847 0 390.637 390.637 1000.93 
204 1 1 0.400989 0.0541539 0 0 0 0 0.105437 0.0264305 0 -0.21421 -0.190375 0 0.105437 0.0264305 0 297.292 297.292 1000.71 
205 1 1 0.405398 0.0151909 0 0 0 0 0.0741385 -0.0337818 0 0.00921778 0.118285 0 0.0741385 -0.0337818 0 558.985 558.985 1001.33 
206 1 1 0.408632 0.0281054 0 0 0 0 0.115508 -0.0154286 0 -0.0945473 0.0238049 0 0.115508 -0.0154286 0 482.724 482.724 1001.15 
207 1 1 0.436116 0.0462806 0 0 0 0 0.0996363 0.0411595 0 0.0692004 0.0282696 0 0.0996363 0.0411595 0 363.858 363.858 1000.86 
208 1 1 0.440287 0.0340068 0 0 0 0 0.0485591 0.0326045 0 -0.0764966 -0.134641 0 0.0485591 0.0326045 0 443.575 443.575 1001.05 
209 1 1 0.428755 0.0376429 0 0 0 0 0.097151 0.0505938 0 -0.0916594 -0.205531 0 0.097151 0.0505938 0 431.3 431.3 1001.02 
210 1 1 0.452593 0.0363048 0 0 0 0 0.0764444 0.0344138 0 -0.041653 -0.105092 0 0.0764444 0.0344138 0 491.385 491.385 1001.17 
211 1 1 0.4316 0.0285711 0 0 0 0 0.0378197 -0.0271298 0 -0.0688148 -0.00669014 0 0.0378197 -0.0271298 0 530.059 530.059 1001.26 
212 1 1 0.457401 0.0262865 0 0 0 0 0.0698372 -0.0289677 0 -0.0355839 0.00925796 0 0.0698372 -0.0289677 0 521.785 521.785 1001.24 
213 1 1 0.463818 0.018376 0 0 0 0 0.0444935 -0.0158209 0 0.0409715 0.0180741 0 0.0444935 -0.0158209 0 592.121 592.121 1001.4 
214 1 1 0.470887 0.0385348 0 0 0 0 0.00561409 0.0243365 0 0.0818711 0.0526915 0 0.00561409 0.0243365 0 454.32 454.32 1001.08 
215 1 1 0.488732 0.027305 0 0 0 0 0.0527934 0.0161351 0 -0.0366037 -0.0467619 0 0.0527934 0.0161351 0 495.599 495.599 1001.18 
216 1 1 0.478896 0.0308027 0 0 0 0 0.0361435 0.0320184 0 -0.0198775 0.00591293 0 0.0361435 0.0320184 0 482.578 482.578 1001.15 
217 1 1 0.489478 0.037136 0 0 0 0 -0.00878305 0.065311 0 0.04534 0.0461801 0 -0.00878305 0.065311 0 474.57 474.57 1001.13 
218 1 1 0.21889 0.0508541 0 0 0 0 0.096192 -0.0226847 0 -0.0505876 -0.0133604 0 0.096192 -0.0226847 0 174.155 174.155 1000.41 
219 1 1 0.16329 0.040748 0 0 0 0 0.0580038 -0.0482092 0 -0.032222 -0.00289558 0 0.0580038 -0.0482092 0 223.912 223.912 1000.53 
220 1 1 0.189935 0.0428418 0 0 0 0 0.0586737 -0.0385104 0 -0.0454708 0.0341461 0 0.0586737 -0.0385104 0 217.491 217.491 1000.52 
221 1 1 0.231969 0.0490597 0 0 0 0 0.0813026 -0.0271099 0 -0.0888611 -0.00751383 0 0.0813026 -0.0271099 0 219.391 219.391 1000.52 
222 1 1 0.212218 0.0415773 0 0 0 0 0.0715488 -0.0141872 0 -0.119203 -0.0492994 0 0.0715488 -0.0141872 0 199.556 199.556 1000.47 
223 1 1 0.26053 0.0422143 0 0 0 0 0.0935905 -0.0241291 0 -0.0741716 -0.00419148 0 0.0935905 -0.0241291 0 297.106 297.106 1000.71 
224 1 1 0.266162 0.0337128 0 0 0 0 0.0605204 -0.00296712 0 -0.0712451 -0.0195692 0 0.0605204 -0.00296712 0 327.505 327.505 1000.78 
225 1 1 0.27342 0.0411856 0 0 0 0 0.106174 0.0101386 0 -0.0605345 0.0426407 0 0.106174 0.0101386 0 265.642 265.642 1000.63 
226 1 1 0.285759 0.0523979 0 0 0 0 0.109788 0.0112601 0 -0.0487147 0.0131026 0 0.109788 0.0112601 0 208.444 208.444 1000.5 
227 1 1 0.297464 0.0244867 0 0 0 0 0.0664298 0.00510768 0 -0.063245 0.0296725 0 0.0664298 0.00510768 0 414.926 414.926 1000.99 
228 1 1 0.297679 0.0433259 0 0 0 0 0.100526 -0.0221368 0 -0.0732352 0.0296362 0 0.100526 -0.0221368 0 289.279 289.279 1000.69 
229 1 1 0.308294 0.0515517 0 0 0 0 0.0972914 -0.00859849 0 -0.102036 -0.0313399 0 0.0972914 -0.00859849 0 226.029 226.029 1000.54 
230 1 1 0.320226 0.0389565 0 0 0 0 0.08424 -0.0201065 0 -0.0732758 -0.0478443 0 0.08424 -0.0201065 0 312.46 312.46 1000.74 
231 1 1 0.329298 0.0312591 0 0 0 0 0.134697 0.00792072 0 -0.177669 0.0401368 0 0.134697 0.00792072 0 366.773 366.773 1000.87 
232 1 1 0.329614 0.0429816 0 0 0 0 0.108953 -0.0152675 0 -0.0619027 -0.0704029 0 0.108953 -0.0152675 0 319.94 319.94 1000.76 