ITEM: TIMESTEP
199000
ITEM: NUMBER OF ATOMS
754
ITEM: BOX BOUNDS ff ff pp
-0.021 0.521
-0.021 0.5
-0.001 0.001
ITEM: ATOMS id type type x y z ix iy iz vx vy vz fx fy fz vx vy vz p p rho 
1 1 1 0.00590586 0.0012589 0 0 0 0 -0.00350224 -0.0115018 0 0.00431492 -0.0127857 0 -0.00350224 -0.0115018 0 461.246 461.246 1001.09 
2 1 1 0.0290978 0.00518182 0 0 0 0 -0.00724897 0.00109729 0 0.00255213 0.00490419 0 -0.00724897 0.00109729 0 418.332 418.332 1000.99 
3 1 1 0.0645684 0.00465466 0 0 0 0 0.00636516 -0.00931602 0 -0.00908805 0.00455364 0 0.00636516 -0.00931602 0 439.95 439.95 1001.04 
4 1 1 0.0797525 0.00584446 0 0 0 0 0.000554691 0.00277956 0 -0.0326633 -0.00567783 0 0.000554691 0.00277956 0 423.728 423.728 1001.01 
5 1 1 0.0954283 0.00460149 0 0 0 0 -0.0138228 0.00167371 0 -0.00279571 -0.00372662 0 -0.0138228 0.00167371 0 457.507 457.507 1001.09 
6 1 1 0.110823 0.00615354 0 0 0 0 -0.0238768 0.00168639 0 -0.0352149 0.00409211 0 -0.0238768 0.00168639 0 448.347 448.347 1001.06 
7 1 1 0.152086 0.00590739 0 0 0 0 -0.049061 0.00434353 0 -0.0058486 -0.0135506 0 -0.049061 0.00434353 0 451.121 451.121 1001.07 
8 1 1 0.130785 0.0136196 0 0 0 0 -0.0140478 0.000575312 0 -0.0160167 -0.0267473 0 -0.0140478 0.000575312 0 421.746 421.746 1001 
9 1 1 0.184953 0.00518681 0 0 0 0 -0.0663493 -0.0116489 0 -0.0328289 0.0246779 0 -0.0663493 -0.0116489 0 469.352 469.352 1001.11 
10 1 1 0.19854 0.0060686 0 0 0 0 -0.0430454 -0.0115977 0 -0.0303036 -0.0297286 0 -0.0430454 -0.0115977 0 482.667 482.667 1001.15 
11 1 1 0.0335382 0.0151859 0 0 0 0 0.00782776 0.0035509 0 -0.0167502 0.0111285 0 0.00782776 0.0035509 0 382.872 382.872 1000.91 
12 1 1 0.0511151 0.0065427 0 0 0 0 -0.0109047 -0.000905464 0 -0.00289291 -0.0128128 0 -0.0109047 -0.000905464 0 416.56 416.56 1000.99 
13 1 1 0.0722407 0.0126586 0 0 0 0 0.00740066 0.00538161 0 -0.0249376 0.0175823 0 0.00740066 0.00538161 0 397.176 397.176 1000.94 
14 1 1 0.0865248 0.0121462 0 0 0 0 -0.00133243 0.0102402 0 -0.0162493 -0.00458379 0 -0.00133243 0.0102402 0 399.341 399.341 1000.95 
15 1 1 0.105796 0.0130683 0 0 0 0 -0.00209018 0.00780018 0 -0.0470349 0.0258382 0 -0.00209018 0.00780018 0 419.971 419.971 1001 
16 1 1 0.138926 0.00596847 0 0 0 0 -0.0307272 0.000458819 0 -0.0267162 0.00428095 0 -0.0307272 0.000458819 0 460.698 460.698 1001.09 
17 1 1 0.154013 0.0199841 0 0 0 0 -0.0146005 0.000984814 0 -0.0226484 -0.0207737 0 -0.0146005 0.000984814 0 398.461 398.461 1000.95 
18 1 1 0.16606 0.00540434 0 0 0 0 -0.037264 -0.00904413 0 -0.00180461 -0.0232671 0 -0.037264 -0.00904413 0 471.97 471.97 1001.12 
19 1 1 0.194665 0.0146736 0 0 0 0 -0.0546753 -0.00343724 0 -0.012888 0.0121694 0 -0.0546753 -0.00343724 0 437.406 437.406 1001.04 
20 1 1 0.187589 0.0167375 0 0 0 0 -0.0298271 -0.00613966 0 -0.0266736 -0.0539583 0 -0.0298271 -0.00613966 0 428.992 428.992 1001.02 
21 1 1 0.0324149 0.0263024 0 0 0 0 -0.0128926 0.0198278 0 0.00211722 0.0421346 0 -0.0128926 0.0198278 0 307.453 307.453 1000.73 
22 1 1 0.0408144 0.00752728 0 0 0 0 -0.0117404 -0.00142607 0 -0.0108223 0.00625043 0 -0.0117404 -0.00142607 0 406.14 406.14 1000.96 
23 1 1 0.059596 0.0144686 0 0 0 0 -0.0064479 -0.0127295 0 -0.036372 -0.00694361 0 -0.0064479 -0.0127295 0 384.192 384.192 1000.91 
24 1 1 0.0860018 0.0289686 0 0 0 0 -0.0274441 0.0100342 0 -0.0324677 -0.0246106 0 -0.0274441 0.0100342 0 271.842 271.842 1000.65 
25 1 1 0.0746367 0.0272694 0 0 0 0 -0.0216657 -0.013397 0 -0.0489804 0.0101268 0 -0.0216657 -0.013397 0 313.656 313.656 1000.75 
26 1 1 0.124676 0.00506934 0 0 0 0 -0.0323544 -0.00252844 0 -0.0177142 0.0121991 0 -0.0323544 -0.00252844 0 454.443 454.443 1001.08 
27 1 1 0.124214 0.0196373 0 0 0 0 -0.00154285 0.0204553 0 -0.00361506 -0.0129234 0 -0.00154285 0.0204553 0 366.459 366.459 1000.87 
28 1 1 0.168111 0.0180803 0 0 0 0 -0.0488 0.0269738 0 -0.109817 -0.0275809 0 -0.0488 0.0269738 0 402.882 402.882 1000.96 
29 1 1 0.175223 0.010202 0 0 0 0 -0.0593404 0.0296592 0 -0.0191713 0.0420254 0 -0.0593404 0.0296592 0 440.062 440.062 1001.04 
30 1 1 0.198365 0.0242504 0 0 0 0 -0.0549726 0.0113317 0 -0.0512349 -0.019085 0 -0.0549726 0.0113317 0 362.556 362.556 1000.86 
31 1 1 0.0192883 0.00902779 0 0 0 0 0.00278437 0.00742861 0 -0.00214629 0.00683692 0 0.00278437 0.00742861 0 414.167 414.167 1000.98 
32 1 1 0.0416079 0.0181303 0 0 0 0 -0.0224819 0.0262024 0 -0.0188 0.00465268 0 -0.0224819 0.0262024 0 350.13 350.13 1000.83 
33 1 1 0.0652023 0.0326846 0 0 0 0 0.000835101 -0.00744495 0 -0.0319994 -0.0073229 0 0.000835101 -0.00744495 0 262.057 262.057 1000.62 
34 1 1 0.0909662 0.0196914 0 0 0 0 0.0137766 0.0180593 0 -0.0345871 4.18603e-05 0 0.0137766 0.0180593 0 349.133 349.133 1000.83 
35 1 1 0.134017 0.026145 0 0 0 0 -0.00650466 0.0155757 0 -0.0894858 -0.00215775 0 -0.00650466 0.0155757 0 340.176 340.176 1000.81 
36 1 1 0.13849 0.0176223 0 0 0 0 -0.0253075 -0.00091004 0 0.0318245 0.0353225 0 -0.0253075 -0.00091004 0 405.903 405.903 1000.96 
37 1 1 0.146766 0.014178 0 0 0 0 -0.0147241 0.0144129 0 -0.0496655 0.00230108 0 -0.0147241 0.0144129 0 424.757 424.757 1001.01 
38 1 1 0.179461 0.0179045 0 0 0 0 -0.0368962 -0.0150692 0 -0.0656428 -0.0130438 0 -0.0368962 -0.0150692 0 423.685 423.685 1001.01 
39 1 1 0.195566 0.0343712 0 0 0 0 -0.0281794 0.00949238 0 -0.0566232 -0.0253648 0 -0.0281794 0.00949238 0 297.174 297.174 1000.71 
40 1 1 0.155011 0.0329476 0 0 0 0 -0.00961878 0.00426809 0 -0.0187872 -0.016144 0 -0.00961878 0.00426809 0 305.34 305.34 1000.73 
41 1 1 0.0128717 0.0129661 0 0 0 0 0.0172517 -0.0035232 0 -0.0153926 0.00730333 0 0.0172517 -0.0035232 0 402.437 402.437 1000.96 
42 1 1 0.033236 0.040277 0 0 0 0 -0.00400808 -0.00771626 0 -0.0149572 0.0148744 0 -0.00400808 -0.00771626 0 220.53 220.53 1000.52 
43 1 1 0.0512294 0.0162303 0 0 0 0 -0.0156426 -0.0169379 0 -0.022151 0.0272339 0 -0.0156426 -0.0169379 0 368.709 368.709 1000.88 
44 1 1 0.0784297 0.0361799 0 0 0 0 -0.0159233 -0.000259071 0 -0.0322711 0.0035939 0 -0.0159233 -0.000259071 0 230.584 230.584 1000.55 
45 1 1 0.098173 0.0157179 0 0 0 0 -0.00621115 -0.0106494 0 -0.0251049 -0.0316008 0 -0.00621115 -0.0106494 0 397.982 397.982 1000.94 
46 1 1 0.121779 0.0294091 0 0 0 0 -0.00917472 0.0138268 0 -0.0784855 -0.0247087 0 -0.00917472 0.0138268 0 302.493 302.493 1000.72 
47 1 1 0.160102 0.013649 0 0 0 0 -0.023298 -0.00784245 0 -0.0580945 0.0212125 0 -0.023298 -0.00784245 0 440.901 440.901 1001.05 
48 1 1 0.187206 0.0271787 0 0 0 0 -0.0562205 0.00685031 0 -0.059837 -0.00883771 0 -0.0562205 0.00685031 0 353.5 353.5 1000.84 
49 1 1 0.183719 0.0350822 0 0 0 0 -0.0494502 -0.00321096 0 -0.0319266 0.0128707 0 -0.0494502 -0.00321096 0 317.285 317.285 1000.75 
50 1 1 0.168157 0.0513258 0 0 0 0 -0.00894931 0.0339038 0 -0.00491766 0.00238372 0 -0.00894931 0.0339038 0 221.908 221.908 1000.53 
51 1 1 0.0249883 0.017692 0 0 0 0 0.0131904 0.0127655 0 0.00913006 -0.0277779 0 0.0131904 0.0127655 0 359.869 359.869 1000.85 
52 1 1 0.0484692 0.02617 0 0 0 0 0.00769199 -0.0115162 0 -0.030918 -0.0144617 0 0.00769199 -0.0115162 0 306.845 306.845 1000.73 
53 1 1 0.0668066 0.0193613 0 0 0 0 -0.0112906 -0.0186858 0 -0.00383789 0.00369165 0 -0.0112906 -0.0186858 0 363.011 363.011 1000.86 
54 1 1 0.0957778 0.0299856 0 0 0 0 -0.00994653 0.00809666 0 -0.0533172 -0.00208625 0 -0.00994653 0.00809666 0 276.531 276.531 1000.66 
55 1 1 0.102496 0.037737 0 0 0 0 -0.00619911 -0.00851476 0 -0.0716333 0.0537945 0 -0.00619911 -0.00851476 0 241.55 241.55 1000.57 
56 1 1 0.111305 0.0330369 0 0 0 0 0.0116686 -0.00631029 0 -0.0512183 -0.0480712 0 0.0116686 -0.00631029 0 271.98 271.98 1000.65 
57 1 1 0.146571 0.0264344 0 0 0 0 -0.011954 0.000700457 0 -0.079032 0.00968382 0 -0.011954 0.000700457 0 352.579 352.579 1000.84 
58 1 1 0.139422 0.033872 0 0 0 0 0.000806791 0.00842429 0 -0.0258861 -0.0285583 0 0.000806791 0.00842429 0 295.431 295.431 1000.7 
59 1 1 0.173788 0.0352798 0 0 0 0 -0.0368587 0.049294 0 -0.0375355 0.023956 0 -0.0368587 0.049294 0 305.55 305.55 1000.73 
60 1 1 0.178563 0.0466498 0 0 0 0 -0.00319792 0.0458042 0 -0.0844473 0.00827973 0 -0.00319792 0.0458042 0 248.095 248.095 1000.59 
61 1 1 0.058947 0.0264506 0 0 0 0 -0.00978694 -0.0113558 0 -0.00261221 -0.00317122 0 -0.00978694 -0.0113558 0 304.222 304.222 1000.72 
62 1 1 0.00811085 0.0188349 0 0 0 0 0.00072518 -0.0255025 0 0.00142489 0.0040592 0 0.00072518 -0.0255025 0 363.543 363.543 1000.86 
63 1 1 0.0794324 0.0191958 0 0 0 0 0.0118763 0.00314281 0 -0.0319222 -0.00951504 0 0.0118763 0.00314281 0 366.144 366.144 1000.87 
64 1 1 0.0436855 0.0426254 0 0 0 0 -0.00967767 -0.00173497 0 0.0519362 0.0230105 0 -0.00967767 -0.00173497 0 203.706 203.706 1000.48 
65 1 1 0.0903626 0.039529 0 0 0 0 -0.0142398 0.011999 0 -0.0254957 0.0376211 0 -0.0142398 0.011999 0 220.998 220.998 1000.53 
66 1 1 0.117967 0.0141447 0 0 0 0 0.00443035 0.00596033 0 -0.0314117 -0.0479534 0 0.00443035 0.00596033 0 395.627 395.627 1000.94 
67 1 1 0.128091 0.0355438 0 0 0 0 -0.0056041 0.0122066 0 -0.048767 0.00583411 0 -0.0056041 0.0122066 0 267.464 267.464 1000.64 
68 1 1 0.162331 0.0269058 0 0 0 0 -0.00443339 0.024482 0 0.00630868 0.0496819 0 -0.00443339 0.024482 0 352.536 352.536 1000.84 
69 1 1 0.173678 0.026194 0 0 0 0 -0.0080059 0.0194702 0 0.014507 -0.0153088 0 -0.0080059 0.0194702 0 348.837 348.837 1000.83 
70 1 1 0.188214 0.055871 0 0 0 0 -0.0460345 0.0326853 0 -0.106701 -0.0237862 0 -0.0460345 0.0326853 0 222.81 222.81 1000.53 
71 1 1 0.0102685 0.0300284 0 0 0 0 0.00259626 -0.0362938 0 0.0267204 0.0183625 0 0.00259626 -0.0362938 0 286.831 286.831 1000.68 
72 1 1 0.0388656 0.0532354 0 0 0 0 0.0080067 0.0132716 0 -0.012856 0.00414058 0 0.0080067 0.0132716 0 149.324 149.324 1000.36 
73 1 1 0.0239362 0.0322045 0 0 0 0 -0.00762155 0.0358042 0 -0.0353541 -0.0101111 0 -0.00762155 0.0358042 0 267.609 267.609 1000.64 
74 1 1 0.0520192 0.0355966 0 0 0 0 0.00754079 0.000485386 0 -0.0153838 0.014068 0 0.00754079 0.000485386 0 239.111 239.111 1000.57 
75 1 1 0.0806001 0.0461265 0 0 0 0 -0.0172215 -0.00401048 0 -0.0601921 0.0412653 0 -0.0172215 -0.00401048 0 201.591 201.591 1000.48 
76 1 1 0.112791 0.021953 0 0 0 0 -0.0138128 -0.0203889 0 -0.0338332 0.00797584 0 -0.0138128 -0.0203889 0 341.489 341.489 1000.81 
77 1 1 0.104098 0.0250317 0 0 0 0 -0.0143434 0.0213845 0 -0.0218533 0.0212967 0 -0.0143434 0.0213845 0 310.399 310.399 1000.74 
78 1 1 0.157645 0.0464825 0 0 0 0 -0.00579089 0.0337933 0 -0.0604704 0.00188934 0 -0.00579089 0.0337933 0 234.764 234.764 1000.56 
79 1 1 0.148258 0.0399202 0 0 0 0 -0.0115482 0.00612911 0 -0.0442768 0.00919887 0 -0.0115482 0.00612911 0 245.089 245.089 1000.58 
80 1 1 0.158021 0.0615829 0 0 0 0 -0.0235298 0.0413723 0 -0.0425922 -0.0189455 0 -0.0235298 0.0413723 0 155.89 155.89 1000.37 
81 1 1 0.0191181 0.024243 0 0 0 0 0.014059 0.00962475 0 -0.0156945 -0.0038938 0 0.014059 0.00962475 0 316.798 316.798 1000.75 
82 1 1 0.0125651 0.038394 0 0 0 0 -0.0141788 -0.0141977 0 -0.0331504 -0.000720906 0 -0.0141788 -0.0141977 0 227.04 227.04 1000.54 
83 1 1 0.0398184 0.0310003 0 0 0 0 0.0115287 0.0154364 0 -0.0142119 0.0130806 0 0.0115287 0.0154364 0 278.438 278.438 1000.66 
84 1 1 0.0236183 0.0429629 0 0 0 0 -0.0286721 0.0266651 0 0.0188851 -0.0207646 0 -0.0286721 0.0266651 0 192.921 192.921 1000.46 
85 1 1 0.0682874 0.0417968 0 0 0 0 -0.0355798 -0.000749255 0 0.011567 0.026976 0 -0.0355798 -0.000749255 0 188.082 188.082 1000.45 
86 1 1 0.110627 0.0467445 0 0 0 0 -0.0130789 0.0151811 0 -0.039917 -0.0490638 0 -0.0130789 0.0151811 0 181.519 181.519 1000.43 
87 1 1 0.118262 0.0413569 0 0 0 0 -0.0250891 0.0110638 0 -0.00376065 0.0448835 0 -0.0250891 0.0110638 0 232.047 232.047 1000.55 
88 1 1 0.128864 0.0476008 0 0 0 0 -0.0153129 0.00348279 0 -0.0785286 -0.0353427 0 -0.0153129 0.00348279 0 202.244 202.244 1000.48 
89 1 1 0.138001 0.0449555 0 0 0 0 -0.00965269 0.0106611 0 -0.0474452 0.0130154 0 -0.00965269 0.0106611 0 207.373 207.373 1000.49 
90 1 1 0.147775 0.0528644 0 0 0 0 0.0037307 0.010477 0 -0.0817131 0.0122681 0 0.0037307 0.010477 0 208.376 208.376 1000.5 
91 1 1 0.053158 0.055225 0 0 0 0 0.00873225 0.0141757 0 0.00635733 0.0351807 0 0.00873225 0.0141757 0 172.152 172.152 1000.41 
92 1 1 0.0252665 0.0552029 0 0 0 0 0.0321809 0.0122194 0 -0.00637721 0.0154973 0 0.0321809 0.0122194 0 147.503 147.503 1000.35 
93 1 1 0.0130939 0.0496172 0 0 0 0 0.0027548 -0.000371296 0 0.0079613 0.0474464 0 0.0027548 -0.000371296 0 163.96 163.96 1000.39 
94 1 1 0.0687513 0.0537385 0 0 0 0 0.00285713 0.0130898 0 -0.000711825 0.0614653 0 0.00285713 0.0130898 0 151.392 151.392 1000.36 
95 1 1 0.0859832 0.0573302 0 0 0 0 -0.0279468 0.00516124 0 -0.0430555 0.0509505 0 -0.0279468 0.00516124 0 187.034 187.034 1000.44 
96 1 1 0.106446 0.0582751 0 0 0 0 -0.0519938 0.00771485 0 -0.0292179 0.0160569 0 -0.0519938 0.00771485 0 152.107 152.107 1000.36 
97 1 1 0.0573491 0.043839 0 0 0 0 -0.0164344 0.0137825 0 -0.0114657 0.0239033 0 -0.0164344 0.0137825 0 197.826 197.826 1000.47 
98 1 1 0.0971749 0.0489689 0 0 0 0 -0.0121932 -0.00491005 0 -0.0849619 -0.00146762 0 -0.0121932 -0.00491005 0 228.562 228.562 1000.54 
99 1 1 0.121985 0.056657 0 0 0 0 -0.0154073 -0.000231419 0 -0.135322 0.0286831 0 -0.0154073 -0.000231419 0 155.43 155.43 1000.37 
100 1 1 0.137249 0.0605719 0 0 0 0 -0.00710402 0.00242061 0 -0.0521152 -0.0143496 0 -0.00710402 0.00242061 0 171.342 171.342 1000.41 
101 1 1 0.205423 0.0138457 0 0 0 0 -0.0580991 -0.0113664 0 -0.004773 -6.55845e-05 0 -0.0580991 -0.0113664 0 451.043 451.043 1001.07 
102 1 1 0.217424 0.016275 0 0 0 0 -0.0698871 0.00309014 0 -0.0669114 -0.00759099 0 -0.0698871 0.00309014 0 438.57 438.57 1001.04 
103 1 1 0.22466 0.0263083 0 0 0 0 -0.0947796 0.00713588 0 -0.0395972 0.00431761 0 -0.0947796 0.00713588 0 373.489 373.489 1000.89 
104 1 1 0.212446 0.00541331 0 0 0 0 -0.0233502 -0.00338313 0 -0.0247441 0.0151685 0 -0.0233502 -0.00338313 0 477.84 477.84 1001.13 
105 1 1 0.222983 0.00869703 0 0 0 0 -0.0328088 0.00654328 0 -0.031213 0.00727771 0 -0.0328088 0.00654328 0 470.931 470.931 1001.12 
106 1 1 0.234272 0.00476295 0 0 0 0 -0.0409677 0.000509934 0 -0.0290182 0.00385844 0 -0.0409677 0.000509934 0 507.88 507.88 1001.2 
107 1 1 0.24365 0.0148169 0 0 0 0 -0.0747661 0.00645992 0 -0.0628161 0.00156254 0 -0.0747661 0.00645992 0 452.618 452.618 1001.07 
108 1 1 0.248231 0.00648277 0 0 0 0 -0.0427093 -0.00168108 0 -0.00747418 -0.0249169 0 -0.0427093 -0.00168108 0 504.525 504.525 1001.2 
109 1 1 0.254969 0.0138721 0 0 0 0 -0.0827617 0.00532501 0 -0.016776 -0.0211179 0 -0.0827617 0.00532501 0 473.848 473.848 1001.12 
110 1 1 0.263091 0.0162445 0 0 0 0 -0.121514 0.0168829 0 -0.00402419 0.0444141 0 -0.121514 0.0168829 0 465.628 465.628 1001.1 
111 1 1 0.262591 0.00469533 0 0 0 0 -0.047907 0.00400614 0 -0.0449442 0.0398297 0 -0.047907 0.00400614 0 520.102 520.102 1001.23 
112 1 1 0.271694 0.0104633 0 0 0 0 -0.0921853 0.0142052 0 -0.0282393 -0.0504514 0 -0.0921853 0.0142052 0 505.598 505.598 1001.2 
113 1 1 0.282247 0.00513549 0 0 0 0 -0.0870904 -0.00170341 0 -0.0817238 0.065223 0 -0.0870904 -0.00170341 0 532.895 532.895 1001.26 
114 1 1 0.291601 0.0169426 0 0 0 0 -0.097337 -0.0189782 0 0.0210663 -0.023571 0 -0.097337 -0.0189782 0 472.062 472.062 1001.12 
115 1 1 0.316539 0.024212 0 0 0 0 -0.126121 -0.000356262 0 -0.0385272 0.00801033 0 -0.126121 -0.000356262 0 470.887 470.887 1001.12 
116 1 1 0.295655 0.00613048 0 0 0 0 -0.0736077 -0.00693003 0 -0.0959492 -0.0475668 0 -0.0736077 -0.00693003 0 529.954 529.954 1001.26 
117 1 1 0.311052 0.00495764 0 0 0 0 -0.0898859 0.0103386 0 -0.0567909 0.0265901 0 -0.0898859 0.0103386 0 548.493 548.493 1001.3 
118 1 1 0.320652 0.0102051 0 0 0 0 -0.0786779 -0.0230843 0 -0.0305378 -0.0411555 0 -0.0786779 -0.0230843 0 550.052 550.052 1001.3 
119 1 1 0.330979 0.00475904 0 0 0 0 -0.0791232 0.0151929 0 -0.039245 0.02789 0 -0.0791232 0.0151929 0 556.752 556.752 1001.32 
120 1 1 0.341542 0.0254618 0 0 0 0 -0.109345 -0.0261102 0 -0.0754925 -0.021647 0 -0.109345 -0.0261102 0 458.766 458.766 1001.09 
121 1 1 0.341374 0.0128304 0 0 0 0 -0.103771 0.00292843 0 -0.0600141 0.00993374 0 -0.103771 0.00292843 0 526.508 526.508 1001.25 
122 1 1 0.346873 0.00574626 0 0 0 0 -0.0945821 -0.00691092 0 -0.0257043 -0.0677854 0 -0.0945821 -0.00691092 0 557.543 557.543 1001.32 
123 1 1 0.367427 0.0147303 0 0 0 0 -0.09857 -0.0123374 0 -0.0351946 -0.00433837 0 -0.09857 -0.0123374 0 530.997 530.997 1001.26 
124 1 1 0.360217 0.00599156 0 0 0 0 -0.0909201 0.00220377 0 0.0270758 0.0384872 0 -0.0909201 0.00220377 0 557.817 557.817 1001.32 
125 1 1 0.373598 0.00603523 0 0 0 0 -0.0678391 -0.020667 0 -0.0372232 0.0129779 0 -0.0678391 -0.020667 0 580.117 580.117 1001.38 
126 1 1 0.382891 0.0198096 0 0 0 0 -0.120467 -0.0149534 0 0.0427149 -0.032602 0 -0.120467 -0.0149534 0 507.998 507.998 1001.21 
127 1 1 0.385636 0.00675589 0 0 0 0 -0.0591831 0.00969019 0 -0.04293 -0.0128272 0 -0.0591831 0.00969019 0 568.757 568.757 1001.35 
128 1 1 0.389779 0.0140271 0 0 0 0 -0.0898122 0.0177813 0 -0.0485923 0.056194 0 -0.0898122 0.0177813 0 534.135 534.135 1001.27 
129 1 1 0.409313 0.00880852 0 0 0 0 -0.0951132 -0.0244119 0 -0.0283719 0.0277387 0 -0.0951132 -0.0244119 0 580.332 580.332 1001.38 
130 1 1 0.420618 0.00559719 0 0 0 0 -0.0773753 0.0110105 0 -0.0305931 0.00621972 0 -0.0773753 0.0110105 0 581.209 581.209 1001.38 
131 1 1 0.43606 0.00524645 0 0 0 0 -0.0379829 -0.027316 0 -0.0381168 0.0250608 0 -0.0379829 -0.027316 0 612.048 612.048 1001.45 
132 1 1 0.427782 0.0131395 0 0 0 0 -0.0757219 -0.0286019 0 0.00602849 -0.0251998 0 -0.0757219 -0.0286019 0 548.251 548.251 1001.3 
133 1 1 0.44305 0.0132108 0 0 0 0 -0.0662657 -0.01839 0 0.0570852 0.0189072 0 -0.0662657 -0.01839 0 555.585 555.585 1001.32 
134 1 1 0.45074 0.0202388 0 0 0 0 -0.0215124 -0.018073 0 0.0489732 -0.00200324 0 -0.0215124 -0.018073 0 518.894 518.894 1001.23 
135 1 1 0.45058 0.00625556 0 0 0 0 0.0141138 0.00132682 0 -0.0745181 -0.0428292 0 0.0141138 0.00132682 0 563.524 563.524 1001.34 
136 1 1 0.456586 0.0130064 0 0 0 0 -0.0530467 0.00483485 0 0.00992672 -0.00430611 0 -0.0530467 0.00483485 0 553.31 553.31 1001.31 
137 1 1 0.465014 0.00492416 0 0 0 0 -0.00432163 -0.00293584 0 0.000485875 0.019634 0 -0.00432163 -0.00293584 0 569.876 569.876 1001.35 
138 1 1 0.479113 0.00619645 0 0 0 0 -0.00723473 0.00141507 0 -0.0162131 0.00244163 0 -0.00723473 0.00141507 0 582.736 582.736 1001.38 
139 1 1 0.492942 0.00539043 0 0 0 0 -0.00339039 -0.00419414 0 -0.0275102 -0.00380617 0 -0.00339039 -0.00419414 0 574.442 574.442 1001.36 
140 1 1 0.205089 0.0314587 0 0 0 0 -0.045525 0.00662372 0 -0.0279376 0.0283891 0 -0.045525 0.00662372 0 334.932 334.932 1000.8 
141 1 1 0.209189 0.0203472 0 0 0 0 -0.066534 -0.0110795 0 -0.053846 0.0338689 0 -0.066534 -0.0110795 0 419.577 419.577 1001 
142 1 1 0.248191 0.0412512 0 0 0 0 -0.103792 0.0236692 0 -0.0678823 0.0121147 0 -0.103792 0.0236692 0 267.444 267.444 1000.64 
143 1 1 0.236814 0.0253675 0 0 0 0 -0.0819024 -0.00526675 0 -0.0695857 0.0430615 0 -0.0819024 -0.00526675 0 396.554 396.554 1000.94 
144 1 1 0.244626 0.0294788 0 0 0 0 -0.0750767 0.0246283 0 -0.0595877 -0.0207977 0 -0.0750767 0.0246283 0 366.517 366.517 1000.87 
145 1 1 0.227567 0.0175962 0 0 0 0 -0.0732338 0.0178625 0 -0.0454422 -0.0271589 0 -0.0732338 0.0178625 0 433.103 433.103 1001.03 
146 1 1 0.254417 0.0334772 0 0 0 0 -0.0768987 0.023027 0 -0.0531668 -0.00916522 0 -0.0768987 0.023027 0 343.61 343.61 1000.82 
147 1 1 0.235616 0.0150203 0 0 0 0 -0.0646217 -0.00161567 0 -0.0339855 -0.00848272 0 -0.0646217 -0.00161567 0 462.546 462.546 1001.1 
148 1 1 0.250426 0.0222779 0 0 0 0 -0.092443 0.029947 0 -0.0660295 -0.0372775 0 -0.092443 0.029947 0 405.566 405.566 1000.96 
149 1 1 0.271923 0.0247342 0 0 0 0 -0.103047 -0.0061374 0 -0.0754516 0.0349275 0 -0.103047 -0.0061374 0 431.815 431.815 1001.02 
150 1 1 0.288844 0.0379973 0 0 0 0 -0.128961 -0.00244047 0 -0.0860895 -0.0360632 0 -0.128961 -0.00244047 0 337.424 337.424 1000.8 
151 1 1 0.276049 0.0168973 0 0 0 0 -0.0987229 0.00896852 0 -0.0539741 0.0359537 0 -0.0987229 0.00896852 0 478.171 478.171 1001.13 
152 1 1 0.283119 0.0275306 0 0 0 0 -0.0867025 0.00446394 0 -0.0709088 -0.0570896 0 -0.0867025 0.00446394 0 398.3 398.3 1000.95 
153 1 1 0.285095 0.0151208 0 0 0 0 -0.102553 -0.0107148 0 -0.0261275 0.0142268 0 -0.102553 -0.0107148 0 487.097 487.097 1001.16 
154 1 1 0.301805 0.0125581 0 0 0 0 -0.0830324 0.00970664 0 0.013854 -0.0251551 0 -0.0830324 0.00970664 0 504.015 504.015 1001.2 
155 1 1 0.324297 0.0168212 0 0 0 0 -0.115015 0.0103411 0 -0.0956726 -0.00465689 0 -0.115015 0.0103411 0 497.304 497.304 1001.18 
156 1 1 0.311648 0.0159667 0 0 0 0 -0.0985553 -0.00331048 0 -0.0143308 0.0239861 0 -0.0985553 -0.00331048 0 510.595 510.595 1001.21 
157 1 1 0.334102 0.0151575 0 0 0 0 -0.114514 0.0101058 0 -0.0334057 -0.000726295 0 -0.114514 0.0101058 0 510.882 510.882 1001.21 
158 1 1 0.330985 0.02467 0 0 0 0 -0.1155 0.0216683 0 -0.0501865 0.00698431 0 -0.1155 0.0216683 0 456.214 456.214 1001.08 
159 1 1 0.354055 0.0295157 0 0 0 0 -0.128446 -0.0175027 0 -0.0487863 -0.0478552 0 -0.128446 -0.0175027 0 430.869 430.869 1001.02 
160 1 1 0.348493 0.0196297 0 0 0 0 -0.0955676 -0.0148766 0 0.00430473 -0.0306124 0 -0.0955676 -0.0148766 0 504.263 504.263 1001.2 
161 1 1 0.355237 0.0139886 0 0 0 0 -0.0925482 -0.00348214 0 -0.0993887 -0.00497246 0 -0.0925482 -0.00348214 0 531.783 531.783 1001.26 
162 1 1 0.368877 0.0267405 0 0 0 0 -0.112789 0.00846387 0 0.0121263 -0.055855 0 -0.112789 0.00846387 0 457.269 457.269 1001.09 
163 1 1 0.375676 0.0162278 0 0 0 0 -0.101704 -0.0154038 0 0.0080499 -0.0218514 0 -0.101704 -0.0154038 0 531.061 531.061 1001.26 
164 1 1 0.402635 0.0317488 0 0 0 0 -0.0685753 -0.00841023 0 -0.0647925 0.00647422 0 -0.0685753 -0.00841023 0 430.56 430.56 1001.02 
165 1 1 0.399372 0.00526356 0 0 0 0 -0.0973218 0.0171265 0 -0.0543703 -0.00964907 0 -0.0973218 0.0171265 0 567.609 567.609 1001.35 
166 1 1 0.402416 0.0217555 0 0 0 0 -0.0704176 -0.019257 0 0.0274068 -0.0245994 0 -0.0704176 -0.019257 0 513.248 513.248 1001.22 
167 1 1 0.412111 0.0357898 0 0 0 0 -0.0787473 -0.00561719 0 -0.0162412 0.0278117 0 -0.0787473 -0.00561719 0 417.437 417.437 1000.99 
168 1 1 0.42137 0.017639 0 0 0 0 -0.0677248 0.00608779 0 -0.00517977 -0.00209528 0 -0.0677248 0.00608779 0 543.085 543.085 1001.29 
169 1 1 0.417734 0.0445079 0 0 0 0 -0.109297 -0.0558638 0 -0.0139586 -0.012784 0 -0.109297 -0.0558638 0 370.837 370.837 1000.88 
170 1 1 0.411882 0.0157332 0 0 0 0 -0.0466843 -0.0181518 0 -0.0296662 0.00512041 0 -0.0466843 -0.0181518 0 547.144 547.144 1001.3 
171 1 1 0.421482 0.0294604 0 0 0 0 -0.0668073 -0.0283109 0 -0.000786156 0.025773 0 -0.0668073 -0.0283109 0 458.136 458.136 1001.09 
172 1 1 0.435583 0.0174932 0 0 0 0 -0.0264268 -0.0337644 0 0.0197168 0.014648 0 -0.0264268 -0.0337644 0 539.295 539.295 1001.28 
173 1 1 0.443543 0.0252816 0 0 0 0 -0.0604416 -0.0331189 0 -0.0469836 0.0294578 0 -0.0604416 -0.0331189 0 498.73 498.73 1001.18 
174 1 1 0.471465 0.0133762 0 0 0 0 -0.0102001 0.00421313 0 -0.00134094 0.00909247 0 -0.0102001 0.00421313 0 555.093 555.093 1001.32 
175 1 1 0.470313 0.0243172 0 0 0 0 -0.0749843 -0.0111413 0 0.00180458 0.0274132 0 -0.0749843 -0.0111413 0 499.86 499.86 1001.19 
176 1 1 0.480563 0.0211227 0 0 0 0 -0.00416989 -0.00386425 0 -0.0719088 -0.00596861 0 -0.00416989 -0.00386425 0 512.801 512.801 1001.22 
177 1 1 0.483657 0.0137038 0 0 0 0 -0.0190365 -0.00534507 0 0.0414279 -0.0240075 0 -0.0190365 -0.00534507 0 549.266 549.266 1001.3 
178 1 1 0.491654 0.0180057 0 0 0 0 0.00748347 -0.0148397 0 0.041476 0.0157488 0 0.00748347 -0.0148397 0 546.806 546.806 1001.3 
179 1 1 0.200337 0.0447119 0 0 0 0 -0.0359485 0.0174503 0 -0.035166 0.0253681 0 -0.0359485 0.0174503 0 253.942 253.942 1000.6 
180 1 1 0.215951 0.028655 0 0 0 0 -0.0849148 0.0190368 0 -0.0425955 -0.00113322 0 -0.0849148 0.0190368 0 353.319 353.319 1000.84 
181 1 1 0.221033 0.0387597 0 0 0 0 -0.0505864 0.0360003 0 -0.0702152 0.0484371 0 -0.0505864 0.0360003 0 293.494 293.494 1000.7 
182 1 1 0.230272 0.0351271 0 0 0 0 -0.075977 0.000544611 0 -0.0829081 -0.0575608 0 -0.075977 0.000544611 0 331.076 331.076 1000.79 
183 1 1 0.250861 0.0526369 0 0 0 0 -0.109141 0.0157384 0 -0.0190345 -0.00881414 0 -0.109141 0.0157384 0 231.752 231.752 1000.55 
184 1 1 0.239538 0.0495193 0 0 0 0 -0.0943169 0.0341388 0 -0.0636928 0.0218655 0 -0.0943169 0.0341388 0 229.833 229.833 1000.55 
185 1 1 0.23763 0.0386212 0 0 0 0 -0.0956496 -0.0036787 0 -0.0124491 -0.00502259 0 -0.0956496 -0.0036787 0 296.34 296.34 1000.7 
186 1 1 0.261119 0.0253381 0 0 0 0 -0.0861788 0.0300613 0 -0.0762505 0.00114602 0 -0.0861788 0.0300613 0 403.606 403.606 1000.96 
187 1 1 0.276721 0.0340205 0 0 0 0 -0.106643 -0.0104212 0 -0.0310744 0.0211966 0 -0.106643 -0.0104212 0 360.827 360.827 1000.86 
188 1 1 0.281323 0.0440882 0 0 0 0 -0.124793 0.0145835 0 -0.0334837 -0.0049948 0 -0.124793 0.0145835 0 290.475 290.475 1000.69 
189 1 1 0.29878 0.0331111 0 0 0 0 -0.12442 0.0219839 0 -0.0532083 0.00953887 0 -0.12442 0.0219839 0 377.018 377.018 1000.9 
190 1 1 0.303035 0.0210267 0 0 0 0 -0.103525 0.0235876 0 -0.0802328 -0.00371679 0 -0.103525 0.0235876 0 461.64 461.64 1001.1 
191 1 1 0.305304 0.0416395 0 0 0 0 -0.134179 0.020862 0 -0.0509971 0.00855899 0 -0.134179 0.020862 0 336.158 336.158 1000.8 
192 1 1 0.307903 0.0296505 0 0 0 0 -0.114054 0.020803 0 -0.0508174 0.0159255 0 -0.114054 0.020803 0 421.059 421.059 1001 
193 1 1 0.334361 0.0342921 0 0 0 0 -0.104283 -0.00790032 0 -0.034837 0.00760234 0 -0.104283 -0.00790032 0 395.412 395.412 1000.94 
194 1 1 0.317725 0.0468158 0 0 0 0 -0.128797 0.0140841 0 -0.0890616 0.0326647 0 -0.128797 0.0140841 0 326.517 326.517 1000.78 
195 1 1 0.339304 0.0438711 0 0 0 0 -0.149172 -0.00551675 0 -0.026654 0.025658 0 -0.149172 -0.00551675 0 348.421 348.421 1000.83 
196 1 1 0.345761 0.0342688 0 0 0 0 -0.111173 0.00139687 0 -0.0664577 -0.0154118 0 -0.111173 0.00139687 0 391.006 391.006 1000.93 
197 1 1 0.361198 0.0455438 0 0 0 0 -0.134839 0.000897596 0 -0.0263074 -0.0605074 0 -0.134839 0.000897596 0 323.706 323.706 1000.77 
198 1 1 0.360423 0.0344831 0 0 0 0 -0.121005 -0.0111626 0 -0.081048 -0.0076565 0 -0.121005 -0.0111626 0 397.932 397.932 1000.94 
199 1 1 0.370527 0.0368263 0 0 0 0 -0.119649 -0.00757975 0 -0.0434462 -0.0160105 0 -0.119649 -0.00757975 0 410.323 410.323 1000.97 
200 1 1 0.360935 0.0210249 0 0 0 0 -0.0822263 -0.000734959 0 -0.0406811 0.0179971 0 -0.0822263 -0.000734959 0 491.752 491.752 1001.17 
201 1 1 0.392536 0.026662 0 0 0 0 -0.0907127 -0.0130509 0 -0.045148 -0.00136118 0 -0.0907127 -0.0130509 0 458.413 458.413 1001.09 
202 1 1 0.377018 0.0421163 0 0 0 0 -0.13477 -0.0116574 0 0.0243758 -0.0417723 0 -0.13477 -0.0116574 0 380.931 380.931 1000.9 
203 1 1 0.386793 0.0334323 0 0 0 0 -0.112892 -0.0171974 0 -0.080042 0.0444324 0 -0.112892 -0.0171974 0 454.01 454.01 1001.08 
204 1 1 0.395833 0.0503331 0 0 0 0 -0.108337 -0.010148 0 0.0226476 0.0309816 0 -0.108337 -0.010148 0 300.732 300.732 1000.71 
205 1 1 0.397908 0.015811 0 0 0 0 -0.0704495 0.0165337 0 0.0264579 -0.0355579 0 -0.0704495 0.0165337 0 539.861 539.861 1001.28 
206 1 1 0.412894 0.025734 0 0 0 0 -0.101598 -0.00581638 0 -0.0399038 -0.0259517 0 -0.101598 -0.00581638 0 483.871 483.871 1001.15 
207 1 1 0.437927 0.0415804 0 0 0 0 -0.0393525 -0.0514521 0 0.0829425 -0.035604 0 -0.0393525 -0.0514521 0 383.366 383.366 1000.91 
208 1 1 0.436184 0.0325591 0 0 0 0 -0.0867577 -0.0381498 0 0.0212388 -0.00257059 0 -0.0867577 -0.0381498 0 458.401 458.401 1001.09 
209 1 1 0.425896 0.0387541 0 0 0 0 -0.0563924 -0.0280241 0 -0.039898 -0.0628966 0 -0.0563924 -0.0280241 0 404.821 404.821 1000.96 
210 1 1 0.448377 0.0341133 0 0 0 0 -0.0734107 -0.0248647 0 0.0175784 -0.0753196 0 -0.0734107 -0.0248647 0 478.433 478.433 1001.14 
211 1 1 0.43001 0.0260468 0 0 0 0 -0.0710018 -0.0481217 0 -0.0222208 -0.043949 0 -0.0710018 -0.0481217 0 502.604 502.604 1001.19 
212 1 1 0.457429 0.0273323 0 0 0 0 -0.0624219 -0.00410437 0 0.0291959 0.0339097 0 -0.0624219 -0.00410437 0 482.748 482.748 1001.15 
213 1 1 0.463618 0.0178416 0 0 0 0 -0.00597344 -0.0177194 0 -0.02135 -0.0393046 0 -0.00597344 -0.0177194 0 539.582 539.582 1001.28 
214 1 1 0.477559 0.0402262 0 0 0 0 0.00042276 -0.036014 0 -0.0681657 0.0715488 0 0.00042276 -0.036014 0 430.252 430.252 1001.02 
215 1 1 0.489616 0.0285482 0 0 0 0 -0.0166354 -0.0294841 0 -0.0376281 -0.0322018 0 -0.0166354 -0.0294841 0 507.536 507.536 1001.2 
216 1 1 0.478097 0.0312527 0 0 0 0 -0.00220526 -0.0394813 0 0.0585302 0.0137039 0 -0.00220526 -0.0394813 0 478.389 478.389 1001.14 
217 1 1 0.489022 0.0377393 0 0 0 0 0.0163921 -0.0165201 0 -0.00550239 0.000668527 0 0.0163921 -0.0165201 0 439.989 439.989 1001.04 
218 1 1 0.218501 0.0505804 0 0 0 0 -0.070296 0.0431294 0 -0.0289589 -0.0122102 0 -0.070296 0.0431294 0 260.059 260.059 1000.62 
219 1 1 0.165268 0.0387955 0 0 0 0 -0.027407 0.0303872 0 -0.0792099 -0.00989477 0 -0.027407 0.0303872 0 307.319 307.319 1000.73 
220 1 1 0.190093 0.0449064 0 0 0 0 -0.0286126 -0.00435343 0 -0.0289684 -0.0180336 0 -0.0286126 -0.00435343 0 248.392 248.392 1000.59 
221 1 1 0.228936 0.0489149 0 0 0 0 -0.0727207 0.0434973 0 -0.038608 -0.00758309 0 -0.0727207 0.0434973 0 239.746 239.746 1000.57 
222 1 1 0.210962 0.0393719 0 0 0 0 -0.0370615 0.0370402 0 -0.042128 0.0473471 0 -0.0370615 0.0370402 0 285.696 285.696 1000.68 
223 1 1 0.259171 0.0437373 0 0 0 0 -0.0880359 0.00992511 0 -0.0636858 0.0154647 0 -0.0880359 0.00992511 0 282.97 282.97 1000.67 
224 1 1 0.265651 0.034392 0 0 0 0 -0.0738428 0.0370254 0 -0.0488579 0.0163339 0 -0.0738428 0.0370254 0 346.478 346.478 1000.82 
225 1 1 0.270267 0.0442504 0 0 0 0 -0.087823 0.0550537 0 -0.0885021 -0.0124194 0 -0.087823 0.0550537 0 282.266 282.266 1000.67 
226 1 1 0.286642 0.0543452 0 0 0 0 -0.10597 0.0136103 0 -0.0514156 0.0512547 0 -0.10597 0.0136103 0 232.675 232.675 1000.55 
227 1 1 0.29253 0.0265517 0 0 0 0 -0.0943375 -0.0233153 0 -0.0341465 0.0012434 0 -0.0943375 -0.0233153 0 417.583 417.583 1000.99 
228 1 1 0.295225 0.0456067 0 0 0 0 -0.133685 0.00700395 0 -0.0731568 -0.00924085 0 -0.133685 0.00700395 0 290.079 290.079 1000.69 
229 1 1 0.307123 0.0524872 0 0 0 0 -0.133348 0.0262659 0 -0.085 -0.015814 0 -0.133348 0.0262659 0 273.836 273.836 1000.65 