ITEM: TIMESTEP
45000
ITEM: NUMBER OF ATOMS
754
ITEM: BOX BOUNDS ff ff pp
-0.021 0.521
-0.021 0.5
-0.001 0.001
ITEM: ATOMS id type type x y z ix iy iz vx vy vz fx fy fz vx vy vz p p rho 
1 1 1 0.0103268 0.00659425 0 0 0 0 0.0145632 0.140051 0 0.135712 6.45947 0 0.0145632 0.140051 0 -1511.67 -1511.67 996.361 
2 1 1 0.0289354 0.00707483 0 0 0 0 -0.044316 0.088582 0 -1.59729 3.37244 0 -0.044316 0.088582 0 -1099.85 -1099.85 997.36 
3 1 1 0.0573797 0.00825981 0 0 0 0 -0.0500752 0.020687 0 -1.56473 -0.0523924 0 -0.0500752 0.020687 0 -235.527 -235.527 999.438 
4 1 1 0.0696817 0.00784288 0 0 0 0 -0.0451558 -0.0143386 0 -1.34868 0.087368 0 -0.0451558 -0.0143386 0 53.7824 53.7824 1000.13 
5 1 1 0.0944544 0.00829717 0 0 0 0 0.0086917 -0.0191808 0 -0.517356 0.0217511 0 0.0086917 -0.0191808 0 343.796 343.796 1000.82 
6 1 1 0.106895 0.00815971 0 0 0 0 -0.0180866 0.0285441 0 -0.41169 0.0567914 0 -0.0180866 0.0285441 0 421.234 421.234 1001 
7 1 1 0.141527 0.00840324 0 0 0 0 0.0638504 0.0222649 0 -0.0939309 -0.00501588 0 0.0638504 0.0222649 0 511.761 511.761 1001.21 
8 1 1 0.153853 0.00770859 0 0 0 0 0.0423091 0.00062032 0 -0.132448 0.00150549 0 0.0423091 0.00062032 0 544.088 544.088 1001.29 
9 1 1 0.17564 0.00772532 0 0 0 0 0.115476 0.0185868 0 0.0304708 0.0149371 0 0.115476 0.0185868 0 548.431 548.431 1001.3 
10 1 1 0.19642 0.0080718 0 0 0 0 0.160293 -0.00277094 0 -0.0084461 -0.0209041 0 0.160293 -0.00277094 0 554.225 554.225 1001.31 
11 1 1 0.0226452 0.0139785 0 0 0 0 -0.0134754 0.0826827 0 0.985463 0.732155 0 -0.0134754 0.0826827 0 -1223.49 -1223.49 997.061 
12 1 1 0.0434127 0.0078731 0 0 0 0 -0.0333972 0.0336784 0 -1.7594 0.78855 0 -0.0333972 0.0336784 0 -668.721 -668.721 998.4 
13 1 1 0.0641414 0.0163411 0 0 0 0 -0.0105726 0.0032213 0 -1.68799 -0.355028 0 -0.0105726 0.0032213 0 -177.666 -177.666 999.576 
14 1 1 0.0832329 0.00843205 0 0 0 0 -0.0178147 0.0230021 0 -0.908633 0.0239305 0 -0.0178147 0.0230021 0 233.213 233.213 1000.55 
15 1 1 0.105026 0.0161167 0 0 0 0 0.0278071 -0.000602241 0 -0.411948 -0.0708939 0 0.0278071 -0.000602241 0 356.026 356.026 1000.85 
16 1 1 0.129987 0.0081224 0 0 0 0 0.121935 0.00190563 0 -0.278161 -0.0281094 0 0.121935 0.00190563 0 487.473 487.473 1001.16 
17 1 1 0.143547 0.0161549 0 0 0 0 0.110695 0.0138019 0 -0.0618206 -0.078851 0 0.110695 0.0138019 0 444.553 444.553 1001.06 
18 1 1 0.166626 0.0106068 0 0 0 0 0.0741006 -0.0229584 0 -0.195111 -0.191495 0 0.0741006 -0.0229584 0 520.534 520.534 1001.23 
19 1 1 0.186433 0.00990464 0 0 0 0 0.083492 -0.0435564 0 -0.077575 0.0635365 0 0.083492 -0.0435564 0 538.602 538.602 1001.28 
20 1 1 0.195438 0.0183733 0 0 0 0 0.111324 -0.0491452 0 -0.138386 -0.0623527 0 0.111324 -0.0491452 0 484.699 484.699 1001.15 
21 1 1 0.0146331 0.0146774 0 0 0 0 0.00333069 0.137547 0 -1.64841 0.485928 0 0.00333069 0.137547 0 -1354.3 -1354.3 996.744 
22 1 1 0.0363337 0.0146059 0 0 0 0 -0.0593837 -0.0277885 0 -1.50252 -1.57477 0 -0.0593837 -0.0277885 0 -1043.78 -1043.78 997.496 
23 1 1 0.0511193 0.014481 0 0 0 0 -0.0439141 0.0241204 0 -2.22177 0.301701 0 -0.0439141 0.0241204 0 -514.923 -514.923 998.769 
24 1 1 0.0817518 0.0222454 0 0 0 0 0.0162828 0.0228865 0 -0.942359 -0.299306 0 0.0162828 0.0228865 0 92.8249 92.8249 1000.22 
25 1 1 0.0925018 0.0168038 0 0 0 0 -0.018099 -0.0093234 0 -0.654614 -0.177543 0 -0.018099 -0.0093234 0 252.713 252.713 1000.6 
26 1 1 0.117855 0.00902899 0 0 0 0 0.0287366 -0.0626894 0 -0.157633 0.0284554 0 0.0287366 -0.0626894 0 457.655 457.655 1001.09 
27 1 1 0.131606 0.0172223 0 0 0 0 0.0442654 0.0218883 0 -0.0949212 -0.0430464 0 0.0442654 0.0218883 0 425.575 425.575 1001.01 
28 1 1 0.159701 0.0151189 0 0 0 0 0.109865 -0.0243025 0 -0.118523 0.00912381 0 0.109865 -0.0243025 0 492.303 492.303 1001.17 
29 1 1 0.182186 0.0183855 0 0 0 0 0.172721 0.0369147 0 -0.108288 -0.146472 0 0.172721 0.0369147 0 450.527 450.527 1001.07 
30 1 1 0.198157 0.0322632 0 0 0 0 0.110203 -0.0416116 0 -0.0467544 -0.147925 0 0.110203 -0.0416116 0 341.717 341.717 1000.81 
31 1 1 0.0205418 0.0239957 0 0 0 0 -0.218541 0.0312726 0 -3.30386 -4.13605 0 -0.218541 0.0312726 0 -1648.13 -1648.13 996.029 
32 1 1 0.0438165 0.0220054 0 0 0 0 -0.115254 -0.0152441 0 -2.77083 -0.727821 0 -0.115254 -0.0152441 0 -816.42 -816.42 998.045 
33 1 1 0.0773157 0.0149616 0 0 0 0 0.0115726 -0.0251078 0 -1.09802 -0.0873801 0 0.0115726 -0.0251078 0 100.538 100.538 1000.24 
34 1 1 0.0938054 0.0239869 0 0 0 0 0.0444948 -0.0125492 0 -0.473698 -0.174043 0 0.0444948 -0.0125492 0 203.613 203.613 1000.48 
35 1 1 0.11982 0.0162157 0 0 0 0 0.0772411 -0.0826351 0 -0.246537 0.0659456 0 0.0772411 -0.0826351 0 402.76 402.76 1000.96 
36 1 1 0.14081 0.024734 0 0 0 0 0.0512845 -0.0175224 0 -0.207253 0.0907526 0 0.0512845 -0.0175224 0 354.307 354.307 1000.84 
37 1 1 0.166412 0.0239896 0 0 0 0 0.12247 -0.0158237 0 -0.082924 -0.0878857 0 0.12247 -0.0158237 0 376.987 376.987 1000.9 
38 1 1 0.173979 0.0194869 0 0 0 0 0.116788 -0.0745629 0 -0.00927452 0.0456465 0 0.116788 -0.0745629 0 423.064 423.064 1001 
39 1 1 0.189808 0.0252735 0 0 0 0 0.0807832 -0.00479867 0 0.0254649 0.0350654 0 0.0807832 -0.00479867 0 406.972 406.972 1000.97 
40 1 1 0.182863 0.0456363 0 0 0 0 0.0164841 0.0110133 0 -0.0133157 -0.174614 0 0.0164841 0.0110133 0 190.024 190.024 1000.45 
41 1 1 0.00792105 0.0209951 0 0 0 0 0.112257 0.179426 0 5.34229 0.235909 0 0.112257 0.179426 0 -1284.86 -1284.86 996.912 
42 1 1 0.0321213 0.0222556 0 0 0 0 -0.173333 0.0920996 0 -4.24478 1.56917 0 -0.173333 0.0920996 0 -1140.7 -1140.7 997.262 
43 1 1 0.0575741 0.0234402 0 0 0 0 -0.0960098 0.0124197 0 -1.58641 -0.958973 0 -0.0960098 0.0124197 0 -404.058 -404.058 999.035 
44 1 1 0.0774185 0.0317713 0 0 0 0 0.0110122 -0.00370959 0 -0.774017 -0.694658 0 0.0110122 -0.00370959 0 -18.2344 -18.2344 999.957 
45 1 1 0.106578 0.0242408 0 0 0 0 0.0442567 -0.0129167 0 -0.420078 -0.158405 0 0.0442567 -0.0129167 0 282.745 282.745 1000.67 
46 1 1 0.127915 0.0248377 0 0 0 0 0.0428601 -0.0268294 0 -0.179783 -0.122648 0 0.0428601 -0.0268294 0 347.494 347.494 1000.83 
47 1 1 0.152384 0.0210863 0 0 0 0 0.118261 -0.00856604 0 -0.00191097 -0.172248 0 0.118261 -0.00856604 0 419.93 419.93 1001 
48 1 1 0.181206 0.0304208 0 0 0 0 0.0789225 0.0306898 0 -0.192195 -0.00841158 0 0.0789225 0.0306898 0 345.704 345.704 1000.82 
49 1 1 0.188459 0.0364111 0 0 0 0 0.106885 0.00228966 0 -0.0516975 -0.00937925 0 0.106885 0.00228966 0 279.616 279.616 1000.66 
50 1 1 0.180418 0.0573177 0 0 0 0 0.0165724 -0.0116668 0 -0.081943 -0.0266687 0 0.0165724 -0.0116668 0 73.7717 73.7717 1000.18 
51 1 1 0.0127037 0.0312294 0 0 0 0 -0.0208853 0.330382 0 3.02114 0.809424 0 -0.0208853 0.330382 0 -2171.81 -2171.81 994.747 
52 1 1 0.0501275 0.0284821 0 0 0 0 0.0157222 -0.0220119 0 -2.05835 -1.44645 0 0.0157222 -0.0220119 0 -595.781 -595.781 998.575 
53 1 1 0.0625068 0.0321075 0 0 0 0 0.0869021 -0.0184864 0 -1.64751 -0.993972 0 0.0869021 -0.0184864 0 -282.612 -282.612 999.326 
54 1 1 0.0893121 0.0314954 0 0 0 0 0.0534712 -0.0365038 0 -0.615027 -0.388441 0 0.0534712 -0.0365038 0 109.993 109.993 1000.26 
55 1 1 0.108869 0.0383607 0 0 0 0 0.0662508 -0.0519636 0 -0.134465 -0.278349 0 0.0662508 -0.0519636 0 157.48 157.48 1000.37 
56 1 1 0.131929 0.0330249 0 0 0 0 0.0786546 0.0114126 0 -0.0536392 -0.0779676 0 0.0786546 0.0114126 0 267.519 267.519 1000.64 
57 1 1 0.151865 0.0289058 0 0 0 0 0.122075 -0.0412596 0 -0.156606 0.0502494 0 0.122075 -0.0412596 0 342.044 342.044 1000.81 
58 1 1 0.160334 0.0412899 0 0 0 0 0.0521507 0.0125167 0 -0.0301219 -0.070907 0 0.0521507 0.0125167 0 220.73 220.73 1000.52 
59 1 1 0.175402 0.043119 0 0 0 0 0.0690174 -0.0401814 0 -0.0947762 -0.137706 0 0.0690174 -0.0401814 0 228.453 228.453 1000.54 
60 1 1 0.194622 0.0463482 0 0 0 0 0.0435919 0.016235 0 -0.0818145 0.0470925 0 0.0435919 0.016235 0 197.779 197.779 1000.47 
61 1 1 0.00753437 0.0390692 0 0 0 0 -1.49754 -0.155519 0 -1.53235 6.0579 0 -1.49754 -0.155519 0 -1969.27 -1969.27 995.244 
62 1 1 0.0366292 0.0306223 0 0 0 0 -0.156738 0.0453155 0 -4.30898 -0.22556 0 -0.156738 0.0453155 0 -994.145 -994.145 997.616 
63 1 1 0.0699814 0.023432 0 0 0 0 -0.019396 -0.0733267 0 -1.31374 -0.278156 0 -0.019396 -0.0733267 0 -100.087 -100.087 999.762 
64 1 1 0.0824524 0.0403185 0 0 0 0 -0.0167746 -0.0202652 0 -0.679028 -0.660659 0 -0.0167746 -0.0202652 0 2.9986 2.9986 1000.01 
65 1 1 0.102318 0.0326835 0 0 0 0 0.0621267 -0.0185872 0 -0.455672 -0.267027 0 0.0621267 -0.0185872 0 176.971 176.971 1000.42 
66 1 1 0.115377 0.0251157 0 0 0 0 0.0521749 -0.0896598 0 -0.1695 -0.21086 0 0.0521749 -0.0896598 0 291.47 291.47 1000.69 
67 1 1 0.139653 0.0359022 0 0 0 0 0.11477 -0.0456173 0 -0.00249367 -0.11585 0 0.11477 -0.0456173 0 255.698 255.698 1000.61 
68 1 1 0.162348 0.0313361 0 0 0 0 0.0965959 0.011231 0 -0.12361 0.0053383 0 0.0965959 0.011231 0 313.351 313.351 1000.74 
69 1 1 0.172522 0.0330022 0 0 0 0 0.0744284 -0.0761052 0 -0.0480862 0.00469272 0 0.0744284 -0.0761052 0 330.17 330.17 1000.78 
70 1 1 0.17326 0.0573657 0 0 0 0 0.0288891 0.00164093 0 -0.125035 -0.0528111 0 0.0288891 0.00164093 0 75.6963 75.6963 1000.18 
71 1 1 0.0329087 0.0425567 0 0 0 0 -0.241756 -0.272709 0 -6.42003 -7.65964 0 -0.241756 -0.272709 0 -1962.32 -1962.32 995.261 
72 1 1 0.0236976 0.0310043 0 0 0 0 -0.135277 0.228557 0 1.05039 2.12151 0 -0.135277 0.228557 0 -1967.11 -1967.11 995.249 
73 1 1 0.049124 0.0365019 0 0 0 0 -0.0792479 -0.0519913 0 -3.30988 -1.87653 0 -0.0792479 -0.0519913 0 -594.746 -594.746 998.578 
74 1 1 0.0711248 0.0361561 0 0 0 0 -0.0089453 -0.0674063 0 -1.02373 -0.635582 0 -0.0089453 -0.0674063 0 -107.617 -107.617 999.744 
75 1 1 0.0924455 0.0396727 0 0 0 0 -0.0491604 -0.0114039 0 -0.436327 -0.461743 0 -0.0491604 -0.0114039 0 87.5459 87.5459 1000.21 
76 1 1 0.118409 0.0326038 0 0 0 0 0.0763768 -0.0676237 0 -0.161189 -0.0327499 0 0.0763768 -0.0676237 0 226.395 226.395 1000.54 
77 1 1 0.124076 0.039099 0 0 0 0 0.0427805 -0.0656585 0 -0.236089 -0.093027 0 0.0427805 -0.0656585 0 184.24 184.24 1000.44 
78 1 1 0.150249 0.0380021 0 0 0 0 0.060667 -0.0381516 0 -0.0789939 -0.0903758 0 0.060667 -0.0381516 0 249.115 249.115 1000.59 
79 1 1 0.166599 0.0465142 0 0 0 0 0.0725864 -0.0111825 0 -0.041543 -0.0836354 0 0.0725864 -0.0111825 0 183.685 183.685 1000.44 
80 1 1 0.143193 0.0562613 0 0 0 0 -0.0399892 -0.0796732 0 -0.0861811 0.0575862 0 -0.0399892 -0.0796732 0 90.4364 90.4364 1000.22 
81 1 1 0.00794408 0.0542593 0 0 0 0 0.411353 -0.0777199 0 -36.3323 -13.9086 0 0.411353 -0.0777199 0 -6772.43 -6772.43 983.036 
82 1 1 0.0384559 0.0385409 0 0 0 0 0.0551653 -0.278472 0 1.56731 -6.95986 0 0.0551653 -0.278472 0 -1236.44 -1236.44 997.03 
83 1 1 0.0620332 0.0426728 0 0 0 0 -0.0688025 -0.00857232 0 -0.710227 -1.93437 0 -0.0688025 -0.00857232 0 -270.732 -270.732 999.354 
84 1 1 0.0743411 0.0473709 0 0 0 0 -0.107875 -0.0222808 0 -0.60672 -1.18611 0 -0.107875 -0.0222808 0 -58.492 -58.492 999.861 
85 1 1 0.0962213 0.0456599 0 0 0 0 -0.0491649 -0.0645921 0 -0.252732 -0.333175 0 -0.0491649 -0.0645921 0 84.2965 84.2965 1000.2 
86 1 1 0.10793 0.0451093 0 0 0 0 -0.0187209 -0.0827171 0 -0.216425 -0.182203 0 -0.0187209 -0.0827171 0 129.026 129.026 1000.31 
87 1 1 0.124582 0.0479294 0 0 0 0 0.0662882 -0.02981 0 -0.0882668 -0.132844 0 0.0662882 -0.02981 0 122.35 122.35 1000.29 
88 1 1 0.137281 0.045369 0 0 0 0 0.0293998 -0.0437011 0 -0.118763 -0.110655 0 0.0293998 -0.0437011 0 146.809 146.809 1000.35 
89 1 1 0.148286 0.0465332 0 0 0 0 0.0387383 -0.0299581 0 -0.0972494 -0.0681995 0 0.0387383 -0.0299581 0 148.511 148.511 1000.35 
90 1 1 0.154918 0.0535408 0 0 0 0 0.0723123 -0.0627528 0 -0.102074 -0.0203456 0 0.0723123 -0.0627528 0 100.882 100.882 1000.24 
91 1 1 0.0117477 0.0457695 0 0 0 0 -0.921053 1.16648 0 -20.3676 3.84385 0 -0.921053 1.16648 0 -4335.44 -4335.44 989.343 
92 1 1 0.0247256 0.0396533 0 0 0 0 -0.372339 -0.431064 0 -2.1598 -8.56267 0 -0.372339 -0.431064 0 -2568.77 -2568.77 993.769 
93 1 1 0.0525426 0.0444079 0 0 0 0 0.0400939 -0.0341564 0 -0.385707 -3.41059 0 0.0400939 -0.0341564 0 -465.978 -465.978 998.887 
94 1 1 0.065805 0.0514185 0 0 0 0 -0.0456872 0.0319193 0 -0.29621 -2.00946 0 -0.0456872 0.0319193 0 -166.077 -166.077 999.604 
95 1 1 0.0823191 0.0540318 0 0 0 0 -0.150574 0.00940753 0 -0.271523 -0.848005 0 -0.150574 0.00940753 0 4.13531 4.13531 1000.01 
96 1 1 0.0876405 0.0604191 0 0 0 0 -0.176335 0.0121941 0 -0.0731788 -0.82517 0 -0.176335 0.0121941 0 -31.8647 -31.8647 999.924 
97 1 1 0.0953165 0.0554629 0 0 0 0 -0.208143 -0.107813 0 -0.0971269 -0.485187 0 -0.208143 -0.107813 0 40.0416 40.0416 1000.1 
98 1 1 0.115441 0.0514138 0 0 0 0 0.010295 -0.124619 0 -0.00989245 -0.180676 0 0.010295 -0.124619 0 128.428 128.428 1000.31 
99 1 1 0.131706 0.0528439 0 0 0 0 -0.0281684 0.00323435 0 -0.0785753 0.0518368 0 -0.0281684 0.00323435 0 89.343 89.343 1000.21 
100 1 1 0.110341 0.0609206 0 0 0 0 -0.146171 -0.167554 0 -0.100871 -0.266661 0 -0.146171 -0.167554 0 97.8632 97.8632 1000.23 
101 1 1 0.203148 0.0203801 0 0 0 0 0.0915072 0.0199144 0 -0.0764292 -0.00233538 0 0.0915072 0.0199144 0 469.461 469.461 1001.11 
102 1 1 0.206597 0.00979997 0 0 0 0 0.138852 0.0161416 0 -0.0923651 -0.0253569 0 0.138852 0.0161416 0 550.866 550.866 1001.31 
103 1 1 0.213825 0.0171992 0 0 0 0 0.128135 0.00512072 0 -0.139793 -0.0247282 0 0.128135 0.00512072 0 498.326 498.326 1001.18 
104 1 1 0.217607 0.00768041 0 0 0 0 0.131761 -0.00969471 0 0.0572818 -0.00897032 0 0.131761 -0.00969471 0 582.408 582.408 1001.38 
105 1 1 0.223867 0.0163413 0 0 0 0 0.0993615 0.013189 0 0.0286344 -0.00435162 0 0.0993615 0.013189 0 520.473 520.473 1001.23 
106 1 1 0.231238 0.00770062 0 0 0 0 0.1443 -0.0121517 0 -0.167315 -0.0156303 0 0.1443 -0.0121517 0 604.151 604.151 1001.43 
107 1 1 0.240506 0.0148741 0 0 0 0 0.12101 0.026322 0 -0.0408151 -0.00850521 0 0.12101 0.026322 0 541.289 541.289 1001.28 
108 1 1 0.245536 0.00776375 0 0 0 0 0.139712 0.0030983 0 -0.0769795 0.0230163 0 0.139712 0.0030983 0 605.001 605.001 1001.43 
109 1 1 0.252933 0.0180228 0 0 0 0 0.127871 -0.0187434 0 -0.191048 0.0300863 0 0.127871 -0.0187434 0 531.172 531.172 1001.26 
110 1 1 0.256316 0.0107409 0 0 0 0 0.110356 0.00867731 0 -0.0358016 -0.129908 0 0.110356 0.00867731 0 588.14 588.14 1001.39 
111 1 1 0.265331 0.00839096 0 0 0 0 0.145571 -0.0278002 0 -0.106388 0.030613 0 0.145571 -0.0278002 0 609.989 609.989 1001.45 
112 1 1 0.276132 0.00929907 0 0 0 0 0.148822 0.0187552 0 0.000837108 -0.0215632 0 0.148822 0.0187552 0 622.629 622.629 1001.48 
113 1 1 0.285739 0.00921951 0 0 0 0 0.143981 -0.0326445 0 -0.193787 -0.0533883 0 0.143981 -0.0326445 0 620.547 620.547 1001.47 
114 1 1 0.295931 0.00958813 0 0 0 0 0.201194 0.0232909 0 -0.0176923 -0.0604526 0 0.201194 0.0232909 0 627.011 627.011 1001.49 
115 1 1 0.305303 0.0202706 0 0 0 0 0.254386 0.0604806 0 -0.401514 -0.184888 0 0.254386 0.0604806 0 550.608 550.608 1001.31 
116 1 1 0.305991 0.0086254 0 0 0 0 0.160056 0.0316442 0 -0.0508225 -0.0546192 0 0.160056 0.0316442 0 654.126 654.126 1001.55 
117 1 1 0.3136 0.012598 0 0 0 0 0.153979 -0.0254055 0 0.00467704 -0.0869003 0 0.153979 -0.0254055 0 627.479 627.479 1001.49 
118 1 1 0.32264 0.0072793 0 0 0 0 0.128683 -0.0344871 0 -0.207312 0.246335 0 0.128683 -0.0344871 0 699.233 699.233 1001.66 
119 1 1 0.332586 0.0111798 0 0 0 0 0.243042 -0.0109002 0 -0.112143 -0.248529 0 0.243042 -0.0109002 0 649.19 649.19 1001.54 
120 1 1 0.339365 0.0120504 0 0 0 0 0.193459 0.0274658 0 -0.0621248 -0.0756373 0 0.193459 0.0274658 0 640.433 640.433 1001.52 
121 1 1 0.345979 0.0120735 0 0 0 0 0.233319 0.0223501 0 0.199235 -0.0747478 0 0.233319 0.0223501 0 650.65 650.65 1001.54 
122 1 1 0.353416 0.00931816 0 0 0 0 0.204568 -0.0373358 0 0.0911205 -0.0358563 0 0.204568 -0.0373358 0 656.489 656.489 1001.56 
123 1 1 0.36096 0.0107318 0 0 0 0 0.198408 0.059936 0 0.122959 0.301903 0 0.198408 0.059936 0 638.291 638.291 1001.51 
124 1 1 0.368571 0.010431 0 0 0 0 0.152249 0.0191109 0 0.0161442 0.0710934 0 0.152249 0.0191109 0 616.523 616.523 1001.46 
125 1 1 0.376413 0.00998857 0 0 0 0 0.132703 -0.00637683 0 -0.0124865 0.0222819 0 0.132703 -0.00637683 0 601.553 601.553 1001.43 
126 1 1 0.384584 0.0103624 0 0 0 0 0.135794 -0.0129196 0 -0.101553 -0.0235988 0 0.135794 -0.0129196 0 588.674 588.674 1001.4 
127 1 1 0.392574 0.0100624 0 0 0 0 0.145452 -0.0380456 0 -0.0704448 -0.162522 0 0.145452 -0.0380456 0 596.456 596.456 1001.41 
128 1 1 0.400419 0.0114095 0 0 0 0 0.15791 0.0161171 0 -0.0247625 -0.185235 0 0.15791 0.0161171 0 589.456 589.456 1001.4 
129 1 1 0.408204 0.00967405 0 0 0 0 0.165478 -0.0482736 0 0.030749 -0.256619 0 0.165478 -0.0482736 0 621.518 621.518 1001.47 
130 1 1 0.415773 0.0124544 0 0 0 0 0.16149 0.0841441 0 0.00237073 -0.0476805 0 0.16149 0.0841441 0 599.116 599.116 1001.42 
131 1 1 0.423402 0.00875699 0 0 0 0 0.149277 -0.0652939 0 -0.00777206 -0.0588995 0 0.149277 -0.0652939 0 639.572 639.572 1001.52 
132 1 1 0.430864 0.0128439 0 0 0 0 0.125019 0.114126 0 0.0132942 0.0654016 0 0.125019 0.114126 0 603.181 603.181 1001.43 
133 1 1 0.438634 0.00851372 0 0 0 0 0.105137 -0.0456195 0 0.0185933 -0.0241716 0 0.105137 -0.0456195 0 648.571 648.571 1001.54 
134 1 1 0.446604 0.0122914 0 0 0 0 0.0746468 0.0903097 0 -0.00263301 0.0890436 0 0.0746468 0.0903097 0 616.674 616.674 1001.46 
135 1 1 0.454638 0.00804724 0 0 0 0 0.0415497 -0.0373565 0 0.0350003 0.0386926 0 0.0415497 -0.0373565 0 657.581 657.581 1001.56 
136 1 1 0.463742 0.0117571 0 0 0 0 0.0418401 0.0655412 0 -0.0172425 0.0184308 0 0.0418401 0.0655412 0 636.462 636.462 1001.51 
137 1 1 0.471883 0.00792798 0 0 0 0 -0.00101595 -0.0206136 0 -0.0160114 -0.040085 0 -0.00101595 -0.0206136 0 662.401 662.401 1001.57 
138 1 1 0.48173 0.0105274 0 0 0 0 0.0180123 0.0158124 0 -0.0138257 -0.0196918 0 0.0180123 0.0158124 0 641.588 641.588 1001.52 
139 1 1 0.490858 0.00754399 0 0 0 0 -0.00407087 -0.00245626 0 -0.00428847 -0.00323906 0 -0.00407087 -0.00245626 0 645.64 645.64 1001.53 
140 1 1 0.208154 0.0345861 0 0 0 0 0.0725368 0.0273844 0 -0.0389346 0.00161278 0 0.0725368 0.0273844 0 322.744 322.744 1000.77 
141 1 1 0.210394 0.0277291 0 0 0 0 0.108147 -0.0212793 0 -0.0151188 -0.00553819 0 0.108147 -0.0212793 0 393.229 393.229 1000.93 
142 1 1 0.231282 0.03008 0 0 0 0 0.178518 -0.00532184 0 -0.0287518 -0.0350556 0 0.178518 -0.00532184 0 390.187 390.187 1000.93 
143 1 1 0.220408 0.0264208 0 0 0 0 0.116986 0.0362263 0 -0.0879624 -0.0111613 0 0.116986 0.0362263 0 423.921 423.921 1001.01 
144 1 1 0.239791 0.0304157 0 0 0 0 0.169369 0.0180882 0 -0.031429 0.100347 0 0.169369 0.0180882 0 396.271 396.271 1000.94 
145 1 1 0.231996 0.0183767 0 0 0 0 0.0843591 -0.0409928 0 -0.0893338 0.115401 0 0.0843591 -0.0409928 0 501.549 501.549 1001.19 
146 1 1 0.250202 0.0353287 0 0 0 0 0.169612 0.00857747 0 -0.0772242 0.0779268 0 0.169612 0.00857747 0 335.407 335.407 1000.8 
147 1 1 0.244183 0.0238884 0 0 0 0 0.0888328 -0.00273755 0 0.0566152 -0.0292978 0 0.0888328 -0.00273755 0 471.758 471.758 1001.12 
148 1 1 0.256356 0.027998 0 0 0 0 0.0973177 -0.0131658 0 -0.151078 -0.0987016 0 0.0973177 -0.0131658 0 419.96 419.96 1001 
149 1 1 0.263806 0.0206746 0 0 0 0 0.131381 -0.0025934 0 -0.077159 0.0493862 0 0.131381 -0.0025934 0 509.195 509.195 1001.21 
150 1 1 0.286194 0.0279827 0 0 0 0 0.219976 -0.0776651 0 -0.238799 0.058422 0 0.219976 -0.0776651 0 465.826 465.826 1001.11 
151 1 1 0.272055 0.0182707 0 0 0 0 0.117669 -0.0309235 0 -0.0404588 0.0050735 0 0.117669 -0.0309235 0 547.612 547.612 1001.3 
152 1 1 0.283069 0.0193534 0 0 0 0 0.145237 0.00496176 0 -0.0855853 -0.0285815 0 0.145237 0.00496176 0 538.327 538.327 1001.28 
153 1 1 0.294471 0.0171902 0 0 0 0 0.139662 -0.0843204 0 0.0276257 0.215844 0 0.139662 -0.0843204 0 571.976 571.976 1001.36 
154 1 1 0.308696 0.0265699 0 0 0 0 0.212458 -0.0315038 0 0.0738451 0.0363964 0 0.212458 -0.0315038 0 496.354 496.354 1001.18 
155 1 1 0.318642 0.0196888 0 0 0 0 0.28245 0.000212382 0 -0.0426891 -0.0459903 0 0.28245 0.000212382 0 565.002 565.002 1001.34 
156 1 1 0.322045 0.0286872 0 0 0 0 0.229603 -0.0572063 0 -0.117846 0.0123579 0 0.229603 -0.0572063 0 474.681 474.681 1001.13 
157 1 1 0.328074 0.0189136 0 0 0 0 0.208086 -0.0720405 0 0.0397125 0.157363 0 0.208086 -0.0720405 0 602.449 602.449 1001.43 
158 1 1 0.333704 0.0274257 0 0 0 0 0.202895 0.0425015 0 -0.013843 -0.220073 0 0.202895 0.0425015 0 509.125 509.125 1001.21 
159 1 1 0.340988 0.0268445 0 0 0 0 0.177379 0.0128009 0 -0.219505 -0.244243 0 0.177379 0.0128009 0 513.825 513.825 1001.22 
160 1 1 0.348662 0.0231314 0 0 0 0 0.223474 -0.0563176 0 -0.092046 -0.292446 0 0.223474 -0.0563176 0 565.07 565.07 1001.34 
161 1 1 0.356268 0.0246773 0 0 0 0 0.224428 0.0545797 0 -0.237541 -0.0616757 0 0.224428 0.0545797 0 570.829 570.829 1001.35 
162 1 1 0.362509 0.0246179 0 0 0 0 0.229372 0.0702183 0 -0.00957154 -0.0466513 0 0.229372 0.0702183 0 579.599 579.599 1001.37 
163 1 1 0.369614 0.0237325 0 0 0 0 0.252247 0.0441159 0 0.0942615 -0.0221994 0 0.252247 0.0441159 0 580.573 580.573 1001.38 
164 1 1 0.376506 0.0231265 0 0 0 0 0.23384 0.03776 0 0.116719 0.133069 0 0.23384 0.03776 0 578.479 578.479 1001.37 
165 1 1 0.383418 0.022863 0 0 0 0 0.203731 0.0336025 0 0.212498 0.244603 0 0.203731 0.0336025 0 572.733 572.733 1001.36 
166 1 1 0.3907 0.0224939 0 0 0 0 0.161018 0.010155 0 0.202692 0.229476 0 0.161018 0.010155 0 556.028 556.028 1001.32 
167 1 1 0.398488 0.0226061 0 0 0 0 0.121001 0.0011401 0 0.100036 0.242071 0 0.121001 0.0011401 0 527.123 527.123 1001.25 
168 1 1 0.406463 0.0223329 0 0 0 0 0.0900044 -0.0256643 0 0.0108025 0.0612265 0 0.0900044 -0.0256643 0 506.125 506.125 1001.2 
169 1 1 0.414848 0.0230432 0 0 0 0 0.0782499 -0.00802219 0 -0.0681607 -0.0196736 0 0.0782499 -0.00802219 0 501.425 501.425 1001.19 
170 1 1 0.422993 0.0221364 0 0 0 0 0.0731825 -0.0188078 0 0.013661 -0.099101 0 0.0731825 -0.0188078 0 511.767 511.767 1001.21 
171 1 1 0.431747 0.0235586 0 0 0 0 0.0744968 0.0215556 0 -0.0500416 -0.154532 0 0.0744968 0.0215556 0 502.58 502.58 1001.19 
172 1 1 0.439826 0.0211633 0 0 0 0 0.0644162 -0.00896724 0 -0.00886195 -0.117952 0 0.0644162 -0.00896724 0 529.562 529.562 1001.26 
173 1 1 0.44881 0.023532 0 0 0 0 0.0895726 0.0579322 0 0.00322306 -0.0804211 0 0.0895726 0.0579322 0 506.95 506.95 1001.2 
174 1 1 0.456526 0.019684 0 0 0 0 0.0477204 -0.00546427 0 -0.0699034 -0.0277116 0 0.0477204 -0.00546427 0 557.555 557.555 1001.32 
175 1 1 0.465398 0.0228957 0 0 0 0 0.0556622 0.028256 0 -0.0434714 -0.162713 0 0.0556622 0.028256 0 521.886 521.886 1001.24 
176 1 1 0.473677 0.019002 0 0 0 0 0.0324224 -0.00577289 0 -0.043292 0.0177125 0 0.0324224 -0.00577289 0 568.462 568.462 1001.35 
177 1 1 0.482552 0.0208474 0 0 0 0 0.00998309 0.00788168 0 -0.0871203 -0.121552 0 0.00998309 0.00788168 0 553.212 553.212 1001.31 
178 1 1 0.49128 0.0190707 0 0 0 0 0.00603616 0.0051383 0 -0.0472782 -0.0450076 0 0.00603616 0.0051383 0 572.416 572.416 1001.36 
179 1 1 0.19998 0.0431965 0 0 0 0 0.0286908 -0.0399315 0 -0.0280907 -0.0642555 0 0.0286908 -0.0399315 0 224.031 224.031 1000.53 
180 1 1 0.216774 0.0415744 0 0 0 0 0.0754923 -0.00894181 0 -0.0298821 -0.101661 0 0.0754923 -0.00894181 0 258.225 258.225 1000.61 
181 1 1 0.226947 0.0450139 0 0 0 0 0.126319 -0.0713887 0 0.015011 -0.0837234 0 0.126319 -0.0713887 0 211.161 211.161 1000.5 
182 1 1 0.225037 0.0346367 0 0 0 0 0.117819 -0.0740078 0 -0.120696 0.114692 0 0.117819 -0.0740078 0 343.471 343.471 1000.82 
183 1 1 0.243462 0.0506978 0 0 0 0 0.112253 -0.0167095 0 0.0235235 0.0334226 0 0.112253 -0.0167095 0 168.747 168.747 1000.4 
184 1 1 0.237976 0.041583 0 0 0 0 0.10146 0.0290765 0 -0.233537 -0.0745911 0 0.10146 0.0290765 0 256.153 256.153 1000.61 
185 1 1 0.247125 0.043193 0 0 0 0 0.181245 -0.0256014 0 0.0570544 -0.00304078 0 0.181245 -0.0256014 0 247.161 247.161 1000.59 
186 1 1 0.261752 0.0335769 0 0 0 0 0.194338 -0.0624909 0 0.0654646 -0.0331488 0 0.194338 -0.0624909 0 375.484 375.484 1000.89 
187 1 1 0.273723 0.0270043 0 0 0 0 0.157258 -0.0202369 0 -0.163499 -0.0378167 0 0.157258 -0.0202369 0 468.163 468.163 1001.11 
188 1 1 0.278526 0.0365407 0 0 0 0 0.221574 -0.0575497 0 0.117979 -0.0305072 0 0.221574 -0.0575497 0 364.898 364.898 1000.87 
189 1 1 0.297928 0.0410548 0 0 0 0 0.26117 0.030488 0 -0.0107747 0.00933947 0 0.26117 0.030488 0 341.426 341.426 1000.81 
190 1 1 0.294003 0.0277334 0 0 0 0 0.238349 -0.029239 0 -0.0715872 -0.0901051 0 0.238349 -0.029239 0 477.327 477.327 1001.13 
191 1 1 0.302357 0.0512108 0 0 0 0 0.313514 -0.0253641 0 -0.0793718 -0.187076 0 0.313514 -0.0253641 0 260.47 260.47 1000.62 
192 1 1 0.300907 0.0330983 0 0 0 0 0.183943 -0.0578887 0 0.0563523 0.0843905 0 0.183943 -0.0578887 0 432.926 432.926 1001.03 
193 1 1 0.314121 0.0348659 0 0 0 0 0.276032 0.0234103 0 -0.0668239 -0.0777221 0 0.276032 0.0234103 0 424.703 424.703 1001.01 
194 1 1 0.318001 0.0465579 0 0 0 0 0.254262 -0.0339398 0 -0.0189517 -0.00911801 0 0.254262 -0.0339398 0 311.594 311.594 1000.74 
195 1 1 0.325633 0.0371648 0 0 0 0 0.210684 0.042041 0 -0.0378231 -0.0389347 0 0.210684 0.042041 0 383.032 383.032 1000.91 
196 1 1 0.334342 0.0384055 0 0 0 0 0.305674 -0.0414927 0 0.0898967 -0.00131826 0 0.305674 -0.0414927 0 369.854 369.854 1000.88 
197 1 1 0.343195 0.0435772 0 0 0 0 0.345736 0.0405004 0 -0.0783983 -0.0973476 0 0.345736 0.0405004 0 347.644 347.644 1000.83 
198 1 1 0.34756 0.0347929 0 0 0 0 0.25303 -0.0759488 0 0.0296928 0.0728399 0 0.25303 -0.0759488 0 428.591 428.591 1001.02 
199 1 1 0.35344 0.0416154 0 0 0 0 0.214222 0.0932554 0 -0.110154 -0.0294338 0 0.214222 0.0932554 0 383.149 383.149 1000.91 
200 1 1 0.3608 0.0387784 0 0 0 0 0.243979 -0.0481935 0 -0.251642 -0.327283 0 0.243979 -0.0481935 0 421.441 421.441 1001 
201 1 1 0.367834 0.038572 0 0 0 0 0.265233 0.00307321 0 -0.165938 -0.124294 0 0.265233 0.00307321 0 441.969 441.969 1001.05 
202 1 1 0.374459 0.0389126 0 0 0 0 0.28026 0.0719597 0 -0.147106 0.0289911 0 0.28026 0.0719597 0 457.768 457.768 1001.09 
203 1 1 0.381059 0.0380949 0 0 0 0 0.282729 0.0666081 0 -0.117652 -0.0935458 0 0.282729 0.0666081 0 479.101 479.101 1001.14 
204 1 1 0.387605 0.0376956 0 0 0 0 0.285879 0.0870614 0 -0.0227233 0.047549 0 0.285879 0.0870614 0 492.687 492.687 1001.17 
205 1 1 0.394198 0.036818 0 0 0 0 0.278809 0.0688252 0 0.0507858 0.00365597 0 0.278809 0.0688252 0 504.895 504.895 1001.2 
206 1 1 0.401012 0.0362573 0 0 0 0 0.265102 0.0706902 0 0.142461 0.0834088 0 0.265102 0.0706902 0 509.226 509.226 1001.21 
207 1 1 0.407926 0.0357738 0 0 0 0 0.235575 0.0735052 0 0.218958 0.123341 0 0.235575 0.0735052 0 504.347 504.347 1001.2 
208 1 1 0.415201 0.0353399 0 0 0 0 0.194643 0.082407 0 0.261392 0.182937 0 0.194643 0.082407 0 488.127 488.127 1001.16 
209 1 1 0.4228 0.034854 0 0 0 0 0.144937 0.0753919 0 0.225827 0.154634 0 0.144937 0.0753919 0 466.833 466.833 1001.11 
210 1 1 0.430761 0.0344723 0 0 0 0 0.11246 0.0943911 0 0.177876 0.331845 0 0.11246 0.0943911 0 441.863 441.863 1001.05 
211 1 1 0.438839 0.0339412 0 0 0 0 0.0677788 0.0757177 0 0.166666 0.259675 0 0.0677788 0.0757177 0 423.255 423.255 1001 
212 1 1 0.447078 0.033071 0 0 0 0 0.0216492 0.0487584 0 -0.0541995 0.331595 0 0.0216492 0.0487584 0 419.631 419.631 1001 
213 1 1 0.456223 0.0331577 0 0 0 0 0.0326986 0.0578935 0 -0.0330612 0.0020781 0 0.0326986 0.0578935 0 429.231 429.231 1001.02 
214 1 1 0.464003 0.0327183 0 0 0 0 0.018545 0.0480949 0 0.026427 0.332732 0 0.018545 0.0480949 0 439.594 439.594 1001.04 
215 1 1 0.472883 0.0318668 0 0 0 0 -0.00793031 0.0864857 0 -0.140236 0.0935663 0 -0.00793031 0.0864857 0 454.24 454.24 1001.08 
216 1 1 0.48062 0.0317769 0 0 0 0 -0.0230252 0.0159685 0 -0.0762382 -0.00909997 0 -0.0230252 0.0159685 0 463.264 463.264 1001.1 
217 1 1 0.489794 0.0305523 0 0 0 0 -0.00359001 0.0221795 0 0.0606529 -0.116865 0 -0.00359001 0.0221795 0 484.533 484.533 1001.15 
218 1 1 0.211073 0.046408 0 0 0 0 0.125185 -0.0356532 0 -0.0158464 0.0106388 0 0.125185 -0.0356532 0 200.874 200.874 1000.48 
219 1 1 0.188139 0.0552602 0 0 0 0 0.0675935 -0.0288894 0 0.056071 -0.00675718 0 0.0675935 -0.0288894 0 111.721 111.721 1000.27 
220 1 1 0.205916 0.0545135 0 0 0 0 0.0342828 -0.0563117 0 -0.00972007 -0.117034 0 0.0342828 -0.0563117 0 118.777 118.777 1000.28 
221 1 1 0.233937 0.0580612 0 0 0 0 0.0985359 -0.0509062 0 -0.212922 0.0904277 0 0.0985359 -0.0509062 0 93.3509 93.3509 1000.22 
222 1 1 0.229047 0.0510981 0 0 0 0 0.10218 -0.060064 0 -0.0876593 0.0447852 0 0.10218 -0.060064 0 142.788 142.788 1000.34 
223 1 1 0.261811 0.0431311 0 0 0 0 0.217585 -0.0660124 0 -0.156802 0.0644767 0 0.217585 -0.0660124 0 302.162 302.162 1000.72 
224 1 1 0.271586 0.0378222 0 0 0 0 0.205638 -0.0528413 0 -0.277453 0.133914 0 0.205638 -0.0528413 0 351.035 351.035 1000.83 
225 1 1 0.276579 0.0483835 0 0 0 0 0.247131 -0.0656332 0 -0.308301 -0.0193604 0 0.247131 -0.0656332 0 270.225 270.225 1000.64 
226 1 1 0.281416 0.0554386 0 0 0 0 0.163936 -0.0960349 0 -0.125638 -0.0653154 0 0.163936 -0.0960349 0 209.129 209.129 1000.5 
227 1 1 0.287525 0.0403669 0 0 0 0 0.24545 -0.102063 0 -0.109202 -0.119336 0 0.24545 -0.102063 0 328.181 328.181 1000.78 
228 1 1 0.290115 0.0482646 0 0 0 0 0.222071 -0.0871722 0 -0.107761 0.0768981 0 0.222071 -0.0871722 0 265.49 265.49 1000.63 
229 1 1 0.301439 0.0577291 0 0 0 0 0.172696 -0.0651695 0 -0.211448 0.0121694 0 0.172696 -0.0651695 0 202.913 202.913 1000.48 
230 1 1 0.309636 0.0429181 0 0 0 0 0.236948 -0.0751193 0 -0.273827 -0.0730264 0 0.236948 -0.0751193 0 355.092 355.092 1000.84 
231 1 1 0.310823 0.0604102 0 0 0 0 0.266439 -0.0515052 0 -0.0275597 -0.147386 0 0.266439 -0.0515052 0 178.64 178.64 1000.42 
232 1 1 0.318799 0.0537888 0 0 0 0 0.316502 0.0317786 0 0.110759 0.0759902 0 0.316502 0.0317786 0 245.889 245.889 1000.58 
233 1 1 0.329151 0.047273 0 0 0 0 0.275137 -0.0485254 0 -0.0257889 0.154352 0 0.275137 -0.0485254 0 319.296 319.296 1000.76 
234 1 1 0.331977 0.0593685 0 0 0 0 0.220934 -0.0302324 0 -0.0307417 -0.346301 0 0.220934 -0.0302324 0 239.248 239.248 1000.57 
235 1 1 0.339396 0.0517617 0 0 0 0 0.253852 -0.0373768 0 -0.0794927 -0.00364608 0 0.253852 -0.0373768 0 285.652 285.652 1000.68 
236 1 1 0.34693 0.0563947 0 0 0 0 0.250065 0.038762 0 -0.0161621 0.0318594 0 0.250065 0.038762 0 230.255 230.255 1000.55 