ITEM: TIMESTEP
53000
ITEM: NUMBER OF ATOMS
754
ITEM: BOX BOUNDS ff ff pp
-0.021 0.521
-0.021 0.5
-0.001 0.001
ITEM: ATOMS id type type x y z ix iy iz vx vy vz fx fy fz vx vy vz p p rho 
1 1 1 0.00731624 0.0087696 0 0 0 0 0.0496362 -0.0338247 0 0.515552 0.190936 0 0.0496362 -0.0338247 0 536.574 536.574 1001.27 
2 1 1 0.0242242 0.0070027 0 0 0 0 -0.0607889 -0.00143026 0 -0.0622099 -0.180629 0 -0.0607889 -0.00143026 0 490.633 490.633 1001.16 
3 1 1 0.0513838 0.00830685 0 0 0 0 -0.0872847 -0.0283123 0 0.236107 -0.0370982 0 -0.0872847 -0.0283123 0 458.039 458.039 1001.09 
4 1 1 0.0656169 0.00700854 0 0 0 0 -0.0723486 0.0130626 0 0.0443809 0.0915664 0 -0.0723486 0.0130626 0 540.564 540.564 1001.28 
5 1 1 0.0932061 0.00822427 0 0 0 0 -0.0327435 -0.00192726 0 0.0677543 -0.0589858 0 -0.0327435 -0.00192726 0 465.217 465.217 1001.1 
6 1 1 0.105561 0.00825843 0 0 0 0 -0.0150492 -0.0209932 0 -0.0605644 -0.016066 0 -0.0150492 -0.0209932 0 470.739 470.739 1001.12 
7 1 1 0.144308 0.00955799 0 0 0 0 0.00481791 0.00120527 0 -0.121498 -0.0384558 0 0.00481791 0.00120527 0 442.097 442.097 1001.05 
8 1 1 0.154618 0.00742176 0 0 0 0 0.013789 -0.0152514 0 0.0432791 0.0147884 0 0.013789 -0.0152514 0 518.176 518.176 1001.23 
9 1 1 0.183376 0.00885599 0 0 0 0 0.0558999 -0.00426899 0 -0.087368 -0.031365 0 0.0558999 -0.00426899 0 511.912 511.912 1001.21 
10 1 1 0.20697 0.00827342 0 0 0 0 0.104486 0.00564589 0 -0.0983534 -0.00412217 0 0.104486 0.00564589 0 525.085 525.085 1001.25 
11 1 1 0.0219663 0.0195015 0 0 0 0 -0.0702853 0.22605 0 -0.259292 -0.311651 0 -0.0702853 0.22605 0 506.875 506.875 1001.2 
12 1 1 0.0392822 0.00762664 0 0 0 0 -0.0730966 0.00683542 0 0.108728 -0.338066 0 -0.0730966 0.00683542 0 515.103 515.103 1001.22 
13 1 1 0.0591101 0.0146342 0 0 0 0 -0.0689239 -0.0459391 0 0.015399 0.203893 0 -0.0689239 -0.0459391 0 360.402 360.402 1000.86 
14 1 1 0.0798038 0.00753509 0 0 0 0 -0.0434348 -0.0184906 0 0.0550595 0.00845474 0 -0.0434348 -0.0184906 0 464.482 464.482 1001.1 
15 1 1 0.10494 0.0158927 0 0 0 0 -0.0172015 0.0204057 0 0.0016946 0.0587196 0 -0.0172015 0.0204057 0 393.286 393.286 1000.93 
16 1 1 0.132641 0.00740248 0 0 0 0 -0.030011 -0.0149183 0 -0.0217265 0.0145308 0 -0.030011 -0.0149183 0 499.239 499.239 1001.18 
17 1 1 0.149999 0.0177814 0 0 0 0 0.0314087 0.0147014 0 -0.140455 -0.0775334 0 0.0314087 0.0147014 0 405.36 405.36 1000.96 
18 1 1 0.171041 0.00725456 0 0 0 0 0.0726154 0.00629122 0 0.0518605 0.105898 0 0.0726154 0.00629122 0 563.052 563.052 1001.34 
19 1 1 0.194466 0.00804382 0 0 0 0 0.096005 -0.0155675 0 -0.0367191 0.00510533 0 0.096005 -0.0155675 0 509.676 509.676 1001.21 
20 1 1 0.20056 0.0156617 0 0 0 0 0.0252627 0.000856169 0 -0.0966531 0.0558666 0 0.0252627 0.000856169 0 466.483 466.483 1001.11 
21 1 1 0.0171262 0.0124302 0 0 0 0 0.0905826 0.0502668 0 -0.278861 0.166367 0 0.0905826 0.0502668 0 346.088 346.088 1000.82 
22 1 1 0.0324394 0.0137379 0 0 0 0 -0.11048 0.036803 0 0.161644 0.239142 0 -0.11048 0.036803 0 560.746 560.746 1001.33 
23 1 1 0.0459588 0.0164348 0 0 0 0 -0.145151 0.0252425 0 -0.162162 0.0337029 0 -0.145151 0.0252425 0 520.627 520.627 1001.24 
24 1 1 0.0807619 0.0219388 0 0 0 0 -0.0102561 -0.0429287 0 0.189631 -0.108355 0 -0.0102561 -0.0429287 0 332.743 332.743 1000.79 
25 1 1 0.088757 0.0146872 0 0 0 0 -0.0632926 -0.0145922 0 -0.17364 0.0691075 0 -0.0632926 -0.0145922 0 440.308 440.308 1001.05 
26 1 1 0.11789 0.00762307 0 0 0 0 -0.00514013 0.0139781 0 0.100966 0.000474529 0 -0.00514013 0.0139781 0 482.186 482.186 1001.14 
27 1 1 0.137075 0.0170156 0 0 0 0 0.0708019 -0.0163596 0 0.00355363 -0.0482672 0 0.0708019 -0.0163596 0 421.801 421.801 1001 
28 1 1 0.165758 0.0135964 0 0 0 0 -0.000786804 -0.0482961 0 -0.205308 -0.085739 0 -0.000786804 -0.0482961 0 502.883 502.883 1001.19 
29 1 1 0.190341 0.0195686 0 0 0 0 0.0540271 -0.00283547 0 -0.0585542 -0.0639361 0 0.0540271 -0.00283547 0 436.759 436.759 1001.04 
30 1 1 0.205628 0.0278274 0 0 0 0 0.0776503 -0.0460024 0 -0.0648921 0.0148974 0 0.0776503 -0.0460024 0 361.551 361.551 1000.86 
31 1 1 0.00929158 0.019183 0 0 0 0 -0.0947093 -0.120681 0 0.0766402 0.238546 0 -0.0947093 -0.120681 0 296.46 296.46 1000.7 
32 1 1 0.0344459 0.0212971 0 0 0 0 -0.0709513 -0.0279704 0 0.546381 0.816075 0 -0.0709513 -0.0279704 0 485.247 485.247 1001.15 
33 1 1 0.0742298 0.0149722 0 0 0 0 -0.079277 0.000108385 0 0.233367 -0.10552 0 -0.079277 0.000108385 0 430.8 430.8 1001.02 
34 1 1 0.0971206 0.0208565 0 0 0 0 0.0209573 -0.064027 0 0.0689168 0.0470114 0 0.0209573 -0.064027 0 363.431 363.431 1000.86 
35 1 1 0.125887 0.0145641 0 0 0 0 0.0703761 0.02113 0 -0.159833 0.0619179 0 0.0703761 0.02113 0 402.976 402.976 1000.96 
36 1 1 0.143337 0.0245248 0 0 0 0 0.0124996 0.00319554 0 -0.0850396 0.0361706 0 0.0124996 0.00319554 0 359.829 359.829 1000.85 
37 1 1 0.172788 0.0205094 0 0 0 0 0.0301657 -0.0320089 0 -0.0981252 0.00356871 0 0.0301657 -0.0320089 0 394.486 394.486 1000.94 
38 1 1 0.18205 0.0166206 0 0 0 0 0.0779977 -0.0140846 0 -0.124539 0.0508179 0 0.0779977 -0.0140846 0 442.273 442.273 1001.05 
39 1 1 0.19564 0.0265718 0 0 0 0 0.0635034 0.0189271 0 -0.00731899 -0.0125851 0 0.0635034 0.0189271 0 350.837 350.837 1000.83 
40 1 1 0.185315 0.0434065 0 0 0 0 0.0356732 -0.0496395 0 -0.0674781 -0.0417687 0 0.0356732 -0.0496395 0 182.804 182.804 1000.43 
41 1 1 0.00839742 0.0323578 0 0 0 0 -0.10502 0.0874826 0 -0.708563 -0.0876058 0 -0.10502 0.0874826 0 338.695 338.695 1000.8 
42 1 1 0.0210095 0.0293737 0 0 0 0 -0.216295 0.0954877 0 0.631806 -0.0542714 0 -0.216295 0.0954877 0 561.127 561.127 1001.33 
43 1 1 0.0520167 0.0224767 0 0 0 0 -0.0946674 -0.0560421 0 0.490105 -0.363331 0 -0.0946674 -0.0560421 0 247.625 247.625 1000.59 
44 1 1 0.0777319 0.0289752 0 0 0 0 -0.0351526 -0.0179179 0 -0.0918289 0.174667 0 -0.0351526 -0.0179179 0 286.841 286.841 1000.68 
45 1 1 0.109597 0.0249306 0 0 0 0 0.0324467 0.043011 0 -0.164921 0.0695844 0 0.0324467 0.043011 0 285.951 285.951 1000.68 
46 1 1 0.130725 0.0239776 0 0 0 0 0.0136718 0.0145924 0 -0.120144 0.0141787 0 0.0136718 0.0145924 0 348.321 348.321 1000.83 
47 1 1 0.159807 0.0184757 0 0 0 0 0.0421707 -0.0253577 0 -0.146183 0.106136 0 0.0421707 -0.0253577 0 416.447 416.447 1000.99 
48 1 1 0.185773 0.0306478 0 0 0 0 0.0400113 -0.0338398 0 -0.0679897 -0.0600436 0 0.0400113 -0.0338398 0 288.284 288.284 1000.68 
49 1 1 0.194077 0.0365447 0 0 0 0 0.0422501 0.00307874 0 -0.0470483 -0.0193444 0 0.0422501 0.00307874 0 280.286 280.286 1000.67 
50 1 1 0.180116 0.0535396 0 0 0 0 0.00465586 -0.065343 0 0.0714878 -0.0108168 0 0.00465586 -0.065343 0 94.695 94.695 1000.23 
51 1 1 0.00446514 0.0453011 0 0 0 0 0.0397812 0.133683 0 0.587934 -0.620555 0 0.0397812 0.133683 0 -38.0122 -38.0122 999.909 
52 1 1 0.0480147 0.0282 0 0 0 0 -0.156162 0.0453171 0 -1.29299 0.540259 0 -0.156162 0.0453171 0 532.157 532.157 1001.26 
53 1 1 0.0590193 0.0306007 0 0 0 0 -0.11132 -0.0171636 0 0.561663 -0.30775 0 -0.11132 -0.0171636 0 194.14 194.14 1000.46 
54 1 1 0.0914661 0.0268057 0 0 0 0 0.0137474 -0.0412996 0 -0.0664803 0.100465 0 0.0137474 -0.0412996 0 262.796 262.796 1000.62 
55 1 1 0.114132 0.0332404 0 0 0 0 0.0233265 -0.0334267 0 -0.121256 0.0914163 0 0.0233265 -0.0334267 0 206.289 206.289 1000.49 
56 1 1 0.135019 0.0341876 0 0 0 0 -0.0211778 0.00109787 0 -0.0609357 -0.113681 0 -0.0211778 0.00109787 0 266.359 266.359 1000.63 
57 1 1 0.157588 0.0270401 0 0 0 0 0.0312014 -0.00807257 0 -0.0109195 0.00439081 0 0.0312014 -0.00807257 0 337.342 337.342 1000.8 
58 1 1 0.163304 0.0403582 0 0 0 0 0.0105675 -0.0127985 0 -0.108819 0.0507147 0 0.0105675 -0.0127985 0 165.631 165.631 1000.39 
59 1 1 0.178161 0.0377378 0 0 0 0 0.00581539 -0.0786828 0 -0.00195273 0.0386908 0 0.00581539 -0.0786828 0 221.078 221.078 1000.53 
60 1 1 0.196733 0.0473694 0 0 0 0 0.0122335 -0.00343146 0 -0.00577739 -0.0160846 0 0.0122335 -0.00343146 0 124.931 124.931 1000.3 
61 1 1 0.0339306 0.0292085 0 0 0 0 0.262014 0.0277855 0 -0.215135 -0.341016 0 0.262014 0.0277855 0 -374.801 -374.801 999.105 
62 1 1 0.0261479 0.0336511 0 0 0 0 -0.114158 -0.250835 0 1.41781 0.275736 0 -0.114158 -0.250835 0 170.477 170.477 1000.41 
63 1 1 0.0669664 0.0194262 0 0 0 0 -0.0753315 -0.00881206 0 -0.4139 0.336765 0 -0.0753315 -0.00881206 0 444.298 444.298 1001.05 
64 1 1 0.0768036 0.0387592 0 0 0 0 -0.109118 -0.0263378 0 -0.0870866 -0.0834552 0 -0.109118 -0.0263378 0 119.92 119.92 1000.29 
65 1 1 0.101059 0.031907 0 0 0 0 -0.0453875 -0.0131146 0 0.0689216 -0.083905 0 -0.0453875 -0.0131146 0 216.555 216.555 1000.51 
66 1 1 0.116329 0.0170661 0 0 0 0 -0.0337144 -0.0764957 0 -0.00334916 0.0728627 0 -0.0337144 -0.0764957 0 418.42 418.42 1000.99 
67 1 1 0.146432 0.0325373 0 0 0 0 0.0506818 -0.025385 0 -0.0838834 0.0352221 0 0.0506818 -0.025385 0 231.465 231.465 1000.55 
68 1 1 0.166585 0.0323159 0 0 0 0 0.0288663 -0.0204001 0 -0.107004 -0.127323 0 0.0288663 -0.0204001 0 311.612 311.612 1000.74 
69 1 1 0.175779 0.027448 0 0 0 0 0.012246 -0.0506953 0 0.00104609 0.00654807 0 0.012246 -0.0506953 0 376.03 376.03 1000.89 
70 1 1 0.172955 0.055225 0 0 0 0 -0.031609 -0.061062 0 -0.0434966 -0.114065 0 -0.031609 -0.061062 0 52.0097 52.0097 1000.12 
71 1 1 0.0273574 0.0455985 0 0 0 0 0.0223432 0.166076 0 -1.28812 0.806161 0 0.0223432 0.166076 0 348.268 348.268 1000.83 
72 1 1 0.0132379 0.0331753 0 0 0 0 0.0708777 0.161302 0 -0.0523027 1.03659 0 0.0708777 0.161302 0 394.798 394.798 1000.94 
73 1 1 0.0385758 0.0430814 0 0 0 0 -0.311511 0.188179 0 0.153219 -0.695901 0 -0.311511 0.188179 0 311.08 311.08 1000.74 
74 1 1 0.0676175 0.029822 0 0 0 0 -0.0158247 -0.109959 0 -0.00357079 -0.0131543 0 -0.0158247 -0.109959 0 200.446 200.446 1000.48 
75 1 1 0.08627 0.0352134 0 0 0 0 -0.0692749 -0.082436 0 0.12184 0.0603771 0 -0.0692749 -0.082436 0 167.572 167.572 1000.4 
76 1 1 0.121152 0.0268998 0 0 0 0 -0.0034492 -0.104914 0 -0.0198968 -0.0251084 0 -0.0034492 -0.104914 0 280.346 280.346 1000.67 
77 1 1 0.125486 0.0352779 0 0 0 0 0.00618014 -0.0205781 0 -0.16786 0.00191904 0 0.00618014 -0.0205781 0 173.658 173.658 1000.41 
78 1 1 0.154029 0.0359771 0 0 0 0 0.0199031 -0.00664919 0 -0.0639604 0.0626217 0 0.0199031 -0.00664919 0 213.364 213.364 1000.51 
79 1 1 0.170821 0.0448405 0 0 0 0 0.0275395 -0.0319207 0 -0.0815231 -0.0512228 0 0.0275395 -0.0319207 0 172.247 172.247 1000.41 
80 1 1 0.140702 0.0527006 0 0 0 0 -0.0399659 -0.022065 0 -0.139438 -0.0389512 0 -0.0399659 -0.022065 0 52.1013 52.1013 1000.12 
81 1 1 0.0102173 0.0953313 0 0 0 0 0.00365099 -0.105785 0 0.00331496 -0.538893 0 0.00365099 -0.105785 0 -25.2067 -25.2067 999.94 
82 1 1 0.0361321 0.0351586 0 0 0 0 -0.138472 0.130297 0 0.272433 -0.0747362 0 -0.138472 0.130297 0 -50.5575 -50.5575 999.88 
83 1 1 0.0511205 0.0371342 0 0 0 0 -0.17082 -0.093778 0 -0.274988 0.497575 0 -0.17082 -0.093778 0 217.656 217.656 1000.52 
84 1 1 0.063302 0.0402035 0 0 0 0 -0.178174 -0.113935 0 0.13221 0.0716551 0 -0.178174 -0.113935 0 292.354 292.354 1000.69 
85 1 1 0.095813 0.0396846 0 0 0 0 -0.0135649 -0.0807148 0 -0.156948 0.0513899 0 -0.0135649 -0.0807148 0 141.262 141.262 1000.34 
86 1 1 0.105465 0.040196 0 0 0 0 0.0178296 -0.0130542 0 0.0958703 0.0896251 0 0.0178296 -0.0130542 0 137.796 137.796 1000.33 
87 1 1 0.12618 0.0468973 0 0 0 0 -0.0512298 -0.0270793 0 -0.10997 -0.128632 0 -0.0512298 -0.0270793 0 97.4978 97.4978 1000.23 
88 1 1 0.137225 0.0416584 0 0 0 0 -0.0341552 -0.0398737 0 -0.0542927 0.0722482 0 -0.0341552 -0.0398737 0 180.776 180.776 1000.43 
89 1 1 0.147782 0.0455936 0 0 0 0 -0.0530789 -0.0139425 0 -0.0972531 -0.102891 0 -0.0530789 -0.0139425 0 155.349 155.349 1000.37 
90 1 1 0.154258 0.0499981 0 0 0 0 -0.0667638 -0.0259705 0 -0.00677368 -0.0203385 0 -0.0667638 -0.0259705 0 123.785 123.785 1000.29 
91 1 1 0.0138709 0.0670826 0 0 0 0 0.0726582 -0.154028 0 -0.261157 -0.691965 0 0.0726582 -0.154028 0 -749.222 -749.222 998.207 
92 1 1 0.0070727 0.0660308 0 0 0 0 -0.0395517 0.0733653 0 -0.428297 -0.932547 0 -0.0395517 0.0733653 0 -136.85 -136.85 999.674 
93 1 1 0.0420105 0.0488528 0 0 0 0 -0.27417 0.158666 0 0.417587 0.356979 0 -0.27417 0.158666 0 138.919 138.919 1000.33 
94 1 1 0.0531349 0.0498378 0 0 0 0 -0.197768 -0.081519 0 0.0968214 -0.0930391 0 -0.197768 -0.081519 0 36.2546 36.2546 1000.09 
95 1 1 0.0650244 0.0475386 0 0 0 0 -0.251008 -0.126395 0 -0.0145179 0.190473 0 -0.251008 -0.126395 0 94.7742 94.7742 1000.23 
96 1 1 0.0751352 0.0516547 0 0 0 0 -0.129571 -0.169146 0 0.0536717 -0.00198566 0 -0.129571 -0.169146 0 103.367 103.367 1000.25 
97 1 1 0.0841605 0.0460611 0 0 0 0 -0.0739753 -0.105551 0 0.234984 0.0654008 0 -0.0739753 -0.105551 0 140.939 140.939 1000.34 
98 1 1 0.116202 0.0441999 0 0 0 0 -0.075019 -0.00670541 0 -0.275764 0.196166 0 -0.075019 -0.00670541 0 160.811 160.811 1000.38 
99 1 1 0.127133 0.0522593 0 0 0 0 -0.095616 -0.0355623 0 -0.0362336 -0.0849651 0 -0.095616 -0.0355623 0 52.9675 52.9675 1000.13 
100 1 1 0.0993075 0.0514438 0 0 0 0 -0.0904435 -0.0608629 0 0.035941 0.0362265 0 -0.0904435 -0.0608629 0 140.596 140.596 1000.33 
101 1 1 0.209322 0.0200632 0 0 0 0 0.0591817 -0.0471028 0 -0.0345865 -0.0639041 0 0.0591817 -0.0471028 0 421.309 421.309 1001 
102 1 1 0.216517 0.0100061 0 0 0 0 0.0960058 -0.0169798 0 -0.0388451 -0.0055284 0 0.0960058 -0.0169798 0 548.243 548.243 1001.3 
103 1 1 0.220532 0.0174924 0 0 0 0 0.0677881 0.0101835 0 -0.0421762 0.00818798 0 0.0677881 0.0101835 0 463.382 463.382 1001.1 
104 1 1 0.227639 0.00748877 0 0 0 0 0.109288 0.00761733 0 -0.0737249 0.00828892 0 0.109288 0.00761733 0 569.427 569.427 1001.35 
105 1 1 0.231449 0.0164362 0 0 0 0 0.066404 -0.0106356 0 -0.065073 0.0818098 0 0.066404 -0.0106356 0 502.005 502.005 1001.19 
106 1 1 0.239944 0.00812763 0 0 0 0 0.0805399 0.0188058 0 -0.0467471 0.0370277 0 0.0805399 0.0188058 0 594.639 594.639 1001.41 
107 1 1 0.24731 0.0149669 0 0 0 0 0.0438524 -0.0078958 0 -0.0775374 0.054424 0 0.0438524 -0.0078958 0 480.102 480.102 1001.14 
108 1 1 0.252861 0.0080732 0 0 0 0 0.0590521 0.00909186 0 -0.0621516 0.0188324 0 0.0590521 0.00909186 0 580.38 580.38 1001.38 
109 1 1 0.259735 0.0175194 0 0 0 0 0.0574997 -0.00915282 0 -0.0665392 0.0343623 0 0.0574997 -0.00915282 0 479.003 479.003 1001.14 
110 1 1 0.264324 0.0093326 0 0 0 0 0.0621057 -0.0208062 0 -0.0554294 -0.0143093 0 0.0621057 -0.0208062 0 581.411 581.411 1001.38 
111 1 1 0.27423 0.00852059 0 0 0 0 0.0821823 0.0138382 0 -0.0720626 0.0339065 0 0.0821823 0.0138382 0 542.087 542.087 1001.29 
112 1 1 0.285102 0.00889048 0 0 0 0 0.0650833 -0.0245683 0 -0.047743 0.0537684 0 0.0650833 -0.0245683 0 587.175 587.175 1001.39 
113 1 1 0.296089 0.00842448 0 0 0 0 0.109098 0.00769857 0 -0.089783 -0.0337618 0 0.109098 0.00769857 0 584.186 584.186 1001.39 
114 1 1 0.306498 0.00964048 0 0 0 0 0.0727421 0.00728 0 -0.00536164 -0.028151 0 0.0727421 0.00728 0 552.14 552.14 1001.31 
115 1 1 0.316933 0.0185203 0 0 0 0 0.10966 -0.0531934 0 -0.0866976 0.0356363 0 0.10966 -0.0531934 0 540.61 540.61 1001.28 
116 1 1 0.317008 0.00771846 0 0 0 0 0.104256 -0.0333311 0 -0.113846 0.111482 0 0.104256 -0.0333311 0 604.536 604.536 1001.43 
117 1 1 0.324634 0.0135742 0 0 0 0 0.100585 0.030633 0 -0.00808503 -0.011831 0 0.100585 0.030633 0 535.25 535.25 1001.27 
118 1 1 0.332918 0.0080653 0 0 0 0 0.119309 -0.0298094 0 -0.141698 -0.0387206 0 0.119309 -0.0298094 0 640.547 640.547 1001.52 
119 1 1 0.345175 0.00799748 0 0 0 0 0.094509 0.0503829 0 -0.0409573 -0.0367041 0 0.094509 0.0503829 0 607.076 607.076 1001.44 
120 1 1 0.354305 0.0138479 0 0 0 0 0.167931 0.00328722 0 -0.233173 0.0907164 0 0.167931 0.00328722 0 576.922 576.922 1001.37 
121 1 1 0.361111 0.00735233 0 0 0 0 0.0784431 -0.100531 0 0.0403988 0.541753 0 0.0784431 -0.100531 0 720.553 720.553 1001.71 
122 1 1 0.373468 0.00876659 0 0 0 0 0.225364 0.0582405 0 -0.426167 -0.271918 0 0.225364 0.0582405 0 586.085 586.085 1001.39 
123 1 1 0.374724 0.0193053 0 0 0 0 0.104818 0.0739337 0 0.0937516 0.0801553 0 0.104818 0.0739337 0 599.608 599.608 1001.42 
124 1 1 0.381114 0.0109433 0 0 0 0 0.122465 0.0202885 0 0.113162 0.0176596 0 0.122465 0.0202885 0 702.242 702.242 1001.66 
125 1 1 0.390154 0.00894422 0 0 0 0 0.173757 -0.0237463 0 -0.0545226 0.282858 0 0.173757 -0.0237463 0 624.817 624.817 1001.48 
126 1 1 0.396061 0.0165655 0 0 0 0 0.166294 0.184926 0 0.220184 -0.175154 0 0.166294 0.184926 0 529.486 529.486 1001.26 
127 1 1 0.40157 0.00862386 0 0 0 0 0.0431009 -0.0570372 0 -0.0121481 0.401048 0 0.0431009 -0.0570372 0 584.404 584.404 1001.39 
128 1 1 0.410528 0.0113722 0 0 0 0 0.0960397 0.0460972 0 -0.131038 -0.231623 0 0.0960397 0.0460972 0 566.258 566.258 1001.34 
129 1 1 0.418991 0.00810127 0 0 0 0 0.124794 -0.0803363 0 0.0680138 0.0562913 0 0.124794 -0.0803363 0 570.441 570.441 1001.35 
130 1 1 0.42708 0.0137969 0 0 0 0 0.144953 0.07807 0 -0.0819758 -0.328414 0 0.144953 0.07807 0 614.956 614.956 1001.46 
131 1 1 0.433763 0.00848936 0 0 0 0 0.102899 -0.0568178 0 -0.158918 -0.00873119 0 0.102899 -0.0568178 0 569.488 569.488 1001.35 
132 1 1 0.437694 0.01706 0 0 0 0 0.0619812 0.143386 0 0.154174 0.0705462 0 0.0619812 0.143386 0 719.569 719.569 1001.7 
133 1 1 0.444882 0.008638 0 0 0 0 0.058251 0.00714854 0 -0.105017 0.000684012 0 0.058251 0.00714854 0 606.907 606.907 1001.44 
134 1 1 0.449844 0.015098 0 0 0 0 0.0118183 0.0796805 0 -0.078149 0.287374 0 0.0118183 0.0796805 0 716.019 716.019 1001.7 
135 1 1 0.456956 0.00830806 0 0 0 0 0.00975612 -0.000664321 0 -0.0130122 -0.159907 0 0.00975612 -0.000664321 0 713.495 713.495 1001.69 
136 1 1 0.464275 0.0129047 0 0 0 0 -0.0178924 0.0193278 0 0.0334968 0.0518328 0 -0.0178924 0.0193278 0 718.165 718.165 1001.7 
137 1 1 0.472259 0.00774986 0 0 0 0 1.95889e-05 -0.025575 0 -0.0730918 -0.012365 0 1.95889e-05 -0.025575 0 723.542 723.542 1001.71 
138 1 1 0.481371 0.010525 0 0 0 0 -0.0118739 0.0216782 0 0.0393624 -0.0172437 0 -0.0118739 0.0216782 0 723.106 723.106 1001.71 
139 1 1 0.490993 0.00764513 0 0 0 0 0.0021952 -0.0121959 0 0.013754 -0.0547858 0 0.0021952 -0.0121959 0 701.338 701.338 1001.66 
140 1 1 0.212836 0.0366328 0 0 0 0 0.0553481 0.00662952 0 0.0182323 -0.0188691 0 0.0553481 0.00662952 0 262.199 262.199 1000.62 
141 1 1 0.217823 0.0274621 0 0 0 0 0.0618042 0.030884 0 -0.0932895 0.0554108 0 0.0618042 0.030884 0 381.488 381.488 1000.91 
142 1 1 0.244371 0.0286965 0 0 0 0 0.13366 0.00802064 0 -0.0523113 0.131559 0 0.13366 0.00802064 0 393.495 393.495 1000.93 
143 1 1 0.226366 0.0274963 0 0 0 0 0.0304087 -0.0210718 0 -0.0496891 -0.0278237 0 0.0304087 -0.0210718 0 352.05 352.05 1000.84 
144 1 1 0.251337 0.0363113 0 0 0 0 0.151095 0.07694 0 0.0420292 -0.0929895 0 0.151095 0.07694 0 309.413 309.413 1000.74 
145 1 1 0.237849 0.0205539 0 0 0 0 0.063135 0.0570548 0 -0.00330927 -0.0971704 0 0.063135 0.0570548 0 448.239 448.239 1001.06 
146 1 1 0.265396 0.0347087 0 0 0 0 0.193031 -0.0348778 0 -0.161181 -0.0233035 0 0.193031 -0.0348778 0 299.266 299.266 1000.71 
147 1 1 0.251431 0.0238248 0 0 0 0 0.0953322 0.0206647 0 0.0463408 0.000505866 0 0.0953322 0.0206647 0 421.226 421.226 1001 
148 1 1 0.260718 0.0279765 0 0 0 0 0.0360233 0.0343792 0 0.0278293 0.0627392 0 0.0360233 0.0343792 0 349.743 349.743 1000.83 
149 1 1 0.269618 0.0195321 0 0 0 0 0.0270759 -0.0295723 0 -0.0556585 0.00709102 0 0.0270759 -0.0295723 0 461.434 461.434 1001.1 
150 1 1 0.29658 0.0244549 0 0 0 0 0.0919334 -0.016179 0 -0.0787174 0.0303753 0 0.0919334 -0.016179 0 428.275 428.275 1001.02 
151 1 1 0.279351 0.0177558 0 0 0 0 0.0734225 0.0249631 0 -0.0681569 -0.00560596 0 0.0734225 0.0249631 0 472.75 472.75 1001.12 
152 1 1 0.290627 0.0176101 0 0 0 0 0.0389069 -0.0451045 0 -0.0726682 0.0166589 0 0.0389069 -0.0451045 0 496.141 496.141 1001.18 
153 1 1 0.303354 0.0173442 0 0 0 0 0.0658526 0.0218714 0 -0.0967441 -0.0156555 0 0.0658526 0.0218714 0 542.821 542.821 1001.29 
154 1 1 0.326258 0.0245409 0 0 0 0 0.149467 -0.0325112 0 -0.149873 0.0154372 0 0.149467 -0.0325112 0 478.457 478.457 1001.14 
155 1 1 0.334523 0.0176174 0 0 0 0 0.139146 -0.0224552 0 -0.143167 0.0845575 0 0.139146 -0.0224552 0 553.843 553.843 1001.31 
156 1 1 0.337823 0.0273986 0 0 0 0 0.166208 -0.0207315 0 -0.125144 -0.0377746 0 0.166208 -0.0207315 0 433.952 433.952 1001.03 
157 1 1 0.343875 0.0168575 0 0 0 0 0.139078 0.00501664 0 -0.060662 -0.019034 0 0.139078 0.00501664 0 600.999 600.999 1001.42 
158 1 1 0.347199 0.0282759 0 0 0 0 0.159718 0.00602312 0 0.0167677 -0.0158546 0 0.159718 0.00602312 0 445.843 445.843 1001.06 
159 1 1 0.353883 0.0232284 0 0 0 0 0.178896 -0.0362436 0 -0.0469531 0.0510399 0 0.178896 -0.0362436 0 529.519 529.519 1001.26 
160 1 1 0.364609 0.0166757 0 0 0 0 0.188089 -0.0805536 0 -0.123441 -0.0747846 0 0.188089 -0.0805536 0 551.335 551.335 1001.31 
161 1 1 0.366447 0.0255584 0 0 0 0 0.110212 -0.0232097 0 0.121577 -0.0120478 0 0.110212 -0.0232097 0 558.596 558.596 1001.32 
162 1 1 0.379065 0.028269 0 0 0 0 0.165752 0.0750127 0 -0.130417 -0.123973 0 0.165752 0.0750127 0 451.877 451.877 1001.07 
163 1 1 0.386478 0.021255 0 0 0 0 0.134073 -0.109317 0 -0.305759 -0.0653781 0 0.134073 -0.109317 0 546.897 546.897 1001.3 
164 1 1 0.393684 0.0251591 0 0 0 0 0.197011 0.00596223 0 -0.143385 0.0871901 0 0.197011 0.00596223 0 573.021 573.021 1001.36 
165 1 1 0.402984 0.0287305 0 0 0 0 0.275763 0.0175906 0 -0.0757385 -0.163108 0 0.275763 0.0175906 0 534.787 534.787 1001.27 
166 1 1 0.407887 0.019288 0 0 0 0 0.20013 -0.0721855 0 -0.371237 0.109205 0 0.20013 -0.0721855 0 736.772 736.772 1001.75 
167 1 1 0.414037 0.0296665 0 0 0 0 0.209369 0.0655371 0 0.076279 -0.0597197 0 0.209369 0.0655371 0 445.263 445.263 1001.06 
168 1 1 0.418691 0.0197172 0 0 0 0 0.113497 -0.0188427 0 -0.170512 0.262025 0 0.113497 -0.0188427 0 693.432 693.432 1001.64 
169 1 1 0.423681 0.0324802 0 0 0 0 0.122162 0.178225 0 -0.181035 -0.315932 0 0.122162 0.178225 0 479.853 479.853 1001.14 
170 1 1 0.427818 0.0236814 0 0 0 0 0.0503298 -0.0430532 0 0.0213652 0.156236 0 0.0503298 -0.0430532 0 661.311 661.311 1001.57 
171 1 1 0.437579 0.0289227 0 0 0 0 0.0289451 0.0323133 0 -0.253618 -0.0346626 0 0.0289451 0.0323133 0 478.166 478.166 1001.13 
172 1 1 0.445474 0.0255889 0 0 0 0 0.0790418 -0.0194626 0 -0.0455264 -0.33208 0 0.0790418 -0.0194626 0 649.698 649.698 1001.54 
173 1 1 0.452888 0.0275368 0 0 0 0 0.0543578 0.0792121 0 0.240545 0.0921874 0 0.0543578 0.0792121 0 588.801 588.801 1001.4 
174 1 1 0.460589 0.02114 0 0 0 0 0.0435664 -0.0083098 0 -0.100108 -0.109715 0 0.0435664 -0.0083098 0 664.326 664.326 1001.57 
175 1 1 0.468863 0.0274044 0 0 0 0 0.0736311 0.0758325 0 0.146473 -0.0917324 0 0.0736311 0.0758325 0 564.883 564.883 1001.34 
176 1 1 0.4734 0.0196025 0 0 0 0 -0.0428747 0.0165493 0 0.0164181 0.122177 0 -0.0428747 0.0165493 0 628.575 628.575 1001.49 
177 1 1 0.482478 0.0201396 0 0 0 0 -0.0104415 -0.0649409 0 -0.0631735 -0.0153001 0 -0.0104415 -0.0649409 0 614.375 614.375 1001.46 
178 1 1 0.491196 0.0186929 0 0 0 0 -0.00263904 0.000756183 0 0.0275607 0.123686 0 -0.00263904 0.000756183 0 622.4 622.4 1001.48 
179 1 1 0.204105 0.0390751 0 0 0 0 0.0532388 -0.0620803 0 -0.0682928 -0.0035595 0 0.0532388 -0.0620803 0 247.4 247.4 1000.59 
180 1 1 0.223715 0.039248 0 0 0 0 0.0891019 -0.0380448 0 -0.0797981 -0.0808632 0 0.0891019 -0.0380448 0 248.148 248.148 1000.59 
181 1 1 0.235117 0.0397388 0 0 0 0 0.0856043 -0.0480032 0 0.0868835 0.0480333 0 0.0856043 -0.0480032 0 226.647 226.647 1000.54 
182 1 1 0.234073 0.0315796 0 0 0 0 0.137263 -0.0310679 0 -0.0406293 0.0141861 0 0.137263 -0.0310679 0 339.994 339.994 1000.81 
183 1 1 0.250527 0.0495633 0 0 0 0 0.0636248 -0.01484 0 -0.0650811 -0.0103723 0 0.0636248 -0.01484 0 153.694 153.694 1000.37 
184 1 1 0.244315 0.0421138 0 0 0 0 0.0590612 -0.00218474 0 -0.137842 0.0209089 0 0.0590612 -0.00218474 0 176.997 176.997 1000.42 
185 1 1 0.257868 0.0427683 0 0 0 0 0.111149 0.00632758 0 0.0721202 0.00913164 0 0.111149 0.00632758 0 197.643 197.643 1000.47 
186 1 1 0.273685 0.0281312 0 0 0 0 0.0873774 -0.0614101 0 -0.0838318 0.0588995 0 0.0873774 -0.0614101 0 408.329 408.329 1000.97 
187 1 1 0.284331 0.0263864 0 0 0 0 0.125243 0.0101708 0 0.0122947 0.0288487 0 0.125243 0.0101708 0 422.669 422.669 1001 
188 1 1 0.294947 0.0332346 0 0 0 0 0.145724 -0.0104193 0 -0.0890983 0.00853475 0 0.145724 -0.0104193 0 380.366 380.366 1000.9 
189 1 1 0.313279 0.0423942 0 0 0 0 0.120437 0.0142011 0 -0.168998 -0.0104328 0 0.120437 0.0142011 0 245.153 245.153 1000.58 
190 1 1 0.31058 0.0238942 0 0 0 0 0.122775 -0.0416701 0 -0.222225 0.0181272 0 0.122775 -0.0416701 0 482.712 482.712 1001.15 
191 1 1 0.324554 0.0465412 0 0 0 0 0.173129 -0.0886771 0 -0.316256 -0.041815 0 0.173129 -0.0886771 0 272.395 272.395 1000.65 
192 1 1 0.315801 0.0318824 0 0 0 0 0.160043 -0.00373767 0 -0.157428 -0.00567018 0 0.160043 -0.00373767 0 390.168 390.168 1000.93 
193 1 1 0.331927 0.0340803 0 0 0 0 0.171502 -0.00169007 0 -0.0412751 0.0183707 0 0.171502 -0.00169007 0 391.246 391.246 1000.93 
194 1 1 0.335452 0.0450201 0 0 0 0 0.190509 -0.0350666 0 -0.0582238 0.0160745 0 0.190509 -0.0350666 0 286.031 286.031 1000.68 
195 1 1 0.343024 0.0382988 0 0 0 0 0.16093 -0.0121837 0 -0.22919 -0.0572695 0 0.16093 -0.0121837 0 389.475 389.475 1000.92 
196 1 1 0.356301 0.0365494 0 0 0 0 0.174525 -0.0212051 0 -0.298109 0.0336629 0 0.174525 -0.0212051 0 437.12 437.12 1001.04 
197 1 1 0.365701 0.0431741 0 0 0 0 0.249941 0.00840132 0 -0.103514 0.00135299 0 0.249941 0.00840132 0 325.096 325.096 1000.77 
198 1 1 0.363113 0.0321023 0 0 0 0 0.141575 -0.0100645 0 0.0332401 0.124227 0 0.141575 -0.0100645 0 487.755 487.755 1001.16 
199 1 1 0.372366 0.0482516 0 0 0 0 0.22951 0.0591084 0 -0.0480579 -0.0778695 0 0.22951 0.0591084 0 301.826 301.826 1000.72 
200 1 1 0.374887 0.0369748 0 0 0 0 0.13545 0.0192826 0 -0.181071 -0.00577647 0 0.13545 0.0192826 0 414.347 414.347 1000.98 
201 1 1 0.384416 0.0351422 0 0 0 0 0.189533 -0.0948884 0 0.00806373 -0.0234704 0 0.189533 -0.0948884 0 466.661 466.661 1001.11 
202 1 1 0.39117 0.0431603 0 0 0 0 0.194693 0.0196769 0 -0.0888044 0.0218756 0 0.194693 0.0196769 0 375.291 375.291 1000.89 
203 1 1 0.39597 0.0359888 0 0 0 0 0.105269 0.00673548 0 -0.0128261 0.170892 0 0.105269 0.00673548 0 428.643 428.643 1001.02 
204 1 1 0.402807 0.0460584 0 0 0 0 0.116342 0.0830269 0 0.0345393 -0.343737 0 0.116342 0.0830269 0 368.112 368.112 1000.87 
205 1 1 0.40806 0.0358599 0 0 0 0 0.0714486 -0.014086 0 -0.0203598 0.274358 0 0.0714486 -0.014086 0 392.895 392.895 1000.93 
206 1 1 0.41626 0.0427582 0 0 0 0 0.0908126 0.0959101 0 -0.31671 -0.154344 0 0.0908126 0.0959101 0 402.824 402.824 1000.96 
207 1 1 0.425096 0.0405535 0 0 0 0 0.208527 0.0266425 0 -0.026874 0.158568 0 0.208527 0.0266425 0 489.06 489.06 1001.16 
208 1 1 0.432497 0.0470548 0 0 0 0 0.224239 0.141723 0 -0.140419 -0.0957901 0 0.224239 0.141723 0 424.933 424.933 1001.01 
209 1 1 0.435947 0.0354392 0 0 0 0 0.101583 0.1216 0 0.0928851 0.455739 0 0.101583 0.1216 0 481.739 481.739 1001.14 
210 1 1 0.44179 0.0481661 0 0 0 0 0.136468 0.0868958 0 0.116079 -0.653232 0 0.136468 0.0868958 0 446.762 446.762 1001.06 
211 1 1 0.447102 0.0378075 0 0 0 0 0.0667139 0.0533124 0 -0.115992 0.251108 0 0.0667139 0.0533124 0 365.554 365.554 1000.87 
212 1 1 0.454911 0.0407707 0 0 0 0 0.0879342 0.0373276 0 -0.271449 -0.52184 0 0.0879342 0.0373276 0 412.342 412.342 1000.98 
213 1 1 0.46138 0.0330055 0 0 0 0 0.071644 -0.00488231 0 -0.0574891 0.274106 0 0.071644 -0.00488231 0 477.014 477.014 1001.13 
214 1 1 0.46901 0.0403465 0 0 0 0 0.0545082 0.0758573 0 -0.0860937 -0.260049 0 0.0545082 0.0758573 0 422.341 422.341 1001 
215 1 1 0.476113 0.0366985 0 0 0 0 0.0997995 0.0371957 0 -0.104388 0.239729 0 0.0997995 0.0371957 0 519.264 519.264 1001.23 
216 1 1 0.481674 0.0310226 0 0 0 0 0.0235597 0.000561638 0 -0.1372 -0.204315 0 0.0235597 0.000561638 0 615.757 615.757 1001.46 
217 1 1 0.490065 0.031084 0 0 0 0 0.0123685 -0.000214449 0 0.104694 -0.226807 0 0.0123685 -0.000214449 0 659.769 659.769 1001.56 
218 1 1 0.219752 0.0456099 0 0 0 0 0.0982832 0.011911 0 -0.106551 0.040404 0 0.0982832 0.011911 0 144.223 144.223 1000.34 
219 1 1 0.190305 0.0529463 0 0 0 0 -0.0204832 -0.0485122 0 -0.046266 -0.109929 0 -0.0204832 -0.0485122 0 44.0042 44.0042 1000.1 
220 1 1 0.208176 0.0477271 0 0 0 0 0.0181161 -0.0737862 0 -0.0171111 0.128165 0 0.0181161 -0.0737862 0 100.137 100.137 1000.24 
221 1 1 0.236261 0.0554002 0 0 0 0 0.00107135 -0.0141617 0 0.0125876 0.0242709 0 0.00107135 -0.0141617 0 88.9746 88.9746 1000.21 
222 1 1 0.232298 0.0488755 0 0 0 0 -0.013637 -0.0435514 0 -0.0141187 -0.0466305 0 -0.013637 -0.0435514 0 177.352 177.352 1000.42 
223 1 1 0.273666 0.0402589 0 0 0 0 0.0725588 0.00323479 0 -0.0176043 0.0733283 0 0.0725588 0.00323479 0 288.814 288.814 1000.69 
224 1 1 0.282939 0.0358064 0 0 0 0 0.106206 -0.0341328 0 -0.148913 -0.00810335 0 0.106206 -0.0341328 0 310.881 310.881 1000.74 
225 1 1 0.288718 0.0423438 0 0 0 0 0.112094 -0.0533403 0 -0.114065 0.153672 0 0.112094 -0.0533403 0 301.062 301.062 1000.72 
226 1 1 0.291738 0.0498092 0 0 0 0 0.109716 -0.0273167 0 0.00309074 0.163076 0 0.109716 -0.0273167 0 185.214 185.214 1000.44 
227 1 1 0.304858 0.0330631 0 0 0 0 0.192134 -0.0666611 0 -0.109712 0.140359 0 0.192134 -0.0666611 0 354.716 354.716 1000.84 
228 1 1 0.302127 0.0425716 0 0 0 0 0.0741394 -0.0602412 0 -0.049358 0.0338687 0 0.0741394 -0.0602412 0 268.567 268.567 1000.64 
229 1 1 0.312443 0.0517429 0 0 0 0 0.130492 -0.0896052 0 -0.00672978 0.0673854 0 0.130492 -0.0896052 0 228.224 228.224 1000.54 
230 1 1 0.323079 0.0357258 0 0 0 0 0.133455 -0.0884057 0 -0.0681943 0.0703196 0 0.133455 -0.0884057 0 398.716 398.716 1000.95 
231 1 1 0.327547 0.0531193 0 0 0 0 0.144306 -0.0721088 0 -0.132767 0.0821171 0 0.144306 -0.0721088 0 204.363 204.363 1000.49 
232 1 1 0.34117 0.0533444 0 0 0 0 0.229928 -0.0350977 0 -0.22043 -0.0379993 0 0.229928 -0.0350977 0 194.848 194.848 1000.46 
233 1 1 0.349376 0.0431031 0 0 0 0 0.224568 -0.0184413 0 -0.0429102 0.132382 0 0.224568 -0.0184413 0 352.091 352.091 1000.84 
234 1 1 0.350801 0.0546341 0 0 0 0 0.211119 -0.0418405 0 -0.0925058 0.0953059 0 0.211119 -0.0418405 0 226.932 226.932 1000.54 
235 1 1 0.35866 0.0509301 0 0 0 0 0.234147 -0.0222883 0 -0.0697132 -0.0652326 0 0.234147 -0.0222883 0 276.779 276.779 1000.66 