ITEM: TIMESTEP
195000
ITEM: NUMBER OF ATOMS
754
ITEM: BOX BOUNDS ff ff pp
-0.021 0.521
-0.021 0.5
-0.001 0.001
ITEM: ATOMS id type type x y z ix iy iz vx vy vz fx fy fz vx vy vz p p rho 
1 1 1 0.0060833 0.00167389 0 0 0 0 -0.00406117 -0.00952285 0 -0.0177446 -0.0257127 0 -0.00406117 -0.00952285 0 457.261 457.261 1001.09 
2 1 1 0.0293839 0.00508742 0 0 0 0 -0.00640276 0.00496883 0 0.0102218 -0.0103031 0 -0.00640276 0.00496883 0 417.873 417.873 1000.99 
3 1 1 0.0642615 0.00510938 0 0 0 0 0.00788779 -0.0127081 0 0.00045747 -0.0157475 0 0.00788779 -0.0127081 0 431.578 431.578 1001.02 
4 1 1 0.0794059 0.00568759 0 0 0 0 0.0168433 0.00522721 0 -0.0302665 -0.00994664 0 0.0168433 0.00522721 0 425.444 425.444 1001.01 
5 1 1 0.0958727 0.004564 0 0 0 0 -0.00736575 -0.00161734 0 -0.00981709 0.024046 0 -0.00736575 -0.00161734 0 451.701 451.701 1001.07 
6 1 1 0.111483 0.00614937 0 0 0 0 -0.00834786 -0.000548332 0 -0.0621965 -0.0167612 0 -0.00834786 -0.000548332 0 447.269 447.269 1001.06 
7 1 1 0.15389 0.00552454 0 0 0 0 -0.0403317 0.0132942 0 0.00331895 -0.0128152 0 -0.0403317 0.0132942 0 455.986 455.986 1001.08 
8 1 1 0.131276 0.0135066 0 0 0 0 -0.015308 0.000595631 0 0.058694 0.0140113 0 -0.015308 0.000595631 0 417.049 417.049 1000.99 
9 1 1 0.187224 0.00568174 0 0 0 0 -0.0465058 -0.00933047 0 -0.0410014 -0.0153666 0 -0.0465058 -0.00933047 0 460.698 460.698 1001.09 
10 1 1 0.199996 0.00634664 0 0 0 0 -0.0306592 -0.00531467 0 -0.0165864 0.00169019 0 -0.0306592 -0.00531467 0 463.301 463.301 1001.1 
11 1 1 0.0331522 0.0153215 0 0 0 0 0.00968761 -0.01279 0 0.0156789 0.0271448 0 0.00968761 -0.01279 0 376 376 1000.89 
12 1 1 0.0514433 0.00649712 0 0 0 0 -0.00375101 0.00278935 0 -0.01972 -0.0162905 0 -0.00375101 0.00278935 0 412.389 412.389 1000.98 
13 1 1 0.0717639 0.0126168 0 0 0 0 0.0160924 -0.00411285 0 -0.0315692 0.0243529 0 0.0160924 -0.00411285 0 395.831 395.831 1000.94 
14 1 1 0.0864348 0.0117049 0 0 0 0 0.00502538 0.0122598 0 0.00839707 -0.0120913 0 0.00502538 0.0122598 0 404.792 404.792 1000.96 
15 1 1 0.105572 0.0130488 0 0 0 0 0.0113323 -0.00574431 0 -0.0422245 -0.00688132 0 0.0113323 -0.00574431 0 415.089 415.089 1000.99 
16 1 1 0.1399 0.00600562 0 0 0 0 -0.0163258 -0.00237789 0 -0.060013 0.00359227 0 -0.0163258 -0.00237789 0 450.12 450.12 1001.07 
17 1 1 0.154231 0.0197065 0 0 0 0 0.00729647 0.0125867 0 -0.052582 -0.0214497 0 0.00729647 0.0125867 0 391.308 391.308 1000.93 
18 1 1 0.167656 0.00564079 0 0 0 0 -0.0440989 -0.0049519 0 0.000884729 -0.0268376 0 -0.0440989 -0.0049519 0 456.066 456.066 1001.08 
19 1 1 0.196696 0.0149811 0 0 0 0 -0.0462256 -0.0113003 0 -0.0298076 -0.0167082 0 -0.0462256 -0.0113003 0 420.222 420.222 1001 
20 1 1 0.188675 0.0166552 0 0 0 0 -0.0246389 0.00572728 0 -0.0419369 -0.00704404 0 -0.0246389 0.00572728 0 415.333 415.333 1000.99 
21 1 1 0.0328878 0.025828 0 0 0 0 -0.00912938 0.00685223 0 -0.0186676 -0.00026877 0 -0.00912938 0.00685223 0 316.535 316.535 1000.75 
22 1 1 0.0411288 0.00765025 0 0 0 0 -0.00243449 -0.00504556 0 -0.0448315 -0.0014657 0 -0.00243449 -0.00504556 0 408.07 408.07 1000.97 
23 1 1 0.0594537 0.0148871 0 0 0 0 0.013465 -0.00661504 0 -0.0211114 -0.0411319 0 0.013465 -0.00661504 0 376.555 376.555 1000.89 
24 1 1 0.0867248 0.0284518 0 0 0 0 -0.00492303 0.0143167 0 -0.0992446 -0.0274591 0 -0.00492303 0.0143167 0 286.61 286.61 1000.68 
25 1 1 0.0750656 0.0279637 0 0 0 0 0.000191938 -0.0190675 0 -0.0501845 -0.0329318 0 0.000191938 -0.0190675 0 299.77 299.77 1000.71 
26 1 1 0.125739 0.00519346 0 0 0 0 -0.0192688 3.31876e-06 0 -0.0296722 -0.0281545 0 -0.0192688 3.31876e-06 0 447.723 447.723 1001.06 
27 1 1 0.124246 0.0186964 0 0 0 0 -0.00112439 0.0287815 0 0.0416073 -0.0550635 0 -0.00112439 0.0287815 0 370.058 370.058 1000.88 
28 1 1 0.169031 0.0167355 0 0 0 0 0.00142602 0.0388022 0 -0.104963 -0.0102826 0 0.00142602 0.0388022 0 398.263 398.263 1000.95 
29 1 1 0.177467 0.00949853 0 0 0 0 -0.0533682 0.00563789 0 0.00372174 0.034627 0 -0.0533682 0.00563789 0 441.34 441.34 1001.05 
30 1 1 0.200047 0.0237151 0 0 0 0 -0.0299474 0.0140646 0 -0.0216394 -0.0210746 0 -0.0299474 0.0140646 0 359.702 359.702 1000.85 
31 1 1 0.0191336 0.00884892 0 0 0 0 0.00660775 0.000661321 0 -0.035531 0.00875654 0 0.00660775 0.000661321 0 408.119 408.119 1000.97 
32 1 1 0.0422793 0.0171868 0 0 0 0 -0.0089026 0.0199599 0 -0.0652785 0.00910833 0 -0.0089026 0.0199599 0 359.012 359.012 1000.85 
33 1 1 0.0648848 0.0330249 0 0 0 0 0.0137033 -0.00962832 0 -0.00555711 -0.0240612 0 0.0137033 -0.00962832 0 253.878 253.878 1000.6 
34 1 1 0.0900682 0.0190798 0 0 0 0 0.030296 0.0128103 0 -0.0170994 -0.0229172 0 0.030296 0.0128103 0 361.12 361.12 1000.86 
35 1 1 0.133414 0.0255781 0 0 0 0 0.0348984 0.0121153 0 -0.0603467 -0.0205849 0 0.0348984 0.0121153 0 338.032 338.032 1000.8 
36 1 1 0.139719 0.017936 0 0 0 0 -0.0309155 -0.011466 0 -0.0541145 -0.016505 0 -0.0309155 -0.011466 0 396.466 396.466 1000.94 
37 1 1 0.147104 0.0136125 0 0 0 0 -0.00673381 0.0160636 0 0.00562267 -0.0178057 0 -0.00673381 0.0160636 0 418.057 418.057 1000.99 
38 1 1 0.180331 0.0184631 0 0 0 0 -0.00931252 -0.0141148 0 0.000679775 -0.00879055 0 -0.00931252 -0.0141148 0 403.574 403.574 1000.96 
39 1 1 0.196416 0.0338017 0 0 0 0 -0.0183925 0.017749 0 -0.00267693 -0.0142556 0 -0.0183925 0.017749 0 284.667 284.667 1000.68 
40 1 1 0.155313 0.0325606 0 0 0 0 -0.00660877 0.018868 0 -0.00482549 -0.0850778 0 -0.00660877 0.018868 0 301.711 301.711 1000.72 
41 1 1 0.0122167 0.0131728 0 0 0 0 0.0114024 -0.00607486 0 0.0207666 -0.00219672 0 0.0114024 -0.00607486 0 393.371 393.371 1000.93 
42 1 1 0.033379 0.0406682 0 0 0 0 -0.00731103 -0.00895329 0 0.0203371 -0.0403078 0 -0.00731103 -0.00895329 0 219.336 219.336 1000.52 
43 1 1 0.0516602 0.0170808 0 0 0 0 -0.00691537 -0.0222202 0 -0.00166126 -0.023029 0 -0.00691537 -0.0222202 0 356.917 356.917 1000.85 
44 1 1 0.0789494 0.0362323 0 0 0 0 -0.0131644 -0.00150186 0 -0.00479677 -0.0333072 0 -0.0131644 -0.00150186 0 234.929 234.929 1000.56 
45 1 1 0.0981407 0.0159256 0 0 0 0 0.00727306 0.00069597 0 -0.00750947 -0.0645157 0 0.00727306 0.00069597 0 393.153 393.153 1000.93 
46 1 1 0.121449 0.0287019 0 0 0 0 0.0253906 0.017392 0 -0.0682665 0.0497564 0 0.0253906 0.017392 0 304.118 304.118 1000.72 
47 1 1 0.160673 0.0142273 0 0 0 0 -0.0085354 -0.0193368 0 -0.0450164 -0.0134227 0 -0.0085354 -0.0193368 0 419.675 419.675 1001 
48 1 1 0.188829 0.0268755 0 0 0 0 -0.0221365 0.00875489 0 -0.132915 -0.0404952 0 -0.0221365 0.00875489 0 343.232 343.232 1000.82 
49 1 1 0.185239 0.0352388 0 0 0 0 -0.0233224 -0.00280556 0 -0.112232 -0.0335511 0 -0.0233224 -0.00280556 0 293.271 293.271 1000.7 
50 1 1 0.168444 0.0499514 0 0 0 0 -0.00188487 0.034963 0 -0.0371057 0.000105404 0 -0.00188487 0.034963 0 235.723 235.723 1000.56 
51 1 1 0.0245686 0.016956 0 0 0 0 0.00675548 0.0235172 0 0.0317147 -0.0147634 0 0.00675548 0.0235172 0 364.058 364.058 1000.86 
52 1 1 0.0479324 0.0264751 0 0 0 0 0.0173946 -0.00364722 0 -0.0123702 -0.014053 0 0.0173946 -0.00364722 0 299.778 299.778 1000.71 
53 1 1 0.0671556 0.0201365 0 0 0 0 -0.00480608 -0.0195503 0 -0.0126298 -0.0104511 0 -0.00480608 -0.0195503 0 351.399 351.399 1000.83 
54 1 1 0.0958261 0.0296156 0 0 0 0 0.0023613 0.0111344 0 0.00394422 -0.0270799 0 0.0023613 0.0111344 0 275.257 275.257 1000.65 
55 1 1 0.101992 0.0383058 0 0 0 0 0.0324777 -0.0132133 0 -0.0792221 -0.00984593 0 0.0324777 -0.0132133 0 234.362 234.362 1000.56 
56 1 1 0.110468 0.0329345 0 0 0 0 0.025685 0.00644402 0 0.0246762 0.021701 0 0.025685 0.00644402 0 268.285 268.285 1000.64 
57 1 1 0.146456 0.0266046 0 0 0 0 0.0125223 -0.0111404 0 -0.00874745 0.0156728 0 0.0125223 -0.0111404 0 339.452 339.452 1000.81 
58 1 1 0.139234 0.0333263 0 0 0 0 0.0081415 0.019511 0 -0.0152464 -0.0305447 0 0.0081415 0.019511 0 286.238 286.238 1000.68 
59 1 1 0.175006 0.033578 0 0 0 0 -0.0249993 0.0311454 0 -0.0185625 0.0682493 0 -0.0249993 0.0311454 0 318.524 318.524 1000.76 
60 1 1 0.178315 0.0451416 0 0 0 0 0.00712938 0.0277335 0 -0.00364544 0.0345407 0 0.00712938 0.0277335 0 250.018 250.018 1000.59 
61 1 1 0.0592242 0.0269191 0 0 0 0 -0.00172325 -0.0118182 0 -0.0275652 -0.0171821 0 -0.00172325 -0.0118182 0 296.556 296.556 1000.7 
62 1 1 0.00800942 0.0198548 0 0 0 0 0.00479106 -0.024076 0 0.00964519 -0.0244472 0 0.00479106 -0.024076 0 349.987 349.987 1000.83 
63 1 1 0.0787633 0.0190378 0 0 0 0 0.0201463 0.00320635 0 -0.0179179 0.014989 0 0.0201463 0.00320635 0 360.689 360.689 1000.86 
64 1 1 0.0444724 0.042839 0 0 0 0 -0.0262656 -0.00728996 0 0.0215352 -0.00803459 0 -0.0262656 -0.00728996 0 199.137 199.137 1000.47 
65 1 1 0.090514 0.0393395 0 0 0 0 0.00942086 -0.00454424 0 -0.0531624 0.0852159 0 0.00942086 -0.00454424 0 221.759 221.759 1000.53 
66 1 1 0.117572 0.0136968 0 0 0 0 0.0143635 0.0113572 0 -0.0266728 -0.0104913 0 0.0143635 0.0113572 0 396.966 396.966 1000.94 
67 1 1 0.127979 0.035011 0 0 0 0 0.00800687 0.0167894 0 -0.027374 -0.0214874 0 0.00800687 0.0167894 0 272.29 272.29 1000.65 
68 1 1 0.162678 0.0264336 0 0 0 0 -0.0143305 0.000423745 0 0.00804506 0.0298723 0 -0.0143305 0.000423745 0 350.18 350.18 1000.83 
69 1 1 0.174085 0.0253281 0 0 0 0 -0.00962156 0.0245125 0 0.00420645 0.00677614 0 -0.00962156 0.0245125 0 358.548 358.548 1000.85 
70 1 1 0.188943 0.0546076 0 0 0 0 0.00619839 0.0228682 0 -0.0652515 0.0797705 0 0.00619839 0.0228682 0 202.45 202.45 1000.48 
71 1 1 0.0103311 0.0315297 0 0 0 0 -0.00382398 -0.0338984 0 0.008068 -0.0671575 0 -0.00382398 -0.0338984 0 265.35 265.35 1000.63 
72 1 1 0.038316 0.0526913 0 0 0 0 0.0199277 0.0127617 0 -0.0134604 0.0601055 0 0.0199277 0.0127617 0 137.312 137.312 1000.33 
73 1 1 0.0238624 0.030874 0 0 0 0 0.0108781 0.0264032 0 -0.0202935 0.0439334 0 0.0108781 0.0264032 0 282.211 282.211 1000.67 
74 1 1 0.051611 0.035669 0 0 0 0 0.012391 -0.00234172 0 -0.0148789 -0.00972377 0 0.012391 -0.00234172 0 240.501 240.501 1000.57 
75 1 1 0.0808318 0.0465537 0 0 0 0 0.00163438 -0.0150004 0 -0.00284223 0.0352055 0 0.00163438 -0.0150004 0 186.004 186.004 1000.44 
76 1 1 0.113079 0.022605 0 0 0 0 -0.00279316 -0.00473743 0 -0.0178003 -0.0916729 0 -0.00279316 -0.00473743 0 333.316 333.316 1000.79 
77 1 1 0.104336 0.0246108 0 0 0 0 0.00724016 -0.00258591 0 -0.0812769 0.014567 0 0.00724016 -0.00258591 0 318.612 318.612 1000.76 
78 1 1 0.157404 0.0452297 0 0 0 0 0.0134423 0.0278586 0 0.0126994 0.0334415 0 0.0134423 0.0278586 0 223.241 223.241 1000.53 
79 1 1 0.148242 0.0397089 0 0 0 0 0.0127508 0.00463878 0 -0.0650296 -0.0148985 0 0.0127508 0.00463878 0 246.667 246.667 1000.59 
80 1 1 0.158524 0.0598392 0 0 0 0 -0.00105558 0.0402693 0 -0.0308634 0.0565016 0 -0.00105558 0.0402693 0 189.768 189.768 1000.45 
81 1 1 0.0185761 0.023978 0 0 0 0 0.0107137 0.00191465 0 -0.00110977 0.014593 0 0.0107137 0.00191465 0 324.666 324.666 1000.77 
82 1 1 0.0128948 0.0389959 0 0 0 0 -0.00479004 -0.0161959 0 0.00967063 0.00707044 0 -0.00479004 -0.0161959 0 220.256 220.256 1000.52 
83 1 1 0.0393288 0.030718 0 0 0 0 0.0113626 -0.00610075 0 -0.00698984 0.0671913 0 0.0113626 -0.00610075 0 282.285 282.285 1000.67 
84 1 1 0.0246727 0.0418112 0 0 0 0 -0.01717 0.0274901 0 -0.0621485 0.0123792 0 -0.01717 0.0274901 0 215 215 1000.51 
85 1 1 0.069544 0.0420094 0 0 0 0 -0.0207741 -0.0091361 0 -0.0636999 0.0128652 0 -0.0207741 -0.0091361 0 191.937 191.937 1000.46 
86 1 1 0.110765 0.0456407 0 0 0 0 0.00964686 0.0371772 0 -0.0717311 -0.0104773 0 0.00964686 0.0371772 0 205.92 205.92 1000.49 
87 1 1 0.119053 0.0413295 0 0 0 0 -0.010395 -0.0032673 0 -0.0511622 -0.0546281 0 -0.010395 -0.0032673 0 235.259 235.259 1000.56 
88 1 1 0.128857 0.0471918 0 0 0 0 0.0125929 0.0123709 0 -0.0450886 0.0208292 0 0.0125929 0.0123709 0 196.779 196.779 1000.47 
89 1 1 0.137964 0.044572 0 0 0 0 0.0124561 0.00937553 0 -0.0500176 -0.0126901 0 0.0124561 0.00937553 0 214.38 214.38 1000.51 
90 1 1 0.147247 0.052392 0 0 0 0 0.0133975 0.0179593 0 0.0178476 -0.0103767 0 0.0133975 0.0179593 0 182.043 182.043 1000.43 
91 1 1 0.0528859 0.0549205 0 0 0 0 0.00492061 0.00175212 0 0.0102585 0.0327319 0 0.00492061 0.00175212 0 169.078 169.078 1000.4 
92 1 1 0.0242365 0.0547972 0 0 0 0 0.0130476 0.00748442 0 0.0587426 0.0392505 0 0.0130476 0.00748442 0 146.302 146.302 1000.35 
93 1 1 0.0129885 0.0499432 0 0 0 0 0.00401612 -0.0134283 0 -0.0011374 0.0188578 0 0.00401612 -0.0134283 0 167.965 167.965 1000.4 
94 1 1 0.0686083 0.0536462 0 0 0 0 0.00513527 -0.00757853 0 -0.0125936 0.0875802 0 0.00513527 -0.00757853 0 142.832 142.832 1000.34 
95 1 1 0.086545 0.0575825 0 0 0 0 0.00189925 -0.0164552 0 -0.0614649 0.039034 0 0.00189925 -0.0164552 0 188.562 188.562 1000.45 
96 1 1 0.107999 0.0579639 0 0 0 0 -0.0170272 0.010427 0 -0.144463 -0.00320381 0 -0.0170272 0.010427 0 162.627 162.627 1000.39 
97 1 1 0.0581269 0.0435849 0 0 0 0 -0.0259322 -0.00307777 0 0.0101521 0.0599583 0 -0.0259322 -0.00307777 0 194.704 194.704 1000.46 
98 1 1 0.0970353 0.0492672 0 0 0 0 0.0144076 -0.0131207 0 -0.0272595 0.0403131 0 0.0144076 -0.0131207 0 210.49 210.49 1000.5 
99 1 1 0.121655 0.0567159 0 0 0 0 0.0204702 0.00300253 0 -0.00192282 -0.0166827 0 0.0204702 0.00300253 0 151.303 151.303 1000.36 
100 1 1 0.137142 0.0602525 0 0 0 0 0.0115419 0.0138073 0 -0.0393015 -0.0112102 0 0.0115419 0.0138073 0 175.225 175.225 1000.42 
101 1 1 0.207577 0.0142651 0 0 0 0 -0.0475406 -0.00773927 0 -0.0247444 -0.0296001 0 -0.0475406 -0.00773927 0 431.68 431.68 1001.02 
102 1 1 0.219635 0.0161946 0 0 0 0 -0.0412911 -0.00117263 0 -0.0749661 0.0215673 0 -0.0412911 -0.00117263 0 422.022 422.022 1001 
103 1 1 0.227961 0.0260103 0 0 0 0 -0.0679744 0.0100165 0 -0.0634365 -0.0341415 0 -0.0679744 0.0100165 0 363.861 363.861 1000.86 
104 1 1 0.213248 0.00559321 0 0 0 0 -0.0169399 -0.00399568 0 -0.032637 -0.00458892 0 -0.0169399 -0.00399568 0 468.086 468.086 1001.11 
105 1 1 0.223999 0.00854538 0 0 0 0 -0.0196037 0.000771006 0 0.00353316 -0.00511128 0 -0.0196037 0.000771006 0 462.718 462.718 1001.1 
106 1 1 0.23562 0.00478349 0 0 0 0 -0.0252575 -0.000994864 0 -0.05101 -0.00627302 0 -0.0252575 -0.000994864 0 495.795 495.795 1001.18 
107 1 1 0.245974 0.0145811 0 0 0 0 -0.0391678 0.00610033 0 -0.112216 -0.00673603 0 -0.0391678 0.00610033 0 447.459 447.459 1001.06 
108 1 1 0.24981 0.00635521 0 0 0 0 -0.033512 0.00749137 0 -0.0392234 -0.0153843 0 -0.033512 0.00749137 0 484.019 484.019 1001.15 
109 1 1 0.257965 0.013526 0 0 0 0 -0.064518 0.0133902 0 -0.0314639 -0.0436236 0 -0.064518 0.0133902 0 458.084 458.084 1001.09 
110 1 1 0.267673 0.015941 0 0 0 0 -0.102021 0.000676464 0 -0.0686101 0.0244403 0 -0.102021 0.000676464 0 457.616 457.616 1001.09 
111 1 1 0.264333 0.00482927 0 0 0 0 -0.0424048 -0.00899864 0 -0.0317101 -0.00123778 0 -0.0424048 -0.00899864 0 508.368 508.368 1001.21 
112 1 1 0.274944 0.00963883 0 0 0 0 -0.0664826 0.0201568 0 -0.0663996 0.0485003 0 -0.0664826 0.0201568 0 489.342 489.342 1001.16 
113 1 1 0.285157 0.00565143 0 0 0 0 -0.0597587 -0.0157895 0 -0.0666092 -0.0275848 0 -0.0597587 -0.0157895 0 511.97 511.97 1001.21 
114 1 1 0.29549 0.0174302 0 0 0 0 -0.0912226 -0.0029881 0 -0.0570577 -0.0478167 0 -0.0912226 -0.0029881 0 456.421 456.421 1001.08 
115 1 1 0.321166 0.0243904 0 0 0 0 -0.102207 -0.00939472 0 -0.0924415 0.00142639 0 -0.102207 -0.00939472 0 455.17 455.17 1001.08 
116 1 1 0.297845 0.00615814 0 0 0 0 -0.0412028 0.00192133 0 -0.0315711 0.000150996 0 -0.0412028 0.00192133 0 509.049 509.049 1001.21 
117 1 1 0.314204 0.00488843 0 0 0 0 -0.0713822 -0.0081091 0 -0.040383 0.0225801 0 -0.0713822 -0.0081091 0 546.151 546.151 1001.3 
118 1 1 0.323602 0.0106891 0 0 0 0 -0.0682126 -0.000375055 0 -0.0378033 -0.0395792 0 -0.0682126 -0.000375055 0 528.176 528.176 1001.25 
119 1 1 0.333919 0.00447091 0 0 0 0 -0.0701615 -0.000490824 0 -0.0167589 0.0141498 0 -0.0701615 -0.000490824 0 562.286 562.286 1001.33 
120 1 1 0.345256 0.0261199 0 0 0 0 -0.0782504 -0.00211219 0 -0.0622701 -0.0902382 0 -0.0782504 -0.00211219 0 447.506 447.506 1001.06 
121 1 1 0.344967 0.012916 0 0 0 0 -0.077232 -0.00745508 0 -0.0552012 0.00187708 0 -0.077232 -0.00745508 0 532.656 532.656 1001.26 
122 1 1 0.350414 0.00553596 0 0 0 0 -0.0801481 0.0103867 0 -0.0582312 0.0342657 0 -0.0801481 0.0103867 0 554.856 554.856 1001.32 
123 1 1 0.370938 0.0151845 0 0 0 0 -0.0749075 -0.0105087 0 -0.0619241 -0.0121681 0 -0.0749075 -0.0105087 0 523.53 523.53 1001.24 
124 1 1 0.363784 0.00628501 0 0 0 0 -0.0814778 -0.0131004 0 -0.0531664 -0.0108178 0 -0.0814778 -0.0131004 0 556.254 556.254 1001.32 
125 1 1 0.376036 0.00676084 0 0 0 0 -0.0576383 -0.0110178 0 -0.00181667 -0.0368625 0 -0.0576383 -0.0110178 0 557.796 557.796 1001.32 
126 1 1 0.387581 0.0202187 0 0 0 0 -0.100743 -0.00776703 0 -0.116576 -0.0235695 0 -0.100743 -0.00776703 0 509.718 509.718 1001.21 
127 1 1 0.387654 0.00650814 0 0 0 0 -0.0431563 -0.00153516 0 0.00899407 0.026871 0 -0.0431563 -0.00153516 0 575.071 575.071 1001.36 
128 1 1 0.393143 0.01367 0 0 0 0 -0.0828379 0.00821481 0 -0.0123009 -0.0550949 0 -0.0828379 0.00821481 0 547.462 547.462 1001.3 
129 1 1 0.412774 0.00970148 0 0 0 0 -0.0775221 -0.0163093 0 -0.0207748 -0.033407 0 -0.0775221 -0.0163093 0 591.581 591.581 1001.4 
130 1 1 0.42328 0.00535067 0 0 0 0 -0.0549459 -0.000958967 0 -0.0807535 0.0333079 0 -0.0549459 -0.000958967 0 600.826 600.826 1001.42 
131 1 1 0.437282 0.00634856 0 0 0 0 -0.024231 -0.0214654 0 -0.0124988 -0.0581535 0 -0.024231 -0.0214654 0 593.176 593.176 1001.41 
132 1 1 0.43065 0.0139682 0 0 0 0 -0.064045 -0.0116671 0 -0.0473219 -0.0472738 0 -0.064045 -0.0116671 0 566.607 566.607 1001.34 
133 1 1 0.445573 0.0141267 0 0 0 0 -0.0431292 -0.0235988 0 -0.126074 0.0146529 0 -0.0431292 -0.0235988 0 572.034 572.034 1001.36 
134 1 1 0.452022 0.0206651 0 0 0 0 -0.042694 -0.00179989 0 0.0204491 -0.0566409 0 -0.042694 -0.00179989 0 551.206 551.206 1001.31 
135 1 1 0.450013 0.00597723 0 0 0 0 0.0014127 0.00670866 0 0.0834231 0.0328479 0 0.0014127 0.00670866 0 589.462 589.462 1001.4 
136 1 1 0.458225 0.0126928 0 0 0 0 -0.0200697 0.00897265 0 -0.0978264 0.0278328 0 -0.0200697 0.00897265 0 579.739 579.739 1001.37 
137 1 1 0.465166 0.00522914 0 0 0 0 -0.0026282 -0.0106147 0 -0.0162455 -0.0304561 0 -0.0026282 -0.0106147 0 603.012 603.012 1001.43 
138 1 1 0.479129 0.00628446 0 0 0 0 0.00932496 -0.00594192 0 -0.0310818 9.27781e-06 0 0.00932496 -0.00594192 0 593.726 593.726 1001.41 
139 1 1 0.492895 0.00546619 0 0 0 0 0.00307238 -3.64276e-05 0 0.0146409 0.00610219 0 0.00307238 -3.64276e-05 0 601.806 601.806 1001.43 
140 1 1 0.206548 0.031481 0 0 0 0 -0.0275824 -0.00582745 0 0.0098884 -0.00404366 0 -0.0275824 -0.00582745 0 320.996 320.996 1000.76 
141 1 1 0.211392 0.0210884 0 0 0 0 -0.0439699 -0.02412 0 -0.0518394 0.00646292 0 -0.0439699 -0.02412 0 396.61 396.61 1000.94 
142 1 1 0.251642 0.0404288 0 0 0 0 -0.0691069 0.0180207 0 -0.0499969 -0.0163109 0 -0.0691069 0.0180207 0 270.111 270.111 1000.64 
143 1 1 0.239484 0.0258944 0 0 0 0 -0.0522949 -0.0171074 0 -0.0565389 -0.0146634 0 -0.0522949 -0.0171074 0 374.936 374.936 1000.89 
144 1 1 0.247188 0.0284252 0 0 0 0 -0.0558471 0.0256715 0 -0.0268621 0.00182015 0 -0.0558471 0.0256715 0 359.279 359.279 1000.85 
145 1 1 0.229975 0.0167287 0 0 0 0 -0.0457605 0.0233532 0 -0.0396731 -0.0126635 0 -0.0457605 0.0233532 0 427.094 427.094 1001.01 
146 1 1 0.256968 0.0324939 0 0 0 0 -0.0505497 0.0270702 0 -0.0513952 -0.0249459 0 -0.0505497 0.0270702 0 337.297 337.297 1000.8 
147 1 1 0.237926 0.0151781 0 0 0 0 -0.0515882 -0.0099916 0 -0.0263911 0.0177954 0 -0.0515882 -0.0099916 0 446.206 446.206 1001.06 
148 1 1 0.253596 0.0208208 0 0 0 0 -0.0670378 0.0398264 0 -0.0566438 0.00315549 0 -0.0670378 0.0398264 0 412.056 412.056 1000.98 
149 1 1 0.275323 0.0252688 0 0 0 0 -0.0664924 -0.0174298 0 -0.0921683 -0.0255154 0 -0.0664924 -0.0174298 0 406.92 406.92 1000.97 
150 1 1 0.293144 0.0377027 0 0 0 0 -0.0857053 0.0176518 0 -0.0892649 -0.0205779 0 -0.0857053 0.0176518 0 322.999 322.999 1000.77 
151 1 1 0.279483 0.0168996 0 0 0 0 -0.073357 -0.00864948 0 -0.0571427 0.0309891 0 -0.073357 -0.00864948 0 459.535 459.535 1001.09 
152 1 1 0.286072 0.0270422 0 0 0 0 -0.0638683 0.0163744 0 -0.057089 -0.0229733 0 -0.0638683 0.0163744 0 386.454 386.454 1000.92 
153 1 1 0.288818 0.0155778 0 0 0 0 -0.0782136 -0.00886072 0 -0.0999717 -0.0340184 0 -0.0782136 -0.00886072 0 465.316 465.316 1001.1 
154 1 1 0.305183 0.0118782 0 0 0 0 -0.0815053 0.0251058 0 -0.0154117 -0.0212706 0 -0.0815053 0.0251058 0 497.156 497.156 1001.18 
155 1 1 0.328059 0.016426 0 0 0 0 -0.0726797 0.00936725 0 -0.0952584 -0.00355456 0 -0.0726797 0.00936725 0 502.716 502.716 1001.19 
156 1 1 0.315197 0.0163615 0 0 0 0 -0.0742191 -0.0157889 0 -0.0709208 0.0265873 0 -0.0742191 -0.0157889 0 497.846 497.846 1001.18 
157 1 1 0.338116 0.0148056 0 0 0 0 -0.080011 0.00632132 0 -0.0836086 -0.00358224 0 -0.080011 0.00632132 0 519.974 519.974 1001.23 
158 1 1 0.33502 0.0240672 0 0 0 0 -0.0843599 0.00581295 0 -0.0631291 0.0269767 0 -0.0843599 0.00581295 0 458.631 458.631 1001.09 
159 1 1 0.358564 0.0298537 0 0 0 0 -0.0924908 -0.000669124 0 -0.0832196 -0.0342568 0 -0.0924908 -0.000669124 0 432.111 432.111 1001.03 
160 1 1 0.352118 0.0200982 0 0 0 0 -0.0809202 -0.0097428 0 -0.0560632 -0.0324209 0 -0.0809202 -0.0097428 0 490.599 490.599 1001.16 
161 1 1 0.358221 0.0140611 0 0 0 0 -0.0615643 0.00201743 0 -0.0376049 -0.0397213 0 -0.0615643 0.00201743 0 524.191 524.191 1001.24 
162 1 1 0.373209 0.0261597 0 0 0 0 -0.0967085 0.0140936 0 -0.0758543 0.0186428 0 -0.0967085 0.0140936 0 464.625 464.625 1001.1 
163 1 1 0.379869 0.0165499 0 0 0 0 -0.106266 0.000443517 0 -0.0104107 -0.0350012 0 -0.106266 0.000443517 0 522.844 522.844 1001.24 
164 1 1 0.405284 0.0319377 0 0 0 0 -0.0701664 0.00447058 0 0.0152468 -0.0297998 0 -0.0701664 0.00447058 0 450.599 450.599 1001.07 
165 1 1 0.402602 0.0046439 0 0 0 0 -0.0651488 0.0105424 0 -0.0475448 0.0330527 0 -0.0651488 0.0105424 0 589.915 589.915 1001.4 
166 1 1 0.4051 0.0224173 0 0 0 0 -0.0536838 -0.0133846 0 -0.0677495 -0.039982 0 -0.0536838 -0.0133846 0 508.639 508.639 1001.21 
167 1 1 0.414811 0.0364239 0 0 0 0 -0.0521624 -0.0277207 0 -0.0715769 0.0187581 0 -0.0521624 -0.0277207 0 423.378 423.378 1001.01 
168 1 1 0.423937 0.0176055 0 0 0 0 -0.0552331 -0.0082376 0 -0.0857288 0.0320334 0 -0.0552331 -0.0082376 0 554.093 554.093 1001.31 
169 1 1 0.422048 0.0464864 0 0 0 0 -0.10053 -0.0374067 0 -0.0430348 -0.0592526 0 -0.10053 -0.0374067 0 361.896 361.896 1000.86 
170 1 1 0.413865 0.0164645 0 0 0 0 -0.0579349 -0.0178064 0 0.0576602 -0.0226201 0 -0.0579349 -0.0178064 0 563.329 563.329 1001.34 
171 1 1 0.424318 0.030461 0 0 0 0 -0.072546 -0.0134047 0 -0.0436401 -0.0858018 0 -0.072546 -0.0134047 0 472.83 472.83 1001.12 
172 1 1 0.437259 0.0188924 0 0 0 0 -0.061761 -0.035063 0 0.105431 0.00974484 0 -0.061761 -0.035063 0 549.29 549.29 1001.3 
173 1 1 0.445529 0.0267467 0 0 0 0 -0.0395099 -0.0416468 0 -0.0663345 -0.0219363 0 -0.0395099 -0.0416468 0 520.195 520.195 1001.23 
174 1 1 0.472027 0.0133707 0 0 0 0 -0.019076 -0.0040582 0 0.0142334 0.0454656 0 -0.019076 -0.0040582 0 575.298 575.298 1001.36 
175 1 1 0.472687 0.0247888 0 0 0 0 -0.0283824 -0.00897828 0 -0.143688 -0.0039227 0 -0.0283824 -0.00897828 0 544.482 544.482 1001.29 
176 1 1 0.480546 0.0212627 0 0 0 0 -0.00569827 -0.0033829 0 0.0333346 -0.00742354 0 -0.00569827 -0.0033829 0 560.359 560.359 1001.33 
177 1 1 0.484566 0.0135593 0 0 0 0 -0.0225616 0.0140174 0 0.00103065 -0.0136018 0 -0.0225616 0.0140174 0 583.331 583.331 1001.38 
178 1 1 0.491811 0.0188422 0 0 0 0 -0.011678 -0.0275603 0 -0.017612 -0.00932781 0 -0.011678 -0.0275603 0 567.495 567.495 1001.35 
179 1 1 0.201334 0.0440104 0 0 0 0 -0.0114347 0.0211487 0 -0.030604 0.00862808 0 -0.0114347 0.0211487 0 240.505 240.505 1000.57 
180 1 1 0.218842 0.0279331 0 0 0 0 -0.055527 0.0158586 0 -0.112943 0.00508161 0 -0.055527 0.0158586 0 351.259 351.259 1000.83 
181 1 1 0.222552 0.0377569 0 0 0 0 -0.0302151 0.0154115 0 -0.0376302 0.044041 0 -0.0302151 0.0154115 0 290.23 290.23 1000.69 
182 1 1 0.23253 0.0347914 0 0 0 0 -0.0390345 0.0108766 0 -0.0413199 -0.0104065 0 -0.0390345 0.0108766 0 306.478 306.478 1000.73 
183 1 1 0.254826 0.051835 0 0 0 0 -0.0844937 0.0241968 0 -0.0610591 0.00584035 0 -0.0844937 0.0241968 0 211.374 211.374 1000.5 
184 1 1 0.24277 0.048513 0 0 0 0 -0.0686543 0.0141321 0 -0.0587214 0.0586394 0 -0.0686543 0.0141321 0 215.653 215.653 1000.51 
185 1 1 0.241317 0.0386609 0 0 0 0 -0.0830994 0.00425525 0 -0.0784159 -0.069112 0 -0.0830994 0.00425525 0 278.62 278.62 1000.66 
186 1 1 0.263857 0.0242306 0 0 0 0 -0.0527494 0.0235072 0 -0.0362419 0.0117135 0 -0.0527494 0.0235072 0 402.869 402.869 1000.96 
187 1 1 0.280687 0.0344932 0 0 0 0 -0.0884038 -0.0108467 0 -0.0796038 -0.00827325 0 -0.0884038 -0.0108467 0 339.885 339.885 1000.81 
188 1 1 0.285746 0.0436395 0 0 0 0 -0.0921414 0.006753 0 -0.0906418 0.00593961 0 -0.0921414 0.006753 0 285.402 285.402 1000.68 
189 1 1 0.303188 0.0324487 0 0 0 0 -0.0948771 0.00939104 0 -0.0512121 0.0158051 0 -0.0948771 0.00939104 0 376.335 376.335 1000.89 
190 1 1 0.306362 0.0202257 0 0 0 0 -0.0649217 0.0129534 0 -0.0437419 0.0513705 0 -0.0649217 0.0129534 0 460.599 460.599 1001.09 
191 1 1 0.310053 0.0408351 0 0 0 0 -0.100769 0.0197129 0 -0.0792602 0.00429037 0 -0.100769 0.0197129 0 331.521 331.521 1000.79 
192 1 1 0.311991 0.0288998 0 0 0 0 -0.0903635 0.0198237 0 -0.0522976 -0.0364346 0 -0.0903635 0.0198237 0 417.812 417.812 1000.99 
193 1 1 0.338253 0.0347048 0 0 0 0 -0.0911612 -0.0122268 0 -0.0263876 0.00291349 0 -0.0911612 -0.0122268 0 390.591 390.591 1000.93 
194 1 1 0.32208 0.0464945 0 0 0 0 -0.0874031 0.00568653 0 -0.100088 -0.0223318 0 -0.0874031 0.00568653 0 311.746 311.746 1000.74 
195 1 1 0.344877 0.044283 0 0 0 0 -0.125427 -0.0159618 0 -0.102979 0.0469213 0 -0.125427 -0.0159618 0 329.184 329.184 1000.78 
196 1 1 0.34962 0.0342184 0 0 0 0 -0.0832001 -0.000767939 0 -0.0551168 -0.0164273 0 -0.0832001 -0.000767939 0 391.459 391.459 1000.93 
197 1 1 0.366072 0.0452442 0 0 0 0 -0.101369 0.00948568 0 -0.110321 -0.0114205 0 -0.101369 0.00948568 0 339.496 339.496 1000.81 
198 1 1 0.364555 0.0346509 0 0 0 0 -0.0882505 0.00651294 0 -0.0418028 -0.0701533 0 -0.0882505 0.00651294 0 408.094 408.094 1000.97 
199 1 1 0.374864 0.0369625 0 0 0 0 -0.0984866 -0.000781784 0 -0.0331877 -0.000854512 0 -0.0984866 -0.000781784 0 403.679 403.679 1000.96 
200 1 1 0.364125 0.021158 0 0 0 0 -0.0813254 -0.00116078 0 0.00809519 -0.0405937 0 -0.0813254 -0.00116078 0 489.102 489.102 1001.16 
201 1 1 0.395515 0.0272217 0 0 0 0 -0.0539496 -0.0167053 0 -0.106177 0.0197279 0 -0.0539496 -0.0167053 0 471.903 471.903 1001.12 
202 1 1 0.382205 0.0424751 0 0 0 0 -0.113983 -0.0087659 0 -0.09468 -0.0188421 0 -0.113983 -0.0087659 0 376.238 376.238 1000.89 
203 1 1 0.390796 0.0343692 0 0 0 0 -0.0932726 -0.0271529 0 0.00648198 0.03532 0 -0.0932726 -0.0271529 0 432.426 432.426 1001.03 
204 1 1 0.400379 0.0510344 0 0 0 0 -0.117909 -0.0244941 0 0.0221935 -0.00111179 0 -0.117909 -0.0244941 0 319.979 319.979 1000.76 
205 1 1 0.400972 0.0151209 0 0 0 0 -0.0822193 0.0126512 0 0.0263395 0.01906 0 -0.0822193 0.0126512 0 545.448 545.448 1001.29 
206 1 1 0.416292 0.0260841 0 0 0 0 -0.0645808 -0.0188207 0 -0.0823324 0.0391595 0 -0.0645808 -0.0188207 0 502.762 502.762 1001.19 
207 1 1 0.440174 0.0431116 0 0 0 0 -0.0643611 -0.0250245 0 -0.0270522 -0.0437934 0 -0.0643611 -0.0250245 0 421.928 421.928 1001 
208 1 1 0.439502 0.0342655 0 0 0 0 -0.0692997 -0.0459431 0 -0.104084 -0.0246032 0 -0.0692997 -0.0459431 0 472.751 472.751 1001.12 
209 1 1 0.427939 0.0395442 0 0 0 0 -0.0514237 -0.0187596 0 0.0648499 0.0193449 0 -0.0514237 -0.0187596 0 417.925 417.925 1000.99 
210 1 1 0.451499 0.034674 0 0 0 0 -0.0804732 -0.0050193 0 0.000635938 0.00984569 0 -0.0804732 -0.0050193 0 468.296 468.296 1001.11 
211 1 1 0.432308 0.027436 0 0 0 0 -0.0414056 -0.0181835 0 -0.0220568 -0.07589 0 -0.0414056 -0.0181835 0 499.105 499.105 1001.18 
212 1 1 0.45991 0.0278938 0 0 0 0 -0.0494799 -0.0196455 0 -0.068013 -0.000442274 0 -0.0494799 -0.0196455 0 510.523 510.523 1001.21 
213 1 1 0.464101 0.0185047 0 0 0 0 -0.0254757 -0.0198258 0 0.0627548 -0.0032504 0 -0.0254757 -0.0198258 0 559.114 559.114 1001.33 
214 1 1 0.476656 0.0420934 0 0 0 0 0.0485936 -0.0482874 0 -0.143208 -0.0549394 0 0.0485936 -0.0482874 0 434.411 434.411 1001.03 
215 1 1 0.489455 0.029264 0 0 0 0 0.0283529 -0.00360791 0 -0.0299788 -0.0659285 0 0.0283529 -0.00360791 0 514.445 514.445 1001.22 
216 1 1 0.478913 0.033133 0 0 0 0 -0.0364043 -0.0563311 0 -0.0182942 -0.0193995 0 -0.0364043 -0.0563311 0 491.185 491.185 1001.17 
217 1 1 0.488517 0.0385365 0 0 0 0 0.00689699 -0.0199591 0 0.0722713 -0.0155283 0 0.00689699 -0.0199591 0 457.737 457.737 1001.09 
218 1 1 0.220949 0.0488788 0 0 0 0 -0.0484738 0.035533 0 -0.0866072 0.07371 0 -0.0484738 0.035533 0 254.868 254.868 1000.61 
219 1 1 0.165654 0.0376226 0 0 0 0 0.00528109 0.0241763 0 -0.0140261 0.0295024 0 0.00528109 0.0241763 0 286.78 286.78 1000.68 
220 1 1 0.190975 0.0447596 0 0 0 0 -0.0160555 0.0129996 0 -0.0352728 -0.0126786 0 -0.0160555 0.0129996 0 229.202 229.202 1000.54 
221 1 1 0.231631 0.0470593 0 0 0 0 -0.0624651 0.0486613 0 -0.0510454 0.0315723 0 -0.0624651 0.0486613 0 236.95 236.95 1000.56 
222 1 1 0.212198 0.0384068 0 0 0 0 -0.0275896 0.00992856 0 -0.00568318 0.0558682 0 -0.0275896 0.00992856 0 292.216 292.216 1000.69 
223 1 1 0.262229 0.0433893 0 0 0 0 -0.0673919 0.00955759 0 -0.027176 -0.0297628 0 -0.0673919 0.00955759 0 270.74 270.74 1000.64 
224 1 1 0.268119 0.0331804 0 0 0 0 -0.0500672 0.0218176 0 -0.0461906 0.0292103 0 -0.0500672 0.0218176 0 344.706 344.706 1000.82 
225 1 1 0.273094 0.0422431 0 0 0 0 -0.0584647 0.041065 0 -0.0272015 0.0439232 0 -0.0584647 0.041065 0 285.919 285.919 1000.68 
226 1 1 0.290417 0.0541336 0 0 0 0 -0.0818991 0.00088328 0 -0.0865212 0.00154774 0 -0.0818991 0.00088328 0 223.173 223.173 1000.53 
227 1 1 0.2959 0.0272819 0 0 0 0 -0.0717062 -0.00963876 0 -0.0325497 -0.0616186 0 -0.0717062 -0.00963876 0 394.235 394.235 1000.94 
228 1 1 0.299854 0.0451753 0 0 0 0 -0.0966628 0.0170611 0 -0.080995 -0.0592565 0 -0.0966628 0.0170611 0 283.185 283.185 1000.67 