ITEM: TIMESTEP
122000
ITEM: NUMBER OF ATOMS
754
ITEM: BOX BOUNDS ff ff pp
-0.021 0.521
-0.021 0.5
-0.001 0.001
ITEM: ATOMS id type type x y z ix iy iz vx vy vz fx fy fz vx vy vz p p rho 
1 1 1 0.00694449 0.00595292 0 0 0 0 0.00321869 -0.00862235 0 0.0189649 -0.0364301 0 0.00321869 -0.00862235 0 671.055 671.055 1001.59 
2 1 1 0.0203884 0.00702088 0 0 0 0 0.0183686 -0.00644028 0 -0.0197296 -0.0555214 0 0.0183686 -0.00644028 0 657.941 657.941 1001.56 
3 1 1 0.0424245 0.00904662 0 0 0 0 0.00424368 0.0173522 0 0.0331333 -0.00917695 0 0.00424368 0.0173522 0 658.96 658.96 1001.56 
4 1 1 0.0521938 0.00658198 0 0 0 0 -0.010582 -0.00108124 0 0.0567033 0.0233152 0 -0.010582 -0.00108124 0 664.614 664.614 1001.57 
5 1 1 0.0659635 0.00672042 0 0 0 0 -0.0164272 -0.0161557 0 0.0826153 -0.000174494 0 -0.0164272 -0.0161557 0 655 655 1001.55 
6 1 1 0.075974 0.00982444 0 0 0 0 0.00907234 0.002075 0 0.158227 -0.0878711 0 0.00907234 0.002075 0 599.496 599.496 1001.42 
7 1 1 0.106053 0.00703452 0 0 0 0 0.0240225 -0.0123556 0 0.125843 -0.0121208 0 0.0240225 -0.0123556 0 599.551 599.551 1001.42 
8 1 1 0.104857 0.0180622 0 0 0 0 -0.0553548 0.0304506 0 0.137179 -0.0988603 0 -0.0553548 0.0304506 0 536.551 536.551 1001.27 
9 1 1 0.140321 0.00746701 0 0 0 0 -0.00797067 0.0176609 0 0.0935578 -0.0525354 0 -0.00797067 0.0176609 0 544.8 544.8 1001.29 
10 1 1 0.152865 0.00654043 0 0 0 0 -0.040883 0.00125591 0 0.0961841 0.0563826 0 -0.040883 0.00125591 0 589.556 589.556 1001.4 
11 1 1 0.0168588 0.0236198 0 0 0 0 -0.020252 -0.0125229 0 0.0131568 -0.0713531 0 -0.020252 -0.0125229 0 556.206 556.206 1001.32 
12 1 1 0.0319282 0.00682094 0 0 0 0 0.0135858 -0.00842568 0 0.0468994 -0.0167629 0 0.0135858 -0.00842568 0 650.681 650.681 1001.54 
13 1 1 0.0439737 0.0205012 0 0 0 0 -0.0228634 0.00202201 0 0.0403269 -0.0334936 0 -0.0228634 0.00202201 0 594.487 594.487 1001.41 
14 1 1 0.0594459 0.0140042 0 0 0 0 0.0144397 0.0156876 0 0.135105 -0.0549633 0 0.0144397 0.0156876 0 590.796 590.796 1001.4 
15 1 1 0.0702792 0.0170846 0 0 0 0 0.0221389 -0.0415049 0 0.075881 0.08025 0 0.0221389 -0.0415049 0 617.426 617.426 1001.46 
16 1 1 0.097052 0.0105826 0 0 0 0 0.0541296 0.0173172 0 0.0536024 0.0129813 0 0.0541296 0.0173172 0 564.193 564.193 1001.34 
17 1 1 0.101015 0.0260043 0 0 0 0 -0.0622406 0.0292837 0 0.139221 -0.0217138 0 -0.0622406 0.0292837 0 483.254 483.254 1001.15 
18 1 1 0.127814 0.0062848 0 0 0 0 -0.0104211 -0.00675979 0 0.0277252 0.118324 0 -0.0104211 -0.00675979 0 644.326 644.326 1001.53 
19 1 1 0.144993 0.0153979 0 0 0 0 -0.0679054 0.0393521 0 0.0579146 -0.00577799 0 -0.0679054 0.0393521 0 503.579 503.579 1001.19 
20 1 1 0.136795 0.0214175 0 0 0 0 -0.0513735 0.0386278 0 0.207487 0.0662654 0 -0.0513735 0.0386278 0 467.555 467.555 1001.11 
21 1 1 0.0214487 0.0321743 0 0 0 0 -0.00966494 0.0477443 0 0.0324317 -0.000363957 0 -0.00966494 0.0477443 0 498.04 498.04 1001.18 
22 1 1 0.0256599 0.0163908 0 0 0 0 0.00395519 0.0272965 0 0.0366779 -0.0263596 0 0.00395519 0.0272965 0 648.748 648.748 1001.54 
23 1 1 0.0356952 0.0163646 0 0 0 0 -0.0132563 0.00984041 0 0.0253442 0.00698395 0 -0.0132563 0.00984041 0 631.532 631.532 1001.5 
24 1 1 0.0526532 0.0487946 0 0 0 0 -0.0258213 0.0179514 0 0.11203 -0.0119744 0 -0.0258213 0.0179514 0 352.036 352.036 1000.84 
25 1 1 0.0544948 0.0307868 0 0 0 0 -0.0354472 0.0349569 0 0.0542114 -0.0939216 0 -0.0354472 0.0349569 0 502.389 502.389 1001.19 
26 1 1 0.0869803 0.00629399 0 0 0 0 0.0344566 -0.0294064 0 0.104825 0.0611872 0 0.0344566 -0.0294064 0 627.32 627.32 1001.49 
27 1 1 0.0928711 0.0170984 0 0 0 0 -0.0450196 -0.00187707 0 0.175797 -0.0314071 0 -0.0450196 -0.00187707 0 552.706 552.706 1001.31 
28 1 1 0.115996 0.00881348 0 0 0 0 0.0171387 0.0279279 0 0.20643 -0.0363016 0 0.0171387 0.0279279 0 554.576 554.576 1001.32 
29 1 1 0.132174 0.0157162 0 0 0 0 -0.0521535 -0.0262186 0 0.151979 -0.0479882 0 -0.0521535 -0.0262186 0 537.64 537.64 1001.28 
30 1 1 0.146221 0.0270086 0 0 0 0 -0.0348695 0.0163108 0 0.0497243 -0.0201181 0 -0.0348695 0.0163108 0 422.518 422.518 1001 
31 1 1 0.0150429 0.0138885 0 0 0 0 0.0248302 -6.83874e-05 0 0.0485895 0.11041 0 0.0248302 -6.83874e-05 0 664.057 664.057 1001.57 
32 1 1 0.0287205 0.0248969 0 0 0 0 -0.0287675 0.00606258 0 0.011006 -0.0440461 0 -0.0287675 0.00606258 0 598.98 598.98 1001.42 
33 1 1 0.0502553 0.039814 0 0 0 0 -0.0989435 0.0133016 0 0.114784 -0.0675225 0 -0.0989435 0.0133016 0 444.416 444.416 1001.05 
34 1 1 0.0607174 0.0233825 0 0 0 0 -0.0451369 0.0167026 0 0.077495 -0.132703 0 -0.0451369 0.0167026 0 568.011 568.011 1001.35 
35 1 1 0.0856625 0.0246148 0 0 0 0 -0.0320665 0.041575 0 0.0692293 0.0297413 0 -0.0320665 0.041575 0 544.2 544.2 1001.29 
36 1 1 0.092977 0.0298924 0 0 0 0 -0.0319986 0.0353045 0 0.111847 0.0470576 0 -0.0319986 0.0353045 0 512.285 512.285 1001.22 
37 1 1 0.114687 0.0176338 0 0 0 0 -0.0725221 0.012259 0 0.0058802 0.025013 0 -0.0725221 0.012259 0 535.639 535.639 1001.27 
38 1 1 0.123044 0.0173183 0 0 0 0 -0.0302716 0.0200943 0 0.133085 0.11018 0 -0.0302716 0.0200943 0 537.698 537.698 1001.28 
39 1 1 0.138336 0.0328342 0 0 0 0 -0.0469698 0.0281384 0 0.12554 0.0608478 0 -0.0469698 0.0281384 0 351.702 351.702 1000.84 
40 1 1 0.111336 0.0475412 0 0 0 0 -0.0692843 0.00967538 0 0.131112 -0.113478 0 -0.0692843 0.00967538 0 336.741 336.741 1000.8 
41 1 1 0.00774557 0.0193529 0 0 0 0 0.00540627 -0.0428966 0 -0.0165396 0.0110506 0 0.00540627 -0.0428966 0 602.883 602.883 1001.43 
42 1 1 0.0246892 0.0580219 0 0 0 0 -0.0642326 -0.0158487 0 -0.0411353 -0.0982623 0 -0.0642326 -0.0158487 0 350.203 350.203 1000.83 
43 1 1 0.0354551 0.029976 0 0 0 0 -0.0596244 0.038948 0 0.0657111 0.0383649 0 -0.0596244 0.038948 0 545.929 545.929 1001.29 
44 1 1 0.0445149 0.0603036 0 0 0 0 -0.0611677 0.00916681 0 0.181887 -0.249857 0 -0.0611677 0.00916681 0 359.868 359.868 1000.85 
45 1 1 0.0666238 0.0292932 0 0 0 0 -0.049765 -0.0285628 0 0.0965064 0.0875748 0 -0.049765 -0.0285628 0 551.009 551.009 1001.31 
46 1 1 0.0799029 0.0352242 0 0 0 0 -0.0563128 -0.00930456 0 0.22608 -0.0391416 0 -0.0563128 -0.00930456 0 451.112 451.112 1001.07 
47 1 1 0.110186 0.0286057 0 0 0 0 0.0125941 -0.00161818 0 0.0997718 -0.0318933 0 0.0125941 -0.00161818 0 457.141 457.141 1001.08 
48 1 1 0.12812 0.0281659 0 0 0 0 -0.015025 0.0163528 0 0.142806 0.0214437 0 -0.015025 0.0163528 0 474.107 474.107 1001.13 
49 1 1 0.130615 0.0384925 0 0 0 0 -0.0788342 0.0383363 0 0.0634876 0.0962136 0 -0.0788342 0.0383363 0 337.688 337.688 1000.8 
50 1 1 0.0990228 0.0611758 0 0 0 0 -0.0446787 0.0246842 0 0.167797 -0.139489 0 -0.0446787 0.0246842 0 279.686 279.686 1000.66 
51 1 1 0.00894969 0.0315854 0 0 0 0 -0.0110264 0.00151278 0 0.00590696 -0.0453992 0 -0.0110264 0.00151278 0 557.404 557.404 1001.32 
52 1 1 0.0279103 0.038714 0 0 0 0 -0.0425065 0.0453831 0 0.0419837 -0.113199 0 -0.0425065 0.0453831 0 476.783 476.783 1001.13 
53 1 1 0.0445707 0.0302586 0 0 0 0 -0.0352058 -0.0449385 0 0.109455 0.020265 0 -0.0352058 -0.0449385 0 566.625 566.625 1001.34 
54 1 1 0.060662 0.0396041 0 0 0 0 -0.0622488 0.012847 0 0.0870129 -0.0966939 0 -0.0622488 0.012847 0 414.551 414.551 1000.98 
55 1 1 0.0659999 0.0476743 0 0 0 0 -0.0470363 -0.00422616 0 0.0995544 -0.129969 0 -0.0470363 -0.00422616 0 363.934 363.934 1000.86 
56 1 1 0.0794103 0.0473772 0 0 0 0 -0.0598023 -0.0723595 0 0.0810896 -0.0866352 0 -0.0598023 -0.0723595 0 364.858 364.858 1000.87 
57 1 1 0.0986442 0.0390091 0 0 0 0 -0.0151713 0.00642505 0 0.194887 -0.0434065 0 -0.0151713 0.00642505 0 378.405 378.405 1000.9 
58 1 1 0.0899417 0.049471 0 0 0 0 -0.00911737 0.0165642 0 0.210841 -0.0383935 0 -0.00911737 0.0165642 0 312.61 312.61 1000.74 
59 1 1 0.119916 0.0384201 0 0 0 0 -0.0532349 0.0503387 0 0.148081 0.0434753 0 -0.0532349 0.0503387 0 331.483 331.483 1000.79 
60 1 1 0.120621 0.0493687 0 0 0 0 -0.0903955 0.0708748 0 0.15737 0.035377 0 -0.0903955 0.0708748 0 274.835 274.835 1000.65 
61 1 1 0.0386754 0.0405247 0 0 0 0 0.0162106 -0.020275 0 0.0461819 -0.0951281 0 0.0162106 -0.020275 0 444.033 444.033 1001.05 
62 1 1 0.0140928 0.0380624 0 0 0 0 -0.0383182 -0.0209388 0 0.00607609 0.088077 0 -0.0383182 -0.0209388 0 477.328 477.328 1001.13 
63 1 1 0.0511116 0.0180568 0 0 0 0 0.00785171 -0.0208896 0 0.0448991 -0.00658545 0 0.00785171 -0.0208896 0 608.711 608.711 1001.44 
64 1 1 0.0368162 0.0609461 0 0 0 0 -0.0576321 0.0483846 0 -0.0858956 -0.180647 0 -0.0576321 0.0483846 0 348.698 348.698 1000.83 
65 1 1 0.0585672 0.0562018 0 0 0 0 -0.0493445 0.0057515 0 0.0622626 -0.144332 0 -0.0493445 0.0057515 0 325.384 325.384 1000.77 
66 1 1 0.0818877 0.0161485 0 0 0 0 0.0478211 -0.0100378 0 0.107407 0.0513114 0 0.0478211 -0.0100378 0 623.339 623.339 1001.48 
67 1 1 0.0879166 0.0391927 0 0 0 0 -0.0520856 0.0203503 0 0.119443 -0.00869506 0 -0.0520856 0.0203503 0 382.346 382.346 1000.91 
68 1 1 0.108018 0.037853 0 0 0 0 -0.0288627 -0.0274976 0 0.181236 -0.013341 0 -0.0288627 -0.0274976 0 405.087 405.087 1000.96 
69 1 1 0.119152 0.0290792 0 0 0 0 -0.000486384 0.00321593 0 0.156112 -0.0169767 0 -0.000486384 0.00321593 0 447.754 447.754 1001.06 
70 1 1 0.0992112 0.0717271 0 0 0 0 0.0831629 -0.0104983 0 0.120042 0.0632786 0 0.0831629 -0.0104983 0 157.001 157.001 1000.37 
71 1 1 0.0138207 0.0545678 0 0 0 0 -0.0721941 0.0752601 0 -0.0305524 0.190889 0 -0.0721941 0.0752601 0 349.766 349.766 1000.83 
72 1 1 0.0248082 0.080248 0 0 0 0 -0.0165921 0.0651594 0 -0.0136786 -0.117859 0 -0.0165921 0.0651594 0 313.069 313.069 1000.74 
73 1 1 0.0218546 0.0472132 0 0 0 0 -0.0141931 0.0309451 0 0.0267813 -0.186402 0 -0.0141931 0.0309451 0 432.575 432.575 1001.03 
74 1 1 0.0425269 0.0487276 0 0 0 0 -0.0587434 0.0575454 0 0.056546 0.0203282 0 -0.0587434 0.0575454 0 370.119 370.119 1000.88 
75 1 1 0.0530444 0.0639836 0 0 0 0 -0.0451135 0.0195672 0 0.166078 -0.0274914 0 -0.0451135 0.0195672 0 245.765 245.765 1000.58 
76 1 1 0.0752634 0.0264 0 0 0 0 -0.0460498 -0.0691503 0 0.146727 -0.13334 0 -0.0460498 -0.0691503 0 542.505 542.505 1001.29 
77 1 1 0.0714817 0.0394153 0 0 0 0 -0.0719031 -0.0595166 0 0.0831727 0.0219403 0 -0.0719031 -0.0595166 0 458.177 458.177 1001.09 
78 1 1 0.0894166 0.0609903 0 0 0 0 -0.0556699 -0.0222396 0 0.176171 -0.0497352 0 -0.0556699 -0.0222396 0 254.919 254.919 1000.61 
79 1 1 0.0995762 0.0484841 0 0 0 0 -0.0401675 0.0278053 0 0.133583 0.0664824 0 -0.0401675 0.0278053 0 330.684 330.684 1000.79 
80 1 1 0.0755622 0.0841306 0 0 0 0 0.0235895 -0.0992473 0 0.235349 -0.0447871 0 0.0235895 -0.0992473 0 178.397 178.397 1000.42 
81 1 1 0.0102162 0.0476334 0 0 0 0 0.0173265 0.0303066 0 0.112268 -0.212165 0 0.0173265 0.0303066 0 410.341 410.341 1000.97 
82 1 1 0.0125212 0.0664127 0 0 0 0 0.0148378 0.0620547 0 -0.00246923 -0.474315 0 0.0148378 0.0620547 0 319.952 319.952 1000.76 
83 1 1 0.0317899 0.0489644 0 0 0 0 -0.025919 0.0300694 0 0.126367 0.0424869 0 -0.025919 0.0300694 0 407.922 407.922 1000.97 
84 1 1 0.0284819 0.0664599 0 0 0 0 -0.0618363 0.0522543 0 0.0649748 0.103644 0 -0.0618363 0.0522543 0 318.144 318.144 1000.76 
85 1 1 0.0443529 0.0731397 0 0 0 0 -0.036011 -0.00645806 0 0.0273493 -0.195252 0 -0.036011 -0.00645806 0 208.701 208.701 1000.5 
86 1 1 0.0628272 0.0679379 0 0 0 0 -0.0339162 -0.0513234 0 0.123216 -0.159414 0 -0.0339162 -0.0513234 0 259.694 259.694 1000.62 
87 1 1 0.069515 0.0565304 0 0 0 0 -0.0102967 -0.0303238 0 0.214693 0.0392602 0 -0.0102967 -0.0303238 0 332.442 332.442 1000.79 
88 1 1 0.0729423 0.0689721 0 0 0 0 -0.0343235 -0.0126054 0 0.10895 -0.177322 0 -0.0343235 -0.0126054 0 205.542 205.542 1000.49 
89 1 1 0.0796351 0.0567869 0 0 0 0 -0.0452375 -0.0407009 0 0.121721 -0.0650652 0 -0.0452375 -0.0407009 0 290.561 290.561 1000.69 
90 1 1 0.0817343 0.0694575 0 0 0 0 -0.0413444 -0.027393 0 0.242105 -0.0730134 0 -0.0413444 -0.027393 0 214.551 214.551 1000.51 
91 1 1 0.0192607 0.0951086 0 0 0 0 0.0945367 0.0894746 0 -0.0934016 -0.321113 0 0.0945367 0.0894746 0 88.2821 88.2821 1000.21 
92 1 1 0.0148191 0.0838221 0 0 0 0 -0.013744 0.117072 0 -0.0608678 -0.192684 0 -0.013744 0.117072 0 161.686 161.686 1000.38 
93 1 1 0.0164876 0.0705261 0 0 0 0 -0.00316836 0.120363 0 0.106028 -0.00698035 0 -0.00316836 0.120363 0 268.77 268.77 1000.64 
94 1 1 0.0370249 0.087916 0 0 0 0 0.0666346 0.0221762 0 0.0976631 -0.140942 0 0.0666346 0.0221762 0 111.519 111.519 1000.27 
95 1 1 0.0296891 0.0984319 0 0 0 0 0.0884689 0.0606423 0 0.127909 -0.420705 0 0.0884689 0.0606423 0 73.5563 73.5563 1000.18 
96 1 1 0.0496253 0.0939634 0 0 0 0 0.0344668 -0.0207831 0 -0.0869514 -0.239615 0 0.0344668 -0.0207831 0 236.281 236.281 1000.56 
97 1 1 0.0351424 0.0777503 0 0 0 0 -0.0646547 7.44617e-05 0 0.199189 -0.364131 0 -0.0646547 7.44617e-05 0 232.108 232.108 1000.55 
98 1 1 0.0517007 0.0784239 0 0 0 0 -0.0410582 0.0760915 0 0.136559 -0.0446471 0 -0.0410582 0.0760915 0 239.636 239.636 1000.57 
99 1 1 0.0635136 0.0790818 0 0 0 0 -0.118352 -0.0312022 0 0.176501 -0.0322396 0 -0.118352 -0.0312022 0 202.062 202.062 1000.48 
100 1 1 0.0616879 0.0929227 0 0 0 0 0.10142 -0.0297234 0 0.313586 -0.476225 0 0.10142 -0.0297234 0 33.8765 33.8765 1000.08 
101 1 1 0.153916 0.0166629 0 0 0 0 -0.0568435 -0.0290884 0 0.106904 -0.0306318 0 -0.0568435 -0.0290884 0 508.583 508.583 1001.21 
102 1 1 0.16324 0.014137 0 0 0 0 -0.0545243 0.016795 0 0.0893126 0.0725877 0 -0.0545243 0.016795 0 506.196 506.196 1001.2 
103 1 1 0.16582 0.0240816 0 0 0 0 -0.0446001 -0.0136226 0 0.0854582 -0.0298014 0 -0.0446001 -0.0136226 0 414.383 414.383 1000.98 
104 1 1 0.167043 0.00659236 0 0 0 0 -0.0427693 -0.00448975 0 0.0838431 -0.0180294 0 -0.0427693 -0.00448975 0 553.127 553.127 1001.31 
105 1 1 0.176174 0.0120549 0 0 0 0 -0.0452289 -0.0260042 0 0.0921322 -0.0204157 0 -0.0452289 -0.0260042 0 525.613 525.613 1001.25 
106 1 1 0.184416 0.00616306 0 0 0 0 -0.020449 -3.20406e-05 0 0.0521154 0.0393383 0 -0.020449 -3.20406e-05 0 552.209 552.209 1001.31 
107 1 1 0.190177 0.0143052 0 0 0 0 0.00463537 -0.0237523 0 0.0720721 0.0463263 0 0.00463537 -0.0237523 0 500.726 500.726 1001.19 
108 1 1 0.19834 0.00658602 0 0 0 0 -0.000217897 -0.00213272 0 0.0866473 -0.0190642 0 -0.000217897 -0.00213272 0 525.615 525.615 1001.25 
109 1 1 0.199992 0.0177301 0 0 0 0 -0.00292918 0.0267835 0 0.0530396 0.027663 0 -0.00292918 0.0267835 0 452.272 452.272 1001.07 
110 1 1 0.207011 0.0123463 0 0 0 0 -0.0173212 -0.000837967 0 -0.00317296 0.0329878 0 -0.0173212 -0.000837967 0 481.96 481.96 1001.14 
111 1 1 0.214674 0.006264 0 0 0 0 -0.00140393 -0.0082605 0 0.0511841 -0.00220634 0 -0.00140393 -0.0082605 0 527.22 527.22 1001.25 
112 1 1 0.227411 0.00730786 0 0 0 0 0.0214704 -0.00580845 0 0.0192277 0.0118754 0 0.0214704 -0.00580845 0 504.954 504.954 1001.2 
113 1 1 0.23892 0.0078031 0 0 0 0 0.0243844 -0.00355341 0 -0.00537212 0.0224567 0 0.0243844 -0.00355341 0 519.145 519.145 1001.23 
114 1 1 0.248934 0.00840073 0 0 0 0 0.0131162 0.0123526 0 0.0194949 -0.011383 0 0.0131162 0.0123526 0 508.201 508.201 1001.21 
115 1 1 0.251067 0.0164381 0 0 0 0 0.000177169 0.0307726 0 0.00793206 0.0241768 0 0.000177169 0.0307726 0 464.831 464.831 1001.1 
116 1 1 0.26008 0.00687689 0 0 0 0 -0.0170362 0.00853963 0 0.0232764 0.00537199 0 -0.0170362 0.00853963 0 513.761 513.761 1001.22 
117 1 1 0.269726 0.00944231 0 0 0 0 -0.019528 -0.0114491 0 0.0416379 -0.00967485 0 -0.019528 -0.0114491 0 502.945 502.945 1001.19 
118 1 1 0.280351 0.00724373 0 0 0 0 -0.00569334 -0.00291835 0 0.050424 0.0188918 0 -0.00569334 -0.00291835 0 507.978 507.978 1001.21 
119 1 1 0.292446 0.00674138 0 0 0 0 -0.00893918 0.00171472 0 0.0221044 0.0107947 0 -0.00893918 0.00171472 0 498.826 498.826 1001.18 
120 1 1 0.296732 0.0171147 0 0 0 0 0.0125662 -0.0079487 0 0.0298212 0.0253862 0 0.0125662 -0.0079487 0 424.901 424.901 1001.01 
121 1 1 0.303357 0.00910705 0 0 0 0 -0.00114826 -0.00876337 0 0.0119568 0.00235038 0 -0.00114826 -0.00876337 0 467.287 467.287 1001.11 
122 1 1 0.31433 0.00606007 0 0 0 0 -0.00256904 -0.00288245 0 0.0300258 -0.00122064 0 -0.00256904 -0.00288245 0 492.149 492.149 1001.17 
123 1 1 0.323514 0.0122273 0 0 0 0 0.0209437 0.0197895 0 0.0743606 0.0263627 0 0.0209437 0.0197895 0 463.723 463.723 1001.1 
124 1 1 0.331305 0.00638303 0 0 0 0 -0.0330145 0.00491327 0 0.0231132 0.0254634 0 -0.0330145 0.00491327 0 493.55 493.55 1001.17 
125 1 1 0.343259 0.00794875 0 0 0 0 -0.0342569 0.00363812 0 0.0382969 -0.0222843 0 -0.0342569 0.00363812 0 445.243 445.243 1001.06 
126 1 1 0.350009 0.0154506 0 0 0 0 0.0103139 -0.0103281 0 0.0283346 0.0124233 0 0.0103139 -0.0103281 0 393.465 393.465 1000.93 
127 1 1 0.355275 0.00669667 0 0 0 0 -0.0196989 -0.0195271 0 0.0473099 0.0291947 0 -0.0196989 -0.0195271 0 470.288 470.288 1001.12 
128 1 1 0.367983 0.00736121 0 0 0 0 0.00928443 -0.00457648 0 0.0497835 -0.0265484 0 0.00928443 -0.00457648 0 436.365 436.365 1001.04 
129 1 1 0.393092 0.00632197 0 0 0 0 0.0125594 -0.00158791 0 0.0577359 0.0158929 0 0.0125594 -0.00158791 0 445.868 445.868 1001.06 
130 1 1 0.407928 0.00695167 0 0 0 0 0.0134896 0.00928359 0 -0.00352607 0.0299674 0 0.0134896 0.00928359 0 452.132 452.132 1001.07 
131 1 1 0.419778 0.00726299 0 0 0 0 -0.00612895 -0.00418253 0 0.00368055 0.0198529 0 -0.00612895 -0.00418253 0 435.866 435.866 1001.03 
132 1 1 0.412107 0.0171991 0 0 0 0 0.0234875 0.0297254 0 -0.0134938 0.0340982 0 0.0234875 0.0297254 0 360.657 360.657 1000.86 
133 1 1 0.429945 0.00882851 0 0 0 0 0.00157312 0.00173296 0 -0.00198425 -0.0275774 0 0.00157312 0.00173296 0 419.556 419.556 1001 
134 1 1 0.440793 0.0187242 0 0 0 0 -0.0145786 0.00712114 0 -0.00382659 -0.0561348 0 -0.0145786 0.00712114 0 346.175 346.175 1000.82 
135 1 1 0.440037 0.00697302 0 0 0 0 -0.00153635 -0.0015966 0 0.00744451 0.0138337 0 -0.00153635 -0.0015966 0 427.911 427.911 1001.02 
136 1 1 0.44905 0.0095839 0 0 0 0 0.00433089 -0.00507431 0 0.0656319 -0.0215408 0 0.00433089 -0.00507431 0 431.262 431.262 1001.02 
137 1 1 0.460651 0.00553827 0 0 0 0 0.00965075 -0.00491515 0 -0.00955932 0.0429424 0 0.00965075 -0.00491515 0 454.932 454.932 1001.08 
138 1 1 0.479272 0.00643122 0 0 0 0 0.0232856 0.00201693 0 -0.0247628 0.0311925 0 0.0232856 0.00201693 0 434.47 434.47 1001.03 
139 1 1 0.491573 0.00643344 0 0 0 0 0.000860428 0.00597692 0 0.015898 -0.00120703 0 0.000860428 0.00597692 0 448.081 448.081 1001.06 
140 1 1 0.149543 0.0358626 0 0 0 0 -0.0465517 0.00856341 0 0.162854 0.0232417 0 -0.0465517 0.00856341 0 364.395 364.395 1000.87 
141 1 1 0.156293 0.0254322 0 0 0 0 -0.0423175 0.00358627 0 0.098448 0.0830136 0 -0.0423175 0.00358627 0 425.722 425.722 1001.01 
142 1 1 0.174906 0.0452626 0 0 0 0 -0.0621214 -0.0278735 0 0.0560026 0.020203 0 -0.0621214 -0.0278735 0 243.002 243.002 1000.58 
143 1 1 0.174278 0.0294865 0 0 0 0 -0.00731117 -0.03141 0 0.055299 0.08862 0 -0.00731117 -0.03141 0 356.84 356.84 1000.85 
144 1 1 0.183089 0.0299792 0 0 0 0 -0.0699891 -0.0152747 0 0.0970123 0.0571278 0 -0.0699891 -0.0152747 0 387.059 387.059 1000.92 
145 1 1 0.175358 0.0189714 0 0 0 0 -0.0404326 -0.0147682 0 0.0215259 0.0696631 0 -0.0404326 -0.0147682 0 479.971 479.971 1001.14 
146 1 1 0.192417 0.0368489 0 0 0 0 -0.0430733 -0.0286384 0 0.130852 0.0341414 0 -0.0430733 -0.0286384 0 276.038 276.038 1000.66 
147 1 1 0.186594 0.0210212 0 0 0 0 -0.0426962 -0.0541921 0 0.0397237 -0.043749 0 -0.0426962 -0.0541921 0 424.341 424.341 1001.01 
148 1 1 0.195767 0.0267975 0 0 0 0 -0.0664528 -0.0180911 0 -0.0642109 0.0438801 0 -0.0664528 -0.0180911 0 377.946 377.946 1000.9 
149 1 1 0.211155 0.0214833 0 0 0 0 0.0105731 -0.0117312 0 -0.00380962 0.013628 0 0.0105731 -0.0117312 0 415.641 415.641 1000.99 
150 1 1 0.228759 0.0336538 0 0 0 0 -0.0455178 0.000827708 0 0.0283939 0.0153695 0 -0.0455178 0.000827708 0 324.99 324.99 1000.77 
151 1 1 0.218788 0.0160697 0 0 0 0 -0.0123236 -0.0204616 0 0.0565558 0.00413369 0 -0.0123236 -0.0204616 0 480.994 480.994 1001.14 
152 1 1 0.221224 0.0263394 0 0 0 0 -0.0142108 -0.013412 0 -0.00639973 0.0129336 0 -0.0142108 -0.013412 0 357.802 357.802 1000.85 
153 1 1 0.227969 0.0161692 0 0 0 0 -0.00970874 -0.006212 0 -0.000164864 0.057017 0 -0.00970874 -0.006212 0 455.011 455.011 1001.08 
154 1 1 0.261507 0.0173966 0 0 0 0 -0.00797239 0.0114171 0 0.0311696 -0.0264917 0 -0.00797239 0.0114171 0 437.015 437.015 1001.04 
155 1 1 0.277838 0.0162024 0 0 0 0 -0.00625046 -0.0122326 0 -0.0030247 0.0505676 0 -0.00625046 -0.0122326 0 465.827 465.827 1001.11 
156 1 1 0.268285 0.0215341 0 0 0 0 0.0338409 -0.00979401 0 -0.00677362 -0.0348067 0 0.0338409 -0.00979401 0 413.101 413.101 1000.98 
157 1 1 0.288314 0.0166649 0 0 0 0 0.0145722 0.000354107 0 0.0127327 -0.00882407 0 0.0145722 0.000354107 0 438.71 438.71 1001.04 
158 1 1 0.280483 0.0253829 0 0 0 0 0.0273529 -0.0257956 0 0.0480468 0.0352086 0 0.0273529 -0.0257956 0 367.506 367.506 1000.87 
159 1 1 0.302815 0.0258087 0 0 0 0 0.0180486 -0.00198207 0 0.0475714 -0.0407775 0 0.0180486 -0.00198207 0 357.962 357.962 1000.85 
160 1 1 0.307909 0.017338 0 0 0 0 0.0154019 0.0100488 0 0.0413497 -0.0112483 0 0.0154019 0.0100488 0 409.907 409.907 1000.97 
161 1 1 0.316307 0.0174142 0 0 0 0 0.00576411 -0.020714 0 0.0081986 -0.0178288 0 0.00576411 -0.020714 0 430.961 430.961 1001.02 
162 1 1 0.329259 0.0215833 0 0 0 0 0.0204955 0.0363309 0 0.0609715 0.0390981 0 0.0204955 0.0363309 0 389.875 389.875 1000.93 
163 1 1 0.335654 0.0157782 0 0 0 0 0.0174758 -0.00318058 0 0.0824049 -0.0208993 0 0.0174758 -0.00318058 0 414.611 414.611 1000.98 
164 1 1 0.353896 0.0239149 0 0 0 0 0.00735229 0.0194157 0 0.0853918 0.000979057 0 0.00735229 0.0194157 0 328.599 328.599 1000.78 
165 1 1 0.379986 0.00728592 0 0 0 0 0.0217871 -0.00222941 0 0.0963533 0.00247226 0 0.0217871 -0.00222941 0 455.235 455.235 1001.08 
166 1 1 0.361802 0.0150474 0 0 0 0 -0.019873 -0.0104545 0 0.074096 -0.0219609 0 -0.019873 -0.0104545 0 407.518 407.518 1000.97 
167 1 1 0.376259 0.0236445 0 0 0 0 -0.00479406 -0.0132485 0 0.0487991 0.0522249 0 -0.00479406 -0.0132485 0 353.969 353.969 1000.84 
168 1 1 0.401852 0.0135269 0 0 0 0 0.0314039 -0.0121763 0 -0.0205263 0.0225388 0 0.0314039 -0.0121763 0 402.263 402.263 1000.96 
169 1 1 0.385329 0.0271138 0 0 0 0 -0.0218575 -0.0052031 0 0.0299835 0.00130479 0 -0.0218575 -0.0052031 0 301.404 301.404 1000.72 
170 1 1 0.387079 0.0151118 0 0 0 0 0.0114434 0.0119754 0 0.00387896 0.0539861 0 0.0114434 0.0119754 0 388.463 388.463 1000.92 
171 1 1 0.39385 0.0191814 0 0 0 0 0.00247875 -0.0173567 0 -0.0118283 0.0413274 0 0.00247875 -0.0173567 0 347.59 347.59 1000.83 
172 1 1 0.421021 0.0170464 0 0 0 0 0.0112428 0.00339736 0 -0.0242802 -0.0165695 0 0.0112428 0.00339736 0 370.782 370.782 1000.88 
173 1 1 0.432263 0.0178191 0 0 0 0 -0.00862284 -0.00117004 0 -0.00678665 -0.00205707 0 -0.00862284 -0.00117004 0 372.395 372.395 1000.88 
174 1 1 0.459885 0.0151978 0 0 0 0 0.0197198 0.0045621 0 -0.00507737 0.0611005 0 0.0197198 0.0045621 0 380.326 380.326 1000.9 
175 1 1 0.463172 0.0231619 0 0 0 0 -0.0154516 0.0143162 0 -0.00357973 -0.00686393 0 -0.0154516 0.0143162 0 327.558 327.558 1000.78 
176 1 1 0.470671 0.0112331 0 0 0 0 0.0113877 -0.0113468 0 -0.00675705 -0.0441397 0 0.0113877 -0.0113468 0 423.337 423.337 1001 
177 1 1 0.482975 0.0165896 0 0 0 0 -0.00622193 0.0214431 0 -0.00980618 -0.0477324 0 -0.00622193 0.0214431 0 368.352 368.352 1000.87 
178 1 1 0.490807 0.0174004 0 0 0 0 -0.00193462 -0.0082635 0 -0.0106579 0.0365998 0 -0.00193462 -0.0082635 0 363.79 363.79 1000.86 
179 1 1 0.137835 0.045171 0 0 0 0 -0.0760251 0.03731 0 0.158112 0.0302264 0 -0.0760251 0.03731 0 254.373 254.373 1000.6 
180 1 1 0.161641 0.0343983 0 0 0 0 -0.0446765 -0.0236271 0 0.048576 0.038402 0 -0.0446765 -0.0236271 0 352.088 352.088 1000.84 
181 1 1 0.158874 0.0435054 0 0 0 0 -0.0482044 -0.0022016 0 0.0807336 0.136586 0 -0.0482044 -0.0022016 0 244.492 244.492 1000.58 
182 1 1 0.170398 0.0383554 0 0 0 0 -0.0829131 0.0102942 0 0.106284 -0.00228805 0 -0.0829131 0.0102942 0 269.47 269.47 1000.64 
183 1 1 0.175435 0.0520493 0 0 0 0 -0.0443218 -0.0143532 0 0.0709912 0.0969869 0 -0.0443218 -0.0143532 0 158.121 158.121 1000.38 
184 1 1 0.160339 0.0507185 0 0 0 0 -0.0460899 0.00266289 0 0.175224 0.087686 0 -0.0460899 0.00266289 0 150.334 150.334 1000.36 
185 1 1 0.185133 0.0400143 0 0 0 0 -0.0553206 -0.0317719 0 0.0197608 0.106112 0 -0.0553206 -0.0317719 0 261.1 261.1 1000.62 
186 1 1 0.203618 0.0295322 0 0 0 0 -0.0464699 -0.0242247 0 0.0499065 0.013296 0 -0.0464699 -0.0242247 0 345.588 345.588 1000.82 
187 1 1 0.214057 0.0321773 0 0 0 0 -0.0635654 -0.00535892 0 0.0482004 0.00869542 0 -0.0635654 -0.00535892 0 301.391 301.391 1000.72 
188 1 1 0.222076 0.0406822 0 0 0 0 -0.0294771 -0.0295298 0 -0.0120684 0.00171727 0 -0.0294771 -0.0295298 0 268.739 268.739 1000.64 
189 1 1 0.240931 0.0334292 0 0 0 0 -0.0359951 -0.00509274 0 -0.028477 0.0318186 0 -0.0359951 -0.00509274 0 327.241 327.241 1000.78 
190 1 1 0.237759 0.0173477 0 0 0 0 -0.0113778 -0.00702535 0 0.092874 -0.0588413 0 -0.0113778 -0.00702535 0 464.01 464.01 1001.1 
191 1 1 0.249986 0.0351285 0 0 0 0 -0.0417268 -0.0116436 0 0.0155468 -0.0136502 0 -0.0417268 -0.0116436 0 307.579 307.579 1000.73 
192 1 1 0.245118 0.0232975 0 0 0 0 -0.0283465 -0.00562378 0 0.0144265 0.0630541 0 -0.0283465 -0.00562378 0 423.328 423.328 1001 
193 1 1 0.271981 0.0303511 0 0 0 0 0.00516737 -0.00515884 0 0.0306237 -0.0132849 0 0.00516737 -0.00515884 0 322.948 322.948 1000.77 
194 1 1 0.257474 0.0435858 0 0 0 0 -0.00648864 -0.0286218 0 -0.0299677 0.00276578 0 -0.00648864 -0.0286218 0 232.117 232.117 1000.55 
195 1 1 0.281713 0.0365375 0 0 0 0 -0.00285918 -0.0158798 0 0.0599726 -0.0171228 0 -0.00285918 -0.0158798 0 297.979 297.979 1000.71 
196 1 1 0.289991 0.0272067 0 0 0 0 0.0321146 -0.00181104 0 0.0708371 0.0051382 0 0.0321146 -0.00181104 0 352.481 352.481 1000.84 
197 1 1 0.298404 0.032918 0 0 0 0 0.0389469 0.0114043 0 0.0614308 0.0508389 0 0.0389469 0.0114043 0 285.551 285.551 1000.68 
198 1 1 0.311512 0.0308279 0 0 0 0 0.0298452 -0.00835367 0 0.00547814 -0.0255357 0 0.0298452 -0.00835367 0 321.708 321.708 1000.76 
199 1 1 0.323786 0.0339092 0 0 0 0 0.0143729 0.0193195 0 0.0520437 -0.0228874 0 0.0143729 0.0193195 0 299.076 299.076 1000.71 
200 1 1 0.319936 0.0262607 0 0 0 0 0.0277769 -0.0100704 0 0.0685624 -0.035711 0 0.0277769 -0.0100704 0 356.608 356.608 1000.85 
201 1 1 0.342612 0.0213135 0 0 0 0 0.0301 0.00656943 0 0.118488 -0.00785458 0 0.0301 0.00656943 0 370.648 370.648 1000.88 
202 1 1 0.331179 0.0382466 0 0 0 0 0.000511736 0.0336203 0 0.080969 0.0223579 0 0.000511736 0.0336203 0 231.033 231.033 1000.55 
203 1 1 0.346512 0.0324487 0 0 0 0 -0.0110346 0.0149504 0 0.0316927 0.0149455 0 -0.0110346 0.0149504 0 257.912 257.912 1000.61 
204 1 1 0.354837 0.0348816 0 0 0 0 -0.00873488 0.022588 0 0.0116193 0.0109192 0 -0.00873488 0.022588 0 243.643 243.643 1000.58 
205 1 1 0.375354 0.0155532 0 0 0 0 -0.00436242 -0.0197849 0 0.0158246 -0.00258249 0 -0.00436242 -0.0197849 0 425.081 425.081 1001.01 
206 1 1 0.365069 0.0221003 0 0 0 0 0.00223416 -0.0264081 0 0.0509447 0.036231 0 0.00223416 -0.0264081 0 364.901 364.901 1000.87 
207 1 1 0.402245 0.0334531 0 0 0 0 -0.0467723 -0.0176122 0 0.0579862 0.0811094 0 -0.0467723 -0.0176122 0 258.802 258.802 1000.62 
208 1 1 0.42158 0.0258641 0 0 0 0 0.00143472 0.0171642 0 0.0477308 0.0321181 0 0.00143472 0.0171642 0 295.589 295.589 1000.7 
209 1 1 0.403105 0.0237105 0 0 0 0 -0.0033199 -0.00764485 0 0.0320732 0.0244979 0 -0.0033199 -0.00764485 0 331.072 331.072 1000.79 
210 1 1 0.431761 0.0278598 0 0 0 0 -0.00776289 0.0173708 0 -0.0189019 0.000620157 0 -0.00776289 0.0173708 0 282.493 282.493 1000.67 
211 1 1 0.412579 0.0291968 0 0 0 0 -0.0147879 0.0211988 0 -0.0741212 -0.0205271 0 -0.0147879 0.0211988 0 272.388 272.388 1000.65 
212 1 1 0.443975 0.0281933 0 0 0 0 -0.00863155 -0.00392888 0 -0.0294214 -0.0188324 0 -0.00863155 -0.00392888 0 308.218 308.218 1000.73 
213 1 1 0.450944 0.0185867 0 0 0 0 -0.00612207 -0.0371611 0 -0.0306128 0.0757109 0 -0.00612207 -0.0371611 0 377.551 377.551 1000.9 
214 1 1 0.466165 0.0312958 0 0 0 0 -0.0175481 0.000133279 0 0.00185232 0.0545713 0 -0.0175481 0.000133279 0 262.779 262.779 1000.62 
215 1 1 0.479039 0.0277077 0 0 0 0 -0.00605209 -0.0119675 0 0.0292849 -0.0826039 0 -0.00605209 -0.0119675 0 305.462 305.462 1000.73 
216 1 1 0.47318 0.0188657 0 0 0 0 -0.0201626 -0.00450722 0 -0.0177299 0.0527395 0 -0.0201626 -0.00450722 0 373.425 373.425 1000.89 
217 1 1 0.48938 0.0274936 0 0 0 0 0.00607468 0.00579509 0 0.0539192 0.0354554 0 0.00607468 0.00579509 0 272.901 272.901 1000.65 
218 1 1 0.133111 0.0584058 0 0 0 0 -0.0160192 0.017689 0 0.244823 0.0587057 0 -0.0160192 0.017689 0 166.221 166.221 1000.4 
219 1 1 0.109425 0.0572646 0 0 0 0 -0.027588 0.0455983 0 0.248382 0.0110703 0 -0.027588 0.0455983 0 282.449 282.449 1000.67 
220 1 1 0.127993 0.0513245 0 0 0 0 -0.0548744 0.00412234 0 0.181505 0.0156614 0 -0.0548744 0.00412234 0 270.53 270.53 1000.64 
221 1 1 0.146709 0.053962 0 0 0 0 -0.0678551 -0.00339534 0 0.145259 0.0156724 0 -0.0678551 -0.00339534 0 168.405 168.405 1000.4 
222 1 1 0.146674 0.0443606 0 0 0 0 -0.0461671 -0.0126762 0 0.121042 0.101139 0 -0.0461671 -0.0126762 0 224.019 224.019 1000.53 
223 1 1 0.198894 0.0461032 0 0 0 0 -0.0568325 -0.0118681 0 -0.0584461 0.0549641 0 -0.0568325 -0.0118681 0 223.081 223.081 1000.53 
224 1 1 0.205215 0.0387038 0 0 0 0 -0.0543504 -0.0152209 0 0.0298062 0.0227896 0 -0.0543504 -0.0152209 0 266.199 266.199 1000.63 
225 1 1 0.214764 0.0446457 0 0 0 0 -0.0378475 -0.0370784 0 -0.0833899 0.0527286 0 -0.0378475 -0.0370784 0 203.253 203.253 1000.48 
226 1 1 0.222526 0.0518985 0 0 0 0 -0.0675611 -0.0232172 0 -0.0333827 0.0112442 0 -0.0675611 -0.0232172 0 140.962 140.962 1000.34 
227 1 1 0.232988 0.026164 0 0 0 0 -0.0210974 0.000807442 0 0.0239266 -0.0381767 0 -0.0210974 0.000807442 0 379.796 379.796 1000.9 
228 1 1 0.233397 0.0434092 0 0 0 0 -0.0226821 0.0037899 0 -0.0293301 0.00122173 0 -0.0226821 0.0037899 0 198.482 198.482 1000.47 
229 1 1 0.244135 0.044221 0 0 0 0 -0.00889362 -0.00703818 0 0.0347929 0.00406451 0 -0.00889362 -0.00703818 0 244.118 244.118 1000.58 
230 1 1 0.256177 0.0264852 0 0 0 0 0.00970497 0.00651667 0 0.0363013 -0.00814152 0 0.00970497 0.00651667 0 402.824 402.824 1000.96 