ITEM: TIMESTEP
197000
ITEM: NUMBER OF ATOMS
754
ITEM: BOX BOUNDS ff ff pp
-0.021 0.521
-0.021 0.5
-0.001 0.001
ITEM: ATOMS id type type x y z ix iy iz vx vy vz fx fy fz vx vy vz p p rho 
1 1 1 0.0059907 0.00147683 0 0 0 0 -0.00478017 -0.0102953 0 0.00619437 0.00463148 0 -0.00478017 -0.0102953 0 463.377 463.377 1001.1 
2 1 1 0.0292445 0.00515486 0 0 0 0 -0.00731532 0.00200094 0 -0.00500108 -0.0135512 0 -0.00731532 0.00200094 0 415.924 415.924 1000.99 
3 1 1 0.0644223 0.00486445 0 0 0 0 0.0079604 -0.0115459 0 -0.00327238 0.0155977 0 0.0079604 -0.0115459 0 443.203 443.203 1001.05 
4 1 1 0.079663 0.00577798 0 0 0 0 0.00863763 0.0038857 0 -0.0364202 -0.00322818 0 0.00863763 0.0038857 0 421.338 421.338 1001 
5 1 1 0.095683 0.0045661 0 0 0 0 -0.0113925 0.00141499 0 -0.0190747 0.00381257 0 -0.0113925 0.00141499 0 458.557 458.557 1001.09 
6 1 1 0.11123 0.0061373 0 0 0 0 -0.0166672 -0.000129056 0 -0.0239138 0.0107167 0 -0.0166672 -0.000129056 0 450.64 450.64 1001.07 
7 1 1 0.153036 0.00576648 0 0 0 0 -0.0453178 0.00999814 0 -0.0278361 -0.025647 0 -0.0453178 0.00999814 0 454.738 454.738 1001.08 
8 1 1 0.131027 0.0135667 0 0 0 0 -0.0110285 0.00403363 0 -0.00784627 0.00260131 0 -0.0110285 0.00403363 0 431.632 431.632 1001.02 
9 1 1 0.186192 0.00545038 0 0 0 0 -0.0569428 -0.0133413 0 -0.0456444 -0.00882223 0 -0.0569428 -0.0133413 0 458.668 458.668 1001.09 
10 1 1 0.199329 0.00624049 0 0 0 0 -0.0361514 -0.00615701 0 -0.0298291 -0.0149972 0 -0.0361514 -0.00615701 0 476.269 476.269 1001.13 
11 1 1 0.0333548 0.0151696 0 0 0 0 0.0100977 -0.00274277 0 -0.00387968 0.0437263 0 0.0100977 -0.00274277 0 391.847 391.847 1000.93 
12 1 1 0.051314 0.00653841 0 0 0 0 -0.0086493 0.00124537 0 -0.017809 -0.00475552 0 -0.0086493 0.00124537 0 414.588 414.588 1000.98 
13 1 1 0.0720448 0.0125899 0 0 0 0 0.0120006 0.00125955 0 -0.0142903 0.0185362 0 0.0120006 0.00125955 0 393.036 393.036 1000.93 
14 1 1 0.0865098 0.0119362 0 0 0 0 0.00247081 0.0108881 0 -0.0195017 -0.00223329 0 0.00247081 0.0108881 0 402.119 402.119 1000.95 
15 1 1 0.105752 0.0129915 0 0 0 0 0.0061571 0.000197919 0 -0.0180829 0.0426456 0 0.0061571 0.000197919 0 432.798 432.798 1001.03 
16 1 1 0.139483 0.00597223 0 0 0 0 -0.0247662 -0.000900618 0 -0.0247202 0.0074488 0 -0.0247662 -0.000900618 0 461.474 461.474 1001.1 
17 1 1 0.154233 0.0199101 0 0 0 0 -0.00641965 0.00705134 0 -0.051272 -0.0251725 0 -0.00641965 0.00705134 0 399.945 399.945 1000.95 
18 1 1 0.166823 0.00554048 0 0 0 0 -0.0394906 -0.00529401 0 0.0229903 -0.0012097 0 -0.0394906 -0.00529401 0 476.227 476.227 1001.13 
19 1 1 0.195724 0.0147864 0 0 0 0 -0.0508969 -0.00781776 0 -0.0168274 0.0277611 0 -0.0508969 -0.00781776 0 428.654 428.654 1001.02 
20 1 1 0.188152 0.0167565 0 0 0 0 -0.0271137 0.00324702 0 0.00248864 -0.0229905 0 -0.0271137 0.00324702 0 429.49 429.49 1001.02 
21 1 1 0.0326689 0.0260001 0 0 0 0 -0.012227 0.0110679 0 -0.00948072 0.031937 0 -0.012227 0.0110679 0 316.193 316.193 1000.75 
22 1 1 0.0410192 0.00757138 0 0 0 0 -0.00824975 -0.00297858 0 -0.0166527 0.0107896 0 -0.00824975 -0.00297858 0 411.475 411.475 1000.98 
23 1 1 0.059628 0.0147084 0 0 0 0 0.00356361 -0.0108691 0 -0.0490783 -0.00666202 0 0.00356361 -0.0108691 0 382.362 382.362 1000.91 
24 1 1 0.0864763 0.0287322 0 0 0 0 -0.0190842 0.0133115 0 -0.0370014 0.00066298 0 -0.0190842 0.0133115 0 268.878 268.878 1000.64 
25 1 1 0.074962 0.0275873 0 0 0 0 -0.0106863 -0.01797 0 -0.0447201 0.0284249 0 -0.0106863 -0.01797 0 319.051 319.051 1000.76 
26 1 1 0.125273 0.00514418 0 0 0 0 -0.0269504 -0.0041022 0 -0.0304279 -0.00397765 0 -0.0269504 -0.0041022 0 445.968 445.968 1001.06 
27 1 1 0.124231 0.0192061 0 0 0 0 -0.000516718 0.0229313 0 -0.0118243 -0.00837554 0 -0.000516718 0.0229313 0 366.778 366.778 1000.87 
28 1 1 0.168829 0.0174761 0 0 0 0 -0.0226403 0.0340321 0 -0.10699 -0.0268952 0 -0.0226403 0.0340321 0 388.471 388.471 1000.92 
29 1 1 0.176372 0.00972431 0 0 0 0 -0.0559336 0.0174976 0 -0.0130626 0.0574189 0 -0.0559336 0.0174976 0 432.963 432.963 1001.03 
30 1 1 0.199333 0.0239981 0 0 0 0 -0.0418892 0.0137266 0 -0.0654185 0.00296997 0 -0.0418892 0.0137266 0 346.461 346.461 1000.82 
31 1 1 0.0192298 0.00890242 0 0 0 0 0.00342959 0.00468995 0 -0.00205969 0.016997 0 0.00342959 0.00468995 0 413.383 413.383 1000.98 
32 1 1 0.042012 0.0176271 0 0 0 0 -0.0173506 0.0238279 0 -0.0219162 0.0161736 0 -0.0173506 0.0238279 0 343.846 343.846 1000.82 
33 1 1 0.0651097 0.0328439 0 0 0 0 0.00824853 -0.00846363 0 -0.0328701 0.0186414 0 0.00824853 -0.00846363 0 254.306 254.306 1000.6 
34 1 1 0.0906011 0.0193585 0 0 0 0 0.0226638 0.0152004 0 -0.0411171 0.0267753 0 0.0226638 0.0152004 0 352.107 352.107 1000.84 
35 1 1 0.133926 0.0258424 0 0 0 0 0.0155308 0.0143729 0 -0.0973089 0.0165303 0 0.0155308 0.0143729 0 335.907 335.907 1000.8 
36 1 1 0.13907 0.0177252 0 0 0 0 -0.0320768 -0.00873815 0 0.0234285 0.0307575 0 -0.0320768 -0.00873815 0 407.617 407.617 1000.97 
37 1 1 0.146973 0.0138989 0 0 0 0 -0.0072577 0.0135348 0 -0.0139106 -2.89636e-05 0 -0.0072577 0.0135348 0 413.689 413.689 1000.98 
38 1 1 0.180035 0.0181869 0 0 0 0 -0.021082 -0.0135613 0 -0.074432 0.00325447 0 -0.021082 -0.0135613 0 429.094 429.094 1001.02 
39 1 1 0.196034 0.0341251 0 0 0 0 -0.0201826 0.0145925 0 -0.0159903 -0.0187934 0 -0.0201826 0.0145925 0 272.549 272.549 1000.65 
40 1 1 0.15517 0.0328251 0 0 0 0 -0.00725951 0.0086498 0 -0.00643363 -0.0217918 0 -0.00725951 0.0086498 0 296.538 296.538 1000.7 
41 1 1 0.0125142 0.0130563 0 0 0 0 0.0174383 -0.00537537 0 0.0161106 0.00843517 0 0.0174383 -0.00537537 0 404.774 404.774 1000.96 
42 1 1 0.0332913 0.0404656 0 0 0 0 -0.00243416 -0.0105379 0 0.00645569 0.0122448 0 -0.00243416 -0.0105379 0 224.026 224.026 1000.53 
43 1 1 0.0514884 0.0166282 0 0 0 0 -0.0105088 -0.0221361 0 -0.0238621 0.0170246 0 -0.0105088 -0.0221361 0 362.821 362.821 1000.86 
44 1 1 0.0787006 0.0361986 0 0 0 0 -0.012136 -0.00151522 0 0.00161231 0.0118109 0 -0.012136 -0.00151522 0 225.966 225.966 1000.54 
45 1 1 0.0982263 0.0158815 0 0 0 0 0.000922688 -0.00529522 0 -0.0366296 -0.00772477 0 0.000922688 -0.00529522 0 408.003 408.003 1000.97 
46 1 1 0.121785 0.0290772 0 0 0 0 0.00834599 0.0187543 0 -0.0738002 -0.0181554 0 0.00834599 0.0187543 0 299.594 299.594 1000.71 
47 1 1 0.160458 0.0138765 0 0 0 0 -0.0134019 -0.0149626 0 -0.0242667 0.0367985 0 -0.0134019 -0.0149626 0 438.902 438.902 1001.04 
48 1 1 0.188191 0.0270365 0 0 0 0 -0.0413286 0.00740522 0 -0.0583752 0.00622371 0 -0.0413286 0.00740522 0 345.553 345.553 1000.82 
49 1 1 0.184613 0.0351646 0 0 0 0 -0.0388464 -0.00428803 0 -0.0491325 0.00491789 0 -0.0388464 -0.00428803 0 312.556 312.556 1000.74 
50 1 1 0.168331 0.0506482 0 0 0 0 -0.0081643 0.0343005 0 -0.00977619 -0.00268852 0 -0.0081643 0.0343005 0 231.19 231.19 1000.55 
51 1 1 0.0247458 0.0173809 0 0 0 0 0.010764 0.0185247 0 0.00978017 -0.0207717 0 0.010764 0.0185247 0 355.009 355.009 1000.84 
52 1 1 0.0482501 0.0263647 0 0 0 0 0.0138743 -0.00763383 0 -0.0206129 -0.0177747 0 0.0138743 -0.00763383 0 302.952 302.952 1000.72 
53 1 1 0.0670111 0.0197435 0 0 0 0 -0.00907222 -0.0195183 0 -0.0179626 0.00297963 0 -0.00907222 -0.0195183 0 358.241 358.241 1000.85 
54 1 1 0.0958627 0.0298171 0 0 0 0 0.000185251 0.00907338 0 -0.0319242 -0.00417935 0 0.000185251 0.00907338 0 270.008 270.008 1000.64 
55 1 1 0.102441 0.0379968 0 0 0 0 0.0123407 -0.0159797 0 -0.0860581 0.0077596 0 0.0123407 -0.0159797 0 240.809 240.809 1000.57 
56 1 1 0.110959 0.0330534 0 0 0 0 0.022007 0.00393088 0 -0.0379362 -0.0348783 0 0.022007 0.00393088 0 273.725 273.725 1000.65 
57 1 1 0.146641 0.0264614 0 0 0 0 0.00419642 -0.00369741 0 -0.0553754 0.0324258 0 0.00419642 -0.00369741 0 348.283 348.283 1000.83 
58 1 1 0.139361 0.0336571 0 0 0 0 0.00481925 0.0134349 0 -0.0125787 -0.0164099 0 0.00481925 0.0134349 0 292.901 292.901 1000.7 
59 1 1 0.174455 0.0343416 0 0 0 0 -0.0301917 0.0437447 0 -0.0242211 0.0324776 0 -0.0301917 0.0437447 0 316.802 316.802 1000.75 
60 1 1 0.178485 0.0457955 0 0 0 0 0.00840882 0.0381285 0 -0.0111283 0.048803 0 0.00840882 0.0381285 0 237.014 237.014 1000.56 
61 1 1 0.0591239 0.0266819 0 0 0 0 -0.00752797 -0.0117631 0 -0.0189832 0.00785148 0 -0.00752797 -0.0117631 0 296.04 296.04 1000.7 
62 1 1 0.00808233 0.0193538 0 0 0 0 0.00238353 -0.0258403 0 -0.0167807 0.00100685 0 0.00238353 -0.0258403 0 362.418 362.418 1000.86 
63 1 1 0.0791415 0.0191169 0 0 0 0 0.0170735 0.0043858 0 -0.0123657 -0.00215528 0 0.0170735 0.0043858 0 369.859 369.859 1000.88 
64 1 1 0.0439948 0.0427053 0 0 0 0 -0.0206153 -0.00578166 0 0.0367622 0.0149187 0 -0.0206153 -0.00578166 0 197.319 197.319 1000.47 
65 1 1 0.0905592 0.03935 0 0 0 0 -0.00457924 0.00526706 0 -0.0601029 0.0168619 0 -0.00457924 0.00526706 0 208.609 208.609 1000.5 
66 1 1 0.117819 0.0139491 0 0 0 0 0.0100628 0.0125209 0 -0.0184494 -0.00179679 0 0.0100628 0.0125209 0 391.84 391.84 1000.93 
67 1 1 0.128103 0.0353015 0 0 0 0 0.00365808 0.012694 0 -0.0255885 -0.0114369 0 0.00365808 0.012694 0 267.786 267.786 1000.64 
68 1 1 0.162453 0.0265436 0 0 0 0 -0.0082691 0.0114514 0 0.0288103 0.0582426 0 -0.0082691 0.0114514 0 355.001 355.001 1000.84 
69 1 1 0.173868 0.0257828 0 0 0 0 -0.0109126 0.0214294 0 -0.000323805 -0.0115292 0 -0.0109126 0.0214294 0 344.404 344.404 1000.82 
70 1 1 0.188856 0.0551865 0 0 0 0 -0.0173154 0.0336552 0 -0.127283 0.0159368 0 -0.0173154 0.0336552 0 210.246 210.246 1000.5 
71 1 1 0.010266 0.030791 0 0 0 0 -0.00203035 -0.0387926 0 0.0120864 0.00422362 0 -0.00203035 -0.0387926 0 280.779 280.779 1000.67 
72 1 1 0.0386559 0.0529615 0 0 0 0 0.0136177 0.0138934 0 -0.0322171 -0.0151996 0 0.0136177 0.0138934 0 122.959 122.959 1000.29 
73 1 1 0.0239965 0.0314919 0 0 0 0 0.00192469 0.0343553 0 -0.046556 0.0214593 0 0.00192469 0.0343553 0 270.38 270.38 1000.64 
74 1 1 0.0518392 0.0356183 0 0 0 0 0.0103242 -0.00229567 0 -0.00744077 0.0074884 0 0.0103242 -0.00229567 0 235.559 235.559 1000.56 
75 1 1 0.0808093 0.0462838 0 0 0 0 -0.00471004 -0.0113277 0 -0.0459114 0.0159061 0 -0.00471004 -0.0113277 0 193.167 193.167 1000.46 
76 1 1 0.112993 0.0223584 0 0 0 0 -0.006648 -0.0182812 0 -0.0237716 -0.0298579 0 -0.006648 -0.0182812 0 326.677 326.677 1000.78 
77 1 1 0.104324 0.0246954 0 0 0 0 -0.00724856 0.0111216 0 -0.0420933 0.0668156 0 -0.00724856 0.0111216 0 303.922 303.922 1000.72 
78 1 1 0.157621 0.0458235 0 0 0 0 0.00717737 0.0315922 0 -0.0523007 0.0124448 0 0.00717737 0.0315922 0 223.345 223.345 1000.53 
79 1 1 0.148374 0.0398087 0 0 0 0 0.000286612 0.00527383 0 -0.0525173 0.00354195 0 0.000286612 0.00527383 0 238.544 238.544 1000.57 
80 1 1 0.158389 0.0607073 0 0 0 0 -0.012767 0.0450741 0 -0.0519396 -0.00812448 0 -0.012767 0.0450741 0 164.304 164.304 1000.39 
81 1 1 0.0188286 0.0240674 0 0 0 0 0.0141458 0.00705605 0 0.0163406 0.0237078 0 0.0141458 0.00705605 0 316.741 316.741 1000.75 
82 1 1 0.0127779 0.0386872 0 0 0 0 -0.00756994 -0.014958 0 -0.023162 0.00736459 0 -0.00756994 -0.014958 0 220.674 220.674 1000.52 
83 1 1 0.0395709 0.0307501 0 0 0 0 0.0126553 0.00832627 0 0.00650666 0.048724 0 0.0126553 0.00832627 0 281.398 281.398 1000.67 
84 1 1 0.0242024 0.0423925 0 0 0 0 -0.0281578 0.0296772 0 -0.0264972 -0.0016544 0 -0.0281578 0.0296772 0 198.373 198.373 1000.47 
85 1 1 0.0689933 0.0418612 0 0 0 0 -0.0331531 -0.00550182 0 -0.0346092 0.0144245 0 -0.0331531 -0.00550182 0 173.815 173.815 1000.41 
86 1 1 0.110805 0.0463102 0 0 0 0 -0.00439877 0.0283274 0 -0.0429724 -0.0593016 0 -0.00439877 0.0283274 0 165.607 165.607 1000.39 
87 1 1 0.11873 0.0412614 0 0 0 0 -0.0208174 -0.00105379 0 -0.0370561 0.0530935 0 -0.0208174 -0.00105379 0 243.124 243.124 1000.58 
88 1 1 0.129003 0.0474469 0 0 0 0 0.000978696 0.0114986 0 -0.0573214 -0.0259515 0 0.000978696 0.0114986 0 191.345 191.345 1000.45 
89 1 1 0.138091 0.0447557 0 0 0 0 0.000641098 0.00940766 0 -0.0450143 0.00195766 0 0.000641098 0.00940766 0 205.718 205.718 1000.49 
90 1 1 0.147556 0.0526639 0 0 0 0 0.015644 0.0105011 0 -0.0163696 -0.022748 0 0.015644 0.0105011 0 189.359 189.359 1000.45 
91 1 1 0.0530008 0.0550115 0 0 0 0 0.00680687 0.00740355 0 0.00748841 0.0226964 0 0.00680687 0.00740355 0 171.151 171.151 1000.41 
92 1 1 0.0246509 0.0549767 0 0 0 0 0.0273525 0.0102828 0 0.0485779 -0.00116379 0 0.0273525 0.0102828 0 135.557 135.557 1000.32 
93 1 1 0.01305 0.0497114 0 0 0 0 0.00223026 -0.00877757 0 -0.00468527 0.0249044 0 0.00223026 -0.00877757 0 164.833 164.833 1000.39 
94 1 1 0.0686914 0.0535875 0 0 0 0 0.00330149 0.00209795 0 -0.00467043 0.0272201 0 0.00330149 0.00209795 0 137.176 137.176 1000.33 
95 1 1 0.0864156 0.0573449 0 0 0 0 -0.0145434 -0.00662575 0 -0.070539 0.0477533 0 -0.0145434 -0.00662575 0 187.145 187.145 1000.44 
96 1 1 0.107399 0.0581307 0 0 0 0 -0.0411411 0.00711418 0 -0.0680046 -0.0149573 0 -0.0411411 0.00711418 0 156.491 156.491 1000.37 
97 1 1 0.0576854 0.0436245 0 0 0 0 -0.0184469 0.00688302 0 0.0323136 0.0332803 0 -0.0184469 0.00688302 0 193.699 193.699 1000.46 
98 1 1 0.0972409 0.0490778 0 0 0 0 0.0047162 -0.0065848 0 -0.0560308 0.0185659 0 0.0047162 -0.0065848 0 230.377 230.377 1000.55 
99 1 1 0.122004 0.0566968 0 0 0 0 0.0112785 -0.00291003 0 -0.0830054 -0.0121424 0 0.0112785 -0.00291003 0 154.512 154.512 1000.37 
100 1 1 0.137285 0.0604699 0 0 0 0 0.00287457 0.00797719 0 -0.0373883 -0.0316171 0 0.00287457 0.00797719 0 169.82 169.82 1000.4 
101 1 1 0.206555 0.0140726 0 0 0 0 -0.0543938 -0.010972 0 -0.0276544 -0.00396715 0 -0.0543938 -0.010972 0 448.617 448.617 1001.06 
102 1 1 0.218675 0.0162108 0 0 0 0 -0.0550524 0.00257207 0 -0.0551879 0.0103767 0 -0.0550524 0.00257207 0 430.247 430.247 1001.02 
103 1 1 0.226444 0.0261731 0 0 0 0 -0.0831041 0.00686177 0 -0.0631052 -0.00189637 0 -0.0831041 0.00686177 0 362.536 362.536 1000.86 
104 1 1 0.212877 0.00550074 0 0 0 0 -0.020039 -0.00492164 0 -0.00398656 -0.00151326 0 -0.020039 -0.00492164 0 472.403 472.403 1001.12 
105 1 1 0.223557 0.00859195 0 0 0 0 -0.0249941 0.00385448 0 -0.03761 0.0161652 0 -0.0249941 0.00385448 0 459.672 459.672 1001.09 
106 1 1 0.235026 0.00476594 0 0 0 0 -0.0340261 -0.000682073 0 -0.0304354 0.00461665 0 -0.0340261 -0.000682073 0 508.102 508.102 1001.21 
107 1 1 0.244994 0.0146977 0 0 0 0 -0.0587053 0.0057042 0 -0.0687728 0.00528942 0 -0.0587053 0.0057042 0 450.37 450.37 1001.07 
108 1 1 0.249062 0.00646652 0 0 0 0 -0.0401852 0.00334011 0 -0.0191411 -0.0193054 0 -0.0401852 0.00334011 0 492.839 492.839 1001.17 
109 1 1 0.256561 0.0137386 0 0 0 0 -0.0755755 0.00825598 0 -0.0489065 -0.00548085 0 -0.0755755 0.00825598 0 465.765 465.765 1001.11 
110 1 1 0.265479 0.0160115 0 0 0 0 -0.115967 0.00692852 0 -0.0445679 0.0371388 0 -0.115967 0.00692852 0 470.929 470.929 1001.12 
111 1 1 0.263484 0.0046973 0 0 0 0 -0.0426952 -0.00373833 0 0.00569592 0.0314709 0 -0.0426952 -0.00373833 0 522.902 522.902 1001.24 
112 1 1 0.27345 0.0100808 0 0 0 0 -0.0823439 0.0225776 0 -0.0611478 -0.020912 0 -0.0823439 0.0225776 0 483.043 483.043 1001.15 
113 1 1 0.283834 0.00532082 0 0 0 0 -0.0724812 -0.0152348 0 -0.0478142 0.0395812 0 -0.0724812 -0.0152348 0 522.156 522.156 1001.24 
114 1 1 0.293577 0.0172665 0 0 0 0 -0.0987736 -0.0128807 0 -0.00966542 -0.0333719 0 -0.0987736 -0.0128807 0 458.917 458.917 1001.09 
115 1 1 0.318972 0.0242538 0 0 0 0 -0.116547 -0.00419327 0 -0.0439092 0.0251004 0 -0.116547 -0.00419327 0 462.49 462.49 1001.1 
116 1 1 0.296914 0.00618707 0 0 0 0 -0.0534655 0.000276355 0 -0.0749584 -0.0142518 0 -0.0534655 0.000276355 0 517.975 517.975 1001.23 
117 1 1 0.312721 0.00482506 0 0 0 0 -0.077848 0.00209069 0 -0.0370775 0.0461204 0 -0.077848 0.00209069 0 553.77 553.77 1001.31 
118 1 1 0.322173 0.0105663 0 0 0 0 -0.0738986 -0.0122571 0 -0.0137695 -0.0484651 0 -0.0738986 -0.0122571 0 547.477 547.477 1001.3 
119 1 1 0.332491 0.00453364 0 0 0 0 -0.0729176 0.00712324 0 -0.0113725 0.0411342 0 -0.0729176 0.00712324 0 565.562 565.562 1001.34 
120 1 1 0.343554 0.0259162 0 0 0 0 -0.0923294 -0.0176411 0 -0.0658315 -0.0457709 0 -0.0923294 -0.0176411 0 456.836 456.836 1001.08 
121 1 1 0.343302 0.0128162 0 0 0 0 -0.0894332 -0.00202877 0 -0.0583532 0.0293934 0 -0.0894332 -0.00202877 0 542.08 542.08 1001.29 
122 1 1 0.348709 0.0057354 0 0 0 0 -0.0891575 0.00718021 0 -0.0253325 -0.0503676 0 -0.0891575 0.00718021 0 559.874 559.874 1001.33 
123 1 1 0.369302 0.0149686 0 0 0 0 -0.0884185 -0.0111754 0 -0.0504955 -0.000772164 0 -0.0884185 -0.0111754 0 529.488 529.488 1001.26 
124 1 1 0.362052 0.00604943 0 0 0 0 -0.0906528 -0.00833203 0 -0.0205319 0.0457553 0 -0.0906528 -0.00833203 0 565.68 565.68 1001.34 
125 1 1 0.374871 0.00645003 0 0 0 0 -0.0599815 -0.0192281 0 -0.0279624 -0.023218 0 -0.0599815 -0.0192281 0 565.497 565.497 1001.34 
126 1 1 0.385342 0.0200474 0 0 0 0 -0.120836 -0.00950802 0 -0.0462731 -0.00505768 0 -0.120836 -0.00950802 0 507.276 507.276 1001.2 
127 1 1 0.38673 0.00657294 0 0 0 0 -0.0502675 0.00734889 0 -0.0408254 0.0346927 0 -0.0502675 0.00734889 0 585.779 585.779 1001.39 
128 1 1 0.391488 0.0137977 0 0 0 0 -0.0829399 0.00678613 0 -0.00641302 0.0344369 0 -0.0829399 0.00678613 0 547.206 547.206 1001.3 
129 1 1 0.411135 0.00930415 0 0 0 0 -0.0866735 -0.0232529 0 -0.0433848 -0.0247482 0 -0.0866735 -0.0232529 0 611.193 611.193 1001.45 
130 1 1 0.422068 0.00540975 0 0 0 0 -0.066727 0.00681212 0 -0.0448921 0.0311259 0 -0.066727 0.00681212 0 593.15 593.15 1001.41 
131 1 1 0.436742 0.00583137 0 0 0 0 -0.0304223 -0.0290787 0 -0.0317239 -0.00731993 0 -0.0304223 -0.0290787 0 614.624 614.624 1001.46 
132 1 1 0.429279 0.0136416 0 0 0 0 -0.0726726 -0.0209787 0 -0.0308407 -0.0369424 0 -0.0726726 -0.0209787 0 550.627 550.627 1001.31 
133 1 1 0.444438 0.0136393 0 0 0 0 -0.0676644 -0.0239499 0 -0.0530105 0.0120483 0 -0.0676644 -0.0239499 0 568.887 568.887 1001.35 
134 1 1 0.45128 0.020544 0 0 0 0 -0.0320906 -0.0108805 0 0.0444644 -0.03802 0 -0.0320906 -0.0108805 0 545.015 545.015 1001.29 
135 1 1 0.45022 0.00614089 0 0 0 0 0.0175009 0.00861878 0 0.0411656 -0.0180391 0 0.0175009 0.00861878 0 567.034 567.034 1001.34 
136 1 1 0.457586 0.0128815 0 0 0 0 -0.0434929 0.00830562 0 -0.0903273 -0.024839 0 -0.0434929 0.00830562 0 570.647 570.647 1001.35 
137 1 1 0.465101 0.00503141 0 0 0 0 -0.0041536 -0.00801932 0 -0.0047851 0.0292295 0 -0.0041536 -0.00801932 0 586.656 586.656 1001.39 
138 1 1 0.479208 0.0061974 0 0 0 0 -0.00139025 -0.00203648 0 -0.0408135 0.0245294 0 -0.00139025 -0.00203648 0 594.02 594.02 1001.41 
139 1 1 0.492954 0.00545237 0 0 0 0 0.00183687 -0.0017766 0 -0.0206631 -0.0146816 0 0.00183687 -0.0017766 0 585.945 585.945 1001.39 
140 1 1 0.205911 0.0314043 0 0 0 0 -0.0364097 -0.00104089 0 -0.0549072 0.0367415 0 -0.0364097 -0.00104089 0 337.31 337.31 1000.8 
141 1 1 0.210399 0.0206538 0 0 0 0 -0.0549577 -0.0190234 0 -0.046221 0.0337064 0 -0.0549577 -0.0190234 0 416.774 416.774 1000.99 
142 1 1 0.250093 0.0408102 0 0 0 0 -0.0861849 0.0204164 0 -0.0833748 0.018533 0 -0.0861849 0.0204164 0 249.664 249.664 1000.59 
143 1 1 0.238297 0.025569 0 0 0 0 -0.0665701 -0.0142349 0 -0.0616442 0.031135 0 -0.0665701 -0.0142349 0 383.661 383.661 1000.91 
144 1 1 0.246006 0.0289567 0 0 0 0 -0.0632748 0.026986 0 -0.0402651 0.000619071 0 -0.0632748 0.026986 0 362.482 362.482 1000.86 
145 1 1 0.228908 0.0171909 0 0 0 0 -0.0606079 0.0222462 0 -0.0691775 -0.00636675 0 -0.0606079 0.0222462 0 432.688 432.688 1001.03 
146 1 1 0.255824 0.0330049 0 0 0 0 -0.0637797 0.0243111 0 -0.0602543 -0.00149046 0 -0.0637797 0.0243111 0 351.844 351.844 1000.84 
147 1 1 0.236835 0.0150574 0 0 0 0 -0.0575192 -0.00293847 0 -0.0257413 0.0259788 0 -0.0575192 -0.00293847 0 465.888 465.888 1001.11 
148 1 1 0.252135 0.0216001 0 0 0 0 -0.0790573 0.0372571 0 -0.0519157 -0.0240242 0 -0.0790573 0.0372571 0 399.629 399.629 1000.95 
149 1 1 0.273805 0.0249436 0 0 0 0 -0.085067 -0.0142104 0 -0.0765939 0.0368062 0 -0.085067 -0.0142104 0 428.466 428.466 1001.02 
150 1 1 0.291213 0.0379537 0 0 0 0 -0.107533 0.00722459 0 -0.0941555 -0.0502527 0 -0.107533 0.00722459 0 324.567 324.567 1000.77 
151 1 1 0.277895 0.0168074 0 0 0 0 -0.0857012 -0.000139353 0 -0.0546706 0.0392192 0 -0.0857012 -0.000139353 0 482.897 482.897 1001.15 
152 1 1 0.284709 0.027343 0 0 0 0 -0.0730065 0.0130517 0 -0.0405411 -0.017518 0 -0.0730065 0.0130517 0 377.051 377.051 1000.9 
153 1 1 0.287077 0.0153599 0 0 0 0 -0.0945319 -0.0122722 0 -0.0433328 -0.00107772 0 -0.0945319 -0.0122722 0 481.121 481.121 1001.14 
154 1 1 0.303493 0.0123015 0 0 0 0 -0.085664 0.0167481 0 -0.00559805 -0.0351603 0 -0.085664 0.0167481 0 496.878 496.878 1001.18 
155 1 1 0.326392 0.0166202 0 0 0 0 -0.094159 0.00986184 0 -0.0870253 0.00856373 0 -0.094159 0.00986184 0 498.312 498.312 1001.18 
156 1 1 0.313547 0.0161012 0 0 0 0 -0.0900559 -0.010019 0 -0.0589394 0.0314956 0 -0.0900559 -0.010019 0 513.314 513.314 1001.22 
157 1 1 0.336284 0.0149645 0 0 0 0 -0.10212 0.00918649 0 -0.0817082 0.013637 0 -0.10212 0.00918649 0 518.78 518.78 1001.23 
158 1 1 0.333162 0.0242827 0 0 0 0 -0.101413 0.0157638 0 -0.0730516 0.0421496 0 -0.101413 0.0157638 0 460.229 460.229 1001.09 
159 1 1 0.356491 0.0297716 0 0 0 0 -0.113974 -0.00808356 0 -0.0821952 -0.0326322 0 -0.113974 -0.00808356 0 432.646 432.646 1001.03 
160 1 1 0.350385 0.0198858 0 0 0 0 -0.0920193 -0.0113919 0 -0.0352078 0.000251881 0 -0.0920193 -0.0113919 0 499.07 499.07 1001.18 
161 1 1 0.356886 0.01405 0 0 0 0 -0.073407 -0.00242946 0 -0.0652544 -0.00565915 0 -0.073407 -0.00242946 0 534.885 534.885 1001.27 
162 1 1 0.371126 0.0264743 0 0 0 0 -0.110247 0.0162587 0 -0.0353983 -0.0100028 0 -0.110247 0.0162587 0 453.937 453.937 1001.08 
163 1 1 0.377743 0.016476 0 0 0 0 -0.105216 -0.00829816 0 0.015527 -0.0323906 0 -0.105216 -0.00829816 0 532.458 532.458 1001.26 
164 1 1 0.403934 0.0319074 0 0 0 0 -0.0647039 -0.00616842 0 0.0180016 -0.0334819 0 -0.0647039 -0.00616842 0 430.98 430.98 1001.02 
165 1 1 0.401161 0.00491416 0 0 0 0 -0.0806027 0.0162775 0 -0.0806999 0.00973025 0 -0.0806027 0.0162775 0 580.164 580.164 1001.38 
166 1 1 0.403842 0.0221147 0 0 0 0 -0.0698859 -0.0165566 0 -0.0458595 0.000943803 0 -0.0698859 -0.0165566 0 512.553 512.553 1001.22 
167 1 1 0.413607 0.0359883 0 0 0 0 -0.0687722 -0.0153597 0 -0.0669318 0.0565655 0 -0.0687722 -0.0153597 0 422.782 422.782 1001 
168 1 1 0.422715 0.0175448 0 0 0 0 -0.0658249 0.00189506 0 -0.0155747 0.0373455 0 -0.0658249 0.00189506 0 557.28 557.28 1001.32 
169 1 1 0.419919 0.0455829 0 0 0 0 -0.109607 -0.050643 0 -0.00581982 -0.0314573 0 -0.109607 -0.050643 0 363.61 363.61 1000.86 
170 1 1 0.412809 0.0161066 0 0 0 0 -0.0483076 -0.0184019 0 0.0317073 0.00158099 0 -0.0483076 -0.0184019 0 553.934 553.934 1001.31 
171 1 1 0.422853 0.0300435 0 0 0 0 -0.0717065 -0.0271516 0 0.0304813 -0.0299626 0 -0.0717065 -0.0271516 0 458.911 458.911 1001.09 
172 1 1 0.436228 0.0181904 0 0 0 0 -0.0408769 -0.0352644 0 0.0847411 -0.00122745 0 -0.0408769 -0.0352644 0 548.614 548.614 1001.3 
173 1 1 0.444641 0.0259727 0 0 0 0 -0.0495834 -0.0359627 0 -0.0406129 0.0189726 0 -0.0495834 -0.0359627 0 514.137 514.137 1001.22 
174 1 1 0.471697 0.0133306 0 0 0 0 -0.0137897 0.00017551 0 0.0263331 0.0179217 0 -0.0137897 0.00017551 0 563.066 563.066 1001.34 
175 1 1 0.471748 0.0245742 0 0 0 0 -0.0638257 -0.0127984 0 -0.112351 -0.0144285 0 -0.0638257 -0.0127984 0 529.789 529.789 1001.26 
176 1 1 0.480535 0.0211916 0 0 0 0 0.00331108 -0.00353799 0 0.00630932 0.000590798 0 0.00331108 -0.00353799 0 533.656 533.656 1001.27 
177 1 1 0.484098 0.0137391 0 0 0 0 -0.0238346 0.00322216 0 -0.00222487 -0.0507274 0 -0.0238346 0.00322216 0 574.752 574.752 1001.36 
178 1 1 0.491622 0.0183504 0 0 0 0 -0.0050406 -0.0204781 0 0.0548666 0.0362233 0 -0.0050406 -0.0204781 0 571.622 571.622 1001.36 
179 1 1 0.20096 0.0443867 0 0 0 0 -0.0256137 0.0165731 0 -0.0625682 -0.0210885 0 -0.0256137 0.0165731 0 240.853 240.853 1000.57 
180 1 1 0.217545 0.0282829 0 0 0 0 -0.0734212 0.0183484 0 -0.0535015 0.0112314 0 -0.0734212 0.0183484 0 349.467 349.467 1000.83 
181 1 1 0.221893 0.0381514 0 0 0 0 -0.0366505 0.0247204 0 -0.040974 0.0408673 0 -0.0366505 0.0247204 0 279.435 279.435 1000.66 
182 1 1 0.231589 0.0350119 0 0 0 0 -0.0558635 0.00985965 0 -0.0904843 -0.015144 0 -0.0558635 0.00985965 0 325.211 325.211 1000.77 
183 1 1 0.252967 0.0522781 0 0 0 0 -0.100276 0.0202143 0 -0.0594868 -0.0252962 0 -0.100276 0.0202143 0 218.515 218.515 1000.52 
184 1 1 0.241282 0.0489078 0 0 0 0 -0.080397 0.0257063 0 -0.0536877 0.0428772 0 -0.080397 0.0257063 0 211.859 211.859 1000.5 
185 1 1 0.239529 0.0386833 0 0 0 0 -0.0936943 -0.00158535 0 -0.0134368 -0.00419742 0 -0.0936943 -0.00158535 0 289.382 289.382 1000.69 
186 1 1 0.262657 0.0247501 0 0 0 0 -0.0679864 0.0282363 0 -0.0808246 0.0166688 0 -0.0679864 0.0282363 0 397.471 397.471 1000.94 
187 1 1 0.278791 0.0342575 0 0 0 0 -0.100061 -0.0123278 0 -0.0304624 -0.00149566 0 -0.100061 -0.0123278 0 348.4 348.4 1000.83 
188 1 1 0.283703 0.0438221 0 0 0 0 -0.111689 0.011528 0 -0.0768795 0.0302595 0 -0.111689 0.011528 0 296.765 296.765 1000.71 
189 1 1 0.301133 0.0327137 0 0 0 0 -0.110522 0.0170368 0 -0.0696694 0.0351711 0 -0.110522 0.0170368 0 378.341 378.341 1000.9 
190 1 1 0.304896 0.0205708 0 0 0 0 -0.0825906 0.0209144 0 -0.0948608 0.0221216 0 -0.0825906 0.0209144 0 460.856 460.856 1001.09 
191 1 1 0.307846 0.0412341 0 0 0 0 -0.119371 0.0200561 0 -0.0774043 0.000632904 0 -0.119371 0.0200561 0 324.705 324.705 1000.77 
192 1 1 0.310063 0.0292703 0 0 0 0 -0.10224 0.0179377 0 -0.0511892 0.00861778 0 -0.10224 0.0179377 0 428.19 428.19 1001.02 
193 1 1 0.336374 0.0344752 0 0 0 0 -0.0971438 -0.0104146 0 -0.0252881 0.0136869 0 -0.0971438 -0.0104146 0 391.076 391.076 1000.93 
194 1 1 0.32011 0.0466121 0 0 0 0 -0.109367 0.00706405 0 -0.0832328 0.0250655 0 -0.109367 0.00706405 0 322.992 322.992 1000.77 
195 1 1 0.342206 0.0440258 0 0 0 0 -0.140439 -0.00998146 0 -0.0485652 0.0105437 0 -0.140439 -0.00998146 0 335.243 335.243 1000.8 
196 1 1 0.347833 0.0342269 0 0 0 0 -0.0960982 0.00178176 0 -0.0618479 0.0140317 0 -0.0960982 0.00178176 0 386.853 386.853 1000.92 
197 1 1 0.363803 0.0454284 0 0 0 0 -0.123797 0.00879386 0 -0.0724587 -0.00677455 0 -0.123797 0.00879386 0 325.326 325.326 1000.77 
198 1 1 0.362655 0.0346613 0 0 0 0 -0.102668 -0.00513895 0 -0.0757616 -0.0394573 0 -0.102668 -0.00513895 0 409.29 409.29 1000.97 
199 1 1 0.372802 0.036932 0 0 0 0 -0.108079 -0.00286413 0 -0.0543856 -0.0196055 0 -0.108079 -0.00286413 0 415.028 415.028 1000.99 
200 1 1 0.362528 0.0210856 0 0 0 0 -0.0786446 -0.00456229 0 0.00806653 0.010461 0 -0.0786446 -0.00456229 0 494.552 494.552 1001.17 
201 1 1 0.394217 0.0269189 0 0 0 0 -0.0755914 -0.0134429 0 -0.0797514 0.00617427 0 -0.0755914 -0.0134429 0 463.643 463.643 1001.1 
202 1 1 0.379718 0.0423078 0 0 0 0 -0.132511 -0.00821837 0 -0.0499187 0.0147252 0 -0.132511 -0.00821837 0 395.271 395.271 1000.94 
203 1 1 0.388896 0.0338551 0 0 0 0 -0.0986029 -0.0240642 0 -0.0421968 0.00810548 0 -0.0986029 -0.0240642 0 452.346 452.346 1001.07 
204 1 1 0.398056 0.0506079 0 0 0 0 -0.11405 -0.0174845 0 0.0184332 0.0378454 0 -0.11405 -0.0174845 0 302.014 302.014 1000.72 
205 1 1 0.399375 0.0154465 0 0 0 0 -0.0768424 0.018558 0 0.0244212 0.0182969 0 -0.0768424 0.018558 0 546.316 546.316 1001.3 
206 1 1 0.414788 0.0258424 0 0 0 0 -0.0859461 -0.006821 0 -0.0886717 0.0419165 0 -0.0859461 -0.006821 0 515.221 515.221 1001.22 
207 1 1 0.438915 0.0424926 0 0 0 0 -0.0588155 -0.0383984 0 0.0657637 -0.0615116 0 -0.0588155 -0.0383984 0 395.178 395.178 1000.94 
208 1 1 0.437929 0.0333623 0 0 0 0 -0.0856593 -0.0428292 0 -0.0380881 0.0399769 0 -0.0856593 -0.0428292 0 477.436 477.436 1001.13 
209 1 1 0.426947 0.0391963 0 0 0 0 -0.0496506 -0.0176726 0 -0.017803 -0.0213776 0 -0.0496506 -0.0176726 0 408.575 408.575 1000.97 
210 1 1 0.4499 0.0344912 0 0 0 0 -0.0788733 -0.0136195 0 0.0190954 -0.041245 0 -0.0788733 -0.0136195 0 471.499 471.499 1001.12 
211 1 1 0.431326 0.0268936 0 0 0 0 -0.0583445 -0.0354999 0 -0.0872282 -0.0636212 0 -0.0583445 -0.0354999 0 507.172 507.172 1001.2 
212 1 1 0.458731 0.0275217 0 0 0 0 -0.0655066 -0.0154181 0 -0.0271378 0.0457445 0 -0.0655066 -0.0154181 0 485.685 485.685 1001.15 
213 1 1 0.46375 0.018152 0 0 0 0 -0.010256 -0.015205 0 0.0533278 0.0199582 0 -0.010256 -0.015205 0 563.181 563.181 1001.34 
214 1 1 0.477361 0.0410975 0 0 0 0 0.0211805 -0.0488101 0 -0.10112 0.039508 0 0.0211805 -0.0488101 0 441.254 441.254 1001.05 
215 1 1 0.489792 0.0290447 0 0 0 0 0.00259784 -0.0188052 0 -0.12935 -0.0564208 0 0.00259784 -0.0188052 0 523.391 523.391 1001.24 
216 1 1 0.478313 0.0320934 0 0 0 0 -0.0210141 -0.0462018 0 0.0954094 0.0484131 0 -0.0210141 -0.0462018 0 494.522 494.522 1001.17 
217 1 1 0.488723 0.0381189 0 0 0 0 0.0127669 -0.0210528 0 0.016117 0.0212679 0 0.0127669 -0.0210528 0 446.077 446.077 1001.06 
218 1 1 0.219834 0.0496974 0 0 0 0 -0.0622781 0.0442476 0 -0.0406109 0.0101091 0 -0.0622781 0.0442476 0 272.092 272.092 1000.65 
219 1 1 0.16563 0.0381806 0 0 0 0 -0.00893031 0.0304281 0 -0.0798077 0.0142004 0 -0.00893031 0.0304281 0 301.982 301.982 1000.72 
220 1 1 0.1906 0.0449253 0 0 0 0 -0.0219481 0.00331459 0 -0.0253329 -0.0481525 0 -0.0219481 0.00331459 0 227.169 227.169 1000.54 
221 1 1 0.230331 0.0480164 0 0 0 0 -0.067269 0.0464629 0 -0.00724108 -0.0230174 0 -0.067269 0.0464629 0 221.186 221.186 1000.53 
222 1 1 0.211627 0.038751 0 0 0 0 -0.0302084 0.0244663 0 -0.0175894 0.0607687 0 -0.0302084 0.0244663 0 288.869 288.869 1000.69 
223 1 1 0.260799 0.0435641 0 0 0 0 -0.0758226 0.00819019 0 -0.0436932 0.00295899 0 -0.0758226 0.00819019 0 275.916 275.916 1000.66 
224 1 1 0.267007 0.0337076 0 0 0 0 -0.0615766 0.0307563 0 -0.0532684 0.0392556 0 -0.0615766 0.0307563 0 342.148 342.148 1000.81 
225 1 1 0.271832 0.0431742 0 0 0 0 -0.0693158 0.0512814 0 -0.0666817 0.0400486 0 -0.0693158 0.0512814 0 277.118 277.118 1000.66 
226 1 1 0.288644 0.0541741 0 0 0 0 -0.0946089 0.00429472 0 -0.0457917 0.0262117 0 -0.0946089 0.00429472 0 216.077 216.077 1000.51 
227 1 1 0.294329 0.0269904 0 0 0 0 -0.0849683 -0.0190749 0 -0.0563316 -0.0314604 0 -0.0849683 -0.0190749 0 406.239 406.239 1000.96 
228 1 1 0.297725 0.0454419 0 0 0 0 -0.116005 0.0101555 0 -0.0789293 -0.014032 0 -0.116005 0.0101555 0 286.217 286.217 1000.68 