ITEM: TIMESTEP
78000
ITEM: NUMBER OF ATOMS
754
ITEM: BOX BOUNDS ff ff pp
-0.021 0.521
-0.021 0.5
-0.001 0.001
ITEM: ATOMS id type type x y z ix iy iz vx vy vz fx fy fz vx vy vz p p rho 
1 1 1 0.00799405 0.00704734 0 0 0 0 -0.00705947 0.00681956 0 -0.0231026 -0.0292555 0 -0.00705947 0.00681956 0 453.719 453.719 1001.08 
2 1 1 0.0197497 0.00781537 0 0 0 0 0.00408992 -0.017763 0 0.000941472 -0.0314619 0 0.00408992 -0.017763 0 461.348 461.348 1001.09 
3 1 1 0.0510418 0.00695233 0 0 0 0 0.023028 -0.00173338 0 -0.0284372 0.000623228 0 0.023028 -0.00173338 0 494.95 494.95 1001.17 
4 1 1 0.0699319 0.00649603 0 0 0 0 0.031356 -0.0104942 0 -0.0474758 0.136724 0 0.031356 -0.0104942 0 508.402 508.402 1001.21 
5 1 1 0.0911499 0.00777713 0 0 0 0 0.0237622 -0.00157027 0 -0.0320103 -0.0217228 0 0.0237622 -0.00157027 0 489.016 489.016 1001.16 
6 1 1 0.102846 0.00751538 0 0 0 0 0.0141621 0.00441684 0 0.00247826 -0.0357559 0 0.0141621 0.00441684 0 492.035 492.035 1001.17 
7 1 1 0.139196 0.00880937 0 0 0 0 0.0127309 -0.0245183 0 0.00783506 -0.0715304 0 0.0127309 -0.0245183 0 471.587 471.587 1001.12 
8 1 1 0.147284 0.0105319 0 0 0 0 -0.010625 0.0415041 0 0.0370851 0.0623637 0 -0.010625 0.0415041 0 459.291 459.291 1001.09 
9 1 1 0.183917 0.00781145 0 0 0 0 -0.0721904 0.00748594 0 -0.0220548 0.00186107 0 -0.0721904 0.00748594 0 473.041 473.041 1001.12 
10 1 1 0.206245 0.00798703 0 0 0 0 -0.0480484 -0.0146929 0 -0.0849318 -0.0381952 0 -0.0480484 -0.0146929 0 471.769 471.769 1001.12 
11 1 1 0.0184171 0.0197069 0 0 0 0 0.0550721 0.00172468 0 -0.0868685 0.00923158 0 0.0550721 0.00172468 0 362.965 362.965 1000.86 
12 1 1 0.0335148 0.00644527 0 0 0 0 0.0056102 -0.00498462 0 0.0215923 0.00551536 0 0.0056102 -0.00498462 0 483.371 483.371 1001.15 
13 1 1 0.0596092 0.0114254 0 0 0 0 0.034131 -0.0131378 0 0.00584903 -0.0799205 0 0.034131 -0.0131378 0 475.371 475.371 1001.13 
14 1 1 0.0812672 0.00891412 0 0 0 0 0.0310333 0.00478177 0 -0.111719 -0.029076 0 0.0310333 0.00478177 0 482.818 482.818 1001.15 
15 1 1 0.100916 0.0196382 0 0 0 0 0.0209386 -0.031417 0 0.0426683 -0.069319 0 0.0209386 -0.031417 0 411.747 411.747 1000.98 
16 1 1 0.128611 0.00824013 0 0 0 0 -0.00989965 0.00898576 0 0.014559 0.04304 0 -0.00989965 0.00898576 0 484.523 484.523 1001.15 
17 1 1 0.142696 0.0201458 0 0 0 0 -0.0463611 0.0207685 0 0.02149 -0.01824 0 -0.0463611 0.0207685 0 390.663 390.663 1000.93 
18 1 1 0.171848 0.00742924 0 0 0 0 -0.0670443 0.00612253 0 -0.0543649 0.00925163 0 -0.0670443 0.00612253 0 487.457 487.457 1001.16 
19 1 1 0.195013 0.00831438 0 0 0 0 -0.0641708 -0.0150842 0 -0.0165773 0.00383328 0 -0.0641708 -0.0150842 0 474.286 474.286 1001.13 
20 1 1 0.199133 0.0171424 0 0 0 0 -0.0554838 0.00103581 0 -0.0210384 0.0136112 0 -0.0554838 0.00103581 0 408.75 408.75 1000.97 
21 1 1 0.0298142 0.0236279 0 0 0 0 0.050352 0.0293126 0 -0.0516929 -0.0155835 0 0.050352 0.0293126 0 336.339 336.339 1000.8 
22 1 1 0.0262357 0.014131 0 0 0 0 -0.0103033 0.0116139 0 -0.036689 -0.0027947 0 -0.0103033 0.0116139 0 414.14 414.14 1000.98 
23 1 1 0.0434023 0.0121297 0 0 0 0 0.0287825 -1.55203e-05 0 -0.104175 -0.000742051 0 0.0287825 -1.55203e-05 0 457.243 457.243 1001.09 
24 1 1 0.0780682 0.0299831 0 0 0 0 0.0326231 0.0610899 0 0.0274162 -0.0935091 0 0.0326231 0.0610899 0 293.089 293.089 1000.7 
25 1 1 0.0834832 0.0187331 0 0 0 0 0.00413617 0.0122714 0 0.0443674 -0.0525129 0 0.00413617 0.0122714 0 413.396 413.396 1000.98 
26 1 1 0.117864 0.00769127 0 0 0 0 0.00841182 4.5823e-05 0 0.0139964 -0.0289223 0 0.00841182 4.5823e-05 0 488.755 488.755 1001.16 
27 1 1 0.13142 0.0170064 0 0 0 0 -0.0187842 -0.0228375 0 0.0667866 0.000493626 0 -0.0187842 -0.0228375 0 423.771 423.771 1001.01 
28 1 1 0.157043 0.00721135 0 0 0 0 -0.0190879 -0.0182333 0 0.0754997 -0.00355096 0 -0.0190879 -0.0182333 0 489.07 489.07 1001.16 
29 1 1 0.188588 0.0177109 0 0 0 0 -0.0376005 -0.00832543 0 -0.0474702 -0.0185859 0 -0.0376005 -0.00832543 0 406.459 406.459 1000.96 
30 1 1 0.203321 0.0267804 0 0 0 0 -0.0913564 0.0347611 0 -0.0550551 -0.0100219 0 -0.0913564 0.0347611 0 313.256 313.256 1000.74 
31 1 1 0.0108549 0.0166819 0 0 0 0 0.005311 -0.0150687 0 0.0241487 0.00249855 0 0.005311 -0.0150687 0 379.089 379.089 1000.9 
32 1 1 0.0371782 0.0174694 0 0 0 0 0.00730368 -0.053645 0 0.015725 0.0590695 0 0.00730368 -0.053645 0 405.751 405.751 1000.96 
33 1 1 0.0746021 0.018548 0 0 0 0 0.0581873 0.0282892 0 -0.0226548 -0.0311453 0 0.0581873 0.0282892 0 423.687 423.687 1001.01 
34 1 1 0.0941269 0.016961 0 0 0 0 0.00448953 0.0115994 0 0.0118051 -0.0188995 0 0.00448953 0.0115994 0 430.38 430.38 1001.02 
35 1 1 0.119856 0.0180904 0 0 0 0 -0.00975406 0.038481 0 0.0438918 -0.0779242 0 -0.00975406 0.038481 0 416.015 416.015 1000.99 
36 1 1 0.137032 0.0277352 0 0 0 0 0.00301794 0.0249331 0 -0.0181552 -0.0699761 0 0.00301794 0.0249331 0 320.55 320.55 1000.76 
37 1 1 0.163045 0.0138152 0 0 0 0 -0.0355957 0.0381467 0 0.00217218 0.0451352 0 -0.0355957 0.0381467 0 450.346 450.346 1001.07 
38 1 1 0.178114 0.0160023 0 0 0 0 -0.042128 -0.00113667 0 -0.0218877 0.0140161 0 -0.042128 -0.00113667 0 427.035 427.035 1001.01 
39 1 1 0.191664 0.0260805 0 0 0 0 -0.0699881 0.00412162 0 0.00155799 -0.0181402 0 -0.0699881 0.00412162 0 323.353 323.353 1000.77 
40 1 1 0.175247 0.0383329 0 0 0 0 -0.0993209 0.0594082 0 0.0121485 -0.0584208 0 -0.0993209 0.0594082 0 187.822 187.822 1000.45 
41 1 1 0.00743814 0.0255516 0 0 0 0 0.0171726 -0.0368445 0 0.0726225 -0.00168425 0 0.0171726 -0.0368445 0 283.472 283.472 1000.67 
42 1 1 0.0411443 0.0426132 0 0 0 0 0.0589411 -0.014719 0 -0.144643 0.0170548 0 0.0589411 -0.014719 0 172.491 172.491 1000.41 
43 1 1 0.0522685 0.0194387 0 0 0 0 0.00840838 0.0123992 0 -0.0652648 -0.05386 0 0.00840838 0.0123992 0 401.872 401.872 1000.95 
44 1 1 0.076737 0.0383273 0 0 0 0 0.00296232 -0.0197596 0 -0.108125 -0.0843784 0 0.00296232 -0.0197596 0 236.513 236.513 1000.56 
45 1 1 0.101814 0.029399 0 0 0 0 0.0121696 -0.0183069 0 -0.00442921 -0.0281861 0 0.0121696 -0.0183069 0 320.673 320.673 1000.76 
46 1 1 0.127075 0.0250119 0 0 0 0 0.0297215 0.00565042 0 0.034562 0.0439929 0 0.0297215 0.00565042 0 357.399 357.399 1000.85 
47 1 1 0.152953 0.019296 0 0 0 0 -0.0306632 0.00273624 0 0.0301634 -0.000750717 0 -0.0306632 0.00273624 0 402.653 402.653 1000.96 
48 1 1 0.179042 0.0254614 0 0 0 0 -0.0555316 0.0132639 0 0.0748787 -0.00812385 0 -0.0555316 0.0132639 0 337.118 337.118 1000.8 
49 1 1 0.185524 0.0335926 0 0 0 0 -0.0948698 -0.00289374 0 -0.00886932 0.0432858 0 -0.0948698 -0.00289374 0 245.988 245.988 1000.58 
50 1 1 0.166753 0.049105 0 0 0 0 -0.0939578 0.0572776 0 0.019908 0.0589726 0 -0.0939578 0.0572776 0 108.658 108.658 1000.26 
51 1 1 0.00978063 0.0372516 0 0 0 0 -0.0116499 -0.0423686 0 -0.12676 -0.015882 0 -0.0116499 -0.0423686 0 181.748 181.748 1000.43 
52 1 1 0.0458608 0.0247393 0 0 0 0 0.0365897 -0.0164212 0 -0.0875635 0.0867112 0 0.0365897 -0.0164212 0 352.628 352.628 1000.84 
53 1 1 0.0594269 0.0247802 0 0 0 0 0.0519272 -0.05542 0 -0.0495846 0.0375531 0 0.0519272 -0.05542 0 359.703 359.703 1000.85 
54 1 1 0.0879169 0.0266504 0 0 0 0 0.0243295 0.0273963 0 0.0452983 -0.0370284 0 0.0243295 0.0273963 0 340.894 340.894 1000.81 
55 1 1 0.110112 0.0364383 0 0 0 0 0.0107921 0.0168343 0 -0.00222991 -0.0478482 0 0.0107921 0.0168343 0 239.902 239.902 1000.57 
56 1 1 0.128087 0.0368911 0 0 0 0 -0.0277734 0.00454483 0 0.0767969 -0.129137 0 -0.0277734 0.00454483 0 229.535 229.535 1000.55 
57 1 1 0.150121 0.0298796 0 0 0 0 -0.0409387 0.014997 0 0.018681 -0.0694028 0 -0.0409387 0.014997 0 279.307 279.307 1000.66 
58 1 1 0.15552 0.0391291 0 0 0 0 -0.0622339 0.0302079 0 0.0362253 0.0661738 0 -0.0622339 0.0302079 0 197.435 197.435 1000.47 
59 1 1 0.170462 0.0294621 0 0 0 0 -0.0455996 0.0379794 0 -0.00295211 0.0429214 0 -0.0455996 0.0379794 0 294.519 294.519 1000.7 
60 1 1 0.184497 0.0431994 0 0 0 0 -0.082915 0.00182121 0 0.0836915 0.0688449 0 -0.082915 0.00182121 0 152.291 152.291 1000.36 
61 1 1 0.0565947 0.0338776 0 0 0 0 0.0220358 0.042833 0 -0.0570514 -0.141212 0 0.0220358 0.042833 0 275.105 275.105 1000.65 
62 1 1 0.0214211 0.0299257 0 0 0 0 -0.0412745 -0.0143024 0 0.0553061 -0.00594264 0 -0.0412745 -0.0143024 0 260.983 260.983 1000.62 
63 1 1 0.0669756 0.0172268 0 0 0 0 0.036312 -0.00512515 0 -0.0797307 0.012089 0 0.036312 -0.00512515 0 443.117 443.117 1001.05 
64 1 1 0.0667776 0.0400969 0 0 0 0 -0.029992 0.00919937 0 -0.0470885 0.192541 0 -0.029992 0.00919937 0 237.058 237.058 1000.56 
65 1 1 0.0935154 0.0345479 0 0 0 0 0.0459021 -0.0110402 0 0.11486 -0.153301 0 0.0459021 -0.0110402 0 272.893 272.893 1000.65 
66 1 1 0.11035 0.0129879 0 0 0 0 0.0266174 0.006186 0 -0.0136515 0.0498301 0 0.0266174 0.006186 0 463.406 463.406 1001.1 
67 1 1 0.14088 0.0345145 0 0 0 0 -0.0459226 0.0693798 0 0.00304263 0.0415353 0 -0.0459226 0.0693798 0 239.754 239.754 1000.57 
68 1 1 0.158906 0.0272355 0 0 0 0 -0.0458571 0.00714433 0 0.0677477 -0.0336744 0 -0.0458571 0.00714433 0 316.349 316.349 1000.75 
69 1 1 0.167655 0.0197267 0 0 0 0 -0.0304109 0.0225136 0 0.0512106 0.0385008 0 -0.0304109 0.0225136 0 400.661 400.661 1000.95 
70 1 1 0.156758 0.0513312 0 0 0 0 -0.0864916 0.0529641 0 0.0446477 0.0655751 0 -0.0864916 0.0529641 0 119.757 119.757 1000.28 
71 1 1 0.0308839 0.0371597 0 0 0 0 0.0637557 -0.0120331 0 -0.200864 0.067159 0 0.0637557 -0.0120331 0 202.197 202.197 1000.48 
72 1 1 0.0489319 0.0501823 0 0 0 0 -0.0587657 0.0228807 0 -0.179059 0.0400228 0 -0.0587657 0.0228807 0 119.551 119.551 1000.28 
73 1 1 0.0357129 0.0304503 0 0 0 0 -0.023494 -0.0264949 0 0.0283815 -0.0378417 0 -0.023494 -0.0264949 0 271.2 271.2 1000.64 
74 1 1 0.068422 0.029577 0 0 0 0 -0.0158076 -0.0438766 0 -0.0413779 -0.0581099 0 -0.0158076 -0.0438766 0 300.042 300.042 1000.71 
75 1 1 0.0890049 0.0395657 0 0 0 0 0.0549947 0.0128217 0 -0.0145566 -0.0131439 0 0.0549947 0.0128217 0 230.017 230.017 1000.55 
76 1 1 0.110775 0.0241808 0 0 0 0 0.0220441 0.0251465 0 0.0503836 -0.0851623 0 0.0220441 0.0251465 0 364.329 364.329 1000.87 
77 1 1 0.118161 0.0298991 0 0 0 0 0.00840402 0.0369689 0 0.072044 -0.0371789 0 0.00840402 0.0369689 0 301.994 301.994 1000.72 
78 1 1 0.145167 0.0422085 0 0 0 0 -0.0165896 0.0458766 0 0.0946688 0.00645579 0 -0.0165896 0.0458766 0 169.58 169.58 1000.4 
79 1 1 0.164025 0.0376162 0 0 0 0 -0.0691845 0.0197716 0 -0.00051764 0.0205108 0 -0.0691845 0.0197716 0 208.856 208.856 1000.5 
80 1 1 0.121357 0.0544621 0 0 0 0 0.0279676 0.104695 0 0.0452005 0.102068 0 0.0279676 0.104695 0 150.399 150.399 1000.36 
81 1 1 0.00524799 0.0502276 0 0 0 0 -0.011914 -0.0460227 0 0.0245448 -0.00512174 0 -0.011914 -0.0460227 0 63.4498 63.4498 1000.15 
82 1 1 0.0165827 0.0342474 0 0 0 0 0.00358985 -0.00605243 0 0.0490791 -0.0115922 0 0.00358985 -0.00605243 0 217.259 217.259 1000.52 
83 1 1 0.045424 0.0349419 0 0 0 0 0.0147016 -0.0496745 0 -0.00446492 -0.0327206 0 0.0147016 -0.0496745 0 254.491 254.491 1000.6 
84 1 1 0.0558731 0.0422862 0 0 0 0 -0.0124081 -0.0184532 0 0.0125905 -0.0465167 0 -0.0124081 -0.0184532 0 208.364 208.364 1000.5 
85 1 1 0.084482 0.0477718 0 0 0 0 0.0453188 -0.00921322 0 0.113718 0.0783467 0 0.0453188 -0.00921322 0 197.467 197.467 1000.47 
86 1 1 0.101932 0.0423456 0 0 0 0 0.0709589 0.0294223 0 -0.0397853 -0.00154375 0 0.0709589 0.0294223 0 227.399 227.399 1000.54 
87 1 1 0.111306 0.0475714 0 0 0 0 0.0218703 0.0410986 0 0.180079 -0.0669543 0 0.0218703 0.0410986 0 157.539 157.539 1000.37 
88 1 1 0.120217 0.0407079 0 0 0 0 0.0406693 0.0530222 0 0.0521712 0.0855647 0 0.0406693 0.0530222 0 198.484 198.484 1000.47 
89 1 1 0.132708 0.0440159 0 0 0 0 -0.00929776 0.0438114 0 0.051224 -0.067476 0 -0.00929776 0.0438114 0 152.497 152.497 1000.36 
90 1 1 0.132872 0.0520904 0 0 0 0 -0.0250158 0.0988065 0 0.106993 0.13585 0 -0.0250158 0.0988065 0 114.259 114.259 1000.27 
91 1 1 0.0378085 0.0553165 0 0 0 0 -0.0952451 -0.0542077 0 -0.107471 0.105062 0 -0.0952451 -0.0542077 0 160.791 160.791 1000.38 
92 1 1 0.0164308 0.0465113 0 0 0 0 0.0441574 0.0295469 0 1.62313e-05 0.343433 0 0.0441574 0.0295469 0 180.746 180.746 1000.43 
93 1 1 0.027498 0.0470887 0 0 0 0 -0.132699 -0.024279 0 -0.104866 0.278333 0 -0.132699 -0.024279 0 238.423 238.423 1000.57 
94 1 1 0.0671223 0.0576726 0 0 0 0 -0.0652658 -0.0923998 0 -0.138139 0.0194548 0 -0.0652658 -0.0923998 0 159.147 159.147 1000.38 
95 1 1 0.0583624 0.053029 0 0 0 0 -0.0623358 0.0387103 0 -0.124109 -0.0216975 0 -0.0623358 0.0387103 0 136.027 136.027 1000.32 
96 1 1 0.0798426 0.0638619 0 0 0 0 0.128829 -0.185315 0 -0.143719 -0.230106 0 0.128829 -0.185315 0 106.363 106.363 1000.25 
97 1 1 0.0754315 0.0500975 0 0 0 0 -0.00118575 -0.0748728 0 -0.187347 -0.0884905 0 -0.00118575 -0.0748728 0 208.47 208.47 1000.5 
98 1 1 0.0957702 0.0530803 0 0 0 0 0.0873164 -0.0377331 0 0.00798551 -0.193075 0 0.0873164 -0.0377331 0 203.65 203.65 1000.48 
99 1 1 0.1069 0.0560866 0 0 0 0 0.132547 0.0978936 0 0.156793 0.0869412 0 0.132547 0.0978936 0 107.665 107.665 1000.26 
100 1 1 0.0910181 0.0633578 0 0 0 0 0.179094 -0.022327 0 0.148226 -0.176856 0 0.179094 -0.022327 0 114.117 114.117 1000.27 
101 1 1 0.209535 0.0183347 0 0 0 0 -0.100645 0.0201869 0 -0.0435201 -0.0353497 0 -0.100645 0.0201869 0 402.074 402.074 1000.95 
102 1 1 0.2157 0.00963024 0 0 0 0 -0.0727021 0.0407216 0 -0.0165782 0.0607813 0 -0.0727021 0.0407216 0 463.869 463.869 1001.1 
103 1 1 0.222092 0.0180951 0 0 0 0 -0.0790137 -0.0107756 0 -0.107848 -0.00153272 0 -0.0790137 -0.0107756 0 421.732 421.732 1001 
104 1 1 0.225444 0.00785983 0 0 0 0 -0.0737031 -0.018985 0 0.0159932 -0.00582714 0 -0.0737031 -0.018985 0 496.218 496.218 1001.18 
105 1 1 0.233397 0.0150424 0 0 0 0 -0.0919009 0.010926 0 -0.124899 -0.00595882 0 -0.0919009 0.010926 0 456.317 456.317 1001.08 
106 1 1 0.238567 0.00741637 0 0 0 0 -0.0801266 0.00783557 0 -0.0141105 -0.0102539 0 -0.0801266 0.00783557 0 521.26 521.26 1001.24 
107 1 1 0.247091 0.013921 0 0 0 0 -0.101228 0.000115051 0 -0.0948399 0.0177942 0 -0.101228 0.000115051 0 488.594 488.594 1001.16 
108 1 1 0.253369 0.00696239 0 0 0 0 -0.0847719 -0.012966 0 -0.143006 0.0435902 0 -0.0847719 -0.012966 0 537.343 537.343 1001.27 
109 1 1 0.25728 0.0191193 0 0 0 0 -0.118817 0.00358546 0 -0.174434 0.015283 0 -0.118817 0.00358546 0 447.854 447.854 1001.06 
110 1 1 0.262488 0.011065 0 0 0 0 -0.1037 0.0294397 0 -0.0245368 -0.0797596 0 -0.1037 0.0294397 0 516.545 516.545 1001.23 
111 1 1 0.272538 0.00711605 0 0 0 0 -0.106554 -0.0216921 0 -0.151306 0.0381254 0 -0.106554 -0.0216921 0 565.717 565.717 1001.34 
112 1 1 0.28342 0.00923065 0 0 0 0 -0.105981 0.0165361 0 -0.156465 -0.0172664 0 -0.105981 0.0165361 0 549.645 549.645 1001.3 
113 1 1 0.292686 0.00864355 0 0 0 0 -0.136193 0.013489 0 -0.156462 0.010868 0 -0.136193 0.013489 0 562.258 562.258 1001.33 
114 1 1 0.301901 0.00907693 0 0 0 0 -0.159396 0.0053119 0 -0.100564 -0.0433178 0 -0.159396 0.0053119 0 577.128 577.128 1001.37 
115 1 1 0.31218 0.0184199 0 0 0 0 -0.138919 -0.0406559 0 -0.072409 -0.00574064 0 -0.138919 -0.0406559 0 533.947 533.947 1001.27 
116 1 1 0.312393 0.00793655 0 0 0 0 -0.173296 0.000531824 0 -0.136555 -0.0315227 0 -0.173296 0.000531824 0 599.251 599.251 1001.42 
117 1 1 0.321612 0.0101576 0 0 0 0 -0.133012 -0.0313274 0 -0.102274 0.0462633 0 -0.133012 -0.0313274 0 605.258 605.258 1001.43 
118 1 1 0.330959 0.00743504 0 0 0 0 -0.131105 0.0121151 0 -0.139066 0.0553188 0 -0.131105 0.0121151 0 629.164 629.164 1001.49 
119 1 1 0.340014 0.0110052 0 0 0 0 -0.156575 0.0100003 0 -0.119405 -0.0817211 0 -0.156575 0.0100003 0 614.346 614.346 1001.46 
120 1 1 0.347591 0.0201558 0 0 0 0 -0.172163 -0.00263555 0 -0.0118899 -0.0869939 0 -0.172163 -0.00263555 0 541.02 541.02 1001.28 
121 1 1 0.348602 0.00768873 0 0 0 0 -0.158884 0.00893993 0 -0.0838005 -0.00484684 0 -0.158884 0.00893993 0 633.267 633.267 1001.5 
122 1 1 0.35993 0.00832647 0 0 0 0 -0.171857 -0.00781609 0 0.105102 -0.129926 0 -0.171857 -0.00781609 0 634.374 634.374 1001.5 
123 1 1 0.367487 0.0164869 0 0 0 0 -0.204413 0.00472424 0 -0.00258927 0.0739233 0 -0.204413 0.00472424 0 594.585 594.585 1001.41 
124 1 1 0.372451 0.00698794 0 0 0 0 -0.157026 -0.0119698 0 -0.086118 0.0302976 0 -0.157026 -0.0119698 0 670.006 670.006 1001.59 
125 1 1 0.385094 0.00858706 0 0 0 0 -0.114122 -0.000768228 0 -0.0323742 -0.0868861 0 -0.114122 -0.000768228 0 645.148 645.148 1001.53 
126 1 1 0.387829 0.0169465 0 0 0 0 -0.205142 -0.01862 0 -0.0653035 -0.0388796 0 -0.205142 -0.01862 0 594.657 594.657 1001.41 
127 1 1 0.397022 0.00740557 0 0 0 0 -0.127926 0.0146667 0 -0.0239744 -0.0159028 0 -0.127926 0.0146667 0 667.025 667.025 1001.58 
128 1 1 0.407873 0.00906021 0 0 0 0 -0.159936 -0.0114591 0 -0.0349228 0.0543895 0 -0.159936 -0.0114591 0 660.219 660.219 1001.56 
129 1 1 0.419021 0.00738422 0 0 0 0 -0.123464 -0.00154733 0 0.0523054 -0.0672035 0 -0.123464 -0.00154733 0 670.211 670.211 1001.59 
130 1 1 0.425265 0.0148562 0 0 0 0 -0.111813 -0.0230548 0 0.0662031 0.0270198 0 -0.111813 -0.0230548 0 618.263 618.263 1001.47 
131 1 1 0.432476 0.00758526 0 0 0 0 -0.0999416 -0.0186031 0 -0.169013 0.0198757 0 -0.0999416 -0.0186031 0 679.93 679.93 1001.61 
132 1 1 0.424951 0.0235329 0 0 0 0 -0.115415 -0.0123167 0 0.0899392 -0.0173709 0 -0.115415 -0.0123167 0 541.688 541.688 1001.28 
133 1 1 0.436391 0.0166807 0 0 0 0 -0.0806549 -0.021399 0 0.0941659 -0.0806986 0 -0.0806549 -0.021399 0 616.551 616.551 1001.46 
134 1 1 0.447007 0.0195763 0 0 0 0 -0.0655727 -0.0443071 0 -0.00244248 -0.00219903 0 -0.0655727 -0.0443071 0 584.249 584.249 1001.39 
135 1 1 0.443865 0.00787555 0 0 0 0 -0.0899264 0.00720289 0 0.00679706 -0.0139224 0 -0.0899264 0.00720289 0 649.143 649.143 1001.54 
136 1 1 0.451917 0.0111187 0 0 0 0 -0.0261981 -0.0483194 0 -0.01081 -0.0859616 0 -0.0261981 -0.0483194 0 643.521 643.521 1001.53 
137 1 1 0.462258 0.00643281 0 0 0 0 -0.0370461 0.0109655 0 0.0799881 0.0382863 0 -0.0370461 0.0109655 0 682.547 682.547 1001.62 
138 1 1 0.477303 0.00709816 0 0 0 0 -0.001685 -0.0208403 0 0.0586003 0.00735448 0 -0.001685 -0.0208403 0 687.284 687.284 1001.63 
139 1 1 0.490449 0.00716156 0 0 0 0 0.0106839 0.00364613 0 -0.0397612 0.00206812 0 0.0106839 0.00364613 0 648.878 648.878 1001.54 
140 1 1 0.208114 0.0355647 0 0 0 0 -0.0976463 0.00107184 0 0.0140721 0.00316684 0 -0.0976463 0.00107184 0 224.226 224.226 1000.53 
141 1 1 0.214889 0.0258738 0 0 0 0 -0.0695732 -0.00215672 0 -0.076538 0.0332564 0 -0.0695732 -0.00215672 0 340.71 340.71 1000.81 
142 1 1 0.245497 0.0365913 0 0 0 0 -0.131133 0.0364243 0 -0.0362857 -0.0131166 0 -0.131133 0.0364243 0 237.889 237.889 1000.57 
143 1 1 0.230356 0.0238087 0 0 0 0 -0.080956 0.0276786 0 -0.139922 0.0268957 0 -0.080956 0.0276786 0 370.661 370.661 1000.88 
144 1 1 0.256354 0.0356716 0 0 0 0 -0.153083 -0.0023767 0 -0.0970737 0.014961 0 -0.153083 -0.0023767 0 275.447 275.447 1000.65 
145 1 1 0.242776 0.020951 0 0 0 0 -0.0983443 0.00732365 0 -0.0905747 -0.0226227 0 -0.0983443 0.00732365 0 415.635 415.635 1000.99 
146 1 1 0.2689 0.0348383 0 0 0 0 -0.145741 0.00220815 0 -0.157765 0.00332048 0 -0.145741 0.00220815 0 305.321 305.321 1000.73 
147 1 1 0.250016 0.0268454 0 0 0 0 -0.128674 0.0107926 0 -0.0711193 0.0255464 0 -0.128674 0.0107926 0 361.035 361.035 1000.86 
148 1 1 0.261583 0.0274464 0 0 0 0 -0.121438 0.0116101 0 -0.0432238 -0.0247238 0 -0.121438 0.0116101 0 370.523 370.523 1000.88 
149 1 1 0.268731 0.0181376 0 0 0 0 -0.10414 0.00726908 0 -0.150619 0.0893056 0 -0.10414 0.00726908 0 478.011 478.011 1001.13 
150 1 1 0.295304 0.0300141 0 0 0 0 -0.159982 0.0340706 0 -0.0986946 0.00559908 0 -0.159982 0.0340706 0 403.458 403.458 1000.96 
151 1 1 0.27751 0.0182551 0 0 0 0 -0.157505 -0.000734288 0 -0.0685595 -0.0483792 0 -0.157505 -0.000734288 0 487.03 487.03 1001.16 
152 1 1 0.286328 0.0201699 0 0 0 0 -0.15719 0.0160552 0 -0.123092 0.0359911 0 -0.15719 0.0160552 0 477.466 477.466 1001.13 
153 1 1 0.294639 0.019847 0 0 0 0 -0.146306 0.0363499 0 -0.0728571 -0.0678484 0 -0.146306 0.0363499 0 491.497 491.497 1001.17 
154 1 1 0.322583 0.0210065 0 0 0 0 -0.201033 0.0130309 0 -0.141333 -0.0572776 0 -0.201033 0.0130309 0 523.939 523.939 1001.24 
155 1 1 0.329794 0.0196924 0 0 0 0 -0.200111 0.00144775 0 -0.0150206 -0.176028 0 -0.200111 0.00144775 0 541.304 541.304 1001.28 
156 1 1 0.333907 0.0313841 0 0 0 0 -0.160944 -0.0275352 0 -0.143349 0.00925458 0 -0.160944 -0.0275352 0 428.072 428.072 1001.02 
157 1 1 0.338726 0.0204119 0 0 0 0 -0.20844 0.015008 0 -0.0873019 -0.0175533 0 -0.20844 0.015008 0 537.393 537.393 1001.27 
158 1 1 0.342685 0.0319011 0 0 0 0 -0.164236 0.020102 0 -0.100922 -0.0640982 0 -0.164236 0.020102 0 438.41 438.41 1001.04 
159 1 1 0.351778 0.0291168 0 0 0 0 -0.202515 0.00151504 0 -0.109783 -0.0229689 0 -0.202515 0.00151504 0 472.979 472.979 1001.12 
160 1 1 0.356257 0.0162182 0 0 0 0 -0.184904 0.0187391 0 -0.128231 0.016082 0 -0.184904 0.0187391 0 575.131 575.131 1001.36 
161 1 1 0.361277 0.0245538 0 0 0 0 -0.166601 0.0313165 0 0.0347579 -0.0824838 0 -0.166601 0.0313165 0 529.256 529.256 1001.26 
162 1 1 0.373113 0.0263429 0 0 0 0 -0.147717 -0.0167316 0 -0.189203 -0.014156 0 -0.147717 -0.0167316 0 535.895 535.895 1001.27 
163 1 1 0.376889 0.0156944 0 0 0 0 -0.218559 -0.0544993 0 0.0754145 0.098137 0 -0.218559 -0.0544993 0 608.768 608.768 1001.44 
164 1 1 0.390638 0.026992 0 0 0 0 -0.168103 -0.0266873 0 0.149387 -0.0649417 0 -0.168103 -0.0266873 0 522.862 522.862 1001.24 
165 1 1 0.405117 0.0212421 0 0 0 0 -0.101006 -0.0489601 0 0.18227 -0.140857 0 -0.101006 -0.0489601 0 579.497 579.497 1001.37 
166 1 1 0.397729 0.0162573 0 0 0 0 -0.157591 0.0167034 0 -0.0968733 0.0309001 0 -0.157591 0.0167034 0 610.768 610.768 1001.45 
167 1 1 0.412512 0.0339325 0 0 0 0 -0.173579 -0.0286056 0 -0.0979904 -0.029422 0 -0.173579 -0.0286056 0 463.964 463.964 1001.1 
168 1 1 0.414207 0.0165487 0 0 0 0 -0.0845313 -0.0137379 0 -0.157925 -0.0100285 0 -0.0845313 -0.0137379 0 606.763 606.763 1001.44 
169 1 1 0.41745 0.0416793 0 0 0 0 -0.139072 -0.0417949 0 0.0374223 0.0040319 0 -0.139072 -0.0417949 0 393.638 393.638 1000.93 
170 1 1 0.415826 0.0263765 0 0 0 0 -0.14245 -0.000683275 0 -0.0667712 0.0141178 0 -0.14245 -0.000683275 0 524.177 524.177 1001.24 
171 1 1 0.425622 0.0333556 0 0 0 0 -0.122998 -0.0550686 0 -0.0452515 -0.0257744 0 -0.122998 -0.0550686 0 466.741 466.741 1001.11 
172 1 1 0.436057 0.0247721 0 0 0 0 -0.0910037 -0.0709848 0 -0.00222125 -0.0196018 0 -0.0910037 -0.0709848 0 547.494 547.494 1001.3 
173 1 1 0.448588 0.02789 0 0 0 0 -0.0824183 -0.0412645 0 0.0461988 -0.0908371 0 -0.0824183 -0.0412645 0 516.492 516.492 1001.23 
174 1 1 0.458956 0.0167408 0 0 0 0 -0.0379112 -0.0251005 0 0.12732 0.0880175 0 -0.0379112 -0.0251005 0 628.062 628.062 1001.49 
175 1 1 0.469905 0.0224298 0 0 0 0 -0.0569649 -0.0623624 0 0.0591734 -0.0423973 0 -0.0569649 -0.0623624 0 583.694 583.694 1001.38 
176 1 1 0.470136 0.0139267 0 0 0 0 0.048143 -0.0372587 0 -0.0935094 -0.0309374 0 0.048143 -0.0372587 0 644.638 644.638 1001.53 
177 1 1 0.481541 0.0157365 0 0 0 0 0.0535611 0.0106425 0 0.0432635 -0.0905612 0 0.0535611 0.0106425 0 623.729 623.729 1001.48 
178 1 1 0.49079 0.0173699 0 0 0 0 0.0131033 0.032788 0 0.0608042 0.12041 0 0.0131033 0.032788 0 605.202 605.202 1001.43 
179 1 1 0.196639 0.0352457 0 0 0 0 -0.106202 0.0338422 0 -0.0631926 0.0336649 0 -0.106202 0.0338422 0 220.01 220.01 1000.52 
180 1 1 0.22183 0.0306945 0 0 0 0 -0.0841698 0.00276018 0 -0.0204981 0.00299062 0 -0.0841698 0.00276018 0 300.063 300.063 1000.71 
181 1 1 0.233381 0.0375955 0 0 0 0 -0.113843 0.0590594 0 -0.11114 0.0191015 0 -0.113843 0.0590594 0 228.926 228.926 1000.54 
182 1 1 0.237371 0.0299613 0 0 0 0 -0.117328 0.0257405 0 -0.121958 -0.0149808 0 -0.117328 0.0257405 0 301.261 301.261 1000.72 
183 1 1 0.254214 0.0462326 0 0 0 0 -0.106702 0.0110229 0 -0.153497 0.0336975 0 -0.106702 0.0110229 0 179.308 179.308 1000.43 
184 1 1 0.243281 0.0437702 0 0 0 0 -0.155184 0.042809 0 -0.136422 0.103031 0 -0.155184 0.042809 0 181.94 181.94 1000.43 
185 1 1 0.263927 0.04349 0 0 0 0 -0.153202 0.0188386 0 -0.0942087 0.00654131 0 -0.153202 0.0188386 0 208.856 208.856 1000.5 
186 1 1 0.274403 0.0280037 0 0 0 0 -0.118399 0.0578339 0 -0.0791238 -0.0185144 0 -0.118399 0.0578339 0 387.619 387.619 1000.92 
187 1 1 0.284849 0.0307878 0 0 0 0 -0.141454 0.0168244 0 -0.136145 -0.0174017 0 -0.141454 0.0168244 0 379.318 379.318 1000.9 
188 1 1 0.297846 0.0402817 0 0 0 0 -0.163807 0.0364869 0 -0.145964 -0.0266077 0 -0.163807 0.0364869 0 305.562 305.562 1000.73 
189 1 1 0.307856 0.0400072 0 0 0 0 -0.200024 0.000515095 0 -0.12805 0.0303734 0 -0.200024 0.000515095 0 334.909 334.909 1000.8 
190 1 1 0.304088 0.019256 0 0 0 0 -0.164872 0.0234973 0 -0.126423 0.0133688 0 -0.164872 0.0234973 0 514.301 514.301 1001.22 
191 1 1 0.315933 0.0381314 0 0 0 0 -0.177391 0.000202836 0 -0.0828596 0.0105255 0 -0.177391 0.000202836 0 366.703 366.703 1000.87 
192 1 1 0.316256 0.0285321 0 0 0 0 -0.158837 0.0287518 0 -0.188891 -0.018324 0 -0.158837 0.0287518 0 448.609 448.609 1001.06 
193 1 1 0.331868 0.0440252 0 0 0 0 -0.159943 0.00190304 0 -0.059129 -0.118223 0 -0.159943 0.00190304 0 334.678 334.678 1000.79 
194 1 1 0.32956 0.0560862 0 0 0 0 -0.201441 0.0517027 0 -0.109197 -0.110055 0 -0.201441 0.0517027 0 207.866 207.866 1000.49 
195 1 1 0.342554 0.041747 0 0 0 0 -0.164595 0.0295327 0 -0.0965082 -0.115042 0 -0.164595 0.0295327 0 354.316 354.316 1000.84 
196 1 1 0.352597 0.039807 0 0 0 0 -0.200052 0.0436464 0 -0.0206885 -0.128814 0 -0.200052 0.0436464 0 367.719 367.719 1000.87 
197 1 1 0.361396 0.0463064 0 0 0 0 -0.180977 -0.0227381 0 -0.0274004 -0.181657 0 -0.180977 -0.0227381 0 325.279 325.279 1000.77 
198 1 1 0.362192 0.0337663 0 0 0 0 -0.203121 -0.0115011 0 -0.125553 0.0816337 0 -0.203121 -0.0115011 0 453.504 453.504 1001.08 
199 1 1 0.372525 0.0454184 0 0 0 0 -0.235473 0.0259735 0 -0.100151 0.0935898 0 -0.235473 0.0259735 0 368.404 368.404 1000.87 
200 1 1 0.369779 0.0366067 0 0 0 0 -0.177467 -0.0489754 0 0.0903313 -0.0792849 0 -0.177467 -0.0489754 0 437.183 437.183 1001.04 
201 1 1 0.381452 0.026755 0 0 0 0 -0.163176 -0.0244327 0 -0.0660224 -0.082611 0 -0.163176 -0.0244327 0 528.005 528.005 1001.25 
202 1 1 0.380041 0.0477766 0 0 0 0 -0.202158 -0.075348 0 0.043819 -0.0570548 0 -0.202158 -0.075348 0 348.951 348.951 1000.83 
203 1 1 0.390634 0.0379822 0 0 0 0 -0.14569 -0.044539 0 -0.0471108 -0.0891199 0 -0.14569 -0.044539 0 422.574 422.574 1001 
204 1 1 0.395429 0.0453491 0 0 0 0 -0.179438 -0.0477769 0 -0.0573948 0.0515861 0 -0.179438 -0.0477769 0 358.734 358.734 1000.85 
205 1 1 0.400673 0.0281232 0 0 0 0 -0.151306 -0.0654423 0 -0.0959712 0.185383 0 -0.151306 -0.0654423 0 525.22 525.22 1001.25 
206 1 1 0.402419 0.03716 0 0 0 0 -0.188273 -0.0435937 0 -0.00897714 -0.116751 0 -0.188273 -0.0435937 0 434.224 434.224 1001.03 
207 1 1 0.429371 0.0485865 0 0 0 0 -0.11361 -0.0780539 0 -0.0478974 0.00299428 0 -0.11361 -0.0780539 0 330.929 330.929 1000.79 
208 1 1 0.441394 0.0476604 0 0 0 0 -0.093623 -0.126412 0 -0.00776235 -0.15817 0 -0.093623 -0.126412 0 358.9 358.9 1000.85 
209 1 1 0.430133 0.0407325 0 0 0 0 -0.0999372 -0.0687609 0 0.00148907 -0.0385861 0 -0.0999372 -0.0687609 0 408.933 408.933 1000.97 
210 1 1 0.444914 0.0381235 0 0 0 0 -0.062911 -0.0965386 0 -0.0121219 0.111022 0 -0.062911 -0.0965386 0 438.627 438.627 1001.04 
211 1 1 0.437711 0.0331585 0 0 0 0 -0.117617 -0.0492768 0 -0.0227922 0.0692474 0 -0.117617 -0.0492768 0 475.694 475.694 1001.13 
212 1 1 0.456767 0.0352406 0 0 0 0 -0.0381328 -0.060428 0 0.0414941 -0.000279755 0 -0.0381328 -0.060428 0 468.225 468.225 1001.11 
213 1 1 0.459392 0.0259142 0 0 0 0 -0.0800397 -0.0600373 0 -0.0791221 -0.0069985 0 -0.0800397 -0.0600373 0 556.723 556.723 1001.32 
214 1 1 0.469459 0.0316037 0 0 0 0 -0.0580808 -0.0570959 0 0.151224 0.00291373 0 -0.0580808 -0.0570959 0 513.812 513.812 1001.22 
215 1 1 0.481585 0.0328557 0 0 0 0 0.00702287 -0.0602818 0 -0.142995 0.120581 0 0.00702287 -0.0602818 0 516.723 516.723 1001.23 
216 1 1 0.481376 0.0243617 0 0 0 0 -0.0696817 -0.017005 0 -0.098011 0.0121984 0 -0.0696817 -0.017005 0 569.57 569.57 1001.35 
217 1 1 0.491534 0.0298959 0 0 0 0 0.0136983 0.0405055 0 -0.105235 -0.0491698 0 0.0136983 0.0405055 0 530.368 530.368 1001.26 
218 1 1 0.213629 0.0418605 0 0 0 0 -0.108545 0.00128291 0 -0.0918693 -0.00728134 0 -0.108545 0.00128291 0 175.597 175.597 1000.42 
219 1 1 0.174887 0.0486926 0 0 0 0 -0.106543 0.050459 0 0.0834395 0.151047 0 -0.106543 0.050459 0 100.126 100.126 1000.24 
220 1 1 0.198769 0.0429689 0 0 0 0 -0.094621 0.0302235 0 -0.0732042 0.113751 0 -0.094621 0.0302235 0 155.076 155.076 1000.37 
221 1 1 0.228053 0.0483152 0 0 0 0 -0.15293 0.0299017 0 -0.0989863 0.0681295 0 -0.15293 0.0299017 0 144.35 144.35 1000.34 
222 1 1 0.223648 0.0393295 0 0 0 0 -0.129139 0.0177687 0 -0.096781 -0.00453718 0 -0.129139 0.0177687 0 212.815 212.815 1000.51 
223 1 1 0.27722 0.0485563 0 0 0 0 -0.14555 0.0295133 0 -0.126133 -0.055873 0 -0.14555 0.0295133 0 184.703 184.703 1000.44 
224 1 1 0.277853 0.0394309 0 0 0 0 -0.141305 0.0497118 0 -0.101408 -0.00960042 0 -0.141305 0.0497118 0 281.266 281.266 1000.67 
225 1 1 0.288577 0.040374 0 0 0 0 -0.165418 0.0523743 0 -0.173792 0.0181909 0 -0.165418 0.0523743 0 289.34 289.34 1000.69 
226 1 1 0.294672 0.0517073 0 0 0 0 -0.132826 0.0376048 0 -0.141998 0.032003 0 -0.132826 0.0376048 0 201.896 201.896 1000.48 
227 1 1 0.305183 0.0297175 0 0 0 0 -0.147833 -0.0158919 0 -0.110686 -0.0437247 0 -0.147833 -0.0158919 0 428.884 428.884 1001.02 
228 1 1 0.304376 0.050555 0 0 0 0 -0.13531 0.0412405 0 -0.160635 -0.103097 0 -0.13531 0.0412405 0 223.235 223.235 1000.53 
229 1 1 0.315863 0.0512972 0 0 0 0 -0.145439 -0.0348761 0 -0.14493 -0.103671 0 -0.145439 -0.0348761 0 255.929 255.929 1000.61 
230 1 1 0.326333 0.0332626 0 0 0 0 -0.163495 0.0367628 0 -0.11536 -0.05556 0 -0.163495 0.0367628 0 402.276 402.276 1000.96 
231 1 1 0.323874 0.0454667 0 0 0 0 -0.152362 0.0244893 0 -0.158768 0.00993463 0 -0.152362 0.0244893 0 321.189 321.189 1000.76 
232 1 1 0.3408 0.0507255 0 0 0 0 -0.21966 0.0226876 0 -0.113361 -0.0346918 0 -0.21966 0.0226876 0 279.801 279.801 1000.66 
233 1 1 0.352699 0.0497201 0 0 0 0 -0.16692 0.0504026 0 -0.143107 -0.028708 0 -0.16692 0.0504026 0 273.916 273.916 1000.65 