ITEM: TIMESTEP
186000
ITEM: NUMBER OF ATOMS
754
ITEM: BOX BOUNDS ff ff pp
-0.021 0.521
-0.021 0.5
-0.001 0.001
ITEM: ATOMS id type type x y z ix iy iz vx vy vz fx fy fz vx vy vz p p rho 
1 1 1 0.00619642 0.00238355 0 0 0 0 -0.00501068 -0.00506296 0 0.00591062 -0.03243 0 -0.00501068 -0.00506296 0 455.775 455.775 1001.08 
2 1 1 0.0290795 0.00490721 0 0 0 0 0.0151783 -0.00516651 0 0.0107986 -0.012894 0 0.0151783 -0.00516651 0 426.144 426.144 1001.01 
3 1 1 0.0632351 0.00604892 0 0 0 0 0.021178 -0.0106024 0 -0.0281343 -0.0227075 0 0.021178 -0.0106024 0 441.923 441.923 1001.05 
4 1 1 0.0770986 0.0049338 0 0 0 0 0.0311749 0.00867368 0 -0.00702969 0.00827885 0 0.0311749 0.00867368 0 439.768 439.768 1001.04 
5 1 1 0.0954002 0.00525201 0 0 0 0 0.024037 -0.0113421 0 -0.0529926 -0.0194556 0 0.024037 -0.0113421 0 451.854 451.854 1001.07 
6 1 1 0.109768 0.00591313 0 0 0 0 0.0409076 0.00106417 0 0.00571676 -0.000422295 0 0.0409076 0.00106417 0 444.071 444.071 1001.05 
7 1 1 0.157426 0.0051782 0 0 0 0 -0.0315165 -0.00327061 0 -0.043834 0.018279 0 -0.0315165 -0.00327061 0 449.585 449.585 1001.07 
8 1 1 0.134149 0.01422 0 0 0 0 -0.0248211 0.00054934 0 -0.070444 -0.0342121 0 -0.0248211 0.00054934 0 402.745 402.745 1000.96 
9 1 1 0.189734 0.0059827 0 0 0 0 0.00243649 0.00411586 0 -0.0848201 -0.00983559 0 0.00243649 0.00411586 0 439.044 439.044 1001.04 
10 1 1 0.201446 0.00687396 0 0 0 0 -0.00832509 -0.000203591 0 0.0228544 -0.0149562 0 -0.00832509 -0.000203591 0 442.721 442.721 1001.05 
11 1 1 0.0324174 0.0168569 0 0 0 0 0.0156068 0.00198293 0 -0.030495 -0.0451806 0 0.0156068 0.00198293 0 379.081 379.081 1000.9 
12 1 1 0.0501002 0.00586741 0 0 0 0 0.0288188 0.0120971 0 -0.00726495 0.0113148 0 0.0288188 0.0120971 0 425.173 425.173 1001.01 
13 1 1 0.0701041 0.0140359 0 0 0 0 0.0122405 -0.0164642 0 -0.00706975 -0.0692715 0 0.0122405 -0.0164642 0 394.329 394.329 1000.94 
14 1 1 0.0853231 0.0109254 0 0 0 0 0.013132 0.00172103 0 0.0303985 -0.00816218 0 0.013132 0.00172103 0 417.478 417.478 1000.99 
15 1 1 0.104152 0.0145091 0 0 0 0 0.0111808 -0.01362 0 0.00747506 -0.0551519 0 0.0111808 -0.01362 0 393.542 393.542 1000.93 
16 1 1 0.139945 0.0059874 0 0 0 0 0.000264093 0.00164453 0 -0.00509884 -0.0190157 0 0.000264093 0.00164453 0 439.398 439.398 1001.04 
17 1 1 0.151892 0.0188123 0 0 0 0 0.0333424 0.0131621 0 0.00352119 -0.0339656 0 0.0333424 0.0131621 0 380.847 380.847 1000.9 
18 1 1 0.171158 0.00603447 0 0 0 0 -0.00896405 -0.00690833 0 -0.0836003 -0.00102982 0 -0.00896405 -0.00690833 0 447.989 447.989 1001.06 
19 1 1 0.199316 0.0151745 0 0 0 0 -0.00759293 0.0164858 0 -0.0619865 -0.0386108 0 -0.00759293 0.0164858 0 403.717 403.717 1000.96 
20 1 1 0.189984 0.0169394 0 0 0 0 -0.00993963 -0.00890704 0 0.0120049 -0.0165694 0 -0.00993963 -0.00890704 0 396.385 396.385 1000.94 
21 1 1 0.0322758 0.0262557 0 0 0 0 0.0182914 -0.0195814 0 -0.0372751 0.000415501 0 0.0182914 -0.0195814 0 325.906 325.906 1000.77 
22 1 1 0.0400029 0.00838268 0 0 0 0 0.0254238 -0.0103139 0 -0.0133473 -0.0062242 0 0.0254238 -0.0103139 0 420.398 420.398 1001 
23 1 1 0.0577845 0.0145715 0 0 0 0 0.015521 0.00622307 0 0.0365314 -0.0202831 0 0.015521 0.00622307 0 388.449 388.449 1000.92 
24 1 1 0.084484 0.0278471 0 0 0 0 0.0489308 -0.0048048 0 -0.0293513 0.00919222 0 0.0489308 -0.0048048 0 304.394 304.394 1000.72 
25 1 1 0.0728456 0.0291247 0 0 0 0 0.0427526 0.00586903 0 -0.0218298 -0.0649906 0 0.0427526 0.00586903 0 291.231 291.231 1000.69 
26 1 1 0.12531 0.00482526 0 0 0 0 0.0225975 0.00279403 0 0.00596583 -0.00563033 0 0.0225975 0.00279403 0 456.978 456.978 1001.08 
27 1 1 0.125285 0.0155007 0 0 0 0 -0.0303813 0.0147339 0 -5.78837e-05 0.0452018 0 -0.0303813 0.0147339 0 397.461 397.461 1000.94 
28 1 1 0.167876 0.0146589 0 0 0 0 0.0115944 0.00785549 0 -0.0238647 -0.00633727 0 0.0115944 0.00785549 0 415.014 415.014 1000.99 
29 1 1 0.180558 0.00997657 0 0 0 0 -0.0144694 -0.00980059 0 -0.0327313 0.00232888 0 -0.0144694 -0.00980059 0 428.296 428.296 1001.02 
30 1 1 0.200992 0.0231187 0 0 0 0 0.0113063 -1.86295e-06 0 -0.0872041 -0.030101 0 0.0113063 -1.86295e-06 0 349.656 349.656 1000.83 
31 1 1 0.0183906 0.00893329 0 0 0 0 -0.00338048 -0.000443226 0 0.0278688 0.0118684 0 -0.00338048 -0.000443226 0 417.048 417.048 1000.99 
32 1 1 0.0419722 0.0173424 0 0 0 0 0.00751355 -0.0263919 0 -0.0363304 -0.0203717 0 0.00751355 -0.0263919 0 368.653 368.653 1000.88 
33 1 1 0.0636173 0.0340632 0 0 0 0 0.0175365 -0.0130335 0 -0.0205193 -0.0319656 0 0.0175365 -0.0130335 0 259.839 259.839 1000.62 
34 1 1 0.0872366 0.0186806 0 0 0 0 0.020542 -0.00639334 0 0.0491797 -0.00324324 0 0.020542 -0.00639334 0 371.39 371.39 1000.88 
35 1 1 0.128314 0.0246444 0 0 0 0 0.0742664 0.0153465 0 0.00865689 -0.0217228 0 0.0742664 0.0153465 0 334.493 334.493 1000.79 
36 1 1 0.139918 0.0194624 0 0 0 0 0.0189834 -0.031379 0 -0.0271697 0.0508389 0 0.0189834 -0.031379 0 376.009 376.009 1000.89 
37 1 1 0.147838 0.0111742 0 0 0 0 -0.00249786 0.0222391 0 0.0203972 0.0402641 0 -0.00249786 0.0222391 0 416.952 416.952 1000.99 
38 1 1 0.179907 0.0187231 0 0 0 0 0.0145947 0.00798938 0 -0.011021 -0.0208893 0 0.0145947 0.00798938 0 383.719 383.719 1000.91 
39 1 1 0.197117 0.0317315 0 0 0 0 0.00537865 0.0162311 0 -0.0722261 0.0125198 0 0.00537865 0.0162311 0 288.308 288.308 1000.69 
40 1 1 0.155231 0.0300249 0 0 0 0 0.0010364 0.00675338 0 0.0241029 0.0658257 0 0.0010364 0.00675338 0 309.387 309.387 1000.74 
41 1 1 0.0117025 0.0140112 0 0 0 0 0.0158441 -0.0103599 0 0.00802833 -0.0522363 0 0.0158441 -0.0103599 0 386.984 386.984 1000.92 
42 1 1 0.0340269 0.0412513 0 0 0 0 0.00980081 -0.0136035 0 -0.0390596 0.018537 0 0.00980081 -0.0136035 0 205.247 205.247 1000.49 
43 1 1 0.0512503 0.0176195 0 0 0 0 0.0223167 0.0134374 0 -0.0309014 -0.0384207 0 0.0223167 0.0134374 0 363.747 363.747 1000.86 
44 1 1 0.0789801 0.0357965 0 0 0 0 0.0151404 0.00798786 0 -0.0129311 0.00506674 0 0.0151404 0.00798786 0 248.589 248.589 1000.59 
45 1 1 0.0968568 0.0155824 0 0 0 0 0.0216294 -0.0026587 0 -0.0297251 0.0309707 0 0.0216294 -0.0026587 0 391.325 391.325 1000.93 
46 1 1 0.117303 0.0280794 0 0 0 0 0.034116 0.0116793 0 0.0563497 -0.00706945 0 0.034116 0.0116793 0 300.527 300.527 1000.71 
47 1 1 0.15981 0.0158359 0 0 0 0 0.0227852 -0.0218714 0 0.0203402 -0.00888547 0 0.0227852 -0.0218714 0 408.279 408.279 1000.97 
48 1 1 0.188031 0.0263465 0 0 0 0 0.0274615 0.00655598 0 -0.00601965 -0.0308688 0 0.0274615 0.00655598 0 335.948 335.948 1000.8 
49 1 1 0.184588 0.0342343 0 0 0 0 0.0269392 0.016051 0 -0.00185559 0.00658439 0 0.0269392 0.016051 0 281.509 281.509 1000.67 
50 1 1 0.166959 0.0492312 0 0 0 0 0.0248581 -0.017911 0 -0.0309636 -0.0125003 0 0.0248581 -0.017911 0 229.505 229.505 1000.55 
51 1 1 0.0245621 0.015832 0 0 0 0 0.00368841 -0.0200583 0 -0.0561289 0.106399 0 0.00368841 -0.0200583 0 385.956 385.956 1000.92 
52 1 1 0.0455114 0.0266819 0 0 0 0 0.0525008 -0.00634399 0 -0.0736752 0.0139302 0 0.0525008 -0.00634399 0 299.554 299.554 1000.71 
53 1 1 0.0657105 0.0215068 0 0 0 0 0.0402813 -0.0124688 0 -0.0601354 0.00350974 0 0.0402813 -0.0124688 0 346.228 346.228 1000.82 
54 1 1 0.0942844 0.0283712 0 0 0 0 0.0409421 0.0135179 0 -0.0382351 -0.0451111 0 0.0409421 0.0135179 0 296.646 296.646 1000.7 
55 1 1 0.0974639 0.0379234 0 0 0 0 0.0327115 0.019875 0 0.0651476 -0.0250232 0 0.0327115 0.019875 0 217.813 217.813 1000.52 
56 1 1 0.108776 0.0326962 0 0 0 0 0.0304814 0.00405538 0 -0.0229022 0.000829687 0 0.0304814 0.00405538 0 262.445 262.445 1000.62 
57 1 1 0.145936 0.0279419 0 0 0 0 0.0030277 -0.00573124 0 -0.0386858 -0.0374665 0 0.0030277 -0.00573124 0 319.054 319.054 1000.76 
58 1 1 0.13696 0.0314356 0 0 0 0 0.0399624 0.0241165 0 -0.0093755 -0.0647385 0 0.0399624 0.0241165 0 293.772 293.772 1000.7 
59 1 1 0.175325 0.0338319 0 0 0 0 0.0200358 -0.0152483 0 -0.0399854 -0.00889366 0 0.0200358 -0.0152483 0 288.135 288.135 1000.68 
60 1 1 0.178327 0.044653 0 0 0 0 -0.00125537 -0.0139676 0 -0.0327962 0.0125148 0 -0.00125537 -0.0139676 0 224.475 224.475 1000.53 
61 1 1 0.0571147 0.0275092 0 0 0 0 0.0418478 0.00392177 0 0.00101133 -0.0411728 0 0.0418478 0.00392177 0 304.405 304.405 1000.72 
62 1 1 0.00916028 0.0207405 0 0 0 0 -0.0295937 0.0100545 0 -0.0549319 -0.0172036 0 -0.0295937 0.0100545 0 341.599 341.599 1000.81 
63 1 1 0.0769286 0.0181834 0 0 0 0 0.0224715 0.0197142 0 0.00708089 -0.011385 0 0.0224715 0.0197142 0 366.645 366.645 1000.87 
64 1 1 0.047129 0.0439759 0 0 0 0 -0.0143223 -0.0177317 0 -0.0812011 0.0195236 0 -0.0143223 -0.0177317 0 196.12 196.12 1000.47 
65 1 1 0.0887534 0.0407255 0 0 0 0 0.0176532 -0.0132002 0 -0.0313287 -0.019305 0 0.0176532 -0.0132002 0 214.348 214.348 1000.51 
66 1 1 0.116656 0.0132875 0 0 0 0 0.00310862 0.0162818 0 0.0129096 -0.0646002 0 0.00310862 0.0162818 0 411.617 411.617 1000.98 
67 1 1 0.126366 0.0335424 0 0 0 0 0.0435396 -0.00438106 0 -0.0654958 0.0646211 0 0.0435396 -0.00438106 0 273.718 273.718 1000.65 
68 1 1 0.163942 0.0267657 0 0 0 0 0.00312407 0.00109954 0 -0.0560985 -0.0187082 0 0.00312407 0.00109954 0 336.787 336.787 1000.8 
69 1 1 0.173164 0.0235825 0 0 0 0 0.0172392 0.00164252 0 0.0127252 0.0115133 0 0.0172392 0.00164252 0 354.673 354.673 1000.84 
70 1 1 0.187707 0.0526508 0 0 0 0 0.0219734 0.032614 0 -0.0322712 0.0731815 0 0.0219734 0.032614 0 183.296 183.296 1000.44 
71 1 1 0.00955241 0.0322664 0 0 0 0 0.013351 0.0176289 0 0.0613948 -0.0377341 0 0.013351 0.0176289 0 255.654 255.654 1000.61 
72 1 1 0.0377403 0.0524465 0 0 0 0 -0.0203527 -0.00774666 0 0.0443932 0.0612358 0 -0.0203527 -0.00774666 0 163.153 163.153 1000.39 
73 1 1 0.0231649 0.0316001 0 0 0 0 0.0118421 -0.045368 0 -0.0433502 0.03092 0 0.0118421 -0.045368 0 288.673 288.673 1000.69 
74 1 1 0.0508573 0.0356924 0 0 0 0 0.00333934 0.00518185 0 0.00907979 -0.0285633 0 0.00333934 0.00518185 0 240.499 240.499 1000.57 
75 1 1 0.0792179 0.0477559 0 0 0 0 0.0280359 0.00410881 0 0.0393687 -0.0611196 0 0.0280359 0.00410881 0 179.181 179.181 1000.43 
76 1 1 0.112914 0.0203795 0 0 0 0 0.0183424 0.030679 0 -0.0110107 -0.0169947 0 0.0183424 0.030679 0 355.791 355.791 1000.84 
77 1 1 0.102386 0.0257349 0 0 0 0 0.00688951 -0.0113505 0 0.0106655 -0.0412892 0 0.00688951 -0.0113505 0 313.289 313.289 1000.74 
78 1 1 0.156058 0.0425617 0 0 0 0 0.0157918 0.0295718 0 0.0491695 0.0306339 0 0.0157918 0.0295718 0 239.084 239.084 1000.57 
79 1 1 0.146276 0.0391419 0 0 0 0 0.0254183 0.0154335 0 -0.00896109 -0.0645915 0 0.0254183 0.0154335 0 231.318 231.318 1000.55 
80 1 1 0.157236 0.0581437 0 0 0 0 0.0422276 0.00689662 0 -0.0835146 0.0232289 0 0.0422276 0.00689662 0 168.005 168.005 1000.4 
81 1 1 0.018572 0.0248432 0 0 0 0 -0.0163887 -0.026411 0 0.0949731 0.0246585 0 -0.0163887 -0.026411 0 328.417 328.417 1000.78 
82 1 1 0.0123865 0.0407141 0 0 0 0 0.0224151 -0.0143382 0 0.00451822 -0.0471777 0 0.0224151 -0.0143382 0 204.605 204.605 1000.49 
83 1 1 0.0382971 0.0334693 0 0 0 0 0.00503572 -0.0405869 0 0.0137987 -0.023625 0 0.00503572 -0.0405869 0 258.237 258.237 1000.61 
84 1 1 0.0238285 0.0417591 0 0 0 0 0.0168459 -0.0363115 0 -0.0254719 0.0661996 0 0.0168459 -0.0363115 0 211.495 211.495 1000.5 
85 1 1 0.0694075 0.0428494 0 0 0 0 0.0225767 -0.0030111 0 -0.0436295 -0.0458708 0 0.0225767 -0.0030111 0 194.371 194.371 1000.46 
86 1 1 0.106812 0.0436332 0 0 0 0 0.0587269 -0.0062296 0 0.0335646 0.0951462 0 0.0587269 -0.0062296 0 205.506 205.506 1000.49 
87 1 1 0.116831 0.0406748 0 0 0 0 0.0469902 -0.00796254 0 0.000210471 0.0339304 0 0.0469902 -0.00796254 0 228.35 228.35 1000.54 
88 1 1 0.127003 0.0461105 0 0 0 0 0.0235217 0.0345932 0 0.00482699 -0.0494198 0 0.0235217 0.0345932 0 197.827 197.827 1000.47 
89 1 1 0.135836 0.0424942 0 0 0 0 0.0174267 0.033829 0 -0.0189523 0.0186657 0 0.0174267 0.033829 0 208.33 208.33 1000.5 
90 1 1 0.146599 0.0500099 0 0 0 0 0.0202515 0.0163451 0 -0.0172016 0.0741865 0 0.0202515 0.0163451 0 176.666 176.666 1000.42 
91 1 1 0.0518401 0.0566819 0 0 0 0 0.0135489 -0.041642 0 0.0178025 0.0299903 0 0.0135489 -0.041642 0 174.971 174.971 1000.42 
92 1 1 0.0250894 0.0550691 0 0 0 0 -0.00345797 -0.0129743 0 -0.057113 0.0423622 0 -0.00345797 -0.0129743 0 167.598 167.598 1000.4 
93 1 1 0.0127105 0.0509081 0 0 0 0 0.00280507 -0.0147551 0 0.0249068 0.0442698 0 0.00280507 -0.0147551 0 149.228 149.228 1000.35 
94 1 1 0.0676764 0.0548785 0 0 0 0 0.0296892 -0.00711346 0 -0.0720587 0.0333445 0 0.0296892 -0.00711346 0 125.879 125.879 1000.3 
95 1 1 0.0835165 0.0591918 0 0 0 0 0.0456022 -0.00457856 0 0.0396008 -0.0410684 0 0.0456022 -0.00457856 0 164.002 164.002 1000.39 
96 1 1 0.10607 0.0573395 0 0 0 0 0.0179062 -0.00850985 0 0.0127428 0.024449 0 0.0179062 -0.00850985 0 197.904 197.904 1000.47 
97 1 1 0.0589057 0.0451073 0 0 0 0 0.0194489 -0.0210446 0 -0.0372503 -0.00518711 0 0.0194489 -0.0210446 0 180.706 180.706 1000.43 
98 1 1 0.0950081 0.0507074 0 0 0 0 0.039236 -0.00207774 0 -0.0329024 0.0166307 0 0.039236 -0.00207774 0 194.594 194.594 1000.46 
99 1 1 0.1195 0.0539434 0 0 0 0 0.0490726 0.0360414 0 -0.0331434 0.096712 0 0.0490726 0.0360414 0 163.443 163.443 1000.39 
100 1 1 0.136215 0.0579576 0 0 0 0 -0.00569335 0.0279133 0 -0.0334643 0.0544212 0 -0.00569335 0.0279133 0 197.634 197.634 1000.47 
101 1 1 0.210702 0.0146014 0 0 0 0 -0.0155615 -0.0116093 0 -0.0561505 -0.00347782 0 -0.0155615 -0.0116093 0 411.155 411.155 1000.98 
102 1 1 0.220551 0.017098 0 0 0 0 0.0211446 -0.0151834 0 -0.069956 -0.0299865 0 0.0211446 -0.0151834 0 397.964 397.964 1000.94 
103 1 1 0.229571 0.0242588 0 0 0 0 0.0342095 0.0176437 0 -0.0880752 0.0427124 0 0.0342095 0.0176437 0 353.574 353.574 1000.84 
104 1 1 0.214158 0.00587077 0 0 0 0 -0.00466371 -0.00402618 0 -0.0138598 -0.0141366 0 -0.00466371 -0.00402618 0 461.774 461.774 1001.1 
105 1 1 0.225058 0.00852065 0 0 0 0 -0.00315363 0.00228264 0 -0.0348489 -0.0133604 0 -0.00315363 0.00228264 0 448.886 448.886 1001.07 
106 1 1 0.236546 0.00524877 0 0 0 0 -0.00369099 -0.00407319 0 0.00188307 -0.0258423 0 -0.00369099 -0.00407319 0 468.92 468.92 1001.11 
107 1 1 0.246771 0.0141015 0 0 0 0 0.0185805 0.000663593 0 -0.0646123 0.00510228 0 0.0185805 0.000663593 0 442.841 442.841 1001.05 
108 1 1 0.250612 0.00572437 0 0 0 0 0.000301825 0.000844077 0 0.0363478 0.0170398 0 0.000301825 0.000844077 0 482.263 482.263 1001.14 
109 1 1 0.26088 0.0121134 0 0 0 0 0.000771177 0.00769554 0 -0.0682218 0.00112821 0 0.000771177 0.00769554 0 469.889 469.889 1001.12 
110 1 1 0.272414 0.0164327 0 0 0 0 0.00103033 0.000407837 0 -0.0995923 -0.052367 0 0.00103033 0.000407837 0 441.67 441.67 1001.05 
111 1 1 0.267423 0.0051727 0 0 0 0 -0.0165497 0.00438869 0 -0.0638999 -0.00802032 0 -0.0165497 0.00438869 0 501.484 501.484 1001.19 
112 1 1 0.278226 0.00921828 0 0 0 0 -0.0171245 -0.0101976 0 -0.0145031 -0.00816473 0 -0.0171245 -0.0101976 0 484.089 484.089 1001.15 
113 1 1 0.288259 0.00610086 0 0 0 0 -0.0090063 0.00591164 0 -0.0805751 -0.0285404 0 -0.0090063 0.00591164 0 496.417 496.417 1001.18 
114 1 1 0.299899 0.016556 0 0 0 0 0.000485893 0.0182769 0 -0.0614754 -0.0676127 0 0.000485893 0.0182769 0 457.077 457.077 1001.08 
115 1 1 0.326346 0.0257488 0 0 0 0 -0.00433587 -0.0154873 0 -0.0902209 -0.0216915 0 -0.00433587 -0.0154873 0 434.301 434.301 1001.03 
116 1 1 0.300842 0.00590944 0 0 0 0 -0.0283672 0.00353975 0 0.026269 0.00501959 0 -0.0283672 0.00353975 0 510.39 510.39 1001.21 
117 1 1 0.318427 0.00542788 0 0 0 0 -0.0149576 0.00684133 0 -0.0392548 -0.0177556 0 -0.0149576 0.00684133 0 528.75 528.75 1001.25 
118 1 1 0.327599 0.0104746 0 0 0 0 -0.0224403 -0.00646431 0 -0.0834372 0.029148 0 -0.0224403 -0.00646431 0 524.92 524.92 1001.25 
119 1 1 0.337725 0.00489964 0 0 0 0 0.00419815 -0.00562979 0 -0.0684458 0.00264422 0 0.00419815 -0.00562979 0 546.283 546.283 1001.3 
120 1 1 0.349095 0.0243299 0 0 0 0 -0.0104795 0.0294776 0 -0.0605418 0.0129101 0 -0.0104795 0.0294776 0 450.379 450.379 1001.07 
121 1 1 0.348649 0.0131024 0 0 0 0 -0.00563572 0.00317447 0 -0.105079 -0.0242266 0 -0.00563572 0.00317447 0 517.493 517.493 1001.23 
122 1 1 0.353923 0.00561436 0 0 0 0 0.00746207 -0.00364156 0 -0.0928006 -0.041431 0 0.00746207 -0.00364156 0 558.743 558.743 1001.33 
123 1 1 0.376057 0.0148793 0 0 0 0 -0.0273982 0.00980043 0 -0.0991878 0.00523524 0 -0.0273982 0.00980043 0 540.894 540.894 1001.28 
124 1 1 0.36822 0.00605638 0 0 0 0 -0.0142293 0.00892721 0 -0.0666727 0.0196443 0 -0.0142293 0.00892721 0 557.192 557.192 1001.32 
125 1 1 0.380554 0.00692866 0 0 0 0 -0.0274544 0.000925645 0 -0.0565876 -0.0111561 0 -0.0274544 0.000925645 0 577.532 577.532 1001.37 
126 1 1 0.392207 0.0198458 0 0 0 0 -0.00659323 0.0245257 0 -0.0882548 -0.0461037 0 -0.00659323 0.0245257 0 513.518 513.518 1001.22 
127 1 1 0.392267 0.00636778 0 0 0 0 -0.0289096 0.00711672 0 -0.117813 0.0289374 0 -0.0289096 0.00711672 0 585.238 585.238 1001.39 
128 1 1 0.397752 0.0126211 0 0 0 0 -0.0200502 -0.00984377 0 -0.00483435 0.0102029 0 -0.0200502 -0.00984377 0 563.777 563.777 1001.34 
129 1 1 0.417138 0.010881 0 0 0 0 -0.0258053 -0.0185489 0 0.021541 0.0347167 0 -0.0258053 -0.0185489 0 592.868 592.868 1001.41 
130 1 1 0.425633 0.00608337 0 0 0 0 0.00977911 -0.0060662 0 -0.0894171 0.00920055 0 0.00977911 -0.0060662 0 608.989 608.989 1001.44 
131 1 1 0.438647 0.00632466 0 0 0 0 0.00768329 0.00298028 0 -0.0729185 0.0103852 0 0.00768329 0.00298028 0 600.641 600.641 1001.42 
132 1 1 0.433526 0.0142793 0 0 0 0 -0.00453073 0.00161452 0 -0.0325475 -0.00089026 0 -0.00453073 0.00161452 0 582.327 582.327 1001.38 
133 1 1 0.445871 0.0145583 0 0 0 0 0.00861013 0.0262664 0 -0.00938003 0.0168727 0 0.00861013 0.0262664 0 587.794 587.794 1001.39 
134 1 1 0.454888 0.021082 0 0 0 0 0.0135837 -0.0245618 0 -0.133775 -0.0185756 0 0.0135837 -0.0245618 0 563.467 563.467 1001.34 
135 1 1 0.451251 0.00640485 0 0 0 0 -0.00982144 -0.00804238 0 -0.00638793 -0.0206421 0 -0.00982144 -0.00804238 0 611.521 611.521 1001.45 
136 1 1 0.458216 0.0138666 0 0 0 0 0.00926596 -0.0125917 0 -0.0109536 -0.0803216 0 0.00926596 -0.0125917 0 598.437 598.437 1001.42 
137 1 1 0.464967 0.00504262 0 0 0 0 0.00500277 0.00074273 0 0.0418864 0.0467965 0 0.00500277 0.00074273 0 626.912 626.912 1001.49 
138 1 1 0.47904 0.00602622 0 0 0 0 -0.0180716 -0.00199905 0 -0.0125685 0.014005 0 -0.0180716 -0.00199905 0 625.933 625.933 1001.48 
139 1 1 0.492824 0.00563727 0 0 0 0 1.62595e-05 -0.00358092 0 -0.00514534 -0.00769496 0 1.62595e-05 -0.00358092 0 623.3 623.3 1001.48 
140 1 1 0.207982 0.0324158 0 0 0 0 -0.00483627 -0.0194222 0 -0.00580662 0.0133222 0 -0.00483627 -0.0194222 0 277.699 277.699 1000.66 
141 1 1 0.212008 0.0234581 0 0 0 0 0.0287246 -0.0228049 0 -0.022111 -0.0400603 0 0.0287246 -0.0228049 0 346.876 346.876 1000.82 
142 1 1 0.254917 0.0389999 0 0 0 0 0.00489302 0.011768 0 -0.0810374 -0.0288255 0 0.00489302 0.011768 0 271.588 271.588 1000.65 
143 1 1 0.241261 0.0271113 0 0 0 0 0.017307 -0.00532628 0 -0.0740393 -0.0588765 0 0.017307 -0.00532628 0 346.339 346.339 1000.82 
144 1 1 0.250812 0.0264431 0 0 0 0 -0.00906991 0.017138 0 -0.0781934 0.0142358 0 -0.00906991 0.017138 0 366.723 366.723 1000.87 
145 1 1 0.231492 0.0154375 0 0 0 0 0.0117807 0.00566755 0 -0.0518811 -0.0190327 0 0.0117807 0.00566755 0 411.7 411.7 1000.98 
146 1 1 0.25922 0.0300591 0 0 0 0 -0.00466817 0.022099 0 -0.0549186 0.00930531 0 -0.00466817 0.022099 0 348.778 348.778 1000.83 
147 1 1 0.240247 0.0170469 0 0 0 0 0.00492724 -0.0170602 0 -0.0358735 -0.0418007 0 0.00492724 -0.0170602 0 415.515 415.515 1000.99 
148 1 1 0.256521 0.0179157 0 0 0 0 0.00779482 0.015094 0 -0.0688453 0.0329494 0 0.00779482 0.015094 0 433.623 433.623 1001.03 
149 1 1 0.277884 0.0268804 0 0 0 0 0.00431062 -0.0190343 0 -0.0851008 -0.00763368 0 0.00431062 -0.0190343 0 371.172 371.172 1000.88 
150 1 1 0.296785 0.0356369 0 0 0 0 0.00041621 0.0223075 0 -0.0768847 -0.0020396 0 0.00041621 0.0223075 0 319.63 319.63 1000.76 
151 1 1 0.283041 0.0178912 0 0 0 0 -0.00189519 -0.00823865 0 -0.0691143 -0.0338501 0 -0.00189519 -0.00823865 0 434.067 434.067 1001.03 
152 1 1 0.289548 0.0262329 0 0 0 0 -0.00692067 0.00504682 0 -0.0557963 -0.0462633 0 -0.00692067 0.00504682 0 374.979 374.979 1000.89 
153 1 1 0.291988 0.0152187 0 0 0 0 -0.000160061 0.00571113 0 -0.0578311 0.0159912 0 -0.000160061 0.00571113 0 455.34 455.34 1001.08 
154 1 1 0.310071 0.0109669 0 0 0 0 -0.02158 -0.0167042 0 -0.138479 0.0169933 0 -0.02158 -0.0167042 0 503.878 503.878 1001.2 
155 1 1 0.330515 0.0168795 0 0 0 0 0.0128986 -0.0270862 0 -0.058 0.0271333 0 0.0128986 -0.0270862 0 499.23 499.23 1001.18 
156 1 1 0.318505 0.0174473 0 0 0 0 -0.00445519 0.000821324 0 -0.0100135 -0.063914 0 -0.00445519 0.000821324 0 475.08 475.08 1001.13 
157 1 1 0.3411 0.0146095 0 0 0 0 0.00893235 -0.00226375 0 -0.0963195 0.00178272 0 0.00893235 -0.00226375 0 511.414 511.414 1001.21 
158 1 1 0.339571 0.0245811 0 0 0 0 -0.0189307 -0.00993262 0 -0.0707189 -0.0410665 0 -0.0189307 -0.00993262 0 448.681 448.681 1001.06 
159 1 1 0.362643 0.0297878 0 0 0 0 -0.000151849 -0.00516024 0 -0.101383 -0.0166573 0 -0.000151849 -0.00516024 0 430.241 430.241 1001.02 
160 1 1 0.357487 0.0199184 0 0 0 0 -0.0242563 0.0169481 0 -0.0723745 -0.0146218 0 -0.0242563 0.0169481 0 483.857 483.857 1001.15 
161 1 1 0.362056 0.0134248 0 0 0 0 -0.020137 0.0102272 0 -0.0251531 -0.00937889 0 -0.020137 0.0102272 0 522.899 522.899 1001.24 
162 1 1 0.378211 0.0260332 0 0 0 0 -0.0233914 -0.0169279 0 -0.0311002 0.0630541 0 -0.0233914 -0.0169279 0 472.944 472.944 1001.12 
163 1 1 0.385152 0.0174511 0 0 0 0 -0.00741491 -0.0288945 0 -0.0993283 -0.0590016 0 -0.00741491 -0.0288945 0 525.923 525.923 1001.25 
164 1 1 0.408488 0.0314724 0 0 0 0 0.023829 -0.00462347 0 -0.122504 -0.0207117 0 0.023829 -0.00462347 0 458.997 458.997 1001.09 
165 1 1 0.407754 0.00503458 0 0 0 0 -0.0259657 -0.00480415 0 -0.144327 -0.0299178 0 -0.0259657 -0.00480415 0 602.192 602.192 1001.43 
166 1 1 0.405967 0.0224126 0 0 0 0 0.0126764 -0.00230173 0 -0.0354604 0.0224792 0 0.0126764 -0.00230173 0 522.052 522.052 1001.24 
167 1 1 0.417735 0.0387016 0 0 0 0 -0.0204077 -0.0161196 0 -0.00281599 -0.0236954 0 -0.0204077 -0.0161196 0 412.504 412.504 1000.98 
168 1 1 0.42773 0.019225 0 0 0 0 -0.0296584 -0.0217101 0 -0.0619414 -0.00834863 0 -0.0296584 -0.0217101 0 558.462 558.462 1001.32 
169 1 1 0.427851 0.0473662 0 0 0 0 -0.0249813 0.00608511 0 -0.143194 -0.0213461 0 -0.0249813 0.00608511 0 371.203 371.203 1000.88 
170 1 1 0.418957 0.0191081 0 0 0 0 -0.0218236 -0.040492 0 -0.128478 -0.0966614 0 -0.0218236 -0.040492 0 551.154 551.154 1001.31 
171 1 1 0.426645 0.0323242 0 0 0 0 0.0244878 -0.0384214 0 -0.0854588 -0.0756992 0 0.0244878 -0.0384214 0 463.018 463.018 1001.1 
172 1 1 0.44211 0.0211997 0 0 0 0 -0.0139424 -0.0172406 0 -0.0940675 -0.0107965 0 -0.0139424 -0.0172406 0 562.358 562.358 1001.33 
173 1 1 0.448156 0.0299997 0 0 0 0 -0.0150671 -0.0111164 0 -0.0608395 -0.0882153 0 -0.0150671 -0.0111164 0 510.58 510.58 1001.21 
174 1 1 0.473085 0.0141589 0 0 0 0 0.00220328 0.0104437 0 -0.0539009 -0.0530153 0 0.00220328 0.0104437 0 604.964 604.964 1001.43 
175 1 1 0.47216 0.027829 0 0 0 0 0.0174852 -0.0342529 0 -0.0512758 -0.135677 0 0.0174852 -0.0342529 0 540.618 540.618 1001.28 
176 1 1 0.479994 0.0223572 0 0 0 0 0.0152787 -0.0394629 0 0.0062738 -0.015367 0 0.0152787 -0.0394629 0 563.008 563.008 1001.34 
177 1 1 0.484679 0.013914 0 0 0 0 0.0239282 -0.0178036 0 -0.00110653 -0.0283797 0 0.0239282 -0.0178036 0 600.523 600.523 1001.42 
178 1 1 0.491222 0.0185038 0 0 0 0 0.00838879 0.0249526 0 0.0397672 0.0253462 0 0.00838879 0.0249526 0 588.588 588.588 1001.4 
179 1 1 0.200878 0.0421998 0 0 0 0 0.00233886 0.0151769 0 0.0269173 0.0590258 0 0.00233886 0.0151769 0 226.134 226.134 1000.54 
180 1 1 0.220657 0.0284513 0 0 0 0 0.00719135 -0.024115 0 -0.0460944 0.0195438 0 0.00719135 -0.024115 0 325.476 325.476 1000.77 
181 1 1 0.224724 0.0376282 0 0 0 0 -0.0228636 -0.0227948 0 -0.00720399 0.0353852 0 -0.0228636 -0.0227948 0 271.751 271.751 1000.65 
182 1 1 0.233871 0.0339841 0 0 0 0 0.015623 0.014233 0 -0.0977717 -0.012308 0 0.015623 0.014233 0 292.53 292.53 1000.7 
183 1 1 0.257778 0.049789 0 0 0 0 0.0152823 0.0104686 0 -0.0524235 0.0252937 0 0.0152823 0.0104686 0 202.872 202.872 1000.48 
184 1 1 0.245588 0.0466836 0 0 0 0 0.0132676 0.0371417 0 -0.0842025 0.0199574 0 0.0132676 0.0371417 0 196.248 196.248 1000.47 
185 1 1 0.244305 0.0369221 0 0 0 0 0.00342502 0.0267527 0 -0.0197889 -0.0292688 0 0.00342502 0.0267527 0 268.679 268.679 1000.64 
186 1 1 0.267014 0.0224429 0 0 0 0 -0.0184605 0.0174674 0 -0.0633973 0.00612242 0 -0.0184605 0.0174674 0 404.012 404.012 1000.96 
187 1 1 0.284588 0.0341578 0 0 0 0 0.00688933 0.017632 0 -0.101563 0.0149461 0 0.00688933 0.017632 0 319.98 319.98 1000.76 
188 1 1 0.290855 0.0432871 0 0 0 0 -0.0214195 0.00709824 0 -0.07891 0.0111363 0 -0.0214195 0.00709824 0 275.01 275.01 1000.65 
189 1 1 0.308031 0.0323184 0 0 0 0 -0.00488939 0.00488179 0 -0.0824688 -0.0442101 0 -0.00488939 0.00488179 0 362.565 362.565 1000.86 
190 1 1 0.309685 0.0204493 0 0 0 0 -0.0184793 -0.0108472 0 -0.0300487 0.00120774 0 -0.0184793 -0.0108472 0 446.533 446.533 1001.06 
191 1 1 0.314787 0.0403546 0 0 0 0 -0.00769153 -0.02029 0 -0.073424 0.0339385 0 -0.00769153 -0.02029 0 317.078 317.078 1000.75 
192 1 1 0.317431 0.0283869 0 0 0 0 -0.0211067 -0.0215157 0 -0.126108 0.0489448 0 -0.0211067 -0.0215157 0 404.38 404.38 1000.96 
193 1 1 0.34521 0.0361946 0 0 0 0 -0.028765 -0.0200139 0 -0.165 -0.031328 0 -0.028765 -0.0200139 0 369.057 369.057 1000.88 
194 1 1 0.326539 0.0470407 0 0 0 0 -0.00959438 -0.0247488 0 -0.100647 0.00927348 0 -0.00959438 -0.0247488 0 285.023 285.023 1000.68 
195 1 1 0.350637 0.0455417 0 0 0 0 -0.00597018 0.0138592 0 -0.0780557 -0.100376 0 -0.00597018 0.0138592 0 308.885 308.885 1000.73 
196 1 1 0.353688 0.0331171 0 0 0 0 -0.0114661 0.0252714 0 -0.0244701 -0.00586047 0 -0.0114661 0.0252714 0 397.849 397.849 1000.94 
197 1 1 0.369939 0.0436699 0 0 0 0 -0.0101642 0.0151235 0 -0.0501867 0.00595943 0 -0.0101642 0.0151235 0 337.203 337.203 1000.8 
198 1 1 0.370214 0.0322585 0 0 0 0 -0.0222733 0.044655 0 -0.0845413 -0.0286122 0 -0.0222733 0.044655 0 419.343 419.343 1001 
199 1 1 0.379612 0.0378821 0 0 0 0 0.00497012 -0.0210367 0 -0.085804 -0.0234026 0 0.00497012 -0.0210367 0 398.059 398.059 1000.95 
200 1 1 0.369061 0.01989 0 0 0 0 -0.0187156 0.0171462 0 -0.0612509 0.00231189 0 -0.0187156 0.0171462 0 503.992 503.992 1001.2 
201 1 1 0.39685 0.028115 0 0 0 0 0.0109224 -0.00361056 0 -0.0151259 0.017744 0 0.0109224 -0.00361056 0 472.416 472.416 1001.12 
202 1 1 0.388283 0.042637 0 0 0 0 -0.0346566 0.011408 0 -0.0970861 -0.0294236 0 -0.0346566 0.011408 0 366.267 366.267 1000.87 
203 1 1 0.397601 0.0372427 0 0 0 0 -0.0330568 -0.0272817 0 -0.0753209 -0.0473667 0 -0.0330568 -0.0272817 0 412.216 412.216 1000.98 
204 1 1 0.407573 0.0537296 0 0 0 0 -0.00569074 -0.0182222 0 -0.1694 -0.076037 0 -0.00569074 -0.0182222 0 313.36 313.36 1000.74 
205 1 1 0.407234 0.0155274 0 0 0 0 -0.0362033 0.0140961 0 -0.0696226 -0.0789424 0 -0.0362033 0.0140961 0 562.995 562.995 1001.34 
206 1 1 0.417932 0.0280237 0 0 0 0 0.0350019 0.00860136 0 -0.0998652 -0.025009 0 0.0350019 0.00860136 0 485.808 485.808 1001.15 
207 1 1 0.443259 0.0465931 0 0 0 0 0.00642503 -0.0494466 0 -0.139909 -0.0553313 0 0.00642503 -0.0494466 0 399.806 399.806 1000.95 
208 1 1 0.441842 0.035612 0 0 0 0 -0.00306232 0.0122779 0 -0.0298458 -0.00279763 0 -0.00306232 0.0122779 0 462.834 462.834 1001.1 
209 1 1 0.432567 0.0400723 0 0 0 0 -0.0268096 0.0221751 0 -0.0397844 -0.0321257 0 -0.0268096 0.0221751 0 416.222 416.222 1000.99 
210 1 1 0.455307 0.0355268 0 0 0 0 -0.00148389 -0.0380545 0 0.077106 0.106595 0 -0.00148389 -0.0380545 0 493.929 493.929 1001.17 
211 1 1 0.434571 0.0275514 0 0 0 0 0.00513792 0.00115175 0 -0.0556854 -0.0465411 0 0.00513792 0.00115175 0 512.114 512.114 1001.21 
212 1 1 0.4614 0.028144 0 0 0 0 -0.00493719 0.037536 0 -0.0326182 -0.0327341 0 -0.00493719 0.037536 0 534.288 534.288 1001.27 
213 1 1 0.46686 0.0174269 0 0 0 0 -0.00921019 0.0263403 0 -0.0416887 0.065431 0 -0.00921019 0.0263403 0 592.956 592.956 1001.41 
214 1 1 0.472941 0.0436988 0 0 0 0 0.00451494 0.0148297 0 0.0233593 -0.123672 0 0.00451494 0.0148297 0 456.522 456.522 1001.08 
215 1 1 0.489841 0.0290248 0 0 0 0 -0.0144055 0.0155766 0 -0.0337212 -0.0206306 0 -0.0144055 0.0155766 0 549.955 549.955 1001.3 
216 1 1 0.481188 0.0332563 0 0 0 0 -0.012571 0.0491459 0 -0.0551835 0.0785246 0 -0.012571 0.0491459 0 512.854 512.854 1001.22 
217 1 1 0.489629 0.0406653 0 0 0 0 -0.0151123 -0.0344833 0 0.0570299 -0.12964 0 -0.0151123 -0.0344833 0 499.351 499.351 1001.18 
218 1 1 0.22355 0.0483583 0 0 0 0 -0.017265 -0.00210828 0 -0.041745 0.0260387 0 -0.017265 -0.00210828 0 211.817 211.817 1000.5 
219 1 1 0.16549 0.0373773 0 0 0 0 -0.00534195 -0.0148839 0 -0.0231619 0.0384422 0 -0.00534195 -0.0148839 0 280.868 280.868 1000.67 
220 1 1 0.191947 0.042975 0 0 0 0 -0.000333927 0.0259285 0 -0.024343 -0.0136166 0 -0.000333927 0.0259285 0 220.741 220.741 1000.52 
221 1 1 0.234998 0.0458012 0 0 0 0 -0.00307093 -0.0330956 0 -0.0876411 0.0489915 0 -0.00307093 -0.0330956 0 220.013 220.013 1000.52 
222 1 1 0.214008 0.0392405 0 0 0 0 -0.00112507 -0.0114393 0 -0.0127533 0.0016303 0 -0.00112507 -0.0114393 0 255.103 255.103 1000.61 
223 1 1 0.265774 0.0418873 0 0 0 0 -0.00379137 0.0217174 0 -0.0670785 -0.00488763 0 -0.00379137 0.0217174 0 266.122 266.122 1000.63 
224 1 1 0.269919 0.0329488 0 0 0 0 0.0158047 -0.0100736 0 -0.043679 -5.12954e-05 0 0.0158047 -0.0100736 0 333.578 333.578 1000.79 
225 1 1 0.277645 0.0413149 0 0 0 0 -0.0350549 -0.0144432 0 -0.0857448 -0.00455997 0 -0.0350549 -0.0144432 0 279.759 279.759 1000.66 
226 1 1 0.293222 0.0535463 0 0 0 0 0.0208695 0.00867797 0 -0.0755175 -0.0153953 0 0.0208695 0.00867797 0 225.495 225.495 1000.54 
227 1 1 0.299897 0.0260298 0 0 0 0 -0.0185897 0.0242378 0 -0.0443975 0.00856274 0 -0.0185897 0.0242378 0 392.394 392.394 1000.93 
228 1 1 0.303904 0.0429036 0 0 0 0 0.00790031 0.0185601 0 -0.0953345 0.0528806 0 0.00790031 0.0185601 0 282.808 282.808 1000.67 
229 1 1 0.313867 0.0518063 0 0 0 0 0.0268331 0.0135327 0 -0.0456158 -0.042868 0 0.0268331 0.0135327 0 251.098 251.098 1000.6 