ITEM: TIMESTEP
69000
ITEM: NUMBER OF ATOMS
754
ITEM: BOX BOUNDS ff ff pp
-0.021 0.521
-0.021 0.5
-0.001 0.001
ITEM: ATOMS id type type x y z ix iy iz vx vy vz fx fy fz vx vy vz p p rho 
1 1 1 0.00837826 0.00757788 0 0 0 0 0.00130344 -0.0193906 0 0.0426173 0.00573163 0 0.00130344 -0.0193906 0 471.857 471.857 1001.12 
2 1 1 0.0196089 0.00768647 0 0 0 0 0.00644658 0.00883095 0 -0.0350568 0.0619867 0 0.00644658 0.00883095 0 490.441 490.441 1001.16 
3 1 1 0.0479377 0.0069688 0 0 0 0 0.0317807 0.011319 0 0.0377788 -0.0545522 0 0.0317807 0.011319 0 509.389 509.389 1001.21 
4 1 1 0.06561 0.00759318 0 0 0 0 0.0469855 0.00127648 0 0.0225368 0.0495714 0 0.0469855 0.00127648 0 492.187 492.187 1001.17 
5 1 1 0.0892376 0.00740919 0 0 0 0 9.32532e-05 0.00535645 0 0.0239572 0.00927932 0 9.32532e-05 0.00535645 0 489.488 489.488 1001.16 
6 1 1 0.101939 0.00742337 0 0 0 0 -0.0152785 -0.000747126 0 0.0642963 -0.00740069 0 -0.0152785 -0.000747126 0 479.83 479.83 1001.14 
7 1 1 0.139503 0.00841951 0 0 0 0 -0.025797 0.0278178 0 0.0961457 0.0175609 0 -0.025797 0.0278178 0 449.451 449.451 1001.07 
8 1 1 0.149495 0.00902131 0 0 0 0 -0.030491 -0.015413 0 -0.0140923 -0.0191867 0 -0.030491 -0.015413 0 455.879 455.879 1001.08 
9 1 1 0.189466 0.00809277 0 0 0 0 -0.032924 -0.00995892 0 -0.160017 -0.055105 0 -0.032924 -0.00995892 0 461.854 461.854 1001.1 
10 1 1 0.208972 0.00811964 0 0 0 0 -0.0233191 -0.000666785 0 0.0694273 -0.0112363 0 -0.0233191 -0.000666785 0 476.818 476.818 1001.13 
11 1 1 0.0141663 0.023698 0 0 0 0 0.0307345 -0.0896577 0 -0.0124855 -0.116044 0 0.0307345 -0.0896577 0 334.058 334.058 1000.79 
12 1 1 0.0330247 0.0069349 0 0 0 0 0.0040513 0.00402142 0 0.0289564 0.0271035 0 0.0040513 0.00402142 0 511.38 511.38 1001.21 
13 1 1 0.0573921 0.011547 0 0 0 0 0.0312681 -0.0215418 0 -0.0234257 -0.0019499 0 0.0312681 -0.0215418 0 478.732 478.732 1001.14 
14 1 1 0.0767148 0.00831798 0 0 0 0 0.0391276 0.00929223 0 0.0633378 -0.0392663 0 0.0391276 0.00929223 0 481.969 481.969 1001.14 
15 1 1 0.100108 0.0210013 0 0 0 0 -0.0169986 -0.00146479 0 0.146687 -0.12593 0 -0.0169986 -0.00146479 0 366.926 366.926 1000.87 
16 1 1 0.12967 0.00872662 0 0 0 0 0.00176966 -0.00123721 0 -0.0699347 -0.0104436 0 0.00176966 -0.00123721 0 445.013 445.013 1001.06 
17 1 1 0.147666 0.0184659 0 0 0 0 -0.0452357 0.0152307 0 -0.0980634 -0.00341893 0 -0.0452357 0.0152307 0 367.623 367.623 1000.87 
18 1 1 0.176697 0.00702946 0 0 0 0 -0.0466231 -0.00701777 0 -0.046677 0.0384438 0 -0.0466231 -0.00701777 0 484.357 484.357 1001.15 
19 1 1 0.199331 0.00937329 0 0 0 0 -0.0269135 0.00536232 0 -0.0389803 -0.000689643 0 -0.0269135 0.00536232 0 452.016 452.016 1001.07 
20 1 1 0.20361 0.0184667 0 0 0 0 -0.0252529 -0.00907626 0 -0.13299 -0.0829178 0 -0.0252529 -0.00907626 0 389.952 389.952 1000.93 
21 1 1 0.0234657 0.0212292 0 0 0 0 0.0612564 0.0191928 0 -0.0275041 0.0966114 0 0.0612564 0.0191928 0 382.755 382.755 1000.91 
22 1 1 0.0248884 0.014779 0 0 0 0 0.0114287 -0.0169007 0 0.069569 -0.144221 0 0.0114287 -0.0169007 0 448.052 448.052 1001.06 
23 1 1 0.0390433 0.0142933 0 0 0 0 0.0360072 -0.0502818 0 -0.0884962 -0.116358 0 0.0360072 -0.0502818 0 440.347 440.347 1001.05 
24 1 1 0.0770004 0.0233395 0 0 0 0 -0.000362067 0.0666051 0 0.0917677 0.0288148 0 -0.000362067 0.0666051 0 337.307 337.307 1000.8 
25 1 1 0.0826679 0.0156444 0 0 0 0 -0.00463515 0.0352887 0 0.0954446 -0.026585 0 -0.00463515 0.0352887 0 420.105 420.105 1001 
26 1 1 0.117546 0.00731609 0 0 0 0 -0.00255326 -0.003623 0 0.0481033 -0.056314 0 -0.00255326 -0.003623 0 469.252 469.252 1001.11 
27 1 1 0.135415 0.01812 0 0 0 0 -0.0553259 0.00596924 0 0.0161607 -0.0979913 0 -0.0553259 0.00596924 0 375.863 375.863 1000.89 
28 1 1 0.160964 0.00715915 0 0 0 0 -0.0667066 0.0175749 0 0.00208708 -0.00576321 0 -0.0667066 0.0175749 0 462.78 462.78 1001.1 
29 1 1 0.190908 0.0174098 0 0 0 0 -0.0293286 0.00518208 0 0.0406706 0.0158209 0 -0.0293286 0.00518208 0 395.478 395.478 1000.94 
30 1 1 0.208967 0.024596 0 0 0 0 -0.0434373 0.0123536 0 -0.0294868 0.0280174 0 -0.0434373 0.0123536 0 337.789 337.789 1000.8 
31 1 1 0.00962061 0.0169382 0 0 0 0 0.00135553 0.0133303 0 0.0379774 0.00489337 0 0.00135553 0.0133303 0 412.593 412.593 1000.98 
32 1 1 0.0358448 0.0216894 0 0 0 0 0.0635487 -0.00975315 0 -0.163351 -0.0570868 0 0.0635487 -0.00975315 0 369.964 369.964 1000.88 
33 1 1 0.070527 0.0178799 0 0 0 0 0.0303742 0.000755769 0 0.0129201 -0.171765 0 0.0303742 0.000755769 0 406.733 406.733 1000.97 
34 1 1 0.0945542 0.0159017 0 0 0 0 -0.00432572 0.000753469 0 -0.000846879 -0.0509046 0 -0.00432572 0.000753469 0 419.236 419.236 1001 
35 1 1 0.122896 0.0155229 0 0 0 0 -0.0737383 -0.0134036 0 0.0937827 0.0439792 0 -0.0737383 -0.0134036 0 396.668 396.668 1000.94 
36 1 1 0.1384 0.02521 0 0 0 0 -0.0551853 0.0101928 0 0.104439 0.0274503 0 -0.0551853 0.0101928 0 304.823 304.823 1000.72 
37 1 1 0.166678 0.0136289 0 0 0 0 -0.0235076 -0.0245256 0 -0.0238766 -0.0229019 0 -0.0235076 -0.0245256 0 426.52 426.52 1001.01 
38 1 1 0.18039 0.0161029 0 0 0 0 -0.00890534 -0.0112769 0 0.0175995 0.0125574 0 -0.00890534 -0.0112769 0 407.017 407.017 1000.97 
39 1 1 0.197069 0.0263968 0 0 0 0 -0.0388042 -0.0164291 0 -0.022565 -0.0268842 0 -0.0388042 -0.0164291 0 304.486 304.486 1000.72 
40 1 1 0.182509 0.0340702 0 0 0 0 -0.05112 0.00625108 0 -0.0594322 0.0964967 0 -0.05112 0.00625108 0 221.802 221.802 1000.53 
41 1 1 0.00849788 0.0307517 0 0 0 0 -0.00579021 -0.0557908 0 -0.220922 -0.130653 0 -0.00579021 -0.0557908 0 227.612 227.612 1000.54 
42 1 1 0.0293848 0.0423385 0 0 0 0 0.187652 0.00727211 0 0.066924 0.0567058 0 0.187652 0.00727211 0 160.497 160.497 1000.38 
43 1 1 0.0481584 0.0172805 0 0 0 0 0.0475293 -0.00421836 0 0.126173 0.0214538 0 0.0475293 -0.00421836 0 414.215 414.215 1000.98 
44 1 1 0.0752469 0.0353172 0 0 0 0 0.0105671 0.0790831 0 0.0125352 0.0175689 0 0.0105671 0.0790831 0 249.946 249.946 1000.59 
45 1 1 0.103575 0.0302061 0 0 0 0 -0.0603919 0.0137736 0 0.0392459 -0.0294192 0 -0.0603919 0.0137736 0 280.587 280.587 1000.67 
46 1 1 0.126376 0.0252734 0 0 0 0 -0.0163234 0.00682131 0 0.00968241 -0.038567 0 -0.0163234 0.00682131 0 305.22 305.22 1000.73 
47 1 1 0.156482 0.0180683 0 0 0 0 -0.056704 0.0261205 0 0.0636867 0.0293414 0 -0.056704 0.0261205 0 370.717 370.717 1000.88 
48 1 1 0.186129 0.025649 0 0 0 0 -0.0658214 -0.0125285 0 -0.0987118 -0.013396 0 -0.0658214 -0.0125285 0 311.078 311.078 1000.74 
49 1 1 0.193292 0.035572 0 0 0 0 -0.0696067 -0.0200624 0 -0.066206 -0.049701 0 -0.0696067 -0.0200624 0 198.976 198.976 1000.47 
50 1 1 0.176943 0.046045 0 0 0 0 -0.102626 0.00628326 0 -0.0707211 0.105834 0 -0.102626 0.00628326 0 113.647 113.647 1000.27 
51 1 1 0.0071733 0.0413346 0 0 0 0 0.0546904 -0.082143 0 0.0678522 0.197554 0 0.0546904 -0.082143 0 167.975 167.975 1000.4 
52 1 1 0.0425186 0.0272905 0 0 0 0 -0.019799 -0.00400511 0 -0.00305003 -0.0271459 0 -0.019799 -0.00400511 0 329.313 329.313 1000.78 
53 1 1 0.0554954 0.0259658 0 0 0 0 0.058215 0.021898 0 0.00736052 0.0472549 0 0.058215 0.021898 0 360.665 360.665 1000.86 
54 1 1 0.0875244 0.0247487 0 0 0 0 -0.0241621 0.0161016 0 0.0665095 0.0484867 0 -0.0241621 0.0161016 0 331.3 331.3 1000.79 
55 1 1 0.108957 0.0336924 0 0 0 0 -0.0159376 0.028983 0 0.184937 -0.0049914 0 -0.0159376 0.028983 0 246.481 246.481 1000.59 
56 1 1 0.131424 0.0340774 0 0 0 0 -0.0298052 0.0324549 0 -0.0188591 0.0296298 0 -0.0298052 0.0324549 0 211.682 211.682 1000.5 
57 1 1 0.154607 0.0284426 0 0 0 0 -0.0633832 0.0113777 0 0.0266572 -0.0374022 0 -0.0633832 0.0113777 0 265.343 265.343 1000.63 
58 1 1 0.160057 0.0381652 0 0 0 0 -0.0271143 -0.00194516 0 -0.0263648 -0.00815141 0 -0.0271143 -0.00194516 0 155.549 155.549 1000.37 
59 1 1 0.174643 0.0299135 0 0 0 0 -0.0498742 -0.0347811 0 -0.014446 -0.00971739 0 -0.0498742 -0.0347811 0 264.887 264.887 1000.63 
60 1 1 0.193179 0.0448204 0 0 0 0 -0.0821608 -0.0172382 0 -0.0950054 -0.0184822 0 -0.0821608 -0.0172382 0 119.108 119.108 1000.28 
61 1 1 0.049833 0.0328768 0 0 0 0 0.129262 -0.0635974 0 -0.00597023 -0.0120887 0 0.129262 -0.0635974 0 280.783 280.783 1000.67 
62 1 1 0.0271599 0.0300175 0 0 0 0 -0.0724677 -0.00473731 0 -0.207208 0.0465014 0 -0.0724677 -0.00473731 0 292.702 292.702 1000.7 
63 1 1 0.0612617 0.0208777 0 0 0 0 0.0370395 -0.00135367 0 0.0579679 -0.17458 0 0.0370395 -0.00135367 0 410.58 410.58 1000.97 
64 1 1 0.0658489 0.0403838 0 0 0 0 0.0507368 0.0448987 0 0.0282722 -0.060126 0 0.0507368 0.0448987 0 255.641 255.641 1000.61 
65 1 1 0.0933788 0.0312885 0 0 0 0 -0.0393461 0.0289319 0 0.0545838 0.0753884 0 -0.0393461 0.0289319 0 267.978 267.978 1000.64 
66 1 1 0.109108 0.0133247 0 0 0 0 -0.0102136 -0.000725554 0 0.0107333 0.00952971 0 -0.0102136 -0.000725554 0 434.314 434.314 1001.03 
67 1 1 0.145313 0.0311234 0 0 0 0 -0.0282881 0.014822 0 -0.0662842 -0.0272291 0 -0.0282881 0.014822 0 231.57 231.57 1000.55 
68 1 1 0.163862 0.026783 0 0 0 0 -0.0409063 -0.00670433 0 -0.0300046 0.01774 0 -0.0409063 -0.00670433 0 296.227 296.227 1000.7 
69 1 1 0.172145 0.0198433 0 0 0 0 -0.0721779 -0.0239596 0 -0.00157855 0.0278692 0 -0.0721779 -0.0239596 0 374.293 374.293 1000.89 
70 1 1 0.165424 0.0476116 0 0 0 0 -0.0866103 0.021706 0 -0.0741366 0.160157 0 -0.0866103 0.021706 0 96.5925 96.5925 1000.23 
71 1 1 0.0228485 0.0439606 0 0 0 0 0.0425112 -0.116471 0 -0.194442 -0.236213 0 0.0425112 -0.116471 0 164.713 164.713 1000.39 
72 1 1 0.0438936 0.0474717 0 0 0 0 0.106561 0.0317156 0 -0.0783329 -0.000121789 0 0.106561 0.0317156 0 213.36 213.36 1000.51 
73 1 1 0.0338966 0.034721 0 0 0 0 0.0931071 -0.0766653 0 -0.0311459 -0.124487 0 0.0931071 -0.0766653 0 257.223 257.223 1000.61 
74 1 1 0.0675166 0.0295705 0 0 0 0 0.00787622 0.0137384 0 -0.0579985 0.0293456 0 0.00787622 0.0137384 0 300.695 300.695 1000.71 
75 1 1 0.0826218 0.0358943 0 0 0 0 0.0451762 0.0666151 0 0.101213 -0.0841144 0 0.0451762 0.0666151 0 235.788 235.788 1000.56 
76 1 1 0.112614 0.0205592 0 0 0 0 -0.0499224 0.0390062 0 0.0251667 0.0635094 0 -0.0499224 0.0390062 0 370.611 370.611 1000.88 
77 1 1 0.119216 0.027905 0 0 0 0 -0.0235771 -0.0139377 0 -0.0383891 0.123328 0 -0.0235771 -0.0139377 0 297.115 297.115 1000.71 
78 1 1 0.149502 0.0389113 0 0 0 0 -0.0618619 0.0224993 0 -0.00911392 0.0164527 0 -0.0618619 0.0224993 0 139.495 139.495 1000.33 
79 1 1 0.16958 0.0379407 0 0 0 0 -0.0455193 -0.0201732 0 -0.0388498 -0.0444103 0 -0.0455193 -0.0201732 0 170.051 170.051 1000.4 
80 1 1 0.123665 0.0497308 0 0 0 0 -0.0819032 0.00841915 0 0.140305 0.148048 0 -0.0819032 0.00841915 0 95.4314 95.4314 1000.23 
81 1 1 0.00559572 0.0596513 0 0 0 0 -0.0337467 -0.127471 0 -0.103682 -0.0847626 0 -0.0337467 -0.127471 0 47.1855 47.1855 1000.11 
82 1 1 0.0156866 0.0344243 0 0 0 0 0.0259022 0.0303906 0 0.314875 0.200944 0 0.0259022 0.0303906 0 249.416 249.416 1000.59 
83 1 1 0.0429361 0.0411198 0 0 0 0 0.0313184 -0.0686929 0 -0.0794429 -0.129623 0 0.0313184 -0.0686929 0 230.378 230.378 1000.55 
84 1 1 0.0568228 0.0393173 0 0 0 0 0.0112694 0.0930435 0 -0.0300041 -0.0596325 0 0.0112694 0.0930435 0 231.873 231.873 1000.55 
85 1 1 0.0867107 0.0422534 0 0 0 0 -0.0798086 0.122639 0 0.0393191 0.10203 0 -0.0798086 0.122639 0 188.645 188.645 1000.45 
86 1 1 0.0990554 0.0418888 0 0 0 0 -0.00692063 -0.0230187 0 0.0848836 -0.0599104 0 -0.00692063 -0.0230187 0 164.261 164.261 1000.39 
87 1 1 0.114289 0.0421767 0 0 0 0 -0.0507467 0.0446538 0 0.00141377 0.0914232 0 -0.0507467 0.0446538 0 151.503 151.503 1000.36 
88 1 1 0.121856 0.0400177 0 0 0 0 -0.103605 -0.0312396 0 0.157127 -0.0755594 0 -0.103605 -0.0312396 0 167.94 167.94 1000.4 
89 1 1 0.136035 0.0408176 0 0 0 0 -0.0464556 0.0130827 0 -0.0289686 -0.00432482 0 -0.0464556 0.0130827 0 141.651 141.651 1000.34 
90 1 1 0.139207 0.0462134 0 0 0 0 -0.106888 0.0239525 0 0.0364389 0.215857 0 -0.106888 0.0239525 0 101.343 101.343 1000.24 
91 1 1 0.043181 0.0575458 0 0 0 0 0.0203564 -0.0755712 0 -0.346051 0.369897 0 0.0203564 -0.0755712 0 242.345 242.345 1000.58 
92 1 1 0.0170945 0.0509986 0 0 0 0 0.0260613 -0.165458 0 -0.368557 -0.00461188 0 0.0260613 -0.165458 0 145.366 145.366 1000.35 
93 1 1 0.0255757 0.0546216 0 0 0 0 0.0634784 -0.0932918 0 0.203723 -0.0464252 0 0.0634784 -0.0932918 0 53.2349 53.2349 1000.13 
94 1 1 0.0583113 0.0611581 0 0 0 0 0.253015 0.082496 0 -0.224685 -0.181961 0 0.253015 0.082496 0 120.192 120.192 1000.29 
95 1 1 0.0584629 0.0498191 0 0 0 0 0.0801454 0.0291517 0 -0.153023 -0.0975438 0 0.0801454 0.0291517 0 172.755 172.755 1000.41 
96 1 1 0.0678845 0.0615714 0 0 0 0 0.117068 0.257164 0 0.182233 -0.190161 0 0.117068 0.257164 0 87.9422 87.9422 1000.21 
97 1 1 0.0720438 0.0493889 0 0 0 0 -0.0184325 0.0685042 0 0.281257 -0.167866 0 -0.0184325 0.0685042 0 210.536 210.536 1000.5 
98 1 1 0.0934505 0.0501944 0 0 0 0 -0.0741974 0.0659806 0 0.194841 0.154147 0 -0.0741974 0.0659806 0 139.76 139.76 1000.33 
99 1 1 0.106393 0.0492233 0 0 0 0 -0.130414 0.0462211 0 0.143712 0.152836 0 -0.130414 0.0462211 0 99.039 99.039 1000.24 
100 1 1 0.0815027 0.0566191 0 0 0 0 0.00313832 0.13104 0 0.304219 -0.0380916 0 0.00313832 0.13104 0 197.88 197.88 1000.47 
101 1 1 0.215919 0.0156932 0 0 0 0 -0.0300719 0.0151106 0 -0.112387 0.0541577 0 -0.0300719 0.0151106 0 427.501 427.501 1001.01 
102 1 1 0.2217 0.00745528 0 0 0 0 -0.0524373 0.00497506 0 -0.118914 0.00808075 0 -0.0524373 0.00497506 0 490.035 490.035 1001.16 
103 1 1 0.224205 0.0185251 0 0 0 0 0.00347745 0.0022279 0 0.00382596 0.00952328 0 0.00347745 0.0022279 0 406.009 406.009 1000.96 
104 1 1 0.232221 0.00924697 0 0 0 0 -0.0636925 -0.000895827 0 -0.0812216 -0.0288338 0 -0.0636925 -0.000895827 0 471.619 471.619 1001.12 
105 1 1 0.237285 0.0163045 0 0 0 0 0.00773884 -0.0250396 0 -0.0688069 -0.048239 0 0.00773884 -0.0250396 0 428.405 428.405 1001.02 
106 1 1 0.243702 0.00738761 0 0 0 0 -0.0261331 -0.022644 0 -0.0365056 0.0265704 0 -0.0261331 -0.022644 0 509.412 509.412 1001.21 
107 1 1 0.252156 0.0152341 0 0 0 0 -0.0170437 -0.0140528 0 -0.100191 -0.0359569 0 -0.0170437 -0.0140528 0 460.685 460.685 1001.09 
108 1 1 0.257418 0.00758075 0 0 0 0 -0.00243632 0.00551697 0 -0.0810102 -0.00988272 0 -0.00243632 0.00551697 0 522.096 522.096 1001.24 
109 1 1 0.262039 0.0175452 0 0 0 0 -0.0187834 0.0396059 0 -0.0242855 -0.0249269 0 -0.0187834 0.0396059 0 441.98 441.98 1001.05 
110 1 1 0.269066 0.0080531 0 0 0 0 -0.0427829 0.00853643 0 -0.0493697 0.0363992 0 -0.0427829 0.00853643 0 530.919 530.919 1001.26 
111 1 1 0.278175 0.0101787 0 0 0 0 -0.0334574 -0.0112114 0 -0.0826464 -0.109982 0 -0.0334574 -0.0112114 0 527.026 527.026 1001.25 
112 1 1 0.288838 0.00773986 0 0 0 0 -0.0349947 0.0191409 0 -0.0192453 0.0311601 0 -0.0349947 0.0191409 0 552.468 552.468 1001.31 
113 1 1 0.299989 0.0078822 0 0 0 0 -0.050033 -0.0135456 0 -0.0623319 0.0163502 0 -0.050033 -0.0135456 0 570.207 570.207 1001.35 
114 1 1 0.312188 0.00840679 0 0 0 0 -0.0590697 -0.00289253 0 -0.181227 0.00587026 0 -0.0590697 -0.00289253 0 568.454 568.454 1001.35 
115 1 1 0.321042 0.0195261 0 0 0 0 -0.0452293 0.018399 0 -0.0554421 -0.0509142 0 -0.0452293 0.018399 0 506.222 506.222 1001.2 
116 1 1 0.322797 0.00792618 0 0 0 0 -0.0534049 -0.00283354 0 -0.110992 -0.0312512 0 -0.0534049 -0.00283354 0 578.795 578.795 1001.37 
117 1 1 0.329845 0.013688 0 0 0 0 -0.0642367 -0.0152478 0 -0.0901802 -0.0481888 0 -0.0642367 -0.0152478 0 558.835 558.835 1001.33 
118 1 1 0.337739 0.00731887 0 0 0 0 -0.0304056 -0.00295992 0 -0.033472 0.00997473 0 -0.0304056 -0.00295992 0 609.644 609.644 1001.45 
119 1 1 0.349087 0.00869343 0 0 0 0 -0.0664228 0.0184064 0 -0.122146 -0.00256651 0 -0.0664228 0.0184064 0 611.064 611.064 1001.45 
120 1 1 0.360214 0.0172556 0 0 0 0 -0.0630719 0.0305065 0 -0.125815 0.00978198 0 -0.0630719 0.0305065 0 559.797 559.797 1001.33 
121 1 1 0.359546 0.00762542 0 0 0 0 -0.0920785 0.0111156 0 0.0348607 -0.0272691 0 -0.0920785 0.0111156 0 627.914 627.914 1001.49 
122 1 1 0.374053 0.00698598 0 0 0 0 -0.126523 -0.0083377 0 -0.0813056 0.0438195 0 -0.126523 -0.0083377 0 658.372 658.372 1001.56 
123 1 1 0.382126 0.0171645 0 0 0 0 -0.0917802 -0.012048 0 -0.0693953 0.0318896 0 -0.0917802 -0.012048 0 598.629 598.629 1001.42 
124 1 1 0.385407 0.0102964 0 0 0 0 -0.113655 -0.021786 0 -0.173671 0.0111819 0 -0.113655 -0.021786 0 643.075 643.075 1001.52 
125 1 1 0.394211 0.0080701 0 0 0 0 -0.0676176 -0.0213314 0 -0.03595 0.0213398 0 -0.0676176 -0.0213314 0 674.398 674.398 1001.6 
126 1 1 0.400128 0.0173989 0 0 0 0 -0.101107 0.0109579 0 0.127978 0.013528 0 -0.101107 0.0109579 0 615.507 615.507 1001.46 
127 1 1 0.405682 0.00904785 0 0 0 0 -0.0486057 -0.0375307 0 -0.224566 -0.0877842 0 -0.0486057 -0.0375307 0 666.747 666.747 1001.58 
128 1 1 0.415664 0.00850976 0 0 0 0 -0.00371179 0.0174356 0 0.0743156 -0.0262837 0 -0.00371179 0.0174356 0 681.464 681.464 1001.61 
129 1 1 0.427682 0.00736829 0 0 0 0 -0.0565468 0.0033242 0 -0.165268 0.0444337 0 -0.0565468 0.0033242 0 729.422 729.422 1001.73 
130 1 1 0.431852 0.0170451 0 0 0 0 -0.0296477 -0.0183761 0 -0.0571675 -0.0722785 0 -0.0296477 -0.0183761 0 658.617 658.617 1001.56 
131 1 1 0.438681 0.00869163 0 0 0 0 -0.0584687 0.0159968 0 -0.0493632 -0.0520817 0 -0.0584687 0.0159968 0 706.073 706.073 1001.67 
132 1 1 0.436885 0.023846 0 0 0 0 -0.103305 0.0195581 0 -0.196239 -0.0262303 0 -0.103305 0.0195581 0 601.176 601.176 1001.43 
133 1 1 0.444952 0.0159999 0 0 0 0 -0.0421687 0.0260223 0 -0.143051 -0.0213776 0 -0.0421687 0.0260223 0 657.316 657.316 1001.56 
134 1 1 0.451134 0.0212915 0 0 0 0 -0.0495017 0.0128532 0 0.024881 -0.00282588 0 -0.0495017 0.0128532 0 628.399 628.399 1001.49 
135 1 1 0.450229 0.00738078 0 0 0 0 -0.0689086 -0.0180143 0 0.0264417 -0.0552744 0 -0.0689086 -0.0180143 0 730.452 730.452 1001.73 
136 1 1 0.458305 0.0132981 0 0 0 0 -0.100178 -0.0144766 0 -0.0470576 -0.0307924 0 -0.100178 -0.0144766 0 702.953 702.953 1001.67 
137 1 1 0.465128 0.00751211 0 0 0 0 -0.0239837 -0.0105351 0 0.0398164 -0.0115628 0 -0.0239837 -0.0105351 0 742.933 742.933 1001.76 
138 1 1 0.478279 0.00731644 0 0 0 0 -0.0182155 0.00055427 0 0.0404782 0.0591001 0 -0.0182155 0.00055427 0 755.297 755.297 1001.79 
139 1 1 0.49075 0.00775549 0 0 0 0 -0.0212608 -0.00849955 0 -0.0690177 0.00630946 0 -0.0212608 -0.00849955 0 736.08 736.08 1001.74 
140 1 1 0.215459 0.0366108 0 0 0 0 -0.0543977 -0.0258577 0 -0.116796 -0.0399143 0 -0.0543977 -0.0258577 0 209.107 209.107 1000.5 
141 1 1 0.217709 0.0280137 0 0 0 0 -0.00647026 -0.0296932 0 -0.00951907 -0.0475444 0 -0.00647026 -0.0296932 0 309.234 309.234 1000.73 
142 1 1 0.253611 0.0341494 0 0 0 0 -0.0473628 0.0242082 0 -0.0925046 -0.0506358 0 -0.0473628 0.0242082 0 253.712 253.712 1000.6 
143 1 1 0.232476 0.0237296 0 0 0 0 0.0238435 -0.021925 0 -0.0545782 0.0368979 0 0.0238435 -0.021925 0 358.296 358.296 1000.85 
144 1 1 0.264005 0.0372333 0 0 0 0 -0.00782842 -0.0257464 0 -0.108407 -0.0443086 0 -0.00782842 -0.0257464 0 239.649 239.649 1000.57 
145 1 1 0.246992 0.0206422 0 0 0 0 0.000766873 -0.0165176 0 -0.0783969 0.0303839 0 0.000766873 -0.0165176 0 405.788 405.788 1000.96 
146 1 1 0.276203 0.034583 0 0 0 0 -0.0338379 0.0100958 0 -0.116179 -0.0600583 0 -0.0338379 0.0100958 0 298.377 298.377 1000.71 
147 1 1 0.257894 0.0271454 0 0 0 0 -0.0317797 0.000321707 0 -0.145408 -0.0765949 0 -0.0317797 0.000321707 0 340.105 340.105 1000.81 
148 1 1 0.268574 0.0271556 0 0 0 0 -0.0244578 -0.00902077 0 -0.0805241 0.0572678 0 -0.0244578 -0.00902077 0 357.911 357.911 1000.85 
149 1 1 0.271842 0.0190438 0 0 0 0 0.0206751 -0.0129651 0 -0.0647572 -0.039019 0 0.0206751 -0.0129651 0 439.56 439.56 1001.04 
150 1 1 0.303633 0.0274573 0 0 0 0 -0.0138743 0.00880178 0 -0.140865 -0.0276231 0 -0.0138743 0.00880178 0 393.442 393.442 1000.93 
151 1 1 0.28525 0.0170008 0 0 0 0 -0.0100766 -0.00206279 0 -0.0737109 0.0404316 0 -0.0100766 -0.00206279 0 479.942 479.942 1001.14 
152 1 1 0.294878 0.0193977 0 0 0 0 -0.0135324 0.0243554 0 -0.192164 -0.125414 0 -0.0135324 0.0243554 0 473.565 473.565 1001.12 
153 1 1 0.303304 0.016399 0 0 0 0 -0.0505576 0.0237468 0 -0.0412815 0.0501322 0 -0.0505576 0.0237468 0 508.486 508.486 1001.21 
154 1 1 0.334544 0.0205835 0 0 0 0 -0.0593035 -0.0179595 0 -0.188674 0.0281873 0 -0.0593035 -0.0179595 0 508.321 508.321 1001.21 
155 1 1 0.343423 0.0175786 0 0 0 0 -0.0656261 0.0270549 0 -0.170405 -0.0106101 0 -0.0656261 0.0270549 0 544.938 544.938 1001.29 
156 1 1 0.342761 0.030552 0 0 0 0 -0.0657683 0.0466993 0 0.00192567 -0.0946165 0 -0.0657683 0.0466993 0 419.992 419.992 1001 
157 1 1 0.351269 0.0199555 0 0 0 0 -0.0682513 0.0256023 0 -0.163203 -0.0480353 0 -0.0682513 0.0256023 0 529.333 529.333 1001.26 
158 1 1 0.353623 0.0288583 0 0 0 0 -0.0797832 0.0300379 0 -0.143114 -0.0146826 0 -0.0797832 0.0300379 0 446.476 446.476 1001.06 
159 1 1 0.364465 0.0268383 0 0 0 0 -0.0908463 0.0617701 0 -0.0877686 -0.014077 0 -0.0908463 0.0617701 0 480.235 480.235 1001.14 
160 1 1 0.369173 0.0144435 0 0 0 0 -0.116604 0.0232891 0 -0.183876 -0.0588021 0 -0.116604 0.0232891 0 599.143 599.143 1001.42 
161 1 1 0.373714 0.0222569 0 0 0 0 -0.0559963 -0.0214881 0 -0.173167 0.0992676 0 -0.0559963 -0.0214881 0 540.298 540.298 1001.28 
162 1 1 0.381953 0.0279065 0 0 0 0 -0.0832229 -0.0126384 0 0.0076946 -0.0335365 0 -0.0832229 -0.0126384 0 510.25 510.25 1001.21 
163 1 1 0.393313 0.0208636 0 0 0 0 -0.0894241 -0.0573819 0 -0.314622 -0.0946169 0 -0.0894241 -0.0573819 0 585.581 585.581 1001.39 
164 1 1 0.404467 0.027845 0 0 0 0 -0.0807443 -0.00578547 0 -0.217117 -0.0959045 0 -0.0807443 -0.00578547 0 531.835 531.835 1001.26 
165 1 1 0.415738 0.0258179 0 0 0 0 -0.0645197 -0.0767542 0 -0.136879 -0.0842465 0 -0.0645197 -0.0767542 0 556.622 556.622 1001.32 
166 1 1 0.411101 0.0177041 0 0 0 0 -0.154163 -0.0249612 0 -0.13456 0.138374 0 -0.154163 -0.0249612 0 613.019 613.019 1001.45 
167 1 1 0.424142 0.0352914 0 0 0 0 -0.0655206 0.00342303 0 -0.107822 -0.0759792 0 -0.0655206 0.00342303 0 490.137 490.137 1001.16 
168 1 1 0.42222 0.0166711 0 0 0 0 -0.0674748 0.0160243 0 -0.16651 -0.045321 0 -0.0674748 0.0160243 0 651.086 651.086 1001.54 
169 1 1 0.42896 0.0448621 0 0 0 0 -0.083734 0.00242321 0 -0.177986 -0.0543706 0 -0.083734 0.00242321 0 397.397 397.397 1000.94 
170 1 1 0.425772 0.0269258 0 0 0 0 -0.100694 0.00232286 0 0.0621276 0.00163614 0 -0.100694 0.00232286 0 567.989 567.989 1001.35 
171 1 1 0.434722 0.0356109 0 0 0 0 -0.0714421 0.00287796 0 -0.127149 -0.118944 0 -0.0714421 0.00287796 0 497.034 497.034 1001.18 
172 1 1 0.443094 0.0290972 0 0 0 0 -0.0664792 -0.0168495 0 0.0104947 -0.0298282 0 -0.0664792 -0.0168495 0 565.391 565.391 1001.34 
173 1 1 0.455049 0.0317575 0 0 0 0 -0.0409738 -0.0296492 0 -0.0997762 -0.0799267 0 -0.0409738 -0.0296492 0 556.105 556.105 1001.32 
174 1 1 0.461765 0.0229723 0 0 0 0 0.00447421 -0.0773531 0 0.00186846 -0.171523 0 0.00447421 -0.0773531 0 637.984 637.984 1001.51 
175 1 1 0.475278 0.0272495 0 0 0 0 -0.0161966 -0.0463723 0 -0.0527447 -0.00469386 0 -0.0161966 -0.0463723 0 635.249 635.249 1001.51 
176 1 1 0.469534 0.0170837 0 0 0 0 -0.0397657 -0.0459295 0 -0.0188147 0.0055819 0 -0.0397657 -0.0459295 0 706.487 706.487 1001.67 
177 1 1 0.478737 0.0150543 0 0 0 0 -0.015085 0.00927327 0 0.0662108 -0.03438 0 -0.015085 0.00927327 0 724.506 724.506 1001.72 
178 1 1 0.490612 0.0170354 0 0 0 0 0.00238352 -0.0262742 0 0.0107791 -0.00299755 0 0.00238352 -0.0262742 0 708.668 708.668 1001.68 
179 1 1 0.204182 0.0347988 0 0 0 0 -0.0572509 -0.00187748 0 -0.0233125 -0.0421588 0 -0.0572509 -0.00187748 0 225.327 225.327 1000.54 
180 1 1 0.227864 0.0313475 0 0 0 0 -0.0474142 -0.0208911 0 -0.0473279 -0.0170346 0 -0.0474142 -0.0208911 0 274.682 274.682 1000.65 
181 1 1 0.240778 0.0361815 0 0 0 0 -0.0446551 -0.0224363 0 -0.11182 -0.0339918 0 -0.0446551 -0.0224363 0 227.001 227.001 1000.54 
182 1 1 0.243346 0.0284777 0 0 0 0 -0.026262 0.00969678 0 -0.0859547 -0.0103515 0 -0.026262 0.00969678 0 315.904 315.904 1000.75 
183 1 1 0.259232 0.0455378 0 0 0 0 -0.00940503 0.00104795 0 -0.131559 0.0542757 0 -0.00940503 0.00104795 0 163.416 163.416 1000.39 
184 1 1 0.248658 0.0422095 0 0 0 0 0.0199772 0.000732674 0 -0.0316074 0.00979562 0 0.0199772 0.000732674 0 164.213 164.213 1000.39 
185 1 1 0.271285 0.0430456 0 0 0 0 -0.00712791 -0.00122328 0 -0.0920045 -0.0285625 0 -0.00712791 -0.00122328 0 201.152 201.152 1000.48 
186 1 1 0.280855 0.0247459 0 0 0 0 -0.0143378 0.0185704 0 -0.11985 0.0132073 0 -0.0143378 0.0185704 0 397.356 397.356 1000.94 
187 1 1 0.292258 0.0282191 0 0 0 0 -0.0466102 0.0286117 0 -0.0578855 0.0453704 0 -0.0466102 0.0286117 0 382.926 382.926 1000.91 
188 1 1 0.30578 0.0363756 0 0 0 0 -0.012612 0.0599205 0 -0.142406 0.0276488 0 -0.012612 0.0599205 0 316.867 316.867 1000.75 
189 1 1 0.318272 0.0413397 0 0 0 0 -0.042736 -0.0185333 0 -0.109666 -0.0641572 0 -0.042736 -0.0185333 0 292.105 292.105 1000.69 
190 1 1 0.312484 0.0183329 0 0 0 0 -0.0462176 -0.0103663 0 -0.0605767 0.0516021 0 -0.0462176 -0.0103663 0 499.959 499.959 1001.19 
191 1 1 0.327551 0.0372372 0 0 0 0 -0.0797539 0.00178125 0 -0.108519 0.037354 0 -0.0797539 0.00178125 0 340.796 340.796 1000.81 
192 1 1 0.322562 0.0284909 0 0 0 0 -0.00821164 -0.0247053 0 -0.0546272 -0.00299857 0 -0.00821164 -0.0247053 0 424.484 424.484 1001.01 
193 1 1 0.342541 0.0400085 0 0 0 0 -0.0645966 0.0778132 0 -0.122576 -0.0915879 0 -0.0645966 0.0778132 0 311.017 311.017 1000.74 
194 1 1 0.341795 0.0488872 0 0 0 0 -0.0660959 0.0813719 0 -0.0998022 0.105676 0 -0.0660959 0.0813719 0 232.132 232.132 1000.55 
195 1 1 0.353244 0.0375835 0 0 0 0 -0.0592906 0.0328071 0 -0.142879 0.085766 0 -0.0592906 0.0328071 0 355.644 355.644 1000.84 
196 1 1 0.36438 0.0356398 0 0 0 0 -0.0465886 0.00925187 0 -0.0897752 0.0615663 0 -0.0465886 0.00925187 0 405.275 405.275 1000.96 
197 1 1 0.375486 0.0437127 0 0 0 0 -0.102003 0.0400439 0 -0.214631 0.0412237 0 -0.102003 0.0400439 0 323.12 323.12 1000.77 
198 1 1 0.374543 0.0344846 0 0 0 0 -0.0687502 0.0127815 0 -0.216997 -0.0814694 0 -0.0687502 0.0127815 0 426.071 426.071 1001.01 
199 1 1 0.386976 0.0489983 0 0 0 0 -0.101576 -0.0540653 0 -0.0849918 -0.0918292 0 -0.101576 -0.0540653 0 306.268 306.268 1000.73 
200 1 1 0.384817 0.0388977 0 0 0 0 -0.0919777 -0.0323341 0 -0.11007 -0.0233913 0 -0.0919777 -0.0323341 0 409.819 409.819 1000.97 
201 1 1 0.392737 0.0289599 0 0 0 0 -0.0861195 -0.00655208 0 -0.147689 0.0490027 0 -0.0861195 -0.00655208 0 519.138 519.138 1001.23 
202 1 1 0.396683 0.0508885 0 0 0 0 -0.12614 0.0300344 0 -0.180091 -0.101917 0 -0.12614 0.0300344 0 309.434 309.434 1000.74 
203 1 1 0.402622 0.0405323 0 0 0 0 -0.11062 -0.0176286 0 -0.101998 -0.104309 0 -0.11062 -0.0176286 0 431.596 431.596 1001.02 
204 1 1 0.407776 0.0476915 0 0 0 0 -0.0905636 -0.0148486 0 -0.0847324 0.105183 0 -0.0905636 -0.0148486 0 370.623 370.623 1000.88 
205 1 1 0.410798 0.0337585 0 0 0 0 -0.0678469 -0.00322382 0 -0.136103 -0.0188431 0 -0.0678469 -0.00322382 0 492.529 492.529 1001.17 
206 1 1 0.417403 0.0419576 0 0 0 0 -0.134165 -0.081481 0 -0.162142 -0.0105267 0 -0.134165 -0.081481 0 436.689 436.689 1001.04 
207 1 1 0.435748 0.0532614 0 0 0 0 -0.0274641 0.0148876 0 -0.15493 0.0079926 0 -0.0274641 0.0148876 0 340.931 340.931 1000.81 
208 1 1 0.447389 0.0558309 0 0 0 0 -0.0212361 -0.103472 0 0.00835183 -0.166115 0 -0.0212361 -0.103472 0 338.283 338.283 1000.8 
209 1 1 0.439208 0.0448884 0 0 0 0 -0.0957584 -0.00748099 0 0.0224229 -0.169352 0 -0.0957584 -0.00748099 0 413.079 413.079 1000.98 
210 1 1 0.450499 0.0461217 0 0 0 0 -0.0546476 -0.0536581 0 -0.0847134 -0.00449319 0 -0.0546476 -0.0536581 0 443.193 443.193 1001.05 
211 1 1 0.44754 0.0372788 0 0 0 0 -0.0816628 -0.0315051 0 -0.0973496 0.00680762 0 -0.0816628 -0.0315051 0 504.631 504.631 1001.2 
212 1 1 0.460522 0.040789 0 0 0 0 -0.028518 -0.10598 0 -0.0461482 -0.000807816 0 -0.028518 -0.10598 0 491.211 491.211 1001.17 
213 1 1 0.46579 0.0310997 0 0 0 0 -0.0561804 -0.0235479 0 -0.0887389 -0.0689432 0 -0.0561804 -0.0235479 0 580.494 580.494 1001.38 
214 1 1 0.473382 0.0375062 0 0 0 0 -0.0035233 -0.0767878 0 -0.0241841 -0.0430409 0 -0.0035233 -0.0767878 0 544.771 544.771 1001.29 
215 1 1 0.481192 0.0410699 0 0 0 0 -0.0350205 -0.0440499 0 0.0280903 -0.177287 0 -0.0350205 -0.0440499 0 553.887 553.887 1001.31 
216 1 1 0.483135 0.02429 0 0 0 0 0.0137057 -0.00715339 0 0.00314486 0.109785 0 0.0137057 -0.00715339 0 674.612 674.612 1001.6 
217 1 1 0.490252 0.0293057 0 0 0 0 -0.00418211 -0.0162926 0 -0.0496795 -0.0466549 0 -0.00418211 -0.0162926 0 657.877 657.877 1001.56 
218 1 1 0.21991 0.0435178 0 0 0 0 -0.0519077 -0.0320438 0 -0.0233998 -0.0227636 0 -0.0519077 -0.0320438 0 137.039 137.039 1000.33 
219 1 1 0.184755 0.046724 0 0 0 0 -0.089078 -0.0144501 0 -0.0683577 0.0831105 0 -0.089078 -0.0144501 0 112.253 112.253 1000.27 
220 1 1 0.20479 0.0433166 0 0 0 0 -0.0550178 -0.0256004 0 0.0445351 -0.0245021 0 -0.0550178 -0.0256004 0 147.825 147.825 1000.35 
221 1 1 0.238012 0.0473751 0 0 0 0 -0.0720465 -0.0266524 0 -0.190814 0.116291 0 -0.0720465 -0.0266524 0 138.989 138.989 1000.33 
222 1 1 0.230626 0.0387983 0 0 0 0 -0.0234046 -0.00967776 0 -0.0511816 0.0607102 0 -0.0234046 -0.00967776 0 203.964 203.964 1000.48 
223 1 1 0.283877 0.0454692 0 0 0 0 0.00721455 0.0421257 0 -0.16646 -0.0461248 0 0.00721455 0.0421257 0 206.455 206.455 1000.49 
224 1 1 0.285479 0.0353226 0 0 0 0 -0.030669 0.0308759 0 -0.0383074 0.0503225 0 -0.030669 0.0308759 0 307.452 307.452 1000.73 
225 1 1 0.296017 0.0383725 0 0 0 0 -0.0153468 -0.0138726 0 -0.106643 0.0756218 0 -0.0153468 -0.0138726 0 294.842 294.842 1000.7 
226 1 1 0.300573 0.0500484 0 0 0 0 0.00138681 -0.000764626 0 -0.108691 -0.00790571 0 0.00138681 -0.000764626 0 198.107 198.107 1000.47 
227 1 1 0.313463 0.0303433 0 0 0 0 -0.050844 0.00291037 0 -0.00851147 0.00037938 0 -0.050844 0.00291037 0 386.507 386.507 1000.92 
228 1 1 0.309051 0.0458006 0 0 0 0 0.00227801 0.0457563 0 -0.0689363 -0.053753 0 0.00227801 0.0457563 0 237.701 237.701 1000.56 
229 1 1 0.322149 0.0504396 0 0 0 0 -0.00118856 0.0457437 0 -0.0424868 -0.0297422 0 -0.00118856 0.0457437 0 204.105 204.105 1000.49 
230 1 1 0.334028 0.029645 0 0 0 0 0.00189738 0.0189817 0 -0.114746 0.0733029 0 0.00189738 0.0189817 0 420.62 420.62 1001 