ITEM: TIMESTEP
173000
ITEM: NUMBER OF ATOMS
754
ITEM: BOX BOUNDS ff ff pp
-0.021 0.521
-0.021 0.5
-0.001 0.001
ITEM: ATOMS id type type x y z ix iy iz vx vy vz fx fy fz vx vy vz p p rho 
1 1 1 0.00660054 0.00330078 0 0 0 0 -0.00117267 -0.00760567 0 0.0158358 0.0103295 0 -0.00117267 -0.00760567 0 480.562 480.562 1001.14 
2 1 1 0.0270044 0.00440075 0 0 0 0 0.00703432 -0.00466951 0 0.0447655 0.0242039 0 0.00703432 -0.00466951 0 463.391 463.391 1001.1 
3 1 1 0.0603188 0.00629346 0 0 0 0 0.00191699 0.00414195 0 0.0234647 0.0179331 0 0.00191699 0.00414195 0 453.248 453.248 1001.08 
4 1 1 0.0744633 0.00508803 0 0 0 0 -0.000358447 -0.00205795 0 0.0432534 0.00208957 0 -0.000358447 -0.00205795 0 463.343 463.343 1001.1 
5 1 1 0.0920025 0.00542264 0 0 0 0 0.00227118 -0.000514539 0 0.0503646 0.024335 0 0.00227118 -0.000514539 0 441.689 441.689 1001.05 
6 1 1 0.107863 0.00597976 0 0 0 0 -0.0280288 -0.0067258 0 0.0670312 0.00861933 0 -0.0280288 -0.0067258 0 476.078 476.078 1001.13 
7 1 1 0.15576 0.00565995 0 0 0 0 0.0325789 -0.0171224 0 0.0260895 0.0756863 0 0.0325789 -0.0171224 0 494.495 494.495 1001.17 
8 1 1 0.135373 0.0130745 0 0 0 0 -0.0045957 -0.00776228 0 0.00223494 0.0448982 0 -0.0045957 -0.00776228 0 428.41 428.41 1001.02 
9 1 1 0.186115 0.00523981 0 0 0 0 0.0467778 -0.00631499 0 -0.0639945 0.0444569 0 0.0467778 -0.00631499 0 497.809 497.809 1001.18 
10 1 1 0.200381 0.00637312 0 0 0 0 0.0508224 0.00508459 0 -0.0749996 0.00342317 0 0.0508224 0.00508459 0 466.27 466.27 1001.11 
11 1 1 0.0292712 0.0163795 0 0 0 0 0.0309662 -0.0148357 0 -0.0504688 0.00962818 0 0.0309662 -0.0148357 0 401.496 401.496 1000.95 
12 1 1 0.0468822 0.00569627 0 0 0 0 0.005701 0.000678759 0 0.0665346 -0.014365 0 0.005701 0.000678759 0 455.809 455.809 1001.08 
13 1 1 0.0672424 0.0139819 0 0 0 0 0.044576 -0.00966298 0 -0.00662522 0.0440256 0 0.044576 -0.00966298 0 395.209 395.209 1000.94 
14 1 1 0.0840768 0.0113834 0 0 0 0 0.00401284 -0.00775142 0 0.00660242 -0.00125879 0 0.00401284 -0.00775142 0 431.049 431.049 1001.02 
15 1 1 0.101225 0.0127358 0 0 0 0 0.0182588 0.0387572 0 0.0280979 -0.0165357 0 0.0182588 0.0387572 0 407.513 407.513 1000.97 
16 1 1 0.140087 0.00595005 0 0 0 0 -0.0257912 0.00130105 0 0.0241156 -0.0019525 0 -0.0257912 0.00130105 0 448.613 448.613 1001.06 
17 1 1 0.146995 0.0194266 0 0 0 0 0.0429042 -0.0245872 0 -0.0488944 0.0144294 0 0.0429042 -0.0245872 0 393.953 393.953 1000.94 
18 1 1 0.169533 0.00601139 0 0 0 0 0.0410488 0.00206677 0 -0.088294 0.00373448 0 0.0410488 0.00206677 0 439.449 439.449 1001.04 
19 1 1 0.194277 0.0143042 0 0 0 0 0.0759526 -0.015019 0 0.0161224 0.00501764 0 0.0759526 -0.015019 0 442.614 442.614 1001.05 
20 1 1 0.187527 0.0168046 0 0 0 0 0.0846727 -0.0154113 0 -0.14263 0.0729195 0 0.0846727 -0.0154113 0 392.795 392.795 1000.93 
21 1 1 0.0296591 0.0295398 0 0 0 0 0.013358 -0.010965 0 0.0482251 -0.0272588 0 0.013358 -0.010965 0 304.505 304.505 1000.72 
22 1 1 0.0379974 0.00971944 0 0 0 0 0.0146902 0.00099179 0 -0.0288428 0.00565918 0 0.0146902 0.00099179 0 442.038 442.038 1001.05 
23 1 1 0.0560065 0.0145757 0 0 0 0 0.0227992 -0.0125839 0 0.00422195 -0.00231496 0 0.0227992 -0.0125839 0 418.708 418.708 1000.99 
24 1 1 0.0782542 0.0277359 0 0 0 0 0.0246254 0.00865029 0 0.0309319 -0.0179119 0 0.0246254 0.00865029 0 293.314 293.314 1000.7 
25 1 1 0.0686067 0.0250217 0 0 0 0 0.00624072 0.0272378 0 0.0318896 0.00880169 0 0.00624072 0.0272378 0 313.817 313.817 1000.75 
26 1 1 0.124657 0.00505496 0 0 0 0 -0.00692166 0.000590792 0 0.00564268 0.0122179 0 -0.00692166 0.000590792 0 469.103 469.103 1001.11 
27 1 1 0.126585 0.0155717 0 0 0 0 -0.0101239 0.0193938 0 0.0191224 -0.0149762 0 -0.0101239 0.0193938 0 386.998 386.998 1000.92 
28 1 1 0.164164 0.0144832 0 0 0 0 0.0407194 -0.0025256 0 -0.0442446 0.013553 0 0.0407194 -0.0025256 0 369.882 369.882 1000.88 
29 1 1 0.177309 0.0120175 0 0 0 0 0.0510015 -0.000930791 0 0.029751 -0.0599587 0 0.0510015 -0.000930791 0 453.52 453.52 1001.08 
30 1 1 0.19586 0.0247462 0 0 0 0 0.0582769 -0.0120109 0 -0.0166889 -0.0100684 0 0.0582769 -0.0120109 0 359.595 359.595 1000.85 
31 1 1 0.0184665 0.0103451 0 0 0 0 0.00827234 0.00360362 0 0.0135946 -0.0254985 0 0.00827234 0.00360362 0 428.902 428.902 1001.02 
32 1 1 0.0369933 0.0184085 0 0 0 0 0.0434341 0.0116121 0 0.0774203 -0.00899168 0 0.0434341 0.0116121 0 383.07 383.07 1000.91 
33 1 1 0.0616448 0.0334045 0 0 0 0 0.0114919 0.017234 0 0.010138 -0.0189793 0 0.0114919 0.017234 0 244.194 244.194 1000.58 
34 1 1 0.085773 0.0191519 0 0 0 0 0.0195536 -0.00173627 0 -0.0269224 0.0110645 0 0.0195536 -0.00173627 0 388.668 388.668 1000.92 
35 1 1 0.121363 0.0244308 0 0 0 0 0.0447304 -0.0141018 0 0.00139997 -0.00577241 0 0.0447304 -0.0141018 0 356.129 356.129 1000.85 
36 1 1 0.134471 0.0224685 0 0 0 0 0.0878932 -0.017042 0 -0.0528552 0.0223925 0 0.0878932 -0.017042 0 374.31 374.31 1000.89 
37 1 1 0.148771 0.0127646 0 0 0 0 0.0219257 -0.0342927 0 -0.0738293 -0.0337475 0 0.0219257 -0.0342927 0 438.65 438.65 1001.04 
38 1 1 0.175114 0.0187697 0 0 0 0 0.0554683 -0.025634 0 0.00120582 0.0727237 0 0.0554683 -0.025634 0 444.258 444.258 1001.05 
39 1 1 0.192429 0.0323198 0 0 0 0 0.0556681 -0.0327285 0 -0.053253 0.073285 0 0.0556681 -0.0327285 0 279.036 279.036 1000.66 
40 1 1 0.153538 0.0324846 0 0 0 0 0.0254501 -0.0432084 0 0.0313646 0.0202488 0 0.0254501 -0.0432084 0 288.592 288.592 1000.69 
41 1 1 0.0112926 0.0141288 0 0 0 0 0.0056869 -0.0116783 0 -0.0348103 -0.0134704 0 0.0056869 -0.0116783 0 413.29 413.29 1000.98 
42 1 1 0.0315688 0.0441389 0 0 0 0 0.0170927 -0.0169334 0 0.0138973 -0.0492463 0 0.0170927 -0.0169334 0 168.778 168.778 1000.4 
43 1 1 0.0481076 0.0167044 0 0 0 0 0.0205027 0.0106428 0 -0.0474061 -0.00552048 0 0.0205027 0.0106428 0 401.103 401.103 1000.95 
44 1 1 0.075046 0.0354276 0 0 0 0 0.024594 0.012762 0 0.00271902 0.0104496 0 0.024594 0.012762 0 271.964 271.964 1000.65 
45 1 1 0.0956062 0.0176212 0 0 0 0 0.0106492 -0.0122019 0 -0.00911393 -0.00200372 0 0.0106492 -0.0122019 0 391.313 391.313 1000.93 
46 1 1 0.11185 0.027957 0 0 0 0 0.0432781 0.00469746 0 0.0150696 0.00593808 0 0.0432781 0.00469746 0 299.476 299.476 1000.71 
47 1 1 0.158722 0.018194 0 0 0 0 -0.00206674 -0.0177123 0 0.0534282 0.0382073 0 -0.00206674 -0.0177123 0 371.298 371.298 1000.88 
48 1 1 0.183188 0.0264403 0 0 0 0 0.0451154 -0.0132955 0 0.0165443 0.02063 0 0.0451154 -0.0132955 0 310.486 310.486 1000.74 
49 1 1 0.182114 0.035523 0 0 0 0 0.0316228 -0.0251718 0 -0.095477 -0.00721661 0 0.0316228 -0.0251718 0 255.695 255.695 1000.61 
50 1 1 0.160503 0.0520061 0 0 0 0 0.0640041 -0.0137143 0 -0.0432738 -0.0813266 0 0.0640041 -0.0137143 0 97.4594 97.4594 1000.23 
51 1 1 0.0212917 0.0195011 0 0 0 0 0.0289873 -0.0154081 0 0.00689791 0.019173 0 0.0289873 -0.0154081 0 398.778 398.778 1000.95 
52 1 1 0.0392325 0.02851 0 0 0 0 0.013028 -0.00472453 0 0.0251093 -0.0215173 0 0.013028 -0.00472453 0 307.584 307.584 1000.73 
53 1 1 0.0594419 0.0236043 0 0 0 0 0.0482539 -0.0177032 0 0.0158733 0.0467823 0 0.0482539 -0.0177032 0 367.741 367.741 1000.87 
54 1 1 0.0887631 0.0287856 0 0 0 0 0.0316859 -0.0120129 0 0.0204055 0.0169621 0 0.0316859 -0.0120129 0 320.224 320.224 1000.76 
55 1 1 0.0957452 0.0336061 0 0 0 0 -0.00454618 0.0300762 0 -0.00520929 0.0373114 0 -0.00454618 0.0300762 0 248.248 248.248 1000.59 
56 1 1 0.105834 0.0348246 0 0 0 0 0.0232099 -0.0316569 0 0.0335394 0.0356389 0 0.0232099 -0.0316569 0 279.553 279.553 1000.66 
57 1 1 0.144085 0.0274011 0 0 0 0 0.0266588 0.00429641 0 -0.0293705 0.0466758 0 0.0266588 0.00429641 0 340.699 340.699 1000.81 
58 1 1 0.128865 0.0304294 0 0 0 0 0.0433986 -0.0307798 0 0.0860835 0.053663 0 0.0433986 -0.0307798 0 287.643 287.643 1000.68 
59 1 1 0.170245 0.0348392 0 0 0 0 0.0476806 -0.0153531 0 -0.00211778 0.090119 0 0.0476806 -0.0153531 0 272.894 272.894 1000.65 
60 1 1 0.173829 0.0444596 0 0 0 0 0.0795156 -0.0145992 0 -0.00999573 0.0971176 0 0.0795156 -0.0145992 0 225.53 225.53 1000.54 
61 1 1 0.0480994 0.0261186 0 0 0 0 0.0664695 0.00154467 0 0.0693822 -0.000896522 0 0.0664695 0.00154467 0 331.025 331.025 1000.79 
62 1 1 0.00860703 0.0219473 0 0 0 0 0.00377853 -0.017125 0 0.0354171 -0.00269663 0 0.00377853 -0.017125 0 377.355 377.355 1000.9 
63 1 1 0.0749961 0.016489 0 0 0 0 0.0215233 0.0285958 0 -0.0498602 -0.0172346 0 0.0215233 0.0285958 0 367.927 367.927 1000.87 
64 1 1 0.04379 0.0460607 0 0 0 0 0.0434723 -0.0166026 0 0.0334757 0.00862584 0 0.0434723 -0.0166026 0 172.53 172.53 1000.41 
65 1 1 0.0872752 0.0398644 0 0 0 0 0.0290888 0.00459957 0 0.0146939 -0.00810915 0 0.0290888 0.00459957 0 216.313 216.313 1000.51 
66 1 1 0.116829 0.0125607 0 0 0 0 -0.00720299 -0.0193052 0 0.0128273 0.0520442 0 -0.00720299 -0.0193052 0 442.418 442.418 1001.05 
67 1 1 0.120286 0.0358289 0 0 0 0 0.0565642 -0.0122596 0 -0.0659864 -0.0097779 0 0.0565642 -0.0122596 0 249.566 249.566 1000.59 
68 1 1 0.160079 0.0275299 0 0 0 0 0.0612714 -0.0125424 0 -0.073108 -0.0204927 0 0.0612714 -0.0125424 0 316.457 316.457 1000.75 
69 1 1 0.170872 0.0266053 0 0 0 0 0.043566 -0.0520345 0 -0.0763481 0.0371577 0 0.043566 -0.0520345 0 368.608 368.608 1000.88 
70 1 1 0.183865 0.0520059 0 0 0 0 0.0416527 -0.00671918 0 -0.0957314 0.0941107 0 0.0416527 -0.00671918 0 193.52 193.52 1000.46 
71 1 1 0.0121601 0.0307131 0 0 0 0 -0.015264 -0.0205647 0 -0.0824851 0.0510985 0 -0.015264 -0.0205647 0 317.256 317.256 1000.75 
72 1 1 0.0372085 0.0555856 0 0 0 0 0.00773077 -0.0320237 0 0.0653571 -0.0523587 0 0.00773077 -0.0320237 0 116.919 116.919 1000.28 
73 1 1 0.021324 0.0401737 0 0 0 0 -0.013575 -0.0460512 0 0.0586641 -0.0608612 0 -0.013575 -0.0460512 0 232.02 232.02 1000.55 
74 1 1 0.0509489 0.0347451 0 0 0 0 -0.00491262 -0.00753934 0 0.0182801 0.0715368 0 -0.00491262 -0.00753934 0 286.752 286.752 1000.68 
75 1 1 0.0779683 0.0457461 0 0 0 0 -0.010798 -0.00263482 0 -0.0540638 0.0209783 0 -0.010798 -0.00263482 0 201.19 201.19 1000.48 
76 1 1 0.111505 0.017855 0 0 0 0 0.0161415 -0.00219214 0 -0.0646188 0.0238644 0 0.0161415 -0.00219214 0 382.181 382.181 1000.91 
77 1 1 0.101724 0.024196 0 0 0 0 0.0220153 0.0243448 0 -0.0297595 -0.0135633 0 0.0220153 0.0243448 0 308.408 308.408 1000.73 
78 1 1 0.152165 0.043296 0 0 0 0 0.0876129 -0.0177995 0 -0.138899 0.0224387 0 0.0876129 -0.0177995 0 225.1 225.1 1000.54 
79 1 1 0.141116 0.0354029 0 0 0 0 0.0408342 0.0162209 0 0.00319226 0.0590495 0 0.0408342 0.0162209 0 273.978 273.978 1000.65 
80 1 1 0.148465 0.0578797 0 0 0 0 0.0559907 -0.0219213 0 0.1069 0.0442087 0 0.0559907 -0.0219213 0 167.777 167.777 1000.4 
81 1 1 0.0216164 0.0298784 0 0 0 0 -0.00920077 -0.0441243 0 -0.00406468 -0.0407275 0 -0.00920077 -0.0441243 0 314.277 314.277 1000.75 
82 1 1 0.00982842 0.0405045 0 0 0 0 0.00351722 0.00197542 0 0.0293506 0.0335685 0 0.00351722 0.00197542 0 240.292 240.292 1000.57 
83 1 1 0.0379973 0.0380812 0 0 0 0 -0.0124527 -0.0200515 0 0.0250125 -0.0424135 0 -0.0124527 -0.0200515 0 237.623 237.623 1000.56 
84 1 1 0.0212114 0.0498365 0 0 0 0 0.0200031 -0.0476464 0 0.0207627 -0.060968 0 0.0200031 -0.0476464 0 186.417 186.417 1000.44 
85 1 1 0.0658221 0.0419884 0 0 0 0 0.0237549 0.00990378 0 0.0683814 0.0279729 0 0.0237549 0.00990378 0 221.51 221.51 1000.53 
86 1 1 0.101465 0.0451074 0 0 0 0 0.0423833 0.0173403 0 -0.0944959 -0.0236228 0 0.0423833 0.0173403 0 180.453 180.453 1000.43 
87 1 1 0.111592 0.0435701 0 0 0 0 0.00684785 -0.0423801 0 0.0163898 -0.0258924 0 0.00684785 -0.0423801 0 160.519 160.519 1000.38 
88 1 1 0.123328 0.0459802 0 0 0 0 0.0355633 -0.0286469 0 0.0374249 0.0761872 0 0.0355633 -0.0286469 0 235.348 235.348 1000.56 
89 1 1 0.13318 0.0408011 0 0 0 0 0.0401247 0.00257551 0 -0.103696 -0.0316515 0 0.0401247 0.00257551 0 209.548 209.548 1000.5 
90 1 1 0.140615 0.0481589 0 0 0 0 0.0848638 -0.028455 0 0.034945 0.0459376 0 0.0848638 -0.028455 0 236.747 236.747 1000.56 
91 1 1 0.0524534 0.0583783 0 0 0 0 -0.0175605 0.0206546 0 0.0230643 0.0244589 0 -0.0175605 0.0206546 0 171.868 171.868 1000.41 
92 1 1 0.025965 0.0601498 0 0 0 0 -0.0231948 -0.0291695 0 0.0262415 -0.105122 0 -0.0231948 -0.0291695 0 86.2617 86.2617 1000.21 
93 1 1 0.0119626 0.0535966 0 0 0 0 0.00578965 -0.0190472 0 -0.0155295 -0.0106719 0 0.00578965 -0.0190472 0 133.43 133.43 1000.32 
94 1 1 0.0653674 0.0526063 0 0 0 0 -0.0292234 0.0225273 0 0.0507871 0.0163152 0 -0.0292234 0.0225273 0 111.205 111.205 1000.26 
95 1 1 0.0787707 0.0590477 0 0 0 0 0.0351148 -0.0255536 0 0.0167237 0.0282148 0 0.0351148 -0.0255536 0 219.066 219.066 1000.52 
96 1 1 0.102291 0.0585579 0 0 0 0 0.0407346 -0.0222402 0 -0.0652783 0.0311934 0 0.0407346 -0.0222402 0 208.916 208.916 1000.5 
97 1 1 0.0544855 0.0451104 0 0 0 0 0.0180069 0.00687632 0 0.0181572 0.0293735 0 0.0180069 0.00687632 0 240.583 240.583 1000.57 
98 1 1 0.0905647 0.0499313 0 0 0 0 0.0313778 0.00140528 0 0.0632434 0.0407387 0 0.0313778 0.00140528 0 179.024 179.024 1000.43 
99 1 1 0.115302 0.0542038 0 0 0 0 0.07466 -0.0158964 0 -0.0297911 -0.0829253 0 0.07466 -0.0158964 0 82.5832 82.5832 1000.2 
100 1 1 0.130424 0.0585585 0 0 0 0 0.0212985 -0.0308305 0 -0.0403625 0.0538252 0 0.0212985 -0.0308305 0 227.445 227.445 1000.54 
101 1 1 0.205075 0.0150074 0 0 0 0 0.0957794 0.0115694 0 -0.0640493 0.0494917 0 0.0957794 0.0115694 0 394.977 394.977 1000.94 
102 1 1 0.213626 0.0172619 0 0 0 0 0.0757248 0.0213564 0 0.00705798 -0.0249805 0 0.0757248 0.0213564 0 403.429 403.429 1000.96 
103 1 1 0.219486 0.0244319 0 0 0 0 0.110865 -0.00761933 0 -0.0449413 -0.00880674 0 0.110865 -0.00761933 0 354.044 354.044 1000.84 
104 1 1 0.212863 0.00650168 0 0 0 0 0.0427285 0.00104986 0 -0.0621048 -0.0413102 0 0.0427285 0.00104986 0 480.165 480.165 1001.14 
105 1 1 0.222519 0.00929596 0 0 0 0 0.0521698 -0.0167189 0 -0.068107 0.0504123 0 0.0521698 -0.0167189 0 483.957 483.957 1001.15 
106 1 1 0.23343 0.00526705 0 0 0 0 0.0786591 0.000853778 0 -0.0340622 -0.0144732 0 0.0786591 0.000853778 0 487.106 487.106 1001.16 
107 1 1 0.242195 0.0126006 0 0 0 0 0.0450194 0.0209044 0 -0.0643847 0.0191279 0 0.0450194 0.0209044 0 452.725 452.725 1001.07 
108 1 1 0.249453 0.0058296 0 0 0 0 0.0308649 0.00833541 0 -0.028031 -0.0182708 0 0.0308649 0.00833541 0 480.047 480.047 1001.14 
109 1 1 0.255865 0.012715 0 0 0 0 0.0758362 -0.0140552 0 -0.0315669 0.0312833 0 0.0758362 -0.0140552 0 483.972 483.972 1001.15 
110 1 1 0.265493 0.015618 0 0 0 0 0.107118 -0.00685963 0 -0.0848381 0.0208748 0 0.107118 -0.00685963 0 457.398 457.398 1001.09 
111 1 1 0.265229 0.00560727 0 0 0 0 0.0467293 -0.0185619 0 -0.0428221 0.0243198 0 0.0467293 -0.0185619 0 532.94 532.94 1001.26 
112 1 1 0.275818 0.00989263 0 0 0 0 0.063929 0.0115302 0 -0.0485309 0.0125967 0 0.063929 0.0115302 0 472.945 472.945 1001.12 
113 1 1 0.285301 0.0057126 0 0 0 0 0.06052 -0.00685586 0 -0.0951367 -0.0357208 0 0.06052 -0.00685586 0 520.194 520.194 1001.23 
114 1 1 0.294438 0.0153645 0 0 0 0 0.0910296 0.00085239 0 -0.0722065 -0.0392863 0 0.0910296 0.00085239 0 483.643 483.643 1001.15 
115 1 1 0.31663 0.0276111 0 0 0 0 0.124962 -0.0021921 0 -0.0221156 -0.0219174 0 0.124962 -0.0021921 0 414.893 414.893 1000.98 
116 1 1 0.298808 0.00640985 0 0 0 0 0.0691312 -0.00397394 0 -0.0326786 0.0632223 0 0.0691312 -0.00397394 0 538.769 538.769 1001.28 
117 1 1 0.31329 0.0057433 0 0 0 0 0.0993725 -0.0141869 0 -0.0368433 -0.0595878 0 0.0993725 -0.0141869 0 551.448 551.448 1001.31 
118 1 1 0.32183 0.0120286 0 0 0 0 0.0959379 -0.0108899 0 -0.0776428 0.0477456 0 0.0959379 -0.0108899 0 513.007 513.007 1001.22 
119 1 1 0.32992 0.0051981 0 0 0 0 0.116576 0.0116974 0 -0.042377 -0.0214275 0 0.116576 0.0116974 0 558.74 558.74 1001.33 
120 1 1 0.344709 0.0221904 0 0 0 0 0.0938591 0.0133183 0 -0.130839 0.022985 0 0.0938591 0.0133183 0 478.36 478.36 1001.14 
121 1 1 0.340765 0.0121161 0 0 0 0 0.113242 0.019528 0 -0.0288393 -0.00647881 0 0.113242 0.019528 0 533.746 533.746 1001.27 
122 1 1 0.34721 0.00546864 0 0 0 0 0.0940578 -0.00394103 0 -0.0741187 0.0682756 0 0.0940578 -0.00394103 0 565.667 565.667 1001.34 
123 1 1 0.369488 0.0151011 0 0 0 0 0.111063 0.00635565 0 -0.0619318 0.0651477 0 0.111063 0.00635565 0 556.596 556.596 1001.32 
124 1 1 0.3633 0.00600407 0 0 0 0 0.0824161 -0.0111719 0 -0.071499 -0.0895035 0 0.0824161 -0.0111719 0 558.346 558.346 1001.32 
125 1 1 0.375877 0.00728436 0 0 0 0 0.0916732 0.00927258 0 -0.0753115 -0.012515 0 0.0916732 0.00927258 0 593.295 593.295 1001.41 
126 1 1 0.385237 0.0166104 0 0 0 0 0.124055 0.0143005 0 -0.0390649 0.00759873 0 0.124055 0.0143005 0 535.286 535.286 1001.27 
127 1 1 0.387464 0.00603608 0 0 0 0 0.070846 -0.00182844 0 -0.0240527 -0.0360772 0 0.070846 -0.00182844 0 593.83 593.83 1001.41 
128 1 1 0.394459 0.0123234 0 0 0 0 0.0713834 0.0219283 0 -0.0402306 0.0922912 0 0.0713834 0.0219283 0 570.275 570.275 1001.35 
129 1 1 0.413322 0.0115244 0 0 0 0 0.0894967 -0.0102268 0 -0.0161349 -0.0286878 0 0.0894967 -0.0102268 0 565.478 565.478 1001.34 
130 1 1 0.420223 0.00596448 0 0 0 0 0.0667523 0.0161425 0 0.025404 0.123628 0 0.0667523 0.0161425 0 593.652 593.652 1001.41 
131 1 1 0.434629 0.00564933 0 0 0 0 0.0411383 -0.0207196 0 -0.0257109 0.0743167 0 0.0411383 -0.0207196 0 611.87 611.87 1001.45 
132 1 1 0.428335 0.014278 0 0 0 0 0.0765636 0.0118789 0 -0.0263649 -0.18843 0 0.0765636 0.0118789 0 595.595 595.595 1001.41 
133 1 1 0.44148 0.0136391 0 0 0 0 0.0664128 0.0291735 0 0.0669734 -0.102462 0 0.0664128 0.0291735 0 588.692 588.692 1001.4 
134 1 1 0.449812 0.0169459 0 0 0 0 0.0121129 0.0377256 0 0.0453871 0.146096 0 0.0121129 0.0377256 0 582.009 582.009 1001.38 
135 1 1 0.449259 0.00559005 0 0 0 0 0.0255062 0.00777396 0 0.00658179 -0.0319053 0 0.0255062 0.00777396 0 592.118 592.118 1001.4 
136 1 1 0.457728 0.0121554 0 0 0 0 0.00815054 0.0147874 0 -0.0229157 0.015855 0 0.00815054 0.0147874 0 613.504 613.504 1001.45 
137 1 1 0.465658 0.00501042 0 0 0 0 -0.00385177 0.000862588 0 0.00768786 0.00172805 0 -0.00385177 0.000862588 0 620.342 620.342 1001.47 
138 1 1 0.478796 0.00668089 0 0 0 0 0.0138701 -0.00217372 0 0.0163191 -0.020518 0 0.0138701 -0.00217372 0 603.881 603.881 1001.43 
139 1 1 0.492711 0.00538369 0 0 0 0 -0.00105371 -0.00161102 0 -0.0102828 0.00489996 0 -0.00105371 -0.00161102 0 603.64 603.64 1001.43 
140 1 1 0.204306 0.0341414 0 0 0 0 0.0736671 -0.00748602 0 -0.0651227 -0.0302094 0 0.0736671 -0.00748602 0 263.034 263.034 1000.63 
141 1 1 0.205746 0.0246763 0 0 0 0 0.0627728 0.0137389 0 -0.0122376 -0.0518911 0 0.0627728 0.0137389 0 348.742 348.742 1000.83 
142 1 1 0.247802 0.0374123 0 0 0 0 0.100851 0.00382602 0 -0.0575952 0.0534013 0 0.100851 0.00382602 0 299.656 299.656 1000.71 
143 1 1 0.230483 0.0259088 0 0 0 0 0.124056 0.00876193 0 0.0135855 0.0254871 0 0.124056 0.00876193 0 366.078 366.078 1000.87 
144 1 1 0.24264 0.026419 0 0 0 0 0.127453 -0.000316257 0 -0.060651 -0.0182613 0 0.127453 -0.000316257 0 362.29 362.29 1000.86 
145 1 1 0.226321 0.0162136 0 0 0 0 0.0522158 -0.0267515 0 -0.032778 -0.0077807 0 0.0522158 -0.0267515 0 437.106 437.106 1001.04 
146 1 1 0.25414 0.0307706 0 0 0 0 0.0824964 -0.0370598 0 -0.0736546 0.0365791 0 0.0824964 -0.0370598 0 363.422 363.422 1000.86 
147 1 1 0.235779 0.0170826 0 0 0 0 0.0480789 0.0245505 0 -0.00453589 -0.0341786 0 0.0480789 0.0245505 0 412.2 412.2 1000.98 
148 1 1 0.249094 0.0198103 0 0 0 0 0.101564 -0.0348146 0 -0.058382 0.0142087 0 0.101564 -0.0348146 0 459.35 459.35 1001.09 
149 1 1 0.271199 0.0260986 0 0 0 0 0.0936868 0.0245386 0 -0.0463421 0.0483983 0 0.0936868 0.0245386 0 372.91 372.91 1000.89 
150 1 1 0.288767 0.0332219 0 0 0 0 0.112109 0.00267671 0 -0.0635045 0.0563145 0 0.112109 0.00267671 0 328.85 328.85 1000.78 
151 1 1 0.275374 0.0184765 0 0 0 0 0.105581 0.00237766 0 -0.0113046 -0.00994162 0 0.105581 0.00237766 0 435.284 435.284 1001.03 
152 1 1 0.284147 0.0250725 0 0 0 0 0.0898035 0.00473775 0 -0.0799094 -0.00629863 0 0.0898035 0.00473775 0 380.627 380.627 1000.9 
153 1 1 0.286111 0.0157298 0 0 0 0 0.0882073 -0.0185019 0 -0.0512535 0.0370847 0 0.0882073 -0.0185019 0 461.658 461.658 1001.1 
154 1 1 0.305698 0.0134211 0 0 0 0 0.0788907 -0.0180892 0 -0.0771763 0.0329405 0 0.0788907 -0.0180892 0 490.962 490.962 1001.16 
155 1 1 0.325994 0.0214672 0 0 0 0 0.0708643 -0.0118761 0 -0.12949 -0.0628799 0 0.0708643 -0.0118761 0 473.274 473.274 1001.12 
156 1 1 0.315216 0.0172932 0 0 0 0 0.0732573 -0.0100076 0 -0.0666671 -0.0116771 0 0.0732573 -0.0100076 0 463.525 463.525 1001.1 
157 1 1 0.333295 0.0149556 0 0 0 0 0.0948422 -0.0179888 0 -0.0444545 0.0502445 0 0.0948422 -0.0179888 0 538.841 538.841 1001.28 
158 1 1 0.336431 0.0257198 0 0 0 0 0.069915 -0.00930579 0 -0.0553979 0.0316002 0 0.069915 -0.00930579 0 445.26 445.26 1001.06 
159 1 1 0.355322 0.0287659 0 0 0 0 0.105653 0.0114396 0 -0.050516 0.0408701 0 0.105653 0.0114396 0 417.624 417.624 1000.99 
160 1 1 0.351754 0.0180579 0 0 0 0 0.102862 -0.000510441 0 -0.038359 -0.0450349 0 0.102862 -0.000510441 0 524.172 524.172 1001.24 
161 1 1 0.3566 0.0121884 0 0 0 0 0.0931068 0.0132554 0 -0.0748838 0.036957 0 0.0931068 0.0132554 0 546.613 546.613 1001.3 
162 1 1 0.373007 0.0286077 0 0 0 0 0.118192 0.00648433 0 -0.0853077 0.023325 0 0.118192 0.00648433 0 495.889 495.889 1001.18 
163 1 1 0.37803 0.0185369 0 0 0 0 0.106721 -0.0146242 0 -0.0818022 -0.0644281 0 0.106721 -0.0146242 0 531.511 531.511 1001.26 
164 1 1 0.398608 0.0340119 0 0 0 0 0.116941 -0.0140517 0 0.0367099 -0.135692 0 0.116941 -0.0140517 0 449.619 449.619 1001.07 
165 1 1 0.403471 0.00555778 0 0 0 0 0.0688417 0.0034582 0 -0.033118 0.0146494 0 0.0688417 0.0034582 0 655.75 655.75 1001.55 
166 1 1 0.397091 0.0219285 0 0 0 0 0.117388 0.0382512 0 -0.0895177 -0.0598266 0 0.117388 0.0382512 0 482.973 482.973 1001.15 
167 1 1 0.412495 0.0368983 0 0 0 0 0.0949849 0.0652411 0 -0.0657096 -0.109778 0 0.0949849 0.0652411 0 360.48 360.48 1000.86 
168 1 1 0.422808 0.018829 0 0 0 0 0.0909889 0.0462337 0 -0.0157882 0.0812044 0 0.0909889 0.0462337 0 611.254 611.254 1001.45 
169 1 1 0.421013 0.0432655 0 0 0 0 0.145258 -0.00621416 0 -0.0820874 0.0967839 0 0.145258 -0.00621416 0 383.969 383.969 1000.91 
170 1 1 0.412849 0.0212583 0 0 0 0 0.106912 0.0178174 0 -0.121967 -0.108008 0 0.106912 0.0178174 0 559.456 559.456 1001.33 
171 1 1 0.418269 0.0287954 0 0 0 0 0.0618836 0.00960911 0 0.0798104 0.182871 0 0.0618836 0.00960911 0 482.726 482.726 1001.15 
172 1 1 0.435474 0.0198653 0 0 0 0 0.0737366 0.0112895 0 0.115977 0.158249 0 0.0737366 0.0112895 0 594.191 594.191 1001.41 
173 1 1 0.445378 0.0255011 0 0 0 0 0.0438594 0.0758024 0 -0.045536 0.014492 0 0.0438594 0.0758024 0 485.255 485.255 1001.15 
174 1 1 0.471188 0.0146217 0 0 0 0 0.0364139 -0.0193714 0 0.00602611 -0.000224642 0 0.0364139 -0.0193714 0 591.373 591.373 1001.4 
175 1 1 0.467993 0.0273398 0 0 0 0 0.0435016 -0.00416434 0 0.0765926 0.0218842 0 0.0435016 -0.00416434 0 515.024 515.024 1001.22 
176 1 1 0.477491 0.0202608 0 0 0 0 0.0259297 0.052819 0 0.00217613 0.04886 0 0.0259297 0.052819 0 533.663 533.663 1001.27 
177 1 1 0.484331 0.0135231 0 0 0 0 -0.0106932 0.0228075 0 -0.0140845 0.0503659 0 -0.0106932 0.0228075 0 589.541 589.541 1001.4 
178 1 1 0.491459 0.0185214 0 0 0 0 -0.00844317 -0.0202348 0 -0.0169998 0.0235815 0 -0.00844317 -0.0202348 0 594.21 594.21 1001.41 
179 1 1 0.198908 0.0430224 0 0 0 0 0.0552166 -0.0222599 0 -0.129757 0.0276873 0 0.0552166 -0.0222599 0 234.635 234.635 1000.56 
180 1 1 0.215158 0.031377 0 0 0 0 0.0686003 -0.0119362 0 -0.0412026 0.0387388 0 0.0686003 -0.0119362 0 304.179 304.179 1000.72 
181 1 1 0.221752 0.0420466 0 0 0 0 0.0776401 -0.0326656 0 -0.123304 0.0057318 0 0.0776401 -0.0326656 0 255.91 255.91 1000.61 
182 1 1 0.226913 0.0352141 0 0 0 0 0.0850352 -0.0353223 0 -0.0292978 -0.0188441 0 0.0850352 -0.0353223 0 312.317 312.317 1000.74 
183 1 1 0.248382 0.0494788 0 0 0 0 0.121848 -0.0167638 0 -0.0671869 0.00610697 0 0.121848 -0.0167638 0 193.082 193.082 1000.46 
184 1 1 0.238842 0.0447662 0 0 0 0 0.0891848 0.00527563 0 -0.0784745 0.0295747 0 0.0891848 0.00527563 0 233.442 233.442 1000.55 
185 1 1 0.237327 0.0342101 0 0 0 0 0.10811 0.0107031 0 -0.0611047 -0.000426109 0 0.10811 0.0107031 0 291.54 291.54 1000.69 
186 1 1 0.259917 0.0231849 0 0 0 0 0.118821 -0.028903 0 -0.0199731 0.01826 0 0.118821 -0.028903 0 414.676 414.676 1000.98 
187 1 1 0.278153 0.0339663 0 0 0 0 0.0965744 -0.00510606 0 -0.092658 -0.0313523 0 0.0965744 -0.00510606 0 336.536 336.536 1000.8 
188 1 1 0.283837 0.0434011 0 0 0 0 0.12985 -0.00862795 0 -0.0690093 -0.00215405 0 0.12985 -0.00862795 0 254.332 254.332 1000.6 
189 1 1 0.298812 0.0347103 0 0 0 0 0.139594 -0.0424984 0 -0.0779439 -0.0264256 0 0.139594 -0.0424984 0 351.195 351.195 1000.83 
190 1 1 0.305407 0.0221521 0 0 0 0 0.0976174 -0.0114757 0 -0.0932699 -0.00288028 0 0.0976174 -0.0114757 0 433.873 433.873 1001.03 
191 1 1 0.308008 0.0422393 0 0 0 0 0.0943608 -0.0101683 0 -0.031446 0.0567828 0 0.0943608 -0.0101683 0 274.354 274.354 1000.65 
192 1 1 0.308971 0.0319076 0 0 0 0 0.152124 -0.0285149 0 -0.122236 0.0441042 0 0.152124 -0.0285149 0 399.598 399.598 1000.95 
193 1 1 0.335705 0.0349684 0 0 0 0 0.136577 0.0252261 0 -0.0711078 0.00752055 0 0.136577 0.0252261 0 348.113 348.113 1000.83 
194 1 1 0.319647 0.0502191 0 0 0 0 0.106868 -0.033297 0 -0.0734213 0.0125286 0 0.106868 -0.033297 0 242.539 242.539 1000.58 
195 1 1 0.34174 0.0420811 0 0 0 0 0.155736 0.0116504 0 -0.114939 0.0335912 0 0.155736 0.0116504 0 329.337 329.337 1000.78 
196 1 1 0.347642 0.0330969 0 0 0 0 0.121993 -0.0309796 0 -0.104046 -0.0153565 0 0.121993 -0.0309796 0 433.639 433.639 1001.03 
197 1 1 0.361457 0.0408446 0 0 0 0 0.143457 0.00958725 0 -0.118578 0.0276164 0 0.143457 0.00958725 0 374.223 374.223 1000.89 
198 1 1 0.364654 0.0314867 0 0 0 0 0.135827 -0.0210793 0 -0.180272 -0.0127243 0 0.135827 -0.0210793 0 449.594 449.594 1001.07 
199 1 1 0.372387 0.0414534 0 0 0 0 0.0894907 -0.0119573 0 -0.0886167 -0.0620954 0 0.0894907 -0.0119573 0 368.091 368.091 1000.87 
200 1 1 0.36343 0.0207598 0 0 0 0 0.106987 -0.0228277 0 -0.0439136 -0.0269204 0 0.106987 -0.0228277 0 508.086 508.086 1001.21 
201 1 1 0.389483 0.0264092 0 0 0 0 0.105346 0.0395829 0 -0.123845 -0.0395922 0 0.105346 0.0395829 0 468.527 468.527 1001.11 
202 1 1 0.381266 0.0419034 0 0 0 0 0.154233 0.0179544 0 -0.16897 -0.0900408 0 0.154233 0.0179544 0 397.148 397.148 1000.94 
203 1 1 0.390782 0.0382496 0 0 0 0 0.132616 0.0283752 0 -0.132258 -0.0738653 0 0.132616 0.0283752 0 448.175 448.175 1001.06 
204 1 1 0.398387 0.0531403 0 0 0 0 0.153631 0.0766897 0 -0.180193 -0.221936 0 0.153631 0.0766897 0 298.388 298.388 1000.71 
205 1 1 0.403969 0.0161055 0 0 0 0 0.0686441 -0.0510757 0 -0.00765148 -0.0242541 0 0.0686441 -0.0510757 0 536.325 536.325 1001.27 
206 1 1 0.406088 0.0284939 0 0 0 0 0.138256 -0.0257091 0 -0.062023 0.0894403 0 0.138256 -0.0257091 0 507.769 507.769 1001.2 
207 1 1 0.434355 0.0456068 0 0 0 0 0.0751259 0.025155 0 0.0834659 0.0626569 0 0.0751259 0.025155 0 409.883 409.883 1000.97 
208 1 1 0.439204 0.032967 0 0 0 0 0.0567621 0.0714312 0 0.018455 -0.134539 0 0.0567621 0.0714312 0 494.449 494.449 1001.17 
209 1 1 0.426551 0.0361887 0 0 0 0 0.122795 0.0907365 0 -0.085431 -0.0677969 0 0.122795 0.0907365 0 488.631 488.631 1001.16 
210 1 1 0.451002 0.035535 0 0 0 0 0.0799535 0.0335479 0 0.0135307 0.0997567 0 0.0799535 0.0335479 0 489.246 489.246 1001.16 
211 1 1 0.430668 0.0289894 0 0 0 0 0.0574011 -0.00619602 0 -0.103257 -0.199056 0 0.0574011 -0.00619602 0 487.718 487.718 1001.16 
212 1 1 0.455948 0.026753 0 0 0 0 0.0729553 -0.0149739 0 0.0065579 -0.0564738 0 0.0729553 -0.0149739 0 520.658 520.658 1001.24 
213 1 1 0.462971 0.0187746 0 0 0 0 0.0424677 -0.0231756 0 -0.00956708 0.0192531 0 0.0424677 -0.0231756 0 594.255 594.255 1001.41 
214 1 1 0.47091 0.0381649 0 0 0 0 -0.0055472 0.0121794 0 0.0270822 0.0650159 0 -0.0055472 0.0121794 0 447.086 447.086 1001.06 
215 1 1 0.487643 0.0268939 0 0 0 0 0.0527879 0.0244995 0 0.0231724 -0.00918411 0 0.0527879 0.0244995 0 487.326 487.326 1001.16 
216 1 1 0.478141 0.0301464 0 0 0 0 0.0402501 0.03375 0 -0.0150374 -0.00674093 0 0.0402501 0.03375 0 475.307 475.307 1001.13 
217 1 1 0.489682 0.0359466 0 0 0 0 -0.00845413 0.0519583 0 -0.0439133 0.0753823 0 -0.00845413 0.0519583 0 461.965 461.965 1001.1 
218 1 1 0.216838 0.0512474 0 0 0 0 0.107859 -0.0163919 0 -0.0453095 -0.0421259 0 0.107859 -0.0163919 0 158.345 158.345 1000.38 
219 1 1 0.162069 0.041703 0 0 0 0 0.0638219 -0.0455425 0 -0.0265337 -0.014809 0 0.0638219 -0.0455425 0 214.663 214.663 1000.51 
220 1 1 0.188676 0.0436423 0 0 0 0 0.0656244 -0.0404743 0 -0.0186658 -0.013191 0 0.0656244 -0.0404743 0 200.085 200.085 1000.48 
221 1 1 0.230191 0.049617 0 0 0 0 0.0942105 -0.028739 0 -0.0269416 0.0209618 0 0.0942105 -0.028739 0 220.253 220.253 1000.52 
222 1 1 0.210558 0.0417311 0 0 0 0 0.0921399 -0.000703069 0 -0.0616831 -0.0614274 0 0.0921399 -0.000703069 0 191.53 191.53 1000.46 
223 1 1 0.258483 0.0426832 0 0 0 0 0.110925 -0.0214673 0 -0.067715 -0.0175842 0 0.110925 -0.0214673 0 300.176 300.176 1000.71 
224 1 1 0.264815 0.0337226 0 0 0 0 0.0740151 0.00149639 0 -0.0432437 -0.0164776 0 0.0740151 0.00149639 0 318.019 318.019 1000.76 
225 1 1 0.271167 0.0410899 0 0 0 0 0.119482 -0.00150486 0 -0.0615808 0.0564287 0 0.119482 -0.00150486 0 277.538 277.538 1000.66 
226 1 1 0.283468 0.0522085 0 0 0 0 0.118315 0.00719249 0 -0.0279509 0.0249487 0 0.118315 0.00719249 0 214.29 214.29 1000.51 
227 1 1 0.295998 0.0244875 0 0 0 0 0.0795949 -0.00604814 0 -0.0611225 0.0631595 0 0.0795949 -0.00604814 0 423.773 423.773 1001.01 
228 1 1 0.295467 0.0438533 0 0 0 0 0.121971 -0.0313176 0 -0.112299 0.0496617 0 0.121971 -0.0313176 0 292.382 292.382 1000.69 
229 1 1 0.306146 0.051629 0 0 0 0 0.117018 0.000593022 0 -0.0668105 -0.0292444 0 0.117018 0.000593022 0 225.687 225.687 1000.54 
230 1 1 0.318333 0.0392416 0 0 0 0 0.106923 -0.00873278 0 -0.129163 -0.0345728 0 0.106923 -0.00873278 0 286.788 286.788 1000.68 
231 1 1 0.326243 0.0312312 0 0 0 0 0.168369 -0.00585333 0 -0.10748 0.0708371 0 0.168369 -0.00585333 0 375.109 375.109 1000.89 
232 1 1 0.327309 0.0431113 0 0 0 0 0.120912 0.00179504 0 -0.0547961 -0.0649379 0 0.120912 0.00179504 0 335.694 335.694 1000.8 
233 1 1 0.352642 0.0430126 0 0 0 0 0.149189 -0.0147762 0 -0.126742 0.00896744 0 0.149189 -0.0147762 0 354.648 354.648 1000.84 