ITEM: TIMESTEP
151000
ITEM: NUMBER OF ATOMS
754
ITEM: BOX BOUNDS ff ff pp
-0.021 0.521
-0.021 0.5
-0.001 0.001
ITEM: ATOMS id type type x y z ix iy iz vx vy vz fx fy fz vx vy vz p p rho 
1 1 1 0.00730396 0.00464881 0 0 0 0 0.00356693 -0.0113102 0 0.0064298 -0.0273634 0 0.00356693 -0.0113102 0 501.843 501.843 1001.19 
2 1 1 0.0263203 0.00457427 0 0 0 0 0.0192031 -0.00473255 0 3.59272e-05 -0.00302138 0 0.0192031 -0.00473255 0 513.387 513.387 1001.22 
3 1 1 0.058842 0.00582716 0 0 0 0 0.0475141 0.00202996 0 -0.0189382 0.0230241 0 0.0475141 0.00202996 0 522.776 522.776 1001.24 
4 1 1 0.0722566 0.00650337 0 0 0 0 0.050186 -0.00159577 0 -0.0536194 -0.0490804 0 0.050186 -0.00159577 0 523.193 523.193 1001.24 
5 1 1 0.0892397 0.00541903 0 0 0 0 0.0667874 -0.00213762 0 -0.0393204 0.025239 0 0.0667874 -0.00213762 0 554.566 554.566 1001.32 
6 1 1 0.108148 0.00581957 0 0 0 0 0.090363 0.00741956 0 -0.0362186 0.0855944 0 0.090363 0.00741956 0 552.947 552.947 1001.31 
7 1 1 0.142174 0.00742507 0 0 0 0 0.0934233 0.00247142 0 -0.0798474 0.0191327 0 0.0934233 0.00247142 0 546.786 546.786 1001.3 
8 1 1 0.129887 0.0155401 0 0 0 0 0.095602 -0.00556661 0 -0.0922316 0.0473185 0 0.095602 -0.00556661 0 506.813 506.813 1001.2 
9 1 1 0.165793 0.00749919 0 0 0 0 0.123762 -0.000665971 0 -0.0349663 -0.0216219 0 0.123762 -0.000665971 0 545.882 545.882 1001.29 
10 1 1 0.176489 0.00730399 0 0 0 0 0.132458 -0.00926048 0 0.057619 -0.0229066 0 0.132458 -0.00926048 0 547.928 547.928 1001.3 
11 1 1 0.0236423 0.0141035 0 0 0 0 0.0176012 -0.0162197 0 0.0462931 0.0462453 0 0.0176012 -0.0162197 0 471.125 471.125 1001.12 
12 1 1 0.0425681 0.00577392 0 0 0 0 0.0468693 -0.00323234 0 0.0697297 0.00898867 0 0.0468693 -0.00323234 0 526.946 526.946 1001.25 
13 1 1 0.0577265 0.0148441 0 0 0 0 0.0578495 0.0311953 0 0.012137 0.0177375 0 0.0578495 0.0311953 0 459.552 459.552 1001.09 
14 1 1 0.0797907 0.0121238 0 0 0 0 0.0600168 -0.00128119 0 -0.00030567 -0.0222633 0 0.0600168 -0.00128119 0 478.11 478.11 1001.13 
15 1 1 0.0997449 0.0111613 0 0 0 0 0.078516 -0.0233578 0 -0.0795396 -0.0803064 0 0.078516 -0.0233578 0 525.559 525.559 1001.25 
16 1 1 0.129696 0.00599702 0 0 0 0 0.102581 0.00648194 0 -0.0366861 0.034506 0 0.102581 0.00648194 0 544.589 544.589 1001.29 
17 1 1 0.130207 0.0244454 0 0 0 0 0.100148 -0.0463656 0 -0.031965 0.0220889 0 0.100148 -0.0463656 0 457.718 457.718 1001.09 
18 1 1 0.153467 0.00679987 0 0 0 0 0.106533 -0.0148511 0 -0.0294417 -0.0379169 0 0.106533 -0.0148511 0 536.191 536.191 1001.27 
19 1 1 0.172225 0.0172122 0 0 0 0 0.12297 -0.0144612 0 -0.0692151 -0.0349795 0 0.12297 -0.0144612 0 501.948 501.948 1001.19 
20 1 1 0.162388 0.0231743 0 0 0 0 0.134606 -0.0203038 0 -0.0167193 -0.0398049 0 0.134606 -0.0203038 0 448.585 448.585 1001.06 
21 1 1 0.0248613 0.0279244 0 0 0 0 0.0551564 -0.0128351 0 -0.048378 0.053016 0 0.0551564 -0.0128351 0 368.035 368.035 1000.87 
22 1 1 0.0366936 0.0127183 0 0 0 0 0.0534363 -0.016491 0 -0.100754 -0.0455948 0 0.0534363 -0.016491 0 493.991 493.991 1001.17 
23 1 1 0.0498178 0.0134662 0 0 0 0 0.0959004 -0.0200845 0 -0.148404 0.0215255 0 0.0959004 -0.0200845 0 464.606 464.606 1001.1 
24 1 1 0.0713873 0.0292602 0 0 0 0 0.0343962 -0.0508769 0 0.0272722 0.0662213 0 0.0343962 -0.0508769 0 403.421 403.421 1000.96 
25 1 1 0.0649979 0.023379 0 0 0 0 0.0420073 -0.00118745 0 -0.0363903 -0.0708423 0 0.0420073 -0.00118745 0 428.284 428.284 1001.02 
26 1 1 0.119165 0.00910543 0 0 0 0 0.0911072 -0.0244407 0 -0.0348095 -0.0778476 0 0.0911072 -0.0244407 0 534.877 534.877 1001.27 
27 1 1 0.11974 0.0181812 0 0 0 0 0.0843169 -0.00124415 0 -0.0329043 -0.00225738 0 0.0843169 -0.00124415 0 473.317 473.317 1001.12 
28 1 1 0.150493 0.0164108 0 0 0 0 0.122522 -0.00718512 0 -0.0439885 -0.0612053 0 0.122522 -0.00718512 0 492.866 492.866 1001.17 
29 1 1 0.160693 0.0149727 0 0 0 0 0.127834 -0.00556347 0 -0.00235458 -0.00681298 0 0.127834 -0.00556347 0 511.347 511.347 1001.21 
30 1 1 0.170914 0.0273478 0 0 0 0 0.166444 -0.0196551 0 0.00360033 0.0202563 0 0.166444 -0.0196551 0 419.932 419.932 1001 
31 1 1 0.0156921 0.0113355 0 0 0 0 0.00871109 0.00502766 0 0.0181432 0.00668823 0 0.00871109 0.00502766 0 460.783 460.783 1001.09 
32 1 1 0.032959 0.0185526 0 0 0 0 0.0183388 -0.0419343 0 -0.0674098 0.0679977 0 0.0183388 -0.0419343 0 454.508 454.508 1001.08 
33 1 1 0.0608921 0.03393 0 0 0 0 0.0670534 -0.0101301 0 -0.084805 0.0132842 0 0.0670534 -0.0101301 0 303.742 303.742 1000.72 
34 1 1 0.0786117 0.0202578 0 0 0 0 0.0515499 0.0273045 0 -0.0419946 -0.0393732 0 0.0515499 0.0273045 0 421.649 421.649 1001 
35 1 1 0.109875 0.0271602 0 0 0 0 0.0703656 -0.0229545 0 -0.0599512 -0.0107833 0 0.0703656 -0.0229545 0 416.098 416.098 1000.99 
36 1 1 0.119833 0.028267 0 0 0 0 0.0869787 -0.0069823 0 -0.0309976 -0.0278085 0 0.0869787 -0.0069823 0 405.321 405.321 1000.96 
37 1 1 0.139438 0.0155286 0 0 0 0 0.125749 -0.00474891 0 -0.00340442 0.00516944 0 0.125749 -0.00474891 0 500.094 500.094 1001.19 
38 1 1 0.152376 0.0257333 0 0 0 0 0.105862 -0.032507 0 -0.0225043 -0.0113973 0 0.105862 -0.032507 0 428.496 428.496 1001.02 
39 1 1 0.167532 0.0379575 0 0 0 0 0.14257 -0.00635649 0 0.0321318 -0.00720835 0 0.14257 -0.00635649 0 319.631 319.631 1000.76 
40 1 1 0.136322 0.0435922 0 0 0 0 0.13419 -0.0554659 0 -0.0476687 -0.0936633 0 0.13419 -0.0554659 0 311.762 311.762 1000.74 
41 1 1 0.00836682 0.0171982 0 0 0 0 0.00823493 -0.024485 0 0.0159758 -0.0108527 0 0.00823493 -0.024485 0 440.605 440.605 1001.05 
42 1 1 0.0303506 0.0442456 0 0 0 0 0.052047 -0.0259354 0 0.0125499 0.0414709 0 0.052047 -0.0259354 0 269.586 269.586 1000.64 
43 1 1 0.0447099 0.0209984 0 0 0 0 0.0128983 -0.0269598 0 -0.0208503 -0.0675621 0 0.0128983 -0.0269598 0 409.315 409.315 1000.97 
44 1 1 0.0708364 0.0399683 0 0 0 0 0.0762036 -0.0685674 0 -0.146241 -0.000826571 0 0.0762036 -0.0685674 0 320.635 320.635 1000.76 
45 1 1 0.0899971 0.0152948 0 0 0 0 0.0453212 -0.0121067 0 -0.0639237 0.0775264 0 0.0453212 -0.0121067 0 520.641 520.641 1001.24 
46 1 1 0.0984933 0.029387 0 0 0 0 0.123268 -0.00844366 0 -0.0301104 -0.0453067 0 0.123268 -0.00844366 0 388.021 388.021 1000.92 
47 1 1 0.141986 0.0239158 0 0 0 0 0.109036 0.00650352 0 -0.034659 -0.0297766 0 0.109036 0.00650352 0 436.734 436.734 1001.04 
48 1 1 0.159976 0.0338265 0 0 0 0 0.164859 -0.0470768 0 -0.0519355 -0.0284702 0 0.164859 -0.0470768 0 361.219 361.219 1000.86 
49 1 1 0.15711 0.0432988 0 0 0 0 0.146481 -0.0507214 0 -0.018085 -0.056316 0 0.146481 -0.0507214 0 292.882 292.882 1000.7 
50 1 1 0.13645 0.0613411 0 0 0 0 0.179753 -0.110846 0 0.0671592 0.0276712 0 0.179753 -0.110846 0 174.972 174.972 1000.42 
51 1 1 0.0187663 0.0221985 0 0 0 0 0.0390754 -0.0071954 0 -0.0801474 0.0271457 0 0.0390754 -0.0071954 0 402.277 402.277 1000.96 
52 1 1 0.0355355 0.0279502 0 0 0 0 0.0208868 -0.025733 0 0.0484083 0.035058 0 0.0208868 -0.025733 0 350.115 350.115 1000.83 
53 1 1 0.0548366 0.0253155 0 0 0 0 0.00181771 0.021022 0 -0.0601579 0.0342212 0 0.00181771 0.021022 0 382.043 382.043 1000.91 
54 1 1 0.0814454 0.0294781 0 0 0 0 0.125443 -0.00089528 0 -0.0717337 -0.0167724 0 0.125443 -0.00089528 0 374.887 374.887 1000.89 
55 1 1 0.0888012 0.0366381 0 0 0 0 0.108185 -0.0639373 0 -0.0402735 -0.0188277 0 0.108185 -0.0639373 0 349.651 349.651 1000.83 
56 1 1 0.0977674 0.0395147 0 0 0 0 0.0689016 0.0158501 0 -0.0442065 0.0407684 0 0.0689016 0.0158501 0 311.879 311.879 1000.74 
57 1 1 0.128185 0.0346891 0 0 0 0 0.113478 -0.0458131 0 -0.0373918 0.0263198 0 0.113478 -0.0458131 0 372.248 372.248 1000.88 
58 1 1 0.118308 0.0389255 0 0 0 0 0.0861155 -0.0422322 0 -0.0542562 0.00523773 0 0.0861155 -0.0422322 0 347.935 347.935 1000.83 
59 1 1 0.147306 0.043409 0 0 0 0 0.147933 -0.0364797 0 -0.00396991 0.0530303 0 0.147933 -0.0364797 0 284.231 284.231 1000.68 
60 1 1 0.150041 0.0547595 0 0 0 0 0.197842 -0.00844345 0 -0.0821942 -0.0169977 0 0.197842 -0.00844345 0 195.563 195.563 1000.46 
61 1 1 0.0469983 0.0309238 0 0 0 0 0.0370956 -0.0380651 0 -0.0494933 -0.0195373 0 0.0370956 -0.0380651 0 367.635 367.635 1000.87 
62 1 1 0.00874096 0.0279167 0 0 0 0 0.00457912 -0.0463074 0 -0.0467577 -0.0153256 0 0.00457912 -0.0463074 0 383.751 383.751 1000.91 
63 1 1 0.068493 0.0149607 0 0 0 0 0.0670291 -0.0237943 0 -0.0946655 0.0423513 0 0.0670291 -0.0237943 0 479.047 479.047 1001.14 
64 1 1 0.0413103 0.0469954 0 0 0 0 -0.0183201 -0.0160753 0 -0.0609646 0.00684337 0 -0.0183201 -0.0160753 0 212.838 212.838 1000.51 
65 1 1 0.0799901 0.0413327 0 0 0 0 0.053418 -0.0281336 0 -0.0691215 0.0332897 0 0.053418 -0.0281336 0 294.396 294.396 1000.7 
66 1 1 0.110951 0.0168044 0 0 0 0 0.0976986 0.00380023 0 -0.068222 -0.010936 0 0.0976986 0.00380023 0 479.98 479.98 1001.14 
67 1 1 0.108133 0.0359489 0 0 0 0 0.066525 0.00600214 0 -0.0119439 0.0135222 0 0.066525 0.00600214 0 333.438 333.438 1000.79 
68 1 1 0.13808 0.0328858 0 0 0 0 0.107717 -0.012905 0 -0.026236 -0.017208 0 0.107717 -0.012905 0 373.546 373.546 1000.89 
69 1 1 0.147843 0.0344911 0 0 0 0 0.156945 -0.0174763 0 0.0638959 -0.0535671 0 0.156945 -0.0174763 0 350.045 350.045 1000.83 
70 1 1 0.15954 0.0621251 0 0 0 0 0.15449 -0.0327732 0 -0.00322412 -0.025622 0 0.15449 -0.0327732 0 196.436 196.436 1000.47 
71 1 1 0.0137768 0.0425164 0 0 0 0 -0.0041029 -0.0726719 0 -0.0835413 -0.0339324 0 -0.0041029 -0.0726719 0 277.212 277.212 1000.66 
72 1 1 0.0401453 0.0584667 0 0 0 0 0.0954304 -0.0149522 0 -0.0464871 -0.00540779 0 0.0954304 -0.0149522 0 97.005 97.005 1000.23 
73 1 1 0.026404 0.0357907 0 0 0 0 0.0378478 -0.0113564 0 -0.091192 0.0645366 0 0.0378478 -0.0113564 0 309.384 309.384 1000.74 
74 1 1 0.0524263 0.0398785 0 0 0 0 0.0229502 0.00443712 0 -0.0603939 -0.0152412 0 0.0229502 0.00443712 0 272.037 272.037 1000.65 
75 1 1 0.0724598 0.0510325 0 0 0 0 0.0493226 -0.0679898 0 0.0314925 0.0194132 0 0.0493226 -0.0679898 0 230.642 230.642 1000.55 
76 1 1 0.10162 0.0193826 0 0 0 0 0.0723725 -0.0298544 0 -0.090383 -0.0170482 0 0.0723725 -0.0298544 0 460.589 460.589 1001.09 
77 1 1 0.0903814 0.0239147 0 0 0 0 0.0848816 -0.0510804 0 -0.0550378 0.101191 0 0.0848816 -0.0510804 0 461.156 461.156 1001.09 
78 1 1 0.122253 0.0537767 0 0 0 0 0.133281 -0.0532186 0 0.0202755 -0.0217415 0 0.133281 -0.0532186 0 204.361 204.361 1000.49 
79 1 1 0.127051 0.0465761 0 0 0 0 0.0858637 -0.0572467 0 -0.0448129 -0.00853087 0 0.0858637 -0.0572467 0 276.779 276.779 1000.66 
80 1 1 0.130445 0.072104 0 0 0 0 0.0964959 -0.0603744 0 0.000174688 -0.0549265 0 0.0964959 -0.0603744 0 114.304 114.304 1000.27 
81 1 1 0.0129399 0.0345258 0 0 0 0 0.015864 -0.0678967 0 0.117738 0.0930429 0 0.015864 -0.0678967 0 356.492 356.492 1000.85 
82 1 1 0.0129584 0.050542 0 0 0 0 -0.000180594 -0.0682251 0 -0.0739675 0.0819036 0 -0.000180594 -0.0682251 0 180.357 180.357 1000.43 
83 1 1 0.0401616 0.0371362 0 0 0 0 0.0771889 -0.0111895 0 -0.123669 0.0395948 0 0.0771889 -0.0111895 0 301.174 301.174 1000.72 
84 1 1 0.0241968 0.0502728 0 0 0 0 -0.0271864 -0.0692042 0 -0.0203067 0.130919 0 -0.0271864 -0.0692042 0 169.324 169.324 1000.4 
85 1 1 0.0600407 0.0453685 0 0 0 0 0.0336963 -0.00972485 0 0.00161871 0.0245542 0 0.0336963 -0.00972485 0 290.671 290.671 1000.69 
86 1 1 0.0878908 0.0489795 0 0 0 0 0.0525093 -0.0467517 0 0.0187564 -0.0706845 0 0.0525093 -0.0467517 0 249.098 249.098 1000.59 
87 1 1 0.10126 0.0478881 0 0 0 0 0.0777455 -0.00617598 0 -0.0539695 0.0149274 0 0.0777455 -0.00617598 0 248.122 248.122 1000.59 
88 1 1 0.111581 0.0573731 0 0 0 0 0.130958 -0.0360582 0 -0.113885 0.0285734 0 0.130958 -0.0360582 0 214.43 214.43 1000.51 
89 1 1 0.111978 0.0467981 0 0 0 0 0.123463 -0.020192 0 -0.0407616 -0.0625649 0 0.123463 -0.020192 0 266.598 266.598 1000.63 
90 1 1 0.124093 0.0639105 0 0 0 0 0.168341 -0.0346818 0 -0.18857 -0.168356 0 0.168341 -0.0346818 0 122.158 122.158 1000.29 
91 1 1 0.0547816 0.0646942 0 0 0 0 0.0471118 -0.0114026 0 -0.148007 0.069409 0 0.0471118 -0.0114026 0 179.656 179.656 1000.43 
92 1 1 0.0300278 0.0599995 0 0 0 0 0.0830668 -0.0902261 0 -0.202866 0.0865052 0 0.0830668 -0.0902261 0 134.496 134.496 1000.32 
93 1 1 0.0102633 0.058815 0 0 0 0 -0.00417513 -0.0615557 0 0.0864613 0.064572 0 -0.00417513 -0.0615557 0 86.5917 86.5917 1000.21 
94 1 1 0.0643458 0.0565487 0 0 0 0 0.0444953 -0.037297 0 -0.0721785 0.0547661 0 0.0444953 -0.037297 0 204.721 204.721 1000.49 
95 1 1 0.0742655 0.067766 0 0 0 0 0.115934 -0.066055 0 -0.166779 0.0234629 0 0.115934 -0.066055 0 228.02 228.02 1000.54 
96 1 1 0.0920917 0.0699088 0 0 0 0 0.0779013 -0.0584442 0 -0.090708 -0.0755925 0 0.0779013 -0.0584442 0 210.12 210.12 1000.5 
97 1 1 0.0500031 0.0521933 0 0 0 0 0.107405 -0.0337789 0 -0.00980512 0.0781985 0 0.107405 -0.0337789 0 225.765 225.765 1000.54 
98 1 1 0.0836494 0.0576186 0 0 0 0 0.0835919 -0.0638469 0 -0.13099 0.0255182 0 0.0835919 -0.0638469 0 247.403 247.403 1000.59 
99 1 1 0.0979273 0.0570571 0 0 0 0 0.12573 -0.0294063 0 -0.0522186 0.0710201 0 0.12573 -0.0294063 0 220.696 220.696 1000.52 
100 1 1 0.10795 0.06934 0 0 0 0 0.114759 -0.064303 0 0.121504 0.0577444 0 0.114759 -0.064303 0 233.199 233.199 1000.55 
101 1 1 0.181972 0.0148368 0 0 0 0 0.129104 -0.00300496 0 -0.0507789 0.0108331 0 0.129104 -0.00300496 0 513.443 513.443 1001.22 
102 1 1 0.191691 0.0162197 0 0 0 0 0.135741 -0.0238592 0 -0.037131 0.0298799 0 0.135741 -0.0238592 0 530.661 530.661 1001.26 
103 1 1 0.192485 0.0248054 0 0 0 0 0.151268 -0.0196951 0 -0.0173354 0.0108767 0 0.151268 -0.0196951 0 464.209 464.209 1001.1 
104 1 1 0.189611 0.0057357 0 0 0 0 0.14146 -0.00343441 0 -0.0145996 0.0349616 0 0.14146 -0.00343441 0 584.886 584.886 1001.39 
105 1 1 0.199616 0.0111635 0 0 0 0 0.148548 0.00163482 0 0.014112 -0.0575707 0 0.148548 0.00163482 0 549.863 549.863 1001.3 
106 1 1 0.208014 0.00538877 0 0 0 0 0.14176 0.00759039 0 0.0221637 0.0603708 0 0.14176 0.00759039 0 575.018 575.018 1001.36 
107 1 1 0.217832 0.011711 0 0 0 0 0.152768 -0.0296007 0 0.0154669 -0.0190986 0 0.152768 -0.0296007 0 556.332 556.332 1001.32 
108 1 1 0.22573 0.0058079 0 0 0 0 0.167698 -0.00680991 0 -0.0176847 0.0372901 0 0.167698 -0.00680991 0 570.153 570.153 1001.35 
109 1 1 0.226558 0.0175758 0 0 0 0 0.1754 0.00196925 0 0.00175813 0.00810747 0 0.1754 0.00196925 0 514.596 514.596 1001.22 
110 1 1 0.234111 0.0159438 0 0 0 0 0.161387 0.0094636 0 -0.0415937 -0.0792574 0 0.161387 0.0094636 0 508.251 508.251 1001.21 
111 1 1 0.238021 0.00746879 0 0 0 0 0.163782 0.00299556 0 0.0331541 -0.0496858 0 0.163782 0.00299556 0 544.323 544.323 1001.29 
112 1 1 0.247082 0.00965075 0 0 0 0 0.159706 0.0107004 0 0.0285409 -0.00815644 0 0.159706 0.0107004 0 553.489 553.489 1001.31 
113 1 1 0.256972 0.00613221 0 0 0 0 0.15318 -0.00384085 0 0.0581455 0.0413399 0 0.15318 -0.00384085 0 564.119 564.119 1001.34 
114 1 1 0.26509 0.013061 0 0 0 0 0.144931 0.0513962 0 0.0178118 -0.0154189 0 0.144931 0.0513962 0 512.293 512.293 1001.22 
115 1 1 0.272152 0.0244108 0 0 0 0 0.226685 0.0616446 0 0.0624643 0.0377821 0 0.226685 0.0616446 0 428.563 428.563 1001.02 
116 1 1 0.271616 0.00687638 0 0 0 0 0.0960654 -0.00218788 0 -0.00758759 -0.0153564 0 0.0960654 -0.00218788 0 553.953 553.953 1001.31 
117 1 1 0.283143 0.00778659 0 0 0 0 0.138909 -0.0124568 0 -0.00232902 0.0176712 0 0.138909 -0.0124568 0 546.5 546.5 1001.3 
118 1 1 0.291074 0.0102715 0 0 0 0 0.128372 0.00826495 0 0.0603674 0.00535614 0 0.128372 0.00826495 0 516.542 516.542 1001.23 
119 1 1 0.300535 0.00594623 0 0 0 0 0.124848 0.00841948 0 0.0296289 -0.00726517 0 0.124848 0.00841948 0 531.197 531.197 1001.26 
120 1 1 0.30981 0.0178111 0 0 0 0 0.143574 0.0298037 0 0.0886454 -0.00605393 0 0.143574 0.0298037 0 461.468 461.468 1001.1 
121 1 1 0.310832 0.00919126 0 0 0 0 0.0964963 0.0106036 0 0.0814897 0.0201732 0 0.0964963 0.0106036 0 512.405 512.405 1001.22 
122 1 1 0.321442 0.00565686 0 0 0 0 0.0900928 -0.0028144 0 0.0570737 -0.0280008 0 0.0900928 -0.0028144 0 517.653 517.653 1001.23 
123 1 1 0.343052 0.014355 0 0 0 0 0.086438 0.0147346 0 0.0253075 -0.0129688 0 0.086438 0.0147346 0 471.446 471.446 1001.12 
124 1 1 0.337928 0.00573973 0 0 0 0 0.097337 0.000765229 0 0.0436364 0.0311193 0 0.097337 0.000765229 0 524.867 524.867 1001.25 
125 1 1 0.352475 0.00601237 0 0 0 0 0.0584129 0.00905536 0 0.00876863 0.0126471 0 0.0584129 0.00905536 0 485.598 485.598 1001.15 
126 1 1 0.361198 0.0138853 0 0 0 0 0.0763476 -0.000627358 0 0.0705833 -0.0408037 0 0.0763476 -0.000627358 0 450.545 450.545 1001.07 
127 1 1 0.366462 0.00646522 0 0 0 0 0.0592257 -0.0124315 0 0.0418125 -0.0054724 0 0.0592257 -0.0124315 0 492.4 492.4 1001.17 
128 1 1 0.378531 0.00732753 0 0 0 0 0.065096 0.0126553 0 0.0365853 0.00217864 0 0.065096 0.0126553 0 477.178 477.178 1001.13 
129 1 1 0.402609 0.00827876 0 0 0 0 0.00206678 0.00524334 0 -0.000937979 0.027035 0 0.00206678 0.00524334 0 465.587 465.587 1001.1 
130 1 1 0.412259 0.00764062 0 0 0 0 0.0102781 -0.0101482 0 0.0111103 -0.034169 0 0.0102781 -0.0101482 0 467.688 467.688 1001.11 
131 1 1 0.42501 0.0055123 0 0 0 0 0.0244065 -0.00421056 0 -0.00991421 0.0179806 0 0.0244065 -0.00421056 0 487.552 487.552 1001.16 
132 1 1 0.417923 0.0157624 0 0 0 0 0.00970483 -0.0150418 0 0.0372607 0.0404055 0 0.00970483 -0.0150418 0 440.933 440.933 1001.05 
133 1 1 0.43627 0.00954499 0 0 0 0 0.0179325 -0.000945087 0 -0.028598 -0.0319622 0 0.0179325 -0.000945087 0 457.476 457.476 1001.09 
134 1 1 0.446274 0.0156513 0 0 0 0 0.0327829 0.00213269 0 -0.0283475 0.0172046 0 0.0327829 0.00213269 0 440.341 440.341 1001.05 
135 1 1 0.447087 0.00506177 0 0 0 0 0.0220647 -0.00278652 0 -0.0336651 0.0215117 0 0.0220647 -0.00278652 0 494.387 494.387 1001.17 
136 1 1 0.456647 0.0115137 0 0 0 0 0.013824 0.00394707 0 -0.0372977 -0.0387657 0 0.013824 0.00394707 0 456.325 456.325 1001.08 
137 1 1 0.46536 0.00525396 0 0 0 0 0.0102327 0.000144756 0 -0.0126963 -0.0107937 0 0.0102327 0.000144756 0 491.479 491.479 1001.17 
138 1 1 0.479479 0.00652544 0 0 0 0 0.0122316 -0.00169996 0 -0.0169464 0.00344221 0 0.0122316 -0.00169996 0 482.163 482.163 1001.14 
139 1 1 0.49255 0.00584261 0 0 0 0 0.00798188 0.0051518 0 -0.00177562 0.000381295 0 0.00798188 0.0051518 0 478.87 478.87 1001.14 
140 1 1 0.178027 0.0344255 0 0 0 0 0.144992 -0.0395541 0 -0.021595 0.0333701 0 0.144992 -0.0395541 0 375.173 375.173 1000.89 
141 1 1 0.181287 0.024134 0 0 0 0 0.170797 -0.00655566 0 -0.0279466 -0.021823 0 0.170797 -0.00655566 0 451.965 451.965 1001.07 
142 1 1 0.210229 0.0475638 0 0 0 0 0.209287 -0.0661062 0 -0.030857 -0.0200376 0 0.209287 -0.0661062 0 306.902 306.902 1000.73 
143 1 1 0.199106 0.0311454 0 0 0 0 0.140655 -0.058756 0 0.00403589 -0.0124003 0 0.140655 -0.058756 0 406.848 406.848 1000.97 
144 1 1 0.208245 0.0279003 0 0 0 0 0.196647 -0.0176654 0 0.0408605 0.00906558 0 0.196647 -0.0176654 0 436.355 436.355 1001.04 
145 1 1 0.20354 0.0191707 0 0 0 0 0.167422 -0.00440168 0 -0.0747769 -0.0136794 0 0.167422 -0.00440168 0 499.016 499.016 1001.18 
146 1 1 0.217863 0.0339087 0 0 0 0 0.167232 0.00564197 0 0.0273633 -0.00147112 0 0.167232 0.00564197 0 387.291 387.291 1000.92 
147 1 1 0.21229 0.0169548 0 0 0 0 0.166234 -0.00890991 0 -0.0345756 -0.0114666 0 0.166234 -0.00890991 0 522.235 522.235 1001.24 
148 1 1 0.219633 0.0248296 0 0 0 0 0.191237 -0.0255719 0 -0.0348139 -0.00644715 0 0.191237 -0.0255719 0 467.987 467.987 1001.11 
149 1 1 0.236664 0.0255885 0 0 0 0 0.189973 0.00779971 0 0.0583402 -0.0408719 0 0.189973 0.00779971 0 432.505 432.505 1001.03 
150 1 1 0.249522 0.0387755 0 0 0 0 0.198706 -0.00797099 0 0.028965 -0.106755 0 0.198706 -0.00797099 0 326.044 326.044 1000.77 
151 1 1 0.244983 0.0186354 0 0 0 0 0.176308 -0.0148888 0 -0.000126989 0.0251146 0 0.176308 -0.0148888 0 497.23 497.23 1001.18 
152 1 1 0.248198 0.0279374 0 0 0 0 0.208512 -0.0151276 0 -0.0269683 -0.0436744 0 0.208512 -0.0151276 0 438.156 438.156 1001.04 
153 1 1 0.254565 0.017564 0 0 0 0 0.183697 -0.0154494 0 0.00503742 -0.0126823 0 0.183697 -0.0154494 0 487.329 487.329 1001.16 
154 1 1 0.275963 0.0166942 0 0 0 0 0.156919 -0.0440149 0 0.0896921 -0.028696 0 0.156919 -0.0440149 0 493.044 493.044 1001.17 
155 1 1 0.293528 0.0199791 0 0 0 0 0.150281 0.0206902 0 0.0806333 0.0148496 0 0.150281 0.0206902 0 462.571 462.571 1001.1 
156 1 1 0.284073 0.0201816 0 0 0 0 0.145874 0.00690908 0 0.0178232 -0.0903076 0 0.145874 0.00690908 0 482.796 482.796 1001.15 
157 1 1 0.301292 0.0174298 0 0 0 0 0.123653 0.00299757 0 0.0887338 -0.00719772 0 0.123653 0.00299757 0 476.89 476.89 1001.13 
158 1 1 0.30257 0.0294289 0 0 0 0 0.158632 0.0140887 0 0.031388 -0.0626921 0 0.158632 0.0140887 0 392.808 392.808 1000.93 
159 1 1 0.319746 0.0242803 0 0 0 0 0.130767 0.0319967 0 0.0911808 -0.00933778 0 0.130767 0.0319967 0 425.892 425.892 1001.01 
160 1 1 0.320802 0.0162592 0 0 0 0 0.106727 0.00813407 0 0.0539002 -0.00720146 0 0.106727 0.00813407 0 470.96 470.96 1001.12 
161 1 1 0.329937 0.0126597 0 0 0 0 0.0892543 -0.0063048 0 0.0957902 0.00229319 0 0.0892543 -0.0063048 0 493.146 493.146 1001.17 
162 1 1 0.34315 0.0253779 0 0 0 0 0.0665573 0.0314881 0 0.0913813 -0.00501349 0 0.0665573 0.0314881 0 378.741 378.741 1000.9 
163 1 1 0.350226 0.0163633 0 0 0 0 0.0784413 0.0228698 0 0.090811 -0.00143864 0 0.0784413 0.0228698 0 438.296 438.296 1001.04 
164 1 1 0.370334 0.0241875 0 0 0 0 0.058052 0.00411263 0 0.0522624 0.0542826 0 0.058052 0.00411263 0 378.886 378.886 1000.9 
165 1 1 0.390938 0.00650479 0 0 0 0 0.0179764 0.00848169 0 0.0313416 -0.00503415 0 0.0179764 0.00848169 0 487.325 487.325 1001.16 
166 1 1 0.37233 0.0158877 0 0 0 0 0.0733226 -0.00439862 0 0.0476415 0.000702248 0 0.0733226 -0.00439862 0 439.78 439.78 1001.04 
167 1 1 0.391814 0.0227291 0 0 0 0 0.0739421 0.0175749 0 -0.00594115 0.0177292 0 0.0739421 0.0175749 0 397.751 397.751 1000.94 
168 1 1 0.410353 0.0188333 0 0 0 0 0.0418481 0.0103762 0 -0.0184096 -0.0593362 0 0.0418481 0.0103762 0 402.54 402.54 1000.96 
169 1 1 0.397569 0.0336715 0 0 0 0 0.0746431 0.0245777 0 -0.00207202 0.0496494 0 0.0746431 0.0245777 0 292.944 292.944 1000.7 
170 1 1 0.398073 0.0154194 0 0 0 0 0.0479659 0.00853585 0 -0.0222083 0.0160449 0 0.0479659 0.00853585 0 435.352 435.352 1001.03 
171 1 1 0.402631 0.0243043 0 0 0 0 0.0590173 0.0321854 0 -0.0159947 -0.00375823 0 0.0590173 0.0321854 0 361.104 361.104 1000.86 
172 1 1 0.427678 0.015084 0 0 0 0 0.0187904 0.00191466 0 -0.0360554 0.0519013 0 0.0187904 0.00191466 0 439.697 439.697 1001.04 
173 1 1 0.438441 0.0190004 0 0 0 0 0.0534879 -0.00480967 0 -0.0192983 0.0195514 0 0.0534879 -0.00480967 0 417.356 417.356 1000.99 
174 1 1 0.46476 0.0162848 0 0 0 0 0.0417328 -0.0095881 0 -0.021609 0.00135306 0 0.0417328 -0.0095881 0 425.595 425.595 1001.01 
175 1 1 0.462865 0.0277294 0 0 0 0 0.0296464 -0.0139793 0 -0.0143914 -0.0118718 0 0.0296464 -0.0139793 0 359.818 359.818 1000.85 
176 1 1 0.474123 0.0140009 0 0 0 0 0.0191523 0.00142232 0 -0.0226306 0.00362476 0 0.0191523 0.00142232 0 440.599 440.599 1001.05 
177 1 1 0.485066 0.0148269 0 0 0 0 0.0151507 -0.000285274 0 -0.0219522 -0.0326125 0 0.0151507 -0.000285274 0 438.903 438.903 1001.04 
178 1 1 0.491683 0.0194837 0 0 0 0 -0.00215355 0.0220869 0 -0.00403402 -0.020034 0 -0.00215355 0.0220869 0 410.259 410.259 1000.97 
179 1 1 0.170639 0.0492127 0 0 0 0 0.172696 -0.00889759 0 -0.108523 0.0582121 0 0.172696 -0.00889759 0 250.461 250.461 1000.6 
180 1 1 0.187367 0.0337619 0 0 0 0 0.164329 0.0221175 0 -0.0413973 0.00159388 0 0.164329 0.0221175 0 357.443 357.443 1000.85 
181 1 1 0.187072 0.0445181 0 0 0 0 0.182257 0.00021672 0 0.0308741 0.0515995 0 0.182257 0.00021672 0 301.624 301.624 1000.72 
182 1 1 0.196431 0.0407917 0 0 0 0 0.198859 -0.0388717 0 0.0176063 -0.0473843 0 0.198859 -0.0388717 0 324.615 324.615 1000.77 
183 1 1 0.211622 0.0570018 0 0 0 0 0.216126 -0.0632362 0 -0.0145282 -0.0992646 0 0.216126 -0.0632362 0 250.464 250.464 1000.6 
184 1 1 0.199078 0.0499352 0 0 0 0 0.197989 -0.0380762 0 -0.0187319 0.0358953 0 0.197989 -0.0380762 0 278.442 278.442 1000.66 
185 1 1 0.208295 0.0384339 0 0 0 0 0.176429 -0.0360004 0 -0.0657609 -0.0387353 0 0.176429 -0.0360004 0 387.32 387.32 1000.92 
186 1 1 0.228538 0.030168 0 0 0 0 0.176716 -0.018403 0 -0.0487515 -0.025693 0 0.176716 -0.018403 0 423.408 423.408 1001.01 
187 1 1 0.23866 0.0346751 0 0 0 0 0.248839 -0.00511406 0 0.00748644 0.0102423 0 0.248839 -0.00511406 0 374.547 374.547 1000.89 
188 1 1 0.239994 0.044446 0 0 0 0 0.21242 0.0137386 0 -0.0164906 -0.0794943 0 0.21242 0.0137386 0 299.9 299.9 1000.71 
189 1 1 0.259581 0.0427635 0 0 0 0 0.19731 0.0167869 0 0.0238822 -0.0163801 0 0.19731 0.0167869 0 301.562 301.562 1000.72 
190 1 1 0.26247 0.0213018 0 0 0 0 0.227888 0.0468726 0 0.0896364 0.037412 0 0.227888 0.0468726 0 462.801 462.801 1001.1 
191 1 1 0.268116 0.0442701 0 0 0 0 0.160493 0.0444163 0 0.0795034 0.054446 0 0.160493 0.0444163 0 274.869 274.869 1000.65 
192 1 1 0.265678 0.0331071 0 0 0 0 0.205596 0.00244163 0 0.0364806 -0.125456 0 0.205596 0.00244163 0 361.869 361.869 1000.86 
193 1 1 0.292101 0.0304339 0 0 0 0 0.171086 0.0337578 0 0.0602849 -0.00764982 0 0.171086 0.0337578 0 399.787 399.787 1000.95 
194 1 1 0.27952 0.0460443 0 0 0 0 0.195511 0.00681652 0 0.0200521 -0.11637 0 0.195511 0.00681652 0 283.467 283.467 1000.67 
195 1 1 0.298258 0.0392466 0 0 0 0 0.145426 0.0359392 0 0.0971703 -0.045232 0 0.145426 0.0359392 0 300.276 300.276 1000.71 
196 1 1 0.310073 0.0293693 0 0 0 0 0.142308 0.032637 0 0.11 0.0471403 0 0.142308 0.032637 0 383.064 383.064 1000.91 
197 1 1 0.31884 0.0356314 0 0 0 0 0.146455 0.041132 0 0.0996336 0.0677686 0 0.146455 0.041132 0 319.164 319.164 1000.76 
198 1 1 0.327734 0.0296105 0 0 0 0 0.126997 0.00693453 0 0.0685995 -0.0100093 0 0.126997 0.00693453 0 390.222 390.222 1000.93 
199 1 1 0.336566 0.03178 0 0 0 0 0.0968571 0.0618439 0 0.0909523 -0.0227009 0 0.0968571 0.0618439 0 347.679 347.679 1000.83 
200 1 1 0.333425 0.0195905 0 0 0 0 0.10485 -0.00144057 0 0.0361414 0.0720261 0 0.10485 -0.00144057 0 449.563 449.563 1001.07 
201 1 1 0.35891 0.0217587 0 0 0 0 0.0892166 7.63733e-05 0 0.090516 0.00401479 0 0.0892166 7.63733e-05 0 399.102 399.102 1000.95 
202 1 1 0.345652 0.0375203 0 0 0 0 0.118001 0.0020453 0 0.0890411 0.0114623 0 0.118001 0.0020453 0 288.511 288.511 1000.69 
203 1 1 0.362818 0.0316531 0 0 0 0 0.0969156 0.0440686 0 0.00811381 0.0236657 0 0.0969156 0.0440686 0 315.698 315.698 1000.75 
204 1 1 0.370266 0.037031 0 0 0 0 0.0679401 0.0367567 0 0.0249624 0.0471065 0 0.0679401 0.0367567 0 287.886 287.886 1000.68 
205 1 1 0.385203 0.014475 0 0 0 0 0.0534513 0.0341129 0 0.0301732 0.0488938 0 0.0534513 0.0341129 0 443.783 443.783 1001.05 
206 1 1 0.380928 0.0223258 0 0 0 0 0.057241 0.0358706 0 -0.000740242 0.0299965 0 0.057241 0.0358706 0 396.694 396.694 1000.94 
207 1 1 0.418637 0.0370795 0 0 0 0 0.0834928 0.000419 0 -0.0513562 0.0843465 0 0.0834928 0.000419 0 287.453 287.453 1000.68 
208 1 1 0.429155 0.024752 0 0 0 0 0.0532367 -0.0287431 0 0.024221 0.0362829 0 0.0532367 -0.0287431 0 393.158 393.158 1000.93 
209 1 1 0.410549 0.0301554 0 0 0 0 0.0642119 0.0178613 0 0.00442837 -0.0209575 0 0.0642119 0.0178613 0 305.441 305.441 1000.73 
210 1 1 0.438451 0.0311037 0 0 0 0 0.0553683 0.00215142 0 -0.0342595 0.0160618 0 0.0553683 0.00215142 0 333.415 333.415 1000.79 
211 1 1 0.420804 0.0269328 0 0 0 0 0.0517363 -0.0124567 0 -0.0768741 -0.0263509 0 0.0517363 -0.0124567 0 361.412 361.412 1000.86 
212 1 1 0.446234 0.0282994 0 0 0 0 0.0527376 0.010717 0 -0.0175637 -0.0392745 0 0.0527376 0.010717 0 344.278 344.278 1000.82 
213 1 1 0.454157 0.0205992 0 0 0 0 0.039781 0.0122106 0 0.0342267 -0.0169418 0 0.039781 0.0122106 0 403.308 403.308 1000.96 
214 1 1 0.468157 0.0361668 0 0 0 0 0.0422982 0.0189925 0 0.00304656 0.00633601 0 0.0422982 0.0189925 0 292.789 292.789 1000.7 
215 1 1 0.481731 0.0247066 0 0 0 0 -0.00221283 0.0130199 0 0.0216617 -0.0202821 0 -0.00221283 0.0130199 0 376.796 376.796 1000.89 
216 1 1 0.472097 0.0234663 0 0 0 0 0.0320978 0.0321061 0 -0.00396974 0.0211565 0 0.0320978 0.0321061 0 376.819 376.819 1000.89 
217 1 1 0.489367 0.0314017 0 0 0 0 -0.0161141 0.00559801 0 0.0225458 -0.0199849 0 -0.0161141 0.00559801 0 310.985 310.985 1000.74 
218 1 1 0.184192 0.0563203 0 0 0 0 0.20637 -0.0523228 0 0.0210556 -0.0627441 0 0.20637 -0.0523228 0 211.093 211.093 1000.5 
219 1 1 0.139216 0.053465 0 0 0 0 0.147509 -0.0924736 0 0.0537641 -0.0060236 0 0.147509 -0.0924736 0 255.943 255.943 1000.61 
220 1 1 0.16133 0.0523774 0 0 0 0 0.170506 -0.045504 0 0.0820698 -0.000110465 0 0.170506 -0.045504 0 256.403 256.403 1000.61 
221 1 1 0.195097 0.0578854 0 0 0 0 0.221572 -0.0297288 0 -0.0415538 -0.00313755 0 0.221572 -0.0297288 0 229.107 229.107 1000.54 
222 1 1 0.177618 0.0457265 0 0 0 0 0.177152 -0.0543267 0 0.0145195 -0.0675528 0 0.177152 -0.0543267 0 293.454 293.454 1000.7 
223 1 1 0.220191 0.0454774 0 0 0 0 0.243613 -0.0172889 0 0.0810833 0.0361 0 0.243613 -0.0172889 0 290.007 290.007 1000.69 
224 1 1 0.227644 0.0406923 0 0 0 0 0.239443 -0.064748 0 0.0492153 0.00395017 0 0.239443 -0.064748 0 359.463 359.463 1000.85 
225 1 1 0.233186 0.0505307 0 0 0 0 0.204779 -0.0183576 0 -0.0537629 -0.105329 0 0.204779 -0.0183576 0 284.973 284.973 1000.68 
226 1 1 0.243975 0.0577033 0 0 0 0 0.239527 -0.0371276 0 -0.005463 -0.0305163 0 0.239527 -0.0371276 0 237.095 237.095 1000.56 
227 1 1 0.25671 0.0304131 0 0 0 0 0.192892 -0.00673346 0 0.0590925 -0.0255356 0 0.192892 -0.00673346 0 404.086 404.086 1000.96 
228 1 1 0.250128 0.048243 0 0 0 0 0.242927 0.0310847 0 0.091598 0.0315065 0 0.242927 0.0310847 0 260.051 260.051 1000.62 
229 1 1 0.261836 0.0553972 0 0 0 0 0.242925 0.03007 0 0.0292733 -0.206116 0 0.242925 0.03007 0 244.103 244.103 1000.58 
230 1 1 0.275062 0.0359244 0 0 0 0 0.202025 0.101394 0 0.108918 -0.00445642 0 0.202025 0.101394 0 356.74 356.74 1000.85 
231 1 1 0.282254 0.0304727 0 0 0 0 0.171814 -0.0101283 0 0.0903786 -0.00847002 0 0.171814 -0.0101283 0 425.881 425.881 1001.01 
232 1 1 0.287976 0.0409927 0 0 0 0 0.179501 0.0354515 0 0.057762 -0.0426235 0 0.179501 0.0354515 0 317.807 317.807 1000.75 
233 1 1 0.309555 0.0411711 0 0 0 0 0.12239 0.041119 0 0.0538624 -0.0677845 0 0.12239 0.041119 0 288.562 288.562 1000.69 
234 1 1 0.293648 0.0520958 0 0 0 0 0.169412 0.0850803 0 0.0821316 0.0731833 0 0.169412 0.0850803 0 239.198 239.198 1000.57 