ITEM: TIMESTEP
186000
ITEM: NUMBER OF ATOMS
2655
ITEM: BOX BOUNDS ff ff ff
0 0.5
0 0.1
0 0.5
ITEM: ATOMS id type type x y z ix iy iz vx vy vz fx fy fz vx vy vz p p rho 
1 1 1 0.0099878 0.00998191 0.00997861 0 0 0 -0.0014051 -0.00353043 0.00269176 -0.00229638 0.00270203 -0.00404061 -0.0014051 -0.00353043 0.00269176 453.133 453.133 1001.08 
2 1 1 0.0426254 0.00997646 0.00998276 0 0 0 -0.0177404 -0.00150132 0.00167964 -0.000456035 0.00724103 -0.00608042 -0.0177404 -0.00150132 0.00167964 429.828 429.828 1001.02 
3 1 1 0.0378977 0.00997972 0.00998166 0 0 0 0.0030766 -0.00589939 0.00577614 -0.000194031 0.0041642 -0.00487742 0.0030766 -0.00589939 0.00577614 431.566 431.566 1001.02 
4 1 1 0.0744816 0.00998839 0.00997427 0 0 0 -0.0187568 -0.00599078 0.00615011 0.000371338 -0.00361511 0.00300215 -0.0187568 -0.00599078 0.00615011 425.816 425.816 1001.01 
5 1 1 0.0791675 0.00998098 0.0099795 0 0 0 -0.0281006 0.00286053 -0.00405662 0.000196352 0.00380107 -0.00243982 -0.0281006 0.00286053 -0.00405662 425.24 425.24 1001.01 
6 1 1 0.0971318 0.00997943 0.00998119 0 0 0 -0.024084 -0.0039805 0.00324855 0.000498029 0.00396697 -0.00449095 -0.024084 -0.0039805 0.00324855 414.239 414.239 1000.98 
7 1 1 0.110845 0.0099788 0.00998121 0 0 0 -0.0306511 0.00160379 -0.00233064 7.66106e-05 0.00466176 -0.00433358 -0.0306511 0.00160379 -0.00233064 410.046 410.046 1000.97 
8 1 1 0.119955 0.00998453 0.00997595 0 0 0 -0.0395007 -0.000244718 0.000273356 2.23618e-05 -0.00101493 0.00140531 -0.0395007 -0.000244718 0.000273356 408.451 408.451 1000.97 
9 1 1 0.129331 0.00998626 0.00997396 0 0 0 -0.0281523 0.00257127 -0.00177723 -0.000240861 -0.00267627 0.00341473 -0.0281523 0.00257127 -0.00177723 408.494 408.494 1000.97 
10 1 1 0.142643 0.00998676 0.0099746 0 0 0 -0.0253617 -0.00142323 0.00195384 -0.000178967 -0.00296583 0.00284525 -0.0253617 -0.00142323 0.00195384 408.608 408.608 1000.97 
11 1 1 0.00998176 0.0214865 0.00997496 0 0 0 -0.00503555 -0.0135773 0.00264476 0.00354998 -0.000860667 -0.00197495 -0.00503555 -0.0135773 0.00264476 437.026 437.026 1001.04 
12 1 1 0.0380837 0.0379042 0.00997343 0 0 0 -0.00967169 -0.00866762 -0.000375612 -0.000198781 0.000426233 0.000404355 -0.00967169 -0.00866762 -0.000375612 396.966 396.966 1000.94 
13 1 1 0.023003 0.0219156 0.00997615 0 0 0 -0.0051424 0.00885909 -0.00261489 -0.00019916 -0.000613451 -0.00168315 -0.0051424 0.00885909 -0.00261489 427.876 427.876 1001.02 
14 1 1 0.0889119 0.0228056 0.00997454 0 0 0 -0.0199148 -0.0196569 -0.00160257 -0.000350646 -0.000370295 9.63418e-05 -0.0199148 -0.0196569 -0.00160257 405.198 405.198 1000.96 
15 1 1 0.0790744 0.0231757 0.00997217 0 0 0 -0.00673975 0.00361553 6.1998e-05 -0.000213614 -0.000741772 0.00117797 -0.00673975 0.00361553 6.1998e-05 403.603 403.603 1000.96 
16 1 1 0.106947 0.023054 0.00997589 0 0 0 -0.0327713 0.00391541 -0.000887718 0.000168921 -7.34949e-05 -0.00100642 -0.0327713 0.00391541 -0.000887718 401.961 401.961 1000.95 
17 1 1 0.110564 0.0422626 0.00997513 0 0 0 -0.0148079 -0.00498486 -5.01151e-05 0.0005908 -0.000453317 -3.90053e-05 -0.0148079 -0.00498486 -5.01151e-05 392.685 392.685 1000.93 
18 1 1 0.14028 0.0314347 0.00997594 0 0 0 -0.00144498 -0.0170859 -5.43363e-05 -0.000413363 -3.38428e-05 -3.52151e-05 -0.00144498 -0.0170859 -5.43363e-05 396.755 396.755 1000.94 
19 1 1 0.119411 0.0231661 0.00997458 0 0 0 -0.0276956 0.0206772 8.6541e-05 -0.00020368 -0.000147913 0.000717869 -0.0276956 0.0206772 8.6541e-05 402.295 402.295 1000.96 
20 1 1 0.155851 0.022415 0.00997649 0 0 0 -0.0446514 -0.00543957 -0.000124929 -0.000154901 -0.000203295 0.000122049 -0.0446514 -0.00543957 -0.000124929 403.922 403.922 1000.96 
21 1 1 0.00999403 0.0282629 0.00996547 0 0 0 0.00254564 0.00702097 0.000371785 -0.00866877 2.63843e-05 0.00702452 0.00254564 0.00702097 0.000371785 431.689 431.689 1001.02 
22 1 1 0.0362322 0.026141 0.00997503 0 0 0 -0.00551023 -0.0134081 0.000408225 -0.000919938 -0.000361198 -0.00114613 -0.00551023 -0.0134081 0.000408225 401.601 401.601 1000.95 
23 1 1 0.0718765 0.0467098 0.00997435 0 0 0 -0.012005 -0.00497062 -7.38812e-05 7.05634e-05 -5.84995e-05 0.000197323 -0.012005 -0.00497062 -7.38812e-05 392.432 392.432 1000.93 
24 1 1 0.0967323 0.0305407 0.00997419 0 0 0 -0.00602499 0.0128711 1.59277e-05 -0.000199125 -1.27554e-06 0.000164443 -0.00602499 0.0128711 1.59277e-05 395.641 395.641 1000.94 
25 1 1 0.118174 0.0376105 0.00997572 0 0 0 -0.00822135 0.0187563 -4.36423e-05 -0.000726149 0.000342923 -0.000154816 -0.00822135 0.0187563 -4.36423e-05 390.947 390.947 1000.93 
26 1 1 0.113393 0.0219856 0.00997512 0 0 0 -0.0257041 -0.0107706 -0.000393491 2.53518e-05 0.000196454 0.000186342 -0.0257041 -0.0107706 -0.000393491 403.605 403.605 1000.96 
27 1 1 0.138318 0.0432897 0.00997604 0 0 0 -0.0210444 -0.00704984 -7.30673e-05 0.000387112 0.000156703 -8.60477e-05 -0.0210444 -0.00704984 -7.30673e-05 389.584 389.584 1000.93 
28 1 1 0.116575 0.0311609 0.00997538 0 0 0 -0.0127017 0.00581436 -3.32919e-05 0.000138727 -7.99413e-05 3.76737e-06 -0.0127017 0.00581436 -3.32919e-05 396.351 396.351 1000.94 
29 1 1 0.143736 0.0226124 0.0099758 0 0 0 -0.041652 -0.00752258 5.06506e-05 -5.38172e-05 -9.68077e-05 -1.46657e-05 -0.041652 -0.00752258 5.06506e-05 403.285 403.285 1000.96 
30 1 1 0.152134 0.0311295 0.00997623 0 0 0 -0.0118166 -0.0114606 2.16299e-05 0.00029441 0.000367106 -0.000121207 -0.0118166 -0.0114606 2.16299e-05 394.974 394.974 1000.94 
31 1 1 0.00997697 0.0381064 0.00997881 0 0 0 -0.00087057 -0.00873826 -0.00144213 0.00839653 -0.000281165 -0.00674798 -0.00087057 -0.00873826 -0.00144213 434.417 434.417 1001.03 
32 1 1 0.0228552 0.0408616 0.00997473 0 0 0 -0.00396051 -0.00718687 -0.000340406 -0.000243798 -0.000590764 -0.00110361 -0.00396051 -0.00718687 -0.000340406 419.61 419.61 1001 
33 1 1 0.0598508 0.0220599 0.00997324 0 0 0 -0.00376093 -0.0224101 -0.000238132 5.53731e-05 0.000661276 0.00020509 -0.00376093 -0.0224101 -0.000238132 403.827 403.827 1000.96 
34 1 1 0.065961 0.0354258 0.00997347 0 0 0 -0.0220316 -0.0247399 -3.77973e-05 0.000170772 0.0002533 0.000254892 -0.0220316 -0.0247399 -3.77973e-05 394.244 394.244 1000.94 
35 1 1 0.0855282 0.0356738 0.00997382 0 0 0 -0.0203838 -0.0064224 8.45558e-05 -0.000219384 -4.66755e-05 4.17436e-05 -0.0203838 -0.0064224 8.45558e-05 394.283 394.283 1000.94 
36 1 1 0.107745 0.0313069 0.0099751 0 0 0 0.00757726 -0.0111695 5.54863e-06 0.000113805 -0.00019511 3.46519e-05 0.00757726 -0.0111695 5.54863e-06 397.393 397.393 1000.94 
37 1 1 0.128948 0.037293 0.009976 0 0 0 -0.0145433 -0.00749742 -5.33527e-05 -0.000403313 -0.000326766 -8.26056e-05 -0.0145433 -0.00749742 -5.33527e-05 390.68 390.68 1000.93 
38 1 1 0.135117 0.0369851 0.00997634 0 0 0 -0.0180115 -0.0154514 -6.13223e-05 0.000290785 -0.000486826 -6.65278e-05 -0.0180115 -0.0154514 -6.13223e-05 391.837 391.837 1000.93 
39 1 1 0.159805 0.0385079 0.00997664 0 0 0 -0.0328838 0.0124847 -2.6492e-05 1.31168e-05 -0.000531015 -7.69362e-05 -0.0328838 0.0124847 -2.6492e-05 390.266 390.266 1000.93 
40 1 1 0.172 0.0399801 0.00997642 0 0 0 -0.0291317 0.0128467 -5.20707e-05 0.000692113 -0.000129461 -0.000112664 -0.0291317 0.0128467 -5.20707e-05 388.528 388.528 1000.92 
41 1 1 0.00997505 0.0519586 0.00997938 0 0 0 0.00261182 -0.00375092 -0.00330618 0.0107062 -0.000264704 -0.00704274 0.00261182 -0.00375092 -0.00330618 443.893 443.893 1001.05 
42 1 1 0.0436423 0.0661739 0.00997349 0 0 0 -0.0269691 -0.0142698 -1.2212e-05 -0.000367941 -0.00120081 0.000143996 -0.0269691 -0.0142698 -1.2212e-05 400.511 400.511 1000.95 
43 1 1 0.0623647 0.054031 0.00997471 0 0 0 -0.0112507 0.00230346 -7.15472e-05 -0.000749494 -0.000211133 -5.40321e-05 -0.0112507 0.00230346 -7.15472e-05 394.412 394.412 1000.94 
44 1 1 0.077021 0.0430691 0.00997424 0 0 0 -0.000322073 -0.00470226 -5.60286e-05 0.000389551 -0.00029475 0.000128221 -0.000322073 -0.00470226 -5.60286e-05 391.125 391.125 1000.93 
45 1 1 0.0897424 0.0463305 0.00997472 0 0 0 -0.0100086 -0.00978456 -0.000107135 -2.87158e-05 0.000194016 -5.86111e-06 -0.0100086 -0.00978456 -0.000107135 390.122 390.122 1000.93 
46 1 1 0.102472 0.0503412 0.00997431 0 0 0 -0.0189069 0.010568 -0.000110791 0.00048875 -0.000173627 -1.09495e-05 -0.0189069 0.010568 -0.000110791 389.47 389.47 1000.92 
47 1 1 0.110281 0.048914 0.00997435 0 0 0 -0.0213834 -0.00275029 -0.000107861 -0.000705902 0.00018412 1.71776e-06 -0.0213834 -0.00275029 -0.000107861 391.161 391.161 1000.93 
48 1 1 0.13481 0.0495285 0.00997618 0 0 0 -0.00414742 -0.0193679 -9.5082e-05 -0.000193754 0.000131091 -6.82668e-05 -0.00414742 -0.0193679 -9.5082e-05 389.198 389.198 1000.92 
49 1 1 0.121956 0.0493187 0.00997557 0 0 0 -0.0146161 0.0110775 -6.63589e-05 7.31641e-05 -0.000133631 -0.000129554 -0.0146161 0.0110775 -6.63589e-05 388.391 388.391 1000.92 
50 1 1 0.158756 0.0517511 0.00997656 0 0 0 -0.0276184 0.00825408 -9.59036e-05 -9.96424e-05 -2.80363e-05 -5.62058e-05 -0.0276184 0.00825408 -9.59036e-05 388.047 388.047 1000.92 
51 1 1 0.0099942 0.0615882 0.00996495 0 0 0 -9.86964e-06 0.00898851 0.000988238 -0.00909649 -0.000370968 0.00736495 -9.86964e-06 0.00898851 0.000988238 446.723 446.723 1001.06 
52 1 1 0.0250895 0.0520447 0.00997482 0 0 0 -0.0107427 -0.0293592 -0.000712629 0.000128154 1.53879e-06 -0.00127307 -0.0107427 -0.0293592 -0.000712629 416.46 416.46 1000.99 
53 1 1 0.0709861 0.0615832 0.00997407 0 0 0 -0.00266641 0.00726155 -0.000127937 -4.43397e-05 -0.000826839 9.86805e-05 -0.00266641 0.00726155 -0.000127937 391.723 391.723 1000.93 
54 1 1 0.0898756 0.0598096 0.00997467 0 0 0 -0.0161342 -0.00653588 -2.992e-06 0.000200301 -0.000298459 0.000107667 -0.0161342 -0.00653588 -2.992e-06 392.302 392.302 1000.93 
55 1 1 0.0941174 0.0548794 0.00997495 0 0 0 -0.022922 0.00470647 -3.18559e-05 -7.09909e-05 0.000293648 9.3133e-05 -0.022922 0.00470647 -3.18559e-05 390.418 390.418 1000.93 
56 1 1 0.108453 0.0683686 0.00997533 0 0 0 0.00415633 -0.010258 -2.71765e-05 -0.000420524 0.00050042 -6.16497e-05 0.00415633 -0.010258 -2.71765e-05 397.407 397.407 1000.94 
57 1 1 0.133105 0.0636375 0.00997555 0 0 0 -0.0106065 0.000161642 -0.000117655 0.000149785 9.95287e-07 -1.53623e-07 -0.0106065 0.000161642 -0.000117655 393.359 393.359 1000.93 
58 1 1 0.140226 0.0624663 0.00997601 0 0 0 -0.00686023 0.00361236 -0.000112652 -0.00017588 0.000375339 3.15494e-05 -0.00686023 0.00361236 -0.000112652 394.028 394.028 1000.94 
59 1 1 0.153289 0.0656702 0.00997638 0 0 0 0.00464129 0.0176388 -6.66931e-05 -4.44656e-05 -0.000384549 -0.000139458 0.00464129 0.0176388 -6.66931e-05 392.57 392.57 1000.93 
60 1 1 0.163071 0.0636399 0.00997626 0 0 0 -0.0254434 0.000865862 -8.74644e-05 0.000711031 0.00026183 -0.000151529 -0.0254434 0.000865862 -8.74644e-05 389.731 389.731 1000.93 
61 1 1 0.00998759 0.0710059 0.0099684 0 0 0 -0.00100187 -0.00535873 -0.000487559 -0.00335028 0.000383886 0.00303327 -0.00100187 -0.00535873 -0.000487559 449.102 449.102 1001.07 
62 1 1 0.0509925 0.0594515 0.00997296 0 0 0 -0.0289626 0.0329144 -0.000310356 -0.000586787 -2.62476e-05 4.06762e-05 -0.0289626 0.0329144 -0.000310356 393.785 393.785 1000.93 
63 1 1 0.0828497 0.0626717 0.0099745 0 0 0 0.00637336 0.00663684 -0.000204162 0.000325213 0.000456447 -9.0487e-06 0.00637336 0.00663684 -0.000204162 392.535 392.535 1000.93 
64 1 1 0.0942189 0.0668822 0.00997487 0 0 0 -0.0114013 0.00455022 -2.49667e-05 -1.47005e-05 -0.000299834 5.91693e-05 -0.0114013 0.00455022 -2.49667e-05 396.316 396.316 1000.94 
65 1 1 0.121976 0.0600609 0.009975 0 0 0 -0.00828852 0.00932254 -9.18245e-05 -0.000444761 0.00045084 -7.87211e-05 -0.00828852 0.00932254 -9.18245e-05 392.045 392.045 1000.93 
66 1 1 0.112925 0.0779212 0.00997557 0 0 0 -0.0300162 0.00172138 -0.000411658 0.00056629 -0.000374839 -6.02908e-05 -0.0300162 0.00172138 -0.000411658 405.535 405.535 1000.96 
67 1 1 0.139545 0.0545646 0.00997626 0 0 0 -0.0110993 -0.00733966 -0.000108524 -0.000150956 -0.000348125 -1.44377e-05 -0.0110993 -0.00733966 -0.000108524 390.514 390.514 1000.93 
68 1 1 0.120683 0.0678469 0.00997506 0 0 0 -0.00689326 -0.00828523 -9.05625e-05 0.000220263 -0.000101101 0.000121107 -0.00689326 -0.00828523 -9.05625e-05 398.061 398.061 1000.95 
69 1 1 0.142985 0.0765324 0.00997602 0 0 0 -0.0395991 0.00345589 -0.000283884 0.000213279 0.000350407 0.000136234 -0.0395991 0.00345589 -0.000283884 404.305 404.305 1000.96 
70 1 1 0.152601 0.0719339 0.00997679 0 0 0 -0.0430485 -0.0119524 -7.4142e-05 0.000211536 0.000627086 -0.000110018 -0.0430485 -0.0119524 -7.4142e-05 399.074 399.074 1000.95 
71 1 1 0.0099774 0.0783337 0.00997428 0 0 0 0.00674562 0.00792098 -0.00495552 0.00657041 0.000232647 -0.00321548 0.00674562 0.00792098 -0.00495552 457.369 457.369 1001.09 
72 1 1 0.0317492 0.0636801 0.00997369 0 0 0 -0.0480563 -0.0464228 0.000573947 -0.000381873 -0.00084846 -8.94815e-05 -0.0480563 -0.0464228 0.000573947 411.228 411.228 1000.98 
73 1 1 0.0326381 0.0770555 0.00997441 0 0 0 7.49628e-05 0.0109749 -0.00262708 3.07102e-05 0.000412905 -0.000754444 7.49628e-05 0.0109749 -0.00262708 417.028 417.028 1000.99 
74 1 1 0.0961124 0.0771082 0.00997504 0 0 0 -0.0120201 0.000947231 -0.00022484 -0.00033968 0.000135301 0.000193611 -0.0120201 0.000947231 -0.00022484 406.375 406.375 1000.96 
75 1 1 0.0829701 0.0772063 0.00997511 0 0 0 -0.0166639 0.000166064 0.000260419 0.000144701 5.94624e-05 -0.000734223 -0.0166639 0.000166064 0.000260419 407.511 407.511 1000.97 
76 1 1 0.106991 0.0772405 0.00997568 0 0 0 -0.0120815 0.00299801 -0.000177271 0.000147227 -0.000435351 -2.40001e-05 -0.0120815 0.00299801 -0.000177271 405.613 405.613 1000.96 
77 1 1 0.11009 0.058949 0.00997458 0 0 0 -0.0157172 -0.0226619 -7.39032e-05 0.000416997 -0.000465935 -1.33835e-06 -0.0157172 -0.0226619 -7.39032e-05 392.161 392.161 1000.93 
78 1 1 0.141864 0.0692068 0.00997531 0 0 0 -0.0304267 0.00520578 -0.000119175 0.00018521 6.1983e-05 5.00224e-05 -0.0304267 0.00520578 -0.000119175 400.048 400.048 1000.95 
79 1 1 0.118229 0.0761468 0.00997521 0 0 0 -0.0154769 -0.00243328 -0.000323803 0.000139321 0.000418934 3.30921e-05 -0.0154769 -0.00243328 -0.000323803 403.992 403.992 1000.96 
80 1 1 0.15719 0.0782778 0.00997593 0 0 0 -0.0559752 0.000447604 -0.000334716 -0.000271583 -0.000514209 0.000250723 -0.0559752 0.000447604 -0.000334716 399.958 399.958 1000.95 
81 1 1 0.00997635 0.0900163 0.00996552 0 0 0 0.00593194 0.0136594 0.00206892 0.00880736 -0.000459661 0.00669041 0.00593194 0.0136594 0.00206892 471.038 471.038 1001.12 
82 1 1 0.0334563 0.0900196 0.00997698 0 0 0 -0.0112413 -0.00244638 -0.00305489 0.00128401 -0.00293219 -0.00102058 -0.0112413 -0.00244638 -0.00305489 443.104 443.104 1001.05 
83 1 1 0.0285599 0.0900123 0.00997134 0 0 0 0.00238803 -0.001859 -0.00169659 -0.000519662 0.00404805 0.00451755 0.00238803 -0.001859 -0.00169659 449.882 449.882 1001.07 
84 1 1 0.0761107 0.0900164 0.00997376 0 0 0 -0.035168 -0.00490004 -0.00478655 -0.000665443 0.000580471 0.00234427 -0.035168 -0.00490004 -0.00478655 412.291 412.291 1000.98 
85 1 1 0.0800945 0.0900175 0.00997651 0 0 0 -0.0326783 0.00540791 0.00522231 0.00079768 -0.000416044 -0.000655573 -0.0326783 0.00540791 0.00522231 411.244 411.244 1000.98 
86 1 1 0.0987151 0.090022 0.00998053 0 0 0 -0.0448463 -0.00126889 -0.00229614 0.000934146 -0.00514229 -0.00419917 -0.0448463 -0.00126889 -0.00229614 408.762 408.762 1000.97 
87 1 1 0.113049 0.0900163 0.00997762 0 0 0 -0.0499851 0.0071987 0.00683635 0.000238132 0.000586184 -0.000405607 -0.0499851 0.0071987 0.00683635 406.923 406.923 1000.97 
88 1 1 0.122257 0.0900186 0.00997978 0 0 0 -0.0521624 0.00696992 0.00618768 0.000198026 -0.00188457 -0.00260497 -0.0521624 0.00696992 0.00618768 406.108 406.108 1000.96 
89 1 1 0.131475 0.0900196 0.00997837 0 0 0 -0.0366501 -0.00524488 -0.00564015 0.000329902 -0.00229523 -0.00115099 -0.0366501 -0.00524488 -0.00564015 404.048 404.048 1000.96 
90 1 1 0.145093 0.0900107 0.00997243 0 0 0 -0.0393051 0.00200545 0.00269604 0.000328093 0.0061026 0.00582656 -0.0393051 0.00200545 0.00269604 400.359 400.359 1000.95 
91 1 1 0.00998952 0.00998533 0.00997466 0 0 0 0.00969862 -0.00148627 -0.00350406 -0.00401465 -0.00071252 -8.0706e-05 0.00969862 -0.00148627 -0.00350406 453.137 453.137 1001.08 
92 1 1 0.0335389 0.00998505 0.00997507 0 0 0 0.00512487 0.000474227 0.00110534 0.000338128 -0.00116913 0.001764 0.00512487 0.000474227 0.00110534 435.625 435.625 1001.03 
93 1 1 0.0472567 0.00998271 0.00997608 0 0 0 0.000244777 0.00174475 -0.00141911 1.81067e-05 0.00136418 0.000814041 0.000244777 0.00174475 -0.00141911 429.956 429.956 1001.02 
94 1 1 0.056419 0.00999122 0.00996845 0 0 0 -0.0190203 0.00243534 -0.00106182 -7.51131e-05 -0.00747593 0.00820356 -0.0190203 0.00243534 -0.00106182 428.428 428.428 1001.02 
95 1 1 0.0836667 0.00999283 0.00996992 0 0 0 -0.0193672 -0.003061 0.00398744 0.000365092 -0.00801116 0.00694226 -0.0193672 -0.003061 0.00398744 423.873 423.873 1001.01 
96 1 1 0.10652 0.00997699 0.00998381 0 0 0 -0.0371138 -0.00183693 0.000695676 -4.90364e-05 0.00666253 -0.00705547 -0.0371138 -0.00183693 0.000695676 410.646 410.646 1000.97 
97 1 1 0.115555 0.00999191 0.0099687 0 0 0 -0.0310105 5.7125e-05 0.00127752 3.23227e-06 -0.00840932 0.00847372 -0.0310105 5.7125e-05 0.00127752 409.209 409.209 1000.97 
98 1 1 0.124579 0.0099777 0.00998265 0 0 0 -0.0368516 -0.0015563 0.000457514 -9.71207e-05 0.00572639 -0.00530397 -0.0368516 -0.0015563 0.000457514 408.227 408.227 1000.97 
99 1 1 0.133221 0.00998443 0.00997696 0 0 0 -0.0347901 -0.00257421 0.00268483 0.000577281 -0.0006045 0.000357957 -0.0347901 -0.00257421 0.00268483 408.464 408.464 1000.97 
100 1 1 0.138362 0.00997929 0.00998077 0 0 0 -0.0466776 0.00192541 -0.00266017 -0.000538058 0.00461289 -0.00371892 -0.0466776 0.00192541 -0.00266017 408.208 408.208 1000.97 
101 1 1 0.00998943 0.0218876 0.0239934 0 0 0 0.00140225 0.0205031 0.00772716 -0.00129951 -0.000875716 0.000334315 0.00140225 0.0205031 0.00772716 380.219 380.219 1000.9 
102 1 1 0.00997916 0.0229977 0.00997627 0 0 0 0.0012307 0.000527921 -0.00141193 0.00609655 -0.000271022 -0.00336932 0.0012307 0.000527921 -0.00141193 435.111 435.111 1001.03 
103 1 1 0.0232191 0.0252461 0.0225232 0 0 0 0.0381479 -0.00957819 -0.0129758 -0.000243699 -0.000380442 0.000298268 0.0381479 -0.00957819 -0.0129758 359.027 359.027 1000.85 
104 1 1 0.0815694 0.024145 0.0348265 0 0 0 0.0490303 -0.000565038 0.0146807 -0.000484315 -0.000816525 -0.000222677 0.0490303 -0.000565038 0.0146807 265.168 265.168 1000.63 
105 1 1 0.123297 0.0407966 0.0504513 0 0 0 0.0379931 -0.0177745 -0.0109002 0.00103803 1.05292e-06 -5.05147e-05 0.0379931 -0.0177745 -0.0109002 167.44 167.44 1000.4 
106 1 1 0.13244 0.0229709 0.00997575 0 0 0 -0.0447838 0.00608867 1.47753e-05 -0.000511524 0.000108054 -8.6928e-05 -0.0447838 0.00608867 1.47753e-05 404.315 404.315 1000.96 
107 1 1 0.138284 0.0217116 0.0347986 0 0 0 0.0521759 0.0207775 -0.00112153 0.000128867 -0.000227596 0.000244799 0.0521759 0.0207775 -0.00112153 251.748 251.748 1000.6 
108 1 1 0.147281 0.0352982 0.00997579 0 0 0 -0.0341061 0.0117861 -4.83095e-05 0.000427214 -0.000259817 -7.96266e-05 -0.0341061 0.0117861 -4.83095e-05 392.722 392.722 1000.93 
109 1 1 0.154817 0.0218055 0.0223754 0 0 0 0.0410532 0.00536758 0.00264156 -2.46696e-05 0.00031601 -0.000612997 0.0410532 0.00536758 0.00264156 320.451 320.451 1000.76 
110 1 1 0.174083 0.0231726 0.00997591 0 0 0 -0.0583919 0.00731319 0.000145928 5.12479e-05 -0.000195393 -3.74484e-05 -0.0583919 0.00731319 0.000145928 400.347 400.347 1000.95 
111 1 1 0.00998412 0.0335989 0.00997342 0 0 0 0.000716621 0.00565252 -0.00106974 0.0011531 -0.000246036 -0.0011847 0.000716621 0.00565252 -0.00106974 431.979 431.979 1001.03 
112 1 1 0.0233399 0.0219523 0.0426551 0 0 0 -0.00705391 -0.0142419 -0.0160476 -0.000635203 0.00131156 -0.000331701 -0.00705391 -0.0142419 -0.0160476 230.268 230.268 1000.55 
113 1 1 0.0499112 0.0300129 0.0099738 0 0 0 0.0159532 -0.00296844 -0.00048152 -0.000373001 -0.000164958 0.000580561 0.0159532 -0.00296844 -0.00048152 396.458 396.458 1000.94 
114 1 1 0.0675359 0.022465 0.00997542 0 0 0 0.0233533 0.00462475 0.000222937 -0.000576182 -0.000156887 -0.00100411 0.0233533 0.00462475 0.000222937 400.408 400.408 1000.95 
115 1 1 0.063008 0.0212152 0.0363623 0 0 0 0.0170764 -0.000475616 -0.00269586 0.000117046 0.000952632 0.000553878 0.0170764 -0.000475616 -0.00269586 266.517 266.517 1000.63 
116 1 1 0.105994 0.0373603 0.00997453 0 0 0 -0.00595869 0.00730255 6.85791e-05 -0.000486693 0.000333486 9.47421e-05 -0.00595869 0.00730255 6.85791e-05 394.721 394.721 1000.94 
117 1 1 0.130966 0.0232314 0.0216788 0 0 0 0.0207642 0.00643611 0.0103424 0.000610262 -6.18137e-05 0.000397786 0.0207642 0.00643611 0.0103424 333.443 333.443 1000.79 
118 1 1 0.14615 0.0226681 0.0221805 0 0 0 0.024751 -0.0237433 0.00938988 0.000381919 -0.00046133 8.64076e-05 0.024751 -0.0237433 0.00938988 322.654 322.654 1000.77 
119 1 1 0.149531 0.0226313 0.00997618 0 0 0 -0.0318621 0.00116498 8.94954e-05 0.00020325 0.000134951 -9.01629e-05 -0.0318621 0.00116498 8.94954e-05 402.792 402.792 1000.96 
120 1 1 0.167517 0.0223555 0.0370308 0 0 0 0.0301583 0.0158281 0.00935183 -6.55834e-05 -0.000181933 -0.000148324 0.0301583 0.0158281 0.00935183 230.03 230.03 1000.55 
121 1 1 0.00999013 0.0425498 0.00996779 0 0 0 0.00141791 -0.00817674 -0.000389293 -0.00467464 -0.00025958 0.00417116 0.00141791 -0.00817674 -0.000389293 437.961 437.961 1001.04 
122 1 1 0.0226976 0.0349581 0.00997439 0 0 0 0.000971354 -0.0184926 -2.89537e-05 -0.000484216 -0.000267579 -0.000766169 0.000971354 -0.0184926 -2.89537e-05 419.674 419.674 1001 
123 1 1 0.0222359 0.0254017 0.00997469 0 0 0 -0.000572168 0.0154271 -0.00102868 -0.000376299 0.000414736 -0.000762482 -0.000572168 0.0154271 -0.00102868 424.257 424.257 1001.01 
124 1 1 0.0786822 0.0357176 0.00997317 0 0 0 -0.00459775 -0.0138944 -4.627e-05 4.84207e-05 -0.000608837 0.000133493 -0.00459775 -0.0138944 -4.627e-05 393.046 393.046 1000.93 
125 1 1 0.0913818 0.0360812 0.00997382 0 0 0 0.00169703 0.017642 0.000126156 -0.000166502 -8.32839e-06 4.37792e-06 0.00169703 0.017642 0.000126156 393.49 393.49 1000.93 
126 1 1 0.127602 0.0295191 0.00997598 0 0 0 -0.0218357 0.00101477 -4.59282e-06 0.000253329 0.000130924 1.26199e-05 -0.0218357 0.00101477 -4.59282e-06 398.151 398.151 1000.95 
127 1 1 0.166525 0.0409549 0.00997627 0 0 0 -0.0129323 0.00476617 -6.18516e-05 -6.03514e-05 0.000447178 -9.31308e-05 -0.0129323 0.00476617 -6.18516e-05 388.39 388.39 1000.92 
128 1 1 0.145642 0.0423574 0.00997638 0 0 0 -0.00618378 -0.00521574 -7.92545e-05 -9.75738e-05 -0.000325303 -4.44055e-05 -0.00618378 -0.00521574 -7.92545e-05 390.834 390.834 1000.93 
129 1 1 0.137566 0.0230421 0.00997639 0 0 0 -0.0336634 -0.00409786 -5.73639e-05 0.000316939 -1.23697e-06 -8.17754e-05 -0.0336634 -0.00409786 -5.73639e-05 404.539 404.539 1000.96 
130 1 1 0.179487 0.0321569 0.0099762 0 0 0 -0.0375479 0.00197528 -4.91515e-05 0.000221446 -0.000103629 -0.00014726 -0.0375479 0.00197528 -4.91515e-05 392.222 392.222 1000.93 
131 1 1 0.00998741 0.0476334 0.00997047 0 0 0 -0.00034265 0.00253059 0.00105814 -0.00172417 -0.000301509 0.00171745 -0.00034265 0.00253059 0.00105814 441.612 441.612 1001.05 
132 1 1 0.0460197 0.0476235 0.00997451 0 0 0 0.0134535 -0.0146489 -0.000264334 -0.000594238 -0.000361329 -0.000105401 0.0134535 -0.0146489 -0.000264334 397.008 397.008 1000.94 
133 1 1 0.0477586 0.0539176 0.00997357 0 0 0 0.0255611 0.00397403 -4.9309e-05 0.000367153 -0.000195939 0.000133012 0.0255611 0.00397403 -4.9309e-05 395.967 395.967 1000.94 
134 1 1 0.0839061 0.0471496 0.0099745 0 0 0 -0.004535 0.00577519 5.00051e-06 -2.32575e-05 0.000267849 3.83419e-05 -0.004535 0.00577519 5.00051e-06 390.31 390.31 1000.93 
135 1 1 0.128562 0.0499418 0.00997557 0 0 0 -0.0112621 0.000647047 -7.52026e-05 0.00038548 -0.000251474 -9.02644e-05 -0.0112621 0.000647047 -7.52026e-05 388.243 388.243 1000.92 
136 1 1 0.107228 0.0528759 0.0216441 0 0 0 0.050912 0.0108832 -0.00252591 -0.00019032 0.000437127 0.000862768 0.050912 0.0108832 -0.00252591 330.631 330.631 1000.79 
137 1 1 0.135398 0.0444761 0.0224581 0 0 0 0.0115806 0.0225051 0.00467856 0.000557453 0.000324532 -0.000639747 0.0115806 0.0225051 0.00467856 314.161 314.161 1000.75 
138 1 1 0.151245 0.0487232 0.00997624 0 0 0 -0.00500313 0.00189923 -0.000100769 0.000172686 0.000369596 -5.53442e-06 -0.00500313 0.00189923 -0.000100769 390.086 390.086 1000.93 
139 1 1 0.155042 0.0425531 0.00997614 0 0 0 -0.0096615 -0.0123361 -5.80497e-05 -0.000211598 -3.40732e-05 -6.52869e-05 -0.0096615 -0.0123361 -5.80497e-05 390.242 390.242 1000.93 
140 1 1 0.185277 0.0532748 0.0218541 0 0 0 0.0707487 -0.0168638 0.00696086 -5.93977e-05 0.000250925 -0.000238301 0.0707487 -0.0168638 0.00696086 314.189 314.189 1000.75 
141 1 1 0.0099784 0.0569522 0.00997727 0 0 0 -0.00105137 -0.00464299 -0.00101363 0.00692002 -0.00055827 -0.00508889 -0.00105137 -0.00464299 -0.00101363 445.755 445.755 1001.06 
142 1 1 0.0226267 0.0571846 0.00997472 0 0 0 -0.0318211 -0.00287491 -0.000620279 -0.000215759 -0.000191659 -0.000990702 -0.0318211 -0.00287491 -0.000620279 422.628 422.628 1001 
143 1 1 0.0233654 0.0626842 0.00997155 0 0 0 0.00454077 0.0169471 -0.000408567 -0.000746739 0.000489198 0.00202001 0.00454077 0.0169471 -0.000408567 422.803 422.803 1001 
144 1 1 0.087058 0.0704939 0.00997473 0 0 0 5.66215e-05 0.00315485 -0.000302363 -0.000390679 -0.000202411 -8.74183e-05 5.66215e-05 0.00315485 -0.000302363 401.253 401.253 1000.95 
145 1 1 0.100558 0.0659533 0.00997462 0 0 0 0.0175818 -0.00217777 -4.25506e-05 0.000106624 -0.000156406 -7.58263e-05 0.0175818 -0.00217777 -4.25506e-05 394.072 394.072 1000.94 
146 1 1 0.129759 0.0704496 0.00997516 0 0 0 -0.0178845 -0.0162185 -0.000100106 0.000165522 -0.000441071 -2.85745e-05 -0.0178845 -0.0162185 -0.000100106 397.651 397.651 1000.94 
147 1 1 0.15813 0.0593638 0.00997633 0 0 0 -0.0434763 0.0113173 -8.48402e-05 -0.00020839 2.9201e-05 -8.23873e-05 -0.0434763 0.0113173 -8.48402e-05 387.964 387.964 1000.92 
148 1 1 0.146418 0.0530684 0.00997618 0 0 0 -0.0179195 -0.00645844 -0.000112593 0.000282275 -5.59122e-05 1.09962e-05 -0.0179195 -0.00645844 -0.000112593 389.839 389.839 1000.93 
149 1 1 0.137093 0.0777946 0.00997598 0 0 0 -0.0356155 0.0194105 -0.000232246 2.13997e-05 2.64527e-06 -8.24306e-05 -0.0356155 0.0194105 -0.000232246 402.917 402.917 1000.96 
150 1 1 0.184078 0.068443 0.00997655 0 0 0 -0.0432271 0.00392509 -6.38325e-05 -0.000148437 0.000235249 -0.000105192 -0.0432271 0.00392509 -6.38325e-05 393.955 393.955 1000.94 
151 1 1 0.00998721 0.0657344 0.00996916 0 0 0 0.00202221 0.00490845 -0.00327298 -0.00232741 -0.00024603 0.00281716 0.00202221 0.00490845 -0.00327298 447.254 447.254 1001.06 
152 1 1 0.0223413 0.0743858 0.0311712 0 0 0 0.0147502 -0.00984625 0.0197955 0.000751838 -0.000162815 -5.90005e-05 0.0147502 -0.00984625 0.0197955 323 323 1000.77 
153 1 1 0.0524734 0.0773001 0.00997367 0 0 0 -0.025764 0.00344646 0.00119403 -0.000223932 0.00105254 0.000135798 -0.025764 0.00344646 0.00119403 403.412 403.412 1000.96 
154 1 1 0.0611886 0.0791009 0.00997342 0 0 0 -0.0181459 0.00263352 0.00166392 0.000147139 -0.00117564 0.000444199 -0.0181459 0.00263352 0.00166392 403.147 403.147 1000.96 
155 1 1 0.0558798 0.0766504 0.0291572 0 0 0 0.0244214 -0.00754683 0.00488862 4.07962e-05 8.19619e-05 -0.000418393 0.0244214 -0.00754683 0.00488862 317.189 317.189 1000.75 
156 1 1 0.114113 0.0637597 0.0099751 0 0 0 -0.0151929 0.00757274 -5.44297e-05 0.000203448 -0.000163541 -2.03113e-05 -0.0151929 0.00757274 -5.44297e-05 395.335 395.335 1000.94 
157 1 1 0.133782 0.0772154 0.0233297 0 0 0 0.0169694 0.00717852 -0.00149814 0.000314016 0.000239415 -0.000426185 0.0169694 0.00717852 -0.00149814 321.525 321.525 1000.76 
158 1 1 0.153058 0.0773453 0.0225435 0 0 0 0.0225643 -0.00409338 0.0112894 0.00028555 0.000273198 -0.000479241 0.0225643 -0.00409338 0.0112894 318.803 318.803 1000.76 
159 1 1 0.149219 0.0786169 0.00997601 0 0 0 -0.0308877 0.00506336 -0.000158408 0.000349835 -0.000921549 0.000207965 -0.0308877 0.00506336 -0.000158408 403.513 403.513 1000.96 
160 1 1 0.167262 0.0790163 0.0420592 0 0 0 0.0542383 0.00968162 0.00212358 0.000138621 -8.70364e-05 0.000179707 0.0542383 0.00968162 0.00212358 200.148 200.148 1000.48 
161 1 1 0.00999103 0.0779621 0.0205252 0 0 0 -0.004927 0.00600275 -0.00900259 -0.00541635 -0.000484288 0.000607058 -0.004927 0.00600275 -0.00900259 438.885 438.885 1001.04 
162 1 1 0.00998869 0.0769009 0.00996502 0 0 0 -0.0107031 -0.0074569 0.00795656 -0.0047044 -0.000425983 0.00627616 -0.0107031 -0.0074569 0.00795656 455.217 455.217 1001.08 
163 1 1 0.0229027 0.0693244 0.00997008 0 0 0 0.0276556 0.00365075 0.000554626 -0.000314933 -0.00102168 0.00340068 0.0276556 0.00365075 0.000554626 424.438 424.438 1001.01 
164 1 1 0.0833714 0.0598867 0.0406861 0 0 0 0.00441647 -0.0143502 -0.000271462 0.000259587 0.000572473 0.000936259 0.00441647 -0.0143502 -0.000271462 237.517 237.517 1000.56 
165 1 1 0.121082 0.0652875 0.0445376 0 0 0 0.0287721 -0.0263736 -0.0104297 -0.00029228 0.000485718 -0.000313841 0.0287721 -0.0263736 -0.0104297 199.988 199.988 1000.48 
166 1 1 0.130699 0.0778544 0.0099758 0 0 0 -0.0351795 -0.00522537 -0.00017593 0.000284241 -0.00040012 -0.000347692 -0.0351795 -0.00522537 -0.00017593 401.625 401.625 1000.95 
167 1 1 0.134607 0.0765094 0.0339115 0 0 0 0.0470818 0.00575107 -0.00486995 0.000996856 -0.000164186 -0.000137135 0.0470818 0.00575107 -0.00486995 257.876 257.876 1000.61 
168 1 1 0.14855 0.0607145 0.00997628 0 0 0 -0.0423037 -0.0037004 -8.60435e-05 2.597e-05 0.000152804 -8.25167e-05 -0.0423037 -0.0037004 -8.60435e-05 390.33 390.33 1000.93 
169 1 1 0.160037 0.077882 0.0220926 0 0 0 0.0301804 0.0151163 -0.0048133 0.000501899 2.06143e-05 3.9121e-05 0.0301804 0.0151163 -0.0048133 318.712 318.712 1000.76 
170 1 1 0.176515 0.0773308 0.00997681 0 0 0 -0.0205139 0.0154937 0.000221861 0.000907868 0.000240768 -0.000128309 -0.0205139 0.0154937 0.000221861 400.302 400.302 1000.95 
171 1 1 0.00997731 0.0900146 0.00997949 0 0 0 -0.00581365 -0.00329628 0.000745608 0.00784096 0.00122639 -0.00737395 -0.00581365 -0.00329628 0.000745608 471.024 471.024 1001.12 