ITEM: TIMESTEP
8000
ITEM: NUMBER OF ATOMS
2655
ITEM: BOX BOUNDS ff ff ff
0 0.5
0 0.1
0 0.5
ITEM: ATOMS id type type x y z ix iy iz vx vy vz fx fy fz vx vy vz p p rho 
1 1 1 0.0099631 0.00994616 0.00998599 0 0 0 -0.00913288 -0.0108983 0.0228821 0.00220769 0.00973366 -0.0382195 -0.00913288 -0.0108983 0.0228821 3223.44 3223.44 1007.5 
2 1 1 0.0210237 0.00994627 0.00992139 0 0 0 0.0555207 -0.0111271 0.0256266 0.0631928 0.0176079 -0.00333479 0.0555207 -0.0111271 0.0256266 2006.15 2006.15 1004.71 
3 1 1 0.0301321 0.00996371 0.00993513 0 0 0 0.00807004 -0.00839945 -0.0167364 0.0166734 0.00223004 -0.0121818 0.00807004 -0.00839945 -0.0167364 1569.32 1569.32 1003.7 
4 1 1 0.0410804 0.00996362 0.00993735 0 0 0 0.0343161 0.00308347 -0.00805292 0.00678374 0.0074395 -0.00715632 0.0343161 0.00308347 -0.00805292 1397.36 1397.36 1003.29 
5 1 1 0.0513239 0.00996739 0.00993848 0 0 0 0.056645 0.00702869 0.00282248 0.00176239 0.00442647 -0.00594197 0.056645 0.00702869 0.00282248 1387.94 1387.94 1003.27 
6 1 1 0.0615494 0.00996863 0.00993824 0 0 0 0.0488645 0.00763811 0.00944603 -0.000577894 0.00416276 -0.00386833 0.0488645 0.00763811 0.00944603 1320.22 1320.22 1003.11 
7 1 1 0.072193 0.00996282 0.00993582 0 0 0 0.124971 -0.00456792 0.0178285 0.00199784 0.00918244 -0.000932729 0.124971 -0.00456792 0.0178285 1457.15 1457.15 1003.43 
8 1 1 0.0822869 0.00997048 0.00993742 0 0 0 0.0519078 -0.000123284 0.011473 0.00308553 0.00100718 0.00271627 0.0519078 -0.000123284 0.011473 1344.95 1344.95 1003.17 
9 1 1 0.0922401 0.0099641 0.00994747 0 0 0 0.13533 -0.00394259 0.0249518 0.0119481 0.0062903 9.30971e-06 0.13533 -0.00394259 0.0249518 1221.54 1221.54 1002.88 
10 1 1 0.103913 0.0099678 0.00994558 0 0 0 0.112124 -0.0035227 0.00309155 -0.00220875 0.00549393 -0.00268347 0.112124 -0.0035227 0.00309155 1248.46 1248.46 1002.95 
11 1 1 0.00996022 0.0206526 0.009908 0 0 0 -0.00913969 0.0386707 0.0244497 0.00688387 0.0632874 0.00409258 -0.00913969 0.0386707 0.0244497 2156.21 2156.21 1005.06 
12 1 1 0.0218786 0.0215451 0.00992041 0 0 0 0.0423007 0.0282335 0.0263029 0.0273037 0.0247464 0.0118104 0.0423007 0.0282335 0.0263029 1214.32 1214.32 1002.87 
13 1 1 0.0309168 0.021025 0.0099429 0 0 0 0.0513926 0.0316687 -0.00938526 0.00936779 0.00903693 -0.0112134 0.0513926 0.0316687 -0.00938526 1122.62 1122.62 1002.65 
14 1 1 0.0415554 0.0213549 0.00993942 0 0 0 0.0459826 0.0285062 -0.00153322 0.00414545 0.00307423 -0.00355169 0.0459826 0.0285062 -0.00153322 1002.57 1002.57 1002.37 
15 1 1 0.0516204 0.0213552 0.00994251 0 0 0 0.0713416 0.0326633 0.00532028 0.00274433 0.00237008 -0.00484086 0.0713416 0.0326633 0.00532028 1038.42 1038.42 1002.45 
16 1 1 0.0617842 0.0213216 0.00994299 0 0 0 0.0447011 0.0346553 0.0101753 -0.00115255 0.00425495 -0.00335574 0.0447011 0.0346553 0.0101753 923.633 923.633 1002.18 
17 1 1 0.0721108 0.0213695 0.00993933 0 0 0 0.10883 0.0339357 0.0145474 -0.000145749 0.00250044 -0.00117358 0.10883 0.0339357 0.0145474 1072.1 1072.1 1002.53 
18 1 1 0.0824838 0.0212467 0.0099392 0 0 0 0.0431733 0.0164445 0.00850669 -0.001564 0.00229728 0.000899366 0.0431733 0.0164445 0.00850669 992.585 992.585 1002.35 
19 1 1 0.0925506 0.0211453 0.00993028 0 0 0 0.116239 0.0283775 0.0239358 0.00752819 -0.00170952 0.00986501 0.116239 0.0283775 0.0239358 929.05 929.05 1002.2 
20 1 1 0.103451 0.0214094 0.00994432 0 0 0 0.0904719 0.0132519 0.00173368 -0.000768168 -0.000339635 -0.00309787 0.0904719 0.0132519 0.00173368 958.654 958.654 1002.27 
21 1 1 0.00996877 0.0294726 0.00993595 0 0 0 -0.0143805 -0.0177887 0.00401724 9.01216e-05 0.0187388 -0.0190723 -0.0143805 -0.0177887 0.00401724 1731.53 1731.53 1004.07 
22 1 1 0.0214006 0.0301722 0.00994818 0 0 0 0.0485571 0.0231743 0.0129405 0.011043 0.00821425 -0.0153787 0.0485571 0.0231743 0.0129405 1135.44 1135.44 1002.68 
23 1 1 0.0309989 0.0302169 0.00993126 0 0 0 0.0542893 0.0202467 -0.00497063 0.00521415 0.00252459 -0.00252593 0.0542893 0.0202467 -0.00497063 1117.91 1117.91 1002.64 
24 1 1 0.0413502 0.0300033 0.00993136 0 0 0 0.0396647 0.0151588 0.00438087 0.00353914 0.00145689 0.000892218 0.0396647 0.0151588 0.00438087 1004.29 1004.29 1002.37 
25 1 1 0.0515593 0.0301072 0.0099355 0 0 0 0.0731883 0.0198717 0.00773019 0.00339107 0.00162595 -0.0017296 0.0731883 0.0198717 0.00773019 1026.58 1026.58 1002.43 
26 1 1 0.0616649 0.0300418 0.00993769 0 0 0 0.0398648 0.0199134 0.00847418 -0.000134917 0.00263483 -0.000699606 0.0398648 0.0199134 0.00847418 888.125 888.125 1002.1 
27 1 1 0.0720783 0.0300187 0.00993462 0 0 0 0.112041 0.0128922 0.00775421 -0.00045554 0.00254852 0.000271883 0.112041 0.0128922 0.00775421 1021.23 1021.23 1002.41 
28 1 1 0.0822397 0.0300579 0.00993281 0 0 0 0.0303855 0.0166024 0.00237279 -0.00103036 0.00327702 0.00409819 0.0303855 0.0166024 0.00237279 956.862 956.862 1002.26 
29 1 1 0.0919777 0.0296901 0.00993525 0 0 0 0.11441 0.000234898 0.000777777 0.00685884 0.00323756 0.00152525 0.11441 0.000234898 0.000777777 830.548 830.548 1001.97 
30 1 1 0.10336 0.0302763 0.00993736 0 0 0 0.0888848 0.0105724 -0.00170091 -0.000390743 0.00271022 0.00138309 0.0888848 0.0105724 -0.00170091 911.568 911.568 1002.16 
31 1 1 0.00996683 0.0401342 0.00994554 0 0 0 -0.0083195 0.0011486 0.00470954 0.00621064 0.0082179 -0.0234656 -0.0083195 0.0011486 0.00470954 1547.74 1547.74 1003.64 
32 1 1 0.0217152 0.0404125 0.00994843 0 0 0 0.0425041 0.00934015 0.0142937 0.00311511 0.00499855 -0.0139161 0.0425041 0.00934015 0.0142937 1062.81 1062.81 1002.51 
33 1 1 0.0307382 0.0402649 0.00992915 0 0 0 0.0449275 0.00474272 0.00217473 0.00320206 0.00314588 -1.52941e-05 0.0449275 0.00474272 0.00217473 1084.42 1084.42 1002.56 
34 1 1 0.0415042 0.0404094 0.00993026 0 0 0 0.0452734 0.010726 0.00881922 0.00241301 0.00176588 0.00122678 0.0452734 0.010726 0.00881922 981.118 981.118 1002.32 
35 1 1 0.0515035 0.0403273 0.00993374 0 0 0 0.0702855 0.0113792 0.00904888 0.00333914 0.00128082 -0.00143307 0.0702855 0.0113792 0.00904888 1010.53 1010.53 1002.39 
36 1 1 0.0616359 0.0403992 0.00993651 0 0 0 0.040761 0.0118265 0.00882988 0.000416058 0.00102069 -0.000728326 0.040761 0.0118265 0.00882988 869.299 869.299 1002.06 
37 1 1 0.072079 0.0402838 0.00993463 0 0 0 0.102729 0.0124321 0.00707342 -0.000617237 0.0017434 -0.000811597 0.102729 0.0124321 0.00707342 990.355 990.355 1002.34 
38 1 1 0.082216 0.0403999 0.0099326 0 0 0 0.0367515 0.00911859 0.00378827 -0.000760463 0.00131111 0.00344075 0.0367515 0.00911859 0.00378827 938.109 938.109 1002.22 
39 1 1 0.0921128 0.0402162 0.00993355 0 0 0 0.100448 0.00570948 0.00384633 0.00588548 0.000816428 0.00254586 0.100448 0.00570948 0.00384633 821.218 821.218 1001.94 
40 1 1 0.103252 0.040348 0.00993712 0 0 0 0.0863838 0.00971781 0.0007989 -0.000839051 0.00080745 0.000898843 0.0863838 0.00971781 0.0007989 904.19 904.19 1002.14 
41 1 1 0.00996615 0.05 0.00994817 0 0 0 -0.0059817 1.2005e-14 0.00595676 0.0074524 -7.95544e-15 -0.0228948 -0.0059817 1.2005e-14 0.00595676 1434.15 1434.15 1003.38 
42 1 1 0.0216314 0.05 0.00995311 0 0 0 0.0432452 4.93465e-15 0.0139037 0.0025592 -8.68348e-15 -0.0156225 0.0432452 4.93465e-15 0.0139037 989.364 989.364 1002.34 
43 1 1 0.030891 0.05 0.00993144 0 0 0 0.0545557 7.46839e-15 0.00463963 0.00311508 -1.82104e-15 0.000204267 0.0545557 7.46839e-15 0.00463963 1025.64 1025.64 1002.42 
44 1 1 0.0413873 0.05 0.00993198 0 0 0 0.0410405 -5.11172e-15 0.00964601 0.00174832 -4.92878e-16 0.0013121 0.0410405 -5.11172e-15 0.00964601 942.1 942.1 1002.23 
45 1 1 0.051531 0.05 0.00993536 0 0 0 0.073617 -1.76555e-15 0.00916572 0.0033765 2.48066e-16 -0.00118443 0.073617 -1.76555e-15 0.00916572 972.593 972.593 1002.3 
46 1 1 0.0616621 0.05 0.009938 0 0 0 0.0390928 1.16798e-14 0.00906982 9.70448e-05 3.58166e-15 -0.000870515 0.0390928 1.16798e-14 0.00906982 841.651 841.651 1001.99 
47 1 1 0.0719578 0.05 0.0099368 0 0 0 0.100017 4.50226e-15 0.00730255 -0.000336459 2.32529e-15 -0.00150924 0.100017 4.50226e-15 0.00730255 958.047 958.047 1002.27 
48 1 1 0.0822807 0.05 0.00993521 0 0 0 0.0314037 2.23174e-14 0.00439099 -0.00146828 -9.60533e-16 0.00245249 0.0314037 2.23174e-14 0.00439099 897.99 897.99 1002.12 
49 1 1 0.0920075 0.05 0.00993576 0 0 0 0.103167 -2.27709e-14 0.00462519 0.00587536 -1.40475e-15 0.00151449 0.103167 -2.27709e-14 0.00462519 792.676 792.676 1001.88 
50 1 1 0.103295 0.05 0.00993878 0 0 0 0.0877965 8.3277e-15 0.00123206 -0.00104483 6.31716e-15 0.000362385 0.0877965 8.3277e-15 0.00123206 890.83 890.83 1002.11 
51 1 1 0.00996683 0.0598658 0.00994554 0 0 0 -0.0083195 -0.0011486 0.00470954 0.00621064 -0.0082179 -0.0234656 -0.0083195 -0.0011486 0.00470954 1547.74 1547.74 1003.64 
52 1 1 0.0217152 0.0595875 0.00994843 0 0 0 0.0425041 -0.00934015 0.0142937 0.00311511 -0.00499855 -0.0139161 0.0425041 -0.00934015 0.0142937 1062.81 1062.81 1002.51 
53 1 1 0.0307382 0.0597351 0.00992915 0 0 0 0.0449275 -0.00474272 0.00217473 0.00320206 -0.00314588 -1.52941e-05 0.0449275 -0.00474272 0.00217473 1084.42 1084.42 1002.56 
54 1 1 0.0415042 0.0595906 0.00993026 0 0 0 0.0452734 -0.010726 0.00881922 0.00241301 -0.00176588 0.00122678 0.0452734 -0.010726 0.00881922 981.118 981.118 1002.32 
55 1 1 0.0515035 0.0596727 0.00993374 0 0 0 0.0702855 -0.0113792 0.00904888 0.00333914 -0.00128082 -0.00143307 0.0702855 -0.0113792 0.00904888 1010.53 1010.53 1002.39 
56 1 1 0.0616359 0.0596008 0.00993651 0 0 0 0.040761 -0.0118265 0.00882988 0.000416058 -0.00102069 -0.000728326 0.040761 -0.0118265 0.00882988 869.299 869.299 1002.06 
57 1 1 0.072079 0.0597162 0.00993463 0 0 0 0.102729 -0.0124321 0.00707342 -0.000617237 -0.0017434 -0.000811597 0.102729 -0.0124321 0.00707342 990.355 990.355 1002.34 
58 1 1 0.082216 0.0596001 0.0099326 0 0 0 0.0367515 -0.00911859 0.00378827 -0.000760463 -0.00131111 0.00344075 0.0367515 -0.00911859 0.00378827 938.109 938.109 1002.22 
59 1 1 0.0921128 0.0597838 0.00993355 0 0 0 0.100448 -0.00570948 0.00384633 0.00588548 -0.000816428 0.00254586 0.100448 -0.00570948 0.00384633 821.218 821.218 1001.94 
60 1 1 0.103252 0.059652 0.00993712 0 0 0 0.0863838 -0.00971781 0.0007989 -0.000839051 -0.00080745 0.000898843 0.0863838 -0.00971781 0.0007989 904.19 904.19 1002.14 
61 1 1 0.00996877 0.0705274 0.00993595 0 0 0 -0.0143805 0.0177887 0.00401724 9.01216e-05 -0.0187388 -0.0190723 -0.0143805 0.0177887 0.00401724 1731.53 1731.53 1004.07 
62 1 1 0.0214006 0.0698278 0.00994818 0 0 0 0.0485571 -0.0231743 0.0129405 0.011043 -0.00821425 -0.0153787 0.0485571 -0.0231743 0.0129405 1135.44 1135.44 1002.68 
63 1 1 0.0309989 0.0697831 0.00993126 0 0 0 0.0542893 -0.0202467 -0.00497063 0.00521415 -0.00252459 -0.00252593 0.0542893 -0.0202467 -0.00497063 1117.91 1117.91 1002.64 
64 1 1 0.0413502 0.0699967 0.00993136 0 0 0 0.0396647 -0.0151588 0.00438087 0.00353914 -0.00145689 0.000892218 0.0396647 -0.0151588 0.00438087 1004.29 1004.29 1002.37 
65 1 1 0.0515593 0.0698928 0.0099355 0 0 0 0.0731883 -0.0198717 0.00773019 0.00339107 -0.00162595 -0.0017296 0.0731883 -0.0198717 0.00773019 1026.58 1026.58 1002.43 
66 1 1 0.0616649 0.0699582 0.00993769 0 0 0 0.0398648 -0.0199134 0.00847418 -0.000134917 -0.00263483 -0.000699606 0.0398648 -0.0199134 0.00847418 888.125 888.125 1002.1 
67 1 1 0.0720783 0.0699813 0.00993462 0 0 0 0.112041 -0.0128922 0.00775421 -0.00045554 -0.00254852 0.000271883 0.112041 -0.0128922 0.00775421 1021.23 1021.23 1002.41 
68 1 1 0.0822397 0.0699421 0.00993281 0 0 0 0.0303855 -0.0166024 0.00237279 -0.00103036 -0.00327702 0.00409819 0.0303855 -0.0166024 0.00237279 956.862 956.862 1002.26 
69 1 1 0.0919777 0.0703099 0.00993525 0 0 0 0.11441 -0.000234898 0.000777777 0.00685884 -0.00323756 0.00152525 0.11441 -0.000234898 0.000777777 830.548 830.548 1001.97 
70 1 1 0.10336 0.0697237 0.00993736 0 0 0 0.0888848 -0.0105724 -0.00170091 -0.000390743 -0.00271022 0.00138309 0.0888848 -0.0105724 -0.00170091 911.568 911.568 1002.16 
71 1 1 0.00996022 0.0793474 0.009908 0 0 0 -0.00913969 -0.0386707 0.0244497 0.00688387 -0.0632874 0.00409258 -0.00913969 -0.0386707 0.0244497 2156.21 2156.21 1005.06 
72 1 1 0.0218786 0.0784549 0.00992041 0 0 0 0.0423007 -0.0282335 0.0263029 0.0273037 -0.0247464 0.0118104 0.0423007 -0.0282335 0.0263029 1214.32 1214.32 1002.87 
73 1 1 0.0309168 0.078975 0.0099429 0 0 0 0.0513926 -0.0316687 -0.00938526 0.00936779 -0.00903693 -0.0112134 0.0513926 -0.0316687 -0.00938526 1122.62 1122.62 1002.65 
74 1 1 0.0415554 0.0786451 0.00993942 0 0 0 0.0459826 -0.0285062 -0.00153322 0.00414545 -0.00307423 -0.00355169 0.0459826 -0.0285062 -0.00153322 1002.57 1002.57 1002.37 
75 1 1 0.0516204 0.0786448 0.00994251 0 0 0 0.0713416 -0.0326633 0.00532028 0.00274433 -0.00237008 -0.00484086 0.0713416 -0.0326633 0.00532028 1038.42 1038.42 1002.45 
76 1 1 0.0617842 0.0786784 0.00994299 0 0 0 0.0447011 -0.0346553 0.0101753 -0.00115255 -0.00425495 -0.00335574 0.0447011 -0.0346553 0.0101753 923.633 923.633 1002.18 
77 1 1 0.0721108 0.0786305 0.00993933 0 0 0 0.10883 -0.0339357 0.0145474 -0.000145749 -0.00250044 -0.00117358 0.10883 -0.0339357 0.0145474 1072.1 1072.1 1002.53 
78 1 1 0.0824838 0.0787533 0.0099392 0 0 0 0.0431733 -0.0164445 0.00850669 -0.001564 -0.00229728 0.000899366 0.0431733 -0.0164445 0.00850669 992.585 992.585 1002.35 
79 1 1 0.0925506 0.0788547 0.00993028 0 0 0 0.116239 -0.0283775 0.0239358 0.00752819 0.00170952 0.00986501 0.116239 -0.0283775 0.0239358 929.05 929.05 1002.2 
80 1 1 0.103451 0.0785906 0.00994432 0 0 0 0.0904719 -0.0132519 0.00173368 -0.000768168 0.000339635 -0.00309787 0.0904719 -0.0132519 0.00173368 958.654 958.654 1002.27 
81 1 1 0.0099631 0.0900538 0.00998599 0 0 0 -0.00913288 0.0108983 0.0228821 0.00220769 -0.00973366 -0.0382195 -0.00913288 0.0108983 0.0228821 3223.44 3223.44 1007.5 
82 1 1 0.0210237 0.0900537 0.00992139 0 0 0 0.0555207 0.0111271 0.0256266 0.0631928 -0.0176079 -0.00333479 0.0555207 0.0111271 0.0256266 2006.15 2006.15 1004.71 
83 1 1 0.0301321 0.0900363 0.00993513 0 0 0 0.00807004 0.00839945 -0.0167364 0.0166734 -0.00223004 -0.0121818 0.00807004 0.00839945 -0.0167364 1569.32 1569.32 1003.7 
84 1 1 0.0410804 0.0900364 0.00993735 0 0 0 0.0343161 -0.00308347 -0.00805292 0.00678374 -0.0074395 -0.00715632 0.0343161 -0.00308347 -0.00805292 1397.36 1397.36 1003.29 
85 1 1 0.0513239 0.0900326 0.00993848 0 0 0 0.056645 -0.00702869 0.00282248 0.00176239 -0.00442647 -0.00594197 0.056645 -0.00702869 0.00282248 1387.94 1387.94 1003.27 
86 1 1 0.0615494 0.0900314 0.00993824 0 0 0 0.0488645 -0.00763811 0.00944603 -0.000577894 -0.00416276 -0.00386833 0.0488645 -0.00763811 0.00944603 1320.22 1320.22 1003.11 
87 1 1 0.072193 0.0900372 0.00993582 0 0 0 0.124971 0.00456792 0.0178285 0.00199784 -0.00918244 -0.000932729 0.124971 0.00456792 0.0178285 1457.15 1457.15 1003.43 
88 1 1 0.0822869 0.0900295 0.00993742 0 0 0 0.0519078 0.000123284 0.011473 0.00308553 -0.00100718 0.00271627 0.0519078 0.000123284 0.011473 1344.95 1344.95 1003.17 
89 1 1 0.0922401 0.0900359 0.00994747 0 0 0 0.13533 0.00394259 0.0249518 0.0119481 -0.0062903 9.30971e-06 0.13533 0.00394259 0.0249518 1221.54 1221.54 1002.88 
90 1 1 0.103913 0.0900322 0.00994558 0 0 0 0.112124 0.0035227 0.00309155 -0.00220875 -0.00549393 -0.00268347 0.112124 0.0035227 0.00309155 1248.46 1248.46 1002.95 
91 1 1 0.0099263 0.00992972 0.0101116 0 0 0 -0.056418 -0.0662092 0.497931 0.0390144 0.0259523 -0.154875 -0.056418 -0.0662092 0.497931 4046.43 4046.43 1009.37 
92 1 1 0.0204004 0.00993388 0.0187811 0 0 0 -0.00117924 -0.0504347 0.0230355 0.0496588 0.00959849 0.0285864 -0.00117924 -0.0504347 0.0230355 1750.84 1750.84 1004.12 
93 1 1 0.0306134 0.00995696 0.0148184 0 0 0 0.0408776 0.000113795 -0.16767 0.0195438 -0.00167727 -0.00567474 0.0408776 0.000113795 -0.16767 1308.02 1308.02 1003.09 
94 1 1 0.0410002 0.00995667 0.0154848 0 0 0 0.0175966 -0.00104098 -0.112754 0.00646378 0.00286015 0.0011408 0.0175966 -0.00104098 -0.112754 1108.99 1108.99 1002.62 
95 1 1 0.0515447 0.00995962 0.015515 0 0 0 0.0657691 0.00405422 -0.0998558 0.00184761 0.0010577 0.00221101 0.0657691 0.00405422 -0.0998558 1114.07 1114.07 1002.63 
96 1 1 0.0619663 0.0099585 0.0155184 0 0 0 0.0661867 0.006453 -0.103366 0.000188628 0.00338589 0.00224178 0.0661867 0.006453 -0.103366 1017.84 1017.84 1002.41 
97 1 1 0.0723282 0.00996039 0.014714 0 0 0 0.12738 -0.0152656 -0.150367 0.0014 0.00170031 -0.00258576 0.12738 -0.0152656 -0.150367 1077.85 1077.85 1002.55 
98 1 1 0.0834342 0.00995357 0.0167809 0 0 0 0.10784 0.00326094 -0.0236399 0.00495884 0.0041415 0.00527447 0.10784 0.00326094 -0.0236399 1052.67 1052.67 1002.49 
99 1 1 0.092845 0.00995333 0.0122702 0 0 0 0.132439 -0.0374844 -0.334121 0.0101532 0.0152684 -0.0210791 0.132439 -0.0374844 -0.334121 341.71 341.71 1000.81 
100 1 1 0.103531 0.00995935 0.0164677 0 0 0 0.0365827 -0.00146972 -0.0721953 -0.0114756 0.00215249 -0.00082431 0.0365827 -0.00146972 -0.0721953 998.512 998.512 1002.36 
101 1 1 0.00994945 0.0198522 0.0191516 0 0 0 -0.0438591 -0.0340535 0.040026 -0.00365398 0.047719 0.0311845 -0.0438591 -0.0340535 0.040026 1967.46 1967.46 1004.62 
102 1 1 0.0222673 0.0218031 0.0222501 0 0 0 0.0661802 0.049446 -0.029912 0.0197518 0.0206802 0.00779258 0.0661802 0.049446 -0.029912 723.532 723.532 1001.71 
103 1 1 0.0314242 0.0208617 0.021496 0 0 0 0.0617378 -0.00192753 0.0396001 0.00595454 0.0051314 0.00397222 0.0617378 -0.00192753 0.0396001 889.433 889.433 1002.1 
104 1 1 0.0417608 0.0211037 0.0214436 0 0 0 0.0527059 0.00284561 0.0204011 0.00574687 0.000897508 0.00174996 0.0527059 0.00284561 0.0204011 748.853 748.853 1001.77 
105 1 1 0.0522662 0.0211453 0.0217046 0 0 0 0.104163 0.00594716 0.0400999 0.00368792 -0.000335711 0.0013815 0.104163 0.00594716 0.0400999 812.369 812.369 1001.92 
106 1 1 0.0627111 0.0210087 0.0214197 0 0 0 0.0890211 0.00132825 0.0235559 -9.33115e-05 0.00182539 0.00149303 0.0890211 0.00132825 0.0235559 666.219 666.219 1001.58 
107 1 1 0.0729366 0.0211607 0.0214148 0 0 0 0.158365 0.014263 0.0520601 0.00280993 0.000229212 0.00307549 0.158365 0.014263 0.0520601 814.376 814.376 1001.93 
108 1 1 0.0843826 0.0210133 0.0217099 0 0 0 0.12501 -0.00859218 -0.000573317 -0.00142605 0.00224793 -0.00330694 0.12501 -0.00859218 -0.000573317 813.874 813.874 1001.93 
109 1 1 0.0943548 0.0206031 0.0205637 0 0 0 0.147672 0.00191891 0.0461513 0.00868526 -0.0031634 0.00311085 0.147672 0.00191891 0.0461513 672.25 672.25 1001.59 
110 1 1 0.104269 0.0211717 0.0215489 0 0 0 0.130541 0.000617545 0.0198843 7.78937e-05 -0.000530732 0.00027991 0.130541 0.000617545 0.0198843 837.708 837.708 1001.98 
111 1 1 0.00993533 0.0297998 0.0151603 0 0 0 -0.021811 0.0047713 -0.145166 0.0237305 0.0221462 0.000537949 -0.021811 0.0047713 -0.145166 1389.81 1389.81 1003.28 
112 1 1 0.0213672 0.0302861 0.0212824 0 0 0 0.024704 0.00824416 0.0326857 0.00619859 0.00598903 0.00914251 0.024704 0.00824416 0.0326857 784.581 784.581 1001.86 
113 1 1 0.0311706 0.0300751 0.0186165 0 0 0 0.0364722 -0.0169497 -0.0296178 0.00131742 -0.000550527 0.00371447 0.0364722 -0.0169497 -0.0296178 982.296 982.296 1002.32 
114 1 1 0.0415034 0.0299314 0.0189158 0 0 0 0.0456399 -0.015161 -0.0199887 0.00477081 -0.000906076 0.00292237 0.0456399 -0.015161 -0.0199887 813.212 813.212 1001.93 
115 1 1 0.052082 0.0300096 0.0190872 0 0 0 0.0967233 -0.0154439 -0.00214184 0.00417706 -0.00150836 0.00329516 0.0967233 -0.0154439 -0.00214184 869.433 869.433 1002.06 
116 1 1 0.0625162 0.0299696 0.018984 0 0 0 0.0766888 -0.0108306 -0.0127039 -0.000274736 -0.0001082 0.00278103 0.0766888 -0.0108306 -0.0127039 703.634 703.634 1001.67 
117 1 1 0.0726941 0.0299831 0.0185468 0 0 0 0.157093 -0.013711 -0.00954878 0.00283229 -0.000177409 0.0042437 0.157093 -0.013711 -0.00954878 861.848 861.848 1002.04 
118 1 1 0.0839692 0.029999 0.0198815 0 0 0 0.100054 -0.00595008 0.0182225 -0.00113819 0.00200994 0.00359324 0.100054 -0.00595008 0.0182225 779.469 779.469 1001.85 
119 1 1 0.0931614 0.0296765 0.0169775 0 0 0 0.149402 -0.0203736 -0.0856063 0.00757988 0.00218522 -0.00215267 0.149402 -0.0203736 -0.0856063 669.123 669.123 1001.59 
120 1 1 0.103868 0.0304008 0.0198674 0 0 0 0.105266 -0.00371757 0.0136313 -0.001373 0.00125871 0.00284214 0.105266 -0.00371757 0.0136313 822.761 822.761 1001.95 
121 1 1 0.00993713 0.0398889 0.0158749 0 0 0 -0.00957826 -0.0203785 -0.0877776 0.0246231 0.00681377 0.00611283 -0.00957826 -0.0203785 -0.0877776 1276.05 1276.05 1003.01 
122 1 1 0.0216316 0.0402201 0.0213606 0 0 0 0.0238796 -0.0020923 0.0165702 -0.000392654 0.00358207 0.00569977 0.0238796 -0.0020923 0.0165702 771.907 771.907 1001.83 
123 1 1 0.0309849 0.0400781 0.0189794 0 0 0 0.0331604 -0.00374387 -0.0193327 0.000275786 0.00309388 0.00350362 0.0331604 -0.00374387 -0.0193327 940.62 940.62 1002.22 
124 1 1 0.0416641 0.040184 0.0192702 0 0 0 0.0501295 -0.00595047 -0.0143667 0.00318642 0.00124329 0.00243661 0.0501295 -0.00595047 -0.0143667 807.592 807.592 1001.91 
125 1 1 0.0520536 0.040087 0.0193903 0 0 0 0.0963423 -0.00257701 0.000595123 0.00411678 0.000693964 0.00239948 0.0963423 -0.00257701 0.000595123 882.291 882.291 1002.09 
126 1 1 0.0624847 0.0401668 0.0192848 0 0 0 0.0798553 -0.00473452 -0.00998602 0.000511573 0.000226071 0.00162659 0.0798553 -0.00473452 -0.00998602 712.18 712.18 1001.69 
127 1 1 0.0728014 0.0400547 0.0188279 0 0 0 0.154191 -0.00167306 -0.00763875 0.0029787 0.00109447 0.00303734 0.154191 -0.00167306 -0.00763875 866.433 866.433 1002.05 
128 1 1 0.0838707 0.0401892 0.020042 0 0 0 0.104056 -0.00566809 0.0130092 -6.78865e-05 0.000384973 0.00216281 0.104056 -0.00566809 0.0130092 782.892 782.892 1001.85 
129 1 1 0.0935191 0.0399797 0.0174114 0 0 0 0.138194 -0.00501796 -0.0690198 0.00693563 0.000779457 -0.00123661 0.138194 -0.00501796 -0.0690198 665.668 665.668 1001.58 
130 1 1 0.103922 0.0401722 0.0199885 0 0 0 0.111331 -0.00438293 0.011221 -0.00157701 0.00103613 0.00179282 0.111331 -0.00438293 0.011221 816.954 816.954 1001.93 
131 1 1 0.00994121 0.05 0.0161224 0 0 0 -0.000162736 -1.10414e-14 -0.0609249 0.021657 -6.50586e-15 0.00760134 -0.000162736 -1.10414e-14 -0.0609249 1209.51 1209.51 1002.86 
132 1 1 0.0215794 0.05 0.0216151 0 0 0 0.0265136 -7.69245e-15 0.0321107 -0.000866665 -2.29813e-15 0.00530627 0.0265136 -7.69245e-15 0.0321107 723.829 723.829 1001.71 
133 1 1 0.0311094 0.05 0.0193166 0 0 0 0.0355722 -1.32132e-14 0.00565445 -0.000162463 -3.322e-15 0.00430374 0.0355722 -1.32132e-14 0.00565445 893.973 893.973 1002.12 
134 1 1 0.0415254 0.05 0.0195599 0 0 0 0.0458005 -4.98605e-15 0.0057056 0.0024645 -1.0031e-16 0.00326657 0.0458005 -4.98605e-15 0.0057056 773.836 773.836 1001.83 
135 1 1 0.0520719 0.05 0.0197241 0 0 0 0.100091 -1.52849e-14 0.0265793 0.00413348 3.19122e-15 0.00360299 0.100091 -1.52849e-14 0.0265793 848.191 848.191 1002.01 
136 1 1 0.0625851 0.05 0.0196215 0 0 0 0.0823408 7.63459e-15 0.0132337 0.000411801 7.42627e-15 0.00257686 0.0823408 7.63459e-15 0.0132337 688.972 688.972 1001.63 
137 1 1 0.0726708 0.05 0.0191527 0 0 0 0.154573 -2.30476e-14 0.0161923 0.00350517 2.40346e-15 0.00420854 0.154573 -2.30476e-14 0.0161923 828.986 828.986 1001.96 
138 1 1 0.0840054 0.05 0.0203754 0 0 0 0.106055 -4.91219e-16 0.0355998 -0.000145604 -5.11251e-16 0.00281129 0.106055 -4.91219e-16 0.0355998 750.701 750.701 1001.78 
139 1 1 0.0933754 0.05 0.0176695 0 0 0 0.14429 -3.42856e-14 -0.047472 0.00746977 -9.88142e-16 0.000881483 0.14429 -3.42856e-14 -0.047472 644.437 644.437 1001.53 
140 1 1 0.103956 0.05 0.0202072 0 0 0 0.110019 1.20225e-14 0.0250256 -0.00168942 2.26858e-15 0.00311756 0.110019 1.20225e-14 0.0250256 781.802 781.802 1001.85 
141 1 1 0.00993713 0.0601111 0.0158749 0 0 0 -0.00957826 0.0203785 -0.0877776 0.0246231 -0.00681377 0.00611283 -0.00957826 0.0203785 -0.0877776 1276.05 1276.05 1003.01 
142 1 1 0.0216316 0.0597799 0.0213606 0 0 0 0.0238796 0.0020923 0.0165702 -0.000392654 -0.00358207 0.00569977 0.0238796 0.0020923 0.0165702 771.907 771.907 1001.83 
143 1 1 0.0309849 0.0599219 0.0189794 0 0 0 0.0331604 0.00374387 -0.0193327 0.000275786 -0.00309388 0.00350362 0.0331604 0.00374387 -0.0193327 940.62 940.62 1002.22 
144 1 1 0.0416641 0.059816 0.0192702 0 0 0 0.0501295 0.00595047 -0.0143667 0.00318642 -0.00124329 0.00243661 0.0501295 0.00595047 -0.0143667 807.592 807.592 1001.91 
145 1 1 0.0520536 0.059913 0.0193903 0 0 0 0.0963423 0.00257701 0.000595123 0.00411678 -0.000693964 0.00239948 0.0963423 0.00257701 0.000595123 882.291 882.291 1002.09 
146 1 1 0.0624847 0.0598332 0.0192848 0 0 0 0.0798553 0.00473452 -0.00998602 0.000511573 -0.000226071 0.00162659 0.0798553 0.00473452 -0.00998602 712.18 712.18 1001.69 
147 1 1 0.0728014 0.0599453 0.0188279 0 0 0 0.154191 0.00167306 -0.00763875 0.0029787 -0.00109447 0.00303734 0.154191 0.00167306 -0.00763875 866.433 866.433 1002.05 
148 1 1 0.0838707 0.0598108 0.020042 0 0 0 0.104056 0.00566809 0.0130092 -6.78865e-05 -0.000384973 0.00216281 0.104056 0.00566809 0.0130092 782.892 782.892 1001.85 
149 1 1 0.0935191 0.0600203 0.0174114 0 0 0 0.138194 0.00501796 -0.0690198 0.00693563 -0.000779457 -0.00123661 0.138194 0.00501796 -0.0690198 665.668 665.668 1001.58 
150 1 1 0.103922 0.0598278 0.0199885 0 0 0 0.111331 0.00438293 0.011221 -0.00157701 -0.00103613 0.00179282 0.111331 0.00438293 0.011221 816.954 816.954 1001.93 
151 1 1 0.00993533 0.0702002 0.0151603 0 0 0 -0.021811 -0.0047713 -0.145166 0.0237305 -0.0221462 0.000537949 -0.021811 -0.0047713 -0.145166 1389.81 1389.81 1003.28 
152 1 1 0.0213672 0.0697139 0.0212824 0 0 0 0.024704 -0.00824416 0.0326857 0.00619859 -0.00598903 0.00914251 0.024704 -0.00824416 0.0326857 784.581 784.581 1001.86 
153 1 1 0.0311706 0.0699249 0.0186165 0 0 0 0.0364722 0.0169497 -0.0296178 0.00131742 0.000550527 0.00371447 0.0364722 0.0169497 -0.0296178 982.296 982.296 1002.32 
154 1 1 0.0415034 0.0700686 0.0189158 0 0 0 0.0456399 0.015161 -0.0199887 0.00477081 0.000906076 0.00292237 0.0456399 0.015161 -0.0199887 813.212 813.212 1001.93 
155 1 1 0.052082 0.0699904 0.0190872 0 0 0 0.0967233 0.0154439 -0.00214184 0.00417706 0.00150836 0.00329516 0.0967233 0.0154439 -0.00214184 869.433 869.433 1002.06 
156 1 1 0.0625162 0.0700304 0.018984 0 0 0 0.0766888 0.0108306 -0.0127039 -0.000274736 0.0001082 0.00278103 0.0766888 0.0108306 -0.0127039 703.634 703.634 1001.67 
157 1 1 0.0726941 0.0700169 0.0185468 0 0 0 0.157093 0.013711 -0.00954878 0.00283229 0.000177409 0.0042437 0.157093 0.013711 -0.00954878 861.848 861.848 1002.04 
158 1 1 0.0839692 0.070001 0.0198815 0 0 0 0.100054 0.00595008 0.0182225 -0.00113819 -0.00200994 0.00359324 0.100054 0.00595008 0.0182225 779.469 779.469 1001.85 
159 1 1 0.0931614 0.0703235 0.0169775 0 0 0 0.149402 0.0203736 -0.0856063 0.00757988 -0.00218522 -0.00215267 0.149402 0.0203736 -0.0856063 669.123 669.123 1001.59 
160 1 1 0.103868 0.0695992 0.0198674 0 0 0 0.105266 0.00371757 0.0136313 -0.001373 -0.00125871 0.00284214 0.105266 0.00371757 0.0136313 822.761 822.761 1001.95 
161 1 1 0.00994945 0.0801478 0.0191516 0 0 0 -0.0438591 0.0340535 0.040026 -0.00365398 -0.047719 0.0311845 -0.0438591 0.0340535 0.040026 1967.46 1967.46 1004.62 
162 1 1 0.0222673 0.0781969 0.0222501 0 0 0 0.0661802 -0.049446 -0.029912 0.0197518 -0.0206802 0.00779258 0.0661802 -0.049446 -0.029912 723.532 723.532 1001.71 
163 1 1 0.0314242 0.0791383 0.021496 0 0 0 0.0617378 0.00192753 0.0396001 0.00595454 -0.0051314 0.00397222 0.0617378 0.00192753 0.0396001 889.433 889.433 1002.1 
164 1 1 0.0417608 0.0788963 0.0214436 0 0 0 0.0527059 -0.00284561 0.0204011 0.00574687 -0.000897508 0.00174996 0.0527059 -0.00284561 0.0204011 748.853 748.853 1001.77 
165 1 1 0.0522662 0.0788547 0.0217046 0 0 0 0.104163 -0.00594716 0.0400999 0.00368792 0.000335711 0.0013815 0.104163 -0.00594716 0.0400999 812.369 812.369 1001.92 
166 1 1 0.0627111 0.0789913 0.0214197 0 0 0 0.0890211 -0.00132825 0.0235559 -9.33115e-05 -0.00182539 0.00149303 0.0890211 -0.00132825 0.0235559 666.219 666.219 1001.58 
167 1 1 0.0729366 0.0788393 0.0214148 0 0 0 0.158365 -0.014263 0.0520601 0.00280993 -0.000229212 0.00307549 0.158365 -0.014263 0.0520601 814.376 814.376 1001.93 
168 1 1 0.0843826 0.0789867 0.0217099 0 0 0 0.12501 0.00859218 -0.000573317 -0.00142605 -0.00224793 -0.00330694 0.12501 0.00859218 -0.000573317 813.874 813.874 1001.93 
169 1 1 0.0943548 0.0793969 0.0205637 0 0 0 0.147672 -0.00191891 0.0461513 0.00868526 0.0031634 0.00311085 0.147672 -0.00191891 0.0461513 672.25 672.25 1001.59 
170 1 1 0.104269 0.0788283 0.0215489 0 0 0 0.130541 -0.000617545 0.0198843 7.78937e-05 0.000530732 0.00027991 0.130541 -0.000617545 0.0198843 837.708 837.708 1001.98 
171 1 1 0.0099263 0.0900703 0.0101116 0 0 0 -0.056418 0.0662092 0.497931 0.0390144 -0.0259523 -0.154875 -0.056418 0.0662092 0.497931 4046.43 4046.43 1009.37 
172 1 1 0.0204004 0.0900661 0.0187811 0 0 0 -0.00117924 0.0504347 0.0230355 0.0496588 -0.00959849 0.0285864 -0.00117924 0.0504347 0.0230355 1750.84 1750.84 1004.12 
173 1 1 0.0306134 0.090043 0.0148184 0 0 0 0.0408776 -0.000113795 -0.16767 0.0195438 0.00167727 -0.00567474 0.0408776 -0.000113795 -0.16767 1308.02 1308.02 1003.09 
174 1 1 0.0410002 0.0900433 0.0154848 0 0 0 0.0175966 0.00104098 -0.112754 0.00646378 -0.00286015 0.0011408 0.0175966 0.00104098 -0.112754 1108.99 1108.99 1002.62 
175 1 1 0.0515447 0.0900404 0.015515 0 0 0 0.0657691 -0.00405422 -0.0998558 0.00184761 -0.0010577 0.00221101 0.0657691 -0.00405422 -0.0998558 1114.07 1114.07 1002.63 
176 1 1 0.0619663 0.0900415 0.0155184 0 0 0 0.0661867 -0.006453 -0.103366 0.000188628 -0.00338589 0.00224178 0.0661867 -0.006453 -0.103366 1017.84 1017.84 1002.41 
177 1 1 0.0723282 0.0900396 0.014714 0 0 0 0.12738 0.0152656 -0.150367 0.0014 -0.00170031 -0.00258576 0.12738 0.0152656 -0.150367 1077.85 1077.85 1002.55 
178 1 1 0.0834342 0.0900464 0.0167809 0 0 0 0.10784 -0.00326094 -0.0236399 0.00495884 -0.0041415 0.00527447 0.10784 -0.00326094 -0.0236399 1052.67 1052.67 1002.49 
179 1 1 0.092845 0.0900467 0.0122702 0 0 0 0.132439 0.0374844 -0.334121 0.0101532 -0.0152684 -0.0210791 0.132439 0.0374844 -0.334121 341.71 341.71 1000.81 
180 1 1 0.103531 0.0900406 0.0164677 0 0 0 0.0365827 0.00146972 -0.0721953 -0.0114756 -0.00215249 -0.00082431 0.0365827 0.00146972 -0.0721953 998.512 998.512 1002.36 