ITEM: TIMESTEP
129000
ITEM: NUMBER OF ATOMS
2655
ITEM: BOX BOUNDS ff ff ff
0 0.5
0 0.1
0 0.5
ITEM: ATOMS id type type x y z ix iy iz vx vy vz fx fy fz vx vy vz p p rho 
1 1 1 0.0099755 0.00996284 0.00998428 0 0 0 0.00708187 -0.000560533 0.0173755 0.00660348 0.0185941 -0.0115498 0.00708187 -0.000560533 0.0173755 541.541 541.541 1001.28 
2 1 1 0.0294271 0.00998689 0.00995813 0 0 0 0.0348515 -0.00648368 0.00968555 0.000973386 -0.0065917 0.0105481 0.0348515 -0.00648368 0.00968555 479.859 479.859 1001.14 
3 1 1 0.0239362 0.00998323 0.00996803 0 0 0 0.0228376 -0.0148692 0.00976365 0.00168075 -0.00318951 -0.00171419 0.0228376 -0.0148692 0.00976365 501.655 501.655 1001.19 
4 1 1 0.062437 0.00999343 0.00995131 0 0 0 0.0722441 0.00231802 0.0037814 0.00309353 -0.0114409 0.0155186 0.0722441 0.00231802 0.0037814 421.44 421.44 1001 
5 1 1 0.0685047 0.00997875 0.00997031 0 0 0 0.0747365 0.000101173 -0.00302033 0.000403533 0.00323896 -0.00359956 0.0747365 0.000101173 -0.00302033 416.728 416.728 1000.99 
6 1 1 0.0879625 0.0099886 0.00996593 0 0 0 0.102691 -0.00771944 0.012963 0.000383343 -0.00580163 0.00388034 0.102691 -0.00771944 0.012963 408.475 408.475 1000.97 
7 1 1 0.102061 0.00997645 0.0099789 0 0 0 0.0883278 -0.0013253 0.000863606 0.000862632 0.00611163 -0.00810577 0.0883278 -0.0013253 0.000863606 406.371 406.371 1000.96 
8 1 1 0.112499 0.00998454 0.00997036 0 0 0 0.0732812 0.00349923 -0.00204014 -0.00101605 -0.000957032 0.00173661 0.0732812 0.00349923 -0.00204014 421.184 421.184 1001 
9 1 1 0.1214 0.00998717 0.00996646 0 0 0 0.0697289 0.00186241 0.00183494 0.000638467 -0.00387157 0.00621355 0.0697289 0.00186241 0.00183494 421.268 421.268 1001 
10 1 1 0.13615 0.0099884 0.00996776 0 0 0 0.049842 -0.00155415 0.00435867 -0.000217526 -0.00461332 0.00448608 0.049842 -0.00155415 0.00435867 429.909 429.909 1001.02 
11 1 1 0.00997428 0.0213379 0.00996844 0 0 0 -0.00657122 0.00652425 0.0183829 0.00490777 -0.000328667 0.00179067 -0.00657122 0.00652425 0.0183829 535.329 535.329 1001.27 
12 1 1 0.0317045 0.0338667 0.00996207 0 0 0 -0.00269052 -0.00559161 0.0017657 0.000847916 0.000361241 0.0016683 -0.00269052 -0.00559161 0.0017657 455.342 455.342 1001.08 
13 1 1 0.0217531 0.0229205 0.0099617 0 0 0 -0.00449385 -0.00242671 -0.00100003 0.00226725 -0.000477604 0.000638865 -0.00449385 -0.00242671 -0.00100003 489.482 489.482 1001.16 
14 1 1 0.0819545 0.0223438 0.00996488 0 0 0 0.0446625 0.00132823 -2.09969e-05 0.00242716 -0.000699037 0.000513472 0.0446625 0.00132823 -2.09969e-05 408.213 408.213 1000.97 
15 1 1 0.0665001 0.0220528 0.00996185 0 0 0 0.0583363 -0.0100659 0.000313219 0.00225373 0.00024788 0.00237207 0.0583363 -0.0100659 0.000313219 415.703 415.703 1000.99 
16 1 1 0.0973019 0.0227664 0.00996665 0 0 0 0.0782872 -0.0317662 0.000169097 -0.000752029 0.000813873 -0.000655012 0.0782872 -0.0317662 0.000169097 406.985 406.985 1000.97 
17 1 1 0.0992887 0.0412439 0.00996564 0 0 0 0.089727 -0.0159911 0.000214254 0.000305482 0.000828045 0.000533869 0.089727 -0.0159911 0.000214254 394.487 394.487 1000.94 
18 1 1 0.127829 0.0319141 0.00996867 0 0 0 0.0855049 -0.0191647 0.000983127 -0.000898839 5.94001e-05 2.94754e-07 0.0855049 -0.0191647 0.000983127 398.847 398.847 1000.95 
19 1 1 0.109793 0.0230985 0.00996761 0 0 0 0.103853 -0.0182777 -0.000469367 0.000292979 -0.000902201 0.000661477 0.103853 -0.0182777 -0.000469367 402.316 402.316 1000.96 
20 1 1 0.147971 0.0219705 0.00997189 0 0 0 0.088002 0.00282568 0.00129337 -0.000651343 0.000786156 -0.000927881 0.088002 0.00282568 0.00129337 420.47 420.47 1001 
21 1 1 0.0099771 0.0284345 0.0099713 0 0 0 0.00704734 -0.00548284 -0.00386777 0.00267371 -0.000117722 -0.00202861 0.00704734 -0.00548284 -0.00386777 532.362 532.362 1001.26 
22 1 1 0.0383329 0.0358086 0.00996227 0 0 0 0.0103094 -0.0115662 0.000111027 0.00030448 5.55885e-05 0.00148588 0.0103094 -0.0115662 0.000111027 441.947 441.947 1001.05 
23 1 1 0.059841 0.0430428 0.00996364 0 0 0 0.0538675 0.0351856 -0.000590354 0.000453868 0.000559323 0.00120578 0.0538675 0.0351856 -0.000590354 413.534 413.534 1000.98 
24 1 1 0.0820664 0.0298017 0.00996529 0 0 0 0.0745162 0.0143754 0.000411942 0.00168007 0.000118887 0.00102217 0.0745162 0.0143754 0.000411942 408.14 408.14 1000.97 
25 1 1 0.104211 0.0378437 0.0099666 0 0 0 0.0688162 0.0187157 0.000539544 0.000647671 0.000581044 0.000516904 0.0688162 0.0187157 0.000539544 397.438 397.438 1000.94 
26 1 1 0.103159 0.0218133 0.00996789 0 0 0 0.0670222 0.0191505 0.000248777 0.00117076 0.000862661 -0.000612569 0.0670222 0.0191505 0.000248777 402.007 402.007 1000.95 
27 1 1 0.126144 0.0453433 0.00996892 0 0 0 0.0953869 0.000201481 0.000757568 0.00060405 -0.000366328 0.000329354 0.0953869 0.000201481 0.000757568 394.394 394.394 1000.94 
28 1 1 0.105781 0.0307534 0.00996743 0 0 0 0.0973562 -0.021641 0.000902061 1.71563e-05 -0.000364183 0.000163104 0.0973562 -0.021641 0.000902061 399.849 399.849 1000.95 
29 1 1 0.135608 0.0224965 0.00996931 0 0 0 0.097394 0.00973229 0.00145626 -0.000661314 -0.000443173 0.000989053 0.097394 0.00973229 0.00145626 411.377 411.377 1000.98 
30 1 1 0.139574 0.0310438 0.00996953 0 0 0 0.0793992 0.0229239 0.000882829 0.000396098 0.000815897 0.000129818 0.0793992 0.0229239 0.000882829 402.899 402.899 1000.96 
31 1 1 0.00998584 0.0383904 0.00996372 0 0 0 0.00263805 0.00440052 -0.00167223 -0.0036306 -0.000586189 0.00533533 0.00263805 0.00440052 -0.00167223 528.584 528.584 1001.25 
32 1 1 0.0229296 0.0424051 0.00995826 0 0 0 -0.0242597 0.00661351 0.00118938 -0.000634235 -0.000545747 0.00253897 -0.0242597 0.00661351 0.00118938 472.606 472.606 1001.12 
33 1 1 0.0488439 0.0422283 0.00996147 0 0 0 0.0251122 0.0118758 -0.000273128 0.00106972 0.000310794 0.00182165 0.0251122 0.0118758 -0.000273128 433.224 433.224 1001.03 
34 1 1 0.0676047 0.0357693 0.009963 0 0 0 0.0808687 0.00130642 -0.000128424 0.000547679 -0.00116892 0.000772975 0.0808687 0.00130642 -0.000128424 405.663 405.663 1000.96 
35 1 1 0.0729904 0.0405695 0.00996408 0 0 0 0.0873961 -0.0107784 -0.000114591 0.000759495 -0.000584817 0.000844329 0.0873961 -0.0107784 -0.000114591 405.545 405.545 1000.96 
36 1 1 0.0945538 0.0309869 0.00996629 0 0 0 0.106579 0.0078509 0.000567663 3.40152e-05 -0.000882571 0.000748481 0.106579 0.0078509 0.000567663 397.967 397.967 1000.94 
37 1 1 0.115625 0.0373614 0.0099684 0 0 0 0.0908252 0.0060374 0.000888425 0.00025606 -0.000110707 0.000194889 0.0908252 0.0060374 0.000888425 396.065 396.065 1000.94 
38 1 1 0.122951 0.0384924 0.00996835 0 0 0 0.0788055 0.010815 0.000895697 4.69461e-05 -0.000303205 -5.13429e-05 0.0788055 0.010815 0.000895697 394.607 394.607 1000.94 
39 1 1 0.144512 0.0376155 0.0099698 0 0 0 0.0948763 0.00157739 0.000964624 -0.00110079 0.000146128 0.000593885 0.0948763 0.00157739 0.000964624 406.31 406.31 1000.96 
40 1 1 0.16306 0.0377297 0.00997124 0 0 0 0.0600517 0.0155413 0.00069447 -0.000467286 0.00045127 0.000416255 0.0600517 0.0155413 0.00069447 409.88 409.88 1000.97 
41 1 1 0.00997574 0.0521768 0.00997273 0 0 0 -0.00238549 0.013648 0.00276635 0.00607451 -0.00013983 -0.00462962 -0.00238549 0.013648 0.00276635 533.969 533.969 1001.27 
42 1 1 0.0341445 0.0545339 0.00995976 0 0 0 0.00879907 0.0152983 4.65783e-05 0.00127887 -0.00187071 0.00265418 0.00879907 0.0152983 4.65783e-05 453.622 453.622 1001.08 
43 1 1 0.0483751 0.0494063 0.00995993 0 0 0 0.0338126 0.000858663 -0.000153706 0.00180165 -0.000588916 0.00194302 0.0338126 0.000858663 -0.000153706 430.353 430.353 1001.02 
44 1 1 0.0695719 0.0478887 0.00996349 0 0 0 0.0678557 0.0145175 -0.000311305 0.00209668 -3.3916e-05 0.00076585 0.0678557 0.0145175 -0.000311305 404.211 404.211 1000.96 
45 1 1 0.0825882 0.0467703 0.00996486 0 0 0 0.0848638 0.00315271 -0.000137788 -0.000611703 0.00071972 0.000870909 0.0848638 0.00315271 -0.000137788 400.208 400.208 1000.95 
46 1 1 0.0883473 0.0519234 0.00996415 0 0 0 0.066779 0.0154132 -0.000207244 0.000902143 0.000848772 0.00119112 0.066779 0.0154132 -0.000207244 401.026 401.026 1000.95 
47 1 1 0.0941175 0.0482008 0.00996481 0 0 0 0.0966834 0.0173123 9.79894e-06 0.00237462 0.000694761 0.000303041 0.0966834 0.0173123 9.79894e-06 397.901 397.901 1000.94 
48 1 1 0.122121 0.0504999 0.00996917 0 0 0 0.067691 0.0160206 0.000732393 -0.00080688 0.00106904 0.000327938 0.067691 0.0160206 0.000732393 391.13 391.13 1000.93 
49 1 1 0.107939 0.0502413 0.00996682 0 0 0 0.0722063 -0.0276779 0.000434259 0.000314028 -0.00120973 0.000112209 0.0722063 -0.0276779 0.000434259 391.524 391.524 1000.93 
50 1 1 0.15146 0.0498356 0.00997066 0 0 0 0.0228506 -0.00481975 0.000815736 -0.00148177 0.0002282 0.000308713 0.0228506 -0.00481975 0.000815736 400.034 400.034 1000.95 
51 1 1 0.00998137 0.0620231 0.00996351 0 0 0 0.00128754 0.000996906 -0.000628621 -0.000941237 -0.00133496 0.00496246 0.00128754 0.000996906 -0.000628621 545.805 545.805 1001.29 
52 1 1 0.0231037 0.0575513 0.00995952 0 0 0 -0.0208831 -0.0229014 0.000219929 -0.000112869 -0.00184253 0.0016106 -0.0208831 -0.0229014 0.000219929 481.702 481.702 1001.14 
53 1 1 0.0555294 0.0599731 0.00996081 0 0 0 0.0637345 0.0141768 -0.0010789 0.000813052 -0.000583858 0.00151261 0.0637345 0.0141768 -0.0010789 421.743 421.743 1001 
54 1 1 0.0704342 0.0634829 0.00996234 0 0 0 0.0845463 0.0196831 -0.000694608 0.000859148 6.08166e-05 0.00135762 0.0845463 0.0196831 -0.000694608 413.401 413.401 1000.98 
55 1 1 0.0771605 0.0591205 0.00996332 0 0 0 0.0660836 0.00876178 -0.000474382 -9.76946e-05 -0.000430694 0.00086845 0.0660836 0.00876178 -0.000474382 403.939 403.939 1000.96 
56 1 1 0.0947267 0.0713978 0.00996726 0 0 0 0.088699 0.00940373 0.000157362 -3.89453e-05 -0.000802577 0.000862797 0.088699 0.00940373 0.000157362 403.853 403.853 1000.96 
57 1 1 0.120344 0.0632821 0.00996853 0 0 0 0.0803383 -0.0103372 0.000653924 -0.000664309 8.61732e-06 0.00028257 0.0803383 -0.0103372 0.000653924 393.105 393.105 1000.93 
58 1 1 0.126367 0.0613994 0.00996941 0 0 0 0.0948628 0.0239696 0.000688931 -7.60867e-05 0.000861228 5.76943e-05 0.0948628 0.0239696 0.000688931 392.903 392.903 1000.93 
59 1 1 0.144269 0.0610398 0.00997021 0 0 0 0.0983515 -0.00572028 0.000754413 0.000209839 0.000488976 0.000115029 0.0983515 -0.00572028 0.000754413 399.193 399.193 1000.95 
60 1 1 0.156745 0.0633859 0.00997215 0 0 0 0.0677677 -0.0120833 0.000829929 -0.000865274 -0.000482199 -0.00013167 0.0677677 -0.0120833 0.000829929 404.161 404.161 1000.96 
61 1 1 0.00997633 0.0716872 0.00997042 0 0 0 -0.0031026 -0.00283358 0.000710458 0.00449152 -0.000894163 -0.00253178 -0.0031026 -0.00283358 0.000710458 550.436 550.436 1001.31 
62 1 1 0.0369487 0.0649774 0.00995808 0 0 0 0.0284034 0.0022001 -0.00127247 0.00261053 0.000427528 0.00238743 0.0284034 0.0022001 -0.00127247 461.153 461.153 1001.09 
63 1 1 0.0654947 0.0589979 0.00996209 0 0 0 0.0847864 -0.0123919 -0.000808017 0.00085217 0.000229153 0.00125116 0.0847864 -0.0123919 -0.000808017 413.984 413.984 1000.98 
64 1 1 0.0832339 0.0694892 0.0099664 0 0 0 0.0854887 0.000726923 -0.000464017 0.00166104 0.00112219 0.000815633 0.0854887 0.000726923 -0.000464017 404.258 404.258 1000.96 
65 1 1 0.108047 0.0631674 0.00996816 0 0 0 0.0801867 0.00683321 0.000317087 0.000562764 0.000727599 0.000352328 0.0801867 0.00683321 0.000317087 391.986 391.986 1000.93 
66 1 1 0.103763 0.0775288 0.00996825 0 0 0 0.104372 0.0119101 -0.00058073 0.000439596 -7.80174e-05 3.76454e-05 0.104372 0.0119101 -0.00058073 399.84 399.84 1000.95 
67 1 1 0.128756 0.0553305 0.00997005 0 0 0 0.0594692 -0.0122828 0.000677696 0.000557761 -0.000535324 7.73089e-06 0.0594692 -0.0122828 0.000677696 390.026 390.026 1000.93 
68 1 1 0.106907 0.069749 0.0099688 0 0 0 0.0762979 0.0230347 0.000199582 0.000948159 0.000354007 0.000245554 0.0762979 0.0230347 0.000199582 396.185 396.185 1000.94 
69 1 1 0.135945 0.0779717 0.00997115 0 0 0 0.0777779 -0.00238621 0.000930916 -0.000938792 7.40591e-05 -0.000216204 0.0777779 -0.00238621 0.000930916 407.978 407.978 1000.97 
70 1 1 0.144916 0.0700505 0.00997115 0 0 0 0.0984944 -0.00465677 0.000596851 -3.82681e-05 -0.000335254 0.00018273 0.0984944 -0.00465677 0.000596851 401.835 401.835 1000.95 
71 1 1 0.00998453 0.0788654 0.00996901 0 0 0 -0.0135418 0.0183643 -0.000164388 -0.00411219 0.000564023 -0.00205227 -0.0135418 0.0183643 -0.000164388 554.37 554.37 1001.31 
72 1 1 0.0314469 0.0628235 0.00995958 0 0 0 0.0128438 -0.0157126 -0.000613018 0.000936365 -0.000121927 0.00245992 0.0128438 -0.0157126 -0.000613018 469.943 469.943 1001.12 
73 1 1 0.0223505 0.0784212 0.00995443 0 0 0 -0.00199923 0.00860858 -0.000649831 0.000500137 -0.000804844 0.00384408 -0.00199923 0.00860858 -0.000649831 517.769 517.769 1001.23 
74 1 1 0.0822081 0.0777399 0.00996483 0 0 0 0.0736197 0.0138348 -0.00203497 0.00140918 0.000691465 0.000941205 0.0736197 0.0138348 -0.00203497 407.483 407.483 1000.97 
75 1 1 0.0672253 0.0773199 0.00996198 0 0 0 0.0679272 -0.0045018 -0.00163753 0.00108607 0.000169154 0.00171621 0.0679272 -0.0045018 -0.00163753 419.287 419.287 1001 
76 1 1 0.0963419 0.0781419 0.00996734 0 0 0 0.0712653 0.0121819 -0.000404847 0.000832077 0.000237035 0.000268757 0.0712653 0.0121819 -0.000404847 405.793 405.793 1000.96 
77 1 1 0.100192 0.0595898 0.00996704 0 0 0 0.0977934 0.0102284 -7.20573e-05 -0.000104186 0.000198248 -0.000177791 0.0977934 0.0102284 -7.20573e-05 394.701 394.701 1000.94 
78 1 1 0.131458 0.0693507 0.00997012 0 0 0 0.0945894 -0.0089828 0.000616008 0.000139439 -0.000498684 4.50172e-05 0.0945894 -0.0089828 0.000616008 400.979 400.979 1000.95 
79 1 1 0.110126 0.0782341 0.00996839 0 0 0 0.115925 -0.0164616 0.00030213 -8.58595e-05 -0.000684627 0.00110407 0.115925 -0.0164616 0.00030213 399.234 399.234 1000.95 
80 1 1 0.148899 0.0788271 0.00997369 0 0 0 0.0829662 -0.000694607 -0.000369652 -0.000581461 -0.00067559 -0.00182756 0.0829662 -0.000694607 -0.000369652 409.478 409.478 1000.97 
81 1 1 0.0099714 0.0900242 0.0099915 0 0 0 -0.010248 -0.0139348 -0.00232328 0.0114219 -0.0038845 -0.0215409 -0.010248 -0.0139348 -0.00232328 555.469 555.469 1001.32 
82 1 1 0.0296313 0.0900181 0.00995601 0 0 0 0.0274505 -0.00675663 -0.00969066 0.000973769 0.00262057 0.0102285 0.0274505 -0.00675663 -0.00969066 465.363 465.363 1001.1 
83 1 1 0.024129 0.0900264 0.00996707 0 0 0 0.0192371 0.0100316 0.00986481 0.000840477 -0.00512219 -0.00245836 0.0192371 0.0100316 0.00986481 480.949 480.949 1001.14 
84 1 1 0.0644377 0.0900214 0.0099657 0 0 0 0.0805759 -0.0101733 -0.0163156 0.00117927 -0.00303769 0.00238975 0.0805759 -0.0101733 -0.0163156 421.338 421.338 1001 
85 1 1 0.0695129 0.090011 0.00996395 0 0 0 0.0566238 0.00626713 0.00692716 0.000170613 0.00670729 0.00496173 0.0566238 0.00626713 0.00692716 415.793 415.793 1000.99 
86 1 1 0.0887068 0.0900248 0.00997639 0 0 0 0.0870038 -0.00187904 -0.0057255 0.000831415 -0.00715029 -0.00718659 0.0870038 -0.00187904 -0.0057255 402.735 402.735 1000.96 
87 1 1 0.103451 0.0900166 0.00997297 0 0 0 0.0812223 0.00966956 0.0122613 0.0012019 0.000878356 -0.00229074 0.0812223 0.00966956 0.0122613 394.937 394.937 1000.94 
88 1 1 0.114168 0.0900181 0.00997562 0 0 0 0.0763598 0.00965008 0.00919479 -0.00117268 -0.00014369 -0.0036358 0.0763598 0.00965008 0.00919479 392.344 392.344 1000.93 
89 1 1 0.123392 0.0900178 0.00997163 0 0 0 0.0831828 -0.00702906 -0.00692731 0.000588945 -0.00146276 0.000766587 0.0831828 -0.00702906 -0.00692731 397.339 397.339 1000.94 
90 1 1 0.137991 0.0900105 0.00996772 0 0 0 0.0538268 0.00325299 0.00744779 8.12688e-05 0.00639192 0.00614245 0.0538268 0.00325299 0.00744779 404.543 404.543 1000.96 
91 1 1 0.00998384 0.00999214 0.00998205 0 0 0 0.00364111 -0.0140916 -0.013367 -0.00175742 -0.0107476 -0.00935186 0.00364111 -0.0140916 -0.013367 541.518 541.518 1001.28 
92 1 1 0.0216234 0.00997717 0.00997109 0 0 0 0.00631757 0.00307149 -0.0171133 0.00120639 0.00304867 -0.00540446 0.00631757 0.00307149 -0.0171133 511.234 511.234 1001.21 
93 1 1 0.0346978 0.00996929 0.00997994 0 0 0 0.0209771 0.00350312 -0.0133363 0.00117937 0.0115598 -0.010752 0.0209771 0.00350312 -0.0133363 465.002 465.002 1001.1 
94 1 1 0.0433974 0.00999063 0.00995337 0 0 0 0.0398868 0.00618754 -0.00297241 0.00181041 -0.00987352 0.0154631 0.0398868 0.00618754 -0.00297241 458.263 458.263 1001.09 
95 1 1 0.0734541 0.00999284 0.00995457 0 0 0 0.036377 -0.00045104 0.00746469 -0.00105485 -0.0108294 0.0146329 0.036377 -0.00045104 0.00746469 411.054 411.054 1000.98 
96 1 1 0.0974128 0.00997532 0.00998215 0 0 0 0.0553078 -0.00760262 0.00689905 0.000204942 0.00706745 -0.0118705 0.0553078 -0.00760262 0.00689905 406.404 406.404 1000.96 
97 1 1 0.107713 0.00999294 0.00996018 0 0 0 0.0974551 0.00500963 -0.000171864 -0.000916394 -0.00950489 0.0111176 0.0974551 0.00500963 -0.000171864 414.292 414.292 1000.98 
98 1 1 0.116947 0.0099746 0.00998152 0 0 0 0.0534755 0.000585171 -0.00125835 -0.000751516 0.00879369 -0.00875201 0.0534755 0.000585171 -0.00125835 422.601 422.601 1001 
99 1 1 0.126698 0.00998351 0.00997339 0 0 0 0.0813655 -0.00453022 0.00702439 -0.000145055 0.000209779 -0.00129089 0.0813655 -0.00453022 0.00702439 422.323 422.323 1001 
100 1 1 0.131466 0.00997931 0.00997551 0 0 0 0.0779551 0.00429158 -0.00495696 -0.00105994 0.00440314 -0.00304248 0.0779551 0.00429158 -0.00495696 426.423 426.423 1001.01 
101 1 1 0.00996923 0.0215963 0.0227836 0 0 0 0.00254542 -0.0117117 -0.00492423 0.00264368 -0.000933892 0.00172484 0.00254542 -0.0117117 -0.00492423 547.457 547.457 1001.3 
102 1 1 0.00997983 0.0228152 0.00996036 0 0 0 0.00757953 0.0219423 -0.00117858 -0.000663335 0.000507889 0.00979279 0.00757953 0.0219423 -0.00117858 534.585 534.585 1001.27 
103 1 1 0.0187001 0.0230632 0.0210175 0 0 0 0.0165459 0.0261682 -0.0105054 0.00252758 -0.000144216 0.00240848 0.0165459 0.0261682 -0.0105054 546.711 546.711 1001.3 
104 1 1 0.0613688 0.0236922 0.0347317 0 0 0 -0.103001 -0.0317081 -0.00245803 0.00104825 -0.00139067 0.00136188 -0.103001 -0.0317081 -0.00245803 394.927 394.927 1000.94 
105 1 1 0.0858522 0.0329607 0.059169 0 0 0 -0.0656231 0.0623463 -0.020902 0.00145509 5.75482e-05 -0.000821592 -0.0656231 0.0623463 -0.020902 162.583 162.583 1000.39 
106 1 1 0.123255 0.0225061 0.00996997 0 0 0 0.100767 0.0195429 -0.000598656 0.000712142 0.000226192 -0.000478183 0.100767 0.0195429 -0.000598656 407.191 407.191 1000.97 
107 1 1 0.111364 0.0227349 0.0314712 0 0 0 -0.0983555 -0.0124277 -0.0173552 0.000947149 -0.000343956 -0.000189344 -0.0983555 -0.0124277 -0.0173552 360.264 360.264 1000.86 
108 1 1 0.134511 0.0363978 0.00996837 0 0 0 0.0868888 0.00942786 0.0010116 0.000177754 0.000264583 0.000228127 0.0868888 0.00942786 0.0010116 397.768 397.768 1000.94 
109 1 1 0.137222 0.0220387 0.0228371 0 0 0 -0.0709099 -0.0185438 0.00144543 0.000588264 -0.000317328 0.000430337 -0.0709099 -0.0185438 0.00144543 404.59 404.59 1000.96 
110 1 1 0.167844 0.0226016 0.00997134 0 0 0 0.0691583 0.0211965 0.000555188 0.000314007 0.000521417 0.000678396 0.0691583 0.0211965 0.000555188 433.472 433.472 1001.03 
111 1 1 0.0099824 0.0338882 0.00996792 0 0 0 0.00188215 -0.0073169 -0.000305913 -0.000908747 0.000775821 0.00122267 0.00188215 -0.0073169 -0.000305913 529.954 529.954 1001.26 
112 1 1 0.0206758 0.0223994 0.0449733 0 0 0 -0.00696153 0.0242816 0.102112 7.50241e-05 7.36065e-05 0.000886582 -0.00696153 0.0242816 0.102112 318.176 318.176 1000.76 
113 1 1 0.0436482 0.031809 0.00996274 0 0 0 0.045236 0.0168614 -0.000409815 0.00129368 -0.00100412 0.00189296 0.045236 0.0168614 -0.000409815 439.751 439.751 1001.04 
114 1 1 0.046566 0.0226812 0.00996162 0 0 0 0.0431497 0.0110767 -0.000755474 0.00113046 5.65313e-05 0.00227029 0.0431497 0.0110767 -0.000755474 445.789 445.789 1001.06 
115 1 1 0.0507689 0.0219321 0.0334017 0 0 0 -0.0257817 -0.039122 0.0430825 0.000503409 0.000164645 0.000250052 -0.0257817 -0.039122 0.0430825 429.539 429.539 1001.02 
116 1 1 0.0916671 0.0361263 0.00996648 0 0 0 0.110806 -0.0325605 0.000155544 0.00122347 -0.000425018 0.000310366 0.110806 -0.0325605 0.000155544 392.852 392.852 1000.93 
117 1 1 0.116896 0.025574 0.0212251 0 0 0 -0.0683777 -0.00788293 0.0172494 6.8422e-05 0.00088561 0.000916601 -0.0683777 -0.00788293 0.0172494 415.53 415.53 1000.99 
118 1 1 0.130744 0.0221183 0.0206111 0 0 0 -0.0544755 0.0165679 -0.012872 -0.000528043 0.000714968 0.0010561 -0.0544755 0.0165679 -0.012872 414.195 414.195 1000.98 
119 1 1 0.142065 0.0229579 0.00997069 0 0 0 0.0978569 0.00666283 0.000736552 -0.000361448 -0.000187909 0.000511747 0.0978569 0.00666283 0.000736552 411.899 411.899 1000.98 
120 1 1 0.135302 0.0218718 0.0365481 0 0 0 -0.0793569 -0.0115669 0.00435291 0.00104952 -0.000485559 0.000596666 -0.0793569 -0.0115669 0.00435291 295.892 295.892 1000.7 
121 1 1 0.00998682 0.0429153 0.00996149 0 0 0 0.00181972 -0.00180052 -0.000123595 -0.00460793 -0.000811842 0.00749148 0.00181972 -0.00180052 -0.000123595 528.536 528.536 1001.25 
122 1 1 0.0238726 0.0358763 0.00995858 0 0 0 0.0313347 -0.00389048 0.000516843 -7.70483e-05 0.000391506 0.00407527 0.0313347 -0.00389048 0.000516843 471.841 471.841 1001.12 
123 1 1 0.0222421 0.0301998 0.0099622 0 0 0 0.00504386 -0.00342993 -0.00458621 0.00131581 0.000773275 0.00203003 0.00504386 -0.00342993 -0.00458621 480.499 480.499 1001.14 
124 1 1 0.0714407 0.0280081 0.00996349 0 0 0 0.0725707 0.0107461 -0.000581891 -0.000366569 -0.000119405 0.00171347 0.0725707 0.0107461 -0.000581891 407.335 407.335 1000.97 
125 1 1 0.078913 0.0360333 0.00996543 0 0 0 0.0717851 0.00654615 -6.38469e-05 0.000708404 0.000609775 0.00105972 0.0717851 0.00654615 -6.38469e-05 408.612 408.612 1000.97 
126 1 1 0.116249 0.0301735 0.00996772 0 0 0 0.0732489 -0.00430009 0.000898228 0.000150539 0.000504865 0.00131798 0.0732489 -0.00430009 0.000898228 400.804 400.804 1000.95 
127 1 1 0.151357 0.0355742 0.00997094 0 0 0 0.0850062 -0.0217701 0.000964633 -0.000456692 0.000248066 0.000341575 0.0850062 -0.0217701 0.000964633 412.302 412.302 1000.98 
128 1 1 0.13416 0.0440925 0.00996888 0 0 0 0.0615783 -0.00880017 0.000739779 -0.000763114 -0.000139987 0.000493891 0.0615783 -0.00880017 0.000739779 394.698 394.698 1000.94 
129 1 1 0.129504 0.0234167 0.00996781 0 0 0 0.0943523 -0.0170335 0.00252011 -0.000558392 0.000177688 0.00173662 0.0943523 -0.0170335 0.00252011 409.486 409.486 1000.97 
130 1 1 0.172939 0.0340729 0.00997106 0 0 0 0.0737996 0.0116119 0.000803465 -0.000276689 -8.81916e-05 0.000835658 0.0737996 0.0116119 0.000803465 425.257 425.257 1001.01 
131 1 1 0.00997789 0.047953 0.00997132 0 0 0 -4.13098e-05 0.00409824 0.000637268 0.004215 -0.000833173 -0.00265153 -4.13098e-05 0.00409824 0.000637268 530.277 530.277 1001.26 
132 1 1 0.0283424 0.0472767 0.00995716 0 0 0 0.0381377 -0.0263105 3.81424e-05 0.00129684 -0.000327374 0.00259994 0.0381377 -0.0263105 3.81424e-05 462.233 462.233 1001.1 
133 1 1 0.0405197 0.0503439 0.0099594 0 0 0 0.055432 -0.00312494 -0.000287907 -0.000123642 -0.00135866 0.00253388 0.055432 -0.00312494 -0.000287907 440.949 440.949 1001.05 
134 1 1 0.0774563 0.0518179 0.00996376 0 0 0 0.0800421 -0.0233539 -0.000400884 -3.16856e-05 -0.000852851 0.000327535 0.0800421 -0.0233539 -0.000400884 399.663 399.663 1000.95 
135 1 1 0.115456 0.0505064 0.00996877 0 0 0 0.0876431 -0.00653495 0.000527867 0.000540195 0.000399433 6.61276e-05 0.0876431 -0.00653495 0.000527867 389.109 389.109 1000.92 
136 1 1 0.0841479 0.0488026 0.0220064 0 0 0 -0.063914 0.0152614 -0.0328853 0.00169918 0.000319723 0.000928138 -0.063914 0.0152614 -0.0328853 448.844 448.844 1001.07 
137 1 1 0.116417 0.0521442 0.0217305 0 0 0 -0.073511 0.0175049 -0.00601313 0.000996338 0.000235372 2.38834e-05 -0.073511 0.0175049 -0.00601313 398.01 398.01 1000.94 
138 1 1 0.138634 0.0491854 0.00996863 0 0 0 0.0762942 -0.00141092 0.00109899 -0.000340164 0.000329986 -0.000144923 0.0762942 -0.00141092 0.00109899 390.376 390.376 1000.93 
139 1 1 0.145164 0.0455429 0.00996902 0 0 0 0.0847654 -0.0179747 0.000971347 -0.000939337 0.000215743 0.00022934 0.0847654 -0.0179747 0.000971347 398.507 398.507 1000.95 
140 1 1 0.15968 0.0506587 0.0202465 0 0 0 -0.0488773 0.00450459 0.00261109 -0.000839743 7.92252e-05 0.0019307 -0.0488773 0.00450459 0.00261109 395.921 395.921 1000.94 
141 1 1 0.0099822 0.0572575 0.00996331 0 0 0 4.23596e-05 0.005407 0.00103271 -0.00132507 -0.000707098 0.0049266 4.23596e-05 0.005407 0.00103271 540.633 540.633 1001.28 
142 1 1 0.0234198 0.0636121 0.00995596 0 0 0 0.00743032 0.0179602 -1.9151e-05 0.00094288 0.000628774 0.00406601 0.00743032 0.0179602 -1.9151e-05 495.465 495.465 1001.18 
143 1 1 0.0229078 0.071051 0.00995367 0 0 0 0.0141728 -0.0179757 -0.00200316 8.15866e-05 -0.000906081 0.00424722 0.0141728 -0.0179757 -0.00200316 515.282 515.282 1001.22 
144 1 1 0.0723051 0.0711612 0.00996438 0 0 0 0.05542 -0.0182078 -0.000698409 -0.000185117 -0.000545329 0.000752667 0.05542 -0.0182078 -0.000698409 413.619 413.619 1000.98 
145 1 1 0.0830005 0.064044 0.0099653 0 0 0 0.0794517 -0.00200686 -0.000537499 0.00167666 -0.000244512 0.000655446 0.0794517 -0.00200686 -0.000537499 402.906 402.906 1000.96 
146 1 1 0.118371 0.0702392 0.0099699 0 0 0 0.0906483 -0.00764956 2.8794e-05 -0.00033857 -3.53588e-05 -1.59308e-05 0.0906483 -0.00764956 2.8794e-05 395.745 395.745 1000.94 
147 1 1 0.148765 0.0571548 0.00996994 0 0 0 0.0612061 -0.0223272 0.000761348 0.000148718 0.000369171 0.00024005 0.0612061 -0.0223272 0.000761348 401.727 401.727 1000.95 
148 1 1 0.13673 0.0570778 0.00996938 0 0 0 0.0978464 0.0110792 0.000673649 -0.00118232 -0.000247259 7.36641e-05 0.0978464 0.0110792 0.000673649 389.997 389.997 1000.93 
149 1 1 0.129346 0.0769411 0.00996923 0 0 0 0.12207 0.00245947 0.00163053 -0.000343253 0.000503053 0.00142269 0.12207 0.00245947 0.00163053 402.686 402.686 1000.96 
150 1 1 0.173347 0.0684588 0.00997129 0 0 0 0.0629902 -0.00237408 0.000952712 -0.000457193 0.000129238 0.000389224 0.0629902 -0.00237408 0.000952712 419.658 419.658 1001 
151 1 1 0.00997899 0.0661986 0.0099666 0 0 0 -0.00107632 0.00500003 0.00203432 0.00148083 -0.000639291 0.00165563 -0.00107632 0.00500003 0.00203432 548.315 548.315 1001.3 
152 1 1 0.0226668 0.0792077 0.0396596 0 0 0 -0.0054952 -0.00537234 0.0063465 0.000985914 -0.00337165 0.000379263 -0.0054952 -0.00537234 0.0063465 431.134 431.134 1001.02 
153 1 1 0.0465896 0.0681131 0.00996017 0 0 0 0.0496881 0.0224473 -0.00102664 0.000799929 0.000342405 0.00233876 0.0496881 0.0224473 -0.00102664 443.149 443.149 1001.05 
154 1 1 0.0460118 0.0780153 0.00996143 0 0 0 0.0728634 -0.00934177 -0.00144151 0.00244601 -0.000963893 0.000939769 0.0728634 -0.00934177 -0.00144151 452.637 452.637 1001.07 
155 1 1 0.0486652 0.0782722 0.0383698 0 0 0 -0.0788691 -0.0203178 0.041148 0.00183046 -0.000668575 0.00103749 -0.0788691 -0.0203178 0.041148 412.702 412.702 1000.98 
156 1 1 0.0962013 0.0651928 0.00996672 0 0 0 0.0723546 0.0150687 -5.82589e-05 -0.000156709 -0.000280572 0.000203559 0.0723546 0.0150687 -5.82589e-05 399.324 399.324 1000.95 
157 1 1 0.114525 0.0788121 0.0217756 0 0 0 -0.079681 -0.0136427 -0.0145034 0.000622727 -0.00201219 0.0011205 -0.079681 -0.0136427 -0.0145034 421.751 421.751 1001 
158 1 1 0.130514 0.0795102 0.0226353 0 0 0 -0.0590388 0.0175716 0.0126398 0.000802531 -0.000595609 -0.000209952 -0.0590388 0.0175716 0.0126398 403.404 403.404 1000.96 
159 1 1 0.141913 0.077004 0.00997166 0 0 0 0.101992 0.0147986 0.000327169 0.000320106 0.000225523 -0.000433974 0.101992 0.0147986 0.000327169 406.352 406.352 1000.96 
160 1 1 0.135076 0.0776952 0.0367068 0 0 0 -0.107134 0.0164441 0.0116414 0.000615339 0.000681153 0.000263653 -0.107134 0.0164441 0.0116414 288.021 288.021 1000.68 
161 1 1 0.00997077 0.0791303 0.0225188 0 0 0 -0.00321296 -0.00660273 -0.0202746 0.00265689 -0.000448238 0.00226898 -0.00321296 -0.00660273 -0.0202746 601.729 601.729 1001.43 
162 1 1 0.00998728 0.0767536 0.00995816 0 0 0 0.00667688 0.00794472 -0.019153 -0.00671294 -0.000132642 0.00901923 0.00667688 0.00794472 -0.019153 553.169 553.169 1001.31 
163 1 1 0.022559 0.0791906 0.0285891 0 0 0 -0.0323887 -0.0253743 -0.0330831 0.00108105 -0.00165608 0.000234764 -0.0323887 -0.0253743 -0.0330831 562.309 562.309 1001.33 
164 1 1 0.0576057 0.0711666 0.0599909 0 0 0 -0.0380982 -0.000303574 0.0178327 0.00193094 -0.000269897 -0.00129311 -0.0380982 -0.000303574 0.0178327 191.314 191.314 1000.45 
165 1 1 0.088919 0.0692284 0.0536035 0 0 0 -0.0447832 -0.0287575 -0.0172754 0.00162747 -4.46496e-05 -0.0001703 -0.0447832 -0.0287575 -0.0172754 204.342 204.342 1000.49 
166 1 1 0.123254 0.0771424 0.00997126 0 0 0 0.106425 -0.00482646 -0.000876814 0.000559278 0.00120335 -0.000992111 0.106425 -0.00482646 -0.000876814 396.094 396.094 1000.94 
167 1 1 0.111514 0.0782214 0.0342254 0 0 0 -0.0829002 -0.0104287 -0.00525132 0.00164119 0.000870263 -0.000386384 -0.0829002 -0.0104287 -0.00525132 337.137 337.137 1000.8 
168 1 1 0.137204 0.0649537 0.00997033 0 0 0 0.0624644 -0.0277821 0.000672973 -0.00124091 0.000418972 0.000173465 0.0624644 -0.0277821 0.000672973 397.599 397.599 1000.94 
169 1 1 0.139281 0.0768487 0.021229 0 0 0 -0.0509839 0.012613 0.00303002 -0.000143011 0.000316247 0.000827089 -0.0509839 0.012613 0.00303002 403.71 403.71 1000.96 
170 1 1 0.167271 0.0776125 0.00997111 0 0 0 0.0763281 0.0159269 -1.88017e-05 -0.000620649 0.000142573 0.000893259 0.0763281 0.0159269 -1.88017e-05 422.63 422.63 1001 
171 1 1 0.00999326 0.0900181 0.00994904 0 0 0 -0.0133211 -0.012172 -0.00627586 -0.0102993 0.00221261 0.0210957 -0.0133211 -0.012172 -0.00627586 555.298 555.298 1001.32 
172 1 1 0.022052 0.0900283 0.00995894 0 0 0 0.0150913 -0.00160216 -0.00415565 0.000153612 -0.00724073 0.0051949 0.0150913 -0.00160216 -0.00415565 490.69 490.69 1001.16 
173 1 1 0.0351054 0.0900274 0.00998064 0 0 0 0.0164351 0.00535515 -0.0047184 0.00138186 -0.00748368 -0.0157083 0.0164351 0.00535515 -0.0047184 456.795 456.795 1001.08 
174 1 1 0.0451429 0.0900205 0.00996054 0 0 0 0.0648272 -0.00489611 -0.0101297 0.00053748 -9.34362e-05 0.00578054 0.0648272 -0.00489611 -0.0101297 443.89 443.89 1001.05 
175 1 1 0.0739169 0.0900213 0.00997228 0 0 0 0.0427567 -0.00439618 -0.00922909 0.000737424 -0.00366359 -0.00278582 0.0427567 -0.00439618 -0.00922909 409.028 409.028 1000.97 