ITEM: TIMESTEP
159000
ITEM: NUMBER OF ATOMS
2655
ITEM: BOX BOUNDS ff ff ff
0 0.5
0 0.1
0 0.5
ITEM: ATOMS id type type x y z ix iy iz vx vy vz fx fy fz vx vy vz p p rho 
1 1 1 0.00997639 0.00998528 0.00999248 0 0 0 -0.00194333 -0.00335995 0.0142778 0.0145954 0.000892697 -0.0143232 -0.00194333 -0.00335995 0.0142778 383.062 383.062 1000.91 
2 1 1 0.0438204 0.0099917 0.00996622 0 0 0 0.0318447 -0.012546 0.00995841 -0.00114584 -0.00458851 0.0129014 0.0318447 -0.012546 0.00995841 328.294 328.294 1000.78 
3 1 1 0.0383251 0.00998955 0.0099765 0 0 0 0.0335723 -0.00273256 0.0107144 0.000137144 -0.00288353 0.00263345 0.0335723 -0.00273256 0.0107144 345.395 345.395 1000.82 
4 1 1 0.0774338 0.00999285 0.00997071 0 0 0 0.00655882 -0.00143791 0.00423671 -0.000953247 -0.00689849 0.00431623 0.00655882 -0.00143791 0.00423671 348.342 348.342 1000.83 
5 1 1 0.0824297 0.00997938 0.00998341 0 0 0 -0.0188245 0.00468019 -0.00267986 -0.00130689 0.00694134 -0.00795916 -0.0188245 0.00468019 -0.00267986 352.991 352.991 1000.84 
6 1 1 0.101545 0.00998318 0.00997663 0 0 0 -0.00828377 -0.0079507 0.0117913 -0.001059 0.000976006 -0.00233572 -0.00828377 -0.0079507 0.0117913 370.073 370.073 1000.88 
7 1 1 0.116261 0.00997815 0.00997855 0 0 0 -0.0127505 0.000623648 0.000896465 -0.000357173 0.00568152 -0.00497545 -0.0127505 0.000623648 0.000896465 379.242 379.242 1000.9 
8 1 1 0.125719 0.00998435 0.00997211 0 0 0 -0.000278525 0.00184949 -0.00101339 -0.000294366 -0.000255806 0.00145421 -0.000278525 0.00184949 -0.00101339 381.898 381.898 1000.91 
9 1 1 0.135635 0.00998576 0.00997038 0 0 0 -0.000383338 0.0033843 -0.0027522 9.24837e-05 -0.00176783 0.00345458 -0.000383338 0.0033843 -0.0027522 381.556 381.556 1000.91 
10 1 1 0.149709 0.00998841 0.00997059 0 0 0 -0.00851381 -0.000120203 -0.000113655 0.000642727 -0.00415294 0.00431977 -0.00851381 -0.000120203 -0.000113655 375.361 375.361 1000.89 
11 1 1 0.0100023 0.0211757 0.00998116 0 0 0 0.0067654 -0.00402936 0.000896362 -0.0213135 -0.00159886 -0.00666038 0.0067654 -0.00402936 0.000896362 384.019 384.019 1000.91 
12 1 1 0.0346761 0.0346504 0.00998642 0 0 0 0.0328374 0.0549653 0.00527947 0.00128247 0.00135691 -0.0102939 0.0328374 0.0549653 0.00527947 305.26 305.26 1000.73 
13 1 1 0.0237903 0.0208964 0.00997675 0 0 0 0.0138169 -0.000973879 0.00254752 -0.00146868 -0.00172744 -0.000778026 0.0138169 -0.000973879 0.00254752 329.554 329.554 1000.78 
14 1 1 0.0918657 0.0222346 0.00997516 0 0 0 -0.0113254 0.018093 0.00198104 -0.000391682 -0.000872251 -0.00311063 -0.0113254 0.018093 0.00198104 357.735 357.735 1000.85 
15 1 1 0.080719 0.0233263 0.00997315 0 0 0 -0.00317766 0.0034499 0.00171359 -0.00108897 -0.00171323 0.000430154 -0.00317766 0.0034499 0.00171359 353.496 353.496 1000.84 
16 1 1 0.114227 0.0213766 0.00997091 0 0 0 -0.0117083 0.00833258 0.00135936 -0.00105139 0.000195023 -0.000137077 -0.0117083 0.00833258 0.00135936 375.619 375.619 1000.89 
17 1 1 0.114034 0.040659 0.00996988 0 0 0 -0.0171327 0.000403606 0.00129872 -0.000599864 9.97184e-05 0.00113834 -0.0171327 0.000403606 0.00129872 369.412 369.412 1000.88 
18 1 1 0.14135 0.0323124 0.00997187 0 0 0 0.0175315 -0.00118286 -0.000349671 0.000190956 -0.000641455 0.00038557 0.0175315 -0.00118286 -0.000349671 373.179 373.179 1000.89 
19 1 1 0.126485 0.021979 0.00997139 0 0 0 -0.00784396 0.0175312 -0.000643808 -0.000336369 -0.000143222 0.00121825 -0.00784396 0.0175312 -0.000643808 380.282 380.282 1000.9 
20 1 1 0.163341 0.0227007 0.00997453 0 0 0 -0.0137778 -0.018089 -0.000903289 0.000582375 -0.00108474 -0.000896065 -0.0137778 -0.018089 -0.000903289 366.934 366.934 1000.87 
21 1 1 0.00999532 0.0281542 0.00997192 0 0 0 -0.000290844 -0.0040828 0.00134595 -0.00619243 -0.00127293 0.00255824 -0.000290844 -0.0040828 0.00134595 388.601 388.601 1000.92 
22 1 1 0.0429664 0.0270585 0.00998415 0 0 0 -0.0660753 -0.0311734 0.00724555 -0.00045132 0.00134673 -0.00916481 -0.0660753 -0.0311734 0.00724555 316.765 316.765 1000.75 
23 1 1 0.0749283 0.0467838 0.00997381 0 0 0 -0.00161943 0.000389723 0.00331036 -0.00108591 -0.000246495 -0.000935852 -0.00161943 0.000389723 0.00331036 337.033 337.033 1000.8 
24 1 1 0.0967778 0.028779 0.00997149 0 0 0 -0.00336435 -0.00357344 0.00115451 -0.00088085 -0.000404773 0.000703704 -0.00336435 -0.00357344 0.00115451 360.697 360.697 1000.86 
25 1 1 0.120804 0.0372504 0.00997013 0 0 0 0.00895695 0.000637939 0.000772305 -0.000584368 -4.9489e-05 0.00132585 0.00895695 0.000637939 0.000772305 373.675 373.675 1000.89 
26 1 1 0.120181 0.0230438 0.00997075 0 0 0 0.00133 -0.0248363 -0.000108504 -0.000137248 -0.000613136 0.000911064 0.00133 -0.0248363 -0.000108504 377.452 377.452 1000.9 
27 1 1 0.143436 0.0440975 0.00997174 0 0 0 -0.000483887 -0.00152683 -0.000330925 0.000197732 -0.000240698 0.000500771 -0.000483887 -0.00152683 -0.000330925 371.545 371.545 1000.88 
28 1 1 0.119488 0.0308833 0.0099704 0 0 0 0.000474888 0.0080616 0.000656615 -7.5534e-05 -1.00148e-05 0.00100322 0.000474888 0.0080616 0.000656615 374.635 374.635 1000.89 
29 1 1 0.150719 0.0225255 0.00997281 0 0 0 0.00789298 -0.00278869 -0.00078844 0.000417496 -0.000518171 0.000102518 0.00789298 -0.00278869 -0.00078844 373.12 373.12 1000.89 
30 1 1 0.154329 0.0301845 0.0099733 0 0 0 0.00362463 0.00963439 -0.000724748 0.000793619 -0.000319027 -1.86431e-05 0.00362463 0.00963439 -0.000724748 369.216 369.216 1000.88 
31 1 1 0.00998439 0.0382997 0.00997412 0 0 0 -0.00477332 0.013825 0.00689752 0.0049808 -0.00165772 -0.00131062 -0.00477332 0.013825 0.00689752 416.325 416.325 1000.99 
32 1 1 0.022781 0.0397307 0.00997803 0 0 0 0.0294002 0.0199196 0.0062945 0.000787378 -0.000371788 -0.00262135 0.0294002 0.0199196 0.0062945 355.503 355.503 1000.84 
33 1 1 0.0598841 0.0264308 0.00997497 0 0 0 0.0083042 -0.0344132 0.00534618 -0.00135929 0.00119108 -8.70534e-05 0.0083042 -0.0344132 0.00534618 336.755 336.755 1000.8 
34 1 1 0.0775702 0.0344068 0.00997205 0 0 0 0.006224 0.0143549 0.00422654 -0.000748419 6.42589e-05 0.000642392 0.006224 0.0143549 0.00422654 352.822 352.822 1000.84 
35 1 1 0.0903788 0.0366966 0.00997071 0 0 0 -0.0343934 -0.017455 0.00294283 -0.00119031 -4.08815e-07 0.00062098 -0.0343934 -0.017455 0.00294283 358.407 358.407 1000.85 
36 1 1 0.108713 0.028028 0.0099711 0 0 0 0.0113092 0.0203859 0.00179856 -5.47537e-05 -0.000230767 0.00101985 0.0113092 0.0203859 0.00179856 371.113 371.113 1000.88 
37 1 1 0.130742 0.0382281 0.00997079 0 0 0 0.0125994 -0.00383511 3.44244e-05 0.000635556 -0.000669793 0.000827016 0.0125994 -0.00383511 3.44244e-05 375.71 375.71 1000.89 
38 1 1 0.137855 0.0380048 0.00997125 0 0 0 0.0164612 0.0170682 -0.000227342 -1.70428e-05 3.38909e-05 0.000553327 0.0164612 0.0170682 -0.000227342 373.268 373.268 1000.89 
39 1 1 0.162184 0.0366649 0.00997303 0 0 0 0.0340939 -0.00312454 -0.000520167 0.000347639 -0.000702003 -0.000105821 0.0340939 -0.00312454 -0.000520167 367.973 367.973 1000.87 
40 1 1 0.174624 0.0361562 0.00997462 0 0 0 0.0130547 0.00712305 -0.000170943 0.000603245 -0.000618333 -0.000409572 0.0130547 0.00712305 -0.000170943 365.608 365.608 1000.87 
41 1 1 0.0100008 0.0523258 0.0099731 0 0 0 -0.00908232 0.00909005 -0.00088073 -0.023686 -0.00240167 -0.00123682 -0.00908232 0.00909005 -0.00088073 423.872 423.872 1001.01 
42 1 1 0.0448053 0.0597566 0.00998453 0 0 0 -0.0132204 0.0322949 0.0132081 -0.00224724 -0.00338028 -0.0104428 -0.0132204 0.0322949 0.0132081 303.913 303.913 1000.72 
43 1 1 0.0609268 0.0481608 0.00997454 0 0 0 -0.000211714 0.0266902 0.004677 -0.00148844 -0.000200977 -0.000904251 -0.000211714 0.0266902 0.004677 328.871 328.871 1000.78 
44 1 1 0.0830298 0.0434877 0.00997167 0 0 0 -0.0270126 -0.0109808 0.00270988 -0.00118223 -0.000509659 0.000539648 -0.0270126 -0.0109808 0.00270988 348.177 348.177 1000.83 
45 1 1 0.0954441 0.0485839 0.00997294 0 0 0 -0.0283888 -0.0232778 0.00169323 -0.00163635 0.000553268 -0.00154894 -0.0283888 -0.0232778 0.00169323 356.302 356.302 1000.85 
46 1 1 0.106239 0.0522847 0.00997304 0 0 0 0.010222 -0.0230817 0.00173754 -0.000488668 -0.00021282 -0.00146334 0.010222 -0.0230817 0.00173754 359.988 359.988 1000.85 
47 1 1 0.112942 0.0472318 0.00997163 0 0 0 -0.00260435 -0.000755353 0.00151823 -0.000627237 -2.48306e-05 -0.000293001 -0.00260435 -0.000755353 0.00151823 367.798 367.798 1000.87 
48 1 1 0.139369 0.0497505 0.00997116 0 0 0 0.00262266 0.00359551 -0.000118642 -0.000439214 -0.00092163 0.000658124 0.00262266 0.00359551 -0.000118642 374.322 374.322 1000.89 
49 1 1 0.124266 0.0497592 0.00997038 0 0 0 -0.00390521 -0.01902 0.000891996 1.83185e-05 0.000258682 0.00111793 -0.00390521 -0.01902 0.000891996 376.165 376.165 1000.89 
50 1 1 0.161263 0.0499538 0.00997216 0 0 0 0.0433905 0.0211746 -0.000487197 0.00077226 -0.000547157 -4.5771e-05 0.0433905 0.0211746 -0.000487197 371.049 371.049 1000.88 
51 1 1 0.00999338 0.0615734 0.00997343 0 0 0 0.00585301 0.00293124 -0.000858113 -0.00608433 -0.00250763 -0.00246431 0.00585301 0.00293124 -0.000858113 451.241 451.241 1001.07 
52 1 1 0.0231194 0.0512073 0.00997474 0 0 0 0.0269361 0.038787 0.00138951 0.00214041 -0.00123426 -6.37337e-05 0.0269361 0.038787 0.00138951 354.079 354.079 1000.84 
53 1 1 0.0692839 0.0587285 0.00997077 0 0 0 -0.00276913 0.0271299 0.000135108 0.000166494 0.000621854 0.00122007 -0.00276913 0.0271299 0.000135108 335.416 335.416 1000.8 
54 1 1 0.0913337 0.0612691 0.00997186 0 0 0 -0.00569514 -0.000767166 -0.000250389 -0.000352108 -0.000201519 -0.000333036 -0.00569514 -0.000767166 -0.000250389 352.397 352.397 1000.84 
55 1 1 0.0963082 0.0576586 0.00997186 0 0 0 0.0268328 -0.0226951 0.000605858 -0.000873333 0.000397093 -5.20632e-05 0.0268328 -0.0226951 0.000605858 352.295 352.295 1000.84 
56 1 1 0.109183 0.0727996 0.00997264 0 0 0 -0.0218669 -0.0107223 0.000810338 -0.000701608 0.000424728 -0.00113135 -0.0218669 -0.0107223 0.000810338 365.632 365.632 1000.87 
57 1 1 0.134197 0.0634944 0.0099712 0 0 0 -0.00632055 0.00943995 0.000834802 -0.000150703 -0.000650383 0.000648471 -0.00632055 0.00943995 0.000834802 381.563 381.563 1000.91 
58 1 1 0.140721 0.0631148 0.00997031 0 0 0 0.0101249 0.000998492 0.000524465 -8.76278e-05 0.000201179 0.000929174 0.0101249 0.000998492 0.000524465 384.674 384.674 1000.91 
59 1 1 0.157907 0.0629408 0.00997197 0 0 0 0.0280437 0.00166368 -0.00017097 0.000620807 -0.000708322 0.000342586 0.0280437 0.00166368 -0.00017097 382.135 382.135 1000.91 
60 1 1 0.169365 0.061436 0.00997352 0 0 0 0.0166122 0.00879685 -0.000165612 0.000221133 -0.000759528 -0.000122271 0.0166122 0.00879685 -0.000165612 379.908 379.908 1000.9 
61 1 1 0.00997477 0.0716979 0.00996714 0 0 0 -0.00599425 -0.00404066 0.00956497 0.0126107 -0.0029227 0.00177776 -0.00599425 -0.00404066 0.00956497 491.806 491.806 1001.17 
62 1 1 0.0520436 0.0626689 0.00997551 0 0 0 0.0182585 -0.0224776 0.00809531 -0.00197571 -0.00189292 -0.00146145 0.0182585 -0.0224776 0.00809531 345.019 345.019 1000.82 
63 1 1 0.082899 0.0628965 0.00997068 0 0 0 0.00231082 0.0143499 -0.00133545 -0.00122472 9.73586e-05 0.0014503 0.00231082 0.0143499 -0.00133545 354.162 354.162 1000.84 
64 1 1 0.09704 0.0703316 0.0099725 0 0 0 -0.00371753 -0.0170841 -0.000213869 -4.8218e-05 -0.000162618 -0.000994405 -0.00371753 -0.0170841 -0.000213869 355.346 355.346 1000.84 
65 1 1 0.123337 0.0623202 0.00997133 0 0 0 0.000783257 -0.0190055 0.00114589 -0.000669033 -0.000354275 0.000260537 0.000783257 -0.0190055 0.00114589 377.707 377.707 1000.9 
66 1 1 0.120036 0.0776309 0.00997268 0 0 0 -0.00311348 -0.00606338 0.00197929 -0.00141845 -0.000368632 -0.00108092 -0.00311348 -0.00606338 0.00197929 377.893 377.893 1000.9 
67 1 1 0.142222 0.0560161 0.00997148 0 0 0 0.0214064 0.00305934 8.76152e-05 0.000491551 -0.000201574 0.000684208 0.0214064 0.00305934 8.76152e-05 378.226 378.226 1000.9 
68 1 1 0.122498 0.0684801 0.00997196 0 0 0 -0.000118911 0.00757786 0.00138325 -0.00133368 0.000482355 -0.000369593 -0.000118911 0.00757786 0.00138325 377.472 377.472 1000.9 
69 1 1 0.150675 0.0773831 0.00997061 0 0 0 -0.00309253 -0.00565822 -0.000135907 0.000397093 -0.000597253 0.000794111 -0.00309253 -0.00565822 -0.000135907 402.36 402.36 1000.96 
70 1 1 0.159825 0.0692983 0.00997208 0 0 0 0.022345 0.0198602 -8.27516e-06 0.000459593 -0.000397174 0.000586855 0.022345 0.0198602 -8.27516e-06 388.022 388.022 1000.92 
71 1 1 0.00998435 0.0779643 0.00997005 0 0 0 -0.00949933 0.00429901 0.00968416 0.000809024 -0.000942533 -0.00186505 -0.00949933 0.00429901 0.00968416 517.665 517.665 1001.23 
72 1 1 0.030702 0.0618802 0.00998481 0 0 0 -0.0172003 0.0683527 0.0128 0.00376198 -0.0043461 -0.0123693 -0.0172003 0.0683527 0.0128 335.513 335.513 1000.8 
73 1 1 0.035485 0.0787916 0.00997012 0 0 0 0.000638322 -0.00098291 0.000778569 0.000511258 -0.0103549 -0.000736423 0.000638322 -0.00098291 0.000778569 441.693 441.693 1001.05 
74 1 1 0.098496 0.078176 0.00997199 0 0 0 0.00924659 -0.00621439 -0.000604932 -0.00075824 -0.00105553 -0.000129081 0.00924659 -0.00621439 -0.000604932 360.855 360.855 1000.86 
75 1 1 0.0844668 0.0771148 0.00997033 0 0 0 -0.0364419 -0.0105174 -0.000287949 -0.00113334 -0.00124689 0.000887687 -0.0364419 -0.0105174 -0.000287949 362.154 362.154 1000.86 
76 1 1 0.113919 0.0783056 0.0099738 0 0 0 0.00520168 0.000744129 0.00139963 -0.00151755 0.000138166 -0.00184827 0.00520168 0.000744129 0.00139963 370.587 370.587 1000.88 
77 1 1 0.114732 0.0593435 0.0099709 0 0 0 0.0235178 -0.0128649 0.00132954 -0.000457761 0.000813991 0.000646981 0.0235178 -0.0128649 0.00132954 372.106 372.106 1000.88 
78 1 1 0.147336 0.0686773 0.00997011 0 0 0 0.0258769 -0.00584155 0.000472483 -0.000483141 -0.00082494 0.000999599 0.0258769 -0.00584155 0.000472483 390.881 390.881 1000.93 
79 1 1 0.125828 0.0772579 0.00997197 0 0 0 -0.00662146 0.00862322 0.00244715 -0.000946543 0.000132426 -0.000134076 -0.00662146 0.00862322 0.00244715 386.133 386.133 1000.92 
80 1 1 0.163009 0.0773414 0.00997102 0 0 0 0.00262562 -0.0173934 -0.00120774 0.000191142 -0.000250316 0.000572795 0.00262562 -0.0173934 -0.00120774 398.157 398.157 1000.95 
81 1 1 0.00998762 0.0900161 0.009959 0 0 0 0.00681726 -0.00849812 -0.0285654 -0.00250102 0.00182483 0.0100035 0.00681726 -0.00849812 -0.0285654 549.329 549.329 1001.3 
82 1 1 0.0356298 0.090028 0.00996427 0 0 0 0.0652987 0.00536698 0.00258197 -0.000158221 -0.00891285 0.00447961 0.0652987 0.00536698 0.00258197 582.862 582.862 1001.38 
83 1 1 0.0333776 0.0900206 0.00995982 0 0 0 -0.00258013 -0.00399549 -0.0097332 -0.00594712 -0.00124291 0.00853299 -0.00258013 -0.00399549 -0.0097332 570.801 570.801 1001.35 
84 1 1 0.0804754 0.0900155 0.00996995 0 0 0 -0.00311609 -0.00666153 -0.00513345 -7.82503e-05 -0.000954596 0.00220394 -0.00311609 -0.00666153 -0.00513345 397.423 397.423 1000.94 
85 1 1 0.0852217 0.0900108 0.00996777 0 0 0 -0.00296332 0.00656044 0.0069586 0.000391723 0.00436431 0.00484259 -0.00296332 0.00656044 0.0069586 391.974 391.974 1000.93 
86 1 1 0.104431 0.0900205 0.00997955 0 0 0 -0.000908342 0.000473665 -0.000655576 0.000632338 -0.00451861 -0.00645333 -0.000908342 0.000473665 -0.000655576 371.473 371.473 1000.88 
87 1 1 0.119539 0.0900108 0.00997136 0 0 0 -0.00120548 0.00526227 0.00989952 -0.0013776 0.00557225 0.00172809 -0.00120548 0.00526227 0.00989952 383.962 383.962 1000.91 
88 1 1 0.129295 0.0900135 0.00997172 0 0 0 0.00740775 0.00573547 0.0106538 -0.00174963 0.00295024 0.00143368 0.00740775 0.00573547 0.0106538 408.827 408.827 1000.97 
89 1 1 0.139014 0.0900221 0.0099765 0 0 0 0.0186098 -0.00622379 -0.00339002 -0.00129456 -0.0060627 -0.00323334 0.0186098 -0.00622379 -0.00339002 427.636 427.636 1001.02 
90 1 1 0.152971 0.0900101 0.00996538 0 0 0 0.0133943 -0.00203105 9.42849e-05 5.84811e-05 0.00618493 0.00889289 0.0133943 -0.00203105 9.42849e-05 429.542 429.542 1001.02 
91 1 1 0.00997918 0.00998275 0.00998596 0 0 0 -0.0153679 -0.000589391 0.00558161 0.0118039 0.00341763 -0.00780776 -0.0153679 -0.000589391 0.00558161 383.062 383.062 1000.91 
92 1 1 0.0341702 0.00999473 0.00997367 0 0 0 0.00820514 0.00595176 -0.00665627 -0.000827726 -0.00764796 0.00535326 0.00820514 0.00595176 -0.00665627 355.211 355.211 1000.84 
93 1 1 0.0485212 0.00999961 0.00997022 0 0 0 0.00977714 -0.00932996 -0.00432453 -0.0012913 -0.0119612 0.00875811 0.00977714 -0.00932996 -0.00432453 330.66 330.66 1000.79 
94 1 1 0.057188 0.00999002 0.00997266 0 0 0 0.00483115 0.00764746 -0.00340989 -0.000210165 -0.00355053 0.00466761 0.00483115 0.00764746 -0.00340989 351.324 351.324 1000.83 
95 1 1 0.086594 0.00999309 0.00996992 0 0 0 -0.0023192 0.000166756 0.0043218 -0.000666814 -0.00713779 0.00523126 -0.0023192 0.000166756 0.0043218 356.269 356.269 1000.85 
96 1 1 0.111168 0.00997848 0.00997905 0 0 0 -0.012263 -0.00482453 0.0074413 -0.000803736 0.00535598 -0.00553146 -0.012263 -0.00482453 0.0074413 377.227 377.227 1000.9 
97 1 1 0.120936 0.0099923 0.00996428 0 0 0 0.00154924 0.00672051 -0.00390432 -0.000271818 -0.00807702 0.00955234 0.00154924 0.00672051 -0.00390432 380.954 380.954 1000.9 
98 1 1 0.130687 0.00997835 0.0099785 0 0 0 -0.0197619 -0.00469388 0.0038864 8.91768e-05 0.00562508 -0.00542574 -0.0197619 -0.00469388 0.0038864 381.898 381.898 1000.91 
99 1 1 0.140442 0.00998662 0.00997231 0 0 0 0.0132955 -0.00329936 0.00342094 5.81106e-05 -0.00234994 0.00245115 0.0132955 -0.00329936 0.00342094 380.747 380.747 1000.9 
100 1 1 0.144911 0.00997901 0.00997961 0 0 0 -0.013987 -0.000470446 -0.00145181 0.000455855 0.00530527 -0.00474157 -0.013987 -0.000470446 -0.00145181 378.738 378.738 1000.9 
101 1 1 0.00999036 0.0203704 0.0219897 0 0 0 0.00173918 0.0107757 0.00158468 -0.000271586 -0.0028169 0.00121894 0.00173918 0.0107757 0.00158468 332.082 332.082 1000.79 
102 1 1 0.00999282 0.0234363 0.00997099 0 0 0 -0.00967215 -0.0219229 0.00751228 -0.00328724 -0.00138266 0.00350639 -0.00967215 -0.0219229 0.00751228 384.021 384.021 1000.91 
103 1 1 0.0227969 0.0249828 0.0210794 0 0 0 0.0657621 0.0253496 0.0494794 -0.000268398 -0.00168729 0.0005183 0.0657621 0.0253496 0.0494794 286.012 286.012 1000.68 
104 1 1 0.0761341 0.0216039 0.036149 0 0 0 0.0339192 -0.00156839 -0.0155118 -0.00265017 -4.48644e-05 -0.001653 0.0339192 -0.00156839 -0.0155118 259.035 259.035 1000.62 
105 1 1 0.113458 0.0373118 0.0573312 0 0 0 0.104767 0.0101767 -0.0416615 -0.000334032 -0.000198316 -0.000633408 0.104767 0.0101767 -0.0416615 147.782 147.782 1000.35 
106 1 1 0.138562 0.0232304 0.00997205 0 0 0 0.0176245 0.00742611 6.59494e-05 0.000663697 -0.000452829 0.000282573 0.0176245 0.00742611 6.59494e-05 379.658 379.658 1000.9 
107 1 1 0.123923 0.0225227 0.0351856 0 0 0 0.0767137 0.0080076 0.0305055 0.000223167 -0.00061155 -0.000573772 0.0767137 0.0080076 0.0305055 281.437 281.437 1000.67 
108 1 1 0.148527 0.0344394 0.00997236 0 0 0 0.0215274 -0.00560607 -0.000607492 0.000825072 -0.000499609 0.00018768 0.0215274 -0.00560607 -0.000607492 369.776 369.776 1000.88 
109 1 1 0.144616 0.0216123 0.0215148 0 0 0 0.0689346 -0.00438723 -0.0111537 -0.000163466 -0.000304569 -0.000525463 0.0689346 -0.00438723 -0.0111537 366.813 366.813 1000.87 
110 1 1 0.181852 0.0231577 0.00997618 0 0 0 0.0124998 0.0150085 -0.000111902 -0.000176707 -0.00120722 -0.000286538 0.0124998 0.0150085 -0.000111902 360.067 360.067 1000.86 
111 1 1 0.00998752 0.0339135 0.00997456 0 0 0 0.000233765 0.0184493 0.00536601 0.00168209 -0.00233752 -0.00101344 0.000233765 0.0184493 0.00536601 404.242 404.242 1000.96 
112 1 1 0.0248538 0.0230914 0.0410107 0 0 0 0.00734915 0.0110368 0.00947984 -0.00195467 -0.00136898 -0.0017819 0.00734915 0.0110368 0.00947984 136.848 136.848 1000.33 
113 1 1 0.0503039 0.0373011 0.00998515 0 0 0 -0.012081 -0.0131017 0.00736172 -0.00169179 0.000646946 -0.0109463 -0.012081 -0.0131017 0.00736172 302.427 302.427 1000.72 
114 1 1 0.0627099 0.021745 0.00997317 0 0 0 0.0115836 -0.0244145 0.00453813 -0.000640105 -0.000527201 0.000802647 0.0115836 -0.0244145 0.00453813 344.051 344.051 1000.82 
115 1 1 0.0616638 0.0205749 0.0345559 0 0 0 0.0175091 -0.0306443 -0.0177142 -0.00131504 -0.000297771 -0.00108632 0.0175091 -0.0306443 -0.0177142 254.244 254.244 1000.6 
116 1 1 0.108178 0.0351314 0.00997014 0 0 0 -0.00377148 -0.0010418 0.00150771 -0.000165957 -0.000131688 0.00140613 -0.00377148 -0.0010418 0.00150771 368.33 368.33 1000.87 
117 1 1 0.124066 0.0227418 0.0247799 0 0 0 0.0763725 0.0138668 0.0033603 -0.000780699 -0.00123818 -0.00106494 0.0763725 0.0138668 0.0033603 354.997 354.997 1000.84 
118 1 1 0.136627 0.0233155 0.0225884 0 0 0 0.0787582 0.00158725 -0.00819679 0.000782526 -0.000549658 -0.00080739 0.0787582 0.00158725 -0.00819679 367.169 367.169 1000.87 
119 1 1 0.157319 0.022479 0.00997415 0 0 0 0.0277042 -0.00287114 -0.000888871 0.000518148 -0.000357549 -0.000367079 0.0277042 -0.00287114 -0.000888871 369.811 369.811 1000.88 
120 1 1 0.147566 0.0230042 0.03802 0 0 0 0.116923 0.00469089 0.00310514 0.000102736 -0.000993096 -0.000806474 0.116923 0.00469089 0.00310514 266.372 266.372 1000.63 
121 1 1 0.00998294 0.0430251 0.00997621 0 0 0 0.0138335 -0.0113786 0.00276646 0.00672333 -0.00116857 -0.00309287 0.0138335 -0.0113786 0.00276646 421.121 421.121 1001 
122 1 1 0.0226502 0.0337862 0.00997634 0 0 0 0.000511081 0.0117946 0.00840499 0.00107282 -0.000833841 -0.00119105 0.000511081 0.0117946 0.00840499 350.147 350.147 1000.83 
123 1 1 0.0226192 0.0256128 0.00997339 0 0 0 -0.0371699 0.0146665 0.00528884 -3.93e-05 -0.00132482 0.00174738 -0.0371699 0.0146665 0.00528884 340.134 340.134 1000.81 
124 1 1 0.0845984 0.0334364 0.00997074 0 0 0 -0.0274496 0.00553425 0.00357672 -0.00127727 0.000332649 0.00083737 -0.0274496 0.00553425 0.00357672 357.938 357.938 1000.85 
125 1 1 0.0959365 0.0380049 0.00997191 0 0 0 0.00301223 -0.00156835 0.00251816 -0.000712983 0.000207205 0.000161492 0.00301223 -0.00156835 0.00251816 360.578 360.578 1000.86 
126 1 1 0.129902 0.0301599 0.00997086 0 0 0 0.0218793 -0.0106152 1.02565e-05 0.000318753 -0.000237408 0.000729999 0.0218793 -0.0106152 1.02565e-05 378.49 378.49 1000.9 
127 1 1 0.169835 0.0400963 0.00997491 0 0 0 0.0283983 0.00614293 -0.000229839 0.000104653 -0.000597632 -0.000315044 0.0283983 0.00614293 -0.000229839 366.992 366.992 1000.87 
128 1 1 0.150378 0.0415824 0.0099713 0 0 0 0.0328597 0.00586645 -0.000545151 0.000155862 -9.23125e-05 0.000276605 0.0328597 0.00586645 -0.000545151 370.075 370.075 1000.88 
129 1 1 0.144812 0.0222668 0.00997185 0 0 0 -0.00688761 -0.00262833 -0.000262541 0.000326064 8.93417e-06 0.000271925 -0.00688761 -0.00262833 -0.000262541 376.992 376.992 1000.9 
130 1 1 0.187511 0.0328738 0.00997598 0 0 0 0.0209149 0.00195239 0.000223103 -0.000372221 -0.000807125 -0.000567946 0.0209149 0.00195239 0.000223103 362.868 362.868 1000.86 
131 1 1 0.00999547 0.0477453 0.00996452 0 0 0 0.000765523 -0.00213197 0.000799266 -0.00610867 -0.00170333 0.00842262 0.000765523 -0.00213197 0.000799266 420.511 420.511 1001 
132 1 1 0.0387938 0.0426358 0.00998989 0 0 0 0.0073588 0.0340028 0.00774789 0.000535243 0.000277806 -0.0141052 0.0073588 0.0340028 0.00774789 273.283 273.283 1000.65 
133 1 1 0.0463272 0.0512831 0.00998056 0 0 0 -0.0123598 0.000591073 0.00740232 -0.00230158 -0.00101594 -0.00560794 -0.0123598 0.000591073 0.00740232 284.562 284.562 1000.68 
134 1 1 0.0879059 0.0482669 0.00997175 0 0 0 -0.0266185 0.00523695 0.00111496 -0.000235065 0.000437382 0.000555239 -0.0266185 0.00523695 0.00111496 349.861 349.861 1000.83 
135 1 1 0.133087 0.0502423 0.00997076 0 0 0 0.000892746 -0.0101874 0.000221471 -0.000969916 -3.30209e-05 0.000751173 0.000892746 -0.0101874 0.000221471 375.422 375.422 1000.89 
136 1 1 0.0954258 0.0498218 0.0199113 0 0 0 0.0437431 0.000767543 0.0064361 -0.000936419 0.000551051 -0.00058593 0.0437431 0.000767543 0.0064361 354.583 354.583 1000.84 
137 1 1 0.128823 0.0441591 0.0221906 0 0 0 0.0747626 0.0182497 -0.00499157 0.000465727 7.94689e-05 -0.000216002 0.0747626 0.0182497 -0.00499157 366.051 366.051 1000.87 
138 1 1 0.154036 0.0507319 0.00997153 0 0 0 -0.00528235 -0.0120491 -0.000455852 0.000158193 -0.000900525 0.000160824 -0.00528235 -0.0120491 -0.000455852 372.347 372.347 1000.88 
139 1 1 0.158222 0.0414693 0.0099723 0 0 0 0.0124223 -0.00388639 -0.0005811 3.68761e-05 -0.000141454 -3.59156e-05 0.0124223 -0.00388639 -0.0005811 369.324 369.324 1000.88 
140 1 1 0.168413 0.0544785 0.0216897 0 0 0 0.087983 -0.0187333 -0.0397141 0.000501293 -0.000956206 -0.000498073 0.087983 -0.0187333 -0.0397141 365.132 365.132 1000.87 
141 1 1 0.00997794 0.0571171 0.00997492 0 0 0 -0.00298153 -0.00831789 0.00549322 0.00945905 -0.00201527 -0.0036456 -0.00298153 -0.00831789 0.00549322 435.538 435.538 1001.03 
142 1 1 0.0229947 0.0583733 0.00997718 0 0 0 -0.0885641 -0.0319968 0.00588195 0.00353293 -0.00311532 -0.004789 -0.0885641 -0.0319968 0.00588195 375.811 375.811 1000.89 
143 1 1 0.0221437 0.0653084 0.00997647 0 0 0 0.0163926 0.040123 0.0075924 0.00235008 -0.00321953 -0.00431313 0.0163926 0.040123 0.0075924 409.816 409.816 1000.97 
144 1 1 0.0884952 0.0693089 0.00997186 0 0 0 -0.00897127 -0.00288613 -0.000580399 -0.000995582 1.64918e-05 -0.000260645 -0.00897127 -0.00288613 -0.000580399 356.642 356.642 1000.85 
145 1 1 0.102311 0.0649367 0.009972 0 0 0 0.0145439 -0.00174037 0.000536639 -0.00102042 0.000625903 -0.000992315 0.0145439 -0.00174037 0.000536639 356.544 356.544 1000.85 
146 1 1 0.132733 0.0703259 0.0099716 0 0 0 0.0216512 -0.0182356 0.00143691 -0.000696987 -0.000492134 0.000330277 0.0216512 -0.0182356 0.00143691 385.558 385.558 1000.92 
147 1 1 0.163221 0.0576259 0.00997262 0 0 0 -0.00497166 0.0148471 -0.000324603 -0.000126518 -0.00050463 5.68728e-05 -0.00497166 0.0148471 -0.000324603 376.767 376.767 1000.89 
148 1 1 0.149764 0.0544664 0.00997161 0 0 0 0.0274333 -0.00843522 -0.000273039 0.000252113 -0.000521086 0.000465328 0.0274333 -0.00843522 -0.000273039 375.8 375.8 1000.89 
149 1 1 0.144638 0.0764248 0.00997083 0 0 0 0.0113482 0.0107074 0.000785681 -0.000289092 -0.00023127 0.000858474 0.0113482 0.0107074 0.000785681 400.078 400.078 1000.95 
150 1 1 0.186109 0.0693394 0.00997443 0 0 0 0.024294 0.0117898 0.00019936 2.99492e-06 -0.000440001 -0.000351478 0.024294 0.0117898 0.00019936 385.008 385.008 1000.91 
151 1 1 0.00997657 0.0665919 0.00996956 0 0 0 -0.0119864 0.0249413 0.00229916 0.0107613 -0.00487509 -4.39047e-05 -0.0119864 0.0249413 0.00229916 470.888 470.888 1001.12 
152 1 1 0.0232669 0.0783193 0.0235264 0 0 0 -0.00276454 -0.0144328 0.0442668 0.000345451 -0.00269144 0.00188471 -0.00276454 -0.0144328 0.0442668 398.886 398.886 1000.95 
153 1 1 0.056842 0.0761314 0.00997234 0 0 0 -0.0315614 0.00597027 0.00315374 0.00483091 -0.00542358 0.0004963 -0.0315614 0.00597027 0.00315374 340.621 340.621 1000.81 
154 1 1 0.065451 0.0769548 0.00997022 0 0 0 -0.00171889 -0.0118179 -0.00142858 -6.19134e-05 -0.00143972 0.00278551 -0.00171889 -0.0118179 -0.00142858 319.599 319.599 1000.76 
155 1 1 0.0557682 0.0766979 0.0332594 0 0 0 0.0212474 0.0191224 -0.0176648 0.000661871 -0.00229388 -0.000580532 0.0212474 0.0191224 -0.0176648 299.975 299.975 1000.71 
156 1 1 0.11314 0.0667927 0.00997197 0 0 0 0.0193571 0.0081186 0.00108906 -9.79856e-05 -8.78836e-05 -0.000470555 0.0193571 0.0081186 0.00108906 369.562 369.562 1000.88 
157 1 1 0.127994 0.0766329 0.0226732 0 0 0 0.0613782 -0.0419487 -0.0108371 -0.000900583 0.000357735 -0.000618956 0.0613782 -0.0419487 -0.0108371 375.526 375.526 1000.89 
158 1 1 0.141888 0.0769344 0.0229226 0 0 0 0.0686619 -0.00925651 0.000386514 -0.000132965 -0.000212478 0.000382829 0.0686619 -0.00925651 0.000386514 387.957 387.957 1000.92 
159 1 1 0.156796 0.0779205 0.00997081 0 0 0 0.00798084 0.0137066 -0.000482853 0.000159928 -0.00120456 0.000858068 0.00798084 0.0137066 -0.000482853 402.095 402.095 1000.95 
160 1 1 0.145217 0.0777303 0.0463086 0 0 0 0.107512 0.00741101 0.0153433 1.99722e-05 -7.96035e-05 -0.000698985 0.107512 0.00741101 0.0153433 218.658 218.658 1000.52 
161 1 1 0.00998708 0.078316 0.0213446 0 0 0 -0.0135956 -0.0126802 0.00377942 -0.0017374 -0.00224605 0.00144086 -0.0135956 -0.0126802 0.00377942 515.314 515.314 1001.22 
162 1 1 0.0100065 0.0774039 0.00995972 0 0 0 0.000456857 0.00220204 -0.00656769 -0.0291679 -0.0018268 0.00868564 0.000456857 0.00220204 -0.00656769 515.339 515.339 1001.22 
163 1 1 0.026019 0.0699134 0.0099622 0 0 0 0.0323593 -0.0202235 0.00179304 0.00107067 -0.00408339 0.00936652 0.0323593 -0.0202235 0.00179304 409.183 409.183 1000.97 
164 1 1 0.0783981 0.0668172 0.0492583 0 0 0 0.068593 -0.0458374 -0.0477028 -0.000398514 -0.000368108 -0.000713525 0.068593 -0.0458374 -0.0477028 178.994 178.994 1000.43 
165 1 1 0.109334 0.06465 0.0489945 0 0 0 0.0717051 0.00830555 -0.0185676 -0.000703692 0.00054712 -0.00100545 0.0717051 0.00830555 -0.0185676 199.038 199.038 1000.47 
166 1 1 0.139179 0.0772088 0.00997065 0 0 0 -0.00773301 -0.0159169 0.00157612 -0.000815828 -0.000256757 0.000606024 -0.00773301 -0.0159169 0.00157612 399.11 399.11 1000.95 
167 1 1 0.124584 0.0784638 0.0347272 0 0 0 0.0760967 -0.00922079 -0.0231591 -0.000163302 -5.029e-05 -0.000539679 0.0760967 -0.00922079 -0.0231591 312.168 312.168 1000.74 
168 1 1 0.151625 0.0630908 0.00997141 0 0 0 -0.00100445 -0.00318836 -2.86741e-06 -0.000422618 -0.000919024 0.000637537 -0.00100445 -0.00318836 -2.86741e-06 384.034 384.034 1000.91 
169 1 1 0.148941 0.0775097 0.0225441 0 0 0 0.0835497 0.00813626 -0.0206925 -0.000376667 -0.000182548 0.000180593 0.0835497 0.00813626 -0.0206925 389.969 389.969 1000.93 
170 1 1 0.180625 0.0767446 0.00997357 0 0 0 0.0285784 0.000516922 0.000155967 0.00025033 0.000138122 0.0002165 0.0285784 0.000516922 0.000155967 390.176 390.176 1000.93 
171 1 1 0.00999162 0.0900224 0.00996709 0 0 0 0.0136591 0.0134985 0.00451122 -0.00647969 -0.00448441 0.00178862 0.0136591 0.0134985 0.00451122 549.337 549.337 1001.3 
172 1 1 0.0221989 0.0900059 0.00997307 0 0 0 0.014524 0.000102024 -0.020442 -0.00374551 0.0131237 -0.00793855 0.014524 0.000102024 -0.020442 532.979 532.979 1001.26 
173 1 1 0.0467163 0.090008 0.00995795 0 0 0 0.00617531 6.48384e-05 -0.00268504 0.00440451 0.0090842 0.0125139 0.00617531 6.48384e-05 -0.00268504 549.914 549.914 1001.3 
174 1 1 0.0559186 0.0900144 0.0099709 0 0 0 0.0163786 -0.00367322 -0.00557508 0.00607395 0.00165746 0.000707913 0.0163786 -0.00367322 -0.00557508 453.095 453.095 1001.08 