ITEM: TIMESTEP
40000
ITEM: NUMBER OF ATOMS
2655
ITEM: BOX BOUNDS ff ff ff
0 0.5
0 0.1
0 0.5
ITEM: ATOMS id type type x y z ix iy iz vx vy vz fx fy fz vx vy vz p p rho 
1 1 1 0.010002 0.00997022 0.00998677 0 0 0 -0.00171577 0.00258046 -0.0101428 -0.0283288 0.00782981 -0.0182948 -0.00171577 0.00258046 -0.0101428 832.02 832.02 1001.97 
2 1 1 0.0353326 0.00996886 0.00996788 0 0 0 -0.0144901 -0.00338564 -0.0183284 0.00408596 0.0164562 -0.00246622 -0.0144901 -0.00338564 -0.0183284 522.065 522.065 1001.24 
3 1 1 0.02649 0.00997781 0.00999378 0 0 0 -0.00171524 -0.0130951 -0.0112025 0.00278969 0.00391293 -0.0254828 -0.00171524 -0.0130951 -0.0112025 564.523 564.523 1001.34 
4 1 1 0.0698961 0.0099748 0.00998229 0 0 0 0.0661554 0.00803902 0.0151248 -0.00647635 0.0072297 -0.0100874 0.0661554 0.00803902 0.0151248 501.775 501.775 1001.19 
5 1 1 0.0774831 0.00997504 0.00998969 0 0 0 0.0544733 0.0021298 -0.0113156 -0.006439 0.0104686 -0.0151998 0.0544733 0.0021298 -0.0113156 501.165 501.165 1001.19 
6 1 1 0.0981657 0.00999505 0.0099509 0 0 0 0.0256835 -0.0233241 -0.0457505 0.00133296 -0.0120954 0.0249734 0.0256835 -0.0233241 -0.0457505 346.736 346.736 1000.82 
7 1 1 0.11493 0.00999829 0.00997787 0 0 0 0.0269613 -0.00107431 -0.0190905 0.00107012 -0.0127833 -0.00255147 0.0269613 -0.00107431 -0.0190905 541.286 541.286 1001.28 
8 1 1 0.126457 0.00998297 0.00997056 0 0 0 -0.0279873 -0.00432155 -0.012028 0.000228401 0.0024568 0.00242065 -0.0279873 -0.00432155 -0.012028 543.885 543.885 1001.29 
9 1 1 0.136379 0.00997586 0.00997758 0 0 0 0.0302982 -0.00063979 0.0148581 0.0044471 0.00738522 -0.00155153 0.0302982 -0.00063979 0.0148581 571.442 571.442 1001.36 
10 1 1 0.154529 0.00997848 0.00998656 0 0 0 0.00288386 -0.0109228 -0.00629767 0.00326887 0.00660018 -0.0108443 0.00288386 -0.0109228 -0.00629767 477.778 477.778 1001.13 
11 1 1 0.00999197 0.0223637 0.00997122 0 0 0 -0.00647492 0.0408163 0.0042871 -0.000303528 -0.00924372 -0.0121051 -0.00647492 0.0408163 0.0042871 873.719 873.719 1002.07 
12 1 1 0.0246842 0.0245029 0.00997793 0 0 0 -0.00244468 0.0799807 -0.00737785 0.00241509 -0.000784295 -0.0114899 -0.00244468 0.0799807 -0.00737785 597.349 597.349 1001.42 
13 1 1 0.0334602 0.0222512 0.00996811 0 0 0 -0.06651 0.0598223 -0.00194067 0.00936434 -0.00190968 -0.0027811 -0.06651 0.0598223 -0.00194067 476.591 476.591 1001.13 
14 1 1 0.0850915 0.0224416 0.00997943 0 0 0 0.0906125 -0.0277689 -0.00780341 -0.00490186 -0.0033058 -0.0111386 0.0906125 -0.0277689 -0.00780341 492.046 492.046 1001.17 
15 1 1 0.0766956 0.0227604 0.00997671 0 0 0 0.0137848 0.020606 -0.00515664 -0.000575849 -0.00344547 -0.00805434 0.0137848 0.020606 -0.00515664 501.754 501.754 1001.19 
16 1 1 0.102333 0.0238187 0.00997257 0 0 0 0.0795092 -0.0206588 -0.00488193 -0.00366183 -0.00311093 -0.00339748 0.0795092 -0.0206588 -0.00488193 446.468 446.468 1001.06 
17 1 1 0.104312 0.0303255 0.00997422 0 0 0 0.013282 0.0201115 -0.00320387 -0.00126994 -0.000254287 -0.00538498 0.013282 0.0201115 -0.00320387 428.363 428.363 1001.02 
18 1 1 0.120702 0.0278357 0.00996733 0 0 0 0.0783124 0.034551 0.00236936 -0.00149078 -0.000523189 0.00129819 0.0783124 0.034551 0.00236936 500.632 500.632 1001.19 
19 1 1 0.123815 0.0215872 0.00996024 0 0 0 -0.0215858 0.0458713 -0.000356818 0.000381018 -0.00166334 0.00854071 -0.0215858 0.0458713 -0.000356818 511.421 511.421 1001.21 
20 1 1 0.157511 0.0220846 0.00996807 0 0 0 0.0441196 -0.0378931 0.000947408 0.00140155 0.00205016 0.000818005 0.0441196 -0.0378931 0.000947408 418.453 418.453 1000.99 
21 1 1 0.0100142 0.0248637 0.00995457 0 0 0 0.0126428 0.08013 0.00212534 -0.0333131 -0.005893 0.00266381 0.0126428 0.08013 0.00212534 937.333 937.333 1002.22 
22 1 1 0.0309887 0.0355156 0.00997472 0 0 0 0.0106356 0.0123888 -0.00334503 0.00402898 -0.00393057 -0.00841621 0.0106356 0.0123888 -0.00334503 521.97 521.97 1001.24 
23 1 1 0.0538182 0.0350836 0.00996022 0 0 0 0.0532682 0.00115871 -0.0136643 -0.000252779 0.00770378 0.00905078 0.0532682 0.00115871 -0.0136643 447.513 447.513 1001.06 
24 1 1 0.078707 0.0335953 0.00997029 0 0 0 0.0371572 0.00854075 -0.00431883 -9.06955e-05 9.95893e-05 -0.00437058 0.0371572 0.00854075 -0.00431883 466.081 466.081 1001.11 
25 1 1 0.0932833 0.0312458 0.00997477 0 0 0 0.117269 0.0234758 -0.0121511 0.00199784 -0.00240533 -0.00725333 0.117269 0.0234758 -0.0121511 389.775 389.775 1000.93 
26 1 1 0.10966 0.0221654 0.0099735 0 0 0 0.0458068 -0.0445164 -0.000928185 -0.000380632 -0.00243635 -0.00340397 0.0458068 -0.0445164 -0.000928185 503.739 503.739 1001.2 
27 1 1 0.125773 0.0353272 0.00996864 0 0 0 0.109748 0.096975 -0.00197641 0.00194609 0.00177954 0.00142728 0.109748 0.096975 -0.00197641 445.99 445.99 1001.06 
28 1 1 0.113825 0.0252866 0.00997107 0 0 0 0.0598472 0.0508569 -3.916e-05 0.00126267 -0.00133308 -0.000553578 0.0598472 0.0508569 -3.916e-05 512.782 512.782 1001.22 
29 1 1 0.142233 0.0235076 0.00996837 0 0 0 0.0998807 0.0120007 -0.00037527 0.000437821 0.00379995 0.00171137 0.0998807 0.0120007 -0.00037527 474.964 474.964 1001.13 
30 1 1 0.148178 0.0348143 0.00996714 0 0 0 0.0817335 0.0208891 -0.00266996 0.00391727 0.0010548 0.00186933 0.0817335 0.0208891 -0.00266996 366.295 366.295 1000.87 
31 1 1 0.00999869 0.0376746 0.00994058 0 0 0 0.0152401 0.0593112 -0.00275216 -0.00646291 -0.00413157 0.0154286 0.0152401 0.0593112 -0.00275216 973.388 973.388 1002.3 
32 1 1 0.0236498 0.0412705 0.00996818 0 0 0 -0.03687 -0.0118643 -0.00415568 0.00428608 -0.000138911 -0.00480331 -0.03687 -0.0118643 -0.00415568 605.875 605.875 1001.44 
33 1 1 0.0529331 0.0418044 0.00997053 0 0 0 0.000674913 0.0107904 -0.00862009 0.00193684 0.00150521 2.89724e-05 0.000674913 0.0107904 -0.00862009 466.416 466.416 1001.11 
34 1 1 0.0670258 0.0383676 0.00997966 0 0 0 0.0398458 -0.0169967 -0.00317494 0.000980591 0.00453169 -0.0108958 0.0398458 -0.0169967 -0.00317494 399.114 399.114 1000.95 
35 1 1 0.0740531 0.0380141 0.0099746 0 0 0 0.00720955 0.0392682 -0.00308504 -0.00158426 0.00195876 -0.00803612 0.00720955 0.0392682 -0.00308504 460.912 460.912 1001.09 
36 1 1 0.0941417 0.0411332 0.00997196 0 0 0 0.0399184 -0.0492591 -0.00306755 -0.00158373 -0.00161208 -0.00593717 0.0399184 -0.0492591 -0.00306755 521.331 521.331 1001.24 
37 1 1 0.123082 0.0418955 0.00996498 0 0 0 0.0753396 -0.00420735 -0.000368395 0.00315003 -0.00214392 0.00304549 0.0753396 -0.00420735 -0.000368395 478.151 478.151 1001.13 
38 1 1 0.131966 0.0322141 0.00996486 0 0 0 0.11193 -0.0261742 0.00457775 0.00221859 0.000809228 0.00448802 0.11193 -0.0261742 0.00457775 440.488 440.488 1001.05 
39 1 1 0.134631 0.0477351 0.00996666 0 0 0 0.104643 0.0311718 0.0061198 0.00272406 -0.00264003 0.0039695 0.104643 0.0311718 0.0061198 433.86 433.86 1001.03 
40 1 1 0.153848 0.0385486 0.00996545 0 0 0 0.12087 -0.0311077 -0.00821791 0.000336698 0.000332545 0.00280689 0.12087 -0.0311077 -0.00821791 340.094 340.094 1000.81 
41 1 1 0.00996182 0.05 0.00995095 0 0 0 0.0219505 1.56659e-05 -0.0160155 0.024281 3.16017e-05 0.00970168 0.0219505 1.56659e-05 -0.0160155 907.868 907.868 1002.15 
42 1 1 0.04607 0.05 0.00996531 0 0 0 0.02356 1.94697e-06 -0.00349256 -0.00169656 2.10184e-06 0.00327862 0.02356 1.94697e-06 -0.00349256 596.784 596.784 1001.41 
43 1 1 0.052728 0.05 0.00997069 0 0 0 -0.0010881 2.93217e-07 -0.00783705 0.00300818 4.49735e-07 -0.00263371 -0.0010881 2.93217e-07 -0.00783705 493.292 493.292 1001.17 
44 1 1 0.0752908 0.05 0.00998252 0 0 0 0.0300247 4.54572e-07 -0.00743592 -0.00772847 -3.6946e-07 -0.0167446 0.0300247 4.54572e-07 -0.00743592 456.345 456.345 1001.08 
45 1 1 0.0860941 0.05 0.00997082 0 0 0 -0.0484784 4.71611e-07 0.00261143 0.000781077 -3.04811e-07 -0.00593242 -0.0484784 4.71611e-07 0.00261143 499.083 499.083 1001.18 
46 1 1 0.0966455 0.05 0.00997286 0 0 0 -0.0117099 3.30026e-07 0.00502445 -0.00437178 -1.3527e-07 -0.00333377 -0.0117099 3.30026e-07 0.00502445 522.28 522.28 1001.24 
47 1 1 0.101767 0.05 0.00997187 0 0 0 0.0401414 2.01641e-07 0.00199774 0.00364951 -7.10879e-08 -0.0051141 0.0401414 2.01641e-07 0.00199774 542.724 542.724 1001.29 
48 1 1 0.117747 0.05 0.00996503 0 0 0 0.132061 -2.80793e-07 0.00038107 -0.00138586 -8.77491e-08 0.00147748 0.132061 -2.80793e-07 0.00038107 457.983 457.983 1001.09 
49 1 1 0.109553 0.05 0.00996181 0 0 0 -0.0570327 -3.33091e-08 0.00363604 0.00236518 -4.0195e-08 0.00119492 -0.0570327 -3.33091e-08 0.00363604 476.372 476.372 1001.13 
50 1 1 0.156241 0.05 0.00995882 0 0 0 0.101902 -1.22139e-06 -0.0149301 -0.00146069 3.21912e-07 0.00950272 0.101902 -1.22139e-06 -0.0149301 321.414 321.414 1000.76 
51 1 1 0.00999863 0.0623254 0.00994055 0 0 0 0.0152532 -0.0593169 -0.00273754 -0.00639411 0.00419283 0.0154993 0.0152532 -0.0593169 -0.00273754 972.302 972.302 1002.3 
52 1 1 0.0236498 0.0587294 0.00996818 0 0 0 -0.0368712 0.0118686 -0.00415779 0.00427866 0.000176688 -0.0047812 -0.0368712 0.0118686 -0.00415779 605.355 605.355 1001.44 
53 1 1 0.0529331 0.0581956 0.00997053 0 0 0 0.000672983 -0.0107907 -0.00861892 0.00193466 -0.00150421 2.88952e-05 0.000672983 -0.0107907 -0.00861892 466.42 466.42 1001.11 
54 1 1 0.0670258 0.0616324 0.00997966 0 0 0 0.039847 0.0169971 -0.00317477 0.000979952 -0.00453258 -0.0108952 0.039847 0.0169971 -0.00317477 399.119 399.119 1000.95 
55 1 1 0.0740531 0.0619859 0.0099746 0 0 0 0.00720993 -0.0392671 -0.00308447 -0.00158444 -0.00195985 -0.0080361 0.00720993 -0.0392671 -0.00308447 460.925 460.925 1001.09 
56 1 1 0.0941417 0.0588668 0.00997196 0 0 0 0.0399181 0.0492598 -0.00306731 -0.00158342 0.00161173 -0.00593723 0.0399181 0.0492598 -0.00306731 521.334 521.334 1001.24 
57 1 1 0.123082 0.0581045 0.00996498 0 0 0 0.0753392 0.00420642 -0.000368052 0.00314991 0.00214363 0.00304562 0.0753392 0.00420642 -0.000368052 478.154 478.154 1001.13 
58 1 1 0.131966 0.0677859 0.00996486 0 0 0 0.111929 0.0261728 0.00457874 0.0022187 -0.000809618 0.00448782 0.111929 0.0261728 0.00457874 440.495 440.495 1001.05 
59 1 1 0.134631 0.0522649 0.00996666 0 0 0 0.104643 -0.0311733 0.00611997 0.00272408 0.00263973 0.00396941 0.104643 -0.0311733 0.00611997 433.861 433.861 1001.03 
60 1 1 0.153848 0.0614514 0.00996545 0 0 0 0.12087 0.0311058 -0.0082171 0.000337219 -0.000332471 0.00280624 0.12087 0.0311058 -0.0082171 340.088 340.088 1000.81 
61 1 1 0.0100141 0.0751364 0.00995453 0 0 0 0.012632 -0.0801277 0.00199783 -0.0332607 0.00585813 0.00273874 0.012632 -0.0801277 0.00199783 935.494 935.494 1002.21 
62 1 1 0.0309887 0.0644844 0.00997471 0 0 0 0.0106342 -0.0123961 -0.00336263 0.00400433 0.00394375 -0.00839275 0.0106342 -0.0123961 -0.00336263 521.434 521.434 1001.24 
63 1 1 0.0538182 0.0649164 0.00996022 0 0 0 0.0532667 -0.00115975 -0.0136622 -0.000256288 -0.00770332 0.00905083 0.0532667 -0.00115975 -0.0136622 447.511 447.511 1001.06 
64 1 1 0.078707 0.0664047 0.00997029 0 0 0 0.0371572 -0.00853968 -0.00431819 -9.02984e-05 -0.000100519 -0.00437125 0.0371572 -0.00853968 -0.00431819 466.101 466.101 1001.11 
65 1 1 0.0932833 0.0687542 0.00997477 0 0 0 0.117269 -0.0234751 -0.0121506 0.00199856 0.0024051 -0.00725353 0.117269 -0.0234751 -0.0121506 389.782 389.782 1000.93 
66 1 1 0.10966 0.0778346 0.0099735 0 0 0 0.0458053 0.0445163 -0.000927588 -0.000380986 0.0024365 -0.00340328 0.0458053 0.0445163 -0.000927588 503.741 503.741 1001.2 
67 1 1 0.125773 0.0646728 0.00996864 0 0 0 0.109747 -0.0969761 -0.00197579 0.00194594 -0.00177995 0.00142738 0.109747 -0.0969761 -0.00197579 445.996 445.996 1001.06 
68 1 1 0.113825 0.0747134 0.00997107 0 0 0 0.0598457 -0.0508571 -3.85909e-05 0.00126225 0.00133301 -0.000552975 0.0598457 -0.0508571 -3.85909e-05 512.786 512.786 1001.22 
69 1 1 0.142233 0.0764924 0.00996837 0 0 0 0.0998796 -0.0120024 -0.000374045 0.000438087 -0.00380067 0.00171075 0.0998796 -0.0120024 -0.000374045 474.973 474.973 1001.13 
70 1 1 0.148178 0.0651857 0.00996715 0 0 0 0.0817334 -0.0208911 -0.0026689 0.00391785 -0.00105508 0.00186843 0.0817334 -0.0208911 -0.0026689 366.293 366.293 1000.87 
71 1 1 0.00999199 0.0776364 0.00997119 0 0 0 -0.00647192 -0.0408011 0.00415491 -0.000316027 0.00918031 -0.0120393 -0.00647192 -0.0408011 0.00415491 872.118 872.118 1002.06 
72 1 1 0.0246842 0.0754971 0.00997794 0 0 0 -0.00244701 -0.0799748 -0.00744793 0.00239493 0.000762212 -0.0114783 -0.00244701 -0.0799748 -0.00744793 596.473 596.473 1001.41 
73 1 1 0.0334602 0.0777488 0.00996811 0 0 0 -0.0665128 -0.0598187 -0.0019512 0.00934179 0.00188593 -0.00276808 -0.0665128 -0.0598187 -0.0019512 476.22 476.22 1001.13 
74 1 1 0.0850915 0.0775584 0.00997943 0 0 0 0.0906122 0.0277698 -0.00780295 -0.00490093 0.00330625 -0.0111394 0.0906122 0.0277698 -0.00780295 492.064 492.064 1001.17 
75 1 1 0.0766956 0.0772396 0.00997671 0 0 0 0.0137849 -0.0206049 -0.00515616 -0.000574705 0.00344535 -0.00805547 0.0137849 -0.0206049 -0.00515616 501.786 501.786 1001.19 
76 1 1 0.102333 0.0761813 0.00997257 0 0 0 0.0795079 0.0206589 -0.00488128 -0.00366167 0.00311122 -0.00339699 0.0795079 0.0206589 -0.00488128 446.469 446.469 1001.06 
77 1 1 0.104312 0.0696745 0.00997422 0 0 0 0.013281 -0.0201113 -0.00320332 -0.00126982 0.000254229 -0.00538453 0.013281 -0.0201113 -0.00320332 428.365 428.365 1001.02 
78 1 1 0.120702 0.0721643 0.00996733 0 0 0 0.078311 -0.0345515 0.00237002 -0.00149119 0.000522906 0.00129862 0.078311 -0.0345515 0.00237002 500.639 500.639 1001.19 
79 1 1 0.123815 0.0784128 0.00996024 0 0 0 -0.0215874 -0.0458718 -0.000355899 0.000380604 0.00166311 0.00854096 -0.0215874 -0.0458718 -0.000355899 511.434 511.434 1001.21 
80 1 1 0.157511 0.0779154 0.00996808 0 0 0 0.044122 0.0378947 0.000945121 0.001402 -0.00205172 0.000808554 0.044122 0.0378947 0.000945121 418.458 418.458 1000.99 
81 1 1 0.010002 0.0900298 0.00998672 0 0 0 -0.00170938 -0.00261496 -0.0101064 -0.0283203 -0.00793152 -0.0182142 -0.00170938 -0.00261496 -0.0101064 831.735 831.735 1001.97 
82 1 1 0.0353326 0.0900312 0.0099679 0 0 0 -0.0145036 0.00337695 -0.0182998 0.00408571 -0.0164804 -0.00247507 -0.0145036 0.00337695 -0.0182998 522.217 522.217 1001.24 
83 1 1 0.02649 0.0900222 0.00999382 0 0 0 -0.00173137 0.0130736 -0.0111354 0.00277859 -0.00394783 -0.0255139 -0.00173137 0.0130736 -0.0111354 564.809 564.809 1001.34 
84 1 1 0.0698961 0.0900252 0.00998229 0 0 0 0.0661553 -0.00803861 0.015125 -0.00647506 -0.00722987 -0.0100882 0.0661553 -0.00803861 0.015125 501.817 501.817 1001.19 
85 1 1 0.0774831 0.090025 0.00998969 0 0 0 0.054473 -0.00212973 -0.0113154 -0.00643728 -0.0104678 -0.0152 0.054473 -0.00212973 -0.0113154 501.189 501.189 1001.19 
86 1 1 0.0981657 0.090005 0.0099509 0 0 0 0.0256817 0.0233236 -0.0457528 0.00133309 0.0120953 0.0249714 0.0256817 0.0233236 -0.0457528 346.723 346.723 1000.82 
87 1 1 0.11493 0.0900017 0.00997787 0 0 0 0.0269596 0.00107302 -0.01909 0.00106927 0.0127828 -0.00255074 0.0269596 0.00107302 -0.01909 541.293 541.293 1001.28 
88 1 1 0.126457 0.090017 0.00997056 0 0 0 -0.0279892 0.00432061 -0.0120268 0.000227996 -0.00245664 0.00242084 -0.0279892 0.00432061 -0.0120268 543.903 543.903 1001.29 
89 1 1 0.136379 0.0900241 0.00997758 0 0 0 0.0302968 0.000637932 0.0148596 0.00444707 -0.00738441 -0.00155187 0.0302968 0.000637932 0.0148596 571.46 571.46 1001.36 
90 1 1 0.154529 0.0900215 0.00998657 0 0 0 0.00288911 0.0109221 -0.00629808 0.00326856 -0.00659044 -0.0108481 0.00288911 0.0109221 -0.00629808 477.815 477.815 1001.13 
91 1 1 0.0100221 0.00996711 0.00994277 0 0 0 0.0288602 0.00447176 -0.0155719 -0.0280867 0.0110392 0.0258252 0.0288602 0.00447176 -0.0155719 849.609 849.609 1002.01 
92 1 1 0.0243158 0.00996669 0.00997036 0 0 0 0.0281125 -0.015944 0.0232029 -0.0015049 0.0141343 -0.000801324 0.0281125 -0.015944 0.0232029 628.4 628.4 1001.49 
93 1 1 0.0424845 0.00997626 0.00998968 0 0 0 0.0413396 -0.00795126 -0.00398484 0.00182127 0.0100534 -0.0182062 0.0413396 -0.00795126 -0.00398484 469.029 469.029 1001.11 
94 1 1 0.0538463 0.00998378 0.00999639 0 0 0 0.0143983 0.00410636 -0.00234966 0.00257071 0.00053679 -0.0200782 0.0143983 0.00410636 -0.00234966 416.345 416.345 1000.99 
95 1 1 0.0815518 0.00998196 0.0099668 0 0 0 0.0371658 0.00263769 -0.00813563 -0.000761093 0.00301416 0.00680259 0.0371658 0.00263769 -0.00813563 518.485 518.485 1001.23 
96 1 1 0.110548 0.00997098 0.0099577 0 0 0 0.00145495 0.00980395 0.00643659 -0.00419976 0.0130663 0.0178176 0.00145495 0.00980395 0.00643659 570.522 570.522 1001.35 
97 1 1 0.121211 0.00999216 0.00997386 0 0 0 0.101056 0.0149923 0.0181439 -0.00261792 -0.00709342 -0.000385899 0.101056 0.0149923 0.0181439 617.344 617.344 1001.46 
98 1 1 0.13267 0.00998467 0.00997449 0 0 0 0.0608926 -0.00229653 -0.00432004 0.000893353 0.000664679 -0.000279279 0.0608926 -0.00229653 -0.00432004 553.845 553.845 1001.31 
99 1 1 0.144125 0.00998405 0.00996673 0 0 0 -0.0265308 0.00385976 -0.0133743 -0.00103492 -0.00326685 0.0108756 -0.0265308 0.00385976 -0.0133743 520.521 520.521 1001.23 
100 1 1 0.147835 0.00998842 0.00997225 0 0 0 0.0624898 0.0100911 0.0109813 0.00512523 -0.00614756 0.0044644 0.0624898 0.0100911 0.0109813 554.289 554.289 1001.31 
101 1 1 0.0100139 0.0189221 0.0218243 0 0 0 0.00745315 -0.00548521 0.0414086 -0.0291072 -0.00334646 0.000584224 0.00745315 -0.00548521 0.0414086 824.537 824.537 1001.95 
102 1 1 0.0223398 0.0206848 0.00997798 0 0 0 -0.03786 0.0247533 0.00209502 0.00576062 -0.00181043 -0.00813036 -0.03786 0.0247533 0.00209502 597.243 597.243 1001.42 
103 1 1 0.056335 0.0242853 0.0236389 0 0 0 -0.0329665 -0.0395097 -0.0371518 -0.0022168 -0.00875073 0.00157786 -0.0329665 -0.0395097 -0.0371518 460.062 460.062 1001.09 
104 1 1 0.0847684 0.020316 0.0237143 0 0 0 0.130103 -0.0275987 0.0512667 0.000740217 -0.002459 0.00184017 0.130103 -0.0275987 0.0512667 440.801 440.801 1001.05 
105 1 1 0.117687 0.0214948 0.0377344 0 0 0 0.105886 -0.0420526 0.0602701 0.000357638 0.0008704 0.000261568 0.105886 -0.0420526 0.0602701 280.242 280.242 1000.67 
106 1 1 0.129639 0.0216432 0.0203123 0 0 0 0.071614 0.0370535 -0.0804278 0.00297501 -0.000861079 0.0022538 0.071614 0.0370535 -0.0804278 488.144 488.144 1001.16 
107 1 1 0.156232 0.0216776 0.0231728 0 0 0 0.176408 0.0381401 -0.00506164 0.000980159 0.000433555 -0.000346945 0.176408 0.0381401 -0.00506164 374.867 374.867 1000.89 
108 1 1 0.130626 0.0236172 0.00996958 0 0 0 0.0588926 -0.0437534 0.000354751 0.00347096 -0.00241116 -0.00190055 0.0588926 -0.0437534 0.000354751 459.618 459.618 1001.09 
109 1 1 0.174184 0.0202746 0.021547 0 0 0 0.180129 0.0149162 -0.0124377 0.000570227 0.000632382 -0.00088142 0.180129 0.0149162 -0.0124377 379.947 379.947 1000.9 
110 1 1 0.177739 0.0240836 0.00996446 0 0 0 0.118298 0.0219542 -0.00581532 -5.17975e-05 -0.00103981 0.00531605 0.118298 0.0219542 -0.00581532 408.568 408.568 1000.97 
111 1 1 0.00998495 0.0311322 0.00994869 0 0 0 -0.0109825 -0.00825502 0.00188338 0.00919452 -0.00273673 0.00565733 -0.0109825 -0.00825502 0.00188338 965.5 965.5 1002.28 
112 1 1 0.0286244 0.0234358 0.0246776 0 0 0 -0.0134145 0.0868868 0.0447495 0.00392044 -0.00843693 0.000307862 -0.0134145 0.0868868 0.0447495 472.933 472.933 1001.12 
113 1 1 0.0459037 0.0334449 0.00996666 0 0 0 -0.0651148 0.102187 -0.00467925 -0.00648142 -0.00203021 0.00419084 -0.0651148 0.102187 -0.00467925 378.05 378.05 1000.9 
114 1 1 0.0522221 0.0229805 0.00996783 0 0 0 0.0254769 0.009569 -0.0169145 -0.00855979 -0.0157113 0.00269486 0.0254769 0.009569 -0.0169145 415.492 415.492 1000.99 
115 1 1 0.0952266 0.0234746 0.0191184 0 0 0 0.0881917 -0.00739258 -0.0103393 0.000912233 -0.00226666 0.00225243 0.0881917 -0.00739258 -0.0103393 443.888 443.888 1001.05 
116 1 1 0.101012 0.0385843 0.00997136 0 0 0 0.0185804 0.054055 -0.00137884 0.00312158 -0.003562 -0.00388335 0.0185804 0.054055 -0.00137884 500.766 500.766 1001.19 
117 1 1 0.150757 0.0291611 0.0293746 0 0 0 0.165646 0.00894047 0.0158567 0.00179102 0.00165449 -0.0011188 0.165646 0.00894047 0.0158567 263.757 263.757 1000.63 
118 1 1 0.16396 0.0240063 0.0194132 0 0 0 0.183475 0.0186436 0.0144529 0.00216608 -0.00139996 0.000298978 0.183475 0.0186436 0.0144529 389.696 389.696 1000.93 
119 1 1 0.15165 0.0245061 0.00997138 0 0 0 0.113001 0.00484105 -0.00224934 0.00494513 0.00247246 -0.00191599 0.113001 0.00484105 -0.00224934 409.392 409.392 1000.97 
120 1 1 0.180803 0.0244059 0.0184399 0 0 0 0.132533 -0.0546522 -0.0450131 0.000747259 0.000541905 -0.00148253 0.132533 -0.0546522 -0.0450131 367.556 367.556 1000.87 
121 1 1 0.00997932 0.0411133 0.00994594 0 0 0 -0.0323555 -0.0155342 0.0167178 0.010585 0.00351917 0.0117173 -0.0323555 -0.0155342 0.0167178 928.646 928.646 1002.2 
122 1 1 0.02473 0.0353969 0.00994808 0 0 0 0.0173035 0.0553038 -0.005678 -0.00130043 -0.00351157 0.0156189 0.0173035 0.0553038 -0.005678 636.261 636.261 1001.51 
123 1 1 0.0394479 0.0271378 0.00996908 0 0 0 0.0701366 -0.0538681 -0.0130947 -0.000140401 -0.00552863 -0.00131278 0.0701366 -0.0538681 -0.0130947 363.435 363.435 1000.86 
124 1 1 0.0698809 0.0282971 0.00996457 0 0 0 0.0981167 0.019236 -0.0125734 0.00353585 3.56482e-05 0.00489177 0.0981167 0.019236 -0.0125734 370.259 370.259 1000.88 
125 1 1 0.0853741 0.0392731 0.00997214 0 0 0 -0.0240562 -0.0664937 -0.00306634 -0.0035026 -0.000132968 -0.00775695 -0.0240562 -0.0664937 -0.00306634 489.793 489.793 1001.16 
126 1 1 0.109587 0.0379923 0.00996428 0 0 0 0.126777 -0.0364074 0.00630939 -9.86391e-06 -0.00125316 0.00235295 0.126777 -0.0364074 0.00630939 479.99 479.99 1001.14 
127 1 1 0.136638 0.0395521 0.00997275 0 0 0 0.127221 0.0086346 0.0015409 0.001617 0.000913687 -0.00302768 0.127221 0.0086346 0.0015409 417.316 417.316 1000.99 
128 1 1 0.14121 0.0324801 0.00997164 0 0 0 0.027728 -0.0104816 0.00657691 0.00256895 0.00244764 -0.0024387 0.027728 -0.0104816 0.00657691 427.238 427.238 1001.01 
129 1 1 0.142082 0.02031 0.00997009 0 0 0 0.0551763 0.0230947 -0.00480029 -0.00136038 0.0024793 0.00105483 0.0551763 0.0230947 -0.00480029 481.956 481.956 1001.14 
130 1 1 0.168614 0.0318093 0.00997058 0 0 0 0.120247 -0.0190974 -0.0101299 0.00185515 0.00155391 -0.000141056 0.120247 -0.0190974 -0.0101299 341.906 341.906 1000.81 
131 1 1 0.00999096 0.05 0.00995202 0 0 0 -0.00996015 1.56523e-05 -0.01028 -0.00466611 3.16144e-05 0.00869272 -0.00996015 1.56523e-05 -0.01028 881.585 881.585 1002.09 
132 1 1 0.0232225 0.05 0.00995864 0 0 0 -0.0705005 1.03082e-05 0.00930147 0.0107879 2.22094e-05 0.00045787 -0.0705005 1.03082e-05 0.00930147 605.204 605.204 1001.43 
133 1 1 0.0377323 0.05 0.0105139 0 0 0 -0.0199335 5.05097e-06 -0.206103 -0.000765274 7.92501e-06 -0.0321127 -0.0199335 5.05097e-06 -0.206103 249.045 249.045 1000.59 
134 1 1 0.0793962 0.05 0.00997305 0 0 0 0.0739979 4.71295e-07 -0.00179358 0.000515404 -3.67349e-07 -0.00823651 0.0739979 4.71295e-07 -0.00179358 490.137 490.137 1001.16 
135 1 1 0.106771 0.05 0.0169626 0 0 0 0.106688 4.62945e-08 -0.086616 -0.00243313 -1.39898e-08 0.000755159 0.106688 4.62945e-08 -0.086616 471.95 471.95 1001.12 
136 1 1 0.125467 0.05 0.0206288 0 0 0 0.100808 -5.13798e-07 0.0335917 0.00200372 -1.21402e-07 0.00257381 0.100808 -5.13798e-07 0.0335917 404.553 404.553 1000.96 
137 1 1 0.153383 0.05 0.02042 0 0 0 0.149297 -1.19788e-06 0.0317078 -0.000191358 2.58074e-07 0.00129198 0.149297 -1.19788e-06 0.0317078 331.697 331.697 1000.79 
138 1 1 0.125217 0.05 0.00996695 0 0 0 0.090823 -4.90232e-07 0.00725072 0.00317222 -1.43625e-07 0.00147312 0.090823 -4.90232e-07 0.00725072 474.437 474.437 1001.13 
139 1 1 0.147778 0.05 0.0099691 0 0 0 0.12162 -1.08369e-06 0.00364579 0.00404578 8.64445e-08 0.00049807 0.12162 -1.08369e-06 0.00364579 360.636 360.636 1000.86 
140 1 1 0.187374 0.05 0.0215943 0 0 0 0.180832 -6.15057e-07 -0.0346158 -0.00165242 7.03543e-07 -0.00119565 0.180832 -6.15057e-07 -0.0346158 350.072 350.072 1000.83 
141 1 1 0.00997931 0.0588867 0.00994591 0 0 0 -0.0323512 0.0155469 0.0167459 0.0105975 -0.00344726 0.0117633 -0.0323512 0.0155469 0.0167459 927.966 927.966 1002.19 
142 1 1 0.02473 0.0646031 0.00994807 0 0 0 0.0173044 -0.0553136 -0.00571512 -0.00131085 0.00352989 0.0156534 0.0173044 -0.0553136 -0.00571512 635.356 635.356 1001.51 
143 1 1 0.039448 0.0728622 0.00996908 0 0 0 0.0701348 0.0538636 -0.0130913 -0.000162479 0.00552602 -0.00130065 0.0701348 0.0538636 -0.0130913 363.226 363.226 1000.86 
144 1 1 0.0698809 0.0717029 0.00996456 0 0 0 0.0981184 -0.0192352 -0.0125729 0.00353569 -3.70427e-05 0.00489137 0.0981184 -0.0192352 -0.0125729 370.284 370.284 1000.88 
145 1 1 0.0853741 0.0607269 0.00997214 0 0 0 -0.0240563 0.0664947 -0.00306598 -0.00350224 0.000132223 -0.00775736 -0.0240563 0.0664947 -0.00306598 489.803 489.803 1001.16 
146 1 1 0.109587 0.0620077 0.00996428 0 0 0 0.126777 0.0364073 0.00630977 -9.93605e-06 0.00125305 0.00235336 0.126777 0.0364073 0.00630977 479.99 479.99 1001.14 
147 1 1 0.136638 0.0604479 0.00997275 0 0 0 0.12722 -0.00863642 0.00154173 0.00161721 -0.000913975 -0.00302804 0.12722 -0.00863642 0.00154173 417.32 417.32 1000.99 
148 1 1 0.14121 0.0675199 0.00997164 0 0 0 0.0277272 0.0104795 0.00657828 0.00256939 -0.00244802 -0.00243931 0.0277272 0.0104795 0.00657828 427.241 427.241 1001.01 
149 1 1 0.142082 0.07969 0.00997009 0 0 0 0.055175 -0.0230958 -0.00479902 -0.00136033 -0.00248008 0.00105418 0.055175 -0.0230958 -0.00479902 481.968 481.968 1001.14 
150 1 1 0.168614 0.0681907 0.00997059 0 0 0 0.120247 0.0190965 -0.0101309 0.00185557 -0.00155415 -0.000144849 0.120247 0.0190965 -0.0101309 341.892 341.892 1000.81 
151 1 1 0.0099849 0.0688678 0.00994863 0 0 0 -0.011216 0.00823807 0.00184044 0.00923925 0.00276383 0.00577019 -0.011216 0.00823807 0.00184044 963.5 963.5 1002.28 
152 1 1 0.0286244 0.0765643 0.0246776 0 0 0 -0.0133843 -0.0868329 0.0447322 0.0039261 0.0084417 0.000276712 -0.0133843 -0.0868329 0.0447322 472.804 472.804 1001.12 
153 1 1 0.0459037 0.0665551 0.00996666 0 0 0 -0.0651201 -0.102189 -0.00467 -0.00649256 0.00203351 0.00419615 -0.0651201 -0.102189 -0.00467 378.016 378.016 1000.9 
154 1 1 0.0522221 0.0770195 0.00996783 0 0 0 0.025477 -0.00956805 -0.0169092 -0.00856632 0.0157086 0.00269814 0.025477 -0.00956805 -0.0169092 415.506 415.506 1000.99 
155 1 1 0.0952266 0.0765254 0.0191184 0 0 0 0.0881905 0.00739302 -0.0103397 0.000913009 0.00226707 0.00225272 0.0881905 0.00739302 -0.0103397 443.892 443.892 1001.05 
156 1 1 0.101012 0.0614157 0.00997136 0 0 0 0.0185798 -0.0540546 -0.00137852 0.00312181 0.00356187 -0.00388312 0.0185798 -0.0540546 -0.00137852 500.768 500.768 1001.19 
157 1 1 0.150757 0.0708389 0.0293746 0 0 0 0.165645 -0.00894259 0.0158582 0.00179155 -0.00165456 -0.00111908 0.165645 -0.00894259 0.0158582 263.754 263.754 1000.63 
158 1 1 0.16396 0.0759937 0.0194132 0 0 0 0.183476 -0.0186435 0.0144517 0.00216672 0.00139886 0.000299498 0.183476 -0.0186435 0.0144517 389.687 389.687 1000.93 
159 1 1 0.15165 0.0754939 0.00997139 0 0 0 0.113003 -0.00484169 -0.00224998 0.00494561 -0.00247351 -0.00191929 0.113003 -0.00484169 -0.00224998 409.394 409.394 1000.97 
160 1 1 0.180803 0.0755941 0.0184399 0 0 0 0.132534 0.0546504 -0.0450122 0.000748602 -0.000541946 -0.00148244 0.132534 0.0546504 -0.0450122 367.529 367.529 1000.87 
161 1 1 0.0100139 0.0810779 0.0218244 0 0 0 0.00828181 0.0055754 0.0413558 -0.0290994 0.00337601 0.000569281 0.00828181 0.0055754 0.0413558 824.16 824.16 1001.95 
162 1 1 0.0223398 0.0793153 0.009978 0 0 0 -0.0378643 -0.0247334 0.00204042 0.00573395 0.00176593 -0.00813724 -0.0378643 -0.0247334 0.00204042 596.614 596.614 1001.41 
163 1 1 0.056335 0.0757147 0.0236389 0 0 0 -0.0329669 0.0395123 -0.0371483 -0.00222227 0.00875032 0.00157842 -0.0329669 0.0395123 -0.0371483 460.075 460.075 1001.09 
164 1 1 0.0847684 0.079684 0.0237143 0 0 0 0.130102 0.0275995 0.0512661 0.000741396 0.00245961 0.00184053 0.130102 0.0275995 0.0512661 440.815 440.815 1001.05 
165 1 1 0.117687 0.0785052 0.0377344 0 0 0 0.105885 0.0420522 0.0602705 0.000357287 -0.000870491 0.000261797 0.105885 0.0420522 0.0602705 280.24 280.24 1000.67 
166 1 1 0.129639 0.0783568 0.0203123 0 0 0 0.0716127 -0.0370542 -0.0804269 0.00297498 0.000860743 0.00225418 0.0716127 -0.0370542 -0.0804269 488.159 488.159 1001.16 
167 1 1 0.156232 0.0783224 0.0231728 0 0 0 0.176408 -0.0381412 -0.00506126 0.000980773 -0.000434463 -0.000346558 0.176408 -0.0381412 -0.00506126 374.862 374.862 1000.89 
168 1 1 0.130626 0.0763828 0.00996958 0 0 0 0.058891 0.0437527 0.000355956 0.00347101 0.00241086 -0.0019007 0.058891 0.0437527 0.000355956 459.631 459.631 1001.09 
169 1 1 0.174184 0.0797254 0.021547 0 0 0 0.180129 -0.014917 -0.0124379 0.000571619 -0.000633364 -0.000880787 0.180129 -0.014917 -0.0124379 379.931 379.931 1000.9 
170 1 1 0.177739 0.0759164 0.00996447 0 0 0 0.118297 -0.0219543 -0.00581603 -5.03499e-05 0.00103914 0.00531058 0.118297 -0.0219543 -0.00581603 408.553 408.553 1000.97 
171 1 1 0.010022 0.090033 0.00994274 0 0 0 0.0288388 -0.00450665 -0.0154982 -0.0280819 -0.011141 0.0258948 0.0288388 -0.00450665 -0.0154982 849.347 849.347 1002.01 
172 1 1 0.0243158 0.0900333 0.0099704 0 0 0 0.0281016 0.015914 0.0232684 -0.00152547 -0.0141804 -0.000825925 0.0281016 0.015914 0.0232684 628.683 628.683 1001.49 
173 1 1 0.0424844 0.0900238 0.00998968 0 0 0 0.0413373 0.00793547 -0.0039704 0.00182067 -0.0100651 -0.0182024 0.0413373 0.00793547 -0.0039704 469.109 469.109 1001.11 
174 1 1 0.0538463 0.0900162 0.00999638 0 0 0 0.0144001 -0.00410968 -0.00234816 0.00257007 -0.000539258 -0.0200738 0.0144001 -0.00410968 -0.00234816 416.404 416.404 1000.99 
175 1 1 0.0815518 0.090018 0.0099668 0 0 0 0.0371647 -0.00263786 -0.00813545 -0.000759429 -0.00301337 0.00680224 0.0371647 -0.00263786 -0.00813545 518.498 518.498 1001.23 
176 1 1 0.110548 0.090029 0.0099577 0 0 0 0.00145322 -0.00980392 0.00643698 -0.00420058 -0.013067 0.0178185 0.00145322 -0.00980392 0.00643698 570.521 570.521 1001.35 
177 1 1 0.121211 0.0900078 0.00997386 0 0 0 0.101054 -0.0149931 0.0181447 -0.00261868 0.00709203 -0.000385404 0.101054 -0.0149931 0.0181447 617.358 617.358 1001.46 
178 1 1 0.13267 0.0900153 0.00997449 0 0 0 0.0608906 0.00229525 -0.0043185 0.000893238 -0.000664212 -0.000279443 0.0608906 0.00229525 -0.0043185 553.863 553.863 1001.31 
179 1 1 0.144125 0.0900159 0.00996673 0 0 0 -0.0265312 -0.00386191 -0.0133731 -0.00103553 0.00326968 0.0108747 -0.0265312 -0.00386191 -0.0133731 520.541 520.541 1001.23 