ITEM: TIMESTEP
137000
ITEM: NUMBER OF ATOMS
2655
ITEM: BOX BOUNDS ff ff ff
0 0.5
0 0.1
0 0.5
ITEM: ATOMS id type type x y z ix iy iz vx vy vz fx fy fz vx vy vz p p rho 
1 1 1 0.00999698 0.00998555 0.00996126 0 0 0 -0.00955038 -0.00523911 0.0189081 -0.00409359 0.00156823 0.0166523 -0.00955038 -0.00523911 0.0189081 389.729 389.729 1000.93 
2 1 1 0.0341172 0.00999227 0.00996977 0 0 0 0.0475393 0.00161575 -0.00669254 -0.00427378 -0.00626877 0.0053717 0.0475393 0.00161575 -0.00669254 358.91 358.91 1000.85 
3 1 1 0.0288657 0.00999391 0.00997086 0 0 0 0.116006 -0.0134692 0.00682071 -0.00702652 -0.0073236 0.00490301 0.116006 -0.0134692 0.00682071 337.824 337.824 1000.8 
4 1 1 0.0689101 0.00998789 0.00996776 0 0 0 0.0532497 0.0164025 -0.00782754 0.000344147 -0.00307762 0.00552255 0.0532497 0.0164025 -0.00782754 392.134 392.134 1000.93 
5 1 1 0.0726978 0.00998758 0.00997507 0 0 0 0.0848775 0.00135464 0.00732769 0.00198323 -0.00258047 -0.00222964 0.0848775 0.00135464 0.00732769 379.229 379.229 1000.9 
6 1 1 0.0933686 0.00999348 0.00996841 0 0 0 0.0778415 -0.0132116 0.00968064 -0.00133017 -0.00487764 0.00559508 0.0778415 -0.0132116 0.00968064 356.643 356.643 1000.85 
7 1 1 0.108418 0.00998307 0.00997301 0 0 0 0.0716748 0.0012065 0.0106532 -0.003463 -0.00122406 -0.00109357 0.0716748 0.0012065 0.0106532 439.685 439.685 1001.04 
8 1 1 0.117969 0.00997703 0.00997123 0 0 0 0.0712968 0.00748166 7.87508e-05 -0.00310789 0.00258236 0.000844886 0.0712968 0.00748166 7.87508e-05 494.071 494.071 1001.17 
9 1 1 0.127678 0.00997727 0.00996947 0 0 0 0.0600584 0.00660776 -0.004619 -0.000316994 0.00249876 0.00404381 0.0600584 0.00660776 -0.004619 492.397 492.397 1001.17 
10 1 1 0.14191 0.00998204 0.00996996 0 0 0 0.0643414 0.00325532 -0.00367762 -0.000161437 -0.00150817 0.00494868 0.0643414 0.00325532 -0.00367762 507.278 507.278 1001.2 
11 1 1 0.00999965 0.0209194 0.00996034 0 0 0 3.23267e-05 0.00883635 0.00624975 -0.00909736 -0.00241802 0.0147608 3.23267e-05 0.00883635 0.00624975 370.151 370.151 1000.88 
12 1 1 0.0331157 0.0345654 0.00996548 0 0 0 0.0326213 -0.00687651 -0.00732153 -0.00272479 -0.009667 0.0032966 0.0326213 -0.00687651 -0.00732153 313.423 313.423 1000.74 
13 1 1 0.0235946 0.0219758 0.00997155 0 0 0 -0.00904068 -0.0213258 -0.00376665 -0.00359043 -0.00397123 -0.00151796 -0.00904068 -0.0213258 -0.00376665 370.754 370.754 1000.88 
14 1 1 0.0854603 0.0218106 0.00997898 0 0 0 0.0306144 0.00401461 0.00500514 0.00604007 0.0014182 -0.00782413 0.0306144 0.00401461 0.00500514 378.169 378.169 1000.9 
15 1 1 0.0717768 0.0221317 0.00997446 0 0 0 0.0573777 -0.0100161 0.00373933 0.000881631 0.000365762 -0.001872 0.0573777 -0.0100161 0.00373933 354.594 354.594 1000.84 
16 1 1 0.103658 0.0215768 0.00997327 0 0 0 0.0476147 -0.00683706 0.00702925 -0.00674894 0.00147935 -0.0028608 0.0476147 -0.00683706 0.00702925 458.307 458.307 1001.09 
17 1 1 0.105128 0.0411348 0.00998347 0 0 0 0.0912794 -0.00862734 0.00682539 -0.00462176 0.00219994 -0.012316 0.0912794 -0.00862734 0.00682539 333.288 333.288 1000.79 
18 1 1 0.133869 0.0313431 0.00996998 0 0 0 0.072888 0.00640489 0.00169088 -0.0010282 0.00180487 0.00154426 0.072888 0.00640489 0.00169088 485.777 485.777 1001.15 
19 1 1 0.117634 0.0212664 0.00997022 0 0 0 0.0961815 -0.00216872 0.00394242 -0.0031072 0.0026332 -4.30525e-05 0.0961815 -0.00216872 0.00394242 478.156 478.156 1001.13 
20 1 1 0.15416 0.0226921 0.00997288 0 0 0 0.0772375 0.00396966 0.000379363 0.000485877 -3.78904e-05 0.000433793 0.0772375 0.00396966 0.000379363 481.445 481.445 1001.14 
21 1 1 0.00998289 0.028049 0.00998434 0 0 0 0.000366301 0.0172993 -0.00170555 0.00642228 -0.000755848 -0.00986584 0.000366301 0.0172993 -0.00170555 398.529 398.529 1000.95 
22 1 1 0.0388602 0.0354732 0.00996299 0 0 0 0.00325861 -0.00789451 -0.00849608 0.00136856 -0.0113319 0.00436424 0.00325861 -0.00789451 -0.00849608 370.857 370.857 1000.88 
23 1 1 0.0641438 0.0450571 0.00997326 0 0 0 0.0587601 0.0289745 -0.000383398 0.00116442 -0.000298408 -0.00355946 0.0587601 0.0289745 -0.000383398 412.328 412.328 1000.98 
24 1 1 0.089896 0.0313407 0.00998004 0 0 0 0.102228 0.00488988 -0.00019075 0.00149809 -0.0030328 -0.00940605 0.102228 0.00488988 -0.00019075 401.475 401.475 1000.95 
25 1 1 0.11151 0.0376709 0.00997325 0 0 0 0.0812746 -0.0192973 0.00637187 -0.00577192 0.00229381 -0.00411814 0.0812746 -0.0192973 0.00637187 451.508 451.508 1001.07 
26 1 1 0.110911 0.0231072 0.00997193 0 0 0 0.108379 -0.0119397 0.00649606 -0.00220819 0.000270608 -0.00104381 0.108379 -0.0119397 0.00649606 442.492 442.492 1001.05 
27 1 1 0.13286 0.0448478 0.00997127 0 0 0 0.0498513 0.00133372 0.00259064 -0.000835934 0.000597079 0.000786929 0.0498513 0.00133372 0.00259064 449.582 449.582 1001.07 
28 1 1 0.113585 0.0305363 0.00997133 0 0 0 0.0887252 0.0379996 0.00662308 -0.003094 0.00173718 -0.00100715 0.0887252 0.0379996 0.00662308 437.154 437.154 1001.04 
29 1 1 0.142311 0.0224237 0.00997044 0 0 0 0.0644366 -0.00365978 -0.000587318 0.00128825 0.000659231 0.00179111 0.0644366 -0.00365978 -0.000587318 488.818 488.818 1001.16 
30 1 1 0.146453 0.0322884 0.00997155 0 0 0 0.0880385 -0.00419674 0.0001547 0.000546363 -0.000400398 0.00121916 0.0880385 -0.00419674 0.0001547 468.176 468.176 1001.11 
31 1 1 0.00998694 0.0380067 0.00997911 0 0 0 4.88233e-06 0.0115051 -0.0086346 0.00261783 -0.00173487 -0.00511928 4.88233e-06 0.0115051 -0.0086346 393.592 393.592 1000.93 
32 1 1 0.0225934 0.0424547 0.00996463 0 0 0 0.0312829 -0.0104784 -0.00894423 -0.0100997 -0.0090632 0.00233222 0.0312829 -0.0104784 -0.00894423 344.518 344.518 1000.82 
33 1 1 0.0521144 0.041131 0.00996615 0 0 0 0.0353029 -0.0657443 -0.00754184 0.000209121 -0.00392411 0.00109687 0.0353029 -0.0657443 -0.00754184 400.911 400.911 1000.95 
34 1 1 0.0721353 0.035216 0.00997634 0 0 0 0.0479856 0.0067211 0.00387337 0.00213533 -0.00118275 -0.00494322 0.0479856 0.0067211 0.00387337 347.298 347.298 1000.82 
35 1 1 0.0797461 0.0390021 0.00998107 0 0 0 0.113326 -0.0232138 0.00421126 0.00324072 0.00109659 -0.00962117 0.113326 -0.0232138 0.00421126 354.213 354.213 1000.84 
36 1 1 0.103211 0.0297568 0.00997469 0 0 0 0.0791189 -0.0240432 0.00390716 -0.00869273 0.00316331 -0.00369337 0.0791189 -0.0240432 0.00390716 457.966 457.966 1001.09 
37 1 1 0.123362 0.0372867 0.00997129 0 0 0 0.0876163 0.00658143 0.00466576 -0.0013495 0.000292983 0.000390251 0.0876163 0.00658143 0.00466576 447.146 447.146 1001.06 
38 1 1 0.129827 0.0386349 0.00997152 0 0 0 0.0936306 0.00932069 0.00314764 -0.000479458 0.00065665 0.000842443 0.0936306 0.00932069 0.00314764 454.246 454.246 1001.08 
39 1 1 0.150079 0.0375296 0.00997161 0 0 0 0.0715045 0.000565441 0.000136645 0.00106512 0.000248814 0.00125258 0.0715045 0.000565441 0.000136645 468.897 468.897 1001.11 
40 1 1 0.16726 0.0384074 0.00997407 0 0 0 0.0484465 -0.00137711 -0.000174752 -0.000391842 4.02748e-05 0.000450704 0.0484465 -0.00137711 -0.000174752 463.128 463.128 1001.1 
41 1 1 0.00998716 0.0525118 0.0099763 0 0 0 -0.00710354 -0.0154963 0.00217503 0.000527579 -0.00193305 -0.00395022 -0.00710354 -0.0154963 0.00217503 411.706 411.706 1000.98 
42 1 1 0.0376423 0.0568098 0.00994869 0 0 0 0.0731545 0.0598259 -0.00606655 0.00879856 0.00855492 0.00933675 0.0731545 0.0598259 -0.00606655 451.932 451.932 1001.07 
43 1 1 0.052965 0.0499252 0.00996432 0 0 0 0.0723404 0.017598 -0.00724153 0.00439421 -0.00121124 0.00201806 0.0723404 0.017598 -0.00724153 349.975 349.975 1000.83 
44 1 1 0.0775353 0.0476108 0.00998093 0 0 0 0.0876568 -0.0285752 0.0043889 0.00308965 0.00161483 -0.00994693 0.0876568 -0.0285752 0.0043889 429.442 429.442 1001.02 
45 1 1 0.0888019 0.0487328 0.00999056 0 0 0 0.0121084 0.0583023 0.0108376 0.000731187 -4.98314e-05 -0.0173199 0.0121084 0.0583023 0.0108376 85.125 85.125 1000.2 
46 1 1 0.0962649 0.054127 0.00998977 0 0 0 0.136314 0.0723959 0.00978822 -0.00204343 -0.00381923 -0.0178046 0.136314 0.0723959 0.00978822 151.197 151.197 1000.36 
47 1 1 0.103729 0.04863 0.00998819 0 0 0 0.11722 -0.00143065 0.0089216 -0.00581557 -0.00057748 -0.016939 0.11722 -0.00143065 0.0089216 233.291 233.291 1000.55 
48 1 1 0.127789 0.052061 0.00997144 0 0 0 0.101885 -0.00253243 0.00354085 -0.000105653 7.89022e-05 0.000329719 0.101885 -0.00253243 0.00354085 430.733 430.733 1001.02 
49 1 1 0.114984 0.0492271 0.00997351 0 0 0 0.0867693 0.0130755 0.00566241 -0.00517789 -0.000405162 -0.00294969 0.0867693 0.0130755 0.00566241 455.094 455.094 1001.08 
50 1 1 0.154325 0.0496659 0.00997242 0 0 0 0.0601775 0.0149579 0.000220117 0.000691625 0.0009265 0.0010317 0.0601775 0.0149579 0.000220117 443.317 443.317 1001.05 
51 1 1 0.00998505 0.0617444 0.00997601 0 0 0 0.00113893 0.00319681 -0.0020723 0.000349859 -0.0042832 -0.00423434 0.00113893 0.00319681 -0.0020723 441.397 441.397 1001.05 
52 1 1 0.0236005 0.0557868 0.00996433 0 0 0 0.0317404 0.00798914 -0.00353418 -0.0172658 -0.00249528 0.000850796 0.0317404 0.00798914 -0.00353418 372.725 372.725 1000.89 
53 1 1 0.0603425 0.0601233 0.00996865 0 0 0 0.0346456 -0.00453162 -0.00314048 0.0006325 -0.000958818 -0.0029117 0.0346456 -0.00453162 -0.00314048 431.007 431.007 1001.02 
54 1 1 0.0789853 0.0654744 0.00997346 0 0 0 0.120555 -0.00387035 0.00342234 -0.000542063 -0.00556647 -0.00343138 0.120555 -0.00387035 0.00342234 441.657 441.657 1001.05 
55 1 1 0.0848054 0.0596611 0.0099795 0 0 0 0.0912687 0.00963729 0.00448299 -0.00103164 -0.00660381 -0.010784 0.0912687 0.00963729 0.00448299 431.977 431.977 1001.03 
56 1 1 0.101707 0.0723737 0.00997148 0 0 0 0.0679658 0.0319924 0.00272263 -0.00124579 -0.00103317 -0.000556073 0.0679658 0.0319924 0.00272263 435.707 435.707 1001.03 
57 1 1 0.125948 0.0630991 0.0099718 0 0 0 0.0800523 0.0164008 0.00276952 -0.000178945 -0.000315165 -7.13256e-05 0.0800523 0.0164008 0.00276952 435.598 435.598 1001.03 
58 1 1 0.132877 0.0637923 0.00997164 0 0 0 0.0718715 0.0244946 0.00159805 -0.000632398 -0.000412601 0.000285639 0.0718715 0.0244946 0.00159805 455.854 455.854 1001.08 
59 1 1 0.15066 0.0622624 0.00997276 0 0 0 0.0621854 0.0193818 0.000423536 5.45107e-05 -1.24667e-05 0.000956281 0.0621854 0.0193818 0.000423536 445.308 445.308 1001.06 
60 1 1 0.161884 0.0619226 0.00997405 0 0 0 0.0556647 -0.00772288 0.000391235 -0.000132151 0.000770298 0.000587539 0.0556647 -0.00772288 0.000391235 451.72 451.72 1001.07 
61 1 1 0.00998776 0.0716562 0.0099689 0 0 0 -0.0145457 -0.00598679 0.010252 -0.00329811 -0.00281761 0.00177768 -0.0145457 -0.00598679 0.010252 490.931 490.931 1001.16 
62 1 1 0.0418525 0.065912 0.00995844 0 0 0 0.0340745 0.0316459 -0.00859119 0.0127594 -0.00379393 -0.00167926 0.0340745 0.0316459 -0.00859119 521.756 521.756 1001.24 
63 1 1 0.0711896 0.0591185 0.00997365 0 0 0 0.0839632 0.0402746 0.00265825 0.00382147 -0.0006968 -0.00417087 0.0839632 0.0402746 0.00265825 478.794 478.794 1001.14 
64 1 1 0.0905379 0.0711914 0.00997201 0 0 0 0.0984635 0.0313731 0.0029255 -0.000668379 -0.00170327 -0.00186684 0.0984635 0.0313731 0.0029255 407.515 407.515 1000.97 
65 1 1 0.114609 0.0636845 0.00997199 0 0 0 0.0906647 0.0212199 0.00436505 -0.000970488 0.000796001 -0.000757666 0.0906647 0.0212199 0.00436505 431.679 431.679 1001.02 
66 1 1 0.110896 0.0782833 0.00997117 0 0 0 0.0767327 0.00653748 0.000754599 -0.000374319 -0.000393577 -0.000190774 0.0767327 0.00653748 0.000754599 440.835 440.835 1001.05 
67 1 1 0.134504 0.0539712 0.00997091 0 0 0 0.0595995 0.0122674 0.00208538 -0.00153388 0.0015221 0.000605318 0.0595995 0.0122674 0.00208538 452.727 452.727 1001.07 
68 1 1 0.113527 0.0715276 0.00997205 0 0 0 0.10182 0.00863501 0.00263499 -0.000321037 -0.00122376 -0.000356241 0.10182 0.00863501 0.00263499 415.4 415.4 1000.99 
69 1 1 0.14313 0.0775436 0.00997403 0 0 0 0.0735127 0.00832737 0.000781833 -0.000532237 0.00100073 -0.000301174 0.0735127 0.00832737 0.000781833 457.849 457.849 1001.09 
70 1 1 0.150487 0.0683525 0.00997341 0 0 0 0.054761 -0.0278228 0.000145273 0.000206652 0.000936394 0.000677452 0.054761 -0.0278228 0.000145273 445.025 445.025 1001.06 
71 1 1 0.00999714 0.0789331 0.00995992 0 0 0 -0.0115505 -0.0231018 0.00682493 -0.0116173 -0.00784395 0.00850691 -0.0115505 -0.0231018 0.00682493 539.959 539.959 1001.28 
72 1 1 0.0340852 0.0625306 0.0099572 0 0 0 0.0371101 0.0670841 -0.00772847 -0.000316387 0.00302913 -0.000326838 0.0371101 0.0670841 -0.00772847 618.589 618.589 1001.47 
73 1 1 0.025064 0.076583 0.00997047 0 0 0 0.10982 -0.0901228 0.00561252 -0.0169354 0.00551039 -0.0123371 0.10982 -0.0901228 0.00561252 659.997 659.997 1001.56 
74 1 1 0.0879165 0.0781682 0.00997043 0 0 0 0.0765488 0.00676398 0.000281265 -4.60329e-05 -0.000509349 -0.000733038 0.0765488 0.00676398 0.000281265 410.975 410.975 1000.98 
75 1 1 0.0734387 0.0769783 0.00996971 0 0 0 0.0962812 0.0175695 -0.00129528 0.000407809 -0.00022909 -0.000801594 0.0962812 0.0175695 -0.00129528 421.677 421.677 1001 
76 1 1 0.103878 0.0782 0.00997051 0 0 0 0.0865646 -0.00425446 0.00138874 -0.000698419 0.000470099 -0.000210499 0.0865646 -0.00425446 0.00138874 447.405 447.405 1001.06 
77 1 1 0.108302 0.0609088 0.00997456 0 0 0 0.0932905 0.00679413 0.00452515 -0.00392615 -0.00289985 -0.00380508 0.0932905 0.00679413 0.00452515 447.469 447.469 1001.06 
78 1 1 0.138161 0.0688449 0.00997229 0 0 0 0.0527334 0.010641 0.000813179 -0.000479034 0.000373566 0.000410355 0.0527334 0.010641 0.000813179 442.387 442.387 1001.05 
79 1 1 0.118276 0.0772897 0.00997087 0 0 0 0.0912174 0.0207852 0.000487119 -0.000863161 0.00110952 0.00023266 0.0912174 0.0207852 0.000487119 454.62 454.62 1001.08 
80 1 1 0.154886 0.0778757 0.00997542 0 0 0 0.069531 -0.00439808 0.000856837 -0.000554642 0.000778268 -0.00134686 0.069531 -0.00439808 0.000856837 456.405 456.405 1001.08 
81 1 1 0.00998259 0.0900339 0.00997074 0 0 0 -0.0107292 -0.00923709 0.0142763 0.00329181 -0.0161527 -0.00405393 -0.0107292 -0.00923709 0.0142763 719.641 719.641 1001.7 
82 1 1 0.032601 0.0900209 0.00996104 0 0 0 0.0447793 -0.00336272 -0.00522913 0.00246621 0.00480401 0.00128104 0.0447793 -0.00336272 -0.00522913 543.902 543.902 1001.29 
83 1 1 0.0265964 0.0900001 0.00994474 0 0 0 0.0456386 -0.0123187 0.0115057 -0.00196436 0.0223566 0.0156826 0.0456386 -0.0123187 0.0115057 665.481 665.481 1001.58 
84 1 1 0.0698302 0.090029 0.00997935 0 0 0 0.0609059 -5.33273e-05 -0.00747072 0.000771936 -0.0107825 -0.00967501 0.0609059 -5.33273e-05 -0.00747072 402.343 402.343 1000.96 
85 1 1 0.0742429 0.0900102 0.00996144 0 0 0 0.0596776 -0.00484627 -0.00566109 9.5066e-05 0.00797724 0.00827222 0.0596776 -0.00484627 -0.00566109 421.361 421.361 1001 
86 1 1 0.0955824 0.0900212 0.00997797 0 0 0 0.0732166 0.00611995 0.00323177 -0.00112998 -0.00349879 -0.00565241 0.0732166 0.00611995 0.00323177 431.434 431.434 1001.02 
87 1 1 0.110268 0.0900084 0.00996428 0 0 0 0.0624163 0.000215254 0.00180833 -0.000439567 0.0106609 0.00938599 0.0624163 0.000215254 0.00180833 436.651 436.651 1001.04 
88 1 1 0.119403 0.0900082 0.00996589 0 0 0 0.0869742 0.00229863 0.00373918 0.000215452 0.0102818 0.00741962 0.0869742 0.00229863 0.00373918 437.609 437.609 1001.04 
89 1 1 0.12946 0.090025 0.0099819 0 0 0 0.0572999 0.00129808 -0.00137334 -4.90881e-05 -0.00658615 -0.00708477 0.0572999 0.00129808 -0.00137334 420.898 420.898 1001 
90 1 1 0.143864 0.0900137 0.00996978 0 0 0 0.0540804 -0.00593368 -0.00455917 -0.000945224 0.00499348 0.00630484 0.0540804 -0.00593368 -0.00455917 455.013 455.013 1001.08 
91 1 1 0.00999918 0.00999074 0.00998251 0 0 0 0.00471572 -0.0102785 0.00691515 -0.00631989 -0.00363889 -0.00478125 0.00471572 -0.0102785 0.00691515 390.041 390.041 1000.93 
92 1 1 0.0231311 0.00998169 0.00998245 0 0 0 0.0644589 -0.00675456 0.00990604 -0.00252405 0.00588379 -0.00723685 0.0644589 -0.00675456 0.00990604 319.987 319.987 1000.76 
93 1 1 0.0386011 0.00997303 0.00998692 0 0 0 0.0558242 -0.0083273 0.00281014 -0.00177819 0.0123073 -0.0124558 0.0558242 -0.0083273 0.00281014 345.665 345.665 1000.82 
94 1 1 0.0494726 0.00998204 0.00997284 0 0 0 0.077182 0.0083067 -0.014118 -0.00432847 0.00232857 0.00119577 0.077182 0.0083067 -0.014118 359.478 359.478 1000.85 
95 1 1 0.0787069 0.00999304 0.00996755 0 0 0 0.128833 0.0148556 -0.00204261 0.00018972 -0.00804302 0.00523451 0.128833 0.0148556 -0.00204261 405.836 405.836 1000.96 
96 1 1 0.103358 0.00998543 0.00997186 0 0 0 0.0576426 -0.00563088 0.0167353 -0.0050039 -0.0024971 0.00110256 0.0576426 -0.00563088 0.0167353 430.054 430.054 1001.02 
97 1 1 0.112888 0.00997944 0.00996983 0 0 0 0.0773685 0.0177351 -0.00708397 -0.00275298 0.00174031 0.00222545 0.0773685 0.0177351 -0.00708397 459.089 459.089 1001.09 
98 1 1 0.122884 0.00997691 0.00997217 0 0 0 0.0726836 -0.00430768 0.00899976 -0.00182037 0.00225509 0.000281994 0.0726836 -0.00430768 0.00899976 505.266 505.266 1001.2 
99 1 1 0.131937 0.00998307 0.00996609 0 0 0 0.0700165 0.000369902 0.00162351 0.000803805 -0.00299384 0.00747048 0.0700165 0.000369902 0.00162351 493.563 493.563 1001.17 
100 1 1 0.136881 0.00997419 0.00997747 0 0 0 0.0799891 -0.00364722 0.0018722 0.000371647 0.00599168 -0.0035208 0.0799891 -0.00364722 0.0018722 494.129 494.129 1001.17 
101 1 1 0.00998992 0.0208244 0.0212958 0 0 0 -0.000996556 0.0235066 -0.00774347 -0.00233707 -0.000346796 0.00295892 -0.000996556 0.0235066 -0.00774347 364.563 364.563 1000.87 
102 1 1 0.00998874 0.0237361 0.00997757 0 0 0 0.008849 -0.00355565 -0.005475 0.00120799 -0.00266273 -0.00303901 0.008849 -0.00355565 -0.005475 383.612 383.612 1000.91 
103 1 1 0.0224775 0.0244811 0.0192347 0 0 0 0.0362443 -0.00284686 -0.0336558 -0.00325051 -0.00443241 0.00198447 0.0362443 -0.00284686 -0.0336558 376.612 376.612 1000.89 
104 1 1 0.0596959 0.021625 0.0346546 0 0 0 0.0519022 -0.0179242 0.0042288 -7.61216e-05 -0.000683756 0.000768362 0.0519022 -0.0179242 0.0042288 240.515 240.515 1000.57 
105 1 1 0.0863482 0.0359308 0.0564722 0 0 0 0.0698942 -0.00630508 -0.0279935 2.6017e-05 -0.000445513 -0.00173547 0.0698942 -0.00630508 -0.0279935 140.03 140.03 1000.33 
106 1 1 0.130433 0.0230441 0.00996991 0 0 0 0.0915824 0.00116922 0.00147721 -0.000583288 0.00118641 0.00167794 0.0915824 0.00116922 0.00147721 494.707 494.707 1001.17 
107 1 1 0.106794 0.0219466 0.0314098 0 0 0 -0.0109451 -0.00725746 0.00717595 -0.00167737 0.00156402 -0.000351898 -0.0109451 -0.00725746 0.00717595 377.543 377.543 1000.9 
108 1 1 0.140529 0.0352684 0.0099713 0 0 0 0.051455 -0.0209455 0.000880706 -0.000538159 0.00137951 0.00140122 0.051455 -0.0209455 0.000880706 467.203 467.203 1001.11 
109 1 1 0.133517 0.0217798 0.0234811 0 0 0 -0.0425564 0.0318638 0.0173072 -3.54936e-05 0.0018864 0.000949587 -0.0425564 0.0318638 0.0173072 430.38 430.38 1001.02 
110 1 1 0.173154 0.0232222 0.00997546 0 0 0 0.0509427 -0.0082116 -0.000539403 -0.000244674 -0.000473387 -6.02524e-05 0.0509427 -0.0082116 -0.000539403 472.848 472.848 1001.12 
111 1 1 0.00998823 0.0339811 0.00998053 0 0 0 -0.00205555 0.00405359 -0.00522375 0.00167798 -0.00121747 -0.00544683 -0.00205555 0.00405359 -0.00522375 381.925 381.925 1000.91 
112 1 1 0.0222503 0.0230521 0.0480752 0 0 0 0.0516485 0.0330913 -0.0547927 -0.00207016 -0.0026021 -0.00316501 0.0516485 0.0330913 -0.0547927 84.9205 84.9205 1000.2 
113 1 1 0.0473284 0.0318654 0.00996339 0 0 0 0.0539354 0.0188251 -0.00842434 -0.00165242 0.000170857 0.00483762 0.0539354 0.0188251 -0.00842434 491.486 491.486 1001.17 
114 1 1 0.0509849 0.0226011 0.00997024 0 0 0 0.066323 -0.0197658 -0.0065453 -0.0031092 0.00115338 -0.00144602 0.066323 -0.0197658 -0.0065453 463.135 463.135 1001.1 
115 1 1 0.0502449 0.0221772 0.0350848 0 0 0 0.0111676 0.00332353 0.0135338 -0.000811285 -0.00321117 0.00140882 0.0111676 0.00332353 0.0135338 227.524 227.524 1000.54 
116 1 1 0.0994181 0.0364985 0.00998359 0 0 0 0.103053 -0.00039091 0.00457251 -0.00426505 0.000671844 -0.0121032 0.103053 -0.00039091 0.00457251 330.314 330.314 1000.78 
117 1 1 0.113592 0.0249537 0.0226703 0 0 0 -0.0158418 -0.0126287 0.00991403 -0.0024158 0.00109476 2.22282e-05 -0.0158418 -0.0126287 0.00991403 381.134 381.134 1000.91 
118 1 1 0.126504 0.0225772 0.021456 0 0 0 -0.0150051 0.00651077 0.0267745 0.00022218 0.00253854 0.00106827 -0.0150051 0.00651077 0.0267745 416.582 416.582 1000.99 
119 1 1 0.148518 0.0230444 0.00997217 0 0 0 0.0837843 0.00597316 -0.000605282 0.00091585 0.00060132 0.000906467 0.0837843 0.00597316 -0.000605282 476.847 476.847 1001.13 
120 1 1 0.132052 0.0213431 0.037897 0 0 0 -0.00819385 0.0135862 0.0238696 0.000296512 0.00210878 0.00150819 -0.00819385 0.0135862 0.0238696 307.782 307.782 1000.73 
121 1 1 0.00998572 0.0427324 0.0099764 0 0 0 0.00116705 0.019196 -0.00944709 0.00274205 -0.0020156 -0.00343669 0.00116705 0.019196 -0.00944709 417.169 417.169 1000.99 
122 1 1 0.0240464 0.0358418 0.0099694 0 0 0 -0.0374201 -0.0367545 -0.00994755 -0.00458739 -0.00576435 0.000207402 -0.0374201 -0.0367545 -0.00994755 257.726 257.726 1000.61 
123 1 1 0.0228432 0.028782 0.00997347 0 0 0 -0.0104367 -0.0582335 -0.0102122 -0.00166017 -4.37108e-06 -0.00436438 -0.0104367 -0.0582335 -0.0102122 337.242 337.242 1000.8 
124 1 1 0.076456 0.0288336 0.00997536 0 0 0 0.0740299 0.0216184 0.0040173 0.000675572 0.000530224 -0.00391653 0.0740299 0.0216184 0.0040173 383.189 383.189 1000.91 
125 1 1 0.0853364 0.0368433 0.00998297 0 0 0 0.0785197 0.00408791 0.00368947 0.00317077 0.000541907 -0.0118425 0.0785197 0.00408791 0.00368947 347.003 347.003 1000.82 
126 1 1 0.12278 0.0301529 0.00997143 0 0 0 0.0753012 -0.00995188 0.00393472 -0.00191963 0.000914143 0.000872281 0.0753012 -0.00995188 0.00393472 442.777 442.777 1001.05 
127 1 1 0.15825 0.035419 0.00997274 0 0 0 0.0768558 0.0183769 -0.000159919 0.000392853 0.000612119 0.000830086 0.0768558 0.0183769 -0.000159919 464.413 464.413 1001.1 
128 1 1 0.139514 0.0432672 0.00997154 0 0 0 0.0990599 -0.0114335 0.00123984 0.000331835 0.000295105 0.00115053 0.0990599 -0.0114335 0.00123984 445.546 445.546 1001.06 
129 1 1 0.136821 0.0224211 0.00996895 0 0 0 0.0713022 -0.00171115 9.73854e-06 -0.000481225 0.000881711 0.0028436 0.0713022 -0.00171115 9.73854e-06 503.368 503.368 1001.19 
130 1 1 0.177545 0.0336695 0.00997506 0 0 0 0.0378335 -0.0216821 -4.62031e-05 0.000410266 -0.000236536 0.000250549 0.0378335 -0.0216821 -4.62031e-05 472.611 472.611 1001.12 
131 1 1 0.00998562 0.0480211 0.0099776 0 0 0 -0.00653942 -0.00251731 -0.000680156 0.00259234 -0.00167153 -0.00511922 -0.00653942 -0.00251731 -0.000680156 426.581 426.581 1001.01 
132 1 1 0.0305923 0.0438202 0.00995447 0 0 0 0.0200718 -0.0603497 -0.00492694 -0.0127613 -0.0190657 0.00897712 0.0200718 -0.0603497 -0.00492694 439.403 439.403 1001.04 
133 1 1 0.0443067 0.049951 0.00995078 0 0 0 0.0406623 -0.00243148 -0.00812422 0.0205977 -0.00296911 0.00942362 0.0406623 -0.00243148 -0.00812422 416.565 416.565 1000.99 
134 1 1 0.0827501 0.050539 0.00998638 0 0 0 0.0615667 0.0153951 0.00623381 0.00222878 0.000293903 -0.0150106 0.0615667 0.0153951 0.00623381 358.831 358.831 1000.85 
135 1 1 0.121958 0.0507211 0.00997139 0 0 0 0.0629897 -0.00868912 0.00476781 -0.000805504 0.000421426 1.42935e-05 0.0629897 -0.00868912 0.00476781 437.185 437.185 1001.04 
136 1 1 0.0843264 0.0507348 0.0220195 0 0 0 0.0223179 0.023165 -0.0120087 -0.00308319 -0.00103584 -0.00236765 0.0223179 0.023165 -0.0120087 377.767 377.767 1000.9 
137 1 1 0.113369 0.0517775 0.0214543 0 0 0 0.00319801 -0.0195801 0.0171954 -0.00174829 -0.000486397 0.00135193 0.00319801 -0.0195801 0.0171954 373.358 373.358 1000.89 
138 1 1 0.14394 0.0505688 0.00997172 0 0 0 0.0685128 0.0114391 0.000866722 0.00084262 -0.00092285 0.00112525 0.0685128 0.0114391 0.000866722 452.427 452.427 1001.07 
139 1 1 0.150397 0.0440841 0.00997214 0 0 0 0.0375868 -0.0202027 0.00030737 -0.000404502 0.00107671 0.00113979 0.0375868 -0.0202027 0.00030737 457.484 457.484 1001.09 
140 1 1 0.156105 0.0510829 0.0219172 0 0 0 -0.00565985 0.0175749 0.0184131 0.00178425 0.000972158 0.000430638 -0.00565985 0.0175749 0.0184131 342.57 342.57 1000.81 
141 1 1 0.00998455 0.0574271 0.00997554 0 0 0 0.00153227 0.000734427 -0.00425801 0.00178462 -0.0035924 -0.00356713 0.00153227 0.000734427 -0.00425801 406.932 406.932 1000.97 
142 1 1 0.0252568 0.0623833 0.00996377 0 0 0 0.0108794 -0.0312825 -0.00600813 -0.0137773 -0.00647366 -0.00383442 0.0108794 -0.0312825 -0.00600813 530.19 530.19 1001.26 
143 1 1 0.023301 0.0680143 0.00996549 0 0 0 0.0031491 -0.0201447 -0.00449783 -0.0151827 -0.00282257 -0.00801966 0.0031491 -0.0201447 -0.00449783 625.033 625.033 1001.48 
144 1 1 0.0776379 0.0708817 0.00997186 0 0 0 0.0732208 0.0135908 0.00218573 -0.000378396 -0.00211067 -0.00141174 0.0732208 0.0135908 0.00218573 405.245 405.245 1000.96 
145 1 1 0.0893006 0.0642154 0.00997585 0 0 0 0.08421 0.0136176 0.00395514 0.00113956 -0.00486299 -0.00748449 0.08421 0.0136176 0.00395514 399.183 399.183 1000.95 
146 1 1 0.124804 0.0695132 0.00997186 0 0 0 0.05835 7.23276e-05 0.00194481 -0.000976852 0.00054028 -0.000414303 0.05835 7.23276e-05 0.00194481 446.586 446.586 1001.06 
147 1 1 0.154565 0.0558287 0.00997301 0 0 0 0.0614988 0.008033 0.000328027 -0.000492731 0.0012303 0.000894552 0.0614988 0.008033 0.000328027 445.168 445.168 1001.06 
148 1 1 0.142388 0.0557171 0.009972 0 0 0 0.0430222 -0.0141124 0.000840165 -0.000541771 0.00160527 0.000987189 0.0430222 -0.0141124 0.000840165 458.919 458.919 1001.09 
149 1 1 0.13695 0.0769904 0.00997304 0 0 0 0.0804323 -0.00107642 0.000214378 -0.000479542 0.000809172 0.000451406 0.0804323 -0.00107642 0.000214378 458.322 458.322 1001.09 
150 1 1 0.177944 0.0681879 0.00997482 0 0 0 0.0494726 -0.000594135 0.000332388 -0.000213633 9.53905e-05 0.00038686 0.0494726 -0.000594135 0.000332388 470.875 470.875 1001.12 
151 1 1 0.00999122 0.0663973 0.00997198 0 0 0 -0.00313634 -0.0200782 0.00428548 -0.00728325 -0.00384127 -0.000814704 -0.00313634 -0.0200782 0.00428548 484.36 484.36 1001.15 
152 1 1 0.0209231 0.0774312 0.0352193 0 0 0 0.0116989 -0.0218107 -0.101125 -0.00111771 -0.00143952 0.00652157 0.0116989 -0.0218107 -0.101125 273.236 273.236 1000.65 
153 1 1 0.0512093 0.0709757 0.00996485 0 0 0 0.101725 0.0384925 -0.00505963 0.00639654 -0.00397236 -0.00202898 0.101725 0.0384925 -0.00505963 439.753 439.753 1001.04 
154 1 1 0.0531282 0.0771228 0.00996626 0 0 0 0.0705499 0.0107507 -0.00251108 0.00246575 0.000199057 -0.00175788 0.0705499 0.0107507 -0.00251108 476.985 476.985 1001.13 
155 1 1 0.046561 0.0752666 0.0410877 0 0 0 0.0335183 -0.0336581 -0.0231046 0.00099966 0.000706322 -4.67748e-06 0.0335183 -0.0336581 -0.0231046 329.087 329.087 1000.78 
156 1 1 0.102235 0.0654562 0.0099739 0 0 0 0.0652477 -0.00352357 0.00355233 -0.00224997 -0.00340853 -0.00344049 0.0652477 -0.00352357 0.00355233 438.75 438.75 1001.04 
157 1 1 0.1126 0.0761111 0.0212272 0 0 0 0.0189551 -0.00512581 0.00791466 4.30319e-05 0.000353538 0.0014805 0.0189551 -0.00512581 0.00791466 408.152 408.152 1000.97 
158 1 1 0.127892 0.0782395 0.0230361 0 0 0 -0.00653134 -0.0278701 0.00499048 0.000601289 0.000958593 0.000587575 -0.00653134 -0.0278701 0.00499048 381.889 381.889 1000.91 
159 1 1 0.148767 0.0770447 0.00997439 0 0 0 0.0704054 -0.0154307 0.000564258 0.000550595 2.81223e-05 -0.000531682 0.0704054 -0.0154307 0.000564258 449.633 449.633 1001.07 
160 1 1 0.129913 0.0788102 0.0383323 0 0 0 -0.00947111 0.0139987 0.0352131 0.000978673 -6.54965e-05 0.00132166 -0.00947111 0.0139987 0.0352131 239.408 239.408 1000.57 
161 1 1 0.00998597 0.0784842 0.0216327 0 0 0 -0.00144912 0.0069797 -0.029943 -0.00665385 -0.00641878 0.00362387 -0.00144912 0.0069797 -0.029943 534.969 534.969 1001.27 
162 1 1 0.00999694 0.0760912 0.00997626 0 0 0 0.00218255 -0.00713555 -0.00458691 -0.0115331 -0.00424593 -0.00706372 0.00218255 -0.00713555 -0.00458691 520.445 520.445 1001.23 
163 1 1 0.0221934 0.0789355 0.021712 0 0 0 0.0448715 0.0540467 -0.183858 -0.0105184 0.00314194 0.00692683 0.0448715 0.0540467 -0.183858 713.007 713.007 1001.69 
164 1 1 0.0583334 0.0713523 0.0578356 0 0 0 0.0356549 -0.0200126 -0.042393 0.00038389 -0.000818112 -0.00124295 0.0356549 -0.0200126 -0.042393 133.709 133.709 1000.32 
165 1 1 0.0882697 0.0665843 0.0507481 0 0 0 0.0191644 -0.016768 -0.0273128 0.000441172 -0.00022151 8.45517e-05 0.0191644 -0.016768 -0.0273128 167.517 167.517 1000.4 
166 1 1 0.13107 0.0779114 0.00997321 0 0 0 0.0919012 0.00247933 0.000392737 -0.000264232 0.00043794 -0.000489776 0.0919012 0.00247933 0.000392737 443.91 443.91 1001.05 
167 1 1 0.109195 0.0783458 0.0356075 0 0 0 0.0188504 0.011062 0.035407 0.000532174 -0.000584498 0.00130095 0.0188504 0.011062 0.035407 300.68 300.68 1000.71 
168 1 1 0.142438 0.063363 0.00997218 0 0 0 0.0670838 -0.0219625 0.00072695 -2.34547e-05 0.000824233 0.000913795 0.0670838 -0.0219625 0.00072695 441.952 441.952 1001.05 
169 1 1 0.137299 0.0773174 0.0228402 0 0 0 -0.00725524 -0.00190124 0.0228276 0.000217357 0.00061791 -0.000122489 -0.00725524 -0.00190124 0.0228276 376.127 376.127 1000.89 
170 1 1 0.171952 0.0783646 0.00997521 0 0 0 0.0594161 0.000276111 -0.00034659 -6.12623e-05 0.000286905 0.00010628 0.0594161 0.000276111 -0.00034659 459.513 459.513 1001.09 
171 1 1 0.00997194 0.090032 0.00996378 0 0 0 0.00597089 -0.0200038 -0.0184028 0.0139027 -0.0143268 0.00310344 0.00597089 -0.0200038 -0.0184028 695.275 695.275 1001.65 
172 1 1 0.0224394 0.0900127 0.00995152 0 0 0 0.00504841 0.00692052 0.00809985 -0.00160532 0.00645132 0.00953857 0.00504841 0.00692052 0.00809985 582.504 582.504 1001.38 
173 1 1 0.0387689 0.0900185 0.00996557 0 0 0 0.0453514 0.01174 0.00924504 0.0044917 0.00600346 -0.00113597 0.0453514 0.01174 0.00924504 498.796 498.796 1001.18 
174 1 1 0.0485197 0.0900253 0.00997129 0 0 0 0.0433189 -0.000162946 -0.00599323 0.00292524 -0.00445451 -0.00311242 0.0433189 -0.000162946 -0.00599323 434.733 434.733 1001.03 
175 1 1 0.0793549 0.0900239 0.00997561 0 0 0 0.0957601 0.00354912 -0.00156938 0.000184258 -0.00563364 -0.00642846 0.0957601 0.00354912 -0.00156938 410.759 410.759 1000.98 
176 1 1 0.104935 0.0900286 0.00998514 0 0 0 0.0689509 0.00443723 -5.08493e-05 0.000431607 -0.0102417 -0.0119285 0.0689509 0.00443723 -5.08493e-05 428.353 428.353 1001.02 
177 1 1 0.114681 0.0900283 0.009983 0 0 0 0.0546209 -0.00662697 -0.0100568 3.47181e-05 -0.0100556 -0.00962675 0.0546209 -0.00662697 -0.0100568 416.746 416.746 1000.99 