ITEM: TIMESTEP
35000
ITEM: NUMBER OF ATOMS
2655
ITEM: BOX BOUNDS ff ff ff
0 0.5
0 0.1
0 0.5
ITEM: ATOMS id type type x y z ix iy iz vx vy vz fx fy fz vx vy vz p p rho 
1 1 1 0.0099851 0.00998051 0.0100022 0 0 0 -0.0264133 0.00340548 -0.00276682 0.0152518 0.00369486 -0.0496217 -0.0264133 0.00340548 -0.00276682 564.085 564.085 1001.34 
2 1 1 0.0339859 0.0100433 0.00997063 0 0 0 0.0640944 0.0202583 -0.00595596 0.0011415 -0.00927489 0.0130873 0.0640944 0.0202583 -0.00595596 199.776 199.776 1000.47 
3 1 1 0.0279882 0.00998953 0.00998671 0 0 0 0.0237953 -0.0132424 -0.0269802 0.00573773 0.00516351 -0.0034854 0.0237953 -0.0132424 -0.0269802 43.9957 43.9957 1000.1 
4 1 1 0.0658993 0.00998837 0.00997258 0 0 0 0.103529 -0.0252832 0.016992 -0.0122316 0.00221362 0.00362135 0.103529 -0.0252832 0.016992 406.476 406.476 1000.97 
5 1 1 0.0721313 0.00997234 0.00999727 0 0 0 0.148701 0.00559053 0.0152471 -0.00766543 0.0130835 -0.0214235 0.148701 0.00559053 0.0152471 626.06 626.06 1001.48 
6 1 1 0.0965473 0.00999314 0.0100235 0 0 0 0.104311 -0.0423059 -0.0245297 -0.00089996 -0.00421205 -0.0310896 0.104311 -0.0423059 -0.0245297 333.937 333.937 1000.79 
7 1 1 0.113697 0.00999674 0.00999615 0 0 0 0.0772721 0.00624175 -0.0201165 -0.0033118 -0.00810159 -0.0156782 0.0772721 0.00624175 -0.0201165 331.343 331.343 1000.79 
8 1 1 0.125243 0.00998492 0.0099938 0 0 0 0.0812577 0.00598442 -0.0103045 -0.00766399 0.000228908 -0.0159134 0.0812577 0.00598442 -0.0103045 402.049 402.049 1000.95 
9 1 1 0.136422 0.00998004 0.00998404 0 0 0 0.00952351 0.0156584 0.016815 -0.00282762 0.00625798 -0.00835019 0.00952351 0.0156584 0.016815 528.226 528.226 1001.25 
10 1 1 0.152647 0.0100042 0.00999376 0 0 0 0.0921207 -0.00103384 -0.012304 0.00105877 -0.0236215 -0.0186185 0.0921207 -0.00103384 -0.012304 432.288 432.288 1001.03 
11 1 1 0.00998553 0.0210995 0.0099858 0 0 0 -0.00559021 0.0611639 0.00608284 0.0153547 -0.00561637 -0.0188062 -0.00559021 0.0611639 0.00608284 575.869 575.869 1001.37 
12 1 1 0.0243196 0.0236224 0.00998346 0 0 0 0.0607099 0.00811814 -0.00561405 0.00418804 -0.00406633 -0.00465415 0.0607099 0.00811814 -0.00561405 324.028 324.028 1000.77 
13 1 1 0.0386766 0.0214252 0.0100015 0 0 0 -0.105078 -0.0344425 0.013871 -0.001519 -0.0027067 -0.0128719 -0.105078 -0.0344425 0.013871 -140.438 -140.438 999.665 
14 1 1 0.0765618 0.0222987 0.00998431 0 0 0 0.188379 0.00654289 0.00561737 0.00252264 0.00437485 -0.0103054 0.188379 0.00654289 0.00561737 477.571 477.571 1001.13 
15 1 1 0.0760286 0.0216326 0.00998679 0 0 0 0.0450671 -0.00688926 0.00273946 1.8686e-05 0.00347048 -0.0126152 0.0450671 -0.00688926 0.00273946 478.446 478.446 1001.14 
16 1 1 0.0951932 0.022619 0.00997328 0 0 0 0.129887 0.0846282 -0.00183514 5.43151e-05 -0.00795772 0.00298769 0.129887 0.0846282 -0.00183514 480.118 480.118 1001.14 
17 1 1 0.10165 0.0301893 0.0099792 0 0 0 0.0612984 0.0302101 -0.00092057 0.00174222 -0.0113427 -0.00470298 0.0612984 0.0302101 -0.00092057 522.707 522.707 1001.24 
18 1 1 0.115536 0.0258398 0.0099766 0 0 0 0.0795247 0.0445305 -0.00295845 -0.000163803 -0.00775867 -0.000398213 0.0795247 0.0445305 -0.00295845 380.941 380.941 1000.9 
19 1 1 0.124024 0.0206279 0.00997428 0 0 0 0.0328305 -0.059347 0.000911866 -0.00736235 -0.00192344 0.00273304 0.0328305 -0.059347 0.000911866 417.752 417.752 1000.99 
20 1 1 0.152644 0.0248733 0.00996532 0 0 0 0.155987 -0.0417466 -0.000368731 0.000643639 -0.00426965 0.00649037 0.155987 -0.0417466 -0.000368731 345.489 345.489 1000.82 
21 1 1 0.00998411 0.0241268 0.00997647 0 0 0 -0.0304043 -0.0137939 0.00130878 0.0165437 -0.00488954 -0.00828905 -0.0304043 -0.0137939 0.00130878 541.933 541.933 1001.29 
22 1 1 0.0297151 0.0351088 0.00997542 0 0 0 0.0761547 0.00911125 0.00331682 -0.000875258 -0.00876716 -0.000830114 0.0761547 0.00911125 0.00331682 443.225 443.225 1001.05 
23 1 1 0.0509552 0.0364024 0.00998322 0 0 0 0.0869066 0.006236 -0.0260541 -0.00551682 -0.0112332 -0.00620555 0.0869066 0.006236 -0.0260541 257.022 257.022 1000.61 
24 1 1 0.0766139 0.0340326 0.00998287 0 0 0 0.0801008 -0.014144 -0.00182146 -0.000670533 -0.00241966 -0.0103363 0.0801008 -0.014144 -0.00182146 448.254 448.254 1001.06 
25 1 1 0.0876894 0.0304316 0.00997532 0 0 0 0.120054 -0.017429 0.015913 -0.00259522 -0.00327636 -0.00360568 0.120054 -0.017429 0.015913 576.185 576.185 1001.37 
26 1 1 0.104322 0.0221857 0.00998666 0 0 0 0.21227 0.0181955 -0.00841045 0.000723338 -0.00681743 -0.00796316 0.21227 0.0181955 -0.00841045 293.937 293.937 1000.7 
27 1 1 0.118355 0.0325834 0.00997261 0 0 0 0.175664 0.0332015 -0.00694681 -0.000116291 -0.005832 0.00168221 0.175664 0.0332015 -0.00694681 437.013 437.013 1001.04 
28 1 1 0.111497 0.0218604 0.00998323 0 0 0 0.077441 0.0885892 -0.00907686 -0.00115291 -0.00649657 -0.00512446 0.077441 0.0885892 -0.00907686 297.058 297.058 1000.71 
29 1 1 0.135236 0.0260464 0.00997429 0 0 0 0.138539 -0.0816569 0.00111756 0.0020024 -0.00218487 0.000408308 0.138539 -0.0816569 0.00111756 379.418 379.418 1000.9 
30 1 1 0.145573 0.033 0.00996159 0 0 0 0.0499025 0.0505631 -0.00548962 -0.001313 -0.00104119 0.011424 0.0499025 0.0505631 -0.00548962 366.816 366.816 1000.87 
31 1 1 0.00999984 0.0359581 0.00996283 0 0 0 0.0209055 -0.0438264 -0.0128815 -5.62712e-05 -0.00355555 0.00174066 0.0209055 -0.0438264 -0.0128815 687.471 687.471 1001.63 
32 1 1 0.0249026 0.042951 0.00997463 0 0 0 0.0335829 -0.0464132 -0.0122898 0.000270803 -0.00960477 -0.000560481 0.0335829 -0.0464132 -0.0122898 392.271 392.271 1000.93 
33 1 1 0.0512171 0.0415933 0.00998827 0 0 0 0.0704421 -0.00702325 -0.0106178 -0.00370892 -0.00658322 -0.0126453 0.0704421 -0.00702325 -0.0106178 343.468 343.468 1000.82 
34 1 1 0.0646825 0.0407038 0.00997259 0 0 0 0.0566351 -0.0592325 0.00151833 -0.0037327 -0.0042074 -8.11963e-05 0.0566351 -0.0592325 0.00151833 380.222 380.222 1000.9 
35 1 1 0.0739598 0.0380644 0.00998249 0 0 0 0.0372282 -0.044436 -0.00814796 -0.00416117 -0.000478476 -0.00883189 0.0372282 -0.044436 -0.00814796 398.916 398.916 1000.95 
36 1 1 0.0912217 0.0414337 0.00998069 0 0 0 0.0550885 0.0403973 0.000522974 -0.00375921 -0.0044061 -0.00797821 0.0550885 0.0403973 0.000522974 452.17 452.17 1001.07 
37 1 1 0.11853 0.0407335 0.00996511 0 0 0 0.132235 0.0331746 -0.00431696 -0.00106998 -0.0032222 0.00425082 0.132235 0.0331746 -0.00431696 481.447 481.447 1001.14 
38 1 1 0.127049 0.0335889 0.00996672 0 0 0 0.0880085 -0.0183826 0.00709582 -0.000114755 -0.00314386 0.00755252 0.0880085 -0.0183826 0.00709582 455.546 455.546 1001.08 
39 1 1 0.129036 0.0454406 0.0099683 0 0 0 0.0944014 0.01385 0.0161249 0.00663291 0.00201674 0.00263416 0.0944014 0.01385 0.0161249 400.481 400.481 1000.95 
40 1 1 0.147463 0.0401341 0.00996995 0 0 0 0.123719 -0.0454853 -0.00294331 -0.0010792 0.00466391 0.00168638 0.123719 -0.0454853 -0.00294331 378.595 378.595 1000.9 
41 1 1 0.00998882 0.05 0.00996778 0 0 0 -0.0036286 5.75109e-10 -0.0241515 0.00578351 9.32674e-09 -0.00197137 -0.0036286 5.75109e-10 -0.0241515 711.675 711.675 1001.69 
42 1 1 0.0431473 0.05 0.00999082 0 0 0 0.106847 8.86379e-10 0.00451428 -0.00300616 9.51131e-10 -0.0131706 0.106847 8.86379e-10 0.00451428 304.299 304.299 1000.72 
43 1 1 0.0502598 0.05 0.00999137 0 0 0 0.0925856 2.91826e-10 0.00179223 -0.00276872 1.29606e-09 -0.0149335 0.0925856 2.91826e-10 0.00179223 358.51 358.51 1000.85 
44 1 1 0.0714234 0.05 0.00998426 0 0 0 0.0956955 -7.15001e-10 0.00115328 -0.00155657 8.0265e-10 -0.0126097 0.0956955 -7.15001e-10 0.00115328 411.626 411.626 1000.98 
45 1 1 0.0858842 0.05 0.00997197 0 0 0 0.0510425 -2.27593e-09 9.56585e-05 -0.00163232 3.25402e-10 -0.000691999 0.0510425 -2.27593e-09 9.56585e-05 489.822 489.822 1001.16 
46 1 1 0.0945032 0.05 0.00997166 0 0 0 0.0818777 -3.59281e-09 0.00482612 -0.00280862 9.84722e-10 -0.000424262 0.0818777 -3.59281e-09 0.00482612 448.269 448.269 1001.06 
47 1 1 0.101415 0.05 0.00998137 0 0 0 0.0563114 -4.9025e-09 -0.00417776 -0.00281084 1.81893e-09 -0.00674734 0.0563114 -4.9025e-09 -0.00417776 462.418 462.418 1001.1 
48 1 1 0.109315 0.05 0.00997338 0 0 0 0.160225 -5.5419e-09 -0.00709623 -0.00104691 3.05743e-09 0.000468316 0.160225 -5.5419e-09 -0.00709623 467.313 467.313 1001.11 
49 1 1 0.11105 0.05 0.00996885 0 0 0 -0.035179 -5.77696e-09 -6.58053e-05 0.00396202 3.4623e-09 0.00329476 -0.035179 -5.77696e-09 -6.58053e-05 480.486 480.486 1001.14 
50 1 1 0.150217 0.05 0.00997072 0 0 0 0.0936221 2.31817e-08 0.00470089 0.00443305 2.69787e-08 7.44945e-05 0.0936221 2.31817e-08 0.00470089 280.206 280.206 1000.67 
51 1 1 0.00999984 0.0640419 0.00996283 0 0 0 0.0209054 0.0438264 -0.0128815 -5.6258e-05 0.00355555 0.0017407 0.0209054 0.0438264 -0.0128815 687.471 687.471 1001.63 
52 1 1 0.0249026 0.057049 0.00997463 0 0 0 0.0335829 0.0464132 -0.0122898 0.000270801 0.00960478 -0.000560467 0.0335829 0.0464132 -0.0122898 392.27 392.27 1000.93 
53 1 1 0.0512171 0.0584067 0.00998827 0 0 0 0.0704421 0.00702325 -0.0106178 -0.00370892 0.00658322 -0.0126453 0.0704421 0.00702325 -0.0106178 343.468 343.468 1000.82 
54 1 1 0.0646825 0.0592962 0.00997259 0 0 0 0.0566351 0.0592325 0.00151833 -0.0037327 0.0042074 -8.11928e-05 0.0566351 0.0592325 0.00151833 380.222 380.222 1000.9 
55 1 1 0.0739598 0.0619356 0.00998249 0 0 0 0.0372282 0.044436 -0.00814796 -0.00416117 0.000478477 -0.00883189 0.0372282 0.044436 -0.00814796 398.916 398.916 1000.95 
56 1 1 0.0912217 0.0585663 0.00998069 0 0 0 0.0550884 -0.0403973 0.000522975 -0.0037592 0.0044061 -0.00797821 0.0550884 -0.0403973 0.000522975 452.17 452.17 1001.07 
57 1 1 0.11853 0.0592665 0.00996511 0 0 0 0.132235 -0.0331746 -0.00431696 -0.00106997 0.00322221 0.00425081 0.132235 -0.0331746 -0.00431696 481.447 481.447 1001.14 
58 1 1 0.127049 0.0664111 0.00996672 0 0 0 0.0880085 0.0183826 0.00709582 -0.000114735 0.00314387 0.00755251 0.0880085 0.0183826 0.00709582 455.545 455.545 1001.08 
59 1 1 0.129036 0.0545594 0.0099683 0 0 0 0.0944014 -0.01385 0.0161249 0.00663291 -0.00201672 0.00263415 0.0944014 -0.01385 0.0161249 400.481 400.481 1000.95 
60 1 1 0.147463 0.0598659 0.00996995 0 0 0 0.123719 0.0454853 -0.00294333 -0.00107918 -0.00466386 0.00168636 0.123719 0.0454853 -0.00294333 378.594 378.594 1000.9 
61 1 1 0.00998411 0.0758732 0.00997647 0 0 0 -0.0304043 0.0137939 0.00130876 0.0165436 0.00488953 -0.008289 -0.0304043 0.0137939 0.00130876 541.933 541.933 1001.29 
62 1 1 0.0297151 0.0648912 0.00997542 0 0 0 0.0761547 -0.00911125 0.00331682 -0.000875263 0.00876716 -0.000830095 0.0761547 -0.00911125 0.00331682 443.224 443.224 1001.05 
63 1 1 0.0509552 0.0635976 0.00998322 0 0 0 0.0869066 -0.006236 -0.0260541 -0.00551682 0.0112332 -0.00620555 0.0869066 -0.006236 -0.0260541 257.022 257.022 1000.61 
64 1 1 0.0766139 0.0659674 0.00998287 0 0 0 0.0801008 0.014144 -0.00182147 -0.000670532 0.00241966 -0.0103363 0.0801008 0.014144 -0.00182147 448.254 448.254 1001.06 
65 1 1 0.0876894 0.0695684 0.00997532 0 0 0 0.120054 0.017429 0.0159131 -0.00259521 0.00327636 -0.00360566 0.120054 0.017429 0.0159131 576.185 576.185 1001.37 
66 1 1 0.104322 0.0778143 0.00998666 0 0 0 0.21227 -0.0181955 -0.00841045 0.000723339 0.00681743 -0.00796316 0.21227 -0.0181955 -0.00841045 293.937 293.937 1000.7 
67 1 1 0.118355 0.0674166 0.00997261 0 0 0 0.175664 -0.0332015 -0.00694681 -0.000116279 0.00583201 0.0016822 0.175664 -0.0332015 -0.00694681 437.013 437.013 1001.04 
68 1 1 0.111497 0.0781396 0.00998323 0 0 0 0.077441 -0.0885892 -0.00907685 -0.0011529 0.00649656 -0.00512446 0.077441 -0.0885892 -0.00907685 297.058 297.058 1000.71 
69 1 1 0.135236 0.0739536 0.00997429 0 0 0 0.13854 0.0816569 0.00111755 0.00200243 0.00218488 0.000408286 0.13854 0.0816569 0.00111755 379.417 379.417 1000.9 
70 1 1 0.145573 0.067 0.00996159 0 0 0 0.0499025 -0.0505631 -0.00548965 -0.00131298 0.00104123 0.011424 0.0499025 -0.0505631 -0.00548965 366.815 366.815 1000.87 
71 1 1 0.00998553 0.0789005 0.0099858 0 0 0 -0.00559019 -0.0611638 0.00608282 0.0153547 0.00561636 -0.0188062 -0.00559019 -0.0611638 0.00608282 575.869 575.869 1001.37 
72 1 1 0.0243196 0.0763776 0.00998346 0 0 0 0.0607099 -0.00811813 -0.00561406 0.00418804 0.00406632 -0.00465413 0.0607099 -0.00811813 -0.00561406 324.028 324.028 1000.77 
73 1 1 0.0386766 0.0785748 0.0100015 0 0 0 -0.105078 0.0344425 0.0138709 -0.001519 0.0027067 -0.0128719 -0.105078 0.0344425 0.0138709 -140.438 -140.438 999.665 
74 1 1 0.0765618 0.0777013 0.00998431 0 0 0 0.188379 -0.00654289 0.00561737 0.00252265 -0.00437485 -0.0103053 0.188379 -0.00654289 0.00561737 477.57 477.57 1001.13 
75 1 1 0.0760286 0.0783674 0.00998679 0 0 0 0.0450671 0.00688926 0.00273945 1.86899e-05 -0.00347048 -0.0126152 0.0450671 0.00688926 0.00273945 478.446 478.446 1001.14 
76 1 1 0.0951932 0.077381 0.00997328 0 0 0 0.129887 -0.0846282 -0.00183514 5.43127e-05 0.00795772 0.0029877 0.129887 -0.0846282 -0.00183514 480.118 480.118 1001.14 
77 1 1 0.10165 0.0698107 0.0099792 0 0 0 0.0612984 -0.0302101 -0.000920567 0.00174223 0.0113427 -0.00470298 0.0612984 -0.0302101 -0.000920567 522.706 522.706 1001.24 
78 1 1 0.115536 0.0741602 0.0099766 0 0 0 0.0795247 -0.0445305 -0.00295844 -0.00016379 0.00775867 -0.000398216 0.0795247 -0.0445305 -0.00295844 380.941 380.941 1000.9 
79 1 1 0.124024 0.0793721 0.00997428 0 0 0 0.0328306 0.059347 0.000911876 -0.00736232 0.00192344 0.00273302 0.0328306 0.059347 0.000911876 417.752 417.752 1000.99 
80 1 1 0.152644 0.0751267 0.00996532 0 0 0 0.155987 0.0417466 -0.000368787 0.000643666 0.00426967 0.00649034 0.155987 0.0417466 -0.000368787 345.487 345.487 1000.82 
81 1 1 0.0099851 0.0900195 0.0100022 0 0 0 -0.0264132 -0.00340547 -0.00276686 0.0152518 -0.00369488 -0.0496217 -0.0264132 -0.00340547 -0.00276686 564.085 564.085 1001.34 
82 1 1 0.0339859 0.0899567 0.00997063 0 0 0 0.0640943 -0.0202583 -0.00595597 0.0011415 0.00927489 0.0130873 0.0640943 -0.0202583 -0.00595597 199.776 199.776 1000.47 
83 1 1 0.0279882 0.0900105 0.00998671 0 0 0 0.0237953 0.0132424 -0.0269802 0.00573773 -0.00516352 -0.00348541 0.0237953 0.0132424 -0.0269802 43.9957 43.9957 1000.1 
84 1 1 0.0658993 0.0900116 0.00997258 0 0 0 0.103529 0.0252832 0.016992 -0.0122316 -0.00221362 0.00362136 0.103529 0.0252832 0.016992 406.476 406.476 1000.97 
85 1 1 0.0721313 0.0900277 0.00999727 0 0 0 0.148701 -0.00559051 0.0152471 -0.00766542 -0.0130835 -0.0214235 0.148701 -0.00559051 0.0152471 626.06 626.06 1001.48 
86 1 1 0.0965473 0.0900069 0.0100235 0 0 0 0.104311 0.0423059 -0.0245298 -0.000899962 0.004212 -0.0310896 0.104311 0.0423059 -0.0245298 333.936 333.936 1000.79 
87 1 1 0.113697 0.0900033 0.00999615 0 0 0 0.0772721 -0.00624176 -0.0201165 -0.00331178 0.00810159 -0.0156782 0.0772721 -0.00624176 -0.0201165 331.343 331.343 1000.79 
88 1 1 0.125243 0.0900151 0.0099938 0 0 0 0.0812577 -0.00598443 -0.0103045 -0.00766395 -0.000228903 -0.0159134 0.0812577 -0.00598443 -0.0103045 402.049 402.049 1000.95 
89 1 1 0.136422 0.09002 0.00998404 0 0 0 0.00952357 -0.0156585 0.016815 -0.00282757 -0.00625792 -0.00835024 0.00952357 -0.0156585 0.016815 528.225 528.225 1001.25 
90 1 1 0.152647 0.0899958 0.00999376 0 0 0 0.0921208 0.00103383 -0.012304 0.0010588 0.0236214 -0.0186186 0.0921208 0.00103383 -0.012304 432.286 432.286 1001.03 
91 1 1 0.0100121 0.00997858 0.00999381 0 0 0 0.0142531 0.00550727 -0.0332685 -0.0151856 0.00563845 -0.0271449 0.0142531 0.00550727 -0.0332685 546.626 546.626 1001.3 
92 1 1 0.0226831 0.00999238 0.00994869 0 0 0 0.0386255 0.0113538 0.0400273 0.0100068 -0.000194795 0.0309883 0.0386255 0.0113538 0.0400273 335.724 335.724 1000.8 
93 1 1 0.0382624 0.0100578 0.0100171 0 0 0 0.0500889 0.00494242 0.00749551 -0.00072898 -0.00707444 -0.0213736 0.0500889 0.00494242 0.00749551 159.656 159.656 1000.38 
94 1 1 0.0525415 0.00999439 0.010006 0 0 0 0.0935542 -0.00888861 0.00702482 -0.00309746 -1.15588e-05 -0.0298305 0.0935542 -0.00888861 0.00702482 326.411 326.411 1000.78 
95 1 1 0.0791404 0.00997664 0.00997111 0 0 0 0.0645357 -0.00153388 -0.013455 4.04859e-05 0.00952573 0.00474326 0.0645357 -0.00153388 -0.013455 544.369 544.369 1001.29 
96 1 1 0.106684 0.0100192 0.00996339 0 0 0 0.128173 -0.0019688 -0.00749456 0.00298377 -0.0210793 0.0174369 0.128173 -0.0019688 -0.00749456 343.43 343.43 1000.82 
97 1 1 0.117383 0.00998385 0.00997501 0 0 0 -0.006573 -0.0257433 0.0199302 -0.00165872 0.00418687 0.00480846 -0.006573 -0.0257433 0.0199302 354.72 354.72 1000.84 
98 1 1 0.129676 0.00999262 0.00999375 0 0 0 0.0407514 0.0103679 -0.00233755 -0.00352224 -0.00779934 -0.0161957 0.0407514 0.0103679 -0.00233755 461.011 461.011 1001.09 
99 1 1 0.140888 0.00999645 0.00996347 0 0 0 0.126422 0.00975845 -0.0179427 0.00163075 -0.00793245 0.0111193 0.126422 0.00975845 -0.0179427 432.912 432.912 1001.03 
100 1 1 0.147609 0.00997388 0.00996347 0 0 0 -0.014981 -0.00393205 0.0152396 0.000614897 0.0157946 0.0100674 -0.014981 -0.00393205 0.0152396 506.152 506.152 1001.2 
101 1 1 0.00998879 0.0204568 0.0204284 0 0 0 0.0137508 -0.0100296 0.0259587 0.0133157 -0.000754566 -0.00261779 0.0137508 -0.0100296 0.0259587 560.526 560.526 1001.33 
102 1 1 0.0261305 0.0214696 0.00997517 0 0 0 -0.067214 0.00362519 -0.000125698 0.00768155 -0.00447409 0.00573638 -0.067214 0.00362519 -0.000125698 154.866 154.866 1000.37 
103 1 1 0.0553239 0.0230677 0.0232619 0 0 0 0.111105 0.0722172 0.0700038 -0.00552222 -0.00228656 -0.00869027 0.111105 0.0722172 0.0700038 92.861 92.861 1000.22 
104 1 1 0.07697 0.0219098 0.0212478 0 0 0 0.195553 -0.0421027 0.0371018 8.22079e-06 0.000686531 0.00240851 0.195553 -0.0421027 0.0371018 168.06 168.06 1000.4 
105 1 1 0.109621 0.0229413 0.0332152 0 0 0 0.198968 0.0156328 0.111083 0.00024806 -0.00582021 -0.00345288 0.198968 0.0156328 0.111083 275.486 275.486 1000.65 
106 1 1 0.124887 0.0203444 0.0234208 0 0 0 0.148409 -0.018346 -0.0251399 -0.00374426 -0.00198926 -0.00403811 0.148409 -0.018346 -0.0251399 336.31 336.31 1000.8 
107 1 1 0.146318 0.0203225 0.0233487 0 0 0 0.243338 -0.00533433 -0.0170569 -0.00235515 5.78721e-05 -0.000521584 0.243338 -0.00533433 -0.0170569 362.8 362.8 1000.86 
108 1 1 0.128418 0.0238948 0.00998512 0 0 0 0.0582508 -0.00812556 0.00131077 -0.00331878 -0.00269903 -0.00871991 0.0582508 -0.00812556 0.00131077 450.93 450.93 1001.07 
109 1 1 0.164732 0.0210264 0.021408 0 0 0 0.176542 -0.0502638 0.0137204 0.00116485 -0.000249711 -0.0021012 0.176542 -0.0502638 0.0137204 367.463 367.463 1000.87 
110 1 1 0.169723 0.0209319 0.00995398 0 0 0 0.19355 0.0462993 -0.00756697 -0.000853489 0.00148788 0.0199776 0.19355 0.0462993 -0.00756697 345.536 345.536 1000.82 
111 1 1 0.00999563 0.0310585 0.00997852 0 0 0 0.0171865 0.0533208 -0.00669126 0.00502875 -0.0106335 -0.0125207 0.0171865 0.0533208 -0.00669126 685.312 685.312 1001.62 
112 1 1 0.0294465 0.0175476 0.0225631 0 0 0 0.0123608 0.0969678 0.0454783 0.00238405 -0.000657449 -0.00779117 0.0123608 0.0969678 0.0454783 71.1099 71.1099 1000.17 
113 1 1 0.0457487 0.0289682 0.0100075 0 0 0 0.111738 0.116219 -0.00552001 -0.00203609 -0.00638112 -0.0147947 0.111738 0.116219 -0.00552001 -70.502 -70.502 999.832 
114 1 1 0.050155 0.0192696 0.00999831 0 0 0 0.0844028 0.0693595 -0.0157373 -0.00596668 0.00537816 -0.0150672 0.0844028 0.0693595 -0.0157373 3.02112 3.02112 1000.01 
115 1 1 0.0895929 0.0236434 0.0209145 0 0 0 0.147686 0.0237913 -0.0628901 -0.00162533 -0.00454297 -0.00314512 0.147686 0.0237913 -0.0628901 270.8 270.8 1000.64 
116 1 1 0.0993717 0.0360981 0.00997774 0 0 0 0.0905162 0.0138802 0.00530102 -0.00545928 -0.00212094 -0.00488821 0.0905162 0.0138802 0.00530102 522.456 522.456 1001.24 
117 1 1 0.141919 0.0288736 0.0267916 0 0 0 0.209677 0.0107166 0.0725998 -0.00104956 -0.000960587 -0.0010649 0.209677 0.0107166 0.0725998 285.665 285.665 1000.68 
118 1 1 0.155126 0.0214229 0.0203226 0 0 0 0.167217 0.0454923 -0.0594747 0.00100945 -0.000151547 -0.000328478 0.167217 0.0454923 -0.0594747 461.328 461.328 1001.09 
119 1 1 0.147789 0.0240267 0.00997251 0 0 0 0.113003 0.0760111 -0.00420263 -0.00176735 -0.00619356 -0.000333783 0.113003 0.0760111 -0.00420263 366.743 366.743 1000.87 
120 1 1 0.173899 0.0265882 0.0206031 0 0 0 0.142636 -0.0168143 -0.0367672 -0.00150133 -0.00227211 -0.00217417 0.142636 -0.0168143 -0.0367672 396.11 396.11 1000.94 
121 1 1 0.00997918 0.0416076 0.00995928 0 0 0 0.0398736 0.0503192 0.01803 0.0193368 -0.00493331 0.0037468 0.0398736 0.0503192 0.01803 856.502 856.502 1002.03 
122 1 1 0.0223411 0.0340377 0.0100717 0 0 0 0.0270121 -0.0234725 -0.101323 0.0111062 -0.00620267 -0.0232142 0.0270121 -0.0234725 -0.101323 61.2785 61.2785 1000.15 
123 1 1 0.0341223 0.0293844 0.00999552 0 0 0 0.0762003 -0.00205423 0.00141822 0.00817581 -0.00938938 -0.015989 0.0762003 -0.00205423 0.00141822 156.688 156.688 1000.37 
124 1 1 0.0653341 0.0279869 0.00997593 0 0 0 0.110425 0.00443936 -0.0279487 -0.00824806 -0.00102966 0.000846923 0.110425 0.00443936 -0.0279487 241.444 241.444 1000.57 
125 1 1 0.0823854 0.0416205 0.00998159 0 0 0 0.106875 -0.014676 0.00419001 0.000608181 -0.00487157 -0.00833771 0.106875 -0.014676 0.00419001 464.62 464.62 1001.1 
126 1 1 0.102909 0.0405487 0.0099664 0 0 0 0.141262 -0.0573163 0.0114514 0.00104859 0.000547884 0.00790263 0.141262 -0.0573163 0.0114514 503.907 503.907 1001.2 
127 1 1 0.129603 0.0396544 0.00998104 0 0 0 0.118458 -0.00187415 0.00555392 0.00503481 -0.00122541 -0.00954278 0.118458 -0.00187415 0.00555392 416.975 416.975 1000.99 
128 1 1 0.138988 0.033776 0.00997146 0 0 0 0.0713903 -0.044479 0.0129319 -0.000708472 0.00209727 0.000784897 0.0713903 -0.044479 0.0129319 446.277 446.277 1001.06 
129 1 1 0.138025 0.0215981 0.00997655 0 0 0 0.0185694 -0.0495563 -0.00508682 0.00491509 -0.00276256 -0.00253109 0.0185694 -0.0495563 -0.00508682 405.803 405.803 1000.96 
130 1 1 0.161958 0.0332885 0.00996826 0 0 0 0.157105 -0.0271978 -0.0140787 0.00141405 -0.00169264 0.00256347 0.157105 -0.0271978 -0.0140787 383.615 383.615 1000.91 
131 1 1 0.00999609 0.05 0.00997316 0 0 0 -0.00892586 -9.1857e-10 -0.0148332 -0.0012883 9.20992e-09 -0.0075119 -0.00892586 -9.1857e-10 -0.0148332 731.531 731.531 1001.73 
132 1 1 0.0251315 0.05 0.0099689 0 0 0 0.0423688 -1.93563e-09 0.0174876 0.00277769 4.05142e-09 0.000307801 0.0423688 -1.93563e-09 0.0174876 537.628 537.628 1001.28 
133 1 1 0.0378962 0.05 0.0151892 0 0 0 0.0397313 3.37688e-10 -0.107615 0.00312127 2.08189e-09 -0.00371099 0.0397313 3.37688e-10 -0.107615 167.742 167.742 1000.4 
134 1 1 0.0772822 0.05 0.0099731 0 0 0 0.0541973 -1.17949e-09 -0.00424845 -0.0029357 2.25688e-10 0.00110067 0.0541973 -1.17949e-09 -0.00424845 431.281 431.281 1001.02 
135 1 1 0.0981692 0.05 0.0206675 0 0 0 0.205677 -3.47588e-09 -0.0533795 0.00105019 7.54503e-10 -0.00104437 0.205677 -3.47588e-09 -0.0533795 445.412 445.412 1001.06 
136 1 1 0.118908 0.05 0.0187874 0 0 0 0.164855 -5.00148e-09 0.0418238 0.000851028 4.75767e-09 0.00131775 0.164855 -5.00148e-09 0.0418238 420.375 420.375 1001 
137 1 1 0.145082 0.05 0.0198235 0 0 0 0.196109 1.31768e-08 -0.0231169 -0.000939891 1.81371e-08 0.000624377 0.196109 1.31768e-08 -0.0231169 345.143 345.143 1000.82 
138 1 1 0.121427 0.05 0.00996574 0 0 0 0.0585982 -4.88419e-09 0.0167239 0.0019891 7.79332e-09 0.000974926 0.0585982 -4.88419e-09 0.0167239 507.226 507.226 1001.2 
139 1 1 0.143255 0.05 0.00997405 0 0 0 0.0965027 1.26349e-08 0.0224694 -0.00062865 2.17129e-08 -0.00444123 0.0965027 1.26349e-08 0.0224694 375.467 375.467 1000.89 
140 1 1 0.177664 0.05 0.0222653 0 0 0 0.188178 6.42264e-08 0.0304207 -0.00167964 3.04302e-08 -0.00160288 0.188178 6.42264e-08 0.0304207 365.186 365.186 1000.87 
141 1 1 0.00997918 0.0583924 0.00995928 0 0 0 0.0398736 -0.0503192 0.01803 0.0193368 0.00493332 0.00374683 0.0398736 -0.0503192 0.01803 856.502 856.502 1002.03 
142 1 1 0.0223411 0.0659623 0.0100717 0 0 0 0.0270121 0.0234725 -0.101323 0.0111062 0.00620267 -0.0232142 0.0270121 0.0234725 -0.101323 61.2783 61.2783 1000.15 
143 1 1 0.0341223 0.0706156 0.00999552 0 0 0 0.0762003 0.00205423 0.00141822 0.0081758 0.00938938 -0.015989 0.0762003 0.00205423 0.00141822 156.688 156.688 1000.37 
144 1 1 0.0653341 0.0720131 0.00997593 0 0 0 0.110425 -0.00443936 -0.0279487 -0.00824806 0.00102966 0.000846928 0.110425 -0.00443936 -0.0279487 241.444 241.444 1000.57 
145 1 1 0.0823854 0.0583795 0.00998159 0 0 0 0.106875 0.014676 0.00419001 0.000608182 0.00487157 -0.0083377 0.106875 0.014676 0.00419001 464.62 464.62 1001.1 
146 1 1 0.102909 0.0594513 0.0099664 0 0 0 0.141262 0.0573163 0.0114514 0.00104859 -0.000547879 0.00790263 0.141262 0.0573163 0.0114514 503.907 503.907 1001.2 
147 1 1 0.129603 0.0603456 0.00998104 0 0 0 0.118458 0.00187415 0.00555392 0.00503482 0.00122543 -0.00954279 0.118458 0.00187415 0.00555392 416.974 416.974 1000.99 
148 1 1 0.138988 0.066224 0.00997146 0 0 0 0.0713903 0.044479 0.0129319 -0.000708446 -0.00209724 0.000784877 0.0713903 0.044479 0.0129319 446.276 446.276 1001.06 
149 1 1 0.138025 0.0784019 0.00997655 0 0 0 0.0185695 0.0495563 -0.00508683 0.00491512 0.00276257 -0.00253112 0.0185695 0.0495563 -0.00508683 405.802 405.802 1000.96 
150 1 1 0.161958 0.0667115 0.00996826 0 0 0 0.157105 0.0271978 -0.0140788 0.00141406 0.0016927 0.00256347 0.157105 0.0271978 -0.0140788 383.614 383.614 1000.91 
151 1 1 0.00999563 0.0689415 0.00997852 0 0 0 0.0171865 -0.0533208 -0.00669127 0.00502874 0.0106334 -0.0125206 0.0171865 -0.0533208 -0.00669127 685.312 685.312 1001.62 
152 1 1 0.0294465 0.0824524 0.0225631 0 0 0 0.0123608 -0.0969678 0.0454783 0.00238405 0.000657445 -0.00779116 0.0123608 -0.0969678 0.0454783 71.1099 71.1099 1000.17 
153 1 1 0.0457487 0.0710318 0.0100075 0 0 0 0.111738 -0.116219 -0.00552002 -0.00203609 0.00638112 -0.0147947 0.111738 -0.116219 -0.00552002 -70.502 -70.502 999.832 
154 1 1 0.050155 0.0807304 0.00999831 0 0 0 0.0844028 -0.0693595 -0.0157373 -0.00596668 -0.00537816 -0.0150672 0.0844028 -0.0693595 -0.0157373 3.02108 3.02108 1000.01 
155 1 1 0.0895929 0.0763566 0.0209145 0 0 0 0.147686 -0.0237913 -0.0628901 -0.00162533 0.00454297 -0.00314513 0.147686 -0.0237913 -0.0628901 270.8 270.8 1000.64 
156 1 1 0.0993717 0.0639019 0.00997774 0 0 0 0.0905162 -0.0138802 0.00530103 -0.00545928 0.00212095 -0.00488821 0.0905162 -0.0138802 0.00530103 522.456 522.456 1001.24 
157 1 1 0.141919 0.0711264 0.0267916 0 0 0 0.209677 -0.0107165 0.0725998 -0.00104953 0.00096061 -0.00106493 0.209677 -0.0107165 0.0725998 285.664 285.664 1000.68 
158 1 1 0.155126 0.0785771 0.0203226 0 0 0 0.167217 -0.0454923 -0.0594747 0.00100948 0.000151569 -0.000328536 0.167217 -0.0454923 -0.0594747 461.326 461.326 1001.09 
159 1 1 0.147789 0.0759733 0.00997251 0 0 0 0.113003 -0.0760111 -0.00420267 -0.0017673 0.00619357 -0.000333817 0.113003 -0.0760111 -0.00420267 366.741 366.741 1000.87 
160 1 1 0.173899 0.0734118 0.0206031 0 0 0 0.142636 0.0168144 -0.0367673 -0.00150134 0.00227215 -0.0021742 0.142636 0.0168144 -0.0367673 396.108 396.108 1000.94 
161 1 1 0.00998879 0.0795432 0.0204284 0 0 0 0.0137509 0.0100297 0.0259587 0.0133157 0.000754533 -0.00261773 0.0137509 0.0100297 0.0259587 560.525 560.525 1001.33 
162 1 1 0.0261305 0.0785304 0.00997517 0 0 0 -0.067214 -0.00362517 -0.000125705 0.00768155 0.00447409 0.0057364 -0.067214 -0.00362517 -0.000125705 154.866 154.866 1000.37 
163 1 1 0.0553239 0.0769323 0.0232619 0 0 0 0.111105 -0.0722172 0.0700038 -0.00552223 0.00228655 -0.00869027 0.111105 -0.0722172 0.0700038 92.861 92.861 1000.22 
164 1 1 0.07697 0.0780902 0.0212478 0 0 0 0.195553 0.0421027 0.0371019 8.2233e-06 -0.000686533 0.00240851 0.195553 0.0421027 0.0371019 168.06 168.06 1000.4 
165 1 1 0.109621 0.0770587 0.0332152 0 0 0 0.198968 -0.0156328 0.111083 0.000248063 0.00582021 -0.00345288 0.198968 -0.0156328 0.111083 275.486 275.486 1000.65 
166 1 1 0.124887 0.0796556 0.0234208 0 0 0 0.148409 0.018346 -0.0251399 -0.00374424 0.00198926 -0.00403813 0.148409 0.018346 -0.0251399 336.31 336.31 1000.8 
167 1 1 0.146318 0.0796775 0.0233487 0 0 0 0.243339 0.00533434 -0.017057 -0.00235511 -5.78582e-05 -0.000521634 0.243339 0.00533434 -0.017057 362.799 362.799 1000.86 
168 1 1 0.128418 0.0761052 0.00998512 0 0 0 0.0582508 0.00812555 0.00131078 -0.00331875 0.00269904 -0.00871993 0.0582508 0.00812555 0.00131078 450.93 450.93 1001.07 
169 1 1 0.164732 0.0789736 0.021408 0 0 0 0.176542 0.0502639 0.0137203 0.00116486 0.000249724 -0.00210126 0.176542 0.0502639 0.0137203 367.461 367.461 1000.87 
170 1 1 0.169723 0.0790681 0.00995398 0 0 0 0.19355 -0.0462992 -0.00756716 -0.000853503 -0.00148786 0.0199776 0.19355 -0.0462992 -0.00756716 345.534 345.534 1000.82 
171 1 1 0.0100121 0.0900214 0.00999381 0 0 0 0.014253 -0.00550725 -0.0332685 -0.0151856 -0.00563847 -0.0271449 0.014253 -0.00550725 -0.0332685 546.626 546.626 1001.3 
172 1 1 0.0226831 0.0900076 0.00994869 0 0 0 0.0386255 -0.0113538 0.0400273 0.0100068 0.000194785 0.0309882 0.0386255 -0.0113538 0.0400273 335.724 335.724 1000.8 
173 1 1 0.0382624 0.0899422 0.0100171 0 0 0 0.0500889 -0.0049424 0.0074955 -0.000728978 0.00707444 -0.0213736 0.0500889 -0.0049424 0.0074955 159.655 159.655 1000.38 
174 1 1 0.0525415 0.0900056 0.010006 0 0 0 0.0935542 0.00888861 0.00702481 -0.00309746 1.15567e-05 -0.0298305 0.0935542 0.00888861 0.00702481 326.411 326.411 1000.78 
175 1 1 0.0791404 0.0900234 0.00997111 0 0 0 0.0645357 0.00153389 -0.013455 4.04926e-05 -0.00952574 0.00474327 0.0645357 0.00153389 -0.013455 544.369 544.369 1001.29 
176 1 1 0.106684 0.0899808 0.00996339 0 0 0 0.128173 0.00196881 -0.00749453 0.00298377 0.0210793 0.0174369 0.128173 0.00196881 -0.00749453 343.43 343.43 1000.82 
177 1 1 0.117383 0.0900161 0.00997501 0 0 0 -0.006573 0.0257433 0.0199302 -0.0016587 -0.00418697 0.00480846 -0.006573 0.0257433 0.0199302 354.719 354.719 1000.84 
178 1 1 0.129676 0.0900074 0.00999375 0 0 0 0.0407514 -0.0103679 -0.00233754 -0.0035222 0.00779935 -0.0161958 0.0407514 -0.0103679 -0.00233754 461.01 461.01 1001.09 
179 1 1 0.140888 0.0900035 0.00996347 0 0 0 0.126422 -0.00975844 -0.0179427 0.00163079 0.00793247 0.0111193 0.126422 -0.00975844 -0.0179427 432.91 432.91 1001.03 
180 1 1 0.147609 0.0900261 0.00996347 0 0 0 -0.0149809 0.00393209 0.0152396 0.00061494 -0.0157946 0.0100673 -0.0149809 0.00393209 0.0152396 506.15 506.15 1001.2 