ITEM: TIMESTEP
134000
ITEM: NUMBER OF ATOMS
2655
ITEM: BOX BOUNDS ff ff ff
0 0.5
0 0.1
0 0.5
ITEM: ATOMS id type type x y z ix iy iz vx vy vz fx fy fz vx vy vz p p rho 
1 1 1 0.00997769 0.00997451 0.00998064 0 0 0 0.00513201 -0.00250288 0.0175588 0.00353883 0.00545321 -0.00898843 0.00513201 -0.00250288 0.0175588 675.343 675.343 1001.6 
2 1 1 0.0322382 0.00998976 0.00995735 0 0 0 0.0726142 -0.00344282 0.00752114 0.00115885 -0.00670519 0.00833385 0.0726142 -0.00344282 0.00752114 543.136 543.136 1001.29 
3 1 1 0.026092 0.00998433 0.00996302 0 0 0 0.0628907 -0.0132213 0.00656497 0.00185633 -0.00156238 -0.000545692 0.0628907 -0.0132213 0.00656497 584.385 584.385 1001.39 
4 1 1 0.0670443 0.00999327 0.00995538 0 0 0 0.0729961 0.0026178 0.00247258 -0.00131923 -0.0110498 0.0120403 0.0729961 0.0026178 0.00247258 516.229 516.229 1001.22 
5 1 1 0.0709756 0.00997701 0.0099721 0 0 0 0.0340817 -0.000653319 -0.00152381 0.00124649 0.00493766 -0.00402278 0.0340817 -0.000653319 -0.00152381 467.151 467.151 1001.11 
6 1 1 0.09151 0.00998725 0.00996676 0 0 0 0.0474008 -0.00835075 0.00993604 0.000729526 -0.00590041 0.00337641 0.0474008 -0.00835075 0.00993604 460.536 460.536 1001.09 
7 1 1 0.106353 0.00997645 0.00997732 0 0 0 0.0681913 -0.002106 0.000236787 -0.000399781 0.00618773 -0.00615051 0.0681913 -0.002106 0.000236787 449.942 449.942 1001.07 
8 1 1 0.115757 0.00998306 0.0099711 0 0 0 0.0707136 0.00239724 -0.00254149 0.000653628 -0.00103836 0.00167632 0.0707136 0.00239724 -0.00254149 423.985 423.985 1001.01 
9 1 1 0.125718 0.00998632 0.00996804 0 0 0 0.0772495 0.00161671 0.000246988 -0.00118122 -0.00396536 0.00545115 0.0772495 0.00161671 0.000246988 460.225 460.225 1001.09 
10 1 1 0.139642 0.00998686 0.00997025 0 0 0 0.0854163 -0.00186325 0.00313211 -0.000310557 -0.00458275 0.00382847 0.0854163 -0.00186325 0.00313211 440.133 440.133 1001.04 
11 1 1 0.00998395 0.0208576 0.00996688 0 0 0 -0.00526008 -0.00999569 0.0177021 -0.00029574 0.00342883 -0.000876991 -0.00526008 -0.00999569 0.0177021 571.392 571.392 1001.35 
12 1 1 0.0321496 0.0341502 0.00996504 0 0 0 0.0212563 0.0143058 0.000806267 0.000865612 0.00290022 -0.000922356 0.0212563 0.0143058 0.000806267 435.196 435.196 1001.03 
13 1 1 0.0230903 0.0225838 0.00995814 0 0 0 0.0389464 -0.0131598 9.98777e-05 -0.000397509 0.00199079 0.00100389 0.0389464 -0.0131598 9.98777e-05 461.829 461.829 1001.1 
14 1 1 0.0847382 0.0218811 0.00996553 0 0 0 0.0361911 -0.00582402 0.000473155 -0.000382499 0.00113925 -3.13574e-05 0.0361911 -0.00582402 0.000473155 487.423 487.423 1001.16 
15 1 1 0.0700658 0.0221762 0.00996458 0 0 0 0.0603565 0.00558757 0.000925267 -0.00070287 0.000556911 0.00166122 0.0603565 0.00558757 0.000925267 436.918 436.918 1001.04 
16 1 1 0.101647 0.0219412 0.00996837 0 0 0 0.091784 -0.0120934 -0.000349847 -0.000894401 7.68479e-06 -0.000482033 0.091784 -0.0120934 -0.000349847 451.017 451.017 1001.07 
17 1 1 0.102987 0.041164 0.00996778 0 0 0 0.063815 -0.0011835 0.000620612 0.000457202 -8.16546e-05 0.000350568 0.063815 -0.0011835 0.000620612 408.911 408.911 1000.97 
18 1 1 0.131692 0.0313168 0.00997046 0 0 0 0.0734242 -0.00376624 0.000376432 -0.000218417 0.0003513 0.000322742 0.0734242 -0.00376624 0.000376432 424.382 424.382 1001.01 
19 1 1 0.11471 0.0216546 0.00996881 0 0 0 0.0953598 -0.0254061 -0.00105299 0.000496624 0.000754891 0.000745255 0.0953598 -0.0254061 -0.00105299 428.016 428.016 1001.02 
20 1 1 0.151774 0.0224159 0.00997423 0 0 0 0.0782799 0.0121285 0.000335097 0.000461086 -4.69027e-05 -0.0010867 0.0782799 0.0121285 0.000335097 439.804 439.804 1001.04 
21 1 1 0.00998201 0.0278514 0.00996999 0 0 0 0.00731967 -0.0083546 -0.00383329 0.00206697 0.003294 -0.00337147 0.00731967 -0.0083546 -0.00383329 538.415 538.415 1001.28 
22 1 1 0.0387354 0.0353184 0.00996356 0 0 0 0.00771956 -0.00379042 0.000218402 -0.000277028 0.00288219 -0.00109909 0.00771956 -0.00379042 0.000218402 433.509 433.509 1001.03 
23 1 1 0.0624543 0.044441 0.00996493 0 0 0 0.0487456 0.0166363 0.00093664 -0.00057981 0.00111658 -0.000721684 0.0487456 0.0166363 0.00093664 410.707 410.707 1000.98 
24 1 1 0.0869272 0.0306968 0.00996687 0 0 0 0.0953943 0.0304444 0.000675517 -0.00050708 0.0009472 0.000451744 0.0953943 0.0304444 0.000675517 445.431 445.431 1001.06 
25 1 1 0.108748 0.0382913 0.00996786 0 0 0 0.0998621 -0.0153164 0.000457819 -0.000645612 -0.00058798 0.000381763 0.0998621 -0.0153164 0.000457819 410.537 410.537 1000.97 
26 1 1 0.107786 0.0230504 0.00996897 0 0 0 0.101337 0.0157429 -0.00039765 9.46214e-05 -0.000809711 -0.000144751 0.101337 0.0157429 -0.00039765 440.703 440.703 1001.05 
27 1 1 0.131106 0.0449273 0.00997033 0 0 0 0.0782765 -0.00809749 0.000390982 -0.00178882 0.00035147 0.000453921 0.0782765 -0.00809749 0.000390982 425.851 425.851 1001.01 
28 1 1 0.110705 0.0299235 0.00996767 0 0 0 0.0960694 0.00363405 0.000331378 4.63619e-07 0.00150877 0.000348684 0.0960694 0.00363405 0.000331378 433.51 433.51 1001.03 
29 1 1 0.140336 0.0225162 0.00997163 0 0 0 0.0772625 -0.00321187 0.000448418 -0.00124304 -4.55447e-06 0.000562409 0.0772625 -0.00321187 0.000448418 448.903 448.903 1001.07 
30 1 1 0.143837 0.032078 0.00997165 0 0 0 0.0874984 0.0147107 8.77621e-05 2.82349e-06 -0.000277919 0.000249399 0.0874984 0.0147107 8.77621e-05 443.002 443.002 1001.05 
31 1 1 0.00998775 0.0379367 0.00996616 0 0 0 0.00214535 -0.00977707 -0.00106648 -0.00444571 0.00351674 0.00327003 0.00214535 -0.00977707 -0.00106648 512.27 512.27 1001.22 
32 1 1 0.0215853 0.0423657 0.00996482 0 0 0 0.00530503 -0.00453901 -5.17756e-05 0.00357223 0.00321399 4.21241e-05 0.00530503 -0.00453901 -5.17756e-05 455.62 455.62 1001.08 
33 1 1 0.0507751 0.0424375 0.00996352 0 0 0 0.0523417 -0.0279685 0.000737119 7.45439e-05 -0.000122427 -0.000978241 0.0523417 -0.0279685 0.000737119 385.524 385.524 1000.92 
34 1 1 0.0708459 0.0350879 0.00996556 0 0 0 0.0432524 -0.00674956 0.000966785 -0.000649224 0.00210775 -0.00028643 0.0432524 -0.00674956 0.000966785 438.953 438.953 1001.04 
35 1 1 0.0767949 0.0396231 0.00996579 0 0 0 0.0785049 -0.0223374 0.000944896 0.000953916 0.000912644 -2.16004e-05 0.0785049 -0.0223374 0.000944896 395.289 395.289 1000.94 
36 1 1 0.0998999 0.0307066 0.00996767 0 0 0 0.122237 -0.023742 0.000438206 0.000603271 -0.00044803 0.000561522 0.122237 -0.023742 0.000438206 426.32 426.32 1001.01 
37 1 1 0.120555 0.0372379 0.00996897 0 0 0 0.100406 -0.0047974 0.000471149 -0.000246287 0.000391016 0.000360609 0.100406 -0.0047974 0.000471149 424.191 424.191 1001.01 
38 1 1 0.127216 0.0384797 0.00997007 0 0 0 0.087023 -0.00154129 0.000402132 -0.000294018 0.000368898 0.00037713 0.087023 -0.00154129 0.000402132 434 434 1001.03 
39 1 1 0.148133 0.0375219 0.00997149 0 0 0 0.0618684 -0.00174567 0.000244927 -9.67831e-06 9.78788e-05 0.000444681 0.0618684 -0.00174567 0.000244927 436.919 436.919 1001.04 
40 1 1 0.165651 0.0383701 0.0099726 0 0 0 0.0540167 0.00514299 0.000206862 0.000322558 -0.000450728 0.000226916 0.0540167 0.00514299 0.000206862 432.46 432.46 1001.03 
41 1 1 0.00997973 0.0527678 0.00997802 0 0 0 -0.0038057 0.000537012 0.00217774 0.00461062 0.00151504 -0.00755859 -0.0038057 0.000537012 0.00217774 445.97 445.97 1001.06 
42 1 1 0.0355965 0.0549855 0.00996873 0 0 0 0.0483534 0.0205717 -0.000109694 -0.000568885 0.00104284 -0.00221726 0.0483534 0.0205717 -0.000109694 477.767 477.767 1001.13 
43 1 1 0.0510038 0.0495593 0.00996606 0 0 0 0.0661015 0.00815165 0.000745017 -0.000227959 0.00168178 -0.00110921 0.0661015 0.00815165 0.000745017 383.746 383.746 1000.91 
44 1 1 0.0744257 0.0483382 0.00996462 0 0 0 0.10858 -0.00803372 0.00108967 -0.000459259 -0.000482146 -0.000475854 0.10858 -0.00803372 0.00108967 413.121 413.121 1000.98 
45 1 1 0.0866438 0.047657 0.00996511 0 0 0 0.0829057 0.0266263 0.00103948 -0.000991986 0.00101037 1.12565e-05 0.0829057 0.0266263 0.00103948 417.927 417.927 1000.99 
46 1 1 0.092634 0.053052 0.00996447 0 0 0 0.106666 0.0290801 0.0011316 0.000487631 0.00116417 9.63153e-05 0.106666 0.0290801 0.0011316 426.103 426.103 1001.01 
47 1 1 0.100269 0.048736 0.00996504 0 0 0 0.125889 0.000978237 0.00093699 -4.73412e-05 6.79469e-05 0.000146247 0.125889 0.000978237 0.00093699 430.497 430.497 1001.02 
48 1 1 0.125163 0.0518824 0.00996985 0 0 0 0.0730344 0.0187333 0.000593222 0.000993995 -0.00103107 0.000473776 0.0730344 0.0187333 0.000593222 416.891 416.891 1000.99 
49 1 1 0.112192 0.0489551 0.00996873 0 0 0 0.0951746 -0.00129675 0.000661153 -0.00036433 0.00123769 0.000309468 0.0951746 -0.00129675 0.000661153 405.636 405.636 1000.96 
50 1 1 0.152744 0.0494801 0.00997151 0 0 0 0.0440625 -0.00295452 0.000280805 0.000710837 0.00039159 0.000462512 0.0440625 -0.00295452 0.000280805 437.113 437.113 1001.04 
51 1 1 0.00998869 0.0617221 0.00997056 0 0 0 0.00140734 -0.00146296 -0.00147833 -0.00266772 0.00231729 0.000619957 0.00140734 -0.00146296 -0.00147833 432.795 432.795 1001.03 
52 1 1 0.0225661 0.0558276 0.00996818 0 0 0 0.0150367 -0.0133286 -0.000101074 0.00296096 0.00251967 -0.00251438 0.0150367 -0.0133286 -0.000101074 412.277 412.277 1000.98 
53 1 1 0.0588482 0.060343 0.00996558 0 0 0 0.060488 -0.0041608 0.000839462 -0.00169368 0.000355513 -0.0013193 0.060488 -0.0041608 0.000839462 405.183 405.183 1000.96 
54 1 1 0.0753625 0.0649756 0.0099668 0 0 0 0.114638 0.0312196 0.00141352 -0.000385342 -0.000186914 -0.000547731 0.114638 0.0312196 0.00141352 371.672 371.672 1000.88 
55 1 1 0.0815502 0.0593339 0.00996554 0 0 0 0.110787 0.00760585 0.00127094 -0.000539131 0.000788382 -0.000327357 0.110787 0.00760585 0.00127094 393.024 393.024 1000.93 
56 1 1 0.0993879 0.071641 0.00996836 0 0 0 0.0886886 0.0150735 0.00145516 -0.00150367 0.000785399 0.000178751 0.0886886 0.0150735 0.00145516 405.074 405.074 1000.96 
57 1 1 0.123821 0.0627403 0.00996979 0 0 0 0.0664943 0.00274815 0.000667047 -5.38703e-05 0.000910187 0.000454302 0.0664943 0.00274815 0.000667047 416.735 416.735 1000.99 
58 1 1 0.130713 0.0628979 0.00997041 0 0 0 0.0755658 0.0331059 0.000530406 -0.000726895 -0.00024895 0.000439226 0.0755658 0.0331059 0.000530406 405.038 405.038 1000.96 
59 1 1 0.148691 0.0615739 0.00997102 0 0 0 0.0723024 0.0237552 0.000371458 -0.000753663 -0.000179911 0.000537074 0.0723024 0.0237552 0.000371458 426.281 426.281 1001.01 
60 1 1 0.160097 0.0623709 0.00997234 0 0 0 0.0656935 -0.0207877 0.000341743 -0.000483352 -8.11872e-05 0.000118545 0.0656935 -0.0207877 0.000341743 449.155 449.155 1001.07 
61 1 1 0.00998419 0.0716092 0.00997742 0 0 0 -0.00411368 0.00772822 0.000873144 0.00213997 0.0019697 -0.00534376 -0.00411368 0.00772822 0.000873144 432.769 432.769 1001.03 
62 1 1 0.0402855 0.065558 0.00996522 0 0 0 0.0715464 0.0162524 -3.82327e-07 -0.00206345 0.000714771 -0.00219937 0.0715464 0.0162524 -3.82327e-07 414.508 414.508 1000.98 
63 1 1 0.0690233 0.0585467 0.00996496 0 0 0 0.0598401 -0.00156907 0.00119432 -0.000307031 0.00174617 -0.000932563 0.0598401 -0.00156907 0.00119432 397.991 397.991 1000.94 
64 1 1 0.0876389 0.0703713 0.00996793 0 0 0 0.0865293 0.0251471 0.00130807 -5.95807e-05 0.000260458 -8.44608e-05 0.0865293 0.0251471 0.00130807 416.874 416.874 1000.99 
65 1 1 0.111989 0.0635191 0.00996856 0 0 0 0.0798875 -0.0022059 0.000869308 0.000175193 -0.000107761 0.000381397 0.0798875 -0.0022059 0.000869308 415.166 415.166 1000.99 
66 1 1 0.108546 0.0780477 0.00996895 0 0 0 0.0804351 0.0104336 0.00112866 -0.000855795 -0.000166045 0.000327591 0.0804351 0.0104336 0.00112866 426.823 426.823 1001.01 
67 1 1 0.13243 0.0541642 0.00997019 0 0 0 0.078614 -0.0216442 0.000445061 -0.000476847 0.000672002 0.000482509 0.078614 -0.0216442 0.000445061 414.887 414.887 1000.98 
68 1 1 0.110739 0.0709941 0.00996975 0 0 0 0.0796425 0.0255857 0.000945694 0.000510883 -0.000214785 0.000288748 0.0796425 0.0255857 0.000945694 411.252 411.252 1000.98 
69 1 1 0.140481 0.0775616 0.00997179 0 0 0 0.103884 -0.00935615 0.000399054 -0.00093385 0.00022883 -0.000331954 0.103884 -0.00935615 0.000399054 446.122 446.122 1001.06 
70 1 1 0.148898 0.0692899 0.00997154 0 0 0 0.0551726 -0.0283904 0.000323772 -0.000656024 -0.000926362 0.000538823 0.0551726 -0.0283904 0.000323772 450.959 450.959 1001.07 
71 1 1 0.00998896 0.0794601 0.00997484 0 0 0 -0.0152864 -0.00353437 2.30881e-05 -0.00302498 -0.000188222 -0.00193787 -0.0152864 -0.00353437 2.30881e-05 392.747 392.747 1000.93 
72 1 1 0.0326439 0.0621537 0.00996563 0 0 0 0.0417344 -0.00209192 -0.000488717 0.000271924 0.000216409 -0.00216978 0.0417344 -0.00209192 -0.000488717 407.531 407.531 1000.97 
73 1 1 0.0229884 0.0782514 0.00996504 0 0 0 0.027476 -0.0164122 -0.000937689 -0.000504598 0.000324459 -0.00140154 0.027476 -0.0164122 -0.000937689 435.245 435.245 1001.03 
74 1 1 0.085711 0.0782101 0.00996713 0 0 0 0.0653508 -0.00251012 0.000480652 -0.00044521 4.41089e-05 0.00022921 0.0653508 -0.00251012 0.000480652 405.237 405.237 1000.96 
75 1 1 0.0707209 0.0769246 0.00996625 0 0 0 0.0778282 -0.00858897 0.000846083 -0.000401824 0.000915087 0.00025328 0.0778282 -0.00858897 0.000846083 401.413 401.413 1000.95 
76 1 1 0.101047 0.0785101 0.0099675 0 0 0 0.102788 -0.00622808 0.00139263 -0.00120552 -0.000688886 -0.000122289 0.102788 -0.00622808 0.00139263 408.389 408.389 1000.97 
77 1 1 0.105276 0.0605515 0.00996855 0 0 0 0.103428 0.0200211 0.000800057 -0.00052074 -0.000634428 0.00014289 0.103428 0.0200211 0.000800057 425.699 425.699 1001.01 
78 1 1 0.136193 0.0686861 0.00996981 0 0 0 0.0819672 -0.00339458 0.000419448 -0.00150526 0.000464159 0.000328379 0.0819672 -0.00339458 0.000419448 436.254 436.254 1001.04 
79 1 1 0.115411 0.0772037 0.009969 0 0 0 0.0990222 -0.0110578 0.00124705 -0.000621123 0.000640041 0.000953376 0.0990222 -0.0110578 0.00124705 411.409 411.409 1000.98 
80 1 1 0.15269 0.0781739 0.00997397 0 0 0 0.0742952 -0.0151753 -0.00088447 -4.312e-05 -1.22221e-05 -0.00112208 0.0742952 -0.0151753 -0.00088447 441.698 441.698 1001.05 
81 1 1 0.00998302 0.0900185 0.0099966 0 0 0 -0.00743291 -0.00907767 -0.00403391 0.00642789 -0.00314934 -0.0232017 -0.00743291 -0.00907767 -0.00403391 430.995 430.995 1001.02 
82 1 1 0.0313149 0.0900114 0.00996415 0 0 0 0.0345312 -0.00771278 -0.00876212 -0.000595516 0.00629028 0.00578647 0.0345312 -0.00771278 -0.00876212 324.117 324.117 1000.77 
83 1 1 0.0254105 0.0900187 0.00997603 0 0 0 0.0304707 0.0104776 0.00631049 0.000101822 -0.000771512 -0.00642226 0.0304707 0.0104776 0.00631049 339.898 339.898 1000.81 
84 1 1 0.0679701 0.0900192 0.00996939 0 0 0 0.0614693 -0.0114439 -0.0111603 -0.00101904 -0.00224563 0.00107041 0.0614693 -0.0114439 -0.0111603 361.258 361.258 1000.86 
85 1 1 0.0723773 0.0900087 0.00996623 0 0 0 0.0613675 0.00523265 0.00863836 -0.00105639 0.00779027 0.00413606 0.0613675 0.00523265 0.00863836 380.493 380.493 1000.9 
86 1 1 0.0930219 0.0900254 0.00997667 0 0 0 0.0904117 -0.0024879 -0.00277287 -0.000888183 -0.00781792 -0.00702463 0.0904117 -0.0024879 -0.00277287 391.366 391.366 1000.93 
87 1 1 0.108081 0.0900162 0.0099723 0 0 0 0.0837961 0.00933841 0.0118476 -0.00148955 0.00164435 -0.000632509 0.0837961 0.00933841 0.0118476 440.819 440.819 1001.05 
88 1 1 0.117082 0.0900169 0.00997444 0 0 0 0.0634152 0.00973731 0.00987785 0.000533898 8.14896e-05 -0.00238149 0.0634152 0.00973731 0.00987785 424.981 424.981 1001.01 
89 1 1 0.127591 0.0900207 0.00997343 0 0 0 0.0705901 -0.00677987 -0.00610205 -0.0012843 -0.00300849 -0.00035672 0.0705901 -0.00677987 -0.00610205 445.474 445.474 1001.06 
90 1 1 0.141765 0.0900119 0.00996656 0 0 0 0.0859588 0.00281114 0.00596461 -0.00107056 0.00660068 0.00630365 0.0859588 0.00281114 0.00596461 460.324 460.324 1001.09 
91 1 1 0.00998188 0.00997097 0.0099811 0 0 0 0.00935557 -0.0108326 -0.00979007 -0.000441191 0.00927255 -0.00930726 0.00935557 -0.0108326 -0.00979007 595.122 595.122 1001.41 
92 1 1 0.0220392 0.00997831 0.00996414 0 0 0 0.013951 0.00391666 -0.0165824 0.00106525 0.00450792 -0.00333265 0.013951 0.00391666 -0.0165824 577.294 577.294 1001.37 
93 1 1 0.0368101 0.00996935 0.00997541 0 0 0 0.0587717 0.00447537 -0.00949033 0.00107211 0.0135675 -0.00944686 0.0587717 0.00447537 -0.00949033 499.168 499.168 1001.18 
94 1 1 0.046779 0.00999179 0.00995368 0 0 0 0.0917938 0.00760746 -0.00260931 0.000899885 -0.00995615 0.0124116 0.0917938 0.00760746 -0.00260931 503.86 503.86 1001.2 
95 1 1 0.0753326 0.00999244 0.00995635 0 0 0 0.0762814 -0.00109965 0.00568413 0.00381647 -0.01054 0.0111668 0.0762814 -0.00109965 0.00568413 445.752 445.752 1001.06 
96 1 1 0.101198 0.00997566 0.0099808 0 0 0 0.0833812 -0.0080325 0.00552002 -0.000287059 0.00711401 -0.00939037 0.0833812 -0.0080325 0.00552002 444.784 444.784 1001.06 
97 1 1 0.110959 0.00999183 0.00996129 0 0 0 0.0509142 0.00488917 -0.00205336 0.000713301 -0.00944222 0.0107363 0.0509142 0.00488917 -0.00205336 442.862 442.862 1001.05 
98 1 1 0.120468 0.00997411 0.00998095 0 0 0 0.087079 -0.00161814 -0.00088493 -8.43461e-05 0.00848008 -0.00824192 0.087079 -0.00161814 -0.00088493 428.994 428.994 1001.02 
99 1 1 0.130104 0.00998275 0.00997471 0 0 0 0.0558782 -0.00509503 0.00564436 0.000123632 -0.000418013 -0.000599655 0.0558782 -0.00509503 0.00564436 448.994 448.994 1001.07 
100 1 1 0.13465 0.00997747 0.00997753 0 0 0 0.0658032 0.00311986 -0.0047097 0.000755233 0.00491234 -0.00364659 0.0658032 0.00311986 -0.0047097 427.039 427.039 1001.01 
101 1 1 0.0099747 0.0208508 0.0216286 0 0 0 0.00224822 -0.0141741 -0.0237655 0.00159132 0.00211381 0.00144889 0.00224822 -0.0141741 -0.0237655 637.941 637.941 1001.51 
102 1 1 0.00998621 0.0235342 0.00996065 0 0 0 0.0103373 0.00956862 -0.000835567 -0.00210199 0.00253527 0.00521105 0.0103373 0.00956862 -0.000835567 553.108 553.108 1001.31 
103 1 1 0.0208523 0.024256 0.0199369 0 0 0 0.0632439 0.0171508 -0.0218964 0.000941523 0.0016359 0.000812926 0.0632439 0.0171508 -0.0218964 541.564 541.564 1001.28 
104 1 1 0.0586742 0.022168 0.0346747 0 0 0 0.00248513 -0.0186793 -0.00701422 0.00298198 0.000904358 0.000919147 0.00248513 -0.0186793 -0.00701422 407.402 407.402 1000.97 
105 1 1 0.0848696 0.0355928 0.0575326 0 0 0 0.0246424 0.030662 -0.0386582 0.0021656 -0.00120186 0.000237968 0.0246424 0.030662 -0.0386582 141.375 141.375 1000.34 
106 1 1 0.127921 0.0229794 0.00997083 0 0 0 0.0800065 0.00135816 -0.000377105 -0.000159791 0.000113972 -1.88555e-05 0.0800065 0.00135816 -0.000377105 432.681 432.681 1001.03 
107 1 1 0.107632 0.0221052 0.0312486 0 0 0 -0.0501351 -0.00796515 0.00365398 0.00127091 0.000788217 0.000635878 -0.0501351 -0.00796515 0.00365398 369.277 369.277 1000.88 
108 1 1 0.138714 0.0360435 0.00997121 0 0 0 0.0721584 -0.0260684 0.000306453 -0.000860078 -0.000368544 0.000416268 0.0721584 -0.0260684 0.000306453 428.483 428.483 1001.02 
109 1 1 0.134803 0.0212502 0.0230409 0 0 0 -0.0391602 5.51674e-05 0.0118167 -0.0003862 0.0013469 0.000874338 -0.0391602 5.51674e-05 0.0118167 404.314 404.314 1000.96 
110 1 1 0.171394 0.0232918 0.00997392 0 0 0 0.0658398 0.00309616 0.000126164 -0.000490856 -0.00042144 0.000400856 0.0658398 0.00309616 0.000126164 459.848 459.848 1001.09 
111 1 1 0.00998613 0.0339295 0.00996905 0 0 0 0.00159387 0.000144988 -0.000160151 -0.00220477 0.00261751 7.98702e-05 0.00159387 0.000144988 -0.000160151 528.911 528.911 1001.25 
112 1 1 0.020943 0.022706 0.0486067 0 0 0 0.0322305 0.000904814 0.0157816 0.00273999 0.00252619 -0.00478745 0.0322305 0.000904814 0.0157816 326.085 326.085 1000.77 
113 1 1 0.0457491 0.0316314 0.00996027 0 0 0 0.0467821 -0.00928693 0.000457881 0.000887273 0.00209576 -0.000456901 0.0467821 -0.00928693 0.000457881 413.745 413.745 1000.98 
114 1 1 0.0489386 0.0230724 0.00995936 0 0 0 0.056781 -0.00372288 -0.000101924 0.00093823 0.00113793 0.00121215 0.056781 -0.00372288 -0.000101924 441.411 441.411 1001.05 
115 1 1 0.0502 0.0215985 0.0346714 0 0 0 -0.00639781 0.0251596 0.0134755 0.000951454 0.00152167 0.000270047 -0.00639781 0.0251596 0.0134755 408.577 408.577 1000.97 
116 1 1 0.09661 0.0357182 0.00996695 0 0 0 0.0836661 0.026393 0.000524301 0.000665837 0.000927692 0.000453052 0.0836661 0.026393 0.000524301 444.991 444.991 1001.06 
117 1 1 0.114287 0.0252427 0.0222587 0 0 0 -0.0323418 -0.00921332 0.0193842 0.000637251 0.000111302 0.000352169 -0.0323418 -0.00921332 0.0193842 380.295 380.295 1000.9 
118 1 1 0.127713 0.0225998 0.0207923 0 0 0 -0.0592233 -0.00432413 0.0181069 0.000741507 5.02369e-06 0.000871754 -0.0592233 -0.00432413 0.0181069 400.661 400.661 1000.95 
119 1 1 0.146166 0.0229351 0.00997285 0 0 0 0.0723518 -0.000374584 3.8333e-06 0.000398818 0.000294898 0.000180182 0.0723518 -0.000374584 3.8333e-06 444.956 444.956 1001.06 
120 1 1 0.132642 0.0211913 0.0372486 0 0 0 -0.0297092 -0.00494768 0.0217865 0.000599678 0.000900644 0.00102125 -0.0297092 -0.00494768 0.0217865 286.317 286.317 1000.68 
121 1 1 0.0099879 0.0424006 0.00996508 0 0 0 0.00132047 -0.00314079 0.000156783 -0.00534285 0.00370693 0.00430796 0.00132047 -0.00314079 0.000156783 490.194 490.194 1001.16 
122 1 1 0.0244624 0.036091 0.00996158 0 0 0 -0.004808 0.00387863 -0.000475821 2.65694e-05 0.00223412 0.00127376 -0.004808 0.00387863 -0.000475821 463.37 463.37 1001.1 
123 1 1 0.0228401 0.0301155 0.00996009 0 0 0 0.007694 -0.0264577 -0.00327765 -0.000264713 0.0002034 0.00199436 0.007694 -0.0264577 -0.00327765 435.753 435.753 1001.03 
124 1 1 0.0742866 0.0284352 0.00996611 0 0 0 0.0628277 0.00823347 0.000597379 0.000928798 0.00123539 0.000627293 0.0628277 0.00823347 0.000597379 446.582 446.582 1001.06 
125 1 1 0.0829493 0.0364388 0.00996702 0 0 0 0.080524 0.00976029 0.00068445 -0.000887571 0.00103818 0.000330709 0.080524 0.00976029 0.00068445 388.736 388.736 1000.92 
126 1 1 0.120388 0.0302926 0.00996991 0 0 0 0.0875774 0.00129141 0.00041909 -0.000224762 -0.000250567 0.000820319 0.0875774 0.00129141 0.00041909 413.317 413.317 1000.98 
127 1 1 0.155852 0.0350452 0.00997256 0 0 0 0.086763 0.00529932 0.000234434 -0.000616901 0.000541718 0.000205809 0.086763 0.00529932 0.000234434 428.612 428.612 1001.02 
128 1 1 0.137032 0.0435437 0.00997118 0 0 0 0.0666856 -0.00897349 0.000328264 0.000983938 9.33472e-05 0.000564884 0.0666856 -0.00897349 0.000328264 417.905 417.905 1000.99 
129 1 1 0.134356 0.0225674 0.00997091 0 0 0 0.0947995 -0.01109 0.00130776 -0.000844961 0.000550816 0.000809765 0.0947995 -0.01109 0.00130776 438.131 438.131 1001.04 
130 1 1 0.176292 0.0341433 0.00997341 0 0 0 0.0517228 -0.00886551 0.00035263 -0.00100359 -0.000496157 0.000252945 0.0517228 -0.00886551 0.00035263 449.336 449.336 1001.07 
131 1 1 0.0099801 0.0480093 0.00997525 0 0 0 -0.00159778 0.0011815 0.000578269 0.00341173 0.00253402 -0.0055243 -0.00159778 0.0011815 0.000578269 457.13 457.13 1001.08 
132 1 1 0.030118 0.0457278 0.00996831 0 0 0 0.0329355 -0.0421056 -0.000112259 0.000866585 0.00294262 -0.00185066 0.0329355 -0.0421056 -0.000112259 489.588 489.588 1001.16 
133 1 1 0.0430739 0.0500759 0.00996823 0 0 0 0.0433051 -0.0018026 0.000355032 -0.00386181 0.00161652 -0.00136002 0.0433051 -0.0018026 0.000355032 467.063 467.063 1001.11 
134 1 1 0.0807488 0.0506427 0.00996509 0 0 0 0.0543637 -0.013767 0.00113085 -0.000446968 0.00120169 -0.000246803 0.0543637 -0.013767 0.00113085 399.505 399.505 1000.95 
135 1 1 0.119912 0.0507961 0.00996908 0 0 0 0.0770821 0.00737791 0.000595971 -0.00105503 -0.000711809 0.000363491 0.0770821 0.00737791 0.000595971 425.546 425.546 1001.01 
136 1 1 0.0828221 0.0500966 0.02179 0 0 0 0.0226404 0.0289706 0.0242362 0.00231298 0.000119072 0.000403877 0.0226404 0.0289706 0.0242362 385.432 385.432 1000.92 
137 1 1 0.113999 0.0523237 0.0213081 0 0 0 -0.0321787 -0.0134833 -0.00307309 9.65465e-06 -0.000394528 0.000934624 -0.0321787 -0.0134833 -0.00307309 393.176 393.176 1000.93 
138 1 1 0.142085 0.0498446 0.00997129 0 0 0 0.0611328 0.0287276 0.000447264 -0.000394947 0.00013001 0.00049909 0.0611328 0.0287276 0.000447264 420.641 420.641 1001 
139 1 1 0.148871 0.0447684 0.00997156 0 0 0 0.0650849 -0.0200814 0.000297633 -0.000929836 -0.000555681 0.000470419 0.0650849 -0.0200814 0.000297633 425.325 425.325 1001.01 
140 1 1 0.156943 0.050783 0.0212438 0 0 0 -0.0456958 0.00386979 0.0280312 0.000896078 0.000115332 0.000214453 -0.0456958 0.00386979 0.0280312 364.293 364.293 1000.87 
141 1 1 0.00998787 0.0573431 0.00996994 0 0 0 0.000287602 0.00311856 -1.09741e-05 -0.0028691 0.00207345 0.000843673 0.000287602 0.00311856 -1.09741e-05 442.498 442.498 1001.05 
142 1 1 0.024562 0.0638929 0.00996455 0 0 0 0.0309074 -0.0260395 -0.000608599 -0.000323601 -0.000143517 -0.0017406 0.0309074 -0.0260395 -0.000608599 396.843 396.843 1000.94 
143 1 1 0.023347 0.0694458 0.00996395 0 0 0 0.00489922 -0.0471654 -0.000640498 -0.000923841 0.00141899 -0.00111546 0.00489922 -0.0471654 -0.000640498 404.691 404.691 1000.96 
144 1 1 0.0753593 0.0706314 0.00996808 0 0 0 0.072097 0.00237268 0.0014804 -0.000702601 0.000813042 -0.000639621 0.072097 0.00237268 0.0014804 402.076 402.076 1000.95 
145 1 1 0.0870394 0.0639877 0.00996597 0 0 0 0.0679735 0.00139346 0.00128595 -0.000716389 0.000542959 -0.000148985 0.0679735 0.00139346 0.00128595 415.072 415.072 1000.99 
146 1 1 0.122775 0.0697908 0.00996961 0 0 0 0.0813824 -0.0116455 0.000375161 -0.00124134 -0.00034988 0.00022268 0.0813824 -0.0116455 0.000375161 421.782 421.782 1001 
147 1 1 0.152449 0.0560029 0.0099711 0 0 0 0.0786672 -0.0189629 0.000293151 -0.000483071 0.000459821 0.000470212 0.0786672 -0.0189629 0.000293151 423.088 423.088 1001 
148 1 1 0.140776 0.056516 0.00997109 0 0 0 0.0664566 -0.0316467 0.000376649 -0.00103485 -0.000583085 0.000614731 0.0664566 -0.0316467 0.000376649 420.939 420.939 1001 
149 1 1 0.134355 0.0770967 0.00997006 0 0 0 0.0892055 -0.00319391 0.00111832 -0.000335698 -0.0005026 0.000823503 0.0892055 -0.00319391 0.00111832 428.956 428.956 1001.02 
150 1 1 0.176328 0.0682746 0.00997342 0 0 0 0.0584977 -0.00506816 0.000347931 -0.000141755 -0.000401795 0.000267439 0.0584977 -0.00506816 0.000347931 452.778 452.778 1001.07 
151 1 1 0.00998718 0.0666266 0.00997363 0 0 0 -0.00155955 0.0087014 0.00112638 -0.000880415 0.00153646 -0.00221251 -0.00155955 0.0087014 0.00112638 433.741 433.741 1001.03 
152 1 1 0.0216132 0.0781386 0.0378916 0 0 0 -0.0416581 -0.0351204 -0.0752607 0.00104759 0.000498877 -0.00395901 -0.0416581 -0.0351204 -0.0752607 362.394 362.394 1000.86 
153 1 1 0.0489024 0.069675 0.0099677 0 0 0 0.048675 0.0441524 0.00052648 0.000329272 0.00130464 -0.00148232 0.048675 0.0441524 0.00052648 380.885 380.885 1000.9 
154 1 1 0.0505512 0.0771086 0.00996979 0 0 0 0.0928419 -0.0109268 0.000247985 -0.00146539 0.00151187 -0.00211799 0.0928419 -0.0109268 0.000247985 367.535 367.535 1000.87 
155 1 1 0.0462131 0.0765694 0.0408356 0 0 0 -0.0167173 -0.0483934 0.0374167 0.00261176 0.000745768 -0.00326987 -0.0167173 -0.0483934 0.0374167 308.331 308.331 1000.73 
156 1 1 0.100123 0.0655769 0.00996885 0 0 0 0.0778319 -0.00204409 0.00102815 -0.00123768 -0.000320143 0.000144115 0.0778319 -0.00204409 0.00102815 405.097 405.097 1000.96 
157 1 1 0.112376 0.0767797 0.0213137 0 0 0 -0.00723772 -0.0382651 -0.00910749 0.000744292 0.00080651 0.000688794 -0.00723772 -0.0382651 -0.00910749 430.156 430.156 1001.02 
158 1 1 0.128395 0.0792025 0.0229108 0 0 0 -0.0262922 -0.0282516 0.0039552 0.000310657 -0.00117246 0.000655134 -0.0262922 -0.0282516 0.0039552 405.361 405.361 1000.96 
159 1 1 0.146749 0.0773332 0.00997278 0 0 0 0.0726987 -0.00374652 -0.000111645 -0.00117875 -0.000710265 -0.000353093 0.0726987 -0.00374652 -0.000111645 453.159 453.159 1001.08 
160 1 1 0.130874 0.0784874 0.0375466 0 0 0 -0.0539788 0.0101054 0.0211116 0.00114952 -0.000559656 0.00129899 -0.0539788 0.0101054 0.0211116 278.402 278.402 1000.66 
161 1 1 0.00998411 0.0784875 0.0222158 0 0 0 -0.00252535 -0.0113521 -0.0076391 -0.000987474 0.000511617 -0.00559466 -0.00252535 -0.0113521 -0.0076391 453.599 453.599 1001.08 
162 1 1 0.00999233 0.0764825 0.00996687 0 0 0 0.00834387 -0.0150114 -0.0171164 -0.00650862 0.00127738 0.00582324 0.00834387 -0.0150114 -0.0171164 414.25 414.25 1000.98 
163 1 1 0.0213649 0.0778603 0.0265604 0 0 0 4.07111e-05 -0.000465135 -0.104576 0.00218651 0.00268592 -0.00814807 4.07111e-05 -0.000465135 -0.104576 398.382 398.382 1000.95 
164 1 1 0.0575309 0.0715544 0.0591047 0 0 0 0.016067 0.00599064 -0.0411458 0.0014796 0.000130238 -0.000451708 0.016067 0.00599064 -0.0411458 209.241 209.241 1000.5 
165 1 1 0.0879875 0.067443 0.0519555 0 0 0 -0.000855613 -0.0376992 -0.0451456 0.000529689 0.000485676 -0.000101298 -0.000855613 -0.0376992 -0.0451456 178.949 178.949 1000.43 
166 1 1 0.128328 0.0777432 0.00997009 0 0 0 0.0901362 0.0113715 2.14715e-05 -0.00054383 -0.000816309 -3.12858e-05 0.0901362 0.0113715 2.14715e-05 437.902 437.902 1001.04 
167 1 1 0.109166 0.0781367 0.0347388 0 0 0 -0.0165394 0.00442064 0.0252861 0.000534407 -0.000355467 0.00120905 -0.0165394 0.00442064 0.0252861 339.655 339.655 1000.81 
168 1 1 0.140345 0.0639993 0.00997011 0 0 0 0.0715992 -0.0169139 0.000454964 -0.000131137 -0.000718554 0.000509601 0.0715992 -0.0169139 0.000454964 437.673 437.673 1001.04 
169 1 1 0.137607 0.077337 0.0220087 0 0 0 -0.0137296 0.00391083 0.0291766 0.000133641 -0.000697713 0.000917565 -0.0137296 0.00391083 0.0291766 381.104 381.104 1000.9 
170 1 1 0.170291 0.0782863 0.00997255 0 0 0 0.0515785 0.00667985 -0.000149499 0.000173573 -0.00071877 0.00089751 0.0515785 0.00667985 -0.000149499 474.815 474.815 1001.13 
171 1 1 0.00997657 0.090008 0.00995953 0 0 0 -0.0010803 -0.0113927 -0.00997309 0.0129276 0.00730002 0.0140301 -0.0010803 -0.0113927 -0.00997309 427.554 427.554 1001.01 
172 1 1 0.0223803 0.0900196 0.00997226 0 0 0 -0.00182186 -0.00174511 -0.00531545 0.000191585 -0.0021313 -0.00276895 -0.00182186 -0.00174511 -0.00531545 339.68 339.68 1000.81 
173 1 1 0.0371322 0.090025 0.00998287 0 0 0 0.0546276 0.00411002 -0.00222436 -0.00103087 -0.0080224 -0.0129273 0.0546276 0.00411002 -0.00222436 316.527 316.527 1000.75 
174 1 1 0.0475433 0.090016 0.00996997 0 0 0 0.0298322 -0.00541958 -0.00612083 -0.00172675 0.000721379 0.0010264 0.0298322 -0.00541958 -0.00612083 352.784 352.784 1000.84 
175 1 1 0.0767635 0.090021 0.009973 0 0 0 0.0701951 -0.00526184 -0.00488211 -0.000375244 -0.00441097 -0.00383159 0.0701951 -0.00526184 -0.00488211 374.92 374.92 1000.89 