ITEM: TIMESTEP
76000
ITEM: NUMBER OF ATOMS
2655
ITEM: BOX BOUNDS ff ff ff
0 0.5
0 0.1
0 0.5
ITEM: ATOMS id type type x y z ix iy iz vx vy vz fx fy fz vx vy vz p p rho 
1 1 1 0.0099781 0.00998763 0.00997051 0 0 0 0.00439239 0.0104051 -0.000250969 -0.00683472 0.00453879 0.0215098 0.00439239 0.0104051 -0.000250969 731.598 731.598 1001.73 
2 1 1 0.0260462 0.00998237 0.0099984 0 0 0 -0.0248514 0.00261614 -0.00799907 0.00433563 0.00706319 -0.00630917 -0.0248514 0.00261614 -0.00799907 713.878 713.878 1001.69 
3 1 1 0.0232551 0.00999502 0.00999782 0 0 0 0.0156421 0.00611582 0.00510823 0.00100824 -0.00476351 -0.00545012 0.0156421 0.00611582 0.00510823 749.656 749.656 1001.78 
4 1 1 0.0569058 0.00999628 0.00998644 0 0 0 -0.00543238 -0.00316904 -0.00138599 0.00150485 -0.00842061 0.00308086 -0.00543238 -0.00316904 -0.00138599 552.153 552.153 1001.31 
5 1 1 0.0608224 0.00998016 0.00998148 0 0 0 0.0235769 0.00564063 -0.00912383 0.00181901 0.00731829 0.00767112 0.0235769 0.00564063 -0.00912383 547.841 547.841 1001.3 
6 1 1 0.0783955 0.0099858 0.0099755 0 0 0 -0.0257194 -3.2079e-06 0.00137906 0.000354771 0.00121241 0.0129044 -0.0257194 -3.2079e-06 0.00137906 556.483 556.483 1001.32 
7 1 1 0.0916719 0.00999053 0.0099838 0 0 0 -0.0263359 -0.00441511 0.00398006 0.000326147 -0.00395124 0.0044689 -0.0263359 -0.00441511 0.00398006 560.408 560.408 1001.33 
8 1 1 0.101293 0.0099906 0.0099843 0 0 0 -0.0329971 0.000624794 0.00588407 -0.00212176 -0.00480136 0.00204471 -0.0329971 0.000624794 0.00588407 558.47 558.47 1001.32 
9 1 1 0.109986 0.00998072 0.0099925 0 0 0 -0.025677 0.0043777 -0.000756878 -0.000136143 0.00399053 -0.00664535 -0.025677 0.0043777 -0.000756878 569.84 569.84 1001.35 
10 1 1 0.123917 0.00998981 0.00997623 0 0 0 -0.0273008 9.19526e-05 -0.00208465 -0.000842519 -0.00426459 0.00797625 -0.0273008 9.19526e-05 -0.00208465 561.838 561.838 1001.33 
11 1 1 0.0099797 0.0237453 0.009983 0 0 0 0.00634124 0.00147629 -0.00824821 -0.000678727 -0.000930659 -0.00381452 0.00634124 0.00147629 -0.00824821 537.228 537.228 1001.27 
12 1 1 0.0266374 0.0325021 0.00998365 0 0 0 0.00257691 -0.02042 -0.000291939 -0.000620542 0.000453019 -0.000384668 0.00257691 -0.02042 -0.000291939 499.744 499.744 1001.19 
13 1 1 0.0241402 0.0248094 0.00998363 0 0 0 -0.0140864 -0.0195655 -0.00232649 0.00114555 -0.00181093 -0.00158016 -0.0140864 -0.0195655 -0.00232649 567.912 567.912 1001.35 
14 1 1 0.085362 0.0225979 0.0099826 0 0 0 -0.0496566 0.0468076 0.00271638 -0.000149103 -0.00112624 0.000513147 -0.0496566 0.0468076 0.00271638 488.309 488.309 1001.16 
15 1 1 0.071543 0.0242178 0.00998329 0 0 0 -0.0164849 -0.0157848 0.00169187 0.00056344 -0.00370569 -0.00121285 -0.0164849 -0.0157848 0.00169187 467.768 467.768 1001.11 
16 1 1 0.0983452 0.0257692 0.00998039 0 0 0 -0.0681612 0.0377731 0.000893046 -0.000165506 -0.000636681 0.00160558 -0.0681612 0.0377731 0.000893046 489.364 489.364 1001.16 
17 1 1 0.0932581 0.0411801 0.00997941 0 0 0 -0.0274142 -0.0361213 -1.05364e-05 0.000892048 0.000981971 0.00227821 -0.0274142 -0.0361213 -1.05364e-05 442.707 442.707 1001.05 
18 1 1 0.121604 0.0332436 0.00997906 0 0 0 -0.0338452 -0.0179941 -0.000547117 0.000681878 0.000434934 0.000425852 -0.0338452 -0.0179941 -0.000547117 461.245 461.245 1001.09 
19 1 1 0.108999 0.0220089 0.00998182 0 0 0 -0.0625391 0.00642032 0.000856225 0.00123519 0.00158936 -0.000501301 -0.0625391 0.00642032 0.000856225 481.49 481.49 1001.14 
20 1 1 0.145604 0.023614 0.009974 0 0 0 -0.0726271 0.0345603 -0.00248916 -0.000508684 -0.00146464 0.00513308 -0.0726271 0.0345603 -0.00248916 494.137 494.137 1001.17 
21 1 1 0.00997634 0.0244912 0.00998584 0 0 0 -0.000406638 -0.0117858 -0.00204161 0.00290165 0.000612816 -0.00688819 -0.000406638 -0.0117858 -0.00204161 521.024 521.024 1001.24 
22 1 1 0.0364525 0.0379776 0.00998147 0 0 0 -0.0224723 -0.022783 0.000153362 0.00170295 -3.90539e-05 0.00100716 -0.0224723 -0.022783 0.000153362 461.566 461.566 1001.1 
23 1 1 0.054749 0.0412761 0.00998067 0 0 0 0.00530592 0.0259728 0.0016218 -0.000431343 -0.000507035 0.00132748 0.00530592 0.0259728 0.0016218 446.926 446.926 1001.06 
24 1 1 0.0800499 0.0290395 0.00998128 0 0 0 0.00576052 0.00407132 0.000400033 -5.26837e-05 0.000658547 0.000444244 0.00576052 0.00407132 0.000400033 465.342 465.342 1001.1 
25 1 1 0.101071 0.0376188 0.0099816 0 0 0 -0.00904744 0.0266382 -0.00120581 -0.000113276 -0.00193142 -0.000636638 -0.00904744 0.0266382 -0.00120581 454.924 454.924 1001.08 
26 1 1 0.102959 0.0231034 0.00997927 0 0 0 -0.0400417 0.018168 0.00160397 0.000184426 6.40279e-05 0.00254661 -0.0400417 0.018168 0.00160397 489.027 489.027 1001.16 
27 1 1 0.13085 0.0429842 0.00997876 0 0 0 -0.0735867 0.0324168 -0.000613336 -0.000930423 0.000246929 0.000566554 -0.0735867 0.0324168 -0.000613336 457.714 457.714 1001.09 
28 1 1 0.107043 0.0328457 0.00998106 0 0 0 -0.0160295 -0.0394786 -0.00165251 -0.00144413 0.000163453 0.000127541 -0.0160295 -0.0394786 -0.00165251 469.766 469.766 1001.11 
29 1 1 0.133304 0.0237233 0.00998034 0 0 0 -0.031052 0.0228502 -0.000548827 -0.00119897 -0.00198164 -0.00106168 -0.031052 0.0228502 -0.000548827 481.381 481.381 1001.14 
30 1 1 0.141227 0.0321829 0.00997554 0 0 0 -0.0798283 0.0122736 -0.00211288 -0.000277815 0.000773717 0.0027822 -0.0798283 0.0122736 -0.00211288 469.799 469.799 1001.11 
31 1 1 0.00997902 0.0375412 0.00998258 0 0 0 0.00186921 -0.00763673 0.0015561 0.00179579 -0.00124515 -0.00297952 0.00186921 -0.00763673 0.0015561 514.016 514.016 1001.22 
32 1 1 0.0224657 0.0425392 0.0099848 0 0 0 0.000834887 -0.012434 6.88072e-05 8.85347e-05 -0.000395627 0.000119079 0.000834887 -0.012434 6.88072e-05 499.984 499.984 1001.19 
33 1 1 0.0477756 0.0349675 0.00998141 0 0 0 -0.0124736 -0.0197987 0.000683303 0.000926273 0.00146587 0.000883622 -0.0124736 -0.0197987 0.000683303 445.473 445.473 1001.06 
34 1 1 0.0677526 0.0373846 0.00998063 0 0 0 -0.0171338 -0.00433519 -0.000449354 0.00011055 0.00029518 0.00109878 -0.0171338 -0.00433519 -0.000449354 442.621 442.621 1001.05 
35 1 1 0.0724356 0.0415949 0.00998046 0 0 0 -0.0216926 0.0185833 -6.735e-05 0.000468948 -0.000647419 0.000967654 -0.0216926 0.0185833 -6.735e-05 439.973 439.973 1001.04 
36 1 1 0.0906286 0.0302314 0.0099835 0 0 0 0.00111368 -0.0184713 -0.000182124 0.000133507 0.00012455 -0.0014119 0.00111368 -0.0184713 -0.000182124 463.611 463.611 1001.1 
37 1 1 0.115216 0.0405814 0.00998012 0 0 0 -0.0476598 -0.0119804 -0.000667431 0.000142389 -0.000208446 -0.000600912 -0.0476598 -0.0119804 -0.000667431 449.268 449.268 1001.07 
38 1 1 0.123156 0.0415185 0.0099789 0 0 0 -0.0588646 -0.00611135 -0.00075107 -0.000497445 -0.000969381 0.00044312 -0.0588646 -0.00611135 -0.00075107 451.808 451.808 1001.07 
39 1 1 0.143177 0.042896 0.00997891 0 0 0 -0.0203034 -0.0045591 -0.00137237 -0.0021965 0.000196344 -0.000131935 -0.0203034 -0.0045591 -0.00137237 456.433 456.433 1001.08 
40 1 1 0.155573 0.0364594 0.00997979 0 0 0 -0.0266391 -0.0250837 -0.00380799 -0.00142781 0.0001229 -0.000404844 -0.0266391 -0.0250837 -0.00380799 462.824 462.824 1001.1 
41 1 1 0.00998537 0.0525453 0.00997324 0 0 0 -0.00182401 0.01603 0.00254845 -0.00686824 0.000193234 0.00605363 -0.00182401 0.01603 0.00254845 507.833 507.833 1001.2 
42 1 1 0.0341931 0.0499215 0.00998327 0 0 0 -0.00142836 0.00311739 0.000165807 0.000111294 0.000247947 0.000225144 -0.00142836 0.00311739 0.000165807 481.116 481.116 1001.14 
43 1 1 0.0483833 0.0499905 0.00998195 0 0 0 -0.0344468 0.000983702 4.21443e-05 0.000670867 -9.2789e-05 0.000379303 -0.0344468 0.000983702 4.21443e-05 451.033 451.033 1001.07 
44 1 1 0.0681207 0.0499758 0.00998229 0 0 0 -0.0425105 0.000512396 0.000748806 -0.000267937 -0.000128829 0.000529341 -0.0425105 0.000512396 0.000748806 435.71 435.71 1001.03 
45 1 1 0.0823929 0.0499964 0.00998073 0 0 0 -0.0308027 -2.96405e-05 0.000333335 7.89975e-05 -0.0001039 2.09958e-05 -0.0308027 -2.96405e-05 0.000333335 452.449 452.449 1001.07 
46 1 1 0.0878284 0.0499776 0.00998285 0 0 0 0.0157796 4.21111e-05 0.000234289 0.00103694 -3.91453e-05 -0.00134949 0.0157796 4.21111e-05 0.000234289 441.29 441.29 1001.05 
47 1 1 0.0952913 0.0499887 0.00997921 0 0 0 -0.00948038 0.000289721 0.000652189 -0.000955019 -2.33998e-05 0.00203499 -0.00948038 0.000289721 0.000652189 437.084 437.084 1001.04 
48 1 1 0.123193 0.049993 0.00997953 0 0 0 -0.0328498 -0.000237568 -0.00140191 -0.000749047 -3.52594e-05 -0.000789858 -0.0328498 -0.000237568 -0.00140191 450.943 450.943 1001.07 
49 1 1 0.110152 0.0499814 0.0099773 0 0 0 0.00331047 -0.000134117 -0.000726003 -0.000727142 -4.03948e-05 0.00160371 0.00331047 -0.000134117 -0.000726003 442.069 442.069 1001.05 
50 1 1 0.151593 0.0499899 0.00997937 0 0 0 -0.0297143 -0.000101388 -0.00137592 -0.00163784 -6.46226e-05 -0.000104658 -0.0297143 -0.000101388 -0.00137592 458.105 458.105 1001.09 
51 1 1 0.00997761 0.0626976 0.00998494 0 0 0 0.0017178 0.0111575 -0.000287279 0.00377693 0.000466354 -0.00503974 0.0017178 0.0111575 -0.000287279 525.803 525.803 1001.25 
52 1 1 0.0225088 0.0573332 0.00998285 0 0 0 0.00164893 0.0123034 -0.000413223 0.000181666 0.000346667 0.000685361 0.00164893 0.0123034 -0.000413223 493.164 493.164 1001.17 
53 1 1 0.0477553 0.0649463 0.00998102 0 0 0 -0.0129849 0.0203255 0.000962989 0.00083092 -0.00132525 0.000873137 -0.0129849 0.0203255 0.000962989 447.219 447.219 1001.06 
54 1 1 0.0677528 0.0625795 0.00998084 0 0 0 -0.0161798 0.00463292 -0.000373175 8.84097e-05 -0.00030139 0.000885622 -0.0161798 0.00463292 -0.000373175 446.277 446.277 1001.06 
55 1 1 0.0724748 0.0583988 0.0099806 0 0 0 -0.0219373 -0.0171833 -0.000115307 0.000423946 0.000502745 0.000755866 -0.0219373 -0.0171833 -0.000115307 443.914 443.914 1001.05 
56 1 1 0.0906093 0.0697803 0.00998409 0 0 0 0.000380475 0.018629 -0.000540358 0.00025515 -0.000555786 -0.00206705 0.000380475 0.018629 -0.000540358 465.757 465.757 1001.11 
57 1 1 0.115199 0.0594063 0.00998001 0 0 0 -0.0480551 0.0120621 -0.00055996 0.000117328 0.000131569 -0.000524092 -0.0480551 0.0120621 -0.00055996 449.988 449.988 1001.07 
58 1 1 0.123154 0.058481 0.00997868 0 0 0 -0.0591344 0.00700881 -0.000692195 -0.000505355 0.000882925 0.000642845 -0.0591344 0.00700881 -0.000692195 452.165 452.165 1001.07 
59 1 1 0.14321 0.0571147 0.00997883 0 0 0 -0.0202481 0.00467067 -0.00139813 -0.00224572 -0.000335341 -8.26993e-05 -0.0202481 0.00467067 -0.00139813 457.338 457.338 1001.09 
60 1 1 0.155498 0.0636217 0.00997934 0 0 0 -0.0281503 0.0265627 -0.00396159 -0.00150845 -0.000272101 9.41077e-06 -0.0281503 0.0265627 -0.00396159 464.471 464.471 1001.1 
61 1 1 0.00997283 0.0755736 0.00998093 0 0 0 -0.00353339 0.0181563 0.000806953 0.00678791 0.00131105 -0.00188108 -0.00353339 0.0181563 0.000806953 550.297 550.297 1001.31 
62 1 1 0.0365554 0.06204 0.00998133 0 0 0 -0.0207721 0.0272877 0.00109515 0.00153776 -0.000106471 0.00058145 -0.0207721 0.0272877 0.00109515 462.471 462.471 1001.1 
63 1 1 0.0547195 0.0587241 0.00998099 0 0 0 0.00249618 -0.0232149 0.00179944 -0.000570657 0.000443704 0.00115003 0.00249618 -0.0232149 0.00179944 449.726 449.726 1001.07 
64 1 1 0.0800387 0.0709326 0.00998203 0 0 0 0.00587264 -0.00445417 -0.000187875 -0.000110718 -0.000991887 -0.00038999 0.00587264 -0.00445417 -0.000187875 468.935 468.935 1001.11 
65 1 1 0.101056 0.0623725 0.00998163 0 0 0 -0.00945883 -0.0264521 -0.00108123 -8.4428e-05 0.00184643 -0.000654404 -0.00945883 -0.0264521 -0.00108123 455.519 455.519 1001.08 
66 1 1 0.102985 0.0768702 0.00998057 0 0 0 -0.0395391 -0.0170902 0.000904639 0.000436614 -0.000373951 0.00111937 -0.0395391 -0.0170902 0.000904639 491.512 491.512 1001.17 
67 1 1 0.130815 0.0569948 0.0099786 0 0 0 -0.0743382 -0.031759 -0.000553258 -0.000953511 -0.000323123 0.00071107 -0.0743382 -0.031759 -0.000553258 457.812 457.812 1001.09 
68 1 1 0.10703 0.0671465 0.00998103 0 0 0 -0.0167865 0.0394217 -0.00162334 -0.00147284 -0.000343557 0.000136774 -0.0167865 0.0394217 -0.00162334 470.271 470.271 1001.12 
69 1 1 0.133285 0.0762503 0.00998006 0 0 0 -0.0315682 -0.022845 -0.00172797 -0.00134756 0.00174933 -0.000862006 -0.0315682 -0.022845 -0.00172797 482.875 482.875 1001.15 
70 1 1 0.141244 0.0678407 0.00997566 0 0 0 -0.0799745 -0.0117324 -0.00157248 -0.00033669 -0.000908492 0.00260151 -0.0799745 -0.0117324 -0.00157248 472.286 472.286 1001.12 
71 1 1 0.0099813 0.0761525 0.00997457 0 0 0 0.00493857 0.000348826 -0.00562539 -0.00185763 0.00304734 0.0045413 0.00493857 0.000348826 -0.00562539 567.229 567.229 1001.35 
72 1 1 0.0266924 0.0675009 0.009983 0 0 0 0.00226455 0.0221334 0.000709986 -0.000609851 -0.000221709 -0.000443692 0.00226455 0.0221334 0.000709986 496.685 496.685 1001.18 
73 1 1 0.0240196 0.07516 0.00998334 0 0 0 -0.0143487 0.0196886 -0.00184665 0.00189978 0.00330785 -0.00142861 -0.0143487 0.0196886 -0.00184665 558.844 558.844 1001.33 
74 1 1 0.085404 0.077391 0.00998314 0 0 0 -0.0504916 -0.0462514 0.00349036 -0.000233841 0.000101383 -6.82163e-05 -0.0504916 -0.0462514 0.00349036 499.084 499.084 1001.18 
75 1 1 0.0716014 0.0757477 0.00998321 0 0 0 -0.0190393 0.015383 0.00132496 0.000102426 0.0030061 -0.0011456 -0.0190393 0.015383 0.00132496 471.404 471.404 1001.12 
76 1 1 0.0983525 0.0742364 0.00998092 0 0 0 -0.0674517 -0.0371211 0.000348487 0.000154965 0.000215597 0.000982607 -0.0674517 -0.0371211 0.000348487 492.168 492.168 1001.17 
77 1 1 0.0932487 0.0588209 0.00997953 0 0 0 -0.0280777 0.0365658 7.34759e-05 0.000913454 -0.00111762 0.00214348 -0.0280777 0.0365658 7.34759e-05 443.303 443.303 1001.05 
78 1 1 0.121632 0.0667057 0.00997907 0 0 0 -0.0328131 0.017325 -0.000827878 0.00067622 -0.00063882 0.00037677 -0.0328131 0.017325 -0.000827878 462.408 462.408 1001.1 
79 1 1 0.109035 0.0780103 0.00998232 0 0 0 -0.0628605 -0.00708915 0.000190952 0.00116401 -0.00180682 -0.00110095 -0.0628605 -0.00708915 0.000190952 484.659 484.659 1001.15 
80 1 1 0.145568 0.0763975 0.00997454 0 0 0 -0.0729292 -0.034185 -0.00245356 -0.000467211 0.00102069 0.00448576 -0.0729292 -0.034185 -0.00245356 497.781 497.781 1001.18 
81 1 1 0.00996517 0.0900006 0.00998929 0 0 0 0.00520718 -0.0041575 -0.00565069 0.00914035 0.00817258 0.0011902 0.00520718 -0.0041575 -0.00565069 673.969 673.969 1001.6 
82 1 1 0.0261652 0.0900092 0.00999386 0 0 0 -0.0231377 -0.010757 -0.016805 0.00318268 0.0017645 -0.00267438 -0.0231377 -0.010757 -0.016805 634.5 634.5 1001.5 
83 1 1 0.0232268 0.0900093 0.00999153 0 0 0 0.0078005 -0.00382808 -0.00496034 0.0017297 0.00115781 -0.000650401 0.0078005 -0.00382808 -0.00496034 649.395 649.395 1001.54 
84 1 1 0.0569416 0.090007 0.00998548 0 0 0 -0.0132645 0.000151874 -0.00443199 0.00169779 0.00518364 0.00461062 -0.0132645 0.000151874 -0.00443199 585.232 585.232 1001.39 
85 1 1 0.0608547 0.0900122 0.00999132 0 0 0 0.0203325 0.00806693 0.00247289 0.0021977 0.000249765 -0.00189818 0.0203325 0.00806693 0.00247289 570.594 570.594 1001.35 
86 1 1 0.078457 0.0900162 0.00997518 0 0 0 -0.0235682 -0.00152047 -0.000679731 0.000150195 -0.00309553 0.0133121 -0.0235682 -0.00152047 -0.000679731 584.767 584.767 1001.39 
87 1 1 0.0917036 0.0900044 0.00998838 0 0 0 -0.0250412 0.00046997 0.0102567 0.00111596 0.00915743 5.31068e-07 -0.0250412 0.00046997 0.0102567 600.353 600.353 1001.42 
88 1 1 0.101332 0.0900176 0.00998058 0 0 0 -0.0314055 -0.00199963 0.00305754 -0.00101502 -0.00327544 0.00561667 -0.0314055 -0.00199963 0.00305754 568.022 568.022 1001.35 
89 1 1 0.110016 0.0900145 0.00999239 0 0 0 -0.0254247 0.000830192 -0.000371195 1.63444e-05 0.000931142 -0.00665505 -0.0254247 0.000830192 -0.000371195 569.664 569.664 1001.35 
90 1 1 0.123945 0.0900093 0.00997677 0 0 0 -0.0267652 0.000675135 -0.00453451 -0.000779048 0.00527805 0.007363 -0.0267652 0.000675135 -0.00453451 557.798 557.798 1001.32 
91 1 1 0.00996157 0.00998534 0.00997946 0 0 0 0.00537886 -0.010768 0.0291079 0.00973753 0.00683811 0.012628 0.00537886 -0.010768 0.0291079 733.02 733.02 1001.74 
92 1 1 0.0181953 0.00998807 0.00999926 0 0 0 -0.00101538 0.0062528 -0.0031987 0.00439035 0.00188096 -0.00785801 -0.00101538 0.0062528 -0.0031987 750.213 750.213 1001.78 
93 1 1 0.0306677 0.00999249 0.00997705 0 0 0 0.0162099 -0.002365 0.00568756 0.0058336 -0.0044631 0.0141643 0.0162099 -0.002365 0.00568756 675.903 675.903 1001.6 
94 1 1 0.0393224 0.00997894 0.00999974 0 0 0 -0.00179476 -0.00441443 -0.015302 0.00335303 0.00886949 -0.0103424 -0.00179476 -0.00441443 -0.015302 579.925 579.925 1001.38 
95 1 1 0.0651909 0.00998519 0.00999243 0 0 0 -0.00368543 -0.00592937 -0.0127512 0.00161165 0.00216025 -0.00377926 -0.00368543 -0.00592937 -0.0127512 527.467 527.467 1001.25 
96 1 1 0.0874831 0.00997603 0.00998466 0 0 0 -0.0248704 0.0034644 -0.00296679 0.000381091 0.0104659 0.00424685 -0.0248704 0.0034644 -0.00296679 559.333 559.333 1001.33 
97 1 1 0.095536 0.00998627 0.00998815 0 0 0 -0.0158642 -0.00240453 -0.0128547 0.0013922 0.00038151 -0.000927362 -0.0158642 -0.00240453 -0.0128547 540.63 540.63 1001.28 
98 1 1 0.104492 0.00998644 0.00998411 0 0 0 0.00650533 0.00140669 0.00193401 0.00130372 -0.00139084 0.00206338 0.00650533 0.00140669 0.00193401 561.484 561.484 1001.33 
99 1 1 0.114577 0.00998049 0.00998823 0 0 0 -0.0532669 -0.00753193 0.0034746 7.41265e-05 0.00505359 -0.00296105 -0.0532669 -0.00753193 0.0034746 555.801 555.801 1001.32 
100 1 1 0.118602 0.00998171 0.00998942 0 0 0 -0.0486497 0.00185566 -0.00432927 0.000749776 0.00410506 -0.00486747 -0.0486497 0.00185566 -0.00432927 553.584 553.584 1001.31 
101 1 1 0.00998439 0.0230202 0.0211485 0 0 0 0.00379876 -0.0346378 -0.00692253 0.00305089 -0.000259364 -0.000537796 0.00379876 -0.0346378 -0.00692253 428.415 428.415 1001.02 
102 1 1 0.0202381 0.0248765 0.00998482 0 0 0 -0.018392 -0.00842559 -0.00361922 0.000131844 -0.00120003 -0.00357709 -0.018392 -0.00842559 -0.00361922 585.162 585.162 1001.39 
103 1 1 0.0351865 0.0221878 0.0229377 0 0 0 0.0165461 0.0275269 0.0522216 0.000158761 -0.000205874 -8.88289e-05 0.0165461 0.0275269 0.0522216 285.809 285.809 1000.68 
104 1 1 0.0842532 0.0213169 0.0383958 0 0 0 -0.066766 -0.00824695 0.0780412 5.29584e-06 1.06817e-05 -0.00121285 -0.066766 -0.00824695 0.0780412 136.739 136.739 1000.33 
105 1 1 0.126187 0.0211639 0.0416244 0 0 0 -0.0236106 0.0125599 -0.000939169 -0.00039065 -6.06825e-05 0.00039091 -0.0236106 0.0125599 -0.000939169 128.011 128.011 1000.3 
106 1 1 0.121365 0.0240102 0.00997592 0 0 0 -0.0123627 -0.00537427 0.00766873 -0.0010793 -0.000857122 0.00335779 -0.0123627 -0.00537427 0.00766873 479.018 479.018 1001.14 
107 1 1 0.170283 0.0219979 0.0266564 0 0 0 0.00398747 -0.0151017 -0.00139428 -0.000188685 -0.000245171 6.56217e-05 0.00398747 -0.0151017 -0.00139428 299.486 299.486 1000.71 
108 1 1 0.132058 0.0311959 0.00997837 0 0 0 -0.045344 0.0584905 -0.00411784 -0.0011357 -9.17053e-05 -4.42136e-05 -0.045344 0.0584905 -0.00411784 467.301 467.301 1001.11 
109 1 1 0.189589 0.0212006 0.0241315 0 0 0 -0.0484913 -0.0228215 0.00494025 0.000541105 0.00105484 0.000335636 -0.0484913 -0.0228215 0.00494025 372.693 372.693 1000.89 
110 1 1 0.167454 0.0220907 0.00998098 0 0 0 -0.0820184 -0.0231174 3.85511e-05 -0.00130585 0.00055207 -0.000129204 -0.0820184 -0.0231174 3.85511e-05 555.194 555.194 1001.32 
111 1 1 0.0099802 0.0316208 0.00997925 0 0 0 0.00422563 0.0213672 -0.000476775 0.000831813 -0.000958907 -0.000477641 0.00422563 0.0213672 -0.000476775 490.16 490.16 1001.16 
112 1 1 0.0226077 0.0255293 0.0427457 0 0 0 0.0587122 0.0134192 -0.0426107 0.00036432 -0.000280848 -0.00216393 0.0587122 0.0134192 -0.0426107 76.0857 76.0857 1000.18 
113 1 1 0.0413002 0.0327009 0.00998234 0 0 0 -0.00356216 0.0101671 -5.80304e-05 0.000102357 -0.000488895 -0.000224751 -0.00356216 0.0101671 -5.80304e-05 445.454 445.454 1001.06 
114 1 1 0.0530791 0.0243835 0.0099846 0 0 0 -0.0234414 0.00513772 0.000349741 0.000577525 -0.00246811 -0.000611544 -0.0234414 0.00513772 0.000349741 461.403 461.403 1001.09 
115 1 1 0.0813015 0.0213912 0.0235991 0 0 0 -0.0581554 0.00583698 0.017468 -0.000404943 -0.000860511 -0.00221194 -0.0581554 0.00583698 0.017468 289.956 289.956 1000.69 
116 1 1 0.0905788 0.0368752 0.00998145 0 0 0 -0.0215641 0.0346733 -0.000116938 -0.000910369 -0.000570675 0.0005096 -0.0215641 0.0346733 -0.000116938 451 451 1001.07 
117 1 1 0.165839 0.028147 0.0231608 0 0 0 -0.025311 -0.00848849 0.0552338 -0.000528788 0.000111981 -0.00034622 -0.025311 -0.00848849 0.0552338 333.403 333.403 1000.79 
118 1 1 0.183703 0.0251468 0.0225829 0 0 0 -0.0485628 0.0199361 -0.00914214 -0.000354217 -0.000236573 0.0019263 -0.0485628 0.0199361 -0.00914214 378.079 378.079 1000.9 
119 1 1 0.139975 0.0218534 0.00997799 0 0 0 -0.0532588 0.0248615 -0.000326212 -0.0012023 0.000445936 0.00115672 -0.0532588 0.0248615 -0.000326212 489.355 489.355 1001.16 
120 1 1 0.197988 0.0240316 0.0223505 0 0 0 -0.0326551 -0.0126281 0.0120292 -0.00135819 -6.69374e-05 0.00203766 -0.0326551 -0.0126281 0.0120292 407.321 407.321 1000.97 
121 1 1 0.00997662 0.041264 0.0099817 0 0 0 0.00350671 0.00740243 -0.00191972 0.00332116 0.00181534 -0.00169527 0.00350671 0.00740243 -0.00191972 519.484 519.484 1001.23 
122 1 1 0.0215624 0.0373388 0.00998713 0 0 0 0.0122007 0.00378083 -0.000917423 -0.000120887 -0.00199028 -0.00311424 0.0122007 0.00378083 -0.000917423 496.281 496.281 1001.18 
123 1 1 0.0317878 0.022737 0.00998575 0 0 0 -0.0861624 -0.00581561 0.00235804 0.00158075 0.000812607 -0.00357523 -0.0861624 -0.00581561 0.00235804 509.085 509.085 1001.21 
124 1 1 0.067336 0.0295522 0.00998216 0 0 0 -0.0263866 0.0266385 0.000602915 0.000366406 0.000200871 -0.000393808 -0.0263866 0.0266385 0.000602915 463.88 463.88 1001.1 
125 1 1 0.0785448 0.0363383 0.00997957 0 0 0 -0.0130546 0.0098474 0.000312409 -4.55921e-05 0.000140824 0.000969767 -0.0130546 0.0098474 0.000312409 439.705 439.705 1001.04 
126 1 1 0.113384 0.0337133 0.00998037 0 0 0 -0.0371653 -0.0254997 2.03277e-05 0.00025201 0.000139547 -5.54808e-05 -0.0371653 -0.0254997 2.03277e-05 461.654 461.654 1001.1 
127 1 1 0.145646 0.0365797 0.0099786 0 0 0 -0.00888527 0.0383281 -0.000867319 -0.00215041 -0.000268763 3.60584e-05 -0.00888527 0.0383281 -0.000867319 465.171 465.171 1001.1 
128 1 1 0.132724 0.0381809 0.00997923 0 0 0 -0.0295663 0.0318533 0.000106547 0.000260914 -0.00140097 0.000330434 -0.0295663 0.0318533 0.000106547 468.534 468.534 1001.11 
129 1 1 0.126675 0.022855 0.00998331 0 0 0 -0.0474191 0.00184396 -0.00322228 0.000544868 -0.000441769 -0.00336629 -0.0474191 0.00184396 -0.00322228 478.419 478.419 1001.14 
130 1 1 0.171339 0.0323548 0.0099787 0 0 0 -0.0533484 -0.000686037 -0.00256394 -0.00216402 -0.000946433 -0.000534696 -0.0533484 -0.000686037 -0.00256394 518.721 518.721 1001.23 
131 1 1 0.00998006 0.047551 0.00997597 0 0 0 -0.00396772 -0.0169384 0.00251403 -0.0016736 -0.00102195 0.00377476 -0.00396772 -0.0169384 0.00251403 497.757 497.757 1001.18 
132 1 1 0.0200548 0.0498521 0.00998305 0 0 0 0.0326675 -0.00264529 0.00141443 0.00193976 0.000209482 0.000787439 0.0326675 -0.00264529 0.00141443 480.456 480.456 1001.14 
133 1 1 0.0401582 0.0499618 0.00998314 0 0 0 0.0110497 0.00158873 0.00180549 -0.000359296 3.6743e-05 -0.000730502 0.0110497 0.00158873 0.00180549 448.044 448.044 1001.06 
134 1 1 0.074634 0.0499726 0.00998079 0 0 0 0.00790683 0.00043943 0.00073543 0.000322411 -0.000119784 0.000573676 0.00790683 0.00043943 0.00073543 446.749 446.749 1001.06 
135 1 1 0.1156 0.049998 0.0099769 0 0 0 -0.0403377 0.000409323 -0.00109376 0.000146569 -1.85263e-05 0.00137893 -0.0403377 0.000409323 -0.00109376 447.578 447.578 1001.06 
136 1 1 0.129599 0.049991 0.0269129 0 0 0 -0.0367519 0.000194228 -0.00217026 -0.00104935 7.22388e-07 -0.000848086 -0.0367519 0.000194228 -0.00217026 245.557 245.557 1000.58 
137 1 1 0.161156 0.0499966 0.0231194 0 0 0 -0.0182107 0.000120561 0.000901621 -0.00134673 -3.94572e-05 -0.000531109 -0.0182107 0.000120561 0.000901621 297.049 297.049 1000.71 
138 1 1 0.134188 0.0499822 0.00997825 0 0 0 -0.00524453 7.14389e-05 -0.00171966 -0.00107658 -3.16332e-05 0.000443858 -0.00524453 7.14389e-05 -0.00171966 447.098 447.098 1001.06 
139 1 1 0.140985 0.0500182 0.00997838 0 0 0 -0.0411593 0.000539315 -0.00107822 -0.000183731 -5.06157e-05 -0.000121356 -0.0411593 0.000539315 -0.00107822 446.83 446.83 1001.06 
140 1 1 0.218439 0.0500003 0.0247804 0 0 0 -0.00633221 -0.000461513 -0.0371892 -0.00121231 -0.000103729 0.000837674 -0.00633221 -0.000461513 -0.0371892 337.44 337.44 1000.8 
141 1 1 0.00997548 0.0588341 0.00998322 0 0 0 0.00418293 -0.00725578 -0.00392255 0.0050364 -0.00242726 -0.00353902 0.00418293 -0.00725578 -0.00392255 530.845 530.845 1001.26 
142 1 1 0.021703 0.0625225 0.00998588 0 0 0 0.0141145 0.0052778 -0.00118476 0.000177356 0.00182062 -0.00312721 0.0141145 0.0052778 -0.00118476 488.091 488.091 1001.16 
143 1 1 0.0315152 0.0772111 0.00998535 0 0 0 -0.0864826 0.00508129 0.00515486 0.000903559 0.000954057 -0.00337063 -0.0864826 0.00508129 0.00515486 506.837 506.837 1001.2 
144 1 1 0.0673134 0.0704229 0.00998191 0 0 0 -0.02762 -0.0250005 0.000181471 8.70741e-05 -0.000172394 -0.000166003 -0.02762 -0.0250005 0.000181471 463.3 463.3 1001.1 
145 1 1 0.0785549 0.0636188 0.00997987 0 0 0 -0.0152374 -0.00964815 0.000179547 -3.45889e-05 -0.000264719 0.000642024 -0.0152374 -0.00964815 0.000179547 443.77 443.77 1001.05 
146 1 1 0.113382 0.066287 0.00998031 0 0 0 -0.036923 0.0256405 -1.90707e-05 0.000215657 -0.00032079 -2.57894e-05 -0.036923 0.0256405 -1.90707e-05 462.343 462.343 1001.1 
147 1 1 0.145645 0.0634211 0.00997872 0 0 0 -0.0087153 -0.0379541 -0.000748344 -0.00217071 0.000132501 -0.000126989 -0.0087153 -0.0379541 -0.000748344 466.997 466.997 1001.11 
148 1 1 0.132801 0.0617733 0.00997928 0 0 0 -0.0284093 -0.0320684 -2.91878e-05 0.000268674 0.00129942 0.000251752 -0.0284093 -0.0320684 -2.91878e-05 469.107 469.107 1001.11 
149 1 1 0.126669 0.0771162 0.00998335 0 0 0 -0.0477931 -0.00139162 -0.00265779 0.000564364 0.000494592 -0.00347456 -0.0477931 -0.00139162 -0.00265779 483.162 483.162 1001.15 
150 1 1 0.171333 0.0676371 0.00997847 0 0 0 -0.0536441 0.000705665 -0.00279352 -0.00227355 0.000754872 -0.000368473 -0.0536441 0.000705665 -0.00279352 522.423 522.423 1001.24 
151 1 1 0.00997925 0.0682787 0.00997912 0 0 0 -0.000613684 -0.0199925 0.000782566 0.00210457 0.000733093 0.000616808 -0.000613684 -0.0199925 0.000782566 507.507 507.507 1001.2 
152 1 1 0.0224989 0.0744553 0.0429798 0 0 0 0.0417774 -0.0144956 -0.0410511 0.00180924 0.000993621 -0.00305149 0.0417774 -0.0144956 -0.0410511 114.048 114.048 1000.27 
153 1 1 0.0412445 0.0673501 0.00998217 0 0 0 -0.0076304 -0.00592797 0.000482414 1.10504e-05 0.000683688 -0.000382373 -0.0076304 -0.00592797 0.000482414 443.993 443.993 1001.05 
154 1 1 0.0530789 0.0755648 0.00998491 0 0 0 -0.0229541 -0.00590373 -0.000428793 0.00087209 0.00145041 -0.00156171 -0.0229541 -0.00590373 -0.000428793 464.474 464.474 1001.1 
155 1 1 0.0811623 0.0787257 0.0236225 0 0 0 -0.0581884 -0.0018854 0.0194851 -0.000339777 0.000260932 -0.00173173 -0.0581884 -0.0018854 0.0194851 289.383 289.383 1000.69 
156 1 1 0.0905959 0.063118 0.00998168 0 0 0 -0.020853 -0.0345221 -0.000329629 -0.00080891 0.000346081 0.000241228 -0.020853 -0.0345221 -0.000329629 451.619 451.619 1001.07 
157 1 1 0.165837 0.0718487 0.0231627 0 0 0 -0.0256066 0.0085254 0.0551969 -0.000590763 -0.000197554 -0.000236648 -0.0256066 0.0085254 0.0551969 335.364 335.364 1000.8 
158 1 1 0.183703 0.0748518 0.0225823 0 0 0 -0.0489788 -0.0200687 -0.00893872 -0.000499661 6.43173e-05 0.00218924 -0.0489788 -0.0200687 -0.00893872 382.531 382.531 1000.91 
159 1 1 0.139938 0.0781402 0.00997836 0 0 0 -0.0535502 -0.0239912 -0.00119574 -0.00135055 -0.00106768 0.000649932 -0.0535502 -0.0239912 -0.00119574 492.563 492.563 1001.17 
160 1 1 0.197989 0.0759673 0.0223501 0 0 0 -0.0332245 0.0122619 0.0123871 -0.0015122 -0.000227977 0.00242832 -0.0332245 0.0122619 0.0123871 415.086 415.086 1000.99 
161 1 1 0.00998905 0.0774402 0.0213017 0 0 0 0.00386519 0.0259077 0.00163061 -0.00100421 0.000317154 -0.000843947 0.00386519 0.0259077 0.00163061 444.81 444.81 1001.06 
162 1 1 0.0202065 0.0750751 0.00998121 0 0 0 -0.0227435 0.00737936 -0.00335875 0.00145935 0.00270842 -0.000138963 -0.0227435 0.00737936 -0.00335875 580.749 580.749 1001.38 
163 1 1 0.0348731 0.0778541 0.0227455 0 0 0 0.0069982 -0.0234621 0.0520945 -0.000246373 0.000752346 -0.000416063 0.0069982 -0.0234621 0.0520945 293.156 293.156 1000.7 
164 1 1 0.0845745 0.0786299 0.0382407 0 0 0 -0.0633289 0.00696067 0.0738771 -4.51069e-05 -2.66998e-05 -0.00130396 -0.0633289 0.00696067 0.0738771 139.346 139.346 1000.33 
165 1 1 0.126209 0.0788079 0.0416137 0 0 0 -0.0234771 -0.0126652 -0.00161119 -0.000523737 0.000189888 0.000248822 -0.0234771 -0.0126652 -0.00161119 121.692 121.692 1000.29 
166 1 1 0.121369 0.0760154 0.00997503 0 0 0 -0.0128888 0.00667669 0.00699281 -0.000999725 0.000828372 0.00417759 -0.0128888 0.00667669 0.00699281 483.439 483.439 1001.15 
167 1 1 0.170283 0.0780018 0.0266561 0 0 0 0.00360071 0.0151773 -0.00140948 -0.000278234 0.000162413 0.000171357 0.00360071 0.0151773 -0.00140948 301.933 301.933 1000.72 
168 1 1 0.132025 0.0687626 0.00997869 0 0 0 -0.0452357 -0.0580262 -0.00363851 -0.00113255 -6.61015e-05 -0.000415882 -0.0452357 -0.0580262 -0.00363851 469.68 469.68 1001.11 
169 1 1 0.18959 0.0787987 0.0241314 0 0 0 -0.0490046 0.0225383 0.00520406 0.000370041 -0.00130128 0.000645149 -0.0490046 0.0225383 0.00520406 378.552 378.552 1000.9 
170 1 1 0.167456 0.0779097 0.00998091 0 0 0 -0.0824853 0.0234005 -0.000144788 -0.00146925 -0.000673019 -0.000118388 -0.0824853 0.0234005 -0.000144788 560.803 560.803 1001.33 
171 1 1 0.00997411 0.090017 0.0099852 0 0 0 0.000268356 -0.00583529 0.0229931 8.23893e-05 -0.00805601 0.00538507 0.000268356 -0.00583529 0.0229931 690.347 690.347 1001.64 
172 1 1 0.0183052 0.0900087 0.0099907 0 0 0 0.00655509 -0.00542982 0.00827084 0.00560254 0.00209496 -0.000938514 0.00655509 -0.00542982 0.00827084 672.385 672.385 1001.59 
173 1 1 0.0308223 0.0900093 0.0099917 0 0 0 0.0164845 0.00525281 -0.0152217 0.0023856 0.00289951 -0.000743534 0.0164845 0.00525281 -0.0152217 597.467 597.467 1001.42 
174 1 1 0.0393878 0.090016 0.00997714 0 0 0 -0.00906453 0.00718869 -0.0121594 -0.00104584 -0.00368369 0.0124278 -0.00906453 0.00718869 -0.0121594 571.812 571.812 1001.36 