ITEM: TIMESTEP
85000
ITEM: NUMBER OF ATOMS
2655
ITEM: BOX BOUNDS ff ff ff
0 0.5
0 0.1
0 0.5
ITEM: ATOMS id type type x y z ix iy iz vx vy vz fx fy fz vx vy vz p p rho 
1 1 1 0.00997189 0.00998569 0.00997221 0 0 0 -0.00115002 -0.00671631 0.0181913 0.00341872 0.00115359 0.0131155 -0.00115002 -0.00671631 0.0181913 617.467 617.467 1001.46 
2 1 1 0.0278292 0.00998238 0.00999213 0 0 0 -0.00975184 0.00602341 0.0138601 -0.00485979 -0.00105264 -0.00519944 -0.00975184 0.00602341 0.0138601 660.802 660.802 1001.57 
3 1 1 0.0222625 0.00998239 0.00999893 0 0 0 0.014285 -0.00773578 -0.00172422 -0.000221922 -0.00202414 -0.0130366 0.014285 -0.00773578 -0.00172422 606.386 606.386 1001.44 
4 1 1 0.0580965 0.0099746 0.00998352 0 0 0 -0.00287644 -0.00672371 0.00101435 -0.000663211 0.00682134 0.00253387 -0.00287644 -0.00672371 0.00101435 647.295 647.295 1001.53 
5 1 1 0.0620453 0.00998777 0.00997702 0 0 0 -0.0146755 0.00478183 0.00497486 0.000916032 -0.00584491 0.0101251 -0.0146755 0.00478183 0.00497486 666.064 666.064 1001.58 
6 1 1 0.0794042 0.00997975 0.00999266 0 0 0 -0.0236683 0.00102573 -0.0157609 -0.000345999 0.00176372 -0.00266665 -0.0236683 0.00102573 -0.0157609 645.876 645.876 1001.53 
7 1 1 0.0921051 0.00997507 0.00999192 0 0 0 -0.0161935 -0.00192785 0.0025508 0.000119529 0.00634204 -0.00231183 -0.0161935 -0.00192785 0.0025508 662.847 662.847 1001.57 
8 1 1 0.100775 0.00997817 0.00999565 0 0 0 0.0234761 -0.0027431 -0.00719379 -0.00138028 0.0019031 -0.00647545 0.0234761 -0.0027431 -0.00719379 648.46 648.46 1001.54 
9 1 1 0.10928 0.0099882 0.00997952 0 0 0 -0.00758525 0.00143214 0.000238355 -0.00182744 -0.0071713 0.0103506 -0.00758525 0.00143214 0.000238355 685.726 685.726 1001.62 
10 1 1 0.121956 0.00997963 0.00999057 0 0 0 0.00846035 -0.00436626 0.00882212 0.000283447 0.0017968 -2.51546e-05 0.00846035 -0.00436626 0.00882212 678.508 678.508 1001.61 
11 1 1 0.00997546 0.0217107 0.00997595 0 0 0 -0.00426953 0.0156488 0.00422362 -0.00326098 0.00142918 0.00683734 -0.00426953 0.0156488 0.00422362 580.526 580.526 1001.38 
12 1 1 0.0265892 0.0342447 0.00998088 0 0 0 0.00057602 0.0193813 0.000844098 -0.00138277 -0.00136207 0.000386054 0.00057602 0.0193813 0.000844098 576.917 576.917 1001.37 
13 1 1 0.0233302 0.022058 0.00997797 0 0 0 -0.0193574 0.021681 0.000974416 0.000656502 0.00290946 0.00284657 -0.0193574 0.021681 0.000974416 618.925 618.925 1001.47 
14 1 1 0.080854 0.0227681 0.00998545 0 0 0 -0.0471863 -0.0105592 -0.000143002 -0.00035349 4.10435e-05 -0.00272674 -0.0471863 -0.0105592 -0.000143002 607.958 607.958 1001.44 
15 1 1 0.067964 0.0231092 0.00998375 0 0 0 -0.0482753 0.0298886 -0.00120364 0.00188741 -0.000989761 0.000158636 -0.0482753 0.0298886 -0.00120364 608.344 608.344 1001.44 
16 1 1 0.0931192 0.0238914 0.009985 0 0 0 -0.0617925 -0.0814028 0.000623779 -0.00120468 -0.00102024 -0.0013252 -0.0617925 -0.0814028 0.000623779 596.96 596.96 1001.42 
17 1 1 0.0940205 0.0403188 0.00998318 0 0 0 -0.0243863 0.00789243 0.00125214 -0.00116902 0.000811006 -0.000575279 -0.0243863 0.00789243 0.00125214 560.821 560.821 1001.33 
18 1 1 0.12058 0.0326852 0.00998385 0 0 0 -0.0237099 0.00180193 -0.000189033 -0.000512227 -0.000170715 -0.000290723 -0.0237099 0.00180193 -0.000189033 575.734 575.734 1001.37 
19 1 1 0.105392 0.0236655 0.00998482 0 0 0 -0.0640966 -6.37061e-05 -0.000634907 -2.51924e-05 -0.0014673 -0.000606369 -0.0640966 -6.37061e-05 -0.000634907 615.045 615.045 1001.46 
20 1 1 0.13929 0.0224485 0.00998505 0 0 0 -0.0761559 -0.0172294 0.00496045 -0.000213322 0.000756789 -0.00103829 -0.0761559 -0.0172294 0.00496045 620.964 620.964 1001.47 
21 1 1 0.00997405 0.0258649 0.0099802 0 0 0 0.0023544 -0.0205777 -0.00240504 -0.00115023 -0.00106758 0.00229476 0.0023544 -0.0205777 -0.00240504 557.597 557.597 1001.32 
22 1 1 0.0349683 0.0370717 0.00998364 0 0 0 -0.0412018 -0.00226953 0.00077125 -7.10781e-05 -0.000824994 -0.000689489 -0.0412018 -0.00226953 0.00077125 541.399 541.399 1001.28 
23 1 1 0.0554609 0.0431203 0.00998409 0 0 0 0.0161345 0.0158846 0.000627476 -0.000306729 7.67125e-05 -0.00207927 0.0161345 0.0158846 0.000627476 521.757 521.757 1001.24 
24 1 1 0.0776578 0.0307524 0.00998336 0 0 0 -0.0654667 -0.00366856 0.000580426 -0.000360325 -0.000610865 -0.000427531 -0.0654667 -0.00366856 0.000580426 578.595 578.595 1001.37 
25 1 1 0.0982242 0.0364199 0.00998205 0 0 0 -0.05392 -0.0270203 -0.000771957 0.000367585 0.000324396 0.00129243 -0.05392 -0.0270203 -0.000771957 564.451 564.451 1001.34 
26 1 1 0.0990109 0.0222087 0.00998632 0 0 0 -0.0662714 0.0104461 0.00107862 -0.000161607 0.000647911 -0.00215897 -0.0662714 0.0104461 0.00107862 627.705 627.705 1001.49 
27 1 1 0.123817 0.0449581 0.00998354 0 0 0 -0.0711826 -0.0178952 -0.000260961 0.000150971 -0.00060164 -0.000472829 -0.0711826 -0.0178952 -0.000260961 568.63 568.63 1001.35 
28 1 1 0.101007 0.0306029 0.00998298 0 0 0 -0.0990964 -0.0351803 0.000228946 0.000100096 -0.000478717 0.00106267 -0.0990964 -0.0351803 0.000228946 592.3 592.3 1001.4 
29 1 1 0.128623 0.0235444 0.00998381 0 0 0 -0.0565954 0.0032117 -0.00103848 -3.35021e-05 -0.000741303 0.000107077 -0.0565954 0.0032117 -0.00103848 601.902 601.902 1001.43 
30 1 1 0.136126 0.0344445 0.00998458 0 0 0 -0.0614133 0.0042611 0.00160953 -7.16901e-05 -0.000566985 -0.000449284 -0.0614133 0.0042611 0.00160953 593.921 593.921 1001.41 
31 1 1 0.0099757 0.0372974 0.00998059 0 0 0 0.00220854 0.0441249 -0.00353851 -0.00142652 -0.00081411 0.00146137 0.00220854 0.0441249 -0.00353851 522.315 522.315 1001.24 
32 1 1 0.0210325 0.0414387 0.00998038 0 0 0 -0.00863753 -0.00690099 -0.000283639 0.000231193 0.00048418 0.000126671 -0.00863753 -0.00690099 -0.000283639 560.651 560.651 1001.33 
33 1 1 0.0470576 0.0360342 0.00998296 0 0 0 -0.0388983 0.0310649 0.00109724 -0.00111091 -0.000380149 -0.0016221 -0.0388983 0.0310649 0.00109724 527.1 527.1 1001.25 
34 1 1 0.0662874 0.0379659 0.00998298 0 0 0 -0.0530827 0.0346507 0.0011138 -0.00148843 7.5194e-05 2.66358e-05 -0.0530827 0.0346507 0.0011138 547.604 547.604 1001.3 
35 1 1 0.0712898 0.0429401 0.00998267 0 0 0 -0.0320393 -0.0016562 0.000365525 -0.000453238 -0.00141911 7.29637e-06 -0.0320393 -0.0016562 0.000365525 549.899 549.899 1001.3 
36 1 1 0.0887421 0.031219 0.00998157 0 0 0 -0.065305 0.0312627 -0.00134601 -0.000833384 -0.00099023 0.000833304 -0.065305 0.0312627 -0.00134601 579.169 579.169 1001.37 
37 1 1 0.110382 0.0394092 0.00998261 0 0 0 -0.0614964 -0.0221901 -0.000861959 0.000462845 -0.000453444 0.000610826 -0.0614964 -0.0221901 -0.000861959 568.925 568.925 1001.35 
38 1 1 0.117172 0.039002 0.00998327 0 0 0 -0.0773145 -0.0140706 -0.000112392 0.000228552 0.000739048 0.000167397 -0.0773145 -0.0140706 -0.000112392 571.977 571.977 1001.36 
39 1 1 0.137829 0.0434111 0.00998307 0 0 0 -0.0688696 -0.00188607 -0.000666032 0.000740033 -0.000508688 0.000174308 -0.0688696 -0.00188607 -0.000666032 564.893 564.893 1001.34 
40 1 1 0.150321 0.0353738 0.00998167 0 0 0 -0.0585872 0.00858335 0.000103357 0.000442677 0.000878996 0.00217202 -0.0585872 0.00858335 0.000103357 576.124 576.124 1001.37 
41 1 1 0.00996897 0.0526788 0.00998906 0 0 0 -0.00329132 -0.00806724 0.0036187 0.00523346 0.000235369 -0.00585532 -0.00329132 -0.00806724 0.0036187 497.479 497.479 1001.18 
42 1 1 0.0331507 0.0501511 0.00998259 0 0 0 -0.043557 0.0020178 -0.000159903 -0.000103543 0.000198826 0.000405348 -0.043557 0.0020178 -0.000159903 524.521 524.521 1001.24 
43 1 1 0.0460607 0.0499458 0.0099799 0 0 0 -0.0462633 0.00646345 0.000403808 -0.00148095 0.000339526 0.000531152 -0.0462633 0.00646345 0.000403808 515.939 515.939 1001.22 
44 1 1 0.0660813 0.0499062 0.0099824 0 0 0 -0.0395406 -0.00304768 1.50465e-05 -0.00154589 -0.000402219 -0.000274435 -0.0395406 -0.00304768 1.50465e-05 554.622 554.622 1001.32 
45 1 1 0.0810799 0.0500207 0.0099833 0 0 0 -0.0415733 -0.000473627 -0.000399496 -0.00132243 -0.000398781 0.000119161 -0.0415733 -0.000473627 -0.000399496 555.502 555.502 1001.32 
46 1 1 0.087437 0.049994 0.00998326 0 0 0 -0.0455922 -0.0010578 -0.00137725 -0.000293777 -0.000351697 0.000640857 -0.0455922 -0.0010578 -0.00137725 552.577 552.577 1001.31 
47 1 1 0.0930319 0.049956 0.00998517 0 0 0 -0.00192728 -0.00222853 0.00156186 0.000496754 -0.000344573 -0.00138558 -0.00192728 -0.00222853 0.00156186 564.784 564.784 1001.34 
48 1 1 0.118801 0.0499289 0.00998208 0 0 0 -0.0607576 -0.00191477 -0.000858857 0.000339135 -0.000127253 0.000897593 -0.0607576 -0.00191477 -0.000858857 558.722 558.722 1001.33 
49 1 1 0.106481 0.0498954 0.00998298 0 0 0 -0.0731441 -0.00205033 0.00112702 5.70469e-05 -0.000232837 -0.000491805 -0.0731441 -0.00205033 0.00112702 570.703 570.703 1001.35 
50 1 1 0.145781 0.0500264 0.00998219 0 0 0 -0.0958214 0.00150406 0.0001777 -0.000535444 0.00013525 -0.00029625 -0.0958214 0.00150406 0.0001777 556.062 556.062 1001.32 
51 1 1 0.00997645 0.0625293 0.00997911 0 0 0 0.00162999 -0.0305596 -0.00292467 -0.00242607 0.00130158 0.00299576 0.00162999 -0.0305596 -0.00292467 505.668 505.668 1001.2 
52 1 1 0.0204329 0.0585177 0.00998149 0 0 0 -0.00743052 0.0105857 0.00108441 0.000437318 -0.000152315 -2.91077e-05 -0.00743052 0.0105857 0.00108441 551.065 551.065 1001.31 
53 1 1 0.0468616 0.064019 0.00998189 0 0 0 -0.0448349 -0.0330357 0.000856216 -0.00155043 -0.000109867 -0.00116072 -0.0448349 -0.0330357 0.000856216 522.831 522.831 1001.24 
54 1 1 0.0662897 0.0619468 0.00998291 0 0 0 -0.0562297 -0.0381076 0.000825538 -0.00161983 -0.000468325 0.000126285 -0.0562297 -0.0381076 0.000825538 556.033 556.033 1001.32 
55 1 1 0.0712759 0.0570977 0.00998284 0 0 0 -0.0343129 -0.00221227 0.000200541 -0.000482392 0.000909502 -0.00019349 -0.0343129 -0.00221227 0.000200541 554.799 554.799 1001.32 
56 1 1 0.0888095 0.0687804 0.00998085 0 0 0 -0.0639834 -0.0350218 -0.00164358 -0.000711548 0.000426706 0.00134139 -0.0639834 -0.0350218 -0.00164358 591.359 591.359 1001.4 
57 1 1 0.110326 0.0606066 0.00998279 0 0 0 -0.0593015 0.0211454 -0.000647635 0.000696221 0.000103617 0.000395499 -0.0593015 0.0211454 -0.000647635 573.227 573.227 1001.36 
58 1 1 0.11715 0.0610321 0.00998344 0 0 0 -0.0773505 0.0140456 0.000325991 0.000518495 -0.000926489 -7.19496e-05 -0.0773505 0.0140456 0.000325991 574.943 574.943 1001.36 
59 1 1 0.137936 0.056635 0.0099831 0 0 0 -0.06675 0.00311251 -0.000161147 0.000802327 0.00070345 0.000160262 -0.06675 0.00311251 -0.000161147 565.37 565.37 1001.34 
60 1 1 0.150001 0.0648436 0.00998173 0 0 0 -0.0613415 -0.00710188 0.000647075 0.000517395 -0.000470643 0.00219358 -0.0613415 -0.00710188 0.000647075 571.744 571.744 1001.36 
61 1 1 0.00997415 0.0739249 0.00998411 0 0 0 0.00306797 -0.0079766 -0.0016216 -0.000906141 0.00159994 -0.00207741 0.00306797 -0.0079766 -0.0016216 540.753 540.753 1001.28 
62 1 1 0.0351236 0.0627843 0.0099826 0 0 0 -0.030987 -0.00116131 0.000235768 -5.34764e-05 0.000998727 -0.000562891 -0.030987 -0.00116131 0.000235768 536.235 536.235 1001.27 
63 1 1 0.0553663 0.0571018 0.00998335 0 0 0 0.0179501 -0.0149029 0.000339221 -0.000447181 -0.000238264 -0.00182267 0.0179501 -0.0149029 0.000339221 526.849 526.849 1001.25 
64 1 1 0.07778 0.069239 0.00998133 0 0 0 -0.0623471 0.00204131 -0.000150728 -0.000454706 8.01618e-05 0.00117316 -0.0623471 0.00204131 -0.000150728 590.64 590.64 1001.4 
65 1 1 0.0982554 0.0635463 0.00998238 0 0 0 -0.0528482 0.0240028 -0.000545341 0.000411035 -0.00070079 0.000844872 -0.0528482 0.0240028 -0.000545341 571.802 571.802 1001.36 
66 1 1 0.0990287 0.0778449 0.00998551 0 0 0 -0.064234 -0.0129017 0.000434087 0.000228761 -0.00207425 -0.00138105 -0.064234 -0.0129017 0.000434087 639.991 639.991 1001.52 
67 1 1 0.123736 0.0550976 0.0099837 0 0 0 -0.0710164 0.0175431 6.61526e-05 0.000283899 0.00050401 -0.000624997 -0.0710164 0.0175431 6.61526e-05 568.958 568.958 1001.35 
68 1 1 0.101045 0.0693533 0.009983 0 0 0 -0.0967238 0.0338564 0.00050493 0.000270791 9.56288e-05 0.000957951 -0.0967238 0.0338564 0.00050493 602.565 602.565 1001.43 
69 1 1 0.128562 0.0764529 0.00998313 0 0 0 -0.0553056 -0.00220499 6.42306e-05 0.000366317 -3.90925e-05 0.000775513 -0.0553056 -0.00220499 6.42306e-05 606.806 606.806 1001.44 
70 1 1 0.136132 0.0655879 0.00998512 0 0 0 -0.0598362 -0.00440553 0.00152948 0.000269476 0.00065077 -0.0009309 -0.0598362 -0.00440553 0.00152948 589.838 589.838 1001.4 
71 1 1 0.00997546 0.0781984 0.00998353 0 0 0 -0.00631682 0.00422241 0.0075611 -0.00259301 -0.00203164 -0.000843919 -0.00631682 0.00422241 0.0075611 558.221 558.221 1001.32 
72 1 1 0.0266058 0.0650824 0.00998072 0 0 0 0.00179535 -0.0262759 0.00047418 -0.00151271 0.00159791 6.81426e-05 0.00179535 -0.0262759 0.00047418 567.638 567.638 1001.35 
73 1 1 0.0229987 0.078073 0.00997753 0 0 0 -0.0240176 -0.0202484 0.00161761 0.00146537 -0.00281821 0.00348593 -0.0240176 -0.0202484 0.00161761 607.092 607.092 1001.44 
74 1 1 0.0809556 0.0773068 0.00998466 0 0 0 -0.0429988 0.00657709 -0.00118869 -0.00054545 -0.001988 -0.00201033 -0.0429988 0.00657709 -0.00118869 625.687 625.687 1001.48 
75 1 1 0.0681806 0.0768364 0.0099822 0 0 0 -0.0496158 -0.0369272 -0.0010841 0.000981765 -0.000187479 0.00120701 -0.0496158 -0.0369272 -0.0010841 616.658 616.658 1001.46 
76 1 1 0.0931253 0.0760995 0.00998425 0 0 0 -0.0588269 0.0785851 0.000400453 -0.000685425 -0.000268094 -0.000622068 -0.0588269 0.0785851 0.000400453 611.167 611.167 1001.45 
77 1 1 0.0940331 0.0596556 0.00998357 0 0 0 -0.0211376 -0.00964813 0.00140348 -0.00106479 -0.00130724 -0.00115901 -0.0211376 -0.00964813 0.00140348 566.671 566.671 1001.34 
78 1 1 0.120637 0.0672755 0.00998346 0 0 0 -0.0235561 -0.00183776 0.000173573 -0.000197766 -3.79572e-05 7.12147e-05 -0.0235561 -0.00183776 0.000173573 578.731 578.731 1001.37 
79 1 1 0.105393 0.0763266 0.00998384 0 0 0 -0.0655357 -0.00121982 -0.000332086 0.000279015 0.000658557 0.000344424 -0.0655357 -0.00121982 -0.000332086 626.854 626.854 1001.49 
80 1 1 0.139228 0.0775791 0.00998524 0 0 0 -0.0745717 0.0194472 0.00437484 0.000516358 -0.00147466 -0.00114063 -0.0745717 0.0194472 0.00437484 620.238 620.238 1001.47 
81 1 1 0.00998315 0.0900158 0.00997949 0 0 0 0.00292418 0.0106393 0.00377137 -0.00760251 -0.00367313 0.00556486 0.00292418 0.0106393 0.00377137 612.487 612.487 1001.45 
82 1 1 0.027455 0.0900112 0.00997968 0 0 0 -0.00583685 0.00278119 -0.0136709 -0.00231168 0.00692752 0.00682009 -0.00583685 0.00278119 -0.0136709 587.358 587.358 1001.39 
83 1 1 0.0224172 0.0900181 0.0099778 0 0 0 0.0162828 0.00176634 0.00228668 0.00168358 0.000942151 0.00904915 0.0162828 0.00176634 0.00228668 609.37 609.37 1001.44 
84 1 1 0.057929 0.0900211 0.00998317 0 0 0 -0.00615595 0.00544761 0.0058962 -0.0027112 -0.00270545 0.0034184 -0.00615595 0.00544761 0.0058962 669.593 669.593 1001.59 
85 1 1 0.0618711 0.0900251 0.00998444 0 0 0 -0.0153922 -0.00285889 0.000537584 -0.000963824 -0.00685012 0.00335401 -0.0153922 -0.00285889 0.000537584 687.073 687.073 1001.63 
86 1 1 0.0792473 0.0900169 0.00999563 0 0 0 -0.0262043 -0.00143448 -0.013483 -0.000314361 0.00229512 -0.00555877 -0.0262043 -0.00143448 -0.013483 701.852 701.852 1001.66 
87 1 1 0.0920056 0.090025 0.0100018 0 0 0 -0.0200696 0.00730008 0.000136195 0.00120883 -0.00567771 -0.0303599 -0.0200696 0.00730008 0.000136195 697.911 697.911 1001.65 
88 1 1 0.100652 0.0900195 0.00999921 0 0 0 0.0227745 -0.00196403 0.00265039 -7.66981e-05 0.00118124 -0.0099543 0.0227745 -0.00196403 0.00265039 692.893 692.893 1001.64 
89 1 1 0.109205 0.0900184 0.00999645 0 0 0 -0.010308 0.000787414 0.0117478 -0.000668009 0.00115315 -0.00649857 -0.010308 0.000787414 0.0117478 708.318 708.318 1001.68 
90 1 1 0.121891 0.0900216 0.0100003 0 0 0 0.00741945 0.00516978 -0.00210438 1.94219e-05 -0.00262854 -0.0290502 0.00741945 0.00516978 -0.00210438 679.929 679.929 1001.61 
91 1 1 0.00997497 0.00998018 0.00999173 0 0 0 0.00423106 -0.000145941 -0.031083 0.000518333 0.00654423 -0.00644468 0.00423106 -0.000145941 -0.031083 586.127 586.127 1001.39 
92 1 1 0.0204818 0.00998768 0.0099815 0 0 0 -0.0202534 -0.00127609 -0.00837593 -0.00172317 -0.0072389 0.00374085 -0.0202534 -0.00127609 -0.00837593 606.194 606.194 1001.44 
93 1 1 0.0320885 0.00997559 0.00998722 0 0 0 -0.0145193 -0.00322286 0.0160037 -0.00213853 0.00637068 -0.000719808 -0.0145193 -0.00322286 0.0160037 662.29 662.29 1001.57 
94 1 1 0.04069 0.00998119 0.00996507 0 0 0 -0.0230076 0.00602361 -0.0109532 -0.00108986 6.29585e-05 0.0212762 -0.0230076 0.00602361 -0.0109532 643.234 643.234 1001.52 
95 1 1 0.0665609 0.00997676 0.00997683 0 0 0 -0.0110865 0.00352477 -0.0133225 0.000280271 0.00566706 0.0115019 -0.0110865 0.00352477 -0.0133225 647.567 647.567 1001.53 
96 1 1 0.0876925 0.00998612 0.0100002 0 0 0 0.00127608 0.00681924 -0.00860531 -3.56046e-05 -0.00474239 -0.0291791 0.00127608 0.00681924 -0.00860531 668.737 668.737 1001.58 
97 1 1 0.0959008 0.0099773 0.00997991 0 0 0 -0.0562693 0.00268157 -0.0127816 0.00172345 0.00334151 0.00942662 -0.0562693 0.00268157 -0.0127816 650.698 650.698 1001.54 
98 1 1 0.104932 0.00998185 0.00998978 0 0 0 -0.0187731 -0.00110679 -0.00370231 -0.0013304 -0.00141494 -0.000604142 -0.0187731 -0.00110679 -0.00370231 666.21 666.21 1001.58 
99 1 1 0.113501 0.00997907 0.00998936 0 0 0 -0.0251339 0.00430767 -0.00105813 -0.000200564 0.00210531 0.0010846 -0.0251339 0.00430767 -0.00105813 688.026 688.026 1001.63 
100 1 1 0.117962 0.00998487 0.00998684 0 0 0 -0.0502082 0.00135951 -0.00446276 -2.48183e-06 -0.00340536 0.0037776 -0.0502082 0.00135951 -0.00446276 676.942 676.942 1001.6 
101 1 1 0.0099891 0.0234621 0.0227963 0 0 0 0.000343738 0.00288966 0.0360456 -0.00292164 -0.000803213 -0.000625081 0.000343738 0.00288966 0.0360456 311.666 311.666 1000.74 
102 1 1 0.0188701 0.0238076 0.00997645 0 0 0 -0.0251219 -0.00457691 0.000417739 -2.1818e-05 0.00102981 0.00430491 -0.0251219 -0.00457691 0.000417739 622.151 622.151 1001.47 
103 1 1 0.0331904 0.0234233 0.0252878 0 0 0 -0.0366489 -0.00535386 -0.00981951 -0.000389736 -0.000243181 -0.000167295 -0.0366489 -0.00535386 -0.00981951 270.98 270.98 1000.64 
104 1 1 0.0813015 0.0229174 0.0391288 0 0 0 0.0326156 0.028012 -0.0328851 0.00164115 -0.000145942 0.00055795 0.0326156 0.028012 -0.0328851 220.194 220.194 1000.52 
105 1 1 0.125029 0.0227062 0.0429669 0 0 0 -0.0230454 0.0267644 0.0328108 -0.000824987 0.000737174 0.000985255 -0.0230454 0.0267644 0.0328108 163.286 163.286 1000.39 
106 1 1 0.117071 0.0234012 0.0099935 0 0 0 -0.0465751 -0.0194809 -4.24594e-06 0.00060444 -0.000629949 -0.00951879 -0.0465751 -0.0194809 -4.24594e-06 618.712 618.712 1001.47 
107 1 1 0.169972 0.0207776 0.0234213 0 0 0 -0.0393323 -0.00199974 -0.025688 -0.00144681 0.000313771 0.00227982 -0.0393323 -0.00199974 -0.025688 318.599 318.599 1000.76 
108 1 1 0.12694 0.0345303 0.00998168 0 0 0 -0.0542723 0.0194242 0.000720295 0.000133037 -0.000773844 0.0024821 -0.0542723 0.0194242 0.000720295 585.453 585.453 1001.39 
109 1 1 0.186601 0.0223475 0.0241649 0 0 0 -0.0385737 0.014073 -0.00235257 -0.000319513 -0.00149078 -1.22685e-05 -0.0385737 0.014073 -0.00235257 345.833 345.833 1000.82 
110 1 1 0.159509 0.0232406 0.00998515 0 0 0 -0.0815487 0.0212481 -0.000917319 -3.02069e-05 -0.000844177 -0.00113699 -0.0815487 0.0212481 -0.000917319 636.762 636.762 1001.51 
111 1 1 0.00997528 0.0311246 0.00998211 0 0 0 -0.000328551 -0.00580417 -0.000110124 -0.00134498 0.00124396 -5.78722e-06 -0.000328551 -0.00580417 -0.000110124 533.62 533.62 1001.27 
112 1 1 0.0241485 0.02514 0.0380958 0 0 0 -0.0326422 -0.0224809 -0.00385096 -0.00139362 -0.000448262 0.000828825 -0.0326422 -0.0224809 -0.00385096 183.7 183.7 1000.44 
113 1 1 0.0392404 0.0332288 0.00998119 0 0 0 -0.0200437 0.000260777 0.000387282 0.00048655 -0.000890994 5.74401e-05 -0.0200437 0.000260777 0.000387282 531.507 531.507 1001.26 
114 1 1 0.0514389 0.0239874 0.00998059 0 0 0 -0.0348508 -0.00973348 0.000502733 -0.000605343 0.00118577 0.000241698 -0.0348508 -0.00973348 0.000502733 581.665 581.665 1001.38 
115 1 1 0.0770933 0.0217972 0.0232391 0 0 0 -0.0271002 -0.0171327 0.0257701 0.000451762 -0.000799897 0.00116516 -0.0271002 -0.0171327 0.0257701 337.02 337.02 1000.8 
116 1 1 0.0862895 0.0383149 0.00998264 0 0 0 -0.0322748 -0.00761825 -0.000340245 0.000885815 -0.00121152 0.000147218 -0.0322748 -0.00761825 -0.000340245 562.343 562.343 1001.33 
117 1 1 0.163548 0.0277675 0.0245703 0 0 0 -0.0337958 -0.0119947 -0.0237322 -0.000793942 -0.000704205 -1.06389e-05 -0.0337958 -0.0119947 -0.0237322 253.22 253.22 1000.6 
118 1 1 0.181317 0.0249951 0.0255942 0 0 0 -0.0335466 -0.0288666 0.00263395 -0.00140838 -0.000555186 -0.00112177 -0.0335466 -0.0288666 0.00263395 305.588 305.588 1000.73 
119 1 1 0.134113 0.0245115 0.00998508 0 0 0 -0.0646462 0.0294746 0.000725825 -0.000685507 -0.00093519 -0.00120449 -0.0646462 0.0294746 0.000725825 611.88 611.88 1001.45 
120 1 1 0.19299 0.0232437 0.0255206 0 0 0 -0.0833056 -0.0208149 0.0171344 -0.000189867 -0.000534647 -0.00076201 -0.0833056 -0.0208149 0.0171344 315.958 315.958 1000.75 
121 1 1 0.00997761 0.0419131 0.00997834 0 0 0 0.000279705 -0.0262109 -0.000643473 -0.0036377 0.000671076 0.00356934 0.000279705 -0.0262109 -0.000643473 514.262 514.262 1001.22 
122 1 1 0.0206432 0.0349944 0.00997878 0 0 0 -0.0191299 -0.0264743 -0.00176713 0.000187814 -0.000275409 0.00236258 -0.0191299 -0.0264743 -0.00176713 573.706 573.706 1001.36 
123 1 1 0.0300003 0.0248538 0.00998096 0 0 0 -0.0309524 0.0104904 -0.00363266 -0.00232486 0.000854345 2.76786e-05 -0.0309524 0.0104904 -0.00363266 582.456 582.456 1001.38 
124 1 1 0.0657747 0.0313301 0.00998303 0 0 0 -0.0411592 0.00783609 -0.00013421 -0.00142238 -2.80829e-05 0.000270561 -0.0411592 0.00783609 -0.00013421 553.656 553.656 1001.31 
125 1 1 0.075405 0.0362097 0.00998374 0 0 0 -0.0660359 0.00977194 -0.000347182 1.20445e-05 0.000995237 -0.000532177 -0.0660359 0.00977194 -0.000347182 557.762 557.762 1001.32 
126 1 1 0.110426 0.0326331 0.00998388 0 0 0 -0.0618956 -0.0156934 -0.000604693 -0.000172518 -0.000968418 -0.000396386 -0.0618956 -0.0156934 -0.000604693 583.97 583.97 1001.38 
127 1 1 0.143055 0.0371058 0.00998415 0 0 0 -0.0338452 0.00763296 -0.00115703 -0.00045205 0.00135779 -0.000226206 -0.0338452 0.00763296 -0.00115703 573.775 573.775 1001.36 
128 1 1 0.130582 0.0394122 0.00998506 0 0 0 -0.0538715 0.0243461 -0.00109538 -0.000406113 0.000456276 -0.0011863 -0.0538715 0.0243461 -0.00109538 585.17 585.17 1001.39 
129 1 1 0.123154 0.0232515 0.00998034 0 0 0 -0.0892566 -0.0173235 -0.00271833 -8.92439e-05 -0.00087523 0.00385052 -0.0892566 -0.0173235 -0.00271833 607.822 607.822 1001.44 
130 1 1 0.166276 0.0319333 0.00998142 0 0 0 -0.0555353 -0.00509368 -0.000491185 -0.00101529 -0.000260454 0.00155327 -0.0555353 -0.00509368 -0.000491185 598.459 598.459 1001.42 
131 1 1 0.0099711 0.0475435 0.00998638 0 0 0 2.41099e-05 0.0139017 0.000942107 0.00315915 0.00029842 -0.00405139 2.41099e-05 0.0139017 0.000942107 504.4 504.4 1001.2 
132 1 1 0.0202248 0.0496586 0.00998106 0 0 0 -0.041006 -0.00574266 -0.000437093 0.000100421 0.000590823 -0.0014026 -0.041006 -0.00574266 -0.000437093 544.903 544.903 1001.29 
133 1 1 0.0395071 0.0495977 0.00998217 0 0 0 0.0142751 -0.00733494 -0.0012891 -6.95283e-05 0.000132804 -0.000221285 0.0142751 -0.00733494 -0.0012891 505.931 505.931 1001.2 
134 1 1 0.0735996 0.0500489 0.00998349 0 0 0 -0.00657676 0.000925842 -0.000155946 0.000994714 -0.000303472 -0.000421055 -0.00657676 0.000925842 -0.000155946 553.413 553.413 1001.31 
135 1 1 0.113122 0.0501027 0.00998328 0 0 0 -0.0495305 0.000724712 0.000817058 -0.000662623 -0.000237185 -0.000223433 -0.0495305 0.000724712 0.000817058 565.825 565.825 1001.34 
136 1 1 0.127666 0.0500074 0.0238595 0 0 0 0.0150257 0.00041375 -0.0180341 0.000548676 3.25012e-05 0.00112716 0.0150257 0.00041375 -0.0180341 280.105 280.105 1000.67 
137 1 1 0.158243 0.0500329 0.024715 0 0 0 -0.038719 0.00161027 0.0141836 -0.000478709 0.000114892 -0.00118193 -0.038719 0.00161027 0.0141836 270.305 270.305 1000.64 
138 1 1 0.130063 0.0500452 0.00998247 0 0 0 -0.0911417 0.00188916 0.000315642 -0.000198608 7.30599e-05 0.000288943 -0.0911417 0.00188916 0.000315642 570.022 570.022 1001.35 
139 1 1 0.13816 0.0500051 0.00998331 0 0 0 -0.0454683 -0.000868973 -0.00012863 -0.000457374 6.27504e-05 -0.000229135 -0.0454683 -0.000868973 -0.00012863 561.576 561.576 1001.33 
140 1 1 0.213693 0.0500015 0.0235289 0 0 0 -0.0948825 6.5308e-05 0.0419297 -0.000426994 -0.000413957 0.00024481 -0.0948825 6.5308e-05 0.0419297 352.977 352.977 1000.84 
141 1 1 0.00997876 0.05775 0.00997823 0 0 0 -0.000210215 0.0362045 0.000104164 -0.00460669 0.000357325 0.00472521 -0.000210215 0.0362045 0.000104164 501.78 501.78 1001.19 
142 1 1 0.020692 0.0649777 0.00997847 0 0 0 -0.0138681 0.0351018 -0.00115308 0.000306065 0.000615676 0.00228799 -0.0138681 0.0351018 -0.00115308 561.524 561.524 1001.33 
143 1 1 0.0298674 0.0752151 0.00998077 0 0 0 -0.0276274 -0.0051232 -0.00354424 -0.00237267 -2.8789e-05 -0.00130382 -0.0276274 -0.0051232 -0.00354424 570.891 570.891 1001.35 
144 1 1 0.0658123 0.0686775 0.00998177 0 0 0 -0.0389668 -0.00555214 0.000161843 -0.00166218 -0.000246115 0.00120155 -0.0389668 -0.00555214 0.000161843 564.324 564.324 1001.34 
145 1 1 0.0754023 0.0638156 0.00998328 0 0 0 -0.0650671 -0.0112424 -0.000123581 -0.00019474 -0.00154917 -0.000304191 -0.0650671 -0.0112424 -0.000123581 566.865 566.865 1001.34 
146 1 1 0.11047 0.0674527 0.00998377 0 0 0 -0.0600169 0.0149609 -0.000180033 0.000133163 0.000638134 -0.000297792 -0.0600169 0.0149609 -0.000180033 591.538 591.538 1001.4 
147 1 1 0.143186 0.0628409 0.00998419 0 0 0 -0.0324561 -0.00975659 -0.000890044 -0.000409335 -0.00107812 -0.000229682 -0.0324561 -0.00975659 -0.000890044 570.109 570.109 1001.35 
148 1 1 0.130654 0.0606097 0.00998493 0 0 0 -0.0547068 -0.0236369 -0.000638162 -0.000158395 -0.000488286 -0.00103747 -0.0547068 -0.0236369 -0.000638162 584.31 584.31 1001.39 
149 1 1 0.123087 0.076785 0.00998129 0 0 0 -0.0900042 0.0180338 -0.00263824 0.000119491 0.000188695 0.00285675 -0.0900042 0.0180338 -0.00263824 613.833 613.833 1001.46 
150 1 1 0.166243 0.0680724 0.00998152 0 0 0 -0.0558251 0.00577666 -0.00053399 -0.00116392 0.000693217 0.00152432 -0.0558251 0.00577666 -0.00053399 592.352 592.352 1001.4 
151 1 1 0.00997343 0.0691091 0.00998313 0 0 0 0.000121941 0.00286996 -5.80992e-05 0.000475095 -0.00139063 -0.00151895 0.000121941 0.00286996 -5.80992e-05 516.293 516.293 1001.22 
152 1 1 0.0241306 0.0737157 0.035513 0 0 0 -0.0208815 -0.00409911 -0.0380592 -0.000858976 0.000634489 0.0032414 -0.0208815 -0.00409911 -0.0380592 246.595 246.595 1000.59 
153 1 1 0.0390143 0.0673908 0.00997998 0 0 0 -0.0237469 0.00718112 9.41209e-05 -0.000162782 0.000497952 0.000226684 -0.0237469 0.00718112 9.41209e-05 524.194 524.194 1001.24 
154 1 1 0.051494 0.0758629 0.00997877 0 0 0 -0.0384159 0.00504996 -0.000617491 -0.00135068 -0.000457366 0.00178232 -0.0384159 0.00504996 -0.000617491 574.52 574.52 1001.36 
155 1 1 0.0772253 0.0782587 0.0236935 0 0 0 -0.0299041 0.0144571 0.0215428 0.000126298 -0.000441547 0.000736708 -0.0299041 0.0144571 0.0215428 345.167 345.167 1000.82 
156 1 1 0.0862734 0.0617374 0.0099827 0 0 0 -0.0348282 0.00636159 -0.00021281 0.000987627 0.000721651 -0.000128711 -0.0348282 0.00636159 -0.00021281 571.651 571.651 1001.36 
157 1 1 0.163514 0.0722075 0.0245703 0 0 0 -0.0337128 0.0118482 -0.0237539 -0.000898358 0.00100042 -0.000191239 -0.0337128 0.0118482 -0.0237539 249.161 249.161 1000.59 
158 1 1 0.18132 0.0750163 0.0255941 0 0 0 -0.0332219 0.0295807 0.00234409 -0.00165172 0.000834986 -0.00122602 -0.0332219 0.0295807 0.00234409 304.97 304.97 1000.72 
159 1 1 0.134033 0.075531 0.00998408 0 0 0 -0.064302 -0.0294726 0.00106273 -0.000167744 0.000211236 -0.000153802 -0.064302 -0.0294726 0.00106273 612.874 612.874 1001.45 
160 1 1 0.19299 0.0767575 0.0255204 0 0 0 -0.0834191 0.0212216 0.0166534 -0.000530584 0.000980098 -0.000817428 -0.0834191 0.0212216 0.0166534 317.572 317.572 1000.75 
161 1 1 0.00998697 0.0758571 0.0229141 0 0 0 -0.00307184 -0.00334698 0.0116367 -0.000892107 0.00110784 -0.00123248 -0.00307184 -0.00334698 0.0116367 315.602 315.602 1000.75 
162 1 1 0.0190215 0.0759644 0.00997772 0 0 0 -0.0231684 0.011843 0.00282506 -0.000183626 -0.00100195 0.00307293 -0.0231684 0.011843 0.00282506 607.758 607.758 1001.44 
163 1 1 0.034125 0.0762062 0.0243998 0 0 0 -0.0232153 0.00318267 0.0283628 -0.00142123 0.00129701 0.00193293 -0.0232153 0.00318267 0.0283628 311.821 311.821 1000.74 
164 1 1 0.0818164 0.0765672 0.0386413 0 0 0 0.038513 -0.0471811 -0.0401912 0.00199215 -0.000791462 0.00101643 0.038513 -0.0471811 -0.0401912 222.259 222.259 1000.53 
165 1 1 0.12507 0.0773139 0.0429564 0 0 0 -0.0217999 -0.0262087 0.0326196 -0.000900037 -0.000551922 0.000925405 -0.0217999 -0.0262087 0.0326196 154.661 154.661 1000.37 
166 1 1 0.117076 0.0765578 0.009993 0 0 0 -0.0452619 0.0183835 0.00139695 0.000817529 0.000216361 -0.00903102 -0.0452619 0.0183835 0.00139695 626.863 626.863 1001.49 
167 1 1 0.169977 0.0792191 0.0234231 0 0 0 -0.0387089 0.00252712 -0.0257773 -0.00167823 0.000148946 0.00197155 -0.0387089 0.00252712 -0.0257773 311.793 311.793 1000.74 
168 1 1 0.12699 0.0653793 0.00998204 0 0 0 -0.052246 -0.0193008 0.00040017 0.000406612 0.000718643 0.00212822 -0.052246 -0.0193008 0.00040017 584.107 584.107 1001.38 
169 1 1 0.186607 0.0776461 0.0241628 0 0 0 -0.0383323 -0.0136205 -0.00272864 -0.000576378 0.00193403 -0.00012819 -0.0383323 -0.0136205 -0.00272864 345.021 345.021 1000.82 
170 1 1 0.159534 0.0767562 0.0099851 0 0 0 -0.0793773 -0.0207714 -0.00105381 0.00012121 0.0013775 -0.000935008 -0.0793773 -0.0207714 -0.00105381 623.946 623.946 1001.48 
171 1 1 0.00997442 0.090007 0.00997803 0 0 0 -0.00197733 -0.000178887 0.0228636 0.000979064 0.00496746 0.00714925 -0.00197733 -0.000178887 0.0228636 634.985 634.985 1001.51 
172 1 1 0.0201136 0.0900164 0.00999999 0 0 0 -0.0211299 0.00499229 0.00239051 0.000389942 0.00259983 -0.013327 -0.0211299 0.00499229 0.00239051 616.14 616.14 1001.46 
173 1 1 0.0318525 0.090024 0.00999953 0 0 0 -0.0136155 -0.000329329 -0.00552821 -0.00198619 -0.00659756 -0.0136619 -0.0136155 -0.000329329 -0.00552821 606.44 606.44 1001.44 