ITEM: TIMESTEP
34000
ITEM: NUMBER OF ATOMS
2655
ITEM: BOX BOUNDS ff ff ff
0 0.5
0 0.1
0 0.5
ITEM: ATOMS id type type x y z ix iy iz vx vy vz fx fy fz vx vy vz p p rho 
1 1 1 0.00997762 0.00998857 0.00993971 0 0 0 0.0161024 0.0071363 -0.0300022 0.0205048 -0.0103906 0.0223799 0.0161024 0.0071363 -0.0300022 732.189 732.189 1001.73 
2 1 1 0.0332596 0.00997801 0.00998626 0 0 0 0.0797097 -0.0198667 0.0172534 -0.000796763 0.00977949 -0.0109704 0.0797097 -0.0198667 0.0172534 433.159 433.159 1001.03 
3 1 1 0.0274392 0.00997661 0.00996038 0 0 0 0.0904983 0.0177118 0.0202559 -0.00422397 0.00955764 0.01375 0.0904983 0.0177118 0.0202559 450.656 450.656 1001.07 
4 1 1 0.0648824 0.00997333 0.00996827 0 0 0 0.0615814 0.0127486 0.00334924 0.00547291 0.0110529 -0.00689941 0.0615814 0.0127486 0.00334924 778.15 778.15 1001.84 
5 1 1 0.0707239 0.0100009 0.0099702 0 0 0 0.0745957 0.0220099 -0.0121589 0.0131454 -0.0377096 -0.00530923 0.0745957 0.0220099 -0.0121589 683.617 683.617 1001.62 
6 1 1 0.095027 0.0100237 0.00995879 0 0 0 0.187888 0.0366348 0.0546557 -0.00493516 -0.0401989 0.00891041 0.187888 0.0366348 0.0546557 766.102 766.102 1001.81 
7 1 1 0.112729 0.00998275 0.00995334 0 0 0 0.124611 0.000692572 0.0153193 -0.00231087 -0.00319368 0.0159534 0.124611 0.000692572 0.0153193 741.487 741.487 1001.76 
8 1 1 0.124255 0.0099866 0.00994791 0 0 0 0.11517 -0.00128919 0.00623306 0.00300602 -0.00518068 0.0216288 0.11517 -0.00128919 0.00623306 658.118 658.118 1001.56 
9 1 1 0.136203 0.0100002 0.00997291 0 0 0 0.0406972 0.0048665 -0.0179786 -0.000765383 -0.0328452 -0.00382077 0.0406972 0.0048665 -0.0179786 579.42 579.42 1001.37 
10 1 1 0.151613 0.00997733 0.00995302 0 0 0 0.111234 -0.0221371 -0.00703744 0.00205111 0.00661099 0.0207272 0.111234 -0.0221371 -0.00703744 561.098 561.098 1001.33 
11 1 1 0.0099891 0.0206711 0.00995404 0 0 0 -0.0101069 0.0525399 -0.0171979 0.00896825 -0.00466569 0.00698487 -0.0101069 0.0525399 -0.0171979 752.217 752.217 1001.78 
12 1 1 0.0236228 0.0236642 0.00996618 0 0 0 0.0837206 0.0230305 0.00366564 -0.00217263 -0.000522959 0.00485636 0.0837206 0.0230305 0.00366564 497.381 497.381 1001.18 
13 1 1 0.0391509 0.0217612 0.00997333 0 0 0 0.0208954 -0.00417663 -0.00921066 -0.00291789 0.00238918 0.0023873 0.0208954 -0.00417663 -0.00921066 347.3 347.3 1000.82 
14 1 1 0.0748564 0.0222586 0.00997342 0 0 0 0.165318 0.00899525 -0.0117393 0.00105106 0.00532203 -0.0084067 0.165318 0.00899525 -0.0117393 507.402 507.402 1001.2 
15 1 1 0.0757502 0.0216733 0.00996974 0 0 0 0.0140308 0.00898304 -0.0101324 0.00484663 0.00411705 -0.00438711 0.0140308 0.00898304 -0.0101324 498.098 498.098 1001.18 
16 1 1 0.0937369 0.0216721 0.00998198 0 0 0 0.13808 0.12101 0.00453022 -0.00124665 0.00413745 -0.0109107 0.13808 0.12101 0.00453022 491.615 491.615 1001.17 
17 1 1 0.100966 0.0296712 0.00996492 0 0 0 0.0633625 0.0726868 -0.00124994 -0.000170348 -0.00113533 0.0060627 0.0633625 0.0726868 -0.00124994 582.489 582.489 1001.38 
18 1 1 0.114786 0.025337 0.00997207 0 0 0 0.0663616 0.0588514 0.00735004 0.0024008 0.00167926 -0.00230826 0.0663616 0.0588514 0.00735004 542.497 542.497 1001.29 
19 1 1 0.123472 0.021364 0.00997393 0 0 0 0.0783625 -0.0810775 0.00440837 -0.00253191 0.0011963 -0.00260659 0.0783625 -0.0810775 0.00440837 558.486 558.486 1001.32 
20 1 1 0.151023 0.0252024 0.00997301 0 0 0 0.162299 -0.035522 -0.0029946 0.00351053 -0.00163901 -0.00394723 0.162299 -0.035522 -0.0029946 493.794 493.794 1001.17 
21 1 1 0.0100272 0.0245574 0.0099592 0 0 0 0.0202031 -0.0420249 -0.0068015 -0.0234356 -0.00172919 0.00321283 0.0202031 -0.0420249 -0.0068015 789.085 789.085 1001.87 
22 1 1 0.0287148 0.0350302 0.00997063 0 0 0 0.103834 0.00861802 -0.0087955 -0.00630927 0.000380298 -0.000782906 0.103834 0.00861802 -0.0087955 447.087 447.087 1001.06 
23 1 1 0.0502855 0.0363423 0.00997399 0 0 0 0.0587176 0.0188746 0.0119151 -0.0055073 -0.0100869 -0.00552202 0.0587176 0.0188746 0.0119151 394.817 394.817 1000.94 
24 1 1 0.0758349 0.0341464 0.00995957 0 0 0 0.0904376 -0.00382 -0.00771304 -0.00113309 -0.00446461 0.00705375 0.0904376 -0.00382 -0.00771304 503.238 503.238 1001.19 
25 1 1 0.0864833 0.0305519 0.00996818 0 0 0 0.125661 -0.0192812 -0.0159902 0.00114912 -0.000236066 -0.00104268 0.125661 -0.0192812 -0.0159902 433.906 433.906 1001.03 
26 1 1 0.102015 0.0220264 0.0099701 0 0 0 0.240575 0.0241837 0.00923306 -0.00411124 0.00617134 0.000994367 0.240575 0.0241837 0.00923306 554.676 554.676 1001.32 
27 1 1 0.116574 0.0322108 0.00996474 0 0 0 0.176515 0.0415296 0.00751116 -0.00140737 0.00103156 0.00562041 0.176515 0.0415296 0.00751116 519.638 519.638 1001.23 
28 1 1 0.110643 0.0210025 0.00996834 0 0 0 0.0944281 0.0870619 0.0143675 -0.000713799 0.00580062 -1.93374e-05 0.0944281 0.0870619 0.0143675 597.165 597.165 1001.42 
29 1 1 0.133883 0.0267811 0.00996619 0 0 0 0.132927 -0.0619748 -0.00165958 0.00155164 -0.00458372 0.00297835 0.132927 -0.0619748 -0.00165958 547.506 547.506 1001.3 
30 1 1 0.145005 0.0324604 0.00996687 0 0 0 0.0541876 0.0392555 0.00766705 0.00340328 -1.04854e-05 0.00084144 0.0541876 0.0392555 0.00766705 512.887 512.887 1001.22 
31 1 1 0.010006 0.0366079 0.00995849 0 0 0 0.00251035 -0.0742897 0.00739583 -0.024397 0.00147879 0.00275109 0.00251035 -0.0742897 0.00739583 767.238 767.238 1001.82 
32 1 1 0.024545 0.0432111 0.00996126 0 0 0 0.0335508 -0.0228987 0.00162553 -0.000230339 -0.00369672 0.00866831 0.0335508 -0.0228987 0.00162553 369.965 369.965 1000.88 
33 1 1 0.0507401 0.041679 0.00997553 0 0 0 0.0457779 -0.00700064 -0.0003253 -0.0108289 -0.00996538 -0.00722997 0.0457779 -0.00700064 -0.0003253 448.26 448.26 1001.06 
34 1 1 0.064049 0.0413099 0.00999174 0 0 0 0.066773 -0.0144429 0.000998918 -0.00235153 -0.0280147 -0.0278094 0.066773 -0.0144429 0.000998918 619.649 619.649 1001.47 
35 1 1 0.0733875 0.0386517 0.00996403 0 0 0 0.0717905 -0.0544743 0.00203206 0.0032701 -0.0107581 0.00329305 0.0717905 -0.0544743 0.00203206 543.532 543.532 1001.29 
36 1 1 0.0905576 0.0408115 0.00995756 0 0 0 0.0787562 0.0807772 -0.00609806 -0.000585812 6.72038e-06 0.0139839 0.0787562 0.0807772 -0.00609806 420.224 420.224 1001 
37 1 1 0.117052 0.0403846 0.00995898 0 0 0 0.162879 0.0394117 0.00415798 -0.00711312 -0.000922063 0.00746831 0.162879 0.0394117 0.00415798 534.401 534.401 1001.27 
38 1 1 0.126062 0.0336849 0.00997433 0 0 0 0.112381 0.00270456 -0.00092963 -0.00478253 -0.00416271 -0.00411056 0.112381 0.00270456 -0.00092963 573.702 573.702 1001.36 
39 1 1 0.128035 0.045385 0.00996288 0 0 0 0.105892 -0.00135998 -0.0101217 -0.00401528 0.000160151 0.00257622 0.105892 -0.00135998 -0.0101217 613.568 613.568 1001.45 
40 1 1 0.146223 0.040647 0.0099513 0 0 0 0.116452 -0.0551686 0.00117397 -0.00176469 -0.00969508 0.0136315 0.116452 -0.0551686 0.00117397 481.168 481.168 1001.14 
41 1 1 0.00998916 0.05 0.00995196 0 0 0 9.39271e-05 3.33278e-09 0.022057 0.00399087 -6.94734e-09 0.0112017 9.39271e-05 3.33278e-09 0.022057 820.569 820.569 1001.94 
42 1 1 0.0420353 0.05 0.00997504 0 0 0 0.122729 1.44017e-09 -0.00997891 -0.00701246 -1.35737e-09 -0.00393229 0.122729 1.44017e-09 -0.00997891 344.204 344.204 1000.82 
43 1 1 0.0495731 0.05 0.00997547 0 0 0 0.0787751 1.56375e-09 -0.00886354 -0.0172531 -1.13298e-09 -0.00526542 0.0787751 1.56375e-09 -0.00886354 472.203 472.203 1001.12 
44 1 1 0.070359 0.05 0.00996743 0 0 0 0.0738443 2.25793e-09 -0.000518609 0.0210468 -1.39008e-09 -0.00426331 0.0738443 2.25793e-09 -0.000518609 819.841 819.841 1001.94 
45 1 1 0.0852874 0.05 0.00996722 0 0 0 0.0717032 2.12034e-09 -0.000330375 0.00541424 -2.33299e-09 0.000816297 0.0717032 2.12034e-09 -0.000330375 534.341 534.341 1001.27 
46 1 1 0.0935903 0.05 0.00996787 0 0 0 0.104895 1.28389e-09 -0.00650261 -0.00208554 -3.27465e-09 0.00279444 0.104895 1.28389e-09 -0.00650261 509.231 509.231 1001.21 
47 1 1 0.100777 0.05 0.00996188 0 0 0 0.0662412 3.00961e-10 -0.00230816 -0.00132499 -4.23197e-09 0.013921 0.0662412 3.00961e-10 -0.00230816 512.171 512.171 1001.22 
48 1 1 0.107661 0.05 0.009962 0 0 0 0.163974 -9.27334e-10 0.00375963 -0.00168714 -4.93517e-09 0.0111421 0.163974 -9.27334e-10 0.00375963 482.138 482.138 1001.14 
49 1 1 0.111557 0.05 0.00996373 0 0 0 -0.0715431 -1.7998e-09 -0.00113252 2.02527e-05 -5.37643e-09 0.00548777 -0.0715431 -1.7998e-09 -0.00113252 435.158 435.158 1001.03 
50 1 1 0.149428 0.05 0.0099478 0 0 0 0.0721925 -9.43015e-09 -0.00435035 -0.00897243 -3.23476e-09 0.0135874 0.0721925 -9.43015e-09 -0.00435035 569.913 569.913 1001.35 
51 1 1 0.010006 0.0633921 0.00995849 0 0 0 0.00251035 0.0742897 0.00739584 -0.024397 -0.00147881 0.00275107 0.00251035 0.0742897 0.00739584 767.238 767.238 1001.82 
52 1 1 0.024545 0.0567889 0.00996126 0 0 0 0.0335508 0.0228987 0.00162553 -0.000230337 0.00369671 0.0086683 0.0335508 0.0228987 0.00162553 369.965 369.965 1000.88 
53 1 1 0.0507401 0.058321 0.00997553 0 0 0 0.0457779 0.00700064 -0.0003253 -0.0108289 0.00996538 -0.00722997 0.0457779 0.00700064 -0.0003253 448.26 448.26 1001.06 
54 1 1 0.064049 0.0586901 0.00999174 0 0 0 0.066773 0.0144429 0.000998918 -0.00235153 0.0280147 -0.0278094 0.066773 0.0144429 0.000998918 619.649 619.649 1001.47 
55 1 1 0.0733875 0.0613483 0.00996403 0 0 0 0.0717905 0.0544743 0.00203207 0.0032701 0.0107581 0.00329305 0.0717905 0.0544743 0.00203207 543.532 543.532 1001.29 
56 1 1 0.0905576 0.0591885 0.00995756 0 0 0 0.0787562 -0.0807772 -0.00609806 -0.000585814 -6.72703e-06 0.0139839 0.0787562 -0.0807772 -0.00609806 420.224 420.224 1001 
57 1 1 0.117052 0.0596154 0.00995898 0 0 0 0.162879 -0.0394117 0.00415799 -0.00711313 0.000922051 0.0074683 0.162879 -0.0394117 0.00415799 534.401 534.401 1001.27 
58 1 1 0.126062 0.0663151 0.00997433 0 0 0 0.11238 -0.00270457 -0.000929621 -0.00478253 0.0041627 -0.00411057 0.11238 -0.00270457 -0.000929621 573.703 573.703 1001.36 
59 1 1 0.128035 0.054615 0.00996288 0 0 0 0.105892 0.00135997 -0.0101217 -0.00401528 -0.000160165 0.00257622 0.105892 0.00135997 -0.0101217 613.568 613.568 1001.45 
60 1 1 0.146223 0.059353 0.0099513 0 0 0 0.116452 0.0551686 0.00117397 -0.00176469 0.00969507 0.0136314 0.116452 0.0551686 0.00117397 481.168 481.168 1001.14 
61 1 1 0.0100272 0.0754426 0.0099592 0 0 0 0.020203 0.0420249 -0.00680149 -0.0234356 0.00172919 0.0032128 0.020203 0.0420249 -0.00680149 789.086 789.086 1001.87 
62 1 1 0.0287148 0.0649698 0.00997063 0 0 0 0.103834 -0.00861802 -0.0087955 -0.00630927 -0.000380303 -0.000782912 0.103834 -0.00861802 -0.0087955 447.087 447.087 1001.06 
63 1 1 0.0502855 0.0636577 0.00997399 0 0 0 0.0587176 -0.0188746 0.0119151 -0.0055073 0.0100869 -0.00552202 0.0587176 -0.0188746 0.0119151 394.817 394.817 1000.94 
64 1 1 0.0758349 0.0658536 0.00995957 0 0 0 0.0904376 0.00382 -0.00771304 -0.0011331 0.00446461 0.00705375 0.0904376 0.00382 -0.00771304 503.239 503.239 1001.19 
65 1 1 0.0864833 0.0694481 0.00996818 0 0 0 0.125661 0.0192812 -0.0159902 0.00114912 0.000236061 -0.00104269 0.125661 0.0192812 -0.0159902 433.906 433.906 1001.03 
66 1 1 0.102015 0.0779736 0.0099701 0 0 0 0.240575 -0.0241837 0.00923306 -0.00411125 -0.00617135 0.000994363 0.240575 -0.0241837 0.00923306 554.676 554.676 1001.32 
67 1 1 0.116574 0.0677892 0.00996474 0 0 0 0.176515 -0.0415296 0.00751117 -0.00140737 -0.00103157 0.0056204 0.176515 -0.0415296 0.00751117 519.638 519.638 1001.23 
68 1 1 0.110643 0.0789975 0.00996834 0 0 0 0.0944281 -0.0870619 0.0143675 -0.000713803 -0.00580063 -1.93456e-05 0.0944281 -0.0870619 0.0143675 597.166 597.166 1001.42 
69 1 1 0.133883 0.0732189 0.00996619 0 0 0 0.132927 0.0619748 -0.00165957 0.00155165 0.00458371 0.00297833 0.132927 0.0619748 -0.00165957 547.506 547.506 1001.3 
70 1 1 0.145005 0.0675396 0.00996687 0 0 0 0.0541876 -0.0392555 0.00766705 0.00340329 1.04817e-05 0.000841408 0.0541876 -0.0392555 0.00766705 512.887 512.887 1001.22 
71 1 1 0.0099891 0.0793289 0.00995404 0 0 0 -0.0101069 -0.0525399 -0.0171979 0.00896825 0.00466569 0.00698484 -0.0101069 -0.0525399 -0.0171979 752.217 752.217 1001.78 
72 1 1 0.0236228 0.0763358 0.00996618 0 0 0 0.0837206 -0.0230305 0.00366564 -0.00217262 0.000522955 0.00485635 0.0837206 -0.0230305 0.00366564 497.381 497.381 1001.18 
73 1 1 0.0391509 0.0782388 0.00997333 0 0 0 0.0208954 0.00417663 -0.00921066 -0.00291788 -0.00238918 0.0023873 0.0208954 0.00417663 -0.00921066 347.301 347.301 1000.82 
74 1 1 0.0748564 0.0777414 0.00997342 0 0 0 0.165318 -0.00899524 -0.0117393 0.00105106 -0.00532203 -0.0084067 0.165318 -0.00899524 -0.0117393 507.402 507.402 1001.2 
75 1 1 0.0757502 0.0783267 0.00996974 0 0 0 0.0140308 -0.00898303 -0.0101324 0.00484663 -0.00411705 -0.00438711 0.0140308 -0.00898303 -0.0101324 498.098 498.098 1001.18 
76 1 1 0.0937369 0.0783279 0.00998198 0 0 0 0.13808 -0.12101 0.00453022 -0.00124665 -0.00413745 -0.0109107 0.13808 -0.12101 0.00453022 491.615 491.615 1001.17 
77 1 1 0.100966 0.0703288 0.00996492 0 0 0 0.0633625 -0.0726868 -0.00124993 -0.000170353 0.00113532 0.0060627 0.0633625 -0.0726868 -0.00124993 582.489 582.489 1001.38 
78 1 1 0.114786 0.074663 0.00997207 0 0 0 0.0663616 -0.0588514 0.00735006 0.0024008 -0.00167927 -0.00230827 0.0663616 -0.0588514 0.00735006 542.498 542.498 1001.29 
79 1 1 0.123472 0.078636 0.00997393 0 0 0 0.0783624 0.0810775 0.00440838 -0.00253191 -0.0011963 -0.00260661 0.0783624 0.0810775 0.00440838 558.486 558.486 1001.32 
80 1 1 0.151023 0.0747976 0.00997301 0 0 0 0.162299 0.035522 -0.0029946 0.00351054 0.00163901 -0.00394727 0.162299 0.035522 -0.0029946 493.794 493.794 1001.17 
81 1 1 0.00997762 0.0900114 0.00993971 0 0 0 0.0161024 -0.0071363 -0.0300022 0.0205048 0.0103906 0.0223799 0.0161024 -0.0071363 -0.0300022 732.19 732.19 1001.73 
82 1 1 0.0332596 0.090022 0.00998626 0 0 0 0.0797097 0.0198667 0.0172534 -0.000796758 -0.00977949 -0.0109704 0.0797097 0.0198667 0.0172534 433.159 433.159 1001.03 
83 1 1 0.0274392 0.0900234 0.00996038 0 0 0 0.0904983 -0.0177118 0.0202559 -0.00422397 -0.00955763 0.01375 0.0904983 -0.0177118 0.0202559 450.656 450.656 1001.07 
84 1 1 0.0648824 0.0900267 0.00996827 0 0 0 0.0615814 -0.0127486 0.00334924 0.00547291 -0.0110529 -0.00689941 0.0615814 -0.0127486 0.00334924 778.15 778.15 1001.84 
85 1 1 0.0707239 0.0899991 0.0099702 0 0 0 0.0745957 -0.0220099 -0.0121589 0.0131454 0.0377096 -0.00530923 0.0745957 -0.0220099 -0.0121589 683.617 683.617 1001.62 
86 1 1 0.095027 0.0899763 0.00995879 0 0 0 0.187888 -0.0366348 0.0546557 -0.00493517 0.0401989 0.00891041 0.187888 -0.0366348 0.0546557 766.102 766.102 1001.81 
87 1 1 0.112729 0.0900172 0.00995334 0 0 0 0.124611 -0.000692581 0.0153193 -0.00231087 0.00319369 0.0159534 0.124611 -0.000692581 0.0153193 741.488 741.488 1001.76 
88 1 1 0.124255 0.0900134 0.00994791 0 0 0 0.11517 0.00128918 0.00623308 0.00300603 0.0051807 0.0216287 0.11517 0.00128918 0.00623308 658.119 658.119 1001.56 
89 1 1 0.136203 0.0899998 0.00997291 0 0 0 0.0406972 -0.00486653 -0.0179785 -0.000765376 0.0328452 -0.0038208 0.0406972 -0.00486653 -0.0179785 579.42 579.42 1001.37 
90 1 1 0.151613 0.0900227 0.00995302 0 0 0 0.111234 0.022137 -0.00703743 0.00205112 -0.00661097 0.0207271 0.111234 0.022137 -0.00703743 561.098 561.098 1001.33 
91 1 1 0.0100273 0.00999127 0.00992545 0 0 0 0.00247276 0.00640411 -0.0111876 -0.0223917 -0.0130927 0.0369363 0.00247276 0.00640411 -0.0111876 746.244 746.244 1001.77 
92 1 1 0.0225151 0.00999897 0.0100578 0 0 0 0.00154031 -0.000215228 -0.0265251 0.0026538 -0.0133357 -0.037419 0.00154031 -0.000215228 -0.0265251 341.362 341.362 1000.81 
93 1 1 0.0380226 0.00997674 0.00995285 0 0 0 0.00110705 0.0487251 -0.0279358 -0.000451016 0.0109285 0.0204978 0.00110705 0.0487251 -0.0279358 485.622 485.622 1001.15 
94 1 1 0.0519386 0.00998446 0.00994319 0 0 0 0.0771692 0.0167685 -0.0158425 -0.009391 -0.00341698 0.0222016 0.0771692 0.0167685 -0.0158425 615.307 615.307 1001.46 
95 1 1 0.0785487 0.0099958 0.00998498 0 0 0 0.0504889 0.0138767 0.0244695 -0.0040621 -0.0124711 -0.017427 0.0504889 0.0138767 0.0244695 563.438 563.438 1001.34 
96 1 1 0.105411 0.00996331 0.0099822 0 0 0 0.135095 -0.00623285 0.0414898 0.00288093 0.0155282 -0.0125842 0.135095 -0.00623285 0.0414898 769.396 769.396 1001.82 
97 1 1 0.117477 0.00996367 0.0099897 0 0 0 -0.0083835 0.0315336 0.000118124 0.00412868 0.0177305 -0.0209973 -0.0083835 0.0315336 0.000118124 732.783 732.783 1001.74 
98 1 1 0.129277 0.0099827 0.00995192 0 0 0 0.0416246 -0.0128928 -0.0042523 0.00366501 -5.40607e-05 0.0181442 0.0416246 -0.0128928 -0.0042523 593.536 593.536 1001.41 
99 1 1 0.139654 0.00998175 0.00996801 0 0 0 0.118977 -0.0149746 0.0214581 0.00500633 0.00239599 0.000873384 0.118977 -0.0149746 0.0214581 605.74 605.74 1001.44 
100 1 1 0.147545 0.00998248 0.00999211 0 0 0 0.0330779 0.0131615 -0.00955379 -0.000836424 0.00200461 -0.0205777 0.0330779 0.0131615 -0.00955379 606.541 606.541 1001.44 
101 1 1 0.00998327 0.0207576 0.020241 0 0 0 0.018079 -0.0232089 0.0116926 0.0151457 -0.00114441 0.00219337 0.018079 -0.0232089 0.0116926 745.294 745.294 1001.77 
102 1 1 0.0267326 0.0215591 0.0099826 0 0 0 -0.0586716 0.0111735 0.00853436 0.00129786 -0.00175362 -0.011257 -0.0586716 0.0111735 0.00853436 405.178 405.178 1000.96 
103 1 1 0.0543358 0.0223373 0.0225585 0 0 0 0.106134 0.0701916 0.0593475 -0.00704629 0.00527819 0.000596223 0.106134 0.0701916 0.0593475 360.139 360.139 1000.86 
104 1 1 0.0751281 0.0223176 0.020948 0 0 0 0.179608 -0.0316691 0.0145575 0.00200554 0.0015667 0.006793 0.179608 -0.0316691 0.0145575 391.423 391.423 1000.93 
105 1 1 0.107595 0.0226273 0.0320247 0 0 0 0.20666 0.0543247 0.118101 -0.00092791 -0.0020855 0.00309594 0.20666 0.0543247 0.118101 271.163 271.163 1000.64 
106 1 1 0.123218 0.020625 0.0235603 0 0 0 0.186136 -0.0341418 -0.00644109 -0.00267462 0.00137452 0.00191024 0.186136 -0.0341418 -0.00644109 463.14 463.14 1001.1 
107 1 1 0.143732 0.0204552 0.0235189 0 0 0 0.272544 -0.0207641 -0.0255356 0.000911824 -0.00215213 0.00180987 0.272544 -0.0207641 -0.0255356 448.304 448.304 1001.06 
108 1 1 0.127745 0.0239856 0.009963 0 0 0 0.0775395 -0.00295866 -0.00577339 -0.00131656 -0.0032386 0.00876746 0.0775395 -0.00295866 -0.00577339 554.055 554.055 1001.31 
109 1 1 0.162962 0.0215549 0.0212728 0 0 0 0.172404 -0.0555035 0.00178294 0.000861125 -0.00388909 0.00215906 0.172404 -0.0555035 0.00178294 462.208 462.208 1001.1 
110 1 1 0.167771 0.0206613 0.00998532 0 0 0 0.185589 0.00459095 0.0140257 0.00208512 0.00121687 -0.0167251 0.185589 0.00459095 0.0140257 608.388 608.388 1001.44 
111 1 1 0.00999103 0.0305887 0.00995014 0 0 0 0.0143668 0.0617745 -0.00699278 0.00700182 -0.000814627 0.0123291 0.0143668 0.0617745 -0.00699278 784.419 784.419 1001.86 
112 1 1 0.0291612 0.0168115 0.0221565 0 0 0 0.0387549 0.0708276 0.0342179 -0.000209374 0.00200505 -0.00246943 0.0387549 0.0708276 0.0342179 359.84 359.84 1000.85 
113 1 1 0.0447982 0.0283052 0.00997021 0 0 0 0.0815053 0.0237068 0.00520166 -0.00311557 -0.000230636 0.0031515 0.0815053 0.0237068 0.00520166 351.05 351.05 1000.83 
114 1 1 0.0498243 0.018574 0.00995249 0 0 0 0.0228642 0.0572131 0.0109067 -0.00795639 0.0115678 0.0162723 0.0228642 0.0572131 0.0109067 529.3 529.3 1001.26 
115 1 1 0.0880352 0.0233185 0.021433 0 0 0 0.162987 0.0540803 -0.068135 0.000546644 -0.00104334 0.00461583 0.162987 0.0540803 -0.068135 433.814 433.814 1001.03 
116 1 1 0.098201 0.0359454 0.00996259 0 0 0 0.135899 0.0156562 -0.00825815 -0.00275911 0.00198761 0.00869634 0.135899 0.0156562 -0.00825815 499.069 499.069 1001.18 
117 1 1 0.139706 0.0287008 0.0260074 0 0 0 0.230762 0.0200509 0.0767006 -0.000588403 -0.00242755 0.001538 0.230762 0.0200509 0.0767006 438.853 438.853 1001.04 
118 1 1 0.153391 0.0210735 0.0209547 0 0 0 0.179365 0.0204182 -0.0752181 0.000700118 -0.000851712 0.000814348 0.179365 0.0204182 -0.0752181 509.466 509.466 1001.21 
119 1 1 0.146435 0.0230448 0.00996461 0 0 0 0.16053 0.118036 -0.00236782 -0.000633695 -0.00609204 0.00466336 0.16053 0.118036 -0.00236782 509.218 509.218 1001.21 
120 1 1 0.172364 0.0266189 0.0209171 0 0 0 0.158601 0.00643123 -0.0326068 -0.000408866 -0.0047379 -9.2213e-05 0.158601 0.00643123 -0.0326068 488.936 488.936 1001.16 
121 1 1 0.00998708 0.0410491 0.00998424 0 0 0 -0.0655245 0.0561961 -0.0153773 0.0083894 7.08018e-05 -0.022666 -0.0655245 0.0561961 -0.0153773 663.362 663.362 1001.57 
122 1 1 0.0224327 0.0343429 0.00982331 0 0 0 -0.0200471 -0.0274198 -0.124911 0.00666191 0.00213293 0.160481 -0.0200471 -0.0274198 -0.124911 116.317 116.317 1000.28 
123 1 1 0.0331837 0.0295385 0.00996818 0 0 0 0.075691 0.00261796 -0.00604697 0.00488042 -0.0039529 0.00353911 0.075691 0.00261796 -0.00604697 414.907 414.907 1000.98 
124 1 1 0.0641855 0.0280628 0.0099628 0 0 0 0.109743 -0.0241329 0.0209562 -0.00109424 0.00498484 0.00344734 0.109743 -0.0241329 0.0209562 444.084 444.084 1001.05 
125 1 1 0.0813843 0.0416326 0.00996697 0 0 0 0.0920847 0.0112012 -0.00831282 0.00859407 -0.00369292 0.00389238 0.0920847 0.0112012 -0.00831282 467.535 467.535 1001.11 
126 1 1 0.101512 0.0411477 0.00998107 0 0 0 0.131928 -0.0556396 -0.00627936 0.00158069 0.000915653 -0.00748868 0.131928 -0.0556396 -0.00627936 483.247 483.247 1001.15 
127 1 1 0.128405 0.0395605 0.00994775 0 0 0 0.120164 0.026769 -0.00970163 -0.0017592 -0.00609185 0.018972 0.120164 0.026769 -0.00970163 610.779 610.779 1001.45 
128 1 1 0.138165 0.0342497 0.00996597 0 0 0 0.083021 -0.0594315 -0.0110252 0.0025105 0.00040858 0.0010985 0.083021 -0.0594315 -0.0110252 545.534 545.534 1001.29 
129 1 1 0.137972 0.0220302 0.00996129 0 0 0 -0.00249513 -0.0314892 0.000471973 0.00314572 -0.00547245 0.00688269 -0.00249513 -0.0314892 0.000471973 505.668 505.668 1001.2 
130 1 1 0.160263 0.0335469 0.00995399 0 0 0 0.18339 -0.0455226 0.00541237 -0.00140958 -0.00349182 0.0119905 0.18339 -0.0455226 0.00541237 486.785 486.785 1001.16 
131 1 1 0.00998905 0.05 0.00995311 0 0 0 -0.0103472 2.71833e-09 0.00998045 0.0040078 -7.00822e-09 0.0102074 -0.0103472 2.71833e-09 0.00998045 791.678 791.678 1001.87 
132 1 1 0.0248018 0.05 0.00999412 0 0 0 0.0122772 1.94096e-10 -0.0157453 0.00372136 -2.45198e-09 -0.0260396 0.0122772 1.94096e-10 -0.0157453 365.403 365.403 1000.87 
133 1 1 0.0374534 0.05 0.0161878 0 0 0 0.0395504 1.79494e-09 -0.094544 -0.00157853 -1.7844e-09 -0.00253795 0.0395504 1.79494e-09 -0.094544 260.663 260.663 1000.62 
134 1 1 0.0765426 0.05 0.00997465 0 0 0 0.0675848 2.54498e-09 0.00979106 0.0178011 -1.70373e-09 -0.00637825 0.0675848 2.54498e-09 0.00979106 655.455 655.455 1001.55 
135 1 1 0.096167 0.05 0.0211025 0 0 0 0.188674 8.67758e-10 -0.0432211 0.0029444 -3.41512e-09 -7.10481e-05 0.188674 8.67758e-10 -0.0432211 407.814 407.814 1000.97 
136 1 1 0.117195 0.05 0.0183147 0 0 0 0.172649 -2.57309e-09 0.042669 -0.00378082 -6.8344e-09 0.00324824 0.172649 -2.57309e-09 0.042669 439.549 439.549 1001.04 
137 1 1 0.143042 0.05 0.0201593 0 0 0 0.207738 -6.94196e-09 -0.046334 -0.00362013 -7.2982e-09 0.00745393 0.207738 -6.94196e-09 -0.046334 618.806 618.806 1001.47 
138 1 1 0.120724 0.05 0.0099685 0 0 0 0.0857973 -4.21663e-09 -0.0173721 -0.00879083 -6.8604e-09 -0.00343985 0.0857973 -4.21663e-09 -0.0173721 506.685 506.685 1001.2 
139 1 1 0.142291 0.05 0.00994686 0 0 0 0.0867844 -8.38511e-09 -0.0178694 -0.00450836 -5.09611e-09 0.013649 0.0867844 -8.38511e-09 -0.0178694 515.777 515.777 1001.22 
140 1 1 0.175732 0.05 0.021957 0 0 0 0.194249 -3.47554e-09 0.0278399 0.00354874 -1.82652e-08 0.000759937 0.194249 -3.47554e-09 0.0278399 531.6 531.6 1001.26 
141 1 1 0.00998708 0.0589509 0.00998424 0 0 0 -0.0655245 -0.0561961 -0.0153773 0.0083894 -7.0816e-05 -0.022666 -0.0655245 -0.0561961 -0.0153773 663.362 663.362 1001.57 
142 1 1 0.0224327 0.0656571 0.00982331 0 0 0 -0.0200471 0.0274198 -0.124911 0.00666191 -0.00213294 0.160481 -0.0200471 0.0274198 -0.124911 116.317 116.317 1000.28 
143 1 1 0.0331837 0.0704615 0.00996818 0 0 0 0.075691 -0.00261795 -0.00604698 0.00488042 0.0039529 0.0035391 0.075691 -0.00261795 -0.00604698 414.908 414.908 1000.98 
144 1 1 0.0641855 0.0719372 0.0099628 0 0 0 0.109743 0.0241329 0.0209562 -0.00109424 -0.00498484 0.00344734 0.109743 0.0241329 0.0209562 444.084 444.084 1001.05 
145 1 1 0.0813843 0.0583674 0.00996697 0 0 0 0.0920847 -0.0112012 -0.00831282 0.00859407 0.00369292 0.00389238 0.0920847 -0.0112012 -0.00831282 467.536 467.536 1001.11 
146 1 1 0.101512 0.0588523 0.00998107 0 0 0 0.131928 0.0556396 -0.00627936 0.00158069 -0.000915662 -0.00748868 0.131928 0.0556396 -0.00627936 483.247 483.247 1001.15 
147 1 1 0.128405 0.0604395 0.00994775 0 0 0 0.120164 -0.026769 -0.00970163 -0.0017592 0.00609184 0.018972 0.120164 -0.026769 -0.00970163 610.779 610.779 1001.45 
148 1 1 0.138165 0.0657503 0.00996597 0 0 0 0.083021 0.0594314 -0.0110252 0.00251051 -0.000408587 0.00109848 0.083021 0.0594314 -0.0110252 545.534 545.534 1001.29 
149 1 1 0.137972 0.0779698 0.00996129 0 0 0 -0.00249513 0.0314892 0.00047199 0.00314573 0.00547244 0.00688265 -0.00249513 0.0314892 0.00047199 505.668 505.668 1001.2 
150 1 1 0.160263 0.0664531 0.009954 0 0 0 0.18339 0.0455226 0.00541235 -0.00140957 0.00349182 0.0119905 0.18339 0.0455226 0.00541235 486.785 486.785 1001.16 
151 1 1 0.00999103 0.0694113 0.00995014 0 0 0 0.0143668 -0.0617745 -0.00699278 0.00700181 0.000814618 0.0123291 0.0143668 -0.0617745 -0.00699278 784.42 784.42 1001.86 
152 1 1 0.0291612 0.0831885 0.0221565 0 0 0 0.0387549 -0.0708276 0.0342179 -0.000209369 -0.00200506 -0.00246943 0.0387549 -0.0708276 0.0342179 359.84 359.84 1000.85 
153 1 1 0.0447982 0.0716948 0.00997021 0 0 0 0.0815053 -0.0237068 0.00520166 -0.00311557 0.000230636 0.0031515 0.0815053 -0.0237068 0.00520166 351.05 351.05 1000.83 
154 1 1 0.0498243 0.081426 0.00995249 0 0 0 0.0228642 -0.0572131 0.0109067 -0.00795638 -0.0115678 0.0162723 0.0228642 -0.0572131 0.0109067 529.3 529.3 1001.26 
155 1 1 0.0880352 0.0766815 0.021433 0 0 0 0.162987 -0.0540803 -0.068135 0.000546638 0.00104334 0.00461584 0.162987 -0.0540803 -0.068135 433.815 433.815 1001.03 
156 1 1 0.098201 0.0640546 0.00996259 0 0 0 0.135899 -0.0156562 -0.00825814 -0.00275911 -0.00198761 0.00869634 0.135899 -0.0156562 -0.00825814 499.069 499.069 1001.18 
157 1 1 0.139706 0.0712992 0.0260074 0 0 0 0.230762 -0.0200509 0.0767006 -0.000588405 0.00242754 0.00153799 0.230762 -0.0200509 0.0767006 438.853 438.853 1001.04 
158 1 1 0.153391 0.0789265 0.0209547 0 0 0 0.179365 -0.0204182 -0.0752181 0.000700122 0.000851707 0.000814325 0.179365 -0.0204182 -0.0752181 509.466 509.466 1001.21 
159 1 1 0.146435 0.0769552 0.00996461 0 0 0 0.16053 -0.118036 -0.00236781 -0.000633683 0.00609203 0.00466332 0.16053 -0.118036 -0.00236781 509.218 509.218 1001.21 
160 1 1 0.172364 0.0733811 0.0209171 0 0 0 0.158601 -0.00643123 -0.0326068 -0.000408888 0.00473789 -9.22653e-05 0.158601 -0.00643123 -0.0326068 488.936 488.936 1001.16 
161 1 1 0.00998327 0.0792424 0.020241 0 0 0 0.018079 0.0232089 0.0116926 0.0151457 0.00114441 0.00219336 0.018079 0.0232089 0.0116926 745.295 745.295 1001.77 
162 1 1 0.0267326 0.0784409 0.0099826 0 0 0 -0.0586716 -0.0111735 0.00853436 0.00129787 0.00175361 -0.011257 -0.0586716 -0.0111735 0.00853436 405.178 405.178 1000.96 
163 1 1 0.0543358 0.0776627 0.0225585 0 0 0 0.106134 -0.0701916 0.0593475 -0.00704629 -0.00527818 0.000596224 0.106134 -0.0701916 0.0593475 360.139 360.139 1000.86 
164 1 1 0.0751281 0.0776824 0.020948 0 0 0 0.179608 0.0316691 0.0145575 0.00200553 -0.0015667 0.00679301 0.179608 0.0316691 0.0145575 391.423 391.423 1000.93 
165 1 1 0.107595 0.0773727 0.0320247 0 0 0 0.20666 -0.0543247 0.118101 -0.000927915 0.0020855 0.00309594 0.20666 -0.0543247 0.118101 271.163 271.163 1000.64 
166 1 1 0.123218 0.079375 0.0235603 0 0 0 0.186136 0.0341418 -0.00644108 -0.00267462 -0.00137453 0.00191024 0.186136 0.0341418 -0.00644108 463.14 463.14 1001.1 
167 1 1 0.143732 0.0795448 0.0235189 0 0 0 0.272544 0.0207641 -0.0255356 0.000911826 0.00215213 0.00180985 0.272544 0.0207641 -0.0255356 448.304 448.304 1001.06 
168 1 1 0.127745 0.0760144 0.009963 0 0 0 0.0775395 0.00295865 -0.00577338 -0.00131656 0.00323859 0.00876744 0.0775395 0.00295865 -0.00577338 554.055 554.055 1001.31 
169 1 1 0.162962 0.0784451 0.0212728 0 0 0 0.172404 0.0555035 0.00178295 0.000861118 0.00388908 0.00215903 0.172404 0.0555035 0.00178295 462.208 462.208 1001.1 
170 1 1 0.167771 0.0793387 0.00998532 0 0 0 0.185589 -0.00459094 0.0140256 0.00208511 -0.00121689 -0.0167252 0.185589 -0.00459094 0.0140256 608.388 608.388 1001.44 
171 1 1 0.0100273 0.0900087 0.00992545 0 0 0 0.00247274 -0.00640411 -0.0111876 -0.0223917 0.0130927 0.0369362 0.00247274 -0.00640411 -0.0111876 746.245 746.245 1001.77 
172 1 1 0.0225151 0.090001 0.0100578 0 0 0 0.00154031 0.000215226 -0.0265251 0.00265381 0.0133357 -0.037419 0.00154031 0.000215226 -0.0265251 341.362 341.362 1000.81 
173 1 1 0.0380226 0.0900233 0.00995285 0 0 0 0.00110705 -0.0487251 -0.0279358 -0.000451011 -0.0109285 0.0204978 0.00110705 -0.0487251 -0.0279358 485.622 485.622 1001.15 
174 1 1 0.0519386 0.0900155 0.00994319 0 0 0 0.0771692 -0.0167685 -0.0158425 -0.009391 0.00341698 0.0222016 0.0771692 -0.0167685 -0.0158425 615.307 615.307 1001.46 
175 1 1 0.0785487 0.0900042 0.00998498 0 0 0 0.0504889 -0.0138767 0.0244695 -0.0040621 0.0124711 -0.017427 0.0504889 -0.0138767 0.0244695 563.438 563.438 1001.34 
176 1 1 0.105411 0.0900367 0.0099822 0 0 0 0.135095 0.00623285 0.0414899 0.00288093 -0.0155282 -0.0125842 0.135095 0.00623285 0.0414899 769.396 769.396 1001.82 
177 1 1 0.117477 0.0900363 0.0099897 0 0 0 -0.00838351 -0.0315336 0.000118164 0.00412868 -0.0177306 -0.0209973 -0.00838351 -0.0315336 0.000118164 732.783 732.783 1001.74 
178 1 1 0.129277 0.0900173 0.00995192 0 0 0 0.0416246 0.0128928 -0.00425228 0.00366501 5.40764e-05 0.0181442 0.0416246 0.0128928 -0.00425228 593.536 593.536 1001.41 
179 1 1 0.139654 0.0900182 0.00996801 0 0 0 0.118977 0.0149746 0.0214581 0.00500634 -0.00239598 0.000873349 0.118977 0.0149746 0.0214581 605.74 605.74 1001.44 
180 1 1 0.147545 0.0900175 0.00999211 0 0 0 0.0330779 -0.0131615 -0.00955377 -0.000836413 -0.00200458 -0.0205777 0.0330779 -0.0131615 -0.00955377 606.541 606.541 1001.44 
181 1 1 0.0100179 0.00999073 0.0163305 0 0 0 0.0138548 0.0402577 -0.0689378 -0.0271932 -0.0175846 -0.00147194 0.0138548 0.0402577 -0.0689378 813.488 813.488 1001.93 