ITEM: TIMESTEP
63000
ITEM: NUMBER OF ATOMS
2655
ITEM: BOX BOUNDS ff ff ff
0 0.5
0 0.1
0 0.5
ITEM: ATOMS id type type x y z ix iy iz vx vy vz fx fy fz vx vy vz p p rho 
1 1 1 0.00999896 0.00998753 0.00998947 0 0 0 0.00286489 0.00943491 -0.00748449 -0.0123302 0.00273539 -0.00702696 0.00286489 0.00943491 -0.00748449 491.129 491.129 1001.17 
2 1 1 0.0295541 0.00999303 0.00998409 0 0 0 -0.0072293 0.00855276 -0.00553383 -0.000666183 -0.00697779 -0.00412186 -0.0072293 0.00855276 -0.00553383 487.326 487.326 1001.16 
3 1 1 0.0241808 0.00998742 0.00998163 0 0 0 -0.0346818 -0.0032365 -0.010309 -0.000211156 0.000659282 -0.000651493 -0.0346818 -0.0032365 -0.010309 496.15 496.15 1001.18 
4 1 1 0.0653938 0.00998086 0.00998402 0 0 0 -0.0705329 -0.00356966 0.0104812 -0.000610704 0.00298875 -0.00579193 -0.0705329 -0.00356966 0.0104812 455.613 455.613 1001.08 
5 1 1 0.0702909 0.00997601 0.00998676 0 0 0 -0.0249137 0.00182492 -0.00111803 -5.28413e-05 0.00931304 -0.0102612 -0.0249137 0.00182492 -0.00111803 459.02 459.02 1001.09 
6 1 1 0.091971 0.00998573 0.00998287 0 0 0 -0.124098 -0.000159885 -0.00686677 -0.00266712 0.0010906 -0.00258434 -0.124098 -0.000159885 -0.00686677 518.735 518.735 1001.23 
7 1 1 0.105854 0.00998186 0.00998871 0 0 0 -0.117938 -0.00507714 -0.000281581 0.00109689 0.00721456 -0.00449539 -0.117938 -0.00507714 -0.000281581 534.142 534.142 1001.27 
8 1 1 0.117103 0.00999972 0.00998775 0 0 0 -0.173806 0.00758047 -0.00114864 -0.00312445 -0.0108341 -0.00372469 -0.173806 0.00758047 -0.00114864 517.668 517.668 1001.23 
9 1 1 0.125471 0.00999313 0.00998129 0 0 0 -0.158996 -0.00451204 -0.004713 -0.00274518 -0.00494225 0.00400936 -0.158996 -0.00451204 -0.004713 530.138 530.138 1001.26 
10 1 1 0.139743 0.00999166 0.00998128 0 0 0 -0.147846 -0.00306689 0.00937003 -0.00234569 -0.00152564 0.00494496 -0.147846 -0.00306689 0.00937003 582.286 582.286 1001.38 
11 1 1 0.00999031 0.022828 0.00997279 0 0 0 -0.000325347 0.0187903 -0.000154856 -0.00361638 -0.00133576 0.00295053 -0.000325347 0.0187903 -0.000154856 435.052 435.052 1001.03 
12 1 1 0.027292 0.0318145 0.00997713 0 0 0 0.0173297 0.0159622 -0.0014717 -0.00165239 -0.00100136 -6.69213e-05 0.0173297 0.0159622 -0.0014717 401.543 401.543 1000.95 
13 1 1 0.0273551 0.0233438 0.00997434 0 0 0 0.0106624 0.00159663 -0.00253515 -0.00318337 -9.21084e-05 0.0010342 0.0106624 0.00159663 -0.00253515 420.758 420.758 1001 
14 1 1 0.0896557 0.0232661 0.00997816 0 0 0 -0.0131306 0.0251474 0.00132158 0.00148081 0.00103938 -0.00195794 -0.0131306 0.0251474 0.00132158 417.423 417.423 1000.99 
15 1 1 0.0768343 0.0222379 0.00997749 0 0 0 -0.0242541 -0.00192244 -0.00097976 -0.000444352 8.83193e-05 -8.71391e-05 -0.0242541 -0.00192244 -0.00097976 409.588 409.588 1000.97 
16 1 1 0.104223 0.0238629 0.0099785 0 0 0 -0.0387737 -0.014915 0.00281263 0.000322774 -0.00160259 -0.000247427 -0.0387737 -0.014915 0.00281263 421.793 421.793 1001 
17 1 1 0.10278 0.0416131 0.00997662 0 0 0 -0.0754989 0.044189 0.00367398 -0.000977653 -0.000869975 3.69419e-05 -0.0754989 0.044189 0.00367398 393.285 393.285 1000.93 
18 1 1 0.127686 0.0349008 0.00997778 0 0 0 -0.0326039 -0.00568978 -0.00100678 0.000453213 2.75119e-05 -0.000467397 -0.0326039 -0.00568978 -0.00100678 397.211 397.211 1000.94 
19 1 1 0.115043 0.024827 0.00997945 0 0 0 -0.0562382 0.0230018 -0.00161264 0.000242723 -0.000375978 -0.00114403 -0.0562382 0.0230018 -0.00161264 405.859 405.859 1000.96 
20 1 1 0.159071 0.0224779 0.00997626 0 0 0 -0.113494 -0.0134018 0.0062573 -0.00266125 -0.00110454 0.00123417 -0.113494 -0.0134018 0.0062573 433.803 433.803 1001.03 
21 1 1 0.00997726 0.025279 0.00997646 0 0 0 0.00136519 -0.0115543 -0.00717797 0.00962429 0.00117384 -0.000198992 0.00136519 -0.0115543 -0.00717797 425.631 425.631 1001.01 
22 1 1 0.0369868 0.0377838 0.00997899 0 0 0 0.016477 0.00233415 0.000212943 -0.000472147 -0.000676488 -0.00024285 0.016477 0.00233415 0.000212943 385.189 385.189 1000.91 
23 1 1 0.0564158 0.0376959 0.00998021 0 0 0 -0.0435052 -0.000367554 0.0022862 0.000422624 0.000701117 -0.00134957 -0.0435052 -0.000367554 0.0022862 366.053 366.053 1000.87 
24 1 1 0.0787656 0.029203 0.00997582 0 0 0 0.00531174 -0.0076074 -0.00106058 0.00125447 0.00244695 0.000286467 0.00531174 -0.0076074 -0.00106058 390.942 390.942 1000.93 
25 1 1 0.100251 0.0302647 0.00997485 0 0 0 0.0260719 0.052707 -0.00137845 -0.000181735 0.0011052 0.00170029 0.0260719 0.052707 -0.00137845 407.497 407.497 1000.97 
26 1 1 0.110528 0.0236065 0.00998024 0 0 0 0.00249013 0.0590449 0.00269644 -0.000369827 -0.00113016 -0.00169889 0.00249013 0.0590449 0.00269644 415.333 415.333 1000.99 
27 1 1 0.138193 0.0427716 0.00997866 0 0 0 0.00303661 -0.0151229 0.000689273 -0.000836078 0.000435678 -0.00122767 0.00303661 -0.0151229 0.000689273 399.691 399.691 1000.95 
28 1 1 0.107876 0.0352841 0.00997514 0 0 0 0.00672102 0.0096673 0.000472104 0.000161136 -0.000742862 0.00196481 0.00672102 0.0096673 0.000472104 402.325 402.325 1000.96 
29 1 1 0.143561 0.0231441 0.00997788 0 0 0 -0.0720178 -0.00649246 -0.000112783 5.81062e-05 -0.00124918 -0.000292209 -0.0720178 -0.00649246 -0.000112783 446.997 446.997 1001.06 
30 1 1 0.151929 0.0307843 0.00997801 0 0 0 -0.0588937 -0.0446133 0.00597484 -0.00106512 -0.000112346 0.000673127 -0.0588937 -0.0446133 0.00597484 399.197 399.197 1000.95 
31 1 1 0.00998833 0.0367738 0.00998 0 0 0 0.00110764 0.0232152 -0.00599904 -0.00164917 0.00023327 -0.00163209 0.00110764 0.0232152 -0.00599904 405.849 405.849 1000.96 
32 1 1 0.0215565 0.0431114 0.00997729 0 0 0 0.00515684 0.0311483 -0.000234353 -0.000104643 -0.000876205 -0.000135399 0.00515684 0.0311483 -0.000234353 408.749 408.749 1000.97 
33 1 1 0.0503641 0.0378228 0.00997878 0 0 0 0.0253957 -0.0239298 0.00134518 0.000181296 0.000901315 -0.000125005 0.0253957 -0.0239298 0.00134518 367.05 367.05 1000.87 
34 1 1 0.0680397 0.0377695 0.00997738 0 0 0 -0.0117894 0.024017 0.000957984 0.000699195 -4.70767e-05 -0.000142261 -0.0117894 0.024017 0.000957984 373.837 373.837 1000.89 
35 1 1 0.0741787 0.0398687 0.00997502 0 0 0 0.030931 0.0011278 -0.000275611 0.0006759 7.12236e-05 0.000425973 0.030931 0.0011278 -0.000275611 375.483 375.483 1000.89 
36 1 1 0.0910706 0.0324269 0.00997448 0 0 0 0.0142327 -0.0326563 -0.00271971 -0.000396635 0.000278584 0.00067049 0.0142327 -0.0326563 -0.00271971 396.736 396.736 1000.94 
37 1 1 0.121362 0.040463 0.00997714 0 0 0 -0.0333455 0.009046 -0.00281723 0.000548917 -0.000146152 -9.97308e-05 -0.0333455 0.009046 -0.00281723 395.359 395.359 1000.94 
38 1 1 0.131961 0.0392232 0.00997748 0 0 0 -0.0694691 0.0542619 -0.000887111 -0.000204032 -0.000829659 -0.000336395 -0.0694691 0.0542619 -0.000887111 394.359 394.359 1000.94 
39 1 1 0.144901 0.0439603 0.00997955 0 0 0 -0.00551605 -0.0148306 0.0010369 -0.000733525 0.000756965 -0.00180138 -0.00551605 -0.0148306 0.0010369 406.196 406.196 1000.96 
40 1 1 0.161156 0.0399559 0.00997545 0 0 0 -0.10975 0.00407516 0.000736048 0.000570358 -0.000244116 0.00375061 -0.10975 0.00407516 0.000736048 395.375 395.375 1000.94 
41 1 1 0.00998337 0.0512213 0.0099812 0 0 0 -0.0118444 0.0566498 0.00290684 0.00169529 0.00168674 -0.003498 -0.0118444 0.0566498 0.00290684 385 385 1000.91 
42 1 1 0.0354218 0.0499964 0.00997336 0 0 0 0.0043244 7.21568e-05 0.00188663 0.000456774 -9.02055e-05 0.00147791 0.0043244 7.21568e-05 0.00188663 371.001 371.001 1000.88 
43 1 1 0.051043 0.0500039 0.00997712 0 0 0 -0.00568088 -0.000326205 0.00289693 -0.000451826 -9.25247e-05 0.00141422 -0.00568088 -0.000326205 0.00289693 373.418 373.418 1000.89 
44 1 1 0.0703534 0.0499951 0.00997534 0 0 0 0.00143064 -0.000381755 0.000884238 -0.00185935 -0.000166049 0.000503794 0.00143064 -0.000381755 0.000884238 375.813 375.813 1000.89 
45 1 1 0.0825162 0.0499973 0.00997537 0 0 0 -0.0683858 -0.000330682 -0.000665719 -0.000274932 -0.000186271 0.00129439 -0.0683858 -0.000330682 -0.000665719 375.213 375.213 1000.89 
46 1 1 0.0896724 0.0499988 0.00997432 0 0 0 0.0184901 -0.00027418 -0.00134938 -0.000265295 -0.000183278 0.00129398 0.0184901 -0.00027418 -0.00134938 382.424 382.424 1000.91 
47 1 1 0.0972844 0.0499981 0.00997633 0 0 0 0.00306497 -0.000265005 0.00531558 -0.000669576 -0.000167231 -0.000667457 0.00306497 -0.000265005 0.00531558 388.5 388.5 1000.92 
48 1 1 0.127871 0.0499986 0.00997549 0 0 0 -0.0025053 -0.00016717 -0.00316821 -0.000501027 -3.6704e-05 0.00128714 -0.0025053 -0.00016717 -0.00316821 383.448 383.448 1000.91 
49 1 1 0.1152 0.0499994 0.0099753 0 0 0 -0.041132 -0.000246602 0.000994806 -0.00124521 -9.84733e-05 0.00116839 -0.041132 -0.000246602 0.000994806 380.254 380.254 1000.9 
50 1 1 0.159102 0.0500023 0.00997998 0 0 0 -0.0538988 -6.75337e-05 -0.000251838 -0.000958902 -2.71881e-05 -0.00103959 -0.0538988 -6.75337e-05 -0.000251838 390.277 390.277 1000.93 
51 1 1 0.00998981 0.0632397 0.00997968 0 0 0 0.000255345 -0.0228473 -0.00503876 -0.00323703 -0.00058395 -0.00151963 0.000255345 -0.0228473 -0.00503876 406.867 406.867 1000.97 
52 1 1 0.0215628 0.0568869 0.00997628 0 0 0 0.00431479 -0.030838 0.000196664 -0.00016002 0.000670676 0.000782588 0.00431479 -0.030838 0.000196664 408.712 408.712 1000.97 
53 1 1 0.0503512 0.0621824 0.00997865 0 0 0 0.0241057 0.0242705 0.00109053 0.000120067 -0.000802129 -9.46251e-05 0.0241057 0.0242705 0.00109053 368.996 368.996 1000.88 
54 1 1 0.0680413 0.0622199 0.00997761 0 0 0 -0.0116903 -0.0247152 0.000876088 0.000555983 -8.24818e-05 -0.000595637 -0.0116903 -0.0247152 0.000876088 377.794 377.794 1000.9 
55 1 1 0.0741763 0.060132 0.00997497 0 0 0 0.0307866 -0.0016652 -0.000411168 0.000620098 -0.000360914 0.000279468 0.0307866 -0.0016652 -0.000411168 379.279 379.279 1000.9 
56 1 1 0.0910724 0.0675697 0.00997418 0 0 0 0.0143264 0.0318039 -0.0026975 -0.000287124 -0.000540354 0.000653045 0.0143264 0.0318039 -0.0026975 402.799 402.799 1000.96 
57 1 1 0.121363 0.0595351 0.00997692 0 0 0 -0.0333007 -0.00932025 -0.00277617 0.000624647 0.000227968 4.47547e-05 -0.0333007 -0.00932025 -0.00277617 397.095 397.095 1000.94 
58 1 1 0.131966 0.060775 0.00997717 0 0 0 -0.0693947 -0.0545797 -0.000863418 -0.000203405 0.000931569 -6.12414e-05 -0.0693947 -0.0545797 -0.000863418 395.076 395.076 1000.94 
59 1 1 0.1449 0.0560437 0.00997927 0 0 0 -0.00549293 0.0146799 0.00104342 -0.000745277 -0.000797253 -0.00152691 -0.00549293 0.0146799 0.00104342 406.671 406.671 1000.97 
60 1 1 0.161149 0.0600535 0.00997521 0 0 0 -0.109554 -0.00406329 0.00134146 0.000618169 0.000220336 0.00397868 -0.109554 -0.00406329 0.00134146 395.979 395.979 1000.94 
61 1 1 0.00998068 0.0747164 0.00997621 0 0 0 0.00747359 0.0126467 -0.00981524 0.0060266 -0.0018238 -7.52056e-05 0.00747359 0.0126467 -0.00981524 433.447 433.447 1001.03 
62 1 1 0.0369917 0.0622022 0.00997919 0 0 0 0.0169738 -0.00265828 8.94196e-05 -0.000373783 0.000714667 -0.000584791 0.0169738 -0.00265828 8.94196e-05 386.251 386.251 1000.92 
63 1 1 0.0564107 0.062319 0.00998042 0 0 0 -0.0439676 0.000457967 0.00231503 0.000325684 -0.000628763 -0.00170552 -0.0439676 0.000457967 0.00231503 368.747 368.747 1000.88 
64 1 1 0.0787658 0.070791 0.00997596 0 0 0 0.00523831 0.00687599 -0.00110848 0.00113007 -0.00267404 -0.000230297 0.00523831 0.00687599 -0.00110848 398.975 398.975 1000.95 
65 1 1 0.100253 0.0697354 0.00997452 0 0 0 0.0261401 -0.0535757 -0.00121074 8.39971e-05 -0.00121424 0.00177835 0.0261401 -0.0535757 -0.00121074 412.647 412.647 1000.98 
66 1 1 0.110528 0.0763872 0.00997816 0 0 0 0.00344908 -0.0600562 0.00270785 0.000396885 0.00138601 0.000295415 0.00344908 -0.0600562 0.00270785 413.292 413.292 1000.98 
67 1 1 0.138194 0.057227 0.00997825 0 0 0 0.00310079 0.0147522 0.000772038 -0.000847354 -0.000441894 -0.000834472 0.00310079 0.0147522 0.000772038 400.17 400.17 1000.95 
68 1 1 0.107876 0.064714 0.00997487 0 0 0 0.00697409 -0.0103422 0.0006948 0.000403695 0.000802109 0.00208244 0.00697409 -0.0103422 0.0006948 405.458 405.458 1000.96 
69 1 1 0.143564 0.0768506 0.00997766 0 0 0 -0.0715526 0.00577003 -0.000244894 -0.000171948 0.00147995 -6.27258e-05 -0.0715526 0.00577003 -0.000244894 445.537 445.537 1001.06 
70 1 1 0.151929 0.0692162 0.00997805 0 0 0 -0.0589389 0.044483 0.00616491 -0.00111637 0.000159284 0.000625943 -0.0589389 0.044483 0.00616491 400.292 400.292 1000.95 
71 1 1 0.00999292 0.0771486 0.00997208 0 0 0 -0.00426949 -0.0176585 -0.00422461 -0.00634669 0.000536305 0.00339993 -0.00426949 -0.0176585 -0.00422461 444.706 444.706 1001.06 
72 1 1 0.0272774 0.0681656 0.00997723 0 0 0 0.0163405 -0.0153383 -0.000893967 -0.00151707 0.000968187 -0.000326993 0.0163405 -0.0153383 -0.000893967 405.773 405.773 1000.96 
73 1 1 0.0274021 0.0766277 0.00997267 0 0 0 0.0107791 0.000113085 -0.00286494 -0.00292349 0.000238572 0.00264477 0.0107791 0.000113085 -0.00286494 424.524 424.524 1001.01 
74 1 1 0.089655 0.0767312 0.00997838 0 0 0 -0.013324 -0.025814 0.00174384 0.00166979 -0.0012229 -0.00261555 -0.013324 -0.025814 0.00174384 426.172 426.172 1001.01 
75 1 1 0.0768374 0.0777571 0.00997817 0 0 0 -0.0239223 0.00113393 -0.000915224 -0.00077988 -0.000137588 -0.00115845 -0.0239223 0.00113393 -0.000915224 418.615 418.615 1000.99 
76 1 1 0.104226 0.0761369 0.00997777 0 0 0 -0.0384521 0.0139893 0.00279657 0.000885829 0.00161044 0.000279165 -0.0384521 0.0139893 0.00279657 426.324 426.324 1001.01 
77 1 1 0.102779 0.0583856 0.00997654 0 0 0 -0.0755608 -0.0447897 0.0037048 -0.0009223 0.000651301 -1.53457e-06 -0.0755608 -0.0447897 0.0037048 396.226 396.226 1000.94 
78 1 1 0.127684 0.0650933 0.00997753 0 0 0 -0.0327655 0.00543427 -0.00109108 0.000426788 0.000295373 -0.000287707 -0.0327655 0.00543427 -0.00109108 396.862 396.862 1000.94 
79 1 1 0.115048 0.0751768 0.00997739 0 0 0 -0.0551612 -0.0236467 -0.000697258 0.000819564 0.000833736 0.000881836 -0.0551612 -0.0236467 -0.000697258 399.315 399.315 1000.95 
80 1 1 0.15907 0.0775229 0.00997676 0 0 0 -0.113541 0.0131613 0.00658215 -0.0026868 0.00113824 0.000746742 -0.113541 0.0131613 0.00658215 434.66 434.66 1001.03 
81 1 1 0.00997608 0.0900202 0.00997769 0 0 0 0.0176546 -0.00495496 -0.0134084 0.0103293 -0.0102492 0.0038998 0.0176546 -0.00495496 -0.0134084 518.448 518.448 1001.23 
82 1 1 0.029585 0.0900066 0.00997597 0 0 0 -0.00746996 -0.00862219 -0.0162561 0.00022291 0.00736066 0.00437037 -0.00746996 -0.00862219 -0.0162561 482.113 482.113 1001.14 
83 1 1 0.0242242 0.0900098 0.00997957 0 0 0 -0.0336451 0.000777257 -0.000782218 0.000936695 0.00223593 0.00118854 -0.0336451 0.000777257 -0.000782218 501.296 501.296 1001.19 
84 1 1 0.0654103 0.0900223 0.00998703 0 0 0 -0.070048 0.00100196 0.00790123 -0.0012214 -0.00612653 -0.0090303 -0.070048 0.00100196 0.00790123 457.403 457.403 1001.09 
85 1 1 0.0703173 0.0900258 0.00998833 0 0 0 -0.0246716 -0.00375509 -0.00282683 -0.000640535 -0.0109877 -0.0121485 -0.0246716 -0.00375509 -0.00282683 464.324 464.324 1001.1 
86 1 1 0.0919787 0.0900148 0.00998318 0 0 0 -0.124772 0.00209822 -0.00614654 -0.0025072 -0.00141741 -0.00327224 -0.124772 0.00209822 -0.00614654 530.152 530.152 1001.26 
87 1 1 0.105861 0.0900016 0.00998716 0 0 0 -0.117343 -0.0120001 -0.00156314 0.00233756 0.00938528 -0.00304983 -0.117343 -0.0120001 -0.00156314 541.333 541.333 1001.28 
88 1 1 0.117107 0.0900099 0.00998634 0 0 0 -0.172613 0.00484721 -0.00166387 -0.00200892 0.00105736 -0.0023596 -0.172613 0.00484721 -0.00166387 492.887 492.887 1001.17 
89 1 1 0.125475 0.0900182 0.00998733 0 0 0 -0.15899 0.00549983 -0.00614393 -0.00305546 -0.00662798 -0.00217516 -0.15899 0.00549983 -0.00614393 505.156 505.156 1001.2 
90 1 1 0.139747 0.0900092 0.00998158 0 0 0 -0.147158 0.002229 0.00650048 -0.00290769 0.000601982 0.00460018 -0.147158 0.002229 0.00650048 573.294 573.294 1001.36 
91 1 1 0.00996443 0.00999543 0.00999793 0 0 0 0.000120215 -0.00385983 0.0134295 0.0221848 -0.00507876 -0.015403 0.000120215 -0.00385983 0.0134295 491.095 491.095 1001.17 
92 1 1 0.0208933 0.00999082 0.00997472 0 0 0 0.0173284 6.22422e-05 -0.0113959 0.00122944 -0.00243531 0.00646893 0.0173284 6.22422e-05 -0.0113959 497.595 497.595 1001.18 
93 1 1 0.034732 0.00997801 0.00997367 0 0 0 -0.00475223 0.000215409 0.00977704 0.000947608 0.00687803 0.00654953 -0.00475223 0.000215409 0.00977704 472.448 472.448 1001.12 
94 1 1 0.0447218 0.00997604 0.0099959 0 0 0 -0.00293368 0.00257901 -2.53755e-05 -0.000377061 0.00828059 -0.0147948 -0.00293368 0.00257901 -2.53755e-05 449.513 449.513 1001.07 
95 1 1 0.0757959 0.00998196 0.00998023 0 0 0 -0.0521752 0.00572447 -0.00786717 -0.000765719 0.00370776 -0.00305136 -0.0521752 0.00572447 -0.00786717 472.892 472.892 1001.12 
96 1 1 0.101855 0.00999617 0.00997616 0 0 0 -0.127946 0.00703604 -3.35899e-05 -0.00133693 -0.00770102 0.00738296 -0.127946 0.00703604 -3.35899e-05 534.51 534.51 1001.27 
97 1 1 0.110298 0.0099871 0.00997527 0 0 0 -0.132788 -0.00692468 0.00176432 0.00174386 0.00195718 0.00870632 -0.132788 -0.00692468 0.00176432 527.283 527.283 1001.25 
98 1 1 0.119284 0.00998891 0.00998619 0 0 0 -0.138886 -0.0097403 6.50512e-05 6.15588e-05 -0.000298285 -0.00191834 -0.138886 -0.0097403 6.50512e-05 517.87 517.87 1001.23 
99 1 1 0.130254 0.00998286 0.00998845 0 0 0 -0.146724 0.00759085 -0.00681101 -0.00258196 0.00594502 -0.00265517 -0.146724 0.00759085 -0.00681101 549.579 549.579 1001.3 
100 1 1 0.134175 0.00999519 0.00997661 0 0 0 -0.166543 0.00343764 -0.00118519 -0.000443119 -0.00568358 0.00984695 -0.166543 0.00343764 -0.00118519 567.387 567.387 1001.35 
101 1 1 0.00999105 0.0221311 0.0245353 0 0 0 0.00903492 0.0383976 0.0161953 -0.0022415 0.000797889 7.69654e-05 0.00903492 0.0383976 0.0161953 345.393 345.393 1000.82 
102 1 1 0.0210278 0.0229822 0.00997347 0 0 0 -0.0203518 0.0157592 -0.00360435 -8.45775e-05 0.000209503 0.00122781 -0.0203518 0.0157592 -0.00360435 430.554 430.554 1001.02 
103 1 1 0.0409072 0.0227303 0.0223052 0 0 0 -0.0786362 -0.0311641 0.0121709 -0.000750933 0.000457522 0.000800112 -0.0786362 -0.0311641 0.0121709 290.683 290.683 1000.69 
104 1 1 0.0866666 0.0220799 0.0299215 0 0 0 -0.00099061 -0.00492031 0.0341202 0.00117078 0.00162484 0.0012773 -0.00099061 -0.00492031 0.0341202 229.375 229.375 1000.55 
105 1 1 0.128656 0.0218428 0.0424856 0 0 0 -0.0198115 0.00556789 0.0138456 -0.000286162 -0.00116903 -0.000488226 -0.0198115 0.00556789 0.0138456 115.875 115.875 1000.28 
106 1 1 0.125005 0.0223671 0.00999143 0 0 0 0.00316304 -0.0375229 0.00487828 0.00014159 0.00029218 -0.0135669 0.00316304 -0.0375229 0.00487828 424.816 424.816 1001.01 
107 1 1 0.174777 0.0216327 0.0238905 0 0 0 -0.0271616 0.0293057 0.0645503 -0.00102236 0.00060836 -0.00053387 -0.0271616 0.0293057 0.0645503 280.227 280.227 1000.67 
108 1 1 0.135802 0.0269899 0.00997419 0 0 0 -0.0236779 0.0344283 -0.000443092 -0.000247411 0.000557716 0.00290294 -0.0236779 0.0344283 -0.000443092 408.298 408.298 1000.97 
109 1 1 0.194358 0.0235569 0.0219574 0 0 0 0.0333159 -0.0287734 0.0275789 -0.000496015 -0.000470919 0.000317006 0.0333159 -0.0287734 0.0275789 310.126 310.126 1000.74 
110 1 1 0.17987 0.0236602 0.00998028 0 0 0 -0.127447 -0.00507718 0.000181571 -0.00053664 -0.000915843 -0.00194085 -0.127447 -0.00507718 0.000181571 467.477 467.477 1001.11 
111 1 1 0.00998513 0.0319914 0.00997934 0 0 0 -0.00135064 -0.00964641 -0.00190568 0.00194643 -0.000656186 -0.000848592 -0.00135064 -0.00964641 -0.00190568 411.622 411.622 1000.98 
112 1 1 0.021961 0.0214287 0.0341574 0 0 0 0.00307993 0.0443798 0.103581 -0.000530331 0.000538113 0.00060123 0.00307993 0.0443798 0.103581 172.946 172.946 1000.41 
113 1 1 0.0436238 0.0332976 0.00997709 0 0 0 -0.034294 -0.0270677 -0.00145117 -0.00120703 -0.000595689 0.00141275 -0.034294 -0.0270677 -0.00145117 381.591 381.591 1000.91 
114 1 1 0.0546445 0.0229963 0.00997729 0 0 0 -0.00192718 -3.91104e-05 -5.96314e-05 -0.000213819 0.000420484 0.000391829 -0.00192718 -3.91104e-05 -5.96314e-05 398.619 398.619 1000.95 
115 1 1 0.0869072 0.0213955 0.02256 0 0 0 -0.0300971 -0.00988612 0.00329385 0.00063136 0.00260842 -0.00080519 -0.0300971 -0.00988612 0.00329385 285.343 285.343 1000.68 
116 1 1 0.0952474 0.0406961 0.00997561 0 0 0 -0.0525852 -0.0166757 0.000770447 0.00121036 -0.000700331 0.000630913 -0.0525852 -0.0166757 0.000770447 395.558 395.558 1000.94 
117 1 1 0.169185 0.0298324 0.0258341 0 0 0 -0.0245337 -0.0103014 -0.0220494 -1.88044e-05 -0.00032706 -0.000915366 -0.0245337 -0.0103014 -0.0220494 251.55 251.55 1000.6 
118 1 1 0.187046 0.0193034 0.0234592 0 0 0 -0.000264665 -0.00620951 -0.0191084 0.000835858 0.00210324 -0.00103632 -0.000264665 -0.00620951 -0.0191084 296.55 296.55 1000.7 
119 1 1 0.148714 0.0237531 0.00997849 0 0 0 -0.100294 0.0556812 0.00206945 0.00155746 -0.0025731 -0.000748533 -0.100294 0.0556812 0.00206945 440.854 440.854 1001.05 
120 1 1 0.200888 0.0211874 0.0255063 0 0 0 0.00464375 0.0192672 0.0122557 -0.000342988 0.000413544 -0.00143635 0.00464375 0.0192672 0.0122557 279.142 279.142 1000.66 
121 1 1 0.00998986 0.0414519 0.00997484 0 0 0 0.00665087 0.000581173 -0.00280272 -0.00389781 0.000659314 0.00342778 0.00665087 0.000581173 -0.00280272 398.398 398.398 1000.95 
122 1 1 0.0222759 0.0351269 0.00997549 0 0 0 -0.0474991 -0.0605023 -0.00546843 -0.00240502 3.14663e-05 0.000917824 -0.0474991 -0.0605023 -0.00546843 405.494 405.494 1000.96 
123 1 1 0.0344822 0.0223699 0.00997839 0 0 0 -0.0145593 -0.0660157 -0.00537206 -0.00161059 0.00258218 -0.00246446 -0.0145593 -0.0660157 -0.00537206 416.313 416.313 1000.99 
124 1 1 0.071471 0.0290077 0.0099778 0 0 0 0.0027071 0.000938394 0.000381537 -0.0011604 0.00128918 -0.0013909 0.0027071 0.000938394 0.000381537 388.993 388.993 1000.92 
125 1 1 0.0820437 0.0392368 0.00997419 0 0 0 -0.0164985 -0.0349358 -0.00175128 -0.00193845 -0.00058121 3.53602e-05 -0.0164985 -0.0349358 -0.00175128 379.55 379.55 1000.9 
126 1 1 0.11816 0.0356159 0.00997816 0 0 0 -0.0132652 -0.00229343 -0.00129751 -0.000558285 -0.000328185 -0.00110244 -0.0132652 -0.00229343 -0.00129751 399.062 399.062 1000.95 
127 1 1 0.148917 0.0375986 0.00997957 0 0 0 -0.054515 0.0527368 0.00180138 -0.000831833 2.36533e-06 -0.00114965 -0.054515 0.0527368 0.00180138 395.803 395.803 1000.94 
128 1 1 0.1406 0.0331481 0.0099789 0 0 0 -0.0886327 -0.0108977 -6.12732e-05 -0.00095892 0.00131461 -0.00173498 -0.0886327 -0.0108977 -6.12732e-05 399.295 399.295 1000.95 
129 1 1 0.133283 0.0234547 0.00997554 0 0 0 -0.113472 -0.00892724 -0.00163287 -0.00106891 -0.00151163 0.00190508 -0.113472 -0.00892724 -0.00163287 425.854 425.854 1001.01 
130 1 1 0.177357 0.0306083 0.00997774 0 0 0 -0.0689867 0.0402053 -0.00067507 0.000323017 -0.000429332 0.000744405 -0.0689867 0.0402053 -0.00067507 437.841 437.841 1001.04 
131 1 1 0.00997604 0.0487886 0.00997621 0 0 0 -0.0006884 -0.0552552 0.00180918 0.00906908 -0.00167411 0.00156777 -0.0006884 -0.0552552 0.00180918 385.662 385.662 1000.92 
132 1 1 0.0219971 0.0500005 0.00997882 0 0 0 0.0349309 -3.26794e-06 0.000110801 0.000119467 -5.5337e-05 -0.0010378 0.0349309 -3.26794e-06 0.000110801 407.899 407.899 1000.97 
133 1 1 0.0453191 0.0499939 0.00997931 0 0 0 -0.0316275 -0.000180363 0.000198048 -0.00214087 -8.52039e-05 -0.00294773 -0.0316275 -0.000180363 0.000198048 372.609 372.609 1000.88 
134 1 1 0.0758899 0.0499994 0.0099762 0 0 0 0.0703606 -0.000296853 0.000242015 0.000558362 -0.000178472 0.000621482 0.0703606 -0.000296853 0.000242015 376.286 376.286 1000.89 
135 1 1 0.120732 0.0500001 0.00997507 0 0 0 -0.0264896 -0.000201017 0.00155074 -0.000803987 -6.61905e-05 0.00152463 -0.0264896 -0.000201017 0.00155074 384.472 384.472 1000.91 
136 1 1 0.131347 0.0499988 0.0231954 0 0 0 -0.0219226 -0.000122923 0.0735867 0.00095945 -5.08905e-05 -0.000304086 -0.0219226 -0.000122923 0.0735867 256.458 256.458 1000.61 
137 1 1 0.164337 0.05 0.0213818 0 0 0 -0.0474913 -9.8903e-05 -0.00968345 -0.00111926 -4.08136e-06 0.000683168 -0.0474913 -9.8903e-05 -0.00968345 276.408 276.408 1000.66 
138 1 1 0.133489 0.0499988 0.00997712 0 0 0 -0.0472206 -0.000154286 -0.000351601 0.000894054 -2.78625e-05 0.000314666 -0.0472206 -0.000154286 -0.000351601 389.651 389.651 1000.93 
139 1 1 0.149111 0.0499996 0.00998244 0 0 0 -0.106496 -8.1194e-05 0.00047557 -0.000389844 -3.33064e-05 -0.00398915 -0.106496 -8.1194e-05 0.00047557 406.182 406.182 1000.96 
140 1 1 0.213464 0.05 0.0258707 0 0 0 0.0619646 -5.61991e-05 -0.0105119 0.000463606 -8.52296e-06 -0.00115701 0.0619646 -5.61991e-05 -0.0105119 272.594 272.594 1000.65 
141 1 1 0.00999139 0.058575 0.00997459 0 0 0 0.00489737 0.000720476 -0.00211412 -0.00549498 -0.000887415 0.00349842 0.00489737 0.000720476 -0.00211412 396.654 396.654 1000.94 
142 1 1 0.0222653 0.0648662 0.0099743 0 0 0 -0.0489162 0.060424 -0.00464143 -0.00237513 -0.000238153 0.00196508 -0.0489162 0.060424 -0.00464143 408.891 408.891 1000.97 
143 1 1 0.0344674 0.0776506 0.00998138 0 0 0 -0.0161905 0.0685434 -0.00474824 -0.00122314 -0.00226644 -0.00531588 -0.0161905 0.0685434 -0.00474824 416.638 416.638 1000.99 
144 1 1 0.0714706 0.0709863 0.00997823 0 0 0 0.00243062 -0.00193517 0.000608454 -0.00154172 -0.00132818 -0.00215754 0.00243062 -0.00193517 0.000608454 394.662 394.662 1000.94 
145 1 1 0.0820412 0.0607604 0.00997407 0 0 0 -0.0165083 0.0342009 -0.0018278 -0.00195451 0.000254168 -9.07854e-05 -0.0165083 0.0342009 -0.0018278 383.76 383.76 1000.91 
146 1 1 0.11816 0.0643838 0.00997791 0 0 0 -0.0130225 0.0022082 -0.000911343 -0.000400526 0.000644303 -0.000945343 -0.0130225 0.0022082 -0.000911343 399.788 399.788 1000.95 
147 1 1 0.148911 0.0624036 0.00997926 0 0 0 -0.054627 -0.0529181 0.00173705 -0.000861683 6.14482e-06 -0.000856612 -0.054627 -0.0529181 0.00173705 396.766 396.766 1000.94 
148 1 1 0.140603 0.066859 0.00997843 0 0 0 -0.0883834 0.0107352 -0.000188981 -0.00105408 -0.0011781 -0.0012864 -0.0883834 0.0107352 -0.000188981 399.305 399.305 1000.95 
149 1 1 0.133315 0.0765515 0.00997747 0 0 0 -0.112969 0.00889487 -0.00246244 -0.00144488 0.00199077 -8.65537e-05 -0.112969 0.00889487 -0.00246244 420.489 420.489 1001 
150 1 1 0.177356 0.0693939 0.00997778 0 0 0 -0.0690302 -0.0404407 -0.000521601 0.000324776 0.000408637 0.000735741 -0.0690302 -0.0404407 -0.000521601 437.497 437.497 1001.04 
151 1 1 0.00998258 0.068056 0.0099801 0 0 0 0.000730994 0.0119247 -0.00206512 0.00436148 0.000280507 -0.00171111 0.000730994 0.0119247 -0.00206512 416.066 416.066 1000.99 
152 1 1 0.0219386 0.0786099 0.0345997 0 0 0 0.00209984 -0.0466499 0.101431 -0.000453895 -0.00146326 -0.000256849 0.00209984 -0.0466499 0.101431 168.273 168.273 1000.4 
153 1 1 0.0436339 0.0666963 0.00997758 0 0 0 -0.0346356 0.0264195 -0.00211707 -0.00119411 0.000834166 0.000851185 -0.0346356 0.0264195 -0.00211707 381.811 381.811 1000.91 
154 1 1 0.0546363 0.0770116 0.00997807 0 0 0 -0.00243388 -0.000684306 -0.000169666 -0.000392153 -0.000206243 -0.000429983 -0.00243388 -0.000684306 -0.000169666 393.725 393.725 1000.93 
155 1 1 0.0869042 0.0786024 0.0225513 0 0 0 -0.0297527 0.00934351 0.00341519 0.000724683 -0.00285796 -0.00109948 -0.0297527 0.00934351 0.00341519 297.74 297.74 1000.71 
156 1 1 0.09525 0.0593033 0.00997549 0 0 0 -0.0525683 0.0160476 0.000763163 0.00127115 0.000416632 0.00060279 -0.0525683 0.0160476 0.000763163 398.999 398.999 1000.95 
157 1 1 0.169186 0.070168 0.025834 0 0 0 -0.0245584 0.0101542 -0.0218625 2.21311e-05 0.000354081 -0.00090824 -0.0245584 0.0101542 -0.0218625 250.896 250.896 1000.6 
158 1 1 0.187047 0.0806966 0.0234592 0 0 0 -0.000235578 0.00599595 -0.0187478 0.000798289 -0.00214131 -0.000974234 -0.000235578 0.00599595 -0.0187478 295.61 295.61 1000.7 
159 1 1 0.148713 0.076245 0.00997828 0 0 0 -0.100213 -0.0560357 0.00229047 0.00139452 0.00272326 -0.000525504 -0.100213 -0.0560357 0.00229047 440.979 440.979 1001.05 
160 1 1 0.200888 0.0788124 0.0255065 0 0 0 0.00464544 -0.0194385 0.0125733 -0.000385763 -0.000438231 -0.00141535 0.00464544 -0.0194385 0.0125733 278.66 278.66 1000.66 
161 1 1 0.00999326 0.0774519 0.0247298 0 0 0 -0.00642178 -0.0367854 0.0155642 -0.00473095 -0.00179562 -0.000229794 -0.00642178 -0.0367854 0.0155642 347.82 347.82 1000.83 
162 1 1 0.0210374 0.0769847 0.00997088 0 0 0 -0.018903 -0.0148735 -0.00356532 0.000378421 -0.000404864 0.00352248 -0.018903 -0.0148735 -0.00356532 436.543 436.543 1001.04 
163 1 1 0.0408769 0.0772336 0.0223454 0 0 0 -0.0782744 0.0309057 0.0147334 -0.000673114 -5.32762e-05 0.0003869 -0.0782744 0.0309057 0.0147334 286.187 286.187 1000.68 
164 1 1 0.0866616 0.0779178 0.0299121 0 0 0 -0.000434657 0.00463139 0.0352223 0.00134112 -0.00177459 0.00135845 -0.000434657 0.00463139 0.0352223 244.674 244.674 1000.58 
165 1 1 0.12865 0.0781574 0.0424834 0 0 0 -0.0199324 -0.00579557 0.0138747 -0.000194161 0.00131274 -0.000346521 -0.0199324 -0.00579557 0.0138747 113.883 113.883 1000.27 
166 1 1 0.125002 0.077634 0.00999147 0 0 0 0.00279955 0.0365892 0.00593969 -3.62583e-05 0.000401103 -0.0136289 0.00279955 0.0365892 0.00593969 412.827 412.827 1000.98 
167 1 1 0.174776 0.0783667 0.0238907 0 0 0 -0.0272192 -0.0295068 0.0648419 -0.00100784 -0.000614716 -0.000493884 -0.0272192 -0.0295068 0.0648419 279.019 279.019 1000.66 
168 1 1 0.135757 0.0730093 0.00997507 0 0 0 -0.0246748 -0.0352642 -0.000968204 -0.000476398 -0.000276797 0.00196642 -0.0246748 -0.0352642 -0.000968204 405.725 405.725 1000.96 
169 1 1 0.194358 0.0764434 0.0219573 0 0 0 0.0333298 0.0285822 0.0278184 -0.00053607 0.000446831 0.000379185 0.0333298 0.0285822 0.0278184 309.38 309.38 1000.73 
170 1 1 0.17987 0.0763393 0.0099804 0 0 0 -0.127479 0.00481442 0.000246519 -0.00054989 0.000856645 -0.00202479 -0.127479 0.00481442 0.000246519 467.399 467.399 1001.11 
171 1 1 0.00999826 0.0900074 0.00997924 0 0 0 -0.00734879 0.010209 0.00852708 -0.0117493 0.00252375 0.00231419 -0.00734879 0.010209 0.00852708 518.413 518.413 1001.23 
172 1 1 0.0209217 0.0900084 0.00998541 0 0 0 0.0183768 0.0012829 -0.00826123 0.00258252 0.00340033 -0.00476385 0.0183768 0.0012829 -0.00826123 510.08 510.08 1001.21 
173 1 1 0.0347156 0.0900241 0.00997569 0 0 0 -0.00767565 0.000289857 0.0054181 0.00153398 -0.00901053 0.00493318 -0.00767565 0.000289857 0.0054181 461.962 461.962 1001.1 
174 1 1 0.0447284 0.0900197 0.00999795 0 0 0 -0.00531269 -0.00481457 -0.00262942 -0.000501247 -0.00408673 -0.0168338 -0.00531269 -0.00481457 -0.00262942 438.893 438.893 1001.04 