ITEM: TIMESTEP
114000
ITEM: NUMBER OF ATOMS
2655
ITEM: BOX BOUNDS ff ff ff
0 0.5
0 0.1
0 0.5
ITEM: ATOMS id type type x y z ix iy iz vx vy vz fx fy fz vx vy vz p p rho 
1 1 1 0.00997246 0.00999085 0.00999217 0 0 0 -0.0104256 0.00292593 0.000509948 0.0125359 -0.00575069 -0.00882795 -0.0104256 0.00292593 0.000509948 355.89 355.89 1000.85 
2 1 1 0.0274995 0.00998566 0.00995719 0 0 0 0.0192947 -1.28573e-06 -0.00337258 -0.00041548 -0.00364216 0.0242162 0.0192947 -1.28573e-06 -0.00337258 399.137 399.137 1000.95 
3 1 1 0.0232805 0.00998801 0.00998573 0 0 0 0.00246577 -0.00127236 0.018931 -0.0023548 -0.0058389 -0.0043621 0.00246577 -0.00127236 0.018931 391.861 391.861 1000.93 
4 1 1 0.0589902 0.00998369 0.00996228 0 0 0 0.0191962 0.00410006 -0.0116753 4.40185e-05 -0.00101001 0.0183602 0.0191962 0.00410006 -0.0116753 391.743 391.743 1000.93 
5 1 1 0.063562 0.00998297 0.0100069 0 0 0 0.0159332 -0.00509327 -0.007418 -0.000258899 -0.000531549 -0.0308674 0.0159332 -0.00509327 -0.007418 385.415 385.415 1000.92 
6 1 1 0.0813788 0.00998825 0.00996251 0 0 0 0.0181504 0.00116101 0.0150866 -0.000244601 -0.00492898 0.0156024 0.0181504 0.00116101 0.0150866 409.617 409.617 1000.97 
7 1 1 0.0948282 0.00998162 0.00998812 0 0 0 0.0316239 -0.00217023 0.00535715 0.000660147 0.000984527 -0.0094533 0.0316239 -0.00217023 0.00535715 407.854 407.854 1000.97 
8 1 1 0.104243 0.0099843 0.00997082 0 0 0 0.0247152 0.0016572 -0.00796633 -0.000419682 -0.00162577 0.0076155 0.0247152 0.0016572 -0.00796633 402.13 402.13 1000.95 
9 1 1 0.112946 0.00998473 0.00996933 0 0 0 0.0445059 0.000998645 0.00253829 -0.000503727 -0.00166312 0.0078633 0.0445059 0.000998645 0.00253829 409.161 409.161 1000.97 
10 1 1 0.126737 0.00998379 0.00997348 0 0 0 0.0410748 -0.00245478 0.00738528 -0.000388492 -0.00177231 0.00303432 0.0410748 -0.00245478 0.00738528 423.13 423.13 1001 
11 1 1 0.00997322 0.0206205 0.00997925 0 0 0 -0.00237859 -0.00572768 0.015597 0.00907166 -0.002359 0.000867638 -0.00237859 -0.00572768 0.015597 399.045 399.045 1000.95 
12 1 1 0.0285582 0.0332108 0.00997757 0 0 0 0.0328048 0.0256752 0.00327753 -0.000773934 -0.00124635 0.000959662 0.0328048 0.0256752 0.00327753 416.143 416.143 1000.99 
13 1 1 0.0203712 0.0222395 0.00998191 0 0 0 -0.00713042 -0.00122021 -0.00540178 -0.00122468 -0.0010187 -0.00225115 -0.00713042 -0.00122021 -0.00540178 403.096 403.096 1000.96 
14 1 1 0.0768145 0.0232001 0.00997883 0 0 0 0.0261604 0.0113028 -0.00253249 -0.000600918 -0.00127815 -0.00354047 0.0261604 0.0113028 -0.00253249 415.823 415.823 1000.99 
15 1 1 0.0635564 0.0219283 0.00997433 0 0 0 0.0201436 0.00307551 0.00107455 -9.79932e-05 -0.00164018 0.00284235 0.0201436 0.00307551 0.00107455 406.483 406.483 1000.97 
16 1 1 0.0882384 0.0219211 0.00997649 0 0 0 0.0406798 0.00946918 -0.00146104 0.00037504 -0.000132878 -0.00109296 0.0406798 0.00946918 -0.00146104 410.992 410.992 1000.98 
17 1 1 0.0897316 0.0410362 0.00997763 0 0 0 0.0264969 -0.0120334 5.21202e-05 0.000851164 -3.92697e-05 -0.0028351 0.0264969 -0.0120334 5.21202e-05 402.42 402.42 1000.96 
18 1 1 0.118462 0.0330715 0.00997376 0 0 0 0.0407705 -0.00428372 0.000597758 0.000155207 -0.000784746 -9.84446e-05 0.0407705 -0.00428372 0.000597758 411.386 411.386 1000.98 
19 1 1 0.0994204 0.0213102 0.00997337 0 0 0 0.0410594 0.0168803 -0.00377697 0.000659247 0.00037562 0.00155808 0.0410594 0.0168803 -0.00377697 409.226 409.226 1000.97 
20 1 1 0.136288 0.022357 0.00997548 0 0 0 0.0545292 0.0149649 0.00178201 0.000259317 -0.00044485 -0.00250062 0.0545292 0.0149649 0.00178201 426.189 426.189 1001.01 
21 1 1 0.00998137 0.0288739 0.00998205 0 0 0 0.00537306 0.00517161 0.00195012 0.000333249 -0.00233154 -0.00246155 0.00537306 0.00517161 0.00195012 429.245 429.245 1001.02 
22 1 1 0.0342767 0.0361875 0.00997999 0 0 0 0.01032 0.0170304 0.000602212 -0.000208385 -0.00114656 -0.00166144 0.01032 0.0170304 0.000602212 419.208 419.208 1001 
23 1 1 0.0544229 0.0434644 0.00997789 0 0 0 0.0467483 0.00279611 -0.00130529 0.000197725 -0.000778482 -0.0021264 0.0467483 0.00279611 -0.00130529 408.005 408.005 1000.97 
24 1 1 0.0754007 0.0309236 0.00997633 0 0 0 0.0400383 -0.0138617 0.000821106 -2.79671e-05 -0.00059511 -0.000232752 0.0400383 -0.0138617 0.000821106 415.267 415.267 1000.99 
25 1 1 0.0957268 0.0378116 0.00997347 0 0 0 0.041063 0.000366448 0.000633529 0.000514351 -0.000453088 0.000199929 0.041063 0.000366448 0.000633529 406.561 406.561 1000.97 
26 1 1 0.0941907 0.0238972 0.00997593 0 0 0 0.0377203 -0.0308408 -0.00172426 -0.000562204 -0.000245655 -0.000464757 0.0377203 -0.0308408 -0.00172426 409.525 409.525 1000.97 
27 1 1 0.117042 0.0437963 0.00997313 0 0 0 0.0688835 0.00939158 -0.000491523 0.000413343 0.000461049 -1.92058e-05 0.0688835 0.00939158 -0.000491523 399.083 399.083 1000.95 
28 1 1 0.0957908 0.0310882 0.00997203 0 0 0 0.0522276 0.0085207 0.00174133 -0.00015478 8.76202e-05 0.00171066 0.0522276 0.0085207 0.00174133 409.469 409.469 1000.97 
29 1 1 0.12242 0.0221103 0.00997041 0 0 0 0.0570999 0.0130025 0.000699025 0.000321322 0.000513307 0.0027916 0.0570999 0.0130025 0.000699025 422.317 422.317 1001 
30 1 1 0.129261 0.0293013 0.00997432 0 0 0 0.0452871 0.00222334 0.000599707 -0.000314783 -0.000590738 -0.000474689 0.0452871 0.00222334 0.000599707 419.409 419.409 1001 
31 1 1 0.0099843 0.038543 0.00997867 0 0 0 0.000164408 0.0128897 -0.0046076 -0.00281402 -0.00121256 0.00147928 0.000164408 0.0128897 -0.0046076 442.223 442.223 1001.05 
32 1 1 0.0230035 0.0429661 0.00997707 0 0 0 0.0267152 0.01801 0.0016726 -0.00147017 -0.0011101 0.000302455 0.0267152 0.01801 0.0016726 422.571 422.571 1001 
33 1 1 0.0468833 0.0395367 0.00997734 0 0 0 0.00819616 0.037157 -0.00171571 -0.000321181 -0.000427234 -0.00172729 0.00819616 0.037157 -0.00171571 413.799 413.799 1000.98 
34 1 1 0.0626199 0.0344604 0.00997727 0 0 0 0.0255937 0.015686 0.000829924 -0.000612491 -0.000286125 -8.10976e-05 0.0255937 0.015686 0.000829924 414.173 414.173 1000.98 
35 1 1 0.0657735 0.0399 0.0099778 0 0 0 0.0193473 -0.0262025 0.000309412 7.90119e-05 0.000401277 -0.000397333 0.0193473 -0.0262025 0.000309412 412.842 412.842 1000.98 
36 1 1 0.0851781 0.0319101 0.00997285 0 0 0 0.0390849 0.00718072 0.000483041 0.000176499 -0.000749267 0.00291082 0.0390849 0.00718072 0.000483041 409.655 409.655 1000.97 
37 1 1 0.105931 0.0374435 0.00997233 0 0 0 0.0209245 0.00979576 0.00075061 5.49477e-05 -0.00127811 0.00121287 0.0209245 0.00979576 0.00075061 410.434 410.434 1000.97 
38 1 1 0.114339 0.0369538 0.009974 0 0 0 0.0217089 0.00721315 0.000530777 -0.000379697 9.40894e-06 -0.000329522 0.0217089 0.00721315 0.000530777 406.019 406.019 1000.96 
39 1 1 0.132764 0.0398791 0.00997286 0 0 0 0.0365871 -0.00292169 0.000643987 0.000578559 -6.04441e-05 -8.34533e-05 0.0365871 -0.00292169 0.000643987 403.052 403.052 1000.96 
40 1 1 0.150512 0.0369028 0.00997266 0 0 0 0.0818431 0.0212983 0.00154033 0.000282509 -6.83929e-05 -0.00026551 0.0818431 0.0212983 0.00154033 414.317 414.317 1000.98 
41 1 1 0.00997887 0.0518089 0.00998802 0 0 0 -0.000641516 0.0119137 0.000886393 0.00360178 -2.67907e-05 -0.00733555 -0.000641516 0.0119137 0.000886393 452.757 452.757 1001.07 
42 1 1 0.0308353 0.0545187 0.0099767 0 0 0 0.042757 0.0128314 -0.000645591 -9.03202e-05 -0.000527633 0.00121999 0.042757 0.0128314 -0.000645591 420.219 420.219 1001 
43 1 1 0.0440443 0.0493576 0.00997598 0 0 0 0.023792 -0.0126663 0.00189883 0.000574734 -0.000315163 0.000349949 0.023792 -0.0126663 0.00189883 416.536 416.536 1000.99 
44 1 1 0.0633008 0.0473438 0.0099768 0 0 0 0.056025 0.016564 0.000939853 0.000358571 -0.000518514 -0.000288721 0.056025 0.016564 0.000939853 408.806 408.806 1000.97 
45 1 1 0.0752855 0.0486383 0.00997593 0 0 0 0.0317293 0.00628275 0.000312223 0.000178237 -0.00018928 0.000472119 0.0317293 0.00628275 0.000312223 415.059 415.059 1000.99 
46 1 1 0.0820944 0.0517306 0.00997361 0 0 0 0.00464767 0.00496718 -0.000590606 0.00052787 -0.000305736 0.00198547 0.00464767 0.00496718 -0.000590606 412.55 412.55 1000.98 
47 1 1 0.0877558 0.0490455 0.00997738 0 0 0 0.017338 0.0119227 0.000258595 0.00019727 -0.00051099 -0.00257696 0.017338 0.0119227 0.000258595 404.71 404.71 1000.96 
48 1 1 0.114417 0.0502502 0.00997207 0 0 0 0.032956 0.0181738 0.000617117 0.000657041 1.05653e-06 0.0014157 0.032956 0.0181738 0.000617117 397.7 397.7 1000.94 
49 1 1 0.0996392 0.0484509 0.00997452 0 0 0 0.0227605 0.0141622 0.00039165 0.000485559 -0.000114901 -0.00116725 0.0227605 0.0141622 0.00039165 403.89 403.89 1000.96 
50 1 1 0.140461 0.0503235 0.00997251 0 0 0 0.0582384 0.0133152 0.000152566 -0.000745345 1.19088e-05 0.000363399 0.0582384 0.0133152 0.000152566 402.704 402.704 1000.96 
51 1 1 0.00998467 0.0619887 0.00997466 0 0 0 -0.00097864 -0.0116985 -0.000280494 -0.00262785 -0.000601335 0.00512792 -0.00097864 -0.0116985 -0.000280494 461.17 461.17 1001.09 
52 1 1 0.0213491 0.0591888 0.00998162 0 0 0 0.0178576 -0.00934697 0.000679517 -0.000853859 4.79557e-07 -0.00294832 0.0178576 -0.00934697 0.000679517 433.928 433.928 1001.03 
53 1 1 0.0504551 0.0608141 0.00997896 0 0 0 0.0269154 -0.0146555 -0.000900324 -0.000564679 -3.54013e-05 -0.0029225 0.0269154 -0.0146555 -0.000900324 418.795 418.795 1000.99 
54 1 1 0.0650314 0.0627347 0.00997591 0 0 0 0.0304597 0.0184456 -0.00023913 -0.000654491 0.000164387 -0.000357228 0.0304597 0.0184456 -0.00023913 418.428 418.428 1000.99 
55 1 1 0.0689316 0.0587222 0.00997614 0 0 0 0.0299121 0.00499654 -0.000655966 -6.76732e-05 -0.000235669 -0.000453998 0.0299121 0.00499654 -0.000655966 416.016 416.016 1000.99 
56 1 1 0.0853928 0.0685912 0.00997148 0 0 0 0.0371892 0.00206504 -0.00115973 -4.59864e-05 0.000153778 0.00323247 0.0371892 0.00206504 -0.00115973 422.161 422.161 1001 
57 1 1 0.108101 0.0632659 0.00997228 0 0 0 0.0599413 -0.00316707 -0.000613108 0.000954767 0.000624355 0.00162972 0.0599413 -0.00316707 -0.000613108 411.745 411.745 1000.98 
58 1 1 0.115774 0.0627057 0.00997363 0 0 0 0.05078 -0.0142209 0.000399211 1.49009e-05 0.000252913 0.000337513 0.05078 -0.0142209 0.000399211 406.335 406.335 1000.96 
59 1 1 0.13265 0.0607561 0.0099745 0 0 0 0.0270862 -0.00123125 0.000869058 0.000855942 -0.000252106 -0.000506612 0.0270862 -0.00123125 0.000869058 403.739 403.739 1000.96 
60 1 1 0.145798 0.0639131 0.00997394 0 0 0 0.0546767 -0.0166848 0.00238151 -0.000317251 0.00013581 -0.000968811 0.0546767 -0.0166848 0.00238151 408.174 408.174 1000.97 
61 1 1 0.00997802 0.0710719 0.00998592 0 0 0 0.000428556 0.0150074 -0.00252092 0.00347698 0.000389964 -0.00686653 0.000428556 0.0150074 -0.00252092 451.073 451.073 1001.07 
62 1 1 0.0375787 0.0643481 0.00997848 0 0 0 0.00717086 0.00274647 -0.000989151 -0.0012659 -0.000289563 -0.000650862 0.00717086 0.00274647 -0.000989151 429.653 429.653 1001.02 
63 1 1 0.0569321 0.0583781 0.00997716 0 0 0 0.0475689 0.00810376 -0.00144281 0.000155258 -9.99614e-05 -0.00182781 0.0475689 0.00810376 -0.00144281 412.447 412.447 1000.98 
64 1 1 0.074511 0.0701966 0.00997522 0 0 0 0.0352389 0.00530576 0.00042272 0.000331747 0.00010876 0.000609458 0.0352389 0.00530576 0.00042272 429.722 429.722 1001.02 
65 1 1 0.0986308 0.0618516 0.0099724 0 0 0 0.0344788 -0.00659595 -0.000154464 -5.60704e-05 0.000684486 0.00141283 0.0344788 -0.00659595 -0.000154464 415.136 415.136 1000.99 
66 1 1 0.0932146 0.0748792 0.00997739 0 0 0 0.0383577 0.00520292 -0.00342224 0.000249187 0.000358418 -0.00258395 0.0383577 0.00520292 -0.00342224 426.714 426.714 1001.01 
67 1 1 0.118252 0.0562514 0.00997369 0 0 0 0.059222 -0.0287047 0.000122866 -3.09929e-05 -0.00079835 -0.000212052 0.059222 -0.0287047 0.000122866 400.342 400.342 1000.95 
68 1 1 0.0966121 0.0687308 0.00997413 0 0 0 0.0633444 -0.00134161 -0.000540763 0.000596875 -0.000434552 0.000282983 0.0633444 -0.00134161 -0.000540763 422.554 422.554 1001 
69 1 1 0.123402 0.0774903 0.00997329 0 0 0 0.0680133 -0.0158641 0.00217539 9.3761e-06 -0.000294105 -7.30737e-05 0.0680133 -0.0158641 0.00217539 424.27 424.27 1001.01 
70 1 1 0.131851 0.0701718 0.00997401 0 0 0 0.0705608 0.00243034 0.000652827 0.000493436 -0.000167519 2.80867e-05 0.0705608 0.00243034 0.000652827 416.088 416.088 1000.99 
71 1 1 0.00998051 0.0792004 0.00998631 0 0 0 -0.00814559 -0.00560082 0.00369234 -0.000518595 -0.00104877 -0.00775787 -0.00814559 -0.00560082 0.00369234 452.647 452.647 1001.07 
72 1 1 0.0303418 0.0637496 0.00997982 0 0 0 -0.00485125 0.00839776 0.000879683 0.000395851 -0.000433688 -0.0011331 -0.00485125 0.00839776 0.000879683 426.866 426.866 1001.01 
73 1 1 0.0204554 0.0778026 0.00997383 0 0 0 0.0041119 -0.0150679 0.00428892 0.000501949 -9.81226e-05 0.0040937 0.0041119 -0.0150679 0.00428892 440.627 440.627 1001.05 
74 1 1 0.0757459 0.0776667 0.00997687 0 0 0 0.0325157 0.0109758 -0.00303 0.000813974 7.85019e-05 -0.00124534 0.0325157 0.0109758 -0.00303 426.321 426.321 1001.01 
75 1 1 0.0629404 0.0772771 0.00997246 0 0 0 0.018152 -0.0110065 0.00123936 0.00017938 -0.00028152 0.00359682 0.018152 -0.0110065 0.00123936 429.802 429.802 1001.02 
76 1 1 0.087706 0.0782473 0.00997515 0 0 0 0.0388683 -0.00222472 -0.000267829 0.000448848 0.000325402 -0.000111174 0.0388683 -0.00222472 -0.000267829 427.593 427.593 1001.01 
77 1 1 0.0923308 0.058992 0.00997626 0 0 0 0.0539931 0.00895313 0.000588674 2.43384e-05 -0.000216001 -0.00184052 0.0539931 0.00895313 0.000588674 410.453 410.453 1000.97 
78 1 1 0.11927 0.0682095 0.00997295 0 0 0 0.0481712 0.00107083 5.36871e-05 0.000420229 0.000614306 0.00118237 0.0481712 0.00107083 5.36871e-05 414.438 414.438 1000.98 
79 1 1 0.0985111 0.0784897 0.00997462 0 0 0 0.0422442 -0.0114471 -0.000939734 0.000679941 0.00022225 -6.64379e-05 0.0422442 -0.0114471 -0.000939734 425.966 425.966 1001.01 
80 1 1 0.136119 0.0781633 0.00998006 0 0 0 0.0721063 -0.0167516 0.000826705 0.00101608 0.000395937 -0.00677236 0.0721063 -0.0167516 0.000826705 422.439 422.439 1001 
81 1 1 0.00998841 0.0900219 0.00999102 0 0 0 -0.0113065 -0.0188075 0.00489871 -0.00559764 -0.00539852 -0.00986086 -0.0113065 -0.0188075 0.00489871 470.74 470.74 1001.12 
82 1 1 0.0274103 0.0900176 0.0100034 0 0 0 0.0013094 -0.000158285 -0.0114544 0.000312652 0.000686063 -0.032092 0.0013094 -0.000158285 -0.0114544 417.636 417.636 1000.99 
83 1 1 0.0231503 0.0900281 0.00998522 0 0 0 -0.00184284 0.000906501 0.00674827 0.000412624 -0.00941366 -0.00516609 -0.00184284 0.000906501 0.00674827 420.585 420.585 1001 
84 1 1 0.0593173 0.090023 0.00998657 0 0 0 0.026626 -0.00351973 -0.00854611 -0.0002523 -0.00434197 -0.00657779 0.026626 -0.00351973 -0.00854611 433.876 433.876 1001.03 
85 1 1 0.0636844 0.0900136 0.00998284 0 0 0 0.0126542 -9.47114e-05 0.0238537 0.000210364 0.00466711 -0.0035658 0.0126542 -9.47114e-05 0.0238537 433.577 433.577 1001.03 
86 1 1 0.0815919 0.0900205 0.00998542 0 0 0 0.0211152 -0.00141043 -0.00932623 0.000664903 -0.00277669 -0.00744538 0.0211152 -0.00141043 -0.00932623 417.737 417.737 1000.99 
87 1 1 0.0952585 0.0900163 0.00998658 0 0 0 0.0269531 0.000684195 0.0239869 0.000950396 0.00139971 -0.00937185 0.0269531 0.000684195 0.0239869 407.815 407.815 1000.97 
88 1 1 0.104771 0.0900176 0.00999481 0 0 0 0.0381862 0.00345317 0.00710679 -0.000223685 0.000338015 -0.0177373 0.0381862 0.00345317 0.00710679 398.211 398.211 1000.95 
89 1 1 0.113578 0.0900197 0.00997058 0 0 0 0.0605422 -0.00711514 -0.0109812 -0.000360975 -0.00168483 0.00566188 0.0605422 -0.00711514 -0.0109812 405.827 405.827 1000.96 
90 1 1 0.127466 0.090015 0.00996008 0 0 0 0.0503356 0.000837844 0.0134045 -0.000416736 0.00270715 0.0172177 0.0503356 0.000837844 0.0134045 418.725 418.725 1000.99 
91 1 1 0.00997644 0.00999812 0.0100031 0 0 0 -0.0112819 0.00173098 0.0227868 0.00851004 -0.0129852 -0.026821 -0.0112819 0.00173098 0.0227868 355.909 355.909 1000.85 
92 1 1 0.0205512 0.00998843 0.00999087 0 0 0 0.00757657 0.00519764 -0.0207714 -0.00289608 -0.0060101 -0.00929933 0.00757657 0.00519764 -0.0207714 382.894 382.894 1000.91 
93 1 1 0.0330671 0.00998444 0.00999053 0 0 0 0.0101921 -0.00321118 0.0258579 -0.000348574 -0.00230109 -0.00918948 0.0101921 -0.00321118 0.0258579 392.629 392.629 1000.93 
94 1 1 0.0410788 0.00998134 0.00998592 0 0 0 0.00735557 -0.000395993 -0.0276417 0.000160711 0.00149305 -0.00479408 0.00735557 -0.000395993 -0.0276417 371.702 371.702 1000.88 
95 1 1 0.0680729 0.0099805 0.00996605 0 0 0 0.0286495 0.00167651 -0.02249 -0.000629435 0.00158422 0.0134694 0.0286495 0.00167651 -0.02249 387.479 387.479 1000.92 
96 1 1 0.0908043 0.00998362 0.00999324 0 0 0 0.0228284 -0.00438471 0.0155602 -3.09511e-05 -0.000782085 -0.0149302 0.0228284 -0.00438471 0.0155602 407.993 407.993 1000.97 
97 1 1 0.09964 0.00998808 0.00996045 0 0 0 0.0426032 0.00104353 0.00133324 -0.00029664 -0.005879 0.0182436 0.0426032 0.00104353 0.00133324 405.239 405.239 1000.96 
98 1 1 0.108431 0.00997862 0.00998513 0 0 0 0.0307206 0.00306786 -0.00812242 -0.000332367 0.00430812 -0.0072287 0.0307206 0.00306786 -0.00812242 403.117 403.117 1000.96 
99 1 1 0.117757 0.00998141 0.00998697 0 0 0 0.046865 -0.00161288 0.0124145 -0.000788701 0.00162176 -0.0100066 0.046865 -0.00161288 0.0124145 417.425 417.425 1000.99 
100 1 1 0.121824 0.00997962 0.00998855 0 0 0 0.0532225 0.00266269 -0.00505392 -3.21555e-05 0.0027017 -0.0115167 0.0532225 0.00266269 -0.00505392 421.817 421.817 1001 
101 1 1 0.00998505 0.0232271 0.0212216 0 0 0 0.00116097 -0.0381938 -0.0318977 -0.00020571 -0.00232871 8.41151e-06 0.00116097 -0.0381938 -0.0318977 386.286 386.286 1000.92 
102 1 1 0.00997722 0.0234212 0.0099643 0 0 0 -0.0038988 0.0287497 0.00237283 0.00492758 -0.00198009 0.0156048 -0.0038988 0.0287497 0.00237283 411.824 411.824 1000.98 
103 1 1 0.0235658 0.0205798 0.0242577 0 0 0 -0.032366 -0.017616 -0.0548996 -0.00154286 0.00021764 -0.00418378 -0.032366 -0.017616 -0.0548996 371.413 371.413 1000.88 
104 1 1 0.07711 0.0213779 0.0391582 0 0 0 -0.0452042 0.010495 -0.0172391 -0.000554767 0.000850276 -0.00245734 -0.0452042 0.010495 -0.0172391 263.888 263.888 1000.63 
105 1 1 0.108723 0.0255787 0.0534078 0 0 0 -0.171188 -0.00297076 0.0422759 -0.000266055 0.000505851 -0.000249401 -0.171188 -0.00297076 0.0422759 175.965 175.965 1000.42 
106 1 1 0.112117 0.0223161 0.00998242 0 0 0 0.0452321 -0.021235 -0.0079867 -0.000769535 -0.000257204 -0.0076785 0.0452321 -0.021235 -0.0079867 414.999 414.999 1000.99 
107 1 1 0.136106 0.0226012 0.0354574 0 0 0 -0.182396 0.00581991 0.0168628 -0.000330974 7.30276e-06 -0.00280865 -0.182396 0.00581991 0.0168628 309.093 309.093 1000.73 
108 1 1 0.126563 0.0354099 0.00997426 0 0 0 0.0443347 0.00580461 0.00183939 -0.00103218 8.02879e-05 -7.10982e-05 0.0443347 0.00580461 0.00183939 411.213 411.213 1000.98 
109 1 1 0.155687 0.0224196 0.0224503 0 0 0 -0.163665 -0.030401 -0.0239479 -0.000477736 -0.000454713 -0.0017627 -0.163665 -0.030401 -0.0239479 445.201 445.201 1001.06 
110 1 1 0.156073 0.0224009 0.00997336 0 0 0 0.0687601 -0.00980659 -0.000268882 9.36877e-06 0.00143829 -0.000290966 0.0687601 -0.00980659 -0.000268882 439.585 439.585 1001.04 
111 1 1 0.00998223 0.0338273 0.00998292 0 0 0 0.000971657 -0.000159709 0.0011074 -0.000918861 -0.00129408 -0.00288975 0.000971657 -0.000159709 0.0011074 437.957 437.957 1001.04 
112 1 1 0.0215946 0.0211008 0.0398345 0 0 0 0.00291513 -0.00545265 -0.0120588 -0.000202316 -0.000940271 -0.00167621 0.00291513 -0.00545265 -0.0120588 225.419 225.419 1000.54 
113 1 1 0.0397937 0.0289374 0.00997706 0 0 0 0.0390912 0.0155595 -0.000279725 -0.000358014 -0.0010164 0.000318929 0.0390912 0.0155595 -0.000279725 413.183 413.183 1000.98 
114 1 1 0.0443579 0.0223302 0.00997483 0 0 0 -0.0302457 -0.00388901 0.000812031 -0.000383313 -0.00165462 0.00203678 -0.0302457 -0.00388901 0.000812031 403.459 403.459 1000.96 
115 1 1 0.0611876 0.0231353 0.0255121 0 0 0 -0.0859697 0.0243098 0.0178906 0.000369442 -0.00182988 -0.000991865 -0.0859697 0.0243098 0.0178906 385.27 385.27 1000.91 
116 1 1 0.0841495 0.0378945 0.00997574 0 0 0 0.0510681 -0.00843309 0.000268435 -0.000380577 -0.000506826 -0.000365303 0.0510681 -0.00843309 0.000268435 406.76 406.76 1000.97 
117 1 1 0.135241 0.0291965 0.0225201 0 0 0 -0.17167 0.00454676 0.00506213 -0.000623768 -0.000526372 -0.00170605 -0.17167 0.00454676 0.00506213 428.068 428.068 1001.02 
118 1 1 0.147088 0.0219374 0.0232385 0 0 0 -0.170432 0.0145091 -0.00974432 -0.000214624 -0.000408157 -0.00153324 -0.170432 0.0145091 -0.00974432 437.458 437.458 1001.04 
119 1 1 0.129432 0.0221426 0.00997279 0 0 0 0.0682657 0.0180285 -0.0015029 7.59987e-05 0.000405129 0.0004344 0.0682657 0.0180285 -0.0015029 424.664 424.664 1001.01 
120 1 1 0.153537 0.02101 0.0383194 0 0 0 -0.168412 -0.00979935 0.0049923 0.000367261 0.000332122 -0.000818522 -0.168412 -0.00979935 0.0049923 285.695 285.695 1000.68 
121 1 1 0.00998525 0.0431362 0.00997624 0 0 0 -0.000642232 -0.00408225 -0.00307763 -0.00276736 -0.00093952 0.00431754 -0.000642232 -0.00408225 -0.00307763 444.514 444.514 1001.06 
122 1 1 0.0214251 0.0372319 0.00997292 0 0 0 -0.013947 7.02964e-05 3.92605e-05 0.000119711 -0.000968388 0.00460935 -0.013947 7.02964e-05 3.92605e-05 422.054 422.054 1001 
123 1 1 0.022469 0.0298621 0.00998374 0 0 0 0.0400246 0.00443625 -0.0147222 -0.00134988 -0.0014602 -0.00516014 0.0400246 0.00443625 -0.0147222 412.767 412.767 1000.98 
124 1 1 0.0645499 0.0279057 0.00997509 0 0 0 0.0315618 -0.00967429 0.000464381 0.000125419 -0.000438074 0.00236963 0.0315618 -0.00967429 0.000464381 413.969 413.969 1000.98 
125 1 1 0.0723722 0.0370244 0.00997757 0 0 0 0.0292548 -0.0115033 -0.000935913 0.000341374 -0.000595746 -0.000511985 0.0292548 -0.0115033 -0.000935913 414.63 414.63 1000.98 
126 1 1 0.105936 0.0307523 0.00997062 0 0 0 0.0607967 0.00402633 -0.000638178 -0.000204271 -0.00032676 0.00295392 0.0607967 0.00402633 -0.000638178 413.013 413.013 1000.98 
127 1 1 0.138434 0.0367908 0.00997375 0 0 0 0.083097 -0.00192296 0.000879753 0.000336359 0.000773663 -0.000524756 0.083097 -0.00192296 0.000879753 403.619 403.619 1000.96 
128 1 1 0.124477 0.043836 0.00997364 0 0 0 0.0260771 -0.0128098 -0.00152193 -0.000638806 -0.000185284 0.000305682 0.0260771 -0.0128098 -0.00152193 401.278 401.278 1000.95 
129 1 1 0.116995 0.0243721 0.00996471 0 0 0 0.0517896 -0.00280539 0.0029399 -4.29722e-06 4.69109e-05 0.00951483 0.0517896 -0.00280539 0.0029399 418.124 418.124 1000.99 
130 1 1 0.161359 0.0319921 0.00997153 0 0 0 0.0556517 -0.00465255 0.00145404 -0.000830495 -0.000992787 0.000945661 0.0556517 -0.00465255 0.00145404 430.091 430.091 1001.02 
131 1 1 0.00998058 0.0480755 0.00998664 0 0 0 0.00144099 -0.0207346 -0.003258 0.00249564 -0.00126624 -0.00569246 0.00144099 -0.0207346 -0.003258 448.216 448.216 1001.06 
132 1 1 0.024966 0.0474084 0.0099787 0 0 0 0.0069111 0.0138758 -0.00264085 -0.00110456 -0.000288835 -0.00125938 0.0069111 0.0138758 -0.00264085 420.726 420.726 1001 
133 1 1 0.036802 0.0483664 0.00997654 0 0 0 0.00602436 0.00136513 -0.00152901 -0.000134975 -0.000356395 0.000612311 0.00602436 0.00136513 -0.00152901 418.344 418.344 1000.99 
134 1 1 0.0691292 0.0508116 0.00997701 0 0 0 0.0163764 -0.0058631 0.000162668 -0.000409637 8.47641e-05 -0.000576353 0.0163764 -0.0058631 0.000162668 412.377 412.377 1000.98 
135 1 1 0.107868 0.0505679 0.00997296 0 0 0 0.0205016 -0.0281162 0.000425233 -0.000340826 0.000339162 -0.000303996 0.0205016 -0.0281162 0.000425233 401.96 401.96 1000.95 
136 1 1 0.107472 0.0512357 0.0222555 0 0 0 -0.178638 -0.0229874 -0.0410883 -0.00116374 -0.000246519 0.00144638 -0.178638 -0.0229874 -0.0410883 398.665 398.665 1000.95 
137 1 1 0.134341 0.0538004 0.0234286 0 0 0 -0.134053 -0.0177925 -0.0157106 -0.000326297 3.87007e-05 -0.000634806 -0.134053 -0.0177925 -0.0157106 404.033 404.033 1000.96 
138 1 1 0.127774 0.0498401 0.00997278 0 0 0 0.0854038 -0.00408201 0.00102706 -0.000123217 0.000259685 0.000605986 0.0854038 -0.00408201 0.00102706 400.545 400.545 1000.95 
139 1 1 0.13529 0.0484893 0.00997269 0 0 0 0.0543408 -0.0238068 0.00040016 -0.000762275 -8.57748e-05 0.00060769 0.0543408 -0.0238068 0.00040016 401.065 401.065 1000.95 
140 1 1 0.171828 0.0501084 0.0224143 0 0 0 -0.168587 -0.00200198 -0.024671 0.00052668 -0.000126859 -0.00156723 -0.168587 -0.00200198 -0.024671 425.081 425.081 1001.01 
141 1 1 0.00998439 0.0570064 0.00997515 0 0 0 -0.002873 0.0108852 0.00180711 -0.00273594 -0.000603203 0.00497528 -0.002873 0.0108852 0.00180711 459.293 459.293 1001.09 
142 1 1 0.0237264 0.0646823 0.00997637 0 0 0 -0.00837086 -0.00259808 0.0010616 -0.00121333 0.000504932 0.0028265 -0.00837086 -0.00259808 0.0010616 432.991 432.991 1001.03 
143 1 1 0.0228403 0.07085 0.00998047 0 0 0 0.00760324 0.000841495 -0.00268298 -0.00147792 -0.000388324 -0.00133317 0.00760324 0.000841495 -0.00268298 438.868 438.868 1001.04 
144 1 1 0.0647835 0.070184 0.00997518 0 0 0 0.0577141 -0.00968617 0.00152321 -0.000305944 -0.000281022 0.000872324 0.0577141 -0.00968617 0.00152321 427.256 427.256 1001.01 
145 1 1 0.075536 0.063562 0.00997688 0 0 0 0.0539882 -0.00107865 -0.00147569 0.000292919 0.000189447 -0.00106978 0.0539882 -0.00107865 -0.00147569 423.776 423.776 1001.01 
146 1 1 0.107372 0.0706413 0.00997514 0 0 0 0.0626273 0.0108345 -0.00226731 -0.000529954 -0.000204775 -0.0010688 0.0626273 0.0108345 -0.00226731 424.888 424.888 1001.01 
147 1 1 0.138418 0.0597685 0.00997454 0 0 0 0.0717252 -0.0146054 0.000541417 -0.000764559 2.20273e-05 -0.000636863 0.0717252 -0.0146054 0.000541417 402.814 402.814 1000.96 
148 1 1 0.126032 0.0561917 0.00997353 0 0 0 0.0538064 0.010605 -0.000593735 -3.17793e-05 4.89312e-06 6.15093e-05 0.0538064 0.010605 -0.000593735 402.223 402.223 1000.95 
149 1 1 0.117082 0.077113 0.00996665 0 0 0 0.0621229 -0.00692601 0.00105724 0.00131666 -0.000578046 0.00683391 0.0621229 -0.00692601 0.00105724 424.189 424.189 1001.01 
150 1 1 0.162271 0.0683779 0.00997259 0 0 0 0.074936 0.0139545 0.00169152 -0.000799687 0.00108353 0.000678741 0.074936 0.0139545 0.00169152 428.27 428.27 1001.02 
151 1 1 0.00998117 0.0661562 0.00997983 0 0 0 5.30071e-05 -0.0146677 0.00132504 0.00114861 0.000347214 -0.000390442 5.30071e-05 -0.0146677 0.00132504 457.649 457.649 1001.09 
152 1 1 0.0265416 0.0784737 0.037731 0 0 0 -0.00661867 -0.0117673 0.0071328 -0.000439031 -0.000829681 -0.000914648 -0.00661867 -0.0117673 0.0071328 259.326 259.326 1000.62 
153 1 1 0.0391932 0.070114 0.00997456 0 0 0 0.0174115 -0.0205797 0.000706989 0.000288791 0.000157297 0.00205426 0.0174115 -0.0205797 0.000706989 434.901 434.901 1001.03 
154 1 1 0.0434516 0.076921 0.00997534 0 0 0 -0.0246532 -0.000558893 0.0019514 0.000273949 0.000539641 -0.000206938 -0.0246532 -0.000558893 0.0019514 434.442 434.442 1001.03 
155 1 1 0.0614513 0.0770535 0.0283046 0 0 0 -0.0937433 -0.000201383 0.0608421 -0.000230481 0.000226116 -0.00104484 -0.0937433 -0.000201383 0.0608421 386.621 386.621 1000.92 
156 1 1 0.0864613 0.0620541 0.00997424 0 0 0 0.0635727 0.0182506 -0.000157036 0.000256652 0.000715149 0.000140332 0.0635727 0.0182506 -0.000157036 414.453 414.453 1000.98 
157 1 1 0.134662 0.0729132 0.0232601 0 0 0 -0.182544 0.0101358 0.0231022 -0.000793429 0.000587578 -0.000873957 -0.182544 0.0101358 0.0231022 418.156 418.156 1000.99 
158 1 1 0.147282 0.0771528 0.0229333 0 0 0 -0.163097 -0.020289 -0.0194202 -4.39523e-05 0.00111086 -0.00131903 -0.163097 -0.020289 -0.0194202 429.897 429.897 1001.02 
159 1 1 0.129556 0.0771962 0.009975 0 0 0 0.0604545 0.0111895 5.17893e-05 -9.88361e-05 0.00019109 -0.00147924 0.0604545 0.0111895 5.17893e-05 423.925 423.925 1001.01 
160 1 1 0.153562 0.0790759 0.0382744 0 0 0 -0.162662 0.0115182 0.00371087 0.000362715 -4.7803e-05 -0.00103401 -0.162662 0.0115182 0.00371087 281.929 281.929 1000.67 
161 1 1 0.00998244 0.0790907 0.0228471 0 0 0 -0.00108796 0.018922 -0.00198693 0.00107356 -0.000465525 0.000128755 -0.00108796 0.018922 -0.00198693 405.226 405.226 1000.96 
162 1 1 0.00999281 0.0764239 0.0099679 0 0 0 -0.00344879 -0.0216328 -0.0179845 -0.0125239 -0.000299515 0.0107372 -0.00344879 -0.0216328 -0.0179845 449.316 449.316 1001.07 
163 1 1 0.0294142 0.0757356 0.0254619 0 0 0 -0.0394154 -0.000228593 0.0176892 -0.000978191 0.000621039 -0.00108352 -0.0394154 -0.000228593 0.0176892 407.087 407.087 1000.97 
164 1 1 0.0730736 0.071693 0.0473609 0 0 0 -0.10107 -0.0147465 0.129144 0.000236774 0.000549647 0.000209255 -0.10107 -0.0147465 0.129144 184.89 184.89 1000.44 
165 1 1 0.109265 0.0741857 0.0520666 0 0 0 -0.173285 0.00172871 0.0129759 -0.000488049 -0.000481294 -0.000725196 -0.173285 0.00172871 0.0129759 182.465 182.465 1000.43 
166 1 1 0.111759 0.0774454 0.00998302 0 0 0 0.0466159 0.0174151 -0.00639004 -0.000150001 0.000362158 -0.00923213 0.0466159 0.0174151 -0.00639004 426.437 426.437 1001.01 
167 1 1 0.135764 0.0771323 0.036105 0 0 0 -0.180148 -0.00705384 0.0073867 -0.000313771 0.00025493 -0.0027684 -0.180148 -0.00705384 0.0073867 294.92 294.92 1000.7 
168 1 1 0.126232 0.0649877 0.00997312 0 0 0 0.0486411 0.0102527 0.00205736 -0.000324064 0.000321923 0.00139827 0.0486411 0.0102527 0.00205736 410.433 410.433 1000.97 
169 1 1 0.15541 0.0774721 0.0224225 0 0 0 -0.16511 0.0350099 -0.0269526 -0.000674208 0.000664602 -0.00177745 -0.16511 0.0350099 -0.0269526 441.087 441.087 1001.05 
170 1 1 0.155115 0.0777158 0.00997374 0 0 0 0.0649961 0.0135163 -0.00175653 0.000321269 -0.000683303 -0.000284893 0.0649961 0.0135163 -0.00175653 435.697 435.697 1001.03 
171 1 1 0.00999086 0.0900178 0.00997434 0 0 0 -0.0030301 -0.0164788 0.0206116 -0.0080258 -0.00133174 0.00675202 -0.0030301 -0.0164788 0.0206116 470.757 470.757 1001.12 
172 1 1 0.0205975 0.0900322 0.00996972 0 0 0 -0.00654532 -0.00214745 -0.00449628 0.000705634 -0.0133988 0.0105009 -0.00654532 -0.00214745 -0.00449628 427.308 427.308 1001.01 
173 1 1 0.0325769 0.0900118 0.00995279 0 0 0 0.00937765 -0.00662247 0.00785446 -0.000422478 0.00642259 0.0271373 0.00937765 -0.00662247 0.00785446 419.543 419.543 1001 
174 1 1 0.0412766 0.090019 0.0100036 0 0 0 0.0020861 0.00451464 -0.0119155 -0.000444125 -0.00062545 -0.031634 0.0020861 0.00451464 -0.0119155 419.181 419.181 1001 
175 1 1 0.0679572 0.0900205 0.00999177 0 0 0 0.0264544 0.00140235 -0.00672651 0.000994877 -0.00204951 -0.013567 0.0264544 0.00140235 -0.00672651 428.958 428.958 1001.02 