ITEM: TIMESTEP
175000
ITEM: NUMBER OF ATOMS
2655
ITEM: BOX BOUNDS ff ff ff
0 0.5
0 0.1
0 0.5
ITEM: ATOMS id type type x y z ix iy iz vx vy vz fx fy fz vx vy vz p p rho 
1 1 1 0.00999695 0.00998085 0.00996041 0 0 0 -0.0125852 0.00382078 -0.0131767 -0.0111526 -0.000217823 0.0123641 -0.0125852 0.00382078 -0.0131767 459.587 459.587 1001.09 
2 1 1 0.0433584 0.00998862 0.00996978 0 0 0 -0.0157765 0.00442582 -0.0053248 0.000774932 -0.00665915 0.00525751 -0.0157765 0.00442582 -0.0053248 451.864 451.864 1001.07 
3 1 1 0.0390766 0.00998186 0.00997096 0 0 0 -0.00387161 0.00878084 -0.00825153 -0.00047602 -0.000118337 0.00408422 -0.00387161 0.00878084 -0.00825153 459.842 459.842 1001.09 
4 1 1 0.0771767 0.00997681 0.00998025 0 0 0 -0.00829109 0.00410466 -0.00472411 -5.64352e-05 0.00649318 -0.00481764 -0.00829109 0.00410466 -0.00472411 424.664 424.664 1001.01 
5 1 1 0.0815628 0.0099884 0.00997161 0 0 0 -0.0155024 -0.00298091 0.00437909 0.00049705 -0.00483432 0.00416601 -0.0155024 -0.00298091 0.00437909 424.244 424.244 1001.01 
6 1 1 0.0998863 0.00998775 0.00997154 0 0 0 -0.0154118 0.00699145 -0.00575537 0.000229511 -0.00316809 0.00469781 -0.0154118 0.00699145 -0.00575537 424.544 424.544 1001.01 
7 1 1 0.113657 0.00998961 0.00997135 0 0 0 -0.0185666 9.53941e-05 0.00138357 -5.65888e-05 -0.00493355 0.00481776 -0.0185666 9.53941e-05 0.00138357 420.528 420.528 1001 
8 1 1 0.122661 0.00998336 0.00997778 0 0 0 -0.00878442 -0.000258085 0.000940792 0.000275568 0.00142454 -0.00140671 -0.00878442 -0.000258085 0.000940792 420.197 420.197 1001 
9 1 1 0.131971 0.00998255 0.00997886 0 0 0 -0.0292894 -0.00307025 0.00278063 1.62265e-05 0.00240587 -0.00291234 -0.0292894 -0.00307025 0.00278063 414.372 414.372 1000.98 
10 1 1 0.145746 0.00998139 0.00997948 0 0 0 -0.0304363 0.000848712 -0.00103273 -9.44338e-05 0.00396742 -0.00330326 -0.0304363 0.000848712 -0.00103273 410.232 410.232 1000.97 
11 1 1 0.00998743 0.0205506 0.00996408 0 0 0 0.00516283 0.00719888 -0.00154753 -0.00294832 -0.00077975 0.00435401 0.00516283 0.00719888 -0.00154753 512.186 512.186 1001.22 
12 1 1 0.0385325 0.0384782 0.00997103 0 0 0 -0.000167602 -0.0072321 0.000887235 5.92831e-05 0.000233324 0.000574666 -0.000167602 -0.0072321 0.000887235 431.653 431.653 1001.02 
13 1 1 0.0234197 0.021822 0.00996513 0 0 0 0.00950287 -0.0069798 0.00125852 -0.000433208 -0.00179284 0.00549666 0.00950287 -0.0069798 0.00125852 480.851 480.851 1001.14 
14 1 1 0.0891887 0.0231193 0.0099709 0 0 0 -0.00651466 0.000951935 0.00140337 0.000874908 0.000413432 0.001312 -0.00651466 0.000951935 0.00140337 405.552 405.552 1000.96 
15 1 1 0.0776266 0.021898 0.00997348 0 0 0 -0.00689599 -0.00178922 0.000205901 0.00145966 0.000396524 -0.000618273 -0.00689599 -0.00178922 0.000205901 425.4 425.4 1001.01 
16 1 1 0.109297 0.0225247 0.00997162 0 0 0 -0.021514 0.00112523 0.000311304 0.000508276 0.000125713 0.00143053 -0.021514 0.00112523 0.000311304 394.271 394.271 1000.94 
17 1 1 0.112257 0.0408201 0.00997253 0 0 0 0.00394083 0.00900229 0.000348002 -9.02233e-05 0.000300418 4.00973e-05 0.00394083 0.00900229 0.000348002 380.081 380.081 1000.9 
18 1 1 0.141221 0.0316523 0.00997307 0 0 0 -0.0201302 0.00992746 0.000372498 -3.73157e-05 0.000299103 3.23658e-05 -0.0201302 0.00992746 0.000372498 373.311 373.311 1000.89 
19 1 1 0.12236 0.0223338 0.00997308 0 0 0 -0.0326872 -0.0161554 0.000672319 0.000434494 0.000255151 -0.000656294 -0.0326872 -0.0161554 0.000672319 388.199 388.199 1000.92 
20 1 1 0.159626 0.0228395 0.00997261 0 0 0 -0.0390039 -1.82713e-05 0.000659018 0.000524597 -0.000351506 6.4028e-05 -0.0390039 -1.82713e-05 0.000659018 375.091 375.091 1000.89 
21 1 1 0.00997619 0.0282569 0.00997499 0 0 0 -0.00317323 0.00624503 0.00172284 0.00745294 0.00075635 -0.00661379 -0.00317323 0.00624503 0.00172284 508.766 508.766 1001.21 
22 1 1 0.0356412 0.0262179 0.00997058 0 0 0 -0.00350002 -0.000795937 -0.000553965 0.00114807 0.000521234 0.00127522 -0.00350002 -0.000795937 -0.000553965 434.011 434.011 1001.03 
23 1 1 0.0727489 0.0468509 0.00997285 0 0 0 -0.0114074 -0.00900341 0.000264352 0.000500467 0.000351741 0.000185169 -0.0114074 -0.00900341 0.000264352 396.28 396.28 1000.94 
24 1 1 0.0960077 0.0295025 0.00997359 0 0 0 0.0149415 0.0137253 0.000451371 0.000315488 -0.000270936 -4.96251e-05 0.0149415 0.0137253 0.000451371 395.274 395.274 1000.94 
25 1 1 0.116808 0.0373127 0.00997258 0 0 0 -0.015274 0.00187286 0.000340583 0.00162679 -0.000233286 6.80328e-05 -0.015274 0.00187286 0.000340583 379.867 379.867 1000.9 
26 1 1 0.115652 0.0231433 0.009973 0 0 0 -0.0203542 0.0043711 0.000758843 0.000639371 -0.0005428 -0.000140903 -0.0203542 0.0043711 0.000758843 387.628 387.628 1000.92 
27 1 1 0.141178 0.0445432 0.00997251 0 0 0 -0.0242728 -0.00232767 0.000404959 0.0001109 -0.000222529 3.86333e-05 -0.0242728 -0.00232767 0.000404959 371.388 371.388 1000.88 
28 1 1 0.118385 0.030049 0.00997322 0 0 0 -0.0192106 -0.00113021 0.000411641 0.000238236 0.000675214 -4.20415e-05 -0.0192106 -0.00113021 0.000411641 376.449 376.449 1000.89 
29 1 1 0.147626 0.0227406 0.00997291 0 0 0 -0.0373148 0.00372884 0.000345025 0.000390727 -0.000233977 -8.9705e-05 -0.0373148 0.00372884 0.000345025 377.819 377.819 1000.9 
30 1 1 0.155273 0.0321359 0.00997243 0 0 0 -0.0213434 0.00385645 0.000335211 -0.00081803 -1.29355e-05 -1.1052e-05 -0.0213434 0.00385645 0.000335211 374.825 374.825 1000.89 
31 1 1 0.00999091 0.0384033 0.0099625 0 0 0 0.00278803 0.000785379 -0.00146885 -0.0073498 -0.000461114 0.00701906 0.00278803 0.000785379 -0.00146885 505.675 505.675 1001.2 
32 1 1 0.0232788 0.0411673 0.00997039 0 0 0 0.0122776 -0.0112076 -0.000692855 2.9617e-05 -0.000108503 0.00170207 0.0122776 -0.0112076 -0.000692855 467.216 467.216 1001.11 
33 1 1 0.0591849 0.0246983 0.00997265 0 0 0 0.0080034 -0.0121608 0.000494821 0.00134251 0.000199036 0.000480279 0.0080034 -0.0121608 0.000494821 418.98 418.98 1000.99 
34 1 1 0.0703668 0.0370677 0.009973 0 0 0 -0.056691 0.0156961 0.000245574 0.000761657 -0.000468964 0.00025698 -0.056691 0.0156961 0.000245574 409.494 409.494 1000.97 
35 1 1 0.0859768 0.0359609 0.00997307 0 0 0 -0.0124336 -0.0028643 0.000212906 0.000814352 2.24076e-05 8.95649e-05 -0.0124336 -0.0028643 0.000212906 395.435 395.435 1000.94 
36 1 1 0.107284 0.0309371 0.00997276 0 0 0 -0.0134878 0.0109926 0.000388592 0.000897618 5.93942e-05 2.79447e-05 -0.0134878 0.0109926 0.000388592 382.72 382.72 1000.91 
37 1 1 0.129652 0.0373148 0.00997249 0 0 0 -0.0302312 -0.00564481 0.000358697 0.000710935 0.000310266 3.03589e-05 -0.0302312 -0.00564481 0.000358697 372.697 372.697 1000.89 
38 1 1 0.136391 0.0378334 0.00997293 0 0 0 0.0118498 -0.0179658 0.000376151 1.13807e-05 0.000201422 2.46448e-05 0.0118498 -0.0179658 0.000376151 373.306 373.306 1000.89 
39 1 1 0.16135 0.0374734 0.00997228 0 0 0 -0.0162282 -0.00318554 0.000365438 0.000918168 -0.000177252 -2.75713e-05 -0.0162282 -0.00318554 0.000365438 373.722 373.722 1000.89 
40 1 1 0.175799 0.037491 0.00997185 0 0 0 -0.0201266 0.00228844 0.000288754 -0.00041922 0.000470301 1.81472e-05 -0.0201266 0.00228844 0.000288754 370.584 370.584 1000.88 
41 1 1 0.00999457 0.0527264 0.0099622 0 0 0 0.000753003 0.000377296 -0.00160603 -0.0110017 -0.000894344 0.00775187 0.000753003 0.000377296 -0.00160603 503.086 503.086 1001.19 
42 1 1 0.0442329 0.0634238 0.00997178 0 0 0 0.0283661 0.0400391 -0.00103024 -0.000255014 0.00070231 -6.53159e-05 0.0283661 0.0400391 -0.00103024 416.118 416.118 1000.99 
43 1 1 0.0613021 0.0530916 0.00997194 0 0 0 0.0053946 0.0255951 9.63399e-05 0.000532102 -0.000372762 0.000578476 0.0053946 0.0255951 9.63399e-05 415.417 415.417 1000.99 
44 1 1 0.0787065 0.0426325 0.00997283 0 0 0 -0.0158242 -0.000268842 0.00021652 0.000215078 0.000228211 8.9764e-05 -0.0158242 -0.000268842 0.00021652 393.795 393.795 1000.93 
45 1 1 0.0903965 0.047659 0.00997264 0 0 0 -0.0183493 -0.00107586 0.000466727 0.000711288 -0.000423835 0.000259938 -0.0183493 -0.00107586 0.000466727 392.492 392.492 1000.93 
46 1 1 0.104848 0.0496572 0.00997196 0 0 0 -0.00620961 0.00243258 0.000464152 -0.000100474 8.07135e-05 0.000193634 -0.00620961 0.00243258 0.000464152 383.67 383.67 1000.91 
47 1 1 0.111178 0.049213 0.00997284 0 0 0 -0.0275923 -0.000375278 0.000387017 0.000615116 0.00018013 8.34898e-05 -0.0275923 -0.000375278 0.000387017 375.739 375.739 1000.89 
48 1 1 0.135782 0.050808 0.00997247 0 0 0 -0.0302107 -0.000808585 0.000414405 0.000422304 -0.000159107 5.99196e-05 -0.0302107 -0.000808585 0.000414405 369.415 369.415 1000.88 
49 1 1 0.123324 0.0488448 0.00997273 0 0 0 0.00693345 -0.00144064 0.000387953 -0.000109458 -0.00030057 6.66231e-05 0.00693345 -0.00144064 0.000387953 375.423 375.423 1000.89 
50 1 1 0.160405 0.0516665 0.00997227 0 0 0 -0.0215518 -0.0169422 0.000360945 0.000920455 0.000300242 2.0427e-05 -0.0215518 -0.0169422 0.000360945 369.635 369.635 1000.88 
51 1 1 0.00997504 0.0616915 0.00997518 0 0 0 -0.00110648 0.00813133 0.000903117 0.00939679 -0.000469269 -0.00565147 -0.00110648 0.00813133 0.000903117 514.682 514.682 1001.22 
52 1 1 0.0249459 0.0514429 0.0099718 0 0 0 0.00573848 0.00477394 1.38129e-05 0.00140701 0.0012669 0.00159503 0.00573848 0.00477394 1.38129e-05 474.448 474.448 1001.13 
53 1 1 0.0696481 0.0589272 0.00997313 0 0 0 0.00755072 0.00825537 0.000341548 0.00128857 0.000468391 -0.000204104 0.00755072 0.00825537 0.000341548 404.801 404.801 1000.96 
54 1 1 0.0910312 0.0587406 0.00997299 0 0 0 -0.00628008 0.00320667 0.000344362 0.000411862 0.000533508 -0.000100047 -0.00628008 0.00320667 0.000344362 388.11 388.11 1000.92 
55 1 1 0.0959332 0.0556867 0.00997312 0 0 0 -0.013671 -0.0088599 0.00032952 0.000203084 4.29794e-05 4.63858e-07 -0.013671 -0.0088599 0.00032952 381.698 381.698 1000.91 
56 1 1 0.106232 0.0704318 0.00997327 0 0 0 0.00823803 -0.012418 0.000433818 0.000651505 0.000166831 9.25774e-06 0.00823803 -0.012418 0.000433818 384.932 384.932 1000.91 
57 1 1 0.133827 0.0634947 0.00997221 0 0 0 0.016073 0.0121239 0.000443624 -4.63377e-05 -0.000258094 2.19562e-06 0.016073 0.0121239 0.000443624 369.135 369.135 1000.88 
58 1 1 0.141015 0.0640869 0.00997222 0 0 0 -0.0163727 -0.0178079 0.000408799 -5.98649e-05 -0.000492297 3.35276e-05 -0.0163727 -0.0178079 0.000408799 370.599 370.599 1000.88 
59 1 1 0.155839 0.0650985 0.00997244 0 0 0 -0.0549878 -0.00662277 0.000365544 0.00019711 -0.000464592 -2.74842e-05 -0.0549878 -0.00662277 0.000365544 366.049 366.049 1000.87 
60 1 1 0.167538 0.062209 0.00997267 0 0 0 -0.0457983 0.0354773 0.000346471 -0.000392795 6.31204e-05 4.11976e-05 -0.0457983 0.0354773 0.000346471 369.558 369.558 1000.88 
61 1 1 0.00998034 0.0714333 0.00997126 0 0 0 -0.00055104 0.0177095 0.00156007 0.00335013 0.000371853 -0.00266773 -0.00055104 0.0177095 0.00156007 525.13 525.13 1001.25 
62 1 1 0.0505619 0.0586486 0.00997253 0 0 0 0.0197599 -0.0308232 0.000645224 0.000820928 6.5113e-05 0.000351384 0.0197599 -0.0308232 0.000645224 407.06 407.06 1000.97 
63 1 1 0.0833159 0.0632496 0.00997282 0 0 0 -0.00725033 -0.00631152 0.000422889 0.000221166 -0.000297918 0.000187228 -0.00725033 -0.00631152 0.000422889 397.47 397.47 1000.94 
64 1 1 0.0938856 0.066779 0.00997316 0 0 0 -0.0051463 -0.00484134 0.000453604 0.00119857 -0.00015481 -4.53978e-05 -0.0051463 -0.00484134 0.000453604 395.01 395.01 1000.94 
65 1 1 0.122479 0.0605401 0.00997263 0 0 0 -0.0172044 -0.00447514 0.000454709 0.000297057 1.77024e-05 1.43372e-05 -0.0172044 -0.00447514 0.000454709 375.839 375.839 1000.89 
66 1 1 0.114582 0.0774744 0.00997218 0 0 0 -0.0168485 0.00733192 0.000657945 0.00151536 -0.00025392 0.000417454 -0.0168485 0.00733192 0.000657945 393.44 393.44 1000.93 
67 1 1 0.141096 0.0548664 0.00997192 0 0 0 -0.0245432 -0.00848547 0.000413688 0.000140825 0.000236865 7.54486e-05 -0.0245432 -0.00848547 0.000413688 369.381 369.381 1000.88 
68 1 1 0.121175 0.0687864 0.00997271 0 0 0 0.000393228 -0.0118761 0.000500194 0.000468857 6.60861e-05 2.53016e-05 0.000393228 -0.0118761 0.000500194 382.889 382.889 1000.91 
69 1 1 0.147228 0.0769766 0.00997335 0 0 0 -0.0370955 0.00665091 0.000739476 5.19007e-05 -0.000240337 -9.31193e-05 -0.0370955 0.00665091 0.000739476 381.324 381.324 1000.91 
70 1 1 0.157943 0.071742 0.00997314 0 0 0 -0.050761 0.029506 0.000367471 -6.91307e-05 -1.93413e-06 -1.72763e-05 -0.050761 0.029506 0.000367471 369.454 369.454 1000.88 
71 1 1 0.00999052 0.0793975 0.0099647 0 0 0 -0.00825641 -0.0174324 0.000162314 -0.00680681 -0.00177752 0.00374118 -0.00825641 -0.0174324 0.000162314 520.232 520.232 1001.23 
72 1 1 0.0323544 0.0647983 0.00997196 0 0 0 0.013674 0.0180414 -0.00179191 0.000867265 0.000187392 2.49162e-05 0.013674 0.0180414 -0.00179191 431.502 431.502 1001.02 
73 1 1 0.0332721 0.0788394 0.00996812 0 0 0 -0.0215402 -0.0247664 0.00122863 0.000292272 -0.00111724 0.00314241 -0.0215402 -0.0247664 0.00122863 446.538 446.538 1001.06 
74 1 1 0.0957675 0.0766804 0.00997273 0 0 0 -0.00415265 0.0020822 0.000507456 0.000788306 0.000168997 7.32997e-05 -0.00415265 0.0020822 0.000507456 398.315 398.315 1000.95 
75 1 1 0.0832187 0.0779021 0.00997293 0 0 0 -0.00619306 -0.0109589 -0.000346989 0.00087399 -0.000608101 0.00037285 -0.00619306 -0.0109589 -0.000346989 409.862 409.862 1000.97 
76 1 1 0.109346 0.077083 0.00997206 0 0 0 -0.0316633 -0.00894446 0.000536073 -7.18431e-05 -3.27465e-05 0.000344398 -0.0316633 -0.00894446 0.000536073 402.383 402.383 1000.96 
77 1 1 0.111048 0.0600161 0.00997347 0 0 0 -0.0256783 -0.00857164 0.000334077 0.00105833 -0.00033083 -2.70592e-05 -0.0256783 -0.00857164 0.000334077 375.321 375.321 1000.89 
78 1 1 0.145104 0.0685549 0.00997271 0 0 0 -0.03474 -0.0052741 0.000372709 0.000207498 0.000234145 -1.50641e-05 -0.03474 -0.0052741 0.000372709 366.035 366.035 1000.87 
79 1 1 0.121233 0.077111 0.00997249 0 0 0 -0.0348863 -0.00847628 0.000575942 0.000384612 1.62352e-05 0.000260831 -0.0348863 -0.00847628 0.000575942 391.298 391.298 1000.93 
80 1 1 0.160934 0.0782159 0.00997307 0 0 0 -0.0353847 -0.0181346 0.000865096 1.32059e-05 -0.000365579 -0.000295128 -0.0353847 -0.0181346 0.000865096 379.341 379.341 1000.9 
81 1 1 0.00999204 0.090034 0.00998433 0 0 0 -0.00384314 0.00389747 0.00103329 -0.00550759 -0.0141966 -0.0133104 -0.00384314 0.00389747 0.00103329 539.069 539.069 1001.28 
82 1 1 0.035861 0.0900158 0.00997112 0 0 0 0.0129995 0.000270271 0.00223437 0.00062356 0.00372711 0.00226574 0.0129995 0.000270271 0.00223437 453.109 453.109 1001.08 
83 1 1 0.0307792 0.0900228 0.00997516 0 0 0 -0.0424744 0.00286784 0.00246254 0.000193358 -0.00292378 -0.00328593 -0.0424744 0.00286784 0.00246254 453.482 453.482 1001.08 
84 1 1 0.0792575 0.0900164 0.00997547 0 0 0 -0.0423495 0.00557252 0.00594337 0.000126412 0.00105456 -0.000612132 -0.0423495 0.00557252 0.00594337 416.503 416.503 1000.99 
85 1 1 0.0841341 0.0900188 0.00997577 0 0 0 -0.0155039 -0.00614419 -0.00544909 0.000341033 -0.00172121 -0.000770892 -0.0155039 -0.00614419 -0.00544909 416.601 416.601 1000.99 
86 1 1 0.102843 0.0900111 0.00997062 0 0 0 -0.0153223 -0.00040138 0.00158664 0.000575163 0.00531553 0.00500301 -0.0153223 -0.00040138 0.00158664 411.136 411.136 1000.98 
87 1 1 0.116887 0.0900187 0.00997692 0 0 0 -0.0238906 -0.00728361 -0.00670531 0.000374897 -0.0033003 -0.00105829 -0.0238906 -0.00728361 -0.00670531 406.038 406.038 1000.96 
88 1 1 0.125905 0.0900166 0.00997544 0 0 0 -0.0282211 -0.00804297 -0.0067446 0.000680869 -0.000989468 0.00071981 -0.0282211 -0.00804297 -0.0067446 406.935 406.935 1000.97 
89 1 1 0.13564 0.0900106 0.0099731 0 0 0 -0.0207672 0.00462639 0.00548956 2.22082e-05 0.00438232 0.00254467 -0.0207672 0.00462639 0.00548956 402.732 402.732 1000.96 
90 1 1 0.14951 0.0900227 0.00998231 0 0 0 -0.0157818 2.39859e-05 -0.000857981 -4.10377e-05 -0.00736809 -0.00666549 -0.0157818 2.39859e-05 -0.000857981 391.654 391.654 1000.93 
91 1 1 0.00996494 0.009981 0.00996651 0 0 0 0.0130898 0.00716607 -0.00126216 0.0207143 -0.000620859 0.00597962 0.0130898 0.00716607 -0.00126216 512.16 512.16 1001.21 
92 1 1 0.0348304 0.00997767 0.0099756 0 0 0 0.00333003 0.000908548 -0.000736417 -0.000799002 0.00333591 -0.000973248 0.00333003 0.000908548 -0.000736417 459.308 459.308 1001.09 
93 1 1 0.0487433 0.00998457 0.00997466 0 0 0 -0.00737385 -0.000304929 0.00155313 0.000299633 -0.00227127 2.53118e-05 -0.00737385 -0.000304929 0.00155313 443.934 443.934 1001.05 
94 1 1 0.0580883 0.00997562 0.00998061 0 0 0 -0.00882621 -0.00531911 0.00370331 0.00051238 0.00739017 -0.00640173 -0.00882621 -0.00531911 0.00370331 431.02 431.02 1001.02 
95 1 1 0.0860143 0.00997592 0.00998188 0 0 0 -0.00777967 0.000289969 -0.00175204 0.000348219 0.00820681 -0.00651809 -0.00777967 0.000289969 -0.00175204 420.472 420.472 1001 
96 1 1 0.10892 0.00999081 0.00996963 0 0 0 -0.0209152 0.00477879 -0.00312033 0.000395018 -0.0059803 0.00697093 -0.0209152 0.00477879 -0.00312033 421.949 421.949 1001 
97 1 1 0.118115 0.00997575 0.00998542 0 0 0 -0.0125713 -0.00325898 0.00181694 0.000194747 0.00922989 -0.00901145 -0.0125713 -0.00325898 0.00181694 415.345 415.345 1000.99 
98 1 1 0.127031 0.00999015 0.00997063 0 0 0 -0.0153007 0.00373973 -0.00135088 0.000615041 -0.0052626 0.00541559 -0.0153007 0.00373973 -0.00135088 420.495 420.495 1001 
99 1 1 0.136622 0.00998336 0.00997675 0 0 0 -0.00115988 0.00307432 -0.00259696 -8.33477e-05 0.00177757 -0.000847023 -0.00115988 0.00307432 -0.00259696 414.616 414.616 1000.98 
100 1 1 0.140598 0.00999043 0.00997145 0 0 0 -0.0348917 -0.000385966 0.00207458 0.000990329 -0.0050571 0.00444841 -0.0348917 -0.000385966 0.00207458 414.361 414.361 1000.98 
101 1 1 0.009985 0.0207176 0.0226584 0 0 0 -0.00163642 0.00604676 0.000842259 0.00144055 9.22438e-06 0.00178344 -0.00163642 0.00604676 0.000842259 475.509 475.509 1001.13 
102 1 1 0.00999126 0.0234586 0.00996385 0 0 0 -0.000559631 -0.0140703 0.000855139 -0.00720404 -0.000621211 0.00426058 -0.000559631 -0.0140703 0.000855139 511.511 511.511 1001.21 
103 1 1 0.0233152 0.0259858 0.0256474 0 0 0 -0.0245522 0.00456793 -0.0233209 0.000445359 -0.000222488 -0.000834164 -0.0245522 0.00456793 -0.0233209 405.177 405.177 1000.96 
104 1 1 0.0770786 0.0224765 0.03248 0 0 0 0.0105722 0.0131562 0.0157308 0.000993245 0.000379452 0.00115704 0.0105722 0.0131562 0.0157308 300.689 300.689 1000.71 
105 1 1 0.121052 0.0398095 0.0524012 0 0 0 0.0125006 0.0358312 -0.0340026 0.000611891 -0.000111332 0.000461551 0.0125006 0.0358312 -0.0340026 136.579 136.579 1000.32 
106 1 1 0.135555 0.022589 0.00997232 0 0 0 -0.0350665 -0.00300955 0.000251332 9.5269e-05 0.000338892 0.000192352 -0.0350665 -0.00300955 0.000251332 382.392 382.392 1000.91 
107 1 1 0.132396 0.0208933 0.0356832 0 0 0 0.0512 -0.00984894 -0.00173691 0.000829455 0.000230002 0.000112492 0.0512 -0.00984894 -0.00173691 266.621 266.621 1000.63 
108 1 1 0.148062 0.0349432 0.00997276 0 0 0 0.0147706 -0.00152735 0.000392187 0.000939885 -0.000142369 1.8253e-06 0.0147706 -0.00152735 0.000392187 371.373 371.373 1000.88 
109 1 1 0.151587 0.0227065 0.021422 0 0 0 0.0227993 -0.00532509 0.00940657 -8.54647e-05 -0.000238265 -1.87457e-05 0.0227993 -0.00532509 0.00940657 334.975 334.975 1000.8 
110 1 1 0.179286 0.0222541 0.00997309 0 0 0 -0.0527092 0.00293833 0.000118336 0.000316184 0.000466943 -0.000234023 -0.0527092 0.00293833 0.000118336 380.043 380.043 1000.9 
111 1 1 0.00998458 0.0339044 0.00996766 0 0 0 -0.00016746 0.00170005 -0.000175857 -0.00112343 -0.000242343 0.00169256 -0.00016746 0.00170005 -0.000175857 505.513 505.513 1001.2 
112 1 1 0.0244378 0.0231208 0.044788 0 0 0 -0.00185022 0.00574006 -0.0268695 -0.00119581 0.000480791 -0.000102677 -0.00185022 0.00574006 -0.0268695 268.134 268.134 1000.64 
113 1 1 0.0477995 0.0302356 0.00997047 0 0 0 0.00186624 -0.0223179 0.00139455 0.00118252 0.00106159 0.00111196 0.00186624 -0.0223179 0.00139455 427.8 427.8 1001.02 
114 1 1 0.0648757 0.0224325 0.00997174 0 0 0 0.0189589 -0.00431168 -0.000658339 0.000720909 -0.000165521 0.00112957 0.0189589 -0.00431168 -0.000658339 425.146 425.146 1001.01 
115 1 1 0.0617279 0.022016 0.035507 0 0 0 -0.000333002 0.0130311 0.0433725 0.000692027 -0.000245361 0.000711854 -0.000333002 0.0130311 0.0433725 282.017 282.017 1000.67 
116 1 1 0.104939 0.0381888 0.00997335 0 0 0 -0.000643769 0.0104324 0.000346897 0.000762925 -0.00068551 -0.00020863 -0.000643769 0.0104324 0.000346897 382.082 382.082 1000.91 
117 1 1 0.130224 0.0224592 0.0245548 0 0 0 0.0199191 0.00403574 -0.0380963 -0.00044571 0.000247957 -0.000155738 0.0199191 0.00403574 -0.0380963 338.127 338.127 1000.8 
118 1 1 0.143868 0.0224596 0.0212214 0 0 0 0.017422 0.0152678 0.000221184 0.000175252 0.00038077 0.000515149 0.017422 0.0152678 0.000221184 341.592 341.592 1000.81 
119 1 1 0.153672 0.0233537 0.00997309 0 0 0 -0.036174 -0.00316004 0.000345444 -0.000165364 -0.000279507 6.50775e-06 -0.036174 -0.00316004 0.000345444 374.987 374.987 1000.89 
120 1 1 0.16319 0.0210579 0.0370495 0 0 0 0.0524232 0.00308004 -0.00930607 -0.000909927 0.000246516 0.000145149 0.0524232 0.00308004 -0.00930607 256.664 256.664 1000.61 
121 1 1 0.0099768 0.0427875 0.00997274 0 0 0 -0.00103985 -0.00993151 0.00168368 0.00688626 0.000127192 -0.00316462 -0.00103985 -0.00993151 0.00168368 503.364 503.364 1001.19 
122 1 1 0.0218939 0.0350818 0.00997035 0 0 0 0.00883556 0.00288986 -0.000674842 0.00120152 0.000200531 0.00149189 0.00883556 0.00288986 -0.000674842 462.171 462.171 1001.1 
123 1 1 0.0220243 0.0256715 0.00996824 0 0 0 -0.0160608 -0.00801548 0.00100678 0.000673984 -0.000147503 0.00297931 -0.0160608 -0.00801548 0.00100678 477.729 477.729 1001.13 
124 1 1 0.0801788 0.0346227 0.00997255 0 0 0 -0.0135501 0.0109543 0.000241521 0.00035488 3.2133e-05 0.000203179 -0.0135501 0.0109543 0.000241521 399.455 399.455 1000.95 
125 1 1 0.0917754 0.0360282 0.00997327 0 0 0 -0.0187394 -0.0195169 0.00025284 0.00076445 0.000513857 -2.44961e-05 -0.0187394 -0.0195169 0.00025284 392.302 392.302 1000.93 
126 1 1 0.129275 0.0301275 0.00997275 0 0 0 -0.0140025 -0.00451442 0.000359669 0.000388083 -0.000421429 3.77805e-05 -0.0140025 -0.00451442 0.000359669 376.005 376.005 1000.89 
127 1 1 0.169504 0.0406245 0.00997177 0 0 0 -0.0420247 0.00680581 0.00032074 -0.000234995 0.000146997 -3.46942e-05 -0.0420247 0.00680581 0.00032074 366.638 366.638 1000.87 
128 1 1 0.147025 0.0420652 0.00997297 0 0 0 -0.0363002 -0.00654565 0.000398942 0.000886241 0.00019607 1.83485e-05 -0.0363002 -0.00654565 0.000398942 369.143 369.143 1000.88 
129 1 1 0.141877 0.0236559 0.00997274 0 0 0 -0.0310312 -0.00531667 0.000330969 3.85817e-05 -0.000215546 0.000117615 -0.0310312 -0.00531667 0.000330969 378.585 378.585 1000.9 
130 1 1 0.184206 0.0326462 0.00997279 0 0 0 -0.0544927 -0.00341772 0.000276935 4.09353e-05 -0.000124433 3.31719e-05 -0.0544927 -0.00341772 0.000276935 376.599 376.599 1000.89 
131 1 1 0.00997968 0.0476073 0.00997194 0 0 0 0.00214726 -0.00884588 -0.00117823 0.00345157 0.000165713 -0.00206367 0.00214726 -0.00884588 -0.00117823 505.157 505.157 1001.2 
132 1 1 0.0428344 0.045794 0.00996993 0 0 0 0.0438914 0.0408998 -5.746e-05 0.000342769 0.000611752 0.00155722 0.0438914 0.0408998 -5.746e-05 419.682 419.682 1001 
133 1 1 0.0461973 0.0533027 0.00997206 0 0 0 0.00177086 0.0219951 -0.000135321 0.000943397 -0.000542175 0.000163301 0.00177086 0.0219951 -0.000135321 418.024 418.024 1000.99 
134 1 1 0.0844541 0.0479353 0.00997323 0 0 0 -0.00931014 -0.00415163 0.000222914 0.000823794 -0.000145579 -1.11688e-05 -0.00931014 -0.00415163 0.000222914 400.572 400.572 1000.95 
135 1 1 0.129813 0.049159 0.00997262 0 0 0 -0.0120525 0.00628874 0.000405297 0.000364527 2.8544e-05 6.41711e-05 -0.0120525 0.00628874 0.000405297 372.357 372.357 1000.88 
136 1 1 0.101649 0.0531417 0.0222283 0 0 0 0.034421 -2.19666e-05 0.0152016 0.00107667 -0.000253215 0.00017644 0.034421 -2.19666e-05 0.0152016 339.268 339.268 1000.81 
137 1 1 0.135391 0.0441673 0.0204128 0 0 0 -0.00953209 -0.0147322 0.00170411 -0.000101317 0.000211695 0.000641361 -0.00953209 -0.0147322 0.00170411 332.606 332.606 1000.79 
138 1 1 0.153165 0.0489022 0.00997296 0 0 0 -0.0237023 0.00606677 0.000367167 -9.18337e-05 -7.25838e-05 4.32863e-05 -0.0237023 0.00606677 0.000367167 369.567 369.567 1000.88 
139 1 1 0.157335 0.042441 0.00997261 0 0 0 -0.0253774 0.00898801 0.00038198 -0.000405437 1.59762e-05 -3.40819e-06 -0.0253774 0.00898801 0.00038198 369.657 369.657 1000.88 
140 1 1 0.178082 0.0541645 0.0216935 0 0 0 0.0631974 0.00515751 0.000560685 0.000474637 -0.000374457 -0.000349681 0.0631974 0.00515751 0.000560685 324.303 324.303 1000.77 
141 1 1 0.00999128 0.0572481 0.00996266 0 0 0 0.0040003 -0.00122651 -0.0014519 -0.00698698 -0.000572832 0.00722103 0.0040003 -0.00122651 -0.0014519 511.602 511.602 1001.21 
142 1 1 0.0237453 0.0585428 0.00997244 0 0 0 0.00735427 -0.0308184 -0.000193598 0.000267814 -0.000561488 0.00165923 0.00735427 -0.0308184 -0.000193598 459.682 459.682 1001.09 
143 1 1 0.0227627 0.0632946 0.00997475 0 0 0 0.00782741 0.020492 0.00240796 -0.000175571 -8.32688e-05 -0.00142988 0.00782741 0.020492 0.00240796 463.972 463.972 1001.1 
144 1 1 0.0857286 0.0697051 0.0099731 0 0 0 0.000278964 0.00759351 0.000493822 0.000827265 0.000155799 0.000386198 0.000278964 0.00759351 0.000493822 404.118 404.118 1000.96 
145 1 1 0.101908 0.0655174 0.00997256 0 0 0 -0.0254594 -0.00688726 0.000457083 -6.93067e-05 0.000201446 2.8726e-05 -0.0254594 -0.00688726 0.000457083 384.978 384.978 1000.91 
146 1 1 0.1311 0.0705797 0.00997289 0 0 0 -0.013734 0.00649403 0.000410949 0.000358109 -0.000357929 3.61245e-05 -0.013734 0.00649403 0.000410949 370.488 370.488 1000.88 
147 1 1 0.160633 0.0586147 0.00997246 0 0 0 -0.00372868 0.00767043 0.000363306 8.55697e-05 -1.13128e-06 -3.88092e-06 -0.00372868 0.00767043 0.000363306 368.276 368.276 1000.87 
148 1 1 0.148352 0.0540113 0.00997335 0 0 0 -0.0149515 -0.0138598 0.000359525 0.000176682 6.93798e-05 5.32642e-05 -0.0149515 -0.0138598 0.000359525 369.275 369.275 1000.88 
149 1 1 0.140772 0.0774057 0.00997281 0 0 0 -0.0354267 -0.002447 0.000513356 6.00862e-05 0.000224405 0.000186234 -0.0354267 -0.002447 0.000513356 382.167 382.167 1000.91 
150 1 1 0.186523 0.0687961 0.00997309 0 0 0 -0.0124446 -0.0204943 0.000411895 3.9261e-05 0.000159978 -0.000104023 -0.0124446 -0.0204943 0.000411895 377.265 377.265 1000.9 
151 1 1 0.00998298 0.0662816 0.0099697 0 0 0 -0.00329003 -0.00532326 0.00408568 0.00129907 3.78432e-05 -0.000824322 -0.00329003 -0.00532326 0.00408568 520.681 520.681 1001.24 
152 1 1 0.0242167 0.0769485 0.028932 0 0 0 -0.0120051 -0.0272406 0.0245795 -0.00113347 0.000223129 -9.32301e-05 -0.0120051 -0.0272406 0.0245795 347.257 347.257 1000.82 
153 1 1 0.0541856 0.0795916 0.00997391 0 0 0 -0.0336072 0.016222 -0.000873586 0.00109305 -0.00143239 -0.000910753 -0.0336072 0.016222 -0.000873586 437.545 437.545 1001.04 
154 1 1 0.0614261 0.077428 0.00997491 0 0 0 0.00541899 -0.0160242 -0.000722368 0.000559656 0.000617269 -0.00228862 0.00541899 -0.0160242 -0.000722368 423.756 423.756 1001.01 
155 1 1 0.0544105 0.078386 0.0291007 0 0 0 0.00691979 0.0153564 -0.0219601 0.00109092 -0.000568857 0.00085967 0.00691979 0.0153564 -0.0219601 347.945 347.945 1000.83 
156 1 1 0.115519 0.0645988 0.0099728 0 0 0 0.0102819 -0.0224807 0.000390095 -0.000218623 -0.000191456 -2.18666e-06 0.0102819 -0.0224807 0.000390095 377.382 377.382 1000.9 
157 1 1 0.132384 0.0784619 0.021596 0 0 0 -0.00515776 0.00393333 0.0224541 0.000861566 -0.00114244 0.000250572 -0.00515776 0.00393333 0.0224541 339.053 339.053 1000.81 
158 1 1 0.150294 0.0789126 0.0225212 0 0 0 0.0217933 -0.01471 -0.00639819 2.97012e-05 -0.000552244 -0.000258472 0.0217933 -0.01471 -0.00639819 333.88 333.88 1000.79 
159 1 1 0.152822 0.0777354 0.00997347 0 0 0 -0.0293983 -0.00179917 0.000701235 0.000345299 -0.000218793 -0.000241796 -0.0293983 -0.00179917 0.000701235 381.196 381.196 1000.91 
160 1 1 0.159821 0.0779789 0.0435696 0 0 0 0.0836004 0.00210516 -0.0295645 0.000279342 0.000204904 0.000111066 0.0836004 0.00210516 -0.0295645 204.329 204.329 1000.49 
161 1 1 0.00997751 0.0785201 0.0211931 0 0 0 0.0034563 -0.0322006 0.0149365 0.00855554 -0.000456928 0.00150067 0.0034563 -0.0322006 0.0149365 492.905 492.905 1001.17 
162 1 1 0.00996978 0.0767792 0.00997826 0 0 0 0.00121753 0.0201612 -0.000372649 0.0135385 -0.00170747 -0.0100557 0.00121753 0.0201612 -0.000372649 530.764 530.764 1001.26 
163 1 1 0.024816 0.0694666 0.00997643 0 0 0 -0.0394309 -0.0457412 0.00146688 2.14939e-05 0.000172663 -0.0037243 -0.0394309 -0.0457412 0.00146688 448.299 448.299 1001.06 
164 1 1 0.08232 0.062821 0.0430893 0 0 0 0.0148566 -0.0128286 -0.0207336 0.000685378 -0.000477203 0.000355195 0.0148566 -0.0128286 -0.0207336 214.763 214.763 1000.51 
165 1 1 0.117428 0.0683583 0.0451762 0 0 0 0.0360722 -0.0106552 -0.00559773 0.000236138 -0.000778195 0.000552886 0.0360722 -0.0106552 -0.00559773 185.503 185.503 1000.44 
166 1 1 0.13492 0.076742 0.00997235 0 0 0 -0.0368173 0.0183436 0.000326277 0.000311139 0.000309489 0.000330969 -0.0368173 0.0183436 0.000326277 377.464 377.464 1000.9 
167 1 1 0.131262 0.0762592 0.0329584 0 0 0 0.0204743 -0.00886104 0.00791313 0.000526452 0.000211769 0.000533776 0.0204743 -0.00886104 0.00791313 287.294 287.294 1000.68 
168 1 1 0.150626 0.0611263 0.00997304 0 0 0 0.00726384 -0.00604888 0.000342913 -1.17787e-06 0.000168309 5.69261e-06 0.00726384 -0.00604888 0.000342913 366.976 366.976 1000.87 
169 1 1 0.157012 0.0769805 0.021851 0 0 0 0.0345731 -0.00592281 0.0165479 0.00055275 0.000277013 -9.55901e-05 0.0345731 -0.00592281 0.0165479 328.519 328.519 1000.78 
170 1 1 0.180439 0.0772868 0.00997304 0 0 0 -0.0138531 -0.0173518 0.00010426 -0.000435638 0.000286633 -0.00035402 -0.0138531 -0.0173518 0.00010426 378.152 378.152 1000.9 
171 1 1 0.00998355 0.0900137 0.00996439 0 0 0 0.011174 -0.00607685 -0.00562682 0.00289201 0.00621705 0.00653733 0.011174 -0.00607685 -0.00562682 561.652 561.652 1001.33 
172 1 1 0.0224004 0.0900171 0.00997005 0 0 0 -0.00476093 -0.00439289 -0.00469159 0.000523057 0.00214616 0.000213184 -0.00476093 -0.00439289 -0.00469159 485.448 485.448 1001.15 
173 1 1 0.0453966 0.0900259 0.00998301 0 0 0 -0.0423085 -0.000669049 0.000566381 0.00021063 -0.00766903 -0.0093268 -0.0423085 -0.000669049 0.000566381 430.825 430.825 1001.02 