ITEM: TIMESTEP
179000
ITEM: NUMBER OF ATOMS
2655
ITEM: BOX BOUNDS ff ff ff
0 0.5
0 0.1
0 0.5
ITEM: ATOMS id type type x y z ix iy iz vx vy vz fx fy fz vx vy vz p p rho 
1 1 1 0.00998909 0.00998902 0.0099795 0 0 0 0.0103035 -0.00483004 0.00613482 -0.00150656 -0.00360106 -0.00354273 0.0103035 -0.00483004 0.00613482 449.972 449.972 1001.07 
2 1 1 0.0431185 0.00998487 0.00997879 0 0 0 0.000473994 -0.00809417 0.00698528 0.000182499 0.00152015 -0.000992416 0.000473994 -0.00809417 0.00698528 364.348 364.348 1000.87 
3 1 1 0.0385446 0.00999149 0.00997456 0 0 0 -0.0207739 -0.00741612 0.00783141 0.000287497 -0.00512339 0.0026225 -0.0207739 -0.00741612 0.00783141 372.813 372.813 1000.89 
4 1 1 0.0764429 0.00999269 0.00997077 0 0 0 -0.0282734 0.00076742 0.000180243 -0.000539025 -0.00749358 0.00659704 -0.0282734 0.00076742 0.000180243 365.854 365.854 1000.87 
5 1 1 0.0809298 0.00998038 0.00998328 0 0 0 -0.0191565 -0.00126126 -0.00033069 -0.000378395 0.00504367 -0.00575971 -0.0191565 -0.00126126 -0.00033069 361.254 361.254 1000.86 
6 1 1 0.0990963 0.00998751 0.00997714 0 0 0 -0.0249661 -0.00641051 0.00661536 -0.000518762 -0.00214728 0.000397146 -0.0249661 -0.00641051 0.00661536 375.501 375.501 1000.89 
7 1 1 0.112742 0.00998195 0.00998217 0 0 0 -0.0250927 -0.00335755 0.00248538 -0.00017566 0.00345767 -0.00424258 -0.0250927 -0.00335755 0.00248538 378.602 378.602 1000.9 
8 1 1 0.122165 0.00998624 0.0099773 0 0 0 -0.020666 0.00102458 -0.00124399 -0.00054985 -0.000922816 0.000683345 -0.020666 0.00102458 -0.00124399 382.506 382.506 1000.91 
9 1 1 0.130862 0.00998529 0.00997785 0 0 0 -0.0232245 0.00395891 -0.0037195 0.000102725 0.000488662 0.00027407 -0.0232245 0.00395891 -0.0037195 390.338 390.338 1000.93 
10 1 1 0.144413 0.00998897 0.00997508 0 0 0 -0.0334158 0.00227046 -0.00133952 2.59876e-05 -0.00322772 0.00317588 -0.0334158 0.00227046 -0.00133952 391.975 391.975 1000.93 
11 1 1 0.00999018 0.0210103 0.00997496 0 0 0 -0.00611449 0.0150807 0.00246967 -0.00300516 0.00138335 -0.000292449 -0.00611449 0.0150807 0.00246967 373.113 373.113 1000.89 
12 1 1 0.0383928 0.0384262 0.00997574 0 0 0 -0.00361622 0.0040332 -0.000525495 -0.000154005 9.51984e-05 -0.000820847 -0.00361622 0.0040332 -0.000525495 338.008 338.008 1000.8 
13 1 1 0.023449 0.0213228 0.00997931 0 0 0 -0.00354543 -0.00617472 0.000788143 -2.11671e-05 0.00153818 -0.00418983 -0.00354543 -0.00617472 0.000788143 372.029 372.029 1000.88 
14 1 1 0.089259 0.023298 0.00997731 0 0 0 0.00568686 0.00431646 -0.000406424 -0.000183628 -0.000192455 -0.00173497 0.00568686 0.00431646 -0.000406424 369.384 369.384 1000.88 
15 1 1 0.0780852 0.0221551 0.00997518 0 0 0 0.0244227 0.0141254 -0.000754054 1.33634e-05 0.000257533 0.000393363 0.0244227 0.0141254 -0.000754054 360.252 360.252 1000.86 
16 1 1 0.108624 0.0226723 0.00997659 0 0 0 -0.0145118 0.00596281 0.0007557 -0.000285324 0.000104955 -0.00127232 -0.0145118 0.00596281 0.0007557 364.775 364.775 1000.87 
17 1 1 0.112027 0.0414204 0.00997569 0 0 0 -0.016395 0.0202111 -2.92753e-05 -0.000643049 0.000175874 -8.58379e-05 -0.016395 0.0202111 -2.92753e-05 348.429 348.429 1000.83 
18 1 1 0.140407 0.0320461 0.00997556 0 0 0 -0.0160405 0.00546034 3.65846e-05 0.000304976 -0.000489119 -9.08293e-05 -0.0160405 0.00546034 3.65846e-05 355.188 355.188 1000.84 
19 1 1 0.121154 0.0220277 0.00997502 0 0 0 -0.0288499 0.00251554 -0.000676285 -5.40211e-05 0.000529263 0.000302861 -0.0288499 0.00251554 -0.000676285 370.051 370.051 1000.88 
20 1 1 0.158279 0.0226417 0.00997596 0 0 0 -0.0310582 -0.00656319 -6.55859e-05 -0.000147157 5.09375e-05 -0.000230094 -0.0310582 -0.00656319 -6.55859e-05 367.531 367.531 1000.87 
21 1 1 0.00999041 0.0284494 0.00997004 0 0 0 0.00761845 -0.00290696 -0.00475677 -0.00336966 -0.000128698 0.0040782 0.00761845 -0.00290696 -0.00475677 388.956 388.956 1000.92 
22 1 1 0.0357723 0.0263595 0.00997566 0 0 0 0.00662091 0.00335899 0.0013283 -6.1744e-06 9.15084e-05 -0.000266604 0.00662091 0.00335899 0.0013283 347.038 347.038 1000.82 
23 1 1 0.0724188 0.0467673 0.00997608 0 0 0 -0.0050809 0.00246781 -0.00016088 -0.000111901 0.000115055 -0.000215275 -0.0050809 0.00246781 -0.00016088 354.9 354.9 1000.84 
24 1 1 0.096505 0.0298331 0.00997631 0 0 0 0.00845088 0.00553251 -0.000264694 -0.000334093 2.8022e-05 -0.000110356 0.00845088 0.00553251 -0.000264694 353.986 353.986 1000.84 
25 1 1 0.117094 0.0371955 0.00997572 0 0 0 0.023025 -0.00491575 7.1273e-06 0.000213567 0.00011002 -7.67142e-05 0.023025 -0.00491575 7.1273e-06 356.724 356.724 1000.85 
26 1 1 0.114976 0.0229454 0.00997581 0 0 0 -0.0173667 -0.0125516 -0.000377695 -0.000332339 -0.000210561 -0.00025837 -0.0173667 -0.0125516 -0.000377695 366.697 366.697 1000.87 
27 1 1 0.140146 0.0442172 0.00997525 0 0 0 -0.0278175 -0.0141592 2.1704e-05 -0.000287985 -0.000197642 -7.8865e-05 -0.0278175 -0.0141592 2.1704e-05 360.331 360.331 1000.86 
28 1 1 0.11761 0.0303805 0.00997601 0 0 0 -0.0191432 0.0147431 -0.000105432 -6.56816e-05 0.000119117 -2.21764e-05 -0.0191432 0.0147431 -0.000105432 358.747 358.747 1000.85 
29 1 1 0.146321 0.0227724 0.00997516 0 0 0 -0.0307406 -0.000394984 3.90137e-05 -0.000273692 -1.62662e-05 1.01168e-05 -0.0307406 -0.000394984 3.90137e-05 371.314 371.314 1000.88 
30 1 1 0.153859 0.0321671 0.00997574 0 0 0 -0.0406472 -0.00456427 0.000104327 9.44123e-05 -0.00052279 -2.57243e-05 -0.0406472 -0.00456427 0.000104327 360.146 360.146 1000.86 
31 1 1 0.00998398 0.0382448 0.00997981 0 0 0 -0.00789102 -0.00324405 0.00595071 0.00341567 0.000613271 -0.00485065 -0.00789102 -0.00324405 0.00595071 371.542 371.542 1000.88 
32 1 1 0.0233988 0.0407543 0.00997708 0 0 0 -0.00645262 -0.00312205 0.00117622 -0.00045496 0.000770017 -0.00102655 -0.00645262 -0.00312205 0.00117622 364.691 364.691 1000.87 
33 1 1 0.0598877 0.0241705 0.00997616 0 0 0 0.0174004 -0.0193438 -0.000338459 -0.000765784 -0.000549642 -0.000442834 0.0174004 -0.0193438 -0.000338459 341.789 341.789 1000.81 
34 1 1 0.0683581 0.0371767 0.00997584 0 0 0 -0.0447868 -0.0126213 -0.000227777 -1.21964e-05 -0.000703724 -0.00027351 -0.0447868 -0.0126213 -0.000227777 336.928 336.928 1000.8 
35 1 1 0.0858053 0.0358843 0.00997592 0 0 0 0.0025436 -0.000316406 -7.47568e-05 1.16139e-05 5.80212e-05 -0.000125533 0.0025436 -0.000316406 -7.47568e-05 344.394 344.394 1000.82 
36 1 1 0.10717 0.0313745 0.00997512 0 0 0 0.00486913 0.00948835 -0.000157699 -6.52113e-06 -0.000186454 -9.82804e-05 0.00486913 0.00948835 -0.000157699 358.123 358.123 1000.85 
37 1 1 0.129002 0.0372766 0.00997546 0 0 0 -0.00231397 0.00282016 3.67015e-05 0.000394181 9.58614e-05 -5.04438e-05 -0.00231397 0.00282016 3.67015e-05 361.544 361.544 1000.86 
38 1 1 0.13644 0.0373245 0.00997557 0 0 0 -0.012295 -0.00578731 2.24418e-05 -0.000697071 0.000323368 -8.48029e-05 -0.012295 -0.00578731 2.24418e-05 363.812 363.812 1000.86 
39 1 1 0.161092 0.0373666 0.00997589 0 0 0 -0.00413311 0.00318736 0.000112934 -0.000436811 0.000455227 -7.2213e-06 -0.00413311 0.00318736 0.000112934 360.618 360.618 1000.86 
40 1 1 0.174601 0.038147 0.00997456 0 0 0 -0.0369843 0.0314673 0.000194788 -0.000369813 0.000451153 -7.07391e-05 -0.0369843 0.0314673 0.000194788 377.195 377.195 1000.9 
41 1 1 0.00997995 0.052436 0.00997994 0 0 0 -0.00806581 -0.0110619 0.0052064 0.00780027 0.000319265 -0.00581605 -0.00806581 -0.0110619 0.0052064 364.47 364.47 1000.87 
42 1 1 0.0447677 0.0651499 0.00997554 0 0 0 -0.00099602 0.0387088 5.25662e-05 -0.000794978 -0.000239462 0.000261314 -0.00099602 0.0387088 5.25662e-05 335.429 335.429 1000.8 
43 1 1 0.0616824 0.0537477 0.00997571 0 0 0 0.0152752 0.00658756 4.64388e-05 1.36497e-07 -0.000136716 -0.000407122 0.0152752 0.00658756 4.64388e-05 337.586 337.586 1000.8 
44 1 1 0.0778737 0.042809 0.00997629 0 0 0 -0.0235912 0.00804331 -0.000112739 -7.525e-05 0.000104305 -0.000127101 -0.0235912 0.00804331 -0.000112739 349.657 349.657 1000.83 
45 1 1 0.0900592 0.0473027 0.00997571 0 0 0 -0.000864062 -0.0154064 -0.00011119 -0.000116376 -5.6891e-05 -0.000325873 -0.000864062 -0.0154064 -0.00011119 353.121 353.121 1000.84 
46 1 1 0.104197 0.0497797 0.0099756 0 0 0 -0.0264721 0.00341336 -5.52299e-05 -0.000470686 0.000186192 -0.000231175 -0.0264721 0.00341336 -5.52299e-05 352.72 352.72 1000.84 
47 1 1 0.110528 0.0492881 0.00997606 0 0 0 -0.00444517 0.000490342 -3.20639e-05 0.00026789 -0.000151635 -0.000176182 -0.00444517 0.000490342 -3.20639e-05 350.761 350.761 1000.83 
48 1 1 0.134897 0.0506433 0.00997558 0 0 0 -0.0116953 -0.00824321 1.61806e-05 0.000374987 -0.000141943 -9.65623e-05 -0.0116953 -0.00824321 1.61806e-05 357.609 357.609 1000.85 
49 1 1 0.123168 0.0487274 0.00997565 0 0 0 -0.0155188 -0.000690091 -1.94986e-05 -0.000572109 0.000390819 -0.00015407 -0.0155188 -0.000690091 -1.94986e-05 358.165 358.165 1000.85 
50 1 1 0.159987 0.0513361 0.00997507 0 0 0 -0.00643652 0.00069727 0.000101568 -0.000369849 0.000342152 -7.65955e-05 -0.00643652 0.00069727 0.000101568 362.178 362.178 1000.86 
51 1 1 0.00999281 0.0616808 0.00997012 0 0 0 0.00747592 -0.00851784 -0.00504051 -0.00528934 0.000110848 0.00360496 0.00747592 -0.00851784 -0.00504051 367.361 367.361 1000.87 
52 1 1 0.025476 0.0524194 0.00997675 0 0 0 0.0110978 0.0318672 0.000789321 -0.000770149 -0.000242998 -0.00154772 0.0110978 0.0318672 0.000789321 351.303 351.303 1000.83 
53 1 1 0.0704234 0.059677 0.00997561 0 0 0 0.0234181 0.0303712 -0.000322145 -0.000514752 0.000597095 -0.000104708 0.0234181 0.0303712 -0.000322145 341.295 341.295 1000.81 
54 1 1 0.0908196 0.0592758 0.0099761 0 0 0 -0.00638997 0.0200086 -0.000123379 -0.000355337 0.000175608 -9.28514e-05 -0.00638997 0.0200086 -0.000123379 349.61 349.61 1000.83 
55 1 1 0.0953444 0.0552869 0.00997617 0 0 0 -0.0146084 -0.0124337 -6.89467e-05 -0.00011858 0.000125829 -9.30682e-05 -0.0146084 -0.0124337 -6.89467e-05 346.066 346.066 1000.82 
56 1 1 0.106884 0.069838 0.00997568 0 0 0 0.0251514 -0.020963 -0.000112681 0.000149423 -0.000175592 -0.000183119 0.0251514 -0.020963 -0.000112681 359.435 359.435 1000.85 
57 1 1 0.133978 0.0637417 0.00997585 0 0 0 -0.0102262 0.000383928 -1.24339e-05 -0.000681918 -0.000117673 -0.00014138 -0.0102262 0.000383928 -1.24339e-05 359.379 359.379 1000.85 
58 1 1 0.140395 0.0631754 0.00997571 0 0 0 -0.00954316 -0.023245 2.48428e-05 0.000226042 0.000315145 -8.21676e-05 -0.00954316 -0.023245 2.48428e-05 353.94 353.94 1000.84 
59 1 1 0.15393 0.0646942 0.00997519 0 0 0 -0.035411 -0.00686323 8.72513e-05 0.000548678 0.000651233 -4.21185e-05 -0.035411 -0.00686323 8.72513e-05 357.941 357.941 1000.85 
60 1 1 0.165574 0.0633938 0.00997554 0 0 0 -0.0467365 0.0182179 0.000152868 6.59664e-05 -0.000657882 -5.95305e-05 -0.0467365 0.0182179 0.000152868 363.653 363.653 1000.86 
61 1 1 0.00999022 0.0721437 0.00997327 0 0 0 0.00230543 0.00547729 -0.00233746 -0.00210874 -0.000157566 0.000877887 0.00230543 0.00547729 -0.00233746 373.149 373.149 1000.89 
62 1 1 0.0513566 0.057917 0.00997666 0 0 0 0.0149126 0.000599326 -0.000435629 -0.000608226 0.00103453 -0.000573655 0.0149126 0.000599326 -0.000435629 337.476 337.476 1000.8 
63 1 1 0.0829333 0.0629376 0.0099765 0 0 0 -0.0105263 -0.00751056 -8.33885e-05 -6.25531e-05 0.000211112 -0.000347644 -0.0105263 -0.00751056 -8.33885e-05 342.856 342.856 1000.81 
64 1 1 0.0941688 0.0665533 0.00997568 0 0 0 0.0127943 -0.00377593 -0.000186704 -0.000261031 0.000401945 -0.000173447 0.0127943 -0.00377593 -0.000186704 354.105 354.105 1000.84 
65 1 1 0.121953 0.0602832 0.00997579 0 0 0 -0.00690031 -0.00905084 -5.77974e-05 0.000248096 7.29406e-05 -0.000173482 -0.00690031 -0.00905084 -5.77974e-05 343.195 343.195 1000.82 
66 1 1 0.114471 0.0776296 0.00997615 0 0 0 -0.00123081 0.00155467 -5.62889e-06 -0.000707711 0.000215701 -0.000561379 -0.00123081 0.00155467 -5.62889e-06 373.56 373.56 1000.89 
67 1 1 0.140201 0.054681 0.00997505 0 0 0 -0.0172237 -0.00164714 2.85506e-05 0.000108334 0.000207395 -9.26133e-05 -0.0172237 -0.00164714 2.85506e-05 360.327 360.327 1000.86 
68 1 1 0.121187 0.0683873 0.0099756 0 0 0 -0.00344069 -0.00889418 -0.000107499 -0.000404973 0.000120026 -0.000146639 -0.00344069 -0.00889418 -0.000107499 349.46 349.46 1000.83 
69 1 1 0.145682 0.0769813 0.00997556 0 0 0 -0.0394038 -0.0067044 -0.000223128 -0.000242083 -0.000189167 -0.000266038 -0.0394038 -0.0067044 -0.000223128 371.105 371.105 1000.88 
70 1 1 0.155884 0.0726272 0.00997577 0 0 0 -0.0498018 0.00924129 8.53459e-05 -0.000164762 -0.000744595 -5.8776e-05 -0.0498018 0.00924129 8.53459e-05 364.055 364.055 1000.86 
71 1 1 0.00997834 0.0785948 0.00997912 0 0 0 -0.000697924 -0.0169223 0.00174719 0.0106363 0.00110172 -0.00424104 -0.000697924 -0.0169223 0.00174719 368.668 368.668 1000.88 
72 1 1 0.0329547 0.0653335 0.00997523 0 0 0 0.0117502 0.0022281 0.000792737 -0.000810039 -0.000484468 0.000605727 0.0117502 0.0022281 0.000792737 341.547 341.547 1000.81 
73 1 1 0.0325696 0.0776255 0.00997856 0 0 0 -0.00830152 -0.0266443 0.000257162 7.25214e-05 0.000855543 -0.00303676 -0.00830152 -0.0266443 0.000257162 333.276 333.276 1000.79 
74 1 1 0.0958963 0.0769342 0.00997589 0 0 0 0.00869351 0.00830993 -0.000217524 -5.24928e-05 0.000119794 -0.000339381 0.00869351 0.00830993 -0.000217524 358.897 358.897 1000.85 
75 1 1 0.0833145 0.0774176 0.00997625 0 0 0 0.00710015 -0.00792176 0.000704193 -0.000258233 0.000462435 -5.36252e-06 0.00710015 -0.00792176 0.000704193 349.49 349.49 1000.83 
76 1 1 0.108066 0.0768047 0.00997606 0 0 0 -0.026787 -0.00234045 -3.20166e-06 0.000215078 0.000562767 -0.000404775 -0.026787 -0.00234045 -3.20166e-06 364.08 364.08 1000.86 
77 1 1 0.110634 0.0596506 0.00997591 0 0 0 0.000765654 -0.00623475 -3.87869e-05 -3.63343e-05 0.000320546 -0.000140503 0.000765654 -0.00623475 -3.87869e-05 354.902 354.902 1000.84 
78 1 1 0.143811 0.0685885 0.00997562 0 0 0 -0.0291775 0.00742962 4.47264e-05 -6.79937e-05 0.000369229 -8.79182e-05 -0.0291775 0.00742962 4.47264e-05 351.005 351.005 1000.83 
79 1 1 0.119844 0.0768208 0.00997608 0 0 0 -0.0344456 -0.00781776 -5.46244e-05 -3.08521e-05 4.20571e-05 -0.000371334 -0.0344456 -0.00781776 -5.46244e-05 368.042 368.042 1000.87 
80 1 1 0.159604 0.0776335 0.0099753 0 0 0 -0.0267886 -0.00225062 -0.000356176 0.000105646 0.000885174 -0.000177597 -0.0267886 -0.00225062 -0.000356176 380.872 380.872 1000.9 
81 1 1 0.00998169 0.0900013 0.00996974 0 0 0 -0.00358473 -0.011423 -0.0102633 0.00830342 0.0116257 0.00623776 -0.00358473 -0.011423 -0.0102633 370.173 370.173 1000.88 
82 1 1 0.0358373 0.0900172 0.00998017 0 0 0 -0.0243052 0.00218558 -0.000500992 -0.00128959 -0.00315441 -0.00313845 -0.0243052 0.00218558 -0.000500992 341.396 341.396 1000.81 
83 1 1 0.029052 0.0900146 0.00997668 0 0 0 -0.0365453 -0.0037039 -0.00467972 0.000274252 6.39314e-05 0.000632799 -0.0365453 -0.0037039 -0.00467972 344.162 344.162 1000.82 
84 1 1 0.0776989 0.0900187 0.00998113 0 0 0 -0.0298456 -0.00319536 -0.0045664 0.000371934 -0.0041697 -0.00346661 -0.0298456 -0.00319536 -0.0045664 347.853 347.853 1000.83 
85 1 1 0.0831706 0.0900096 0.00997338 0 0 0 -0.0377427 0.00325417 0.00346247 -0.000815371 0.00505267 0.0040457 -0.0377427 0.00325417 0.00346247 358.68 358.68 1000.85 
86 1 1 0.102104 0.0900181 0.00998202 0 0 0 -0.0295422 0.00378257 0.00240892 -0.000965095 -0.00333669 -0.00442636 -0.0295422 0.00378257 0.00240892 357.219 357.219 1000.85 
87 1 1 0.115887 0.0900073 0.00997214 0 0 0 -0.0286641 0.00294745 0.00411932 -0.000484173 0.007307 0.00546046 -0.0286641 0.00294745 0.00411932 362.458 362.458 1000.86 
88 1 1 0.124958 0.0900093 0.00997364 0 0 0 -0.0232747 0.00497364 0.00552628 -0.000441591 0.00597011 0.00405545 -0.0232747 0.00497364 0.00552628 361.931 361.931 1000.86 
89 1 1 0.134487 0.0900208 0.00998334 0 0 0 -0.0392303 -0.000666331 -0.00186131 -0.000750623 -0.0059078 -0.00553028 -0.0392303 -0.000666331 -0.00186131 361.795 361.795 1000.86 
90 1 1 0.148339 0.0900094 0.00997194 0 0 0 -0.0463016 -0.00514595 -0.00350391 -0.000970215 0.00539819 0.0054917 -0.0463016 -0.00514595 -0.00350391 375.867 375.867 1000.89 
91 1 1 0.00997075 0.00998724 0.00997971 0 0 0 -0.0119188 -0.00100809 -0.000799996 0.0169953 -0.001476 -0.00340909 -0.0119188 -0.00100809 -0.000799996 379.544 379.544 1000.9 
92 1 1 0.0344038 0.00998836 0.00997594 0 0 0 -0.021922 0.000534696 -0.00118759 0.000374734 -0.00224533 0.0014967 -0.021922 0.000534696 -0.00118759 375.587 375.587 1000.89 
93 1 1 0.0482189 0.00998464 0.00997902 0 0 0 -0.0195475 -0.00125521 -0.00108055 -0.000374568 0.00173229 -0.00122816 -0.0195475 -0.00125521 -0.00108055 362.675 362.675 1000.86 
94 1 1 0.0576385 0.00998788 0.00997484 0 0 0 -0.0150121 0.00797419 -0.0072456 -0.000376472 -0.00174176 0.00238218 -0.0150121 0.00797419 -0.0072456 364.953 364.953 1000.87 
95 1 1 0.0854764 0.00999226 0.00997136 0 0 0 -0.0230616 0.00545641 -0.00356547 -0.000596449 -0.00645668 0.00613023 -0.0230616 0.00545641 -0.00356547 370.705 370.705 1000.88 
96 1 1 0.108216 0.00998453 0.00998117 0 0 0 -0.015382 -0.0071857 0.00692371 -0.000168533 0.00115829 -0.00296033 -0.015382 -0.0071857 0.00692371 378.343 378.343 1000.9 
97 1 1 0.11745 0.00998974 0.00997258 0 0 0 -0.0224005 0.00819233 -0.00703967 -0.000361168 -0.00446781 0.00541332 -0.0224005 0.00819233 -0.00703967 386.438 386.438 1000.92 
98 1 1 0.126535 0.00998445 0.00998048 0 0 0 -0.0160971 -0.0060862 0.00494284 -0.000518282 0.00120262 -0.00264099 -0.0160971 -0.0060862 0.00494284 384.323 384.323 1000.91 
99 1 1 0.13606 0.00998906 0.00997565 0 0 0 -0.0304513 -0.000689565 0.00139551 -0.000861756 -0.00316042 0.00249621 -0.0304513 -0.000689565 0.00139551 393.652 393.652 1000.93 
100 1 1 0.139764 0.00998209 0.00998267 0 0 0 -0.00991418 -0.00295195 0.00181906 0.00021454 0.00394036 -0.00442499 -0.00991418 -0.00295195 0.00181906 387.1 387.1 1000.92 
101 1 1 0.00998889 0.0210354 0.0230944 0 0 0 0.00124973 0.00669332 0.0161821 0.000261353 0.000315479 0.000420911 0.00124973 0.00669332 0.0161821 340.753 340.753 1000.81 
102 1 1 0.00998294 0.0229536 0.00997742 0 0 0 -0.00477618 -0.00725893 0.00209455 0.00413094 0.00128679 -0.0030157 -0.00477618 -0.00725893 0.00209455 377.533 377.533 1000.9 
103 1 1 0.0225151 0.025727 0.0240162 0 0 0 -0.0164002 -0.0154417 -0.0432874 -0.000199286 -4.07438e-05 0.000387752 -0.0164002 -0.0154417 -0.0432874 335.902 335.902 1000.8 
104 1 1 0.0779685 0.023132 0.0333485 0 0 0 0.0358373 0.017633 0.023594 0.000501103 2.438e-05 -0.00066829 0.0358373 0.017633 0.023594 227.976 227.976 1000.54 
105 1 1 0.121773 0.0409643 0.0512327 0 0 0 0.0198487 0.0189551 -0.0213822 -0.000158807 -0.000602991 -0.00036383 0.0198487 0.0189551 -0.0213822 108.686 108.686 1000.26 
106 1 1 0.134265 0.0226803 0.00997567 0 0 0 -0.0252818 0.00485446 0.00025586 0.000413309 -4.90555e-05 -0.000123439 -0.0252818 0.00485446 0.00025586 372.946 372.946 1000.89 
107 1 1 0.134631 0.0206928 0.0355035 0 0 0 0.0545575 0.00168803 -0.00896905 -0.000289594 0.000268917 -0.000523487 0.0545575 0.00168803 -0.00896905 245.43 245.43 1000.58 
108 1 1 0.14881 0.0347889 0.00997563 0 0 0 0.0101243 -0.00368973 4.47767e-05 -0.00110813 8.71607e-05 -8.83388e-05 0.0101243 -0.00368973 4.47767e-05 366.986 366.986 1000.87 
109 1 1 0.152354 0.0222708 0.0216833 0 0 0 0.01899 -0.0149114 0.0076717 0.000154969 -8.56473e-05 -0.000189956 0.01899 -0.0149114 0.0076717 293.633 293.633 1000.7 
110 1 1 0.177449 0.0225773 0.0099746 0 0 0 -0.0410578 0.00990334 0.000179846 -0.000167712 -0.000120986 0.000205621 -0.0410578 0.00990334 0.000179846 381.608 381.608 1000.91 
111 1 1 0.00998634 0.0336244 0.00997621 0 0 0 -0.00115285 -0.0114664 0.00170594 0.000765915 0.000359363 -0.0016698 -0.00115285 -0.0114664 0.00170594 384.491 384.491 1000.91 
112 1 1 0.0238782 0.0233465 0.0434569 0 0 0 -0.0165992 -0.00112005 -0.0264672 -0.000119183 -0.000920441 -0.000811639 -0.0165992 -0.00112005 -0.0264672 195.859 195.859 1000.47 
113 1 1 0.0482612 0.0299072 0.0099766 0 0 0 0.020089 0.00109523 -0.00067012 0.00014332 0.000159948 -0.00117833 0.020089 0.00109523 -0.00067012 344.179 344.179 1000.82 
114 1 1 0.0656713 0.0222731 0.00997587 0 0 0 0.0204218 -0.000850972 0.00101936 -0.000194739 0.000147804 -0.000431544 0.0204218 -0.000850972 0.00101936 356.058 356.058 1000.85 
115 1 1 0.0620503 0.0222041 0.036689 0 0 0 0.0137433 -0.00694884 0.0105491 -0.000147004 -0.000620725 -0.00160797 0.0137433 -0.00694884 0.0105491 224.587 224.587 1000.53 
116 1 1 0.105231 0.03804 0.00997562 0 0 0 0.0141147 -0.0164132 -0.000199829 9.12429e-05 -0.000413918 6.9753e-05 0.0141147 -0.0164132 -0.000199829 350.908 350.908 1000.83 
117 1 1 0.130519 0.0227271 0.0228708 0 0 0 -0.00224568 0.00788035 -0.0413527 -0.00029548 -0.000105927 -0.000172691 -0.00224568 0.00788035 -0.0413527 314.919 314.919 1000.75 
118 1 1 0.144693 0.0231014 0.0214705 0 0 0 0.0235562 0.0116033 0.0115248 -0.000140333 -0.000525247 -0.000295141 0.0235562 0.0116033 0.0115248 305.279 305.279 1000.73 
119 1 1 0.152039 0.0230156 0.00997555 0 0 0 -0.0421305 -0.0114503 0.000112663 -5.46158e-06 -2.45914e-05 -2.92961e-05 -0.0421305 -0.0114503 0.000112663 367.413 367.413 1000.87 
120 1 1 0.164841 0.0213487 0.0367332 0 0 0 0.0378019 0.0108698 -0.00492705 -9.5262e-06 0.000111247 -3.34903e-05 0.0378019 0.0108698 -0.00492705 232.735 232.735 1000.55 
121 1 1 0.00999012 0.042647 0.00997357 0 0 0 0.00478033 0.00319929 -0.00350214 -0.00278031 0.000626156 0.00144057 0.00478033 0.00319929 -0.00350214 373.404 373.404 1000.89 
122 1 1 0.0224081 0.0352655 0.0099769 0 0 0 0.00897795 0.00754211 0.00124757 -0.000386411 0.000256087 -0.000827569 0.00897795 0.00754211 0.00124757 370.896 370.896 1000.88 
123 1 1 0.0218146 0.025372 0.00997741 0 0 0 0.00776907 -0.00802737 0.000660005 0.000367569 0.000548157 -0.00205978 0.00776907 -0.00802737 0.000660005 375.143 375.143 1000.89 
124 1 1 0.0795253 0.0351606 0.00997598 0 0 0 -0.0194263 0.0175595 -0.000129729 -0.000226231 0.00021337 -0.00020927 -0.0194263 0.0175595 -0.000129729 345.174 345.174 1000.82 
125 1 1 0.0913173 0.0355457 0.0099755 0 0 0 -0.00578933 -0.00580742 -0.00011967 3.18149e-05 0.00025226 -7.0223e-05 -0.00578933 -0.00580742 -0.00011967 348.282 348.282 1000.83 
126 1 1 0.128851 0.0297586 0.00997611 0 0 0 -0.00977376 -0.00911943 4.7871e-05 -0.000256344 0.000151763 -3.59247e-05 -0.00977376 -0.00911943 4.7871e-05 359.361 359.361 1000.85 
127 1 1 0.167892 0.0408997 0.00997504 0 0 0 -0.0330765 0.00441208 0.000157803 0.000246187 -0.000236668 -4.20297e-05 -0.0330765 0.00441208 0.000157803 379.868 379.868 1000.9 
128 1 1 0.146101 0.0420052 0.00997599 0 0 0 -0.0130216 0.00444962 3.87229e-05 0.000148761 0.000266372 -8.55936e-05 -0.0130216 0.00444962 3.87229e-05 363.893 363.893 1000.86 
129 1 1 0.140425 0.0233738 0.00997535 0 0 0 -0.0429921 -0.00691265 0.000148547 -0.000355353 2.07177e-05 -0.000109251 -0.0429921 -0.00691265 0.000148547 360.128 360.128 1000.86 
130 1 1 0.182204 0.0323517 0.00997483 0 0 0 -0.0434507 -0.0094221 0.000218291 9.54801e-05 -8.50801e-05 -0.000123597 -0.0434507 -0.0094221 0.000218291 378.917 378.917 1000.9 
131 1 1 0.00998993 0.0475224 0.00997235 0 0 0 0.000756611 0.00245482 -0.000776437 -0.00259973 0.000490838 0.00216257 0.000756611 0.00245482 -0.000776437 370.348 370.348 1000.88 
132 1 1 0.0443834 0.0473954 0.00997597 0 0 0 0.0308369 0.0282715 0.000358324 -0.000671575 -0.000789294 -0.000800413 0.0308369 0.0282715 0.000358324 339.429 339.429 1000.81 
133 1 1 0.0465447 0.0537871 0.0099758 0 0 0 0.0129946 0.00372861 -0.000144903 -0.000137612 -0.000140514 -2.20137e-05 0.0129946 0.00372861 -0.000144903 331.53 331.53 1000.79 
134 1 1 0.0842259 0.0475721 0.00997596 0 0 0 -0.00572373 -0.0142602 -0.000118489 -0.000290468 -2.80843e-05 -7.65507e-05 -0.00572373 -0.0142602 -0.000118489 346.094 346.094 1000.82 
135 1 1 0.129435 0.0494282 0.00997547 0 0 0 -0.00910673 0.00762063 -4.8868e-06 -0.000235177 0.000203973 -0.000127463 -0.00910673 0.00762063 -4.8868e-06 356.337 356.337 1000.85 
136 1 1 0.103515 0.0530107 0.0225726 0 0 0 0.0529299 -0.00673405 -0.00192825 -0.000145968 -9.0377e-05 -0.00114618 0.0529299 -0.00673405 -0.00192825 291.812 291.812 1000.69 
137 1 1 0.135013 0.0437851 0.0209033 0 0 0 -0.00490268 -0.00316169 0.0235175 0.000204922 0.000324606 -1.22649e-05 -0.00490268 -0.00316169 0.0235175 282.856 282.856 1000.67 
138 1 1 0.152116 0.0490334 0.0099754 0 0 0 -0.0248993 -0.00081072 5.88302e-05 0.000158505 -0.000277837 -0.00010298 -0.0248993 -0.00081072 5.88302e-05 360.887 360.887 1000.86 
139 1 1 0.156048 0.0427252 0.00997566 0 0 0 -0.0318648 0.0044709 6.35967e-05 0.000262619 -0.000130029 -6.37848e-05 -0.0318648 0.0044709 6.35967e-05 360.441 360.441 1000.86 
140 1 1 0.180726 0.0540821 0.0215628 0 0 0 0.0645667 -0.00673229 -0.00264893 -0.000461556 -0.000107292 -8.15877e-05 0.0645667 -0.00673229 -0.00264893 299.877 299.877 1000.71 
141 1 1 0.00998528 0.0570363 0.0099783 0 0 0 -0.0074059 -0.00607582 0.00470629 0.0026142 0.000326939 -0.00439429 -0.0074059 -0.00607582 0.00470629 364.559 364.559 1000.87 
142 1 1 0.0238477 0.0575903 0.00997737 0 0 0 -0.00216772 -0.0114999 0.000919478 -0.00060631 0.000649022 -0.00148488 -0.00216772 -0.0114999 0.000919478 359.572 359.572 1000.85 
143 1 1 0.0227603 0.063504 0.00997635 0 0 0 -0.000991567 -0.0170239 -0.00242304 -0.000137653 -0.000497001 -0.00037475 -0.000991567 -0.0170239 -0.00242304 358.108 358.108 1000.85 
144 1 1 0.0860621 0.0700366 0.00997676 0 0 0 0.0161556 0.00720296 -5.97249e-06 9.99863e-05 0.000141831 -0.000470381 0.0161556 0.00720296 -5.97249e-06 339.663 339.663 1000.81 
145 1 1 0.100727 0.0655466 0.00997542 0 0 0 -0.0292044 0.0083756 -0.000113168 0.000176121 0.000366523 -0.000178111 -0.0292044 0.0083756 -0.000113168 342.87 342.87 1000.81 
146 1 1 0.130688 0.0706743 0.00997557 0 0 0 -0.00828683 0.00127419 1.68386e-05 -0.00024856 0.000184612 -0.000177919 -0.00828683 0.00127419 1.68386e-05 362.958 362.958 1000.86 
147 1 1 0.160239 0.058844 0.00997533 0 0 0 -0.0179958 0.00350196 0.000108351 -0.000573814 2.18488e-05 -5.83414e-05 -0.0179958 0.00350196 0.000108351 362.797 362.797 1000.86 
148 1 1 0.147738 0.0535829 0.00997547 0 0 0 -0.0165007 -0.00747455 3.9616e-05 -0.000299741 0.000132655 -0.000120364 -0.0165007 -0.00747455 3.9616e-05 368.463 368.463 1000.87 
149 1 1 0.139307 0.0773399 0.00997544 0 0 0 -0.0353323 -0.00298119 7.50877e-05 -4.51121e-05 7.78106e-05 -0.000351089 -0.0353323 -0.00298119 7.50877e-05 370.323 370.323 1000.88 
150 1 1 0.185983 0.0682354 0.00997532 0 0 0 -0.0142437 -0.00519845 0.000163375 -0.000305988 0.000498364 1.40399e-05 -0.0142437 -0.00519845 0.000163375 367.35 367.35 1000.87 
151 1 1 0.00998628 0.066139 0.00997598 0 0 0 0.00291167 -0.00492506 -0.00351189 0.00114314 0.000369789 -0.00223232 0.00291167 -0.00492506 -0.00351189 364.025 364.025 1000.86 
152 1 1 0.0231426 0.0759676 0.0294176 0 0 0 -0.0320128 -0.0255878 0.0106949 -0.000139232 0.000172833 -0.000441639 -0.0320128 -0.0255878 0.0106949 263.679 263.679 1000.63 
153 1 1 0.0532675 0.0793078 0.00997533 0 0 0 -0.0122603 -0.0295223 0.000123456 0.00010044 -0.000628725 0.00135549 -0.0122603 -0.0295223 0.000123456 325.055 325.055 1000.77 
154 1 1 0.0617104 0.0774343 0.00997414 0 0 0 0.00591379 0.0179867 -0.000278158 -0.000661624 0.00100554 0.00183019 0.00591379 0.0179867 -0.000278158 337.498 337.498 1000.8 
155 1 1 0.0548667 0.0782147 0.0285311 0 0 0 0.010606 -0.0270671 -0.00453713 -0.000313664 -0.000580073 3.2089e-05 0.010606 -0.0270671 -0.00453713 277.37 277.37 1000.66 
156 1 1 0.115357 0.063709 0.00997558 0 0 0 -0.0176261 -0.0168296 -5.37958e-05 -0.000514399 0.000651543 -0.000151574 -0.0176261 -0.0168296 -5.37958e-05 356.677 356.677 1000.85 
157 1 1 0.132626 0.0779449 0.0224575 0 0 0 0.0147213 -0.0237612 0.0204271 -8.55616e-05 3.58187e-05 -0.000562604 0.0147213 -0.0237612 0.0204271 277.529 277.529 1000.66 
158 1 1 0.151281 0.0781412 0.0221127 0 0 0 0.028789 -0.0191803 -0.00911138 -3.0603e-05 0.000227206 -0.000127704 0.028789 -0.0191803 -0.00911138 301.305 301.305 1000.72 
159 1 1 0.151676 0.0776446 0.00997554 0 0 0 -0.0319751 0.0027353 -0.000255469 -0.000607868 0.000564037 -8.81e-05 -0.0319751 0.0027353 -0.000255469 368.75 368.75 1000.88 
160 1 1 0.163002 0.0782336 0.0425433 0 0 0 0.0723764 0.009819 -0.0184517 -0.000725662 0.000169884 0.000120102 0.0723764 0.009819 -0.0184517 164.762 164.762 1000.39 
161 1 1 0.0099972 0.0776236 0.0214049 0 0 0 0.00293861 -0.0083163 -0.00778825 -0.00796499 0.00123922 -0.00160627 0.00293861 -0.0083163 -0.00778825 341.96 341.96 1000.81 
162 1 1 0.0100006 0.077102 0.00996546 0 0 0 -0.00372974 0.000491523 -0.0045629 -0.0211761 0.000624277 0.00949013 -0.00372974 0.000491523 -0.0045629 350.413 350.413 1000.83 
163 1 1 0.0230393 0.0682323 0.00997406 0 0 0 -0.0415433 -0.00690065 -0.00309174 7.41321e-05 0.00177025 0.00181154 -0.0415433 -0.00690065 -0.00309174 335.34 335.34 1000.8 
164 1 1 0.0830286 0.0619312 0.0419835 0 0 0 0.0145961 -0.0332514 -0.0332577 -0.000405273 -0.000261767 -0.000655807 0.0145961 -0.0332514 -0.0332577 215.975 215.975 1000.51 
165 1 1 0.118872 0.0675181 0.0450195 0 0 0 0.0352166 -0.0292039 -0.00365318 -0.000233817 -0.000219415 -0.000703346 0.0352166 -0.0292039 -0.00365318 169.276 169.276 1000.4 
166 1 1 0.133425 0.0774866 0.0099758 0 0 0 -0.0397172 0.0148194 0.00030942 -0.000370842 -0.000126957 -0.00035522 -0.0397172 0.0148194 0.00030942 371.443 371.443 1000.88 
167 1 1 0.132318 0.0761081 0.033507 0 0 0 0.0303402 0.000965677 0.0160041 -0.000283844 0.000421642 -0.000736623 0.0303402 0.000965677 0.0160041 235.384 235.384 1000.56 
168 1 1 0.150627 0.0609663 0.00997527 0 0 0 -0.0106979 -0.00340093 6.08672e-05 -0.000833883 0.000132921 -8.67753e-05 -0.0106979 -0.00340093 6.08672e-05 365.963 365.963 1000.87 
169 1 1 0.158401 0.0769673 0.0223228 0 0 0 0.0290163 0.00529849 0.00642326 -0.000652687 0.000293954 -0.000671399 0.0290163 0.00529849 0.00642326 304.098 304.098 1000.72 
170 1 1 0.179369 0.0768958 0.00997467 0 0 0 -0.0392392 -0.00206776 0.000306688 -0.000794743 0.00030219 0.000285585 -0.0392392 -0.00206776 0.000306688 381.444 381.444 1000.91 
171 1 1 0.00999056 0.0900153 0.00997715 0 0 0 -0.0106449 0.00485775 0.00828745 -0.000543329 -0.0023476 -0.00122461 -0.0106449 0.00485775 0.00828745 362.673 362.673 1000.86 
172 1 1 0.0217995 0.090013 0.0099758 0 0 0 -0.0170865 0.00289004 0.00398831 -0.000807043 0.000701141 0.00167846 -0.0170865 0.00289004 0.00398831 341.371 341.371 1000.81 