ITEM: TIMESTEP
196000
ITEM: NUMBER OF ATOMS
2655
ITEM: BOX BOUNDS ff ff ff
0 0.5
0 0.1
0 0.5
ITEM: ATOMS id type type x y z ix iy iz vx vy vz fx fy fz vx vy vz p p rho 
1 1 1 0.00998561 0.00998235 0.00997741 0 0 0 1.1446e-05 -0.002985 0.00412426 -0.00237996 0.00185445 -0.00270074 1.1446e-05 -0.002985 0.00412426 450.207 450.207 1001.07 
2 1 1 0.0415021 0.00997725 0.00998572 0 0 0 0.00192606 -0.00202465 0.00284649 -3.79441e-05 0.00638991 -0.00661784 0.00192606 -0.00202465 0.00284649 439.679 439.679 1001.04 
3 1 1 0.0369463 0.00998192 0.00998259 0 0 0 -0.00646312 -0.00468819 0.00589538 0.000680708 0.00241523 -0.00376791 -0.00646312 -0.00468819 0.00589538 445.148 445.148 1001.06 
4 1 1 0.0727413 0.0099885 0.00997522 0 0 0 -0.0161698 -0.00352138 0.00532354 0.000308052 -0.00457745 0.00410404 -0.0161698 -0.00352138 0.00532354 423.812 423.812 1001.01 
5 1 1 0.0772403 0.00997924 0.00998299 0 0 0 -0.0071607 0.00115626 -0.00136516 0.000348931 0.00426644 -0.00386868 -0.0071607 0.00115626 -0.00136516 420.566 420.566 1001 
6 1 1 0.0948863 0.00998234 0.00998138 0 0 0 -0.0253721 -0.00367202 0.00408852 0.000419744 0.00171106 -0.00235118 -0.0253721 -0.00367202 0.00408852 412.203 412.203 1000.98 
7 1 1 0.108213 0.00997905 0.00998401 0 0 0 -0.0182919 0.000647123 -0.000624493 9.79857e-05 0.00452706 -0.00491092 -0.0182919 0.000647123 -0.000624493 408.316 408.316 1000.97 
8 1 1 0.117015 0.00998503 0.00997791 0 0 0 -0.0233787 9.01282e-05 0.000485844 0.000184494 -0.00110555 0.00110954 -0.0233787 9.01282e-05 0.000485844 407.197 407.197 1000.97 
9 1 1 0.125896 0.0099857 0.00997669 0 0 0 -0.0183903 0.00332476 -0.00250807 0.000219272 -0.0020265 0.00267945 -0.0183903 0.00332476 -0.00250807 405.545 405.545 1000.96 
10 1 1 0.139206 0.00998704 0.00997567 0 0 0 -0.0411513 -0.000104857 0.00106492 7.13621e-05 -0.00317118 0.00312016 -0.0411513 -0.000104857 0.00106492 398.442 398.442 1000.95 
11 1 1 0.0099831 0.021105 0.00997353 0 0 0 -0.00421313 0.00816621 0.0030222 -2.08136e-05 -0.000304678 -0.001232 -0.00421313 0.00816621 0.0030222 439.678 439.678 1001.04 
12 1 1 0.037897 0.0361874 0.00997689 0 0 0 -0.000411337 -0.0354583 0.000157084 -0.000269232 8.73082e-05 0.000143224 -0.000411337 -0.0354583 0.000157084 404.261 404.261 1000.96 
13 1 1 0.0219988 0.0216979 0.00997761 0 0 0 -0.0107447 0.0110152 -0.00250029 0.000504191 0.000220839 -0.00109907 -0.0107447 0.0110152 -0.00250029 451.393 451.393 1001.07 
14 1 1 0.0861268 0.0222046 0.00997705 0 0 0 -0.0268607 0.0215777 -0.000996999 0.000120103 -4.04612e-05 9.54653e-05 -0.0268607 0.0215777 -0.000996999 408.066 408.066 1000.97 
15 1 1 0.0777349 0.0217543 0.0099758 0 0 0 -0.0155755 0.00636517 0.00042145 -1.27034e-05 0.000608259 0.000957686 -0.0155755 0.00636517 0.00042145 411.485 411.485 1000.98 
16 1 1 0.10359 0.022693 0.00997827 0 0 0 -0.0362632 -0.00549732 -0.000568734 1.13576e-07 0.000240258 -0.00103713 -0.0362632 -0.00549732 -0.000568734 400.951 400.951 1000.95 
17 1 1 0.109833 0.042036 0.00997677 0 0 0 -0.0178799 0.0158263 0.000281153 -0.000332088 0.000232976 -8.66603e-05 -0.0178799 0.0158263 0.000281153 386.099 386.099 1000.92 
18 1 1 0.137445 0.0300621 0.00997724 0 0 0 -0.0398021 -0.0115345 0.000216395 0.000158658 0.000176821 -4.23419e-05 -0.0398021 -0.0115345 0.000216395 389.798 389.798 1000.93 
19 1 1 0.115515 0.0233049 0.00997641 0 0 0 -0.0374577 -0.0155536 0.000258577 0.000344614 -0.000174767 0.000484908 -0.0374577 -0.0155536 0.000258577 395.786 395.786 1000.94 
20 1 1 0.151944 0.0222479 0.00997726 0 0 0 -0.0319893 0.00888217 0.000236401 7.84022e-06 0.000172707 5.14094e-05 -0.0319893 0.00888217 0.000236401 390.116 390.116 1000.93 
21 1 1 0.00999112 0.0284259 0.00996563 0 0 0 0.00540343 0.00532937 -0.0016215 -0.00766758 0.000314255 0.00673996 0.00540343 0.00532937 -0.0016215 437.932 437.932 1001.04 
22 1 1 0.0338807 0.0242594 0.00997731 0 0 0 -0.0105935 -0.0294912 0.000647191 0.000877536 -2.55221e-05 -0.00134136 -0.0105935 -0.0294912 0.000647191 422.702 422.702 1001 
23 1 1 0.0711528 0.0466691 0.00997714 0 0 0 0.00316155 0.000282262 0.000285758 0.000348812 -6.57311e-05 -3.28279e-05 0.00316155 0.000282262 0.000285758 399.613 399.613 1000.95 
24 1 1 0.0948062 0.0313369 0.00997724 0 0 0 -0.0249586 0.00525979 0.000408653 -0.000107894 -9.3859e-05 0.000225492 -0.0249586 0.00525979 0.000408653 393.114 393.114 1000.93 
25 1 1 0.115096 0.039109 0.00997658 0 0 0 -0.0316605 -0.00481561 0.000275074 0.000707845 -0.000421934 -0.000120652 -0.0316605 -0.00481561 0.000275074 386.032 386.032 1000.92 
26 1 1 0.109645 0.0222056 0.00997719 0 0 0 -0.0337223 0.0115194 -0.000200371 0.000297424 0.000108796 -0.000110806 -0.0337223 0.0115194 -0.000200371 397.432 397.432 1000.94 
27 1 1 0.137009 0.0415935 0.00997743 0 0 0 -0.0144305 -0.0199017 0.000214064 -0.000236803 0.00024973 -6.61803e-05 -0.0144305 -0.0199017 0.000214064 382.646 382.646 1000.91 
28 1 1 0.115602 0.032106 0.0099765 0 0 0 -0.00689457 0.00774882 0.000256015 -1.51548e-05 9.37124e-07 -3.99021e-05 -0.00689457 0.00774882 0.000256015 392.119 392.119 1000.93 
29 1 1 0.139855 0.0228225 0.00997683 0 0 0 -0.0266501 0.0100065 0.000282293 0.000272534 -0.000177979 -3.1415e-05 -0.0266501 0.0100065 0.000282293 395.327 395.327 1000.94 
30 1 1 0.150397 0.0306524 0.00997744 0 0 0 -0.0225241 -0.0029831 0.000281341 0.000123048 -0.000172123 -6.09574e-05 -0.0225241 -0.0029831 0.000281341 390.566 390.566 1000.93 
31 1 1 0.00997692 0.0386397 0.0099787 0 0 0 -0.00263988 0.00421897 0.00173065 0.00686048 -0.000592248 -0.00651512 -0.00263988 0.00421897 0.00173065 431.9 431.9 1001.03 
32 1 1 0.0222456 0.0401398 0.00997779 0 0 0 -0.000197638 -0.0111223 0.000298743 0.000142987 -0.000268892 -0.00134659 -0.000197638 -0.0111223 0.000298743 435.955 435.955 1001.03 
33 1 1 0.0593172 0.0218021 0.00997712 0 0 0 -0.0143979 -0.00508196 0.000134315 0.000199394 0.000235724 -0.000350513 -0.0143979 -0.00508196 0.000134315 415.748 415.748 1000.99 
34 1 1 0.0632308 0.0335689 0.0099766 0 0 0 -0.0261196 0.00553355 0.00035985 0.000439402 0.000681289 1.59922e-05 -0.0261196 0.00553355 0.00035985 406.653 406.653 1000.97 
35 1 1 0.0838724 0.0361395 0.00997687 0 0 0 -0.0117055 0.0174809 0.000483198 -9.78736e-05 0.000106314 -8.49585e-05 -0.0117055 0.0174809 0.000483198 398.859 398.859 1000.95 
36 1 1 0.106743 0.0306662 0.00997739 0 0 0 -0.0246399 0.00423111 0.000232035 0.000165739 -0.000105699 -8.35746e-06 -0.0246399 0.00423111 0.000232035 393.501 393.501 1000.93 
37 1 1 0.126095 0.0370113 0.00997716 0 0 0 -0.0240102 0.0072087 0.000251717 0.000382037 6.9156e-05 -8.57544e-05 -0.0240102 0.0072087 0.000251717 389.979 389.979 1000.93 
38 1 1 0.133451 0.0356996 0.00997726 0 0 0 -0.0166476 -0.00665782 0.000222809 0.000106005 -0.000178427 -5.78585e-05 -0.0166476 -0.00665782 0.000222809 387.048 387.048 1000.92 
39 1 1 0.157588 0.0379998 0.00997742 0 0 0 -0.0288028 0.000721437 0.000194467 -0.000421838 0.000454689 -5.65859e-05 -0.0288028 0.000721437 0.000194467 384.301 384.301 1000.91 
40 1 1 0.170614 0.040155 0.00997673 0 0 0 -0.0161284 -0.00128399 0.000151847 -0.000360055 0.000181804 -5.90695e-05 -0.0161284 -0.00128399 0.000151847 386.99 386.99 1000.92 
41 1 1 0.00997546 0.0526466 0.00998075 0 0 0 0.00041426 0.00338785 -0.000632243 0.00900863 -0.000319948 -0.00708199 0.00041426 0.00338785 -0.000632243 440.066 440.066 1001.04 
42 1 1 0.0412778 0.0640413 0.00997703 0 0 0 -0.0041628 -0.00692311 0.000373749 0.000178438 0.000349521 -8.76769e-05 -0.0041628 -0.00692311 0.000373749 399.665 399.665 1000.95 
43 1 1 0.0600245 0.0534769 0.00997695 0 0 0 -0.0127704 -0.00896763 0.000327227 0.000425991 -1.35047e-05 -0.000106647 -0.0127704 -0.00896763 0.000327227 400.443 400.443 1000.95 
44 1 1 0.0769268 0.0422618 0.00997709 0 0 0 -0.00646321 -0.00118669 0.000256273 0.000114395 6.91662e-05 -6.07981e-05 -0.00646321 -0.00118669 0.000256273 397.519 397.519 1000.94 
45 1 1 0.0887501 0.0466982 0.00997701 0 0 0 0.00327133 0.0144795 0.000201288 9.64285e-05 0.000281087 -6.13099e-05 0.00327133 0.0144795 0.000201288 393.053 393.053 1000.93 
46 1 1 0.100769 0.0502635 0.00997677 0 0 0 -0.0242557 -0.0036119 0.000225727 0.00012206 0.000156075 -6.0498e-05 -0.0242557 -0.0036119 0.000225727 388.196 388.196 1000.92 
47 1 1 0.10656 0.0486001 0.00997705 0 0 0 -0.0108609 -0.0143657 0.000247158 0.000759471 -0.000115644 -8.97818e-05 -0.0108609 -0.0143657 0.000247158 386.771 386.771 1000.92 
48 1 1 0.133381 0.0481551 0.00997718 0 0 0 -0.0191903 -0.00613944 0.00021809 -3.85388e-05 0.000280563 -7.78421e-05 -0.0191903 -0.00613944 0.00021809 381.117 381.117 1000.9 
49 1 1 0.119267 0.0495758 0.00997723 0 0 0 -0.0292039 -0.00924662 0.000237048 0.000416984 -0.000338979 -7.55271e-05 -0.0292039 -0.00924662 0.000237048 387.94 387.94 1000.92 
50 1 1 0.156268 0.0526967 0.00997709 0 0 0 -0.0133425 0.0105621 0.000164778 0.000158373 -0.000253542 -3.35083e-05 -0.0133425 0.0105621 0.000164778 384.399 384.399 1000.91 
51 1 1 0.00999225 0.0616304 0.00996685 0 0 0 0.00273984 -0.00580671 1.36555e-05 -0.00813678 0.00048972 0.00695333 0.00273984 -0.00580671 1.36555e-05 445.656 445.656 1001.06 
52 1 1 0.0248415 0.0514939 0.00997848 0 0 0 -0.0148294 -0.00849421 -3.64749e-05 -0.000553532 -0.000294461 -0.00110582 -0.0148294 -0.00849421 -3.64749e-05 428.689 428.689 1001.02 
53 1 1 0.0702787 0.0610167 0.00997753 0 0 0 -0.0231333 -0.00726109 0.000179082 -0.000138335 -0.00011837 -0.000100946 -0.0231333 -0.00726109 0.000179082 395.409 395.409 1000.94 
54 1 1 0.0873833 0.0592571 0.00997702 0 0 0 -0.0267409 0.00114394 0.000291657 0.000415853 -4.20386e-05 -5.68824e-05 -0.0267409 0.00114394 0.000291657 392.662 392.662 1000.93 
55 1 1 0.092035 0.0558664 0.00997723 0 0 0 0.00191863 0.0102463 0.000270277 0.000448803 -8.89537e-06 -7.24625e-05 0.00191863 0.0102463 0.000270277 389.337 389.337 1000.92 
56 1 1 0.106847 0.0684951 0.00997732 0 0 0 -0.0220981 0.0055036 0.000233128 3.5512e-05 0.000109314 -7.41386e-05 -0.0220981 0.0055036 0.000233128 393.927 393.927 1000.94 
57 1 1 0.131752 0.0619147 0.00997745 0 0 0 -0.0147489 -0.0319561 0.000187762 1.67547e-05 0.000215706 -5.21855e-05 -0.0147489 -0.0319561 0.000187762 385.402 385.402 1000.92 
58 1 1 0.13857 0.0628036 0.00997761 0 0 0 -0.0141968 0.00113714 0.000192064 7.67562e-05 0.000181217 -7.41098e-05 -0.0141968 0.00113714 0.000192064 383.602 383.602 1000.91 
59 1 1 0.151726 0.0652059 0.00997686 0 0 0 -0.0364293 -0.00418931 0.000195636 -0.000370144 0.000392708 -9.57868e-05 -0.0364293 -0.00418931 0.000195636 386.447 386.447 1000.92 
60 1 1 0.161239 0.0639343 0.00997717 0 0 0 -0.0321687 0.00377341 0.0001533 -0.000241658 0.000102202 -9.67943e-05 -0.0321687 0.00377341 0.0001533 383.733 383.733 1000.91 
61 1 1 0.00998575 0.0717651 0.00997112 0 0 0 -0.000391374 0.00431906 0.000788783 -0.00183251 -0.000309458 0.00201641 -0.000391374 0.00431906 0.000788783 446.63 446.63 1001.06 
62 1 1 0.0480008 0.0616241 0.00997715 0 0 0 -0.0258959 0.00883835 0.000182882 7.42746e-05 3.24028e-05 -2.51447e-05 -0.0258959 0.00883835 0.000182882 403.639 403.639 1000.96 
63 1 1 0.0820369 0.0637135 0.0099767 0 0 0 -0.0277051 0.00182774 0.000172875 -0.000245606 -0.000109857 -0.000103822 -0.0277051 0.00182774 0.000172875 397.802 397.802 1000.94 
64 1 1 0.0938307 0.0663128 0.00997722 0 0 0 -0.00956027 -0.000686809 0.000294945 -0.000477255 0.000393047 -1.22261e-05 -0.00956027 -0.000686809 0.000294945 397.014 397.014 1000.94 
65 1 1 0.120098 0.0614628 0.00997713 0 0 0 -0.0133808 0.00952039 0.00020979 0.00022343 -0.000172303 -8.18357e-05 -0.0133808 0.00952039 0.00020979 387.432 387.432 1000.92 
66 1 1 0.110848 0.0773933 0.00997744 0 0 0 -0.0246301 -0.000837408 -4.31147e-05 9.01028e-05 0.000235409 -0.00011028 -0.0246301 -0.000837408 -4.31147e-05 396.469 396.469 1000.94 
67 1 1 0.137818 0.0532522 0.00997728 0 0 0 -0.0107662 -0.0145215 0.000207245 0.000185943 -2.56921e-05 -7.26491e-05 -0.0107662 -0.0145215 0.000207245 380.395 380.395 1000.9 
68 1 1 0.119154 0.0674032 0.00997718 0 0 0 -0.0260347 0.00136004 0.000230982 1.78479e-06 5.10964e-06 -8.786e-06 -0.0260347 0.00136004 0.000230982 390.899 390.899 1000.93 
69 1 1 0.138902 0.0779019 0.00997694 0 0 0 -0.0291783 0.00337061 2.4373e-05 0.000448262 -0.000368692 -4.99172e-05 -0.0291783 0.00337061 2.4373e-05 394.585 394.585 1000.94 
70 1 1 0.149337 0.0718624 0.00997723 0 0 0 -0.0255959 -0.00243628 0.000190141 0.000112302 -3.0665e-05 -7.05327e-05 -0.0255959 -0.00243628 0.000190141 391.008 391.008 1000.93 
71 1 1 0.009974 0.0793669 0.0099772 0 0 0 0.00304799 -0.00957587 -0.00318579 0.00933725 -0.000454853 -0.00391382 0.00304799 -0.00957587 -0.00318579 449.082 449.082 1001.07 
72 1 1 0.0282147 0.0599805 0.00997713 0 0 0 -0.0104236 -0.0172048 0.000922697 0.000249194 0.000140217 0.000233258 -0.0104236 -0.0172048 0.000922697 425.136 425.136 1001.01 
73 1 1 0.0338862 0.0772271 0.0099771 0 0 0 0.0132746 -0.0147739 -0.00132634 -0.000252851 9.31245e-05 -0.00100848 0.0132746 -0.0147739 -0.00132634 416.319 416.319 1000.99 
74 1 1 0.0940664 0.0775234 0.00997721 0 0 0 -0.0158059 -0.00702754 0.000157828 8.37904e-05 -0.000308554 -1.66344e-05 -0.0158059 -0.00702754 0.000157828 401.196 401.196 1000.95 
75 1 1 0.0817388 0.0774509 0.00997761 0 0 0 -0.0188949 0.00230849 0.000622943 -0.000479694 9.95141e-05 -0.00100095 -0.0188949 0.00230849 0.000622943 401.668 401.668 1000.95 
76 1 1 0.10472 0.0774331 0.00997756 0 0 0 -0.0250235 0.012151 0.000171997 0.000577425 -7.72151e-05 -0.000162545 -0.0250235 0.012151 0.000171997 400.444 400.444 1000.95 
77 1 1 0.109525 0.0571659 0.0099772 0 0 0 -0.00642769 0.0083949 0.00023421 -0.000215425 0.000756569 -0.000101509 -0.00642769 0.0083949 0.00023421 388.022 388.022 1000.92 
78 1 1 0.138963 0.0700095 0.00997729 0 0 0 -0.022523 0.0109444 0.000183253 0.000137143 -3.66337e-05 -8.81975e-05 -0.022523 0.0109444 0.000183253 390.449 390.449 1000.93 
79 1 1 0.116388 0.0761684 0.00997721 0 0 0 -0.013367 -0.00865163 2.35632e-05 0.000174739 1.39291e-05 -1.88393e-05 -0.013367 -0.00865163 2.35632e-05 396.202 396.202 1000.94 
80 1 1 0.152907 0.0779642 0.00997667 0 0 0 -0.026713 0.00122268 -0.000101531 0.000133183 2.79216e-05 0.000195493 -0.026713 0.00122268 -0.000101531 389.119 389.119 1000.92 
81 1 1 0.00997476 0.0900069 0.00997115 0 0 0 0.00454402 0.00617562 0.00264407 0.00913347 0.00957821 0.00427629 0.00454402 0.00617562 0.00264407 448.892 448.892 1001.07 
82 1 1 0.0330694 0.0900192 0.0099812 0 0 0 -0.0204241 -0.00279645 -0.00233794 8.19661e-05 -0.00295362 -0.00173923 -0.0204241 -0.00279645 -0.00233794 447.299 447.299 1001.06 
83 1 1 0.0276838 0.0900119 0.00997503 0 0 0 0.000847172 -0.00369812 -0.00222369 0.000104295 0.00461248 0.00481611 0.000847172 -0.00369812 -0.00222369 455.56 455.56 1001.08 
84 1 1 0.0729362 0.0900175 0.00997928 0 0 0 -0.00222526 -0.00476092 -0.00431866 0.000186153 -0.000747782 7.51124e-05 -0.00222526 -0.00476092 -0.00431866 423.928 423.928 1001.01 
85 1 1 0.0775192 0.090015 0.00997827 0 0 0 -0.0325251 0.00408637 0.00530648 0.000293622 0.00159877 0.00107079 -0.0325251 0.00408637 0.00530648 422.723 422.723 1001 
86 1 1 0.095478 0.0900214 0.00998415 0 0 0 -0.0360204 -0.00010441 -0.000214694 0.000302205 -0.00476721 -0.00491464 -0.0360204 -0.00010441 -0.000214694 416.25 416.25 1000.99 
87 1 1 0.109157 0.0900138 0.00997731 0 0 0 -0.0292406 0.00578595 0.00686568 0.000131552 0.00279323 0.00197198 -0.0292406 0.00578595 0.00686568 413.695 413.695 1000.98 
88 1 1 0.118038 0.0900159 0.00997978 0 0 0 -0.0330993 0.00588164 0.00661393 0.000136472 0.000402734 -0.00038202 -0.0330993 0.00588164 0.00661393 407.133 407.133 1000.97 
89 1 1 0.127043 0.0900193 0.00998174 0 0 0 -0.0384737 -0.00460355 -0.00472973 0.00058361 -0.00306074 -0.00281995 -0.0384737 -0.00460355 -0.00472973 401.003 401.003 1000.95 
90 1 1 0.140523 0.090011 0.00997272 0 0 0 -0.0465572 0.000224208 0.00111264 0.000484808 0.0060073 0.00615235 -0.0465572 0.000224208 0.00111264 394.481 394.481 1000.94 
91 1 1 0.00998136 0.00998502 0.00997694 0 0 0 0.00846504 -0.000553892 -0.00444469 0.00183506 -0.00081589 -0.00223897 0.00846504 -0.000553892 -0.00444469 452.951 452.951 1001.07 
92 1 1 0.0329229 0.00998537 0.00997781 0 0 0 -0.0221344 0.00262283 -0.000538199 0.000617213 -0.000954234 0.00102369 -0.0221344 0.00262283 -0.000538199 453.864 453.864 1001.08 
93 1 1 0.0459057 0.00998198 0.00997979 0 0 0 -0.0218074 0.002103 -0.00111148 0.000507742 0.00127543 -0.000567673 -0.0218074 0.002103 -0.00111148 435.952 435.952 1001.03 
94 1 1 0.0549101 0.0099897 0.00997146 0 0 0 -0.00785877 0.00469705 -0.00299873 0.00034315 -0.00668302 0.00741388 -0.00785877 0.00469705 -0.00299873 431.806 431.806 1001.02 
95 1 1 0.0817334 0.00999163 0.00997114 0 0 0 -0.0154997 -0.000413475 0.00239959 0.000447695 -0.00822654 0.00825871 -0.0154997 -0.000413475 0.00239959 421.615 421.615 1001 
96 1 1 0.103775 0.00997859 0.00998523 0 0 0 -0.0140841 -0.00260604 0.00257853 7.3993e-05 0.00516906 -0.00605208 -0.0140841 -0.00260604 0.00257853 407.043 407.043 1000.97 
97 1 1 0.112631 0.00999126 0.00997119 0 0 0 -0.0189173 0.00240718 -0.000914086 0.000432264 -0.00748157 0.0078556 -0.0189173 0.00240718 -0.000914086 411.455 411.455 1000.98 
98 1 1 0.121484 0.00997937 0.00998403 0 0 0 -0.0203205 -0.00248793 0.00256312 -7.27185e-06 0.00434356 -0.00468529 -0.0203205 -0.00248793 0.00256312 403.976 403.976 1000.96 
99 1 1 0.130405 0.00998528 0.00997776 0 0 0 -0.0279159 -0.00158947 0.00249982 0.00031608 -0.00161142 0.00143893 -0.0279159 -0.00158947 0.00249982 406.011 406.011 1000.96 
100 1 1 0.13454 0.00997964 0.00998346 0 0 0 -0.020521 0.00095853 -0.00103042 0.000478961 0.00415699 -0.00419475 -0.020521 0.00095853 -0.00103042 401.293 401.293 1000.95 
101 1 1 0.00999083 0.0227956 0.0251286 0 0 0 0.00212222 0.00568489 0.00104253 -0.000378557 0.00051335 -0.000698006 0.00212222 0.00568489 0.00104253 395.391 395.391 1000.94 
102 1 1 0.0099788 0.0237857 0.00997623 0 0 0 -0.000208561 -0.00274068 -0.000437957 0.00440511 -0.000558968 -0.00385539 -0.000208561 -0.00274068 -0.000437957 436.02 436.02 1001.03 
103 1 1 0.0249288 0.0242331 0.0226601 0 0 0 0.00402935 -0.0107175 0.0210212 0.000111398 0.000194211 -0.000105953 0.00402935 -0.0107175 0.0210212 315.993 315.993 1000.75 
104 1 1 0.0849336 0.0228506 0.0346124 0 0 0 0.0318614 -0.0106901 -0.0152708 0.000325751 6.47942e-05 -8.20416e-05 0.0318614 -0.0106901 -0.0152708 237.568 237.568 1000.56 
105 1 1 0.129525 0.0402748 0.0495433 0 0 0 0.0638163 0.010526 -0.000804182 -0.000100779 0.000199026 -7.64876e-05 0.0638163 0.010526 -0.000804182 149.099 149.099 1000.35 
106 1 1 0.127538 0.0225643 0.00997709 0 0 0 -0.0327378 -0.0040684 0.000334236 0.000337277 0.00040308 -2.54873e-05 -0.0327378 -0.0040684 0.000334236 392.939 392.939 1000.93 
107 1 1 0.14317 0.0220067 0.0344735 0 0 0 0.0402512 -0.00810107 -0.00868139 -0.000108607 8.86906e-05 -1.6386e-05 0.0402512 -0.00810107 -0.00868139 241.774 241.774 1000.57 
108 1 1 0.145868 0.0345191 0.00997672 0 0 0 -0.00550786 -0.0119359 0.000214437 -0.000285756 0.000223663 -5.71272e-05 -0.00550786 -0.0119359 0.000214437 387.289 387.289 1000.92 
109 1 1 0.15743 0.0232343 0.0221276 0 0 0 0.0291514 0.0115659 -0.00243308 0.000378831 -0.000132096 6.93922e-05 0.0291514 0.0115659 -0.00243308 314.72 314.72 1000.75 
110 1 1 0.170061 0.0227728 0.009977 0 0 0 -0.0322626 -0.0168449 0.000237148 1.35337e-05 -0.000182755 1.98178e-05 -0.0322626 -0.0168449 0.000237148 391.038 391.038 1000.93 
111 1 1 0.00998293 0.0338045 0.00997317 0 0 0 0.000821736 0.0052993 0.000188781 0.000918053 0.000203449 -0.00124722 0.000821736 0.0052993 0.000188781 432.19 432.19 1001.03 
112 1 1 0.0243155 0.0224088 0.0409067 0 0 0 0.0138932 -0.00493433 0.00109322 -0.000207601 0.000214034 0.000555467 0.0138932 -0.00493433 0.00109322 230.55 230.55 1000.55 
113 1 1 0.0502467 0.0310752 0.00997661 0 0 0 -0.00429362 0.0175164 0.00011565 0.000183003 -0.000120114 0.00013831 -0.00429362 0.0175164 0.00011565 403.725 403.725 1000.96 
114 1 1 0.0668274 0.0223307 0.00997785 0 0 0 -0.0239413 -0.00823228 0.000845601 0.000160885 0.000186827 -0.00116627 -0.0239413 -0.00823228 0.000845601 408.797 408.797 1000.97 
115 1 1 0.0665823 0.0226289 0.0359586 0 0 0 0.0455681 -0.00153536 -0.00711384 7.17299e-05 -0.000615901 -9.68078e-05 0.0455681 -0.00153536 -0.00711384 229.238 229.238 1000.54 
116 1 1 0.103506 0.0367576 0.00997707 0 0 0 -0.0160849 -0.021567 0.000322566 0.000532155 0.000200377 4.12801e-05 -0.0160849 -0.021567 0.000322566 387.671 387.671 1000.92 
117 1 1 0.134073 0.0228811 0.0220263 0 0 0 0.0429098 -0.00829864 -0.0068977 0.000250294 0.000113843 2.23455e-05 0.0429098 -0.00829864 -0.0068977 311.956 311.956 1000.74 
118 1 1 0.150181 0.0211279 0.023692 0 0 0 0.0460937 0.00825169 -0.000104112 2.66986e-05 0.000413967 -0.000672568 0.0460937 0.00825169 -0.000104112 303.823 303.823 1000.72 
119 1 1 0.145883 0.0224884 0.00997725 0 0 0 -0.0497759 -0.0176719 0.000386508 3.27771e-05 -0.000337654 -0.00012339 -0.0497759 -0.0176719 0.000386508 390.231 390.231 1000.93 
120 1 1 0.170875 0.0229116 0.0367978 0 0 0 0.0358203 0.00210828 -0.0130755 -0.000218312 0.000163313 -0.000388167 0.0358203 0.00210828 -0.0130755 225.898 225.898 1000.54 
121 1 1 0.00998738 0.0430614 0.00996885 0 0 0 0.00368217 0.0064792 -0.000848475 -0.00380346 -0.000264542 0.00372212 0.00368217 0.0064792 -0.000848475 439.375 439.375 1001.04 
122 1 1 0.02313 0.034089 0.00997739 0 0 0 0.00980716 0.00702572 0.000527959 -5.03314e-05 0.000425676 -0.000585721 0.00980716 0.00702572 0.000527959 437.364 437.364 1001.04 
123 1 1 0.0221317 0.0271644 0.00997668 0 0 0 -0.00411068 0.00570168 -0.000766615 0.000204308 0.000304806 5.71985e-05 -0.00411068 0.00570168 -0.000766615 442.844 442.844 1001.05 
124 1 1 0.076001 0.0337761 0.00997692 0 0 0 -0.0285149 -0.0140356 0.000361663 0.000633868 0.000351689 -7.97413e-05 -0.0285149 -0.0140356 0.000361663 401.974 401.974 1000.95 
125 1 1 0.0891544 0.0374852 0.00997718 0 0 0 -0.024335 0.00862223 0.000465972 0.000699657 -0.000403557 -1.28069e-05 -0.024335 0.00862223 0.000465972 395.327 395.327 1000.94 
126 1 1 0.124799 0.0305144 0.00997719 0 0 0 -0.0373249 0.00267082 0.000286854 -4.31774e-06 -0.000460577 -6.89747e-05 -0.0373249 0.00267082 0.000286854 393.545 393.545 1000.93 
127 1 1 0.164122 0.0421982 0.00997691 0 0 0 -0.0177258 0.0133146 0.000158406 0.000303527 -0.000177164 -4.7845e-05 -0.0177258 0.0133146 0.000158406 381.883 381.883 1000.91 
128 1 1 0.143186 0.0415117 0.00997734 0 0 0 -0.0240239 -0.00857344 0.00020587 0.00051257 -0.000217288 -5.60324e-05 -0.0240239 -0.00857344 0.00020587 384.345 384.345 1000.91 
129 1 1 0.133584 0.0223322 0.00997692 0 0 0 -0.0469375 -0.00293448 0.000249436 0.000231164 0.000214755 -9.6462e-05 -0.0469375 -0.00293448 0.000249436 396.078 396.078 1000.94 
130 1 1 0.175962 0.0315452 0.00997707 0 0 0 -0.0363912 0.000474267 0.000123237 -0.000175347 0.00017734 -0.000108674 -0.0363912 0.000474267 0.000123237 389.223 389.223 1000.92 
131 1 1 0.00998652 0.0478913 0.00997109 0 0 0 0.00188484 0.00179331 0.000743995 -0.00231637 9.57914e-05 0.0022301 0.00188484 0.00179331 0.000743995 441.384 441.384 1001.05 
132 1 1 0.0447779 0.0482613 0.00997763 0 0 0 -0.0293958 0.0135589 0.000222786 -0.000171862 -0.000234253 -0.000123864 -0.0293958 0.0135589 0.000222786 409.248 409.248 1000.97 
133 1 1 0.0491383 0.0541315 0.00997734 0 0 0 -0.0126274 0.0095494 0.000329679 0.00019322 0.000188189 -2.59628e-05 -0.0126274 0.0095494 0.000329679 406.064 406.064 1000.96 
134 1 1 0.0824135 0.0481114 0.00997695 0 0 0 -0.019742 0.00262315 0.000270982 0.000406403 -0.000228679 -3.81949e-05 -0.019742 0.00262315 0.000270982 396.376 396.376 1000.94 
135 1 1 0.127035 0.0497658 0.00997713 0 0 0 -0.0222946 0.00572177 0.000215399 -2.50967e-05 0.000255217 -7.20242e-05 -0.0222946 0.00572177 0.000215399 384.266 384.266 1000.91 
136 1 1 0.110283 0.0538444 0.0229615 0 0 0 0.0127121 -0.00285791 0.00483407 -0.000219842 -0.000101779 -0.000364409 0.0127121 -0.00285791 0.00483407 290.262 290.262 1000.69 
137 1 1 0.138584 0.0468039 0.0230699 0 0 0 0.0419216 0.0180222 0.0144029 -4.74873e-05 -4.36502e-06 -0.000316595 0.0419216 0.0180222 0.0144029 295.771 295.771 1000.7 
138 1 1 0.150014 0.0492623 0.00997699 0 0 0 -0.0289661 0.00437114 0.000196913 -0.000341389 4.24886e-05 -5.14321e-05 -0.0289661 0.00437114 0.000196913 379.083 379.083 1000.9 
139 1 1 0.151941 0.0423556 0.00997686 0 0 0 -0.0385951 -0.00583748 0.000184016 0.000384238 -0.000464241 -5.4844e-05 -0.0385951 -0.00583748 0.000184016 382.383 382.383 1000.91 
140 1 1 0.190178 0.0522953 0.0221867 0 0 0 0.0382922 -0.0101194 0.00325911 8.53164e-05 -2.79108e-05 -0.000168068 0.0382922 -0.0101194 0.00325911 311.02 311.02 1000.74 
141 1 1 0.00997941 0.0573848 0.00997819 0 0 0 -0.00179565 0.00467568 0.00152752 0.00478562 -0.000184694 -0.00441554 -0.00179565 0.00467568 0.00152752 440.778 440.778 1001.05 
142 1 1 0.0222986 0.0570346 0.00997773 0 0 0 -0.00607478 0.00169283 0.000251326 -0.000832993 0.000233256 -0.00071111 -0.00607478 0.00169283 0.000251326 435.404 435.404 1001.03 
143 1 1 0.0223274 0.0648471 0.00997483 0 0 0 -0.0118348 0.00231534 0.000603457 8.64685e-05 -0.000269162 0.0020043 -0.0118348 0.00231534 0.000603457 430.118 430.118 1001.02 
144 1 1 0.0858898 0.0701445 0.00997716 0 0 0 -0.00784746 -0.00401905 0.000116008 0.00024526 -3.65513e-05 -0.000196113 -0.00784746 -0.00401905 0.000116008 399.338 399.338 1000.95 
145 1 1 0.0994286 0.0653967 0.00997753 0 0 0 -0.0273888 -0.00871858 0.000262831 0.000314254 5.12315e-05 -7.5298e-05 -0.0273888 -0.00871858 0.000262831 395.768 395.768 1000.94 
146 1 1 0.12807 0.0685344 0.0099771 0 0 0 -0.0134879 -0.0167722 0.000203296 0.0002519 7.12176e-05 -7.0468e-05 -0.0134879 -0.0167722 0.000203296 388.94 388.94 1000.92 
147 1 1 0.154012 0.0599047 0.0099769 0 0 0 -0.0196416 -0.0111134 0.000183913 0.000535438 -0.000292415 -6.49576e-05 -0.0196416 -0.0111134 0.000183913 384.95 384.95 1000.91 
148 1 1 0.144259 0.0521389 0.00997729 0 0 0 -0.0260812 -0.0091478 0.000202205 0.000245209 0.000180506 -5.52266e-05 -0.0260812 -0.0091478 0.000202205 380.334 380.334 1000.9 
149 1 1 0.13327 0.0772863 0.00997738 0 0 0 -0.034501 -0.0209333 9.61861e-05 2.9401e-05 0.000343809 -0.000222428 -0.034501 -0.0209333 9.61861e-05 394.941 394.941 1000.94 
150 1 1 0.181103 0.0696483 0.00997724 0 0 0 -0.0214911 0.00922845 9.38396e-05 -0.000193492 -8.24033e-05 -8.39319e-05 -0.0214911 0.00922845 9.38396e-05 384.806 384.806 1000.91 
151 1 1 0.00998495 0.0661836 0.00997253 0 0 0 0.00189517 0.00472919 -0.00163851 -0.000938426 0.000196707 0.000946575 0.00189517 0.00472919 -0.00163851 442.861 442.861 1001.05 
152 1 1 0.0250538 0.0745269 0.0318099 0 0 0 -0.0126812 0.00281299 -0.00263394 -0.00112667 -0.000345563 4.96773e-05 -0.0126812 0.00281299 -0.00263394 275.97 275.97 1000.66 
153 1 1 0.0511249 0.0781259 0.00997699 0 0 0 0.0132059 0.00229262 0.00148546 0.000335261 0.000173064 -0.000327861 0.0132059 0.00229262 0.00148546 414.545 414.545 1000.98 
154 1 1 0.0617057 0.0780644 0.0099766 0 0 0 0.0158157 0.00240692 0.00186881 -0.000586512 -0.000346466 1.07638e-05 0.0158157 0.00240692 0.00186881 410.548 410.548 1000.97 
155 1 1 0.0584629 0.0770378 0.0285945 0 0 0 0.0270643 -0.00136905 0.00281474 0.000114493 -0.000574364 0.000154506 0.0270643 -0.00136905 0.00281474 285.614 285.614 1000.68 
156 1 1 0.111433 0.0643141 0.00997741 0 0 0 -0.0353314 0.00513062 0.000224836 0.000194299 -0.000161938 -6.37043e-05 -0.0353314 0.00513062 0.000224836 391.287 391.287 1000.93 
157 1 1 0.134431 0.0779353 0.0226455 0 0 0 -0.0024192 -0.00274017 0.00427748 0.000378801 -0.000147165 0.000202009 -0.0024192 -0.00274017 0.00427748 308.514 308.514 1000.73 
158 1 1 0.155893 0.0777309 0.0217514 0 0 0 0.0231806 0.000308111 -0.00387461 0.000146649 -0.000249945 0.000492507 0.0231806 0.000308111 -0.00387461 318.616 318.616 1000.76 
159 1 1 0.145776 0.0780725 0.00997706 0 0 0 -0.0408376 0.0035767 0.000133354 0.000201983 6.73579e-05 7.5675e-05 -0.0408376 0.0035767 0.000133354 392.707 392.707 1000.93 
160 1 1 0.171749 0.0789647 0.0434298 0 0 0 0.0301537 -0.012355 0.0106544 -0.000223212 -0.00043211 -0.000522168 0.0301537 -0.012355 0.0106544 179.516 179.516 1000.43 
161 1 1 0.00999335 0.0774482 0.0203565 0 0 0 -0.0023366 -0.00320844 0.0162278 -0.00582093 0.000441945 0.00100498 -0.0023366 -0.00320844 0.0162278 390.376 390.376 1000.93 
162 1 1 0.00999081 0.0762386 0.00996592 0 0 0 -0.00702668 0.00962854 0.00772399 -0.0071479 0.000232792 0.00742638 -0.00702668 0.00962854 0.00772399 451.699 451.699 1001.07 
163 1 1 0.0230976 0.0706127 0.00997402 0 0 0 -0.0134878 0.0250666 0.00136164 -0.000237371 -9.18377e-05 0.00304048 -0.0134878 0.0250666 0.00136164 425.955 425.955 1001.01 
164 1 1 0.0846427 0.0591342 0.0405234 0 0 0 0.0286348 -0.0124567 -0.00567614 0.000644043 -1.05493e-05 -5.02658e-05 0.0286348 -0.0124567 -0.00567614 216.692 216.692 1000.52 
165 1 1 0.123343 0.0651093 0.0437981 0 0 0 0.0295021 0.0105976 0.00542657 0.000500451 -0.000137124 0.000217016 0.0295021 0.0105976 0.00542657 171.878 171.878 1000.41 
166 1 1 0.127313 0.07643 0.00997768 0 0 0 -0.0269141 -0.00561108 0.000168106 0.000349527 0.000456674 -0.000348891 -0.0269141 -0.00561108 0.000168106 393.759 393.759 1000.93 
167 1 1 0.140862 0.0775348 0.0332165 0 0 0 0.055839 0.0116974 -0.00241675 -0.000220545 -0.000254399 -5.0594e-05 0.055839 0.0116974 -0.00241675 238.347 238.347 1000.57 
168 1 1 0.144752 0.0611997 0.00997736 0 0 0 -0.0288473 0.00574899 0.000201655 0.000464838 -0.000205326 -7.50542e-05 -0.0288473 0.00574899 0.000201655 383.607 383.607 1000.91 
169 1 1 0.164777 0.0777474 0.0231246 0 0 0 0.0556266 -0.0147239 0.0147438 -0.000350533 0.000199108 -0.000453692 0.0556266 -0.0147239 0.0147438 299.851 299.851 1000.71 
170 1 1 0.17347 0.0781424 0.00997686 0 0 0 -0.0532131 0.00110605 0.000267908 0.000398088 0.000132532 -3.40056e-05 -0.0532131 0.00110605 0.000267908 392.713 392.713 1000.93 
171 1 1 0.00998037 0.0900176 0.00998045 0 0 0 -0.00570294 -0.0046766 0.00288829 0.00351318 -0.000999122 -0.00505635 -0.00570294 -0.0046766 0.00288829 450.639 450.639 1001.07 
172 1 1 0.0210988 0.0900124 0.00997907 0 0 0 -0.0127594 -0.000245069 0.00211631 -6.81027e-05 0.00466831 0.000233592 -0.0127594 -0.000245069 0.00211631 460.133 460.133 1001.09 