ITEM: TIMESTEP
30000
ITEM: NUMBER OF ATOMS
2655
ITEM: BOX BOUNDS ff ff ff
0 0.5
0 0.1
0 0.5
ITEM: ATOMS id type type x y z ix iy iz vx vy vz fx fy fz vx vy vz p p rho 
1 1 1 0.00992744 0.00994099 0.00995549 0 0 0 0.0117462 -0.00649531 0.0309177 0.0501628 0.0255437 0.00294965 0.0117462 -0.00649531 0.0309177 1000.01 1000.01 1002.36 
2 1 1 0.0309711 0.0100011 0.00992699 0 0 0 0.0701753 0.0302025 0.00924575 0.0140511 -0.0480998 0.0383802 0.0701753 0.0302025 0.00924575 728.025 728.025 1001.72 
3 1 1 0.0230388 0.0099706 0.00994475 0 0 0 0.06038 0.00597221 -0.00486661 0.0107228 -0.000441009 0.0165494 0.06038 0.00597221 -0.00486661 937.451 937.451 1002.22 
4 1 1 0.0615242 0.00997779 0.00996485 0 0 0 0.0803567 -0.0124733 -0.0213486 0.00338957 -0.00143781 0.0056292 0.0803567 -0.0124733 -0.0213486 561.556 561.556 1001.33 
5 1 1 0.0680364 0.00999205 0.00998654 0 0 0 0.0203543 -0.0253955 0.0164339 -0.00223125 -0.0108764 -0.0194105 0.0203543 -0.0253955 0.0164339 599.779 599.779 1001.42 
6 1 1 0.0863067 0.00995966 0.00998379 0 0 0 0.196419 0.0163077 -0.0133846 0.000463859 0.0127103 -0.026351 0.196419 0.0163077 -0.0133846 882.465 882.465 1002.09 
7 1 1 0.106881 0.00996547 0.00996131 0 0 0 0.148608 0.00661927 -0.00606309 0.00801425 0.00536971 -0.00384283 0.148608 0.00661927 -0.00606309 849.613 849.613 1002.01 
8 1 1 0.1194 0.00995676 0.00997929 0 0 0 0.144533 0.000116091 -0.00028724 0.000477502 0.0177155 -0.0149778 0.144533 0.000116091 -0.00028724 819.698 819.698 1001.94 
9 1 1 0.131538 0.00998122 0.00996263 0 0 0 0.195462 -0.0239645 0.0184747 0.000589282 -0.0104706 0.0103766 0.195462 -0.0239645 0.0184747 806.207 806.207 1001.91 
10 1 1 0.14865 0.00995935 0.00998183 0 0 0 0.0328215 0.0010208 0.0111159 0.00159461 0.0146638 -0.014141 0.0328215 0.0010208 0.0111159 809.311 809.311 1001.92 
11 1 1 0.00996893 0.0190734 0.00996326 0 0 0 0.00733279 0.0344724 0.0029089 0.00536096 -0.00791917 -0.00999274 0.00733279 0.0344724 0.0029089 1073.36 1073.36 1002.54 
12 1 1 0.0206155 0.0232984 0.00994487 0 0 0 0.00950727 0.0471674 0.00243237 0.0164967 -0.00283014 0.00816451 0.00950727 0.0471674 0.00243237 942.423 942.423 1002.23 
13 1 1 0.0364327 0.0207221 0.00995757 0 0 0 0.0461285 0.0584819 0.0150383 0.0126816 -0.000795429 0.000596263 0.0461285 0.0584819 0.0150383 614.161 614.161 1001.46 
14 1 1 0.0662909 0.0229698 0.00995845 0 0 0 0.206605 -0.00045814 0.0126819 0.00505998 0.00133391 0.00543608 0.206605 -0.00045814 0.0126819 530.08 530.08 1001.26 
15 1 1 0.0755939 0.0222288 0.00996539 0 0 0 0.0793707 0.00375783 0.0162572 -0.00577788 0.0052905 0.00127629 0.0793707 0.00375783 0.0162572 415.856 415.856 1000.99 
16 1 1 0.0886416 0.0190667 0.00995067 0 0 0 0.143908 0.0261473 0.00884863 -0.00585019 0.0163639 0.0116263 0.143908 0.0261473 0.00884863 672.335 672.335 1001.59 
17 1 1 0.0983902 0.0258194 0.00995318 0 0 0 0.0554112 0.0892292 -0.00261167 -0.00408152 0.00650051 0.00385971 0.0554112 0.0892292 -0.00261167 655.263 655.263 1001.55 
18 1 1 0.112844 0.0225753 0.00995557 0 0 0 0.0643592 0.0851737 0.00327875 -0.00294867 0.00321642 0.00658061 0.0643592 0.0851737 0.00327875 735.616 735.616 1001.74 
19 1 1 0.11898 0.02356 0.00995602 0 0 0 0.142531 -0.0297473 0.00979836 -0.00214339 0.00247237 0.00695439 0.142531 -0.0297473 0.00979836 737.57 737.57 1001.75 
20 1 1 0.14591 0.0255109 0.00996827 0 0 0 0.0763239 0.00162098 0.00401244 0.00297431 -0.0151116 -0.0038797 0.0763239 0.00162098 0.00401244 836.347 836.347 1001.98 
21 1 1 0.00993634 0.0255822 0.00995317 0 0 0 0.0385756 0.0347348 0.0028045 0.0400547 -0.0122662 0.000347988 0.0385756 0.0347348 0.0028045 1178.35 1178.35 1002.78 
22 1 1 0.0241959 0.0355819 0.00992949 0 0 0 0.0404783 -0.0580651 0.0134631 0.0136289 -0.00275752 0.0180363 0.0404783 -0.0580651 0.0134631 877.332 877.332 1002.08 
23 1 1 0.0472483 0.0343787 0.00993524 0 0 0 0.0685259 0.0376827 0.00307145 0.00708367 0.00346804 0.0243498 0.0685259 0.0376827 0.00307145 503.052 503.052 1001.19 
24 1 1 0.0699553 0.0327367 0.00995384 0 0 0 0.153051 0.0463983 0.00951602 0.0030233 0.00104377 0.0102359 0.153051 0.0463983 0.00951602 536.955 536.955 1001.27 
25 1 1 0.082185 0.0305921 0.00996641 0 0 0 0.0978444 0.0151079 0.0070154 -0.00375961 0.00163137 -0.00054199 0.0978444 0.0151079 0.0070154 464.903 464.903 1001.1 
26 1 1 0.0911638 0.0237024 0.0099621 0 0 0 0.267122 -0.0809309 -0.000887718 -0.00504271 0.012154 0.000762519 0.267122 -0.0809309 -0.000887718 618.422 618.422 1001.47 
27 1 1 0.109935 0.0316312 0.009965 0 0 0 0.168184 -0.00251244 -0.00826764 -0.00139695 0.00334913 -0.00316121 0.168184 -0.00251244 -0.00826764 625.003 625.003 1001.48 
28 1 1 0.105886 0.0200149 0.00994932 0 0 0 0.13351 -0.0258107 -0.00471762 -3.93274e-05 0.0106912 0.00699473 0.13351 -0.0258107 -0.00471762 751.421 751.421 1001.78 
29 1 1 0.129543 0.0279955 0.00996488 0 0 0 0.095775 -0.0289003 0.00404518 -0.00654024 -0.000134606 -0.00451198 0.095775 -0.0289003 0.00404518 689.714 689.714 1001.63 
30 1 1 0.140986 0.0310737 0.00995104 0 0 0 0.143901 -0.00470702 -0.00169133 -0.00941264 -0.00806378 0.00595424 0.143901 -0.00470702 -0.00169133 882.066 882.066 1002.09 
31 1 1 0.00997704 0.0381421 0.00992807 0 0 0 -0.0130822 0.0273707 -0.00695484 -2.93212e-05 -0.0109068 0.0232829 -0.0130822 0.0273707 -0.00695484 1247.59 1247.59 1002.94 
32 1 1 0.0233176 0.0427385 0.00993704 0 0 0 0.00177654 -0.0385274 0.0189069 0.00861324 0.00567417 0.0125986 0.00177654 -0.0385274 0.0189069 875.618 875.618 1002.07 
33 1 1 0.04865 0.0415451 0.00995584 0 0 0 0.0773882 0.0134104 0.016743 0.00281923 0.00356902 0.00448909 0.0773882 0.0134104 0.016743 489.173 489.173 1001.16 
34 1 1 0.0605917 0.0423096 0.00996181 0 0 0 0.111063 -0.0370409 0.0125594 -0.000991387 8.77469e-05 0.000805433 0.111063 -0.0370409 0.0125594 469.547 469.547 1001.11 
35 1 1 0.0687593 0.0403123 0.00995749 0 0 0 0.128101 -0.0263326 0.00459315 0.00184743 -0.000698129 0.0081828 0.128101 -0.0263326 0.00459315 524.735 524.735 1001.24 
36 1 1 0.0857668 0.0385383 0.00997019 0 0 0 0.144783 0.0277146 -0.00830514 -0.00272347 0.00269482 -0.00428506 0.144783 0.0277146 -0.00830514 521.762 521.762 1001.24 
37 1 1 0.110118 0.0389268 0.00996965 0 0 0 0.164138 0.0282739 -0.00761497 -0.00104433 0.00461299 -0.00925953 0.164138 0.0282739 -0.00761497 599.265 599.265 1001.42 
38 1 1 0.119835 0.0338704 0.00996821 0 0 0 0.203169 -0.020981 0.00624904 -0.00592387 0.00271683 -0.00331319 0.203169 -0.020981 0.00624904 640.741 640.741 1001.52 
39 1 1 0.123027 0.0453633 0.00998319 0 0 0 0.104436 0.0178853 0.00632928 0.00104839 -0.000673048 -0.0180116 0.104436 0.0178853 0.00632928 600.353 600.353 1001.42 
40 1 1 0.139598 0.0420417 0.00996116 0 0 0 0.17685 -0.0250314 -0.00348432 -0.00997716 0.00198985 -0.0103058 0.17685 -0.0250314 -0.00348432 824.435 824.435 1001.95 
41 1 1 0.0100023 0.05 0.00992834 0 0 0 0.00457543 2.38257e-11 -0.0106896 -0.0514095 2.05023e-12 0.0209422 0.00457543 2.38257e-11 -0.0106896 1212.44 1212.44 1002.86 
42 1 1 0.03582 0.05 0.00993943 0 0 0 0.1586 7.41575e-12 0.0160138 0.0192092 -3.1911e-12 0.01871 0.1586 7.41575e-12 0.0160138 445.843 445.843 1001.06 
43 1 1 0.045929 0.05 0.00996168 0 0 0 0.173999 7.71922e-12 0.0234341 0.000104276 -8.08123e-12 -0.000547452 0.173999 7.71922e-12 0.0234341 451.38 451.38 1001.07 
44 1 1 0.0661013 0.05 0.00997426 0 0 0 0.152252 3.95002e-12 0.00480727 -0.000999635 -1.8047e-11 -0.00790732 0.152252 3.95002e-12 0.00480727 478.02 478.02 1001.13 
45 1 1 0.0825937 0.05 0.00996772 0 0 0 0.059247 -1.55159e-11 0.00384148 -0.00244107 -1.7769e-11 0.00350879 0.059247 -1.55159e-11 0.00384148 463.735 463.735 1001.1 
46 1 1 0.0872151 0.05 0.00997526 0 0 0 0.179687 -8.82428e-12 0.00287286 -0.00180401 -1.7402e-11 -0.00522149 0.179687 -8.82428e-12 0.00287286 471.57 471.57 1001.12 
47 1 1 0.0970916 0.05 0.00998452 0 0 0 0.128705 -2.91222e-11 -0.00695582 -0.00605223 -1.64472e-11 -0.0148166 0.128705 -2.91222e-11 -0.00695582 521.36 521.36 1001.24 
48 1 1 0.102553 0.05 0.00997753 0 0 0 0.0566616 -4.2569e-11 -0.00933753 0.000748729 -1.54967e-11 -0.0115257 0.0566616 -4.2569e-11 -0.00933753 560.535 560.535 1001.33 
49 1 1 0.113632 0.05 0.00997563 0 0 0 0.0267934 -6.39655e-11 0.00582666 -0.0113781 -1.00176e-11 -0.0165401 0.0267934 -6.39655e-11 0.00582666 647.819 647.819 1001.54 
50 1 1 0.145389 0.05 0.00994176 0 0 0 0.089414 -6.70824e-11 -0.00752943 -0.00508578 -1.36036e-11 5.68064e-05 0.089414 -6.70824e-11 -0.00752943 924.536 924.536 1002.19 
51 1 1 0.00997704 0.0618579 0.00992807 0 0 0 -0.0130822 -0.0273707 -0.00695484 -2.93212e-05 0.0109068 0.0232829 -0.0130822 -0.0273707 -0.00695484 1247.59 1247.59 1002.94 
52 1 1 0.0233176 0.0572615 0.00993704 0 0 0 0.00177654 0.0385274 0.0189069 0.00861324 -0.00567417 0.0125986 0.00177654 0.0385274 0.0189069 875.618 875.618 1002.07 
53 1 1 0.04865 0.0584549 0.00995584 0 0 0 0.0773882 -0.0134104 0.016743 0.00281923 -0.00356902 0.00448909 0.0773882 -0.0134104 0.016743 489.173 489.173 1001.16 
54 1 1 0.0605917 0.0576904 0.00996181 0 0 0 0.111063 0.0370409 0.0125594 -0.000991387 -8.77469e-05 0.000805433 0.111063 0.0370409 0.0125594 469.547 469.547 1001.11 
55 1 1 0.0687593 0.0596877 0.00995749 0 0 0 0.128101 0.0263326 0.00459315 0.00184743 0.000698129 0.0081828 0.128101 0.0263326 0.00459315 524.735 524.735 1001.24 
56 1 1 0.0857668 0.0614617 0.00997019 0 0 0 0.144783 -0.0277146 -0.00830514 -0.00272347 -0.00269482 -0.00428506 0.144783 -0.0277146 -0.00830514 521.762 521.762 1001.24 
57 1 1 0.110118 0.0610732 0.00996965 0 0 0 0.164138 -0.0282739 -0.00761497 -0.00104433 -0.00461299 -0.00925953 0.164138 -0.0282739 -0.00761497 599.265 599.265 1001.42 
58 1 1 0.119835 0.0661296 0.00996821 0 0 0 0.203169 0.020981 0.00624904 -0.00592387 -0.00271683 -0.00331319 0.203169 0.020981 0.00624904 640.741 640.741 1001.52 
59 1 1 0.123027 0.0546367 0.00998319 0 0 0 0.104436 -0.0178853 0.00632928 0.00104839 0.000673048 -0.0180116 0.104436 -0.0178853 0.00632928 600.353 600.353 1001.42 
60 1 1 0.139598 0.0579583 0.00996116 0 0 0 0.17685 0.0250314 -0.00348432 -0.00997716 -0.00198985 -0.0103058 0.17685 0.0250314 -0.00348432 824.435 824.435 1001.95 
61 1 1 0.00993634 0.0744178 0.00995317 0 0 0 0.0385756 -0.0347348 0.0028045 0.0400547 0.0122662 0.000347988 0.0385756 -0.0347348 0.0028045 1178.35 1178.35 1002.78 
62 1 1 0.0241959 0.0644181 0.00992949 0 0 0 0.0404783 0.0580651 0.0134631 0.0136289 0.00275752 0.0180363 0.0404783 0.0580651 0.0134631 877.332 877.332 1002.08 
63 1 1 0.0472483 0.0656213 0.00993524 0 0 0 0.0685259 -0.0376827 0.00307145 0.00708367 -0.00346804 0.0243498 0.0685259 -0.0376827 0.00307145 503.052 503.052 1001.19 
64 1 1 0.0699553 0.0672633 0.00995384 0 0 0 0.153051 -0.0463983 0.00951602 0.0030233 -0.00104377 0.0102359 0.153051 -0.0463983 0.00951602 536.955 536.955 1001.27 
65 1 1 0.082185 0.0694079 0.00996641 0 0 0 0.0978444 -0.0151079 0.0070154 -0.00375961 -0.00163137 -0.00054199 0.0978444 -0.0151079 0.0070154 464.903 464.903 1001.1 
66 1 1 0.0911638 0.0762976 0.0099621 0 0 0 0.267122 0.0809309 -0.000887718 -0.00504271 -0.012154 0.000762519 0.267122 0.0809309 -0.000887718 618.422 618.422 1001.47 
67 1 1 0.109935 0.0683688 0.009965 0 0 0 0.168184 0.00251244 -0.00826764 -0.00139695 -0.00334913 -0.00316121 0.168184 0.00251244 -0.00826764 625.003 625.003 1001.48 
68 1 1 0.105886 0.0799851 0.00994932 0 0 0 0.13351 0.0258107 -0.00471762 -3.93273e-05 -0.0106912 0.00699473 0.13351 0.0258107 -0.00471762 751.421 751.421 1001.78 
69 1 1 0.129543 0.0720045 0.00996488 0 0 0 0.095775 0.0289003 0.00404519 -0.00654024 0.000134606 -0.00451198 0.095775 0.0289003 0.00404519 689.714 689.714 1001.63 
70 1 1 0.140986 0.0689263 0.00995104 0 0 0 0.143901 0.00470702 -0.00169133 -0.00941264 0.00806378 0.00595424 0.143901 0.00470702 -0.00169133 882.066 882.066 1002.09 
71 1 1 0.00996893 0.0809266 0.00996326 0 0 0 0.00733279 -0.0344724 0.0029089 0.00536096 0.00791917 -0.00999274 0.00733279 -0.0344724 0.0029089 1073.36 1073.36 1002.54 
72 1 1 0.0206155 0.0767016 0.00994487 0 0 0 0.00950727 -0.0471674 0.00243237 0.0164967 0.00283014 0.00816451 0.00950727 -0.0471674 0.00243237 942.423 942.423 1002.23 
73 1 1 0.0364327 0.0792779 0.00995757 0 0 0 0.0461285 -0.0584819 0.0150383 0.0126816 0.000795429 0.000596263 0.0461285 -0.0584819 0.0150383 614.161 614.161 1001.46 
74 1 1 0.0662909 0.0770302 0.00995845 0 0 0 0.206605 0.00045814 0.0126819 0.00505998 -0.00133391 0.00543608 0.206605 0.00045814 0.0126819 530.08 530.08 1001.26 
75 1 1 0.0755939 0.0777712 0.00996539 0 0 0 0.0793707 -0.00375783 0.0162572 -0.00577788 -0.0052905 0.00127629 0.0793707 -0.00375783 0.0162572 415.856 415.856 1000.99 
76 1 1 0.0886416 0.0809333 0.00995067 0 0 0 0.143908 -0.0261473 0.00884863 -0.00585019 -0.0163639 0.0116263 0.143908 -0.0261473 0.00884863 672.335 672.335 1001.59 
77 1 1 0.0983902 0.0741806 0.00995318 0 0 0 0.0554112 -0.0892292 -0.00261167 -0.00408152 -0.00650051 0.00385971 0.0554112 -0.0892292 -0.00261167 655.263 655.263 1001.55 
78 1 1 0.112844 0.0774247 0.00995557 0 0 0 0.0643592 -0.0851737 0.00327875 -0.00294867 -0.00321642 0.00658061 0.0643592 -0.0851737 0.00327875 735.616 735.616 1001.74 
79 1 1 0.11898 0.07644 0.00995602 0 0 0 0.142531 0.0297473 0.00979836 -0.00214339 -0.00247237 0.00695439 0.142531 0.0297473 0.00979836 737.57 737.57 1001.75 
80 1 1 0.14591 0.0744891 0.00996827 0 0 0 0.0763239 -0.00162098 0.00401244 0.00297431 0.0151116 -0.0038797 0.0763239 -0.00162098 0.00401244 836.347 836.347 1001.98 
81 1 1 0.00992744 0.090059 0.00995549 0 0 0 0.0117462 0.00649531 0.0309177 0.0501628 -0.0255437 0.00294965 0.0117462 0.00649531 0.0309177 1000.01 1000.01 1002.36 
82 1 1 0.0309711 0.0899989 0.00992699 0 0 0 0.0701753 -0.0302025 0.00924575 0.0140511 0.0480998 0.0383802 0.0701753 -0.0302025 0.00924575 728.025 728.025 1001.72 
83 1 1 0.0230388 0.0900294 0.00994475 0 0 0 0.06038 -0.00597221 -0.00486661 0.0107228 0.000441009 0.0165494 0.06038 -0.00597221 -0.00486661 937.451 937.451 1002.22 
84 1 1 0.0615242 0.0900222 0.00996485 0 0 0 0.0803567 0.0124733 -0.0213486 0.00338957 0.00143781 0.0056292 0.0803567 0.0124733 -0.0213486 561.556 561.556 1001.33 
85 1 1 0.0680364 0.090008 0.00998654 0 0 0 0.0203543 0.0253955 0.0164339 -0.00223126 0.0108764 -0.0194105 0.0203543 0.0253955 0.0164339 599.779 599.779 1001.42 
86 1 1 0.0863067 0.0900403 0.00998379 0 0 0 0.196419 -0.0163077 -0.0133846 0.000463859 -0.0127103 -0.026351 0.196419 -0.0163077 -0.0133846 882.465 882.465 1002.09 
87 1 1 0.106881 0.0900345 0.00996131 0 0 0 0.148608 -0.00661927 -0.00606309 0.00801425 -0.00536971 -0.00384283 0.148608 -0.00661927 -0.00606309 849.613 849.613 1002.01 
88 1 1 0.1194 0.0900432 0.00997929 0 0 0 0.144533 -0.000116091 -0.00028724 0.000477502 -0.0177155 -0.0149778 0.144533 -0.000116091 -0.00028724 819.698 819.698 1001.94 
89 1 1 0.131538 0.0900188 0.00996263 0 0 0 0.195462 0.0239645 0.0184747 0.000589282 0.0104706 0.0103766 0.195462 0.0239645 0.0184747 806.207 806.207 1001.91 
90 1 1 0.14865 0.0900406 0.00998183 0 0 0 0.0328215 -0.0010208 0.0111159 0.00159461 -0.0146638 -0.014141 0.0328215 -0.0010208 0.0111159 809.311 809.311 1001.92 
91 1 1 0.00993932 0.00994041 0.0099704 0 0 0 -0.0386431 -0.00354007 0.00989055 0.0379264 0.0260749 -0.0120289 -0.0386431 -0.00354007 0.00989055 1000.18 1000.18 1002.36 
92 1 1 0.0220464 0.00993572 0.0104182 0 0 0 -0.00275824 0.0260196 0.211948 0.00500818 0.0332887 -0.0583099 -0.00275824 0.0260196 0.211948 961.452 961.452 1002.27 
93 1 1 0.0385106 0.00997811 0.009968 0 0 0 0.065775 -0.0174113 0.0299891 0.000576575 0.00040163 -0.00326067 0.065775 -0.0174113 0.0299891 663.201 663.201 1001.57 
94 1 1 0.0515718 0.00997182 0.00996601 0 0 0 0.00602045 -0.0146442 0.00576992 -0.00328014 0.00180525 0.00294281 0.00602045 -0.0146442 0.00576992 589.605 589.605 1001.4 
95 1 1 0.0720204 0.0099891 0.00994888 0 0 0 0.120341 -0.0151828 0.0185545 -0.00241964 -0.00675007 0.0153208 0.120341 -0.0151828 0.0185545 636.423 636.423 1001.51 
96 1 1 0.101001 0.00997447 0.00991886 0 0 0 0.125837 0.00794696 -0.0145913 0.000221874 -0.00219202 0.0382279 0.125837 0.00794696 -0.0145913 885.649 885.649 1002.1 
97 1 1 0.115577 0.00998589 0.00992864 0 0 0 0.18721 -0.0157228 -0.00458464 -0.00657041 -0.01295 0.0339825 0.18721 -0.0157228 -0.00458464 824.113 824.113 1001.95 
98 1 1 0.126263 0.00995582 0.00998084 0 0 0 0.123245 0.00868776 0.00672705 -0.000934854 0.0176946 -0.0125219 0.123245 0.00868776 0.00672705 811.385 811.385 1001.92 
99 1 1 0.136602 0.00996688 0.00997137 0 0 0 0.0493526 0.0147064 -0.0279707 0.00417251 0.000266949 0.00313514 0.0493526 0.0147064 -0.0279707 803.441 803.441 1001.9 
100 1 1 0.143772 0.00999299 0.00994375 0 0 0 0.137595 -0.00360363 -0.0133535 -0.00046368 -0.0231635 0.028373 0.137595 -0.00360363 -0.0133535 803.785 803.785 1001.9 
101 1 1 0.00996212 0.0209084 0.0211951 0 0 0 0.0218786 0.016956 -0.062373 0.00746437 -0.00249916 0.00906254 0.0218786 0.016956 -0.062373 1041.26 1041.26 1002.46 
102 1 1 0.0272464 0.0221604 0.00992649 0 0 0 0.0295177 0.00974006 0.0142404 0.0106917 -0.000550108 0.0300702 0.0295177 0.00974006 0.0142404 773.593 773.593 1001.83 
103 1 1 0.0486118 0.0201532 0.0211811 0 0 0 0.165003 -0.014903 -0.00550453 0.00100357 0.00748939 0.00349126 0.165003 -0.014903 -0.00550453 546.324 546.324 1001.3 
104 1 1 0.0666174 0.0239031 0.0208434 0 0 0 0.210855 -0.0192213 -0.00331189 0.00334183 0.00257848 -0.000493069 0.210855 -0.0192213 -0.00331189 482.952 482.952 1001.15 
105 1 1 0.0974161 0.0199197 0.0280672 0 0 0 0.303771 0.0461337 0.0882444 -0.00153909 0.00739234 0.0065579 0.303771 0.0461337 0.0882444 480.23 480.23 1001.14 
106 1 1 0.115178 0.0219257 0.0230749 0 0 0 0.204197 -0.0213435 0.0201061 -0.000271211 0.000201709 0.00473522 0.204197 -0.0213435 0.0201061 612.044 612.044 1001.45 
107 1 1 0.133357 0.0215036 0.0243125 0 0 0 0.228875 -0.0261326 0.00336097 0.00164132 -0.00406723 0.0032609 0.228875 -0.0261326 0.00336097 595.182 595.182 1001.41 
108 1 1 0.125178 0.0219107 0.00997138 0 0 0 0.0450662 0.0821604 0.00940437 -0.00130174 0.000939928 -0.0107231 0.0450662 0.0821604 0.00940437 741.506 741.506 1001.76 
109 1 1 0.154801 0.0224874 0.0221202 0 0 0 0.261096 0.0147843 -0.0216088 0.00414853 -0.0110082 0.00193341 0.261096 0.0147843 -0.0216088 591.856 591.856 1001.4 
110 1 1 0.161654 0.0230646 0.00993926 0 0 0 0.139926 -0.092092 -0.0276407 0.00772429 -0.00709452 0.0223038 0.139926 -0.092092 -0.0276407 700.313 700.313 1001.66 
111 1 1 0.00997395 0.029175 0.00996455 0 0 0 0.0186208 -0.00149963 -0.00405302 0.00270615 -0.000383993 -0.0121203 0.0186208 -0.00149963 -0.00405302 1222.5 1222.5 1002.89 
112 1 1 0.0287107 0.0162078 0.0201269 0 0 0 -0.00771525 -0.0228245 0.0813934 0.0113001 0.0027261 0.00231516 -0.00771525 -0.0228245 0.0813934 702.089 702.089 1001.66 
113 1 1 0.0422077 0.0286688 0.00994602 0 0 0 0.0500263 0.00739872 -0.00311608 0.0038062 -0.0042905 0.0103458 0.0500263 0.00739872 -0.00311608 552.77 552.77 1001.31 
114 1 1 0.0495517 0.0186887 0.00994632 0 0 0 0.0284268 -0.109298 0.00524615 -0.00464504 0.00958552 0.0141831 0.0284268 -0.109298 0.00524615 536.585 536.585 1001.27 
115 1 1 0.0806144 0.0210072 0.0234121 0 0 0 0.195011 0.0626548 -0.0240211 -0.00476044 0.0105746 2.33088e-05 0.195011 0.0626548 -0.0240211 406.184 406.184 1000.96 
116 1 1 0.0920014 0.0345241 0.00995386 0 0 0 0.14351 0.0639203 0.00283859 -0.00412855 0.0032171 0.00772014 0.14351 0.0639203 0.00283859 565.107 565.107 1001.34 
117 1 1 0.130111 0.0283912 0.0230068 0 0 0 0.232711 -0.0236588 0.0625565 -0.00323719 -0.000346387 0.00788424 0.232711 -0.0236588 0.0625565 608.182 608.182 1001.44 
118 1 1 0.145077 0.0218358 0.0221355 0 0 0 0.233996 -0.0514962 0.0533795 -0.000746556 -0.00853097 -0.00149262 0.233996 -0.0514962 0.0533795 601.048 601.048 1001.42 
119 1 1 0.138631 0.0189755 0.00997318 0 0 0 0.204037 0.0235071 -0.00511643 0.000424597 -0.00267359 -0.00399541 0.204037 0.0235071 -0.00511643 772.674 772.674 1001.83 
120 1 1 0.164871 0.0253519 0.0216575 0 0 0 0.228616 0.0318471 -0.00475486 0.00369471 -0.00358921 0.001129 0.228616 0.0318471 -0.00475486 577.879 577.879 1001.37 
121 1 1 0.0099972 0.0398451 0.00992778 0 0 0 -0.00481089 0.00226226 0.042794 -0.0194259 -0.000393096 0.0224931 -0.00481089 0.00226226 0.042794 1241.8 1241.8 1002.93 
122 1 1 0.022744 0.0354349 0.0140922 0 0 0 0.0126206 -0.0393783 -0.167409 0.010529 -0.00432548 -0.00942579 0.0126206 -0.0393783 -0.167409 880.06 880.06 1002.08 
123 1 1 0.03008 0.0293566 0.00995154 0 0 0 0.0592136 -0.0284553 0.00769207 0.0136189 -0.0015295 0.00327706 0.0592136 -0.0284553 0.00769207 746.451 746.451 1001.77 
124 1 1 0.0617204 0.0294973 0.00993931 0 0 0 0.057998 -0.0382638 -0.0261351 -0.000890819 0.00295366 0.0248824 0.057998 -0.0382638 -0.0261351 483.162 483.162 1001.15 
125 1 1 0.0785248 0.041322 0.00996878 0 0 0 0.0797978 0.01792 0.0136006 -0.00225622 -0.00048896 0.000896619 0.0797978 0.01792 0.0136006 510.643 510.643 1001.21 
126 1 1 0.0974164 0.0432777 0.00994441 0 0 0 0.0890549 -0.0375428 0.015642 -0.00552797 -0.00017285 0.0207083 0.0890549 -0.0375428 0.015642 542.664 542.664 1001.29 
127 1 1 0.122863 0.0372326 0.0100034 0 0 0 0.166287 0.0644681 0.00718977 -0.00713751 0.00177779 -0.0532788 0.166287 0.0644681 0.00718977 616.404 616.404 1001.46 
128 1 1 0.133731 0.0374466 0.0099712 0 0 0 0.132715 -0.082208 0.0162184 -0.0139242 -0.00289513 -0.0147605 0.132715 -0.082208 0.0162184 676.694 676.694 1001.6 
129 1 1 0.135714 0.0236947 0.00996797 0 0 0 0.16188 -0.104158 -0.00602756 -0.00803949 -0.00266358 -0.00204291 0.16188 -0.104158 -0.00602756 748.633 748.633 1001.77 
130 1 1 0.15256 0.0341538 0.00997266 0 0 0 0.210702 -0.0098268 -0.0138661 0.0100879 -0.0117741 -0.0184336 0.210702 -0.0098268 -0.0138661 1011.09 1011.09 1002.39 
131 1 1 0.00997447 0.05 0.00993438 0 0 0 -0.0042557 -1.98064e-11 0.000732159 0.00816779 -2.84878e-12 0.0148378 -0.0042557 -1.98064e-11 0.000732159 1212.65 1212.65 1002.86 
132 1 1 0.0252679 0.05 0.00987061 0 0 0 -0.0195437 4.22258e-12 0.15302 0.00313782 -9.41403e-13 0.0834998 -0.0195437 4.22258e-12 0.15302 784.128 784.128 1001.86 
133 1 1 0.0355866 0.05 0.0193704 0 0 0 0.0436166 5.7964e-12 -0.0469675 0.0159125 -4.26837e-12 0.00665705 0.0436166 5.7964e-12 -0.0469675 500.514 500.514 1001.19 
134 1 1 0.072857 0.05 0.00995126 0 0 0 0.118428 1.22661e-12 -0.00109555 0.000569327 -1.77841e-11 0.0189787 0.118428 1.22661e-12 -0.00109555 471.116 471.116 1001.12 
135 1 1 0.0901506 0.05 0.0208385 0 0 0 0.136255 -2.18015e-11 0.0575002 -0.0029055 -1.9597e-11 -0.000480078 0.136255 -2.18015e-11 0.0575002 386.673 386.673 1000.92 
136 1 1 0.111144 0.05 0.0170057 0 0 0 0.156179 -5.82864e-11 0.0240613 -0.00805926 -1.24349e-11 0.00235186 0.156179 -5.82864e-11 0.0240613 577.416 577.416 1001.37 
137 1 1 0.133197 0.05 0.0226563 0 0 0 0.248507 -8.02346e-11 -0.0312636 -0.0127232 -1.55373e-11 0.00284991 0.248507 -8.02346e-11 -0.0312636 571.015 571.015 1001.35 
138 1 1 0.116216 0.05 0.00995378 0 0 0 0.102854 -5.98296e-11 0.0384258 -0.000908088 -8.21563e-12 0.00753866 0.102854 -5.98296e-11 0.0384258 648.13 648.13 1001.54 
139 1 1 0.136675 0.05 0.00997438 0 0 0 0.183653 -7.93122e-11 0.00160506 -0.018862 -2.40657e-11 -0.0192988 0.183653 -7.93122e-11 0.00160506 669.717 669.717 1001.59 
140 1 1 0.16819 0.05 0.0211374 0 0 0 0.251076 -8.98447e-11 0.0295394 0.00605812 1.08809e-10 0.000661981 0.251076 -8.98447e-11 0.0295394 633.303 633.303 1001.5 
141 1 1 0.0099972 0.0601549 0.00992778 0 0 0 -0.00481089 -0.00226226 0.042794 -0.0194259 0.000393096 0.0224931 -0.00481089 -0.00226226 0.042794 1241.8 1241.8 1002.93 
142 1 1 0.022744 0.0645651 0.0140922 0 0 0 0.0126206 0.0393783 -0.167409 0.010529 0.00432548 -0.00942579 0.0126206 0.0393783 -0.167409 880.06 880.06 1002.08 
143 1 1 0.03008 0.0706434 0.00995154 0 0 0 0.0592136 0.0284553 0.00769207 0.0136189 0.0015295 0.00327706 0.0592136 0.0284553 0.00769207 746.451 746.451 1001.77 
144 1 1 0.0617204 0.0705027 0.00993931 0 0 0 0.057998 0.0382638 -0.0261351 -0.00089082 -0.00295366 0.0248824 0.057998 0.0382638 -0.0261351 483.162 483.162 1001.15 
145 1 1 0.0785248 0.058678 0.00996878 0 0 0 0.0797978 -0.01792 0.0136006 -0.00225622 0.00048896 0.000896619 0.0797978 -0.01792 0.0136006 510.643 510.643 1001.21 
146 1 1 0.0974164 0.0567223 0.00994441 0 0 0 0.0890549 0.0375428 0.015642 -0.00552797 0.00017285 0.0207083 0.0890549 0.0375428 0.015642 542.664 542.664 1001.29 
147 1 1 0.122863 0.0627674 0.0100034 0 0 0 0.166287 -0.0644681 0.00718977 -0.00713751 -0.00177779 -0.0532788 0.166287 -0.0644681 0.00718977 616.404 616.404 1001.46 
148 1 1 0.133731 0.0625534 0.0099712 0 0 0 0.132715 0.082208 0.0162184 -0.0139242 0.00289513 -0.0147605 0.132715 0.082208 0.0162184 676.694 676.694 1001.6 
149 1 1 0.135714 0.0763053 0.00996797 0 0 0 0.16188 0.104158 -0.00602756 -0.00803949 0.00266358 -0.00204291 0.16188 0.104158 -0.00602756 748.633 748.633 1001.77 
150 1 1 0.15256 0.0658462 0.00997266 0 0 0 0.210702 0.0098268 -0.0138661 0.0100879 0.0117741 -0.0184336 0.210702 0.0098268 -0.0138661 1011.09 1011.09 1002.39 
151 1 1 0.00997395 0.070825 0.00996455 0 0 0 0.0186208 0.00149963 -0.00405302 0.00270615 0.000383993 -0.0121203 0.0186208 0.00149963 -0.00405302 1222.5 1222.5 1002.89 
152 1 1 0.0287107 0.0837922 0.0201269 0 0 0 -0.00771524 0.0228245 0.0813934 0.0113001 -0.0027261 0.00231516 -0.00771524 0.0228245 0.0813934 702.089 702.089 1001.66 
153 1 1 0.0422077 0.0713312 0.00994602 0 0 0 0.0500263 -0.00739872 -0.00311608 0.0038062 0.0042905 0.0103458 0.0500263 -0.00739872 -0.00311608 552.77 552.77 1001.31 
154 1 1 0.0495517 0.0813113 0.00994632 0 0 0 0.0284268 0.109298 0.00524615 -0.00464504 -0.00958552 0.0141831 0.0284268 0.109298 0.00524615 536.585 536.585 1001.27 
155 1 1 0.0806144 0.0789928 0.0234121 0 0 0 0.195011 -0.0626548 -0.0240211 -0.00476044 -0.0105746 2.33089e-05 0.195011 -0.0626548 -0.0240211 406.184 406.184 1000.96 
156 1 1 0.0920014 0.0654759 0.00995386 0 0 0 0.14351 -0.0639203 0.00283859 -0.00412855 -0.0032171 0.00772014 0.14351 -0.0639203 0.00283859 565.107 565.107 1001.34 
157 1 1 0.130111 0.0716088 0.0230068 0 0 0 0.232711 0.0236588 0.0625565 -0.00323719 0.000346387 0.00788424 0.232711 0.0236588 0.0625565 608.182 608.182 1001.44 
158 1 1 0.145077 0.0781642 0.0221355 0 0 0 0.233996 0.0514962 0.0533795 -0.000746555 0.00853097 -0.00149262 0.233996 0.0514962 0.0533795 601.048 601.048 1001.42 
159 1 1 0.138631 0.0810245 0.00997318 0 0 0 0.204037 -0.0235071 -0.00511643 0.000424597 0.00267359 -0.00399541 0.204037 -0.0235071 -0.00511643 772.674 772.674 1001.83 
160 1 1 0.164871 0.0746481 0.0216575 0 0 0 0.228616 -0.0318471 -0.00475486 0.00369471 0.00358921 0.001129 0.228616 -0.0318471 -0.00475486 577.879 577.879 1001.37 
161 1 1 0.00996212 0.0790916 0.0211951 0 0 0 0.0218786 -0.016956 -0.062373 0.00746437 0.00249916 0.00906254 0.0218786 -0.016956 -0.062373 1041.26 1041.26 1002.46 
162 1 1 0.0272464 0.0778396 0.00992649 0 0 0 0.0295177 -0.00974006 0.0142404 0.0106917 0.000550108 0.0300702 0.0295177 -0.00974006 0.0142404 773.593 773.593 1001.83 
163 1 1 0.0486118 0.0798468 0.0211811 0 0 0 0.165003 0.014903 -0.00550453 0.00100357 -0.00748939 0.00349126 0.165003 0.014903 -0.00550453 546.324 546.324 1001.3 
164 1 1 0.0666174 0.0760969 0.0208434 0 0 0 0.210855 0.0192213 -0.00331189 0.00334183 -0.00257848 -0.000493069 0.210855 0.0192213 -0.00331189 482.952 482.952 1001.15 
165 1 1 0.0974161 0.0800803 0.0280672 0 0 0 0.303771 -0.0461337 0.0882444 -0.00153909 -0.00739234 0.0065579 0.303771 -0.0461337 0.0882444 480.23 480.23 1001.14 
166 1 1 0.115178 0.0780743 0.0230749 0 0 0 0.204197 0.0213435 0.0201061 -0.000271211 -0.000201709 0.00473522 0.204197 0.0213435 0.0201061 612.044 612.044 1001.45 
167 1 1 0.133357 0.0784964 0.0243125 0 0 0 0.228875 0.0261326 0.00336097 0.00164132 0.00406723 0.0032609 0.228875 0.0261326 0.00336097 595.182 595.182 1001.41 
168 1 1 0.125178 0.0780893 0.00997138 0 0 0 0.0450662 -0.0821604 0.00940437 -0.00130174 -0.000939928 -0.0107231 0.0450662 -0.0821604 0.00940437 741.506 741.506 1001.76 
169 1 1 0.154801 0.0775126 0.0221202 0 0 0 0.261096 -0.0147843 -0.0216088 0.00414853 0.0110082 0.00193341 0.261096 -0.0147843 -0.0216088 591.856 591.856 1001.4 
170 1 1 0.161654 0.0769354 0.00993926 0 0 0 0.139926 0.092092 -0.0276407 0.00772429 0.00709452 0.0223038 0.139926 0.092092 -0.0276407 700.313 700.313 1001.66 
171 1 1 0.00993932 0.0900596 0.0099704 0 0 0 -0.0386431 0.00354007 0.00989055 0.0379264 -0.0260749 -0.0120289 -0.0386431 0.00354007 0.00989055 1000.18 1000.18 1002.36 
172 1 1 0.0220464 0.0900643 0.0104182 0 0 0 -0.00275824 -0.0260196 0.211948 0.00500818 -0.0332887 -0.0583099 -0.00275824 -0.0260196 0.211948 961.452 961.452 1002.27 
173 1 1 0.0385106 0.0900219 0.009968 0 0 0 0.065775 0.0174113 0.0299891 0.000576575 -0.00040163 -0.00326068 0.065775 0.0174113 0.0299891 663.201 663.201 1001.57 
174 1 1 0.0515718 0.0900282 0.00996601 0 0 0 0.00602045 0.0146442 0.00576992 -0.00328014 -0.00180525 0.00294281 0.00602045 0.0146442 0.00576992 589.605 589.605 1001.4 
175 1 1 0.0720204 0.0900109 0.00994888 0 0 0 0.120341 0.0151828 0.0185545 -0.00241964 0.00675007 0.0153208 0.120341 0.0151828 0.0185545 636.423 636.423 1001.51 
176 1 1 0.101001 0.0900255 0.00991886 0 0 0 0.125837 -0.00794696 -0.0145913 0.000221875 0.00219202 0.0382279 0.125837 -0.00794696 -0.0145913 885.649 885.649 1002.1 
177 1 1 0.115577 0.0900141 0.00992864 0 0 0 0.18721 0.0157228 -0.00458464 -0.00657041 0.01295 0.0339825 0.18721 0.0157228 -0.00458464 824.113 824.113 1001.95 
178 1 1 0.126263 0.0900442 0.00998084 0 0 0 0.123245 -0.00868776 0.00672705 -0.000934854 -0.0176946 -0.0125219 0.123245 -0.00868776 0.00672705 811.385 811.385 1001.92 
179 1 1 0.136602 0.0900331 0.00997137 0 0 0 0.0493526 -0.0147064 -0.0279707 0.00417251 -0.000266949 0.00313514 0.0493526 -0.0147064 -0.0279707 803.441 803.441 1001.9 
180 1 1 0.143772 0.090007 0.00994375 0 0 0 0.137595 0.00360363 -0.0133535 -0.00046368 0.0231635 0.028373 0.137595 0.00360363 -0.0133535 803.785 803.785 1001.9 
181 1 1 0.0099418 0.00990508 0.0195804 0 0 0 0.0268743 -0.0275029 -0.0749284 0.0375342 0.0612244 -0.00231876 0.0268743 -0.0275029 -0.0749284 1076.97 1076.97 1002.54 