ITEM: TIMESTEP
166000
ITEM: NUMBER OF ATOMS
2655
ITEM: BOX BOUNDS ff ff ff
0 0.5
0 0.1
0 0.5
ITEM: ATOMS id type type x y z ix iy iz vx vy vz fx fy fz vx vy vz p p rho 
1 1 1 0.00999514 0.00998742 0.00998027 0 0 0 0.0194956 -0.00498206 0.000913529 -0.00639746 -0.00187898 -0.00271186 0.0194956 -0.00498206 0.000913529 421.029 421.029 1001 
2 1 1 0.0437237 0.00997581 0.00998631 0 0 0 0.00605803 0.00330025 0.00621792 0.00029458 0.0101793 -0.00986831 0.00605803 0.00330025 0.00621792 373.052 373.052 1000.89 
3 1 1 0.0392193 0.00998214 0.00998702 0 0 0 -0.0143863 -0.0118133 0.00622427 -0.000831584 0.00392667 -0.0103541 -0.0143863 -0.0118133 0.00622427 351.138 351.138 1000.83 
4 1 1 0.0767707 0.00998768 0.00997776 0 0 0 -0.0075044 -0.00741116 0.0077687 0.000420755 -0.00116906 -0.00102979 -0.0075044 -0.00741116 0.0077687 372.006 372.006 1000.88 
5 1 1 0.0814405 0.0099858 0.00997539 0 0 0 0.0161445 0.00718166 -0.00615509 0.000716337 0.000497673 0.000518715 0.0161445 0.00718166 -0.00615509 371.431 371.431 1000.88 
6 1 1 0.10053 0.00997878 0.0099844 0 0 0 -0.00586161 -0.00229452 0.00145872 0.000390973 0.00828284 -0.00894613 -0.00586161 -0.00229452 0.00145872 368.273 368.273 1000.87 
7 1 1 0.114951 0.00998365 0.00997787 0 0 0 -0.018735 0.00464591 -0.00459191 0.000115293 0.00254744 -0.00235956 -0.018735 0.00464591 -0.00459191 367.292 367.292 1000.87 
8 1 1 0.124452 0.00998774 0.00997414 0 0 0 -0.0275341 -0.000238218 0.000121809 0.00011817 -0.00177003 0.00121255 -0.0275341 -0.000238218 0.000121809 365.041 365.041 1000.87 
9 1 1 0.133999 0.00999052 0.00997163 0 0 0 -0.027422 -0.000154367 0.000728502 0.000363653 -0.00444986 0.00332798 -0.027422 -0.000154367 0.000728502 367.106 367.106 1000.87 
10 1 1 0.148232 0.00998854 0.00997423 0 0 0 -0.0385081 -0.00393479 0.00341607 -0.000282421 -0.00260963 0.000630061 -0.0385081 -0.00393479 0.00341607 356.623 356.623 1000.85 
11 1 1 0.00997707 0.0209469 0.00997773 0 0 0 -1.20903e-05 -0.011333 -0.000173258 0.0103283 0.0013815 -0.00177068 -1.20903e-05 -0.011333 -0.000173258 372.577 372.577 1000.88 
12 1 1 0.0368596 0.0372807 0.00997502 0 0 0 0.0237498 0.0394527 -0.00209109 -0.000584216 -0.000192106 0.000192554 0.0237498 0.0394527 -0.00209109 338.928 338.928 1000.81 
13 1 1 0.0223133 0.0212852 0.00997953 0 0 0 -0.0237335 -0.0116686 0.000766978 0.000311181 -0.000136071 -0.00218992 -0.0237335 -0.0116686 0.000766978 379.612 379.612 1000.9 
14 1 1 0.0909761 0.0235586 0.00997515 0 0 0 -0.0211355 0.0113892 -0.00214715 -0.000205588 -0.000718988 -0.00154276 -0.0211355 0.0113892 -0.00214715 331.737 331.737 1000.79 
15 1 1 0.0795142 0.022155 0.00997276 0 0 0 -0.0198399 -0.011403 0.000371813 -9.53054e-05 0.0005667 0.000344101 -0.0198399 -0.011403 0.000371813 340.828 340.828 1000.81 
16 1 1 0.111924 0.0228842 0.00997455 0 0 0 -0.0366461 0.0142207 -0.000405767 3.79285e-05 -0.000925343 -0.00125853 -0.0366461 0.0142207 -0.000405767 332.469 332.469 1000.79 
17 1 1 0.11229 0.0408695 0.00997389 0 0 0 -0.0170168 -0.00403468 -1.01448e-05 0.000301043 -0.00042979 -0.000920814 -0.0170168 -0.00403468 -1.01448e-05 326.782 326.782 1000.78 
18 1 1 0.141776 0.032111 0.0099716 0 0 0 0.00132269 -0.00836287 -0.000219764 -5.55039e-05 -0.000710754 -5.8124e-05 0.00132269 -0.00836287 -0.000219764 341.894 341.894 1000.81 
19 1 1 0.125152 0.023071 0.00997245 0 0 0 -0.0223253 0.0105881 0.000283193 -0.000147086 -0.000528194 0.000461966 -0.0223253 0.0105881 0.000283193 342.631 342.631 1000.81 
20 1 1 0.162823 0.0220222 0.00997333 0 0 0 -0.0109146 0.00777129 -0.00108036 -0.000730503 -1.14879e-05 -0.000316081 -0.0109146 0.00777129 -0.00108036 351.183 351.183 1000.83 
21 1 1 0.00999319 0.028582 0.00997457 0 0 0 -0.00813315 0.0162407 0.003037 -0.00520095 -0.000156561 0.000821941 -0.00813315 0.0162407 0.003037 374.175 374.175 1000.89 
22 1 1 0.0381562 0.0262255 0.009977 0 0 0 -0.061484 0.00735016 -0.00296371 0.000226526 6.80998e-05 -0.00191278 -0.061484 0.00735016 -0.00296371 331.402 331.402 1000.79 
23 1 1 0.0737319 0.0469565 0.00997384 0 0 0 -0.0203713 0.0137656 -0.000235838 0.000137305 0.000186823 -0.000492301 -0.0203713 0.0137656 -0.000235838 341.253 341.253 1000.81 
24 1 1 0.0954457 0.0285039 0.00997317 0 0 0 -0.0121155 -0.00125745 -0.000292382 0.00072901 -2.84331e-05 -0.000243153 -0.0121155 -0.00125745 -0.000292382 333.114 333.114 1000.79 
25 1 1 0.120215 0.0372541 0.00997339 0 0 0 -0.0214314 -0.00184545 0.000272542 -0.00067281 -0.000306088 -0.000701397 -0.0214314 -0.00184545 0.000272542 336.017 336.017 1000.8 
26 1 1 0.119007 0.0219327 0.00997239 0 0 0 -0.0340615 0.00521221 6.88547e-05 -0.000484914 0.000444222 0.000304769 -0.0340615 0.00521221 6.88547e-05 336.616 336.616 1000.8 
27 1 1 0.142868 0.0441901 0.00997154 0 0 0 -0.0114147 0.00407358 -0.000204685 -0.000129608 -9.10244e-05 0.000115231 -0.0114147 0.00407358 -0.000204685 346.378 346.378 1000.82 
28 1 1 0.119412 0.0311523 0.0099733 0 0 0 0.00206341 -0.00658978 0.000189476 -0.000220303 -0.000474294 -0.000544601 0.00206341 -0.00658978 0.000189476 339.368 339.368 1000.81 
29 1 1 0.150343 0.0223752 0.00997248 0 0 0 -0.0144239 -0.00439432 -0.000456194 -0.000368723 -0.000442928 -0.000289489 -0.0144239 -0.00439432 -0.000456194 343.293 343.293 1000.82 
30 1 1 0.154852 0.0310333 0.00997176 0 0 0 0.0159108 0.0156576 -0.000633369 5.36563e-05 -0.000307236 -8.90434e-05 0.0159108 0.0156576 -0.000633369 345.087 345.087 1000.82 
31 1 1 0.00998076 0.0382337 0.00998122 0 0 0 0.00522064 -0.0161376 -0.0023239 0.0068478 -0.000429551 -0.00657708 0.00522064 -0.0161376 -0.0023239 385.699 385.699 1000.92 
32 1 1 0.0221586 0.0413998 0.00997733 0 0 0 -0.0143642 0.0149982 0.000245507 0.000210521 -0.000711729 -0.00136913 -0.0143642 0.0149982 0.000245507 370.659 370.659 1000.88 
33 1 1 0.0595355 0.0258764 0.00997485 0 0 0 -0.0081748 0.000907129 0.000234287 -0.000183976 -0.000576818 -0.000655112 -0.0081748 0.000907129 0.000234287 328.054 328.054 1000.78 
34 1 1 0.0757277 0.0354996 0.0099733 0 0 0 -0.0580855 0.0167659 0.000112497 -0.000433664 -0.000355117 0.000464477 -0.0580855 0.0167659 0.000112497 335.335 335.335 1000.8 
35 1 1 0.0882406 0.0359345 0.00997261 0 0 0 -0.0267595 0.00162749 -0.00055342 -5.01724e-05 -9.03349e-05 -0.000170969 -0.0267595 0.00162749 -0.00055342 341.756 341.756 1000.81 
36 1 1 0.109361 0.0292437 0.00997415 0 0 0 -0.010012 0.0208874 8.34575e-05 -0.000843143 0.000129104 -0.000859204 -0.010012 0.0208874 8.34575e-05 335.14 335.14 1000.8 
37 1 1 0.131674 0.0377769 0.00997155 0 0 0 0.00449695 -0.000579038 0.000199779 -0.000822061 -7.36653e-05 -0.000268481 0.00449695 -0.000579038 0.000199779 335.411 335.411 1000.8 
38 1 1 0.137664 0.0391781 0.00997116 0 0 0 -0.0217305 0.00244831 5.0377e-06 -0.000689935 -0.000854547 -2.44525e-05 -0.0217305 0.00244831 5.0377e-06 341.072 341.072 1000.81 
39 1 1 0.163601 0.0367379 0.00997099 0 0 0 -5.45717e-05 0.009758 -0.000863367 -0.000745802 -5.75203e-05 -3.61304e-05 -5.45717e-05 0.009758 -0.000863367 350.533 350.533 1000.83 
40 1 1 0.176052 0.0369942 0.00997275 0 0 0 0.0185221 0.0149136 -0.000920747 -0.000595487 -0.000251097 -0.000123673 0.0185221 0.0149136 -0.000920747 351.845 351.845 1000.84 
41 1 1 0.00997643 0.0519316 0.0099808 0 0 0 0.000659443 -0.00615351 0.000516543 0.0121154 0.00013625 -0.0064971 0.000659443 -0.00615351 0.000516543 387.19 387.19 1000.92 
42 1 1 0.0429858 0.0615237 0.00997846 0 0 0 -0.00923238 0.0279937 0.00188887 -4.79649e-06 2.19684e-05 -0.00273671 -0.00923238 0.0279937 0.00188887 342 342 1000.81 
43 1 1 0.0610133 0.0503912 0.00997461 0 0 0 -0.00203386 0.0333241 -0.000602063 -0.000519397 -0.000122652 -0.00120155 -0.00203386 0.0333241 -0.000602063 342.876 342.876 1000.81 
44 1 1 0.0806008 0.042712 0.00997349 0 0 0 -0.0297625 0.00108985 0.000179707 0.000135872 0.000131144 0.000229015 -0.0297625 0.00108985 0.000179707 339.782 339.782 1000.81 
45 1 1 0.0919742 0.0475148 0.0099734 0 0 0 -0.0384647 -0.00851961 -0.0011874 0.00125771 0.000151238 -0.000218477 -0.0384647 -0.00851961 -0.0011874 333.368 333.368 1000.79 
46 1 1 0.105879 0.0501591 0.00997358 0 0 0 -0.0258766 -0.0192425 -0.00105647 -0.000143443 0.000385624 -0.00098661 -0.0258766 -0.0192425 -0.00105647 334.67 334.67 1000.79 
47 1 1 0.11219 0.0480225 0.00997399 0 0 0 0.00232271 0.032279 -0.00045306 0.00034242 8.62121e-05 -0.00101432 0.00232271 0.032279 -0.00045306 326.405 326.405 1000.78 
48 1 1 0.138407 0.0498935 0.0099716 0 0 0 -0.0202047 0.0137075 -9.92168e-05 -0.000361309 0.00018253 -4.35755e-05 -0.0202047 0.0137075 -9.92168e-05 342.578 342.578 1000.81 
49 1 1 0.123728 0.0488618 0.00997311 0 0 0 -0.0184786 -0.0103208 0.000202034 -0.000360113 -9.27815e-05 -0.00065405 -0.0184786 -0.0103208 0.000202034 339.816 339.816 1000.81 
50 1 1 0.163011 0.0516472 0.00997177 0 0 0 -0.00797972 0.0276739 -0.00103317 -0.000867456 -0.00023156 0.000101167 -0.00797972 0.0276739 -0.00103317 349.549 349.549 1000.83 
51 1 1 0.00999533 0.0617535 0.00996909 0 0 0 -0.00864359 -0.0103721 0.000138708 -0.00710418 0.000393978 0.00554918 -0.00864359 -0.0103721 0.000138708 375.484 375.484 1000.89 
52 1 1 0.025276 0.0536235 0.00997607 0 0 0 0.0204918 -0.00243829 -0.000270004 -0.00143221 -0.00200893 -0.000370211 0.0204918 -0.00243829 -0.000270004 360.978 360.978 1000.86 
53 1 1 0.0700877 0.0602728 0.0099726 0 0 0 0.0071932 -0.00486082 -0.000482472 -0.000753743 -0.00109687 0.000719758 0.0071932 -0.00486082 -0.000482472 338.504 338.504 1000.8 
54 1 1 0.0912662 0.0601081 0.00997271 0 0 0 -0.00288848 -0.021703 -0.000566901 -1.10131e-05 -0.000121645 -0.000282604 -0.00288848 -0.021703 -0.000566901 348.099 348.099 1000.83 
55 1 1 0.0966966 0.0569942 0.00997288 0 0 0 -0.00728184 -0.00665821 -0.000541019 7.59442e-05 -0.000543911 -0.000393678 -0.00728184 -0.00665821 -0.000541019 342.171 342.171 1000.81 
56 1 1 0.107626 0.0723448 0.00997296 0 0 0 -0.0299835 -0.0100256 -0.00056875 -0.000405077 -0.000721301 -0.000246122 -0.0299835 -0.0100256 -0.00056875 346.617 346.617 1000.82 
57 1 1 0.133341 0.0629916 0.00997239 0 0 0 -0.0102494 -0.0126516 -0.000305344 0.000218098 0.000275924 -0.000132447 -0.0102494 -0.0126516 -0.000305344 347.722 347.722 1000.83 
58 1 1 0.141106 0.0639449 0.009972 0 0 0 0.00626852 0.0127705 -0.000602441 -1.86351e-05 -6.25594e-05 -5.96677e-05 0.00626852 0.0127705 -0.000602441 342.676 342.676 1000.81 
59 1 1 0.158959 0.0635867 0.00997179 0 0 0 -0.00577726 0.0230496 -0.00110191 -0.000563284 0.000490372 3.35782e-05 -0.00577726 0.0230496 -0.00110191 348.45 348.45 1000.83 
60 1 1 0.169427 0.0611078 0.0099723 0 0 0 -0.0092499 -0.0117204 -0.00131302 -5.2845e-07 0.000305784 -4.35552e-05 -0.0092499 -0.0117204 -0.00131302 347.781 347.781 1000.83 
61 1 1 0.00999466 0.0716732 0.00996976 0 0 0 -0.000209708 0.0111551 -0.00295265 -0.00627322 0.000840932 0.00473537 -0.000209708 0.0111551 -0.00295265 370.259 370.259 1000.88 
62 1 1 0.0504739 0.0609836 0.00997519 0 0 0 -0.0260063 -0.0237761 -0.00140151 0.000464786 -1.72394e-05 -0.000479826 -0.0260063 -0.0237761 -0.00140151 335.849 335.849 1000.8 
63 1 1 0.0829282 0.0630978 0.00997446 0 0 0 0.0146637 -0.00755133 -0.000947351 3.79162e-05 0.000102938 -0.000779281 0.0146637 -0.00755133 -0.000947351 334.645 334.645 1000.79 
64 1 1 0.0957943 0.0683936 0.00997318 0 0 0 -0.0264417 -0.0354675 -0.000540537 9.56028e-05 -0.000264512 -0.000397287 -0.0264417 -0.0354675 -0.000540537 337.5 337.5 1000.8 
65 1 1 0.123507 0.0610222 0.00997214 0 0 0 0.00109826 -0.00658605 -0.000242543 -0.000508109 0.000122665 -0.000506668 0.00109826 -0.00658605 -0.000242543 344.288 344.288 1000.82 
66 1 1 0.118462 0.0768042 0.0099728 0 0 0 -0.0324414 -0.00503485 -0.00105327 -0.00034245 0.000391486 -0.000233145 -0.0324414 -0.00503485 -0.00105327 346.269 346.269 1000.82 
67 1 1 0.14285 0.0559627 0.00997194 0 0 0 -0.0119406 -0.00897844 -0.000411817 -0.000482534 -0.000277712 2.92136e-05 -0.0119406 -0.00897844 -0.000411817 343.248 343.248 1000.82 
68 1 1 0.12172 0.069377 0.00997253 0 0 0 -0.00573661 0.00891924 -0.000571533 0.000156162 -0.000629993 -0.000174325 -0.00573661 0.00891924 -0.000571533 348.144 348.144 1000.83 
69 1 1 0.149821 0.076484 0.00997208 0 0 0 -0.0228916 -0.0124296 -0.00170419 -1.52702e-05 0.000810208 0.000123811 -0.0228916 -0.0124296 -0.00170419 349.781 349.781 1000.83 
70 1 1 0.160459 0.0703542 0.00997258 0 0 0 -0.00377078 0.00605372 -0.00119378 -0.000301319 6.1459e-05 -0.000206564 -0.00377078 0.00605372 -0.00119378 348.17 348.17 1000.83 
71 1 1 0.00999186 0.0789582 0.00997453 0 0 0 0.00872664 0.00912535 -0.00481452 -0.00377889 0.00178783 0.000618786 0.00872664 0.00912535 -0.00481452 355.353 355.353 1000.84 
72 1 1 0.0303335 0.06365 0.00997803 0 0 0 0.0200139 0.0138576 0.00230659 0.00102646 0.000322009 -0.00191503 0.0200139 0.0138576 0.00230659 354.439 354.439 1000.84 
73 1 1 0.0347178 0.0783971 0.00997494 0 0 0 -0.0305592 0.0167834 -0.00297499 -0.000568554 0.00111723 0.000285809 -0.0305592 0.0167834 -0.00297499 347.052 347.052 1000.82 
74 1 1 0.096989 0.0771447 0.0099718 0 0 0 -0.028426 -0.0102873 -0.000443421 0.00032689 -1.11863e-05 4.65359e-05 -0.028426 -0.0102873 -0.000443421 352.783 352.783 1000.84 
75 1 1 0.0831053 0.0765295 0.00997467 0 0 0 0.013456 0.0142592 -0.000164888 0.000117067 0.000656709 -0.000872998 0.013456 0.0142592 -0.000164888 351.867 351.867 1000.84 
76 1 1 0.111742 0.0781329 0.00997311 0 0 0 -0.0488094 -0.00790085 -0.00110815 0.000429747 -0.00030645 -0.000343563 -0.0488094 -0.00790085 -0.00110815 346.712 346.712 1000.82 
77 1 1 0.114297 0.0598306 0.00997264 0 0 0 -0.0297936 0.0119899 -0.000242828 -0.000374609 -0.000692597 -0.000796055 -0.0297936 0.0119899 -0.000242828 339.155 339.155 1000.81 
78 1 1 0.147645 0.0687707 0.00997102 0 0 0 -0.012845 0.0101079 -0.00104416 -0.000390944 0.000102571 -6.56396e-05 -0.012845 0.0101079 -0.00104416 350.833 350.833 1000.83 
79 1 1 0.1249 0.0775554 0.00997215 0 0 0 -0.0321834 -0.00378168 -0.000939808 -0.000587584 9.99987e-06 -0.000204358 -0.0321834 -0.00378168 -0.000939808 353.143 353.143 1000.84 
80 1 1 0.162664 0.0772913 0.0099723 0 0 0 0.000398573 0.0204632 -0.00159176 3.28796e-05 0.000722468 0.000331939 0.000398573 0.0204632 -0.00159176 350.793 350.793 1000.83 
81 1 1 0.0099932 0.0900023 0.00995964 0 0 0 -0.00490339 0.0124291 0.0153081 -0.00315858 0.0113616 0.0179544 -0.00490339 0.0124291 0.0153081 344.899 344.899 1000.82 
82 1 1 0.0382822 0.090019 0.00997508 0 0 0 -0.0344825 -0.00143922 -0.00335573 -0.00222885 -0.00484418 0.00143623 -0.0344825 -0.00143922 -0.00335573 336.942 336.942 1000.8 
83 1 1 0.0318955 0.0900101 0.00996739 0 0 0 0.00514049 0.00288261 0.000295334 -0.000605663 0.00403304 0.00745812 0.00514049 0.00288261 0.000295334 335.051 335.051 1000.8 
84 1 1 0.0800521 0.0900084 0.00997025 0 0 0 0.00328623 -0.0044098 -0.00299809 -7.50707e-05 0.00549358 0.00560497 0.00328623 -0.0044098 -0.00299809 372.883 372.883 1000.89 
85 1 1 0.0851336 0.0900169 0.00997853 0 0 0 0.00583627 0.00651048 0.004528 -0.000289405 -0.00326922 -0.00353387 0.00583627 0.00651048 0.004528 372.095 372.095 1000.88 
86 1 1 0.10476 0.0900178 0.00997673 0 0 0 -0.00430809 -0.00406065 -0.00591577 -0.000540203 -0.00325441 -0.00211786 -0.00430809 -0.00406065 -0.00591577 378.112 378.112 1000.9 
87 1 1 0.118952 0.0900183 0.0099802 0 0 0 -0.0184094 0.00796527 0.00449034 -0.000206496 -0.00416753 -0.00561914 -0.0184094 0.00796527 0.00449034 380.301 380.301 1000.9 
88 1 1 0.12868 0.0900204 0.00998077 0 0 0 -0.0141651 0.00708562 0.00310816 -4.7736e-05 -0.00569293 -0.00662213 -0.0141651 0.00708562 0.00310816 372.905 372.905 1000.89 
89 1 1 0.138013 0.0900126 0.00997236 0 0 0 -0.0347733 -0.00569994 -0.00697494 0.000134918 0.00156338 0.00234706 -0.0347733 -0.00569994 -0.00697494 372.905 372.905 1000.89 
90 1 1 0.152397 0.0900081 0.00997162 0 0 0 -0.0316712 0.00656134 0.00495807 -0.000469409 0.00557917 0.00289871 -0.0316712 0.00656134 0.00495807 372.78 372.78 1000.89 
91 1 1 0.00999812 0.00998612 0.00996841 0 0 0 0.0305331 -0.00338637 0.000364236 -0.00937475 -0.000641293 0.00916384 0.0305331 -0.00338637 0.000364236 435.735 435.735 1001.03 
92 1 1 0.0351952 0.00999067 0.00997125 0 0 0 -0.00681591 -0.0081918 0.00807923 -0.00172333 -0.00490505 0.00507466 -0.00681591 -0.0081918 0.00807923 359.429 359.429 1000.85 
93 1 1 0.0490968 0.00997852 0.00997531 0 0 0 0.00850539 0.00241697 0.00063125 -0.000399027 0.00747606 0.00104898 0.00850539 0.00241697 0.00063125 369.609 369.609 1000.88 
94 1 1 0.0585403 0.00999665 0.00996945 0 0 0 0.00602366 -0.00209346 0.00284596 -0.000363541 -0.0100138 0.00700779 0.00602366 -0.00209346 0.00284596 363.2 363.2 1000.86 
95 1 1 0.0870716 0.00999075 0.00997404 0 0 0 0.00251576 -0.00607691 0.006858 -0.000626686 -0.00401214 0.00142787 0.00251576 -0.00607691 0.006858 374.127 374.127 1000.89 
96 1 1 0.110218 0.00997915 0.00998247 0 0 0 -0.00831253 0.00226411 -0.0026865 4.13001e-05 0.00748092 -0.00758233 -0.00831253 0.00226411 -0.0026865 367.684 367.684 1000.87 
97 1 1 0.119804 0.00999508 0.00996852 0 0 0 -0.022937 -0.00480631 0.00595521 0.000179356 -0.00910522 0.0070809 -0.022937 -0.00480631 0.00595521 369.499 369.499 1000.88 
98 1 1 0.129377 0.00997995 0.00998075 0 0 0 -0.0169147 0.00228256 -0.0037616 -0.000278333 0.00617373 -0.00554846 -0.0169147 0.00228256 -0.0037616 363.612 363.612 1000.86 
99 1 1 0.138758 0.00998514 0.00997714 0 0 0 -0.0461764 -0.00369149 0.00254211 2.76144e-05 0.000994977 -0.00249707 -0.0461764 -0.00369149 0.00254211 361.338 361.338 1000.86 
100 1 1 0.143606 0.00998385 0.00997652 0 0 0 -0.0171186 0.00418042 -0.00506469 -8.41035e-05 0.00215529 -0.00185446 -0.0171186 0.00418042 -0.00506469 359.898 359.898 1000.85 
101 1 1 0.00998974 0.0211036 0.0230024 0 0 0 0.00272802 0.00446188 0.00851918 -0.000306857 -0.000156824 -0.00135692 0.00272802 0.00446188 0.00851918 339.481 339.481 1000.81 
102 1 1 0.00998222 0.0230847 0.00998095 0 0 0 0.00620736 0.0122232 0.00139803 0.0051984 0.00145588 -0.00524719 0.00620736 0.0122232 0.00139803 381.993 381.993 1000.91 
103 1 1 0.0249494 0.0268772 0.0248497 0 0 0 -0.00797663 0.00727955 0.0290281 -0.0010676 -0.00130515 -0.0021173 -0.00797663 0.00727955 0.0290281 291.166 291.166 1000.69 
104 1 1 0.0768395 0.0222714 0.0337582 0 0 0 0.0249017 0.00876393 -0.0360758 -4.57202e-05 -0.000450502 -0.000828777 0.0249017 0.00876393 -0.0360758 269.102 269.102 1000.64 
105 1 1 0.119682 0.0376688 0.0551956 0 0 0 0.0570527 0.00293951 -0.0232442 -0.00133315 -7.62583e-05 -0.000877741 0.0570527 0.00293951 -0.0232442 126.099 126.099 1000.3 
106 1 1 0.13826 0.023224 0.009973 0 0 0 -0.023543 -0.00500161 -0.000301938 -0.00020156 -0.000432984 -0.000591798 -0.023543 -0.00500161 -0.000301938 341.091 341.091 1000.81 
107 1 1 0.129026 0.0221393 0.036163 0 0 0 0.0569614 -0.0146352 -0.00106216 -0.000720474 -0.000313265 -0.00119732 0.0569614 -0.0146352 -0.00106216 246.635 246.635 1000.59 
108 1 1 0.149276 0.034295 0.00997164 0 0 0 -0.0115108 0.00880566 -0.000473173 -0.000868886 -2.65767e-05 1.73128e-05 -0.0115108 0.00880566 -0.000473173 339.142 339.142 1000.81 
109 1 1 0.147937 0.0222151 0.0207576 0 0 0 0.049708 0.0155006 -0.00832589 0.000394724 -0.00045449 -0.000327787 0.049708 0.0155006 -0.00832589 343.914 343.914 1000.82 
110 1 1 0.18196 0.0231694 0.00997294 0 0 0 -0.0096151 -0.00904833 -0.00027992 -0.000457845 -0.000267087 -6.79393e-05 -0.0096151 -0.00904833 -0.00027992 364.112 364.112 1000.86 
111 1 1 0.00998589 0.0333565 0.0099786 0 0 0 -0.000532129 -0.00412821 -0.00102123 0.00195781 0.000192519 -0.00368917 -0.000532129 -0.00412821 -0.00102123 383.061 383.061 1000.91 
112 1 1 0.0224693 0.0233614 0.0420249 0 0 0 -0.0132399 -0.00875568 0.0399077 0.000752273 -0.000367027 -0.000253588 -0.0132399 -0.00875568 0.0399077 174.503 174.503 1000.41 
113 1 1 0.0496232 0.0345817 0.0099749 0 0 0 -0.0116824 -0.0660272 -0.00233892 -0.000751613 -0.000353665 -0.000400288 -0.0116824 -0.0660272 -0.00233892 340.353 340.353 1000.81 
114 1 1 0.0636 0.0220003 0.00997577 0 0 0 0.0206344 0.0166887 0.000881668 -0.000184723 -0.000570053 -0.00168412 0.0206344 0.0166887 0.000881668 335.522 335.522 1000.8 
115 1 1 0.0620587 0.0202776 0.0332287 0 0 0 -0.00817906 0.0237138 -0.00676649 -0.000410083 0.000326252 -0.00026401 -0.00817906 0.0237138 -0.00676649 252.777 252.777 1000.6 
116 1 1 0.107127 0.035813 0.00997349 0 0 0 -0.0357318 0.0247788 2.5443e-05 -0.000427627 0.000209536 -0.000583198 -0.0357318 0.0247788 2.5443e-05 333.792 333.792 1000.79 
117 1 1 0.126987 0.0222906 0.0256962 0 0 0 0.0305726 -0.00478331 0.0176709 0.000383555 0.000161121 -0.00112616 0.0305726 -0.00478331 0.0176709 301.041 301.041 1000.72 
118 1 1 0.141302 0.0229738 0.0217704 0 0 0 0.042836 -0.0129743 -0.00952003 -0.000594597 -0.000572617 -0.000602195 0.042836 -0.0129743 -0.00952003 347.27 347.27 1000.82 
119 1 1 0.156873 0.0232045 0.00997318 0 0 0 -0.033273 0.0100939 -0.000800139 -0.000297919 -0.000879429 -0.000311045 -0.033273 0.0100939 -0.000800139 348.756 348.756 1000.83 
120 1 1 0.155165 0.0220111 0.0378971 0 0 0 0.101765 -0.0239045 -0.00672094 -0.000211943 -0.000199296 -0.000982426 0.101765 -0.0239045 -0.00672094 246.957 246.957 1000.59 
121 1 1 0.00999435 0.0430539 0.00997448 0 0 0 -0.00592865 0.00307632 -0.000222496 -0.00716903 -0.000640261 0.00082864 -0.00592865 0.00307632 -0.000222496 371.228 371.228 1000.88 
122 1 1 0.023088 0.0341962 0.00997805 0 0 0 -0.00606843 0.0154075 -0.000151583 -0.00139867 -0.000163482 -0.00136885 -0.00606843 0.0154075 -0.000151583 369.649 369.649 1000.88 
123 1 1 0.0223372 0.0256444 0.00998026 0 0 0 0.014935 0.0050694 0.000304308 -0.000914648 0.000406583 -0.00307459 0.014935 0.0050694 0.000304308 375.099 375.099 1000.89 
124 1 1 0.0821371 0.0340431 0.00997324 0 0 0 -0.0313263 0.00495103 -0.000266748 0.000266615 -0.000544746 7.84294e-05 -0.0313263 0.00495103 -0.000266748 341.116 341.116 1000.81 
125 1 1 0.0944657 0.037844 0.00997312 0 0 0 -0.0378042 -0.00382512 -0.000757268 0.000148532 -0.000481269 -0.000336027 -0.0378042 -0.00382512 -0.000757268 332.195 332.195 1000.79 
126 1 1 0.130395 0.0296066 0.0099721 0 0 0 -0.00570262 -0.00309037 9.48907e-05 -0.000342711 -6.25187e-05 -0.000329557 -0.00570262 -0.00309037 9.48907e-05 340.237 340.237 1000.81 
127 1 1 0.170647 0.0405847 0.00997207 0 0 0 0.0014989 0.00123215 -0.000999214 -0.000101133 -0.000400947 -6.04747e-05 0.0014989 0.00123215 -0.000999214 349.273 349.273 1000.83 
128 1 1 0.150594 0.0424276 0.00997144 0 0 0 -0.0242831 0.00829279 -0.000525175 -0.000613915 -0.000521465 0.000145112 -0.0242831 0.00829279 -0.000525175 341.816 341.816 1000.81 
129 1 1 0.144257 0.0228846 0.00997225 0 0 0 -0.0120097 0.0136078 -0.000422374 -0.000504726 -0.000376805 -0.000526846 -0.0120097 0.0136078 -0.000422374 340.64 340.64 1000.81 
130 1 1 0.187557 0.0329195 0.00997214 0 0 0 -0.0171656 -0.000393059 -0.00092406 -0.00061862 -0.000226283 -0.000119611 -0.0171656 -0.000393059 -0.00092406 364.714 364.714 1000.87 
131 1 1 0.00999007 0.0477388 0.00997567 0 0 0 -0.00314916 0.00668923 0.00506448 -0.0022746 -0.000432977 -0.000759152 -0.00314916 0.00668923 0.00506448 384.307 384.307 1000.91 
132 1 1 0.03971 0.0437346 0.00997834 0 0 0 0.0103063 0.0214616 -0.00175399 -0.000114386 0.00013443 -0.00411359 0.0103063 0.0214616 -0.00175399 344.691 344.691 1000.82 
133 1 1 0.0460091 0.0517913 0.00997666 0 0 0 0.00951086 0.0061677 0.000238443 4.94371e-05 -0.000116548 -0.00215087 0.00951086 0.0061677 0.000238443 340.011 340.011 1000.81 
134 1 1 0.0863955 0.048568 0.00997282 0 0 0 -0.0214529 -0.0045169 1.5707e-05 -0.000106245 -0.000324341 0.000227654 -0.0214529 -0.0045169 1.5707e-05 339.621 339.621 1000.81 
135 1 1 0.131167 0.0498474 0.00997224 0 0 0 -0.0266511 -0.0129688 0.000106443 0.000276875 -0.000623563 -0.000334927 -0.0266511 -0.0129688 0.000106443 338.821 338.821 1000.8 
136 1 1 0.0985889 0.0512784 0.020522 0 0 0 0.0577658 0.0357707 0.0142295 -0.000112507 -0.000257237 -0.000588435 0.0577658 0.0357707 0.0142295 317.481 317.481 1000.75 
137 1 1 0.133602 0.0452193 0.0214368 0 0 0 0.0556075 0.00273668 -0.0197237 -0.000652275 -0.000734234 -0.000668442 0.0556075 0.00273668 -0.0197237 345.037 345.037 1000.82 
138 1 1 0.153943 0.049253 0.00997183 0 0 0 0.00691874 -0.0218028 -0.000741624 -5.63713e-05 0.0001585 0.000154445 0.00691874 -0.0218028 -0.000741624 341.323 341.323 1000.81 
139 1 1 0.158423 0.041904 0.00997105 0 0 0 -0.000947245 0.00680375 -0.000822565 -0.000221818 -0.000279503 0.000101639 -0.000947245 0.00680375 -0.000822565 346.079 346.079 1000.82 
140 1 1 0.173825 0.0535463 0.0204754 0 0 0 0.0551485 -0.000140292 0.00757372 -0.000591458 0.000325455 4.90151e-05 0.0551485 -0.000140292 0.00757372 363.168 363.168 1000.86 
141 1 1 0.00998232 0.0572639 0.00998059 0 0 0 0.0039038 -0.00231315 -0.00376184 0.00616691 -2.3279e-05 -0.0062308 0.0039038 -0.00231315 -0.00376184 388.019 388.019 1000.92 
142 1 1 0.0227765 0.0574965 0.00997671 0 0 0 0.0264148 0.0247985 -0.00260834 -0.0017746 0.000280663 -0.00114772 0.0264148 0.0247985 -0.00260834 373.381 373.381 1000.89 
143 1 1 0.0216756 0.0654891 0.00997226 0 0 0 -0.0243857 -0.0555479 -0.00475465 -0.000415704 -0.000500748 0.00338707 -0.0243857 -0.0555479 -0.00475465 370.955 370.955 1000.88 
144 1 1 0.0874644 0.0698405 0.00997476 0 0 0 -0.0180013 0.00641526 -0.00103152 -0.000683286 -0.000516214 -0.000945288 -0.0180013 0.00641526 -0.00103152 340.268 340.268 1000.81 
145 1 1 0.102767 0.0650494 0.00997234 0 0 0 0.0051607 0.015194 -0.000625043 -0.000308877 0.000100541 -0.000561107 0.0051607 0.015194 -0.000625043 339.507 339.507 1000.81 
146 1 1 0.132695 0.0696329 0.00997212 0 0 0 -0.021736 0.00183547 -0.00065554 -0.000190735 0.000233287 -0.00014189 -0.021736 0.00183547 -0.00065554 346.59 346.59 1000.82 
147 1 1 0.161903 0.0584466 0.00997208 0 0 0 -0.0211048 0.00161982 -0.00109982 0.000164552 -0.000261594 8.29694e-05 -0.0211048 0.00161982 -0.00109982 349.304 349.304 1000.83 
148 1 1 0.150169 0.0543347 0.00997145 0 0 0 -0.0182239 0.0061692 -0.000695801 -0.000441094 -4.24445e-05 0.000148786 -0.0182239 0.0061692 -0.000695801 338.581 338.581 1000.8 
149 1 1 0.14348 0.0775256 0.00997208 0 0 0 -0.0316017 0.0128104 -0.00159695 0.000278908 -2.84024e-05 -0.000236993 -0.0316017 0.0128104 -0.00159695 352.353 352.353 1000.84 
150 1 1 0.187023 0.0699408 0.00997231 0 0 0 0.00290026 0.00292402 -0.00163081 -0.000108664 -1.63154e-05 -3.67631e-05 0.00290026 0.00292402 -0.00163081 360.277 360.277 1000.86 
151 1 1 0.00999367 0.0657679 0.00996887 0 0 0 0.00253107 0.00263345 -0.00428979 -0.00581557 0.00181263 0.00569999 0.00253107 0.00263345 -0.00428979 380.896 380.896 1000.9 
152 1 1 0.023478 0.0784374 0.0254098 0 0 0 -0.0109114 0.00531803 0.0136575 -0.00106941 8.91118e-05 -0.000985863 -0.0109114 0.00531803 0.0136575 296.469 296.469 1000.7 
153 1 1 0.0566326 0.0760525 0.00997344 0 0 0 -0.00704252 0.0285625 0.000769567 -0.000865677 0.000825077 0.000818883 -0.00704252 0.0285625 0.000769567 336.794 336.794 1000.8 
154 1 1 0.06302 0.0782956 0.00996908 0 0 0 -0.0520669 0.023224 0.00290044 -4.45225e-05 -0.000986517 0.00443232 -0.0520669 0.023224 0.00290044 345.123 345.123 1000.82 
155 1 1 0.0556113 0.077997 0.0320103 0 0 0 -0.01164 0.0033786 -0.0292468 -0.000460149 -0.000557253 -0.00161479 -0.01164 0.0033786 -0.0292468 292.924 292.924 1000.7 
156 1 1 0.114324 0.0663077 0.00997299 0 0 0 0.0124945 -0.016689 -0.000414626 3.56676e-07 -0.000442225 -0.00046668 0.0124945 -0.016689 -0.000414626 339.289 339.289 1000.81 
157 1 1 0.13159 0.0756637 0.0211983 0 0 0 0.0433938 0.0262958 -0.0156467 -0.00021694 0.000928736 -0.000121677 0.0433938 0.0262958 -0.0156467 354.17 354.17 1000.84 
158 1 1 0.146241 0.0772979 0.0229325 0 0 0 0.058353 0.0242422 -0.00571758 0.00029602 0.000782575 -0.000782436 0.058353 0.0242422 -0.00571758 347.47 347.47 1000.83 
159 1 1 0.155964 0.0776201 0.00997215 0 0 0 -0.030184 -0.00919015 -0.00156529 -0.000330946 0.000625455 0.000100838 -0.030184 -0.00919015 -0.00156529 346.494 346.494 1000.82 
160 1 1 0.152691 0.0780258 0.0461075 0 0 0 0.0950725 0.00223193 -0.0226118 -0.000483114 7.24939e-05 -0.00106413 0.0950725 0.00223193 -0.0226118 197.118 197.118 1000.47 
161 1 1 0.0099919 0.0774131 0.0208922 0 0 0 -0.0114319 0.0224257 -0.0133105 -0.00295729 0.00200633 -0.00166195 -0.0114319 0.0224257 -0.0133105 352.988 352.988 1000.84 
162 1 1 0.0099784 0.0766558 0.00996606 0 0 0 0.014866 -0.0297046 0.00514798 0.00997183 0.00158374 0.00872966 0.014866 -0.0297046 0.00514798 386.843 386.843 1000.92 
163 1 1 0.0263422 0.0709368 0.00996937 0 0 0 0.00198474 0.0298068 0.00245883 -0.000704051 0.000306649 0.00608985 0.00198474 0.0298068 0.00245883 370.792 370.792 1000.88 
164 1 1 0.0813651 0.064447 0.0457111 0 0 0 0.0177364 -0.0284756 -0.0455015 -0.000543982 -0.000291144 -0.000588035 0.0177364 -0.0284756 -0.0455015 198.197 198.197 1000.47 
165 1 1 0.113381 0.0668223 0.0468708 0 0 0 0.0505778 0.0413625 -0.0325416 -0.000205633 -0.000433118 -0.000476992 0.0505778 0.0413625 -0.0325416 185.013 185.013 1000.44 
166 1 1 0.137957 0.0767137 0.00997238 0 0 0 -0.0192411 -0.00345192 -0.00134901 -9.00414e-05 2.78855e-05 -0.000418842 -0.0192411 -0.00345192 -0.00134901 350.09 350.09 1000.83 
167 1 1 0.129024 0.0780355 0.0335174 0 0 0 0.0415856 -0.0089744 -0.0115828 -0.000277633 -0.000587346 -0.00072671 0.0415856 -0.0089744 -0.0115828 297.607 297.607 1000.71 
168 1 1 0.150563 0.0624696 0.00997139 0 0 0 -0.0124507 -0.0146471 -0.000876534 0.0004649 -0.000189671 7.69958e-05 -0.0124507 -0.0146471 -0.000876534 345.361 345.361 1000.82 
169 1 1 0.153966 0.0778007 0.021351 0 0 0 0.0594477 -0.00561653 -0.0126423 -0.000462563 0.000116675 -0.000425832 0.0594477 -0.00561653 -0.0126423 356.253 356.253 1000.85 
170 1 1 0.181542 0.077608 0.00997217 0 0 0 -0.00793327 0.0200882 -0.00125889 -0.000472164 0.000155503 -0.000228204 -0.00793327 0.0200882 -0.00125889 355.187 355.187 1000.84 
171 1 1 0.00999 0.0900196 0.00998524 0 0 0 0.0137116 0.00409766 -0.000458727 -8.46481e-06 -0.00586946 -0.00793006 0.0137116 0.00409766 -0.000458727 357.026 357.026 1000.85 
172 1 1 0.0214187 0.0900168 0.00997047 0 0 0 -0.0369538 0.0126934 -0.00133231 -0.000356718 -0.00164131 0.00399688 -0.0369538 0.0126934 -0.00133231 344.806 344.806 1000.82 
173 1 1 0.0464086 0.0900112 0.00996549 0 0 0 0.00852082 0.0086139 0.00434392 -6.67367e-05 0.00346686 0.0105206 0.00852082 0.0086139 0.00434392 326.118 326.118 1000.77 