ITEM: TIMESTEP
66000
ITEM: NUMBER OF ATOMS
2655
ITEM: BOX BOUNDS ff ff ff
0 0.5
0 0.1
0 0.5
ITEM: ATOMS id type type x y z ix iy iz vx vy vz fx fy fz vx vy vz p p rho 
1 1 1 0.00998778 0.00997779 0.00998807 0 0 0 0.00369977 0.00218624 0.0155659 -0.00547463 0.00975916 -0.00345494 0.00369977 0.00218624 0.0155659 656.338 656.338 1001.56 
2 1 1 0.0292402 0.00997664 0.00998334 0 0 0 -0.0165637 0.00740284 0.00463628 0.00102166 0.00624307 -0.00526619 -0.0165637 0.00740284 0.00463628 604.409 604.409 1001.43 
3 1 1 0.0232788 0.00998679 0.00998829 0 0 0 -0.018595 -0.00150333 0.00131013 0.00326763 -0.00243184 -0.00717412 -0.018595 -0.00150333 0.00131013 639.67 639.67 1001.52 
4 1 1 0.0632814 0.00998955 0.00997917 0 0 0 -0.0689126 -0.0050787 0.00790204 0.00148869 -0.00333113 0.00223846 -0.0689126 -0.0050787 0.00790204 566.555 566.555 1001.34 
5 1 1 0.0688482 0.00998299 0.00998867 0 0 0 -0.0828747 -0.00936896 0.00911003 -0.000695639 0.00351975 -0.00771329 -0.0828747 -0.00936896 0.00911003 566.827 566.827 1001.34 
6 1 1 0.0873423 0.00998884 0.00999254 0 0 0 -0.162988 -0.000946407 0.00186922 0.00192997 -0.000347878 -0.00867285 -0.162988 -0.000946407 0.00186922 575.662 575.662 1001.37 
7 1 1 0.10196 0.00998988 0.00998805 0 0 0 -0.149372 -0.00693428 0.00355498 0.000614264 -0.00192518 -0.00134881 -0.149372 -0.00693428 0.00355498 548.045 548.045 1001.3 
8 1 1 0.111094 0.0100001 0.00998843 0 0 0 -0.203495 -0.000803858 0.00416477 0.00180303 -0.0255272 -0.00293532 -0.203495 -0.000803858 0.00416477 528.706 528.706 1001.25 
9 1 1 0.12018 0.00999024 0.00999159 0 0 0 -0.179291 0.00486116 -0.00519032 0.000371689 -0.00194944 -0.00605034 -0.179291 0.00486116 -0.00519032 517.516 517.516 1001.23 
10 1 1 0.134764 0.0099923 0.00997616 0 0 0 -0.173028 0.00174171 -0.00362853 0.0010316 -0.00415837 0.0112375 -0.173028 0.00174171 -0.00362853 519.635 519.635 1001.23 
11 1 1 0.00998174 0.0223549 0.00998039 0 0 0 0.0020268 -0.0349817 -0.00307748 -0.00025354 0.00224492 -0.00312758 0.0020268 -0.0349817 -0.00307748 534.495 534.495 1001.27 
12 1 1 0.0270899 0.031993 0.0099769 0 0 0 -0.0291622 0.00876355 0.0015537 -0.00120033 0.00140113 -0.0013635 -0.0291622 0.00876355 0.0015537 481.659 481.659 1001.14 
13 1 1 0.0265837 0.023136 0.00997819 0 0 0 -0.0497519 -0.011452 -0.00020685 -0.000440547 0.0011651 -0.00179745 -0.0497519 -0.011452 -0.00020685 516.999 516.999 1001.23 
14 1 1 0.0898493 0.0240004 0.00997884 0 0 0 0.0181777 0.0139572 0.00240373 0.000887288 -0.00119946 -1.55411e-05 0.0181777 0.0139572 0.00240373 436.675 436.675 1001.04 
15 1 1 0.0759815 0.0220919 0.00998018 0 0 0 -0.0265547 0.00701416 0.000791413 0.00124644 0.00176769 -0.00206087 -0.0265547 0.00701416 0.000791413 437.351 437.351 1001.04 
16 1 1 0.102995 0.0229515 0.00997888 0 0 0 -0.0404767 -0.0350639 0.00133331 0.00136043 -0.000295827 0.00211677 -0.0404767 -0.0350639 0.00133331 446.376 446.376 1001.06 
17 1 1 0.100447 0.0425349 0.00997759 0 0 0 -0.0753371 0.015967 0.000628952 8.9611e-05 -0.00057169 0.00249816 -0.0753371 0.015967 0.000628952 414.746 414.746 1000.98 
18 1 1 0.126933 0.0346908 0.00998007 0 0 0 -0.0277887 -0.00584201 0.000808844 -0.000573107 4.59677e-06 -0.000448604 -0.0277887 -0.00584201 0.000808844 418.068 418.068 1000.99 
19 1 1 0.113668 0.0251948 0.00998074 0 0 0 -0.0257094 -0.00805697 0.0017408 0.00141972 -0.00258945 -0.00104478 -0.0257094 -0.00805697 0.0017408 427.289 427.289 1001.01 
20 1 1 0.154836 0.0219113 0.00997615 0 0 0 -0.148101 -0.0239428 0.00106732 0.000743367 -0.00188994 0.00452707 -0.148101 -0.0239428 0.00106732 426.546 426.546 1001.01 
21 1 1 0.00997612 0.0252622 0.00998753 0 0 0 -0.00797025 0.0157648 -0.000697985 0.00529913 0.00307672 -0.00966429 -0.00797025 0.0157648 -0.000697985 517.048 517.048 1001.23 
22 1 1 0.0374263 0.0380517 0.00997532 0 0 0 0.0194329 0.0253957 0.00176392 0.00145425 0.00180329 -0.00127237 0.0194329 0.0253957 0.00176392 422.026 422.026 1001 
23 1 1 0.0552838 0.0380025 0.00997649 0 0 0 -0.0351432 0.0253037 0.00323157 0.000960852 0.00162731 -0.000377816 -0.0351432 0.0253037 0.00323157 391.102 391.102 1000.93 
24 1 1 0.0794071 0.0293524 0.00997943 0 0 0 0.0298437 0.00807088 0.000790277 0.000485621 0.000560408 -0.000876637 0.0298437 0.00807088 0.000790277 410.695 410.695 1000.97 
25 1 1 0.100948 0.0320589 0.00998083 0 0 0 0.021626 0.0646732 -0.00138118 0.000178171 0.000244891 -0.00129477 0.021626 0.0646732 -0.00138118 419.759 419.759 1001 
26 1 1 0.110016 0.0245667 0.00997797 0 0 0 -0.0392239 -0.00452173 0.00299797 -0.000900428 -0.00327982 0.00223666 -0.0392239 -0.00452173 0.00299797 433.531 433.531 1001.03 
27 1 1 0.13759 0.042388 0.00997897 0 0 0 -0.0417885 -0.00957623 0.000295006 -0.00103564 0.000191376 0.00058318 -0.0417885 -0.00957623 0.000295006 413.858 413.858 1000.98 
28 1 1 0.107942 0.0355718 0.0099792 0 0 0 -0.00392351 0.0124027 -0.00107491 -0.000290724 -0.000233358 0.000480927 -0.00392351 0.0124027 -0.00107491 414.628 414.628 1000.98 
29 1 1 0.141088 0.0224014 0.00998268 0 0 0 -0.100837 -0.0415055 -0.000444829 -0.000720207 -0.00213921 -0.00234359 -0.100837 -0.0415055 -0.000444829 448.123 448.123 1001.06 
30 1 1 0.149758 0.0297548 0.00997631 0 0 0 -0.0837301 -0.0114455 -0.000178576 -0.00044297 0.00110434 0.00396168 -0.0837301 -0.0114455 -0.000178576 411.643 411.643 1000.98 
31 1 1 0.00997944 0.0373429 0.00998441 0 0 0 0.00481586 0.00513833 0.00119163 0.00300604 -0.00126796 -0.00598031 0.00481586 0.00513833 0.00119163 498.41 498.41 1001.18 
32 1 1 0.0219201 0.0434852 0.00997298 0 0 0 0.0211093 -0.00785155 0.00178729 0.00136508 -0.00159812 -0.00025976 0.0211093 -0.00785155 0.00178729 472.126 472.126 1001.12 
33 1 1 0.0510758 0.0374178 0.00997656 0 0 0 0.0111363 0.000178326 0.00192207 -0.00109342 0.00145076 -0.000899032 0.0111363 0.000178326 0.00192207 390.489 390.489 1000.93 
34 1 1 0.0679983 0.0382614 0.0099781 0 0 0 0.00695326 0.0061942 0.00131473 0.000750691 -0.000338022 -0.000139058 0.00695326 0.0061942 0.00131473 403.909 403.909 1000.96 
35 1 1 0.0752702 0.0399189 0.00997903 0 0 0 0.0305269 0.00490655 0.000597955 -0.000729912 0.000775214 -0.000453727 0.0305269 0.00490655 0.000597955 399.883 399.883 1000.95 
36 1 1 0.0914445 0.0314252 0.00998095 0 0 0 0.0104738 -0.0317899 -0.000401589 0.000323593 0.000961399 -0.00210295 0.0104738 -0.0317899 -0.000401589 417.699 417.699 1000.99 
37 1 1 0.12039 0.0408396 0.00998086 0 0 0 -0.0349004 0.0111316 0.000669673 -0.000144288 -0.000422103 -0.00173985 -0.0349004 0.0111316 0.000669673 409.519 409.519 1000.97 
38 1 1 0.129923 0.0404878 0.00998006 0 0 0 -0.0666803 0.0311347 0.0004681 2.91946e-05 -0.000780344 -9.76049e-05 -0.0666803 0.0311347 0.0004681 417.502 417.502 1000.99 
39 1 1 0.144546 0.0436049 0.00997969 0 0 0 -0.0172861 -0.00686267 8.5533e-05 -4.58722e-05 0.000522809 0.000230324 -0.0172861 -0.00686267 8.5533e-05 410.563 410.563 1000.97 
40 1 1 0.158373 0.0397465 0.00998024 0 0 0 -0.0688852 -0.0202897 -0.00389777 0.00183895 -0.00109488 0.000402208 -0.0688852 -0.0202897 -0.00389777 396.544 396.544 1000.94 
41 1 1 0.00999238 0.0532254 0.00997206 0 0 0 -0.00215563 0.0555496 0.00562651 -0.00897751 -0.0017756 0.00392889 -0.00215563 0.0555496 0.00562651 474.052 474.052 1001.12 
42 1 1 0.0353183 0.0500035 0.00997456 0 0 0 -0.0198146 0.000744379 0.000765751 -0.000119727 0.000383315 -0.000506115 -0.0198146 0.000744379 0.000765751 422.829 422.829 1001 
43 1 1 0.0509545 0.0500086 0.00997502 0 0 0 0.00607085 0.00142448 0.000152509 0.00108766 0.000437842 0.00123155 0.00607085 0.00142448 0.000152509 392.436 392.436 1000.93 
44 1 1 0.0699194 0.0499966 0.00997708 0 0 0 -0.0192992 0.000611429 0.000886351 0.000604472 0.000387848 0.000518787 -0.0192992 0.000611429 0.000886351 396.668 396.668 1000.94 
45 1 1 0.08124 0.0499995 0.00998053 0 0 0 -0.00660251 0.000588342 -4.78812e-06 0.00268402 0.000333957 -0.000744459 -0.00660251 0.000588342 -4.78812e-06 396.731 396.731 1000.94 
46 1 1 0.0897426 0.0500004 0.00998054 0 0 0 -0.0198866 0.000366502 -0.00067986 -0.00105588 0.000279111 -0.00204038 -0.0198866 0.000366502 -0.00067986 399.098 399.098 1000.95 
47 1 1 0.0971567 0.0499986 0.00997676 0 0 0 -0.0106642 0.000233137 0.0015551 -0.000329313 0.000236445 0.002751 -0.0106642 0.000233137 0.0015551 406.763 406.763 1000.97 
48 1 1 0.127461 0.0499984 0.00998226 0 0 0 -0.027272 0.000121995 -0.000477153 -0.000882426 6.74475e-05 -0.00181889 -0.027272 0.000121995 -0.000477153 412.268 412.268 1000.98 
49 1 1 0.113467 0.0499978 0.0099781 0 0 0 -0.0644583 5.5234e-05 0.000391496 -2.99129e-06 0.000141862 0.00180607 -0.0644583 5.5234e-05 0.000391496 412.719 412.719 1000.98 
50 1 1 0.156973 0.0500029 0.00998174 0 0 0 -0.0881538 4.87355e-08 -0.00025008 -0.000828762 -9.3964e-06 -0.00161186 -0.0881538 4.87355e-08 -0.00025008 393.207 393.207 1000.93 
51 1 1 0.00998084 0.0626736 0.00998365 0 0 0 0.00435558 -0.00336634 0.00115002 0.00183379 0.00182969 -0.00480185 0.00435558 -0.00336634 0.00115002 491.329 491.329 1001.17 
52 1 1 0.0219069 0.0565344 0.00997234 0 0 0 0.0211036 0.00937996 0.00107662 0.00149955 0.00213426 0.000700356 0.0211036 0.00937996 0.00107662 466.271 466.271 1001.11 
53 1 1 0.0510521 0.0626094 0.00997673 0 0 0 0.011891 0.00215196 0.00156749 -0.000913685 -0.000591983 -0.000658543 0.011891 0.00215196 0.00156749 379.38 379.38 1000.9 
54 1 1 0.0679958 0.0617339 0.0099782 0 0 0 0.00645141 -0.00447736 0.00137949 0.000607088 0.00112126 0.00016571 0.00645141 -0.00447736 0.00137949 394.76 394.76 1000.94 
55 1 1 0.0752616 0.0600909 0.00997893 0 0 0 0.0301658 -0.00346087 0.000698158 -0.000844897 -0.000126917 -8.05538e-06 0.0301658 -0.00346087 0.000698158 392.432 392.432 1000.93 
56 1 1 0.0914439 0.0685703 0.00998099 0 0 0 0.00985148 0.0321016 -5.19917e-05 0.000145127 -0.000540043 -0.00179712 0.00985148 0.0321016 -5.19917e-05 408.423 408.423 1000.97 
57 1 1 0.120388 0.0591551 0.00998096 0 0 0 -0.0350782 -0.0110053 0.000237566 -0.000259461 0.000584224 -0.00177211 -0.0350782 -0.0110053 0.000237566 407.443 407.443 1000.97 
58 1 1 0.12993 0.0595032 0.00997999 0 0 0 -0.0667364 -0.0313333 9.38599e-05 -5.67303e-05 0.000818514 7.44561e-06 -0.0667364 -0.0313333 9.38599e-05 416.339 416.339 1000.99 
59 1 1 0.144548 0.0563984 0.00997979 0 0 0 -0.0171433 0.00687034 -0.000109969 -6.58585e-05 -0.000530185 0.000121858 -0.0171433 0.00687034 -0.000109969 410.468 410.468 1000.97 
60 1 1 0.158369 0.0602681 0.00997986 0 0 0 -0.0691203 0.020532 -0.00409187 0.00182759 0.0010758 0.000771672 -0.0691203 0.020532 -0.00409187 396.674 396.674 1000.94 
61 1 1 0.00997272 0.0747473 0.00998535 0 0 0 -0.00325894 -0.0145483 -0.0029948 0.00938663 -0.001354 -0.00686735 -0.00325894 -0.0145483 -0.0029948 500.868 500.868 1001.19 
62 1 1 0.0374249 0.0619622 0.00997551 0 0 0 0.0190182 -0.0224992 0.0015764 0.00153298 -0.00116397 -0.000938571 0.0190182 -0.0224992 0.0015764 412.111 412.111 1000.98 
63 1 1 0.0552814 0.0620313 0.00997668 0 0 0 -0.0354734 -0.0229526 0.00316025 0.000940174 -0.000697955 -0.000152351 -0.0354734 -0.0229526 0.00316025 380.776 380.776 1000.9 
64 1 1 0.0793974 0.0706491 0.00997974 0 0 0 0.0284689 -0.00707154 0.00093976 0.000163717 -8.56804e-05 -0.000671572 0.0284689 -0.00707154 0.00093976 399.243 399.243 1000.95 
65 1 1 0.100948 0.0679433 0.00998086 0 0 0 0.0213986 -0.0643038 -0.00116875 3.95893e-06 0.00011535 -0.00107463 0.0213986 -0.0643038 -0.00116875 412.376 412.376 1000.98 
66 1 1 0.110017 0.0754219 0.00997877 0 0 0 -0.0390686 0.0044838 0.00205511 -0.00117449 0.00344067 0.00166216 -0.0390686 0.0044838 0.00205511 424.957 424.957 1001.01 
67 1 1 0.137591 0.0576034 0.00997892 0 0 0 -0.0419284 0.00933747 6.88075e-05 -0.00108374 -0.0001864 0.000644426 -0.0419284 0.00933747 6.88075e-05 413.371 413.371 1000.98 
68 1 1 0.107941 0.0644247 0.0099795 0 0 0 -0.00407558 -0.0120486 -0.00123828 -0.000439096 0.000540199 0.000349632 -0.00407558 -0.0120486 -0.00123828 409.496 409.496 1000.97 
69 1 1 0.141101 0.0775844 0.00998203 0 0 0 -0.100744 0.0408388 -0.00116099 -0.000917655 0.00179466 -0.0017645 -0.100744 0.0408388 -0.00116099 450.37 450.37 1001.07 
70 1 1 0.149757 0.0702484 0.00997636 0 0 0 -0.0836053 0.0114555 -0.000302145 -0.000424844 -0.00127929 0.00386023 -0.0836053 0.0114555 -0.000302145 412.381 412.381 1000.98 
71 1 1 0.00998589 0.0776285 0.0099781 0 0 0 0.00496124 0.035015 -0.00693368 -0.0035593 6.5245e-05 -0.000216967 0.00496124 0.035015 -0.00693368 509.262 509.262 1001.21 
72 1 1 0.0270655 0.0680059 0.00997714 0 0 0 -0.0287686 -0.00668356 0.0013299 -0.000995626 -0.000926177 -0.00106546 -0.0287686 -0.00668356 0.0013299 471.083 471.083 1001.12 
73 1 1 0.0265847 0.0768608 0.00997882 0 0 0 -0.0520978 0.0118957 -0.00209961 -0.000411815 0.00012466 -0.00177471 -0.0520978 0.0118957 -0.00209961 499.89 499.89 1001.19 
74 1 1 0.0898406 0.0759989 0.0099788 0 0 0 0.0173004 -0.0136983 0.00383421 0.000674848 0.00159653 0.000504558 0.0173004 -0.0136983 0.00383421 423.48 423.48 1001.01 
75 1 1 0.0759904 0.0779035 0.00998073 0 0 0 -0.0279932 -0.00616596 0.00121279 0.000602965 -0.00105002 -0.00190432 -0.0279932 -0.00616596 0.00121279 420.308 420.308 1001 
76 1 1 0.102995 0.0770494 0.00997903 0 0 0 -0.0404008 0.0350289 0.0013356 0.00107341 0.000584793 0.00226342 -0.0404008 0.0350289 0.0013356 435.968 435.968 1001.03 
77 1 1 0.100443 0.0574626 0.00997766 0 0 0 -0.0755231 -0.0156436 0.000589277 1.00985e-05 0.000964741 0.00254146 -0.0755231 -0.0156436 0.000589277 411.421 411.421 1000.98 
78 1 1 0.126926 0.0652986 0.0099802 0 0 0 -0.0281743 0.00596015 3.92542e-05 -0.000744887 1.94947e-06 -0.0005344 -0.0281743 0.00596015 3.92542e-05 416.685 416.685 1000.99 
79 1 1 0.113673 0.0748104 0.00998116 0 0 0 -0.0260189 0.00841622 0.00113622 0.00103126 0.00273963 -0.00126438 -0.0260189 0.00841622 0.00113622 420.088 420.088 1001 
80 1 1 0.154837 0.0780878 0.00997616 0 0 0 -0.148056 0.0234461 0.000973801 0.000888096 0.00141271 0.00442693 -0.148056 0.0234461 0.000973801 430.165 430.165 1001.02 
81 1 1 0.00997958 0.0900182 0.00999225 0 0 0 0.0147663 -0.0107945 -0.012611 0.0040332 -0.00601381 -0.00772071 0.0147663 -0.0107945 -0.012611 575.277 575.277 1001.36 
82 1 1 0.0292625 0.0900233 0.00999245 0 0 0 -0.0150518 -0.00848657 -0.00751595 0.000745909 -0.00672328 -0.0134449 -0.0150518 -0.00848657 -0.00751595 552.179 552.179 1001.31 
83 1 1 0.0232977 0.0900137 0.00998109 0 0 0 -0.0197029 -0.00243458 -0.00238886 0.0023988 0.00155674 0.000235373 -0.0197029 -0.00243458 -0.00238886 585.633 585.633 1001.39 
84 1 1 0.0632972 0.090013 0.00998041 0 0 0 -0.0694837 0.00474302 0.00562199 0.000797099 -0.000167887 0.0014218 -0.0694837 0.00474302 0.00562199 516.648 516.648 1001.23 
85 1 1 0.068864 0.0900183 0.0099893 0 0 0 -0.0843881 0.00827702 0.0071795 -0.00156822 -0.00559064 -0.00766648 -0.0843881 0.00827702 0.0071795 525.745 525.745 1001.25 
86 1 1 0.0873547 0.0900108 0.00999241 0 0 0 -0.164213 0.000461744 0.00288507 0.00152441 0.000291926 -0.00799494 -0.164213 0.000461744 0.00288507 549.776 549.776 1001.3 
87 1 1 0.101969 0.0900016 0.00999093 0 0 0 -0.148916 0.00367271 0.00368124 0.000121352 0.0100888 -0.00403062 -0.148916 0.00367271 0.00368124 531.42 531.42 1001.26 
88 1 1 0.111102 0.0900086 0.00998785 0 0 0 -0.203263 -0.00335139 0.00184769 0.00129295 0.00154535 -0.00220151 -0.203263 -0.00335139 0.00184769 515.754 515.754 1001.22 
89 1 1 0.12019 0.0900093 0.00999256 0 0 0 -0.180352 0.00488698 -0.00187593 -0.000335601 0.00232152 -0.00696635 -0.180352 0.00488698 -0.00187593 511.397 511.397 1001.21 
90 1 1 0.134775 0.0900079 0.00997799 0 0 0 -0.172964 -0.000438213 -0.00481602 0.000505648 0.00402185 0.00934128 -0.172964 -0.000438213 -0.00481602 524.308 524.308 1001.24 
91 1 1 0.00996509 0.00999115 0.0100007 0 0 0 -0.00147497 0.00656655 -0.0141279 0.0171813 -0.00350101 -0.0339869 -0.00147497 0.00656655 -0.0141279 656.141 656.141 1001.55 
92 1 1 0.0214578 0.00998423 0.0099883 0 0 0 0.0160164 0.00199114 -0.00512189 0.00208566 0.000275353 -0.00656592 0.0160164 0.00199114 -0.00512189 646.837 646.837 1001.53 
93 1 1 0.035261 0.00998415 0.00996861 0 0 0 0.0247502 -0.00370046 -0.00183737 0.000236766 -0.000524779 0.00981632 0.0247502 -0.00370046 -0.00183737 568.732 568.732 1001.35 
94 1 1 0.0444948 0.00997989 0.00998792 0 0 0 -0.0180065 -0.00583929 0.0133895 -0.000944643 0.0053267 -0.00734077 -0.0180065 -0.00583929 0.0133895 547.501 547.501 1001.3 
95 1 1 0.0732273 0.00998058 0.00999266 0 0 0 -0.116959 -0.00211336 0.000838657 0.000255125 0.00618624 -0.011058 -0.116959 -0.00211336 0.000838657 566.852 566.852 1001.34 
96 1 1 0.0968794 0.00998036 0.00998472 0 0 0 -0.186934 0.00918679 -0.00684426 0.00203651 0.00728597 0.00151336 -0.186934 0.00918679 -0.00684426 564.131 564.131 1001.34 
97 1 1 0.106612 0.00999214 0.00998464 0 0 0 -0.122858 -0.00250751 -0.0100649 0.000846408 -0.00313162 0.00172092 -0.122858 -0.00250751 -0.0100649 536.255 536.255 1001.27 
98 1 1 0.115643 0.00999602 0.00998685 0 0 0 -0.099723 -4.44079e-05 0.00173851 0.000519935 -0.00644973 -0.00163612 -0.099723 -4.44079e-05 0.00173851 522.44 522.44 1001.24 
99 1 1 0.125256 0.00997766 0.00999305 0 0 0 -0.184282 -0.00450305 0.000413961 -0.000734149 0.00918588 -0.00685074 -0.184282 -0.00450305 0.000413961 516.763 516.763 1001.23 
100 1 1 0.129727 0.0099844 0.00998688 0 0 0 -0.130906 0.00621497 -0.0108348 0.000875028 0.00265948 8.99377e-05 -0.130906 0.00621497 -0.0108348 519.69 519.69 1001.23 
101 1 1 0.00997773 0.0233035 0.0248066 0 0 0 0.00601247 0.0276902 -0.020561 0.0059825 -0.000842842 -0.00170193 0.00601247 0.0276902 -0.020561 326.495 326.495 1000.78 
102 1 1 0.0207388 0.0231379 0.00997937 0 0 0 0.0029275 -0.00379234 -0.00136583 0.00190131 0.00145505 -0.00332456 0.0029275 -0.00379234 -0.00136583 539.605 539.605 1001.28 
103 1 1 0.0383616 0.0219063 0.0227136 0 0 0 -0.0902711 -0.0155773 0.00993661 0.000639563 0.00171947 -0.000251065 -0.0902711 -0.0155773 0.00993661 301.493 301.493 1000.72 
104 1 1 0.0873319 0.0219828 0.0312034 0 0 0 0.0332571 -0.00389557 0.0485059 -0.000193029 0.000727539 0.000581236 0.0332571 -0.00389557 0.0485059 217.48 217.48 1000.52 
105 1 1 0.128114 0.0216494 0.0427512 0 0 0 -0.0156747 -0.0163945 0.0029846 0.000262176 -0.000836724 -0.00124019 -0.0156747 -0.0163945 0.0029846 107.958 107.958 1000.26 
106 1 1 0.124983 0.0221818 0.00998038 0 0 0 -0.0176079 0.0287016 0.0125515 -0.00160885 0.000167071 0.00115545 -0.0176079 0.0287016 0.0125515 446.621 446.621 1001.06 
107 1 1 0.173422 0.0225864 0.0255276 0 0 0 -0.0559874 0.027866 0.0425731 -5.95165e-05 -0.00092754 -0.0016405 -0.0559874 0.027866 0.0425731 254.118 254.118 1000.6 
108 1 1 0.135117 0.0279802 0.00998166 0 0 0 -0.0233003 0.0235201 -0.00399301 0.000213857 -0.00164748 -0.000776503 -0.0233003 0.0235201 -0.00399301 431.407 431.407 1001.02 
109 1 1 0.194775 0.0226573 0.0228031 0 0 0 -0.00405274 -0.0229076 0.0229153 -0.00118351 0.000933516 -0.00156545 -0.00405274 -0.0229076 0.0229153 307.724 307.724 1000.73 
110 1 1 0.175765 0.0232565 0.00998018 0 0 0 -0.13335 -0.0152883 0.00117367 0.00132803 -0.000236812 -0.00110206 -0.13335 -0.0152883 0.00117367 443.455 443.455 1001.05 
111 1 1 0.00997894 0.0314249 0.00998316 0 0 0 0.000924514 -0.0272623 0.00107218 0.00213064 0.000433835 -0.00349884 0.000924514 -0.0272623 0.00107218 506.529 506.529 1001.2 
112 1 1 0.021521 0.0226509 0.037239 0 0 0 -0.031205 0.0400865 0.118006 -0.000439879 0.000257052 0.00192148 -0.031205 0.0400865 0.118006 212.703 212.703 1000.51 
113 1 1 0.0426084 0.0323115 0.0099779 0 0 0 -0.024889 -0.0268414 0.000496665 0.00124697 0.00169214 -0.00213119 -0.024889 -0.0268414 0.000496665 411.63 411.63 1000.98 
114 1 1 0.0547031 0.0228819 0.00997744 0 0 0 0.00671735 0.0016697 0.000635134 0.000651142 0.00175296 -0.000693512 0.00671735 0.0016697 0.000635134 416.265 416.265 1000.99 
115 1 1 0.0862275 0.0216439 0.0225164 0 0 0 -0.024469 0.015929 -0.00459985 -1.87433e-05 0.00080073 -0.000986375 -0.024469 0.015929 -0.00459985 259.947 259.947 1000.62 
116 1 1 0.0941938 0.0397526 0.00997928 0 0 0 -0.0233383 -0.0514418 -6.59052e-05 0.00041264 -0.0011796 -0.00023767 -0.0233383 -0.0514418 -6.59052e-05 413.232 413.232 1000.98 
117 1 1 0.168434 0.0295205 0.0246187 0 0 0 -0.0249024 -0.00860749 -0.0568253 0.000187025 -2.17574e-05 -0.00175703 -0.0249024 -0.00860749 -0.0568253 249.466 249.466 1000.59 
118 1 1 0.187103 0.0201308 0.0228642 0 0 0 -0.000309741 0.0603557 -0.0100273 -0.000371793 0.00145078 -0.000205624 -0.000309741 0.0603557 -0.0100273 298.563 298.563 1000.71 
119 1 1 0.146307 0.0243 0.00998072 0 0 0 -0.0658745 -0.0125087 0.000951607 0.000713004 -0.00263381 -0.000400772 -0.0658745 -0.0125087 0.000951607 432.088 432.088 1001.03 
120 1 1 0.200535 0.0220216 0.0252925 0 0 0 -0.0237374 0.0351858 -0.0243839 -0.000589647 0.000341392 -0.00171635 -0.0237374 0.0351858 -0.0243839 286.655 286.655 1000.68 
121 1 1 0.00997706 0.0419705 0.00997854 0 0 0 0.00820206 0.0304537 -0.00236133 0.00617258 0.000204119 -0.00158277 0.00820206 0.0304537 -0.00236133 486.139 486.139 1001.15 
122 1 1 0.0204485 0.0337021 0.00997947 0 0 0 -0.0525144 -0.0203573 -0.000428739 0.00255966 0.00269646 -0.00397137 -0.0525144 -0.0203573 -0.000428739 506.558 506.558 1001.2 
123 1 1 0.0338603 0.0214695 0.00998088 0 0 0 -0.0131678 0.0169186 0.00272637 0.00194812 0.00431157 -0.00562543 -0.0131678 0.0169186 0.00272637 484.193 484.193 1001.15 
124 1 1 0.0711764 0.0291064 0.00997791 0 0 0 -0.0195505 0.00556114 0.00233034 3.9696e-05 0.00120267 -0.000597786 -0.0195505 0.00556114 0.00233034 408.338 408.338 1000.97 
125 1 1 0.0810959 0.0380027 0.00997959 0 0 0 -0.0383452 -0.0460476 0.000888216 0.000636512 0.000256213 -0.00143712 -0.0383452 -0.0460476 0.000888216 401.843 401.843 1000.95 
126 1 1 0.117528 0.0355641 0.00998002 0 0 0 -0.0239147 0.00145632 0.00163393 5.88139e-06 -0.000174155 -0.00094787 -0.0239147 0.00145632 0.00163393 408.896 408.896 1000.97 
127 1 1 0.147288 0.0383911 0.00997901 0 0 0 -0.0499938 -0.00854418 -0.000179463 0.000712004 -0.00264447 0.000760853 -0.0499938 -0.00854418 -0.000179463 406.86 406.86 1000.97 
128 1 1 0.137862 0.0332697 0.00998054 0 0 0 -0.0813236 0.0225017 1.68508e-05 0.00150351 0.000711288 -0.00067774 -0.0813236 0.0225017 1.68508e-05 419.176 419.176 1001 
129 1 1 0.130361 0.0230566 0.00998467 0 0 0 -0.064733 -0.00979896 -0.00352461 0.0027474 -0.000855667 -0.00235595 -0.064733 -0.00979896 -0.00352461 449.234 449.234 1001.07 
130 1 1 0.175436 0.0315549 0.0099814 0 0 0 -0.0539331 0.0200446 -0.0015148 0.00096551 -0.00137406 -0.00151618 -0.0539331 0.0200446 -0.0015148 420.787 420.787 1001 
131 1 1 0.00998176 0.0468756 0.00997286 0 0 0 -0.00509075 -0.0518776 0.00205521 0.00159349 0.00220197 0.00297558 -0.00509075 -0.0518776 0.00205521 475.103 475.103 1001.13 
132 1 1 0.0229408 0.0500229 0.00997424 0 0 0 0.0164054 0.00149391 0.00257001 -0.000673235 0.000309112 -0.000199405 0.0164054 0.00149391 0.00257001 459.494 459.494 1001.09 
133 1 1 0.0434837 0.0499919 0.00997681 0 0 0 -0.0768949 0.000788159 0.00280981 0.000178753 0.000418359 -0.00205812 -0.0768949 0.000788159 0.00280981 404.136 404.136 1000.96 
134 1 1 0.0779416 0.050002 0.00997977 0 0 0 0.0461579 0.000597305 0.00070599 -0.00196761 0.000349563 7.90999e-05 0.0461579 0.000597305 0.00070599 395.938 395.938 1000.94 
135 1 1 0.119595 0.0499989 0.00997808 0 0 0 -0.0422356 7.4332e-05 0.000618781 9.11069e-05 0.000107677 0.00184907 -0.0422356 7.4332e-05 0.000618781 409.273 409.273 1000.97 
136 1 1 0.13105 0.0499978 0.025188 0 0 0 -0.000552171 -5.27919e-05 0.0517313 0.000229842 3.86838e-05 -0.00210602 -0.000552171 -5.27919e-05 0.0517313 226.701 226.701 1000.54 
137 1 1 0.162663 0.0499987 0.0213151 0 0 0 -0.0510286 -7.7124e-05 0.00588471 0.00136854 -1.56791e-05 -0.000527517 -0.0510286 -7.7124e-05 0.00588471 282.83 282.83 1000.67 
138 1 1 0.132504 0.0499972 0.00998062 0 0 0 -0.00726167 2.28273e-05 -0.000123131 0.00216358 4.15976e-05 0.000156829 -0.00726167 2.28273e-05 -0.000123131 414.692 414.692 1000.98 
139 1 1 0.146322 0.0500002 0.00998119 0 0 0 -0.0752242 6.37564e-05 0.00136364 0.00131377 1.19086e-06 -0.000869971 -0.0752242 6.37564e-05 0.00136364 411.97 411.97 1000.98 
140 1 1 0.215322 0.05 0.0255118 0 0 0 0.0595348 -2.49251e-06 -0.0090571 -0.000725026 2.20903e-07 -0.000200892 0.0595348 -2.49251e-06 -0.0090571 278.65 278.65 1000.66 
141 1 1 0.00997838 0.0581018 0.00997842 0 0 0 0.00776198 -0.0276196 -0.00257175 0.00496948 0.000298002 -0.00106653 0.00776198 -0.0276196 -0.00257175 482.388 482.388 1001.14 
142 1 1 0.0204332 0.0662905 0.00997894 0 0 0 -0.0517433 0.0219109 -0.00118201 0.00266424 -0.00214452 -0.00295429 -0.0517433 0.0219109 -0.00118201 496.379 496.379 1001.18 
143 1 1 0.0338202 0.0785708 0.00998182 0 0 0 -0.0121787 -0.0173429 0.00381876 0.00211114 -0.00290544 -0.00592378 -0.0121787 -0.0173429 0.00381876 462.369 462.369 1001.1 
144 1 1 0.0711637 0.0708849 0.00997824 0 0 0 -0.0209301 -0.00428322 0.00260732 -0.000428688 -0.000460856 -0.000293846 -0.0209301 -0.00428322 0.00260732 393.107 393.107 1000.93 
145 1 1 0.0810925 0.0619964 0.00997946 0 0 0 -0.0387726 0.0469674 0.00116707 0.000485705 0.0002754 -0.000955807 -0.0387726 0.0469674 0.00116707 394.031 394.031 1000.94 
146 1 1 0.117526 0.0644373 0.00998031 0 0 0 -0.0240641 -0.0010934 0.00120401 -0.000190951 0.000335417 -0.00113244 -0.0240641 -0.0010934 0.00120401 405.54 405.54 1000.96 
147 1 1 0.147281 0.0616103 0.00997928 0 0 0 -0.0498912 0.00847574 -0.000503683 0.000697341 0.00258654 0.00047853 -0.0498912 0.00847574 -0.000503683 407.014 407.014 1000.97 
148 1 1 0.137873 0.0667419 0.00998048 0 0 0 -0.0811375 -0.0223221 -0.000646208 0.00142683 -0.000813086 -0.000618383 -0.0811375 -0.0223221 -0.000646208 419.202 419.202 1001 
149 1 1 0.130398 0.0769719 0.00998515 0 0 0 -0.0654437 0.0100171 -0.00331414 0.00246941 0.000711612 -0.00282775 -0.0654437 0.0100171 -0.00331414 450.375 450.375 1001.07 
150 1 1 0.175433 0.0684462 0.00998127 0 0 0 -0.0540395 -0.0201589 -0.0015131 0.000949599 0.00134838 -0.00140798 -0.0540395 -0.0201589 -0.0015131 420.961 420.961 1001 
151 1 1 0.00997834 0.0686624 0.00998143 0 0 0 -0.00196815 0.0297564 0.00164991 0.003149 0.000314889 -0.00128874 -0.00196815 0.0297564 0.00164991 496.8 496.8 1001.18 
152 1 1 0.0215146 0.0774006 0.0375646 0 0 0 -0.0221687 -0.0380716 0.106687 -0.000127401 -0.00175582 -0.00222036 -0.0221687 -0.0380716 0.106687 215.426 215.426 1000.51 
153 1 1 0.0425793 0.0676995 0.00997854 0 0 0 -0.0260927 0.0298916 -3.30724e-05 0.00148667 -0.00104306 -0.00223713 -0.0260927 0.0298916 -3.30724e-05 397.915 397.915 1000.94 
154 1 1 0.054701 0.0771349 0.00997769 0 0 0 0.00619086 -0.00114715 0.000588455 0.000901281 -0.000783593 -0.000296982 0.00619086 -0.00114715 0.000588455 385.203 385.203 1000.91 
155 1 1 0.0862288 0.0783366 0.0224804 0 0 0 -0.0249651 -0.0161066 -0.00511011 -0.000291378 -0.000264696 -0.000856573 -0.0249651 -0.0161066 -0.00511011 246.013 246.013 1000.58 
156 1 1 0.0941931 0.0602474 0.0099793 0 0 0 -0.0237398 0.0519361 5.39281e-05 0.000288659 0.00160824 -5.03189e-05 -0.0237398 0.0519361 5.39281e-05 408.041 408.041 1000.97 
157 1 1 0.168434 0.0704798 0.0246184 0 0 0 -0.0249125 0.00855296 -0.0568372 0.000211161 -2.59792e-05 -0.00172489 -0.0249125 0.00855296 -0.0568372 250.159 250.159 1000.59 
158 1 1 0.187103 0.0798685 0.0228643 0 0 0 -0.000287278 -0.0603859 -0.00996638 -0.000348773 -0.00151402 -0.000125019 -0.000287278 -0.0603859 -0.00996638 299.549 299.549 1000.71 
159 1 1 0.146298 0.075698 0.00998027 0 0 0 -0.0664678 0.012187 0.000525974 0.000642392 0.00227092 -2.27506e-05 -0.0664678 0.012187 0.000525974 434.575 434.575 1001.03 
160 1 1 0.200535 0.0779778 0.0252921 0 0 0 -0.0237213 -0.0352158 -0.0243307 -0.000584172 -0.000362606 -0.00165449 -0.0237213 -0.0352158 -0.0243307 287.068 287.068 1000.68 
161 1 1 0.00998868 0.0764216 0.0248107 0 0 0 0.00326671 -0.0189618 -0.0297773 -0.00462882 0.000491828 -0.00227389 0.00326671 -0.0189618 -0.0297773 310.102 310.102 1000.74 
162 1 1 0.0207817 0.076859 0.0099775 0 0 0 0.00227055 0.00522402 -0.00341311 0.0013917 0.000186984 -0.000751268 0.00227055 0.00522402 -0.00341311 522.529 522.529 1001.24 
163 1 1 0.0383364 0.0780671 0.0227913 0 0 0 -0.0905608 0.0167908 0.0119135 0.000614225 -0.00154077 -0.0015953 -0.0905608 0.0167908 0.0119135 300.448 300.448 1000.71 
164 1 1 0.0873278 0.0780199 0.0312076 0 0 0 0.0329542 0.00483298 0.0486938 -0.000623729 -0.00029207 0.000147912 0.0329542 0.00483298 0.0486938 203.883 203.883 1000.48 
165 1 1 0.12811 0.0783455 0.0427467 0 0 0 -0.0156431 0.0161398 0.00291281 0.000126778 0.000875054 -0.00136054 -0.0156431 0.0161398 0.00291281 104.211 104.211 1000.25 
166 1 1 0.124969 0.0778137 0.00997943 0 0 0 -0.0182796 -0.0293278 0.0122999 -0.00198849 -0.000194447 0.00216065 -0.0182796 -0.0293278 0.0122999 445.949 445.949 1001.06 
167 1 1 0.173421 0.0774133 0.0255271 0 0 0 -0.0559582 -0.027858 0.0425776 -1.11744e-05 0.000850601 -0.0015818 -0.0559582 -0.027858 0.0425776 255.081 255.081 1000.61 
168 1 1 0.135063 0.0719896 0.00998193 0 0 0 -0.0232096 -0.024814 -0.0041872 9.28451e-05 0.00152008 -0.00104681 -0.0232096 -0.024814 -0.0041872 431.757 431.757 1001.02 
169 1 1 0.194775 0.0773432 0.0228031 0 0 0 -0.00403281 0.0229026 0.0229547 -0.00116988 -0.000970644 -0.00150169 -0.00403281 0.0229026 0.0229547 308.372 308.372 1000.73 
170 1 1 0.175765 0.0767423 0.00998017 0 0 0 -0.133294 0.0152412 0.00120349 0.0013138 0.000154155 -0.00113231 -0.133294 0.0152412 0.00120349 443.918 443.918 1001.05 
171 1 1 0.00998738 0.090003 0.00997577 0 0 0 0.00303389 -0.00414048 -0.00649561 -0.0037351 0.00906306 0.00862387 0.00303389 -0.00414048 -0.00649561 575.361 575.361 1001.36 
172 1 1 0.0214463 0.0900132 0.00999065 0 0 0 0.0128917 -0.0035989 0.00152881 0.00104505 0.00183024 -0.00881446 0.0128917 -0.0035989 0.00152881 590.518 590.518 1001.4 
173 1 1 0.0352129 0.0900152 0.00997171 0 0 0 0.0265768 0.006285 -0.00308187 0.000193115 0.000502964 0.00731637 0.0265768 0.006285 -0.00308187 518.954 518.954 1001.23 
174 1 1 0.0444771 0.0900202 0.0099878 0 0 0 -0.0189956 0.00294707 0.0124609 -0.000717208 -0.00622662 -0.00707849 -0.0189956 0.00294707 0.0124609 503.181 503.181 1001.19 
175 1 1 0.0732444 0.0900194 0.00999225 0 0 0 -0.119315 0.000308642 -0.000986771 -0.000699237 -0.00688803 -0.00993037 -0.119315 0.000308642 -0.000986771 533.551 533.551 1001.27 