ITEM: TIMESTEP
72000
ITEM: NUMBER OF ATOMS
2655
ITEM: BOX BOUNDS ff ff ff
0 0.5
0 0.1
0 0.5
ITEM: ATOMS id type type x y z ix iy iz vx vy vz fx fy fz vx vy vz p p rho 
1 1 1 0.00996573 0.0099941 0.0100026 0 0 0 0.00306519 -0.00887934 0.000167251 0.00742141 -0.00359797 -0.0337811 0.00306519 -0.00887934 0.000167251 726.127 726.127 1001.72 
2 1 1 0.0277314 0.00999199 0.00998593 0 0 0 -0.0436735 -0.00631787 -0.00448691 -0.00165518 -0.00277255 0.00319525 -0.0436735 -0.00631787 -0.00448691 781.344 781.344 1001.85 
3 1 1 0.0225558 0.00998477 0.00998488 0 0 0 -0.00583521 0.00258411 0.00073156 0.00193193 0.0042082 0.00401511 -0.00583521 0.00258411 0.00073156 793.876 793.876 1001.88 
4 1 1 0.0584863 0.00998558 0.00999227 0 0 0 -0.0694142 0.0105626 -0.00609921 0.00204594 0.0017287 -0.00442699 -0.0694142 0.0105626 -0.00609921 631.555 631.555 1001.5 
5 1 1 0.0622651 0.00998756 0.00998089 0 0 0 -0.0934205 -0.0074701 -0.00833498 0.00264478 -0.000347218 0.00700451 -0.0934205 -0.0074701 -0.00833498 625.061 625.061 1001.48 
6 1 1 0.0802892 0.00998508 0.00997701 0 0 0 -0.0655046 0.0026783 -0.00271645 0.00106851 -0.000382234 0.011113 -0.0655046 0.0026783 -0.00271645 606.33 606.33 1001.44 
7 1 1 0.0938591 0.00998627 0.00998339 0 0 0 -0.0809256 0.00635289 -0.00367668 0.000625511 -0.000331245 0.00094809 -0.0809256 0.00635289 -0.00367668 611.467 611.467 1001.45 
8 1 1 0.102954 0.00997891 0.00998126 0 0 0 -0.0628997 0.0027373 -0.00342204 0.000903417 0.0065019 0.00279525 -0.0628997 0.0027373 -0.00342204 610.439 610.439 1001.45 
9 1 1 0.112358 0.00998181 0.0099779 0 0 0 -0.0875247 -0.00516182 0.00599087 0.00143564 0.0025929 0.00492053 -0.0875247 -0.00516182 0.00599087 583.294 583.294 1001.38 
10 1 1 0.125962 0.00997787 0.00999052 0 0 0 -0.0947979 0.0021743 -0.00421999 0.0024107 0.00515075 -0.00841668 -0.0947979 0.0021743 -0.00421999 556.992 556.992 1001.32 
11 1 1 0.00997686 0.0226246 0.00998384 0 0 0 -0.00133543 0.0446728 0.00903281 0.00311531 -0.000188904 -0.00464461 -0.00133543 0.0446728 0.00903281 569.698 569.698 1001.35 
12 1 1 0.0259787 0.0330744 0.00998035 0 0 0 0.0154983 0.00474508 0.000709094 0.00127128 0.000154789 -0.00073917 0.0154983 0.00474508 0.000709094 516.111 516.111 1001.22 
13 1 1 0.024697 0.0238345 0.00998082 0 0 0 -0.00745319 0.0526988 0.00235215 0.000563793 4.06275e-05 -0.00179211 -0.00745319 0.0526988 0.00235215 552.454 552.454 1001.31 
14 1 1 0.0880727 0.0226072 0.00997932 0 0 0 -0.0840128 -0.0453956 -0.000787535 -0.000162734 3.93161e-05 0.00081572 -0.0840128 -0.0453956 -0.000787535 504.174 504.174 1001.2 
15 1 1 0.0732547 0.0237503 0.00997964 0 0 0 -0.0637453 0.0249726 0.00108477 0.000418182 -0.00125688 0.000528402 -0.0637453 0.0249726 0.00108477 497.376 497.376 1001.18 
16 1 1 0.101062 0.0241511 0.00997981 0 0 0 -0.0529865 0.0526089 -0.00180865 -0.00194468 -0.000550049 -0.000891213 -0.0529865 0.0526089 -0.00180865 500.56 500.56 1001.19 
17 1 1 0.0954284 0.0430068 0.00998021 0 0 0 -0.0774023 -0.0301927 -0.000848418 0.000751584 -0.00204839 -0.00110272 -0.0774023 -0.0301927 -0.000848418 457.43 457.43 1001.09 
18 1 1 0.123857 0.0341788 0.00997981 0 0 0 -0.0646464 -0.0214601 -0.000385187 -0.00034163 -0.000813956 -0.000344416 -0.0646464 -0.0214601 -0.000385187 484.932 484.932 1001.15 
19 1 1 0.112365 0.0231763 0.00997935 0 0 0 -0.0703859 -0.0441377 -0.000570987 -0.00220271 0.000153633 0.00118049 -0.0703859 -0.0441377 -0.000570987 510.56 510.56 1001.21 
20 1 1 0.14885 0.0219262 0.00998524 0 0 0 -0.0812714 0.0369394 -0.00273857 -0.00067491 0.00131076 -0.00468246 -0.0812714 0.0369394 -0.00273857 516.668 516.668 1001.23 
21 1 1 0.00998532 0.0253194 0.00997611 0 0 0 0.00154259 -0.0267913 0.00797254 -0.00501154 0.000351796 0.00213754 0.00154259 -0.0267913 0.00797254 545.848 545.848 1001.29 
22 1 1 0.0379473 0.0389456 0.0099813 0 0 0 -0.0287452 -0.0170101 -0.000135695 -0.00165772 -0.000834696 -0.00141119 -0.0287452 -0.0170101 -0.000135695 470.716 470.716 1001.12 
23 1 1 0.0543337 0.0401939 0.00997989 0 0 0 0.0125995 0.0282973 -0.000892093 0.000446441 -8.43797e-05 -0.000569346 0.0125995 0.0282973 -0.000892093 458.796 458.796 1001.09 
24 1 1 0.080112 0.0294232 0.00998082 0 0 0 -0.00383028 -0.0100211 0.00031869 -0.0001737 -0.00052661 -9.51305e-05 -0.00383028 -0.0100211 0.00031869 472.614 472.614 1001.12 
25 1 1 0.101645 0.0356509 0.0099782 0 0 0 -0.00880027 0.0552186 0.00190236 -0.00112106 0.000384479 0.000462063 -0.00880027 0.0552186 0.00190236 465.44 465.44 1001.1 
26 1 1 0.105676 0.0232036 0.00998055 0 0 0 -0.0923669 -0.012997 -0.0030066 8.57977e-05 0.000363477 -0.000834965 -0.0923669 -0.012997 -0.0030066 507.186 507.186 1001.2 
27 1 1 0.133825 0.0421186 0.00997919 0 0 0 -0.0757586 0.00732063 -0.000457938 -0.000353927 0.000858864 -0.000355006 -0.0757586 0.00732063 -0.000457938 476.22 476.22 1001.13 
28 1 1 0.107465 0.0346313 0.00998076 0 0 0 -0.0114293 -0.0457272 0.00111303 -2.75553e-05 -0.000196017 -0.000991625 -0.0114293 -0.0457272 0.00111303 470.096 470.096 1001.12 
29 1 1 0.134814 0.0220527 0.00997882 0 0 0 -0.0606128 0.0438859 0.00101182 0.00148145 0.00135972 0.00141253 -0.0606128 0.0438859 0.00101182 527.934 527.934 1001.25 
30 1 1 0.144542 0.0316793 0.0099832 0 0 0 -0.0780263 0.0293795 -0.00141523 -0.000627874 -0.00156343 -0.00359596 -0.0780263 0.0293795 -0.00141523 489.841 489.841 1001.16 
31 1 1 0.00997843 0.0372439 0.00997622 0 0 0 -0.00330327 0.0126708 0.00267486 0.000542859 0.0012767 0.00228287 -0.00330327 0.0126708 0.00267486 503.037 503.037 1001.19 
32 1 1 0.0225437 0.0424816 0.00998068 0 0 0 -0.0031135 0.00316139 0.000520084 -2.21483e-05 0.00146817 -0.000421317 -0.0031135 0.00316139 0.000520084 521.414 521.414 1001.24 
33 1 1 0.049017 0.0368014 0.00998074 0 0 0 -0.0458376 -0.0482001 -0.00017889 0.000910001 -0.000704369 -0.0010752 -0.0458376 -0.0482001 -0.00017889 458.949 458.949 1001.09 
34 1 1 0.0684223 0.0378402 0.00998 0 0 0 -0.00484797 -0.0135657 0.000695567 -0.000630956 0.000304518 -0.00117429 -0.00484797 -0.0135657 0.000695567 458.819 458.819 1001.09 
35 1 1 0.0740314 0.0407417 0.00998007 0 0 0 -0.0525335 0.0190921 0.000552244 0.000315534 0.000525736 -0.000492254 -0.0525335 0.0190921 0.000552244 460.578 460.578 1001.09 
36 1 1 0.0909857 0.0309195 0.00997958 0 0 0 -0.0181463 -0.00596839 0.00155476 0.000587411 -0.000715442 0.00122418 -0.0181463 -0.00596839 0.00155476 473.274 473.274 1001.12 
37 1 1 0.117668 0.0409556 0.00997886 0 0 0 -0.0623002 -0.00393254 0.00046003 -0.000848646 -0.00021756 0.000645779 -0.0623002 -0.00393254 0.00046003 466.159 466.159 1001.11 
38 1 1 0.125686 0.0413775 0.00997911 0 0 0 -0.0662847 0.00686628 -0.000349204 1.62304e-05 -3.29917e-05 -0.000305928 -0.0662847 0.00686628 -0.000349204 471.304 471.304 1001.12 
39 1 1 0.143498 0.043336 0.00997978 0 0 0 -0.00534238 -0.0156978 0.000396568 -9.54074e-05 -0.000141319 -9.52592e-05 -0.00534238 -0.0156978 0.000396568 469.19 469.19 1001.11 
40 1 1 0.156644 0.0375735 0.00997987 0 0 0 -0.026239 -0.034663 0.00285512 -0.000911757 0.000732528 -0.00183139 -0.026239 -0.034663 0.00285512 464.652 464.652 1001.1 
41 1 1 0.00997292 0.0529228 0.00998227 0 0 0 0.00808508 -0.0336397 -0.00631214 0.00611026 0.00107691 -0.00300338 0.00808508 -0.0336397 -0.00631214 481.344 481.344 1001.14 
42 1 1 0.0342528 0.0499542 0.00998297 0 0 0 -0.00113978 -0.00182003 -0.000207178 -0.000371964 0.00024872 -0.000822461 -0.00113978 -0.00182003 -0.000207178 476.766 476.766 1001.13 
43 1 1 0.050247 0.0499875 0.00998125 0 0 0 -0.0462833 -0.00106703 -4.94484e-05 -0.000710726 0.000202417 -0.00116017 -0.0462833 -0.00106703 -4.94484e-05 453.964 453.964 1001.08 
44 1 1 0.0693332 0.0499958 0.00997879 0 0 0 -0.01119 -0.000693754 0.000245664 -0.000453221 -1.22618e-05 -0.000629571 -0.01119 -0.000693754 0.000245664 450.74 450.74 1001.07 
45 1 1 0.0830974 0.0500031 0.00997883 0 0 0 0.0180223 -0.000202754 0.000666964 -0.00254927 -1.08247e-05 0.000492667 0.0180223 -0.000202754 0.000666964 459.483 459.483 1001.09 
46 1 1 0.0883637 0.0499949 0.0099785 0 0 0 -0.0272468 -0.000474859 0.00169551 -0.000407935 -1.86802e-05 0.00152045 -0.0272468 -0.000474859 0.00169551 458.652 458.652 1001.09 
47 1 1 0.0957608 0.0499979 0.00997978 0 0 0 -0.0222785 -0.000413687 -0.00132729 0.000672029 -1.48745e-05 -0.000871573 -0.0222785 -0.000413687 -0.00132729 456.793 456.793 1001.08 
48 1 1 0.124634 0.0500041 0.00997684 0 0 0 -0.04226 -0.000207242 0.00125181 0.000304941 -9.54374e-05 0.000621274 -0.04226 -0.000207242 0.00125181 466.212 466.212 1001.11 
49 1 1 0.110517 0.0499937 0.00997991 0 0 0 -0.02728 -0.000428889 -0.000878057 0.000779047 -4.21254e-05 -0.00156199 -0.02728 -0.000428889 -0.000878057 465.063 465.063 1001.1 
50 1 1 0.15256 0.0499993 0.00997779 0 0 0 -0.034019 -0.000106336 0.000895671 0.00106005 -0.000120394 0.00042172 -0.034019 -0.000106336 0.000895671 460.181 460.181 1001.09 
51 1 1 0.00997921 0.0628227 0.00997531 0 0 0 -0.0027446 -0.00888024 0.00251445 0.00028673 -0.000590219 0.00365668 -0.0027446 -0.00888024 0.00251445 485.542 485.542 1001.15 
52 1 1 0.0225789 0.0573829 0.00998171 0 0 0 -0.00319839 -0.00392887 -0.000151759 -0.00032146 -0.000583617 -0.00128243 -0.00319839 -0.00392887 -0.000151759 514.433 514.433 1001.22 
53 1 1 0.0490098 0.0632067 0.0099808 0 0 0 -0.0469815 0.0469402 -0.00122979 0.000655633 0.000587327 -0.00101555 -0.0469815 0.0469402 -0.00122979 454.782 454.782 1001.08 
54 1 1 0.0684343 0.0621286 0.00998024 0 0 0 -0.00589836 0.0127431 -6.21113e-05 -0.000691737 -0.00029475 -0.00132242 -0.00589836 0.0127431 -6.21113e-05 458.27 458.27 1001.09 
55 1 1 0.0740277 0.059249 0.00998045 0 0 0 -0.0513709 -0.0199693 0.000157694 0.000338207 -0.00047704 -0.000817205 -0.0513709 -0.0199693 0.000157694 460.287 460.287 1001.09 
56 1 1 0.0909807 0.0690843 0.00997981 0 0 0 -0.018333 0.00585588 0.00174812 0.000589517 0.000718958 0.000959233 -0.018333 0.00585588 0.00174812 471.996 471.996 1001.12 
57 1 1 0.117656 0.0590476 0.00997888 0 0 0 -0.0623475 0.00350876 0.000547304 -0.000898421 9.70398e-05 0.000617807 -0.0623475 0.00350876 0.000547304 467.494 467.494 1001.11 
58 1 1 0.125691 0.0586114 0.00997911 0 0 0 -0.0662941 -0.0070134 -0.000294651 -3.14172e-05 -0.00010623 -0.000330625 -0.0662941 -0.0070134 -0.000294651 473.127 473.127 1001.12 
59 1 1 0.143512 0.0566751 0.00997965 0 0 0 -0.00474032 0.0157121 0.000504182 -8.57743e-05 -9.20567e-05 2.83838e-06 -0.00474032 0.0157121 0.000504182 470.91 470.91 1001.12 
60 1 1 0.156605 0.0624707 0.00998005 0 0 0 -0.026643 0.0353459 0.00264738 -0.000903934 -0.000972104 -0.00208625 -0.026643 0.0353459 0.00264738 467.555 467.555 1001.11 
61 1 1 0.00998587 0.0747455 0.00997794 0 0 0 -0.00144604 0.030962 0.00100998 -0.00494171 -0.0013509 0.0007612 -0.00144604 0.030962 0.00100998 527.603 527.603 1001.25 
62 1 1 0.0379886 0.0609518 0.00998072 0 0 0 -0.0274879 0.0166901 -0.00131372 -0.0017751 0.00129782 -0.000785634 -0.0274879 0.0166901 -0.00131372 463.41 463.41 1001.1 
63 1 1 0.0543221 0.0598048 0.00997991 0 0 0 0.0134694 -0.0300695 -0.00187639 0.000311872 0.000112225 -0.000565707 0.0134694 -0.0300695 -0.00187639 455.755 455.755 1001.08 
64 1 1 0.0800967 0.0705892 0.00998103 0 0 0 -0.00369138 0.0091285 0.000181469 -0.000131757 0.000362801 -0.000329371 -0.00369138 0.0091285 0.000181469 471.39 471.39 1001.12 
65 1 1 0.10164 0.0643552 0.00997864 0 0 0 -0.00899898 -0.0559398 0.00213097 -0.00120053 -0.000386042 3.92205e-05 -0.00899898 -0.0559398 0.00213097 465.544 465.544 1001.1 
66 1 1 0.105688 0.0767786 0.00998025 0 0 0 -0.0920497 0.0122679 -0.00146956 -5.53975e-05 -0.000428133 -0.000517559 -0.0920497 0.0122679 -0.00146956 508.379 508.379 1001.21 
67 1 1 0.133813 0.0578593 0.0099791 0 0 0 -0.0760505 -0.0076875 -0.000393107 -0.000397053 -0.00104637 -0.00029243 -0.0760505 -0.0076875 -0.000393107 478.211 478.211 1001.13 
68 1 1 0.107464 0.0653679 0.00998092 0 0 0 -0.0113248 0.0451187 0.00146029 -0.00013999 0.000167848 -0.00113806 -0.0113248 0.0451187 0.00146029 471.031 471.031 1001.12 
69 1 1 0.134809 0.077943 0.00997971 0 0 0 -0.0604348 -0.044134 0.0019057 0.00150912 -0.00139597 0.000458242 -0.0604348 -0.044134 0.0019057 534.319 534.319 1001.27 
70 1 1 0.144556 0.0683408 0.00998246 0 0 0 -0.0776942 -0.0293341 -0.0013469 -0.000690127 0.00138427 -0.00293739 -0.0776942 -0.0293341 -0.0013469 494.941 494.941 1001.17 
71 1 1 0.00997235 0.0773718 0.00998779 0 0 0 -0.00178393 -0.0413724 0.00111374 0.00823957 -0.00126483 -0.00818719 -0.00178393 -0.0413724 0.00111374 556.047 556.047 1001.32 
72 1 1 0.0260239 0.0669514 0.00997946 0 0 0 0.0163347 -0.00402209 -0.000196244 0.00085425 -4.84459e-05 0.000312959 0.0163347 -0.00402209 -0.000196244 502.512 502.512 1001.19 
73 1 1 0.0246702 0.0760284 0.00997974 0 0 0 -0.00879467 -0.0499492 0.00210273 0.000162947 -0.000284968 -0.000443569 -0.00879467 -0.0499492 0.00210273 540.14 540.14 1001.28 
74 1 1 0.0880956 0.0773927 0.00997928 0 0 0 -0.0829043 0.0453033 -0.00203902 -3.97351e-05 -0.000493196 0.000861265 -0.0829043 0.0453033 -0.00203902 504.469 504.469 1001.2 
75 1 1 0.0733218 0.0762325 0.00997936 0 0 0 -0.0622385 -0.0257637 -0.000149921 0.000444312 0.000795963 0.000721775 -0.0622385 -0.0257637 -0.000149921 497.754 497.754 1001.18 
76 1 1 0.101066 0.0758568 0.00998021 0 0 0 -0.0534985 -0.0530244 -0.0012226 -0.00203254 0.00044754 -0.00124456 -0.0534985 -0.0530244 -0.0012226 499.959 499.959 1001.19 
77 1 1 0.0954266 0.0569953 0.0099805 0 0 0 -0.0773766 0.0297835 -0.00069937 0.000742818 0.00206078 -0.00138864 -0.0773766 0.0297835 -0.00069937 457.73 457.73 1001.09 
78 1 1 0.123849 0.0658088 0.00997973 0 0 0 -0.0640812 0.0204939 0.000209974 -0.000408686 0.000671555 -0.000291608 -0.0640812 0.0204939 0.000209974 487.501 487.501 1001.16 
79 1 1 0.112379 0.0768647 0.00997915 0 0 0 -0.0692404 0.0442395 0.000464819 -0.00234698 -0.00023429 0.00138287 -0.0692404 0.0442395 0.000464819 513.816 513.816 1001.22 
80 1 1 0.148832 0.0780791 0.00998465 0 0 0 -0.0816124 -0.0362482 -0.00230437 -0.000820613 -0.00121488 -0.00417935 -0.0816124 -0.0362482 -0.00230437 523.754 523.754 1001.24 
81 1 1 0.00997082 0.0900081 0.00999127 0 0 0 -0.0122782 -0.00935886 0.00499551 0.00214034 0.000954799 -0.00392524 -0.0122782 -0.00935886 0.00499551 741.124 741.124 1001.76 
82 1 1 0.0278373 0.0900063 0.00998329 0 0 0 -0.0467643 0.00795599 0.0114695 -0.00134159 0.00378906 0.00492448 -0.0467643 0.00795599 0.0114695 786.528 786.528 1001.86 
83 1 1 0.0227341 0.0900149 0.00999248 0 0 0 -0.00932091 0.000389016 0.00184812 0.00213486 -0.00468419 -0.00472121 -0.00932091 0.000389016 0.00184812 798.474 798.474 1001.89 
84 1 1 0.0585778 0.0900142 0.0099939 0 0 0 -0.0679074 -0.00512584 -0.00442792 0.000727786 -0.00168524 -0.00512447 -0.0679074 -0.00512584 -0.00442792 632.81 632.81 1001.5 
85 1 1 0.062269 0.0900053 0.00998355 0 0 0 -0.0916599 -0.00627926 -0.00362306 0.00164615 0.00741063 0.00516889 -0.0916599 -0.00627926 -0.00362306 635.732 635.732 1001.51 
86 1 1 0.0802969 0.0900132 0.00997696 0 0 0 -0.0643089 0.00077096 -0.00286716 0.00129619 0.00210051 0.0111768 -0.0643089 0.00077096 -0.00286716 619.937 619.937 1001.47 
87 1 1 0.093879 0.0900194 0.0099789 0 0 0 -0.0819265 -0.00686819 -0.00394682 0.00112393 -0.00532966 0.00543305 -0.0819265 -0.00686819 -0.00394682 618.004 618.004 1001.46 
88 1 1 0.10296 0.0900149 0.0099849 0 0 0 -0.0635607 0.00381191 -0.00327915 0.00106929 -0.000321404 -0.00086081 -0.0635607 0.00381191 -0.00327915 610.771 610.771 1001.45 
89 1 1 0.112374 0.0900169 0.00997752 0 0 0 -0.0867705 -0.00394981 0.00500458 0.00121185 -0.00123421 0.00526362 -0.0867705 -0.00394981 0.00500458 586.384 586.384 1001.39 
90 1 1 0.125975 0.0900224 0.00999128 0 0 0 -0.0943775 -0.00368143 -0.00175252 0.00238544 -0.00527634 -0.00924458 -0.0943775 -0.00368143 -0.00175252 565.9 565.9 1001.34 
91 1 1 0.00998154 0.00998081 0.00996591 0 0 0 -0.0114396 0.00648371 0.0140404 -0.00832489 0.00955278 0.0207184 -0.0114396 0.00648371 0.0140404 726.642 726.642 1001.72 
92 1 1 0.0202215 0.00998698 0.00998683 0 0 0 -0.0642921 -0.00154643 0.00690614 0.000544379 0.00191008 0.00127672 -0.0642921 -0.00154643 0.00690614 788.434 788.434 1001.87 
93 1 1 0.0324963 0.00998996 0.00999839 0 0 0 -0.0948168 0.0055206 -0.00825119 6.67601e-05 -0.000371529 -0.00954442 -0.0948168 0.0055206 -0.00825119 755.956 755.956 1001.79 
94 1 1 0.040983 0.0099981 0.00998355 0 0 0 -0.0716051 -0.00313289 0.012124 0.0012886 -0.00835334 0.0050689 -0.0716051 -0.00313289 0.012124 714.635 714.635 1001.69 
95 1 1 0.0671465 0.0099935 0.0099794 0 0 0 -0.0782723 0.00471922 0.00261673 0.000922315 -0.00689101 0.00958577 -0.0782723 0.00471922 0.00261673 622.424 622.424 1001.48 
96 1 1 0.0895565 0.00999001 0.00998827 0 0 0 -0.0697776 -0.00940896 0.00293185 -0.000431609 -0.00451551 -0.00356333 -0.0697776 -0.00940896 0.00293185 602.448 602.448 1001.43 
97 1 1 0.0983793 0.0099862 0.00999075 0 0 0 -0.115168 0.000934678 0.0114436 0.000843829 -4.16588e-05 -0.0064203 -0.115168 0.000934678 0.0114436 616.73 616.73 1001.46 
98 1 1 0.107779 0.00997993 0.00998244 0 0 0 -0.158808 0.000115189 -0.00143123 0.00112744 0.00483473 0.000749982 -0.158808 0.000115189 -0.00143123 595.495 595.495 1001.41 
99 1 1 0.117158 0.00999328 0.00997688 0 0 0 -0.0669395 0.00191749 -0.000363965 0.00145926 -0.00894287 0.00614216 -0.0669395 0.00191749 -0.000363965 575.144 575.144 1001.36 
100 1 1 0.121858 0.00998422 0.00998327 0 0 0 -0.111027 -0.00455605 0.00635282 0.00190242 -0.000106387 -0.00046694 -0.111027 -0.00455605 0.00635282 566.582 566.582 1001.34 
101 1 1 0.00998824 0.0235799 0.0220161 0 0 0 -0.00465869 -0.00238025 -0.033357 -0.00257155 -0.000251178 0.00244772 -0.00465869 -0.00238025 -0.033357 347.681 347.681 1000.83 
102 1 1 0.021031 0.0236879 0.00998059 0 0 0 -0.010428 0.050672 0.00506674 -7.61872e-05 0.00044323 -0.0013929 -0.010428 0.050672 0.00506674 564.148 564.148 1001.34 
103 1 1 0.0350288 0.0218986 0.0222476 0 0 0 -0.0135129 -0.00672225 -0.0134837 0.000628831 -0.000624819 0.00109742 -0.0135129 -0.00672225 -0.0134837 315.14 315.14 1000.75 
104 1 1 0.0868225 0.0216448 0.0348075 0 0 0 -0.0538153 -0.00529897 0.0891355 -0.000880811 9.03298e-05 0.00138889 -0.0538153 -0.00529897 0.0891355 183.011 183.011 1000.44 
105 1 1 0.127172 0.0208517 0.0419305 0 0 0 -0.0208317 -0.00041908 -0.0174884 -0.000864125 0.000827469 0.000467312 -0.0208317 -0.00041908 -0.0174884 154.923 154.923 1000.37 
106 1 1 0.122336 0.0237621 0.00997636 0 0 0 -0.0391235 0.0137756 -0.0102404 0.00078065 3.79205e-05 0.00302576 -0.0391235 0.0137756 -0.0102404 515.052 515.052 1001.22 
107 1 1 0.170693 0.0226084 0.0264085 0 0 0 -0.0270589 -0.0169316 0.00455194 0.000250893 -0.000189679 0.000966459 -0.0270589 -0.0169316 0.00455194 295.063 295.063 1000.7 
108 1 1 0.133582 0.0291263 0.00998178 0 0 0 -0.0295303 0.0376404 0.00361023 -0.000824642 0.00089928 -0.00223015 -0.0295303 0.0376404 0.00361023 511.087 511.087 1001.21 
109 1 1 0.192337 0.0222103 0.0235402 0 0 0 -0.0789985 -0.0171746 0.0175085 -0.000806373 -0.00103333 0.00099744 -0.0789985 -0.0171746 0.0175085 343.895 343.895 1000.82 
110 1 1 0.170481 0.0229836 0.00997705 0 0 0 -0.0681483 -0.0111412 5.0371e-05 -0.000882829 -0.00100326 0.00103799 -0.0681483 -0.0111412 5.0371e-05 523.329 523.329 1001.24 
111 1 1 0.00997891 0.0306969 0.00997872 0 0 0 -0.00285105 0.0182066 0.00299174 0.00113769 0.00207975 -0.00130633 -0.00285105 0.0182066 0.00299174 521.871 521.871 1001.24 
112 1 1 0.0210446 0.0246413 0.0426908 0 0 0 0.0174766 0.0299959 0.0429411 -4.12746e-05 0.000757489 -0.00144793 0.0174766 0.0299959 0.0429411 155.594 155.594 1000.37 
113 1 1 0.0415222 0.0322682 0.0099802 0 0 0 -0.00893555 0.01042 0.000862089 0.000370139 0.000705529 -0.000914088 -0.00893555 0.01042 0.000862089 461.637 461.637 1001.1 
114 1 1 0.0543855 0.023713 0.00997972 0 0 0 -0.0262837 0.0182322 6.49243e-05 -0.000288719 -0.000145393 -0.00106872 -0.0262837 0.0182322 6.49243e-05 477.945 477.945 1001.13 
115 1 1 0.0834915 0.0213486 0.0226931 0 0 0 -0.0499115 -0.0116205 0.0174737 -5.90184e-05 0.000563444 6.59839e-06 -0.0499115 -0.0116205 0.0174737 318.273 318.273 1000.76 
116 1 1 0.0916673 0.0361788 0.00997991 0 0 0 -0.0447913 -0.0229968 0.000459112 0.00106212 0.00299061 0.000447181 -0.0447913 -0.0229968 0.000459112 465.005 465.005 1001.1 
117 1 1 0.16697 0.0287537 0.0214799 0 0 0 -0.0271114 -0.0207911 0.00240095 -0.00059549 -0.00022998 0.00364271 -0.0271114 -0.0207911 0.00240095 343.504 343.504 1000.82 
118 1 1 0.185762 0.0241248 0.0231305 0 0 0 -0.0489624 0.037495 -0.00579867 -0.000671523 -0.00147098 -0.000435217 -0.0489624 0.037495 -0.00579867 338.435 338.435 1000.8 
119 1 1 0.142433 0.022236 0.00998099 0 0 0 -0.0709073 -0.04165 -0.000968448 -0.000600384 0.00136467 -0.000191789 -0.0709073 -0.04165 -0.000968448 521.4 521.4 1001.24 
120 1 1 0.199093 0.024072 0.0227862 0 0 0 -0.0259301 0.0166706 -0.0353678 3.0361e-05 -0.00106651 0.00187713 -0.0259301 0.0166706 -0.0353678 355.905 355.905 1000.85 
121 1 1 0.00997909 0.0421254 0.00998054 0 0 0 -0.00599105 -0.033803 0.00372698 9.04179e-06 0.000152621 -0.00101487 -0.00599105 -0.033803 0.00372698 491.423 491.423 1001.17 
122 1 1 0.0207417 0.0357192 0.00997855 0 0 0 0.0339305 0.0621976 0.00369415 0.000155868 0.00112884 0.00080165 0.0339305 0.0621976 0.00369415 522.844 522.844 1001.24 
123 1 1 0.0340951 0.0238056 0.00997588 0 0 0 -0.013754 -0.0112306 0.00057204 -0.00194814 -0.0025397 0.00277299 -0.013754 -0.0112306 0.00057204 511.524 511.524 1001.21 
124 1 1 0.068916 0.0290593 0.00998004 0 0 0 -0.0464198 -0.0035054 0.000560753 0.000129794 0.000529796 -0.000238028 -0.0464198 -0.0035054 0.000560753 468.624 468.624 1001.11 
125 1 1 0.0793939 0.0361824 0.00997994 0 0 0 -0.0238665 -0.00482072 0.000182881 -0.000173734 0.00145667 0.000613223 -0.0238665 -0.00482072 0.000182881 464.697 464.697 1001.1 
126 1 1 0.11543 0.0349174 0.00997978 0 0 0 -0.053 -0.0291942 -0.000382859 -0.000436044 -0.000422293 0.000439852 -0.053 -0.0291942 -0.000382859 474.978 474.978 1001.13 
127 1 1 0.145568 0.035748 0.00997989 0 0 0 0.00139096 -0.015052 -0.000339852 0.000206158 0.00254238 -0.000248843 0.00139096 -0.015052 -0.000339852 479.039 479.039 1001.14 
128 1 1 0.134609 0.0361787 0.00997963 0 0 0 -0.0544884 0.0603407 -0.000583719 -0.00068882 -0.000352877 0.000169018 -0.0544884 0.0603407 -0.000583719 490.038 490.038 1001.16 
129 1 1 0.128679 0.0226939 0.0099797 0 0 0 -0.0331881 0.00218138 0.0047225 -0.00168957 0.000683087 0.000510671 -0.0331881 0.00218138 0.0047225 524.189 524.189 1001.24 
130 1 1 0.172923 0.0319883 0.009977 0 0 0 -0.034131 0.012524 0.0021686 -0.000238439 0.000682054 0.000100812 -0.034131 0.012524 0.0021686 492.622 492.622 1001.17 
131 1 1 0.00998027 0.0471233 0.00998096 0 0 0 0.00598351 0.0333932 -0.00402877 -0.00143387 0.000120932 -0.0018062 0.00598351 0.0333932 -0.00402877 485.05 485.05 1001.15 
132 1 1 0.0204116 0.0499912 0.00997899 0 0 0 -0.0520319 -0.0013488 -0.00112811 0.0022495 0.000381204 2.85331e-05 -0.0520319 -0.0013488 -0.00112811 517.263 517.263 1001.23 
133 1 1 0.0398819 0.0499683 0.00998083 0 0 0 -0.0126593 -0.000827041 -0.000829464 0.00221074 0.000254977 0.000944517 -0.0126593 -0.000827041 -0.000829464 459.874 459.874 1001.09 
134 1 1 0.0757033 0.0499931 0.00997824 0 0 0 -0.0693181 -0.000925584 0.000115745 0.00188992 -1.93249e-05 -0.000237627 -0.0693181 -0.000925584 0.000115745 456.044 456.044 1001.08 
135 1 1 0.117596 0.0499982 0.00998007 0 0 0 -0.0465977 -0.000292966 -0.000891152 -0.00125799 -6.32408e-05 -0.00155822 -0.0465977 -0.000292966 -0.000891152 464.442 464.442 1001.1 
136 1 1 0.130692 0.0499923 0.026437 0 0 0 -0.0171775 -0.000235983 0.0146337 -0.0008543 -2.82027e-05 0.000938419 -0.0171775 -0.000235983 0.0146337 258.321 258.321 1000.61 
137 1 1 0.161587 0.0499967 0.0223787 0 0 0 -0.00380945 1.9644e-05 0.0305031 -0.00091446 -8.9882e-05 0.000108883 -0.00380945 1.9644e-05 0.0305031 304.625 304.625 1000.72 
138 1 1 0.134128 0.0499929 0.00997823 0 0 0 0.0167304 -0.000386074 0.000501976 -0.00158314 -0.000110856 -0.000530648 0.0167304 -0.000386074 0.000501976 471.092 471.092 1001.12 
139 1 1 0.14299 0.0500067 0.00997831 0 0 0 -0.0494138 0.00015249 0.000232295 -0.000951167 -0.000110996 0.000726218 -0.0494138 0.00015249 0.000232295 466.706 466.706 1001.11 
140 1 1 0.217872 0.0500004 0.0253471 0 0 0 0.0299675 9.45186e-05 0.0046454 -5.98897e-05 -8.136e-05 0.00103798 0.0299675 9.45186e-05 0.0046454 308.464 308.464 1000.73 
141 1 1 0.00997993 0.0579461 0.00997999 0 0 0 -0.00581362 0.0340814 0.00442597 -0.000501284 0.000803485 -0.000280739 -0.00581362 0.0340814 0.00442597 480.726 480.726 1001.14 
142 1 1 0.0208157 0.0640498 0.00997846 0 0 0 0.0349446 -0.0670215 0.00287709 -0.000275132 -0.00058046 0.00103307 0.0349446 -0.0670215 0.00287709 508.497 508.497 1001.21 
143 1 1 0.0339994 0.0761095 0.00997367 0 0 0 -0.0197431 0.0120455 -0.00116315 -0.00221059 0.00241898 0.00561415 -0.0197431 0.0120455 -0.00116315 503.864 503.864 1001.2 
144 1 1 0.0689039 0.0708963 0.00998012 0 0 0 -0.0463427 0.0026578 -0.000281362 0.000163962 -0.000687103 -0.000322937 -0.0463427 0.0026578 -0.000281362 468.579 468.579 1001.11 
145 1 1 0.079425 0.063807 0.00998039 0 0 0 -0.022932 0.0036817 -0.000150935 -0.000203211 -0.00144966 0.000136291 -0.022932 0.0036817 -0.000150935 464.442 464.442 1001.1 
146 1 1 0.115426 0.0650869 0.00997974 0 0 0 -0.0529651 0.0288315 -4.31552e-05 -0.000524856 0.000351219 0.000477772 -0.0529651 0.0288315 -4.31552e-05 476.881 476.881 1001.13 
147 1 1 0.145565 0.0642557 0.00997944 0 0 0 0.00152819 0.0149128 -5.38016e-05 0.000173527 -0.00279765 0.000144787 0.00152819 0.0149128 -5.38016e-05 482.695 482.695 1001.15 
148 1 1 0.134653 0.0638123 0.00997947 0 0 0 -0.053591 -0.0615923 -8.17414e-05 -0.000758846 0.000158302 0.000295393 -0.053591 -0.0615923 -8.17414e-05 493.271 493.271 1001.17 
149 1 1 0.128683 0.077307 0.00997907 0 0 0 -0.0333712 -0.00348125 0.00471805 -0.00178061 -0.000787341 0.00108886 -0.0333712 -0.00348125 0.00471805 529.651 529.651 1001.26 
150 1 1 0.172915 0.0680093 0.00997702 0 0 0 -0.0339259 -0.012359 0.00182588 -0.000213987 -0.000907297 -4.86964e-05 -0.0339259 -0.012359 0.00182588 496.792 496.792 1001.18 
151 1 1 0.00998066 0.0693431 0.00997835 0 0 0 5.97173e-05 -0.0196605 -0.0020268 -1.49221e-06 -0.00227725 -0.000357641 5.97173e-05 -0.0196605 -0.0020268 499.558 499.558 1001.19 
152 1 1 0.0213889 0.0755673 0.0429437 0 0 0 0.0135361 -0.0328788 0.0365173 -0.000551478 0.000376903 -0.000246683 0.0135361 -0.0328788 0.0365173 107.111 107.111 1000.25 
153 1 1 0.0415709 0.0677693 0.00997983 0 0 0 -0.00831806 -0.00952986 4.1452e-05 -6.0671e-05 -0.00070933 -0.000302935 -0.00831806 -0.00952986 4.1452e-05 455.516 455.516 1001.08 
154 1 1 0.0544035 0.076214 0.00997843 0 0 0 -0.0276548 -0.019372 0.00112938 -0.000783141 0.000497677 0.000354044 -0.0276548 -0.019372 0.00112938 475.647 475.647 1001.13 
155 1 1 0.0834637 0.0786137 0.0226706 0 0 0 -0.0531901 0.0129493 0.0183052 -0.000144018 -0.000704689 6.38159e-05 -0.0531901 0.0129493 0.0183052 318.423 318.423 1000.76 
156 1 1 0.091669 0.0638224 0.00998038 0 0 0 -0.0447519 0.0223216 0.000710096 0.00106463 -0.0029342 -4.61457e-05 -0.0447519 0.0223216 0.000710096 464.824 464.824 1001.1 
157 1 1 0.16697 0.0712447 0.0214779 0 0 0 -0.0269029 0.0208481 0.00226701 -0.000604903 7.06337e-05 0.00374656 -0.0269029 0.0208481 0.00226701 347.38 347.38 1000.83 
158 1 1 0.185761 0.0758745 0.0231289 0 0 0 -0.0488527 -0.0372506 -0.00611496 -0.000665107 0.00135176 -0.000469934 -0.0488527 -0.0372506 -0.00611496 343.069 343.069 1000.81 
159 1 1 0.142396 0.0777593 0.00998103 0 0 0 -0.0705157 0.0418278 -0.000299125 -0.000639684 -0.00125852 -0.000287892 -0.0705157 0.0418278 -0.000299125 527.682 527.682 1001.25 
160 1 1 0.199093 0.075927 0.0227845 0 0 0 -0.0259716 -0.016412 -0.0356656 4.23308e-05 0.000950968 0.00191245 -0.0259716 -0.016412 -0.0356656 360.641 360.641 1000.86 
161 1 1 0.00998266 0.076542 0.0217281 0 0 0 -0.00241983 0.0140227 -0.0361499 0.00347869 -0.000291894 0.00380157 -0.00241983 0.0140227 -0.0361499 332.163 332.163 1000.79 
162 1 1 0.0210662 0.0762476 0.00998182 0 0 0 -0.00942511 -0.0486206 0.00202141 -0.000314112 -0.000981784 -0.0025605 -0.00942511 -0.0486206 0.00202141 550.967 550.967 1001.31 
163 1 1 0.0350327 0.0781391 0.0221035 0 0 0 -0.0170526 0.00839801 -0.0186678 1.15434e-05 7.07485e-05 0.00181764 -0.0170526 0.00839801 -0.0186678 298.717 298.717 1000.71 
164 1 1 0.0869516 0.0783592 0.0347633 0 0 0 -0.049168 0.0047174 0.0873725 -0.000997942 -0.000315068 0.00150273 -0.049168 0.0047174 0.0873725 185.636 185.636 1000.44 
165 1 1 0.12718 0.0791323 0.0419236 0 0 0 -0.0205188 6.26943e-05 -0.0175806 -0.000900005 -0.00069859 0.000650186 -0.0205188 6.26943e-05 -0.0175806 150.795 150.795 1000.36 
166 1 1 0.122349 0.0762357 0.00997722 0 0 0 -0.0386923 -0.0135845 -0.0101257 0.000595342 -0.000133645 0.00213769 -0.0386923 -0.0135845 -0.0101257 518.475 518.475 1001.23 
167 1 1 0.170693 0.0773915 0.0264077 0 0 0 -0.0268402 0.0170459 0.00438267 0.000207132 4.83884e-05 0.000970974 -0.0268402 0.0170459 0.00438267 299.647 299.647 1000.71 
168 1 1 0.133541 0.0708226 0.00998099 0 0 0 -0.0290768 -0.0376666 0.00390134 -0.000908077 -0.00103081 -0.00150211 -0.0290768 -0.0376666 0.00390134 515.615 515.615 1001.22 
169 1 1 0.192337 0.0777912 0.0235396 0 0 0 -0.0789238 0.0174321 0.0171687 -0.000790675 0.000916071 0.000993417 -0.0789238 0.0174321 0.0171687 348.821 348.821 1000.83 
170 1 1 0.170478 0.0770152 0.00997679 0 0 0 -0.0677831 0.0113716 -0.000319079 -0.000838833 0.00084219 0.00112839 -0.0677831 0.0113716 -0.000319079 530.085 530.085 1001.26 
171 1 1 0.00996661 0.0900145 0.00997375 0 0 0 0.000346956 -0.00520747 -0.0144122 0.00636538 -0.00536837 0.0134356 0.000346956 -0.00520747 -0.0144122 741.342 741.342 1001.76 
172 1 1 0.0200654 0.0900156 0.00998139 0 0 0 -0.0721061 0.00133981 -0.00226943 0.00149704 -0.00518602 0.00547528 -0.0721061 0.00133981 -0.00226943 793.229 793.229 1001.88 
173 1 1 0.0325909 0.0900084 0.00999812 0 0 0 -0.0940811 -0.0069083 -0.00106871 0.000427791 0.00139153 -0.00955567 -0.0940811 -0.0069083 -0.00106871 760.803 760.803 1001.8 
174 1 1 0.0410452 0.0900024 0.00999794 0 0 0 -0.0679677 -0.00250197 0.0129517 0.0019146 0.00742626 -0.00926557 -0.0679677 -0.00250197 0.0129517 708.973 708.973 1001.68 