ITEM: TIMESTEP
78000
ITEM: NUMBER OF ATOMS
2655
ITEM: BOX BOUNDS ff ff ff
0 0.5
0 0.1
0 0.5
ITEM: ATOMS id type type x y z ix iy iz vx vy vz fx fy fz vx vy vz p p rho 
1 1 1 0.00997193 0.00998505 0.00998825 0 0 0 -0.00511839 -0.0121773 -0.022706 0.00258382 0.00396312 0.000338857 -0.00511839 -0.0121773 -0.022706 617.389 617.389 1001.46 
2 1 1 0.025846 0.0099838 0.00999309 0 0 0 0.001289 0.00579232 0.0111507 -0.000763468 0.00238583 -0.00172986 0.001289 0.00579232 0.0111507 692.308 692.308 1001.64 
3 1 1 0.0233085 0.00999371 0.00998225 0 0 0 -0.0142705 -0.00321482 -0.00402798 -0.00376786 -0.00717054 0.00906676 -0.0142705 -0.00321482 -0.00402798 684.134 684.134 1001.62 
4 1 1 0.0569049 0.00998636 0.00998353 0 0 0 0.00102305 -0.0101327 0.000378304 -0.00202986 -0.000568778 0.00323466 0.00102305 -0.0101327 0.000378304 666.948 666.948 1001.58 
5 1 1 0.0613974 0.0099869 0.00998509 0 0 0 0.0246649 0.00777854 0.0133718 -0.00297753 -0.00108244 0.00220918 0.0246649 0.00777854 0.0133718 692.76 692.76 1001.64 
6 1 1 0.0781618 0.00998524 0.00999624 0 0 0 0.00427504 2.55101e-06 0.00895503 0.00259667 0.00121825 -0.00927522 0.00427504 2.55101e-06 0.00895503 729.179 729.179 1001.73 
7 1 1 0.091473 0.00998345 0.00998841 0 0 0 0.0041667 -0.00608823 0.00604318 0.0028902 0.00122888 -0.0011214 0.0041667 -0.00608823 0.00604318 707.406 707.406 1001.68 
8 1 1 0.100573 0.00998883 0.00999235 0 0 0 -0.036844 -0.00393178 0.00441542 0.00199237 -0.00375354 -0.00583376 -0.036844 -0.00393178 0.00441542 673.828 673.828 1001.6 
9 1 1 0.109549 0.00998854 0.00999117 0 0 0 -0.0202167 0.00686741 -0.00662837 0.000878446 -0.00452734 -0.00349665 -0.0202167 0.00686741 -0.00662837 662.189 662.189 1001.57 
10 1 1 0.123226 0.00998684 0.00998239 0 0 0 -0.0391981 -0.00184894 0.0064966 -0.00013459 -0.00336427 0.00374762 -0.0391981 -0.00184894 0.0064966 649.613 649.613 1001.54 
11 1 1 0.00998033 0.023522 0.00996968 0 0 0 0.000480085 -0.0249401 -0.00653498 -0.00307532 -0.00282175 0.00908036 0.000480085 -0.0249401 -0.00653498 573.721 573.721 1001.36 
12 1 1 0.0265232 0.0323004 0.00998121 0 0 0 -0.012943 0.00238776 -0.000961735 -0.00110832 0.000978845 0.000169163 -0.012943 0.00238776 -0.000961735 540.754 540.754 1001.28 
13 1 1 0.0240995 0.0241842 0.00998085 0 0 0 0.0076495 -0.0389668 -0.00252081 -0.000578331 -0.000825225 0.00163545 0.0076495 -0.0389668 -0.00252081 589.313 589.313 1001.4 
14 1 1 0.0842859 0.0235725 0.00998363 0 0 0 -0.0590191 0.0389301 0.00156474 -3.52321e-05 -0.000616489 -0.00100536 -0.0590191 0.0389301 0.00156474 557.278 557.278 1001.32 
15 1 1 0.0712932 0.0235502 0.00998201 0 0 0 -0.0140825 -0.0485442 -0.0012409 -0.000598535 0.000132441 -0.000508529 -0.0140825 -0.0485442 -0.0012409 550.373 550.373 1001.31 
16 1 1 0.0969588 0.0264596 0.0099821 0 0 0 -0.0701759 0.0260663 0.00225824 0.000926242 -0.000413092 -0.000484906 -0.0701759 0.0260663 0.00225824 538.171 538.171 1001.28 
17 1 1 0.0929436 0.0407179 0.00998163 0 0 0 -0.00204733 -0.0117986 0.00214373 0.00209491 0.0011918 -0.00012229 -0.00204733 -0.0117986 0.00214373 496.562 496.562 1001.18 
18 1 1 0.121142 0.0329908 0.00998141 0 0 0 -0.0130707 -0.00802503 0.00141679 0.00100555 0.000833476 -0.00106334 -0.0130707 -0.00802503 0.00141679 506.772 506.772 1001.2 
19 1 1 0.10807 0.0225532 0.00998285 0 0 0 -0.0326474 0.0416541 0.000583686 0.00124664 0.00115386 -0.0017602 -0.0326474 0.0416541 0.000583686 547.606 547.606 1001.3 
20 1 1 0.144215 0.0240898 0.00997799 0 0 0 -0.0650963 0.0116738 0.00452434 0.000307379 -0.00141723 0.00241146 -0.0650963 0.0116738 0.00452434 523.445 523.445 1001.24 
21 1 1 0.00997337 0.024381 0.00997656 0 0 0 0.00116856 0.000931627 -0.00681821 0.0040837 -0.000617342 0.00207223 0.00116856 0.000931627 -0.00681821 570.674 570.674 1001.35 
22 1 1 0.0362937 0.0375229 0.009979 0 0 0 0.00213595 -0.0231954 0.000305423 7.09027e-05 0.000540161 0.00027251 0.00213595 -0.0231954 0.000305423 499.204 499.204 1001.18 
23 1 1 0.0547767 0.0417396 0.00998317 0 0 0 -0.00202349 0.0209292 0.00167315 -0.000157412 2.55278e-05 -0.000929233 -0.00202349 0.0209292 0.00167315 492.656 492.656 1001.17 
24 1 1 0.0801162 0.0293085 0.00998126 0 0 0 -0.00165595 0.0216775 0.00084501 -0.000329527 0.00147059 0.000441324 -0.00165595 0.0216775 0.00084501 519.853 519.853 1001.23 
25 1 1 0.100867 0.0378385 0.0099813 0 0 0 -0.0125564 -0.00152572 -0.00045126 0.000240448 -0.000994645 -0.000489764 -0.0125564 -0.00152572 -0.00045126 501.448 501.448 1001.19 
26 1 1 0.102202 0.0235403 0.00998215 0 0 0 -0.0378332 0.0176944 0.00340827 0.000465232 -0.000355757 -0.00111356 -0.0378332 0.0176944 0.00340827 550.336 550.336 1001.31 
27 1 1 0.129279 0.0437351 0.00998184 0 0 0 -0.0815973 0.0424054 0.00122811 -0.000376911 0.000122991 -0.000840235 -0.0815973 0.0424054 0.00122811 498.727 498.727 1001.18 
28 1 1 0.106452 0.0321659 0.00998046 0 0 0 -0.0425814 -0.027329 0.000293561 -0.000974419 0.00122434 0.000262971 -0.0425814 -0.027329 0.000293561 515.135 515.135 1001.22 
29 1 1 0.132508 0.0238926 0.00998223 0 0 0 -0.0457549 -0.00414354 5.59279e-05 -0.000300752 -0.000796017 -0.00130484 -0.0457549 -0.00414354 5.59279e-05 528.516 528.516 1001.25 
30 1 1 0.139791 0.0326202 0.00997914 0 0 0 -0.0602843 0.0306587 0.00261172 0.00108502 0.000872151 0.000823816 -0.0602843 0.0306587 0.00261172 505.033 505.033 1001.2 
31 1 1 0.00997982 0.0371263 0.00997961 0 0 0 6.77784e-05 -0.0328921 -0.00364847 0.000736266 -0.00138624 -0.00192672 6.77784e-05 -0.0328921 -0.00364847 538.091 538.091 1001.28 
32 1 1 0.0223748 0.0422057 0.00998239 0 0 0 -0.0141062 -0.0176861 -0.000600655 -0.00126365 -0.000117174 0.000114936 -0.0141062 -0.0176861 -0.000600655 518.921 518.921 1001.23 
33 1 1 0.0476583 0.0348852 0.00998109 0 0 0 -0.00250466 0.00659745 0.00103861 0.000136074 0.00110452 -0.00018502 -0.00250466 0.00659745 0.00103861 490.799 490.799 1001.16 
34 1 1 0.0674742 0.0373466 0.00998084 0 0 0 -0.011684 -0.00102575 0.000872692 0.000238023 0.000468074 0.000278448 -0.011684 -0.00102575 0.000872692 499.039 499.039 1001.18 
35 1 1 0.0721192 0.0418756 0.00998099 0 0 0 -0.0109929 0.0105661 0.000596218 0.000541904 3.77729e-05 -0.000122925 -0.0109929 0.0105661 0.000596218 495.528 495.528 1001.18 
36 1 1 0.0906396 0.0299388 0.00998237 0 0 0 -0.0014143 -0.0105647 -0.000857908 0.000329155 0.001119 -0.0005277 -0.0014143 -0.0105647 -0.000857908 523.043 523.043 1001.24 
37 1 1 0.114338 0.0403417 0.00998134 0 0 0 -0.0419454 -0.0117831 0.000294528 0.000170571 -5.63716e-05 -0.00134686 -0.0419454 -0.0117831 0.000294528 498.136 498.136 1001.18 
38 1 1 0.121946 0.0412042 0.00998124 0 0 0 -0.0608024 -0.0249357 0.00115566 1.44563e-05 -0.000903457 -0.000855444 -0.0608024 -0.0249357 0.00115566 500.543 500.543 1001.19 
39 1 1 0.142479 0.0428868 0.00998044 0 0 0 -0.0463586 0.00377899 0.000406764 -0.00132347 0.000116722 -0.000586862 -0.0463586 0.00377899 0.000406764 491.045 491.045 1001.17 
40 1 1 0.154873 0.0360264 0.00997935 0 0 0 -0.0435504 -0.0180696 -0.000959621 -0.00114953 6.0196e-05 0.001559 -0.0435504 -0.0180696 -0.000959621 494.177 494.177 1001.17 
41 1 1 0.00997943 0.0528445 0.00997532 0 0 0 -0.00974115 0.00970976 0.00474311 -0.000231806 -0.0013132 0.00048812 -0.00974115 0.00970976 0.00474311 534.55 534.55 1001.27 
42 1 1 0.0342509 0.0500365 0.00997865 0 0 0 0.00607097 0.00742454 -0.000800925 0.0002169 -0.00024072 0.000413398 0.00607097 0.00742454 -0.000800925 508.122 508.122 1001.21 
43 1 1 0.0477555 0.0500106 0.00998084 0 0 0 -0.0308995 0.000475219 -0.000247217 -0.000287209 -0.000162418 0.000768247 -0.0308995 0.000475219 -0.000247217 491.336 491.336 1001.17 
44 1 1 0.0672968 0.0499886 0.00998279 0 0 0 -0.0376078 0.000530055 0.000242646 0.000739833 0.000124651 -1.09397e-06 -0.0376078 0.000530055 0.000242646 492.861 492.861 1001.17 
45 1 1 0.0818624 0.0499955 0.00998062 0 0 0 -0.0204385 0.000146138 -0.000313801 0.0012314 0.0002352 -0.000350318 -0.0204385 0.000146138 -0.000313801 488.276 488.276 1001.16 
46 1 1 0.0882844 0.0499833 0.0099821 0 0 0 0.0237973 0.000599562 -0.00135925 2.6241e-06 0.000233198 -0.000864929 0.0237973 0.000599562 -0.00135925 491.119 491.119 1001.17 
47 1 1 0.0949036 0.0499942 0.00998168 0 0 0 -0.0288809 0.000348485 0.00214074 -0.000570256 0.000181851 -0.000173388 -0.0288809 0.000348485 0.00214074 490.183 490.183 1001.16 
48 1 1 0.122466 0.0499847 0.00998123 0 0 0 -0.0381579 -0.000155149 -0.000293053 -0.000225607 -9.7236e-06 -0.000513081 -0.0381579 -0.000155149 -0.000293053 497.02 497.02 1001.18 
49 1 1 0.11003 0.0499731 0.00998014 0 0 0 -0.0179025 -0.000360195 0.00201691 -0.00106188 7.23637e-05 -0.000369621 -0.0179025 -0.000360195 0.00201691 487.09 487.09 1001.16 
50 1 1 0.150785 0.0499862 0.00998075 0 0 0 -0.0487051 0.000105772 0.000419706 -0.00106549 -0.00029915 -0.000393317 -0.0487051 0.000105772 0.000419706 484.459 484.459 1001.15 
51 1 1 0.00998081 0.0631326 0.00997787 0 0 0 0.00123885 0.0306925 -0.00583065 0.000161219 0.000598087 -0.000859704 0.00123885 0.0306925 -0.00583065 546.742 546.742 1001.3 
52 1 1 0.0224002 0.0576607 0.0099805 0 0 0 -0.0179638 0.0174385 -7.83759e-05 -0.00166375 -0.000241694 0.00124413 -0.0179638 0.0174385 -7.83759e-05 521.57 521.57 1001.24 
53 1 1 0.0476015 0.0650778 0.00998043 0 0 0 -0.00535235 -0.00294876 0.00126804 0.000220844 -0.000973294 0.000497962 -0.00535235 -0.00294876 0.00126804 495.535 495.535 1001.18 
54 1 1 0.0674884 0.0626204 0.00998023 0 0 0 -0.0110867 0.0012504 0.000668248 0.000459634 4.64011e-06 0.00100601 -0.0110867 0.0012504 0.000668248 494.83 494.83 1001.17 
55 1 1 0.0721432 0.0581498 0.00998032 0 0 0 -0.0116694 -0.0086892 0.000405339 0.000669576 0.000390817 0.000549494 -0.0116694 -0.0086892 0.000405339 492.088 492.088 1001.17 
56 1 1 0.0906026 0.0700775 0.00998211 0 0 0 -0.00196862 0.0111557 -0.00130371 0.000126047 -0.000397011 -0.000167291 -0.00196862 0.0111557 -0.00130371 513.733 513.733 1001.22 
57 1 1 0.114308 0.0596453 0.00998128 0 0 0 -0.0426774 0.0123944 0.000191435 9.57367e-08 0.000215589 -0.001295 -0.0426774 0.0123944 0.000191435 496.814 496.814 1001.18 
58 1 1 0.121939 0.0588072 0.00998113 0 0 0 -0.0609496 0.0259233 0.00116854 -0.000132073 0.000896599 -0.000766123 -0.0609496 0.0259233 0.00116854 500.512 500.512 1001.19 
59 1 1 0.142511 0.057116 0.00998021 0 0 0 -0.0463622 -0.00379199 0.000303458 -0.00147997 -0.000512125 -0.000435883 -0.0463622 -0.00379199 0.000303458 494.052 494.052 1001.17 
60 1 1 0.154763 0.0640815 0.00997871 0 0 0 -0.0459765 0.0199922 -0.000801536 -0.00155524 -0.000717908 0.00197788 -0.0459765 0.0199922 -0.000801536 504.476 504.476 1001.2 
61 1 1 0.00996969 0.075939 0.00997948 0 0 0 0.00169367 0.0136948 -0.00119557 0.00749628 0.000257511 -0.000809422 0.00169367 0.0136948 -0.00119557 599.537 599.537 1001.42 
62 1 1 0.0364234 0.062551 0.0099798 0 0 0 0.0023598 0.0238897 0.000554359 9.09053e-05 -0.000500385 0.000110389 0.0023598 0.0238897 0.000554359 503.357 503.357 1001.19 
63 1 1 0.0546844 0.0583218 0.00998286 0 0 0 -0.00469499 -0.0179218 0.00160262 0.000128585 1.12092e-06 -0.000442063 -0.00469499 -0.0179218 0.00160262 492.289 492.289 1001.17 
64 1 1 0.0801184 0.070666 0.0099806 0 0 0 -0.000530206 -0.0210036 0.000227097 -0.000390391 -0.000415028 0.00108006 -0.000530206 -0.0210036 0.000227097 508.615 508.615 1001.21 
65 1 1 0.100842 0.0621605 0.00998129 0 0 0 -0.01274 0.00250154 -0.000566508 0.000105369 0.0013465 -0.00039522 -0.01274 0.00250154 -0.000566508 497.688 497.688 1001.18 
66 1 1 0.102229 0.0764507 0.00998207 0 0 0 -0.0377244 -0.016653 0.00209941 -6.51782e-05 0.000862835 -0.000853527 -0.0377244 -0.016653 0.00209941 539.994 539.994 1001.28 
67 1 1 0.129226 0.0562545 0.00998177 0 0 0 -0.0825344 -0.0411242 0.00124908 -0.000491255 -0.000231385 -0.000788246 -0.0825344 -0.0411242 0.00124908 499.468 499.468 1001.18 
68 1 1 0.106418 0.0678183 0.00998047 0 0 0 -0.0432601 0.0272346 0.000202434 -0.00118423 -0.000905338 0.00035527 -0.0432601 0.0272346 0.000202434 510.11 510.11 1001.21 
69 1 1 0.13248 0.0760735 0.00998089 0 0 0 -0.0462124 0.00399494 -0.000311607 -0.000869884 0.000723416 -6.6717e-05 -0.0462124 0.00399494 -0.000311607 532.12 532.12 1001.26 
70 1 1 0.139803 0.0674079 0.00997946 0 0 0 -0.0608185 -0.0296847 0.00247713 0.000693098 -0.00115169 0.000357007 -0.0608185 -0.0296847 0.00247713 510.775 510.775 1001.21 
71 1 1 0.00997999 0.0764865 0.00997109 0 0 0 -0.00293566 0.0283133 0.00199093 -0.00293762 0.00199442 0.00759935 -0.00293566 0.0283133 0.00199093 601.224 601.224 1001.43 
72 1 1 0.0265628 0.0677133 0.00998125 0 0 0 -0.0148752 -0.00388859 -0.000516194 -0.00101639 -0.000585752 0.000631441 -0.0148752 -0.00388859 -0.000516194 543.965 543.965 1001.29 
73 1 1 0.0240229 0.0757377 0.00997963 0 0 0 0.0110424 0.0325129 -0.00298825 0.000484691 0.0013824 0.00312873 0.0110424 0.0325129 -0.00298825 588.168 588.168 1001.39 
74 1 1 0.0842974 0.0764264 0.00998429 0 0 0 -0.0610706 -0.0387858 0.00203542 -0.000488095 0.00237291 -0.00145452 -0.0610706 -0.0387858 0.00203542 537.234 537.234 1001.27 
75 1 1 0.0712743 0.0764308 0.0099814 0 0 0 -0.0180341 0.0495209 -0.000225822 -9.49785e-05 0.0021032 0.000247097 -0.0180341 0.0495209 -0.000225822 528.791 528.791 1001.25 
76 1 1 0.0969758 0.0735555 0.00998188 0 0 0 -0.069382 -0.0255363 0.0018272 0.000475376 0.0010386 -7.89114e-05 -0.069382 -0.0255363 0.0018272 528.096 528.096 1001.25 
77 1 1 0.0929128 0.0592844 0.00998154 0 0 0 -0.00323773 0.0117222 0.00199849 0.00198588 -0.000802544 4.40252e-05 -0.00323773 0.0117222 0.00199849 493.039 493.039 1001.17 
78 1 1 0.121185 0.0669385 0.00998113 0 0 0 -0.0124026 0.00780369 0.00100585 0.000693399 -0.000712931 -0.000785256 -0.0124026 0.00780369 0.00100585 506.322 506.322 1001.2 
79 1 1 0.108086 0.0774401 0.00998242 0 0 0 -0.0335697 -0.0427803 -0.000227632 0.000806679 -0.000796204 -0.00117565 -0.0335697 -0.0427803 -0.000227632 538.96 538.96 1001.28 
80 1 1 0.144177 0.0759174 0.00997777 0 0 0 -0.0653864 -0.011827 0.00380041 -0.000306116 0.00107914 0.00237259 -0.0653864 -0.011827 0.00380041 534.514 534.514 1001.27 
81 1 1 0.00997316 0.090008 0.00998344 0 0 0 0.00105727 0.00922392 -0.00205833 0.0015518 0.00414001 0.00517133 0.00105727 0.00922392 -0.00205833 622.016 622.016 1001.47 
82 1 1 0.0259246 0.0900065 0.0100042 0 0 0 -0.00505544 -0.00186413 0.000763389 0.000692575 0.0074584 -0.0285186 -0.00505544 -0.00186413 0.000763389 665.272 665.272 1001.58 
83 1 1 0.0231201 0.0900126 0.00998601 0 0 0 -0.0224585 0.00103254 -0.00272547 -0.00137145 0.00122932 0.00420826 -0.0224585 0.00103254 -0.00272547 661.431 661.431 1001.57 
84 1 1 0.0568277 0.0900118 0.00997731 0 0 0 -0.000809518 0.00653993 0.00279312 0.00103106 0.00227378 0.00874546 -0.000809518 0.00653993 0.00279312 644.552 644.552 1001.53 
85 1 1 0.0613995 0.0900213 0.0099863 0 0 0 0.0255985 0.00524059 0.000201629 0.000274049 -0.00735223 0.00012775 0.0255985 0.00524059 0.000201629 639.222 639.222 1001.52 
86 1 1 0.0782281 0.0900145 0.00999968 0 0 0 0.00440838 -0.00365469 0.00516315 0.00149209 -0.00138127 -0.0124466 0.00440838 -0.00365469 0.00516315 656.039 656.039 1001.55 
87 1 1 0.091519 0.0900118 0.00999732 0 0 0 0.00536529 0.00834077 0.00496619 0.000820051 0.00310573 -0.00988941 0.00536529 0.00834077 0.00496619 662.334 662.334 1001.57 
88 1 1 0.10063 0.0900134 0.0099873 0 0 0 -0.0351088 -0.00383477 0.00769962 0.000435355 0.0011699 -0.00064119 -0.0351088 -0.00383477 0.00769962 654.032 654.032 1001.55 
89 1 1 0.109583 0.0900141 0.009991 0 0 0 -0.0198087 0.000186236 -0.00695959 0.000177851 0.00164229 -0.00320457 -0.0198087 0.000186236 -0.00695959 651.499 651.499 1001.54 
90 1 1 0.123261 0.0900132 0.00997978 0 0 0 -0.038319 0.00396076 0.00492559 -0.00079807 0.00329972 0.00638882 -0.038319 0.00396076 0.00492559 644.957 644.957 1001.53 
91 1 1 0.00996723 0.0100005 0.00999481 0 0 0 0.00789205 0.0074539 -0.0297637 0.00727623 -0.0285404 -0.00614486 0.00789205 0.0074539 -0.0297637 617.32 617.32 1001.46 
92 1 1 0.0188508 0.00999065 0.00999319 0 0 0 0.0509847 0.00362213 -0.00904219 -0.00203098 -0.00447321 -0.00297861 0.0509847 0.00362213 -0.00904219 661.052 661.052 1001.57 
93 1 1 0.0312839 0.00998435 0.00997707 0 0 0 0.0345188 -0.00701531 -0.00907077 -0.00203643 0.00103551 0.0133818 0.0345188 -0.00701531 -0.00907077 697.874 697.874 1001.65 
94 1 1 0.0395109 0.00997756 0.00999157 0 0 0 0.0176085 0.00433214 0.0215111 8.71344e-05 0.00714704 -0.00237967 0.0176085 0.00433214 0.0215111 680.536 680.536 1001.61 
95 1 1 0.0653488 0.009979 0.00998136 0 0 0 0.0119799 -0.00215396 0.0139365 -0.00135546 0.00712251 0.00605449 0.0119799 -0.00215396 0.0139365 712.638 712.638 1001.69 
96 1 1 0.0872041 0.0099843 0.00998255 0 0 0 -0.00548572 0.00990274 0.00403302 0.00218794 0.00102643 0.00545741 -0.00548572 0.00990274 0.00403302 720.996 720.996 1001.71 
97 1 1 0.0959069 0.00998352 0.00997292 0 0 0 0.0467362 -0.000821517 0.00162244 0.00371031 0.0015031 0.0134852 0.0467362 -0.000821517 0.00162244 689.727 689.727 1001.63 
98 1 1 0.105002 0.00998777 0.00998902 0 0 0 0.031107 1.97435e-05 0.00251239 0.000766628 -0.00348738 -0.00195327 0.031107 1.97435e-05 0.00251239 666.038 666.038 1001.58 
99 1 1 0.113741 0.009978 0.00999203 0 0 0 -0.0247492 0.00311212 -0.00129182 0.00224641 0.00604932 -0.0044158 -0.0247492 0.00311212 -0.00129182 658.496 658.496 1001.56 
100 1 1 0.118001 0.00998599 0.00998612 0 0 0 -0.00481861 0.0063989 -0.00642486 0.00275552 -0.00220031 0.000669442 -0.00481861 0.0063989 -0.00642486 654.421 654.421 1001.55 
101 1 1 0.00998922 0.0223843 0.0210751 0 0 0 0.00378446 -0.0207545 -0.00133572 -0.00215715 0.000405537 -0.000878818 0.00378446 -0.0207545 -0.00133572 435.136 435.136 1001.03 
102 1 1 0.0198887 0.0245962 0.00997897 0 0 0 -0.0201941 -0.0147138 -0.00469355 -0.00155337 -0.000381029 0.0025845 -0.0201941 -0.0147138 -0.00469355 587.611 587.611 1001.39 
103 1 1 0.0353747 0.0227914 0.0240356 0 0 0 -0.0033474 0.0288537 0.0516495 -0.00103134 -0.000410086 -0.000847323 -0.0033474 0.0288537 0.0516495 315.978 315.978 1000.75 
104 1 1 0.0829152 0.0212747 0.0397023 0 0 0 -0.0647233 0.0060633 0.0501679 0.000387966 0.00117534 -0.00162679 -0.0647233 0.0060633 0.0501679 152.518 152.518 1000.36 
105 1 1 0.125759 0.021431 0.0417622 0 0 0 -0.0180577 0.0141982 0.0126167 -4.70003e-05 -0.000144521 0.00058362 -0.0180577 0.0141982 0.0126167 151.118 151.118 1000.36 
106 1 1 0.120939 0.0238868 0.00998787 0 0 0 -0.0326191 -0.00409711 0.00685473 -0.000875395 0.000829924 -0.00684501 -0.0326191 -0.00409711 0.00685473 528.285 528.285 1001.25 
107 1 1 0.170389 0.021708 0.0265651 0 0 0 0.00547746 -0.0152493 -0.0132793 1.1629e-05 -0.000365497 -0.0014559 0.00547746 -0.0152493 -0.0132793 273.704 273.704 1000.65 
108 1 1 0.131021 0.0323021 0.00997867 0 0 0 -0.0555025 0.0504836 -0.000110973 -0.000226961 -0.000364 0.00168142 -0.0555025 0.0504836 -0.000110973 506.689 506.689 1001.2 
109 1 1 0.188844 0.0209632 0.0242803 0 0 0 -0.0293169 -0.00143716 0.00574071 0.000351293 0.000964987 -0.000692374 -0.0293169 -0.00143716 0.00574071 311.966 311.966 1000.74 
110 1 1 0.165723 0.0218768 0.00998445 0 0 0 -0.0887598 0.00120843 0.000301773 -0.000241676 0.000776174 -0.00169918 -0.0887598 0.00120843 0.000301773 551.52 551.52 1001.31 
111 1 1 0.00998162 0.0318927 0.00997724 0 0 0 0.000258754 0.00444003 -0.00123571 -0.00148919 -0.00221232 0.00149551 0.000258754 0.00444003 -0.00123571 547.848 547.848 1001.3 
112 1 1 0.0237402 0.0257253 0.0415323 0 0 0 0.0489755 0.00396148 -0.0762726 -0.00171262 -0.00117171 -0.00102947 0.0489755 0.00396148 -0.0762726 161.743 161.743 1000.38 
113 1 1 0.0411455 0.0328739 0.00998012 0 0 0 -0.0148092 0.00635869 -0.000580686 -0.00120427 0.000328337 0.000140397 -0.0148092 0.00635869 -0.000580686 496.165 496.165 1001.18 
114 1 1 0.0527676 0.0243243 0.00998066 0 0 0 -0.0114398 -0.00953449 -0.000814825 2.5109e-05 -0.000167575 0.000702002 -0.0114398 -0.00953449 -0.000814825 522.052 522.052 1001.24 
115 1 1 0.080088 0.0215856 0.0237203 0 0 0 -0.0627908 0.0140352 -0.00674898 0.000218996 0.00167111 -0.000679351 -0.0627908 0.0140352 -0.00674898 318.284 318.284 1000.76 
116 1 1 0.0899031 0.0374376 0.00998257 0 0 0 -0.0469519 0.0214573 0.000590267 -0.000845114 -0.000245082 -0.000764438 -0.0469519 0.0214573 0.000590267 502.813 502.813 1001.19 
117 1 1 0.165357 0.0280273 0.0242395 0 0 0 -0.0231363 -0.00530791 0.0466137 -4.50405e-05 -0.000230068 -0.0012445 -0.0231363 -0.00530791 0.0466137 286.965 286.965 1000.68 
118 1 1 0.182857 0.0255223 0.0228841 0 0 0 -0.0349987 0.0152934 0.0356221 0.000631048 -0.000750968 0.00178597 -0.0349987 0.0152934 0.0356221 330.102 330.102 1000.78 
119 1 1 0.138761 0.0225318 0.00998138 0 0 0 -0.0663597 0.0367136 0.00197182 -0.000345481 -0.000235961 -0.000844425 -0.0663597 0.0367136 0.00197182 534.095 534.095 1001.27 
120 1 1 0.197268 0.0238266 0.0229675 0 0 0 -0.0396106 -0.00768824 0.0416645 -0.000547757 0.000209382 0.000426745 -0.0396106 -0.00768824 0.0416645 335.12 335.12 1000.8 
121 1 1 0.00998079 0.0417486 0.00997536 0 0 0 0.00164583 0.0367111 -0.00417117 -0.000707746 0.000611966 0.00162908 0.00164583 0.0367111 -0.00417117 535.835 535.835 1001.27 
122 1 1 0.0217209 0.0370294 0.00998255 0 0 0 -0.000200402 -0.0302428 -0.00387065 -0.00133227 -0.00157993 -0.000383867 -0.000200402 -0.0302428 -0.00387065 531.257 531.257 1001.26 
123 1 1 0.0303823 0.0229841 0.00998615 0 0 0 -0.0476476 0.0257711 -0.00298215 0.0014832 0.000765918 -0.00368625 -0.0476476 0.0257711 -0.00298215 582.468 582.468 1001.38 
124 1 1 0.0669164 0.0301379 0.00998071 0 0 0 -0.0173582 0.0303432 -0.000166128 0.000195778 0.00067556 -0.000143531 -0.0173582 0.0303432 -0.000166128 508.943 508.943 1001.21 
125 1 1 0.0782598 0.0365403 0.0099815 0 0 0 -0.0173817 0.00877946 0.00110096 -0.000222762 0.000148221 -0.000930175 -0.0173817 0.00877946 0.00110096 502.03 502.03 1001.19 
126 1 1 0.112801 0.033294 0.00998198 0 0 0 -0.0208261 -0.0161696 0.00103788 0.000785336 0.00101627 -0.00156878 -0.0208261 -0.0161696 0.00103788 508.437 508.437 1001.21 
127 1 1 0.14522 0.0372394 0.00998079 0 0 0 -0.0294571 0.0237391 0.000620352 -0.00102672 -0.00130002 -0.00109331 -0.0294571 0.0237391 0.000620352 494.036 494.036 1001.17 
128 1 1 0.132292 0.0385866 0.00998261 0 0 0 -0.012668 0.0112384 0.00136606 0.00073082 -0.00072884 -0.00178239 -0.012668 0.0112384 0.00136606 501.291 501.291 1001.19 
129 1 1 0.125987 0.022954 0.00998108 0 0 0 -0.0191215 0.00921006 -0.00314204 0.00179323 0.000870751 0.000211328 -0.0191215 0.00921006 -0.00314204 535.316 535.316 1001.27 
130 1 1 0.170077 0.0322739 0.00998048 0 0 0 -0.0684496 -0.00683549 -0.000745945 -0.000420219 -0.000627482 0.000415465 -0.0684496 -0.00683549 -0.000745945 529.76 529.76 1001.26 
131 1 1 0.00997546 0.047126 0.00997723 0 0 0 -0.00565057 -0.0195389 0.00248226 0.00354663 0.00060738 -0.000456439 -0.00565057 -0.0195389 0.00248226 535.353 535.353 1001.27 
132 1 1 0.020934 0.0498635 0.00998327 0 0 0 0.0453696 0.00367398 0.000507392 -0.00108647 -2.43262e-05 -0.000549451 0.0453696 0.00367398 0.000507392 519.148 519.148 1001.23 
133 1 1 0.0402478 0.0500113 0.00998101 0 0 0 -0.00604247 0.00254627 -0.000834932 -0.0019167 -0.000275808 -0.0012557 -0.00604247 0.00254627 -0.000834932 498.885 498.885 1001.18 
134 1 1 0.0747756 0.0499836 0.00998094 0 0 0 0.00223966 0.000713384 0.000231833 -0.00058188 0.0002152 -0.000281136 0.00223966 0.000713384 0.000231833 489.354 489.354 1001.16 
135 1 1 0.114898 0.0500061 0.00998003 0 0 0 -0.028295 0.000824375 0.00173391 0.00100858 7.87052e-05 -0.000294055 -0.028295 0.000824375 0.00173391 491.101 491.101 1001.17 
136 1 1 0.128771 0.0499939 0.0266938 0 0 0 -0.043236 0.00030426 -0.0217884 2.61991e-05 -3.58666e-05 -0.00135039 -0.043236 0.00030426 -0.0217884 247.628 247.628 1000.59 
137 1 1 0.160668 0.0499991 0.0231775 0 0 0 -0.0298435 0.000182356 0.00568228 -0.000929771 -0.000271408 0.000382738 -0.0298435 0.000182356 0.00568228 283.262 283.262 1000.67 
138 1 1 0.133972 0.0499822 0.00998067 0 0 0 -0.0159846 0.000365957 0.000704775 -0.000787241 -0.000109722 0.000221134 -0.0159846 0.000365957 0.000704775 494.241 494.241 1001.17 
139 1 1 0.140276 0.0500245 0.00998059 0 0 0 -0.0282946 0.000447078 0.000600065 0.000398631 -0.000201188 -0.000666757 -0.0282946 0.000447078 0.000600065 490.122 490.122 1001.16 
140 1 1 0.218152 0.0500005 0.0239684 0 0 0 -0.0231821 -0.000784483 -0.0439159 -0.000546097 -0.00012927 -0.000384315 -0.0231821 -0.000784483 -0.0439159 298.369 298.369 1000.71 
141 1 1 0.0099825 0.058326 0.00997256 0 0 0 0.00291313 -0.0394175 -0.00623025 -0.00194249 -0.00137343 0.00308693 0.00291313 -0.0394175 -0.00623025 537.009 537.009 1001.27 
142 1 1 0.0218617 0.0629485 0.00998124 0 0 0 -0.00306849 0.0325185 -0.00368084 -0.00150605 0.00125646 0.000654621 -0.00306849 0.0325185 -0.00368084 536.083 536.083 1001.27 
143 1 1 0.0301635 0.0769299 0.00998594 0 0 0 -0.042995 -0.03004 -0.00207474 0.00204822 0.00036483 -0.00334184 -0.042995 -0.03004 -0.00207474 574.205 574.205 1001.36 
144 1 1 0.0668482 0.0698807 0.00998017 0 0 0 -0.0200385 -0.0279726 0.000141744 0.000696076 0.000119293 0.000685258 -0.0200385 -0.0279726 0.000141744 502.412 502.412 1001.19 
145 1 1 0.0782306 0.0634302 0.00998072 0 0 0 -0.0187972 -0.00750471 0.000770194 -0.000119722 0.000519208 -0.000109602 -0.0187972 -0.00750471 0.000770194 495.582 495.582 1001.18 
146 1 1 0.112805 0.0667056 0.00998185 0 0 0 -0.020349 0.0168563 0.000827651 0.00052981 -0.00076196 -0.00139685 -0.020349 0.0168563 0.000827651 505.379 505.379 1001.2 
147 1 1 0.14523 0.0627625 0.00998067 0 0 0 -0.0286145 -0.0231911 0.000332545 -0.00129911 0.000873843 -0.00112119 -0.0286145 -0.0231911 0.000332545 500.171 500.171 1001.19 
148 1 1 0.132396 0.0613591 0.00998239 0 0 0 -0.0112317 -0.0109385 0.00103674 0.000504292 0.000590363 -0.00163075 -0.0112317 -0.0109385 0.00103674 503.368 503.368 1001.19 
149 1 1 0.125973 0.0770231 0.00998161 0 0 0 -0.0194512 -0.00841988 -0.00306688 0.00131079 -0.000791489 -0.000333755 -0.0194512 -0.00841988 -0.00306688 535.556 535.556 1001.27 
150 1 1 0.170073 0.0677203 0.00997967 0 0 0 -0.0689721 0.00719295 -0.000734822 -0.000690812 -0.000330944 0.000860114 -0.0689721 0.00719295 -0.000734822 548.98 548.98 1001.3 
151 1 1 0.00997817 0.0680816 0.00997846 0 0 0 -0.000959046 0.00054836 0.000354415 0.00205233 0.00193167 0.000231506 -0.000959046 0.00054836 0.000354415 566.984 566.984 1001.34 
152 1 1 0.0233684 0.0743568 0.0417308 0 0 0 0.0403823 0.00277896 -0.0825681 -0.000590893 0.00150491 -0.0017558 0.0403823 0.00277896 -0.0825681 154.554 154.554 1000.37 
153 1 1 0.0410231 0.0673092 0.00997979 0 0 0 -0.0178389 0.00197673 -0.000113174 -0.00122827 0.000310885 0.000987557 -0.0178389 0.00197673 -0.000113174 501.768 501.768 1001.19 
154 1 1 0.0527934 0.0756064 0.00997966 0 0 0 -0.00943918 0.00908417 -0.00120557 0.000514868 0.0010557 0.00124992 -0.00943918 0.00908417 -0.00120557 524.812 524.812 1001.24 
155 1 1 0.079983 0.0785911 0.0238031 0 0 0 -0.0590168 -0.0124539 -0.00273693 0.000309186 -0.0005347 -0.0012205 -0.0590168 -0.0124539 -0.00273693 306.418 306.418 1000.73 
156 1 1 0.0899323 0.06256 0.00998213 0 0 0 -0.0463409 -0.0208313 0.000278681 -0.00092947 0.000765032 -0.000275169 -0.0463409 -0.0208313 0.000278681 497.513 497.513 1001.18 
157 1 1 0.165353 0.0719689 0.0242408 0 0 0 -0.0237013 0.00545103 0.0463065 -0.000300708 -0.000333129 -0.000894045 -0.0237013 0.00545103 0.0463065 300.841 300.841 1000.71 
158 1 1 0.182857 0.0744787 0.0228839 0 0 0 -0.035729 -0.0153066 0.0356073 0.00064545 6.45233e-05 0.00239175 -0.035729 -0.0153066 0.0356073 350.792 350.792 1000.83 
159 1 1 0.138716 0.0774684 0.00998019 0 0 0 -0.0670229 -0.0363778 0.000898279 -0.00100499 -2.78911e-05 0.000158487 -0.0670229 -0.0363778 0.000898279 542.359 542.359 1001.29 
160 1 1 0.197268 0.0761731 0.0229672 0 0 0 -0.040707 0.00701293 0.0419052 -0.000329531 -0.000931723 0.00105036 -0.040707 0.00701293 0.0419052 355.439 355.439 1000.84 
161 1 1 0.00998946 0.0777634 0.0213292 0 0 0 -0.0016677 0.00183746 0.00162848 -0.00196941 -0.000998231 -0.00128393 -0.0016677 0.00183746 0.00162848 460.771 460.771 1001.09 
162 1 1 0.0198167 0.0752967 0.00997721 0 0 0 -0.019091 0.00739366 -0.00219619 0.000125281 0.000376876 0.00464916 -0.019091 0.00739366 -0.00219619 595.037 595.037 1001.41 
163 1 1 0.0349657 0.0773244 0.0237571 0 0 0 -0.00116507 -0.0272512 0.0407428 -0.000276477 0.000559507 -0.0019692 -0.00116507 -0.0272512 0.0407428 306.263 306.263 1000.73 
164 1 1 0.0832852 0.0786505 0.0394605 0 0 0 -0.0633371 -0.00728552 0.0462344 0.00011732 -0.000942436 -0.00167983 -0.0633371 -0.00728552 0.0462344 151.524 151.524 1000.36 
165 1 1 0.12578 0.0785401 0.0417487 0 0 0 -0.0182209 -0.0139609 0.0121252 -0.000159766 0.000263874 0.000733159 -0.0182209 -0.0139609 0.0121252 147.422 147.422 1000.35 
166 1 1 0.120927 0.0761513 0.00998697 0 0 0 -0.0331426 0.00456299 0.00717714 -0.0012837 -0.000737371 -0.00592283 -0.0331426 0.00456299 0.00717714 526.908 526.908 1001.25 
167 1 1 0.170387 0.0782925 0.0265608 0 0 0 0.00487486 0.0154707 -0.0136207 -0.000237973 -0.000158544 -0.000919414 0.00487486 0.0154707 -0.0136207 292.014 292.014 1000.69 
168 1 1 0.130989 0.0676509 0.00997917 0 0 0 -0.0553781 -0.0504285 -0.000493674 -0.000570108 0.000261171 0.00110767 -0.0553781 -0.0504285 -0.000493674 509.412 509.412 1001.21 
169 1 1 0.188844 0.0790354 0.0242792 0 0 0 -0.0304085 0.00105473 0.00577617 0.000476931 -0.00173859 -8.59732e-05 -0.0304085 0.00105473 0.00577617 334.964 334.964 1000.8 
170 1 1 0.165725 0.078125 0.0099836 0 0 0 -0.0894776 -0.000570555 0.000187336 -0.000799584 -0.00156513 -0.00128509 -0.0894776 -0.000570555 0.000187336 580.698 580.698 1001.38 
171 1 1 0.00997119 0.090006 0.00997017 0 0 0 -0.00844595 -0.00473947 -0.0174324 0.00354039 0.00616012 0.0184059 -0.00844595 -0.00473947 -0.0174324 622.055 622.055 1001.47 
172 1 1 0.0188729 0.0900103 0.00999774 0 0 0 0.0359699 0.000945604 0.00414928 -0.000250666 0.00410959 -0.00834688 0.0359699 0.000945604 0.00414928 649.183 649.183 1001.54 
173 1 1 0.0313324 0.0900211 0.0100039 0 0 0 0.024747 0.00700051 -0.0025589 -0.00144217 -0.00651662 -0.028424 0.024747 0.00700051 -0.0025589 662.352 662.352 1001.57 
174 1 1 0.0394154 0.0900249 0.0100005 0 0 0 0.012169 0.00224034 -0.0146722 -0.000492007 -0.00975191 -0.0284669 0.012169 0.00224034 -0.0146722 645.919 645.919 1001.53 