ITEM: TIMESTEP
149000
ITEM: NUMBER OF ATOMS
2655
ITEM: BOX BOUNDS ff ff ff
0 0.5
0 0.1
0 0.5
ITEM: ATOMS id type type x y z ix iy iz vx vy vz fx fy fz vx vy vz p p rho 
1 1 1 0.0100209 0.00999692 0.00999179 0 0 0 -0.0213083 0.00913788 0.0227866 -0.0102906 -0.00795594 -0.0105161 -0.0213083 0.00913788 0.0227866 311.846 311.846 1000.74 
2 1 1 0.0412607 0.0100141 0.00997292 0 0 0 0.0217463 0.00816669 0.0020166 0.00070537 -0.0123934 0.00857658 0.0217463 0.00816669 0.0020166 223.549 223.549 1000.53 
3 1 1 0.0359754 0.00999903 0.00997824 0 0 0 0.022224 -0.00711996 0.00634625 -0.0027603 -0.00585634 0.00327076 0.022224 -0.00711996 0.00634625 222.283 222.283 1000.53 
4 1 1 0.0769867 0.0099958 0.0099754 0 0 0 0.0155325 -0.0020132 0.00686225 -0.00365093 -0.00691665 0.00384339 0.0155325 -0.0020132 0.00686225 251.327 251.327 1000.6 
5 1 1 0.0815541 0.00998391 0.00998803 0 0 0 0.0169917 0.00770562 0.000403432 -0.00413976 0.00479161 -0.00911471 0.0169917 0.00770562 0.000403432 281.676 281.676 1000.67 
6 1 1 0.100393 0.00998234 0.00997918 0 0 0 0.0451178 -0.00527474 0.0147596 -0.00377929 0.00184959 -0.0022624 0.0451178 -0.00527474 0.0147596 378.692 378.692 1000.9 
7 1 1 0.114617 0.00997592 0.0099784 0 0 0 0.0470411 0.00247471 0.00181448 -0.0021629 0.00700654 -0.00326048 0.0470411 0.00247471 0.00181448 447.218 447.218 1001.06 
8 1 1 0.124637 0.00998054 0.00997177 0 0 0 0.0340301 0.00170677 -0.002486 -0.00163063 0.001394 0.00289514 0.0340301 0.00170677 -0.002486 471.271 471.271 1001.12 
9 1 1 0.133701 0.00998381 0.00997021 0 0 0 0.0432042 0.000931266 -0.00340208 0.000562923 -0.00156084 0.00594878 0.0432042 0.000931266 -0.00340208 465.045 465.045 1001.1 
10 1 1 0.14754 0.00998602 0.00997191 0 0 0 0.0418877 -0.00345907 -0.00188799 0.00189806 -0.00350769 0.00513201 0.0418877 -0.00345907 -0.00188799 442.577 442.577 1001.05 
11 1 1 0.00998387 0.0209757 0.00999231 0 0 0 0.00664608 -0.0223498 0.0180921 0.0118526 0.00206732 -0.0133174 0.00664608 -0.0223498 0.0180921 376.028 376.028 1000.89 
12 1 1 0.0339736 0.0338934 0.00998058 0 0 0 0.00942557 0.00210586 -0.0119583 -0.0272838 -0.0204941 -0.0134582 0.00942557 0.00210586 -0.0119583 402.271 402.271 1000.96 
13 1 1 0.0228523 0.0219933 0.00998821 0 0 0 0.0168734 0.0313403 0.00500053 0.00275339 -0.00394575 -0.00713249 0.0168734 0.0313403 0.00500053 142.618 142.618 1000.34 
14 1 1 0.0911708 0.0226229 0.00998244 0 0 0 0.0241097 -0.0164893 -0.000100975 -0.0040164 0.00010016 -0.00548006 0.0241097 -0.0164893 -0.000100975 316.465 316.465 1000.75 
15 1 1 0.0798268 0.0218024 0.00997917 0 0 0 0.0391213 0.0290302 0.00192017 -0.00268224 -0.00165844 -0.00112396 0.0391213 0.0290302 0.00192017 252.649 252.649 1000.6 
16 1 1 0.112207 0.0223328 0.00997346 0 0 0 0.01977 -0.012581 0.000925723 -0.0026436 0.0018695 0.000593866 0.01977 -0.012581 0.000925723 399.388 399.388 1000.95 
17 1 1 0.113524 0.0408115 0.00997614 0 0 0 0.0349838 -0.00868859 -0.0013335 -0.00227931 0.00202145 -0.00139215 0.0349838 -0.00868859 -0.0013335 368.811 368.811 1000.88 
18 1 1 0.139353 0.0318198 0.00997428 0 0 0 0.0189092 -0.00637372 -0.00210405 -0.000456984 0.00173798 -0.000290726 0.0189092 -0.00637372 -0.00210405 412.417 412.417 1000.98 
19 1 1 0.12477 0.0223953 0.00997142 0 0 0 0.0335877 -0.0145858 -0.00191935 -0.00164238 0.00214771 0.00189666 0.0335877 -0.0145858 -0.00191935 424.91 424.91 1001.01 
20 1 1 0.160607 0.0218514 0.00997783 0 0 0 0.0336768 0.00133866 -0.00239503 0.00146116 0.0006839 -0.0012022 0.0336768 0.00133866 -0.00239503 409.346 409.346 1000.97 
21 1 1 0.0100038 0.0281874 0.00998619 0 0 0 0.000935057 0.0124009 0.00228335 -0.0114723 0.00431924 -0.00583268 0.000935057 0.0124009 0.00228335 242.36 242.36 1000.58 
22 1 1 0.0446548 0.0303976 0.00999028 0 0 0 0.0724746 -0.0441587 -0.00626535 0.00945511 -0.0299553 -0.0185765 0.0724746 -0.0441587 -0.00626535 381.314 381.314 1000.91 
23 1 1 0.0734063 0.046038 0.00997577 0 0 0 0.0478364 0.0138323 -0.00435561 -0.00101496 -1.19219e-05 -0.00053649 0.0478364 0.0138323 -0.00435561 301.395 301.395 1000.72 
24 1 1 0.0958715 0.0296908 0.00997697 0 0 0 0.0187221 -0.0116634 -0.00319665 -0.00288146 0.000114916 -0.00065732 0.0187221 -0.0116634 -0.00319665 326.052 326.052 1000.77 
25 1 1 0.118867 0.0383059 0.00997398 0 0 0 0.0218331 -0.00304205 -0.00128347 -0.00185167 0.0012162 0.000807433 0.0218331 -0.00304205 -0.00128347 384.525 384.525 1000.91 
26 1 1 0.11856 0.0223655 0.0099717 0 0 0 0.0517412 0.0187447 -0.000262741 -0.00239801 0.00281857 0.0017164 0.0517412 0.0187447 -0.000262741 415.739 415.739 1000.99 
27 1 1 0.141074 0.0450089 0.00997592 0 0 0 0.0513228 -0.00921949 -0.00155671 -0.00134277 0.00139114 -0.000932213 0.0513228 -0.00921949 -0.00155671 374.38 374.38 1000.89 
28 1 1 0.118323 0.0312057 0.00997225 0 0 0 0.0248069 0.00203752 -0.000883912 -0.00174508 0.00173733 0.00150266 0.0248069 0.00203752 -0.000883912 401.931 401.931 1000.95 
29 1 1 0.148385 0.0221439 0.00997433 0 0 0 0.0290813 -0.00308893 -0.00260217 0.00129959 0.00141694 0.000453154 0.0290813 -0.00308893 -0.00260217 413.67 413.67 1000.98 
30 1 1 0.152859 0.0308738 0.00997612 0 0 0 0.0392697 -0.00709784 -0.00181047 7.80557e-05 0.000454918 -0.000141629 0.0392697 -0.00709784 -0.00181047 416.242 416.242 1000.99 
31 1 1 0.00999388 0.0384997 0.00998382 0 0 0 -0.0131008 0.00379984 0.00370529 0.000529443 -0.00184315 -0.0027611 -0.0131008 0.00379984 0.00370529 218.618 218.618 1000.52 
32 1 1 0.0239266 0.0380195 0.00997791 0 0 0 -0.0398717 0.0337492 -0.0114144 -0.0140499 -0.00637225 -0.000419878 -0.0398717 0.0337492 -0.0114144 116.495 116.495 1000.28 
33 1 1 0.0571038 0.0315267 0.0099768 0 0 0 0.0330564 -0.0743445 -0.00121151 0.00621845 -0.00864478 -0.00265814 0.0330564 -0.0743445 -0.00121151 303.765 303.765 1000.72 
34 1 1 0.0767512 0.0331369 0.00997895 0 0 0 0.00879773 -0.0124856 0.0011049 -0.00012007 -0.00132907 -0.00216498 0.00879773 -0.0124856 0.0011049 320.546 320.546 1000.76 
35 1 1 0.0879334 0.0378153 0.00997477 0 0 0 0.0428037 -0.00426324 -0.00253138 -0.00075002 -0.000213926 0.00186194 0.0428037 -0.00426324 -0.00253138 315.611 315.611 1000.75 
36 1 1 0.107639 0.0283516 0.00997401 0 0 0 0.00915801 -0.0156246 0.000281646 -0.00255084 0.00082532 0.00108741 0.00915801 -0.0156246 0.000281646 373.523 373.523 1000.89 
37 1 1 0.128753 0.0376173 0.00997457 0 0 0 0.0359782 0.00192291 -0.00251766 -0.000150003 0.00194322 0.000293911 0.0359782 0.00192291 -0.00251766 375.053 375.053 1000.89 
38 1 1 0.136046 0.0377245 0.0099753 0 0 0 0.0189005 -0.00262286 -0.00222969 -0.000702273 0.0019847 -0.000679466 0.0189005 -0.00262286 -0.00222969 388.162 388.162 1000.92 
39 1 1 0.158276 0.0356961 0.00997638 0 0 0 0.0352994 -0.00314987 -0.00127182 -0.000124554 0.00132039 -0.000110921 0.0352994 -0.00314987 -0.00127182 404.151 404.151 1000.96 
40 1 1 0.172202 0.0376026 0.00997711 0 0 0 0.0325279 -0.0302099 -0.000997104 -3.97511e-05 -0.000519719 -0.000386274 0.0325279 -0.0302099 -0.000997104 399.08 399.08 1000.95 
41 1 1 0.0099797 0.0524295 0.00999169 0 0 0 -0.0250539 -0.0227913 -0.00651632 0.012214 -0.00175212 -0.0115488 -0.0250539 -0.0227913 -0.00651632 227.097 227.097 1000.54 
42 1 1 0.0427839 0.0578076 0.0099724 0 0 0 0.055016 0.0294382 -0.00462363 0.00167878 0.00249698 -0.0032315 0.055016 0.0294382 -0.00462363 340.877 340.877 1000.81 
43 1 1 0.058699 0.0472641 0.00997109 0 0 0 0.0428533 0.00955505 -0.00493794 0.00553988 0.0023965 0.00381412 0.0428533 0.00955505 -0.00493794 276.563 276.563 1000.66 
44 1 1 0.0840102 0.0435026 0.00997048 0 0 0 0.00939951 -0.00556 -0.0060683 -0.00108033 0.000496542 0.00559927 0.00939951 -0.00556 -0.0060683 307.106 307.106 1000.73 
45 1 1 0.0951063 0.0507788 0.00998232 0 0 0 0.0330483 -0.00753587 -0.00363046 -0.00100528 0.00073916 -0.00565866 0.0330483 -0.00753587 -0.00363046 295.209 295.209 1000.7 
46 1 1 0.103871 0.053642 0.00998309 0 0 0 0.0252386 -0.017354 -0.00106096 -0.00174229 0.00123005 -0.00730251 0.0252386 -0.017354 -0.00106096 321.158 321.158 1000.76 
47 1 1 0.110512 0.047563 0.00998129 0 0 0 0.0524333 -0.011931 -0.000873486 -0.00206966 0.00170314 -0.00581374 0.0524333 -0.011931 -0.000873486 334.804 334.804 1000.8 
48 1 1 0.135607 0.0489044 0.00997653 0 0 0 0.0517417 -0.0225716 -0.00181388 -0.00033239 0.0019621 -0.000990935 0.0517417 -0.0225716 -0.00181388 369.087 369.087 1000.88 
49 1 1 0.122161 0.050368 0.00997492 0 0 0 0.0564341 0.0142734 -0.00153673 -0.00147919 0.00160769 0.000464305 0.0564341 0.0142734 -0.00153673 364.015 364.015 1000.86 
50 1 1 0.159936 0.0499598 0.00997644 0 0 0 0.00588066 -0.0161467 -0.000646865 -0.00107177 0.000397766 -0.000284023 0.00588066 -0.0161467 -0.000646865 383.838 383.838 1000.91 
51 1 1 0.00999558 0.0616118 0.00998667 0 0 0 -0.000227845 0.00249787 0.0036519 -0.0040607 -0.00180821 -0.00723142 -0.000227845 0.00249787 0.0036519 303.06 303.06 1000.72 
52 1 1 0.0224672 0.054325 0.00998016 0 0 0 -0.0507053 -0.00352137 -0.013924 -0.0034979 0.00195311 -0.00383326 -0.0507053 -0.00352137 -0.013924 215.812 215.812 1000.51 
53 1 1 0.0691492 0.0585796 0.00997734 0 0 0 0.0255742 0.00453826 -0.00831871 0.000965394 0.0011693 -0.00143402 0.0255742 0.00453826 -0.00831871 285.418 285.418 1000.68 
54 1 1 0.088439 0.0629106 0.00997751 0 0 0 0.0297461 -0.0206753 -0.00452881 -0.000181211 0.00159259 -0.000401661 0.0297461 -0.0206753 -0.00452881 293.748 293.748 1000.7 
55 1 1 0.0934901 0.0584553 0.00997667 0 0 0 0.054402 -0.00472292 -0.00383423 -0.00116835 0.00132585 0.000642446 0.054402 -0.00472292 -0.00383423 284.556 284.556 1000.68 
56 1 1 0.108046 0.0731102 0.00997857 0 0 0 0.0360863 0.0115562 -0.000205258 -0.00211577 0.00162654 -0.00162375 0.0360863 0.0115562 -0.000205258 298.978 298.978 1000.71 
57 1 1 0.132426 0.0623987 0.0099777 0 0 0 0.0474693 0.00891341 -0.00156318 -0.000615559 0.00162155 -0.000983592 0.0474693 0.00891341 -0.00156318 353.688 353.688 1000.84 
58 1 1 0.138711 0.0646911 0.0099779 0 0 0 0.0300038 -0.0011593 -0.00101375 -0.0011485 0.000770076 -0.00105778 0.0300038 -0.0011593 -0.00101375 363.462 363.462 1000.86 
59 1 1 0.155904 0.061965 0.0099769 0 0 0 0.0249884 0.0131022 1.03379e-05 -0.001169 0.000934931 -0.000588313 0.0249884 0.0131022 1.03379e-05 377.904 377.904 1000.9 
60 1 1 0.166741 0.0619552 0.00997717 0 0 0 0.0249377 -0.019744 0.000188663 -0.000962258 5.60502e-06 -0.000590089 0.0249377 -0.019744 0.000188663 398.988 398.988 1000.95 
61 1 1 0.0099928 0.0716173 0.00998182 0 0 0 -0.000975126 -0.00685476 0.00511103 -0.00125172 0.00012458 -0.00357451 -0.000975126 -0.00685476 0.00511103 278.183 278.183 1000.66 
62 1 1 0.050356 0.0640551 0.009967 0 0 0 0.0306816 0.0124786 -0.00587012 0.00022935 0.00065329 0.00494138 0.0306816 0.0124786 -0.00587012 387.437 387.437 1000.92 
63 1 1 0.0809291 0.0625404 0.0099768 0 0 0 0.0530473 0.00677902 -0.00670633 -0.00152789 0.00175783 0.000205789 0.0530473 0.00677902 -0.00670633 302.256 302.256 1000.72 
64 1 1 0.0971838 0.0714941 0.0099802 0 0 0 0.0120295 -0.0111906 -0.00211585 -0.00125464 0.00206914 -0.00264235 0.0120295 -0.0111906 -0.00211585 288.143 288.143 1000.68 
65 1 1 0.121212 0.0627348 0.00997664 0 0 0 0.0405119 -0.0258651 -0.00150579 -0.00162592 0.00220459 -0.000474041 0.0405119 -0.0258651 -0.00150579 343.953 343.953 1000.82 
66 1 1 0.118369 0.0768109 0.00997825 0 0 0 0.0382133 0.00882142 8.22308e-06 -0.002017 0.00166294 -0.000855057 0.0382133 0.00882142 8.22308e-06 303.442 303.442 1000.72 
67 1 1 0.140269 0.0558388 0.00997703 0 0 0 0.0294205 0.00534009 -0.00115069 -0.00104784 0.000936308 -0.00111079 0.0294205 0.00534009 -0.00115069 349.704 349.704 1000.83 
68 1 1 0.120349 0.0703449 0.00997742 0 0 0 0.030752 -0.0235032 -0.00105584 -0.00167785 0.00135724 -0.000859313 0.030752 -0.0235032 -0.00105584 322.185 322.185 1000.77 
69 1 1 0.149593 0.0786325 0.00997928 0 0 0 0.0305286 -0.0147904 -0.000570398 -0.00182236 0.000321148 -0.00187958 0.0305286 -0.0147904 -0.000570398 352.378 352.378 1000.84 
70 1 1 0.156372 0.0690476 0.00997756 0 0 0 0.0513443 0.000405134 0.000289504 -0.00137585 0.000455036 -0.000586458 0.0513443 0.000405134 0.000289504 380.477 380.477 1000.9 
71 1 1 0.00998278 0.0796452 0.00998232 0 0 0 -0.00650855 -0.0130433 0.00824127 0.00809193 -0.00441737 -0.00549122 -0.00650855 -0.0130433 0.00824127 264.152 264.152 1000.63 
72 1 1 0.0361765 0.0622379 0.00997603 0 0 0 -0.042948 -0.0313954 -0.00428382 -0.0081143 0.00187323 -0.00782116 -0.042948 -0.0313954 -0.00428382 381.95 381.95 1000.91 
73 1 1 0.0328638 0.0790961 0.00997671 0 0 0 0.0638151 0.015143 -0.00201544 -0.00914045 -0.00606598 -0.00522187 0.0638151 0.015143 -0.00201544 347.765 347.765 1000.83 
74 1 1 0.0953083 0.0782128 0.00998096 0 0 0 0.0252129 -0.00527778 -0.00264162 -0.000827254 0.000894722 -0.00241512 0.0252129 -0.00527778 -0.00264162 274.186 274.186 1000.65 
75 1 1 0.0820005 0.0772035 0.009979 0 0 0 0.03592 0.0154229 -0.00343245 0.00228291 -0.00122093 -0.00138306 0.03592 0.0154229 -0.00343245 244.702 244.702 1000.58 
76 1 1 0.112072 0.0784687 0.00997891 0 0 0 0.0277233 -0.00862904 0.000443911 -0.00227403 0.00133172 -0.00188917 0.0277233 -0.00862904 0.000443911 292.589 292.589 1000.7 
77 1 1 0.114107 0.0593543 0.00997674 0 0 0 0.00174561 0.00411185 -0.000987792 -0.00192746 0.00219594 -0.000111429 0.00174561 0.00411185 -0.000987792 325.445 325.445 1000.77 
78 1 1 0.143816 0.0684413 0.00997803 0 0 0 0.0256301 -0.00444788 -0.000566044 -0.00123766 0.00173515 -0.00108606 0.0256301 -0.00444788 -0.000566044 370.483 370.483 1000.88 
79 1 1 0.124979 0.0784581 0.00997774 0 0 0 0.0353454 -0.0202835 0.000152719 -0.00223448 0.000794467 -0.000239573 0.0353454 -0.0202835 0.000152719 325.022 325.022 1000.77 
80 1 1 0.160587 0.0791591 0.00997912 0 0 0 0.0364152 -0.00206386 -0.000189719 -0.00203556 -0.000338903 -0.00155393 0.0364152 -0.00206386 -0.000189719 381.962 381.962 1000.91 
81 1 1 0.00996794 0.0899981 0.00999761 0 0 0 -0.00307732 -0.0289188 -0.00671888 0.0221723 0.0217016 -0.0201548 -0.00307732 -0.0289188 -0.00671888 405.101 405.101 1000.96 
82 1 1 0.0383215 0.0900166 0.00996783 0 0 0 0.0261558 -0.000779045 -0.00818239 -0.00131184 -0.00178102 0.00387435 0.0261558 -0.000779045 -0.00818239 360.68 360.68 1000.86 
83 1 1 0.0312027 0.0900131 0.00997874 0 0 0 0.0111865 -0.0214668 -0.00982709 -0.00024728 0.00108757 -0.00641645 0.0111865 -0.0214668 -0.00982709 365.707 365.707 1000.87 
84 1 1 0.0781472 0.0900121 0.00998294 0 0 0 0.0197863 -0.00513043 -0.0066878 0.00697829 -0.000466471 -0.00672246 0.0197863 -0.00513043 -0.0066878 362.841 362.841 1000.86 
85 1 1 0.0830097 0.0900093 0.00997758 0 0 0 0.0345357 0.0118509 0.0052774 0.00637539 0.00141331 0.00162868 0.0345357 0.0118509 0.0052774 291.607 291.607 1000.69 
86 1 1 0.102459 0.0900152 0.00998751 0 0 0 0.0551777 0.000327636 -0.00138761 -0.00177695 -0.00374986 -0.00784912 0.0551777 0.000327636 -0.00138761 279.21 279.21 1000.66 
87 1 1 0.116884 0.0900094 0.00997765 0 0 0 0.0481659 0.00900084 0.0102199 -0.00233777 0.00342869 0.000520544 0.0481659 0.00900084 0.0102199 317.869 317.869 1000.76 
88 1 1 0.126177 0.0900112 0.00997857 0 0 0 0.0392399 0.00884826 0.00915116 -0.00137086 0.00266725 0.000108957 0.0392399 0.00884826 0.00915116 332.983 332.983 1000.79 
89 1 1 0.135926 0.090017 0.00998272 0 0 0 0.0407141 -0.00551957 -0.00648762 -0.00125472 -0.00227268 -0.00381613 0.0407141 -0.00551957 -0.00648762 344.348 344.348 1000.82 
90 1 1 0.150093 0.090007 0.00997265 0 0 0 0.0349961 -0.000512678 0.00171798 -0.00171433 0.00885128 0.00618559 0.0349961 -0.000512678 0.00171798 358.279 358.279 1000.85 
91 1 1 0.0100586 0.00999439 0.00998193 0 0 0 0.0180101 0.00475017 0.00778959 -0.0110882 -0.00560456 -0.00086299 0.0180101 0.00475017 0.00778959 352.512 352.512 1000.84 
92 1 1 0.0304906 0.00999968 0.00997401 0 0 0 0.0482775 0.0105608 -0.00859774 -0.00673501 -0.0062375 0.00832761 0.0482775 0.0105608 -0.00859774 211.475 211.475 1000.5 
93 1 1 0.0465966 0.0100141 0.00998222 0 0 0 0.0293549 0.0151227 -0.00875764 0.000166562 -0.010806 -5.21584e-05 0.0293549 0.0151227 -0.00875764 185.32 185.32 1000.44 
94 1 1 0.0569275 0.0100038 0.00997828 0 0 0 0.0387585 0.0018971 0.000516691 -0.00326426 -0.0138039 0.00411282 0.0387585 0.0018971 0.000516691 197.652 197.652 1000.47 
95 1 1 0.0866271 0.00999381 0.0099737 0 0 0 0.0416583 -0.00372681 0.00960824 -0.00586898 -0.005801 0.00520907 0.0416583 -0.00372681 0.00960824 314.799 314.799 1000.75 
96 1 1 0.11013 0.00997649 0.00998035 0 0 0 0.0269613 -0.00367771 0.00977601 -0.00385281 0.00680125 -0.00451594 0.0269613 -0.00367771 0.00977601 436.59 436.59 1001.04 
97 1 1 0.11967 0.00999066 0.00996259 0 0 0 0.0441075 0.00452284 -0.00348271 -0.00195563 -0.00806672 0.0121745 0.0441075 0.00452284 -0.00348271 459.178 459.178 1001.09 
98 1 1 0.128907 0.0099736 0.00998056 0 0 0 0.0408992 -0.00485668 0.00184862 0.000286948 0.00847625 -0.00533404 0.0408992 -0.00485668 0.00184862 464.676 464.676 1001.1 
99 1 1 0.138382 0.00998304 0.00997283 0 0 0 0.036395 -0.00629904 0.00235368 0.000753592 -0.000598717 0.00333108 0.036395 -0.00629904 0.00235368 461.358 461.358 1001.09 
100 1 1 0.142897 0.00997644 0.00997997 0 0 0 0.0372106 -0.00138474 -0.00520196 0.00167566 0.00617798 -0.00351099 0.0372106 -0.00138474 -0.00520196 453.722 453.722 1001.08 
101 1 1 0.00999674 0.0209245 0.0223636 0 0 0 0.00468743 -0.00910226 -0.0161733 -0.00311649 0.00123813 -0.00205362 0.00468743 -0.00910226 -0.0161733 279.844 279.844 1000.66 
102 1 1 0.0100025 0.0234927 0.00998105 0 0 0 -0.00555767 -0.00758299 0.00735301 -0.0123079 0.00344106 -0.0013093 -0.00555767 -0.00758299 0.00735301 278.385 278.385 1000.66 
103 1 1 0.0220693 0.021451 0.0196522 0 0 0 0.00190686 0.0501058 0.00953514 0.00375991 -0.00328446 -0.00699034 0.00190686 0.0501058 0.00953514 123.762 123.762 1000.29 
104 1 1 0.069266 0.022576 0.0357428 0 0 0 0.0858248 -0.00284931 0.0298253 -0.00166582 -0.00171294 -0.00364949 0.0858248 -0.00284931 0.0298253 147.466 147.466 1000.35 
105 1 1 0.10038 0.0364242 0.0589047 0 0 0 0.140219 0.0170962 0.0292388 -0.000328629 -0.000244373 -0.00316873 0.140219 0.0170962 0.0292388 100.338 100.338 1000.24 
106 1 1 0.136884 0.0225333 0.00997357 0 0 0 0.0492452 0.0117589 -0.00179515 -2.95119e-05 0.00196153 0.000598332 0.0492452 0.0117589 -0.00179515 428.573 428.573 1001.02 
107 1 1 0.115485 0.0215523 0.0326129 0 0 0 0.102592 0.0217213 0.0209341 -0.00215636 0.00128126 -4.57636e-05 0.102592 0.0217213 0.0209341 284.714 284.714 1000.68 
108 1 1 0.146635 0.0343424 0.00997536 0 0 0 0.041188 0.00347321 -0.00170016 -0.00022608 0.0013986 -0.000300519 0.041188 0.00347321 -0.00170016 394.595 394.595 1000.94 
109 1 1 0.136616 0.021423 0.0234717 0 0 0 0.0844637 -0.0010888 -0.00915163 -4.53865e-05 0.00235695 -0.00045642 0.0844637 -0.0010888 -0.00915163 393.261 393.261 1000.93 
110 1 1 0.178423 0.0217174 0.00997763 0 0 0 0.0190036 -0.00490355 -0.00106061 0.000331211 -0.000199661 -0.000544051 0.0190036 -0.00490355 -0.00106061 410.445 410.445 1000.97 
111 1 1 0.00999455 0.0339004 0.00998497 0 0 0 -0.00786674 0.00611466 0.00622905 0.00061455 0.00109638 -0.00403931 -0.00786674 0.00611466 0.00622905 217.356 217.356 1000.52 
112 1 1 0.0216093 0.0223339 0.041588 0 0 0 -0.0172909 -0.0103411 -0.0365318 0.00203336 0.000362376 -0.00671518 -0.0172909 -0.0103411 -0.0365318 73.2067 73.2067 1000.17 
113 1 1 0.0518445 0.039981 0.00997153 0 0 0 -0.0184841 -0.00421088 -0.00463328 0.0203463 -0.000658533 -0.00227757 -0.0184841 -0.00421088 -0.00463328 424.011 424.011 1001.01 
114 1 1 0.0605409 0.021403 0.00997811 0 0 0 0.0791182 0.00940107 0.00255599 -0.00457046 -0.00339587 0.0011557 0.0791182 0.00940107 0.00255599 211.952 211.952 1000.5 
115 1 1 0.0556134 0.0224922 0.0361037 0 0 0 0.0480698 0.0211845 -0.014822 -0.000901716 -0.00359904 -0.00428305 0.0480698 0.0211845 -0.014822 185.39 185.39 1000.44 
116 1 1 0.107232 0.0343831 0.0099754 0 0 0 0.0212587 -0.00702875 -0.00102265 -0.00218325 0.00209269 -0.000495478 0.0212587 -0.00702875 -0.00102265 363.251 363.251 1000.86 
117 1 1 0.115667 0.0210931 0.0221658 0 0 0 0.0794682 -0.0145282 0.0324615 -0.00195844 0.00314878 0.000275139 0.0794682 -0.0145282 0.0324615 349.485 349.485 1000.83 
118 1 1 0.129462 0.0223748 0.0225535 0 0 0 0.0608315 0.00772346 0.0048939 0.000555767 0.00235031 0.000112725 0.0608315 0.00772346 0.0048939 380.479 380.479 1000.9 
119 1 1 0.155181 0.0225023 0.00997643 0 0 0 0.0445762 -0.00812332 -0.00262958 0.000187183 0.000891111 -0.000389581 0.0445762 -0.00812332 -0.00262958 416.597 416.597 1000.99 
120 1 1 0.136069 0.0213007 0.0382291 0 0 0 0.0828798 -0.00997708 -0.0181699 0.000977219 0.00174221 -8.83583e-05 0.0828798 -0.00997708 -0.0181699 280.378 280.378 1000.67 
121 1 1 0.00998809 0.0425964 0.00998439 0 0 0 -0.0156954 0.0192174 0.000989207 0.00530079 -0.00291792 -0.00344347 -0.0156954 0.0192174 0.000989207 234.313 234.313 1000.56 
122 1 1 0.0230574 0.0331569 0.00998126 0 0 0 -0.0229326 0.0139851 -0.00322845 -0.00790853 -0.0045875 -0.00238525 -0.0229326 0.0139851 -0.00322845 113.185 113.185 1000.27 
123 1 1 0.0243814 0.025522 0.00998705 0 0 0 0.000936542 -0.0308386 0.000762049 -0.00213132 -0.00389881 -0.0070329 0.000936542 -0.0308386 0.000762049 146.769 146.769 1000.35 
124 1 1 0.0852843 0.0326409 0.00997657 0 0 0 0.0300682 0.0337304 -0.00032082 -0.00266999 -0.0019225 0.000736031 0.0300682 0.0337304 -0.00032082 306.32 306.32 1000.73 
125 1 1 0.0955315 0.0391963 0.0099774 0 0 0 0.0514859 0.00126744 -0.0015012 -0.00287527 0.000634801 -0.00160764 0.0514859 0.00126744 -0.0015012 334.287 334.287 1000.79 
126 1 1 0.128338 0.0306768 0.00997368 0 0 0 0.0182143 0.00334388 -0.00212824 -0.000673468 0.00182758 0.00058166 0.0182143 0.00334388 -0.00212824 404.509 404.509 1000.96 
127 1 1 0.165337 0.0386667 0.00997686 0 0 0 0.0659849 0.0223248 -0.00100399 0.000156849 0.00020559 -0.000216131 0.0659849 0.0223248 -0.00100399 395.168 395.168 1000.94 
128 1 1 0.146961 0.0419091 0.00997621 0 0 0 0.0278761 -0.00691797 -0.00116576 -7.14562e-05 0.00138328 -0.000608732 0.0278761 -0.00691797 -0.00116576 372.167 372.167 1000.88 
129 1 1 0.142802 0.0230206 0.00997309 0 0 0 0.0288422 0.00454393 -0.00192479 0.00036103 0.00110393 0.000732359 0.0288422 0.00454393 -0.00192479 421.288 421.288 1001 
130 1 1 0.183643 0.0325335 0.00997803 0 0 0 0.0550554 0.00573964 -0.000541757 -0.000459606 -0.000445619 -0.000705319 0.0550554 0.00573964 -0.000541757 401.014 401.014 1000.95 
131 1 1 0.00999442 0.047659 0.00998726 0 0 0 0.011883 0.00459412 -0.00803303 -0.0023464 -0.0024825 -0.00713267 0.011883 0.00459412 -0.00803303 308.093 308.093 1000.73 
132 1 1 0.0378883 0.041906 0.00997268 0 0 0 0.0496069 0.000616788 0.00307274 -0.0146845 0.0118915 -0.0114288 0.0496069 0.000616788 0.00307274 671.933 671.933 1001.59 
133 1 1 0.0458432 0.0510259 0.00996938 0 0 0 0.0341938 0.0263824 -0.0080091 0.00676369 0.0125666 0.000775647 0.0341938 0.0263824 -0.0080091 292.462 292.462 1000.69 
134 1 1 0.0888265 0.0490418 0.00997335 0 0 0 0.011709 -0.02518 -0.00713315 -4.86249e-05 0.00130726 0.00340828 0.011709 -0.02518 -0.00713315 282.225 282.225 1000.67 
135 1 1 0.129933 0.0511005 0.00997615 0 0 0 0.054577 0.00158069 -0.00185824 -0.000958022 0.0009807 -0.0004348 0.054577 0.00158069 -0.00185824 363.971 363.971 1000.86 
136 1 1 0.0893194 0.0513116 0.0213058 0 0 0 0.0737771 -0.00282408 -0.0393598 -0.000380233 0.000299659 -0.00245172 0.0737771 -0.00282408 -0.0393598 285.662 285.662 1000.68 
137 1 1 0.12069 0.0456878 0.0219695 0 0 0 0.0896204 -0.0570072 0.00345731 -0.00100412 0.002278 -0.000901851 0.0896204 -0.0570072 0.00345731 340.959 340.959 1000.81 
138 1 1 0.150854 0.0508359 0.0099764 0 0 0 0.0452184 0.0164635 -0.000685945 -0.000378358 0.000373832 -0.000749183 0.0452184 0.0164635 -0.000685945 372.731 372.731 1000.89 
139 1 1 0.154214 0.0427218 0.00997627 0 0 0 0.0466508 -0.0234371 -0.000958959 -0.000106874 0.00105327 -0.000372535 0.0466508 -0.0234371 -0.000958959 383.022 383.022 1000.91 
140 1 1 0.160685 0.0544232 0.0234927 0 0 0 0.0547259 0.0147182 0.00455959 -0.000203906 5.54316e-05 -0.00112486 0.0547259 0.0147182 0.00455959 322.642 322.642 1000.77 
141 1 1 0.00998605 0.0568409 0.00998566 0 0 0 -0.00949945 -0.00359659 0.00119004 0.00566824 -0.00169168 -0.00591875 -0.00949945 -0.00359659 0.00119004 282.048 282.048 1000.67 
142 1 1 0.0261104 0.0597815 0.0099778 0 0 0 0.0149615 -0.00631561 -0.00748956 -0.00520064 0.00478735 -0.00350749 0.0149615 -0.00631561 -0.00748956 262.106 262.106 1000.62 
143 1 1 0.0220841 0.0626292 0.00998139 0 0 0 0.0445837 -0.0671435 -0.0056631 0.00119844 0.00428398 -0.00498174 0.0445837 -0.0671435 -0.0056631 203.091 203.091 1000.48 
144 1 1 0.085628 0.0687986 0.00998043 0 0 0 0.0274635 -0.010598 -0.00393086 -0.00046249 0.00293822 -0.00275823 0.0274635 -0.010598 -0.00393086 267.967 267.967 1000.64 
145 1 1 0.0995819 0.064835 0.00997853 0 0 0 0.032802 0.0149725 -0.00198007 -0.00154033 0.00218632 -0.00181757 0.032802 0.0149725 -0.00198007 298.762 298.762 1000.71 
146 1 1 0.130904 0.0708245 0.00997807 0 0 0 0.0295109 -0.000598331 -0.00125525 -0.001653 0.00131549 -0.00107937 0.0295109 -0.000598331 -0.00125525 346.843 346.843 1000.82 
147 1 1 0.16007 0.0565222 0.00997643 0 0 0 0.053421 -0.000424746 -0.000300796 -0.000942442 0.000843322 -0.000463207 0.053421 -0.000424746 -0.000300796 390.606 390.606 1000.93 
148 1 1 0.146977 0.0548545 0.00997687 0 0 0 0.0409536 -0.0110506 -0.000707658 -0.00115957 0.00108176 -0.000850199 0.0409536 -0.0110506 -0.000707658 362.93 362.93 1000.86 
149 1 1 0.143794 0.0770446 0.0099789 0 0 0 0.0210283 -0.016673 -0.000534496 -0.0016012 0.000677482 -0.0015299 0.0210283 -0.016673 -0.000534496 349.833 349.833 1000.83 
150 1 1 0.182733 0.0683632 0.00997712 0 0 0 0.0320206 0.00108465 0.00100868 -0.00103294 -0.000564703 -0.000287773 0.0320206 0.00108465 0.00100868 414.185 414.185 1000.98 
151 1 1 0.00999932 0.0668526 0.00998773 0 0 0 0.0217434 -0.0171145 0.00655514 -0.0081668 -0.00154723 -0.00921993 0.0217434 -0.0171145 0.00655514 371.41 371.41 1000.88 
152 1 1 0.0237326 0.0804278 0.0206094 0 0 0 0.0282876 0.0489917 -0.0304074 -0.000343017 -0.00722545 0.00149276 0.0282876 0.0489917 -0.0304074 381.033 381.033 1000.9 
153 1 1 0.0611075 0.0729046 0.00997257 0 0 0 0.0244796 0.0301419 -0.00652392 0.00167099 -0.00240918 0.000985255 0.0244796 0.0301419 -0.00652392 311.42 311.42 1000.74 
154 1 1 0.0622321 0.0794151 0.00997223 0 0 0 0.0749988 0.00545179 -0.00684042 0.00101876 -0.00547675 0.00165665 0.0749988 0.00545179 -0.00684042 369.783 369.783 1000.88 
155 1 1 0.0536828 0.0745599 0.0359049 0 0 0 0.030246 0.00565792 -0.0662093 -0.000538556 0.000919528 -0.000418543 0.030246 0.00565792 -0.0662093 222.343 222.343 1000.53 
156 1 1 0.111496 0.0657219 0.00997702 0 0 0 0.0448381 -0.000399982 -0.00100027 -0.00264115 0.00200175 -0.000494437 0.0448381 -0.000399982 -0.00100027 319.14 319.14 1000.76 
157 1 1 0.119138 0.0785805 0.0229583 0 0 0 0.105832 0.0398466 0.00544434 -0.00132952 0.000246074 -0.00297442 0.105832 0.0398466 0.00544434 262.371 262.371 1000.62 
158 1 1 0.133551 0.0775404 0.0232328 0 0 0 0.0864733 -0.00919596 0.0108775 -0.000598631 0.000903996 -0.0023303 0.0864733 -0.00919596 0.0108775 282.984 282.984 1000.67 
159 1 1 0.155009 0.0754581 0.00997906 0 0 0 0.0230593 0.0102856 -0.000246118 -0.00190778 0.00131718 -0.00130416 0.0230593 0.0102856 -0.000246118 371.332 371.332 1000.88 
160 1 1 0.135391 0.0779139 0.0435635 0 0 0 0.0868821 -0.0255153 0.042573 -0.000534744 0.000724041 -0.00304835 0.0868821 -0.0255153 0.042573 151.248 151.248 1000.36 
161 1 1 0.0100014 0.0779888 0.0214879 0 0 0 0.014842 -0.0190413 0.00725031 -0.0212583 -0.00209369 -0.00181475 0.014842 -0.0190413 0.00725031 321.583 321.583 1000.76 
162 1 1 0.0100051 0.0760735 0.00997741 0 0 0 0.0172956 -0.0156159 0.00159464 -0.0174747 -0.000560151 -0.000330783 0.0172956 -0.0156159 0.00159464 300.432 300.432 1000.71 
163 1 1 0.0208257 0.073676 0.01015 0 0 0 -0.0131009 -0.123357 0.0274918 0.00557302 -0.00317914 -0.0315716 -0.0131009 -0.123357 0.0274918 205.99 205.99 1000.49 
164 1 1 0.0680647 0.0694572 0.0542914 0 0 0 0.123494 0.00174853 -0.0464393 0.000577302 0.000136177 -0.00415971 0.123494 0.00174853 -0.0464393 106.437 106.437 1000.25 
165 1 1 0.0974625 0.0652898 0.0506245 0 0 0 0.128405 -0.0119596 -0.00910568 0.000180571 0.000775287 -0.00358282 0.128405 -0.0119596 -0.00910568 133.58 133.58 1000.32 
166 1 1 0.137764 0.0779331 0.0099792 0 0 0 0.034745 0.0103173 -0.000722933 -0.00111398 0.00063339 -0.00149223 0.034745 0.0103173 -0.000722933 337.935 337.935 1000.8 
167 1 1 0.1161 0.0784714 0.0358875 0 0 0 0.0879155 0.00136685 -0.0110525 -0.00102664 0.000632133 -0.00238652 0.0879155 0.00136685 -0.0110525 223.321 223.321 1000.53 
168 1 1 0.148695 0.0636164 0.0099767 0 0 0 0.0351472 -0.000756937 -0.000271569 -0.000884881 0.00043286 -0.000845566 0.0351472 -0.000756937 -0.000271569 367.86 367.86 1000.87 
169 1 1 0.140255 0.078398 0.0230513 0 0 0 0.0685131 -0.0162651 0.0164488 -0.000550139 0.00043483 -0.00212713 0.0685131 -0.0162651 0.0164488 289.395 289.395 1000.69 
170 1 1 0.177615 0.0776123 0.00997683 0 0 0 0.0238981 -0.00961369 0.0018525 -0.00213993 -0.000495135 0.000156795 0.0238981 -0.00961369 0.0018525 419.05 419.05 1000.99 
171 1 1 0.0100032 0.0900068 0.00996962 0 0 0 -0.0198143 -0.00706739 0.0104372 -0.0200497 0.00315333 0.00804973 -0.0198143 -0.00706739 0.0104372 353.815 353.815 1000.84 
172 1 1 0.0221024 0.0900315 0.00998277 0 0 0 -0.00708919 -0.0157053 0.00821694 -0.00275913 -0.0210085 -0.0112361 -0.00708919 -0.0157053 0.00821694 395.227 395.227 1000.94 
173 1 1 0.0435426 0.0900219 0.00997967 0 0 0 0.016695 -0.0109278 -0.016404 0.000256126 -0.00714971 -0.00666958 0.016695 -0.0109278 -0.016404 387.786 387.786 1000.92 
174 1 1 0.0540078 0.0900151 0.00997849 0 0 0 0.017747 -0.00690436 -0.012193 -0.00254164 -0.000190604 -0.00282289 0.017747 -0.00690436 -0.012193 367.426 367.426 1000.87 
175 1 1 0.0878703 0.0900137 0.00998594 0 0 0 0.0571206 -0.0016826 -0.00710619 0.00342246 -0.00287041 -0.00556667 0.0571206 -0.0016826 -0.00710619 267.673 267.673 1000.64 
176 1 1 0.111466 0.0900192 0.00998741 0 0 0 0.0373813 -0.00711117 -0.00757751 -0.00184463 -0.00682139 -0.00886446 0.0373813 -0.00711117 -0.00757751 303.593 303.593 1000.72 