ITEM: TIMESTEP
191000
ITEM: NUMBER OF ATOMS
2655
ITEM: BOX BOUNDS ff ff ff
0 0.5
0 0.1
0 0.5
ITEM: ATOMS id type type x y z ix iy iz vx vy vz fx fy fz vx vy vz p p rho 
1 1 1 0.00998752 0.00998092 0.00997655 0 0 0 -0.00153406 -0.00407944 0.00289497 -0.00284845 0.00225567 -0.00299218 -0.00153406 -0.00407944 0.00289497 468.636 468.636 1001.11 
2 1 1 0.0416446 0.00997736 0.00998405 0 0 0 -0.0131846 -0.00213741 0.00163051 0.00049539 0.00654043 -0.00634672 -0.0131846 -0.00213741 0.00163051 454.686 454.686 1001.08 
3 1 1 0.0376859 0.00998114 0.00998238 0 0 0 -0.0142152 -0.0056382 0.00536939 -0.000407602 0.00297271 -0.00425399 -0.0142152 -0.0056382 0.00536939 460.011 460.011 1001.09 
4 1 1 0.0736843 0.00998832 0.00997453 0 0 0 -0.0176781 -0.00513707 0.00557601 -9.81966e-05 -0.00445511 0.00366857 -0.0176781 -0.00513707 0.00557601 442.471 442.471 1001.05 
5 1 1 0.0779426 0.00997955 0.00998115 0 0 0 -0.020046 0.00151464 -0.00294928 0.000300987 0.00395864 -0.00318316 -0.020046 0.00151464 -0.00294928 439.009 439.009 1001.04 
6 1 1 0.0961685 0.00998111 0.00998126 0 0 0 -0.0202889 -0.00410785 0.00348741 -0.000144667 0.00274568 -0.00334275 -0.0202889 -0.00410785 0.00348741 433.316 433.316 1001.03 
7 1 1 0.109336 0.00997875 0.00998214 0 0 0 -0.0281714 0.000929259 -0.00174128 0.000264409 0.00449497 -0.00450954 -0.0281714 0.000929259 -0.00174128 428.14 428.14 1001.02 
8 1 1 0.118235 0.00998443 0.00997678 0 0 0 -0.0261331 -0.000313748 0.000175698 0.000394189 -0.00125271 0.0013738 -0.0261331 -0.000313748 0.000175698 427.991 427.991 1001.02 
9 1 1 0.127419 0.00998544 0.00997467 0 0 0 -0.0436175 0.00273434 -0.0023381 0.00034144 -0.00254282 0.0031352 -0.0436175 0.00273434 -0.0023381 421.276 421.276 1001 
10 1 1 0.141056 0.00998572 0.00997471 0 0 0 -0.0340683 -0.000916485 0.00137661 6.17163e-05 -0.00320866 0.00297962 -0.0340683 -0.000916485 0.00137661 423.353 423.353 1001 
11 1 1 0.00998302 0.020774 0.00997247 0 0 0 -0.00536262 -0.00330377 0.00226011 0.0011834 0.000480404 -0.00104167 -0.00536262 -0.00330377 0.00226011 460.634 460.634 1001.09 
12 1 1 0.0377601 0.0375932 0.00997537 0 0 0 0.000502375 -0.0139438 -0.000281773 0.000417979 -0.000810684 0.000420294 0.000502375 -0.0139438 -0.000281773 427.012 427.012 1001.01 
13 1 1 0.0227443 0.0217428 0.00997538 0 0 0 -0.0103616 -0.011963 -0.00315865 -0.000391187 -5.42393e-05 -0.000870702 -0.0103616 -0.011963 -0.00315865 458.561 458.561 1001.09 
14 1 1 0.0875293 0.0217377 0.00997546 0 0 0 -0.0305833 -0.0119327 -0.00152809 0.000274122 0.000923435 0.000154566 -0.0305833 -0.0119327 -0.00152809 433.277 433.277 1001.03 
15 1 1 0.0784093 0.0224074 0.00997422 0 0 0 -0.013386 -0.028394 -4.29426e-05 0.000139817 8.21603e-05 0.00115712 -0.013386 -0.028394 -4.29426e-05 422.758 422.758 1001 
16 1 1 0.105274 0.0230752 0.00997647 0 0 0 -0.0326678 -0.00525386 -0.000886275 0.000123709 -0.000279138 -0.000826551 -0.0326678 -0.00525386 -0.000886275 414.326 414.326 1000.98 
17 1 1 0.110261 0.0418072 0.00997524 0 0 0 -0.00215026 -0.00702491 2.39079e-05 -1.41435e-06 0.000296302 9.02906e-05 -0.00215026 -0.00702491 2.39079e-05 404.441 404.441 1000.96 
18 1 1 0.139414 0.0307183 0.00997617 0 0 0 -0.0335773 -0.0126475 1.63125e-06 -0.000486179 3.16775e-06 6.15583e-05 -0.0335773 -0.0126475 1.63125e-06 410.384 410.384 1000.97 
19 1 1 0.117622 0.0237506 0.00997523 0 0 0 -0.0427063 0.000254203 -5.19316e-05 -9.00662e-05 -0.00049766 0.000735647 -0.0427063 0.000254203 -5.19316e-05 413.078 413.078 1000.98 
20 1 1 0.153587 0.0220955 0.00997631 0 0 0 -0.0379489 -0.00345696 2.01609e-05 0.000444153 0.000196718 0.000129701 -0.0379489 -0.00345696 2.01609e-05 423.9 423.9 1001.01 
21 1 1 0.00999233 0.028454 0.00996421 0 0 0 0.00369866 -0.00270358 -0.00124988 -0.00865665 -0.000328224 0.00746115 0.00369866 -0.00270358 -0.00124988 463.772 463.772 1001.1 
22 1 1 0.0351495 0.025391 0.00997618 0 0 0 -0.0318863 -0.0150215 -5.84144e-05 -3.50193e-05 -0.000187857 -0.00092101 -0.0318863 -0.0150215 -5.84144e-05 410.957 410.957 1000.98 
23 1 1 0.0713971 0.0465681 0.00997509 0 0 0 -0.00946209 0.00111594 4.52217e-05 8.42298e-05 0.000163603 0.00017313 -0.00946209 0.00111594 4.52217e-05 407.715 407.715 1000.97 
24 1 1 0.0959559 0.0310609 0.00997547 0 0 0 -0.0223402 0.00650834 0.000121322 8.40118e-05 -0.000144556 0.00039422 -0.0223402 0.00650834 0.000121322 411.259 411.259 1000.98 
25 1 1 0.117014 0.0387454 0.00997552 0 0 0 -0.0354169 0.0196538 -2.48111e-06 -0.000326509 -0.00045435 1.98315e-05 -0.0354169 0.0196538 -2.48111e-06 409.186 409.186 1000.97 
26 1 1 0.111698 0.0217906 0.00997561 0 0 0 -0.0440121 0.0039956 -0.000520203 -0.000193785 0.000253751 0.000188151 -0.0440121 0.0039956 -0.000520203 418.226 418.226 1000.99 
27 1 1 0.137557 0.0427056 0.00997584 0 0 0 -0.0102411 -0.0197563 6.03475e-05 0.000138393 -0.000393383 0.00012112 -0.0102411 -0.0197563 6.03475e-05 401.277 401.277 1000.95 
28 1 1 0.115989 0.031602 0.0099755 0 0 0 -0.0103471 0.0121761 -6.18006e-05 0.000198885 4.27113e-05 0.00011426 -0.0103471 0.0121761 -6.18006e-05 406.994 406.994 1000.97 
29 1 1 0.141584 0.0223345 0.00997616 0 0 0 -0.0418099 0.00272986 2.30444e-05 0.000232399 0.000464537 5.15351e-05 -0.0418099 0.00272986 2.30444e-05 413.428 413.428 1000.98 
30 1 1 0.151474 0.030791 0.00997646 0 0 0 -0.017746 -0.00483803 0.000123008 -0.000213167 0.000111154 -8.50722e-06 -0.017746 -0.00483803 0.000123008 417.506 417.506 1000.99 
31 1 1 0.0099762 0.0379981 0.00997887 0 0 0 -0.00242531 0.0110985 -3.18976e-06 0.00732573 0.000340936 -0.00656255 -0.00242531 0.0110985 -3.18976e-06 448.05 448.05 1001.06 
32 1 1 0.0224946 0.0403752 0.00997573 0 0 0 -0.00965808 -0.00526928 -0.000283943 0.000135133 0.00026932 -0.00101289 -0.00965808 -0.00526928 -0.000283943 451.705 451.705 1001.07 
33 1 1 0.0597731 0.0218405 0.00997515 0 0 0 -0.00219532 0.0055496 -0.000432468 -1.97104e-05 -8.10818e-06 -3.00691e-05 -0.00219532 0.0055496 -0.000432468 420.69 420.69 1001 
34 1 1 0.0647746 0.0341411 0.00997494 0 0 0 -0.0298936 -0.0250386 -9.25961e-05 -0.000190943 0.000289435 0.000234943 -0.0298936 -0.0250386 -9.25961e-05 419.987 419.987 1001 
35 1 1 0.0844692 0.0355539 0.00997559 0 0 0 -0.0156821 0.00368226 0.000180231 0.000391118 0.000388456 0.000120287 -0.0156821 0.00368226 0.000180231 418.889 418.889 1000.99 
36 1 1 0.107759 0.0306752 0.00997595 0 0 0 -0.0105351 -0.00896357 -2.24231e-05 -0.000468133 0.000376669 0.000170615 -0.0105351 -0.00896357 -2.24231e-05 407.279 407.279 1000.97 
37 1 1 0.127622 0.0368583 0.00997585 0 0 0 -0.0337967 -0.00400123 2.77308e-05 2.79113e-05 0.000377824 9.05684e-05 -0.0337967 -0.00400123 2.77308e-05 404.878 404.878 1000.96 
38 1 1 0.134325 0.0360634 0.00997614 0 0 0 -0.0160127 -0.0136873 2.0862e-05 -4.3627e-05 0.000430967 0.000101919 -0.0160127 -0.0136873 2.0862e-05 406.217 406.217 1000.96 
39 1 1 0.158534 0.0384029 0.00997681 0 0 0 -0.0151811 -0.0117736 9.82901e-05 0.000269691 -0.000149326 5.2253e-05 -0.0151811 -0.0117736 9.82901e-05 403.126 403.126 1000.96 
40 1 1 0.171126 0.0402964 0.00997624 0 0 0 -0.0094926 -0.000574385 8.05243e-05 0.000186095 -0.000333934 7.4302e-05 -0.0094926 -0.000574385 8.05243e-05 398.227 398.227 1000.95 
41 1 1 0.00997409 0.0520535 0.00997855 0 0 0 0.00105959 0.0116133 -0.00188613 0.00972425 0.000352563 -0.00696706 0.00105959 0.0116133 -0.00188613 455.1 455.1 1001.08 
42 1 1 0.0420098 0.0648734 0.00997455 0 0 0 -0.0298245 -0.0271272 0.000357762 0.000774093 0.000251446 0.000148894 -0.0298245 -0.0271272 0.000357762 409.825 409.825 1000.97 
43 1 1 0.0611219 0.0538992 0.009975 0 0 0 -0.0297009 -0.00721953 0.000103462 0.000304462 -0.000123474 0.000105517 -0.0297009 -0.00721953 0.000103462 405.528 405.528 1000.96 
44 1 1 0.0771419 0.0425438 0.00997538 0 0 0 0.000482681 -0.0120922 3.05121e-05 -0.000139071 0.000213221 0.000146072 0.000482681 -0.0120922 3.05121e-05 406.492 406.492 1000.97 
45 1 1 0.0890185 0.0461962 0.00997563 0 0 0 -0.0154926 0.00542672 -1.91324e-05 0.000338206 0.000301694 9.46825e-05 -0.0154926 0.00542672 -1.91324e-05 406.065 406.065 1000.96 
46 1 1 0.101736 0.0505267 0.00997565 0 0 0 -0.0127801 -0.0043691 2.86314e-05 -4.32597e-05 -0.000286092 0.000110981 -0.0127801 -0.0043691 2.86314e-05 409.753 409.753 1000.97 
47 1 1 0.108202 0.0489522 0.00997536 0 0 0 -0.0512803 0.00033499 7.47066e-05 0.000339642 -0.000262979 0.000122484 -0.0512803 0.00033499 7.47066e-05 404.196 404.196 1000.96 
48 1 1 0.13426 0.0487117 0.0099757 0 0 0 -0.0154689 -0.0139583 7.98771e-05 -6.27867e-05 -4.61042e-05 0.000131232 -0.0154689 -0.0139583 7.98771e-05 404.126 404.126 1000.96 
49 1 1 0.1209 0.0496371 0.00997601 0 0 0 -0.0299303 0.00321338 8.24293e-05 -0.000255843 -0.000138414 0.000109461 -0.0299303 0.00321338 8.24293e-05 405.187 405.187 1000.96 
50 1 1 0.157276 0.0521176 0.00997606 0 0 0 -0.0275259 0.00811527 9.17599e-05 0.000213633 6.27234e-05 0.000133745 -0.0275259 0.00811527 9.17599e-05 405.604 405.604 1000.96 
51 1 1 0.00999197 0.0619866 0.00996457 0 0 0 0.00122271 0.000388587 0.000851948 -0.00888522 -0.000877903 0.00723515 0.00122271 0.000388587 0.000851948 461.025 461.025 1001.09 
52 1 1 0.0250326 0.0514362 0.00997628 0 0 0 0.00393418 0.004994 -0.000392417 -3.10285e-05 0.000152505 -0.000863463 0.00393418 0.004994 -0.000392417 444.174 444.174 1001.05 
53 1 1 0.0709658 0.0613866 0.00997514 0 0 0 -0.00217441 -0.00921938 9.04739e-05 -0.000359561 -4.30072e-05 0.000177548 -0.00217441 -0.00921938 9.04739e-05 412.304 412.304 1000.98 
54 1 1 0.0888923 0.0593416 0.0099756 0 0 0 -0.027087 -0.00780716 0.000181821 -0.000293016 0.000183932 0.000167838 -0.027087 -0.00780716 0.000181821 406.722 406.722 1000.97 
55 1 1 0.0927259 0.0553345 0.00997575 0 0 0 -0.0288168 0.0107788 0.000122451 0.000391277 -5.72288e-05 0.000110698 -0.0288168 0.0107788 0.000122451 399.99 399.99 1000.95 
56 1 1 0.107941 0.0682801 0.00997581 0 0 0 -0.019759 0.00322639 0.00017215 -0.000121783 -4.20844e-05 0.000113631 -0.019759 0.00322639 0.00017215 415.439 415.439 1000.99 
57 1 1 0.132431 0.0633311 0.00997609 0 0 0 -0.0135609 -0.0177801 0.000162246 0.00012062 -0.000784074 0.000129476 -0.0135609 -0.0177801 0.000162246 408.371 408.371 1000.97 
58 1 1 0.139456 0.0627604 0.00997606 0 0 0 -0.0209837 0.0038015 0.000166705 2.72472e-05 -0.000380462 0.000112058 -0.0209837 0.0038015 0.000166705 405.097 405.097 1000.96 
59 1 1 0.153037 0.0657501 0.00997626 0 0 0 -0.0162077 -0.0119078 0.000156064 -0.000427056 -0.00053006 0.000134925 -0.0162077 -0.0119078 0.000156064 408.999 408.999 1000.97 
60 1 1 0.162361 0.0637849 0.00997595 0 0 0 -0.0115188 0.00284088 0.000146497 -0.000327725 -0.000207465 0.000142079 -0.0115188 0.00284088 0.000146497 407.159 407.159 1000.97 
61 1 1 0.00998614 0.0713362 0.00996931 0 0 0 -0.000663736 0.0115467 0.00039597 -0.00253533 -0.000511708 0.00249961 -0.000663736 0.0115467 0.00039597 462.688 462.688 1001.1 
62 1 1 0.0492951 0.0609487 0.00997471 0 0 0 -0.0300926 0.0225148 8.63637e-05 0.000493495 -0.000453383 0.000210952 -0.0300926 0.0225148 8.63637e-05 410.359 410.359 1000.97 
63 1 1 0.0829427 0.0633306 0.0099755 0 0 0 -0.0068124 0.0135331 4.54005e-05 -0.000383914 -0.000291482 0.00014907 -0.0068124 0.0135331 4.54005e-05 407.861 407.861 1000.97 
64 1 1 0.0938814 0.0666951 0.00997573 0 0 0 0.000805706 -0.0100659 0.000204421 0.000285488 -0.00025127 0.000215681 0.000805706 -0.0100659 0.000204421 410.81 410.81 1000.98 
65 1 1 0.121052 0.0608242 0.00997574 0 0 0 -0.0236501 0.0157806 0.000130924 7.94421e-05 -0.000230017 0.000112417 -0.0236501 0.0157806 0.000130924 408.28 408.28 1000.97 
66 1 1 0.111881 0.0776721 0.00997629 0 0 0 -0.0155856 -0.00894779 -9.88109e-05 -4.31473e-07 -0.000135953 5.40661e-05 -0.0155856 -0.00894779 -9.88109e-05 423.461 423.461 1001.01 
67 1 1 0.138651 0.0539303 0.00997587 0 0 0 -0.0214414 -0.0141449 9.45569e-05 9.18921e-05 -3.34855e-05 9.9554e-05 -0.0214414 -0.0141449 9.45569e-05 405.013 405.013 1000.96 
68 1 1 0.120238 0.0674277 0.0099758 0 0 0 -0.0150695 -0.00502296 0.000173942 -0.000312378 0.000116411 0.000211964 -0.0150695 -0.00502296 0.000173942 409.708 409.708 1000.97 
69 1 1 0.140825 0.0771981 0.00997535 0 0 0 -0.0453659 0.0203028 0.000112062 0.000106718 -0.000131553 0.000236706 -0.0453659 0.0203028 0.000112062 421.947 421.947 1001 
70 1 1 0.15071 0.0718163 0.00997642 0 0 0 -0.0310207 0.00308795 0.00018916 0.000279388 -0.000211815 0.000159727 -0.0310207 0.00308795 0.00018916 415.729 415.729 1000.99 
71 1 1 0.00997451 0.0791148 0.00997475 0 0 0 0.00495995 0.019318 -0.004031 0.008639 -0.000611924 -0.00359775 0.00495995 0.019318 -0.004031 488.315 488.315 1001.16 
72 1 1 0.0293551 0.0612425 0.00997531 0 0 0 -0.0382043 -0.0393748 0.000903814 0.000924952 0.000584468 0.000277654 -0.0382043 -0.0393748 0.000903814 433.24 433.24 1001.03 
73 1 1 0.0329976 0.07767 0.00997594 0 0 0 0.0173817 0.00449713 -0.0016508 0.000714262 -0.00101877 -0.000631792 0.0173817 0.00449713 -0.0016508 435.245 435.245 1001.03 
74 1 1 0.0950628 0.0773901 0.00997567 0 0 0 -0.0246385 0.00876978 4.53695e-05 0.000174459 -0.000204981 0.000299734 -0.0246385 0.00876978 4.53695e-05 423.192 423.192 1001 
75 1 1 0.0822448 0.0773435 0.00997679 0 0 0 -0.00912369 0.00364672 0.000535258 0.000375798 -0.000264192 -0.000668499 -0.00912369 0.00364672 0.000535258 416.796 416.796 1000.99 
76 1 1 0.106165 0.0770741 0.00997613 0 0 0 -0.0240528 -0.00245069 9.59828e-05 -0.000337822 0.000229796 5.07555e-05 -0.0240528 -0.00245069 9.59828e-05 416.364 416.364 1000.99 
77 1 1 0.10962 0.0576469 0.00997559 0 0 0 -0.00181486 -0.0235701 0.000128461 0.000321694 0.000258483 9.91428e-05 -0.00181486 -0.0235701 0.000128461 409.372 409.372 1000.97 
78 1 1 0.140296 0.0694791 0.00997523 0 0 0 -0.0311546 0.00772076 0.000231606 0.000143058 -6.9792e-05 0.000132924 -0.0311546 0.00772076 0.000231606 411.88 411.88 1000.98 
79 1 1 0.117263 0.0763763 0.00997607 0 0 0 -0.0215545 0.00355102 -1.88703e-05 0.000129565 -0.000497437 0.000161505 -0.0215545 0.00355102 -1.88703e-05 422.794 422.794 1001 
80 1 1 0.154555 0.0779917 0.00997557 0 0 0 -0.0418722 -0.00499346 -3.3932e-05 0.000500507 4.64314e-05 0.000510634 -0.0418722 -0.00499346 -3.3932e-05 422.555 422.555 1001 
81 1 1 0.0099745 0.0900115 0.0099691 0 0 0 0.00588952 0.0101357 0.0027265 0.00906545 0.00596415 0.00505479 0.00588952 0.0101357 0.0027265 471.364 471.364 1001.12 
82 1 1 0.0336643 0.0900207 0.00997887 0 0 0 0.00342907 -0.00268913 -0.00244227 -0.000249862 -0.00311913 -0.00115324 0.00342907 -0.00268913 -0.00244227 466.228 466.228 1001.11 
83 1 1 0.0280226 0.0900138 0.00997237 0 0 0 -0.0156293 -0.0029395 -0.00161775 0.000626174 0.00401235 0.00486182 -0.0156293 -0.0029395 -0.00161775 475.228 475.228 1001.13 
84 1 1 0.0738274 0.0900169 0.00997623 0 0 0 -0.0407492 -0.00496712 -0.00435127 0.00104065 8.20688e-05 0.00152379 -0.0407492 -0.00496712 -0.00435127 453.896 453.896 1001.08 
85 1 1 0.0789987 0.0900168 0.00997723 0 0 0 -0.0206059 0.00474213 0.00564183 -0.000276689 0.00069583 0.000385069 -0.0206059 0.00474213 0.00564183 449.53 449.53 1001.07 
86 1 1 0.0971776 0.0900219 0.00998215 0 0 0 -0.0266358 -0.00082615 -0.00124289 -0.000165804 -0.00490098 -0.00443354 -0.0266358 -0.00082615 -0.00124289 437.9 437.9 1001.04 
87 1 1 0.11077 0.0900159 0.00997631 0 0 0 -0.0376643 0.00629687 0.00701231 0.00047227 0.00178514 0.000858055 -0.0376643 0.00629687 0.00701231 428.638 428.638 1001.02 
88 1 1 0.119828 0.0900182 0.00997911 0 0 0 -0.0411132 0.0063102 0.0067584 0.000434689 -0.000567451 -0.00133859 -0.0411132 0.0063102 0.0067584 418.46 418.46 1000.99 
89 1 1 0.129441 0.0900208 0.00997922 0 0 0 -0.0500344 -0.00510119 -0.00493098 -0.00037583 -0.00251994 -0.00184859 -0.0500344 -0.00510119 -0.00493098 417.052 417.052 1000.99 
90 1 1 0.143 0.0900118 0.00997101 0 0 0 -0.0468371 0.000846233 0.00222332 -0.000261146 0.00613407 0.00625848 -0.0468371 0.000846233 0.00222332 420.723 420.723 1001 
91 1 1 0.00998567 0.00998385 0.00997412 0 0 0 0.00872513 -0.0020409 -0.00487733 -0.0010554 -0.000716572 -0.000604059 0.00872513 -0.0020409 -0.00487733 478.875 478.875 1001.14 
92 1 1 0.0339277 0.00998523 0.00997636 0 0 0 -0.00396538 0.00115884 -0.000297237 -0.00107817 -0.00156803 0.00169195 -0.00396538 0.00115884 -0.000297237 465.093 465.093 1001.1 
93 1 1 0.0470394 0.00998283 0.00997739 0 0 0 -0.0145473 0.00157249 -0.00182739 -0.000608853 0.000973418 0.000226776 -0.0145473 0.00157249 -0.00182739 454.649 454.649 1001.08 
94 1 1 0.0555554 0.00999065 0.00996987 0 0 0 -0.0155302 0.00326197 -0.0025236 0.000181815 -0.00746187 0.00799708 -0.0155302 0.00326197 -0.0025236 454.531 454.531 1001.08 
95 1 1 0.0827317 0.00999176 0.00997017 0 0 0 -0.0204394 -0.00196796 0.00307314 4.65126e-05 -0.00861187 0.00766689 -0.0204394 -0.00196796 0.00307314 446.27 446.27 1001.06 
96 1 1 0.104712 0.00997792 0.00998421 0 0 0 -0.0286911 -0.00246713 0.00140512 0.000658931 0.00590881 -0.00648249 -0.0286911 -0.00246713 0.00140512 430.768 430.768 1001.02 
97 1 1 0.113988 0.00999124 0.00996955 0 0 0 -0.0313163 0.00101649 -2.82191e-05 9.9928e-05 -0.00818927 0.00835979 -0.0313163 0.00101649 -2.82191e-05 429.331 429.331 1001.02 
98 1 1 0.122662 0.00997792 0.00998303 0 0 0 -0.032226 -0.00226998 0.00131977 0.00064758 0.00487801 -0.00497424 -0.032226 -0.00226998 0.00131977 422.953 422.953 1001 
99 1 1 0.131888 0.00998466 0.00997688 0 0 0 -0.0257951 -0.00234155 0.00246636 -0.000172337 -0.00132279 0.000915835 -0.0257951 -0.00234155 0.00246636 416.397 416.397 1000.99 
100 1 1 0.136032 0.00997873 0.00998165 0 0 0 -0.037996 0.00124455 -0.00199566 0.000439678 0.00428944 -0.00403908 -0.037996 0.00124455 -0.00199566 414.945 414.945 1000.99 
101 1 1 0.00999031 0.0226035 0.0246642 0 0 0 0.00163923 0.00674984 0.0170389 -0.000688288 -0.000288046 0.00024666 0.00163923 0.00674984 0.0170389 407.486 407.486 1000.97 
102 1 1 0.00997917 0.0233349 0.00997455 0 0 0 -0.000174784 0.0149508 -0.00161476 0.00497348 -8.43373e-05 -0.00305595 -0.000174784 0.0149508 -0.00161476 460.069 460.069 1001.09 
103 1 1 0.0245984 0.0246739 0.0220988 0 0 0 0.0123758 -0.00884354 -0.000934265 -0.000382375 0.000179836 0.000785105 0.0123758 -0.00884354 -0.000934265 347.732 347.732 1000.83 
104 1 1 0.0835022 0.0235337 0.0351203 0 0 0 0.0301661 -0.0166104 -0.00243032 -1.84141e-05 0.000212725 0.000126887 0.0301661 -0.0166104 -0.00243032 255.113 255.113 1000.61 
105 1 1 0.126141 0.0401136 0.0498212 0 0 0 0.0689867 -0.00529072 -0.0107504 0.000234043 0.000399799 0.000845919 0.0689867 -0.00529072 -0.0107504 185.111 185.111 1000.44 
106 1 1 0.129731 0.0230333 0.00997624 0 0 0 -0.0551501 -0.00743409 -7.6404e-06 0.000375138 -0.000427737 2.1829e-05 -0.0551501 -0.00743409 -7.6404e-06 419.374 419.374 1001 
107 1 1 0.140901 0.0223115 0.0348378 0 0 0 0.0510337 0.000174333 -0.00235043 -9.80264e-05 -0.000478652 5.23493e-05 0.0510337 0.000174333 -0.00235043 258.682 258.682 1000.61 
108 1 1 0.146109 0.0352724 0.00997582 0 0 0 -0.0115222 -0.0126755 3.69761e-05 0.000516897 -0.000351919 3.59697e-05 -0.0115222 -0.0126755 3.69761e-05 408.305 408.305 1000.97 
109 1 1 0.156315 0.0224577 0.0222936 0 0 0 0.0201958 0.0180059 -0.00280975 -0.000172316 3.99416e-06 0.000474184 0.0201958 0.0180059 -0.00280975 321.443 321.443 1000.76 
110 1 1 0.171642 0.0232819 0.00997659 0 0 0 -0.0342526 -0.00331619 0.000199834 0.000432752 -0.000257935 0.000153601 -0.0342526 -0.00331619 0.000199834 422.764 422.764 1001 
111 1 1 0.00998285 0.0336929 0.0099733 0 0 0 0.000293457 0.000121328 -0.000803989 0.000645622 -6.26316e-05 -0.000910781 0.000293457 0.000121328 -0.000803989 453.463 453.463 1001.08 
112 1 1 0.0233199 0.0222215 0.0416334 0 0 0 0.0152918 0.0139832 -0.0242943 0.000433582 -0.000321768 0.00136345 0.0152918 0.0139832 -0.0242943 233.515 233.515 1000.56 
113 1 1 0.0504132 0.0301213 0.00997414 0 0 0 0.00265518 0.0134984 -0.000468498 -0.000399347 0.000590434 0.000476438 0.00265518 0.0134984 -0.000468498 416.391 416.391 1000.99 
114 1 1 0.067863 0.0226199 0.00997667 0 0 0 -0.0110187 -0.000796358 0.000240011 -0.00054979 -0.000232002 -0.000981949 -0.0110187 -0.000796358 0.000240011 417.977 417.977 1000.99 
115 1 1 0.0643993 0.0219788 0.0362404 0 0 0 0.0380399 0.0227817 -0.00487642 0.000466926 8.68749e-05 0.000613101 0.0380399 0.0227817 -0.00487642 278.694 278.694 1000.66 
116 1 1 0.104857 0.0376101 0.00997526 0 0 0 -0.0336272 -0.00539527 8.6016e-05 1.32003e-05 -0.000657863 0.000222132 -0.0336272 -0.00539527 8.6016e-05 405.59 405.59 1000.96 
117 1 1 0.132264 0.0232912 0.0222294 0 0 0 0.0295555 -0.00509538 0.00353065 0.000206863 -0.000247739 -5.08503e-05 0.0295555 -0.00509538 0.00353065 325.516 325.516 1000.77 
118 1 1 0.147928 0.0213718 0.0230296 0 0 0 0.0434739 -0.0193083 0.0222448 0.000217538 0.000546468 0.000308116 0.0434739 -0.0193083 0.0222448 312.983 312.983 1000.74 
119 1 1 0.147999 0.022793 0.00997653 0 0 0 -0.0319544 0.00291238 0.000160731 -0.000296037 -0.000216716 -3.52303e-05 -0.0319544 0.00291238 0.000160731 419.364 419.364 1001 
120 1 1 0.168997 0.0228725 0.037211 0 0 0 0.0346124 0.00304983 -0.00287097 0.000310141 -0.000255943 2.58059e-05 0.0346124 0.00304983 -0.00287097 250.781 250.781 1000.6 
121 1 1 0.00998802 0.0424834 0.00996777 0 0 0 0.00237712 0.0103457 -0.000735392 -0.0045895 0.000189205 0.00408118 0.00237712 0.0103457 -0.000735392 463.101 463.101 1001.1 
122 1 1 0.0226617 0.034157 0.00997559 0 0 0 0.00443508 -0.00914472 -0.000131398 0.000457857 0.000257259 -0.000397076 0.00443508 -0.00914472 -0.000131398 460.395 460.395 1001.09 
123 1 1 0.0222556 0.0266263 0.00997449 0 0 0 0.00135099 0.0238209 -0.00150503 -1.48279e-05 -0.000692856 0.000121072 0.00135099 0.0238209 -0.00150503 465.595 465.595 1001.1 
124 1 1 0.0777916 0.0347169 0.00997512 0 0 0 -0.0335213 -0.0213969 2.4992e-05 -0.000455552 7.23204e-05 0.00017901 -0.0335213 -0.0213969 2.4992e-05 418.255 418.255 1000.99 
125 1 1 0.0907559 0.0368342 0.00997548 0 0 0 -0.0292879 0.0127419 0.000196713 -0.000420625 6.46585e-05 0.000171826 -0.0292879 0.0127419 0.000196713 410.562 410.562 1000.97 
126 1 1 0.126456 0.0299301 0.00997625 0 0 0 -0.0269672 0.0150384 1.85278e-07 -0.000208354 0.000181246 7.71942e-05 -0.0269672 0.0150384 1.85278e-07 414.826 414.826 1000.98 
127 1 1 0.165401 0.0414919 0.0099762 0 0 0 -0.0308426 0.0134725 9.09576e-05 -3.84576e-05 -7.46735e-05 8.25394e-05 -0.0308426 0.0134725 9.09576e-05 404.887 404.887 1000.96 
128 1 1 0.144731 0.0418543 0.00997601 0 0 0 -0.0304555 -0.00898106 4.23997e-05 -0.000321613 0.000146916 7.90736e-05 -0.0304555 -0.00898106 4.23997e-05 401.383 401.383 1000.95 
129 1 1 0.135895 0.0226783 0.00997624 0 0 0 -0.0392912 -0.0093453 -8.75709e-05 -0.000355717 -3.44726e-05 -3.80715e-05 -0.0392912 -0.0093453 -8.75709e-05 418.479 418.479 1000.99 
130 1 1 0.17771 0.0318978 0.00997656 0 0 0 -0.0350255 -0.0121629 6.65024e-05 -3.35646e-05 -3.69823e-05 3.81595e-05 -0.0350255 -0.0121629 6.65024e-05 411.335 411.335 1000.98 
131 1 1 0.00998616 0.0477335 0.00996958 0 0 0 0.000568208 0.00302479 0.000876862 -0.00234274 -1.54664e-05 0.0020887 0.000568208 0.00302479 0.000876862 464.419 464.419 1001.1 
132 1 1 0.0459085 0.0473486 0.00997483 0 0 0 -0.0162356 0.012496 -6.22748e-05 -0.000242609 0.000705393 2.5476e-06 -0.0162356 0.012496 -6.22748e-05 413.97 413.97 1000.98 
133 1 1 0.0492195 0.0539404 0.00997416 0 0 0 0.020115 -0.001914 0.000153137 -0.000886743 0.000106215 0.00018125 0.020115 -0.001914 0.000153137 422.307 422.307 1001 
134 1 1 0.0834086 0.0476637 0.00997551 0 0 0 -0.0147925 0.0130042 8.48114e-05 -0.000149919 -9.96874e-06 0.000125487 -0.0147925 0.0130042 8.48114e-05 406.969 406.969 1000.97 
135 1 1 0.128012 0.0497775 0.00997611 0 0 0 -0.0150176 -0.00449639 8.88767e-05 -0.000186318 -2.97693e-05 0.000131928 -0.0150176 -0.00449639 8.88767e-05 403.927 403.927 1000.96 
136 1 1 0.109266 0.0536124 0.0223144 0 0 0 0.0292587 0.0131172 0.0203961 -0.000390115 -0.000355767 0.000324562 0.0292587 0.0131172 0.0203961 308.922 308.922 1000.73 
137 1 1 0.136544 0.0457459 0.0224126 0 0 0 0.0352657 0.0251793 0.0043744 0.000357766 -0.000203292 0.000819962 0.0352657 0.0251793 0.0043744 299.019 299.019 1000.71 
138 1 1 0.150948 0.0490619 0.00997573 0 0 0 -0.00966992 0.00568047 7.45958e-05 -0.000280323 -0.000298597 9.62759e-05 -0.00966992 0.00568047 7.45958e-05 404.714 404.714 1000.96 
139 1 1 0.15398 0.0422183 0.00997653 0 0 0 -0.0349552 0.00359761 5.90091e-05 -0.000527523 0.000300442 7.82715e-05 -0.0349552 0.00359761 5.90091e-05 397.56 397.56 1000.94 
140 1 1 0.188222 0.0526728 0.0220461 0 0 0 0.0444514 -0.00643377 0.00251333 -0.00037749 -2.01367e-05 0.000486304 0.0444514 -0.00643377 0.00251333 332.158 332.158 1000.79 
141 1 1 0.00997747 0.0569014 0.00997613 0 0 0 -0.00174924 0.00811125 0.000594064 0.00564724 0.000226143 -0.00466941 -0.00174924 0.00811125 0.000594064 451.798 451.798 1001.07 
142 1 1 0.0218716 0.057088 0.00997547 0 0 0 0.00884466 -0.0017472 -5.05024e-05 0.000875922 -0.00027932 -0.000567303 0.00884466 -0.0017472 -5.05024e-05 454.448 454.448 1001.08 
143 1 1 0.0229533 0.0641031 0.0099729 0 0 0 -0.0140477 0.0289635 0.000375691 0.000240202 -0.000734636 0.00220863 -0.0140477 0.0289635 0.000375691 449.58 449.58 1001.07 
144 1 1 0.086533 0.0703826 0.00997606 0 0 0 -0.0157902 -0.00555801 1.07984e-05 7.49583e-05 -0.000182036 7.34953e-05 -0.0157902 -0.00555801 1.07984e-05 412.226 412.226 1000.98 
145 1 1 0.10076 0.0657744 0.00997539 0 0 0 -0.0162765 -0.00466078 0.000171853 -0.000773794 -0.000242721 8.21766e-05 -0.0162765 -0.00466078 0.000171853 413.384 413.384 1000.98 
146 1 1 0.128886 0.069408 0.00997563 0 0 0 -0.016916 -0.0196841 0.000208568 -1.14268e-05 -1.88399e-05 0.00010871 -0.016916 -0.0196841 0.000208568 417.635 417.635 1000.99 
147 1 1 0.155685 0.0599036 0.00997602 0 0 0 -0.0468104 0.00905163 0.00012711 0.000430772 -0.000307572 0.000141074 -0.0468104 0.00905163 0.00012711 403.772 403.772 1000.96 
148 1 1 0.145553 0.0526705 0.0099757 0 0 0 -0.0211295 -0.0104383 9.79063e-05 -0.000278067 -0.000187416 9.87588e-05 -0.0211295 -0.0104383 9.79063e-05 399.846 399.846 1000.95 
149 1 1 0.135045 0.0782602 0.00997585 0 0 0 -0.0396767 -0.00889256 0.000181278 0.000266043 -0.000971265 -4.48862e-06 -0.0396767 -0.00889256 0.000181278 427.134 427.134 1001.01 
150 1 1 0.182139 0.0689642 0.00997651 0 0 0 -0.0277661 0.0167622 0.00010478 0.000632412 -0.000185615 0.000216722 -0.0277661 0.0167622 0.00010478 419.44 419.44 1001 
151 1 1 0.00998513 0.066094 0.00997023 0 0 0 0.00180486 0.00370788 -0.00212135 -0.00167586 -0.000685013 0.00188666 0.00180486 0.00370788 -0.00212135 457.584 457.584 1001.09 
152 1 1 0.024222 0.0741707 0.0317362 0 0 0 0.0443291 0.0036597 0.00831491 -0.000532996 0.00026683 0.000492733 0.0443291 0.0036597 0.00831491 293.823 293.823 1000.7 
153 1 1 0.0511688 0.0779635 0.00997497 0 0 0 -0.0185534 0.0106247 0.00157005 0.000893453 -0.000749372 7.0887e-05 -0.0185534 0.0106247 0.00157005 414.262 414.262 1000.98 
154 1 1 0.060786 0.0782371 0.00997492 0 0 0 0.00787001 -0.0198213 0.00201065 0.000880806 0.000394478 0.000370828 0.00787001 -0.0198213 0.00201065 408.024 408.024 1000.97 
155 1 1 0.0571107 0.0765994 0.0288904 0 0 0 0.0251376 0.00945492 -0.0109055 0.000162878 0.000260235 0.000450259 0.0251376 0.00945492 -0.0109055 299.225 299.225 1000.71 
156 1 1 0.113079 0.0640092 0.00997603 0 0 0 -0.0272583 0.00461367 0.000159075 -0.000194578 -2.4857e-05 0.000144274 -0.0272583 0.00461367 0.000159075 409.885 409.885 1000.97 
157 1 1 0.134465 0.0777509 0.0229075 0 0 0 0.00714769 0.0100087 -0.0111254 -0.000434642 -0.000314045 0.000682628 0.00714769 0.0100087 -0.0111254 332.183 332.183 1000.79 
158 1 1 0.15456 0.0774375 0.0224583 0 0 0 0.033667 0.00764232 -0.0149962 -0.000184766 -4.30244e-05 0.000203852 0.033667 0.00764232 -0.0149962 328.807 328.807 1000.78 
159 1 1 0.147741 0.0781676 0.0099758 0 0 0 -0.0331351 -0.0112582 0.000208408 -0.000336591 0.000202536 0.000369327 -0.0331351 -0.0112582 0.000208408 420.299 420.299 1001 
160 1 1 0.169851 0.0792509 0.0425745 0 0 0 0.0467846 -0.000643599 0.0179826 -0.000361171 -0.000288198 0.000976881 0.0467846 -0.000643599 0.0179826 204.19 204.19 1000.49 
161 1 1 0.00999295 0.0779088 0.0203551 0 0 0 -0.00343687 -0.00879111 -0.0054904 -0.00554745 -0.000449262 0.000852301 -0.00343687 -0.00879111 -0.0054904 448.035 448.035 1001.06 
162 1 1 0.00998955 0.0763201 0.00996474 0 0 0 -0.00863178 -0.0110383 0.00827004 -0.0061435 -0.000225099 0.00670778 -0.00863178 -0.0110383 0.00827004 478.44 478.44 1001.14 
163 1 1 0.0234496 0.0695469 0.0099721 0 0 0 -0.00232042 0.0135983 0.0013048 4.55891e-05 0.000167334 0.00341641 -0.00232042 0.0135983 0.0013048 452.049 452.049 1001.07 
164 1 1 0.08374 0.0595289 0.0407811 0 0 0 0.0104546 -0.00349462 -0.00150559 0.000241356 -7.25254e-05 0.000267991 0.0104546 -0.00349462 -0.00150559 238.373 238.373 1000.57 
165 1 1 0.122283 0.0646571 0.0439427 0 0 0 0.0187002 0.00195655 -0.0102839 -8.90076e-05 0.000483997 0.000791901 0.0187002 0.00195655 -0.0102839 178.03 178.03 1000.42 
166 1 1 0.128938 0.0771555 0.00997618 0 0 0 -0.0356163 -0.0195693 0.000200624 -2.47249e-05 -0.000167 -0.000187276 -0.0356163 -0.0195693 0.000200624 421.79 421.79 1001 
167 1 1 0.137722 0.0768429 0.0335118 0 0 0 0.0692582 0.0107688 -0.00837022 -0.000115429 0.000204221 0.000529885 0.0692582 0.0107688 -0.00837022 263.372 263.372 1000.63 
168 1 1 0.14651 0.0607715 0.0099761 0 0 0 -0.0384749 0.00728693 0.000139006 9.92753e-05 6.62173e-05 0.00011025 -0.0384749 0.00728693 0.000139006 403.161 403.161 1000.96 
169 1 1 0.162033 0.0783078 0.0222954 0 0 0 0.0483416 -0.00167087 0.0133306 0.00038528 -0.000735848 0.000947252 0.0483416 -0.00167087 0.0133306 329.492 329.492 1000.78 
170 1 1 0.175846 0.0780509 0.00997579 0 0 0 -0.0262894 0.00717897 0.000369722 -0.00118987 -0.00061079 0.000293362 -0.0262894 0.00717897 0.000369722 425.37 425.37 1001.01 
171 1 1 0.0099777 0.0900171 0.00997983 0 0 0 -0.00565174 -0.00443227 0.00186492 0.00583407 0.000453403 -0.00575568 -0.00565174 -0.00443227 0.00186492 480.629 480.629 1001.14 
172 1 1 0.0214664 0.0900143 0.00997817 0 0 0 -0.00102575 0.000557736 0.00210075 2.9992e-06 0.00327954 -0.00109522 -0.00102575 0.000557736 0.00210075 488.188 488.188 1001.16 
173 1 1 0.0420314 0.0900102 0.00997032 0 0 0 -0.0157947 0.000940932 0.00226661 0.000254041 0.00647777 0.00732937 -0.0157947 0.000940932 0.00226661 460.86 460.86 1001.09 