ITEM: TIMESTEP
53000
ITEM: NUMBER OF ATOMS
2655
ITEM: BOX BOUNDS ff ff ff
0 0.5
0 0.1
0 0.5
ITEM: ATOMS id type type x y z ix iy iz vx vy vz fx fy fz vx vy vz p p rho 
1 1 1 0.00999168 0.00999372 0.00998419 0 0 0 0.0214498 -0.019061 -0.00609894 -0.00334683 -0.00400912 0.00149611 0.0214498 -0.019061 -0.00609894 356.208 356.208 1000.85 
2 1 1 0.0316701 0.00998017 0.00998573 0 0 0 0.00259249 0.000269606 -0.00999997 -0.00418113 -0.00524105 -0.00473499 0.00259249 0.000269606 -0.00999997 510.776 510.776 1001.21 
3 1 1 0.0246182 0.00997744 0.00998734 0 0 0 -0.023587 -0.000975346 -0.0140051 -0.00412203 0.00244039 -0.00102547 -0.023587 -0.000975346 -0.0140051 503.72 503.72 1001.2 
4 1 1 0.0677753 0.00998907 0.00997312 0 0 0 -0.0130598 -0.0131498 0.00337556 -0.00186803 0.00243286 0.00490362 -0.0130598 -0.0131498 0.00337556 144.741 144.741 1000.34 
5 1 1 0.0745082 0.0099809 0.0099923 0 0 0 -0.0151251 -0.000184856 -0.00714776 -0.00821102 0.00900487 -0.0151928 -0.0151251 -0.000184856 -0.00714776 305.506 305.506 1000.73 
6 1 1 0.0943907 0.00998134 0.00997217 0 0 0 -0.0589453 0.00189427 -0.00713093 0.00381559 0.00459155 0.00165447 -0.0589453 0.00189427 -0.00713093 421.687 421.687 1001 
7 1 1 0.112564 0.00998282 0.00998809 0 0 0 -0.012514 0.0132273 -0.0109175 0.00335524 0.00247446 -0.0150168 -0.012514 0.0132273 -0.0109175 502.833 502.833 1001.19 
8 1 1 0.123637 0.00999879 0.00998708 0 0 0 -0.111097 -0.0507097 -0.0102475 0.00477511 -0.0112838 -0.0131298 -0.111097 -0.0507097 -0.0102475 256.159 256.159 1000.61 
9 1 1 0.135934 0.00997188 0.0099696 0 0 0 -0.0796689 0.00110413 -0.00532421 -0.00962768 0.0136849 0.00122501 -0.0796689 0.00110413 -0.00532421 507.109 507.109 1001.2 
10 1 1 0.153772 0.00998321 0.00996695 0 0 0 -0.0647512 -0.00762823 0.0052363 -0.0104389 -0.00151061 0.00527421 -0.0647512 -0.00762823 0.0052363 596.559 596.559 1001.41 
11 1 1 0.00999113 0.0226091 0.00998358 0 0 0 0.00355254 0.000567918 0.00328952 -0.00871471 -0.00582746 -0.00148973 0.00355254 0.000567918 0.00328952 404.118 404.118 1000.96 
12 1 1 0.0220372 0.0288556 0.00998171 0 0 0 0.0441625 -0.00387215 -0.0036321 -0.00187496 0.00106289 -0.00280462 0.0441625 -0.00387215 -0.0036321 530.437 530.437 1001.26 
13 1 1 0.0284868 0.020167 0.00997742 0 0 0 -0.0565799 -0.020164 -0.0068117 -0.00807562 0.00307612 0.000646543 -0.0565799 -0.020164 -0.0068117 474.792 474.792 1001.13 
14 1 1 0.0900532 0.0220171 0.00997236 0 0 0 0.0617824 0.0051434 0.00630524 -0.00133412 0.00117239 -0.000501694 0.0617824 0.0051434 0.00630524 373.205 373.205 1000.89 
15 1 1 0.0781181 0.0233224 0.00997703 0 0 0 -0.0057032 -0.0203484 0.00625001 -0.00540973 -0.00420553 -0.00377844 -0.0057032 -0.0203484 0.00625001 391.183 391.183 1000.93 
16 1 1 0.10345 0.0220298 0.00997499 0 0 0 0.0546199 0.0595249 0.0017833 -0.000497663 -0.000287757 0.000267311 0.0546199 0.0595249 0.0017833 404.768 404.768 1000.96 
17 1 1 0.105127 0.036941 0.00998026 0 0 0 0.0111704 0.0554777 0.00136358 -0.0015316 0.00434508 -0.00690052 0.0111704 0.0554777 0.00136358 415.045 415.045 1000.99 
18 1 1 0.127219 0.0350324 0.00996507 0 0 0 0.0392639 0.0570104 -0.00362179 -0.00315993 -0.00886873 0.0023935 0.0392639 0.0570104 -0.00362179 509.008 509.008 1001.21 
19 1 1 0.120664 0.02155 0.00996349 0 0 0 -0.0177479 0.0448376 -0.00822809 0.00681068 0.00304472 0.0079422 -0.0177479 0.0448376 -0.00822809 348.982 348.982 1000.83 
20 1 1 0.161919 0.0218871 0.00997305 0 0 0 0.0233741 0.0560007 0.000484218 -0.0048426 -0.0037902 -0.00813747 0.0233741 0.0560007 0.000484218 669.574 669.574 1001.59 
21 1 1 0.00996938 0.0245126 0.00998003 0 0 0 -0.002142 0.045723 -0.00861024 0.013081 -0.00333298 0.00191146 -0.002142 0.045723 -0.00861024 380.863 380.863 1000.9 
22 1 1 0.0338621 0.0337723 0.00997515 0 0 0 0.0245494 -0.0211019 0.00293801 -0.000378095 0.00439953 -0.000373694 0.0245494 -0.0211019 0.00293801 454.422 454.422 1001.08 
23 1 1 0.054929 0.0361199 0.00998123 0 0 0 0.0349648 0.00693 0.0055846 0.0029019 -0.00173861 -0.00530865 0.0349648 0.00693 0.0055846 348.707 348.707 1000.83 
24 1 1 0.0828531 0.032952 0.0099749 0 0 0 -0.0147608 -0.0169567 0.0055128 -0.00321586 0.000183467 -0.0025897 -0.0147608 -0.0169567 0.0055128 385.535 385.535 1000.92 
25 1 1 0.0985151 0.029875 0.00997893 0 0 0 0.0181213 -0.0165547 0.00198286 -0.00196629 -0.00109345 -0.0053004 0.0181213 -0.0165547 0.00198286 372.533 372.533 1000.88 
26 1 1 0.112093 0.0226422 0.00997057 0 0 0 -0.0241159 0.00457249 -0.00416103 0.0048623 -0.00137205 0.00137722 -0.0241159 0.00457249 -0.00416103 456.029 456.029 1001.08 
27 1 1 0.136353 0.0430387 0.00997976 0 0 0 0.0211238 0.0135766 -0.00981537 -0.00226007 0.00562043 -0.00846416 0.0211238 0.0135766 -0.00981537 406.806 406.806 1000.97 
28 1 1 0.110704 0.0291541 0.00997131 0 0 0 -0.0530378 0.0779652 -0.000261647 0.00338858 -0.00205885 0.000712741 -0.0530378 0.0779652 -0.000261647 498.628 498.628 1001.18 
29 1 1 0.149043 0.0237948 0.00997339 0 0 0 -0.0550724 -0.0301112 -0.0063733 -0.00733775 -0.00148466 -0.00443089 -0.0550724 -0.0301112 -0.0063733 459.168 459.168 1001.09 
30 1 1 0.156082 0.0342765 0.00997649 0 0 0 0.00743899 -0.0591895 -0.00530227 -0.00875879 0.00336389 -0.0100107 0.00743899 -0.0591895 -0.00530227 611.707 611.707 1001.45 
31 1 1 0.00999511 0.0377217 0.00998087 0 0 0 0.00531464 0.022016 -0.0011699 -0.00946628 -0.00268152 -0.00271168 0.00531464 0.022016 -0.0011699 459.62 459.62 1001.09 
32 1 1 0.0228041 0.0430452 0.0099837 0 0 0 0.00620994 -0.0363331 0.000395444 -0.00287542 -0.00043054 -0.00174822 0.00620994 -0.0363331 0.000395444 450.236 450.236 1001.07 
33 1 1 0.0502914 0.04152 0.00998008 0 0 0 -0.0444814 -0.0245914 0.00358342 0.0019454 -0.00164021 -0.00266163 -0.0444814 -0.0245914 0.00358342 346.94 346.94 1000.82 
34 1 1 0.0691653 0.0363757 0.0099768 0 0 0 0.0361139 -0.0111084 0.00759424 -0.00222045 -0.00253392 -0.004221 0.0361139 -0.0111084 0.00759424 346.375 346.375 1000.82 
35 1 1 0.073678 0.0412489 0.00997318 0 0 0 0.031155 -0.0222375 0.00699934 -3.30165e-05 -0.000743257 -0.000947839 0.031155 -0.0222375 0.00699934 358.948 358.948 1000.85 
36 1 1 0.0925933 0.0345022 0.00997616 0 0 0 -0.0503172 0.0312917 0.000447634 -8.33477e-05 -0.00213783 -0.00385023 -0.0503172 0.0312917 0.000447634 382.144 382.144 1000.91 
37 1 1 0.12572 0.0390053 0.0099728 0 0 0 0.00786481 -0.026694 -0.011007 -0.00194661 0.00198036 -0.00376323 0.00786481 -0.026694 -0.011007 431.073 431.073 1001.02 
38 1 1 0.136741 0.0324324 0.00996717 0 0 0 -0.0120266 0.0542242 -0.00477235 -0.00729099 -0.00213273 0.00278406 -0.0120266 0.0542242 -0.00477235 526.058 526.058 1001.25 
39 1 1 0.143986 0.0462358 0.00997884 0 0 0 0.0372369 -0.00894957 -0.00905836 -0.00730685 0.00174593 -0.00694238 0.0372369 -0.00894957 -0.00905836 359.968 359.968 1000.85 
40 1 1 0.162859 0.0389936 0.00996792 0 0 0 0.0627452 0.0161879 -0.00917783 0.00564396 0.00305718 -0.00433121 0.0627452 0.0161879 -0.00917783 573.887 573.887 1001.36 
41 1 1 0.0100022 0.0500008 0.00998663 0 0 0 0.00524206 2.8471e-05 -0.00417723 -0.0249296 -0.000226979 -0.00683586 0.00524206 2.8471e-05 -0.00417723 430.278 430.278 1001.02 
42 1 1 0.0412475 0.0500018 0.0099782 0 0 0 -0.0506213 4.43644e-05 0.00530722 -0.000602785 -0.000109999 0.00330819 -0.0506213 4.43644e-05 0.00530722 409.372 409.372 1000.97 
43 1 1 0.0505865 0.0500011 0.00997926 0 0 0 -0.0475099 8.91008e-05 0.0020537 0.00264637 5.86476e-06 4.10266e-06 -0.0475099 8.91008e-05 0.0020537 370.107 370.107 1000.88 
44 1 1 0.0687409 0.0500006 0.00997536 0 0 0 -0.0525385 -4.15446e-05 0.0088961 0.00194705 5.40621e-06 -0.00134118 -0.0525385 -4.15446e-05 0.0088961 388.441 388.441 1000.92 
45 1 1 0.0859932 0.0500006 0.00997728 0 0 0 0.0167229 -0.000132813 0.000744037 -0.00290083 -9.85166e-05 -0.00395998 0.0167229 -0.000132813 0.000744037 358.316 358.316 1000.85 
46 1 1 0.0922477 0.0500008 0.00998281 0 0 0 -0.0195818 -0.000124445 -0.00740416 0.00325184 -0.000110677 -0.00984972 -0.0195818 -0.000124445 -0.00740416 373.204 373.204 1000.89 
47 1 1 0.0974549 0.0500003 0.0099831 0 0 0 -0.0191509 -0.000121929 -0.00233576 0.00623449 -0.000119579 -0.00980216 -0.0191509 -0.000121929 -0.00233576 410.684 410.684 1000.97 
48 1 1 0.125611 0.0500003 0.00998417 0 0 0 0.0572716 -1.73156e-05 -0.0165945 -0.000478058 -0.000142884 -0.0112869 0.0572716 -1.73156e-05 -0.0165945 259.057 259.057 1000.62 
49 1 1 0.108675 0.0500005 0.00997967 0 0 0 0.097409 -9.58687e-05 -0.00428647 0.0173059 -0.000144349 -0.00641521 0.097409 -9.58687e-05 -0.00428647 459.116 459.116 1001.09 
50 1 1 0.16321 0.0500001 0.00995772 0 0 0 0.0196174 1.29371e-05 -0.00894735 -0.00232391 -5.77782e-05 0.00432189 0.0196174 1.29371e-05 -0.00894735 611.255 611.255 1001.45 
51 1 1 0.00999651 0.062279 0.00997833 0 0 0 0.00389237 -0.0231725 -0.00189955 -0.0110434 0.00223833 -0.0004807 0.00389237 -0.0231725 -0.00189955 459.951 459.951 1001.09 
52 1 1 0.0228033 0.0569654 0.00998254 0 0 0 0.00641677 0.0364635 0.000867613 -0.00286006 8.05692e-05 -0.000655015 0.00641677 0.0364635 0.000867613 455.283 455.283 1001.08 
53 1 1 0.0502918 0.0584819 0.00998019 0 0 0 -0.0445011 0.0248427 0.00393448 0.00212824 0.00162931 -0.00275234 -0.0445011 0.0248427 0.00393448 346.497 346.497 1000.82 
54 1 1 0.0691652 0.0636257 0.00997685 0 0 0 0.0360243 0.0109556 0.00786656 -0.00244387 0.00265779 -0.00420786 0.0360243 0.0109556 0.00786656 346.037 346.037 1000.82 
55 1 1 0.0736779 0.0587524 0.00997322 0 0 0 0.0310478 0.0221436 0.00716494 -0.000178268 0.000742299 -0.00099478 0.0310478 0.0221436 0.00716494 360.321 360.321 1000.86 
56 1 1 0.0925931 0.065499 0.00997602 0 0 0 -0.0502737 -0.0315729 0.000522691 -0.000153259 0.00185537 -0.00387819 -0.0502737 -0.0315729 0.000522691 385.571 385.571 1000.92 
57 1 1 0.12572 0.0609951 0.00997271 0 0 0 0.00796216 0.0266782 -0.0109348 -0.00191475 -0.00216289 -0.00383984 0.00796216 0.0266782 -0.0109348 434.811 434.811 1001.03 
58 1 1 0.136742 0.0675671 0.00996709 0 0 0 -0.0118912 -0.054244 -0.00479683 -0.00729638 0.00205668 0.00271444 -0.0118912 -0.054244 -0.00479683 529.76 529.76 1001.26 
59 1 1 0.143986 0.0537647 0.00997884 0 0 0 0.0372411 0.00897727 -0.00904566 -0.00728753 -0.00194339 -0.00697036 0.0372411 0.00897727 -0.00904566 360.919 360.919 1000.86 
60 1 1 0.162859 0.0610069 0.00996788 0 0 0 0.0627605 -0.0161718 -0.00920828 0.00568205 -0.00323051 -0.00435404 0.0627605 -0.0161718 -0.00920828 574.878 574.878 1001.36 
61 1 1 0.00996788 0.0754948 0.00998245 0 0 0 -0.00349327 -0.0464144 -0.00912868 0.0140364 0.00174229 -0.00124924 -0.00349327 -0.0464144 -0.00912868 396.326 396.326 1000.94 
62 1 1 0.0338608 0.0662295 0.00997511 0 0 0 0.0249675 0.021806 0.0032195 -0.000149257 -0.00422573 -0.000418654 0.0249675 0.021806 0.0032195 460.731 460.731 1001.09 
63 1 1 0.0549284 0.0638834 0.0099813 0 0 0 0.0346503 -0.00680576 0.00595739 0.00311812 0.00180313 -0.00528995 0.0346503 -0.00680576 0.00595739 346.75 346.75 1000.82 
64 1 1 0.0828529 0.0670493 0.00997479 0 0 0 -0.014938 0.0166854 0.00566204 -0.00343379 -0.000369738 -0.00259418 -0.014938 0.0166854 0.00566204 388.605 388.605 1000.92 
65 1 1 0.0985149 0.070126 0.00997884 0 0 0 0.0182351 0.0162781 0.00208343 -0.00199408 0.000744697 -0.00543164 0.0182351 0.0162781 0.00208343 378.213 378.213 1000.9 
66 1 1 0.112092 0.0773586 0.00997045 0 0 0 -0.0238534 -0.00459377 -0.0039692 0.00501245 0.00116684 0.00117276 -0.0238534 -0.00459377 -0.0039692 463.935 463.935 1001.1 
67 1 1 0.136353 0.0569619 0.00997973 0 0 0 0.0211385 -0.0135389 -0.00977402 -0.0022368 -0.00583239 -0.00852181 0.0211385 -0.0135389 -0.00977402 409.132 409.132 1000.97 
68 1 1 0.110703 0.0708468 0.00997124 0 0 0 -0.0528355 -0.0780879 -0.000104253 0.00347884 0.00184234 0.000536475 -0.0528355 -0.0780879 -0.000104253 505.154 505.154 1001.2 
69 1 1 0.149043 0.0762054 0.00997326 0 0 0 -0.0550897 0.0302521 -0.00640599 -0.00734018 0.00138839 -0.00450509 -0.0550897 0.0302521 -0.00640599 464.123 464.123 1001.1 
70 1 1 0.156082 0.0657238 0.00997643 0 0 0 0.00741941 0.0592355 -0.00533451 -0.00875755 -0.00355358 -0.0100626 0.00741941 0.0592355 -0.00533451 613.754 613.754 1001.45 
71 1 1 0.00999136 0.07739 0.00998467 0 0 0 0.00222625 -0.000795635 0.0031202 -0.00960471 0.00402034 -0.00330813 0.00222625 -0.000795635 0.0031202 426.279 426.279 1001.01 
72 1 1 0.0220314 0.0711513 0.00998433 0 0 0 0.0459223 0.00340235 -0.00308601 -0.00142091 -0.00172096 -0.00586145 0.0459223 0.00340235 -0.00308601 537.909 537.909 1001.28 
73 1 1 0.0284768 0.0798332 0.00997884 0 0 0 -0.0543726 0.0210867 -0.00678256 -0.00652586 -0.00457198 -0.00121211 -0.0543726 0.0210867 -0.00678256 491.8 491.8 1001.17 
74 1 1 0.0900528 0.0779841 0.00997224 0 0 0 0.0617182 -0.00527647 0.00627945 -0.00157025 -0.00163673 -0.000723108 0.0617182 -0.00527647 0.00627945 384.376 384.376 1000.91 
75 1 1 0.0781173 0.0766785 0.00997678 0 0 0 -0.00593274 0.0201955 0.00655994 -0.00590822 0.00401881 -0.00362809 -0.00593274 0.0201955 0.00655994 394.45 394.45 1000.94 
76 1 1 0.103449 0.0779714 0.00997494 0 0 0 0.0549268 -0.0596356 0.00197188 -0.000325446 -3.87687e-05 2.95166e-05 0.0549268 -0.0596356 0.00197188 413.773 413.773 1000.98 
77 1 1 0.105127 0.06306 0.0099802 0 0 0 0.0112511 -0.0556692 0.00145577 -0.00155991 -0.00460565 -0.0069978 0.0112511 -0.0556692 0.00145577 418.964 418.964 1000.99 
78 1 1 0.127218 0.0649685 0.00996494 0 0 0 0.0393323 -0.0570993 -0.00361087 -0.00311592 0.00881431 0.00234075 0.0393323 -0.0570993 -0.00361087 512.795 512.795 1001.22 
79 1 1 0.120664 0.0784509 0.00996332 0 0 0 -0.017707 -0.0447562 -0.00824415 0.00700807 -0.00334181 0.00784215 -0.017707 -0.0447562 -0.00824415 354.217 354.217 1000.84 
80 1 1 0.161919 0.0781131 0.00997295 0 0 0 0.0234732 -0.0557162 0.000371883 -0.00474298 0.00380052 -0.00822208 0.0234732 -0.0557162 0.000371883 673.232 673.232 1001.6 
81 1 1 0.00996323 0.0899976 0.00998594 0 0 0 0.00651684 0.00768796 -0.00521623 0.0243481 0.0224795 -0.00024212 0.00651684 0.00768796 -0.00521623 412.745 412.745 1000.98 
82 1 1 0.0316873 0.0900164 0.00998278 0 0 0 0.00419003 0.00176152 -0.0116829 -0.00202273 0.00878259 -0.0021452 0.00419003 0.00176152 -0.0116829 530.911 530.911 1001.26 
83 1 1 0.0246187 0.0900216 0.00999695 0 0 0 -0.0206533 -0.00056295 -0.00203867 -0.00239233 -0.000635015 -0.0107619 -0.0206533 -0.00056295 -0.00203867 574.519 574.519 1001.36 
84 1 1 0.0677843 0.0900111 0.00997245 0 0 0 -0.0122091 0.0130636 0.00425034 -0.00234846 -0.00263571 0.00566599 -0.0122091 0.0130636 0.00425034 144.214 144.214 1000.34 
85 1 1 0.074504 0.0900191 0.00999171 0 0 0 -0.0157711 0.000407567 -0.00648336 -0.00891982 -0.00899504 -0.01468 -0.0157711 0.000407567 -0.00648336 310.866 310.866 1000.74 
86 1 1 0.0943892 0.0900186 0.009972 0 0 0 -0.0588583 -0.00182815 -0.00692878 0.00400468 -0.00413983 0.00144015 -0.0588583 -0.00182815 -0.00692878 437.861 437.861 1001.04 
87 1 1 0.112563 0.090018 0.00998788 0 0 0 -0.0121758 -0.0128947 -0.0107089 0.00357495 -0.00297691 -0.0152074 -0.0121758 -0.0128947 -0.0107089 513.89 513.89 1001.22 
88 1 1 0.123636 0.0900012 0.00998687 0 0 0 -0.111062 0.05112 -0.0102135 0.00497345 0.0115275 -0.0131854 -0.111062 0.05112 -0.0102135 262.881 262.881 1000.62 
89 1 1 0.135934 0.0900282 0.00996933 0 0 0 -0.0793671 -0.00064303 -0.00522886 -0.00963073 -0.0136212 0.00130044 -0.0793671 -0.00064303 -0.00522886 512.563 512.563 1001.22 
90 1 1 0.153772 0.0900168 0.00996673 0 0 0 -0.0646127 0.00774238 0.00515158 -0.0103577 0.00160664 0.00529467 -0.0646127 0.00774238 0.00515158 602.112 602.112 1001.43 
91 1 1 0.0100074 0.00998587 0.0100071 0 0 0 -0.00782956 0.00553075 -0.0151303 -0.0213336 0.00375951 -0.0240092 -0.00782956 0.00553075 -0.0151303 339.662 339.662 1000.81 
92 1 1 0.021773 0.00998478 0.00998546 0 0 0 0.00475193 0.00307133 -0.015803 -0.00651371 -0.00286523 0.00161068 0.00475193 0.00307133 -0.015803 518.496 518.496 1001.23 
93 1 1 0.0380539 0.00996806 0.00997816 0 0 0 0.00432867 -0.0233453 0.00587212 -0.00113658 0.00885397 -0.000990558 0.00432867 -0.0233453 0.00587212 507.865 507.865 1001.2 
94 1 1 0.0492583 0.00997683 0.00999328 0 0 0 -0.0517451 0.00519648 -0.00215447 0.00862134 0.00782798 -0.0142518 -0.0517451 0.00519648 -0.00215447 493.013 493.013 1001.17 
95 1 1 0.0792125 0.00997997 0.00998855 0 0 0 -0.0223787 0.00881133 -0.0105763 -0.00822406 0.00936142 -0.0123466 -0.0223787 0.00881133 -0.0105763 390.973 390.973 1000.93 
96 1 1 0.106683 0.00999223 0.00996412 0 0 0 -0.0614034 -0.00445853 -0.00357938 0.000496249 -0.00715324 0.00925215 -0.0614034 -0.00445853 -0.00357938 423.108 423.108 1001 
97 1 1 0.118327 0.00997822 0.00997007 0 0 0 0.00843688 -0.0021268 -0.00110964 0.0059734 0.00726103 0.003193 0.00843688 -0.0021268 -0.00110964 479.272 479.272 1001.14 
98 1 1 0.130537 0.00999827 0.00998186 0 0 0 -0.000135138 -0.0436523 -0.00878315 -0.00790578 -0.0105119 -0.00913564 -0.000135138 -0.0436523 -0.00878315 303.586 303.586 1000.72 
99 1 1 0.141704 0.00998191 0.00998018 0 0 0 -0.0866521 0.00375078 -0.0153405 -0.00597646 0.000501038 -0.00801923 -0.0866521 0.00375078 -0.0153405 519.249 519.249 1001.23 
100 1 1 0.146901 0.00999172 0.00996274 0 0 0 -0.0212384 -0.00852986 -0.00651808 -0.00421191 -0.00991783 0.0105461 -0.0212384 -0.00852986 -0.00651808 498.507 498.507 1001.18 
101 1 1 0.010005 0.0174067 0.0242354 0 0 0 0.00713592 0.0125417 0.0528952 -0.0181375 -0.00115505 -0.00534682 0.00713592 0.0125417 0.0528952 298.176 298.176 1000.71 
102 1 1 0.0206591 0.0217585 0.0099843 0 0 0 -0.0499789 0.018203 -0.00552568 -0.00314636 -0.00131374 -0.00288933 -0.0499789 0.018203 -0.00552568 548.523 548.523 1001.3 
103 1 1 0.0499254 0.0213219 0.0228939 0 0 0 -0.0774455 -0.00166545 0.0121004 0.00362191 -8.70725e-05 -0.000434275 -0.0774455 -0.00166545 0.0121004 241.012 241.012 1000.57 
104 1 1 0.0909749 0.0237164 0.0283591 0 0 0 -0.0437515 0.0129253 0.0123318 -0.00145195 -0.00201671 -0.000283117 -0.0437515 0.0129253 0.0123318 270.189 270.189 1000.64 
105 1 1 0.127545 0.0192455 0.0421062 0 0 0 0.0364085 0.0232758 0.0240796 -0.00160501 -0.00128072 0.00131225 0.0364085 0.0232758 0.0240796 58.0541 58.0541 1000.14 
106 1 1 0.127888 0.0200066 0.0106933 0 0 0 -0.0524263 0.0265459 -0.029433 -0.00372008 0.00305577 -0.0311682 -0.0524263 0.0265459 -0.029433 197.208 197.208 1000.47 
107 1 1 0.172044 0.0215861 0.0188367 0 0 0 0.0862572 -0.0527252 -0.0196642 0.000484688 0.000581575 0.007184 0.0862572 -0.0527252 -0.0196642 553.624 553.624 1001.31 
108 1 1 0.136988 0.0249601 0.00995593 0 0 0 0.0794258 0.0423185 -0.00616716 -0.0115663 -0.00687836 0.0139508 0.0794258 0.0423185 -0.00616716 480.424 480.424 1001.14 
109 1 1 0.188352 0.0239084 0.0241783 0 0 0 0.0619888 0.0195513 -0.0428853 -7.10145e-05 -0.00113678 0.0021781 0.0619888 0.0195513 -0.0428853 481.082 481.082 1001.14 
110 1 1 0.186105 0.0222591 0.00996705 0 0 0 0.0472133 -0.059429 -0.00346585 0.000890052 0.00145458 -0.000476019 0.0472133 -0.059429 -0.00346585 560.093 560.093 1001.33 
111 1 1 0.00998433 0.0308604 0.00998055 0 0 0 0.00527788 -0.00160104 0.00120883 -0.000970823 -0.00212193 -0.000337621 0.00527788 -0.00160104 0.00120883 461.585 461.585 1001.1 
112 1 1 0.0203816 0.022035 0.0260263 0 0 0 -0.041856 8.01801e-05 -0.00431476 0.000151218 -0.00264716 0.0011644 -0.041856 8.01801e-05 -0.00431476 235.116 235.116 1000.56 
113 1 1 0.045022 0.0325793 0.00997479 0 0 0 -0.043204 -0.0186548 0.00222996 0.00403434 0.0025774 0.00131349 -0.043204 -0.0186548 0.00222996 367.434 367.434 1000.87 
114 1 1 0.0503021 0.0211667 0.0099791 0 0 0 0.0283431 -0.0304958 -0.00204057 0.0105745 0.00111072 -0.00296629 0.0283431 -0.0304958 -0.00204057 328.073 328.073 1000.78 
115 1 1 0.0914377 0.0224538 0.0210173 0 0 0 -0.0717977 0.0693592 0.0270652 0.00068239 -0.000895026 0.000298704 -0.0717977 0.0693592 0.0270652 363.091 363.091 1000.86 
116 1 1 0.102775 0.0415006 0.00998245 0 0 0 -0.0566829 0.0415067 0.000598273 8.12648e-05 0.00526481 -0.00824692 -0.0566829 0.0415067 0.000598273 413.135 413.135 1000.98 
117 1 1 0.168381 0.0301927 0.0256352 0 0 0 0.059375 -0.00188017 -0.00405975 -0.00149146 0.000821317 0.00502292 0.059375 -0.00188017 -0.00405975 459.164 459.164 1001.09 
118 1 1 0.18331 0.0223147 0.022038 0 0 0 0.100159 0.00346408 -0.00589696 0.000703906 -0.0011643 0.00293641 0.100159 0.00346408 -0.00589696 497.821 497.821 1001.18 
119 1 1 0.154205 0.0236425 0.00997485 0 0 0 0.014576 -0.0460239 -0.00455347 -0.00969859 -0.00420524 -0.00589066 0.014576 -0.0460239 -0.00455347 504.037 504.037 1001.2 
120 1 1 0.196913 0.021539 0.0187477 0 0 0 0.0729325 0.00558505 0.0712171 -0.000917142 -0.00208247 0.00458889 0.0729325 0.00558505 0.0712171 583.584 583.584 1001.38 
121 1 1 0.00997515 0.0412335 0.00997456 0 0 0 0.00915145 -0.00258783 0.00520651 0.0113497 0.00149135 0.00389378 0.00915145 -0.00258783 0.00520651 468.36 468.36 1001.11 
122 1 1 0.0223425 0.0359737 0.00997952 0 0 0 -0.0247979 0.0037876 -0.00613212 -0.00154744 0.00171964 -0.000301339 -0.0247979 0.0037876 -0.00613212 469.808 469.808 1001.11 
123 1 1 0.0340896 0.0280033 0.00997289 0 0 0 -0.020459 -0.00766125 -0.00697755 -0.00027069 0.00298399 -0.000836421 -0.020459 -0.00766125 -0.00697755 493.66 493.66 1001.17 
124 1 1 0.0693215 0.0298634 0.00998266 0 0 0 0.013878 -0.00775389 0.0042675 -0.00330654 -0.00448196 -0.00795473 0.013878 -0.00775389 0.0042675 338.684 338.684 1000.8 
125 1 1 0.0813294 0.0408802 0.00997623 0 0 0 0.000364917 0.0250159 0.00443724 -0.00174643 -0.00163721 -0.00299501 0.000364917 0.0250159 0.00443724 375.894 375.894 1000.89 
126 1 1 0.115576 0.0354698 0.00997247 0 0 0 0.0683571 0.0174507 -0.00289296 0.00241619 -0.00178392 -0.00158178 0.0683571 0.0174507 -0.00289296 464.381 464.381 1001.1 
127 1 1 0.147011 0.0381951 0.00997827 0 0 0 0.0576186 -0.0669629 -0.00878745 -0.00491232 0.00277751 -0.00758216 0.0576186 -0.0669629 -0.00878745 417.87 417.87 1000.99 
128 1 1 0.142717 0.0337902 0.0099759 0 0 0 0.0149393 -0.0167845 -0.00738973 -0.000606447 0.00169946 -0.00493409 0.0149393 -0.0167845 -0.00738973 487.935 487.935 1001.16 
129 1 1 0.14215 0.0206843 0.00997006 0 0 0 -0.0765558 -0.0414381 -0.00875833 -0.00666463 0.0010354 8.91037e-05 -0.0765558 -0.0414381 -0.00875833 482.318 482.318 1001.14 
130 1 1 0.180162 0.0301752 0.00996341 0 0 0 0.0063462 0.0067357 -0.00509556 0.00100011 -0.000826171 0.00167987 0.0063462 0.0067357 -0.00509556 606.861 606.861 1001.44 
131 1 1 0.00999641 0.049994 0.0099742 0 0 0 -0.00976189 -0.000410024 -0.00134359 -0.00899439 -0.000246402 0.00575255 -0.00976189 -0.000410024 -0.00134359 392.922 392.922 1000.93 
132 1 1 0.0227532 0.0500055 0.00998291 0 0 0 0.0472449 -2.07925e-05 -0.00185308 -0.00251347 -0.000234462 -0.000564406 0.0472449 -2.07925e-05 -0.00185308 432.97 432.97 1001.03 
133 1 1 0.0418267 0.0500018 0.00999837 0 0 0 0.00986127 4.4088e-05 -0.00719737 0.0010248 -0.000103063 -0.0167756 0.00986127 4.4088e-05 -0.00719737 393.584 393.584 1000.93 
134 1 1 0.0784592 0.0500008 0.00997352 0 0 0 -0.0376116 -9.02357e-05 0.00706316 -0.00122593 -6.84266e-05 0.000403794 -0.0376116 -9.02357e-05 0.00706316 354.426 354.426 1000.84 
135 1 1 0.119893 0.0500004 0.00997853 0 0 0 0.035114 -4.15859e-05 0.00352867 -0.0035373 -0.000149097 -0.00609611 0.035114 -4.15859e-05 0.00352867 364.334 364.334 1000.87 
136 1 1 0.133314 0.0500002 0.0193881 0 0 0 0.00019072 -8.38767e-06 0.0201561 -0.00243501 -0.000120362 -0.00407708 0.00019072 -8.38767e-06 0.0201561 346.493 346.493 1000.82 
137 1 1 0.164297 0.05 0.0220345 0 0 0 0.0385932 7.23866e-06 -0.00988526 -0.00384838 -5.29913e-05 0.00170053 0.0385932 7.23866e-06 -0.00988526 458.949 458.949 1001.09 
138 1 1 0.132634 0.0500003 0.00998231 0 0 0 0.0693079 5.69333e-07 -0.0118117 -0.00101383 -0.000128136 -0.0106525 0.0693079 5.69333e-07 -0.0118117 343.433 343.433 1000.82 
139 1 1 0.153478 0.0500002 0.00996942 0 0 0 -0.0228597 1.37471e-05 -0.0064269 -0.00530471 -7.39239e-05 -0.00262157 -0.0228597 1.37471e-05 -0.0064269 507.509 507.509 1001.2 
140 1 1 0.204764 0.05 0.0250191 0 0 0 0.130579 4.32821e-06 -0.0164765 0.000883011 -9.90435e-06 0.00585936 0.130579 4.32821e-06 -0.0164765 455.458 455.458 1001.08 
141 1 1 0.00997451 0.058765 0.00997236 0 0 0 0.0105221 0.00177842 0.00580865 0.0118441 -0.00189697 0.00585196 0.0105221 0.00177842 0.00580865 478.19 478.19 1001.13 
142 1 1 0.0223394 0.0640336 0.00997881 0 0 0 -0.0239243 -0.00409916 -0.0057217 -0.00142113 -0.00205953 0.00021163 -0.0239243 -0.00409916 -0.0057217 476.305 476.305 1001.13 
143 1 1 0.034087 0.072005 0.00997319 0 0 0 -0.0198816 0.00855412 -0.00687139 0.000283672 -0.00263626 -0.00122072 -0.0198816 0.00855412 -0.00687139 498.5 498.5 1001.18 
144 1 1 0.0693211 0.0701388 0.00998249 0 0 0 0.0137607 0.00754111 0.00462248 -0.00364365 0.00454602 -0.00767645 0.0137607 0.00754111 0.00462248 336.823 336.823 1000.8 
145 1 1 0.0813289 0.059121 0.00997617 0 0 0 0.000225819 -0.0252299 0.00455167 -0.0018455 0.00151231 -0.00299347 0.000225819 -0.0252299 0.00455167 377.821 377.821 1000.9 
146 1 1 0.115575 0.0645308 0.00997238 0 0 0 0.0684818 -0.0175503 -0.00278894 0.00247433 0.00159921 -0.00169472 0.0684818 -0.0175503 -0.00278894 469.194 469.194 1001.11 
147 1 1 0.147011 0.0618055 0.00997825 0 0 0 0.0575894 0.0670214 -0.00876757 -0.00486177 -0.00294221 -0.00765847 0.0575894 0.0670214 -0.00876757 420.281 420.281 1001 
148 1 1 0.142716 0.0662103 0.00997586 0 0 0 0.0149347 0.0168716 -0.00737113 -0.000573322 -0.00182195 -0.0050269 0.0149347 0.0168716 -0.00737113 491.582 491.582 1001.17 
149 1 1 0.14215 0.0793154 0.00996992 0 0 0 -0.0763616 0.0415349 -0.00876073 -0.00670055 -0.00118425 1.67346e-05 -0.0763616 0.0415349 -0.00876073 487.712 487.712 1001.16 
150 1 1 0.180162 0.0698249 0.00996337 0 0 0 0.00631088 -0.00661621 -0.00514091 0.00105065 0.000760316 0.00163352 0.00631088 -0.00661621 -0.00514091 608.761 608.761 1001.44 
151 1 1 0.00998136 0.0691403 0.00998091 0 0 0 0.00656962 -0.000300368 -0.000627564 0.00167858 0.0013166 -0.00128978 0.00656962 -0.000300368 -0.000627564 469.443 469.443 1001.11 
152 1 1 0.0203756 0.0779417 0.0261039 0 0 0 -0.0403775 -0.000385142 -0.000420833 0.000165886 0.00229387 0.00159178 -0.0403775 -0.000385142 -0.000420833 259.402 259.402 1000.62 
153 1 1 0.0450204 0.0674227 0.00997479 0 0 0 -0.0435735 0.0192891 0.00272339 0.0041618 -0.00242193 0.00131726 -0.0435735 0.0192891 0.00272339 371.104 371.104 1000.88 
154 1 1 0.0503049 0.0788302 0.00997901 0 0 0 0.0272439 0.0302773 -0.00172396 0.0105696 -0.00116479 -0.00284142 0.0272439 0.0302773 -0.00172396 330.07 330.07 1000.78 
155 1 1 0.0914372 0.0775472 0.0210168 0 0 0 -0.0717193 -0.0694521 0.0272309 0.00055137 0.000630696 0.000605211 -0.0717193 -0.0694521 0.0272309 369.402 369.402 1000.88 
156 1 1 0.102775 0.0585004 0.00998239 0 0 0 -0.0566545 -0.0417216 0.000649189 3.88352e-05 -0.00552296 -0.00828805 -0.0566545 -0.0417216 0.000649189 415.558 415.558 1000.99 
157 1 1 0.168381 0.0698076 0.0256351 0 0 0 0.0594414 0.00194787 -0.00408752 -0.00145741 -0.000923153 0.00513016 0.0594414 0.00194787 -0.00408752 461.018 461.018 1001.09 
158 1 1 0.18331 0.0776854 0.0220379 0 0 0 0.100094 -0.00336532 -0.00599248 0.000771614 0.00113837 0.00298243 0.100094 -0.00336532 -0.00599248 500.37 500.37 1001.19 
159 1 1 0.154205 0.0763576 0.00997472 0 0 0 0.014574 0.046218 -0.00461472 -0.00965837 0.00415776 -0.00595351 0.014574 0.046218 -0.00461472 508.478 508.478 1001.21 
160 1 1 0.196913 0.0784611 0.0187477 0 0 0 0.0728184 -0.00554847 0.0711772 -0.000845012 0.00207894 0.00460507 0.0728184 -0.00554847 0.0711772 585.051 585.051 1001.39 
161 1 1 0.00996981 0.0824816 0.0242547 0 0 0 0.00561844 -0.0181823 0.0550843 0.0200429 0.00131638 -0.00465427 0.00561844 -0.0181823 0.0550843 314.871 314.871 1000.75 
162 1 1 0.0206459 0.0782441 0.00998708 0 0 0 -0.0472285 -0.0178485 -0.00363567 -0.00229077 -0.000533385 -0.00628021 -0.0472285 -0.0178485 -0.00363567 565.303 565.303 1001.34 
163 1 1 0.0499252 0.078675 0.022891 0 0 0 -0.0788953 0.00194262 0.0131239 0.00360387 0.000134921 7.681e-05 -0.0788953 0.00194262 0.0131239 244.195 244.195 1000.58 
164 1 1 0.090974 0.0762845 0.028359 0 0 0 -0.0436899 -0.0130667 0.0124394 -0.0016569 0.00185214 -0.000140745 -0.0436899 -0.0130667 0.0124394 275.005 275.005 1000.65 
165 1 1 0.127545 0.0807555 0.042106 0 0 0 0.0364286 -0.0230582 0.0241509 -0.00150783 0.00129661 0.00149934 0.0364286 -0.0230582 0.0241509 60.9023 60.9023 1000.14 
166 1 1 0.127889 0.0799912 0.0106956 0 0 0 -0.0522504 -0.0265698 -0.0289273 -0.00361146 -0.00328205 -0.0314907 -0.0522504 -0.0265698 -0.0289273 202.792 202.792 1000.48 
167 1 1 0.172044 0.078414 0.0188364 0 0 0 0.0862998 0.052939 -0.0198452 0.00055758 -0.00061827 0.00722951 0.0862998 0.052939 -0.0198452 557.327 557.327 1001.32 
168 1 1 0.136985 0.075042 0.00995584 0 0 0 0.0795765 -0.0423084 -0.00630442 -0.0115988 0.00679246 0.0138605 0.0795765 -0.0423084 -0.00630442 483.851 483.851 1001.15 
169 1 1 0.188352 0.0760916 0.0241782 0 0 0 0.0619223 -0.0194881 -0.0429404 -4.97008e-06 0.00110781 0.00222056 0.0619223 -0.0194881 -0.0429404 482.887 482.887 1001.15 
170 1 1 0.186105 0.0777409 0.00996699 0 0 0 0.0470933 0.0595401 -0.0035073 0.000954316 -0.00147215 -0.000511028 0.0470933 0.0595401 -0.0035073 562.361 562.361 1001.33 
171 1 1 0.0100044 0.09002 0.0100057 0 0 0 0.015038 -0.00476694 -0.00974757 -0.0255231 -0.00932209 -0.0270602 0.015038 -0.00476694 -0.00974757 460.089 460.089 1001.09 
172 1 1 0.0217583 0.090018 0.00999938 0 0 0 0.00801361 -0.000805572 -0.00543395 -0.00531725 0.000763818 -0.0124599 0.00801361 -0.000805572 -0.00543395 572.27 572.27 1001.36 
173 1 1 0.0380566 0.0900323 0.00997848 0 0 0 0.00399791 0.0236729 0.00439473 4.60151e-06 -0.00948168 -0.00141906 0.00399791 0.0236729 0.00439473 515.156 515.156 1001.22 
174 1 1 0.0492576 0.0900223 0.00999331 0 0 0 -0.052843 -0.00505521 -0.00177886 0.00875783 -0.00703071 -0.0142732 -0.052843 -0.00505521 -0.00177886 494.244 494.244 1001.17 
175 1 1 0.0792101 0.0900204 0.00998805 0 0 0 -0.0226738 -0.00777345 -0.0100137 -0.00893135 -0.0096558 -0.0120246 -0.0226738 -0.00777345 -0.0100137 398.152 398.152 1000.95 
176 1 1 0.106682 0.0900081 0.00996393 0 0 0 -0.0610231 0.00478296 -0.0032201 0.000733051 0.00712079 0.00902005 -0.0610231 0.00478296 -0.0032201 435.525 435.525 1001.03 