ITEM: TIMESTEP
98000
ITEM: NUMBER OF ATOMS
2655
ITEM: BOX BOUNDS ff ff ff
0 0.5
0 0.1
0 0.5
ITEM: ATOMS id type type x y z ix iy iz vx vy vz fx fy fz vx vy vz p p rho 
1 1 1 0.00996995 0.00998691 0.00997851 0 0 0 -0.00621276 0.00698601 0.0151947 0.00316886 -0.00334498 0.00879819 -0.00621276 0.00698601 0.0151947 721.273 721.273 1001.71 
2 1 1 0.0267022 0.00997443 0.00997163 0 0 0 -0.0161657 -0.0003617 0.00159547 -0.00159434 0.00394011 0.0172588 -0.0161657 -0.0003617 0.00159547 673.367 673.367 1001.6 
3 1 1 0.0224582 0.00998338 0.00998423 0 0 0 0.0161296 0.00197209 -0.0147492 -0.000192079 -0.00369124 0.0035114 0.0161296 0.00197209 -0.0147492 640.142 640.142 1001.52 
4 1 1 0.0568064 0.00998087 0.0099752 0 0 0 -0.00339624 -0.00227709 0.00577791 -1.60855e-05 -0.00367692 0.0133338 -0.00339624 -0.00227709 0.00577791 614.165 614.165 1001.46 
5 1 1 0.0608697 0.00997507 0.00998387 0 0 0 0.00626712 0.00323486 0.0234492 0.00149923 0.00181989 0.00501093 0.00626712 0.00323486 0.0234492 655.161 655.161 1001.55 
6 1 1 0.0780526 0.00997756 0.0100046 0 0 0 -0.00966918 -0.00331917 0.00367025 -0.000426563 0.00101929 -0.0286137 -0.00966918 -0.00331917 0.00367025 603.476 603.476 1001.43 
7 1 1 0.0907909 0.00998125 0.00998689 0 0 0 0.00471828 -0.00266675 -0.00545608 0.00144192 -0.00272903 0.000378744 0.00471828 -0.00266675 -0.00545608 572.906 572.906 1001.36 
8 1 1 0.0997137 0.00997973 0.00997223 0 0 0 0.00603306 -0.000131174 -0.00960425 -0.00219251 -0.00242427 0.0148088 0.00603306 -0.000131174 -0.00960425 575.235 575.235 1001.36 
9 1 1 0.107833 0.00997901 0.009991 0 0 0 0.0118082 0.00318924 0.0125067 0.00067718 -0.00271684 -0.00304944 0.0118082 0.00318924 0.0125067 626.911 626.911 1001.49 
10 1 1 0.121028 0.00997939 0.00999784 0 0 0 0.0181204 -0.00119221 -0.00890746 -0.0013872 -0.00184192 -0.0105128 0.0181204 -0.00119221 -0.00890746 577.357 577.357 1001.37 
11 1 1 0.00997335 0.0211436 0.00998618 0 0 0 0.00200433 -0.010586 -0.0132251 0.00149453 0.0059308 0.000289229 0.00200433 -0.010586 -0.0132251 713.927 713.927 1001.69 
12 1 1 0.0261875 0.0324063 0.0099853 0 0 0 -0.0219565 -0.0509904 -0.00219978 -0.00153377 0.000460068 0.000881653 -0.0219565 -0.0509904 -0.00219978 598.089 598.089 1001.42 
13 1 1 0.0218664 0.0218934 0.00998686 0 0 0 -0.0677078 0.0104431 -0.00251542 -0.00723044 0.00262274 0.000283189 -0.0677078 0.0104431 -0.00251542 580.619 580.619 1001.38 
14 1 1 0.0752691 0.022702 0.00998195 0 0 0 -0.0217107 0.00617373 0.00212994 0.000240191 -0.000570717 0.00245553 -0.0217107 0.00617373 0.00212994 579.074 579.074 1001.37 
15 1 1 0.0642368 0.0229204 0.00998683 0 0 0 -0.0265996 -0.0195701 -0.000686533 0.00069322 -4.85968e-05 -0.0011041 -0.0265996 -0.0195701 -0.000686533 591.565 591.565 1001.4 
16 1 1 0.0868649 0.0226434 0.00998452 0 0 0 -0.0250091 -0.00138215 0.000826371 -0.000256209 -0.000491086 0.00118664 -0.0250091 -0.00138215 0.000826371 584.264 584.264 1001.39 
17 1 1 0.0898312 0.0426157 0.00998207 0 0 0 -0.0344036 -0.00419043 -0.000527502 2.41095e-05 -0.00117335 0.00194872 -0.0344036 -0.00419043 -0.000527502 558.348 558.348 1001.32 
18 1 1 0.115929 0.0317187 0.00998465 0 0 0 -0.00507394 -0.0227185 0.000282432 -0.000435487 -0.000844382 0.000478809 -0.00507394 -0.0227185 0.000282432 616.26 616.26 1001.46 
19 1 1 0.0981008 0.0228364 0.00998591 0 0 0 -0.0328258 0.019568 0.00148088 -0.00152615 -0.00104492 -0.000401445 -0.0328258 0.019568 0.00148088 606.757 606.757 1001.44 
20 1 1 0.132863 0.0219676 0.00998152 0 0 0 -0.0181507 0.00920492 -0.0024694 -0.00167625 0.000805108 0.00391664 -0.0181507 0.00920492 -0.0024694 607.372 607.372 1001.44 
21 1 1 0.00997403 0.0271171 0.00998428 0 0 0 0.00114856 0.0272954 -0.00312702 0.00200549 -0.00234139 0.00208588 0.00114856 0.0272954 -0.00312702 725.53 725.53 1001.72 
22 1 1 0.0349484 0.0354182 0.0099847 0 0 0 -0.0178903 -0.0173356 5.74366e-05 -0.00097993 0.000585455 0.00103042 -0.0178903 -0.0173356 5.74366e-05 575.089 575.089 1001.36 
23 1 1 0.0521749 0.0435497 0.00998477 0 0 0 -0.0357214 -0.0139715 0.00172548 0.00025431 3.30325e-05 0.00138138 -0.0357214 -0.0139715 0.00172548 546.017 546.017 1001.29 
24 1 1 0.0718298 0.0321151 0.00998309 0 0 0 -0.0070537 -0.00354208 -0.00086261 0.00105591 -0.000504282 0.00109211 -0.0070537 -0.00354208 -0.00086261 584.607 584.607 1001.39 
25 1 1 0.0957275 0.0367109 0.00998597 0 0 0 -0.0173391 0.0165323 -0.000971795 -0.00113912 0.000396962 -0.00168879 -0.0173391 0.0165323 -0.000971795 565.518 565.518 1001.34 
26 1 1 0.0921539 0.022964 0.00998367 0 0 0 -0.0214312 -0.00549366 0.00133991 7.01947e-05 -0.000157065 0.00217913 -0.0214312 -0.00549366 0.00133991 587.4 587.4 1001.39 
27 1 1 0.116002 0.0437939 0.00998433 0 0 0 -0.0290471 0.0116687 0.000107917 -0.000616662 -0.000187949 -8.13775e-05 -0.0290471 0.0116687 0.000107917 570.213 570.213 1001.35 
28 1 1 0.0917793 0.031808 0.00998569 0 0 0 -0.026175 0.031579 -0.0014525 0.00010849 -0.000960721 -0.00128128 -0.026175 0.031579 -0.0014525 570.495 570.495 1001.35 
29 1 1 0.121149 0.0222917 0.00998662 0 0 0 -0.0279206 0.00231123 -0.000567212 -0.00026453 -0.000827337 -0.00169958 -0.0279206 0.00231123 -0.000567212 592.013 592.013 1001.4 
30 1 1 0.128447 0.0326244 0.00998233 0 0 0 -0.0325151 -0.0350029 -0.000822398 0.000306535 -0.00133972 0.00222883 -0.0325151 -0.0350029 -0.000822398 588.968 588.968 1001.4 
31 1 1 0.00997417 0.0385981 0.0099874 0 0 0 0.00151354 0.00864675 -0.000161677 0.00130586 -0.00212221 -0.00234219 0.00151354 0.00864675 -0.000161677 645.005 645.005 1001.53 
32 1 1 0.0231286 0.0415561 0.00998386 0 0 0 -0.0143004 -0.0113643 -0.000697929 -0.00184164 0.000512344 0.00020699 -0.0143004 -0.0113643 -0.000697929 525.137 525.137 1001.25 
33 1 1 0.0464502 0.0376147 0.00998496 0 0 0 -0.0120119 0.00330448 0.00141367 -0.00124874 0.000690114 0.00188012 -0.0120119 0.00330448 0.00141367 569.416 569.416 1001.35 
34 1 1 0.0613959 0.0373394 0.00998388 0 0 0 -0.0363389 -0.00357031 -0.000666468 -0.000174823 0.000443305 0.000670078 -0.0363389 -0.00357031 -0.000666468 552.738 552.738 1001.31 
35 1 1 0.0659584 0.0415714 0.00998332 0 0 0 -0.0185455 -0.000120765 -0.000167908 0.000831198 0.000338622 0.000116154 -0.0185455 -0.000120765 -0.000167908 550.089 550.089 1001.3 
36 1 1 0.0821038 0.0313657 0.0099866 0 0 0 -0.023028 0.0036773 -0.000513554 -8.04512e-05 -0.000751901 -0.00222313 -0.023028 0.0036773 -0.000513554 591.922 591.922 1001.4 
37 1 1 0.106243 0.0366438 0.00998534 0 0 0 -0.0260697 -0.0193621 -0.000200589 -0.000651832 0.000210078 -0.0013953 -0.0260697 -0.0193621 -0.000200589 578.069 578.069 1001.37 
38 1 1 0.112155 0.0375712 0.00998509 0 0 0 -0.00774769 -0.0212123 -0.000371482 -0.000574384 0.000513634 -0.000189394 -0.00774769 -0.0212123 -0.000371482 576.7 576.7 1001.37 
39 1 1 0.13185 0.0413629 0.00998419 0 0 0 -0.0253118 -0.0120353 -0.000695803 -0.00117194 -8.4582e-05 -0.000571427 -0.0253118 -0.0120353 -0.000695803 574.064 574.064 1001.36 
40 1 1 0.143897 0.0361391 0.00998449 0 0 0 -0.0152432 0.00217682 -0.00359941 0.000163193 -0.000460052 -0.00131811 -0.0152432 0.00217682 -0.00359941 577.52 577.52 1001.37 
41 1 1 0.00997919 0.0526018 0.00998008 0 0 0 -0.00199369 -0.0408641 0.00224039 -0.00228028 0.000316802 0.00598254 -0.00199369 -0.0408641 0.00224039 585.733 585.733 1001.39 
42 1 1 0.0297652 0.0508008 0.00998492 0 0 0 -0.0563772 0.0200681 0.000200463 -0.000912865 0.000997295 -0.000769795 -0.0563772 0.0200681 0.000200463 557.271 557.271 1001.32 
43 1 1 0.0438656 0.0522009 0.00998713 0 0 0 -0.0319107 -0.00983978 -0.00111576 -0.00035817 -7.97491e-05 -0.00125433 -0.0319107 -0.00983978 -0.00111576 540.77 540.77 1001.28 
44 1 1 0.063045 0.0491352 0.00998491 0 0 0 -0.0346865 -0.0177209 -0.000269774 0.000457681 -0.000135562 -0.000761084 -0.0346865 -0.0177209 -0.000269774 545.445 545.445 1001.29 
45 1 1 0.0755644 0.0496558 0.00998508 0 0 0 -0.0452846 -0.00605315 0.000195341 0.000371766 -3.87579e-05 -0.000822218 -0.0452846 -0.00605315 0.000195341 538.801 538.801 1001.28 
46 1 1 0.0819332 0.0502787 0.0099869 0 0 0 -0.0288891 0.00476738 0.000707672 -0.000152558 2.3104e-05 -0.00227777 -0.0288891 0.00476738 0.000707672 552.036 552.036 1001.31 
47 1 1 0.0892019 0.0495064 0.00998216 0 0 0 -0.0346233 -0.00614038 -3.23701e-05 -0.0014293 -0.000434661 0.00248813 -0.0346233 -0.00614038 -3.23701e-05 559.26 559.26 1001.33 
48 1 1 0.111905 0.0499488 0.00998479 0 0 0 -0.00797397 0.00524901 -0.000792166 2.9863e-05 7.62369e-05 -0.00154483 -0.00797397 0.00524901 -0.000792166 563.711 563.711 1001.34 
49 1 1 0.101326 0.048998 0.0099816 0 0 0 -0.0229557 -0.023723 -0.000769555 -0.000648994 -0.000435257 0.0012874 -0.0229557 -0.023723 -0.000769555 560.905 560.905 1001.33 
50 1 1 0.135268 0.0500657 0.00998258 0 0 0 -0.0414712 6.91891e-05 -0.000574471 0.00058516 -0.00019321 0.000778179 -0.0414712 6.91891e-05 -0.000574471 578.454 578.454 1001.37 
51 1 1 0.00997423 0.0612966 0.00999056 0 0 0 0.00204981 0.0117099 -0.000301989 0.00118239 0.00533342 -0.00485802 0.00204981 0.0117099 -0.000301989 609.821 609.821 1001.45 
52 1 1 0.0219856 0.0599215 0.00998308 0 0 0 0.0177174 0.00939939 -9.78859e-05 -0.000988677 -0.000508482 0.00160425 0.0177174 0.00939939 -9.78859e-05 542.497 542.497 1001.29 
53 1 1 0.0471425 0.0619411 0.00998384 0 0 0 0.0182735 0.00210974 0.00138356 -0.000968002 0.000142453 0.00167646 0.0182735 0.00210974 0.00138356 553.601 553.601 1001.31 
54 1 1 0.0620656 0.0622957 0.00998446 0 0 0 -0.0144989 0.00594126 -0.000164848 -7.20312e-05 -0.000246377 0.000198971 -0.0144989 0.00594126 -0.000164848 542.112 542.112 1001.29 
55 1 1 0.0660969 0.0582344 0.00998446 0 0 0 -0.0154533 0.000660627 0.000462149 0.000574244 -0.000223293 -1.13575e-05 -0.0154533 0.000660627 0.000462149 545.957 545.957 1001.29 
56 1 1 0.0824344 0.0685139 0.0099872 0 0 0 -0.0157799 -0.00441946 -0.000187844 0.000111766 0.000498324 -0.00287503 -0.0157799 -0.00441946 -0.000187844 591.219 591.219 1001.4 
57 1 1 0.106048 0.0629237 0.00998482 0 0 0 -0.0276975 0.0150589 1.74044e-05 -0.00060264 -1.90638e-05 -0.00117843 -0.0276975 0.0150589 1.74044e-05 573.354 573.354 1001.36 
58 1 1 0.11229 0.062603 0.00998454 0 0 0 -0.00941054 0.0293143 -0.000313142 -0.000835522 -0.000347499 0.000267833 -0.00941054 0.0293143 -0.000313142 574.363 574.363 1001.36 
59 1 1 0.131959 0.0588137 0.00998337 0 0 0 -0.0254411 0.0189297 -0.000546164 -0.00142646 0.0001305 0.000143054 -0.0254411 0.0189297 -0.000546164 574.705 574.705 1001.36 
60 1 1 0.143065 0.0646392 0.009984 0 0 0 -0.0213366 0.00451213 -0.00388434 2.7288e-05 0.000273235 -0.00088389 -0.0213366 0.00451213 -0.00388434 582.529 582.529 1001.38 
61 1 1 0.00997639 0.0726618 0.00998038 0 0 0 6.07412e-05 -0.0313318 0.00326337 0.00124893 -0.00530221 0.00361636 6.07412e-05 -0.0313318 0.00326337 654.627 654.627 1001.55 
62 1 1 0.0355951 0.0642771 0.00998567 0 0 0 -0.00241504 0.0343893 0.000660895 -0.00116107 0.000933425 0.000209714 -0.00241504 0.0343893 0.000660895 558.698 558.698 1001.32 
63 1 1 0.0539066 0.0567927 0.00998477 0 0 0 -0.0220265 0.0145523 0.00175238 -0.000143437 0.000789774 0.000608304 -0.0220265 0.0145523 0.00175238 549.92 549.92 1001.3 
64 1 1 0.0719041 0.0678754 0.0099848 0 0 0 -0.0132028 0.0120889 -0.00129041 0.000363816 0.000483538 -0.000344787 -0.0132028 0.0120889 -0.00129041 574.619 574.619 1001.36 
65 1 1 0.0958377 0.0633407 0.00998533 0 0 0 -0.00556486 -0.0115984 -0.000632865 -0.0005614 3.45795e-05 -0.00129601 -0.00556486 -0.0115984 -0.000632865 563.409 563.409 1001.34 
66 1 1 0.0919523 0.0770366 0.00998433 0 0 0 -0.0304416 0.0105466 0.00155579 -0.000334575 -0.00115033 0.00152298 -0.0304416 0.0105466 0.00155579 589.722 589.722 1001.4 
67 1 1 0.115806 0.056224 0.00998367 0 0 0 -0.0225879 -0.0124149 0.000240495 -0.000529831 0.000329405 0.000526518 -0.0225879 -0.0124149 0.000240495 573.553 573.553 1001.36 
68 1 1 0.0919899 0.0681353 0.00998484 0 0 0 -0.0264517 -0.0255386 -0.00129433 0.000576402 0.000743061 -0.000562394 -0.0264517 -0.0255386 -0.00129433 565.171 565.171 1001.34 
69 1 1 0.120942 0.0777028 0.00998542 0 0 0 -0.0292893 -0.00305721 -0.0024926 -0.000290979 0.000139897 -0.000699237 -0.0292893 -0.00305721 -0.0024926 604.716 604.716 1001.43 
70 1 1 0.128735 0.0670342 0.00998224 0 0 0 -0.0294645 0.0239512 -0.000760947 0.000309403 0.000351246 0.00224083 -0.0294645 0.0239512 -0.000760947 588.034 588.034 1001.39 
71 1 1 0.0099793 0.0788827 0.00997646 0 0 0 0.000139093 0.0136117 -0.00390004 -0.000978877 0.00767027 0.00833346 0.000139093 0.0136117 -0.00390004 605.678 605.678 1001.44 
72 1 1 0.0273527 0.0656189 0.00998525 0 0 0 0.0131569 0.0192025 -0.000419826 -0.000125237 -5.51685e-05 0.000719095 0.0131569 0.0192025 -0.000419826 563.776 563.776 1001.34 
73 1 1 0.0221122 0.0781667 0.0099866 0 0 0 -0.0914587 -0.0106585 -0.00340056 -0.0111885 -0.000252185 -0.00218915 -0.0914587 -0.0106585 -0.00340056 559.855 559.855 1001.33 
74 1 1 0.0752627 0.0767943 0.00998247 0 0 0 -0.0283351 -0.0081608 0.00291899 -0.000157219 0.00206654 0.00170887 -0.0283351 -0.0081608 0.00291899 593.128 593.128 1001.41 
75 1 1 0.0641904 0.0766525 0.00998681 0 0 0 -0.031572 0.0204085 -0.00086257 -0.000297237 0.00114472 -0.00133281 -0.031572 0.0204085 -0.00086257 589.28 589.28 1001.4 
76 1 1 0.086759 0.0773596 0.00998483 0 0 0 -0.0304877 0.00349341 0.000296402 -0.00122135 0.000639755 0.000954604 -0.0304877 0.00349341 0.000296402 587.777 587.777 1001.39 
77 1 1 0.0897602 0.0570394 0.00998189 0 0 0 -0.0364849 0.000755923 -0.000144227 9.36238e-06 0.00117852 0.00202293 -0.0364849 0.000755923 -0.000144227 566.013 566.013 1001.34 
78 1 1 0.116249 0.0682875 0.00998519 0 0 0 -0.000318498 0.0275195 -0.000486289 -0.000750516 0.000506345 -0.00035724 -0.000318498 0.0275195 -0.000486289 609.248 609.248 1001.44 
79 1 1 0.0979011 0.0771734 0.00998501 0 0 0 -0.037149 -0.0185108 0.000367697 -0.00136646 -0.000958861 9.39148e-06 -0.037149 -0.0185108 0.000367697 604.528 604.528 1001.43 
80 1 1 0.132734 0.0780223 0.00997927 0 0 0 -0.0187036 -0.0123118 -0.00268457 -0.00141738 -0.00121595 0.0058347 -0.0187036 -0.0123118 -0.00268457 621.106 621.106 1001.47 
81 1 1 0.00996722 0.0899993 0.00998822 0 0 0 0.00125301 0.00774584 -0.00475714 0.00833273 0.0284687 0.000512102 0.00125301 0.00774584 -0.00475714 588.949 588.949 1001.4 
82 1 1 0.0267683 0.0900213 0.00996671 0 0 0 -0.00190499 -0.00657687 -0.0115935 0.000222268 -0.00128854 0.0199854 -0.00190499 -0.00657687 -0.0115935 574.437 574.437 1001.36 
83 1 1 0.0224958 0.0900192 0.00999994 0 0 0 0.0116375 -0.00121206 -0.00445391 3.22383e-05 -0.000891869 -0.0135909 0.0116375 -0.00121206 -0.00445391 582.538 582.538 1001.38 
84 1 1 0.0568129 0.0900169 0.00998703 0 0 0 0.00132917 -0.00175061 -0.00939097 0.000687857 0.00528794 0.0014145 0.00132917 -0.00175061 -0.00939097 544.562 544.562 1001.29 
85 1 1 0.061064 0.0900222 0.00998157 0 0 0 0.00344105 0.00106486 -0.0100185 0.000607864 0.000118577 0.00664454 0.00344105 0.00106486 -0.0100185 534.336 534.336 1001.27 
86 1 1 0.0780993 0.0900235 0.010005 0 0 0 -0.0105282 -0.000653463 0.00503976 -0.00148313 -0.00194049 -0.0287391 -0.0105282 -0.000653463 0.00503976 580.929 580.929 1001.38 
87 1 1 0.0909185 0.0900168 0.0100013 0 0 0 0.00642744 0.00319041 0.0105166 -0.00368807 0.00491797 -0.0298892 0.00642744 0.00319041 0.0105166 616.117 616.117 1001.46 
88 1 1 0.099629 0.0900239 0.00997045 0 0 0 0.0134213 -7.11526e-05 -0.00740368 -0.00155472 -0.00121641 0.0164562 0.0134213 -7.11526e-05 -0.00740368 618.401 618.401 1001.47 
89 1 1 0.10782 0.0900202 0.00997081 0 0 0 0.0159557 0.000546651 -0.00231618 0.00172765 0.00341717 0.0166106 0.0159557 0.000546651 -0.00231618 624.778 624.778 1001.48 
90 1 1 0.120908 0.0900193 0.00999349 0 0 0 0.0214699 0.00253848 -0.0212333 -0.000328248 0.00352751 -0.00610112 0.0214699 0.00253848 -0.0212333 569.607 569.607 1001.35 
91 1 1 0.00997427 0.00998669 0.00999627 0 0 0 -0.000322586 -0.00192855 0.0262113 -0.0013052 -0.00317297 -0.00857897 -0.000322586 -0.00192855 0.0262113 738.787 738.787 1001.75 
92 1 1 0.0199525 0.00997944 0.00997191 0 0 0 0.0190055 0.00495921 -0.00145126 -0.000861113 0.000869243 0.0151654 0.0190055 0.00495921 -0.00145126 648.244 648.244 1001.54 
93 1 1 0.0312614 0.00998195 0.00998394 0 0 0 0.0177368 -0.0033292 0.0199946 -8.37386e-05 -0.00444717 0.00570608 0.0177368 -0.0033292 0.0199946 699.323 699.323 1001.66 
94 1 1 0.0398547 0.00997704 0.00996858 0 0 0 -0.00575549 -0.00121636 0.0093401 0.00193953 0.0016471 0.0209769 -0.00575549 -0.00121636 0.0093401 660.573 660.573 1001.57 
95 1 1 0.0653854 0.00997743 0.00998354 0 0 0 0.00521656 -0.00339314 -0.0195467 0.00106014 0.000857862 0.00454682 0.00521656 -0.00339314 -0.0195467 553.804 553.804 1001.31 
96 1 1 0.0864986 0.00997458 0.00996453 0 0 0 0.0108336 0.00172388 0.0100389 0.00162252 0.00372161 0.0234939 0.0108336 0.00172388 0.0100389 607.578 607.578 1001.44 
97 1 1 0.0947997 0.00997737 0.00999726 0 0 0 0.00842674 -0.00186531 -0.0142767 0.000897253 0.000869773 -0.0102144 0.00842674 -0.00186531 -0.0142767 562.182 562.182 1001.33 
98 1 1 0.103464 0.00997887 0.00999259 0 0 0 0.000425895 -4.3923e-05 0.00567728 -0.000102265 -0.00246589 -0.00493205 0.000425895 -4.3923e-05 0.00567728 604.747 604.747 1001.43 
99 1 1 0.112669 0.00997799 0.0099864 0 0 0 0.0237378 -0.0032233 -0.0099212 -0.000246128 -0.000581079 0.000714419 0.0237378 -0.0032233 -0.0099212 567.4 567.4 1001.35 
100 1 1 0.116554 0.00997635 0.00998969 0 0 0 -0.0122894 -0.000613614 -0.000666062 -7.38778e-06 0.00140158 -0.00229951 -0.0122894 -0.000613614 -0.000666062 590.939 590.939 1001.4 
101 1 1 0.00998519 0.0251922 0.0237988 0 0 0 0.00293018 0.0413676 -4.10819e-05 0.000810977 -0.000848592 -0.00387781 0.00293018 0.0413676 -4.10819e-05 416.082 416.082 1000.99 
102 1 1 0.0110498 0.0236844 0.00998155 0 0 0 -0.289518 0.00567128 -0.00492301 -0.0136099 0.000899311 0.000140382 -0.289518 0.00567128 -0.00492301 31.125 31.125 1000.07 
103 1 1 0.0305393 0.0198745 0.0261462 0 0 0 0.0189004 -0.00889271 0.0038339 7.77327e-05 0.00141108 -0.00125469 0.0189004 -0.00889271 0.0038339 339.331 339.331 1000.81 
104 1 1 0.0839007 0.0239254 0.0393819 0 0 0 -0.0344341 -0.0180581 0.00125452 0.000133927 0.000100106 -0.00103473 -0.0344341 -0.0180581 0.00125452 211.188 211.188 1000.5 
105 1 1 0.121807 0.0258945 0.0490011 0 0 0 -0.0231219 0.00631543 0.0247132 0.000188992 -0.000378588 -0.000566344 -0.0231219 0.00631543 0.0247132 145.988 145.988 1000.35 
106 1 1 0.110244 0.02203 0.00997538 0 0 0 -0.0345972 -0.00936513 0.00894243 0.000471459 0.000106096 0.0100183 -0.0345972 -0.00936513 0.00894243 622.174 622.174 1001.47 
107 1 1 0.158901 0.0216427 0.0268758 0 0 0 -0.0965215 -0.0205411 0.0289546 -0.000680742 -0.000669011 -0.00028213 -0.0965215 -0.0205411 0.0289546 370.805 370.805 1000.88 
108 1 1 0.123099 0.0343273 0.00998576 0 0 0 -0.015905 0.0136754 -0.0031784 -0.000848967 0.000526888 -0.000589017 -0.015905 0.0136754 -0.0031784 596.983 596.983 1001.42 
109 1 1 0.176152 0.0229092 0.0244793 0 0 0 -0.110293 0.0347241 -0.00513387 -0.00147924 -2.62621e-05 -0.00115538 -0.110293 0.0347241 -0.00513387 438.722 438.722 1001.04 
110 1 1 0.151194 0.0218363 0.0099851 0 0 0 -0.0150489 0.00336421 0.000840631 -0.000468892 0.000353025 -0.000330411 -0.0150489 0.00336421 0.000840631 635.139 635.139 1001.51 
111 1 1 0.00997575 0.0330868 0.00998311 0 0 0 0.00138933 0.026918 -0.00238226 -0.000362647 -0.00467168 0.00245198 0.00138933 0.026918 -0.00238226 693.078 693.078 1001.64 
112 1 1 0.0224602 0.01902 0.0374122 0 0 0 -0.033142 -0.00709793 -0.0422862 -0.00022775 0.00227062 0.00107977 -0.033142 -0.00709793 -0.0422862 195.26 195.26 1000.46 
113 1 1 0.0387631 0.0310677 0.00998595 0 0 0 -0.0244067 -0.0292279 -0.000137177 -0.000902248 -0.000238451 -6.90966e-06 -0.0244067 -0.0292279 -0.000137177 577.367 577.367 1001.37 
114 1 1 0.0478208 0.0223718 0.00998581 0 0 0 -0.0329672 0.00395247 -0.00187969 -0.00148112 -2.71326e-05 0.000369036 -0.0329672 0.00395247 -0.00187969 582.969 582.969 1001.38 
115 1 1 0.0732862 0.0216662 0.0242926 0 0 0 -0.0632056 0.0111432 -0.0417836 2.16298e-05 -0.000241618 0.000735755 -0.0632056 0.0111432 -0.0417836 321.124 321.124 1000.76 
116 1 1 0.0847714 0.0374644 0.00998451 0 0 0 -0.0262258 -0.00603765 -0.000284328 -0.000987879 -0.000137051 -0.000184406 -0.0262258 -0.00603765 -0.000284328 570.096 570.096 1001.35 
117 1 1 0.154795 0.0263892 0.0255852 0 0 0 -0.0990098 0.00733924 -0.0151334 -0.00108054 -0.00032763 -0.00178104 -0.0990098 0.00733924 -0.0151334 372.758 372.758 1000.89 
118 1 1 0.169756 0.0213507 0.0244016 0 0 0 -0.0920152 0.00749784 -0.000278491 -0.000832703 0.000698647 -0.000231462 -0.0920152 0.00749784 -0.000278491 412.231 412.231 1000.98 
119 1 1 0.126643 0.0228323 0.00998317 0 0 0 -0.0190263 -0.0384345 0.000902171 -0.000962649 -0.000297498 0.00162883 -0.0190263 -0.0384345 0.000902171 599.762 599.762 1001.42 
120 1 1 0.181903 0.0231522 0.0288358 0 0 0 -0.140699 0.00657 0.0465479 -0.00193722 -9.05849e-06 0.000906379 -0.140699 0.00657 0.0465479 402 402 1000.95 
121 1 1 0.00997611 0.04225 0.00998775 0 0 0 0.00241535 0.0134081 -0.00210251 5.34315e-05 0.00217171 -0.002458 0.00241535 0.0134081 -0.00210251 620.647 620.647 1001.47 
122 1 1 0.0206437 0.0350604 0.00998767 0 0 0 0.013571 -0.00654893 -0.00156716 -0.00103955 -0.000980369 -0.00254852 0.013571 -0.00654893 -0.00156716 588.353 588.353 1001.39 
123 1 1 0.0243767 0.0258788 0.0099897 0 0 0 -0.121041 -0.014061 0.00477589 -0.00694186 -0.000759177 -0.00202137 -0.121041 -0.014061 0.00477589 605.966 605.966 1001.44 
124 1 1 0.0618511 0.0314277 0.00998642 0 0 0 -0.00972436 -0.0215582 -0.000675484 0.000244125 -0.000195523 -0.00105741 -0.00972436 -0.0215582 -0.000675484 572.256 572.256 1001.36 
125 1 1 0.0734853 0.0377422 0.00998321 0 0 0 -0.0441108 0.0015193 0.000650222 -0.000635383 -0.000108576 0.000337794 -0.0441108 0.0015193 0.000650222 556.799 556.799 1001.32 
126 1 1 0.103394 0.029666 0.00998426 0 0 0 -0.0271817 0.00821308 0.000721653 -0.000358484 -0.000514507 -8.11599e-05 -0.0271817 0.00821308 0.000721653 609.368 609.368 1001.44 
127 1 1 0.137641 0.0390137 0.00998401 0 0 0 -0.0288576 0.0072816 -0.000491013 -0.000678445 -0.000407295 -0.000660267 -0.0288576 0.0072816 -0.000491013 582.782 582.782 1001.38 
128 1 1 0.122599 0.0421694 0.00998445 0 0 0 -0.044614 -0.00210068 0.00156765 0.0002503 -0.000325297 -0.000284284 -0.044614 -0.00210068 0.00156765 577.909 577.909 1001.37 
129 1 1 0.115328 0.0240748 0.00999227 0 0 0 -0.0449317 0.0222911 -0.00215908 0.000569105 -0.00113408 -0.00692182 -0.0449317 0.0222911 -0.00215908 602.237 602.237 1001.43 
130 1 1 0.156997 0.0312827 0.00998512 0 0 0 -0.0297673 0.00647481 -0.0014117 -0.00030581 -0.000262012 -0.0020934 -0.0297673 0.00647481 -0.0014117 623.941 623.941 1001.48 
131 1 1 0.0099773 0.0476329 0.00998196 0 0 0 -0.00152404 0.0202142 0.00327346 -0.000772391 0.00137253 0.00365906 -0.00152404 0.0202142 0.00327346 598.081 598.081 1001.42 
132 1 1 0.0213734 0.0472393 0.00998333 0 0 0 0.0835745 -0.00370556 0.00246872 -0.000990241 0.00302103 0.000316155 0.0835745 -0.00370556 0.00246872 535.888 535.888 1001.27 
133 1 1 0.038092 0.0468205 0.00998716 0 0 0 -0.00513159 0.00163543 0.00153586 -0.00122234 0.000966056 -0.0018371 -0.00513159 0.00163543 0.00153586 559.566 559.566 1001.33 
134 1 1 0.0702633 0.0503744 0.00998451 0 0 0 -0.0389722 0.0101585 0.000488461 -0.00145301 0.000416138 -0.000304289 -0.0389722 0.0101585 0.000488461 547.717 547.717 1001.3 
135 1 1 0.106828 0.050167 0.00998193 0 0 0 -0.0299688 0.0109266 -0.000761275 -0.000732993 0.000454842 0.000856639 -0.0299688 0.0109266 -0.000761275 564.409 564.409 1001.34 
136 1 1 0.123855 0.0505394 0.0255692 0 0 0 -0.030812 0.0111295 -0.00344164 0.000432203 5.955e-05 1.23164e-06 -0.030812 0.0111295 -0.00344164 336.782 336.782 1000.8 
137 1 1 0.152346 0.0509825 0.0242343 0 0 0 -0.0626493 0.0248429 0.00554732 -0.00123171 0.000506229 -0.00171183 -0.0626493 0.0248429 0.00554732 382.852 382.852 1000.91 
138 1 1 0.123332 0.0501088 0.0099841 0 0 0 -0.00378498 -0.000501728 -0.00117702 -0.000996816 4.35799e-05 -1.80585e-05 -0.00378498 -0.000501728 -0.00117702 572.956 572.956 1001.36 
139 1 1 0.129568 0.0499497 0.00998373 0 0 0 -0.0134174 0.000988856 -0.000445317 2.00544e-05 -6.34968e-05 0.000224475 -0.0134174 0.000988856 -0.000445317 568.207 568.207 1001.35 
140 1 1 0.198541 0.0500126 0.0255104 0 0 0 -0.151652 0.000317805 -0.00171328 -0.00168036 -0.000190091 -0.000471893 -0.151652 0.000317805 -0.00171328 447.988 447.988 1001.06 
141 1 1 0.00997665 0.057125 0.00999012 0 0 0 0.00341895 -0.00015851 -0.00288159 -0.000193886 0.00087737 -0.00391132 0.00341895 -0.00015851 -0.00288159 588.632 588.632 1001.4 
142 1 1 0.0210321 0.0665429 0.00998774 0 0 0 -0.000725645 0.0465254 -0.000871094 -0.00397261 0.00399316 -0.00257873 -0.000725645 0.0465254 -0.000871094 594.045 594.045 1001.41 
143 1 1 0.0243669 0.073776 0.00998793 0 0 0 -0.143207 0.0343674 0.00558153 -0.00774352 0.00334716 -0.00233307 -0.143207 0.0343674 0.00558153 581.489 581.489 1001.38 
144 1 1 0.0617857 0.0682162 0.00998578 0 0 0 -0.0162947 0.00925653 -0.00125381 -0.000573116 0.000429018 -0.000875206 -0.0162947 0.00925653 -0.00125381 558.548 558.548 1001.32 
145 1 1 0.0738379 0.0623383 0.00998348 0 0 0 -0.0338576 0.00799251 0.000768975 -0.000816205 0.000205159 0.00064813 -0.0338576 0.00799251 0.000768975 551.854 551.854 1001.31 
146 1 1 0.103702 0.0702124 0.00998376 0 0 0 -0.0255233 -0.00683647 0.000395912 -0.000537649 4.40872e-05 0.000149707 -0.0255233 -0.00683647 0.000395912 598.677 598.677 1001.42 
147 1 1 0.137798 0.0604932 0.00998352 0 0 0 -0.0242641 -0.0205879 -0.000225414 -0.000716666 4.51604e-05 -0.000315434 -0.0242641 -0.0205879 -0.000225414 587.821 587.821 1001.39 
148 1 1 0.122538 0.057765 0.00998376 0 0 0 -0.0483233 0.00426039 0.00124671 0.00021675 0.000289552 0.000336799 -0.0483233 0.00426039 0.00124671 579.01 579.01 1001.37 
149 1 1 0.115066 0.0758223 0.00999133 0 0 0 -0.0457923 -0.0191501 -0.00138219 0.00033996 0.00031461 -0.00626309 -0.0457923 -0.0191501 -0.00138219 611.734 611.734 1001.45 
150 1 1 0.156568 0.0685031 0.00998418 0 0 0 -0.0329983 -0.00795179 -0.00225364 -0.000496903 -0.000191589 -0.00120458 -0.0329983 -0.00795179 -0.00225364 619.188 619.188 1001.47 
151 1 1 0.00997555 0.0668901 0.00998364 0 0 0 0.000664925 -0.00874094 5.38026e-05 -0.000394232 0.00865963 0.000931583 0.000664925 -0.00874094 5.38026e-05 654.355 654.355 1001.55 
152 1 1 0.0239304 0.0757442 0.0374073 0 0 0 0.0242662 0.00780135 -0.00585018 0.000308523 0.000193412 0.000474477 0.0242662 0.00780135 -0.00585018 175.756 175.756 1000.42 
153 1 1 0.0382588 0.0696998 0.00998694 0 0 0 -0.03605 0.0378938 -0.000674867 -0.00124335 0.00142715 -0.00104217 -0.03605 0.0378938 -0.000674867 568.102 568.102 1001.35 
154 1 1 0.0481972 0.0773514 0.00998731 0 0 0 -0.0356526 -0.009133 -0.00104893 -0.00249077 0.00151742 -0.000823422 -0.0356526 -0.009133 -0.00104893 567.19 567.19 1001.35 
155 1 1 0.0731628 0.0784445 0.0238871 0 0 0 -0.0537706 -0.012108 0.00395464 -0.000644885 0.000778223 0.00148798 -0.0537706 -0.012108 0.00395464 347.635 347.635 1000.83 
156 1 1 0.0850993 0.0624486 0.00998421 0 0 0 -0.0210467 0.0112834 0.0001601 -0.00086898 0.000102332 -0.000101987 -0.0210467 0.0112834 0.0001601 573.584 573.584 1001.36 
157 1 1 0.154677 0.0736143 0.0255469 0 0 0 -0.0992892 -0.00340536 -0.0163089 -0.00136705 -7.5247e-05 -0.00177537 -0.0992892 -0.00340536 -0.0163089 376.567 376.567 1000.89 
158 1 1 0.169685 0.0786699 0.0243936 0 0 0 -0.0921565 -0.00670227 -0.000884706 -0.000521811 -0.00108043 -1.79351e-05 -0.0921565 -0.00670227 -0.000884706 432.59 432.59 1001.03 
159 1 1 0.126382 0.0772386 0.00998324 0 0 0 -0.0192382 0.0454238 -0.00140733 -0.000891262 -0.000164423 0.00118523 -0.0192382 0.0454238 -0.00140733 608.687 608.687 1001.44 
160 1 1 0.181854 0.0768923 0.0288144 0 0 0 -0.14157 -0.00510324 0.0461156 -0.00176168 8.33198e-05 0.00107236 -0.14157 -0.00510324 0.0461156 415.502 415.502 1000.99 
161 1 1 0.00998773 0.0795112 0.0235495 0 0 0 0.000984702 -0.0138026 -0.0386042 -0.00162528 -0.00131127 -0.00667865 0.000984702 -0.0138026 -0.0386042 411.809 411.809 1000.98 
162 1 1 0.0100657 0.0767651 0.00998037 0 0 0 -0.339754 -0.00230169 -0.00420155 -0.00714164 0.00206721 -0.000509762 -0.339754 -0.00230169 -0.00420155 -308.784 -308.784 999.263 
163 1 1 0.0309323 0.0806547 0.0245936 0 0 0 0.0134385 -0.0205349 -0.00226052 0.00095898 -0.00232322 -0.000221395 0.0134385 -0.0205349 -0.00226052 330.666 330.666 1000.79 
164 1 1 0.084894 0.0741876 0.0399271 0 0 0 -0.0350303 0.0167159 0.0182619 -0.000667935 0.000335326 -0.00110033 -0.0350303 0.0167159 0.0182619 193.471 193.471 1000.46 
165 1 1 0.121908 0.0740287 0.0490015 0 0 0 -0.0179887 -0.0102233 0.0231191 0.000422126 0.000185127 -0.000557255 -0.0179887 -0.0102233 0.0231191 146.397 146.397 1000.35 
166 1 1 0.110043 0.0780334 0.00997467 0 0 0 -0.0379558 0.0157398 0.00742023 0.000252708 -0.00166427 0.0102937 -0.0379558 0.0157398 0.00742023 628.826 628.826 1001.49 
167 1 1 0.158835 0.0783816 0.0269034 0 0 0 -0.0978718 0.0206446 0.0299352 -0.00107382 -0.000123042 0.000126279 -0.0978718 0.0206446 0.0299352 387.164 387.164 1000.92 
168 1 1 0.12322 0.0657512 0.00998624 0 0 0 -0.0180119 -0.00834132 -0.00265204 -0.00103649 -0.000873961 -0.00122169 -0.0180119 -0.00834132 -0.00265204 596.914 596.914 1001.42 
169 1 1 0.176103 0.0771213 0.0244668 0 0 0 -0.11078 -0.0331866 -0.0056698 -0.00115366 -3.62946e-05 -0.000988636 -0.11078 -0.0331866 -0.0056698 455.268 455.268 1001.08 
170 1 1 0.151445 0.0781982 0.00998439 0 0 0 -0.0159578 -0.000985623 0.000358187 -0.00116481 -0.00115534 0.000157713 -0.0159578 -0.000985623 0.000358187 645.117 645.117 1001.53 
171 1 1 0.00997576 0.09001 0.0100023 0 0 0 -0.00581236 -0.00394613 0.0200647 -0.000597047 0.0018773 -0.0288776 -0.00581236 -0.00394613 0.0200647 638.177 638.177 1001.51 
172 1 1 0.0198123 0.0900141 0.00999188 0 0 0 0.00173336 -0.00154242 0.0146288 -0.00198904 0.00277526 -0.0057886 0.00173336 -0.00154242 0.0146288 606.132 606.132 1001.44 
173 1 1 0.0312299 0.09002 0.0100006 0 0 0 0.0120842 0.00256305 0.0177918 0.00159495 0.00145734 -0.0298731 0.0120842 0.00256305 0.0177918 592.99 592.99 1001.41 