ITEM: TIMESTEP
141000
ITEM: NUMBER OF ATOMS
2655
ITEM: BOX BOUNDS ff ff ff
0 0.5
0 0.1
0 0.5
ITEM: ATOMS id type type x y z ix iy iz vx vy vz fx fy fz vx vy vz p p rho 
1 1 1 0.00996185 0.00997832 0.00998431 0 0 0 0.00783033 -0.00144686 -0.0184918 0.0248222 0.000328147 -0.0164566 0.00783033 -0.00144686 -0.0184918 564.9 564.9 1001.34 
2 1 1 0.036504 0.00997806 0.00995361 0 0 0 0.0765457 -0.00819467 0.0115964 -0.00123872 -0.000495655 0.00797488 0.0765457 -0.00819467 0.0115964 569.341 569.341 1001.35 
3 1 1 0.0320407 0.00996722 0.00995805 0 0 0 0.0459872 0.00326452 0.000236609 -0.00451055 0.0108281 0.00277925 0.0459872 0.00326452 0.000236609 550.324 550.324 1001.31 
4 1 1 0.0715863 0.0099793 0.00996176 0 0 0 0.0830866 -0.00951994 0.00914892 0.00525781 0.00112345 0.00312131 0.0830866 -0.00951994 0.00914892 573.192 573.192 1001.36 
5 1 1 0.0776532 0.00998125 0.00996607 0 0 0 0.133941 0.00169952 -0.00622145 0.0021963 -0.000963074 0.000638714 0.133941 0.00169952 -0.00622145 544.065 544.065 1001.29 
6 1 1 0.0971079 0.00997623 0.0099833 0 0 0 0.085861 0.0032684 -0.00697006 0.00262185 0.00521241 -0.0113495 0.085861 0.0032684 -0.00697006 458.898 458.898 1001.09 
7 1 1 0.111216 0.00998449 0.00997949 0 0 0 0.0573348 -0.00182759 -0.00445274 0.00135398 -0.00153852 -0.00441837 0.0573348 -0.00182759 -0.00445274 412.736 412.736 1000.98 
8 1 1 0.120249 0.00998953 0.00997452 0 0 0 0.0478942 -0.00218569 0.00115974 2.66378e-05 -0.00632158 0.00127661 0.0478942 -0.00218569 0.00115974 410.478 410.478 1000.97 
9 1 1 0.129915 0.00998911 0.00997403 0 0 0 0.0503313 -0.00251735 0.00471528 -0.00142604 -0.00548345 0.00202361 0.0503313 -0.00251735 0.00471528 419.688 419.688 1001 
10 1 1 0.143911 0.00998295 0.00997662 0 0 0 0.0444688 -0.00264936 0.0053693 -0.0022264 -0.000499048 -0.000130025 0.0444688 -0.00264936 0.0053693 451.93 451.93 1001.07 
11 1 1 0.00996996 0.0207132 0.00998177 0 0 0 0.00241295 -0.0171054 -0.00102131 0.0130689 0.00267089 -0.0168487 0.00241295 -0.0171054 -0.00102131 576.446 576.446 1001.37 
12 1 1 0.0340888 0.0341371 0.00996217 0 0 0 0.00361327 -0.0104749 -0.00371335 -0.0072132 0.000942809 -0.00385944 0.00361327 -0.0104749 -0.00371335 536.701 536.701 1001.27 
13 1 1 0.0228575 0.0207578 0.00995935 0 0 0 -0.0112244 -0.0412229 -0.00147448 -0.00353401 0.00322895 -0.000963786 -0.0112244 -0.0412229 -0.00147448 530.35 530.35 1001.26 
14 1 1 0.0877889 0.0219718 0.00995384 0 0 0 0.0735447 0.0165812 -0.016484 0.000483177 0.000327838 0.0103038 0.0735447 0.0165812 -0.016484 514.36 514.36 1001.22 
15 1 1 0.0750334 0.0219094 0.00996396 0 0 0 0.107668 -0.0127047 0.00241894 0.000283868 0.00339483 0.000812525 0.107668 -0.0127047 0.00241894 466.771 466.771 1001.11 
16 1 1 0.10683 0.0216986 0.00997268 0 0 0 0.112368 0.0146298 -0.00911554 0.00592996 -0.000985517 -0.00127471 0.112368 0.0146298 -0.00911554 412.164 412.164 1000.98 
17 1 1 0.108756 0.0412726 0.00996668 0 0 0 0.089858 0.00248352 -0.00459848 0.00190012 0.000272069 0.00553714 0.089858 0.00248352 -0.00459848 434.871 434.871 1001.03 
18 1 1 0.13625 0.0317923 0.00997712 0 0 0 0.0444786 0.0108538 -0.000403343 -0.0017569 -7.85894e-05 -0.00257232 0.0444786 0.0108538 -0.000403343 408.869 408.869 1000.97 
19 1 1 0.120304 0.0219052 0.00997599 0 0 0 0.0466668 0.0239805 -0.00203229 0.000342997 -0.000160963 -0.00215804 0.0466668 0.0239805 -0.00203229 391.121 391.121 1000.93 
20 1 1 0.156797 0.0226304 0.00997429 0 0 0 0.0595752 -0.00849637 0.000468173 -0.00268563 0.000399508 0.000219664 0.0595752 -0.00849637 0.000468173 482.46 482.46 1001.14 
21 1 1 0.00999328 0.0286963 0.00996401 0 0 0 0.000949947 -0.00361921 -0.00116017 -0.00981321 0.00191981 0.00130694 0.000949947 -0.00361921 -0.00116017 549.631 549.631 1001.3 
22 1 1 0.0392002 0.0347245 0.00995824 0 0 0 0.0430087 -0.0274927 -0.00732979 -0.00109132 0.0016101 -0.00342463 0.0430087 -0.0274927 -0.00732979 563.929 563.929 1001.34 
23 1 1 0.0673057 0.0458689 0.00996983 0 0 0 0.0975238 0.0213228 0.00767061 0.00391306 0.0031461 -0.00283969 0.0975238 0.0213228 0.00767061 386.47 386.47 1000.92 
24 1 1 0.0937526 0.0310578 0.00994993 0 0 0 0.0702227 -0.0167178 -0.00711096 -0.000207431 0.00208442 0.0161063 0.0702227 -0.0167178 -0.00711096 507.206 507.206 1001.2 
25 1 1 0.114463 0.0372175 0.00997305 0 0 0 0.0651467 0.00028985 -0.00663259 0.00235959 -0.000102841 -0.000554505 0.0651467 0.00028985 -0.00663259 428.901 428.901 1001.02 
26 1 1 0.114814 0.0224509 0.00997613 0 0 0 0.0655153 -0.0155187 -0.00490836 0.000838071 -0.000375849 -0.00335423 0.0655153 -0.0155187 -0.00490836 391.052 391.052 1000.93 
27 1 1 0.134959 0.0449683 0.00997707 0 0 0 0.0625992 0.0037047 -0.00154642 -2.8286e-05 5.75253e-05 -0.00276691 0.0625992 0.0037047 -0.00154642 402.113 402.113 1000.95 
28 1 1 0.116163 0.0316383 0.00997552 0 0 0 0.0339203 0.0098077 -0.00701459 0.00130838 -0.00227111 -0.00274338 0.0339203 0.0098077 -0.00701459 410.967 410.967 1000.98 
29 1 1 0.14507 0.0224479 0.00997538 0 0 0 0.0692185 0.00327872 0.00184579 -0.00274213 0.000559178 -0.000709798 0.0692185 0.00327872 0.00184579 446.57 446.57 1001.06 
30 1 1 0.149449 0.031514 0.00997634 0 0 0 0.0568363 -0.0268299 0.00138464 -0.00329237 0.000823664 -0.0013315 0.0568363 -0.0268299 0.00138464 438.731 438.731 1001.04 
31 1 1 0.00999061 0.0380845 0.00996932 0 0 0 -0.00317279 -0.0140713 0.00828794 -0.00590163 0.00302279 -0.00247331 -0.00317279 -0.0140713 0.00828794 509.001 509.001 1001.21 
32 1 1 0.0237932 0.0410108 0.0099624 0 0 0 0.0294178 -0.07128 0.0017613 -0.00668272 -0.0015402 -0.00299134 0.0294178 -0.07128 0.0017613 479.108 479.108 1001.14 
33 1 1 0.0533387 0.0384022 0.00995809 0 0 0 0.0216487 -0.0684057 -0.00166009 0.00579887 0.00721672 0.00036801 0.0216487 -0.0684057 -0.00166009 462.598 462.598 1001.1 
34 1 1 0.0745083 0.0347063 0.00996355 0 0 0 0.0816559 -0.018876 0.00708427 0.000456501 0.00410832 0.00237846 0.0816559 -0.018876 0.00708427 402.641 402.641 1000.96 
35 1 1 0.0844265 0.0385124 0.00996374 0 0 0 0.097929 -0.00935168 -0.00161643 -0.00497857 0.0038181 0.00335863 0.097929 -0.00935168 -0.00161643 456.141 456.141 1001.08 
36 1 1 0.105712 0.0291559 0.00996869 0 0 0 0.0495935 -0.00937407 -0.00772935 0.0045534 -0.000404152 0.00221876 0.0495935 -0.00937407 -0.00772935 437.956 437.956 1001.04 
37 1 1 0.126215 0.0374847 0.00997669 0 0 0 0.0531813 0.00100203 -0.00402804 -0.000481936 -0.000646995 -0.00241336 0.0531813 0.00100203 -0.00402804 395.803 395.803 1000.94 
38 1 1 0.133159 0.038775 0.00997698 0 0 0 0.0633426 -0.00829639 -0.00194032 -0.00169643 -0.000628212 -0.00256817 0.0633426 -0.00829639 -0.00194032 398.999 398.999 1000.95 
39 1 1 0.153173 0.0372076 0.00997659 0 0 0 0.0814426 -0.0205842 0.0017151 -0.0024056 -2.90862e-05 -0.00168059 0.0814426 -0.0205842 0.0017151 440.747 440.747 1001.05 
40 1 1 0.168797 0.0383671 0.00997437 0 0 0 0.0392604 -0.00145203 0.00182424 -0.00182484 9.89639e-05 1.71319e-05 0.0392604 -0.00145203 0.00182424 491.34 491.34 1001.17 
41 1 1 0.00998987 0.0521893 0.0099733 0 0 0 0.0032219 -0.00502999 0.00266388 -0.00382733 0.00255991 -0.00485825 0.0032219 -0.00502999 0.00266388 465.301 465.301 1001.1 
42 1 1 0.0398481 0.0578316 0.00993967 0 0 0 0.0338515 0.00398347 -0.00845196 0.00111366 0.00346672 0.0174501 0.0338515 0.00398347 -0.00845196 554.605 554.605 1001.32 
43 1 1 0.0559954 0.0497765 0.00996144 0 0 0 0.0996479 -0.0316558 -0.00935909 0.00388565 0.00219647 0.00279929 0.0996479 -0.0316558 -0.00935909 391.014 391.014 1000.93 
44 1 1 0.0806635 0.0461969 0.0099783 0 0 0 0.0606612 -0.0328996 -0.00159692 -0.00323172 0.00361469 -0.0092507 0.0606612 -0.0328996 -0.00159692 376.043 376.043 1000.89 
45 1 1 0.091285 0.0501608 0.0099619 0 0 0 0.0836961 0.0153993 -0.000386638 -0.000926431 0.00171191 0.00809272 0.0836961 0.0153993 -0.000386638 397.923 397.923 1000.94 
46 1 1 0.100452 0.0548707 0.00996172 0 0 0 0.0698615 -0.0171724 -0.000110507 -0.00201052 -0.000579101 0.009806 0.0698615 -0.0171724 -0.000110507 412.204 412.204 1000.98 
47 1 1 0.106432 0.0482671 0.00996272 0 0 0 0.042992 -0.0129519 -0.00258625 0.00019827 0.000933646 0.00962326 0.042992 -0.0129519 -0.00258625 414.751 414.751 1000.98 
48 1 1 0.131302 0.0515186 0.00997689 0 0 0 0.0708513 -0.0292974 -0.00230254 -0.000953258 -0.000862926 -0.00252218 0.0708513 -0.0292974 -0.00230254 401.341 401.341 1000.95 
49 1 1 0.117941 0.049608 0.00997408 0 0 0 0.0523657 0.00575528 -0.00431518 0.000902621 -4.59028e-05 -0.000142992 0.0523657 0.00575528 -0.00431518 420.47 420.47 1001 
50 1 1 0.156739 0.0503605 0.00997629 0 0 0 0.0600883 0.0118082 0.00227509 -0.00265725 -0.00122859 -0.00161105 0.0600883 0.0118082 0.00227509 452.22 452.22 1001.07 
51 1 1 0.00998929 0.0618019 0.00997164 0 0 0 0.00179172 -0.00665378 0.0094081 -0.00324371 -1.50763e-05 -0.00295431 0.00179172 -0.00665378 0.0094081 444.826 444.826 1001.06 
52 1 1 0.0247563 0.055639 0.00996373 0 0 0 0.0238425 -0.0225572 -0.000546057 -0.00870876 0.00111074 -0.00192351 0.0238425 -0.0225572 -0.000546057 512.269 512.269 1001.22 
53 1 1 0.0631414 0.0598765 0.00996823 0 0 0 0.0955823 -0.0181742 -0.00051835 0.00363017 0.000325345 -0.00245084 0.0955823 -0.0181742 -0.00051835 403.874 403.874 1000.96 
54 1 1 0.0838489 0.0645411 0.00997645 0 0 0 0.102742 -0.0427557 -0.00122483 -0.00357167 -0.000723294 -0.00617019 0.102742 -0.0427557 -0.00122483 374.189 374.189 1000.89 
55 1 1 0.0881423 0.0596082 0.00997175 0 0 0 0.062438 -0.0154859 -0.00016572 -0.00304163 -0.000190838 -0.00232696 0.062438 -0.0154859 -0.00016572 389.272 389.272 1000.92 
56 1 1 0.104374 0.0729798 0.00997436 0 0 0 0.055894 -0.0090318 -0.00116657 -0.000119662 0.000279493 -0.000912743 0.055894 -0.0090318 -0.00116657 414.193 414.193 1000.98 
57 1 1 0.128955 0.0630583 0.00997652 0 0 0 0.0620399 -0.0163616 -0.00155802 -0.00142335 -0.000626089 -0.00222167 0.0620399 -0.0163616 -0.00155802 407.032 407.032 1000.97 
58 1 1 0.135433 0.0642696 0.00997722 0 0 0 0.0507694 0.000462157 3.77173e-06 -0.00198579 -0.000939719 -0.00251684 0.0507694 0.000462157 3.77173e-06 418.673 418.673 1000.99 
59 1 1 0.152887 0.0624097 0.00997697 0 0 0 0.0496332 -0.0168125 0.00234067 -0.00302576 -0.00190433 -0.00166303 0.0496332 -0.0168125 0.00234067 455.034 455.034 1001.08 
60 1 1 0.164018 0.0619229 0.00997528 0 0 0 0.0508514 0.00317178 0.00237586 -0.00297509 -0.00127882 -0.000537168 0.0508514 0.00317178 0.00237586 491.829 491.829 1001.17 
61 1 1 0.0099928 0.0716614 0.00997281 0 0 0 0.0149292 0.0109797 0.00426305 -0.00499873 0.00392685 -0.00464357 0.0149292 0.0109797 0.00426305 454.504 454.504 1001.08 
62 1 1 0.0440535 0.065765 0.00995308 0 0 0 0.0616373 -0.0184287 -0.00468616 0.00586389 0.00535946 0.00730242 0.0616373 -0.0184287 -0.00468616 488.014 488.014 1001.16 
63 1 1 0.0738753 0.0620119 0.00998405 0 0 0 0.0899699 0.0195127 0.000823251 0.00220067 -0.00372273 -0.0158886 0.0899699 0.0195127 0.000823251 334.065 334.065 1000.79 
64 1 1 0.0939052 0.0719595 0.00997131 0 0 0 0.0703307 0.00413711 0.000339259 -0.000696923 -0.000192137 0.000589827 0.0703307 0.00413711 0.000339259 416.107 416.107 1000.99 
65 1 1 0.117616 0.064585 0.00997469 0 0 0 0.0540724 0.00485677 -0.00312528 0.000397344 -0.000107981 -0.000946408 0.0540724 0.00485677 -0.00312528 409.965 409.965 1000.97 
66 1 1 0.113829 0.0778769 0.00997608 0 0 0 0.0698455 -0.0225869 0.000543482 0.000115461 -0.000734547 -0.0020523 0.0698455 -0.0225869 0.000543482 410.661 410.661 1000.97 
67 1 1 0.136445 0.0548059 0.00997725 0 0 0 0.0466824 0.0169594 -0.000770774 -0.000953514 -0.000846571 -0.00296612 0.0466824 0.0169594 -0.000770774 408.521 408.521 1000.97 
68 1 1 0.116912 0.0710356 0.00997568 0 0 0 0.0629665 -0.0201209 -0.00157887 -0.000413227 0.00124653 -0.00132409 0.0629665 -0.0201209 -0.00157887 409.876 409.876 1000.97 
69 1 1 0.145841 0.0779454 0.00997374 0 0 0 0.0649561 0.00849281 0.0026896 -0.0031468 -0.00191931 0.000208537 0.0649561 0.00849281 0.0026896 478.975 478.975 1001.14 
70 1 1 0.15248 0.0679302 0.00997584 0 0 0 0.0437115 0.0038999 0.0028835 -0.00312971 -0.000882405 -0.000943402 0.0437115 0.0038999 0.0028835 470.572 470.572 1001.12 
71 1 1 0.00997992 0.0784995 0.00997574 0 0 0 0.0235855 0.00338529 0.0109525 0.0105239 0.0119922 -0.00657095 0.0235855 0.00338529 0.0109525 409.1 409.1 1000.97 
72 1 1 0.035725 0.0635039 0.0099448 0 0 0 0.044137 0.0217497 -0.00279719 -0.00173507 0.00539546 0.0144674 0.044137 0.0217497 -0.00279719 523.575 523.575 1001.24 
73 1 1 0.0272897 0.0747596 0.00994691 0 0 0 0.0429267 0.00260631 -0.000104589 -0.00447227 0.0147169 0.0199985 0.0429267 0.00260631 -0.000104589 369.496 369.496 1000.88 
74 1 1 0.0911063 0.0781283 0.00997088 0 0 0 0.0757971 -0.00398526 0.000696406 5.35008e-05 -0.00137163 0.00148831 0.0757971 -0.00398526 0.000696406 415.6 415.6 1000.99 
75 1 1 0.0776917 0.0776195 0.00996795 0 0 0 0.10548 0.0073892 0.00316413 -0.0015475 -0.0032478 0.00165623 0.10548 0.0073892 0.00316413 398.157 398.157 1000.95 
76 1 1 0.107271 0.0782104 0.00997548 0 0 0 0.0790638 0.0079456 -0.000317087 0.000471382 3.96772e-05 -0.00174745 0.0790638 0.0079456 -0.000317087 409.644 409.644 1000.97 
77 1 1 0.111649 0.0610151 0.00997204 0 0 0 0.0652781 -0.0130973 -0.00319833 0.000245745 8.23718e-05 0.000600835 0.0652781 -0.0130973 -0.00319833 424.393 424.393 1001.01 
78 1 1 0.140151 0.0690942 0.00997693 0 0 0 0.0506516 -0.00408814 0.00157054 -0.00183382 -0.0015264 -0.00187294 0.0506516 -0.00408814 0.00157054 439.459 439.459 1001.04 
79 1 1 0.121412 0.0784606 0.00997643 0 0 0 0.0577054 0.025778 0.00239099 -0.00204073 -0.00162848 -0.00196095 0.0577054 0.025778 0.00239099 418.548 418.548 1000.99 
80 1 1 0.157186 0.077945 0.0099721 0 0 0 0.0490975 0.00724474 0.00212118 -0.00337765 -0.00161254 0.00181831 0.0490975 0.00724474 0.00212118 518.543 518.543 1001.23 
81 1 1 0.0100069 0.0900069 0.00996912 0 0 0 -0.00337629 -0.0111827 0.00108041 -0.0113635 0.00749789 0.00734937 -0.00337629 -0.0111827 0.00108041 246.184 246.184 1000.59 
82 1 1 0.0350055 0.0900236 0.00998422 0 0 0 0.077207 0.00337996 0.00087713 -0.00887968 -0.00922354 -0.00769772 0.077207 0.00337996 0.00087713 205.179 205.179 1000.49 
83 1 1 0.0291418 0.0900326 0.0100012 0 0 0 0.139902 -0.0199392 -0.00147244 -0.00666719 -0.0202703 -0.0246593 0.139902 -0.0199392 -0.00147244 109.804 109.804 1000.26 
84 1 1 0.0727605 0.0900104 0.00995565 0 0 0 0.0854106 -0.00775647 -0.00174597 -0.00199091 0.00715578 0.0133616 0.0854106 -0.00775647 -0.00174597 445.751 445.751 1001.06 
85 1 1 0.077315 0.0900242 0.00997089 0 0 0 0.0953263 0.00511945 0.00728934 -0.0003668 -0.00628396 -0.00194249 0.0953263 0.00511945 0.00728934 448.904 448.904 1001.07 
86 1 1 0.0980127 0.0900184 0.00997429 0 0 0 0.0493205 -0.00618581 -0.00580747 0.000883991 -0.000907875 -0.000399748 0.0493205 -0.00618581 -0.00580747 436.554 436.554 1001.04 
87 1 1 0.112544 0.090026 0.00998607 0 0 0 0.0481516 0.00250012 0.00637112 -8.1871e-05 -0.00793812 -0.0109848 0.0481516 0.00250012 0.00637112 426.132 426.132 1001.01 
88 1 1 0.122556 0.0900257 0.00998527 0 0 0 0.0592493 0.00112857 0.00521249 -0.0021662 -0.00688759 -0.00960452 0.0592493 0.00112857 0.00521249 431.681 431.681 1001.02 
89 1 1 0.131744 0.0900127 0.00996924 0 0 0 0.0555801 -0.00851399 -0.000341263 -0.00222647 0.00624101 0.00627866 0.0555801 -0.00851399 -0.000341263 455.165 455.165 1001.08 
90 1 1 0.145846 0.0900196 0.00997524 0 0 0 0.053149 0.00369086 0.0109343 -0.00228007 0.000211353 0.000134878 0.053149 0.00369086 0.0109343 500.487 500.487 1001.19 
91 1 1 0.00998619 0.00997362 0.00996742 0 0 0 0.017074 -0.00160432 -0.0145065 0.000461692 0.00502655 0.000412926 0.017074 -0.00160432 -0.0145065 564.757 564.757 1001.34 
92 1 1 0.0264155 0.00997994 0.00994557 0 0 0 0.0608735 0.00718843 -0.00905223 -0.00706488 -0.00194265 0.0146053 0.0608735 0.00718843 -0.00905223 522.76 522.76 1001.24 
93 1 1 0.0416558 0.00998806 0.00994249 0 0 0 0.0792462 -0.00257072 -0.00309824 -0.00278729 -0.0129124 0.0178607 0.0792462 -0.00257072 -0.00309824 585.556 585.556 1001.39 
94 1 1 0.0518099 0.0099951 0.00994274 0 0 0 0.055001 -0.00552629 0.0117956 0.00117066 -0.0215926 0.0174494 0.055001 -0.00552629 0.0117956 599.614 599.614 1001.42 
95 1 1 0.0826778 0.00996871 0.00997239 0 0 0 0.0654189 -0.0130139 0.00731392 0.00195525 0.0109541 -0.00340742 0.0654189 -0.0130139 0.00731392 515.104 515.104 1001.22 
96 1 1 0.10583 0.00997497 0.00998566 0 0 0 0.0631483 -0.00272219 -0.00766703 0.00320399 0.0073273 -0.0110501 0.0631483 -0.00272219 -0.00766703 423.646 423.646 1001.01 
97 1 1 0.115768 0.00999032 0.00997107 0 0 0 0.0583742 -0.0152743 0.00980886 0.000321534 -0.00705269 0.00452705 0.0583742 -0.0152743 0.00980886 410.103 410.103 1000.97 
98 1 1 0.125378 0.00998189 0.00997987 0 0 0 0.0515383 0.00602925 -0.00695158 -0.00112768 0.00159471 -0.00401005 0.0515383 0.00602925 -0.00695158 413.877 413.877 1000.98 
99 1 1 0.134532 0.00998081 0.00998088 0 0 0 0.0556717 -0.00149676 0.00279145 -0.00205991 0.00252372 -0.00470465 0.0556717 -0.00149676 0.00279145 428.051 428.051 1001.02 
100 1 1 0.139439 0.00998438 0.00997404 0 0 0 0.0503666 0.00712612 -0.00436973 -0.00240162 -0.00156439 0.0026009 0.0503666 0.00712612 -0.00436973 439.521 439.521 1001.04 
101 1 1 0.00997853 0.0218184 0.0214955 0 0 0 0.000190381 0.000699744 0.0117183 0.00061926 -0.00041057 0.00108332 0.000190381 0.000699744 0.0117183 593.965 593.965 1001.41 
102 1 1 0.00998609 0.0228471 0.00996421 0 0 0 -0.00922851 -0.0288635 0.00168797 -0.00297084 0.00363756 0.000509722 -0.00922851 -0.0288635 0.00168797 572.671 572.671 1001.36 
103 1 1 0.0235002 0.0230808 0.0181791 0 0 0 0.0256672 -0.0652383 -0.027166 -0.00464045 0.00167051 0.00182412 0.0256672 -0.0652383 -0.027166 519.958 519.958 1001.23 
104 1 1 0.0624704 0.0213346 0.0346557 0 0 0 0.0761316 0.0132995 -0.0145063 0.0022037 0.00432641 0.00293652 0.0761316 0.0132995 -0.0145063 463.854 463.854 1001.1 
105 1 1 0.0902449 0.0353768 0.0560894 0 0 0 0.115985 -0.0108306 0.0194745 0.000803057 0.00115156 0.00047357 0.115985 -0.0108306 0.0194745 220.545 220.545 1000.52 
106 1 1 0.133514 0.0228319 0.00997728 0 0 0 0.050771 -0.01298 0.000267333 -0.00273341 7.60553e-05 -0.00185676 0.050771 -0.01298 0.000267333 414.865 414.865 1000.98 
107 1 1 0.107803 0.021139 0.0315439 0 0 0 0.0599511 -0.0276863 -0.00096385 0.0032668 -0.000685869 0.000196793 0.0599511 -0.0276863 -0.00096385 340.211 340.211 1000.81 
108 1 1 0.142387 0.0347104 0.00997758 0 0 0 0.0478211 -0.0115731 0.000451832 -0.00139322 0.000357463 -0.00235982 0.0478211 -0.0115731 0.000451832 417.313 417.313 1000.99 
109 1 1 0.13214 0.0228449 0.0237888 0 0 0 -0.0157801 0.00521088 -0.00358955 0.000585193 -0.00152711 -0.00165957 -0.0157801 0.00521088 -0.00358955 347.578 347.578 1000.83 
110 1 1 0.174957 0.0226882 0.00997405 0 0 0 0.0493786 -0.0166136 0.000658183 -0.000809425 0.000324265 0.00119737 0.0493786 -0.0166136 0.000658183 525.731 525.731 1001.25 
111 1 1 0.00998935 0.0338763 0.00996969 0 0 0 -0.00236457 -0.0196851 0.00503688 -0.00516859 0.00280946 -0.00301842 -0.00236457 -0.0196851 0.00503688 524.926 524.926 1001.25 
112 1 1 0.0235322 0.0238751 0.0458419 0 0 0 0.00476206 0.00607121 -0.0608477 -0.00287753 -0.00209504 0.00218608 0.00476206 0.00607121 -0.0608477 357.052 357.052 1000.85 
113 1 1 0.048894 0.0355916 0.00997048 0 0 0 0.0513655 0.0904342 -0.00762512 0.00267986 0.00403783 -0.0159707 0.0513655 0.0904342 -0.00762512 541.544 541.544 1001.28 
114 1 1 0.0536051 0.0221851 0.0099631 0 0 0 0.0529724 0.0091413 -0.000189395 0.00538388 0.00078955 -0.0100128 0.0529724 0.0091413 -0.000189395 650.765 650.765 1001.54 
115 1 1 0.0517178 0.0214312 0.0356119 0 0 0 0.0619245 -0.0237727 -0.00429496 0.00202381 0.00205019 0.00464099 0.0619245 -0.0237727 -0.00429496 470.518 470.518 1001.12 
116 1 1 0.103429 0.036591 0.00996292 0 0 0 0.0907821 -0.0120531 -0.00377247 0.00258344 0.000302553 0.00810884 0.0907821 -0.0120531 -0.00377247 444.046 444.046 1001.05 
117 1 1 0.112955 0.0240449 0.0222819 0 0 0 -0.0156113 -0.0333479 -0.0245408 0.00276813 -0.00107395 -0.00164461 -0.0156113 -0.0333479 -0.0245408 361.164 361.164 1000.86 
118 1 1 0.126626 0.0230051 0.0222425 0 0 0 0.0174164 0.00106318 0.00989171 8.19563e-05 -0.00108796 -0.00213358 0.0174164 0.00106318 0.00989171 351.103 351.103 1000.83 
119 1 1 0.151187 0.0233144 0.00997458 0 0 0 0.0474503 0.00280772 0.00147371 -0.00338307 0.000287621 2.6465e-05 0.0474503 0.00280772 0.00147371 463.435 463.435 1001.1 
120 1 1 0.13231 0.021994 0.0386922 0 0 0 0.0207401 0.0128952 0.0129515 0.000223792 -0.000779822 -0.00153562 0.0207401 0.0128952 0.0129515 262.566 262.566 1000.62 
121 1 1 0.00998982 0.04304 0.00996962 0 0 0 -0.00353962 -0.0157555 0.00997398 -0.00482163 0.00214786 -0.00230999 -0.00353962 -0.0157555 0.00997398 494.392 494.392 1001.17 
122 1 1 0.0228335 0.0344098 0.00996553 0 0 0 -0.00609578 -0.0405739 0.00100304 -0.00340986 0.00120617 -0.00481668 -0.00609578 -0.0405739 0.00100304 472.723 472.723 1001.12 
123 1 1 0.0231389 0.0273045 0.00996239 0 0 0 0.0280284 -0.0263828 0.000216761 -0.00365252 0.00299465 -0.00276033 0.0280284 -0.0263828 0.000216761 505.924 505.924 1001.2 
124 1 1 0.0791749 0.0299687 0.0099612 0 0 0 0.0880575 0.0277941 0.000629503 -0.00124304 0.00353122 0.00368675 0.0880575 0.0277941 0.000629503 441.446 441.446 1001.05 
125 1 1 0.0891686 0.037949 0.00995696 0 0 0 0.100772 0.0303229 -0.00149515 -0.00152452 0.00375357 0.0100002 0.100772 0.0303229 -0.00149515 473.438 473.438 1001.12 
126 1 1 0.125253 0.0298918 0.00997697 0 0 0 0.0544207 0.00192592 -0.003023 -0.000214327 -6.74933e-05 -0.00274413 0.0544207 0.00192592 -0.003023 394.993 394.993 1000.94 
127 1 1 0.16103 0.0364407 0.00997602 0 0 0 0.0585999 0.0300985 0.00186218 -0.00304013 0.000630486 -0.000693224 0.0585999 0.0300985 0.00186218 470.41 470.41 1001.12 
128 1 1 0.143279 0.0427974 0.00997718 0 0 0 0.0774515 -0.0113293 0.000529299 -0.00270814 -1.32239e-05 -0.00274415 0.0774515 -0.0113293 0.000529299 415.8 415.8 1000.99 
129 1 1 0.139017 0.0223996 0.00997684 0 0 0 0.0426306 0.000670355 0.00174095 -0.00196078 0.000592809 -0.00193213 0.0426306 0.000670355 0.00174095 430.053 430.053 1001.02 
130 1 1 0.179298 0.0327737 0.00997368 0 0 0 0.0514194 -0.0201804 0.000944708 -0.00112946 0.000656035 0.000540635 0.0514194 -0.0201804 0.000944708 516.12 516.12 1001.22 
131 1 1 0.00999152 0.0479249 0.00997123 0 0 0 0.00123246 -0.0125871 0.00321345 -0.00590115 0.00244334 -0.00299969 0.00123246 -0.0125871 0.00321345 479.877 479.877 1001.14 
132 1 1 0.0323773 0.0418566 0.00995455 0 0 0 0.0770585 -0.0347977 -0.000188385 -0.0040985 7.00994e-05 0.00435435 0.0770585 -0.0347977 -0.000188385 540.907 540.907 1001.28 
133 1 1 0.0447077 0.0502069 0.00994431 0 0 0 -0.0527252 -0.0134106 -0.0179603 0.00691504 0.00208126 0.0136253 -0.0527252 -0.0134106 -0.0179603 496.032 496.032 1001.18 
134 1 1 0.0860323 0.0509051 0.00997262 0 0 0 0.0670097 0.00351999 -0.00151423 -0.0033255 0.00205253 -0.00270097 0.0670097 0.00351999 -0.00151423 374.361 374.361 1000.89 
135 1 1 0.124448 0.050523 0.00997631 0 0 0 0.0628491 -0.00159669 -0.00389298 0.00143186 0.000235059 -0.00166538 0.0628491 -0.00159669 -0.00389298 403.843 403.843 1000.96 
136 1 1 0.0852522 0.0508447 0.0220669 0 0 0 0.017713 0.00132146 0.0138093 -0.00159061 0.0023903 -0.000581849 0.017713 0.00132146 0.0138093 376.797 376.797 1000.89 
137 1 1 0.114315 0.0504923 0.0221817 0 0 0 0.0459709 -0.0458744 0.00781164 0.00239272 -9.20441e-05 -0.00141093 0.0459709 -0.0458744 0.00781164 373.781 373.781 1000.89 
138 1 1 0.146933 0.0501019 0.00997682 0 0 0 0.0705414 -0.0244174 0.00135985 -0.00279128 -0.000262431 -0.00290711 0.0705414 -0.0244174 0.00135985 423.325 423.325 1001 
139 1 1 0.151356 0.0438453 0.0099767 0 0 0 0.0183175 0.00070508 0.00179368 -0.00217124 -0.000250942 -0.0021889 0.0183175 0.00070508 0.00179368 433.19 433.19 1001.03 
140 1 1 0.156959 0.0521442 0.0227302 0 0 0 0.0413392 0.0306076 0.0244488 -0.00172001 -0.000636582 -0.000125282 0.0413392 0.0306076 0.0244488 369.665 369.665 1000.88 
141 1 1 0.00999052 0.0571174 0.0099712 0 0 0 -0.000142603 -0.0194653 0.0093446 -0.00456502 0.00106665 -0.00250077 -0.000142603 -0.0194653 0.0093446 450.236 450.236 1001.07 
142 1 1 0.0252474 0.0601207 0.00996022 0 0 0 0.017325 -0.0282841 0.00228501 -0.00665619 0.00527487 0.0011682 0.017325 -0.0282841 0.00228501 495.961 495.961 1001.18 
143 1 1 0.0222263 0.0669069 0.00995626 0 0 0 0.00675825 -0.00977346 0.00793317 -0.00449841 0.00560946 0.00631443 0.00675825 -0.00977346 0.00793317 446.505 446.505 1001.06 
144 1 1 0.0812445 0.070597 0.00997318 0 0 0 0.0968337 -0.0250986 0.00115717 -0.00146365 -0.00177321 -0.00245122 0.0968337 -0.0250986 0.00115717 388.364 388.364 1000.92 
145 1 1 0.0933184 0.0646103 0.00996839 0 0 0 0.109814 0.00177723 0.00095205 -0.00102608 0.000340106 0.00095128 0.109814 0.00177723 0.00095205 425.141 425.141 1001.01 
146 1 1 0.126977 0.06997 0.00997668 0 0 0 0.053257 0.0154662 -0.000412966 -0.000990344 -0.000309381 -0.00177898 0.053257 0.0154662 -0.000412966 413.888 413.888 1000.98 
147 1 1 0.156392 0.0564438 0.0099766 0 0 0 0.0346915 0.0139709 0.00230006 -0.0029016 -0.00125823 -0.00152334 0.0346915 0.0139709 0.00230006 455.622 455.622 1001.08 
148 1 1 0.143722 0.0556097 0.00997765 0 0 0 0.0264235 -0.00310669 0.00106355 -0.0019534 -0.00100267 -0.00311434 0.0264235 -0.00310669 0.00106355 420.058 420.058 1001 
149 1 1 0.139793 0.0769609 0.0099757 0 0 0 0.0675341 -0.00300651 0.00286858 -0.00238763 -0.00161036 -0.000839469 0.0675341 -0.00300651 0.00286858 457.522 457.522 1001.09 
150 1 1 0.179837 0.0681446 0.00997209 0 0 0 0.0501562 -0.00336196 0.00181987 -0.0015805 -0.00157331 0.0009858 0.0501562 -0.00336196 0.00181987 554.666 554.666 1001.32 
151 1 1 0.00997768 0.0660173 0.00997594 0 0 0 0.00276073 0.00784655 0.00865253 0.00833706 0.00115679 -0.00765807 0.00276073 0.00784655 0.00865253 448.794 448.794 1001.07 
152 1 1 0.0228066 0.0772723 0.0312103 0 0 0 0.0637847 -0.0102143 -0.091695 0.00202534 0.00543409 -0.00682496 0.0637847 -0.0102143 -0.091695 387.414 387.414 1000.92 
153 1 1 0.0553096 0.0716119 0.0099688 0 0 0 0.100928 -0.0103053 0.00159816 0.00166096 0.00299149 -0.00275216 0.100928 -0.0103053 0.00159816 390.144 390.144 1000.93 
154 1 1 0.0555528 0.0780808 0.00997108 0 0 0 0.0702203 0.0268678 0.00265447 0.000408103 0.00258017 -0.0023876 0.0702203 0.0268678 0.00265447 356.725 356.725 1000.85 
155 1 1 0.0487477 0.0746935 0.0398923 0 0 0 0.0734822 0.000483333 -0.0221285 0.000292512 0.00226465 -0.00209457 0.0734822 0.000483333 -0.0221285 300.428 300.428 1000.71 
156 1 1 0.105308 0.0656161 0.00997101 0 0 0 0.0824302 0.00610438 -0.00161007 0.000430818 0.00151457 0.000615886 0.0824302 0.00610438 -0.00161007 429.34 429.34 1001.02 
157 1 1 0.1136 0.0760335 0.0218336 0 0 0 0.0309576 0.00403194 0.0194046 0.000932841 0.000929594 -0.00134883 0.0309576 0.00403194 0.0194046 356.715 356.715 1000.85 
158 1 1 0.128332 0.0776641 0.0229791 0 0 0 0.0284783 -0.00372224 -0.0050068 -0.000457381 -6.70856e-05 -0.00122599 0.0284783 -0.00372224 -0.0050068 353.172 353.172 1000.84 
159 1 1 0.151619 0.0761864 0.00997307 0 0 0 0.0634006 -0.0252997 0.00288135 -0.00381342 -0.00184048 0.000698092 0.0634006 -0.0252997 0.00288135 494.356 494.356 1001.17 
160 1 1 0.130444 0.0793683 0.0399918 0 0 0 0.0294225 0.00610169 0.046271 -0.00023839 -0.000710685 -0.000715649 0.0294225 0.00610169 0.046271 263.744 263.744 1000.63 
161 1 1 0.00997775 0.0785415 0.0210068 0 0 0 0.00831888 -0.0214994 -0.0058764 0.00977999 0.00746642 -0.00637799 0.00831888 -0.0214994 -0.0058764 520.326 520.326 1001.23 
162 1 1 0.00998247 0.0764732 0.00996029 0 0 0 0.00178358 0.0220353 0.0150225 0.00738757 0.00915665 0.00835394 0.00178358 0.0220353 0.0150225 432.02 432.02 1001.03 
163 1 1 0.0227313 0.0809842 0.0178022 0 0 0 0.0244998 -0.0344783 -0.0696833 0.00187942 0.0110106 -0.00762006 0.0244998 -0.0344783 -0.0696833 316.364 316.364 1000.75 
164 1 1 0.0602591 0.0700486 0.0565114 0 0 0 0.0652107 -0.032951 -0.0216423 0.00123038 0.000703688 -0.00150884 0.0652107 -0.032951 -0.0216423 212.935 212.935 1000.51 
165 1 1 0.0900501 0.0662069 0.0502745 0 0 0 0.0635933 -0.00587732 -0.00221948 0.000440416 0.000489023 -0.00133414 0.0635933 -0.00587732 -0.00221948 230.982 230.982 1000.55 
166 1 1 0.134085 0.077691 0.0099761 0 0 0 0.0543714 -0.0166436 0.0022799 -0.00278929 -0.00168577 -0.000974134 0.0543714 -0.0166436 0.0022799 443.386 443.386 1001.05 
167 1 1 0.110736 0.0784778 0.0367778 0 0 0 0.0521336 -0.0061949 0.017284 0.000419995 3.83559e-06 -0.00196407 0.0521336 -0.0061949 0.017284 284.45 284.45 1000.68 
168 1 1 0.144957 0.0628858 0.00997744 0 0 0 0.0596235 -0.0035227 0.00161963 -0.00238341 -0.000503668 -0.00243395 0.0596235 -0.0035227 0.00161963 435.177 435.177 1001.03 
169 1 1 0.13717 0.0776346 0.0230711 0 0 0 0.00253902 0.0176247 -0.00721268 -0.00134621 -0.000509528 -0.00104279 0.00253902 0.0176247 -0.00721268 365.833 365.833 1000.87 
170 1 1 0.174148 0.0784298 0.00997214 0 0 0 0.052858 -0.00112195 0.00243811 -0.0020947 -0.00243525 0.00167381 0.052858 -0.00112195 0.00243811 573.598 573.598 1001.36 
171 1 1 0.0100176 0.0900232 0.00996573 0 0 0 -0.0047461 0.00504134 0.0371281 -0.0112545 -0.00892483 0.0107533 -0.0047461 0.00504134 0.0371281 245.94 245.94 1000.58 
172 1 1 0.0221967 0.0900276 0.00998978 0 0 0 -0.0376018 -0.0201613 0.00574894 0.0039106 -0.0149636 -0.0111895 -0.0376018 -0.0201613 0.00574894 86.4507 86.4507 1000.21 
173 1 1 0.0405762 0.0900186 0.00998438 0 0 0 0.0472992 -0.0145107 -0.00941384 -0.00707934 -0.00277325 -0.00952588 0.0472992 -0.0145107 -0.00941384 285.179 285.179 1000.68 
174 1 1 0.0509646 0.0900053 0.00996666 0 0 0 0.0751312 -0.00530629 0.00520643 -0.00422523 0.0105697 0.00644172 0.0751312 -0.00530629 0.00520643 330.813 330.813 1000.79 
175 1 1 0.0830814 0.0900171 0.00996413 0 0 0 0.0749094 -0.00682727 -0.00424816 -0.000769168 0.00142465 0.0055361 0.0749094 -0.00682727 -0.00424816 448.427 448.427 1001.06 
176 1 1 0.107935 0.0900111 0.00996938 0 0 0 0.0656059 -0.00953517 -0.00661848 -0.000157495 0.00682602 0.00586695 0.0656059 -0.00953517 -0.00661848 426.819 426.819 1001.01 
177 1 1 0.117056 0.0900044 0.00996408 0 0 0 0.0619683 -0.00299208 0.00371304 -0.00033134 0.013639 0.0111038 0.0619683 -0.00299208 0.00371304 426.933 426.933 1001.01 