ITEM: TIMESTEP
128000
ITEM: NUMBER OF ATOMS
2655
ITEM: BOX BOUNDS ff ff ff
0 0.5
0 0.1
0 0.5
ITEM: ATOMS id type type x y z ix iy iz vx vy vz fx fy fz vx vy vz p p rho 
1 1 1 0.00999692 0.0099927 0.00997682 0 0 0 -0.00453713 0.0176676 -0.0222565 -0.0101035 -0.00741928 0.000147832 -0.00453713 0.0176676 -0.0222565 353.522 353.522 1000.84 
2 1 1 0.0291048 0.00997433 0.00998678 0 0 0 0.0320211 0.000107925 -0.00288978 -0.000939605 0.00952524 -0.0146 0.0320211 0.000107925 -0.00288978 348.422 348.422 1000.83 
3 1 1 0.0237432 0.00997243 0.00997543 0 0 0 0.0175777 0.0084875 -0.0110273 -0.000372247 0.0116396 -0.00427683 0.0175777 0.0084875 -0.0110273 335.239 335.239 1000.8 
4 1 1 0.061849 0.00997814 0.0099861 0 0 0 0.0452877 -0.00945501 0.00463399 0.00247582 0.00710087 -0.0156593 0.0452877 -0.00945501 0.00463399 296.925 296.925 1000.71 
5 1 1 0.067759 0.00998877 0.00996478 0 0 0 0.0722551 0.000755939 -0.000933808 0.000687974 -0.00324373 0.00497859 0.0722551 0.000755939 -0.000933808 308.149 308.149 1000.73 
6 1 1 0.0869447 0.00997759 0.0099839 0 0 0 0.0976169 0.00257785 -0.00908431 0.000558904 0.00854156 -0.0115056 0.0976169 0.00257785 -0.00908431 271.347 271.347 1000.64 
7 1 1 0.101222 0.00999022 0.00996742 0 0 0 0.0779953 0.00522349 -0.00492287 0.000739987 -0.00472205 0.00607291 0.0779953 0.00522349 -0.00492287 314.297 314.297 1000.75 
8 1 1 0.11172 0.00998787 0.00997411 0 0 0 0.0811409 -0.00265843 0.00374624 -0.00122923 -0.00154763 -0.000113866 0.0811409 -0.00265843 0.00374624 349.996 349.996 1000.83 
9 1 1 0.120755 0.00998384 0.00998135 0 0 0 0.0598975 -0.00253869 0.00310494 0.000398996 0.00187975 -0.00609136 0.0598975 -0.00253869 0.00310494 340.637 340.637 1000.81 
10 1 1 0.135651 0.00998128 0.00998012 0 0 0 0.0509286 -0.000250419 0.000209212 -0.00100838 0.00482651 -0.00564347 0.0509286 -0.000250419 0.000209212 364.527 364.527 1000.87 
11 1 1 0.00998399 0.0212597 0.0099849 0 0 0 0.00679446 0.0106835 -0.0146503 -0.000544081 -0.00375116 -0.0110259 0.00679446 0.0106835 -0.0146503 400.052 400.052 1000.95 
12 1 1 0.0317374 0.0339586 0.00996661 0 0 0 -0.001971 -0.0118688 -0.00105589 0.000365709 -0.00112904 -0.000269079 -0.001971 -0.0118688 -0.00105589 382.611 382.611 1000.91 
13 1 1 0.0218421 0.022951 0.00996484 0 0 0 -0.0113897 -0.00237764 0.000144963 0.000623812 -0.00262591 0.00211349 -0.0113897 -0.00237764 0.000144963 381.064 381.064 1000.9 
14 1 1 0.0815949 0.0223025 0.0099695 0 0 0 0.026554 0.00821945 -0.000479004 0.00152488 -0.00152741 -0.000797344 0.026554 0.00821945 -0.000479004 328.856 328.856 1000.78 
15 1 1 0.0660177 0.0221709 0.00997034 0 0 0 0.0374164 -0.0111113 -0.000694293 0.00240301 -0.00122102 -0.00231236 0.0374164 -0.0111113 -0.000694293 323.035 323.035 1000.77 
16 1 1 0.0964787 0.0231348 0.00996841 0 0 0 0.0853758 -0.0391706 -0.000311814 -0.000745303 -0.000145832 -3.77075e-05 0.0853758 -0.0391706 -0.000311814 354.086 354.086 1000.84 
17 1 1 0.0983839 0.0414345 0.00996905 0 0 0 0.0891288 -0.0188907 -0.000103152 0.000298983 -0.000706904 -0.000686499 0.0891288 -0.0188907 -0.000103152 320.858 320.858 1000.76 
18 1 1 0.126945 0.0321045 0.00997162 0 0 0 0.0900845 -0.0163161 0.000327287 -0.000596286 -0.000757174 -0.000338339 0.0900845 -0.0163161 0.000327287 326.911 326.911 1000.78 
19 1 1 0.108781 0.0232338 0.00997155 0 0 0 0.0964859 -0.00698208 0.00171016 0.00068192 -0.00162832 -0.000304449 0.0964859 -0.00698208 0.00171016 310.737 310.737 1000.74 
20 1 1 0.14707 0.0219699 0.00997279 0 0 0 0.0916835 -0.00100411 -0.000551866 -0.000799162 0.00017487 0.000702675 0.0916835 -0.00100411 -0.000551866 344.555 344.555 1000.82 
21 1 1 0.00998843 0.0284567 0.00996584 0 0 0 -0.00506842 0.00142649 0.00187955 -0.0053212 -0.00306001 0.00632232 -0.00506842 0.00142649 0.00187955 441.822 441.822 1001.05 
22 1 1 0.0382134 0.0359435 0.00996599 0 0 0 0.0146285 -0.0141799 -0.000109921 0.000163875 -0.0013301 0.000626686 0.0146285 -0.0141799 -0.000109921 364.118 364.118 1000.86 
23 1 1 0.0593223 0.0427436 0.00996687 0 0 0 0.0491627 0.0262135 -0.000535849 0.00138479 -0.00011993 0.000236046 0.0491627 0.0262135 -0.000535849 345.914 345.914 1000.82 
24 1 1 0.0813805 0.0296792 0.0099704 0 0 0 0.0625185 0.0112417 -0.000571199 0.00108024 -0.000611416 -0.00147295 0.0625185 0.0112417 -0.000571199 346.561 346.561 1000.82 
25 1 1 0.103521 0.037698 0.00997013 0 0 0 0.0690983 0.012212 0.000141393 -0.00046475 0.000140937 -0.000974469 0.0690983 0.012212 0.000141393 347.07 347.07 1000.82 
26 1 1 0.102553 0.0216711 0.00997026 0 0 0 0.0538017 0.0115017 0.000184175 0.00100611 -9.23385e-07 -8.59851e-05 0.0538017 0.0115017 0.000184175 332.419 332.419 1000.79 
27 1 1 0.125219 0.0453201 0.00997179 0 0 0 0.0892322 0.0055854 0.0003904 0.000223346 -0.00062047 -0.00064924 0.0892322 0.0055854 0.0003904 359.49 359.49 1000.85 
28 1 1 0.104793 0.0309552 0.00997095 0 0 0 0.099347 -0.0169575 -0.000105424 -0.000477359 -0.00103185 -0.000972772 0.099347 -0.0169575 -0.000105424 342.142 342.142 1000.81 
29 1 1 0.134627 0.0223816 0.00997386 0 0 0 0.0991506 0.0144606 0.000670714 -0.000705492 -0.000496221 -0.00126073 0.0991506 0.0144606 0.000670714 354.418 354.418 1000.84 
30 1 1 0.138809 0.0308437 0.00997216 0 0 0 0.0738261 0.018857 0.000615964 -1.5786e-05 0.000151528 -0.000222828 0.0738261 0.018857 0.000615964 344.387 344.387 1000.82 
31 1 1 0.00998168 0.038333 0.00997118 0 0 0 -0.00411366 0.00829904 0.00539838 0.00287415 -0.00257751 -0.000118276 -0.00411366 0.00829904 0.00539838 450.042 450.042 1001.07 
32 1 1 0.0231217 0.0423635 0.00996257 0 0 0 -0.0142255 0.00395043 0.000804231 -0.000125469 -0.00162256 0.000576499 -0.0142255 0.00395043 0.000804231 383.248 383.248 1000.91 
33 1 1 0.0486033 0.0421661 0.00996561 0 0 0 0.0239009 0.00293399 -0.00025504 0.000597895 -0.000485101 0.000188524 0.0239009 0.00293399 -0.00025504 375.715 375.715 1000.89 
34 1 1 0.0668016 0.035726 0.00996716 0 0 0 0.0782968 0.00795839 -0.000984287 0.000960003 -0.00134618 -0.000360175 0.0782968 0.00795839 -0.000984287 310.215 310.215 1000.74 
35 1 1 0.0721151 0.0406691 0.00996739 0 0 0 0.0861711 -0.00713515 -0.000717062 0.000655902 -0.00119352 -0.000494835 0.0861711 -0.00713515 -0.000717062 345.894 345.894 1000.82 
36 1 1 0.0934856 0.0309086 0.00997091 0 0 0 0.104318 0.00947966 -0.000287466 0.000688004 -0.000651199 -0.00132802 0.104318 0.00947966 -0.000287466 323.52 323.52 1000.77 
37 1 1 0.114733 0.0373105 0.00997185 0 0 0 0.0868338 0.0053884 0.000260518 0.000187303 -8.89418e-05 -0.000851242 0.0868338 0.0053884 0.000260518 340.783 340.783 1000.81 
38 1 1 0.122165 0.0383698 0.00997136 0 0 0 0.0775781 0.0147812 0.000294339 -0.000157079 -0.000519199 -0.000481459 0.0775781 0.0147812 0.000294339 330.878 330.878 1000.79 
39 1 1 0.143524 0.0376009 0.00997262 0 0 0 0.101604 0.00241804 0.000620935 -0.000860048 -8.8146e-05 -0.000575168 0.101604 0.00241804 0.000620935 346.866 346.866 1000.82 
40 1 1 0.162451 0.0375949 0.00997396 0 0 0 0.0619774 0.0122504 0.000441685 -0.000527245 0.000422471 -0.000237033 0.0619774 0.0122504 0.000441685 352.301 352.301 1000.84 
41 1 1 0.00998523 0.0520954 0.00996383 0 0 0 0.00529084 0.00625675 -0.00418181 -0.00176373 -0.00123813 0.00526162 0.00529084 0.00625675 -0.00418181 485.685 485.685 1001.15 
42 1 1 0.0340664 0.0543618 0.00996415 0 0 0 0.00844866 0.0216891 0.000103852 0.000981938 -0.00217088 0.000412656 0.00844866 0.0216891 0.000103852 391.359 391.359 1000.93 
43 1 1 0.0480788 0.0494102 0.00996397 0 0 0 0.0261675 0.00141337 -0.000480077 0.00147581 -0.00159 0.000175636 0.0261675 0.00141337 -0.000480077 383.821 383.821 1000.91 
44 1 1 0.0689672 0.0477613 0.00996621 0 0 0 0.0529725 0.013411 -0.000712734 0.00201883 -0.000911351 -0.00024707 0.0529725 0.013411 -0.000712734 347.215 347.215 1000.82 
45 1 1 0.0816852 0.0468015 0.00996844 0 0 0 0.0941792 -0.00703692 -0.000484947 -0.00032282 0.000306564 -0.000737857 0.0941792 -0.00703692 -0.000484947 331.707 331.707 1000.79 
46 1 1 0.0876934 0.0518169 0.00996881 0 0 0 0.0626543 0.00830419 -0.000274448 0.000793941 -0.000105526 -0.00112953 0.0626543 0.00830419 -0.000274448 352.722 352.722 1000.84 
47 1 1 0.0932383 0.0480694 0.00996799 0 0 0 0.0790498 0.0101941 -0.00046386 0.0015855 0.000259798 -0.000567616 0.0790498 0.0101941 -0.00046386 320.01 320.01 1000.76 
48 1 1 0.121396 0.0503929 0.00997239 0 0 0 0.0758694 0.00755732 0.000227531 -0.000866484 0.000480365 -0.000794077 0.0758694 0.00755732 0.000227531 339.773 339.773 1000.81 
49 1 1 0.107225 0.0504608 0.00996936 0 0 0 0.069633 -0.0142922 -6.08795e-05 0.000325954 -0.00163547 -0.000709622 0.069633 -0.0142922 -6.08795e-05 335.394 335.394 1000.8 
50 1 1 0.151164 0.0498831 0.00997332 0 0 0 0.0371878 -0.00409656 0.000495887 -0.0021021 -2.18117e-05 -0.000448933 0.0371878 -0.00409656 0.000495887 348.522 348.522 1000.83 
51 1 1 0.00997987 0.062027 0.00996962 0 0 0 -0.00241034 0.00243042 0.00317333 0.00205452 -0.00192149 -0.000735081 -0.00241034 0.00243042 0.00317333 506.926 506.926 1001.2 
52 1 1 0.0232841 0.057742 0.00996028 0 0 0 -0.0143759 -0.0121839 0.000117976 0.000114482 -0.00297062 0.00192746 -0.0143759 -0.0121839 0.000117976 418.19 418.19 1000.99 
53 1 1 0.054891 0.059851 0.00996307 0 0 0 0.0640604 0.0125641 -0.000405802 0.000902702 -0.000877644 0.000788505 0.0640604 0.0125641 -0.000405802 372.083 372.083 1000.88 
54 1 1 0.0695965 0.0633086 0.00996506 0 0 0 0.0816251 0.0178925 -0.00076086 0.00135756 -0.000779959 -0.000127153 0.0816251 0.0178925 -0.00076086 353.415 353.415 1000.84 
55 1 1 0.0764512 0.0590261 0.00996589 0 0 0 0.0764447 0.0118302 -0.00060621 -0.000836541 -0.000988319 -0.000461374 0.0764447 0.0118302 -0.00060621 360.384 360.384 1000.86 
56 1 1 0.0938106 0.0712623 0.00997048 0 0 0 0.0926265 0.0192026 -0.000616736 0.000387677 -0.00129184 -0.00107162 0.0926265 0.0192026 -0.000616736 347.747 347.747 1000.83 
57 1 1 0.119503 0.0633813 0.00997171 0 0 0 0.086007 -0.00893466 1.05567e-05 -0.000354861 -4.631e-05 -0.000911839 0.086007 -0.00893466 1.05567e-05 353.2 353.2 1000.84 
58 1 1 0.12542 0.0611955 0.00997184 0 0 0 0.092765 0.0174568 7.31757e-05 0.000258211 0.000695424 -0.000588345 0.092765 0.0174568 7.31757e-05 350.992 350.992 1000.83 
59 1 1 0.143303 0.0611092 0.00997248 0 0 0 0.0939862 -0.00691323 0.000402254 0.000131562 -1.39383e-05 -0.000411056 0.0939862 -0.00691323 0.000402254 357.333 357.333 1000.85 
60 1 1 0.156052 0.0634834 0.00997398 0 0 0 0.0710455 -0.00786989 -1.8761e-05 -0.000648779 -0.000125534 -0.00011207 0.0710455 -0.00786989 -1.8761e-05 350.424 350.424 1000.83 
61 1 1 0.00998201 0.0717346 0.00996458 0 0 0 0.00342931 -0.00168873 -0.00392436 -0.000334911 -0.00197686 0.00437368 0.00342931 -0.00168873 -0.00392436 512.683 512.683 1001.22 
62 1 1 0.036731 0.0650073 0.00996131 0 0 0 0.0166526 -0.00405076 0.000268783 0.00234526 -0.00124626 0.00124332 0.0166526 -0.00405076 0.000268783 419.206 419.206 1001 
63 1 1 0.0646599 0.0591634 0.00996476 0 0 0 0.0801927 -0.0181991 -0.000545424 0.0018421 -0.000370499 0.000135384 0.0801927 -0.0181991 -0.000545424 344.205 344.205 1000.82 
64 1 1 0.0824174 0.0695509 0.00996864 0 0 0 0.0761826 -0.0111462 -0.000666983 0.00171232 0.000721649 -0.00043773 0.0761826 -0.0111462 -0.000666983 359.608 359.608 1000.85 
65 1 1 0.107252 0.0631336 0.00997098 0 0 0 0.0768029 0.00142593 -0.000168088 0.000548011 0.00031976 -0.00084188 0.0768029 0.00142593 -0.000168088 353.841 353.841 1000.84 
66 1 1 0.102716 0.0774068 0.00996974 0 0 0 0.102492 0.0140059 -0.000246009 0.000851651 -0.00034978 0.000234781 0.102492 0.0140059 -0.000246009 351.594 351.594 1000.84 
67 1 1 0.128198 0.0554229 0.00997255 0 0 0 0.0514227 -0.005254 0.000281867 0.000545826 -0.000687353 -0.000470689 0.0514227 -0.005254 0.000281867 324.079 324.079 1000.77 
68 1 1 0.106165 0.0695366 0.00997099 0 0 0 0.0699908 0.0202319 -0.000362456 0.000926673 0.000221849 -0.000517089 0.0699908 0.0202319 -0.000362456 341.307 341.307 1000.81 
69 1 1 0.135119 0.0779933 0.00997303 0 0 0 0.0869347 -0.00205052 -0.00048118 -0.00134945 0.000217723 -0.000470866 0.0869347 -0.00205052 -0.00048118 373.361 373.361 1000.89 
70 1 1 0.143954 0.0700789 0.0099738 0 0 0 0.0926477 -0.00131 0.000468427 0.000465783 -0.000119675 -0.000466425 0.0926477 -0.00131 0.000468427 320.328 320.328 1000.76 
71 1 1 0.00996877 0.0787766 0.00996403 0 0 0 0.00703232 0.00252109 -0.00428669 0.0123635 0.000964112 0.00407322 0.00703232 0.00252109 -0.00428669 533.067 533.067 1001.26 
72 1 1 0.031308 0.0630121 0.00996227 0 0 0 0.01559 -0.0181668 0.000148792 0.000974745 -0.00159243 0.00109148 0.01559 -0.0181668 0.000148792 433.611 433.611 1001.03 
73 1 1 0.0223516 0.0783702 0.00996009 0 0 0 0.00243202 0.0059347 -0.00100617 0.000122437 -0.00144983 -0.000918099 0.00243202 0.0059347 -0.00100617 477.597 477.597 1001.13 
74 1 1 0.0814934 0.0776495 0.00996614 0 0 0 0.0668569 0.00602334 0.00026097 0.00183828 0.000406609 0.000653541 0.0668569 0.00602334 0.00026097 350.044 350.044 1000.83 
75 1 1 0.0665626 0.0773951 0.00996537 0 0 0 0.0621849 -0.00820813 -0.000249705 0.00239195 -0.000438197 1.99646e-05 0.0621849 -0.00820813 -0.000249705 368.271 368.271 1000.87 
76 1 1 0.095642 0.0780327 0.00996911 0 0 0 0.067273 0.0113086 -0.000719621 0.000902351 -0.000106021 -0.000209465 0.067273 0.0113086 -0.000719621 370.97 370.97 1000.88 
77 1 1 0.0991945 0.0595058 0.00996865 0 0 0 0.100296 0.00850964 -0.000439896 0.000127973 -0.000101643 -0.000167508 0.100296 0.00850964 -0.000439896 341.834 341.834 1000.81 
78 1 1 0.130518 0.0694089 0.0099723 0 0 0 0.0922474 -0.0028965 9.22279e-05 -1.51686e-05 -0.000287269 -0.000503422 0.0922474 -0.0028965 9.22279e-05 349.052 349.052 1000.83 
79 1 1 0.108944 0.0783663 0.00997197 0 0 0 0.117541 -0.00889379 -0.000156209 0.000574896 -0.000672688 -0.0011458 0.117541 -0.00889379 -0.000156209 354.413 354.413 1000.84 
80 1 1 0.148052 0.0787873 0.00997188 0 0 0 0.0856048 0.00826238 -0.000151421 -0.000632884 -0.000681211 0.00187982 0.0856048 0.00826238 -0.000151421 359.893 359.893 1000.85 
81 1 1 0.00998077 0.090006 0.00995151 0 0 0 0.0155125 0.00821154 -0.0134813 0.00195175 0.0132002 0.0188902 0.0155125 0.00821154 -0.0134813 499.548 499.548 1001.19 
82 1 1 0.0293393 0.090019 0.00996803 0 0 0 0.0295981 0.00862291 0.0115971 0.00199205 0.00097756 -0.00229156 0.0295981 0.00862291 0.0115971 482.301 482.301 1001.14 
83 1 1 0.0239215 0.0900228 0.00996838 0 0 0 0.0216165 -0.0090877 -0.0120054 0.000793131 -0.00263848 -0.00390337 0.0216165 -0.0090877 -0.0120054 462.983 462.983 1001.1 
84 1 1 0.0636347 0.090009 0.00996088 0 0 0 0.0771774 0.00733487 0.0127473 0.00209346 0.00819253 0.00819653 0.0771774 0.00733487 0.0127473 415.944 415.944 1000.99 
85 1 1 0.0689042 0.0900254 0.00997737 0 0 0 0.0636931 -1.97241e-05 -0.00512724 0.000780212 -0.00916 -0.0078067 0.0636931 -1.97241e-05 -0.00512724 398.812 398.812 1000.95 
86 1 1 0.0878296 0.090009 0.00996059 0 0 0 0.084728 -0.0014225 -0.00117279 0.00175004 0.00688983 0.00950976 0.084728 -0.0014225 -0.00117279 346.889 346.889 1000.82 
87 1 1 0.102675 0.0900214 0.00997793 0 0 0 0.0716658 -0.00665482 -0.0127364 0.00148232 -0.005812 -0.00564809 0.0716658 -0.00665482 -0.0127364 325.054 325.054 1000.77 
88 1 1 0.113325 0.090021 0.00997589 0 0 0 0.0886818 -0.00746804 -0.00985865 -0.000416119 -0.00510314 -0.00261831 0.0886818 -0.00746804 -0.00985865 334.872 334.872 1000.8 
89 1 1 0.122571 0.0900089 0.00997135 0 0 0 0.079223 0.00467732 0.00664909 0.000429077 0.00560936 0.00275398 0.079223 0.00467732 0.00664909 344.307 344.307 1000.82 
90 1 1 0.13747 0.0900215 0.00998505 0 0 0 0.0498196 0.00051813 -0.00221465 1.21807e-05 -0.00694626 -0.00965365 0.0498196 0.00051813 -0.00221465 343.26 343.26 1000.82 
91 1 1 0.00998625 0.00996998 0.00996051 0 0 0 -0.00611887 0.00291393 0.0044283 0.000539138 0.0153925 0.0166645 -0.00611887 0.00291393 0.0044283 361.233 361.233 1000.86 
92 1 1 0.0215543 0.00998789 0.00995586 0 0 0 0.00839409 -0.00281628 0.00907996 -0.000728249 -0.00377313 0.0151934 0.00839409 -0.00281628 0.00907996 356.823 356.823 1000.85 
93 1 1 0.0345146 0.0099948 0.00995546 0 0 0 0.0177268 0.002684 0.00375592 -0.000608482 -0.0107907 0.0174082 0.0177268 0.002684 0.00375592 366.713 366.713 1000.87 
94 1 1 0.0430484 0.00997994 0.00998257 0 0 0 0.0306163 -0.0120379 0.0104913 0.000970234 0.00434987 -0.0107295 0.0306163 -0.0120379 0.0104913 356.531 356.531 1000.85 
95 1 1 0.0730155 0.00997713 0.00998805 0 0 0 0.0501297 -0.00690749 0.00140937 -0.00101004 0.00822953 -0.0168293 0.0501297 -0.00690749 0.00140937 325.499 325.499 1000.77 
96 1 1 0.0968566 0.00998721 0.00996732 0 0 0 0.0559724 0.0104565 -0.0127137 -0.000410929 -0.00180133 0.0056218 0.0559724 0.0104565 -0.0127137 325.806 325.806 1000.77 
97 1 1 0.106695 0.00998204 0.00998266 0 0 0 0.102958 -0.00883028 0.00755282 -0.000647157 0.00434691 -0.00919247 0.102958 -0.00883028 0.00755282 316.51 316.51 1000.75 
98 1 1 0.116391 0.00999351 0.00996692 0 0 0 0.0575204 0.00542306 -0.00302519 -0.000881684 -0.00776545 0.00819779 0.0575204 0.00542306 -0.00302519 364.181 364.181 1000.86 
99 1 1 0.125893 0.00998393 0.00997751 0 0 0 0.0786276 0.0049473 -0.00556008 -0.000141305 0.00234031 -0.00261303 0.0786276 0.0049473 -0.00556008 323.753 323.753 1000.77 
100 1 1 0.130647 0.00999201 0.00996889 0 0 0 0.0847199 5.89721e-05 0.00347767 -0.00110867 -0.00595642 0.00606183 0.0847199 5.89721e-05 0.00347767 361.891 361.891 1000.86 
101 1 1 0.00997787 0.0216922 0.0228042 0 0 0 -0.000815891 -0.0055201 -0.00129296 -0.00146078 -0.00357299 0.000348415 -0.000815891 -0.0055201 -0.00129296 436.658 436.658 1001.04 
102 1 1 0.00998672 0.0226118 0.00997942 0 0 0 -0.00771706 0.0197292 0.00619853 -0.00354164 -0.00282073 -0.00595573 -0.00771706 0.0197292 0.00619853 425.924 425.924 1001.01 
103 1 1 0.0185935 0.0228312 0.0211049 0 0 0 0.0076669 0.0216973 -0.00960908 0.000263575 -0.00225779 0.00038237 0.0076669 0.0216973 -0.00960908 469.706 469.706 1001.11 
104 1 1 0.0624412 0.0239641 0.0348258 0 0 0 -0.110257 -0.0203542 -0.0145187 0.000202226 -0.00188009 0.000292552 -0.110257 -0.0203542 -0.0145187 332.865 332.865 1000.79 
105 1 1 0.0866129 0.0323511 0.0593475 0 0 0 -0.085596 0.060529 -0.0111235 0.00250586 -1.52029e-06 -0.00174142 -0.085596 0.060529 -0.0111235 143.453 143.453 1000.34 
106 1 1 0.122302 0.0223246 0.0099705 0 0 0 0.0887606 0.0181225 0.00173564 0.000776488 -9.93629e-05 0.00120671 0.0887606 0.0181225 0.00173564 324.021 324.021 1000.77 
107 1 1 0.112398 0.0228576 0.0316809 0 0 0 -0.108954 -0.00994357 -0.0206534 0.000843241 -0.000462104 -0.000479918 -0.108954 -0.00994357 -0.0206534 294.07 294.07 1000.7 
108 1 1 0.133664 0.0363076 0.00997149 0 0 0 0.0817615 0.0099468 0.000481085 0.000208777 -0.000232773 -0.000538994 0.0817615 0.0099468 0.000481085 338.059 338.059 1000.8 
109 1 1 0.137983 0.0222119 0.0228391 0 0 0 -0.0803905 -0.0142956 0.00204588 0.000278495 -0.000416514 -0.00090583 -0.0803905 -0.0142956 0.00204588 341.521 341.521 1000.81 
110 1 1 0.167175 0.0224098 0.00997398 0 0 0 0.0665497 0.0176416 0.000715208 -0.000368773 0.000513215 -0.000164852 0.0665497 0.0176416 0.000715208 377.418 377.418 1000.9 
111 1 1 0.00998333 0.0339826 0.00996931 0 0 0 -0.00223486 -0.0100059 0.00153247 0.000850213 -0.00221504 0.00219658 -0.00223486 -0.0100059 0.00153247 443.623 443.623 1001.05 
112 1 1 0.0207483 0.0221397 0.0439836 0 0 0 -0.00513441 0.0290074 0.099924 -0.00178441 -0.0032848 0.00194091 -0.00513441 0.0290074 0.099924 222.184 222.184 1000.53 
113 1 1 0.0432194 0.0316117 0.00996802 0 0 0 0.0404235 0.0225252 1.05174e-05 0.00101391 -0.00182895 0.000139215 0.0404235 0.0225252 1.05174e-05 359.94 359.94 1000.85 
114 1 1 0.0461501 0.0225955 0.00996829 0 0 0 0.0402096 0.0075606 -1.56418e-05 0.000599515 -0.00104107 -0.000439319 0.0402096 0.0075606 -1.56418e-05 335.824 335.824 1000.8 
115 1 1 0.0510589 0.0223603 0.0329622 0 0 0 -0.0307215 -0.0432713 0.0449954 -0.000209283 -0.000544721 -0.000324303 -0.0307215 -0.0432713 0.0449954 349.038 349.038 1000.83 
116 1 1 0.0906238 0.0364448 0.00997007 0 0 0 0.0958215 -0.0287463 -0.00013259 0.00192075 -0.00112691 -0.000856208 0.0958215 -0.0287463 -0.00013259 306.664 306.664 1000.73 
117 1 1 0.117586 0.0256988 0.0211027 0 0 0 -0.0703018 -0.0152075 0.0105576 -0.000148633 0.000352229 -0.000460453 -0.0703018 -0.0152075 0.0105576 382.615 382.615 1000.91 
118 1 1 0.131294 0.0219922 0.0207847 0 0 0 -0.0564595 0.0103416 -0.0174606 -5.80322e-06 0.000499576 -0.000667224 -0.0564595 0.0103416 -0.0174606 372.201 372.201 1000.88 
119 1 1 0.141093 0.0228807 0.00997404 0 0 0 0.0963727 0.0100306 0.00102767 -0.000265397 -0.00039142 -0.000391235 0.0963727 0.0100306 0.00102767 334.802 334.802 1000.8 
120 1 1 0.136153 0.0219682 0.0365482 0 0 0 -0.0902481 -0.00628665 0.000325071 0.000543328 -0.000455527 -0.000403843 -0.0902481 -0.00628665 0.000325071 231.186 231.186 1000.55 
121 1 1 0.00998 0.0429304 0.00997358 0 0 0 -0.00389649 0.000955525 0.00539891 0.00436244 -0.00240305 -0.00284707 -0.00389649 0.000955525 0.00539891 471.4 471.4 1001.12 
122 1 1 0.0235323 0.0359583 0.00996621 0 0 0 0.0364074 -0.0112336 0.00224993 0.000377945 -0.00127447 -0.000820072 0.0364074 -0.0112336 0.00224993 392.517 392.517 1000.93 
123 1 1 0.0222203 0.0302802 0.00996373 0 0 0 -0.000246394 -0.0123313 0.00493341 0.00110004 -0.00119719 0.00391965 -0.000246394 -0.0123313 0.00493341 401.711 401.711 1000.95 
124 1 1 0.0706766 0.0279124 0.00996927 0 0 0 0.0778674 0.00920028 0.00033889 0.00020113 -0.000815933 -0.00120227 0.0778674 0.00920028 0.00033889 313.528 313.528 1000.74 
125 1 1 0.0782032 0.0360187 0.00996871 0 0 0 0.0695888 -0.00233364 -0.000395342 0.0004034 0.000103252 -0.000817643 0.0695888 -0.00233364 -0.000395342 374.962 374.962 1000.89 
126 1 1 0.115532 0.0302413 0.00997294 0 0 0 0.0692095 -0.00668109 0.000974654 0.000140919 -0.000471621 -0.0016064 0.0692095 -0.00668109 0.000974654 350.355 350.355 1000.83 
127 1 1 0.150501 0.0357958 0.00997329 0 0 0 0.0875771 -0.0208738 0.000353699 -0.000995351 -0.000229906 -0.000308636 0.0875771 -0.0208738 0.000353699 363.82 363.82 1000.86 
128 1 1 0.133522 0.0441749 0.00997212 0 0 0 0.0649797 -0.00651659 0.00068876 -0.000456513 -0.000282403 -0.000628691 0.0649797 -0.00651659 0.00068876 338.049 338.049 1000.8 
129 1 1 0.128544 0.0235984 0.00997471 0 0 0 0.0971088 -0.0176734 0.000124299 -0.000731401 -0.000155528 -0.00271007 0.0971088 -0.0176734 0.000124299 350.005 350.005 1000.83 
130 1 1 0.172192 0.0339388 0.00997418 0 0 0 0.0773851 0.0160433 0.000374519 -0.00102956 -0.000434955 -0.000621713 0.0773851 0.0160433 0.000374519 390.346 390.346 1000.93 
131 1 1 0.00998558 0.047925 0.00996529 0 0 0 0.00248112 0.00500275 -0.00120098 -0.00165835 -0.0023336 0.00490544 0.00248112 0.00500275 -0.00120098 485.361 485.361 1001.15 
132 1 1 0.0279557 0.0475773 0.00996057 0 0 0 0.0404142 -0.0302988 0.000891042 0.000429205 -0.0017161 0.00132641 0.0404142 -0.0302988 0.000891042 399.166 399.166 1000.95 
133 1 1 0.0399391 0.0503638 0.00996384 0 0 0 0.0613209 0.00235405 0.000303378 0.000472994 -0.00227445 0.00038953 0.0613209 0.00235405 0.000303378 381.773 381.773 1000.91 
134 1 1 0.0766285 0.0520283 0.00996651 0 0 0 0.0842296 -0.0161265 -0.000672092 0.000283905 -0.00159979 -0.000143158 0.0842296 -0.0161265 -0.000672092 302.36 302.36 1000.72 
135 1 1 0.114602 0.050587 0.00997141 0 0 0 0.0816682 -0.00732803 0.000177488 0.000653651 -0.000351397 -0.000601153 0.0816682 -0.00732803 0.000177488 315.793 315.793 1000.75 
136 1 1 0.0848465 0.0486781 0.0223693 0 0 0 -0.0769222 0.0124204 -0.0380569 0.00172794 -0.000508193 -0.0004311 -0.0769222 0.0124204 -0.0380569 430.537 430.537 1001.02 
137 1 1 0.117199 0.0519892 0.0217895 0 0 0 -0.0835102 0.0143793 -0.00340575 0.000901481 0.00026948 -0.00109251 -0.0835102 0.0143793 -0.00340575 352.095 352.095 1000.84 
138 1 1 0.137867 0.0492189 0.00997173 0 0 0 0.076334 -0.00395543 0.000308922 -0.000196464 0.000205708 -0.000564139 0.076334 -0.00395543 0.000308922 320.149 320.149 1000.76 
139 1 1 0.144281 0.0457362 0.00997181 0 0 0 0.0912404 -0.0193519 0.000527589 -0.00094167 0.00011107 -0.000487829 0.0912404 -0.0193519 0.000527589 341.524 341.524 1000.81 
140 1 1 0.160138 0.0506105 0.0202941 0 0 0 -0.042498 0.00554489 -0.0087512 -0.0010568 2.57061e-05 0.0004163 -0.042498 0.00554489 -0.0087512 377.823 377.823 1000.9 
141 1 1 0.00997939 0.057238 0.00997016 0 0 0 -0.00116782 0.00204637 0.00247441 0.00311782 -0.00136416 -0.00161058 -0.00116782 0.00204637 0.00247441 497.161 497.161 1001.18 
142 1 1 0.0233565 0.0635035 0.00996085 0 0 0 0.00589977 0.00775949 0.00101777 0.000966443 -0.000634351 -0.000154577 0.00589977 0.00775949 0.00101777 450.928 450.928 1001.07 
143 1 1 0.0227348 0.0712365 0.00995794 0 0 0 0.0203489 -0.0138363 0.00134468 0.000237867 -0.00243278 0.000968816 0.0203489 -0.0138363 0.00134468 456.815 456.815 1001.08 
144 1 1 0.0717021 0.0713386 0.00996595 0 0 0 0.0643257 -0.0140895 -0.00115462 0.000179532 -0.00141279 0.00020723 0.0643257 -0.0140895 -0.00115462 369.069 369.069 1000.88 
145 1 1 0.0822474 0.064073 0.00996722 0 0 0 0.0701637 -0.00159693 -0.000464824 0.00147778 -0.000605236 -0.000355777 0.0701637 -0.00159693 -0.000464824 368.174 368.174 1000.87 
146 1 1 0.117442 0.0703209 0.00997146 0 0 0 0.093137 -0.00842513 0.000110344 9.2818e-06 0.000356721 -0.000153492 0.093137 -0.00842513 0.000110344 355.968 355.968 1000.85 
147 1 1 0.148161 0.0573845 0.00997225 0 0 0 0.0605034 -0.0230572 0.000420545 -0.0006794 0.000112385 -0.000347438 0.0605034 -0.0230572 0.000420545 366.677 366.677 1000.87 
148 1 1 0.135701 0.0569418 0.00997232 0 0 0 0.106418 0.0164384 0.000558845 -0.000816812 -0.000437622 -0.000511442 0.106418 0.0164384 0.000558845 341.367 341.367 1000.81 
149 1 1 0.128107 0.0769379 0.00997478 0 0 0 0.122557 -0.00148754 -1.67793e-05 0.000162352 0.000571075 -0.00248832 0.122557 -0.00148754 -1.67793e-05 336.768 336.768 1000.8 
150 1 1 0.172707 0.0684856 0.00997393 0 0 0 0.0659291 -0.00331005 2.49063e-06 -0.000832093 0.000194514 -0.000611153 0.0659291 -0.00331005 2.49063e-06 370.256 370.256 1000.88 
151 1 1 0.00998051 0.0661911 0.00996863 0 0 0 0.000528405 0.00156147 -0.00164507 0.00122129 -0.00157593 0.000308454 0.000528405 0.00156147 -0.00164507 507.468 507.468 1001.2 
152 1 1 0.0227474 0.0792316 0.0394369 0 0 0 -0.009711 0.00339268 0.0332717 0.00131894 7.53359e-05 -0.000141748 -0.009711 0.00339268 0.0332717 361.686 361.686 1000.86 
153 1 1 0.0460917 0.0679379 0.00996379 0 0 0 0.0497982 0.0155063 7.95734e-06 0.00130702 -0.000667782 0.000298683 0.0497982 0.0155063 7.95734e-06 396.887 396.887 1000.94 
154 1 1 0.0453292 0.0781065 0.00996308 0 0 0 0.0627309 -0.00534092 -0.00123886 0.00262458 -0.00157814 0.0012253 0.0627309 -0.00534092 -0.00123886 427.141 427.141 1001.01 
155 1 1 0.0495063 0.0784731 0.0379441 0 0 0 -0.0876644 -0.0168826 0.0433285 0.000761249 -0.000862297 0.00115985 -0.0876644 -0.0168826 0.0433285 346.852 346.852 1000.82 
156 1 1 0.0954496 0.0650396 0.00996899 0 0 0 0.0765103 0.0170681 -0.000636749 0.00017884 -0.000433586 -0.000393028 0.0765103 0.0170681 -0.000636749 332.245 332.245 1000.79 
157 1 1 0.11536 0.0788322 0.0219796 0 0 0 -0.0885339 0.0100516 -0.0247886 0.00111774 -0.00214725 0.000175329 -0.0885339 0.0100516 -0.0247886 419.384 419.384 1001 
158 1 1 0.131137 0.0792874 0.0225108 0 0 0 -0.0668354 0.0264798 0.01425 0.000520114 -0.000656878 -0.000843296 -0.0668354 0.0264798 0.01425 377.336 377.336 1000.9 
159 1 1 0.140932 0.0768604 0.00997286 0 0 0 0.0936118 0.0132771 0.000186583 0.000496393 0.000484758 9.59612e-05 0.0936118 0.0132771 0.000186583 352.974 352.974 1000.84 
160 1 1 0.136176 0.0775602 0.0366317 0 0 0 -0.113379 0.0100188 0.00665672 0.000340258 0.000774967 -0.00028433 -0.113379 0.0100188 0.00665672 249.909 249.909 1000.59 
161 1 1 0.00997332 0.0792283 0.0227083 0 0 0 0.000961314 -0.00730115 -0.0208683 0.00138386 -0.000653577 0.00355945 0.000961314 -0.00730115 -0.0208683 593.612 593.612 1001.41 
162 1 1 0.00997768 0.0767328 0.009962 0 0 0 -0.0110702 -0.000330576 0.0185129 0.00351643 -0.000157014 0.0061297 -0.0110702 -0.000330576 0.0185129 546.039 546.039 1001.3 
163 1 1 0.0228698 0.0794149 0.0288932 0 0 0 -0.0292585 -0.0130392 -0.0304984 0.000826365 -0.00209862 0.00309973 -0.0292585 -0.0130392 -0.0304984 493.769 493.769 1001.17 
164 1 1 0.0580842 0.0711994 0.0597317 0 0 0 -0.0559547 -0.00483378 0.0352594 0.00058335 0.000908614 -0.00202432 -0.0559547 -0.00483378 0.0352594 156.477 156.477 1000.37 
165 1 1 0.089434 0.0695152 0.0537491 0 0 0 -0.058377 -0.0283825 -0.0102143 0.00140559 0.000159205 -0.00149789 -0.058377 -0.0283825 -0.0102143 171.342 171.342 1000.41 
166 1 1 0.12221 0.0772445 0.00997094 0 0 0 0.100063 -0.0143361 0.000616247 0.000810925 0.00089923 0.00118797 0.100063 -0.0143361 0.000616247 324.78 324.78 1000.77 
167 1 1 0.112411 0.0783388 0.0342996 0 0 0 -0.0978633 -0.0122342 -0.00708007 0.00166057 -4.02812e-06 -0.000440616 -0.0978633 -0.0122342 -0.00708007 294.266 294.266 1000.7 
168 1 1 0.136522 0.0652337 0.00997299 0 0 0 0.0731077 -0.0272038 0.000282268 -0.00127589 -0.000155655 -0.000536114 0.0731077 -0.0272038 0.000282268 346.624 346.624 1000.82 
169 1 1 0.139803 0.0767295 0.0212367 0 0 0 -0.0546512 0.0106856 -0.00143818 0.000268142 0.000438254 -0.000484325 -0.0546512 0.0106856 -0.00143818 373.249 373.249 1000.89 
170 1 1 0.166497 0.0774574 0.00997399 0 0 0 0.0783923 0.0146116 0.0012409 -0.000551588 0.00032603 -0.000362081 0.0783923 0.0146116 0.0012409 369.147 369.147 1000.88 
171 1 1 0.00996733 0.0900102 0.00998461 0 0 0 -0.0042759 0.0112615 0.0143708 0.0153432 0.0090654 -0.0145169 -0.0042759 0.0112615 0.0143708 516.123 516.123 1001.22 
172 1 1 0.021876 0.0900145 0.00996591 0 0 0 0.0199687 -0.00109431 0.00483713 -0.00022604 0.00571619 -0.00208139 0.0199687 -0.00109431 0.00483713 488.543 488.543 1001.16 
173 1 1 0.034939 0.0900174 0.00994863 0 0 0 0.0170221 -0.00658953 -0.00898945 0.0017648 0.00141396 0.0173888 0.0170221 -0.00658953 -0.00898945 426.62 426.62 1001.01 
174 1 1 0.0444662 0.0900173 0.00996491 0 0 0 0.0693483 0.00547447 0.009763 0.00106582 0.00215425 0.00155472 0.0693483 0.00547447 0.009763 430.844 430.844 1001.02 
175 1 1 0.0734883 0.090011 0.00996251 0 0 0 0.0420613 0.00266648 0.00419714 0.00136023 0.00535492 0.00801939 0.0420613 0.00266648 0.00419714 406.675 406.675 1000.97 