ITEM: TIMESTEP
160000
ITEM: NUMBER OF ATOMS
2655
ITEM: BOX BOUNDS ff ff ff
0 0.5
0 0.1
0 0.5
ITEM: ATOMS id type type x y z ix iy iz vx vy vz fx fy fz vx vy vz p p rho 
1 1 1 0.0100185 0.00997794 0.00995226 0 0 0 0.00089335 0.00621376 0.000490598 -0.0174246 0.00430862 0.0216879 0.00089335 0.00621376 0.000490598 360.936 360.936 1000.86 
2 1 1 0.0440762 0.00998983 0.00997665 0 0 0 0.0137439 0.0154987 -0.00952875 -0.00717306 -0.00578316 -0.00200584 0.0137439 0.0154987 -0.00952875 505.2 505.2 1001.2 
3 1 1 0.0387462 0.00998071 0.00997218 0 0 0 0.0420445 0.010948 -0.00494919 -0.0090087 0.00307304 0.0036433 0.0420445 0.010948 -0.00494919 466.977 466.977 1001.11 
4 1 1 0.0774688 0.00997601 0.00996658 0 0 0 0.00573642 0.00781571 -0.00524207 -6.57312e-05 0.00569549 0.000790081 0.00573642 0.00781571 -0.00524207 531.68 531.68 1001.26 
5 1 1 0.0822112 0.0099846 0.00996259 0 0 0 -0.0193434 -0.00552718 0.00715959 0.000557836 -0.00257493 0.0059656 -0.0193434 -0.00552718 0.00715959 528.884 528.884 1001.25 
6 1 1 0.101427 0.00998547 0.0099606 0 0 0 -0.0103975 0.00736816 -0.00732508 0.000946274 -0.00550289 0.00846331 -0.0103975 0.00736816 -0.00732508 488.39 488.39 1001.16 
7 1 1 0.1161 0.00998404 0.00996445 0 0 0 -0.0150024 -0.00280557 0.00278065 0.000717573 -0.00378799 0.00489056 -0.0150024 -0.00280557 0.00278065 467.985 467.985 1001.11 
8 1 1 0.125669 0.00997879 0.00997002 0 0 0 -0.00605736 -0.00106118 8.51308e-05 0.0001385 0.00213542 -0.000900004 -0.00605736 -0.00106118 8.51308e-05 464.943 464.943 1001.1 
9 1 1 0.135582 0.00997667 0.00997273 0 0 0 -0.00781589 -0.00231148 -0.000276256 -4.80463e-05 0.00429514 -0.00335873 -0.00781589 -0.00231148 -0.000276256 457.093 457.093 1001.08 
10 1 1 0.149608 0.00997695 0.00997412 0 0 0 -0.0103279 0.00099964 -0.00378224 0.000626647 0.00406579 -0.00289354 -0.0103279 0.00099964 -0.00378224 454.755 454.755 1001.08 
11 1 1 0.00997924 0.0212223 0.00995834 0 0 0 0.0140059 0.0158631 0.00831989 0.00979217 -0.00938237 0.00962943 0.0140059 0.0158631 0.00831989 501.327 501.327 1001.19 
12 1 1 0.0350134 0.0351599 0.00996494 0 0 0 0.0379447 0.0545924 0.00259527 -0.0006875 -0.0030197 0.00578627 0.0379447 0.0545924 0.00259527 435.151 435.151 1001.03 
13 1 1 0.0238596 0.0210068 0.00997105 0 0 0 0.00322043 0.0340298 0.00499664 -0.00122475 -0.00888111 0.00198277 0.00322043 0.0340298 0.00499664 337.212 337.212 1000.8 
14 1 1 0.0917471 0.022407 0.00996276 0 0 0 -0.00785035 0.019587 0.00229561 0.000829507 0.00223592 0.00356248 -0.00785035 0.019587 0.00229561 461.471 461.471 1001.1 
15 1 1 0.080647 0.023313 0.00996749 0 0 0 -0.0071384 -0.00270534 0.00147094 -0.000680406 0.00168111 0.000663496 -0.0071384 -0.00270534 0.00147094 457.247 457.247 1001.09 
16 1 1 0.114047 0.0214765 0.00996454 0 0 0 -0.0204109 0.0136827 0.000280723 -0.000379401 0.00170332 0.00160222 -0.0204109 0.0136827 0.000280723 453.93 453.93 1001.08 
17 1 1 0.113822 0.0406709 0.00996755 0 0 0 -0.0226955 0.00379085 3.3325e-05 -0.000411672 0.000929639 -0.000135174 -0.0226955 0.00379085 3.3325e-05 425.31 425.31 1001.01 
18 1 1 0.141499 0.0322952 0.00996778 0 0 0 0.0139801 -0.00235503 -0.000489727 -1.65314e-05 0.000194115 0.000613083 0.0139801 -0.00235503 -0.000489727 439.414 439.414 1001.04 
19 1 1 0.126356 0.0221517 0.00996818 0 0 0 -0.0141067 0.0174731 2.88202e-05 4.82901e-05 0.00050981 -0.000158549 -0.0141067 0.0174731 2.88202e-05 453.764 453.764 1001.08 
20 1 1 0.163208 0.0225044 0.00996857 0 0 0 -0.0128963 -0.0207376 -0.000692475 0.000817849 -0.000365948 0.000595704 -0.0128963 -0.0207376 -0.000692475 447.802 447.802 1001.06 
21 1 1 0.00998074 0.0281344 0.00996506 0 0 0 0.00827453 0.00283814 0.00386395 0.00585818 -0.00290873 0.00185266 0.00827453 0.00283814 0.00386395 550.752 550.752 1001.31 
22 1 1 0.0422984 0.0267812 0.00996233 0 0 0 -0.0662736 -0.0161048 0.00432118 -0.00155425 2.67839e-05 0.00801881 -0.0662736 -0.0161048 0.00432118 428.923 428.923 1001.02 
23 1 1 0.0748697 0.0467594 0.0099696 0 0 0 -0.00837883 0.000787581 -0.000454339 -0.000598652 -0.00014128 -0.00119101 -0.00837883 0.000787581 -0.000454339 400.183 400.183 1000.95 
24 1 1 0.0966984 0.028732 0.00996794 0 0 0 -0.00929806 -0.00278338 0.000988433 -0.000468866 0.00165763 -0.000423126 -0.00929806 -0.00278338 0.000988433 439.961 439.961 1001.04 
25 1 1 0.120843 0.0372572 0.00996743 0 0 0 0.00167866 0.00169236 -6.95367e-07 -0.000526635 0.000716537 0.000100597 0.00167866 0.00169236 -6.95367e-07 431.381 431.381 1001.02 
26 1 1 0.120157 0.0227778 0.0099668 0 0 0 -0.00262059 -0.0269059 0.000427665 7.74138e-05 0.000694313 0.000179349 -0.00262059 -0.0269059 0.000427665 452.863 452.863 1001.07 
27 1 1 0.14341 0.0440926 0.00996816 0 0 0 -0.00329767 0.000426459 -0.000254836 -9.44856e-05 0.000269811 0.000518213 -0.00329767 0.000426459 -0.000254836 428.299 428.299 1001.02 
28 1 1 0.119465 0.0309672 0.00996687 0 0 0 -0.00148253 0.00949973 0.000204612 0.000173204 0.000943638 0.000340586 -0.00148253 0.00949973 0.000204612 436.157 436.157 1001.04 
29 1 1 0.150774 0.022499 0.00996811 0 0 0 0.0038073 -0.00261848 -0.00108349 0.000170861 -3.53109e-05 0.000330488 0.0038073 -0.00261848 -0.00108349 445.372 445.372 1001.06 
30 1 1 0.154363 0.0302911 0.00996856 0 0 0 0.00370694 0.0108595 -0.000866612 0.000523719 1.14196e-05 0.000475508 0.00370694 0.0108595 -0.000866612 440.542 440.542 1001.05 
31 1 1 0.00999521 0.0384213 0.009961 0 0 0 0.00213066 0.022259 0.00105526 -0.00830697 -0.000660358 0.0052143 0.00213066 0.022259 0.00105526 538.246 538.246 1001.28 
32 1 1 0.0230386 0.0399377 0.00996888 0 0 0 0.0211277 0.0333773 0.000518203 -0.00131624 -0.000808209 0.00180439 0.0211277 0.0333773 0.000518203 445.468 445.468 1001.06 
33 1 1 0.0599441 0.0261488 0.00996922 0 0 0 0.00696925 -0.0148646 0.000315955 -0.00164132 0.00312225 0.000878489 0.00696925 -0.0148646 0.000315955 433.969 433.969 1001.03 
34 1 1 0.077602 0.0345428 0.00996954 0 0 0 0.00254429 0.0183006 -0.000363701 -0.000931685 0.00190514 -0.00105668 0.00254429 0.0183006 -0.000363701 427.958 427.958 1001.02 
35 1 1 0.0900041 0.0365083 0.00996747 0 0 0 -0.037003 -0.0157859 9.32979e-05 -0.00018532 0.00147601 -0.000451523 -0.037003 -0.0157859 9.32979e-05 422.732 422.732 1001 
36 1 1 0.108819 0.0282238 0.00996753 0 0 0 0.0141709 0.0203181 -0.000119781 0.000788132 0.00108614 0.000514542 0.0141709 0.0203181 -0.000119781 443.917 443.917 1001.05 
37 1 1 0.13087 0.0381734 0.00996733 0 0 0 0.0150045 -0.00659893 4.93196e-05 0.000423363 0.000162491 0.000458424 0.0150045 -0.00659893 4.93196e-05 431.348 431.348 1001.02 
38 1 1 0.137986 0.0381934 0.00996734 0 0 0 0.0114903 0.0206054 -0.000154929 -0.000358951 0.000621536 0.000612569 0.0114903 0.0206054 -0.000154929 433.362 433.362 1001.03 
39 1 1 0.162518 0.0366321 0.00996802 0 0 0 0.0321339 -0.00359675 -0.000947091 3.5274e-05 -0.000191761 0.000565197 0.0321339 -0.00359675 -0.000947091 439.588 439.588 1001.04 
40 1 1 0.174777 0.0362335 0.00996989 0 0 0 0.0160076 0.00831899 -0.00093998 0.000579227 -0.000225454 0.000331137 0.0160076 0.00831899 -0.00093998 442.385 442.385 1001.05 
41 1 1 0.00998933 0.0523789 0.00996671 0 0 0 0.0131489 0.0134796 0.00100898 -0.00444978 -0.00205274 -0.00031886 0.0131489 0.0134796 0.00100898 581.533 581.533 1001.38 
42 1 1 0.0445902 0.0600324 0.009959 0 0 0 -0.0256926 0.0302043 -0.0148795 0.00185417 -0.00125327 0.00845171 -0.0256926 0.0302043 -0.0148795 436.294 436.294 1001.04 
43 1 1 0.0609148 0.0484081 0.00997264 0 0 0 0.000131126 0.0321833 -0.00333375 0.000763092 2.59293e-05 -0.00333276 0.000131126 0.0321833 -0.00333375 406.346 406.346 1000.96 
44 1 1 0.082716 0.043343 0.0099696 0 0 0 -0.0334413 -0.0133733 -0.000307879 -0.000805813 0.000204939 -0.00124262 -0.0334413 -0.0133733 -0.000307879 413.446 413.446 1000.98 
45 1 1 0.0950976 0.0483597 0.00996626 0 0 0 -0.0396299 -0.0179994 0.000938835 -0.00130431 0.000779344 0.00128962 -0.0396299 -0.0179994 0.000938835 418.594 418.594 1000.99 
46 1 1 0.106327 0.0520259 0.00996683 0 0 0 0.00871162 -0.0265057 0.000359634 -0.00010956 -0.000355093 0.00143767 0.00871162 -0.0265057 0.000359634 404.574 404.574 1000.96 
47 1 1 0.112873 0.0472178 0.00996689 0 0 0 -0.0093487 9.04051e-05 0.000252314 -0.000522879 0.000476596 0.0007377 -0.0093487 9.04051e-05 0.000252314 420.014 420.014 1001 
48 1 1 0.139352 0.0497661 0.00996773 0 0 0 -0.00486915 -9.16273e-05 -8.03379e-05 -0.000741456 -0.00015349 0.000444386 -0.00486915 -9.16273e-05 -8.03379e-05 426.698 426.698 1001.01 
49 1 1 0.124222 0.0495825 0.00996818 0 0 0 -0.00303118 -0.0152381 -0.000334642 0.000184119 0.000723445 -3.23769e-05 -0.00303118 -0.0152381 -0.000334642 422.499 422.499 1001 
50 1 1 0.161706 0.0501706 0.00996731 0 0 0 0.0442577 0.0219623 -0.000694723 -1.77592e-05 -0.000192718 0.000656922 0.0442577 0.0219623 -0.000694723 435.314 435.314 1001.03 
51 1 1 0.00997639 0.0616064 0.00996689 0 0 0 -0.0019401 0.0183544 0.00407611 0.00808864 0.000217488 -0.000131921 -0.0019401 0.0183544 0.00407611 568.596 568.596 1001.35 
52 1 1 0.0233938 0.0516155 0.00997276 0 0 0 0.0288746 0.0534989 -0.00205565 -0.000201932 -0.00125792 -0.0021259 0.0288746 0.0534989 -0.00205565 464.57 464.57 1001.1 
53 1 1 0.0692802 0.0589885 0.00996922 0 0 0 0.0010098 0.034036 -0.00211991 0.00110427 -0.00127489 -0.00254174 0.0010098 0.034036 -0.00211991 416.463 416.463 1000.99 
54 1 1 0.0912841 0.0612253 0.00996755 0 0 0 -0.00353649 -0.00507398 0.000417626 0.000557966 -0.000931164 9.6191e-05 -0.00353649 -0.00507398 0.000417626 409.668 409.668 1000.97 
55 1 1 0.096549 0.0574346 0.00996772 0 0 0 0.0214808 -0.0182164 -0.000206964 -0.000780596 0.000528723 0.000217596 0.0214808 -0.0182164 -0.000206964 413.633 413.633 1000.98 
56 1 1 0.10896 0.072707 0.00996655 0 0 0 -0.0226087 -0.00673602 -0.00113318 0.000447753 0.000135658 0.00108249 -0.0226087 -0.00673602 -0.00113318 428.932 428.932 1001.02 
57 1 1 0.134119 0.0635774 0.00996888 0 0 0 -0.00866179 0.00652666 -0.000432123 -0.000247681 -0.000283432 -4.12324e-05 -0.00866179 0.00652666 -0.000432123 426.852 426.852 1001.01 
58 1 1 0.140802 0.0631627 0.00996795 0 0 0 0.00703204 0.00820378 -0.00029949 -0.00038724 0.000858947 0.000121088 0.00703204 0.00820378 -0.00029949 431.795 431.795 1001.02 
59 1 1 0.158186 0.0629614 0.0099681 0 0 0 0.0275679 0.00244064 -0.000371242 -0.000370115 -4.04269e-05 0.000596591 0.0275679 0.00244064 -0.000371242 437.957 437.957 1001.04 
60 1 1 0.169518 0.0615127 0.00996882 0 0 0 0.0131221 0.00623327 -0.000637915 -0.000490007 -0.000752953 0.000769608 0.0131221 0.00623327 -0.000637915 444.163 444.163 1001.05 
61 1 1 0.00999555 0.071636 0.00995869 0 0 0 -0.0099679 0.00140331 -0.00648868 -0.00939273 -0.00317837 0.00665613 -0.0099679 0.00140331 -0.00648868 570.076 570.076 1001.35 
62 1 1 0.0521256 0.0624215 0.00996747 0 0 0 0.00217458 -0.0203764 -0.00945572 -0.000281928 -0.0012514 0.00193458 0.00217458 -0.0203764 -0.00945572 440.989 440.989 1001.05 
63 1 1 0.0828906 0.0630242 0.00996913 0 0 0 -0.0054588 0.0152953 0.000460187 0.000430687 -0.000976243 -0.00109543 -0.0054588 0.0152953 0.000460187 431.403 431.403 1001.02 
64 1 1 0.0969993 0.0701485 0.00996619 0 0 0 -0.00503542 -0.0178072 -0.000369986 -0.000147407 -0.000600194 0.00110392 -0.00503542 -0.0178072 -0.000369986 426.232 426.232 1001.01 
65 1 1 0.123332 0.0621214 0.00996793 0 0 0 -0.000471395 -0.0201246 -0.000622105 0.000117977 -3.23883e-05 0.000205827 -0.000471395 -0.0201246 -0.000622105 424.707 424.707 1001.01 
66 1 1 0.11997 0.0775582 0.00996795 0 0 0 -0.0106505 -0.00808913 -0.00146916 -0.000297364 -0.000199975 0.000512437 -0.0106505 -0.00808913 -0.00146916 428.823 428.823 1001.02 
67 1 1 0.142436 0.056056 0.0099685 0 0 0 0.0220855 0.00480597 -0.000225584 -6.43763e-05 0.000319612 0.00033018 0.0220855 0.00480597 -0.000225584 424.266 424.266 1001.01 
68 1 1 0.122459 0.0685863 0.00996801 0 0 0 -0.00736377 0.0136311 -0.000890271 -0.000446919 0.00052165 0.000237375 -0.00736377 0.0136311 -0.000890271 423.382 423.382 1001.01 
69 1 1 0.150633 0.0773268 0.00996847 0 0 0 -0.00447777 -0.00584576 0.000684112 -0.00067287 -0.000163904 6.69388e-05 -0.00447777 -0.00584576 0.000684112 445.423 445.423 1001.06 
70 1 1 0.160035 0.0695083 0.00996872 0 0 0 0.0196086 0.0216215 -0.000414522 -0.000713524 -0.000244693 0.000586567 0.0196086 0.0216215 -0.000414522 443.543 443.543 1001.05 
71 1 1 0.0099924 0.0779983 0.00995324 0 0 0 0.00359105 0.0147757 -0.00836528 -0.00832733 -0.00134921 0.0111593 0.00359105 0.0147757 -0.00836528 625.765 625.765 1001.48 
72 1 1 0.0305683 0.0624904 0.00995646 0 0 0 -0.0125147 0.0594711 -0.0116678 -0.00212785 -0.00225437 0.010375 -0.0125147 0.0594711 -0.0116678 478.143 478.143 1001.13 
73 1 1 0.0355098 0.0786997 0.00997027 0 0 0 0.000457487 -0.0124629 0.00348249 0.00313915 0.00267437 -0.00164456 0.000457487 -0.0124629 0.00348249 423.688 423.688 1001.01 
74 1 1 0.0985356 0.078074 0.00996712 0 0 0 -0.00243059 -0.0117032 -0.000972218 -0.00111596 -0.000754986 0.00043345 -0.00243059 -0.0117032 -0.000972218 428.943 428.943 1001.02 
75 1 1 0.0840734 0.076992 0.0099672 0 0 0 -0.0428985 -0.0121949 -0.00109253 0.00132303 -0.000438696 -0.000247475 -0.0428985 -0.0121949 -0.00109253 435.532 435.532 1001.03 
76 1 1 0.113929 0.0783176 0.00996741 0 0 0 -0.00466855 0.00249023 -0.00131744 -0.000682542 0.000105696 0.00113331 -0.00466855 0.00249023 -0.00131744 424.482 424.482 1001.01 
77 1 1 0.114934 0.0592422 0.0099676 0 0 0 0.0171139 -0.00531713 -0.000924071 -0.000582978 0.000976106 0.000172255 0.0171139 -0.00531713 -0.000924071 422.898 422.898 1001 
78 1 1 0.147555 0.0686258 0.00996773 0 0 0 0.0185202 -0.00471614 -0.000200058 -0.00107914 9.25298e-05 0.000181967 0.0185202 -0.00471614 -0.000200058 433.233 433.233 1001.03 
79 1 1 0.125754 0.0773591 0.00996874 0 0 0 -0.00776051 0.0115768 -0.00168931 0.00032882 0.000357557 9.4868e-06 -0.00776051 0.0115768 -0.00168931 425.028 425.028 1001.01 
80 1 1 0.163008 0.0771792 0.00996773 0 0 0 -0.00300483 -0.0144847 0.000562252 -0.00104459 0.000111076 0.000321355 -0.00300483 -0.0144847 0.000562252 457.928 457.928 1001.09 
81 1 1 0.00997519 0.0900304 0.00998506 0 0 0 -0.00106026 0.0100813 0.00662039 0.00977641 -0.00861329 -0.0205161 -0.00106026 0.0100813 0.00662039 673.539 673.539 1001.6 
82 1 1 0.0363595 0.0900061 0.00997425 0 0 0 0.0747609 0.0002076 0.00710022 0.00673134 0.0126039 -0.00153598 0.0747609 0.0002076 0.00710022 408.356 408.356 1000.97 
83 1 1 0.0332897 0.0900194 0.00998163 0 0 0 -0.0211659 0.000819007 0.011878 0.00576361 0.000598647 -0.0108104 -0.0211659 0.000819007 0.011878 450.772 450.772 1001.07 
84 1 1 0.0804197 0.0900217 0.00997328 0 0 0 -0.00747605 0.00741229 0.00350142 0.00110009 -0.00341833 -0.00346015 -0.00747605 0.00741229 0.00350142 461.851 461.851 1001.1 
85 1 1 0.0851828 0.0900182 0.00996879 0 0 0 -0.00465372 -0.00689758 -0.00839412 0.0008691 5.54048e-06 0.00121318 -0.00465372 -0.00689758 -0.00839412 452.468 452.468 1001.07 
86 1 1 0.104452 0.090014 0.00996441 0 0 0 0.00367174 0.00391512 0.00226892 0.000991265 0.00450437 0.0051751 0.00367174 0.00391512 0.00226892 448.292 448.292 1001.06 
87 1 1 0.119513 0.0900179 0.00996752 0 0 0 -0.00457784 -0.0069885 -0.00985461 0.000427583 0.000632769 0.00255014 -0.00457784 -0.0069885 -0.00985461 429.136 429.136 1001.02 
88 1 1 0.129322 0.0900154 0.00996748 0 0 0 -0.00206315 -0.00731195 -0.0088638 -0.000646331 0.00273289 0.00322531 -0.00206315 -0.00731195 -0.0088638 439.23 439.23 1001.04 
89 1 1 0.139146 0.0900149 0.00997136 0 0 0 0.00773658 0.00693324 0.00607918 -0.00159732 0.00237423 -0.00013211 0.00773658 0.00693324 0.00607918 453.173 453.173 1001.08 
90 1 1 0.153073 0.0900253 0.00997822 0 0 0 0.0075753 -0.00290748 -0.00389628 -0.0014285 -0.00715928 -0.00629046 0.0075753 -0.00290748 -0.00389628 464.712 464.712 1001.1 
91 1 1 0.0100265 0.00997808 0.00996179 0 0 0 0.0178243 0.00178122 0.00331088 -0.0179148 0.00407476 0.0118639 0.0178243 0.00178122 0.00331088 380.277 380.277 1000.9 
92 1 1 0.0343662 0.00997297 0.00998752 0 0 0 0.0306703 0.00479122 0.00706028 -0.0100616 0.0117187 -0.0112487 0.0306703 0.00479122 0.00706028 407.176 407.176 1000.97 
93 1 1 0.0485761 0.00998476 0.00998035 0 0 0 0.00697653 0.0181754 0.00396987 -0.00362172 -0.000451243 -0.00642242 0.00697653 0.0181754 0.00396987 530.541 530.541 1001.26 
94 1 1 0.0573087 0.00997391 0.00997445 0 0 0 0.0289486 0.00078878 0.00550325 -0.00102129 0.00837244 -0.00292742 0.0289486 0.00078878 0.00550325 514.841 514.841 1001.22 
95 1 1 0.0865803 0.00997517 0.00997003 0 0 0 0.00510293 0.00561581 -0.00585122 0.0016533 0.00642657 -0.00146066 0.00510293 0.00561581 -0.00585122 517.578 517.578 1001.23 
96 1 1 0.111009 0.00998691 0.00996019 0 0 0 -0.014444 0.00205592 -0.00201087 0.00084613 -0.00687065 0.00890453 -0.014444 0.00205592 -0.00201087 473.498 473.498 1001.12 
97 1 1 0.120906 0.00996968 0.00997863 0 0 0 -0.00350021 -0.000312865 -0.00187033 0.000224798 0.0112434 -0.00929938 -0.00350021 -0.000312865 -0.00187033 464.281 464.281 1001.1 
98 1 1 0.130458 0.00998735 0.00996138 0 0 0 -0.0221714 0.000535276 -0.000256502 0.000693191 -0.00642749 0.00753577 -0.0221714 0.000535276 -0.000256502 461.841 461.841 1001.1 
99 1 1 0.140518 0.00998014 0.00996991 0 0 0 0.00362064 0.00317032 -0.00499729 -0.000349164 0.000970733 0.000880906 0.00362064 0.00317032 -0.00499729 462.113 462.113 1001.1 
100 1 1 0.144747 0.00998484 0.00996737 0 0 0 -0.0168768 -0.00377311 0.00271033 0.000627423 -0.00376501 0.00387003 -0.0168768 -0.00377311 0.00271033 461.462 461.462 1001.1 
101 1 1 0.00998937 0.0205236 0.0220371 0 0 0 0.00294928 0.0265414 0.0169807 -0.0011498 -0.00526351 -0.00266425 0.00294928 0.0265414 0.0169807 498.825 498.825 1001.18 
102 1 1 0.00999417 0.0232912 0.00996063 0 0 0 0.0116315 -0.0053484 -0.00185707 -0.00584791 -0.00705506 0.00692936 0.0116315 -0.0053484 -0.00185707 511.152 511.152 1001.21 
103 1 1 0.0234521 0.0253115 0.0215565 0 0 0 0.0648466 0.0449029 0.0586094 0.000659581 -0.00399848 -0.000610183 0.0648466 0.0449029 0.0586094 356.488 356.488 1000.85 
104 1 1 0.0763655 0.0216121 0.0359091 0 0 0 0.0143591 0.00697499 -0.0244024 -0.00244441 0.00243374 0.000896184 0.0143591 0.00697499 -0.0244024 392.651 392.651 1000.93 
105 1 1 0.114485 0.0374063 0.0568813 0 0 0 0.101843 0.00934654 -0.0424299 -9.49498e-05 -3.21197e-05 0.00220212 0.101843 0.00934654 -0.0424299 185.427 185.427 1000.44 
106 1 1 0.138718 0.0232963 0.00996713 0 0 0 0.0152784 0.00547973 -0.000939609 0.000189013 -5.99604e-05 0.00103251 0.0152784 0.00547973 -0.000939609 455.642 455.642 1001.08 
107 1 1 0.124681 0.0225822 0.0354425 0 0 0 0.0780763 0.00416472 0.0239908 0.000833215 -0.000150271 0.000746844 0.0780763 0.00416472 0.0239908 339.74 339.74 1000.81 
108 1 1 0.14874 0.0343822 0.00996794 0 0 0 0.0217696 -0.0062123 -0.000618774 0.000333318 5.78164e-05 0.000540572 0.0217696 -0.0062123 -0.000618774 435.092 435.092 1001.03 
109 1 1 0.145251 0.021587 0.0213911 0 0 0 0.0594092 -0.000545999 -0.0121162 -0.000363834 0.000417631 0.000975976 0.0594092 -0.000545999 -0.0121162 456.717 456.717 1001.08 
110 1 1 0.18198 0.0232824 0.0099721 0 0 0 0.0101381 0.0102039 -0.00106329 -0.000138164 -0.000953701 -0.000402714 0.0101381 0.0102039 -0.00106329 444.493 444.493 1001.05 
111 1 1 0.00998844 0.0340347 0.00996144 0 0 0 0.00359468 0.0130003 0.00307552 -0.00200665 -0.00190914 0.00487793 0.00359468 0.0130003 0.00307552 548.229 548.229 1001.3 
112 1 1 0.0247986 0.0232073 0.0410473 0 0 0 -0.0197777 0.0167943 0.0103241 -0.00212988 0.000584426 0.000787914 -0.0197777 0.0167943 0.0103241 248.51 248.51 1000.59 
113 1 1 0.0501954 0.0371542 0.00996357 0 0 0 -0.00685267 -0.00886449 -0.000293922 0.000463832 -0.000943158 0.00531914 -0.00685267 -0.00886449 -0.000293922 426.17 426.17 1001.01 
114 1 1 0.0628271 0.0215435 0.0099664 0 0 0 0.0155126 -0.00899401 0.00133961 -0.00162263 0.0040155 0.00229187 0.0155126 -0.00899401 0.00133961 458.194 458.194 1001.09 
115 1 1 0.0618195 0.0202861 0.0343308 0 0 0 0.0170161 -0.0217081 -0.01809 -0.000854814 0.00228439 0.00100588 0.0170161 -0.0217081 -0.01809 395.872 395.872 1000.94 
116 1 1 0.108127 0.0351209 0.00996817 0 0 0 -0.00342078 0.00141655 0.00010111 0.000226134 0.00130587 -0.000359481 -0.00342078 0.00141655 0.00010111 430.929 430.929 1001.02 
117 1 1 0.124754 0.0228276 0.0247877 0 0 0 0.0642725 0.00360795 0.00171634 -0.000664023 -0.000661834 0.00106899 0.0642725 0.00360795 0.00171634 436.272 436.272 1001.04 
118 1 1 0.137411 0.0233249 0.0224729 0 0 0 0.080316 0.000239866 -0.012758 0.000706889 2.66673e-06 0.000723851 0.080316 0.000239866 -0.012758 451.392 451.392 1001.07 
119 1 1 0.157571 0.0224662 0.00996896 0 0 0 0.0215575 0.00055545 -0.000861603 -0.000330683 0.000314763 0.000465472 0.0215575 0.00055545 -0.000861603 448.696 448.696 1001.06 
120 1 1 0.148722 0.0230197 0.0380202 0 0 0 0.115018 -0.00181744 -0.000738813 0.000220317 -0.000760433 0.000888603 0.115018 -0.00181744 -0.000738813 334.455 334.455 1000.79 
121 1 1 0.00997888 0.0429319 0.0099643 0 0 0 -0.00960545 0.00532594 0.00402783 0.00826167 -0.000674734 0.00305727 -0.00960545 0.00532594 0.00402783 528.248 528.248 1001.25 
122 1 1 0.0226954 0.0338722 0.00996663 0 0 0 0.00986882 0.0116772 0.000526879 0.00142506 -0.00241924 0.00323087 0.00986882 0.0116772 0.000526879 457.395 457.395 1001.09 
123 1 1 0.0222786 0.0257978 0.00996822 0 0 0 -0.0275508 0.0241496 0.00159174 0.00268611 -0.00665982 0.0024939 -0.0275508 0.0241496 0.00159174 416.484 416.484 1000.99 
124 1 1 0.0842846 0.0334963 0.00996803 0 0 0 -0.0324473 0.0113617 9.06422e-05 -0.000795926 0.00223472 -0.000557012 -0.0324473 0.0113617 9.06422e-05 432.7 432.7 1001.03 
125 1 1 0.0959331 0.0379804 0.00996796 0 0 0 -0.00164194 0.000244416 0.000270933 -0.000682296 0.00117282 0.000118133 -0.00164194 0.000244416 0.000270933 421.838 421.838 1001 
126 1 1 0.130097 0.0300556 0.00996658 0 0 0 0.0194818 -0.00999872 -0.000100634 1.76897e-05 0.000657437 0.000705703 0.0194818 -0.00999872 -0.000100634 443.782 443.782 1001.05 
127 1 1 0.170105 0.0401633 0.00997029 0 0 0 0.0240715 0.00725755 -0.000904273 -0.000344517 -0.000163478 0.000469861 0.0240715 0.00725755 -0.000904273 439.668 439.668 1001.04 
128 1 1 0.150673 0.0416622 0.00996669 0 0 0 0.0262562 0.00998894 -0.00055456 -0.000618146 0.000446717 0.000684227 0.0262562 0.00998894 -0.00055456 435.636 435.636 1001.03 
129 1 1 0.144721 0.0222637 0.00996696 0 0 0 -0.00897228 0.00195587 -0.00122954 0.000620421 0.000547246 0.000756427 -0.00897228 0.00195587 -0.00122954 452.821 452.821 1001.07 
130 1 1 0.18771 0.0328876 0.0099715 0 0 0 0.0156137 0.00132427 -0.000691807 -0.000691444 -0.000484665 4.82214e-05 0.0156137 0.00132427 -0.000691807 443.746 443.746 1001.05 
131 1 1 0.00998238 0.0477178 0.00997368 0 0 0 0.00368708 0.00810096 -0.0037074 0.00413165 -0.00200468 -0.0064012 0.00368708 0.00810096 -0.0037074 547.762 547.762 1001.3 
132 1 1 0.0388888 0.0429296 0.00995882 0 0 0 0.0143266 0.0317062 -0.00326087 0.000627009 -0.00370781 0.0104361 0.0143266 0.0317062 -0.00326087 447.793 447.793 1001.06 
133 1 1 0.0461942 0.0512946 0.00996568 0 0 0 -0.0109376 0.0107946 -0.00906959 0.00298924 -0.000611296 0.00301091 -0.0109376 0.0107946 -0.00906959 431.514 431.514 1001.02 
134 1 1 0.087639 0.0483206 0.00996954 0 0 0 -0.0246209 0.00965444 0.000252551 0.00021098 0.00055964 -0.00118715 -0.0246209 0.00965444 0.000252551 409.772 409.772 1000.97 
135 1 1 0.133026 0.0501562 0.00996757 0 0 0 -0.012205 -0.00636663 -5.2738e-05 -0.00148412 0.000678048 0.000311185 -0.012205 -0.00636663 -5.2738e-05 426.448 426.448 1001.01 
136 1 1 0.0958335 0.049844 0.0199396 0 0 0 0.0395166 0.00768892 0.00332727 -0.00048375 0.00103745 0.000608626 0.0395166 0.00768892 0.00332727 428.182 428.182 1001.02 
137 1 1 0.129566 0.0443582 0.0221169 0 0 0 0.0756042 0.0218568 -0.00704949 0.000270739 0.000473563 0.000729479 0.0756042 0.0218568 -0.00704949 432.055 432.055 1001.03 
138 1 1 0.153967 0.0506 0.0099671 0 0 0 -0.00758591 -0.014668 -0.000464592 -2.96421e-05 -0.0004406 0.000696175 -0.00758591 -0.014668 -0.000464592 434.944 434.944 1001.03 
139 1 1 0.158322 0.0414566 0.00996723 0 0 0 0.00766006 0.00128948 -0.000749124 -0.000241436 0.000406088 0.000690531 0.00766006 0.00128948 -0.000749124 435.892 435.892 1001.03 
140 1 1 0.1693 0.0542815 0.0212807 0 0 0 0.0884979 -0.0202797 -0.0393523 0.000109204 -0.000418158 0.00139235 0.0884979 -0.0202797 -0.0393523 451.624 451.624 1001.07 
141 1 1 0.00999229 0.0570388 0.00996106 0 0 0 -0.0061499 0.0073946 -0.000624082 -0.00860666 0.000404685 0.0055724 -0.0061499 0.0073946 -0.000624082 558.36 558.36 1001.32 
142 1 1 0.0222125 0.0580004 0.00996489 0 0 0 -0.064627 -0.0304253 -0.00263218 0.00301285 -0.00105934 0.00375967 -0.064627 -0.0304253 -0.00263218 461.945 461.945 1001.1 
143 1 1 0.0223413 0.0656926 0.00996301 0 0 0 0.0194939 0.0453206 -0.00370588 -0.000632184 -0.00126858 0.00584408 0.0194939 0.0453206 -0.00370588 474.505 474.505 1001.13 
144 1 1 0.0883765 0.0692961 0.00996674 0 0 0 -0.0152597 0.00309273 0.000203353 0.000296766 4.4442e-05 0.000640388 -0.0152597 0.00309273 0.000203353 423.56 423.56 1001.01 
145 1 1 0.102423 0.0649198 0.00996583 0 0 0 0.00824237 0.000253551 -0.000536871 -0.000462763 -0.000117126 0.00111458 0.00824237 0.000253551 -0.000536871 420.435 420.435 1001 
146 1 1 0.132924 0.0701528 0.0099693 0 0 0 0.0167215 -0.0163898 -0.000683999 -0.000585512 0.000370498 -9.78528e-05 0.0167215 -0.0163898 -0.000683999 423.144 423.144 1001 
147 1 1 0.163142 0.0577823 0.00996823 0 0 0 -0.0111287 0.0163543 -0.000569559 -0.000676986 -7.92434e-05 0.000665169 -0.0111287 0.0163543 -0.000569559 438.087 438.087 1001.04 
148 1 1 0.15002 0.0543872 0.00996794 0 0 0 0.0239624 -0.00734735 -0.00032607 -0.000523913 0.000199823 0.000516571 0.0239624 -0.00734735 -0.00032607 432.757 432.757 1001.03 
149 1 1 0.144715 0.0765535 0.00996883 0 0 0 0.00398699 0.0149394 9.31404e-05 -0.00137027 0.000484104 -9.54778e-06 0.00398699 0.0149394 9.31404e-05 432.676 432.676 1001.03 
150 1 1 0.186352 0.0694615 0.00996967 0 0 0 0.0223507 0.0124032 -0.000797309 -0.000322436 -0.000582368 0.000585581 0.0223507 0.0124032 -0.000797309 462.254 462.254 1001.1 
151 1 1 0.00999713 0.0667455 0.00996318 0 0 0 -0.0100135 0.0169081 0.000429436 -0.0115461 -0.0041174 0.00244887 -0.0100135 0.0169081 0.000429436 558.786 558.786 1001.33 
152 1 1 0.0233102 0.0781674 0.0239457 0 0 0 0.00379236 -0.00776217 0.0405673 0.00239422 0.00010234 0.00213545 0.00379236 -0.00776217 0.0405673 452.411 452.411 1001.07 
153 1 1 0.0565959 0.0761285 0.0099692 0 0 0 -0.0128551 -0.00768909 -0.00483877 0.00103811 -0.000229394 0.000310182 -0.0128551 -0.00768909 -0.00483877 453.388 453.388 1001.08 
154 1 1 0.0653618 0.0768819 0.0099708 0 0 0 -0.0152434 -0.00428183 -0.00550111 -0.00157407 0.00181138 -0.00278151 -0.0152434 -0.00428183 -0.00550111 461.269 461.269 1001.09 
155 1 1 0.0559228 0.0769064 0.0330626 0 0 0 0.0112201 0.0243784 -0.0205359 -0.00070175 0.001154 0.00204721 0.0112201 0.0243784 -0.0205359 337.361 337.361 1000.8 
156 1 1 0.113343 0.0668576 0.00996727 0 0 0 0.0213819 0.00563021 -0.00100379 0.000535152 -0.000543202 0.00056256 0.0213819 0.00563021 -0.00100379 421.475 421.475 1001 
157 1 1 0.128581 0.0762378 0.0225089 0 0 0 0.0564595 -0.036591 -0.0193205 -0.000215753 0.000718749 -0.000368481 0.0564595 -0.036591 -0.0193205 440.995 440.995 1001.05 
158 1 1 0.14256 0.0768615 0.0229081 0 0 0 0.0664709 -0.00516758 -0.000682656 -0.000378322 0.000467759 0.000557596 0.0664709 -0.00516758 -0.000682656 443.157 443.157 1001.05 
159 1 1 0.156844 0.078026 0.00996839 0 0 0 0.00191365 0.00743366 0.0004588 -0.0012208 -0.000875908 0.000249077 0.00191365 0.00743366 0.0004588 455.279 455.279 1001.08 
160 1 1 0.146296 0.0778032 0.0464052 0 0 0 0.108473 0.00727747 0.0072177 0.000129159 -0.000202991 0.000691875 0.108473 0.00727747 0.0072177 264.324 264.324 1000.63 
161 1 1 0.00999499 0.0781208 0.02134 0 0 0 0.00635024 -0.0136391 -0.00449755 -0.0105812 -0.00282936 0.0024939 0.00635024 -0.0136391 -0.00449755 618.524 618.524 1001.47 
162 1 1 0.00996291 0.0773878 0.00997175 0 0 0 0.014702 0.00631666 -0.00213019 0.0213755 -0.00245857 -0.0075435 0.014702 0.00631666 -0.00213019 644.454 644.454 1001.53 
163 1 1 0.0263167 0.069746 0.00997436 0 0 0 0.0217391 -0.00663155 -0.00862244 -0.00203976 0.000629341 -0.00676718 0.0217391 -0.00663155 -0.00862244 494.526 494.526 1001.17 
164 1 1 0.0790448 0.0663736 0.0487236 0 0 0 0.0605935 -0.0419499 -0.05482 -0.00161968 -0.000639985 0.000572858 0.0605935 -0.0419499 -0.05482 234.957 234.957 1000.56 
165 1 1 0.110023 0.064767 0.0487518 0 0 0 0.0667465 0.0157253 -0.026401 3.24991e-05 0.000116511 0.000294863 0.0667465 0.0157253 -0.026401 244.612 244.612 1000.58 
166 1 1 0.139066 0.0770664 0.00996835 0 0 0 -0.0142537 -0.0123755 -0.000376468 -0.000894401 0.000594429 -6.21409e-06 -0.0142537 -0.0123755 -0.000376468 428.117 428.117 1001.02 
167 1 1 0.125344 0.0783718 0.0344633 0 0 0 0.075739 -0.00827428 -0.0265342 0.000105529 0.000153366 0.000486124 0.075739 -0.00827428 -0.0265342 378.868 378.868 1000.9 
168 1 1 0.151576 0.0630508 0.00996835 0 0 0 -0.00829496 -0.00511195 -0.000229777 -0.000981601 -0.000223254 0.000397119 -0.00829496 -0.00511195 -0.000229777 433.27 433.27 1001.03 
169 1 1 0.149746 0.0776076 0.0223145 0 0 0 0.0781966 0.0111711 -0.0226526 -0.000907585 0.0001353 0.000716609 0.0781966 0.0111711 -0.0226526 454.583 454.583 1001.08 
170 1 1 0.180908 0.0767708 0.00996927 0 0 0 0.0262048 0.00516125 -0.00120609 -0.000323406 4.3511e-05 0.000567486 0.0262048 0.00516125 -0.00120609 469.236 469.236 1001.11 
171 1 1 0.00996604 0.0900093 0.00995641 0 0 0 0.00100812 -0.000620288 -0.00992643 0.0189501 0.0122832 0.00825984 0.00100812 -0.000620288 -0.00992643 665.154 665.154 1001.58 
172 1 1 0.0224058 0.0900318 0.00996762 0 0 0 0.0155141 -0.00815363 0.016577 0.00298708 -0.00850069 -0.00364847 0.0155141 -0.00815363 0.016577 607.182 607.182 1001.44 
173 1 1 0.046759 0.0900215 0.00998704 0 0 0 0.000119168 -0.00814769 0.00653358 -0.00367913 -0.00394875 -0.0131703 0.000119168 -0.00814769 0.00653358 409.214 409.214 1000.97 
174 1 1 0.0560308 0.0900213 0.00997467 0 0 0 0.0080644 0.00259789 0.0102228 -0.00402768 -0.00243777 -0.00295726 0.0080644 0.00259789 0.0102228 458.337 458.337 1001.09 