ITEM: TIMESTEP
64000
ITEM: NUMBER OF ATOMS
2655
ITEM: BOX BOUNDS ff ff ff
0 0.5
0 0.1
0 0.5
ITEM: ATOMS id type type x y z ix iy iz vx vy vz fx fy fz vx vy vz p p rho 
1 1 1 0.0099762 0.00998625 0.00997904 0 0 0 0.00538236 -0.00877515 0.00971732 0.0104695 0.00382725 0.00396676 0.00538236 -0.00877515 0.00971732 418.076 418.076 1000.99 
2 1 1 0.0294849 0.00997513 0.00998036 0 0 0 -0.00779968 -0.00247279 0.00690561 -0.000610557 0.010394 -0.000159807 -0.00779968 -0.00247279 0.00690561 470.209 470.209 1001.12 
3 1 1 0.0238357 0.00998964 0.00998667 0 0 0 -0.0348883 0.00280374 0.00841656 -0.000861318 -0.00210991 -0.005574 -0.0348883 0.00280374 0.00841656 482.524 482.524 1001.14 
4 1 1 0.0646967 0.00998877 0.00996936 0 0 0 -0.0695822 0.00204994 -0.00217247 -0.00180157 -0.00477363 0.0106343 -0.0695822 0.00204994 -0.00217247 451.883 451.883 1001.07 
5 1 1 0.0700199 0.00999182 0.00997047 0 0 0 -0.0333202 -0.00656401 0.00875049 -0.0032414 -0.00663879 0.00750959 -0.0333202 -0.00656401 0.00875049 480.045 480.045 1001.14 
6 1 1 0.0905999 0.00998706 0.009983 0 0 0 -0.150709 -0.000849531 0.00720644 -0.00349689 -0.000674136 -0.00173496 -0.150709 -0.000849531 0.00720644 580.333 580.333 1001.38 
7 1 1 0.104663 0.00999701 0.00998167 0 0 0 -0.125611 -0.000822507 0.00281453 -0.0031772 -0.0085013 0.00344911 -0.125611 -0.000822507 0.00281453 647.603 647.603 1001.53 
8 1 1 0.11524 0.00998212 0.00998117 0 0 0 -0.199664 0.0106159 0.00327731 -0.00337338 0.0058823 0.00287314 -0.199664 0.0106159 0.00327731 684.439 684.439 1001.62 
9 1 1 0.123814 0.0099835 0.00999231 0 0 0 -0.172403 0.00420961 0.00203715 0.000422527 0.00205553 -0.00661774 -0.172403 0.00420961 0.00203715 664.3 664.3 1001.57 
10 1 1 0.138195 0.00998898 0.00998609 0 0 0 -0.163481 0.00348612 -0.0109263 -0.000907306 -0.000251194 0.000803752 -0.163481 0.00348612 -0.0109263 624.31 624.31 1001.48 
11 1 1 0.00998257 0.0228622 0.00998029 0 0 0 0.00257654 -0.0117902 -1.76377e-05 0.00305786 -0.00428194 -0.00269216 0.00257654 -0.0117902 -1.76377e-05 440.786 440.786 1001.05 
12 1 1 0.0273957 0.0319139 0.00997721 0 0 0 0.00278497 0.00570742 0.00159136 -0.00189716 -0.00119102 -0.000903318 0.00278497 0.00570742 0.00159136 424.251 424.251 1001.01 
13 1 1 0.0273289 0.0233229 0.0099792 0 0 0 -0.0160658 -0.00554682 0.00201415 -0.00291714 -0.00156192 -0.00280754 -0.0160658 -0.00554682 0.00201415 434.742 434.742 1001.03 
14 1 1 0.089611 0.0235379 0.009973 0 0 0 0.00239322 0.0276564 -6.46e-05 0.000959782 -0.000328261 0.00298464 0.00239322 0.0276564 -6.46e-05 454.329 454.329 1001.08 
15 1 1 0.0765757 0.0221804 0.00997721 0 0 0 -0.0279811 -0.00898637 0.000937667 -0.000830245 -0.000709137 1.66228e-05 -0.0279811 -0.00898637 0.000937667 420.233 420.233 1001 
16 1 1 0.103836 0.0236503 0.00997624 0 0 0 -0.0416207 -0.0272127 -0.00219783 -0.00124767 -0.0010065 0.00221092 -0.0416207 -0.0272127 -0.00219783 459.923 459.923 1001.09 
17 1 1 0.102005 0.0420254 0.00997504 0 0 0 -0.0799364 0.0369253 -0.00284425 -0.000759427 -0.00115999 0.00219091 -0.0799364 0.0369253 -0.00284425 436.225 436.225 1001.04 
18 1 1 0.127412 0.0348302 0.00997591 0 0 0 -0.024296 -0.007443 0.000571545 0.000528021 3.25783e-05 0.00087143 -0.024296 -0.007443 0.000571545 460.924 460.924 1001.09 
19 1 1 0.1145 0.0250465 0.00997717 0 0 0 -0.0532337 0.0204811 0.00114905 0.00046815 0.000150011 0.000735373 -0.0532337 0.0204811 0.00114905 485.215 485.215 1001.15 
20 1 1 0.157814 0.0223294 0.00997438 0 0 0 -0.140073 -0.0162418 -0.00452705 -0.00315472 6.38562e-05 0.00256314 -0.140073 -0.0162418 -0.00452705 483.588 483.588 1001.15 
21 1 1 0.0099921 0.0251804 0.00998157 0 0 0 -0.00624233 -0.00811177 0.0073622 -0.0065432 -0.00101137 -0.00363718 -0.00624233 -0.00811177 0.0073622 434.198 434.198 1001.03 
22 1 1 0.0371414 0.0378008 0.00997698 0 0 0 0.0145325 0.00337692 0.000177095 -0.000556629 0.000170516 -0.00010334 0.0145325 0.00337692 0.000177095 409.551 409.551 1000.97 
23 1 1 0.0560094 0.0377257 0.00997503 0 0 0 -0.038116 0.00675234 -0.000636817 -0.000155713 0.000533348 0.00225941 -0.038116 0.00675234 -0.000636817 383.57 383.57 1000.91 
24 1 1 0.0788968 0.029194 0.00997548 0 0 0 0.0191376 0.00431631 0.000698395 0.000625129 0.000974839 0.000347801 0.0191376 0.00431631 0.000698395 435.049 435.049 1001.03 
25 1 1 0.100509 0.030822 0.00997773 0 0 0 0.0234657 0.0586323 0.000226414 -0.00085888 0.00102185 -0.00136999 0.0234657 0.0586323 0.000226414 453.454 453.454 1001.08 
26 1 1 0.110512 0.0241436 0.0099749 0 0 0 -0.00971384 0.0465651 -0.001626 -0.00228085 -0.00132537 0.00351094 -0.00971384 0.0465651 -0.001626 496.047 496.047 1001.18 
27 1 1 0.138164 0.0426259 0.00997505 0 0 0 -0.0120453 -0.0139666 -0.000724612 -0.00203491 0.000113686 0.00161364 -0.0120453 -0.0139666 -0.000724612 462.67 462.67 1001.1 
28 1 1 0.107944 0.0353646 0.00997743 0 0 0 0.00428536 0.00819178 -0.00139603 -0.000963241 0.000553559 -0.000469272 0.00428536 0.00819178 -0.00139603 451.103 451.103 1001.07 
29 1 1 0.142831 0.0230281 0.00997809 0 0 0 -0.0768579 -0.0181907 0.000757918 -0.000724751 -0.00188815 -0.000621745 -0.0768579 -0.0181907 0.000757918 494.386 494.386 1001.17 
30 1 1 0.151298 0.0303423 0.00997596 0 0 0 -0.0702427 -0.0421291 -0.0049564 -0.00161005 0.000432763 0.00212922 -0.0702427 -0.0421291 -0.0049564 435.548 435.548 1001.03 
31 1 1 0.00998263 0.037016 0.00997935 0 0 0 -0.00028903 0.0247366 0.0062267 0.0028723 -0.00082866 -0.0017229 -0.00028903 0.0247366 0.0062267 427.797 427.797 1001.02 
32 1 1 0.021637 0.0433653 0.00997446 0 0 0 0.0103648 0.0200303 0.000301794 0.000295324 -0.00132125 -7.95172e-05 0.0103648 0.0200303 0.000301794 413.394 413.394 1000.98 
33 1 1 0.0506373 0.0376197 0.00997702 0 0 0 0.0281481 -0.016457 -0.000587558 -0.000866405 0.000465567 0.0003794 0.0281481 -0.016457 -0.000587558 371.134 371.134 1000.88 
34 1 1 0.0679673 0.0379947 0.00997547 0 0 0 -0.00346128 0.020669 -0.000439657 0.00015319 -0.000608545 0.00102263 -0.00346128 0.020669 -0.000439657 409.575 409.575 1000.97 
35 1 1 0.0745363 0.0398801 0.00997516 0 0 0 0.0385983 0.00108305 0.000105226 -8.0723e-05 -2.2474e-05 0.000154653 0.0385983 0.00108305 0.000105226 418.269 418.269 1000.99 
36 1 1 0.091215 0.032096 0.00997613 0 0 0 0.0133468 -0.0334269 0.00169165 -0.000466167 0.000281843 -0.000976497 0.0133468 -0.0334269 0.00169165 453.866 453.866 1001.08 
37 1 1 0.12105 0.0405726 0.00997635 0 0 0 -0.0315328 0.0129144 0.00202325 -0.000204554 0.000365059 3.44402e-05 -0.0315328 0.0129144 0.00202325 450.477 450.477 1001.07 
38 1 1 0.131278 0.0397214 0.009976 0 0 0 -0.0687439 0.0455494 0.000285636 -9.09532e-05 -0.000956521 0.000698391 -0.0687439 0.0455494 0.000285636 463.523 463.523 1001.1 
39 1 1 0.144829 0.0438195 0.00997523 0 0 0 -0.0107857 -0.0132963 -0.000630266 -0.000626826 0.000205438 0.00180766 -0.0107857 -0.0132963 -0.000630266 474.951 474.951 1001.13 
40 1 1 0.1601 0.0399674 0.00998195 0 0 0 -0.101754 -0.00202409 -0.00259239 0.00137013 -0.000632139 -0.00318168 -0.101754 -0.00202409 -0.00259239 453.948 453.948 1001.08 
41 1 1 0.0099916 0.0518724 0.00997122 0 0 0 0.00822048 0.0713864 -0.000850613 -0.00718028 0.000248631 0.00509621 0.00822048 0.0713864 -0.000850613 407.123 407.123 1000.97 
42 1 1 0.0354786 0.050001 0.00997516 0 0 0 0.00469173 0.000931822 -0.00202856 -0.00115148 -0.000139003 -0.00155848 0.00469173 0.000931822 -0.00202856 380.114 380.114 1000.9 
43 1 1 0.0509824 0.0500033 0.00997772 0 0 0 -0.00600037 0.000313812 -0.00300028 -0.000500007 3.28227e-05 -0.000568606 -0.00600037 0.000313812 -0.00300028 401.658 401.658 1000.95 
44 1 1 0.0702968 0.0499949 0.00997484 0 0 0 -0.0125945 0.000178719 -0.000821088 -0.00166203 8.922e-05 0.000364576 -0.0125945 0.000178719 -0.000821088 413.672 413.672 1000.98 
45 1 1 0.0818929 0.0499968 0.00997797 0 0 0 -0.0552714 -2.52109e-05 0.00016084 0.00163626 6.72207e-05 -0.000941736 -0.0552714 -2.52109e-05 0.00016084 408.778 408.778 1000.97 
46 1 1 0.0898415 0.0499985 0.00997757 0 0 0 0.0120888 -8.31641e-05 0.000743554 -0.00150493 3.28223e-05 -0.00153938 0.0120888 -8.31641e-05 0.000743554 418.003 418.003 1000.99 
47 1 1 0.0972952 0.0499977 0.00997322 0 0 0 -0.00241825 -0.000130299 -0.00331388 -0.00116664 -8.73477e-06 0.00341401 -0.00241825 -0.000130299 -0.00331388 440.991 440.991 1001.05 
48 1 1 0.127822 0.0499982 0.00997818 0 0 0 -0.00945318 -0.00011372 0.00150008 -0.00111513 -5.67487e-05 -0.00134187 -0.00945318 -0.00011372 0.00150008 437.72 437.72 1001.04 
49 1 1 0.11472 0.0499987 0.00997533 0 0 0 -0.0555053 -0.000122883 -0.00165383 -0.00140301 -4.80413e-05 0.000857212 -0.0555053 -0.000122883 -0.00165383 437.903 437.903 1001.04 
50 1 1 0.158522 0.0500026 0.00997852 0 0 0 -0.0654142 1.50445e-05 0.000468305 -0.00136061 -2.39449e-05 -0.00016443 -0.0654142 1.50445e-05 0.000468305 449.273 449.273 1001.07 
51 1 1 0.0099819 0.0630033 0.00997911 0 0 0 0.000921135 -0.0240175 0.00533163 0.00338794 0.000572133 -0.00148969 0.000921135 -0.0240175 0.00533163 441.616 441.616 1001.05 
52 1 1 0.0216321 0.0566446 0.00997483 0 0 0 0.00933759 -0.0178391 -0.000657983 0.000637048 0.000962469 -0.000484116 0.00933759 -0.0178391 -0.000657983 420.497 420.497 1001 
53 1 1 0.0506129 0.0623953 0.0099774 0 0 0 0.0270766 0.0180461 -0.000758275 -0.000570567 -0.000409495 -4.04915e-05 0.0270766 0.0180461 -0.000758275 370.115 370.115 1000.88 
54 1 1 0.067968 0.0619943 0.00997574 0 0 0 -0.00396248 -0.0203484 -0.000397931 0.000152053 0.000894219 0.000758359 -0.00396248 -0.0203484 -0.000397931 407.195 407.195 1000.97 
55 1 1 0.0745309 0.0601212 0.00997558 0 0 0 0.0379986 -0.000781278 8.68864e-05 -0.00011584 0.000293162 -0.000240674 0.0379986 -0.000781278 8.68864e-05 416.371 416.371 1000.99 
56 1 1 0.0912178 0.0678998 0.00997639 0 0 0 0.0130781 0.0330491 0.0016866 -0.000849034 -0.000313417 -0.00118963 0.0130781 0.0330491 0.0016866 452.483 452.483 1001.07 
57 1 1 0.12105 0.0594241 0.00997661 0 0 0 -0.0316164 -0.0132625 0.00198099 -0.00025936 -0.00043468 -0.000296464 -0.0316164 -0.0132625 0.00198099 451.684 451.684 1001.07 
58 1 1 0.131284 0.0602751 0.00997628 0 0 0 -0.068674 -0.0459028 6.69459e-05 -0.000115398 0.000725297 0.000341852 -0.068674 -0.0459028 6.69459e-05 464.917 464.917 1001.1 
59 1 1 0.144829 0.0561845 0.00997539 0 0 0 -0.0106696 0.0131848 -0.000755823 -0.000587249 -0.000306149 0.00161528 -0.0106696 0.0131848 -0.000755823 474.807 474.807 1001.13 
60 1 1 0.160096 0.0600436 0.00998185 0 0 0 -0.10159 0.00213148 -0.00312371 0.00132894 0.000567224 -0.00310624 -0.10159 0.00213148 -0.00312371 453.887 453.887 1001.08 
61 1 1 0.00998572 0.074822 0.00998393 0 0 0 -0.00949648 0.00828676 0.00809417 -0.000442067 -0.000315403 -0.00670413 -0.00949648 0.00828676 0.00809417 447.409 447.409 1001.06 
62 1 1 0.0371477 0.0621911 0.00997679 0 0 0 0.0141236 -0.00160592 0.000295978 -0.000478995 -0.000208556 5.41694e-05 0.0141236 -0.00160592 0.000295978 412.916 412.916 1000.98 
63 1 1 0.0560024 0.0622964 0.00997509 0 0 0 -0.038277 -0.00549644 -0.000739286 2.6826e-05 -0.000384616 0.00216062 -0.038277 -0.00549644 -0.000739286 380.75 380.75 1000.9 
64 1 1 0.0788946 0.0708002 0.00997603 0 0 0 0.0183655 -0.00417488 0.000888158 0.000417395 -0.000688949 -0.000103001 0.0183655 -0.00417488 0.000888158 428.432 428.432 1001.02 
65 1 1 0.100511 0.0691786 0.00997773 0 0 0 0.0234015 -0.0590057 -1.81317e-05 -0.000999276 -0.00135175 -0.00136951 0.0234015 -0.0590057 -1.81317e-05 456.14 456.14 1001.08 
66 1 1 0.110512 0.075849 0.00997604 0 0 0 -0.00983753 -0.0468835 -0.00245641 -0.00185495 0.000718309 0.00233896 -0.00983753 -0.0468835 -0.00245641 499.293 499.293 1001.18 
67 1 1 0.138165 0.0573708 0.00997526 0 0 0 -0.0120281 0.0136209 -0.0010325 -0.00200104 -0.000287092 0.001367 -0.0120281 0.0136209 -0.0010325 462.796 462.796 1001.1 
68 1 1 0.107944 0.0646323 0.00997748 0 0 0 0.00432387 -0.00877491 -0.00147581 -0.000882699 -0.00069549 -0.000538218 0.00432387 -0.00877491 -0.00147581 452.172 452.172 1001.07 
69 1 1 0.142837 0.076964 0.00997842 0 0 0 -0.0764047 0.0178916 0.000491066 -0.000329869 0.001315 -0.00118286 -0.0764047 0.0178916 0.000491066 501.605 501.605 1001.19 
70 1 1 0.151296 0.069659 0.00997585 0 0 0 -0.0702179 0.0421684 -0.00504623 -0.00144628 -0.000625129 0.00215797 -0.0702179 0.0421684 -0.00504623 437.243 437.243 1001.04 
71 1 1 0.00998215 0.0771157 0.00998378 0 0 0 0.00693361 0.0113267 0.00139398 0.00307685 0.00281163 -0.00713575 0.00693361 0.0113267 0.00139398 469.589 469.589 1001.11 
72 1 1 0.0273729 0.0680768 0.00997629 0 0 0 0.00237347 -0.00422647 0.000988224 -0.00166338 0.000964598 -0.000195113 0.00237347 -0.00422647 0.000988224 426.382 426.382 1001.01 
73 1 1 0.0273713 0.0766646 0.00998024 0 0 0 -0.0167437 0.00680716 0.000596482 -0.00261925 0.000493223 -0.00418998 -0.0167437 0.00680716 0.000596482 439.453 439.453 1001.04 
74 1 1 0.0896093 0.0764587 0.00997256 0 0 0 0.00173052 -0.0278626 -2.54217e-05 0.00021345 0.000101881 0.00351439 0.00173052 -0.0278626 -2.54217e-05 452.178 452.178 1001.07 
75 1 1 0.0765805 0.0778126 0.00997754 0 0 0 -0.0283573 0.0088731 0.00122749 -0.000922292 0.000675105 -0.000241063 -0.0283573 0.0088731 0.00122749 409.381 409.381 1000.97 
76 1 1 0.103838 0.0763502 0.00997656 0 0 0 -0.0417516 0.0272591 -0.00263748 -0.00114237 0.000282762 0.00184657 -0.0417516 0.0272591 -0.00263748 471.938 471.938 1001.12 
77 1 1 0.102003 0.057972 0.0099751 0 0 0 -0.0799631 -0.0373005 -0.00280926 -0.000809158 0.00107351 0.00212554 -0.0799631 -0.0373005 -0.00280926 437.026 437.026 1001.04 
78 1 1 0.12741 0.065162 0.00997633 0 0 0 -0.0243825 0.00700424 0.000615187 0.000346636 -0.000241464 0.000317107 -0.0243825 0.00700424 0.000615187 463.501 463.501 1001.1 
79 1 1 0.114506 0.0749575 0.0099777 0 0 0 -0.0530873 -0.0208373 -9.81436e-05 0.000657003 -0.000605668 0.00018548 -0.0530873 -0.0208373 -9.81436e-05 482.086 482.086 1001.14 
80 1 1 0.157814 0.0776713 0.009974 0 0 0 -0.140054 0.0163193 -0.00443242 -0.00299091 -0.000271041 0.00285604 -0.140054 0.0163193 -0.00443242 486.142 486.142 1001.15 
81 1 1 0.00996896 0.0900128 0.00999664 0 0 0 -0.00787964 0.0113559 0.00946631 0.0166213 -0.00214815 -0.0143118 -0.00787964 0.0113559 0.00946631 449.89 449.89 1001.07 
82 1 1 0.0295124 0.0900254 0.00999351 0 0 0 -0.00817249 0.00303785 0.0103098 0.000386907 -0.0105444 -0.0132915 -0.00817249 0.00303785 0.0103098 504.954 504.954 1001.2 
83 1 1 0.023883 0.0900144 0.0099834 0 0 0 -0.0348728 -0.00213837 -0.000194043 0.000225548 -0.00155002 -0.00264824 -0.0348728 -0.00213837 -0.000194043 515.297 515.297 1001.22 
84 1 1 0.0647082 0.0900089 0.00997041 0 0 0 -0.0714575 0.00250698 5.6683e-05 -0.000964823 0.00691648 0.00926021 -0.0714575 0.00250698 5.6683e-05 451.862 451.862 1001.07 
85 1 1 0.0700391 0.0900068 0.00997216 0 0 0 -0.0350956 0.00912733 0.0098639 -0.00255697 0.00778954 0.0056059 -0.0350956 0.00912733 0.0098639 473.802 473.802 1001.12 
86 1 1 0.0906108 0.0900113 0.00998238 0 0 0 -0.150935 -0.000220877 0.00711447 -0.00489813 0.00234444 -0.00113223 -0.150935 -0.000220877 0.00711447 586.102 586.102 1001.39 
87 1 1 0.104671 0.0900178 0.00998266 0 0 0 -0.125664 -0.0121779 0.00364451 -0.00304247 -0.0061546 0.00253651 -0.125664 -0.0121779 0.00364451 692.719 692.719 1001.64 
88 1 1 0.115246 0.0900119 0.00998281 0 0 0 -0.199984 -0.00291183 0.0025543 -0.00310437 0.000118053 0.00101263 -0.199984 -0.00291183 0.0025543 689.153 689.153 1001.63 
89 1 1 0.123821 0.0900076 0.00998899 0 0 0 -0.171219 0.000744414 0.00612074 -0.000540721 0.00691833 -0.00360916 -0.171219 0.000744414 0.00612074 683.359 683.359 1001.62 
90 1 1 0.138199 0.0900107 0.0099878 0 0 0 -0.163082 -0.0024008 -0.00837862 -0.000255552 0.000658346 -0.00103192 -0.163082 -0.0024008 -0.00837862 653.837 653.837 1001.55 
91 1 1 0.00999009 0.00998656 0.00996484 0 0 0 -0.0212685 0.00638977 0.0118424 -0.00340862 0.00346924 0.0182151 -0.0212685 0.00638977 0.0118424 405.031 405.031 1000.96 
92 1 1 0.0210878 0.0099854 0.00999292 0 0 0 0.0186845 0.00171466 0.00526826 -0.00181688 0.00238518 -0.0117656 0.0186845 0.00171466 0.00526826 472.7 472.7 1001.12 
93 1 1 0.0347858 0.00998931 0.00998095 0 0 0 0.0144596 -0.00210576 -0.0109992 0.00082716 -0.00469502 -0.000134273 0.0144596 -0.00210576 -0.0109992 434.645 434.645 1001.03 
94 1 1 0.0446861 0.00998944 0.00997143 0 0 0 -0.00407187 -0.00586022 0.0101496 -0.0011452 -0.00492454 0.0108402 -0.00407187 -0.00586022 0.0101496 436.497 436.497 1001.04 
95 1 1 0.0751896 0.00998489 0.00998067 0 0 0 -0.0717303 -0.00689251 0.00911045 -0.00309107 0.00064169 -0.00223607 -0.0717303 -0.00689251 0.00911045 518.862 518.862 1001.23 
96 1 1 0.100435 0.00997703 0.00999061 0 0 0 -0.159503 -0.00288159 -0.00408251 -0.00481076 0.0105509 -0.00615124 -0.159503 -0.00288159 -0.00408251 605.016 605.016 1001.43 
97 1 1 0.10903 0.00999362 0.00999118 0 0 0 -0.125373 0.00304912 -0.0059806 -0.00164379 -0.00495112 -0.00657806 -0.125373 0.00304912 -0.0059806 659.833 659.833 1001.56 
98 1 1 0.117944 0.00999171 0.00998293 0 0 0 -0.129467 0.00635131 0.00125745 0.00148269 -0.00436206 0.00145785 -0.129467 0.00635131 0.00125745 673.207 673.207 1001.6 
99 1 1 0.128737 0.00998703 0.00998885 0 0 0 -0.157238 -0.0109939 0.0066535 0.000778886 -0.0010637 -0.00228465 -0.157238 -0.0109939 0.0066535 649.497 649.497 1001.54 
100 1 1 0.132575 0.00998062 0.00999703 0 0 0 -0.152937 -0.000731068 -0.00464817 0.00325156 0.00656615 -0.00963671 -0.152937 -0.000731068 -0.00464817 644.476 644.476 1001.53 
101 1 1 0.00998129 0.0225449 0.024738 0 0 0 -0.0055789 0.0446378 0.021392 0.00634175 -0.000799433 -0.000256026 -0.0055789 0.0446378 0.021392 283.576 283.576 1000.67 
102 1 1 0.0208584 0.0231014 0.00997869 0 0 0 -0.013627 0.00735606 0.00314064 -0.000118338 -0.00208253 -0.00332095 -0.013627 0.00735606 0.00314064 464.954 464.954 1001.1 
103 1 1 0.0401088 0.0224149 0.02246 0 0 0 -0.0812977 -0.030932 0.016618 -0.00105284 -0.000521883 -0.000641723 -0.0812977 -0.030932 0.016618 280.507 280.507 1000.67 
104 1 1 0.0867567 0.0220422 0.0302958 0 0 0 0.017322 -0.00278594 0.0402151 0.00152751 0.000108195 0.00207923 0.017322 -0.00278594 0.0402151 218.521 218.521 1000.52 
105 1 1 0.128463 0.0218584 0.0426014 0 0 0 -0.0191563 -0.00281122 0.0109299 2.40759e-05 -0.000870096 0.000470285 -0.0191563 -0.00281122 0.0109299 127.598 127.598 1000.3 
106 1 1 0.125068 0.0220668 0.00996492 0 0 0 0.00656298 -0.0191546 0.00284842 0.000329623 0.00353553 0.0133801 0.00656298 -0.0191546 0.00284842 512.348 512.348 1001.22 
107 1 1 0.174437 0.0219433 0.0244909 0 0 0 -0.0424725 0.0332715 0.0593018 -0.00166784 0.000746288 0.000701492 -0.0424725 0.0332715 0.0593018 322.955 322.955 1000.77 
108 1 1 0.135577 0.0273437 0.00998089 0 0 0 -0.0227256 0.0359577 -0.00149889 0.000258142 -0.000188763 -0.00321541 -0.0227256 0.0359577 -0.00149889 463.705 463.705 1001.1 
109 1 1 0.194625 0.0232454 0.0222354 0 0 0 0.0189792 -0.0324213 0.030872 -0.00142211 0.000103426 0.001095 0.0189792 -0.0324213 0.030872 370.06 370.06 1000.88 
110 1 1 0.178549 0.023569 0.00997446 0 0 0 -0.137889 -0.012552 0.00188634 -0.000639792 -0.000411797 0.00173485 -0.137889 -0.012552 0.00188634 545.524 545.524 1001.29 
111 1 1 0.00998684 0.0318613 0.00997907 0 0 0 -0.000235429 -0.0156028 0.00297707 -0.00143899 -0.00148083 -0.000127841 -0.000235429 -0.0156028 0.00297707 422.704 422.704 1001 
112 1 1 0.021948 0.0218602 0.0351837 0 0 0 -0.00689838 0.0399948 0.0983479 -0.00217674 -0.00267654 -0.00234888 -0.00689838 0.0399948 0.0983479 151.242 151.242 1000.36 
113 1 1 0.0432616 0.0329888 0.00997979 0 0 0 -0.037013 -0.0332672 0.000856861 -0.000804585 -0.000792877 -0.00218642 -0.037013 -0.0332672 0.000856861 395.47 395.47 1000.94 
114 1 1 0.0546393 0.0229696 0.00997817 0 0 0 0.00146669 -0.00537193 0.000738708 -0.000406335 -0.00116102 -0.000691847 0.00146669 -0.00537193 0.000738708 405.792 405.792 1000.96 
115 1 1 0.0866553 0.0213804 0.0225764 0 0 0 -0.0220236 0.00558695 -0.000724171 0.000360698 0.00119053 0.000166605 -0.0220236 0.00558695 -0.000724171 291.715 291.715 1000.69 
116 1 1 0.0947973 0.0405011 0.00997627 0 0 0 -0.0391726 -0.0236866 -0.000601248 0.000886834 -0.00100273 0.000310951 -0.0391726 -0.0236866 -0.000601248 446.124 446.124 1001.06 
117 1 1 0.168939 0.0297211 0.0255346 0 0 0 -0.0260011 -0.0110074 -0.0341281 -0.000346931 0.000336407 -8.19962e-05 -0.0260011 -0.0110074 -0.0341281 290.011 290.011 1000.69 
118 1 1 0.187057 0.0193438 0.023225 0 0 0 0.00178844 0.0162629 -0.02299 0.000287289 0.00262613 0.000770886 0.00178844 0.0162629 -0.02299 348.687 348.687 1000.83 
119 1 1 0.147792 0.0241882 0.00997588 0 0 0 -0.0866802 0.0297859 -0.000392103 0.000852711 -0.00309386 0.00143583 -0.0866802 0.0297859 -0.000392103 517.928 517.928 1001.23 
120 1 1 0.200873 0.0214053 0.0255441 0 0 0 -0.00840978 0.0254542 7.31898e-05 -0.000865034 0.00105349 7.48225e-05 -0.00840978 0.0254542 7.31898e-05 343.853 343.853 1000.82 
121 1 1 0.00997744 0.0415163 0.00998075 0 0 0 -0.00316579 0.0130653 0.000655453 0.00783475 0.000717777 -0.0038903 -0.00316579 0.0130653 0.000655453 403.912 403.912 1000.96 
122 1 1 0.02172 0.0345303 0.00997848 0 0 0 -0.0622905 -0.0562107 0.00406922 -0.00130207 0.00051603 -0.00365919 -0.0622905 -0.0562107 0.00406922 419.211 419.211 1001 
123 1 1 0.034291 0.0218062 0.00997837 0 0 0 -0.0226568 -0.0457294 0.00619621 -0.000939667 0.00137222 -0.001558 -0.0226568 -0.0457294 0.00619621 421.167 421.167 1001 
124 1 1 0.0714572 0.0290292 0.00997372 0 0 0 -0.00566153 0.00298451 0.000668377 -0.00147847 0.000233063 0.00197452 -0.00566153 0.00298451 0.000668377 424.291 424.291 1001.01 
125 1 1 0.0818198 0.0388682 0.009974 0 0 0 -0.0286273 -0.0389971 0.00137485 -0.00141446 -0.000442384 7.16692e-05 -0.0286273 -0.0389971 0.00137485 424.917 424.917 1001.01 
126 1 1 0.117998 0.0355838 0.00997505 0 0 0 -0.0204962 -0.00269544 0.00135964 -0.000742484 0.00042504 0.00144259 -0.0204962 -0.00269544 0.00135964 458.071 458.071 1001.09 
127 1 1 0.148365 0.0380619 0.00997639 0 0 0 -0.0572986 0.0385169 -0.00143805 -0.00013071 -0.00200244 0.00129926 -0.0572986 0.0385169 -0.00143805 445.533 445.533 1001.06 
128 1 1 0.139692 0.0330735 0.00997615 0 0 0 -0.0944204 -0.00270352 0.000306033 -0.000494347 0.000913831 0.000700044 -0.0944204 -0.00270352 0.000306033 448.449 448.449 1001.06 
129 1 1 0.132162 0.0233259 0.00998178 0 0 0 -0.109168 -0.0153893 -2.67865e-05 0.00178126 -0.000130311 -0.00323954 -0.109168 -0.0153893 -2.67865e-05 488.718 488.718 1001.16 
130 1 1 0.176669 0.0309891 0.00997888 0 0 0 -0.0687746 0.0360282 0.000949053 0.000274395 -0.000200147 -0.00148569 -0.0687746 0.0360282 0.000949053 504.311 504.311 1001.2 
131 1 1 0.00999112 0.0481726 0.00997562 0 0 0 -0.00423672 -0.0664361 -0.00225997 -0.00657237 -0.00134016 0.000719502 -0.00423672 -0.0664361 -0.00225997 383.433 383.433 1000.91 
132 1 1 0.0223741 0.0500077 0.00997458 0 0 0 0.038099 0.00144486 0.000332969 -0.000236612 -0.000267162 0.000655717 0.038099 0.00144486 0.000332969 429.011 429.011 1001.02 
133 1 1 0.0448876 0.0499944 0.00997426 0 0 0 -0.0543857 0.000348555 0.00145864 -0.00272904 -5.70983e-05 0.000936416 -0.0543857 0.000348555 0.00145864 419.558 419.558 1001 
134 1 1 0.0766429 0.0499994 0.00997701 0 0 0 0.076511 8.28944e-05 -0.0002484 -0.000643741 7.56901e-05 8.121e-05 0.076511 8.28944e-05 -0.0002484 411.772 411.772 1000.98 
135 1 1 0.120426 0.0499995 0.0099753 0 0 0 -0.0363736 -0.000120792 -0.00196048 -0.00123403 -5.34758e-05 0.00112395 -0.0363736 -0.000120792 -0.00196048 429.696 429.696 1001.02 
136 1 1 0.131178 0.0499986 0.0239178 0 0 0 -0.0133514 -0.000119254 0.0713555 0.000638321 -8.71629e-05 0.000507806 -0.0133514 -0.000119254 0.0713555 261.196 261.196 1000.62 
137 1 1 0.163811 0.0499997 0.0212893 0 0 0 -0.0582858 -7.75773e-05 -0.00519289 -0.000633123 -3.35381e-05 0.00169523 -0.0582858 -7.75773e-05 -0.00519289 300.247 300.247 1000.71 
138 1 1 0.133049 0.0499982 0.00997709 0 0 0 -0.0413912 -0.000147193 -0.00045659 0.00088243 -5.53903e-05 0.000338962 -0.0413912 -0.000147193 -0.00045659 439.581 439.581 1001.04 
139 1 1 0.148078 0.0499996 0.00997497 0 0 0 -0.100726 -3.26306e-05 0.000891721 0.000943785 -1.90901e-05 0.00281175 -0.100726 -3.26306e-05 0.000891721 478.58 478.58 1001.14 
140 1 1 0.214075 0.05 0.0257374 0 0 0 0.0613602 -3.58902e-05 -0.0111681 0.000514924 -7.25891e-06 0.000816103 0.0613602 -3.58902e-05 -0.0111681 319.215 319.215 1000.76 
141 1 1 0.00997721 0.0585318 0.00998061 0 0 0 -0.00135671 -0.0103234 7.94851e-05 0.00787708 -0.00123366 -0.00368476 -0.00135671 -0.0103234 7.94851e-05 419.428 419.428 1001 
142 1 1 0.0216964 0.0654665 0.00997849 0 0 0 -0.0627644 0.0570787 0.00265852 -0.000796401 -0.000737421 -0.00381384 -0.0627644 0.0570787 0.00265852 423.221 423.221 1001 
143 1 1 0.0342622 0.0782365 0.00997598 0 0 0 -0.0238529 0.0473658 0.00630485 -0.000480236 -0.00241367 0.00070513 -0.0238529 0.0473658 0.00630485 427.171 427.171 1001.01 
144 1 1 0.0714518 0.070962 0.00997404 0 0 0 -0.00662181 -0.00310695 0.000525089 -0.0014298 2.72155e-05 0.00169699 -0.00662181 -0.00310695 0.000525089 416.656 416.656 1000.99 
145 1 1 0.0818167 0.0611271 0.00997434 0 0 0 -0.0289306 0.0388903 0.00143009 -0.00150686 0.00066507 -0.000237702 -0.0289306 0.0388903 0.00143009 423.001 423.001 1001 
146 1 1 0.117997 0.0644162 0.00997513 0 0 0 -0.0204735 0.00230972 0.0012695 -0.000801531 -0.000438027 0.00131046 -0.0204735 0.00230972 0.0012695 458.366 458.366 1001.09 
147 1 1 0.148357 0.0619404 0.00997664 0 0 0 -0.0572648 -0.0385714 -0.00149253 -4.38903e-05 0.00183457 0.00100032 -0.0572648 -0.0385714 -0.00149253 446.034 446.034 1001.06 
148 1 1 0.139697 0.0669348 0.00997662 0 0 0 -0.0940914 0.00277428 4.54689e-05 -0.000362505 -0.00128054 8.84705e-05 -0.0940914 0.00277428 4.54689e-05 451.902 451.902 1001.07 
149 1 1 0.1322 0.0766878 0.00998128 0 0 0 -0.108457 0.0160994 0.00174363 0.00154242 -0.000623311 -0.00299921 -0.108457 0.0160994 0.00174363 500.306 500.306 1001.19 
150 1 1 0.176668 0.069013 0.00997889 0 0 0 -0.0688823 -0.0361125 0.000873603 0.000328385 0.000205866 -0.00151056 -0.0688823 -0.0361125 0.000873603 504.614 504.614 1001.2 
151 1 1 0.00998766 0.0682087 0.00997877 0 0 0 -0.00339738 0.0174636 0.00298856 -0.002466 0.000917791 -3.47038e-05 -0.00339738 0.0174636 0.00298856 430.813 430.813 1001.02 
152 1 1 0.0219053 0.0781633 0.0355988 0 0 0 -0.00869748 -0.0413722 0.0970569 -0.000467273 0.00199579 -0.00294631 -0.00869748 -0.0413722 0.0970569 194.381 194.381 1000.46 
153 1 1 0.0432629 0.0670077 0.00997988 0 0 0 -0.0386095 0.0344847 0.00103409 -0.000613016 0.000817048 -0.00233131 -0.0386095 0.0344847 0.00103409 398.835 398.835 1000.95 
154 1 1 0.0546298 0.077044 0.00997809 0 0 0 0.000982318 0.00667588 -0.000188517 -4.88194e-05 0.000630195 -0.000801391 0.000982318 0.00667588 -0.000188517 400.297 400.297 1000.95 
155 1 1 0.0866531 0.0786146 0.0225602 0 0 0 -0.0224035 -0.00624141 -0.00161505 0.000188392 -0.00137643 -0.000193383 -0.0224035 -0.00624141 -0.00161505 288.031 288.031 1000.68 
156 1 1 0.0947996 0.0594972 0.00997638 0 0 0 -0.0392893 0.0233441 -0.000556247 0.000761503 0.000976283 0.000216193 -0.0392893 0.0233441 -0.000556247 446.141 446.141 1001.06 
157 1 1 0.168939 0.0702793 0.0255344 0 0 0 -0.0260039 0.0109104 -0.0341093 -0.000295311 -0.000359746 -2.6812e-05 -0.0260039 0.0109104 -0.0341093 290.974 290.974 1000.69 
158 1 1 0.187057 0.080656 0.0232251 0 0 0 0.00175077 -0.0163712 -0.0229054 0.000324157 -0.00265226 0.000815805 0.00175077 -0.0163712 -0.0229054 348.798 348.798 1000.83 
159 1 1 0.147789 0.0758097 0.00997592 0 0 0 -0.0867349 -0.0297593 -0.000792117 0.00119091 0.00272589 0.00123287 -0.0867349 -0.0297593 -0.000792117 521.749 521.749 1001.24 
160 1 1 0.200872 0.0785944 0.0255441 0 0 0 -0.00839511 -0.0256099 0.000204936 -0.000873605 -0.00106199 9.51688e-05 -0.00839511 -0.0256099 0.000204936 343.369 343.369 1000.82 
161 1 1 0.00998727 0.0770701 0.0249018 0 0 0 0.00683383 -0.0385548 0.014153 -0.000921277 0.000411507 -0.00205865 0.00683383 -0.0385548 0.014153 336.274 336.274 1000.8 
162 1 1 0.0208818 0.0768743 0.00997994 0 0 0 -0.0115626 -0.00653832 0.000659555 0.000702221 0.000749552 -0.00532755 -0.0115626 -0.00653832 0.000659555 473.459 473.459 1001.12 
163 1 1 0.0400845 0.0775515 0.0225118 0 0 0 -0.0809706 0.0315122 0.0169186 -0.000959085 -8.51582e-05 -0.000738305 -0.0809706 0.0315122 0.0169186 287.289 287.289 1000.68 
164 1 1 0.0867526 0.0779558 0.0302899 0 0 0 0.0170175 0.00285962 0.0407867 0.00135976 -0.000415739 0.00155652 0.0170175 0.00285962 0.0407867 222.363 222.363 1000.53 
165 1 1 0.128457 0.0781405 0.0425985 0 0 0 -0.0193354 0.00249671 0.0110976 0.000100447 0.000754752 0.000719555 -0.0193354 0.00249671 0.0110976 125.815 125.815 1000.3 
166 1 1 0.125063 0.0779341 0.0099643 0 0 0 0.00675323 0.0187357 0.00244284 -0.000248631 -0.0044669 0.0138069 0.00675323 0.0187357 0.00244284 514.586 514.586 1001.22 
167 1 1 0.174436 0.0780562 0.024491 0 0 0 -0.0425177 -0.0333307 0.059343 -0.0015719 -0.000778195 0.00076097 -0.0425177 -0.0333307 0.059343 323.737 323.737 1000.77 
168 1 1 0.135525 0.0726491 0.00998085 0 0 0 -0.023101 -0.0368918 -0.000664692 0.000324852 -0.000356224 -0.00339355 -0.023101 -0.0368918 -0.000664692 472.246 472.246 1001.12 
169 1 1 0.194625 0.0767549 0.0222356 0 0 0 0.0189504 0.0322921 0.0309147 -0.00140723 -0.00010487 0.00111694 0.0189504 0.0322921 0.0309147 369.733 369.733 1000.88 
170 1 1 0.178548 0.0764301 0.00997453 0 0 0 -0.137927 0.0125204 0.00196915 -0.00057494 0.000410477 0.00165303 -0.137927 0.0125204 0.00196915 545.879 545.879 1001.29 
171 1 1 0.00998178 0.090009 0.00998338 0 0 0 0.0120066 -0.00985172 -0.00686018 0.00371827 0.00158251 -0.00101258 0.0120066 -0.00985172 -0.00686018 481.564 481.564 1001.14 
172 1 1 0.0211237 0.0900152 0.00998312 0 0 0 0.0192053 -0.00313228 0.00980149 -0.000773579 -0.00253009 -0.00248089 0.0192053 -0.00313228 0.00980149 530.83 530.83 1001.26 
173 1 1 0.03475 0.0900084 0.00998202 0 0 0 0.0134505 0.003876 -0.00777889 0.00191197 0.00737045 -0.00131746 0.0134505 0.003876 -0.00777889 458.226 458.226 1001.09 
174 1 1 0.0446828 0.0900138 0.00997096 0 0 0 -0.00435328 0.0069852 0.0115313 -0.000754539 0.00176342 0.0106762 -0.00435328 0.0069852 0.0115313 448.316 448.316 1001.06 