ITEM: TIMESTEP
94000
ITEM: NUMBER OF ATOMS
2655
ITEM: BOX BOUNDS ff ff ff
0 0.5
0 0.1
0 0.5
ITEM: ATOMS id type type x y z ix iy iz vx vy vz fx fy fz vx vy vz p p rho 
1 1 1 0.00996781 0.00997102 0.00997728 0 0 0 0.00493094 0.00178126 -0.010609 0.000257804 0.00942144 0.0128856 0.00493094 0.00178126 -0.010609 687.877 687.877 1001.63 
2 1 1 0.0263847 0.00998075 0.0100021 0 0 0 0.0308115 -0.00210771 -0.0104508 0.00018478 -0.0054307 -0.0291779 0.0308115 -0.00210771 -0.0104508 703.686 703.686 1001.67 
3 1 1 0.0227133 0.00996956 0.0099989 0 0 0 -0.0268264 0.00393508 0.0142893 0.000317805 0.00496103 -0.00707173 -0.0268264 0.00393508 0.0142893 728.363 728.363 1001.73 
4 1 1 0.0564953 0.00997432 0.00998952 0 0 0 0.014703 0.00635426 0.00867353 -0.000195248 7.8981e-06 0.000343297 0.014703 0.00635426 0.00867353 698.26 698.26 1001.65 
5 1 1 0.0607804 0.00997478 0.00997241 0 0 0 0.000649338 -0.00517823 -0.00859072 -0.00063767 -1.56972e-05 0.0168843 0.000649338 -0.00517823 -0.00859072 673.043 673.043 1001.59 
6 1 1 0.0779628 0.00997473 0.00997267 0 0 0 0.0157775 -0.000286545 0.0113932 -0.000158979 -0.000744974 0.0163999 0.0157775 -0.000286545 0.0113932 730.397 730.397 1001.73 
7 1 1 0.0907787 0.00997373 0.00999403 0 0 0 -0.000434007 0.00208607 0.0016503 0.00248448 0.00113476 -0.00383898 -0.000434007 0.00208607 0.0016503 704.33 704.33 1001.67 
8 1 1 0.0988156 0.00997285 0.00999911 0 0 0 0.0208453 -0.000169505 -0.0111735 0.00433411 0.00171463 -0.00943085 0.0208453 -0.000169505 -0.0111735 667.713 667.713 1001.58 
9 1 1 0.107941 0.00997221 0.00999749 0 0 0 -0.0115517 -0.0057735 -0.00823803 0.00115771 0.00439671 -0.00894344 -0.0115517 -0.0057735 -0.00823803 639.019 639.019 1001.51 
10 1 1 0.120386 0.00997414 0.00999478 0 0 0 0.00447277 0.00282665 -0.0106546 0.00170948 0.00254757 -0.00618465 0.00447277 0.00282665 -0.0106546 637.31 637.31 1001.51 
11 1 1 0.00995706 0.0217453 0.00999455 0 0 0 0.00339216 -0.013055 0.0066646 0.00371513 -0.00117835 -0.00817929 0.00339216 -0.013055 0.0066646 746.024 746.024 1001.77 
12 1 1 0.026155 0.0340165 0.0099896 0 0 0 0.0113298 -0.0283302 0.0011109 0.000289606 -0.00054547 -0.00203193 0.0113298 -0.0283302 0.0011109 701.553 701.553 1001.66 
13 1 1 0.0229791 0.0221728 0.00998888 0 0 0 -0.0112669 -0.0147908 0.00228852 -0.000199251 -0.000956447 -0.00195474 -0.0112669 -0.0147908 0.00228852 735.609 735.609 1001.74 
14 1 1 0.0761538 0.0225078 0.00998742 0 0 0 -0.027431 -0.00310722 -0.00277728 0.000510917 0.0020777 0.000482736 -0.027431 -0.00310722 -0.00277728 717.117 717.117 1001.7 
15 1 1 0.0651031 0.0236417 0.00998647 0 0 0 -0.0247547 -0.00962513 0.00134078 0.000722507 -0.000240088 -0.000188921 -0.0247547 -0.00962513 0.00134078 706.041 706.041 1001.67 
16 1 1 0.0875887 0.0223078 0.00998813 0 0 0 -0.0107327 0.0181662 -0.00109622 0.00109381 0.000949478 2.83024e-05 -0.0107327 0.0181662 -0.00109622 701.172 701.172 1001.66 
17 1 1 0.0911064 0.0419395 0.00998687 0 0 0 -0.0247791 0.0268768 -0.00122283 0.000215251 0.000419894 -0.00139039 -0.0247791 0.0268768 -0.00122283 637.429 637.429 1001.51 
18 1 1 0.116307 0.0323416 0.009984 0 0 0 -0.0288993 -0.00813065 -0.000642627 0.00236753 -0.000419376 0.000255291 -0.0288993 -0.00813065 -0.000642627 629.537 629.537 1001.49 
19 1 1 0.0993893 0.021787 0.00998533 0 0 0 -0.0521058 0.0266274 -0.000614834 0.00312903 0.000729558 0.00144466 -0.0521058 0.0266274 -0.000614834 682.486 682.486 1001.62 
20 1 1 0.133582 0.0221886 0.00998941 0 0 0 -0.0284233 -0.0107426 -0.00191732 0.00216116 -0.000794641 -0.00427907 -0.0284233 -0.0107426 -0.00191732 635.487 635.487 1001.51 
21 1 1 0.0099638 0.0264841 0.00998758 0 0 0 0.000713844 0.018522 0.0026212 -0.000940384 -0.00169092 -0.00100919 0.000713844 0.018522 0.0026212 735.578 735.578 1001.74 
22 1 1 0.034701 0.0359953 0.00998901 0 0 0 0.0261034 -0.0114965 -0.000445232 -0.000562988 0.000124361 -0.000980984 0.0261034 -0.0114965 -0.000445232 673.737 673.737 1001.6 
23 1 1 0.0535899 0.0437173 0.00998537 0 0 0 -0.0353175 0.00201423 -0.00191073 0.000296629 6.09398e-05 -0.000176559 -0.0353175 0.00201423 -0.00191073 629.056 629.056 1001.49 
24 1 1 0.0726021 0.0320326 0.00998701 0 0 0 -0.0282662 0.0094801 -0.000112215 0.000437136 -0.00060261 -0.00119706 -0.0282662 0.0094801 -0.000112215 670.532 670.532 1001.59 
25 1 1 0.0960165 0.0365845 0.0099857 0 0 0 -0.000959701 -0.0048229 0.00152658 0.00043173 -0.000264603 0.000351554 -0.000959701 -0.0048229 0.00152658 647.37 647.37 1001.53 
26 1 1 0.0936731 0.0232342 0.00998743 0 0 0 -0.0507634 -0.004632 -0.00222094 0.00133014 0.000545972 0.000160394 -0.0507634 -0.004632 -0.00222094 692.047 692.047 1001.64 
27 1 1 0.117522 0.0435769 0.0099839 0 0 0 -0.053482 -0.00710779 -0.00044212 0.00168244 0.000420724 0.00057736 -0.053482 -0.00710779 -0.00044212 607.807 607.807 1001.44 
28 1 1 0.0932271 0.0304417 0.00998668 0 0 0 -0.0448462 0.0323382 0.00144663 0.00127694 0.000131555 -0.000168279 -0.0448462 0.0323382 0.00144663 686.878 686.878 1001.63 
29 1 1 0.122711 0.022391 0.00998482 0 0 0 -0.0603764 -0.0134599 0.000942563 0.0019773 0.00025872 0.00111792 -0.0603764 -0.0134599 0.000942563 664.712 664.712 1001.58 
30 1 1 0.130624 0.0338004 0.00998532 0 0 0 -0.0674073 -0.0246408 -0.0012762 0.00103049 -0.000533835 -0.00146188 -0.0674073 -0.0246408 -0.0012762 594.223 594.223 1001.41 
31 1 1 0.00996613 0.0370537 0.00998527 0 0 0 -0.00137575 0.0438637 0.00331115 0.000240169 0.00147052 0.00121522 -0.00137575 0.0438637 0.00331115 688.839 688.839 1001.63 
32 1 1 0.0223392 0.0414743 0.00998666 0 0 0 0.0431129 0.00896231 0.0008965 -5.39866e-05 0.000294167 -0.000822237 0.0431129 0.00896231 0.0008965 684.855 684.855 1001.62 
33 1 1 0.04608 0.0377337 0.00998624 0 0 0 0.0200895 -0.000619877 -0.00188307 0.00046129 -0.000362689 -0.000671092 0.0200895 -0.000619877 -0.00188307 649.366 649.366 1001.54 
34 1 1 0.0624485 0.0378964 0.00998713 0 0 0 -0.0175173 -0.0279721 8.24511e-05 1.82429e-05 0.000410039 -0.0014893 -0.0175173 -0.0279721 8.24511e-05 653.187 653.187 1001.55 
35 1 1 0.0673742 0.0419278 0.00998675 0 0 0 -0.0484805 -0.0160527 0.00022805 0.000627726 -0.000251351 -0.000692188 -0.0484805 -0.0160527 0.00022805 641.391 641.391 1001.52 
36 1 1 0.0830382 0.0313695 0.0099859 0 0 0 -0.0304167 -0.00592277 0.00181574 0.00135337 0.000247465 0.0010069 -0.0304167 -0.00592277 0.00181574 667.557 667.557 1001.58 
37 1 1 0.106741 0.037462 0.00998428 0 0 0 0.000431668 -0.0197806 0.00057001 0.000908405 -0.000140983 0.000840434 0.000431668 -0.0197806 0.00057001 622.41 622.41 1001.48 
38 1 1 0.112466 0.0384602 0.00998448 0 0 0 -0.011992 -0.0163249 -0.000129235 0.00143544 -0.000551998 0.000122264 -0.011992 -0.0163249 -0.000129235 618.447 618.447 1001.47 
39 1 1 0.132906 0.0417748 0.00998307 0 0 0 -0.0379618 -0.00906711 0.000529492 0.00160786 -0.000163148 0.000416815 -0.0379618 -0.00906711 0.000529492 577.366 577.366 1001.37 
40 1 1 0.145252 0.0357495 0.00998571 0 0 0 -0.0492162 0.0147501 0.00259537 0.00146157 -7.53361e-05 -0.00132887 -0.0492162 0.0147501 0.00259537 573.165 573.165 1001.36 
41 1 1 0.0099668 0.0530329 0.00998781 0 0 0 0.00518038 0.0190007 -0.00547019 -0.000584557 -0.000711875 -0.00138353 0.00518038 0.0190007 -0.00547019 670.482 670.482 1001.59 
42 1 1 0.0317083 0.0502838 0.00998405 0 0 0 -0.039639 0.0105834 0.000865352 -0.00075995 -1.1339e-05 -0.000235935 -0.039639 0.0105834 0.000865352 654.116 654.116 1001.55 
43 1 1 0.0445979 0.0519353 0.00998586 0 0 0 0.00268755 0.025677 0.00123431 -0.00102044 -0.000870206 -0.00105826 0.00268755 0.025677 0.00123431 634.237 634.237 1001.5 
44 1 1 0.0646804 0.0495975 0.00998685 0 0 0 -0.0302133 -0.00732263 0.000605347 -0.00142692 -0.000192858 -0.000250728 -0.0302133 -0.00732263 0.000605347 627.847 627.847 1001.49 
45 1 1 0.0773674 0.049851 0.00998425 0 0 0 -0.0372106 -0.00402177 0.000545998 -8.86227e-05 -4.3062e-05 0.00015619 -0.0372106 -0.00402177 0.000545998 643.279 643.279 1001.52 
46 1 1 0.0833942 0.0501278 0.0099831 0 0 0 -0.0450419 0.00366802 0.00129877 0.00058808 -3.93526e-05 0.00132134 -0.0450419 0.00366802 0.00129877 634.577 634.577 1001.5 
47 1 1 0.0896145 0.0495941 0.00998644 0 0 0 -0.00139271 -0.00212886 -0.00191852 0.00143836 0.000162458 -0.00140621 -0.00139271 -0.00212886 -0.00191852 631.122 631.122 1001.5 
48 1 1 0.112997 0.0498564 0.00998441 0 0 0 -0.0509773 2.0475e-05 0.00116432 0.00194271 -0.000132521 0.000638232 -0.0509773 2.0475e-05 0.00116432 611.076 611.076 1001.45 
49 1 1 0.102415 0.0496198 0.00998705 0 0 0 -0.0348765 -0.00862827 -0.000908619 0.00071436 -0.000343882 -0.000893049 -0.0348765 -0.00862827 -0.000908619 620.098 620.098 1001.47 
50 1 1 0.137881 0.0500616 0.00998405 0 0 0 -0.0801273 -0.000748286 -0.000468897 0.00093262 -0.000359208 -0.000595644 -0.0801273 -0.000748286 -0.000468897 565.846 565.846 1001.34 
51 1 1 0.0099663 0.0630067 0.0099838 0 0 0 -0.000798864 -0.061005 0.00432372 0.000195546 -0.0011495 0.0019394 -0.000798864 -0.061005 0.00432372 688.15 688.15 1001.63 
52 1 1 0.02115 0.0591961 0.00998656 0 0 0 0.0211646 0.0197029 -0.000420493 0.000419418 0.000803238 -0.00139467 0.0211646 0.0197029 -0.000420493 668.536 668.536 1001.58 
53 1 1 0.0461648 0.0619082 0.00998747 0 0 0 0.0247517 -0.00882026 -0.00210708 0.000249771 0.000896817 -0.000871487 0.0247517 -0.00882026 -0.00210708 648.628 648.628 1001.54 
54 1 1 0.062622 0.0617511 0.00998732 0 0 0 -0.012569 0.0212005 -0.000212627 0.000174566 -0.000106557 -0.00116821 -0.012569 0.0212005 -0.000212627 646.229 646.229 1001.53 
55 1 1 0.0673661 0.0578964 0.00998667 0 0 0 -0.0438528 0.00993283 -0.000260825 0.000628404 0.00049219 -0.00036387 -0.0438528 0.00993283 -0.000260825 636.873 636.873 1001.51 
56 1 1 0.0831796 0.0685879 0.00998587 0 0 0 -0.0268354 0.00540353 0.00222697 0.00125775 -0.000359671 0.00127655 -0.0268354 0.00540353 0.00222697 670.528 670.528 1001.59 
57 1 1 0.106652 0.0623504 0.00998443 0 0 0 -0.00199611 0.0128312 0.000708202 0.000701717 -9.8321e-05 0.0006337 -0.00199611 0.0128312 0.000708202 625.766 625.766 1001.48 
58 1 1 0.112586 0.0615671 0.00998483 0 0 0 -0.0101693 0.0157957 -0.000165833 0.00121261 0.00047052 -0.000355193 -0.0101693 0.0157957 -0.000165833 623.441 623.441 1001.48 
59 1 1 0.132993 0.0582873 0.00998378 0 0 0 -0.0389732 0.00846348 -5.00317e-05 0.00160496 -0.000429488 -0.000330165 -0.0389732 0.00846348 -5.00317e-05 581.702 581.702 1001.38 
60 1 1 0.144597 0.0647339 0.00998637 0 0 0 -0.0526158 -0.00855798 0.00236378 0.00127084 -0.000263174 -0.00196711 -0.0526158 -0.00855798 0.00236378 588.999 588.999 1001.4 
61 1 1 0.00996444 0.0738286 0.00998762 0 0 0 -0.000713465 -0.0284324 -0.00329474 -0.00148842 -0.000282185 -0.00085249 -0.000713465 -0.0284324 -0.00329474 716.619 716.619 1001.7 
62 1 1 0.0350201 0.0635586 0.00998711 0 0 0 0.0237777 0.000951889 -0.000505246 -6.83511e-05 0.00106207 -0.00054906 0.0237777 0.000951889 -0.000505246 677.267 677.267 1001.6 
63 1 1 0.0546389 0.0567328 0.00998543 0 0 0 -0.0166047 -0.00782744 -0.00157211 0.000242753 6.65802e-05 1.88642e-05 -0.0166047 -0.00782744 -0.00157211 625.053 625.053 1001.48 
64 1 1 0.0728354 0.067896 0.00998669 0 0 0 -0.0286218 -0.0116895 0.00101949 0.000275813 0.000729 -0.00117607 -0.0286218 -0.0116895 0.00101949 670.846 670.846 1001.59 
65 1 1 0.0959425 0.0634619 0.00998586 0 0 0 -0.00100639 0.00402905 0.0013193 0.000398635 -8.2543e-05 0.000172216 -0.00100639 0.00402905 0.0013193 649.707 649.707 1001.54 
66 1 1 0.0936329 0.0766584 0.00998707 0 0 0 -0.0498696 0.00570195 -0.0017797 0.000761782 -0.000264125 0.0007399 -0.0498696 0.00570195 -0.0017797 698.349 698.349 1001.65 
67 1 1 0.117225 0.0564905 0.00998438 0 0 0 -0.0559682 0.0069786 -0.000715923 0.00179919 -0.000927357 5.67771e-05 -0.0559682 0.0069786 -0.000715923 611.886 611.886 1001.45 
68 1 1 0.0934607 0.0693924 0.00998742 0 0 0 -0.0438883 -0.0337884 0.00110731 0.00102068 -0.000198633 -0.000484701 -0.0438883 -0.0337884 0.00110731 690.277 690.277 1001.64 
69 1 1 0.122561 0.0776397 0.00998679 0 0 0 -0.0629452 0.0126561 0.00133686 0.00156883 -0.00097413 -0.000808503 -0.0629452 0.0126561 0.00133686 667.326 667.326 1001.58 
70 1 1 0.130804 0.0661319 0.00998538 0 0 0 -0.0658559 0.0206336 -0.00145669 0.000840236 0.000310832 -0.0015667 -0.0658559 0.0206336 -0.00145669 605.547 605.547 1001.44 
71 1 1 0.00995964 0.0779916 0.00999643 0 0 0 0.00233134 0.0174845 -0.00347361 0.0011406 -0.00124016 -0.00933361 0.00233134 0.0174845 -0.00347361 736.682 736.682 1001.74 
72 1 1 0.0265336 0.0649428 0.00998742 0 0 0 0.0252276 0.011381 -1.7817e-05 0.000500888 0.00107216 -0.00122521 0.0252276 0.011381 -1.7817e-05 698.762 698.762 1001.66 
73 1 1 0.0231093 0.0778027 0.00998768 0 0 0 -0.00914852 0.022689 0.00346844 0.00141731 -0.000856762 -0.00198073 -0.00914852 0.022689 0.00346844 705.157 705.157 1001.67 
74 1 1 0.0762152 0.0772162 0.00998614 0 0 0 -0.0231084 -0.00500611 -0.00253591 0.000636675 -0.00101602 0.00128126 -0.0231084 -0.00500611 -0.00253591 705.763 705.763 1001.67 
75 1 1 0.065303 0.0760101 0.00998773 0 0 0 -0.0256314 0.00266707 0.00173596 0.000345861 0.000519094 -0.00058115 -0.0256314 0.00266707 0.00173596 702.349 702.349 1001.66 
76 1 1 0.0875626 0.0776966 0.009988 0 0 0 -0.0120605 -0.0181841 -0.000920383 0.000401798 -9.76408e-05 0.000179605 -0.0120605 -0.0181841 -0.000920383 700.92 700.92 1001.66 
77 1 1 0.0910543 0.0578786 0.00998638 0 0 0 -0.0251559 -0.0310822 -0.0015156 0.000272764 -0.000535471 -0.00132754 -0.0251559 -0.0310822 -0.0015156 636.385 636.385 1001.51 
78 1 1 0.116447 0.0676218 0.00998404 0 0 0 -0.0254156 0.00751612 0.000332497 0.00220025 0.000496699 0.000117207 -0.0254156 0.00751612 0.000332497 636.817 636.817 1001.51 
79 1 1 0.0993193 0.0782315 0.00998622 0 0 0 -0.0528717 -0.0255441 -0.000185513 0.00294833 -0.000914859 0.000668331 -0.0528717 -0.0255441 -0.000185513 690.111 690.111 1001.64 
80 1 1 0.133505 0.0779007 0.00998982 0 0 0 -0.0311869 0.00773159 -0.0027253 0.00202134 -3.06823e-05 -0.00474551 -0.0311869 0.00773159 -0.0027253 641.11 641.11 1001.52 
81 1 1 0.0099718 0.0900275 0.00999591 0 0 0 -0.00673279 -0.0128266 0.00222582 -0.00518943 -0.00838487 -0.00585555 -0.00673279 -0.0128266 0.00222582 765.972 765.972 1001.81 
82 1 1 0.026317 0.0900272 0.0100038 0 0 0 0.0244994 0.00393537 -0.0097751 0.00106441 -0.00411759 -0.0298198 0.0244994 0.00393537 -0.0097751 718.927 718.927 1001.7 
83 1 1 0.0226903 0.0900251 0.00999976 0 0 0 -0.0205545 0.000121904 -0.00497381 0.00254401 -0.000766393 -0.00885051 -0.0205545 0.000121904 -0.00497381 734.053 734.053 1001.74 
84 1 1 0.0564822 0.0900288 0.00999664 0 0 0 0.0153325 -0.0028473 0.00501773 0.000204876 -0.00414163 -0.00857859 0.0153325 -0.0028473 0.00501773 707.828 707.828 1001.68 
85 1 1 0.0608644 0.0900218 0.00999641 0 0 0 0.00926871 -0.00147985 0.00654647 0.000187009 0.00274253 -0.00775749 0.00926871 -0.00147985 0.00654647 707.603 707.603 1001.68 
86 1 1 0.0778289 0.0900247 0.00997658 0 0 0 0.0232021 0.00211887 0.016389 0.00105695 0.000638287 0.0138367 0.0232021 0.00211887 0.016389 711.297 711.297 1001.69 
87 1 1 0.0906325 0.0900283 0.00997198 0 0 0 0.00583837 -0.00482117 0.000137851 0.000640946 -0.00319593 0.0182801 0.00583837 -0.00482117 0.000137851 704.379 704.379 1001.67 
88 1 1 0.098662 0.090026 0.00999919 0 0 0 0.019062 0.00380478 -0.0130498 0.00366423 -0.000449508 -0.00911071 0.019062 0.00380478 -0.0130498 675.571 675.571 1001.6 
89 1 1 0.107789 0.0900275 0.00999158 0 0 0 -0.0103067 0.000893555 -0.0160174 0.00106312 -0.00399037 -0.00277757 -0.0103067 0.000893555 -0.0160174 647.645 647.645 1001.53 
90 1 1 0.120202 0.0900265 0.00999186 0 0 0 0.00243653 -0.00298561 0.0175863 0.000701074 -0.00298586 -0.00266778 0.00243653 -0.00298561 0.0175863 685.701 685.701 1001.62 
91 1 1 0.00995999 0.0099787 0.0100145 0 0 0 -0.00135449 0.00672742 -0.0202861 0.00820172 0.00171834 -0.0286928 -0.00135449 0.00672742 -0.0202861 677.894 677.894 1001.61 
92 1 1 0.0189205 0.00996984 0.00998309 0 0 0 0.0276501 -0.00151552 0.00288955 -7.05395e-05 0.00431269 0.00786573 0.0276501 -0.00151552 0.00288955 701.234 701.234 1001.66 
93 1 1 0.0307536 0.00997682 0.00998156 0 0 0 0.00272907 0.00575253 -0.0149911 0.00118091 -0.00125416 0.00752943 0.00272907 0.00575253 -0.0149911 696.314 696.314 1001.65 
94 1 1 0.0396111 0.00997805 0.00997458 0 0 0 0.0116238 -0.000330714 -0.0201755 -0.000616995 -0.00290476 0.0133621 0.0116238 -0.000330714 -0.0201755 661.915 661.915 1001.57 
95 1 1 0.0650345 0.00997809 0.00999965 0 0 0 0.0106788 0.00202439 0.0170176 -0.00117158 -0.00315834 -0.0102997 0.0106788 0.00202439 0.0170176 713.129 713.129 1001.69 
96 1 1 0.0863014 0.0099749 0.00997348 0 0 0 0.000687432 -0.00735672 -0.014826 0.00239294 -0.000310537 0.0160132 0.000687432 -0.00735672 -0.014826 690.934 690.934 1001.64 
97 1 1 0.0952168 0.00997617 0.00998648 0 0 0 -0.0210461 -0.00162764 0.0183094 0.0028577 -0.00153326 0.00355028 -0.0210461 -0.00162764 0.0183094 699.33 699.33 1001.66 
98 1 1 0.10393 0.00997334 0.00998254 0 0 0 -0.0081635 -0.0012871 0.000234613 0.00118236 0.00227606 0.0064789 -0.0081635 -0.0012871 0.000234613 662.676 662.676 1001.57 
99 1 1 0.11186 0.00997971 0.00999303 0 0 0 -0.00459688 0.00163478 0.00189471 0.0021765 -0.00258334 -0.00452703 -0.00459688 0.00163478 0.00189471 648.512 648.512 1001.54 
100 1 1 0.116677 0.00997783 0.00998581 0 0 0 0.00588695 -0.00131131 0.00132283 0.000320108 -0.000705713 0.00290096 0.00588695 -0.00131131 0.00132283 639.391 639.391 1001.52 
101 1 1 0.0099807 0.0232593 0.022988 0 0 0 -0.000152307 0.0367188 0.0250768 0.0020775 0.000554415 0.000632974 -0.000152307 0.0367188 0.0250768 415.94 415.94 1000.99 
102 1 1 0.0160882 0.0229202 0.00998745 0 0 0 -0.0565297 0.0302837 0.00309444 -0.00190154 -0.000852583 -0.00223228 -0.0565297 0.0302837 0.00309444 732.098 732.098 1001.73 
103 1 1 0.030147 0.0211392 0.0248218 0 0 0 -0.012885 -0.044892 0.0357284 -0.000133399 0.000183343 -0.00273942 -0.012885 -0.044892 0.0357284 385.154 385.154 1000.91 
104 1 1 0.0848513 0.0245254 0.03891 0 0 0 -0.00316033 -0.0054092 0.0193698 -0.00109652 -0.000535151 0.00043513 -0.00316033 -0.0054092 0.0193698 178.434 178.434 1000.42 
105 1 1 0.122636 0.0254523 0.0478698 0 0 0 -0.012638 0.0175304 0.0352692 -0.0003509 -0.00054016 -0.000755372 -0.012638 0.0175304 0.0352692 109.113 109.113 1000.26 
106 1 1 0.111727 0.0229042 0.0099837 0 0 0 -0.0385246 -0.0238534 -0.0116736 0.00110258 -0.00129174 0.00243915 -0.0385246 -0.0238534 -0.0116736 661.342 661.342 1001.57 
107 1 1 0.162703 0.0219983 0.0255996 0 0 0 -0.0970504 0.00607023 0.0294907 0.000515525 -0.00138741 -0.000819247 -0.0970504 0.00607023 0.0294907 340.996 340.996 1000.81 
108 1 1 0.123345 0.0345081 0.00998551 0 0 0 -0.0037237 -0.00930046 0.0020153 0.0014547 -0.000454609 -0.00160632 -0.0037237 -0.00930046 0.0020153 616.225 616.225 1001.46 
109 1 1 0.180554 0.0218968 0.0240104 0 0 0 -0.108783 0.0116451 0.015659 -0.000268125 7.83433e-05 -0.000825545 -0.108783 0.0116451 0.015659 359.112 359.112 1000.85 
110 1 1 0.152438 0.0223635 0.00998361 0 0 0 -0.0538808 -0.0297022 -0.000676495 0.00213472 -0.00048237 0.000805855 -0.0538808 -0.0297022 -0.000676495 597.349 597.349 1001.42 
111 1 1 0.00996498 0.032323 0.00998888 0 0 0 0.000532984 -0.00486553 0.00114236 0.00052246 0.000506896 -0.00188529 0.000532984 -0.00486553 0.00114236 706.428 706.428 1001.67 
112 1 1 0.0226361 0.0208488 0.0388378 0 0 0 0.0152315 -0.0694892 -0.0152094 -0.00662405 0.00255579 -0.00298517 0.0152315 -0.0694892 -0.0152094 257.419 257.419 1000.61 
113 1 1 0.0389056 0.0316997 0.00998835 0 0 0 0.00815498 -0.00860312 0.000433323 -8.87242e-06 0.000285585 -0.000710077 0.00815498 -0.00860312 0.000433323 683.392 683.392 1001.62 
114 1 1 0.0481595 0.0222243 0.00998872 0 0 0 -0.00624268 -0.012089 0.000804013 0.00138775 0.00101374 -0.00182149 -0.00624268 -0.012089 0.000804013 706.694 706.694 1001.67 
115 1 1 0.0752983 0.0212185 0.0262134 0 0 0 -0.0364533 0.00647103 -0.0322284 -0.000643144 0.00137065 -0.0018335 -0.0364533 0.00647103 -0.0322284 317.804 317.804 1000.75 
116 1 1 0.0852881 0.0377683 0.00998613 0 0 0 -0.00392773 -0.00405007 0.000346708 0.000269424 -0.000384692 -7.905e-05 -0.00392773 -0.00405007 0.000346708 647.297 647.297 1001.53 
117 1 1 0.158173 0.0262932 0.0252322 0 0 0 -0.0693515 -0.00570322 0.0199265 -0.000204951 0.000254764 -0.00103726 -0.0693515 -0.00570322 0.0199265 338.207 338.207 1000.8 
118 1 1 0.173721 0.0219516 0.0244509 0 0 0 -0.107102 -0.0321318 -0.00928736 0.000467654 -0.000287991 -0.000649598 -0.107102 -0.0321318 -0.00928736 347.63 347.63 1000.83 
119 1 1 0.127698 0.0240758 0.009985 0 0 0 -0.0399276 -0.0210622 -0.00175668 0.00209617 -0.000556767 -7.90065e-05 -0.0399276 -0.0210622 -0.00175668 643.345 643.345 1001.52 
120 1 1 0.186701 0.0228843 0.0270491 0 0 0 -0.0949253 0.00656192 0.0391023 -0.00146083 -0.000575837 -0.000318659 -0.0949253 0.00656192 0.0391023 338.087 338.087 1000.8 
121 1 1 0.00996318 0.0422675 0.00998777 0 0 0 -0.000752095 -0.00181088 0.00410592 0.00270344 -0.000747122 -0.00103663 -0.000752095 -0.00181088 0.00410592 676.731 676.731 1001.6 
122 1 1 0.0202047 0.0347794 0.00998596 0 0 0 0.00871814 0.00526051 0.00372072 0.000175812 0.000546691 0.000337165 0.00871814 0.00526051 0.00372072 696.753 696.753 1001.65 
123 1 1 0.0267162 0.0259789 0.00998287 0 0 0 -0.0295889 0.00202886 0.000750656 -0.000274776 -0.000638917 0.00423727 -0.0295889 0.00202886 0.000750656 730.542 730.542 1001.73 
124 1 1 0.062116 0.0317536 0.00998519 0 0 0 -0.00575733 0.00218965 0.00134733 0.000587617 -0.00028529 -0.000538943 -0.00575733 0.00218965 0.00134733 679.283 679.283 1001.61 
125 1 1 0.0741452 0.0374692 0.00998544 0 0 0 0.017612 0.0114921 -0.000246479 -0.00132792 6.67184e-05 2.60118e-05 0.017612 0.0114921 -0.000246479 650.739 650.739 1001.54 
126 1 1 0.104858 0.0296761 0.00998473 0 0 0 -0.0496436 -0.0185195 -0.000585654 0.00158642 0.000772592 0.00077313 -0.0496436 -0.0185195 -0.000585654 652.981 652.981 1001.55 
127 1 1 0.138694 0.0385876 0.00998327 0 0 0 -0.0275169 0.0124656 0.000465075 0.00140383 -0.000319498 0.000766401 -0.0275169 0.0124656 0.000465075 575.272 575.272 1001.36 
128 1 1 0.124846 0.0419367 0.00998205 0 0 0 -0.0646247 0.0154559 -0.000921162 0.00116718 -0.00065476 0.0017574 -0.0646247 0.0154559 -0.000921162 596.575 596.575 1001.41 
129 1 1 0.117337 0.0234679 0.00998417 0 0 0 -0.0580551 0.00438196 0.00554959 0.000912468 -0.000273637 0.00200963 -0.0580551 0.00438196 0.00554959 674.555 674.555 1001.6 
130 1 1 0.158898 0.0312467 0.00998301 0 0 0 -0.0688464 -0.00554267 0.00168329 0.00160078 -7.26467e-05 -1.55758e-05 -0.0688464 -0.00554267 0.00168329 557.595 557.595 1001.32 
131 1 1 0.0099664 0.0470855 0.00998639 0 0 0 0.0029374 -0.00334756 -0.00370259 -0.000444979 0.00106513 0.000238801 0.0029374 -0.00334756 -0.00370259 669.702 669.702 1001.59 
132 1 1 0.0187074 0.0485756 0.00998436 0 0 0 0.031672 -0.0397031 -0.000823524 0.00239165 -0.000887307 0.00113486 0.031672 -0.0397031 -0.000823524 664.39 664.39 1001.57 
133 1 1 0.037615 0.0474125 0.00998344 0 0 0 0.014006 -0.0339868 0.000583267 0.00129769 0.000766334 0.00126552 0.014006 -0.0339868 0.000583267 637.706 637.706 1001.51 
134 1 1 0.0707559 0.0501775 0.0099858 0 0 0 -0.00594908 0.000449113 1.02916e-05 0.00193997 0.000171614 6.97359e-05 -0.00594908 0.000449113 1.02916e-05 632.848 632.848 1001.5 
135 1 1 0.107735 0.050006 0.00998663 0 0 0 -0.0231157 -0.00040564 -0.000616418 0.00145986 -4.27456e-07 -0.000615009 -0.0231157 -0.00040564 -0.000616418 617.561 617.561 1001.46 
136 1 1 0.125885 0.0502272 0.0251966 0 0 0 -0.0652824 0.00485808 0.0309236 0.000479483 -5.35604e-05 -0.00138447 -0.0652824 0.00485808 0.0309236 316.697 316.697 1000.75 
137 1 1 0.154299 0.0503938 0.0234269 0 0 0 -0.0366549 0.00789082 0.0119277 0.000199513 -4.76138e-05 0.000532575 -0.0366549 0.00789082 0.0119277 322.771 322.771 1000.77 
138 1 1 0.123379 0.0501775 0.00998517 0 0 0 -0.0104113 -0.0015712 0.000315272 0.00202286 -0.000355631 -0.000549455 -0.0104113 -0.0015712 0.000315272 604.186 604.186 1001.43 
139 1 1 0.131096 0.0499319 0.00998418 0 0 0 -0.0686839 -7.62333e-05 -0.000139039 0.00213003 -0.000336114 -0.000172106 -0.0686839 -7.62333e-05 -0.000139039 589.603 589.603 1001.4 
140 1 1 0.204146 0.0500043 0.0247767 0 0 0 -0.134155 -0.000866855 0.0298246 -0.000434074 0.000113684 -0.000924402 -0.134155 -0.000866855 0.0298246 363.535 363.535 1000.86 
141 1 1 0.0099646 0.0575111 0.0099868 0 0 0 -0.000532393 -0.0255509 0.00515941 0.0024397 0.00140556 -0.000966599 -0.000532393 -0.0255509 0.00515941 679.302 679.302 1001.61 
142 1 1 0.0206074 0.066079 0.00998524 0 0 0 0.00639661 -0.000555036 0.00281386 0.00087337 0.00044518 0.000233566 0.00639661 -0.000555036 0.00281386 698.253 698.253 1001.65 
143 1 1 0.0269569 0.0737093 0.00998111 0 0 0 -0.0216712 -0.0226182 -0.000835123 -0.00037146 0.000865186 0.00480481 -0.0216712 -0.0226182 -0.000835123 701.257 701.257 1001.66 
144 1 1 0.0621614 0.0682978 0.00998703 0 0 0 -0.00614501 -0.00716795 0.00112565 0.000435359 6.32812e-05 -0.00139518 -0.00614501 -0.00716795 0.00112565 675.182 675.182 1001.6 
145 1 1 0.0741917 0.0624761 0.00998576 0 0 0 0.0245426 -0.013517 -0.000733596 -0.00127182 -1.92633e-05 -0.000334497 0.0245426 -0.013517 -0.000733596 648.057 648.057 1001.54 
146 1 1 0.105063 0.0701905 0.00998492 0 0 0 -0.0468701 0.0171812 -0.000447768 0.00161082 -0.000719722 0.000765255 -0.0468701 0.0171812 -0.000447768 654.716 654.716 1001.55 
147 1 1 0.138741 0.0612362 0.00998364 0 0 0 -0.0265049 -0.0159487 1.51904e-05 0.00132799 -0.000447951 0.000278519 -0.0265049 -0.0159487 1.51904e-05 583.539 583.539 1001.38 
148 1 1 0.124898 0.0579618 0.00998292 0 0 0 -0.0659396 -0.0164748 -0.00103838 0.0009178 0.000206921 0.000826787 -0.0659396 -0.0164748 -0.00103838 600.895 600.895 1001.42 
149 1 1 0.117171 0.0764847 0.00998381 0 0 0 -0.0618154 -0.00765499 0.00481103 0.000541745 -5.85969e-05 0.00236861 -0.0618154 -0.00765499 0.00481103 674.882 674.882 1001.6 
150 1 1 0.158616 0.0686074 0.00998319 0 0 0 -0.0737155 0.00195695 0.00176721 0.00179619 -0.000100979 -0.000264616 -0.0737155 0.00195695 0.00176721 575.379 575.379 1001.36 
151 1 1 0.00996601 0.0675303 0.00998743 0 0 0 0.00105991 0.000673521 -0.000626322 -0.000132596 -4.6466e-05 -0.00126303 0.00105991 0.000673521 -0.000626322 693.9 693.9 1001.64 
152 1 1 0.0231197 0.0750885 0.0377345 0 0 0 0.0117188 0.0206829 0.00604161 0.00122528 0.000589765 -0.00073134 0.0117188 0.0206829 0.00604161 211.312 211.312 1000.5 
153 1 1 0.0388191 0.0688155 0.00998678 0 0 0 0.00394911 0.00748299 0.000772333 -0.000888214 0.000749055 -0.000732844 0.00394911 0.00748299 0.000772333 671.356 671.356 1001.59 
154 1 1 0.0486713 0.0776197 0.00998786 0 0 0 -0.0040064 0.00603291 0.00145379 0.000513832 -0.0017692 -0.00127766 -0.0040064 0.00603291 0.00145379 688.716 688.716 1001.63 
155 1 1 0.0749323 0.0787264 0.0250911 0 0 0 -0.0363935 -0.00677574 -0.0423853 -0.000307377 -0.000310569 -0.0010297 -0.0363935 -0.00677574 -0.0423853 322.63 322.63 1000.77 
156 1 1 0.0853617 0.0621128 0.009986 0 0 0 0.00467856 -0.000152145 1.17916e-05 0.000216802 0.000484591 -6.70367e-05 0.00467856 -0.000152145 1.17916e-05 646.419 646.419 1001.53 
157 1 1 0.158085 0.0736557 0.025214 0 0 0 -0.0709317 0.00446983 0.020073 -0.000238118 -0.000312073 -0.000786934 -0.0709317 0.00446983 0.020073 344.153 344.153 1000.82 
158 1 1 0.173681 0.0780777 0.0244569 0 0 0 -0.108218 0.0300706 -0.00853596 0.000686006 0.000144849 -0.000405778 -0.108218 0.0300706 -0.00853596 352.264 352.264 1000.84 
159 1 1 0.127492 0.0758657 0.00998607 0 0 0 -0.0422241 0.0204226 -0.000171878 0.0017512 0.000209572 -0.00117073 -0.0422241 0.0204226 -0.000171878 648.838 648.838 1001.54 
160 1 1 0.186679 0.077125 0.0270441 0 0 0 -0.0957678 -0.00738691 0.0397099 -0.000975526 0.000759451 -0.000284011 -0.0957678 -0.00738691 0.0397099 338.952 338.952 1000.81 
161 1 1 0.00998188 0.0795563 0.0236737 0 0 0 0.000940186 0.0231972 0.0203215 0.00153086 -0.0035961 -0.000558089 0.000940186 0.0231972 0.0203215 418.134 418.134 1000.99 
162 1 1 0.0157356 0.0772902 0.00998967 0 0 0 -0.0585578 -0.0279567 0.00225075 -0.00097537 -0.00133995 -0.00486461 -0.0585578 -0.0279567 0.00225075 711.76 711.76 1001.69 
163 1 1 0.0312075 0.0800073 0.0248952 0 0 0 -0.0279211 0.042289 -0.0281914 0.00101878 -0.00073352 0.00250802 -0.0279211 0.042289 -0.0281914 320.59 320.59 1000.76 
164 1 1 0.085722 0.0737909 0.0387002 0 0 0 -0.000345826 0.000272262 0.0363805 -0.00139597 0.000456905 0.000516683 -0.000345826 0.000272262 0.0363805 193.139 193.139 1000.46 
165 1 1 0.122595 0.0745786 0.0478753 0 0 0 -0.0116868 -0.0192965 0.0359128 -0.000181648 0.000436193 -0.000488768 -0.0116868 -0.0192965 0.0359128 111.237 111.237 1000.26 
166 1 1 0.111607 0.0770864 0.00998506 0 0 0 -0.0386517 0.0231069 -0.0111573 0.000926919 0.0011501 0.00112921 -0.0386517 0.0231069 -0.0111573 661.835 661.835 1001.57 
167 1 1 0.162666 0.0780237 0.0256032 0 0 0 -0.0982401 -0.00797515 0.0305624 0.00060569 0.00100848 -0.000513896 -0.0982401 -0.00797515 0.0305624 345.957 345.957 1000.82 
168 1 1 0.123514 0.0654657 0.00998495 0 0 0 -0.00324689 0.010071 0.00219526 0.00105618 0.000417731 -0.00117682 -0.00324689 0.010071 0.00219526 625.459 625.459 1001.48 
169 1 1 0.180524 0.0780977 0.0240189 0 0 0 -0.109595 -0.0126508 0.0161437 0.000118711 -1.49006e-05 -0.000579843 -0.109595 -0.0126508 0.0161437 363.351 363.351 1000.86 
170 1 1 0.15266 0.0775814 0.00998342 0 0 0 -0.0532555 0.0285136 -0.000501844 0.00186509 4.67807e-05 0.000860479 -0.0532555 0.0285136 -0.000501844 608.228 608.228 1001.44 
171 1 1 0.00997323 0.0900219 0.00998304 0 0 0 0.00391871 0.00037082 0.0286512 -0.00681538 -0.00276604 0.00697494 0.00391871 0.00037082 0.0286512 788.141 788.141 1001.87 
172 1 1 0.0192407 0.0900279 0.00997203 0 0 0 0.0200365 -0.00299434 0.00607536 0.00276823 -0.0027852 0.018139 0.0200365 -0.00299434 0.00607536 748.029 748.029 1001.77 
173 1 1 0.0310489 0.0900205 0.00997275 0 0 0 0.0031169 -0.00462451 0.0111072 -0.000163434 0.00223037 0.0169683 0.0031169 -0.00462451 0.0111072 735.749 735.749 1001.74 
174 1 1 0.0395872 0.0900208 0.0100018 0 0 0 0.0176049 0.000160692 0.0134794 -0.000530388 0.00261818 -0.0321604 0.0176049 0.000160692 0.0134794 724.062 724.062 1001.72 