ITEM: TIMESTEP
7000
ITEM: NUMBER OF ATOMS
2655
ITEM: BOX BOUNDS ff ff ff
0 0.5
0 0.1
0 0.5
ITEM: ATOMS id type type x y z ix iy iz vx vy vz fx fy fz vx vy vz p p rho 
1 1 1 0.00997608 0.00997567 0.00995379 0 0 0 -0.00114876 -0.00605139 -0.0269494 -0.00321369 -0.00625518 -0.0107885 -0.00114876 -0.00605139 -0.0269494 1507.37 1507.37 1003.55 
2 1 1 0.0209697 0.0099846 0.00996278 0 0 0 -0.00767818 0.00901215 -0.0324096 0.0100241 -0.0177807 -0.0312443 -0.00767818 0.00901215 -0.0324096 1332.7 1332.7 1003.14 
3 1 1 0.0301761 0.00997544 0.00994086 0 0 0 -0.0213879 0.00255265 -0.00766496 0.0124236 -0.00667539 -0.00151203 -0.0213879 0.00255265 -0.00766496 1082.34 1082.34 1002.56 
4 1 1 0.0408096 0.0099862 0.00995002 0 0 0 0.00893584 0.00130842 -0.00260933 0.00457216 -0.0122009 -0.00330506 0.00893584 0.00130842 -0.00260933 942.963 942.963 1002.23 
5 1 1 0.0509104 0.00998352 0.00994867 0 0 0 0.014305 -0.000430646 -0.00437207 0.00178402 -0.00826823 -4.01843e-05 0.014305 -0.000430646 -0.00437207 922.368 922.368 1002.18 
6 1 1 0.0611741 0.00997987 0.00994648 0 0 0 0.020889 -5.69928e-05 -0.00707504 -0.000488486 -0.00420821 0.00245274 0.020889 -5.69928e-05 -0.00707504 903.547 903.547 1002.14 
7 1 1 0.0713925 0.0099772 0.00995363 0 0 0 0.0398069 0.0121842 -0.0114674 0.00410227 -0.000275421 -0.00289739 0.0398069 0.0121842 -0.0114674 890.286 890.286 1002.11 
8 1 1 0.0818956 0.00997604 0.00995345 0 0 0 0.0397884 0.00146111 -0.00878996 -0.00191496 0.00124407 -0.00240986 0.0397884 0.00146111 -0.00878996 920.971 920.971 1002.18 
9 1 1 0.0915397 0.00998405 0.00996341 0 0 0 0.0170564 0.00477886 -0.0209554 0.00609221 -0.00543361 -0.00852469 0.0170564 0.00477886 -0.0209554 669.059 669.059 1001.59 
10 1 1 0.102698 0.00998134 0.00995023 0 0 0 0.13703 0.00546057 -0.00845203 -0.00323344 -0.00230861 0.00238194 0.13703 0.00546057 -0.00845203 894.178 894.178 1002.12 
11 1 1 0.0099779 0.0207204 0.00995734 0 0 0 0.00323027 -0.00640608 -0.0319733 -0.00986899 0.00355955 -0.0308369 0.00323027 -0.00640608 -0.0319733 1387.47 1387.47 1003.27 
12 1 1 0.0216588 0.0214136 0.00997362 0 0 0 0.0132281 0.0168861 -0.0160804 0.00752979 0.001305 -0.0416732 0.0132281 0.0168861 -0.0160804 1108.85 1108.85 1002.62 
13 1 1 0.0305901 0.0208023 0.00994027 0 0 0 0.00602542 0.0201882 -0.009782 0.0124253 0.000472772 -0.00097289 0.00602542 0.0201882 -0.009782 892.87 892.87 1002.11 
14 1 1 0.0411531 0.021074 0.00994924 0 0 0 0.0217866 0.0323185 -0.00486238 0.00376449 -0.00243341 -0.00393412 0.0217866 0.0323185 -0.00486238 793.44 793.44 1001.88 
15 1 1 0.0511097 0.0210372 0.00994766 0 0 0 0.018636 0.0333239 -0.00426855 0.00258906 -0.00243677 0.000108163 0.018636 0.0333239 -0.00426855 771.019 771.019 1001.83 
16 1 1 0.061397 0.0210214 0.00994531 0 0 0 0.0253203 0.0283233 -0.00430756 -0.000398083 -0.00169796 0.00259449 0.0253203 0.0283233 -0.00430756 753.151 753.151 1001.78 
17 1 1 0.0714112 0.0210044 0.00995221 0 0 0 0.0308148 0.0364734 -0.00623825 0.00459891 -0.000812491 -0.00160296 0.0308148 0.0364734 -0.00623825 724.906 724.906 1001.72 
18 1 1 0.082072 0.0210523 0.00995059 0 0 0 0.045649 0.0189228 -0.00432687 -0.00169371 -0.000485009 -0.00045699 0.045649 0.0189228 -0.00432687 765.478 765.478 1001.81 
19 1 1 0.0919077 0.0207742 0.00998089 0 0 0 0.0210154 0.0372012 -0.0132276 0.00551592 0.000947635 -0.0262847 0.0210154 0.0372012 -0.0132276 527.283 527.283 1001.25 
20 1 1 0.10246 0.0211725 0.00994988 0 0 0 0.11455 0.0268839 -0.00564041 -0.00394535 -4.39776e-05 0.00298868 0.11455 0.0268839 -0.00564041 707.814 707.814 1001.68 
21 1 1 0.0099659 0.0297336 0.00992923 0 0 0 0.00412617 -0.0296174 -0.0251807 0.00180717 0.00510089 -0.0021845 0.00412617 -0.0296174 -0.0251807 1246.27 1246.27 1002.94 
22 1 1 0.021068 0.0300608 0.00994317 0 0 0 0.0175024 -0.00212961 -0.0242887 0.00742312 0.00629891 -0.0108231 0.0175024 -0.00212961 -0.0242887 975.018 975.018 1002.31 
23 1 1 0.030622 0.0300838 0.00994133 0 0 0 0.0124034 0.00308851 -0.00545619 0.00940909 0.00344031 -0.0037946 0.0124034 0.00308851 -0.00545619 869.782 869.782 1002.06 
24 1 1 0.0410036 0.0299278 0.0099472 0 0 0 0.0176283 -0.000697002 -0.00456777 0.0023187 0.000277595 -0.00609411 0.0176283 -0.000697002 -0.00456777 823.911 823.911 1001.95 
25 1 1 0.0510467 0.0299977 0.00994526 0 0 0 0.0166464 0.0021176 -0.00161747 0.00320856 0.000185823 -0.00155351 0.0166464 0.0021176 -0.00161747 800.446 800.446 1001.9 
26 1 1 0.0613247 0.0299493 0.00994312 0 0 0 0.0211796 -0.000205924 0.00213061 -2.92928e-05 0.000720928 0.0014716 0.0211796 -0.000205924 0.00213061 773.682 773.682 1001.83 
27 1 1 0.0713259 0.0299566 0.00994828 0 0 0 0.0347892 -0.000292627 0.00317243 0.00553881 0.000796485 -0.000224907 0.0347892 -0.000292627 0.00317243 743.532 743.532 1001.76 
28 1 1 0.0819568 0.0299586 0.00994923 0 0 0 0.0334746 0.00235757 0.00561299 -0.00138542 0.00159528 -0.00118692 0.0334746 0.00235757 0.00561299 761.766 761.766 1001.8 
29 1 1 0.0913621 0.0297244 0.00995401 0 0 0 0.0161898 -0.00779727 -0.00168155 0.00634255 0.00141284 -0.000964517 0.0161898 -0.00779727 -0.00168155 551.611 551.611 1001.31 
30 1 1 0.102394 0.0301972 0.00995004 0 0 0 0.111802 0.00491966 0.00257108 -0.00453811 0.000703539 0.00128627 0.111802 0.00491966 0.00257108 728.168 728.168 1001.72 
31 1 1 0.00997178 0.0401343 0.00992491 0 0 0 0.00620867 -0.00129684 -0.0184398 -0.000813306 0.00210117 0.00477619 0.00620867 -0.00129684 -0.0184398 1178.24 1178.24 1002.78 
32 1 1 0.0213287 0.0403245 0.00994344 0 0 0 0.0304821 0.00808539 -0.0195698 0.00509863 0.00126485 -0.00876738 0.0304821 0.00808539 -0.0195698 915.909 915.909 1002.17 
33 1 1 0.0304446 0.0402141 0.00994131 0 0 0 0.0067852 0.00550409 -0.00534933 0.0062232 -0.000439373 -0.00415315 0.0067852 0.00550409 -0.00534933 858.29 858.29 1002.03 
34 1 1 0.0411054 0.0403102 0.00994482 0 0 0 0.0225598 0.00897016 -0.00494915 0.0017616 -0.00107976 -0.00539433 0.0225598 0.00897016 -0.00494915 816.917 816.917 1001.93 
35 1 1 0.0510192 0.0402307 0.00994369 0 0 0 0.0144949 0.00748819 -0.000963009 0.00369994 -0.000438999 -0.00119882 0.0144949 0.00748819 -0.000963009 784.775 784.775 1001.86 
36 1 1 0.0612936 0.0402904 0.00994258 0 0 0 0.0211521 0.0092037 0.00377666 0.00026344 -0.000186328 0.00123134 0.0211521 0.0092037 0.00377666 751.321 751.321 1001.78 
37 1 1 0.071381 0.0401935 0.00994735 0 0 0 0.0330368 0.00580965 0.00546508 0.00531904 2.90326e-05 0.000136735 0.0330368 0.00580965 0.00546508 722.161 722.161 1001.71 
38 1 1 0.0818678 0.0403109 0.00995051 0 0 0 0.0382734 0.00843014 0.00691212 -0.000448909 -8.40893e-05 -0.00264981 0.0382734 0.00843014 0.00691212 743.118 743.118 1001.76 
39 1 1 0.0915804 0.0401494 0.00995864 0 0 0 0.013853 0.00568644 -0.00155265 0.00510343 0.000316802 -0.00498218 0.013853 0.00568644 -0.00155265 508.732 508.732 1001.21 
40 1 1 0.102319 0.0402568 0.00995084 0 0 0 0.1076 0.0068323 0.00269834 -0.00470062 0.000127718 -9.93075e-05 0.1076 0.0068323 0.00269834 708.604 708.604 1001.68 
41 1 1 0.00997206 0.05 0.00992266 0 0 0 0.00666301 1.25843e-14 -0.0163872 -0.001333 -1.22727e-14 0.00768038 0.00666301 1.25843e-14 -0.0163872 1185.86 1185.86 1002.8 
42 1 1 0.0212552 0.05 0.00993935 0 0 0 0.0287566 -1.1255e-15 -0.0184933 0.00431696 4.08663e-16 -0.00400683 0.0287566 -1.1255e-15 -0.0184933 928.426 928.426 1002.2 
43 1 1 0.0305322 0.05 0.00994064 0 0 0 0.0106706 6.3145e-15 -0.00504487 0.00590638 4.74794e-15 -0.00363233 0.0106706 6.3145e-15 -0.00504487 874.913 874.913 1002.07 
44 1 1 0.0410249 0.05 0.00994392 0 0 0 0.019082 9.95429e-15 -0.00453246 0.00189688 4.50838e-15 -0.00485543 0.019082 9.95429e-15 -0.00453246 828.423 828.423 1001.96 
45 1 1 0.0510221 0.05 0.00994358 0 0 0 0.0160218 3.68262e-15 -0.000564338 0.00414297 1.46316e-15 -0.000898658 0.0160218 3.68262e-15 -0.000564338 788.834 788.834 1001.87 
46 1 1 0.061324 0.05 0.0099424 0 0 0 0.0214254 1.4234e-14 0.00398846 0.000211238 3.80143e-15 0.00147453 0.0214254 1.4234e-14 0.00398846 755.826 755.826 1001.79 
47 1 1 0.0712943 0.05 0.009947 0 0 0 0.0293762 2.03387e-15 0.00553994 0.00533329 5.92674e-15 0.000616992 0.0293762 2.03387e-15 0.00553994 722.427 722.427 1001.71 
48 1 1 0.0819499 0.05 0.00994998 0 0 0 0.0390653 1.44781e-14 0.00649893 -0.000616252 2.94482e-15 -0.00213405 0.0390653 1.44781e-14 0.00649893 749.775 749.775 1001.78 
49 1 1 0.0914632 0.05 0.00995771 0 0 0 0.0127733 -6.77789e-15 -0.00195788 0.00552499 3.11112e-15 -0.00419014 0.0127733 -6.77789e-15 -0.00195788 519.245 519.245 1001.23 
50 1 1 0.102344 0.05 0.00995028 0 0 0 0.109614 2.14596e-14 0.00298967 -0.00489282 1.08272e-14 0.000350413 0.109614 2.14596e-14 0.00298967 710.466 710.466 1001.68 
51 1 1 0.00997178 0.0598657 0.00992491 0 0 0 0.00620867 0.00129684 -0.0184398 -0.000813306 -0.00210117 0.00477619 0.00620867 0.00129684 -0.0184398 1178.24 1178.24 1002.78 
52 1 1 0.0213287 0.0596755 0.00994344 0 0 0 0.0304821 -0.00808539 -0.0195698 0.00509863 -0.00126485 -0.00876738 0.0304821 -0.00808539 -0.0195698 915.909 915.909 1002.17 
53 1 1 0.0304446 0.0597859 0.00994131 0 0 0 0.0067852 -0.00550409 -0.00534933 0.0062232 0.000439373 -0.00415315 0.0067852 -0.00550409 -0.00534933 858.29 858.29 1002.03 
54 1 1 0.0411054 0.0596898 0.00994482 0 0 0 0.0225598 -0.00897016 -0.00494915 0.0017616 0.00107976 -0.00539433 0.0225598 -0.00897016 -0.00494915 816.917 816.917 1001.93 
55 1 1 0.0510192 0.0597693 0.00994369 0 0 0 0.0144949 -0.00748819 -0.000963009 0.00369994 0.000438999 -0.00119882 0.0144949 -0.00748819 -0.000963009 784.775 784.775 1001.86 
56 1 1 0.0612936 0.0597096 0.00994258 0 0 0 0.0211521 -0.0092037 0.00377666 0.00026344 0.000186328 0.00123134 0.0211521 -0.0092037 0.00377666 751.321 751.321 1001.78 
57 1 1 0.071381 0.0598065 0.00994735 0 0 0 0.0330368 -0.00580965 0.00546508 0.00531904 -2.90326e-05 0.000136735 0.0330368 -0.00580965 0.00546508 722.161 722.161 1001.71 
58 1 1 0.0818678 0.0596891 0.00995051 0 0 0 0.0382734 -0.00843014 0.00691212 -0.000448909 8.40893e-05 -0.00264981 0.0382734 -0.00843014 0.00691212 743.118 743.118 1001.76 
59 1 1 0.0915804 0.0598506 0.00995864 0 0 0 0.013853 -0.00568644 -0.00155265 0.00510343 -0.000316802 -0.00498218 0.013853 -0.00568644 -0.00155265 508.732 508.732 1001.21 
60 1 1 0.102319 0.0597432 0.00995084 0 0 0 0.1076 -0.0068323 0.00269834 -0.00470062 -0.000127718 -9.93075e-05 0.1076 -0.0068323 0.00269834 708.604 708.604 1001.68 
61 1 1 0.0099659 0.0702664 0.00992923 0 0 0 0.00412617 0.0296174 -0.0251807 0.00180717 -0.00510089 -0.0021845 0.00412617 0.0296174 -0.0251807 1246.27 1246.27 1002.94 
62 1 1 0.021068 0.0699392 0.00994317 0 0 0 0.0175024 0.00212961 -0.0242887 0.00742312 -0.00629891 -0.0108231 0.0175024 0.00212961 -0.0242887 975.018 975.018 1002.31 
63 1 1 0.030622 0.0699162 0.00994133 0 0 0 0.0124034 -0.00308851 -0.00545619 0.00940909 -0.00344031 -0.0037946 0.0124034 -0.00308851 -0.00545619 869.782 869.782 1002.06 
64 1 1 0.0410036 0.0700722 0.0099472 0 0 0 0.0176283 0.000697002 -0.00456777 0.0023187 -0.000277595 -0.00609411 0.0176283 0.000697002 -0.00456777 823.911 823.911 1001.95 
65 1 1 0.0510467 0.0700023 0.00994526 0 0 0 0.0166464 -0.0021176 -0.00161747 0.00320856 -0.000185823 -0.00155351 0.0166464 -0.0021176 -0.00161747 800.446 800.446 1001.9 
66 1 1 0.0613247 0.0700507 0.00994312 0 0 0 0.0211796 0.000205924 0.00213061 -2.92928e-05 -0.000720928 0.0014716 0.0211796 0.000205924 0.00213061 773.682 773.682 1001.83 
67 1 1 0.0713259 0.0700434 0.00994828 0 0 0 0.0347892 0.000292627 0.00317243 0.00553881 -0.000796485 -0.000224907 0.0347892 0.000292627 0.00317243 743.532 743.532 1001.76 
68 1 1 0.0819568 0.0700414 0.00994923 0 0 0 0.0334746 -0.00235757 0.00561299 -0.00138542 -0.00159528 -0.00118692 0.0334746 -0.00235757 0.00561299 761.766 761.766 1001.8 
69 1 1 0.0913621 0.0702756 0.00995401 0 0 0 0.0161898 0.00779727 -0.00168155 0.00634255 -0.00141284 -0.000964517 0.0161898 0.00779727 -0.00168155 551.611 551.611 1001.31 
70 1 1 0.102394 0.0698028 0.00995004 0 0 0 0.111802 -0.00491966 0.00257108 -0.00453811 -0.000703539 0.00128627 0.111802 -0.00491966 0.00257108 728.168 728.168 1001.72 
71 1 1 0.0099779 0.0792796 0.00995734 0 0 0 0.00323027 0.00640608 -0.0319733 -0.00986899 -0.00355955 -0.0308369 0.00323027 0.00640608 -0.0319733 1387.47 1387.47 1003.27 
72 1 1 0.0216588 0.0785864 0.00997362 0 0 0 0.0132281 -0.0168861 -0.0160804 0.00752979 -0.001305 -0.0416732 0.0132281 -0.0168861 -0.0160804 1108.85 1108.85 1002.62 
73 1 1 0.0305901 0.0791977 0.00994027 0 0 0 0.00602542 -0.0201882 -0.009782 0.0124253 -0.000472772 -0.00097289 0.00602542 -0.0201882 -0.009782 892.87 892.87 1002.11 
74 1 1 0.0411531 0.078926 0.00994924 0 0 0 0.0217866 -0.0323185 -0.00486238 0.00376449 0.00243341 -0.00393412 0.0217866 -0.0323185 -0.00486238 793.44 793.44 1001.88 
75 1 1 0.0511097 0.0789628 0.00994766 0 0 0 0.018636 -0.0333239 -0.00426855 0.00258906 0.00243677 0.000108163 0.018636 -0.0333239 -0.00426855 771.019 771.019 1001.83 
76 1 1 0.061397 0.0789786 0.00994531 0 0 0 0.0253203 -0.0283233 -0.00430756 -0.000398083 0.00169796 0.00259449 0.0253203 -0.0283233 -0.00430756 753.151 753.151 1001.78 
77 1 1 0.0714112 0.0789956 0.00995221 0 0 0 0.0308148 -0.0364734 -0.00623825 0.00459891 0.000812491 -0.00160296 0.0308148 -0.0364734 -0.00623825 724.906 724.906 1001.72 
78 1 1 0.082072 0.0789477 0.00995059 0 0 0 0.045649 -0.0189228 -0.00432687 -0.00169371 0.000485009 -0.00045699 0.045649 -0.0189228 -0.00432687 765.478 765.478 1001.81 
79 1 1 0.0919077 0.0792258 0.00998089 0 0 0 0.0210154 -0.0372012 -0.0132276 0.00551592 -0.000947635 -0.0262847 0.0210154 -0.0372012 -0.0132276 527.283 527.283 1001.25 
80 1 1 0.10246 0.0788275 0.00994988 0 0 0 0.11455 -0.0268839 -0.00564041 -0.00394535 4.39776e-05 0.00298868 0.11455 -0.0268839 -0.00564041 707.814 707.814 1001.68 
81 1 1 0.00997608 0.0900243 0.00995379 0 0 0 -0.00114876 0.00605139 -0.0269494 -0.00321369 0.00625518 -0.0107885 -0.00114876 0.00605139 -0.0269494 1507.37 1507.37 1003.55 
82 1 1 0.0209697 0.0900154 0.00996278 0 0 0 -0.00767818 -0.00901215 -0.0324096 0.0100241 0.0177807 -0.0312443 -0.00767818 -0.00901215 -0.0324096 1332.7 1332.7 1003.14 
83 1 1 0.0301761 0.0900246 0.00994086 0 0 0 -0.0213879 -0.00255265 -0.00766496 0.0124236 0.00667539 -0.00151203 -0.0213879 -0.00255265 -0.00766496 1082.34 1082.34 1002.56 
84 1 1 0.0408096 0.0900138 0.00995002 0 0 0 0.00893584 -0.00130842 -0.00260933 0.00457216 0.0122009 -0.00330506 0.00893584 -0.00130842 -0.00260933 942.963 942.963 1002.23 
85 1 1 0.0509104 0.0900165 0.00994867 0 0 0 0.014305 0.000430646 -0.00437207 0.00178402 0.00826823 -4.01843e-05 0.014305 0.000430646 -0.00437207 922.368 922.368 1002.18 
86 1 1 0.0611741 0.0900201 0.00994648 0 0 0 0.020889 5.69928e-05 -0.00707504 -0.000488486 0.00420821 0.00245274 0.020889 5.69928e-05 -0.00707504 903.547 903.547 1002.14 
87 1 1 0.0713925 0.0900228 0.00995363 0 0 0 0.0398069 -0.0121842 -0.0114674 0.00410227 0.000275421 -0.00289739 0.0398069 -0.0121842 -0.0114674 890.286 890.286 1002.11 
88 1 1 0.0818956 0.090024 0.00995345 0 0 0 0.0397884 -0.00146111 -0.00878996 -0.00191496 -0.00124407 -0.00240986 0.0397884 -0.00146111 -0.00878996 920.971 920.971 1002.18 
89 1 1 0.0915397 0.090016 0.00996341 0 0 0 0.0170564 -0.00477886 -0.0209554 0.00609221 0.00543361 -0.00852469 0.0170564 -0.00477886 -0.0209554 669.059 669.059 1001.59 
90 1 1 0.102698 0.0900187 0.00995023 0 0 0 0.13703 -0.00546057 -0.00845203 -0.00323344 0.00230861 0.00238194 0.13703 -0.00546057 -0.00845203 894.178 894.178 1002.12 
91 1 1 0.00991596 0.00990372 0.0127133 0 0 0 0.0177471 0.00010588 -0.264517 0.0473333 0.0560945 -0.0355623 0.0177471 0.00010588 -0.264517 1340.34 1340.34 1003.16 
92 1 1 0.0207224 0.00992456 0.0188142 0 0 0 -0.0396637 0.0355802 0.00172288 0.00942568 0.0231047 -0.00441014 -0.0396637 0.0355802 0.00172288 1328.88 1328.88 1003.13 
93 1 1 0.0304491 0.0099711 0.0161989 0 0 0 -0.0147156 -0.00948615 -0.110241 0.0180634 -0.0131713 -0.00685533 -0.0147156 -0.00948615 -0.110241 924.57 924.57 1002.19 
94 1 1 0.0408378 0.00997273 0.0165473 0 0 0 0.00195996 0.000245056 -0.0950408 0.00465769 -0.00856309 -0.00233736 0.00195996 0.000245056 -0.0950408 795.027 795.027 1001.88 
95 1 1 0.0510559 0.0099695 0.0164939 0 0 0 0.0177257 0.000558776 -0.0905881 0.00194339 -0.00357984 -0.00215813 0.0177257 0.000558776 -0.0905881 791.467 791.467 1001.87 
96 1 1 0.0614592 0.00996752 0.0165171 0 0 0 0.0298808 0.00161782 -0.0926991 -0.000394442 -0.00139715 -0.00218182 0.0298808 0.00161782 -0.0926991 775.853 775.853 1001.84 
97 1 1 0.0715407 0.00995318 0.0160099 0 0 0 0.0363994 0.0180047 -0.111951 0.00397761 0.0155763 -0.00371948 0.0363994 0.0180047 -0.111951 753.175 753.175 1001.78 
98 1 1 0.0825516 0.00996773 0.0171659 0 0 0 0.0816957 -0.000595045 -0.0450212 -0.00116829 -0.00102365 -0.000481732 0.0816957 -0.000595045 -0.0450212 810.744 810.744 1001.92 
99 1 1 0.0921793 0.00994244 0.0146725 0 0 0 0.0147569 0.0314087 -0.174349 0.00573157 0.0307332 -0.0111955 0.0147569 0.0314087 -0.174349 530.594 530.594 1001.26 
100 1 1 0.102756 0.00996915 0.0171362 0 0 0 0.117619 0.000176313 -0.0583967 -0.00624949 0.000635808 -0.0022923 0.117619 0.000176313 -0.0583967 783.725 783.725 1001.86 
101 1 1 0.00991718 0.0203838 0.0190393 0 0 0 0.0235719 -0.0420778 0.0144621 0.0314213 -0.00106317 -0.00540511 0.0235719 -0.0420778 0.0144621 1392.75 1392.75 1003.28 
102 1 1 0.0218799 0.0215402 0.0223687 0 0 0 0.00916788 0.0112323 0.0343704 0.0150986 0.00230128 -0.0116221 0.00916788 0.0112323 0.0343704 1057.8 1057.8 1002.5 
103 1 1 0.0309796 0.0208432 0.0211641 0 0 0 0.0106951 0.00751831 0.037713 0.0193676 -0.000729385 -0.00272021 0.0106951 0.00751831 0.037713 757.041 757.041 1001.79 
104 1 1 0.041328 0.0210237 0.0212429 0 0 0 0.0214956 0.0169584 0.0280047 0.00487062 -0.00353028 -0.00132957 0.0214956 0.0169584 0.0280047 647.505 647.505 1001.53 
105 1 1 0.0514955 0.0210256 0.0213247 0 0 0 0.0345961 0.0190165 0.0422508 0.00391256 -0.00312731 -0.000425855 0.0345961 0.0190165 0.0422508 633.389 633.389 1001.5 
106 1 1 0.0619703 0.0209622 0.0211871 0 0 0 0.050216 0.0106545 0.0289455 0.00101478 -0.00203874 -0.000268454 0.050216 0.0106545 0.0289455 627.723 627.723 1001.49 
107 1 1 0.0719491 0.0209429 0.0209866 0 0 0 0.0473723 0.0249261 0.0407406 0.00511828 -0.000488774 0.000596002 0.0473723 0.0249261 0.0407406 537.736 537.736 1001.28 
108 1 1 0.0831609 0.0210597 0.0214976 0 0 0 0.119409 -0.00154447 0.0432899 -0.000609572 -0.000794263 -0.00313509 0.119409 -0.00154447 0.0432899 707.69 707.69 1001.68 
109 1 1 0.0935025 0.0204352 0.02016 0 0 0 0.0390462 0.0195123 0.0379812 0.00440657 0.0010363 -0.00100714 0.0390462 0.0195123 0.0379812 344.457 344.457 1000.82 
110 1 1 0.102941 0.0210881 0.0212525 0 0 0 0.144615 0.00702715 0.0450878 -0.00227059 0.000187396 -0.00333225 0.144615 0.00702715 0.0450878 590.886 590.886 1001.4 
111 1 1 0.00996692 0.0299334 0.0163991 0 0 0 0.0285888 -0.0276997 -0.099231 -0.0141668 0.00730299 -0.0139292 0.0285888 -0.0276997 -0.099231 1234.68 1234.68 1002.91 
112 1 1 0.0211818 0.0302587 0.0210521 0 0 0 0.00540377 -0.0102009 0.0293311 0.0119414 0.00624336 -0.00918786 0.00540377 -0.0102009 0.0293311 940.433 940.433 1002.22 
113 1 1 0.0308705 0.0301727 0.01897 0 0 0 0.0102038 -0.0087941 -0.032113 0.0131939 0.0019123 -0.00450382 0.0102038 -0.0087941 -0.032113 760.893 760.893 1001.8 
114 1 1 0.0411354 0.0300351 0.0192 0 0 0 0.0156262 -0.00865711 -0.0274619 0.00338001 -0.00151042 -0.00121883 0.0156262 -0.00865711 -0.0274619 720.86 720.86 1001.71 
115 1 1 0.0513833 0.0301111 0.0192366 0 0 0 0.0282268 -0.00782535 -0.0175701 0.00452055 -0.00140973 0.000134223 0.0282268 -0.00782535 -0.0175701 690.029 690.029 1001.63 
116 1 1 0.0618565 0.0300641 0.0192053 0 0 0 0.0452861 -0.0086719 -0.0217797 0.00143157 -0.000428549 0.000714283 0.0452861 -0.0086719 -0.0217797 670.867 670.867 1001.59 
117 1 1 0.071707 0.0300758 0.0187913 0 0 0 0.0435406 -0.00719199 -0.0277507 0.00643769 4.5819e-05 0.00064773 0.0435406 -0.00719199 -0.0277507 585.539 585.539 1001.39 
118 1 1 0.0829868 0.0300587 0.0197894 0 0 0 0.098316 -0.0081651 0.0107818 -0.000363847 0.00133344 -0.000727793 0.098316 -0.0081651 0.0107818 680.305 680.305 1001.61 
119 1 1 0.0923007 0.0298544 0.0176873 0 0 0 0.03112 -0.0166816 -0.0574928 0.00678422 0.000962391 -0.00340268 0.03112 -0.0166816 -0.0574928 417.198 417.198 1000.99 
120 1 1 0.102745 0.0303923 0.0198084 0 0 0 0.127684 0.00255779 0.00676708 -0.00417312 0.000498609 -0.00190459 0.127684 0.00255779 0.00676708 606.172 606.172 1001.44 
121 1 1 0.00997355 0.0400358 0.0167757 0 0 0 0.0246546 -0.0118691 -0.0853776 -0.0181398 0.00209156 -0.0118372 0.0246546 -0.0118691 -0.0853776 1158.79 1158.79 1002.74 
122 1 1 0.0213842 0.0402292 0.0212103 0 0 0 0.0183891 -0.00188332 0.0237672 0.0101391 0.00149633 -0.0108903 0.0183891 -0.00188332 0.0237672 885.331 885.331 1002.09 
123 1 1 0.0307204 0.040108 0.0192426 0 0 0 0.0090034 -0.00258659 -0.0252738 0.00982003 -0.000511704 -0.00447772 0.0090034 -0.00258659 -0.0252738 765.281 765.281 1001.81 
124 1 1 0.0412461 0.0402118 0.019482 0 0 0 0.0205698 -0.000544823 -0.0195689 0.00292371 -0.00168772 -0.00128013 0.0205698 -0.000544823 -0.0195689 737.132 737.132 1001.75 
125 1 1 0.0513717 0.0401029 0.0194912 0 0 0 0.0265931 -0.00165961 -0.0111452 0.00540049 -0.000633866 0.000255697 0.0265931 -0.00165961 -0.0111452 688.048 688.048 1001.63 
126 1 1 0.0618106 0.0401874 0.0194585 0 0 0 0.0460984 -0.000216258 -0.0144975 0.00184634 -0.00056178 0.000830453 0.0460984 -0.000216258 -0.0144975 664.216 664.216 1001.57 
127 1 1 0.0718202 0.0400753 0.01903 0 0 0 0.0446789 -0.0023671 -0.0209845 0.00663813 -0.000226107 0.000833121 0.0446789 -0.0023671 -0.0209845 578.459 578.459 1001.37 
128 1 1 0.082864 0.0402076 0.0199708 0 0 0 0.0990364 0.000894613 0.011586 0.000464433 -0.000118733 -0.000701054 0.0990364 0.000894613 0.011586 669.711 669.711 1001.59 
129 1 1 0.0927241 0.0400087 0.0180029 0 0 0 0.0313906 -0.00268278 -0.0479054 0.0049432 0.000291426 -0.0028054 0.0313906 -0.00268278 -0.0479054 374.624 374.624 1000.89 
130 1 1 0.102743 0.0401976 0.0199248 0 0 0 0.132145 -0.00114607 0.00936586 -0.00423564 -0.000420243 -0.00169468 0.132145 -0.00114607 0.00936586 611.105 611.105 1001.45 
131 1 1 0.00997495 0.05 0.016867 0 0 0 0.0171397 -1.06601e-15 -0.0794562 -0.0196055 -1.54278e-14 -0.0105945 0.0171397 -1.06601e-15 -0.0794562 1148.97 1148.97 1002.71 
132 1 1 0.0213229 0.05 0.0213462 0 0 0 0.018785 -1.74389e-15 0.0307609 0.00934018 -1.18292e-14 -0.0102982 0.018785 -1.74389e-15 0.0307609 888.171 888.171 1002.1 
133 1 1 0.0308207 0.05 0.0194049 0 0 0 0.011656 -4.434e-15 -0.0149849 0.00897486 -4.17114e-15 -0.00332949 0.011656 -4.434e-15 -0.0149849 779.986 779.986 1001.85 
134 1 1 0.0411447 0.05 0.0196275 0 0 0 0.0170956 7.11022e-15 -0.0103174 0.00319345 3.34051e-15 -0.000412771 0.0170956 7.11022e-15 -0.0103174 746.301 746.301 1001.77 
135 1 1 0.0513661 0.05 0.0196433 0 0 0 0.0280061 2.0895e-15 0.000557929 0.00593338 -1.49056e-15 0.00135978 0.0280061 2.0895e-15 0.000557929 686.447 686.447 1001.63 
136 1 1 0.0618845 0.05 0.0196294 0 0 0 0.0488785 1.41528e-14 -0.00276609 0.00182641 2.49406e-16 0.00167769 0.0488785 1.41528e-14 -0.00276609 668.465 668.465 1001.58 
137 1 1 0.0717052 0.05 0.0191853 0 0 0 0.0418629 -1.57409e-14 -0.00878993 0.00687469 3.7058e-15 0.00171236 0.0418629 -1.57409e-14 -0.00878993 580.502 580.502 1001.38 
138 1 1 0.0829698 0.05 0.0201295 0 0 0 0.102159 -4.04794e-15 0.0246429 0.0006112 3.69315e-15 0.000233198 0.102159 -4.04794e-15 0.0246429 679.736 679.736 1001.61 
139 1 1 0.092555 0.05 0.018128 0 0 0 0.0300444 -1.7004e-14 -0.0393918 0.00545942 4.65448e-15 -0.00207452 0.0300444 -1.7004e-14 -0.0393918 387.668 387.668 1000.92 
140 1 1 0.102777 0.05 0.0200435 0 0 0 0.133791 2.36374e-14 0.0178305 -0.00474852 1.47232e-14 -0.00131679 0.133791 2.36374e-14 0.0178305 614.007 614.007 1001.46 
141 1 1 0.00997355 0.0599642 0.0167757 0 0 0 0.0246546 0.0118691 -0.0853776 -0.0181398 -0.00209156 -0.0118372 0.0246546 0.0118691 -0.0853776 1158.79 1158.79 1002.74 
142 1 1 0.0213842 0.0597708 0.0212103 0 0 0 0.0183891 0.00188332 0.0237672 0.0101391 -0.00149633 -0.0108903 0.0183891 0.00188332 0.0237672 885.331 885.331 1002.09 
143 1 1 0.0307204 0.059892 0.0192426 0 0 0 0.0090034 0.00258659 -0.0252738 0.00982003 0.000511704 -0.00447772 0.0090034 0.00258659 -0.0252738 765.281 765.281 1001.81 
144 1 1 0.0412461 0.0597882 0.019482 0 0 0 0.0205698 0.000544823 -0.0195689 0.00292371 0.00168772 -0.00128013 0.0205698 0.000544823 -0.0195689 737.132 737.132 1001.75 
145 1 1 0.0513717 0.0598971 0.0194912 0 0 0 0.0265931 0.00165961 -0.0111452 0.00540049 0.000633866 0.000255697 0.0265931 0.00165961 -0.0111452 688.048 688.048 1001.63 
146 1 1 0.0618106 0.0598126 0.0194585 0 0 0 0.0460984 0.000216258 -0.0144975 0.00184634 0.00056178 0.000830453 0.0460984 0.000216258 -0.0144975 664.216 664.216 1001.57 
147 1 1 0.0718202 0.0599247 0.01903 0 0 0 0.0446789 0.0023671 -0.0209845 0.00663813 0.000226107 0.000833121 0.0446789 0.0023671 -0.0209845 578.459 578.459 1001.37 
148 1 1 0.082864 0.0597924 0.0199708 0 0 0 0.0990364 -0.000894613 0.011586 0.000464433 0.000118733 -0.000701054 0.0990364 -0.000894613 0.011586 669.711 669.711 1001.59 
149 1 1 0.0927241 0.0599913 0.0180029 0 0 0 0.0313906 0.00268278 -0.0479054 0.0049432 -0.000291426 -0.0028054 0.0313906 0.00268278 -0.0479054 374.624 374.624 1000.89 
150 1 1 0.102743 0.0598024 0.0199248 0 0 0 0.132145 0.00114607 0.00936586 -0.00423564 0.000420243 -0.00169468 0.132145 0.00114607 0.00936586 611.105 611.105 1001.45 
151 1 1 0.00996692 0.0700666 0.0163991 0 0 0 0.0285888 0.0276997 -0.099231 -0.0141668 -0.00730299 -0.0139292 0.0285888 0.0276997 -0.099231 1234.68 1234.68 1002.91 
152 1 1 0.0211818 0.0697413 0.0210521 0 0 0 0.00540377 0.0102009 0.0293311 0.0119414 -0.00624336 -0.00918786 0.00540377 0.0102009 0.0293311 940.433 940.433 1002.22 
153 1 1 0.0308705 0.0698273 0.01897 0 0 0 0.0102038 0.0087941 -0.032113 0.0131939 -0.0019123 -0.00450382 0.0102038 0.0087941 -0.032113 760.893 760.893 1001.8 
154 1 1 0.0411354 0.0699649 0.0192 0 0 0 0.0156262 0.00865711 -0.0274619 0.00338001 0.00151042 -0.00121883 0.0156262 0.00865711 -0.0274619 720.86 720.86 1001.71 
155 1 1 0.0513833 0.0698889 0.0192366 0 0 0 0.0282268 0.00782535 -0.0175701 0.00452055 0.00140973 0.000134223 0.0282268 0.00782535 -0.0175701 690.029 690.029 1001.63 
156 1 1 0.0618565 0.0699359 0.0192053 0 0 0 0.0452861 0.0086719 -0.0217797 0.00143157 0.000428549 0.000714283 0.0452861 0.0086719 -0.0217797 670.867 670.867 1001.59 
157 1 1 0.071707 0.0699242 0.0187913 0 0 0 0.0435406 0.00719199 -0.0277507 0.00643769 -4.5819e-05 0.00064773 0.0435406 0.00719199 -0.0277507 585.539 585.539 1001.39 
158 1 1 0.0829868 0.0699413 0.0197894 0 0 0 0.098316 0.0081651 0.0107818 -0.000363847 -0.00133344 -0.000727793 0.098316 0.0081651 0.0107818 680.305 680.305 1001.61 
159 1 1 0.0923007 0.0701456 0.0176873 0 0 0 0.03112 0.0166816 -0.0574928 0.00678422 -0.000962391 -0.00340268 0.03112 0.0166816 -0.0574928 417.198 417.198 1000.99 
160 1 1 0.102745 0.0696077 0.0198084 0 0 0 0.127684 -0.00255779 0.00676708 -0.00417312 -0.000498609 -0.00190459 0.127684 -0.00255779 0.00676708 606.172 606.172 1001.44 
161 1 1 0.00991718 0.0796162 0.0190393 0 0 0 0.0235719 0.0420778 0.0144621 0.0314213 0.00106317 -0.00540511 0.0235719 0.0420778 0.0144621 1392.75 1392.75 1003.28 
162 1 1 0.0218799 0.0784598 0.0223687 0 0 0 0.00916788 -0.0112323 0.0343704 0.0150986 -0.00230128 -0.0116221 0.00916788 -0.0112323 0.0343704 1057.8 1057.8 1002.5 
163 1 1 0.0309796 0.0791568 0.0211641 0 0 0 0.0106951 -0.00751831 0.037713 0.0193676 0.000729385 -0.00272021 0.0106951 -0.00751831 0.037713 757.041 757.041 1001.79 
164 1 1 0.041328 0.0789763 0.0212429 0 0 0 0.0214956 -0.0169584 0.0280047 0.00487062 0.00353028 -0.00132957 0.0214956 -0.0169584 0.0280047 647.505 647.505 1001.53 
165 1 1 0.0514955 0.0789744 0.0213247 0 0 0 0.0345961 -0.0190165 0.0422508 0.00391256 0.00312731 -0.000425855 0.0345961 -0.0190165 0.0422508 633.389 633.389 1001.5 
166 1 1 0.0619703 0.0790378 0.0211871 0 0 0 0.050216 -0.0106545 0.0289455 0.00101478 0.00203874 -0.000268454 0.050216 -0.0106545 0.0289455 627.723 627.723 1001.49 
167 1 1 0.0719491 0.0790571 0.0209866 0 0 0 0.0473723 -0.0249261 0.0407406 0.00511828 0.000488774 0.000596002 0.0473723 -0.0249261 0.0407406 537.736 537.736 1001.28 
168 1 1 0.0831609 0.0789403 0.0214976 0 0 0 0.119409 0.00154447 0.0432899 -0.000609572 0.000794263 -0.00313509 0.119409 0.00154447 0.0432899 707.69 707.69 1001.68 
169 1 1 0.0935025 0.0795648 0.02016 0 0 0 0.0390462 -0.0195123 0.0379812 0.00440657 -0.0010363 -0.00100714 0.0390462 -0.0195123 0.0379812 344.457 344.457 1000.82 
170 1 1 0.102941 0.0789119 0.0212525 0 0 0 0.144615 -0.00702715 0.0450878 -0.00227059 -0.000187396 -0.00333225 0.144615 -0.00702715 0.0450878 590.886 590.886 1001.4 
171 1 1 0.00991596 0.0900963 0.0127133 0 0 0 0.0177471 -0.00010588 -0.264517 0.0473333 -0.0560945 -0.0355623 0.0177471 -0.00010588 -0.264517 1340.34 1340.34 1003.16 
172 1 1 0.0207224 0.0900754 0.0188142 0 0 0 -0.0396637 -0.0355802 0.00172288 0.00942568 -0.0231047 -0.00441014 -0.0396637 -0.0355802 0.00172288 1328.88 1328.88 1003.13 
173 1 1 0.0304491 0.0900289 0.0161989 0 0 0 -0.0147156 0.00948615 -0.110241 0.0180634 0.0131713 -0.00685533 -0.0147156 0.00948615 -0.110241 924.57 924.57 1002.19 
174 1 1 0.0408378 0.0900273 0.0165473 0 0 0 0.00195996 -0.000245056 -0.0950408 0.00465769 0.00856309 -0.00233736 0.00195996 -0.000245056 -0.0950408 795.027 795.027 1001.88 
175 1 1 0.0510559 0.0900305 0.0164939 0 0 0 0.0177257 -0.000558776 -0.0905881 0.00194339 0.00357984 -0.00215813 0.0177257 -0.000558776 -0.0905881 791.467 791.467 1001.87 
176 1 1 0.0614592 0.0900325 0.0165171 0 0 0 0.0298808 -0.00161782 -0.0926991 -0.000394442 0.00139715 -0.00218182 0.0298808 -0.00161782 -0.0926991 775.853 775.853 1001.84 
177 1 1 0.0715407 0.0900468 0.0160099 0 0 0 0.0363994 -0.0180047 -0.111951 0.00397761 -0.0155763 -0.00371948 0.0363994 -0.0180047 -0.111951 753.175 753.175 1001.78 
178 1 1 0.0825516 0.0900323 0.0171659 0 0 0 0.0816957 0.000595045 -0.0450212 -0.00116829 0.00102365 -0.000481732 0.0816957 0.000595045 -0.0450212 810.744 810.744 1001.92 