ITEM: TIMESTEP
105000
ITEM: NUMBER OF ATOMS
2655
ITEM: BOX BOUNDS ff ff ff
0 0.5
0 0.1
0 0.5
ITEM: ATOMS id type type x y z ix iy iz vx vy vz fx fy fz vx vy vz p p rho 
1 1 1 0.00997837 0.00997634 0.00997367 0 0 0 0.00685652 -0.00932877 0.00785718 -0.0017547 0.00437653 0.0121683 0.00685652 -0.00932877 0.00785718 569.355 569.355 1001.35 
2 1 1 0.0272172 0.00996875 0.0100056 0 0 0 0.00548247 -0.000380098 0.00710245 0.000297523 0.00647919 -0.0286782 0.00548247 -0.000380098 0.00710245 554.746 554.746 1001.32 
3 1 1 0.023024 0.00996898 0.00996985 0 0 0 -0.0212914 -0.00786832 0.00998111 0.000281729 0.00596064 0.0173263 -0.0212914 -0.00786832 0.00998111 566.6 566.6 1001.34 
4 1 1 0.0577441 0.0099734 0.0100023 0 0 0 0.0132722 -0.00347825 -0.00814858 -0.00177616 0.0037879 -0.0282848 0.0132722 -0.00347825 -0.00814858 524.215 524.215 1001.24 
5 1 1 0.0619948 0.00997751 0.0100056 0 0 0 0.00489049 -0.000315664 0.0216165 -0.00100045 -0.000698182 -0.0282351 0.00489049 -0.000315664 0.0216165 539.703 539.703 1001.28 
6 1 1 0.0793973 0.0099761 0.00996226 0 0 0 0.0314041 0.00143724 -0.00658446 -0.000155439 0.00133974 0.0245745 0.0314041 0.00143724 -0.00658446 541.579 541.579 1001.28 
7 1 1 0.0922528 0.00997939 0.00998152 0 0 0 0.0347991 -0.00150429 -0.00315961 -4.58509e-05 -2.98911e-05 0.00464588 0.0347991 -0.00150429 -0.00315961 555.44 555.44 1001.32 
8 1 1 0.100431 0.00998196 0.00998909 0 0 0 0.0439838 -0.00322575 0.0180462 0.00138084 -0.00267503 -0.00362645 0.0439838 -0.00322575 0.0180462 547.766 547.766 1001.3 
9 1 1 0.109405 0.00998084 0.00998947 0 0 0 0.0367613 -0.0012636 -0.0115615 0.00110592 -0.00125227 -0.00507729 0.0367613 -0.0012636 -0.0115615 535.153 535.153 1001.27 
10 1 1 0.122152 0.00998104 0.00997736 0 0 0 0.0363757 0.00284397 -0.0121961 0.000841441 -0.000697896 0.00582554 0.0363757 0.00284397 -0.0121961 522.612 522.612 1001.24 
11 1 1 0.0099833 0.0210436 0.00997233 0 0 0 -0.00666228 0.0300801 -0.00603026 -0.00850409 0.00145093 0.0120134 -0.00666228 0.0300801 -0.00603026 561.026 561.026 1001.33 
12 1 1 0.0267266 0.0320767 0.0099831 0 0 0 0.00396754 0.0113758 -0.000335383 -0.000464314 0.00160595 0.0020775 0.00396754 0.0113758 -0.000335383 562.368 562.368 1001.33 
13 1 1 0.0214297 0.0207793 0.00998563 0 0 0 0.0236733 0.0030176 0.00413943 -0.00261635 0.00389337 -0.000284668 0.0236733 0.0030176 0.00413943 570.032 570.032 1001.35 
14 1 1 0.0739868 0.0213425 0.00998511 0 0 0 -0.00256743 -0.0178889 0.00383523 0.000679444 0.00250134 -0.000487197 -0.00256743 -0.0178889 0.00383523 558.697 558.697 1001.32 
15 1 1 0.0625108 0.0219112 0.0099862 0 0 0 -0.0248069 -0.00917962 -0.00189285 0.000360363 0.0010649 -0.00111101 -0.0248069 -0.00917962 -0.00189285 559.568 559.568 1001.33 
16 1 1 0.0855113 0.0219319 0.00998426 0 0 0 0.00645764 -0.0184134 0.00134105 0.000782191 0.0012199 -0.00077482 0.00645764 -0.0184134 0.00134105 550.368 550.368 1001.31 
17 1 1 0.0887116 0.0417559 0.00998056 0 0 0 -0.00046151 -0.00730023 0.00169471 -0.000179669 0.00033248 0.0018396 -0.00046151 -0.00730023 0.00169471 507.484 507.484 1001.2 
18 1 1 0.115605 0.0313462 0.00998003 0 0 0 0.0201321 0.0293776 -0.000204284 1.78358e-05 0.00117954 9.01233e-05 0.0201321 0.0293776 -0.000204284 520.229 520.229 1001.23 
19 1 1 0.0962646 0.0230171 0.00998651 0 0 0 0.0135022 -0.025828 -0.00028698 0.000720857 0.000127789 -0.00431421 0.0135022 -0.025828 -0.00028698 540.201 540.201 1001.28 
20 1 1 0.132231 0.0225447 0.00997342 0 0 0 0.0309905 -0.0141893 0.00115406 0.000351206 -0.00150228 0.00492182 0.0309905 -0.0141893 0.00115406 528.42 528.42 1001.25 
21 1 1 0.00997443 0.0284625 0.00998113 0 0 0 -0.0105232 -0.0640971 -0.00109192 0.00133869 0.00182278 0.00418848 -0.0105232 -0.0640971 -0.00109192 538.658 538.658 1001.28 
22 1 1 0.0333561 0.0352683 0.0099841 0 0 0 -0.00525962 0.00796717 0.00149433 -8.4128e-06 0.00109822 0.00114891 -0.00525962 0.00796717 0.00149433 544.051 544.051 1001.29 
23 1 1 0.0519246 0.0432203 0.00998462 0 0 0 0.0122686 0.00708767 0.00257059 -0.000416149 0.00104413 0.000108913 0.0122686 0.00708767 0.00257059 507.013 507.013 1001.2 
24 1 1 0.0725115 0.0315735 0.00998444 0 0 0 0.0187307 -0.0129619 2.21427e-05 -6.19425e-05 0.00025455 0.00134217 0.0187307 -0.0129619 2.21427e-05 540.282 540.282 1001.28 
25 1 1 0.0938064 0.0378082 0.00998264 0 0 0 -0.0110701 -0.00382376 -0.00191712 0.000658158 -0.00047013 -0.000592885 -0.0110701 -0.00382376 -0.00191712 509.888 509.888 1001.21 
26 1 1 0.0907945 0.0238848 0.00998365 0 0 0 -0.0010859 0.0214322 0.00208631 0.000794853 0.000989182 -0.000824466 -0.0010859 0.0214322 0.00208631 542.898 542.898 1001.29 
27 1 1 0.113386 0.0439009 0.00997917 0 0 0 -0.0104009 0.000992175 0.000462986 0.00110456 0.000216248 4.43107e-05 -0.0104009 0.000992175 0.000462986 495.39 495.39 1001.18 
28 1 1 0.0915348 0.0324612 0.00998283 0 0 0 0.0265287 -0.0124158 -0.00283571 0.000573642 -0.000466351 -0.00027245 0.0265287 -0.0124158 -0.00283571 522.861 522.861 1001.24 
29 1 1 0.119065 0.0223016 0.00998003 0 0 0 -0.00866677 -0.00480708 -0.00135875 0.00066576 -0.00108465 -0.000735375 -0.00866677 -0.00480708 -0.00135875 532.448 532.448 1001.26 
30 1 1 0.126801 0.0294255 0.00997651 0 0 0 -0.0118208 -0.0336894 0.00119963 0.000254302 0.00123353 0.00258995 -0.0118208 -0.0336894 0.00119963 525.148 525.148 1001.25 
31 1 1 0.00997527 0.0378475 0.00998705 0 0 0 0.00289157 0.0152076 -0.00166819 0.000384707 0.00119836 -0.00116648 0.00289157 0.0152076 -0.00166819 525.171 525.171 1001.25 
32 1 1 0.0205146 0.0416507 0.00998415 0 0 0 -0.0180209 0.0229669 -0.000520011 0.00106805 0.00112187 0.00082391 -0.0180209 0.0229669 -0.000520011 541.929 541.929 1001.29 
33 1 1 0.0454904 0.0377207 0.00998412 0 0 0 0.00790357 0.00215457 0.00295428 0.000876882 0.00177893 0.000494477 0.00790357 0.00215457 0.00295428 521.067 521.067 1001.24 
34 1 1 0.0603701 0.0360388 0.00998504 0 0 0 0.00220954 -0.0441864 -1.83948e-05 0.000270195 0.000311391 0.000990033 0.00220954 -0.0441864 -1.83948e-05 523.647 523.647 1001.24 
35 1 1 0.0655473 0.0415078 0.00998524 0 0 0 -0.016235 0.00983591 9.54974e-05 -0.000625753 0.000963077 0.000239362 -0.016235 0.00983591 9.54974e-05 509.172 509.172 1001.21 
36 1 1 0.0815972 0.0311503 0.00998641 0 0 0 0.020429 -0.00305641 -0.00271452 0.000839364 0.000528575 -0.00206473 0.020429 -0.00305641 -0.00271452 535.512 535.512 1001.27 
37 1 1 0.105029 0.035811 0.00998311 0 0 0 -0.00727256 -0.00396483 -0.00154973 -0.000382031 0.000551062 -0.00104142 -0.00727256 -0.00396483 -0.00154973 511.945 511.945 1001.21 
38 1 1 0.111048 0.0374668 0.0099797 0 0 0 0.00876264 -0.0017832 -0.000302913 0.000884692 -0.000238589 0.000566731 0.00876264 -0.0017832 -0.000302913 506.844 506.844 1001.2 
39 1 1 0.129707 0.0406855 0.00997641 0 0 0 0.00160119 -0.00322359 -0.000599827 0.000744023 0.000371212 0.00104448 0.00160119 -0.00322359 -0.000599827 494.06 494.06 1001.17 
40 1 1 0.144297 0.0361339 0.00997202 0 0 0 0.0373309 0.00506964 -0.00292875 0.000374286 0.000645718 0.0030205 0.0373309 0.00506964 -0.00292875 497.511 497.511 1001.18 
41 1 1 0.00997401 0.052557 0.00998201 0 0 0 -0.00283893 0.0318048 0.00547109 0.00228509 0.00055695 0.00301853 -0.00283893 0.0318048 0.00547109 504.176 504.176 1001.2 
42 1 1 0.028722 0.0525292 0.00998635 0 0 0 0.0126107 0.0319402 -0.000564746 -0.00100697 0.00123226 -0.000985616 0.0126107 0.0319402 -0.000564746 509.126 509.126 1001.21 
43 1 1 0.0429171 0.0504409 0.00998382 0 0 0 0.0238698 -0.0238069 -0.00218481 0.000439348 0.00180762 0.000620656 0.0238698 -0.0238069 -0.00218481 494.867 494.867 1001.17 
44 1 1 0.0612785 0.0473921 0.00998428 0 0 0 -0.00792252 -0.0190101 -0.000815185 0.000362792 0.00150345 0.000215102 -0.00792252 -0.0190101 -0.000815185 496.863 496.863 1001.18 
45 1 1 0.0739245 0.0491505 0.00998586 0 0 0 -0.0227892 -0.0046106 -0.000698832 -0.000267847 0.000957712 -0.00108071 -0.0227892 -0.0046106 -0.000698832 501.025 501.025 1001.19 
46 1 1 0.0805467 0.0508771 0.0099869 0 0 0 0.00436797 0.00977805 -0.00135855 0.000628384 0.000800606 -0.00302325 0.00436797 0.00977805 -0.00135855 498.104 498.104 1001.18 
47 1 1 0.0865905 0.0485709 0.00998141 0 0 0 -0.0066195 -0.0127943 0.00203879 0.000396066 0.000885826 0.0015395 -0.0066195 -0.0127943 0.00203879 499.374 499.374 1001.18 
48 1 1 0.111732 0.049837 0.00998112 0 0 0 0.0113747 -0.00831338 -0.00177387 0.000150708 0.000571438 -0.000862805 0.0113747 -0.00831338 -0.00177387 490.682 490.682 1001.16 
49 1 1 0.0987104 0.0474166 0.00998138 0 0 0 -0.0240227 0.00220405 0.000821129 0.000505984 0.00130575 0.00117835 -0.0240227 0.00220405 0.000821129 496.119 496.119 1001.18 
50 1 1 0.135493 0.0498517 0.00997498 0 0 0 0.0485138 -0.00730335 0.000204963 0.000204302 0.000427961 0.000489378 0.0485138 -0.00730335 0.000204963 477.191 477.191 1001.13 
51 1 1 0.00997795 0.0618018 0.00999124 0 0 0 0.001443 -0.0244565 -0.00409833 0.000136393 0.0014955 -0.00560622 0.001443 -0.0244565 -0.00409833 497.771 497.771 1001.18 
52 1 1 0.0217703 0.0602595 0.00998346 0 0 0 -0.0432409 -0.00486469 0.00170029 -0.000841778 0.000903311 0.00177509 -0.0432409 -0.00486469 0.00170029 507.737 507.737 1001.2 
53 1 1 0.0475447 0.0619336 0.00998368 0 0 0 0.0143892 -0.0113536 0.00285982 0.000600671 0.000982898 0.00077477 0.0143892 -0.0113536 0.00285982 489.132 489.132 1001.16 
54 1 1 0.0620869 0.0624839 0.00998426 0 0 0 0.00555015 0.00458919 0.000125533 -0.000116998 0.00146061 0.000496678 0.00555015 0.00458919 0.000125533 494.418 494.418 1001.17 
55 1 1 0.0665481 0.0578932 0.00998487 0 0 0 0.0179918 -0.00901253 0.000650518 -0.000429866 0.00163341 -0.000228379 0.0179918 -0.00901253 0.000650518 492.372 492.372 1001.17 
56 1 1 0.0823854 0.0684705 0.00998692 0 0 0 0.0202606 0.00484529 -0.00248388 4.16504e-05 0.000921669 -0.0032471 0.0202606 0.00484529 -0.00248388 503.488 503.488 1001.19 
57 1 1 0.105193 0.0640663 0.00998419 0 0 0 0.00712943 0.0137217 -0.00076949 -0.000379102 0.000411178 -0.00169883 0.00712943 0.0137217 -0.00076949 501.12 501.12 1001.19 
58 1 1 0.111164 0.063427 0.00998083 0 0 0 0.0119179 0.00301757 -8.84898e-05 0.0006926 0.000624968 -0.000197509 0.0119179 0.00301757 -8.84898e-05 498.959 498.959 1001.18 
59 1 1 0.129886 0.0598187 0.00997663 0 0 0 0.00911309 0.00316193 -0.000211855 0.000942544 0.000588313 0.000693856 0.00911309 0.00316193 -0.000211855 486.744 486.744 1001.15 
60 1 1 0.142615 0.0646942 0.00997278 0 0 0 0.0122002 -0.00428968 -0.00249442 -6.0078e-05 0.00049244 0.00275069 0.0122002 -0.00428968 -0.00249442 486.915 486.915 1001.16 
61 1 1 0.00998674 0.0719298 0.00998614 0 0 0 0.00873156 0.0470846 0.0069181 -0.00807884 0.00123398 0.000214041 0.00873156 0.0470846 0.0069181 494.605 494.605 1001.17 
62 1 1 0.0357887 0.0643389 0.00998505 0 0 0 0.000414781 -0.0240473 0.00129014 -0.000997652 0.0023384 -0.000133781 0.000414781 -0.0240473 0.00129014 494.499 494.499 1001.17 
63 1 1 0.0545352 0.0573747 0.00998459 0 0 0 0.0230161 -0.00342791 0.00220861 -0.0010173 0.00159556 -0.000356376 0.0230161 -0.00342791 0.00220861 492.513 492.513 1001.17 
64 1 1 0.0721245 0.0688194 0.00998416 0 0 0 0.0124308 0.0132133 -0.00205371 -0.000874673 0.00137305 0.000765109 0.0124308 0.0132133 -0.00205371 497.435 497.435 1001.18 
65 1 1 0.0953243 0.0626863 0.00998366 0 0 0 0.0110861 -0.00044665 -0.00109084 0.000266616 0.0011328 -0.00115406 0.0110861 -0.00044665 -0.00109084 498.762 498.762 1001.18 
66 1 1 0.0905505 0.0760868 0.0099839 0 0 0 -0.00085696 -0.0275356 0.00406752 0.000218982 0.000171003 -0.000924381 -0.00085696 -0.0275356 0.00406752 511.38 511.38 1001.21 
67 1 1 0.114028 0.0563767 0.00997966 0 0 0 0.00219171 0.00453186 0.000289629 0.000813551 0.000534252 -0.000319203 0.00219171 0.00453186 0.000289629 490.433 490.433 1001.16 
68 1 1 0.0920241 0.0672819 0.0099831 0 0 0 0.0257079 0.00602351 -0.000666546 -5.43667e-05 0.00155259 -0.00012777 0.0257079 0.00602351 -0.000666546 505.112 505.112 1001.2 
69 1 1 0.119464 0.0776244 0.00997851 0 0 0 0.00556772 -0.000312777 -0.00184535 0.000425819 0.000542043 0.0016069 0.00556772 -0.000312777 -0.00184535 503.722 503.722 1001.2 
70 1 1 0.127823 0.0690919 0.00997719 0 0 0 0.00232609 0.0264866 0.00163496 0.000313664 0.000374447 0.00229897 0.00232609 0.0264866 0.00163496 503.122 503.122 1001.19 
71 1 1 0.00997749 0.078922 0.00998053 0 0 0 0.0114345 -0.0218971 0.00386815 0.00207641 0.00581913 0.0057737 0.0114345 -0.0218971 0.00386815 458.356 458.356 1001.09 
72 1 1 0.0294372 0.0639354 0.00998354 0 0 0 0.0473607 -0.0416839 0.000470921 -0.00021329 0.00251856 0.00200795 0.0473607 -0.0416839 0.000470921 501.819 501.819 1001.19 
73 1 1 0.0213566 0.0791805 0.00998469 0 0 0 0.0259313 -0.0178641 -0.00776945 -0.00241782 0.00268147 0.0020019 0.0259313 -0.0178641 -0.00776945 462.659 462.659 1001.1 
74 1 1 0.0735864 0.077724 0.00998696 0 0 0 -0.00227998 0.014578 0.00345429 -0.000411304 -0.00152588 -0.00209403 -0.00227998 0.014578 0.00345429 506.403 506.403 1001.2 
75 1 1 0.0624923 0.0774949 0.00998549 0 0 0 -0.0216958 0.00409409 -0.00413816 -0.000880528 -0.000261601 -0.00038501 -0.0216958 0.00409409 -0.00413816 489.054 489.054 1001.16 
76 1 1 0.0850375 0.078044 0.0099842 0 0 0 0.00773799 0.0165156 0.00188418 0.00066046 -3.20861e-05 -0.00127169 0.00773799 0.0165156 0.00188418 511.877 511.877 1001.21 
77 1 1 0.0889479 0.0577766 0.00998131 0 0 0 0.0187047 0.0109919 0.00150059 -4.48189e-05 0.00127003 0.00141462 0.0187047 0.0109919 0.00150059 493.615 493.615 1001.17 
78 1 1 0.116106 0.0694515 0.00998065 0 0 0 0.0193457 -0.0158991 -0.000252672 -9.47618e-05 -8.01803e-05 -0.000334081 0.0193457 -0.0158991 -0.000252672 503.861 503.861 1001.2 
79 1 1 0.0959402 0.077194 0.00998359 0 0 0 0.00153976 0.0284264 0.00200582 -0.000171353 0.000706717 -0.000513748 0.00153976 0.0284264 0.00200582 506.813 506.813 1001.2 
80 1 1 0.131579 0.0774615 0.00997318 0 0 0 0.0213881 0.0205708 0.00375246 0.000828633 0.00150442 0.00647496 0.0213881 0.0205708 0.00375246 501.838 501.838 1001.19 
81 1 1 0.00997547 0.0900079 0.00998447 0 0 0 0.00908229 0.0102465 0.00288811 0.00770999 0.00783919 0.00287791 0.00908229 0.0102465 0.00288811 374.969 374.969 1000.89 
82 1 1 0.0271019 0.0900115 0.00998476 0 0 0 0.0075858 -0.000929121 0.0262954 -0.00158664 0.00811212 0.00222256 0.0075858 -0.000929121 0.0262954 415.794 415.794 1000.99 
83 1 1 0.0230406 0.0900071 0.00997774 0 0 0 -0.0160696 -0.00432987 -0.000175797 -0.00206509 0.0127459 0.00949304 -0.0160696 -0.00432987 -0.000175797 412.481 412.481 1000.98 
84 1 1 0.0579017 0.0900171 0.00998586 0 0 0 0.0141716 0.00326306 0.0118363 -0.00280873 0.00267469 0.00103515 0.0141716 0.00326306 0.0118363 459.258 459.258 1001.09 
85 1 1 0.0620525 0.0900226 0.00997306 0 0 0 0.0138853 0.000294137 -0.0107273 -0.00247583 -0.00264161 0.0143304 0.0138853 0.000294137 -0.0107273 475.751 475.751 1001.13 
86 1 1 0.0791748 0.0900177 0.00996951 0 0 0 0.038155 -0.00120977 -0.00983159 0.000624018 0.00271716 0.0177841 0.038155 -0.00120977 -0.00983159 507.652 507.652 1001.2 
87 1 1 0.091913 0.090018 0.00996402 0 0 0 0.0328805 0.000761054 -0.00295391 -0.000347238 0.00141079 0.0221178 0.0328805 0.000761054 -0.00295391 493.131 493.131 1001.17 
88 1 1 0.100486 0.0900198 0.00999064 0 0 0 0.0342065 -0.00325693 0.0211548 -0.00105767 0.000447858 -0.00464216 0.0342065 -0.00325693 0.0211548 514.823 514.823 1001.22 
89 1 1 0.109303 0.0900197 0.00998034 0 0 0 0.0366879 0.00282381 0.0178782 0.000420331 0.00019508 0.00456374 0.0366879 0.00282381 0.0178782 526.358 526.358 1001.25 
90 1 1 0.122173 0.0900188 0.00995513 0 0 0 0.0336102 -0.000665612 -0.000298756 0.00110835 0.000362587 0.0286828 0.0336102 -0.000665612 -0.000298756 497.922 497.922 1001.18 
91 1 1 0.00997293 0.00997127 0.00997142 0 0 0 0.00912027 -0.00325758 -0.0147826 0.00370413 0.00946943 0.0144489 0.00912027 -0.00325758 -0.0147826 569.359 569.359 1001.35 
92 1 1 0.0196618 0.00996832 0.00998093 0 0 0 -0.000746355 -0.00966198 0.0252564 0.00037292 0.00709111 0.00572565 -0.000746355 -0.00966198 0.0252564 572.948 572.948 1001.36 
93 1 1 0.0318556 0.00997147 0.00997862 0 0 0 -0.0107125 0.000442958 -0.019656 0.00123145 0.00466629 0.00779387 -0.0107125 0.000442958 -0.019656 543.09 543.09 1001.29 
94 1 1 0.040463 0.00997362 0.0100047 0 0 0 0.010107 0.00343287 0.0117462 0.000687476 0.00233961 -0.0290558 0.010107 0.00343287 0.0117462 527.837 527.837 1001.25 
95 1 1 0.066381 0.00997594 0.00999297 0 0 0 0.021747 -0.00260653 0.0205736 -0.000479823 0.00106769 -0.00605902 0.021747 -0.00260653 0.0205736 548.774 548.774 1001.3 
96 1 1 0.0877928 0.00997823 0.00999667 0 0 0 0.0348725 0.00264779 0.0256901 0.000312566 0.000321456 -0.00982183 0.0348725 0.00264779 0.0256901 553.009 553.009 1001.31 
97 1 1 0.0964947 0.00997912 0.00996489 0 0 0 0.0227682 0.000283895 0.00275956 0.000279176 0.000381586 0.0208829 0.0227682 0.000283895 0.00275956 552.984 552.984 1001.31 
98 1 1 0.105018 0.00997974 0.00999444 0 0 0 0.033194 -0.00467877 0.00502467 0.00104296 -0.000509557 -0.00941356 0.033194 -0.00467877 0.00502467 540.881 540.881 1001.28 
99 1 1 0.113368 0.00998032 0.00996917 0 0 0 0.0269509 -0.001381 -0.00345134 0.00153225 -9.30375e-08 0.0149365 0.0269509 -0.001381 -0.00345134 530.958 530.958 1001.26 
100 1 1 0.117963 0.00997971 0.00997827 0 0 0 0.0490518 0.000907634 0.00545807 0.00044316 0.000611132 0.00515015 0.0490518 0.000907634 0.00545807 526.417 526.417 1001.25 
101 1 1 0.00998698 0.0252207 0.024364 0 0 0 -0.00118371 -0.0224012 0.00145613 0.000360347 0.000753061 -0.00120763 -0.00118371 -0.0224012 0.00145613 352.177 352.177 1000.84 
102 1 1 0.00998785 0.0233419 0.0099958 0 0 0 0.0308298 -0.0147974 -0.00182761 -0.013011 0.00187315 -0.0109451 0.0308298 -0.0147974 -0.00182761 555.148 555.148 1001.32 
103 1 1 0.0285361 0.020913 0.0250597 0 0 0 -0.0788614 0.0315202 -0.00598836 -0.00119409 0.000864394 -0.000612984 -0.0788614 0.0315202 -0.00598836 333.876 333.876 1000.79 
104 1 1 0.0815219 0.023144 0.0391274 0 0 0 -0.0455629 -0.0116978 0.0011278 -0.000720931 9.00977e-05 -0.000809095 -0.0455629 -0.0116978 0.0011278 209.778 209.778 1000.5 
105 1 1 0.120454 0.025475 0.0508471 0 0 0 -0.0520251 -0.0059282 0.0225753 -0.00236438 0.000664092 -0.000523899 -0.0520251 -0.0059282 0.0225753 154.706 154.706 1000.37 
106 1 1 0.108183 0.0222618 0.0099827 0 0 0 -0.0104497 0.00454259 0.0152661 0.000966326 0.000155123 -0.000972278 -0.0104497 0.00454259 0.0152661 538.166 538.166 1001.28 
107 1 1 0.151032 0.0212722 0.0305532 0 0 0 -0.144287 0.0183176 0.0741248 -0.0018646 0.000279795 -0.000793794 -0.144287 0.0183176 0.0741248 377.783 377.783 1000.9 
108 1 1 0.122641 0.036177 0.00997611 0 0 0 0.020706 0.00214712 -0.00258458 -9.86207e-05 -0.000750064 0.00279923 0.020706 0.00214712 -0.00258458 509.283 509.283 1001.21 
109 1 1 0.167789 0.0241035 0.021239 0 0 0 -0.117234 -0.0149453 -0.0300589 -0.000166807 4.62447e-05 0.00374221 -0.117234 -0.0149453 -0.0300589 495.203 495.203 1001.17 
110 1 1 0.151096 0.022699 0.00997336 0 0 0 0.0256158 0.0190055 0.000381449 2.50478e-05 -0.000101579 0.000840686 0.0256158 0.0190055 0.000381449 529.77 529.77 1001.26 
111 1 1 0.00997476 0.0335142 0.00998027 0 0 0 -0.00331794 0.00735421 -0.00106596 0.00143907 0.001983 0.00540435 -0.00331794 0.00735421 -0.00106596 527.534 527.534 1001.25 
112 1 1 0.0202383 0.020008 0.0378949 0 0 0 0.0040071 0.0105422 0.0502451 0.000921859 -0.000217571 0.000424491 0.0040071 0.0105422 0.0502451 179.05 179.05 1000.43 
113 1 1 0.0384373 0.0288226 0.00998447 0 0 0 0.00970554 -0.029954 0.000476518 -0.00106017 0.00104336 0.000312006 0.00970554 -0.029954 0.000476518 561.726 561.726 1001.33 
114 1 1 0.0453807 0.0217534 0.00998192 0 0 0 -0.0163172 -0.00290264 -0.0005573 0.00114401 0.000834723 0.00165544 -0.0163172 -0.00290264 -0.0005573 562.514 562.514 1001.33 
115 1 1 0.068686 0.0213212 0.0250044 0 0 0 -0.0658646 -0.00754774 0.0126122 -0.000628086 0.00140864 -0.00190687 -0.0658646 -0.00754774 0.0126122 358.484 358.484 1000.85 
116 1 1 0.081636 0.0373901 0.00998425 0 0 0 -0.0276525 0.0078233 -0.00024446 0.00127975 0.000619605 7.92975e-05 -0.0276525 0.0078233 -0.00024446 519.845 519.845 1001.23 
117 1 1 0.147758 0.0276779 0.0220966 0 0 0 -0.0989404 0.0358206 -0.048425 -0.000886536 0.000968273 0.00117488 -0.0989404 0.0358206 -0.048425 446.27 446.27 1001.06 
118 1 1 0.162056 0.0222758 0.0236038 0 0 0 -0.135099 -0.014072 -0.0201626 -0.000846868 -0.000695317 0.0001623 -0.135099 -0.014072 -0.0201626 469.884 469.884 1001.12 
119 1 1 0.125558 0.0227253 0.00997881 0 0 0 0.016446 0.0150005 0.00258075 0.000513949 -0.00187093 0.000410566 0.016446 0.0150005 0.00258075 531.674 531.674 1001.26 
120 1 1 0.1699 0.0228902 0.0345197 0 0 0 -0.186711 -0.0239564 0.0908904 2.2398e-05 -4.51975e-05 -0.00173156 -0.186711 -0.0239564 0.0908904 333.562 333.562 1000.79 
121 1 1 0.00997598 0.0429652 0.00998773 0 0 0 0.00337327 -0.0229649 -0.00328885 -0.000738895 0.000805856 -0.0020121 0.00337327 -0.0229649 -0.00328885 523.04 523.04 1001.24 
122 1 1 0.0230756 0.0371479 0.0099869 0 0 0 0.021319 0.0130808 -0.00269262 -0.00171352 0.00100644 -0.00174814 0.021319 0.0130808 -0.00269262 552.363 552.363 1001.31 
123 1 1 0.0208196 0.0277761 0.00999198 0 0 0 0.00456818 0.0493136 0.0106768 -0.00111543 0.00104191 -0.0069914 0.00456818 0.0493136 0.0106768 564.44 564.44 1001.34 
124 1 1 0.0623355 0.0296806 0.00998702 0 0 0 0.00985467 -0.0185863 -0.0018227 7.12044e-05 0.000532716 -0.000605043 0.00985467 -0.0185863 -0.0018227 546.147 546.147 1001.3 
125 1 1 0.0706834 0.0378981 0.00998645 0 0 0 -0.0112077 -0.00890333 0.00120595 0.000842746 -9.1584e-05 -0.000415717 -0.0112077 -0.00890333 0.00120595 521.219 521.219 1001.24 
126 1 1 0.102331 0.0303119 0.00998537 0 0 0 0.00525771 0.0153766 -0.000966262 7.79188e-05 0.000337868 -0.00268903 0.00525771 0.0153766 -0.000966262 525.782 525.782 1001.25 
127 1 1 0.136302 0.0384276 0.00997488 0 0 0 -0.00658776 -0.0161082 -0.000598783 -0.000621339 0.000357949 0.001179 -0.00658776 -0.0161082 -0.000598783 495.059 495.059 1001.17 
128 1 1 0.12183 0.04238 0.00997885 0 0 0 0.0198058 0.0180985 0.00143439 -0.000272894 0.000772049 -0.000889951 0.0198058 0.0180985 0.00143439 494.515 494.515 1001.17 
129 1 1 0.113495 0.0242033 0.00998654 0 0 0 0.00637079 -0.00560045 -0.00859964 0.000491633 0.000161586 -0.00562723 0.00637079 -0.00560045 -0.00859964 533.354 533.354 1001.27 
130 1 1 0.157147 0.0318079 0.00997396 0 0 0 0.0351486 0.00648865 -0.00277881 7.52983e-05 0.000322113 0.00117138 0.0351486 0.00648865 -0.00277881 512.139 512.139 1001.21 
131 1 1 0.00997398 0.0473649 0.00998503 0 0 0 -0.00114682 -0.0251849 0.00571357 0.00174023 0.00188395 0.00041841 -0.00114682 -0.0251849 0.00571357 515.624 515.624 1001.22 
132 1 1 0.0233414 0.0474357 0.00998805 0 0 0 0.00375145 -0.0140594 0.00247764 4.36124e-05 0.00153453 -0.00214514 0.00375145 -0.0140594 0.00247764 526.778 526.778 1001.25 
133 1 1 0.0371136 0.0476745 0.00998754 0 0 0 -0.0166334 0.0114898 -0.00024387 -0.000155497 0.00144476 -0.00228894 -0.0166334 0.0114898 -0.00024387 501.195 501.195 1001.19 
134 1 1 0.0674074 0.0511622 0.0099852 0 0 0 -0.00995175 0.000220968 8.05238e-05 0.000470111 0.000852985 -0.000447548 -0.00995175 0.000220968 8.05238e-05 495.734 495.734 1001.18 
135 1 1 0.105581 0.051705 0.00998089 0 0 0 0.0111867 0.0162373 0.0002391 7.65481e-05 -9.98664e-06 0.000684683 0.0111867 0.0162373 0.0002391 492.567 492.567 1001.17 
136 1 1 0.119846 0.0515083 0.0264566 0 0 0 -0.114816 0.0130334 0.00371784 -0.00153584 0.000261168 -0.00178207 -0.114816 0.0130334 0.00371784 336.898 336.898 1000.8 
137 1 1 0.146257 0.0536191 0.0233125 0 0 0 -0.110773 0.0328345 0.020033 -0.000766393 -0.000247653 0.000948977 -0.110773 0.0328345 0.020033 395.503 395.503 1000.94 
138 1 1 0.122838 0.0501151 0.00997816 0 0 0 0.0145262 -0.0014793 -0.000885701 0.000320206 0.000353346 0.000723546 0.0145262 -0.0014793 -0.000885701 483.182 483.182 1001.15 
139 1 1 0.129638 0.0498659 0.00997729 0 0 0 0.0389257 -0.00686878 -0.000148594 0.000655263 0.000187065 0.000282618 0.0389257 -0.00686878 -0.000148594 478.583 478.583 1001.14 
140 1 1 0.186931 0.0500477 0.0229651 0 0 0 -0.151016 0.00120188 -0.0344914 0.00115374 0.000469814 0.00124063 -0.151016 0.00120188 -0.0344914 457.217 457.217 1001.09 
141 1 1 0.00997445 0.0573449 0.00998822 0 0 0 0.00134179 0.0125176 -0.00566493 0.00229405 0.000893115 -0.00314813 0.00134179 0.0125176 -0.00566493 498.196 498.196 1001.18 
142 1 1 0.0231889 0.0656155 0.00998568 0 0 0 0.00467714 -0.0138406 -0.00351085 -0.00125185 0.00237628 -6.02653e-06 0.00467714 -0.0138406 -0.00351085 502.955 502.955 1001.19 
143 1 1 0.0212092 0.0722572 0.00998831 0 0 0 0.0166437 -0.0575716 0.000154874 -0.000610573 0.00267515 -0.00214697 0.0166437 -0.0575716 0.000154874 491.713 491.713 1001.17 
144 1 1 0.061396 0.0691146 0.00998442 0 0 0 0.00271029 0.0121406 -0.00298013 -0.000212085 0.00177413 0.000722367 0.00271029 0.0121406 -0.00298013 495.863 495.863 1001.18 
145 1 1 0.0722884 0.0628253 0.00998539 0 0 0 0.00285763 0.0146475 0.00145705 -7.24104e-05 0.0018499 9.07923e-05 0.00285763 0.0146475 0.00145705 494.362 494.362 1001.17 
146 1 1 0.10284 0.0697684 0.00998374 0 0 0 0.0154336 -0.0100042 0.00170745 9.85867e-05 0.000855452 -0.000493797 0.0154336 -0.0100042 0.00170745 505.406 505.406 1001.2 
147 1 1 0.136623 0.0595923 0.0099754 0 0 0 -0.0127189 -0.00502912 -9.22804e-05 -0.00065794 0.00104187 0.000187358 -0.0127189 -0.00502912 -9.22804e-05 482.235 482.235 1001.14 
148 1 1 0.121785 0.0574557 0.00997879 0 0 0 0.0263795 -0.0238098 0.000988765 -3.71572e-05 8.73861e-05 -0.000930133 0.0263795 -0.0238098 0.000988765 487.934 487.934 1001.16 
149 1 1 0.113306 0.0763746 0.00998609 0 0 0 0.0139149 0.0211585 -0.00580199 0.000588287 -1.22964e-05 -0.00489173 0.0139149 0.0211585 -0.00580199 506.689 506.689 1001.2 
150 1 1 0.156883 0.0679658 0.00997389 0 0 0 0.0427596 -0.0022492 -0.00204115 0.00020953 0.00083373 0.0014366 0.0427596 -0.0022492 -0.00204115 493.726 493.726 1001.17 
151 1 1 0.00998451 0.0661499 0.00998683 0 0 0 0.00256313 0.00394575 0.000394584 -0.00595863 0.00163616 -0.000876077 0.00256313 0.00394575 0.000394584 498.944 498.944 1001.18 
152 1 1 0.0252638 0.0768345 0.0386409 0 0 0 0.0201091 0.0334683 0.00683992 -0.00036375 0.00095551 -0.00362895 0.0201091 0.0334683 0.00683992 156.28 156.28 1000.37 
153 1 1 0.0380338 0.0718014 0.00998576 0 0 0 0.0102842 0.0150397 -0.00118175 -0.00141833 0.00145231 -0.000445569 0.0102842 0.0150397 -0.00118175 491.892 491.892 1001.17 
154 1 1 0.0453601 0.0783022 0.00998456 0 0 0 -0.0264813 0.00703437 -0.000702294 -0.000409052 0.000612006 0.00114331 -0.0264813 0.00703437 -0.000702294 481.801 481.801 1001.14 
155 1 1 0.0687927 0.077221 0.0261152 0 0 0 -0.057218 -0.0107956 0.011854 -0.000955403 0.000232805 -0.00216913 -0.057218 -0.0107956 0.011854 302.059 302.059 1000.72 
156 1 1 0.0829411 0.0625796 0.00998437 0 0 0 -0.00758208 -0.00764749 0.000132817 0.000766783 0.000915579 -0.000527409 -0.00758208 -0.00764749 0.000132817 495.931 495.931 1001.18 
157 1 1 0.147653 0.0731031 0.0220758 0 0 0 -0.102636 -0.0220566 -0.0339382 -0.00115632 -0.000164099 0.00136545 -0.102636 -0.0220566 -0.0339382 425.501 425.501 1001.01 
158 1 1 0.161934 0.0776714 0.0236497 0 0 0 -0.137642 0.0103936 -0.0204025 -0.000771526 0.000811682 -0.000366538 -0.137642 0.0103936 -0.0204025 442.549 442.549 1001.05 
159 1 1 0.12546 0.0774021 0.00997818 0 0 0 0.016509 -0.0275713 0.00115293 0.000494593 0.00096044 0.0020826 0.016509 -0.0275713 0.00115293 503.75 503.75 1001.2 
160 1 1 0.169813 0.0771639 0.0344398 0 0 0 -0.187813 0.0230811 0.0904507 8.19886e-05 0.000459793 -0.00201708 -0.187813 0.0230811 0.0904507 314.733 314.733 1000.75 
161 1 1 0.00999221 0.0792225 0.0232689 0 0 0 0.00122738 -0.0186868 0.0123306 -0.00311082 0.00217851 -0.00205857 0.00122738 -0.0186868 0.0123306 287.841 287.841 1000.68 
162 1 1 0.0099418 0.0763844 0.00998384 0 0 0 0.00231568 0.0221849 0.0158273 0.0379575 0.00446921 0.00253975 0.00231568 0.0221849 0.0158273 476.727 476.727 1001.13 
163 1 1 0.0315127 0.0769973 0.0249499 0 0 0 -0.0190436 -0.0497029 0.0133204 -0.00144414 0.00213474 -0.00189332 -0.0190436 -0.0497029 0.0133204 268.324 268.324 1000.64 
164 1 1 0.0813677 0.0745293 0.0408544 0 0 0 -0.0691807 -0.0181419 0.0159184 -0.000954773 -0.000613898 -0.00142894 -0.0691807 -0.0181419 0.0159184 186.124 186.124 1000.44 
165 1 1 0.120819 0.0742707 0.0506396 0 0 0 -0.050897 0.00869626 0.0200389 -0.00249755 -0.000292003 -0.00127447 -0.050897 0.00869626 0.0200389 150.533 150.533 1000.36 
166 1 1 0.107856 0.0777798 0.00998059 0 0 0 -0.0109156 -0.0130067 0.0150595 0.000460685 -0.000504959 0.0021032 -0.0109156 -0.0130067 0.0150595 509.415 509.415 1001.21 
167 1 1 0.15094 0.0785832 0.0308359 0 0 0 -0.143127 -0.0200614 0.0799758 -0.00181629 5.75512e-05 -0.00111393 -0.143127 -0.0200614 0.0799758 350.591 350.591 1000.83 
168 1 1 0.122316 0.064143 0.00997808 0 0 0 0.0147176 -0.00644244 -0.00281319 0.000300421 0.00165088 0.000964525 0.0147176 -0.00644244 -0.00281319 498.473 498.473 1001.18 
169 1 1 0.167722 0.0759353 0.0212527 0 0 0 -0.118488 0.0118938 -0.0299834 -0.000197787 0.000271253 0.00305176 -0.118488 0.0118938 -0.0299834 468.407 468.407 1001.11 
170 1 1 0.151131 0.0774892 0.00997458 0 0 0 0.0205872 -0.0130391 0.00101023 1.80509e-05 0.000410681 8.41362e-05 0.0205872 -0.0130391 0.00101023 499.737 499.737 1001.19 
171 1 1 0.00997136 0.0899992 0.00997231 0 0 0 0.00404374 0.00307126 -0.0203378 0.0118591 0.026464 0.0150862 0.00404374 0.00307126 -0.0203378 375.027 375.027 1000.89 
172 1 1 0.0196168 0.0900041 0.00999062 0 0 0 0.0101305 -0.00278355 -0.00937695 -0.00215547 0.0155614 -0.00348671 0.0101305 -0.00278355 -0.00937695 403.594 403.594 1000.96 
173 1 1 0.0319537 0.0900234 0.00999043 0 0 0 -0.000303416 0.00375076 -0.0279671 -0.00149052 -0.00419135 -0.00389256 -0.000303416 0.00375076 -0.0279671 415.025 415.025 1000.99 
174 1 1 0.0403188 0.0900202 0.00997196 0 0 0 0.0179723 -0.000481257 0.0199475 -0.0016576 0.000381551 0.0143518 0.0179723 -0.000481257 0.0199475 425.285 425.285 1001.01 
175 1 1 0.0664702 0.0900216 0.00999758 0 0 0 0.0303606 -0.00130804 0.0179413 -0.00228946 -0.00129961 -0.00993264 0.0303606 -0.00130804 0.0179413 496.646 496.646 1001.18 