ITEM: TIMESTEP
25000
ITEM: NUMBER OF ATOMS
2655
ITEM: BOX BOUNDS ff ff ff
0 0.5
0 0.1
0 0.5
ITEM: ATOMS id type type x y z ix iy iz vx vy vz fx fy fz vx vy vz p p rho 
1 1 1 0.00999064 0.00995756 0.0100026 0 0 0 0.0133377 -0.0210675 0.00453399 -0.00276511 0.0124005 -0.053235 0.0133377 -0.0210675 0.00453399 786.605 786.605 1001.86 
2 1 1 0.0288585 0.0100234 0.00993549 0 0 0 0.0606372 0.0104287 0.00959246 0.00591341 -0.0401996 0.0267246 0.0606372 0.0104287 0.00959246 605.963 605.963 1001.44 
3 1 1 0.0228097 0.00997195 0.0099704 0 0 0 0.0023218 0.0100171 0.0072941 0.00186076 0.0020138 -0.0106603 0.0023218 0.0100171 0.0072941 699.185 699.185 1001.66 
4 1 1 0.0559049 0.0099937 0.00995091 0 0 0 0.0963958 -0.0101733 0.00630422 -0.0215075 -0.0156308 0.0143205 0.0963958 -0.0101733 0.00630422 635.691 635.691 1001.51 
5 1 1 0.0634831 0.00997027 0.00999433 0 0 0 0.173708 -0.0217678 0.00589915 -0.0457828 -0.00315279 -0.0312359 0.173708 -0.0217678 0.00589915 1050.8 1050.8 1002.48 
6 1 1 0.0799081 0.00997326 0.0100001 0 0 0 0.109254 -0.0220994 -0.0272762 0.0327106 -0.00245475 -0.0749368 0.109254 -0.0220994 -0.0272762 1075.76 1075.76 1002.54 
7 1 1 0.0985756 0.00997615 0.00998094 0 0 0 0.249242 -0.0071535 0.00538339 -0.00825087 -0.00332135 -0.0112521 0.249242 -0.0071535 0.00538339 786.604 786.604 1001.86 
8 1 1 0.11046 0.00994692 0.00996834 0 0 0 0.198215 -0.00892411 0.0121337 -0.00603403 0.0205189 -0.00796285 0.198215 -0.00892411 0.0121337 964.745 964.745 1002.28 
9 1 1 0.123226 0.00996832 0.00992313 0 0 0 0.125671 -0.0228321 -0.0124507 0.00897067 0.0014481 0.0413769 0.125671 -0.0228321 -0.0124507 792.951 792.951 1001.88 
10 1 1 0.142449 0.00996401 0.00998263 0 0 0 0.236818 -0.0139214 0.0102597 0.000369468 0.0101677 -0.00535344 0.236818 -0.0139214 0.0102597 609.203 609.203 1001.44 
11 1 1 0.00999425 0.0184535 0.00997304 0 0 0 0.00998282 0.00178353 0.0239555 -0.0116475 -0.00246126 -0.00515853 0.00998282 0.00178353 0.0239555 834.671 834.671 1001.98 
12 1 1 0.0219933 0.023393 0.00996082 0 0 0 -0.00382224 -0.0334886 0.0152241 0.0017916 0.00064132 -0.00601353 -0.00382224 -0.0334886 0.0152241 747.832 747.832 1001.77 
13 1 1 0.0397815 0.0203454 0.00996906 0 0 0 -0.0773371 -0.0136861 0.0166586 0.000999973 -0.00224878 -0.00927879 -0.0773371 -0.0136861 0.0166586 440.68 440.68 1001.05 
14 1 1 0.0584946 0.0230838 0.00995714 0 0 0 0.105173 -0.0560017 0.00303299 -0.0170287 0.00167788 -0.00355539 0.105173 -0.0560017 0.00303299 739.93 739.93 1001.75 
15 1 1 0.069192 0.0202521 0.00994751 0 0 0 0.124564 0.0386642 -0.0134781 -0.00807338 0.0316275 -0.00315031 0.124564 0.0386642 -0.0134781 955.009 955.009 1002.26 
16 1 1 0.0821259 0.0205623 0.00996199 0 0 0 0.152766 -0.036027 -0.0212161 0.00938741 0.00571868 -0.00662082 0.152766 -0.036027 -0.0212161 820.723 820.723 1001.94 
17 1 1 0.0925836 0.0212612 0.00995654 0 0 0 0.196169 0.0464463 -0.0186694 0.00278436 -0.00363983 -0.00135698 0.196169 0.0464463 -0.0186694 726.159 726.159 1001.72 
18 1 1 0.108269 0.0198749 0.0099547 0 0 0 0.119159 -0.0260536 -0.00874456 -0.00870704 0.00771445 0.0060612 0.119159 -0.0260536 -0.00874456 761 761 1001.8 
19 1 1 0.111562 0.0245847 0.00995849 0 0 0 0.165207 0.019305 0.00637565 -0.00178666 0.00185466 0.00610279 0.165207 0.019305 0.00637565 729.021 729.021 1001.73 
20 1 1 0.139774 0.0246904 0.00997947 0 0 0 0.202903 0.0179805 0.0011005 -0.00441379 0.00184059 -0.014024 0.202903 0.0179805 0.0011005 590.717 590.717 1001.4 
21 1 1 0.0100018 0.0225918 0.00996498 0 0 0 0.0268498 0.0242523 0.0244803 -0.0432326 0.00333533 0.00137696 0.0268498 0.0242523 0.0244803 871.507 871.507 1002.06 
22 1 1 0.0226122 0.0369351 0.00993883 0 0 0 -0.00977501 0.0458062 0.0112678 0.00894524 -0.00385684 0.0129113 -0.00977501 0.0458062 0.0112678 721.628 721.628 1001.71 
23 1 1 0.0461649 0.0336288 0.00995375 0 0 0 0.0277681 0.00274486 0.00857454 -0.00468708 0.00871417 0.000237111 0.0277681 0.00274486 0.00857454 520.321 520.321 1001.23 
24 1 1 0.0641907 0.0308223 0.00994556 0 0 0 0.0849805 0.0237825 0.00652988 -0.0114497 0.00264118 0.00521541 0.0849805 0.0237825 0.00652988 767.521 767.521 1001.82 
25 1 1 0.0744383 0.0287284 0.00994729 0 0 0 0.220492 0.00345688 -0.0136648 -0.00522269 0.00394293 0.00516998 0.220492 0.00345688 -0.0136648 713.822 713.822 1001.69 
26 1 1 0.0797014 0.0271954 0.00994592 0 0 0 0.196317 -0.041902 -0.0149388 -0.000266923 -0.00381663 0.00986332 0.196317 -0.041902 -0.0149388 781.246 781.246 1001.85 
27 1 1 0.100297 0.0306289 0.00994535 0 0 0 0.266428 0.0399346 0.00221554 0.00118656 -0.00221065 0.0152117 0.266428 0.0399346 0.00221554 718.333 718.333 1001.7 
28 1 1 0.0983421 0.0241004 0.0099575 0 0 0 0.125817 -0.141035 -0.00379469 0.00471617 -0.00340596 0.00214853 0.125817 -0.141035 -0.00379469 717.088 717.088 1001.7 
29 1 1 0.119444 0.0298538 0.00997217 0 0 0 0.308437 -0.0564769 0.0118648 0.0046463 0.00331396 -0.00778004 0.308437 -0.0564769 0.0118648 689.893 689.893 1001.63 
30 1 1 0.133794 0.0315761 0.00996621 0 0 0 0.103988 0.00405162 -0.00379877 0.00811586 0.00228052 -0.0018483 0.103988 0.00405162 -0.00379877 502.075 502.075 1001.19 
31 1 1 0.00997896 0.0335829 0.00994035 0 0 0 -0.0169239 0.0191421 -0.006957 -0.00158709 0.00572039 0.0225251 -0.0169239 0.0191421 -0.006957 763.839 763.839 1001.81 
32 1 1 0.0221909 0.0443057 0.00994388 0 0 0 -0.0629122 0.0323418 0.00653382 0.0148345 0.00198446 0.00711177 -0.0629122 0.0323418 0.00653382 825.208 825.208 1001.95 
33 1 1 0.0445703 0.0418531 0.00998211 0 0 0 0.0765989 -0.0828304 -0.0110889 0.00316027 0.00921874 -0.0179724 0.0765989 -0.0828304 -0.0110889 279.589 279.589 1000.66 
34 1 1 0.0538672 0.0425461 0.00998062 0 0 0 0.143864 -0.0346428 0.000511946 -0.0107937 0.0105481 -0.0164356 0.143864 -0.0346428 0.000511946 241.954 241.954 1000.58 
35 1 1 0.0632402 0.0406325 0.0099313 0 0 0 0.0875984 -0.0500712 0.00873638 -0.0176383 0.00304348 0.0221377 0.0875984 -0.0500712 0.00873638 623.94 623.94 1001.48 
36 1 1 0.0800777 0.0389624 0.00993566 0 0 0 0.107379 -0.03872 -0.0143893 -0.00613593 0.00274968 0.0197495 0.107379 -0.03872 -0.0143893 717.491 717.491 1001.7 
37 1 1 0.101998 0.0406361 0.00993932 0 0 0 0.188208 -0.0324162 0.00828486 0.00463177 -0.00697595 0.0178971 0.188208 -0.0324162 0.00828486 796.388 796.388 1001.89 
38 1 1 0.106982 0.0351707 0.00995982 0 0 0 0.298344 -0.0893272 0.00960079 0.000328928 0.00458719 0.000898162 0.298344 -0.0893272 0.00960079 744.911 744.911 1001.76 
39 1 1 0.11764 0.0431914 0.0099578 0 0 0 0.187348 0.0926033 0.0181366 -0.00227606 0.00219465 0.000409987 0.187348 0.0926033 0.0181366 606.544 606.544 1001.44 
40 1 1 0.132796 0.0435384 0.00997113 0 0 0 0.161183 -0.0514202 0.00978448 0.00468272 -0.00428086 -0.00896344 0.161183 -0.0514202 0.00978448 601.33 601.33 1001.43 
41 1 1 0.00997381 0.05 0.00994507 0 0 0 -9.46992e-05 9.18735e-13 -0.00865084 0.000999659 7.37933e-13 0.0177425 -9.46992e-05 9.18735e-13 -0.00865084 803.056 803.056 1001.9 
42 1 1 0.0329068 0.05 0.00997296 0 0 0 0.0773925 2.52744e-12 0.000990839 0.00922972 2.75548e-13 -0.0135528 0.0773925 2.52744e-12 0.000990839 525.991 525.991 1001.25 
43 1 1 0.0372549 0.05 0.00997232 0 0 0 0.108063 2.20526e-12 -0.00851775 0.0131518 1.05205e-13 -0.00784905 0.108063 2.20526e-12 -0.00851775 395.045 395.045 1000.94 
44 1 1 0.0577862 0.05 0.00996123 0 0 0 0.170497 4.99896e-12 0.00223677 -0.021291 -8.68346e-13 0.00278466 0.170497 4.99896e-12 0.00223677 258.552 258.552 1000.61 
45 1 1 0.0754162 0.05 0.00988538 0 0 0 0.298637 6.37872e-12 0.0313343 -0.00622705 -2.30031e-12 0.0637418 0.298637 6.37872e-12 0.0313343 796.829 796.829 1001.89 
46 1 1 0.0804474 0.05 0.00993027 0 0 0 0.123963 6.65016e-12 -0.0126635 -0.000670856 -2.94493e-12 0.0202049 0.123963 6.65016e-12 -0.0126635 767.234 767.234 1001.82 
47 1 1 0.0893802 0.05 0.00993482 0 0 0 0.174277 4.81984e-12 0.00147349 -0.0012532 -3.36945e-12 0.0104734 0.174277 4.81984e-12 0.00147349 946.433 946.433 1002.24 
48 1 1 0.100257 0.05 0.00993412 0 0 0 0.114905 4.8059e-12 -0.000248602 0.00422804 -1.67835e-12 0.0158032 0.114905 4.8059e-12 -0.000248602 924.114 924.114 1002.19 
49 1 1 0.105942 0.05 0.00994481 0 0 0 0.138524 5.68629e-12 0.00384489 0.0208132 -4.56883e-13 0.0137418 0.138524 5.68629e-12 0.00384489 750.894 750.894 1001.78 
50 1 1 0.137413 0.05 0.00997102 0 0 0 0.262096 9.04729e-12 0.0154815 0.00755366 -1.3306e-12 -0.00741978 0.262096 9.04729e-12 0.0154815 619.851 619.851 1001.47 
51 1 1 0.00997896 0.0664171 0.00994035 0 0 0 -0.0169239 -0.0191421 -0.006957 -0.00158709 -0.00572039 0.0225251 -0.0169239 -0.0191421 -0.006957 763.839 763.839 1001.81 
52 1 1 0.0221909 0.0556943 0.00994388 0 0 0 -0.0629122 -0.0323418 0.00653382 0.0148345 -0.00198446 0.00711177 -0.0629122 -0.0323418 0.00653382 825.208 825.208 1001.95 
53 1 1 0.0445703 0.0581469 0.00998211 0 0 0 0.0765989 0.0828304 -0.0110889 0.00316027 -0.00921874 -0.0179724 0.0765989 0.0828304 -0.0110889 279.589 279.589 1000.66 
54 1 1 0.0538672 0.0574539 0.00998062 0 0 0 0.143864 0.0346428 0.000511946 -0.0107937 -0.0105481 -0.0164356 0.143864 0.0346428 0.000511946 241.954 241.954 1000.58 
55 1 1 0.0632402 0.0593675 0.0099313 0 0 0 0.0875984 0.0500712 0.00873638 -0.0176383 -0.00304348 0.0221377 0.0875984 0.0500712 0.00873638 623.94 623.94 1001.48 
56 1 1 0.0800777 0.0610376 0.00993566 0 0 0 0.107379 0.03872 -0.0143893 -0.00613593 -0.00274968 0.0197495 0.107379 0.03872 -0.0143893 717.491 717.491 1001.7 
57 1 1 0.101998 0.0593639 0.00993932 0 0 0 0.188208 0.0324162 0.00828486 0.00463177 0.00697595 0.0178971 0.188208 0.0324162 0.00828486 796.388 796.388 1001.89 
58 1 1 0.106982 0.0648293 0.00995982 0 0 0 0.298344 0.0893272 0.00960079 0.000328928 -0.00458719 0.000898162 0.298344 0.0893272 0.00960079 744.911 744.911 1001.76 
59 1 1 0.11764 0.0568086 0.0099578 0 0 0 0.187348 -0.0926033 0.0181366 -0.00227606 -0.00219465 0.000409987 0.187348 -0.0926033 0.0181366 606.544 606.544 1001.44 
60 1 1 0.132796 0.0564616 0.00997113 0 0 0 0.161183 0.0514202 0.00978448 0.00468272 0.00428086 -0.00896344 0.161183 0.0514202 0.00978448 601.33 601.33 1001.43 
61 1 1 0.0100018 0.0774082 0.00996498 0 0 0 0.0268498 -0.0242523 0.0244803 -0.0432326 -0.00333533 0.00137696 0.0268498 -0.0242523 0.0244803 871.507 871.507 1002.06 
62 1 1 0.0226122 0.0630649 0.00993883 0 0 0 -0.00977501 -0.0458062 0.0112678 0.00894524 0.00385684 0.0129113 -0.00977501 -0.0458062 0.0112678 721.628 721.628 1001.71 
63 1 1 0.0461649 0.0663712 0.00995375 0 0 0 0.0277681 -0.00274486 0.00857454 -0.00468708 -0.00871417 0.000237111 0.0277681 -0.00274486 0.00857454 520.321 520.321 1001.23 
64 1 1 0.0641907 0.0691777 0.00994556 0 0 0 0.0849805 -0.0237825 0.00652988 -0.0114497 -0.00264118 0.00521541 0.0849805 -0.0237825 0.00652988 767.521 767.521 1001.82 
65 1 1 0.0744383 0.0712716 0.00994729 0 0 0 0.220492 -0.00345688 -0.0136648 -0.00522269 -0.00394293 0.00516998 0.220492 -0.00345688 -0.0136648 713.822 713.822 1001.69 
66 1 1 0.0797014 0.0728046 0.00994592 0 0 0 0.196317 0.041902 -0.0149388 -0.000266923 0.00381663 0.00986332 0.196317 0.041902 -0.0149388 781.246 781.246 1001.85 
67 1 1 0.100297 0.0693711 0.00994535 0 0 0 0.266428 -0.0399346 0.00221554 0.00118656 0.00221065 0.0152117 0.266428 -0.0399346 0.00221554 718.333 718.333 1001.7 
68 1 1 0.0983421 0.0758996 0.0099575 0 0 0 0.125817 0.141035 -0.00379469 0.00471617 0.00340596 0.00214853 0.125817 0.141035 -0.00379469 717.088 717.088 1001.7 
69 1 1 0.119444 0.0701462 0.00997217 0 0 0 0.308437 0.0564769 0.0118648 0.0046463 -0.00331396 -0.00778004 0.308437 0.0564769 0.0118648 689.893 689.893 1001.63 
70 1 1 0.133794 0.0684239 0.00996621 0 0 0 0.103988 -0.00405162 -0.00379877 0.00811586 -0.00228052 -0.0018483 0.103988 -0.00405162 -0.00379877 502.075 502.075 1001.19 
71 1 1 0.00999425 0.0815465 0.00997304 0 0 0 0.00998282 -0.00178353 0.0239555 -0.0116475 0.00246126 -0.00515853 0.00998282 -0.00178353 0.0239555 834.671 834.671 1001.98 
72 1 1 0.0219933 0.076607 0.00996082 0 0 0 -0.00382224 0.0334886 0.0152241 0.0017916 -0.00064132 -0.00601353 -0.00382224 0.0334886 0.0152241 747.832 747.832 1001.77 
73 1 1 0.0397815 0.0796546 0.00996906 0 0 0 -0.0773371 0.0136861 0.0166586 0.000999973 0.00224878 -0.00927879 -0.0773371 0.0136861 0.0166586 440.68 440.68 1001.05 
74 1 1 0.0584946 0.0769162 0.00995714 0 0 0 0.105173 0.0560017 0.00303299 -0.0170287 -0.00167788 -0.00355539 0.105173 0.0560017 0.00303299 739.93 739.93 1001.75 
75 1 1 0.069192 0.0797479 0.00994751 0 0 0 0.124564 -0.0386642 -0.0134781 -0.00807338 -0.0316275 -0.00315031 0.124564 -0.0386642 -0.0134781 955.009 955.009 1002.26 
76 1 1 0.0821259 0.0794377 0.00996199 0 0 0 0.152766 0.036027 -0.0212161 0.00938741 -0.00571868 -0.00662082 0.152766 0.036027 -0.0212161 820.723 820.723 1001.94 
77 1 1 0.0925836 0.0787388 0.00995654 0 0 0 0.196169 -0.0464463 -0.0186694 0.00278436 0.00363983 -0.00135698 0.196169 -0.0464463 -0.0186694 726.159 726.159 1001.72 
78 1 1 0.108269 0.0801251 0.0099547 0 0 0 0.119159 0.0260536 -0.00874456 -0.00870704 -0.00771445 0.0060612 0.119159 0.0260536 -0.00874456 761 761 1001.8 
79 1 1 0.111562 0.0754153 0.00995849 0 0 0 0.165207 -0.019305 0.00637565 -0.00178666 -0.00185466 0.00610279 0.165207 -0.019305 0.00637565 729.021 729.021 1001.73 
80 1 1 0.139774 0.0753096 0.00997947 0 0 0 0.202903 -0.0179805 0.0011005 -0.00441379 -0.00184059 -0.014024 0.202903 -0.0179805 0.0011005 590.717 590.717 1001.4 
81 1 1 0.00999064 0.0900424 0.0100026 0 0 0 0.0133377 0.0210675 0.00453399 -0.00276511 -0.0124005 -0.053235 0.0133377 0.0210675 0.00453399 786.605 786.605 1001.86 
82 1 1 0.0288585 0.0899766 0.00993549 0 0 0 0.0606372 -0.0104287 0.00959246 0.00591341 0.0401996 0.0267246 0.0606372 -0.0104287 0.00959246 605.963 605.963 1001.44 
83 1 1 0.0228097 0.090028 0.0099704 0 0 0 0.0023218 -0.0100171 0.0072941 0.00186076 -0.0020138 -0.0106603 0.0023218 -0.0100171 0.0072941 699.185 699.185 1001.66 
84 1 1 0.0559049 0.0900063 0.00995091 0 0 0 0.0963958 0.0101733 0.00630422 -0.0215075 0.0156308 0.0143205 0.0963958 0.0101733 0.00630422 635.691 635.691 1001.51 
85 1 1 0.0634831 0.0900297 0.00999433 0 0 0 0.173708 0.0217678 0.00589915 -0.0457828 0.00315279 -0.0312359 0.173708 0.0217678 0.00589915 1050.8 1050.8 1002.48 
86 1 1 0.0799081 0.0900267 0.0100001 0 0 0 0.109254 0.0220994 -0.0272762 0.0327106 0.00245475 -0.0749368 0.109254 0.0220994 -0.0272762 1075.76 1075.76 1002.54 
87 1 1 0.0985756 0.0900238 0.00998094 0 0 0 0.249242 0.0071535 0.00538339 -0.00825087 0.00332135 -0.0112521 0.249242 0.0071535 0.00538339 786.604 786.604 1001.86 
88 1 1 0.11046 0.0900531 0.00996834 0 0 0 0.198215 0.00892411 0.0121337 -0.00603403 -0.0205189 -0.00796285 0.198215 0.00892411 0.0121337 964.745 964.745 1002.28 
89 1 1 0.123226 0.0900317 0.00992313 0 0 0 0.125671 0.0228321 -0.0124507 0.00897067 -0.0014481 0.0413769 0.125671 0.0228321 -0.0124507 792.951 792.951 1001.88 
90 1 1 0.142449 0.090036 0.00998263 0 0 0 0.236818 0.0139214 0.0102597 0.000369468 -0.0101677 -0.00535344 0.236818 0.0139214 0.0102597 609.203 609.203 1001.44 
91 1 1 0.00999701 0.00994883 0.00994519 0 0 0 -0.0346726 -0.00919614 0.0350135 -0.00888303 0.0213842 0.0242917 -0.0346726 -0.00919614 0.0350135 787.45 787.45 1001.86 
92 1 1 0.0212773 0.00997753 0.017726 0 0 0 0.0162134 -0.0134731 -0.063386 0.00418659 -0.00808189 -0.00400302 0.0162134 -0.0134731 -0.063386 709.092 709.092 1001.68 
93 1 1 0.0358156 0.00997245 0.00993954 0 0 0 0.0783607 -0.00828893 0.0362321 0.00368494 0.00766507 0.0261683 0.0783607 -0.00828893 0.0362321 537.481 537.481 1001.27 
94 1 1 0.0497859 0.00998694 0.00996962 0 0 0 0.0806121 0.00799237 -0.00165466 -0.00690667 -0.00360399 -0.0026775 0.0806121 0.00799237 -0.00165466 475.248 475.248 1001.13 
95 1 1 0.0693848 0.00999715 0.00994435 0 0 0 0.021676 -0.0129841 -0.028564 -0.0230305 -0.033397 0.018694 0.021676 -0.0129841 -0.028564 1220.99 1220.99 1002.88 
96 1 1 0.0921974 0.00998385 0.00995972 0 0 0 0.231173 -0.019939 -0.00847804 0.00354831 -0.0122023 0.00427107 0.231173 -0.019939 -0.00847804 660.479 660.479 1001.57 
97 1 1 0.102656 0.00998715 0.00994975 0 0 0 0.237346 0.000739888 -0.0327306 -0.00434 -0.015806 0.0186556 0.237346 0.000739888 -0.0327306 846.876 846.876 1002 
98 1 1 0.116974 0.00992625 0.00995033 0 0 0 0.220298 -0.00171835 0.0188285 0.0026072 0.0416594 0.00935219 0.220298 -0.00171835 0.0188285 953.101 953.101 1002.25 
99 1 1 0.13141 0.00995317 0.00999839 0 0 0 0.204686 0.0108179 -0.0234558 0.00804701 0.0206239 -0.0283378 0.204686 0.0108179 -0.0234558 704.759 704.759 1001.67 
100 1 1 0.134089 0.00999071 0.00998877 0 0 0 0.185318 0.0230214 -0.0465023 0.0150755 -0.0162028 -0.0157927 0.185318 0.0230214 -0.0465023 655.22 655.22 1001.55 
101 1 1 0.00998579 0.0210514 0.0241426 0 0 0 0.00816547 0.0108767 0.00338501 -0.012162 -0.0023668 -0.00259995 0.00816547 0.0108767 0.00338501 713.148 713.148 1001.69 
102 1 1 0.0254701 0.0222187 0.00990836 0 0 0 0.0256905 0.0315176 -0.00659588 0.00867743 -0.00298338 0.0473427 0.0256905 0.0315176 -0.00659588 642.507 642.507 1001.52 
103 1 1 0.0406552 0.0219101 0.022602 0 0 0 0.169874 -0.0542645 -0.0157169 0.00106551 -0.000791773 -0.00715351 0.169874 -0.0542645 -0.0157169 558.227 558.227 1001.32 
104 1 1 0.0585905 0.0238864 0.0212242 0 0 0 0.143734 -0.0179303 -0.0379122 -0.0123338 0.00272 -0.00242366 0.143734 -0.0179303 -0.0379122 582.32 582.32 1001.38 
105 1 1 0.0842795 0.0203308 0.0237037 0 0 0 0.243248 -0.0743325 0.0709302 0.00746436 0.00454162 0.00451673 0.243248 -0.0743325 0.0709302 575.733 575.733 1001.37 
106 1 1 0.104804 0.021612 0.0213422 0 0 0 0.234018 -0.0122838 0.0596163 -0.00595849 0.00470861 0.000988952 0.234018 -0.0122838 0.0596163 638.337 638.337 1001.51 
107 1 1 0.121472 0.0216171 0.0232918 0 0 0 0.284289 0.0241752 0.0334908 0.00237496 0.00256419 0.00251111 0.284289 0.0241752 0.0334908 616.044 616.044 1001.46 
108 1 1 0.119182 0.0199328 0.00997192 0 0 0 0.18504 -0.00939229 0.0213308 0.00641522 0.00945108 -0.00914085 0.18504 -0.00939229 0.0213308 839.004 839.004 1001.99 
109 1 1 0.141141 0.0204812 0.0225015 0 0 0 0.304017 0.0215877 -0.00977958 -0.00372664 -0.00176971 0.000834312 0.304017 0.0215877 -0.00977958 494.274 494.274 1001.17 
110 1 1 0.154368 0.024623 0.00992764 0 0 0 0.167993 0.0392449 0.183635 -0.00255351 -0.00454734 0.0321223 0.167993 0.0392449 0.183635 1185.08 1185.08 1002.8 
111 1 1 0.00996528 0.0307469 0.00997294 0 0 0 0.0102598 -0.015579 -0.0235786 0.0143241 -0.0031426 -0.0101511 0.0102598 -0.015579 -0.0235786 779.192 779.192 1001.84 
112 1 1 0.0289075 0.018349 0.0181658 0 0 0 0.0096753 -0.0215458 0.00653354 0.00505608 -0.00179177 -0.000834191 0.0096753 -0.0215458 0.00653354 588.123 588.123 1001.39 
113 1 1 0.0375229 0.0265246 0.00996286 0 0 0 0.144931 0.0984386 -0.0101017 0.00108258 -0.00110536 -0.00731479 0.144931 0.0984386 -0.0101017 513.25 513.25 1001.22 
114 1 1 0.047398 0.0231089 0.0099404 0 0 0 0.0872486 -0.0959573 0.0219114 -0.00141278 -0.00641461 0.0210517 0.0872486 -0.0959573 0.0219114 481.62 481.62 1001.14 
115 1 1 0.0717 0.0216615 0.0239541 0 0 0 0.119276 -0.0895103 -0.0316521 0.00343312 0.0130816 0.00648199 0.119276 -0.0895103 -0.0316521 797.232 797.232 1001.89 
116 1 1 0.0874529 0.0320325 0.0100259 0 0 0 0.126668 0.0553509 0.120113 0.0027541 -0.00587576 -0.0814681 0.126668 0.0553509 0.120113 1103.07 1103.07 1002.61 
117 1 1 0.117608 0.0291518 0.0221871 0 0 0 0.293185 -0.0175361 0.0048633 0.00203002 0.00287059 0.00225097 0.293185 -0.0175361 0.0048633 523.819 523.819 1001.24 
118 1 1 0.131545 0.0253156 0.017722 0 0 0 0.278718 -0.106169 0.0417024 0.00566826 0.00348988 0.00335646 0.278718 -0.106169 0.0417024 498.843 498.843 1001.18 
119 1 1 0.128765 0.0201147 0.00995914 0 0 0 0.174443 -0.0812615 -0.0061073 0.00923362 0.00653541 0.00172076 0.174443 -0.0812615 -0.0061073 739.725 739.725 1001.75 
120 1 1 0.151138 0.0248729 0.0219647 0 0 0 0.30867 -0.0474176 -0.0186262 -0.0052565 0.0063481 0.00832976 0.30867 -0.0474176 -0.0186262 715.211 715.211 1001.69 
121 1 1 0.009974 0.0414121 0.00995969 0 0 0 -0.0191834 -0.0562359 0.0361514 -0.000848789 -0.00636341 0.0002623 -0.0191834 -0.0562359 0.0361514 832.406 832.406 1001.97 
122 1 1 0.0198105 0.0368966 0.0171179 0 0 0 0.0699765 -0.0182239 -0.0292294 0.00880068 -0.00268614 0.00200864 0.0699765 -0.0182239 -0.0292294 713.453 713.453 1001.69 
123 1 1 0.0292421 0.0326941 0.00997391 0 0 0 0.00587662 -0.0822586 0.0197077 0.00874214 0.000429178 -0.0204538 0.00587662 -0.0822586 0.0197077 598.993 598.993 1001.42 
124 1 1 0.0559925 0.0316276 0.0099586 0 0 0 0.175579 -0.0439541 -0.0118161 -0.00935219 0.00503756 -0.00284971 0.175579 -0.0439541 -0.0118161 591.435 591.435 1001.4 
125 1 1 0.0717203 0.0393567 0.00991021 0 0 0 0.113501 0.016323 0.0447721 -0.00250532 0.000246834 0.0400803 0.113501 0.016323 0.0447721 760.702 760.702 1001.8 
126 1 1 0.0902618 0.0416178 0.00992357 0 0 0 0.218184 0.0443841 -0.0324111 0.00241363 0.000678159 0.0271376 0.218184 0.0443841 -0.0324111 822.579 822.579 1001.95 
127 1 1 0.113343 0.0345574 0.0100432 0 0 0 0.148964 -0.0146208 0.00913899 0.00456646 0.00708455 -0.0548487 0.148964 -0.0146208 0.00913899 658.056 658.056 1001.56 
128 1 1 0.126316 0.0386814 0.00995873 0 0 0 0.180293 -0.0258524 0.0265916 0.00347532 -8.52582e-05 0.00469162 0.180293 -0.0258524 0.0265916 658.39 658.39 1001.56 
129 1 1 0.126436 0.0288622 0.0099686 0 0 0 0.159597 -0.0726211 -0.00393981 0.00688438 0.00243905 -0.00503565 0.159597 -0.0726211 -0.00393981 636.443 636.443 1001.51 
130 1 1 0.141457 0.034399 0.0100831 0 0 0 0.190049 -0.02727 -0.01852 0.000672131 0.00676816 -0.0467779 0.190049 -0.02727 -0.01852 441.87 441.87 1001.05 
131 1 1 0.00995869 0.05 0.00994686 0 0 0 -0.00670441 -6.81245e-13 0.0037733 0.0161876 5.77028e-13 0.0159202 -0.00670441 -6.81245e-13 0.0037733 811.04 811.04 1001.92 
132 1 1 0.0233575 0.05 0.0156658 0 0 0 -0.034279 1.35178e-12 -0.152505 0.0122976 6.3873e-13 -0.0051973 -0.034279 1.35178e-12 -0.152505 669.026 669.026 1001.59 
133 1 1 0.0351171 0.05 0.0222491 0 0 0 0.0231705 1.89989e-12 -0.0150986 0.00682387 8.98052e-14 -0.00548407 0.0231705 1.89989e-12 -0.0150986 411.299 411.299 1000.98 
134 1 1 0.0663928 0.05 0.0100982 0 0 0 0.155052 7.29296e-12 0.0983998 -0.0202171 -1.33718e-12 -0.0789935 0.155052 7.29296e-12 0.0983998 843.27 843.27 1002 
135 1 1 0.0815532 0.05 0.0184199 0 0 0 0.212875 5.07637e-12 0.00217354 -0.000205781 -2.59373e-12 0.00645441 0.212875 5.07637e-12 0.00217354 734.175 734.175 1001.74 
136 1 1 0.0993006 0.05 0.0163157 0 0 0 0.23059 3.45711e-12 -0.0287498 0.0107205 -1.87892e-12 0.00700587 0.23059 3.45711e-12 -0.0287498 812.975 812.975 1001.92 
137 1 1 0.117869 0.05 0.02205 0 0 0 0.306677 3.78594e-12 0.0483051 0.00323573 -2.34446e-13 0.00349183 0.306677 3.78594e-12 0.0483051 455.662 455.662 1001.08 
138 1 1 0.112896 0.05 0.010033 0 0 0 0.0348299 6.32512e-12 -0.123599 0.00583575 5.7394e-13 -0.0455251 0.0348299 6.32512e-12 -0.123599 315.559 315.559 1000.75 
139 1 1 0.125365 0.05 0.00995125 0 0 0 0.198657 3.35077e-12 0.0169509 0.00151847 -9.45962e-13 0.00887953 0.198657 3.35077e-12 0.0169509 674.461 674.461 1001.6 
140 1 1 0.153599 0.05 0.0207589 0 0 0 0.295415 1.66202e-11 -0.0339584 0.00159729 -5.22965e-12 -0.000720449 0.295415 1.66202e-11 -0.0339584 444.394 444.394 1001.05 
141 1 1 0.009974 0.0585879 0.00995969 0 0 0 -0.0191834 0.0562359 0.0361514 -0.000848789 0.00636341 0.0002623 -0.0191834 0.0562359 0.0361514 832.406 832.406 1001.97 
142 1 1 0.0198105 0.0631034 0.0171179 0 0 0 0.0699765 0.0182239 -0.0292294 0.00880068 0.00268614 0.00200864 0.0699765 0.0182239 -0.0292294 713.453 713.453 1001.69 
143 1 1 0.0292421 0.0673059 0.00997391 0 0 0 0.00587662 0.0822586 0.0197077 0.00874214 -0.000429178 -0.0204538 0.00587662 0.0822586 0.0197077 598.993 598.993 1001.42 
144 1 1 0.0559925 0.0683724 0.0099586 0 0 0 0.175579 0.0439541 -0.0118161 -0.00935219 -0.00503756 -0.00284971 0.175579 0.0439541 -0.0118161 591.435 591.435 1001.4 
145 1 1 0.0717203 0.0606433 0.00991021 0 0 0 0.113501 -0.016323 0.0447721 -0.00250532 -0.000246834 0.0400803 0.113501 -0.016323 0.0447721 760.702 760.702 1001.8 
146 1 1 0.0902618 0.0583822 0.00992357 0 0 0 0.218184 -0.0443841 -0.0324111 0.00241363 -0.000678159 0.0271376 0.218184 -0.0443841 -0.0324111 822.579 822.579 1001.95 
147 1 1 0.113343 0.0654426 0.0100432 0 0 0 0.148964 0.0146208 0.00913899 0.00456646 -0.00708455 -0.0548487 0.148964 0.0146208 0.00913899 658.056 658.056 1001.56 
148 1 1 0.126316 0.0613186 0.00995873 0 0 0 0.180293 0.0258524 0.0265916 0.00347532 8.52582e-05 0.00469162 0.180293 0.0258524 0.0265916 658.39 658.39 1001.56 
149 1 1 0.126436 0.0711378 0.0099686 0 0 0 0.159597 0.0726211 -0.00393981 0.00688438 -0.00243905 -0.00503565 0.159597 0.0726211 -0.00393981 636.443 636.443 1001.51 
150 1 1 0.141457 0.065601 0.0100831 0 0 0 0.190049 0.02727 -0.01852 0.000672131 -0.00676816 -0.0467779 0.190049 0.02727 -0.01852 441.87 441.87 1001.05 
151 1 1 0.00996528 0.0692531 0.00997294 0 0 0 0.0102598 0.015579 -0.0235786 0.0143241 0.0031426 -0.0101511 0.0102598 0.015579 -0.0235786 779.192 779.192 1001.84 
152 1 1 0.0289075 0.081651 0.0181658 0 0 0 0.0096753 0.0215458 0.00653354 0.00505608 0.00179177 -0.000834191 0.0096753 0.0215458 0.00653354 588.123 588.123 1001.39 
153 1 1 0.0375229 0.0734754 0.00996286 0 0 0 0.144931 -0.0984386 -0.0101017 0.00108258 0.00110536 -0.00731479 0.144931 -0.0984386 -0.0101017 513.25 513.25 1001.22 
154 1 1 0.047398 0.0768911 0.0099404 0 0 0 0.0872486 0.0959573 0.0219114 -0.00141278 0.00641461 0.0210517 0.0872486 0.0959573 0.0219114 481.62 481.62 1001.14 
155 1 1 0.0717 0.0783385 0.0239541 0 0 0 0.119276 0.0895103 -0.0316521 0.00343312 -0.0130816 0.00648199 0.119276 0.0895103 -0.0316521 797.232 797.232 1001.89 
156 1 1 0.0874529 0.0679675 0.0100259 0 0 0 0.126668 -0.0553509 0.120113 0.0027541 0.00587576 -0.0814681 0.126668 -0.0553509 0.120113 1103.07 1103.07 1002.61 
157 1 1 0.117608 0.0708482 0.0221871 0 0 0 0.293185 0.0175361 0.0048633 0.00203002 -0.00287059 0.00225097 0.293185 0.0175361 0.0048633 523.819 523.819 1001.24 
158 1 1 0.131545 0.0746844 0.017722 0 0 0 0.278718 0.106169 0.0417024 0.00566826 -0.00348988 0.00335646 0.278718 0.106169 0.0417024 498.843 498.843 1001.18 
159 1 1 0.128765 0.0798853 0.00995914 0 0 0 0.174443 0.0812615 -0.0061073 0.00923362 -0.00653541 0.00172076 0.174443 0.0812615 -0.0061073 739.725 739.725 1001.75 
160 1 1 0.151138 0.0751271 0.0219647 0 0 0 0.30867 0.0474176 -0.0186262 -0.0052565 -0.0063481 0.00832976 0.30867 0.0474176 -0.0186262 715.211 715.211 1001.69 
161 1 1 0.00998579 0.0789486 0.0241426 0 0 0 0.00816547 -0.0108767 0.00338501 -0.012162 0.0023668 -0.00259995 0.00816547 -0.0108767 0.00338501 713.148 713.148 1001.69 
162 1 1 0.0254701 0.0777813 0.00990836 0 0 0 0.0256905 -0.0315176 -0.00659588 0.00867743 0.00298338 0.0473427 0.0256905 -0.0315176 -0.00659588 642.507 642.507 1001.52 
163 1 1 0.0406552 0.0780899 0.022602 0 0 0 0.169874 0.0542645 -0.0157169 0.00106551 0.000791773 -0.00715351 0.169874 0.0542645 -0.0157169 558.227 558.227 1001.32 
164 1 1 0.0585905 0.0761136 0.0212242 0 0 0 0.143734 0.0179303 -0.0379122 -0.0123338 -0.00272 -0.00242366 0.143734 0.0179303 -0.0379122 582.32 582.32 1001.38 
165 1 1 0.0842795 0.0796692 0.0237037 0 0 0 0.243248 0.0743325 0.0709302 0.00746436 -0.00454162 0.00451673 0.243248 0.0743325 0.0709302 575.733 575.733 1001.37 
166 1 1 0.104804 0.078388 0.0213422 0 0 0 0.234018 0.0122838 0.0596163 -0.00595849 -0.00470861 0.000988952 0.234018 0.0122838 0.0596163 638.337 638.337 1001.51 
167 1 1 0.121472 0.0783829 0.0232918 0 0 0 0.284289 -0.0241752 0.0334908 0.00237496 -0.00256419 0.00251111 0.284289 -0.0241752 0.0334908 616.044 616.044 1001.46 
168 1 1 0.119182 0.0800672 0.00997192 0 0 0 0.18504 0.00939229 0.0213308 0.00641522 -0.00945108 -0.00914085 0.18504 0.00939229 0.0213308 839.004 839.004 1001.99 
169 1 1 0.141141 0.0795188 0.0225015 0 0 0 0.304017 -0.0215877 -0.00977958 -0.00372664 0.00176971 0.000834312 0.304017 -0.0215877 -0.00977958 494.274 494.274 1001.17 
170 1 1 0.154368 0.075377 0.00992764 0 0 0 0.167993 -0.0392449 0.183635 -0.00255351 0.00454734 0.0321223 0.167993 -0.0392449 0.183635 1185.08 1185.08 1002.8 
171 1 1 0.00999701 0.0900512 0.00994519 0 0 0 -0.0346726 0.00919614 0.0350135 -0.00888303 -0.0213842 0.0242917 -0.0346726 0.00919614 0.0350135 787.45 787.45 1001.86 
172 1 1 0.0212773 0.0900225 0.017726 0 0 0 0.0162134 0.0134731 -0.063386 0.00418659 0.00808189 -0.00400302 0.0162134 0.0134731 -0.063386 709.092 709.092 1001.68 
173 1 1 0.0358156 0.0900275 0.00993954 0 0 0 0.0783607 0.00828893 0.0362321 0.00368494 -0.00766507 0.0261683 0.0783607 0.00828893 0.0362321 537.481 537.481 1001.27 
174 1 1 0.0497859 0.0900131 0.00996962 0 0 0 0.0806121 -0.00799237 -0.00165466 -0.00690667 0.00360399 -0.0026775 0.0806121 -0.00799237 -0.00165466 475.248 475.248 1001.13 
175 1 1 0.0693848 0.0900028 0.00994435 0 0 0 0.021676 0.0129841 -0.028564 -0.0230305 0.033397 0.018694 0.021676 0.0129841 -0.028564 1220.99 1220.99 1002.88 
176 1 1 0.0921974 0.0900161 0.00995972 0 0 0 0.231173 0.019939 -0.00847804 0.00354831 0.0122023 0.00427107 0.231173 0.019939 -0.00847804 660.479 660.479 1001.57 
177 1 1 0.102656 0.0900128 0.00994975 0 0 0 0.237346 -0.000739888 -0.0327306 -0.00434 0.015806 0.0186556 0.237346 -0.000739888 -0.0327306 846.876 846.876 1002 
178 1 1 0.116974 0.0900738 0.00995033 0 0 0 0.220298 0.00171835 0.0188285 0.0026072 -0.0416594 0.00935218 0.220298 0.00171835 0.0188285 953.101 953.101 1002.25 
179 1 1 0.13141 0.0900468 0.00999839 0 0 0 0.204686 -0.0108179 -0.0234558 0.00804701 -0.0206239 -0.0283378 0.204686 -0.0108179 -0.0234558 704.759 704.759 1001.67 
180 1 1 0.134089 0.0900093 0.00998877 0 0 0 0.185318 -0.0230214 -0.0465023 0.0150755 0.0162028 -0.0157927 0.185318 -0.0230214 -0.0465023 655.22 655.22 1001.55 
181 1 1 0.00997049 0.00995907 0.0210562 0 0 0 0.0188664 -0.0258789 0.0139013 0.00774103 0.0166935 -0.00211132 0.0188664 -0.0258789 0.0139013 742.73 742.73 1001.76 
182 1 1 0.0324218 0.00998506 0.0213262 0 0 0 0.0298242 0.00646145 0.0428571 0.00392184 -0.0134731 -0.0013294 0.0298242 0.00646145 0.0428571 538.357 538.357 1001.28 
183 1 1 0.0426899 0.00998395 0.0100966 0 0 0 -0.00960298 -0.00183651 0.0178966 -0.00172869 -0.00204176 -0.0464286 -0.00960298 -0.00183651 0.0178966 462.65 462.65 1001.1 