ITEM: TIMESTEP
143000
ITEM: NUMBER OF ATOMS
2655
ITEM: BOX BOUNDS ff ff ff
0 0.5
0 0.1
0 0.5
ITEM: ATOMS id type type x y z ix iy iz vx vy vz fx fy fz vx vy vz p p rho 
1 1 1 0.0100082 0.00997887 0.00996564 0 0 0 0.0215269 -0.00351774 -0.0203986 -0.0235932 0.0002725 0.00336099 0.0215269 -0.00351774 -0.0203986 505.395 505.395 1001.2 
2 1 1 0.0383183 0.00997394 0.00996869 0 0 0 0.087834 0.003678 0.00360623 -0.00321244 0.00728699 -0.00341205 0.087834 0.003678 0.00360623 469.111 469.111 1001.11 
3 1 1 0.0330974 0.00997707 0.00996386 0 0 0 0.0557753 0.0130469 -0.0048544 -0.00230027 0.00280712 0.00173535 0.0557753 0.0130469 -0.0048544 437.067 437.067 1001.04 
4 1 1 0.0733807 0.00996832 0.00997399 0 0 0 0.102067 0.000919122 0.002965 0.00243427 0.01233 -0.00699352 0.102067 0.000919122 0.002965 527.263 527.263 1001.25 
5 1 1 0.079813 0.00998447 0.00996723 0 0 0 0.0829926 -0.000345631 -0.00294506 -0.000354785 -0.00436871 0.00204795 0.0829926 -0.000345631 -0.00294506 512.768 512.768 1001.22 
6 1 1 0.0984509 0.00998398 0.00998106 0 0 0 0.0502431 0.00241786 -0.0114511 -0.000347325 -0.00244944 -0.00778288 0.0502431 0.00241786 -0.0114511 444.473 444.473 1001.05 
7 1 1 0.112325 0.00998824 0.00997553 0 0 0 0.0462601 0.00081958 -0.000587924 -0.00104669 -0.00707745 -0.000560742 0.0462601 0.00081958 -0.000587924 452.076 452.076 1001.07 
8 1 1 0.121382 0.00998458 0.00997524 0 0 0 0.0601259 -0.00220942 0.0051034 -0.000140107 -0.00364972 -0.000270528 0.0601259 -0.00220942 0.0051034 456.526 456.526 1001.08 
9 1 1 0.130989 0.00998038 0.00997751 0 0 0 0.0520199 -0.00329286 0.00481235 -0.000437012 0.000522458 -0.00222144 0.0520199 -0.00329286 0.00481235 465.783 465.783 1001.11 
10 1 1 0.144852 0.00997709 0.00998113 0 0 0 0.0477863 -0.0011416 0.000577593 1.47202e-05 0.00394993 -0.00465633 0.0477863 -0.0011416 0.000577593 465.439 465.439 1001.1 
11 1 1 0.00999025 0.020842 0.00997032 0 0 0 0.0108045 0.0172034 -0.0158354 -0.00472456 -0.00261598 -0.00477538 0.0108045 0.0172034 -0.0158354 542.81 542.81 1001.29 
12 1 1 0.0339341 0.0339956 0.00996778 0 0 0 -0.0133748 0.00369738 0.00360221 0.000740906 0.00121005 -0.00184392 -0.0133748 0.00369738 0.00360221 411.928 411.928 1000.98 
13 1 1 0.0227172 0.020279 0.00996055 0 0 0 -0.00585178 -0.0111621 -0.00257436 -0.00136008 0.000988188 0.00203829 -0.00585178 -0.0111621 -0.00257436 518.224 518.224 1001.23 
14 1 1 0.0891908 0.0224406 0.00995341 0 0 0 0.0631291 0.0244964 -0.00418398 -0.000387107 -0.00371346 0.0121731 0.0631291 0.0244964 -0.00418398 498.271 498.271 1001.18 
15 1 1 0.0767407 0.0216672 0.00996359 0 0 0 0.0833441 -0.0211355 0.000186518 -0.00310089 0.000893321 0.00150981 0.0833441 -0.0211355 0.000186518 486.671 486.671 1001.15 
16 1 1 0.109196 0.0221214 0.00997122 0 0 0 0.109889 0.0228292 -0.00327219 -0.00062936 -0.00354605 -0.000199613 0.109889 0.0228292 -0.00327219 452.518 452.518 1001.07 
17 1 1 0.110508 0.0413161 0.00996387 0 0 0 0.0806272 -0.00340325 -0.00162912 0.00352328 -0.00359246 0.00525452 0.0806272 -0.00340325 -0.00162912 510.837 510.837 1001.21 
18 1 1 0.13717 0.0319623 0.00997422 0 0 0 0.044266 0.00462632 0.000657766 1.85178e-05 -0.00174017 -0.00119741 0.044266 0.00462632 0.000657766 472.306 472.306 1001.12 
19 1 1 0.121394 0.022363 0.00997444 0 0 0 0.0589739 0.0200025 0.00107189 0.000707614 -0.00264181 -0.00216615 0.0589739 0.0200025 0.00107189 466.622 466.622 1001.11 
20 1 1 0.157964 0.0224307 0.0099748 0 0 0 0.0581097 -0.0125353 6.07855e-05 -0.00075167 -0.00211009 0.000201318 0.0581097 -0.0125353 6.07855e-05 484.55 484.55 1001.15 
21 1 1 0.0099864 0.0286027 0.00995954 0 0 0 -0.00462249 -0.021296 0.0045443 -0.00088219 -0.00411709 0.00477524 -0.00462249 -0.021296 0.0045443 587.695 587.695 1001.39 
22 1 1 0.0402974 0.034057 0.00996842 0 0 0 0.0716557 -0.0266697 0.003474 0.00502109 -0.000609382 -0.00543871 0.0716557 -0.0266697 0.003474 419.331 419.331 1001 
23 1 1 0.0692019 0.0458645 0.00996559 0 0 0 0.0948111 0.00457415 0.00970506 -0.00697693 -0.0039161 -0.00151466 0.0948111 0.00457415 0.00970506 446.734 446.734 1001.06 
24 1 1 0.0947987 0.0307452 0.00995317 0 0 0 0.0371205 -0.0191123 0.00176821 -0.000757743 -0.00518244 0.0125589 0.0371205 -0.0191123 0.00176821 531.465 531.465 1001.26 
25 1 1 0.115857 0.0374457 0.00996938 0 0 0 0.0702746 0.0174848 -0.00434376 0.00229533 -0.00203064 0.00139347 0.0702746 0.0174848 -0.00434376 500.785 500.785 1001.19 
26 1 1 0.115904 0.0222218 0.00997418 0 0 0 0.0410499 -0.00784206 -0.00134112 -0.000446606 -0.00231457 -0.00264467 0.0410499 -0.00784206 -0.00134112 473.063 473.063 1001.12 
27 1 1 0.136431 0.04513 0.00997291 0 0 0 0.0802827 0.007287 0.000709808 0.000988889 -0.00182659 -0.00123922 0.0802827 0.007287 0.000709808 495.352 495.352 1001.18 
28 1 1 0.116789 0.0316579 0.00997148 0 0 0 0.0268931 -0.00891273 -0.00433242 0.0010976 -0.00344171 -0.000595767 0.0268931 -0.00891273 -0.00433242 495.744 495.744 1001.18 
29 1 1 0.146355 0.0225083 0.00997506 0 0 0 0.0549263 1.27296e-05 0.000546358 -0.00139661 -0.00203553 -0.000632053 0.0549263 1.27296e-05 0.000546358 487.971 487.971 1001.16 
30 1 1 0.150431 0.0311031 0.00997464 0 0 0 0.0416794 -0.0143866 0.00135719 -0.00117223 -0.000692702 -0.000451809 0.0416794 -0.0143866 0.00135719 495.119 495.119 1001.17 
31 1 1 0.00998313 0.0380724 0.00996578 0 0 0 0.00110907 0.00749025 0.00512413 0.0068596 0.000921417 -0.00148511 0.00110907 0.00749025 0.00512413 631.267 631.267 1001.5 
32 1 1 0.0242236 0.0396272 0.00996393 0 0 0 0.0143768 -0.0477333 0.00626075 -0.00135778 0.00498369 0.000936887 0.0143768 -0.0477333 0.00626075 523.569 523.569 1001.24 
33 1 1 0.0541292 0.0371144 0.00997185 0 0 0 0.0417414 -0.0609027 0.00718973 -0.00187292 -0.00229478 -0.00633007 0.0417414 -0.0609027 0.00718973 351.928 351.928 1000.84 
34 1 1 0.0756433 0.0344563 0.00996245 0 0 0 0.0579219 -0.0108287 0.010389 -0.00468836 -0.0021453 0.00276876 0.0579219 -0.0108287 0.010389 426.621 426.621 1001.01 
35 1 1 0.0858554 0.038305 0.00995653 0 0 0 0.0553917 -0.0136059 0.000507768 -0.0063076 -0.00417165 0.00752546 0.0553917 -0.0136059 0.000507768 555.915 555.915 1001.32 
36 1 1 0.106605 0.0290141 0.00996659 0 0 0 0.0373296 -0.0090968 -0.00457143 0.00145507 -0.00421167 0.00259765 0.0373296 -0.0090968 -0.00457143 477.979 477.979 1001.13 
37 1 1 0.127154 0.0375384 0.00997297 0 0 0 0.0351431 0.00131988 -0.00125053 -0.000364042 -0.00184982 -0.00132861 0.0351431 0.00131988 -0.00125053 495.487 495.487 1001.18 
38 1 1 0.134256 0.0385337 0.0099734 0 0 0 0.0426713 -0.0175867 0.000343083 -0.00064839 -0.00197356 -0.00150221 0.0426713 -0.0175867 0.000343083 477.489 477.489 1001.13 
39 1 1 0.154777 0.036766 0.00997417 0 0 0 0.0777851 -0.024401 0.00180463 -0.00122236 -0.00163473 -0.000415349 0.0777851 -0.024401 0.00180463 492.551 492.551 1001.17 
40 1 1 0.169642 0.038373 0.0099731 0 0 0 0.0484043 -0.000225803 0.00154247 -0.000370385 -0.00179029 0.000591711 0.0484043 -0.000225803 0.00154247 515.808 515.808 1001.22 
41 1 1 0.0099908 0.0523964 0.00995942 0 0 0 0.00420513 0.00652775 0.00379159 0.00364235 -0.00131586 0.00415301 0.00420513 0.00652775 0.00379159 641.205 641.205 1001.52 
42 1 1 0.0406434 0.0577898 0.0099494 0 0 0 0.0404345 -0.0183792 -0.0115373 0.003708 0.000276448 0.013584 0.0404345 -0.0183792 -0.0115373 403.033 403.033 1000.96 
43 1 1 0.0572236 0.0490305 0.00996021 0 0 0 0.037361 -0.0417531 -0.00948812 -0.00847572 -0.000421538 0.0063556 0.037361 -0.0417531 -0.00948812 319.27 319.27 1000.76 
44 1 1 0.0816942 0.0452951 0.00996299 0 0 0 0.0508378 -0.0443389 -0.00355981 -0.00363784 -0.00510027 0.000730521 0.0508378 -0.0443389 -0.00355981 514.075 514.075 1001.22 
45 1 1 0.0928529 0.0504674 0.00995537 0 0 0 0.0601204 0.0136782 0.00442251 -0.00342297 0.00157562 0.00899522 0.0601204 0.0136782 0.00442251 565.345 565.345 1001.34 
46 1 1 0.101632 0.0545883 0.00995793 0 0 0 0.0536677 -0.014519 0.0051844 0.00246463 0.00484597 0.00864387 0.0536677 -0.014519 0.0051844 554.43 554.43 1001.31 
47 1 1 0.107386 0.0481193 0.00995991 0 0 0 0.0552817 -0.00863707 0.00244567 0.00646502 -0.000169455 0.00830501 0.0552817 -0.00863707 0.00244567 538.415 538.415 1001.28 
48 1 1 0.132642 0.0508772 0.00997255 0 0 0 0.0592421 -0.0383716 5.75783e-05 -0.000329574 -0.00184109 -0.000911693 0.0592421 -0.0383716 5.75783e-05 506.743 506.743 1001.2 
49 1 1 0.11894 0.0497994 0.00996899 0 0 0 0.0462516 0.00692779 -0.00269247 0.00181597 -0.00121292 0.00166093 0.0462516 0.00692779 -0.00269247 517.895 517.895 1001.23 
50 1 1 0.157896 0.0505401 0.00997332 0 0 0 0.0568031 0.00253888 0.00212915 -0.00130387 -0.00248654 0.000168276 0.0568031 0.00253888 0.00212915 523.14 523.14 1001.24 
51 1 1 0.00998443 0.0618482 0.00996072 0 0 0 0.00339581 -0.00194941 0.00753389 0.00345527 -0.00160486 0.000605772 0.00339581 -0.00194941 0.00753389 588.665 588.665 1001.4 
52 1 1 0.0246809 0.0551551 0.00996087 0 0 0 -0.0178593 -0.0597898 0.00117105 -0.00369234 -0.00539961 0.00539155 -0.0178593 -0.0597898 0.00117105 464.364 464.364 1001.1 
53 1 1 0.0650879 0.0595247 0.00996003 0 0 0 0.0964795 -0.0261916 0.00260896 -0.00749114 -0.00217494 0.00169261 0.0964795 -0.0261916 0.00260896 554.687 554.687 1001.32 
54 1 1 0.0855899 0.0639384 0.00996329 0 0 0 0.0736405 -0.0277796 -0.000987992 -0.000465475 0.00645045 0.000744224 0.0736405 -0.0277796 -0.000987992 542.047 542.047 1001.29 
55 1 1 0.0894055 0.0594003 0.00996105 0 0 0 0.0610244 -0.016469 -0.000134263 0.0014163 0.00422645 0.00270116 0.0610244 -0.016469 -0.000134263 542.168 542.168 1001.29 
56 1 1 0.105363 0.0728203 0.00996964 0 0 0 0.0436706 -0.0101355 -0.000197731 -0.00110859 0.00260884 0.000647593 0.0436706 -0.0101355 -0.000197731 525.642 525.642 1001.25 
57 1 1 0.130052 0.0627893 0.00997109 0 0 0 0.0451493 -0.0169041 0.000568968 -0.000822921 -0.00106383 -0.000596788 0.0451493 -0.0169041 0.000568968 533.904 533.904 1001.27 
58 1 1 0.13641 0.0643686 0.00997199 0 0 0 0.0454151 0.00336119 0.0012602 -0.000646625 -0.00136512 -0.000459996 0.0454151 0.00336119 0.0012602 523.542 523.542 1001.24 
59 1 1 0.15382 0.0620502 0.00997279 0 0 0 0.0457327 -0.0195342 0.00183285 -0.00110721 -0.00158787 0.000309997 0.0457327 -0.0195342 0.00183285 541.799 541.799 1001.29 
60 1 1 0.16491 0.0620686 0.0099722 0 0 0 0.0423326 0.00853215 0.00130397 -0.00119627 -0.00159057 0.00115445 0.0423326 0.00853215 0.00130397 545.765 545.765 1001.29 
61 1 1 0.00998544 0.0719163 0.009952 0 0 0 -0.00283677 0.0146843 0.00186259 0.0011367 -0.0033558 0.00797623 -0.00283677 0.0146843 0.00186259 581.884 581.884 1001.38 
62 1 1 0.0455815 0.0652643 0.00995923 0 0 0 0.0895171 -0.0385553 -0.00146501 0.000536938 -0.00289548 0.00593162 0.0895171 -0.0385553 -0.00146501 480.244 480.244 1001.14 
63 1 1 0.0757419 0.0622914 0.00996501 0 0 0 0.100155 -0.00533594 -0.000489528 -0.00129726 0.00382803 -0.0042462 0.100155 -0.00533594 -0.000489528 537.973 537.973 1001.28 
64 1 1 0.0952104 0.0720301 0.0099681 0 0 0 0.0579918 -0.000779137 0.0010816 -0.00142048 0.00353116 0.0010164 0.0579918 -0.000779137 0.0010816 517.201 517.201 1001.23 
65 1 1 0.118648 0.0645303 0.00996917 0 0 0 0.0470462 -0.0179361 -0.000819065 -0.000306634 -0.00120037 0.000954989 0.0470462 -0.0179361 -0.000819065 526.046 526.046 1001.25 
66 1 1 0.11526 0.0775029 0.00997122 0 0 0 0.0681704 -0.0236571 0.00172983 -0.002096 0.000846767 -0.000646996 0.0681704 -0.0236571 0.00172983 538.809 538.809 1001.28 
67 1 1 0.137518 0.0551541 0.00997251 0 0 0 0.0563605 0.0134408 0.00100345 0.000187242 -0.0016447 -0.000952207 0.0563605 0.0134408 0.00100345 514.362 514.362 1001.22 
68 1 1 0.118084 0.0708566 0.00997026 0 0 0 0.0510414 -0.0061189 0.000470696 -0.0014528 0.00105337 0.000392408 0.0510414 -0.0061189 0.000470696 538.503 538.503 1001.28 
69 1 1 0.147038 0.0782333 0.00996891 0 0 0 0.0567003 0.0160051 0.00154184 -0.00154715 -0.00150748 0.00231721 0.0567003 0.0160051 0.00154184 593.437 593.437 1001.41 
70 1 1 0.153329 0.0681832 0.00997193 0 0 0 0.0456716 0.0160502 0.00179291 -0.00047314 -0.00170006 0.000542015 0.0456716 0.0160502 0.00179291 558.391 558.391 1001.32 
71 1 1 0.00999361 0.0788444 0.00995567 0 0 0 -0.0124803 0.0263101 -0.00331913 -0.00617201 0.00364002 0.00442853 -0.0124803 0.0263101 -0.00331913 666.462 666.462 1001.58 
72 1 1 0.036485 0.0637073 0.00995433 0 0 0 0.0440548 -0.0173583 0.00573471 0.00137906 -0.00261596 0.00958471 0.0440548 -0.0173583 0.00573471 419.875 419.875 1001 
73 1 1 0.0277226 0.0756861 0.00994486 0 0 0 0.0300937 0.0639216 0.0232363 0.000783975 0.00356735 0.0160543 0.0300937 0.0639216 0.0232363 575.528 575.528 1001.36 
74 1 1 0.0925668 0.0781463 0.00997156 0 0 0 0.0678997 -4.41068e-05 0.00137979 -0.00195493 0.00428819 -0.000647085 0.0678997 -4.41068e-05 0.00137979 471.437 471.437 1001.12 
75 1 1 0.079448 0.0776393 0.00996841 0 0 0 0.0741618 -0.00825044 0.000379393 -0.0021794 0.00351263 -0.00111224 0.0741618 -0.00825044 0.000379393 443.772 443.772 1001.05 
76 1 1 0.108851 0.0785324 0.00997119 0 0 0 0.0753194 0.012333 0.00127245 -0.00214772 0.00160184 -0.000543135 0.0753194 0.012333 0.00127245 509.956 509.956 1001.21 
77 1 1 0.112831 0.0606488 0.00996678 0 0 0 0.049982 -0.030221 -0.00146911 -0.000124447 -1.66269e-06 0.00265478 0.049982 -0.030221 -0.00146911 523.833 523.833 1001.24 
78 1 1 0.14124 0.0690538 0.00997181 0 0 0 0.0567555 -0.00697149 0.00166846 -0.000841758 -0.00227836 0.000394959 0.0567555 -0.00697149 0.00166846 543.453 543.453 1001.29 
79 1 1 0.122414 0.0789304 0.00997121 0 0 0 0.0417767 0.0101451 0.00253008 -0.00222168 -0.00124885 -0.000733921 0.0417767 0.0101451 0.00253008 549.338 549.338 1001.3 
80 1 1 0.158092 0.0782384 0.00996954 0 0 0 0.0476707 0.0190227 0.00149739 -0.000569399 -0.00113789 0.00263366 0.0476707 0.0190227 0.00149739 595.851 595.851 1001.41 
81 1 1 0.00996967 0.0900211 0.00995895 0 0 0 -0.0112733 0.0015935 0.00817941 0.0212251 0.00319346 0.0112939 -0.0112733 0.0015935 0.00817941 531.489 531.489 1001.26 
82 1 1 0.0358535 0.0900352 0.00996767 0 0 0 0.0468822 -0.0154006 0.00538367 -0.00808128 -0.0134504 0.000105313 0.0468822 -0.0154006 0.00538367 451.288 451.288 1001.07 
83 1 1 0.0306475 0.0900094 0.00996464 0 0 0 0.0550585 -0.0136213 -0.011833 -0.00948648 0.0109321 0.00555285 0.0550585 -0.0136213 -0.011833 324.012 324.012 1000.77 
84 1 1 0.0744873 0.0900116 0.00996405 0 0 0 0.0880502 0.00675726 0.00406131 0.00153635 0.00699429 0.00543176 0.0880502 0.00675726 0.00406131 448.018 448.018 1001.06 
85 1 1 0.0792003 0.0900268 0.00998004 0 0 0 0.0917335 -0.00197405 -0.00497887 0.000511134 -0.00798989 -0.00919947 0.0917335 -0.00197405 -0.00497887 435.995 435.995 1001.03 
86 1 1 0.098985 0.0900142 0.00996974 0 0 0 0.0470815 -0.00320199 0.000614079 -0.00227221 0.00664132 0.00326611 0.0470815 -0.00320199 0.000614079 464.4 464.4 1001.1 
87 1 1 0.113563 0.0900288 0.00998021 0 0 0 0.0518676 -0.00961764 -0.00368515 -0.00270653 -0.00580276 -0.00773077 0.0518676 -0.00961764 -0.00368515 511.5 511.5 1001.21 
88 1 1 0.123663 0.0900307 0.00997709 0 0 0 0.0512796 -0.00955647 -0.00409551 -0.00320584 -0.00643597 -0.00431391 0.0512796 -0.00955647 -0.00409551 541.805 541.805 1001.29 
89 1 1 0.132877 0.0900185 0.00996376 0 0 0 0.0588684 0.0011748 0.00672424 -0.00210563 0.00505194 0.00756064 0.0588684 0.0011748 0.00672424 576.494 576.494 1001.37 
90 1 1 0.14697 0.0900328 0.00997816 0 0 0 0.0632073 0.00224891 0.00286457 -0.000210971 -0.00859066 -0.0055624 0.0632073 0.00224891 0.00286457 585.108 585.108 1001.39 
91 1 1 0.00998857 0.00997663 0.00996334 0 0 0 -0.0210488 0.00124844 -0.00287818 0.00197816 0.00270783 0.00587561 -0.0210488 0.00124844 -0.00287818 471.593 471.593 1001.12 
92 1 1 0.0273117 0.00998348 0.00995773 0 0 0 0.0300684 -0.00171167 0.00518204 -0.00410109 -0.00537633 0.00755619 0.0300684 -0.00171167 0.00518204 468.771 468.771 1001.11 
93 1 1 0.0431686 0.00998927 0.00994999 0 0 0 0.0652157 -0.000412942 0.00968475 -0.0023862 -0.00742921 0.0133756 0.0652157 -0.000412942 0.00968475 503.435 503.435 1001.19 
94 1 1 0.053104 0.00997995 0.00996196 0 0 0 0.0780645 -0.00325561 0.0147048 0.000303632 0.00404073 0.000940725 0.0780645 -0.00325561 0.0147048 505.796 505.796 1001.2 
95 1 1 0.0836721 0.00996953 0.00998635 0 0 0 0.0449108 0.0016477 -0.00331926 0.00313829 0.0110017 -0.0155544 0.0449108 0.0016477 -0.00331926 490.865 490.865 1001.16 
96 1 1 0.107218 0.00998511 0.00997826 0 0 0 0.0690529 0.00629093 -0.0084641 -7.19381e-05 -0.0031357 -0.00325425 0.0690529 0.00629093 -0.0084641 439.137 439.137 1001.04 
97 1 1 0.116933 0.00997582 0.00998403 0 0 0 0.0518442 -0.00812407 0.0118543 -0.000981664 0.00516235 -0.00901591 0.0518442 -0.00812407 0.0118543 460.989 460.989 1001.09 
98 1 1 0.126455 0.00998745 0.00996874 0 0 0 0.0506684 0.00727448 -0.00379568 -0.000717772 -0.00635082 0.00621447 0.0506684 0.00727448 -0.00379568 464.225 464.225 1001.1 
99 1 1 0.135658 0.00997733 0.00997903 0 0 0 0.0535072 0.00351392 -0.00300203 -0.000353182 0.00336048 -0.0030963 0.0535072 0.00351392 -0.00300203 463.844 463.844 1001.1 
100 1 1 0.140446 0.00998637 0.0099708 0 0 0 0.0481961 0.00193178 0.000204684 -0.000217576 -0.00553935 0.00576452 0.0481961 0.00193178 0.000204684 466.541 466.541 1001.11 
101 1 1 0.0099849 0.0217959 0.021908 0 0 0 0.00212328 -0.0152561 0.0321109 -0.00013563 -0.00439894 -0.000343905 0.00212328 -0.0152561 0.0321109 590.613 590.613 1001.4 
102 1 1 0.00997737 0.022839 0.00996709 0 0 0 -0.00568584 0.0138171 0.00208514 0.00810196 -0.00216135 -0.00229842 -0.00568584 0.0138171 0.00208514 570.335 570.335 1001.35 
103 1 1 0.0238734 0.0220277 0.0178958 0 0 0 0.00272471 -0.044264 0.00521087 -0.00249769 0.000868035 0.00208077 0.00272471 -0.044264 0.00521087 452.064 452.064 1001.07 
104 1 1 0.0639911 0.0218502 0.0345216 0 0 0 0.0822211 0.0301968 0.0103909 -0.000112038 0.00275729 0.00159417 0.0822211 0.0301968 0.0103909 431.624 431.624 1001.02 
105 1 1 0.092617 0.0353117 0.0567129 0 0 0 0.12239 0.0035076 0.0411957 0.000689139 0.000385207 0.00165828 0.12239 0.0035076 0.0411957 184.651 184.651 1000.44 
106 1 1 0.134401 0.0225528 0.00997464 0 0 0 0.0356029 -0.0138179 0.000486985 -0.000629459 -0.00137646 -0.000551642 0.0356029 -0.0138179 0.000486985 482.503 482.503 1001.14 
107 1 1 0.109326 0.0207389 0.0316662 0 0 0 0.0879141 -0.0110792 0.00957781 0.00189664 -0.00182413 -0.000122777 0.0879141 -0.0110792 0.00957781 358.722 358.722 1000.85 
108 1 1 0.143504 0.0344956 0.00997438 0 0 0 0.0593688 -0.0110695 0.0012046 -0.000128749 -0.00129668 -0.000945958 0.0593688 -0.0110695 0.0012046 487.346 487.346 1001.16 
109 1 1 0.132311 0.0226489 0.0236979 0 0 0 0.0304233 -0.0231376 -0.00359388 0.0020848 -0.00246848 0.000327147 0.0304233 -0.0231376 -0.00359388 396.893 396.893 1000.94 
110 1 1 0.175987 0.0224097 0.00997682 0 0 0 0.0571978 -0.012364 0.00123297 -0.000827278 -0.00155814 -0.000643913 0.0571978 -0.012364 0.00123297 508.653 508.653 1001.21 
111 1 1 0.00998161 0.0336535 0.00996458 0 0 0 0.00090889 -0.0134132 0.00313717 0.00524077 -0.00159575 -0.000153107 0.00090889 -0.0134132 0.00313717 605.276 605.276 1001.43 
112 1 1 0.0232938 0.0239474 0.0447853 0 0 0 -0.0259014 -0.00742293 -0.0392906 -0.000365726 -0.000918105 0.00019974 -0.0259014 -0.00742293 -0.0392906 329.107 329.107 1000.78 
113 1 1 0.0500449 0.0371399 0.00997318 0 0 0 0.0490927 0.0728861 -0.00491799 0.000713889 -0.00196061 -0.00861509 0.0490927 0.0728861 -0.00491799 358.181 358.181 1000.85 
114 1 1 0.0550693 0.0223387 0.0099754 0 0 0 0.0847047 -0.00174105 0.00930366 -0.000945813 0.00698078 -0.0105289 0.0847047 -0.00174105 0.00930366 352.691 352.691 1000.84 
115 1 1 0.0530089 0.021134 0.035655 0 0 0 0.0607157 -0.00551723 0.0156993 -0.00175174 0.00397004 -1.11579e-05 0.0607157 -0.00551723 0.0156993 378.244 378.244 1000.9 
116 1 1 0.105052 0.0361678 0.00996155 0 0 0 0.0705337 -0.0344963 -0.00113135 0.00245525 -0.00632294 0.00606915 0.0705337 -0.0344963 -0.00113135 503.788 503.788 1001.2 
117 1 1 0.112859 0.0232971 0.0218447 0 0 0 0.00391427 -0.0419323 -0.0195495 0.00209088 -0.00344632 0.000744262 0.00391427 -0.0419323 -0.0195495 394.537 394.537 1000.94 
118 1 1 0.12716 0.0228391 0.0224073 0 0 0 0.0293352 -0.0158974 0.00644652 1.3986e-05 -0.00212094 0.000139254 0.0293352 -0.0158974 0.00644652 396.513 396.513 1000.94 
119 1 1 0.152053 0.0233027 0.00997512 0 0 0 0.0422952 -0.00642988 0.000616191 -0.000212359 -0.00233484 -0.000231263 0.0422952 -0.00642988 0.000616191 487.809 487.809 1001.16 
120 1 1 0.132884 0.0221314 0.0388799 0 0 0 0.0335408 -0.000799438 0.00591574 0.000379668 -0.00221363 -0.000396787 0.0335408 -0.000799438 0.00591574 297.964 297.964 1000.71 
121 1 1 0.00998446 0.0427931 0.00996687 0 0 0 0.00205214 -0.0116372 0.00632363 0.00927623 0.00151475 -0.00239282 0.00205214 -0.0116372 0.00632363 659.582 659.582 1001.56 
122 1 1 0.0230137 0.0338348 0.00996405 0 0 0 0.022152 -0.0156529 0.00577305 0.00168469 0.00618901 0.000603601 0.022152 -0.0156529 0.00577305 506.014 506.014 1001.2 
123 1 1 0.0237632 0.0270604 0.00996212 0 0 0 0.029002 -0.0127057 0.00332406 -3.50115e-05 0.000716524 0.0021243 0.029002 -0.0127057 0.00332406 490.246 490.246 1001.16 
124 1 1 0.080858 0.0306562 0.00995908 0 0 0 0.101242 0.0289599 0.00179958 -0.00299066 -0.00145673 0.00563108 0.101242 0.0289599 0.00179958 481.286 481.286 1001.14 
125 1 1 0.0910754 0.0384992 0.00995411 0 0 0 0.0921471 0.0192343 0.00186939 -0.00304683 -0.00513642 0.00981927 0.0921471 0.0192343 0.00186939 573.133 573.133 1001.36 
126 1 1 0.126398 0.0300728 0.00997395 0 0 0 0.0525011 0.0135422 -0.000741624 -0.000227341 -0.00152764 -0.00183399 0.0525011 0.0135422 -0.000741624 478.788 478.788 1001.14 
127 1 1 0.162055 0.0370949 0.00997438 0 0 0 0.0476977 0.0321777 0.00162023 -0.00114586 -0.0018116 8.89589e-05 0.0476977 0.0321777 0.00162023 506.529 506.529 1001.2 
128 1 1 0.144696 0.0426089 0.00997352 0 0 0 0.0606654 -0.0116229 0.00171267 -0.00148068 -0.00178944 -0.0010286 0.0606654 -0.0116229 0.00171267 495.572 495.572 1001.18 
129 1 1 0.139985 0.0224645 0.00997504 0 0 0 0.052206 0.00542982 0.00020258 0.000318355 -0.00125066 -0.00106994 0.052206 0.00542982 0.00020258 481.467 481.467 1001.14 
130 1 1 0.180272 0.0325094 0.00997425 0 0 0 0.0514276 -0.00760994 0.00103667 -0.000536913 -0.000861994 0.000453374 0.0514276 -0.00760994 0.00103667 529.281 529.281 1001.26 
131 1 1 0.00999053 0.0477779 0.00996113 0 0 0 0.00256897 -0.0128555 0.00479408 0.00521988 -0.000148595 0.00363968 0.00256897 -0.0128555 0.00479408 662.163 662.163 1001.57 
132 1 1 0.0338545 0.0412658 0.00996165 0 0 0 0.0721167 -0.00306022 -0.000564262 -0.00386062 0.0019233 0.0016715 0.0721167 -0.00306022 -0.000564262 480.252 480.252 1001.14 
133 1 1 0.0443568 0.0501154 0.00994968 0 0 0 -0.00249085 -0.00422709 -0.0220885 0.0088026 0.000858664 0.0136515 -0.00249085 -0.00422709 -0.0220885 318.478 318.478 1000.76 
134 1 1 0.0872654 0.0508811 0.0099613 0 0 0 0.0484325 -0.00864738 -0.00190078 -0.00242188 -0.00137623 0.00265719 0.0484325 -0.00864738 -0.00190078 541.004 541.004 1001.28 
135 1 1 0.125861 0.0506056 0.00997164 0 0 0 0.0743678 0.00395806 -0.00148275 0.00124012 -0.0011654 3.59257e-05 0.0743678 0.00395806 -0.00148275 507.582 507.582 1001.2 
136 1 1 0.0857936 0.0509893 0.0224396 0 0 0 0.0356861 0.0101359 0.0114174 0.00010454 -0.000139719 0.00378224 0.0356861 0.0101359 0.0114174 539.69 539.69 1001.28 
137 1 1 0.11557 0.0495392 0.0222441 0 0 0 0.075065 -0.0561118 -0.00246336 0.003485 -0.00163968 0.00111931 0.075065 -0.0561118 -0.00246336 455.709 455.709 1001.08 
138 1 1 0.148215 0.0498191 0.0099726 0 0 0 0.0554908 -0.00450267 0.00213602 -0.00159924 -0.000456298 -0.000518444 0.0554908 -0.00450267 0.00213602 504.217 504.217 1001.2 
139 1 1 0.151811 0.0438369 0.00997329 0 0 0 0.0282016 -0.00616944 0.00220365 -0.000206295 -0.00228555 -0.000455516 0.0282016 -0.00616944 0.00220365 495.969 495.969 1001.18 
140 1 1 0.157817 0.0528086 0.0231346 0 0 0 0.0447612 0.0326329 0.0170353 -0.000766276 -0.00150997 0.000742803 0.0447612 0.0326329 0.0170353 421.401 421.401 1001 
141 1 1 0.00998559 0.0570491 0.00996265 0 0 0 0.00127474 -0.00625976 0.00820351 0.00520054 -0.00113293 -0.000334413 0.00127474 -0.00625976 0.00820351 618.683 618.683 1001.47 
142 1 1 0.0252429 0.0598769 0.0099593 0 0 0 0.000137961 -0.0212294 0.00736547 -0.00135348 -0.0056681 0.00503843 0.000137961 -0.0212294 0.00736547 419.326 419.326 1001 
143 1 1 0.0220632 0.0665308 0.00995604 0 0 0 -0.00736714 -0.0366771 0.0181855 0.002898 -0.00598888 0.00463272 -0.00736714 -0.0366771 0.0181855 470.095 470.095 1001.12 
144 1 1 0.0829043 0.0701638 0.0099656 0 0 0 0.0735263 -0.0219321 0.00137419 -0.00151995 0.00630599 4.50723e-05 0.0735263 -0.0219321 0.00137419 509.046 509.046 1001.21 
145 1 1 0.095511 0.0647378 0.00996258 0 0 0 0.10501 0.00432736 0.00196992 -8.79046e-05 0.00418716 0.00326575 0.10501 0.00432736 0.00196992 527.451 527.451 1001.25 
146 1 1 0.128097 0.0703545 0.00997106 0 0 0 0.0560227 0.0134615 0.00128968 -0.000571923 -0.00105521 0.000175129 0.0560227 0.0134615 0.00128968 545.974 545.974 1001.29 
147 1 1 0.157068 0.0567004 0.00997279 0 0 0 0.0378251 0.00731451 0.00200495 -0.000362575 -0.0024026 0.000405768 0.0378251 0.00731451 0.00200495 532.42 532.42 1001.26 
148 1 1 0.144345 0.0555358 0.00997308 0 0 0 0.035528 -0.00864459 0.00182004 9.65551e-05 -0.00202394 -0.000698028 0.035528 -0.00864459 0.00182004 510.167 510.167 1001.21 
149 1 1 0.141162 0.0770356 0.00996971 0 0 0 0.0683205 0.00518269 0.00165172 -0.00163476 -0.00146494 0.00142369 0.0683205 0.00518269 0.00165172 571.428 571.428 1001.36 
150 1 1 0.18071 0.0681294 0.00997123 0 0 0 0.0442274 0.00221373 0.000219692 -0.000279961 -0.00119991 0.00143237 0.0442274 0.00221373 0.000219692 579.017 579.017 1001.37 
151 1 1 0.00997768 0.066374 0.00995982 0 0 0 0.0153562 0.0220195 0.00123352 0.00814601 -0.00234737 0.000472028 0.0153562 0.0220195 0.00123352 582.948 582.948 1001.38 
152 1 1 0.0237374 0.0773654 0.0289489 0 0 0 0.0341518 0.0106359 -0.129721 0.00111141 0.00499946 -0.000302944 0.0341518 0.0106359 -0.129721 518.769 518.769 1001.23 
153 1 1 0.0573166 0.0716954 0.00996153 0 0 0 0.100403 -0.0024545 0.00356005 -0.00223631 -0.000263385 0.00114742 0.100403 -0.0024545 0.00356005 534.048 534.048 1001.27 
154 1 1 0.0570576 0.078755 0.00996254 0 0 0 0.0901698 0.0234601 0.00469679 0.00192376 6.49086e-05 0.0032732 0.0901698 0.0234601 0.00469679 473.119 473.119 1001.12 
155 1 1 0.0501498 0.0748746 0.039434 0 0 0 0.0679355 0.00526447 -0.0213922 -0.000903683 5.21463e-05 -0.000422345 0.0679355 0.00526447 -0.0213922 320.545 320.545 1000.76 
156 1 1 0.106987 0.0658176 0.00996604 0 0 0 0.0861232 0.0050087 -0.000473894 0.000560894 0.0016165 0.00236108 0.0861232 0.0050087 -0.000473894 536.87 536.87 1001.27 
157 1 1 0.114417 0.0763654 0.0221706 0 0 0 0.0490811 0.0206833 0.0170142 -0.000285586 0.00157349 0.00138227 0.0490811 0.0206833 0.0170142 435.302 435.302 1001.03 
158 1 1 0.129161 0.07775 0.0228428 0 0 0 0.0534786 0.0034083 -0.0025883 -0.000105017 -0.00115764 0.00236462 0.0534786 0.0034083 -0.0025883 459.273 459.273 1001.09 
159 1 1 0.152725 0.0757896 0.00996995 0 0 0 0.0520517 -0.0178097 0.00172761 -0.00126233 -0.00147994 0.0019817 0.0520517 -0.0178097 0.00172761 589.903 589.903 1001.4 
160 1 1 0.131194 0.0794006 0.0408542 0 0 0 0.0467893 -0.00915181 0.0469779 8.46461e-06 -0.00188006 0.00206883 0.0467893 -0.00915181 0.0469779 322.948 322.948 1000.77 
161 1 1 0.00998124 0.0784825 0.020914 0 0 0 0.0161373 0.00653033 0.00453694 0.00356133 0.0060099 0.00488892 0.0161373 0.00653033 0.00453694 760.351 760.351 1001.8 
162 1 1 0.00997628 0.0770072 0.00995823 0 0 0 0.0145447 0.0262985 0.00942593 0.0110524 0.000110195 0.000527164 0.0145447 0.0262985 0.00942593 737.146 737.146 1001.75 
163 1 1 0.0230555 0.0801578 0.0158462 0 0 0 0.01019 -0.0883114 -0.115649 0.00249811 0.00643105 -0.00160954 0.01019 -0.0883114 -0.115649 527.108 527.108 1001.25 
164 1 1 0.0617443 0.0695691 0.0560461 0 0 0 0.0862379 -0.0156408 -0.016503 0.000936011 0.00198306 0.000218248 0.0862379 -0.0156408 -0.016503 227.92 227.92 1000.54 
165 1 1 0.0914452 0.066072 0.0502825 0 0 0 0.0771871 -0.0109112 0.00855905 0.000776507 0.000758519 0.00209086 0.0771871 -0.0109112 0.00855905 279.83 279.83 1000.66 
166 1 1 0.135148 0.0774757 0.00996949 0 0 0 0.0530679 -0.0092841 0.00197614 -0.00149582 -0.000878033 0.00147661 0.0530679 -0.0092841 0.00197614 557.349 557.349 1001.32 
167 1 1 0.111882 0.0783979 0.036907 0 0 0 0.0601818 -0.00602028 -0.0011228 -0.00073315 0.000830574 4.70961e-05 0.0601818 -0.00602028 -0.0011228 340.764 340.764 1000.81 
168 1 1 0.146146 0.0629806 0.00997269 0 0 0 0.05769 0.00787039 0.00177357 -0.0012179 -0.00140317 -0.000173812 0.05769 0.00787039 0.00177357 530.015 530.015 1001.26 
169 1 1 0.137401 0.0781186 0.0228197 0 0 0 0.0224572 0.0227304 -0.0105334 -8.18259e-05 -0.00186415 0.00245324 0.0224572 0.0227304 -0.0105334 477.367 477.367 1001.13 
170 1 1 0.175107 0.0783526 0.00997225 0 0 0 0.053002 -0.00776061 0.000443796 0.000311413 -0.00188368 0.00081693 0.053002 -0.00776061 0.000443796 604.292 604.292 1001.43 
171 1 1 0.00996116 0.090041 0.00999185 0 0 0 -0.00892847 -0.010982 0.0191519 0.0297757 -0.0164678 -0.0219273 -0.00892847 -0.010982 0.0191519 603.485 603.485 1001.43 
172 1 1 0.0218262 0.0900125 0.00996802 0 0 0 -0.00586912 -0.0190273 -0.00750768 0.00881231 0.00895282 0.00246744 -0.00586912 -0.0190273 -0.00750768 310.855 310.855 1000.74 
173 1 1 0.0416196 0.090017 0.00995527 0 0 0 0.059986 -0.0169726 0.00141082 -0.00392644 0.00604166 0.0118337 0.059986 -0.0169726 0.00141082 517.05 517.05 1001.23 
174 1 1 0.0522547 0.0900194 0.00996249 0 0 0 0.0558581 -0.000193694 0.0106884 0.000602809 0.00120456 0.00517136 0.0558581 -0.000193694 0.0106884 489.873 489.873 1001.16 
175 1 1 0.0843314 0.0900125 0.00996899 0 0 0 0.0539302 0.00220897 0.000993771 -0.000497602 0.00681087 0.00298965 0.0539302 0.00220897 0.000993771 438.238 438.238 1001.04 
176 1 1 0.10912 0.090011 0.00996407 0 0 0 0.049032 0.0003362 0.00744723 -0.00386533 0.0114733 0.0089131 0.049032 0.0003362 0.00744723 498.14 498.14 1001.18 
177 1 1 0.118408 0.0900181 0.00996901 0 0 0 0.0699892 0.0079341 0.0155212 -0.00279697 0.00546002 0.00348354 0.0699892 0.0079341 0.0155212 527.219 527.219 1001.25 