ITEM: TIMESTEP
65000
ITEM: NUMBER OF ATOMS
2655
ITEM: BOX BOUNDS ff ff ff
0 0.5
0 0.1
0 0.5
ITEM: ATOMS id type type x y z ix iy iz vx vy vz fx fy fz vx vy vz p p rho 
1 1 1 0.00998754 0.00999807 0.0099868 0 0 0 -0.00752629 0.00624241 -0.0112365 -0.00156875 -0.00819572 -0.00240291 -0.00752629 0.00624241 -0.0112365 449.704 449.704 1001.07 
2 1 1 0.0293905 0.00999498 0.0099786 0 0 0 -0.0093244 -0.00239363 -0.00573871 -0.00163557 -0.0094567 0.00236438 -0.0093244 -0.00239363 -0.00573871 481.383 481.383 1001.14 
3 1 1 0.0235168 0.00998389 0.00997531 0 0 0 -0.024557 0.000176016 -0.00362575 0.00036406 0.00323693 0.00692678 -0.024557 0.000176016 -0.00362575 482.275 482.275 1001.14 
4 1 1 0.0639865 0.00998102 0.00999088 0 0 0 -0.0685233 0.00256257 -0.00427867 8.50745e-05 0.00549364 -0.00837595 -0.0685233 0.00256257 -0.00427867 462.976 462.976 1001.1 
5 1 1 0.0695626 0.00998517 0.00998163 0 0 0 -0.0558966 0.0101928 -0.0108232 -0.00301706 0.00195654 -0.000207241 -0.0558966 0.0101928 -0.0108232 482.977 482.977 1001.15 
6 1 1 0.0889993 0.00998768 0.00997835 0 0 0 -0.162875 0.00109273 -0.00516919 -0.000511247 0.000590835 0.00558073 -0.162875 0.00109273 -0.00516919 551.483 551.483 1001.31 
7 1 1 0.103371 0.00998281 0.00998782 0 0 0 -0.129225 0.00485521 -0.00412579 -0.00122222 0.00626899 -0.00116977 -0.129225 0.00485521 -0.00412579 594.896 594.896 1001.41 
8 1 1 0.113174 0.00998047 0.0099852 0 0 0 -0.207577 -0.0069048 -0.00506998 0.000510139 0.00916335 -0.000453126 -0.207577 -0.0069048 -0.00506998 552.157 552.157 1001.31 
9 1 1 0.122025 0.00998721 0.00997848 0 0 0 -0.184731 -0.00514714 0.00115916 -0.00182707 -0.000111362 0.00722979 -0.184731 -0.00514714 0.00115916 543.842 543.842 1001.29 
10 1 1 0.136511 0.00998607 0.00999511 0 0 0 -0.172637 -0.00394233 0.00873991 -0.00182086 0.00246524 -0.00724403 -0.172637 -0.00394233 0.00873991 597.677 597.677 1001.42 
11 1 1 0.00998525 0.0226688 0.00997683 0 0 0 -0.00193573 -0.0228935 0.0022871 -0.000715808 -0.00192556 0.00313492 -0.00193573 -0.0228935 0.0022871 440.697 440.697 1001.05 
12 1 1 0.0273251 0.0319477 0.00997587 0 0 0 -0.0151694 0.00324086 -0.000899996 -0.00155847 -0.000413425 0.00147041 -0.0151694 0.00324086 -0.000899996 427.943 427.943 1001.02 
13 1 1 0.0270423 0.0232479 0.00997623 0 0 0 -0.0381541 -0.00790684 0.000256405 -0.001612 -0.00125986 0.00246299 -0.0381541 -0.00790684 0.000256405 437.336 437.336 1001.04 
14 1 1 0.0896906 0.0238073 0.00998056 0 0 0 0.0147674 0.0245974 -0.00149312 0.000453129 -0.0008885 -0.00201519 0.0147674 0.0245974 -0.00149312 415.28 415.28 1000.99 
15 1 1 0.0762765 0.0220997 0.00997915 0 0 0 -0.029112 -0.00567849 -0.000565844 -0.000535146 0.000374302 0.000487064 -0.029112 -0.00567849 -0.000565844 386.09 386.09 1000.92 
16 1 1 0.103414 0.0233268 0.00998321 0 0 0 -0.0400852 -0.0373732 0.000261717 -0.000377937 -0.000666763 -0.00284776 -0.0400852 -0.0373732 0.000261717 422.551 422.551 1001 
17 1 1 0.101211 0.0423366 0.0099825 0 0 0 -0.0763923 0.0251636 0.00117612 0.000458505 -0.00119439 -0.00286454 -0.0763923 0.0251636 0.00117612 432.483 432.483 1001.03 
18 1 1 0.127184 0.0347551 0.00997895 0 0 0 -0.0222712 -0.00801883 -0.00104549 -0.000313716 0.000538088 -0.000159469 -0.0222712 -0.00801883 -0.00104549 436.881 436.881 1001.04 
19 1 1 0.114018 0.0251994 0.00997957 0 0 0 -0.041593 0.00704278 -0.00201341 0.000911176 -0.00194703 -0.000221385 -0.041593 0.00704278 -0.00201341 444.501 444.501 1001.05 
20 1 1 0.156346 0.0221428 0.00998392 0 0 0 -0.150806 -0.0224949 0.00157879 -8.19419e-05 -0.000122922 -0.00477869 -0.150806 -0.0224949 0.00157879 471.077 471.077 1001.12 
21 1 1 0.00998284 0.0251627 0.00997258 0 0 0 0.0101179 0.00727128 -0.00353965 0.00141559 0.000357994 0.00771481 0.0101179 0.00727128 -0.00353965 449.74 449.74 1001.07 
22 1 1 0.0372732 0.0378713 0.00997586 0 0 0 0.0145965 0.0124868 -0.000731487 1.92955e-06 0.00081846 0.000938478 0.0145965 0.0124868 -0.000731487 398.376 398.376 1000.95 
23 1 1 0.0556408 0.0378203 0.00997914 0 0 0 -0.0342668 0.0128463 -0.00148927 -0.000243358 0.000609451 -0.00146785 -0.0342668 0.0128463 -0.00148927 357.538 357.538 1000.85 
24 1 1 0.0791264 0.0292683 0.00997851 0 0 0 0.0278114 0.00880029 -0.000447019 0.000264432 -0.00038917 4.16918e-06 0.0278114 0.00880029 -0.000447019 418.73 418.73 1000.99 
25 1 1 0.100734 0.0314289 0.00997711 0 0 0 0.023617 0.0609229 0.000604998 -0.000284871 -2.54175e-05 0.00158369 0.023617 0.0609229 0.000604998 416.629 416.629 1000.99 
26 1 1 0.110342 0.0244907 0.00998363 0 0 0 -0.0227072 0.0205338 -0.001173 -0.00199599 -0.00312087 -0.00383662 -0.0227072 0.0205338 -0.001173 463.743 463.743 1001.1 
27 1 1 0.137954 0.0424957 0.0099796 0 0 0 -0.028868 -0.0122141 9.4308e-05 -0.00165768 0.000255786 -0.00101249 -0.028868 -0.0122141 9.4308e-05 424.58 424.58 1001.01 
28 1 1 0.107966 0.035457 0.00997915 0 0 0 0.0014436 0.00942885 0.00132627 -0.000571607 0.000357088 -0.000116684 0.0014436 0.00942885 0.00132627 424.576 424.576 1001.01 
29 1 1 0.142026 0.022775 0.00997779 0 0 0 -0.0855305 -0.0325028 -0.00104019 -0.00199757 -0.000581079 0.0016411 -0.0855305 -0.0325028 -0.00104019 477.389 477.389 1001.13 
30 1 1 0.150565 0.0299685 0.00998332 0 0 0 -0.0763704 -0.0317157 0.00240475 -0.000881023 0.00217468 -0.00384054 -0.0763704 -0.0317157 0.00240475 422.524 422.524 1001 
31 1 1 0.00998779 0.0372307 0.00997411 0 0 0 -0.00108328 0.0174612 -0.00347101 -0.00314507 -0.00134139 0.00527805 -0.00108328 0.0174612 -0.00347101 425.38 425.38 1001.01 
32 1 1 0.0217513 0.0434965 0.00997331 0 0 0 0.0150346 0.00628059 -0.000193695 0.000380888 -0.001536 0.00100359 0.0150346 0.00628059 -0.000193695 408.776 408.776 1000.97 
33 1 1 0.0508982 0.0374796 0.0099776 0 0 0 0.024867 -0.0109077 -0.000643304 -0.000829416 0.000455447 5.42198e-06 0.024867 -0.0109077 -0.000643304 342.069 342.069 1000.81 
34 1 1 0.067958 0.0381668 0.00997919 0 0 0 0.00303038 0.0135205 -0.000296046 0.000416885 -0.00100424 -0.000713574 0.00303038 0.0135205 -0.000296046 394.346 394.346 1000.94 
35 1 1 0.0749242 0.0398926 0.00997814 0 0 0 0.0394544 0.00175541 -5.13825e-06 -0.000590151 -0.000161003 8.76671e-05 0.0394544 0.00175541 -5.13825e-06 394.068 394.068 1000.94 
36 1 1 0.0913368 0.0317609 0.00997617 0 0 0 0.013057 -0.034377 -0.000524787 -0.000433096 -0.000521989 0.00183945 0.013057 -0.034377 -0.000524787 431.88 431.88 1001.03 
37 1 1 0.120731 0.0407114 0.00997742 0 0 0 -0.0319158 0.0137843 -0.00161612 -0.000388971 -4.04706e-05 0.00109777 -0.0319158 0.0137843 -0.00161612 402.118 402.118 1000.95 
38 1 1 0.130597 0.0401399 0.00997908 0 0 0 -0.0671486 0.0382315 -0.000430828 -8.0915e-06 -0.000559092 -0.000189957 -0.0671486 0.0382315 -0.000430828 446.871 446.871 1001.06 
39 1 1 0.144706 0.0436957 0.00997974 0 0 0 -0.0139491 -0.0114149 6.84376e-05 -0.000612793 0.000379162 -0.000826901 -0.0139491 -0.0114149 6.84376e-05 428.378 428.378 1001.02 
40 1 1 0.159159 0.039903 0.00997827 0 0 0 -0.0873611 -0.0112093 0.00369001 0.00126839 -0.000994194 0.00162131 -0.0873611 -0.0112093 0.00369001 437.655 437.655 1001.04 
41 1 1 0.00997439 0.052589 0.00998234 0 0 0 -0.00198682 0.0704176 -0.00130315 0.0106173 -0.000288564 -0.00455434 -0.00198682 0.0704176 -0.00130315 381.945 381.945 1000.91 
42 1 1 0.0354649 0.0500068 0.00997375 0 0 0 -0.0066058 0.000524157 0.00175033 -0.00149352 -0.000261467 0.00139249 -0.0066058 0.000524157 0.00175033 422.067 422.067 1001 
43 1 1 0.0509358 0.050007 0.00997745 0 0 0 -0.000449794 0.000584969 0.00202769 0.000712968 -0.000298286 -0.000167097 -0.000449794 0.000584969 0.00202769 386.638 386.638 1000.92 
44 1 1 0.0701246 0.0499977 0.00997784 0 0 0 -0.0186762 0.000472992 0.000448762 -0.000443729 -0.000301913 -0.000394872 -0.0186762 0.000472992 0.000448762 411.026 411.026 1000.98 
45 1 1 0.0814434 0.049999 0.00997844 0 0 0 -0.0321761 0.000509811 0.000233926 0.00224289 -0.000244454 0.000892926 -0.0321761 0.000509811 0.000233926 401.044 401.044 1000.95 
46 1 1 0.0898757 0.0500002 0.00997641 0 0 0 -0.00405725 0.000431282 5.28037e-05 -0.00183981 -0.000204701 0.00195567 -0.00405725 0.000431282 5.28037e-05 415.162 415.162 1000.99 
47 1 1 0.0972447 0.0499987 0.00998316 0 0 0 -0.00561988 0.000313332 0.000834981 -0.000196194 -0.000158045 -0.00387057 -0.00561988 0.000313332 0.000834981 419.536 419.536 1001 
48 1 1 0.127687 0.0499983 0.00997761 0 0 0 -0.0171154 -1.10053e-05 -0.000346551 -0.00098597 -7.8304e-05 0.00182836 -0.0171154 -1.10053e-05 -0.000346551 407.27 407.27 1000.97 
49 1 1 0.114118 0.0499987 0.00998025 0 0 0 -0.0627861 2.12117e-05 0.000924268 -0.0006084 -7.84147e-05 -0.00171589 -0.0627861 2.12117e-05 0.000924268 444.112 444.112 1001.05 
50 1 1 0.157812 0.050003 0.0099783 0 0 0 -0.0773838 -6.77922e-05 -0.000462233 -0.00182362 -3.30175e-05 0.00114224 -0.0773838 -6.77922e-05 -0.000462233 409.341 409.341 1000.97 
51 1 1 0.00998668 0.0627918 0.0099745 0 0 0 -0.00195796 -0.0173649 -0.00276651 -0.00214014 0.000383615 0.00446452 -0.00195796 -0.0173649 -0.00276651 416.935 416.935 1000.99 
52 1 1 0.0217411 0.0565259 0.00997328 0 0 0 0.014699 -0.00519142 0.000954736 7.43575e-06 0.00135903 0.000806036 0.014699 -0.00519142 0.000954736 406.054 406.054 1000.96 
53 1 1 0.0508693 0.0625481 0.00997671 0 0 0 0.0248641 0.0121403 -0.000465555 -0.000877568 -0.00139168 0.000516988 0.0248641 0.0121403 -0.000465555 350.419 350.419 1000.83 
54 1 1 0.0679555 0.0618278 0.00997856 0 0 0 0.00289112 -0.0125664 -0.000493875 0.000583104 0.000288864 -0.000395447 0.00289112 -0.0125664 -0.000493875 401.884 401.884 1000.95 
55 1 1 0.0749154 0.0601149 0.00997773 0 0 0 0.0392966 -0.000633627 -3.73162e-05 -0.000456848 -0.000375361 0.000255124 0.0392966 -0.000633627 -3.73162e-05 399.842 399.842 1000.95 
56 1 1 0.0913369 0.0682367 0.00997601 0 0 0 0.0126101 0.0349997 -0.0007891 -0.000321835 2.06268e-05 0.00166448 0.0126101 0.0349997 -0.0007891 439.388 439.388 1001.04 
57 1 1 0.120731 0.0592847 0.0099771 0 0 0 -0.0321248 -0.0140016 -0.00123434 -0.000341948 -0.000133813 0.00140616 -0.0321248 -0.0140016 -0.00123434 403.866 403.866 1000.96 
58 1 1 0.130603 0.0598543 0.00997892 0 0 0 -0.0671957 -0.0386561 4.92778e-05 -2.02947e-05 0.00050681 -4.64114e-05 -0.0671957 -0.0386561 4.92778e-05 449.335 449.335 1001.07 
59 1 1 0.144706 0.0563084 0.00997958 0 0 0 -0.0138514 0.0111933 0.000259567 -0.000568378 -0.000480214 -0.000679903 -0.0138514 0.0111933 0.000259567 429.403 429.403 1001.02 
60 1 1 0.159155 0.0601097 0.00997851 0 0 0 -0.0872615 0.0112349 0.00410392 0.00129703 0.000932383 0.0013741 -0.0872615 0.0112349 0.00410392 439.121 439.121 1001.04 
61 1 1 0.00998901 0.0748521 0.00997069 0 0 0 0.00857243 -0.0036137 -0.00118712 -0.005175 -0.00101277 0.00902448 0.00857243 -0.0036137 -0.00118712 462.682 462.682 1001.1 
62 1 1 0.0372765 0.0621363 0.00997549 0 0 0 0.0141449 -0.0106628 -0.000634947 -0.000291618 -0.00138263 0.00116103 0.0141449 -0.0106628 -0.000634947 405.685 405.685 1000.96 
63 1 1 0.0556353 0.0622134 0.00997841 0 0 0 -0.0339823 -0.0116335 -0.00162507 -0.000232011 -0.00157422 -0.00112672 -0.0339823 -0.0116335 -0.00162507 365.68 365.68 1000.87 
64 1 1 0.0791196 0.0707316 0.00997769 0 0 0 0.0273689 -0.00780731 -0.000880702 0.000555709 -0.000108256 0.000413938 0.0273689 -0.00780731 -0.000880702 427.909 427.909 1001.02 
65 1 1 0.100734 0.0685736 0.00997725 0 0 0 0.0230029 -0.0603577 0.000545114 -0.000239111 -0.000505776 0.00118817 0.0230029 -0.0603577 0.000545114 422.7 422.7 1001 
66 1 1 0.110342 0.0755001 0.00998289 0 0 0 -0.023611 -0.0202972 -0.000294826 -0.00208446 0.00294313 -0.00336893 -0.023611 -0.0202972 -0.000294826 479.445 479.445 1001.14 
67 1 1 0.137956 0.0574988 0.00997954 0 0 0 -0.0290029 0.011806 0.000460569 -0.00165411 -0.000349086 -0.000976667 -0.0290029 0.011806 0.000460569 426.878 426.878 1001.01 
68 1 1 0.107966 0.0645404 0.00997894 0 0 0 0.000904895 -0.00932162 0.00138984 -0.000527534 -0.000907743 -1.76938e-05 0.000904895 -0.00932162 0.00138984 427.622 427.622 1001.02 
69 1 1 0.142037 0.0772128 0.00997769 0 0 0 -0.0853832 0.0324535 3.97168e-05 -0.00205444 0.00101112 0.00174699 -0.0853832 0.0324535 3.97168e-05 480.839 480.839 1001.14 
70 1 1 0.150564 0.0700337 0.00998324 0 0 0 -0.0763113 0.0316715 0.00263243 -0.000853588 -0.0021572 -0.00378069 -0.0763113 0.0316715 0.00263243 423.354 423.354 1001 
71 1 1 0.00998324 0.077322 0.00997378 0 0 0 -0.00619049 0.0280644 0.00540335 0.000924501 0.00163474 0.00572529 -0.00619049 0.0280644 0.00540335 451.851 451.851 1001.07 
72 1 1 0.0273012 0.0680535 0.00997572 0 0 0 -0.0150222 -0.00226693 -0.00070452 -0.00177838 -0.000437971 0.00116359 -0.0150222 -0.00226693 -0.00070452 430.151 430.151 1001.02 
73 1 1 0.02707 0.0767563 0.00997479 0 0 0 -0.0403854 0.0112561 0.00180311 -0.00211843 0.000652226 0.00329485 -0.0403854 0.0112561 0.00180311 457.163 457.163 1001.08 
74 1 1 0.0896831 0.0761917 0.00998107 0 0 0 0.0141793 -0.0236073 -0.00248064 0.000612927 0.000675095 -0.00300003 0.0141793 -0.0236073 -0.00248064 429.291 429.291 1001.02 
75 1 1 0.0762818 0.0778958 0.00997821 0 0 0 -0.0289647 0.00669298 -0.00146178 1.83798e-05 -0.000652134 0.000832689 -0.0289647 0.00669298 -0.00146178 401.227 401.227 1000.95 
76 1 1 0.103415 0.0766746 0.00998325 0 0 0 -0.0411944 0.0382182 0.000540032 -0.000428402 0.000661428 -0.00321757 -0.0411944 0.0382182 0.000540032 432.883 432.883 1001.03 
77 1 1 0.101209 0.0576615 0.00998239 0 0 0 -0.076663 -0.0247918 0.00117516 0.000536264 0.000904095 -0.00281972 -0.076663 -0.0247918 0.00117516 434.363 434.363 1001.03 
78 1 1 0.127179 0.0652355 0.00997845 0 0 0 -0.0225407 0.0075883 -0.000438173 -0.000185562 -0.000629843 0.000373848 -0.0225407 0.0075883 -0.000438173 437.87 437.87 1001.04 
79 1 1 0.114024 0.0748052 0.00997943 0 0 0 -0.0423361 -0.00669986 -0.00115701 0.00120027 0.0016452 -0.000311691 -0.0423361 -0.00669986 -0.00115701 461.176 461.176 1001.09 
80 1 1 0.156346 0.0778567 0.00998386 0 0 0 -0.150675 0.0223352 0.00170001 -0.000213319 0.0004879 -0.0047186 -0.150675 0.0223352 0.00170001 471.31 471.31 1001.12 
81 1 1 0.00999605 0.0899995 0.00996869 0 0 0 -0.0127585 -0.00363778 0.00272002 -0.0100195 0.024425 0.0168323 -0.0127585 -0.00363778 0.00272002 478.241 478.241 1001.13 
82 1 1 0.0294111 0.0900054 0.00996518 0 0 0 -0.0114974 0.00291538 -0.000976368 -0.00246497 0.00996843 0.0160146 -0.0114974 0.00291538 -0.000976368 510.691 510.691 1001.21 
83 1 1 0.0235534 0.0900137 0.00998076 0 0 0 -0.0282953 0.00236109 0.00240462 -0.000604836 7.39623e-07 0.00149095 -0.0282953 0.00236109 0.00240462 507.014 507.014 1001.2 
84 1 1 0.0639943 0.0900184 0.0099877 0 0 0 -0.0685629 -0.00545131 -0.0048825 -0.00017359 -0.00393656 -0.0056677 -0.0685629 -0.00545131 -0.0048825 493.118 493.118 1001.17 
85 1 1 0.069577 0.0900146 0.00997894 0 0 0 -0.0561971 -0.0111007 -0.0107961 -0.00302283 -0.000889895 0.00187516 -0.0561971 -0.0111007 -0.0107961 508.831 508.831 1001.21 
86 1 1 0.0890088 0.0900132 0.00997892 0 0 0 -0.162615 -0.00056478 -0.00576184 -0.000319319 -0.00115257 0.00466102 -0.162615 -0.00056478 -0.00576184 565.346 565.346 1001.34 
87 1 1 0.103377 0.090023 0.00998606 0 0 0 -0.130781 0.00207073 -0.00516924 -0.00128241 -0.011797 0.000335899 -0.130781 0.00207073 -0.00516924 584.16 584.16 1001.39 
88 1 1 0.113181 0.0900108 0.00998424 0 0 0 -0.208528 0.00315855 -0.00284014 0.000308653 -0.00015655 0.000502837 -0.208528 0.00315855 -0.00284014 580.014 580.014 1001.38 
89 1 1 0.122031 0.0900178 0.00997918 0 0 0 -0.184705 -0.00354318 -0.00268616 -0.000129347 -0.00466222 0.00672721 -0.184705 -0.00354318 -0.00268616 559.641 559.641 1001.33 
90 1 1 0.136519 0.090014 0.0099925 0 0 0 -0.172736 0.00251398 0.00827743 -0.00196877 -0.00252188 -0.00445865 -0.172736 0.00251398 0.00827743 591.664 591.664 1001.4 
91 1 1 0.00999818 0.00999008 0.00997162 0 0 0 0.0162536 -0.00638467 -0.0176861 -0.0121401 -0.000227987 0.0128653 0.0162536 -0.00638467 -0.0176861 463.993 463.993 1001.1 
92 1 1 0.0212777 0.00998834 0.00997218 0 0 0 0.0231773 -0.00125662 0.00244066 -0.000142366 -0.00106675 0.0101927 0.0231773 -0.00125662 0.00244066 489.865 489.865 1001.16 
93 1 1 0.0349982 0.00998256 0.00998863 0 0 0 0.0291495 0.00428288 0.00833862 -0.000142076 0.00255018 -0.00723773 0.0291495 0.00428288 0.00833862 535.756 535.756 1001.27 
94 1 1 0.0446198 0.00998647 0.00998564 0 0 0 -0.00660186 0.00838736 -0.0147552 -8.05457e-05 -0.000169838 -0.0027788 -0.00660186 0.00838736 -0.0147552 439.479 439.479 1001.04 
95 1 1 0.0743281 0.00999167 0.0099745 0 0 0 -0.0975845 0.00585224 -0.00564622 -0.00343899 -0.00431115 0.00758429 -0.0975845 0.00585224 -0.00564622 513.437 513.437 1001.22 
96 1 1 0.0987273 0.00999895 0.00998344 0 0 0 -0.175553 -0.00361055 0.00671731 -0.0018653 -0.0105564 0.00260754 -0.175553 -0.00361055 0.00671731 567.627 567.627 1001.35 
97 1 1 0.107812 0.00998478 0.00998317 0 0 0 -0.11548 6.44002e-05 0.00878108 0.000829943 0.00507127 0.00295673 -0.11548 6.44002e-05 0.00878108 615.242 615.242 1001.46 
98 1 1 0.11672 0.00998274 0.00998511 0 0 0 -0.114653 -0.00337328 -0.00244863 0.00133643 0.00625697 -0.000168165 -0.114653 -0.00337328 -0.00244863 550.754 550.754 1001.31 
99 1 1 0.127078 0.0099911 0.00998161 0 0 0 -0.175977 0.00870176 -0.00446479 -0.00328945 -0.00492315 0.00549331 -0.175977 0.00870176 -0.00446479 594.568 594.568 1001.41 
100 1 1 0.131106 0.00999266 0.00998236 0 0 0 -0.143526 -0.00402476 0.00900731 -0.000450899 -0.00555245 0.00555469 -0.143526 -0.00402476 0.00900731 599.138 599.138 1001.42 
101 1 1 0.00999431 0.0229678 0.0248965 0 0 0 2.03652e-05 0.0376764 0.00626646 -0.00770529 -0.000445795 -0.00454214 2.03652e-05 0.0376764 0.00626646 270.389 270.389 1000.64 
102 1 1 0.0207563 0.0231514 0.00997363 0 0 0 -0.00393213 0.00439574 0.000326827 0.000843678 -0.00169832 0.00407389 -0.00393213 0.00439574 0.000326827 501.669 501.669 1001.19 
103 1 1 0.03926 0.0221253 0.0226074 0 0 0 -0.0866668 -0.0259374 0.0151019 -0.000531035 0.000185521 -0.000726864 -0.0866668 -0.0259374 0.0151019 239.33 239.33 1000.57 
104 1 1 0.087006 0.022018 0.0307356 0 0 0 0.0315116 -0.00294862 0.0445437 0.000741609 -0.000721515 -0.000369162 0.0315116 -0.00294862 0.0445437 194.042 194.042 1000.46 
105 1 1 0.128281 0.0217881 0.0427025 0 0 0 -0.0171298 -0.0107699 0.00521805 5.27125e-05 -0.000629715 -0.000556612 -0.0171298 -0.0107699 0.00521805 111.832 111.832 1000.27 
106 1 1 0.125092 0.0220081 0.00998939 0 0 0 -0.00337826 0.00438867 -0.00996297 -0.00158464 0.00189033 -0.00869679 -0.00337826 0.00438867 -0.00996297 445.238 445.238 1001.06 
107 1 1 0.173965 0.022279 0.0250528 0 0 0 -0.0516071 0.0323776 0.0494902 -0.000850947 -0.000389588 -0.000906667 -0.0516071 0.0323776 0.0494902 294.515 294.515 1000.7 
108 1 1 0.135353 0.0276949 0.00997762 0 0 0 -0.0227385 0.0323431 0.00272672 -0.000351081 -0.000377647 0.0024705 -0.0227385 0.0323431 0.00272672 449.78 449.78 1001.07 
109 1 1 0.194759 0.022927 0.022544 0 0 0 0.00724562 -0.0308512 0.0269697 -0.00126493 0.000372095 -0.000416728 0.00724562 -0.0308512 0.0269697 337.521 337.521 1000.8 
110 1 1 0.17715 0.0234194 0.00997826 0 0 0 -0.141734 -0.0171326 -0.00224127 -0.000379704 -5.77517e-05 -0.000257431 -0.141734 -0.0171326 -0.00224127 486.054 486.054 1001.15 
111 1 1 0.00998386 0.0316744 0.00997849 0 0 0 0.00147626 -0.0211771 -0.00195368 3.63551e-05 -0.00114136 0.0023498 0.00147626 -0.0211771 -0.00195368 426.512 426.512 1001.01 
112 1 1 0.0217898 0.0222623 0.0361777 0 0 0 -0.0212966 0.0382703 0.105067 -0.000414323 -0.000358607 -0.00102255 -0.0212966 0.0382703 0.105067 221.959 221.959 1000.53 
113 1 1 0.0429024 0.0326373 0.00997574 0 0 0 -0.0314347 -0.0354486 -0.000320251 0.000827664 -0.000200522 0.00220235 -0.0314347 -0.0354486 -0.000320251 390.802 390.802 1000.93 
114 1 1 0.0546586 0.0229128 0.0099785 0 0 0 0.00446081 -0.00429831 -5.67396e-05 5.42204e-05 -0.000492884 0.000429699 0.00446081 -0.00429831 -5.67396e-05 352.248 352.248 1000.84 
115 1 1 0.0864499 0.0214901 0.0225638 0 0 0 -0.0191116 0.0142051 -0.00347599 -0.00061661 -0.000100434 -0.0003195 -0.0191116 0.0142051 -0.00347599 215.563 215.563 1000.51 
116 1 1 0.0944556 0.0401997 0.00997892 0 0 0 -0.0282985 -0.0372623 0.000314582 0.000732787 -0.00168978 -8.64394e-05 -0.0282985 -0.0372623 0.000314582 440.707 440.707 1001.05 
117 1 1 0.168686 0.0296138 0.0251353 0 0 0 -0.0253299 -0.0107669 -0.0484296 -1.10529e-06 5.647e-05 -0.00110702 -0.0253299 -0.0107669 -0.0484296 269.627 269.627 1000.64 
118 1 1 0.187086 0.0196233 0.0230123 0 0 0 0.00247153 0.0389417 -0.0213424 -0.000219594 0.00267535 0.00113003 0.00247153 0.0389417 -0.0213424 296.288 296.288 1000.7 
119 1 1 0.147003 0.0243496 0.0099799 0 0 0 -0.0730117 0.00358293 -0.00110655 0.000638155 -0.00153453 -0.000825454 -0.0730117 0.00358293 -0.00110655 519.674 519.674 1001.23 
120 1 1 0.200744 0.0216899 0.0254784 0 0 0 -0.0176662 0.0304421 -0.0150306 -0.00108013 0.000245239 -0.00110418 -0.0176662 0.0304421 -0.0150306 306.533 306.533 1000.73 
121 1 1 0.00999313 0.041701 0.0099745 0 0 0 -0.00166992 0.023978 0.00225647 -0.00820295 0.000732039 0.00392526 -0.00166992 0.023978 0.00225647 420.773 420.773 1001 
122 1 1 0.02106 0.0340283 0.00997089 0 0 0 -0.0650197 -0.0418887 -0.000897366 0.00051086 0.00129566 0.00515671 -0.0650197 -0.0418887 -0.000897366 444.566 444.566 1001.06 
123 1 1 0.0340534 0.0214844 0.00997507 0 0 0 -0.0209003 -0.0158824 -0.00434323 0.000140773 0.00235591 0.00363461 -0.0209003 -0.0158824 -0.00434323 385.916 385.916 1000.92 
124 1 1 0.0713519 0.0290654 0.00997913 0 0 0 -0.0131377 0.00372877 -0.00140254 -0.000887454 -0.000660504 -0.00120023 -0.0131377 0.00372877 -0.00140254 407.152 407.152 1000.97 
125 1 1 0.0814825 0.038456 0.0099766 0 0 0 -0.0358289 -0.0433983 -0.00085269 -0.00079169 -0.000749952 0.000741848 -0.0358289 -0.0433983 -0.00085269 401.961 401.961 1000.95 
126 1 1 0.117773 0.035562 0.00997878 0 0 0 -0.0230608 -0.00222803 -0.00201625 -0.000384398 0.000751188 -0.00028123 -0.0230608 -0.00222803 -0.00201625 409.591 409.591 1000.97 
127 1 1 0.147811 0.038343 0.0099801 0 0 0 -0.0537648 0.0172603 0.00059918 -5.02894e-05 -0.00209698 -0.00100689 -0.0537648 0.0172603 0.00059918 414.501 414.501 1000.98 
128 1 1 0.138747 0.0331067 0.00997868 0 0 0 -0.0930714 0.0087963 -0.000538347 0.000390718 0.00170798 0.000334231 -0.0930714 0.0087963 -0.000538347 406.275 406.275 1000.96 
129 1 1 0.131151 0.0231782 0.00997802 0 0 0 -0.0920004 -0.0146928 0.00151972 0.00199368 0.000297269 0.00333916 -0.0920004 -0.0146928 0.00151972 471.554 471.554 1001.12 
130 1 1 0.176017 0.0313133 0.00997728 0 0 0 -0.0624108 0.0277979 0.000111553 0.000589489 -0.000938381 0.0018522 -0.0624108 0.0277979 0.000111553 461.661 461.661 1001.1 
131 1 1 0.00998165 0.0474902 0.00997957 0 0 0 0.00717106 -0.0669476 0.00171162 0.00310535 0.0011063 -0.00187356 0.00717106 -0.0669476 0.00171162 420.353 420.353 1001 
132 1 1 0.0227122 0.0500181 0.00997486 0 0 0 0.0302342 0.00115951 -0.000646506 -0.00155895 5.4624e-05 0.000499393 0.0302342 0.00115951 -0.000646506 419.286 419.286 1001 
133 1 1 0.0442406 0.0499962 0.00997472 0 0 0 -0.0711477 0.000228983 -0.00197657 -0.000982749 -0.000314069 0.00136718 -0.0711477 0.000228983 -0.00197657 421.767 421.767 1001 
134 1 1 0.07737 0.050002 0.00997969 0 0 0 0.068323 0.0005056 0.000117098 -0.00177945 -0.000265944 -0.000135946 0.068323 0.0005056 0.000117098 390.228 390.228 1000.93 
135 1 1 0.120027 0.0499994 0.00998077 0 0 0 -0.0415926 -1.50666e-05 0.00088441 -0.00036954 -7.09238e-05 -0.00198956 -0.0415926 -1.50666e-05 0.00088441 412.645 412.645 1000.98 
136 1 1 0.131083 0.0499984 0.0246072 0 0 0 -0.00601967 -3.13293e-05 0.0625287 0.000632567 -9.95126e-06 -0.00109709 -0.00601967 -3.13293e-05 0.0625287 234.548 234.548 1000.56 
137 1 1 0.163219 0.0499993 0.021279 0 0 0 -0.0591034 -9.69173e-05 -0.000637611 7.74672e-05 2.11178e-06 0.000522382 -0.0591034 -9.69173e-05 -0.000637611 291.799 291.799 1000.69 
138 1 1 0.132692 0.0499979 0.00998005 0 0 0 -0.0287513 -9.4708e-05 0.000420789 0.00157745 -9.1227e-05 -0.000261968 -0.0287513 -9.4708e-05 0.000420789 412.804 412.804 1000.98 
139 1 1 0.147138 0.05 0.00998014 0 0 0 -0.0877471 -7.59721e-05 -0.00169424 0.000957063 -6.34322e-05 -0.000723278 -0.0877471 -7.59721e-05 -0.00169424 438.593 438.593 1001.04 
140 1 1 0.214703 0.05 0.0256162 0 0 0 0.0626829 -4.07849e-05 -0.0138125 -0.000188299 -1.21437e-05 0.000383681 0.0626829 -4.07849e-05 -0.0138125 298.444 298.444 1000.71 
141 1 1 0.00999178 0.0583642 0.00997465 0 0 0 -0.00257097 -0.022458 0.0027172 -0.00686465 -0.000968915 0.0035559 -0.00257097 -0.022458 0.0027172 410.905 410.905 1000.98 
142 1 1 0.0210386 0.0659727 0.00997076 0 0 0 -0.0642587 0.0422042 0.000318192 0.000312133 -0.00218898 0.00472773 -0.0642587 0.0422042 0.000318192 443.543 443.543 1001.05 
143 1 1 0.0340132 0.0785731 0.00997505 0 0 0 -0.022224 0.0186128 -0.00578446 -6.9829e-05 -0.00313856 0.00311106 -0.022224 0.0186128 -0.00578446 406.204 406.204 1000.96 
144 1 1 0.0713402 0.0709281 0.00997823 0 0 0 -0.0134684 -0.00305191 -0.00191484 -0.000381141 -8.75219e-05 -0.000891488 -0.0134684 -0.00305191 -0.00191484 420.084 420.084 1001 
145 1 1 0.0814783 0.0615427 0.00997628 0 0 0 -0.0359169 0.0442607 -0.0010139 -0.000674216 0.000305408 0.000781053 -0.0359169 0.0442607 -0.0010139 407.458 407.458 1000.97 
146 1 1 0.117771 0.0644395 0.00997847 0 0 0 -0.0233685 0.00208211 -0.00172603 -0.000197567 -0.00117797 3.48743e-06 -0.0233685 0.00208211 -0.00172603 411.186 411.186 1000.98 
147 1 1 0.147803 0.0616591 0.00997976 0 0 0 -0.0537251 -0.0174815 0.000832163 -1.92304e-06 0.00204459 -0.000676658 -0.0537251 -0.0174815 0.000832163 415.381 415.381 1000.99 
148 1 1 0.138755 0.0669031 0.00997836 0 0 0 -0.09288 -0.00880547 0.000227512 0.000368854 -0.00167491 0.000649528 -0.09288 -0.00880547 0.000227512 408.739 408.739 1000.97 
149 1 1 0.13119 0.0768428 0.00997752 0 0 0 -0.0919378 0.0159221 0.000887342 0.00222056 3.38738e-05 0.00398269 -0.0919378 0.0159221 0.000887342 468.434 468.434 1001.11 
150 1 1 0.176015 0.0686886 0.0099773 0 0 0 -0.0624455 -0.0279114 0.000209544 0.000621937 0.000857252 0.00182223 -0.0624455 -0.0279114 0.000209544 463.249 463.249 1001.1 
151 1 1 0.00998355 0.0684117 0.00997897 0 0 0 0.00430345 0.0225717 -0.00155883 3.74879e-05 -7.5578e-06 0.00132983 0.00430345 0.0225717 -0.00155883 432.756 432.756 1001.03 
152 1 1 0.0217489 0.0777889 0.036538 0 0 0 -0.0206574 -0.0352244 0.0972251 -0.000712062 -0.000969443 0.00109545 -0.0206574 -0.0352244 0.0972251 213.06 213.06 1000.51 
153 1 1 0.0428884 0.0673698 0.00997467 0 0 0 -0.0331352 0.0367015 -0.000276021 0.000471119 -0.000617311 0.0029852 -0.0331352 0.0367015 -0.000276021 401.946 401.946 1000.95 
154 1 1 0.0546512 0.0771079 0.00997769 0 0 0 0.00505388 0.00566096 0.000130633 -0.000103451 0.000424084 0.000549702 0.00505388 0.00566096 0.000130633 384.637 384.637 1000.91 
155 1 1 0.0864469 0.0785002 0.0225367 0 0 0 -0.0191287 -0.0145977 -0.0054094 -0.000447753 -0.000153265 6.22912e-05 -0.0191287 -0.0145977 -0.0054094 227.743 227.743 1000.54 
156 1 1 0.094456 0.0598003 0.00997881 0 0 0 -0.0286562 0.0378607 0.000216046 0.000847039 0.00132527 -0.00012401 -0.0286562 0.0378607 0.000216046 443.974 443.974 1001.05 
157 1 1 0.168686 0.0703866 0.025135 0 0 0 -0.0252899 0.0107117 -0.0482954 3.00673e-06 -0.00010023 -0.00107977 -0.0252899 0.0107117 -0.0482954 269.783 269.783 1000.64 
158 1 1 0.187086 0.0803763 0.0230123 0 0 0 0.00247155 -0.0390354 -0.0211864 -0.000198325 -0.0026986 0.00116161 0.00247155 -0.0390354 -0.0211864 296.376 296.376 1000.7 
159 1 1 0.146998 0.0756478 0.00997995 0 0 0 -0.0734652 -0.00349986 -0.000314374 0.000644522 0.0018645 -0.000900395 -0.0734652 -0.00349986 -0.000314374 522.043 522.043 1001.24 
160 1 1 0.200744 0.0783096 0.0254783 0 0 0 -0.017711 -0.0304981 -0.014936 -0.00109231 -0.000269779 -0.00112922 -0.017711 -0.0304981 -0.014936 306.451 306.451 1000.73 
161 1 1 0.00998204 0.0766927 0.0249781 0 0 0 -0.00487806 -0.033972 -0.000759031 0.00369053 0.00224297 -0.00341242 -0.00487806 -0.033972 -0.000759031 277.907 277.907 1000.66 
162 1 1 0.0207962 0.076844 0.00997325 0 0 0 -0.00308303 0.000408842 0.00329381 0.000565065 0.00134818 0.0036692 -0.00308303 0.000408842 0.00329381 520.236 520.236 1001.23 
163 1 1 0.0392369 0.0778493 0.0226753 0 0 0 -0.0865853 0.0275903 0.0158012 -0.00063784 -0.000485929 0.000100598 -0.0865853 0.0275903 0.0158012 257.579 257.579 1000.61 
164 1 1 0.0869987 0.0779836 0.0307333 0 0 0 0.0311621 0.0032109 0.0443947 0.00100419 0.000608936 0.000139626 0.0311621 0.0032109 0.0443947 199.029 199.029 1000.47 
165 1 1 0.128275 0.0782089 0.0426988 0 0 0 -0.017047 0.0106946 0.0049719 -4.8307e-05 0.000598195 -0.000607416 -0.017047 0.0106946 0.0049719 116.592 116.592 1000.28 
166 1 1 0.12508 0.07799 0.00999003 0 0 0 -0.00381229 -0.00405231 -0.00925002 -0.000765614 -0.00164584 -0.00928906 -0.00381229 -0.00405231 -0.00925002 455.236 455.236 1001.08 
167 1 1 0.173964 0.0777206 0.0250526 0 0 0 -0.0515715 -0.0324222 0.049641 -0.000838516 0.000373298 -0.000855778 -0.0515715 -0.0324222 0.049641 295.172 295.172 1000.7 
168 1 1 0.135298 0.0722868 0.00997719 0 0 0 -0.0227977 -0.0335232 0.00277173 -0.000300099 0.00048864 0.00296318 -0.0227977 -0.0335232 0.00277173 449.239 449.239 1001.07 
169 1 1 0.194759 0.0770734 0.0225441 0 0 0 0.00722413 0.03079 0.0270368 -0.00126307 -0.000388865 -0.00040368 0.00722413 0.03079 0.0270368 337.426 337.426 1000.8 
170 1 1 0.177149 0.0765795 0.00997815 0 0 0 -0.141648 0.0170321 -0.00220441 -0.000302352 2.41251e-05 -0.000165236 -0.141648 0.0170321 -0.00220441 487.656 487.656 1001.16 
171 1 1 0.00998301 0.0900164 0.00998779 0 0 0 -0.00705634 0.00731985 0.0091629 0.00294971 -0.00559806 -0.0022817 -0.00705634 0.00731985 0.0091629 474.126 474.126 1001.13 
172 1 1 0.0212995 0.090013 0.00997541 0 0 0 0.0184062 0.00356715 -0.00572176 -0.000918091 0.000449047 0.00703138 0.0184062 0.00356715 -0.00572176 479.765 479.765 1001.14 
173 1 1 0.034947 0.0900201 0.00998511 0 0 0 0.0261767 -0.00649463 0.00700021 -0.000299115 -0.00424982 -0.00383561 0.0261767 -0.00649463 0.00700021 561.735 561.735 1001.33 
174 1 1 0.0446082 0.0900121 0.00998384 0 0 0 -0.00816549 -0.00680863 -0.0150292 9.37673e-05 0.00241985 -0.00144931 -0.00816549 -0.00680863 -0.0150292 454.59 454.59 1001.08 