ITEM: TIMESTEP
190000
ITEM: NUMBER OF ATOMS
2655
ITEM: BOX BOUNDS ff ff ff
0 0.5
0 0.1
0 0.5
ITEM: ATOMS id type type x y z ix iy iz vx vy vz fx fy fz vx vy vz p p rho 
1 1 1 0.00998358 0.0099846 0.00997602 0 0 0 8.69688e-05 0.00523936 -0.00463799 0.00317208 0.000559618 0.000248552 8.69688e-05 0.00523936 -0.00463799 413.021 413.021 1000.98 
2 1 1 0.0418067 0.0099896 0.00997491 0 0 0 -0.0180825 0.00569487 -0.00505462 0.000177553 -0.00414749 0.00406717 -0.0180825 0.00569487 -0.00505462 403.581 403.581 1000.96 
3 1 1 0.037814 0.00998475 0.00997923 0 0 0 -0.0105302 0.00672219 -0.00705505 -0.000614971 0.000813344 0.000224213 -0.0105302 0.00672219 -0.00705505 404.36 404.36 1000.96 
4 1 1 0.0738551 0.00997898 0.00998548 0 0 0 -0.0159194 0.00180101 -0.00267205 -0.000206066 0.00662021 -0.00627401 -0.0159194 0.00180101 -0.00267205 398.385 398.385 1000.95 
5 1 1 0.0781555 0.00998958 0.00997469 0 0 0 -0.0219229 0.00088739 0.000618511 0.000130687 -0.00422407 0.00428061 -0.0219229 0.00088739 0.000618511 403.294 403.294 1000.96 
6 1 1 0.0963606 0.0099851 0.00997802 0 0 0 -0.0180577 0.00505617 -0.00503046 -9.76288e-05 -1.6811e-05 0.000755159 -0.0180577 0.00505617 -0.00503046 397.966 397.966 1000.94 
7 1 1 0.109625 0.00998885 0.00997391 0 0 0 -0.0295676 0.0017341 -0.00125376 0.000161799 -0.00427951 0.00460797 -0.0295676 0.0017341 -0.00125376 394.667 394.667 1000.94 
8 1 1 0.118512 0.00998338 0.00998035 0 0 0 -0.0294135 -0.00049087 0.000569566 0.000341755 0.00114443 -0.00140345 -0.0294135 -0.00049087 0.000569566 391.816 391.816 1000.93 
9 1 1 0.127861 0.00998392 0.00997999 0 0 0 -0.044225 -0.0037088 0.00364976 -0.000104935 0.000436345 -0.00144193 -0.044225 -0.0037088 0.00364976 385.48 385.48 1000.92 
10 1 1 0.141397 0.00998078 0.00998195 0 0 0 -0.0342889 -0.000969972 0.000601345 -1.02515e-05 0.0031255 -0.00343148 -0.0342889 -0.000969972 0.000601345 385.671 385.671 1000.92 
11 1 1 0.00998429 0.0208444 0.00997522 0 0 0 0.00569191 -0.0103051 -0.00273375 0.00191706 0.000287103 -0.000889732 0.00569191 -0.0103051 -0.00273375 409.886 409.886 1000.97 
12 1 1 0.0377737 0.0377007 0.00997713 0 0 0 -0.00256695 -0.00809544 0.000570798 0.000139768 -0.000422239 -0.000130824 -0.00256695 -0.00809544 0.000570798 379.664 379.664 1000.9 
13 1 1 0.0228343 0.0218613 0.00997417 0 0 0 -0.00674244 -0.0111265 0.00183502 -0.000773804 -0.000378262 0.00240984 -0.00674244 -0.0111265 0.00183502 406.442 406.442 1000.96 
14 1 1 0.0878404 0.0218962 0.00997591 0 0 0 -0.0310279 -0.0194702 0.00121724 -8.48633e-05 0.000617066 0.000780755 -0.0310279 -0.0194702 0.00121724 387.829 387.829 1000.92 
15 1 1 0.0785521 0.0226852 0.00997726 0 0 0 -0.014605 -0.026663 0.000587013 8.66113e-05 -0.000356142 -0.000900671 -0.014605 -0.026663 0.000587013 381.143 381.143 1000.91 
16 1 1 0.105604 0.0231134 0.00997552 0 0 0 -0.033255 -0.00272536 0.000117745 0.00011665 -0.000281233 0.00111766 -0.033255 -0.00272536 0.000117745 377.993 377.993 1000.9 
17 1 1 0.110282 0.0418892 0.00997658 0 0 0 -0.00206652 -0.00962423 0.000106754 2.55132e-05 0.000192582 -0.000155455 -0.00206652 -0.00962423 0.000106754 371.808 371.808 1000.88 
18 1 1 0.139722 0.0308433 0.00997728 0 0 0 -0.0277516 -0.0126221 0.000131381 -0.000644391 -6.30087e-05 -0.000173261 -0.0277516 -0.0126221 0.000131381 380.344 380.344 1000.9 
19 1 1 0.11804 0.0237227 0.00997775 0 0 0 -0.0406822 0.00500356 0.00038467 -0.000234995 -0.000523983 -0.000733207 -0.0406822 0.00500356 0.00038467 381.995 381.995 1000.91 
20 1 1 0.153989 0.0221414 0.00997758 0 0 0 -0.0423513 -0.00562856 0.000195351 0.000390521 7.87038e-05 -0.000206705 -0.0423513 -0.00562856 0.000195351 390.348 390.348 1000.93 
21 1 1 0.00998073 0.02847 0.00998017 0 0 0 -0.00753631 -0.000277863 0.00503442 0.0051 -0.000382696 -0.00578449 -0.00753631 -0.000277863 0.00503442 397.675 397.675 1000.94 
22 1 1 0.0354627 0.0255381 0.00997616 0 0 0 -0.0298393 -0.0145498 -0.000565272 -0.000503264 -7.34443e-05 0.000649638 -0.0298393 -0.0145498 -0.000565272 373.378 373.378 1000.89 
23 1 1 0.0714915 0.0465639 0.00997658 0 0 0 -0.00894833 -0.000767116 0.000172847 -0.000133836 0.000215858 -6.29532e-05 -0.00894833 -0.000767116 0.000172847 367.691 367.691 1000.87 
24 1 1 0.0961742 0.0309868 0.00997712 0 0 0 -0.0208908 0.00805777 0.00010745 -0.000271751 -0.000101799 -0.000404114 -0.0208908 0.00805777 0.00010745 375.748 375.748 1000.89 
25 1 1 0.117347 0.0385291 0.00997683 0 0 0 -0.0311295 0.0228731 6.20141e-05 -0.000488836 -0.000254658 -0.0001222 -0.0311295 0.0228731 6.20141e-05 375.468 375.468 1000.89 
26 1 1 0.112123 0.0217641 0.00997686 0 0 0 -0.040646 0.000931058 0.00041491 -0.000355624 0.000257942 1.11645e-05 -0.040646 0.000931058 0.00041491 382.759 382.759 1000.91 
27 1 1 0.137666 0.0428846 0.00997702 0 0 0 -0.0115116 -0.0164342 0.000149182 0.000124943 -0.000386817 -0.000194358 -0.0115116 -0.0164342 0.000149182 372.078 372.078 1000.88 
28 1 1 0.116098 0.0314824 0.00997693 0 0 0 -0.0111843 0.0113093 9.74876e-05 5.30105e-05 0.000104185 -0.000186899 -0.0111843 0.0113093 9.74876e-05 376.107 376.107 1000.89 
29 1 1 0.14201 0.0223318 0.00997741 0 0 0 -0.0432134 -0.00214676 7.60543e-05 7.45991e-05 0.000352099 -0.00021335 -0.0432134 -0.00214676 7.60543e-05 383.739 383.739 1000.91 
30 1 1 0.15164 0.0308417 0.00997753 0 0 0 -0.0154103 -0.00535628 4.11703e-05 -0.000265787 -6.72168e-05 -0.000155649 -0.0154103 -0.00535628 4.11703e-05 385.205 385.205 1000.91 
31 1 1 0.00999038 0.0379159 0.00996946 0 0 0 0.0065154 0.00527258 -0.00374614 -0.00469547 0.000436398 0.00543441 0.0065154 0.00527258 -0.00374614 402.887 402.887 1000.96 
32 1 1 0.0225984 0.0404436 0.0099755 0 0 0 -0.00968112 -0.00858028 -0.000311293 -0.000417911 0.000197657 0.00105119 -0.00968112 -0.00858028 -0.000311293 395.596 395.596 1000.94 
33 1 1 0.0597922 0.0217863 0.00997603 0 0 0 -0.00109616 0.00475315 0.000285815 -0.000247759 0.000204564 0.000225958 -0.00109616 0.00475315 0.000285815 380.143 380.143 1000.9 
34 1 1 0.0650615 0.0344001 0.00997668 0 0 0 -0.0269084 -0.0265881 0.000159218 -0.00038314 0.000123751 -0.000109821 -0.0269084 -0.0265881 0.000159218 376.741 376.741 1000.89 
35 1 1 0.0846433 0.0355311 0.00997683 0 0 0 -0.0188128 0.000690672 -6.55372e-05 0.00027386 0.000307701 -0.000177069 -0.0188128 0.000690672 -6.55372e-05 376.008 376.008 1000.89 
36 1 1 0.10784 0.0307804 0.0099773 0 0 0 -0.00549975 -0.0121071 8.6906e-05 -0.000447497 0.000259273 -0.000219004 -0.00549975 -0.0121071 8.6906e-05 373.672 373.672 1000.89 
37 1 1 0.127955 0.0369148 0.00997706 0 0 0 -0.0325684 -0.00748765 8.90044e-05 -0.000248323 0.000226966 -0.000212039 -0.0325684 -0.00748765 8.90044e-05 371.846 371.846 1000.88 
38 1 1 0.134481 0.0362189 0.00997734 0 0 0 -0.015157 -0.0175172 0.000121023 -9.0876e-05 0.000235475 -0.000208605 -0.015157 -0.0175172 0.000121023 374.696 374.696 1000.89 
39 1 1 0.158702 0.0385112 0.00997785 0 0 0 -0.0184828 -0.00981884 8.77957e-05 0.000369996 -0.000375946 -0.000136528 -0.0184828 -0.00981884 8.77957e-05 376.414 376.414 1000.89 
40 1 1 0.171231 0.0402881 0.00997736 0 0 0 -0.0114299 0.00211578 0.000100254 0.000209396 -0.000360451 -0.00010356 -0.0114299 0.00211578 0.000100254 374.932 374.932 1000.89 
41 1 1 0.00999446 0.051957 0.00996718 0 0 0 0.00510359 0.00734732 -0.00220059 -0.0086427 0.000334205 0.00707783 0.00510359 0.00734732 -0.00220059 404.408 404.408 1000.96 
42 1 1 0.0423358 0.0651557 0.00997633 0 0 0 -0.0340554 -0.0296637 0.000121973 9.82013e-05 0.000223671 -9.46486e-05 -0.0340554 -0.0296637 0.000121973 368.174 368.174 1000.87 
43 1 1 0.0614277 0.0539621 0.00997658 0 0 0 -0.0305918 -0.00576281 0.000130106 -0.000121741 -0.000135625 2.45831e-05 -0.0305918 -0.00576281 0.000130106 366.506 366.506 1000.87 
44 1 1 0.0771286 0.0426696 0.0099766 0 0 0 0.00240681 -0.0132015 0.000130795 -0.00020409 4.416e-05 -6.09851e-05 0.00240681 -0.0132015 0.000130795 368.746 368.746 1000.88 
45 1 1 0.0891835 0.0461549 0.00997692 0 0 0 -0.0168584 0.00224145 0.000166747 -1.53253e-05 0.000350195 -5.25749e-05 -0.0168584 0.00224145 0.000166747 367.724 367.724 1000.87 
46 1 1 0.101861 0.0505546 0.00997687 0 0 0 -0.0123965 -0.00171014 0.000213033 -1.4481e-05 -0.000274824 -0.000113782 -0.0123965 -0.00171014 0.000213033 372.023 372.023 1000.88 
47 1 1 0.108721 0.0489381 0.00997645 0 0 0 -0.05168 0.0016321 0.000195951 -0.000235253 -4.7949e-05 -0.000164997 -0.05168 0.0016321 0.000195951 370.185 370.185 1000.88 
48 1 1 0.134409 0.0488522 0.00997695 0 0 0 -0.0142321 -0.0147263 0.000165379 -0.000195621 7.81377e-05 -0.000180508 -0.0142321 -0.0147263 0.000165379 374.373 374.373 1000.89 
49 1 1 0.121182 0.0495995 0.00997723 0 0 0 -0.0264003 0.00370527 0.000158696 -0.00044182 -5.92562e-05 -0.000190492 -0.0264003 0.00370527 0.000158696 371.712 371.712 1000.88 
50 1 1 0.157562 0.0520418 0.00997723 0 0 0 -0.0293661 0.00681123 0.000169107 0.000118399 1.93016e-05 -0.000101484 -0.0293661 0.00681123 0.000169107 377.586 377.586 1000.9 
51 1 1 0.00997867 0.0619526 0.00998046 0 0 0 -0.00580579 0.00545384 0.00380029 0.00684927 -0.000294329 -0.00622797 -0.00580579 0.00545384 0.00380029 393.624 393.624 1000.93 
52 1 1 0.0249951 0.0514068 0.00997588 0 0 0 0.00406047 -1.71803e-05 -9.03686e-06 -0.000118769 0.000693761 0.0011443 0.00406047 -1.71803e-05 -9.03686e-06 390.726 390.726 1000.93 
53 1 1 0.0709741 0.0614742 0.00997653 0 0 0 0.000491992 -0.00876087 0.000301004 -0.000208642 -3.12591e-05 -4.27946e-05 0.000491992 -0.00876087 0.000301004 367.588 367.588 1000.87 
54 1 1 0.0891464 0.0594284 0.00997712 0 0 0 -0.0235822 -0.00995558 0.000190769 -0.000379954 0.000225479 -0.000179098 -0.0235822 -0.00995558 0.000190769 367.308 367.308 1000.87 
55 1 1 0.0930267 0.0552245 0.00997712 0 0 0 -0.0306389 0.0105847 0.000168871 1.12472e-05 6.98247e-05 -0.000122672 -0.0306389 0.0105847 0.000168871 365.865 365.865 1000.87 
56 1 1 0.108128 0.0682499 0.00997724 0 0 0 -0.0174025 0.00185816 0.000270282 -0.000369619 0.000255882 -0.000184057 -0.0174025 0.00185816 0.000270282 376.482 376.482 1000.89 
57 1 1 0.132571 0.0634761 0.0099772 0 0 0 -0.01432 -0.0121928 0.000289163 -3.28579e-05 -0.00048985 -0.000149272 -0.01432 -0.0121928 0.000289163 376.047 376.047 1000.89 
58 1 1 0.139663 0.0627096 0.00997718 0 0 0 -0.020016 0.00549122 0.000245927 -0.000258125 -0.000120658 -0.000111634 -0.020016 0.00549122 0.000245927 374.727 374.727 1000.89 
59 1 1 0.153178 0.0658487 0.00997753 0 0 0 -0.0117873 -0.00824817 0.000178204 -0.000535884 -0.000443582 -7.51534e-05 -0.0117873 -0.00824817 0.000178204 378.65 378.65 1000.9 
60 1 1 0.162465 0.0637523 0.00997707 0 0 0 -0.00928136 0.00312427 0.000154535 -0.00014097 -6.38016e-05 -5.19958e-05 -0.00928136 0.00312427 0.000154535 378.62 378.62 1000.9 
61 1 1 0.00998337 0.0712199 0.00997643 0 0 0 -0.00087477 0.0110569 0.00171185 0.00274926 0.000201333 -0.00199104 -0.00087477 0.0110569 0.00171185 400.944 400.944 1000.95 
62 1 1 0.0496164 0.0606998 0.00997614 0 0 0 -0.03334 0.0264981 0.000347981 0.000131038 -0.000306762 8.65139e-06 -0.03334 0.0264981 0.000347981 365.3 365.3 1000.87 
63 1 1 0.0829899 0.0631846 0.00997689 0 0 0 -0.00256253 0.0148106 0.000302535 -0.000437999 2.99391e-05 -3.73708e-05 -0.00256253 0.0148106 0.000302535 367.351 367.351 1000.87 
64 1 1 0.0938886 0.0667852 0.00997736 0 0 0 -0.00221579 -0.00863584 0.000272721 0.000294318 -4.14436e-05 -0.00024611 -0.00221579 -0.00863584 0.000272721 370.779 370.779 1000.88 
65 1 1 0.121288 0.0606577 0.00997698 0 0 0 -0.0232037 0.0166797 0.00025909 -0.000205236 -2.69134e-05 -0.000163101 -0.0232037 0.0166797 0.00025909 374.743 374.743 1000.89 
66 1 1 0.112038 0.0777574 0.00997739 0 0 0 -0.0158781 -0.00878349 0.000591269 -4.38552e-06 -2.58845e-05 5.48557e-05 -0.0158781 -0.00878349 0.000591269 382.773 382.773 1000.91 
67 1 1 0.138866 0.0540725 0.00997713 0 0 0 -0.0212827 -0.0148129 0.000191862 -0.000156359 1.15981e-05 -0.000121713 -0.0212827 -0.0148129 0.000191862 374.712 374.712 1000.89 
68 1 1 0.120373 0.067487 0.00997721 0 0 0 -0.0117468 -0.00760502 0.000357265 -0.00041769 0.000290784 -0.000244778 -0.0117468 -0.00760502 0.000357265 375.608 375.608 1000.89 
69 1 1 0.141282 0.0769985 0.00997679 0 0 0 -0.0454198 0.0185986 0.000506348 -0.000185494 0.000219582 -6.69858e-05 -0.0454198 0.0185986 0.000506348 386.517 386.517 1000.92 
70 1 1 0.151036 0.0717866 0.00997776 0 0 0 -0.0337954 0.00199955 0.0002182 0.00018417 0.000149154 -6.77376e-05 -0.0337954 0.00199955 0.0002182 384.754 384.754 1000.91 
71 1 1 0.00999557 0.0789143 0.00996835 0 0 0 0.000596426 0.0198509 0.00173691 -0.00973606 -1.28069e-05 0.00579824 0.000596426 0.0198509 0.00173691 410.595 410.595 1000.97 
72 1 1 0.0297718 0.061668 0.00997767 0 0 0 -0.0441291 -0.0460466 -0.000300199 0.000306369 0.000678028 -0.000520278 -0.0441291 -0.0460466 -0.000300199 370.652 370.652 1000.88 
73 1 1 0.0328465 0.0775948 0.00997507 0 0 0 0.0135463 0.00955721 0.00143307 0.000192397 -0.000370037 0.00185571 0.0135463 0.00955721 0.00143307 376.149 376.149 1000.89 
74 1 1 0.0953134 0.077301 0.0099774 0 0 0 -0.025127 0.00808871 0.000526738 -0.000112391 0.000233595 -0.000232766 -0.025127 0.00808871 0.000526738 377.161 377.161 1000.9 
75 1 1 0.0823515 0.0773024 0.00997702 0 0 0 -0.0119236 0.00372401 -0.000479673 0.000246654 0.000125806 0.000324818 -0.0119236 0.00372401 -0.000479673 374.109 374.109 1000.89 
76 1 1 0.106387 0.0771114 0.00997747 0 0 0 -0.0203139 -0.00545623 0.000382583 -0.000450522 0.000262099 -8.08833e-05 -0.0203139 -0.00545623 0.000382583 377.982 377.982 1000.9 
77 1 1 0.109653 0.0578945 0.00997676 0 0 0 -0.0046585 -0.0263695 0.00022792 0.000234185 0.000255129 -0.000157033 -0.0046585 -0.0263695 0.00022792 373.389 373.389 1000.89 
78 1 1 0.140613 0.0694069 0.00997635 0 0 0 -0.0317461 0.00601068 0.000307204 -8.39379e-05 0.000180736 -9.02375e-05 -0.0317461 0.00601068 0.000307204 381.495 381.495 1000.91 
79 1 1 0.117481 0.0763228 0.00997729 0 0 0 -0.0217122 0.00601295 0.000600923 -0.000183371 -0.000120153 -6.13951e-05 -0.0217122 0.00601295 0.000600923 382.915 382.915 1000.91 
80 1 1 0.155001 0.0780502 0.00997737 0 0 0 -0.0468845 -0.00718949 0.000652215 0.000420677 0.000106128 -0.000164815 -0.0468845 -0.00718949 0.000652215 387.07 387.07 1000.92 
81 1 1 0.00999687 0.0900253 0.00998177 0 0 0 0.000341286 -0.00583534 0.00112555 -0.0107296 -0.0106244 -0.00531613 0.000341286 -0.00583534 0.00112555 418.521 418.521 1000.99 
82 1 1 0.0336069 0.0900112 0.00997644 0 0 0 0.00821474 0.000131244 0.00170655 -0.000573185 0.00394415 0.00264904 0.00821474 0.000131244 0.00170655 400.267 400.267 1000.95 
83 1 1 0.0281915 0.0900169 0.00998123 0 0 0 -0.0170127 0.00443753 0.0043782 -0.000290988 -0.0016802 -0.0026115 -0.0170127 0.00443753 0.0043782 400.762 400.762 1000.95 
84 1 1 0.0742764 0.0900125 0.00997739 0 0 0 -0.0479363 0.00393164 0.00492931 0.000434359 0.00257989 0.00134168 -0.0479363 0.00393164 0.00492931 396.098 396.098 1000.94 
85 1 1 0.0791916 0.090019 0.00998195 0 0 0 -0.0181834 -0.00387622 -0.00406272 -0.000144019 -0.00342084 -0.00335602 -0.0181834 -0.00387622 -0.00406272 393.29 393.29 1000.93 
86 1 1 0.0974349 0.0900107 0.00997428 0 0 0 -0.0251704 -0.00241936 -0.000948686 -0.000137564 0.00454318 0.00444036 -0.0251704 -0.00241936 -0.000948686 390.297 390.297 1000.93 
87 1 1 0.111165 0.0900211 0.00998282 0 0 0 -0.041246 -0.00479123 -0.00476701 0.000180961 -0.00506277 -0.0046145 -0.041246 -0.00479123 -0.00476701 382.354 382.354 1000.91 
88 1 1 0.120259 0.0900192 0.00998133 0 0 0 -0.044705 -0.00622947 -0.0057974 0.000189807 -0.00322884 -0.00263158 -0.044705 -0.00622947 -0.0057974 381.273 381.273 1000.91 
89 1 1 0.129923 0.0900119 0.00997406 0 0 0 -0.0459394 0.00208801 0.00357622 -0.00059333 0.00483353 0.00445271 -0.0459394 0.00208801 0.00357622 379.452 379.452 1000.9 
90 1 1 0.143458 0.0900222 0.00998454 0 0 0 -0.0442968 0.00220614 0.00215181 -0.000377171 -0.00585753 -0.00618661 -0.0442968 0.00220614 0.00215181 379.637 379.637 1000.9 
91 1 1 0.00999077 0.00998334 0.00997385 0 0 0 -0.00772701 0.0018328 0.0030898 -0.00398929 0.00183141 0.00244414 -0.00772701 0.0018328 0.0030898 409.255 409.255 1000.97 
92 1 1 0.0339259 0.00998442 0.00998093 0 0 0 0.00449185 -0.00139666 0.000935976 -0.000910436 0.00073455 -0.00150272 0.00449185 -0.00139666 0.000935976 403.847 403.847 1000.96 
93 1 1 0.047163 0.00998734 0.00997811 0 0 0 -0.00947557 -0.000593449 0.00157125 -0.00069495 -0.00175296 0.000702629 -0.00947557 -0.000593449 0.00157125 403.4 403.4 1000.96 
94 1 1 0.0557167 0.00998076 0.00998417 0 0 0 -0.0158972 -0.00680641 0.00643918 -0.000212684 0.00420811 -0.00523607 -0.0158972 -0.00680641 0.00643918 399.621 399.621 1000.95 
95 1 1 0.0829337 0.00997696 0.00998675 0 0 0 -0.0194425 -0.00329588 0.0016049 -0.000168117 0.00822668 -0.00803294 -0.0194425 -0.00329588 0.0016049 399.831 399.831 1000.95 
96 1 1 0.105024 0.00998858 0.00997408 0 0 0 -0.0333322 0.00540199 -0.00503555 0.000467045 -0.00353557 0.00448731 -0.0333322 0.00540199 -0.00503555 397.102 397.102 1000.94 
97 1 1 0.114301 0.00997827 0.00998573 0 0 0 -0.0314034 -0.00555834 0.00461214 2.97756e-05 0.0061941 -0.00707229 -0.0314034 -0.00555834 0.00461214 389.319 389.319 1000.92 
98 1 1 0.123009 0.00998701 0.00997559 0 0 0 -0.0369138 0.00463285 -0.00394841 0.000362332 -0.00285349 0.00324532 -0.0369138 0.00463285 -0.00394841 390.481 390.481 1000.93 
99 1 1 0.132135 0.00998237 0.00998088 0 0 0 -0.0239968 0.00125857 -0.00156035 -9.1528e-05 0.00233327 -0.00229771 -0.0239968 0.00125857 -0.00156035 385.329 385.329 1000.91 
100 1 1 0.136433 0.00998867 0.00997404 0 0 0 -0.0422842 0.00147789 -0.000565902 0.000451065 -0.00435993 0.0043332 -0.0422842 0.00147789 -0.000565902 387.656 387.656 1000.92 
101 1 1 0.0099912 0.0225222 0.0245 0 0 0 -0.00193035 0.00971768 0.0182124 -0.000315815 -0.000645109 -0.000400552 -0.00193035 0.00971768 0.0182124 336.208 336.208 1000.8 
102 1 1 0.00999025 0.0231987 0.00997136 0 0 0 0.00341162 0.0121649 -0.000604052 -0.0041308 0.000126234 0.00301785 0.00341162 0.0121649 -0.000604052 407.212 407.212 1000.97 
103 1 1 0.0244505 0.0247723 0.0221335 0 0 0 0.0182786 -0.0107839 -0.0035224 -0.00106033 3.65084e-05 -2.82991e-05 0.0182786 -0.0107839 -0.0035224 307.609 307.609 1000.73 
104 1 1 0.0831907 0.0237009 0.0351334 0 0 0 0.0325845 -0.0168936 0.00116729 -0.000392362 -8.36809e-05 -0.000673131 0.0325845 -0.0168936 0.00116729 227.92 227.92 1000.54 
105 1 1 0.125462 0.0401861 0.0499457 0 0 0 0.0664469 -0.00932117 -0.0120033 0.00032653 0.000463214 -0.000374309 0.0664469 -0.00932117 -0.0120033 164.555 164.555 1000.39 
106 1 1 0.130294 0.0230869 0.00997736 0 0 0 -0.0571126 -0.00350557 1.59471e-05 8.19738e-05 -0.000459387 -0.000160308 -0.0571126 -0.00350557 1.59471e-05 385.994 385.994 1000.92 
107 1 1 0.140384 0.0222848 0.0348546 0 0 0 0.0522414 0.005093 0.000239721 -6.11237e-05 -0.000603688 -0.00059093 0.0522414 0.005093 0.000239721 234.287 234.287 1000.56 
108 1 1 0.146249 0.0353781 0.009977 0 0 0 -0.0164308 -0.0085766 0.000122631 0.000457127 -0.000562881 -0.000142409 -0.0164308 -0.0085766 0.000122631 379.929 379.929 1000.9 
109 1 1 0.1561 0.0222809 0.0223261 0 0 0 0.0230392 0.0171283 -0.00242398 -0.000379308 3.27019e-05 -0.00042028 0.0230392 0.0171283 -0.00242398 301.046 301.046 1000.72 
110 1 1 0.17201 0.0233038 0.0099779 0 0 0 -0.039434 -0.00110635 4.51982e-05 0.000583747 -0.000303536 -0.000285125 -0.039434 -0.00110635 4.51982e-05 391.976 391.976 1000.93 
111 1 1 0.00998635 0.0336918 0.00997398 0 0 0 0.000523352 0.000258399 3.21974e-05 -0.000674887 -0.000168869 0.00105311 0.000523352 0.000258399 3.21974e-05 400.463 400.463 1000.95 
112 1 1 0.0232145 0.0220803 0.0418785 0 0 0 0.00714665 0.0136214 -0.0220264 -7.30089e-05 -0.000118536 -0.00103862 0.00714665 0.0136214 -0.0220264 201.905 201.905 1000.48 
113 1 1 0.0503712 0.0300147 0.00997619 0 0 0 0.00636252 0.00786996 0.000648795 -0.000454662 0.000533889 -7.65302e-05 0.00636252 0.00786996 0.000648795 371.672 371.672 1000.88 
114 1 1 0.0679424 0.0226157 0.00997622 0 0 0 -0.00427085 0.00138777 -0.000868337 -0.000779199 -0.000157632 0.000657999 -0.00427085 0.00138777 -0.000868337 378.307 378.307 1000.9 
115 1 1 0.0640422 0.0217503 0.0362901 0 0 0 0.0341063 0.0224457 -0.00345742 0.000303925 0.000109982 -0.000577962 0.0341063 0.0224457 -0.00345742 238.741 238.741 1000.57 
116 1 1 0.105187 0.0376324 0.00997672 0 0 0 -0.0316961 0.000327206 9.17954e-05 -0.00033096 -0.000483837 -0.0002947 -0.0316961 0.000327206 9.17954e-05 371.425 371.425 1000.88 
117 1 1 0.131976 0.0233289 0.0221761 0 0 0 0.0280614 -0.00257274 0.00836315 0.000119207 -0.00035504 -0.000795853 0.0280614 -0.00257274 0.00836315 302.721 302.721 1000.72 
118 1 1 0.147501 0.0215905 0.0228127 0 0 0 0.0416988 -0.0242395 0.0221249 0.000182626 0.000289783 -0.00021578 0.0416988 -0.0242395 0.0221249 293.214 293.214 1000.7 
119 1 1 0.148307 0.0227578 0.00997755 0 0 0 -0.0299969 0.00387194 -3.0876e-05 -0.00010887 -0.000128953 -0.000191978 -0.0299969 0.00387194 -3.0876e-05 387.319 387.319 1000.92 
120 1 1 0.168666 0.0228279 0.0372324 0 0 0 0.0316674 0.00597503 -8.42387e-05 0.000225793 -0.000404729 -0.000612756 0.0316674 0.00597503 -8.42387e-05 224.044 224.044 1000.53 
121 1 1 0.00998321 0.0424031 0.00997729 0 0 0 -0.00418081 0.00547486 0.00292242 0.00253808 0.000333734 -0.00294389 -0.00418081 0.00547486 0.00292242 399.468 399.468 1000.95 
122 1 1 0.022643 0.0342651 0.00997656 0 0 0 0.000669376 -0.0124686 -0.000148441 -9.22283e-05 0.00024889 0.00039439 0.000669376 -0.0124686 -0.000148441 402.833 402.833 1000.96 
123 1 1 0.022246 0.0263664 0.00997582 0 0 0 0.00161464 0.0276083 0.00115606 -0.000450632 -0.000242439 0.000703933 0.00161464 0.0276083 0.00115606 408.306 408.306 1000.97 
124 1 1 0.0781012 0.0349311 0.00997636 0 0 0 -0.0278286 -0.0216587 8.22482e-05 -0.000658459 6.63624e-05 -0.00011377 -0.0278286 -0.0216587 8.22482e-05 374.987 374.987 1000.89 
125 1 1 0.0910201 0.0367054 0.00997685 0 0 0 -0.0230863 0.0128208 -3.56256e-05 -0.000742743 -1.94142e-05 -0.00025793 -0.0230863 0.0128208 -3.56256e-05 373.122 373.122 1000.89 
126 1 1 0.126713 0.0297877 0.00997751 0 0 0 -0.0246002 0.0130433 5.35636e-05 -0.000229252 0.000172292 -0.000202065 -0.0246002 0.0130433 5.35636e-05 382.579 382.579 1000.91 
127 1 1 0.165703 0.0413583 0.00997728 0 0 0 -0.0289353 0.0130798 0.00011476 -0.000333949 -1.47695e-05 -0.000116302 -0.0289353 0.0130798 0.00011476 377.025 377.025 1000.9 
128 1 1 0.145016 0.0419524 0.00997724 0 0 0 -0.0264054 -0.0108992 0.000143017 -0.000500276 7.56504e-05 -0.000145647 -0.0264054 -0.0108992 0.000143017 373.269 373.269 1000.89 
129 1 1 0.136267 0.0227707 0.00997739 0 0 0 -0.0354689 -0.00919868 6.46546e-05 -0.00035657 -0.000126885 -8.04362e-05 -0.0354689 -0.00919868 6.46546e-05 386.478 386.478 1000.92 
130 1 1 0.178059 0.0320117 0.00997759 0 0 0 -0.0346041 -0.0103345 8.50822e-05 -4.846e-05 -0.000372785 -8.80888e-05 -0.0346041 -0.0103345 8.50822e-05 384.745 384.745 1000.91 
131 1 1 0.00998424 0.0477072 0.00997631 0 0 0 -0.00128348 0.00207227 0.000528119 0.00168359 -0.000114763 -0.0020953 -0.00128348 0.00207227 0.000528119 400.821 400.821 1000.95 
132 1 1 0.0460527 0.0472631 0.00997617 0 0 0 -0.0117232 0.0042371 0.000190853 -0.000645067 0.000907611 0.000212307 -0.0117232 0.0042371 0.000190853 367.159 367.159 1000.87 
133 1 1 0.0489772 0.0539607 0.00997596 0 0 0 0.028268 -0.00229248 0.000196096 -0.000749456 -1.24764e-05 -5.19103e-05 0.028268 -0.00229248 0.000196096 368.098 368.098 1000.87 
134 1 1 0.083548 0.0475324 0.00997687 0 0 0 -0.0129134 0.0125679 0.000119101 -0.000203402 0.000106015 -0.000101493 -0.0129134 0.0125679 0.000119101 367.746 367.746 1000.87 
135 1 1 0.12815 0.0498221 0.00997726 0 0 0 -0.012582 -0.00490016 0.000172027 -0.000291767 8.65507e-06 -0.000196897 -0.012582 -0.00490016 0.000172027 372.799 372.799 1000.89 
136 1 1 0.108952 0.0534676 0.0221139 0 0 0 0.0337238 0.0150466 0.0209284 -0.000530132 -6.43777e-05 -0.000258003 0.0337238 0.0150466 0.0209284 289.882 289.882 1000.69 
137 1 1 0.136215 0.0454873 0.0223997 0 0 0 0.0306843 0.0259568 -9.16701e-06 0.000495689 -6.12722e-05 0.000111881 0.0306843 0.0259568 -9.16701e-06 286.033 286.033 1000.68 
138 1 1 0.151033 0.0489942 0.00997698 0 0 0 -0.00720831 0.00735613 0.000167976 -0.000248318 -0.000192064 -0.000108728 -0.00720831 0.00735613 0.000167976 375.429 375.429 1000.89 
139 1 1 0.154302 0.0422021 0.00997763 0 0 0 -0.0292633 -0.000812881 0.000136325 -0.000619534 0.0003988 -0.000137181 -0.0292633 -0.000812881 0.000136325 372.229 372.229 1000.88 
140 1 1 0.187753 0.052745 0.0220259 0 0 0 0.0497603 -0.00828495 0.00279369 -0.000601545 0.000238615 -0.000330062 0.0497603 -0.00828495 0.00279369 309.234 309.234 1000.73 
141 1 1 0.00998885 0.0568376 0.00997025 0 0 0 0.00512994 0.00408853 -0.00281958 -0.00360856 0.000469259 0.00382187 0.00512994 0.00408853 -0.00281958 400.629 400.629 1000.95 
142 1 1 0.021833 0.0571011 0.00997596 0 0 0 -0.000368493 -0.00151707 -1.3803e-05 0.000808495 0.000120425 0.000776151 -0.000368493 -0.00151707 -1.3803e-05 398.067 398.067 1000.95 
143 1 1 0.023101 0.0637921 0.00997849 0 0 0 -0.0143109 0.0319987 0.00136658 -0.000283413 -2.89388e-05 -0.0016927 -0.0143109 0.0319987 0.00136658 389.347 389.347 1000.92 
144 1 1 0.0866906 0.0704323 0.00997721 0 0 0 -0.0153621 -0.0051406 0.000353263 -0.000134157 8.11563e-05 3.31658e-05 -0.0153621 -0.0051406 0.000353263 373.161 373.161 1000.89 
145 1 1 0.10088 0.0658135 0.00997678 0 0 0 -0.00771676 -0.00410532 0.000252843 -0.00093274 8.84967e-05 -0.000143543 -0.00771676 -0.00410532 0.000252843 372.22 372.22 1000.88 
146 1 1 0.129056 0.0696104 0.00997682 0 0 0 -0.0169281 -0.0216123 0.00032624 -8.33061e-05 0.000221415 -0.000133527 -0.0169281 -0.0216123 0.00032624 381.164 381.164 1000.91 
147 1 1 0.156173 0.0598039 0.00997723 0 0 0 -0.0500521 0.0101852 0.00016978 0.000164194 -0.000120063 -8.85141e-05 -0.0500521 0.0101852 0.00016978 374.934 374.934 1000.89 
148 1 1 0.145751 0.0527682 0.00997692 0 0 0 -0.0183418 -0.00958893 0.000187194 -0.000307637 -0.000135392 -0.000104194 -0.0183418 -0.00958893 0.000187194 373.477 373.477 1000.89 
149 1 1 0.135456 0.0783049 0.00997687 0 0 0 -0.0419971 -0.000902257 0.000371106 6.02763e-05 -0.000830167 5.99001e-05 -0.0419971 -0.000902257 0.000371106 388.068 388.068 1000.92 
150 1 1 0.182446 0.0688017 0.00997764 0 0 0 -0.0331357 0.0150718 0.000158666 0.000503317 0.000228139 -6.31784e-05 -0.0331357 0.0150718 0.000158666 387.993 387.993 1000.92 
151 1 1 0.00998539 0.0660402 0.00997466 0 0 0 -0.00235034 0.00632399 0.00342615 0.00054746 -9.62489e-05 -0.000115805 -0.00235034 0.00632399 0.00342615 399.962 399.962 1000.95 
152 1 1 0.0237552 0.0741546 0.0316676 0 0 0 0.0487514 -0.00110248 0.00812684 -0.000218821 0.00045677 -0.000263952 0.0487514 -0.00110248 0.00812684 248.752 248.752 1000.59 
153 1 1 0.0513854 0.0778349 0.00997723 0 0 0 -0.0237 0.0140978 -0.000827895 0.000227854 -0.000192242 -0.000717825 -0.0237 0.0140978 -0.000827895 366.677 366.677 1000.87 
154 1 1 0.0607473 0.0784602 0.00997803 0 0 0 0.000508219 -0.0247047 -0.00104036 0.000624791 0.00034742 -0.00129658 0.000508219 -0.0247047 -0.00104036 364.344 364.344 1000.87 
155 1 1 0.0568671 0.0765259 0.0290092 0 0 0 0.0242065 0.0046218 -0.0102237 -7.2393e-05 0.000580424 -0.000459162 0.0242065 0.0046218 -0.0102237 266.053 266.053 1000.63 
156 1 1 0.113339 0.0639637 0.0099773 0 0 0 -0.0246558 0.0037753 0.000273382 -0.000357266 0.000120989 -0.00020476 -0.0246558 0.0037753 0.000273382 374.132 374.132 1000.89 
157 1 1 0.134377 0.0776402 0.0230266 0 0 0 0.0105773 0.0112135 -0.0106762 -0.000399031 -7.84823e-05 -0.000417131 0.0105773 0.0112135 -0.0106762 303.79 303.79 1000.72 
158 1 1 0.15422 0.0773677 0.0225924 0 0 0 0.0343897 0.00563274 -0.00992006 -3.51508e-05 0.000233134 -0.000797073 0.0343897 0.00563274 -0.00992006 300.469 300.469 1000.71 
159 1 1 0.148059 0.0782933 0.00997742 0 0 0 -0.030155 -0.0141605 0.000449552 -0.000364777 9.84499e-05 -0.000200802 -0.030155 -0.0141605 0.000449552 385.759 385.759 1000.92 
160 1 1 0.169369 0.0792458 0.0424137 0 0 0 0.0497633 0.00129716 0.0159919 -0.000209457 -0.000186356 -6.25012e-05 0.0497633 0.00129716 0.0159919 192.489 192.489 1000.46 
161 1 1 0.00998215 0.0779772 0.0204111 0 0 0 4.44847e-05 -0.00578882 -0.00326685 0.00686354 -0.000199414 -0.000460855 4.44847e-05 -0.00578882 -0.00326685 377.67 377.67 1000.9 
162 1 1 0.00997584 0.0764393 0.00998403 0 0 0 0.00388666 -0.0130055 -0.00240179 0.01018 0.000113949 -0.00982846 0.00388666 -0.0130055 -0.00240179 405.417 405.417 1000.96 
163 1 1 0.0234649 0.0694315 0.0099803 0 0 0 0.000380484 0.00886271 0.00138266 -0.000593803 0.000577121 -0.00323319 0.000380484 0.00886271 0.00138266 385.629 385.629 1000.92 
164 1 1 0.0836454 0.0595643 0.0407939 0 0 0 0.00881896 -0.00396193 0.00133593 -1.0587e-05 0.00017567 -0.000620434 0.00881896 -0.00396193 0.00133593 208.981 208.981 1000.5 
165 1 1 0.122087 0.0646636 0.0440634 0 0 0 0.0205353 -0.00368915 -0.0114096 -0.000273069 0.00071212 -0.000292354 0.0205353 -0.00368915 -0.0114096 169.638 169.638 1000.4 
166 1 1 0.129295 0.0773446 0.00997682 0 0 0 -0.0355286 -0.0188901 0.000253991 -0.000138254 -0.000142475 0.00015881 -0.0355286 -0.0188901 0.000253991 383.307 383.307 1000.91 
167 1 1 0.137029 0.0767458 0.0336069 0 0 0 0.0693111 0.00815817 -0.00857863 5.05944e-05 0.000227885 -0.000260444 0.0693111 0.00815817 -0.00857863 238.355 238.355 1000.57 
168 1 1 0.1469 0.0607076 0.00997732 0 0 0 -0.0391979 0.00478714 0.000196315 -2.60566e-06 0.000260414 -8.91336e-05 -0.0391979 0.00478714 0.000196315 375.15 375.15 1000.89 
169 1 1 0.161568 0.0782971 0.0221854 0 0 0 0.0452602 0.0031515 0.0103195 0.00022797 -0.000453441 8.01621e-05 0.0452602 0.0031515 0.0103195 306.443 306.443 1000.73 
170 1 1 0.176056 0.0779569 0.0099775 0 0 0 -0.0157657 0.0110776 1.31204e-05 -0.000891563 -0.000452535 -0.000220763 -0.0157657 0.0110776 1.31204e-05 392.793 392.793 1000.93 
171 1 1 0.00998783 0.0900129 0.00997217 0 0 0 0.00814255 0.00395556 -0.00463948 -0.0017328 0.00176261 0.00437787 0.00814255 0.00395556 -0.00463948 406.768 406.768 1000.97 
172 1 1 0.021477 0.0900178 0.00997823 0 0 0 -0.000565395 0.00117257 -0.00223005 -2.40786e-05 -0.00297925 0.000383204 -0.000565395 0.00117257 -0.00223005 409.115 409.115 1000.97 