ITEM: TIMESTEP
36000
ITEM: NUMBER OF ATOMS
2655
ITEM: BOX BOUNDS ff ff ff
0 0.5
0 0.1
0 0.5
ITEM: ATOMS id type type x y z ix iy iz vx vy vz fx fy fz vx vy vz p p rho 
1 1 1 0.0100097 0.00997517 0.00992948 0 0 0 0.0198353 -0.00626853 0.0157803 -0.0236856 0.00358273 0.0279942 0.0198353 -0.00626853 0.0157803 939.479 939.479 1002.22 
2 1 1 0.0346604 0.0100305 0.00998913 0 0 0 0.0643221 0.0211813 0.00584504 0.00437521 -0.0180232 -0.0090173 0.0643221 0.0211813 0.00584504 281.527 281.527 1000.67 
3 1 1 0.0280948 0.0099898 0.00998043 0 0 0 -0.0250988 0.0123491 0.0256389 0.00406744 -0.000449278 -0.00296468 -0.0250988 0.0123491 0.0256389 335.427 335.427 1000.8 
4 1 1 0.066856 0.0100042 0.0099683 0 0 0 0.0839655 0.0118717 -0.0143167 0.00111876 -0.0194483 0.00743348 0.0839655 0.0118717 -0.0143167 377.484 377.484 1000.9 
5 1 1 0.0735065 0.00998914 0.00995252 0 0 0 0.105362 -0.00938759 0.0165873 -0.000711707 0.00102264 0.0256472 0.105362 -0.00938759 0.0165873 367.638 367.638 1000.87 
6 1 1 0.0972899 0.0100061 0.00995957 0 0 0 0.0667888 -0.0115633 0.0573224 -0.00741681 -0.029052 0.0147587 0.0667888 -0.0115633 0.0573224 549.383 549.383 1001.3 
7 1 1 0.114345 0.00997096 0.00997113 0 0 0 0.052739 -0.0057885 0.0206505 -0.00431748 0.0127404 0.00325016 0.052739 -0.0057885 0.0206505 636.467 636.467 1001.51 
8 1 1 0.125992 0.00998056 0.00996779 0 0 0 0.0732118 -0.00641567 0.0101544 -0.00340079 -0.000354618 0.00411176 0.0732118 -0.00641567 0.0101544 608.944 608.944 1001.44 
9 1 1 0.136429 0.0099762 0.00995659 0 0 0 -0.00252382 -0.0118715 -0.0123694 -0.00303147 0.00415806 0.0146647 -0.00252382 -0.0118715 -0.0123694 594.351 594.351 1001.41 
10 1 1 0.153483 0.00998347 0.00995697 0 0 0 0.0706801 0.0157166 0.0150249 -0.00769311 -0.000361814 0.00954367 0.0706801 0.0157166 0.0150249 750.759 750.759 1001.78 
11 1 1 0.00998419 0.021484 0.00993812 0 0 0 0.000180204 0.0424647 0.00320895 0.0171934 0.00243562 0.0223132 0.000180204 0.0424647 0.00320895 792.674 792.674 1001.88 
12 1 1 0.0247909 0.0235677 0.0099719 0 0 0 0.0238612 0.0102016 0.00230268 0.00359615 0.00212787 0.0056614 0.0238612 0.0102016 0.00230268 321.795 321.795 1000.76 
13 1 1 0.0375344 0.0210844 0.00996795 0 0 0 -0.125431 -0.00203847 -0.0114922 0.0011272 0.000129221 0.0117282 -0.125431 -0.00203847 -0.0114922 238.939 238.939 1000.57 
14 1 1 0.0784 0.022417 0.00996892 0 0 0 0.179912 0.0266426 0.00320834 0.000178256 0.0026911 0.00826727 0.179912 0.0266426 0.00320834 261.987 261.987 1000.62 
15 1 1 0.0763292 0.0216199 0.00996768 0 0 0 0.0129513 0.0143751 0.00838418 -0.000861368 0.00281033 0.00974608 0.0129513 0.0143751 0.00838418 271.811 271.811 1000.65 
16 1 1 0.0967052 0.0233064 0.00997766 0 0 0 0.166532 0.07016 -0.00953758 -0.0024181 0.00216916 -0.00242793 0.166532 0.07016 -0.00953758 408.053 408.053 1000.97 
17 1 1 0.102396 0.0303904 0.00997338 0 0 0 0.0737973 0.00304581 -0.00125078 -0.00408154 0.00273612 0.00239099 0.0737973 0.00304581 -0.00125078 386.464 386.464 1000.92 
18 1 1 0.116451 0.0262544 0.00997275 0 0 0 0.107934 0.0407929 0.00127526 0.00103749 0.00283576 -0.00102701 0.107934 0.0407929 0.00127526 485.872 485.872 1001.15 
19 1 1 0.124254 0.0202046 0.0099745 0 0 0 0.017865 -0.0183738 -0.00555342 -0.00404991 0.00590888 -0.00314385 0.017865 -0.0183738 -0.00555342 531.975 531.975 1001.26 
20 1 1 0.154144 0.0243795 0.00996289 0 0 0 0.141078 -0.0607756 -0.00548832 -0.00547773 -0.00373336 -0.00375986 0.141078 -0.0607756 -0.00548832 604.214 604.214 1001.43 
21 1 1 0.0100127 0.023899 0.00994993 0 0 0 0.0229585 -0.00706646 -0.00072624 -0.0203316 0.00481071 0.0117454 0.0229585 -0.00706646 -0.00072624 763.463 763.463 1001.81 
22 1 1 0.0304063 0.0351326 0.00997124 0 0 0 0.0468687 0.00425461 -0.0132851 -0.00304863 -0.00015341 0.00556784 0.0468687 0.00425461 -0.0132851 259.759 259.759 1000.62 
23 1 1 0.051576 0.0362258 0.00997157 0 0 0 0.0449588 -0.027744 0.016289 0.00114191 -0.00073685 0.00513968 0.0449588 -0.027744 0.016289 326.438 326.438 1000.78 
24 1 1 0.0772722 0.0338667 0.00997161 0 0 0 0.0523199 -0.0199325 -0.000757177 -8.14585e-05 0.00173471 0.00603977 0.0523199 -0.0199325 -0.000757177 253.414 253.414 1000.6 
25 1 1 0.0888223 0.030418 0.00997333 0 0 0 0.1064 0.00424567 -0.0218848 -0.00495074 0.00483202 0.00314294 0.1064 0.00424567 -0.0218848 264.619 264.619 1000.63 
26 1 1 0.10634 0.0224102 0.0099696 0 0 0 0.170606 0.0333006 0.0062231 -0.0083624 0.00282953 0.00396418 0.170606 0.0333006 0.0062231 492.608 492.608 1001.17 
27 1 1 0.120144 0.0329227 0.00998089 0 0 0 0.18262 0.0343194 0.00653508 -0.00358574 0.00218673 -0.00857067 0.18262 0.0343194 0.00653508 460.674 460.674 1001.09 
28 1 1 0.11219 0.0227265 0.00997066 0 0 0 0.0562885 0.0862917 0.00632885 -0.00333862 0.00164724 0.00128484 0.0562885 0.0862917 0.00632885 509.023 509.023 1001.21 
29 1 1 0.136717 0.0252266 0.00997126 0 0 0 0.158377 -0.083481 -0.0011423 -0.00215809 -0.000156281 -0.00405674 0.158377 -0.083481 -0.0011423 511.326 511.326 1001.21 
30 1 1 0.146029 0.0334923 0.00997894 0 0 0 0.0404637 0.0408344 -0.00313326 -0.00640336 -0.0032274 -0.0160538 0.0404637 0.0408344 -0.00313326 518.223 518.223 1001.23 
31 1 1 0.0099776 0.035589 0.00996587 0 0 0 -0.0124784 -0.0186798 0.00129579 0.0220682 0.00557532 -0.00506578 -0.0124784 -0.0186798 0.00129579 708.704 708.704 1001.68 
32 1 1 0.0251026 0.0425058 0.00998134 0 0 0 0.00281836 -0.0444678 0.00335006 0.00182076 0.000635646 -0.00302495 0.00281836 -0.0444678 0.00335006 227.803 227.803 1000.54 
33 1 1 0.0517676 0.0415896 0.00996386 0 0 0 0.0447881 0.0131038 0.00869689 0.00251382 0.00135856 0.0143721 0.0447881 0.0131038 0.00869689 321.889 321.889 1000.76 
34 1 1 0.0652324 0.0402532 0.00996491 0 0 0 0.0534652 -0.0243394 0.00393343 0.00217229 0.002747 0.0144422 0.0534652 -0.0243394 0.00393343 235.831 235.831 1000.56 
35 1 1 0.0741384 0.0377546 0.0099716 0 0 0 0.000889681 -0.0161772 0.00752596 -0.000312752 0.00321155 0.00713818 0.000889681 -0.0161772 0.00752596 265.136 265.136 1000.63 
36 1 1 0.0917785 0.0417922 0.00997516 0 0 0 0.0533677 0.0279062 -0.000717297 -0.00316757 -0.00027793 0.00315974 0.0533677 0.0279062 -0.000717297 278.656 278.656 1000.66 
37 1 1 0.119777 0.0410768 0.00998275 0 0 0 0.115116 0.0356757 0.00657468 -0.00708469 0.00126309 -0.0123812 0.115116 0.0356757 0.00657468 422.152 422.152 1001 
38 1 1 0.127969 0.0333797 0.00997707 0 0 0 0.096696 -0.0275304 -0.00781102 -0.00428616 -0.000360888 -0.00705621 0.096696 -0.0275304 -0.00781102 480.847 480.847 1001.14 
39 1 1 0.130097 0.0457016 0.00996939 0 0 0 0.115747 0.038901 -0.0112314 -0.0047934 0.00177752 -0.00277405 0.115747 0.038901 -0.0112314 449.841 449.841 1001.07 
40 1 1 0.148743 0.0397913 0.00996891 0 0 0 0.125288 -0.0381811 -0.00408296 -0.00851788 -0.00662569 -0.00934212 0.125288 -0.0381811 -0.00408296 563.178 563.178 1001.34 
41 1 1 0.00998939 0.05 0.00996438 0 0 0 0.00956655 6.58881e-08 0.0172025 0.0116223 1.15011e-08 -0.0029888 0.00956655 6.58881e-08 0.0172025 758.383 758.383 1001.8 
42 1 1 0.0439969 0.05 0.00996372 0 0 0 0.0633171 9.81402e-09 -0.00520808 -0.00042814 -1.73149e-09 0.0150253 0.0633171 9.81402e-09 -0.00520808 318.586 318.586 1000.76 
43 1 1 0.0510937 0.05 0.00996185 0 0 0 0.0787611 5.80283e-09 0.000925447 0.00323478 -2.2627e-09 0.0181391 0.0787611 5.80283e-09 0.000925447 300.147 300.147 1000.71 
44 1 1 0.0721989 0.05 0.00996526 0 0 0 0.0612722 -4.99474e-09 0.00767616 -0.000498428 -2.68359e-09 0.0151295 0.0612722 -4.99474e-09 0.00767616 212.151 212.151 1000.5 
45 1 1 0.0863614 0.05 0.0099778 0 0 0 0.040575 -1.28834e-08 -0.00222535 -0.00253875 -5.13993e-10 0.00097862 0.040575 -1.28834e-08 -0.00222535 277.947 277.947 1000.66 
46 1 1 0.0952506 0.05 0.00997644 0 0 0 0.0596349 -1.74851e-08 -0.00339614 -0.00477327 3.1689e-09 0.000902462 0.0596349 -1.74851e-08 -0.00339614 303.866 303.866 1000.72 
47 1 1 0.101826 0.05 0.00997731 0 0 0 0.0163089 -2.05436e-08 0.00824533 -0.00668105 7.47354e-09 1.80609e-05 0.0163089 -2.05436e-08 0.00824533 340.421 340.421 1000.81 
48 1 1 0.110924 0.05 0.00998483 0 0 0 0.166732 -1.98653e-08 0.0092063 -0.00278511 1.53539e-08 -0.00937586 0.166732 -1.98653e-08 0.0092063 387.643 387.643 1000.92 
49 1 1 0.110895 0.05 0.00998387 0 0 0 0.00267007 -2.02289e-08 0.00309869 -0.00252728 1.5307e-08 -0.00843646 0.00267007 -2.02289e-08 0.00309869 387.538 387.538 1000.92 
50 1 1 0.151421 0.05 0.00995559 0 0 0 0.128084 4.71454e-08 -0.0159668 -0.0104837 4.25436e-08 -0.00515983 0.128084 4.71454e-08 -0.0159668 717.469 717.469 1001.7 
51 1 1 0.0099776 0.064411 0.00996587 0 0 0 -0.0124784 0.0186799 0.0012958 0.0220682 -0.0055753 -0.00506571 -0.0124784 0.0186799 0.0012958 708.704 708.704 1001.68 
52 1 1 0.0251026 0.0574942 0.00998134 0 0 0 0.00281835 0.0444678 0.00335007 0.00182075 -0.000635643 -0.00302494 0.00281835 0.0444678 0.00335007 227.803 227.803 1000.54 
53 1 1 0.0517676 0.0584104 0.00996386 0 0 0 0.0447881 -0.0131038 0.00869689 0.00251382 -0.00135856 0.0143721 0.0447881 -0.0131038 0.00869689 321.889 321.889 1000.76 
54 1 1 0.0652324 0.0597468 0.00996491 0 0 0 0.0534652 0.0243394 0.00393343 0.00217229 -0.00274701 0.0144422 0.0534652 0.0243394 0.00393343 235.831 235.831 1000.56 
55 1 1 0.0741384 0.0622454 0.0099716 0 0 0 0.000889668 0.0161772 0.00752597 -0.000312751 -0.00321156 0.00713818 0.000889668 0.0161772 0.00752597 265.137 265.137 1000.63 
56 1 1 0.0917785 0.0582078 0.00997516 0 0 0 0.0533677 -0.0279062 -0.000717291 -0.00316756 0.000277932 0.00315974 0.0533677 -0.0279062 -0.000717291 278.656 278.656 1000.66 
57 1 1 0.119777 0.0589232 0.00998275 0 0 0 0.115116 -0.0356758 0.00657469 -0.00708466 -0.00126304 -0.0123812 0.115116 -0.0356758 0.00657469 422.151 422.151 1001 
58 1 1 0.127969 0.0666203 0.00997707 0 0 0 0.0966961 0.0275304 -0.00781099 -0.00428612 0.000360955 -0.00705621 0.0966961 0.0275304 -0.00781099 480.846 480.846 1001.14 
59 1 1 0.130097 0.0542984 0.00996939 0 0 0 0.115747 -0.038901 -0.0112313 -0.00479339 -0.00177744 -0.00277405 0.115747 -0.038901 -0.0112313 449.84 449.84 1001.07 
60 1 1 0.148743 0.0602087 0.00996891 0 0 0 0.125288 0.0381812 -0.00408296 -0.00851789 0.00662579 -0.00934213 0.125288 0.0381812 -0.00408296 563.177 563.177 1001.34 
61 1 1 0.0100127 0.076101 0.00994993 0 0 0 0.0229585 0.00706651 -0.000726221 -0.0203316 -0.00481068 0.0117455 0.0229585 0.00706651 -0.000726221 763.462 763.462 1001.81 
62 1 1 0.0304063 0.0648674 0.00997124 0 0 0 0.0468687 -0.00425458 -0.0132851 -0.00304864 0.000153414 0.00556785 0.0468687 -0.00425458 -0.0132851 259.759 259.759 1000.62 
63 1 1 0.051576 0.0637742 0.00997157 0 0 0 0.0449588 0.027744 0.0162891 0.0011419 0.000736846 0.00513968 0.0449588 0.027744 0.0162891 326.438 326.438 1000.78 
64 1 1 0.0772722 0.0661333 0.00997161 0 0 0 0.0523198 0.0199325 -0.000757171 -8.14557e-05 -0.00173472 0.00603978 0.0523198 0.0199325 -0.000757171 253.414 253.414 1000.6 
65 1 1 0.0888223 0.069582 0.00997333 0 0 0 0.1064 -0.00424569 -0.0218848 -0.00495073 -0.00483203 0.00314294 0.1064 -0.00424569 -0.0218848 264.619 264.619 1000.63 
66 1 1 0.10634 0.0775898 0.0099696 0 0 0 0.170606 -0.0333007 0.00622314 -0.00836234 -0.00282953 0.0039642 0.170606 -0.0333007 0.00622314 492.607 492.607 1001.17 
67 1 1 0.120144 0.0670773 0.00998089 0 0 0 0.18262 -0.0343194 0.00653511 -0.0035857 -0.00218669 -0.00857066 0.18262 -0.0343194 0.00653511 460.673 460.673 1001.09 
68 1 1 0.11219 0.0772735 0.00997066 0 0 0 0.0562885 -0.0862918 0.0063289 -0.00333856 -0.00164723 0.00128485 0.0562885 -0.0862918 0.0063289 509.022 509.022 1001.21 
69 1 1 0.136717 0.0747734 0.00997126 0 0 0 0.158377 0.083481 -0.00114226 -0.00215805 0.000156361 -0.00405675 0.158377 0.083481 -0.00114226 511.324 511.324 1001.21 
70 1 1 0.146029 0.0665077 0.00997894 0 0 0 0.0404638 -0.0408344 -0.00313325 -0.00640336 0.0032275 -0.0160538 0.0404638 -0.0408344 -0.00313325 518.222 518.222 1001.23 
71 1 1 0.00998419 0.078516 0.00993812 0 0 0 0.000180216 -0.0424647 0.00320898 0.0171934 -0.00243559 0.0223132 0.000180216 -0.0424647 0.00320898 792.673 792.673 1001.88 
72 1 1 0.0247909 0.0764323 0.0099719 0 0 0 0.0238612 -0.0102016 0.00230269 0.00359614 -0.00212786 0.00566141 0.0238612 -0.0102016 0.00230269 321.794 321.794 1000.76 
73 1 1 0.0375344 0.0789156 0.00996795 0 0 0 -0.125431 0.00203849 -0.0114921 0.00112719 -0.000129214 0.0117282 -0.125431 0.00203849 -0.0114921 238.939 238.939 1000.57 
74 1 1 0.0784 0.077583 0.00996892 0 0 0 0.179912 -0.0266426 0.00320834 0.00017826 -0.00269111 0.00826728 0.179912 -0.0266426 0.00320834 261.987 261.987 1000.62 
75 1 1 0.0763292 0.0783801 0.00996768 0 0 0 0.0129513 -0.0143751 0.00838419 -0.000861367 -0.00281034 0.00974609 0.0129513 -0.0143751 0.00838419 271.811 271.811 1000.65 
76 1 1 0.0967052 0.0766936 0.00997766 0 0 0 0.166532 -0.0701601 -0.00953756 -0.00241808 -0.00216917 -0.00242791 0.166532 -0.0701601 -0.00953756 408.053 408.053 1000.97 
77 1 1 0.102396 0.0696096 0.00997338 0 0 0 0.0737973 -0.00304585 -0.00125075 -0.00408151 -0.00273611 0.002391 0.0737973 -0.00304585 -0.00125075 386.464 386.464 1000.92 
78 1 1 0.116451 0.0737456 0.00997275 0 0 0 0.107934 -0.040793 0.00127531 0.00103754 -0.00283574 -0.001027 0.107934 -0.040793 0.00127531 485.871 485.871 1001.15 
79 1 1 0.124254 0.0797954 0.0099745 0 0 0 0.017865 0.0183738 -0.00555337 -0.00404981 -0.00590882 -0.00314384 0.017865 0.0183738 -0.00555337 531.973 531.973 1001.26 
80 1 1 0.154144 0.0756205 0.00996289 0 0 0 0.141078 0.0607757 -0.00548833 -0.00547774 0.00373346 -0.00375991 0.141078 0.0607757 -0.00548833 604.211 604.211 1001.43 
81 1 1 0.0100097 0.0900248 0.00992948 0 0 0 0.0198353 0.00626851 0.0157804 -0.0236856 -0.00358272 0.0279942 0.0198353 0.00626851 0.0157804 939.478 939.478 1002.22 
82 1 1 0.0346604 0.0899695 0.00998913 0 0 0 0.064322 -0.0211813 0.00584506 0.00437519 0.0180232 -0.00901731 0.064322 -0.0211813 0.00584506 281.527 281.527 1000.67 
83 1 1 0.0280948 0.0900102 0.00998043 0 0 0 -0.0250988 -0.0123491 0.025639 0.00406742 0.000449299 -0.00296469 -0.0250988 -0.0123491 0.025639 335.426 335.426 1000.8 
84 1 1 0.066856 0.0899958 0.0099683 0 0 0 0.0839655 -0.0118717 -0.0143167 0.00111876 0.0194484 0.00743349 0.0839655 -0.0118717 -0.0143167 377.484 377.484 1000.9 
85 1 1 0.0735065 0.0900109 0.00995252 0 0 0 0.105362 0.00938758 0.0165873 -0.000711711 -0.00102264 0.0256472 0.105362 0.00938758 0.0165873 367.638 367.638 1000.87 
86 1 1 0.0972899 0.0899939 0.00995957 0 0 0 0.0667887 0.0115633 0.0573225 -0.00741678 0.029052 0.0147586 0.0667887 0.0115633 0.0573225 549.383 549.383 1001.3 
87 1 1 0.114345 0.090029 0.00997113 0 0 0 0.052739 0.00578845 0.0206506 -0.00431739 -0.0127404 0.00325016 0.052739 0.00578845 0.0206506 636.466 636.466 1001.51 
88 1 1 0.125992 0.0900194 0.00996779 0 0 0 0.0732118 0.0064156 0.0101544 -0.00340067 0.000354625 0.00411176 0.0732118 0.0064156 0.0101544 608.941 608.941 1001.44 
89 1 1 0.136429 0.0900238 0.00995659 0 0 0 -0.00252368 0.0118715 -0.0123693 -0.00303138 -0.00415799 0.0146647 -0.00252368 0.0118715 -0.0123693 594.347 594.347 1001.41 
90 1 1 0.153483 0.0900165 0.00995697 0 0 0 0.0706804 -0.0157166 0.0150249 -0.0076931 0.000361977 0.00954364 0.0706804 -0.0157166 0.0150249 750.753 750.753 1001.78 
91 1 1 0.00997285 0.00997562 0.00995977 0 0 0 -0.000506403 -0.00918266 0.0282638 0.0297296 0.00309558 -0.0029454 -0.000506403 -0.00918266 0.0282638 939.767 939.767 1002.22 
92 1 1 0.023053 0.00996692 0.0100129 0 0 0 0.0184167 0.0101088 -0.000168518 0.00977629 0.0215429 -0.0391213 0.0184167 0.0101088 -0.000168518 456.774 456.774 1001.08 
93 1 1 0.0388807 0.0100268 0.00995462 0 0 0 0.0909996 0.0121088 0.00434266 0.00395543 -0.0178192 0.0263449 0.0909996 0.0121088 0.00434266 276.44 276.44 1000.66 
94 1 1 0.0531432 0.0099827 0.00995982 0 0 0 0.0539038 0.00763423 0.00992947 -0.00430995 0.005935 0.018206 0.0539038 0.00763423 0.00992947 368.757 368.757 1000.88 
95 1 1 0.0796458 0.00999524 0.00998417 0 0 0 0.00505148 -0.00901906 0.0279146 -0.00376813 -0.00488529 -0.0070901 0.00505148 -0.00901906 0.0279146 351.326 351.326 1000.83 
96 1 1 0.108038 0.00996201 0.00998982 0 0 0 0.144026 0.021297 -0.00489543 -0.00375146 0.0223729 -0.0152289 0.144026 0.021297 -0.00489543 618.481 618.481 1001.47 
97 1 1 0.117537 0.0100013 0.00996475 0 0 0 0.0475267 -0.0067037 -0.0245362 0.00382906 -0.0350081 0.0088236 0.0475267 -0.0067037 -0.0245362 633.002 633.002 1001.5 
98 1 1 0.130177 0.00997383 0.00996375 0 0 0 0.066846 -0.00459873 0.0048467 0.000280298 0.00584329 0.00843248 0.066846 -0.00459873 0.0048467 598.307 598.307 1001.42 
99 1 1 0.142131 0.00997444 0.00998534 0 0 0 0.120901 0.00114615 0.00349557 -0.00526804 0.0089826 -0.0184341 0.120901 0.00114615 0.00349557 617.131 617.131 1001.46 
100 1 1 0.147394 0.00998494 0.00996143 0 0 0 -0.0258562 -0.017074 -0.020195 -0.00492028 -0.000315133 0.00343263 -0.0258562 -0.017074 -0.020195 668.625 668.625 1001.58 
101 1 1 0.0099947 0.0201982 0.0205917 0 0 0 -0.0202841 -0.0183552 0.0178797 0.00918355 0.00372882 0.00172533 -0.0202841 -0.0183552 0.0178797 739.137 739.137 1001.75 
102 1 1 0.0254939 0.0213247 0.009976 0 0 0 -0.0769678 -0.00134225 -0.0053039 0.00404208 0.00117963 0.00173936 -0.0769678 -0.00134225 -0.0053039 325.742 325.742 1000.77 
103 1 1 0.0561603 0.0237179 0.0238582 0 0 0 0.054951 0.0594825 0.0571904 -0.00323766 -0.00115107 -0.000983857 0.054951 0.0594825 0.0571904 167.564 167.564 1000.4 
104 1 1 0.0787604 0.0214796 0.0216995 0 0 0 0.161944 -0.0306125 0.0557753 -0.00135994 0.00184342 -0.000988238 0.161944 -0.0306125 0.0557753 233.638 233.638 1000.56 
105 1 1 0.111615 0.022944 0.0343315 0 0 0 0.198753 -0.0150202 0.119716 -0.00264481 -0.00241121 -0.000578172 0.198753 -0.0150202 0.119716 276.354 276.354 1000.66 
106 1 1 0.126274 0.0202586 0.0230553 0 0 0 0.128882 0.00512186 -0.0414575 -0.00480734 0.00313377 -0.00133164 0.128882 0.00512186 -0.0414575 488.455 488.455 1001.16 
107 1 1 0.14864 0.0203623 0.0231791 0 0 0 0.222151 0.010859 -0.00947387 -0.00495006 -0.000299787 0.00245069 0.222151 0.010859 -0.00947387 553.191 553.191 1001.31 
108 1 1 0.128982 0.0238626 0.00996666 0 0 0 0.0547009 0.00245575 0.0025018 -0.00469554 0.00198286 0.00437736 0.0547009 0.00245575 0.0025018 506.448 506.448 1001.2 
109 1 1 0.166564 0.0205962 0.021517 0 0 0 0.189299 -0.0388818 0.0130768 -0.00011021 0.0008286 0.00156338 0.189299 -0.0388818 0.0130768 630.802 630.802 1001.5 
110 1 1 0.171645 0.0215724 0.00997294 0 0 0 0.187939 0.0774186 -0.0077357 -0.00109129 0.00197075 -0.0126638 0.187939 0.0774186 -0.0077357 721.14 721.14 1001.71 
111 1 1 0.00997769 0.0314028 0.00995409 0 0 0 -0.00933331 0.0266866 0.00483796 0.021597 -0.00151796 0.00772812 -0.00933331 0.0266866 0.00483796 714.003 714.003 1001.69 
112 1 1 0.0295408 0.018511 0.0229299 0 0 0 0.00242895 0.124406 0.0480441 0.00324932 0.00418173 -0.000566831 0.00242895 0.124406 0.0480441 229.042 229.042 1000.54 
113 1 1 0.0465595 0.0299362 0.0099552 0 0 0 0.0476789 0.0948826 0.00939813 -0.00371597 -0.00164361 0.0221487 0.0476789 0.0948826 0.00939813 300.826 300.826 1000.71 
114 1 1 0.0507371 0.0200883 0.00997279 0 0 0 0.049654 0.0978378 0.0226668 -0.00254804 3.56497e-05 0.00606835 0.049654 0.0978378 0.0226668 294.914 294.914 1000.7 
115 1 1 0.0909663 0.0237605 0.0203875 0 0 0 0.128107 0.0147031 -0.0398958 -0.00534304 0.00180191 0.000959639 0.128107 0.0147031 -0.0398958 294.348 294.348 1000.7 
116 1 1 0.100177 0.0363539 0.00997358 0 0 0 0.061887 0.0315985 -0.00413398 -0.00679432 0.00468529 0.00317889 0.061887 0.0315985 -0.00413398 334.045 334.045 1000.79 
117 1 1 0.143951 0.0289679 0.0274605 0 0 0 0.196448 0.00446281 0.0688123 -0.00494207 -0.00257301 -2.03215e-05 0.196448 0.00446281 0.0688123 453.44 453.44 1001.08 
118 1 1 0.156819 0.0219664 0.0197599 0 0 0 0.173016 0.0583181 -0.0442958 -0.0018785 -0.000574309 0.0045215 0.173016 0.0583181 -0.0442958 614.033 614.033 1001.46 
119 1 1 0.148763 0.024575 0.00996363 0 0 0 0.0814208 0.0280139 0.00198933 -0.00771419 -0.00687126 -0.00245905 0.0814208 0.0280139 0.00198933 561.704 561.704 1001.33 
120 1 1 0.17533 0.0263604 0.0201798 0 0 0 0.142413 -0.0335749 -0.0419696 0.000926871 -0.00273014 0.00194765 0.142413 -0.0335749 -0.0419696 632.226 632.226 1001.5 
121 1 1 0.0100323 0.041937 0.00994553 0 0 0 0.0238863 0.0114777 -0.0205539 -0.0194765 -0.00409537 0.0154155 0.0238863 0.0114777 -0.0205539 729.277 729.277 1001.73 
122 1 1 0.0226767 0.0338478 0.00995528 0 0 0 0.0485705 -0.00386091 -0.0797564 0.0102308 0.00272249 0.0204463 0.0485705 -0.00386091 -0.0797564 283.8 283.8 1000.67 
123 1 1 0.0351222 0.0291425 0.00996294 0 0 0 0.103244 -0.0257775 0.000845856 0.00153795 -0.00237094 0.0144216 0.103244 -0.0257775 0.000845856 274.508 274.508 1000.65 
124 1 1 0.0663329 0.027951 0.00998041 0 0 0 0.0987861 -0.00859764 0.0240562 0.00180802 0.00200923 -0.00306745 0.0987861 -0.00859764 0.0240562 287.06 287.06 1000.68 
125 1 1 0.083451 0.0414277 0.00997235 0 0 0 0.102319 -0.025957 -0.00502865 -0.00134294 -0.000340604 0.00656748 0.102319 -0.025957 -0.00502865 260.345 260.345 1000.62 
126 1 1 0.104347 0.0399919 0.00998081 0 0 0 0.140074 -0.0589605 -0.0117315 -0.00418629 0.00249289 -0.00375316 0.140074 -0.0589605 -0.0117315 348.118 348.118 1000.83 
127 1 1 0.13092 0.0396193 0.00996541 0 0 0 0.144628 -0.00822775 0.00224955 -0.00328049 -0.0015171 0.00142657 0.144628 -0.00822775 0.00224955 473.916 473.916 1001.12 
128 1 1 0.139635 0.0334047 0.00996439 0 0 0 0.0581261 -0.0347603 -0.0101801 -0.00620076 1.31865e-05 0.000652342 0.0581261 -0.0347603 -0.0101801 507.943 507.943 1001.21 
129 1 1 0.138452 0.0210756 0.00997032 0 0 0 0.0721277 -0.0562629 0.00410464 0.00230565 -0.00103377 -0.0036052 0.0721277 -0.0562629 0.00410464 536.207 536.207 1001.27 
130 1 1 0.163479 0.0330149 0.009967 0 0 0 0.148848 -0.0408439 0.00533865 -0.000940443 -0.00743273 -0.0101853 0.148848 -0.0408439 0.00533865 636.676 636.676 1001.51 
131 1 1 0.009996 0.05 0.00995504 0 0 0 0.00482863 6.26617e-08 0.0130751 0.00512219 1.12027e-08 0.00647969 0.00482863 6.26617e-08 0.0130751 758.295 758.295 1001.8 
132 1 1 0.025518 0.05 0.00996618 0 0 0 0.0274841 1.74789e-08 -0.0140589 0.00249419 -8.98953e-11 0.0119366 0.0274841 1.74789e-08 -0.0140589 213.797 213.797 1000.51 
133 1 1 0.0381892 0.05 0.0139076 0 0 0 0.0103108 1.67102e-08 -0.149164 -0.00228323 -2.28217e-09 -0.00600946 0.0103108 1.67102e-08 -0.149164 277.435 277.435 1000.66 
134 1 1 0.077616 0.05 0.00998005 0 0 0 0.0117934 -8.16593e-09 0.00115521 -0.00148418 -2.13922e-09 0.000124035 0.0117934 -8.16593e-09 0.00115521 267.764 267.764 1000.64 
135 1 1 0.100262 0.05 0.0200297 0 0 0 0.206521 -1.73366e-08 -0.0659967 -0.00454415 7.13965e-09 -0.00381725 0.206521 -1.73366e-08 -0.0659967 277.983 277.983 1000.66 
136 1 1 0.12055 0.05 0.0191627 0 0 0 0.159574 -1.70502e-08 0.0416358 -0.00684775 2.95813e-08 -0.00246085 0.159574 -1.70502e-08 0.0416358 376.754 376.754 1000.89 
137 1 1 0.147023 0.05 0.0196345 0 0 0 0.176845 3.32813e-08 0.00296122 -0.0126873 4.71108e-08 0.00974056 0.176845 3.32813e-08 0.00296122 610.975 610.975 1001.45 
138 1 1 0.122074 0.05 0.00996976 0 0 0 0.0700279 -1.72676e-08 -0.005109 -0.00595792 2.98985e-08 -0.00147244 0.0700279 -1.72676e-08 -0.005109 409.195 409.195 1000.97 
139 1 1 0.14421 0.05 0.00995173 0 0 0 0.0820012 2.40984e-08 -0.0221187 -0.012823 4.31428e-08 0.00508889 0.0820012 2.40984e-08 -0.0221187 548.059 548.059 1001.3 
140 1 1 0.179564 0.05 0.0224607 0 0 0 0.198102 1.17057e-07 0.0139788 0.00585972 4.29851e-09 0.00147435 0.198102 1.17057e-07 0.0139788 621.589 621.589 1001.47 
141 1 1 0.0100323 0.058063 0.00994553 0 0 0 0.0238863 -0.0114776 -0.0205539 -0.0194765 0.00409539 0.0154155 0.0238863 -0.0114776 -0.0205539 729.277 729.277 1001.73 
142 1 1 0.0226767 0.0661522 0.00995528 0 0 0 0.0485705 0.00386095 -0.0797564 0.0102308 -0.00272248 0.0204461 0.0485705 0.00386095 -0.0797564 283.8 283.8 1000.67 
143 1 1 0.0351222 0.0708575 0.00996294 0 0 0 0.103244 0.0257775 0.000845864 0.00153794 0.00237094 0.0144216 0.103244 0.0257775 0.000845864 274.508 274.508 1000.65 
144 1 1 0.0663329 0.072049 0.00998041 0 0 0 0.0987861 0.00859764 0.0240562 0.00180802 -0.00200924 -0.00306745 0.0987861 0.00859764 0.0240562 287.06 287.06 1000.68 
145 1 1 0.083451 0.0585723 0.00997235 0 0 0 0.102319 0.025957 -0.00502864 -0.00134294 0.000340601 0.00656748 0.102319 0.025957 -0.00502864 260.345 260.345 1000.62 
146 1 1 0.104347 0.0600081 0.00998081 0 0 0 0.140074 0.0589605 -0.0117315 -0.00418627 -0.00249287 -0.00375316 0.140074 0.0589605 -0.0117315 348.117 348.117 1000.83 
147 1 1 0.13092 0.0603807 0.00996541 0 0 0 0.144628 0.00822774 0.00224958 -0.00328047 0.00151717 0.00142657 0.144628 0.00822774 0.00224958 473.915 473.915 1001.12 
148 1 1 0.139635 0.0665953 0.00996439 0 0 0 0.0581262 0.0347603 -0.0101801 -0.00620074 -1.3089e-05 0.000652335 0.0581262 0.0347603 -0.0101801 507.941 507.941 1001.21 
149 1 1 0.138452 0.0789244 0.00997032 0 0 0 0.0721279 0.0562629 0.00410468 0.00230566 0.00103386 -0.00360523 0.0721279 0.0562629 0.00410468 536.204 536.204 1001.27 
150 1 1 0.163479 0.0669851 0.009967 0 0 0 0.148848 0.0408441 0.00533861 -0.000940501 0.00743282 -0.0101853 0.148848 0.0408441 0.00533861 636.675 636.675 1001.51 
151 1 1 0.00997769 0.0685972 0.00995409 0 0 0 -0.00933332 -0.0266866 0.00483797 0.021597 0.00151797 0.0077282 -0.00933332 -0.0266866 0.00483797 714.003 714.003 1001.69 
152 1 1 0.0295408 0.081489 0.0229299 0 0 0 0.00242891 -0.124406 0.0480441 0.00324931 -0.00418171 -0.000566861 0.00242891 -0.124406 0.0480441 229.042 229.042 1000.54 
153 1 1 0.0465595 0.0700638 0.0099552 0 0 0 0.0476789 -0.0948826 0.00939814 -0.00371597 0.00164361 0.0221487 0.0476789 -0.0948826 0.00939814 300.826 300.826 1000.71 
154 1 1 0.0507371 0.0799117 0.00997279 0 0 0 0.049654 -0.0978378 0.0226668 -0.00254804 -3.56487e-05 0.00606834 0.049654 -0.0978378 0.0226668 294.914 294.914 1000.7 
155 1 1 0.0909663 0.0762395 0.0203875 0 0 0 0.128107 -0.0147031 -0.0398958 -0.00534302 -0.00180192 0.000959646 0.128107 -0.0147031 -0.0398958 294.348 294.348 1000.7 
156 1 1 0.100177 0.0636461 0.00997358 0 0 0 0.061887 -0.0315985 -0.00413396 -0.0067943 -0.00468528 0.00317889 0.061887 -0.0315985 -0.00413396 334.045 334.045 1000.79 
157 1 1 0.143951 0.0710321 0.0274605 0 0 0 0.196448 -0.00446278 0.0688123 -0.00494204 0.00257309 -2.03454e-05 0.196448 -0.00446278 0.0688123 453.438 453.438 1001.08 
158 1 1 0.156819 0.0780336 0.0197599 0 0 0 0.173016 -0.0583181 -0.0442959 -0.00187854 0.000574423 0.00452145 0.173016 -0.0583181 -0.0442959 614.029 614.029 1001.46 
159 1 1 0.148763 0.075425 0.00996363 0 0 0 0.081421 -0.0280139 0.00198934 -0.00771417 0.00687133 -0.0024591 0.081421 -0.0280139 0.00198934 561.701 561.701 1001.33 
160 1 1 0.17533 0.0736396 0.0201798 0 0 0 0.142414 0.0335751 -0.0419697 0.000926739 0.00273021 0.00194768 0.142414 0.0335751 -0.0419697 632.225 632.225 1001.5 
161 1 1 0.0099947 0.0798018 0.0205917 0 0 0 -0.020284 0.0183552 0.0178798 0.00918373 -0.0037288 0.00172535 -0.020284 0.0183552 0.0178798 739.137 739.137 1001.75 
162 1 1 0.0254939 0.0786753 0.009976 0 0 0 -0.0769678 0.00134227 -0.00530388 0.00404207 -0.00117962 0.00173937 -0.0769678 0.00134227 -0.00530388 325.741 325.741 1000.77 
163 1 1 0.0561603 0.0762821 0.0238582 0 0 0 0.054951 -0.0594825 0.0571904 -0.00323767 0.00115107 -0.000983854 0.054951 -0.0594825 0.0571904 167.564 167.564 1000.4 
164 1 1 0.0787604 0.0785204 0.0216995 0 0 0 0.161944 0.0306124 0.0557754 -0.00135994 -0.00184343 -0.00098823 0.161944 0.0306124 0.0557754 233.639 233.639 1000.56 
165 1 1 0.111615 0.077056 0.0343315 0 0 0 0.198753 0.0150202 0.119716 -0.00264477 0.00241121 -0.000578185 0.198753 0.0150202 0.119716 276.354 276.354 1000.66 
166 1 1 0.126274 0.0797414 0.0230553 0 0 0 0.128882 -0.00512192 -0.0414574 -0.00480727 -0.00313372 -0.00133166 0.128882 -0.00512192 -0.0414574 488.453 488.453 1001.16 
167 1 1 0.14864 0.0796377 0.0231791 0 0 0 0.222152 -0.010859 -0.00947391 -0.00495004 0.000299889 0.00245063 0.222152 -0.010859 -0.00947391 553.188 553.188 1001.31 
168 1 1 0.128982 0.0761374 0.00996666 0 0 0 0.0547009 -0.00245581 0.00250184 -0.00469546 -0.0019828 0.00437735 0.0547009 -0.00245581 0.00250184 506.446 506.446 1001.2 
169 1 1 0.166564 0.0794038 0.021517 0 0 0 0.189299 0.0388819 0.0130767 -0.000110314 -0.000828471 0.00156337 0.189299 0.0388819 0.0130767 630.799 630.799 1001.5 
170 1 1 0.171645 0.0784276 0.00997294 0 0 0 0.187939 -0.0774185 -0.00773578 -0.00109144 -0.00197064 -0.0126639 0.187939 -0.0774185 -0.00773578 721.138 721.138 1001.71 
171 1 1 0.00997285 0.0900244 0.00995977 0 0 0 -0.000507124 0.00918264 0.0282639 0.0297293 -0.00309558 -0.00294541 -0.000507124 0.00918264 0.0282639 939.765 939.765 1002.22 
172 1 1 0.023053 0.0900331 0.0100129 0 0 0 0.0184166 -0.0101089 -0.000168475 0.00977628 -0.0215428 -0.0391213 0.0184166 -0.0101089 -0.000168475 456.773 456.773 1001.08 
173 1 1 0.0388807 0.0899732 0.00995462 0 0 0 0.0909995 -0.0121088 0.00434269 0.00395541 0.0178192 0.0263448 0.0909995 -0.0121088 0.00434269 276.44 276.44 1000.66 
174 1 1 0.0531432 0.0900173 0.00995982 0 0 0 0.0539037 -0.00763425 0.00992948 -0.00430996 -0.00593499 0.018206 0.0539037 -0.00763425 0.00992948 368.757 368.757 1000.88 
175 1 1 0.0796458 0.0900048 0.00998417 0 0 0 0.00505144 0.00901906 0.0279146 -0.00376813 0.00488529 -0.00709009 0.00505144 0.00901906 0.0279146 351.326 351.326 1000.83 
176 1 1 0.108038 0.090038 0.00998982 0 0 0 0.144026 -0.0212971 -0.00489539 -0.00375138 -0.0223728 -0.0152289 0.144026 -0.0212971 -0.00489539 618.481 618.481 1001.47 
177 1 1 0.117537 0.0899987 0.00996475 0 0 0 0.0475268 0.00670362 -0.0245361 0.00382915 0.035008 0.00882359 0.0475268 0.00670362 -0.0245361 633 633 1001.5 
178 1 1 0.130177 0.0900262 0.00996375 0 0 0 0.0668461 0.00459865 0.00484675 0.00028039 -0.00584327 0.00843247 0.0668461 0.00459865 0.00484675 598.303 598.303 1001.42 
179 1 1 0.142131 0.0900256 0.00998534 0 0 0 0.120901 -0.00114615 0.0034956 -0.00526797 -0.00898257 -0.0184341 0.120901 -0.00114615 0.0034956 617.127 617.127 1001.46 
180 1 1 0.147394 0.0900151 0.00996143 0 0 0 -0.025856 0.017074 -0.020195 -0.00492025 0.000315194 0.00343258 -0.025856 0.017074 -0.020195 668.62 668.62 1001.58 