ITEM: TIMESTEP
173000
ITEM: NUMBER OF ATOMS
2655
ITEM: BOX BOUNDS ff ff ff
0 0.5
0 0.1
0 0.5
ITEM: ATOMS id type type x y z ix iy iz vx vy vz fx fy fz vx vy vz p p rho 
1 1 1 0.00997708 0.00997855 0.00998714 0 0 0 0.0176949 0.00023779 -0.00985 0.00849818 0.00346888 -0.0144468 0.0176949 0.00023779 -0.00985 478.35 478.35 1001.14 
2 1 1 0.0437072 0.0099808 0.00997808 0 0 0 -0.0178919 0.00801348 -0.00696517 -0.000762497 0.00181404 -0.00361394 -0.0178919 0.00801348 -0.00696517 441.336 441.336 1001.05 
3 1 1 0.0390517 0.00997356 0.00998183 0 0 0 0.0050991 0.00224952 -0.00702704 -0.000709415 0.0092463 -0.00665057 0.0050991 0.00224952 -0.00702704 424.374 424.374 1001.01 
4 1 1 0.0772248 0.00997748 0.00998126 0 0 0 0.00270911 -0.00507118 0.00258538 -0.000618076 0.00636852 -0.00614697 0.00270911 -0.00507118 0.00258538 436.945 436.945 1001.04 
5 1 1 0.0818704 0.0099887 0.0099694 0 0 0 -0.0151523 0.00310867 -0.00253937 -0.000260079 -0.00471808 0.00590272 -0.0151523 0.00310867 -0.00253937 437.701 437.701 1001.04 
6 1 1 0.100158 0.00997874 0.00997955 0 0 0 -0.0125599 0.0053018 -0.00702877 -0.000104275 0.00562928 -0.00386765 -0.0125599 0.0053018 -0.00702877 440.43 440.43 1001.05 
7 1 1 0.113957 0.00998615 0.00997222 0 0 0 -0.0125892 0.00428979 -0.00427939 -0.000338511 -0.001952 0.00303284 -0.0125892 0.00428979 -0.00427939 443.671 443.671 1001.05 
8 1 1 0.122876 0.00998435 0.00997465 0 0 0 -0.0139241 -0.00174791 0.0013911 0.000220159 5.49034e-05 0.000448985 -0.0139241 -0.00174791 0.0013911 442.216 442.216 1001.05 
9 1 1 0.132499 0.00998629 0.00997275 0 0 0 -0.0233244 -0.00368095 0.00347056 -0.00038991 -0.00209336 0.0015162 -0.0233244 -0.00368095 0.00347056 442.524 442.524 1001.05 
10 1 1 0.146287 0.00998224 0.00997657 0 0 0 -0.0237962 -0.00370204 0.00242009 -0.000319218 0.00229423 -0.00220406 -0.0237962 -0.00370204 0.00242009 429.567 429.567 1001.02 
11 1 1 0.00998142 0.0203839 0.00997163 0 0 0 0.00468349 0.0084624 -0.00521724 0.00381689 0.000211925 -0.00171429 0.00468349 0.0084624 -0.00521724 459.677 459.677 1001.09 
12 1 1 0.0384357 0.0386021 0.0099724 0 0 0 0.0103007 -0.00380184 -0.000705811 -0.000633403 1.09996e-05 0.000956713 0.0103007 -0.00380184 -0.000705811 421.817 421.817 1001 
13 1 1 0.0230643 0.0217209 0.00996985 0 0 0 0.0253185 0.0174384 -0.0049449 -0.00071871 -0.000472077 0.00185176 0.0253185 0.0174384 -0.0049449 447.257 447.257 1001.06 
14 1 1 0.0894098 0.0231782 0.00996997 0 0 0 -0.0160527 -0.00741444 -0.00138578 0.000341223 0.000635758 0.00185167 -0.0160527 -0.00741444 -0.00138578 407.907 407.907 1000.97 
15 1 1 0.0779147 0.0219844 0.00997189 0 0 0 -0.0211154 -0.00606497 0.000355201 0.000411962 0.000265324 8.50542e-05 -0.0211154 -0.00606497 0.000355201 427.991 427.991 1001.02 
16 1 1 0.109755 0.0225436 0.00997132 0 0 0 -0.0247292 -0.00396069 -0.0015842 7.40691e-05 0.000558374 0.000654665 -0.0247292 -0.00396069 -0.0015842 402.052 402.052 1000.95 
17 1 1 0.112121 0.0406861 0.00997093 0 0 0 0.00790389 0.00466519 -0.000371094 -3.32106e-06 0.000311262 0.000202845 0.00790389 0.00466519 -0.000371094 397.274 397.274 1000.94 
18 1 1 0.141566 0.0315147 0.00997108 0 0 0 -0.0139353 0.00303159 -0.000228956 -0.0004266 0.000632387 0.000312771 -0.0139353 0.00303159 -0.000228956 394.162 394.162 1000.94 
19 1 1 0.12305 0.0226938 0.00997061 0 0 0 -0.0363211 -0.0187989 0.000420685 -6.00644e-06 0.000194881 0.000375275 -0.0363211 -0.0187989 0.000420685 395.433 395.433 1000.94 
20 1 1 0.160478 0.0227681 0.00996991 0 0 0 -0.0456224 0.00672794 -0.000213127 0.000243937 -8.28161e-05 0.000698094 -0.0456224 0.00672794 -0.000213127 395.043 395.043 1000.94 
21 1 1 0.00998356 0.0282295 0.00997125 0 0 0 -0.008044 -0.0054794 0.00555259 0.00131052 0.00069878 -0.000833071 -0.008044 -0.0054794 0.00555259 467.704 467.704 1001.11 
22 1 1 0.0358146 0.0262935 0.00997289 0 0 0 -0.0143447 -0.00662424 -0.00191915 0.000323612 0.000174766 0.000181731 -0.0143447 -0.00662424 -0.00191915 406.004 406.004 1000.96 
23 1 1 0.0729731 0.0470768 0.00997285 0 0 0 -0.0110936 -0.0124227 -0.000597559 -0.000208642 0.000204385 0.000257322 -0.0110936 -0.0124227 -0.000597559 381.387 381.387 1000.91 
24 1 1 0.0957159 0.0291687 0.00997192 0 0 0 0.0128764 0.0184963 -0.000198927 0.000150491 3.74099e-05 0.000423916 0.0128764 0.0184963 -0.000198927 409.212 409.212 1000.97 
25 1 1 0.117373 0.0372273 0.00997114 0 0 0 -0.0405403 0.00569202 -0.000407942 0.00106479 5.77754e-05 0.000251499 -0.0405403 0.00569202 -0.000407942 384.264 384.264 1000.91 
26 1 1 0.11615 0.0229648 0.00997072 0 0 0 -0.0308251 0.0127451 4.67625e-05 0.000626477 -0.000111471 0.000586869 -0.0308251 0.0127451 4.67625e-05 404.412 404.412 1000.96 
27 1 1 0.141651 0.0445443 0.00997056 0 0 0 -0.023394 0.00207211 -0.000263697 -4.32088e-05 -7.94436e-05 0.000262595 -0.023394 0.00207211 -0.000263697 387.068 387.068 1000.92 
28 1 1 0.118766 0.0301855 0.00997139 0 0 0 -0.0192307 -0.0120147 -0.000293265 -7.78785e-05 0.000609535 0.000368551 -0.0192307 -0.0120147 -0.000293265 378.628 378.628 1000.9 
29 1 1 0.148392 0.0226183 0.0099707 0 0 0 -0.0382103 0.00823632 -0.000123559 -0.000123946 9.42788e-06 0.000328186 -0.0382103 0.00823632 -0.000123559 388.296 388.296 1000.92 
30 1 1 0.155514 0.0320328 0.00996989 0 0 0 -0.00387788 0.00679011 -0.000210971 -0.000693919 -6.99864e-05 0.000284348 -0.00387788 0.00679011 -0.000210971 402.256 402.256 1000.96 
31 1 1 0.0099849 0.0382711 0.00996995 0 0 0 0.00800992 0.0116905 -0.0071081 -0.000558674 0.00019922 0.000490343 0.00800992 0.0116905 -0.0071081 467.315 467.315 1001.11 
32 1 1 0.0229597 0.0413348 0.00997351 0 0 0 0.0183121 -0.00654409 -0.00230675 -0.000387903 0.000411724 -0.000765619 0.0183121 -0.00654409 -0.00230675 441.148 441.148 1001.05 
33 1 1 0.0591557 0.0249762 0.00997266 0 0 0 -0.00440136 -0.016428 -0.00051808 0.000462033 0.000511955 0.000624911 -0.00440136 -0.016428 -0.00051808 406.009 406.009 1000.96 
34 1 1 0.0715391 0.0366849 0.0099726 0 0 0 -0.0602827 0.0205875 -0.000485592 -3.72061e-05 0.000236864 0.000272542 -0.0602827 0.0205875 -0.000485592 402.081 402.081 1000.95 
35 1 1 0.0862926 0.0360037 0.00997221 0 0 0 -0.0198851 -0.00140289 -0.000390817 0.000257206 6.67758e-05 0.000252204 -0.0198851 -0.00140289 -0.000390817 389.221 389.221 1000.92 
36 1 1 0.107659 0.0307021 0.0099712 0 0 0 -0.0239162 0.0131961 -0.000394269 0.000420114 -0.000136916 0.000399999 -0.0239162 0.0131961 -0.000394269 389.374 389.374 1000.92 
37 1 1 0.130319 0.0374704 0.00997109 0 0 0 -0.0347555 -0.00934163 -0.000333681 -0.000142031 0.000219431 0.000235994 -0.0347555 -0.00934163 -0.000333681 389.889 389.889 1000.93 
38 1 1 0.136183 0.0382158 0.00997119 0 0 0 0.00513755 -0.0199532 -0.000268944 0.000871924 0.000196609 0.000275356 0.00513755 -0.0199532 -0.000268944 392.046 392.046 1000.93 
39 1 1 0.161842 0.0374785 0.00996934 0 0 0 -0.0326439 0.00317538 -0.000208768 0.000798904 -0.000271075 0.000288858 -0.0326439 0.00317538 -0.000208768 394.619 394.619 1000.94 
40 1 1 0.176105 0.0374956 0.00996995 0 0 0 -0.0114908 -0.00106179 -0.000248423 -0.000244855 6.36955e-05 0.000154758 -0.0114908 -0.00106179 -0.000248423 390.591 390.591 1000.93 
41 1 1 0.00998925 0.052577 0.00997253 0 0 0 0.0103881 0.0143842 -0.00842949 -0.00408304 -0.000122331 6.6304e-05 0.0103881 0.0143842 -0.00842949 458.501 458.501 1001.09 
42 1 1 0.0435837 0.0627647 0.00997491 0 0 0 0.0326643 0.0248152 -0.000914399 0.000161585 0.00119709 -0.00165855 0.0326643 0.0248152 -0.000914399 391.633 391.633 1000.93 
43 1 1 0.0611806 0.0525375 0.00997269 0 0 0 0.00656716 0.0287275 -0.00110041 -0.000218628 0.000223911 0.00014117 0.00656716 0.0287275 -0.00110041 402.698 402.698 1000.96 
44 1 1 0.0789916 0.042668 0.0099724 0 0 0 -0.0147379 -0.00299595 -0.000427699 -6.46081e-06 0.000277229 0.000103538 -0.0147379 -0.00299595 -0.000427699 398.356 398.356 1000.95 
45 1 1 0.0907905 0.0476146 0.00997194 0 0 0 -0.0193841 0.00482173 -0.000576094 -0.00035222 3.77811e-06 0.000464409 -0.0193841 0.00482173 -0.000576094 390.061 390.061 1000.93 
46 1 1 0.104914 0.0496349 0.00997106 0 0 0 -0.00226894 -0.000584497 -0.000585123 -6.63525e-05 0.000392225 0.000400202 -0.00226894 -0.000584497 -0.000585123 387.36 387.36 1000.92 
47 1 1 0.111747 0.0492483 0.00997168 0 0 0 -0.0272171 -0.00202781 -0.000472194 -0.000457652 6.0144e-05 0.000286987 -0.0272171 -0.00202781 -0.000472194 383.803 383.803 1000.91 
48 1 1 0.136413 0.0507827 0.00997081 0 0 0 -0.0324614 0.00372558 -0.00031812 -4.2086e-06 -0.000177246 0.000225441 -0.0324614 0.00372558 -0.00031812 379.08 379.08 1000.9 
49 1 1 0.123157 0.0488147 0.00997123 0 0 0 0.00731429 0.00433638 -0.000373957 0.00024585 -0.000125403 0.000179477 0.00731429 0.00433638 -0.000373957 383.733 383.733 1000.91 
50 1 1 0.160982 0.0520258 0.00997028 0 0 0 -0.0351409 -0.0171362 -0.000278392 0.000516457 -0.000141795 0.000233978 -0.0351409 -0.0171362 -0.000278392 380.724 380.724 1000.9 
51 1 1 0.00998241 0.0614934 0.00997419 0 0 0 -0.00927207 0.00969088 0.00493238 0.00264375 0.000644168 -0.00104866 -0.00927207 0.00969088 0.00493238 460.664 460.664 1001.09 
52 1 1 0.0249922 0.0515718 0.00997506 0 0 0 -0.0105215 -0.0168838 -0.00186952 0.000471 0.00139375 1.59223e-05 -0.0105215 -0.0168838 -0.00186952 433.717 433.717 1001.03 
53 1 1 0.0696496 0.0588647 0.00997314 0 0 0 -0.00754412 -0.00312576 -0.00016289 0.000457208 0.00105258 0.000135528 -0.00754412 -0.00312576 -0.00016289 391.206 391.206 1000.93 
54 1 1 0.0911561 0.058783 0.00997188 0 0 0 -0.00612743 -0.00748952 -0.000415832 -0.000236979 0.000652523 0.000217939 -0.00612743 -0.00748952 -0.000415832 384.404 384.404 1000.91 
55 1 1 0.0961735 0.0558945 0.00997244 0 0 0 -0.0109839 -0.012741 -0.000460595 -0.000238599 0.000423638 0.000182648 -0.0109839 -0.012741 -0.000460595 383.98 383.98 1000.91 
56 1 1 0.106135 0.0707405 0.00997247 0 0 0 0.000280631 -0.0193713 -0.000464428 0.000458222 0.000486421 0.000217114 0.000280631 -0.0193713 -0.000464428 385.399 385.399 1000.92 
57 1 1 0.133493 0.0632161 0.00997067 0 0 0 0.0149649 0.0148288 -0.000380611 0.000317887 0.000107166 0.000213035 0.0149649 0.0148288 -0.000380611 374.1 374.1 1000.89 
58 1 1 0.141265 0.0643305 0.00997063 0 0 0 -0.00811279 -0.00625123 -0.000374271 -0.000509764 -0.000492212 0.000185307 -0.00811279 -0.00625123 -0.000374271 383.09 383.09 1000.91 
59 1 1 0.156911 0.0651124 0.00997059 0 0 0 -0.0508079 0.00601956 -0.000362241 -0.000432136 -0.000668326 0.000196851 -0.0508079 0.00601956 -0.000362241 387.462 387.462 1000.92 
60 1 1 0.168327 0.0615392 0.00997115 0 0 0 -0.0324442 0.0297167 -0.000329153 -0.000725162 0.000668636 0.000150454 -0.0324442 0.0297167 -0.000329153 388.141 388.141 1000.92 
61 1 1 0.00998463 0.0712401 0.00997177 0 0 0 -0.00419362 0.000605441 0.00252324 3.61011e-05 0.00124221 0.00045245 -0.00419362 0.000605441 0.00252324 456.271 456.271 1001.08 
62 1 1 0.0502546 0.0592404 0.00997291 0 0 0 0.00970787 -0.0269652 -0.000757086 0.000339842 -6.61916e-06 0.00057572 0.00970787 -0.0269652 -0.000757086 385.779 385.779 1000.92 
63 1 1 0.0834177 0.063307 0.00997182 0 0 0 -0.0033574 0.00135091 -0.000768091 -0.000399518 -0.000377227 0.000360184 -0.0033574 0.00135091 -0.000768091 399.325 399.325 1000.95 
64 1 1 0.0941408 0.0668606 0.00997232 0 0 0 -0.0201079 -0.00416545 -0.00045794 0.000443953 0.000192098 0.000259965 -0.0201079 -0.00416545 -0.00045794 395.778 395.778 1000.94 
65 1 1 0.122818 0.0606396 0.00997064 0 0 0 -0.0164963 -0.00579232 -0.000397151 -0.000156532 0.000149451 0.000242202 -0.0164963 -0.00579232 -0.000397151 391.184 391.184 1000.93 
66 1 1 0.11516 0.0772901 0.00997099 0 0 0 -0.0410404 0.0110234 -0.000817451 0.00109882 -9.73359e-05 0.000599608 -0.0410404 0.0110234 -0.000817451 391.655 391.655 1000.93 
67 1 1 0.141567 0.0550736 0.00997052 0 0 0 -0.0224615 -0.0120419 -0.000343136 -0.000145157 0.000245532 0.000228432 -0.0224615 -0.0120419 -0.000343136 377.708 377.708 1000.9 
68 1 1 0.121225 0.0690277 0.00997117 0 0 0 -0.00612682 -0.011578 -0.000436578 0.000326431 -2.65957e-05 0.00033226 -0.00612682 -0.011578 -0.000436578 385.582 385.582 1000.92 
69 1 1 0.147937 0.0767881 0.00997134 0 0 0 -0.0338009 0.0117406 -0.000245311 -0.000197035 -0.000121208 0.000536308 -0.0338009 0.0117406 -0.000245311 389.451 389.451 1000.92 
70 1 1 0.158888 0.0711718 0.00997111 0 0 0 -0.0430073 0.0260848 -0.000413772 -0.000536031 0.000448518 0.000151073 -0.0430073 0.0260848 -0.000413772 385.272 385.272 1000.91 
71 1 1 0.00999568 0.0796151 0.00997166 0 0 0 0.00183159 -0.00203883 -0.0038365 -0.0111617 -0.000759968 -0.000360751 0.00183159 -0.00203883 -0.0038365 465.211 465.211 1001.1 
72 1 1 0.0321296 0.06448 0.00997584 0 0 0 0.00957139 0.0128699 -0.0010542 3.21192e-05 0.000680604 -0.00215758 0.00957139 0.0128699 -0.0010542 410.422 410.422 1000.97 
73 1 1 0.0336282 0.0791684 0.0099714 0 0 0 -0.0131091 -0.0077469 -0.00346037 -0.000567934 -0.000598446 0.00165706 -0.0131091 -0.0077469 -0.00346037 425.312 425.312 1001.01 
74 1 1 0.0959133 0.0766739 0.00997196 0 0 0 -0.01027 -0.00100383 -0.000595892 9.69623e-06 0.000222709 0.000242479 -0.01027 -0.00100383 -0.000595892 398.055 398.055 1000.95 
75 1 1 0.0834066 0.0779802 0.00997354 0 0 0 -0.0113994 0.00489404 -0.00121289 -0.000299586 -0.00086062 -0.00045128 -0.0113994 0.00489404 -0.00121289 397.419 397.419 1000.94 
76 1 1 0.109883 0.0772662 0.00997113 0 0 0 -0.0218091 -0.00957839 -0.00076811 -0.00063953 0.000146976 0.000367746 -0.0218091 -0.00957839 -0.00076811 404.569 404.569 1000.96 
77 1 1 0.111691 0.0601066 0.00997247 0 0 0 -0.0378478 -0.000117636 -0.00044996 0.000334654 -0.000371466 0.000242225 -0.0378478 -0.000117636 -0.00044996 380.133 380.133 1000.9 
78 1 1 0.145793 0.0686878 0.00997097 0 0 0 -0.0340529 -0.00742592 -0.000398323 -7.7756e-05 0.000126779 0.00022093 -0.0340529 -0.00742592 -0.000398323 380.224 380.224 1000.9 
79 1 1 0.121962 0.0772733 0.00997104 0 0 0 -0.0390704 -0.00682896 -0.000745617 0.000266657 -0.000146285 0.00048808 -0.0390704 -0.00682896 -0.000745617 390.742 390.742 1000.93 
80 1 1 0.161601 0.0784517 0.00997078 0 0 0 -0.0312235 -0.00376796 2.82698e-06 -0.000270277 -0.000874781 0.000459604 -0.0312235 -0.00376796 2.82698e-06 396.508 396.508 1000.94 
81 1 1 0.00999316 0.0900166 0.00998042 0 0 0 0.00189886 0.0144457 0.0136525 -0.0051722 0.000632961 -0.00707059 0.00189886 0.0144457 0.0136525 466.86 466.86 1001.11 
82 1 1 0.0357161 0.0900165 0.00997241 0 0 0 -0.00387603 -0.00241953 -0.00182685 0.00139962 0.00168228 0.00230879 -0.00387603 -0.00241953 -0.00182685 398.341 398.341 1000.95 
83 1 1 0.03153 0.0900162 0.0099731 0 0 0 -0.0319894 0.00503795 0.00329249 -0.00062761 0.00180541 0.000212996 -0.0319894 0.00503795 0.00329249 399.988 399.988 1000.95 
84 1 1 0.0800018 0.0900107 0.00996974 0 0 0 -0.030042 0.00203432 0.00197465 -0.00138379 0.006035 0.0051116 -0.030042 0.00203432 0.00197465 425.109 425.109 1001.01 
85 1 1 0.0844655 0.0900233 0.0099806 0 0 0 -0.0192454 0.000416051 -0.00199659 1.69914e-05 -0.00647503 -0.00571969 -0.0192454 0.000416051 -0.00199659 410.19 410.19 1000.97 
86 1 1 0.103223 0.0900143 0.00997181 0 0 0 -0.0239981 -0.00440205 -0.004682 0.000405561 0.00162544 0.00310596 -0.0239981 -0.00440205 -0.004682 423.066 423.066 1001 
87 1 1 0.117363 0.0900235 0.00998237 0 0 0 -0.0239351 0.00115791 -0.00216949 -0.000117007 -0.00827298 -0.00695844 -0.0239351 0.00115791 -0.00216949 417.161 417.161 1000.99 
88 1 1 0.126546 0.0900235 0.00998087 0 0 0 -0.036117 -0.00124649 -0.00380263 0.000347702 -0.00799253 -0.00612641 -0.036117 -0.00124649 -0.00380263 423.343 423.343 1001 
89 1 1 0.136028 0.0900088 0.00996826 0 0 0 -0.0197423 -0.00167222 -0.00094778 0.000174054 0.00629577 0.00609517 -0.0197423 -0.00167222 -0.00094778 425.542 425.542 1001.01 
90 1 1 0.149844 0.090018 0.00997763 0 0 0 -0.0209396 0.00764144 0.00527596 0.000744672 -0.0022374 -0.00342044 -0.0209396 0.00764144 0.00527596 415.473 415.473 1000.99 
91 1 1 0.00999148 0.00997336 0.00997648 0 0 0 -0.0257668 -0.00152903 -0.00256491 -0.00567726 0.00918471 -0.00338981 -0.0257668 -0.00152903 -0.00256491 382.084 382.084 1000.91 
92 1 1 0.0346867 0.00997888 0.00997694 0 0 0 0.00878505 -0.00429032 0.00139012 0.000419777 0.00318482 -0.00216775 0.00878505 -0.00429032 0.00139012 429.105 429.105 1001.02 
93 1 1 0.0488472 0.00998386 0.00997269 0 0 0 -0.00463176 0.00249938 0.000505834 -8.38784e-05 -0.00104981 0.00156958 -0.00463176 0.00249938 0.000505834 444.521 444.521 1001.06 
94 1 1 0.0582627 0.00998565 0.00997305 0 0 0 -0.0093069 -0.00940021 0.00725687 0.00028244 -0.00242068 0.00132214 -0.0093069 -0.00940021 0.00725687 427.91 427.91 1001.02 
95 1 1 0.0861843 0.00998106 0.00997885 0 0 0 -0.0112724 -0.00785638 0.00485057 0.000236468 0.00332614 -0.00388901 -0.0112724 -0.00785638 0.00485057 428.017 428.017 1001.02 
96 1 1 0.10933 0.00998223 0.00997615 0 0 0 -0.0198541 0.00706423 -0.00792235 -0.000287355 0.00220256 -0.000522476 -0.0198541 0.00706423 -0.00792235 435.928 435.928 1001.03 
97 1 1 0.118375 0.00998439 0.00997706 0 0 0 -0.0149449 -0.010203 0.00885692 0.000135193 0.00018802 -0.00165895 -0.0149449 -0.010203 0.00885692 441.292 441.292 1001.05 
98 1 1 0.127432 0.00998294 0.00997375 0 0 0 -0.0252718 0.00609268 -0.00585868 0.000381063 0.0013855 0.000818487 -0.0252718 0.00609268 -0.00585868 437.313 437.313 1001.04 
99 1 1 0.136643 0.00998092 0.00997686 0 0 0 -0.00428819 -0.000780884 -0.000514769 0.000652701 0.00352518 -0.0027481 -0.00428819 -0.000780884 -0.000514769 440.977 440.977 1001.05 
100 1 1 0.141424 0.00998694 0.00997038 0 0 0 -0.0460265 0.00430109 -0.00366462 0.000250277 -0.0023163 0.00363741 -0.0460265 0.00430109 -0.00366462 436.556 436.556 1001.04 
101 1 1 0.00998831 0.0206912 0.0227734 0 0 0 -0.00161603 -0.00437743 -0.0116941 -0.00172317 0.00168357 0.000773758 -0.00161603 -0.00437743 -0.0116941 435.587 435.587 1001.03 
102 1 1 0.00998752 0.0236381 0.00996887 0 0 0 0.00638359 -0.00364798 -0.00482775 -0.00249107 -0.000622669 0.000959102 0.00638359 -0.00364798 -0.00482775 475.161 475.161 1001.13 
103 1 1 0.0238084 0.0259016 0.0258266 0 0 0 -0.0243047 -0.000972728 0.00337646 -0.000170397 0.00131281 -0.000570884 -0.0243047 -0.000972728 0.00337646 372.609 372.609 1000.88 
104 1 1 0.0769797 0.0222948 0.032295 0 0 0 -0.00166527 0.00398794 0.000748207 0.000543919 0.000711583 0.00143327 -0.00166527 0.00398794 0.000748207 308.385 308.385 1000.73 
105 1 1 0.120893 0.0390805 0.0531134 0 0 0 0.00339309 0.0358452 -0.0371593 0.000360739 0.000155823 0.000674328 0.00339309 0.0358452 -0.0371593 141.867 141.867 1000.34 
106 1 1 0.136235 0.0227096 0.00997073 0 0 0 -0.0331977 -0.00865285 -0.000447019 -0.000101146 0.000429179 0.000225987 -0.0331977 -0.00865285 -0.000447019 399.111 399.111 1000.95 
107 1 1 0.131512 0.0211182 0.0357479 0 0 0 0.0365467 -0.0125773 -0.00553664 0.000720167 0.00025525 0.000941946 0.0365467 -0.0125773 -0.00553664 286.599 286.599 1000.68 
108 1 1 0.147941 0.034933 0.00997025 0 0 0 -0.00353778 0.00256915 -0.000202554 0.000981217 -4.70958e-05 0.000328549 -0.00353778 0.00256915 -0.000202554 388.248 388.248 1000.92 
109 1 1 0.151082 0.0227681 0.0212025 0 0 0 0.0278247 -0.00123937 0.0118523 -0.000302172 4.29726e-06 0.000275765 0.0278247 -0.00123937 0.0118523 364.091 364.091 1000.86 
110 1 1 0.180337 0.0222888 0.00997151 0 0 0 -0.0498157 -0.00682053 -8.24494e-07 -0.0004553 0.000674663 -2.77216e-05 -0.0498157 -0.00682053 -8.24494e-07 397.73 397.73 1000.94 
111 1 1 0.0099846 0.0337758 0.00997073 0 0 0 0.00126617 0.00950922 -0.00202721 -0.000222066 0.000118941 5.51063e-05 0.00126617 0.00950922 -0.00202721 462.299 462.299 1001.1 
112 1 1 0.0241908 0.0230546 0.0450105 0 0 0 0.0263585 -0.000223125 0.00589784 -0.00132813 0.000660694 -0.00232196 0.0263585 -0.000223125 0.00589784 228.897 228.897 1000.54 
113 1 1 0.0479031 0.0308387 0.009971 0 0 0 -0.0141486 -0.0378856 -0.00099498 0.00106571 0.000945511 0.00171077 -0.0141486 -0.0378856 -0.00099498 402.136 402.136 1000.95 
114 1 1 0.0645337 0.0224568 0.0099733 0 0 0 0.0136575 0.00165729 -0.00142017 0.000329093 -4.53419e-05 -0.000202643 0.0136575 0.00165729 -0.00142017 411.23 411.23 1000.98 
115 1 1 0.0617853 0.0217058 0.0346345 0 0 0 -0.00475836 0.0168898 0.040356 -4.77231e-05 0.000130572 0.000918745 -0.00475836 0.0168898 0.040356 264.249 264.249 1000.63 
116 1 1 0.105049 0.0378461 0.00997157 0 0 0 -0.0116269 0.0231024 -9.97921e-05 0.000646076 -0.000401219 0.000240518 -0.0116269 0.0231024 -9.97921e-05 389.833 389.833 1000.93 
117 1 1 0.129697 0.0224083 0.0252531 0 0 0 0.0319806 0.00148287 -0.0313056 -0.000649892 0.000241375 6.76188e-05 0.0319806 0.00148287 -0.0313056 370.664 370.664 1000.88 
118 1 1 0.143489 0.0222467 0.02128 0 0 0 0.0214654 0.00480079 -0.00573066 -0.000389535 0.000920271 0.000600541 0.0214654 0.00480079 -0.00573066 369.928 369.928 1000.88 
119 1 1 0.154347 0.0233657 0.00997071 0 0 0 -0.0327015 0.00117584 -0.000219038 5.17243e-05 6.11222e-05 0.000373019 -0.0327015 0.00117584 -0.000219038 395.136 395.136 1000.94 
120 1 1 0.161919 0.0210504 0.0372639 0 0 0 0.0751579 -0.00266451 -0.0122718 -0.00120438 0.000494429 0.000784374 0.0751579 -0.00266451 -0.0122718 274.074 274.074 1000.65 
121 1 1 0.00998336 0.0429797 0.00997069 0 0 0 -0.00722108 -0.00798791 0.0027986 0.00152541 0.000361174 0.000337516 -0.00722108 -0.00798791 0.0027986 455.011 455.011 1001.08 
122 1 1 0.0218692 0.0349836 0.00997298 0 0 0 -0.00791819 0.00681315 -0.00192063 0.000821332 2.91497e-05 -0.000574527 -0.00791819 0.00681315 -0.00192063 433.379 433.379 1001.03 
123 1 1 0.0223337 0.0258236 0.00997092 0 0 0 -0.0136517 -0.0071659 -0.00318912 -0.000385984 0.000105473 0.00147114 -0.0136517 -0.0071659 -0.00318912 435.069 435.069 1001.03 
124 1 1 0.0804485 0.0343981 0.009972 0 0 0 -0.0152698 0.0109371 -0.000499 0.000174762 0.000261625 0.000303998 -0.0152698 0.0109371 -0.000499 391.909 391.909 1000.93 
125 1 1 0.0922146 0.0364985 0.00997225 0 0 0 -0.0253933 -0.0269851 -0.000272413 0.000125438 0.00042584 0.000255588 -0.0253933 -0.0269851 -0.000272413 394.149 394.149 1000.94 
126 1 1 0.129577 0.0301114 0.00997111 0 0 0 -0.0159372 0.00622347 -0.000323455 -9.3869e-05 -0.000364157 0.000267675 -0.0159372 0.00622347 -0.000323455 390.086 390.086 1000.93 
127 1 1 0.17023 0.0405153 0.00996966 0 0 0 -0.0287317 0.00385492 -0.000248891 -0.000875899 0.000299141 0.000231249 -0.0287317 0.00385492 -0.000248891 380.265 380.265 1000.9 
128 1 1 0.147864 0.0422208 0.00997072 0 0 0 -0.0460558 -0.00860974 -0.000236684 0.000196537 0.000178927 0.000334757 -0.0460558 -0.00860974 -0.000236684 376.324 376.324 1000.89 
129 1 1 0.142482 0.0236994 0.00997117 0 0 0 -0.030121 0.00157097 -0.000323764 2.1192e-05 -0.000255144 0.000322953 -0.030121 0.00157097 -0.000323764 395.118 395.118 1000.94 
130 1 1 0.18527 0.0326932 0.00997059 0 0 0 -0.0509453 -0.00224113 -0.000152256 -0.000224997 0.000220888 0.000157033 -0.0509453 -0.00224113 -0.000152256 391.547 391.547 1000.93 
131 1 1 0.00998181 0.0477964 0.0099743 0 0 0 -0.00276925 -0.00843393 0.000825717 0.0031055 0.000260695 -0.00228882 -0.00276925 -0.00843393 0.000825717 455.071 455.071 1001.08 
132 1 1 0.0419418 0.0451028 0.00997311 0 0 0 0.0443157 0.0273808 -0.002408 0.000102503 0.00117957 0.000297966 0.0443157 0.0273808 -0.002408 401.738 401.738 1000.95 
133 1 1 0.0462376 0.052789 0.00997381 0 0 0 -0.00565512 0.0273597 -0.000804461 0.000145427 0.000413019 -0.000394111 -0.00565512 0.0273597 -0.000804461 397.311 397.311 1000.94 
134 1 1 0.0847225 0.0480062 0.00997253 0 0 0 -0.0185427 -0.00392852 -0.000328539 0.000350504 0.000327303 5.75659e-05 -0.0185427 -0.00392852 -0.000328539 402.934 402.934 1000.96 
135 1 1 0.130073 0.0490536 0.00997099 0 0 0 -0.0137196 0.0032462 -0.00033797 -6.28775e-05 0.000454156 0.000223131 -0.0137196 0.0032462 -0.00033797 381.061 381.061 1000.9 
136 1 1 0.1011 0.0530776 0.0219163 0 0 0 0.0216515 0.00766084 0.0154081 0.000395537 -0.000439604 0.000225715 0.0216515 0.00766084 0.0154081 350.381 350.381 1000.83 
137 1 1 0.135499 0.0444859 0.0204683 0 0 0 -0.00030949 -0.0166904 -0.00693335 -0.000688308 0.000117864 0.000695546 -0.00030949 -0.0166904 -0.00693335 359.062 359.062 1000.85 
138 1 1 0.153581 0.0487682 0.00997102 0 0 0 -0.0179389 0.00663935 -0.000256867 -0.000318016 0.000241018 0.000271004 -0.0179389 0.00663935 -0.000256867 387.007 387.007 1000.92 
139 1 1 0.157738 0.0422703 0.00997002 0 0 0 -0.0160345 0.00754257 -0.000228343 -0.000297101 0.0002818 0.000291916 -0.0160345 0.00754257 -0.000228343 389.401 389.401 1000.92 
140 1 1 0.176918 0.0539917 0.0216009 0 0 0 0.0522903 0.0109262 0.00898348 0.000708596 -3.63526e-05 -0.000245532 0.0522903 0.0109262 0.00898348 342.738 342.738 1000.81 
141 1 1 0.00998439 0.0571958 0.00997207 0 0 0 0.00794554 0.0056289 -0.00813404 0.000865369 0.000333323 0.000942255 0.00794554 0.0056289 -0.00813404 458.461 458.461 1001.09 
142 1 1 0.0235471 0.0589995 0.00997524 0 0 0 0.0112571 -0.01106 -0.0020755 -0.000301251 -0.00108392 0.00026064 0.0112571 -0.01106 -0.0020755 428.272 428.272 1001.02 
143 1 1 0.0224571 0.0629607 0.00997286 0 0 0 0.0218835 0.00836232 0.00181981 -0.000914542 0.00157155 0.00201924 0.0218835 0.00836232 0.00181981 434.327 434.327 1001.03 
144 1 1 0.085813 0.0696105 0.00997252 0 0 0 -0.0102341 0.00118292 -0.000935256 0.000483999 0.000543722 0.00042282 -0.0102341 0.00118292 -0.000935256 404.589 404.589 1000.96 
145 1 1 0.102333 0.0656694 0.00997163 0 0 0 -0.0173327 -0.0064813 -0.000523323 -0.000505006 -0.000250776 0.000275484 -0.0173327 -0.0064813 -0.000523323 388.79 388.79 1000.92 
146 1 1 0.131387 0.0703728 0.0099714 0 0 0 -0.0150225 0.014066 -0.000502477 2.83627e-05 -0.000258768 0.000256087 -0.0150225 0.014066 -0.000502477 380.83 380.83 1000.9 
147 1 1 0.160728 0.058469 0.00997038 0 0 0 -0.00766278 0.00622247 -0.000295611 0.0004399 0.000285257 0.000214602 -0.00766278 0.00622247 -0.000295611 380.398 380.398 1000.9 
148 1 1 0.148659 0.0542735 0.00997168 0 0 0 -0.0163973 -0.0112789 -0.000272747 0.000163896 -0.00017289 0.000257477 -0.0163973 -0.0112789 -0.000272747 383.752 383.752 1000.91 
149 1 1 0.141438 0.0774891 0.0099715 0 0 0 -0.0315263 -0.00567885 -0.000610273 -0.000160512 0.000160109 0.000412809 -0.0315263 -0.00567885 -0.000610273 391.031 391.031 1000.93 
150 1 1 0.186753 0.0692116 0.00997129 0 0 0 -0.0106221 -0.0202794 -0.000136768 -0.000108765 -9.42661e-05 0.000163376 -0.0106221 -0.0202794 -0.000136768 394.171 394.171 1000.94 
151 1 1 0.00998813 0.0664066 0.00996878 0 0 0 -0.00288403 -0.00579064 0.00179935 -0.00304779 0.000173621 0.0036385 -0.00288403 -0.00579064 0.00179935 462.665 462.665 1001.1 
152 1 1 0.0242177 0.0775135 0.0282079 0 0 0 0.0110532 -0.0284861 0.0450544 -0.00146066 9.6125e-05 -0.000310627 0.0110532 -0.0284861 0.0450544 301.616 301.616 1000.72 
153 1 1 0.0549384 0.0790335 0.0099746 0 0 0 -0.0404828 0.0381048 -0.000254993 -0.00021731 -0.000561234 -0.00132674 -0.0404828 0.0381048 -0.000254993 403.898 403.898 1000.96 
154 1 1 0.0613494 0.0778391 0.00997482 0 0 0 0.00101848 -0.0232814 0.00160806 0.000198658 0.000291143 -0.00175532 0.00101848 -0.0232814 0.00160806 406.984 406.984 1000.97 
155 1 1 0.0544141 0.0780393 0.0296133 0 0 0 -0.00882687 0.0158802 -0.0302764 0.000601315 0.000391489 0.000723751 -0.00882687 0.0158802 -0.0302764 334.146 334.146 1000.79 
156 1 1 0.115251 0.0650034 0.00997174 0 0 0 0.0141044 -0.0180248 -0.000461351 -2.78458e-05 -0.000163836 0.000229422 0.0141044 -0.0180248 -0.000461351 386.463 386.463 1000.92 
157 1 1 0.132564 0.0781688 0.0212089 0 0 0 -0.010941 0.0248383 0.0143271 -9.9417e-05 -0.000903025 0.000821215 -0.010941 0.0248383 0.0143271 364.371 364.371 1000.87 
158 1 1 0.1498 0.0790588 0.022621 0 0 0 0.0292457 0.00173275 -0.00449785 -0.000596038 -0.00103705 0.000235265 0.0292457 0.00173275 -0.00449785 368.237 368.237 1000.87 
159 1 1 0.153455 0.0777078 0.00997103 0 0 0 -0.0342036 0.00450104 -0.000134404 0.000233637 -0.000209785 0.000394032 -0.0342036 0.00450104 -0.000134404 395.487 395.487 1000.94 
160 1 1 0.15818 0.0779732 0.0441956 0 0 0 0.0793952 -0.00108295 -0.0329238 0.000282311 4.70562e-05 0.000742524 0.0793952 -0.00108295 -0.0329238 227.007 227.007 1000.54 
161 1 1 0.00998078 0.0790625 0.0209139 0 0 0 -0.00730841 -0.0173762 0.00845395 0.00591146 -0.00124175 0.000802441 -0.00730841 -0.0173762 0.00845395 420.226 420.226 1001 
162 1 1 0.00998314 0.076269 0.00997568 0 0 0 -0.014624 0.028007 0.00831697 0.00101633 0.00034585 -0.00397287 -0.014624 0.028007 0.00831697 447.025 447.025 1001.06 
163 1 1 0.025488 0.0703633 0.00997445 0 0 0 -0.0285629 -0.0408166 0.00359541 -0.000778515 -0.000111842 -7.10276e-05 -0.0285629 -0.0408166 0.00359541 433.015 433.015 1001.03 
164 1 1 0.0821026 0.0630366 0.0434993 0 0 0 0.00739096 -0.0101261 -0.0228554 0.000142982 6.50068e-06 0.000554901 0.00739096 -0.0101261 -0.0228554 195.037 195.037 1000.46 
165 1 1 0.11668 0.0684411 0.045366 0 0 0 0.0392745 0.00238102 -0.0142441 -0.000299151 -0.000560934 0.000856624 0.0392745 0.00238102 -0.0142441 178.524 178.524 1000.42 
166 1 1 0.135671 0.0764479 0.00997113 0 0 0 -0.0388299 0.0100818 -0.000869035 0.000142685 0.000603676 0.000265424 -0.0388299 0.0100818 -0.000869035 389.084 389.084 1000.92 
167 1 1 0.130888 0.0765063 0.0329127 0 0 0 0.0178972 -0.0167152 -0.00369133 -0.000161688 0.000545343 0.00111557 0.0178972 -0.0167152 -0.00369133 303.532 303.532 1000.72 
168 1 1 0.15047 0.0612818 0.00997131 0 0 0 0.00713769 -0.00980936 -0.0003127 0.000183847 0.000359112 0.000224491 0.00713769 -0.00980936 -0.0003127 386.33 386.33 1000.92 
169 1 1 0.156402 0.077139 0.0215257 0 0 0 0.0260175 -0.0095044 0.0148121 0.000413908 0.000155017 0.000440906 0.0260175 -0.0095044 0.0148121 358.776 358.776 1000.85 
170 1 1 0.180637 0.0776456 0.00997104 0 0 0 -0.00810062 -0.0171503 -0.000139387 1.92735e-05 -0.000229679 -0.000225303 -0.00810062 -0.0171503 -0.000139387 405.217 405.217 1000.96 
171 1 1 0.00997647 0.0900219 0.0099771 0 0 0 -0.00479129 -0.00785488 -0.00839942 0.0114997 -0.00475541 -0.00354482 -0.00479129 -0.00785488 -0.00839942 443.314 443.314 1001.05 
172 1 1 0.0223063 0.0900213 0.00997687 0 0 0 0.0137139 -0.00300801 -0.00142915 -0.00116987 -0.00405892 -0.00535687 0.0137139 -0.00300801 -0.00142915 437.902 437.902 1001.04 