ITEM: TIMESTEP
2000
ITEM: NUMBER OF ATOMS
2655
ITEM: BOX BOUNDS ff ff ff
0 0.5
0 0.1
0 0.5
ITEM: ATOMS id type type x y z ix iy iz vx vy vz fx fy fz vx vy vz p p rho 
1 1 1 0.00995597 0.00995561 0.00994445 0 0 0 0.00862526 0.0088408 -0.00152784 0.000880545 0.000792862 0.000182577 0.00862526 0.0088408 -0.00152784 1641.52 1641.52 1003.86 
2 1 1 0.0199145 0.00993846 0.00992607 0 0 0 0.0103876 0.0123827 0.0013229 0.00272653 0.000529957 0.00120898 0.0103876 0.0123827 0.0013229 1505.8 1505.8 1003.55 
3 1 1 0.0300775 0.00994025 0.00992852 0 0 0 0.0215014 0.0122915 0.000524472 0.000233525 0.000563352 0.000869004 0.0215014 0.0122915 0.000524472 1446.18 1446.18 1003.41 
4 1 1 0.04006 0.00994065 0.009929 0 0 0 0.0233881 0.0116448 -0.000378628 0.000874663 0.000416724 0.000510315 0.0233881 0.0116448 -0.000378628 1441.06 1441.06 1003.4 
5 1 1 0.050121 0.00994112 0.00992956 0 0 0 0.0298697 0.0105747 -0.00135414 0.000436353 0.000374848 0.000309298 0.0298697 0.0105747 -0.00135414 1432.83 1432.83 1003.38 
6 1 1 0.0601518 0.00994117 0.00992967 0 0 0 0.0323114 0.00974262 -0.00207806 -0.000615003 0.000502508 0.000337049 0.0323114 0.00974262 -0.00207806 1421.46 1421.46 1003.35 
7 1 1 0.0702171 0.00994037 0.00992885 0 0 0 0.0439934 0.00854525 -0.00325195 0.00125985 0.000618923 0.000329574 0.0439934 0.00854525 -0.00325195 1457.69 1457.69 1003.44 
8 1 1 0.0802164 0.00994121 0.00992996 0 0 0 0.0342987 0.0077636 -0.00405146 -0.00315449 0.00136203 0.000909038 0.0342987 0.0077636 -0.00405146 1364.34 1364.34 1003.22 
9 1 1 0.0904369 0.00993653 0.00992515 0 0 0 0.0885506 0.00555422 -0.00641884 0.00438072 0.000307596 -0.000429278 0.0885506 0.00555422 -0.00641884 1618.98 1618.98 1003.81 
10 1 1 0.100098 0.00995481 0.00994564 0 0 0 0.0024847 0.00492444 -0.00693435 -0.000991786 0.00112616 -0.000153813 0.0024847 0.00492444 -0.00693435 1071.91 1071.91 1002.53 
11 1 1 0.00993886 0.019881 0.00992601 0 0 0 0.0125278 0.000420009 0.0017041 0.000473068 0.00298286 0.00106478 0.0125278 0.000420009 0.0017041 1515.04 1515.04 1003.57 
12 1 1 0.0199872 0.0199475 0.00990635 0 0 0 0.0236182 0.0119523 0.00514672 0.00313766 0.00350631 0.00182378 0.0236182 0.0119523 0.00514672 1370.12 1370.12 1003.23 
13 1 1 0.0300869 0.0199324 0.00990892 0 0 0 0.0249361 0.00706415 0.00550857 5.64275e-05 0.00219061 0.00126593 0.0249361 0.00706415 0.00550857 1337.6 1337.6 1003.15 
14 1 1 0.0400776 0.0199326 0.00990955 0 0 0 0.0289874 0.00749075 0.00438201 0.000960198 0.00201723 0.00091971 0.0289874 0.00749075 0.00438201 1327.21 1327.21 1003.13 
15 1 1 0.050148 0.0199391 0.0099099 0 0 0 0.0355756 0.00754467 0.00271662 0.000511984 0.00171023 0.000785036 0.0355756 0.00754467 0.00271662 1325.51 1325.51 1003.13 
16 1 1 0.0601806 0.0199399 0.00991023 0 0 0 0.0374641 0.00693605 0.00166238 -0.000951939 0.00182683 0.000909817 0.0374641 0.00693605 0.00166238 1304.53 1304.53 1003.08 
17 1 1 0.0702662 0.0199405 0.00990858 0 0 0 0.0531908 0.00531101 -5.24699e-05 0.00177648 0.00145813 0.00066785 0.0531908 0.00531101 -5.24699e-05 1363.46 1363.46 1003.22 
18 1 1 0.0802475 0.0199468 0.0099112 0 0 0 0.0368037 0.00621291 -0.000872471 -0.00428854 0.00232658 0.00178491 0.0368037 0.00621291 -0.000872471 1228.17 1228.17 1002.9 
19 1 1 0.0905231 0.019925 0.00990176 0 0 0 0.102782 -0.00280806 -0.00398216 0.00412667 0.000429857 -0.000438911 0.102782 -0.00280806 -0.00398216 1561.55 1561.55 1003.68 
20 1 1 0.10012 0.0199664 0.00993072 0 0 0 0.00260804 0.00433775 -0.00469179 -0.000917571 0.00118164 0.000504416 0.00260804 0.00433775 -0.00469179 975.803 975.803 1002.31 
21 1 1 0.00994145 0.0300193 0.00992929 0 0 0 0.0131401 0.00583204 0.00157683 0.000236462 0.000777308 0.000473216 0.0131401 0.00583204 0.00157683 1438.3 1438.3 1003.39 
22 1 1 0.0199712 0.0300167 0.00991014 0 0 0 0.0187748 0.00655014 0.00639165 0.00188753 0.000762578 0.000953215 0.0187748 0.00655014 0.00639165 1317.47 1317.47 1003.11 
23 1 1 0.0300836 0.0300141 0.00991182 0 0 0 0.0241928 0.00630913 0.00840159 -0.000404612 0.000287222 0.000629993 0.0241928 0.00630913 0.00840159 1298.16 1298.16 1003.06 
24 1 1 0.0400796 0.0300141 0.00991187 0 0 0 0.0282311 0.00596461 0.00749311 0.000519654 -0.000166169 0.000600394 0.0282311 0.00596461 0.00749311 1294.35 1294.35 1003.05 
25 1 1 0.0501458 0.0300139 0.00991164 0 0 0 0.0343147 0.00546385 0.00541964 0.000493727 -0.000340324 0.000721843 0.0343147 0.00546385 0.00541964 1298.85 1298.85 1003.06 
26 1 1 0.0601758 0.0300134 0.00991213 0 0 0 0.0355599 0.00524524 0.00409605 -0.000929003 -0.000142247 0.000911445 0.0355599 0.00524524 0.00409605 1270.75 1270.75 1003 
27 1 1 0.0702636 0.0300118 0.00991046 0 0 0 0.0515739 0.00413636 0.00227439 0.00189229 -0.000128599 0.000500054 0.0515739 0.00413636 0.00227439 1334.52 1334.52 1003.15 
28 1 1 0.0802368 0.0300126 0.00991359 0 0 0 0.0338834 0.00400665 0.00158658 -0.00389666 0.000317963 0.00160531 0.0338834 0.00400665 0.00158658 1188.05 1188.05 1002.8 
29 1 1 0.090512 0.0300063 0.009904 0 0 0 0.0974935 0.00142667 -0.00111263 0.00325489 0.000243952 -0.00048075 0.0974935 0.00142667 -0.00111263 1513.69 1513.69 1003.57 
30 1 1 0.100118 0.0300211 0.00993196 0 0 0 0.00239531 0.00286983 -0.00183032 -0.000785534 0.000315914 0.000679546 0.00239531 0.00286983 -0.00183032 950.264 950.264 1002.25 
31 1 1 0.0099422 0.039978 0.00993014 0 0 0 0.0132515 0.00136352 0.00138542 -0.000177476 0.000986932 -0.000111993 0.0132515 0.00136352 0.00138542 1433.62 1433.62 1003.38 
32 1 1 0.0199696 0.0399791 0.00991116 0 0 0 0.0193287 0.00289712 0.00623208 0.00170374 0.00110269 0.000318737 0.0193287 0.00289712 0.00623208 1309.99 1309.99 1003.09 
33 1 1 0.0300834 0.0399825 0.00991219 0 0 0 0.0239646 0.00301526 0.00847033 -0.000875551 0.000668299 0.000344008 0.0239646 0.00301526 0.00847033 1297.68 1297.68 1003.06 
34 1 1 0.040079 0.039982 0.0099117 0 0 0 0.0279598 0.00280793 0.00744424 0.000306469 0.00044453 0.00059818 0.0279598 0.00280793 0.00744424 1298.98 1298.98 1003.06 
35 1 1 0.0501458 0.0399821 0.00991123 0 0 0 0.0343393 0.0028466 0.00502346 0.000528111 0.000380612 0.000906816 0.0343393 0.0028466 0.00502346 1303.13 1303.13 1003.07 
36 1 1 0.0601753 0.0399824 0.00991177 0 0 0 0.0352367 0.00281757 0.0034242 -0.000835339 0.000379628 0.0011128 0.0352367 0.00281757 0.0034242 1273.14 1273.14 1003 
37 1 1 0.0702637 0.039982 0.0099102 0 0 0 0.0511266 0.00245909 0.00146425 0.00198986 0.00040955 0.000616593 0.0511266 0.00245909 0.00146425 1335.58 1335.58 1003.15 
38 1 1 0.0802354 0.0399819 0.0099135 0 0 0 0.033212 0.00210651 0.000733183 -0.00372884 0.000438387 0.00165635 0.033212 0.00210651 0.000733183 1188.12 1188.12 1002.81 
39 1 1 0.0905145 0.0399814 0.00990395 0 0 0 0.0970501 0.00152193 -0.00190092 0.00329294 0.000426089 -0.000472727 0.0970501 0.00152193 -0.00190092 1513.63 1513.63 1003.57 
40 1 1 0.100118 0.0399886 0.00993201 0 0 0 0.00237869 0.00206884 -0.00257811 -0.000524673 0.000428666 0.000773938 0.00237869 0.00206884 -0.00257811 945.104 945.104 1002.24 
41 1 1 0.0099428 0.05 0.00993086 0 0 0 0.0130499 8.96634e-15 0.00118549 -0.000270387 -1.68827e-15 -0.000276164 0.0130499 8.96634e-15 0.00118549 1419.33 1419.33 1003.35 
42 1 1 0.0199759 0.05 0.00991184 0 0 0 0.0200901 8.92451e-15 0.00578666 0.00149046 -5.39813e-15 0.000258671 0.0200901 8.92451e-15 0.00578666 1298.88 1298.88 1003.06 
43 1 1 0.0300839 0.05 0.00991237 0 0 0 0.0237757 4.46734e-15 0.00790184 -0.00107889 -1.93915e-15 0.000499596 0.0237757 4.46734e-15 0.00790184 1292.81 1292.81 1003.05 
44 1 1 0.040079 0.05 0.00991169 0 0 0 0.0279717 -7.48048e-16 0.00676159 0.000257976 1.26391e-15 0.000905332 0.0279717 -7.48048e-16 0.00676159 1293.89 1293.89 1003.05 
45 1 1 0.0501463 0.05 0.00991112 0 0 0 0.0343761 4.67718e-15 0.00419665 0.000490477 3.95571e-15 0.00126935 0.0343761 4.67718e-15 0.00419665 1299.37 1299.37 1003.07 
46 1 1 0.0601753 0.05 0.00991161 0 0 0 0.0350972 6.56585e-15 0.00250517 -0.000840209 1.21989e-15 0.00146457 0.0350972 6.56585e-15 0.00250517 1270.44 1270.44 1003 
47 1 1 0.0702637 0.05 0.00991007 0 0 0 0.0509392 4.01396e-15 0.00050936 0.00200185 6.90637e-16 0.000936364 0.0509392 4.01396e-15 0.00050936 1332.81 1332.81 1003.14 
48 1 1 0.0802348 0.05 0.00991339 0 0 0 0.0328835 -1.06946e-15 -0.000226652 -0.00374244 -6.37869e-15 0.00195318 0.0328835 -1.06946e-15 -0.000226652 1184.99 1184.99 1002.8 
49 1 1 0.0905157 0.05 0.00990381 0 0 0 0.0969237 -4.65938e-15 -0.00285009 0.00325521 -1.02919e-14 -0.000198546 0.0969237 -4.65938e-15 -0.00285009 1512.52 1512.52 1003.56 
50 1 1 0.100118 0.05 0.00993186 0 0 0 0.00240222 -3.84236e-15 -0.00353277 -0.000412209 -7.08919e-15 0.00101456 0.00240222 -3.84236e-15 -0.00353277 944.179 944.179 1002.23 
51 1 1 0.0099422 0.060022 0.00993014 0 0 0 0.0132515 -0.00136352 0.00138542 -0.000177476 -0.000986932 -0.000111993 0.0132515 -0.00136352 0.00138542 1433.62 1433.62 1003.38 
52 1 1 0.0199696 0.0600209 0.00991116 0 0 0 0.0193287 -0.00289712 0.00623208 0.00170374 -0.00110269 0.000318737 0.0193287 -0.00289712 0.00623208 1309.99 1309.99 1003.09 
53 1 1 0.0300834 0.0600175 0.00991219 0 0 0 0.0239646 -0.00301526 0.00847033 -0.000875551 -0.000668299 0.000344008 0.0239646 -0.00301526 0.00847033 1297.68 1297.68 1003.06 
54 1 1 0.040079 0.060018 0.0099117 0 0 0 0.0279598 -0.00280793 0.00744424 0.000306469 -0.00044453 0.00059818 0.0279598 -0.00280793 0.00744424 1298.98 1298.98 1003.06 
55 1 1 0.0501458 0.0600179 0.00991123 0 0 0 0.0343393 -0.0028466 0.00502346 0.000528111 -0.000380612 0.000906816 0.0343393 -0.0028466 0.00502346 1303.13 1303.13 1003.07 
56 1 1 0.0601753 0.0600176 0.00991177 0 0 0 0.0352367 -0.00281757 0.0034242 -0.000835339 -0.000379628 0.0011128 0.0352367 -0.00281757 0.0034242 1273.14 1273.14 1003 
57 1 1 0.0702637 0.060018 0.0099102 0 0 0 0.0511266 -0.00245909 0.00146425 0.00198986 -0.00040955 0.000616593 0.0511266 -0.00245909 0.00146425 1335.58 1335.58 1003.15 
58 1 1 0.0802354 0.0600181 0.0099135 0 0 0 0.033212 -0.00210651 0.000733183 -0.00372884 -0.000438387 0.00165635 0.033212 -0.00210651 0.000733183 1188.12 1188.12 1002.81 
59 1 1 0.0905145 0.0600186 0.00990395 0 0 0 0.0970501 -0.00152193 -0.00190092 0.00329294 -0.000426089 -0.000472727 0.0970501 -0.00152193 -0.00190092 1513.63 1513.63 1003.57 
60 1 1 0.100118 0.0600114 0.00993201 0 0 0 0.00237869 -0.00206884 -0.00257811 -0.000524673 -0.000428666 0.000773938 0.00237869 -0.00206884 -0.00257811 945.104 945.104 1002.24 
61 1 1 0.00994145 0.0699807 0.00992929 0 0 0 0.0131401 -0.00583204 0.00157683 0.000236462 -0.000777308 0.000473216 0.0131401 -0.00583204 0.00157683 1438.3 1438.3 1003.39 
62 1 1 0.0199712 0.0699833 0.00991014 0 0 0 0.0187748 -0.00655014 0.00639165 0.00188753 -0.000762578 0.000953215 0.0187748 -0.00655014 0.00639165 1317.47 1317.47 1003.11 
63 1 1 0.0300836 0.0699859 0.00991182 0 0 0 0.0241928 -0.00630913 0.00840159 -0.000404612 -0.000287222 0.000629993 0.0241928 -0.00630913 0.00840159 1298.16 1298.16 1003.06 
64 1 1 0.0400796 0.0699859 0.00991187 0 0 0 0.0282311 -0.00596461 0.00749311 0.000519654 0.000166169 0.000600394 0.0282311 -0.00596461 0.00749311 1294.35 1294.35 1003.05 
65 1 1 0.0501458 0.0699861 0.00991164 0 0 0 0.0343147 -0.00546385 0.00541964 0.000493727 0.000340324 0.000721843 0.0343147 -0.00546385 0.00541964 1298.85 1298.85 1003.06 
66 1 1 0.0601758 0.0699866 0.00991213 0 0 0 0.0355599 -0.00524524 0.00409605 -0.000929003 0.000142247 0.000911445 0.0355599 -0.00524524 0.00409605 1270.75 1270.75 1003 
67 1 1 0.0702636 0.0699882 0.00991046 0 0 0 0.0515739 -0.00413636 0.00227439 0.00189229 0.000128599 0.000500054 0.0515739 -0.00413636 0.00227439 1334.52 1334.52 1003.15 
68 1 1 0.0802368 0.0699874 0.00991359 0 0 0 0.0338834 -0.00400665 0.00158658 -0.00389666 -0.000317963 0.00160531 0.0338834 -0.00400665 0.00158658 1188.05 1188.05 1002.8 
69 1 1 0.090512 0.0699937 0.009904 0 0 0 0.0974935 -0.00142667 -0.00111263 0.00325489 -0.000243952 -0.00048075 0.0974935 -0.00142667 -0.00111263 1513.69 1513.69 1003.57 
70 1 1 0.100118 0.0699789 0.00993196 0 0 0 0.00239531 -0.00286983 -0.00183032 -0.000785534 -0.000315914 0.000679546 0.00239531 -0.00286983 -0.00183032 950.264 950.264 1002.25 
71 1 1 0.00993886 0.080119 0.00992601 0 0 0 0.0125278 -0.000420009 0.0017041 0.000473068 -0.00298286 0.00106478 0.0125278 -0.000420009 0.0017041 1515.04 1515.04 1003.57 
72 1 1 0.0199872 0.0800525 0.00990635 0 0 0 0.0236182 -0.0119523 0.00514672 0.00313766 -0.00350631 0.00182378 0.0236182 -0.0119523 0.00514672 1370.12 1370.12 1003.23 
73 1 1 0.0300869 0.0800676 0.00990892 0 0 0 0.0249361 -0.00706415 0.00550857 5.64275e-05 -0.00219061 0.00126593 0.0249361 -0.00706415 0.00550857 1337.6 1337.6 1003.15 
74 1 1 0.0400776 0.0800674 0.00990955 0 0 0 0.0289874 -0.00749075 0.00438201 0.000960198 -0.00201723 0.00091971 0.0289874 -0.00749075 0.00438201 1327.21 1327.21 1003.13 
75 1 1 0.050148 0.0800609 0.0099099 0 0 0 0.0355756 -0.00754467 0.00271662 0.000511984 -0.00171023 0.000785036 0.0355756 -0.00754467 0.00271662 1325.51 1325.51 1003.13 
76 1 1 0.0601806 0.0800601 0.00991023 0 0 0 0.0374641 -0.00693605 0.00166238 -0.000951939 -0.00182683 0.000909817 0.0374641 -0.00693605 0.00166238 1304.53 1304.53 1003.08 
77 1 1 0.0702662 0.0800595 0.00990858 0 0 0 0.0531908 -0.00531101 -5.24699e-05 0.00177648 -0.00145813 0.00066785 0.0531908 -0.00531101 -5.24699e-05 1363.46 1363.46 1003.22 
78 1 1 0.0802475 0.0800532 0.0099112 0 0 0 0.0368037 -0.00621291 -0.000872471 -0.00428854 -0.00232658 0.00178491 0.0368037 -0.00621291 -0.000872471 1228.17 1228.17 1002.9 
79 1 1 0.0905231 0.080075 0.00990176 0 0 0 0.102782 0.00280806 -0.00398216 0.00412667 -0.000429857 -0.000438911 0.102782 0.00280806 -0.00398216 1561.55 1561.55 1003.68 
80 1 1 0.10012 0.0800336 0.00993072 0 0 0 0.00260804 -0.00433775 -0.00469179 -0.000917571 -0.00118164 0.000504416 0.00260804 -0.00433775 -0.00469179 975.803 975.803 1002.31 
81 1 1 0.00995597 0.0900444 0.00994445 0 0 0 0.00862526 -0.0088408 -0.00152784 0.000880545 -0.000792862 0.000182577 0.00862526 -0.0088408 -0.00152784 1641.52 1641.52 1003.86 
82 1 1 0.0199145 0.0900615 0.00992607 0 0 0 0.0103876 -0.0123827 0.0013229 0.00272653 -0.000529957 0.00120898 0.0103876 -0.0123827 0.0013229 1505.8 1505.8 1003.55 
83 1 1 0.0300775 0.0900597 0.00992852 0 0 0 0.0215014 -0.0122915 0.000524472 0.000233525 -0.000563352 0.000869004 0.0215014 -0.0122915 0.000524472 1446.18 1446.18 1003.41 
84 1 1 0.04006 0.0900593 0.009929 0 0 0 0.0233881 -0.0116448 -0.000378628 0.000874663 -0.000416724 0.000510315 0.0233881 -0.0116448 -0.000378628 1441.06 1441.06 1003.4 
85 1 1 0.050121 0.0900589 0.00992956 0 0 0 0.0298697 -0.0105747 -0.00135414 0.000436353 -0.000374848 0.000309298 0.0298697 -0.0105747 -0.00135414 1432.83 1432.83 1003.38 
86 1 1 0.0601518 0.0900588 0.00992967 0 0 0 0.0323114 -0.00974262 -0.00207806 -0.000615003 -0.000502508 0.000337049 0.0323114 -0.00974262 -0.00207806 1421.46 1421.46 1003.35 
87 1 1 0.0702171 0.0900596 0.00992885 0 0 0 0.0439934 -0.00854525 -0.00325195 0.00125985 -0.000618923 0.000329574 0.0439934 -0.00854525 -0.00325195 1457.69 1457.69 1003.44 
88 1 1 0.0802164 0.0900588 0.00992996 0 0 0 0.0342987 -0.0077636 -0.00405146 -0.00315449 -0.00136203 0.000909038 0.0342987 -0.0077636 -0.00405146 1364.34 1364.34 1003.22 
89 1 1 0.0904369 0.0900635 0.00992515 0 0 0 0.0885506 -0.00555422 -0.00641884 0.00438072 -0.000307596 -0.000429278 0.0885506 -0.00555422 -0.00641884 1618.98 1618.98 1003.81 
90 1 1 0.100098 0.0900452 0.00994564 0 0 0 0.0024847 -0.00492444 -0.00693435 -0.000991786 -0.00112616 -0.000153813 0.0024847 -0.00492444 -0.00693435 1071.91 1071.91 1002.53 
91 1 1 0.00993984 0.00993943 0.019173 0 0 0 0.01053 0.0107438 -0.048423 0.000917155 0.000811059 0.00123975 0.01053 0.0107438 -0.048423 1472.49 1472.49 1003.47 
92 1 1 0.019966 0.00992049 0.0194638 0 0 0 0.0195944 0.0135553 -0.0117249 0.00305495 0.000752156 0.00349929 0.0195944 0.0135553 -0.0117249 1333.58 1333.58 1003.15 
93 1 1 0.0300848 0.00992264 0.0193972 0 0 0 0.024763 0.0131092 -0.0240488 0.0002628 0.000552217 0.00207114 0.024763 0.0131092 -0.0240488 1295.72 1295.72 1003.06 
94 1 1 0.040074 0.00992329 0.0193955 0 0 0 0.0273172 0.0120161 -0.0251219 0.000886274 0.000257546 0.00206019 0.0273172 0.0120161 -0.0251219 1289.73 1289.73 1003.04 
95 1 1 0.0501467 0.0099237 0.0193938 0 0 0 0.0347829 0.010559 -0.0275918 0.00052753 0.000162006 0.00181561 0.0347829 0.010559 -0.0275918 1288.18 1288.18 1003.04 
96 1 1 0.0601786 0.009924 0.0193879 0 0 0 0.0361247 0.00964681 -0.0306438 -0.000976847 0.000357007 0.00198519 0.0361247 0.00964681 -0.0306438 1268.54 1268.54 1002.99 
97 1 1 0.0702703 0.00992234 0.0193809 0 0 0 0.0526942 0.00808483 -0.0355556 0.00169825 0.000235588 0.00149583 0.0526942 0.00808483 -0.0355556 1328.89 1328.89 1003.13 
98 1 1 0.0802534 0.0099247 0.0193874 0 0 0 0.0367056 0.00726757 -0.0359774 -0.00422075 0.00145475 0.00254778 0.0367056 0.00726757 -0.0359774 1195.28 1195.28 1002.82 
99 1 1 0.0905601 0.00991554 0.0193609 0 0 0 0.107212 0.00433465 -0.0491216 0.00435137 -0.000689493 0.000498366 0.107212 0.00433465 -0.0491216 1539.19 1539.19 1003.63 
100 1 1 0.100121 0.00994286 0.0194858 0 0 0 0.00214525 0.00347881 -0.0326559 -0.000529469 0.000887588 0.000810335 0.00214525 0.00347881 -0.0326559 932.472 932.472 1002.21 
101 1 1 0.00992096 0.0199258 0.0194643 0 0 0 0.0137808 0.00823058 -0.0111003 0.000645646 0.00343176 0.00354275 0.0137808 0.00823058 -0.0111003 1343.29 1343.29 1003.17 
102 1 1 0.020043 0.0199954 0.0198103 0 0 0 0.0340458 0.020822 0.0326311 0.00332732 0.00387339 0.00605666 0.0340458 0.020822 0.0326311 1204.51 1204.51 1002.84 
103 1 1 0.0300943 0.0199735 0.0197199 0 0 0 0.0287176 0.0145516 0.0162508 0.000167739 0.00244226 0.0043271 0.0287176 0.0145516 0.0162508 1194.49 1194.49 1002.82 
104 1 1 0.0400957 0.0199751 0.0197183 0 0 0 0.033761 0.0150659 0.0148227 0.000905737 0.00230707 0.00438422 0.033761 0.0150659 0.0148227 1179.57 1179.57 1002.79 
105 1 1 0.05018 0.0199821 0.0197148 0 0 0 0.0415589 0.0146463 0.0112959 0.000672779 0.00181947 0.00399568 0.0415589 0.0146463 0.0112959 1192.81 1192.81 1002.82 
106 1 1 0.0602112 0.0199821 0.0197061 0 0 0 0.0414957 0.013918 0.00754547 -0.00142825 0.00206416 0.00433216 0.0414957 0.013918 0.00754547 1155.59 1155.59 1002.73 
107 1 1 0.0703347 0.0199795 0.0196937 0 0 0 0.0642453 0.0109677 0.000476297 0.00241567 0.00141223 0.00351336 0.0642453 0.0109677 0.000476297 1253.11 1253.11 1002.96 
108 1 1 0.0802884 0.0199899 0.0197041 0 0 0 0.038734 0.0128705 0.000956731 -0.00558053 0.00266874 0.00499764 0.038734 0.0128705 0.000956731 1060.04 1060.04 1002.5 
109 1 1 0.0906745 0.0199551 0.0196594 0 0 0 0.124816 -3.25251e-05 -0.0169784 0.00391002 0.000139874 0.00259333 0.124816 -3.25251e-05 -0.0169784 1511.05 1511.05 1003.56 
110 1 1 0.100149 0.0200161 0.0198127 0 0 0 0.00194392 0.0100041 0.00262343 -0.000134386 0.00112774 0.00277381 0.00194392 0.0100041 0.00262343 847.448 847.448 1002.01 
111 1 1 0.0099243 0.0300152 0.0193997 0 0 0 0.0141199 0.00693051 -0.0218398 0.000115853 0.000930907 0.00214811 0.0141199 0.00693051 -0.0218398 1284.42 1284.42 1003.03 
112 1 1 0.0200204 0.0300105 0.0197233 0 0 0 0.0280287 0.00787009 0.0184334 0.00198697 0.000973521 0.00434215 0.0280287 0.00787009 0.0184334 1169.09 1169.09 1002.76 
113 1 1 0.0300919 0.0300088 0.0196393 0 0 0 0.0279749 0.00767179 0.00343045 -0.000240481 0.000528545 0.00294704 0.0279749 0.00767179 0.00343045 1164.29 1164.29 1002.75 
114 1 1 0.0400976 0.0300086 0.019638 0 0 0 0.0326199 0.00709233 0.00198877 0.00035887 4.75501e-05 0.00313316 0.0326199 0.00709233 0.00198877 1154.84 1154.84 1002.73 
115 1 1 0.0501774 0.0300079 0.0196345 0 0 0 0.0401264 0.00634068 -0.00150101 0.000618753 -0.000210656 0.00270966 0.0401264 0.00634068 -0.00150101 1176.55 1176.55 1002.78 
116 1 1 0.0602044 0.0300076 0.0196267 0 0 0 0.0392393 0.00625607 -0.00466057 -0.00139841 4.73079e-06 0.00309012 0.0392393 0.00625607 -0.00466057 1130.38 1130.38 1002.67 
117 1 1 0.0703316 0.0300046 0.0196133 0 0 0 0.0622726 0.00477917 -0.0118231 0.00243948 -5.3557e-05 0.00212693 0.0622726 0.00477917 -0.0118231 1233.21 1233.21 1002.91 
118 1 1 0.0802754 0.0300061 0.0196275 0 0 0 0.0356049 0.00479697 -0.0102411 -0.00500915 0.000432482 0.00358304 0.0356049 0.00479697 -0.0102411 1029.79 1029.79 1002.43 
119 1 1 0.0906595 0.0299973 0.0195807 0 0 0 0.118033 0.00160749 -0.0277099 0.0028339 0.000374771 0.00133118 0.118033 0.00160749 -0.0277099 1462.75 1462.75 1003.45 
120 1 1 0.100146 0.0300167 0.0197366 0 0 0 0.00162692 0.00322767 -0.00745561 -2.34524e-05 0.000388711 0.00172372 0.00162692 0.00322767 -0.00745561 830.03 830.03 1001.96 
121 1 1 0.00992534 0.0399767 0.0194008 0 0 0 0.0138952 0.00222033 -0.0209702 -0.000525457 0.00112598 0.00209085 0.0138952 0.00222033 -0.0209702 1281.1 1281.1 1003.02 
122 1 1 0.0200202 0.039979 0.0197259 0 0 0 0.0287973 0.00414472 0.019494 0.00177935 0.00119858 0.00427702 0.0287973 0.00414472 0.019494 1161.31 1161.31 1002.74 
123 1 1 0.0300915 0.039983 0.0196418 0 0 0 0.0275186 0.00406729 0.00423338 -0.000751128 0.000669142 0.00297326 0.0275186 0.00406729 0.00423338 1164.15 1164.15 1002.75 
124 1 1 0.0400967 0.0399823 0.0196401 0 0 0 0.0322012 0.00372559 0.00263946 0.000125368 0.000442573 0.00327382 0.0322012 0.00372559 0.00263946 1159.09 1159.09 1002.74 
125 1 1 0.0501777 0.0399825 0.0196364 0 0 0 0.0401536 0.00370959 -0.00098048 0.000595951 0.000351503 0.00283501 0.0401536 0.00370959 -0.00098048 1181.17 1181.17 1002.79 
126 1 1 0.0602039 0.0399831 0.019629 0 0 0 0.0389102 0.00363572 -0.00407978 -0.0013343 0.000284413 0.00313601 0.0389102 0.00363572 -0.00407978 1135.23 1135.23 1002.68 
127 1 1 0.0703317 0.0399827 0.019615 0 0 0 0.0617095 0.00319955 -0.0112871 0.00249557 0.000291861 0.0021137 0.0617095 0.00319955 -0.0112871 1237.44 1237.44 1002.92 
128 1 1 0.0802736 0.0399825 0.0196294 0 0 0 0.0348277 0.00272964 -0.00976653 -0.00484381 0.000284862 0.00343236 0.0348277 0.00272964 -0.00976653 1034.63 1034.63 1002.45 
129 1 1 0.0906629 0.0399815 0.0195822 0 0 0 0.117557 0.00197681 -0.0271278 0.00287654 0.000244245 0.00115652 0.117557 0.00197681 -0.0271278 1469.48 1469.48 1003.46 
130 1 1 0.100146 0.039991 0.019739 0 0 0 0.00169003 0.00268824 -0.00697455 0.000286641 0.000253651 0.00151458 0.00169003 0.00268824 -0.00697455 828.381 828.381 1001.96 
131 1 1 0.00992612 0.05 0.0194038 0 0 0 0.0135081 -2.70301e-15 -0.0206238 -0.000605089 -6.04898e-15 0.00199491 0.0135081 -2.70301e-15 -0.0206238 1265.77 1265.77 1002.99 
132 1 1 0.0200282 0.05 0.0197295 0 0 0 0.0296344 5.18638e-16 0.0197782 0.00147079 -5.49474e-15 0.00411892 0.0296344 5.18638e-16 0.0197782 1152.93 1152.93 1002.72 
133 1 1 0.030092 0.05 0.0196453 0 0 0 0.0271834 2.31024e-15 0.00440213 -0.00098236 -1.50325e-16 0.00283843 0.0271834 2.31024e-15 0.00440213 1163.18 1163.18 1002.75 
134 1 1 0.0400967 0.05 0.0196436 0 0 0 0.0321753 -1.93874e-15 0.00274496 8.48595e-05 1.0339e-15 0.00318928 0.0321753 -1.93874e-15 0.00274496 1156.9 1156.9 1002.73 
135 1 1 0.0501783 0.05 0.0196399 0 0 0 0.0401387 3.57026e-15 -0.00094865 0.000520739 -2.56045e-15 0.00275022 0.0401387 3.57026e-15 -0.00094865 1180.84 1180.84 1002.79 
136 1 1 0.0602039 0.05 0.0196325 0 0 0 0.0387012 -7.53628e-17 -0.00410873 -0.00136655 -2.67061e-15 0.00301646 0.0387012 -7.53628e-17 -0.00410873 1136.68 1136.68 1002.68 
137 1 1 0.0703317 0.05 0.0196185 0 0 0 0.0614711 5.80746e-16 -0.0113407 0.00250304 -1.92123e-15 0.00197684 0.0614711 5.80746e-16 -0.0113407 1238.97 1238.97 1002.92 
138 1 1 0.0802725 0.05 0.0196327 0 0 0 0.0343725 1.55431e-15 -0.00982699 -0.00486702 -1.02427e-14 0.00330085 0.0343725 1.55431e-15 -0.00982699 1035.09 1035.09 1002.45 
139 1 1 0.0906641 0.05 0.0195846 0 0 0 0.117325 -2.86349e-15 -0.0273937 0.00280208 -1.47382e-14 0.000977933 0.117325 -2.86349e-15 -0.0273937 1472.21 1472.21 1003.47 
140 1 1 0.100146 0.05 0.0197414 0 0 0 0.00175603 -2.31912e-15 -0.00729003 0.000405962 -1.00607e-14 0.00133726 0.00175603 -2.31912e-15 -0.00729003 831.992 831.992 1001.97 
141 1 1 0.00992534 0.0600233 0.0194008 0 0 0 0.0138952 -0.00222033 -0.0209702 -0.000525457 -0.00112598 0.00209085 0.0138952 -0.00222033 -0.0209702 1281.1 1281.1 1003.02 
142 1 1 0.0200202 0.060021 0.0197259 0 0 0 0.0287973 -0.00414472 0.019494 0.00177935 -0.00119858 0.00427702 0.0287973 -0.00414472 0.019494 1161.31 1161.31 1002.74 
143 1 1 0.0300915 0.060017 0.0196418 0 0 0 0.0275186 -0.00406729 0.00423338 -0.000751128 -0.000669142 0.00297326 0.0275186 -0.00406729 0.00423338 1164.15 1164.15 1002.75 
144 1 1 0.0400967 0.0600177 0.0196401 0 0 0 0.0322012 -0.00372559 0.00263946 0.000125368 -0.000442573 0.00327382 0.0322012 -0.00372559 0.00263946 1159.09 1159.09 1002.74 
145 1 1 0.0501777 0.0600175 0.0196364 0 0 0 0.0401536 -0.00370959 -0.00098048 0.000595951 -0.000351503 0.00283501 0.0401536 -0.00370959 -0.00098048 1181.17 1181.17 1002.79 
146 1 1 0.0602039 0.0600169 0.019629 0 0 0 0.0389102 -0.00363572 -0.00407978 -0.0013343 -0.000284413 0.00313601 0.0389102 -0.00363572 -0.00407978 1135.23 1135.23 1002.68 
147 1 1 0.0703317 0.0600173 0.019615 0 0 0 0.0617095 -0.00319955 -0.0112871 0.00249557 -0.000291861 0.0021137 0.0617095 -0.00319955 -0.0112871 1237.44 1237.44 1002.92 
148 1 1 0.0802736 0.0600175 0.0196294 0 0 0 0.0348277 -0.00272964 -0.00976653 -0.00484381 -0.000284862 0.00343236 0.0348277 -0.00272964 -0.00976653 1034.63 1034.63 1002.45 
149 1 1 0.0906629 0.0600185 0.0195822 0 0 0 0.117557 -0.00197681 -0.0271278 0.00287654 -0.000244245 0.00115652 0.117557 -0.00197681 -0.0271278 1469.48 1469.48 1003.46 
150 1 1 0.100146 0.060009 0.019739 0 0 0 0.00169003 -0.00268824 -0.00697455 0.000286641 -0.000253651 0.00151458 0.00169003 -0.00268824 -0.00697455 828.381 828.381 1001.96 
151 1 1 0.0099243 0.0699848 0.0193997 0 0 0 0.0141199 -0.00693051 -0.0218398 0.000115853 -0.000930907 0.00214811 0.0141199 -0.00693051 -0.0218398 1284.42 1284.42 1003.03 
152 1 1 0.0200204 0.0699895 0.0197233 0 0 0 0.0280287 -0.00787009 0.0184334 0.00198697 -0.000973521 0.00434215 0.0280287 -0.00787009 0.0184334 1169.09 1169.09 1002.76 
153 1 1 0.0300919 0.0699912 0.0196393 0 0 0 0.0279749 -0.00767179 0.00343045 -0.000240481 -0.000528545 0.00294704 0.0279749 -0.00767179 0.00343045 1164.29 1164.29 1002.75 
154 1 1 0.0400976 0.0699914 0.019638 0 0 0 0.0326199 -0.00709233 0.00198877 0.00035887 -4.75501e-05 0.00313316 0.0326199 -0.00709233 0.00198877 1154.84 1154.84 1002.73 
155 1 1 0.0501774 0.0699921 0.0196345 0 0 0 0.0401264 -0.00634068 -0.00150101 0.000618753 0.000210656 0.00270966 0.0401264 -0.00634068 -0.00150101 1176.55 1176.55 1002.78 
156 1 1 0.0602044 0.0699924 0.0196267 0 0 0 0.0392393 -0.00625607 -0.00466057 -0.00139841 -4.73079e-06 0.00309012 0.0392393 -0.00625607 -0.00466057 1130.38 1130.38 1002.67 
157 1 1 0.0703316 0.0699954 0.0196133 0 0 0 0.0622726 -0.00477917 -0.0118231 0.00243948 5.3557e-05 0.00212693 0.0622726 -0.00477917 -0.0118231 1233.21 1233.21 1002.91 
158 1 1 0.0802754 0.0699939 0.0196275 0 0 0 0.0356049 -0.00479697 -0.0102411 -0.00500915 -0.000432482 0.00358304 0.0356049 -0.00479697 -0.0102411 1029.79 1029.79 1002.43 
159 1 1 0.0906595 0.0700027 0.0195807 0 0 0 0.118033 -0.00160749 -0.0277099 0.0028339 -0.000374771 0.00133118 0.118033 -0.00160749 -0.0277099 1462.75 1462.75 1003.45 
160 1 1 0.100146 0.0699833 0.0197366 0 0 0 0.00162692 -0.00322767 -0.00745561 -2.34524e-05 -0.000388711 0.00172372 0.00162692 -0.00322767 -0.00745561 830.03 830.03 1001.96 
161 1 1 0.00992096 0.0800742 0.0194643 0 0 0 0.0137808 -0.00823058 -0.0111003 0.000645646 -0.00343176 0.00354275 0.0137808 -0.00823058 -0.0111003 1343.29 1343.29 1003.17 
162 1 1 0.020043 0.0800046 0.0198103 0 0 0 0.0340458 -0.020822 0.0326311 0.00332732 -0.00387339 0.00605666 0.0340458 -0.020822 0.0326311 1204.51 1204.51 1002.84 
163 1 1 0.0300943 0.0800265 0.0197199 0 0 0 0.0287176 -0.0145516 0.0162508 0.000167739 -0.00244226 0.0043271 0.0287176 -0.0145516 0.0162508 1194.49 1194.49 1002.82 
164 1 1 0.0400957 0.0800249 0.0197183 0 0 0 0.033761 -0.0150659 0.0148227 0.000905737 -0.00230707 0.00438422 0.033761 -0.0150659 0.0148227 1179.57 1179.57 1002.79 
165 1 1 0.05018 0.0800179 0.0197148 0 0 0 0.0415589 -0.0146463 0.0112959 0.000672779 -0.00181947 0.00399568 0.0415589 -0.0146463 0.0112959 1192.81 1192.81 1002.82 
166 1 1 0.0602112 0.0800179 0.0197061 0 0 0 0.0414957 -0.013918 0.00754547 -0.00142825 -0.00206416 0.00433216 0.0414957 -0.013918 0.00754547 1155.59 1155.59 1002.73 
167 1 1 0.0703347 0.0800205 0.0196937 0 0 0 0.0642453 -0.0109677 0.000476297 0.00241567 -0.00141223 0.00351336 0.0642453 -0.0109677 0.000476297 1253.11 1253.11 1002.96 
168 1 1 0.0802884 0.0800101 0.0197041 0 0 0 0.038734 -0.0128705 0.000956731 -0.00558053 -0.00266874 0.00499764 0.038734 -0.0128705 0.000956731 1060.04 1060.04 1002.5 
169 1 1 0.0906745 0.0800449 0.0196594 0 0 0 0.124816 3.25251e-05 -0.0169784 0.00391002 -0.000139874 0.00259333 0.124816 3.25251e-05 -0.0169784 1511.05 1511.05 1003.56 
170 1 1 0.100149 0.0799839 0.0198127 0 0 0 0.00194392 -0.0100041 0.00262343 -0.000134386 -0.00112774 0.00277381 0.00194392 -0.0100041 0.00262343 847.448 847.448 1002.01 
171 1 1 0.00993984 0.0900606 0.019173 0 0 0 0.01053 -0.0107438 -0.048423 0.000917155 -0.000811059 0.00123975 0.01053 -0.0107438 -0.048423 1472.49 1472.49 1003.47 
172 1 1 0.019966 0.0900795 0.0194638 0 0 0 0.0195944 -0.0135553 -0.0117249 0.00305495 -0.000752156 0.00349929 0.0195944 -0.0135553 -0.0117249 1333.58 1333.58 1003.15 
173 1 1 0.0300848 0.0900774 0.0193972 0 0 0 0.024763 -0.0131092 -0.0240488 0.0002628 -0.000552217 0.00207114 0.024763 -0.0131092 -0.0240488 1295.72 1295.72 1003.06 
174 1 1 0.040074 0.0900767 0.0193955 0 0 0 0.0273172 -0.0120161 -0.0251219 0.000886274 -0.000257546 0.00206019 0.0273172 -0.0120161 -0.0251219 1289.73 1289.73 1003.04 
175 1 1 0.0501467 0.0900763 0.0193938 0 0 0 0.0347829 -0.010559 -0.0275918 0.00052753 -0.000162006 0.00181561 0.0347829 -0.010559 -0.0275918 1288.18 1288.18 1003.04 
176 1 1 0.0601786 0.090076 0.0193879 0 0 0 0.0361247 -0.00964681 -0.0306438 -0.000976847 -0.000357007 0.00198519 0.0361247 -0.00964681 -0.0306438 1268.54 1268.54 1002.99 
177 1 1 0.0702703 0.0900777 0.0193809 0 0 0 0.0526942 -0.00808483 -0.0355556 0.00169825 -0.000235588 0.00149583 0.0526942 -0.00808483 -0.0355556 1328.89 1328.89 1003.13 