ITEM: TIMESTEP
46000
ITEM: NUMBER OF ATOMS
2655
ITEM: BOX BOUNDS ff ff ff
0 0.5
0 0.1
0 0.5
ITEM: ATOMS id type type x y z ix iy iz vx vy vz fx fy fz vx vy vz p p rho 
1 1 1 0.009979 0.0099847 0.00998926 0 0 0 0.00960433 -0.0108842 0.0127808 0.0154779 0.00539487 -0.00739199 0.00960433 -0.0108842 0.0127808 576.992 576.992 1001.37 
2 1 1 0.0340077 0.00998156 0.00999492 0 0 0 -0.0217041 0.00192416 0.00648522 -0.000293038 0.00950458 -0.0190233 -0.0217041 0.00192416 0.00648522 336.695 336.695 1000.8 
3 1 1 0.0262481 0.00999628 0.00998286 0 0 0 0.0409907 -0.00995515 0.0132048 0.0038754 -0.00600446 -0.00735925 0.0409907 -0.00995515 0.0132048 357.539 357.539 1000.85 
4 1 1 0.0722727 0.00999626 0.00996934 0 0 0 -0.0340737 -0.002047 -0.00463071 -0.00227207 -0.00568648 0.0111582 -0.0340737 -0.002047 -0.00463071 271.223 271.223 1000.64 
5 1 1 0.0761135 0.00998618 0.00998797 0 0 0 -0.0614323 -0.0046539 0.0140595 0.000148452 0.00394623 -0.00672905 -0.0614323 -0.0046539 0.0140595 278.019 278.019 1000.66 
6 1 1 0.0994159 0.00998358 0.0099999 0 0 0 -0.0124097 -0.00702233 -0.00774674 -0.00345065 0.00828446 -0.0191186 -0.0124097 -0.00702233 -0.00774674 275.739 275.739 1000.66 
7 1 1 0.115771 0.00998732 0.00998689 0 0 0 -0.0345545 -0.00307364 0.0119986 -0.00206841 0.00282903 -0.00791775 -0.0345545 -0.00307364 0.0119986 369.632 369.632 1000.88 
8 1 1 0.126925 0.00999198 0.00998443 0 0 0 0.0737216 -0.0024288 0.00250733 -0.00205143 -0.00397913 -0.00580025 0.0737216 -0.0024288 0.00250733 371.435 371.435 1000.88 
9 1 1 0.138999 0.00999496 0.0099685 0 0 0 -0.00698737 -0.00435714 -0.0117977 -0.00481683 -0.00672185 0.00898108 -0.00698737 -0.00435714 -0.0117977 378.589 378.589 1000.9 
10 1 1 0.153514 0.00999381 0.00996609 0 0 0 -0.00295061 0.00195437 0.00206745 0.00114346 -0.00591281 0.00845007 -0.00295061 0.00195437 0.00206745 462.495 462.495 1001.1 
11 1 1 0.0100012 0.0218527 0.00997831 0 0 0 -0.009998 -0.0155288 0.0107148 -0.0206594 0.00755184 -0.00186798 -0.009998 -0.0155288 0.0107148 456.44 456.44 1001.08 
12 1 1 0.0225151 0.0282245 0.00998189 0 0 0 -0.0261578 0.0415341 0.0120269 0.000836466 0.000155374 -0.00320684 -0.0261578 0.0415341 0.0120269 324.975 324.975 1000.77 
13 1 1 0.0304415 0.0244443 0.00998231 0 0 0 -0.0400391 -0.00596724 0.00395899 -0.000940454 -0.00260463 -0.00618787 -0.0400391 -0.00596724 0.00395899 317.164 317.164 1000.75 
14 1 1 0.0865222 0.0209723 0.00998413 0 0 0 0.018873 0.0108611 0.0092052 0.000519777 0.0022983 -0.00345129 0.018873 0.0108611 0.0092052 252.339 252.339 1000.6 
15 1 1 0.0769161 0.0224814 0.00998425 0 0 0 0.0136781 0.00705474 0.00703444 -0.000319917 0.00115581 -0.00310308 0.0136781 0.00705474 0.00703444 228.322 228.322 1000.54 
16 1 1 0.103368 0.0215626 0.00998629 0 0 0 -0.0115536 -0.0459112 0.000885012 -0.00192019 0.00191835 -0.0075278 -0.0115536 -0.0459112 0.000885012 240.522 240.522 1000.57 
17 1 1 0.104755 0.0324499 0.00998366 0 0 0 0.0150433 0.0609298 -0.00131868 -0.00236657 0.00100402 -0.00509904 0.0150433 0.0609298 -0.00131868 249.321 249.321 1000.59 
18 1 1 0.124792 0.0307592 0.00997294 0 0 0 0.0713535 0.0590766 -0.00119398 -0.00390399 -0.000786191 0.000672462 0.0713535 0.0590766 -0.00119398 315.18 315.18 1000.75 
19 1 1 0.122563 0.0215651 0.00997837 0 0 0 -0.0296024 -0.0343652 -0.00520751 -0.00395538 0.0012802 -0.00239622 -0.0296024 -0.0343652 -0.00520751 301.325 301.325 1000.72 
20 1 1 0.159595 0.0211448 0.00996915 0 0 0 0.0454704 -0.0198635 -0.00355867 0.000859216 0.00342267 0.00419311 0.0454704 -0.0198635 -0.00355867 427.575 427.575 1001.01 
21 1 1 0.00997022 0.0255799 0.00999302 0 0 0 0.00642696 -0.0580025 0.00703187 0.0220514 0.00530155 -0.0154979 0.00642696 -0.0580025 0.00703187 391.287 391.287 1000.93 
22 1 1 0.0327072 0.0344038 0.00997828 0 0 0 0.0167452 -0.0130135 0.0064494 -0.00435592 -0.00245046 0.00039776 0.0167452 -0.0130135 0.0064494 303.133 303.133 1000.72 
23 1 1 0.0552171 0.0360408 0.00997179 0 0 0 6.95214e-05 0.00673585 0.00209814 0.00320949 -0.0026266 0.00833393 6.95214e-05 0.00673585 0.00209814 329.367 329.367 1000.78 
24 1 1 0.0812571 0.0345196 0.00998784 0 0 0 0.0336508 0.0157985 -0.00360213 0.00206129 0.000518188 -0.00683509 0.0336508 0.0157985 -0.00360213 235.035 235.035 1000.56 
25 1 1 0.0968959 0.0304121 0.0099846 0 0 0 0.0123872 -0.010139 -0.00108844 -0.00170737 0.00236284 -0.00442039 0.0123872 -0.010139 -0.00108844 233.554 233.554 1000.56 
26 1 1 0.112304 0.021308 0.00998369 0 0 0 0.0441448 0.0267808 -0.00179614 -0.00165962 0.00219647 -0.00649686 0.0441448 0.0267808 -0.00179614 286.141 286.141 1000.68 
27 1 1 0.131247 0.0399019 0.00997365 0 0 0 0.0868563 0.0502147 -0.00054494 -0.00114952 3.25706e-05 5.56479e-05 0.0868563 0.0502147 -0.00054494 314.217 314.217 1000.75 
28 1 1 0.114566 0.0267395 0.00998102 0 0 0 -0.0364879 -0.00392217 -0.000632934 -0.00176756 -0.000230457 -0.00407041 -0.0364879 -0.00392217 -0.000632934 268.418 268.418 1000.64 
29 1 1 0.148228 0.0256189 0.00997059 0 0 0 0.0908082 0.00533587 -0.00498366 -0.00242031 -0.00137462 0.000252081 0.0908082 0.00533587 -0.00498366 394.047 394.047 1000.94 
30 1 1 0.152357 0.0361735 0.00997314 0 0 0 0.0646705 0.0116762 -0.00384029 0.00178552 -0.00157731 0.000572086 0.0646705 0.0116762 -0.00384029 360.37 360.37 1000.86 
31 1 1 0.00998503 0.0364782 0.00998434 0 0 0 -0.00408816 -0.0461108 0.00262155 0.00673721 0.00400993 -0.0054273 -0.00408816 -0.0461108 0.00262155 279.162 279.162 1000.66 
32 1 1 0.0228832 0.0418405 0.00998549 0 0 0 -0.00229058 0.0539141 0.0106671 -0.00586849 -0.00149144 -0.00746619 -0.00229058 0.0539141 0.0106671 320.16 320.16 1000.76 
33 1 1 0.0526831 0.0417898 0.00997598 0 0 0 0.00557158 0.000920199 0.0031586 0.00439551 -0.000143159 0.00315756 0.00557158 0.000920199 0.0031586 351.786 351.786 1000.84 
34 1 1 0.0678287 0.0372794 0.00997846 0 0 0 0.0125155 -0.0171269 -0.00132588 0.00378725 0.00071609 0.00234535 0.0125155 -0.0171269 -0.00132588 263.058 263.058 1000.63 
35 1 1 0.0733956 0.0412121 0.00999156 0 0 0 0.00621873 0.0373651 -0.00234501 0.00269465 0.000466777 -0.0106215 0.00621873 0.0373651 -0.00234501 250.955 250.955 1000.6 
36 1 1 0.0937269 0.0361062 0.00998207 0 0 0 0.0125685 -0.134934 -0.013987 -0.00166384 0.00397671 -0.00141955 0.0125685 -0.134934 -0.013987 163.44 163.44 1000.39 
37 1 1 0.125989 0.0403974 0.00997639 0 0 0 0.00188022 -0.0300746 0.000166793 -0.00369208 -0.000318352 -0.00142383 0.00188022 -0.0300746 0.000166793 317.294 317.294 1000.75 
38 1 1 0.134218 0.029946 0.00997153 0 0 0 0.00672247 -0.0315113 -0.00394821 -0.00116291 0.00158605 0.000407508 0.00672247 -0.0315113 -0.00394821 339.077 339.077 1000.81 
39 1 1 0.13993 0.0469517 0.00997071 0 0 0 0.0778527 -0.0135866 -0.00382119 -0.00230665 0.00076656 0.00132917 0.0778527 -0.0135866 -0.00382119 324.436 324.436 1000.77 
40 1 1 0.159268 0.0383667 0.00997303 0 0 0 0.085431 0.00256185 -0.00277632 0.000381353 -0.00292458 0.000348967 0.085431 0.00256185 -0.00277632 364.673 364.673 1000.87 
41 1 1 0.00997237 0.0500003 0.00999075 0 0 0 -0.0136071 6.11275e-05 0.0114901 0.0209428 -8.90786e-05 -0.0114276 -0.0136071 6.11275e-05 0.0114901 296.879 296.879 1000.71 
42 1 1 0.046056 0.0500001 0.00998915 0 0 0 -0.0931405 1.28496e-05 0.00805684 0.00170359 -5.88975e-05 -0.0136501 -0.0931405 1.28496e-05 0.00805684 362.597 362.597 1000.86 
43 1 1 0.0533424 0.0500001 0.00998264 0 0 0 0.0317967 1.77907e-05 0.00222702 0.00565886 -4.63501e-05 -0.00425831 0.0317967 1.77907e-05 0.00222702 330.039 330.039 1000.78 
44 1 1 0.073596 0.0500001 0.00999513 0 0 0 -0.0278324 3.34577e-05 -0.00105125 0.00111573 -1.68702e-05 -0.0151413 -0.0278324 3.34577e-05 -0.00105125 226.531 226.531 1000.54 
45 1 1 0.0854072 0.05 0.00998519 0 0 0 0.00626527 2.46007e-05 -0.00937309 0.00158794 -1.22305e-05 -0.00466375 0.00626527 2.46007e-05 -0.00937309 253.736 253.736 1000.6 
46 1 1 0.0932133 0.05 0.00997635 0 0 0 0.0136455 1.9241e-05 -0.0126239 -0.000384708 -8.19415e-06 0.00102289 0.0136455 1.9241e-05 -0.0126239 296.834 296.834 1000.71 
47 1 1 0.101387 0.05 0.00997922 0 0 0 -0.115813 1.94069e-05 -0.00290075 -0.00107234 -2.55484e-06 -0.00415712 -0.115813 1.94069e-05 -0.00290075 319.275 319.275 1000.76 
48 1 1 0.122098 0.05 0.00998018 0 0 0 0.0443139 9.17789e-06 0.00325053 -0.00535731 4.4831e-06 -0.00377817 0.0443139 9.17789e-06 0.00325053 312.997 312.997 1000.74 
49 1 1 0.109631 0.05 0.00997543 0 0 0 -0.00228296 1.67143e-05 0.00443654 -0.000200999 1.8365e-06 0.00276235 -0.00228296 1.67143e-05 0.00443654 249.389 249.389 1000.59 
50 1 1 0.161199 0.05 0.00997512 0 0 0 0.0668898 -3.24205e-06 -0.00129766 -0.00182487 2.37618e-06 -0.00252446 0.0668898 -3.24205e-06 -0.00129766 369.43 369.43 1000.88 
51 1 1 0.00998455 0.0635224 0.00998417 0 0 0 -0.00391842 0.0462375 0.00239597 0.00713368 -0.00427267 -0.00538802 -0.00391842 0.0462375 0.00239597 281.962 281.962 1000.67 
52 1 1 0.0228831 0.0581599 0.00998547 0 0 0 -0.00231206 -0.0538743 0.010341 -0.00585078 0.00130972 -0.00750693 -0.00231206 -0.0538743 0.010341 321.496 321.496 1000.76 
53 1 1 0.0526831 0.0582104 0.00997604 0 0 0 0.00559569 -0.000856691 0.00306895 0.00442539 3.42893e-05 0.00305642 0.00559569 -0.000856691 0.00306895 352.528 352.528 1000.84 
54 1 1 0.0678286 0.0627207 0.0099785 0 0 0 0.0125069 0.0171891 -0.00139792 0.00382603 -0.000768606 0.00226886 0.0125069 0.0171891 -0.00139792 263.547 263.547 1000.63 
55 1 1 0.0733955 0.058788 0.00999158 0 0 0 0.00621036 -0.0372974 -0.00233097 0.00270516 -0.000504312 -0.0106574 0.00621036 -0.0372974 -0.00233097 251.272 251.272 1000.6 
56 1 1 0.0937269 0.0638939 0.00998207 0 0 0 0.0125596 0.135 -0.0140025 -0.00164608 -0.00399712 -0.0014301 0.0125596 0.135 -0.0140025 163.685 163.685 1000.39 
57 1 1 0.125989 0.0596026 0.0099764 0 0 0 0.00187057 0.0300863 0.000170167 -0.0036911 0.000328502 -0.00142994 0.00187057 0.0300863 0.000170167 317.189 317.189 1000.75 
58 1 1 0.134218 0.070054 0.00997154 0 0 0 0.00670701 0.0315136 -0.0039389 -0.00116729 -0.0015771 0.000400752 0.00670701 0.0315136 -0.0039389 338.86 338.86 1000.8 
59 1 1 0.13993 0.0530482 0.00997071 0 0 0 0.0778507 0.0135884 -0.00381986 -0.00230716 -0.000758058 0.00132884 0.0778507 0.0135884 -0.00381986 324.409 324.409 1000.77 
60 1 1 0.159268 0.0616332 0.00997303 0 0 0 0.0854274 -0.00256947 -0.00277315 0.000380194 0.00292952 0.000352706 0.0854274 -0.00256947 -0.00277315 364.618 364.618 1000.87 
61 1 1 0.00997111 0.0744205 0.00999241 0 0 0 0.0087333 0.0583832 0.00667558 0.0209823 -0.00524877 -0.0151715 0.0087333 0.0583832 0.00667558 399.689 399.689 1000.95 
62 1 1 0.0327071 0.0655965 0.0099782 0 0 0 0.0167582 0.0129616 0.00638871 -0.00431969 0.00226303 0.000343442 0.0167582 0.0129616 0.00638871 305.168 305.168 1000.73 
63 1 1 0.055217 0.0639593 0.00997197 0 0 0 0.000101329 -0.00671277 0.00185593 0.00325573 0.00251832 0.00809725 0.000101329 -0.00671277 0.00185593 330.524 330.524 1000.79 
64 1 1 0.0812571 0.0654804 0.00998785 0 0 0 0.0336435 -0.0157412 -0.00357745 0.00206931 -0.00054389 -0.00686972 0.0336435 -0.0157412 -0.00357745 235.579 235.579 1000.56 
65 1 1 0.0968959 0.0695879 0.00998462 0 0 0 0.0123646 0.0101849 -0.00113061 -0.00168136 -0.00237806 -0.00444026 0.0123646 0.0101849 -0.00113061 233.853 233.853 1000.56 
66 1 1 0.112304 0.078692 0.00998373 0 0 0 0.0441036 -0.0267542 -0.00181507 -0.00163415 -0.00218971 -0.00652467 0.0441036 -0.0267542 -0.00181507 285.939 285.939 1000.68 
67 1 1 0.131247 0.0600981 0.00997366 0 0 0 0.0868472 -0.0502078 -0.000540714 -0.00115083 -2.27005e-05 5.12743e-05 0.0868472 -0.0502078 -0.000540714 314.108 314.108 1000.75 
68 1 1 0.114566 0.0732605 0.00998106 0 0 0 -0.0365187 0.00393995 -0.000638741 -0.00175185 0.000236572 -0.00409266 -0.0365187 0.00393995 -0.000638741 268.196 268.196 1000.64 
69 1 1 0.148228 0.0743811 0.00997059 0 0 0 0.0907983 -0.00534001 -0.00497853 -0.00242469 0.00137767 0.000253253 0.0907983 -0.00534001 -0.00497853 393.888 393.888 1000.94 
70 1 1 0.152357 0.0638265 0.00997314 0 0 0 0.0646655 -0.0116819 -0.00383674 0.00178323 0.0015827 0.000575256 0.0646655 -0.0116819 -0.00383674 360.287 360.287 1000.86 
71 1 1 0.0100007 0.0781472 0.00997789 0 0 0 -0.0110154 0.016132 0.0106913 -0.0210076 -0.00732434 -0.00177873 -0.0110154 0.016132 0.0106913 461.549 461.549 1001.1 
72 1 1 0.0225151 0.0717761 0.00998136 0 0 0 -0.0263344 -0.0415306 0.0116427 0.000886562 -0.000379285 -0.00290924 -0.0263344 -0.0415306 0.0116427 330.534 330.534 1000.79 
73 1 1 0.0304412 0.0755562 0.00998191 0 0 0 -0.0400331 0.00597148 0.00374304 -0.000816574 0.00240108 -0.00609937 -0.0400331 0.00597148 0.00374304 321.707 321.707 1000.76 
74 1 1 0.0865221 0.0790277 0.00998412 0 0 0 0.0188498 -0.0107943 0.00916016 0.000542742 -0.00231215 -0.00346309 0.0188498 -0.0107943 0.00916016 253.252 253.252 1000.6 
75 1 1 0.0769161 0.0775186 0.00998421 0 0 0 0.0136842 -0.00698585 0.00707163 -0.000299553 -0.00118185 -0.00309769 0.0136842 -0.00698585 0.00707163 229.187 229.187 1000.54 
76 1 1 0.103367 0.0784374 0.00998634 0 0 0 -0.0115964 0.0459538 0.000818263 -0.00188244 -0.00192021 -0.00757855 -0.0115964 0.0459538 0.000818263 240.826 240.826 1000.57 
77 1 1 0.104755 0.0675501 0.00998367 0 0 0 0.0150176 -0.0608932 -0.00133891 -0.00234317 -0.00100981 -0.00511519 0.0150176 -0.0608932 -0.00133891 249.354 249.354 1000.59 
78 1 1 0.124792 0.0692408 0.00997297 0 0 0 0.0713335 -0.0590672 -0.00118708 -0.00390241 0.000795967 0.000655436 0.0713335 -0.0590672 -0.00118708 314.937 314.937 1000.75 
79 1 1 0.122563 0.0784348 0.00997841 0 0 0 -0.0296321 0.0343788 -0.0052011 -0.00395078 -0.0012683 -0.00242162 -0.0296321 0.0343788 -0.0052011 300.939 300.939 1000.71 
80 1 1 0.159595 0.0788552 0.00996915 0 0 0 0.0454608 0.0198537 -0.00353594 0.000855801 -0.0034204 0.00419133 0.0454608 0.0198537 -0.00353594 427.443 427.443 1001.01 
81 1 1 0.00997827 0.0900149 0.00999435 0 0 0 0.00748663 0.0109373 0.0088167 0.015918 -0.004809 -0.0127823 0.00748663 0.0109373 0.0088167 570.066 570.066 1001.35 
82 1 1 0.0340075 0.0900186 0.00999401 0 0 0 -0.0216263 -0.00209406 0.00669351 -0.000138448 -0.00945662 -0.0185021 -0.0216263 -0.00209406 0.00669351 344.907 344.907 1000.82 
83 1 1 0.0262485 0.0900037 0.00998244 0 0 0 0.0407446 0.00993342 0.0135715 0.00378271 0.00627114 -0.00741542 0.0407446 0.00993342 0.0135715 369.565 369.565 1000.88 
84 1 1 0.0722726 0.0900039 0.00996934 0 0 0 -0.0340731 0.00204624 -0.00462865 -0.00222998 0.00558856 0.0110902 -0.0340731 0.00204624 -0.00462865 272.785 272.785 1000.65 
85 1 1 0.0761133 0.0900137 0.00998789 0 0 0 -0.061457 0.00480418 0.0140491 0.000192577 -0.0037798 -0.00670512 -0.061457 0.00480418 0.0140491 279.113 279.113 1000.66 
86 1 1 0.0994158 0.0900167 0.00999989 0 0 0 -0.0124523 0.00673342 -0.0078755 -0.00341141 -0.00850536 -0.0191041 -0.0124523 0.00673342 -0.0078755 276.499 276.499 1000.66 
87 1 1 0.115771 0.0900126 0.00998693 0 0 0 -0.0345976 0.00308658 0.0119921 -0.0020451 -0.00277903 -0.00793818 -0.0345976 0.00308658 0.0119921 369.144 369.144 1000.88 
88 1 1 0.126925 0.090008 0.00998446 0 0 0 0.0736854 0.0024179 0.00251116 -0.00205689 0.00400514 -0.00581697 0.0736854 0.0024179 0.00251116 370.903 370.903 1000.88 
89 1 1 0.138999 0.090005 0.00996851 0 0 0 -0.00701089 0.00435026 -0.0117892 -0.00482474 0.0067286 0.00898013 -0.00701089 0.00435026 -0.0117892 378.217 378.217 1000.9 
90 1 1 0.153514 0.0900062 0.00996611 0 0 0 -0.00296123 -0.00198774 0.00207086 0.00113734 0.00589738 0.00844581 -0.00296123 -0.00198774 0.00207086 462.335 462.335 1001.1 
91 1 1 0.010011 0.00999445 0.00996473 0 0 0 0.0149455 -0.0108936 -0.016761 -0.0211256 -0.00431678 0.0170214 0.0149455 -0.0108936 -0.016761 552.671 552.671 1001.31 
92 1 1 0.0220372 0.00998566 0.00996132 0 0 0 -0.0177377 -0.00983287 -0.00653712 0.00940524 0.00403913 0.0158331 -0.0177377 -0.00983287 -0.00653712 367.189 367.189 1000.87 
93 1 1 0.0404474 0.00998323 0.0099834 0 0 0 -0.0678091 -0.0141489 0.0108388 0.00104814 0.00611282 -0.00460216 -0.0678091 -0.0141489 0.0108388 310.283 310.283 1000.74 
94 1 1 0.0513911 0.00998251 0.00997835 0 0 0 -0.0621289 -0.00574045 0.00606333 0.0037097 0.0073678 0.00251365 -0.0621289 -0.00574045 0.00606333 284.163 284.163 1000.68 
95 1 1 0.0824473 0.00999618 0.00999422 0 0 0 -0.0288431 -0.00481769 0.00920677 -0.0011916 -0.00629931 -0.0125768 -0.0288431 -0.00481769 0.00920677 269.45 269.45 1000.64 
96 1 1 0.10957 0.00998647 0.00998944 0 0 0 0.0095861 0.0117789 -0.0107525 -0.00133292 0.00347828 -0.00966638 0.0095861 0.0117789 -0.0107525 344.957 344.957 1000.82 
97 1 1 0.121111 0.00999409 0.00996832 0 0 0 -0.0689004 0.0100914 -0.0143606 -0.0016899 -0.00437114 0.0105554 -0.0689004 0.0100914 -0.0143606 343.911 343.911 1000.82 
98 1 1 0.132034 0.00998785 0.0099801 0 0 0 -0.067074 -0.00400458 0.00110995 -0.00133526 -0.00131874 -0.0016582 -0.067074 -0.00400458 0.00110995 386.236 386.236 1000.92 
99 1 1 0.142806 0.00998198 0.00998932 0 0 0 0.0319758 -0.00164276 0.00290344 -0.00237137 0.00724348 -0.01289 0.0319758 -0.00164276 0.00290344 420.341 420.341 1001 
100 1 1 0.149165 0.00998529 0.00997254 0 0 0 -0.0271486 0.00970313 -0.0123485 -0.00209406 0.0040591 0.00214735 -0.0271486 0.00970313 -0.0123485 449.616 449.616 1001.07 
101 1 1 0.00998349 0.0173914 0.0222383 0 0 0 -0.017161 -0.0185724 -0.0172907 0.011034 0.00697667 -0.000507913 -0.017161 -0.0185724 -0.0172907 448.386 448.386 1001.06 
102 1 1 0.0225553 0.0212807 0.00998005 0 0 0 0.0501896 0.0169845 0.00771553 0.00315206 0.00210184 -0.00373301 0.0501896 0.0169845 0.00771553 342.865 342.865 1000.81 
103 1 1 0.0532946 0.021512 0.0218364 0 0 0 -0.051409 -0.0267806 -0.00522494 0.00060283 -0.0019776 -0.00285805 -0.051409 -0.0267806 -0.00522494 286.322 286.322 1000.68 
104 1 1 0.0910621 0.0207456 0.0271943 0 0 0 0.0646809 0.0478006 0.0430651 -0.00101982 0.00151251 -0.00408598 0.0646809 0.0478006 0.0430651 166.785 166.785 1000.4 
105 1 1 0.123167 0.0191745 0.0407521 0 0 0 0.0849172 -0.0255852 0.0220004 -0.00139915 0.00152227 -0.00419042 0.0849172 -0.0255852 0.0220004 94.2554 94.2554 1000.22 
106 1 1 0.132236 0.021578 0.0160316 0 0 0 -0.00772952 -0.0358467 -0.0732486 -0.00373193 -8.31461e-05 -0.00205003 -0.00772952 -0.0358467 -0.0732486 362.815 362.815 1000.86 
107 1 1 0.164744 0.0239259 0.0223563 0 0 0 0.11592 0.0517074 -0.067518 -0.00184976 0.000690828 -0.00538001 0.11592 0.0517074 -0.067518 360.379 360.379 1000.86 
108 1 1 0.132637 0.0213018 0.00996863 0 0 0 0.0180242 0.00954698 -0.00258384 -0.00203536 0.00167259 0.0021917 0.0180242 0.00954698 -0.00258384 388.402 388.402 1000.92 
109 1 1 0.182651 0.0220984 0.0235546 0 0 0 0.0988629 0.0321355 0.0508032 -8.0894e-05 0.000161646 -0.0015263 0.0988629 0.0321355 0.0508032 342.76 342.76 1000.81 
110 1 1 0.182824 0.025019 0.00997155 0 0 0 0.0479708 0.00650296 -0.0015828 0.000314667 -0.000940859 -0.000156182 0.0479708 0.00650296 -0.0015828 448.88 448.88 1001.07 
111 1 1 0.0100041 0.0312744 0.00998129 0 0 0 -0.0102342 0.0140027 0.00353983 -0.0170107 0.00458969 -0.00258664 -0.0102342 0.0140027 0.00353983 308.824 308.824 1000.73 
112 1 1 0.0261236 0.0223321 0.0252499 0 0 0 -0.0429638 -0.0544619 -0.0248427 -0.00100532 0.0015469 0.00291802 -0.0429638 -0.0544619 -0.0248427 200.63 200.63 1000.48 
113 1 1 0.0449496 0.0355568 0.00997599 0 0 0 0.0476632 -0.0281005 0.00186888 0.00154467 -0.00497663 0.00340071 0.0476632 -0.0281005 0.00186888 346.587 346.587 1000.82 
114 1 1 0.0522918 0.02226 0.00997857 0 0 0 -0.0257087 -0.00835669 -0.00143568 0.00317905 -0.00290192 0.000308675 -0.0257087 -0.00835669 -0.00143568 207.392 207.392 1000.49 
115 1 1 0.0958605 0.0213985 0.0204772 0 0 0 -0.031129 -0.05461 0.02151 -0.000575268 0.00222706 -0.00409185 -0.031129 -0.05461 0.02151 205.242 205.242 1000.49 
116 1 1 0.104849 0.0399722 0.0099819 0 0 0 0.0339894 0.0350933 -0.00246979 -0.00408385 0.000825659 -0.00375835 0.0339894 0.0350933 -0.00246979 254.416 254.416 1000.6 
117 1 1 0.160767 0.0299859 0.027693 0 0 0 0.162255 0.00233483 -0.0861084 -0.0011951 -9.05985e-05 -0.00220242 0.162255 0.00233483 -0.0861084 303.802 303.802 1000.72 
118 1 1 0.174175 0.0233298 0.0215287 0 0 0 0.12401 -0.0214584 0.0194687 -0.000732022 4.48298e-05 -0.0026528 0.12401 -0.0214584 0.0194687 357.881 357.881 1000.85 
119 1 1 0.155167 0.025151 0.00997037 0 0 0 -0.019738 -0.000368838 -0.00328614 0.00107259 0.00130939 0.00198353 -0.019738 -0.000368838 -0.00328614 407.096 407.096 1000.97 
120 1 1 0.189342 0.0223644 0.0167363 0 0 0 0.137863 -0.0343533 -0.0166664 0.000988426 4.67476e-06 -0.000908048 0.137863 -0.0343533 -0.0166664 399.632 399.632 1000.95 
121 1 1 0.00998607 0.0419207 0.00997605 0 0 0 0.0220061 0.0152424 -0.00527138 0.0061952 0.000186118 0.00299328 0.0220061 0.0152424 -0.00527138 293.644 293.644 1000.7 
122 1 1 0.0235876 0.0364127 0.00999093 0 0 0 -0.0168871 0.00269837 0.00103042 -0.00277719 -0.00134148 -0.0116156 -0.0168871 0.00269837 0.00103042 280.304 280.304 1000.67 
123 1 1 0.0396608 0.0267004 0.00998212 0 0 0 -0.066871 0.0195623 0.000509963 -0.00300452 -0.00312084 -0.00472716 -0.066871 0.0195623 0.000509963 333.669 333.669 1000.79 
124 1 1 0.0709175 0.0292415 0.00998687 0 0 0 -0.0378175 0.0239343 0.00271837 0.00164289 -0.00217098 -0.00750952 -0.0378175 0.0239343 0.00271837 258.253 258.253 1000.61 
125 1 1 0.0821342 0.0365878 0.00998669 0 0 0 -0.0368908 0.0153345 -0.00510119 0.00346626 0.00300194 -0.00550337 -0.0368908 0.0153345 -0.00510119 216.324 216.324 1000.51 
126 1 1 0.113815 0.0355898 0.00998282 0 0 0 0.0240819 -0.03673 0.000686193 -0.00222242 0.000779624 -0.00499023 0.0240819 -0.03673 0.000686193 276.729 276.729 1000.66 
127 1 1 0.142785 0.0406423 0.00997123 0 0 0 0.0884932 0.0125649 -0.00182132 -0.00293837 -0.00044292 0.00118452 0.0884932 0.0125649 -0.00182132 337.756 337.756 1000.8 
128 1 1 0.1427 0.0336746 0.00996992 0 0 0 0.0190015 0.014397 -0.00422073 -0.00291389 -0.000593793 0.00261491 0.0190015 0.014397 -0.00422073 319.055 319.055 1000.76 
129 1 1 0.142558 0.0225952 0.00997236 0 0 0 0.0187448 0.0320367 -0.00325093 -0.0012842 -0.000815378 -0.00158737 0.0187448 0.0320367 -0.00325093 360.21 360.21 1000.86 
130 1 1 0.175792 0.0306886 0.00997242 0 0 0 0.100696 -0.0392624 -0.00172812 -0.0013184 -4.70811e-05 -0.000334871 0.100696 -0.0392624 -0.00172812 427.148 427.148 1001.01 
131 1 1 0.00999607 0.0500002 0.00998197 0 0 0 -0.0136353 5.67848e-05 0.00376475 -0.0028842 -8.92827e-05 -0.00255255 -0.0136353 5.67848e-05 0.00376475 286.311 286.311 1000.68 
132 1 1 0.0242122 0.0500002 0.00999122 0 0 0 -0.00918452 2.92491e-05 0.0110235 -0.010689 -7.38231e-05 -0.0138411 -0.00918452 2.92491e-05 0.0110235 363.446 363.446 1000.86 
133 1 1 0.0383052 0.0500002 0.00990033 0 0 0 0.0742345 2.31045e-05 0.0390501 0.00143821 -6.4414e-05 0.0791084 0.0742345 2.31045e-05 0.0390501 460.544 460.544 1001.09 
134 1 1 0.0816965 0.05 0.00998722 0 0 0 -0.0511969 2.73875e-05 -0.00612146 0.00025383 -1.37092e-05 -0.00670852 -0.0511969 2.73875e-05 -0.00612146 258.564 258.564 1000.61 
135 1 1 0.111368 0.05 0.0104272 0 0 0 0.113464 1.60925e-05 -0.152163 -0.0011645 2.42272e-06 -0.0173132 0.113464 1.60925e-05 -0.152163 -3.22351 -3.22351 999.992 
136 1 1 0.130041 0.05 0.0204055 0 0 0 0.0893005 4.65944e-06 -0.040042 -0.00187123 4.85965e-06 -0.000949582 0.0893005 4.65944e-06 -0.040042 276.582 276.582 1000.66 
137 1 1 0.16032 0.05 0.0229864 0 0 0 0.0819641 -2.44273e-06 -0.00807274 -0.00136688 2.66005e-06 -0.0020541 0.0819641 -2.44273e-06 -0.00807274 313.668 313.668 1000.75 
138 1 1 0.128736 0.05 0.00997314 0 0 0 0.0416779 5.54288e-06 -0.00135994 -0.00161977 4.96606e-06 0.00200596 0.0416779 5.54288e-06 -0.00135994 295.557 295.557 1000.7 
139 1 1 0.155098 0.05 0.00997191 0 0 0 0.0528617 -2.38613e-06 -0.00495526 -0.00403615 2.78767e-06 0.00260842 0.0528617 -2.38613e-06 -0.00495526 333.107 333.107 1000.79 
140 1 1 0.19624 0.05 0.023693 0 0 0 0.126307 -9.37862e-07 0.0698098 0.000291567 5.00928e-06 -0.00224275 0.126307 -9.37862e-07 0.0698098 350.383 350.383 1000.83 
141 1 1 0.0099866 0.0580799 0.00997599 0 0 0 0.0223694 -0.0151193 -0.0054292 0.00561989 -0.000401089 0.00297433 0.0223694 -0.0151193 -0.0054292 295.504 295.504 1000.7 
142 1 1 0.0235875 0.0635877 0.00999072 0 0 0 -0.0169385 -0.00271211 0.000677266 -0.00273775 0.00111611 -0.0115241 -0.0169385 -0.00271211 0.000677266 282.863 282.863 1000.67 
143 1 1 0.0396607 0.0732999 0.00998204 0 0 0 -0.0668212 -0.0195709 0.000595636 -0.00297894 0.00296861 -0.00484926 -0.0668212 -0.0195709 0.000595636 337.16 337.16 1000.8 
144 1 1 0.0709174 0.0707585 0.00998687 0 0 0 -0.0378115 -0.0238985 0.00270412 0.00168739 0.00214084 -0.00756005 -0.0378115 -0.0238985 0.00270412 258.979 258.979 1000.62 
145 1 1 0.0821342 0.0634122 0.0099867 0 0 0 -0.0369025 -0.0152645 -0.00508697 0.00347563 -0.00303398 -0.00553172 -0.0369025 -0.0152645 -0.00508697 216.776 216.776 1000.52 
146 1 1 0.113815 0.0644102 0.00998284 0 0 0 0.024062 0.0367536 0.000686429 -0.00221326 -0.000773156 -0.00500378 0.024062 0.0367536 0.000686429 276.614 276.614 1000.66 
147 1 1 0.142785 0.0593577 0.00997123 0 0 0 0.0884883 -0.0125657 -0.00181747 -0.00293997 0.000450095 0.00118441 0.0884883 -0.0125657 -0.00181747 337.681 337.681 1000.8 
148 1 1 0.1427 0.0663254 0.00996993 0 0 0 0.018993 -0.0143991 -0.00421412 -0.00291702 0.00060054 0.00261516 0.018993 -0.0143991 -0.00421412 318.918 318.918 1000.76 
149 1 1 0.142558 0.0774048 0.00997237 0 0 0 0.0187309 -0.0320394 -0.00324306 -0.0012915 0.000820415 -0.00158864 0.0187309 -0.0320394 -0.00324306 359.992 359.992 1000.85 
150 1 1 0.175792 0.0693113 0.00997242 0 0 0 0.100696 0.0392494 -0.00171987 -0.00131866 4.73102e-05 -0.000327391 0.100696 0.0392494 -0.00171987 427.092 427.092 1001.01 
151 1 1 0.0100052 0.0687263 0.00998076 0 0 0 -0.00925397 -0.0138414 0.00309289 -0.0172787 -0.00480217 -0.00224193 -0.00925397 -0.0138414 0.00309289 313.983 313.983 1000.75 
152 1 1 0.0261232 0.0776682 0.0252505 0 0 0 -0.0431023 0.0546073 -0.0240786 -0.0010432 -0.00155847 0.00301987 -0.0431023 0.0546073 -0.0240786 209.367 209.367 1000.5 
153 1 1 0.0449496 0.0644435 0.00997612 0 0 0 0.0477 0.0281216 0.00186269 0.00158574 0.00485105 0.00318619 0.0477 0.0281216 0.00186269 348.564 348.564 1000.83 
154 1 1 0.0522914 0.0777403 0.00997867 0 0 0 -0.0256567 0.0084225 -0.0015273 0.0032907 0.00283365 7.22647e-05 -0.0256567 0.0084225 -0.0015273 210.204 210.204 1000.5 
155 1 1 0.0958604 0.0786015 0.0204772 0 0 0 -0.0311604 0.054652 0.0214705 -0.00054286 -0.00222423 -0.00406463 -0.0311604 0.054652 0.0214705 205.415 205.415 1000.49 
156 1 1 0.104849 0.0600278 0.00998191 0 0 0 0.0339811 -0.0350526 -0.00247325 -0.00407194 -0.000828919 -0.00376757 0.0339811 -0.0350526 -0.00247325 254.412 254.412 1000.6 
157 1 1 0.160767 0.0700141 0.027693 0 0 0 0.16225 -0.00234003 -0.0861049 -0.00119708 9.31944e-05 -0.00220243 0.16225 -0.00234003 -0.0861049 303.709 303.709 1000.72 
158 1 1 0.174175 0.0766702 0.0215287 0 0 0 0.124008 0.0214481 0.0194786 -0.0007315 -4.43271e-05 -0.00265084 0.124008 0.0214481 0.0194786 357.827 357.827 1000.85 
159 1 1 0.155167 0.074849 0.00997038 0 0 0 -0.0197462 0.000361717 -0.00327947 0.00106988 -0.00130721 0.00198311 -0.0197462 0.000361717 -0.00327947 406.968 406.968 1000.97 
160 1 1 0.189342 0.0776356 0.0167363 0 0 0 0.137872 0.0343416 -0.0166574 0.000998594 -1.82391e-06 -0.000907106 0.137872 0.0343416 -0.0166574 399.496 399.496 1000.95 
161 1 1 0.0099823 0.0826068 0.0222384 0 0 0 -0.016135 0.0185022 -0.0175153 0.0120286 -0.00702272 -0.000544879 -0.016135 0.0185022 -0.0175153 461.759 461.759 1001.1 
162 1 1 0.0225555 0.0787198 0.00997926 0 0 0 0.0498198 -0.0167917 0.00759192 0.00306072 -0.00224423 -0.00333959 0.0498198 -0.0167917 0.00759192 352.076 352.076 1000.84 
163 1 1 0.0532942 0.0784882 0.0218363 0 0 0 -0.0513353 0.0268362 -0.00524941 0.000721265 0.00193831 -0.00279184 -0.0513353 0.0268362 -0.00524941 288.892 288.892 1000.69 
164 1 1 0.0910621 0.0792544 0.0271942 0 0 0 0.0646662 -0.0477658 0.0430347 -0.000986995 -0.00151023 -0.00407411 0.0646662 -0.0477658 0.0430347 166.934 166.934 1000.4 
165 1 1 0.123167 0.0808255 0.0407522 0 0 0 0.0849045 0.0255922 0.0219854 -0.00139681 -0.00151802 -0.00420058 0.0849045 0.0255922 0.0219854 94.1361 94.1361 1000.22 
166 1 1 0.132236 0.078422 0.0160316 0 0 0 -0.0077527 0.0358504 -0.0732502 -0.00373641 9.19615e-05 -0.00205553 -0.0077527 0.0358504 -0.0732502 362.516 362.516 1000.86 
167 1 1 0.164744 0.0760741 0.0223563 0 0 0 0.115914 -0.0517161 -0.0675117 -0.00185258 -0.000689668 -0.00537975 0.115914 -0.0517161 -0.0675117 360.291 360.291 1000.86 
168 1 1 0.132637 0.0786981 0.00996866 0 0 0 0.0180012 -0.00954245 -0.00257283 -0.00204153 -0.00166208 0.0021775 0.0180012 -0.00954245 -0.00257283 388.088 388.088 1000.92 
169 1 1 0.182651 0.0779016 0.0235546 0 0 0 0.0988648 -0.032146 0.0508117 -7.48328e-05 -0.000160137 -0.00152377 0.0988648 -0.032146 0.0508117 342.651 342.651 1000.81 
170 1 1 0.182824 0.074981 0.00997154 0 0 0 0.0479759 -0.00651503 -0.00156758 0.000320173 0.000941465 -0.000139214 0.0479759 -0.00651503 -0.00156758 448.817 448.817 1001.07 
171 1 1 0.0100068 0.0900051 0.00996236 0 0 0 0.0213081 0.0104066 -0.018655 -0.0215404 0.00491658 0.01912 0.0213081 0.0104066 -0.018655 556.539 556.539 1001.32 
172 1 1 0.022038 0.0900126 0.00996153 0 0 0 -0.0184378 0.0101316 -0.0082799 0.00901897 -0.00200893 0.0151717 -0.0184378 0.0101316 -0.0082799 377.439 377.439 1000.9 
173 1 1 0.0404469 0.0900166 0.00998303 0 0 0 -0.067782 0.0144442 0.011026 0.00118898 -0.00574229 -0.00448735 -0.067782 0.0144442 0.011026 316.544 316.544 1000.75 
174 1 1 0.0513906 0.0900177 0.00997833 0 0 0 -0.0620973 0.00593887 0.00629709 0.00389097 -0.00742953 0.00239453 -0.0620973 0.00593887 0.00629709 288.708 288.708 1000.69 
175 1 1 0.0824472 0.0900039 0.0099942 0 0 0 -0.0288523 0.0048473 0.00916404 -0.00116381 0.00626632 -0.0125891 -0.0288523 0.0048473 0.00916404 270.406 270.406 1000.64 
176 1 1 0.10957 0.0900134 0.00998946 0 0 0 0.00952167 -0.0117474 -0.0107761 -0.00129393 -0.0033813 -0.00967974 0.00952167 -0.0117474 -0.0107761 344.745 344.745 1000.82 
177 1 1 0.121111 0.090006 0.00996837 0 0 0 -0.0689371 -0.0100589 -0.0143558 -0.00168286 0.00431218 0.0105283 -0.0689371 -0.0100589 -0.0143558 343.297 343.297 1000.82 