ITEM: TIMESTEP
110000
ITEM: NUMBER OF ATOMS
2655
ITEM: BOX BOUNDS ff ff ff
0 0.5
0 0.1
0 0.5
ITEM: ATOMS id type type x y z ix iy iz vx vy vz fx fy fz vx vy vz p p rho 
1 1 1 0.0099846 0.00997691 0.00997247 0 0 0 0.00494093 0.000888045 0.0117895 -0.00901967 0.00125 0.0105634 0.00494093 0.000888045 0.0117895 701.826 701.826 1001.66 
2 1 1 0.0271617 0.00997398 0.00997022 0 0 0 -0.00145889 0.0039207 0.0201234 0.00132794 0.00117171 0.0106132 -0.00145889 0.0039207 0.0201234 638.907 638.907 1001.51 
3 1 1 0.0229076 0.00996901 0.00997345 0 0 0 0.0135335 -0.00125643 -0.0181399 0.00223348 0.0067392 0.00732439 0.0135335 -0.00125643 -0.0181399 562.471 562.471 1001.33 
4 1 1 0.0583165 0.00997799 0.00997575 0 0 0 0.0183018 1.81944e-05 0.0218349 0.00298686 -0.0015063 0.00412852 0.0183018 1.81944e-05 0.0218349 555.461 555.461 1001.32 
5 1 1 0.0628594 0.00997499 0.00996593 0 0 0 0.0246424 0.00660848 -0.025691 0.00311397 0.00244298 0.0138775 0.0246424 0.00660848 -0.025691 468.898 468.898 1001.11 
6 1 1 0.0805877 0.00997878 0.010003 0 0 0 0.0209664 -0.00209851 -0.00571601 0.000930707 0.00126075 -0.0335021 0.0209664 -0.00209851 -0.00571601 454.989 454.989 1001.08 
7 1 1 0.0937422 0.00998352 0.00997107 0 0 0 0.0264154 0.00296131 -0.0016225 0.00213772 -0.00310574 0.00876458 0.0264154 0.00296131 -0.0016225 447.562 447.562 1001.06 
8 1 1 0.102833 0.00998136 0.00999437 0 0 0 0.0471233 0.00027806 -0.00115618 0.000188371 -0.000712605 -0.0147781 0.0471233 0.00027806 -0.00115618 412.754 412.754 1000.98 
9 1 1 0.111366 0.00998222 0.00998471 0 0 0 0.037594 0.00112437 -0.00743486 -0.000940033 0.000120017 -0.00526119 0.037594 0.00112437 -0.00743486 427.19 427.19 1001.01 
10 1 1 0.124672 0.00998316 0.00997472 0 0 0 0.0568714 0.00374551 -0.00753789 0.000666722 -0.00199387 0.00367949 0.0568714 0.00374551 -0.00753789 429.254 429.254 1001.02 
11 1 1 0.00998149 0.0210342 0.00997024 0 0 0 -0.00201092 -0.0153512 -0.0120841 -0.00859755 0.00471673 0.0105211 -0.00201092 -0.0153512 -0.0120841 592.752 592.752 1001.41 
12 1 1 0.0273365 0.0324596 0.00997885 0 0 0 0.0258926 0.0100905 -0.00252556 0.00152698 0.00145591 0.0016785 0.0258926 0.0100905 -0.00252556 575.7 575.7 1001.37 
13 1 1 0.0208414 0.0219422 0.00998063 0 0 0 -0.0189648 0.0230772 0.00426359 0.00131058 0.000826603 -0.00143712 -0.0189648 0.0230772 0.00426359 596.835 596.835 1001.42 
14 1 1 0.075184 0.0219712 0.00997646 0 0 0 0.0485403 0.0406587 0.00400349 0.00137256 -0.00027624 0.000370149 0.0485403 0.0406587 0.00400349 487.913 487.913 1001.16 
15 1 1 0.0625632 0.0215355 0.00997964 0 0 0 0.0272599 0.00611778 -0.00281269 0.00209747 0.00119983 -0.00143812 0.0272599 0.00611778 -0.00281269 525.449 525.449 1001.25 
16 1 1 0.0865948 0.0215195 0.00997738 0 0 0 0.0371243 0.007253 0.00266046 0.00155268 -0.000336041 -0.000872329 0.0371243 0.007253 0.00266046 490.037 490.037 1001.16 
17 1 1 0.0890655 0.0414418 0.00997404 0 0 0 0.0135548 -0.00444831 0.00213316 0.000948432 -6.91006e-05 0.00219777 0.0135548 -0.00444831 0.00213316 463.547 463.547 1001.1 
18 1 1 0.117181 0.032841 0.00997503 0 0 0 0.0289052 0.0171912 3.24054e-07 0.000169642 -0.000678878 0.000291422 0.0289052 0.0171912 3.24054e-07 463.387 463.387 1001.1 
19 1 1 0.0979132 0.02133 0.00998139 0 0 0 0.0432882 -0.0207314 0.00254483 0.00110591 -0.000523006 -0.00455034 0.0432882 -0.0207314 0.00254483 492.721 492.721 1001.17 
20 1 1 0.134499 0.0218906 0.00997177 0 0 0 0.0435915 0.00185497 0.0010221 -4.27677e-05 0.000337256 0.00358454 0.0435915 0.00185497 0.0010221 458.732 458.732 1001.09 
21 1 1 0.0099684 0.0280375 0.00997609 0 0 0 -0.00397916 0.0342336 -0.00443016 0.00363884 0.00114354 0.00388202 -0.00397916 0.0342336 -0.00443016 581.405 581.405 1001.38 
22 1 1 0.0339028 0.0355788 0.00997761 0 0 0 0.0156238 0.00981981 0.000615628 0.00043959 0.00119658 0.00188294 0.0156238 0.00981981 0.000615628 560.693 560.693 1001.33 
23 1 1 0.0528732 0.0432137 0.00997767 0 0 0 0.0313823 0.00408452 0.00257854 0.0013729 0.00146872 0.000592808 0.0313823 0.00408452 0.00257854 512.788 512.788 1001.22 
24 1 1 0.0738169 0.0311918 0.00997484 0 0 0 0.0376923 -0.000906912 -4.5922e-05 0.00143357 0.000191365 0.000557858 0.0376923 -0.000906912 -4.5922e-05 498.857 498.857 1001.18 
25 1 1 0.094439 0.0376845 0.00997629 0 0 0 0.0248721 0.00723533 -0.000911795 0.00094524 0.000187808 -0.00048971 0.0248721 0.00723533 -0.000911795 454.228 454.228 1001.08 
26 1 1 0.0921793 0.024728 0.00997814 0 0 0 0.0548274 -0.00102126 0.00323864 0.00171978 -0.00148659 -0.00119771 0.0548274 -0.00102126 0.00323864 497.97 497.97 1001.18 
27 1 1 0.114778 0.0438407 0.00997619 0 0 0 0.0489912 -0.00555998 0.0012271 0.000527208 -0.000227643 -0.000443624 0.0489912 -0.00555998 0.0012271 441.141 441.141 1001.05 
28 1 1 0.0936042 0.0313915 0.00997795 0 0 0 0.0518705 -0.0201626 -0.00222869 0.00131517 0.000994521 -0.00112508 0.0518705 -0.0201626 -0.00222869 462.587 462.587 1001.1 
29 1 1 0.120437 0.0220228 0.00997719 0 0 0 0.0481279 -0.00295108 -0.00107561 0.000193095 -0.000353777 -0.002145 0.0481279 -0.00295108 -0.00107561 466.195 466.195 1001.11 
30 1 1 0.127576 0.0289585 0.00997348 0 0 0 0.0346988 0.0106562 0.000513885 0.000713363 0.000465589 0.00125299 0.0346988 0.0106562 0.000513885 448.141 448.141 1001.06 
31 1 1 0.00997231 0.0380172 0.00998147 0 0 0 0.00359713 0.0022355 0.0006672 0.00150979 0.000784655 -0.00235559 0.00359713 0.0022355 0.0006672 603.983 603.983 1001.43 
32 1 1 0.0215002 0.0424015 0.00997833 0 0 0 0.0414628 0.00876446 -0.0013118 0.000962697 0.00101556 0.00104715 0.0414628 0.00876446 -0.0013118 562.275 562.275 1001.33 
33 1 1 0.0464383 0.0383132 0.00997762 0 0 0 0.0173116 0.0219813 0.00271591 0.000401185 0.00111514 0.00106888 0.0173116 0.0219813 0.00271591 534.775 534.775 1001.27 
34 1 1 0.0612352 0.0343224 0.00997627 0 0 0 0.0344263 -0.0129176 -0.000565743 0.00157946 0.00136509 0.000397948 0.0344263 -0.0129176 -0.000565743 502.743 502.743 1001.19 
35 1 1 0.0649746 0.0412943 0.0099769 0 0 0 0.0114465 -0.02931 0.000175432 0.00215177 -0.000331342 -0.00010502 0.0114465 -0.02931 0.000175432 474.347 474.347 1001.13 
36 1 1 0.0835843 0.0314408 0.00997974 0 0 0 0.0438038 0.0147745 -0.00190258 0.000674285 0.000591149 -0.0031391 0.0438038 0.0147745 -0.00190258 484.084 484.084 1001.15 
37 1 1 0.105154 0.0364744 0.00997686 0 0 0 0.0175808 0.0288627 -0.00105696 0.00104177 0.000259712 -0.000908593 0.0175808 0.0288627 -0.00105696 444.593 444.593 1001.06 
38 1 1 0.11301 0.0370085 0.00997521 0 0 0 0.0505788 -0.0104904 0.000272598 -6.50808e-05 0.000160826 0.000647481 0.0505788 -0.0104904 0.000272598 445.922 445.922 1001.06 
39 1 1 0.131433 0.0402574 0.00997443 0 0 0 0.0458447 -0.0162153 0.000258836 -0.000512177 -0.000253308 0.000422404 0.0458447 -0.0162153 0.000258836 426.518 426.518 1001.01 
40 1 1 0.147341 0.0363655 0.0099721 0 0 0 0.0770222 0.00355182 -0.00106266 0.000271634 0.000175768 0.00123367 0.0770222 0.00355182 -0.00106266 413.342 413.342 1000.98 
41 1 1 0.00997727 0.0521577 0.00997412 0 0 0 -0.000927172 -0.0289488 0.00472647 -0.00209265 0.00229375 0.00554569 -0.000927172 -0.0289488 0.00472647 589.578 589.578 1001.4 
42 1 1 0.0293241 0.0538079 0.00998085 0 0 0 0.0275391 0.0226161 -0.000189342 0.00152524 0.000734742 -0.00128471 0.0275391 0.0226161 -0.000189342 547.316 547.316 1001.3 
43 1 1 0.0436564 0.0497542 0.00997729 0 0 0 0.00210257 -0.00787434 -0.00219913 0.000809119 0.000740052 0.000412442 0.00210257 -0.00787434 -0.00219913 493.27 493.27 1001.17 
44 1 1 0.0616414 0.0469272 0.00997592 0 0 0 0.0233415 0.000858959 -0.000700962 0.00182668 0.00113708 -0.000121282 0.0233415 0.000858959 -0.000700962 473.016 473.016 1001.12 
45 1 1 0.0739395 0.0487545 0.00997651 0 0 0 0.0296645 -0.0119521 -0.000197981 0.00159907 0.000406888 -0.00102316 0.0296645 -0.0119521 -0.000197981 450.885 450.885 1001.07 
46 1 1 0.0817433 0.0514297 0.00997916 0 0 0 0.0249309 0.0119065 -0.000406647 -0.000111034 -8.91973e-05 -0.00285984 0.0249309 0.0119065 -0.000406647 448.899 448.899 1001.07 
47 1 1 0.087054 0.0485125 0.00997446 0 0 0 0.0197576 0.010698 0.00220235 0.000890697 0.00040848 0.00196735 0.0197576 0.010698 0.00220235 450.359 450.359 1001.07 
48 1 1 0.11335 0.0497877 0.00997788 0 0 0 0.0362854 0.00555526 -0.00103825 -0.000488926 0.000190073 -0.00155197 0.0362854 0.00555526 -0.00103825 431.814 431.814 1001.02 
49 1 1 0.098811 0.0479884 0.00997495 0 0 0 0.0189989 0.0104284 0.00114556 0.000799836 -4.93843e-05 0.000960892 0.0189989 0.0104284 0.00114556 453.926 453.926 1001.08 
50 1 1 0.138068 0.0498399 0.00997598 0 0 0 0.05266 0.00897739 0.000758528 0.000749953 0.000125253 -0.00036714 0.05266 0.00897739 0.000758528 427.296 427.296 1001.01 
51 1 1 0.00997289 0.0619424 0.00998452 0 0 0 0.00309021 0.0174932 -0.00350797 0.00219381 -0.000258698 -0.00498669 0.00309021 0.0174932 -0.00350797 551.901 551.901 1001.31 
52 1 1 0.0206629 0.05972 0.00997539 0 0 0 0.0101617 -0.0145594 0.00177665 0.00118209 0.000633805 0.00309516 0.0101617 -0.0145594 0.00177665 545.254 545.254 1001.29 
53 1 1 0.0491261 0.0613239 0.00997772 0 0 0 0.0391604 -0.0100134 0.00283592 0.000489708 0.000280131 0.00157302 0.0391604 -0.0100134 0.00283592 515.701 515.701 1001.22 
54 1 1 0.0633768 0.0623659 0.0099777 0 0 0 0.044548 -0.00247469 -4.49209e-05 0.0010125 0.000818178 -7.37966e-05 0.044548 -0.00247469 -4.49209e-05 490.262 490.262 1001.16 
55 1 1 0.0675784 0.0582462 0.00997668 0 0 0 0.030283 0.0192424 0.000738446 0.00124699 6.41213e-05 -0.000514912 0.030283 0.0192424 0.000738446 480.588 480.588 1001.14 
56 1 1 0.0839739 0.0686455 0.00997975 0 0 0 0.0325888 -0.0053209 -0.00159221 0.00103782 0.000463886 -0.00368287 0.0325888 -0.0053209 -0.00159221 473.643 473.643 1001.12 
57 1 1 0.106296 0.0638459 0.00997891 0 0 0 0.0376991 -0.0199685 -0.000505489 0.000571681 -7.79636e-05 -0.00211677 0.0376991 -0.0199685 -0.000505489 466.574 466.574 1001.11 
58 1 1 0.113499 0.0632418 0.0099766 0 0 0 0.0659093 -0.00980953 -0.000133397 0.000195826 -0.000279233 -0.000357298 0.0659093 -0.00980953 -0.000133397 454.955 454.955 1001.08 
59 1 1 0.13171 0.0603618 0.00997467 0 0 0 0.0373731 0.0189947 0.000320785 -0.000712912 -0.000144591 0.0006685 0.0373731 0.0189947 0.000320785 442.755 442.755 1001.05 
60 1 1 0.143868 0.0643563 0.00997179 0 0 0 0.0364365 -0.00568598 -0.00130756 0.000945229 -3.68944e-05 0.00220556 0.0364365 -0.00568598 -0.00130756 414.91 414.91 1000.98 
61 1 1 0.00997712 0.0714919 0.00997726 0 0 0 -0.00148833 -0.0341186 0.00690381 -0.00226292 -4.04214e-05 0.00256694 -0.00148833 -0.0341186 0.00690381 590.897 590.897 1001.4 
62 1 1 0.0364212 0.0641643 0.00997936 0 0 0 0.0370796 0.00669438 0.00161838 0.0011024 0.000491573 -2.63312e-05 0.0370796 0.00669438 0.00161838 538.641 538.641 1001.28 
63 1 1 0.0554182 0.0578825 0.00997857 0 0 0 0.0268888 0.0181927 0.00242836 0.00147961 -7.93624e-06 0.000134778 0.0268888 0.0181927 0.00242836 497.043 497.043 1001.18 
64 1 1 0.0730961 0.0698271 0.00997749 0 0 0 0.032368 0.0163892 -0.00141965 0.00122077 -0.00022286 -9.74668e-05 0.032368 0.0163892 -0.00141965 491.719 491.719 1001.17 
65 1 1 0.0969893 0.0623875 0.009978 0 0 0 0.0456774 -0.0132262 -0.000670944 0.000451833 0.000181683 -0.00150848 0.0456774 -0.0132262 -0.000670944 458.991 458.991 1001.09 
66 1 1 0.0915671 0.0749301 0.00997642 0 0 0 0.0423172 -0.0131395 0.00388769 0.000970082 0.000740582 0.000358246 0.0423172 -0.0131395 0.00388769 475.177 475.177 1001.13 
67 1 1 0.115944 0.0566376 0.00997628 0 0 0 0.0574077 0.00554355 0.000529409 0.000248429 -0.000432042 -0.000371692 0.0574077 0.00554355 0.000529409 442.97 442.97 1001.05 
68 1 1 0.0941467 0.0682346 0.00997738 0 0 0 0.0595676 0.0219631 -0.000414357 0.000990739 0.000421742 -0.000372344 0.0595676 0.0219631 -0.000414357 461.025 461.025 1001.09 
69 1 1 0.120995 0.0777602 0.0099733 0 0 0 0.0486621 0.00129156 -0.0021165 0.000813063 -0.000291924 0.00165887 0.0486621 0.00129156 -0.0021165 462.494 462.494 1001.1 
70 1 1 0.129441 0.06992 0.0099738 0 0 0 0.0534 0.00778869 0.000754274 0.000405808 -0.000291758 0.00110797 0.0534 0.00778869 0.000754274 451.569 451.569 1001.07 
71 1 1 0.009975 0.0792418 0.00997177 0 0 0 0.00847912 0.0101916 0.00135469 2.18288e-05 0.00182986 0.00941703 0.00847912 0.0101916 0.00135469 554.446 554.446 1001.31 
72 1 1 0.0307305 0.063357 0.00997726 0 0 0 -0.00466847 0.00746612 0.000501963 -0.000399012 0.000806181 0.00191293 -0.00466847 0.00746612 0.000501963 547.969 547.969 1001.3 
73 1 1 0.0208552 0.0783591 0.00997861 0 0 0 -0.0246437 -0.0108228 -0.00602862 0.00136705 0.00079489 0.000434303 -0.0246437 -0.0108228 -0.00602862 559.316 559.316 1001.33 
74 1 1 0.0745355 0.0776627 0.00997762 0 0 0 0.0337547 -0.0104332 0.00360841 0.00115774 -3.42841e-05 0.000107551 0.0337547 -0.0104332 0.00360841 506.54 506.54 1001.2 
75 1 1 0.0623216 0.077622 0.00997972 0 0 0 0.012024 -0.00495079 -0.00368883 0.000819614 -0.000788614 -0.00128236 0.012024 -0.00495079 -0.00368883 495.189 495.189 1001.17 
76 1 1 0.0861308 0.0785003 0.00997675 0 0 0 0.0364197 -0.0061488 -0.000111588 0.00147229 -0.000672891 0.000236297 0.0364197 -0.0061488 -0.000111588 456.16 456.16 1001.08 
77 1 1 0.0904366 0.0585465 0.00997506 0 0 0 0.0385627 0.0138134 0.00131966 0.00109132 -2.06074e-05 0.00158903 0.0385627 0.0138134 0.00131966 461.201 461.201 1001.09 
78 1 1 0.117706 0.0684461 0.00997625 0 0 0 0.0332088 -0.0126164 -0.000248756 0.000266603 0.000509555 -0.000774016 0.0332088 -0.0126164 -0.000248756 453.82 453.82 1001.08 
79 1 1 0.0969249 0.0786629 0.0099776 0 0 0 0.0393761 0.00905877 0.0016217 0.000381759 -0.0023343 -0.000240777 0.0393761 0.00905877 0.0016217 475.219 475.219 1001.13 
80 1 1 0.134029 0.0785905 0.00996972 0 0 0 0.0500357 0.00660603 0.00389031 -0.00032534 -0.000273204 0.00592378 0.0500357 0.00660603 0.00389031 479.333 479.333 1001.14 
81 1 1 0.0099758 0.0900239 0.00997236 0 0 0 0.0181242 0.021152 -0.00157887 0.00302626 -0.00269334 0.0102957 0.0181242 0.021152 -0.00157887 512.603 512.603 1001.22 
82 1 1 0.0274091 0.0900223 0.00997042 0 0 0 0.00372817 0.00278518 -0.0248292 -0.000720186 -0.000382891 0.0114014 0.00372817 0.00278518 -0.0248292 470.068 470.068 1001.12 
83 1 1 0.0229768 0.0900125 0.00997055 0 0 0 0.00952007 0.00451479 0.000303528 -0.000767432 0.0111917 0.0111102 0.00952007 0.00451479 0.000303528 538.351 538.351 1001.28 
84 1 1 0.0584209 0.0900192 0.0099767 0 0 0 0.0140057 0.00500848 0.0112496 -0.000394965 0.00253963 0.00441446 0.0140057 0.00500848 0.0112496 501.799 501.799 1001.19 
85 1 1 0.0629822 0.0900233 0.0100016 0 0 0 0.0223765 0.00193441 -0.00987185 5.63794e-06 -0.00213671 -0.0326213 0.0223765 0.00193441 -0.00987185 479.312 479.312 1001.14 
86 1 1 0.0806814 0.0900192 0.00997886 0 0 0 0.023878 0.00147188 0.0154018 0.00124846 0.000623815 0.000492124 0.023878 0.00147188 0.0154018 500.089 500.089 1001.19 
87 1 1 0.0940303 0.0900206 0.00999356 0 0 0 0.0438949 0.00382175 -0.0188801 -0.00173503 -0.00170211 -0.0140105 0.0438949 0.00382175 -0.0188801 426.007 426.007 1001.01 
88 1 1 0.102866 0.0900189 0.00995862 0 0 0 0.0582839 -0.00476694 -0.0119691 0.000219794 -0.000386434 0.020862 0.0582839 -0.00476694 -0.0119691 471.407 471.407 1001.12 
89 1 1 0.111496 0.090019 0.00999123 0 0 0 0.0447117 0.00465003 0.0112685 0.00182241 -0.000958937 -0.0121114 0.0447117 0.00465003 0.0112685 504.761 504.761 1001.2 
90 1 1 0.124811 0.090017 0.0100053 0 0 0 0.0730306 0.00251069 0.00679051 0.00200115 0.00146145 -0.0342098 0.0730306 0.00251069 0.00679051 460.353 460.353 1001.09 
91 1 1 0.00997967 0.00997078 0.0099924 0 0 0 0.00513912 0.00476629 -0.0231622 -0.00378572 0.00758054 -0.00950442 0.00513912 0.00476629 -0.0231622 648.125 648.125 1001.54 
92 1 1 0.0201444 0.00996576 0.00995924 0 0 0 0.0122969 -0.00130988 -0.0142094 0.00327389 0.00986795 0.0216955 0.0122969 -0.00130988 -0.0142094 577.238 577.238 1001.37 
93 1 1 0.0321729 0.00997459 0.0100032 0 0 0 0.0263147 -0.000900542 -0.0105593 0.00139986 0.000646269 -0.0351923 0.0263147 -0.000900542 -0.0105593 558.423 558.423 1001.32 
94 1 1 0.0407864 0.00997404 0.00995231 0 0 0 0.00800306 0.00394808 -0.00531963 0.000900218 0.00241449 0.0288232 0.00800306 0.00394808 -0.00531963 551.432 551.432 1001.31 
95 1 1 0.0672187 0.00997815 0.00995633 0 0 0 0.0145081 0.00470302 0.00892947 0.00320412 -0.000404792 0.0239308 0.0145081 0.00470302 0.00892947 518.217 518.217 1001.23 
96 1 1 0.0895944 0.00998056 0.00996042 0 0 0 0.0341287 0.00581613 -0.00994537 0.00197216 -0.000418428 0.0190439 0.0341287 0.00581613 -0.00994537 446.853 446.853 1001.06 
97 1 1 0.097938 0.00998013 0.00999845 0 0 0 0.0376524 0.00141608 -0.0119517 0.00193092 0.000232449 -0.018512 0.0376524 0.00141608 -0.0119517 410.21 410.21 1000.97 
98 1 1 0.107075 0.00998271 0.00998305 0 0 0 0.0461251 -0.00325542 0.00990552 -0.000923065 -0.00123636 -0.00351528 0.0461251 -0.00325542 0.00990552 437.252 437.252 1001.04 
99 1 1 0.11567 0.00998476 0.00996197 0 0 0 0.0565996 0.000499772 -0.0028753 -0.000770112 -0.00226466 0.0173349 0.0565996 0.000499772 -0.0028753 439.68 439.68 1001.04 
100 1 1 0.120129 0.00998307 0.0099708 0 0 0 0.0330703 -0.000633198 0.0114334 -1.52917e-05 -0.0014446 0.00768724 0.0330703 -0.000633198 0.0114334 472.24 472.24 1001.12 
101 1 1 0.00997943 0.0241965 0.0235092 0 0 0 -0.001241 -0.0156005 -0.0477863 2.57372e-05 0.00194221 -0.000910228 -0.001241 -0.0156005 -0.0477863 498.138 498.138 1001.18 
102 1 1 0.00998711 0.0228244 0.00999295 0 0 0 0.00281525 0.000572545 -0.0123414 -0.0146707 0.00438232 -0.0121642 0.00281525 0.000572545 -0.0123414 598.162 598.162 1001.42 
103 1 1 0.0247976 0.0215129 0.0248775 0 0 0 -0.0456979 -0.0171913 0.00664849 0.00172313 5.8606e-05 0.00074293 -0.0456979 -0.0171913 0.00664849 495.271 495.271 1001.18 
104 1 1 0.0789185 0.0219328 0.0392257 0 0 0 -0.0489775 -0.0305356 0.00662872 0.00171619 0.000662589 0.000290599 -0.0489775 -0.0305356 0.00662872 296.465 296.465 1000.7 
105 1 1 0.115208 0.0257111 0.0519197 0 0 0 -0.147238 0.00457748 0.0335813 -0.000819664 -0.000743256 -3.79651e-05 -0.147238 0.00457748 0.0335813 180.231 180.231 1000.43 
106 1 1 0.10975 0.0227009 0.00997453 0 0 0 0.0662667 0.00692941 0.0145594 0.00111771 -0.00159224 0.00110053 0.0662667 0.00692941 0.0145594 480.229 480.229 1001.14 
107 1 1 0.143132 0.0222848 0.0337786 0 0 0 -0.163036 0.0147339 0.0568368 -0.000498909 -0.000573779 -0.000414982 -0.163036 0.0147339 0.0568368 313.409 313.409 1000.74 
108 1 1 0.124463 0.0355086 0.0099732 0 0 0 0.0505091 -0.012447 -0.00146411 0.000708826 0.000391336 0.0019024 0.0505091 -0.012447 -0.00146411 426.081 426.081 1001.01 
109 1 1 0.161724 0.0233189 0.0223211 0 0 0 -0.132221 -0.015957 0.0308351 -0.00102997 -0.000274419 -0.00154536 -0.132221 -0.015957 0.0308351 420.31 420.31 1001 
110 1 1 0.153501 0.023195 0.00997401 0 0 0 0.0622338 -0.0103986 0.000972242 8.09619e-05 -0.00106629 -0.000300703 0.0622338 -0.0103986 0.000972242 446.319 446.319 1001.06 
111 1 1 0.00997054 0.0338409 0.00997459 0 0 0 0.000974654 -0.00290524 -0.00206131 0.00223887 -0.000194073 0.00478876 0.000974654 -0.00290524 -0.00206131 603.579 603.579 1001.43 
112 1 1 0.0211674 0.0206242 0.039926 0 0 0 0.0176994 0.0193736 0.0197209 -0.000691262 0.001119 0.00051107 0.0176994 0.0193736 0.0197209 243.434 243.434 1000.58 
113 1 1 0.0387057 0.0283207 0.00997937 0 0 0 0.0148664 0.0128573 -0.000736883 0.0020292 0.000976242 0.000366383 0.0148664 0.0128573 -0.000736883 565.601 565.601 1001.34 
114 1 1 0.0452843 0.02211 0.00997933 0 0 0 -0.00679589 0.01488 -0.0030802 0.000137341 0.00125289 -0.000222786 -0.00679589 0.01488 -0.0030802 526.35 526.35 1001.25 
115 1 1 0.0646939 0.0218157 0.0250961 0 0 0 -0.0857357 0.0303032 0.00636857 0.00133861 0.0015618 0.000327212 -0.0857357 0.0303032 0.00636857 418.956 418.956 1000.99 
116 1 1 0.0821676 0.0379489 0.00997615 0 0 0 0.0410537 0.00882217 0.000278817 0.00189342 -0.000194353 -1.69191e-05 0.0410537 0.00882217 0.000278817 475.21 475.21 1001.13 
117 1 1 0.141613 0.0289359 0.0217937 0 0 0 -0.147866 0.00809422 0.0267215 -0.00030223 -0.000224302 -0.000579028 -0.147866 0.00809422 0.0267215 419.637 419.637 1001 
118 1 1 0.154092 0.0214959 0.0232839 0 0 0 -0.179977 0.000637784 0.00621329 3.30057e-05 0.000765511 -0.000657046 -0.179977 0.000637784 0.00621329 432.701 432.701 1001.03 
119 1 1 0.127264 0.0222305 0.00997599 0 0 0 0.0399875 -0.0211841 0.00244452 0.000674891 -4.12749e-05 -0.00121032 0.0399875 -0.0211841 0.00244452 475.713 475.713 1001.13 
120 1 1 0.160577 0.0216701 0.0376827 0 0 0 -0.184017 -0.0205924 0.0353459 0.000344312 4.54635e-05 -0.00152684 -0.184017 -0.0205924 0.0353459 252.616 252.616 1000.6 
121 1 1 0.0099746 0.0428126 0.00998321 0 0 0 0.00324831 0.0173145 -0.00105927 0.000105071 0.000660409 -0.00395793 0.00324831 0.0173145 -0.00105927 594.092 594.092 1001.41 
122 1 1 0.0225011 0.0373902 0.00998343 0 0 0 -0.0333887 -0.00337743 -0.00325793 0.000542525 0.0006538 -0.00281174 -0.0333887 -0.00337743 -0.00325793 574.622 574.622 1001.36 
123 1 1 0.020916 0.0294075 0.00998537 0 0 0 0.0211056 0.0221121 0.0132157 0.00178449 0.000259452 -0.00584027 0.0211056 0.0221121 0.0132157 623.55 623.55 1001.48 
124 1 1 0.0632601 0.0285941 0.00997896 0 0 0 0.030644 -0.0242374 -0.00205481 0.00143861 0.000387737 -0.00148956 0.030644 -0.0242374 -0.00205481 518.557 518.557 1001.23 
125 1 1 0.0712716 0.0373167 0.00997691 0 0 0 0.0284985 -0.00540282 0.00153996 0.00117628 0.000619175 -0.000622615 0.0284985 -0.00540282 0.00153996 495.635 495.635 1001.18 
126 1 1 0.103695 0.030799 0.00997953 0 0 0 0.0488148 -0.00315592 -0.000369181 0.00124694 -0.000139999 -0.00312203 0.0488148 -0.00315592 -0.000369181 453.929 453.929 1001.08 
127 1 1 0.136362 0.037471 0.00997339 0 0 0 0.0176324 -0.0236232 0.000306816 0.00148628 -0.000305832 0.000714438 0.0176324 -0.0236232 0.000306816 431.948 431.948 1001.03 
128 1 1 0.123265 0.0437804 0.00997701 0 0 0 0.0303511 0.0214293 0.00221268 0.000186136 -0.00122749 -0.00136701 0.0303511 0.0214293 0.00221268 433.521 433.521 1001.03 
129 1 1 0.115156 0.0243968 0.00998242 0 0 0 0.0451258 0.0069268 -0.00772251 0.000336927 -0.000596087 -0.00677263 0.0451258 0.0069268 -0.00772251 440.46 440.46 1001.05 
130 1 1 0.158991 0.0318578 0.00997263 0 0 0 0.0485691 0.00169894 -0.00162435 0.00118735 0.000237287 -5.4085e-05 0.0485691 0.00169894 -0.00162435 412.627 412.627 1000.98 
131 1 1 0.00997629 0.0480407 0.00997771 0 0 0 -0.00162646 0.0271809 0.00645409 -0.000876067 6.81857e-05 0.00193649 -0.00162646 0.0271809 0.00645409 605.922 605.922 1001.44 
132 1 1 0.0242661 0.0472307 0.00998018 0 0 0 0.0246573 -0.00111047 0.00308169 0.000591667 0.000987315 -0.00100323 0.0246573 -0.00111047 0.00308169 568.71 568.71 1001.35 
133 1 1 0.0366533 0.048216 0.0099804 0 0 0 0.000935948 0.0080382 0.000473217 0.00113645 0.000544286 -0.00215659 0.000935948 0.0080382 0.000473217 529.559 529.559 1001.26 
134 1 1 0.0679485 0.0511361 0.00997581 0 0 0 0.0320529 -0.00353084 0.000395981 0.00139294 -0.000152207 -0.000356504 0.0320529 -0.00353084 0.000395981 460.592 460.592 1001.09 
135 1 1 0.106663 0.0516589 0.00997574 0 0 0 0.0330229 -0.0178281 0.000451318 0.00105757 -0.000601761 0.000178427 0.0330229 -0.0178281 0.000451318 433.19 433.19 1001.03 
136 1 1 0.113639 0.0518732 0.0248404 0 0 0 -0.132285 -0.00523103 -0.0653911 -0.000447132 -0.000723672 -0.00110666 -0.132285 -0.00523103 -0.0653911 360.649 360.649 1000.86 
137 1 1 0.13993 0.0543544 0.0242097 0 0 0 -0.142349 -0.00413631 -0.00739388 -1.22341e-05 -0.000454511 -0.00174958 -0.142349 -0.00413631 -0.00739388 399.033 399.033 1000.95 
138 1 1 0.124731 0.0500712 0.00997666 0 0 0 0.0576941 -0.00304535 -0.000439282 0.00111761 -0.000370649 -0.000176514 0.0576941 -0.00304535 -0.000439282 438.073 438.073 1001.04 
139 1 1 0.132809 0.0492898 0.00997638 0 0 0 0.0724028 -0.016648 0.000299997 -0.000277396 -0.000299124 -0.000554657 0.0724028 -0.016648 0.000299997 435.887 435.887 1001.03 
140 1 1 0.179029 0.0501333 0.0225045 0 0 0 -0.179095 0.00116214 0.00614522 -0.000946282 -2.62049e-05 -0.000120535 -0.179095 0.00116214 0.00614522 422.454 422.454 1001 
141 1 1 0.00997352 0.0569934 0.00998226 0 0 0 0.00493869 -0.0157881 -0.00495327 0.00104805 0.00197928 -0.00302376 0.00493869 -0.0157881 -0.00495327 557.425 557.425 1001.32 
142 1 1 0.0234372 0.0652022 0.00997967 0 0 0 0.0172599 -0.0177049 -0.00255403 0.000625767 -0.000153904 -0.000741031 0.0172599 -0.0177049 -0.00255403 548.564 548.564 1001.3 
143 1 1 0.0219448 0.070714 0.00997998 0 0 0 0.0252875 -0.00298403 0.00274074 0.00143293 0.000788348 -0.00077695 0.0252875 -0.00298403 0.00274074 562.497 562.497 1001.33 
144 1 1 0.0625377 0.070066 0.00997843 0 0 0 0.0455132 0.0158277 -0.0027723 0.00144827 -0.000321633 -0.000273961 0.0455132 0.0158277 -0.0027723 486.675 486.675 1001.15 
145 1 1 0.0734296 0.0636131 0.00997725 0 0 0 0.0470973 0.00354476 0.00169446 0.00146276 -0.000364803 -0.000221007 0.0470973 0.00354476 0.00169446 490.16 490.16 1001.16 
146 1 1 0.104768 0.0699293 0.00997765 0 0 0 0.0577966 0.0183271 0.0021941 0.000560901 0.000709927 -0.000479508 0.0577966 0.0183271 0.0021941 463.894 463.894 1001.1 
147 1 1 0.136387 0.0599311 0.00997444 0 0 0 0.0166589 0.00997573 0.000652881 0.00183844 -0.000430462 0.000453371 0.0166589 0.00997573 0.000652881 434.64 434.64 1001.03 
148 1 1 0.12389 0.0561002 0.00997699 0 0 0 0.051465 -0.013126 0.00136681 0.000388914 0.000994038 -0.000932251 0.051465 -0.013126 0.00136681 442.192 442.192 1001.05 
149 1 1 0.115334 0.0771156 0.00998077 0 0 0 0.0447455 0.00512504 -0.00497417 -0.000184665 -0.000717846 -0.00515489 0.0447455 0.00512504 -0.00497417 452.212 452.212 1001.07 
150 1 1 0.159272 0.0682111 0.0099724 0 0 0 0.0617558 0.00552266 -0.00154774 0.00121757 -0.000368937 0.000595097 0.0617558 0.00552266 -0.00154774 418.833 418.833 1000.99 
151 1 1 0.00997559 0.0667305 0.00997913 0 0 0 -0.000753141 0.00184781 -0.000531832 -0.000451019 -0.00220958 0.000235055 -0.000753141 0.00184781 -0.000531832 570.994 570.994 1001.35 
152 1 1 0.0263566 0.0783423 0.0378711 0 0 0 0.0165478 0.0174835 -0.0142202 -0.000255466 -0.000381847 0.00143733 0.0165478 0.0174835 -0.0142202 269.123 269.123 1000.64 
153 1 1 0.0384634 0.0712231 0.00997985 0 0 0 0.0196638 -0.0322525 -0.0012671 0.000885801 0.000213506 -0.0010772 0.0196638 -0.0322525 -0.0012671 532.81 532.81 1001.26 
154 1 1 0.0443779 0.0775379 0.00997796 0 0 0 -0.0179235 -0.027807 -0.00103895 0.000402762 0.00107887 0.0012687 -0.0179235 -0.027807 -0.00103895 517.155 517.155 1001.23 
155 1 1 0.0651417 0.0771305 0.026518 0 0 0 -0.0891272 0.000410748 0.0222706 6.84515e-05 -0.000390785 0.00106011 -0.0891272 0.000410748 0.0222706 384.017 384.017 1000.91 
156 1 1 0.084176 0.0620074 0.00997721 0 0 0 0.0483283 -0.0126904 0.000315589 0.0015198 0.000710294 -0.000762863 0.0483283 -0.0126904 0.000315589 474.493 474.493 1001.13 
157 1 1 0.141277 0.0725909 0.0223464 0 0 0 -0.145922 0.00633277 0.0263211 -0.000193987 5.86674e-05 -0.000562536 -0.145922 0.00633277 0.0263211 427.559 427.559 1001.01 
158 1 1 0.154015 0.0781105 0.0232862 0 0 0 -0.175282 -0.0125115 0.00228078 0.000260302 -0.000807488 -0.000829993 -0.175282 -0.0125115 0.00228078 440.823 440.823 1001.05 
159 1 1 0.127279 0.0768205 0.00997364 0 0 0 0.0471623 0.00589682 0.000908734 0.000568395 0.000731615 0.00145073 0.0471623 0.00589682 0.000908734 461.922 461.922 1001.1 
160 1 1 0.160483 0.0784096 0.037598 0 0 0 -0.183046 0.0207563 0.0364106 0.000434222 -2.71216e-05 -0.00143294 -0.183046 0.0207563 0.0364106 250.928 250.928 1000.6 
161 1 1 0.00998382 0.0784512 0.0234361 0 0 0 0.00167206 0.00375763 -0.0132444 -0.0012096 0.00247946 0.000267256 0.00167206 0.00375763 -0.0132444 444.722 444.722 1001.06 
162 1 1 0.00996783 0.0772281 0.00999327 0 0 0 0.0188175 -0.00483209 0.0148383 0.00637981 4.65248e-05 -0.0121191 0.0188175 -0.00483209 0.0148383 632.849 632.849 1001.5 
163 1 1 0.0304893 0.0758293 0.02511 0 0 0 -0.0189599 -0.00409066 -0.00063997 0.000237783 0.000333823 0.00075186 -0.0189599 -0.00409066 -0.00063997 425.736 425.736 1001.01 
164 1 1 0.0770342 0.0728537 0.0427771 0 0 0 -0.0970341 -0.0400429 0.0868515 0.000401086 0.000489997 0.00215936 -0.0970341 -0.0400429 0.0868515 205.047 205.047 1000.49 
165 1 1 0.11563 0.0741571 0.0513973 0 0 0 -0.144398 -0.00460912 0.0212836 -0.000779244 0.000784038 -0.000384336 -0.144398 -0.00460912 0.0212836 190.593 190.593 1000.45 
166 1 1 0.109407 0.0771506 0.00997197 0 0 0 0.0704069 -0.00599169 0.0138633 0.000663696 -0.00012706 0.00417878 0.0704069 -0.00599169 0.0138633 484.237 484.237 1001.15 
167 1 1 0.14288 0.0775611 0.0345476 0 0 0 -0.170491 -0.0165709 0.064376 -0.000265208 0.00052993 -0.000798933 -0.170491 -0.0165709 0.064376 297.489 297.489 1000.71 
168 1 1 0.12415 0.064568 0.00997491 0 0 0 0.050201 0.0130613 -0.00213192 0.000490061 -0.000163845 0.000372755 0.050201 0.0130613 -0.00213192 433.372 433.372 1001.03 
169 1 1 0.161481 0.0765288 0.0223218 0 0 0 -0.13479 0.0135947 0.0316304 -0.00078334 0.000501135 -0.00140695 -0.13479 0.0135947 0.0316304 425.909 425.909 1001.01 
170 1 1 0.152975 0.0771438 0.0099745 0 0 0 0.04663 0.00353149 0.00188347 0.000118052 0.00103493 -0.000782703 0.04663 0.00353149 0.00188347 447.905 447.905 1001.06 
171 1 1 0.00997171 0.0900215 0.0100045 0 0 0 0.010062 0.0233811 5.1757e-05 0.00723366 -0.000390628 -0.0313822 0.010062 0.0233811 5.1757e-05 493.863 493.863 1001.17 
172 1 1 0.0205055 0.0900111 0.00998692 0 0 0 0.0112977 0.00667764 -0.00459832 -0.00171479 0.0130631 -0.00558295 0.0112977 0.00667764 -0.00459832 536.494 536.494 1001.27 
173 1 1 0.0321194 0.0900234 0.00998588 0 0 0 0.0122252 0.00307979 0.0308843 0.000672013 -0.000922458 -0.0037669 0.0122252 0.00307979 0.0308843 577.425 577.425 1001.37 
174 1 1 0.040939 0.0900239 0.00997603 0 0 0 0.0125058 -0.00307874 -0.0245324 0.00251065 -0.00243468 0.00566956 0.0125058 -0.00307874 -0.0245324 457.129 457.129 1001.08 
175 1 1 0.0673361 0.0900207 0.00996097 0 0 0 0.0086745 -0.00404313 0.00908055 0.000863451 0.000804031 0.0193376 0.0086745 -0.00404313 0.00908055 527.925 527.925 1001.25 
176 1 1 0.0895924 0.0900183 0.00997064 0 0 0 0.041242 -0.000305285 0.0215527 -0.00055989 0.00115393 0.00917024 0.041242 -0.000305285 0.0215527 508.329 508.329 1001.21 