ITEM: TIMESTEP
54000
ITEM: NUMBER OF ATOMS
2655
ITEM: BOX BOUNDS ff ff ff
0 0.5
0 0.1
0 0.5
ITEM: ATOMS id type type x y z ix iy iz vx vy vz fx fy fz vx vy vz p p rho 
1 1 1 0.00996299 0.0100028 0.00998857 0 0 0 -0.0113403 0.00395439 0.00287796 0.0247336 -0.02534 -0.00417142 -0.0113403 0.00395439 0.00287796 523.274 523.274 1001.24 
2 1 1 0.0316938 0.0099634 0.00998126 0 0 0 -0.00257713 0.00659965 0.0114071 -0.00103275 0.0153931 0.000918272 -0.00257713 0.00659965 0.0114071 552.677 552.677 1001.31 
3 1 1 0.0245033 0.00997751 0.00999283 0 0 0 -0.00180015 -0.00210329 0.0102378 0.000992303 0.00352832 -0.00747711 -0.00180015 -0.00210329 0.0102378 582.439 582.439 1001.38 
4 1 1 0.0676647 0.0099977 0.00997116 0 0 0 -0.0182298 0.00493376 -0.00684522 0.00395369 -0.00841799 0.00494308 -0.0182298 0.00493376 -0.00684522 371.347 371.347 1000.88 
5 1 1 0.0742276 0.00999422 0.0099679 0 0 0 -0.0471685 -0.0047385 0.0147447 0.00234423 -0.00454122 0.00997181 -0.0471685 -0.0047385 0.0147447 387.728 387.728 1000.92 
6 1 1 0.0938722 0.00999819 0.00998651 0 0 0 -0.0412931 0.00161793 0.0104881 0.00297207 -0.00708521 -0.00647249 -0.0412931 0.00161793 0.0104881 304.797 304.797 1000.72 
7 1 1 0.112286 0.00996859 0.0099687 0 0 0 -0.027385 -0.00634989 0.0208799 -0.000566677 0.0242134 0.0115369 -0.027385 -0.00634989 0.0208799 315.411 315.411 1000.75 
8 1 1 0.122579 0.00997859 0.00995517 0 0 0 -0.0984867 0.0277894 0.0169587 -0.000989739 0.0111766 0.0248106 -0.0984867 0.0277894 0.0169587 344.651 344.651 1000.82 
9 1 1 0.134978 0.00996527 0.00996082 0 0 0 -0.0873295 -0.0119467 0.0049226 -0.00253571 0.0232554 0.0164116 -0.0873295 -0.0119467 0.0049226 389.842 389.842 1000.93 
10 1 1 0.152846 0.00998534 0.00997484 0 0 0 -0.114382 0.00154334 -0.0144736 -0.00384068 0.00151835 0.00282955 -0.114382 0.00154334 -0.0144736 436.274 436.274 1001.04 
11 1 1 0.00997176 0.0224979 0.00997776 0 0 0 -0.00189857 -0.0206123 -0.00559776 0.0111153 0.000416035 0.00263184 -0.00189857 -0.0206123 -0.00559776 441.927 441.927 1001.05 
12 1 1 0.0225792 0.0288701 0.0099787 0 0 0 0.0576212 0.00486417 0.00299094 -0.000865193 0.00196767 0.000148635 0.0576212 0.00486417 0.00299094 471.745 471.745 1001.12 
13 1 1 0.027847 0.0201388 0.00998028 0 0 0 -0.0737303 0.0138607 0.00540711 -0.00264633 0.00692984 -0.00119024 -0.0737303 0.0138607 0.00540711 497.479 497.479 1001.18 
14 1 1 0.0905485 0.0220478 0.00998165 0 0 0 0.0343772 0.00593036 0.00232024 0.000223011 0.00166028 -0.00210307 0.0343772 0.00593036 0.00232024 239.664 239.664 1000.57 
15 1 1 0.0780179 0.0230058 0.00997473 0 0 0 -0.0117955 -0.0376283 0.00345566 0.00440967 0.000930962 0.00242758 -0.0117955 -0.0376283 0.00345566 285.914 285.914 1000.68 
16 1 1 0.103876 0.022563 0.00998191 0 0 0 0.0520595 0.0544591 0.000624399 0.00276337 0.000905483 0.000171906 0.0520595 0.0544591 0.000624399 248.105 248.105 1000.59 
17 1 1 0.105076 0.0373484 0.00997131 0 0 0 -0.00321827 0.0439329 -0.00380036 0.00120031 -0.00216943 0.00903719 -0.00321827 0.0439329 -0.00380036 256.393 256.393 1000.61 
18 1 1 0.127561 0.0354607 0.00997587 0 0 0 0.0349623 0.0535031 -0.0111476 -0.00319915 -0.00439941 0.00387945 0.0349623 0.0535031 -0.0111476 178.279 178.279 1000.42 
19 1 1 0.120381 0.0220076 0.0099737 0 0 0 -0.0630248 0.0490419 0.00148606 -0.00322684 0.00566798 0.0067988 -0.0630248 0.0490419 0.00148606 176.138 176.138 1000.42 
20 1 1 0.162065 0.0223407 0.00996436 0 0 0 0.0135455 0.0326526 -0.00192455 -0.000445328 -5.66576e-05 0.0104358 0.0135455 0.0326526 -0.00192455 398.613 398.613 1000.95 
21 1 1 0.00999218 0.0249734 0.00998678 0 0 0 -0.008552 0.0463936 0.00274306 -0.0092133 0.00182445 -0.00656453 -0.008552 0.0463936 0.00274306 430.841 430.841 1001.02 
22 1 1 0.034132 0.0336381 0.00997298 0 0 0 0.0246506 -0.00534571 -0.00113521 -0.000403221 0.0021748 0.00238703 0.0246506 -0.00534571 -0.00113521 399.537 399.537 1000.95 
23 1 1 0.0553358 0.0362188 0.00996896 0 0 0 0.0435741 0.0143859 -0.00193768 0.0030611 0.0030334 0.00575209 0.0435741 0.0143859 -0.00193768 332.491 332.491 1000.79 
24 1 1 0.0825788 0.0327899 0.00998241 0 0 0 -0.0392036 -0.0140366 0.00112685 0.00139784 0.000264902 -0.00344151 -0.0392036 -0.0140366 0.00112685 248.398 248.398 1000.59 
25 1 1 0.0985715 0.0297052 0.00997921 0 0 0 0.0076309 -0.00477035 0.00256589 0.000701368 -0.000705914 0.00155621 0.0076309 -0.00477035 0.00256589 255.284 255.284 1000.61 
26 1 1 0.111675 0.0226088 0.0099804 0 0 0 -0.0528075 -0.0027542 0.00256793 0.00210321 0.00236577 0.00109598 -0.0528075 -0.0027542 0.00256793 201.444 201.444 1000.48 
27 1 1 0.136548 0.0432426 0.00996821 0 0 0 0.0151061 0.0113794 -0.00449306 -0.00398012 -0.00485318 0.00939117 0.0151061 0.0113794 -0.00449306 322.811 322.811 1000.77 
28 1 1 0.110054 0.0299645 0.00997992 0 0 0 -0.0637776 0.0972059 -0.00477103 0.00372758 -0.00184891 0.00140649 -0.0637776 0.0972059 -0.00477103 226.579 226.579 1000.54 
29 1 1 0.148484 0.0235006 0.00996671 0 0 0 -0.0509452 -0.031261 -0.00158667 -0.0027278 0.00141244 0.00824165 -0.0509452 -0.031261 -0.00158667 378.225 378.225 1000.9 
30 1 1 0.155886 0.0337186 0.00996706 0 0 0 -0.0431722 -0.0582257 0.00221061 -0.000604307 0.00324099 0.00842132 -0.0431722 -0.0582257 0.00221061 343.881 343.881 1000.82 
31 1 1 0.00997813 0.0378369 0.00997736 0 0 0 -0.0015243 -0.00161384 0.00173675 0.00803909 -0.00292715 0.000494745 -0.0015243 -0.00161384 0.00173675 417.459 417.459 1000.99 
32 1 1 0.0227986 0.0426415 0.00997955 0 0 0 -0.0104448 -0.0449361 -0.000878368 -0.00274274 -0.000965051 0.000338844 -0.0104448 -0.0449361 -0.000878368 426.372 426.372 1001.01 
33 1 1 0.049908 0.0411902 0.00997437 0 0 0 -0.0345118 -0.0412463 -0.00254221 0.00264579 3.20015e-05 0.00156122 -0.0345118 -0.0412463 -0.00254221 343.535 343.535 1000.82 
34 1 1 0.0695183 0.0362856 0.0099745 0 0 0 0.0331095 -0.00516379 -0.000396324 0.00321494 0.00241263 0.00123566 0.0331095 -0.00516379 -0.000396324 284.086 284.086 1000.68 
35 1 1 0.0739959 0.0410072 0.0099805 0 0 0 0.0309054 -0.0262543 -0.00167798 0.00274254 0.000714313 -0.00355542 0.0309054 -0.0262543 -0.00167798 266.703 266.703 1000.63 
36 1 1 0.0920432 0.0347099 0.00998191 0 0 0 -0.0507813 0.0191288 0.0033495 0.000610911 -0.00225969 -0.00241408 -0.0507813 0.0191288 0.0033495 254.436 254.436 1000.6 
37 1 1 0.125655 0.0389272 0.00997587 0 0 0 -0.0178505 0.00944921 -0.00571994 -0.00267667 -0.00487868 0.00343741 -0.0178505 0.00944921 -0.00571994 217.406 217.406 1000.52 
38 1 1 0.136499 0.0329823 0.00997091 0 0 0 -0.029119 0.0691015 -0.00641523 -0.00757222 -0.000375598 0.00790699 -0.029119 0.0691015 -0.00641523 252.378 252.378 1000.6 
39 1 1 0.144222 0.0461117 0.0099666 0 0 0 0.0159492 -0.0199249 -0.00516872 -0.00215505 -0.00222785 0.009644 0.0159492 -0.0199249 -0.00516872 358.186 358.186 1000.85 
40 1 1 0.163532 0.0391716 0.00998064 0 0 0 0.0566127 0.0197376 0.00692976 0.00243578 0.00376143 -0.00522204 0.0566127 0.0197376 0.00692976 254.029 254.029 1000.6 
41 1 1 0.00998346 0.0500024 0.00997498 0 0 0 0.0104336 -8.75473e-05 0.00392467 0.00455631 -0.000160152 0.00263661 0.0104336 -8.75473e-05 0.00392467 440.595 440.595 1001.05 
42 1 1 0.0406588 0.0500007 0.009982 0 0 0 -0.072377 -0.000108867 -0.00721611 -0.00154837 0.000124732 -0.00166933 -0.072377 -0.000108867 -0.00721611 389.25 389.25 1000.92 
43 1 1 0.0502388 0.0500013 0.00997858 0 0 0 -0.0244939 1.81321e-05 -0.00288121 0.00421123 0.000153213 -0.00124278 -0.0244939 1.81321e-05 -0.00288121 356.094 356.094 1000.85 
44 1 1 0.0683431 0.0500001 0.00997714 0 0 0 -0.026822 -0.000194882 -0.00351877 0.0050553 0.000115946 -0.000638481 -0.026822 -0.000194882 -0.00351877 284.377 284.377 1000.68 
45 1 1 0.0859836 0.0500001 0.00998147 0 0 0 -0.00493214 -0.00024511 0.00148021 -0.000994634 3.81791e-05 -0.0027745 -0.00493214 -0.00024511 0.00148021 263.246 263.246 1000.63 
46 1 1 0.0918861 0.0500006 0.00997643 0 0 0 -0.0306612 -0.000198817 0.00643335 0.000473316 9.90545e-06 0.00214298 -0.0306612 -0.000198817 0.00643335 262.821 262.821 1000.62 
47 1 1 0.0970197 0.05 0.00996915 0 0 0 -0.0426322 -0.000171233 -0.00155092 0.00139801 -1.18855e-05 0.00935807 -0.0426322 -0.000171233 -0.00155092 252.636 252.636 1000.6 
48 1 1 0.126073 0.0500002 0.00996679 0 0 0 0.0303508 2.65474e-05 -0.000263417 -0.00329561 -3.19744e-05 0.00975183 0.0303508 2.65474e-05 -0.000263417 332.517 332.517 1000.79 
49 1 1 0.110038 0.0500003 0.00996857 0 0 0 0.152658 -5.63907e-05 -0.00975226 0.000129302 -3.60545e-05 0.0104768 0.152658 -5.63907e-05 -0.00975226 247.521 247.521 1000.59 
50 1 1 0.163352 0.0500002 0.00998651 0 0 0 -0.00216715 0.000120188 -0.00280098 0.00238563 5.42467e-06 -0.0102961 -0.00216715 0.000120188 -0.00280098 231.012 231.012 1000.55 
51 1 1 0.0099776 0.0621629 0.00998023 0 0 0 0.000398285 0.00107814 0.00107964 0.00849188 0.00221139 -0.00252532 0.000398285 0.00107814 0.00107964 424.828 424.828 1001.01 
52 1 1 0.0227977 0.0573696 0.00998053 0 0 0 -0.0101979 0.0445395 -0.00173507 -0.00252275 0.000824734 -0.000631413 -0.0101979 0.0445395 -0.00173507 425.704 425.704 1001.01 
53 1 1 0.0499093 0.0588116 0.00997454 0 0 0 -0.0345008 0.0411677 -0.00257178 0.00267971 0.000270246 0.00150956 -0.0345008 0.0411677 -0.00257178 340.374 340.374 1000.81 
54 1 1 0.0695184 0.063715 0.00997484 0 0 0 0.0329314 0.00476613 -0.000160032 0.00310053 -0.00209036 0.00106819 0.0329314 0.00476613 -0.000160032 280.496 280.496 1000.67 
55 1 1 0.0739957 0.0589937 0.00998068 0 0 0 0.0307889 0.0258649 -0.00143275 0.00265195 -0.000493713 -0.00363231 0.0307889 0.0258649 -0.00143275 264.842 264.842 1000.63 
56 1 1 0.0920435 0.0652907 0.00998201 0 0 0 -0.0505528 -0.0195464 0.0037518 0.000462308 0.00226264 -0.00249214 -0.0505528 -0.0195464 0.0037518 254.387 254.387 1000.6 
57 1 1 0.125655 0.0610737 0.00997568 0 0 0 -0.0177233 -0.00935306 -0.00577254 -0.00266896 0.00470141 0.00358545 -0.0177233 -0.00935306 -0.00577254 218.1 218.1 1000.52 
58 1 1 0.1365 0.0670178 0.00997077 0 0 0 -0.0289892 -0.0688477 -0.00669211 -0.00747533 0.000178122 0.00798145 -0.0289892 -0.0688477 -0.00669211 254.163 254.163 1000.6 
59 1 1 0.144222 0.0538887 0.00996661 0 0 0 0.0159915 0.020162 -0.00518623 -0.00214386 0.00219952 0.00962665 0.0159915 0.020162 -0.00518623 358.284 358.284 1000.85 
60 1 1 0.163532 0.0608285 0.00998082 0 0 0 0.0565141 -0.0195705 0.00701002 0.00241086 -0.00371622 -0.00540616 0.0565141 -0.0195705 0.00701002 253.734 253.734 1000.6 
61 1 1 0.0099942 0.0750365 0.00998586 0 0 0 -0.00905009 -0.0457458 0.00658323 -0.0114439 -0.0026395 -0.00556313 -0.00905009 -0.0457458 0.00658323 458.499 458.499 1001.09 
62 1 1 0.0341305 0.0663626 0.00997273 0 0 0 0.0247576 0.00484117 -0.0014669 -0.000178458 -0.00237701 0.00270172 0.0247576 0.00484117 -0.0014669 398.579 398.579 1000.95 
63 1 1 0.0553345 0.0637839 0.00996941 0 0 0 0.043332 -0.0145581 -0.00202951 0.00305011 -0.00267904 0.00549636 0.043332 -0.0145581 -0.00202951 327.701 327.701 1000.78 
64 1 1 0.0825786 0.0672108 0.00998272 0 0 0 -0.0392534 0.0135223 0.00166247 0.00119119 -0.000115059 -0.003632 -0.0392534 0.0135223 0.00166247 246.274 246.274 1000.59 
65 1 1 0.0985718 0.0702952 0.00997916 0 0 0 0.00794611 0.00444241 0.00301028 0.000565446 0.000638148 0.00159315 0.00794611 0.00444241 0.00301028 256.627 256.627 1000.61 
66 1 1 0.111676 0.0773918 0.00997988 0 0 0 -0.0521824 0.00258749 0.00277724 0.00192668 -0.00247171 0.00151327 -0.0521824 0.00258749 0.00277724 204.795 204.795 1000.49 
67 1 1 0.136548 0.0567581 0.00996817 0 0 0 0.0151842 -0.01123 -0.00451413 -0.00396269 0.00477966 0.00942268 0.0151842 -0.01123 -0.00451413 322.884 322.884 1000.77 
68 1 1 0.110055 0.0700365 0.0099796 0 0 0 -0.0634067 -0.0973553 -0.00457749 0.00363927 0.0017111 0.00165796 -0.0634067 -0.0973553 -0.00457749 228.673 228.673 1000.54 
69 1 1 0.148482 0.0764996 0.00996684 0 0 0 -0.0509825 0.0313486 -0.00161278 -0.00251809 -0.00149694 0.00808598 -0.0509825 0.0313486 -0.00161278 378.916 378.916 1000.9 
70 1 1 0.155886 0.0662813 0.00996731 0 0 0 -0.0431797 0.0583751 0.0022864 -0.000537267 -0.00321168 0.00818673 -0.0431797 0.0583751 0.0022864 342.813 342.813 1000.81 
71 1 1 0.00997247 0.0775052 0.00997733 0 0 0 -0.00119979 0.0218144 -0.00274188 0.0101757 -0.00111971 0.0031438 -0.00119979 0.0218144 -0.00274188 472.661 472.661 1001.12 
72 1 1 0.0225747 0.071132 0.00997685 0 0 0 0.0581358 -0.00523842 0.00541536 -0.000168391 -0.00211933 0.00224879 0.0581358 -0.00523842 0.00541536 477.072 477.072 1001.13 
73 1 1 0.02784 0.0798616 0.00997903 0 0 0 -0.0738919 -0.0130036 0.00655373 -0.00237049 -0.00633082 0.000179061 -0.0738919 -0.0130036 0.00655373 497.6 497.6 1001.18 
74 1 1 0.0905484 0.0779526 0.00998185 0 0 0 0.0346086 -0.0062671 0.0034651 -0.000102459 -0.00166227 -0.00223226 0.0346086 -0.0062671 0.0034651 239.694 239.694 1000.57 
75 1 1 0.0780178 0.0769935 0.00997549 0 0 0 -0.0118881 0.0371942 0.00428882 0.00405029 -0.000788294 0.00195424 -0.0118881 0.0371942 0.00428882 280.416 280.416 1000.67 
76 1 1 0.103876 0.0774378 0.00998155 0 0 0 0.052493 -0.0547391 0.00104809 0.00265802 -0.000988579 0.000479213 0.052493 -0.0547391 0.00104809 250.851 250.851 1000.6 
77 1 1 0.105075 0.0626523 0.00997124 0 0 0 -0.00301791 -0.0441744 -0.00361226 0.00115918 0.0020872 0.00907147 -0.00301791 -0.0441744 -0.00361226 257.509 257.509 1000.61 
78 1 1 0.12756 0.0645405 0.00997563 0 0 0 0.0350714 -0.0533019 -0.011355 -0.00316675 0.0041594 0.0040474 0.0350714 -0.0533019 -0.011355 179.906 179.906 1000.43 
79 1 1 0.120382 0.0779946 0.00997329 0 0 0 -0.062346 -0.0489381 0.00107902 -0.0034479 -0.00582048 0.00700881 -0.062346 -0.0489381 0.00107902 182.863 182.863 1000.43 
80 1 1 0.162064 0.0776597 0.00996452 0 0 0 0.0133951 -0.0326653 -0.00172383 -0.00044701 -2.14847e-05 0.0102892 0.0133951 -0.0326653 -0.00172383 397.408 397.408 1000.94 
81 1 1 0.00999023 0.0900085 0.00998619 0 0 0 -0.0321792 -0.0128812 0.0014787 -0.00242196 0.00237531 -0.00186202 -0.0321792 -0.0128812 0.0014787 567.913 567.913 1001.35 
82 1 1 0.0317162 0.0900399 0.00998484 0 0 0 -0.00323246 -0.00817958 0.0106393 -0.000976936 -0.0187895 -0.00270994 -0.00323246 -0.00817958 0.0106393 539.337 539.337 1001.28 
83 1 1 0.0245107 0.0900241 0.00997546 0 0 0 -0.00132704 0.00287948 0.00583223 0.00236913 -0.00509188 0.00981757 -0.00132704 0.00287948 0.00583223 566.728 566.728 1001.34 
84 1 1 0.0676814 0.0900021 0.00997282 0 0 0 -0.0182348 -0.00532305 -0.00678448 0.00364478 0.00839203 0.00376532 -0.0182348 -0.00532305 -0.00678448 357.002 357.002 1000.85 
85 1 1 0.07422 0.0900057 0.00996914 0 0 0 -0.0479351 0.00404652 0.0153662 0.00191239 0.00437401 0.00911735 -0.0479351 0.00404652 0.0153662 377.13 377.13 1000.9 
86 1 1 0.0938714 0.0900018 0.00998615 0 0 0 -0.0409093 -0.00265313 0.0114602 0.00264114 0.00714506 -0.00609061 -0.0409093 -0.00265313 0.0114602 306.537 306.537 1000.73 
87 1 1 0.112286 0.0900309 0.00996817 0 0 0 -0.0267368 0.00722465 0.0213012 -0.000709399 -0.0235152 0.0119589 -0.0267368 0.00722465 0.0213012 319.812 319.812 1000.76 
88 1 1 0.122579 0.0900217 0.0099548 0 0 0 -0.0975669 -0.0269128 0.0167835 -0.00110416 -0.0111938 0.0250287 -0.0975669 -0.0269128 0.0167835 352.731 352.731 1000.84 
89 1 1 0.134977 0.0900348 0.00996068 0 0 0 -0.087505 0.0123635 0.00430747 -0.00231405 -0.0231524 0.0164 -0.087505 0.0123635 0.00430747 398.19 398.19 1000.95 
90 1 1 0.152846 0.0900146 0.00997499 0 0 0 -0.114476 -0.00166808 -0.0145212 -0.00371313 -0.00143559 0.00265063 -0.114476 -0.00166808 -0.0145212 437.374 437.374 1001.04 
91 1 1 0.009986 0.00998691 0.00998432 0 0 0 0.0164714 -0.00758075 0.0261553 0.00162004 0.00259416 2.30887e-05 0.0164714 -0.00758075 0.0261553 523.412 523.412 1001.24 
92 1 1 0.0218736 0.00997376 0.00999827 0 0 0 0.0130515 -0.00366962 0.00556834 -0.0014171 0.00858908 -0.0127198 0.0130515 -0.00366962 0.00556834 578.399 578.399 1001.37 
93 1 1 0.038031 0.00998908 0.00997097 0 0 0 -0.0142748 0.0166875 -0.00225919 -0.00183677 -0.0083688 0.00855698 -0.0142748 0.0166875 -0.00225919 505.848 505.848 1001.2 
94 1 1 0.048748 0.00998119 0.0099625 0 0 0 -0.0594844 -0.00942015 0.0106272 -0.000455997 0.00217433 0.0155833 -0.0594844 -0.00942015 0.0106272 481.42 481.42 1001.14 
95 1 1 0.078939 0.00998782 0.00997611 0 0 0 -0.0317748 -0.00817113 0.0180645 0.00389552 0.00300903 0.00295986 -0.0317748 -0.00817113 0.0180645 380.294 380.294 1000.9 
96 1 1 0.105974 0.00998717 0.00998599 0 0 0 -0.0589956 0.00869906 0.00137629 0.00153756 0.00460162 -0.00631921 -0.0589956 0.00869906 0.00137629 321.655 321.655 1000.76 
97 1 1 0.118267 0.00997776 0.00996949 0 0 0 -0.0182153 -0.00885973 0.00335065 -0.0032218 0.0137127 0.0107329 -0.0182153 -0.00885973 0.00335065 319.56 319.56 1000.76 
98 1 1 0.130297 0.00997006 0.00995225 0 0 0 -0.0293681 0.0251233 0.0124325 -0.00524685 0.0187752 0.0261065 -0.0293681 0.0251233 0.0124325 387.077 387.077 1000.92 
99 1 1 0.140812 0.0099659 0.00996836 0 0 0 -0.080674 -0.00696757 0.0132719 -0.00155939 0.0206268 0.00933395 -0.080674 -0.00696757 0.0132719 395.436 395.436 1000.94 
100 1 1 0.146696 0.00997335 0.00998266 0 0 0 -0.0217216 0.00520981 -0.00742375 -0.00237731 0.0124319 -0.00487477 -0.0217216 0.00520981 -0.00742375 417.506 417.506 1000.99 
101 1 1 0.00997451 0.0175849 0.0246412 0 0 0 0.00754969 0.0231791 0.0271395 0.0141427 0.00096218 -0.000715106 0.00754969 0.0231791 0.0271395 341.152 341.152 1000.81 
102 1 1 0.0203313 0.0219623 0.00998108 0 0 0 -0.0187798 0.0227433 0.00338576 0.00104933 0.00342177 -0.000554156 -0.0187798 0.0227433 0.00338576 498.964 498.964 1001.18 
103 1 1 0.0490964 0.0212817 0.0229934 0 0 0 -0.0919068 -0.0047053 0.00739475 -0.000415127 0.0013856 -0.00058247 -0.0919068 -0.0047053 0.00739475 321.489 321.489 1000.76 
104 1 1 0.0904857 0.0237551 0.0284715 0 0 0 -0.0502198 -0.000614949 0.0140494 0.0019826 -0.000466578 -0.00328613 -0.0502198 -0.000614949 0.0140494 149.601 149.601 1000.36 
105 1 1 0.127851 0.0194936 0.042414 0 0 0 0.0282391 0.0254545 0.031623 -0.00158343 0.00122116 -0.00352934 0.0282391 0.0254545 0.031623 56.8683 56.8683 1000.14 
106 1 1 0.127467 0.0203307 0.0101625 0 0 0 -0.017249 0.0296223 0.126855 -0.00329888 0.00737511 -0.0308241 -0.017249 0.0296223 0.126855 279.074 279.074 1000.66 
107 1 1 0.172861 0.0211236 0.0188635 0 0 0 0.0785016 -0.0464862 0.00928241 -0.00314002 0.00237229 -3.1977e-05 0.0785016 -0.0464862 0.00928241 365.553 365.553 1000.87 
108 1 1 0.137526 0.0251778 0.00996861 0 0 0 0.0565994 0.0189697 -0.00593383 -0.00777079 0.00202917 0.00832806 0.0565994 0.0189697 -0.00593383 303.707 303.707 1000.72 
109 1 1 0.188934 0.0240844 0.0237902 0 0 0 0.0557384 0.00812702 -0.0433741 -0.00107659 5.86137e-05 -0.000338252 0.0557384 0.00812702 -0.0433741 379.315 379.315 1000.9 
110 1 1 0.186528 0.0217969 0.00996925 0 0 0 0.0332108 -0.0391447 -0.00326882 -0.0036139 0.00268333 0.00265775 0.0332108 -0.0391447 -0.00326882 494.674 494.674 1001.17 
111 1 1 0.00998149 0.0308785 0.00997863 0 0 0 -0.00570335 0.00389666 -0.00209768 0.00318884 0.00110261 0.000879795 -0.00570335 0.00389666 -0.00209768 418.62 418.62 1000.99 
112 1 1 0.0201234 0.0219661 0.0260622 0 0 0 -0.011138 -0.0133474 0.0111189 0.00111589 -0.000692175 0.00261389 -0.011138 -0.0133474 0.0111189 303.942 303.942 1000.72 
113 1 1 0.0446252 0.0324372 0.00997471 0 0 0 -0.0389487 -0.010046 -0.00192402 0.000412216 0.00264175 0.000900527 -0.0389487 -0.010046 -0.00192402 363.916 363.916 1000.86 
114 1 1 0.0506999 0.0209318 0.00996713 0 0 0 0.0443557 -0.0154087 0.00257052 0.00238125 0.00285343 0.00676288 0.0443557 -0.0154087 0.00257052 408.365 408.365 1000.97 
115 1 1 0.0907348 0.02305 0.0212652 0 0 0 -0.0658281 0.0536709 0.0283819 0.00284167 -0.000333238 -0.00292299 -0.0658281 0.0536709 0.0283819 185.634 185.634 1000.44 
116 1 1 0.101965 0.0416323 0.00996922 0 0 0 -0.0849259 0.00303084 -0.00388806 -0.000101314 -0.00174221 0.010533 -0.0849259 0.00303084 -0.00388806 247.399 247.399 1000.59 
117 1 1 0.168915 0.0301422 0.0257455 0 0 0 0.049758 -0.0168518 0.0177328 -0.0022951 0.00244124 -0.00237877 0.049758 -0.0168518 0.0177328 274.871 274.871 1000.65 
118 1 1 0.184262 0.0223167 0.0220669 0 0 0 0.0900155 -0.0106122 0.000909723 -0.00293144 -0.00085383 -0.000435283 0.0900155 -0.0106122 0.000909723 385.189 385.189 1000.91 
119 1 1 0.154204 0.0230641 0.00996745 0 0 0 -0.00513012 -0.0698328 -0.00153283 -0.0015214 -0.000246563 0.00790691 -0.00513012 -0.0698328 -0.00153283 395.405 395.405 1000.94 
120 1 1 0.197618 0.0215581 0.0196308 0 0 0 0.068912 -0.00690115 0.0939984 0.000936257 -0.00153001 0.000203764 0.068912 -0.00690115 0.0939984 431.944 431.944 1001.03 
121 1 1 0.00997889 0.0412478 0.00997852 0 0 0 -0.0147831 0.00181561 -0.00680351 0.00791951 -0.000657984 -0.00083661 -0.0147831 0.00181561 -0.00680351 423.56 423.56 1001.01 
122 1 1 0.0221358 0.0360629 0.00998305 0 0 0 -0.0199896 0.0114213 0.00387162 -0.000867125 1.02701e-05 -0.00443486 -0.0199896 0.0114213 0.00387162 442.481 442.481 1001.05 
123 1 1 0.0339372 0.0279189 0.0099732 0 0 0 -0.0157938 -0.0129612 0.00869316 -0.000329783 0.000922145 0.00102499 -0.0157938 -0.0129612 0.00869316 416.296 416.296 1000.99 
124 1 1 0.0694908 0.0297652 0.0099699 0 0 0 0.019415 -0.00776738 0.00329442 0.00473548 0.00199065 0.00597741 0.019415 -0.00776738 0.00329442 305.427 305.427 1000.73 
125 1 1 0.0812584 0.0410379 0.00998257 0 0 0 -0.0109805 0.00709822 0.000509851 0.00124426 -0.00143379 -0.00353287 -0.0109805 0.00709822 0.000509851 258.596 258.596 1000.61 
126 1 1 0.116154 0.0356296 0.00997656 0 0 0 0.0502396 0.0297812 -0.00844699 0.00166482 -0.00413708 0.00419057 0.0502396 0.0297812 -0.00844699 215.132 215.132 1000.51 
127 1 1 0.147564 0.0375348 0.00996733 0 0 0 0.0528583 -0.0682542 -0.00166114 -0.00141059 -0.000444044 0.00890525 0.0528583 -0.0682542 -0.00166114 350.193 350.193 1000.83 
128 1 1 0.142995 0.0336869 0.00996892 0 0 0 0.0324678 -0.00575285 -0.00210196 -0.00441057 -0.000146778 0.00888907 0.0324678 -0.00575285 -0.00210196 320.304 320.304 1000.76 
129 1 1 0.141327 0.0203982 0.00996549 0 0 0 -0.0711182 -0.0212161 0.00218627 -0.00450921 0.00463717 0.0106981 -0.0711182 -0.0212161 0.00218627 362.059 362.059 1000.86 
130 1 1 0.180253 0.0301984 0.0099741 0 0 0 0.0111867 -0.0175525 -0.00113674 -0.00324972 0.00240326 -0.00117119 0.0111867 -0.0175525 -0.00113674 384.974 384.974 1000.91 
131 1 1 0.00999162 0.0499898 0.009983 0 0 0 0.00988153 -0.000836252 -0.00519661 -0.00359999 -0.000205014 -0.00540395 0.00988153 -0.000836252 -0.00519661 440.562 440.562 1001.05 
132 1 1 0.0231543 0.0500037 0.00998142 0 0 0 0.0286039 -0.00039415 -0.000252558 -0.00300178 -6.09093e-06 -0.00184215 0.0286039 -0.00039415 -0.000252558 424.358 424.358 1001.01 
133 1 1 0.0419479 0.0500007 0.00997223 0 0 0 0.0127161 -9.5461e-05 0.0136062 0.00179419 0.000131353 0.00794594 0.0127161 -9.5461e-05 0.0136062 387.041 387.041 1000.92 
134 1 1 0.0780187 0.0500004 0.00998289 0 0 0 -0.0480759 -0.000244363 -0.00325688 0.00100564 8.12259e-05 -0.00448985 -0.0480759 -0.000244363 -0.00325688 261.457 261.457 1000.62 
135 1 1 0.120236 0.0500004 0.00995972 0 0 0 0.0262284 9.92635e-06 -0.0155875 -0.00231746 -3.44096e-05 0.0183249 0.0262284 9.92635e-06 -0.0155875 309.434 309.434 1000.74 
136 1 1 0.133252 0.0500001 0.0196848 0 0 0 -0.0117187 4.54864e-05 0.0334084 -0.00312676 -1.50442e-05 -0.000790859 -0.0117187 4.54864e-05 0.0334084 288.633 288.633 1000.69 
137 1 1 0.164623 0.05 0.0220783 0 0 0 0.0221753 8.90101e-05 0.011519 -3.74972e-05 -2.70699e-06 -0.00644655 0.0221753 8.90101e-05 0.011519 255.923 255.923 1000.61 
138 1 1 0.133281 0.0500002 0.00996539 0 0 0 0.0586345 5.84829e-05 -0.00470563 -0.00312109 -2.48867e-05 0.0107412 0.0586345 5.84829e-05 -0.00470563 350.191 350.191 1000.83 
139 1 1 0.153211 0.0500003 0.00997001 0 0 0 -0.0202677 0.000145924 -0.00757679 0.00550646 5.75957e-07 0.00494265 -0.0202677 0.000145924 -0.00757679 331.631 331.631 1000.79 
140 1 1 0.206022 0.05 0.0249945 0 0 0 0.124909 -2.37887e-05 0.00501434 0.000388647 -2.41753e-06 -1.57001e-06 0.124909 -2.37887e-05 0.00501434 331.921 331.921 1000.79 
141 1 1 0.00997678 0.0587489 0.0099801 0 0 0 -0.014525 -0.00270094 -0.00823712 0.0100159 4.11551e-05 -0.00254714 -0.014525 -0.00270094 -0.00823712 427.075 427.075 1001.01 
142 1 1 0.0221341 0.0639453 0.009984 0 0 0 -0.0194237 -0.0115571 0.00372567 -0.000390512 -0.000328304 -0.00528504 -0.0194237 -0.0115571 0.00372567 444.292 444.292 1001.05 
143 1 1 0.0339335 0.072088 0.00997224 0 0 0 -0.0159594 0.0124974 0.00808309 -0.000135694 -0.00101402 0.00196911 -0.0159594 0.0124974 0.00808309 420.16 420.16 1001 
144 1 1 0.0694906 0.0702358 0.00997071 0 0 0 0.0191493 0.00734866 0.0035144 0.00454821 -0.00168492 0.00545237 0.0191493 0.00734866 0.0035144 299.333 299.333 1000.71 
145 1 1 0.0812577 0.0589626 0.00998274 0 0 0 -0.0110337 -0.00757634 0.000737293 0.0011465 0.00155902 -0.00364606 -0.0110337 -0.00757634 0.000737293 257.411 257.411 1000.61 
146 1 1 0.116154 0.0643712 0.00997634 0 0 0 0.0504374 -0.0298309 -0.00838857 0.00161879 0.00395976 0.00435611 0.0504374 -0.0298309 -0.00838857 216.612 216.612 1000.51 
147 1 1 0.147564 0.0624658 0.00996742 0 0 0 0.0529126 0.0684477 -0.00170355 -0.00133203 0.000412007 0.00880752 0.0529126 0.0684477 -0.00170355 350.44 350.44 1000.83 
148 1 1 0.142994 0.0663143 0.00996892 0 0 0 0.0325467 0.00596906 -0.00221351 -0.00429229 4.00902e-05 0.00885605 0.0325467 0.00596906 -0.00221351 321.146 321.146 1000.76 
149 1 1 0.141327 0.0796012 0.00996543 0 0 0 -0.0712497 0.0214282 0.00180468 -0.00424025 -0.00477624 0.010657 -0.0712497 0.0214282 0.00180468 365.679 365.679 1000.87 
150 1 1 0.180253 0.0698018 0.00997406 0 0 0 0.0110816 0.0176016 -0.00109395 -0.00327811 -0.00241363 -0.00115618 0.0110816 0.0176016 -0.00109395 385.504 385.504 1000.92 
151 1 1 0.00998306 0.0691174 0.00998042 0 0 0 -0.00892506 -0.00443856 0.000684444 0.0014511 -0.0019366 -0.000961178 -0.00892506 -0.00443856 0.000684444 437.539 437.539 1001.04 
152 1 1 0.0201199 0.0780138 0.0261607 0 0 0 -0.0106447 0.0134515 0.0139609 0.00140767 0.000239448 0.00288411 -0.0106447 0.0134515 0.0139609 286.31 286.31 1000.68 
153 1 1 0.0446254 0.067564 0.00997441 0 0 0 -0.0385325 0.00968734 -0.00248824 0.000785181 -0.00258189 0.00130934 -0.0385325 0.00968734 -0.00248824 358.575 358.575 1000.85 
154 1 1 0.0507028 0.0790602 0.00996796 0 0 0 0.0443777 0.014788 0.00174322 0.00269989 -0.00259882 0.00616489 0.0443777 0.014788 0.00174322 397.565 397.565 1000.94 
155 1 1 0.0907347 0.0769506 0.0212651 0 0 0 -0.0656279 -0.053964 0.0288325 0.002548 0.000375733 -0.00279316 -0.0656279 -0.053964 0.0288325 184.56 184.56 1000.44 
156 1 1 0.101965 0.0583683 0.00996921 0 0 0 -0.0848001 -0.00330595 -0.00375344 -0.000141403 0.0016843 0.0105258 -0.0848001 -0.00330595 -0.00375344 248.05 248.05 1000.59 
157 1 1 0.168915 0.069858 0.0257457 0 0 0 0.049645 0.0169417 0.0176788 -0.00232619 -0.00243756 -0.00238606 0.049645 0.0169417 0.0176788 274.886 274.886 1000.65 
158 1 1 0.184261 0.0776835 0.0220669 0 0 0 0.0898954 0.0106556 0.000888418 -0.00293962 0.000824639 -0.000411331 0.0898954 0.0106556 0.000888418 385.91 385.91 1000.92 
159 1 1 0.154204 0.0769362 0.00996766 0 0 0 -0.00519271 0.0698528 -0.00144495 -0.00138908 0.00016575 0.00769939 -0.00519271 0.0698528 -0.00144495 394.802 394.802 1000.94 
160 1 1 0.197618 0.078442 0.0196308 0 0 0 0.0687956 0.00690223 0.0939899 0.000946166 0.00148419 0.000246266 0.0687956 0.00690223 0.0939899 432.596 432.596 1001.03 
161 1 1 0.00999059 0.0822596 0.0246626 0 0 0 -0.0210023 -0.0293467 0.0277767 -0.00187429 -0.00241977 0.000126173 -0.0210023 -0.0293467 0.0277767 338.797 338.797 1000.8 
162 1 1 0.0203194 0.0780397 0.00997784 0 0 0 -0.0181103 -0.0219204 0.00548508 0.00255427 -0.00341292 0.00295776 -0.0181103 -0.0219204 0.00548508 506.087 506.087 1001.2 
163 1 1 0.0490926 0.0787141 0.0229878 0 0 0 -0.0919467 0.00499681 0.00839341 -6.66782e-05 -0.00106852 -0.000561238 -0.0919467 0.00499681 0.00839341 320.09 320.09 1000.76 
164 1 1 0.0904849 0.0762455 0.0284719 0 0 0 -0.0502292 0.000379729 0.0147568 0.00178623 0.00057502 -0.00315669 -0.0502292 0.000379729 0.0147568 146.913 146.913 1000.35 
165 1 1 0.12785 0.0805091 0.0424142 0 0 0 0.0281995 -0.0253379 0.0315773 -0.00181331 -0.00119164 -0.00355994 0.0281995 -0.0253379 0.0315773 53.8421 53.8421 1000.13 
166 1 1 0.12747 0.0796681 0.01016 0 0 0 -0.0167785 -0.0291913 0.127639 -0.00320575 -0.00753809 -0.0313641 -0.0167785 -0.0291913 0.127639 288.371 288.371 1000.69 
167 1 1 0.172861 0.0788766 0.0188632 0 0 0 0.0783691 0.04652 0.00924961 -0.00319648 -0.00241148 -4.54092e-05 0.0783691 0.04652 0.00924961 365.911 365.911 1000.87 
168 1 1 0.137521 0.0748249 0.00996846 0 0 0 0.0564384 -0.0186327 -0.00648761 -0.00756217 -0.0022047 0.00834294 0.0564384 -0.0186327 -0.00648761 307.931 307.931 1000.73 
169 1 1 0.188933 0.0759157 0.0237902 0 0 0 0.055637 -0.00810051 -0.0433899 -0.00106885 -8.68653e-05 -0.000306562 0.055637 -0.00810051 -0.0433899 379.833 379.833 1000.9 
170 1 1 0.186528 0.0782032 0.00996915 0 0 0 0.0331069 0.0391831 -0.0032777 -0.00363655 -0.00272361 0.00272792 0.0331069 0.0391831 -0.0032777 495.616 495.616 1001.18 
171 1 1 0.00996452 0.0900143 0.00998334 0 0 0 0.00148472 0.0121045 0.0213821 0.0233211 -0.00337122 0.0009717 0.00148472 0.0121045 0.0213821 567.949 567.949 1001.35 
172 1 1 0.0218606 0.0900226 0.00997848 0 0 0 0.0136975 0.00385532 0.0106854 0.000909021 -0.00481967 0.00690342 0.0136975 0.00385532 0.0106854 569.605 569.605 1001.35 
173 1 1 0.0380325 0.0900123 0.00997186 0 0 0 -0.0148067 -0.0138075 -0.0017936 -0.00166117 0.00692498 0.0077031 -0.0148067 -0.0138075 -0.0017936 496.922 496.922 1001.18 
174 1 1 0.0487496 0.0900196 0.00996321 0 0 0 -0.0592794 0.00920475 0.00972215 -0.000133766 -0.00327733 0.0150548 -0.0592794 0.00920475 0.00972215 468.353 468.353 1001.11 
175 1 1 0.0789377 0.090011 0.0099769 0 0 0 -0.0317071 0.00739522 0.0188434 0.00338774 -0.00200456 0.00245278 -0.0317071 0.00739522 0.0188434 373.308 373.308 1000.89 
176 1 1 0.105974 0.0900126 0.00998538 0 0 0 -0.0584943 -0.00933526 0.00185962 0.00143716 -0.00430598 -0.00580638 -0.0584943 -0.00933526 0.00185962 326.17 326.17 1000.77 
177 1 1 0.118268 0.0900225 0.0099691 0 0 0 -0.0173211 0.00928944 0.00344302 -0.0034283 -0.0137605 0.0109957 -0.0173211 0.00928944 0.00344302 325.555 325.555 1000.77 