ITEM: TIMESTEP
125000
ITEM: NUMBER OF ATOMS
2655
ITEM: BOX BOUNDS ff ff ff
0 0.5
0 0.1
0 0.5
ITEM: ATOMS id type type x y z ix iy iz vx vy vz fx fy fz vx vy vz p p rho 
1 1 1 0.00997576 0.00999717 0.00995365 0 0 0 -0.0138095 0.00955842 -0.00689778 0.00793483 -0.0149715 0.0223097 -0.0138095 0.00955842 -0.00689778 472.073 472.073 1001.12 
2 1 1 0.0282433 0.0099795 0.00997168 0 0 0 0.0215551 0.00779209 -0.0172879 0.000628462 0.00233975 -0.00270224 0.0215551 0.00779209 -0.0172879 394.557 394.557 1000.94 
3 1 1 0.0233903 0.00998522 0.0099577 0 0 0 0.00896416 0.0117488 -0.00975838 0.000924907 -0.00362538 0.0111777 0.00896416 0.0117488 -0.00975838 413.932 413.932 1000.98 
4 1 1 0.0615164 0.00997262 0.00998054 0 0 0 -0.0100061 0.00275443 -0.014188 0.000787954 0.0101484 -0.0106882 -0.0100061 0.00275443 -0.014188 399.849 399.849 1000.95 
5 1 1 0.0662746 0.00998465 0.00996777 0 0 0 0.0241795 -0.00270268 0.00734856 0.00165226 -0.00126162 0.0018923 0.0241795 -0.00270268 0.00734856 402.378 402.378 1000.96 
6 1 1 0.0849697 0.00998283 0.00996635 0 0 0 0.0290423 0.008286 -0.0156191 0.00226765 0.000345543 0.00579026 0.0290423 0.008286 -0.0156191 377.918 377.918 1000.9 
7 1 1 0.0993213 0.00999011 0.00996227 0 0 0 0.05068 -0.0023873 0.00534738 0.000568065 -0.0064002 0.00827692 0.05068 -0.0023873 0.00534738 406.498 406.498 1000.97 
8 1 1 0.109161 0.00998155 0.00997524 0 0 0 0.0803539 -0.00224479 0.00186118 0.000737367 0.00238931 -0.00448453 0.0803539 -0.00224479 0.00186118 357.716 357.716 1000.85 
9 1 1 0.118936 0.00998072 0.00997643 0 0 0 0.0674581 0.00104841 -0.00521644 -0.000834747 0.00322299 -0.00442102 0.0674581 0.00104841 -0.00521644 376.655 376.655 1000.89 
10 1 1 0.133696 0.00998177 0.00997393 0 0 0 0.0789525 0.00455115 -0.00514582 -0.000981357 0.00197895 -0.00143656 0.0789525 0.00455115 -0.00514582 389.245 389.245 1000.92 
11 1 1 0.00998949 0.0210656 0.00996068 0 0 0 -0.00125308 -0.000729339 -0.0161913 -0.00784174 0.00164176 0.010574 -0.00125308 -0.000729339 -0.0161913 461.422 461.422 1001.1 
12 1 1 0.0315367 0.0344221 0.00996518 0 0 0 0.016354 -0.0160776 -0.00250841 -0.000314259 0.000181855 0.000993384 0.016354 -0.0160776 -0.00250841 408.987 408.987 1000.97 
13 1 1 0.0222086 0.0231011 0.00996507 0 0 0 -0.000953246 -0.00761105 0.00235128 -0.00127357 0.00021532 -0.000556811 -0.000953246 -0.00761105 0.00235128 467.307 467.307 1001.11 
14 1 1 0.0812386 0.0220507 0.0099687 0 0 0 0.0123628 -0.000151772 0.000319649 -0.00106298 0.00106992 -0.000267941 0.0123628 -0.000151772 0.000319649 409.68 409.68 1000.97 
15 1 1 0.0656781 0.0222705 0.00996817 0 0 0 -0.00142734 0.00771532 -0.00240089 0.000144208 -0.000629008 -0.000723822 -0.00142734 0.00771532 -0.00240089 382.7 382.7 1000.91 
16 1 1 0.0937582 0.0241968 0.00996642 0 0 0 0.0833191 -0.0208688 0.000442399 0.00120677 -0.00141973 0.000195293 0.0833191 -0.0208688 0.000442399 368.302 368.302 1000.87 
17 1 1 0.0960819 0.041737 0.00996737 0 0 0 0.0617975 0.00122038 1.93575e-05 0.000702763 -0.00048683 -0.000101484 0.0617975 0.00122038 1.93575e-05 369.051 369.051 1000.88 
18 1 1 0.124216 0.0322965 0.00996855 0 0 0 0.0861737 0.00373744 0.00036495 0.000388096 -0.000525483 7.87176e-05 0.0861737 0.00373744 0.00036495 390.021 390.021 1000.93 
19 1 1 0.106504 0.0230626 0.00996975 0 0 0 0.0553288 0.0110897 0.000759759 0.000885539 0.00024127 -0.00203905 0.0553288 0.0110897 0.000759759 378.584 378.584 1000.9 
20 1 1 0.144503 0.022096 0.00997035 0 0 0 0.075622 -0.0039736 0.000759722 0.000179943 3.07802e-06 0.00147895 0.075622 -0.0039736 0.000759722 387.908 387.908 1000.92 
21 1 1 0.00997897 0.0281648 0.00996924 0 0 0 -0.00758519 0.0155258 0.00413726 0.00264079 -7.48611e-05 0.000642065 -0.00758519 0.0155258 0.00413726 463.539 463.539 1001.1 
22 1 1 0.0376023 0.0364794 0.00996569 0 0 0 0.0246227 -0.0207258 -0.000493168 -5.36503e-05 0.00023779 0.000543436 0.0246227 -0.0207258 -0.000493168 417.26 417.26 1000.99 
23 1 1 0.0582629 0.0425389 0.00996574 0 0 0 0.0253698 -0.0124303 -0.000173157 0.000187533 0.00141693 0.000451186 0.0253698 -0.0124303 -0.000173157 404.72 404.72 1000.96 
24 1 1 0.0797407 0.0296579 0.00996735 0 0 0 0.0523802 -0.0103994 -0.00123071 -0.00013902 0.000685867 -0.000433453 0.0523802 -0.0103994 -0.00123071 388.857 388.857 1000.92 
25 1 1 0.101249 0.0375766 0.00996771 0 0 0 0.0761965 -0.00036985 -0.000417934 0.000530858 5.91848e-06 -0.000400094 0.0761965 -0.00036985 -0.000417934 359.593 359.593 1000.85 
26 1 1 0.101056 0.0216382 0.0099676 0 0 0 0.0583508 -0.00960219 0.00035613 -0.00119048 0.00092827 -0.000415355 0.0583508 -0.00960219 0.00035613 398.214 398.214 1000.95 
27 1 1 0.122741 0.0449981 0.00996976 0 0 0 0.0719309 0.0146402 -0.000103484 0.000809143 -5.70874e-05 -0.000300631 0.0719309 0.0146402 -0.000103484 355.66 355.66 1000.84 
28 1 1 0.101741 0.0314034 0.00996739 0 0 0 0.0959966 -0.014732 -0.000925294 0.00101155 -0.000123875 1.29573e-05 0.0959966 -0.014732 -0.000925294 376.691 376.691 1000.89 
29 1 1 0.131471 0.0218974 0.00997061 0 0 0 0.106373 0.0138114 -0.000901741 -9.71198e-05 0.000538604 -0.000577666 0.106373 0.0138114 -0.000901741 355.524 355.524 1000.84 
30 1 1 0.136649 0.0304991 0.00996991 0 0 0 0.0735848 0.00783256 0.000356215 -0.000496326 -0.000113603 -7.27906e-05 0.0735848 0.00783256 0.000356215 388.262 388.262 1000.92 
31 1 1 0.00997791 0.0381299 0.00997724 0 0 0 0.00028081 0.00256874 0.000107979 0.00429271 0.000220863 -0.0051342 0.00028081 0.00256874 0.000107979 485.934 485.934 1001.15 
32 1 1 0.0233489 0.0423898 0.00996601 0 0 0 -0.00439016 -0.00475594 -0.00145825 0.000201733 0.000293905 -2.64972e-05 -0.00439016 -0.00475594 -0.00145825 433.589 433.589 1001.03 
33 1 1 0.0479298 0.0423303 0.00996526 0 0 0 0.0216489 -0.00717488 -0.000681356 0.000173521 -0.000117764 0.000336316 0.0216489 -0.00717488 -0.000681356 395.007 395.007 1000.94 
34 1 1 0.0650086 0.0354524 0.00996655 0 0 0 0.0385141 0.0069533 -0.000732341 0.00147667 0.000253361 0.000224037 0.0385141 0.0069533 -0.000732341 420.592 420.592 1001 
35 1 1 0.0701144 0.040639 0.00996786 0 0 0 0.0425329 0.0110747 -0.000666251 0.00167975 -0.000574428 0.000162054 0.0425329 0.0110747 -0.000666251 383.312 383.312 1000.91 
36 1 1 0.0909942 0.0305827 0.00996798 0 0 0 0.0584827 0.0104009 -0.00131526 0.0012896 0.000169855 -0.000223919 0.0584827 0.0104009 -0.00131526 370.238 370.238 1000.88 
37 1 1 0.112222 0.0372954 0.0099689 0 0 0 0.0801485 -0.00353192 -0.000528592 1.61732e-05 0.000144224 -0.000459674 0.0801485 -0.00353192 -0.000528592 361.994 361.994 1000.86 
38 1 1 0.119824 0.0380139 0.00996858 0 0 0 0.077379 0.00478078 3.8601e-05 -0.000225613 0.000700536 -9.98089e-05 0.077379 0.00478078 3.8601e-05 376.183 376.183 1000.89 
39 1 1 0.140535 0.0376138 0.00996982 0 0 0 0.0912139 -0.00536841 -1.43585e-05 0.000589173 0.000634636 -0.000317486 0.0912139 -0.00536841 -1.43585e-05 350.228 350.228 1000.83 
40 1 1 0.160536 0.0374249 0.00997194 0 0 0 0.0691986 -1.27566e-05 0.000238274 -0.00096751 0.000475866 7.28101e-05 0.0691986 -1.27566e-05 0.000238274 381.623 381.623 1000.91 
41 1 1 0.0099871 0.0521698 0.00996547 0 0 0 -0.00139878 -0.00962176 0.00109369 -0.00526328 0.00110668 0.0062716 -0.00139878 -0.00962176 0.00109369 469.747 469.747 1001.11 
42 1 1 0.0337873 0.0537514 0.00996816 0 0 0 0.00872834 0.00776741 -0.00140347 0.000294169 0.0019311 -2.80383e-06 0.00872834 0.00776741 -0.00140347 406.297 406.297 1000.96 
43 1 1 0.0475678 0.0492683 0.00996512 0 0 0 0.0120997 0.00841614 -0.00153295 0.000206613 8.94708e-05 0.000493333 0.0120997 0.00841614 -0.00153295 385.429 385.429 1000.92 
44 1 1 0.0679405 0.0473688 0.00996768 0 0 0 0.0244331 0.0136939 -0.000860983 3.52539e-05 0.000241331 0.000123936 0.0244331 0.0136939 -0.000860983 397.976 397.976 1000.94 
45 1 1 0.078987 0.0473157 0.00996707 0 0 0 0.0698753 -0.0226709 -0.000960077 0.00205816 0.000282421 -0.000214659 0.0698753 -0.0226709 -0.000960077 358.855 358.855 1000.85 
46 1 1 0.0860159 0.0517494 0.00996884 0 0 0 0.0520997 0.00123411 -0.00113296 -0.000109665 -8.05409e-05 -0.000977081 0.0520997 0.00123411 -0.00113296 366.597 366.597 1000.87 
47 1 1 0.0913306 0.0483016 0.00996843 0 0 0 0.051308 -0.0209503 -0.000280355 0.000641446 0.000435471 -2.56968e-05 0.051308 -0.0209503 -0.000280355 375.578 375.578 1000.89 
48 1 1 0.119028 0.0502855 0.00996984 0 0 0 0.0718511 0.00526912 -0.000491267 0.000718549 -0.000287437 -0.000381232 0.0718511 0.00526912 -0.000491267 357.49 357.49 1000.85 
49 1 1 0.104938 0.0504099 0.00996686 0 0 0 0.0874941 0.0100564 -0.000393359 -0.000747465 8.52822e-05 -0.000349359 0.0874941 0.0100564 -0.000393359 372.256 372.256 1000.88 
50 1 1 0.149134 0.05009 0.00996931 0 0 0 0.0932956 -0.010584 6.97484e-05 -0.00142055 0.00036856 -0.00024356 0.0932956 -0.010584 6.97484e-05 365.397 365.397 1000.87 
51 1 1 0.00998024 0.061903 0.00997407 0 0 0 0.000296076 0.0028353 -0.00240802 0.00283284 0.000703267 -0.0027165 0.000296076 0.0028353 -0.00240802 449.671 449.671 1001.07 
52 1 1 0.0233585 0.0579511 0.00996499 0 0 0 0.0105419 -0.0120741 -0.000236939 -0.000650104 0.00140723 0.00124229 0.0105419 -0.0120741 -0.000236939 413.779 413.779 1000.98 
53 1 1 0.0530387 0.0597185 0.00996566 0 0 0 0.057706 -0.00747278 -0.000176954 0.000328865 0.00108155 0.000156405 0.057706 -0.00747278 -0.000176954 398.198 398.198 1000.95 
54 1 1 0.0677317 0.0628082 0.00996713 0 0 0 0.038336 0.0130275 -0.00115887 0.00161979 0.000607143 -0.000175635 0.038336 0.0130275 -0.00115887 366.872 366.872 1000.87 
55 1 1 0.0737088 0.058805 0.00996718 0 0 0 0.0892381 -0.00082665 -0.0010982 0.00149785 0.000794763 -0.000494426 0.0892381 -0.00082665 -0.0010982 355.11 355.11 1000.84 
56 1 1 0.0911745 0.0704181 0.0099697 0 0 0 0.07528 0.0303834 -0.00138425 0.000846233 0.000435408 -0.00092942 0.07528 0.0303834 -0.00138425 391.884 391.884 1000.93 
57 1 1 0.116893 0.063668 0.00996838 0 0 0 0.0822967 -0.00887758 -0.000648455 0.00010456 -0.000187466 -0.000540402 0.0822967 -0.00887758 -0.000648455 378.853 378.853 1000.9 
58 1 1 0.122781 0.0611558 0.00996929 0 0 0 0.0801589 -0.0152818 -0.000242372 0.000578511 0.000981162 -6.01084e-05 0.0801589 -0.0152818 -0.000242372 364.148 364.148 1000.86 
59 1 1 0.140721 0.0611108 0.00996973 0 0 0 0.080449 0.00928929 0.000220193 -8.02685e-05 -0.000503706 -0.000179653 0.080449 0.00928929 0.000220193 372.88 372.88 1000.89 
60 1 1 0.153693 0.0636996 0.00997015 0 0 0 0.0821547 -0.0100561 0.000353518 -0.000130334 0.000516974 0.000523625 0.0821547 -0.0100561 0.000353518 369.859 369.859 1000.88 
61 1 1 0.0099857 0.0716773 0.00996552 0 0 0 -0.00141336 0.00282016 0.00188802 -0.00320399 0.000502429 0.00599542 -0.00141336 0.00282016 0.00188802 464.445 464.445 1001.1 
62 1 1 0.0364814 0.065073 0.00996614 0 0 0 0.00507822 0.00421608 -0.000712366 8.16006e-05 -0.00021571 -0.000570868 0.00507822 0.00421608 -0.000712366 393.161 393.161 1000.93 
63 1 1 0.0629165 0.0597775 0.00996727 0 0 0 0.0416214 -0.0149366 -0.000715557 0.00027684 -0.000758639 -0.000269382 0.0416214 -0.0149366 -0.000715557 395.2 395.2 1000.94 
64 1 1 0.0803968 0.0701926 0.00996797 0 0 0 0.0652569 -0.0209439 -0.000936838 -0.000374674 -0.000560034 -0.000376489 0.0652569 -0.0209439 -0.000936838 393.115 393.115 1000.93 
65 1 1 0.104985 0.0631006 0.00996778 0 0 0 0.0776424 0.0105837 -0.000674595 -0.00029871 -0.00104638 -0.000550459 0.0776424 0.0105837 -0.000674595 359.253 359.253 1000.85 
66 1 1 0.0997493 0.0768039 0.00996917 0 0 0 0.0928181 0.027857 0.00102891 0.000633176 -0.000209142 -0.000324444 0.0928181 0.027857 0.00102891 393.639 393.639 1000.93 
67 1 1 0.126613 0.0553319 0.00996983 0 0 0 0.0639809 0.00873708 -4.93728e-05 -0.00140588 -0.000118237 -0.000225079 0.0639809 0.00873708 -4.93728e-05 374.651 374.651 1000.89 
68 1 1 0.104214 0.0690959 0.00996835 0 0 0 0.0645586 0.0126813 -0.00026419 -0.000272114 -6.76486e-05 -0.000244219 0.0645586 0.0126813 -0.00026419 361.838 361.838 1000.86 
69 1 1 0.131974 0.078142 0.00996989 0 0 0 0.110624 -0.00682255 -0.000571317 0.000405735 5.19527e-05 0.000604836 0.110624 -0.00682255 -0.000571317 339.342 339.342 1000.81 
70 1 1 0.141516 0.0700113 0.00997119 0 0 0 0.0723177 0.00323991 5.43712e-05 6.90034e-05 0.000258571 -0.000502782 0.0723177 0.00323991 5.43712e-05 379.983 379.983 1000.9 
71 1 1 0.00998666 0.0791324 0.00996601 0 0 0 0.0115769 -0.0138128 0.00189666 -0.00404274 0.00210047 0.00711356 0.0115769 -0.0138128 0.00189666 447.685 447.685 1001.06 
72 1 1 0.0307726 0.0635192 0.00996516 0 0 0 0.0179134 -0.0143357 -0.00122571 0.000217175 0.000242941 0.000180507 0.0179134 -0.0143357 -0.00122571 394.34 394.34 1000.94 
73 1 1 0.0220494 0.0781409 0.0099657 0 0 0 0.0124168 0.0143798 -0.00419897 0.000219918 4.83585e-05 -0.000380913 0.0124168 0.0143798 -0.00419897 375.129 375.129 1000.89 
74 1 1 0.0799171 0.0778121 0.00996886 0 0 0 0.0417526 -0.0105166 0.000687283 0.00015648 -0.000120942 -0.00117275 0.0417526 -0.0105166 0.000687283 400.375 400.375 1000.95 
75 1 1 0.0653904 0.077827 0.0099681 0 0 0 0.0175344 -0.01602 -0.00138728 0.000953748 -0.00011354 -0.000677508 0.0175344 -0.01602 -0.00138728 398.819 398.819 1000.95 
76 1 1 0.093663 0.077762 0.00996874 0 0 0 0.0630256 0.00637143 -0.000203302 0.00021742 0.000515266 -0.000308883 0.0630256 0.00637143 -0.000203302 387.324 387.324 1000.92 
77 1 1 0.0964236 0.0592569 0.00996612 0 0 0 0.0673691 0.010928 -6.56446e-05 0.00247448 -0.000250959 7.88685e-05 0.0673691 0.010928 -6.56446e-05 355.422 355.422 1000.84 
78 1 1 0.12762 0.0693549 0.00996937 0 0 0 0.104007 0.006139 -0.000206102 -0.000458751 -0.000127427 -0.00011763 0.104007 0.006139 -0.000206102 368.226 368.226 1000.87 
79 1 1 0.105713 0.0783267 0.00997002 0 0 0 0.0906139 0.0102812 -0.000480237 0.00113274 -0.000205103 -0.000675953 0.0906139 0.0102812 -0.000480237 372.669 372.669 1000.88 
80 1 1 0.145307 0.0782988 0.00997013 0 0 0 0.0957763 0.0184635 0.00220994 -0.000254382 0.000340493 0.00139144 0.0957763 0.0184635 0.00220994 373.267 373.267 1000.89 
81 1 1 0.00999066 0.0900138 0.00995746 0 0 0 0.0134288 0.0140218 0.0109028 -0.00640031 0.00332446 0.0192708 0.0134288 0.0140218 0.0109028 440.048 440.048 1001.04 
82 1 1 0.0287171 0.0900233 0.00998374 0 0 0 0.01196 0.0057385 0.00106396 -0.000714699 -0.00650884 -0.0141827 0.01196 0.0057385 0.00106396 411.556 411.556 1000.98 
83 1 1 0.023504 0.0900083 0.00995966 0 0 0 0.00638826 -0.00206546 -0.00986716 -0.00172867 0.00891549 0.0100935 0.00638826 -0.00206546 -0.00986716 414.036 414.036 1000.98 
84 1 1 0.06202 0.0900205 0.00998273 0 0 0 0.0320441 0.0102152 0.0114927 0.00063086 -0.00220197 -0.0107289 0.0320441 0.0102152 0.0114927 411.188 411.188 1000.98 
85 1 1 0.067034 0.0900191 0.00996934 0 0 0 0.0529997 -0.00696962 -0.0103542 0.000521114 -0.0013906 0.00286862 0.0529997 -0.00696962 -0.0103542 376.572 376.572 1000.89 
86 1 1 0.08589 0.0900134 0.00996861 0 0 0 0.0386216 0.00610657 0.00968176 0.00185106 0.00350708 0.00219477 0.0386216 0.00610657 0.00968176 396.062 396.062 1000.94 
87 1 1 0.10082 0.0900119 0.00995931 0 0 0 0.0562434 -0.00641686 -0.0097947 -0.000120388 0.00480252 0.0115274 0.0562434 -0.00641686 -0.0097947 374.5 374.5 1000.89 
88 1 1 0.11052 0.0900114 0.00996248 0 0 0 0.0881802 -0.00673615 -0.00448154 0.000742571 0.00530847 0.00884106 0.0881802 -0.00673615 -0.00448154 368.944 368.944 1000.88 
89 1 1 0.120317 0.0900195 0.00997877 0 0 0 0.0694221 0.0062488 0.00432116 0.00018426 -0.00292963 -0.00705245 0.0694221 0.0062488 0.00432116 374.738 374.738 1000.89 
90 1 1 0.135588 0.0900174 0.00997299 0 0 0 0.0840842 -0.00684381 -0.0107582 -0.00190594 -0.00221237 -0.000150805 0.0840842 -0.00684381 -0.0107582 390.197 390.197 1000.93 
91 1 1 0.00997137 0.00998125 0.00997535 0 0 0 0.00115668 0.0129129 0.0191478 0.0119149 0.000322712 0.000442147 0.00115668 0.0129129 0.0191478 583.502 583.502 1001.38 
92 1 1 0.0213426 0.0099783 0.00997157 0 0 0 0.00716076 -0.0052244 0.0173824 0.00110321 0.00332471 -0.00290936 0.00716076 -0.0052244 0.0173824 442.046 442.046 1001.05 
93 1 1 0.033959 0.00998867 0.0099679 0 0 0 0.0207857 -0.00811299 0.0201663 -0.000261696 -0.00651343 0.000906451 0.0207857 -0.00811299 0.0201663 470.629 470.629 1001.12 
94 1 1 0.0425921 0.00997118 0.00998561 0 0 0 0.00244992 -0.000149808 -0.00661356 0.00131514 0.0112738 -0.0165276 0.00244992 -0.000149808 -0.00661356 386.226 386.226 1000.92 
95 1 1 0.071184 0.00997475 0.00997853 0 0 0 0.0614525 0.00471548 -0.0160178 0.000701883 0.00914426 -0.00823856 0.0614525 0.00471548 -0.0160178 348.062 348.062 1000.83 
96 1 1 0.0948234 0.00999451 0.00995391 0 0 0 0.076637 0.00176747 0.00203577 -0.000347088 -0.0102873 0.0170565 0.076637 0.00176747 0.00203577 397.345 397.345 1000.94 
97 1 1 0.103981 0.0099745 0.00998138 0 0 0 0.0670879 0.00155352 -0.00641423 0.00196872 0.00913065 -0.0106614 0.0670879 0.00155352 -0.00641423 362.895 362.895 1000.86 
98 1 1 0.114297 0.00999017 0.00996592 0 0 0 0.0770755 -0.00592711 0.00790149 -0.000253858 -0.006443 0.0052101 0.0770755 -0.00592711 0.00790149 366.905 366.905 1000.87 
99 1 1 0.123715 0.00998791 0.00996592 0 0 0 0.0692854 0.00345924 -0.00407575 -0.000538022 -0.00372215 0.00649081 0.0692854 0.00345924 -0.00407575 389.32 389.32 1000.92 
100 1 1 0.128217 0.00998526 0.00997251 0 0 0 0.0672856 -0.00533081 0.00792443 0.000785493 -0.00123658 -0.000568439 0.0672856 -0.00533081 0.00792443 385.209 385.209 1000.91 
101 1 1 0.00997308 0.0214725 0.0226262 0 0 0 -0.00231148 0.0175673 0.00327173 -0.000670272 0.000601098 0.000677786 -0.00231148 0.0175673 0.00327173 538.496 538.496 1001.28 
102 1 1 0.00997672 0.022544 0.00997969 0 0 0 -0.00592445 -0.0191721 -0.00561446 0.00486141 0.00227191 -0.0090511 -0.00592445 -0.0191721 -0.00561446 468.427 468.427 1001.11 
103 1 1 0.0188186 0.0224883 0.0213954 0 0 0 -0.0241562 0.000265246 -0.0156098 0.00149484 0.00136545 0.000446837 -0.0241562 0.000265246 -0.0156098 586.913 586.913 1001.39 
104 1 1 0.0659226 0.0238814 0.0356681 0 0 0 -0.119083 0.0230839 -0.0299345 0.000341014 -0.000993148 -0.000597803 -0.119083 0.0230839 -0.0299345 354.768 354.768 1000.84 
105 1 1 0.0901307 0.0305937 0.059219 0 0 0 -0.145444 0.0567163 0.0195012 0.00133582 -0.000164126 -0.00138081 -0.145444 0.0567163 0.0195012 147.822 147.822 1000.35 
106 1 1 0.11998 0.0219609 0.00996873 0 0 0 0.0787602 0.00857201 0.00378738 -0.00120132 -3.06662e-05 -0.000824351 0.0787602 0.00857201 0.00378738 402.789 402.789 1000.96 
107 1 1 0.116311 0.0230646 0.0323957 0 0 0 -0.155329 -0.00382688 -0.0271239 0.00141392 -5.85755e-05 0.000542634 -0.155329 -0.00382688 -0.0271239 341.147 341.147 1000.81 
108 1 1 0.131541 0.0360809 0.00996881 0 0 0 0.0576504 0.00488498 3.96486e-05 0.000660063 0.000216381 -0.000164895 0.0576504 0.00488498 3.96486e-05 384.789 384.789 1000.91 
109 1 1 0.140659 0.0223371 0.0226363 0 0 0 -0.0989294 0.00825279 0.0157013 0.000525519 -0.000672794 -0.000897993 -0.0989294 0.00825279 0.0157013 399.001 399.001 1000.95 
110 1 1 0.164929 0.022283 0.00997157 0 0 0 0.0892455 -0.00951303 0.000524538 -0.0013378 0.000916224 -0.00014121 0.0892455 -0.00951303 0.000524538 423.156 423.156 1001 
111 1 1 0.00998024 0.0341513 0.00997133 0 0 0 -0.00125256 0.0048211 0.000813502 0.00177617 -0.00117799 -0.000232732 -0.00125256 0.0048211 0.000813502 477.77 477.77 1001.13 
112 1 1 0.0208054 0.0211088 0.0416118 0 0 0 -1.26237e-05 0.0400251 0.0553973 0.000650578 -0.000331987 5.83252e-05 -1.26237e-05 0.0400251 0.0553973 377.102 377.102 1000.9 
113 1 1 0.0425425 0.0309447 0.00996763 0 0 0 0.00594758 0.0156893 -0.000301059 0.000923317 0.000927324 -0.000204585 0.00594758 0.0156893 -0.000301059 412.51 412.51 1000.98 
114 1 1 0.0452398 0.0224154 0.00996638 0 0 0 0.0205874 0.00794182 -0.000510189 0.000814678 -0.000251922 -0.000691693 0.0205874 0.00794182 -0.000510189 416.391 416.391 1000.99 
115 1 1 0.0523165 0.0234582 0.0317265 0 0 0 -0.0546317 -0.0237471 0.0374548 0.0010231 -0.00087805 0.000550471 -0.0546317 -0.0237471 0.0374548 404.65 404.65 1000.96 
116 1 1 0.0885022 0.037115 0.00996729 0 0 0 0.0517356 -0.0184588 -0.00051462 0.000588785 -8.30439e-05 -0.000169438 0.0517356 -0.0184588 -0.00051462 416.444 416.444 1000.99 
117 1 1 0.119839 0.026652 0.0210976 0 0 0 -0.084283 -0.0431767 -0.00752906 0.000608823 0.000268813 -1.65362e-05 -0.084283 -0.0431767 -0.00752906 431.173 431.173 1001.02 
118 1 1 0.133278 0.0220641 0.0213126 0 0 0 -0.0789831 -0.0127983 -0.0140854 0.000752355 0.000529354 -0.000532351 -0.0789831 -0.0127983 -0.0140854 416.494 416.494 1000.99 
119 1 1 0.138117 0.0225054 0.00997161 0 0 0 0.105769 0.0136889 0.000276823 -0.000869858 0.000203351 -0.000847521 0.105769 0.0136889 0.000276823 395.003 395.003 1000.94 
120 1 1 0.139238 0.0219042 0.0367644 0 0 0 -0.112766 0.0107515 -0.0149609 0.000163175 -0.000324255 0.000487979 -0.112766 0.0107515 -0.0149609 252.039 252.039 1000.6 
121 1 1 0.00997763 0.0429363 0.00997919 0 0 0 0.00193156 -0.0033466 -0.00286723 0.00457906 0.00041671 -0.00600905 0.00193156 -0.0033466 -0.00286723 481.305 481.305 1001.14 
122 1 1 0.0225846 0.0364772 0.0099691 0 0 0 0.0226045 -0.0208733 -0.00226795 0.00100064 0.000423072 -0.00265062 0.0226045 -0.0208733 -0.00226795 417.003 417.003 1000.99 
123 1 1 0.0225885 0.0308326 0.00997066 0 0 0 -0.0206019 -0.01795 0.00570533 0.000387899 -1.70995e-05 -0.00405893 -0.0206019 -0.01795 0.00570533 434.638 434.638 1001.03 
124 1 1 0.0687772 0.0277773 0.00996825 0 0 0 0.0428621 0.00155726 -0.000733344 0.00135012 -0.000157071 -0.00211185 0.0428621 0.00155726 -0.000733344 397.612 397.612 1000.94 
125 1 1 0.0763592 0.0364599 0.00996661 0 0 0 0.0502585 -0.0195508 -0.000618678 0.000823429 -0.000170474 -0.0001386 0.0502585 -0.0195508 -0.000618678 354.478 354.478 1000.84 
126 1 1 0.113541 0.0304155 0.00997013 0 0 0 0.0651288 -0.00296541 -0.000756899 -0.000483175 -0.000186411 -0.00160737 0.0651288 -0.00296541 -0.000756899 375.21 375.21 1000.89 
127 1 1 0.147534 0.0363146 0.00996998 0 0 0 0.104171 -0.0132744 0.000183428 3.85142e-05 -0.00010067 0.000149279 0.104171 -0.0132744 0.000183428 359.87 359.87 1000.85 
128 1 1 0.131344 0.0441844 0.00997029 0 0 0 0.0818768 0.00840869 9.44147e-05 -0.000984182 -0.000475028 -0.000701782 0.0818768 0.00840869 9.44147e-05 365.151 365.151 1000.87 
129 1 1 0.12564 0.0241438 0.00997019 0 0 0 0.0897516 -0.0150333 -0.00282467 0.000562724 -0.000483161 -0.000837505 0.0897516 -0.0150333 -0.00282467 350.86 350.86 1000.83 
130 1 1 0.169544 0.0332937 0.00997225 0 0 0 0.0951754 0.0273705 -0.000260506 -0.000140708 -0.000156042 -2.35527e-05 0.0951754 0.0273705 -0.000260506 387.978 387.978 1000.92 
131 1 1 0.00998442 0.0476435 0.00997017 0 0 0 -0.00212694 0.0133566 0.00217375 -0.00258679 0.000380201 0.00295064 -0.00212694 0.0133566 0.00217375 478.199 478.199 1001.13 
132 1 1 0.0267896 0.0484486 0.00996811 0 0 0 0.0346235 -0.0216149 0.000396703 0.000413992 -0.00052485 -0.000373002 0.0346235 -0.0216149 0.000396703 434.166 434.166 1001.03 
133 1 1 0.0381511 0.0499839 0.00996753 0 0 0 0.0472311 0.0216099 -0.000909135 0.00169262 -8.43036e-05 -0.000390703 0.0472311 0.0216099 -0.000909135 402.532 402.532 1000.96 
134 1 1 0.0742327 0.0522938 0.00996663 0 0 0 0.0682233 -0.00685377 -0.000781511 0.00118176 0.000301217 -0.000150608 0.0682233 -0.00685377 -0.000781511 382.899 382.899 1000.91 
135 1 1 0.112551 0.0506421 0.00996812 0 0 0 0.0559231 0.00674773 -0.000313541 0.000292344 -0.000560027 -0.000425757 0.0559231 0.00674773 -0.000313541 372.024 372.024 1000.88 
136 1 1 0.087949 0.0484649 0.023439 0 0 0 -0.130988 -0.00247437 -0.0267669 0.00158047 0.00102289 -0.00125494 -0.130988 -0.00247437 -0.0267669 433.43 433.43 1001.03 
137 1 1 0.119941 0.0518528 0.0218275 0 0 0 -0.097031 -0.00406942 -0.00198188 0.000114822 0.000446543 -4.43271e-05 -0.097031 -0.00406942 -0.00198188 408.41 408.41 1000.97 
138 1 1 0.135654 0.0494217 0.00996962 0 0 0 0.067615 -0.0086098 -0.000361917 0.000455135 0.000191249 -0.000185818 0.067615 -0.0086098 -0.000361917 374.773 374.773 1000.89 
139 1 1 0.141589 0.0462894 0.00996924 0 0 0 0.077979 -0.0166413 -7.53191e-05 0.000998138 4.09064e-06 -0.000290279 0.077979 -0.0166413 -7.53191e-05 354.993 354.993 1000.84 
140 1 1 0.161217 0.0504675 0.0208728 0 0 0 -0.0346397 0.00401793 -0.0198881 9.31252e-05 0.000183686 -0.000775551 -0.0346397 0.00401793 -0.0198881 347.781 347.781 1000.83 
141 1 1 0.00998066 0.0573289 0.00997339 0 0 0 0.00191491 -0.00757738 -0.00373431 0.00183106 0.000928613 -0.00238994 0.00191491 -0.00757738 -0.00373431 458.85 458.85 1001.09 
142 1 1 0.0231798 0.0637378 0.00996576 0 0 0 0.00727642 -0.0228261 -0.00258378 0.000115424 0.00131857 -0.00138271 0.00727642 -0.0228261 -0.00258378 388.918 388.918 1000.92 
143 1 1 0.0220337 0.0712545 0.00996506 0 0 0 0.0187651 0.0104361 0.000125042 0.00113951 0.000132506 -0.00147167 0.0187651 0.0104361 0.000125042 391.326 391.326 1000.93 
144 1 1 0.0697396 0.0712686 0.00996681 0 0 0 0.0546686 0.0212375 -0.00103062 0.00133588 -0.00093628 0.000664863 0.0546686 0.0212375 -0.00103062 387.237 387.237 1000.92 
145 1 1 0.0802998 0.0640008 0.00996663 0 0 0 0.0651192 0.0104824 -0.000609161 -9.65403e-05 -0.000643038 -0.000640684 0.0651192 0.0104824 -0.000609161 388.944 388.944 1000.92 
146 1 1 0.114647 0.070674 0.00996965 0 0 0 0.0887518 -0.0137552 0.000615755 3.52288e-05 0.000106885 -0.000397185 0.0887518 -0.0137552 0.000615755 386.403 386.403 1000.92 
147 1 1 0.14599 0.0581136 0.00996934 0 0 0 0.083026 -0.0225693 0.000296459 -0.000432964 -0.00024405 -1.54171e-05 0.083026 -0.0225693 0.000296459 347.501 347.501 1000.83 
148 1 1 0.132557 0.0565079 0.00997053 0 0 0 0.0900337 0.00768297 0.000108954 0.00141143 0.000677309 -0.000532221 0.0900337 0.00768297 0.000108954 371.244 371.244 1000.88 
149 1 1 0.124998 0.0771006 0.00997149 0 0 0 0.0760701 -0.00331832 -0.00282265 0.00193209 -0.00033179 -0.00137091 0.0760701 -0.00331832 -0.00282265 358.416 358.416 1000.85 
150 1 1 0.170633 0.0686119 0.00997192 0 0 0 0.066846 -0.00579384 -0.000394507 0.00038183 0.000209342 0.000332235 0.066846 -0.00579384 -0.000394507 384.487 384.487 1000.91 
151 1 1 0.00998295 0.066232 0.0099687 0 0 0 -0.000355118 -0.00631162 -0.00253478 -0.000120867 0.000515942 0.00249528 -0.000355118 -0.00631162 -0.00253478 451.387 451.387 1001.07 
152 1 1 0.0232464 0.0786554 0.0383673 0 0 0 -0.0260095 0.0367196 0.0288024 0.000332266 -0.00072379 0.000348992 -0.0260095 0.0367196 0.0288024 360.65 360.65 1000.86 
153 1 1 0.0446982 0.067818 0.00996704 0 0 0 0.045752 -0.00792291 -0.00166317 -0.000114939 0.000957677 -0.00125943 0.045752 -0.00792291 -0.00166317 382.47 382.47 1000.91 
154 1 1 0.0442334 0.0780171 0.00996794 0 0 0 0.0129397 0.0149472 -0.00120008 0.00105967 -0.000749213 0.000682695 0.0129397 0.0149472 -0.00120008 406.817 406.817 1000.97 
155 1 1 0.0523786 0.0788324 0.0363918 0 0 0 -0.0991857 -0.00600217 0.0623763 -0.000364479 -0.000396486 -0.00114068 -0.0991857 -0.00600217 0.0623763 359.974 359.974 1000.85 
156 1 1 0.0931886 0.0644724 0.00996764 0 0 0 0.0637743 0.0221358 -0.000615674 0.00115959 -0.000203123 -0.000283693 0.0637743 0.0221358 -0.000615674 386.806 386.806 1000.92 
157 1 1 0.118111 0.0775714 0.0230964 0 0 0 -0.0944701 0.0665588 -0.0430136 0.000259441 -0.000691319 -0.000425674 -0.0944701 0.0665588 -0.0430136 424.497 424.497 1001.01 
158 1 1 0.133496 0.078285 0.0220847 0 0 0 -0.0933942 0.0348227 0.0126061 0.000872674 0.000364716 -0.000110131 -0.0933942 0.0348227 0.0126061 397.594 397.594 1000.94 
159 1 1 0.138173 0.0769344 0.00997047 0 0 0 0.0954561 -0.0243697 0.000469342 -0.000710257 0.00159686 -1.40265e-05 0.0954561 -0.0243697 0.000469342 387.34 387.34 1000.92 
160 1 1 0.139703 0.0777254 0.0367295 0 0 0 -0.11972 -0.0219071 -0.0129635 -0.000161643 0.000997713 0.00038135 -0.11972 -0.0219071 -0.0129635 252.6 252.6 1000.6 
161 1 1 0.00997889 0.0796344 0.0231403 0 0 0 0.000403565 -0.0177167 -0.00791747 -0.000761992 0.00158795 -0.000921474 0.000403565 -0.0177167 -0.00791747 478.163 478.163 1001.13 
162 1 1 0.0099712 0.0769915 0.00998814 0 0 0 0.000452676 -0.0080381 0.0112266 0.0112559 0.00118848 -0.0158303 0.000452676 -0.0080381 0.0112266 468.665 468.665 1001.11 
163 1 1 0.0237366 0.079156 0.029267 0 0 0 -0.0301152 0.0355185 0.016229 -7.08665e-05 -0.00129017 -0.00221924 -0.0301152 0.0355185 0.016229 469.702 469.702 1001.11 
164 1 1 0.0604093 0.0713599 0.0581237 0 0 0 -0.0975181 -0.00136827 0.0698397 0.000821254 -0.000342457 -0.00179631 -0.0975181 -0.00136827 0.0698397 157.283 157.283 1000.37 
165 1 1 0.0918793 0.0704917 0.0537936 0 0 0 -0.103594 -0.0389756 0.00398233 0.00120707 0.000637413 -0.000654215 -0.103594 -0.0389756 0.00398233 206.546 206.546 1000.49 
166 1 1 0.119517 0.0778029 0.00997022 0 0 0 0.0842417 -0.0163063 0.00282955 -0.000299597 -3.35893e-05 -0.000351104 0.0842417 -0.0163063 0.00282955 413.476 413.476 1000.98 
167 1 1 0.116057 0.0785084 0.0344242 0 0 0 -0.146937 0.00695025 -0.00245971 0.001633 -0.000974014 6.88746e-05 -0.146937 0.00695025 -0.00245971 286.216 286.216 1000.68 
168 1 1 0.133855 0.0657584 0.00996984 0 0 0 0.0975796 -0.00452143 -9.21042e-05 -0.000303774 -0.000674385 -0.000197741 0.0975796 -0.00452143 -9.21042e-05 383.562 383.562 1000.91 
169 1 1 0.141627 0.076723 0.021345 0 0 0 -0.0690072 -0.014285 -0.00382062 0.000438445 0.00119904 -0.000350755 -0.0690072 -0.014285 -0.00382062 411.927 411.927 1000.98 
170 1 1 0.164074 0.0771546 0.00997291 0 0 0 0.0847905 0.00468214 0.000765685 -0.000722553 0.000505528 -0.00112606 0.0847905 0.00468214 0.000765685 398.061 398.061 1000.95 
171 1 1 0.0099744 0.0900198 0.00999321 0 0 0 0.00824719 0.0160308 -0.0168088 0.0101614 -0.0030279 -0.0166538 0.00824719 0.0160308 -0.0168088 357.185 357.185 1000.85 
172 1 1 0.0213875 0.0900129 0.00997755 0 0 0 0.0129717 0.00685839 -0.00207522 -0.00243544 0.00449823 -0.00767522 0.0129717 0.00685839 -0.00207522 421.789 421.789 1001 
173 1 1 0.0342853 0.090012 0.00995532 0 0 0 0.0272309 0.000145384 0.0149655 -0.000146166 0.00491531 0.0154417 0.0272309 0.000145384 0.0149655 456.357 456.357 1001.08 
174 1 1 0.0427152 0.0900217 0.0099834 0 0 0 0.0376048 0.00515311 0.00426396 0.00218863 -0.00347451 -0.0127534 0.0376048 0.00515311 0.00426396 389.067 389.067 1000.92 
175 1 1 0.0721144 0.090018 0.0099753 0 0 0 0.0525863 0.0062574 0.00941533 -0.000861565 -0.000110796 -0.00312569 0.0525863 0.0062574 0.00941533 414.237 414.237 1000.98 