ITEM: TIMESTEP
26000
ITEM: NUMBER OF ATOMS
2655
ITEM: BOX BOUNDS ff ff ff
0 0.5
0 0.1
0 0.5
ITEM: ATOMS id type type x y z ix iy iz vx vy vz fx fy fz vx vy vz p p rho 
1 1 1 0.00998242 0.0099977 0.009949 0 0 0 -0.000425364 -0.00520792 0.0332465 0.00410817 -0.0274994 0.0207223 -0.000425364 -0.00520792 0.0332465 975.158 975.158 1002.31 
2 1 1 0.0294778 0.00994138 0.00999293 0 0 0 0.0621495 0.0225519 -0.0192785 0.00638129 0.0336722 -0.0326914 0.0621495 0.0225519 -0.0192785 736.291 736.291 1001.74 
3 1 1 0.0227436 0.00997489 0.00995763 0 0 0 -0.0237789 -0.00693726 0.00174091 0.00242268 -0.00144012 -0.000428097 -0.0237789 -0.00693726 0.00174091 801.886 801.886 1001.9 
4 1 1 0.0568593 0.00997871 0.00998013 0 0 0 0.130165 0.0585455 -0.0129353 -0.0103316 -0.0214942 -0.0244686 0.130165 0.0585455 -0.0129353 834.483 834.483 1001.98 
5 1 1 0.0645646 0.00998148 0.00993157 0 0 0 0.137283 0.0314732 0.0109763 -0.00684877 -0.0227029 0.0216383 0.137283 0.0314732 0.0109763 988.001 988.001 1002.34 
6 1 1 0.0814006 0.00996948 0.00988232 0 0 0 0.105214 0.00451358 -0.082069 -0.0395865 -0.00521662 0.0548056 0.105214 0.00451358 -0.082069 1211.97 1211.97 1002.86 
7 1 1 0.100659 0.0099617 0.00994373 0 0 0 0.20728 -0.00130366 -0.00865695 0.0305779 0.00700394 0.0194031 0.20728 -0.00130366 -0.00865695 1155.9 1155.9 1002.73 
8 1 1 0.112401 0.00998611 0.00994448 0 0 0 0.197949 -0.00188631 -0.00587522 0.0204454 -0.0122562 0.0234935 0.197949 -0.00188631 -0.00587522 714.432 714.432 1001.69 
9 1 1 0.124501 0.00998743 0.00999136 0 0 0 0.122715 0.0218993 -0.0230118 0.0026323 -0.00846255 -0.0186702 0.122715 0.0218993 -0.0230118 475.322 475.322 1001.13 
10 1 1 0.144585 0.00998936 0.00996453 0 0 0 0.174478 -0.0066934 -0.0143909 -0.00115627 -0.0108706 0.014714 0.174478 -0.0066934 -0.0143909 568.002 568.002 1001.35 
11 1 1 0.0099736 0.0184382 0.00994992 0 0 0 -0.000184552 0.000243836 -0.0128867 0.00813137 0.00204634 0.0183346 -0.000184552 0.000243836 -0.0128867 787.92 787.92 1001.87 
12 1 1 0.0218019 0.023112 0.00994767 0 0 0 -0.0451074 -0.0179901 -0.00750213 -0.00202723 0.000685113 0.00671869 -0.0451074 -0.0179901 -0.00750213 724.81 724.81 1001.72 
13 1 1 0.0389136 0.0201927 0.00995712 0 0 0 -0.10919 -0.0129741 -0.00880428 -0.00114782 -0.00816024 -0.00262544 -0.10919 -0.0129741 -0.00880428 652.717 652.717 1001.55 
14 1 1 0.0596517 0.0227625 0.00994342 0 0 0 0.161354 0.00921179 0.012778 -0.00467881 0.0125661 0.00223815 0.161354 0.00921179 0.012778 736.124 736.124 1001.74 
15 1 1 0.0703671 0.021095 0.00993188 0 0 0 0.150813 0.0700637 0.00263203 -0.000483172 0.00739011 0.00344498 0.150813 0.0700637 0.00263203 981.357 981.357 1002.32 
16 1 1 0.083541 0.0201836 0.00993729 0 0 0 0.113637 -0.0501453 0.00370476 -0.0082312 0.0437237 0.00495187 0.113637 -0.0501453 0.00370476 1207.2 1207.2 1002.85 
17 1 1 0.09429 0.0218234 0.00994824 0 0 0 0.174847 0.0529248 0.00812814 0.0133718 0.043787 -6.91807e-05 0.174847 0.0529248 0.00812814 763.009 763.009 1001.81 
18 1 1 0.109317 0.0199079 0.00996833 0 0 0 0.101338 0.0184868 -0.00122758 0.0111357 0.0127746 -0.00390679 0.101338 0.0184868 -0.00122758 725.413 725.413 1001.72 
19 1 1 0.113155 0.0247213 0.00997118 0 0 0 0.154308 -0.00428912 -0.0105591 0.00691587 0.000679952 -0.00207414 0.154308 -0.00428912 -0.0105591 557.082 557.082 1001.32 
20 1 1 0.141724 0.0249217 0.00996312 0 0 0 0.163496 0.027121 -0.00694051 -0.0085095 0.00127064 0.00859594 0.163496 0.027121 -0.00694051 534.553 534.553 1001.27 
21 1 1 0.00995723 0.0229322 0.00995312 0 0 0 0.0179023 0.0447832 -0.0185676 0.0245101 0.00228245 0.0136763 0.0179023 0.0447832 -0.0185676 805.322 805.322 1001.91 
22 1 1 0.0226391 0.0371963 0.00994742 0 0 0 0.00905556 0.0121154 -0.0148602 0.00310556 -0.0060762 0.00373405 0.00905556 0.0121154 -0.0148602 736.872 736.872 1001.75 
23 1 1 0.0462908 0.0338111 0.00994186 0 0 0 -0.00284794 0.0339365 -0.00778515 0.00141716 -0.00407316 0.00585568 -0.00284794 0.0339365 -0.00778515 719.876 719.876 1001.71 
24 1 1 0.0650089 0.0311508 0.00994316 0 0 0 0.0972924 0.0467737 0.0100717 -0.00124774 0.0122979 0.00390003 0.0972924 0.0467737 0.0100717 830.32 830.32 1001.97 
25 1 1 0.0764789 0.0289266 0.00995222 0 0 0 0.182313 0.0191496 0.0209252 0.00317356 0.0188236 -0.00439947 0.182313 0.0191496 0.0209252 956.672 956.672 1002.26 
26 1 1 0.0816012 0.026777 0.00996278 0 0 0 0.171016 -0.0634069 0.0191666 0.0104317 0.0235244 -0.00964263 0.171016 -0.0634069 0.0191666 837.622 837.622 1001.98 
27 1 1 0.102679 0.0311308 0.00997452 0 0 0 0.259562 0.025336 0.0132111 -0.00367671 0.00552986 -0.0102852 0.259562 0.025336 0.0132111 519.606 519.606 1001.23 
28 1 1 0.0997205 0.0228492 0.00995746 0 0 0 0.176807 -0.129013 0.00212787 0.0147021 0.0272043 0.000545096 0.176807 -0.129013 0.00212787 701.772 701.772 1001.66 
29 1 1 0.122377 0.0293566 0.00996797 0 0 0 0.276011 -0.0466772 -0.009931 0.00324178 0.00174412 0.00336527 0.276011 -0.0466772 -0.009931 527.634 527.634 1001.25 
30 1 1 0.13502 0.0316537 0.00998542 0 0 0 0.125411 0.00900098 -0.0134792 0.00136819 0.00216409 -0.0131885 0.125411 0.00900098 -0.0134792 437.812 437.812 1001.04 
31 1 1 0.00999075 0.0340427 0.00998058 0 0 0 0.0108256 0.0757513 -0.00648151 -0.0134535 0.0072633 -0.0162839 0.0108256 0.0757513 -0.00648151 847.687 847.687 1002.01 
32 1 1 0.0218479 0.0446084 0.00994425 0 0 0 -0.00994084 0.0258763 -0.00984481 0.00765975 -0.00300156 0.00755947 -0.00994084 0.0258763 -0.00984481 930.782 930.782 1002.2 
33 1 1 0.0454926 0.0413272 0.00992952 0 0 0 0.101552 -0.0236237 0.00490609 0.00599558 0.00780958 0.0191034 0.101552 -0.0236237 0.00490609 908.368 908.368 1002.15 
34 1 1 0.0552214 0.0425673 0.0099333 0 0 0 0.108381 0.0165902 0.010456 0.00225841 0.00583652 0.0204889 0.108381 0.0165902 0.010456 829.161 829.161 1001.96 
35 1 1 0.0640101 0.0404281 0.009958 0 0 0 0.0704179 -0.0232232 0.0137456 0.0064324 0.00831115 -0.00191902 0.0704179 -0.0232232 0.0137456 635.73 635.73 1001.51 
36 1 1 0.0810139 0.0386701 0.00998013 0 0 0 0.0612527 -0.0222343 0.0465033 0.00779524 0.00463446 -0.0191726 0.0612527 -0.0222343 0.0465033 457.55 457.55 1001.09 
37 1 1 0.103717 0.0400288 0.00997297 0 0 0 0.209778 -0.0620627 0.0176267 -0.00060446 -0.00181752 -0.0077964 0.209778 -0.0620627 0.0176267 515.316 515.316 1001.22 
38 1 1 0.109826 0.0344877 0.00996905 0 0 0 0.293155 -0.0506677 0.00106796 -0.000412473 0.00693738 -0.0017786 0.293155 -0.0506677 0.00106796 626.639 626.639 1001.49 
39 1 1 0.119299 0.0439975 0.00996917 0 0 0 0.144811 0.0730549 -0.0158012 0.00333591 -0.000212271 5.09345e-05 0.144811 0.0730549 -0.0158012 496.696 496.696 1001.18 
40 1 1 0.134313 0.0429735 0.00998365 0 0 0 0.135706 -0.0549454 -0.0148393 -0.000608196 0.00296718 -0.0111163 0.135706 -0.0549454 -0.0148393 408.015 408.015 1000.97 
41 1 1 0.00996324 0.05 0.00997604 0 0 0 -0.00149744 1.52159e-12 -0.00152878 0.00611278 1.20159e-12 -0.0115892 -0.00149744 1.52159e-12 -0.00152878 709.855 709.855 1001.68 
42 1 1 0.0335729 0.05 0.00992924 0 0 0 0.0428678 1.18071e-12 -0.00578671 -0.00867602 -8.48211e-13 0.0229828 0.0428678 1.18071e-12 -0.00578671 838.498 838.498 1001.98 
43 1 1 0.0387045 0.05 0.00993466 0 0 0 0.174528 3.07676e-13 -0.00383175 0.00887062 -1.46396e-12 0.0177189 0.174528 3.07676e-13 -0.00383175 851.799 851.799 1002.02 
44 1 1 0.0592838 0.05 0.00994758 0 0 0 0.109961 -2.82003e-13 0.0140488 0.00337724 -2.75968e-12 0.0111407 0.109961 -2.82003e-13 0.0140488 648.773 648.773 1001.54 
45 1 1 0.0779211 0.05 0.00998125 0 0 0 0.220416 -3.8267e-12 0.0252077 -0.0101251 -6.30864e-13 -0.0245266 0.220416 -3.8267e-12 0.0252077 626.755 626.755 1001.49 
46 1 1 0.0814356 0.05 0.0099671 0 0 0 0.0929964 -1.24321e-12 0.0512407 0.000971869 4.89053e-13 -0.0121184 0.0929964 -1.24321e-12 0.0512407 747.621 747.621 1001.77 
47 1 1 0.0908553 0.05 0.00995833 0 0 0 0.14136 -1.06536e-12 0.0532134 0.00280028 2.45011e-12 -0.00240847 0.14136 -1.06536e-12 0.0532134 631.615 631.615 1001.5 
48 1 1 0.101236 0.05 0.009965 0 0 0 0.115579 -1.78057e-12 0.0325462 -0.00206599 5.38144e-12 -0.00528062 0.115579 -1.78057e-12 0.0325462 607.19 607.19 1001.44 
49 1 1 0.10777 0.05 0.0099693 0 0 0 0.230985 7.92673e-13 0.00660172 0.00759959 8.3408e-12 -0.00390923 0.230985 7.92673e-13 0.00660172 649.805 649.805 1001.54 
50 1 1 0.139964 0.05 0.00998288 0 0 0 0.231982 3.57197e-11 -0.0207386 -0.00417109 2.12763e-11 -0.00912232 0.231982 3.57197e-11 -0.0207386 373.075 373.075 1000.89 
51 1 1 0.00999075 0.0659573 0.00998058 0 0 0 0.0108256 -0.0757513 -0.00648151 -0.0134535 -0.0072633 -0.0162839 0.0108256 -0.0757513 -0.00648151 847.687 847.687 1002.01 
52 1 1 0.0218479 0.0553916 0.00994425 0 0 0 -0.00994084 -0.0258763 -0.00984481 0.00765975 0.00300156 0.00755947 -0.00994084 -0.0258763 -0.00984481 930.782 930.782 1002.2 
53 1 1 0.0454926 0.0586728 0.00992952 0 0 0 0.101552 0.0236237 0.00490609 0.00599558 -0.00780958 0.0191034 0.101552 0.0236237 0.00490609 908.368 908.368 1002.15 
54 1 1 0.0552214 0.0574327 0.0099333 0 0 0 0.108381 -0.0165902 0.010456 0.00225841 -0.00583652 0.0204889 0.108381 -0.0165902 0.010456 829.161 829.161 1001.96 
55 1 1 0.0640101 0.0595719 0.009958 0 0 0 0.0704179 0.0232232 0.0137456 0.0064324 -0.00831115 -0.00191902 0.0704179 0.0232232 0.0137456 635.73 635.73 1001.51 
56 1 1 0.0810139 0.0613299 0.00998013 0 0 0 0.0612527 0.0222343 0.0465033 0.00779524 -0.00463446 -0.0191726 0.0612527 0.0222343 0.0465033 457.55 457.55 1001.09 
57 1 1 0.103717 0.0599712 0.00997297 0 0 0 0.209778 0.0620627 0.0176267 -0.00060446 0.00181752 -0.0077964 0.209778 0.0620627 0.0176267 515.316 515.316 1001.22 
58 1 1 0.109826 0.0655123 0.00996905 0 0 0 0.293155 0.0506677 0.00106796 -0.000412473 -0.00693738 -0.0017786 0.293155 0.0506677 0.00106796 626.639 626.639 1001.49 
59 1 1 0.119299 0.0560025 0.00996917 0 0 0 0.144811 -0.0730549 -0.0158012 0.00333591 0.000212271 5.09345e-05 0.144811 -0.0730549 -0.0158012 496.696 496.696 1001.18 
60 1 1 0.134313 0.0570265 0.00998365 0 0 0 0.135706 0.0549454 -0.0148393 -0.000608196 -0.00296718 -0.0111163 0.135706 0.0549454 -0.0148393 408.015 408.015 1000.97 
61 1 1 0.00995723 0.0770678 0.00995312 0 0 0 0.0179023 -0.0447832 -0.0185676 0.0245101 -0.00228245 0.0136763 0.0179023 -0.0447832 -0.0185676 805.322 805.322 1001.91 
62 1 1 0.0226391 0.0628037 0.00994742 0 0 0 0.00905556 -0.0121154 -0.0148602 0.00310556 0.0060762 0.00373405 0.00905556 -0.0121154 -0.0148602 736.872 736.872 1001.75 
63 1 1 0.0462908 0.0661889 0.00994186 0 0 0 -0.00284794 -0.0339365 -0.00778515 0.00141716 0.00407316 0.00585568 -0.00284794 -0.0339365 -0.00778515 719.876 719.876 1001.71 
64 1 1 0.0650089 0.0688492 0.00994316 0 0 0 0.0972924 -0.0467737 0.0100717 -0.00124774 -0.0122979 0.00390003 0.0972924 -0.0467737 0.0100717 830.32 830.32 1001.97 
65 1 1 0.0764789 0.0710734 0.00995222 0 0 0 0.182313 -0.0191496 0.0209252 0.00317356 -0.0188236 -0.00439947 0.182313 -0.0191496 0.0209252 956.672 956.672 1002.26 
66 1 1 0.0816012 0.073223 0.00996278 0 0 0 0.171016 0.0634069 0.0191666 0.0104317 -0.0235244 -0.00964263 0.171016 0.0634069 0.0191666 837.622 837.622 1001.98 
67 1 1 0.102679 0.0688692 0.00997452 0 0 0 0.259562 -0.025336 0.0132111 -0.00367671 -0.00552986 -0.0102852 0.259562 -0.025336 0.0132111 519.606 519.606 1001.23 
68 1 1 0.0997205 0.0771508 0.00995746 0 0 0 0.176807 0.129013 0.00212787 0.0147021 -0.0272043 0.000545096 0.176807 0.129013 0.00212787 701.772 701.772 1001.66 
69 1 1 0.122377 0.0706434 0.00996797 0 0 0 0.276011 0.0466772 -0.009931 0.00324178 -0.00174412 0.00336527 0.276011 0.0466772 -0.009931 527.634 527.634 1001.25 
70 1 1 0.13502 0.0683463 0.00998542 0 0 0 0.125411 -0.00900098 -0.0134792 0.00136819 -0.00216409 -0.0131885 0.125411 -0.00900098 -0.0134792 437.812 437.812 1001.04 
71 1 1 0.0099736 0.0815618 0.00994992 0 0 0 -0.000184552 -0.000243836 -0.0128867 0.00813137 -0.00204634 0.0183346 -0.000184552 -0.000243836 -0.0128867 787.92 787.92 1001.87 
72 1 1 0.0218019 0.076888 0.00994767 0 0 0 -0.0451074 0.0179901 -0.00750213 -0.00202723 -0.000685113 0.00671869 -0.0451074 0.0179901 -0.00750213 724.81 724.81 1001.72 
73 1 1 0.0389136 0.0798073 0.00995712 0 0 0 -0.10919 0.0129741 -0.00880428 -0.00114782 0.00816024 -0.00262544 -0.10919 0.0129741 -0.00880428 652.717 652.717 1001.55 
74 1 1 0.0596517 0.0772375 0.00994342 0 0 0 0.161354 -0.00921179 0.012778 -0.00467881 -0.0125661 0.00223815 0.161354 -0.00921179 0.012778 736.124 736.124 1001.74 
75 1 1 0.0703671 0.078905 0.00993188 0 0 0 0.150813 -0.0700637 0.00263203 -0.000483172 -0.00739011 0.00344498 0.150813 -0.0700637 0.00263203 981.357 981.357 1002.32 
76 1 1 0.083541 0.0798164 0.00993729 0 0 0 0.113637 0.0501453 0.00370476 -0.0082312 -0.0437237 0.00495187 0.113637 0.0501453 0.00370476 1207.2 1207.2 1002.85 
77 1 1 0.09429 0.0781766 0.00994824 0 0 0 0.174847 -0.0529248 0.00812814 0.0133718 -0.043787 -6.91807e-05 0.174847 -0.0529248 0.00812814 763.009 763.009 1001.81 
78 1 1 0.109317 0.0800921 0.00996833 0 0 0 0.101338 -0.0184868 -0.00122758 0.0111357 -0.0127746 -0.00390679 0.101338 -0.0184868 -0.00122758 725.413 725.413 1001.72 
79 1 1 0.113155 0.0752787 0.00997118 0 0 0 0.154308 0.00428912 -0.0105591 0.00691587 -0.000679952 -0.00207414 0.154308 0.00428912 -0.0105591 557.082 557.082 1001.32 
80 1 1 0.141724 0.0750783 0.00996312 0 0 0 0.163496 -0.027121 -0.00694051 -0.0085095 -0.00127064 0.00859594 0.163496 -0.027121 -0.00694051 534.553 534.553 1001.27 
81 1 1 0.00998242 0.0900023 0.009949 0 0 0 -0.000425364 0.00520792 0.0332465 0.00410817 0.0274994 0.0207223 -0.000425364 0.00520792 0.0332465 975.158 975.158 1002.31 
82 1 1 0.0294778 0.0900586 0.00999293 0 0 0 0.0621495 -0.0225519 -0.0192785 0.00638129 -0.0336722 -0.0326914 0.0621495 -0.0225519 -0.0192785 736.291 736.291 1001.74 
83 1 1 0.0227436 0.0900251 0.00995763 0 0 0 -0.0237789 0.00693726 0.00174091 0.00242268 0.00144012 -0.000428097 -0.0237789 0.00693726 0.00174091 801.886 801.886 1001.9 
84 1 1 0.0568593 0.0900213 0.00998013 0 0 0 0.130165 -0.0585455 -0.0129353 -0.0103316 0.0214942 -0.0244686 0.130165 -0.0585455 -0.0129353 834.483 834.483 1001.98 
85 1 1 0.0645646 0.0900185 0.00993157 0 0 0 0.137283 -0.0314732 0.0109763 -0.00684877 0.0227029 0.0216383 0.137283 -0.0314732 0.0109763 988.001 988.001 1002.34 
86 1 1 0.0814006 0.0900305 0.00988232 0 0 0 0.105214 -0.00451358 -0.082069 -0.0395865 0.00521662 0.0548056 0.105214 -0.00451358 -0.082069 1211.97 1211.97 1002.86 
87 1 1 0.100659 0.0900383 0.00994373 0 0 0 0.20728 0.00130366 -0.00865695 0.0305779 -0.00700394 0.0194031 0.20728 0.00130366 -0.00865695 1155.9 1155.9 1002.73 
88 1 1 0.112401 0.0900139 0.00994448 0 0 0 0.197949 0.00188631 -0.00587522 0.0204454 0.0122562 0.0234935 0.197949 0.00188631 -0.00587522 714.432 714.432 1001.69 
89 1 1 0.124501 0.0900126 0.00999136 0 0 0 0.122715 -0.0218993 -0.0230118 0.0026323 0.00846255 -0.0186702 0.122715 -0.0218993 -0.0230118 475.322 475.322 1001.13 
90 1 1 0.144585 0.0900106 0.00996453 0 0 0 0.174478 0.0066934 -0.0143909 -0.00115627 0.0108706 0.014714 0.174478 0.0066934 -0.0143909 568.002 568.002 1001.35 
91 1 1 0.00998645 0.0099912 0.00994406 0 0 0 0.0395369 -0.0160428 -0.0241924 -0.000346286 -0.0206758 0.0258891 0.0395369 -0.0160428 -0.0241924 881.604 881.604 1002.09 
92 1 1 0.0213982 0.0099761 0.0168604 0 0 0 -0.00344196 0.0162735 -0.104184 0.00215945 -0.00773149 -3.24369e-05 -0.00344196 0.0162735 -0.104184 756.994 756.994 1001.79 
93 1 1 0.0364624 0.00999926 0.0099717 0 0 0 0.0543647 0.00308657 -0.0338649 0.00479839 -0.0241274 -0.00548623 0.0543647 0.00308657 -0.0338649 597.549 597.549 1001.42 
94 1 1 0.0504196 0.00997728 0.00998574 0 0 0 0.0281374 0.0343721 0.00754704 -0.0195738 -0.0100349 -0.0265558 0.0281374 0.0343721 0.00754704 579.984 579.984 1001.38 
95 1 1 0.0692134 0.00992263 0.00997351 0 0 0 -0.00523807 -0.0482569 -0.00786088 -0.00895056 0.0416473 -0.0232173 -0.00523807 -0.0482569 -0.00786088 669.151 669.151 1001.59 
96 1 1 0.0941696 0.00995614 0.00994223 0 0 0 0.2103 0.00942542 -0.0270959 0.0377776 0.00694701 0.00320686 0.2103 0.00942542 -0.0270959 1443.37 1443.37 1003.4 
97 1 1 0.105097 0.00994782 0.00999694 0 0 0 0.271568 0.0071747 -0.0145711 0.0319233 0.0223686 -0.0303426 0.271568 0.0071747 -0.0145711 1001.97 1001.97 1002.37 
98 1 1 0.119137 0.00998593 0.00995369 0 0 0 0.209554 -0.0267602 -0.0130094 0.0102669 -0.00799739 0.0173266 0.209554 -0.0267602 -0.0130094 448.213 448.213 1001.06 
99 1 1 0.133347 0.00997518 0.00997022 0 0 0 0.163561 -0.0256067 0.033164 -0.0056312 0.00545581 0.00466691 0.163561 -0.0256067 0.033164 553.593 553.593 1001.31 
100 1 1 0.136229 0.00994787 0.010001 0 0 0 0.215069 0.00101109 0.0303783 0.00262273 0.0325706 -0.0431487 0.215069 0.00101109 0.0303783 667.66 667.66 1001.58 
101 1 1 0.00996499 0.0210817 0.0239586 0 0 0 0.0018723 -0.00109102 -0.0366249 0.0110505 -0.00268774 -0.00207927 0.0018723 -0.00109102 -0.0366249 746.436 746.436 1001.77 
102 1 1 0.0258399 0.0224464 0.00998544 0 0 0 0.0401123 0.0194894 -0.0288541 0.00160431 -0.00322048 -0.0343115 0.0401123 0.0194894 -0.0288541 671.986 671.986 1001.59 
103 1 1 0.0422578 0.0213994 0.0222561 0 0 0 0.141298 -0.0471705 -0.0371099 -0.00313608 -0.00298556 0.000715673 0.141298 -0.0471705 -0.0371099 611.793 611.793 1001.45 
104 1 1 0.0599175 0.023755 0.0207867 0 0 0 0.147825 0.00344009 -0.0057498 -0.00568035 0.0120442 0.0152235 0.147825 0.00344009 -0.0057498 816.737 816.737 1001.93 
105 1 1 0.0866767 0.0197137 0.0245122 0 0 0 0.238435 -0.0486412 0.101713 0.00411706 0.0394469 0.0190169 0.238435 -0.0486412 0.101713 907.507 907.507 1002.15 
106 1 1 0.107008 0.0216427 0.0219604 0 0 0 0.221209 0.00283802 0.0539473 0.00711115 0.0107265 -0.000896515 0.221209 0.00283802 0.0539473 621.878 621.878 1001.47 
107 1 1 0.124135 0.0218622 0.0236309 0 0 0 0.252773 0.0168644 0.0261084 0.00382466 -0.000507048 -0.00403771 0.252773 0.0168644 0.0261084 438.081 438.081 1001.04 
108 1 1 0.12099 0.0200717 0.00994946 0 0 0 0.170923 0.0185061 -0.00990339 0.00676993 0.000136742 0.0222257 0.170923 0.0185061 -0.00990339 508.136 508.136 1001.21 
109 1 1 0.144079 0.0207975 0.0224478 0 0 0 0.26695 0.0381195 9.9194e-05 -0.00578581 -0.000736239 -0.00188435 0.26695 0.0381195 9.9194e-05 384.264 384.264 1000.91 
110 1 1 0.155986 0.0248716 0.010031 0 0 0 0.148578 0.00738411 0.118357 0.00155229 -0.00164619 -0.063635 0.148578 0.00738411 0.118357 962.257 962.257 1002.28 
111 1 1 0.00998039 0.0304648 0.00997373 0 0 0 -0.0167362 -0.037942 0.0228454 0.000163202 -0.00408849 -0.00969914 -0.0167362 -0.037942 0.0228454 862.855 862.855 1002.04 
112 1 1 0.0289959 0.0180587 0.0181828 0 0 0 0.00639951 -0.032579 0.00701578 0.00248383 -0.00414403 0.0038969 0.00639951 -0.032579 0.00701578 626.065 626.065 1001.48 
113 1 1 0.0388166 0.0273752 0.00995519 0 0 0 0.108598 0.0750491 0.00509265 -0.00263341 -0.00875265 -0.00733571 0.108598 0.0750491 0.00509265 838.596 838.596 1001.98 
114 1 1 0.0480716 0.0220307 0.00996996 0 0 0 0.00322079 -0.0919606 -0.019555 -0.0126236 -0.000851498 -0.0142473 0.00322079 -0.0919606 -0.019555 381.69 381.69 1000.91 
115 1 1 0.0730632 0.0210953 0.0237392 0 0 0 0.159695 -0.0526166 -0.0114434 0.000421288 0.015809 0.010842 0.159695 -0.0526166 -0.0114434 806.298 806.298 1001.91 
116 1 1 0.0882586 0.0323897 0.0100032 0 0 0 0.0280821 -0.00417767 -0.0287613 0.00586689 0.015112 -0.0313638 0.0280821 -0.00417767 -0.0287613 -84.898 -84.898 999.798 
117 1 1 0.120411 0.0290059 0.0222345 0 0 0 0.271212 -0.0143244 -0.00107204 0.00410939 0.00182886 -0.00220202 0.271212 -0.0143244 -0.00107204 414.553 414.553 1000.98 
118 1 1 0.134373 0.0243331 0.0183818 0 0 0 0.276104 -0.0926937 0.0846869 0.000582637 0.00200478 -0.000618101 0.276104 -0.0926937 0.0846869 297.75 297.75 1000.71 
119 1 1 0.130558 0.0194992 0.00997125 0 0 0 0.17436 -0.0499896 -0.000741432 0.000793379 0.00379549 -0.000719929 0.17436 -0.0499896 -0.000741432 478.614 478.614 1001.14 
120 1 1 0.154151 0.0246401 0.0218872 0 0 0 0.289381 -0.00523557 0.0046848 -0.000217891 0.00420196 0.00262345 0.289381 -0.00523557 0.0046848 548.841 548.841 1001.3 
121 1 1 0.00998332 0.0407661 0.00993224 0 0 0 0.0141318 -0.0624197 -0.0168382 -0.0120911 0.00153249 0.0318339 0.0141318 -0.0624197 -0.0168382 763.997 763.997 1001.81 
122 1 1 0.0206029 0.0366449 0.0168292 0 0 0 0.0766432 -0.0252582 -0.0297056 0.00142032 -0.00221474 0.00314703 0.0766432 -0.0252582 -0.0297056 663.648 663.648 1001.57 
123 1 1 0.0293264 0.0318429 0.0099251 0 0 0 0.00281447 -0.0810299 -0.00587756 -0.00387156 -0.00258359 0.0242075 0.00281447 -0.0810299 -0.00587756 712.203 712.203 1001.69 
124 1 1 0.0576141 0.0313142 0.00995764 0 0 0 0.147048 0.00821168 0.0204377 -0.00520543 0.00721254 -0.00615444 0.147048 0.00821168 0.0204377 681.289 681.289 1001.61 
125 1 1 0.072944 0.039745 0.00995074 0 0 0 0.143498 0.0370418 -0.00172368 0.00711095 0.0111449 0.00732829 0.143498 0.0370418 -0.00172368 461.11 461.11 1001.09 
126 1 1 0.0922011 0.042225 0.00998896 0 0 0 0.179546 0.107763 0.0752955 -0.0026398 -0.00723061 -0.0298706 0.179546 0.107763 0.0752955 401.576 401.576 1000.95 
127 1 1 0.114956 0.0346289 0.00991643 0 0 0 0.177972 0.027899 -0.00862047 0.00797822 0.00713441 0.0553677 0.177972 0.027899 -0.00862047 511.393 511.393 1001.21 
128 1 1 0.128006 0.038487 0.00996835 0 0 0 0.155656 -0.0105854 -0.0287618 0.00231479 0.00465672 0.00509463 0.155656 -0.0105854 -0.0287618 445.286 445.286 1001.06 
129 1 1 0.12801 0.0281303 0.009977 0 0 0 0.157218 -0.0789398 -0.00335744 0.00513689 -0.000396808 -0.00520474 0.157218 -0.0789398 -0.00335744 493.798 493.798 1001.17 
130 1 1 0.14351 0.0342693 0.00991753 0 0 0 0.200452 0.00450341 -0.00355899 -0.00118779 0.00736878 0.0543073 0.200452 0.00450341 -0.00355899 515.423 515.423 1001.22 
131 1 1 0.00997899 0.05 0.00996711 0 0 0 -0.00398817 -1.53833e-12 -0.0101164 -0.00954637 9.39682e-13 -0.00250522 -0.00398817 -1.53833e-12 -0.0101164 681.177 681.177 1001.61 
132 1 1 0.0231652 0.05 0.0138677 0 0 0 -0.00671061 7.44284e-13 -0.220609 0.00472457 3.53316e-13 -0.0109399 -0.00671061 7.44284e-13 -0.220609 617.229 617.229 1001.46 
133 1 1 0.0353445 0.05 0.02209 0 0 0 0.0116613 4.93789e-13 -0.0179477 -0.00292949 -9.44108e-13 0.00597654 0.0116613 4.93789e-13 -0.0179477 569.064 569.064 1001.35 
134 1 1 0.0677099 0.05 0.0100161 0 0 0 0.126066 -1.54065e-12 0.00660146 0.00422403 -2.33708e-12 -0.0499686 0.126066 -1.54065e-12 0.00660146 373.083 373.083 1000.89 
135 1 1 0.0834325 0.05 0.0184755 0 0 0 0.175988 -1.45931e-12 0.0227155 -0.00109009 9.43868e-13 0.00676006 0.175988 -1.45931e-12 0.0227155 697.397 697.397 1001.65 
136 1 1 0.101744 0.05 0.0162398 0 0 0 0.292952 -1.85499e-12 0.00182777 0.00493253 5.72619e-12 0.00226328 0.292952 -1.85499e-12 0.00182777 601.025 601.025 1001.42 
137 1 1 0.121013 0.05 0.0226511 0 0 0 0.322029 6.98461e-12 0.0535392 0.00563302 1.18711e-11 -0.00578692 0.322029 6.98461e-12 0.0535392 291.776 291.776 1000.69 
138 1 1 0.11324 0.05 0.00988603 0 0 0 0.0425655 3.71689e-12 -0.0465373 0.00844686 1.07562e-11 0.0879155 0.0425655 3.71689e-12 -0.0465373 395.523 395.523 1000.94 
139 1 1 0.127424 0.05 0.00998442 0 0 0 0.209648 1.23224e-11 -0.0185733 0.00536937 1.70653e-11 -0.0112124 0.209648 1.23224e-11 -0.0185733 385.467 385.467 1000.92 
140 1 1 0.156598 0.05 0.0205057 0 0 0 0.298864 6.00553e-11 -0.0146737 0.00042846 1.79436e-11 -0.00550597 0.298864 6.00553e-11 -0.0146737 378.778 378.778 1000.9 
141 1 1 0.00998332 0.0592339 0.00993224 0 0 0 0.0141318 0.0624197 -0.0168382 -0.0120911 -0.00153249 0.0318339 0.0141318 0.0624197 -0.0168382 763.997 763.997 1001.81 
142 1 1 0.0206029 0.0633551 0.0168292 0 0 0 0.0766432 0.0252582 -0.0297056 0.00142032 0.00221474 0.00314703 0.0766432 0.0252582 -0.0297056 663.648 663.648 1001.57 
143 1 1 0.0293264 0.0681571 0.0099251 0 0 0 0.00281447 0.0810299 -0.00587756 -0.00387156 0.00258359 0.0242075 0.00281447 0.0810299 -0.00587756 712.203 712.203 1001.69 
144 1 1 0.0576141 0.0686858 0.00995764 0 0 0 0.147048 -0.00821168 0.0204377 -0.00520543 -0.00721254 -0.00615444 0.147048 -0.00821168 0.0204377 681.289 681.289 1001.61 
145 1 1 0.072944 0.060255 0.00995074 0 0 0 0.143498 -0.0370418 -0.00172368 0.00711095 -0.0111449 0.00732829 0.143498 -0.0370418 -0.00172368 461.11 461.11 1001.09 
146 1 1 0.0922011 0.057775 0.00998896 0 0 0 0.179546 -0.107763 0.0752955 -0.0026398 0.00723061 -0.0298706 0.179546 -0.107763 0.0752955 401.576 401.576 1000.95 
147 1 1 0.114956 0.0653711 0.00991643 0 0 0 0.177972 -0.027899 -0.00862047 0.00797822 -0.00713441 0.0553677 0.177972 -0.027899 -0.00862047 511.393 511.393 1001.21 
148 1 1 0.128006 0.061513 0.00996835 0 0 0 0.155656 0.0105854 -0.0287618 0.00231479 -0.00465672 0.00509463 0.155656 0.0105854 -0.0287618 445.286 445.286 1001.06 
149 1 1 0.12801 0.0718697 0.009977 0 0 0 0.157218 0.0789398 -0.00335744 0.00513689 0.000396808 -0.00520474 0.157218 0.0789398 -0.00335744 493.798 493.798 1001.17 
150 1 1 0.14351 0.0657307 0.00991753 0 0 0 0.200452 -0.00450341 -0.00355899 -0.00118779 -0.00736878 0.0543073 0.200452 -0.00450341 -0.00355899 515.423 515.423 1001.22 
151 1 1 0.00998039 0.0695352 0.00997373 0 0 0 -0.0167362 0.037942 0.0228454 0.000163202 0.00408849 -0.00969914 -0.0167362 0.037942 0.0228454 862.855 862.855 1002.04 
152 1 1 0.0289959 0.0819413 0.0181828 0 0 0 0.00639951 0.032579 0.00701578 0.00248383 0.00414403 0.0038969 0.00639951 0.032579 0.00701578 626.065 626.065 1001.48 
153 1 1 0.0388166 0.0726248 0.00995519 0 0 0 0.108598 -0.0750491 0.00509265 -0.00263341 0.00875265 -0.00733571 0.108598 -0.0750491 0.00509265 838.596 838.596 1001.98 
154 1 1 0.0480716 0.0779693 0.00996996 0 0 0 0.00322079 0.0919606 -0.019555 -0.0126236 0.000851498 -0.0142473 0.00322079 0.0919606 -0.019555 381.69 381.69 1000.91 
155 1 1 0.0730632 0.0789047 0.0237392 0 0 0 0.159695 0.0526166 -0.0114434 0.000421288 -0.015809 0.010842 0.159695 0.0526166 -0.0114434 806.298 806.298 1001.91 
156 1 1 0.0882586 0.0676103 0.0100032 0 0 0 0.0280821 0.00417767 -0.0287613 0.00586689 -0.015112 -0.0313638 0.0280821 0.00417767 -0.0287613 -84.898 -84.898 999.798 
157 1 1 0.120411 0.0709941 0.0222345 0 0 0 0.271212 0.0143244 -0.00107204 0.00410939 -0.00182886 -0.00220202 0.271212 0.0143244 -0.00107204 414.553 414.553 1000.98 
158 1 1 0.134373 0.0756669 0.0183818 0 0 0 0.276104 0.0926937 0.0846869 0.000582637 -0.00200478 -0.000618101 0.276104 0.0926937 0.0846869 297.75 297.75 1000.71 
159 1 1 0.130558 0.0805008 0.00997125 0 0 0 0.17436 0.0499896 -0.000741432 0.000793379 -0.00379549 -0.000719929 0.17436 0.0499896 -0.000741432 478.614 478.614 1001.14 
160 1 1 0.154151 0.0753599 0.0218872 0 0 0 0.289381 0.00523557 0.0046848 -0.000217891 -0.00420196 0.00262345 0.289381 0.00523557 0.0046848 548.841 548.841 1001.3 
161 1 1 0.00996499 0.0789183 0.0239586 0 0 0 0.0018723 0.00109102 -0.0366249 0.0110505 0.00268774 -0.00207927 0.0018723 0.00109102 -0.0366249 746.436 746.436 1001.77 
162 1 1 0.0258399 0.0775536 0.00998544 0 0 0 0.0401123 -0.0194894 -0.0288541 0.00160431 0.00322048 -0.0343115 0.0401123 -0.0194894 -0.0288541 671.986 671.986 1001.59 
163 1 1 0.0422578 0.0786006 0.0222561 0 0 0 0.141298 0.0471705 -0.0371099 -0.00313608 0.00298556 0.000715673 0.141298 0.0471705 -0.0371099 611.793 611.793 1001.45 
164 1 1 0.0599175 0.076245 0.0207867 0 0 0 0.147825 -0.00344009 -0.0057498 -0.00568035 -0.0120442 0.0152235 0.147825 -0.00344009 -0.0057498 816.737 816.737 1001.93 
165 1 1 0.0866767 0.0802863 0.0245122 0 0 0 0.238435 0.0486412 0.101713 0.00411706 -0.0394469 0.0190169 0.238435 0.0486412 0.101713 907.507 907.507 1002.15 
166 1 1 0.107008 0.0783573 0.0219604 0 0 0 0.221209 -0.00283802 0.0539473 0.00711115 -0.0107265 -0.000896515 0.221209 -0.00283802 0.0539473 621.878 621.878 1001.47 
167 1 1 0.124135 0.0781378 0.0236309 0 0 0 0.252773 -0.0168644 0.0261084 0.00382466 0.000507048 -0.00403771 0.252773 -0.0168644 0.0261084 438.081 438.081 1001.04 
168 1 1 0.12099 0.0799283 0.00994946 0 0 0 0.170923 -0.0185061 -0.00990339 0.00676993 -0.000136742 0.0222257 0.170923 -0.0185061 -0.00990339 508.136 508.136 1001.21 
169 1 1 0.144079 0.0792025 0.0224478 0 0 0 0.26695 -0.0381195 9.9194e-05 -0.00578581 0.000736239 -0.00188435 0.26695 -0.0381195 9.9194e-05 384.264 384.264 1000.91 
170 1 1 0.155986 0.0751284 0.010031 0 0 0 0.148578 -0.00738411 0.118357 0.00155229 0.00164619 -0.063635 0.148578 -0.00738411 0.118357 962.257 962.257 1002.28 
171 1 1 0.00998645 0.0900088 0.00994406 0 0 0 0.0395369 0.0160428 -0.0241924 -0.000346286 0.0206758 0.0258891 0.0395369 0.0160428 -0.0241924 881.604 881.604 1002.09 
172 1 1 0.0213982 0.0900239 0.0168604 0 0 0 -0.00344196 -0.0162735 -0.104184 0.00215945 0.00773149 -3.24369e-05 -0.00344196 -0.0162735 -0.104184 756.994 756.994 1001.79 
173 1 1 0.0364624 0.0900007 0.0099717 0 0 0 0.0543647 -0.00308657 -0.0338649 0.00479839 0.0241274 -0.00548623 0.0543647 -0.00308657 -0.0338649 597.549 597.549 1001.42 
174 1 1 0.0504196 0.0900227 0.00998574 0 0 0 0.0281374 -0.0343721 0.00754704 -0.0195738 0.0100349 -0.0265558 0.0281374 -0.0343721 0.00754704 579.984 579.984 1001.38 
175 1 1 0.0692134 0.0900774 0.00997351 0 0 0 -0.00523807 0.0482569 -0.00786088 -0.00895056 -0.0416473 -0.0232173 -0.00523807 0.0482569 -0.00786088 669.151 669.151 1001.59 
176 1 1 0.0941696 0.0900439 0.00994223 0 0 0 0.2103 -0.00942542 -0.0270959 0.0377776 -0.00694701 0.00320686 0.2103 -0.00942542 -0.0270959 1443.37 1443.37 1003.4 
177 1 1 0.105097 0.0900522 0.00999694 0 0 0 0.271568 -0.0071747 -0.0145711 0.0319233 -0.0223686 -0.0303426 0.271568 -0.0071747 -0.0145711 1001.97 1001.97 1002.37 
178 1 1 0.119137 0.0900141 0.00995369 0 0 0 0.209554 0.0267602 -0.0130094 0.0102669 0.00799739 0.0173266 0.209554 0.0267602 -0.0130094 448.213 448.213 1001.06 
179 1 1 0.133347 0.0900248 0.00997022 0 0 0 0.163561 0.0256067 0.033164 -0.0056312 -0.00545581 0.00466691 0.163561 0.0256067 0.033164 553.593 553.593 1001.31 
180 1 1 0.136229 0.0900521 0.010001 0 0 0 0.215069 -0.00101109 0.0303783 0.00262273 -0.0325706 -0.0431487 0.215069 -0.00101109 0.0303783 667.66 667.66 1001.58 
181 1 1 0.00997456 0.0100026 0.0210505 0 0 0 -0.016475 0.0115959 -0.0107916 0.00481216 -0.0466254 0.00333426 -0.016475 0.0115959 -0.0107916 752.317 752.317 1001.78 