ITEM: TIMESTEP
198000
ITEM: NUMBER OF ATOMS
2655
ITEM: BOX BOUNDS ff ff ff
0 0.5
0 0.1
0 0.5
ITEM: ATOMS id type type x y z ix iy iz vx vy vz fx fy fz vx vy vz p p rho 
1 1 1 0.00998464 0.00998136 0.00998107 0 0 0 -0.00247497 0.000709291 -0.000387163 0.000220541 0.0042167 -0.00400906 -0.00247497 0.000709291 -0.000387163 403.368 403.368 1000.96 
2 1 1 0.0414807 0.00997988 0.00998496 0 0 0 -0.00393553 0.00483684 -0.00511956 -0.000513734 0.00487139 -0.00481408 -0.00393553 0.00483684 -0.00511956 397.451 397.451 1000.94 
3 1 1 0.0368946 0.00997933 0.00998632 0 0 0 0.00119795 0.000351215 -0.00133612 -2.60707e-05 0.00585942 -0.00638678 0.00119795 0.000351215 -0.00133612 400.962 400.962 1000.95 
4 1 1 0.0724443 0.00998295 0.00998316 0 0 0 -0.0132241 -0.00580186 0.00549632 5.91279e-05 0.00204251 -0.00321364 -0.0132241 -0.00580186 0.00549632 391.996 391.996 1000.93 
5 1 1 0.0771102 0.00998371 0.00997995 0 0 0 -0.0064436 0.00391818 -0.0041747 -0.000183834 0.00107333 -0.000172866 -0.0064436 0.00391818 -0.0041747 393.072 393.072 1000.93 
6 1 1 0.0944466 0.00998055 0.00998389 0 0 0 -0.0178396 -0.000140176 -0.000507597 0.00027443 0.00415608 -0.00436445 -0.0178396 -0.000140176 -0.000507597 390.992 390.992 1000.93 
7 1 1 0.107828 0.00998292 0.00998064 0 0 0 -0.0203514 0.00424477 -0.0047718 -0.000188241 0.00136444 -0.00111004 -0.0203514 0.00424477 -0.0047718 389.512 389.512 1000.92 
8 1 1 0.11657 0.00998451 0.00997929 0 0 0 -0.0204808 -0.00104252 0.0011552 3.12646e-05 -5.36066e-05 2.17936e-05 -0.0204808 -0.00104252 0.0011552 390.823 390.823 1000.93 
9 1 1 0.125534 0.00998783 0.00997632 0 0 0 -0.0182784 -0.000698149 0.00149253 -0.000241264 -0.00340765 0.00346041 -0.0182784 -0.000698149 0.00149253 391.331 391.331 1000.93 
10 1 1 0.138431 0.00998493 0.00997909 0 0 0 -0.0335921 -0.00302143 0.00322008 0.000536314 -0.000742473 0.000363934 -0.0335921 -0.00302143 0.00322008 390.629 390.629 1000.93 
11 1 1 0.00997951 0.0211937 0.00997695 0 0 0 -0.00196658 0.0012903 0.000257617 0.00502194 -0.000393765 -0.00254217 -0.00196658 0.0012903 0.000257617 398.167 398.167 1000.95 
12 1 1 0.0378021 0.0355155 0.00997817 0 0 0 -0.00832194 -0.0300275 0.000219122 -0.000563372 0.000499716 -4.43727e-06 -0.00832194 -0.0300275 0.000219122 375.268 375.268 1000.89 
13 1 1 0.0218568 0.0218891 0.00997642 0 0 0 -0.00284618 0.00652237 -0.00181157 0.000259542 -0.000478735 0.00230697 -0.00284618 0.00652237 -0.00181157 403.648 403.648 1000.96 
14 1 1 0.0855789 0.0225702 0.00997701 0 0 0 -0.0275861 0.0132485 -0.000200003 -0.00016586 -0.000641236 0.00101149 -0.0275861 0.0132485 -0.000200003 381.835 381.835 1000.91 
15 1 1 0.0773783 0.0219317 0.00997771 0 0 0 -0.0198686 0.00948398 0.000957004 -0.000272613 -0.000153405 -6.16165e-06 -0.0198686 0.00948398 0.000957004 381.542 381.542 1000.91 
16 1 1 0.102852 0.0226351 0.00997739 0 0 0 -0.0366356 0.000129481 -0.0011412 -5.16254e-05 0.000232494 0.000349038 -0.0366356 0.000129481 -0.0011412 379.742 379.742 1000.9 
17 1 1 0.109386 0.0423531 0.00997769 0 0 0 -0.0262296 0.0140838 5.70316e-05 -0.000428273 -0.00041001 -0.000233859 -0.0262296 0.0140838 5.70316e-05 370.279 370.279 1000.88 
18 1 1 0.136675 0.029869 0.00997762 0 0 0 -0.0364226 -0.00735051 2.63307e-05 0.000130667 0.000209669 -0.000112838 -0.0364226 -0.00735051 2.63307e-05 379.675 379.675 1000.9 
19 1 1 0.114805 0.0229567 0.00997756 0 0 0 -0.0337517 -0.0186085 0.000548256 -9.11031e-06 -8.87174e-05 3.8026e-05 -0.0337517 -0.0186085 0.000548256 380.398 380.398 1000.9 
20 1 1 0.151293 0.0224377 0.0099775 0 0 0 -0.032492 0.00945357 8.42182e-05 -0.000136943 -9.94693e-05 -8.63013e-05 -0.032492 0.00945357 8.42182e-05 383.64 383.64 1000.91 
21 1 1 0.00999116 0.0285619 0.00997028 0 0 0 -0.00527018 0.00825599 0.00575704 -0.00643468 0.0001189 0.00425544 -0.00527018 0.00825599 0.00575704 393.822 393.822 1000.94 
22 1 1 0.0337743 0.0236543 0.00997865 0 0 0 -0.0004801 -0.0298095 -0.00109761 -3.35002e-05 -1.73141e-06 -0.000920189 -0.0004801 -0.0298095 -0.00109761 390.081 390.081 1000.93 
23 1 1 0.0712299 0.0466507 0.00997805 0 0 0 0.00374659 -0.00183217 2.61983e-05 -0.000262985 -7.16582e-05 -0.00013121 0.00374659 -0.00183217 2.61983e-05 372.737 372.737 1000.89 
24 1 1 0.0942582 0.0314134 0.00997827 0 0 0 -0.0294273 0.00198674 0.000340971 -0.000338805 -0.000333512 -0.000196204 -0.0294273 0.00198674 0.000340971 375.295 375.295 1000.89 
25 1 1 0.114587 0.0389363 0.00997735 0 0 0 -0.01865 -0.0117405 1.95447e-05 0.000549845 -0.000327681 -0.000228288 -0.01865 -0.0117405 1.95447e-05 372.47 372.47 1000.88 
26 1 1 0.10899 0.0224477 0.0099775 0 0 0 -0.0323382 0.0125831 -0.000170446 -0.000145327 -5.12178e-05 0.000252032 -0.0323382 0.0125831 -0.000170446 380.153 380.153 1000.9 
27 1 1 0.136651 0.0412601 0.00997773 0 0 0 -0.0213697 -0.0125775 1.04761e-05 -0.000462429 0.000352883 -0.000146906 -0.0213697 -0.0125775 1.04761e-05 373.937 373.937 1000.89 
28 1 1 0.115422 0.0322664 0.00997725 0 0 0 -0.0112777 0.0089433 6.38773e-05 -0.000350116 5.94484e-05 -0.00013652 -0.0112777 0.0089433 6.38773e-05 376.177 376.177 1000.89 
29 1 1 0.139352 0.0229809 0.00997732 0 0 0 -0.0241989 0.00626071 3.69624e-05 -0.000174484 -0.000106072 -0.000122854 -0.0241989 0.00626071 3.69624e-05 382.993 382.993 1000.91 
30 1 1 0.149966 0.0305394 0.00997788 0 0 0 -0.0198916 -0.00855387 1.09861e-05 -2.33506e-05 -0.000317812 -0.000174478 -0.0198916 -0.00855387 1.09861e-05 380.196 380.196 1000.9 
31 1 1 0.00997939 0.0385866 0.00997815 0 0 0 0.00535568 -0.00883266 -0.00550615 0.00580028 -0.000263285 -0.00374828 0.00535568 -0.00883266 -0.00550615 391.833 391.833 1000.93 
32 1 1 0.0222305 0.0398804 0.00997909 0 0 0 -0.000808715 -0.0128542 -0.00138007 -0.000227359 0.000206374 -0.000670922 -0.000808715 -0.0128542 -0.00138007 391.887 391.887 1000.93 
33 1 1 0.0590579 0.0217416 0.00997784 0 0 0 -0.00978758 0.000110688 -0.000417477 0.000250126 0.000399157 2.51262e-05 -0.00978758 0.000110688 -0.000417477 382.257 382.257 1000.91 
34 1 1 0.06277 0.0337748 0.00997816 0 0 0 -0.0197281 0.0145328 8.23893e-05 0.000100711 0.000279217 -6.63052e-05 -0.0197281 0.0145328 8.23893e-05 378.772 378.772 1000.9 
35 1 1 0.0835859 0.0364894 0.00997787 0 0 0 -0.0172036 0.0173062 2.74197e-05 -0.000505509 -9.32493e-05 -0.000356566 -0.0172036 0.0173062 2.74197e-05 375.421 375.421 1000.89 
36 1 1 0.106268 0.0307111 0.00997795 0 0 0 -0.0220435 -0.000173925 6.95212e-05 0.00012135 -0.000342792 -8.79897e-05 -0.0220435 -0.000173925 6.95212e-05 375.608 375.608 1000.89 
37 1 1 0.12568 0.0371676 0.00997764 0 0 0 -0.0170232 0.00850408 1.12562e-05 0.0001801 -2.22257e-05 -0.000185495 -0.0170232 0.00850408 1.12562e-05 374.618 374.618 1000.89 
38 1 1 0.133119 0.0355312 0.00997754 0 0 0 -0.016683 -0.00968904 1.74453e-05 -0.000172181 -0.000156051 -0.000162594 -0.016683 -0.00968904 1.74453e-05 376.144 376.144 1000.89 
39 1 1 0.156927 0.0381041 0.00997764 0 0 0 -0.036357 0.00940031 -2.37272e-06 -0.000280514 0.000321642 -0.000109286 -0.036357 0.00940031 -2.37272e-06 377.797 377.797 1000.9 
40 1 1 0.170207 0.04017 0.00997683 0 0 0 -0.0240194 0.00306688 -3.50865e-05 -0.000462032 0.000169524 5.47121e-06 -0.0240194 0.00306688 -3.50865e-05 380.61 380.61 1000.9 
41 1 1 0.00998214 0.0526165 0.00997723 0 0 0 0.00804394 -0.00575167 -0.00688107 0.0033822 -8.9348e-05 -0.00151771 0.00804394 -0.00575167 -0.00688107 394.144 394.144 1000.94 
42 1 1 0.0411591 0.0639632 0.00997849 0 0 0 -0.00805455 -0.0013533 7.20481e-05 -0.00049708 0.000271069 -0.000287929 -0.00805455 -0.0013533 7.20481e-05 370.045 370.045 1000.88 
43 1 1 0.0598218 0.053263 0.00997805 0 0 0 -0.00742949 -0.0131262 -1.03022e-05 -1.71013e-05 -0.000244124 -0.000151576 -0.00742949 -0.0131262 -1.03022e-05 371.108 371.108 1000.88 
44 1 1 0.0768044 0.0422292 0.00997769 0 0 0 -0.00499733 -0.00210276 -3.31932e-05 1.62141e-06 -3.15226e-05 -8.97221e-05 -0.00499733 -0.00210276 -3.31932e-05 374.278 374.278 1000.89 
45 1 1 0.0887745 0.0470344 0.00997786 0 0 0 -0.00236732 0.0193753 -1.58586e-05 -0.000710308 0.000336944 -0.000137265 -0.00236732 0.0193753 -1.58586e-05 372.062 372.062 1000.88 
46 1 1 0.100316 0.0502113 0.00997767 0 0 0 -0.0192945 -0.00143641 2.10505e-05 0.000277928 0.000198767 -0.000120605 -0.0192945 -0.00143641 2.10505e-05 371.366 371.366 1000.88 
47 1 1 0.106437 0.0483017 0.00997784 0 0 0 -0.0028608 -0.0140886 3.49262e-05 -2.94445e-05 0.000252709 -0.000216604 -0.0028608 -0.0140886 3.49262e-05 370.011 370.011 1000.88 
48 1 1 0.132979 0.048082 0.00997744 0 0 0 -0.020723 -0.00126876 1.01893e-05 -0.000262548 0.00018147 -0.00015054 -0.020723 -0.00126876 1.01893e-05 371.537 371.537 1000.88 
49 1 1 0.118752 0.0493315 0.0099778 0 0 0 -0.0220101 -0.0140529 3.72361e-05 0.000275506 -4.22126e-05 -0.000223064 -0.0220101 -0.0140529 3.72361e-05 371.007 371.007 1000.88 
50 1 1 0.156001 0.0528295 0.00997721 0 0 0 -0.0142007 0.00214848 -4.5325e-06 -0.000347786 -0.000517263 -1.43261e-06 -0.0142007 0.00214848 -4.5325e-06 376.488 376.488 1000.89 
51 1 1 0.00998992 0.0616141 0.00997273 0 0 0 -0.00666093 0.0042692 0.00619141 -0.00478516 0.000739926 0.00292712 -0.00666093 0.0042692 0.00619141 394.512 394.512 1000.94 
52 1 1 0.0244316 0.051263 0.00997918 0 0 0 -0.025008 -0.0137947 -0.00121877 -0.000628257 9.61076e-06 -0.000154166 -0.025008 -0.0137947 -0.00121877 388.996 388.996 1000.92 
53 1 1 0.0697656 0.0608264 0.00997846 0 0 0 -0.0276993 -0.0124825 6.74768e-06 -0.000399301 -0.000233576 -0.000182288 -0.0276993 -0.0124825 6.74768e-06 368.691 368.691 1000.88 
54 1 1 0.0869274 0.0592496 0.00997786 0 0 0 -0.0180189 -0.00228384 7.36671e-05 0.000322201 -0.000203495 -0.000263483 -0.0180189 -0.00228384 7.36671e-05 374.04 374.04 1000.89 
55 1 1 0.0921022 0.0560594 0.00997806 0 0 0 0.00356794 0.00911939 1.8566e-05 -0.000282012 -7.37549e-07 -0.000195359 0.00356794 0.00911939 1.8566e-05 373.711 373.711 1000.89 
56 1 1 0.10638 0.0686462 0.00997819 0 0 0 -0.0250056 0.010065 4.69606e-05 -0.000351649 0.00029886 -0.000213378 -0.0250056 0.010065 4.69606e-05 377.289 377.289 1000.9 
57 1 1 0.131459 0.0613329 0.00997779 0 0 0 -0.01372 -0.0251933 3.30536e-05 -3.16415e-05 0.00052212 -0.000176621 -0.01372 -0.0251933 3.30536e-05 374.694 374.694 1000.89 
58 1 1 0.138268 0.0628507 0.00997793 0 0 0 -0.0165187 0.00355099 1.3685e-05 -0.000351119 0.000243396 -0.000210135 -0.0165187 0.00355099 1.3685e-05 376.168 376.168 1000.89 
59 1 1 0.150912 0.065168 0.00997731 0 0 0 -0.0444014 -0.000771092 -3.9558e-06 -0.000493201 6.24866e-05 -0.000173539 -0.0444014 -0.000771092 -3.9558e-06 379.069 379.069 1000.9 
60 1 1 0.160551 0.0640062 0.00997739 0 0 0 -0.0358935 0.00292743 -2.95975e-05 -0.000255148 3.6844e-06 -0.000104854 -0.0358935 0.00292743 -2.95975e-05 378.456 378.456 1000.9 
61 1 1 0.0099848 0.0718203 0.00997515 0 0 0 -0.00196839 0.000909341 0.00195801 0.000375332 -4.94481e-05 0.000274627 -0.00196839 0.000909341 0.00195801 393.366 393.366 1000.93 
62 1 1 0.0474666 0.0618053 0.00997823 0 0 0 -0.0262775 0.00902353 3.20921e-05 -0.000100107 1.87805e-05 -8.51339e-05 -0.0262775 0.00902353 3.20921e-05 367.87 367.87 1000.87 
63 1 1 0.0814236 0.0637421 0.0099777 0 0 0 -0.0329063 0.00183444 4.4626e-05 -0.000272894 0.000136283 -0.000185687 -0.0329063 0.00183444 4.4626e-05 373.43 373.43 1000.89 
64 1 1 0.0935234 0.0663728 0.00997802 0 0 0 -0.0206313 0.0060915 0.000125541 -0.000607434 0.000221574 -0.000290906 -0.0206313 0.0060915 0.000125541 375.197 375.197 1000.89 
65 1 1 0.119844 0.0616092 0.00997763 0 0 0 -0.0122038 0.00482477 1.22893e-05 -0.00013217 -0.00025035 -0.000197389 -0.0122038 0.00482477 1.22893e-05 374.397 374.397 1000.89 
66 1 1 0.11036 0.0774168 0.00997783 0 0 0 -0.0231381 0.00296404 -5.62319e-05 1.17076e-05 0.000271421 -1.13919e-05 -0.0231381 0.00296404 -5.62319e-05 381.043 381.043 1000.9 
67 1 1 0.137608 0.0529515 0.00997772 0 0 0 -0.0108517 -0.0152856 1.71167e-05 -0.000280103 2.6769e-05 -0.000157593 -0.0108517 -0.0152856 1.71167e-05 371.847 371.847 1000.88 
68 1 1 0.11862 0.0674316 0.00997785 0 0 0 -0.0265467 0.00151549 8.65155e-05 -0.000127563 3.61482e-05 -0.000222162 -0.0265467 0.00151549 8.65155e-05 375.857 375.857 1000.89 
69 1 1 0.138381 0.0779026 0.00997738 0 0 0 -0.0230167 -0.00245372 -3.94724e-05 6.60242e-05 -0.000118186 -3.30047e-05 -0.0230167 -0.00245372 -3.94724e-05 383.344 383.344 1000.91 
70 1 1 0.148838 0.0718045 0.00997776 0 0 0 -0.0238533 -0.00290428 1.40964e-05 -3.82786e-05 9.60548e-05 -0.000164446 -0.0238533 -0.00290428 1.40964e-05 381.664 381.664 1000.91 
71 1 1 0.00998375 0.0791455 0.00997351 0 0 0 0.00936855 -0.0113678 -0.00493475 0.0012401 0.000138845 0.00210509 0.00936855 -0.0113678 -0.00493475 394.482 394.482 1000.94 
72 1 1 0.0280148 0.059658 0.00997938 0 0 0 -0.0101402 -0.0150683 0.00046525 -0.000423376 0.000203394 -0.000585067 -0.0101402 -0.0150683 0.00046525 384.668 384.668 1000.91 
73 1 1 0.0340636 0.0769837 0.00997673 0 0 0 0.00491067 -0.00859705 -0.00118256 -0.000645042 0.00059188 0.00095041 0.00491067 -0.00859705 -0.00118256 377.282 377.282 1000.9 
74 1 1 0.0937297 0.0773484 0.0099779 0 0 0 -0.0181497 -0.00910136 0.000115789 -0.000302895 0.000283921 -0.000159698 -0.0181497 -0.00910136 0.000115789 380.007 380.007 1000.9 
75 1 1 0.0812641 0.0775132 0.00997821 0 0 0 -0.0269891 0.00327552 -0.000610583 -0.000419035 7.7368e-05 -0.000829391 -0.0269891 0.00327552 -0.000610583 380.264 380.264 1000.9 
76 1 1 0.104325 0.0776305 0.00997833 0 0 0 -0.0137827 0.00639323 -3.1116e-05 0.000389282 -0.000283671 -0.00020834 -0.0137827 0.00639323 -3.1116e-05 381.547 381.547 1000.91 
77 1 1 0.109336 0.0574602 0.00997788 0 0 0 -0.0118523 0.0199266 1.0369e-05 -0.000378578 0.000459365 -0.000229343 -0.0118523 0.0199266 1.0369e-05 372.103 372.103 1000.88 
78 1 1 0.13851 0.0701995 0.00997777 0 0 0 -0.0231217 0.00771475 -6.95802e-06 -0.000227084 -0.00011082 -0.00016883 -0.0231217 0.00771475 -6.95802e-06 380.09 380.09 1000.9 
79 1 1 0.116114 0.0760031 0.00997764 0 0 0 -0.0143191 -0.00777923 2.09779e-05 -0.000272693 0.000161166 -4.90612e-05 -0.0143191 -0.00777923 2.09779e-05 379.665 379.665 1000.9 
80 1 1 0.152371 0.0779882 0.00997706 0 0 0 -0.0274203 0.00133216 0.000167213 -0.000286841 1.49803e-05 0.000161675 -0.0274203 0.00133216 0.000167213 383.757 383.757 1000.91 
81 1 1 0.00998578 0.0900163 0.00997736 0 0 0 0.00988803 0.0118829 0.00423115 -0.000263452 -0.0017686 -0.000157365 0.00988803 0.0118829 0.00423115 400.674 400.674 1000.95 
82 1 1 0.0326695 0.0900134 0.00997903 0 0 0 -0.0175903 -0.00352174 -0.00235657 -4.80258e-05 0.00131412 0.00170526 -0.0175903 -0.00352174 -0.00235657 401.465 401.465 1000.95 
83 1 1 0.027669 0.09001 0.00997684 0 0 0 -0.0024804 0.00344595 0.00389099 -0.000585238 0.00486152 0.00424973 -0.0024804 0.00344595 0.00389099 403.857 403.857 1000.96 
84 1 1 0.0728616 0.090012 0.00997596 0 0 0 -0.00641451 -0.00254034 -0.00153156 -0.000608025 0.00354507 0.00398165 -0.00641451 -0.00254034 -0.00153156 392.834 392.834 1000.93 
85 1 1 0.0769299 0.0900191 0.0099843 0 0 0 -0.0248876 0.00296879 0.0031338 0.000315814 -0.00358462 -0.00439225 -0.0248876 0.00296879 0.0031338 393.274 393.274 1000.93 
86 1 1 0.0948149 0.0900177 0.00998135 0 0 0 -0.0289671 -0.00429762 -0.0045696 0.00032481 -0.00209334 -0.00161262 -0.0289671 -0.00429762 -0.0045696 394.53 394.53 1000.94 
87 1 1 0.108579 0.0900205 0.00998537 0 0 0 -0.0278972 0.00487584 0.00449934 8.23277e-07 -0.00457001 -0.00556048 -0.0278972 0.00487584 0.00449934 393.353 393.353 1000.93 
88 1 1 0.117382 0.0900211 0.00998603 0 0 0 -0.0318893 0.00269978 0.00216745 -7.18141e-05 -0.00551087 -0.00626922 -0.0318893 0.00269978 0.00216745 391.68 391.68 1000.93 
89 1 1 0.126363 0.0900126 0.00997632 0 0 0 -0.0292976 -0.00437766 -0.00432382 0.000238619 0.00289522 0.00323943 -0.0292976 -0.00437766 -0.00432382 389.425 389.425 1000.92 
90 1 1 0.139692 0.0900147 0.00997801 0 0 0 -0.0355653 0.0056028 0.00606427 0.000357712 0.0017424 0.00120127 -0.0355653 0.0056028 0.00606427 387.745 387.745 1000.92 
91 1 1 0.00999042 0.00998465 0.0099729 0 0 0 0.0045556 -0.000857237 -0.00342685 -0.00555335 0.00093188 0.00418486 0.0045556 -0.000857237 -0.00342685 403.389 403.389 1000.96 
92 1 1 0.0325798 0.0099873 0.00997874 0 0 0 -0.0109123 -0.000110995 0.000641311 0.000270691 -0.0019555 0.00134585 -0.0109123 -0.000110995 0.000641311 405.782 405.782 1000.96 
93 1 1 0.0455656 0.00998538 0.00997924 0 0 0 -0.0105262 0.00151165 -0.000990354 0.000460888 -0.000705734 0.000951745 -0.0105262 0.00151165 -0.000990354 395.313 395.313 1000.94 
94 1 1 0.0547681 0.00999027 0.00997396 0 0 0 -0.00643363 -0.00499469 0.00572659 -0.000150166 -0.00588466 0.00566986 -0.00643363 -0.00499469 0.00572659 391.934 391.934 1000.93 
95 1 1 0.0814654 0.00998698 0.0099791 0 0 0 -0.0112265 -0.00816483 0.0085352 4.36487e-05 -0.00214222 0.000988287 -0.0112265 -0.00816483 0.0085352 393.824 393.824 1000.94 
96 1 1 0.103465 0.00997989 0.00998397 0 0 0 -0.0168697 0.00357359 -0.00453884 -0.000226144 0.00447185 -0.00439251 -0.0168697 0.00357359 -0.00453884 389.275 389.275 1000.92 
97 1 1 0.1123 0.009989 0.00997557 0 0 0 -0.014917 -0.00606112 0.00687279 -1.98859e-05 -0.00453291 0.00385342 -0.014917 -0.00606112 0.00687279 390.193 390.193 1000.93 
98 1 1 0.121057 0.00998016 0.00998355 0 0 0 -0.0218047 0.00299422 -0.00337537 -0.000185933 0.00424233 -0.00401003 -0.0218047 0.00299422 -0.00337537 391.157 391.157 1000.93 
99 1 1 0.129899 0.00998304 0.00998128 0 0 0 -0.0224425 -0.00213739 0.00226174 7.51099e-05 0.00120839 -0.00160566 -0.0224425 -0.00213739 0.00226174 391.312 391.312 1000.93 
100 1 1 0.134208 0.00998326 0.0099802 0 0 0 -0.0128767 0.00405905 -0.00426559 8.30681e-05 0.000974598 -0.00046738 -0.0128767 0.00405905 -0.00426559 391.084 391.084 1000.93 
101 1 1 0.00999402 0.0229573 0.0250606 0 0 0 0.000425236 0.0105897 -0.00465951 -0.00235091 0.000135332 -0.000258528 0.000425236 0.0105897 -0.00465951 341.202 341.202 1000.81 
102 1 1 0.00998149 0.0236307 0.00997492 0 0 0 0.00356295 -0.0112172 -0.00349196 0.00297245 -0.000274305 -0.000475998 0.00356295 -0.0112172 -0.00349196 396.577 396.577 1000.94 
103 1 1 0.0249777 0.0240422 0.0229826 0 0 0 0.00156381 -0.00673261 0.0107804 -0.000556515 0.000226462 -0.00126896 0.00156381 -0.00673261 0.0107804 292.712 292.712 1000.7 
104 1 1 0.0856244 0.0226528 0.0342859 0 0 0 0.0373433 -0.00889341 -0.0156577 -9.63367e-06 -3.54292e-05 -6.77949e-05 0.0373433 -0.00889341 -0.0156577 228.379 228.379 1000.54 
105 1 1 0.130772 0.0405136 0.0495052 0 0 0 0.0613745 0.0126502 -0.00303564 -3.35616e-05 -0.000152483 -0.000632727 0.0613745 0.0126502 -0.00303564 149.798 149.798 1000.36 
106 1 1 0.126912 0.0225494 0.00997767 0 0 0 -0.0303657 0.00227743 0.000123018 -0.000132296 0.000179588 -0.000180484 -0.0303657 0.00227743 0.000123018 381.733 381.733 1000.91 
107 1 1 0.143957 0.0218475 0.0343067 0 0 0 0.0389785 -0.00767405 -0.00717646 -0.000205173 9.32614e-05 -7.7979e-05 0.0389785 -0.00767405 -0.00717646 237.713 237.713 1000.57 
108 1 1 0.145673 0.0343173 0.00997729 0 0 0 -0.0142711 -0.00849443 1.88131e-05 -0.000690713 1.72909e-05 -0.000129653 -0.0142711 -0.00849443 1.88131e-05 378.37 378.37 1000.9 
109 1 1 0.158072 0.0234424 0.022111 0 0 0 0.0353016 0.00980884 0.00187897 0.000203472 -8.25428e-05 4.16993e-05 0.0353016 0.00980884 0.00187897 316.15 316.15 1000.75 
110 1 1 0.169406 0.0224177 0.00997727 0 0 0 -0.033209 -0.0175856 6.22733e-05 -0.000217583 9.81292e-05 -0.000145099 -0.033209 -0.0175856 6.22733e-05 385.489 385.489 1000.92 
111 1 1 0.00998453 0.0339086 0.00997468 0 0 0 0.00112818 0.00496125 -0.00107769 0.000630907 9.50997e-05 -0.000413625 0.00112818 0.00496125 -0.00107769 391.919 391.919 1000.93 
112 1 1 0.0244856 0.0223073 0.0409571 0 0 0 0.0036603 -0.00428219 0.00363063 -0.000667451 -0.000117525 -0.000942063 0.0036603 -0.00428219 0.00363063 181.339 181.339 1000.43 
113 1 1 0.0501491 0.0313857 0.0099778 0 0 0 -0.00557477 0.0147455 0.000146447 -0.000100795 2.7782e-05 9.58769e-05 -0.00557477 0.0147455 0.000146447 374.532 374.532 1000.89 
114 1 1 0.0663623 0.022207 0.00997854 0 0 0 -0.0218757 -0.00255944 -0.000946287 -9.11906e-05 0.00051777 -0.000972982 -0.0218757 -0.00255944 -0.000946287 380.964 380.964 1000.9 
115 1 1 0.0674551 0.0224862 0.035746 0 0 0 0.041206 -0.0117601 -0.0131189 -0.000276814 -0.000371928 -0.000401817 0.041206 -0.0117601 -0.0131189 217.187 217.187 1000.52 
116 1 1 0.103246 0.0363927 0.00997783 0 0 0 -0.0103933 -0.0133121 0.00014644 8.91967e-05 0.000529363 -0.000163901 -0.0103933 -0.0133121 0.00014644 372.606 372.606 1000.88 
117 1 1 0.13496 0.0227293 0.0219136 0 0 0 0.0461493 -0.00683729 -0.00269965 8.13155e-05 2.1562e-06 -7.59785e-05 0.0461493 -0.00683729 -0.00269965 309.517 309.517 1000.74 
118 1 1 0.151089 0.021358 0.0235687 0 0 0 0.0445043 0.0140755 -0.0109169 -0.000167879 0.000109041 -0.000653507 0.0445043 0.0140755 -0.0109169 305.414 305.414 1000.73 
119 1 1 0.144912 0.0220964 0.00997778 0 0 0 -0.0457117 -0.0193901 -2.02076e-05 0.00018764 0.000238846 -0.000289819 -0.0457117 -0.0193901 -2.02076e-05 383.491 383.491 1000.91 
120 1 1 0.171549 0.0229813 0.0364722 0 0 0 0.031936 0.00483689 -0.0193231 -0.000318471 -1.8688e-06 -0.000537252 0.031936 0.00483689 -0.0193231 228.249 228.249 1000.54 
121 1 1 0.00998908 0.0431138 0.00997215 0 0 0 -0.00221183 -0.000770287 0.00295835 -0.00392858 -8.8402e-05 0.00252124 -0.00221183 -0.000770287 0.00295835 392.901 392.901 1000.93 
122 1 1 0.0232837 0.0342719 0.00997952 0 0 0 0.00644245 0.0109486 -0.000462349 -0.00027751 9.83047e-05 -0.000722614 0.00644245 0.0109486 -0.000462349 393.716 393.716 1000.93 
123 1 1 0.0220691 0.027317 0.00997805 0 0 0 -0.000790611 0.010271 -0.00013599 0.000186429 0.000237111 0.000800809 -0.000790611 0.010271 -0.00013599 398.581 398.581 1000.95 
124 1 1 0.0755311 0.0335608 0.00997786 0 0 0 -0.0181146 -0.00682398 -2.1677e-05 0.000336344 0.000415997 -0.000210168 -0.0181146 -0.00682398 -2.1677e-05 377.15 377.15 1000.9 
125 1 1 0.0887976 0.0375525 0.00997834 0 0 0 -0.01081 -0.00221856 0.000105725 0.000418571 -0.000613407 -0.000337644 -0.01081 -0.00221856 0.000105725 373.702 373.702 1000.89 
126 1 1 0.124044 0.030475 0.00997782 0 0 0 -0.0375687 -0.00579907 4.37232e-05 -0.000145298 -0.000310487 -0.000181058 -0.0375687 -0.00579907 4.37232e-05 377.619 377.619 1000.9 
127 1 1 0.163802 0.0424076 0.00997689 0 0 0 -0.0146651 0.00679819 -2.62937e-05 -1.04168e-05 -0.000488967 2.71845e-05 -0.0146651 0.00679819 -2.62937e-05 379.372 379.372 1000.9 
128 1 1 0.142793 0.0412924 0.00997783 0 0 0 -0.0152066 -0.0133528 1.87203e-05 0.00020669 -0.000339953 -0.000129639 -0.0152066 -0.0133528 1.87203e-05 374.756 374.756 1000.89 
129 1 1 0.132679 0.022307 0.00997745 0 0 0 -0.0432735 0.000379007 4.26918e-06 4.73455e-05 8.65262e-05 -0.000107499 -0.0432735 0.000379007 4.26918e-06 382.706 382.706 1000.91 
130 1 1 0.175173 0.0315718 0.00997712 0 0 0 -0.0423654 0.00133829 -7.87544e-05 -0.000303765 -4.89264e-05 -7.82886e-05 -0.0423654 0.00133829 -7.87544e-05 384.08 384.08 1000.91 
131 1 1 0.00998753 0.0479004 0.0099747 0 0 0 -0.001617 -0.000723844 0.00220366 -0.00194666 6.94393e-05 0.000602478 -0.001617 -0.000723844 0.00220366 393.793 393.793 1000.93 
132 1 1 0.0441314 0.0484974 0.00997873 0 0 0 -0.0337186 0.011527 -4.28076e-05 -0.000202157 0.000233564 -3.04547e-05 -0.0337186 0.011527 -4.28076e-05 372.01 372.01 1000.88 
133 1 1 0.0489103 0.05432 0.00997876 0 0 0 -0.00869791 0.00814152 7.04217e-05 0.000170054 -0.0001812 -0.000165171 -0.00869791 0.00814152 7.04217e-05 369.44 369.44 1000.88 
134 1 1 0.0821062 0.0481089 0.00997774 0 0 0 -0.0095944 -0.00248627 1.50426e-05 0.000431365 -0.000109973 -0.000165132 -0.0095944 -0.00248627 1.50426e-05 373.288 373.288 1000.89 
135 1 1 0.126577 0.0499141 0.00997742 0 0 0 -0.0230126 0.0087248 2.38112e-05 -0.000193496 0.00011089 -0.000141563 -0.0230126 0.0087248 2.38112e-05 372.164 372.164 1000.88 
136 1 1 0.110482 0.0537684 0.0229938 0 0 0 0.00766919 -0.00416626 -0.000399704 -0.000324174 0.000147724 -0.00062296 0.00766919 -0.00416626 -0.000399704 288.524 288.524 1000.69 
137 1 1 0.139387 0.0471612 0.0232715 0 0 0 0.0385926 0.0179904 0.00587036 -0.000205534 4.6055e-05 -0.000700098 0.0385926 0.0179904 0.00587036 295.825 295.825 1000.7 
138 1 1 0.149363 0.0493351 0.00997746 0 0 0 -0.0349273 0.00222538 1.52302e-05 -0.000208821 -0.000173734 -8.02259e-05 -0.0349273 0.00222538 1.52302e-05 374.615 374.615 1000.89 
139 1 1 0.151244 0.0421586 0.00997716 0 0 0 -0.030517 -0.0127435 1.72954e-05 0.000323988 -0.000170114 -0.000130367 -0.030517 -0.0127435 1.72954e-05 375.01 375.01 1000.89 
140 1 1 0.190965 0.0520887 0.0222313 0 0 0 0.0403667 -0.0102255 0.00129274 -2.34774e-05 0.000104087 -0.000416212 0.0403667 -0.0102255 0.00129274 312.023 312.023 1000.74 
141 1 1 0.00998126 0.0574218 0.00997835 0 0 0 0.00336628 -0.000886208 -0.00362559 0.00388172 4.70125e-05 -0.00257395 0.00336628 -0.000886208 -0.00362559 394.358 394.358 1000.94 
142 1 1 0.0220424 0.057103 0.00997879 0 0 0 -0.016773 0.00509553 -0.000714866 -0.000426236 0.000307818 -0.000213401 -0.016773 0.00509553 -0.000714866 391.162 391.162 1000.93 
143 1 1 0.0221255 0.06489 0.00997797 0 0 0 -0.00613974 0.00330475 0.0020272 0.000102536 0.000308573 0.000291801 -0.00613974 0.00330475 0.0020272 388.677 388.677 1000.92 
144 1 1 0.0857502 0.0700583 0.00997777 0 0 0 -0.00659232 -0.00515096 -4.55495e-05 -0.000240708 -9.06167e-05 -0.000164764 -0.00659232 -0.00515096 -4.55495e-05 374.938 374.938 1000.89 
145 1 1 0.0989301 0.0652396 0.00997856 0 0 0 -0.0220402 -0.00706288 4.44532e-05 0.000150784 7.58707e-05 -0.000246323 -0.0220402 -0.00706288 4.44532e-05 375.687 375.687 1000.89 
146 1 1 0.127827 0.0682143 0.00997756 0 0 0 -0.0107578 -0.0149152 2.15781e-05 -4.91641e-06 0.00018007 -0.000195921 -0.0107578 -0.0149152 2.15781e-05 376.632 376.632 1000.89 
147 1 1 0.153706 0.0596415 0.00997714 0 0 0 -0.0110919 -0.0135698 -8.20388e-06 0.000181915 0.000125842 -8.83729e-05 -0.0110919 -0.0135698 -8.20388e-06 377.11 377.11 1000.9 
148 1 1 0.14378 0.0519923 0.00997771 0 0 0 -0.0211814 -0.00500743 1.23186e-05 0.000212151 0.000289515 -0.000104049 -0.0211814 -0.00500743 1.23186e-05 373.237 373.237 1000.89 
149 1 1 0.132559 0.0769522 0.00997772 0 0 0 -0.0362492 -0.0113951 -0.000163183 -0.000135894 0.000694786 -0.0001614 -0.0362492 -0.0113951 -0.000163183 381.904 381.904 1000.91 
150 1 1 0.180642 0.0697994 0.00997721 0 0 0 -0.0237385 0.00567417 -2.90949e-05 -5.94864e-05 -0.000110243 -0.000129352 -0.0237385 0.00567417 -2.90949e-05 385.267 385.267 1000.91 
151 1 1 0.0099865 0.0663117 0.00997333 0 0 0 -0.000385421 0.00681077 2.21716e-05 -0.00137139 0.000156841 0.00210972 -0.000385421 0.00681077 2.21716e-05 394.259 394.259 1000.94 
152 1 1 0.0246067 0.0745335 0.0317575 0 0 0 -0.0307144 -0.00126482 -0.000219753 -0.000907713 -7.29453e-05 -0.000101548 -0.0307144 -0.00126482 -0.000219753 242.687 242.687 1000.58 
153 1 1 0.0513689 0.0781984 0.0099793 0 0 0 0.0093067 0.0042366 0.000209453 -0.00075303 0.000236773 -0.00147508 0.0093067 0.0042366 0.000209453 375.682 375.682 1000.89 
154 1 1 0.0618477 0.0780107 0.00997944 0 0 0 -0.00171096 -0.00869584 0.000692025 -0.000870769 -0.000332245 -0.00165447 -0.00171096 -0.00869584 0.000692025 377.89 377.89 1000.9 
155 1 1 0.0590031 0.0769001 0.0286354 0 0 0 0.0280668 -0.0118932 0.000329733 0.000191127 -0.000279382 -0.000430463 0.0280668 -0.0118932 0.000329733 255.837 255.837 1000.61 
156 1 1 0.110763 0.0643826 0.00997805 0 0 0 -0.0305078 0.00175545 4.08069e-05 0.000173527 -6.7736e-05 -0.000192454 -0.0305078 0.00175545 4.08069e-05 375.649 375.649 1000.89 
157 1 1 0.134472 0.077853 0.0227842 0 0 0 0.00823905 -0.00501111 0.0094444 0.000540911 8.57885e-07 -0.000491441 0.00823905 -0.00501111 0.0094444 301.479 301.479 1000.72 
158 1 1 0.156414 0.0776827 0.0217949 0 0 0 0.030169 -0.00495373 0.00878388 0.000236513 -0.000264439 0.000294031 0.030169 -0.00495373 0.00878388 317.55 317.55 1000.75 
159 1 1 0.144997 0.0781375 0.00997751 0 0 0 -0.0362319 0.00248847 0.000111221 0.000119693 -0.00010957 -0.000124303 -0.0362319 0.00248847 0.000111221 383.342 383.342 1000.91 
160 1 1 0.172324 0.0786357 0.0435341 0 0 0 0.0280035 -0.0208757 0.000378939 -4.76419e-05 -0.000524112 -0.000383119 0.0280035 -0.0208757 0.000378939 192.055 192.055 1000.46 
161 1 1 0.00998857 0.077442 0.0207179 0 0 0 -0.00605299 0.00163618 0.0193805 0.000406328 0.000259972 -0.000730427 -0.00605299 0.00163618 0.0193805 348.234 348.234 1000.83 
162 1 1 0.00998085 0.0764895 0.0099796 0 0 0 -0.00935966 0.0143538 0.00957717 0.00430463 9.84059e-05 -0.00403229 -0.00935966 0.0143538 0.00957717 393.43 393.43 1000.93 
163 1 1 0.0227951 0.0710919 0.0099786 0 0 0 -0.0143742 0.0214716 0.00334198 -0.000126115 -0.000238649 -9.67227e-05 -0.0143742 0.0214716 0.00334198 385.373 385.373 1000.92 
164 1 1 0.0853124 0.0588973 0.0403956 0 0 0 0.0387296 -0.0102877 -0.00598556 0.000438133 0.00038966 -0.000920001 0.0387296 -0.0102877 -0.00598556 198.339 198.339 1000.47 
165 1 1 0.124035 0.0652943 0.043935 0 0 0 0.0399464 0.00765747 0.0087356 0.000451858 -0.000191381 -0.000133996 0.0399464 0.00765747 0.0087356 177.46 177.46 1000.42 
166 1 1 0.126815 0.0763971 0.00997797 0 0 0 -0.0227525 0.00189541 -0.000245768 7.88205e-05 0.000415663 -0.000280521 -0.0227525 0.00189541 -0.000245768 380.305 380.305 1000.9 
167 1 1 0.141928 0.0776981 0.03318 0 0 0 0.0509158 0.00414669 -0.000933288 -0.000443667 -0.000322859 -2.31953e-05 0.0509158 0.00414669 -0.000933288 241.303 241.303 1000.57 
168 1 1 0.144257 0.0612495 0.0099778 0 0 0 -0.0201759 -0.00125458 8.6135e-06 0.000308478 -0.000306963 -0.000170481 -0.0201759 -0.00125458 8.6135e-06 376.411 376.411 1000.89 
169 1 1 0.165801 0.077503 0.0233396 0 0 0 0.0460275 -0.00899592 0.00650318 -0.000857019 0.0003939 -0.000807874 0.0460275 -0.00899592 0.00650318 304.193 304.193 1000.72 
170 1 1 0.172495 0.0781717 0.00997725 0 0 0 -0.0444651 0.00123076 7.69441e-05 0.000343784 -0.000137439 -0.000248265 -0.0444651 0.00123076 7.69441e-05 385.6 385.6 1000.92 
171 1 1 0.0099788 0.0900113 0.00998087 0 0 0 0.000818056 -0.00249214 -0.00395869 0.00673495 0.00319503 -0.00365903 0.000818056 -0.00249214 -0.00395869 400.663 400.663 1000.95 
172 1 1 0.0208307 0.0900134 0.00998163 0 0 0 -0.0123439 0.00499794 0.00126301 -3.44611e-05 0.00165107 -0.0011277 -0.0123439 0.00499794 0.00126301 404.151 404.151 1000.96 