ITEM: TIMESTEP
151000
ITEM: NUMBER OF ATOMS
2655
ITEM: BOX BOUNDS ff ff ff
0 0.5
0 0.1
0 0.5
ITEM: ATOMS id type type x y z ix iy iz vx vy vz fx fy fz vx vy vz p p rho 
1 1 1 0.0100309 0.0099776 0.00999364 0 0 0 0.00254072 0.000572532 -0.0012566 -0.0206545 0.0047462 -0.0186639 0.00254072 0.000572532 -0.0012566 380.071 380.071 1000.9 
2 1 1 0.0417372 0.00999195 0.00997273 0 0 0 0.0120094 -0.0199256 0.0140759 -0.00117072 -0.00631096 0.000360083 0.0120094 -0.0199256 0.0140759 376.79 376.79 1000.89 
3 1 1 0.0364555 0.00997499 0.00998598 0 0 0 0.0176885 -0.00423346 0.00679619 -0.00228846 0.0106588 -0.0123916 0.0176885 -0.00423346 0.00679619 362.906 362.906 1000.86 
4 1 1 0.0771593 0.00998392 0.00997478 0 0 0 0.00371109 -0.00571531 0.00643236 -0.00146328 0.000780741 -0.0011297 0.00371109 -0.00571531 0.00643236 379.978 379.978 1000.9 
5 1 1 0.0818925 0.00998824 0.00997234 0 0 0 0.0167488 0.00831537 -0.00807067 -0.00102542 -0.00357434 0.00157492 0.0167488 0.00831537 -0.00807067 389.869 389.869 1000.93 
6 1 1 0.101207 0.00997441 0.00998506 0 0 0 0.0366931 -0.000912721 0.00112219 -0.00172662 0.00876271 -0.0103428 0.0366931 -0.000912721 0.00112219 408.208 408.208 1000.97 
7 1 1 0.115511 0.00998209 0.00997595 0 0 0 0.0460092 0.00586708 -0.00561785 -0.00150483 0.000570272 -0.00109033 0.0460092 0.00586708 -0.00561785 429.527 429.527 1001.02 
8 1 1 0.125019 0.00998388 0.00997148 0 0 0 0.0125027 0.000452989 -0.000672205 -0.00180509 -0.00177821 0.00272249 0.0125027 0.000452989 -0.000672205 448.44 448.44 1001.06 
9 1 1 0.134446 0.00998492 0.00997105 0 0 0 0.0359126 -0.00193516 0.00227614 -0.00167289 -0.00287331 0.00382434 0.0359126 -0.00193516 0.00227614 464.665 464.665 1001.1 
10 1 1 0.148368 0.00998085 0.00997322 0 0 0 0.0431033 -0.00515518 0.00263725 -0.000590768 0.00028827 0.00161514 0.0431033 -0.00515518 0.00263725 476.512 476.512 1001.13 
11 1 1 0.00999854 0.0205433 0.00997679 0 0 0 0.00812375 -0.0179913 -0.00764275 -0.0111565 -0.00423042 -0.00651493 0.00812375 -0.0179913 -0.00764275 474.747 474.747 1001.13 
12 1 1 0.0338006 0.0335943 0.00997388 0 0 0 -0.0133421 -0.0217959 -0.0131886 0.00439639 0.00387418 -0.00283832 -0.0133421 -0.0217959 -0.0131886 266.287 266.287 1000.63 
13 1 1 0.0229549 0.0220756 0.00997481 0 0 0 -0.000256833 -0.0185076 -0.00116545 0.00235134 -0.00618686 -0.0063912 -0.000256833 -0.0185076 -0.00116545 394.98 394.98 1000.94 
14 1 1 0.0916269 0.0221639 0.00997435 0 0 0 0.0216803 -0.020942 -0.00489734 -0.000662963 0.000749678 -0.000436505 0.0216803 -0.020942 -0.00489734 382.431 382.431 1000.91 
15 1 1 0.0804072 0.0222216 0.00997327 0 0 0 0.0181962 0.0186592 1.78671e-05 -0.00219116 0.000144291 -0.000324012 0.0181962 0.0186592 1.78671e-05 375.067 375.067 1000.89 
16 1 1 0.112629 0.021981 0.00997361 0 0 0 0.0282625 -0.0193375 -0.000468536 -0.000491154 0.000969472 -0.000463121 0.0282625 -0.0193375 -0.000468536 406.929 406.929 1000.97 
17 1 1 0.114081 0.0406721 0.00997467 0 0 0 0.0195698 -0.00385019 -0.000445249 -0.00151311 0.00140022 -0.00132251 0.0195698 -0.00385019 -0.000445249 386.458 386.458 1000.92 
18 1 1 0.13965 0.0317776 0.00997205 0 0 0 0.0145359 -0.000154735 -0.00016772 -0.0011512 0.00172567 0.000271842 0.0145359 -0.000154735 -0.00016772 429.637 429.637 1001.02 
19 1 1 0.12524 0.0220586 0.00997119 0 0 0 0.0200366 -0.0189689 0.00012976 -0.00152534 0.00104152 0.00126514 0.0200366 -0.0189689 0.00012976 420.712 420.712 1001 
20 1 1 0.161416 0.0220553 0.00997222 0 0 0 0.0474807 0.012614 -0.00307416 0.000797617 0.000842254 0.00108463 0.0474807 0.012614 -0.00307416 465.586 465.586 1001.1 
21 1 1 0.00999049 0.0282736 0.00996236 0 0 0 -0.00492358 0.00262203 0.000676551 -0.00371395 -0.00125544 0.00755563 -0.00492358 0.00262203 0.000676551 479.696 479.696 1001.14 
22 1 1 0.045964 0.0293409 0.00997282 0 0 0 0.0492187 -0.0469791 -0.0220174 -0.00169174 0.00517384 0.000124815 0.0492187 -0.0469791 -0.0220174 274.483 274.483 1000.65 
23 1 1 0.0741857 0.0461595 0.0099726 0 0 0 0.0284249 0.00721003 -0.00118046 -0.00178477 0.000412823 -0.000443994 0.0284249 0.00721003 -0.00118046 349.976 349.976 1000.83 
24 1 1 0.0962556 0.029389 0.0099719 0 0 0 0.0187634 -0.0125548 -0.00189212 -0.000394609 0.000519963 0.00176304 0.0187634 -0.0125548 -0.00189212 384.213 384.213 1000.91 
25 1 1 0.119181 0.0381111 0.00997386 0 0 0 0.0129553 -0.0146292 0.000856121 -0.00112217 0.000857786 -0.000630066 0.0129553 -0.0146292 0.000856121 396.061 396.061 1000.94 
26 1 1 0.119387 0.0227853 0.00997221 0 0 0 0.0341626 0.0221795 0.000170654 -0.0022342 0.00104629 0.000466749 0.0341626 0.0221795 0.000170654 415.872 415.872 1000.99 
27 1 1 0.141922 0.0448523 0.00997338 0 0 0 0.03517 -0.0102278 0.000352891 -0.00196014 0.00094582 -8.47894e-05 0.03517 -0.0102278 0.000352891 409.587 409.587 1000.97 
28 1 1 0.118739 0.0311998 0.00997245 0 0 0 0.0191094 -0.00267999 0.000683837 -0.00141616 0.000856061 -0.000391529 0.0191094 -0.00267999 0.000683837 412.56 412.56 1000.98 
29 1 1 0.149001 0.0222124 0.00997113 0 0 0 0.033699 0.00401779 -0.00101062 -0.000666092 0.00109716 0.00127571 0.033699 0.00401779 -0.00101062 462.302 462.302 1001.1 
30 1 1 0.15353 0.030711 0.00997228 0 0 0 0.0283099 -0.0140313 -0.00072102 -0.00137433 0.000696315 0.00102025 0.0283099 -0.0140313 -0.00072102 455.789 455.789 1001.08 
31 1 1 0.00997437 0.0382695 0.00997106 0 0 0 0.00106589 -0.0133418 -0.000237422 0.0116825 0.00141048 -0.000998553 0.00106589 -0.0133418 -0.000237422 471.387 471.387 1001.12 
32 1 1 0.0229501 0.0386036 0.00996216 0 0 0 -0.052213 0.0294359 -0.000534027 0.00589271 0.00101038 0.00609945 -0.052213 0.0294359 -0.000534027 412.909 412.909 1000.98 
33 1 1 0.0577607 0.0301792 0.00997352 0 0 0 0.0311701 -0.0564831 -0.00334493 -0.000832696 0.00219862 -0.00183554 0.0311701 -0.0564831 -0.00334493 350.953 350.953 1000.83 
34 1 1 0.0770242 0.0329997 0.00997433 0 0 0 0.0180262 0.00519699 -0.00144846 -0.000997597 0.000808158 -0.0012364 0.0180262 0.00519699 -0.00144846 363.929 363.929 1000.86 
35 1 1 0.0888999 0.0376007 0.00997278 0 0 0 0.0515885 -0.00991169 -0.000491186 -5.89972e-05 0.000325244 0.000300155 0.0515885 -0.00991169 -0.000491186 375.102 375.102 1000.89 
36 1 1 0.10778 0.0279449 0.00997441 0 0 0 0.00739253 -0.0194204 0.000573398 -0.000677806 0.00104267 -0.00066278 0.00739253 -0.0194204 0.000573398 391.825 391.825 1000.93 
37 1 1 0.129505 0.0376941 0.00997334 0 0 0 0.0376111 0.00483598 0.000143932 -0.00151271 0.00140973 0.000193882 0.0376111 0.00483598 0.000143932 397.333 397.333 1000.94 
38 1 1 0.136352 0.0377383 0.00997339 0 0 0 0.0133489 0.000229934 -0.000146672 -0.00135951 0.00117075 -5.21067e-05 0.0133489 0.000229934 -0.000146672 411.444 411.444 1000.98 
39 1 1 0.158962 0.0358576 0.00997278 0 0 0 0.0358681 0.0129711 -0.000611729 -0.000259651 0.00132443 0.000913445 0.0358681 0.0129711 -0.000611729 444.307 444.307 1001.05 
40 1 1 0.172889 0.036988 0.00997269 0 0 0 0.0350515 -0.0343125 -0.0017378 0.000414258 0.000174925 0.000903892 0.0350515 -0.0343125 -0.0017378 450.804 450.804 1001.07 
41 1 1 0.00996021 0.0521287 0.00997069 0 0 0 0.00478236 -0.00603272 -0.00657786 0.0268223 0.00389338 0.00149861 0.00478236 -0.00603272 -0.00657786 418.564 418.564 1000.99 
42 1 1 0.0439096 0.0580549 0.00998148 0 0 0 0.0494143 0.0138835 -0.00071061 -0.00296813 0.00177226 -0.00684512 0.0494143 0.0138835 -0.00071061 318.114 318.114 1000.76 
43 1 1 0.0594664 0.0474244 0.0099738 0 0 0 0.0346716 0.011769 0.00187976 -0.00283129 1.48062e-05 7.45565e-05 0.0346716 0.011769 0.00187976 339.069 339.069 1000.81 
44 1 1 0.0839989 0.0433523 0.0099695 0 0 0 -0.00868213 -0.00467741 0.00135657 -0.00114774 0.000736457 0.0028248 -0.00868213 -0.00467741 0.00135657 364.161 364.161 1000.86 
45 1 1 0.0956939 0.0505015 0.00997566 0 0 0 0.021645 -0.0157483 -0.0048605 -0.000469138 0.00109676 -0.00206519 0.021645 -0.0157483 -0.0048605 353.324 353.324 1000.84 
46 1 1 0.104415 0.0532854 0.00997772 0 0 0 0.0264184 -0.0154297 -0.00417685 6.0641e-05 0.00163917 -0.00416524 0.0264184 -0.0154297 -0.00417685 345.825 345.825 1000.82 
47 1 1 0.111514 0.0473141 0.00997714 0 0 0 0.0439436 -0.0110462 -0.0031333 -0.00107989 0.00147256 -0.00316816 0.0439436 -0.0110462 -0.0031333 360.649 360.649 1000.86 
48 1 1 0.136687 0.0486308 0.00997439 0 0 0 0.0540735 -0.00662506 0.000302494 -0.00151953 0.00208774 -0.000260675 0.0540735 -0.00662506 0.000302494 403.073 403.073 1000.96 
49 1 1 0.123178 0.0506186 0.00997459 0 0 0 0.0434488 0.00895018 0.00144873 -0.00186195 0.0009882 -0.000553298 0.0434488 0.00895018 0.00144873 383.215 383.215 1000.91 
50 1 1 0.159969 0.0496805 0.00997279 0 0 0 -0.00121498 -0.0161797 2.6137e-05 -0.00112281 0.000542458 0.000980776 -0.00121498 -0.0161797 2.6137e-05 433.411 433.411 1001.03 
51 1 1 0.00999727 0.062008 0.00997264 0 0 0 -0.00324636 0.029412 0.00338339 -0.00925763 0.00564059 0.00231358 -0.00324636 0.029412 0.00338339 387.005 387.005 1000.92 
52 1 1 0.0215577 0.0537258 0.00996423 0 0 0 -0.0349696 -0.0472926 -0.00121063 0.00526579 0.00198913 0.00729819 -0.0349696 -0.0472926 -0.00121063 391.525 391.525 1000.93 
53 1 1 0.069534 0.0586251 0.00997365 0 0 0 0.013069 0.00216354 -0.000122443 -0.00117614 -0.000413203 -0.000503091 0.013069 0.00216354 -0.000122443 325.222 325.222 1000.77 
54 1 1 0.0891962 0.0623358 0.00997463 0 0 0 0.0428583 -0.0295133 -0.000173925 0.00113067 0.000877589 -0.000464868 0.0428583 -0.0295133 -0.000173925 350.292 350.292 1000.83 
55 1 1 0.0944115 0.0583478 0.00997529 0 0 0 0.0344755 -0.00181256 0.000671377 -0.000313265 0.00123335 -0.000564502 0.0344755 -0.00181256 0.000671377 343.32 343.32 1000.82 
56 1 1 0.108677 0.0733005 0.00997785 0 0 0 0.0228375 0.00866642 -0.00108145 -0.000429556 0.00194053 -0.00251269 0.0228375 0.00866642 -0.00108145 331.306 331.306 1000.79 
57 1 1 0.133411 0.0626428 0.00997558 0 0 0 0.0448744 0.0116539 0.000551524 -0.00225316 0.00136519 -0.000712179 0.0448744 0.0116539 0.000551524 380.365 380.365 1000.9 
58 1 1 0.139295 0.0645636 0.00997547 0 0 0 0.0256835 -0.0147681 0.000903426 -0.00228863 0.000633664 -0.000668853 0.0256835 -0.0147681 0.000903426 394.924 394.924 1000.94 
59 1 1 0.156397 0.0622849 0.00997325 0 0 0 0.0227155 0.0135831 0.000908296 -0.00197129 0.000319401 0.000437895 0.0227155 0.0135831 0.000908296 427.211 427.211 1001.01 
60 1 1 0.167279 0.061577 0.00997306 0 0 0 0.0285066 -0.020927 -9.58827e-05 -0.000897696 9.58171e-05 0.000770029 0.0285066 -0.020927 -9.58827e-05 448.421 448.421 1001.06 
61 1 1 0.00999909 0.0718809 0.00997007 0 0 0 -0.0151783 0.0234723 0.00469986 -0.00766513 0.00537057 0.00748004 -0.0151783 0.0234723 0.00469986 300.573 300.573 1000.71 
62 1 1 0.0506393 0.0639793 0.00998229 0 0 0 -0.000836818 -0.00777678 0.0064327 -0.00398288 0.000237094 -0.00806356 -0.000836818 -0.00777678 0.0064327 311.243 311.243 1000.74 
63 1 1 0.0816952 0.0625276 0.00997304 0 0 0 0.0229114 -0.000512349 0.000239563 -0.000956618 0.000536494 0.000637975 0.0229114 -0.000512349 0.000239563 368.698 368.698 1000.88 
64 1 1 0.0974408 0.0712696 0.00997641 0 0 0 0.00682519 -0.00805581 -0.00223755 0.00038904 0.00190869 -0.00163697 0.00682519 -0.00805581 -0.00223755 344.068 344.068 1000.82 
65 1 1 0.121984 0.0623995 0.00997531 0 0 0 0.0326659 -0.00738006 0.000655296 -0.00146235 0.00247095 -0.000972626 0.0326659 -0.00738006 0.000655296 362.001 362.001 1000.86 
66 1 1 0.119107 0.0771039 0.00997857 0 0 0 0.028785 0.0170491 -0.000317282 -0.00153836 0.00217591 -0.00259914 0.028785 0.0170491 -0.000317282 327.486 327.486 1000.78 
67 1 1 0.140817 0.0559385 0.00997433 0 0 0 0.0241486 0.0018864 0.000741378 -0.00201025 0.00106624 -0.000405739 0.0241486 0.0018864 0.000741378 397.613 397.613 1000.94 
68 1 1 0.120981 0.0697899 0.00997623 0 0 0 0.0272781 -0.0311463 1.92053e-05 -0.00122025 0.00186949 -0.0015271 0.0272781 -0.0311463 1.92053e-05 346.585 346.585 1000.82 
69 1 1 0.150163 0.0782984 0.00997414 0 0 0 0.023439 -0.0209227 0.000935793 -0.00339409 0.000492356 0.000349349 0.023439 -0.0209227 0.000935793 411.309 411.309 1000.98 
70 1 1 0.157404 0.0689981 0.00997364 0 0 0 0.0491961 -0.00845592 0.00124894 -0.00241083 3.38204e-05 0.000474998 0.0491961 -0.00845592 0.00124894 434.819 434.819 1001.03 
71 1 1 0.00998952 0.0791884 0.00997933 0 0 0 -0.00292147 -0.0299215 -0.00410445 0.00311179 0.00465435 -0.000747788 -0.00292147 -0.0299215 -0.00410445 275.364 275.364 1000.65 
72 1 1 0.0350763 0.0614278 0.00998689 0 0 0 -0.0650069 -0.0359561 -0.00366683 0.00199864 0.00417286 -0.011407 -0.0650069 -0.0359561 -0.00366683 293.729 293.729 1000.7 
73 1 1 0.0333997 0.0792108 0.00997647 0 0 0 0.0165438 -0.0110437 -0.00169822 -0.00460384 -0.00490667 -0.00121954 0.0165438 -0.0110437 -0.00169822 256.817 256.817 1000.61 
74 1 1 0.0959469 0.0779907 0.00997678 0 0 0 0.0324756 -0.0117981 -0.00328849 0.00129111 0.00222326 -0.000772231 0.0324756 -0.0117981 -0.00328849 325.671 325.671 1000.77 
75 1 1 0.0828439 0.0775332 0.00997436 0 0 0 0.0422943 0.0190187 -0.00294534 0.000293833 0.00233278 7.17289e-05 0.0422943 0.0190187 -0.00294534 355.905 355.905 1000.85 
76 1 1 0.112568 0.0783745 0.009979 0 0 0 0.0166396 -0.00137981 -0.00171298 -0.000709302 0.00255067 -0.00327288 0.0166396 -0.00137981 -0.00171298 319.482 319.482 1000.76 
77 1 1 0.114088 0.0595489 0.00997588 0 0 0 -0.00533157 0.0141149 0.00129145 -0.000763647 0.00147394 -0.00140093 -0.00533157 0.0141149 0.00129145 355.88 355.88 1000.85 
78 1 1 0.144358 0.0684781 0.00997535 0 0 0 0.027804 0.00394063 0.00121221 -0.00205696 0.001229 -0.000460411 0.027804 0.00394063 0.00121221 404.891 404.891 1000.96 
79 1 1 0.125537 0.0780455 0.00997869 0 0 0 0.015643 -0.0225261 0.000906822 -0.00232855 0.00196413 -0.00259772 0.015643 -0.0225261 0.000906822 342.326 342.326 1000.81 
80 1 1 0.161336 0.0790166 0.00997263 0 0 0 0.0366359 -0.0162037 0.000302825 -0.00251345 -0.000828602 0.00176346 0.0366359 -0.0162037 0.000302825 444.56 444.56 1001.06 
81 1 1 0.00998717 0.0899906 0.00998815 0 0 0 0.0228648 -0.011546 -0.0267413 0.00413809 0.0166482 -0.00691665 0.0228648 -0.011546 -0.0267413 260.799 260.799 1000.62 
82 1 1 0.038054 0.0900108 0.00996219 0 0 0 -0.0430012 -0.00554819 0.00181761 -0.00661379 0.000439194 0.0101692 -0.0430012 -0.00554819 0.00181761 390.1 390.1 1000.93 
83 1 1 0.0312216 0.0899961 0.00996221 0 0 0 0.00225284 0.00299007 -0.00804602 -0.00499747 0.0200686 0.0138201 0.00225284 0.00299007 -0.00804602 317.018 317.018 1000.75 
84 1 1 0.0787299 0.0900087 0.00997855 0 0 0 0.0288449 -0.000633736 -0.00790884 -0.0026438 0.00561157 -0.000134926 0.0288449 -0.000633736 -0.00790884 287.626 287.626 1000.68 
85 1 1 0.0837869 0.0900219 0.00998597 0 0 0 0.0329737 0.007822 0.00215879 -0.0018296 -0.0076744 -0.00752659 0.0329737 0.007822 0.00215879 316.791 316.791 1000.75 
86 1 1 0.103511 0.0900123 0.00998254 0 0 0 0.0399047 -0.00331043 -0.00841481 -0.000276529 0.000631155 -0.00405347 0.0399047 -0.00331043 -0.00841481 311.979 311.979 1000.74 
87 1 1 0.117802 0.0900186 0.00998983 0 0 0 0.0369001 0.00597455 0.00388205 -0.00148213 -0.00485869 -0.0116335 0.0369001 0.00597455 0.00388205 315.523 315.523 1000.75 
88 1 1 0.127016 0.0900199 0.00998898 0 0 0 0.037539 0.00366634 0.00419786 -0.00244221 -0.00515594 -0.0108616 0.037539 0.00366634 0.00419786 331.335 331.335 1000.79 
89 1 1 0.136724 0.0900102 0.00997448 0 0 0 0.0340064 -0.0071078 -0.00355469 -0.00345758 0.00570349 0.00301735 0.0340064 -0.0071078 -0.00355469 365.274 365.274 1000.87 
90 1 1 0.15082 0.0900155 0.00997543 0 0 0 0.0354284 0.00472389 0.00935757 -0.00336178 0.00229844 0.00115844 0.0354284 0.00472389 0.00935757 420.288 420.288 1001 
91 1 1 0.0100007 0.00997751 0.00998151 0 0 0 -0.0268457 0.0032396 0.000494742 -0.0200532 0.0050354 -0.00638397 -0.0268457 0.0032396 0.000494742 348.609 348.609 1000.83 
92 1 1 0.0310906 0.00999612 0.00997454 0 0 0 0.0242282 -0.00565618 -0.000154374 -0.00237023 -0.00969811 -0.000704327 0.0242282 -0.00565618 -0.000154374 332.433 332.433 1000.79 
93 1 1 0.0469309 0.0100022 0.00996383 0 0 0 0.00357142 -0.00502913 0.00281297 0.000132746 -0.0248873 0.00923573 0.00357142 -0.00502913 0.00281297 369.734 369.734 1000.88 
94 1 1 0.0575974 0.00998751 0.00997175 0 0 0 0.0268634 -0.0103245 0.00886642 -0.00106433 -0.00309367 0.00272192 0.0268634 -0.0103245 0.00886642 329.035 329.035 1000.78 
95 1 1 0.0870971 0.00998161 0.00997714 0 0 0 0.00669847 -0.00626984 0.00762915 -0.00195024 0.00262658 -0.00268465 0.00669847 -0.00626984 0.00762915 396.112 396.112 1000.94 
96 1 1 0.11051 0.00997596 0.00998309 0 0 0 0.0186273 0.00384636 -0.00377464 -0.00109843 0.00664098 -0.0080497 0.0186273 0.00384636 -0.00377464 421.883 421.883 1001 
97 1 1 0.120327 0.00998998 0.00996673 0 0 0 0.0268996 -0.00727308 0.0072683 -0.00200122 -0.00729137 0.00771643 0.0268996 -0.00727308 0.0072683 440.427 440.427 1001.05 
98 1 1 0.12967 0.00997571 0.00997905 0 0 0 0.0406449 0.00494173 -0.0064618 -0.00130036 0.00628823 -0.00465245 0.0406449 0.00494173 -0.0064618 452.491 452.491 1001.07 
99 1 1 0.138951 0.00997801 0.00997721 0 0 0 0.0256352 -0.00346474 0.00211254 -0.00154826 0.0039559 -0.00269084 0.0256352 -0.00346474 0.00211254 470.81 470.81 1001.12 
100 1 1 0.143625 0.0099799 0.00997291 0 0 0 0.0392038 0.00459727 -0.00665137 -0.000779981 0.00177161 0.0016401 0.0392038 0.00459727 -0.00665137 475.611 475.611 1001.13 
101 1 1 0.00998889 0.0206612 0.0220559 0 0 0 0.00038343 -0.0187113 -0.0131669 -0.00419387 -0.00360646 -0.000253973 0.00038343 -0.0187113 -0.0131669 487.358 487.358 1001.16 
102 1 1 0.00998663 0.023304 0.0099654 0 0 0 -0.00781199 -0.00669938 0.00568402 0.000494991 -0.00281434 0.00455573 -0.00781199 -0.00669938 0.00568402 480.125 480.125 1001.14 
103 1 1 0.0221809 0.0224272 0.0195763 0 0 0 0.00704407 0.0501124 -0.0158242 0.00303764 -0.00333859 -0.00170341 0.00704407 0.0501124 -0.0158242 403.88 403.88 1000.96 
104 1 1 0.070737 0.0224047 0.0362092 0 0 0 0.0612854 -0.00774692 0.0145082 -0.00102403 0.000555335 -0.00263493 0.0612854 -0.00774692 0.0145082 287.408 287.408 1000.68 
105 1 1 0.10324 0.0366539 0.0593431 0 0 0 0.143625 0.00770317 0.00940882 -0.000220246 0.000291095 -0.00246419 0.143625 0.00770317 0.00940882 127.276 127.276 1000.3 
106 1 1 0.137677 0.0227801 0.0099721 0 0 0 0.0321659 0.00834789 -0.000438362 -0.00227771 0.000724658 0.000446767 0.0321659 0.00834789 -0.000438362 450.192 450.192 1001.07 
107 1 1 0.117377 0.0218571 0.0330576 0 0 0 0.0901813 0.00974636 0.0209601 -0.00131943 0.000313329 -0.000486206 0.0901813 0.00974636 0.0209601 312.86 312.86 1000.74 
108 1 1 0.14735 0.034469 0.00997224 0 0 0 0.0299607 0.00426085 -0.000127628 -0.00187761 0.00106634 0.000515153 0.0299607 0.00426085 -0.000127628 433.018 433.018 1001.03 
109 1 1 0.138196 0.021555 0.0232215 0 0 0 0.077684 0.00904293 -0.0199582 -0.00136057 0.00106843 -0.000512685 0.077684 0.00904293 -0.0199582 420.873 420.873 1001 
110 1 1 0.178958 0.0217497 0.00997379 0 0 0 0.0337367 0.00340196 -0.00274604 0.0024084 7.19059e-06 0.000612455 0.0337367 0.00340196 -0.00274604 455.01 455.01 1001.08 
111 1 1 0.0099799 0.0336168 0.0099699 0 0 0 0.000314945 -0.0204806 0.000265202 0.0062287 0.000106579 -0.000232924 0.000314945 -0.0204806 0.000265202 478.599 478.599 1001.14 
112 1 1 0.0213754 0.0222179 0.0409795 0 0 0 -0.000750234 -0.000193516 -0.0254582 0.00290575 -0.000486435 -0.000199199 -0.000750234 -0.000193516 -0.0254582 308.031 308.031 1000.73 
113 1 1 0.0515022 0.0394844 0.00997837 0 0 0 -0.0185097 -0.0395887 -0.00695004 -0.00278906 0.00100745 -0.00408637 -0.0185097 -0.0395887 -0.00695004 269.836 269.836 1000.64 
114 1 1 0.0618232 0.0217332 0.00997436 0 0 0 0.0446888 0.0275309 0.00339902 -0.00174644 0.000684005 -0.0029765 0.0446888 0.0275309 0.00339902 351.892 351.892 1000.84 
115 1 1 0.0567743 0.0225375 0.0357917 0 0 0 0.068614 -0.00873643 -0.0173016 0.00139646 -0.000512835 -0.00235344 0.068614 -0.00873643 -0.0173016 284.706 284.706 1000.68 
116 1 1 0.107637 0.034379 0.00997466 0 0 0 0.0196091 0.00931454 -0.000499699 -0.00060552 0.00151467 -0.000924186 0.0196091 0.00931454 -0.000499699 378.366 378.366 1000.9 
117 1 1 0.117207 0.0209395 0.0228807 0 0 0 0.0778554 -0.000205097 0.035683 -0.00118889 0.00167168 -0.000525736 0.0778554 -0.000205097 0.035683 367.981 367.981 1000.87 
118 1 1 0.130818 0.0226159 0.0226903 0 0 0 0.075262 0.0135656 0.00459011 -0.00081447 0.00109779 -0.000379473 0.075262 0.0135656 0.00459011 404.885 404.885 1000.96 
119 1 1 0.155851 0.0224751 0.0099715 0 0 0 0.0243931 -0.0011503 -0.00209735 -0.001248 0.000855671 0.00137107 0.0243931 -0.0011503 -0.00209735 467.872 467.872 1001.11 
120 1 1 0.137946 0.0213119 0.0379895 0 0 0 0.105366 0.00896414 -0.00960588 0.000197558 0.00159724 0.000437937 0.105366 0.00896414 -0.00960588 302.788 302.788 1000.72 
121 1 1 0.00997283 0.0429023 0.00997194 0 0 0 0.00890502 0.0196184 -0.00202243 0.013789 0.00249512 -0.000865129 0.00890502 0.0196184 -0.00202243 468.648 468.648 1001.11 
122 1 1 0.0226116 0.0333877 0.0099698 0 0 0 -0.0163379 0.00998414 0.00194186 0.00608501 0.000370098 -0.00137476 -0.0163379 0.00998414 0.00194186 407.367 407.367 1000.97 
123 1 1 0.0242909 0.0249896 0.00997213 0 0 0 -0.00545455 -0.0210598 -0.000139509 0.00305554 -0.00118869 -0.00387117 -0.00545455 -0.0210598 -0.000139509 394.429 394.429 1000.94 
124 1 1 0.0855331 0.0330732 0.00997367 0 0 0 -0.00237227 0.01703 -0.000345227 -0.00181771 -0.000523973 -0.000373428 -0.00237227 0.01703 -0.000345227 379.22 379.22 1000.9 
125 1 1 0.0962498 0.0390429 0.00997477 0 0 0 0.0184592 -0.0113775 -0.00238438 -0.00142861 0.000136589 -0.00171202 0.0184592 -0.0113775 -0.00238438 375.556 375.556 1000.89 
126 1 1 0.128627 0.0307127 0.00997243 0 0 0 0.0132807 -0.000410457 -7.02239e-05 -0.00140294 0.0011409 0.000244769 0.0132807 -0.000410457 -7.02239e-05 412.163 412.163 1000.98 
127 1 1 0.166651 0.0391449 0.00997296 0 0 0 0.0621497 0.019849 -0.00107481 -0.000764419 7.59082e-05 0.000920735 0.0621497 0.019849 -0.00107481 444.111 444.111 1001.05 
128 1 1 0.147571 0.0418316 0.00997338 0 0 0 0.0328092 -0.00560285 0.000277998 -0.00111536 0.000866901 0.000174366 0.0328092 -0.00560285 0.000277998 417.633 417.633 1000.99 
129 1 1 0.143317 0.0230673 0.00997144 0 0 0 0.0277737 -0.00425526 -0.000301297 -0.000820842 0.000542513 0.000617815 0.0277737 -0.00425526 -0.000301297 455.04 455.04 1001.08 
130 1 1 0.184707 0.0326801 0.00997462 0 0 0 0.0486623 0.00359994 -0.00230152 0.000605691 -0.000634058 0.000305569 0.0486623 0.00359994 -0.00230152 446.146 446.146 1001.06 
131 1 1 0.00999363 0.0477404 0.00996392 0 0 0 -0.00837817 0.00788289 -0.00419409 -0.00668074 0.00294134 0.00828263 -0.00837817 0.00788289 -0.00419409 423.993 423.993 1001.01 
132 1 1 0.0385179 0.0417908 0.00998715 0 0 0 0.0186758 -0.0113092 -0.0118789 0.00174974 0.000173509 -0.0130089 0.0186758 -0.0113092 -0.0118789 210.674 210.674 1000.5 
133 1 1 0.0464788 0.0513436 0.00997484 0 0 0 0.0245108 0.0119678 -0.0023105 -0.00274525 -0.000996485 -0.000783117 0.0245108 0.0119678 -0.0023105 306.132 306.132 1000.73 
134 1 1 0.0890854 0.0486486 0.00997043 0 0 0 0.0109273 -0.0117678 0.000304698 -0.000210082 0.00154007 0.00279999 0.0109273 -0.0117678 0.000304698 355.458 355.458 1000.84 
135 1 1 0.130963 0.0510477 0.00997456 0 0 0 0.04686 -0.00777766 0.00060451 -0.00172644 0.00108629 -0.000404647 0.04686 -0.00777766 0.00060451 389.925 389.925 1000.93 
136 1 1 0.0908694 0.0510124 0.0205645 0 0 0 0.0766266 -0.0210174 -0.036929 0.000137036 0.000616655 -0.000780658 0.0766266 -0.0210174 -0.036929 352.254 352.254 1000.84 
137 1 1 0.122489 0.0447303 0.0221047 0 0 0 0.0898007 -0.038891 0.00679161 -0.00111363 0.00215073 -0.000848704 0.0898007 -0.038891 0.00679161 355.727 355.727 1000.84 
138 1 1 0.151838 0.0510896 0.00997289 0 0 0 0.051563 0.00493373 0.000554859 -0.0013615 0.000232803 0.000424623 0.051563 0.00493373 0.000554859 419.155 419.155 1001 
139 1 1 0.155195 0.0423522 0.0099729 0 0 0 0.0512949 -0.0179373 -2.89244e-05 -0.00084597 0.000949362 0.000680805 0.0512949 -0.0179373 -2.89244e-05 435.159 435.159 1001.03 
140 1 1 0.1619 0.0546679 0.023562 0 0 0 0.066893 0.00664157 -0.000469272 -0.000479733 -1.89968e-05 -0.00038104 0.066893 0.00664157 -0.000469272 387.952 387.952 1000.92 
141 1 1 0.00998142 0.0571663 0.00997314 0 0 0 0.00499117 0.0320596 0.00238039 0.00559639 0.00510044 0.000266216 0.00499117 0.0320596 0.00238039 415.211 415.211 1000.99 
142 1 1 0.0262388 0.0595745 0.00997935 0 0 0 0.00614665 -0.00595488 0.000507122 0.00385917 0.00576711 -0.00616015 0.00614665 -0.00595488 0.000507122 355.371 355.371 1000.84 
143 1 1 0.0226481 0.0619708 0.00997839 0 0 0 0.0192419 -0.00185034 0.00026009 0.00279479 0.00890657 -0.00480253 0.0192419 -0.00185034 0.00026009 326.857 326.857 1000.78 
144 1 1 0.0862406 0.0687959 0.00997521 0 0 0 0.0309366 0.0134601 -0.0023326 0.00102149 0.00194148 -0.00101632 0.0309366 0.0134601 -0.0023326 346.173 346.173 1000.82 
145 1 1 0.100208 0.0651707 0.00997639 0 0 0 0.0253129 0.0186244 -0.00060754 0.000149044 0.00120227 -0.00207435 0.0253129 0.0186244 -0.00060754 346.208 346.208 1000.82 
146 1 1 0.131396 0.0707994 0.00997634 0 0 0 0.0161571 -0.00270958 0.00050537 -0.00234876 0.00175076 -0.00130907 0.0161571 -0.00270958 0.00050537 365.891 365.891 1000.87 
147 1 1 0.161127 0.0566458 0.00997273 0 0 0 0.0510456 0.007331 0.00026451 -0.00144752 0.000564379 0.000842606 0.0510456 0.007331 0.00026451 435.045 435.045 1001.03 
148 1 1 0.14772 0.0547224 0.00997354 0 0 0 0.0318904 -0.00553733 0.000878006 -0.00220891 0.00118097 0.000111466 0.0318904 -0.00553733 0.000878006 408.972 408.972 1000.97 
149 1 1 0.144153 0.0766982 0.00997579 0 0 0 0.010986 -0.0195549 0.00117848 -0.00342717 0.00104489 -0.000598662 0.010986 -0.0195549 0.00117848 396.292 396.292 1000.94 
150 1 1 0.183435 0.0684504 0.00997368 0 0 0 0.0382064 0.00423642 -0.000699767 -4.68252e-05 -0.000420978 0.000714767 0.0382064 0.00423642 -0.000699767 466.773 466.773 1001.11 
151 1 1 0.0100163 0.0666333 0.00997121 0 0 0 -0.00583729 -0.0108484 0.00162303 -0.0205371 0.00576577 0.00514441 -0.00583729 -0.0108484 0.00162303 349.466 349.466 1000.83 
152 1 1 0.0241419 0.0808144 0.0205355 0 0 0 0.0193776 -0.00567638 0.0150437 -0.00307904 -0.00184342 -0.00500344 0.0193776 -0.00567638 0.0150437 289.139 289.139 1000.69 
153 1 1 0.061534 0.0734148 0.00997158 0 0 0 0.00719767 0.0258777 0.00156011 -0.00301213 0.000271654 -5.62559e-05 0.00719767 0.0258777 0.00156011 349.109 349.109 1000.83 
154 1 1 0.0636012 0.0792432 0.00997008 0 0 0 0.0569155 -0.0157903 0.0020882 -1.37782e-05 0.00284351 0.00374145 0.0569155 -0.0157903 0.0020882 350.063 350.063 1000.83 
155 1 1 0.0539193 0.0748934 0.0350057 0 0 0 0.00372358 0.0280072 -0.0378725 -0.000446649 -9.03384e-05 -0.00199066 0.00372358 0.0280072 -0.0378725 293.054 293.054 1000.7 
156 1 1 0.112173 0.0657416 0.00997608 0 0 0 0.0209938 0.00462373 0.000584155 -0.00116871 0.00209976 -0.00159827 0.0209938 0.00462373 0.000584155 349.392 349.392 1000.83 
157 1 1 0.121318 0.0791356 0.0229871 0 0 0 0.103681 0.0126164 -0.0033459 -0.00162379 0.000850004 -0.0022849 0.103681 0.0126164 -0.0033459 303.339 303.339 1000.72 
158 1 1 0.135401 0.0774209 0.0233707 0 0 0 0.0933194 -0.00505877 0.00198339 -0.00226058 0.0015862 -0.00182593 0.0933194 -0.00505877 0.00198339 313.583 313.583 1000.74 
159 1 1 0.155452 0.0758253 0.00997384 0 0 0 0.0198873 0.021417 0.000950495 -0.00267961 0.000613933 0.000870041 0.0198873 0.021417 0.000950495 426.446 426.446 1001.01 
160 1 1 0.137199 0.077525 0.0443683 0 0 0 0.0907604 -0.0144538 0.035701 -0.00123844 0.00142881 -0.00212441 0.0907604 -0.0144538 0.035701 185.379 185.379 1000.44 
161 1 1 0.0100058 0.0777862 0.0213354 0 0 0 -0.0107401 -0.00166829 -0.0207428 -0.018481 0.00565828 -0.00376402 -0.0107401 -0.00166829 -0.0207428 275.329 275.329 1000.65 
162 1 1 0.0100203 0.0762468 0.00996578 0 0 0 -0.00182698 0.0249978 0.00214304 -0.0158312 0.0053594 0.0123968 -0.00182698 0.0249978 0.00214304 293.333 293.333 1000.7 
163 1 1 0.0210493 0.0718069 0.00992432 0 0 0 0.0421354 -0.0700691 -0.0216776 0.0053146 0.00559447 0.0527896 0.0421354 -0.0700691 -0.0216776 173.513 173.513 1000.41 
164 1 1 0.0705937 0.0693836 0.0533417 0 0 0 0.126345 -0.00584737 -0.056856 0.000284647 -0.000895836 -0.00192846 0.126345 -0.00584737 -0.056856 167.671 167.671 1000.4 
165 1 1 0.100214 0.0650665 0.0503946 0 0 0 0.14225 -0.00843961 -0.0185551 0.00043282 0.000646396 -0.00237744 0.14225 -0.00843961 -0.0185551 167.975 167.975 1000.4 
166 1 1 0.138471 0.0780763 0.00997744 0 0 0 0.0300453 0.00059036 0.000830581 -0.00327442 0.00082925 -0.00134773 0.0300453 0.00059036 0.000830581 370.591 370.591 1000.88 
167 1 1 0.117976 0.0784829 0.0357787 0 0 0 0.0935401 -9.91084e-05 -0.0037036 -0.000619993 0.0016597 -0.00235897 0.0935401 -9.91084e-05 -0.0037036 230.439 230.439 1000.55 
168 1 1 0.149474 0.0635106 0.00997347 0 0 0 0.0405869 -0.0125338 0.00125988 -0.00198891 0.000434505 -3.4357e-05 0.0405869 -0.0125338 0.00125988 410.387 410.387 1000.97 
169 1 1 0.141784 0.0780499 0.0233305 0 0 0 0.0796634 -0.0200047 0.0105046 -0.00231264 0.00112427 -0.00142535 0.0796634 -0.0200047 0.0105046 335.077 335.077 1000.8 
170 1 1 0.178083 0.0774754 0.00997335 0 0 0 0.0253934 -0.00866024 0.000217702 -0.0004675 -0.000844752 0.00100065 0.0253934 -0.00866024 0.000217702 475.546 475.546 1001.13 
171 1 1 0.00997044 0.0900117 0.00999494 0 0 0 -0.00520266 0.00750288 0.00691018 0.0210621 -0.00255059 -0.0136294 -0.00520266 0.00750288 0.00691018 246.389 246.389 1000.59 
172 1 1 0.0216373 0.0899951 0.00998677 0 0 0 -0.0281159 -0.0217264 -0.0180265 -0.00309334 0.0177785 -0.0107829 -0.0281159 -0.0217264 -0.0180265 313.664 313.664 1000.75 
173 1 1 0.0437155 0.0899969 0.00995635 0 0 0 0.00788884 -0.00166554 -0.00889252 -0.00117219 0.022634 0.0165903 0.00788884 -0.00166554 -0.00889252 393.522 393.522 1000.93 
174 1 1 0.0543026 0.0900059 0.00996523 0 0 0 0.0176888 -0.00436581 -0.00452176 0.00391876 0.00823923 0.0106725 0.0176888 -0.00436581 -0.00452176 375.39 375.39 1000.89 
175 1 1 0.0888891 0.0900112 0.00997586 0 0 0 0.0357135 -0.00186599 -0.00886038 -0.000913298 0.00322625 0.00228187 0.0357135 -0.00186599 -0.00886038 324.762 324.762 1000.77 
176 1 1 0.112345 0.0900071 0.00997665 0 0 0 0.0428474 -0.00889555 -0.0112573 -0.000324286 0.00649201 0.00183754 0.0428474 -0.00889555 -0.0112573 314.672 314.672 1000.75 