ITEM: TIMESTEP
89000
ITEM: NUMBER OF ATOMS
2655
ITEM: BOX BOUNDS ff ff ff
0 0.5
0 0.1
0 0.5
ITEM: ATOMS id type type x y z ix iy iz vx vy vz fx fy fz vx vy vz p p rho 
1 1 1 0.00997585 0.00997818 0.00999805 0 0 0 -0.000799186 0.00572856 0.0138611 -0.00522414 0.00629096 -0.00800626 -0.000799186 0.00572856 0.0138611 691.815 691.815 1001.64 
2 1 1 0.0261713 0.0099835 0.00998746 0 0 0 -0.0327819 -0.00399378 0.0118307 -0.000401793 -0.00447826 0.00159688 -0.0327819 -0.00399378 0.0118307 703.459 703.459 1001.67 
3 1 1 0.0231588 0.0099727 0.00997904 0 0 0 0.0247394 0.00495413 -0.00525749 -0.00283316 0.00646369 0.0103205 0.0247394 0.00495413 -0.00525749 697.45 697.45 1001.65 
4 1 1 0.0570313 0.00997791 0.00999031 0 0 0 -0.0307772 0.00758089 0.0033289 -0.000407609 0.00053176 -0.0013943 -0.0307772 0.00758089 0.0033289 701.957 701.957 1001.66 
5 1 1 0.0612073 0.00997714 0.0099945 0 0 0 -0.0127836 -0.00775249 -0.0116781 -0.000632415 0.00157985 -0.00550697 -0.0127836 -0.00775249 -0.0116781 640.727 640.727 1001.52 
6 1 1 0.0781672 0.00998037 0.00996949 0 0 0 -0.0227812 0.000562214 0.00109058 0.0015592 -0.00140376 0.0177323 -0.0227812 0.000562214 0.00109058 695.063 695.063 1001.65 
7 1 1 0.0912175 0.00998023 0.00998902 0 0 0 -0.0164512 0.00419264 -0.00163991 -1.86891e-05 -0.0020315 -0.00172382 -0.0164512 0.00419264 -0.00163991 684.146 684.146 1001.62 
8 1 1 0.100176 0.00998009 0.0099759 0 0 0 -0.0472772 0.0013977 0.000367211 0.000198574 -0.000105726 0.0111278 -0.0472772 0.0013977 0.000367211 694.585 694.585 1001.65 
9 1 1 0.10847 0.00997697 0.00999684 0 0 0 -0.0200595 -0.00685671 0.00633074 0.00274708 0.00363813 -0.0094797 -0.0200595 -0.00685671 0.00633074 649.877 649.877 1001.54 
10 1 1 0.121666 0.00997875 0.00999778 0 0 0 -0.0296701 0.00357637 -0.00600005 -0.000366209 0.00110449 -0.00914616 -0.0296701 0.00357637 -0.00600005 647.474 647.474 1001.53 
11 1 1 0.00996221 0.022186 0.00999737 0 0 0 0.00259468 0.00826114 0.00288863 0.00504391 -0.000520651 -0.0102036 0.00259468 0.00826114 0.00288863 658.938 658.938 1001.56 
12 1 1 0.0262639 0.0344154 0.00998729 0 0 0 -0.00886807 0.00124271 0.000169203 -0.000613939 0.000295805 -0.000811099 -0.00886807 0.00124271 0.000169203 659.94 659.94 1001.56 
13 1 1 0.0233566 0.0230639 0.00999071 0 0 0 0.00897225 -0.000983989 0.00105399 -0.00202739 -0.00192294 -0.00294692 0.00897225 -0.000983989 0.00105399 677.813 677.813 1001.61 
14 1 1 0.0785738 0.0227035 0.00998124 0 0 0 -0.0599749 0.000577665 -0.00217091 0.000417519 0.000805293 0.00222581 -0.0599749 0.000577665 -0.00217091 647.309 647.309 1001.53 
15 1 1 0.0667797 0.0235406 0.00998345 0 0 0 -0.0232219 0.00212623 0.0010241 -0.00101981 0.00107235 0.000742231 -0.0232219 0.00212623 0.0010241 658.699 658.699 1001.56 
16 1 1 0.0897214 0.0216032 0.00998181 0 0 0 -0.0847933 -0.0160848 -0.00139396 0.00187624 0.00345718 0.000776382 -0.0847933 -0.0160848 -0.00139396 654.316 654.316 1001.55 
17 1 1 0.0925989 0.041037 0.00998378 0 0 0 -0.0348789 0.0175158 -0.00156709 0.0008328 -5.0324e-05 -0.000578988 -0.0348789 0.0175158 -0.00156709 567.57 567.57 1001.35 
18 1 1 0.119054 0.0326753 0.00998306 0 0 0 -0.0541801 -0.00488254 -0.000726034 -0.000479552 7.93878e-06 0.00018264 -0.0541801 -0.00488254 -0.000726034 560.588 560.588 1001.33 
19 1 1 0.103059 0.0226623 0.00998299 0 0 0 -0.058748 -0.0533436 -0.000330207 0.000146907 0.000877068 0.000910636 -0.058748 -0.0533436 -0.000330207 625.691 625.691 1001.48 
20 1 1 0.13637 0.0222512 0.00998716 0 0 0 -0.0694407 -0.000438891 -0.00440106 0.000394953 0.00103056 -0.00318359 -0.0694407 -0.000438891 -0.00440106 598.338 598.338 1001.42 
21 1 1 0.00996751 0.0250365 0.00998773 0 0 0 0.000319424 0.00810426 0.00298395 -0.000144717 0.00189085 -0.0010964 0.000319424 0.00810426 0.00298395 640.131 640.131 1001.52 
22 1 1 0.033926 0.0365244 0.00998434 0 0 0 -0.00666002 -0.0163322 -0.000489801 0.000702354 0.000589195 0.000152822 -0.00666002 -0.0163322 -0.000489801 622.296 622.296 1001.48 
23 1 1 0.0554292 0.0437529 0.00998478 0 0 0 -0.0225118 0.00743456 -0.00176899 -0.00133085 -0.000578719 0.00106872 -0.0225118 0.00743456 -0.00176899 589.244 589.244 1001.4 
24 1 1 0.0748659 0.0309889 0.00998255 0 0 0 -0.0638636 0.0222973 -0.00070812 0.000823244 0.00155007 -0.000247522 -0.0638636 0.0222973 -0.00070812 605.48 605.48 1001.44 
25 1 1 0.0964849 0.0361272 0.00998293 0 0 0 -0.0245224 0.0139645 0.00126686 0.00177442 0.00117774 -0.000130434 -0.0245224 0.0139645 0.00126686 567.213 567.213 1001.35 
26 1 1 0.0965169 0.0232693 0.0099824 0 0 0 -0.0560311 0.0166198 -0.0023513 0.000653141 4.40398e-05 0.000822372 -0.0560311 0.0166198 -0.0023513 617.923 617.923 1001.46 
27 1 1 0.120881 0.0441233 0.00998215 0 0 0 -0.0727293 -0.0172905 -0.000715287 0.000517901 0.000721048 0.000378366 -0.0727293 -0.0172905 -0.000715287 543.956 543.956 1001.29 
28 1 1 0.0969832 0.0296076 0.00998307 0 0 0 -0.0986134 -0.00718883 0.000550677 0.00112699 0.00196431 -0.000664207 -0.0986134 -0.00718883 0.000550677 563.547 563.547 1001.34 
29 1 1 0.126301 0.0233436 0.0099835 0 0 0 -0.0645868 -0.0160348 0.000256761 -7.24362e-05 -2.55903e-05 0.000771197 -0.0645868 -0.0160348 0.000256761 616.804 616.804 1001.46 
30 1 1 0.133752 0.0344202 0.00998454 0 0 0 -0.055403 -0.00287229 -0.00177043 0.000163486 -0.000173841 -0.00121341 -0.055403 -0.00287229 -0.00177043 543.107 543.107 1001.29 
31 1 1 0.00997095 0.0374508 0.00998348 0 0 0 -0.000826747 -0.0365136 0.00410897 -0.00142125 -0.00100013 0.000798403 -0.000826747 -0.0365136 0.00410897 584.259 584.259 1001.39 
32 1 1 0.0210369 0.0415341 0.00998559 0 0 0 0.00865858 0.00130196 0.000889344 -0.000331836 -0.000780974 -3.64168e-05 0.00865858 0.00130196 0.000889344 641.405 641.405 1001.52 
33 1 1 0.0458258 0.0369843 0.00998491 0 0 0 -0.00605617 0.0223003 -0.00156117 0.000457372 0.00046969 0.000552237 -0.00605617 0.0223003 -0.00156117 582.921 582.921 1001.38 
34 1 1 0.063885 0.0388693 0.00998516 0 0 0 -0.0465775 0.00152138 -0.000570108 0.00105418 -0.000695674 -0.000691672 -0.0465775 0.00152138 -0.000570108 582.226 582.226 1001.38 
35 1 1 0.0698278 0.0423653 0.00998312 0 0 0 -0.0380286 -0.0138112 -0.000128732 -0.000200934 0.000947532 -0.000104319 -0.0380286 -0.0138112 -0.000128732 574.307 574.307 1001.36 
36 1 1 0.0858285 0.0317487 0.00998087 0 0 0 -0.0699245 -0.00419336 0.00142564 0.000864758 0.000295955 0.000656431 -0.0699245 -0.00419336 0.00142564 599.991 599.991 1001.42 
37 1 1 0.108051 0.0384709 0.00998269 0 0 0 -0.0516448 -0.0220607 0.000611164 0.0011328 0.000379494 0.000315767 -0.0516448 -0.0220607 0.000611164 550.292 550.292 1001.31 
38 1 1 0.114322 0.0388293 0.00998281 0 0 0 -0.0601305 -0.00209773 -0.000337795 0.00112881 5.54057e-05 -0.000134024 -0.0601305 -0.00209773 -0.000337795 547.585 547.585 1001.3 
39 1 1 0.13546 0.0427511 0.00998265 0 0 0 -0.0538037 -0.0288213 3.75597e-05 9.69103e-05 0.000217174 2.71062e-05 -0.0538037 -0.0288213 3.75597e-05 547.467 547.467 1001.3 
40 1 1 0.148153 0.0356808 0.00998488 0 0 0 -0.0578733 -0.00362167 0.00141158 -0.00020105 -0.000390045 -0.0019449 -0.0578733 -0.00362167 0.00141158 546.526 546.526 1001.3 
41 1 1 0.00997076 0.0524783 0.00998363 0 0 0 0.00652244 -0.00262665 -0.00606947 -0.00206607 -1.43317e-05 0.00123748 0.00652244 -0.00262665 -0.00606947 590.053 590.053 1001.4 
42 1 1 0.0323456 0.0501418 0.00998648 0 0 0 0.00567375 -0.00447418 0.000869744 0.000187651 -0.000113665 0.000118873 0.00567375 -0.00447418 0.000869744 631.668 631.668 1001.5 
43 1 1 0.0443546 0.0504635 0.00998617 0 0 0 -0.0147497 0.0183873 0.000670367 0.00152036 0.000535162 -0.000595099 -0.0147497 0.0183873 0.000670367 584.118 584.118 1001.38 
44 1 1 0.0647002 0.0497835 0.00998278 0 0 0 -0.00219074 -0.00286322 0.00025483 0.00193513 0.000216558 0.00015048 -0.00219074 -0.00286322 0.00025483 560.027 560.027 1001.33 
45 1 1 0.0790902 0.0499839 0.00998329 0 0 0 -0.0397982 -0.00215589 0.000337279 0.0010739 0.00025142 0.000340545 -0.0397982 -0.00215589 0.000337279 562.343 562.343 1001.33 
46 1 1 0.0855628 0.0499766 0.00998353 0 0 0 -0.040869 0.00016184 0.00133629 0.000687528 0.000442604 0.000855832 -0.040869 0.00016184 0.00133629 576.197 576.197 1001.37 
47 1 1 0.0919248 0.0498267 0.00998446 0 0 0 -0.0640251 -0.00528041 -0.00237231 -0.000755108 0.000281524 -0.000441634 -0.0640251 -0.00528041 -0.00237231 561.354 561.354 1001.33 
48 1 1 0.116285 0.0498648 0.00998195 0 0 0 -0.0654186 -0.00109131 0.000773751 0.000219896 0.000446918 5.12029e-05 -0.0654186 -0.00109131 0.000773751 548.075 548.075 1001.3 
49 1 1 0.104075 0.0498241 0.00998259 0 0 0 -0.0358901 -0.00204576 -0.00132084 0.00167493 0.000353332 -0.000469638 -0.0358901 -0.00204576 -0.00132084 528.392 528.392 1001.25 
50 1 1 0.141939 0.0500634 0.00998323 0 0 0 -0.0863114 0.000489097 -0.00101288 0.000761393 0.000405963 -0.000354287 -0.0863114 0.000489097 -0.00101288 520.364 520.364 1001.23 
51 1 1 0.00996869 0.0628052 0.00998627 0 0 0 -0.000711212 0.0433408 0.00502882 0.000587971 0.000836855 -0.000135054 -0.000711212 0.0433408 0.00502882 605.673 605.673 1001.44 
52 1 1 0.0205144 0.0586593 0.00998775 0 0 0 0.00797054 0.00319306 -0.000523684 -0.00050536 0.00034499 -0.000709554 0.00797054 0.00319306 -0.000523684 655.252 655.252 1001.55 
53 1 1 0.0454754 0.0629785 0.00998492 0 0 0 -0.0030927 -0.0225127 -0.00155006 0.00127512 -0.00028727 0.000563777 -0.0030927 -0.0225127 -0.00155006 599.31 599.31 1001.42 
54 1 1 0.0638574 0.0610654 0.00998486 0 0 0 -0.0438801 -0.00184482 -0.000250949 0.00131638 0.00092395 -0.000470197 -0.0438801 -0.00184482 -0.000250949 585.536 585.536 1001.39 
55 1 1 0.0697201 0.0576957 0.00998306 0 0 0 -0.0398617 0.0143013 -5.92101e-05 2.999e-05 -0.000751429 0.000132394 -0.0398617 0.0143013 -5.92101e-05 575.315 575.315 1001.36 
56 1 1 0.0859062 0.068127 0.00998143 0 0 0 -0.0706171 0.00279956 0.00197214 0.000950406 0.000918941 0.000553307 -0.0706171 0.00279956 0.00197214 585.502 585.502 1001.39 
57 1 1 0.108041 0.0614905 0.00998293 0 0 0 -0.0521863 0.0201998 0.000550468 0.00104477 0.000343281 0.000203626 -0.0521863 0.0201998 0.000550468 540.991 540.991 1001.28 
58 1 1 0.114331 0.0612051 0.00998315 0 0 0 -0.0577524 0.0018962 -0.000659841 0.00117646 0.000669968 -0.000371063 -0.0577524 0.0018962 -0.000659841 537.185 537.185 1001.27 
59 1 1 0.135609 0.057308 0.00998313 0 0 0 -0.0536633 0.0291188 -0.000497057 4.09465e-05 0.0005036 -0.000373792 -0.0536633 0.0291188 -0.000497057 538.398 538.398 1001.28 
60 1 1 0.147679 0.0645918 0.00998556 0 0 0 -0.0620422 0.00650468 0.000859294 -0.000256722 0.00111725 -0.00248909 -0.0620422 0.00650468 0.000859294 534.517 534.517 1001.27 
61 1 1 0.00996951 0.0747339 0.00998656 0 0 0 -1.4314e-05 0.0171459 0.000310743 -0.00289718 -0.00185113 0.000341871 -1.4314e-05 0.0171459 0.000310743 647.526 647.526 1001.53 
62 1 1 0.0344783 0.0634747 0.00998647 0 0 0 -0.00296322 0.0194065 -0.000386511 0.000324412 -0.00114991 0.000367138 -0.00296322 0.0194065 -0.000386511 629.394 629.394 1001.49 
63 1 1 0.0555701 0.0567796 0.00998359 0 0 0 -0.00883117 0.000417522 -0.00130961 -0.000812564 0.000405924 0.00119347 -0.00883117 0.000417522 -0.00130961 578.485 578.485 1001.37 
64 1 1 0.0750244 0.0689883 0.00998348 0 0 0 -0.0628395 -0.022468 0.000836659 0.0012045 -0.000397839 -0.000741965 -0.0628395 -0.022468 0.000836659 592.873 592.873 1001.41 
65 1 1 0.0964717 0.0638038 0.00998305 0 0 0 -0.0267772 -0.0128281 0.000991131 0.00172875 -0.000224547 -5.4718e-05 -0.0267772 -0.0128281 0.000991131 556.995 556.995 1001.32 
66 1 1 0.096511 0.0766828 0.00998232 0 0 0 -0.0577719 -0.0206979 -0.00149021 0.00078057 0.00104005 0.00101688 -0.0577719 -0.0206979 -0.00149021 593.142 593.142 1001.41 
67 1 1 0.120775 0.055905 0.00998243 0 0 0 -0.0746817 0.0167782 -0.00108101 0.0004268 7.00767e-05 0.000200725 -0.0746817 0.0167782 -0.00108101 537.974 537.974 1001.28 
68 1 1 0.0970996 0.0702728 0.00998347 0 0 0 -0.0957559 0.00482506 0.000305348 0.00108252 -0.000942846 -0.00076718 -0.0957559 0.00482506 0.000305348 546.079 546.079 1001.3 
69 1 1 0.126256 0.0766454 0.00998546 0 0 0 -0.0648994 0.0150478 0.000236632 -0.000285625 0.00107718 -0.000819464 -0.0648994 0.0150478 0.000236632 586.902 586.902 1001.39 
70 1 1 0.13384 0.0656097 0.0099846 0 0 0 -0.0524767 0.00285326 -0.00219996 0.000106704 0.000944379 -0.00106215 -0.0524767 0.00285326 -0.00219996 532.893 532.893 1001.26 
71 1 1 0.00996416 0.0780527 0.00999401 0 0 0 0.00626521 -0.0101434 -0.00452313 0.00186143 -0.000246593 -0.00662786 0.00626521 -0.0101434 -0.00452313 687.501 687.501 1001.63 
72 1 1 0.0263469 0.0649236 0.00998889 0 0 0 -0.0090402 0.00181507 -0.000227883 -0.00048911 -0.000827065 -0.000534752 -0.0090402 0.00181507 -0.000227883 660.366 660.366 1001.56 
73 1 1 0.0233412 0.0768697 0.00999253 0 0 0 0.0233779 -0.00667322 0.00180031 -0.001725 0.00210477 -0.00307015 0.0233779 -0.00667322 0.00180031 707.081 707.081 1001.68 
74 1 1 0.0786176 0.0772321 0.00998148 0 0 0 -0.0650528 -0.00485149 -0.00115239 0.000541892 0.000207332 0.00230289 -0.0650528 -0.00485149 -0.00115239 619.88 619.88 1001.47 
75 1 1 0.0667965 0.0762891 0.00998432 0 0 0 -0.0242969 -0.00292544 0.00143494 9.84353e-06 -0.000162039 -0.000194782 -0.0242969 -0.00292544 0.00143494 636.671 636.671 1001.51 
76 1 1 0.0898092 0.0783423 0.00998223 0 0 0 -0.0857131 0.0155545 -0.000880056 0.00172077 -0.00254412 0.000483427 -0.0857131 0.0155545 -0.000880056 622.353 622.353 1001.48 
77 1 1 0.0926671 0.0589155 0.00998343 0 0 0 -0.0363254 -0.0186313 -0.00187088 0.000722893 0.000738599 -0.000345491 -0.0363254 -0.0186313 -0.00187088 559.44 559.44 1001.33 
78 1 1 0.119107 0.0672877 0.00998372 0 0 0 -0.0531726 0.00516247 -0.000338825 -0.000373891 0.00102134 -0.000237584 -0.0531726 0.00516247 -0.000338825 550.512 550.512 1001.31 
79 1 1 0.102976 0.0772769 0.00998381 0 0 0 -0.0588948 0.0516089 0.000321723 0.00043514 0.000866072 0.000499247 -0.0588948 0.0516089 0.000321723 596.92 596.92 1001.42 
80 1 1 0.136353 0.0778118 0.00998738 0 0 0 -0.0682245 0.000552029 -0.00433229 0.000134425 0.000118973 -0.00304274 -0.0682245 0.000552029 -0.00433229 568.251 568.251 1001.35 
81 1 1 0.00996882 0.090017 0.00999536 0 0 0 -0.00289922 -0.0134953 0.000199753 0.00136444 -0.000829944 -0.00506435 -0.00289922 -0.0134953 0.000199753 687.865 687.865 1001.63 
82 1 1 0.0262201 0.0900271 0.00997325 0 0 0 -0.0290891 0.00184907 0.00410899 -0.000173055 -0.00507881 0.0170089 -0.0290891 0.00184907 0.00410899 694.513 694.513 1001.65 
83 1 1 0.0231942 0.0900221 0.00999589 0 0 0 0.0140579 -0.0019592 0.00495796 -0.00200225 -3.67738e-05 -0.00541031 0.0140579 -0.0019592 0.00495796 723.675 723.675 1001.71 
84 1 1 0.0567419 0.0900241 0.00999813 0 0 0 -0.0311607 -0.00465072 0.000426908 0.000865442 -0.00245877 -0.00820269 -0.0311607 -0.00465072 0.000426908 673.577 673.577 1001.6 
85 1 1 0.0609547 0.0900158 0.00999447 0 0 0 -0.0147144 -0.00221492 0.00320936 0.000817699 0.00551731 -0.00548859 -0.0147144 -0.00221492 0.00320936 671.691 671.691 1001.59 
86 1 1 0.0779998 0.0900199 0.00997026 0 0 0 -0.0236038 0.00227401 -0.00156971 0.00133603 0.000137034 0.0177185 -0.0236038 0.00227401 -0.00156971 649.96 649.96 1001.54 
87 1 1 0.0910227 0.0900218 0.00997806 0 0 0 -0.0172376 -0.00658611 -0.0135388 0.000901181 -0.00119769 0.00980561 -0.0172376 -0.00658611 -0.0135388 633.996 633.996 1001.5 
88 1 1 0.100062 0.0900181 0.00998367 0 0 0 -0.0466478 0.00290214 -0.0114654 0.00147843 0.000919897 0.0035303 -0.0466478 0.00290214 -0.0114654 618.554 618.554 1001.47 
89 1 1 0.108299 0.0900202 0.00999845 0 0 0 -0.0193672 0.000928836 -0.0114889 0.00277522 -0.00177319 -0.0106721 -0.0193672 0.000928836 -0.0114889 585.48 585.48 1001.39 
90 1 1 0.121503 0.0900203 0.00999658 0 0 0 -0.0311991 -0.00337649 0.00948763 -0.000917088 -0.0010675 -0.00745543 -0.0311991 -0.00337649 0.00948763 635.263 635.263 1001.51 
91 1 1 0.00997478 0.00998753 0.0100194 0 0 0 -0.0101917 0.00789502 0.00409298 -0.00391742 -0.00306923 -0.0286746 -0.0101917 0.00789502 0.00409298 657.678 657.678 1001.56 
92 1 1 0.0190097 0.00997315 0.00998922 0 0 0 -0.0278553 -0.00286723 0.00915861 -0.000283562 0.00595636 0.000603104 -0.0278553 -0.00286723 0.00915861 703.794 703.794 1001.67 
93 1 1 0.0314346 0.00998039 0.0100013 0 0 0 -0.0102144 0.00588719 0.00628012 -0.00145404 -0.00290581 -0.0311774 -0.0102144 0.00588719 0.00628012 728.904 728.904 1001.73 
94 1 1 0.0398748 0.00998102 0.00996039 0 0 0 -0.0110462 -0.00257504 -0.00411477 1.31559e-06 -0.00299076 0.029355 -0.0110462 -0.00257504 -0.00411477 679.338 679.338 1001.61 
95 1 1 0.0653399 0.00998372 0.00997798 0 0 0 -0.0255813 0.00147171 0.0148157 -5.43924e-05 -0.00506816 0.0113803 -0.0255813 0.00147171 0.0148157 715.912 715.912 1001.7 
96 1 1 0.0869365 0.0099793 0.00997743 0 0 0 -0.0247404 -0.0079488 -0.0143774 0.000621504 -0.000799976 0.00901259 -0.0247404 -0.0079488 -0.0143774 629.082 629.082 1001.49 
97 1 1 0.0954628 0.00998293 0.00997344 0 0 0 0.0263913 -0.000864747 0.00814577 -0.000217125 -0.00371167 0.0138864 0.0263913 -0.000864747 0.00814577 695.678 695.678 1001.65 
98 1 1 0.103962 0.00997877 0.00998309 0 0 0 -0.0151727 -0.00164179 0.00286139 0.00297847 0.00128627 0.00386285 -0.0151727 -0.00164179 0.00286139 681.249 681.249 1001.61 
99 1 1 0.112908 0.00998488 0.00999035 0 0 0 -0.0108633 -0.000871899 0.000495413 0.00114955 -0.00465246 -0.00240751 -0.0108633 -0.000871899 0.000495413 646.478 646.478 1001.53 
100 1 1 0.116785 0.00998012 0.00998667 0 0 0 -0.00623818 -0.00278457 0.00347492 0.0017093 -0.000245089 0.00155874 -0.00623818 -0.00278457 0.00347492 646.498 646.498 1001.53 
101 1 1 0.00998313 0.0230897 0.0230499 0 0 0 -0.00184197 -0.0145035 -0.0161646 0.00268171 0.000501807 -4.73008e-05 -0.00184197 -0.0145035 -0.0161646 307.61 307.61 1000.73 
102 1 1 0.01775 0.0232302 0.00999056 0 0 0 -0.0239044 -0.0323666 0.00232225 -0.000517143 -0.000733248 -0.00380711 -0.0239044 -0.0323666 0.00232225 652.928 652.928 1001.55 
103 1 1 0.031758 0.0228375 0.0246605 0 0 0 -0.0365601 -0.0192555 -0.0154106 -0.000630231 0.000451636 0.00105864 -0.0365601 -0.0192555 -0.0154106 266.462 266.462 1000.63 
104 1 1 0.0834335 0.0240234 0.0383727 0 0 0 0.0562038 0.0228118 -0.00530285 -0.000797246 -0.000227681 0.000961037 0.0562038 0.0228118 -0.00530285 219.876 219.876 1000.52 
105 1 1 0.123587 0.0240097 0.0449934 0 0 0 -0.0363812 0.0347351 0.065976 0.000757591 8.55862e-05 -0.000111343 -0.0363812 0.0347351 0.065976 106.678 106.678 1000.25 
106 1 1 0.114805 0.0230416 0.00997742 0 0 0 -0.0727042 0.00512317 -0.0088482 0.000251277 0.00115853 0.00577048 -0.0727042 0.00512317 -0.0088482 586.694 586.694 1001.39 
107 1 1 0.167491 0.0210941 0.0238589 0 0 0 -0.0813505 0.0174172 0.0347628 -0.000990835 -0.000259873 0.000184077 -0.0813505 0.0174172 0.0347628 374.221 374.221 1000.89 
108 1 1 0.124773 0.0347469 0.00998622 0 0 0 -0.0501412 -0.0048249 0.00108458 0.000838803 5.52461e-05 -0.00241295 -0.0501412 -0.0048249 0.00108458 550.853 550.853 1001.31 
109 1 1 0.184895 0.0221713 0.0238816 0 0 0 -0.0573877 -0.0165273 -0.0104132 -0.00114669 -2.22529e-06 -7.47103e-05 -0.0573877 -0.0165273 -0.0104132 385.258 385.258 1000.91 
110 1 1 0.156219 0.0233934 0.00998227 0 0 0 -0.0847216 -0.01135 -0.000429603 -0.000538765 -0.000230559 0.00127441 -0.0847216 -0.01135 -0.000429603 598.973 598.973 1001.42 
111 1 1 0.00996886 0.0317752 0.00998607 0 0 0 0.00182328 0.0304771 0.000721534 -0.000157383 -6.69726e-05 -0.000855443 0.00182328 0.0304771 0.000721534 616.559 616.559 1001.46 
112 1 1 0.0226521 0.0239825 0.0384361 0 0 0 -0.0268668 -0.0415574 0.0195857 0.000365988 -0.000887066 0.000513005 -0.0268668 -0.0415574 0.0195857 162.527 162.527 1000.39 
113 1 1 0.0388886 0.032437 0.00998423 0 0 0 -0.00356997 -0.0299878 0.000337626 -0.000377331 0.000968026 -0.000146733 -0.00356997 -0.0299878 0.000337626 613.655 613.655 1001.45 
114 1 1 0.0497877 0.023585 0.00998604 0 0 0 -0.0421353 -0.0200444 0.000200371 -0.000298132 -0.000560204 -0.00109117 -0.0421353 -0.0200444 0.000200371 637.102 637.102 1001.51 
115 1 1 0.0763641 0.0212529 0.0250846 0 0 0 -0.00855801 -0.00687814 0.0604908 0.000133876 0.00106715 0.000428093 -0.00855801 -0.00687814 0.0604908 325.298 325.298 1000.77 
116 1 1 0.0855446 0.0377132 0.00998249 0 0 0 -0.00656071 -0.00860366 0.00014263 0.000760119 0.0014468 0.000249989 -0.00656071 -0.00860366 0.00014263 569.595 569.595 1001.35 
117 1 1 0.161479 0.0269916 0.0241626 0 0 0 -0.0654156 -0.020759 0.00910755 -0.000611523 0.00030723 0.000887536 -0.0654156 -0.020759 0.00910755 316.587 316.587 1000.75 
118 1 1 0.178969 0.0236742 0.0251541 0 0 0 -0.0885605 -0.0360792 -0.0181173 -0.00132269 -6.09866e-05 1.16069e-05 -0.0885605 -0.0360792 -0.0181173 327.181 327.181 1000.78 
119 1 1 0.131087 0.0248919 0.00998368 0 0 0 -0.0833401 -0.0100084 -0.0019242 0.000497039 -0.00014953 0.000461221 -0.0833401 -0.0100084 -0.0019242 591.566 591.566 1001.4 
120 1 1 0.190146 0.0226103 0.0257889 0 0 0 -0.0591162 -0.00434285 0.00608033 0.00057066 0.000992813 0.000596738 -0.0591162 -0.00434285 0.00608033 350.805 350.805 1000.83 
121 1 1 0.00996766 0.041605 0.00998666 0 0 0 -0.000664709 0.0135397 0.0036379 0.00153034 0.000749667 -0.00231065 -0.000664709 0.0135397 0.0036379 577.196 577.196 1001.37 
122 1 1 0.0201631 0.0343491 0.00998684 0 0 0 -0.00482366 0.00582481 0.00340219 -0.000670247 0.000955149 -0.00014728 -0.00482366 0.00582481 0.00340219 647.036 647.036 1001.53 
123 1 1 0.0283884 0.0255229 0.00998387 0 0 0 -0.0359064 0.0163502 0.00216855 -0.000925841 -0.000216193 0.00314992 -0.0359064 0.0163502 0.00216855 692.185 692.185 1001.64 
124 1 1 0.0635428 0.0316651 0.00998385 0 0 0 -0.0512899 0.00392862 0.000627349 0.000599779 0.000176335 -6.94602e-06 -0.0512899 0.00392862 0.000627349 613.364 613.364 1001.45 
125 1 1 0.0733623 0.0370057 0.00998166 0 0 0 -0.0176739 0.0154079 -0.000267317 0.00234127 -3.99564e-05 0.000735018 -0.0176739 0.0154079 -0.000267317 592.029 592.029 1001.4 
126 1 1 0.107902 0.0314314 0.00998291 0 0 0 -0.0601655 -0.0398291 -0.000483836 0.000769583 0.000394633 0.000663093 -0.0601655 -0.0398291 -0.000483836 551.965 551.965 1001.31 
127 1 1 0.14115 0.0379325 0.00998221 0 0 0 -0.0608481 0.0191502 0.000188794 -0.000251358 -0.000380393 0.00049946 -0.0608481 0.0191502 0.000188794 553.763 553.763 1001.31 
128 1 1 0.12824 0.0406187 0.00998177 0 0 0 -0.0615668 0.032507 -0.000773653 -7.30489e-05 0.000197613 0.00149007 -0.0615668 0.032507 -0.000773653 547.487 547.487 1001.3 
129 1 1 0.120191 0.0229647 0.00998404 0 0 0 -0.053687 0.00931357 0.00443157 0.000950472 0.00109137 -0.000403186 -0.053687 0.00931357 0.00443157 620.723 620.723 1001.47 
130 1 1 0.163321 0.0315887 0.00998288 0 0 0 -0.0920518 -0.00937135 0.00143246 -0.000953692 0.000684985 -0.000681164 -0.0920518 -0.00937135 0.00143246 576.59 576.59 1001.37 
131 1 1 0.00997138 0.0479021 0.00998237 0 0 0 0.00324178 -0.00706775 -0.00324876 -0.0024009 -0.00130117 0.00201939 0.00324178 -0.00706775 -0.00324876 576.542 576.542 1001.37 
132 1 1 0.0190167 0.0496343 0.00998459 0 0 0 -0.0222957 -0.00445985 -0.000268439 -0.000591709 -0.000759749 0.0015948 -0.0222957 -0.00445985 -0.000268439 649.47 649.47 1001.54 
133 1 1 0.0391636 0.0491657 0.00998472 0 0 0 -0.0452382 -0.0223957 0.00112844 -0.00178162 -0.000880741 0.00143509 -0.0452382 -0.0223957 0.00112844 607.575 607.575 1001.44 
134 1 1 0.0730472 0.0501519 0.00998287 0 0 0 -0.0409422 0.00253784 -5.28333e-05 -0.00166185 0.000152499 0.000482817 -0.0409422 0.00253784 -5.28333e-05 567.726 567.726 1001.35 
135 1 1 0.110489 0.050089 0.00998254 0 0 0 -0.0760223 -0.00172491 -0.00103766 0.000397963 0.000345755 -0.000398163 -0.0760223 -0.00172491 -0.00103766 538.073 538.073 1001.28 
136 1 1 0.128091 0.0500572 0.0237443 0 0 0 -0.00613328 0.00196048 0.00700627 -0.00129767 0.000312241 0.000347694 -0.00613328 0.00196048 0.00700627 307.023 307.023 1000.73 
137 1 1 0.156397 0.0501229 0.0243077 0 0 0 -0.0506985 0.00341628 -0.0318179 4.92018e-06 0.000265669 -0.000780494 -0.0506985 0.00341628 -0.0318179 294.975 294.975 1000.7 
138 1 1 0.12623 0.0501388 0.00998271 0 0 0 -0.0939587 0.00226277 -0.000588745 0.000915494 0.000393701 -0.00062368 -0.0939587 0.00226277 -0.000588745 534.327 534.327 1001.27 
139 1 1 0.13558 0.0499398 0.00998273 0 0 0 -0.0863255 -0.00154458 -0.000807373 -0.000793445 0.000489575 -5.43863e-05 -0.0863255 -0.00154458 -0.000807373 526.502 526.502 1001.25 
140 1 1 0.210059 0.0500001 0.0241885 0 0 0 -0.0955019 0.00120202 -0.00750074 -0.000271817 -4.88674e-06 -0.000589651 -0.0955019 0.00120202 -0.00750074 361.066 361.066 1000.86 
141 1 1 0.00996633 0.0587792 0.00998818 0 0 0 -0.000217763 0.00305627 0.00413313 0.00311261 -0.00161163 -0.00285061 -0.000217763 0.00305627 0.00413313 602.527 602.527 1001.43 
142 1 1 0.0207042 0.0661395 0.00998907 0 0 0 0.00591545 0.00776469 0.00278856 -0.00127147 -0.00155022 -0.000890278 0.00591545 0.00776469 0.00278856 648.653 648.653 1001.54 
143 1 1 0.0283067 0.0746962 0.00998513 0 0 0 -0.0371452 -0.0158558 0.00149413 -5.93565e-05 5.22839e-05 0.00389601 -0.0371452 -0.0158558 0.00149413 704.454 704.454 1001.67 
144 1 1 0.0636243 0.0684076 0.00998494 0 0 0 -0.0518535 -0.00468066 0.000704891 0.000787333 0.000791213 -0.000855559 -0.0518535 -0.00468066 0.000704891 606.634 606.634 1001.44 
145 1 1 0.0732449 0.0629776 0.00998239 0 0 0 -0.0201192 -0.0165137 -0.000225053 0.00280726 0.000859857 0.000394053 -0.0201192 -0.0165137 -0.000225053 588.202 588.202 1001.39 
146 1 1 0.108009 0.0685661 0.00998342 0 0 0 -0.0585737 0.0365906 -0.000325502 0.000806959 0.00051657 0.000407743 -0.0585737 0.0365906 -0.000325502 541.475 541.475 1001.28 
147 1 1 0.141246 0.0619369 0.00998264 0 0 0 -0.0628567 -0.0194994 -0.000265819 -0.000272652 0.0010673 0.000210018 -0.0628567 -0.0194994 -0.000265819 542.913 542.913 1001.29 
148 1 1 0.128285 0.0593531 0.0099824 0 0 0 -0.0615289 -0.0346516 -0.00104077 -9.82665e-06 0.000509185 0.000956552 -0.0615289 -0.0346516 -0.00104077 539.205 539.205 1001.28 
149 1 1 0.12011 0.0770549 0.00998374 0 0 0 -0.0527908 -0.0110019 0.00396559 0.000778597 0.000112705 0.000302096 -0.0527908 -0.0110019 0.00396559 587.568 587.568 1001.39 
150 1 1 0.163236 0.0683755 0.00998316 0 0 0 -0.0936192 0.00918635 0.00123727 -0.00100426 0.000243864 -0.000735803 -0.0936192 0.00918635 0.00123727 565.997 565.997 1001.34 
151 1 1 0.00996969 0.0682525 0.00998761 0 0 0 0.00179197 -0.0369063 0.000217405 -0.0012403 2.50062e-05 -0.000723115 0.00179197 -0.0369063 0.000217405 626.305 626.305 1001.48 
152 1 1 0.0232164 0.0740812 0.0361097 0 0 0 -0.0151824 0.018051 0.050588 0.00033473 0.00013766 -0.000973286 -0.0151824 0.018051 0.050588 188.012 188.012 1000.45 
153 1 1 0.0384943 0.0681699 0.0099867 0 0 0 -0.000241468 0.0235362 0.000523259 0.000575616 -0.000667777 -0.000224465 -0.000241468 0.0235362 0.000523259 639.841 639.841 1001.52 
154 1 1 0.0498064 0.0764821 0.00998728 0 0 0 -0.0348386 0.023165 0.000916381 0.00100076 0.000117317 -0.00143075 -0.0348386 0.023165 0.000916381 638.644 638.644 1001.51 
155 1 1 0.0762598 0.0787418 0.0249549 0 0 0 -0.0155046 0.00537223 0.0408334 0.000206794 -0.000111148 -0.000101777 -0.0155046 0.00537223 0.0408334 291.489 291.489 1000.69 
156 1 1 0.0854407 0.0623411 0.00998251 0 0 0 -0.0081274 0.00824709 -6.50302e-06 0.000957451 -0.000740361 0.000309753 -0.0081274 0.00824709 -6.50302e-06 561.242 561.242 1001.33 
157 1 1 0.161431 0.0729601 0.0241694 0 0 0 -0.0653537 0.0212001 0.00844928 -0.000620591 0.000283805 0.000512224 -0.0653537 0.0212001 0.00844928 307.866 307.866 1000.73 
158 1 1 0.178968 0.0763424 0.025163 0 0 0 -0.0878563 0.0374759 -0.0189003 -0.00177286 0.000571012 -0.000334116 -0.0878563 0.0374759 -0.0189003 319.722 319.722 1000.76 
159 1 1 0.130967 0.0750842 0.00998543 0 0 0 -0.084381 0.00777295 -0.00109202 0.000312225 0.00121201 -0.000912644 -0.084381 0.00777295 -0.00109202 570.212 570.212 1001.35 
160 1 1 0.190143 0.0773819 0.025794 0 0 0 -0.0585173 0.00582142 0.0046858 9.52247e-05 -0.000503131 0.000341899 -0.0585173 0.00582142 0.0046858 349.429 349.429 1000.83 
161 1 1 0.00998491 0.0767885 0.0226663 0 0 0 0.00245703 0.0522787 -0.00233727 0.00201116 0.0006388 0.00195155 0.00245703 0.0522787 -0.00233727 294.232 294.232 1000.7 
162 1 1 0.0177592 0.0768637 0.00999268 0 0 0 -0.0365355 0.0420972 0.00117778 -0.000851847 0.000511545 -0.00484433 -0.0365355 0.0420972 0.00117778 689.84 689.84 1001.63 
163 1 1 0.032909 0.0774092 0.026041 0 0 0 -0.031723 0.0496678 0.0266881 -0.000721814 0.000228857 -0.00212277 -0.031723 0.0496678 0.0266881 263.429 263.429 1000.63 
164 1 1 0.0841342 0.0746701 0.0377436 0 0 0 0.0583121 -0.037709 -0.00276638 -0.000513283 0.00117042 0.000475835 0.0583121 -0.037709 -0.00276638 219.477 219.477 1000.52 
165 1 1 0.123588 0.0760433 0.0449788 0 0 0 -0.0377004 -0.0345068 0.0658091 0.000928252 0.000217657 -0.000571634 -0.0377004 -0.0345068 0.0658091 98.4348 98.4348 1000.23 
166 1 1 0.114766 0.0769227 0.00997889 0 0 0 -0.0747003 -0.00478098 -0.00879835 0.000273672 0.0003919 0.00474343 -0.0747003 -0.00478098 -0.00879835 556.402 556.402 1001.32 
167 1 1 0.16749 0.07891 0.0238684 0 0 0 -0.0808759 -0.016881 0.0342564 -0.00111975 0.00100723 -0.000314908 -0.0808759 -0.016881 0.0342564 357.241 357.241 1000.85 
168 1 1 0.124864 0.0651937 0.00998592 0 0 0 -0.0490125 0.00590219 0.00115055 0.000855001 0.000853605 -0.00191373 -0.0490125 0.00590219 0.00115055 540.565 540.565 1001.28 
169 1 1 0.184897 0.0778141 0.02389 0 0 0 -0.0566832 0.0175075 -0.011101 -0.00164238 0.000600041 -0.000525233 -0.0566832 0.0175075 -0.011101 380.597 380.597 1000.9 
170 1 1 0.156329 0.0765656 0.00998271 0 0 0 -0.0811708 0.0100332 -0.000456226 -0.000334775 0.00129733 0.00109596 -0.0811708 0.0100332 -0.000456226 576.107 576.107 1001.37 
171 1 1 0.00997188 0.0900179 0.0100042 0 0 0 0.00673115 0.00107237 0.0192157 -0.00196433 -0.0017993 -0.0298337 0.00673115 0.00107237 0.0192157 719.5 719.5 1001.7 
172 1 1 0.0190036 0.0900247 0.00999547 0 0 0 -0.0141751 -0.00416956 -0.0169181 0.000361249 -0.0026902 -0.00563038 -0.0141751 -0.00416956 -0.0169181 699.811 699.811 1001.66 
173 1 1 0.0312412 0.0900186 0.00999024 0 0 0 -0.010265 -0.00501222 -0.0168507 -0.00147021 0.00468058 0.000494292 -0.010265 -0.00501222 -0.0168507 676.654 676.654 1001.6 