ITEM: TIMESTEP
193000
ITEM: NUMBER OF ATOMS
2655
ITEM: BOX BOUNDS ff ff ff
0 0.5
0 0.1
0 0.5
ITEM: ATOMS id type type x y z ix iy iz vx vy vz fx fy fz vx vy vz p p rho 
1 1 1 0.00998429 0.00997976 0.00997949 0 0 0 -0.00271762 0.0011781 -0.00146457 0.00068191 0.0047614 -0.00436409 -0.00271762 0.0011781 -0.00146457 430.489 430.489 1001.02 
2 1 1 0.0414823 0.00998043 0.00998368 0 0 0 -0.00278837 0.00592455 -0.00527137 0.000491428 0.00445489 -0.00444766 -0.00278837 0.00592455 -0.00527137 422.453 422.453 1001 
3 1 1 0.0373539 0.00997908 0.00998641 0 0 0 -0.0173012 0.00137538 -0.00190352 0.000168646 0.00632561 -0.00703893 -0.0173012 0.00137538 -0.00190352 424.73 424.73 1001.01 
4 1 1 0.0733029 0.00998155 0.00998371 0 0 0 -0.0197493 -0.00543729 0.00564375 4.94614e-05 0.00307831 -0.00421849 -0.0197493 -0.00543729 0.00564375 406.795 406.795 1000.97 
5 1 1 0.0775835 0.00998389 0.00997834 0 0 0 -0.0153782 0.004574 -0.00376255 0.000298756 0.000151812 0.000986413 -0.0153782 0.004574 -0.00376255 407.064 407.064 1000.97 
6 1 1 0.0957046 0.0099803 0.00998386 0 0 0 -0.0258956 0.00120911 -0.00143323 -0.000135919 0.00458445 -0.00456838 -0.0258956 0.00120911 -0.00143323 401.624 401.624 1000.95 
7 1 1 0.108819 0.00998356 0.0099793 0 0 0 -0.0231032 0.00475561 -0.00464624 0.000369144 0.000664391 -0.00032797 -0.0231032 0.00475561 -0.00464624 398.502 398.502 1000.95 
8 1 1 0.117742 0.00998458 0.00997923 0 0 0 -0.0239231 -0.000953252 0.00147985 5.26371e-05 -0.00017604 -3.12968e-05 -0.0239231 -0.000953252 0.00147985 394.143 394.143 1000.94 
9 1 1 0.126636 0.00998747 0.009976 0 0 0 -0.0331248 -0.00106246 0.00228176 0.00069445 -0.00351345 0.00306514 -0.0331248 -0.00106246 0.00228176 393.095 393.095 1000.93 
10 1 1 0.140371 0.00998441 0.00997906 0 0 0 -0.0352421 -0.00294264 0.00349683 -0.000120914 -0.000394399 -0.00035099 -0.0352421 -0.00294264 0.00349683 387.199 387.199 1000.92 
11 1 1 0.00997913 0.020823 0.00997572 0 0 0 -0.000692185 0.00751322 -1.68535e-05 0.00564826 0.00016011 -0.00277537 -0.000692185 0.00751322 -1.68535e-05 428.588 428.588 1001.02 
12 1 1 0.0378137 0.0371812 0.00997731 0 0 0 0.00443065 -0.0273052 0.000325326 0.000154777 -0.000577522 4.11588e-05 0.00443065 -0.0273052 0.000325326 393.902 393.902 1000.94 
13 1 1 0.0224651 0.0215616 0.00997343 0 0 0 -0.0162738 -0.00415661 -0.00146512 -6.80051e-05 0.000573652 0.00251781 -0.0162738 -0.00415661 -0.00146512 429.234 429.234 1001.02 
14 1 1 0.0869428 0.0216949 0.00997588 0 0 0 -0.0277384 0.00768697 -1.04572e-05 0.000162259 0.000842378 0.00122993 -0.0277384 0.00768697 -1.04572e-05 401.923 401.923 1000.95 
15 1 1 0.0781537 0.0219147 0.00997681 0 0 0 -0.012358 -0.0182442 0.00132073 3.83168e-05 0.000771126 5.62119e-05 -0.012358 -0.0182442 0.00132073 395.718 395.718 1000.94 
16 1 1 0.104626 0.0229338 0.00997675 0 0 0 -0.0324505 -0.00849114 -0.000870136 1.40827e-05 -0.00019565 0.000323961 -0.0324505 -0.00849114 -0.000870136 389.267 389.267 1000.92 
17 1 1 0.110187 0.04175 0.00997662 0 0 0 -0.00591644 0.00184057 0.000316742 -0.000227654 0.00044306 -0.000191261 -0.00591644 0.00184057 0.000316742 378.082 378.082 1000.9 
18 1 1 0.138667 0.0304602 0.00997745 0 0 0 -0.0399456 -0.0133506 0.000257723 -0.000116203 -0.00019005 -0.000166007 -0.0399456 -0.0133506 0.000257723 380.855 380.855 1000.9 
19 1 1 0.116752 0.0236721 0.00997689 0 0 0 -0.0434644 -0.00784449 0.000818176 0.000151176 -0.000466123 3.3216e-06 -0.0434644 -0.00784449 0.000818176 382.369 382.369 1000.91 
20 1 1 0.152897 0.0220807 0.0099777 0 0 0 -0.0320388 0.00214424 0.000359854 0.000148606 0.000164289 -0.000154672 -0.0320388 0.00214424 0.000359854 385.869 385.869 1000.92 
21 1 1 0.00999083 0.0283936 0.00996937 0 0 0 -0.0061696 -0.00239544 0.00651903 -0.00611874 0.000222868 0.00355145 -0.0061696 -0.00239544 0.00651903 423.614 423.614 1001.01 
22 1 1 0.0345196 0.0250424 0.00997706 0 0 0 -0.0291574 -0.0206938 -0.000712575 0.000510765 -0.000425523 -0.000668824 -0.0291574 -0.0206938 -0.000712575 392.705 392.705 1000.93 
23 1 1 0.0712193 0.0466151 0.00997697 0 0 0 -0.00708997 0.00277565 0.000373179 0.000275342 -4.10194e-05 -0.000147488 -0.00708997 0.00277565 0.000373179 385.303 385.303 1000.91 
24 1 1 0.0955047 0.031178 0.00997761 0 0 0 -0.0222768 0.00541225 0.000621598 3.10785e-05 -0.000116361 -0.00024303 -0.0222768 0.00541225 0.000621598 381.686 381.686 1000.91 
25 1 1 0.116242 0.0390463 0.00997662 0 0 0 -0.040641 0.00975492 0.000249596 -9.17142e-06 -0.000620366 -0.000185695 -0.040641 0.00975492 0.000249596 378.79 378.79 1000.9 
26 1 1 0.110805 0.0219174 0.00997669 0 0 0 -0.0434433 0.00807488 0.000163144 0.000328753 -7.05977e-06 0.000279968 -0.0434433 0.00807488 0.000163144 387.688 387.688 1000.92 
27 1 1 0.137361 0.0422679 0.0099773 0 0 0 -0.00981083 -0.0233345 0.000279273 -2.74855e-05 -0.000185396 -0.000196325 -0.00981083 -0.0233345 0.000279273 375.365 375.365 1000.89 
28 1 1 0.115808 0.0318423 0.00997668 0 0 0 -0.00758379 0.0110349 0.000294989 0.000201648 -0.000244655 -0.000135382 -0.00758379 0.0110349 0.000294989 379.343 379.343 1000.9 
29 1 1 0.140799 0.0224805 0.00997733 0 0 0 -0.0362303 0.0109547 0.000271507 0.000374983 9.8226e-05 -0.000217118 -0.0362303 0.0109547 0.000271507 384.167 384.167 1000.91 
30 1 1 0.151079 0.0307171 0.0099777 0 0 0 -0.0214265 -0.00244671 0.000253386 -0.00010126 -4.94703e-05 -0.000238351 -0.0214265 -0.00244671 0.000253386 385.389 385.389 1000.92 
31 1 1 0.00997928 0.0382877 0.00997605 0 0 0 0.00626208 0.0159465 -0.00614175 0.00517127 6.76298e-05 -0.00280548 0.00626208 0.0159465 -0.00614175 414.254 414.254 1000.98 
32 1 1 0.0223304 0.0403171 0.00997633 0 0 0 -0.00539468 -0.00213874 -0.00111896 0.000343525 -3.39225e-05 -0.000303706 -0.00539468 -0.00213874 -0.00111896 418.055 418.055 1000.99 
33 1 1 0.0596824 0.0219155 0.00997689 0 0 0 -0.00724757 0.000641693 2.40587e-05 -0.000259008 -0.000402406 8.80387e-06 -0.00724757 0.000641693 2.40587e-05 395.219 395.219 1000.94 
34 1 1 0.0641407 0.0337233 0.0099765 0 0 0 -0.0323097 -0.0155082 0.000377254 7.17614e-05 0.00059766 -0.000132791 -0.0323097 -0.0155082 0.000377254 388.202 388.202 1000.92 
35 1 1 0.0842028 0.0357 0.00997745 0 0 0 -0.0112891 0.0107796 0.000363332 0.000127001 0.000267263 -0.000385893 -0.0112891 0.0107796 0.000363332 389.1 389.1 1000.92 
36 1 1 0.10745 0.0305816 0.00997749 0 0 0 -0.0198123 -0.000536935 0.00033971 -0.000285637 0.000257891 -0.000144253 -0.0198123 -0.000536935 0.00033971 382.146 382.146 1000.91 
37 1 1 0.126956 0.0368521 0.00997718 0 0 0 -0.032018 0.00282429 0.000262842 0.000212786 0.00012209 -0.000200762 -0.032018 0.00282429 0.000262842 383.183 383.183 1000.91 
38 1 1 0.133985 0.0358698 0.00997741 0 0 0 -0.0178224 -0.00641504 0.000271523 -3.86295e-05 7.97934e-05 -0.000185646 -0.0178224 -0.00641504 0.000271523 380.213 380.213 1000.9 
39 1 1 0.158243 0.0381698 0.00997787 0 0 0 -0.0155687 -0.0104084 0.000230484 -0.000255797 5.05059e-05 -0.000181653 -0.0155687 -0.0104084 0.000230484 376.858 376.858 1000.89 
40 1 1 0.170955 0.0402482 0.00997718 0 0 0 -0.00814471 -0.0035313 0.000216093 -4.23984e-05 -0.000165877 -0.000146388 -0.00814471 -0.0035313 0.000216093 375.133 375.133 1000.89 
41 1 1 0.00998239 0.0523359 0.0099742 0 0 0 0.00946515 0.0147262 -0.00701281 0.00256408 1.24155e-05 -0.000759298 0.00946515 0.0147262 -0.00701281 424.663 424.663 1001.01 
42 1 1 0.0415424 0.0644132 0.00997676 0 0 0 -0.015942 -0.0189449 0.000310104 0.000757213 0.000509241 -0.000322124 -0.015942 -0.0189449 0.000310104 378.036 378.036 1000.9 
43 1 1 0.0605812 0.0537381 0.00997665 0 0 0 -0.0236272 -0.00873868 0.000286814 0.000353648 -1.99558e-05 -0.000219397 -0.0236272 -0.00873868 0.000286814 377.678 377.678 1000.9 
44 1 1 0.0771057 0.0423555 0.00997727 0 0 0 -0.00385683 -0.00652699 0.000322451 -0.000174762 0.000246979 -0.000170646 -0.00385683 -0.00652699 0.000322451 382.89 382.89 1000.91 
45 1 1 0.0887804 0.0463509 0.00997701 0 0 0 -0.00716687 0.00929895 0.00030973 0.000501461 5.23859e-05 -7.45123e-05 -0.00716687 0.00929895 0.00030973 383.151 383.151 1000.91 
46 1 1 0.101437 0.0504165 0.00997695 0 0 0 -0.01775 -0.00615384 0.000320543 -0.000312359 -4.98625e-05 -0.000130465 -0.01775 -0.00615384 0.000320543 379.726 379.726 1000.9 
47 1 1 0.107284 0.0489103 0.00997703 0 0 0 -0.0380389 -0.00536157 0.000326231 0.000958454 -0.000419086 -0.0001822 -0.0380389 -0.00536157 0.000326231 378.881 378.881 1000.9 
48 1 1 0.133932 0.0484481 0.00997708 0 0 0 -0.0170589 -0.0124153 0.000283079 -5.16688e-05 -4.28689e-06 -0.000198831 -0.0170589 -0.0124153 0.000283079 375.459 375.459 1000.89 
49 1 1 0.120253 0.0496869 0.00997728 0 0 0 -0.0338549 0.000952571 0.000296368 -4.56129e-05 -0.000320617 -0.000178272 -0.0338549 0.000952571 0.000296368 380.562 380.562 1000.9 
50 1 1 0.15678 0.0523213 0.00997724 0 0 0 -0.0214302 0.0121823 0.000248741 0.000372709 7.34789e-05 -0.000117556 -0.0214302 0.0121823 0.000248741 376.981 376.981 1000.9 
51 1 1 0.00998867 0.0618997 0.00997188 0 0 0 -0.00724366 -0.00912551 0.00718708 -0.00400022 -0.000149121 0.00183338 -0.00724366 -0.00912551 0.00718708 422.23 422.23 1001 
52 1 1 0.0250695 0.0515528 0.00997691 0 0 0 -0.000624079 0.00409445 -0.000960859 -0.000314557 -0.000300047 -3.24052e-06 -0.000624079 0.00409445 -0.000960859 411.397 411.397 1000.98 
53 1 1 0.0708296 0.0612172 0.00997709 0 0 0 -0.0117085 -0.00772989 0.000353551 -0.000474173 9.55599e-05 -0.000108043 -0.0117085 -0.00772989 0.000353551 387.912 387.912 1000.92 
54 1 1 0.0882967 0.0592443 0.00997716 0 0 0 -0.0314345 -0.0021578 0.00043495 -8.90025e-05 0.000233598 -0.000197671 -0.0314345 -0.0021578 0.00043495 381.081 381.081 1000.9 
55 1 1 0.0922472 0.0555512 0.0099772 0 0 0 -0.0173904 0.0105982 0.000369506 0.000743197 -8.02056e-05 -0.000171447 -0.0173904 0.0105982 0.000369506 376.268 376.268 1000.89 
56 1 1 0.107518 0.0683585 0.00997714 0 0 0 -0.021891 0.00391639 0.00038489 -5.57955e-05 -5.78086e-05 -0.000135446 -0.021891 0.00391639 0.00038489 386.488 386.488 1000.92 
57 1 1 0.132171 0.0628656 0.00997749 0 0 0 -0.0126458 -0.0285188 0.000305171 -6.04778e-06 -0.000472614 -0.00010927 -0.0126458 -0.0285188 0.000305171 381.556 381.556 1000.91 
58 1 1 0.139053 0.0628004 0.00997747 0 0 0 -0.0184359 0.0002134 0.000280559 0.00022378 -0.000182839 -0.000115599 -0.0184359 0.0002134 0.000280559 380.005 380.005 1000.9 
59 1 1 0.152632 0.0654849 0.00997714 0 0 0 -0.0238949 -0.0134312 0.000217645 -0.000326719 8.8323e-05 -0.000127399 -0.0238949 -0.0134312 0.000217645 382.391 382.391 1000.91 
60 1 1 0.162047 0.0638393 0.00997713 0 0 0 -0.0202061 0.00261686 0.00020155 -0.000457415 -4.47089e-05 -0.000120994 -0.0202061 0.00261686 0.00020155 380.567 380.567 1000.9 
61 1 1 0.00998478 0.0715498 0.00997302 0 0 0 -0.00185373 0.00895285 0.00265796 0.000184423 -0.000101391 0.000412324 -0.00185373 0.00895285 0.00265796 423.903 423.903 1001.01 
62 1 1 0.0487512 0.0613121 0.00997685 0 0 0 -0.0245349 0.0136069 0.00028463 0.000245063 -0.000386097 -9.61409e-05 -0.0245349 0.0136069 0.00028463 388.396 388.396 1000.92 
63 1 1 0.0827132 0.0635606 0.00997683 0 0 0 -0.0161022 0.00873222 0.000351626 -0.000513397 -0.000277901 -9.02563e-05 -0.0161022 0.00873222 0.000351626 385.763 385.763 1000.92 
64 1 1 0.0939203 0.0664903 0.00997727 0 0 0 0.00198248 -0.0100553 0.000504087 -0.000137222 0.00010903 -0.000158146 0.00198248 -0.0100553 0.000504087 386.786 386.786 1000.92 
65 1 1 0.120604 0.0611166 0.00997708 0 0 0 -0.0202755 0.0131755 0.000315555 0.000271086 -0.000204441 -0.000136518 -0.0202755 0.0131755 0.000315555 381.926 381.926 1000.91 
66 1 1 0.111538 0.0775109 0.00997722 0 0 0 -0.0193059 -0.00702006 0.00023369 -0.000239994 0.000123263 0.000165998 -0.0193059 -0.00702006 0.00023369 392.522 392.522 1000.93 
67 1 1 0.138248 0.0536629 0.00997709 0 0 0 -0.017973 -0.0130658 0.000271755 0.000269163 -9.53529e-05 -0.000141548 -0.017973 -0.0130658 0.000271755 376.769 376.769 1000.89 
68 1 1 0.119876 0.0673776 0.00997717 0 0 0 -0.0207309 -0.000677264 0.000402375 -0.000206829 0.000114649 -0.000111095 -0.0207309 -0.000677264 0.000402375 386.808 386.808 1000.92 
69 1 1 0.139956 0.0775885 0.0099766 0 0 0 -0.040384 0.0170549 0.000301422 0.000386347 -0.000386032 7.46297e-05 -0.040384 0.0170549 0.000301422 392.081 392.081 1000.93 
70 1 1 0.150132 0.0718729 0.00997737 0 0 0 -0.0270799 0.00177591 0.000240532 0.000151711 -0.000152274 -0.000116018 -0.0270799 0.00177591 0.000240532 385.098 385.098 1000.91 
71 1 1 0.00998532 0.0794059 0.00997058 0 0 0 0.0103567 0.00799016 -0.00428123 -0.00083998 -0.000921116 0.0026605 0.0103567 0.00799016 -0.00428123 436.907 436.907 1001.04 
72 1 1 0.0287226 0.060594 0.00997779 0 0 0 -0.0243653 -0.0264467 0.000660455 0.000636484 0.000630837 -0.000703219 -0.0243653 -0.0264467 0.000660455 410.138 410.138 1000.97 
73 1 1 0.0333808 0.0776246 0.00997541 0 0 0 0.0202804 -0.00898647 -0.00115863 -7.02997e-05 -0.000644913 0.00123298 0.0202804 -0.00898647 -0.00115863 399.162 399.162 1000.95 
74 1 1 0.0946044 0.0775444 0.00997712 0 0 0 -0.0205459 0.0051407 0.000514238 0.000207328 -0.000355188 3.4377e-05 -0.0205459 0.0051407 0.000514238 394.498 394.498 1000.94 
75 1 1 0.0820957 0.0774009 0.00997788 0 0 0 -0.0067925 0.0015768 -0.000289446 -0.000123786 -9.77764e-05 -0.000760157 -0.0067925 0.0015768 -0.000289446 389.078 389.078 1000.92 
76 1 1 0.105613 0.0771125 0.00997725 0 0 0 -0.0302715 0.00620108 0.000296492 -0.000189254 0.000391594 -5.00406e-05 -0.0302715 0.00620108 0.000296492 390.853 390.853 1000.93 
77 1 1 0.109611 0.0572636 0.00997709 0 0 0 8.53433e-05 -0.0140988 0.000333397 -4.96909e-05 0.000506944 -0.0001622 8.53433e-05 -0.0140988 0.000333397 382.346 382.346 1000.91 
78 1 1 0.139706 0.0696667 0.00997693 0 0 0 -0.0272652 0.0105932 0.000288485 0.000250616 9.19076e-05 -0.000118963 -0.0272652 0.0105932 0.000288485 382.181 382.181 1000.91 
79 1 1 0.11686 0.0763775 0.0099772 0 0 0 -0.0180795 -0.00384226 0.000323959 0.000243312 -0.000374446 0.000132322 -0.0180795 -0.00384226 0.000323959 393.334 393.334 1000.93 
80 1 1 0.153801 0.0779395 0.00997666 0 0 0 -0.033588 -0.000616484 0.000448923 0.000361404 0.000106474 0.000247858 -0.033588 -0.000616484 0.000448923 388.948 388.948 1000.92 
81 1 1 0.00998704 0.0900222 0.00997677 0 0 0 0.0107397 0.00936658 0.00548188 -0.00206736 -0.00628664 -0.00113999 0.0107397 0.00936658 0.00548188 437.978 437.978 1001.04 
82 1 1 0.0335935 0.0900146 0.00997734 0 0 0 -0.0100234 -0.00405175 -0.00207882 -0.000694479 0.00146526 0.00183614 -0.0100234 -0.00405175 -0.00207882 429.343 429.343 1001.02 
83 1 1 0.027775 0.090012 0.00997591 0 0 0 -0.00744455 0.00265336 0.00400076 0.000354307 0.00413714 0.00315114 -0.00744455 0.00265336 0.00400076 433.427 433.427 1001.03 
84 1 1 0.0732131 0.0900116 0.0099748 0 0 0 -0.019939 -0.00217594 -0.000161803 0.000900315 0.00430771 0.00446892 -0.019939 -0.00217594 -0.000161803 421.33 421.33 1001 
85 1 1 0.0785019 0.0900205 0.00998417 0 0 0 -0.0291381 0.00195599 0.00262877 -0.000497248 -0.00424659 -0.00502913 -0.0291381 0.00195599 0.00262877 416.133 416.133 1000.99 
86 1 1 0.0965766 0.0900175 0.00997958 0 0 0 -0.0335724 -0.00509427 -0.00438986 -0.000354168 -0.00130163 -0.000553067 -0.0335724 -0.00509427 -0.00438986 410.561 410.561 1000.97 
87 1 1 0.110077 0.0900218 0.0099847 0 0 0 -0.0320335 0.00367676 0.00364875 0.000149415 -0.00543471 -0.00609497 -0.0320335 0.00367676 0.00364875 403.214 403.214 1000.96 
88 1 1 0.119067 0.0900225 0.00998558 0 0 0 -0.03544 0.00146384 0.00140226 0.000180959 -0.00614254 -0.00654033 -0.03544 0.00146384 0.00140226 393.378 393.378 1000.93 
89 1 1 0.128412 0.0900132 0.00997432 0 0 0 -0.0507861 -0.00432145 -0.00343082 0.000239281 0.00357081 0.00410871 -0.0507861 -0.00432145 -0.00343082 392.668 392.668 1000.93 
90 1 1 0.142022 0.0900156 0.00997802 0 0 0 -0.0502253 0.00583313 0.00659761 -4.24527e-05 0.00109314 0.000316379 -0.0502253 0.00583313 0.00659761 387.1 387.1 1000.92 
91 1 1 0.0099925 0.00998267 0.00997121 0 0 0 0.00306005 -0.000868203 -0.00241066 -0.00751315 0.00183672 0.00392554 0.00306005 -0.000868203 -0.00241066 434.276 434.276 1001.03 
92 1 1 0.0336657 0.00998679 0.00997884 0 0 0 -0.020906 -0.000325282 0.0014703 -0.000452668 -0.00159286 0.000399967 -0.020906 -0.000325282 0.0014703 431.136 431.136 1001.02 
93 1 1 0.0466496 0.00998543 0.00997815 0 0 0 -0.0233265 0.00196835 -0.000283943 -0.000241942 -0.000919048 0.00107145 -0.0233265 0.00196835 -0.000283943 421.139 421.139 1001 
94 1 1 0.0552527 0.00998973 0.00997451 0 0 0 -0.0139023 -0.00527295 0.00681244 0.000208881 -0.00553227 0.00473944 -0.0139023 -0.00527295 0.00681244 416.63 416.63 1000.99 
95 1 1 0.0823095 0.00998493 0.00997966 0 0 0 -0.0210207 -0.00816051 0.00866541 7.28521e-05 -0.00117106 -0.00036264 -0.0210207 -0.00816051 0.00866541 403.687 403.687 1000.96 
96 1 1 0.10424 0.00998046 0.00998302 0 0 0 -0.018811 0.00475031 -0.0052233 0.000507356 0.00420276 -0.00386441 -0.018811 0.00475031 -0.0052233 398.675 398.675 1000.95 
97 1 1 0.113374 0.00998817 0.00997629 0 0 0 -0.0292847 -0.00681129 0.00781627 0.000282832 -0.0039111 0.00273785 -0.0292847 -0.00681129 0.00781627 395.993 395.993 1000.94 
98 1 1 0.122114 0.00998022 0.00998268 0 0 0 -0.0231591 0.0039522 -0.00387492 0.000349547 0.00374322 -0.00338831 -0.0231591 0.0039522 -0.00387492 393.959 393.959 1000.94 
99 1 1 0.131324 0.00998278 0.00998112 0 0 0 -0.0304954 -0.00178419 0.00205847 -0.000120806 0.00152858 -0.00216711 -0.0304954 -0.00178419 0.00205847 387.444 387.444 1000.92 
100 1 1 0.135343 0.00998396 0.00997885 0 0 0 -0.0314115 0.00461984 -0.00417988 0.000324473 0.000239578 0.000142602 -0.0314115 0.00461984 -0.00417988 385.28 385.28 1000.91 
101 1 1 0.00999268 0.0226955 0.0249711 0 0 0 -0.000271683 0.00295652 0.0128881 -0.00209646 -0.000316266 -0.000348897 -0.000271683 0.00295652 0.0128881 364.563 364.563 1000.87 
102 1 1 0.00998243 0.0236276 0.0099729 0 0 0 0.00471351 0.0125582 -0.00334921 0.00240577 -0.000457098 7.48742e-05 0.00471351 0.0125582 -0.00334921 430.269 430.269 1001.02 
103 1 1 0.0247761 0.0245178 0.0221858 0 0 0 0.00701244 -0.00753211 0.0106639 3.41303e-05 -0.000168127 0.000600703 0.00701244 -0.00753211 0.0106639 315.617 315.617 1000.75 
104 1 1 0.0840686 0.0232246 0.0350104 0 0 0 0.0274698 -0.0141582 -0.00793011 -8.32411e-05 4.40742e-06 -0.000638666 0.0274698 -0.0141582 -0.00793011 228.925 228.925 1000.54 
105 1 1 0.127531 0.0400828 0.0496486 0 0 0 0.0690888 0.00197833 -0.00539387 -0.000116388 0.000288879 -6.95476e-05 0.0690888 0.00197833 -0.00539387 155.824 155.824 1000.37 
106 1 1 0.12871 0.022834 0.00997749 0 0 0 -0.0461441 -0.0114142 0.000250887 0.000564788 -0.000130125 -0.000240333 -0.0461441 -0.0114142 0.000250887 386.963 386.963 1000.92 
107 1 1 0.141882 0.0222433 0.0347421 0 0 0 0.0466247 -0.00620457 -0.00645493 -0.000217426 -0.000291664 -0.000557069 0.0466247 -0.00620457 -0.00645493 237.688 237.688 1000.56 
108 1 1 0.145967 0.0349709 0.00997693 0 0 0 -0.00348697 -0.0164758 0.000252781 0.000283566 -0.000197476 -0.000166979 -0.00348697 -0.0164758 0.000252781 378.311 378.311 1000.9 
109 1 1 0.156707 0.0228122 0.022237 0 0 0 0.0202792 0.0169072 -0.00244165 0.000165213 -0.000249901 -0.000375547 0.0202792 0.0169072 -0.00244165 300.566 300.566 1000.71 
110 1 1 0.171009 0.023166 0.00997768 0 0 0 -0.030467 -0.00844464 0.000358223 -1.57583e-05 -0.000396258 -0.000240605 -0.030467 -0.00844464 0.000358223 386.383 386.383 1000.92 
111 1 1 0.00998424 0.0337083 0.00997316 0 0 0 0.00118351 0.00146195 -0.00117634 0.00035892 0.000235476 -2.12394e-05 0.00118351 0.00146195 -0.00117634 416.307 416.307 1000.99 
112 1 1 0.0237172 0.0224242 0.0411962 0 0 0 0.0241874 0.00542657 -0.0175987 3.41879e-05 -0.000492157 7.39589e-05 0.0241874 0.00542657 -0.0175987 211.515 211.515 1000.5 
113 1 1 0.050394 0.030479 0.00997619 0 0 0 -0.00361969 0.0209203 0.0004967 -8.79782e-05 0.000127367 0.000181762 -0.00361969 0.0209203 0.0004967 390.165 390.165 1000.93 
114 1 1 0.0675347 0.0225612 0.00997803 0 0 0 -0.0206976 -0.00522277 -0.000617311 -0.000273617 -0.000248072 -0.000935563 -0.0206976 -0.00522277 -0.000617311 393.338 393.338 1000.93 
115 1 1 0.0652181 0.0223876 0.0361464 0 0 0 0.0437653 0.0166058 -0.00367901 0.000233275 -0.000648183 -0.0002791 0.0437653 0.0166058 -0.00367901 228.77 228.77 1000.54 
116 1 1 0.104206 0.0373868 0.00997707 0 0 0 -0.0298331 -0.0167728 0.000441503 0.000451416 -0.000537006 -0.000224341 -0.0298331 -0.0167728 0.000441503 379.23 379.23 1000.9 
117 1 1 0.132903 0.0231533 0.0222262 0 0 0 0.034869 -0.00835813 -0.00285831 0.000378114 -0.000246286 -0.000585906 0.034869 -0.00835813 -0.00285831 299.719 299.719 1000.71 
118 1 1 0.148816 0.0211049 0.0234367 0 0 0 0.0450451 -0.00717335 0.0177051 2.07586e-05 0.000439121 -0.000749733 0.0450451 -0.00717335 0.0177051 295.955 295.955 1000.7 
119 1 1 0.147284 0.0228054 0.00997784 0 0 0 -0.0404666 -0.00271066 0.000228265 -0.000454739 -0.000545436 -0.0003424 -0.0404666 -0.00271066 0.000228265 385.68 385.68 1000.92 
120 1 1 0.169737 0.0228969 0.0371093 0 0 0 0.0387447 0.000172717 -0.00656642 8.52747e-05 -0.000143729 -0.000593113 0.0387447 0.000172717 -0.00656642 222.766 222.766 1000.53 
121 1 1 0.00998782 0.0427365 0.00997125 0 0 0 -0.00289449 0.0134844 0.00342303 -0.00356633 1.04588e-05 0.00197181 -0.00289449 0.0134844 0.00342303 419.001 419.001 1000.99 
122 1 1 0.0228141 0.0340384 0.00997675 0 0 0 0.0107536 -0.0029633 -0.000315766 0.000255065 0.000392169 -0.000300835 0.0107536 -0.0029633 -0.000315766 419.621 419.621 1001 
123 1 1 0.0222541 0.0269805 0.00997487 0 0 0 -0.00142691 0.0111815 -2.42084e-07 -9.5322e-05 -0.000507728 0.00123604 -0.00142691 0.0111815 -2.42084e-07 426.478 426.478 1001.01 
124 1 1 0.0770533 0.0343044 0.00997709 0 0 0 -0.0384139 -0.0197911 0.00034739 4.54908e-05 5.50539e-05 -0.000254507 -0.0384139 -0.0197911 0.00034739 390.353 390.353 1000.93 
125 1 1 0.0900977 0.0371069 0.00997741 0 0 0 -0.0346443 0.0142854 0.000436 -3.22312e-05 -1.04559e-05 -0.000346393 -0.0346443 0.0142854 0.000436 383.112 383.112 1000.91 
126 1 1 0.125864 0.0302407 0.00997743 0 0 0 -0.0321956 0.0146355 0.000253724 -0.000182144 -0.000329979 -0.00021219 -0.0321956 0.0146355 0.000253724 383.551 383.551 1000.91 
127 1 1 0.164802 0.0417694 0.00997734 0 0 0 -0.0276115 0.0143689 0.000232146 0.000313856 -7.25951e-05 -0.000156787 -0.0276115 0.0143689 0.000232146 375.269 375.269 1000.89 
128 1 1 0.144082 0.0417111 0.00997718 0 0 0 -0.0331012 -0.00591797 0.000263627 9.38687e-05 -7.92928e-05 -0.00016088 -0.0331012 -0.00591797 0.000263627 374.671 374.671 1000.89 
129 1 1 0.135031 0.0225054 0.00997719 0 0 0 -0.0467129 -0.00771733 0.000174389 -0.00022232 -1.47527e-05 -0.000183208 -0.0467129 -0.00771733 0.000174389 385.536 385.536 1000.92 
130 1 1 0.17701 0.0316705 0.00997741 0 0 0 -0.0346498 -0.00911199 0.00018415 5.04584e-05 0.000152372 -0.000147727 -0.0346498 -0.00911199 0.00018415 382.155 382.155 1000.91 
131 1 1 0.00998611 0.0478033 0.00997346 0 0 0 -0.00164852 0.00357985 0.00231859 -0.00130604 4.09084e-05 -4.00788e-05 -0.00164852 0.00357985 0.00231859 421.484 421.484 1001 
132 1 1 0.0455291 0.0477108 0.00997678 0 0 0 -0.0208894 0.0211801 0.000123067 -6.90811e-05 0.000125992 -0.000115181 -0.0208894 0.0211801 0.000123067 390.89 390.89 1000.93 
133 1 1 0.0494132 0.0539404 0.00997644 0 0 0 -0.000182101 0.00235386 0.000352045 -0.000808204 0.000289156 -0.000179145 -0.000182101 0.00235386 0.000352045 395.929 395.929 1000.94 
134 1 1 0.0830617 0.0479089 0.00997714 0 0 0 -0.0198858 0.0105617 0.000355638 -0.000235521 -0.000289963 -0.000157265 -0.0198858 0.0105617 0.000355638 382.237 382.237 1000.91 
135 1 1 0.127669 0.0497118 0.00997741 0 0 0 -0.0189033 -0.00182689 0.000277173 -0.000148252 7.92731e-05 -0.000196016 -0.0189033 -0.00182689 0.000277173 377.184 377.184 1000.9 
136 1 1 0.109774 0.0538135 0.0226789 0 0 0 0.0219204 0.00619694 0.0159835 -0.000287212 -0.000429415 -0.000595683 0.0219204 0.00619694 0.0159835 290.219 290.219 1000.69 
137 1 1 0.137317 0.0462215 0.0226035 0 0 0 0.0414246 0.0218541 0.0148225 0.000259309 -0.000292723 0.000163072 0.0414246 0.0218541 0.0148225 287.273 287.273 1000.68 
138 1 1 0.150693 0.0491495 0.00997688 0 0 0 -0.0161189 0.00347988 0.000259942 -0.000330984 -0.000134396 -0.00012708 -0.0161189 0.00347988 0.000259942 375.141 375.141 1000.89 
139 1 1 0.153197 0.042332 0.00997742 0 0 0 -0.0420796 0.00595479 0.000228261 -0.000140692 -0.000289511 -0.000142895 -0.0420796 0.00595479 0.000228261 375.483 375.483 1000.89 
140 1 1 0.189044 0.0525508 0.0221003 0 0 0 0.0388275 -0.00646127 0.00333912 -0.00015663 -0.000139276 -0.000273173 0.0388275 -0.00646127 0.00333912 305.976 305.976 1000.73 
141 1 1 0.00998092 0.0571155 0.00997567 0 0 0 0.00482315 0.0112991 -0.00386033 0.0037166 9.74403e-05 -0.00224101 0.00482315 0.0112991 -0.00386033 422.959 422.959 1001 
142 1 1 0.0221361 0.0570495 0.00997673 0 0 0 0.0147815 -0.00236421 -0.000442209 -0.000161208 9.8061e-05 -0.000181758 0.0147815 -0.00236421 -0.000442209 413.242 413.242 1000.98 
143 1 1 0.0226933 0.0645765 0.00997642 0 0 0 -0.0113721 0.0168983 0.00233181 0.000105576 -0.000518251 0.000256247 -0.0113721 0.0168983 0.00233181 411.057 411.057 1000.98 
144 1 1 0.0862292 0.0702747 0.00997727 0 0 0 -0.0139489 -0.00547853 0.000271704 0.00012637 1.21468e-05 -4.92378e-05 -0.0139489 -0.00547853 0.000271704 386.579 386.579 1000.92 
145 1 1 0.100305 0.0656562 0.00997698 0 0 0 -0.027555 -0.00775902 0.000404583 -0.000326454 -0.000201626 -0.000126846 -0.027555 -0.00775902 0.000404583 388.595 388.595 1000.92 
146 1 1 0.128546 0.069044 0.00997706 0 0 0 -0.016827 -0.0174641 0.00031213 5.15194e-05 2.42058e-05 -0.000111116 -0.016827 -0.0174641 0.00031213 387.894 387.894 1000.92 
147 1 1 0.154848 0.0600342 0.00997705 0 0 0 -0.0360636 0.00290607 0.000232079 0.000609143 -0.000498827 -0.000120691 -0.0360636 0.00290607 0.000232079 379.753 379.753 1000.9 
148 1 1 0.145076 0.0524548 0.00997703 0 0 0 -0.0260775 -0.0110623 0.000269818 -0.000140397 -9.72762e-05 -0.000132944 -0.0260775 -0.0110623 0.000269818 373.207 373.207 1000.89 
149 1 1 0.134302 0.0779557 0.00997706 0 0 0 -0.0348217 -0.0205168 0.000139419 0.000175457 -0.000402387 -3.98415e-05 -0.0348217 -0.0205168 0.000139419 393.143 393.143 1000.93 
150 1 1 0.181678 0.0692893 0.00997754 0 0 0 -0.019034 0.0148454 0.000188571 0.000261769 -0.000205546 -7.02051e-05 -0.019034 0.0148454 0.000188571 386.83 386.83 1000.92 
151 1 1 0.00998661 0.0661266 0.00997139 0 0 0 -0.000320336 -0.000356961 0.00109513 -0.00180611 9.05735e-05 0.00247131 -0.000320336 -0.000356961 0.00109513 422.26 422.26 1001 
152 1 1 0.0249163 0.0743098 0.0318488 0 0 0 0.0232684 0.00887277 0.00427662 -0.00120977 -9.8268e-05 -0.000405929 0.0232684 0.00887277 0.00427662 268.704 268.704 1000.64 
153 1 1 0.0509438 0.0780871 0.00997809 0 0 0 -0.00303542 0.00197625 0.000576879 0.000806604 -0.000289661 -0.00145768 -0.00303542 0.00197625 0.000576879 391.292 391.292 1000.93 
154 1 1 0.0610802 0.0779933 0.00997841 0 0 0 0.0207324 -0.00431145 0.00105275 0.000405561 0.00081104 -0.00174522 0.0207324 -0.00431145 0.00105275 386.394 386.394 1000.92 
155 1 1 0.0576421 0.076835 0.0286794 0 0 0 0.0279313 0.0122279 -0.00715415 0.000181191 -9.85e-05 6.60462e-05 0.0279313 0.0122279 -0.00715415 279.062 279.062 1000.66 
156 1 1 0.112483 0.0641225 0.00997741 0 0 0 -0.0322345 0.00626274 0.000365317 -0.000227835 -1.44949e-05 -0.000148724 -0.0322345 0.00626274 0.000365317 383.345 383.345 1000.91 
157 1 1 0.134531 0.0779076 0.0227123 0 0 0 -0.000319443 0.00493417 -0.00679125 -0.000296726 -0.000321834 3.48341e-05 -0.000319443 0.00493417 -0.00679125 307.804 307.804 1000.73 
158 1 1 0.155177 0.0776006 0.0221173 0 0 0 0.0276654 0.00755478 -0.0166875 -0.000334262 -0.000165103 -8.81209e-05 0.0276654 0.00755478 -0.0166875 315.131 315.131 1000.75 
159 1 1 0.147014 0.0780294 0.00997714 0 0 0 -0.0391249 -0.00271378 0.000418546 -0.000201053 0.000342939 4.66585e-06 -0.0391249 -0.00271378 0.000418546 391.662 391.662 1000.93 
160 1 1 0.170715 0.0792011 0.0429587 0 0 0 0.0397039 -0.0044394 0.0202593 -0.000350398 -0.00021895 -0.000257569 0.0397039 -0.0044394 0.0202593 180.492 180.492 1000.43 
161 1 1 0.00998725 0.0776941 0.0202394 0 0 0 -0.00619926 -0.0121235 -0.00256059 0.00116217 -7.0011e-05 1.74104e-05 -0.00619926 -0.0121235 -0.00256059 388.938 388.938 1000.92 
162 1 1 0.0099789 0.0761526 0.00997857 0 0 0 -0.00830325 -0.00499286 0.00942478 0.00593315 0.000324997 -0.00529437 -0.00830325 -0.00499286 0.00942478 429.91 429.91 1001.02 
163 1 1 0.0233749 0.069897 0.00997726 0 0 0 -0.00448775 0.0203517 0.00365391 -0.000136328 0.00037649 -0.000227635 -0.00448775 0.0203517 0.00365391 413.859 413.859 1000.98 
164 1 1 0.083997 0.0594358 0.0407118 0 0 0 0.01586 -0.00666542 -0.00392316 0.000340036 -0.000224236 -0.0002799 0.01586 -0.00666542 -0.00392316 216.08 216.08 1000.51 
165 1 1 0.122649 0.0647826 0.0437916 0 0 0 0.018895 0.00934647 -0.00341521 0.000127925 0.000217933 0.000130079 0.018895 0.00934647 -0.00341521 172.407 172.407 1000.41 
166 1 1 0.128238 0.0767826 0.00997737 0 0 0 -0.033684 -0.0171206 1.97595e-05 0.000199416 0.000197437 -0.000131543 -0.033684 -0.0171206 1.97595e-05 393.332 393.332 1000.93 
167 1 1 0.139067 0.0771051 0.0333579 0 0 0 0.0646895 0.0147042 -0.00593098 -0.00027235 8.503e-05 -0.000122523 0.0646895 0.0147042 -0.00593098 243.465 243.465 1000.58 
168 1 1 0.145758 0.0609489 0.00997725 0 0 0 -0.0363431 0.00956913 0.000256626 0.000179271 -6.24156e-05 -0.000122629 -0.0363431 0.00956913 0.000256626 377.172 377.172 1000.9 
169 1 1 0.163068 0.0781773 0.0226146 0 0 0 0.0553738 -0.0111511 0.0184571 0.000305118 -0.000408827 -0.000122707 0.0553738 -0.0111511 0.0184571 302.93 302.93 1000.72 
170 1 1 0.175092 0.078127 0.00997708 0 0 0 -0.0479546 0.00117984 0.000343654 -0.000815526 -0.000212061 -0.000261601 -0.0479546 0.00117984 0.000343654 388.89 388.89 1000.92 
171 1 1 0.00997773 0.0900121 0.00997947 0 0 0 0.00332226 -0.00214619 -0.00423659 0.00727376 0.00381937 -0.00380585 0.00332226 -0.00214619 -0.00423659 430.642 430.642 1001.02 
172 1 1 0.0214037 0.0900156 0.00998124 0 0 0 -0.00535455 0.00325297 0.000146831 -0.000182217 0.000600744 -0.00227326 -0.00535455 0.00325297 0.000146831 437.33 437.33 1001.04 