ITEM: TIMESTEP
17000
ITEM: NUMBER OF ATOMS
2655
ITEM: BOX BOUNDS ff ff ff
0 0.5
0 0.1
0 0.5
ITEM: ATOMS id type type x y z ix iy iz vx vy vz fx fy fz vx vy vz p p rho 
1 1 1 0.00997468 0.0100008 0.00997674 0 0 0 0.00187328 -0.0760679 0.0357982 0.0173071 -0.0439009 -0.00863586 0.00187328 -0.0760679 0.0357982 730.874 730.874 1001.73 
2 1 1 0.0255316 0.00996375 0.00994753 0 0 0 0.0690717 -0.037622 0.00970874 -0.00972352 0.0158944 0.0206276 0.0690717 -0.037622 0.00970874 608.429 608.429 1001.44 
3 1 1 0.0221317 0.00998217 0.00998055 0 0 0 -0.0932386 -0.00240132 -0.0272856 -0.00563547 0.00138892 -0.010872 -0.0932386 -0.00240132 -0.0272856 563.93 563.93 1001.34 
4 1 1 0.0511245 0.00998062 0.00994232 0 0 0 0.109142 -0.0123077 -0.00958923 0.00623983 -0.0174165 0.0214783 0.109142 -0.0123077 -0.00958923 603.44 603.44 1001.43 
5 1 1 0.0517173 0.00997106 0.00999129 0 0 0 0.0595651 -0.0133989 0.0157392 0.0105508 -0.0070948 -0.0288953 0.0595651 -0.0133989 0.0157392 700.771 700.771 1001.66 
6 1 1 0.0684443 0.00998317 0.0099885 0 0 0 0.158797 0.00217701 -0.0279036 0.00361732 0.00544777 -0.0191752 0.158797 0.00217701 -0.0279036 239.426 239.426 1000.57 
7 1 1 0.0823946 0.00998976 0.00998762 0 0 0 0.160428 0.011027 -0.00688648 -0.000766498 -0.0039009 -0.0245801 0.160428 0.011027 -0.00688648 568.054 568.054 1001.35 
8 1 1 0.0969256 0.00998654 0.00997365 0 0 0 0.132555 0.0139858 0.0117434 0.000197639 0.00439652 -0.0111327 0.132555 0.0139858 0.0117434 653.387 653.387 1001.55 
9 1 1 0.104373 0.00999607 0.00997248 0 0 0 0.337985 -0.00601727 -0.00645899 0.00676361 -0.00204159 -0.00597854 0.337985 -0.00601727 -0.00645899 595.573 595.573 1001.41 
10 1 1 0.124764 0.00997574 0.00998263 0 0 0 0.122256 -0.00100115 -0.0337068 -0.00662603 0.0079684 -0.0141396 0.122256 -0.00100115 -0.0337068 550.358 550.358 1001.31 
11 1 1 0.00998156 0.0204469 0.00996444 0 0 0 0.00147463 0.0103417 0.0254496 0.011418 -0.0121502 0.000874382 0.00147463 0.0103417 0.0254496 811.385 811.385 1001.92 
12 1 1 0.0241348 0.0254512 0.0099642 0 0 0 -0.0924441 0.0314025 -0.0126717 -0.037906 -0.00966283 -0.0019796 -0.0924441 0.0314025 -0.0126717 806.25 806.25 1001.91 
13 1 1 0.0385542 0.0210493 0.00995941 0 0 0 0.146589 0.0359515 -0.00538935 -0.0149663 -0.0416443 -0.0077856 0.146589 0.0359515 -0.00538935 1275.37 1275.37 1003.01 
14 1 1 0.0488166 0.0200514 0.00995902 0 0 0 0.102374 0.025035 -0.00451933 0.0349035 -0.0362178 -0.00330836 0.102374 0.025035 -0.00451933 991.075 991.075 1002.34 
15 1 1 0.0591332 0.0222362 0.00995466 0 0 0 0.0872975 0.00100898 -0.00525969 0.032556 -0.00991051 0.00484048 0.0872975 0.00100898 -0.00525969 661.652 661.652 1001.57 
16 1 1 0.0681272 0.0210451 0.00996316 0 0 0 0.105844 0.0621356 -0.00457647 0.0106134 -0.00158542 0.00506558 0.105844 0.0621356 -0.00457647 294.861 294.861 1000.7 
17 1 1 0.081007 0.0215717 0.00995985 0 0 0 0.142555 -0.0172302 0.000854774 -0.00748841 0.00221097 0.00231234 0.142555 -0.0172302 0.000854774 409.09 409.09 1000.97 
18 1 1 0.0901214 0.0210908 0.00995504 0 0 0 0.171983 -0.0262279 0.0102487 0.00171276 0.00106154 0.00781807 0.171983 -0.0262279 0.0102487 530.805 530.805 1001.26 
19 1 1 0.102613 0.0232301 0.00995953 0 0 0 0.0774539 0.103162 0.0135544 -0.0178698 0.00715102 -0.00025069 0.0774539 0.103162 0.0135544 568.272 568.272 1001.35 
20 1 1 0.117142 0.0207492 0.00997174 0 0 0 0.275154 0.00163702 -0.00381816 -0.00799582 -0.00221381 -0.00628323 0.275154 0.00163702 -0.00381816 574.274 574.274 1001.36 
21 1 1 0.00998789 0.0244847 0.00997925 0 0 0 -0.0139559 0.117872 0.0335534 0.00511509 -0.00433074 -0.012871 -0.0139559 0.117872 0.0335534 934.049 934.049 1002.21 
22 1 1 0.0238218 0.0335397 0.00995873 0 0 0 0.00641609 0.0504041 -0.00692148 -0.0273764 0.0114257 -0.00052216 0.00641609 0.0504041 -0.00692148 862.291 862.291 1002.04 
23 1 1 0.0374598 0.032024 0.0099407 0 0 0 0.0573629 0.0289325 -0.0268664 -0.013948 0.0385671 -0.00446019 0.0573629 0.0289325 -0.0268664 1055.88 1055.88 1002.5 
24 1 1 0.0500579 0.029786 0.00995149 0 0 0 0.174706 -0.0596334 -0.0225807 0.0432131 0.029311 -0.00223802 0.174706 -0.0596334 -0.0225807 824.928 824.928 1001.95 
25 1 1 0.0601825 0.0310501 0.00995937 0 0 0 0.129875 -0.0587321 -0.00942908 0.022331 0.00765275 -0.00160986 0.129875 -0.0587321 -0.00942908 685.995 685.995 1001.63 
26 1 1 0.0688196 0.0303718 0.00996974 0 0 0 0.109593 -0.0278696 -0.00137859 0.0147847 0.00357223 -0.00487898 0.109593 -0.0278696 -0.00137859 543.036 543.036 1001.29 
27 1 1 0.0809386 0.0306621 0.00996043 0 0 0 0.111212 0.0142055 0.00513339 -0.00646263 0.0109002 -0.00153687 0.111212 0.0142055 0.00513339 565.744 565.744 1001.34 
28 1 1 0.0916523 0.0295561 0.00995781 0 0 0 0.15595 -0.0853954 0.0067087 -0.00371945 0.00267806 0.00656342 0.15595 -0.0853954 0.0067087 489.914 489.914 1001.16 
29 1 1 0.099218 0.0311707 0.00995935 0 0 0 0.207734 0.0300834 0.00509242 0.00774202 0.00233065 0.00445702 0.207734 0.0300834 0.00509242 659.821 659.821 1001.56 
30 1 1 0.119998 0.0314881 0.00996133 0 0 0 0.277115 0.0158097 -0.00175553 -0.00310878 0.00308597 0.00104475 0.277115 0.0158097 -0.00175553 577.984 577.984 1001.37 
31 1 1 0.0100009 0.040712 0.00998604 0 0 0 0.0111985 -0.0800815 0.0314715 -0.0323453 0.00884405 -0.0151606 0.0111985 -0.0800815 0.0314715 671.067 671.067 1001.59 
32 1 1 0.0230016 0.0425885 0.00996487 0 0 0 0.0316656 0.0275281 -0.00606402 -0.0157067 0.00266112 -0.0055922 0.0316656 0.0275281 -0.00606402 716.194 716.194 1001.7 
33 1 1 0.0357551 0.0423267 0.00994209 0 0 0 0.063808 0.107451 -0.0204249 -0.00134576 0.0143524 0.00892075 0.063808 0.107451 -0.0204249 742.335 742.335 1001.76 
34 1 1 0.047206 0.0413555 0.00995725 0 0 0 0.043351 0.0973237 -0.0437799 0.0165176 0.0260198 -0.00198188 0.043351 0.0973237 -0.0437799 338.064 338.064 1000.8 
35 1 1 0.0593173 0.0410519 0.00995712 0 0 0 0.1305 0.00540588 -0.0211317 0.00538398 0.00727223 0.00405438 0.1305 0.00540588 -0.0211317 469.603 469.603 1001.11 
36 1 1 0.0696831 0.0404988 0.00997612 0 0 0 0.119283 -0.0209058 -0.0110854 0.00928181 0.00150151 -0.00775376 0.119283 -0.0209058 -0.0110854 480.271 480.271 1001.14 
37 1 1 0.0807254 0.0407058 0.00996964 0 0 0 0.205278 -0.00120962 0.00200298 0.0400433 0.0111429 -0.00306468 0.205278 -0.00120962 0.00200298 488.113 488.113 1001.16 
38 1 1 0.0914937 0.0413178 0.00996804 0 0 0 0.141133 -0.0183661 -0.0012276 -0.00803098 -7.41505e-05 -0.00190073 0.141133 -0.0183661 -0.0012276 423.661 423.661 1001.01 
39 1 1 0.100844 0.0406915 0.00995897 0 0 0 0.203229 -0.0135915 -0.00260716 -0.0078779 0.00293222 0.00850908 0.203229 -0.0135915 -0.00260716 471.931 471.931 1001.12 
40 1 1 0.116356 0.0420508 0.00996412 0 0 0 0.216577 0.0125491 -0.0152955 -0.00422985 0.00153179 0.00245569 0.216577 0.0125491 -0.0152955 458.063 458.063 1001.09 
41 1 1 0.00997762 0.05 0.0099731 0 0 0 0.00282856 -7.95726e-14 0.0459567 0.00904478 -1.80348e-13 -0.000944304 0.00282856 -7.95726e-14 0.0459567 627.23 627.23 1001.49 
42 1 1 0.0246413 0.05 0.0099678 0 0 0 0.045258 -2.30409e-13 -0.00636886 -0.0141826 -5.51613e-13 -0.00916496 0.045258 -2.30409e-13 -0.00636886 765.456 765.456 1001.81 
43 1 1 0.0367207 0.05 0.00993705 0 0 0 0.00420547 -5.05727e-13 -0.0144298 0.00743055 -5.19479e-13 0.0140193 0.00420547 -5.05727e-13 -0.0144298 1008.93 1008.93 1002.39 
44 1 1 0.0477215 0.05 0.00997094 0 0 0 0.0746307 -6.7973e-13 -0.0514578 0.0155655 -2.82619e-13 -0.0107428 0.0746307 -6.7973e-13 -0.0514578 416.833 416.833 1000.99 
45 1 1 0.058954 0.05 0.00995679 0 0 0 0.0941992 -2.60394e-14 -0.0209273 -0.00101941 -3.63167e-13 0.00578602 0.0941992 -2.60394e-14 -0.0209273 508.744 508.744 1001.21 
46 1 1 0.0686384 0.05 0.00997478 0 0 0 0.136401 8.57941e-13 -0.0129606 0.0170678 -2.91933e-13 -0.00739287 0.136401 8.57941e-13 -0.0129606 528.319 528.319 1001.25 
47 1 1 0.0797322 0.05 0.00997402 0 0 0 0.0748883 1.93707e-12 -0.00479452 -0.00527289 -8.58799e-14 -0.00677521 0.0748883 1.93707e-12 -0.00479452 461.143 461.143 1001.09 
48 1 1 0.0903786 0.05 0.00996711 0 0 0 0.107092 5.72972e-13 -0.00110143 -0.0108781 -1.82927e-13 -0.00094177 0.107092 5.72972e-13 -0.00110143 445.144 445.144 1001.06 
49 1 1 0.100515 0.05 0.0099589 0 0 0 0.147736 1.13427e-13 -0.00081318 0.00464624 -9.93856e-15 0.00719106 0.147736 1.13427e-13 -0.00081318 468.22 468.22 1001.11 
50 1 1 0.119027 0.05 0.00996049 0 0 0 0.307563 -1.12753e-13 -0.00981259 -0.00242756 7.37498e-14 0.00757079 0.307563 -1.12753e-13 -0.00981259 420.558 420.558 1001 
51 1 1 0.0100009 0.059288 0.00998604 0 0 0 0.0111985 0.0800815 0.0314715 -0.0323453 -0.00884405 -0.0151606 0.0111985 0.0800815 0.0314715 671.067 671.067 1001.59 
52 1 1 0.0230016 0.0574115 0.00996487 0 0 0 0.0316656 -0.0275281 -0.00606402 -0.0157067 -0.00266112 -0.0055922 0.0316656 -0.0275281 -0.00606402 716.194 716.194 1001.7 
53 1 1 0.0357551 0.0576733 0.00994209 0 0 0 0.063808 -0.107451 -0.0204249 -0.00134576 -0.0143524 0.00892075 0.063808 -0.107451 -0.0204249 742.335 742.335 1001.76 
54 1 1 0.047206 0.0586445 0.00995725 0 0 0 0.043351 -0.0973237 -0.0437799 0.0165176 -0.0260198 -0.00198188 0.043351 -0.0973237 -0.0437799 338.064 338.064 1000.8 
55 1 1 0.0593173 0.0589481 0.00995712 0 0 0 0.1305 -0.00540588 -0.0211317 0.00538398 -0.00727223 0.00405438 0.1305 -0.00540588 -0.0211317 469.603 469.603 1001.11 
56 1 1 0.0696831 0.0595012 0.00997612 0 0 0 0.119283 0.0209058 -0.0110854 0.00928181 -0.00150151 -0.00775376 0.119283 0.0209058 -0.0110854 480.271 480.271 1001.14 
57 1 1 0.0807254 0.0592942 0.00996964 0 0 0 0.205278 0.00120962 0.00200298 0.0400433 -0.0111429 -0.00306468 0.205278 0.00120962 0.00200298 488.113 488.113 1001.16 
58 1 1 0.0914937 0.0586822 0.00996804 0 0 0 0.141133 0.0183661 -0.0012276 -0.00803098 7.41505e-05 -0.00190073 0.141133 0.0183661 -0.0012276 423.661 423.661 1001.01 
59 1 1 0.100844 0.0593085 0.00995897 0 0 0 0.203229 0.0135915 -0.00260716 -0.0078779 -0.00293222 0.00850908 0.203229 0.0135915 -0.00260716 471.931 471.931 1001.12 
60 1 1 0.116356 0.0579492 0.00996412 0 0 0 0.216577 -0.0125491 -0.0152955 -0.00422985 -0.00153179 0.00245569 0.216577 -0.0125491 -0.0152955 458.063 458.063 1001.09 
61 1 1 0.00998789 0.0755153 0.00997925 0 0 0 -0.0139559 -0.117872 0.0335534 0.00511509 0.00433074 -0.012871 -0.0139559 -0.117872 0.0335534 934.049 934.049 1002.21 
62 1 1 0.0238218 0.0664603 0.00995873 0 0 0 0.00641609 -0.0504041 -0.00692148 -0.0273764 -0.0114257 -0.00052216 0.00641609 -0.0504041 -0.00692148 862.291 862.291 1002.04 
63 1 1 0.0374598 0.067976 0.0099407 0 0 0 0.0573629 -0.0289325 -0.0268664 -0.013948 -0.0385671 -0.00446019 0.0573629 -0.0289325 -0.0268664 1055.88 1055.88 1002.5 
64 1 1 0.0500579 0.070214 0.00995149 0 0 0 0.174706 0.0596334 -0.0225807 0.0432131 -0.029311 -0.00223802 0.174706 0.0596334 -0.0225807 824.928 824.928 1001.95 
65 1 1 0.0601825 0.0689499 0.00995937 0 0 0 0.129875 0.0587321 -0.00942908 0.022331 -0.00765275 -0.00160986 0.129875 0.0587321 -0.00942908 685.995 685.995 1001.63 
66 1 1 0.0688196 0.0696282 0.00996974 0 0 0 0.109593 0.0278696 -0.00137859 0.0147847 -0.00357223 -0.00487898 0.109593 0.0278696 -0.00137859 543.036 543.036 1001.29 
67 1 1 0.0809386 0.0693379 0.00996043 0 0 0 0.111212 -0.0142055 0.00513339 -0.00646263 -0.0109002 -0.00153687 0.111212 -0.0142055 0.00513339 565.744 565.744 1001.34 
68 1 1 0.0916523 0.0704439 0.00995781 0 0 0 0.15595 0.0853954 0.0067087 -0.00371945 -0.00267806 0.00656342 0.15595 0.0853954 0.0067087 489.914 489.914 1001.16 
69 1 1 0.099218 0.0688293 0.00995935 0 0 0 0.207734 -0.0300834 0.00509242 0.00774202 -0.00233065 0.00445702 0.207734 -0.0300834 0.00509242 659.821 659.821 1001.56 
70 1 1 0.119998 0.0685119 0.00996133 0 0 0 0.277115 -0.0158097 -0.00175553 -0.00310878 -0.00308597 0.00104475 0.277115 -0.0158097 -0.00175553 577.984 577.984 1001.37 
71 1 1 0.00998156 0.0795531 0.00996444 0 0 0 0.00147463 -0.0103417 0.0254496 0.011418 0.0121502 0.000874382 0.00147463 -0.0103417 0.0254496 811.385 811.385 1001.92 
72 1 1 0.0241348 0.0745488 0.0099642 0 0 0 -0.0924441 -0.0314025 -0.0126717 -0.037906 0.00966283 -0.0019796 -0.0924441 -0.0314025 -0.0126717 806.25 806.25 1001.91 
73 1 1 0.0385542 0.0789507 0.00995941 0 0 0 0.146589 -0.0359515 -0.00538935 -0.0149663 0.0416443 -0.0077856 0.146589 -0.0359515 -0.00538935 1275.37 1275.37 1003.01 
74 1 1 0.0488166 0.0799486 0.00995902 0 0 0 0.102374 -0.025035 -0.00451933 0.0349035 0.0362178 -0.00330836 0.102374 -0.025035 -0.00451933 991.075 991.075 1002.34 
75 1 1 0.0591332 0.0777638 0.00995466 0 0 0 0.0872975 -0.00100898 -0.00525969 0.032556 0.00991051 0.00484048 0.0872975 -0.00100898 -0.00525969 661.652 661.652 1001.57 
76 1 1 0.0681272 0.0789549 0.00996316 0 0 0 0.105844 -0.0621356 -0.00457647 0.0106134 0.00158542 0.00506558 0.105844 -0.0621356 -0.00457647 294.861 294.861 1000.7 
77 1 1 0.081007 0.0784283 0.00995985 0 0 0 0.142555 0.0172302 0.000854774 -0.00748841 -0.00221097 0.00231234 0.142555 0.0172302 0.000854774 409.09 409.09 1000.97 
78 1 1 0.0901214 0.0789092 0.00995504 0 0 0 0.171983 0.0262279 0.0102487 0.00171276 -0.00106154 0.00781807 0.171983 0.0262279 0.0102487 530.805 530.805 1001.26 
79 1 1 0.102613 0.0767699 0.00995953 0 0 0 0.0774539 -0.103162 0.0135544 -0.0178698 -0.00715102 -0.00025069 0.0774539 -0.103162 0.0135544 568.272 568.272 1001.35 
80 1 1 0.117142 0.0792508 0.00997174 0 0 0 0.275154 -0.00163702 -0.00381816 -0.00799582 0.00221381 -0.00628323 0.275154 -0.00163702 -0.00381816 574.274 574.274 1001.36 
81 1 1 0.00997468 0.0899992 0.00997674 0 0 0 0.00187328 0.0760679 0.0357982 0.0173071 0.0439009 -0.00863586 0.00187328 0.0760679 0.0357982 730.874 730.874 1001.73 
82 1 1 0.0255316 0.0900362 0.00994753 0 0 0 0.0690717 0.037622 0.00970874 -0.00972352 -0.0158944 0.0206276 0.0690717 0.037622 0.00970874 608.429 608.429 1001.44 
83 1 1 0.0221317 0.0900178 0.00998055 0 0 0 -0.0932386 0.00240132 -0.0272856 -0.00563547 -0.00138892 -0.010872 -0.0932386 0.00240132 -0.0272856 563.93 563.93 1001.34 
84 1 1 0.0511245 0.0900194 0.00994232 0 0 0 0.109142 0.0123077 -0.00958923 0.00623983 0.0174165 0.0214783 0.109142 0.0123077 -0.00958923 603.44 603.44 1001.43 
85 1 1 0.0517173 0.0900289 0.00999129 0 0 0 0.0595651 0.0133989 0.0157392 0.0105508 0.0070948 -0.0288953 0.0595651 0.0133989 0.0157392 700.771 700.771 1001.66 
86 1 1 0.0684443 0.0900168 0.0099885 0 0 0 0.158797 -0.00217701 -0.0279036 0.00361732 -0.00544777 -0.0191752 0.158797 -0.00217701 -0.0279036 239.426 239.426 1000.57 
87 1 1 0.0823946 0.0900102 0.00998762 0 0 0 0.160428 -0.011027 -0.00688648 -0.000766498 0.0039009 -0.0245801 0.160428 -0.011027 -0.00688648 568.054 568.054 1001.35 
88 1 1 0.0969256 0.0900135 0.00997365 0 0 0 0.132555 -0.0139858 0.0117434 0.000197639 -0.00439652 -0.0111327 0.132555 -0.0139858 0.0117434 653.387 653.387 1001.55 
89 1 1 0.104373 0.0900039 0.00997248 0 0 0 0.337985 0.00601727 -0.00645899 0.00676361 0.00204159 -0.00597854 0.337985 0.00601727 -0.00645899 595.573 595.573 1001.41 
90 1 1 0.124764 0.0900243 0.00998263 0 0 0 0.122256 0.00100115 -0.0337068 -0.00662603 -0.0079684 -0.0141396 0.122256 0.00100115 -0.0337068 550.358 550.358 1001.31 
91 1 1 0.00999495 0.00999069 0.0100609 0 0 0 0.0382404 -0.0105281 -0.0324463 -0.00256256 -0.0138937 -0.0537298 0.0382404 -0.0105281 -0.0324463 804.239 804.239 1001.9 
92 1 1 0.0222837 0.00998713 0.0209509 0 0 0 -0.0640251 -0.0330942 -0.0601599 -0.00667101 -0.00523293 -0.00660389 -0.0640251 -0.0330942 -0.0601599 548.35 548.35 1001.3 
93 1 1 0.034225 0.00996006 0.00999493 0 0 0 -0.0251277 -0.0361075 0.0273716 -0.00706695 0.00161111 -0.0348211 -0.0251277 -0.0361075 0.0273716 651.78 651.78 1001.54 
94 1 1 0.0394532 0.0099787 0.00993672 0 0 0 0.132488 -0.0214024 -0.0236641 0.00258787 -0.0234426 0.0256198 0.132488 -0.0214024 -0.0236641 470.673 470.673 1001.12 
95 1 1 0.0638609 0.00999453 0.0100835 0 0 0 0.0848547 0.0262743 0.0772442 0.00372461 -0.0092133 -0.0558116 0.0848547 0.0262743 0.0772442 712.337 712.337 1001.69 
96 1 1 0.077155 0.00998914 0.00990012 0 0 0 0.164911 -0.00240189 0.0408717 -0.006879 -0.000395419 0.0665066 0.164911 -0.00240189 0.0408717 550.199 550.199 1001.3 
97 1 1 0.0906915 0.00999695 0.00991376 0 0 0 0.239409 -0.0246142 -0.00198606 -0.00628777 -0.010843 0.0530626 0.239409 -0.0246142 -0.00198606 530.998 530.998 1001.26 
98 1 1 0.0986536 0.00998824 0.0153968 0 0 0 0.254337 0.014719 -0.0868129 0.00341323 -0.00149191 -0.0100927 0.254337 0.014719 -0.0868129 627.211 627.211 1001.49 
99 1 1 0.111106 0.00996904 0.00999258 0 0 0 0.109216 -0.0533016 -0.0171256 -0.00212261 0.0220678 -0.0228067 0.109216 -0.0533016 -0.0171256 437.257 437.257 1001.04 
100 1 1 0.116949 0.00998474 0.00990895 0 0 0 0.293356 0.00435678 0.00302053 -0.00283869 -2.94636e-05 0.0609542 0.293356 0.00435678 0.00302053 619.434 619.434 1001.47 
101 1 1 0.00998476 0.0207773 0.022312 0 0 0 0.0196133 -0.0344418 -0.0515927 0.00598292 -0.00819243 -0.000263517 0.0196133 -0.0344418 -0.0515927 921.909 921.909 1002.18 
102 1 1 0.0236548 0.0215145 0.0112044 0 0 0 0.10674 0.0277075 -0.416582 -0.0255523 -0.0172885 -0.0207309 0.10674 0.0277075 -0.416582 -34.9271 -34.9271 999.917 
103 1 1 0.0349053 0.0233727 0.0226712 0 0 0 0.0389235 0.0513063 -0.0409531 -0.0161264 -0.0243908 0.0250853 0.0389235 0.0513063 -0.0409531 1098.37 1098.37 1002.59 
104 1 1 0.0503222 0.0234047 0.0215514 0 0 0 0.0966648 0.0855972 0.0485784 0.0210834 -0.021488 0.0132622 0.0966648 0.0855972 0.0485784 1193.2 1193.2 1002.82 
105 1 1 0.0649978 0.0223195 0.0184432 0 0 0 0.151292 0.0547876 -0.00258985 0.0168249 -0.0060377 -0.00237008 0.151292 0.0547876 -0.00258985 311.917 311.917 1000.74 
106 1 1 0.0807517 0.022395 0.0180126 0 0 0 0.311146 0.0308676 0.0358777 -0.00309152 -0.00108985 -0.00367686 0.311146 0.0308676 0.0358777 484.09 484.09 1001.15 
107 1 1 0.0955641 0.0210601 0.0214396 0 0 0 0.379416 0.00998182 0.0232409 0.000577956 0.00029848 -0.00763489 0.379416 0.00998182 0.0232409 505.86 505.86 1001.2 
108 1 1 0.105316 0.0217765 0.0108182 0 0 0 0.32352 0.020794 -0.362175 0.0241923 -0.0107247 0.000874748 0.32352 0.020794 -0.362175 -537.586 -537.586 998.715 
109 1 1 0.116386 0.021613 0.0212702 0 0 0 0.30897 -0.0425903 0.0273506 -0.00547149 -0.00371638 -0.00799924 0.30897 -0.0425903 0.0273506 482.884 482.884 1001.15 
110 1 1 0.129662 0.0201945 0.0168984 0 0 0 0.330978 0.0393952 -0.102473 -0.00188911 0.00353846 -0.00348061 0.330978 0.0393952 -0.102473 420.046 420.046 1001 
111 1 1 0.0100162 0.0298586 0.00990609 0 0 0 -0.0176387 -0.0743589 0.07532 -0.035968 0.0108764 0.0625853 -0.0176387 -0.0743589 0.07532 962.334 962.334 1002.28 
112 1 1 0.0252365 0.0251625 0.0219595 0 0 0 0.062027 -0.130327 -0.0346374 -0.0287315 -0.0120848 0.00432968 0.062027 -0.130327 -0.0346374 609.098 609.098 1001.44 
113 1 1 0.0320545 0.0240131 0.00995452 0 0 0 -0.00590753 -0.0601226 0.231388 -0.0390361 -0.0223774 -0.0114966 -0.00590753 -0.0601226 0.231388 1898.62 1898.62 1004.46 
114 1 1 0.0456329 0.0253136 0.00963914 0 0 0 -0.077358 -0.0263155 0.243325 0.0248183 -0.00606773 0.3436 -0.077358 -0.0263155 0.243325 1976.96 1976.96 1004.64 
115 1 1 0.0624599 0.0265485 0.0213925 0 0 0 0.072013 -0.0344208 0.0623043 0.0237082 -0.00363147 0.000229537 0.072013 -0.0344208 0.0623043 424.447 424.447 1001.01 
116 1 1 0.0773007 0.0280652 0.0166906 0 0 0 0.199672 0.0669262 -0.083141 -0.00728666 0.00446838 -0.0133634 0.199672 0.0669262 -0.083141 429.348 429.348 1001.02 
117 1 1 0.0942941 0.0270297 0.0189887 0 0 0 0.303638 -0.00419365 0.00718098 -0.00170249 0.000726409 -0.00445909 0.303638 -0.00419365 0.00718098 441.647 441.647 1001.05 
118 1 1 0.106508 0.0294723 0.0195972 0 0 0 0.313322 -0.0212588 -0.0782706 -0.00162103 -0.00272911 -0.0162368 0.313322 -0.0212588 -0.0782706 418.743 418.743 1000.99 
119 1 1 0.113432 0.0256448 0.00997578 0 0 0 0.183413 -0.07652 -0.019891 -0.0108024 -0.00434507 -0.00805195 0.183413 -0.07652 -0.019891 478.316 478.316 1001.13 
120 1 1 0.124042 0.0284161 0.0193787 0 0 0 0.278409 -0.0448421 0.0128758 0.00207305 -0.00091755 -0.000427677 0.278409 -0.0448421 0.0128758 484.932 484.932 1001.15 
121 1 1 0.00999804 0.0367075 0.0100528 0 0 0 0.0082064 0.18851 -0.0581265 -0.0114847 0.00955686 -0.0444466 0.0082064 0.18851 -0.0581265 509.327 509.327 1001.21 
122 1 1 0.0243908 0.038413 0.0202166 0 0 0 0.0666206 -0.0460726 -0.0309112 -0.0242566 0.00638204 -0.00181122 0.0666206 -0.0460726 -0.0309112 832.546 832.546 1001.97 
123 1 1 0.0309605 0.0387665 0.00960548 0 0 0 -0.0363046 -0.0612124 -0.153377 -0.0123788 0.0149771 0.407907 -0.0363046 -0.0612124 -0.153377 135.582 135.582 1000.32 
124 1 1 0.0474541 0.0383183 0.0111834 0 0 0 0.0684598 -0.10748 0.0422173 0.0231197 0.0322334 -0.0612038 0.0684598 -0.10748 0.0422173 797.114 797.114 1001.89 
125 1 1 0.0628085 0.0402863 0.0156062 0 0 0 0.154458 0.0176122 -0.16846 0.0145238 0.00351122 -0.0128195 0.154458 0.0176122 -0.16846 400.446 400.446 1000.95 
126 1 1 0.0776586 0.0401447 0.00993845 0 0 0 0.1334 -0.00849999 -0.405106 -0.0373661 -0.00665866 0.0456747 0.1334 -0.00849999 -0.405106 -894.182 -894.182 997.857 
127 1 1 0.0931855 0.0399213 0.0161409 0 0 0 0.298256 -0.0160285 -0.0565023 -0.000547421 0.000750544 -0.00966449 0.298256 -0.0160285 -0.0565023 382.592 382.592 1000.91 
128 1 1 0.107409 0.0394461 0.0104931 0 0 0 0.296075 -0.00476928 -0.408008 -0.00536127 0.0142731 0.00626542 0.296075 -0.00476928 -0.408008 -744.52 -744.52 998.218 
129 1 1 0.111438 0.0352048 0.00993198 0 0 0 0.17112 -0.0982754 0.0375816 0.00625602 -0.0114598 0.0310369 0.17112 -0.0982754 0.0375816 712.36 712.36 1001.69 
130 1 1 0.125439 0.0396833 0.0166206 0 0 0 0.259004 -0.0282338 -0.111818 -0.00145166 0.00358475 -0.00750506 0.259004 -0.0282338 -0.111818 467.376 467.376 1001.11 
131 1 1 0.00999431 0.05 0.0101024 0 0 0 0.00649587 -8.96543e-14 -0.00381584 -0.00838941 -1.80973e-13 -0.0405088 0.00649587 -8.96543e-14 -0.00381584 510.815 510.815 1001.21 
132 1 1 0.0236466 0.05 0.0200761 0 0 0 0.0628136 -1.43487e-13 -0.0349957 -0.0238368 -4.2548e-13 0.00154645 0.0628136 -1.43487e-13 -0.0349957 647.843 647.843 1001.54 
133 1 1 0.0335889 0.05 0.022025 0 0 0 0.0712657 -3.59189e-13 -0.0562545 -0.00620384 -3.6772e-13 0.00243745 0.0712657 -3.59189e-13 -0.0562545 911.996 911.996 1002.16 
134 1 1 0.0501309 0.05 0.0192091 0 0 0 0.16593 -6.82602e-13 -0.0966712 0.0132099 -2.29319e-13 -0.007228 0.16593 -6.82602e-13 -0.0966712 465.107 465.107 1001.1 
135 1 1 0.0651048 0.05 0.0203833 0 0 0 0.208981 -3.35278e-13 -0.0597162 0.00864729 -3.60304e-13 -0.00659499 0.208981 -3.35278e-13 -0.0597162 377.058 377.058 1000.9 
136 1 1 0.0791951 0.05 0.0208579 0 0 0 0.293864 7.24125e-13 -0.0664368 -0.00149714 -4.24467e-13 -0.0193188 0.293864 7.24125e-13 -0.0664368 564.02 564.02 1001.34 
137 1 1 0.0943016 0.05 0.0213898 0 0 0 0.278381 -5.18742e-13 -0.0487641 -0.00364877 -1.76933e-13 -0.00720941 0.278381 -5.18742e-13 -0.0487641 402.171 402.171 1000.95 
138 1 1 0.104331 0.05 0.0181052 0 0 0 0.207737 6.1695e-14 -0.108873 -0.00080098 2.99169e-14 -0.0128957 0.207737 6.1695e-14 -0.108873 486.135 486.135 1001.15 
139 1 1 0.110392 0.05 0.010019 0 0 0 0.115146 -1.26701e-13 0.0406031 -0.00583781 8.44123e-14 -0.0543568 0.115146 -1.26701e-13 0.0406031 633.353 633.353 1001.5 
140 1 1 0.127843 0.05 0.0197134 0 0 0 0.332371 1.20656e-14 0.0170599 0.000339038 4.28113e-14 -0.00379942 0.332371 1.20656e-14 0.0170599 344.072 344.072 1000.82 
141 1 1 0.00999804 0.0632925 0.0100528 0 0 0 0.0082064 -0.18851 -0.0581265 -0.0114847 -0.00955686 -0.0444466 0.0082064 -0.18851 -0.0581265 509.327 509.327 1001.21 
142 1 1 0.0243908 0.061587 0.0202166 0 0 0 0.0666206 0.0460726 -0.0309112 -0.0242566 -0.00638204 -0.00181122 0.0666206 0.0460726 -0.0309112 832.546 832.546 1001.97 
143 1 1 0.0309605 0.0612335 0.00960548 0 0 0 -0.0363046 0.0612124 -0.153377 -0.0123788 -0.0149771 0.407907 -0.0363046 0.0612124 -0.153377 135.582 135.582 1000.32 
144 1 1 0.0474541 0.0616817 0.0111834 0 0 0 0.0684598 0.10748 0.0422173 0.0231197 -0.0322334 -0.0612038 0.0684598 0.10748 0.0422173 797.114 797.114 1001.89 
145 1 1 0.0628085 0.0597137 0.0156062 0 0 0 0.154458 -0.0176122 -0.16846 0.0145238 -0.00351122 -0.0128195 0.154458 -0.0176122 -0.16846 400.446 400.446 1000.95 
146 1 1 0.0776586 0.0598553 0.00993845 0 0 0 0.1334 0.00849999 -0.405106 -0.0373661 0.00665866 0.0456747 0.1334 0.00849999 -0.405106 -894.182 -894.182 997.857 
147 1 1 0.0931855 0.0600787 0.0161409 0 0 0 0.298256 0.0160285 -0.0565023 -0.000547421 -0.000750544 -0.00966449 0.298256 0.0160285 -0.0565023 382.592 382.592 1000.91 
148 1 1 0.107409 0.0605539 0.0104931 0 0 0 0.296075 0.00476928 -0.408008 -0.00536127 -0.0142731 0.00626542 0.296075 0.00476928 -0.408008 -744.52 -744.52 998.218 
149 1 1 0.111438 0.0647952 0.00993198 0 0 0 0.17112 0.0982754 0.0375816 0.00625602 0.0114598 0.0310369 0.17112 0.0982754 0.0375816 712.36 712.36 1001.69 
150 1 1 0.125439 0.0603167 0.0166206 0 0 0 0.259004 0.0282338 -0.111818 -0.00145166 -0.00358475 -0.00750506 0.259004 0.0282338 -0.111818 467.376 467.376 1001.11 
151 1 1 0.0100162 0.0701414 0.00990609 0 0 0 -0.0176387 0.0743589 0.07532 -0.035968 -0.0108764 0.0625853 -0.0176387 0.0743589 0.07532 962.334 962.334 1002.28 
152 1 1 0.0252365 0.0748375 0.0219595 0 0 0 0.062027 0.130327 -0.0346374 -0.0287315 0.0120848 0.00432968 0.062027 0.130327 -0.0346374 609.098 609.098 1001.44 
153 1 1 0.0320545 0.0759869 0.00995452 0 0 0 -0.00590753 0.0601226 0.231388 -0.0390361 0.0223774 -0.0114966 -0.00590753 0.0601226 0.231388 1898.62 1898.62 1004.46 
154 1 1 0.0456329 0.0746864 0.00963914 0 0 0 -0.077358 0.0263155 0.243325 0.0248183 0.00606773 0.3436 -0.077358 0.0263155 0.243325 1976.96 1976.96 1004.64 
155 1 1 0.0624599 0.0734515 0.0213925 0 0 0 0.072013 0.0344208 0.0623043 0.0237082 0.00363147 0.000229537 0.072013 0.0344208 0.0623043 424.447 424.447 1001.01 
156 1 1 0.0773007 0.0719348 0.0166906 0 0 0 0.199672 -0.0669262 -0.083141 -0.00728666 -0.00446838 -0.0133634 0.199672 -0.0669262 -0.083141 429.348 429.348 1001.02 
157 1 1 0.0942941 0.0729703 0.0189887 0 0 0 0.303638 0.00419365 0.00718098 -0.00170249 -0.000726409 -0.00445909 0.303638 0.00419365 0.00718098 441.647 441.647 1001.05 
158 1 1 0.106508 0.0705277 0.0195972 0 0 0 0.313322 0.0212588 -0.0782706 -0.00162103 0.00272911 -0.0162368 0.313322 0.0212588 -0.0782706 418.743 418.743 1000.99 
159 1 1 0.113432 0.0743552 0.00997578 0 0 0 0.183413 0.07652 -0.019891 -0.0108024 0.00434507 -0.00805195 0.183413 0.07652 -0.019891 478.316 478.316 1001.13 
160 1 1 0.124042 0.0715839 0.0193787 0 0 0 0.278409 0.0448421 0.0128758 0.00207305 0.00091755 -0.000427677 0.278409 0.0448421 0.0128758 484.932 484.932 1001.15 
161 1 1 0.00998476 0.0792227 0.022312 0 0 0 0.0196133 0.0344418 -0.0515927 0.00598292 0.00819243 -0.000263517 0.0196133 0.0344418 -0.0515927 921.909 921.909 1002.18 
162 1 1 0.0236548 0.0784855 0.0112044 0 0 0 0.10674 -0.0277075 -0.416582 -0.0255523 0.0172885 -0.0207309 0.10674 -0.0277075 -0.416582 -34.9271 -34.9271 999.917 
163 1 1 0.0349053 0.0766273 0.0226712 0 0 0 0.0389235 -0.0513063 -0.0409531 -0.0161264 0.0243908 0.0250853 0.0389235 -0.0513063 -0.0409531 1098.37 1098.37 1002.59 
164 1 1 0.0503222 0.0765953 0.0215514 0 0 0 0.0966648 -0.0855972 0.0485784 0.0210834 0.021488 0.0132622 0.0966648 -0.0855972 0.0485784 1193.2 1193.2 1002.82 
165 1 1 0.0649978 0.0776805 0.0184432 0 0 0 0.151292 -0.0547876 -0.00258985 0.0168249 0.0060377 -0.00237008 0.151292 -0.0547876 -0.00258985 311.917 311.917 1000.74 
166 1 1 0.0807517 0.077605 0.0180126 0 0 0 0.311146 -0.0308676 0.0358777 -0.00309152 0.00108985 -0.00367686 0.311146 -0.0308676 0.0358777 484.09 484.09 1001.15 
167 1 1 0.0955641 0.0789399 0.0214396 0 0 0 0.379416 -0.00998182 0.0232409 0.000577956 -0.00029848 -0.00763489 0.379416 -0.00998182 0.0232409 505.86 505.86 1001.2 
168 1 1 0.105316 0.0782235 0.0108182 0 0 0 0.32352 -0.020794 -0.362175 0.0241923 0.0107247 0.000874748 0.32352 -0.020794 -0.362175 -537.586 -537.586 998.715 
169 1 1 0.116386 0.078387 0.0212702 0 0 0 0.30897 0.0425903 0.0273506 -0.00547149 0.00371638 -0.00799924 0.30897 0.0425903 0.0273506 482.884 482.884 1001.15 
170 1 1 0.129662 0.0798055 0.0168984 0 0 0 0.330978 -0.0393952 -0.102473 -0.00188911 -0.00353846 -0.00348061 0.330978 -0.0393952 -0.102473 420.046 420.046 1001 
171 1 1 0.00999495 0.0900093 0.0100609 0 0 0 0.0382404 0.0105281 -0.0324463 -0.00256256 0.0138937 -0.0537298 0.0382404 0.0105281 -0.0324463 804.239 804.239 1001.9 
172 1 1 0.0222837 0.0900129 0.0209509 0 0 0 -0.0640251 0.0330942 -0.0601599 -0.00667101 0.00523293 -0.00660389 -0.0640251 0.0330942 -0.0601599 548.35 548.35 1001.3 
173 1 1 0.034225 0.0900399 0.00999493 0 0 0 -0.0251277 0.0361075 0.0273716 -0.00706695 -0.00161111 -0.0348211 -0.0251277 0.0361075 0.0273716 651.78 651.78 1001.54 
174 1 1 0.0394532 0.0900213 0.00993672 0 0 0 0.132488 0.0214024 -0.0236641 0.00258787 0.0234426 0.0256198 0.132488 0.0214024 -0.0236641 470.673 470.673 1001.12 
175 1 1 0.0638609 0.0900055 0.0100835 0 0 0 0.0848547 -0.0262743 0.0772442 0.00372461 0.0092133 -0.0558116 0.0848547 -0.0262743 0.0772442 712.337 712.337 1001.69 
176 1 1 0.077155 0.0900109 0.00990012 0 0 0 0.164911 0.00240189 0.0408717 -0.006879 0.000395419 0.0665066 0.164911 0.00240189 0.0408717 550.199 550.199 1001.3 
177 1 1 0.0906915 0.090003 0.00991376 0 0 0 0.239409 0.0246142 -0.00198606 -0.00628777 0.010843 0.0530626 0.239409 0.0246142 -0.00198606 530.998 530.998 1001.26 
178 1 1 0.0986536 0.0900118 0.0153968 0 0 0 0.254337 -0.014719 -0.0868129 0.00341323 0.00149191 -0.0100927 0.254337 -0.014719 -0.0868129 627.211 627.211 1001.49 
179 1 1 0.111106 0.090031 0.00999258 0 0 0 0.109216 0.0533016 -0.0171256 -0.00212261 -0.0220678 -0.0228067 0.109216 0.0533016 -0.0171256 437.257 437.257 1001.04 
180 1 1 0.116949 0.0900153 0.00990895 0 0 0 0.293356 -0.00435678 0.00302053 -0.00283869 2.94636e-05 0.0609542 0.293356 -0.00435678 0.00302053 619.434 619.434 1001.47 
181 1 1 0.00998156 0.00995809 0.0190215 0 0 0 -0.00770026 -0.0354816 -0.0546005 0.00736891 0.0161926 -0.00158922 -0.00770026 -0.0354816 -0.0546005 733.704 733.704 1001.74 
182 1 1 0.028172 0.00998653 0.0234052 0 0 0 0.0298684 -0.00819542 -0.0687872 -0.0109164 -0.00882131 -0.00118731 0.0298684 -0.00819542 -0.0687872 690.212 690.212 1001.64 