ITEM: TIMESTEP
48000
ITEM: NUMBER OF ATOMS
2655
ITEM: BOX BOUNDS ff ff ff
0 0.5
0 0.1
0 0.5
ITEM: ATOMS id type type x y z ix iy iz vx vy vz fx fy fz vx vy vz p p rho 
1 1 1 0.00999154 0.00997759 0.00999374 0 0 0 -0.0226518 0.00676689 -0.0208298 0.00025235 0.00843536 -0.0111136 -0.0226518 0.00676689 -0.0208298 498.694 498.694 1001.18 
2 1 1 0.0331548 0.00996907 0.0099693 0 0 0 -0.0713636 0.00517791 -0.0095444 -0.00543753 0.0135725 0.00284877 -0.0713636 0.00517791 -0.0095444 615.839 615.839 1001.46 
3 1 1 0.0269318 0.00996123 0.00998235 0 0 0 -0.0111525 -0.00458714 -0.000807363 -0.0102243 0.0215785 -0.00782672 -0.0111525 -0.00458714 -0.000807363 611.364 611.364 1001.45 
4 1 1 0.0712438 0.00998421 0.00995499 0 0 0 -0.0605216 -0.00465193 0.00688063 -0.00366934 -0.00727751 0.0135276 -0.0605216 -0.00465193 0.00688063 649.846 649.846 1001.54 
5 1 1 0.0751846 0.00997007 0.00997683 0 0 0 -0.0203902 0.00104447 -0.00299046 0.000196142 0.00660056 -0.00779457 -0.0203902 0.00104447 -0.00299046 663.782 663.782 1001.57 
6 1 1 0.0985265 0.00996775 0.00996072 0 0 0 -0.0606925 -0.00356182 -0.0215838 0.00022327 0.00961067 0.00657301 -0.0606925 -0.00356182 -0.0215838 711.238 711.238 1001.68 
7 1 1 0.114838 0.0099683 0.00997853 0 0 0 -0.0451918 0.00120236 -0.00436003 0.00165676 0.00864963 -0.0102563 -0.0451918 0.00120236 -0.00436003 676.039 676.039 1001.6 
8 1 1 0.127844 0.0099722 0.00996937 0 0 0 0.016854 -0.00334971 -0.00365386 -0.00493748 0.00402337 -0.00124417 0.016854 -0.00334971 -0.00365386 679.988 679.988 1001.61 
9 1 1 0.138327 0.00997872 0.00995503 0 0 0 -0.0396595 -0.00805011 0.00634587 0.00225345 0.00174025 0.0140908 -0.0396595 -0.00805011 0.00634587 635.231 635.231 1001.51 
10 1 1 0.15382 0.00998515 0.00997111 0 0 0 0.0306377 -0.00780708 0.00450077 0.00472699 -0.00154353 -0.00163377 0.0306377 -0.00780708 0.00450077 587.133 587.133 1001.39 
11 1 1 0.00998222 0.0217599 0.00998229 0 0 0 0.00807602 0.00476132 -0.00757487 0.00634595 -0.00429519 -0.00837746 0.00807602 0.00476132 -0.00757487 533.819 533.819 1001.27 
12 1 1 0.0222232 0.0288988 0.00997225 0 0 0 -0.0270455 0.0266997 -0.0033901 -0.00410566 -0.00258757 0.00126534 -0.0270455 0.0266997 -0.0033901 586.896 586.896 1001.39 
13 1 1 0.0298265 0.0236645 0.00996036 0 0 0 -0.0462991 -0.0721661 -0.00245127 -0.00562264 -0.00278317 0.0119161 -0.0462991 -0.0721661 -0.00245127 585.19 585.19 1001.39 
14 1 1 0.0870619 0.0212986 0.00996803 0 0 0 0.0468931 0.0212979 -0.00220285 0.000688256 0.00497036 -0.00235475 0.0468931 0.0212979 -0.00220285 631.466 631.466 1001.5 
15 1 1 0.0772661 0.0227085 0.00997099 0 0 0 0.0387488 0.0177489 0.000213818 -0.00110448 0.00452159 -0.00477384 0.0387488 0.0177489 0.000213818 584.653 584.653 1001.39 
16 1 1 0.102891 0.0207607 0.00996196 0 0 0 -0.020088 -0.0282897 -0.00846401 0.00288542 0.00590984 0.00121279 -0.020088 -0.0282897 -0.00846401 632.923 632.923 1001.5 
17 1 1 0.104958 0.0338038 0.00996317 0 0 0 0.0130644 0.0750813 -0.00669583 0.000874724 0.00419507 -0.000215657 0.0130644 0.0750813 -0.00669583 527.919 527.919 1001.25 
18 1 1 0.125763 0.031858 0.00995679 0 0 0 0.0403035 0.0497867 -0.00145086 -0.000676276 0.0012256 0.00156728 0.0403035 0.0497867 -0.00145086 588.661 588.661 1001.4 
19 1 1 0.121569 0.0209622 0.00995706 0 0 0 -0.0463594 -0.0243806 -0.00269412 0.00205986 0.00353678 0.00582425 -0.0463594 -0.0243806 -0.00269412 655.499 655.499 1001.55 
20 1 1 0.160417 0.0205594 0.00996238 0 0 0 0.0447153 -0.00993452 -0.0039895 0.00301293 0.00237307 0.00518552 0.0447153 -0.00993452 -0.0039895 501.114 501.114 1001.19 
21 1 1 0.0100002 0.0244299 0.00997798 0 0 0 0.0084546 -0.0508139 -0.020122 -0.0278215 -0.0035443 -0.00424759 0.0084546 -0.0508139 -0.020122 543.221 543.221 1001.29 
22 1 1 0.0328339 0.03423 0.00996362 0 0 0 -0.0113332 0.005006 0.00948266 -0.00118347 0.00374063 0.0109389 -0.0113332 0.005006 0.00948266 502.752 502.752 1001.19 
23 1 1 0.0550298 0.035915 0.00996802 0 0 0 -0.0176037 0.00267564 0.00878115 -0.00231113 -0.000755389 0.00650031 -0.0176037 0.00267564 0.00878115 500.41 500.41 1001.19 
24 1 1 0.0818727 0.0344917 0.00996487 0 0 0 0.0361816 -0.0214836 -0.00669862 -0.00131982 0.000535187 0.000687383 0.0361816 -0.0214836 -0.00669862 530.298 530.298 1001.26 
25 1 1 0.0971817 0.0301984 0.00996397 0 0 0 0.0307119 -0.0107494 -0.00932807 0.00258312 0.0031912 0.00124775 0.0307119 -0.0107494 -0.00932807 527.86 527.86 1001.25 
26 1 1 0.11299 0.0218574 0.00995904 0 0 0 0.0293616 0.0238686 -0.00526588 -0.000652316 0.00168412 0.00308031 0.0293616 0.0238686 -0.00526588 643.999 643.999 1001.53 
27 1 1 0.133126 0.0410309 0.00996369 0 0 0 0.106851 0.0603627 -0.00328162 0.00239162 0.00185625 -0.00133021 0.106851 0.0603627 -0.00328162 510.214 510.214 1001.21 
28 1 1 0.113814 0.0266201 0.00996102 0 0 0 -0.0325213 -0.000419062 -0.00311728 0.000424447 0.00388038 0.000616623 -0.0325213 -0.000419062 -0.00311728 618.236 618.236 1001.47 
29 1 1 0.149404 0.0253494 0.00996077 0 0 0 0.054037 -0.0257259 -0.00418449 0.00011165 -0.000573502 0.0030795 0.054037 -0.0257259 -0.00418449 531.706 531.706 1001.26 
30 1 1 0.153708 0.0363156 0.00996572 0 0 0 0.0850322 -0.00847635 -0.00509279 0.00303594 -0.000388786 0.00214688 0.0850322 -0.00847635 -0.00509279 453.995 453.995 1001.08 
31 1 1 0.00997857 0.0359145 0.00996737 0 0 0 0.00477264 -0.00432221 -0.00846464 0.00609786 0.00117835 0.00341224 0.00477264 -0.00432221 -0.00846464 567.546 567.546 1001.35 
32 1 1 0.02268 0.0427914 0.00997147 0 0 0 -0.0304075 0.0385182 -0.00306256 -0.00229875 -0.0018675 0.000733894 -0.0304075 0.0385182 -0.00306256 573.742 573.742 1001.36 
33 1 1 0.0525008 0.0419248 0.00996759 0 0 0 -0.0231394 0.00337978 0.00651689 -0.00496273 -0.00222434 0.00583049 -0.0231394 0.00337978 0.00651689 532.209 532.209 1001.26 
34 1 1 0.0680215 0.0368981 0.0099737 0 0 0 0.0154015 -0.00982342 0.0030982 0.00239195 0.000782223 -0.00338986 0.0154015 -0.00982342 0.0030982 533.372 533.372 1001.27 
35 1 1 0.0734634 0.041763 0.00997571 0 0 0 0.00203188 0.010977 -0.0032373 0.00112955 -0.00132093 -0.00617505 0.00203188 0.010977 -0.0032373 537.891 537.891 1001.28 
36 1 1 0.0939173 0.034045 0.00994833 0 0 0 0.0143838 -0.0677986 -0.0112675 -0.00089585 0.00932974 0.0152979 0.0143838 -0.0677986 -0.0112675 514.316 514.316 1001.22 
37 1 1 0.125824 0.0397504 0.00996216 0 0 0 -0.00532692 -0.0305793 -0.00156868 0.000594566 0.00242439 -0.000801789 -0.00532692 -0.0305793 -0.00156868 535.812 535.812 1001.27 
38 1 1 0.134666 0.0298183 0.00995873 0 0 0 0.0443303 0.0154428 -0.00277343 0.00480695 0.00449744 0.00190036 0.0443303 0.0154428 -0.00277343 564.798 564.798 1001.34 
39 1 1 0.141216 0.0467676 0.00996588 0 0 0 0.0625532 -0.00744541 -0.00546493 0.0020528 0.00106229 -0.00147752 0.0625532 -0.00744541 -0.00546493 470.717 470.717 1001.12 
40 1 1 0.160646 0.0385624 0.00996218 0 0 0 0.0633067 -0.0034299 -0.00740301 0.000821492 0.000364548 0.00449613 0.0633067 -0.0034299 -0.00740301 430.943 430.943 1001.02 
41 1 1 0.00995453 0.0499998 0.00997986 0 0 0 -0.0135204 0.000296807 -0.0137934 0.0317274 -0.000322657 -0.00919501 -0.0135204 0.000296807 -0.0137934 567.22 567.22 1001.35 
42 1 1 0.0440316 0.0500001 0.00997079 0 0 0 -0.0971678 0.000172039 6.54361e-05 -0.000744238 -4.26284e-05 0.000947303 -0.0971678 0.000172039 6.54361e-05 497.024 497.024 1001.18 
43 1 1 0.0535045 0.05 0.00996923 0 0 0 -0.0206271 0.00010921 0.00245487 -0.00726668 -1.52969e-05 0.0040287 -0.0206271 0.00010921 0.00245487 573.115 573.115 1001.36 
44 1 1 0.0726952 0.0500001 0.0099767 0 0 0 -0.0572338 2.84125e-05 -0.000256921 0.000855577 -6.01509e-07 -0.00907746 -0.0572338 2.84125e-05 -0.000256921 541.512 541.512 1001.28 
45 1 1 0.0852466 0.0500001 0.00995438 0 0 0 -0.0089482 1.27679e-05 -0.00790149 -0.000362941 -1.48599e-05 0.0141259 -0.0089482 1.27679e-05 -0.00790149 485.541 485.541 1001.15 
46 1 1 0.0936177 0.0500001 0.00994509 0 0 0 0.023695 1.38106e-05 -0.019532 -0.000268119 -1.91718e-05 0.0197149 0.023695 1.38106e-05 -0.019532 485.972 485.972 1001.15 
47 1 1 0.0994979 0.0500001 0.00994746 0 0 0 -0.0466008 1.8489e-07 -0.00866624 0.00571064 -1.60978e-05 0.0139771 -0.0466008 1.8489e-07 -0.00866624 473.022 473.022 1001.12 
48 1 1 0.122932 0.05 0.00996824 0 0 0 0.0502394 -4.35966e-06 0.00267989 0.000621121 -5.73865e-06 -0.00296631 0.0502394 -4.35966e-06 0.00267989 489.94 489.94 1001.16 
49 1 1 0.108894 0.05 0.00996289 0 0 0 -0.0492869 -6.00795e-06 0.00687014 -0.00208101 -9.63633e-06 0.000208236 -0.0492869 -6.00795e-06 0.00687014 444.608 444.608 1001.06 
50 1 1 0.162172 0.05 0.00997127 0 0 0 0.0401207 -1.51397e-05 -0.0105258 0.000951172 5.41953e-06 -0.00481675 0.0401207 -1.51397e-05 -0.0105258 426.881 426.881 1001.01 
51 1 1 0.00997957 0.064085 0.00996635 0 0 0 0.00511859 0.00432799 -0.00890445 0.00496148 -0.00193773 0.00388168 0.00511859 0.00432799 -0.00890445 579.657 579.657 1001.37 
52 1 1 0.0226801 0.0572089 0.00997116 0 0 0 -0.030453 -0.0380545 -0.00325761 -0.00213528 0.00151812 0.000888025 -0.030453 -0.0380545 -0.00325761 576.007 576.007 1001.37 
53 1 1 0.0525007 0.0580757 0.00996763 0 0 0 -0.0232438 -0.00319063 0.00655413 -0.00492548 0.00217803 0.00577164 -0.0232438 -0.00319063 0.00655413 532.372 532.372 1001.26 
54 1 1 0.0680212 0.0631024 0.00997375 0 0 0 0.0153009 0.00985389 0.00321307 0.00240141 -0.000798738 -0.00344108 0.0153009 0.00985389 0.00321307 533.327 533.327 1001.27 
55 1 1 0.0734634 0.0582372 0.00997577 0 0 0 0.00200596 -0.0109692 -0.00317085 0.00111967 0.00131373 -0.00623711 0.00200596 -0.0109692 -0.00317085 537.86 537.86 1001.28 
56 1 1 0.0939173 0.0659551 0.00994832 0 0 0 0.0143622 0.0677794 -0.0112589 -0.000899129 -0.00933436 0.015294 0.0143622 0.0677794 -0.0112589 514.853 514.853 1001.22 
57 1 1 0.125824 0.0602496 0.00996217 0 0 0 -0.00533084 0.0305712 -0.00156171 0.000598813 -0.00243339 -0.000813012 -0.00533084 0.0305712 -0.00156171 535.932 535.932 1001.27 
58 1 1 0.134666 0.0701817 0.00995874 0 0 0 0.0443181 -0.0154586 -0.00276111 0.00481888 -0.00449875 0.00188592 0.0443181 -0.0154586 -0.00276111 564.897 564.897 1001.34 
59 1 1 0.141216 0.0532324 0.00996588 0 0 0 0.0625509 0.00742709 -0.00546234 0.00205489 -0.00106373 -0.00147899 0.0625509 0.00742709 -0.00546234 470.723 470.723 1001.12 
60 1 1 0.160646 0.0614376 0.00996219 0 0 0 0.0633034 0.00340838 -0.00738812 0.000828362 -0.000351817 0.00449539 0.0633034 0.00340838 -0.00738812 430.811 430.811 1001.02 
61 1 1 0.0100016 0.0755694 0.0099761 0 0 0 0.00121757 0.0496343 -0.0191831 -0.0285956 0.00314934 -0.00323579 0.00121757 0.0496343 -0.0191831 564.961 564.961 1001.34 
62 1 1 0.0328336 0.06577 0.00996358 0 0 0 -0.0114667 -0.00485165 0.00930884 -0.00101598 -0.00401912 0.0107587 -0.0114667 -0.00485165 0.00930884 505.871 505.871 1001.2 
63 1 1 0.0550299 0.064085 0.00996798 0 0 0 -0.01772 -0.00255238 0.00874105 -0.00225962 0.000709564 0.00652022 -0.01772 -0.00255238 0.00874105 500.747 500.747 1001.19 
64 1 1 0.0818727 0.0655083 0.00996491 0 0 0 0.0361798 0.0214659 -0.00663633 -0.00133977 -0.000531508 0.000633366 0.0361798 0.0214659 -0.00663633 530.555 530.555 1001.26 
65 1 1 0.0971816 0.0698016 0.00996396 0 0 0 0.0307033 0.0107562 -0.00933946 0.00258598 -0.0031881 0.00123547 0.0307033 0.0107562 -0.00933946 528.271 528.271 1001.25 
66 1 1 0.11299 0.0781426 0.00995906 0 0 0 0.0293563 -0.0238683 -0.00525992 -0.000646258 -0.00168661 0.00304363 0.0293563 -0.0238683 -0.00525992 644.325 644.325 1001.53 
67 1 1 0.133126 0.0589691 0.00996369 0 0 0 0.106846 -0.0603749 -0.00327485 0.00239701 -0.00186197 -0.00133759 0.106846 -0.0603749 -0.00327485 510.281 510.281 1001.21 
68 1 1 0.113814 0.0733799 0.00996104 0 0 0 -0.0325235 0.000421218 -0.00310696 0.000430695 -0.0038858 0.000579791 -0.0325235 0.000421218 -0.00310696 618.544 618.544 1001.47 
69 1 1 0.149404 0.0746506 0.00996078 0 0 0 0.0540158 0.0257025 -0.00415968 0.00012743 0.000578207 0.00307728 0.0540158 0.0257025 -0.00415968 531.56 531.56 1001.26 
70 1 1 0.153708 0.0636844 0.00996573 0 0 0 0.0850302 0.00845229 -0.00507852 0.00304443 0.000397452 0.00214568 0.0850302 0.00845229 -0.00507852 453.896 453.896 1001.08 
71 1 1 0.00998374 0.0782392 0.00998027 0 0 0 0.00794351 -0.00619225 -0.00613408 0.00464432 0.00401259 -0.0072617 0.00794351 -0.00619225 -0.00613408 557.337 557.337 1001.32 
72 1 1 0.0222238 0.0711021 0.00997206 0 0 0 -0.0268786 -0.0267491 -0.00302505 -0.00367167 0.0022244 0.000985903 -0.0268786 -0.0267491 -0.00302505 595.178 595.178 1001.41 
73 1 1 0.0298251 0.0763367 0.00996032 0 0 0 -0.0464801 0.0722819 -0.00214527 -0.00534778 0.00248101 0.0115152 -0.0464801 0.0722819 -0.00214527 593.085 593.085 1001.41 
74 1 1 0.0870619 0.0787015 0.00996805 0 0 0 0.0468924 -0.0212823 -0.00218166 0.000663671 -0.00495824 -0.00238105 0.0468924 -0.0212823 -0.00218166 631.653 631.653 1001.5 
75 1 1 0.077266 0.0772916 0.00997106 0 0 0 0.0387482 -0.0177374 0.000363791 -0.00111282 -0.00449686 -0.00484714 0.0387482 -0.0177374 0.000363791 584.581 584.581 1001.39 
76 1 1 0.102891 0.0792394 0.00996196 0 0 0 -0.0200872 0.0282978 -0.0085104 0.00289023 -0.00591482 0.00119685 -0.0200872 0.0282978 -0.0085104 633.32 633.32 1001.5 
77 1 1 0.104958 0.0661962 0.00996317 0 0 0 0.013073 -0.0750813 -0.00669438 0.000886349 -0.00420333 -0.000239853 0.013073 -0.0750813 -0.00669438 528.223 528.223 1001.25 
78 1 1 0.125763 0.068142 0.0099568 0 0 0 0.0402928 -0.0497944 -0.00144378 -0.000669028 -0.00123078 0.00154695 0.0402928 -0.0497944 -0.00144378 588.859 588.859 1001.4 
79 1 1 0.121569 0.0790378 0.00995707 0 0 0 -0.0463766 0.0243738 -0.00270162 0.0020704 -0.00353827 0.00579683 -0.0463766 0.0243738 -0.00270162 655.798 655.798 1001.55 
80 1 1 0.160417 0.0794406 0.00996241 0 0 0 0.0447048 0.00988554 -0.00395465 0.00302283 -0.00236852 0.00517018 0.0447048 0.00988554 -0.00395465 500.716 500.716 1001.19 
81 1 1 0.00999343 0.0900221 0.00999035 0 0 0 -0.0225763 -0.00735162 -0.018697 -0.00176296 -0.00752079 -0.00825579 -0.0225763 -0.00735162 -0.018697 523.679 523.679 1001.24 
82 1 1 0.0331538 0.0900303 0.00996878 0 0 0 -0.071478 -0.00391061 -0.00899615 -0.00498711 -0.012695 0.00302554 -0.071478 -0.00391061 -0.00899615 629.64 629.64 1001.49 
83 1 1 0.0269324 0.0900391 0.00998193 0 0 0 -0.0106015 0.00493436 0.00114113 -0.010021 -0.0215734 -0.00785424 -0.0106015 0.00493436 0.00114113 629.547 629.547 1001.49 
84 1 1 0.0712434 0.0900157 0.00995523 0 0 0 -0.0606481 0.00436422 0.00689228 -0.00368489 0.00741573 0.013304 -0.0606481 0.00436422 0.00689228 649.076 649.076 1001.54 
85 1 1 0.0751843 0.0900299 0.00997692 0 0 0 -0.0204398 -0.00100076 -0.00288376 0.000164289 -0.00651965 -0.00787748 -0.0204398 -0.00100076 -0.00288376 663.075 663.075 1001.57 
86 1 1 0.0985264 0.090032 0.00996065 0 0 0 -0.0607107 0.0032821 -0.0216316 0.00021264 -0.00937633 0.00662179 -0.0607107 0.0032821 -0.0216316 711.809 711.809 1001.69 
87 1 1 0.114838 0.0900317 0.00997854 0 0 0 -0.0452058 -0.00117069 -0.00435349 0.00166563 -0.00862295 -0.0102845 -0.0452058 -0.00117069 -0.00435349 676.327 676.327 1001.6 
88 1 1 0.127844 0.0900278 0.00996938 0 0 0 0.0168267 0.00335995 -0.00365442 -0.00492544 -0.00400192 -0.00126098 0.0168267 0.00335995 -0.00365442 680.155 680.155 1001.61 
89 1 1 0.138327 0.0900213 0.00995504 0 0 0 -0.0396924 0.00804125 0.00636444 0.00226977 -0.00173276 0.0140786 -0.0396924 0.00804125 0.00636444 635.182 635.182 1001.51 
90 1 1 0.15382 0.0900148 0.00997111 0 0 0 0.0306147 0.00775737 0.00452275 0.00473915 0.00156501 -0.00162703 0.0306147 0.00775737 0.00452275 586.812 586.812 1001.39 
91 1 1 0.0100181 0.00997257 0.00998632 0 0 0 -0.00738956 -0.00115859 0.0195545 -0.0221679 0.0134706 -0.00381368 -0.00738956 -0.00115859 0.0195545 498.811 498.811 1001.18 
92 1 1 0.0223751 0.00996946 0.00996709 0 0 0 0.0140196 0.00225821 0.00895864 -0.00928215 0.0141013 0.00857801 0.0140196 0.00225821 0.00895864 590.601 590.601 1001.4 
93 1 1 0.038899 0.00993316 0.00996757 0 0 0 -0.07282 0.00918478 0.00403801 -0.000430307 0.0481734 0.00174801 -0.07282 0.00918478 0.00403801 610.354 610.354 1001.45 
94 1 1 0.0504083 0.00996374 0.00997272 0 0 0 -0.0291739 0.0075549 0.00494667 0.00214008 0.0152405 -0.0014337 -0.0291739 0.0075549 0.00494667 595.527 595.527 1001.41 
95 1 1 0.0815474 0.00996766 0.00997333 0 0 0 -0.0479721 -0.0103641 -0.00956694 -0.0045522 0.00897498 -0.00469815 -0.0479721 -0.0103641 -0.00956694 695.187 695.187 1001.65 
96 1 1 0.109576 0.00998525 0.00995635 0 0 0 -0.0071738 -0.00332765 -0.012667 -0.000694486 -0.00856466 0.0122909 -0.0071738 -0.00332765 -0.012667 673.588 673.588 1001.6 
97 1 1 0.119674 0.0099836 0.00994998 0 0 0 -0.058313 -0.00684925 0.00443709 0.00406337 -0.00679151 0.0182091 -0.058313 -0.00684925 0.00443709 682.019 682.019 1001.62 
98 1 1 0.130882 0.00997027 0.00996777 0 0 0 -0.0362337 -0.00211954 -0.000162702 0.00402646 0.00555256 0.000814971 -0.0362337 -0.00211954 -0.000162702 671.72 671.72 1001.59 
99 1 1 0.143293 0.00998087 0.00997463 0 0 0 0.0203665 0.005088 -0.0101516 0.001777 0.00308723 -0.00570851 0.0203665 0.005088 -0.0101516 611.084 611.084 1001.45 
100 1 1 0.148487 0.00999157 0.00995762 0 0 0 -0.0341943 0.00375781 -0.00422697 0.00345354 -0.00660976 0.0107351 -0.0341943 0.00375781 -0.00422697 597.153 597.153 1001.42 
101 1 1 0.00997959 0.0173264 0.0217362 0 0 0 0.014736 -0.00653255 -0.0159265 0.00942726 -0.00353749 0.00357344 0.014736 -0.00653255 -0.0159265 407.709 407.709 1000.97 
102 1 1 0.0235871 0.0214999 0.00996792 0 0 0 0.0140436 0.00141422 -0.00715079 -0.0105635 -0.00289605 0.0029379 0.0140436 0.00141422 -0.00715079 598.695 598.695 1001.42 
103 1 1 0.0522244 0.0212126 0.0217522 0 0 0 -0.0443338 -0.0105366 0.005567 0.000104248 0.00387392 0.00449957 -0.0443338 -0.0105366 0.005567 415.103 415.103 1000.99 
104 1 1 0.0919076 0.0217137 0.0278799 0 0 0 0.0276131 0.0499949 0.0247287 -0.0038483 0.00167807 0.00139397 0.0276131 0.0499949 0.0247287 445.506 445.506 1001.06 
105 1 1 0.124747 0.0188511 0.0410619 0 0 0 0.0788663 -0.00996321 0.00346581 -6.17826e-05 0.000221091 0.00522151 0.0788663 -0.00996321 0.00346581 227.538 227.538 1000.54 
106 1 1 0.13169 0.0207864 0.0142324 0 0 0 -0.035721 -0.0373433 -0.130582 0.000140704 0.00270691 -0.00594404 -0.035721 -0.0373433 -0.130582 601.296 601.296 1001.43 
107 1 1 0.167042 0.0243 0.0208131 0 0 0 0.108439 -0.00809038 -0.0894402 0.00042496 -0.00400631 0.00186552 0.108439 -0.00809038 -0.0894402 415.346 415.346 1000.99 
108 1 1 0.133047 0.0217839 0.00995358 0 0 0 0.0322934 0.0366909 0.00122239 0.00391031 0.00400166 0.0037436 0.0322934 0.0366909 0.00122239 618.946 618.946 1001.47 
109 1 1 0.184545 0.022714 0.0244401 0 0 0 0.0836958 0.0279268 0.0244994 -0.000582586 -0.000660571 -0.00143617 0.0836958 0.0279268 0.0244994 397.262 397.262 1000.94 
110 1 1 0.183723 0.0248698 0.00996962 0 0 0 0.0392489 -0.0222695 -0.00677766 0.000757724 -0.0014197 -0.00018793 0.0392489 -0.0222695 -0.00677766 516.507 516.507 1001.23 
111 1 1 0.00996711 0.0314752 0.00996849 0 0 0 0.00340201 0.00290203 -0.00550303 0.0181716 -0.00452447 0.00373559 0.00340201 0.00290203 -0.00550303 561.783 561.783 1001.33 
112 1 1 0.0248561 0.0214889 0.0253798 0 0 0 -0.102331 -0.027405 0.0386059 -0.00622914 0.00162583 0.00587773 -0.102331 -0.027405 0.0386059 363.465 363.465 1000.86 
113 1 1 0.0457271 0.0346343 0.00996328 0 0 0 0.0293979 -0.0466355 0.009541 -0.00228889 0.00245077 0.0119533 0.0293979 -0.0466355 0.009541 464.651 464.651 1001.1 
114 1 1 0.0515496 0.0222514 0.00996468 0 0 0 -0.0549966 -0.00703065 0.00317523 0.00168382 0.000839443 0.00665416 -0.0549966 -0.00703065 0.00317523 515.509 515.509 1001.22 
115 1 1 0.0950991 0.0205035 0.0205997 0 0 0 -0.0376519 -0.0262151 -0.00844474 -0.000754658 0.00668189 0.00345771 -0.0376519 -0.0262151 -0.00844474 544.868 544.868 1001.29 
116 1 1 0.104897 0.0404671 0.00995886 0 0 0 -0.0122071 0.0171303 -0.00463097 -0.0016515 0.00294256 0.00380405 -0.0122071 0.0171303 -0.00463097 493.389 493.389 1001.17 
117 1 1 0.163724 0.0300552 0.026495 0 0 0 0.136804 0.00100411 -0.0597483 -0.000580635 -0.000649181 0.00238588 0.136804 0.00100411 -0.0597483 359.548 359.548 1000.85 
118 1 1 0.177024 0.0227234 0.0217642 0 0 0 0.142732 -0.0319957 -0.00201921 0.000204198 -0.000212637 -0.000387606 0.142732 -0.0319957 -0.00201921 418.655 418.655 1000.99 
119 1 1 0.154345 0.0249438 0.00995956 0 0 0 -0.0248849 -0.0128695 -0.00430032 0.00421866 -8.98967e-05 0.00615866 -0.0248849 -0.0128695 -0.00430032 497.896 497.896 1001.18 
120 1 1 0.192081 0.0216859 0.0166042 0 0 0 0.126571 -0.0309382 -0.00572853 -0.00131656 0.00169632 0.000215896 0.126571 -0.0309382 -0.00572853 492.375 492.375 1001.17 
121 1 1 0.00998447 0.0418073 0.00995705 0 0 0 -0.0235878 -0.0191426 -0.00428581 0.000326922 -0.00191638 0.0133335 -0.0235878 -0.0191426 -0.00428581 567.97 567.97 1001.35 
122 1 1 0.0233293 0.0363905 0.00996547 0 0 0 -0.0268308 -0.00523146 -0.00909928 -0.0016845 -0.00116327 0.00797569 -0.0268308 -0.00523146 -0.00909928 576.719 576.719 1001.37 
123 1 1 0.0376743 0.0269875 0.00995876 0 0 0 -0.146204 0.0457853 0.00207086 -0.00440147 0.00391111 0.0157925 -0.146204 0.0457853 0.00207086 526.648 526.648 1001.25 
124 1 1 0.0699414 0.0294289 0.00997677 0 0 0 -0.0301351 0.017803 -0.0039203 0.00190757 0.00246325 -0.00959946 -0.0301351 0.017803 -0.0039203 522.573 522.573 1001.24 
125 1 1 0.0815439 0.0374563 0.00996309 0 0 0 -0.0193189 0.0668152 -0.00635777 -0.000379451 0.00554797 0.00294714 -0.0193189 0.0668152 -0.00635777 525.427 525.427 1001.25 
126 1 1 0.1142 0.0349139 0.00996497 0 0 0 0.0193101 -0.0250742 -0.00196195 -0.000304413 0.00446757 -0.0022137 0.0193101 -0.0250742 -0.00196195 558.443 558.443 1001.32 
127 1 1 0.144265 0.040618 0.00996839 0 0 0 0.0707754 -0.0147603 -0.00504612 0.00119759 0.000148183 -0.00290959 0.0707754 -0.0147603 -0.00504612 464.884 464.884 1001.1 
128 1 1 0.142792 0.0338509 0.00996363 0 0 0 0.00236743 0.00665821 -0.00295636 0.001213 0.000984335 -6.60437e-05 0.00236743 0.00665821 -0.00295636 499.045 499.045 1001.18 
129 1 1 0.143064 0.0229016 0.00996049 0 0 0 0.0350639 -0.00405337 -0.00373091 0.00244154 -0.00144532 0.000973469 0.0350639 -0.00405337 -0.00373091 572.508 572.508 1001.36 
130 1 1 0.177894 0.0299673 0.00996734 0 0 0 0.0858932 -0.0292521 -0.0066468 -0.000186243 0.00130138 0.00163149 0.0858932 -0.0292521 -0.0066468 492.317 492.317 1001.17 
131 1 1 0.00998335 0.0499995 0.00996955 0 0 0 0.00949305 0.000280301 -0.00891755 0.00263587 -0.000324044 0.00112555 0.00949305 0.000280301 -0.00891755 567.306 567.306 1001.35 
132 1 1 0.0232172 0.05 0.00997555 0 0 0 -0.0880479 0.000286702 -0.00667028 -0.00328561 -0.00016229 -0.00278821 -0.0880479 0.000286702 -0.00667028 565.086 565.086 1001.34 
133 1 1 0.0400497 0.0500002 0.0100115 0 0 0 0.0786462 0.000187703 -0.0111542 -0.00261368 -5.73287e-05 -0.0411342 0.0786462 0.000187703 -0.0111542 471.793 471.793 1001.12 
134 1 1 0.0802029 0.0500001 0.00996392 0 0 0 -0.0683824 1.79932e-05 -0.00258596 0.00255796 -8.43581e-06 0.00425321 -0.0683824 1.79932e-05 -0.00258596 497.583 497.583 1001.18 
135 1 1 0.114375 0.05 0.0100665 0 0 0 0.165156 -4.36605e-06 -0.0338814 -0.00116672 -7.51933e-06 -0.0468192 0.165156 -4.36605e-06 -0.0338814 448.679 448.679 1001.06 
136 1 1 0.131771 0.05 0.0196635 0 0 0 0.0866996 -4.8646e-06 -0.039407 0.000310562 -4.18625e-06 0.00185255 0.0866996 -4.8646e-06 -0.039407 465.182 465.182 1001.1 
137 1 1 0.161713 0.05 0.0226985 0 0 0 0.0628557 -1.22615e-05 -0.0283502 0.000582329 4.87294e-06 0.000881223 0.0628557 -1.22615e-05 -0.0283502 385.191 385.191 1000.91 
138 1 1 0.12978 0.05 0.00996382 0 0 0 0.0677412 -5.59968e-06 8.86695e-05 0.00215781 -4.2666e-06 4.89053e-06 0.0677412 -5.59968e-06 8.86695e-05 506.708 506.708 1001.2 
139 1 1 0.155385 0.05 0.00997032 0 0 0 -0.0101398 -1.39842e-05 -0.00631574 -0.00133208 3.53944e-06 -0.00175557 -0.0101398 -1.39842e-05 -0.00631574 430.045 430.045 1001.02 
140 1 1 0.198721 0.05 0.0248246 0 0 0 0.116207 -1.63364e-06 0.033996 -0.000160152 7.81537e-06 -0.00142482 0.116207 -1.63364e-06 0.033996 382.85 382.85 1000.91 
141 1 1 0.00998423 0.0581923 0.00995637 0 0 0 -0.0237131 0.0195273 -0.0045762 0.000484729 0.00120286 0.0136967 -0.0237131 0.0195273 -0.0045762 574.812 574.812 1001.36 
142 1 1 0.0233295 0.0636102 0.00996518 0 0 0 -0.0268718 0.00546654 -0.00922497 -0.00139524 0.000775784 0.00798594 -0.0268718 0.00546654 -0.00922497 580.969 580.969 1001.38 
143 1 1 0.0376749 0.073014 0.00995874 0 0 0 -0.146216 -0.0455121 0.00197072 -0.00416682 -0.00411696 0.0155806 -0.146216 -0.0455121 0.00197072 530.703 530.703 1001.26 
144 1 1 0.0699409 0.0705712 0.00997684 0 0 0 -0.030279 -0.017806 -0.00371558 0.00192595 -0.00246582 -0.00968143 -0.030279 -0.017806 -0.00371558 522.702 522.702 1001.24 
145 1 1 0.0815439 0.0625438 0.00996312 0 0 0 -0.0193263 -0.0668326 -0.00630783 -0.000399998 -0.00555443 0.0029051 -0.0193263 -0.0668326 -0.00630783 525.709 525.709 1001.25 
146 1 1 0.1142 0.0650862 0.00996498 0 0 0 0.0193141 0.0250755 -0.00195292 -0.000297977 -0.00447814 -0.00223875 0.0193141 0.0250755 -0.00195292 558.661 558.661 1001.32 
147 1 1 0.144265 0.059382 0.00996839 0 0 0 0.0707681 0.0147412 -0.00503834 0.00120353 -0.000146707 -0.00291308 0.0707681 0.0147412 -0.00503834 464.881 464.881 1001.1 
148 1 1 0.142792 0.0661491 0.00996364 0 0 0 0.00235442 -0.00667838 -0.00294261 0.00122349 -0.000981945 -7.34897e-05 0.00235442 -0.00667838 -0.00294261 499.043 499.043 1001.18 
149 1 1 0.143064 0.0770984 0.0099605 0 0 0 0.0350413 0.00403599 -0.00370772 0.00245777 0.00144827 0.00096543 0.0350413 0.00403599 -0.00370772 572.458 572.458 1001.36 
150 1 1 0.177894 0.0700326 0.00996736 0 0 0 0.0859003 0.0292154 -0.00662381 -0.000182252 -0.00128727 0.00162821 0.0859003 0.0292154 -0.00662381 491.926 491.926 1001.17 
151 1 1 0.00996531 0.0685242 0.00996724 0 0 0 0.000925635 -0.00339785 -0.00525531 0.0198164 0.00397203 0.00429473 0.000925635 -0.00339785 -0.00525531 577.763 577.763 1001.37 
152 1 1 0.0248547 0.0785138 0.0253842 0 0 0 -0.102327 0.0273666 0.0399639 -0.00606614 -0.00163354 0.00673101 -0.102327 0.0273666 0.0399639 374.209 374.209 1000.89 
153 1 1 0.0457274 0.0653659 0.00996332 0 0 0 0.0292898 0.0467132 0.00950417 -0.00216691 -0.00256733 0.0118394 0.0292898 0.0467132 0.00950417 465.815 465.815 1001.11 
154 1 1 0.0515501 0.0777491 0.00996473 0 0 0 -0.0550652 0.00715553 0.00320235 0.00185715 -0.000819787 0.00653673 -0.0550652 0.00715553 0.00320235 516.477 516.477 1001.23 
155 1 1 0.095099 0.0794966 0.0205997 0 0 0 -0.0376553 0.0262123 -0.00845364 -0.000769521 -0.00668832 0.00345521 -0.0376553 0.0262123 -0.00845364 545.344 545.344 1001.29 
156 1 1 0.104897 0.059533 0.00995887 0 0 0 -0.012209 -0.0171424 -0.00463464 -0.00164195 -0.00296026 0.00378618 -0.012209 -0.0171424 -0.00463464 493.646 493.646 1001.17 
157 1 1 0.163724 0.0699448 0.0264949 0 0 0 0.136797 -0.00102987 -0.0597348 -0.000571469 0.000658779 0.00237944 0.136797 -0.00102987 -0.0597348 359.303 359.303 1000.85 
158 1 1 0.177024 0.0772766 0.0217642 0 0 0 0.142745 0.0319589 -0.00199584 0.000210198 0.000220433 -0.00039207 0.142745 0.0319589 -0.00199584 418.188 418.188 1000.99 
159 1 1 0.154345 0.0750562 0.00995958 0 0 0 -0.0248935 0.0128371 -0.00427341 0.00423224 9.54843e-05 0.00615578 -0.0248935 0.0128371 -0.00427341 497.643 497.643 1001.18 
160 1 1 0.192081 0.0783141 0.0166043 0 0 0 0.126615 0.0309138 -0.00571079 -0.00131634 -0.00168325 0.000208312 0.126615 0.0309138 -0.00571079 491.762 491.762 1001.17 
161 1 1 0.00998155 0.082656 0.0217303 0 0 0 0.0161805 0.00345273 -0.0162869 0.00715465 0.00381224 0.00453105 0.0161805 0.00345273 -0.0162869 433.994 433.994 1001.03 
162 1 1 0.023588 0.0785018 0.00996771 0 0 0 0.0146061 -0.00143109 -0.00577207 -0.0102656 0.00253743 0.00254431 0.0146061 -0.00143109 -0.00577207 610.84 610.84 1001.45 
163 1 1 0.0522235 0.0787881 0.0217529 0 0 0 -0.0444713 0.0106715 0.00549271 0.000306179 -0.00382741 0.00452317 -0.0444713 0.0106715 0.00549271 416.573 416.573 1000.99 
164 1 1 0.0919075 0.0782864 0.0278799 0 0 0 0.0276098 -0.0500098 0.0247266 -0.00386765 -0.00168667 0.00138629 0.0276098 -0.0500098 0.0247266 445.865 445.865 1001.06 
165 1 1 0.124747 0.0811489 0.0410619 0 0 0 0.0788706 0.00995924 0.00347625 -4.22345e-05 -0.000227523 0.00523205 0.0788706 0.00995924 0.00347625 228.015 228.015 1000.54 
166 1 1 0.13169 0.0792136 0.0142324 0 0 0 -0.035742 0.0373313 -0.130573 0.000155309 -0.00270653 -0.00595114 -0.035742 0.0373313 -0.130573 601.453 601.453 1001.43 
167 1 1 0.167042 0.0756999 0.0208131 0 0 0 0.108429 0.00805525 -0.0894212 0.000433302 0.00400981 0.00185802 0.108429 0.00805525 -0.0894212 414.971 414.971 1000.99 
168 1 1 0.133047 0.0782161 0.00995359 0 0 0 0.0322766 -0.0367055 0.001232 0.00392372 -0.00400055 0.00372424 0.0322766 -0.0367055 0.001232 619.055 619.055 1001.47 
169 1 1 0.184545 0.077286 0.0244401 0 0 0 0.0837222 -0.0279539 0.0245194 -0.000578482 0.000669906 -0.00144084 0.0837222 -0.0279539 0.0245194 396.75 396.75 1000.94 
170 1 1 0.183723 0.0751302 0.00996965 0 0 0 0.0392773 0.0222406 -0.00674734 0.000761792 0.00142848 -0.000194497 0.0392773 0.0222406 -0.00674734 515.984 515.984 1001.22 
171 1 1 0.0100185 0.0900283 0.00998906 0 0 0 -0.00298756 0.000180433 0.0254868 -0.0230089 -0.013756 -0.007042 -0.00298756 0.000180433 0.0254868 523.757 523.757 1001.24 
172 1 1 0.0223783 0.0900328 0.00996528 0 0 0 0.0156555 0.0013908 0.0115703 -0.00903621 -0.0160254 0.00988831 0.0156555 0.0013908 0.0115703 610.966 610.966 1001.45 
173 1 1 0.0388974 0.0900666 0.00996746 0 0 0 -0.073066 -0.00865266 0.00341746 0.000158589 -0.0476821 0.00160536 -0.073066 -0.00865266 0.00341746 618.435 618.435 1001.47 
174 1 1 0.0504077 0.0900365 0.0099731 0 0 0 -0.029494 -0.00748644 0.00485815 0.00243057 -0.0154055 -0.00186828 -0.029494 -0.00748644 0.00485815 595.286 595.286 1001.41 
175 1 1 0.0815474 0.0900323 0.00997335 0 0 0 -0.0479679 0.0102866 -0.00952661 -0.00459583 -0.00888862 -0.00471475 -0.0479679 0.0102866 -0.00952661 694.825 694.825 1001.65 
176 1 1 0.109576 0.0900148 0.00995637 0 0 0 -0.00717971 0.003414 -0.0126561 -0.000685762 0.00849887 0.0122546 -0.00717971 0.003414 -0.0126561 673.907 673.907 1001.6 
177 1 1 0.119674 0.0900163 0.00994999 0 0 0 -0.0583314 0.00671684 0.00441856 0.00407421 0.00686365 0.0181821 -0.0583314 0.00671684 0.00441856 682.311 682.311 1001.62 