LIGGGHTS (Version LIGGGHTS-PUBLIC 2.3.8, compiled 2014-03-25-19:27:25 by root based on LAMMPS 20 Apr 2012)
atom_style	granular
atom_modify	map array
boundary	f f f
newton		off

communicate	single vel yes

units		si

processors	* * *

region		reg block -0.2 0.2 -0.1 0.1  0.0 1. units box
read_restart	packing.restart
  orthogonal box = (-0.2 -0.1 0) to (0.2 0.1 1)
  1 by 1 by 1 MPI processor grid
  1 atoms

neighbor	0.01 bin
neigh_modify	delay 0

#Material properties required for new pair styles

fix 		m1 all property/global youngsModulus peratomtype 5.e6
fix 		m2 all property/global poissonsRatio peratomtype 0.45
fix 		m3 all property/global coefficientRestitution peratomtypepair 1 0.6
fix 		m4 all property/global coefficientFriction peratomtypepair 1 0.5
fix 		m5 all property/global characteristicVelocity scalar 2.

#New pair style
pair_style 	gran/hertz/history 
pair_coeff	* *

timestep	0.00001

fix		gravi all gravity 9.81 vector 0.0 0.0 -1.0

#walls
fix		boxwalls_x1 all wall/gran/hertz/history primitive type 1 xplane -0.2
Resetting per-atom state of Fix history_boxwalls_x1 Style property/atom from restart file info
fix		boxwalls_x2 all wall/gran/hertz/history primitive type 1 xplane +0.2
Resetting per-atom state of Fix history_boxwalls_x2 Style property/atom from restart file info
fix		boxwalls_y1 all wall/gran/hertz/history primitive type 1 yplane -0.1
Resetting per-atom state of Fix history_boxwalls_y1 Style property/atom from restart file info
fix		boxwalls_y2 all wall/gran/hertz/history primitive type 1 yplane +0.1
Resetting per-atom state of Fix history_boxwalls_y2 Style property/atom from restart file info
fix		boxwalls_z1 all wall/gran/hertz/history primitive type 1 zplane -0.0
Resetting per-atom state of Fix history_boxwalls_z1 Style property/atom from restart file info
fix		boxwalls_z2 all wall/gran/hertz/history primitive type 1 zplane +1.0
Resetting per-atom state of Fix history_boxwalls_z2 Style property/atom from restart file info

#Single particle insertion
region		bc_1 block -0.1 0.1 -0.08 0.08 0.7 0.95 units box
group		nve_group_1 region reg
1 atoms in group nve_group_1
fix			ins_1 nve_group_1 pour/legacy 1 1 1 vol 0.5 5000 diam 0.010 0.010 dens 2700 2700 vel 0. 0. 0. 0. -0.0. region bc_1
Particle insertion: 47746 every 22576 steps, 1 by step 50001

#apply nve integration
fix		integr all nve/sphere

#output settings, include total thermal energy
compute		1 all erotate/sphere
thermo_style		custom step atoms ke c_1 vol
thermo			1000
thermo_modify		lost ignore norm no
compute_modify	thermo_temp dynamic yes

#insert the first particles so that dump is not empty
dump		dmp all custom 1000 post/dump*.break id type type x y z ix iy iz vx vy vz fx fy fz omegax omegay omegaz radius

#insert single particle with high velocity
#create_atoms	1 single 0.0 0.0 0.8 units box
#region		top block -0.2 0.2 -0.1 0.1  0.58 1. units box
#group		top region top
#set		group top diameter 0.5 density 2500. vx 0. vy 0. vz -0.1

#define fragments for particle breakage, particle radii are relative
fix		fragments all particletemplate/multiplespheres 1 atom_type 1 density constant 2500 nspheres 10 ntry 1000000 		spheres file fragmentfile scale 1.0
fix		pdfragments all particledistribution/discrete 1.  1 fragments 1

#fix to break particle
fix		break all breakparticle/force seed 10001 distributiontemplate pdfragments every 100 force_threshold 1.

 Instructed to break based on force_thresold. 
 
 Extracting the value of force_thresold. 

 f_thresold extracted as 1.000000 Newton 

 
 
run 		1
Resetting global state of Fix contacthistory Style contacthistory from restart file info
Resetting per-atom state of Fix contacthistory Style contacthistory from restart file info
Memory usage per processor = 10.4588 Mbytes
Step Atoms KinEng 1 Volume 
   50000        1            0            0         0.08 

 1 

 2 

 4 

 5 

 6 

 12 

 16 

 17 

 18 

 19 

 20 
   50001        2 0.0028003882            0         0.08 
Loop time of 0.000234127 on 1 procs for 1 steps with 2 atoms

Pair  time (%) = 9.53674e-07 (0.407332)
Neigh time (%) = 5.79357e-05 (24.7454)
Comm  time (%) = 9.53674e-07 (0.407332)
Outpt time (%) = 1.90735e-05 (8.14664)
Other time (%) = 0.00015521 (66.2933)

Nlocal:    2 ave 2 max 2 min
Histogram: 1 0 0 0 0 0 0 0 0 0
Nghost:    0 ave 0 max 0 min
Histogram: 1 0 0 0 0 0 0 0 0 0
Neighs:    0 ave 0 max 0 min
Histogram: 1 0 0 0 0 0 0 0 0 0

Total # of neighbors = 0
Ave neighs/atom = 0
Neighbor list builds = 1
Dangerous builds = 0

run		1000000

 <<<=== FI:  setup(int vflag) 
Memory usage per processor = 11.298 Mbytes
Step Atoms KinEng 1 Volume 
   50001        2 0.0028003882            0         0.08 

 1 

 2 

 4 

 5 

 6 

 12 

 16 

 17 

 18 

 19 

 20 

 1 

 2 

 4 

 5 

 6 

 12 

 16 

 17 

 18 

 19 

 20 

 1 

 2 

 4 

 5 

 6 

 12 

 16 

 17 

 18 

 19 

 20 

 1 

 2 

 4 

 5 

 6 

 12 

 16 

 17 

 18 

 19 

 20 

 1 

 2 

 4 

 5 

 6 

 12 

 16 

 17 

 18 

 19 

 20 

 1 

 2 

 4 

 5 

 6 

 12 

 16 

 17 

 18 

 19 

 20 

 1 

 2 

 4 

 5 

 6 

 12 

 16 

 17 

 18 

 19 

 20 

 1 

 2 

 4 

 5 

 6 

 12 

 16 

 17 

 18 

 19 

 20 

 1 

 2 

 4 

 5 

 6 

 12 

 16 

 17 

 18 

 19 

 20 
   51000        2 0.0025382099            0         0.08 

 1 

 2 

 4 

 5 

 6 

 12 

 16 

 17 

 18 

 19 

 20 

 1 

 2 

 4 

 5 

 6 

 12 

 16 

 17 

 18 

 19 

 20 

 1 

 2 

 4 

 5 

 6 

 12 

 16 

 17 

 18 

 19 

 20 

 1 

 2 

 4 

 5 

 6 

 12 

 16 

 17 

 18 

 19 

 20 

 1 

 2 

 4 

 5 

 6 

 12 

 16 

 17 

 18 

 19 

 20 

 1 

 2 

 4 

 5 

 6 

 12 

 16 

 17 

 18 

 19 

 20 

 1 

 2 

 4 

 5 

 6 

 12 

 16 

 17 

 18 

 19 

 20 

 1 

 2 

 4 

 5 

 6 

 12 

 16 

 17 

 18 

 19 

 20 

 1 

 2 

 4 

 5 

 6 

 12 

 16 

 17 

 18 

 19 

 20 

 1 

 2 

 4 

 5 

 6 

 12 

 16 

 17 

 18 

 19 

 20 
   52000        2 0.0023029656            0         0.08 

 1 

 2 

 4 

 5 

 6 

 12 

 16 

 17 

 18 

 19 

 20 

 1 

 2 

 4 

 5 

 6 

 12 

 16 

 17 

 18 

 19 

 20 

 1 

 2 

 4 

 5 

 6 

 12 

 16 

 17 

 18 

 19 

 20 

 1 

 2 

 4 

 5 

 6 

 12 

 16 

 17 

 18 

 19 

 20 

 1 

 2 

 4 

 5 

 6 

 12 

 16 

 17 

 18 

 19 

 20 

 1 

 2 

 4 

 5 

 6 

 12 

 16 

 17 

 18 

 19 

 20 

 1 

 2 

 4 

 5 

 6 

 12 

 16 

 17 

 18 

 19 

 20 

 1 

 2 

 4 

 5 

 6 

 12 

 16 

 17 

 18 

 19 

 20 

 1 

 2 

 4 

 5 

 6 

 12 

 16 

 17 

 18 

 19 

 20 

 1 

 2 

 4 

 5 

 6 

 12 

 16 

 17 

 18 

 19 

 20 
   53000        2 0.0020949314            0         0.08 

 1 

 2 

 4 

 5 

 6 

 12 

 16 

 17 

 18 

 19 

 20 

 1 

 2 

 4 

 5 

 6 

 12 

 16 

 17 

 18 

 19 

 20 

 1 

 2 

 4 

 5 

 6 

 12 

 16 

 17 

 18 

 19 

 20 

 1 

 2 

 4 

 5 

 6 

 12 

 16 

 17 

 18 

 19 

 20 

 1 

 2 

 4 

 5 

 6 

 12 

 16 

 17 

 18 

 19 

 20 

 1 

 2 

 4 

 5 

 6 

 12 

 16 

 17 

 18 

 19 

 20 

 1 

 2 

 4 

 5 

 6 

 12 

 16 

 17 

 18 

 19 

 20 

 1 

 2 

 4 

 5 

 6 

 12 

 16 

 17 

 18 

 19 

 20 

 1 

 2 

 4 

 5 

 6 

 12 

 16 

 17 

 18 

 19 

 20 

 1 

 2 

 4 

 5 

 6 

 12 

 16 

 17 

 18 

 19 

 20 
   54000        2 0.0019141073            0         0.08 

 1 

 2 

 4 

 5 

 6 

 12 

 16 

 17 

 18 

 19 

 20 

 1 

 2 

 4 

 5 

 6 

 12 

 16 

 17 

 18 

 19 

 20 

 1 

 2 

 4 

 5 

 6 

 12 

 16 

 17 

 18 

 19 

 20 

 1 

 2 

 4 

 5 

 6 

 12 

 16 

 17 

 18 

 19 

 20 

 1 

 2 

 4 

 5 

 6 

 12 

 16 

 17 

 18 

 19 

 20 

 1 

 2 

 4 

 5 

 6 

 12 

 16 

 17 

 18 

 19 

 20 

 1 

 2 

 4 

 5 

 6 

 12 

 16 

 17 

 18 

 19 

 20 

 1 

 2 

 4 

 5 

 6 

 12 

 16 

 17 

 18 

 19 

 20 

 1 

 2 

 4 

 5 

 6 

 12 

 16 

 17 

 18 

 19 

 20 

 1 

 2 

 4 

 5 

 6 

 12 

 16 

 17 

 18 

 19 

 20 
   55000        2 0.0017604934            0         0.08 

 1 

 2 

 4 

 5 

 6 

 12 

 16 

 17 

 18 

 19 

 20 

 1 

 2 

 4 

 5 

 6 

 12 

 16 

 17 

 18 

 19 

 20 

 1 

 2 

 4 

 5 

 6 

 12 

 16 

 17 

 18 

 19 

 20 

 1 

 2 

 4 

 5 

 6 

 12 

 16 

 17 

 18 

 19 

 20 

 1 

 2 

 4 

 5 

 6 

 12 

 16 

 17 

 18 

 19 

 20 

 1 

 2 

 4 

 5 

 6 

 12 

 16 

 17 

 18 

 19 

 20 

 1 

 2 

 4 

 5 

 6 

 12 

 16 

 17 

 18 

 19 

 20 

 1 

 2 

 4 

 5 

 6 

 12 

 16 

 17 

 18 

 19 

 20 

 1 

 2 

 4 

 5 

 6 

 12 

 16 

 17 

 18 

 19 

 20 

 1 

 2 

 4 

 5 

 6 

 12 

 16 

 17 

 18 

 19 

 20 
   56000        2 0.0016340896            0         0.08 

 1 

 2 

 4 

 5 

 6 

 12 

 16 

 17 

 18 

 19 

 20 

 1 

 2 

 4 

 5 

 6 

 12 

 16 

 17 

 18 

 19 

 20 

 1 

 2 

 4 

 5 

 6 

 12 

 16 

 17 

 18 

 19 

 20 

 1 

 2 

 4 

 5 

 6 

 12 

 16 

 17 

 18 

 19 

 20 

 1 

 2 

 4 

 5 

 6 

 12 

 16 

 17 

 18 

 19 

 20 

 1 

 2 

 4 

 5 

 6 

 12 

 16 

 17 

 18 

 19 

 20 

 1 

 2 

 4 

 5 

 6 

 12 

 16 

 17 

 18 

 19 

 20 

 1 

 2 

 4 

 5 

 6 

 12 

 16 

 17 

 18 

 19 

 20 

 1 

 2 

 4 

 5 

 6 

 12 

 16 

 17 

 18 

 19 

 20 

 1 

 2 

 4 

 5 

 6 

 12 

 16 

 17 

 18 

 19 

 20 
   57000        2 0.0015348959            0         0.08 

 1 

 2 

 4 

 5 

 6 

 12 

 16 

 17 

 18 

 19 

 20 

 1 

 2 

 4 

 5 

 6 

 12 

 16 

 17 

 18 

 19 

 20 

 1 

 2 

 4 

 5 

 6 

 12 

 16 

 17 

 18 

 19 

 20 

 1 

 2 

 4 

 5 

 6 

 12 

 16 

 17 

 18 

 19 

 20 

 1 

 2 

 4 

 5 

 6 

 12 

 16 

 17 

 18 

 19 

 20 

 1 

 2 

 4 

 5 

 6 

 12 

 16 

 17 

 18 

 19 

 20 

 1 

 2 

 4 

 5 

 6 

 12 

 16 

 17 

 18 

 19 

 20 

 1 

 2 

 4 

 5 

 6 

 12 

 16 

 17 

 18 

 19 

 20 

 1 

 2 

 4 

 5 

 6 

 12 

 16 

 17 

 18 

 19 

 20 

 1 

 2 

 4 

 5 

 6 

 12 

 16 

 17 

 18 

 19 

 20 
   58000        2 0.0014629123            0         0.08 

 1 

 2 

 4 

 5 

 6 

 12 

 16 

 17 

 18 

 19 

 20 

 1 

 2 

 4 

 5 

 6 

 12 

 16 

 17 

 18 

 19 

 20 

 1 

 2 

 4 

 5 

 6 

 12 

 16 

 17 

 18 

 19 

 20 

 1 

 2 

 4 

 5 

 6 

 12 

 16 

 17 

 18 

 19 

 20 

 1 

 2 

 4 

 5 

 6 

 12 

 16 

 17 

 18 

 19 

 20 

 1 

 2 

 4 

 5 

 6 

 12 

 16 

 17 

 18 

 19 

 20 

 1 

 2 

 4 

 5 

 6 

 12 

 16 

 17 

 18 

 19 

 20 

 1 

 2 

 4 

 5 

 6 

 12 

 16 

 17 

 18 

 19 

 20 

 1 

 2 

 4 

 5 

 6 

 12 

 16 

 17 

 18 

 19 

 20 

 1 

 2 

 4 

 5 

 6 

 12 

 16 

 17 

 18 

 19 

 20 
   59000        2 0.0014181388            0         0.08 

 1 

 2 

 4 

 5 

 6 

 12 

 16 

 17 

 18 

 19 

 20 

 1 

 2 

 4 

 5 

 6 

 12 

 16 

 17 

 18 

 19 

 20 

 1 

 2 

 4 

 5 

 6 

 12 

 16 

 17 

 18 

 19 

 20 

 1 

 2 

 4 

 5 

 6 

 12 

 16 

 17 

 18 

 19 

 20 

 1 

 2 

 4 

 5 

 6 

 12 

 16 

 17 

 18 

 19 

 20 

 1 

 2 

 4 

 5 

 6 

 12 

 16 

 17 

 18 

 19 

 20 

 1 

 2 

 4 

 5 

 6 

 12 

 16 

 17 

 18 

 19 

 20 

 1 

 2 

 4 

 5 

 6 

 12 

 16 

 17 

 18 

 19 

 20 

 1 

 2 

 4 

 5 

 6 

 12 

 16 

 17 

 18 

 19 

 20 

 1 

 2 

 4 

 5 

 6 

 12 

 16 

 17 

 18 

 19 

 20 
   60000        2 0.0014005754            0         0.08 

 1 

 2 

 4 

 5 

 6 

 12 

 16 

 17 

 18 

 19 

 20 

 1 

 2 

 4 

 5 

 6 

 12 

 16 

 17 

 18 

 19 

 20 

 1 

 2 

 4 

 5 

 6 

 12 

 16 

 17 

 18 

 19 

 20 

 1 

 2 

 4 

 5 

 6 

 12 

 16 

 17 

 18 

 19 

 20 

 1 

 2 

 4 

 5 

 6 

 12 

 16 

 17 

 18 

 19 

 20 

 1 

 2 

 4 

 5 

 6 

 12 

 16 

 17 

 18 

 19 

 20 

 1 

 2 

 4 

 5 

 6 

 12 

 16 

 17 

 18 

 19 

 20 

 1 

 2 

 4 

 5 

 6 

 12 

 16 

 17 

 18 

 19 

 20 

 1 

 2 

 4 

 5 

 6 

 12 

 16 

 17 

 18 

 19 

 20 

 1 

 2 

 4 

 5 

 6 

 12 

 16 

 17 

 18 

 19 

 20 
   61000        2 0.0014102222            0         0.08 

 1 

 2 

 4 

 5 

 6 

 12 

 16 

 17 

 18 

 19 

 20 

 1 

 2 

 4 

 5 

 6 

 12 

 16 

 17 

 18 

 19 

 20 

 1 

 2 

 4 

 5 

 6 

 12 

 16 

 17 

 18 

 19 

 20 

 1 

 2 

 4 

 5 

 6 

 12 

 16 

 17 

 18 

 19 

 20 

 1 

 2 

 4 

 5 

 6 

 12 

 16 

 17 

 18 

 19 

 20 

 1 

 2 

 4 

 5 

 6 

 12 

 16 

 17 

 18 

 19 

 20 

 1 

 2 

 4 

 5 

 6 

 12 

 16 

 17 

 18 

 19 

 20 

 1 

 2 

 4 

 5 

 6 

 12 

 16 

 17 

 18 

 19 

 20 

 1 

 2 

 4 

 5 

 6 

 12 

 16 

 17 

 18 

 19 

 20 

 1 

 2 

 4 

 5 

 6 

 12 

 16 

 17 

 18 

 19 

 20 
   62000        2  0.001447079            0         0.08 

 1 

 2 

 4 

 5 

 6 

 12 

 16 

 17 

 18 

 19 

 20 

 1 

 2 

 4 

 5 

 6 

 12 

 16 

 17 

 18 

 19 

 20 

 1 

 2 

 4 

 5 

 6 

 12 

 16 

 17 

 18 

 19 

 20 

 1 

 2 

 4 

 5 

 6 

 12 

 16 

 17 

 18 

 19 

 20 

 1 

 2 

 4 

 5 

 6 

 12 

 16 

 17 

 18 

 19 

 20 

 1 

 2 

 4 

 5 

 6 

 12 

 16 

 17 

 18 

 19 

 20 

 1 

 2 

 4 

 5 

 6 

 12 

 16 

 17 

 18 

 19 

 20 

 1 

 2 

 4 

 5 

 6 

 12 

 16 

 17 

 18 

 19 

 20 

 1 

 2 

 4 

 5 

 6 

 12 

 16 

 17 

 18 

 19 

 20 

 1 

 2 

 4 

 5 

 6 

 12 

 16 

 17 

 18 

 19 

 20 
   63000        2  0.001511146            0         0.08 

 1 

 2 

 4 

 5 

 6 

 12 

 16 

 17 

 18 

 19 

 20 

 1 

 2 

 4 

 5 

 6 

 12 

 16 

 17 

 18 

 19 

 20 

 1 

 2 

 4 

 5 

 6 

 12 

 16 

 17 

 18 

 19 

 20 

 1 

 2 

 4 

 5 

 6 

 12 

 16 

 17 

 18 

 19 

 20 

 1 

 2 

 4 

 5 

 6 

 12 

 16 

 17 

 18 

 19 

 20 

 1 

 2 

 4 

 5 

 6 

 12 

 16 

 17 

 18 

 19 

 20 

 1 

 2 

 4 

 5 

 6 

 12 

 16 

 17 

 18 

 19 

 20 

 1 

 2 

 4 

 5 

 6 

 12 

 16 

 17 

 18 

 19 

 20 

 1 

 2 

 4 

 5 

 6 

 12 

 16 

 17 

 18 

 19 

 20 

 1 

 2 

 4 

 5 

 6 

 12 

 16 

 17 

 18 

 19 

 20 
   64000        2 0.0016024231            0         0.08 

 1 

 2 

 4 

 5 

 6 

 12 

 16 

 17 

 18 

 19 

 20 

 1 

 2 

 4 

 5 

 6 

 12 

 16 

 17 

 18 

 19 

 20 

 1 

 2 

 4 

 5 

 6 

 12 

 16 

 17 

 18 

 19 

 20 

 1 

 2 

 4 

 5 

 6 

 12 

 16 

 17 

 18 

 19 

 20 

 1 

 2 

 4 

 5 

 6 

 12 

 16 

 17 

 18 

 19 

 20 

 1 

 2 

 4 

 5 

 6 

 12 

 16 

 17 

 18 

 19 

 20 

 1 

 2 

 4 

 5 

 6 

 12 

 16 

 17 

 18 

 19 

 20 

 1 

 2 

 4 

 5 

 6 

 12 

 16 

 17 

 18 

 19 

 20 

 1 

 2 

 4 

 5 

 6 

 12 

 16 

 17 

 18 

 19 

 20 

 1 

 2 

 4 

 5 

 6 

 12 

 16 

 17 

 18 

 19 

 20 
   65000        2 0.0017209104            0         0.08 

 1 

 2 

 4 

 5 

 6 

 12 

 16 

 17 

 18 

 19 

 20 

 1 

 2 

 4 

 5 

 6 

 12 

 16 

 17 

 18 

 19 

 20 

 1 

 2 

 4 

 5 

 6 

 12 

 16 

 17 

 18 

 19 

 20 

 1 

 2 

 4 

 5 

 6 

 12 

 16 

 17 

 18 

 19 

 20 

 1 

 2 

 4 

 5 

 6 

 12 

 16 

 17 

 18 

 19 

 20 

 1 

 2 

 4 

 5 

 6 

 12 

 16 

 17 

 18 

 19 

 20 

 1 

 2 

 4 

 5 

 6 

 12 

 16 

 17 

 18 

 19 

 20 

 1 

 2 

 4 

 5 

 6 

 12 

 16 

 17 

 18 

 19 

 20 

 1 

 2 

 4 

 5 

 6 

 12 

 16 

 17 

 18 

 19 

 20 

 1 

 2 

 4 

 5 

 6 

 12 

 16 

 17 

 18 

 19 

 20 
   66000        2 0.0018666077            0         0.08 

 1 

 2 

 4 

 5 

 6 

 12 

 16 

 17 

 18 

 19 

 20 

 1 

 2 

 4 

 5 

 6 

 12 

 16 

 17 

 18 

 19 

 20 

 1 

 2 

 4 

 5 

 6 

 12 

 16 

 17 

 18 

 19 

 20 

 1 

 2 

 4 

 5 

 6 

 12 

 16 

 17 

 18 

 19 

 20 

 1 

 2 

 4 

 5 

 6 

 12 

 16 

 17 

 18 

 19 

 20 

 1 

 2 

 4 

 5 

 6 

 12 

 16 

 17 

 18 

 19 

 20 

 1 

 2 

 4 

 5 

 6 

 12 

 16 

 17 

 18 

 19 

 20 

 1 

 2 

 4 

 5 

 6 

 12 

 16 

 17 

 18 

 19 

 20 

 1 

 2 

 4 

 5 

 6 

 12 

 16 

 17 

 18 

 19 

 20 

 1 

 2 

 4 

 5 

 6 

 12 

 16 

 17 

 18 

 19 

 20 
   67000        2 0.0020395151            0         0.08 

 1 

 2 

 4 

 5 

 6 

 12 

 16 

 17 

 18 

 19 

 20 

 1 

 2 

 4 

 5 

 6 

 12 

 16 

 17 

 18 

 19 

 20 

 1 

 2 

 4 

 5 

 6 

 12 

 16 

 17 

 18 

 19 

 20 

 1 

 2 

 4 

 5 

 6 

 12 

 16 

 17 

 18 

 19 

 20 

 1 

 2 

 4 

 5 

 6 

 12 

 16 

 17 

 18 

 19 

 20 

 1 

 2 

 4 

 5 

 6 

 12 

 16 

 17 

 18 

 19 

 20 

 1 

 2 

 4 

 5 

 6 

 12 

 16 

 17 

 18 

 19 

 20 

 1 

 2 

 4 

 5 

 6 

 12 

 16 

 17 

 18 

 19 

 20 

 1 

 2 

 4 

 5 

 6 

 12 

 16 

 17 

 18 

 19 

 20 

 1 

 2 

 4 

 5 

 6 

 12 

 16 

 17 

 18 

 19 

 20 
   68000        2 0.0022396327            0         0.08 

 1 

 2 

 4 

 5 

 6 

 12 

 16 

 17 

 18 

 19 

 20 

 1 

 2 

 4 

 5 

 6 

 12 

 16 

 17 

 18 

 19 

 20 

 1 

 2 

 4 

 5 

 6 

 12 

 16 

 17 

 18 

 19 

 20 

 1 

 2 

 4 

 5 

 6 

 12 

 16 

 17 

 18 

 19 

 20 

 1 

 2 

 4 

 5 

 6 

 12 

 16 

 17 

 18 

 19 

 20 

 1 

 2 

 4 

 5 

 6 

 12 

 16 

 17 

 18 

 19 

 20 

 1 

 2 

 4 

 5 

 6 

 12 

 16 

 17 

 18 

 19 

 20 

 1 

 2 

 4 

 5 

 6 

 12 

 16 

 17 

 18 

 19 

 20 

 1 

 2 

 4 

 5 

 6 

 12 

 16 

 17 

 18 

 19 

 20 

 1 

 2 

 4 

 5 

 6 

 12 

 16 

 17 

 18 

 19 

 20 
   69000        2 0.0024669604            0         0.08 

 1 

 2 

 4 

 5 

 6 

 12 

 16 

 17 

 18 

 19 

 20 

 1 

 2 

 4 

 5 

 6 

 12 

 16 

 17 

 18 

 19 

 20 

 1 

 2 

 4 

 5 

 6 

 12 

 16 

 17 

 18 

 19 

 20 

 1 

 2 

 4 

 5 

 6 

 12 

 16 

 17 

 18 

 19 

 20 

 1 

 2 

 4 

 5 

 6 

 12 

 16 

 17 

 18 

 19 

 20 

 1 

 2 

 4 

 5 

 6 

 12 

 16 

 17 

 18 

 19 

 20 

 1 

 2 

 4 

 5 

 6 

 12 

 16 

 17 

 18 

 19 

 20 

 1 

 2 

 4 

 5 

 6 

 12 

 16 

 17 

 18 

 19 

 20 

 1 

 2 

 4 

 5 

 6 

 12 

 16 

 17 

 18 

 19 

 20 

 1 

 2 

 4 

 5 

 6 

 12 

 16 

 17 

 18 

 19 

 20 
   70000        2 0.0027214982            0         0.08 

 1 

 2 

 4 

 5 

 6 

 12 

 16 

 17 

 18 

 19 

 20 

 1 

 2 

 4 

 5 

 6 

 12 

 16 

 17 

 18 

 19 

 20 

 1 

 2 

 4 

 5 

 6 

 12 

 16 

 17 

 18 

 19 

 20 

 1 

 2 

 4 

 5 

 6 

 12 

 16 

 17 

 18 

 19 

 20 

 1 

 2 

 4 

 5 

 6 

 12 

 16 

 17 

 18 

 19 

 20 

 1 

 2 

 4 

 5 

 6 

 12 

 16 

 17 

 18 

 19 

 20 

 1 

 2 

 4 

 5 

 6 

 12 

 16 

 17 

 18 

 19 

 20 

 1 

 2 

 4 

 5 

 6 

 12 

 16 

 17 

 18 

 19 

 20 

 1 

 2 

 4 

 5 

 6 

 12 

 16 

 17 

 18 

 19 

 20 

 1 

 2 

 4 

 5 

 6 

 12 

 16 

 17 

 18 

 19 

 20 
   71000        2 0.0030032461            0         0.08 

 1 

 2 

 4 

 5 

 6 

 12 

 16 

 17 

 18 

 19 

 20 

 1 

 2 

 4 

 5 

 6 

 12 

 16 

 17 

 18 

 19 

 20 

 1 

 2 

 4 

 5 

 6 

 12 

 16 

 17 

 18 

 19 

 20 

 1 

 2 

 4 

 5 

 6 

 12 

 16 

 17 

 18 

 19 

 20 

 1 

 2 

 4 

 5 

 6 

 12 

 16 

 17 

 18 

 19 

 20 

 1 

 2 

 4 

 5 

 6 

 12 

 16 

 17 

 18 

 19 

 20 

 1 

 2 

 4 

 5 

 6 

 12 

 16 

 17 

 18 

 19 

 20 

 1 

 2 

 4 

 5 

 6 

 12 

 16 

 17 

 18 

 19 

 20 

 1 

 2 

 4 

 5 

 6 

 12 

 16 

 17 

 18 

 19 

 20 

 1 

 2 

 4 

 5 

 6 

 12 

 16 

 17 

 18 

 19 

 20 
   72000        2 0.0033122041            0         0.08 

 1 

 2 

 4 

 5 

 6 

 12 

 16 

 17 

 18 

 19 

 20 

 1 

 2 

 4 

 5 

 6 

 12 

 16 

 17 

 18 

 19 

 20 

 1 

 2 

 4 

 5 

 6 

 12 

 16 

 17 

 18 

 19 

 20 

 1 

 2 

 4 

 5 

 6 

 12 

 16 

 17 

 18 

 19 

 20 

 1 

 2 

 4 

 5 

 6 

 12 

 16 

 17 

 18 

 19 

 20 

 1 

 2 

 4 

 5 

 6 

 12 

 16 

 17 

 18 

 19 

 20 

 1 

 2 

 4 

 5 

 6 

 12 

 16 

 17 

 18 

 19 

 20 

 1 

 2 

 4 

 5 

 6 

 12 

 16 

 17 

 18 

 19 

 20 

 1 

 2 

 4 

 5 

 6 

 12 

 16 

 17 

 18 

 19 

 20 

 1 

 2 

 4 

 5 

 6 

 12 

 16 

 17 

 18 

 19 

 20 
   73000        2 0.0036483723            0         0.08 

 1 

 2 

 4 

 5 

 6 

 12 

 16 

 17 

 18 

 19 

 20 

 1 

 2 

 4 

 5 

 6 

 12 

 16 

 17 

 18 

 19 

 20 

 1 

 2 

 4 

 5 

 6 

 12 

 16 

 17 

 18 

 19 

 20 

 1 

 2 

 4 

 5 

 6 

 12 

 16 

 17 

 18 

 19 

 20 

 1 

 2 

 4 

 5 

 6 

 12 

 16 

 17 

 18 

 19 

 20 

 1 

 2 

 4 

 5 

 6 

 12 

 16 

 17 

 18 

 19 

 20 

 1 

 2 

 4 

 5 

 6 

 12 

 16 

 17 

 18 

 19 

 20 

 1 

 2 

 4 

 5 

 6 

 12 

 16 

 17 

 18 

 19 

 20 

 1 

 2 

 4 

 5 

 6 

 12 

 16 

 17 

 18 

 19 

 20 

 1 

 2 

 4 

 5 

 6 

 12 

 16 

 17 

 18 

 19 

 20 
   74000        2 0.0040117506            0         0.08 

 1 

 2 

 4 

 5 

 6 

 12 

 16 

 17 

 18 

 19 

 20 

 1 

 2 

 4 

 5 

 6 

 12 

 16 

 17 

 18 

 19 

 20 

 1 

 2 

 4 

 5 

 6 

 12 

 16 

 17 

 18 

 19 

 20 

 1 

 2 

 4 

 5 

 6 

 12 

 16 

 17 

 18 

 19 

 20 

 1 

 2 

 4 

 5 

 6 

 12 

 16 

 17 

 18 

 19 

 20 

 1 

 2 

 4 

 5 

 6 

 12 

 16 

 17 

 18 

 19 

 20 

 1 

 2 

 4 

 5 

 6 

 12 

 16 

 17 

 18 

 19 

 20 

 1 

 2 

 4 

 5 

 6 

 12 

 16 

 17 

 18 

 19 

 20 

 1 

 2 

 4 

 5 

 6 

 12 

 16 

 17 

 18 

 19 

 20 

 1 

 2 

 4 

 5 

 6 

 12 

 16 

 17 

 18 

 19 

 20 
   75000        2 0.0044023389            0         0.08 

 1 

 2 

 4 

 5 

 6 

 12 

 16 

 17 

 18 

 19 

 20 

 1 

 2 

 4 

 5 

 6 

 12 

 16 

 17 

 18 

 19 

 20 

 1 

 2 

 4 

 5 

 6 

 12 

 16 

 17 

 18 

 19 

 20 

 1 

 2 

 4 

 5 

 6 

 12 

 16 

 17 

 18 

 19 

 20 

 1 

 2 

 4 

 5 

 6 

 12 

 16 

 17 

 18 

 19 

 20 

 1 

 2 

 4 

 5 

 6 

 12 

 16 

 17 

 18 

 19 

 20 

 1 

 2 

 4 

 5 

 6 

 12 

 16 

 17 

 18 

 19 

 20 

 1 

 2 

 4 

 5 

 6 

 12 

 16 

 17 

 18 

 19 

 20 

 1 

 2 

 4 

 5 

 6 

 12 

 16 

 17 

 18 

 19 

 20 

 1 

 2 

 4 

 5 

 6 

 12 

 16 

 17 

 18 

 19 

 20 
   76000        2 0.0048201374            0         0.08 

 1 

 2 

 4 

 5 

 6 

 12 

 16 

 17 

 18 

 19 

 20 

 1 

 2 

 4 

 5 

 6 

 12 

 16 

 17 

 18 

 19 

 20 

 1 

 2 

 4 

 5 

 6 

 12 

 16 

 17 

 18 

 19 

 20 

 1 

 2 

 4 

 5 

 6 

 12 

 16 

 17 

 18 

 19 

 20 

 1 

 2 

 4 

 5 

 6 

 12 

 16 

 17 

 18 

 19 

 20 

 1 

 2 

 4 

 5 

 6 

 12 

 16 

 17 

 18 

 19 

 20 

 1 

 2 

 4 

 5 

 6 

 12 

 16 

 17 

 18 

 19 

 20 

 1 

 2 

 4 

 5 

 6 

 12 

 16 

 17 

 18 

 19 

 20 

 1 

 2 

 4 

 5 

 6 

 12 

 16 

 17 

 18 

 19 

 20 

 1 

 2 

 4 

 5 

 6 

 12 

 16 

 17 

 18 

 19 

 20 
   77000        2  0.005265146            0         0.08 

 1 

 2 

 4 

 5 

 6 

 12 

 16 

 17 

 18 

 19 

 20 

 1 

 2 

 4 

 5 

 6 

 12 

 16 

 17 

 18 

 19 

 20 

 1 

 2 

 4 

 5 

 6 

 12 

 16 

 17 

 18 

 19 

 20 

 1 

 2 

 4 

 5 

 6 

 12 

 16 

 17 

 18 

 19 

 20 

 1 

 2 

 4 

 5 

 6 

 12 

 16 

 17 

 18 

 19 

 20 

 1 

 2 

 4 

 5 

 6 

 12 

 16 

 17 

 18 

 19 

 20 

 1 

 2 

 4 

 5 

 6 

 12 

 16 

 17 

 18 

 19 

 20 

 1 

 2 

 4 

 5 

 6 

 12 

 16 

 17 

 18 

 19 

 20 

 1 

 2 

 4 

 5 

 6 

 12 

 16 

 17 

 18 

 19 

 20 

 1 

 2 

 4 

 5 

 6 

 12 

 16 

 17 

 18 

 19 

 20 
   78000        2 0.0057373648            0         0.08 

 1 

 2 

 4 

 5 

 6 

 12 

 16 

 17 

 18 

 19 

 20 

 1 

 2 

 4 

 5 

 6 

 12 

 16 

 17 

 18 

 19 

 20 

 1 

 2 

 4 

 5 

 6 

 12 

 16 

 17 

 18 

 19 

 20 

 1 

 2 

 4 

 5 

 6 

 12 

 16 

 17 

 18 

 19 

 20 

 1 

 2 

 4 

 5 

 6 

 12 

 16 

 17 

 18 

 19 

 20 

 1 

 2 

 4 

 5 

 6 

 12 

 16 

 17 

 18 

 19 

 20 

 1 

 2 

 4 

 5 

 6 

 12 

 16 

 17 

 18 

 19 

 20 

 1 

 2 

 4 

 5 

 6 

 12 

 16 

 17 

 18 

 19 

 20 

 1 

 2 

 4 

 5 

 6 

 12 

 16 

 17 

 18 

 19 

 20 

 1 

 2 

 4 

 5 

 6 

 12 

 16 

 17 

 18 

 19 

 20 
   79000        2 0.0062367936            0         0.08 

 1 

 2 

 4 

 5 

 6 

 12 

 16 

 17 

 18 

 19 

 20 

 1 

 2 

 4 

 5 

 6 

 12 

 16 

 17 

 18 

 19 

 20 

 1 

 2 

 4 

 5 

 6 

 12 

 16 

 17 

 18 

 19 

 20 

 1 

 2 

 4 

 5 

 6 

 12 

 16 

 17 

 18 

 19 

 20 

 1 

 2 

 4 

 5 

 6 

 12 

 16 

 17 

 18 

 19 

 20 

 1 

 2 

 4 

 5 

 6 

 12 

 16 

 17 

 18 

 19 

 20 

 1 

 2 

 4 

 5 

 6 

 12 

 16 

 17 

 18 

 19 

 20 

 1 

 2 

 4 

 5 

 6 

 12 

 16 

 17 

 18 

 19 

 20 

 1 

 2 

 4 

 5 

 6 

 12 

 16 

 17 

 18 

 19 

 20 

 1 

 2 

 4 

 5 

 6 

 12 

 16 

 17 

 18 

 19 

 20 
   80000        2 0.0067634326            0         0.08 

 1 

 2 

 4 

 5 

 6 

 12 

 16 

 17 

 18 

 19 

 20 

 1 

 2 

 4 

 5 

 6 

 12 

 16 

 17 

 18 

 19 

 20 

 1 

 2 

 4 

 5 

 6 

 12 

 16 

 17 

 18 

 19 

 20 

 1 

 2 

 4 

 5 

 6 

 12 

 16 

 17 

 18 

 19 

 20 

 1 

 2 

 4 

 5 

 6 

 12 

 16 

 17 

 18 

 19 

 20 

 1 

 2 

 4 

 5 

 6 

 12 

 16 

 17 

 18 

 19 

 20 

 1 

 2 

 4 

 5 

 6 

 12 

 16 

 17 

 18 

 19 

 20 

 1 

 2 

 4 

 5 

 6 

 12 

 16 

 17 

 18 

 19 

 20 

 1 

 2 

 4 

 5 

 6 

 12 

 16 

 17 

 18 

 19 

 20 

 1 

 2 

 4 

 5 

 6 

 12 

 16 

 17 

 18 

 19 

 20 
   81000        2 0.0073172817            0         0.08 

 1 

 2 

 4 

 5 

 6 

 12 

 16 

 17 

 18 

 19 

 20 

 1 

 2 

 4 

 5 

 6 

 12 

 16 

 17 

 18 

 19 

 20 

 1 

 2 

 4 

 5 

 6 

 12 

 16 

 17 

 18 

 19 

 20 

 1 

 2 

 4 

 5 

 6 

 12 

 16 

 17 

 18 

 19 

 20 

 1 

 2 

 4 

 5 

 6 

 12 

 16 

 17 

 18 

 19 

 20 

 1 

 2 

 4 

 5 

 6 

 12 

 16 

 17 

 18 

 19 

 20 

 1 

 2 

 4 

 5 

 6 

 12 

 16 

 17 

 18 

 19 

 20 

 1 

 2 

 4 

 5 

 6 

 12 

 16 

 17 

 18 

 19 

 20 

 1 

 2 

 4 

 5 

 6 

 12 

 16 

 17 

 18 

 19 

 20 

 1 

 2 

 4 

 5 

 6 

 12 

 16 

 17 

 18 

 19 

 20 
   82000        2 0.0078983409            0         0.08 

 1 

 2 

 4 

 5 

 6 

 12 

 16 

 17 

 18 

 19 

 20 

 1 

 2 

 4 

 5 

 6 

 12 

 16 

 17 

 18 

 19 

 20 

 1 

 2 

 4 

 5 

 6 

 12 

 16 

 17 

 18 

 19 

 20 

 1 

 2 

 4 

 5 

 6 

 12 

 16 

 17 

 18 

 19 

 20 

 1 

 2 

 4 

 5 

 6 

 12 

 16 

 17 

 18 

 19 

 20 

 1 

 2 

 4 

 5 

 6 

 12 

 16 

 17 

 18 

 19 

 20 

 1 

 2 

 4 

 5 

 6 

 12 

 16 

 17 

 18 

 19 

 20 

 1 

 2 

 4 

 5 

 6 

 12 

 16 

 17 

 18 

 19 

 20 

 1 

 2 

 4 

 5 

 6 

 12 

 16 

 17 

 18 

 19 

 20 

 1 

 2 

 4 

 5 

 6 

 12 

 16 

 17 

 18 

 19 

 20 
   83000        2 0.0085066102            0         0.08 

 1 

 2 

 4 

 5 

 6 

 12 

 16 

 17 

 18 

 19 

 20 

 1 

 2 

 4 

 5 

 6 

 12 

 16 

 17 

 18 

 19 

 20 

 1 

 2 

 4 

 5 

 6 

 12 

 16 

 17 

 18 

 19 

 20 

 1 

 2 

 4 

 5 

 6 

 12 

 16 

 17 

 18 

 19 

 20 

 1 

 2 

 4 

 5 

 6 

 12 

 16 

 17 

 18 

 19 

 20 

 1 

 2 

 4 

 5 

 6 

 12 

 16 

 17 

 18 

 19 

 20 

 1 

 2 

 4 

 5 

 6 

 12 

 16 

 17 

 18 

 19 

 20 

 1 

 2 

 4 

 5 

 6 

 12 

 16 

 17 

 18 

 19 

 20 

 1 

 2 

 4 

 5 

 6 

 12 

 16 

 17 

 18 

 19 

 20 

 1 

 2 

 4 

 5 

 6 

 12 

 16 

 17 

 18 

 19 

 20 
   84000        2 0.0091420896            0         0.08 

 1 

 2 

 4 

 5 

 6 

 12 

 16 

 17 

 18 

 19 

 20 

 1 

 2 

 4 

 5 

 6 

 12 

 16 

 17 

 18 

 19 

 20 

 1 

 2 

 4 

 5 

 6 

 12 

 16 

 17 

 18 

 19 

 20 

 1 

 2 

 4 

 5 

 6 

 12 

 16 

 17 

 18 

 19 

 20 

 1 

 2 

 4 

 5 

 6 

 12 

 16 

 17 

 18 

 19 

 20 

 1 

 2 

 4 

 5 

 6 

 12 

 16 

 17 

 18 

 19 

 20 

 1 

 2 

 4 

 5 

 6 

 12 

 16 

 17 

 18 

 19 

 20 

 1 

 2 

 4 

 5 

 6 

 12 

 16 

 17 

 18 

 19 

 20 

 1 

 2 

 4 

 5 

 6 

 12 

 16 

 17 

 18 

 19 

 20 

 1 

 2 

 4 

 5 

 6 

 12 

 16 

 17 

 18 

 19 

 20 
   85000        2 0.0098047791            0         0.08 

 1 

 2 

 4 

 5 

 6 

 12 

 16 

 17 

 18 

 19 

 20 

 1 

 2 

 4 

 5 

 6 

 12 

 16 

 17 

 18 

 19 

 20 

 1 

 2 

 4 

 5 

 6 

 12 

 16 

 17 

 18 

 19 

 20 

 1 

 2 

 4 

 5 

 6 

 12 

 16 

 17 

 18 

 19 

 20 

 1 

 2 

 4 

 5 

 6 

 12 

 16 

 17 

 18 

 19 

 20 

 1 

 2 

 4 

 5 

 6 

 12 

 16 

 17 

 18 

 19 

 20 

 1 

 2 

 4 

 5 

 6 

 12 

 16 

 17 

 18 

 19 

 20 

 1 

 2 

 4 

 5 

 6 

 12 

 16 

 17 

 18 

 19 

 20 

 1 

 2 

 4 

 5 

 6 

 12 

 16 

 17 

 18 

 19 

 20 

 1 

 2 

 4 

 5 

 6 

 12 

 16 

 17 

 18 

 19 

 20 
   86000        2  0.010494679            0         0.08 

 1 

 2 

 4 

 5 

 6 

 12 

 16 

 17 

 18 

 19 

 20 

 1 

 2 

 4 

 5 

 6 

 12 

 16 

 17 

 18 

 19 

 20 

 1 

 2 

 4 

 5 

 6 

 12 

 16 

 17 

 18 

 19 

 20 

 1 

 2 

 4 

 5 

 6 

 12 

 16 

 17 

 18 

 19 

 20 

 1 

 2 

 4 

 5 

 6 

 12 

 16 

 17 

 18 

 19 

 20 

 1 

 2 

 4 

 5 

 6 

 12 

 16 

 17 

 18 

 19 

 20 

 1 

 2 

 4 

 5 

 6 

 12 

 16 

 17 

 18 

 19 

 20 

 1 

 2 

 4 

 5 

 6 

 12 

 16 

 17 

 18 

 19 

 20 

 1 

 2 

 4 

 5 

 6 

 12 

 16 

 17 

 18 

 19 

 20 

 1 

 2 

 4 

 5 

 6 

 12 

 16 

 17 

 18 

 19 

 20 
   87000        2  0.011211789            0         0.08 

 1 

 2 

 4 

 5 

 6 

 12 

 16 

 17 

 18 

 19 

 20 

 1 

 2 

 4 

 5 

 6 

 12 

 16 

 17 

 18 

 19 

 20 

 1 

 2 

 4 

 5 

 6 

 12 

 16 

 17 

 18 

 19 

 20 

 1 

 2 

 4 

 5 

 6 

 12 

 16 

 17 

 18 

 19 

 20 

 1 

 2 

 4 

 5 

 6 

 12 

 16 

 17 

 18 

 19 

 20 

 1 

 2 

 4 

 5 

 6 

 12 

 16 

 17 

 18 

 19 

 20 

 1 

 2 

 4 

 5 

 6 

 12 

 16 

 17 

 18 

 19 

 20 

 1 

 2 

 4 

 5 

 6 

 12 

 16 

 17 

 18 

 19 

 20 

 1 

 2 

 4 

 5 

 6 

 12 

 16 

 17 

 18 

 19 

 20 

 1 

 2 

 4 

 5 

 6 

 12 

 16 

 17 

 18 

 19 

 20 
   88000        2  0.011956108            0         0.08 

 1 

 2 

 4 

 5 

 6 

 12 

 16 

 17 

 18 

 19 

 20 

 1 

 2 

 4 

 5 

 6 

 12 

 16 

 17 

 18 

 19 

 20 

 1 

 2 

 4 

 5 

 6 

 12 

 16 

 17 

 18 

 19 

 20 

 1 

 2 

 4 

 5 

 6 

 12 

 16 

 17 

 18 

 19 

 20 

 1 

 2 

 4 

 5 

 6 

 12 

 16 

 17 

 18 

 19 

 20 

 1 

 2 

 4 

 5 

 6 

 12 

 16 

 17 

 18 

 19 

 20 

 1 

 2 

 4 

 5 

 6 

 12 

 16 

 17 

 18 

 19 

 20 

 1 

 2 

 4 

 5 

 6 

 12 

 16 

 17 

 18 

 19 

 20 

 1 

 2 

 4 

 5 

 6 

 12 

 16 

 17 

 18 

 19 

 20 

 1 

 2 

 4 

 5 

 6 

 12 

 16 

 17 

 18 

 19 

 20 
   89000        2  0.012727638            0         0.08 

 1 

 2 

 4 

 5 

 6 

 12 

 16 

 17 

 18 

 19 

 20 

 1 

 2 

 4 

 5 

 6 

 12 

 16 

 17 

 18 

 19 

 20 

 1 

 2 

 4 

 5 

 6 

 12 

 16 

 17 

 18 

 19 

 20 

 1 

 2 

 4 

 5 

 6 

 12 

 16 

 17 

 18 

 19 

 20 

 1 

 2 

 4 

 5 

 6 

 12 

 16 

 17 

 18 

 19 

 20 

 1 

 2 

 4 

 5 

 6 

 12 

 16 

 17 

 18 

 19 

 20 

 1 

 2 

 4 

 5 

 6 

 12 

 16 

 17 

 18 

 19 

 20 

 1 

 2 

 4 

 5 

 6 

 12 

 16 

 17 

 18 

 19 

 20 

 1 

 2 

 4 

 5 

 6 

 12 

 16 

 17 

 18 

 19 

 20 

 1 

 2 

 4 

 5 

 6 

 12 

 16 

 17 

 18 

 19 

 20 
   90000        2  0.013526379            0         0.08 

 1 

 2 

 4 

 5 

 6 

 12 

 16 

 17 

 18 

 19 

 20 

 1 

 2 

 4 

 5 

 6 

 12 

 16 

 17 

 18 

 19 

 20 

 1 

 2 

 4 
n_break_this_local = 2, mass_break_this_local = 0.002827, n_break_this = 2, mass_break_this = 0.002827, n_break = 2, mass_break = 0.002827. 
 

nlocal reduced from 2 (0 particles, mass = 0.000000) to 0 (-2 particles, mass = 0.000000). 
Particle breakage: broke 2 particles (mass 0.002827) at step 90201
 - a total of 2 particles (mass 0.002827) broken so far 
 

 5 

 6 

 12 

 13 

 14 

 15 

 16 

 17 

 23 

 A 

 B 

 B- 

 B-- 

 B--- 

 B---- 

 C 

 D 

 E 

 F 

 B 

 B- 

 B-- 

 B--- 

 B---- 

 C 

 D 

 E 

 F 

 G 

 H 

 I 

 J 

 24 
to be inserted: n = 2 

 25 

 27 

 28 

 29 

 30 
INFO: Particle insertion break: inserted 2 particle templates (mass 0.001154) at step 90201
 - a total of 2 particle templates (mass 0.001154) inserted so far [ nlocal = 20 ].

 31 

 32 

 33 

 1 

 2 

 4 

 5 

 6 

 12 

 16 

 17 

 18 

 19 

 20 

 1 

 2 

 4 

 5 

 6 

 12 

 16 

 17 

 18 

 19 

 20 

 1 

 2 

 4 

 5 

 6 

 12 

 16 

 17 

 18 

 19 

 20 

 1 

 2 

 4 

 5 

 6 

 12 

 16 

 17 

 18 

 19 

 20 

 1 

 2 

 4 

 5 

 6 

 12 

 16 

 17 

 18 

 19 

 20 

 1 

 2 

 4 

 5 

 6 

 12 

 16 

 17 

 18 

 19 

 20 

 1 

 2 

 4 

 5 

 6 

 12 

 16 

 17 

 18 

 19 

 20 
   91000       20 3.5481696e-05 9.0178696e-22         0.08 

 1 

 2 

 4 

 5 

 6 

 12 

 16 

 17 

 18 

 19 

 20 

 1 

 2 

 4 

 5 

 6 

 12 

 16 

 17 

 18 

 19 

 20 

 1 

 2 

 4 

 5 

 6 

 12 

 16 

 17 

 18 

 19 

 20 

 1 

 2 

 4 

 5 

 6 

 12 

 16 

 17 

 18 

 19 

 20 

 1 

 2 

 4 

 5 

 6 

 12 

 16 

 17 

 18 

 19 

 20 

 1 

 2 

 4 

 5 

 6 

 12 

 16 

 17 

 18 

 19 

 20 

 1 

 2 

 4 

 5 

 6 

 12 

 16 

 17 

 18 

 19 

 20 

 1 

 2 

 4 

 5 

 6 

 12 

 16 

 17 

 18 

 19 

 20 

 1 

 2 

 4 

 5 

 6 

 12 

 16 

 17 

 18 

 19 

 20 

 1 

 2 

 4 

 5 

 6 

 12 

 16 

 17 

 18 

 19 

 20 
   92000       20 0.00017975092 6.1906821e-21         0.08 

 1 

 2 

 4 

 5 

 6 

 12 

 16 

 17 

 18 

 19 

 20 

 1 

 2 

 4 

 5 

 6 

 12 

 16 

 17 

 18 

 19 

 20 

 1 

 2 

 4 

 5 

 6 

 12 

 16 

 17 

 18 

 19 

 20 

 1 

 2 

 4 

 5 

 6 

 12 

 16 

 17 

 18 

 19 

 20 

 1 

 2 

 4 

 5 

 6 

 12 

 16 

 17 

 18 

 19 

 20 

 1 

 2 

 4 

 5 

 6 

 12 

 16 

 17 

 18 

 19 

 20 

 1 

 2 

 4 

 5 

 6 

 12 

 16 

 17 

 18 

 19 

 20 

 1 

 2 

 4 

 5 

 6 

 12 

 16 

 17 

 18 

 19 

 20 

 1 

 2 

 4 

 5 

 6 

 12 

 16 

 17 

 18 

 19 

 20 

 1 

 2 

 4 

 5 

 6 

 12 

 16 

 17 

 18 

 19 

 20 
   93000       20 0.00043503918  6.79225e-21         0.08 

 1 

 2 

 4 

 5 

 6 

 12 

 16 

 17 

 18 

 19 

 20 

 1 

 2 

 4 

 5 

 6 

 12 

 16 

 17 

 18 

 19 

 20 

 1 

 2 

 4 

 5 

 6 

 12 

 16 

 17 

 18 

 19 

 20 

 1 

 2 

 4 

 5 

 6 

 12 

 16 

 17 

 18 

 19 

 20 

 1 

 2 

 4 

 5 

 6 

 12 

 16 

 17 

 18 

 19 

 20 

 1 

 2 

 4 

 5 

 6 

 12 

 16 

 17 

 18 

 19 

 20 

 1 

 2 

 4 

 5 

 6 

 12 

 16 

 17 

 18 

 19 

 20 

 1 

 2 

 4 

 5 

 6 

 12 

 16 

 17 

 18 

 19 

 20 

 1 

 2 

 4 

 5 

 6 

 12 

 16 

 17 

 18 

 19 

 20 

 1 

 2 

 4 

 5 

 6 

 12 

 16 

 17 

 18 

 19 

 20 
   94000       20 0.00080134647  6.79225e-21         0.08 

 1 

 2 

 4 

 5 

 6 

 12 

 16 

 17 

 18 

 19 

 20 

 1 

 2 

 4 

 5 

 6 

 12 

 16 

 17 

 18 

 19 

 20 

 1 

 2 

 4 

 5 

 6 

 12 

 16 

 17 

 18 

 19 

 20 

 1 

 2 

 4 

 5 

 6 

 12 

 16 

 17 

 18 

 19 

 20 

 1 

 2 

 4 

 5 

 6 

 12 

 16 

 17 

 18 

 19 

 20 

 1 

 2 

 4 

 5 

 6 

 12 

 16 

 17 

 18 

 19 

 20 

 1 

 2 

 4 

 5 

 6 

 12 

 16 

 17 

 18 

 19 

 20 

 1 

 2 

 4 

 5 

 6 

 12 

 16 

 17 

 18 

 19 

 20 

 1 

 2 

 4 

 5 

 6 

 12 

 16 

 17 

 18 

 19 

 20 

 1 

 2 

 4 

 5 

 6 

 12 

 16 

 17 

 18 

 19 

 20 
   95000       20 0.0012786728  6.79225e-21         0.08 

 1 

 2 

 4 

 5 

 6 

 12 

 16 

 17 

 18 

 19 

 20 

 1 

 2 

 4 

 5 

 6 

 12 

 16 

 17 

 18 

 19 

 20 

 1 

 2 

 4 

 5 

 6 

 12 

 16 

 17 

 18 

 19 

 20 

 1 

 2 

 4 

 5 

 6 

 12 

 16 

 17 

 18 

 19 

 20 

 1 

 2 

 4 

 5 

 6 

 12 

 16 

 17 

 18 

 19 

 20 

 1 

 2 

 4 

 5 

 6 

 12 

 16 

 17 

 18 

 19 

 20 

 1 

 2 

 4 

 5 

 6 

 12 

 16 

 17 

 18 

 19 

 20 

 1 

 2 

 4 

 5 

 6 

 12 

 16 

 17 

 18 

 19 

 20 

 1 

 2 

 4 

 5 

 6 

 12 

 16 

 17 

 18 

 19 

 20 

 1 

 2 

 4 

 5 

 6 

 12 

 16 

 17 

 18 

 19 

 20 
   96000       20 0.0018670181  6.79225e-21         0.08 

 1 

 2 

 4 

 5 

 6 

 12 

 16 

 17 

 18 

 19 

 20 

 1 

 2 

 4 

 5 

 6 

 12 

 16 

 17 

 18 

 19 

 20 

 1 

 2 

 4 

 5 

 6 

 12 

 16 

 17 

 18 

 19 

 20 

 1 

 2 

 4 

 5 

 6 

 12 

 16 

 17 

 18 

 19 

 20 

 1 

 2 

 4 

 5 

 6 

 12 

 16 

 17 

 18 

 19 

 20 

 1 

 2 

 4 

 5 

 6 

 12 

 16 

 17 

 18 

 19 

 20 

 1 

 2 

 4 

 5 

 6 

 12 

 16 

 17 

 18 

 19 

 20 

 1 

 2 

 4 

 5 

 6 

 12 

 16 

 17 

 18 

 19 

 20 

 1 

 2 

 4 

 5 

 6 

 12 

 16 

 17 

 18 

 19 

 20 

 1 

 2 

 4 

 5 

 6 

 12 

 16 

 17 

 18 

 19 

 20 
   97000       20 0.0025663825  6.79225e-21         0.08 

 1 

 2 

 4 

 5 

 6 

 12 

 16 

 17 

 18 

 19 

 20 

 1 

 2 

 4 

 5 

 6 

 12 

 16 

 17 

 18 

 19 

 20 

 1 

 2 

 4 

 5 

 6 

 12 

 16 

 17 

 18 

 19 

 20 

 1 

 2 

 4 

 5 

 6 

 12 

 16 

 17 

 18 

 19 

 20 

 1 

 2 

 4 

 5 

 6 

 12 

 16 

 17 

 18 

 19 

 20 

 1 

 2 

 4 

 5 

 6 

 12 

 16 

 17 

 18 

 19 

 20 

 1 

 2 

 4 

 5 

 6 

 12 

 16 

 17 

 18 

 19 

 20 

 1 

 2 

 4 

 5 

 6 

 12 

 16 

 17 

 18 

 19 

 20 

 1 

 2 

 4 

 5 

 6 

 12 

 16 

 17 

 18 

 19 

 20 

 1 

 2 

 4 

 5 

 6 

 12 

 16 

 17 

 18 

 19 

 20 
   98000       20 0.0033767659  6.79225e-21         0.08 

 1 

 2 

 4 

 5 

 6 

 12 

 16 

 17 

 18 

 19 

 20 

 1 

 2 

 4 

 5 

 6 

 12 

 16 

 17 

 18 

 19 

 20 

 1 

 2 

 4 

 5 

 6 

 12 

 16 

 17 

 18 

 19 

 20 

 1 

 2 

 4 

 5 

 6 

 12 

 16 

 17 

 18 

 19 

 20 

 1 

 2 

 4 

 5 

 6 

 12 

 16 

 17 

 18 

 19 

 20 

 1 

 2 

 4 

 5 

 6 

 12 

 16 

 17 

 18 

 19 

 20 

 1 

 2 

 4 

 5 

 6 

 12 

 16 

 17 

 18 

 19 

 20 

 1 

 2 

 4 

 5 

 6 

 12 

 16 

 17 

 18 

 19 

 20 

 1 

 2 

 4 

 5 

 6 

 12 

 16 

 17 

 18 

 19 

 20 

 1 

 2 

 4 

 5 

 6 

 12 

 16 

 17 

 18 

 19 

 20 
   99000       20 0.0042981684  6.79225e-21         0.08 

 1 

 2 

 4 

 5 

 6 

 12 

 16 

 17 

 18 

 19 

 20 

 1 

 2 

 4 

 5 

 6 

 12 

 16 

 17 

 18 

 19 

 20 

 1 

 2 

 4 

 5 

 6 

 12 

 16 

 17 

 18 

 19 

 20 

 1 

 2 

 4 

 5 

 6 

 12 

 16 

 17 

 18 

 19 

 20 

 1 

 2 

 4 

 5 

 6 

 12 

 16 

 17 

 18 

 19 

 20 

 1 

 2 

 4 

 5 

 6 

 12 

 16 

 17 

 18 

 19 

 20 

 1 

 2 

 4 

 5 

 6 

 12 

 16 

 17 

 18 

 19 

 20 

 1 

 2 

 4 

 5 

 6 

 12 

 16 

 17 

 18 

 19 

 20 

 1 

 2 

 4 

 5 

 6 

 12 

 16 

 17 

 18 

 19 

 20 

 1 

 2 

 4 

 5 

 6 

 12 

 16 

 17 

 18 

 19 

 20 
  100000       20 0.0053305898  6.79225e-21         0.08 

 1 

 2 

 4 

 5 

 6 

 12 

 16 

 17 

 18 

 19 

 20 

 1 

 2 

 4 

 5 

 6 

 12 

 16 

 17 

 18 

 19 

 20 

 1 

 2 

 4 

 5 

 6 

 12 

 16 

 17 

 18 

 19 

 20 

 1 

 2 

 4 

 5 

 6 

 12 

 16 

 17 

 18 

 19 

 20 

 1 

 2 

 4 

 5 

 6 

 12 

 16 

 17 

 18 

 19 

 20 

 1 

 2 

 4 

 5 

 6 

 12 

 16 

 17 

 18 

 19 

 20 

 1 

 2 

 4 

 5 

 6 

 12 

 16 

 17 

 18 

 19 

 20 

 1 

 2 

 4 

 5 

 6 

 12 

 16 

 17 

 18 

 19 

 20 

 1 

 2 

 4 

 5 

 6 

 12 

 16 

 17 

 18 

 19 

 20 

 1 

 2 

 4 

 5 

 6 

 12 

 16 

 17 

 18 

 19 

 20 
  101000       20 0.0064740303  6.79225e-21         0.08 

 1 

 2 

 4 

 5 

 6 

 12 

 16 

 17 

 18 

 19 

 20 

 1 

 2 

 4 

 5 

 6 

 12 

 16 

 17 

 18 

 19 

 20 

 1 

 2 

 4 

 5 

 6 

 12 

 16 

 17 

 18 

 19 

 20 

 1 

 2 

 4 

 5 

 6 

 12 

 16 

 17 

 18 

 19 

 20 

 1 

 2 

 4 

 5 

 6 

 12 

 16 

 17 

 18 

 19 

 20 

 1 

 2 

 4 

 5 

 6 

 12 

 16 

 17 

 18 

 19 

 20 

 1 

 2 

 4 

 5 

 6 

 12 

 16 

 17 

 18 

 19 

 20 

 1 

 2 

 4 

 5 

 6 

 12 

 16 

 17 

 18 

 19 

 20 

 1 

 2 

 4 

 5 

 6 

 12 

 16 

 17 

 18 

 19 

 20 

 1 

 2 

 4 

 5 

 6 

 12 

 16 

 17 

 18 

 19 

 20 
  102000       20 0.0077284899  6.79225e-21         0.08 

 1 

 2 

 4 

 5 

 6 

 12 

 16 

 17 

 18 

 19 

 20 

 1 

 2 

 4 

 5 

 6 

 12 

 16 

 17 

 18 

 19 

 20 

 1 

 2 

 4 

 5 

 6 

 12 

 16 

 17 

 18 

 19 

 20 

 1 

 2 

 4 

 5 

 6 

 12 

 16 

 17 

 18 

 19 

 20 

 1 

 2 

 4 

 5 

 6 

 12 

 16 

 17 

 18 

 19 

 20 

 1 

 2 

 4 

 5 

 6 

 12 

 16 

 17 

 18 

 19 

 20 

 1 

 2 

 4 

 5 

 6 

 12 

 16 

 17 

 18 

 19 

 20 

 1 

 2 

 4 

 5 

 6 

 12 

 16 

 17 

 18 

 19 

 20 

 1 

 2 

 4 

 5 

 6 

 12 

 16 

 17 

 18 

 19 

 20 

 1 

 2 

 4 

 5 

 6 

 12 

 16 

 17 

 18 

 19 

 20 
  103000       20 0.0090939684  6.79225e-21         0.08 

 1 

 2 

 4 

 5 

 6 

 12 

 16 

 17 

 18 

 19 

 20 

 1 

 2 

 4 

 5 

 6 

 12 

 16 

 17 

 18 

 19 

 20 

 1 

 2 

 4 

 5 

 6 

 12 

 16 

 17 

 18 

 19 

 20 

 1 

 2 

 4 

 5 

 6 

 12 

 16 

 17 

 18 

 19 

 20 

 1 

 2 

 4 

 5 

 6 

 12 

 16 

 17 

 18 

 19 

 20 

 1 

 2 

 4 

 5 

 6 

 12 

 16 

 17 

 18 

 19 

 20 

 1 

 2 

 4 

 5 

 6 

 12 

 16 

 17 

 18 

 19 

 20 

 1 

 2 

 4 

 5 

 6 

 12 

 16 

 17 

 18 

 19 

 20 

 1 

 2 

 4 

 5 

 6 

 12 

 16 

 17 

 18 

 19 

 20 

 1 

 2 

 4 

 5 

 6 

 12 

 16 

 17 

 18 

 19 

 20 
  104000       20  0.010570466  6.79225e-21         0.08 

 1 

 2 

 4 

 5 

 6 

 12 

 16 

 17 

 18 

 19 

 20 

 1 

 2 

 4 

 5 

 6 

 12 

 16 

 17 

 18 

 19 

 20 

 1 

 2 

 4 

 5 

 6 

 12 

 16 

 17 

 18 

 19 

 20 

 1 

 2 

 4 

 5 

 6 

 12 

 16 

 17 

 18 

 19 

 20 

 1 

 2 

 4 

 5 

 6 

 12 

 16 

 17 

 18 

 19 

 20 

 1 

 2 

 4 

 5 

 6 

 12 

 16 

 17 

 18 

 19 

 20 

 1 

 2 

 4 

 5 

 6 

 12 

 16 

 17 

 18 

 19 

 20 

 1 

 2 

 4 

 5 

 6 

 12 

 16 

 17 

 18 

 19 

 20 

 1 

 2 

 4 

 5 

 6 

 12 

 16 

 17 

 18 

 19 

 20 

 1 

 2 

 4 

 5 

 6 

 12 

 16 

 17 

 18 

 19 

 20 
  105000       20  0.012157983  6.79225e-21         0.08 

 1 

 2 

 4 

 5 

 6 

 12 

 16 

 17 

 18 

 19 

 20 

 1 

 2 

 4 

 5 

 6 

 12 

 16 

 17 

 18 

 19 

 20 

 1 

 2 

 4 

 5 

 6 

 12 

 16 

 17 

 18 

 19 

 20 

 1 

 2 

 4 

 5 

 6 

 12 

 16 

 17 

 18 

 19 

 20 

 1 

 2 

 4 

 5 

 6 

 12 

 16 

 17 

 18 

 19 

 20 

 1 

 2 

 4 

 5 

 6 

 12 

 16 

 17 

 18 

 19 

 20 

 1 

 2 

 4 

 5 

 6 

 12 

 16 

 17 

 18 

 19 

 20 

 1 

 2 

 4 

 5 

 6 

 12 

 16 

 17 

 18 

 19 

 20 

 1 

 2 

 4 

 5 

 6 

 12 

 16 

 17 

 18 

 19 

 20 

 1 

 2 

 4 

 5 

 6 

 12 

 16 

 17 

 18 

 19 

 20 
  106000       20  0.013856518  6.79225e-21         0.08 

 1 

 2 

 4 

 5 

 6 

 12 

 16 

 17 

 18 

 19 

 20 

 1 

 2 

 4 

 5 

 6 

 12 

 16 

 17 

 18 

 19 

 20 

 1 

 2 

 4 

 5 

 6 

 12 

 16 

 17 

 18 

 19 

 20 

 1 

 2 

 4 

 5 

 6 

 12 

 16 

 17 

 18 

 19 

 20 

 1 

 2 

 4 

 5 

 6 

 12 

 16 

 17 

 18 

 19 

 20 

 1 

 2 

 4 

 5 

 6 

 12 

 16 

 17 

 18 

 19 

 20 

 1 

 2 

 4 

 5 

 6 

 12 

 16 

 17 

 18 

 19 

 20 

 1 

 2 

 4 

 5 

 6 

 12 

 16 

 17 

 18 

 19 

 20 

 1 

 2 

 4 

 5 

 6 

 12 

 16 

 17 

 18 

 19 

 20 

 1 

 2 

 4 

 5 

 6 

 12 

 16 

 17 

 18 

 19 

 20 
  107000       20  0.015666073  6.79225e-21         0.08 

 1 

 2 

 4 

 5 

 6 

 12 

 16 

 17 

 18 

 19 

 20 

 1 

 2 

 4 

 5 

 6 

 12 

 16 

 17 

 18 

 19 

 20 

 1 

 2 

 4 

 5 

 6 

 12 

 16 

 17 

 18 

 19 

 20 

 1 

 2 

 4 

 5 

 6 

 12 

 16 

 17 

 18 

 19 

 20 

 1 

 2 

 4 
n_break_this_local = 6, mass_break_this_local = 0.003461, n_break_this = 6, mass_break_this = 0.003461, n_break = 8, mass_break = 0.006288. 
 

nlocal reduced from 20 (0 particles, mass = 0.000000) to 14 (-6 particles, mass = 0.000000). 
Particle breakage: broke 6 particles (mass 0.003461) at step 107401
 - a total of 8 particles (mass 0.006288) broken so far 
 

 5 

 6 

 12 

 13 

 14 

 15 

 16 

 17 

 23 

 A 

 B 

 B- 

 B-- 

 B--- 

 B---- 

 C 

 D 

 E 

 F 

 B 

 B- 

 B-- 

 B--- 

 B---- 

 C 

 D 

 E 

 F 

 B 

 B- 

 B-- 

 B--- 

 B---- 

 C 

 D 

 E 

 F 

 B 

 B- 

 B-- 

 B--- 

 B---- 

 C 

 D 

 E 

 F 

 B 

 B- 

 B-- 

 B--- 

 B---- 

 C 

 D 

 E 

 F 

 B 

 B- 

 B-- 

 B--- 

 B---- 

 C 

 D 

 E 

 F 

 G 

 H 

 I 

 J 

 24 
to be inserted: n = 6 

 25 

 27 

 28 

 29 

 30 
INFO: Particle insertion break: inserted 6 particle templates (mass 0.000152) at step 107401
 - a total of 8 particle templates (mass 0.001306) inserted so far [ nlocal = 74 ].

 31 

 32 

 33 

 1 

 2 

 4 
n_break_this_local = 1, mass_break_this_local = 0.000025, n_break_this = 1, mass_break_this = 0.000025, n_break = 9, mass_break = 0.006314. 
 

nlocal reduced from 74 (0 particles, mass = 0.000000) to 73 (-1 particles, mass = 0.000000). 
Particle breakage: broke 1 particles (mass 0.000025) at step 107501
 - a total of 9 particles (mass 0.006314) broken so far 
 

 5 

 6 

 12 

 16 

 17 

 23 

 A 

 B 

 B- 

 B-- 

 B--- 

 B---- 

 C 

 D 

 E 

 F 

 G 

 H 

 I 

 J 

 24 
to be inserted: n = 1 

 25 

 27 

 28 

 29 

 30 
INFO: Particle insertion break: inserted 1 particle templates (mass 0.000001) at step 107501
 - a total of 9 particle templates (mass 0.001307) inserted so far [ nlocal = 83 ].

 31 

 32 

 33 

 1 

 2 

 4 
n_break_this_local = 3, mass_break_this_local = 0.001730, n_break_this = 3, mass_break_this = 0.001730, n_break = 12, mass_break = 0.008044. 
 

nlocal reduced from 83 (0 particles, mass = 0.000000) to 80 (-3 particles, mass = 0.000000). 
Particle breakage: broke 3 particles (mass 0.001730) at step 107601
 - a total of 12 particles (mass 0.008044) broken so far 
 

 5 

 6 

 12 

 16 

 17 

 23 

 A 

 B 

 B- 

 B-- 

 B--- 

 B---- 

 C 

 D 

 E 

 F 

 B 

 B- 

 B-- 

 B--- 

 B---- 

 C 

 D 

 E 

 F 

 B 

 B- 

 B-- 

 B--- 

 B---- 

 C 

 D 

 E 

 F 

 G 

 H 

 I 

 J 

 24 
to be inserted: n = 3 

 25 

 27 

 28 

 29 

 30 
INFO: Particle insertion break: inserted 3 particle templates (mass 0.000076) at step 107601
 - a total of 12 particle templates (mass 0.001383) inserted so far [ nlocal = 110 ].

 31 

 32 

 33 

 1 

 2 

 4 

 5 

 6 

 12 

 16 

 17 

 18 

 19 

 20 

 1 

 2 

 4 
n_break_this_local = 2, mass_break_this_local = 0.001154, n_break_this = 2, mass_break_this = 0.001154, n_break = 14, mass_break = 0.009198. 
 

nlocal reduced from 110 (0 particles, mass = 0.000000) to 108 (-2 particles, mass = 0.000000). 
Particle breakage: broke 2 particles (mass 0.001154) at step 107801
 - a total of 14 particles (mass 0.009198) broken so far 
 

 5 

 6 

 12 

 16 

 17 

 23 

 A 

 B 

 B- 

 B-- 

 B--- 

 B---- 

 C 

 D 

 E 

 F 

 B 

 B- 

 B-- 

 B--- 

 B---- 

 C 

 D 

 E 

 F 

 G 

 H 

 I 

 J 

 24 
to be inserted: n = 2 

 25 

 27 

 28 

 29 

 30 
INFO: Particle insertion break: inserted 2 particle templates (mass 0.000051) at step 107801
 - a total of 14 particle templates (mass 0.001434) inserted so far [ nlocal = 128 ].

 31 

 32 

 33 

 1 

 2 

 4 

 5 

 6 

 12 

 16 

 17 

 18 

 19 

 20 
  108000      127 0.0036045969 0.00070846258         0.08 

 1 

 2 

 4 
n_break_this_local = 2, mass_break_this_local = 0.001154, n_break_this = 2, mass_break_this = 0.001154, n_break = 16, mass_break = 0.010351. 
 

nlocal reduced from 127 (0 particles, mass = 0.000000) to 125 (-2 particles, mass = 0.000000). 
Particle breakage: broke 2 particles (mass 0.001154) at step 108001
 - a total of 16 particles (mass 0.010351) broken so far 
 

 5 

 6 

 12 

 16 

 17 

 23 

 A 

 B 

 B- 

 B-- 

 B--- 

 B---- 

 C 

 D 

 E 

 F 

 B 

 B- 

 B-- 

 B--- 

 B---- 

 C 

 D 

 E 

 F 

 G 

 H 

 I 

 J 

 24 
to be inserted: n = 2 

 25 

 27 

 28 

 29 

 30 
INFO: Particle insertion break: inserted 2 particle templates (mass 0.000051) at step 108001
 - a total of 16 particle templates (mass 0.001485) inserted so far [ nlocal = 145 ].

 31 

 32 

 33 

 1 

 2 

 4 

 5 

 6 

 12 

 16 

 17 

 18 

 19 

 20 

 1 

 2 

 4 

 5 

 6 

 12 

 16 

 17 

 18 

 19 

 20 

 1 

 2 

 4 

 5 

 6 

 12 

 16 

 17 

 18 

 19 

 20 

 1 

 2 

 4 

 5 

 6 

 12 

 16 

 17 

 18 

 19 

 20 

 1 

 2 

 4 

 5 

 6 

 12 

 16 

 17 

 18 

 19 

 20 

 1 

 2 

 4 

 5 

 6 

 12 

 16 

 17 

 18 

 19 

 20 

 1 

 2 

 4 

 5 

 6 

 12 

 16 

 17 

 18 

 19 

 20 

 1 

 2 

 4 

 5 

 6 

 12 

 16 

 17 

 18 

 19 

 20 

 1 

 2 

 4 

 5 

 6 

 12 

 16 

 17 

 18 

 19 

 20 
  109000      145 0.0019640051 0.00072412716         0.08 

 1 

 2 

 4 

 5 

 6 

 12 

 16 

 17 

 18 

 19 

 20 

 1 

 2 

 4 

 5 

 6 

 12 

 16 

 17 

 18 

 19 

 20 

 1 

 2 

 4 

 5 

 6 

 12 

 16 

 17 

 18 

 19 

 20 

 1 

 2 

 4 

 5 

 6 

 12 

 16 

 17 

 18 

 19 

 20 

 1 

 2 

 4 

 5 

 6 

 12 

 16 

 17 

 18 

 19 

 20 

 1 

 2 

 4 

 5 

 6 

 12 

 16 

 17 

 18 

 19 

 20 

 1 

 2 

 4 

 5 

 6 

 12 

 16 

 17 

 18 

 19 

 20 

 1 

 2 

 4 

 5 

 6 

 12 

 16 

 17 

 18 

 19 

 20 

 1 

 2 

 4 

 5 

 6 

 12 

 16 

 17 

 18 

 19 

 20 

 1 

 2 

 4 

 5 

 6 

 12 

 16 

 17 

 18 

 19 

 20 
  110000      145  0.001818375 0.00070333513         0.08 

 1 

 2 

 4 

 5 

 6 

 12 

 16 

 17 

 18 

 19 

 20 

 1 

 2 

 4 

 5 

 6 

 12 

 16 

 17 

 18 

 19 

 20 

 1 

 2 

 4 

 5 

 6 

 12 

 16 

 17 

 18 

 19 

 20 

 1 

 2 

 4 

 5 

 6 

 12 

 16 

 17 

 18 

 19 

 20 

 1 

 2 

 4 

 5 

 6 

 12 

 16 

 17 

 18 

 19 

 20 

 1 

 2 

 4 

 5 

 6 

 12 

 16 

 17 

 18 

 19 

 20 

 1 

 2 

 4 

 5 

 6 

 12 

 16 

 17 

 18 

 19 

 20 

 1 

 2 

 4 

 5 

 6 

 12 

 16 

 17 

 18 

 19 

 20 

 1 

 2 

 4 

 5 

 6 

 12 

 16 

 17 

 18 

 19 

 20 

 1 

 2 

 4 

 5 

 6 

 12 

 16 

 17 

 18 

 19 

 20 
  111000      145 0.0017228419 0.00069007207         0.08 

 1 

 2 

 4 

 5 

 6 

 12 

 16 

 17 

 18 

 19 

 20 

 1 

 2 

 4 

 5 

 6 

 12 

 16 

 17 

 18 

 19 

 20 

 1 

 2 

 4 

 5 

 6 

 12 

 16 

 17 

 18 

 19 

 20 

 1 

 2 

 4 

 5 

 6 

 12 

 16 

 17 

 18 

 19 

 20 

 1 

 2 

 4 

 5 

 6 

 12 

 16 

 17 

 18 

 19 

 20 

 1 

 2 

 4 

 5 

 6 

 12 

 16 

 17 

 18 

 19 

 20 

 1 

 2 

 4 

 5 

 6 

 12 

 16 

 17 

 18 

 19 

 20 

 1 

 2 

 4 

 5 

 6 

 12 

 16 

 17 

 18 

 19 

 20 

 1 

 2 

 4 

 5 

 6 

 12 

 16 

 17 

 18 

 19 

 20 

 1 

 2 

 4 

 5 

 6 

 12 

 16 

 17 

 18 

 19 

 20 
  112000      145 0.0016583636 0.0006731882         0.08 

 1 

 2 

 4 

 5 

 6 

 12 

 16 

 17 

 18 

 19 

 20 

 1 

 2 

 4 

 5 

 6 

 12 

 16 

 17 

 18 

 19 

 20 

 1 

 2 

 4 

 5 

 6 

 12 

 16 

 17 

 18 

 19 

 20 

 1 

 2 

 4 

 5 

 6 

 12 

 16 

 17 

 18 

 19 

 20 

 1 

 2 

 4 

 5 

 6 

 12 

 16 

 17 

 18 

 19 

 20 

 1 

 2 

 4 

 5 

 6 

 12 

 16 

 17 

 18 

 19 

 20 

 1 

 2 

 4 

 5 

 6 

 12 

 16 

 17 

 18 

 19 

 20 

 1 

 2 

 4 

 5 

 6 

 12 

 16 

 17 

 18 

 19 

 20 

 1 

 2 

 4 

 5 

 6 

 12 

 16 

 17 

 18 

 19 

 20 

 1 

 2 

 4 

 5 

 6 

 12 

 16 

 17 

 18 

 19 

 20 
  113000      145 0.0015965974 0.00064305992         0.08 

 1 

 2 

 4 

 5 

 6 

 12 

 16 

 17 

 18 

 19 

 20 

 1 

 2 

 4 

 5 

 6 

 12 

 16 

 17 

 18 

 19 

 20 

 1 

 2 

 4 

 5 

 6 

 12 

 16 

 17 

 18 

 19 

 20 

 1 

 2 

 4 

 5 

 6 

 12 

 16 

 17 

 18 

 19 

 20 

 1 

 2 

 4 

 5 

 6 

 12 

 16 

 17 

 18 

 19 

 20 

 1 

 2 

 4 

 5 

 6 

 12 

 16 

 17 

 18 

 19 

 20 

 1 

 2 

 4 

 5 

 6 

 12 

 16 

 17 

 18 

 19 

 20 

 1 

 2 

 4 

 5 

 6 

 12 

 16 

 17 

 18 

 19 

 20 

 1 

 2 

 4 

 5 

 6 

 12 

 16 

 17 

 18 

 19 

 20 

 1 

 2 

 4 

 5 

 6 

 12 

 16 

 17 

 18 

 19 

 20 
  114000      145  0.001559452 0.00062268116         0.08 

 1 

 2 

 4 

 5 

 6 

 12 

 16 

 17 

 18 

 19 

 20 

 1 

 2 

 4 

 5 

 6 

 12 

 16 

 17 

 18 

 19 

 20 

 1 

 2 

 4 

 5 

 6 

 12 

 16 

 17 

 18 

 19 

 20 

 1 

 2 

 4 

 5 

 6 

 12 

 16 

 17 

 18 

 19 

 20 

 1 

 2 

 4 

 5 

 6 

 12 

 16 

 17 

 18 

 19 

 20 

 1 

 2 

 4 

 5 

 6 

 12 

 16 

 17 

 18 

 19 

 20 

 1 

 2 

 4 

 5 

 6 

 12 

 16 

 17 

 18 

 19 

 20 

 1 

 2 

 4 

 5 

 6 

 12 

 16 

 17 

 18 

 19 

 20 

 1 

 2 

 4 

 5 

 6 

 12 

 16 

 17 

 18 

 19 

 20 

 1 

 2 

 4 

 5 

 6 

 12 

 16 

 17 

 18 

 19 

 20 
  115000      145 0.0015139932 0.0005771175         0.08 

 1 

 2 

 4 

 5 

 6 

 12 

 16 

 17 

 18 

 19 

 20 

 1 

 2 

 4 

 5 

 6 

 12 

 16 

 17 

 18 

 19 

 20 

 1 

 2 

 4 

 5 

 6 

 12 

 16 

 17 

 18 

 19 

 20 

 1 

 2 

 4 

 5 

 6 

 12 

 16 

 17 

 18 

 19 

 20 

 1 

 2 

 4 

 5 

 6 

 12 

 16 

 17 

 18 

 19 

 20 

 1 

 2 

 4 

 5 

 6 

 12 

 16 

 17 

 18 

 19 

 20 

 1 

 2 

 4 

 5 

 6 

 12 

 16 

 17 

 18 

 19 

 20 

 1 

 2 

 4 

 5 

 6 

 12 

 16 

 17 

 18 

 19 

 20 

 1 

 2 

 4 

 5 

 6 

 12 

 16 

 17 

 18 

 19 

 20 

 1 

 2 

 4 

 5 

 6 

 12 

 16 

 17 

 18 

 19 

 20 
  116000      145 0.0014030377 0.00053923291         0.08 

 1 

 2 

 4 

 5 

 6 

 12 

 16 

 17 

 18 

 19 

 20 

 1 

 2 

 4 

 5 

 6 

 12 

 16 

 17 

 18 

 19 

 20 

 1 

 2 

 4 

 5 

 6 

 12 

 16 

 17 

 18 

 19 

 20 

 1 

 2 

 4 

 5 

 6 

 12 

 16 

 17 

 18 

 19 

 20 

 1 

 2 

 4 

 5 

 6 

 12 

 16 

 17 

 18 

 19 

 20 

 1 

 2 

 4 

 5 

 6 

 12 

 16 

 17 

 18 

 19 

 20 

 1 

 2 

 4 

 5 

 6 

 12 

 16 

 17 

 18 

 19 

 20 

 1 

 2 

 4 

 5 

 6 

 12 

 16 

 17 

 18 

 19 

 20 

 1 

 2 

 4 

 5 

 6 

 12 

 16 

 17 

 18 

 19 

 20 

 1 

 2 

 4 

 5 

 6 

 12 

 16 

 17 

 18 

 19 

 20 
  117000      145 0.0013573663 0.00050376004         0.08 

 1 

 2 

 4 

 5 

 6 

 12 

 16 

 17 

 18 

 19 

 20 

 1 

 2 

 4 

 5 

 6 

 12 

 16 

 17 

 18 

 19 

 20 

 1 

 2 

 4 

 5 

 6 

 12 

 16 

 17 

 18 

 19 

 20 

 1 

 2 

 4 

 5 

 6 

 12 

 16 

 17 

 18 

 19 

 20 

 1 

 2 

 4 

 5 

 6 

 12 

 16 

 17 

 18 

 19 

 20 

 1 

 2 

 4 

 5 

 6 

 12 

 16 

 17 

 18 

 19 

 20 

 1 

 2 

 4 

 5 

 6 

 12 

 16 

 17 

 18 

 19 

 20 

 1 

 2 

 4 

 5 

 6 

 12 

 16 

 17 

 18 

 19 

 20 

 1 

 2 

 4 

 5 

 6 

 12 

 16 

 17 

 18 

 19 

 20 

 1 

 2 

 4 

 5 

 6 

 12 

 16 

 17 

 18 

 19 

 20 
  118000      145 0.0013205228 0.00048790498         0.08 

 1 

 2 

 4 

 5 

 6 

 12 

 16 

 17 

 18 

 19 

 20 

 1 

 2 

 4 

 5 

 6 

 12 

 16 

 17 

 18 

 19 

 20 

 1 

 2 

 4 

 5 

 6 

 12 

 16 

 17 

 18 

 19 

 20 

 1 

 2 

 4 

 5 

 6 

 12 

 16 

 17 

 18 

 19 

 20 

 1 

 2 

 4 

 5 

 6 

 12 

 16 

 17 

 18 

 19 

 20 

 1 

 2 

 4 

 5 

 6 

 12 

 16 

 17 

 18 

 19 

 20 

 1 

 2 

 4 

 5 

 6 

 12 

 16 

 17 

 18 

 19 

 20 

 1 

 2 

 4 

 5 

 6 

 12 

 16 

 17 

 18 

 19 

 20 

 1 

 2 

 4 

 5 

 6 

 12 

 16 

 17 

 18 

 19 

 20 

 1 

 2 

 4 

 5 

 6 

 12 

 16 

 17 

 18 

 19 

 20 
  119000      145 0.0013004165 0.00046808431         0.08 

 1 

 2 

 4 

 5 

 6 

 12 

 16 

 17 

 18 

 19 

 20 

 1 

 2 

 4 

 5 

 6 

 12 

 16 

 17 

 18 

 19 

 20 

 1 

 2 

 4 

 5 

 6 

 12 

 16 

 17 

 18 

 19 

 20 

 1 

 2 

 4 

 5 

 6 

 12 

 16 

 17 

 18 

 19 

 20 

 1 

 2 

 4 

 5 

 6 

 12 

 16 

 17 

 18 

 19 

 20 

 1 

 2 

 4 

 5 

 6 

 12 

 16 

 17 

 18 

 19 

 20 

 1 

 2 

 4 

 5 

 6 

 12 

 16 

 17 

 18 

 19 

 20 

 1 

 2 

 4 

 5 

 6 

 12 

 16 

 17 

 18 

 19 

 20 

 1 

 2 

 4 

 5 

 6 

 12 

 16 

 17 

 18 

 19 

 20 

 1 

 2 

 4 

 5 

 6 

 12 

 16 

 17 

 18 

 19 

 20 
  120000      145 0.0012088551 0.00045185393         0.08 

 1 

 2 

 4 

 5 

 6 

 12 

 16 

 17 

 18 

 19 

 20 

 1 

 2 

 4 

 5 

 6 

 12 

 16 

 17 

 18 

 19 

 20 

 1 

 2 

 4 

 5 

 6 

 12 

 16 

 17 

 18 

 19 

 20 

 1 

 2 

 4 

 5 

 6 

 12 

 16 

 17 

 18 

 19 

 20 

 1 

 2 

 4 

 5 

 6 

 12 

 16 

 17 

 18 

 19 

 20 

 1 

 2 

 4 

 5 

 6 

 12 

 16 

 17 

 18 

 19 

 20 

 1 

 2 

 4 

 5 

 6 

 12 

 16 

 17 

 18 

 19 

 20 

 1 

 2 

 4 

 5 

 6 

 12 

 16 

 17 

 18 

 19 

 20 

 1 

 2 

 4 

 5 

 6 

 12 

 16 

 17 

 18 

 19 

 20 

 1 

 2 

 4 

 5 

 6 

 12 

 16 

 17 

 18 

 19 

 20 
  121000      145 0.0011855346 0.00044928035         0.08 

 1 

 2 

 4 

 5 

 6 

 12 

 16 

 17 

 18 

 19 

 20 

 1 

 2 

 4 

 5 

 6 

 12 

 16 

 17 

 18 

 19 

 20 

 1 

 2 

 4 

 5 

 6 

 12 

 16 

 17 

 18 

 19 

 20 

 1 

 2 

 4 

 5 

 6 

 12 

 16 

 17 

 18 

 19 

 20 

 1 

 2 

 4 

 5 

 6 

 12 

 16 

 17 

 18 

 19 

 20 

 1 

 2 

 4 

 5 

 6 

 12 

 16 

 17 

 18 

 19 

 20 

 1 

 2 

 4 

 5 

 6 

 12 

 16 

 17 

 18 

 19 

 20 

 1 

 2 

 4 

 5 

 6 

 12 

 16 

 17 

 18 

 19 

 20 

 1 

 2 

 4 

 5 

 6 

 12 

 16 

 17 

 18 

 19 

 20 

 1 

 2 

 4 

 5 

 6 

 12 

 16 

 17 

 18 

 19 

 20 
  122000      145 0.0010960027 0.0003945072         0.08 

 1 

 2 

 4 

 5 

 6 

 12 

 16 

 17 

 18 

 19 

 20 

 1 

 2 

 4 

 5 

 6 

 12 

 16 

 17 

 18 

 19 

 20 

 1 

 2 

 4 

 5 

 6 

 12 

 16 

 17 

 18 

 19 

 20 

 1 

 2 

 4 

 5 

 6 

 12 

 16 

 17 

 18 

 19 

 20 

 1 

 2 

 4 

 5 

 6 

 12 

 16 

 17 

 18 

 19 

 20 

 1 

 2 

 4 

 5 

 6 

 12 

 16 

 17 

 18 

 19 

 20 

 1 

 2 

 4 

 5 

 6 

 12 

 16 

 17 

 18 

 19 

 20 

 1 

 2 

 4 

 5 

 6 

 12 

 16 

 17 

 18 

 19 

 20 

 1 

 2 

 4 

 5 

 6 

 12 

 16 

 17 

 18 

 19 

 20 

 1 

 2 

 4 

 5 

 6 

 12 

 16 

 17 

 18 

 19 

 20 
  123000      145 0.0011040864 0.0003965416         0.08 

 1 

 2 

 4 

 5 

 6 

 12 

 16 

 17 

 18 

 19 

 20 

 1 

 2 

 4 

 5 

 6 

 12 

 16 

 17 

 18 

 19 

 20 

 1 

 2 

 4 

 5 

 6 

 12 

 16 

 17 

 18 

 19 

 20 

 1 

 2 

 4 

 5 

 6 

 12 

 16 

 17 

 18 

 19 

 20 

 1 

 2 

 4 

 5 

 6 

 12 

 16 

 17 

 18 

 19 

 20 

 1 

 2 

 4 

 5 

 6 

 12 

 16 

 17 

 18 

 19 

 20 

 1 

 2 

 4 

 5 

 6 

 12 

 16 

 17 

 18 

 19 

 20 

 1 

 2 

 4 

 5 

 6 

 12 

 16 

 17 

 18 

 19 

 20 

 1 

 2 

 4 

 5 

 6 

 12 

 16 

 17 

 18 

 19 

 20 

 1 

 2 

 4 

 5 

 6 

 12 

 16 

 17 

 18 

 19 

 20 
  124000      145 0.00077868138 0.00032812496         0.08 

 1 

 2 

 4 

 5 

 6 

 12 

 16 

 17 

 18 

 19 

 20 

 1 

 2 

 4 

 5 

 6 

 12 

 16 

 17 

 18 

 19 

 20 

 1 

 2 

 4 

 5 

 6 

 12 

 16 

 17 

 18 

 19 

 20 

 1 

 2 

 4 

 5 

 6 

 12 

 16 

 17 

 18 

 19 

 20 

 1 

 2 

 4 

 5 

 6 

 12 

 16 

 17 

 18 

 19 

 20 

 1 

 2 

 4 

 5 

 6 

 12 

 16 

 17 

 18 

 19 

 20 

 1 

 2 

 4 

 5 

 6 

 12 

 16 

 17 

 18 

 19 

 20 

 1 

 2 

 4 

 5 

 6 

 12 

 16 

 17 

 18 

 19 

 20 

 1 

 2 

 4 

 5 

 6 

 12 

 16 

 17 

 18 

 19 

 20 

 1 

 2 

 4 

 5 

 6 

 12 

 16 

 17 

 18 

 19 

 20 
  125000      145 0.00070072168 0.00031971196         0.08 

 1 

 2 

 4 

 5 

 6 

 12 

 16 

 17 

 18 

 19 

 20 

 1 

 2 

 4 

 5 

 6 

 12 

 16 

 17 

 18 

 19 

 20 

 1 

 2 

 4 

 5 

 6 

 12 

 16 

 17 

 18 

 19 

 20 

 1 

 2 

 4 

 5 

 6 

 12 

 16 

 17 

 18 

 19 

 20 

 1 

 2 

 4 

 5 

 6 

 12 

 16 

 17 

 18 

 19 

 20 

 1 

 2 

 4 

 5 

 6 

 12 

 16 

 17 

 18 

 19 

 20 

 1 

 2 

 4 

 5 

 6 

 12 

 16 

 17 

 18 

 19 

 20 

 1 

 2 

 4 

 5 

 6 

 12 

 16 

 17 

 18 

 19 

 20 

 1 

 2 

 4 

 5 

 6 

 12 

 16 

 17 

 18 

 19 

 20 

 1 

 2 

 4 

 5 

 6 

 12 

 16 

 17 

 18 

 19 

 20 
  126000      145 0.00059961034 0.00028129082         0.08 

 1 

 2 

 4 

 5 

 6 

 12 

 16 

 17 

 18 

 19 

 20 

 1 

 2 

 4 

 5 

 6 

 12 

 16 

 17 

 18 

 19 

 20 

 1 

 2 

 4 

 5 

 6 

 12 

 16 

 17 

 18 

 19 

 20 

 1 

 2 

 4 

 5 

 6 

 12 

 16 

 17 

 18 

 19 

 20 

 1 

 2 

 4 

 5 

 6 

 12 

 16 

 17 

 18 

 19 

 20 

 1 

 2 

 4 

 5 

 6 

 12 

 16 

 17 

 18 

 19 

 20 

 1 

 2 

 4 

 5 

 6 

 12 

 16 

 17 

 18 

 19 

 20 

 1 

 2 

 4 

 5 

 6 

 12 

 16 

 17 

 18 

 19 

 20 

 1 

 2 

 4 

 5 

 6 

 12 

 16 

 17 

 18 

 19 

 20 

 1 

 2 

 4 

 5 

 6 

 12 

 16 

 17 

 18 

 19 

 20 
  127000      145 0.00051210259 0.00026768932         0.08 

 1 

 2 

 4 

 5 

 6 

 12 

 16 

 17 

 18 

 19 

 20 

 1 

 2 

 4 

 5 

 6 

 12 

 16 

 17 

 18 

 19 

 20 

 1 

 2 

 4 

 5 

 6 

 12 

 16 

 17 

 18 

 19 

 20 

 1 

 2 

 4 

 5 

 6 

 12 

 16 

 17 

 18 

 19 

 20 

 1 

 2 

 4 

 5 

 6 

 12 

 16 

 17 

 18 

 19 

 20 

 1 

 2 

 4 

 5 

 6 

 12 

 16 

 17 

 18 

 19 

 20 

 1 

 2 

 4 

 5 

 6 

 12 

 16 

 17 

 18 

 19 

 20 

 1 

 2 

 4 

 5 

 6 

 12 

 16 

 17 

 18 

 19 

 20 

 1 

 2 

 4 

 5 

 6 

 12 

 16 

 17 

 18 

 19 

 20 

 1 

 2 

 4 

 5 

 6 

 12 

 16 

 17 

 18 

 19 

 20 
  128000      145 0.00048308163 0.00026309344         0.08 

 1 

 2 

 4 

 5 

 6 

 12 

 16 

 17 

 18 

 19 

 20 

 1 

 2 

 4 

 5 

 6 

 12 

 16 

 17 

 18 

 19 

 20 

 1 

 2 

 4 

 5 

 6 

 12 

 16 

 17 

 18 

 19 

 20 

 1 

 2 

 4 

 5 

 6 

 12 

 16 

 17 

 18 

 19 

 20 

 1 

 2 

 4 

 5 

 6 

 12 

 16 

 17 

 18 

 19 

 20 

 1 

 2 

 4 

 5 

 6 

 12 

 16 

 17 

 18 

 19 

 20 

 1 

 2 

 4 

 5 

 6 

 12 

 16 

 17 

 18 

 19 

 20 

 1 

 2 

 4 

 5 

 6 

 12 

 16 

 17 

 18 

 19 

 20 

 1 

 2 

 4 

 5 

 6 

 12 

 16 

 17 

 18 

 19 

 20 

 1 

 2 

 4 

 5 

 6 

 12 

 16 

 17 

 18 

 19 

 20 
  129000      145 0.00045216682 0.00022436378         0.08 

 1 

 2 

 4 

 5 

 6 

 12 

 16 

 17 

 18 

 19 

 20 

 1 

 2 

 4 

 5 

 6 

 12 

 16 

 17 

 18 

 19 

 20 

 1 

 2 

 4 

 5 

 6 

 12 

 16 

 17 

 18 

 19 

 20 

 1 

 2 

 4 

 5 

 6 

 12 

 16 

 17 

 18 

 19 

 20 

 1 

 2 

 4 

 5 

 6 

 12 

 16 

 17 

 18 

 19 

 20 

 1 

 2 

 4 

 5 

 6 

 12 

 16 

 17 

 18 

 19 

 20 

 1 

 2 

 4 

 5 

 6 

 12 

 16 

 17 

 18 

 19 

 20 

 1 

 2 

 4 

 5 

 6 

 12 

 16 

 17 

 18 

 19 

 20 

 1 

 2 

 4 

 5 

 6 

 12 

 16 

 17 

 18 

 19 

 20 

 1 

 2 

 4 

 5 

 6 

 12 

 16 

 17 

 18 

 19 

 20 
  130000      145 0.00041239266 0.0002173024         0.08 

 1 

 2 

 4 

 5 

 6 

 12 

 16 

 17 

 18 

 19 

 20 

 1 

 2 

 4 

 5 

 6 

 12 

 16 

 17 

 18 

 19 

 20 

 1 

 2 

 4 

 5 

 6 

 12 

 16 

 17 

 18 

 19 

 20 

 1 

 2 

 4 

 5 

 6 

 12 

 16 

 17 

 18 

 19 

 20 

 1 

 2 

 4 

 5 

 6 

 12 

 16 

 17 

 18 

 19 

 20 

 1 

 2 

 4 

 5 

 6 

 12 

 16 

 17 

 18 

 19 

 20 

 1 

 2 

 4 

 5 

 6 

 12 

 16 

 17 

 18 

 19 

 20 

 1 

 2 

 4 

 5 

 6 

 12 

 16 

 17 

 18 

 19 

 20 

 1 

 2 

 4 

 5 

 6 

 12 

 16 

 17 

 18 

 19 

 20 

 1 

 2 

 4 

 5 

 6 

 12 

 16 

 17 

 18 

 19 

 20 
  131000      145 0.00041221303 0.00021510691         0.08 

 1 

 2 

 4 

 5 

 6 

 12 

 16 

 17 

 18 

 19 

 20 

 1 

 2 

 4 

 5 

 6 

 12 

 16 

 17 

 18 

 19 

 20 

 1 

 2 

 4 

 5 

 6 

 12 

 16 

 17 

 18 

 19 

 20 

 1 

 2 

 4 

 5 

 6 

 12 

 16 

 17 

 18 

 19 

 20 

 1 

 2 

 4 

 5 

 6 

 12 

 16 

 17 

 18 

 19 

 20 

 1 

 2 

 4 

 5 

 6 

 12 

 16 

 17 

 18 

 19 

 20 

 1 

 2 

 4 

 5 

 6 

 12 

 16 

 17 

 18 

 19 

 20 

 1 

 2 

 4 

 5 

 6 

 12 

 16 

 17 

 18 

 19 

 20 

 1 

 2 

 4 

 5 

 6 

 12 

 16 

 17 

 18 

 19 

 20 

 1 

 2 

 4 

 5 

 6 

 12 

 16 

 17 

 18 

 19 

 20 
  132000      145 0.00042128338 0.00021115258         0.08 

 1 

 2 

 4 

 5 

 6 

 12 

 16 

 17 

 18 

 19 

 20 

 1 

 2 

 4 

 5 

 6 

 12 

 16 

 17 

 18 

 19 

 20 

 1 

 2 

 4 

 5 

 6 

 12 

 16 

 17 

 18 

 19 

 20 

 1 

 2 

 4 

 5 

 6 

 12 

 16 

 17 

 18 

 19 

 20 

 1 

 2 

 4 

 5 

 6 

 12 

 16 

 17 

 18 

 19 

 20 

 1 

 2 

 4 

 5 

 6 

 12 

 16 

 17 

 18 

 19 

 20 

 1 

 2 

 4 

 5 

 6 

 12 

 16 

 17 

 18 

 19 

 20 

 1 

 2 

 4 

 5 

 6 

 12 

 16 

 17 

 18 

 19 

 20 

 1 

 2 

 4 

 5 

 6 

 12 

 16 

 17 

 18 

 19 

 20 

 1 

 2 

 4 

 5 

 6 

 12 

 16 

 17 

 18 

 19 

 20 
  133000      145 0.0004276679 0.00021013861         0.08 

 1 

 2 

 4 

 5 

 6 

 12 

 16 

 17 

 18 

 19 

 20 

 1 

 2 

 4 

 5 

 6 

 12 

 16 

 17 

 18 

 19 

 20 

 1 

 2 

 4 

 5 

 6 

 12 

 16 

 17 

 18 

 19 

 20 

 1 

 2 

 4 

 5 

 6 

 12 

 16 

 17 

 18 

 19 

 20 

 1 

 2 

 4 

 5 

 6 

 12 

 16 

 17 

 18 

 19 

 20 

 1 

 2 

 4 

 5 

 6 

 12 

 16 

 17 

 18 

 19 

 20 

 1 

 2 

 4 

 5 

 6 

 12 

 16 

 17 

 18 

 19 

 20 

 1 

 2 

 4 

 5 

 6 

 12 

 16 

 17 

 18 

 19 

 20 

 1 

 2 

 4 

 5 

 6 

 12 

 16 

 17 

 18 

 19 

 20 

 1 

 2 

 4 

 5 

 6 

 12 

 16 

 17 

 18 

 19 

 20 
  134000      145 0.00043344478 0.0002109761         0.08 

 1 

 2 

 4 

 5 

 6 

 12 

 16 

 17 

 18 

 19 

 20 

 1 

 2 

 4 

 5 

 6 

 12 

 16 

 17 

 18 

 19 

 20 

 1 

 2 

 4 

 5 

 6 

 12 

 16 

 17 

 18 

 19 

 20 

 1 

 2 

 4 

 5 

 6 

 12 

 16 

 17 

 18 

 19 

 20 

 1 

 2 

 4 

 5 

 6 

 12 

 16 

 17 

 18 

 19 

 20 

 1 

 2 

 4 

 5 

 6 

 12 

 16 

 17 

 18 

 19 

 20 

 1 

 2 

 4 

 5 

 6 

 12 

 16 

 17 

 18 

 19 

 20 

 1 

 2 

 4 

 5 

 6 

 12 

 16 

 17 

 18 

 19 

 20 

 1 

 2 

 4 

 5 

 6 

 12 

 16 

 17 

 18 

 19 

 20 

 1 

 2 

 4 

 5 

 6 

 12 

 16 

 17 

 18 

 19 

 20 
  135000      145 0.00035306609 0.0001980135         0.08 

 1 

 2 

 4 

 5 

 6 

 12 

 16 

 17 

 18 

 19 

 20 

 1 

 2 

 4 

 5 

 6 

 12 

 16 

 17 

 18 

 19 

 20 

 1 

 2 

 4 

 5 

 6 

 12 

 16 

 17 

 18 

 19 

 20 

 1 

 2 

 4 

 5 

 6 

 12 

 16 

 17 

 18 

 19 

 20 

 1 

 2 

 4 

 5 

 6 

 12 

 16 

 17 

 18 

 19 

 20 

 1 

 2 

 4 

 5 

 6 

 12 

 16 

 17 

 18 

 19 

 20 

 1 

 2 

 4 

 5 

 6 

 12 

 16 

 17 

 18 

 19 

 20 

 1 

 2 

 4 

 5 

 6 

 12 

 16 

 17 

 18 

 19 

 20 

 1 

 2 

 4 

 5 

 6 

 12 

 16 

 17 

 18 

 19 

 20 

 1 

 2 

 4 

 5 

 6 

 12 

 16 

 17 

 18 

 19 

 20 
  136000      145 0.00032910728 0.00019213703         0.08 

 1 

 2 

 4 

 5 

 6 

 12 

 16 

 17 

 18 

 19 

 20 

 1 

 2 

 4 

 5 

 6 

 12 

 16 

 17 

 18 

 19 

 20 

 1 

 2 

 4 

 5 

 6 

 12 

 16 

 17 

 18 

 19 

 20 

 1 

 2 

 4 

 5 

 6 

 12 

 16 

 17 

 18 

 19 

 20 

 1 

 2 

 4 

 5 

 6 

 12 

 16 

 17 

 18 

 19 

 20 

 1 

 2 

 4 

 5 

 6 

 12 

 16 

 17 

 18 

 19 

 20 

 1 

 2 

 4 

 5 

 6 

 12 

 16 

 17 

 18 

 19 

 20 

 1 

 2 

 4 

 5 

 6 

 12 

 16 

 17 

 18 

 19 

 20 

 1 

 2 

 4 

 5 

 6 

 12 

 16 

 17 

 18 

 19 

 20 

 1 

 2 

 4 

 5 

 6 

 12 

 16 

 17 

 18 

 19 

 20 
  137000      145 0.00032079645 0.00018716509         0.08 

 1 

 2 

 4 

 5 

 6 

 12 

 16 

 17 

 18 

 19 

 20 

 1 

 2 

 4 

 5 

 6 

 12 

 16 

 17 

 18 

 19 

 20 

 1 

 2 

 4 

 5 

 6 

 12 

 16 

 17 

 18 

 19 

 20 

 1 

 2 

 4 

 5 

 6 

 12 

 16 

 17 

 18 

 19 

 20 

 1 

 2 

 4 

 5 

 6 

 12 

 16 

 17 

 18 

 19 

 20 

 1 

 2 

 4 

 5 

 6 

 12 

 16 

 17 

 18 

 19 

 20 

 1 

 2 

 4 

 5 

 6 

 12 

 16 

 17 

 18 

 19 

 20 

 1 

 2 

 4 

 5 

 6 

 12 

 16 

 17 

 18 

 19 

 20 

 1 

 2 

 4 

 5 

 6 

 12 

 16 

 17 

 18 

 19 

 20 

 1 

 2 

 4 

 5 

 6 

 12 

 16 

 17 

 18 

 19 

 20 
  138000      145 0.00030976886 0.00018151714         0.08 

 1 

 2 

 4 

 5 

 6 

 12 

 16 

 17 

 18 

 19 

 20 

 1 

 2 

 4 

 5 

 6 

 12 

 16 

 17 

 18 

 19 

 20 

 1 

 2 

 4 

 5 

 6 

 12 

 16 

 17 

 18 

 19 

 20 

 1 

 2 

 4 

 5 

 6 

 12 

 16 

 17 

 18 

 19 

 20 

 1 

 2 

 4 

 5 

 6 

 12 

 16 

 17 

 18 

 19 

 20 

 1 

 2 

 4 

 5 

 6 

 12 

 16 

 17 

 18 

 19 

 20 

 1 

 2 

 4 

 5 

 6 

 12 

 16 

 17 

 18 

 19 

 20 

 1 

 2 

 4 

 5 

 6 

 12 

 16 

 17 

 18 

 19 

 20 

 1 

 2 

 4 

 5 

 6 

 12 

 16 

 17 

 18 

 19 

 20 

 1 

 2 

 4 

 5 

 6 

 12 

 16 

 17 

 18 

 19 

 20 
  139000      145 0.00031734972 0.00017667877         0.08 

 1 

 2 

 4 

 5 

 6 

 12 

 16 

 17 

 18 

 19 

 20 

 1 

 2 

 4 

 5 

 6 

 12 

 16 

 17 

 18 

 19 

 20 

 1 

 2 

 4 

 5 

 6 

 12 

 16 

 17 

 18 

 19 

 20 

 1 

 2 

 4 

 5 

 6 

 12 

 16 

 17 

 18 

 19 

 20 

 1 

 2 

 4 

 5 

 6 

 12 

 16 

 17 

 18 

 19 

 20 

 1 

 2 

 4 

 5 

 6 

 12 

 16 

 17 

 18 

 19 

 20 

 1 

 2 

 4 

 5 

 6 

 12 

 16 

 17 

 18 

 19 

 20 

 1 

 2 

 4 

 5 

 6 

 12 

 16 

 17 

 18 

 19 

 20 

 1 

 2 

 4 

 5 

 6 

 12 

 16 

 17 

 18 

 19 

 20 

 1 

 2 

 4 

 5 

 6 

 12 

 16 

 17 

 18 

 19 

 20 
  140000      145 0.00029655636 0.00017074916         0.08 

 1 

 2 

 4 

 5 

 6 

 12 

 16 

 17 

 18 

 19 

 20 

 1 

 2 

 4 

 5 

 6 

 12 

 16 

 17 

 18 

 19 

 20 

 1 

 2 

 4 

 5 

 6 

 12 

 16 

 17 

 18 

 19 

 20 

 1 

 2 

 4 

 5 

 6 

 12 

 16 

 17 

 18 

 19 

 20 

 1 

 2 

 4 

 5 

 6 

 12 

 16 

 17 

 18 

 19 

 20 

 1 

 2 

 4 

 5 

 6 

 12 

 16 

 17 

 18 

 19 

 20 

 1 

 2 

 4 

 5 

 6 

 12 

 16 

 17 

 18 

 19 

 20 

 1 

 2 

 4 

 5 

 6 

 12 

 16 

 17 

 18 

 19 

 20 

 1 

 2 

 4 

 5 

 6 

 12 

 16 

 17 

 18 

 19 

 20 

 1 

 2 

 4 

 5 

 6 

 12 

 16 

 17 

 18 

 19 

 20 
  141000      145 0.0002796014 0.00017229384         0.08 

 1 

 2 

 4 

 5 

 6 

 12 

 16 

 17 

 18 

 19 

 20 

 1 

 2 

 4 

 5 

 6 

 12 

 16 

 17 

 18 

 19 

 20 

 1 

 2 

 4 

 5 

 6 

 12 

 16 

 17 

 18 

 19 

 20 

 1 

 2 

 4 

 5 

 6 

 12 

 16 

 17 

 18 

 19 

 20 

 1 

 2 

 4 

 5 

 6 

 12 

 16 

 17 

 18 

 19 

 20 

 1 

 2 

 4 

 5 

 6 

 12 

 16 

 17 

 18 

 19 

 20 

 1 

 2 

 4 

 5 

 6 

 12 

 16 

 17 

 18 

 19 

 20 

 1 

 2 

 4 

 5 

 6 

 12 

 16 

 17 

 18 

 19 

 20 

 1 

 2 

 4 

 5 

 6 

 12 

 16 

 17 

 18 

 19 

 20 

 1 

 2 

 4 

 5 

 6 

 12 

 16 

 17 

 18 

 19 

 20 
  142000      145 0.00026617092 0.00016833528         0.08 

 1 

 2 

 4 

 5 

 6 

 12 

 16 

 17 

 18 

 19 

 20 

 1 

 2 

 4 

 5 

 6 

 12 

 16 

 17 

 18 

 19 

 20 

 1 

 2 

 4 

 5 

 6 

 12 

 16 

 17 

 18 

 19 

 20 

 1 

 2 

 4 

 5 

 6 

 12 

 16 

 17 

 18 

 19 

 20 

 1 

 2 

 4 

 5 

 6 

 12 

 16 

 17 

 18 

 19 

 20 

 1 

 2 

 4 

 5 

 6 

 12 

 16 

 17 

 18 

 19 

 20 

 1 

 2 

 4 

 5 

 6 

 12 

 16 

 17 

 18 

 19 

 20 

 1 

 2 

 4 

 5 

 6 

 12 

 16 

 17 

 18 

 19 

 20 

 1 

 2 

 4 

 5 

 6 

 12 

 16 

 17 

 18 

 19 

 20 

 1 

 2 

 4 

 5 

 6 

 12 

 16 

 17 

 18 

 19 

 20 
  143000      145 0.00026249253 0.00016589604         0.08 

 1 

 2 

 4 

 5 

 6 

 12 

 16 

 17 

 18 

 19 

 20 

 1 

 2 

 4 

 5 

 6 

 12 

 16 

 17 

 18 

 19 

 20 

 1 

 2 

 4 

 5 

 6 

 12 

 16 

 17 

 18 

 19 

 20 

 1 

 2 

 4 

 5 

 6 

 12 

 16 

 17 

 18 

 19 

 20 

 1 

 2 

 4 

 5 

 6 

 12 

 16 

 17 

 18 

 19 

 20 

 1 

 2 

 4 

 5 

 6 

 12 

 16 

 17 

 18 

 19 

 20 

 1 

 2 

 4 

 5 

 6 

 12 

 16 

 17 

 18 

 19 

 20 

 1 

 2 

 4 

 5 

 6 

 12 

 16 

 17 

 18 

 19 

 20 

 1 

 2 

 4 

 5 

 6 

 12 

 16 

 17 

 18 

 19 

 20 

 1 

 2 

 4 

 5 

 6 

 12 

 16 

 17 

 18 

 19 

 20 
  144000      145 0.00025946666 0.00016182173         0.08 

 1 

 2 

 4 

 5 

 6 

 12 

 16 

 17 

 18 

 19 

 20 

 1 

 2 

 4 

 5 

 6 

 12 

 16 

 17 

 18 

 19 

 20 

 1 

 2 

 4 

 5 

 6 

 12 

 16 

 17 

 18 

 19 

 20 

 1 

 2 

 4 

 5 

 6 

 12 

 16 

 17 

 18 

 19 

 20 

 1 

 2 

 4 

 5 

 6 

 12 

 16 

 17 

 18 

 19 

 20 

 1 

 2 

 4 

 5 

 6 

 12 

 16 

 17 

 18 

 19 

 20 

 1 

 2 

 4 

 5 

 6 

 12 

 16 

 17 

 18 

 19 

 20 

 1 

 2 

 4 

 5 

 6 

 12 

 16 

 17 

 18 

 19 

 20 

 1 

 2 

 4 

 5 

 6 

 12 

 16 

 17 

 18 

 19 

 20 

 1 

 2 

 4 

 5 

 6 

 12 

 16 

 17 

 18 

 19 

 20 
  145000      145 0.00024988255 0.00015630279         0.08 

 1 

 2 

 4 

 5 

 6 

 12 

 16 

 17 

 18 

 19 

 20 

 1 

 2 

 4 

 5 

 6 

 12 

 16 

 17 

 18 

 19 

 20 

 1 

 2 

 4 

 5 

 6 

 12 

 16 

 17 

 18 

 19 

 20 

 1 

 2 

 4 

 5 

 6 

 12 

 16 

 17 

 18 

 19 

 20 

 1 

 2 

 4 

 5 

 6 

 12 

 16 

 17 

 18 

 19 

 20 

 1 

 2 

 4 

 5 

 6 

 12 

 16 

 17 

 18 

 19 

 20 

 1 

 2 

 4 

 5 

 6 

 12 

 16 

 17 

 18 

 19 

 20 

 1 

 2 

 4 

 5 

 6 

 12 

 16 

 17 

 18 

 19 

 20 

 1 

 2 

 4 

 5 

 6 

 12 

 16 

 17 

 18 

 19 

 20 

 1 

 2 

 4 

 5 

 6 

 12 

 16 

 17 

 18 

 19 

 20 
  146000      145 0.00023504857 0.00014491511         0.08 

 1 

 2 

 4 

 5 

 6 

 12 

 16 

 17 

 18 

 19 

 20 

 1 

 2 

 4 

 5 

 6 

 12 

 16 

 17 

 18 

 19 

 20 

 1 

 2 

 4 

 5 

 6 

 12 

 16 

 17 

 18 

 19 

 20 

 1 

 2 

 4 

 5 

 6 

 12 

 16 

 17 

 18 

 19 

 20 

 1 

 2 

 4 

 5 

 6 

 12 

 16 

 17 

 18 

 19 

 20 

 1 

 2 

 4 

 5 

 6 

 12 

 16 

 17 

 18 

 19 

 20 

 1 

 2 

 4 

 5 

 6 

 12 

 16 

 17 

 18 

 19 

 20 

 1 

 2 

 4 

 5 

 6 

 12 

 16 

 17 

 18 

 19 

 20 

 1 

 2 

 4 

 5 

 6 

 12 

 16 

 17 

 18 

 19 

 20 

 1 

 2 

 4 

 5 

 6 

 12 

 16 

 17 

 18 

 19 

 20 
  147000      145 0.0002332047 0.00014474678         0.08 

 1 

 2 

 4 

 5 

 6 

 12 

 16 

 17 

 18 

 19 

 20 

 1 

 2 

 4 

 5 

 6 

 12 

 16 

 17 

 18 

 19 

 20 

 1 

 2 

 4 

 5 

 6 

 12 

 16 

 17 

 18 

 19 

 20 

 1 

 2 

 4 

 5 

 6 

 12 

 16 

 17 

 18 

 19 

 20 

 1 

 2 

 4 

 5 

 6 

 12 

 16 

 17 

 18 

 19 

 20 

 1 

 2 

 4 

 5 

 6 

 12 

 16 

 17 

 18 

 19 

 20 

 1 

 2 

 4 

 5 

 6 

 12 

 16 

 17 

 18 

 19 

 20 

 1 

 2 

 4 

 5 

 6 

 12 

 16 

 17 

 18 

 19 

 20 

 1 

 2 

 4 

 5 

 6 

 12 

 16 

 17 

 18 

 19 

 20 

 1 

 2 

 4 

 5 

 6 

 12 

 16 

 17 

 18 

 19 

 20 
  148000      145 0.00023047715 0.00014464453         0.08 

 1 

 2 

 4 

 5 

 6 

 12 

 16 

 17 

 18 

 19 

 20 

 1 

 2 

 4 

 5 

 6 

 12 

 16 

 17 

 18 

 19 

 20 

 1 

 2 

 4 

 5 

 6 

 12 

 16 

 17 

 18 

 19 

 20 

 1 

 2 

 4 

 5 

 6 

 12 

 16 

 17 

 18 

 19 

 20 

 1 

 2 

 4 

 5 

 6 

 12 

 16 

 17 

 18 

 19 

 20 

 1 

 2 

 4 

 5 

 6 

 12 

 16 

 17 

 18 

 19 

 20 

 1 

 2 

 4 

 5 

 6 

 12 

 16 

 17 

 18 

 19 

 20 

 1 

 2 

 4 

 5 

 6 

 12 

 16 

 17 

 18 

 19 

 20 

 1 

 2 

 4 

 5 

 6 

 12 

 16 

 17 

 18 

 19 

 20 

 1 

 2 

 4 

 5 

 6 

 12 

 16 

 17 

 18 

 19 

 20 
  149000      145 0.00022949573 0.00014458645         0.08 

 1 

 2 

 4 

 5 

 6 

 12 

 16 

 17 

 18 

 19 

 20 

 1 

 2 

 4 

 5 

 6 

 12 

 16 

 17 

 18 

 19 

 20 

 1 

 2 

 4 

 5 

 6 

 12 

 16 

 17 

 18 

 19 

 20 

 1 

 2 

 4 

 5 

 6 

 12 

 16 

 17 

 18 

 19 

 20 

 1 

 2 

 4 

 5 

 6 

 12 

 16 

 17 

 18 

 19 

 20 

 1 

 2 

 4 

 5 

 6 

 12 

 16 

 17 

 18 

 19 

 20 

 1 

 2 

 4 

 5 

 6 

 12 

 16 

 17 

 18 

 19 

 20 

 1 

 2 

 4 

 5 

 6 

 12 

 16 

 17 

 18 

 19 

 20 

 1 

 2 

 4 

 5 

 6 

 12 

 16 

 17 

 18 

 19 

 20 

 1 

 2 

 4 

 5 

 6 

 12 

 16 

 17 

 18 

 19 

 20 
  150000      145 0.00021965034 0.00014462163         0.08 

 1 

 2 

 4 

 5 

 6 

 12 

 16 

 17 

 18 

 19 

 20 

 1 

 2 

 4 

 5 

 6 

 12 

 16 

 17 

 18 

 19 

 20 

 1 

 2 

 4 

 5 

 6 

 12 

 16 

 17 

 18 

 19 

 20 

 1 

 2 

 4 

 5 

 6 

 12 

 16 

 17 

 18 

 19 

 20 

 1 

 2 

 4 

 5 

 6 

 12 

 16 

 17 

 18 

 19 

 20 

 1 

 2 

 4 

 5 

 6 

 12 

 16 

 17 

 18 

 19 

 20 

 1 

 2 

 4 

 5 

 6 

 12 

 16 

 17 

 18 

 19 

 20 

 1 

 2 

 4 

 5 

 6 

 12 

 16 

 17 

 18 

 19 

 20 

 1 

 2 

 4 

 5 

 6 

 12 

 16 

 17 

 18 

 19 

 20 

 1 

 2 

 4 

 5 

 6 

 12 

 16 

 17 

 18 

 19 

 20 
  151000      145 0.00020835416 0.00013594184         0.08 

 1 

 2 

 4 

 5 

 6 

 12 

 16 

 17 

 18 

 19 

 20 

 1 

 2 

 4 

 5 

 6 

 12 

 16 

 17 

 18 

 19 

 20 

 1 

 2 

 4 

 5 

 6 

 12 

 16 

 17 

 18 

 19 

 20 

 1 

 2 

 4 

 5 

 6 

 12 

 16 

 17 

 18 

 19 

 20 

 1 

 2 

 4 

 5 

 6 

 12 

 16 

 17 

 18 

 19 

 20 

 1 

 2 

 4 

 5 

 6 

 12 

 16 

 17 

 18 

 19 

 20 

 1 

 2 

 4 

 5 

 6 

 12 

 16 

 17 

 18 

 19 

 20 

 1 

 2 

 4 

 5 

 6 

 12 

 16 

 17 

 18 

 19 

 20 

 1 

 2 

 4 

 5 

 6 

 12 

 16 

 17 

 18 

 19 

 20 

 1 

 2 

 4 

 5 

 6 

 12 

 16 

 17 

 18 

 19 

 20 
  152000      145 0.00020065803 0.00012967878         0.08 

 1 

 2 

 4 

 5 

 6 

 12 

 16 

 17 

 18 

 19 

 20 

 1 

 2 

 4 

 5 

 6 

 12 

 16 

 17 

 18 

 19 

 20 

 1 

 2 

 4 

 5 

 6 

 12 

 16 

 17 

 18 

 19 

 20 

 1 

 2 

 4 

 5 

 6 

 12 

 16 

 17 

 18 

 19 

 20 

 1 

 2 

 4 

 5 

 6 

 12 

 16 

 17 

 18 

 19 

 20 

 1 

 2 

 4 

 5 

 6 

 12 

 16 

 17 

 18 

 19 

 20 

 1 

 2 

 4 

 5 

 6 

 12 

 16 

 17 

 18 

 19 

 20 

 1 

 2 

 4 

 5 

 6 

 12 

 16 

 17 

 18 

 19 

 20 

 1 

 2 

 4 

 5 

 6 

 12 

 16 

 17 

 18 

 19 

 20 

 1 

 2 

 4 

 5 

 6 

 12 

 16 

 17 

 18 

 19 

 20 
  153000      145 0.00019655378 0.00012857924         0.08 

 1 

 2 

 4 

 5 

 6 

 12 

 16 

 17 

 18 

 19 

 20 

 1 

 2 

 4 

 5 

 6 

 12 

 16 

 17 

 18 

 19 

 20 

 1 

 2 

 4 

 5 

 6 

 12 

 16 

 17 

 18 

 19 

 20 

 1 

 2 

 4 

 5 

 6 

 12 

 16 

 17 

 18 

 19 

 20 

 1 

 2 

 4 

 5 

 6 

 12 

 16 

 17 

 18 

 19 

 20 

 1 

 2 

 4 

 5 

 6 

 12 

 16 

 17 

 18 

 19 

 20 

 1 

 2 

 4 

 5 

 6 

 12 

 16 

 17 

 18 

 19 

 20 

 1 

 2 

 4 

 5 

 6 

 12 

 16 

 17 

 18 

 19 

 20 

 1 

 2 

 4 

 5 

 6 

 12 

 16 

 17 

 18 

 19 

 20 

 1 

 2 

 4 

 5 

 6 

 12 

 16 

 17 

 18 

 19 

 20 
  154000      145 0.0001918895 0.00012773398         0.08 

 1 

 2 

 4 

 5 

 6 

 12 

 16 

 17 

 18 

 19 

 20 

 1 

 2 

 4 

 5 

 6 

 12 

 16 

 17 

 18 

 19 

 20 

 1 

 2 

 4 

 5 

 6 

 12 

 16 

 17 

 18 

 19 

 20 

 1 

 2 

 4 

 5 

 6 

 12 

 16 

 17 

 18 

 19 

 20 

 1 

 2 

 4 

 5 

 6 

 12 

 16 

 17 

 18 

 19 

 20 

 1 

 2 

 4 

 5 

 6 

 12 

 16 

 17 

 18 

 19 

 20 

 1 

 2 

 4 

 5 

 6 

 12 

 16 

 17 

 18 

 19 

 20 

 1 

 2 

 4 

 5 

 6 

 12 

 16 

 17 

 18 

 19 

 20 

 1 

 2 

 4 

 5 

 6 

 12 

 16 

 17 

 18 

 19 

 20 

 1 

 2 

 4 

 5 

 6 

 12 

 16 

 17 

 18 

 19 

 20 
  155000      145 0.00018445801 0.00012410213         0.08 

 1 

 2 

 4 

 5 

 6 

 12 

 16 

 17 

 18 

 19 

 20 

 1 

 2 

 4 

 5 

 6 

 12 

 16 

 17 

 18 

 19 

 20 

 1 

 2 

 4 

 5 

 6 

 12 

 16 

 17 

 18 

 19 

 20 

 1 

 2 

 4 

 5 

 6 

 12 

 16 

 17 

 18 

 19 

 20 

 1 

 2 

 4 

 5 

 6 

 12 

 16 

 17 

 18 

 19 

 20 

 1 

 2 

 4 

 5 

 6 

 12 

 16 

 17 

 18 

 19 

 20 

 1 

 2 

 4 

 5 

 6 

 12 

 16 

 17 

 18 

 19 

 20 

 1 

 2 

 4 

 5 

[...]

 12 

 16 

 17 

 18 

 19 

 20 

 1 

 2 

 4 

 5 

 6 

 12 

 16 

 17 

 18 

 19 

 20 

 1 

 2 

 4 

 5 

 6 

 12 

 16 

 17 

 18 

 19 

 20 

 1 

 2 

 4 

 5 

 6 

 12 

 16 

 17 

 18 

 19 

 20 

 1 

 2 

 4 

 5 

 6 

 12 

 16 

 17 

 18 

 19 

 20 

 1 

 2 

 4 

 5 

 6 

 12 

 16 

 17 

 18 

 19 

 20 

 1 

 2 

 4 

 5 

 6 

 12 

 16 

 17 

 18 

 19 

 20 

 1 

 2 

 4 

 5 

 6 

 12 

 16 

 17 

 18 

 19 

 20 

 1 

 2 

 4 

 5 

 6 

 12 

 16 

 17 

 18 

 19 

 20 
 1022000      145 2.3057731e-06 3.024574e-06         0.08 

 1 

 2 

 4 

 5 

 6 

 12 

 16 

 17 

 18 

 19 

 20 

 1 

 2 

 4 

 5 

 6 

 12 

 16 

 17 

 18 

 19 

 20 

 1 

 2 

 4 

 5 

 6 

 12 

 16 

 17 

 18 

 19 

 20 

 1 

 2 

 4 

 5 

 6 

 12 

 16 

 17 

 18 

 19 

 20 

 1 

 2 

 4 

 5 

 6 

 12 

 16 

 17 

 18 

 19 

 20 

 1 

 2 

 4 

 5 

 6 

 12 

 16 

 17 

 18 

 19 

 20 

 1 

 2 

 4 

 5 

 6 

 12 

 16 

 17 

 18 

 19 

 20 

 1 

 2 

 4 

 5 

 6 

 12 

 16 

 17 

 18 

 19 

 20 

 1 

 2 

 4 

 5 

 6 

 12 

 16 

 17 

 18 

 19 

 20 

 1 

 2 

 4 

 5 

 6 

 12 

 16 

 17 

 18 

 19 

 20 
 1023000      145 2.4306943e-06 2.4528446e-06         0.08 

 1 

 2 

 4 

 5 

 6 

 12 

 16 

 17 

 18 

 19 

 20 

 1 

 2 

 4 

 5 

 6 

 12 

 16 

 17 

 18 

 19 

 20 

 1 

 2 

 4 

 5 

 6 

 12 

 16 

 17 

 18 

 19 

 20 

 1 

 2 

 4 

 5 

 6 

 12 

 16 

 17 

 18 

 19 

 20 

 1 

 2 

 4 

 5 

 6 

 12 

 16 

 17 

 18 

 19 

 20 

 1 

 2 

 4 

 5 

 6 

 12 

 16 

 17 

 18 

 19 

 20 

 1 

 2 

 4 

 5 

 6 

 12 

 16 

 17 

 18 

 19 

 20 

 1 

 2 

 4 

 5 

 6 

 12 

 16 

 17 

 18 

 19 

 20 

 1 

 2 

 4 

 5 

 6 

 12 

 16 

 17 

 18 

 19 

 20 

 1 

 2 

 4 

 5 

 6 

 12 

 16 

 17 

 18 

 19 

 20 
 1024000      145 2.4321192e-06 2.4511609e-06         0.08 

 1 

 2 

 4 

 5 

 6 

 12 

 16 

 17 

 18 

 19 

 20 

 1 

 2 

 4 

 5 

 6 

 12 

 16 

 17 

 18 

 19 

 20 

 1 

 2 

 4 

 5 

 6 

 12 

 16 

 17 

 18 

 19 

 20 

 1 

 2 

 4 

 5 

 6 

 12 

 16 

 17 

 18 

 19 

 20 

 1 

 2 

 4 

 5 

 6 

 12 

 16 

 17 

 18 

 19 

 20 

 1 

 2 

 4 

 5 

 6 

 12 

 16 

 17 

 18 

 19 

 20 

 1 

 2 

 4 

 5 

 6 

 12 

 16 

 17 

 18 

 19 

 20 

 1 

 2 

 4 

 5 

 6 

 12 

 16 

 17 

 18 

 19 

 20 

 1 

 2 

 4 

 5 

 6 

 12 

 16 

 17 

 18 

 19 

 20 

 1 

 2 

 4 

 5 

 6 

 12 

 16 

 17 

 18 

 19 

 20 
 1025000      145 2.4313585e-06 2.4505677e-06         0.08 

 1 

 2 

 4 

 5 

 6 

 12 

 16 

 17 

 18 

 19 

 20 

 1 

 2 

 4 

 5 

 6 

 12 

 16 

 17 

 18 

 19 

 20 

 1 

 2 

 4 

 5 

 6 

 12 

 16 

 17 

 18 

 19 

 20 

 1 

 2 

 4 

 5 

 6 

 12 

 16 

 17 

 18 

 19 

 20 

 1 

 2 

 4 

 5 

 6 

 12 

 16 

 17 

 18 

 19 

 20 

 1 

 2 

 4 

 5 

 6 

 12 

 16 

 17 

 18 

 19 

 20 

 1 

 2 

 4 

 5 

 6 

 12 

 16 

 17 

 18 

 19 

 20 

 1 

 2 

 4 

 5 

 6 

 12 

 16 

 17 

 18 

 19 

 20 

 1 

 2 

 4 

 5 

 6 

 12 

 16 

 17 

 18 

 19 

 20 

 1 

 2 

 4 

 5 

 6 

 12 

 16 

 17 

 18 

 19 

 20 
 1026000      145 2.3719865e-06 2.4330945e-06         0.08 

 1 

 2 

 4 

 5 

 6 

 12 

 16 

 17 

 18 

 19 

 20 

 1 

 2 

 4 

 5 

 6 

 12 

 16 

 17 

 18 

 19 

 20 

 1 

 2 

 4 

 5 

 6 

 12 

 16 

 17 

 18 

 19 

 20 

 1 

 2 

 4 

 5 

 6 

 12 

 16 

 17 

 18 

 19 

 20 

 1 

 2 

 4 

 5 

 6 

 12 

 16 

 17 

 18 

 19 

 20 

 1 

 2 

 4 

 5 

 6 

 12 

 16 

 17 

 18 

 19 

 20 

 1 

 2 

 4 

 5 

 6 

 12 

 16 

 17 

 18 

 19 

 20 

 1 

 2 

 4 

 5 

 6 

 12 

 16 

 17 

 18 

 19 

 20 

 1 

 2 

 4 

 5 

 6 

 12 

 16 

 17 

 18 

 19 

 20 

 1 

 2 

 4 

 5 

 6 

 12 

 16 

 17 

 18 

 19 

 20 
 1027000      145 2.3736642e-06 2.4298689e-06         0.08 

 1 

 2 

 4 

 5 

 6 

 12 

 16 

 17 

 18 

 19 

 20 

 1 

 2 

 4 

 5 

 6 

 12 

 16 

 17 

 18 

 19 

 20 

 1 

 2 

 4 

 5 

 6 

 12 

 16 

 17 

 18 

 19 

 20 

 1 

 2 

 4 

 5 

 6 

 12 

 16 

 17 

 18 

 19 

 20 

 1 

 2 

 4 

 5 

 6 

 12 

 16 

 17 

 18 

 19 

 20 

 1 

 2 

 4 

 5 

 6 

 12 

 16 

 17 

 18 

 19 

 20 

 1 

 2 

 4 

 5 

 6 

 12 

 16 

 17 

 18 

 19 

 20 

 1 

 2 

 4 

 5 

 6 

 12 

 16 

 17 

 18 

 19 

 20 

 1 

 2 

 4 

 5 

 6 

 12 

 16 

 17 

 18 

 19 

 20 

 1 

 2 

 4 

 5 

 6 

 12 

 16 

 17 

 18 

 19 

 20 
 1028000      145 2.3736661e-06 2.429868e-06         0.08 

 1 

 2 

 4 

 5 

 6 

 12 

 16 

 17 

 18 

 19 

 20 

 1 

 2 

 4 

 5 

 6 

 12 

 16 

 17 

 18 

 19 

 20 

 1 

 2 

 4 

 5 

 6 

 12 

 16 

 17 

 18 

 19 

 20 

 1 

 2 

 4 

 5 

 6 

 12 

 16 

 17 

 18 

 19 

 20 

 1 

 2 

 4 

 5 

 6 

 12 

 16 

 17 

 18 

 19 

 20 

 1 

 2 

 4 

 5 

 6 

 12 

 16 

 17 

 18 

 19 

 20 

 1 

 2 

 4 

 5 

 6 

 12 

 16 

 17 

 18 

 19 

 20 

 1 

 2 

 4 

 5 

 6 

 12 

 16 

 17 

 18 

 19 

 20 

 1 

 2 

 4 

 5 

 6 

 12 

 16 

 17 

 18 

 19 

 20 

 1 

 2 

 4 

 5 

 6 

 12 

 16 

 17 

 18 

 19 

 20 
 1029000      145 2.373664e-06 2.4298692e-06         0.08 

 1 

 2 

 4 

 5 

 6 

 12 

 16 

 17 

 18 

 19 

 20 

 1 

 2 

 4 

 5 

 6 

 12 

 16 

 17 

 18 

 19 

 20 

 1 

 2 

 4 

 5 

 6 

 12 

 16 

 17 

 18 

 19 

 20 

 1 

 2 

 4 

 5 

 6 

 12 

 16 

 17 

 18 

 19 

 20 

 1 

 2 

 4 

 5 

 6 

 12 

 16 

 17 

 18 

 19 

 20 

 1 

 2 

 4 

 5 

 6 

 12 

 16 

 17 

 18 

 19 

 20 

 1 

 2 

 4 

 5 

 6 

 12 

 16 

 17 

 18 

 19 

 20 

 1 

 2 

 4 

 5 

 6 

 12 

 16 

 17 

 18 

 19 

 20 

 1 

 2 

 4 

 5 

 6 

 12 

 16 

 17 

 18 

 19 

 20 

 1 

 2 

 4 

 5 

 6 

 12 

 16 

 17 

 18 

 19 

 20 
 1030000      145 2.3736639e-06 2.4298692e-06         0.08 

 1 

 2 

 4 

 5 

 6 

 12 

 16 

 17 

 18 

 19 

 20 

 1 

 2 

 4 

 5 

 6 

 12 

 16 

 17 

 18 

 19 

 20 

 1 

 2 

 4 

 5 

 6 

 12 

 16 

 17 

 18 

 19 

 20 

 1 

 2 

 4 

 5 

 6 

 12 

 16 

 17 

 18 

 19 

 20 

 1 

 2 

 4 

 5 

 6 

 12 

 16 

 17 

 18 

 19 

 20 

 1 

 2 

 4 

 5 

 6 

 12 

 16 

 17 

 18 

 19 

 20 

 1 

 2 

 4 

 5 

 6 

 12 

 16 

 17 

 18 

 19 

 20 

 1 

 2 

 4 

 5 

 6 

 12 

 16 

 17 

 18 

 19 

 20 

 1 

 2 

 4 

 5 

 6 

 12 

 16 

 17 

 18 

 19 

 20 

 1 

 2 

 4 

 5 

 6 

 12 

 16 

 17 

 18 

 19 

 20 
 1031000      145 2.3736639e-06 2.4298692e-06         0.08 

 1 

 2 

 4 

 5 

 6 

 12 

 16 

 17 

 18 

 19 

 20 

 1 

 2 

 4 

 5 

 6 

 12 

 16 

 17 

 18 

 19 

 20 

 1 

 2 

 4 

 5 

 6 

 12 

 16 

 17 

 18 

 19 

 20 

 1 

 2 

 4 

 5 

 6 

 12 

 16 

 17 

 18 

 19 

 20 

 1 

 2 

 4 

 5 

 6 

 12 

 16 

 17 

 18 

 19 

 20 

 1 

 2 

 4 

 5 

 6 

 12 

 16 

 17 

 18 

 19 

 20 

 1 

 2 

 4 

 5 

 6 

 12 

 16 

 17 

 18 

 19 

 20 

 1 

 2 

 4 

 5 

 6 

 12 

 16 

 17 

 18 

 19 

 20 

 1 

 2 

 4 

 5 

 6 

 12 

 16 

 17 

 18 

 19 

 20 

 1 

 2 

 4 

 5 

 6 

 12 

 16 

 17 

 18 

 19 

 20 
 1032000      145 2.3813903e-06 2.3806067e-06         0.08 

 1 

 2 

 4 

 5 

 6 

 12 

 16 

 17 

 18 

 19 

 20 

 1 

 2 

 4 

 5 

 6 

 12 

 16 

 17 

 18 

 19 

 20 

 1 

 2 

 4 

 5 

 6 

 12 

 16 

 17 

 18 

 19 

 20 

 1 

 2 

 4 

 5 

 6 

 12 

 16 

 17 

 18 

 19 

 20 

 1 

 2 

 4 

 5 

 6 

 12 

 16 

 17 

 18 

 19 

 20 

 1 

 2 

 4 

 5 

 6 

 12 

 16 

 17 

 18 

 19 

 20 

 1 

 2 

 4 

 5 

 6 

 12 

 16 

 17 

 18 

 19 

 20 

 1 

 2 

 4 

 5 

 6 

 12 

 16 

 17 

 18 

 19 

 20 

 1 

 2 

 4 

 5 

 6 

 12 

 16 

 17 

 18 

 19 

 20 

 1 

 2 

 4 

 5 

 6 

 12 

 16 

 17 

 18 

 19 

 20 
 1033000      145 2.3740691e-06 2.3818404e-06         0.08 

 1 

 2 

 4 

 5 

 6 

 12 

 16 

 17 

 18 

 19 

 20 

 1 

 2 

 4 

 5 

 6 

 12 

 16 

 17 

 18 

 19 

 20 

 1 

 2 

 4 

 5 

 6 

 12 

 16 

 17 

 18 

 19 

 20 

 1 

 2 

 4 

 5 

 6 

 12 

 16 

 17 

 18 

 19 

 20 

 1 

 2 

 4 

 5 

 6 

 12 

 16 

 17 

 18 

 19 

 20 

 1 

 2 

 4 

 5 

 6 

 12 

 16 

 17 

 18 

 19 

 20 

 1 

 2 

 4 

 5 

 6 

 12 

 16 

 17 

 18 

 19 

 20 

 1 

 2 

 4 

 5 

 6 

 12 

 16 

 17 

 18 

 19 

 20 

 1 

 2 

 4 

 5 

 6 

 12 

 16 

 17 

 18 

 19 

 20 

 1 

 2 

 4 

 5 

 6 

 12 

 16 

 17 

 18 

 19 

 20 
 1034000      145 2.3740697e-06 2.3818394e-06         0.08 

 1 

 2 

 4 

 5 

 6 

 12 

 16 

 17 

 18 

 19 

 20 

 1 

 2 

 4 

 5 

 6 

 12 

 16 

 17 

 18 

 19 

 20 

 1 

 2 

 4 

 5 

 6 

 12 

 16 

 17 

 18 

 19 

 20 

 1 

 2 

 4 

 5 

 6 

 12 

 16 

 17 

 18 

 19 

 20 

 1 

 2 

 4 

 5 

 6 

 12 

 16 

 17 

 18 

 19 

 20 

 1 

 2 

 4 

 5 

 6 

 12 

 16 

 17 

 18 

 19 

 20 

 1 

 2 

 4 

 5 

 6 

 12 

 16 

 17 

 18 

 19 

 20 

 1 

 2 

 4 

 5 

 6 

 12 

 16 

 17 

 18 

 19 

 20 

 1 

 2 

 4 

 5 

 6 

 12 

 16 

 17 

 18 

 19 

 20 

 1 

 2 

 4 

 5 

 6 

 12 

 16 

 17 

 18 

 19 

 20 
 1035000      145 2.3740697e-06 2.3818394e-06         0.08 

 1 

 2 

 4 

 5 

 6 

 12 

 16 

 17 

 18 

 19 

 20 

 1 

 2 

 4 

 5 

 6 

 12 

 16 

 17 

 18 

 19 

 20 

 1 

 2 

 4 

 5 

 6 

 12 

 16 

 17 

 18 

 19 

 20 

 1 

 2 

 4 

 5 

 6 

 12 

 16 

 17 

 18 

 19 

 20 

 1 

 2 

 4 

 5 

 6 

 12 

 16 

 17 

 18 

 19 

 20 

 1 

 2 

 4 

 5 

 6 

 12 

 16 

 17 

 18 

 19 

 20 

 1 

 2 

 4 

 5 

 6 

 12 

 16 

 17 

 18 

 19 

 20 

 1 

 2 

 4 

 5 

 6 

 12 

 16 

 17 

 18 

 19 

 20 

 1 

 2 

 4 

 5 

 6 

 12 

 16 

 17 

 18 

 19 

 20 

 1 

 2 

 4 

 5 

 6 

 12 

 16 

 17 

 18 

 19 

 20 
 1036000      145 2.3651866e-06 2.3769187e-06         0.08 

 1 

 2 

 4 

 5 

 6 

 12 

 16 

 17 

 18 

 19 

 20 

 1 

 2 

 4 

 5 

 6 

 12 

 16 

 17 

 18 

 19 

 20 

 1 

 2 

 4 

 5 

 6 

 12 

 16 

 17 

 18 

 19 

 20 

 1 

 2 

 4 

 5 

 6 

 12 

 16 

 17 

 18 

 19 

 20 

 1 

 2 

 4 

 5 

 6 

 12 

 16 

 17 

 18 

 19 

 20 

 1 

 2 

 4 

 5 

 6 

 12 

 16 

 17 

 18 

 19 

 20 

 1 

 2 

 4 

 5 

 6 

 12 

 16 

 17 

 18 

 19 

 20 

 1 

 2 

 4 

 5 

 6 

 12 

 16 

 17 

 18 

 19 

 20 

 1 

 2 

 4 

 5 

 6 

 12 

 16 

 17 

 18 

 19 

 20 

 1 

 2 

 4 

 5 

 6 

 12 

 16 

 17 

 18 

 19 

 20 
 1037000      145 2.3651671e-06 2.3769191e-06         0.08 

 1 

 2 

 4 

 5 

 6 

 12 

 16 

 17 

 18 

 19 

 20 

 1 

 2 

 4 

 5 

 6 

 12 

 16 

 17 

 18 

 19 

 20 

 1 

 2 

 4 

 5 

 6 

 12 

 16 

 17 

 18 

 19 

 20 

 1 

 2 

 4 

 5 

 6 

 12 

 16 

 17 

 18 

 19 

 20 

 1 

 2 

 4 

 5 

 6 

 12 

 16 

 17 

 18 

 19 

 20 

 1 

 2 

 4 

 5 

 6 

 12 

 16 

 17 

 18 

 19 

 20 

 1 

 2 

 4 

 5 

 6 

 12 

 16 

 17 

 18 

 19 

 20 

 1 

 2 

 4 

 5 

 6 

 12 

 16 

 17 

 18 

 19 

 20 

 1 

 2 

 4 

 5 

 6 

 12 

 16 

 17 

 18 

 19 

 20 

 1 

 2 

 4 

 5 

 6 

 12 

 16 

 17 

 18 

 19 

 20 
 1038000      145 2.3651671e-06 2.3769191e-06         0.08 

 1 

 2 

 4 

 5 

 6 

 12 

 16 

 17 

 18 

 19 

 20 

 1 

 2 

 4 

 5 

 6 

 12 

 16 

 17 

 18 

 19 

 20 

 1 

 2 

 4 

 5 

 6 

 12 

 16 

 17 

 18 

 19 

 20 

 1 

 2 

 4 

 5 

 6 

 12 

 16 

 17 

 18 

 19 

 20 

 1 

 2 

 4 

 5 

 6 

 12 

 16 

 17 

 18 

 19 

 20 

 1 

 2 

 4 

 5 

 6 

 12 

 16 

 17 

 18 

 19 

 20 

 1 

 2 

 4 

 5 

 6 

 12 

 16 

 17 

 18 

 19 

 20 

 1 

 2 

 4 

 5 

 6 

 12 

 16 

 17 

 18 

 19 

 20 

 1 

 2 

 4 

 5 

 6 

 12 

 16 

 17 

 18 

 19 

 20 

 1 

 2 

 4 

 5 

 6 

 12 

 16 

 17 

 18 

 19 

 20 
 1039000      145 2.3651671e-06 2.3769191e-06         0.08 

 1 

 2 

 4 

 5 

 6 

 12 

 16 

 17 

 18 

 19 

 20 

 1 

 2 

 4 

 5 

 6 

 12 

 16 

 17 

 18 

 19 

 20 

 1 

 2 

 4 

 5 

 6 

 12 

 16 

 17 

 18 

 19 

 20 

 1 

 2 

 4 

 5 

 6 

 12 

 16 

 17 

 18 

 19 

 20 

 1 

 2 

 4 

 5 

 6 

 12 

 16 

 17 

 18 

 19 

 20 

 1 

 2 

 4 

 5 

 6 

 12 

 16 

 17 

 18 

 19 

 20 

 1 

 2 

 4 

 5 

 6 

 12 

 16 

 17 

 18 

 19 

 20 

 1 

 2 

 4 

 5 

 6 

 12 

 16 

 17 

 18 

 19 

 20 

 1 

 2 

 4 

 5 

 6 

 12 

 16 

 17 

 18 

 19 

 20 

 1 

 2 

 4 

 5 

 6 

 12 

 16 

 17 

 18 

 19 

 20 
 1040000      145 2.3651671e-06 2.3769191e-06         0.08 

 1 

 2 

 4 

 5 

 6 

 12 

 16 

 17 

 18 

 19 

 20 

 1 

 2 

 4 

 5 

 6 

 12 

 16 

 17 

 18 

 19 

 20 

 1 

 2 

 4 

 5 

 6 

 12 

 16 

 17 

 18 

 19 

 20 

 1 

 2 

 4 

 5 

 6 

 12 

 16 

 17 

 18 

 19 

 20 

 1 

 2 

 4 

 5 

 6 

 12 

 16 

 17 

 18 

 19 

 20 

 1 

 2 

 4 

 5 

 6 

 12 

 16 

 17 

 18 

 19 

 20 

 1 

 2 

 4 

 5 

 6 

 12 

 16 

 17 

 18 

 19 

 20 

 1 

 2 

 4 

 5 

 6 

 12 

 16 

 17 

 18 

 19 

 20 

 1 

 2 

 4 

 5 

 6 

 12 

 16 

 17 

 18 

 19 

 20 

 1 

 2 

 4 

 5 

 6 

 12 

 16 

 17 

 18 

 19 

 20 
 1041000      145 2.3543818e-06 2.3721548e-06         0.08 

 1 

 2 

 4 

 5 

 6 

 12 

 16 

 17 

 18 

 19 

 20 

 1 

 2 

 4 

 5 

 6 

 12 

 16 

 17 

 18 

 19 

 20 

 1 

 2 

 4 

 5 

 6 

 12 

 16 

 17 

 18 

 19 

 20 

 1 

 2 

 4 

 5 

 6 

 12 

 16 

 17 

 18 

 19 

 20 

 1 

 2 

 4 

 5 

 6 

 12 

 16 

 17 

 18 

 19 

 20 

 1 

 2 

 4 

 5 

 6 

 12 

 16 

 17 

 18 

 19 

 20 

 1 

 2 

 4 

 5 

 6 

 12 

 16 

 17 

 18 

 19 

 20 

 1 

 2 

 4 

 5 

 6 

 12 

 16 

 17 

 18 

 19 

 20 

 1 

 2 

 4 

 5 

 6 

 12 

 16 

 17 

 18 

 19 

 20 

 1 

 2 

 4 

 5 

 6 

 12 

 16 

 17 

 18 

 19 

 20 
 1042000      145 2.3543512e-06 2.3721535e-06         0.08 

 1 

 2 

 4 

 5 

 6 

 12 

 16 

 17 

 18 

 19 

 20 

 1 

 2 

 4 

 5 

 6 

 12 

 16 

 17 

 18 

 19 

 20 

 1 

 2 

 4 

 5 

 6 

 12 

 16 

 17 

 18 

 19 

 20 

 1 

 2 

 4 

 5 

 6 

 12 

 16 

 17 

 18 

 19 

 20 

 1 

 2 

 4 

 5 

 6 

 12 

 16 

 17 

 18 

 19 

 20 

 1 

 2 

 4 

 5 

 6 

 12 

 16 

 17 

 18 

 19 

 20 

 1 

 2 

 4 

 5 

 6 

 12 

 16 

 17 

 18 

 19 

 20 

 1 

 2 

 4 

 5 

 6 

 12 

 16 

 17 

 18 

 19 

 20 

 1 

 2 

 4 

 5 

 6 

 12 

 16 

 17 

 18 

 19 

 20 

 1 

 2 

 4 

 5 

 6 

 12 

 16 

 17 

 18 

 19 

 20 
 1043000      145 2.3543512e-06 2.3721535e-06         0.08 

 1 

 2 

 4 

 5 

 6 

 12 

 16 

 17 

 18 

 19 

 20 

 1 

 2 

 4 

 5 

 6 

 12 

 16 

 17 

 18 

 19 

 20 

 1 

 2 

 4 

 5 

 6 

 12 

 16 

 17 

 18 

 19 

 20 

 1 

 2 

 4 

 5 

 6 

 12 

 16 

 17 

 18 

 19 

 20 

 1 

 2 

 4 

 5 

 6 

 12 

 16 

 17 

 18 

 19 

 20 

 1 

 2 

 4 

 5 

 6 

 12 

 16 

 17 

 18 

 19 

 20 

 1 

 2 

 4 

 5 

 6 

 12 

 16 

 17 

 18 

 19 

 20 

 1 

 2 

 4 

 5 

 6 

 12 

 16 

 17 

 18 

 19 

 20 

 1 

 2 

 4 

 5 

 6 

 12 

 16 

 17 

 18 

 19 

 20 

 1 

 2 

 4 

 5 

 6 

 12 

 16 

 17 

 18 

 19 

 20 
 1044000      145 2.334328e-06 2.3609308e-06         0.08 

 1 

 2 

 4 

 5 

 6 

 12 

 16 

 17 

 18 

 19 

 20 

 1 

 2 

 4 

 5 

 6 

 12 

 16 

 17 

 18 

 19 

 20 

 1 

 2 

 4 

 5 

 6 

 12 

 16 

 17 

 18 

 19 

 20 

 1 

 2 

 4 

 5 

 6 

 12 

 16 

 17 

 18 

 19 

 20 

 1 

 2 

 4 

 5 

 6 

 12 

 16 

 17 

 18 

 19 

 20 

 1 

 2 

 4 

 5 

 6 

 12 

 16 

 17 

 18 

 19 

 20 

 1 

 2 

 4 

 5 

 6 

 12 

 16 

 17 

 18 

 19 

 20 

 1 

 2 

 4 

 5 

 6 

 12 

 16 

 17 

 18 

 19 

 20 

 1 

 2 

 4 

 5 

 6 

 12 

 16 

 17 

 18 

 19 

 20 

 1 

 2 

 4 

 5 

 6 

 12 

 16 

 17 

 18 

 19 

 20 
 1045000      145 2.3272517e-06 2.362029e-06         0.08 

 1 

 2 

 4 

 5 

 6 

 12 

 16 

 17 

 18 

 19 

 20 

 1 

 2 

 4 

 5 

 6 

 12 

 16 

 17 

 18 

 19 

 20 

 1 

 2 

 4 

 5 

 6 

 12 

 16 

 17 

 18 

 19 

 20 

 1 

 2 

 4 

 5 

 6 

 12 

 16 

 17 

 18 

 19 

 20 

 1 

 2 

 4 

 5 

 6 

 12 

 16 

 17 

 18 

 19 

 20 

 1 

 2 

 4 

 5 

 6 

 12 

 16 

 17 

 18 

 19 

 20 

 1 

 2 

 4 

 5 

 6 

 12 

 16 

 17 

 18 

 19 

 20 

 1 

 2 

 4 

 5 

 6 

 12 

 16 

 17 

 18 

 19 

 20 

 1 

 2 

 4 

 5 

 6 

 12 

 16 

 17 

 18 

 19 

 20 

 1 

 2 

 4 

 5 

 6 

 12 

 16 

 17 

 18 

 19 

 20 
 1046000      145 2.3272489e-06 2.3620298e-06         0.08 

 1 

 2 

 4 

 5 

 6 

 12 

 16 

 17 

 18 

 19 

 20 

 1 

 2 

 4 

 5 

 6 

 12 

 16 

 17 

 18 

 19 

 20 

 1 

 2 

 4 

 5 

 6 

 12 

 16 

 17 

 18 

 19 

 20 

 1 

 2 

 4 

 5 

 6 

 12 

 16 

 17 

 18 

 19 

 20 

 1 

 2 

 4 

 5 

 6 

 12 

 16 

 17 

 18 

 19 

 20 

 1 

 2 

 4 

 5 

 6 

 12 

 16 

 17 

 18 

 19 

 20 

 1 

 2 

 4 

 5 

 6 

 12 

 16 

 17 

 18 

 19 

 20 

 1 

 2 

 4 

 5 

 6 

 12 

 16 

 17 

 18 

 19 

 20 

 1 

 2 

 4 

 5 

 6 

 12 

 16 

 17 

 18 

 19 

 20 

 1 

 2 

 4 

 5 

 6 

 12 

 16 

 17 

 18 

 19 

 20 
 1047000      145 2.0986289e-06 2.1934168e-06         0.08 

 1 

 2 

 4 

 5 

 6 

 12 

 16 

 17 

 18 

 19 

 20 

 1 

 2 

 4 

 5 

 6 

 12 

 16 

 17 

 18 

 19 

 20 

 1 

 2 

 4 

 5 

 6 

 12 

 16 

 17 

 18 

 19 

 20 

 1 

 2 

 4 

 5 

 6 

 12 

 16 

 17 

 18 

 19 

 20 

 1 

 2 

 4 

 5 

 6 

 12 

 16 

 17 

 18 

 19 

 20 

 1 

 2 

 4 

 5 

 6 

 12 

 16 

 17 

 18 

 19 

 20 

 1 

 2 

 4 

 5 

 6 

 12 

 16 

 17 

 18 

 19 

 20 

 1 

 2 

 4 

 5 

 6 

 12 

 16 

 17 

 18 

 19 

 20 

 1 

 2 

 4 

 5 

 6 

 12 

 16 

 17 

 18 

 19 

 20 

 1 

 2 

 4 

 5 

 6 

 12 

 16 

 17 

 18 

 19 

 20 
 1048000      145 2.093974e-06 2.1932871e-06         0.08 

 1 

 2 

 4 

 5 

 6 

 12 

 16 

 17 

 18 

 19 

 20 

 1 

 2 

 4 

 5 

 6 

 12 

 16 

 17 

 18 

 19 

 20 

 1 

 2 

 4 

 5 

 6 

 12 

 16 

 17 

 18 

 19 

 20 

 1 

 2 

 4 

 5 

 6 

 12 

 16 

 17 

 18 

 19 

 20 

 1 

 2 

 4 

 5 

 6 

 12 

 16 

 17 

 18 

 19 

 20 

 1 

 2 

 4 

 5 

 6 

 12 

 16 

 17 

 18 

 19 

 20 

 1 

 2 

 4 

 5 

 6 

 12 

 16 

 17 

 18 

 19 

 20 

 1 

 2 

 4 

 5 

 6 

 12 

 16 

 17 

 18 

 19 

 20 

 1 

 2 

 4 

 5 

 6 

 12 

 16 

 17 

 18 

 19 

 20 

 1 

 2 

 4 

 5 

 6 

 12 

 16 

 17 

 18 

 19 

 20 
 1049000      145 2.0938383e-06 2.1932924e-06         0.08 

 1 

 2 

 4 

 5 

 6 

 12 

 16 

 17 

 18 

 19 

 20 

 1 

 2 

 4 

 5 

 6 

 12 

 16 

 17 

 18 

 19 

 20 

 1 

 2 

 4 

 5 

 6 

 12 

 16 

 17 

 18 

 19 

 20 

 1 

 2 

 4 

 5 

 6 

 12 

 16 

 17 

 18 

 19 

 20 

 1 

 2 

 4 

 5 

 6 

 12 

 16 

 17 

 18 

 19 

 20 

 1 

 2 

 4 

 5 

 6 

 12 

 16 

 17 

 18 

 19 

 20 

 1 

 2 

 4 

 5 

 6 

 12 

 16 

 17 

 18 

 19 

 20 

 1 

 2 

 4 

 5 

 6 

 12 

 16 

 17 

 18 

 19 

 20 

 1 

 2 

 4 

 5 

 6 

 12 

 16 

 17 

 18 

 19 

 20 

 1 

 2 

 4 

 5 

 6 

 12 

 16 

 17 

 18 

 19 

 20 
 1050000      145 2.0938325e-06 2.1932968e-06         0.08 

 1 

 2 

 4 

 5 

 6 

 12 

 16 

 17 

 18 

 19 

 20 
 1050001      145 2.0938325e-06 2.1932968e-06         0.08 
Loop time of 29.5098 on 1 procs for 1000000 steps with 145 atoms

Pair  time (%) = 1.85384 (6.28212)
Neigh time (%) = 1.90823 (6.46645)
Comm  time (%) = 0.0804858 (0.272743)
Outpt time (%) = 1.24576 (4.22151)
Other time (%) = 24.4214 (82.7572)

Nlocal:    145 ave 145 max 145 min
Histogram: 1 0 0 0 0 0 0 0 0 0
Nghost:    0 ave 0 max 0 min
Histogram: 1 0 0 0 0 0 0 0 0 0
Neighs:    55 ave 55 max 55 min
Histogram: 1 0 0 0 0 0 0 0 0 0

Total # of neighbors = 55
Ave neighs/atom = 0.37931
Neighbor list builds = 10000
Dangerous builds = 0
