# vtk DataFile Version 2.0
Generated by lpp.py
ASCII
DATASET POLYDATA
POINTS 764 float
-0.0310816 0.0313629 0.0560182
-0.491477 0.000433537 -0.392823
-0.483559 0.00168812 -0.392526
-0.481958 -0.000300773 -0.387734
-0.493243 0.0359413 -0.388573
-0.45148 0.0173557 -0.384006
-0.47902 0.00030877 -0.380003
-0.464372 -0.0111936 -0.365739
-0.449094 -0.00983147 -0.365167
-0.45186 0.00619768 -0.366722
-0.460353 -0.00380715 -0.363109
-0.444865 -0.00737935 -0.357543
-0.447844 0.00218086 -0.358689
-0.452033 0.0133968 -0.35997
-0.453322 0.00833642 -0.353555
-0.454178 0.0332978 -0.352318
-0.447597 -0.0149372 -0.349232
-0.451761 0.0106716 -0.349818
-0.454342 -0.015453 -0.345498
-0.44859 0.0400037 -0.34633
-0.455576 -0.00844437 -0.34199
-0.439462 -0.000940824 -0.341129
-0.426497 0.0038889 -0.341341
-0.432187 0.00331695 -0.333967
-0.439901 -0.0176686 -0.332004
-0.431822 0.00579304 -0.330866
-0.429131 -0.0191449 -0.325732
-0.427706 0.00292763 -0.327059
-0.435715 0.0041418 -0.326929
-0.403884 0.0106042 -0.327096
-0.446366 0.0330217 -0.326365
-0.426276 -0.0150549 -0.323504
-0.430819 0.00259669 -0.321098
-0.424573 0.00135977 -0.323996
-0.425624 0.0178557 -0.322244
-0.427398 0.0273448 -0.321473
-0.408912 -0.0114114 -0.319935
-0.420499 -0.0158372 -0.315505
-0.428412 0.00535316 -0.31709
-0.417162 -0.0185984 -0.311963
-0.421776 -0.0150533 -0.310778
-0.415702 -0.00392402 -0.310985
-0.41956 0.00475163 -0.313436
-0.413073 0.0137244 -0.313911
-0.410724 0.0158375 -0.313553
-0.39978 -0.0243746 -0.309138
-0.407832 0.00386561 -0.307369
-0.412364 0.0161691 -0.308394
-0.413612 -0.00379097 -0.306375
-0.413914 -0.0236989 -0.303083
-0.405516 0.0243381 -0.301297
-0.410972 -0.0172856 -0.299061
-0.412885 -0.00692991 -0.299404
-0.402587 -0.00754443 -0.296069
-0.397098 -0.0420745 -0.294431
-0.41326 -0.0116318 -0.293617
-0.40763 -0.00506922 -0.294073
-0.399437 0.00948373 -0.293597
-0.398459 -0.0142659 -0.291415
-0.39456 -0.00568357 -0.290673
-0.39284 -0.00139775 -0.291207
-0.388698 -0.0215157 -0.286629
-0.391525 -0.00801647 -0.287047
-0.39163 -0.00432287 -0.285486
-0.390685 0.00595915 -0.288443
-0.387326 -0.0143575 -0.282174
-0.392826 -0.0132236 -0.284063
-0.387708 -0.0101552 -0.282932
-0.386309 0.00898574 -0.282031
-0.383872 0.0110299 -0.282235
-0.390832 0.00298839 -0.280871
-0.384481 0.00195557 -0.28061
-0.383491 -0.0226665 -0.276763
-0.378989 -0.0129442 -0.276952
-0.381209 0.00343085 -0.277482
-0.376709 0.0181764 -0.274134
-0.382796 0.0230982 -0.275235
-0.380979 -0.014592 -0.272884
-0.36795 -0.00957951 -0.271654
-0.365609 0.0123528 -0.273481
-0.364119 0.0141426 -0.268332
-0.363533 0.00601812 -0.265599
-0.362193 0.0117525 -0.263535
-0.356407 0.0220202 -0.264267
-0.358681 -0.00657987 -0.261414
-0.355336 0.00206611 -0.262385
-0.357925 0.0048109 -0.261156
-0.352924 0.00427127 -0.259254
-0.362044 0.00720007 -0.261197
-0.361939 0.0308849 -0.259864
-0.361406 -0.0281073 -0.256991
-0.35656 -0.0270426 -0.25814
-0.355474 -0.00128369 -0.25866
-0.350266 -0.00189847 -0.256423
-0.355808 0.00620169 -0.256413
-0.351392 0.00911703 -0.255987
-0.356889 0.0158484 -0.25863
-0.345665 0.0143235 -0.255832
-0.350734 -0.0145462 -0.253779
-0.346128 -0.0141718 -0.25263
-0.346291 0.00773063 -0.253965
-0.337081 -0.00306794 -0.248912
-0.340995 0.0125596 -0.248214
-0.342207 0.0168894 -0.249191
-0.3492 -0.0374175 -0.246301
-0.332649 -0.00355242 -0.245467
-0.328795 0.00487605 -0.244686
-0.335247 0.0143549 -0.246928
-0.341646 -0.036759 -0.244472
-0.333096 -0.027771 -0.24127
-0.326854 -0.020942 -0.240495
-0.32584 -0.0172448 -0.241845
-0.328418 -0.0132379 -0.242667
-0.322805 -0.00730814 -0.241791
-0.320018 -0.00722706 -0.240657
-0.323712 -0.00210107 -0.242553
-0.32127 -0.00340831 -0.241364
-0.322002 0.000302387 -0.241902
-0.326672 0.0149943 -0.241635
-0.338621 0.0321751 -0.243854
-0.330533 -0.0323326 -0.240161
-0.322646 -0.0227745 -0.238379
-0.319871 -0.0158027 -0.238063
-0.323787 -0.0128776 -0.240694
-0.318436 -0.00978956 -0.239839
-0.316573 -0.00749993 -0.239157
-0.319053 -0.00434689 -0.239207
-0.313815 -0.00101208 -0.237278
-0.318383 0.000327992 -0.239037
-0.320326 0.00492082 -0.23982
-0.313703 0.00614345 -0.238035
-0.36153 0.00912417 -0.236458
-0.318109 0.0136049 -0.23825
-0.32527 0.0224284 -0.240638
-0.308545 -0.0192545 -0.234398
-0.313887 -0.0117458 -0.236588
-0.309805 -0.00921002 -0.234924
-0.314292 -0.00615663 -0.235833
-0.305145 -0.000571511 -0.233704
-0.309411 0.00182939 -0.235404
-0.310888 0.00518059 -0.236938
-0.307195 0.0131648 -0.234851
-0.318028 0.0278203 -0.236298
-0.304196 -0.0286241 -0.230384
-0.308462 -0.0247946 -0.232041
-0.30288 -0.0177172 -0.232255
-0.304105 -0.0150463 -0.23323
-0.303539 -0.0103239 -0.232481
-0.299729 -0.0069681 -0.231084
-0.301538 -0.00405469 -0.233144
-0.29558 -0.00210329 -0.230698
-0.295379 0.00302178 -0.230509
-0.30449 0.0152758 -0.233335
-0.306713 0.0285854 -0.2303
-0.314963 0.0372661 -0.231795
-0.293487 -0.0133734 -0.227926
-0.289153 0.00735303 -0.227606
-0.294414 0.0225533 -0.227727
-0.300765 0.0314727 -0.228061
-0.300838 0.0365745 -0.226385
-0.286232 -0.00440427 -0.22559
-0.282659 -0.00674767 -0.224475
-0.279422 -0.00610017 -0.223744
-0.280201 -0.00123671 -0.224236
-0.285171 0.000509268 -0.225291
-0.283209 0.00701711 -0.225121
-0.282742 0.00404257 -0.22453
-0.284932 0.0110949 -0.225464
-0.287229 0.0150644 -0.226191
-0.291921 0.0280684 -0.224377
-0.297036 0.0349958 -0.225354
-0.276519 -0.0108463 -0.221065
-0.274621 -0.00606788 -0.221721
-0.273914 -0.00315455 -0.221522
-0.269344 -0.00216358 -0.219636
-0.277284 0.000356696 -0.221967
-0.27272 0.00521494 -0.220866
-0.275739 0.00969234 -0.221869
-0.272497 0.00917968 -0.220562
-0.271963 0.0137245 -0.219911
-0.275178 0.0155199 -0.220943
-0.282871 0.0272707 -0.22085
-0.284834 0.0318958 -0.220262
-0.260868 -0.00969268 -0.215728
-0.261492 0.00224286 -0.216262
-0.275322 0.0275518 -0.217609
-0.293417 0.0517414 -0.216259
-0.268559 -0.031689 -0.214737
-0.26373 -0.0247133 -0.21463
-0.260279 -0.0257319 -0.212828
-0.258387 -0.0204338 -0.21308
-0.260491 -0.0165385 -0.213682
-0.257959 -0.0134144 -0.21339
-0.256794 0.0024659 -0.213172
-0.260768 0.00646092 -0.21467
-0.256179 0.00746994 -0.213777
-0.254339 0.0126316 -0.212662
-0.338791 0.0672906 -0.216853
-0.257193 -0.0260421 -0.211474
-0.250382 -0.0135874 -0.210816
-0.259159 -0.00892622 -0.211672
-0.253571 -0.00126914 -0.211955
-0.250376 0.00663497 -0.21028
-0.249798 0.01419 -0.21052
-0.255852 0.0183588 -0.21243
-0.250944 0.0183743 -0.209287
-0.298957 0.0261879 -0.211697
-0.248582 -0.0300176 -0.206949
-0.245834 -0.0230787 -0.207482
-0.247085 -0.0198118 -0.208475
-0.24137 -0.016656 -0.206662
-0.239895 -0.0100529 -0.206751
-0.237502 -0.00840435 -0.205809
-0.239141 0.0012854 -0.206826
-0.247405 0.0213931 -0.207357
-0.242697 -0.0340865 -0.203459
-0.240334 -0.0286095 -0.202985
-0.243013 -0.0245224 -0.204983
-0.232982 -0.0137025 -0.202393
-0.233116 0.00611686 -0.20414
-0.232241 0.0144513 -0.20307
-0.24207 0.0195434 -0.205406
-0.232333 0.0178396 -0.202651
-0.251049 -0.0467524 -0.202125
-0.228749 -0.0215506 -0.200607
-0.225787 -0.0196068 -0.198692
-0.227492 -0.0163474 -0.200731
-0.224277 -0.0157595 -0.199589
-0.221419 -0.0109536 -0.198796
-0.229031 -0.00816751 -0.201035
-0.225484 -0.000599151 -0.199991
-0.225194 0.0048428 -0.199736
-0.22686 0.00818091 -0.201444
-0.229212 0.0111842 -0.200229
-0.22355 0.0126374 -0.199651
-0.229815 0.015723 -0.201829
-0.235872 0.028267 -0.201072
-0.239847 -0.0448002 -0.198763
-0.23621 -0.0422713 -0.19807
-0.227578 -0.0315849 -0.19801
-0.222292 -0.0276084 -0.196624
-0.215586 -0.021327 -0.195244
-0.221171 -0.0197452 -0.196766
-0.220597 -0.0157478 -0.198018
-0.214924 -0.0116765 -0.196039
-0.219271 -0.00857914 -0.198122
-0.215034 -0.00575134 -0.196624
-0.21219 -0.000442612 -0.19538
-0.218183 0.000653141 -0.196896
-0.219454 0.00591774 -0.197327
-0.214153 0.00389903 -0.196217
-0.210633 0.00366134 -0.19472
-0.21586 0.0102336 -0.196606
-0.211108 0.00886758 -0.194808
-0.219884 0.0142938 -0.197883
-0.215473 0.0126241 -0.194575
-0.217544 0.0158931 -0.196567
-0.234973 -0.0549117 -0.191946
-0.235326 -0.0500836 -0.194581
-0.213405 -0.0245904 -0.193643
-0.214185 -0.0153485 -0.194256
-0.207556 -0.00898765 -0.19319
-0.204249 -0.00932318 -0.191732
-0.211513 -0.00424754 -0.194095
-0.206567 -0.00608077 -0.193082
-0.20936 -0.000420848 -0.193918
-0.207637 0.00280298 -0.19348
-0.239441 0.0133203 -0.194082
-0.211869 0.0127991 -0.194689
-0.206054 0.0144628 -0.192042
-0.221586 0.040735 -0.191629
-0.218861 -0.043608 -0.190553
-0.198616 -0.020788 -0.188142
-0.204484 -0.0159917 -0.191146
-0.20311 -0.0125741 -0.18959
-0.196322 -0.0100583 -0.188426
-0.213692 -0.00593004 -0.190691
-0.202375 -0.00626411 -0.191285
-0.201976 0.00289554 -0.190036
-0.196161 0.0109602 -0.187968
-0.214145 0.0355159 -0.191501
-0.219742 -0.0442766 -0.1868
-0.207247 -0.0426542 -0.186307
-0.191708 -0.0244522 -0.184778
-0.195711 -0.0188031 -0.186023
-0.191705 -0.0199671 -0.185061
-0.190509 -0.0154661 -0.185352
-0.190171 -0.0110024 -0.185743
-0.193776 -0.0073814 -0.186518
-0.19131 -0.00248547 -0.185523
-0.193357 0.0133794 -0.184157
-0.193593 0.0220206 -0.185901
-0.19998 -0.0223639 -0.184714
-0.188979 -0.0221683 -0.181789
-0.181581 -0.0136238 -0.18175
-0.188075 -0.00740931 -0.183757
-0.178906 -0.00434057 -0.180889
-0.180627 -0.000548586 -0.182092
-0.17808 0.0029228 -0.181092
-0.181538 0.00572047 -0.181417
-0.178402 0.00962569 -0.180839
-0.190452 0.0207731 -0.18374
-0.187578 0.025891 -0.181799
-0.210989 0.0578478 -0.180957
-0.217673 -0.0635438 -0.180698
-0.176892 -0.0218011 -0.178995
-0.178126 -0.0143408 -0.180255
-0.17918 -0.00751577 -0.180841
-0.170986 -0.00816963 -0.177961
-0.179914 -0.00404759 -0.177321
-0.17572 -0.00657815 -0.179928
-0.173282 -0.00533417 -0.178705
-0.173396 -0.000145365 -0.177987
-0.176534 0.00611051 -0.179168
-0.17764 0.0137436 -0.180165
-0.186109 0.0342607 -0.179163
-0.192703 -0.050054 -0.17667
-0.18272 -0.0358733 -0.177347
-0.185024 -0.0299376 -0.177978
-0.17309 -0.0222224 -0.176141
-0.16736 -0.0192299 -0.175343
-0.168997 -0.0129211 -0.176724
-0.163482 -0.00942085 -0.174093
[...]
POINT_DATA 764
VECTORS i float
0.0 0.0 0.0
0.0 0.0 0.0
0.0 0.0 0.0
0.0 0.0 0.0
0.0 0.0 0.0
0.0 0.0 0.0
0.0 0.0 0.0
0.0 0.0 0.0
0.0 0.0 0.0
0.0 0.0 0.0
0.0 0.0 0.0
0.0 0.0 0.0
0.0 0.0 0.0
0.0 0.0 0.0
0.0 0.0 0.0
0.0 0.0 0.0
0.0 0.0 0.0
0.0 0.0 0.0
0.0 0.0 0.0
0.0 0.0 0.0
0.0 0.0 0.0
0.0 0.0 0.0
0.0 0.0 0.0
0.0 0.0 0.0
0.0 0.0 0.0
0.0 0.0 0.0
0.0 0.0 0.0
0.0 0.0 0.0
0.0 0.0 0.0
0.0 0.0 0.0
0.0 0.0 0.0
0.0 0.0 0.0
0.0 0.0 0.0
0.0 0.0 0.0
0.0 0.0 0.0
0.0 0.0 0.0
0.0 0.0 0.0
0.0 0.0 0.0
0.0 0.0 0.0
0.0 0.0 0.0
0.0 0.0 0.0
0.0 0.0 0.0
0.0 0.0 0.0
0.0 0.0 0.0
0.0 0.0 0.0
0.0 0.0 0.0
0.0 0.0 0.0
0.0 0.0 0.0
0.0 0.0 0.0
0.0 0.0 0.0
0.0 0.0 0.0
0.0 0.0 0.0
0.0 0.0 0.0
0.0 0.0 0.0
0.0 0.0 0.0
0.0 0.0 0.0
0.0 0.0 0.0
0.0 0.0 0.0
0.0 0.0 0.0
0.0 0.0 0.0
0.0 0.0 0.0
0.0 0.0 0.0
0.0 0.0 0.0
0.0 0.0 0.0
0.0 0.0 0.0
0.0 0.0 0.0
0.0 0.0 0.0
0.0 0.0 0.0
0.0 0.0 0.0
0.0 0.0 0.0
0.0 0.0 0.0
0.0 0.0 0.0
0.0 0.0 0.0
0.0 0.0 0.0
0.0 0.0 0.0
0.0 0.0 0.0
0.0 0.0 0.0
0.0 0.0 0.0
0.0 0.0 0.0
0.0 0.0 0.0
0.0 0.0 0.0
0.0 0.0 0.0
0.0 0.0 0.0
0.0 0.0 0.0
0.0 0.0 0.0
0.0 0.0 0.0
0.0 0.0 0.0
0.0 0.0 0.0
0.0 0.0 0.0
0.0 0.0 0.0
0.0 0.0 0.0
0.0 0.0 0.0
0.0 0.0 0.0
0.0 0.0 0.0
0.0 0.0 0.0
0.0 0.0 0.0
0.0 0.0 0.0
0.0 0.0 0.0
0.0 0.0 0.0
0.0 0.0 0.0
0.0 0.0 0.0
0.0 0.0 0.0
0.0 0.0 0.0
0.0 0.0 0.0
0.0 0.0 0.0
0.0 0.0 0.0
0.0 0.0 0.0
0.0 0.0 0.0
0.0 0.0 0.0
0.0 0.0 0.0
0.0 0.0 0.0
0.0 0.0 0.0
0.0 0.0 0.0
0.0 0.0 0.0
0.0 0.0 0.0
0.0 0.0 0.0
0.0 0.0 0.0
0.0 0.0 0.0
0.0 0.0 0.0
0.0 0.0 0.0
0.0 0.0 0.0
0.0 0.0 0.0
0.0 0.0 0.0
0.0 0.0 0.0
0.0 0.0 0.0
0.0 0.0 0.0
0.0 0.0 0.0
0.0 0.0 0.0
0.0 0.0 0.0
0.0 0.0 0.0
0.0 0.0 0.0
0.0 0.0 0.0
0.0 0.0 0.0
0.0 0.0 0.0
0.0 0.0 0.0
0.0 0.0 0.0
0.0 0.0 0.0
0.0 0.0 0.0
0.0 0.0 0.0
0.0 0.0 0.0
0.0 0.0 0.0
0.0 0.0 0.0
0.0 0.0 0.0
0.0 0.0 0.0
0.0 0.0 0.0
0.0 0.0 0.0
0.0 0.0 0.0
0.0 0.0 0.0
0.0 0.0 0.0
0.0 0.0 0.0
0.0 0.0 0.0
0.0 0.0 0.0
0.0 0.0 0.0
0.0 0.0 0.0
0.0 0.0 0.0
0.0 0.0 0.0
0.0 0.0 0.0
0.0 0.0 0.0
0.0 0.0 0.0
0.0 0.0 0.0
0.0 0.0 0.0
0.0 0.0 0.0
0.0 0.0 0.0
0.0 0.0 0.0
0.0 0.0 0.0
0.0 0.0 0.0
0.0 0.0 0.0
0.0 0.0 0.0
0.0 0.0 0.0
0.0 0.0 0.0
0.0 0.0 0.0
0.0 0.0 0.0
0.0 0.0 0.0
0.0 0.0 0.0
0.0 0.0 0.0
0.0 0.0 0.0
0.0 0.0 0.0
0.0 0.0 0.0
0.0 0.0 0.0
0.0 0.0 0.0
0.0 0.0 0.0
0.0 0.0 0.0
0.0 0.0 0.0
0.0 0.0 0.0
0.0 0.0 0.0
0.0 0.0 0.0
0.0 0.0 0.0
0.0 0.0 0.0
0.0 0.0 0.0
0.0 0.0 0.0
0.0 0.0 0.0
0.0 0.0 0.0
0.0 0.0 0.0
0.0 0.0 0.0
0.0 0.0 0.0
0.0 0.0 0.0
0.0 0.0 0.0
0.0 0.0 0.0
0.0 0.0 0.0
0.0 0.0 0.0
0.0 0.0 0.0
0.0 0.0 0.0
0.0 0.0 0.0
0.0 0.0 0.0
0.0 0.0 0.0
0.0 0.0 0.0
0.0 0.0 0.0
0.0 0.0 0.0
0.0 0.0 0.0
0.0 0.0 0.0
0.0 0.0 0.0
0.0 0.0 0.0
0.0 0.0 0.0
0.0 0.0 0.0
0.0 0.0 0.0
0.0 0.0 0.0
0.0 0.0 0.0
0.0 0.0 0.0
0.0 0.0 0.0
0.0 0.0 0.0
0.0 0.0 0.0
0.0 0.0 0.0
0.0 0.0 0.0
0.0 0.0 0.0
0.0 0.0 0.0
0.0 0.0 0.0
0.0 0.0 0.0
0.0 0.0 0.0
0.0 0.0 0.0
0.0 0.0 0.0
0.0 0.0 0.0
0.0 0.0 0.0
0.0 0.0 0.0
0.0 0.0 0.0
0.0 0.0 0.0
0.0 0.0 0.0
0.0 0.0 0.0
0.0 0.0 0.0
0.0 0.0 0.0
0.0 0.0 0.0
0.0 0.0 0.0
0.0 0.0 0.0
0.0 0.0 0.0
0.0 0.0 0.0
0.0 0.0 0.0
0.0 0.0 0.0
0.0 0.0 0.0
0.0 0.0 0.0
0.0 0.0 0.0
0.0 0.0 0.0
0.0 0.0 0.0
0.0 0.0 0.0
0.0 0.0 0.0
0.0 0.0 0.0
0.0 0.0 0.0
0.0 0.0 0.0
0.0 0.0 0.0
0.0 0.0 0.0
0.0 0.0 0.0
0.0 0.0 0.0
0.0 0.0 0.0
0.0 0.0 0.0
0.0 0.0 0.0
0.0 0.0 0.0
0.0 0.0 0.0
0.0 0.0 0.0
0.0 0.0 0.0
0.0 0.0 0.0
0.0 0.0 0.0
0.0 0.0 0.0
0.0 0.0 0.0
0.0 0.0 0.0
0.0 0.0 0.0
0.0 0.0 0.0
0.0 0.0 0.0
0.0 0.0 0.0
0.0 0.0 0.0
0.0 0.0 0.0
0.0 0.0 0.0
0.0 0.0 0.0
0.0 0.0 0.0
0.0 0.0 0.0
0.0 0.0 0.0
0.0 0.0 0.0
0.0 0.0 0.0
0.0 0.0 0.0
0.0 0.0 0.0
0.0 0.0 0.0
0.0 0.0 0.0
0.0 0.0 0.0
0.0 0.0 0.0
0.0 0.0 0.0
0.0 0.0 0.0
0.0 0.0 0.0
0.0 0.0 0.0
0.0 0.0 0.0
0.0 0.0 0.0
0.0 0.0 0.0
0.0 0.0 0.0
0.0 0.0 0.0
0.0 0.0 0.0
0.0 0.0 0.0
0.0 0.0 0.0
0.0 0.0 0.0
0.0 0.0 0.0
0.0 0.0 0.0
0.0 0.0 0.0
0.0 0.0 0.0
0.0 0.0 0.0
0.0 0.0 0.0
0.0 0.0 0.0
0.0 0.0 0.0
0.0 0.0 0.0
0.0 0.0 0.0
0.0 0.0 0.0
0.0 0.0 0.0
0.0 0.0 0.0
0.0 0.0 0.0
0.0 0.0 0.0
0.0 0.0 0.0
0.0 0.0 0.0
0.0 0.0 0.0
0.0 0.0 0.0
0.0 0.0 0.0
0.0 0.0 0.0
0.0 0.0 0.0
0.0 0.0 0.0
0.0 0.0 0.0
0.0 0.0 0.0
0.0 0.0 0.0
0.0 0.0 0.0
0.0 0.0 0.0
0.0 0.0 0.0
0.0 0.0 0.0
0.0 0.0 0.0
0.0 0.0 0.0
0.0 0.0 0.0
0.0 0.0 0.0
0.0 0.0 0.0
0.0 0.0 0.0
0.0 0.0 0.0
0.0 0.0 0.0
0.0 0.0 0.0
0.0 0.0 0.0
0.0 0.0 0.0
0.0 0.0 0.0
0.0 0.0 0.0
0.0 0.0 0.0
0.0 0.0 0.0
0.0 0.0 0.0
0.0 0.0 0.0
0.0 0.0 0.0
0.0 0.0 0.0
0.0 0.0 0.0
0.0 0.0 0.0
0.0 0.0 0.0
0.0 0.0 0.0
0.0 0.0 0.0
0.0 0.0 0.0
0.0 0.0 0.0
0.0 0.0 0.0
0.0 0.0 0.0
0.0 0.0 0.0
0.0 0.0 0.0
0.0 0.0 0.0
0.0 0.0 0.0
0.0 0.0 0.0
0.0 0.0 0.0
0.0 0.0 0.0
0.0 0.0 0.0
0.0 0.0 0.0
0.0 0.0 0.0
0.0 0.0 0.0
0.0 0.0 0.0
0.0 0.0 0.0
0.0 0.0 0.0
0.0 0.0 0.0
0.0 0.0 0.0
0.0 0.0 0.0
0.0 0.0 0.0
0.0 0.0 0.0
0.0 0.0 0.0
0.0 0.0 0.0
0.0 0.0 0.0
0.0 0.0 0.0
0.0 0.0 0.0
0.0 0.0 0.0
0.0 0.0 0.0
0.0 0.0 0.0
0.0 0.0 0.0
0.0 0.0 0.0
0.0 0.0 0.0
0.0 0.0 0.0
0.0 0.0 0.0
0.0 0.0 0.0
0.0 0.0 0.0
0.0 0.0 0.0
0.0 0.0 0.0
0.0 0.0 0.0
0.0 0.0 0.0
0.0 0.0 0.0
0.0 0.0 0.0
0.0 0.0 0.0
0.0 0.0 0.0
0.0 0.0 0.0
0.0 0.0 0.0
0.0 0.0 0.0
0.0 0.0 0.0
0.0 0.0 0.0
0.0 0.0 0.0
0.0 0.0 0.0
0.0 0.0 0.0
0.0 0.0 0.0
0.0 0.0 0.0
0.0 0.0 0.0
0.0 0.0 0.0
0.0 0.0 0.0
0.0 0.0 0.0
0.0 0.0 0.0
0.0 0.0 0.0
0.0 0.0 0.0
0.0 0.0 0.0
0.0 0.0 0.0
0.0 0.0 0.0
0.0 0.0 0.0
0.0 0.0 0.0
0.0 0.0 0.0
0.0 0.0 0.0
0.0 0.0 0.0
0.0 0.0 0.0
0.0 0.0 0.0
0.0 0.0 0.0
0.0 0.0 0.0
0.0 0.0 0.0
0.0 0.0 0.0
0.0 0.0 0.0
0.0 0.0 0.0
0.0 0.0 0.0
0.0 0.0 0.0
0.0 0.0 0.0
0.0 0.0 0.0
0.0 0.0 0.0
0.0 0.0 0.0
0.0 0.0 0.0
0.0 0.0 0.0
0.0 0.0 0.0
0.0 0.0 0.0
0.0 0.0 0.0
0.0 0.0 0.0
0.0 0.0 0.0
0.0 0.0 0.0
0.0 0.0 0.0
0.0 0.0 0.0
0.0 0.0 0.0
0.0 0.0 0.0
0.0 0.0 0.0
0.0 0.0 0.0
0.0 0.0 0.0
0.0 0.0 0.0
0.0 0.0 0.0
0.0 0.0 0.0
0.0 0.0 0.0
0.0 0.0 0.0
0.0 0.0 0.0
0.0 0.0 0.0
0.0 0.0 0.0
0.0 0.0 0.0
0.0 0.0 0.0
0.0 0.0 0.0
0.0 0.0 0.0
0.0 0.0 0.0
0.0 0.0 0.0
0.0 0.0 0.0
0.0 0.0 0.0
0.0 0.0 0.0
0.0 0.0 0.0
0.0 0.0 0.0
0.0 0.0 0.0
0.0 0.0 0.0
0.0 0.0 0.0
0.0 0.0 0.0
0.0 0.0 0.0
0.0 0.0 0.0
0.0 0.0 0.0
0.0 0.0 0.0
0.0 0.0 0.0
0.0 0.0 0.0
0.0 0.0 0.0
0.0 0.0 0.0
0.0 0.0 0.0
0.0 0.0 0.0
0.0 0.0 0.0
0.0 0.0 0.0
0.0 0.0 0.0
0.0 0.0 0.0
0.0 0.0 0.0
0.0 0.0 0.0
0.0 0.0 0.0
0.0 0.0 0.0
0.0 0.0 0.0
0.0 0.0 0.0
0.0 0.0 0.0
0.0 0.0 0.0
0.0 0.0 0.0
0.0 0.0 0.0
0.0 0.0 0.0
0.0 0.0 0.0
0.0 0.0 0.0
0.0 0.0 0.0
0.0 0.0 0.0
0.0 0.0 0.0
0.0 0.0 0.0
0.0 0.0 0.0
0.0 0.0 0.0
0.0 0.0 0.0
0.0 0.0 0.0
0.0 0.0 0.0
0.0 0.0 0.0
0.0 0.0 0.0
0.0 0.0 0.0
0.0 0.0 0.0
0.0 0.0 0.0
0.0 0.0 0.0
0.0 0.0 0.0
0.0 0.0 0.0
0.0 0.0 0.0
0.0 0.0 0.0
0.0 0.0 0.0
0.0 0.0 0.0
0.0 0.0 0.0
0.0 0.0 0.0
0.0 0.0 0.0
0.0 0.0 0.0
0.0 0.0 0.0
0.0 0.0 0.0
0.0 0.0 0.0
0.0 0.0 0.0
0.0 0.0 0.0
0.0 0.0 0.0
0.0 0.0 0.0
0.0 0.0 0.0
0.0 0.0 0.0
0.0 0.0 0.0
0.0 0.0 0.0
0.0 0.0 0.0
0.0 0.0 0.0
0.0 0.0 0.0
0.0 0.0 0.0
0.0 0.0 0.0
0.0 0.0 0.0
0.0 0.0 0.0
0.0 0.0 0.0
0.0 0.0 0.0
0.0 0.0 0.0
0.0 0.0 0.0
0.0 0.0 0.0
0.0 0.0 0.0
0.0 0.0 0.0
0.0 0.0 0.0
0.0 0.0 0.0
0.0 0.0 0.0
0.0 0.0 0.0
0.0 0.0 0.0
0.0 0.0 0.0
0.0 0.0 0.0
0.0 0.0 0.0
0.0 0.0 0.0
0.0 0.0 0.0
0.0 0.0 0.0
0.0 0.0 0.0
0.0 0.0 0.0
0.0 0.0 0.0
0.0 0.0 0.0
0.0 0.0 0.0
0.0 0.0 0.0
0.0 0.0 0.0
0.0 0.0 0.0
0.0 0.0 0.0
0.0 0.0 0.0
0.0 0.0 0.0
0.0 0.0 0.0
0.0 0.0 0.0
0.0 0.0 0.0
0.0 0.0 0.0
0.0 0.0 0.0
0.0 0.0 0.0
0.0 0.0 0.0
0.0 0.0 0.0
0.0 0.0 0.0
0.0 0.0 0.0
0.0 0.0 0.0
0.0 0.0 0.0
0.0 0.0 0.0
0.0 0.0 0.0
0.0 0.0 0.0
0.0 0.0 0.0
0.0 0.0 0.0
0.0 0.0 0.0
0.0 0.0 0.0
0.0 0.0 0.0
0.0 0.0 0.0
0.0 0.0 0.0
0.0 0.0 0.0
0.0 0.0 0.0
0.0 0.0 0.0
0.0 0.0 0.0
0.0 0.0 0.0
0.0 0.0 0.0
0.0 0.0 0.0
0.0 0.0 0.0
0.0 0.0 0.0
0.0 0.0 0.0
0.0 0.0 0.0
0.0 0.0 0.0
0.0 0.0 0.0
0.0 0.0 0.0
0.0 0.0 0.0
0.0 0.0 0.0
0.0 0.0 0.0
0.0 0.0 0.0
0.0 0.0 0.0
0.0 0.0 0.0
0.0 0.0 0.0
0.0 0.0 0.0
0.0 0.0 0.0
0.0 0.0 0.0
0.0 0.0 0.0
0.0 0.0 0.0
0.0 0.0 0.0
0.0 0.0 0.0
0.0 0.0 0.0
0.0 0.0 0.0
0.0 0.0 0.0
0.0 0.0 0.0
0.0 0.0 0.0
0.0 0.0 0.0
0.0 0.0 0.0
0.0 0.0 0.0
0.0 0.0 0.0
0.0 0.0 0.0
0.0 0.0 0.0
0.0 0.0 0.0
0.0 0.0 0.0
0.0 0.0 0.0
0.0 0.0 0.0
0.0 0.0 0.0
0.0 0.0 0.0
0.0 0.0 0.0
0.0 0.0 0.0
0.0 0.0 0.0
0.0 0.0 0.0
0.0 0.0 0.0
0.0 0.0 0.0
0.0 0.0 0.0
0.0 0.0 0.0
0.0 0.0 0.0
0.0 0.0 0.0
0.0 0.0 0.0
0.0 0.0 0.0
0.0 0.0 0.0
0.0 0.0 0.0
0.0 0.0 0.0
0.0 0.0 0.0
0.0 0.0 0.0
0.0 0.0 0.0
0.0 0.0 0.0
0.0 0.0 0.0
0.0 0.0 0.0
0.0 0.0 0.0
0.0 0.0 0.0
0.0 0.0 0.0
0.0 0.0 0.0
0.0 0.0 0.0
0.0 0.0 0.0
0.0 0.0 0.0
0.0 0.0 0.0
0.0 0.0 0.0
0.0 0.0 0.0
0.0 0.0 0.0
0.0 0.0 0.0
0.0 0.0 0.0
0.0 0.0 0.0
0.0 0.0 0.0
0.0 0.0 0.0
0.0 0.0 0.0
0.0 0.0 0.0
0.0 0.0 0.0
0.0 0.0 0.0
0.0 0.0 0.0
0.0 0.0 0.0
0.0 0.0 0.0
0.0 0.0 0.0
0.0 0.0 0.0
0.0 0.0 0.0
0.0 0.0 0.0
0.0 0.0 0.0
0.0 0.0 0.0
0.0 0.0 0.0
0.0 0.0 0.0
0.0 0.0 0.0
0.0 0.0 0.0
0.0 0.0 0.0
0.0 0.0 0.0
0.0 0.0 0.0
0.0 0.0 0.0
0.0 0.0 0.0
0.0 0.0 0.0
0.0 0.0 0.0
0.0 0.0 0.0
0.0 0.0 0.0
0.0 0.0 0.0
0.0 0.0 0.0
0.0 0.0 0.0
0.0 0.0 0.0
0.0 0.0 0.0
0.0 0.0 0.0
0.0 0.0 0.0
0.0 0.0 0.0
0.0 0.0 0.0
0.0 0.0 0.0
0.0 0.0 0.0
0.0 0.0 0.0
0.0 0.0 0.0
0.0 0.0 0.0
0.0 0.0 0.0
0.0 0.0 0.0
0.0 0.0 0.0
0.0 0.0 0.0
0.0 0.0 0.0
0.0 0.0 0.0
0.0 0.0 0.0
0.0 0.0 0.0
0.0 0.0 0.0
0.0 0.0 0.0
0.0 0.0 0.0
0.0 0.0 0.0
0.0 0.0 0.0
0.0 0.0 0.0
0.0 0.0 0.0
0.0 0.0 0.0
0.0 0.0 0.0
0.0 0.0 0.0
0.0 0.0 0.0
0.0 0.0 0.0
0.0 0.0 0.0
0.0 0.0 0.0
0.0 0.0 0.0
0.0 0.0 0.0
0.0 0.0 0.0
0.0 0.0 0.0
0.0 0.0 0.0
0.0 0.0 0.0
0.0 0.0 0.0
0.0 0.0 0.0
0.0 0.0 0.0
0.0 0.0 0.0
0.0 0.0 0.0
0.0 0.0 0.0
0.0 0.0 0.0
0.0 0.0 0.0
0.0 0.0 0.0
0.0 0.0 0.0
0.0 0.0 0.0
0.0 0.0 0.0
VECTORS f float
0.0 0.0 0.0
0.0 0.0 -0.000346714
0.0 0.0 -0.00160516
0.0 0.0 -0.000346714
0.0 0.0 -0.000346714
0.0 0.0 -0.000346714
0.0 0.0 -0.00160516
0.0 0.0 -0.000346714
0.0 0.0 -0.000346714
0.0 0.0 -0.00160516
0.0 0.0 -0.00160516
0.0 0.0 -0.000346714
0.0 0.0 -0.000346714
0.0 0.0 -0.000346714
0.0 0.0 -0.000346714
0.0 0.0 -0.000346714
0.0 0.0 -0.000346714
0.0 0.0 -0.000346714
0.0 0.0 -0.00160516
0.0 0.0 -0.000346714
0.0 0.0 -0.00160516
0.0 0.0 -0.000346714
0.0 0.0 -0.000346714
0.00282434 -0.00437748 -0.00738699
0.0 0.0 -0.000346714
-0.00282434 0.00437748 0.00543512
0.0 0.0 -0.000346714
0.0 0.0 -0.00160516
0.0 0.0 -0.00160516
0.0 0.0 -0.000346714
0.0 0.0 -0.000346714
0.0 0.0 -0.000346714
0.0 0.0 -0.000346714
0.0 0.0 -0.000346714
0.0 0.0 -0.000346714
0.0 0.0 -0.000346714
0.0 0.0 -0.00160516
0.0 0.0 -0.000346714
0.0 0.0 -0.00160516
0.0 0.0 -0.00160516
0.0 0.0 -0.000346714
0.0 0.0 -0.000346714
0.0 0.0 -0.000346714
0.0 0.0 -0.000346714
0.0 0.0 -0.000346714
0.0 0.0 -0.000346714
0.0 0.0 -0.000346714
0.0 0.0 -0.00160516
0.0 0.0 -0.000346714
0.0 0.0 -0.000346714
0.0 0.0 -0.000346714
0.0 0.0 -0.000346714
0.0 0.0 -0.00160516
0.0 0.0 -0.00160516
0.0 0.0 -0.000346714
0.0 0.0 -0.00160516
0.0 0.0 -0.00160516
0.0 0.0 -0.000346714
0.0 0.0 -0.000346714
0.0 0.0 -0.000346714
0.0 0.0 -0.000346714
0.0 0.0 -0.000346714
0.0 0.0 -0.000346714
0.0 0.0 -0.00160516
0.0 0.0 -0.00160516
0.0 0.0 -0.000346714
0.0 0.0 -0.00160516
0.0 0.0 -0.00160516
0.0 0.0 -0.000346714
0.0 0.0 -0.000346714
0.0 0.0 -0.00160516
0.0 0.0 -0.000346714
0.0 0.0 -0.000346714
0.0 0.0 -0.000346714
0.0 0.0 -0.00160516
0.0 0.0 -0.000346714
0.0 0.0 -0.00160516
0.0 0.0 -0.00160516
0.0 0.0 -0.000346714
0.0 0.0 -0.000346714
0.0 0.0 -0.000346714
0.0 0.0 -0.00160516
0.0 0.0 -0.00160516
0.0 0.0 -0.000346714
0.0 0.0 -0.00160516
0.0 0.0 -0.000346714
0.0 0.0 -0.000346714
0.0 0.0 -0.000346714
0.0 0.0 -0.000346714
0.0 0.0 -0.000346714
0.0 0.0 -0.00160516
0.0 0.0 -0.000346714
0.0 0.0 -0.00160516
0.0 0.0 -0.00160516
0.0 0.0 -0.000346714
0.0 0.0 -0.000346714
0.0 0.0 -0.000346714
0.0 0.0 -0.000346714
0.0 0.0 -0.00160516
0.0 0.0 -0.000346714
0.0 0.0 -0.000346714
0.0 0.0 -0.000346714
0.0 0.0 -0.000346714
0.0 0.0 -0.00160516
0.0 0.0 -0.000346714
0.0 0.0 -0.00160516
0.0 0.0 -0.000346714
0.0 0.0 -0.000346714
0.0 0.0 -0.000346714
0.0 0.0 -0.00160516
0.0 0.0 -0.00160516
0.0 0.0 -0.000346714
0.0 0.0 -0.00160516
0.0 0.0 -0.000346714
0.0 0.0 -0.000346714
0.0 0.0 -0.000346714
0.0 0.0 -0.000346714
-9.28765e-05 -1.41443e-05 -2.5514e-05
0.0 0.0 -0.00160516
0.0 0.0 -0.000346714
0.0 0.0 -0.000346714
-0.00102892 0.000528405 0.00147081
0.0 0.0 -0.00160516
0.0 0.0 -0.00160516
0.0 0.0 -0.000346714
0.0 0.0 -0.000346714
0.0 0.0 -0.000346714
0.0 0.0 -0.00160516
0.0 0.0 -0.00160516
-4.79264e-05 -0.000516196 -0.000221003
-8.80512e-05 -1.3146e-05 -3.87097e-05
0.0 0.0 -0.00160516
-0.000399666 -0.000186933 -0.000189175
0.0 0.0 -0.000346714
0.0 0.0 -0.000346714
0.0 0.0 -0.00160516
0.0 0.0 -0.00160516
0.0 0.0 -0.00160516
-0.000411972 3.3991e-05 -0.000169855
7.48981e-05 -0.0157155 0.0117781
-0.00391549 0.00319956 0.0114761
-0.000104985 -1.59005e-05 1.58242e-05
2.56099e-05 -6.42214e-05 -1.95456e-05
0.0 0.0 -0.000346714
-0.000401013 0.000323438 0.00486282
0.0 0.0 -0.000346714
0.0 0.0 -0.000346714
0.0 0.0 -0.00160516
0.0 0.0 -0.00160516
-9.60252e-05 6.47496e-06 -5.66886e-06
-8.86272e-05 7.16337e-06 -3.76415e-05
-8.82148e-05 -1.32698e-05 -3.83086e-05
-8.47642e-05 -3.94974e-05 -4.44809e-05
0.000104413 -0.000269007 -0.000360128
-0.00023751 -0.000192233 0.000184322
-0.000435138 0.000113908 -0.000118583
-9.13316e-05 -1.38171e-05 -3.36556e-05
-8.41409e-05 -3.83754e-05 -4.11076e-05
0.000127666 0.000149923 -0.000763636
0.0 0.0 -0.000346714
0.000104045 0.000165054 9.75381e-05
0.0 0.0 -0.000346714
-9.19933e-05 7.19858e-06 -3.10932e-05
-8.79213e-05 6.96195e-06 -3.96932e-05
0.000341612 0.000411369 0.0052738
-7.54994e-05 -1.09637e-05 -7.51922e-05
0.0 0.0 -0.000346714
0.0 0.0 -0.000346714
0.0011227 0.000233442 0.000908498
-0.00189961 -0.00139379 0.00188581
0.0 0.0 -0.000346714
-0.000410861 0.000106123 -0.000161378
-3.64113e-05 3.5442e-06 -0.000170739
-8.97692e-05 7.1431e-06 -3.26537e-05
-4.28978e-05 3.08746e-06 -0.000166986
-0.000397047 -7.38464e-05 -0.000237773
-8.89054e-05 -1.07732e-05 -4.19438e-05
-8.50087e-05 -1.17076e-05 -3.85241e-05
-0.000250714 -3.25524e-05 0.00042433
-1.67607e-05 -6.44726e-06 -0.000206319
0.0 0.0 -0.000346714
0.0 0.0 -0.00160516
5.7755e-05 5.37695e-05 -0.00166456
-0.000112065 3.13158e-05 2.54433e-05
-8.46545e-05 -9.33201e-06 -4.8907e-05
-0.000158417 -7.74158e-05 -0.000883208
7.70229e-05 0.000152136 0.000308101
0.0 0.0 -0.000346714
0.0 0.0 -0.000346714
0.0 0.0 -0.000346714
0.0 0.0 -0.000346714
-9.07997e-05 -0.000147997 -0.000972298
0.0 0.0 -0.000346714
-0.000365897 -3.76159e-05 -0.000280263
-0.000407638 -4.7702e-05 0.0002739
-8.79988e-05 -9.2644e-06 -3.73227e-05
-6.36194e-05 -2.24106e-05 -0.000101507
0.0 0.0 -0.000346714
0.0 0.0 -0.000346714
0.0 0.0 -0.000346714
0.0 0.0 -0.00160516
-0.000407137 4.26229e-05 -0.000175137
6.35503e-05 9.67403e-06 -0.00113852
-8.70775e-05 -3.01366e-05 -4.19888e-05
-0.000143564 -5.30088e-05 0.000103949
-0.000375724 -0.00013016 -0.000299624
0.0 0.0 -0.00160516
0.0 0.0 -0.000346714
0.0 0.0 -0.000346714
0.0 0.0 -0.000346714
-8.40325e-05 3.10527e-05 -4.093e-05
-8.74013e-05 1.60284e-05 -7.0409e-06
0.0 0.0 -0.000346714
-8.86048e-05 -7.61178e-06 -3.70879e-05
-3.6312e-05 -2.33356e-05 -0.00086715
0.0 0.0 -0.000346714
0.000257906 0.000570629 0.00366447
-0.000390567 0.000179931 -0.000256308
-0.000273173 4.5494e-05 -0.000561418
-8.29514e-05 -6.52068e-06 -4.59383e-05
0.0 0.0 -0.000346714
-0.000376591 -0.000129277 -0.000234304
0.0 0.0 -0.000346714
0.0 0.0 -0.000346714
-8.40875e-05 4.16787e-05 -4.19185e-05
-0.000417525 0.000207417 -0.000130499
0.0 0.0 -0.000346714
-0.000101192 2.13273e-05 -1.48382e-05
0.0 0.0 -0.000346714
0.0 0.0 -0.000346714
-0.000625425 -3.75575e-05 0.000279672
-0.000278209 -1.33655e-05 -0.00046581
8.03872e-05 -5.53204e-07 -0.000509489
0.0 0.0 -0.00160516
-8.83844e-05 -2.5331e-05 -4.05776e-05
0.0 0.0 -0.000346714
-0.000421349 -0.000255242 -0.000139467
0.0 0.0 -0.000346714
0.0 0.0 -0.000346714
-8.54997e-05 4.40223e-05 -4.55453e-05
0.0 0.0 -0.000346714
-8.17285e-05 4.35138e-05 -4.80553e-05
0.0 0.0 -0.00160516
-8.90617e-05 1.9683e-05 -3.14072e-05
5.09371e-05 -1.87564e-05 -0.000393559
-8.69477e-05 1.91352e-05 -3.77719e-05
-8.593e-05 1.89184e-05 -3.99624e-05
0.0 0.0 -0.000346714
-0.00041567 -1.12782e-05 -0.00017656
-0.00051271 -2.58645e-05 0.000124451
2.23774e-05 -1.03394e-05 3.45125e-05
-8.7777e-05 -1.39195e-06 -3.65146e-05
0.0 0.0 -0.000346714
-8.85896e-05 -2.24345e-05 -4.02884e-05
-9.61627e-05 -2.73036e-05 -2.59966e-05
0.0 0.0 -0.000346714
0.0 0.0 -0.000346714
-6.63104e-05 9.08746e-05 -7.21856e-05
-6.63182e-05 9.08863e-05 -7.21638e-05
-8.25038e-05 4.4076e-05 -4.5223e-05
0.0 0.0 -0.00160516
0.0 0.0 -0.000346714
0.0 0.0 -0.000346714
-0.000308484 -8.09746e-06 -0.000442997
-0.000687093 8.71454e-05 0.000519525
0.0 0.0 -0.000346714
-8.96674e-05 -1.50503e-06 -3.29311e-05
0.0 0.0 -0.00160516
3.03152e-05 1.3875e-05 -0.000293274
-2.9438e-05 -7.16563e-06 -0.000174712
-0.000403072 -0.000370753 -0.000114766
-7.60197e-05 6.98447e-05 -5.54766e-05
0.0 0.0 -0.000346714
9.54315e-06 -0.000278319 -0.000582234
-9.54315e-06 0.000278319 -0.00136964
6.13957e-05 -1.98903e-05 -0.000439075
0.0 0.0 -0.000346714
-8.97827e-05 3.69259e-07 -3.81732e-05
0.0 0.0 -0.00160516
0.0 0.0 -0.000346714
-0.000369447 -0.000212789 0.000683047
0.0 0.0 -0.000346714
-0.000572792 0.000580165 0.00133092
-1.01832e-05 2.59778e-05 -7.0739e-05
0.0 0.0 -0.00160516
0.0 0.0 -0.000346714
-8.6289e-05 2.48619e-05 -3.85866e-05
-8.62903e-05 2.48624e-05 -3.85822e-05
-0.00149819 4.99082e-05 0.00276155
-0.0005446 1.7225e-05 -8.50042e-06
0.0 0.0 -0.00160516
-0.000169424 -8.67122e-05 0.000110055
0.0 0.0 -0.00160516
0.0 0.0 -0.00160516
0.0 0.0 -0.000346714
0.0 0.0 -0.00160516
0.0 0.0 -0.000346714
-8.81563e-05 3.96161e-06 -3.69881e-05
-8.8477e-05 1.31057e-05 0.000154054
-0.000409873 -8.20977e-05 -0.00018186
-8.93097e-05 -1.78677e-05 -3.78533e-05
-0.00039021 -0.00018805 -0.000212731
0.0 0.0 -0.000346714
0.0 0.0 -0.000346714
-6.71079e-05 0.000109765 -9.5746e-05
-0.000110669 5.05642e-05 -4.50611e-06
0.0 0.0 -0.000346714
0.0 0.0 -0.000346714
-2.34547e-05 4.2366e-06 -0.000179013
0.0 0.0 -0.000346714
-0.000104652 -7.10924e-05 -0.000497737
0.000104652 7.10924e-05 -0.000195692
8.68662e-05 -2.67075e-06 -0.00154768
0.0 0.0 -0.00160516
2.01648e-05 -2.53725e-06 8.00675e-06
-4.68089e-05 -1.00189e-05 -0.00106325
-0.000332647 0.000393137 -0.000321713
-0.000514346 0.00027546 9.08813e-05
0.0 0.0 -0.000346714
0.0 0.0 -0.00160516
0.0 0.0 -0.000346714
5.12587e-06 2.37518e-06 -0.000258084
0.0 0.0 -0.000346714
0.0 0.0 -0.000346714
-9.09449e-05 3.1094e-06 -2.93008e-05
-3.92844e-05 -4.46203e-07 -0.000180641
-0.000102286 4.23911e-07 -1.41094e-05
0.0 0.0 -0.000346714
0.00150553 0.00106012 -0.000460285
0.000101262 -9.88041e-05 -0.000149699
0.0 0.0 -0.00160516
0.0 0.0 -0.00160516
0.0 0.0 -0.000346714
-0.000105012 1.90233e-05 -9.64335e-07
-9.08065e-05 1.21357e-05 -3.40677e-05
-8.71093e-05 -2.53935e-06 -3.58731e-05
0.0 0.0 -0.00160516
0.0 0.0 -0.00160516
-0.00128955 -0.00027254 0.00123858
-0.000255084 -4.95066e-05 -0.000491588
-0.000741002 -0.000351833 0.000570594
-9.13112e-05 -4.14336e-05 -3.19256e-05
0.0 0.0 -0.000346714
0.0 0.0 -0.000346714
-0.000413366 -1.20152e-05 -0.000145764
0.0 0.0 -0.000346714
-0.00161419 7.03849e-06 0.0028631
-0.000421038 -2.37182e-05 -0.000176335
0.0 0.0 -0.000346714
-0.000382866 -8.90043e-05 -0.00025098
-8.334e-05 -4.00206e-05 -4.14645e-05
0.0 0.0 -0.000346714
0.0 0.0 -0.00160516
0.0 0.0 -0.00160516
0.0 0.0 -0.00160516
-0.000267047 2.20741e-06 0.000673258
0.0 0.0 -0.000346714
0.00124301 0.000582525 -0.00236293
-0.00348547 0.000106439 -0.0034201
-2.72021e-05 -7.2746e-06 -0.000134503
-0.000228933 -6.77326e-05 0.000105302
0.0 0.0 -0.000346714
-0.000292219 -0.00019681 -0.000555268
0.0 0.0 -0.000346714
-8.75457e-05 3.02618e-05 -4.22614e-05
0.000918025 0.000370458 -0.00136903
0.0 0.0 -0.00160516
0.0 0.0 -0.00160516
0.0 0.0 -0.00160516
-0.00094142 7.36891e-05 0.00114065
0.0 0.0 -0.000346714
0.0 0.0 -0.000346714
0.0 0.0 -0.000346714
-8.96183e-05 9.15569e-07 -3.8399e-05
-0.000363041 -1.4575e-05 -0.000373821
-0.00124301 -0.000582525 0.000411058
-8.89985e-05 -1.04784e-05 -4.12025e-05
0.00493478 -0.000211568 0.0062378
0.000842266 0.00010503 -0.00105501
-0.000419538 -0.000128067 0.00043578
-2.62843e-05 0.000139121 -5.1531e-05
-0.000398704 0.000136765 -0.000174619
0.0 0.0 -0.000346714
0.0 0.0 -0.000346714
0.0 0.0 -0.000346714
0.0 0.0 -0.000346714
0.0 0.0 -0.00160516
0.0 0.0 -0.00160516
0.0 0.0 -0.000346714
-4.03609e-05 1.41484e-06 -0.000117428
0.0 0.0 -0.000346714
0.0 0.0 -0.00160516
-9.44256e-05 1.12036e-06 -3.04255e-05