# vtk DataFile Version 2.0
Generated by lpp.py
ASCII
DATASET POLYDATA
POINTS 641 float
-0.472295 -0.00227067 -0.393489
-0.495292 0.0408762 -0.355797
-0.468865 -0.00420179 -0.350358
-0.444312 -0.0100346 -0.329013
-0.427858 -0.00559133 -0.32206
-0.441624 0.0294346 -0.320527
-0.433899 -0.000999922 -0.317256
-0.417276 0.0100552 -0.30703
-0.407652 -0.00656799 -0.295758
-0.403328 0.0281531 -0.290786
-0.41087 0.0309101 -0.293498
-0.442922 -0.0559348 -0.290319
-0.394995 0.0164224 -0.288766
-0.392215 0.0254884 -0.282313
-0.386939 -0.00696923 -0.281577
-0.389657 0.0282099 -0.279167
-0.37778 0.000277293 -0.275103
-0.378218 0.00582533 -0.275185
-0.382307 0.0170883 -0.277164
-0.395837 0.0376848 -0.277346
-0.383369 -0.0194119 -0.272253
-0.374932 -0.000808688 -0.272102
-0.377063 0.0124535 -0.273234
-0.386146 0.0252126 -0.274648
-0.367481 0.00669384 -0.269131
-0.374012 0.0125716 -0.269908
-0.369161 0.0101618 -0.267077
-0.3785 0.027927 -0.26976
-0.370277 -0.0214949 -0.264209
-0.368914 -0.0122631 -0.266126
-0.366482 -0.0102369 -0.264869
-0.366165 0.0141365 -0.265622
-0.383487 0.0424925 -0.265939
-0.369237 -0.0297679 -0.261571
-0.357166 -0.00318074 -0.259278
-0.378943 0.0443573 -0.262053
-0.346003 -0.0070021 -0.253412
-0.343571 -0.00300514 -0.25243
-0.345414 0.00712081 -0.253063
-0.343459 -0.0109564 -0.250224
-0.335806 -0.00443018 -0.24784
-0.339108 0.00457117 -0.24868
-0.340584 0.00815379 -0.250336
-0.335369 0.00755717 -0.247694
-0.337743 0.00969124 -0.24873
-0.344481 0.0259484 -0.248067
-0.33396 -0.0136697 -0.244981
-0.333549 0.0213001 -0.244659
-0.341485 0.0288614 -0.245041
-0.329159 -0.0146154 -0.242692
-0.32384 -0.010255 -0.242006
-0.324272 0.00415839 -0.242633
-0.322432 0.00641131 -0.241652
-0.348012 0.0435447 -0.242685
-0.311633 -0.00976545 -0.236969
-0.318246 -0.00626857 -0.238937
-0.328335 0.0290484 -0.238993
-0.34519 -0.0521092 -0.23538
-0.308202 -0.0108444 -0.234365
-0.305975 0.0133071 -0.233238
-0.321987 0.0397763 -0.233573
-0.313984 -0.0365228 -0.231572
-0.295923 -0.0232933 -0.22827
-0.297847 0.00639461 -0.231334
-0.295872 0.00335721 -0.22961
-0.294871 0.00744706 -0.230014
-0.297453 0.0259547 -0.228333
-0.327461 -0.0107243 -0.227836
-0.291888 0.0104489 -0.228563
-0.289212 -0.0296459 -0.223827
-0.288348 -0.0241814 -0.223953
-0.279908 0.00277493 -0.222917
-0.282045 0.00679501 -0.224643
-0.283521 0.0160368 -0.22443
-0.275681 0.0141923 -0.221409
-0.285391 0.0201941 -0.224483
-0.304872 -0.0528848 -0.219964
-0.284254 -0.0283724 -0.222024
-0.277973 -0.0306894 -0.218729
-0.274486 -0.0177397 -0.220483
-0.276837 -0.00165007 -0.22192
-0.268804 -0.00279255 -0.218304
-0.268103 0.00474889 -0.218925
-0.273034 0.00745432 -0.220881
-0.270817 0.011001 -0.219753
-0.273556 0.015971 -0.220198
-0.274598 0.0262689 -0.218813
-0.275555 0.0312331 -0.217711
-0.283475 0.0376548 -0.219077
-0.293303 0.0423935 -0.220942
-0.27306 -0.0299194 -0.217174
-0.275373 -0.025446 -0.218298
-0.26359 -0.0211615 -0.215243
-0.258092 -0.00448462 -0.214804
-0.261389 -0.000944864 -0.216351
-0.261248 0.00281344 -0.215037
-0.263551 0.0184243 -0.214549
-0.273148 0.0226684 -0.217854
-0.270768 0.0323409 -0.215465
-0.256893 -0.027261 -0.210985
-0.255131 -0.0046573 -0.213525
-0.25117 -0.00135999 -0.210946
-0.260095 0.0216311 -0.21371
-0.253923 0.0183994 -0.211611
-0.253746 -0.0274677 -0.20836
-0.248569 -0.0205488 -0.207878
-0.24421 -0.00897442 -0.208735
-0.240904 -0.00888966 -0.207283
-0.240739 -0.00194536 -0.207623
-0.249908 0.00353623 -0.210211
-0.243815 0.00407292 -0.208713
-0.248518 0.0117306 -0.209246
-0.25255 -0.0356786 -0.207035
-0.239304 -0.0132359 -0.205157
-0.237095 -0.00671943 -0.205463
-0.234759 -0.00270531 -0.203452
-0.240756 0.002371 -0.206389
-0.237078 0.00996985 -0.205665
-0.238112 0.0151129 -0.205482
-0.249273 0.0305373 -0.206041
-0.25388 -0.0481124 -0.202721
-0.243296 -0.0326336 -0.203018
-0.238959 -0.0307839 -0.202474
-0.237929 -0.0270667 -0.20235
-0.229452 -0.0241821 -0.200361
-0.226572 -0.00466946 -0.200433
-0.224202 -0.00106014 -0.200539
-0.230554 0.00148131 -0.203195
-0.233603 0.00921239 -0.20316
-0.22905 0.0103807 -0.20116
-0.285935 -0.0703364 -0.198925
-0.224744 -0.0144435 -0.198818
-0.221602 -0.00576629 -0.198261
-0.219776 -0.00157709 -0.19869
-0.221359 0.0044767 -0.199049
-0.218549 0.00384565 -0.197584
-0.226524 0.0212042 -0.19871
-0.222574 0.0238159 -0.196302
-0.234518 0.0313525 -0.199751
-0.231438 0.0376067 -0.197943
-0.235976 0.0431991 -0.197634
-0.223224 -0.0302384 -0.195338
-0.214545 -0.0149603 -0.195491
-0.213373 -0.0104663 -0.195479
-0.212244 -0.00924161 -0.192922
-0.212868 -0.00749275 -0.195563
-0.214819 -0.00304216 -0.195498
-0.209248 0.000954232 -0.193081
-0.222037 0.0129545 -0.198638
-0.212728 0.0129803 -0.195024
-0.212778 0.0214939 -0.194018
-0.213598 0.0244602 -0.193799
-0.215344 0.0280927 -0.193714
-0.223813 0.0324474 -0.195062
-0.229408 0.0400314 -0.196182
-0.235838 0.0517438 -0.193995
-0.20855 -0.0117279 -0.192231
-0.204832 -0.0146978 -0.190376
-0.208575 -0.0065263 -0.192198
-0.203817 -0.00639086 -0.191903
-0.204857 0.000454514 -0.192311
-0.206078 0.00634225 -0.191727
-0.199874 0.00480377 -0.190233
-0.205705 0.0109183 -0.18975
-0.216526 0.016843 -0.194855
-0.205565 0.0226384 -0.190845
-0.215239 -0.0501289 -0.186749
-0.207832 -0.0362562 -0.188608
-0.203962 -0.0299699 -0.188497
-0.198722 -0.0198541 -0.187218
-0.198086 -0.0138649 -0.188752
-0.192019 -0.0164365 -0.18586
-0.18998 -0.00730558 -0.185979
-0.194707 -0.00141445 -0.186941
-0.204642 0.00253446 -0.188411
-0.19243 0.00451994 -0.186034
-0.195316 0.00664391 -0.188297
-0.193547 -0.036888 -0.182647
-0.202359 -0.0337921 -0.18585
-0.194198 -0.0293701 -0.183565
-0.189833 -0.025178 -0.183823
-0.18854 -0.00271194 -0.184345
-0.183271 0.00310557 -0.182186
-0.186851 0.00773265 -0.184573
-0.182701 0.00774067 -0.182652
-0.184022 0.0109963 -0.183089
-0.186887 0.0187599 -0.183587
-0.189837 0.0217004 -0.184396
-0.191513 0.0280409 -0.183778
-0.198478 0.0414528 -0.18307
-0.181611 -0.0161276 -0.180514
-0.178211 -0.0107138 -0.180846
-0.183106 -0.0100058 -0.181859
-0.182078 -0.00478685 -0.181541
-0.178193 0.000605582 -0.180013
-0.172859 0.000400019 -0.178856
-0.17574 0.00973862 -0.179698
-0.181318 0.0209634 -0.180958
-0.190373 0.0376908 -0.181021
-0.17404 -0.0221794 -0.177701
-0.170053 -0.024932 -0.175485
-0.171659 -0.0188216 -0.176132
-0.169699 -0.0140352 -0.175584
-0.170482 -0.00847456 -0.176643
-0.165439 -0.0103463 -0.17542
-0.168893 -0.00398861 -0.177158
-0.170586 0.00595945 -0.177829
-0.166799 0.00831554 -0.176053
-0.174912 0.0136358 -0.177909
-0.171169 0.0108058 -0.176608
-0.166324 0.0144353 -0.175352
-0.175579 0.0244442 -0.177858
-0.249004 -0.0812714 -0.175742
-0.169786 -0.0330289 -0.172637
-0.167924 -0.0213985 -0.17402
-0.162315 -0.0175784 -0.173447
-0.160677 -0.0095155 -0.173508
-0.161663 -0.00476976 -0.174122
-0.158233 -0.00554894 -0.172713
-0.155557 -0.00381061 -0.171577
-0.158943 -0.00139361 -0.171884
-0.158264 0.00556039 -0.172588
-0.156744 0.00888816 -0.17164
-0.159849 0.0143247 -0.172396
-0.159552 0.0179602 -0.17225
-0.220905 -0.075879 -0.171415
-0.156968 -0.00915163 -0.17088
-0.171554 -0.0040208 -0.1703
-0.147474 -0.00634952 -0.168087
-0.152922 -0.000683302 -0.170006
-0.154475 0.00448669 -0.171054
-0.148914 0.0106956 -0.16845
-0.159217 0.0307665 -0.16853
-0.162121 0.0346644 -0.169065
-0.164993 0.0379556 -0.170506
-0.141935 -0.0119662 -0.165438
-0.14412 -0.00887305 -0.166569
-0.139847 -0.00875842 -0.1648
-0.145439 -0.0053302 -0.164256
-0.145644 -0.000124793 -0.167405
-0.156538 0.00513412 -0.167066
-0.145735 0.00963008 -0.166087
-0.156195 0.0149956 -0.170141
-0.147057 0.014112 -0.166103
-0.148482 0.0181398 -0.166343
-0.141357 -0.0301773 -0.162654
-0.132717 -0.0193737 -0.160803
-0.13386 -0.0155118 -0.160635
-0.146399 -0.01499 -0.163573
-0.135844 -0.00877872 -0.162036
-0.149943 -0.00796637 -0.162439
-0.142079 -0.00424377 -0.161943
-0.13229 -0.00567692 -0.161678
-0.136472 -0.00348447 -0.160619
-0.135904 0.00352411 -0.161213
-0.146281 0.00604717 -0.161954
-0.137548 0.00755851 -0.162658
-0.136219 0.0146726 -0.162749
-0.129953 0.0144924 -0.160198
-0.14032 0.0137889 -0.163502
-0.133852 0.0160895 -0.161565
-0.174052 0.025024 -0.165951
-0.143237 0.035288 -0.16221
-0.145755 0.0376336 -0.162765
-0.129853 -0.0313449 -0.15758
-0.12727 -0.0210214 -0.158259
-0.123017 -0.0167728 -0.157072
-0.145001 -0.0103714 -0.159615
-0.123701 -0.0106338 -0.156722
-0.126537 -0.00615663 -0.159247
-0.1307 -0.0026667 -0.158559
-0.126109 -0.00180162 -0.158856
-0.126324 0.00417722 -0.158096
-0.120628 0.00992429 -0.156516
-0.130201 0.018789 -0.158633
-0.125562 0.0196583 -0.157687
-0.126699 -0.0283587 -0.156891
-0.120801 -0.0240238 -0.155106
-0.124068 -0.0217608 -0.155725
-0.119717 -0.0212265 -0.154749
-0.13049 -0.00439369 -0.15389
-0.12434 -0.00384017 -0.157533
-0.120747 -0.0034507 -0.156445
-0.121919 0.00271669 -0.155814
-0.117947 0.00542671 -0.154795
-0.121604 0.0144026 -0.156629
-0.118733 0.0158439 -0.154188
-0.117718 -0.0363019 -0.151323
-0.111292 -0.0253173 -0.15097
-0.115762 -0.0124568 -0.151686
-0.132634 -0.00306702 -0.149183
-0.119295 -0.00607451 -0.155925
-0.105829 -0.00299385 -0.150384
-0.152193 -0.000807351 -0.152388
-0.111657 0.00123761 -0.152007
-0.114742 0.0128459 -0.153854
-0.111573 0.0190381 -0.151976
-0.119568 0.0231507 -0.153601
-0.116329 -0.0470794 -0.147775
-0.117087 -0.0353695 -0.14714
-0.104354 -0.0215272 -0.14748
-0.103143 -0.0160536 -0.148798
-0.107561 -0.00689575 -0.15017
-0.100443 -0.0103678 -0.14693
-0.115094 -0.00513204 -0.154355
-0.0964581 -0.000276062 -0.146686
-0.106094 0.00345197 -0.149008
-0.101705 0.00358236 -0.14828
-0.111941 0.00766882 -0.152645
-0.105404 0.0132145 -0.149124
-0.10944 0.0324825 -0.147769
-0.110526 0.0391076 -0.146
-0.19971 -0.094113 -0.145472
-0.113483 -0.0490972 -0.145986
-0.107841 -0.043299 -0.145449
-0.119228 -0.0277945 -0.147265
-0.0998574 -0.0153197 -0.146349
-0.0926631 -0.0152977 -0.144429
-0.158783 -0.0106274 -0.148711
-0.0946157 -0.0117487 -0.144294
-0.0920064 -0.0082987 -0.1446
-0.0945039 -0.00415398 -0.144807
-0.0930559 0.00459836 -0.144001
[...]
POINT_DATA 641
VECTORS i float
0.0 0.0 0.0
0.0 0.0 0.0
0.0 0.0 0.0
0.0 0.0 0.0
0.0 0.0 0.0
0.0 0.0 0.0
0.0 0.0 0.0
0.0 0.0 0.0
0.0 0.0 0.0
0.0 0.0 0.0
0.0 0.0 0.0
0.0 0.0 0.0
0.0 0.0 0.0
0.0 0.0 0.0
0.0 0.0 0.0
0.0 0.0 0.0
0.0 0.0 0.0
0.0 0.0 0.0
0.0 0.0 0.0
0.0 0.0 0.0
0.0 0.0 0.0
0.0 0.0 0.0
0.0 0.0 0.0
0.0 0.0 0.0
0.0 0.0 0.0
0.0 0.0 0.0
0.0 0.0 0.0
0.0 0.0 0.0
0.0 0.0 0.0
0.0 0.0 0.0
0.0 0.0 0.0
0.0 0.0 0.0
0.0 0.0 0.0
0.0 0.0 0.0
0.0 0.0 0.0
0.0 0.0 0.0
0.0 0.0 0.0
0.0 0.0 0.0
0.0 0.0 0.0
0.0 0.0 0.0
0.0 0.0 0.0
0.0 0.0 0.0
0.0 0.0 0.0
0.0 0.0 0.0
0.0 0.0 0.0
0.0 0.0 0.0
0.0 0.0 0.0
0.0 0.0 0.0
0.0 0.0 0.0
0.0 0.0 0.0
0.0 0.0 0.0
0.0 0.0 0.0
0.0 0.0 0.0
0.0 0.0 0.0
0.0 0.0 0.0
0.0 0.0 0.0
0.0 0.0 0.0
0.0 0.0 0.0
0.0 0.0 0.0
0.0 0.0 0.0
0.0 0.0 0.0
0.0 0.0 0.0
0.0 0.0 0.0
0.0 0.0 0.0
0.0 0.0 0.0
0.0 0.0 0.0
0.0 0.0 0.0
0.0 0.0 0.0
0.0 0.0 0.0
0.0 0.0 0.0
0.0 0.0 0.0
0.0 0.0 0.0
0.0 0.0 0.0
0.0 0.0 0.0
0.0 0.0 0.0
0.0 0.0 0.0
0.0 0.0 0.0
0.0 0.0 0.0
0.0 0.0 0.0
0.0 0.0 0.0
0.0 0.0 0.0
0.0 0.0 0.0
0.0 0.0 0.0
0.0 0.0 0.0
0.0 0.0 0.0
0.0 0.0 0.0
0.0 0.0 0.0
0.0 0.0 0.0
0.0 0.0 0.0
0.0 0.0 0.0
0.0 0.0 0.0
0.0 0.0 0.0
0.0 0.0 0.0
0.0 0.0 0.0
0.0 0.0 0.0
0.0 0.0 0.0
0.0 0.0 0.0
0.0 0.0 0.0
0.0 0.0 0.0
0.0 0.0 0.0
0.0 0.0 0.0
0.0 0.0 0.0
0.0 0.0 0.0
0.0 0.0 0.0
0.0 0.0 0.0
0.0 0.0 0.0
0.0 0.0 0.0
0.0 0.0 0.0
0.0 0.0 0.0
0.0 0.0 0.0
0.0 0.0 0.0
0.0 0.0 0.0
0.0 0.0 0.0
0.0 0.0 0.0
0.0 0.0 0.0
0.0 0.0 0.0
0.0 0.0 0.0
0.0 0.0 0.0
0.0 0.0 0.0
0.0 0.0 0.0
0.0 0.0 0.0
0.0 0.0 0.0
0.0 0.0 0.0
0.0 0.0 0.0
0.0 0.0 0.0
0.0 0.0 0.0
0.0 0.0 0.0
0.0 0.0 0.0
0.0 0.0 0.0
0.0 0.0 0.0
0.0 0.0 0.0
0.0 0.0 0.0
0.0 0.0 0.0
0.0 0.0 0.0
0.0 0.0 0.0
0.0 0.0 0.0
0.0 0.0 0.0
0.0 0.0 0.0
0.0 0.0 0.0
0.0 0.0 0.0
0.0 0.0 0.0
0.0 0.0 0.0
0.0 0.0 0.0
0.0 0.0 0.0
0.0 0.0 0.0
0.0 0.0 0.0
0.0 0.0 0.0
0.0 0.0 0.0
0.0 0.0 0.0
0.0 0.0 0.0
0.0 0.0 0.0
0.0 0.0 0.0
0.0 0.0 0.0
0.0 0.0 0.0
0.0 0.0 0.0
0.0 0.0 0.0
0.0 0.0 0.0
0.0 0.0 0.0
0.0 0.0 0.0
0.0 0.0 0.0
0.0 0.0 0.0
0.0 0.0 0.0
0.0 0.0 0.0
0.0 0.0 0.0
0.0 0.0 0.0
0.0 0.0 0.0
0.0 0.0 0.0
0.0 0.0 0.0
0.0 0.0 0.0
0.0 0.0 0.0
0.0 0.0 0.0
0.0 0.0 0.0
0.0 0.0 0.0
0.0 0.0 0.0
0.0 0.0 0.0
0.0 0.0 0.0
0.0 0.0 0.0
0.0 0.0 0.0
0.0 0.0 0.0
0.0 0.0 0.0
0.0 0.0 0.0
0.0 0.0 0.0
0.0 0.0 0.0
0.0 0.0 0.0
0.0 0.0 0.0
0.0 0.0 0.0
0.0 0.0 0.0
0.0 0.0 0.0
0.0 0.0 0.0
0.0 0.0 0.0
0.0 0.0 0.0
0.0 0.0 0.0
0.0 0.0 0.0
0.0 0.0 0.0
0.0 0.0 0.0
0.0 0.0 0.0
0.0 0.0 0.0
0.0 0.0 0.0
0.0 0.0 0.0
0.0 0.0 0.0
0.0 0.0 0.0
0.0 0.0 0.0
0.0 0.0 0.0
0.0 0.0 0.0
0.0 0.0 0.0
0.0 0.0 0.0
0.0 0.0 0.0
0.0 0.0 0.0
0.0 0.0 0.0
0.0 0.0 0.0
0.0 0.0 0.0
0.0 0.0 0.0
0.0 0.0 0.0
0.0 0.0 0.0
0.0 0.0 0.0
0.0 0.0 0.0
0.0 0.0 0.0
0.0 0.0 0.0
0.0 0.0 0.0
0.0 0.0 0.0
0.0 0.0 0.0
0.0 0.0 0.0
0.0 0.0 0.0
0.0 0.0 0.0
0.0 0.0 0.0
0.0 0.0 0.0
0.0 0.0 0.0
0.0 0.0 0.0
0.0 0.0 0.0
0.0 0.0 0.0
0.0 0.0 0.0
0.0 0.0 0.0
0.0 0.0 0.0
0.0 0.0 0.0
0.0 0.0 0.0
0.0 0.0 0.0
0.0 0.0 0.0
0.0 0.0 0.0
0.0 0.0 0.0
0.0 0.0 0.0
0.0 0.0 0.0
0.0 0.0 0.0
0.0 0.0 0.0
0.0 0.0 0.0
0.0 0.0 0.0
0.0 0.0 0.0
0.0 0.0 0.0
0.0 0.0 0.0
0.0 0.0 0.0
0.0 0.0 0.0
0.0 0.0 0.0
0.0 0.0 0.0
0.0 0.0 0.0
0.0 0.0 0.0
0.0 0.0 0.0
0.0 0.0 0.0
0.0 0.0 0.0
0.0 0.0 0.0
0.0 0.0 0.0
0.0 0.0 0.0
0.0 0.0 0.0
0.0 0.0 0.0
0.0 0.0 0.0
0.0 0.0 0.0
0.0 0.0 0.0
0.0 0.0 0.0
0.0 0.0 0.0
0.0 0.0 0.0
0.0 0.0 0.0
0.0 0.0 0.0
0.0 0.0 0.0
0.0 0.0 0.0
0.0 0.0 0.0
0.0 0.0 0.0
0.0 0.0 0.0
0.0 0.0 0.0
0.0 0.0 0.0
0.0 0.0 0.0
0.0 0.0 0.0
0.0 0.0 0.0
0.0 0.0 0.0
0.0 0.0 0.0
0.0 0.0 0.0
0.0 0.0 0.0
0.0 0.0 0.0
0.0 0.0 0.0
0.0 0.0 0.0
0.0 0.0 0.0
0.0 0.0 0.0
0.0 0.0 0.0
0.0 0.0 0.0
0.0 0.0 0.0
0.0 0.0 0.0
0.0 0.0 0.0
0.0 0.0 0.0
0.0 0.0 0.0
0.0 0.0 0.0
0.0 0.0 0.0
0.0 0.0 0.0
0.0 0.0 0.0
0.0 0.0 0.0
0.0 0.0 0.0
0.0 0.0 0.0
0.0 0.0 0.0
0.0 0.0 0.0
0.0 0.0 0.0
0.0 0.0 0.0
0.0 0.0 0.0
0.0 0.0 0.0
0.0 0.0 0.0
0.0 0.0 0.0
0.0 0.0 0.0
0.0 0.0 0.0
0.0 0.0 0.0
0.0 0.0 0.0
0.0 0.0 0.0
0.0 0.0 0.0
0.0 0.0 0.0
0.0 0.0 0.0
0.0 0.0 0.0
0.0 0.0 0.0
0.0 0.0 0.0
0.0 0.0 0.0
0.0 0.0 0.0
0.0 0.0 0.0
0.0 0.0 0.0
0.0 0.0 0.0
0.0 0.0 0.0
0.0 0.0 0.0
0.0 0.0 0.0
0.0 0.0 0.0
0.0 0.0 0.0
0.0 0.0 0.0
0.0 0.0 0.0
0.0 0.0 0.0
0.0 0.0 0.0
0.0 0.0 0.0
0.0 0.0 0.0
0.0 0.0 0.0
0.0 0.0 0.0
0.0 0.0 0.0
0.0 0.0 0.0
0.0 0.0 0.0
0.0 0.0 0.0
0.0 0.0 0.0
0.0 0.0 0.0
0.0 0.0 0.0
0.0 0.0 0.0
0.0 0.0 0.0
0.0 0.0 0.0
0.0 0.0 0.0
0.0 0.0 0.0
0.0 0.0 0.0
0.0 0.0 0.0
0.0 0.0 0.0
0.0 0.0 0.0
0.0 0.0 0.0
0.0 0.0 0.0
0.0 0.0 0.0
0.0 0.0 0.0
0.0 0.0 0.0
0.0 0.0 0.0
0.0 0.0 0.0
0.0 0.0 0.0
0.0 0.0 0.0
0.0 0.0 0.0
0.0 0.0 0.0
0.0 0.0 0.0
0.0 0.0 0.0
0.0 0.0 0.0
0.0 0.0 0.0
0.0 0.0 0.0
0.0 0.0 0.0
0.0 0.0 0.0
0.0 0.0 0.0
0.0 0.0 0.0
0.0 0.0 0.0
0.0 0.0 0.0
0.0 0.0 0.0
0.0 0.0 0.0
0.0 0.0 0.0
0.0 0.0 0.0
0.0 0.0 0.0
0.0 0.0 0.0
0.0 0.0 0.0
0.0 0.0 0.0
0.0 0.0 0.0
0.0 0.0 0.0
0.0 0.0 0.0
0.0 0.0 0.0
0.0 0.0 0.0
0.0 0.0 0.0
0.0 0.0 0.0
0.0 0.0 0.0
0.0 0.0 0.0
0.0 0.0 0.0
0.0 0.0 0.0
0.0 0.0 0.0
0.0 0.0 0.0
0.0 0.0 0.0
0.0 0.0 0.0
0.0 0.0 0.0
0.0 0.0 0.0
0.0 0.0 0.0
0.0 0.0 0.0
0.0 0.0 0.0
0.0 0.0 0.0
0.0 0.0 0.0
0.0 0.0 0.0
0.0 0.0 0.0
0.0 0.0 0.0
0.0 0.0 0.0
0.0 0.0 0.0
0.0 0.0 0.0
0.0 0.0 0.0
0.0 0.0 0.0
0.0 0.0 0.0
0.0 0.0 0.0
0.0 0.0 0.0
0.0 0.0 0.0
0.0 0.0 0.0
0.0 0.0 0.0
0.0 0.0 0.0
0.0 0.0 0.0
0.0 0.0 0.0
0.0 0.0 0.0
0.0 0.0 0.0
0.0 0.0 0.0
0.0 0.0 0.0
0.0 0.0 0.0
0.0 0.0 0.0
0.0 0.0 0.0
0.0 0.0 0.0
0.0 0.0 0.0
0.0 0.0 0.0
0.0 0.0 0.0
0.0 0.0 0.0
0.0 0.0 0.0
0.0 0.0 0.0
0.0 0.0 0.0
0.0 0.0 0.0
0.0 0.0 0.0
0.0 0.0 0.0
0.0 0.0 0.0
0.0 0.0 0.0
0.0 0.0 0.0
0.0 0.0 0.0
0.0 0.0 0.0
0.0 0.0 0.0
0.0 0.0 0.0
0.0 0.0 0.0
0.0 0.0 0.0
0.0 0.0 0.0
0.0 0.0 0.0
0.0 0.0 0.0
0.0 0.0 0.0
0.0 0.0 0.0
0.0 0.0 0.0
0.0 0.0 0.0
0.0 0.0 0.0
0.0 0.0 0.0
0.0 0.0 0.0
0.0 0.0 0.0
0.0 0.0 0.0
0.0 0.0 0.0
0.0 0.0 0.0
0.0 0.0 0.0
0.0 0.0 0.0
0.0 0.0 0.0
0.0 0.0 0.0
0.0 0.0 0.0
0.0 0.0 0.0
0.0 0.0 0.0
0.0 0.0 0.0
0.0 0.0 0.0
0.0 0.0 0.0
0.0 0.0 0.0
0.0 0.0 0.0
0.0 0.0 0.0
0.0 0.0 0.0
0.0 0.0 0.0
0.0 0.0 0.0
0.0 0.0 0.0
0.0 0.0 0.0
0.0 0.0 0.0
0.0 0.0 0.0
0.0 0.0 0.0
0.0 0.0 0.0
0.0 0.0 0.0
0.0 0.0 0.0
0.0 0.0 0.0
0.0 0.0 0.0
0.0 0.0 0.0
0.0 0.0 0.0
0.0 0.0 0.0
0.0 0.0 0.0
0.0 0.0 0.0
0.0 0.0 0.0
0.0 0.0 0.0
0.0 0.0 0.0
0.0 0.0 0.0
0.0 0.0 0.0
0.0 0.0 0.0
0.0 0.0 0.0
0.0 0.0 0.0
0.0 0.0 0.0
0.0 0.0 0.0
0.0 0.0 0.0
0.0 0.0 0.0
0.0 0.0 0.0
0.0 0.0 0.0
0.0 0.0 0.0
0.0 0.0 0.0
0.0 0.0 0.0
0.0 0.0 0.0
0.0 0.0 0.0
0.0 0.0 0.0
0.0 0.0 0.0
0.0 0.0 0.0
0.0 0.0 0.0
0.0 0.0 0.0
0.0 0.0 0.0
0.0 0.0 0.0
0.0 0.0 0.0
0.0 0.0 0.0
0.0 0.0 0.0
0.0 0.0 0.0
0.0 0.0 0.0
0.0 0.0 0.0
0.0 0.0 0.0
0.0 0.0 0.0
0.0 0.0 0.0
0.0 0.0 0.0
0.0 0.0 0.0
0.0 0.0 0.0
0.0 0.0 0.0
0.0 0.0 0.0
0.0 0.0 0.0
0.0 0.0 0.0
0.0 0.0 0.0
0.0 0.0 0.0
0.0 0.0 0.0
0.0 0.0 0.0
0.0 0.0 0.0
0.0 0.0 0.0
0.0 0.0 0.0
0.0 0.0 0.0
0.0 0.0 0.0
0.0 0.0 0.0
0.0 0.0 0.0
0.0 0.0 0.0
0.0 0.0 0.0
0.0 0.0 0.0
0.0 0.0 0.0
0.0 0.0 0.0
0.0 0.0 0.0
0.0 0.0 0.0
0.0 0.0 0.0
0.0 0.0 0.0
0.0 0.0 0.0
0.0 0.0 0.0
0.0 0.0 0.0
0.0 0.0 0.0
0.0 0.0 0.0
0.0 0.0 0.0
0.0 0.0 0.0
0.0 0.0 0.0
0.0 0.0 0.0
0.0 0.0 0.0
0.0 0.0 0.0
0.0 0.0 0.0
0.0 0.0 0.0
0.0 0.0 0.0
0.0 0.0 0.0
0.0 0.0 0.0
0.0 0.0 0.0
0.0 0.0 0.0
0.0 0.0 0.0
0.0 0.0 0.0
0.0 0.0 0.0
0.0 0.0 0.0
0.0 0.0 0.0
0.0 0.0 0.0
0.0 0.0 0.0
0.0 0.0 0.0
0.0 0.0 0.0
0.0 0.0 0.0
0.0 0.0 0.0
0.0 0.0 0.0
0.0 0.0 0.0
0.0 0.0 0.0
0.0 0.0 0.0
0.0 0.0 0.0
0.0 0.0 0.0
0.0 0.0 0.0
0.0 0.0 0.0
0.0 0.0 0.0
0.0 0.0 0.0
0.0 0.0 0.0
0.0 0.0 0.0
0.0 0.0 0.0
0.0 0.0 0.0
0.0 0.0 0.0
0.0 0.0 0.0
0.0 0.0 0.0
0.0 0.0 0.0
0.0 0.0 0.0
0.0 0.0 0.0
0.0 0.0 0.0
0.0 0.0 0.0
0.0 0.0 0.0
0.0 0.0 0.0
0.0 0.0 0.0
0.0 0.0 0.0
0.0 0.0 0.0
0.0 0.0 0.0
0.0 0.0 0.0
0.0 0.0 0.0
0.0 0.0 0.0
0.0 0.0 0.0
0.0 0.0 0.0
0.0 0.0 0.0
0.0 0.0 0.0
0.0 0.0 0.0
0.0 0.0 0.0
0.0 0.0 0.0
0.0 0.0 0.0
0.0 0.0 0.0
0.0 0.0 0.0
0.0 0.0 0.0
0.0 0.0 0.0
0.0 0.0 0.0
0.0 0.0 0.0
0.0 0.0 0.0
0.0 0.0 0.0
0.0 0.0 0.0
0.0 0.0 0.0
0.0 0.0 0.0
0.0 0.0 0.0
0.0 0.0 0.0
0.0 0.0 0.0
VECTORS f float
0.0 0.0 -0.000346714
0.0 0.0 -0.000346714
0.0 0.0 -0.000346714
0.0 0.0 -0.00160516
0.0 0.0 -0.000346714
0.0 0.0 -0.000346714
0.0 0.0 -0.000346714
0.0 0.0 -0.00160516
0.0 0.0 -0.00160516
0.0 0.0 -0.000346714
0.0 0.0 -0.000346714
0.0 0.0 -0.000346714
0.0 0.0 -0.000346714
0.0 0.0 -0.000346714
0.0 0.0 -0.000346714
0.0 0.0 -0.000346714
0.0 0.0 -0.000346714
0.0 0.0 -0.000346714
0.0 0.0 -0.000346714
0.0 0.0 -0.00160516
0.0 0.0 -0.00160516
0.0 0.0 -0.000346714
0.0 0.0 -0.000346714
0.0 0.0 -0.00160516
0.0 0.0 -0.000346714
0.0 0.0 -0.00160516
0.0 0.0 -0.000346714
0.0 0.0 -0.000346714
0.0 0.0 -0.00160516
0.0 0.0 -0.000346714
0.0 0.0 -0.000346714
0.0 0.0 -0.000346714
0.0 0.0 -0.000346714
0.0 0.0 -0.000346714
0.0 0.0 -0.00160516
0.0 0.0 -0.000346714
0.0 0.0 -0.000346714
0.0 0.0 -0.000346714
0.0 0.0 -0.000346714
0.0 0.0 -0.00160516
0.0 0.0 -0.000346714
0.0 0.0 -0.00160516
0.0 0.0 -0.000346714
0.0 0.0 -0.000346714
0.0 0.0 -0.000346714
0.0 0.0 -0.00160516
0.0 0.0 -0.00160516
0.0 0.0 -0.000346714
0.0 0.0 -0.00160516
0.0 0.0 -0.00160516
0.0 0.0 -0.000346714
0.0 0.0 -0.000346714
0.0 0.0 -0.000346714
0.0 0.0 -0.000346714
0.0 0.0 -0.000346714
-0.000680551 9.78497e-05 -0.000300177
0.0 0.0 -0.00160516
0.0 0.0 -0.000346714
-0.000379899 4.62678e-05 -0.000268981
0.000130783 -0.000314847 0.000123243
-6.42944e-05 -8.77197e-05 -8.00323e-05
0.0 0.0 -0.000346714
-8.917e-05 4.93818e-05 -1.91271e-05
2.51311e-06 -9.16811e-05 -4.30564e-05
-0.000592862 -9.81626e-05 0.000652788
-8.21236e-05 -1.20157e-05 -5.89757e-05
-8.40551e-05 -3.83309e-05 -4.13347e-05
0.0 0.0 -0.00160516
-8.94174e-05 -1.35705e-05 -3.64203e-05
-1.97761e-05 1.00713e-05 -0.000210421
-0.000394092 0.000178071 -0.00019949
-0.00051227 -9.18143e-05 0.000176965
2.68545e-05 7.91624e-06 -0.000247318
-8.60821e-05 -3.6083e-05 -4.70492e-05
-0.000407954 -0.000170088 0.00051026
-9.83582e-05 -4.56272e-05 3.32224e-05
0.0 0.0 -0.000346714
0.0 0.0 -0.000346714
0.0 0.0 -0.000346714
-8.76136e-05 3.94733e-05 -3.72277e-05
0.0 0.0 -0.000346714
-0.000548544 4.99652e-05 0.000123282
0.0 0.0 -0.000346714
-0.000451785 -6.12316e-05 0.000951737
0.0 0.0 -0.000346714
-8.01189e-05 -3.20558e-05 -4.87809e-05
-7.05108e-05 0.000115827 -0.000213595
0.0 0.0 -0.000346714
2.46698e-05 2.54677e-05 -0.000360347
-5.8532e-05 -6.57465e-05 -0.000105134
0.0 0.0 -0.000346714
-0.000488754 0.000267235 0.00294022
0.0 0.0 -0.000346714
-8.88186e-05 9.23288e-06 -4.97393e-05
-0.000770129 6.42031e-05 0.00474519
-0.00201982 0.00472804 0.00177526
-0.000427443 -0.00015931 -0.000119345
-0.000288831 -0.00067928 0.000408195
-8.37174e-05 -5.83377e-05 -3.92648e-05
0.0 0.0 -0.000346714
0.0 0.0 -0.000346714
-0.000949842 0.00011451 0.0013158
-8.16769e-05 -3.15856e-05 -4.03185e-05
-8.7435e-05 -3.1445e-05 -3.58469e-05
0.0 0.0 -0.00160516
0.0 0.0 -0.00160516
-0.000900674 9.36983e-06 0.00158289
-2.2163e-05 4.50854e-06 -0.000133051
-0.000339085 3.01836e-05 0.000859409
-6.90715e-06 -3.19095e-06 -5.1355e-05
4.58342e-05 -1.3494e-05 0.000334582
-0.000398066 -0.000137617 -0.000207103
0.0 0.0 -0.000346714
-0.000157538 4.03751e-05 0.00354539
0.0 0.0 -0.000346714
0.0 0.0 -0.00160516
-0.000470974 -4.07821e-05 -8.2196e-05
-8.55501e-05 -6.6875e-06 -4.36213e-05
-8.79062e-05 -2.78088e-05 -4.19024e-05
-0.00036824 -0.000239145 -0.000232903
0.0 0.0 -0.000346714
-0.000372131 0.000248511 -0.000363904
0.0 0.0 -0.000346714
0.0 0.0 -0.000346714
-7.09939e-05 3.43702e-05 -7.98165e-05
-0.000411235 7.97291e-05 -6.26499e-05
-7.37605e-05 -5.24458e-06 0.000244865
-9.12185e-05 -5.32435e-06 -3.46322e-05
-0.000409257 -3.18779e-05 -0.000182837
0.0 0.0 -0.00160516
0.0 0.0 -0.000346714
0.000104836 0.000100494 0.000151456
-0.000402478 8.858e-05 -0.00017478
-8.9612e-05 -2.43261e-06 -3.844e-05
0.0 0.0 -0.000346714
0.0 0.0 -0.000346714
-0.000650717 -0.000208567 0.000516142
0.0 0.0 -0.00160516
-0.000345811 -0.000211297 -0.000297573
-9.42934e-05 -9.02008e-05 -1.64045e-06
0.0 0.0 -0.000346714
0.0 0.0 -0.00160516
0.0 0.0 -0.000346714
0.0 0.0 -0.000346714
0.0 0.0 -0.000346714
0.0 0.0 -0.000346714
-0.000411915 -1.11537e-05 -0.000188273
-0.000413065 -6.56555e-06 -0.000155592
0.0 0.0 -0.000346714
-0.000109418 -3.26261e-05 6.00502e-05
0.0 0.0 -0.000346714
0.0 0.0 -0.000346714
-8.71571e-05 -4.72126e-05 -4.03541e-05
-0.000382831 -0.000221547 -0.000206119
0.0 0.0 -0.000346714
0.0 0.0 -0.000346714
0.0 0.0 -0.00160516
-0.000266063 6.53564e-05 -0.000498002
0.0 0.0 -0.00160516
-8.9829e-05 3.63907e-07 -3.77232e-05
0.0 0.0 -0.000346714
-4.09074e-05 0.000378883 -9.86529e-05
-0.000202681 8.64135e-07 0.0001459
-3.65306e-05 0.000112275 -0.00158845
0.0 0.0 -0.000346714
0.0001256 -0.00156969 0.0191861
-7.61314e-05 6.99987e-05 -5.49837e-05
0.0 0.0 -0.000346714
-8.25571e-05 4.73907e-05 -4.46043e-05
-0.000433242 0.000118864 -0.000151275
6.83449e-05 4.68621e-05 0.000890116
-8.62898e-05 2.48621e-05 -3.85855e-05
-8.96592e-05 3.15531e-06 -3.8502e-05
-0.00041879 6.8077e-06 -0.000137125
0.0 0.0 -0.000346714
-0.000402168 6.4871e-06 -0.000179757
-8.88656e-05 -1.95823e-05 -3.98782e-05
-1.43025e-05 -5.90707e-06 -0.000307909
-0.0003825 0.000219605 -0.000204767
-0.000349163 0.00019013 -0.000432166
-8.49229e-05 4.67957e-05 -4.68219e-05
-0.000415668 1.46481e-05 -0.000175914
-0.00040816 1.83424e-05 -0.000171035
2.95414e-05 -2.81524e-05 0.000148063
0.0 0.0 -0.000346714
-7.90669e-05 -1.6815e-05 -5.99215e-05
-8.73871e-05 -1.88258e-05 -3.81542e-05
-8.55578e-05 -4.11099e-05 -4.43304e-05
-8.73466e-05 -4.42088e-05 -3.43399e-05
-7.92672e-05 -6.49819e-05 -6.00261e-05
-0.00046748 0.000134895 -5.30133e-05
-8.89348e-05 1.74546e-05 -3.94536e-05
-0.000419253 0.000123387 -9.59422e-05
-5.3435e-05 2.33113e-05 -0.00104717
-0.00040162 1.80743e-05 -0.00018427
0.0 0.0 -0.000346714
-8.71642e-05 -1.74181e-05 -4.31343e-05
-7.74033e-05 -3.64819e-05 -6.68216e-05
-8.04543e-05 -6.54035e-05 -5.23829e-05
0.0 0.0 -0.000346714
0.0 0.0 -0.000346714
-7.67354e-05 -0.000525218 0.00422029
0.0 0.0 -0.00160516
-0.000390939 7.63549e-05 -0.000234321
-0.000385866 4.4335e-05 0.000670053
2.22704e-05 3.81964e-05 3.86289e-07
-2.11531e-05 2.84328e-06 -0.000197191
7.78429e-05 -0.000114435 0.00110481
0.0 0.0 -0.00160516
0.0 0.0 -0.000346714
-4.51048e-05 -8.57694e-06 -0.000136286
1.85033e-05 -5.02612e-06 8.46969e-05
0.0 0.0 -0.000346714
0.0 0.0 -0.00160516
0.0 0.0 -0.00160516
-8.83464e-05 2.67779e-05 -4.03145e-05
-0.000107816 2.04233e-05 2.1562e-05
-8.71094e-05 -2.53936e-06 -3.58728e-05
-8.92721e-05 1.18857e-05 -3.88939e-05
0.0 0.0 -0.000346714
-0.000404452 -1.17895e-05 -0.000163343
0.0 0.0 -0.000346714
0.0 0.0 -0.000346714
0.0 0.0 -0.000346714
-0.000656151 -0.000142687 0.0013907
-0.000798106 0.00184689 0.00119053
-0.000417129 5.4925e-05 -0.000185991
0.0 0.0 -0.00160516
2.45274e-05 4.03242e-06 7.93031e-06
0.0 0.0 -0.000346714
-7.42963e-05 -2.73588e-06 -7.46644e-05
-8.47994e-05 -2.36109e-05 -3.9611e-05
0.0 0.0 -0.000346714
0.0 0.0 -0.00160516
-8.04911e-05 -6.12201e-05 -5.32945e-05
-5.10315e-05 1.31007e-05 -0.00010598
-8.74572e-05 1.04561e-05 -3.69216e-05
-8.13556e-05 1.02308e-05 -3.99838e-05
0.0 0.0 -0.00160516
0.0 0.0 -0.000346714
0.0 0.0 -0.00160516
0.0 0.0 -0.00160516
0.0 0.0 -0.000346714
0.0 0.0 -0.000346714
0.0 0.0 -0.00160516
-8.49666e-05 4.54082e-05 -4.65528e-05
-0.000534985 0.000192503 0.000802571
0.000113785 0.000103893 -2.95283e-05
0.0 0.0 -0.000346714
-0.000304178 1.97233e-05 -0.000431512
0.0 0.0 -0.000346714
0.0 0.0 -0.000346714
0.0 0.0 -0.000346714
0.0 0.0 -0.00160516
0.0 0.0 -0.000346714
0.0 0.0 -0.00160516
0.0 0.0 -0.00160516
0.0 0.0 -0.000346714
-9.01068e-05 -1.05846e-05 -3.98158e-05
0.000152621 5.73023e-05 -0.00178284
0.0 0.0 -0.000346714
0.0 0.0 -0.000346714
-8.64117e-05 -4.23202e-05 -4.70495e-05
-7.77927e-05 -6.20904e-05 -5.0227e-05
-8.4627e-05 4.41067e-05 -4.49617e-05
-8.71086e-05 2.93861e-05 -4.08733e-05
-8.37987e-05 2.78283e-05 -4.83549e-05
0.0 0.0 -0.000346714
-0.00040811 6.75511e-05 -0.000173894
0.0 0.0 -0.000346714
0.0 0.0 -0.00160516
0.0 0.0 -0.000346714
0.0 0.0 -0.00160516
-8.78405e-05 -1.38122e-05 -3.39245e-05
-0.00039255 -0.000136578 -0.000180552
0.0 0.0 -0.000346714
0.0 0.0 -0.000346714
0.0 0.0 -0.000346714
-0.000404079 0.000134313 -0.000186827
0.0 0.0 -0.000346714
0.0 0.0 -0.000346714
0.0 0.0 -0.000346714
0.0 0.0 -0.000346714
0.0 0.0 -0.00160516
0.0 0.0 -0.000346714
5.53661e-05 0.000146367 0.000958342
0.0 0.0 -0.00160516
0.0 0.0 -0.000346714
-8.92597e-05 2.99935e-05 -2.9217e-05
0.0 0.0 -0.000346714
0.0 0.0 -0.00160516
0.0 0.0 -0.000346714
0.0 0.0 -0.000346714
0.0 0.0 -0.00160516
-0.000415508 -2.59241e-06 -0.000167076
-8.8158e-05 -1.49293e-05 -3.90592e-05
-8.6295e-05 -3.14716e-05 -4.07985e-05
-0.000447725 -0.00015795 -9.91279e-05
-3.37401e-05 2.4693e-05 -0.000161482
0.0 0.0 -0.00160516
-0.00040304 0.000128588 -0.000182823
2.19947e-05 1.07802e-05 4.50202e-05
-0.00040728 6.01627e-05 -0.000187029
9.00356e-05 -9.9255e-05 -0.00176013
0.0 0.0 -0.000346714
6.01237e-06 -7.57149e-05 1.36101e-06
0.0 0.0 -0.000346714
0.0 0.0 -0.000346714
0.0 0.0 -0.000346714
0.0 0.0 -0.000346714
-0.000385003 -0.000224867 -0.000212602
0.0 0.0 -0.000346714
0.0 0.0 -0.000346714
-8.21275e-05 6.14643e-05 -4.88376e-05
2.63782e-06 7.66323e-06 0.000339646
0.0 0.0 -0.000346714
0.0 0.0 -0.00160516
0.0 0.0 -0.000346714
0.0 0.0 -0.00160516
0.0 0.0 -0.000346714
7.29845e-05 0.000332122 0.00133279
-0.000763028 8.73417e-05 3.2171e-05
0.0 0.0 -0.00160516
0.0 0.0 -0.000346714
0.0 0.0 -0.000346714
0.0 0.0 -0.000346714
0.0 0.0 -0.00160516
-0.000116911 -2.70832e-05 1.78839e-05
0.0 0.0 -0.000346714
0.0 0.0 -0.000346714
0.0 0.0 -0.00160516
0.0 0.0 -0.00160516
9.67024e-05 -8.50329e-05 0.000247003
2.99196e-06 3.07443e-07 -0.000349304
0.0 0.0 -0.000346714
0.0 0.0 -0.000346714
0.0 0.0 -0.00160516
-8.78394e-05 -2.55129e-06 -3.80521e-05
0.0 0.0 -0.00160516
-8.90648e-05 -3.24512e-06 -3.78913e-05
0.0 0.0 -0.000346714
-5.13058e-05 -1.14978e-05 -0.000132906
0.0 0.0 -0.00160516
-7.663e-05 -1.49874e-05 -6.29456e-05
1.29834e-05 6.75362e-05 0.000218232
0.0 0.0 -0.00160516
0.0 0.0 -0.00160516
0.0 0.0 -0.000346714
0.0 0.0 -0.000346714
0.0 0.0 -0.000346714
0.0 0.0 -0.00160516
0.000118573 1.88772e-05 -0.00161086
0.0 0.0 -0.000346714
-8.41423e-05 -3.22217e-05 -4.50735e-05
-7.90128e-05 -6.49439e-05 -5.4481e-05
-0.000377098 0.000270553 -0.000232708
0.0 0.0 -0.000346714
0.0 0.0 -0.00160516
0.0 0.0 -0.00160516
0.0 0.0 -0.000346714
-8.85836e-05 9.89455e-06 -3.68816e-05
-0.000410657 4.32036e-05 -0.000176023
0.0 0.0 -0.00160516
-8.90097e-05 -4.58738e-06 -3.80244e-05
0.0400027 -0.00682917 -0.0598493
-0.000118573 -1.88772e-05 -0.00159945
0.0 0.0 -0.00160516
0.0 0.0 -0.000346714
0.0 0.0 -0.000346714
0.000113208 0.000175662 1.27264e-05
0.0 0.0 -0.00160516
0.0 0.0 -0.00160516
-5.9454e-05 4.88499e-06 -8.44784e-05
0.0 0.0 -0.000346714
0.0 0.0 -0.000346714
0.000182801 -0.000241932 -0.000559684
0.0 0.0 -0.000346714
-0.000182801 0.000241932 -0.000133744
-8.63589e-05 -6.51952e-05 -0.000792533
0.0 0.0 -0.000346714
-7.2272e-05 -3.0477e-05 -6.50245e-05
-0.000299774 -0.000335118 -0.000391402
0.0 0.0 -0.000346714
-8.7717e-05 2.3709e-05 -3.97214e-05
0.0 0.0 -0.000346714
0.0 0.0 -0.00160516
0.0 0.0 -0.000346714
0.0 0.0 -0.000346714
0.0 0.0 -0.000346714
-0.0400027 0.00682917 0.0566389
0.0 0.0 -0.00160516
0.0 0.0 -0.000346714
-8.59505e-05 -2.99841e-05 -3.99009e-05
0.0 0.0 -0.000346714
0.0 0.0 -0.000346714
0.0 0.0 -0.000346714
0.0 0.0 -0.000346714
0.0 0.0 -0.000346714
0.0 0.0 -0.00160516
0.0 0.0 -0.000346714
0.0 0.0 -0.000346714
0.0 0.0 -0.000346714
0.0 0.0 -0.000346714
0.0 0.0 -0.00160516
0.0 0.0 -0.000346714
-6.28554e-05 -5.97051e-06 -9.29591e-05
0.0 0.0 -0.000346714
0.0 0.0 -0.00160516
0.0 0.0 -0.00160516
0.0 0.0 -0.00160516
0.0 0.0 -0.000346714
0.0 0.0 -0.00160516
0.0 0.0 -0.000346714
0.0 0.0 -0.000346714
-0.000110738 2.64972e-05 1.19252e-05
0.0 0.0 -0.00160516
0.0 0.0 -0.00160516
0.0 0.0 -0.000346714
0.0 0.0 -0.00160516
0.0 0.0 -0.000346714
0.0 0.0 -0.000346714
0.0274312 -0.0476921 -0.000380423
-0.0274312 0.0476921 -0.00282989
0.0 0.0 -0.000346714
0.0 0.0 -0.000346714
0.0 0.0 -0.000346714
0.0 0.0 -0.00160516
0.0 0.0 -0.00160516
-0.000294855 -0.000444038 -0.000368796
0.0 0.0 -0.00160516
-8.52099e-05 3.80206e-05 -4.24418e-05
0.0 0.0 -0.000346714
0.0 0.0 -0.000346714
0.0 0.0 -0.000346714
0.0 0.0 -0.00160516
0.0 0.0 -0.000346714
0.0329169 -0.0844991 -0.042656
0.0 0.0 -0.00160516
0.0 0.0 -0.000346714
0.0145064 0.0117471 0.235712
0.0 0.0 -0.000346714