# vtk DataFile Version 2.0
Generated by lpp.py
ASCII
DATASET POLYDATA
POINTS 754 float
-0.0219466 -0.00892753 0.0563955
-0.0219837 -0.0251032 0.0552129
-0.485322 0.0121878 -0.394129
-0.491528 0.0179077 -0.396599
-0.470279 -0.0185944 -0.391508
-0.485816 -0.0013329 -0.391219
-0.483811 0.00651495 -0.392134
-0.490133 0.0195145 -0.387411
-0.478218 0.00389826 -0.384697
-0.474083 0.0102666 -0.384767
-0.479194 0.011555 -0.384191
-0.479584 0.0161354 -0.382433
-0.475365 0.00269079 -0.38005
-0.468373 -0.00168798 -0.374853
-0.462767 0.00646793 -0.372818
-0.469098 0.00719738 -0.371737
-0.474764 0.0198328 -0.371575
-0.467031 -0.00135363 -0.359665
-0.459246 0.00051766 -0.358566
-0.456897 -0.00169442 -0.354238
-0.468058 0.036507 -0.354404
-0.431243 0.00941601 -0.35028
-0.497743 -0.0198561 -0.349297
-0.453869 -0.0013376 -0.347323
-0.43043 0.00725767 -0.335888
-0.438542 -0.0139537 -0.333758
-0.426157 -0.0120735 -0.333524
-0.436077 -0.00274073 -0.33241
-0.425275 0.00306484 -0.328662
-0.429273 0.0123806 -0.329976
-0.424171 -0.0142122 -0.3263
-0.42949 0.0085551 -0.324357
-0.43104 0.0322946 -0.323062
-0.423783 -0.0167384 -0.319875
-0.427132 0.012154 -0.320604
-0.429914 -0.0168073 -0.316967
-0.42511 0.0401341 -0.31652
-0.428808 -0.0110909 -0.313391
-0.416084 0.000232888 -0.313425
-0.40489 0.00521273 -0.312736
-0.409557 0.00325196 -0.307058
-0.415272 -0.017817 -0.305367
-0.40837 0.00894082 -0.304169
-0.410709 0.00311326 -0.301169
-0.404562 0.00586064 -0.300658
-0.384903 0.0102076 -0.300583
-0.422802 0.0343207 -0.300549
-0.407607 -0.0274009 -0.296974
-0.403417 -0.0174893 -0.297884
-0.401433 0.00263132 -0.29938
-0.407586 0.00389698 -0.297172
-0.402709 0.0203206 -0.296598
-0.404678 0.028195 -0.296068
-0.403268 0.00532211 -0.292678
-0.396723 -0.0171566 -0.290853
-0.385477 -0.00900756 -0.290162
-0.394614 0.00702455 -0.289195
-0.391813 0.0134028 -0.290446
-0.390191 0.0159361 -0.290165
-0.396988 -0.0171534 -0.286996
-0.392862 -0.0201717 -0.287285
-0.381979 -0.0211256 -0.286997
-0.391884 -0.0038674 -0.287601
-0.389931 0.0167558 -0.285205
-0.389631 -0.0039066 -0.283905
-0.385646 0.00314595 -0.284805
-0.389902 -0.0251892 -0.280374
-0.387177 -0.00848448 -0.277856
-0.383493 0.0242396 -0.27938
-0.379419 -0.040889 -0.274041
-0.387025 -0.0226108 -0.276468
-0.387186 -0.0132533 -0.273977
-0.37909 -0.00604164 -0.275155
-0.384032 -0.00342254 -0.275642
-0.374232 -0.0125941 -0.271323
-0.372469 -0.00541308 -0.271219
-0.36927 0.000973151 -0.270735
-0.374848 0.0106054 -0.272708
-0.368342 -0.00828991 -0.26783
-0.368724 0.00696064 -0.268862
-0.364368 -0.0175082 -0.26341
-0.369049 -0.0136402 -0.265299
-0.364903 -0.00840198 -0.264522
-0.367373 -0.000963947 -0.266149
-0.367267 -0.0322952 -0.26266
-0.360316 -0.00232208 -0.262307
-0.366875 0.00557448 -0.262967
-0.358131 0.0040936 -0.259984
-0.361016 0.00898917 -0.263003
-0.360904 0.018041 -0.262196
-0.357638 -0.0279579 -0.256618
-0.357021 -0.0158219 -0.259167
-0.349177 -0.00685122 -0.256591
-0.354011 0.018013 -0.257272
-0.358515 0.0233916 -0.257367
-0.356283 -0.0178095 -0.255714
-0.343922 0.0135844 -0.25501
-0.338134 -0.00602904 -0.248153
-0.33509 0.00180977 -0.24861
-0.342566 0.00509627 -0.251039
-0.341341 0.0104616 -0.248689
-0.340068 0.0143138 -0.248634
-0.342161 0.0171822 -0.251067
-0.334265 -0.00153886 -0.246162
-0.332568 0.00337604 -0.246704
-0.336024 0.0047066 -0.247946
-0.334796 0.0070231 -0.245579
-0.335417 0.0111994 -0.246658
-0.330365 0.013955 -0.24504
-0.336136 0.0234892 -0.247319
-0.342128 0.0345886 -0.245214
-0.333958 -0.0260981 -0.244321
-0.323185 -0.0168251 -0.240821
-0.329455 -0.0020962 -0.244081
-0.326742 0.0136655 -0.240447
-0.323876 0.0103646 -0.242067
-0.33146 0.0209574 -0.243717
-0.339215 -0.0380292 -0.240002
-0.326715 -0.0187393 -0.240825
-0.316805 -0.0024933 -0.239641
-0.313096 -0.00347057 -0.236957
-0.319991 0.017075 -0.238359
-0.326448 -0.039756 -0.235268
-0.309899 -0.0203119 -0.233715
-0.310553 -0.0140412 -0.234866
-0.307807 -0.00747327 -0.235665
-0.305066 -0.00735877 -0.234433
-0.305917 -0.00144782 -0.235083
-0.30335 4.93519e-05 -0.234052
-0.307893 0.00439449 -0.235698
-0.339562 0.0110727 -0.232484
-0.311162 0.0167672 -0.235828
-0.317932 -0.0389829 -0.2321
-0.310989 -0.027384 -0.232313
-0.305644 -0.0218419 -0.231484
-0.305598 -0.0175967 -0.233491
-0.302205 -0.0149903 -0.231404
-0.297823 -0.011565 -0.229946
-0.301669 -0.00930004 -0.232899
-0.298322 -0.00703757 -0.230898
-0.300418 -0.00572863 -0.232612
-0.301509 -0.00241226 -0.233188
-0.2984 0.00527616 -0.230554
-0.30617 0.0145809 -0.233072
-0.301335 0.023639 -0.23039
-0.31447 0.0333909 -0.23293
-0.296669 -0.0174236 -0.228699
-0.295366 -0.00745694 -0.228171
-0.298746 -0.00169488 -0.229716
-0.293625 -0.00192786 -0.228795
-0.28941 0.000355861 -0.227076
-0.294769 0.00795264 -0.229939
-0.292052 0.00710782 -0.228841
-0.295531 0.0131644 -0.228516
-0.308992 -0.0465886 -0.224872
-0.286399 -0.0202528 -0.224977
-0.28622 -0.0151973 -0.225759
-0.284649 -0.0175521 -0.224718
-0.289371 -0.0108799 -0.226466
-0.284308 -0.00476293 -0.22585
-0.281348 -0.00706755 -0.22344
-0.284714 -0.000306625 -0.225095
-0.287222 0.01529 -0.226147
-0.28351 0.0146549 -0.224674
-0.291859 0.024433 -0.226063
-0.281849 -0.0298033 -0.220885
-0.285294 -0.0257931 -0.222289
-0.282932 -0.0131584 -0.22256
-0.273499 -0.0120497 -0.219672
-0.275346 -0.00114895 -0.22219
-0.276593 0.00394866 -0.222548
-0.269839 0.00867883 -0.219458
-0.275348 0.0187688 -0.220476
-0.285842 0.023712 -0.222777
-0.29003 0.0388427 -0.221274
-0.270795 -0.00437224 -0.219086
-0.263539 -0.00609084 -0.217037
-0.266891 0.000309417 -0.217555
-0.266532 0.00617595 -0.218197
-0.263086 0.00424252 -0.216845
-0.269669 0.0147117 -0.218773
-0.266925 0.013664 -0.217161
-0.27108 0.0254455 -0.216453
-0.279202 0.0314463 -0.218803
-0.280905 0.0341398 -0.219109
-0.276679 0.0360155 -0.216805
-0.257002 -0.0111564 -0.212851
-0.26017 -0.00713206 -0.215568
-0.255791 -0.00656382 -0.213737
-0.254947 -0.00369301 -0.213509
-0.260414 -0.0016535 -0.215897
-0.257529 -1.25422e-05 -0.213593
-0.252893 0.00480463 -0.212515
-0.257167 0.0114898 -0.214013
-0.254445 0.0106852 -0.21277
-0.256945 0.0176023 -0.213007
-0.245028 -0.00821657 -0.209114
-0.249732 -0.00247962 -0.211374
-0.244742 0.00372117 -0.209114
-0.253515 0.0144691 -0.212033
-0.253754 0.0237833 -0.209649
-0.261657 0.0277891 -0.211896
-0.263757 0.0341188 -0.211023
-0.247739 -0.0310245 -0.206318
-0.243474 -0.0249406 -0.206175
-0.246341 -0.0244739 -0.207476
-0.239371 -0.0192728 -0.20547
-0.244809 -0.0168639 -0.206917
-0.240965 -0.0135275 -0.20696
-0.238895 0.00503188 -0.205501
-0.243307 0.00706609 -0.207301
-0.239747 0.00886938 -0.206725
-0.27064 0.0502445 -0.208425
-0.240883 -0.0259438 -0.204869
-0.23237 -0.0133135 -0.203252
-0.235907 -0.00200903 -0.204488
-0.226737 0.000774946 -0.201578
-0.234057 0.00580837 -0.203486
-0.235372 0.0156504 -0.204244
-0.229899 0.0153339 -0.201956
-0.236254 0.0211186 -0.203865
-0.229084 -0.0233892 -0.200373
-0.226181 -0.0239959 -0.199061
-0.224952 -0.0161905 -0.199839
-0.223243 -0.0104771 -0.199625
-0.239299 -0.00939023 -0.201866
-0.220915 -0.00870831 -0.198792
-0.230383 0.0193352 -0.200549
-0.275691 0.0232064 -0.200354
-0.222261 -0.0322383 -0.195603
-0.227835 -0.0302718 -0.198404
-0.223011 -0.0254263 -0.196298
-0.217743 -0.0134199 -0.195964
-0.217385 0.0069345 -0.197527
-0.21523 0.0119497 -0.196156
-0.21565 0.0168364 -0.195784
-0.220686 0.0199659 -0.196438
-0.226212 0.0220246 -0.198473
-0.319294 0.075307 -0.198577
-0.228884 -0.0475643 -0.193214
-0.212683 -0.0321422 -0.191634
-0.219741 -0.0283569 -0.193523
-0.213203 -0.023172 -0.19387
-0.210603 -0.0206232 -0.192195
-0.208206 -0.0164171 -0.192687
-0.204628 -0.0156199 -0.19128
-0.210779 -0.0126108 -0.192779
-0.205203 -0.0107327 -0.192031
-0.211987 -0.00802692 -0.193415
-0.203192 -0.00838687 -0.191445
-0.208675 -0.00114409 -0.192857
-0.208643 0.00540312 -0.192773
-0.210102 0.00877306 -0.194381
-0.218724 0.012674 -0.190375
-0.205275 0.012353 -0.191938
-0.21065 0.0156748 -0.193851
-0.214562 0.0303061 -0.191771
-0.20325 -0.0286838 -0.188507
-0.200481 -0.0242099 -0.188426
-0.205962 -0.0195887 -0.190331
-0.199644 -0.0210135 -0.188567
-0.199251 -0.0104098 -0.189602
-0.196062 -0.008311 -0.188457
-0.199807 -0.00525216 -0.190186
-0.197286 -0.000682973 -0.189114
-0.202702 0.000337043 -0.190351
-0.198334 0.00265521 -0.189499
-0.202131 0.00532892 -0.189861
-0.195695 0.00462428 -0.188472
-0.201729 0.00940189 -0.190686
-0.1987 0.00860679 -0.189531
-0.211246 0.0120603 -0.191579
-0.201896 0.0125527 -0.190421
-0.198925 0.0115833 -0.187857
-0.199977 0.0152684 -0.189395
-0.221123 -0.0540152 -0.187155
-0.215129 -0.0527218 -0.185442
-0.219332 -0.051589 -0.187705
-0.19573 -0.0132476 -0.185995
-0.192973 -0.00879309 -0.184919
-0.195859 -0.00418952 -0.187401
-0.1919 -0.00482871 -0.186757
-0.186719 -0.00689992 -0.184587
-0.191893 -0.0010667 -0.185772
-0.194835 0.0117872 -0.187607
-0.188512 0.0118633 -0.184891
-0.20264 0.0383153 -0.184709
-0.21392 -0.0559895 -0.183275
-0.201189 -0.0428938 -0.183714
-0.182959 -0.0195682 -0.181762
-0.187702 -0.0163546 -0.184087
-0.183641 -0.0126163 -0.181769
-0.180298 -0.00899157 -0.181801
-0.183734 -0.00596801 -0.183321
-0.184128 0.00515414 -0.18096
-0.181872 0.010674 -0.182221
-0.185741 0.014855 -0.18346
-0.192548 0.0365962 -0.182284
-0.200217 -0.0436021 -0.179991
-0.185168 -0.0378757 -0.178907
-0.176415 -0.0238614 -0.178468
-0.179781 -0.0192531 -0.179377
-0.173646 -0.0195242 -0.177956
-0.175118 -0.0165351 -0.178906
-0.177047 -0.00738038 -0.179387
-0.173555 -0.0105931 -0.178867
-0.173111 -0.00415278 -0.177813
-0.177276 0.0124023 -0.179037
-0.176617 0.0224337 -0.178685
-0.170804 -0.0201599 -0.175155
-0.162732 -0.014502 -0.17398
-0.164309 -0.00233213 -0.175266
-0.166053 0.000648541 -0.176026
-0.168852 0.00509669 -0.176091
-0.164436 0.00409719 -0.175333
-0.164707 0.00791939 -0.175229
-0.164108 0.011409 -0.174682
-0.173274 0.0220359 -0.176274
-0.193635 0.0579512 -0.174549
-0.195713 -0.0659042 -0.170923
-0.182869 -0.0509068 -0.172295
-0.161323 -0.0236113 -0.172204
-0.158208 -0.00915133 -0.172497
[...]
POINT_DATA 754
VECTORS i float
0.0 0.0 0.0
0.0 0.0 0.0
0.0 0.0 0.0
0.0 0.0 0.0
0.0 0.0 0.0
0.0 0.0 0.0
0.0 0.0 0.0
0.0 0.0 0.0
0.0 0.0 0.0
0.0 0.0 0.0
0.0 0.0 0.0
0.0 0.0 0.0
0.0 0.0 0.0
0.0 0.0 0.0
0.0 0.0 0.0
0.0 0.0 0.0
0.0 0.0 0.0
0.0 0.0 0.0
0.0 0.0 0.0
0.0 0.0 0.0
0.0 0.0 0.0
0.0 0.0 0.0
0.0 0.0 0.0
0.0 0.0 0.0
0.0 0.0 0.0
0.0 0.0 0.0
0.0 0.0 0.0
0.0 0.0 0.0
0.0 0.0 0.0
0.0 0.0 0.0
0.0 0.0 0.0
0.0 0.0 0.0
0.0 0.0 0.0
0.0 0.0 0.0
0.0 0.0 0.0
0.0 0.0 0.0
0.0 0.0 0.0
0.0 0.0 0.0
0.0 0.0 0.0
0.0 0.0 0.0
0.0 0.0 0.0
0.0 0.0 0.0
0.0 0.0 0.0
0.0 0.0 0.0
0.0 0.0 0.0
0.0 0.0 0.0
0.0 0.0 0.0
0.0 0.0 0.0
0.0 0.0 0.0
0.0 0.0 0.0
0.0 0.0 0.0
0.0 0.0 0.0
0.0 0.0 0.0
0.0 0.0 0.0
0.0 0.0 0.0
0.0 0.0 0.0
0.0 0.0 0.0
0.0 0.0 0.0
0.0 0.0 0.0
0.0 0.0 0.0
0.0 0.0 0.0
0.0 0.0 0.0
0.0 0.0 0.0
0.0 0.0 0.0
0.0 0.0 0.0
0.0 0.0 0.0
0.0 0.0 0.0
0.0 0.0 0.0
0.0 0.0 0.0
0.0 0.0 0.0
0.0 0.0 0.0
0.0 0.0 0.0
0.0 0.0 0.0
0.0 0.0 0.0
0.0 0.0 0.0
0.0 0.0 0.0
0.0 0.0 0.0
0.0 0.0 0.0
0.0 0.0 0.0
0.0 0.0 0.0
0.0 0.0 0.0
0.0 0.0 0.0
0.0 0.0 0.0
0.0 0.0 0.0
0.0 0.0 0.0
0.0 0.0 0.0
0.0 0.0 0.0
0.0 0.0 0.0
0.0 0.0 0.0
0.0 0.0 0.0
0.0 0.0 0.0
0.0 0.0 0.0
0.0 0.0 0.0
0.0 0.0 0.0
0.0 0.0 0.0
0.0 0.0 0.0
0.0 0.0 0.0
0.0 0.0 0.0
0.0 0.0 0.0
0.0 0.0 0.0
0.0 0.0 0.0
0.0 0.0 0.0
0.0 0.0 0.0
0.0 0.0 0.0
0.0 0.0 0.0
0.0 0.0 0.0
0.0 0.0 0.0
0.0 0.0 0.0
0.0 0.0 0.0
0.0 0.0 0.0
0.0 0.0 0.0
0.0 0.0 0.0
0.0 0.0 0.0
0.0 0.0 0.0
0.0 0.0 0.0
0.0 0.0 0.0
0.0 0.0 0.0
0.0 0.0 0.0
0.0 0.0 0.0
0.0 0.0 0.0
0.0 0.0 0.0
0.0 0.0 0.0
0.0 0.0 0.0
0.0 0.0 0.0
0.0 0.0 0.0
0.0 0.0 0.0
0.0 0.0 0.0
0.0 0.0 0.0
0.0 0.0 0.0
0.0 0.0 0.0
0.0 0.0 0.0
0.0 0.0 0.0
0.0 0.0 0.0
0.0 0.0 0.0
0.0 0.0 0.0
0.0 0.0 0.0
0.0 0.0 0.0
0.0 0.0 0.0
0.0 0.0 0.0
0.0 0.0 0.0
0.0 0.0 0.0
0.0 0.0 0.0
0.0 0.0 0.0
0.0 0.0 0.0
0.0 0.0 0.0
0.0 0.0 0.0
0.0 0.0 0.0
0.0 0.0 0.0
0.0 0.0 0.0
0.0 0.0 0.0
0.0 0.0 0.0
0.0 0.0 0.0
0.0 0.0 0.0
0.0 0.0 0.0
0.0 0.0 0.0
0.0 0.0 0.0
0.0 0.0 0.0
0.0 0.0 0.0
0.0 0.0 0.0
0.0 0.0 0.0
0.0 0.0 0.0
0.0 0.0 0.0
0.0 0.0 0.0
0.0 0.0 0.0
0.0 0.0 0.0
0.0 0.0 0.0
0.0 0.0 0.0
0.0 0.0 0.0
0.0 0.0 0.0
0.0 0.0 0.0
0.0 0.0 0.0
0.0 0.0 0.0
0.0 0.0 0.0
0.0 0.0 0.0
0.0 0.0 0.0
0.0 0.0 0.0
0.0 0.0 0.0
0.0 0.0 0.0
0.0 0.0 0.0
0.0 0.0 0.0
0.0 0.0 0.0
0.0 0.0 0.0
0.0 0.0 0.0
0.0 0.0 0.0
0.0 0.0 0.0
0.0 0.0 0.0
0.0 0.0 0.0
0.0 0.0 0.0
0.0 0.0 0.0
0.0 0.0 0.0
0.0 0.0 0.0
0.0 0.0 0.0
0.0 0.0 0.0
0.0 0.0 0.0
0.0 0.0 0.0
0.0 0.0 0.0
0.0 0.0 0.0
0.0 0.0 0.0
0.0 0.0 0.0
0.0 0.0 0.0
0.0 0.0 0.0
0.0 0.0 0.0
0.0 0.0 0.0
0.0 0.0 0.0
0.0 0.0 0.0
0.0 0.0 0.0
0.0 0.0 0.0
0.0 0.0 0.0
0.0 0.0 0.0
0.0 0.0 0.0
0.0 0.0 0.0
0.0 0.0 0.0
0.0 0.0 0.0
0.0 0.0 0.0
0.0 0.0 0.0
0.0 0.0 0.0
0.0 0.0 0.0
0.0 0.0 0.0
0.0 0.0 0.0
0.0 0.0 0.0
0.0 0.0 0.0
0.0 0.0 0.0
0.0 0.0 0.0
0.0 0.0 0.0
0.0 0.0 0.0
0.0 0.0 0.0
0.0 0.0 0.0
0.0 0.0 0.0
0.0 0.0 0.0
0.0 0.0 0.0
0.0 0.0 0.0
0.0 0.0 0.0
0.0 0.0 0.0
0.0 0.0 0.0
0.0 0.0 0.0
0.0 0.0 0.0
0.0 0.0 0.0
0.0 0.0 0.0
0.0 0.0 0.0
0.0 0.0 0.0
0.0 0.0 0.0
0.0 0.0 0.0
0.0 0.0 0.0
0.0 0.0 0.0
0.0 0.0 0.0
0.0 0.0 0.0
0.0 0.0 0.0
0.0 0.0 0.0
0.0 0.0 0.0
0.0 0.0 0.0
0.0 0.0 0.0
0.0 0.0 0.0
0.0 0.0 0.0
0.0 0.0 0.0
0.0 0.0 0.0
0.0 0.0 0.0
0.0 0.0 0.0
0.0 0.0 0.0
0.0 0.0 0.0
0.0 0.0 0.0
0.0 0.0 0.0
0.0 0.0 0.0
0.0 0.0 0.0
0.0 0.0 0.0
0.0 0.0 0.0
0.0 0.0 0.0
0.0 0.0 0.0
0.0 0.0 0.0
0.0 0.0 0.0
0.0 0.0 0.0
0.0 0.0 0.0
0.0 0.0 0.0
0.0 0.0 0.0
0.0 0.0 0.0
0.0 0.0 0.0
0.0 0.0 0.0
0.0 0.0 0.0
0.0 0.0 0.0
0.0 0.0 0.0
0.0 0.0 0.0
0.0 0.0 0.0
0.0 0.0 0.0
0.0 0.0 0.0
0.0 0.0 0.0
0.0 0.0 0.0
0.0 0.0 0.0
0.0 0.0 0.0
0.0 0.0 0.0
0.0 0.0 0.0
0.0 0.0 0.0
0.0 0.0 0.0
0.0 0.0 0.0
0.0 0.0 0.0
0.0 0.0 0.0
0.0 0.0 0.0
0.0 0.0 0.0
0.0 0.0 0.0
0.0 0.0 0.0
0.0 0.0 0.0
0.0 0.0 0.0
0.0 0.0 0.0
0.0 0.0 0.0
0.0 0.0 0.0
0.0 0.0 0.0
0.0 0.0 0.0
0.0 0.0 0.0
0.0 0.0 0.0
0.0 0.0 0.0
0.0 0.0 0.0
0.0 0.0 0.0
0.0 0.0 0.0
0.0 0.0 0.0
0.0 0.0 0.0
0.0 0.0 0.0
0.0 0.0 0.0
0.0 0.0 0.0
0.0 0.0 0.0
0.0 0.0 0.0
0.0 0.0 0.0
0.0 0.0 0.0
0.0 0.0 0.0
0.0 0.0 0.0
0.0 0.0 0.0
0.0 0.0 0.0
0.0 0.0 0.0
0.0 0.0 0.0
0.0 0.0 0.0
0.0 0.0 0.0
0.0 0.0 0.0
0.0 0.0 0.0
0.0 0.0 0.0
0.0 0.0 0.0
0.0 0.0 0.0
0.0 0.0 0.0
0.0 0.0 0.0
0.0 0.0 0.0
0.0 0.0 0.0
0.0 0.0 0.0
0.0 0.0 0.0
0.0 0.0 0.0
0.0 0.0 0.0
0.0 0.0 0.0
0.0 0.0 0.0
0.0 0.0 0.0
0.0 0.0 0.0
0.0 0.0 0.0
0.0 0.0 0.0
0.0 0.0 0.0
0.0 0.0 0.0
0.0 0.0 0.0
0.0 0.0 0.0
0.0 0.0 0.0
0.0 0.0 0.0
0.0 0.0 0.0
0.0 0.0 0.0
0.0 0.0 0.0
0.0 0.0 0.0
0.0 0.0 0.0
0.0 0.0 0.0
0.0 0.0 0.0
0.0 0.0 0.0
0.0 0.0 0.0
0.0 0.0 0.0
0.0 0.0 0.0
0.0 0.0 0.0
0.0 0.0 0.0
0.0 0.0 0.0
0.0 0.0 0.0
0.0 0.0 0.0
0.0 0.0 0.0
0.0 0.0 0.0
0.0 0.0 0.0
0.0 0.0 0.0
0.0 0.0 0.0
0.0 0.0 0.0
0.0 0.0 0.0
0.0 0.0 0.0
0.0 0.0 0.0
0.0 0.0 0.0
0.0 0.0 0.0
0.0 0.0 0.0
0.0 0.0 0.0
0.0 0.0 0.0
0.0 0.0 0.0
0.0 0.0 0.0
0.0 0.0 0.0
0.0 0.0 0.0
0.0 0.0 0.0
0.0 0.0 0.0
0.0 0.0 0.0
0.0 0.0 0.0
0.0 0.0 0.0
0.0 0.0 0.0
0.0 0.0 0.0
0.0 0.0 0.0
0.0 0.0 0.0
0.0 0.0 0.0
0.0 0.0 0.0
0.0 0.0 0.0
0.0 0.0 0.0
0.0 0.0 0.0
0.0 0.0 0.0
0.0 0.0 0.0
0.0 0.0 0.0
0.0 0.0 0.0
0.0 0.0 0.0
0.0 0.0 0.0
0.0 0.0 0.0
0.0 0.0 0.0
0.0 0.0 0.0
0.0 0.0 0.0
0.0 0.0 0.0
0.0 0.0 0.0
0.0 0.0 0.0
0.0 0.0 0.0
0.0 0.0 0.0
0.0 0.0 0.0
0.0 0.0 0.0
0.0 0.0 0.0
0.0 0.0 0.0
0.0 0.0 0.0
0.0 0.0 0.0
0.0 0.0 0.0
0.0 0.0 0.0
0.0 0.0 0.0
0.0 0.0 0.0
0.0 0.0 0.0
0.0 0.0 0.0
0.0 0.0 0.0
0.0 0.0 0.0
0.0 0.0 0.0
0.0 0.0 0.0
0.0 0.0 0.0
0.0 0.0 0.0
0.0 0.0 0.0
0.0 0.0 0.0
0.0 0.0 0.0
0.0 0.0 0.0
0.0 0.0 0.0
0.0 0.0 0.0
0.0 0.0 0.0
0.0 0.0 0.0
0.0 0.0 0.0
0.0 0.0 0.0
0.0 0.0 0.0
0.0 0.0 0.0
0.0 0.0 0.0
0.0 0.0 0.0
0.0 0.0 0.0
0.0 0.0 0.0
0.0 0.0 0.0
0.0 0.0 0.0
0.0 0.0 0.0
0.0 0.0 0.0
0.0 0.0 0.0
0.0 0.0 0.0
0.0 0.0 0.0
0.0 0.0 0.0
0.0 0.0 0.0
0.0 0.0 0.0
0.0 0.0 0.0
0.0 0.0 0.0
0.0 0.0 0.0
0.0 0.0 0.0
0.0 0.0 0.0
0.0 0.0 0.0
0.0 0.0 0.0
0.0 0.0 0.0
0.0 0.0 0.0
0.0 0.0 0.0
0.0 0.0 0.0
0.0 0.0 0.0
0.0 0.0 0.0
0.0 0.0 0.0
0.0 0.0 0.0
0.0 0.0 0.0
0.0 0.0 0.0
0.0 0.0 0.0
0.0 0.0 0.0
0.0 0.0 0.0
0.0 0.0 0.0
0.0 0.0 0.0
0.0 0.0 0.0
0.0 0.0 0.0
0.0 0.0 0.0
0.0 0.0 0.0
0.0 0.0 0.0
0.0 0.0 0.0
0.0 0.0 0.0
0.0 0.0 0.0
0.0 0.0 0.0
0.0 0.0 0.0
0.0 0.0 0.0
0.0 0.0 0.0
0.0 0.0 0.0
0.0 0.0 0.0
0.0 0.0 0.0
0.0 0.0 0.0
0.0 0.0 0.0
0.0 0.0 0.0
0.0 0.0 0.0
0.0 0.0 0.0
0.0 0.0 0.0
0.0 0.0 0.0
0.0 0.0 0.0
0.0 0.0 0.0
0.0 0.0 0.0
0.0 0.0 0.0
0.0 0.0 0.0
0.0 0.0 0.0
0.0 0.0 0.0
0.0 0.0 0.0
0.0 0.0 0.0
0.0 0.0 0.0
0.0 0.0 0.0
0.0 0.0 0.0
0.0 0.0 0.0
0.0 0.0 0.0
0.0 0.0 0.0
0.0 0.0 0.0
0.0 0.0 0.0
0.0 0.0 0.0
0.0 0.0 0.0
0.0 0.0 0.0
0.0 0.0 0.0
0.0 0.0 0.0
0.0 0.0 0.0
0.0 0.0 0.0
0.0 0.0 0.0
0.0 0.0 0.0
0.0 0.0 0.0
0.0 0.0 0.0
0.0 0.0 0.0
0.0 0.0 0.0
0.0 0.0 0.0
0.0 0.0 0.0
0.0 0.0 0.0
0.0 0.0 0.0
0.0 0.0 0.0
0.0 0.0 0.0
0.0 0.0 0.0
0.0 0.0 0.0
0.0 0.0 0.0
0.0 0.0 0.0
0.0 0.0 0.0
0.0 0.0 0.0
0.0 0.0 0.0
0.0 0.0 0.0
0.0 0.0 0.0
0.0 0.0 0.0
0.0 0.0 0.0
0.0 0.0 0.0
0.0 0.0 0.0
0.0 0.0 0.0
0.0 0.0 0.0
0.0 0.0 0.0
0.0 0.0 0.0
0.0 0.0 0.0
0.0 0.0 0.0
0.0 0.0 0.0
0.0 0.0 0.0
0.0 0.0 0.0
0.0 0.0 0.0
0.0 0.0 0.0
0.0 0.0 0.0
0.0 0.0 0.0
0.0 0.0 0.0
0.0 0.0 0.0
0.0 0.0 0.0
0.0 0.0 0.0
0.0 0.0 0.0
0.0 0.0 0.0
0.0 0.0 0.0
0.0 0.0 0.0
0.0 0.0 0.0
0.0 0.0 0.0
0.0 0.0 0.0
0.0 0.0 0.0
0.0 0.0 0.0
0.0 0.0 0.0
0.0 0.0 0.0
0.0 0.0 0.0
0.0 0.0 0.0
0.0 0.0 0.0
0.0 0.0 0.0
0.0 0.0 0.0
0.0 0.0 0.0
0.0 0.0 0.0
0.0 0.0 0.0
0.0 0.0 0.0
0.0 0.0 0.0
0.0 0.0 0.0
0.0 0.0 0.0
0.0 0.0 0.0
0.0 0.0 0.0
0.0 0.0 0.0
0.0 0.0 0.0
0.0 0.0 0.0
0.0 0.0 0.0
0.0 0.0 0.0
0.0 0.0 0.0
0.0 0.0 0.0
0.0 0.0 0.0
0.0 0.0 0.0
0.0 0.0 0.0
0.0 0.0 0.0
0.0 0.0 0.0
0.0 0.0 0.0
0.0 0.0 0.0
0.0 0.0 0.0
0.0 0.0 0.0
0.0 0.0 0.0
0.0 0.0 0.0
0.0 0.0 0.0
0.0 0.0 0.0
0.0 0.0 0.0
0.0 0.0 0.0
0.0 0.0 0.0
0.0 0.0 0.0
0.0 0.0 0.0
0.0 0.0 0.0
0.0 0.0 0.0
0.0 0.0 0.0
0.0 0.0 0.0
0.0 0.0 0.0
0.0 0.0 0.0
0.0 0.0 0.0
0.0 0.0 0.0
0.0 0.0 0.0
0.0 0.0 0.0
0.0 0.0 0.0
0.0 0.0 0.0
0.0 0.0 0.0
0.0 0.0 0.0
0.0 0.0 0.0
0.0 0.0 0.0
0.0 0.0 0.0
0.0 0.0 0.0
0.0 0.0 0.0
0.0 0.0 0.0
0.0 0.0 0.0
0.0 0.0 0.0
0.0 0.0 0.0
0.0 0.0 0.0
0.0 0.0 0.0
0.0 0.0 0.0
0.0 0.0 0.0
0.0 0.0 0.0
0.0 0.0 0.0
0.0 0.0 0.0
0.0 0.0 0.0
0.0 0.0 0.0
0.0 0.0 0.0
0.0 0.0 0.0
0.0 0.0 0.0
0.0 0.0 0.0
0.0 0.0 0.0
0.0 0.0 0.0
0.0 0.0 0.0
0.0 0.0 0.0
0.0 0.0 0.0
0.0 0.0 0.0
0.0 0.0 0.0
0.0 0.0 0.0
0.0 0.0 0.0
0.0 0.0 0.0
0.0 0.0 0.0
0.0 0.0 0.0
0.0 0.0 0.0
0.0 0.0 0.0
0.0 0.0 0.0
0.0 0.0 0.0
0.0 0.0 0.0
0.0 0.0 0.0
0.0 0.0 0.0
0.0 0.0 0.0
0.0 0.0 0.0
0.0 0.0 0.0
0.0 0.0 0.0
0.0 0.0 0.0
0.0 0.0 0.0
0.0 0.0 0.0
0.0 0.0 0.0
0.0 0.0 0.0
0.0 0.0 0.0
0.0 0.0 0.0
0.0 0.0 0.0
0.0 0.0 0.0
0.0 0.0 0.0
0.0 0.0 0.0
0.0 0.0 0.0
0.0 0.0 0.0
0.0 0.0 0.0
0.0 0.0 0.0
0.0 0.0 0.0
0.0 0.0 0.0
0.0 0.0 0.0
0.0 0.0 0.0
0.0 0.0 0.0
0.0 0.0 0.0
0.0 0.0 0.0
0.0 0.0 0.0
0.0 0.0 0.0
0.0 0.0 0.0
0.0 0.0 0.0
0.0 0.0 0.0
0.0 0.0 0.0
0.0 0.0 0.0
0.0 0.0 0.0
0.0 0.0 0.0
0.0 0.0 0.0
0.0 0.0 0.0
0.0 0.0 0.0
0.0 0.0 0.0
0.0 0.0 0.0
0.0 0.0 0.0
0.0 0.0 0.0
0.0 0.0 0.0
0.0 0.0 0.0
0.0 0.0 0.0
0.0 0.0 0.0
0.0 0.0 0.0
0.0 0.0 0.0
0.0 0.0 0.0
0.0 0.0 0.0
0.0 0.0 0.0
0.0 0.0 0.0
0.0 0.0 0.0
0.0 0.0 0.0
0.0 0.0 0.0
0.0 0.0 0.0
0.0 0.0 0.0
0.0 0.0 0.0
0.0 0.0 0.0
0.0 0.0 0.0
0.0 0.0 0.0
0.0 0.0 0.0
0.0 0.0 0.0
0.0 0.0 0.0
0.0 0.0 0.0
0.0 0.0 0.0
0.0 0.0 0.0
0.0 0.0 0.0
0.0 0.0 0.0
0.0 0.0 0.0
0.0 0.0 0.0
0.0 0.0 0.0
0.0 0.0 0.0
0.0 0.0 0.0
0.0 0.0 0.0
0.0 0.0 0.0
0.0 0.0 0.0
0.0 0.0 0.0
0.0 0.0 0.0
VECTORS f float
0.0 0.0 0.0
0.0 0.0 0.0
0.0 0.0 -0.000346714
0.0 0.0 -0.00160516
0.0 0.0 -0.000346714
0.0 0.0 -0.00160516
0.0 0.0 -0.00160516
0.0 0.0 -0.00160516
0.0 0.0 -0.000346714
0.0 0.0 -0.000346714
0.0 0.0 -0.000346714
0.0 0.0 -0.000346714
0.0 0.0 -0.00160516
0.0 0.0 -0.00160516
0.0 0.0 -0.000346714
0.0 0.0 -0.000346714
0.0 0.0 -0.00160516
0.0 0.0 -0.000346714
0.0 0.0 -0.00160516
0.0 0.0 -0.000346714
0.0 0.0 -0.000346714
0.0 0.0 -0.000346714
0.0 0.0 -0.00160516
0.0 0.0 -0.00160516
0.0 0.0 -0.00160516
0.0 0.0 -0.000346714
0.0 0.0 -0.000346714
0.0 0.0 -0.00160516
0.0 0.0 -0.000346714
0.0 0.0 -0.000346714
0.0 0.0 -0.000346714
0.0 0.0 -0.000346714
0.0 0.0 -0.000346714
0.0 0.0 -0.000346714
0.0 0.0 -0.000346714
0.0 0.0 -0.00160516
0.0 0.0 -0.000346714
0.0 0.0 -0.00160516
0.0 0.0 -0.000346714
0.0 0.0 -0.000346714
0.0 0.0 -0.00160516
0.0 0.0 -0.000346714
0.0 0.0 -0.000346714
0.0 0.0 -0.00160516
0.0 0.0 -0.00160516
0.0 0.0 -0.000346714
0.0 0.0 -0.000346714
0.0 0.0 -0.000346714
0.0 0.0 -0.000346714
0.0 0.0 -0.000346714
0.0 0.0 -0.000346714
0.0 0.0 -0.000346714
0.0 0.0 -0.000346714
0.0 0.0 -0.00160516
0.0 0.0 -0.000346714
0.0 0.0 -0.00160516
0.0 0.0 -0.000346714
0.0 0.0 -0.000346714
0.0 0.0 -0.000346714
0.0 0.0 -0.000346714
0.0 0.0 -0.00160516
0.0 0.0 -0.000346714
0.0 0.0 -0.000346714
0.0 0.0 -0.00160516
0.0 0.0 -0.000346714
0.0 0.0 -0.000346714
0.0 0.0 -0.000346714
0.0 0.0 -0.00160516
0.0 0.0 -0.000346714
0.0 0.0 -0.000346714
0.0 0.0 -0.000346714
0.0 0.0 -0.00160516
0.0 0.0 -0.00160516
0.0 0.0 -0.00160516
0.0 0.0 -0.000346714
0.0 0.0 -0.000346714
0.0 0.0 -0.000346714
0.0 0.0 -0.000346714
0.0 0.0 -0.000346714
0.0 0.0 -0.00160516
0.0 0.0 -0.000346714
0.0 0.0 -0.00160516
0.0 0.0 -0.00160516
0.0 0.0 -0.00160516
0.0 0.0 -0.000346714
0.0 0.0 -0.000346714
0.0 0.0 -0.00160516
0.0 0.0 -0.00160516
0.0 0.0 -0.000346714
0.0 0.0 -0.000346714
0.0 0.0 -0.000346714
0.0 0.0 -0.000346714
0.0 0.0 -0.000346714
0.0 0.0 -0.000346714
0.0 0.0 -0.00160516
0.0 0.0 -0.00160516
0.0 0.0 -0.000346714
0.0 0.0 -0.00160516
0.0 0.0 -0.000346714
0.0 0.0 -0.00160516
0.0 0.0 -0.000346714
0.0 0.0 -0.00160516
0.0 0.0 -0.000346714
0.0 0.0 -0.00160516
0.0 0.0 -0.000346714
0.0 0.0 -0.000346714
0.0 0.0 -0.000346714
0.0 0.0 -0.000346714
0.0 0.0 -0.000346714
0.0 0.0 -0.000346714
0.0 0.0 -0.000346714
0.0 0.0 -0.000346714
0.0 0.0 -0.000346714
0.0 0.0 -0.00160516
0.0 0.0 -0.000346714
0.0 0.0 -0.000346714
0.0 0.0 -0.000346714
0.0 0.0 -0.00160516
0.0 0.0 -0.00160516
-8.86356e-05 7.46416e-06 -3.76308e-05
-0.00042414 3.58104e-05 -0.000140485
-0.000388383 -0.000181449 -0.000215944
0.0 0.0 -0.000346714
4.19812e-05 4.83069e-05 0.000472043
-0.000384895 0.000131337 -0.000182258
0.0 0.0 -0.000346714
0.0 0.0 -0.000346714
2.26271e-05 2.33452e-05 8.75478e-06
-8.85496e-05 7.30214e-06 -3.78392e-05
-8.83728e-05 -1.31818e-05 -3.79733e-05
0.0 0.0 -0.00160516
-7.6659e-05 -3.52592e-05 -6.60285e-05
0.0 0.0 -0.000346714
-0.000283344 0.000252557 0.00178234
0.0 0.0 -0.00160516
-0.00206465 0.000560497 0.0049426
-0.00155615 0.000562549 0.00274733
0.000112605 0.000202199 3.94684e-05
-8.6306e-05 2.24796e-05 -4.22539e-05
0.0 0.0 -0.000346714
9.63253e-07 -7.6197e-05 2.34114e-05
-8.73254e-05 7.20133e-06 -4.0513e-05
-0.000405957 -6.10629e-05 -0.000182702
-0.000393819 -0.000183526 -0.000202548
-9.86713e-05 -4.75455e-05 2.53201e-07
-8.9715e-05 -7.98648e-05 -1.15438e-05
-0.000396485 0.000178803 -0.000196947
0.0 0.0 -0.00160516
0.0 0.0 -0.00160516
9.55852e-05 0.000268375 0.000228951
1.54611e-05 -4.63664e-06 -0.00136197
-6.88703e-05 0.000274527 0.0006356
0.0 0.0 -0.000346714
0.0 0.0 -0.00160516
0.0 0.0 -0.000346714
-1.61025e-05 0.000167002 -4.7178e-05
-1.02082e-05 -6.42203e-05 -1.52042e-06
0.0 0.0 -0.000346714
-0.000384357 0.000100393 -0.000226171
-8.86947e-05 7.17081e-06 -3.72484e-05
-0.00042628 3.46766e-05 -0.000131674
-0.00204502 7.323e-05 0.0006687
-0.000635381 1.63485e-05 0.00171128
-8.70708e-05 -3.65604e-05 -4.41291e-05
0.0 0.0 -0.000346714
4.18831e-06 -7.16853e-06 -0.000266984
-0.000387282 0.000256733 -0.000208843
0.0 0.0 -0.00160516
-0.000348799 9.07503e-05 -0.000275967
-8.83034e-05 7.00849e-06 -3.72547e-05
-0.000105191 -1.4377e-05 8.6816e-07
0.0 0.0 -0.000346714
-8.45491e-05 -3.36337e-05 -4.02724e-05
0.0 0.0 -0.00160516
0.0 0.0 -0.000346714
7.73956e-05 -0.000144958 5.74204e-05
-4.02886e-05 3.6099e-06 -0.000175687
4.64254e-05 3.44051e-06 -0.00164463
-8.77186e-05 -1.03558e-05 -3.7374e-05
-8.48364e-05 -9.29019e-06 -5.00323e-05
0.0 0.0 -0.000346714
0.0 0.0 -0.000346714
-0.000415983 -0.000332313 0.00114351
0.0 0.0 -0.000346714
1.81791e-05 -6.99725e-05 -0.000129234
-8.00391e-05 -5.58159e-05 -4.76212e-05
-0.000413573 9.5752e-05 -0.000251698
-8.82631e-05 9.18769e-06 -4.03337e-05
-8.48663e-05 8.90203e-06 -4.39296e-05
-8.84336e-05 9.25724e-06 -3.68307e-05
-8.26076e-05 7.5923e-06 -5.00929e-05
8.00105e-05 7.27716e-06 -0.00141915
-8.77891e-05 -8.46791e-06 -4.43608e-05
-5.56942e-06 2.72534e-07 -0.000285694
0.0 0.0 -0.000346714
-8.52256e-05 -3.09245e-05 -4.21625e-05
-0.000112451 1.29181e-05 1.1789e-05
-9.48113e-05 9.78378e-06 -2.8196e-05
-6.67757e-05 -7.34267e-06 -9.87533e-05
-9.05551e-05 -3.46031e-05 5.20839e-06
-0.000406345 -0.000145733 -0.000167797
-0.000128361 -0.00015913 0.000556437
0.0 0.0 -0.00160516
0.0 0.0 -0.000346714
0.0 0.0 -0.000346714
0.0 0.0 -0.000346714
0.0 0.0 -0.000346714
-0.000385689 0.000144504 -0.000178294
-9.18292e-05 1.59223e-05 -3.64512e-05
-6.58159e-05 -8.17137e-06 -0.00108586
4.83148e-05 9.45817e-05 -0.000617527
0.0 0.0 -0.000346714
0.0 0.0 -0.000346714
-9.65113e-05 4.28884e-05 -4.26964e-05
-7.42134e-05 1.48709e-05 -4.64696e-05
-0.000319864 -0.000277557 -0.000832012
-8.94101e-05 -5.22668e-06 -3.83946e-05
0.00314548 0.00125902 0.046396
-9.07624e-05 -2.84923e-05 -4.12871e-05
0.000200991 8.78614e-05 -0.000853054
8.69953e-06 3.5605e-06 -0.000354569
-0.000273069 0.000142016 0.000727127
-8.37501e-05 3.69136e-05 -9.73657e-05
-0.000103021 2.14814e-05 -1.34439e-05
-0.000304657 7.2242e-05 0.000671619
0.0 0.0 -0.00160516
-8.69458e-05 1.91348e-05 -3.77765e-05
-0.00039651 -0.00012422 -0.000191124
0.0 0.0 -0.00160516
0.0 0.0 -0.000346714
-7.46962e-05 3.8509e-05 -6.92727e-05
0.0 0.0 -0.00160516
-0.000448397 0.000100189 -5.01592e-05
-8.97103e-05 -4.29194e-06 -2.97219e-05
0.0 0.0 -0.000346714
-8.74576e-05 -2.45461e-05 -3.68159e-05
-0.000184173 -5.38883e-05 8.06245e-05
-0.000376729 -0.000117031 -0.000248287
0.0 0.0 -0.000346714
-0.000112297 9.71942e-05 5.06865e-06
-8.3855e-05 4.62646e-05 -4.95993e-05
0.0 0.0 -0.00160516
1.50716e-05 0.000142196 -2.10102e-05
0.000603525 0.00151265 0.00848435
0.0 0.0 -0.000346714
-8.6182e-05 2.18221e-05 -3.97261e-05
0.0 0.0 -0.000346714
-8.66414e-05 2.1984e-05 -3.81539e-05
0.0 0.0 -0.000346714
-8.66446e-05 2.19849e-05 -3.81447e-05
-0.000400857 -6.01622e-06 -0.000206451
0.0 0.0 -0.00160516
0.0 0.0 -0.000346714
0.0 0.0 -0.00160516
-0.000101985 -2.58148e-05 -1.13853e-05
-7.78836e-05 -2.41582e-05 -2.09059e-05
-0.000276043 -0.00013701 -0.000557598
-8.25503e-05 4.73858e-05 -4.46272e-05
-8.31784e-05 4.77692e-05 -4.303e-05
0.000149712 -4.88727e-05 -0.00181486
-8.84126e-05 2.44762e-05 -4.07499e-05
2.45915e-05 1.22895e-05 1.32912e-05
0.0 0.0 -0.000346714
-8.93383e-05 3.67268e-07 -3.91555e-05
-0.000155497 -6.06562e-07 9.46053e-05
-0.000410618 1.68324e-06 -0.000186785
0.0 0.0 -0.000346714
0.0 0.0 -0.00160516
-8.77579e-05 1.41474e-06 -3.64956e-05
0.0 0.0 -0.000346714
0.0 0.0 -0.000346714
0.0 0.0 -0.00160516
0.0 0.0 -0.000346714
0.0 0.0 -0.000346714
-8.68762e-05 -2.15102e-05 -3.72325e-05
-5.60372e-05 7.552e-05 -1.82286e-05
-3.20884e-05 1.60015e-05 -0.000264311
-6.92176e-05 9.04992e-05 -7.36004e-05
0.0 0.0 -0.00160516
0.0 0.0 -0.000346714
0.0 0.0 -0.00160516
0.0 0.0 -0.000346714
-6.92898e-05 1.44016e-06 -9.81799e-05
0.0 0.0 -0.000346714
-8.88502e-05 -1.95777e-05 -3.99277e-05
0.0 0.0 -0.000346714
-0.000578754 -0.000500338 0.000119748
-6.60979e-05 8.59862e-05 -7.42353e-05
2.90159e-06 2.6826e-05 5.6612e-06
-0.0022757 -0.00033439 0.00320466
-8.63166e-05 2.48743e-05 -3.84579e-05
-0.000379183 0.000109702 -0.000218573
3.90566e-05 -2.47198e-06 -0.000138704
-8.35732e-05 3.02551e-06 -4.58941e-05
0.0 0.0 -0.00160516
3.24397e-07 -1.5615e-07 -0.000341833
-8.7756e-05 -1.89085e-05 -3.72695e-05
-7.95418e-05 -6.46952e-05 -5.43704e-05
0.0 0.0 -0.000346714
-4.01389e-05 2.41978e-05 -0.00017207
-9.71647e-05 3.70005e-05 -2.23028e-05
0.00295127 0.000913483 0.00428684
0.000149103 -0.000129175 0.00242792
-8.47822e-05 2.51342e-05 -3.71165e-05
-0.000403115 1.37581e-05 -0.000166857
-8.88282e-05 1.74323e-05 -3.97113e-05
-0.00039945 1.36111e-05 -0.000173526
-0.000413095 -8.31361e-05 -0.000167788
-0.000103129 -4.91784e-05 -4.58947e-06
0.0 0.0 -0.00160516
2.32217e-05 1.47335e-06 3.848e-06
-8.80517e-05 4.28983e-07 -4.2514e-05
-9.02656e-05 3.86594e-07 -3.90503e-05
0.000138743 6.22677e-06 0.000447109
-9.02535e-05 3.86756e-07 -3.9065e-05
-8.31539e-05 -1.78317e-05 -3.93832e-05
2.5029e-05 -4.27139e-06 9.88515e-06
-0.000397571 -0.000182663 -0.000202605
-7.07908e-05 -8.37182e-05 -6.63397e-05
-6.3561e-05 0.000107239 -7.40669e-05
-0.000311434 0.000370328 -0.000427124
-5.66772e-05 2.50529e-05 -0.000139007
-9.13069e-05 1.21607e-05 -3.49709e-05
-8.1584e-05 1.08584e-05 -5.6036e-05
-0.000129842 -0.000544296 0.00163126
-0.000403427 -1.17626e-05 -0.00016554
-0.000415626 2.03655e-06 -0.000198604
-9.05833e-05 -2.54283e-05 -2.40116e-05
0.000137862 -8.70018e-05 0.000247695
-0.000392676 -0.000181691 -0.000206976
0.000274007 -0.000215547 -0.00215146
-0.00023761 6.62416e-05 -0.000611456
0.0 0.0 -0.00160516
-8.89952e-05 2.62879e-05 -3.07725e-05
0.0 0.0 -0.000346714
0.0 0.0 -0.00160516
0.0 0.0 -0.000346714
0.0 0.0 -0.000346714
-0.00013876 -4.2682e-06 9.62743e-05
0.0 0.0 -0.000346714
2.53628e-05 -7.33251e-06 -1.0896e-06
-9.02091e-05 -5.09377e-06 -3.93769e-05
-0.000404336 -0.000112062 -0.000162165
0.0 0.0 -0.000346714
1.59964e-06 6.46016e-06 -0.00158211
0.0 0.0 -0.000346714
6.85423e-06 -4.41531e-06 -0.00119279
0.0 0.0 -0.000346714
-8.8686e-05 1.07068e-05 -3.27294e-05
0.0 0.0 -0.000346714
-8.29556e-05 5.873e-06 -5.57429e-05
-0.000395013 2.80883e-05 -0.000227723
0.0 0.0 -0.00160516
-0.00100382 -5.73363e-05 0.0008999
5.28298e-06 1.7429e-06 -0.000351464
-0.000408364 -0.000120717 -0.000203545
0.0 0.0 -0.000346714
-8.42948e-05 4.50706e-05 -4.78945e-05
0.0 0.0 -0.000346714
0.0 0.0 -0.000346714
0.0 0.0 -0.000346714
0.0 0.0 -0.000346714
-0.000391904 -3.59567e-05 -0.000219972
0.0 0.0 -0.00160516
-0.0031261 -0.000870438 0.00499877
0.0 0.0 -0.000346714
-8.18125e-05 -4.56373e-05 -4.39634e-05
-0.000515186 0.000271627 0.000121282
-0.000400148 0.000136284 -0.000186964
0.0 0.0 -0.00160516
-8.93748e-05 1.54955e-05 -3.87365e-05
0.0 0.0 -0.000346714
-0.000381537 7.88947e-06 -0.000143064
0.0 0.0 -0.00160516
-0.000431518 -5.508e-05 0.000211813
0.0 0.0 -0.000346714
0.00344822 -0.00738488 0.00397775
-0.00291843 0.00743971 -0.00513324
0.0 0.0 -0.000346714
0.0 0.0 -0.000346714
0.0 0.0 -0.000346714
-8.0874e-05 2.69257e-05 -5.39359e-05