# vtk DataFile Version 2.0
Generated by lpp.py
ASCII
DATASET POLYDATA
POINTS 358 float
-0.154719 -0.00213916 -0.171234
-0.158303 0.00245547 -0.171518
-0.156761 0.0112131 -0.171685
-0.157646 -0.0149421 -0.170704
-0.151216 -0.0031677 -0.169805
-0.146325 -0.00120146 -0.167726
-0.152763 0.0149858 -0.169568
-0.152895 0.024767 -0.168379
-0.151414 -0.0299881 -0.166898
-0.147984 -0.00765583 -0.167152
-0.144479 3.2951e-05 -0.165544
-0.138665 0.00131096 -0.164385
-0.149803 0.00810613 -0.165262
-0.141791 0.00387025 -0.165669
-0.14207 0.00899737 -0.165621
-0.142999 0.01841 -0.165155
-0.146535 0.0203298 -0.166383
-0.144631 0.0259051 -0.163712
-0.202971 0.0761151 -0.165788
-0.148973 -0.0455927 -0.161766
-0.138048 -0.00383241 -0.160918
-0.135058 -0.0017924 -0.162983
-0.137499 0.00397905 -0.163227
-0.133133 0.00630054 -0.16091
-0.125941 -0.0154732 -0.156367
-0.129244 -0.00189144 -0.158509
-0.122379 0.00151491 -0.157644
-0.129346 0.00907812 -0.160191
-0.128535 0.0222107 -0.157471
-0.194275 -0.0443836 -0.157941
-0.122358 -0.0137368 -0.157027
-0.120141 -0.012546 -0.155142
-0.123357 -0.00550192 -0.156905
-0.116536 0.00162006 -0.154105
-0.118423 0.00792731 -0.15574
-0.119437 0.0171489 -0.154445
-0.125973 0.027434 -0.156747
-0.118441 -0.0275752 -0.152085
-0.116061 -0.0240407 -0.153162
-0.107837 -0.00981819 -0.15118
-0.107467 0.00298241 -0.151308
-0.105917 0.0135021 -0.150086
-0.117287 0.0227798 -0.153194
-0.107303 -0.0163554 -0.149419
-0.10128 -0.00433767 -0.148735
-0.111197 0.00307092 -0.152954
-0.094035 0.00114609 -0.145644
-0.106318 0.00649327 -0.149425
-0.101937 0.0111596 -0.147512
-0.104308 0.0187616 -0.147853
-0.100638 0.0263671 -0.146271
-0.110415 0.0303107 -0.148681
-0.112331 -0.0503412 -0.143816
-0.0933804 -0.0148117 -0.143704
-0.0919745 -0.00926701 -0.143444
-0.0974949 -0.00340287 -0.146059
-0.0878777 0.00250582 -0.143031
-0.108321 0.0104163 -0.148989
-0.0930492 0.00868349 -0.143969
-0.0928407 0.0145678 -0.144484
-0.0846462 -0.00681748 -0.140472
-0.0908777 0.0122606 -0.141011
-0.0892593 0.0167886 -0.142803
-0.0871055 0.0254785 -0.140745
-0.102647 0.051335 -0.140865
-0.088684 -0.0405894 -0.13839
-0.0770097 -0.0186636 -0.137435
-0.073516 -0.0200802 -0.135802
-0.0919983 -0.0185981 -0.137886
-0.074742 -0.0147681 -0.136897
-0.0977193 -0.00963341 -0.139488
-0.0755167 -0.00959139 -0.136484
-0.0959327 -0.00270227 -0.139694
-0.0912667 0.00553389 -0.141096
-0.0833654 0.00513785 -0.138117
-0.074543 0.00740344 -0.13641
-0.0769315 0.0274823 -0.136178
-0.119132 -0.080085 -0.133501
-0.0972509 -0.00263297 -0.136879
-0.0924315 -0.00041883 -0.135252
-0.067395 -0.00237552 -0.134479
-0.0645631 0.00119979 -0.13322
-0.0663091 0.00508514 -0.132791
-0.0859417 0.00683388 -0.136023
-0.081263 0.0162216 -0.134178
-0.0914143 -0.0347886 -0.129499
-0.0708359 -0.0166045 -0.133374
-0.0617792 -0.014095 -0.130482
-0.0563162 -0.00869992 -0.129509
-0.0719205 -0.00508396 -0.130751
-0.0628048 -0.00552259 -0.131312
-0.0564059 -0.00466694 -0.128627
-0.0774732 -0.00291806 -0.133293
-0.0609357 0.0105402 -0.131456
-0.0692938 0.0146747 -0.132195
-0.0645902 0.0140381 -0.132506
-0.0630896 0.0206482 -0.130304
-0.0590394 0.0176362 -0.129665
-0.0658141 0.0254158 -0.130798
-0.0516965 -0.0263748 -0.12482
-0.0544767 -0.0243324 -0.127002
-0.057266 -0.0190339 -0.127678
-0.051883 -0.0213457 -0.126571
-0.083079 -0.0126796 -0.126485
-0.0713473 -0.0130172 -0.127275
-0.0562806 -0.013943 -0.128896
-0.0522265 -0.0138027 -0.127438
-0.0524371 -0.0102423 -0.125047
-0.074956 -0.0079345 -0.127501
-0.0875265 -0.00145438 -0.126996
-0.0608916 -0.0020886 -0.128277
-0.0516062 0.00634902 -0.126202
-0.0503081 0.0100507 -0.124628
-0.0553914 0.0117552 -0.127957
-0.0658288 0.0168723 -0.128934
-0.0556027 0.01893 -0.126057
-0.0734678 0.0519721 -0.127675
-0.0657169 -0.0243009 -0.123906
-0.0438355 -0.0206236 -0.121854
-0.0492504 -0.0129632 -0.122056
-0.0889479 -0.00791129 -0.126557
-0.0765749 -0.00153502 -0.123959
-0.0677553 0.00370589 -0.123311
-0.0467557 0.0019706 -0.122457
-0.0366407 0.0048999 -0.121422
-0.0363053 0.0120041 -0.120857
-0.0901469 0.0138866 -0.125088
-0.0699366 0.0178892 -0.125
-0.042494 0.0184426 -0.122998
-0.0620247 0.0188347 -0.125548
-0.0392848 0.0193578 -0.121529
-0.049861 0.0244509 -0.124375
-0.0638468 0.0380508 -0.124119
-0.0381029 -0.0244263 -0.120412
-0.0751645 -0.0128539 -0.119389
-0.0340345 -0.0161729 -0.119575
-0.0293537 -0.0157094 -0.117624
-0.0583487 -0.00730606 -0.123452
-0.0337607 -0.00310449 -0.120156
-0.0325832 -0.00691444 -0.119477
-0.0478306 0.00825283 -0.118437
-0.0411028 0.00794054 -0.120054
-0.0516768 0.0162892 -0.120736
-0.0770795 0.0148068 -0.120023
-0.0480079 0.0151052 -0.125272
-0.0668608 0.0680512 -0.119972
-0.0419798 -0.0558599 -0.114798
-0.0620861 -0.0408296 -0.118214
-0.0306266 -0.0399621 -0.114289
-0.0275638 -0.0270361 -0.114007
-0.0413957 -0.0228749 -0.117946
-0.034125 -0.022584 -0.115829
-0.0675129 -0.014205 -0.115934
-0.0417708 -0.018374 -0.115196
-0.052802 -0.0131548 -0.117192
-0.064283 -0.00366011 -0.117336
-0.0309501 -0.00597149 -0.114508
-0.0278539 -0.000443569 -0.116942
-0.0377945 0.000191805 -0.115679
-0.0294751 0.00510396 -0.115668
-0.0211426 0.000243076 -0.1136
-0.0372727 0.00452365 -0.117528
-0.0658174 0.00837328 -0.113893
-0.0312042 0.0105332 -0.115244
-0.033213 0.021489 -0.11219
-0.0402901 0.031037 -0.114121
-0.075107 0.0481479 -0.116937
-0.0391167 0.0538068 -0.114244
-0.03825 -0.0292485 -0.113212
-0.0603464 -0.0182593 -0.114669
-0.0478866 -0.0201411 -0.112459
-0.0331378 -0.0214878 -0.110352
-0.0230766 -0.0194204 -0.112096
-0.048911 -0.0152105 -0.11183
-0.0380533 -0.0149921 -0.110653
-0.00923488 -0.00682446 -0.109688
-0.0290463 -0.000611363 -0.112206
-0.0474605 0.00324469 -0.112126
-0.0465088 0.00540087 -0.109993
-0.0169323 0.00907126 -0.11283
-0.0161465 0.00832389 -0.108859
-0.0265833 0.0157204 -0.112291
-0.0535957 0.0182343 -0.111345
-0.0574778 0.019553 -0.112665
-0.0380798 0.0226403 -0.111292
-0.0282071 -0.0249491 -0.107032
-0.0150708 -0.0143415 -0.109152
-0.0352442 -0.0100676 -0.110299
-0.0271858 0.00854523 -0.106189
-0.0108476 0.0135687 -0.106025
-0.014076 0.0250101 -0.104653
-0.0326487 0.0283819 -0.117732
-0.0193508 0.0278939 -0.107593
-0.0155608 0.0291622 -0.10544
-0.0316352 -0.0266957 -0.114439
-0.0176379 -0.0200715 -0.104018
-0.0310006 -0.0170907 -0.103172
-0.024019 -0.00645736 -0.103091
-0.0121627 -0.00709011 -0.103527
-0.0383922 -0.00679438 -0.105477
-0.0165476 -0.00382649 -0.110651
-0.0201974 0.0146759 -0.105807
-0.0455141 0.0166649 -0.106902
-0.0247047 0.0200385 -0.102878
-0.0290534 0.0250102 -0.105689
-0.0129636 0.0301165 -0.101789
-0.0170293 0.0594176 -0.10345
-0.022671 -0.0269656 -0.0990552
-0.045611 -0.0140378 -0.10115
-0.0258692 -0.0150214 -0.111164
-0.0133957 -0.0154136 -0.105126
-0.0316023 0.0168197 -0.11386
-0.0711199 0.0217783 -0.101714
-0.0455914 0.02487 -0.103257
-0.0743901 0.0324809 -0.102791
-0.0218386 0.0321631 -0.111584
-0.00256224 -0.0320094 -0.102459
-0.1153 -0.0199438 -0.0982736
-0.0140263 -0.0199351 -0.0994083
-0.0141421 0.000627184 -0.105129
-0.0256746 -0.0295973 -0.102638
-0.0186146 -0.0100891 -0.102802
-0.0206785 0.0145985 -0.101089
-0.0125397 -0.025785 -0.0987006
-0.0104339 -0.00964248 -0.0998899
-0.0158011 0.0337207 -0.0980668
-0.0349321 -0.00790873 -0.0903649
-0.0114835 -0.0265679 -0.0874301
-0.0172445 0.00368684 -0.0855249
-0.03004 0.0154412 -0.0883355
-0.0245784 0.0311922 -0.0872562
-0.00133775 0.0319388 -0.0864305
-0.004822 -0.0263713 -0.0837166
-0.0305153 0.021925 -0.0832013
-0.011765 -0.0317196 -0.0787291
-0.00523715 -0.00399455 -0.0777501
-0.00913613 0.0130219 -0.0755873
-0.0276781 -0.0346784 -0.0728354
-0.00624641 -0.0254844 -0.0732451
-0.024936 0.00943572 -0.0743754
-0.0178674 0.023228 -0.0736328
-0.0312596 -0.0342874 -0.0696374
-0.0140583 -0.0235405 -0.0695501
-0.0103972 0.0260911 -0.0681122
-0.0202693 -0.0311084 -0.0642704
-0.00778825 -0.017605 -0.0673064
-0.00508252 -0.00729713 -0.0650843
-0.000908632 0.0183203 -0.0667975
-0.0334625 0.0326024 -0.066124
-0.0322818 -0.0136491 -0.0619922
-0.0242205 -0.0101411 -0.0619196
-0.00133703 0.00391048 -0.0603847
-0.0171169 0.0130299 -0.0624596
-0.0330193 -0.0287184 -0.0571097
-0.0304516 0.017575 -0.0597272
-0.0327952 0.00273344 -0.0556156
-0.0282211 -0.0123493 -0.0507316
-0.0169822 0.00918438 -0.0484666
-0.0266383 0.0211746 -0.0461897
-0.0323156 0.0257586 -0.0492708
-0.0242312 -0.0119118 -0.0438562
-0.000691472 -0.0346461 -0.0391972
-0.0332043 -0.0119457 -0.0386283
-0.0084722 -0.0123243 -0.0399705
-0.0181876 -0.00799419 -0.0391935
-0.016367 0.0234551 -0.0420111
-0.0319423 -0.0207084 -0.0378521
-0.0266867 0.00969496 -0.0373367
-0.0345837 0.0307765 -0.0373622
-0.0203439 -0.0213423 -0.0331556
-0.0242569 -0.0048619 -0.0314797
-0.0158837 -0.0146366 -0.0277576
-0.018202 -0.00127292 -0.0292903
-0.0265303 0.0300204 -0.0295339
-0.0285795 0.0326856 -0.0293999
-0.00968967 -0.0134906 -0.0250237
-0.00413281 -0.000337831 -0.0260811
-0.00852479 0.034934 -0.0248246
-0.014458 -0.0150737 -0.0216995
-0.0171117 -0.0109135 -0.0196583
-0.0238687 0.0109416 -0.0200651
-0.026238 0.0194762 -0.0180327
-0.0145426 0.0200822 -0.0180309
-0.00517746 0.0266228 -0.0201514
-0.0196571 -0.00676578 -0.0138232
-0.0181127 0.0295097 -0.0153149
-0.0170652 -0.0127043 -0.0102677
-0.030318 0.0147393 -0.0118824
-0.0300845 0.0256603 -0.00937741
-0.0308827 0.00162734 -0.00750756
-0.0239975 0.00585265 -0.00668085
-0.00434932 0.00423497 -0.00803183
-0.0332323 0.0316676 -0.00764058
-0.0108823 0.00232676 -0.00440746
-0.0346254 0.0108555 -0.00388966
-0.0184752 -0.00390867 -0.00135272
-0.0291592 -0.00156433 0.00140176
-0.0256427 -0.0310174 0.00282434
-0.00876558 -0.0160351 0.00490127
-0.00296015 -0.0125694 0.00392074
-0.00418171 -0.00389031 0.00438543
-0.0101895 0.00506721 0.00302116
-0.00344499 0.0151299 0.0031995
-0.0316084 -0.0265255 0.00808401
-0.027048 -0.0192107 0.00577445
-0.0281016 0.00020127 0.00851287
-0.00981587 0.00303905 0.00957104
-0.0246424 0.00553727 0.0120191
-0.0288083 0.00732997 0.0100113
-0.0208274 -0.0341404 0.014438
-0.0188893 -0.0213338 0.0162729
-0.0195242 0.01415 0.0144797
-0.0141191 -0.0144365 0.0192076
-0.0107355 -0.0103339 0.0187826
-0.0118162 -0.00633589 0.0197566
-0.00987825 0.0266251 0.0164565
-0.032854 -0.0214325 0.0207882
-0.0120408 0.00484626 0.0214442
-0.0260976 0.00786627 0.0212494
-0.0129098 0.021507 0.0215626
-0.000558622 0.0213939 0.0234748
-0.00974267 -0.0210328 0.0266854
-0.0026782 0.0306845 0.0265282
-0.031713 0.0319285 0.0264854
-0.0120659 -0.0232029 0.0279317
-0.0275767 -0.00857811 0.0308195
-0.0193603 0.00427373 0.0286991
-0.0280975 0.0196597 0.0301857
-0.00304149 -0.022423 0.0335328
-0.00515441 -0.0109162 0.0341872
-0.018318 0.00551713 0.033861
-0.0142719 0.0175582 0.0346278
-0.0341957 -0.0270523 0.0354274
-0.0230158 -0.0063197 0.0370948
-0.00209743 0.0155548 0.0383882
-0.0329214 -0.0245036 0.0389218
-0.0230867 -0.0242912 0.0405956
-0.00426265 -0.000462787 0.0400865
-0.034337 0.00561382 0.039631
-0.0054599 0.0237214 0.0387899
-0.00209585 0.021148 0.0419695
-0.0273791 5.52728e-05 0.0427401
-0.0183167 0.0119421 0.0432616
-0.00205387 0.0243132 0.0443016
-0.00977287 -0.0305241 0.0490765
-0.0258414 -0.0270694 0.046384
-0.0323459 0.000933277 0.04691
-0.0191985 0.0336061 0.0471299
-0.00315638 -0.0234267 0.0506583
-0.00797106 0.00155248 0.0526104
-0.0266262 0.0180085 0.0501825
-0.0268897 0.0240704 0.0494572
-0.0251891 0.0274385 0.0517559
-0.0184795 -0.0100183 0.0557713
-0.00858455 -0.00832622 0.0533573
-0.0304883 0.0114791 0.0552342
-0.0183571 0.0195956 0.0550558
-0.0306529 0.0174599 0.0564925
VERTICES 358 716
1 0
1 1
1 2
1 3
1 4
1 5
1 6
1 7
1 8
1 9
1 10
1 11
1 12
1 13
1 14
1 15
1 16
1 17
1 18
1 19
1 20
1 21
1 22
1 23
1 24
1 25
1 26
1 27
1 28
1 29
1 30
1 31
1 32
1 33
1 34
1 35
1 36
1 37
1 38
1 39
1 40
1 41
1 42
1 43
1 44
1 45
1 46
1 47
1 48
1 49
1 50
1 51
1 52
1 53
1 54
1 55
1 56
1 57
1 58
1 59
1 60
1 61
1 62
1 63
1 64
1 65
1 66
1 67
1 68
1 69
1 70
1 71
1 72
1 73
1 74
1 75
1 76
1 77
1 78
1 79
1 80
1 81
1 82
1 83
1 84
1 85
1 86
1 87
1 88
1 89
1 90
1 91
1 92
1 93
1 94
1 95
1 96
1 97
1 98
1 99
1 100
1 101
1 102
1 103
1 104
1 105
1 106
1 107
1 108
1 109
1 110
1 111
1 112
1 113
1 114
1 115
1 116
1 117
1 118
1 119
1 120
1 121
1 122
1 123
1 124
1 125
1 126
1 127
1 128
1 129
1 130
1 131
1 132
1 133
1 134
1 135
1 136
1 137
1 138
1 139
1 140
1 141
1 142
1 143
1 144
1 145
1 146
1 147
1 148
1 149
1 150
1 151
1 152
1 153
1 154
1 155
1 156
1 157
1 158
1 159
1 160
1 161
1 162
1 163
1 164
1 165
1 166
1 167
1 168
1 169
1 170
1 171
1 172
1 173
1 174
1 175
1 176
1 177
1 178
1 179
1 180
1 181
1 182
1 183
1 184
1 185
1 186
1 187
1 188
1 189
1 190
1 191
1 192
1 193
1 194
1 195
1 196
1 197
1 198
1 199
1 200
1 201
1 202
1 203
1 204
1 205
1 206
1 207
1 208
1 209
1 210
1 211
1 212
1 213
1 214
1 215
1 216
1 217
1 218
1 219
1 220
1 221
1 222
1 223
1 224
1 225
1 226
1 227
1 228
1 229
1 230
1 231
1 232
1 233
1 234
1 235
1 236
1 237
1 238
1 239
1 240
1 241
1 242
1 243
1 244
1 245
1 246
1 247
1 248
1 249
1 250
1 251
1 252
1 253
1 254
1 255
1 256
1 257
1 258
1 259
1 260
1 261
1 262
1 263
1 264
1 265
1 266
1 267
1 268
1 269
1 270
1 271
1 272
1 273
1 274
1 275
1 276
1 277
1 278
1 279
1 280
1 281
1 282
1 283
1 284
1 285
1 286
1 287
1 288
1 289
1 290
1 291
1 292
1 293
1 294
1 295
1 296
1 297
1 298
1 299
1 300
1 301
1 302
1 303
1 304
1 305
1 306
1 307
1 308
1 309
1 310
1 311
1 312
1 313
1 314
1 315
1 316
1 317
1 318
1 319
1 320
1 321
1 322
1 323
1 324
1 325
1 326
1 327
1 328
1 329
1 330
1 331
1 332
1 333
1 334
1 335
1 336
1 337
1 338
1 339
1 340
1 341
1 342
1 343
1 344
1 345
1 346
1 347
1 348
1 349
1 350
1 351
1 352
1 353
1 354
1 355
1 356
1 357
POINT_DATA 358
VECTORS i float
0.0 0.0 0.0
0.0 0.0 0.0
0.0 0.0 0.0
0.0 0.0 0.0
0.0 0.0 0.0
0.0 0.0 0.0
0.0 0.0 0.0
0.0 0.0 0.0
0.0 0.0 0.0
0.0 0.0 0.0
0.0 0.0 0.0
0.0 0.0 0.0
0.0 0.0 0.0
0.0 0.0 0.0
0.0 0.0 0.0
0.0 0.0 0.0
0.0 0.0 0.0
0.0 0.0 0.0
0.0 0.0 0.0
0.0 0.0 0.0
0.0 0.0 0.0
0.0 0.0 0.0
0.0 0.0 0.0
0.0 0.0 0.0
0.0 0.0 0.0
0.0 0.0 0.0
0.0 0.0 0.0
0.0 0.0 0.0
0.0 0.0 0.0
0.0 0.0 0.0
0.0 0.0 0.0
0.0 0.0 0.0
0.0 0.0 0.0
0.0 0.0 0.0
0.0 0.0 0.0
0.0 0.0 0.0
0.0 0.0 0.0
0.0 0.0 0.0
0.0 0.0 0.0
0.0 0.0 0.0
0.0 0.0 0.0
0.0 0.0 0.0
0.0 0.0 0.0
0.0 0.0 0.0
0.0 0.0 0.0
0.0 0.0 0.0
0.0 0.0 0.0
0.0 0.0 0.0
0.0 0.0 0.0
0.0 0.0 0.0
0.0 0.0 0.0
0.0 0.0 0.0
0.0 0.0 0.0
0.0 0.0 0.0
0.0 0.0 0.0
0.0 0.0 0.0
0.0 0.0 0.0
0.0 0.0 0.0
0.0 0.0 0.0
0.0 0.0 0.0
0.0 0.0 0.0
0.0 0.0 0.0
0.0 0.0 0.0
0.0 0.0 0.0
0.0 0.0 0.0
0.0 0.0 0.0
0.0 0.0 0.0
0.0 0.0 0.0
0.0 0.0 0.0
0.0 0.0 0.0
0.0 0.0 0.0
0.0 0.0 0.0
0.0 0.0 0.0
0.0 0.0 0.0
0.0 0.0 0.0
0.0 0.0 0.0
0.0 0.0 0.0
0.0 0.0 0.0
0.0 0.0 0.0
0.0 0.0 0.0
0.0 0.0 0.0
0.0 0.0 0.0
0.0 0.0 0.0
0.0 0.0 0.0
0.0 0.0 0.0
0.0 0.0 0.0
0.0 0.0 0.0
0.0 0.0 0.0
0.0 0.0 0.0
0.0 0.0 0.0
0.0 0.0 0.0
0.0 0.0 0.0
0.0 0.0 0.0
0.0 0.0 0.0
0.0 0.0 0.0
0.0 0.0 0.0
0.0 0.0 0.0
0.0 0.0 0.0
0.0 0.0 0.0
0.0 0.0 0.0
0.0 0.0 0.0
0.0 0.0 0.0
0.0 0.0 0.0
0.0 0.0 0.0
0.0 0.0 0.0
0.0 0.0 0.0
0.0 0.0 0.0
0.0 0.0 0.0
0.0 0.0 0.0
0.0 0.0 0.0
0.0 0.0 0.0
0.0 0.0 0.0
0.0 0.0 0.0
0.0 0.0 0.0
0.0 0.0 0.0
0.0 0.0 0.0
0.0 0.0 0.0
0.0 0.0 0.0
0.0 0.0 0.0
0.0 0.0 0.0
0.0 0.0 0.0
0.0 0.0 0.0
0.0 0.0 0.0
0.0 0.0 0.0
0.0 0.0 0.0
0.0 0.0 0.0
0.0 0.0 0.0
0.0 0.0 0.0
0.0 0.0 0.0
0.0 0.0 0.0
0.0 0.0 0.0
0.0 0.0 0.0
0.0 0.0 0.0
0.0 0.0 0.0
0.0 0.0 0.0
0.0 0.0 0.0
0.0 0.0 0.0
0.0 0.0 0.0
0.0 0.0 0.0
0.0 0.0 0.0
0.0 0.0 0.0
0.0 0.0 0.0
0.0 0.0 0.0
0.0 0.0 0.0
0.0 0.0 0.0
0.0 0.0 0.0
0.0 0.0 0.0
0.0 0.0 0.0
0.0 0.0 0.0
0.0 0.0 0.0
0.0 0.0 0.0
0.0 0.0 0.0
0.0 0.0 0.0
0.0 0.0 0.0
0.0 0.0 0.0
0.0 0.0 0.0
0.0 0.0 0.0
0.0 0.0 0.0
0.0 0.0 0.0
0.0 0.0 0.0
0.0 0.0 0.0
0.0 0.0 0.0
0.0 0.0 0.0
0.0 0.0 0.0
0.0 0.0 0.0
0.0 0.0 0.0
0.0 0.0 0.0
0.0 0.0 0.0
0.0 0.0 0.0
0.0 0.0 0.0
0.0 0.0 0.0
0.0 0.0 0.0
0.0 0.0 0.0
0.0 0.0 0.0
0.0 0.0 0.0
0.0 0.0 0.0
0.0 0.0 0.0
0.0 0.0 0.0
0.0 0.0 0.0
0.0 0.0 0.0
0.0 0.0 0.0
0.0 0.0 0.0
0.0 0.0 0.0
0.0 0.0 0.0
0.0 0.0 0.0
0.0 0.0 0.0
0.0 0.0 0.0
0.0 0.0 0.0
0.0 0.0 0.0
0.0 0.0 0.0
0.0 0.0 0.0
0.0 0.0 0.0
0.0 0.0 0.0
0.0 0.0 0.0
0.0 0.0 0.0
0.0 0.0 0.0
0.0 0.0 0.0
0.0 0.0 0.0
0.0 0.0 0.0
0.0 0.0 0.0
0.0 0.0 0.0
0.0 0.0 0.0
0.0 0.0 0.0
0.0 0.0 0.0
0.0 0.0 0.0
0.0 0.0 0.0
0.0 0.0 0.0
0.0 0.0 0.0
0.0 0.0 0.0
0.0 0.0 0.0
0.0 0.0 0.0
0.0 0.0 0.0
0.0 0.0 0.0
0.0 0.0 0.0
0.0 0.0 0.0
0.0 0.0 0.0
0.0 0.0 0.0
0.0 0.0 0.0
0.0 0.0 0.0
0.0 0.0 0.0
0.0 0.0 0.0
0.0 0.0 0.0
0.0 0.0 0.0
0.0 0.0 0.0
0.0 0.0 0.0
0.0 0.0 0.0
0.0 0.0 0.0
0.0 0.0 0.0
0.0 0.0 0.0
0.0 0.0 0.0
0.0 0.0 0.0
0.0 0.0 0.0
0.0 0.0 0.0
0.0 0.0 0.0
0.0 0.0 0.0
0.0 0.0 0.0
0.0 0.0 0.0
0.0 0.0 0.0
0.0 0.0 0.0
0.0 0.0 0.0
0.0 0.0 0.0
0.0 0.0 0.0
0.0 0.0 0.0
0.0 0.0 0.0
0.0 0.0 0.0
0.0 0.0 0.0
0.0 0.0 0.0
0.0 0.0 0.0
0.0 0.0 0.0
0.0 0.0 0.0
0.0 0.0 0.0
0.0 0.0 0.0
0.0 0.0 0.0
0.0 0.0 0.0
0.0 0.0 0.0
0.0 0.0 0.0
0.0 0.0 0.0
0.0 0.0 0.0
0.0 0.0 0.0
0.0 0.0 0.0
0.0 0.0 0.0
0.0 0.0 0.0
0.0 0.0 0.0
0.0 0.0 0.0
0.0 0.0 0.0
0.0 0.0 0.0
0.0 0.0 0.0
0.0 0.0 0.0
0.0 0.0 0.0
0.0 0.0 0.0
0.0 0.0 0.0
0.0 0.0 0.0
0.0 0.0 0.0
0.0 0.0 0.0
0.0 0.0 0.0
0.0 0.0 0.0
0.0 0.0 0.0
0.0 0.0 0.0
0.0 0.0 0.0
0.0 0.0 0.0
0.0 0.0 0.0
0.0 0.0 0.0
0.0 0.0 0.0
0.0 0.0 0.0
0.0 0.0 0.0
0.0 0.0 0.0
0.0 0.0 0.0
0.0 0.0 0.0
0.0 0.0 0.0
0.0 0.0 0.0
0.0 0.0 0.0
0.0 0.0 0.0
0.0 0.0 0.0
0.0 0.0 0.0
0.0 0.0 0.0
0.0 0.0 0.0
0.0 0.0 0.0
0.0 0.0 0.0
0.0 0.0 0.0
0.0 0.0 0.0
0.0 0.0 0.0
0.0 0.0 0.0
0.0 0.0 0.0
0.0 0.0 0.0
0.0 0.0 0.0
0.0 0.0 0.0
0.0 0.0 0.0
0.0 0.0 0.0
0.0 0.0 0.0
0.0 0.0 0.0
0.0 0.0 0.0
0.0 0.0 0.0
0.0 0.0 0.0
0.0 0.0 0.0
0.0 0.0 0.0
0.0 0.0 0.0
0.0 0.0 0.0
0.0 0.0 0.0
0.0 0.0 0.0
0.0 0.0 0.0
0.0 0.0 0.0
0.0 0.0 0.0
0.0 0.0 0.0
0.0 0.0 0.0
0.0 0.0 0.0
0.0 0.0 0.0
0.0 0.0 0.0
0.0 0.0 0.0
0.0 0.0 0.0
0.0 0.0 0.0
0.0 0.0 0.0
0.0 0.0 0.0
0.0 0.0 0.0
0.0 0.0 0.0
0.0 0.0 0.0
0.0 0.0 0.0
0.0 0.0 0.0
0.0 0.0 0.0
0.0 0.0 0.0
0.0 0.0 0.0
0.0 0.0 0.0
0.0 0.0 0.0
0.0 0.0 0.0
0.0 0.0 0.0
0.0 0.0 0.0
0.0 0.0 0.0
0.0 0.0 0.0
0.0 0.0 0.0
0.0 0.0 0.0
0.0 0.0 0.0
0.0 0.0 0.0
0.0 0.0 0.0
0.0 0.0 0.0
0.0 0.0 0.0
0.0 0.0 0.0
0.0 0.0 0.0
0.0 0.0 0.0
0.0 0.0 0.0
VECTORS f float
-8.63746e-05 -2.48112e-06 -3.63087e-05
0.0 0.0 -0.00160516
1.89128e-05 4.02229e-06 -0.000309384
-8.73636e-05 7.99622e-05 0.00167298
3.21694e-05 4.56341e-05 0.000163931
0.0 0.0 -0.000346714
0.0 0.0 -0.000346714
-8.39804e-05 -3.99645e-05 -4.28305e-05
0.0 0.0 -0.000346714
-0.000411016 4.90826e-05 -0.000158282
0.0 0.0 -0.000346714
0.0 0.0 -0.000346714
0.0 0.0 -0.000346714
-8.69373e-05 -8.06216e-06 -3.60386e-05
0.0 0.0 -0.000346714
-7.44052e-05 -2.46273e-05 -3.22872e-06
-8.3217e-05 -2.36426e-05 -3.75644e-05
0.0 0.0 -0.000346714
0.0 0.0 -0.000346714
-6.8094e-05 4.70794e-05 -9.60832e-05
0.0 0.0 -0.000346714
-3.66049e-05 9.01283e-07 -0.000181691
0.0 0.0 -0.000346714
-0.00168677 -0.000230851 0.00310122
0.0 0.0 -0.00160516
0.0 0.0 -0.000346714
-8.78144e-05 8.99293e-07 -4.2512e-05
0.0 0.0 -0.000346714
-0.000522089 -0.000185753 0.000142428
0.0 0.0 -0.000346714
5.07097e-05 0.000126271 0.000483093
0.0 0.0 -0.000346714
0.0 0.0 -0.00160516
0.0 0.0 -0.000346714
2.50596e-05 -2.20252e-05 -1.48685e-05
-0.000409294 -6.93173e-05 -0.000178025
-8.68349e-05 -3.08912e-05 -4.11302e-05
0.0 0.0 -0.00160516
-0.0111829 -0.00569734 0.0290427
-9.09374e-05 1.43696e-05 -2.95841e-05
-8.41992e-05 -6.45166e-07 -4.47203e-05
-8.55814e-05 -1.54741e-05 -4.15287e-05
0.0 0.0 -0.000346714
-0.000404171 0.00013022 -0.000180341
-8.82454e-05 -1.21754e-06 -3.72003e-05
-0.0176807 -0.00353461 0.104168
-8.89925e-05 -1.88874e-06 -3.76642e-05
0.0 0.0 -0.00160516
-0.000840398 -0.000328295 0.00793031
0.0 0.0 -0.00160516
-9.38766e-05 -3.45719e-05 -2.3091e-05
-0.000401376 -0.000147029 -0.000191421
0.0 0.0 -0.00160516
-0.00039838 5.65462e-05 -0.000190087
-0.00126166 0.000142071 0.00190399
-0.000208329 -3.93552e-06 -0.000641556
-8.85924e-05 -2.57463e-06 -3.6771e-05
0.0 0.0 -0.000346714
-0.000420659 -8.27901e-05 -0.000135832
2.44313e-05 -2.47566e-05 7.53822e-06
-0.000424409 5.51165e-05 -0.000165891
0.0 0.0 -0.00160516
-0.000226727 -4.46317e-05 0.000177978
-0.000112337 -4.242e-05 2.64948e-05
-7.90089e-05 -6.50611e-05 -5.40005e-05
0.0 0.0 -0.000346714
3.58461e-05 -2.52499e-05 -0.000400699
-8.72703e-05 2.53326e-05 -3.85459e-05
0.0 0.0 -0.00160516
0.0 0.0 -0.000346714
0.0 0.0 -0.000346714
-0.000411915 4.81008e-05 -0.000175606
0.0 0.0 -0.000346714
0.0 0.0 -0.000346714
0.0 0.0 -0.000346714
0.0 0.0 -0.000346714
-8.65224e-05 -3.42054e-05 -4.25e-05
-6.27837e-05 9.73448e-05 -8.01654e-05
0.0 0.0 -0.000346714
0.0 0.0 -0.000346714
-2.05612e-05 4.91362e-06 -0.00017569
-0.000132434 0.000117307 -0.000121902
-0.000121016 -0.000536905 -0.000215785
0.0 0.0 -0.000346714
0.0 0.0 -0.00160516
0.0 0.0 -0.000346714
0.0 0.0 -0.000346714
-0.000837346 9.29045e-05 -0.000342085
-5.46009e-05 0.000229233 0.000187891
0.0 0.0 -0.000346714
-0.00040534 4.26462e-05 -0.000188263
0.0 0.0 -0.00160516
0.0 0.0 -0.00160516
-0.000148255 -4.63466e-05 7.20557e-05
0.0 0.0 -0.00160516
0.0 0.0 -0.000346714
-0.000370654 -9.23428e-05 -0.000141644
0.0 0.0 -0.000346714
-0.000409758 -0.000170448 -0.000157088
-1.60296e-05 -4.05923e-06 -0.00110634
0.0 0.0 -0.000346714
0.0 0.0 -0.00160516
-8.70036e-05 2.34834e-05 -4.15014e-05
0.0 0.0 -0.000346714
0.0 0.0 -0.000346714
0.0 0.0 -0.000346714
0.0 0.0 -0.000346714
0.0 0.0 -0.00160516
0.0 0.0 -0.00160516
0.0 0.0 -0.000346714
0.0 0.0 -0.000346714
0.0 0.0 -0.00160516
0.0 0.0 -0.000346714
-0.000669893 -0.000152386 0.000458106
0.0 0.0 -0.000346714
0.0 0.0 -0.00160516
-0.000356352 -0.000303687 -0.000270174
0.0 0.0 -0.000346714
0.0 0.0 -0.00160516
0.0 0.0 -0.00160516
0.0 0.0 -0.00160516
0.0 0.0 -0.000346714
0.0 0.0 -0.000346714
0.0 0.0 -0.000346714
-0.00144325 0.000413909 -0.00061901
-8.96254e-05 -1.15228e-05 -4.00626e-05
0.0 0.0 -0.000346714
0.0 0.0 -0.00160516
-0.000137459 -3.70981e-05 6.77311e-05
0.0 0.0 -0.00160516
0.0 0.0 -0.000346714
0.0 0.0 -0.000346714
0.0 0.0 -0.00160516
0.0 0.0 -0.000346714
0.0 0.0 -0.000346714
0.0 0.0 -0.000346714
1.48131e-05 0.00021231 0.000357146
0.0 0.0 -0.00160516
2.11887e-05 -3.30467e-05 1.49829e-05
0.0 0.0 -0.000346714
0.0 0.0 -0.00160516
0.0 0.0 -0.00160516
0.0 0.0 -0.000346714
0.0 0.0 -0.000346714
0.0 0.0 -0.000346714
-7.01154e-05 -8.28985e-05 -6.43351e-05
-8.12082e-05 5.5995e-05 -4.88797e-05
0.0 0.0 -0.000346714
0.0 0.0 -0.000346714
0.0 0.0 -0.000346714
0.0 0.0 -0.00160516
0.0 0.0 -0.00160516
0.0 0.0 -0.00160516
0.0 0.0 -0.00160516
0.0 0.0 -0.00160516
0.0 0.0 -0.00160516
0.0 0.0 -0.00160516
0.0 0.0 -0.000346714
0.0 0.0 -0.000346714
0.0 0.0 -0.000346714
0.0 0.0 -0.000346714
-0.00718607 -0.00210784 0.0284969
0.0 0.0 -0.000346714
0.0 0.0 -0.00160516
0.0 0.0 -0.000346714
0.0 0.0 -0.000346714
0.0 0.0 -0.000346714
-8.27131e-05 -6.02813e-05 -5.4157e-05
0.0 0.0 -0.00160516
0.0 0.0 -0.00160516
0.0 0.0 -0.000346714
0.0 0.0 -0.000346714
0.0 0.0 -0.00160516
0.0 0.0 -0.000346714
0.0 0.0 -0.000346714
0.0 0.0 -0.000346714
0.0 0.0 -0.000346714
0.0 0.0 -0.000346714
0.0 0.0 -0.000346714
0.0 0.0 -0.000346714
0.0 0.0 -0.000346714
0.0 0.0 -0.00160516
0.0 0.0 -0.000346714
0.0 0.0 -0.000346714
0.0 0.0 -0.000346714
0.0 0.0 -0.00160516
0.0 0.0 -0.000346714
0.0 0.0 -0.00160516
0.0 0.0 -0.000346714
0.0 0.0 -0.000346714
0.0 0.0 -0.00160516
-0.0397018 -0.0162095 0.0478058
0.0 0.0 -0.000346714
0.0 0.0 -0.000346714
0.0 0.0 -0.00160516
0.0 0.0 -0.000346714
0.0 0.0 -0.000346714
0.0 0.0 -0.000346714
0.0 0.0 -0.000346714
0.0 0.0 -0.000346714
0.0 0.0 -0.00160516
0.0 0.0 -0.00160516
0.0 0.0 -0.000346714
0.0 0.0 -0.000346714
0.0 0.0 -0.00160516
0.0 0.0 -0.000346714
0.000107251 -0.000621949 0.00089484
0.0 0.0 -0.00160516
0.0 0.0 -0.000346714
0.0 0.0 -0.000346714
0.0 0.0 -0.00160516
0.0 0.0 -0.00160516
0.0 0.0 -0.000346714
0.0 0.0 -0.000346714
0.0 0.0 -0.000346714
-0.221665 -0.0775315 0.99038
0.0 0.0 -0.000346714
0.0 0.0 -0.000346714
0.0 0.0 -0.00160516
0.0 0.0 -0.000346714
0.0 0.0 -0.000346714
0.0 0.0 -0.000346714
0.0 0.0 -0.000346714
0.0 0.0 -0.000346714
0.0 0.0 -0.000346714
0.0 0.0 -0.000346714
0.0 0.0 -0.000346714
0.0 0.0 -0.000346714
0.0 0.0 -0.00160516
0.0 0.0 -0.00160516
0.0 0.0 -0.00160516
0.0 0.0 -0.00160516
0.0 0.0 -0.000346714
0.0 0.0 -0.00160516
0.0 0.0 -0.000346714
0.0 0.0 -0.000346714
0.0 0.0 -0.000346714
0.0 0.0 -0.000346714
0.0 0.0 -0.00160516
0.0 0.0 -0.000346714
0.0 0.0 -0.000346714
0.0 0.0 -0.000346714
0.0 0.0 -0.00160516
0.0 0.0 -0.000346714
0.0 0.0 -0.000346714
0.0 0.0 -0.00160516
0.0 0.0 -0.000346714
0.0 0.0 -0.000346714
0.0 0.0 -0.000346714
0.0 0.0 -0.000346714
0.0 0.0 -0.000346714
0.0 0.0 -0.00160516
0.0 0.0 -0.000346714
0.0 0.0 -0.000346714
0.0 0.0 -0.00160516
0.0 0.0 -0.00160516
0.0 0.0 -0.000346714
0.0 0.0 -0.000346714
0.0 0.0 -0.000346714
0.0 0.0 -0.000346714
0.0 0.0 -0.000346714
0.0 0.0 -0.00160516
0.0 0.0 -0.000346714
0.0 0.0 -0.000346714
0.0 0.0 -0.00160516
0.0 0.0 -0.00160516
0.0 0.0 -0.000346714
0.0 0.0 -0.000346714
0.0 0.0 -0.00160516
0.0 0.0 -0.00160516
0.0 0.0 -0.000346714
0.0 0.0 -0.000346714
0.0 0.0 -0.000346714
0.0 0.0 -0.000346714
0.0 0.0 -0.000346714
0.0 0.0 -0.00160516
0.0 0.0 -0.000346714
0.0 0.0 -0.000346714
0.0 0.0 -0.00160516
0.0 0.0 -0.00160516
0.0 0.0 -0.000346714
0.0 0.0 -0.000346714
0.0 0.0 -0.000346714
0.0 0.0 -0.00160516
0.0 0.0 -0.000346714
0.0 0.0 -0.000346714
0.0 0.0 -0.00160516
0.0 0.0 -0.00160516
0.0 0.0 -0.000346714
0.0 0.0 -0.000346714
0.0 0.0 -0.00160516
0.0 0.0 -0.000346714
0.0 0.0 -0.000346714
0.0 0.0 -0.000346714
0.0 0.0 -0.00160516
0.0 0.0 -0.000346714
0.0 0.0 -0.000346714
0.0 0.0 -0.000346714
0.0 0.0 -0.000346714
0.0 0.0 -0.00160516
0.0 0.0 -0.000346714
0.0 0.0 -0.00160516
0.0 0.0 -0.000346714
0.0 0.0 -0.00160516
0.0 0.0 -0.000346714
0.0 0.0 -0.000346714
0.0 0.0 -0.00160516
0.0 0.0 -0.00160516
0.0 0.0 -0.000346714
0.0 0.0 -0.000346714
0.0 0.0 -0.00160516
0.0 0.0 -0.000346714
0.0 0.0 -0.00160516
0.0 0.0 -0.000346714
0.0 0.0 -0.000346714
0.0 0.0 -0.000346714
0.0 0.0 -0.00160516
0.0 0.0 -0.00160516
0.0 0.0 -0.000346714
0.0 0.0 -0.000346714
0.0 0.0 -0.000346714
0.0 0.0 -0.000346714
0.0 0.0 -0.00160516
0.0 0.0 -0.000346714
0.0 0.0 -0.000346714
0.0 0.0 -0.000346714
0.0 0.0 -0.000346714
0.0 0.0 -0.00160516
0.0 0.0 -0.000346714
0.0 0.0 -0.00160516
0.0 0.0 -0.000346714
0.0 0.0 -0.000346714
0.0 0.0 -0.00160516
0.0 0.0 -0.000346714
0.0 0.0 -0.000346714
0.0 0.0 -0.000346714
0.0 0.0 -0.00160516
0.0 0.0 -0.000346714
0.0 0.0 -0.00160516
0.0 0.0 -0.000346714
0.0 0.0 -0.000346714
0.0 0.0 -0.000346714
0.0 0.0 -0.00160516
0.0 0.0 -0.000346714
0.0 0.0 -0.000346714
0.0 0.0 -0.00160516
0.0 0.0 -0.000346714
0.0 0.0 -0.000346714
0.0 0.0 0.0
0.0 0.0 0.0
0.0 0.0 0.0
0.0 0.0 -0.000346714
0.0 0.0 0.0
0.0 0.0 0.0
0.0 0.0 0.0
0.0 0.0 0.0
0.0 0.0 0.0
0.0 0.0 0.0
VECTORS omega float
-18.7561 -718.005 284.229
-23.4971 -388.595 -13.1438
137.705 -684.801 42.007
1.20525 -459.422 41.3583
43.8568 -417.469 -138.171
-107.133 -103.442 74.3148
-47.4639 -745.305 -211.525
16.5404 -889.66 42.7299
-95.3385 -734.824 136.953
26.4463 -399.156 -16.9273
-40.6895 -600.187 21.7107
53.844 -560.284 -173.907
-53.5625 69.6297 -123.256
-69.1936 -562.111 111.41
-87.8899 -623.504 -79.274
-34.1094 -663.636 -255.354
-5.42405 -720.608 -28.6015
-128.544 -547.157 -185.461
-123.957 -1013.92 -226.349
97.5139 -674.57 518.37
43.4785 -160.849 -53.908
56.2315 -560.427 59.3256
-66.5643 -570.2 2.65077
-127.316 -407.368 36.8583
-10.5894 -232.885 81.0118
-44.8957 -616.978 -13.0292
-46.1482 -721.15 12.2955
-88.1777 -695.919 -10.6181
-30.7551 -384.931 -84.0724
-992.473 989.332 -382.051
4.499 -349.565 -101.468
-45.3343 -578.777 35.4682
50.6605 -377.96 -3.93767
-24.4574 -646.54 92.5143
-28.0825 -418.483 -68.9643
23.905 -381.671 -96.2572
-121.085 -660.264 -188.312
-77.1251 -336.065 75.6069
-111.595 -566.88 159.841
141.897 -553.455 -11.9931
-37.5858 -395.917 -114.111
-7.18619 -507.607 -20.0814
-66.1405 -629.561 49.7532
-80.9515 -352.182 16.3496
74.8638 -557.481 -67.6489
-126.225 -685.456 4.50194
31.3929 -388.193 79.9039
-72.5402 -373.721 20.1179
-98.1346 -329.617 30.9109
-57.5639 -341.321 -44.5009
117.484 -491.015 -201.657
35.8182 -363.574 -41.6162
22.1558 -393.767 97.0363
-38.7537 -308.513 107.702
-25.2186 -348.483 -8.58963
28.1251 -337.088 -12.9925
14.4894 -484.563 31.3876
58.8912 -171.923 -2.54438
40.6747 -293.313 -79.7512
9.76646 -280.265 -38.6282
71.7417 -279.675 -14.9286
28.351 -200.961 -35.0076
136.523 -595.394 -103.505
111.642 -520.122 -84.9825
-79.8956 -559.058 -310.097
-27.2493 -750.291 154.052
-30.2683 -429.863 70.637
239.388 -411.469 -55.4771
-26.4565 -264.988 -43.8101
-87.5756 -73.3126 -76.5428
30.7175 221.295 -96.1964
41.7992 -209.03 -28.9038
38.6649 -244.435 9.88173
-16.4638 -306.665 -13.1889
70.2628 -305.698 33.5383
-84.463 -506.337 -53.9241
21.0818 -574.671 175.247
-28.0785 -424.752 285.286
-169.789 -342.187 3.4528
22.0777 -340.21 19.6179
-102.066 -459.021 143.806
131.33 -371.108 -166.7
50.8983 -271.828 87.1402
185.692 -394.795 28.3963
-117.955 -11.1572 -67.4083
489.767 -176.371 -153.239
-97.4999 -289.009 106.159
-16.2457 -298.63 78.7471
-3.10277 -350.997 1.86345
81.0236 -48.7047 -77.8753
-31.5445 -225.937 15.9229
24.0496 -228.597 -66.3186
53.3082 -81.7548 -60.1937
59.9778 -513.373 282.396
34.3901 97.7542 58.5807
-19.6646 -280.778 -198.804
-19.1753 -205.743 -7.97921
60.7284 -250.962 -75.1327
-28.39 -183.656 -47.9175
51.9876 -255.386 25.8026
71.5479 -418.026 185.344
56.4618 -309.173 -38.3178
101.738 -429.076 200.765
109.276 -295.039 -85.8856
387.716 105.058 290.11
42.8929 388.929 -230.336
34.449 -259.364 -112.325
39.5734 -51.8621 177.168
21.1445 -4.98565 31.0059
-168.237 -253.173 -43.4105
-221.466 200.881 -159.413
-91.3249 -301.317 -24.2497
50.7022 -499.14 -206.944
12.4133 -277.161 -5.04848
232.714 -588.143 97.9806
31.1542 -135.04 0.982472
-19.7064 -215.672 -85.7645
-22.9455 -195.917 -119.891
-24.8119 -273.349 85.9145
22.422 -106.884 26.5482
-70.6507 -163.412 65.2439
-148.193 -360.188 1.16897e-14
-212.708 -114.821 -170.59
-61.0186 -684.767 102.483
78.4673 -207.398 -18.3924
49.9936 -206.646 22.787
246.884 -254.322 -70.0386
-112.704 254.987 22.3229
-64.5879 -344.216 -122.885
-60.0208 -26.9949 -45.1796
-87.3059 -441.276 150.27
-91.5738 -363.535 -25.8605
-77.6487 -73.4843 -78.7592
-75.5351 -256.298 262.018
-165.637 -371.218 1.31049e-13
-30.5823 -301.142 27.328
72.9546 -113.283 -156.737
57.8974 337.05 65.9034
-86.4272 -192.142 -134.342
-62.3906 -329.864 84.9495
-123.469 298.795 -66.7671