# vtk DataFile Version 2.0
Generated by lpp.py
ASCII
DATASET POLYDATA
POINTS 410 float
-0.260322 -0.0637521 -0.193098
-0.205379 0.0218985 -0.19092
-0.204546 -0.0161295 -0.190106
-0.198545 -0.0078519 -0.189574
-0.199033 0.00464537 -0.188782
-0.19534 0.00976531 -0.188012
-0.194393 0.016641 -0.186944
-0.199657 0.0222103 -0.188429
-0.197246 -0.0266301 -0.186545
-0.188642 -0.00923896 -0.184234
-0.18798 -0.00488714 -0.185158
-0.181673 0.0042748 -0.182616
-0.190408 0.020513 -0.184876
-0.174974 -0.0093407 -0.179577
-0.177389 -0.00263641 -0.180697
-0.174015 0.00221091 -0.179376
-0.176568 0.00498438 -0.180455
-0.173934 0.00644601 -0.179211
-0.18095 0.0155481 -0.181399
-0.185411 0.0256154 -0.18174
-0.261012 0.0800854 -0.179819
-0.198745 -0.0602188 -0.175335
-0.169886 -0.00636138 -0.177533
-0.170507 0.000713888 -0.177889
-0.166424 0.00373618 -0.176193
-0.174578 0.0165165 -0.177542
-0.168656 0.0161565 -0.176184
-0.181201 0.0365619 -0.17763
-0.162213 -0.0100631 -0.17302
-0.157512 0.000651456 -0.172349
-0.168849 0.0276126 -0.173329
-0.168036 0.0376566 -0.17184
-0.154717 -0.0224956 -0.168314
-0.157141 -0.0183788 -0.170008
-0.152847 -0.013273 -0.169968
-0.148708 0.0114757 -0.168276
-0.159224 0.0180382 -0.171009
-0.156565 0.0241396 -0.169985
-0.150661 -0.0207279 -0.168167
-0.143905 -0.0128303 -0.165102
-0.158653 -0.00988113 -0.167635
-0.139552 -0.00831907 -0.1647
-0.148479 0.00803521 -0.168324
-0.144814 0.0125732 -0.165478
-0.142112 0.0162294 -0.165042
-0.135857 -0.00691708 -0.163166
-0.13189 0.00627646 -0.161413
-0.13758 0.014036 -0.163403
-0.135714 0.0188993 -0.160875
-0.140241 0.0253069 -0.162027
-0.147985 0.0274291 -0.164788
-0.156124 -0.05278 -0.160783
-0.130103 -0.00981973 -0.160338
-0.131447 -0.00545731 -0.160287
-0.126203 -0.00617707 -0.157984
-0.131686 0.00937221 -0.159403
-0.132825 0.0236851 -0.160109
-0.135469 -0.0410582 -0.157501
-0.128223 -0.0225288 -0.157382
-0.12199 -0.0271989 -0.1544
-0.126008 -0.0151007 -0.15738
-0.13149 -0.00918758 -0.15739
-0.130242 -0.00355569 -0.156547
-0.122805 -0.002936 -0.155298
-0.116836 -0.00346962 -0.15477
-0.114848 -0.000703826 -0.153946
-0.11662 0.00171543 -0.154731
-0.123934 0.0076941 -0.156853
-0.118224 0.0101035 -0.154436
-0.121304 0.0130834 -0.15659
-0.119397 0.0151087 -0.155467
-0.119932 0.0203009 -0.155273
-0.113824 -0.012769 -0.152417
-0.108699 -0.0113649 -0.150486
-0.114405 -0.00525157 -0.153844
-0.122002 0.000333801 -0.151465
-0.120835 0.00306436 -0.15251
-0.111205 -0.000507442 -0.152915
-0.128529 0.00950433 -0.154038
-0.107597 0.010027 -0.149953
-0.107457 0.0131183 -0.150759
-0.111781 0.0154729 -0.151304
-0.110441 0.0211928 -0.151175
-0.1418 0.0607454 -0.152845
-0.125649 -0.0539559 -0.148763
-0.103325 -0.0236676 -0.147855
-0.104487 -0.017971 -0.149105
-0.106229 -0.00718868 -0.148845
-0.101916 7.10186e-06 -0.147894
-0.100465 0.0118231 -0.146832
-0.10796 0.0181496 -0.150605
-0.151308 -0.080988 -0.144425
-0.0990837 -0.0317824 -0.144666
-0.104732 -0.0204593 -0.142244
-0.0988587 -0.0157798 -0.1458
-0.0934757 -0.0151211 -0.143725
-0.0974109 -0.0120429 -0.145131
-0.093158 -0.0030735 -0.145255
-0.0963655 0.000771936 -0.145553
-0.0919443 0.000368365 -0.144783
-0.0946707 0.0124061 -0.142917
-0.113555 0.0173571 -0.148008
-0.0939788 0.014958 -0.144926
-0.0893773 -0.0221432 -0.141117
-0.10061 -0.00953973 -0.14098
-0.0941266 -0.00638498 -0.142319
-0.0821708 -0.00339487 -0.139613
-0.0856626 0.001042 -0.14212
-0.0857883 0.00519401 -0.142122
-0.0866911 0.00963937 -0.141221
-0.0833006 0.0153896 -0.140389
-0.084503 0.0206216 -0.139368
-0.0950918 0.0256014 -0.141843
-0.0828773 -0.0319405 -0.137875
-0.0789982 -0.0285878 -0.136929
-0.074602 -0.0169827 -0.135636
-0.0837044 -0.00876393 -0.136785
-0.0791888 -0.00875339 -0.13916
-0.105163 0.000531273 -0.141589
-0.0991412 -0.00248685 -0.139929
-0.0912767 -0.000773253 -0.141048
-0.0766802 -0.0018998 -0.137259
-0.0851402 0.00472178 -0.138976
-0.0800902 0.0100883 -0.138369
-0.0805837 0.0143141 -0.139336
-0.0747574 0.0170899 -0.135564
-0.0862951 0.0291727 -0.138718
-0.0804636 0.0326351 -0.136217
-0.087861 0.0432259 -0.136229
-0.0981228 0.0553702 -0.136529
-0.0950764 -0.0598706 -0.13456
-0.0789145 -0.0321742 -0.135087
-0.0736584 -0.0211221 -0.134649
-0.0896557 -0.0164385 -0.139826
-0.070234 -0.0129167 -0.135175
-0.0718394 -0.00573772 -0.135114
-0.0652511 0.00331345 -0.13238
-0.0951377 0.0157659 -0.136627
-0.0663574 0.0239445 -0.13237
-0.0753511 0.0288466 -0.135284
-0.105458 0.0595147 -0.138544
-0.0635363 -0.0285731 -0.129336
-0.067082 -0.0156657 -0.1325
-0.0651037 -0.0108866 -0.132071
-0.0549295 -0.00885512 -0.128914
-0.0641517 -0.00600981 -0.13157
-0.0779013 0.00546073 -0.130798
-0.0831228 0.00910877 -0.130503
-0.0574406 0.00838304 -0.129558
-0.0629331 0.0210132 -0.13129
-0.0752109 -0.0475932 -0.129472
-0.0572687 -0.025702 -0.128319
-0.0678799 -0.0254411 -0.128616
-0.0710183 -0.0215662 -0.129135
-0.0540412 -0.014452 -0.128268
-0.0482721 -0.00113007 -0.125328
-0.0520082 0.00156594 -0.127926
-0.0486988 0.0044612 -0.126382
-0.0453132 0.0053233 -0.124745
-0.102084 0.00800618 -0.131024
-0.087608 0.00611686 -0.129675
-0.0545198 0.00614036 -0.127792
-0.0688405 0.015382 -0.128418
-0.061058 0.00796371 -0.125808
-0.0827768 0.0719888 -0.124392
-0.0918285 -0.0280355 -0.126454
-0.0537058 -0.0240074 -0.122972
-0.0453705 -0.0265118 -0.123167
-0.03894 -0.024593 -0.120103
-0.0477955 -0.0147842 -0.123907
-0.0392906 -0.016639 -0.121806
-0.0651196 -0.0122699 -0.124072
-0.079482 -0.0026232 -0.124836
-0.0782747 0.00122841 -0.126016
-0.0412399 0.00314906 -0.122381
-0.0528542 0.000723191 -0.12135
-0.0841713 0.00712395 -0.126442
-0.0761932 0.00949956 -0.128153
-0.0548314 -0.0644645 -0.116559
-0.0519313 -0.0302429 -0.119972
-0.0403607 -0.0254427 -0.115762
-0.0358316 -0.0153718 -0.119218
-0.0630165 -0.0103854 -0.120996
-0.0467646 -0.00708698 -0.122336
-0.0546904 -0.00661062 -0.115931
-0.0341204 -0.00481621 -0.118999
-0.0346954 0.00132703 -0.12066
-0.0387143 0.000425518 -0.120989
-0.0296181 0.00215519 -0.118492
-0.0686036 0.0105299 -0.121288
-0.0345894 0.00575742 -0.11933
-0.0682334 0.0161871 -0.120303
-0.0358748 0.0202041 -0.117122
-0.0614856 0.03203 -0.123495
-0.0493918 0.030333 -0.120971
-0.0976077 0.0439552 -0.122158
-0.0521971 0.0565077 -0.118725
-0.0378915 -0.0340453 -0.111927
-0.0334619 -0.0306141 -0.117449
-0.0306258 -0.0292373 -0.115354
-0.0355775 -0.0267936 -0.117233
-0.0280816 -0.0191735 -0.116749
-0.0262291 -0.0174374 -0.113721
-0.0609774 -0.00608561 -0.11806
-0.0373061 -0.00828992 -0.119572
-0.0396299 -0.00421526 -0.120756
-0.0787013 0.00264821 -0.118863
-0.0423945 0.00319982 -0.118562
-0.0274414 0.00439327 -0.115547
-0.0354601 0.0117857 -0.11945
-0.0683717 0.0127787 -0.115641
-0.0495454 0.014064 -0.115821
-0.0387751 0.0155901 -0.116875
-0.0300737 0.0123323 -0.11591
-0.070588 0.0175278 -0.117381
-0.062836 0.0160569 -0.115049
-0.0494939 0.029017 -0.112069
-0.0365749 0.027863 -0.119108
-0.0279461 0.0237108 -0.114723
-0.0409379 0.0292575 -0.113724
-0.0554197 -0.082023 -0.108236
-0.02415 -0.0271223 -0.113555
-0.0212733 -0.0312824 -0.11202
-0.0519509 -0.0187784 -0.112247
-0.0377047 -0.0110728 -0.116433
-0.0542416 -0.00843039 -0.11234
-0.0377837 -0.000521178 -0.112834
-0.0138051 -0.00417491 -0.111777
-0.0391086 0.0095787 -0.113512
-0.0586618 0.00783721 -0.112158
-0.0184572 0.00448049 -0.111578
-0.0635087 0.0116261 -0.114037
-0.0421808 0.00922769 -0.11897
-0.0269074 0.0122962 -0.115092
-0.0330067 0.0160353 -0.119118
-0.0351916 0.0311106 -0.118462
-0.0230197 0.0297314 -0.113055
-0.149165 -0.0377169 -0.112382
-0.0223271 -0.0260626 -0.111346
-0.057743 -0.012797 -0.110529
-0.0267107 -0.0113358 -0.115082
-0.0752435 -0.00949671 -0.110206
-0.0468774 -0.00343529 -0.107339
-0.0351763 -0.00266189 -0.109266
-0.0548097 -0.00199526 -0.112105
-0.036711 0.00862688 -0.110243
-0.0269378 0.0126676 -0.109108
-0.10268 0.0159078 -0.112071
-0.0454318 0.0180036 -0.108017
-0.0396062 0.0185364 -0.114326
-0.0270607 0.0202724 -0.110625
-0.0158401 -0.0207082 -0.103177
-0.0517769 -0.0163177 -0.108814
-0.022744 -0.0149328 -0.103581
-0.0233379 -0.00119434 -0.109285
-0.0166853 -0.00414268 -0.106902
-0.0430168 -0.00261883 -0.106395
-0.0142735 0.0034299 -0.101816
-0.0162353 0.0143824 -0.101718
-0.0188045 0.0277368 -0.110781
-0.0250235 0.0675412 -0.103478
-0.00580216 -0.0327764 -0.100581
-0.0319423 -0.0207084 -0.115819
-0.033079 -0.0114297 -0.114168
-0.0116489 -0.0117567 -0.108078
-0.0198829 -0.0089282 -0.112625
-0.0272505 0.00877241 -0.113536
-0.0198376 0.0171449 -0.109281
-0.0346321 0.030766 -0.114804
-0.0203685 -0.020773 -0.108765
-0.0242569 -0.0048619 -0.107836
-0.018202 -0.00127292 -0.105086
-0.0265303 0.0300204 -0.105392
-0.0285795 0.0326856 -0.105225
-0.0158837 -0.0146366 -0.103158
-0.00413281 -0.000337831 -0.101045
-0.00968967 -0.0134906 -0.0997113
-0.00852479 0.034934 -0.0994586
-0.014458 -0.0150737 -0.0955095
-0.0238687 0.0109416 -0.0934383
-0.00517746 0.0266228 -0.0935494
-0.0171117 -0.0109135 -0.0929244
-0.026238 0.0194762 -0.0908621
-0.0145426 0.0200822 -0.0908603
-0.0181127 0.0295097 -0.0874067
-0.0196571 -0.00676578 -0.0855072
-0.030318 0.0147393 -0.0830308
-0.0170652 -0.0127043 -0.080967
-0.0300845 0.0256603 -0.0798295
-0.0308827 0.00162734 -0.0774322
-0.0239975 0.00585265 -0.0763707
-0.00434932 0.00423497 -0.0781048
-0.0332323 0.0316676 -0.0776023
-0.0108823 0.00232676 -0.0734504
-0.0346254 0.0108555 -0.0727843
-0.0184752 -0.00390867 -0.0695139
-0.0256427 -0.0310174 -0.064109
-0.0291592 -0.00156433 -0.0659519
-0.0101895 0.00506721 -0.0638545
-0.027048 -0.0192107 -0.0602772
-0.00876558 -0.0160351 -0.0614141
-0.00296015 -0.0125694 -0.0626872
-0.00418171 -0.00389031 -0.0620824
-0.00344499 0.0151299 -0.0636226
-0.0316084 -0.0265255 -0.0572672
-0.0281016 0.00020127 -0.0567065
-0.00981587 0.00303905 -0.0553229
-0.0288083 0.00732997 -0.0547466
-0.0246424 0.00553727 -0.0521167
-0.0208274 -0.0341404 -0.0489396
-0.0188893 -0.0213338 -0.0465196
-0.0195242 0.01415 -0.0488856
-0.00987825 0.0266251 -0.0462784
-0.0141191 -0.0144365 -0.0426414
-0.0107355 -0.0103339 -0.0432024
-0.0118162 -0.00633589 -0.0419111
-0.032854 -0.0214325 -0.0405417
-0.0120408 0.00484626 -0.0396715
-0.0260976 0.00786627 -0.039928
-0.0129098 0.021507 -0.0395118
-0.000558622 0.0213939 -0.0369652
-0.0120659 -0.0232029 -0.0309961
-0.00974267 -0.0210328 -0.0326709
-0.0026782 0.0306845 -0.0328817
-0.031713 0.0319285 -0.032941
-0.0275767 -0.00857811 -0.0271071
-0.0193603 0.00427373 -0.0299651
-0.0280975 0.0196597 -0.0279634
-0.00304149 -0.022423 -0.0234297
-0.0341957 -0.0270523 -0.0208512
-0.00515441 -0.0109162 -0.0225405
-0.018318 0.00551713 -0.0229861
-0.0142719 0.0175582 -0.0219433
-0.0329214 -0.0245036 -0.0160712
-0.0230158 -0.0063197 -0.018574
-0.00209743 0.0155548 -0.0168026
-0.0054599 0.0237214 -0.0162526
-0.0230867 -0.0242912 -0.0137671
-0.00426265 -0.000462787 -0.0144698
-0.034337 0.00561382 -0.0150942
-0.0273791 5.52728e-05 -0.0108026
-0.0183167 0.0119421 -0.0100793
-0.00209585 0.021148 -0.0118699
-0.00205387 0.0243132 -0.00863545
-0.0258414 -0.0270694 -0.00573313
-0.0323459 0.000933277 -0.00499706
-0.00977287 -0.0305241 -0.00195289
-0.0268897 0.0240704 -0.00141977
-0.0191985 0.0336061 -0.00469062
-0.00315638 -0.0234267 0.000273632
-0.0266262 0.0180085 -0.00039382
-0.0251891 0.0274385 0.00181151
-0.00858455 -0.00832622 0.00403201
-0.00797106 0.00155248 0.0030019
-0.029518 -0.0331169 0.00733982
-0.00532413 -0.0141231 0.00844919
-0.0184795 -0.0100183 0.00733471
-0.0315432 -0.000776551 0.00957859
-0.00657095 0.00906157 0.00714615
-0.0304883 0.0114791 0.00660424
-0.0306529 0.0174599 0.00830919
-0.0183571 0.0195956 0.0063608
-0.0123384 -0.0127121 0.0117081
-0.0215522 -0.0242077 0.0163439
-0.00639582 -0.0194124 0.0154359
-0.0349219 -0.0119867 0.0138752
-0.0349316 0.000809468 0.0174356
-0.00832892 0.000607053 0.0158098
-0.0302252 0.0258081 0.016932
-0.0220487 -0.00121585 0.0195745
-0.00390427 -0.00253676 0.0195038
-0.00538423 0.0015153 0.0217645
-0.00221027 -0.0230351 0.0268296
-0.0183398 -0.0154698 0.0269531
-0.00131466 -0.00968721 0.0285731
-0.00676706 -0.00372403 0.0266454
-0.0151336 0.0123986 0.0252426
-0.0275497 0.0283687 0.0267973
-0.0077538 -0.0326437 0.0306388
-0.0206177 -0.0299049 0.0291127
-0.0233766 -0.00607507 0.0293318
-0.0173855 -0.000880817 0.0309558
-0.0182307 0.00855733 0.0312411
-0.0197987 0.018953 0.0323185
-0.0296317 0.0298979 0.0312864
-0.00341211 -0.034738 0.0349715
-0.00558275 -0.00660585 0.0345354
-0.0271405 0.0119819 0.0343935
-0.010257 0.0208697 0.0356409
-0.0208051 -0.0158491 0.0369002
-0.0341798 -0.011198 0.0363023
-0.00399213 0.0184532 0.0373037
-0.00154371 0.0315848 0.038178
-0.0138788 -0.0115128 0.0419072
-0.00452227 -0.00895877 0.0408709
-0.0163368 0.0276055 0.0422379
-0.0293509 -0.033146 0.0472934
-0.0310951 -0.0211048 0.04461
-0.0255212 -0.0188191 0.0446525
-0.0309382 -0.0143436 0.0443128
-0.0320071 -0.0281976 0.0485578
-0.0102129 0.026364 0.050914
-0.0167287 0.0346143 0.0495672
-0.0215899 -0.032029 0.0543512
-0.00861311 -0.032902 0.0520722
-0.0067008 -0.0244725 0.0521146
-0.0188515 -0.0128461 0.0531464
-0.0345167 0.0199359 0.0525395
-0.0197841 0.0271245 0.0529554
-0.0253872 0.0292455 0.0515522
VERTICES 410 820
1 0
1 1
1 2
1 3
1 4
1 5
1 6
1 7
1 8
1 9
1 10
1 11
1 12
1 13
1 14
1 15
1 16
1 17
1 18
1 19
1 20
1 21
1 22
1 23
1 24
1 25
1 26
1 27
1 28
1 29
1 30
1 31
1 32
1 33
1 34
1 35
1 36
1 37
1 38
1 39
1 40
1 41
1 42
1 43
1 44
1 45
1 46
1 47
1 48
1 49
1 50
1 51
1 52
1 53
1 54
1 55
1 56
1 57
1 58
1 59
1 60
1 61
1 62
1 63
1 64
1 65
1 66
1 67
1 68
1 69
1 70
1 71
1 72
1 73
1 74
1 75
1 76
1 77
1 78
1 79
1 80
1 81
1 82
1 83
1 84
1 85
1 86
1 87
1 88
1 89
1 90
1 91
1 92
1 93
1 94
1 95
1 96
1 97
1 98
1 99
1 100
1 101
1 102
1 103
1 104
1 105
1 106
1 107
1 108
1 109
1 110
1 111
1 112
1 113
1 114
1 115
1 116
1 117
1 118
1 119
1 120
1 121
1 122
1 123
1 124
1 125
1 126
1 127
1 128
1 129
1 130
1 131
1 132
1 133
1 134
1 135
1 136
1 137
1 138
1 139
1 140
1 141
1 142
1 143
1 144
1 145
1 146
1 147
1 148
1 149
1 150
1 151
1 152
1 153
1 154
1 155
1 156
1 157
1 158
1 159
1 160
1 161
1 162
1 163
1 164
1 165
1 166
1 167
1 168
1 169
1 170
1 171
1 172
1 173
1 174
1 175
1 176
1 177
1 178
1 179
1 180
1 181
1 182
1 183
1 184
1 185
1 186
1 187
1 188
1 189
1 190
1 191
1 192
1 193
1 194
1 195
1 196
1 197
1 198
1 199
1 200
1 201
1 202
1 203
1 204
1 205
1 206
1 207
1 208
1 209
1 210
1 211
1 212
1 213
1 214
1 215
1 216
1 217
1 218
1 219
1 220
1 221
1 222
1 223
1 224
1 225
1 226
1 227
1 228
1 229
1 230
1 231
1 232
1 233
1 234
1 235
1 236
1 237
1 238
1 239
1 240
1 241
1 242
1 243
1 244
1 245
1 246
1 247
1 248
1 249
1 250
1 251
1 252
1 253
1 254
1 255
1 256
1 257
1 258
1 259
1 260
1 261
1 262
1 263
1 264
1 265
1 266
1 267
1 268
1 269
1 270
1 271
1 272
1 273
1 274
1 275
1 276
1 277
1 278
1 279
1 280
1 281
1 282
1 283
1 284
1 285
1 286
1 287
1 288
1 289
1 290
1 291
1 292
1 293
1 294
1 295
1 296
1 297
1 298
1 299
1 300
1 301
1 302
1 303
1 304
1 305
1 306
1 307
1 308
1 309
1 310
1 311
1 312
1 313
1 314
1 315
1 316
1 317
1 318
1 319
1 320
1 321
1 322
1 323
1 324
1 325
1 326
1 327
1 328
1 329
1 330
1 331
1 332
1 333
1 334
1 335
1 336
1 337
1 338
1 339
1 340
1 341
1 342
1 343
1 344
1 345
1 346
1 347
1 348
1 349
1 350
1 351
1 352
1 353
1 354
1 355
1 356
1 357
1 358
1 359
1 360
1 361
1 362
1 363
1 364
1 365
1 366
1 367
1 368
1 369
1 370
1 371
1 372
1 373
1 374
1 375
1 376
1 377
1 378
1 379
1 380
1 381
1 382
1 383
1 384
1 385
1 386
1 387
1 388
1 389
1 390
1 391
1 392
1 393
1 394
1 395
1 396
1 397
1 398
1 399
1 400
1 401
1 402
1 403
1 404
1 405
1 406
1 407
1 408
1 409
POINT_DATA 410
VECTORS i float
0.0 0.0 0.0
0.0 0.0 0.0
0.0 0.0 0.0
0.0 0.0 0.0
0.0 0.0 0.0
0.0 0.0 0.0
0.0 0.0 0.0
0.0 0.0 0.0
0.0 0.0 0.0
0.0 0.0 0.0
0.0 0.0 0.0
0.0 0.0 0.0
0.0 0.0 0.0
0.0 0.0 0.0
0.0 0.0 0.0
0.0 0.0 0.0
0.0 0.0 0.0
0.0 0.0 0.0
0.0 0.0 0.0
0.0 0.0 0.0
0.0 0.0 0.0
0.0 0.0 0.0
0.0 0.0 0.0
0.0 0.0 0.0
0.0 0.0 0.0
0.0 0.0 0.0
0.0 0.0 0.0
0.0 0.0 0.0
0.0 0.0 0.0
0.0 0.0 0.0
0.0 0.0 0.0
0.0 0.0 0.0
0.0 0.0 0.0
0.0 0.0 0.0
0.0 0.0 0.0
0.0 0.0 0.0
0.0 0.0 0.0
0.0 0.0 0.0
0.0 0.0 0.0
0.0 0.0 0.0
0.0 0.0 0.0
0.0 0.0 0.0
0.0 0.0 0.0
0.0 0.0 0.0
0.0 0.0 0.0
0.0 0.0 0.0
0.0 0.0 0.0
0.0 0.0 0.0
0.0 0.0 0.0
0.0 0.0 0.0
0.0 0.0 0.0
0.0 0.0 0.0
0.0 0.0 0.0
0.0 0.0 0.0
0.0 0.0 0.0
0.0 0.0 0.0
0.0 0.0 0.0
0.0 0.0 0.0
0.0 0.0 0.0
0.0 0.0 0.0
0.0 0.0 0.0
0.0 0.0 0.0
0.0 0.0 0.0
0.0 0.0 0.0
0.0 0.0 0.0
0.0 0.0 0.0
0.0 0.0 0.0
0.0 0.0 0.0
0.0 0.0 0.0
0.0 0.0 0.0
0.0 0.0 0.0
0.0 0.0 0.0
0.0 0.0 0.0
0.0 0.0 0.0
0.0 0.0 0.0
0.0 0.0 0.0
0.0 0.0 0.0
0.0 0.0 0.0
0.0 0.0 0.0
0.0 0.0 0.0
0.0 0.0 0.0
0.0 0.0 0.0
0.0 0.0 0.0
0.0 0.0 0.0
0.0 0.0 0.0
0.0 0.0 0.0
0.0 0.0 0.0
0.0 0.0 0.0
0.0 0.0 0.0
0.0 0.0 0.0
0.0 0.0 0.0
0.0 0.0 0.0
0.0 0.0 0.0
0.0 0.0 0.0
0.0 0.0 0.0
0.0 0.0 0.0
0.0 0.0 0.0
0.0 0.0 0.0
0.0 0.0 0.0
0.0 0.0 0.0
0.0 0.0 0.0
0.0 0.0 0.0
0.0 0.0 0.0
0.0 0.0 0.0
0.0 0.0 0.0
0.0 0.0 0.0
0.0 0.0 0.0
0.0 0.0 0.0
0.0 0.0 0.0
0.0 0.0 0.0
0.0 0.0 0.0
0.0 0.0 0.0
0.0 0.0 0.0
0.0 0.0 0.0
0.0 0.0 0.0
0.0 0.0 0.0
0.0 0.0 0.0
0.0 0.0 0.0
0.0 0.0 0.0
0.0 0.0 0.0
0.0 0.0 0.0
0.0 0.0 0.0
0.0 0.0 0.0
0.0 0.0 0.0
0.0 0.0 0.0
0.0 0.0 0.0
0.0 0.0 0.0
0.0 0.0 0.0
0.0 0.0 0.0
0.0 0.0 0.0
0.0 0.0 0.0
0.0 0.0 0.0
0.0 0.0 0.0
0.0 0.0 0.0
0.0 0.0 0.0
0.0 0.0 0.0
0.0 0.0 0.0
0.0 0.0 0.0
0.0 0.0 0.0
0.0 0.0 0.0
0.0 0.0 0.0
0.0 0.0 0.0
0.0 0.0 0.0
0.0 0.0 0.0
0.0 0.0 0.0
0.0 0.0 0.0
0.0 0.0 0.0
0.0 0.0 0.0
0.0 0.0 0.0
0.0 0.0 0.0
0.0 0.0 0.0
0.0 0.0 0.0
0.0 0.0 0.0
0.0 0.0 0.0
0.0 0.0 0.0
0.0 0.0 0.0
0.0 0.0 0.0
0.0 0.0 0.0
0.0 0.0 0.0
0.0 0.0 0.0
0.0 0.0 0.0
0.0 0.0 0.0
0.0 0.0 0.0
0.0 0.0 0.0
0.0 0.0 0.0
0.0 0.0 0.0
0.0 0.0 0.0
0.0 0.0 0.0
0.0 0.0 0.0
0.0 0.0 0.0
0.0 0.0 0.0
0.0 0.0 0.0
0.0 0.0 0.0
0.0 0.0 0.0
0.0 0.0 0.0
0.0 0.0 0.0
0.0 0.0 0.0
0.0 0.0 0.0
0.0 0.0 0.0
0.0 0.0 0.0
0.0 0.0 0.0
0.0 0.0 0.0
0.0 0.0 0.0
0.0 0.0 0.0
0.0 0.0 0.0
0.0 0.0 0.0
0.0 0.0 0.0
0.0 0.0 0.0
0.0 0.0 0.0
0.0 0.0 0.0
0.0 0.0 0.0
0.0 0.0 0.0
0.0 0.0 0.0
0.0 0.0 0.0
0.0 0.0 0.0
0.0 0.0 0.0
0.0 0.0 0.0
0.0 0.0 0.0
0.0 0.0 0.0
0.0 0.0 0.0
0.0 0.0 0.0
0.0 0.0 0.0
0.0 0.0 0.0
0.0 0.0 0.0
0.0 0.0 0.0
0.0 0.0 0.0
0.0 0.0 0.0
0.0 0.0 0.0
0.0 0.0 0.0
0.0 0.0 0.0
0.0 0.0 0.0
0.0 0.0 0.0
0.0 0.0 0.0
0.0 0.0 0.0
0.0 0.0 0.0
0.0 0.0 0.0
0.0 0.0 0.0
0.0 0.0 0.0
0.0 0.0 0.0
0.0 0.0 0.0
0.0 0.0 0.0
0.0 0.0 0.0
0.0 0.0 0.0
0.0 0.0 0.0
0.0 0.0 0.0
0.0 0.0 0.0
0.0 0.0 0.0
0.0 0.0 0.0
0.0 0.0 0.0
0.0 0.0 0.0
0.0 0.0 0.0
0.0 0.0 0.0
0.0 0.0 0.0
0.0 0.0 0.0
0.0 0.0 0.0
0.0 0.0 0.0
0.0 0.0 0.0
0.0 0.0 0.0
0.0 0.0 0.0
0.0 0.0 0.0
0.0 0.0 0.0
0.0 0.0 0.0
0.0 0.0 0.0
0.0 0.0 0.0
0.0 0.0 0.0
0.0 0.0 0.0
0.0 0.0 0.0
0.0 0.0 0.0
0.0 0.0 0.0
0.0 0.0 0.0
0.0 0.0 0.0
0.0 0.0 0.0
0.0 0.0 0.0
0.0 0.0 0.0
0.0 0.0 0.0
0.0 0.0 0.0
0.0 0.0 0.0
0.0 0.0 0.0
0.0 0.0 0.0
0.0 0.0 0.0
0.0 0.0 0.0
0.0 0.0 0.0
0.0 0.0 0.0
0.0 0.0 0.0
0.0 0.0 0.0
0.0 0.0 0.0
0.0 0.0 0.0
0.0 0.0 0.0
0.0 0.0 0.0
0.0 0.0 0.0
0.0 0.0 0.0
0.0 0.0 0.0
0.0 0.0 0.0
0.0 0.0 0.0
0.0 0.0 0.0
0.0 0.0 0.0
0.0 0.0 0.0
0.0 0.0 0.0
0.0 0.0 0.0
0.0 0.0 0.0
0.0 0.0 0.0
0.0 0.0 0.0
0.0 0.0 0.0
0.0 0.0 0.0
0.0 0.0 0.0
0.0 0.0 0.0
0.0 0.0 0.0
0.0 0.0 0.0
0.0 0.0 0.0
0.0 0.0 0.0
0.0 0.0 0.0
0.0 0.0 0.0
0.0 0.0 0.0
0.0 0.0 0.0
0.0 0.0 0.0
0.0 0.0 0.0
0.0 0.0 0.0
0.0 0.0 0.0
0.0 0.0 0.0
0.0 0.0 0.0
0.0 0.0 0.0
0.0 0.0 0.0
0.0 0.0 0.0
0.0 0.0 0.0
0.0 0.0 0.0
0.0 0.0 0.0
0.0 0.0 0.0
0.0 0.0 0.0
0.0 0.0 0.0
0.0 0.0 0.0
0.0 0.0 0.0
0.0 0.0 0.0
0.0 0.0 0.0
0.0 0.0 0.0
0.0 0.0 0.0
0.0 0.0 0.0
0.0 0.0 0.0
0.0 0.0 0.0
0.0 0.0 0.0
0.0 0.0 0.0
0.0 0.0 0.0
0.0 0.0 0.0
0.0 0.0 0.0
0.0 0.0 0.0
0.0 0.0 0.0
0.0 0.0 0.0
0.0 0.0 0.0
0.0 0.0 0.0
0.0 0.0 0.0
0.0 0.0 0.0
0.0 0.0 0.0
0.0 0.0 0.0
0.0 0.0 0.0
0.0 0.0 0.0
0.0 0.0 0.0
0.0 0.0 0.0
0.0 0.0 0.0
0.0 0.0 0.0
0.0 0.0 0.0
0.0 0.0 0.0
0.0 0.0 0.0
0.0 0.0 0.0
0.0 0.0 0.0
0.0 0.0 0.0
0.0 0.0 0.0
0.0 0.0 0.0
0.0 0.0 0.0
0.0 0.0 0.0
0.0 0.0 0.0
0.0 0.0 0.0
0.0 0.0 0.0
0.0 0.0 0.0
0.0 0.0 0.0
0.0 0.0 0.0
0.0 0.0 0.0
0.0 0.0 0.0
0.0 0.0 0.0
0.0 0.0 0.0
0.0 0.0 0.0
0.0 0.0 0.0
0.0 0.0 0.0
0.0 0.0 0.0
0.0 0.0 0.0
0.0 0.0 0.0
0.0 0.0 0.0
0.0 0.0 0.0
0.0 0.0 0.0
0.0 0.0 0.0
0.0 0.0 0.0
0.0 0.0 0.0
0.0 0.0 0.0
0.0 0.0 0.0
0.0 0.0 0.0
0.0 0.0 0.0
0.0 0.0 0.0
0.0 0.0 0.0
0.0 0.0 0.0
0.0 0.0 0.0
0.0 0.0 0.0
0.0 0.0 0.0
0.0 0.0 0.0
0.0 0.0 0.0
0.0 0.0 0.0
0.0 0.0 0.0
0.0 0.0 0.0
0.0 0.0 0.0
0.0 0.0 0.0
0.0 0.0 0.0
0.0 0.0 0.0
0.0 0.0 0.0
0.0 0.0 0.0
0.0 0.0 0.0
0.0 0.0 0.0
0.0 0.0 0.0
0.0 0.0 0.0
0.0 0.0 0.0
0.0 0.0 0.0
0.0 0.0 0.0
0.0 0.0 0.0
0.0 0.0 0.0
0.0 0.0 0.0
0.0 0.0 0.0
0.0 0.0 0.0
0.0 0.0 0.0
0.0 0.0 0.0
0.0 0.0 0.0
0.0 0.0 0.0
0.0 0.0 0.0
0.0 0.0 0.0
0.0 0.0 0.0
VECTORS f float
0.0 0.0 -0.000346714
-0.000558071 -6.61363e-05 0.00168011
-0.000192461 5.18493e-05 -0.000603804
0.0 0.0 -0.000346714
0.000202646 7.54096e-06 -0.00185943
1.2324e-05 2.45061e-06 -0.000262227
0.00022296 2.3768e-05 -0.00053963
-8.72729e-05 -4.37849e-05 -4.19162e-05
-7.59556e-05 4.40724e-05 -5.62934e-05
-0.000199928 6.57987e-05 -0.000492216
-8.94683e-05 3.1495e-06 -3.88724e-05
0.0 0.0 -0.000346714
-8.55447e-05 -4.11021e-05 -4.43708e-05
2.00007e-05 -5.5421e-06 -0.000276627
2.19987e-05 2.93091e-05 1.4739e-06
-7.7193e-05 3.51468e-06 -5.02849e-05
-8.8668e-05 -1.77656e-05 -3.89217e-05
-8.53693e-05 -1.71107e-05 -4.61296e-05
-0.000119105 -2.71236e-05 4.57717e-05
-8.61022e-05 -4.12812e-05 -4.36305e-05
0.0 0.0 -0.000346714
-6.1249e-05 7.83548e-05 -8.04705e-05
-8.73617e-05 3.01066e-06 -3.46829e-05
-0.00011536 4.03372e-06 1.04289e-05
-9.60445e-05 4.06342e-07 -2.61585e-05
-0.000404516 -7.93732e-05 -0.000177978
-8.76755e-05 -1.73931e-05 -3.59945e-05
-9.37976e-05 -7.65437e-05 -1.38001e-05
-0.000475769 9.22099e-05 4.69677e-05
-8.69256e-05 -2.53397e-06 -3.63301e-05
-0.000379463 -0.000176032 -0.000231899
-5.22036e-06 4.2382e-06 -0.000274811
0.0 0.0 -0.00160516
0.0 0.0 -0.00160516
-8.86784e-05 2.10381e-05 -4.00195e-05
-2.34027e-05 -6.63974e-06 -0.000174858
-0.000376402 -8.76454e-05 -0.000262303
-8.3343e-05 -4.00213e-05 -4.14642e-05
-7.52641e-05 2.18199e-05 -6.90429e-05
-0.000206059 4.20839e-05 -0.000758626
0.0 0.0 -0.000346714
-3.68069e-05 -4.57449e-08 -0.000140502
0.0 0.0 -0.000346714
-0.000587386 -0.000157106 0.00015798
-9.7729e-05 -2.64615e-05 -1.74808e-05
0.0 0.0 -0.000346714
0.0 0.0 -0.000346714
0.0 0.0 -0.000346714
0.0 0.0 -0.00160516
-0.00199002 -0.000990547 0.00634393
-0.00108824 -0.000556277 0.00193456
0.0 0.0 -0.00160516
0.0 0.0 -0.000346714
-0.000413546 2.34315e-05 -0.000152147
0.0 0.0 -0.00160516
0.0 0.0 -0.000346714
0.0 0.0 -0.000346714
-8.04178e-05 6.21219e-05 -5.34963e-05
-0.0126462 0.00414262 0.0167737
0.0 0.0 -0.000346714
-0.000407035 6.74019e-05 -0.000175927
0.0 0.0 -0.000346714
0.0 0.0 -0.000346714
0.0 0.0 -0.00160516
0.0 0.0 -0.000346714
0.0 0.0 -0.000346714
0.0 0.0 -0.000346714
0.0 0.0 -0.00160516
-0.000376732 -6.45935e-05 -0.000213051
-9.31641e-05 -3.61766e-06 3.87338e-05
-4.03205e-05 -3.76865e-05 -0.000342519
-5.40052e-05 -2.01201e-05 -9.54695e-05
-0.000269745 3.80643e-05 -0.000409173
0.0 0.0 -0.000346714
0.0 0.0 -0.000346714
0.0 0.0 -0.000346714
0.0 0.0 -0.000346714
0.00508763 0.00164053 0.0224968
0.0 0.0 -0.000346714
0.0 0.0 -0.000346714
-8.71698e-05 -1.56572e-05 -3.96108e-05
0.0 0.0 -0.00160516
-8.72789e-05 -3.18385e-05 -3.84086e-05
-0.000112965 -0.000129198 1.94982e-05
0.0 0.0 -0.000346714
-5.80539e-05 1.87762e-05 -0.000100935
-0.000109381 3.50791e-05 5.97625e-06
0.0 0.0 -0.00160516
-0.000414385 -5.75773e-06 -0.000157406
0.000104658 -9.68766e-05 5.30927e-05
-3.87877e-05 -5.17977e-05 3.16464e-05
0.0 0.0 -0.000346714
-4.67353e-05 1.89411e-05 -0.000117405
0.0 0.0 -0.000346714
0.0 0.0 -0.000346714
-0.000391446 5.5441e-05 -0.000208807
0.0 0.0 -0.00160516
0.0 0.0 -0.000346714
-0.000453934 -9.62428e-06 -7.85132e-05
0.00147348 -0.00363683 -0.00788523
0.0 0.0 -0.000346714
0.0 0.0 -0.000346714
0.0 0.0 -0.000346714
-0.000378681 0.000114378 -0.000244151
0.0 0.0 -0.00160516
0.0 0.0 -0.00160516
-0.000292909 7.63688e-05 -0.000374939
-8.97982e-05 -2.61393e-06 -3.34817e-05
2.11975e-05 1.23071e-05 9.19437e-06
-0.000217649 5.1772e-06 -0.00044939
-0.000105693 -1.08217e-05 -6.21183e-05
-0.000483018 -0.000180865 -0.000100626
0.0 0.0 -0.00160516
-8.5379e-05 4.11247e-05 -4.19171e-05
-8.53432e-05 4.02403e-05 -4.36562e-05
0.0 0.0 -0.000346714
0.0 0.0 -0.00160516
-9.68249e-05 1.21446e-05 -1.97228e-05
0.0 0.0 -0.000346714
0.0 0.0 -0.00160516
-0.000501483 -0.00264977 0.0165173
0.0 0.0 -0.00160516
0.0 0.0 -0.000346714
0.0 0.0 -0.00160516
9.59831e-06 -8.84084e-07 -0.000355404
-0.000469941 -0.000100074 -4.26789e-05
-0.000392357 -0.000148669 -0.000212388
0.0 0.0 -0.000346714
0.0 0.0 -0.00160516
-0.00037352 -0.000307264 -0.00023294
-0.00200833 0.00221663 0.00488843
-0.000610064 0.000283986 0.000392258
-0.00152698 0.00161775 0.00279012
0.0 0.0 -0.00160516
-8.8247e-05 9.86536e-06 -3.754e-05
-0.000467685 5.48853e-05 -5.91035e-05
-0.000477905 -2.42063e-05 -2.86206e-05
0.0 0.0 -0.00160516
-8.39362e-05 -3.48097e-05 -4.50599e-05
-8.69117e-05 -3.43842e-05 -4.14402e-05
0.0 0.0 -0.000346714
0.0 0.0 -0.00160516
0.0 0.0 -0.00160516
0.0277487 -0.0769526 -0.0243579
-6.69363e-05 9.14481e-06 -6.55537e-05
-0.0279112 0.0809556 0.0335198
0.0 0.0 -0.00160516
0.0 0.0 -0.000346714
0.0 0.0 -0.000346714
-0.000118952 -3.581e-05 5.3421e-05
0.0 0.0 -0.00160516
-8.7154e-05 2.42699e-05 -3.92971e-05
0.0 0.0 -0.00160516
0.0 0.0 -0.000346714
-8.77185e-05 2.37094e-05 -3.97172e-05
0.0 0.0 -0.00160516
-8.96612e-05 -6.93989e-06 -4.01088e-05
0.0 0.0 -0.000346714
0.0 0.0 -0.000346714
0.0 0.0 -0.000346714
0.0 0.0 -0.000346714
0.000735016 5.38475e-05 0.0117768
0.0 0.0 -0.000346714
0.0 0.0 -0.00160516
-7.18283e-05 -8.2157e-05 -6.53518e-05
0.0 0.0 -0.000346714
0.0 0.0 -0.00160516
0.0 0.0 -0.000346714
0.0 0.0 -0.000346714
0.0 0.0 -0.000346714
-7.86106e-05 1.86241e-05 -5.86104e-05
0.0 0.0 -0.000346714
0.0 0.0 -0.000346714
0.0 0.0 -0.000346714
0.00215804 -0.00321639 -0.00624769
0.0 0.0 -0.00160516
0.0 0.0 -0.000346714
0.0 0.0 -0.000346714
-7.39521e-05 7.52121e-05 -6.15031e-05
0.0 0.0 -0.000346714
0.0 0.0 -0.000346714
0.0 0.0 -0.00160516
0.0 0.0 -0.000346714
0.0 0.0 -0.000346714
0.0 0.0 -0.000346714
0.0 0.0 -0.00160516
-5.95333e-05 4.04858e-06 -9.61281e-05
0.0 0.0 -0.000346714
-9.0103e-05 2.55981e-06 -3.89442e-05
0.0 0.0 -0.000346714
0.0 0.0 -0.00160516
0.0254438 -0.00900189 -0.0124503
0.0 0.0 -0.00160516
0.0 0.0 -0.000346714
0.0 0.0 -0.00160516
0.0 0.0 -0.000346714
-7.91284e-05 -6.62367e-05 -5.52828e-05
0.0 0.0 -0.000346714
0.0 0.0 -0.000346714
0.0 0.0 -0.000346714
0.0 0.0 -0.00160516
0.000294382 0.0033365 0.0101313
0.0 0.0 -0.000346714
0.0 0.0 -0.000346714
0.0 0.0 -0.000346714
0.0 0.0 -0.000346714
0.0 0.0 -0.000346714
-0.00215804 0.00321639 0.00429582
0.0 0.0 -0.00160516
0.0 0.0 -0.000346714
0.0 0.0 -0.000346714
0.0 0.0 -0.00160516
-0.00314725 -0.0105167 -0.00889539
0.0 0.0 -0.000346714
-0.0254438 0.00900189 0.0104984
0.0 0.0 -0.000346714
0.0 0.0 -0.000346714
0.0 0.0 -0.000346714
0.0 0.0 -0.00160516
0.0 0.0 -0.000346714
-6.48467e-05 9.27498e-05 -7.36714e-05
0.0 0.0 -0.000346714
0.0 0.0 -0.000346714
0.0 0.0 -0.000346714
0.0 0.0 -0.00160516
0.0 0.0 -0.000346714
0.0 0.0 -0.000346714
-8.72185e-05 1.12497e-06 -3.59517e-05
0.0 0.0 -0.000346714
0.0 0.0 -0.000346714
0.0 0.0 -0.000346714
0.0 0.0 -0.000346714
0.0 0.0 -0.00160516
0.0 0.0 -0.000346714
0.0 0.0 -0.000346714
-0.0756477 -0.00599217 -0.020073
0.0 0.0 -0.000346714
0.0 0.0 -0.000346714
0.0 0.0 -0.000346714
0.0 0.0 -0.00160516
0.0 0.0 -0.000346714
0.0 0.0 -0.000346714
0.0 0.0 -0.00160516
0.0 0.0 -0.000346714
0.0 0.0 -0.000346714
0.0 0.0 -0.000346714
0.0 0.0 -0.000346714
0.0 0.0 -0.000346714
0.0 0.0 -0.000346714
0.00314725 0.0105167 0.00694352
0.0 0.0 -0.000346714
0.0 0.0 -0.00160516
0.0 0.0 -0.00160516
0.0 0.0 -0.00160516
0.0 0.0 -0.000346714
0.0 0.0 -0.000346714
0.0 0.0 -0.000346714
0.0 0.0 -0.00160516
0.0 0.0 -0.000346714
0.0 0.0 -0.00160516
-7.17269e-05 -7.68846e-05 -5.84598e-05
0.0 0.0 -0.00160516
0.0 0.0 -0.000346714
0.0 0.0 -0.000346714
0.0 0.0 -0.000346714
0.0 0.0 -0.00160516
0.0 0.0 -0.000346714
0.0 0.0 -0.00160516
-0.0219016 -0.0806058 0.67443
0.0 0.0 -0.00160516
0.0 0.0 -0.000346714
0.0 0.0 -0.000346714
0.0 0.0 -0.000346714
0.0 0.0 -0.000346714
0.0 0.0 -0.000346714
0.0 0.0 -0.000346714
0.0 0.0 -0.00160516
0.0 0.0 -0.000346714
0.0 0.0 -0.00160516
0.0 0.0 -0.000346714
0.0 0.0 -0.00160516
0.0 0.0 -0.00160516
0.0 0.0 -0.000346714
0.0 0.0 -0.000346714
0.0 0.0 -0.000346714
0.0 0.0 -0.000346714
0.0 0.0 -0.00160516
0.0 0.0 -0.00160516
0.0 0.0 -0.000346714
0.0 0.0 -0.000346714
0.0 0.0 -0.00160516
0.0 0.0 -0.000346714
0.0 0.0 -0.000346714
0.0 0.0 -0.000346714
0.0 0.0 -0.00160516
0.0 0.0 -0.000346714
0.0 0.0 -0.000346714
0.0 0.0 -0.000346714
0.0 0.0 -0.00160516
0.0 0.0 -0.000346714
0.0 0.0 -0.000346714
0.0 0.0 -0.00160516
0.0 0.0 -0.000346714
0.0 0.0 -0.000346714
0.0 0.0 -0.00160516
0.0 0.0 -0.000346714
0.0 0.0 -0.00160516
0.0 0.0 -0.000346714
0.0 0.0 -0.00160516
0.0 0.0 -0.000346714
0.0 0.0 -0.00160516
0.0 0.0 -0.000346714
0.0 0.0 -0.000346714
0.0 0.0 -0.00160516
0.0 0.0 -0.000346714
0.0 0.0 -0.000346714
0.0 0.0 -0.00160516
0.0 0.0 -0.00160516
0.0 0.0 -0.000346714
0.0 0.0 -0.000346714
0.0 0.0 -0.000346714
0.0 0.0 -0.000346714
0.0 0.0 -0.000346714
0.0 0.0 -0.00160516
0.0 0.0 -0.000346714
0.0 0.0 -0.000346714
0.0 0.0 -0.000346714
0.0 0.0 -0.00160516
0.0 0.0 -0.000346714
0.0 0.0 -0.00160516
0.0 0.0 -0.00160516
0.0 0.0 -0.000346714
0.0 0.0 -0.000346714
0.0 0.0 -0.000346714
0.0 0.0 -0.000346714
0.0 0.0 -0.000346714
0.0 0.0 -0.000346714
0.0 0.0 -0.00160516
0.0 0.0 -0.000346714
0.0 0.0 -0.00160516
0.0 0.0 -0.000346714
0.0 0.0 -0.00160516
0.0 0.0 -0.000346714
0.0 0.0 -0.000346714
0.0 0.0 -0.00160516
0.0 0.0 -0.000346714
0.0 0.0 -0.000346714
0.0 0.0 -0.000346714
0.0 0.0 -0.000346714
0.0 0.0 -0.000346714
0.0 0.0 -0.000346714
0.0 0.0 -0.00160516
0.0 0.0 -0.000346714
0.0 0.0 -0.00160516
0.0 0.0 -0.000346714
0.0 0.0 -0.00160516
0.0 0.0 -0.00160516
0.0 0.0 -0.000346714
0.0 0.0 -0.000346714
0.0 0.0 -0.000346714
0.0 0.0 -0.00160516
0.0 0.0 -0.00160516
0.0 0.0 -0.000346714
0.0 0.0 -0.00160516
0.0 0.0 -0.000346714
0.0 0.0 -0.000346714
0.0 0.0 -0.00160516
0.0 0.0 -0.00160516
0.0 0.0 -0.000346714
0.0 0.0 -0.000346714
0.0 0.0 -0.000346714
0.0 0.0 -0.000346714
0.0 0.0 -0.000346714
0.0 0.0 -0.00160516
0.0 0.0 -0.000346714
0.0 0.0 -0.00160516
0.0 0.0 -0.000346714