# vtk DataFile Version 2.0
Generated by lpp.py
ASCII
DATASET POLYDATA
POINTS 616 float
-0.449533 -0.0101261 -0.357047
-0.438608 -0.00100352 -0.320308
-0.469646 0.045933 -0.321406
-0.416571 -0.0110826 -0.302066
-0.401327 -0.00772686 -0.295842
-0.413542 0.0295265 -0.294577
-0.406105 -0.00339343 -0.29244
-0.391483 0.00965279 -0.283677
-0.381382 -0.00730732 -0.274304
-0.384115 0.0315583 -0.271671
-0.370905 0.0164841 -0.268818
-0.378253 0.0278404 -0.270157
-0.415266 -0.0587771 -0.265633
-0.362526 -0.006989 -0.263245
-0.367802 0.0260056 -0.263302
-0.357673 0.0164526 -0.259388
-0.36518 0.0278369 -0.26084
-0.349633 -0.000567563 -0.255527
-0.352553 0.000905557 -0.257672
-0.353192 0.00603035 -0.257754
-0.35124 0.0125104 -0.255953
-0.359793 0.0270719 -0.256013
-0.369288 0.0368336 -0.25835
-0.355809 -0.0255169 -0.253157
-0.344135 -0.0131531 -0.251064
-0.344515 0.007964 -0.253171
-0.348059 0.0129268 -0.252954
-0.343888 0.0126342 -0.251364
-0.352785 0.0283413 -0.252761
-0.344644 -0.0212166 -0.248811
-0.341854 -0.0111385 -0.250169
-0.340883 0.0119104 -0.250217
-0.358778 0.0442616 -0.248551
-0.343521 -0.027816 -0.246379
-0.330523 0.000845257 -0.244575
-0.354638 0.0458492 -0.24549
-0.323511 -0.00664291 -0.242122
-0.321724 -0.000317131 -0.241793
-0.320245 0.00377301 -0.240942
-0.319118 -0.0127677 -0.238695
-0.311353 -0.00584969 -0.23722
-0.314301 0.00391331 -0.237343
-0.311546 0.00708121 -0.237069
-0.315659 0.0074515 -0.238776
-0.312973 0.010802 -0.237435
-0.309843 -0.0163693 -0.234264
-0.308522 0.022117 -0.233686
-0.318932 0.0267801 -0.235892
-0.315802 0.0306651 -0.233283
-0.305342 -0.0169306 -0.232122
-0.298939 -0.0108163 -0.231585
-0.29968 0.00343634 -0.232296
-0.298209 0.00710306 -0.231443
-0.287513 -0.0109371 -0.226767
-0.294801 -0.00737746 -0.228146
-0.303384 0.0303678 -0.228341
-0.322495 0.0500757 -0.228332
-0.317475 -0.0548794 -0.223143
-0.284244 -0.0121826 -0.22417
-0.298102 -0.00914984 -0.220236
-0.277266 0.00526957 -0.22275
-0.283447 0.0136428 -0.223233
-0.297298 0.0396261 -0.223875
-0.294611 -0.0435913 -0.220807
-0.276232 -0.0235624 -0.220117
-0.273003 0.00399107 -0.219964
-0.272445 0.00802652 -0.220602
-0.269665 0.0109092 -0.219275
-0.275832 0.0239277 -0.219837
-0.259887 0.00240859 -0.214487
-0.260773 0.00764659 -0.215709
-0.258339 0.0145571 -0.21406
-0.265088 0.0178239 -0.216377
-0.262627 0.0207735 -0.214894
-0.264767 -0.0314642 -0.213342
-0.260187 -0.0304382 -0.21164
-0.265192 -0.024534 -0.214084
-0.2593 -0.0261397 -0.212292
-0.252407 -0.0167805 -0.211216
-0.251679 0.0070687 -0.211906
-0.25208 0.0114238 -0.211888
-0.255636 0.015021 -0.212846
-0.273276 0.0418491 -0.213152
-0.285903 -0.0573524 -0.208878
-0.252615 -0.0306156 -0.208537
-0.246751 -0.00361052 -0.20898
-0.240986 -0.00368466 -0.207638
-0.247595 0.00471919 -0.210269
-0.25227 0.023935 -0.209003
-0.255642 0.0301359 -0.209899
-0.25362 0.027727 -0.209187
-0.259703 0.0356723 -0.210059
-0.250958 -0.0268015 -0.207706
-0.243221 -0.0204068 -0.206842
-0.237124 -0.00584444 -0.205857
-0.234594 -0.0046158 -0.204817
-0.254751 0.00065442 -0.208296
-0.239535 0.00275548 -0.205854
-0.244286 0.0176418 -0.206594
-0.241255 0.0202146 -0.206001
-0.249239 0.0326493 -0.20658
-0.237084 -0.0266271 -0.203034
-0.224324 -0.00997936 -0.200127
-0.230419 1.24962e-05 -0.202088
-0.230701 0.00511983 -0.202081
-0.225616 0.00424678 -0.200996
-0.230889 0.0119587 -0.201743
-0.232228 0.0193127 -0.202405
-0.229836 -0.0274564 -0.19876
-0.227648 -0.0216381 -0.199042
-0.220076 -0.0122506 -0.197044
-0.221981 -0.00833336 -0.199195
-0.220813 0.000149741 -0.199088
-0.222434 0.00421374 -0.198556
-0.216708 0.010488 -0.196993
-0.217396 0.0148595 -0.196748
-0.233397 -0.0498385 -0.193979
-0.230094 -0.0381223 -0.197061
-0.219377 -0.0309077 -0.194703
-0.212152 -0.01418 -0.193275
-0.218315 -0.00815824 -0.195196
-0.206592 -0.00204261 -0.193077
-0.210959 0.00237945 -0.194865
-0.213443 0.00981999 -0.194606
-0.228652 0.0362665 -0.196145
-0.221281 -0.0349276 -0.193507
-0.220274 -0.0272404 -0.194381
-0.210001 -0.0266389 -0.191787
-0.20341 -0.00674376 -0.190623
-0.219758 -0.00438562 -0.195213
-0.208173 -0.00581319 -0.192685
-0.202005 -0.00265563 -0.191133
-0.203464 0.00649754 -0.19172
-0.209287 0.0117806 -0.192624
-0.206847 0.019504 -0.190744
-0.214557 0.0354992 -0.190568
-0.219208 0.0408663 -0.190495
-0.216277 0.0414726 -0.190295
-0.26652 -0.0741411 -0.189043
-0.203317 -0.0304426 -0.187022
-0.196911 -0.0119767 -0.187364
-0.196688 -0.00916693 -0.188673
-0.191973 -0.00933758 -0.1856
-0.195276 -0.00575427 -0.188238
-0.198264 -0.00303769 -0.188443
-0.193622 0.00189376 -0.186497
-0.196989 0.0199537 -0.18768
-0.204105 0.0253178 -0.188549
-0.205705 0.0339902 -0.187283
-0.213643 0.0420853 -0.189011
-0.190205 -0.032857 -0.18219
-0.188668 -0.0129819 -0.183144
-0.182944 -0.00770901 -0.182956
-0.194033 -0.00579359 -0.185489
-0.189786 -3.92937e-05 -0.18592
-0.200324 0.00338427 -0.185615
-0.190668 0.00582533 -0.185292
-0.188489 0.00467402 -0.181492
-0.183968 0.00528592 -0.183575
-0.196719 0.0102327 -0.184992
-0.188159 0.00975874 -0.183493
-0.191626 0.0152011 -0.185912
-0.194787 0.0268943 -0.185367
-0.196777 0.0298099 -0.185591
-0.217322 0.0547885 -0.185161
-0.186484 -0.031376 -0.180959
-0.183897 -0.019735 -0.181029
-0.184101 -0.0145982 -0.181826
-0.191807 -0.00516676 -0.18219
-0.173204 -0.00686224 -0.178892
-0.179974 -0.000683646 -0.180734
-0.17443 -0.00197823 -0.178386
-0.17764 0.00414336 -0.179846
-0.179497 0.00822236 -0.181424
-0.174874 0.00889385 -0.179402
-0.194124 0.0183003 -0.182646
-0.182575 0.0200812 -0.181143
-0.193414 -0.0510451 -0.177655
-0.184056 -0.0344831 -0.178194
-0.174878 -0.0339127 -0.175419
-0.176626 -0.0292789 -0.176308
-0.176237 -0.0256918 -0.178046
-0.174001 -0.0166004 -0.178448
-0.166437 -0.00521553 -0.175052
-0.168104 0.0032256 -0.175832
-0.168875 0.00993451 -0.176786
-0.165532 0.0083257 -0.175533
-0.170772 0.0170192 -0.176996
-0.172558 0.0201126 -0.177445
-0.173611 0.025211 -0.176895
-0.158103 -0.0211328 -0.171192
-0.164413 -0.0188517 -0.173085
-0.166085 -0.010189 -0.174509
-0.161715 -0.0130327 -0.17367
-0.163301 0.00105408 -0.173749
-0.156918 0.000246763 -0.17211
-0.158517 0.00992661 -0.172517
-0.163902 0.0187657 -0.173986
-0.160131 0.0200631 -0.172212
-0.178647 0.0425766 -0.17462
-0.174852 0.0452217 -0.172193
-0.153888 -0.0223662 -0.169302
-0.155673 -0.0175758 -0.169532
-0.155707 -0.0077573 -0.17042
-0.151616 -0.00892039 -0.169569
-0.155301 -0.00384551 -0.171273
-0.148021 -0.00265769 -0.168486
-0.153476 0.0050113 -0.170636
-0.150677 0.00708253 -0.169413
-0.156882 0.0128872 -0.170381
-0.230431 -0.0849201 -0.166134
-0.148197 -0.0211043 -0.166015
-0.148028 -0.0171099 -0.167519
-0.156383 -0.0121392 -0.168035
-0.144546 -0.0096287 -0.166708
-0.141371 -0.00875524 -0.164352
-0.143942 -0.00646569 -0.166614
-0.141779 -0.00445069 -0.165779
-0.144988 -0.00184519 -0.165749
-0.142927 0.00551328 -0.166086
-0.147771 0.0126439 -0.167761
-0.140989 0.0108727 -0.165118
-0.143078 0.0183604 -0.165194
-0.147664 0.031587 -0.163786
-0.202416 -0.0779079 -0.163489
-0.151094 -0.0343155 -0.164566
-0.130579 -0.00836421 -0.160867
-0.150582 -0.00331775 -0.160966
-0.13415 -0.00398396 -0.16246
-0.132532 -0.00128889 -0.161609
-0.140657 0.00356992 -0.162512
-0.14529 0.00932846 -0.164569
-0.138575 0.00843666 -0.164173
-0.133946 0.0109383 -0.162111
-0.146367 0.0369442 -0.163206
-0.12851 -0.0103378 -0.159876
-0.126803 -0.00758586 -0.159099
-0.130725 -0.00443771 -0.159807
-0.121475 -0.00430179 -0.157227
-0.147159 0.00723711 -0.163161
-0.124845 0.00310282 -0.158614
-0.129738 0.0123914 -0.160212
-0.131857 0.0163602 -0.159651
-0.125861 -0.029617 -0.156288
-0.119097 -0.0180776 -0.154791
-0.120616 -0.013412 -0.155168
-0.128456 -0.0107411 -0.156067
-0.122176 -0.00823764 -0.156213
-0.131403 -0.0054878 -0.154914
-0.114448 -0.00460204 -0.154268
-0.122705 -0.000336629 -0.156693
-0.118234 -0.0016455 -0.154778
-0.127069 0.00753732 -0.15676
-0.115468 0.00495739 -0.153578
-0.121337 0.00965983 -0.156808
-0.119091 0.0123059 -0.155729
-0.125433 0.0148692 -0.157131
-0.119612 0.0159219 -0.155692
-0.135154 0.0300758 -0.157441
-0.131092 0.0386858 -0.15639
-0.132965 0.0412253 -0.156541
-0.117255 -0.0308274 -0.152446
-0.110664 -0.0194265 -0.150419
-0.113812 -0.0177104 -0.15307
-0.110201 -0.0148554 -0.151797
-0.124736 -0.0061517 -0.152948
-0.11208 -0.0085856 -0.151961
-0.107262 -0.0107656 -0.149833
-0.127454 -0.00705213 -0.151982
-0.133677 -0.00155473 -0.156896
-0.114039 0.000828204 -0.151121
-0.108025 0.00228002 -0.150462
-0.135266 0.00904392 -0.154702
-0.110883 0.0109372 -0.152358
-0.116108 0.0177139 -0.152978
-0.108351 0.0146755 -0.151021
-0.112517 0.0213151 -0.152023
-0.154802 0.0308283 -0.153377
-0.107424 -0.026165 -0.149233
-0.110427 -0.0234773 -0.148728
-0.105227 -0.0177255 -0.14774
-0.111736 -0.00782105 -0.146591
-0.111286 -0.00427334 -0.149499
-0.120726 0.00562153 -0.152202
-0.0985169 0.0134248 -0.146968
-0.104573 0.0171171 -0.148169
-0.0995745 0.0188604 -0.147
-0.101529 -0.0435464 -0.142792
-0.102148 -0.0324895 -0.145801
-0.0987189 -0.0234056 -0.145966
-0.0912786 -0.0152284 -0.143882
-0.132482 -0.00602774 -0.145764
-0.0929094 -0.00847856 -0.143884
-0.101764 -0.00525311 -0.145261
-0.0981078 -0.000356425 -0.1463
-0.124306 0.00278288 -0.150204
-0.113886 -0.00169728 -0.149499
-0.103866 0.0236092 -0.14694
-0.0989179 -0.0456651 -0.14107
-0.0927431 -0.0382799 -0.139799
-0.104219 -0.0281378 -0.141925
-0.0873829 -0.0156078 -0.14111
-0.0805893 -0.0144502 -0.139273
-0.0813382 -0.010881 -0.139444
-0.0873281 -0.00896571 -0.141489
-0.108855 -0.00464311 -0.144945
-0.0904404 -0.0031269 -0.143236
-0.0821967 -0.00290875 -0.139633
-0.0849379 -0.000192712 -0.141833
-0.0889181 0.0024956 -0.14027
-0.0878818 0.00534724 -0.142275
-0.0863646 0.0127955 -0.141892
-0.0832906 0.013109 -0.140575
-0.0857479 0.0202173 -0.139938
-0.0945513 0.0311265 -0.141889
-0.182115 -0.0971928 -0.137193
-0.0990504 -0.0283333 -0.138567
-0.0790585 -0.0284278 -0.136986
-0.0861662 -0.0205305 -0.139985
-0.0774317 -0.0236284 -0.137011
-0.0792908 -0.00873102 -0.139205
-0.0734306 -0.00220175 -0.137023
[...]
POINT_DATA 616
VECTORS i float
0.0 0.0 0.0
0.0 0.0 0.0
0.0 0.0 0.0
0.0 0.0 0.0
0.0 0.0 0.0
0.0 0.0 0.0
0.0 0.0 0.0
0.0 0.0 0.0
0.0 0.0 0.0
0.0 0.0 0.0
0.0 0.0 0.0
0.0 0.0 0.0
0.0 0.0 0.0
0.0 0.0 0.0
0.0 0.0 0.0
0.0 0.0 0.0
0.0 0.0 0.0
0.0 0.0 0.0
0.0 0.0 0.0
0.0 0.0 0.0
0.0 0.0 0.0
0.0 0.0 0.0
0.0 0.0 0.0
0.0 0.0 0.0
0.0 0.0 0.0
0.0 0.0 0.0
0.0 0.0 0.0
0.0 0.0 0.0
0.0 0.0 0.0
0.0 0.0 0.0
0.0 0.0 0.0
0.0 0.0 0.0
0.0 0.0 0.0
0.0 0.0 0.0
0.0 0.0 0.0
0.0 0.0 0.0
0.0 0.0 0.0
0.0 0.0 0.0
0.0 0.0 0.0
0.0 0.0 0.0
0.0 0.0 0.0
0.0 0.0 0.0
0.0 0.0 0.0
0.0 0.0 0.0
0.0 0.0 0.0
0.0 0.0 0.0
0.0 0.0 0.0
0.0 0.0 0.0
0.0 0.0 0.0
0.0 0.0 0.0
0.0 0.0 0.0
0.0 0.0 0.0
0.0 0.0 0.0
0.0 0.0 0.0
0.0 0.0 0.0
0.0 0.0 0.0
0.0 0.0 0.0
0.0 0.0 0.0
0.0 0.0 0.0
0.0 0.0 0.0
0.0 0.0 0.0
0.0 0.0 0.0
0.0 0.0 0.0
0.0 0.0 0.0
0.0 0.0 0.0
0.0 0.0 0.0
0.0 0.0 0.0
0.0 0.0 0.0
0.0 0.0 0.0
0.0 0.0 0.0
0.0 0.0 0.0
0.0 0.0 0.0
0.0 0.0 0.0
0.0 0.0 0.0
0.0 0.0 0.0
0.0 0.0 0.0
0.0 0.0 0.0
0.0 0.0 0.0
0.0 0.0 0.0
0.0 0.0 0.0
0.0 0.0 0.0
0.0 0.0 0.0
0.0 0.0 0.0
0.0 0.0 0.0
0.0 0.0 0.0
0.0 0.0 0.0
0.0 0.0 0.0
0.0 0.0 0.0
0.0 0.0 0.0
0.0 0.0 0.0
0.0 0.0 0.0
0.0 0.0 0.0
0.0 0.0 0.0
0.0 0.0 0.0
0.0 0.0 0.0
0.0 0.0 0.0
0.0 0.0 0.0
0.0 0.0 0.0
0.0 0.0 0.0
0.0 0.0 0.0
0.0 0.0 0.0
0.0 0.0 0.0
0.0 0.0 0.0
0.0 0.0 0.0
0.0 0.0 0.0
0.0 0.0 0.0
0.0 0.0 0.0
0.0 0.0 0.0
0.0 0.0 0.0
0.0 0.0 0.0
0.0 0.0 0.0
0.0 0.0 0.0
0.0 0.0 0.0
0.0 0.0 0.0
0.0 0.0 0.0
0.0 0.0 0.0
0.0 0.0 0.0
0.0 0.0 0.0
0.0 0.0 0.0
0.0 0.0 0.0
0.0 0.0 0.0
0.0 0.0 0.0
0.0 0.0 0.0
0.0 0.0 0.0
0.0 0.0 0.0
0.0 0.0 0.0
0.0 0.0 0.0
0.0 0.0 0.0
0.0 0.0 0.0
0.0 0.0 0.0
0.0 0.0 0.0
0.0 0.0 0.0
0.0 0.0 0.0
0.0 0.0 0.0
0.0 0.0 0.0
0.0 0.0 0.0
0.0 0.0 0.0
0.0 0.0 0.0
0.0 0.0 0.0
0.0 0.0 0.0
0.0 0.0 0.0
0.0 0.0 0.0
0.0 0.0 0.0
0.0 0.0 0.0
0.0 0.0 0.0
0.0 0.0 0.0
0.0 0.0 0.0
0.0 0.0 0.0
0.0 0.0 0.0
0.0 0.0 0.0
0.0 0.0 0.0
0.0 0.0 0.0
0.0 0.0 0.0
0.0 0.0 0.0
0.0 0.0 0.0
0.0 0.0 0.0
0.0 0.0 0.0
0.0 0.0 0.0
0.0 0.0 0.0
0.0 0.0 0.0
0.0 0.0 0.0
0.0 0.0 0.0
0.0 0.0 0.0
0.0 0.0 0.0
0.0 0.0 0.0
0.0 0.0 0.0
0.0 0.0 0.0
0.0 0.0 0.0
0.0 0.0 0.0
0.0 0.0 0.0
0.0 0.0 0.0
0.0 0.0 0.0
0.0 0.0 0.0
0.0 0.0 0.0
0.0 0.0 0.0
0.0 0.0 0.0
0.0 0.0 0.0
0.0 0.0 0.0
0.0 0.0 0.0
0.0 0.0 0.0
0.0 0.0 0.0
0.0 0.0 0.0
0.0 0.0 0.0
0.0 0.0 0.0
0.0 0.0 0.0
0.0 0.0 0.0
0.0 0.0 0.0
0.0 0.0 0.0
0.0 0.0 0.0
0.0 0.0 0.0
0.0 0.0 0.0
0.0 0.0 0.0
0.0 0.0 0.0
0.0 0.0 0.0
0.0 0.0 0.0
0.0 0.0 0.0
0.0 0.0 0.0
0.0 0.0 0.0
0.0 0.0 0.0
0.0 0.0 0.0
0.0 0.0 0.0
0.0 0.0 0.0
0.0 0.0 0.0
0.0 0.0 0.0
0.0 0.0 0.0
0.0 0.0 0.0
0.0 0.0 0.0
0.0 0.0 0.0
0.0 0.0 0.0
0.0 0.0 0.0
0.0 0.0 0.0
0.0 0.0 0.0
0.0 0.0 0.0
0.0 0.0 0.0
0.0 0.0 0.0
0.0 0.0 0.0
0.0 0.0 0.0
0.0 0.0 0.0
0.0 0.0 0.0
0.0 0.0 0.0
0.0 0.0 0.0
0.0 0.0 0.0
0.0 0.0 0.0
0.0 0.0 0.0
0.0 0.0 0.0
0.0 0.0 0.0
0.0 0.0 0.0
0.0 0.0 0.0
0.0 0.0 0.0
0.0 0.0 0.0
0.0 0.0 0.0
0.0 0.0 0.0
0.0 0.0 0.0
0.0 0.0 0.0
0.0 0.0 0.0
0.0 0.0 0.0
0.0 0.0 0.0
0.0 0.0 0.0
0.0 0.0 0.0
0.0 0.0 0.0
0.0 0.0 0.0
0.0 0.0 0.0
0.0 0.0 0.0
0.0 0.0 0.0
0.0 0.0 0.0
0.0 0.0 0.0
0.0 0.0 0.0
0.0 0.0 0.0
0.0 0.0 0.0
0.0 0.0 0.0
0.0 0.0 0.0
0.0 0.0 0.0
0.0 0.0 0.0
0.0 0.0 0.0
0.0 0.0 0.0
0.0 0.0 0.0
0.0 0.0 0.0
0.0 0.0 0.0
0.0 0.0 0.0
0.0 0.0 0.0
0.0 0.0 0.0
0.0 0.0 0.0
0.0 0.0 0.0
0.0 0.0 0.0
0.0 0.0 0.0
0.0 0.0 0.0
0.0 0.0 0.0
0.0 0.0 0.0
0.0 0.0 0.0
0.0 0.0 0.0
0.0 0.0 0.0
0.0 0.0 0.0
0.0 0.0 0.0
0.0 0.0 0.0
0.0 0.0 0.0
0.0 0.0 0.0
0.0 0.0 0.0
0.0 0.0 0.0
0.0 0.0 0.0
0.0 0.0 0.0
0.0 0.0 0.0
0.0 0.0 0.0
0.0 0.0 0.0
0.0 0.0 0.0
0.0 0.0 0.0
0.0 0.0 0.0
0.0 0.0 0.0
0.0 0.0 0.0
0.0 0.0 0.0
0.0 0.0 0.0
0.0 0.0 0.0
0.0 0.0 0.0
0.0 0.0 0.0
0.0 0.0 0.0
0.0 0.0 0.0
0.0 0.0 0.0
0.0 0.0 0.0
0.0 0.0 0.0
0.0 0.0 0.0
0.0 0.0 0.0
0.0 0.0 0.0
0.0 0.0 0.0
0.0 0.0 0.0
0.0 0.0 0.0
0.0 0.0 0.0
0.0 0.0 0.0
0.0 0.0 0.0
0.0 0.0 0.0
0.0 0.0 0.0
0.0 0.0 0.0
0.0 0.0 0.0
0.0 0.0 0.0
0.0 0.0 0.0
0.0 0.0 0.0
0.0 0.0 0.0
0.0 0.0 0.0
0.0 0.0 0.0
0.0 0.0 0.0
0.0 0.0 0.0
0.0 0.0 0.0
0.0 0.0 0.0
0.0 0.0 0.0
0.0 0.0 0.0
0.0 0.0 0.0
0.0 0.0 0.0
0.0 0.0 0.0
0.0 0.0 0.0
0.0 0.0 0.0
0.0 0.0 0.0
0.0 0.0 0.0
0.0 0.0 0.0
0.0 0.0 0.0
0.0 0.0 0.0
0.0 0.0 0.0
0.0 0.0 0.0
0.0 0.0 0.0
0.0 0.0 0.0
0.0 0.0 0.0
0.0 0.0 0.0
0.0 0.0 0.0
0.0 0.0 0.0
0.0 0.0 0.0
0.0 0.0 0.0
0.0 0.0 0.0
0.0 0.0 0.0
0.0 0.0 0.0
0.0 0.0 0.0
0.0 0.0 0.0
0.0 0.0 0.0
0.0 0.0 0.0
0.0 0.0 0.0
0.0 0.0 0.0
0.0 0.0 0.0
0.0 0.0 0.0
0.0 0.0 0.0
0.0 0.0 0.0
0.0 0.0 0.0
0.0 0.0 0.0
0.0 0.0 0.0
0.0 0.0 0.0
0.0 0.0 0.0
0.0 0.0 0.0
0.0 0.0 0.0
0.0 0.0 0.0
0.0 0.0 0.0
0.0 0.0 0.0
0.0 0.0 0.0
0.0 0.0 0.0
0.0 0.0 0.0
0.0 0.0 0.0
0.0 0.0 0.0
0.0 0.0 0.0
0.0 0.0 0.0
0.0 0.0 0.0
0.0 0.0 0.0
0.0 0.0 0.0
0.0 0.0 0.0
0.0 0.0 0.0
0.0 0.0 0.0
0.0 0.0 0.0
0.0 0.0 0.0
0.0 0.0 0.0
0.0 0.0 0.0
0.0 0.0 0.0
0.0 0.0 0.0
0.0 0.0 0.0
0.0 0.0 0.0
0.0 0.0 0.0
0.0 0.0 0.0
0.0 0.0 0.0
0.0 0.0 0.0
0.0 0.0 0.0
0.0 0.0 0.0
0.0 0.0 0.0
0.0 0.0 0.0
0.0 0.0 0.0
0.0 0.0 0.0
0.0 0.0 0.0
0.0 0.0 0.0
0.0 0.0 0.0
0.0 0.0 0.0
0.0 0.0 0.0
0.0 0.0 0.0
0.0 0.0 0.0
0.0 0.0 0.0
0.0 0.0 0.0
0.0 0.0 0.0
0.0 0.0 0.0
0.0 0.0 0.0
0.0 0.0 0.0
0.0 0.0 0.0
0.0 0.0 0.0
0.0 0.0 0.0
0.0 0.0 0.0
0.0 0.0 0.0
0.0 0.0 0.0
0.0 0.0 0.0
0.0 0.0 0.0
0.0 0.0 0.0
0.0 0.0 0.0
0.0 0.0 0.0
0.0 0.0 0.0
0.0 0.0 0.0
0.0 0.0 0.0
0.0 0.0 0.0
0.0 0.0 0.0
0.0 0.0 0.0
0.0 0.0 0.0
0.0 0.0 0.0
0.0 0.0 0.0
0.0 0.0 0.0
0.0 0.0 0.0
0.0 0.0 0.0
0.0 0.0 0.0
0.0 0.0 0.0
0.0 0.0 0.0
0.0 0.0 0.0
0.0 0.0 0.0
0.0 0.0 0.0
0.0 0.0 0.0
0.0 0.0 0.0
0.0 0.0 0.0
0.0 0.0 0.0
0.0 0.0 0.0
0.0 0.0 0.0
0.0 0.0 0.0
0.0 0.0 0.0
0.0 0.0 0.0
0.0 0.0 0.0
0.0 0.0 0.0
0.0 0.0 0.0
0.0 0.0 0.0
0.0 0.0 0.0
0.0 0.0 0.0
0.0 0.0 0.0
0.0 0.0 0.0
0.0 0.0 0.0
0.0 0.0 0.0
0.0 0.0 0.0
0.0 0.0 0.0
0.0 0.0 0.0
0.0 0.0 0.0
0.0 0.0 0.0
0.0 0.0 0.0
0.0 0.0 0.0
0.0 0.0 0.0
0.0 0.0 0.0
0.0 0.0 0.0
0.0 0.0 0.0
0.0 0.0 0.0
0.0 0.0 0.0
0.0 0.0 0.0
0.0 0.0 0.0
0.0 0.0 0.0
0.0 0.0 0.0
0.0 0.0 0.0
0.0 0.0 0.0
0.0 0.0 0.0
0.0 0.0 0.0
0.0 0.0 0.0
0.0 0.0 0.0
0.0 0.0 0.0
0.0 0.0 0.0
0.0 0.0 0.0
0.0 0.0 0.0
0.0 0.0 0.0
0.0 0.0 0.0
0.0 0.0 0.0
0.0 0.0 0.0
0.0 0.0 0.0
0.0 0.0 0.0
0.0 0.0 0.0
0.0 0.0 0.0
0.0 0.0 0.0
0.0 0.0 0.0
0.0 0.0 0.0
0.0 0.0 0.0
0.0 0.0 0.0
0.0 0.0 0.0
0.0 0.0 0.0
0.0 0.0 0.0
0.0 0.0 0.0
0.0 0.0 0.0
0.0 0.0 0.0
0.0 0.0 0.0
0.0 0.0 0.0
0.0 0.0 0.0
0.0 0.0 0.0
0.0 0.0 0.0
0.0 0.0 0.0
0.0 0.0 0.0
0.0 0.0 0.0
0.0 0.0 0.0
0.0 0.0 0.0
0.0 0.0 0.0
0.0 0.0 0.0
0.0 0.0 0.0
0.0 0.0 0.0
0.0 0.0 0.0
0.0 0.0 0.0
0.0 0.0 0.0
0.0 0.0 0.0
0.0 0.0 0.0
0.0 0.0 0.0
0.0 0.0 0.0
0.0 0.0 0.0
0.0 0.0 0.0
0.0 0.0 0.0
0.0 0.0 0.0
0.0 0.0 0.0
0.0 0.0 0.0
0.0 0.0 0.0
0.0 0.0 0.0
0.0 0.0 0.0
0.0 0.0 0.0
0.0 0.0 0.0
0.0 0.0 0.0
0.0 0.0 0.0
0.0 0.0 0.0
0.0 0.0 0.0
0.0 0.0 0.0
0.0 0.0 0.0
0.0 0.0 0.0
0.0 0.0 0.0
0.0 0.0 0.0
0.0 0.0 0.0
0.0 0.0 0.0
0.0 0.0 0.0
0.0 0.0 0.0
0.0 0.0 0.0
0.0 0.0 0.0
0.0 0.0 0.0
0.0 0.0 0.0
0.0 0.0 0.0
0.0 0.0 0.0
0.0 0.0 0.0
0.0 0.0 0.0
0.0 0.0 0.0
0.0 0.0 0.0
0.0 0.0 0.0
0.0 0.0 0.0
0.0 0.0 0.0
0.0 0.0 0.0
0.0 0.0 0.0
0.0 0.0 0.0
0.0 0.0 0.0
0.0 0.0 0.0
0.0 0.0 0.0
0.0 0.0 0.0
0.0 0.0 0.0
0.0 0.0 0.0
0.0 0.0 0.0
0.0 0.0 0.0
0.0 0.0 0.0
0.0 0.0 0.0
0.0 0.0 0.0
0.0 0.0 0.0
0.0 0.0 0.0
0.0 0.0 0.0
0.0 0.0 0.0
0.0 0.0 0.0
0.0 0.0 0.0
0.0 0.0 0.0
0.0 0.0 0.0
0.0 0.0 0.0
0.0 0.0 0.0
0.0 0.0 0.0
0.0 0.0 0.0
0.0 0.0 0.0
0.0 0.0 0.0
0.0 0.0 0.0
0.0 0.0 0.0
0.0 0.0 0.0
0.0 0.0 0.0
0.0 0.0 0.0
0.0 0.0 0.0
0.0 0.0 0.0
0.0 0.0 0.0
0.0 0.0 0.0
0.0 0.0 0.0
0.0 0.0 0.0
0.0 0.0 0.0
0.0 0.0 0.0
0.0 0.0 0.0
0.0 0.0 0.0
0.0 0.0 0.0
0.0 0.0 0.0
0.0 0.0 0.0
0.0 0.0 0.0
0.0 0.0 0.0
0.0 0.0 0.0
0.0 0.0 0.0
0.0 0.0 0.0
0.0 0.0 0.0
0.0 0.0 0.0
0.0 0.0 0.0
VECTORS f float
0.0 0.0 -0.000346714
0.0 0.0 -0.000346714
0.0 0.0 -0.000346714
0.0 0.0 -0.00160516
0.0 0.0 -0.000346714
0.0 0.0 -0.000346714
0.0 0.0 -0.000346714
0.0 0.0 -0.00160516
0.0 0.0 -0.00160516
0.0 0.0 -0.000346714
0.0 0.0 -0.000346714
0.0 0.0 -0.000346714
0.0 0.0 -0.000346714
0.0 0.0 -0.000346714
0.0 0.0 -0.000346714
0.0 0.0 -0.000346714
0.0 0.0 -0.000346714
0.0 0.0 -0.000346714
0.0 0.0 -0.000346714
0.0 0.0 -0.000346714
0.0 0.0 -0.000346714
0.0 0.0 -0.00160516
0.0 0.0 -0.00160516
0.0 0.0 -0.00160516
0.0 0.0 -0.000346714
0.0 0.0 -0.000346714
0.0 0.0 -0.00160516
0.0 0.0 -0.000346714
0.0 0.0 -0.000346714
0.0 0.0 -0.00160516
0.0 0.0 -0.000346714
0.0 0.0 -0.000346714
0.0 0.0 -0.000346714
0.0 0.0 -0.000346714
0.0 0.0 -0.00160516
0.0 0.0 -0.000346714
0.0 0.0 -0.000346714
-0.000944206 0.00011678 0.00248104
-8.83867e-05 -1.3304e-05 -3.78729e-05
0.0 0.0 -0.00160516
-7.61115e-05 6.38571e-06 -6.85325e-05
-0.000397534 -5.94424e-05 -0.000195945
-9.51313e-05 -1.29865e-05 -2.81827e-05
-8.79437e-05 -1.31472e-05 -3.8368e-05
-8.50733e-05 -1.27675e-05 -4.3484e-05
0.00010788 4.84558e-05 -0.00018215
-8.67382e-05 -4.03823e-05 -4.16081e-05
-0.000373627 -0.000315341 -0.000229103
-0.000417986 -0.000359131 -0.000115278
0.0 0.0 -0.00160516
-8.83117e-05 2.29805e-05 -3.80949e-05
-7.98776e-05 -1.13456e-05 -5.43166e-05
-8.74329e-05 -1.31562e-05 -3.98875e-05
-8.74056e-05 2.25898e-05 -4.00259e-05
0.0 0.0 -0.00160516
-1.41658e-05 -3.1028e-05 -0.000724046
0.0 0.0 -0.000346714
0.0 0.0 -0.000346714
-0.000406276 0.000103516 -0.000191379
0.0 0.0 -0.00160516
-7.69501e-05 -1.04104e-05 -6.26641e-05
0.0 0.0 -0.00160516
-0.00010223 -0.000268195 0.000229578
0.0 0.0 -0.000346714
-6.98813e-05 2.88497e-05 -0.000105962
-0.000331119 -4.09934e-05 -0.000340846
-4.3442e-05 -4.35807e-06 -0.000155961
-8.81994e-05 -1.03872e-05 -3.68984e-05
-8.48494e-05 -3.36734e-05 -4.0093e-05
-0.000753742 -8.21699e-05 0.000473761
6.45731e-05 1.15227e-05 0.000752959
-3.97561e-06 -5.29749e-05 -8.06175e-06
0.0 0.0 -0.000346714
-8.11452e-05 -3.02014e-05 -5.14217e-05
-0.000208611 0.000192481 0.00109806
0.0 0.0 -0.000346714
0.0 0.0 -0.00160516
0.0 0.0 -0.000346714
0.0 0.0 -0.000346714
-0.000184486 -1.71431e-05 8.07352e-05
-0.000189614 -1.9942e-05 0.000224648
-4.65922e-05 -2.31168e-05 -2.12933e-05
-0.000357797 -0.000377743 0.000278306
0.0 0.0 -0.000346714
0.0 0.0 -0.000346714
-8.87122e-05 -2.17048e-06 -0.00102264
0.0 0.0 -0.000346714
-8.74251e-05 -8.11046e-06 -3.75108e-05
0.0 0.0 -0.00160516
2.87112e-05 -5.37141e-05 0.000202037
0.0 0.0 -0.000346714
-8.19263e-05 -5.51277e-05 -4.34624e-05
0.0 0.0 -0.00160516
-0.000327888 0.000120534 0.000311043
0.000721359 0.00181036 0.00615047
-0.000571412 -0.000227947 -0.000282514
0.0 0.0 -0.000346714
-0.000267553 -2.42832e-05 -0.000303984
-2.61102e-05 0.000247471 0.000142111
0.0 0.0 -0.000346714
-8.0347e-05 -5.20835e-05 -4.95354e-05
0.0 0.0 -0.000346714
0.0 0.0 -0.000346714
-0.000425163 -2.48301e-05 -0.00016227
-0.000421165 -2.44558e-05 -0.000144054
0.0 0.0 -0.000346714
-0.000879844 -0.000294578 0.00108504
0.0 0.0 -0.000346714
-0.00168945 0.000925261 0.00310174
-0.000568234 0.000298725 0.000340435
-0.00268265 0.000629399 0.00491589
0.0 0.0 -0.000346714
-0.000124983 -5.45249e-06 6.65537e-05
0.0 0.0 -0.00160516
-8.94063e-05 -2.34396e-05 -7.67707e-05
0.0 0.0 -0.000346714
-6.62807e-05 9.08914e-05 -7.20884e-05
-6.8356e-05 6.22635e-05 -5.97889e-05
-9.83103e-05 5.11489e-05 -2.1243e-05
0.0 0.0 -0.00160516
0.0 0.0 -0.000346714
-7.68823e-05 -1.53838e-06 -2.38124e-05
9.96265e-05 -1.52629e-06 -0.000568117
-0.00126312 -0.000357048 0.0019995
-0.00272595 -0.00191202 0.00733413
0.000599224 -0.000188164 -0.00277288
0.0 0.0 -0.000346714
-0.000277953 0.000159243 0.00115515
-0.000256293 6.09109e-05 -0.000581624
0.0 0.0 -0.00160516
-0.000916657 -0.000460517 0.00156744
-8.95907e-05 3.66915e-07 -3.84802e-05
-6.37118e-05 -1.20756e-06 -9.63292e-05
-0.000404856 -0.000102439 -0.000199744
0.015035 0.000594864 0.0159909
-0.00017501 -3.31185e-05 -0.000836827
-1.84983e-05 -2.61902e-06 -0.000357574
0.000181491 6.20001e-05 -0.000336823
8.37445e-05 0.000598346 -2.05492e-05
-0.000369736 0.000211035 -0.000242892
0.0 0.0 -0.000346714
-0.000129768 3.48542e-05 7.03354e-05
-6.94102e-06 -0.000239455 1.04447e-05
0.0 0.0 -0.000346714
-0.000489703 2.40932e-05 -0.000299342
0.0 0.0 -0.00160516
-8.65483e-05 -2.14672e-05 -3.77534e-05
-0.00190441 -0.00105299 0.00370887
-0.000398952 -0.000216542 -0.000165606
-0.000162993 -5.9381e-05 -0.000345746
-8.98546e-05 5.10976e-05 -2.851e-05
0.0 0.0 -0.00160516
-6.82574e-05 2.42705e-06 -8.89899e-05
0.0 0.0 -0.000346714
0.0 0.0 -0.000346714
0.0 0.0 -0.000346714
0.000909262 0.000599972 -0.0026005
0.0 0.0 -0.000346714
-8.85854e-05 -1.77454e-05 -3.91635e-05
0.0 0.0 -0.000346714
0.0 0.0 -0.00160516
-0.000101383 -2.14406e-05 -5.36966e-05
0.0 0.0 -0.000346714
0.0 0.0 -0.000346714
-0.000213244 -0.000310457 0.000918686
0.0 0.0 -0.000346714
-0.000395852 0.000113859 -0.000188143
0.0 0.0 -0.000346714
0.0 0.0 -0.00160516
-8.71283e-05 2.97393e-06 -3.591e-05
-0.000408042 1.83228e-05 -0.000171895
0.000132148 -7.0682e-08 -0.00152881
3.81348e-06 -1.54908e-07 -0.00154814
-8.85892e-05 -1.77462e-05 -3.91561e-05
2.3005e-05 -2.46097e-05 1.8781e-05
0.0 0.0 -0.000346714
0.0 0.0 -0.000346714
-0.000364836 0.000555759 0.000735054
-0.000387228 0.000206606 -0.000198746
0.0 0.0 -0.000346714
0.0 0.0 -0.00160516
0.000255728 -0.000565568 -0.0010238
-8.82949e-05 2.6294e-05 -2.74905e-05
-0.000260901 -0.000148841 0.000719811
-0.000417764 1.78993e-06 -0.000180877
-9.66339e-05 -1.89871e-05 -1.7683e-05
-8.63587e-05 -1.81858e-05 -3.69942e-05
-8.75025e-05 -1.72035e-05 -3.78951e-05
-8.52722e-05 -3.91703e-05 -4.51878e-05
-9.26792e-05 -2.58902e-05 -4.77765e-05
-0.000125567 4.55477e-05 6.57234e-05
-0.000382153 0.000115348 -0.000257133
0.0 0.0 -0.00160516
-8.76853e-05 1.61227e-05 -3.62681e-05
-0.000427504 1.75047e-06 -0.000168583
-8.709e-05 -2.53878e-06 -3.59177e-05
4.60479e-06 7.71887e-05 -0.000137291
-9.34956e-05 -1.91917e-05 -1.54422e-05
0.0 0.0 -0.000346714
-7.99744e-05 -6.29318e-05 -5.38971e-05
-6.39254e-05 -4.93941e-05 -0.000100094
-8.45392e-05 2.3078e-05 -5.19174e-05
-0.000396427 0.000116013 -0.000187104
-0.00043758 6.10377e-05 -0.000129578
0.0 0.0 -0.000346714
0.0 0.0 -0.000346714
4.08462e-05 -5.15622e-05 0.000253573
-0.000122286 -4.3401e-06 7.07994e-05
1.93126e-05 -1.54103e-05 6.94939e-06
-1.91034e-05 -2.24922e-05 -0.00160926
0.0 0.0 -0.000346714
-0.00147116 0.000640487 0.00253595
-0.000305557 9.03802e-05 0.000558351
0.0 0.0 -0.00160516
-8.73907e-05 1.04471e-05 -3.71081e-05
-0.000483463 5.9694e-05 7.63407e-05
-8.27893e-05 9.8911e-06 -4.78686e-05
-8.96168e-05 6.39147e-06 -3.831e-05
0.0 0.0 -0.00160516
0.0 0.0 -0.000346714
-8.59111e-05 -2.39115e-05 -3.72543e-05
0.0 0.0 -0.000346714
-0.000132639 -3.86212e-05 9.42111e-05
-0.000369038 -0.000178389 -0.00029469
-0.000225077 0.000513375 -0.000491587
0.0 0.0 -0.00160516
0.0 0.0 -0.000346714
0.0 0.0 -0.00160516
0.0 0.0 -0.000346714
0.0 0.0 -0.000346714
0.0 0.0 -0.00160516
0.0 0.0 -0.000346714
-6.94248e-05 -6.53431e-06 -7.83249e-05
-9.02209e-05 -1.05977e-05 -3.95745e-05
-9.29341e-05 -4.57439e-05 -3.08969e-05
0.0 0.0 -0.000346714
0.0 0.0 -0.000346714
0.0 0.0 -0.00160516
0.0 0.0 -0.000346714
0.0 0.0 -0.000346714
0.0 0.0 -0.000346714
-9.07823e-05 -1.07272e-05 -3.61983e-05
-0.000388027 -0.000134996 -0.000190905
-8.42375e-05 4.38115e-05 -4.64574e-05
0.0 0.0 -0.000346714
0.0 0.0 -0.00160516
0.0 0.0 -0.000346714
0.0 0.0 -0.00160516
0.0 0.0 -0.000346714
1.77102e-05 -4.50778e-05 1.02909e-05
0.000151426 0.000145357 0.00107614
-0.00041372 1.22643e-07 -0.000162024
0.0 0.0 -0.00160516
0.0 0.0 -0.00160516
0.0 0.0 -0.000346714
0.0 0.0 -0.000346714
-0.000973378 -0.000115247 0.000953645
-8.84208e-05 -1.49744e-05 -3.84586e-05
0.0 0.0 -0.000346714
-8.39081e-05 -4.70752e-05 -4.60907e-05
-7.89657e-05 -6.38999e-05 -5.30239e-05
-8.47969e-05 4.32222e-05 -4.46407e-05
-0.000400848 0.000128741 -0.000196226
-8.7269e-05 2.80786e-05 -4.04883e-05
0.0 0.0 -0.000346714
0.0 0.0 -0.000346714
-0.000459512 7.32574e-05 -6.91328e-05
0.0 0.0 -0.000346714
0.0 0.0 -0.000346714
0.0 0.0 -0.000346714
0.0 0.0 -0.000346714
-0.000417128 -2.78966e-06 -0.000148571
0.0 0.0 -0.000346714
-5.93563e-05 -1.03012e-05 -5.71425e-05
-0.000256543 -8.26331e-05 -0.000615341
-0.000152589 -2.66361e-05 9.48798e-05
-8.63708e-05 -3.14113e-05 -4.27375e-05
0.0 0.0 -0.000346714
-8.67223e-05 2.7702e-05 -3.99004e-05
0.0 0.0 -0.000346714
0.0 0.0 -0.000346714
0.0 0.0 -0.00160516
0.0 0.0 -0.000346714
0.0388917 0.0165488 -0.00279658
-9.17794e-05 -1.66298e-05 -3.12892e-05
-0.00102611 -0.000413293 0.00144086
2.17526e-05 -1.11344e-05 8.37833e-06
-8.09842e-05 5.95519e-05 -5.15482e-05
-8.41051e-05 4.18443e-05 -4.66013e-05
-9.4165e-05 3.27127e-05 -2.05556e-05
-8.73716e-05 1.23668e-05 -3.89769e-05
0.0 0.0 -0.00160516
-0.000837018 0.000143389 0.000974515
0.0 0.0 -0.000346714
-0.00055484 -5.38043e-06 0.000188886
-0.0388917 -0.0165488 -0.000413736
0.0 0.0 -0.000346714
0.0 0.0 -0.00160516
-8.1818e-05 6.02124e-05 -4.94804e-05
0.0 0.0 -0.000346714
0.0 0.0 -0.00160516
-0.000405829 0.000118901 -0.000186329
0.0 0.0 -0.000346714
-0.00664762 -0.00815876 -0.00662974
-0.000415599 5.51212e-05 -0.000165256
0.0 0.0 -0.000346714
0.0 0.0 -0.000346714
-0.000617881 -7.09788e-05 0.00015374
0.000280253 -0.000236441 0.00374729
0.0 0.0 -0.000346714
0.0 0.0 -0.000346714
0.0 0.0 -0.000346714
0.000382926 0.000281334 -0.000625126
0.0813872 0.0160904 -0.033828
-0.00077739 -0.00023981 0.00315536
-1.17693e-05 5.48092e-05 -0.000232268
0.0 0.0 -0.000346714
-8.53428e-05 4.02401e-05 -4.36571e-05
-0.00115704 0.000464889 0.00167215
1.52208e-05 -1.41459e-05 8.0836e-06
0.0102148 0.00763131 -0.00264048
-9.78179e-05 -4.18449e-06 -1.92117e-05
-2.06486e-05 5.26858e-05 -0.000289267
0.0 0.0 -0.000346714
0.0 0.0 -0.00160516
0.0 0.0 -0.000346714
-0.000249057 -6.66786e-05 0.000681736
0.0 0.0 -0.000346714
0.0 0.0 -0.000346714
0.0 0.0 -0.000346714
0.0 0.0 -0.00160516
0.0 0.0 -0.000346714
-0.0011662 0.000905811 -6.73926e-05
0.000495188 0.00219612 0.00250035
0.0 0.0 -0.000346714
0.0 0.0 -0.000346714
6.23083e-05 7.71263e-05 -0.00138076
0.0 0.0 -0.00160516
0.0 0.0 -0.000346714
0.0 0.0 -0.000346714
0.0 0.0 -0.000346714
0.0 0.0 -0.000346714
-0.00012921 -5.16407e-05 2.75763e-05
0.0 0.0 -0.000346714
-0.000392506 0.000184442 -0.000200073
0.00013295 0.000249814 0.000171439
0.0 0.0 -0.00160516
0.0 0.0 -0.00160516
-8.83159e-05 9.27754e-06 -3.90459e-05
0.0 0.0 -0.00160516
0.0 0.0 -0.000346714
0.0 0.0 -0.000346714
-0.0817968 -0.016171 0.0320421
0.000126026 0.000109391 -0.00186077
-7.17745e-05 -8.21051e-05 -6.5213e-05
0.00541461 0.000455466 -0.000882814
0.0 0.0 -0.00160516
0.0 0.0 -0.00160516
0.0 0.0 -0.000346714
0.0 0.0 -0.00160516
0.0 0.0 -0.000346714
-0.000187838 -1.16127e-05 -0.000637549
0.0 0.0 -0.000346714
0.0 0.0 -0.00160516
0.0 0.0 -0.000346714
0.0 0.0 -0.00160516
0.0 0.0 -0.00160516
-0.00260006 -0.000545027 0.00674938
0.0 0.0 -0.000346714
0.0 0.0 -0.000346714
0.0 0.0 -0.000346714
-0.0117995 0.00326928 0.0293288
0.0 0.0 -0.000346714
0.0 0.0 -0.00160516
-0.000172529 2.79435e-05 1.90154e-05
0.0 0.0 -0.000346714
0.0 0.0 -0.000346714
-0.00256375 -3.7499e-05 -0.00410719
0.0 0.0 -0.00160516
0.0 0.0 -0.000346714
0.0 0.0 -0.000346714
0.0 0.0 -0.000346714
0.0 0.0 -0.00160516
0.0 0.0 -0.000346714
0.0 0.0 -0.000346714
0.0 0.0 -0.000346714
0.0 0.0 -0.000346714
0.0 0.0 -0.000346714
0.0 0.0 -0.000346714
0.0 0.0 -0.000346714
0.0 0.0 -0.00160516
0.0 0.0 -0.000346714
0.0 0.0 -0.000346714
0.0 0.0 -0.000346714
0.0 0.0 -0.00160516
0.0 0.0 -0.000346714
0.0 0.0 -0.00160516
0.0 0.0 -0.000346714
0.0 0.0 -0.00160516
0.0 0.0 -0.000346714
-8.78506e-05 -2.69308e-05 -4.08387e-05
-0.000332058 -0.000397672 -0.00032644
0.0 0.0 -0.00160516
0.0 0.0 -0.00160516
-8.9131e-05 3.66297e-05 -4.06876e-05
0.0 0.0 -0.00160516
0.0 0.0 -0.000346714
0.0 0.0 -0.00160516
0.0 0.0 -0.00160516
0.0 0.0 -0.00160516
0.0 0.0 -0.000346714
0.0 0.0 -0.000346714
0.0 0.0 -0.00160516
0.0 0.0 -0.00160516
0.0 0.0 -0.000346714
0.0 0.0 -0.000346714
0.0 0.0 -0.000346714
0.0 0.0 -0.00160516
0.0 0.0 -0.000346714
0.00984158 0.00263204 -0.0317481
0.0 0.0 -0.00160516
0.0 0.0 -0.00160516
0.0 0.0 -0.00160516
0.0 0.0 -0.00160516
0.0 0.0 -0.000346714
0.0 0.0 -0.000346714
0.0 0.0 -0.000346714
0.0 0.0 -0.000346714
0.0 0.0 -0.000346714
0.0 0.0 -0.00160516
0.0 0.0 -0.00160516
0.0 0.0 -0.00160516
0.0 0.0 -0.000346714
0.0 0.0 -0.000346714
0.0 0.0 -0.000346714
0.0 0.0 -0.000346714
0.0 0.0 -0.000346714
0.0 0.0 -0.000346714
0.0 0.0 -0.000346714
0.0 0.0 -0.000346714
0.0 0.0 -0.000346714
0.0 0.0 -0.000346714
0.0 0.0 -0.000346714
0.0 0.0 -0.000346714
0.0 0.0 -0.00160516
0.0 0.0 -0.000346714