# vtk DataFile Version 2.0
Generated by lpp.py
ASCII
DATASET POLYDATA
POINTS 664 float
-0.496095 -0.00708023 -0.380757
-0.469279 -0.00909131 -0.35662
-0.451737 -0.00366936 -0.349011
-0.466899 0.0293519 -0.347236
-0.458913 0.00115424 -0.342945
-0.440489 0.0104174 -0.331402
-0.431296 -0.00590259 -0.318421
-0.467813 -0.0533768 -0.315891
-0.43495 0.0303267 -0.316496
-0.416676 0.0163668 -0.310075
-0.425896 0.0284346 -0.312708
-0.414187 0.0250229 -0.302778
-0.408911 -0.00695145 -0.30143
-0.411686 0.0285456 -0.299016
-0.404478 0.0176605 -0.296518
-0.419732 0.0384508 -0.297797
-0.408173 -0.0139174 -0.292795
-0.400485 -0.000288144 -0.294147
-0.400742 0.00564081 -0.294228
-0.400303 0.0124024 -0.292141
-0.409864 0.0235393 -0.294776
-0.3977 -0.0010257 -0.290375
-0.397369 0.0122519 -0.288522
-0.401644 0.0275541 -0.288414
-0.38815 0.00555069 -0.28685
-0.391906 0.0079367 -0.284573
-0.405725 0.0409004 -0.284944
-0.393347 -0.0217453 -0.281423
-0.391215 -0.011462 -0.283037
-0.388648 -0.00942549 -0.281455
-0.388918 0.0161399 -0.282842
-0.392381 -0.0315246 -0.278598
-0.400818 0.0430146 -0.280314
-0.381144 -0.00680413 -0.275866
-0.366174 -0.00724387 -0.267102
-0.363232 -0.00542417 -0.265359
-0.368067 0.0101327 -0.267322
-0.365435 -0.00933488 -0.263724
-0.361488 0.00511101 -0.262113
-0.363044 0.00877975 -0.263997
-0.360033 0.00887758 -0.261904
-0.367576 0.024976 -0.262666
-0.357904 -0.00313783 -0.260424
-0.356894 0.0079776 -0.260312
-0.364551 0.0274111 -0.25848
-0.371011 0.0376239 -0.258873
-0.355902 -0.011131 -0.257288
-0.3506 -0.0124408 -0.254234
-0.346745 0.00462996 -0.254014
-0.35621 0.0204987 -0.257385
-0.346809 -0.00965446 -0.253061
-0.344208 0.0064201 -0.253353
-0.351057 0.0276184 -0.250914
-0.370186 -0.0494691 -0.249417
-0.334101 -0.0085233 -0.246826
-0.340116 -0.00521757 -0.248886
-0.330628 -0.0094048 -0.243913
-0.344647 0.0392788 -0.243697
-0.332078 -0.0294883 -0.241747
-0.317143 0.00248242 -0.238631
-0.317762 0.00739849 -0.239665
-0.314814 0.00709046 -0.238443
-0.325423 0.0124516 -0.241526
-0.314449 -0.0226154 -0.23609
-0.353884 -0.0121413 -0.238031
-0.312705 0.00991675 -0.237378
-0.317693 0.0273537 -0.236322
-0.31197 -0.0274783 -0.233774
-0.306546 -0.0259752 -0.232082
-0.310069 -0.0234349 -0.233019
-0.301901 0.0059223 -0.233075
-0.300938 0.0140721 -0.232087
-0.30665 0.0193129 -0.23345
-0.32283 -0.0476277 -0.229774
-0.295218 -0.0182515 -0.229035
-0.294028 -0.0049336 -0.229954
-0.298991 0.00300295 -0.230948
-0.293123 0.00768958 -0.229261
-0.291684 0.0135611 -0.228277
-0.290323 0.016581 -0.227172
-0.312033 0.0420419 -0.228558
-0.293999 -0.0335612 -0.224565
-0.29221 -0.0287424 -0.22528
-0.2982 -0.0237606 -0.227972
-0.289503 -0.00198337 -0.227053
-0.287429 0.00467022 -0.22705
-0.288542 0.0105125 -0.227145
-0.292445 0.0206229 -0.226189
-0.294237 0.0240629 -0.227374
-0.294247 0.0316739 -0.225293
-0.305632 0.0388406 -0.227532
-0.282686 -0.0214538 -0.223203
-0.277766 -0.00330475 -0.223046
-0.274122 -0.00449357 -0.221564
-0.279012 -0.000638688 -0.223746
-0.281828 0.00376279 -0.223664
-0.281727 0.0188154 -0.222065
-0.277735 0.0227204 -0.22081
-0.290888 0.031518 -0.223915
-0.278228 -0.0264435 -0.22032
-0.270762 -0.00258178 -0.219135
-0.268021 0.00203143 -0.217944
-0.274283 0.0172771 -0.220283
-0.273537 -0.0328009 -0.21643
-0.274577 -0.0271939 -0.216767
-0.268163 -0.0192079 -0.216458
-0.263011 -0.00793629 -0.216737
-0.258698 -0.00923319 -0.214851
-0.259568 -0.0038108 -0.21546
-0.258048 0.000650271 -0.213782
-0.259878 0.00385546 -0.2155
-0.256328 0.00939355 -0.213755
-0.265244 0.0112568 -0.216325
-0.257612 0.0150583 -0.213676
-0.268567 0.024912 -0.215551
-0.27298 -0.0457566 -0.211298
-0.263938 -0.0300269 -0.212093
-0.256599 -0.0299792 -0.210334
-0.254181 -0.0262402 -0.210129
-0.257498 -0.0138844 -0.21273
-0.253075 -0.00402921 -0.212707
-0.248241 -0.00126749 -0.209704
-0.246984 0.00344251 -0.209246
-0.252617 0.00856802 -0.211156
-0.30357 -0.0657063 -0.208932
-0.247776 -0.0215693 -0.208492
-0.243971 -0.00347827 -0.207819
-0.24091 -0.000217618 -0.207633
-0.23856 0.00319413 -0.206508
-0.247726 0.00893602 -0.209078
-0.243575 0.0146753 -0.207793
-0.253236 0.027165 -0.208582
-0.241926 -0.0296298 -0.203325
-0.235644 -0.0144724 -0.203443
-0.238795 -0.00471611 -0.205566
-0.236629 -0.000640344 -0.205825
-0.233019 0.00277419 -0.20421
-0.232511 0.010758 -0.203686
-0.237352 0.0155671 -0.204955
-0.245058 0.0223226 -0.206246
-0.239099 0.0232081 -0.203656
-0.245648 0.033505 -0.204896
-0.244234 0.037556 -0.203203
-0.25153 0.0446162 -0.203382
-0.230768 -0.0176673 -0.202195
-0.228984 -0.0118745 -0.201955
-0.228241 -0.00880266 -0.201889
-0.230581 -0.00306638 -0.202224
-0.223994 0.000219139 -0.19933
-0.22757 0.0203782 -0.200337
-0.23151 0.0230667 -0.201619
-0.232847 0.026103 -0.201487
-0.240879 0.0306049 -0.202572
-0.253207 0.0480952 -0.202641
-0.220497 -0.0282533 -0.195738
-0.220129 -0.016153 -0.196703
-0.229083 -0.0111828 -0.198683
-0.224227 -0.0137123 -0.198665
-0.223134 -0.00787586 -0.198715
-0.218654 -0.00414257 -0.196744
-0.2187 0.000310734 -0.198206
-0.215036 0.00436816 -0.19659
-0.219835 0.0075541 -0.197453
-0.221698 0.012507 -0.197693
-0.226872 0.0244599 -0.199379
-0.235682 -0.0485598 -0.195506
-0.224427 -0.0387223 -0.194598
-0.219592 -0.0327426 -0.193294
-0.212882 -0.0197332 -0.19326
-0.209022 -0.0160599 -0.193073
-0.209888 -0.013121 -0.193759
-0.205915 -0.00764292 -0.19265
-0.20881 -0.00205976 -0.192919
-0.219772 0.00144667 -0.195073
-0.210494 0.00510862 -0.194653
-0.206599 0.00487237 -0.191954
-0.211038 -0.0391006 -0.189096
-0.210757 -0.0289386 -0.190463
-0.202912 -0.0244285 -0.189363
-0.199425 -0.00943755 -0.188692
-0.202082 -0.0033485 -0.190079
-0.198754 0.00653349 -0.189757
-0.198513 0.0117599 -0.189149
-0.202238 0.0201377 -0.189833
-0.20621 0.0227237 -0.191074
-0.208469 0.0301673 -0.190353
-0.205318 0.0302427 -0.189052
-0.217063 0.0398117 -0.191225
-0.197802 -0.0140265 -0.187199
-0.193977 -0.00840347 -0.187626
-0.196951 -0.00437553 -0.187878
-0.197773 0.00297958 -0.188208
-0.192443 0.000234606 -0.18601
-0.18806 0.000565083 -0.185274
-0.196286 0.00663052 -0.187179
-0.192031 0.00943141 -0.186629
-0.197818 0.0225498 -0.187578
-0.266085 -0.076759 -0.1858
-0.185333 -0.0268891 -0.18152
-0.189273 -0.0230401 -0.183941
-0.187064 -0.0186271 -0.182467
-0.184652 -0.00900853 -0.182583
-0.18081 -0.00368828 -0.18211
-0.186798 0.00655927 -0.184637
-0.187181 0.00953076 -0.184534
-0.181373 0.00923344 -0.182136
-0.192332 0.0143473 -0.185205
-0.183848 0.0158744 -0.182578
-0.18941 0.0283333 -0.182851
-0.237973 -0.0729472 -0.179634
-0.187395 -0.0314006 -0.180228
-0.184793 -0.0227443 -0.18061
-0.176031 -0.0177327 -0.179131
-0.180646 -0.0148785 -0.180265
-0.178682 -0.0114778 -0.180943
-0.176032 -0.00929748 -0.180022
-0.190429 -0.00465354 -0.182055
-0.174762 -0.00662141 -0.179512
-0.17167 -0.00492918 -0.178288
-0.172615 0.0053433 -0.178745
-0.174749 0.0150655 -0.178823
-0.175082 0.0188363 -0.178646
-0.171787 -0.00943226 -0.17712
-0.172382 -0.00106074 -0.177556
-0.168189 -0.00338989 -0.176877
-0.168911 -0.000942699 -0.174989
-0.169631 0.00190314 -0.177413
-0.170872 0.00865755 -0.177724
-0.164312 0.0108765 -0.174809
-0.173807 0.0181451 -0.1756
-0.191377 0.0198002 -0.180622
-0.18222 0.0387311 -0.177337
-0.175968 0.036352 -0.174409
-0.162875 -0.0188621 -0.172558
-0.154782 -0.0133833 -0.170768
-0.166629 -0.0101971 -0.172566
-0.15863 -0.00830503 -0.172725
-0.156503 -0.00976515 -0.171201
-0.157669 0.000545629 -0.172415
-0.170754 0.0062713 -0.173444
-0.161198 0.00953794 -0.172555
-0.164154 0.0166606 -0.173836
-0.164899 0.0207863 -0.172985
-0.174669 0.0278112 -0.173771
-0.15616 -0.0302392 -0.168733
-0.160793 -0.0133587 -0.169839
-0.152444 -0.00976311 -0.169995
-0.148468 -0.00957285 -0.167258
-0.159446 -0.00533885 -0.168276
-0.154887 -0.00191873 -0.169422
-0.167207 0.00751864 -0.16945
-0.152115 0.00748637 -0.168938
-0.154577 0.0125752 -0.169547
-0.1509 0.0191297 -0.168367
-0.154997 0.0318128 -0.167872
-0.158067 0.0338238 -0.168757
-0.145056 -0.0209213 -0.165804
-0.145594 -0.0169587 -0.165406
-0.138969 -0.00787872 -0.164426
-0.150629 -0.00542791 -0.163638
-0.141445 -0.00666036 -0.16558
-0.137125 -0.00296084 -0.163831
-0.14518 0.00508375 -0.164545
-0.146656 0.0167088 -0.166844
-0.140629 0.0162411 -0.164433
-0.143701 0.0194589 -0.164239
-0.142965 -0.0320987 -0.162895
-0.14106 -0.0298985 -0.160523
-0.140289 -0.0237129 -0.163365
-0.137064 -0.0235038 -0.160949
-0.132314 -0.0197314 -0.160566
-0.13541 -0.0182578 -0.162104
-0.135006 -0.0123364 -0.161407
-0.173636 -0.00814338 -0.164452
-0.133113 -0.00809291 -0.16189
-0.145409 -0.0054039 -0.161
-0.132774 -0.00462067 -0.161954
-0.141603 -0.00328302 -0.162706
-0.131708 -0.00187607 -0.160381
-0.133104 0.0018976 -0.16094
-0.137504 0.00342584 -0.162844
-0.130088 0.00897622 -0.160493
-0.134842 0.013871 -0.162305
-0.136912 0.0187485 -0.162521
-0.132924 -0.0396969 -0.156888
-0.132462 -0.024454 -0.159833
-0.131042 -0.00497666 -0.159578
-0.127633 -0.00200887 -0.159562
-0.169933 0.003891 -0.161704
-0.124611 0.00211106 -0.157518
-0.132462 0.00691834 -0.159664
-0.12787 0.00513645 -0.159785
-0.120868 0.00451417 -0.156739
-0.129199 0.0117971 -0.159608
-0.131833 0.0148781 -0.159851
-0.123059 0.0189112 -0.156797
-0.13453 0.0224344 -0.159913
-0.215544 -0.0904373 -0.154882
-0.137389 -0.0273095 -0.158448
-0.123449 -0.0267628 -0.155849
-0.121566 -0.0221564 -0.154616
-0.114628 -0.016511 -0.153576
-0.123411 -0.013979 -0.156708
-0.120965 -0.00620839 -0.155882
-0.15168 0.00118953 -0.154228
-0.118938 -0.000821786 -0.156158
-0.115131 0.00173623 -0.154123
-0.119889 0.0121187 -0.156078
-0.123645 0.0332344 -0.153465
-0.127377 -0.0515935 -0.150875
-0.130435 -0.0496632 -0.152723
-0.122327 -0.0471548 -0.150189
-0.12931 -0.0408387 -0.152058
-0.111211 -0.0163612 -0.151065
-0.113129 -0.0112096 -0.152228
-0.106446 -0.011977 -0.150376
-0.105429 -0.00511794 -0.149377
-0.107364 -0.000820517 -0.15125
-0.116012 0.000538724 -0.151075
-0.117073 0.00531681 -0.148674
-0.111208 0.0134462 -0.149882
-0.10724 0.0182248 -0.150294
-0.121292 0.0440024 -0.150603
[...]
POINT_DATA 664
VECTORS i float
0.0 0.0 0.0
0.0 0.0 0.0
0.0 0.0 0.0
0.0 0.0 0.0
0.0 0.0 0.0
0.0 0.0 0.0
0.0 0.0 0.0
0.0 0.0 0.0
0.0 0.0 0.0
0.0 0.0 0.0
0.0 0.0 0.0
0.0 0.0 0.0
0.0 0.0 0.0
0.0 0.0 0.0
0.0 0.0 0.0
0.0 0.0 0.0
0.0 0.0 0.0
0.0 0.0 0.0
0.0 0.0 0.0
0.0 0.0 0.0
0.0 0.0 0.0
0.0 0.0 0.0
0.0 0.0 0.0
0.0 0.0 0.0
0.0 0.0 0.0
0.0 0.0 0.0
0.0 0.0 0.0
0.0 0.0 0.0
0.0 0.0 0.0
0.0 0.0 0.0
0.0 0.0 0.0
0.0 0.0 0.0
0.0 0.0 0.0
0.0 0.0 0.0
0.0 0.0 0.0
0.0 0.0 0.0
0.0 0.0 0.0
0.0 0.0 0.0
0.0 0.0 0.0
0.0 0.0 0.0
0.0 0.0 0.0
0.0 0.0 0.0
0.0 0.0 0.0
0.0 0.0 0.0
0.0 0.0 0.0
0.0 0.0 0.0
0.0 0.0 0.0
0.0 0.0 0.0
0.0 0.0 0.0
0.0 0.0 0.0
0.0 0.0 0.0
0.0 0.0 0.0
0.0 0.0 0.0
0.0 0.0 0.0
0.0 0.0 0.0
0.0 0.0 0.0
0.0 0.0 0.0
0.0 0.0 0.0
0.0 0.0 0.0
0.0 0.0 0.0
0.0 0.0 0.0
0.0 0.0 0.0
0.0 0.0 0.0
0.0 0.0 0.0
0.0 0.0 0.0
0.0 0.0 0.0
0.0 0.0 0.0
0.0 0.0 0.0
0.0 0.0 0.0
0.0 0.0 0.0
0.0 0.0 0.0
0.0 0.0 0.0
0.0 0.0 0.0
0.0 0.0 0.0
0.0 0.0 0.0
0.0 0.0 0.0
0.0 0.0 0.0
0.0 0.0 0.0
0.0 0.0 0.0
0.0 0.0 0.0
0.0 0.0 0.0
0.0 0.0 0.0
0.0 0.0 0.0
0.0 0.0 0.0
0.0 0.0 0.0
0.0 0.0 0.0
0.0 0.0 0.0
0.0 0.0 0.0
0.0 0.0 0.0
0.0 0.0 0.0
0.0 0.0 0.0
0.0 0.0 0.0
0.0 0.0 0.0
0.0 0.0 0.0
0.0 0.0 0.0
0.0 0.0 0.0
0.0 0.0 0.0
0.0 0.0 0.0
0.0 0.0 0.0
0.0 0.0 0.0
0.0 0.0 0.0
0.0 0.0 0.0
0.0 0.0 0.0
0.0 0.0 0.0
0.0 0.0 0.0
0.0 0.0 0.0
0.0 0.0 0.0
0.0 0.0 0.0
0.0 0.0 0.0
0.0 0.0 0.0
0.0 0.0 0.0
0.0 0.0 0.0
0.0 0.0 0.0
0.0 0.0 0.0
0.0 0.0 0.0
0.0 0.0 0.0
0.0 0.0 0.0
0.0 0.0 0.0
0.0 0.0 0.0
0.0 0.0 0.0
0.0 0.0 0.0
0.0 0.0 0.0
0.0 0.0 0.0
0.0 0.0 0.0
0.0 0.0 0.0
0.0 0.0 0.0
0.0 0.0 0.0
0.0 0.0 0.0
0.0 0.0 0.0
0.0 0.0 0.0
0.0 0.0 0.0
0.0 0.0 0.0
0.0 0.0 0.0
0.0 0.0 0.0
0.0 0.0 0.0
0.0 0.0 0.0
0.0 0.0 0.0
0.0 0.0 0.0
0.0 0.0 0.0
0.0 0.0 0.0
0.0 0.0 0.0
0.0 0.0 0.0
0.0 0.0 0.0
0.0 0.0 0.0
0.0 0.0 0.0
0.0 0.0 0.0
0.0 0.0 0.0
0.0 0.0 0.0
0.0 0.0 0.0
0.0 0.0 0.0
0.0 0.0 0.0
0.0 0.0 0.0
0.0 0.0 0.0
0.0 0.0 0.0
0.0 0.0 0.0
0.0 0.0 0.0
0.0 0.0 0.0
0.0 0.0 0.0
0.0 0.0 0.0
0.0 0.0 0.0
0.0 0.0 0.0
0.0 0.0 0.0
0.0 0.0 0.0
0.0 0.0 0.0
0.0 0.0 0.0
0.0 0.0 0.0
0.0 0.0 0.0
0.0 0.0 0.0
0.0 0.0 0.0
0.0 0.0 0.0
0.0 0.0 0.0
0.0 0.0 0.0
0.0 0.0 0.0
0.0 0.0 0.0
0.0 0.0 0.0
0.0 0.0 0.0
0.0 0.0 0.0
0.0 0.0 0.0
0.0 0.0 0.0
0.0 0.0 0.0
0.0 0.0 0.0
0.0 0.0 0.0
0.0 0.0 0.0
0.0 0.0 0.0
0.0 0.0 0.0
0.0 0.0 0.0
0.0 0.0 0.0
0.0 0.0 0.0
0.0 0.0 0.0
0.0 0.0 0.0
0.0 0.0 0.0
0.0 0.0 0.0
0.0 0.0 0.0
0.0 0.0 0.0
0.0 0.0 0.0
0.0 0.0 0.0
0.0 0.0 0.0
0.0 0.0 0.0
0.0 0.0 0.0
0.0 0.0 0.0
0.0 0.0 0.0
0.0 0.0 0.0
0.0 0.0 0.0
0.0 0.0 0.0
0.0 0.0 0.0
0.0 0.0 0.0
0.0 0.0 0.0
0.0 0.0 0.0
0.0 0.0 0.0
0.0 0.0 0.0
0.0 0.0 0.0
0.0 0.0 0.0
0.0 0.0 0.0
0.0 0.0 0.0
0.0 0.0 0.0
0.0 0.0 0.0
0.0 0.0 0.0
0.0 0.0 0.0
0.0 0.0 0.0
0.0 0.0 0.0
0.0 0.0 0.0
0.0 0.0 0.0
0.0 0.0 0.0
0.0 0.0 0.0
0.0 0.0 0.0
0.0 0.0 0.0
0.0 0.0 0.0
0.0 0.0 0.0
0.0 0.0 0.0
0.0 0.0 0.0
0.0 0.0 0.0
0.0 0.0 0.0
0.0 0.0 0.0
0.0 0.0 0.0
0.0 0.0 0.0
0.0 0.0 0.0
0.0 0.0 0.0
0.0 0.0 0.0
0.0 0.0 0.0
0.0 0.0 0.0
0.0 0.0 0.0
0.0 0.0 0.0
0.0 0.0 0.0
0.0 0.0 0.0
0.0 0.0 0.0
0.0 0.0 0.0
0.0 0.0 0.0
0.0 0.0 0.0
0.0 0.0 0.0
0.0 0.0 0.0
0.0 0.0 0.0
0.0 0.0 0.0
0.0 0.0 0.0
0.0 0.0 0.0
0.0 0.0 0.0
0.0 0.0 0.0
0.0 0.0 0.0
0.0 0.0 0.0
0.0 0.0 0.0
0.0 0.0 0.0
0.0 0.0 0.0
0.0 0.0 0.0
0.0 0.0 0.0
0.0 0.0 0.0
0.0 0.0 0.0
0.0 0.0 0.0
0.0 0.0 0.0
0.0 0.0 0.0
0.0 0.0 0.0
0.0 0.0 0.0
0.0 0.0 0.0
0.0 0.0 0.0
0.0 0.0 0.0
0.0 0.0 0.0
0.0 0.0 0.0
0.0 0.0 0.0
0.0 0.0 0.0
0.0 0.0 0.0
0.0 0.0 0.0
0.0 0.0 0.0
0.0 0.0 0.0
0.0 0.0 0.0
0.0 0.0 0.0
0.0 0.0 0.0
0.0 0.0 0.0
0.0 0.0 0.0
0.0 0.0 0.0
0.0 0.0 0.0
0.0 0.0 0.0
0.0 0.0 0.0
0.0 0.0 0.0
0.0 0.0 0.0
0.0 0.0 0.0
0.0 0.0 0.0
0.0 0.0 0.0
0.0 0.0 0.0
0.0 0.0 0.0
0.0 0.0 0.0
0.0 0.0 0.0
0.0 0.0 0.0
0.0 0.0 0.0
0.0 0.0 0.0
0.0 0.0 0.0
0.0 0.0 0.0
0.0 0.0 0.0
0.0 0.0 0.0
0.0 0.0 0.0
0.0 0.0 0.0
0.0 0.0 0.0
0.0 0.0 0.0
0.0 0.0 0.0
0.0 0.0 0.0
0.0 0.0 0.0
0.0 0.0 0.0
0.0 0.0 0.0
0.0 0.0 0.0
0.0 0.0 0.0
0.0 0.0 0.0
0.0 0.0 0.0
0.0 0.0 0.0
0.0 0.0 0.0
0.0 0.0 0.0
0.0 0.0 0.0
0.0 0.0 0.0
0.0 0.0 0.0
0.0 0.0 0.0
0.0 0.0 0.0
0.0 0.0 0.0
0.0 0.0 0.0
0.0 0.0 0.0
0.0 0.0 0.0
0.0 0.0 0.0
0.0 0.0 0.0
0.0 0.0 0.0
0.0 0.0 0.0
0.0 0.0 0.0
0.0 0.0 0.0
0.0 0.0 0.0
0.0 0.0 0.0
0.0 0.0 0.0
0.0 0.0 0.0
0.0 0.0 0.0
0.0 0.0 0.0
0.0 0.0 0.0
0.0 0.0 0.0
0.0 0.0 0.0
0.0 0.0 0.0
0.0 0.0 0.0
0.0 0.0 0.0
0.0 0.0 0.0
0.0 0.0 0.0
0.0 0.0 0.0
0.0 0.0 0.0
0.0 0.0 0.0
0.0 0.0 0.0
0.0 0.0 0.0
0.0 0.0 0.0
0.0 0.0 0.0
0.0 0.0 0.0
0.0 0.0 0.0
0.0 0.0 0.0
0.0 0.0 0.0
0.0 0.0 0.0
0.0 0.0 0.0
0.0 0.0 0.0
0.0 0.0 0.0
0.0 0.0 0.0
0.0 0.0 0.0
0.0 0.0 0.0
0.0 0.0 0.0
0.0 0.0 0.0
0.0 0.0 0.0
0.0 0.0 0.0
0.0 0.0 0.0
0.0 0.0 0.0
0.0 0.0 0.0
0.0 0.0 0.0
0.0 0.0 0.0
0.0 0.0 0.0
0.0 0.0 0.0
0.0 0.0 0.0
0.0 0.0 0.0
0.0 0.0 0.0
0.0 0.0 0.0
0.0 0.0 0.0
0.0 0.0 0.0
0.0 0.0 0.0
0.0 0.0 0.0
0.0 0.0 0.0
0.0 0.0 0.0
0.0 0.0 0.0
0.0 0.0 0.0
0.0 0.0 0.0
0.0 0.0 0.0
0.0 0.0 0.0
0.0 0.0 0.0
0.0 0.0 0.0
0.0 0.0 0.0
0.0 0.0 0.0
0.0 0.0 0.0
0.0 0.0 0.0
0.0 0.0 0.0
0.0 0.0 0.0
0.0 0.0 0.0
0.0 0.0 0.0
0.0 0.0 0.0
0.0 0.0 0.0
0.0 0.0 0.0
0.0 0.0 0.0
0.0 0.0 0.0
0.0 0.0 0.0
0.0 0.0 0.0
0.0 0.0 0.0
0.0 0.0 0.0
0.0 0.0 0.0
0.0 0.0 0.0
0.0 0.0 0.0
0.0 0.0 0.0
0.0 0.0 0.0
0.0 0.0 0.0
0.0 0.0 0.0
0.0 0.0 0.0
0.0 0.0 0.0
0.0 0.0 0.0
0.0 0.0 0.0
0.0 0.0 0.0
0.0 0.0 0.0
0.0 0.0 0.0
0.0 0.0 0.0
0.0 0.0 0.0
0.0 0.0 0.0
0.0 0.0 0.0
0.0 0.0 0.0
0.0 0.0 0.0
0.0 0.0 0.0
0.0 0.0 0.0
0.0 0.0 0.0
0.0 0.0 0.0
0.0 0.0 0.0
0.0 0.0 0.0
0.0 0.0 0.0
0.0 0.0 0.0
0.0 0.0 0.0
0.0 0.0 0.0
0.0 0.0 0.0
0.0 0.0 0.0
0.0 0.0 0.0
0.0 0.0 0.0
0.0 0.0 0.0
0.0 0.0 0.0
0.0 0.0 0.0
0.0 0.0 0.0
0.0 0.0 0.0
0.0 0.0 0.0
0.0 0.0 0.0
0.0 0.0 0.0
0.0 0.0 0.0
0.0 0.0 0.0
0.0 0.0 0.0
0.0 0.0 0.0
0.0 0.0 0.0
0.0 0.0 0.0
0.0 0.0 0.0
0.0 0.0 0.0
0.0 0.0 0.0
0.0 0.0 0.0
0.0 0.0 0.0
0.0 0.0 0.0
0.0 0.0 0.0
0.0 0.0 0.0
0.0 0.0 0.0
0.0 0.0 0.0
0.0 0.0 0.0
0.0 0.0 0.0
0.0 0.0 0.0
0.0 0.0 0.0
0.0 0.0 0.0
0.0 0.0 0.0
0.0 0.0 0.0
0.0 0.0 0.0
0.0 0.0 0.0
0.0 0.0 0.0
0.0 0.0 0.0
0.0 0.0 0.0
0.0 0.0 0.0
0.0 0.0 0.0
0.0 0.0 0.0
0.0 0.0 0.0
0.0 0.0 0.0
0.0 0.0 0.0
0.0 0.0 0.0
0.0 0.0 0.0
0.0 0.0 0.0
0.0 0.0 0.0
0.0 0.0 0.0
0.0 0.0 0.0
0.0 0.0 0.0
0.0 0.0 0.0
0.0 0.0 0.0
0.0 0.0 0.0
0.0 0.0 0.0
0.0 0.0 0.0
0.0 0.0 0.0
0.0 0.0 0.0
0.0 0.0 0.0
0.0 0.0 0.0
0.0 0.0 0.0
0.0 0.0 0.0
0.0 0.0 0.0
0.0 0.0 0.0
0.0 0.0 0.0
0.0 0.0 0.0
0.0 0.0 0.0
0.0 0.0 0.0
0.0 0.0 0.0
0.0 0.0 0.0
0.0 0.0 0.0
0.0 0.0 0.0
0.0 0.0 0.0
0.0 0.0 0.0
0.0 0.0 0.0
0.0 0.0 0.0
0.0 0.0 0.0
0.0 0.0 0.0
0.0 0.0 0.0
0.0 0.0 0.0
0.0 0.0 0.0
0.0 0.0 0.0
0.0 0.0 0.0
0.0 0.0 0.0
0.0 0.0 0.0
0.0 0.0 0.0
0.0 0.0 0.0
0.0 0.0 0.0
0.0 0.0 0.0
0.0 0.0 0.0
0.0 0.0 0.0
0.0 0.0 0.0
0.0 0.0 0.0
0.0 0.0 0.0
0.0 0.0 0.0
0.0 0.0 0.0
0.0 0.0 0.0
0.0 0.0 0.0
0.0 0.0 0.0
0.0 0.0 0.0
0.0 0.0 0.0
0.0 0.0 0.0
0.0 0.0 0.0
0.0 0.0 0.0
0.0 0.0 0.0
0.0 0.0 0.0
0.0 0.0 0.0
0.0 0.0 0.0
0.0 0.0 0.0
0.0 0.0 0.0
0.0 0.0 0.0
0.0 0.0 0.0
0.0 0.0 0.0
0.0 0.0 0.0
0.0 0.0 0.0
0.0 0.0 0.0
0.0 0.0 0.0
0.0 0.0 0.0
0.0 0.0 0.0
0.0 0.0 0.0
0.0 0.0 0.0
0.0 0.0 0.0
0.0 0.0 0.0
0.0 0.0 0.0
0.0 0.0 0.0
0.0 0.0 0.0
0.0 0.0 0.0
0.0 0.0 0.0
0.0 0.0 0.0
0.0 0.0 0.0
0.0 0.0 0.0
0.0 0.0 0.0
0.0 0.0 0.0
0.0 0.0 0.0
0.0 0.0 0.0
0.0 0.0 0.0
0.0 0.0 0.0
0.0 0.0 0.0
0.0 0.0 0.0
0.0 0.0 0.0
0.0 0.0 0.0
0.0 0.0 0.0
0.0 0.0 0.0
0.0 0.0 0.0
0.0 0.0 0.0
0.0 0.0 0.0
0.0 0.0 0.0
0.0 0.0 0.0
0.0 0.0 0.0
0.0 0.0 0.0
0.0 0.0 0.0
0.0 0.0 0.0
0.0 0.0 0.0
0.0 0.0 0.0
0.0 0.0 0.0
0.0 0.0 0.0
0.0 0.0 0.0
0.0 0.0 0.0
0.0 0.0 0.0
0.0 0.0 0.0
0.0 0.0 0.0
0.0 0.0 0.0
0.0 0.0 0.0
0.0 0.0 0.0
0.0 0.0 0.0
0.0 0.0 0.0
0.0 0.0 0.0
0.0 0.0 0.0
0.0 0.0 0.0
0.0 0.0 0.0
0.0 0.0 0.0
0.0 0.0 0.0
0.0 0.0 0.0
0.0 0.0 0.0
0.0 0.0 0.0
0.0 0.0 0.0
0.0 0.0 0.0
0.0 0.0 0.0
0.0 0.0 0.0
0.0 0.0 0.0
0.0 0.0 0.0
0.0 0.0 0.0
0.0 0.0 0.0
0.0 0.0 0.0
0.0 0.0 0.0
0.0 0.0 0.0
0.0 0.0 0.0
0.0 0.0 0.0
0.0 0.0 0.0
0.0 0.0 0.0
0.0 0.0 0.0
0.0 0.0 0.0
0.0 0.0 0.0
0.0 0.0 0.0
0.0 0.0 0.0
0.0 0.0 0.0
0.0 0.0 0.0
0.0 0.0 0.0
0.0 0.0 0.0
0.0 0.0 0.0
0.0 0.0 0.0
0.0 0.0 0.0
0.0 0.0 0.0
0.0 0.0 0.0
0.0 0.0 0.0
0.0 0.0 0.0
0.0 0.0 0.0
0.0 0.0 0.0
0.0 0.0 0.0
0.0 0.0 0.0
0.0 0.0 0.0
0.0 0.0 0.0
0.0 0.0 0.0
0.0 0.0 0.0
0.0 0.0 0.0
0.0 0.0 0.0
0.0 0.0 0.0
0.0 0.0 0.0
VECTORS f float
0.0 0.0 -0.000346714
0.0 0.0 -0.00160516
0.0 0.0 -0.000346714
0.0 0.0 -0.000346714
0.0 0.0 -0.000346714
0.0 0.0 -0.00160516
0.0 0.0 -0.00160516
0.0 0.0 -0.000346714
0.0 0.0 -0.000346714
0.0 0.0 -0.000346714
0.0 0.0 -0.000346714
0.0 0.0 -0.000346714
0.0 0.0 -0.000346714
0.0 0.0 -0.000346714
0.0 0.0 -0.000346714
0.0 0.0 -0.00160516
0.0 0.0 -0.00160516
0.0 0.0 -0.000346714
0.0 0.0 -0.000346714
0.0 0.0 -0.000346714
0.0 0.0 -0.00160516
0.0 0.0 -0.000346714
0.0 0.0 -0.00160516
0.0 0.0 -0.000346714
0.0 0.0 -0.000346714
0.0 0.0 -0.000346714
0.0 0.0 -0.000346714
0.0 0.0 -0.00160516
0.0 0.0 -0.000346714
0.0 0.0 -0.000346714
0.0 0.0 -0.000346714
0.0 0.0 -0.000346714
0.0 0.0 -0.000346714
0.0 0.0 -0.00160516
0.0 0.0 -0.000346714
0.0 0.0 -0.000346714
0.0 0.0 -0.000346714
0.0 0.0 -0.00160516
0.0 0.0 -0.00160516
0.0 0.0 -0.000346714
0.0 0.0 -0.000346714
0.0 0.0 -0.00160516
0.0 0.0 -0.000346714
0.0 0.0 -0.000346714
0.0 0.0 -0.00160516
0.0 0.0 -0.000346714
0.0 0.0 -0.00160516
0.0 0.0 -0.00160516
0.0 0.0 -0.000346714
0.0 0.0 -0.000346714
0.0 0.0 -0.000346714
0.0 0.0 -0.000346714
0.0 0.0 -0.00160516
0.0 0.0 -0.000346714
0.0 0.0 -0.000346714
0.0 0.0 -0.00160516
0.0 0.0 -0.00160516
0.0 0.0 -0.000346714
0.0 0.0 -0.000346714
-0.000405737 -6.08461e-05 -0.000189241
-7.58353e-05 -1.12858e-05 -6.76578e-05
-1.64187e-05 -1.03879e-06 -0.000231783
0.0 0.0 -0.00160516
0.0 0.0 -0.000346714
0.0 0.0 -0.00160516
-8.4076e-05 -1.26209e-05 -4.58505e-05
-7.81711e-05 -6.60248e-05 -5.51029e-05
-7.13524e-05 5.05633e-05 -6.36862e-05
-0.000316011 0.000208596 -0.000196117
0.0 0.0 -0.00160516
-8.63094e-05 -1.29615e-05 -4.29431e-05
-8.6293e-05 -4.00147e-05 -4.33971e-05
-8.27931e-05 -3.84854e-05 -4.92246e-05
0.0 0.0 -0.000346714
-8.5475e-05 3.85623e-05 -4.27944e-05
0.000221667 9.75432e-05 0.0030693
-0.0004086 -6.14573e-05 -0.000176839
-8.81976e-05 -1.34042e-05 -3.86325e-05
-8.69232e-05 -1.32039e-05 -4.16469e-05
0.0 0.0 -0.000346714
-6.88501e-05 -8.6375e-05 -7.7224e-05
0.0 0.0 -0.000346714
0.0 0.0 -0.000346714
-0.000341885 0.000190246 -0.00025061
-0.00041788 3.42553e-05 -0.000146171
-6.89823e-05 -8.19114e-06 -0.000104818
-9.88278e-05 -1.51139e-05 -1.05923e-05
-0.000370817 -0.000170672 -0.000216641
-8.39665e-05 -3.82849e-05 -4.15944e-05
0.0 0.0 -0.000346714
-7.68443e-05 -6.42427e-05 -5.53021e-05
-0.000100337 4.52236e-05 3.65117e-06
0.0 0.0 -0.000346714
-0.00010531 8.3603e-06 -1.61554e-07
0.0 0.0 -0.000346714
-0.000527508 -7.9825e-05 6.4204e-05
-0.00058915 -0.000226504 -0.000152107
-8.47647e-05 -3.36661e-05 -4.01025e-05
0.0 0.0 -0.000346714
5.05006e-05 0.000102369 0.00039466
-0.000262439 2.09608e-05 -0.000621288
0.0 0.0 -0.00160516
-8.44016e-05 -3.38995e-05 -3.69413e-05
0.0 0.0 -0.000346714
0.0 0.0 -0.00160516
0.0 0.0 -0.00160516
-8.88289e-05 9.25868e-06 -3.82488e-05
-7.24294e-05 7.26986e-06 -8.27566e-05
-0.000381545 -4.76961e-05 0.000397408
0.0 0.0 -0.00160516
1.68268e-05 -6.7972e-06 -7.37249e-05
-8.1887e-05 -8.67029e-06 -4.86751e-05
-0.000366842 -4.35628e-05 -0.000246923
-8.8068e-05 -3.15473e-05 -4.10725e-05
0.000899724 0.000750385 -0.00395545
0.0 0.0 -0.000346714
0.0 0.0 -0.00160516
0.0 0.0 -0.000346714
0.0 0.0 -0.000346714
0.0 0.0 -0.00160516
2.95997e-05 4.47978e-06 -0.00037346
-0.000511146 -4.7636e-05 -1.62246e-05
0.0 0.0 -0.000346714
-0.00122672 -0.000179922 0.00127985
0.0 0.0 -0.000346714
0.0 0.0 -0.000346714
-0.000325178 3.74702e-05 -0.000399406
-8.72881e-05 -7.41103e-06 -4.28279e-05
1.73707e-05 6.02018e-09 -0.00031372
-0.000396527 -3.66054e-05 -0.000209476
0.0 0.0 -0.000346714
-0.000374878 -0.000234328 -0.000309533
0.0 0.0 -0.00160516
0.0 0.0 -0.00160516
0.0 0.0 -0.00160516
2.79164e-05 -1.70445e-06 -0.000375575
2.12937e-05 -1.24842e-05 -3.85617e-05
-8.09839e-06 3.7713e-07 -0.000279786
0.0 0.0 -0.000346714
-0.00039282 -0.000135078 -0.000195066
-0.000426287 -0.000147399 -0.000109229
-8.30508e-05 -5.37833e-05 -4.38401e-05
-4.80683e-06 2.23805e-06 -0.000260763
-6.67709e-06 1.78544e-06 -0.000291305
-8.88195e-05 1.87592e-05 -4.00997e-05
-8.87821e-05 1.87739e-05 -3.99052e-05
2.4384e-05 -1.49549e-05 7.28493e-05
-0.000994609 0.000181993 0.000534172
0.000108159 2.3224e-05 -0.00169462
-8.60765e-05 -2.70184e-05 -3.96545e-05
-0.000119322 -3.70254e-05 2.43652e-05
-0.000133764 -8.22387e-05 2.21336e-05
-0.000915384 -0.00062618 0.00217625
-6.57003e-05 -6.58188e-05 -8.59199e-05
-8.36912e-05 4.47186e-05 -4.24221e-05
-0.000361757 8.2553e-05 -0.000226391
0.0 0.0 -0.000346714
-0.0011488 0.000264842 0.00194255
0.0 0.0 -0.00160516
0.0 0.0 -0.000346714
0.000386309 -0.000216655 0.00392394
-0.000102893 -2.79201e-06 -5.86758e-06
-0.00053204 -5.28329e-05 -0.000179934
0.0 0.0 -0.00160516
3.53562e-05 3.48751e-05 -0.000405164
0.0 0.0 -0.000346714
-0.000439418 0.000423977 0.000975342
-0.000655611 0.000257518 0.000246422
-0.000427292 0.000103273 -0.000164359
0.0 0.0 -0.000346714
2.26011e-05 9.28104e-06 6.91815e-05
-8.66476e-05 2.19844e-05 -3.81555e-05
-0.000437659 -7.10928e-06 -0.000121389
0.0 0.0 -0.000346714
-8.77762e-05 -1.39194e-06 -3.65168e-05
-0.000420562 -6.69803e-06 -0.000134168
-7.42783e-05 6.93593e-05 -5.58321e-05
-0.00145339 0.000820471 0.00229155
-8.25451e-05 4.73832e-05 -4.46363e-05
-0.000109125 -0.000424957 0.000216695
-0.000415391 1.72844e-06 -0.000175582
0.00160932 -0.00199618 -0.00163181
-0.000116061 -2.83245e-05 2.11002e-05
-8.66829e-05 -2.14423e-05 -3.8052e-05
0.0 0.0 -0.000346714
-8.36227e-05 -4.52782e-05 -4.25618e-05
-8.31877e-05 -4.50509e-05 -4.32543e-05
0.0 0.0 -0.000346714
0.0 0.0 -0.00160516
0.0 0.0 -0.000346714
-0.000650508 -2.67038e-07 0.000383285
-0.000678092 0.0013293 -0.00157236
-0.000381557 5.85811e-06 -0.000246235
-0.000485056 2.57154e-06 0.000987984
0.0 0.0 -0.000346714
-8.93251e-05 -1.97228e-05 -3.81499e-05
-8.69916e-05 -4.37075e-05 -4.21462e-05
0.0 0.0 -0.000346714
-9.32342e-05 5.10056e-05 -3.05704e-05
-8.62751e-05 2.48423e-05 -3.85594e-05
-0.000403343 0.000116071 -0.00017045
-0.000420879 1.48096e-05 -0.000165584
-8.81818e-05 3.96274e-06 -3.69515e-05
0.000315356 -0.000683326 -0.000657779
-0.000315356 0.000683326 -3.56491e-05
-8.85859e-05 -1.77456e-05 -3.91619e-05
-0.000394121 -8.33559e-05 -0.000267579
-8.72529e-05 -1.87246e-05 -3.93462e-05
-0.0001001 -4.93268e-05 -1.23113e-05
0.0 0.0 -0.00160516
0.0 0.0 -0.00160516
0.0 0.0 -0.00160516
-8.80917e-05 2.59046e-05 -3.21758e-05
-0.00539071 -0.00833661 -0.00194689
0.00559655 0.0086596 0.00272825
2.46442e-05 -7.15242e-05 -0.000420186
0.0 0.0 -0.00160516
0.0 0.0 -0.000346714
-5.94067e-05 -5.7435e-05 -7.22158e-05
-8.79637e-05 -1.7639e-05 -4.01813e-05
1.96955e-05 2.16794e-05 9.69398e-05
-8.74735e-05 -1.71981e-05 -3.79563e-05
-0.000390795 7.61714e-05 -0.000237924
1.45498e-06 9.95721e-05 -0.00123751
-9.25281e-05 3.16706e-06 -2.22545e-05
0.0 0.0 -0.000346714
0.0 0.0 -0.000346714
-8.35018e-05 -1.64097e-05 -4.70498e-05
0.0 0.0 -0.000346714
0.0 0.0 -0.000346714
0.0 0.0 -0.000346714
-4.73066e-05 -3.40418e-05 -0.000223577
-0.000371444 -0.000292229 -0.000246996
0.0 0.0 -0.000346714
-6.72067e-05 1.2063e-05 -8.57222e-05
0.0 0.0 -0.000346714
-0.000337034 0.000378156 -0.000671721
0.000340638 -0.000450124 0.000418008
-8.71087e-05 -2.53934e-06 -3.5874e-05
0.0 0.0 -0.00160516
0.0 0.0 -0.00160516
0.0 0.0 -0.000346714
-0.000120095 -3.99275e-05 -0.000881379
0.0 0.0 -0.000346714
-7.84686e-05 4.22063e-05 -5.01217e-05
0.0 0.0 -0.000346714
0.000120808 3.7711e-05 0.000130478
-0.000401057 4.79657e-05 -0.000179101
0.0 0.0 -0.00160516
0.0 0.0 -0.000346714
0.0 0.0 -0.00160516
8.96956e-05 -7.7358e-05 4.15297e-05
-0.000838599 -0.000296805 0.00383779
0.0 0.0 -0.000346714
-8.39276e-05 -3.79572e-05 -6.14012e-05
-8.2971e-05 -3.81664e-05 -4.57999e-05
0.0 0.0 -0.000346714
0.000107695 0.000114736 0.000173665
0.00118564 -0.00088149 0.00129015
0.0 0.0 -0.00160516
-0.000569952 -0.00294615 0.0226696
2.60391e-05 -2.64917e-05 0.000151862
0.0 0.0 -0.000346714
-7.58359e-05 -2.05087e-05 -6.6868e-05
-4.70395e-07 1.24818e-06 -0.00026669
-6.71586e-05 -6.18421e-06 -0.00110081
0.0 0.0 -0.000346714
0.0 0.0 -0.000346714
-8.80436e-06 2.73266e-06 -0.000226893
-0.000402976 0.000139442 -0.000199182
0.0 0.0 -0.000346714
-6.63338e-05 1.43747e-05 -9.09877e-05
-0.000238433 4.93147e-05 -0.000627791
0.0 0.0 -0.00160516
0.0 0.0 -0.000346714
0.0 0.0 -0.000346714
-0.0051086 0.00475305 -0.0162138
0.0 0.0 -0.00160516
0.0 0.0 -0.000346714
0.0 0.0 -0.00160516
-0.000326004 -3.15628e-05 -0.000312433
0.0 0.0 -0.000346714
-0.000133425 -4.66578e-05 6.71573e-05
-3.5191e-05 -1.06488e-05 -0.000149965
-8.06087e-05 6.24801e-05 -5.20476e-05
0.0 0.0 -0.000346714
0.00690999 -0.00390191 0.0412549
0.0 0.0 -0.000346714
0.0 0.0 -0.00160516
-0.000682904 7.82718e-06 0.000226417
0.0 0.0 -0.000346714
0.0 0.0 -0.000346714
0.0 0.0 -0.000346714
0.0 0.0 -0.000346714
-0.000491358 -0.000174709 0.000102543
-5.66405e-05 -2.41808e-05 -5.78365e-05
0.0 0.0 -0.00160516
0.0 0.0 -0.000346714
0.0 0.0 -0.000346714
-9.68638e-05 3.32875e-05 -1.46814e-05
-0.000417197 0.00013604 -0.000182325
-0.000157288 4.68714e-05 0.000149651
0.0 0.0 -0.000346714
-0.000409763 6.51837e-05 -0.000176976
0.0 0.0 -0.00160516
2.41292e-05 1.20677e-05 -0.000245118
0.0 0.0 -0.000346714
-0.000997489 -0.000153055 0.00129268
-0.00038577 -0.000220765 -0.000211599
-8.24666e-05 6.15312e-05 -5.26369e-05
-7.26369e-05 5.58007e-05 -6.94979e-05
-7.97376e-05 6.07286e-05 -5.12015e-05
0.0 0.0 -0.00160516
-0.000399313 0.000128415 -0.000198379
-0.000312581 4.93475e-05 -0.000310045
0.0 0.0 -0.000346714
-0.000411745 6.08312e-05 -0.000175484
0.0 0.0 -0.000346714
0.0 0.0 -0.000346714
0.0 0.0 -0.00160516
0.0 0.0 -0.000346714
-0.000332136 -0.000165347 0.000956101
0.0 0.0 -0.000346714
-8.67209e-05 2.77016e-05 -3.99038e-05
-9.4681e-05 1.48244e-05 -2.13503e-05
-0.000185876 3.47183e-05 -0.000460442
-0.000332651 -0.00155387 0.00559694
3.39146e-05 -0.000162833 -0.000683076
0.0 0.0 -0.00160516
0.0 0.0 -0.000346714
0.0 0.0 -0.000346714
-0.000240973 -3.71606e-05 -0.000664828
0.000297185 -0.000293352 -0.000885889
-0.000261061 -0.000588956 0.000648124
-8.86055e-05 -1.60346e-05 -3.88437e-05
-8.86047e-05 -1.60344e-05 -3.88456e-05
-0.000400745 -0.000146431 -0.000196707
0.0 0.0 -0.000346714
0.0 0.0 -0.00160516
0.0 0.0 -0.00160516
0.0 0.0 -0.00160516
-9.01976e-05 -2.62836e-06 -3.26112e-05
9.19874e-05 1.7945e-05 -0.000211266
0.0 0.0 -0.000346714
0.0 0.0 -0.00160516
-8.75432e-05 -1.71741e-05 -3.8178e-05
0.0 0.0 -0.00160516
0.0 0.0 -0.000346714
0.0 0.0 -0.00160516
-9.67787e-05 -5.44789e-05 -2.63465e-05
-7.87087e-05 -6.48034e-05 -5.33146e-05
0.0 0.0 -0.000346714
0.0 0.0 -0.000346714
0.0 0.0 -0.000346714
-8.86897e-05 1.17364e-05 -3.84987e-05
0.0 0.0 -0.000346714
0.0 0.0 -0.00160516
0.0 0.0 -0.00160516
0.0 0.0 -0.000346714
0.000152552 -0.000336674 0.000395661
-0.00035543 0.000260353 -0.000273296
0.0 0.0 -0.00160516
-8.46751e-05 3.9916e-05 -4.52112e-05
-0.000405673 0.000117902 -0.00017003
0.0 0.0 -0.000346714
-8.90735e-05 1.04e-05 -3.77669e-05
0.0 0.0 -0.000346714
0.0 0.0 -0.000346714
0.0 0.0 -0.00160516
0.0 0.0 -0.000346714
0.0 0.0 -0.000346714
-0.00119609 -0.000728581 7.79414e-05
-0.000426451 -1.91129e-05 -9.77223e-05
-8.46834e-05 1.30879e-05 -3.52517e-05
0.0 0.0 -0.000346714
0.0 0.0 -0.000346714
-7.42005e-05 7.81034e-05 -6.36316e-05
9.97496e-05 0.00048907 -5.4183e-05
0.00138189 0.00703572 0.0203014
-0.00729701 0.00208927 0.0160605
0.0 0.0 -0.000346714
0.0 0.0 -0.00160516
0.000118716 0.000482008 -0.0023246
-0.000119554 1.91359e-05 -8.96688e-05
0.0 0.0 -0.000346714
0.0 0.0 -0.00160516
0.0 0.0 -0.000346714
0.0 0.0 -0.000346714
0.0 0.0 -0.000346714
0.0 0.0 -0.000346714
5.92829e-05 -3.09699e-05 0.00152468
0.0 0.0 -0.000346714
-0.00442146 -0.00529917 0.014211
-0.00207065 -0.000150162 0.00210095
0.0 0.0 -0.000346714
0.0 0.0 -0.000346714
-4.69503e-05 -2.1778e-06 -6.65988e-05
0.0 0.0 -0.000346714
0.0 0.0 -0.00160516
-0.000299062 -0.000449126 -0.000361855
-5.10556e-05 0.000111212 -0.000101129
0.0 0.0 -0.00160516
-0.000134754 3.73964e-05 7.88269e-05
-8.7717e-05 2.3709e-05 -3.97214e-05
0.0 0.0 -0.000346714
0.0 0.0 -0.000346714
0.0 0.0 -0.00160516
0.0 0.0 -0.00160516
0.0 0.0 -0.000346714
0.0 0.0 -0.000346714
0.0 0.0 -0.00160516