# vtk DataFile Version 2.0
Generated by lpp.py
ASCII
DATASET POLYDATA
POINTS 282 float
-0.102957 0.0231704 -0.147588
-0.120892 0.0554287 -0.14685
-0.0964622 -0.0111921 -0.145081
-0.0950019 -0.00459061 -0.144991
-0.091877 0.00257625 -0.144713
-0.0892555 0.00517269 -0.143539
-0.0895199 0.0173121 -0.142868
-0.0915417 -0.0309982 -0.141689
-0.0860576 -0.0161275 -0.141064
-0.0860009 -0.00510828 -0.142224
-0.0894221 0.000273235 -0.141807
-0.0860075 0.00233831 -0.142248
-0.100839 0.0100958 -0.142975
-0.0851073 0.0100147 -0.141609
-0.0802236 -0.00979782 -0.137898
-0.0736526 -0.00675723 -0.136919
-0.107818 -0.00118634 -0.136426
-0.0741357 0.000687805 -0.136724
-0.0704007 0.00844612 -0.135513
-0.0773521 0.0114006 -0.137161
-0.0829583 0.0256759 -0.138986
-0.0676424 -0.00904171 -0.134266
-0.0980369 -0.00515211 -0.134119
-0.0664916 0.009965 -0.133833
-0.0676447 0.0144969 -0.132794
-0.0617856 -0.0254139 -0.129155
-0.0968562 -0.00259862 -0.131277
-0.0948325 -0.00138157 -0.129245
-0.0582834 -0.000503174 -0.130241
-0.0938539 0.00170339 -0.130157
-0.0610476 0.00249815 -0.129909
-0.0956498 0.00386656 -0.13234
-0.0556042 0.00826386 -0.128167
-0.0540586 0.0153487 -0.128169
-0.060903 0.0272328 -0.128895
-0.0628058 0.0309782 -0.128095
-0.0534252 -0.0135842 -0.126891
-0.0672955 -0.00131684 -0.128378
-0.0541279 -0.000334151 -0.127787
-0.0481357 -0.00371916 -0.124975
-0.088584 0.00256679 -0.126459
-0.0697346 0.000378829 -0.128114
-0.0582567 0.00629566 -0.125558
-0.0511367 0.00463315 -0.127446
-0.0489673 0.00303057 -0.124491
-0.0627618 0.0144248 -0.12494
-0.0777055 -0.0684419 -0.122727
-0.0768934 -0.0186998 -0.123697
-0.0441771 -0.0174379 -0.123473
-0.0523638 -0.013321 -0.122407
-0.077239 -0.00719389 -0.124534
-0.0878148 -0.00216244 -0.121859
-0.0586206 -0.00668764 -0.123722
-0.0584573 0.0029347 -0.121042
-0.0434418 -4.03757e-05 -0.123455
-0.0740569 0.003093 -0.123999
-0.0432043 0.0163552 -0.122098
-0.0480255 0.0197329 -0.124118
-0.0535279 0.0306179 -0.12404
-0.0464345 0.0300876 -0.123101
-0.0744826 -0.0248405 -0.11893
-0.0449248 -0.0123761 -0.121296
-0.0330884 -0.0104879 -0.117958
-0.0273319 -0.00774188 -0.117281
-0.0378999 -0.00337717 -0.121646
-0.0317654 -0.00120984 -0.119047
-0.0884876 0.00337176 -0.120143
-0.0291619 0.00355921 -0.117124
-0.03849 0.016177 -0.1205
-0.0334233 0.0175111 -0.118226
-0.0331864 0.0227776 -0.118153
-0.0353072 0.0335874 -0.117824
-0.0445161 0.0409801 -0.118465
-0.0500277 0.0547484 -0.118437
-0.0553331 -0.0404128 -0.1152
-0.0584227 -0.0190262 -0.116877
-0.0301831 -0.0144089 -0.115708
-0.0250379 -0.014725 -0.115762
-0.0291226 -0.0104265 -0.116514
-0.0247063 -0.0111329 -0.115068
-0.0663961 -0.00732933 -0.114993
-0.0439994 -0.00634617 -0.114774
-0.0294445 -0.00675814 -0.113612
-0.0437716 -0.00146775 -0.113249
-0.0257682 -0.00178918 -0.114732
-0.0645268 0.00261498 -0.115472
-0.0466907 0.0137441 -0.115377
-0.0437127 0.0215509 -0.115457
-0.0431467 0.0272298 -0.115987
-0.0261082 -0.0347878 -0.112673
-0.0182452 -0.0291387 -0.110725
-0.0518975 -0.0212556 -0.112156
-0.0210101 -0.0147128 -0.112931
-0.0267125 -0.0113928 -0.10941
-0.0606851 -0.00794182 -0.113963
-0.0170648 -0.00951487 -0.110866
-0.0616716 -0.00325359 -0.113461
-0.0154004 -0.00417399 -0.111513
-0.0563195 -0.00179376 -0.114203
-0.0295577 -0.00267497 -0.111064
-0.0263594 0.00285583 -0.110063
-0.0179143 0.00306049 -0.11271
-0.0130424 0.00128302 -0.108385
-0.0485395 0.00571148 -0.111155
-0.0653092 0.00629275 -0.109075
-0.020515 0.0100779 -0.112994
-0.0314192 0.0167037 -0.111323
-0.0222931 0.0134335 -0.109602
-0.0335204 0.0214483 -0.11442
-0.0214027 0.029519 -0.111335
-0.0273201 0.0442524 -0.112032
-0.0417791 -0.0245455 -0.107952
-0.0164455 -0.0227902 -0.109065
-0.0414303 -0.0178168 -0.10618
-0.0328686 -0.0195173 -0.107464
-0.0217528 -0.019938 -0.106297
-0.0171124 -0.0164628 -0.106727
-0.0141157 -0.00636649 -0.108125
-0.0342456 -0.00232258 -0.109646
-0.0464889 0.00158288 -0.109003
-0.0470512 0.00622199 -0.107427
-0.00794435 0.0115807 -0.106512
-0.0401165 0.0155427 -0.105829
-0.0377286 0.0218233 -0.107162
-0.0318365 0.0269488 -0.112445
-0.0154689 0.0264623 -0.10845
-0.0309894 0.0333632 -0.114461
-0.0331578 -0.0315972 -0.110936
-0.0318432 -0.0105348 -0.103824
-0.0176685 -0.0122421 -0.103694
-0.00809297 -0.0119014 -0.103517
-0.0412582 -0.00129755 -0.105267
-0.0129217 0.00970728 -0.105334
-0.0281851 0.0185368 -0.103066
-0.0101247 0.0284481 -0.102142
-0.0122986 0.0410408 -0.105758
-0.0196256 0.0129538 -0.106632
-0.00445669 0.0136763 -0.10688
-0.0221283 0.0143004 -0.105009
-0.00628432 0.0228065 -0.107065
-0.0237179 -0.0143876 -0.103722
-0.0152622 -0.00222171 -0.10545
-0.00430721 -0.0251385 -0.0987404
-0.0189158 0.00679958 -0.0962962
-0.0076982 0.0115519 -0.0986395
-0.00630817 0.0207644 -0.0962766
-0.00353112 0.0264703 -0.0969425
-0.0337656 -0.0129184 -0.0959008
-0.00618246 -0.0245765 -0.0912553
-0.0192798 0.00186917 -0.090593
-0.0152079 -0.0157693 -0.0855123
-0.00623706 -0.0058896 -0.0858203
-0.00679915 -0.012878 -0.0851506
-0.00240788 0.00422687 -0.0833532
-0.0214963 -0.0266191 -0.0815476
-0.0251386 0.0339743 -0.0804383
-0.023692 -0.0114622 -0.0761239
-0.0229207 0.0293808 -0.0748581
-0.0326006 -0.0344541 -0.0737617
-0.00372425 -0.00768845 -0.072825
-0.0310811 0.0209557 -0.0714584
-0.0239437 -0.00737998 -0.0705584
-0.00596878 0.00110293 -0.0700836
-0.0334498 0.0192376 -0.067906
-0.0260626 -0.0145959 -0.0646638
-0.0280772 0.00199937 -0.0655503
-0.0186593 0.0101406 -0.065892
-0.0192512 0.0203811 -0.0663795
-0.0233162 -0.0257488 -0.0627219
-0.00243205 -0.0275788 -0.0633659
-0.0175477 0.0137467 -0.0612452
-0.000114354 0.021065 -0.0606547
-0.0180071 -0.0127461 -0.0579905
-0.0228627 0.00282045 -0.0597631
-0.0322154 -0.0246784 -0.054708
-0.01426 -0.0150654 -0.0534196
-0.0273571 -0.0103215 -0.0540768
-0.0341304 -0.00318577 -0.052082
-0.0234861 -0.0194352 -0.0468758
-0.00264988 -0.0095541 -0.0460251
-0.0184157 0.00363086 -0.0465718
-0.00169906 -0.0346379 -0.0443771
-0.0106048 -0.00789334 -0.0430013
-0.0200733 -0.00130471 -0.0454819
-0.0258257 0.0147617 -0.0433403
-0.00526421 0.027503 -0.0432538
-0.0107488 0.0329346 -0.0404756
-0.0264666 -0.025466 -0.0383998
-0.00998901 0.00893206 -0.038298
-0.0196577 -0.024903 -0.034959
-0.0134549 0.0182926 -0.0321822
-0.0249489 0.0269151 -0.0341664
-0.0201644 -0.0275601 -0.0314944
-0.00018665 -0.0192075 -0.0295506
-0.0121862 -0.00588198 -0.0304443
-0.0278654 0.00172744 -0.0296468
-0.0173269 -0.0294256 -0.026163
-0.00546888 -0.024539 -0.0259736
-0.0244014 0.0243576 -0.0246821
-0.0317899 0.0348276 -0.0250784
-0.0232114 -0.0230043 -0.0238974
-0.00148336 -0.00863773 -0.0219143
-0.0299737 -0.0249092 -0.0187503
-0.0209901 0.00167617 -0.0191418
-0.00237574 0.0349629 -0.0204113
-0.0118483 0.00949823 -0.0140359
-0.0133438 0.0300767 -0.0145574
-0.00916175 0.0316192 -0.0142878
-0.00525173 0.0148756 -0.0122671
-0.00795 0.0273623 -0.013169
-0.0116971 -0.0149443 -0.00989504
-0.014731 -0.00384992 -0.00745076
-0.0325497 0.0284222 -0.00845438
-0.000147874 -0.0328927 -0.00304707
-0.0315415 -0.0266248 -0.00598249
-0.0258692 -0.0150214 -0.00353202
-0.0313425 0.0167345 -0.00563081
-0.0220067 0.0311963 -0.00564573
-0.0141421 0.000627184 0.000690274
-0.0256746 -0.0295973 0.00242677
-0.0126988 -0.0187384 0.00136043
-0.0186146 -0.0100891 0.00231154
-0.0104339 -0.00964248 0.00433575
-0.0206785 0.0145985 0.00350188
-0.0125397 -0.025785 0.00516012
-0.0158011 0.0337207 0.00559929
-0.0349321 -0.00790873 0.0109048
-0.0114835 -0.0265679 0.0129151
-0.0172445 0.00368684 0.0142182
-0.03004 0.0154412 0.0122956
-0.0245784 0.0311922 0.0130343
-0.00133775 0.0319388 0.0135985
-0.011765 -0.0317196 0.0188304
-0.004822 -0.0263713 0.0154487
-0.0305153 0.021925 0.0157997
-0.00523715 -0.00399455 0.0194932
-0.024936 0.00943572 0.021767
-0.00913613 0.0130219 0.0209505
-0.0178674 0.023228 0.0222663
-0.0312596 -0.0342874 0.024942
-0.0276781 -0.0346784 0.0228022
-0.00624641 -0.0254844 0.0225263
-0.0140583 -0.0235405 0.0249988
-0.0103972 0.0260911 0.0259562
-0.0202693 -0.0311084 0.0285086
-0.00778825 -0.017605 0.0264944
-0.00508252 -0.00729713 0.0279684
-0.0171169 0.0130299 0.029705
-0.000908632 0.0183203 0.026833
-0.0334625 0.0326024 0.0272814
-0.0330193 -0.0287184 0.0332242
-0.0322818 -0.0136491 0.0300143
-0.0242205 -0.0101411 0.0300626
-0.00133703 0.00391048 0.0310744
-0.0304516 0.017575 0.0315069
-0.0327952 0.00273344 0.0342014
-0.0282211 -0.0123493 0.0373762
-0.0169822 0.00918438 0.0388384
-0.0266383 0.0211746 0.0403064
-0.0323156 0.0257586 0.03832
-0.0242312 -0.0119118 0.0418005
-0.016367 0.0234551 0.0429766
-0.000691472 -0.0346461 0.0447626
-0.0319423 -0.0207084 0.045615
-0.0332043 -0.0119457 0.0451247
-0.0084722 -0.0123243 0.0442752
-0.0181876 -0.00799419 0.0447663
-0.0266867 0.00969496 0.0459418
-0.0345837 0.0307765 0.0459225
-0.00517746 0.0266228 0.056797
-0.0203439 -0.0213423 0.0485659
-0.014458 -0.0150737 0.0557954
-0.00968967 -0.0134906 0.0536679
-0.0171117 -0.0109135 0.0571174
-0.0158837 -0.0146366 0.0519387
-0.0265303 0.0300204 0.0508225
-0.018202 -0.00127292 0.0509762
-0.00852479 0.034934 0.0537927
-0.0285795 0.0326856 0.0509085
-0.0238687 0.0109416 0.0568509
-0.0242569 -0.0048619 0.0496093
-0.00413281 -0.000337831 0.0529961
VERTICES 282 564
1 0
1 1
1 2
1 3
1 4
1 5
1 6
1 7
1 8
1 9
1 10
1 11
1 12
1 13
1 14
1 15
1 16
1 17
1 18
1 19
1 20
1 21
1 22
1 23
1 24
1 25
1 26
1 27
1 28
1 29
1 30
1 31
1 32
1 33
1 34
1 35
1 36
1 37
1 38
1 39
1 40
1 41
1 42
1 43
1 44
1 45
1 46
1 47
1 48
1 49
1 50
1 51
1 52
1 53
1 54
1 55
1 56
1 57
1 58
1 59
1 60
1 61
1 62
1 63
1 64
1 65
1 66
1 67
1 68
1 69
1 70
1 71
1 72
1 73
1 74
1 75
1 76
1 77
1 78
1 79
1 80
1 81
1 82
1 83
1 84
1 85
1 86
1 87
1 88
1 89
1 90
1 91
1 92
1 93
1 94
1 95
1 96
1 97
1 98
1 99
1 100
1 101
1 102
1 103
1 104
1 105
1 106
1 107
1 108
1 109
1 110
1 111
1 112
1 113
1 114
1 115
1 116
1 117
1 118
1 119
1 120
1 121
1 122
1 123
1 124
1 125
1 126
1 127
1 128
1 129
1 130
1 131
1 132
1 133
1 134
1 135
1 136
1 137
1 138
1 139
1 140
1 141
1 142
1 143
1 144
1 145
1 146
1 147
1 148
1 149
1 150
1 151
1 152
1 153
1 154
1 155
1 156
1 157
1 158
1 159
1 160
1 161
1 162
1 163
1 164
1 165
1 166
1 167
1 168
1 169
1 170
1 171
1 172
1 173
1 174
1 175
1 176
1 177
1 178
1 179
1 180
1 181
1 182
1 183
1 184
1 185
1 186
1 187
1 188
1 189
1 190
1 191
1 192
1 193
1 194
1 195
1 196
1 197
1 198
1 199
1 200
1 201
1 202
1 203
1 204
1 205
1 206
1 207
1 208
1 209
1 210
1 211
1 212
1 213
1 214
1 215
1 216
1 217
1 218
1 219
1 220
1 221
1 222
1 223
1 224
1 225
1 226
1 227
1 228
1 229
1 230
1 231
1 232
1 233
1 234
1 235
1 236
1 237
1 238
1 239
1 240
1 241
1 242
1 243
1 244
1 245
1 246
1 247
1 248
1 249
1 250
1 251
1 252
1 253
1 254
1 255
1 256
1 257
1 258
1 259
1 260
1 261
1 262
1 263
1 264
1 265
1 266
1 267
1 268
1 269
1 270
1 271
1 272
1 273
1 274
1 275
1 276
1 277
1 278
1 279
1 280
1 281
POINT_DATA 282
VECTORS i float
0.0 0.0 0.0
0.0 0.0 0.0
0.0 0.0 0.0
0.0 0.0 0.0
0.0 0.0 0.0
0.0 0.0 0.0
0.0 0.0 0.0
0.0 0.0 0.0
0.0 0.0 0.0
0.0 0.0 0.0
0.0 0.0 0.0
0.0 0.0 0.0
0.0 0.0 0.0
0.0 0.0 0.0
0.0 0.0 0.0
0.0 0.0 0.0
0.0 0.0 0.0
0.0 0.0 0.0
0.0 0.0 0.0
0.0 0.0 0.0
0.0 0.0 0.0
0.0 0.0 0.0
0.0 0.0 0.0
0.0 0.0 0.0
0.0 0.0 0.0
0.0 0.0 0.0
0.0 0.0 0.0
0.0 0.0 0.0
0.0 0.0 0.0
0.0 0.0 0.0
0.0 0.0 0.0
0.0 0.0 0.0
0.0 0.0 0.0
0.0 0.0 0.0
0.0 0.0 0.0
0.0 0.0 0.0
0.0 0.0 0.0
0.0 0.0 0.0
0.0 0.0 0.0
0.0 0.0 0.0
0.0 0.0 0.0
0.0 0.0 0.0
0.0 0.0 0.0
0.0 0.0 0.0
0.0 0.0 0.0
0.0 0.0 0.0
0.0 0.0 0.0
0.0 0.0 0.0
0.0 0.0 0.0
0.0 0.0 0.0
0.0 0.0 0.0
0.0 0.0 0.0
0.0 0.0 0.0
0.0 0.0 0.0
0.0 0.0 0.0
0.0 0.0 0.0
0.0 0.0 0.0
0.0 0.0 0.0
0.0 0.0 0.0
0.0 0.0 0.0
0.0 0.0 0.0
0.0 0.0 0.0
0.0 0.0 0.0
0.0 0.0 0.0
0.0 0.0 0.0
0.0 0.0 0.0
0.0 0.0 0.0
0.0 0.0 0.0
0.0 0.0 0.0
0.0 0.0 0.0
0.0 0.0 0.0
0.0 0.0 0.0
0.0 0.0 0.0
0.0 0.0 0.0
0.0 0.0 0.0
0.0 0.0 0.0
0.0 0.0 0.0
0.0 0.0 0.0
0.0 0.0 0.0
0.0 0.0 0.0
0.0 0.0 0.0
0.0 0.0 0.0
0.0 0.0 0.0
0.0 0.0 0.0
0.0 0.0 0.0
0.0 0.0 0.0
0.0 0.0 0.0
0.0 0.0 0.0
0.0 0.0 0.0
0.0 0.0 0.0
0.0 0.0 0.0
0.0 0.0 0.0
0.0 0.0 0.0
0.0 0.0 0.0
0.0 0.0 0.0
0.0 0.0 0.0
0.0 0.0 0.0
0.0 0.0 0.0
0.0 0.0 0.0
0.0 0.0 0.0
0.0 0.0 0.0
0.0 0.0 0.0
0.0 0.0 0.0
0.0 0.0 0.0
0.0 0.0 0.0
0.0 0.0 0.0
0.0 0.0 0.0
0.0 0.0 0.0
0.0 0.0 0.0
0.0 0.0 0.0
0.0 0.0 0.0
0.0 0.0 0.0
0.0 0.0 0.0
0.0 0.0 0.0
0.0 0.0 0.0
0.0 0.0 0.0
0.0 0.0 0.0
0.0 0.0 0.0
0.0 0.0 0.0
0.0 0.0 0.0
0.0 0.0 0.0
0.0 0.0 0.0
0.0 0.0 0.0
0.0 0.0 0.0
0.0 0.0 0.0
0.0 0.0 0.0
0.0 0.0 0.0
0.0 0.0 0.0
0.0 0.0 0.0
0.0 0.0 0.0
0.0 0.0 0.0
0.0 0.0 0.0
0.0 0.0 0.0
0.0 0.0 0.0
0.0 0.0 0.0
0.0 0.0 0.0
0.0 0.0 0.0
0.0 0.0 0.0
0.0 0.0 0.0
0.0 0.0 0.0
0.0 0.0 0.0
0.0 0.0 0.0
0.0 0.0 0.0
0.0 0.0 0.0
0.0 0.0 0.0
0.0 0.0 0.0
0.0 0.0 0.0
0.0 0.0 0.0
0.0 0.0 0.0
0.0 0.0 0.0
0.0 0.0 0.0
0.0 0.0 0.0
0.0 0.0 0.0
0.0 0.0 0.0
0.0 0.0 0.0
0.0 0.0 0.0
0.0 0.0 0.0
0.0 0.0 0.0
0.0 0.0 0.0
0.0 0.0 0.0
0.0 0.0 0.0
0.0 0.0 0.0
0.0 0.0 0.0
0.0 0.0 0.0
0.0 0.0 0.0
0.0 0.0 0.0
0.0 0.0 0.0
0.0 0.0 0.0
0.0 0.0 0.0
0.0 0.0 0.0
0.0 0.0 0.0
0.0 0.0 0.0
0.0 0.0 0.0
0.0 0.0 0.0
0.0 0.0 0.0
0.0 0.0 0.0
0.0 0.0 0.0
0.0 0.0 0.0
0.0 0.0 0.0
0.0 0.0 0.0
0.0 0.0 0.0
0.0 0.0 0.0
0.0 0.0 0.0
0.0 0.0 0.0
0.0 0.0 0.0
0.0 0.0 0.0
0.0 0.0 0.0
0.0 0.0 0.0
0.0 0.0 0.0
0.0 0.0 0.0
0.0 0.0 0.0
0.0 0.0 0.0
0.0 0.0 0.0
0.0 0.0 0.0
0.0 0.0 0.0
0.0 0.0 0.0
0.0 0.0 0.0
0.0 0.0 0.0
0.0 0.0 0.0
0.0 0.0 0.0
0.0 0.0 0.0
0.0 0.0 0.0
0.0 0.0 0.0
0.0 0.0 0.0
0.0 0.0 0.0
0.0 0.0 0.0
0.0 0.0 0.0
0.0 0.0 0.0
0.0 0.0 0.0
0.0 0.0 0.0
0.0 0.0 0.0
0.0 0.0 0.0
0.0 0.0 0.0
0.0 0.0 0.0
0.0 0.0 0.0
0.0 0.0 0.0
0.0 0.0 0.0
0.0 0.0 0.0
0.0 0.0 0.0
0.0 0.0 0.0
0.0 0.0 0.0
0.0 0.0 0.0
0.0 0.0 0.0
0.0 0.0 0.0
0.0 0.0 0.0
0.0 0.0 0.0
0.0 0.0 0.0
0.0 0.0 0.0
0.0 0.0 0.0
0.0 0.0 0.0
0.0 0.0 0.0
0.0 0.0 0.0
0.0 0.0 0.0
0.0 0.0 0.0
0.0 0.0 0.0
0.0 0.0 0.0
0.0 0.0 0.0
0.0 0.0 0.0
0.0 0.0 0.0
0.0 0.0 0.0
0.0 0.0 0.0
0.0 0.0 0.0
0.0 0.0 0.0
0.0 0.0 0.0
0.0 0.0 0.0
0.0 0.0 0.0
0.0 0.0 0.0
0.0 0.0 0.0
0.0 0.0 0.0
0.0 0.0 0.0
0.0 0.0 0.0
0.0 0.0 0.0
0.0 0.0 0.0
0.0 0.0 0.0
0.0 0.0 0.0
0.0 0.0 0.0
0.0 0.0 0.0
0.0 0.0 0.0
0.0 0.0 0.0
0.0 0.0 0.0
0.0 0.0 0.0
0.0 0.0 0.0
0.0 0.0 0.0
0.0 0.0 0.0
0.0 0.0 0.0
0.0 0.0 0.0
0.0 0.0 0.0
0.0 0.0 0.0
0.0 0.0 0.0
0.0 0.0 0.0
0.0 0.0 0.0
0.0 0.0 0.0
0.0 0.0 0.0
0.0 0.0 0.0
0.0 0.0 0.0
0.0 0.0 0.0
0.0 0.0 0.0
0.0 0.0 0.0
0.0 0.0 0.0
0.0 0.0 0.0
0.0 0.0 0.0
0.0 0.0 0.0
VECTORS f float
0.0 0.0 -0.000346714
0.0 0.0 -0.000346714
0.0 0.0 -0.00160516
-0.000533842 -0.00125542 0.00188426
4.76936e-05 2.7481e-05 2.67622e-05
0.0 0.0 -0.000346714
-8.65444e-05 -1.70026e-05 -4.37744e-05
-0.000119422 5.74356e-05 1.97864e-05
0.0 0.0 -0.000346714
0.0 0.0 -0.000346714
0.0 0.0 -0.000346714
-5.68204e-05 -8.48295e-07 -9.48823e-05
0.0 0.0 -0.000346714
-8.74951e-05 -1.85696e-05 -3.81898e-05
0.0 0.0 -0.00160516
-8.88664e-05 1.0371e-05 -3.82877e-05
0.0 0.0 -0.00160516
0.0 0.0 -0.000346714
0.0 0.0 -0.000346714
-0.000481817 -0.000103124 2.56824e-06
-8.73512e-05 -3.5028e-05 -3.46041e-05
0.0 0.0 -0.000346714
0.0 0.0 -0.000346714
-0.000604874 -0.000153762 0.001325
-0.000427866 -9.5784e-05 -0.000155868
-0.000401914 0.000111925 -0.000185197
0.0 0.0 -0.000346714
0.0 0.0 -0.000346714
0.0 0.0 -0.000346714
0.0 0.0 -0.000346714
0.0 0.0 -0.000346714
0.0 0.0 -0.000346714
-0.000419027 -3.24054e-05 -0.000176114
2.05241e-05 -0.000352034 0.000755085
0.0 0.0 -0.000346714
0.0 0.0 -0.00160516
0.0 0.0 -0.00160516
-0.00733775 0.00509149 -0.000273419
-0.00052013 -3.00353e-05 7.60797e-05
0.0 0.0 -0.00160516
0.0 0.0 -0.000346714
0.00733775 -0.00509149 -0.000420009
0.0 0.0 -0.000346714
0.000131473 -2.08648e-05 -0.000462812
0.0 0.0 -0.00160516
0.0 0.0 -0.000346714
0.0 0.0 -0.000346714
0.0 0.0 -0.00160516
0.0 0.0 -0.000346714
0.0 0.0 -0.000346714
0.0 0.0 -0.000346714
0.0 0.0 -0.000346714
0.0 0.0 -0.000346714
0.0 0.0 -0.00160516
0.0 0.0 -0.000346714
0.0 0.0 -0.00160516
-0.0211038 -0.00171024 -0.0225345
-0.000410088 -0.000103034 -0.000182071
0.0 0.0 -0.000346714
-8.69448e-05 -3.36545e-05 -4.23535e-05
0.0 0.0 -0.00160516
0.0 0.0 -0.00160516
0.0 0.0 -0.00160516
0.0 0.0 -0.000346714
0.0 0.0 -0.000346714
0.0 0.0 -0.000346714
0.0 0.0 -0.000346714
0.0 0.0 -0.00160516
0.0227049 -0.00765673 0.0651963
0.000139999 -0.000401752 0.00122456
-0.00384906 0.00565431 0.00954966
0.0 0.0 -0.000346714
0.0 0.0 -0.00160516
1.84929e-05 -2.24668e-05 -0.000498275
0.0 0.0 -0.00160516
0.0 0.0 -0.000346714
0.0 0.0 -0.00160516
0.0 0.0 -0.000346714
0.0 0.0 -0.000346714
0.0 0.0 -0.000346714
0.0 0.0 -0.000346714
0.0 0.0 -0.00160516
0.0 0.0 -0.00160516
0.0 0.0 -0.00160516
0.0 0.0 -0.000346714
0.0 0.0 -0.000346714
0.0 0.0 -0.000346714
0.0 0.0 -0.000346714
0.0 0.0 -0.000346714
0.0 0.0 -0.000346714
0.0 0.0 -0.000346714
0.0 0.0 -0.000346714
0.0 0.0 -0.000346714
0.0 0.0 -0.000346714
0.0 0.0 -0.00160516
0.0 0.0 -0.00160516
0.0 0.0 -0.000346714
0.0 0.0 -0.000346714
0.0 0.0 -0.00160516
0.0 0.0 -0.000346714
0.0 0.0 -0.00160516
0.0 0.0 -0.000346714
0.0 0.0 -0.00160516
0.0 0.0 -0.000346714
0.0 0.0 -0.000346714
0.0 0.0 -0.00160516
0.0 0.0 -0.00160516
0.0 0.0 -0.00160516
0.00384906 -0.00565431 -0.0115015
0.0 0.0 -0.000346714
0.0 0.0 -0.000346714
0.0 0.0 -0.000346714
0.0 0.0 -0.00160516
0.0 0.0 -0.00160516
0.0 0.0 -0.000346714
0.0 0.0 -0.00160516
0.0 0.0 -0.00160516
0.0 0.0 -0.000346714
0.0 0.0 -0.000346714
0.0 0.0 -0.000346714
0.0 0.0 -0.000346714
0.0 0.0 -0.000346714
0.0 0.0 -0.000346714
0.0 0.0 -0.000346714
0.0 0.0 -0.00160516
0.0 0.0 -0.000346714
0.0 0.0 -0.000346714
0.0 0.0 -0.000346714
0.0 0.0 -0.000346714
0.0 0.0 -0.00160516
0.0 0.0 -0.00160516
0.0 0.0 -0.000346714
0.0 0.0 -0.000346714
0.0 0.0 -0.000346714
0.0 0.0 -0.00160516
0.0 0.0 -0.000346714
0.0 0.0 -0.000346714
0.0 0.0 -0.000346714
0.0 0.0 -0.000346714
0.0 0.0 -0.000346714
0.0 0.0 -0.000346714
0.0 0.0 -0.00160516
0.0 0.0 -0.000346714
0.0 0.0 -0.000346714
0.0 0.0 -0.00160516
0.0 0.0 -0.000346714
0.0 0.0 -0.000346714
0.0 0.0 -0.000346714
0.0 0.0 -0.00160516
0.0 0.0 -0.00160516
0.0 0.0 -0.000346714
0.0 0.0 -0.000346714
0.0 0.0 -0.000346714
0.0 0.0 -0.00160516
0.0 0.0 -0.00160516
0.0 0.0 -0.000346714
0.0 0.0 -0.000346714
0.0 0.0 -0.000346714
0.0 0.0 -0.000346714
0.0 0.0 -0.00160516
0.0 0.0 -0.000346714
0.0 0.0 -0.00160516
0.0 0.0 -0.000346714
0.0 0.0 -0.000346714
0.0 0.0 -0.000346714
0.0 0.0 -0.000346714
0.0 0.0 -0.000346714
0.0 0.0 -0.00160516
0.0 0.0 -0.000346714
0.0 0.0 -0.000346714
0.0 0.0 -0.00160516
0.0 0.0 -0.00160516
0.0 0.0 -0.000346714
0.0 0.0 -0.000346714
0.0 0.0 -0.000346714
0.0 0.0 -0.000346714
0.0 0.0 -0.00160516
0.0 0.0 -0.000346714
0.0 0.0 -0.00160516
0.0 0.0 -0.000346714
0.0 0.0 -0.000346714
0.0 0.0 -0.00160516
0.0 0.0 -0.000346714
0.0 0.0 -0.000346714
0.0 0.0 -0.00160516
0.0 0.0 -0.000346714
0.0 0.0 -0.00160516
0.0 0.0 -0.00160516
0.0 0.0 -0.000346714
0.0 0.0 -0.000346714
0.0 0.0 -0.000346714
0.0 0.0 -0.000346714
0.0 0.0 -0.000346714
0.0 0.0 -0.00160516
0.0 0.0 -0.000346714
0.0 0.0 -0.000346714
0.0 0.0 -0.00160516
0.0 0.0 -0.000346714
0.0 0.0 -0.000346714
0.0 0.0 -0.000346714
0.0 0.0 -0.00160516
0.0 0.0 -0.000346714
0.0 0.0 -0.00160516
0.0 0.0 -0.000346714
0.0 0.0 -0.000346714
0.0 0.0 -0.000346714
0.0 0.0 -0.000346714
0.0 0.0 -0.000346714
0.0 0.0 -0.000346714
0.0 0.0 -0.00160516
0.0 0.0 -0.000346714
0.0 0.0 -0.00160516
0.0 0.0 -0.000346714
0.0 0.0 -0.000346714
0.0 0.0 -0.00160516
0.0 0.0 -0.000346714
0.0 0.0 -0.00160516
0.0 0.0 -0.00160516
0.0 0.0 -0.000346714
0.0 0.0 -0.000346714
0.0 0.0 -0.00160516
0.0 0.0 -0.000346714
0.0 0.0 -0.000346714
0.0 0.0 -0.000346714
0.0 0.0 -0.000346714
0.0 0.0 -0.000346714
0.0 0.0 -0.000346714
0.0 0.0 -0.000346714
0.0 0.0 -0.00160516
0.0 0.0 -0.00160516
0.0 0.0 -0.00160516
0.0 0.0 -0.00160516
0.0 0.0 -0.000346714
0.0 0.0 -0.000346714
0.0 0.0 -0.00160516
0.0 0.0 -0.000346714
0.0 0.0 -0.000346714
0.0 0.0 -0.000346714
0.0 0.0 -0.000346714
0.0 0.0 -0.000346714
0.0 0.0 -0.000346714
0.0 0.0 -0.00160516
0.0 0.0 -0.00160516
0.0 0.0 -0.000346714
0.0 0.0 -0.000346714
0.0 0.0 -0.00160516
0.0 0.0 -0.000346714
0.0 0.0 -0.000346714
0.0 0.0 -0.000346714
0.0 0.0 -0.000346714
0.0 0.0 -0.000346714
0.0 0.0 -0.000346714
0.0 0.0 -0.000346714
0.0 0.0 -0.00160516
0.0 0.0 -0.00160516
0.0 0.0 -0.00160516
0.0 0.0 -0.000346714
0.0 0.0 -0.000346714
0.0 0.0 -0.000346714
0.0 0.0 -0.000346714
0.0 0.0 -0.000346714
0.0 0.0 -0.00160516
0.0 0.0 -0.00160516
0.0 0.0 -0.000346714
0.0 0.0 -0.000346714
0.0 0.0 -0.000346714
0.0 0.0 -0.00160516
0.0 0.0 -0.000346714
0.0 0.0 -0.00160516
0.0 0.0 0.0
0.0 0.0 -0.00160516
0.0 0.0 0.0
0.0 0.0 0.0
0.0 0.0 0.0
0.0 0.0 0.0
0.0 0.0 0.0
0.0 0.0 0.0
0.0 0.0 0.0
0.0 0.0 0.0
0.0 0.0 0.0
0.0 0.0 -0.000346714
0.0 0.0 0.0
VECTORS omega float
109.333 -325.067 83.3711
-266.414 -885.45 -201.362
-28.9997 -339.718 20.1153
25.422 -347.486 8.24058
-61.2235 -646.868 -213.143
-74.0645 -531.817 -238.958
-39.3812 -609.115 -28.4578
-41.4452 -627.763 136.795
152.131 -611.253 526.705
-163.61 -652.863 10.1515
53.5445 -226.738 38.1963
148.276 -661.19 68.9096
157.283 -192.671 339.666
172.302 -653.551 3.11441
-126.587 -244.829 33.724
162.292 -515.984 -167.85
-14.8336 -225.779 -6.37285e-15
-97.5836 -571.257 -10.2626
-251.185 -570.64 -108.151
-47.5178 -316.778 -86.7953
-27.9302 -776.571 43.603
-96.9032 -439.287 -142.539
-128.412 -337.666 -66.8896
-164.257 -452.722 -93.8504
29.0056 -345.318 -74.1958
-61.0183 -285.502 16.3807
-69.1963 -297.382 -80.0457
-65.2772 -336.385 -23.7665
69.549 -420.227 -67.5545
18.9149 -310.334 36.2378
78.5295 -387.218 -25.0826
116.452 -309.166 46.8482
27.7886 -224.881 -81.888
32.0844 -399.657 147.777
80.272 -354.437 -194.793
18.8206 -289.219 -36.7508
-34.0493 -237.769 108.773
-110.764 -623.596 -14.8999
25.3023 -269.851 -13.0103
65.6005 43.4558 47.5642
-11.0748 -389.824 7.37302e-16
49.226 539.921 -7.02788
36.2499 262.927 92.7264
23.2585 -324.325 39.0367
59.3673 -108.011 -18.857
-6.95269 -344.761 118.502
126.408 -322.742 286.533
180.623 136.053 124.935
1.57595 -313.289 70.2679
30.7175 221.295 -96.1964
-65.0767 -364.221 8.43618e-14
27.3203 136.186 -30.5113
-173.608 -707.796 -71.5395
-86.5528 -216.904 -44.3712
153.694 -100.042 -107.918
53.1334 -227.496 5.06761e-14
-75.1807 -84.2459 -50.6779
53.9084 -286.572 -0.812429
-163.532 -428.411 -311.04
68.624 -410.58 -85.2865
-159.194 -215.037 5.0754
-26.2411 -144.015 80.0155
-71.7659 -91.5589 -16.9262
27.1857 -475.51 71.3621
466.725 -742.327 92.5284
268.711 -429.876 50.7326
-992.473 989.332 -382.051
146.34 -101.501 13.8812
-24.2872 -101.429 14.4943
-3.38607 -106.21 16.6498
425.902 -129.309 190.553
-8.39576 -450.684 185.468
-77.2948 -134.657 -85.5277
-215.018 -155.77 7.55576
73.1144 -310.468 92.8732
226.102 83.844 139.827
-9.24503 -4.39548 15.1198
-17.5574 -317.948 18.6062
-108.497 324.735 87.4329
-58.3033 -380.744 -71.9198
-85.5854 -368.423 1.07912e-13
-26.4565 -264.988 -43.8101
157.098 -128.815 120.691
91.4855 -142.089 -130.958
54.0454 -421.502 30.511
69.7203 -386.005 -6.26036e-14
70.2628 -305.698 33.5383
207.663 -424.231 -92.2129
185.692 -394.795 28.3963
42.3857 -637.087 149.544
-249.371 -223.108 -40.3557
-155.835 -378.48 -1.58522e-13
-150.78 -371.991 -115.579
-144.555 -7.34691 20.2362
-76.8102 -219.699 -17.9608
48.4935 -126.468 135.593
57.9112 -322.772 -138.011
94.0547 -243.192 -23.9056
-81.4948 -221.983 -4.47958e-14
-492.37 36.2383 -159.473
-129.309 260.788 3.75851
-91.7454 -23.9077 189.228
5.18221 -230.382 5.91469e-15
69.2573 -383.441 -4.34912e-14
389.887 -152.585 -138.964
-111.657 -225.236 -67.6545
-56.5 -40.2411 -43.7451
15.674 -100.503 5.74204
-118.84 -53.9558 -100.485
30.9916 -623.783 -74.7418
-63.8768 -24.7121 -214.306
-148.318 -360.491 6.00689e-14
-82.419 -224.501 8.47514e-14
-89.5563 -217.669 2.17489e-14
-148.193 -360.188 1.16897e-14
-56.3143 -234.039 -15.7448
-63.7061 -218.109 5.21217
-482.924 -277.977 -192.813
-80.7065 -336.668 -48.6138
8.58772 -381.78 -1.52841e-14
13.6638 -367.81 1.29697e-14
96.2798 -354.783 0.851012
-314.22 -140.985 -64.0011
246.884 -254.322 -70.0386
-184.709 108.484 -91.2173
-13.3708 -736.021 -114.033
0.0 0.0 0.0
0.0 0.0 0.0
-212.708 -114.821 -170.59
-170.507 -379.291 -6.77549
-32.7933 -226.29 -7.92876e-15
13.5753 -365.427 2.76259e-15
-34.5104 -527.191 -97.3698
87.9167 -376.425 1.7442e-13
102.404 -223.72 9.36145e-14
-358.746 130.139 123.305
-148.218 303.168 9.8618
0.0 0.0 0.0
-203.412 441.886 -62.7026
88.3809 -378.412 1.11828e-13
0.0 0.0 0.0
-61.6235 19.7977 -29.5848
0.0 0.0 0.0
0.0 0.0 0.0
0.0 0.0 0.0
0.0 0.0 0.0
0.0 0.0 0.0
0.0 0.0 0.0
0.0 0.0 0.0
0.0 0.0 0.0
0.0 0.0 0.0
0.0 0.0 0.0
0.0 0.0 0.0
0.0 0.0 0.0
0.0 0.0 0.0
0.0 0.0 0.0
0.0 0.0 0.0
0.0 0.0 0.0
0.0 0.0 0.0
0.0 0.0 0.0
0.0 0.0 0.0
0.0 0.0 0.0
0.0 0.0 0.0
0.0 0.0 0.0
0.0 0.0 0.0
0.0 0.0 0.0
0.0 0.0 0.0
0.0 0.0 0.0
0.0 0.0 0.0
0.0 0.0 0.0
0.0 0.0 0.0
0.0 0.0 0.0
0.0 0.0 0.0
0.0 0.0 0.0
0.0 0.0 0.0
0.0 0.0 0.0
0.0 0.0 0.0
0.0 0.0 0.0
0.0 0.0 0.0
0.0 0.0 0.0
0.0 0.0 0.0
0.0 0.0 0.0
0.0 0.0 0.0
0.0 0.0 0.0
0.0 0.0 0.0
0.0 0.0 0.0
0.0 0.0 0.0
0.0 0.0 0.0
0.0 0.0 0.0
0.0 0.0 0.0
0.0 0.0 0.0
0.0 0.0 0.0
0.0 0.0 0.0
0.0 0.0 0.0
0.0 0.0 0.0
0.0 0.0 0.0
0.0 0.0 0.0
0.0 0.0 0.0
0.0 0.0 0.0
0.0 0.0 0.0
0.0 0.0 0.0
0.0 0.0 0.0
0.0 0.0 0.0
0.0 0.0 0.0
0.0 0.0 0.0
0.0 0.0 0.0
0.0 0.0 0.0
0.0 0.0 0.0
0.0 0.0 0.0
0.0 0.0 0.0
0.0 0.0 0.0
0.0 0.0 0.0
0.0 0.0 0.0
0.0 0.0 0.0
0.0 0.0 0.0
0.0 0.0 0.0
0.0 0.0 0.0
0.0 0.0 0.0
0.0 0.0 0.0
0.0 0.0 0.0
0.0 0.0 0.0
0.0 0.0 0.0
0.0 0.0 0.0
0.0 0.0 0.0
0.0 0.0 0.0
0.0 0.0 0.0
0.0 0.0 0.0
0.0 0.0 0.0
0.0 0.0 0.0
0.0 0.0 0.0
0.0 0.0 0.0
0.0 0.0 0.0
0.0 0.0 0.0
0.0 0.0 0.0
0.0 0.0 0.0
0.0 0.0 0.0
0.0 0.0 0.0
0.0 0.0 0.0
0.0 0.0 0.0
0.0 0.0 0.0
0.0 0.0 0.0
0.0 0.0 0.0
0.0 0.0 0.0
0.0 0.0 0.0
0.0 0.0 0.0
0.0 0.0 0.0
0.0 0.0 0.0
0.0 0.0 0.0
0.0 0.0 0.0
0.0 0.0 0.0
0.0 0.0 0.0
0.0 0.0 0.0
0.0 0.0 0.0
0.0 0.0 0.0
0.0 0.0 0.0
0.0 0.0 0.0
0.0 0.0 0.0
0.0 0.0 0.0
0.0 0.0 0.0
0.0 0.0 0.0
0.0 0.0 0.0
0.0 0.0 0.0
0.0 0.0 0.0
0.0 0.0 0.0
0.0 0.0 0.0
0.0 0.0 0.0
0.0 0.0 0.0
0.0 0.0 0.0
0.0 0.0 0.0
0.0 0.0 0.0
0.0 0.0 0.0
0.0 0.0 0.0
0.0 0.0 0.0
0.0 0.0 0.0
0.0 0.0 0.0
0.0 0.0 0.0
0.0 0.0 0.0
0.0 0.0 0.0
0.0 0.0 0.0
0.0 0.0 0.0
0.0 0.0 0.0
0.0 0.0 0.0
VECTORS v float
-0.761856 -0.0901797 -0.80376
-1.26267 0.440639 -0.292956
-0.925281 -0.12547 -0.47649
-0.809788 -0.0472702 -0.339889
-0.89592 0.209171 -0.383105
-0.756834 0.240299 -0.272599
-0.841433 0.070806 -0.351177
-0.890711 -0.0216397 -0.369093
-0.95347 -0.505283 -0.211086
-0.908837 0.220624 -0.377245
-0.740387 0.234009 -0.788036
-0.91282 -0.244986 -0.386718
-0.746853 -0.229155 -0.768701
-0.900666 -0.239346 -0.397582
-0.713165 0.23752 -0.705194
-0.699869 -0.125512 -0.290854
-0.737266 0.0484382 -0.655248
-0.826222 0.138376 -0.332025
-0.79925 0.409932 -0.342495
-0.745257 0.192491 -0.294517
-1.05319 0.0134906 -0.434929
-0.600935 0.216934 -0.255279
-0.738535 0.109544 -0.640106
-0.633752 0.28054 -0.241165
-0.809434 0.0044756 -0.336838
-0.658557 0.124108 -0.290035
-0.745831 0.104058 -0.590852
-0.737567 0.0350436 -0.510544
-0.617963 -0.0581696 -0.294443
-0.734922 -0.0206786 -0.514514
-0.671272 -0.229814 -0.714783
-0.744958 -0.0400228 -0.690894
-0.521805 0.0173391 -0.224681
-0.701689 -0.0196729 -0.297256
-0.583684 0.0178115 -0.227672
-0.706535 0.0234909 -0.273844
-0.577093 -0.0248248 -0.214547
-0.730805 0.00858241 -0.546035
-0.621825 -0.0456479 -0.262662
-0.434015 -0.178634 -0.191479
-0.756912 0.0215037 -0.487577
-0.91457 0.176251 -0.682755
-0.64557 -0.0748796 -0.371751
-0.539003 -0.0207237 -0.228812
-0.565283 -0.169528 -0.276861
-0.876601 0.161005 -0.262779
-0.619036 -0.260006 -0.0904681
-0.812789 0.0768082 -0.344956
-0.485696 -0.0323985 -0.106013
-0.731541 0.0594779 0.0286166
-0.721152 0.128851 -0.634162
-0.926663 0.481481 -0.487497
-0.924273 -0.176835 -0.477971
-0.643754 0.250415 -0.202606
-0.470969 -0.39589 -0.270515
-0.732633 -0.171112 -0.639981
-0.306075 0.213909 -0.197486
-0.655808 -0.122539 -0.29208
-0.709167 0.38484 -0.275643
-0.579521 -0.0443507 -0.25279
-0.698503 -0.0541749 -0.270101
-0.74296 0.13761 -0.526714
-0.447262 0.158474 -0.27974
-0.447983 0.25297 -0.306775
-1.09344 -0.69418 -0.270233
-0.546222 -0.367863 -0.236163
-1.70626 -0.770248 -0.305529
-0.290959 -0.270473 -0.154456
-0.38066 0.112733 -0.227555
-0.32996 0.00940001 -0.120382
-0.262562 0.0262204 -0.828619
-0.60553 -0.0555257 -0.264853
-0.387989 0.234357 -0.169223
-0.203393 0.279753 0.0167056
-0.881514 -0.192444 -0.340374
-1.00478 -0.0874557 -0.664373
-0.453878 0.0758911 -0.32568
-0.465818 0.00915163 -0.198307
-0.435959 0.00184658 -0.305014
-0.584849 0.134678 -0.121647
-0.718805 0.16698 -0.307485
-0.774177 -0.197611 -0.0686757
-0.568724 -0.526912 -0.172295
-0.607604 -0.167459 0.096525
-0.656746 -0.0450905 -0.0700172
-0.744631 -0.134496 -0.332853
-0.591527 -0.13881 -0.0626582
-0.54179 -0.119024 -0.487999
-0.690242 -0.328967 -0.0190456
-0.996472 -0.104532 -0.177317
-0.342877 0.386226 -0.108232
-0.730519 0.300783 -0.0950216
-0.578757 0.289243 -0.104216
-0.257165 0.356864 -0.019873
-0.706771 0.253408 -0.325592
-0.401438 -0.22826 0.0416226
-0.8014 0.336696 -0.397521
-0.393691 -0.113163 -0.0662619
-0.713952 0.262107 -0.498226
-0.781943 -0.190592 -0.253126
-0.715008 0.266425 0.0815141
-0.163223 0.0511769 -0.108373
-0.74321 -0.0167177 0.245711
-0.752938 -0.135996 -0.0668876
-0.806305 -0.42317 0.478321
-0.553318 0.322501 -0.227316
-0.465096 0.0401318 0.0601889
-0.723051 -0.143742 -0.495104
-0.597178 -0.30523 -0.75801
-1.0239 -0.059219 -0.0208659
-0.135864 0.192474 0.0530863
-0.703963 0.289634 -0.0337471
-0.722867 0.26538 0.224244
-0.699633 0.287853 -0.0953547
-0.704941 0.290036 0.0380669
-0.666462 0.0703805 0.160172
-0.620376 0.172778 -0.194264
0.0483271 -0.918969 -1.45939
-0.62625 0.159735 -0.235711
-0.748691 -0.016841 -0.146655
-0.717929 -0.0266705 -0.300488
-0.679063 -0.169999 0.131993
-0.5528 0.273197 0.353112
-0.845457 -0.12801 0.0149935
-0.0637984 0.47294 -1.37862
-0.249718 -0.355936 -0.142103
0.0 0.0 -2.0559
0.0 0.0 -2.03903
-0.579227 0.229689 -0.0102079
-0.448178 -0.227332 -0.0558537
-0.730189 0.105817 0.198192
-0.721155 -0.0267903 -0.215332
0.0880925 -0.345364 -0.670087
-0.732365 -0.171049 -0.0542623
-0.712381 -0.32608 0.125066
-0.0258085 0.351569 -0.113701
-0.386713 -0.022828 -0.405379
0.0 0.0 -2.01941
-0.378435 0.170477 0.332369
-0.732486 -0.171077 0.258452
0.0 0.0 -2.004
-0.12338 0.180655 -1.65434
0.0 0.0 -1.97948
0.0 0.0 -1.96732
0.0 0.0 -1.97899
0.0 0.0 -1.96722
0.0 0.0 -1.97055
0.0 0.0 -1.96535
0.0 0.0 -1.94201
0.0 0.0 -1.93867
0.0 0.0 -1.91277