# vtk DataFile Version 2.0
Generated by lpp.py
ASCII
DATASET POLYDATA
POINTS 527 float
-0.372141 -0.0368344 -0.262498
-0.335736 0.00987061 -0.247492
-0.32225 -0.0146442 -0.239793
-0.311089 -0.014993 -0.236034
-0.311786 -0.0115004 -0.236791
-0.318077 0.0298236 -0.23563
-0.304034 0.00824374 -0.232744
-0.292894 -0.0096544 -0.228082
-0.289908 0.0162496 -0.227064
-0.293695 0.0262317 -0.22675
-0.382448 0.0631263 -0.23383
-0.281158 -0.0068743 -0.22445
-0.286964 0.0265593 -0.223867
-0.293736 0.0332645 -0.224526
-0.269135 0.00269951 -0.219474
-0.270375 0.00637003 -0.219808
-0.275791 0.0134091 -0.221579
-0.281424 0.0258083 -0.221816
-0.263717 -0.0149831 -0.216319
-0.261655 -0.0128238 -0.215701
-0.266531 0.000486409 -0.218478
-0.266205 0.00817705 -0.217962
-0.267022 0.0114993 -0.21814
-0.280239 0.0328002 -0.218107
-0.261382 -0.0181716 -0.213858
-0.252974 -0.00479621 -0.212633
-0.258413 0.00380862 -0.214876
-0.261447 0.0161987 -0.21402
-0.25736 0.02048 -0.212744
-0.267639 0.027794 -0.215481
-0.272002 0.0318604 -0.214982
-0.276359 0.0480621 -0.211682
-0.321236 -0.0684407 -0.211052
-0.24724 -0.00137635 -0.210368
-0.27366 0.0484452 -0.210213
-0.26456 -0.0439967 -0.207793
-0.251934 -0.0315041 -0.207886
-0.242733 -0.0172526 -0.206032
-0.240528 -0.00792722 -0.207193
-0.235605 -0.00997252 -0.204857
-0.23697 0.00617684 -0.205744
-0.24503 0.0142108 -0.207406
-0.236504 -0.0221299 -0.202586
-0.235798 -0.00226803 -0.204447
-0.234092 0.0085576 -0.204467
-0.235436 0.0133058 -0.204587
-0.237944 0.0245599 -0.202875
-0.230146 0.0219563 -0.201198
-0.221815 -0.0107387 -0.198981
-0.22385 -0.00128193 -0.200391
-0.22216 0.0117456 -0.199167
-0.233965 0.0327738 -0.199172
-0.223002 -0.0227139 -0.196881
-0.216301 -0.0210675 -0.195593
-0.212984 -0.0129563 -0.195101
-0.218723 -0.00841582 -0.196826
-0.214911 0.000732374 -0.196579
-0.224888 0.0297501 -0.196142
-0.219365 0.032059 -0.194443
-0.210189 -0.0147508 -0.192622
-0.202655 0.00528967 -0.190309
-0.203692 0.00912897 -0.191611
-0.20982 0.0142203 -0.193621
-0.207939 0.0216307 -0.192038
-0.211555 0.033436 -0.190891
-0.227905 -0.0541873 -0.189649
-0.200534 0.000698507 -0.189245
-0.195956 0.00865929 -0.188061
-0.201279 0.0111536 -0.190282
-0.196747 0.0216498 -0.187087
-0.240457 0.0639593 -0.18894
-0.230867 -0.0634918 -0.18564
-0.193377 -0.0223649 -0.184629
-0.184528 -0.0114671 -0.183358
-0.184395 0.0037518 -0.183242
-0.198554 0.00809455 -0.184328
-0.186541 0.00533419 -0.184666
-0.197094 0.0119865 -0.186264
-0.186554 0.0123542 -0.182939
-0.190352 0.0140162 -0.185479
-0.192187 0.0202345 -0.185666
-0.188636 -0.0329244 -0.181504
-0.186357 -0.034381 -0.180071
-0.190085 -0.0286686 -0.183055
-0.1786 -0.0201096 -0.179883
-0.18132 -0.0149892 -0.181615
-0.17881 -0.0119157 -0.180854
-0.174781 -0.00951252 -0.179481
-0.179288 -0.00562407 -0.180355
-0.202726 -0.00171356 -0.185031
-0.187931 0.00665391 -0.180274
-0.17884 0.0109 -0.179829
-0.18685 0.0176177 -0.182597
-0.177347 0.0191811 -0.179568
-0.185995 0.0243694 -0.182238
-0.182871 0.0294204 -0.179901
-0.224989 -0.0652545 -0.17668
-0.184137 0.000179871 -0.18158
-0.173202 0.00227815 -0.177956
-0.17067 0.00759105 -0.176643
-0.174908 -0.027559 -0.176015
-0.163992 -0.0218522 -0.172475
-0.164551 -0.012292 -0.174459
-0.161378 -0.00746825 -0.172861
-0.166506 -0.00116209 -0.175246
-0.168983 0.00127323 -0.171064
-0.167094 0.00442533 -0.175176
-0.160421 0.00702986 -0.173548
-0.164651 0.010269 -0.173921
-0.165743 0.0201206 -0.174571
-0.183836 0.0444089 -0.176114
-0.16976 -0.048488 -0.169013
-0.162404 -0.0122393 -0.170451
-0.154292 -0.00946835 -0.169717
-0.15013 -0.00575441 -0.169234
-0.16174 -0.00323626 -0.173729
-0.151452 -0.0021658 -0.16989
-0.149513 0.0017883 -0.16795
-0.165748 0.00428136 -0.171225
-0.151692 0.00537016 -0.169894
-0.156936 0.00998667 -0.171863
-0.153369 0.0146287 -0.169904
-0.203573 -0.0766338 -0.166197
-0.160357 -0.0407537 -0.16777
-0.152709 -0.034564 -0.166273
-0.154388 -0.025538 -0.16786
-0.145934 -0.0101419 -0.166177
-0.1443 -0.00639389 -0.166767
-0.144929 -0.00162172 -0.166088
-0.145547 0.00234843 -0.167306
-0.150785 0.00957878 -0.168255
-0.147156 0.00724825 -0.167904
-0.142715 0.00779992 -0.164858
-0.147796 0.0164951 -0.16625
-0.161736 0.0452556 -0.166862
-0.157219 0.0431556 -0.165643
-0.165523 0.0500626 -0.165736
-0.153531 -0.0382598 -0.164525
-0.147985 -0.0249111 -0.163248
-0.139836 -0.0175962 -0.162914
-0.134308 -0.0104498 -0.162358
-0.138608 -0.00757947 -0.164328
-0.135517 -0.00629457 -0.161959
-0.140838 -0.000664744 -0.160693
-0.137382 0.00137268 -0.162872
-0.137445 0.00603894 -0.1638
-0.131945 0.0118266 -0.161192
-0.146409 0.0307762 -0.163417
-0.151278 0.0349578 -0.164629
-0.141372 0.0324843 -0.161986
-0.153745 0.0443164 -0.162752
-0.133966 -0.0322384 -0.159092
-0.13448 -0.0217884 -0.161195
-0.13529 -0.0148293 -0.161291
-0.159747 -0.0147549 -0.159298
-0.148366 -0.00519766 -0.161011
-0.13613 -0.00392867 -0.158183
-0.12369 -0.00482906 -0.158113
-0.129698 -0.000372056 -0.159681
-0.126675 0.0060119 -0.159248
-0.129469 0.00933564 -0.159021
-0.128022 0.0203112 -0.158618
-0.133985 0.0300217 -0.159556
-0.159703 0.0578382 -0.161213
-0.128711 -0.0327626 -0.155687
-0.125624 -0.0281865 -0.155035
-0.12019 -0.0151311 -0.156029
-0.119371 -0.0111394 -0.155955
-0.127548 -0.0108556 -0.15908
-0.12073 -0.004375 -0.155398
-0.11878 0.00190722 -0.155018
-0.131214 0.0074447 -0.153014
-0.124123 0.00375658 -0.156796
-0.138157 0.0101467 -0.158707
-0.122261 0.00791882 -0.15717
-0.126778 0.0113367 -0.155757
-0.121745 0.0131386 -0.156618
-0.117923 0.0161495 -0.154962
-0.123709 0.0202954 -0.15577
-0.113743 -0.0257675 -0.150841
-0.111803 -0.0206143 -0.151829
-0.11311 -0.0154536 -0.151942
-0.107991 -0.0157287 -0.150858
-0.113277 -0.00418089 -0.152702
-0.110115 -0.000441171 -0.152453
-0.110268 0.00591553 -0.151711
-0.107823 0.0140019 -0.149761
-0.155729 0.0283726 -0.153594
-0.108282 -0.0292917 -0.149014
-0.102764 -0.0191883 -0.148218
-0.104975 -0.0154747 -0.148904
-0.117966 -0.0133041 -0.151494
-0.0992286 -0.0105916 -0.147489
-0.107165 -0.00909143 -0.149861
-0.161892 -0.00509894 -0.148161
-0.111687 -0.0045941 -0.147184
-0.102085 -0.00499677 -0.149052
-0.135793 0.00804602 -0.150961
-0.10685 0.0063403 -0.150961
-0.107295 0.00992866 -0.150421
-0.102039 0.0129578 -0.147413
-0.169149 -0.0866998 -0.145778
-0.143849 -0.0748583 -0.144774
-0.136753 -0.0240584 -0.150619
-0.100571 -0.00661293 -0.145959
-0.0937514 -0.00437858 -0.145557
-0.129207 -0.003166 -0.147011
-0.0974833 -0.00291308 -0.146051
-0.0927489 -0.000353149 -0.14511
-0.124449 0.00421839 -0.152527
-0.111893 0.00115461 -0.145142
-0.0995362 0.00302871 -0.147404
-0.0904938 0.0106767 -0.143821
-0.0949111 0.0173172 -0.145138
-0.129118 0.0645457 -0.146142
-0.124326 -0.0474534 -0.146562
-0.0946638 -0.0346915 -0.141137
-0.0826775 -0.0132234 -0.140385
-0.083055 -0.0100652 -0.14071
-0.0915911 -0.00695889 -0.143392
-0.0834908 0.00184142 -0.140113
-0.0837264 0.00583964 -0.141236
-0.0854778 0.011634 -0.141627
-0.0824373 0.0113467 -0.140324
-0.0902428 0.0165837 -0.143232
-0.086239 0.015418 -0.140562
-0.0878477 0.024408 -0.140625
-0.117415 0.0413368 -0.148407
-0.0951948 0.041115 -0.140906
-0.080255 -0.0231828 -0.13781
-0.0797084 -0.00985004 -0.138236
-0.0877091 -0.00872893 -0.139793
-0.0775105 -0.00646415 -0.138564
-0.0787083 -0.00348368 -0.139068
-0.0810038 -0.0016957 -0.140231
-0.106226 0.00394625 -0.143081
-0.077008 0.0124835 -0.138006
-0.0780159 0.0153167 -0.138172
-0.08205 0.0172545 -0.13859
-0.123454 0.0236967 -0.140831
-0.094586 0.0507134 -0.137788
-0.125072 0.0797288 -0.13438
-0.0791264 -0.0280563 -0.133562
-0.069587 -0.0308531 -0.132544
-0.0743026 -0.0214669 -0.135963
-0.0633708 -0.0146478 -0.132179
-0.0773039 -0.0065414 -0.135063
-0.0714921 -0.00852162 -0.135941
-0.068809 -0.0100039 -0.133413
-0.0821332 -0.00346413 -0.13687
-0.0691736 -0.0062589 -0.135042
-0.0752384 -0.00265277 -0.136617
-0.0945802 0.00172949 -0.138906
-0.086842 0.00666414 -0.137781
-0.0727088 0.00894501 -0.135348
-0.0866654 0.00893657 -0.140507
-0.0745016 0.0146354 -0.135676
-0.0682649 0.026741 -0.132679
-0.0585589 -0.0267567 -0.128736
-0.0885926 -0.0177163 -0.136086
-0.0640175 -0.00881626 -0.132597
-0.100359 -0.00428449 -0.133462
-0.0887499 -0.00416866 -0.135731
-0.0579095 -0.00520466 -0.129254
-0.0895467 0.00162213 -0.133336
-0.0735661 0.00275485 -0.132747
-0.0676216 0.00469533 -0.133357
-0.0666133 0.0138415 -0.133446
-0.0638131 0.0202516 -0.130645
-0.0872947 0.032274 -0.132833
-0.0566549 -0.0290992 -0.127486
-0.0550697 -0.0221013 -0.127819
-0.0506847 -0.0134873 -0.125842
-0.0690979 -0.0114712 -0.126988
-0.0518214 -0.00962069 -0.127579
-0.0498723 -0.00177315 -0.126004
-0.0929715 0.00405675 -0.132461
-0.108509 0.00840844 -0.130436
-0.050782 0.013908 -0.126932
-0.0514882 0.0200467 -0.125561
-0.0912155 0.0449326 -0.131728
-0.12394 -0.0965849 -0.121601
-0.0737289 -0.01758 -0.124288
-0.0479114 -0.0168712 -0.123409
-0.0531476 -0.0190386 -0.123437
-0.0658081 -0.0109715 -0.123207
-0.0432581 -0.0101665 -0.120674
-0.0615137 -0.00984305 -0.128235
-0.0452736 -0.0101359 -0.1248
-0.0447949 -0.00624668 -0.12471
-0.06512 -0.000101488 -0.12652
-0.0449699 -0.0017049 -0.123045
-0.0413718 -0.00302267 -0.119723
-0.0448292 0.00827276 -0.124604
-0.0489837 0.0114836 -0.125972
-0.0462906 0.0137166 -0.12502
-0.0525226 0.0155617 -0.124803
-0.0438921 -0.0336079 -0.119171
-0.0861654 -0.0227717 -0.117504
-0.0550456 -0.0166058 -0.117841
-0.0657527 -0.013945 -0.118586
-0.0810284 -0.00998739 -0.12147
-0.0342623 -0.00757411 -0.120146
-0.0706105 -0.00327415 -0.123624
-0.0379192 -0.00578064 -0.120707
-0.0393281 0.00905849 -0.120878
-0.0345605 0.00335933 -0.119703
-0.0719282 0.00591217 -0.125271
-0.075669 0.00859525 -0.122278
-0.0421733 -0.045372 -0.111927
-0.0362559 -0.0199568 -0.116418
-0.0735944 -0.0112739 -0.119709
-0.0333624 -0.0153277 -0.118041
-0.0639566 -0.00160034 -0.11976
-0.0715974 0.000881106 -0.117265
-0.025798 0.000482155 -0.115357
-0.072973 0.00807882 -0.119749
-0.043864 0.0106971 -0.115943
-0.0430315 0.00710154 -0.114892
-0.0184035 0.0081089 -0.112441
-0.0424963 0.0163441 -0.114712
-0.0333969 0.0166515 -0.118981
-0.0561685 0.0199501 -0.117731
-0.0454067 0.0185486 -0.116893
-0.029282 0.0184708 -0.111434
-0.0650884 0.0183019 -0.114605
-0.0460272 0.0254898 -0.121237
-0.0328069 0.0241409 -0.116707
-0.0385542 0.0420001 -0.116212
-0.0380147 -0.0308917 -0.113563
-0.0320381 -0.0198879 -0.110445
-0.0507169 -0.0059624 -0.111022
-0.0308854 -0.00229993 -0.114897
-0.0718502 -0.00128976 -0.113318
-0.0370296 -0.00175174 -0.121146
-0.0670405 -0.00106124 -0.113874
-0.0598439 -0.00322693 -0.114657
-0.0548535 0.00830009 -0.111941
-0.0526744 0.00470342 -0.110525
-0.0383186 0.00938988 -0.113007
-0.026152 0.00649454 -0.112402
-0.0458367 0.0179021 -0.111806
-0.049275 0.0257534 -0.11639
-0.0551771 0.0713721 -0.113842
-0.0190361 -0.0171539 -0.10424
-0.0600176 -0.01344 -0.110829
-0.0339051 -0.015012 -0.107083
-0.0260202 -0.0102675 -0.107029
-0.0591268 -0.00755312 -0.111377
-0.0179716 -0.00585812 -0.111955
-0.0279984 0.00139403 -0.113209
-0.0139438 -0.00021116 -0.108514
-0.0239169 0.00230166 -0.106603
-0.0183946 0.00113426 -0.109586
-0.0143428 0.0011825 -0.105395
-0.00900146 0.0052536 -0.108554
-0.0421393 0.00974459 -0.110102
-0.0207376 0.0112474 -0.11005
-0.030006 0.0162281 -0.109482
-0.0278222 0.0239944 -0.112686
-0.0422236 0.0256869 -0.108826
-0.0317023 -0.0224734 -0.104815
-0.00909294 -0.0205084 -0.103752
-0.0169034 -0.0246024 -0.110105
-0.025409 -0.0148868 -0.113527
-0.0723826 -0.0113047 -0.10738
-0.0339216 -0.0108305 -0.109116
-0.0189736 -0.00955417 -0.105378
-0.0550001 -0.00509013 -0.103239
-0.0110376 -0.00934931 -0.10594
-0.00464097 0.0279351 -0.105188
-0.0297512 0.0270395 -0.116108
-0.0241825 -0.0284348 -0.111109
-0.00614411 -0.00999774 -0.105828
-0.0263741 -0.00691528 -0.115801
-0.0296377 0.00402681 -0.109986
-0.0286001 0.0181131 -0.102286
-0.0994457 -0.111473 -0.0972455
-0.0120702 -0.0310591 -0.105221
-0.0251383 -0.00473509 -0.106939
-0.0209183 0.00822689 -0.10889
-0.0700673 0.0139165 -0.0953371
-0.0206424 0.0188006 -0.113234
-0.0307015 0.0312584 -0.114375
-0.00710221 -0.00524105 -0.108622
-0.0588712 0.00431241 -0.0960193
-0.027543 0.0127475 -0.110612
-0.00572358 -0.0338924 -0.103558
-0.0360406 -0.0107707 -0.104684
-0.0107977 0.0207434 -0.108175
-0.0208051 -0.0158491 -0.107766
-0.00402127 0.0184464 -0.106876
-0.00227055 0.0312521 -0.103015
-0.0138788 -0.0115128 -0.0986439
-0.00452227 -0.00895877 -0.100547
-0.0163368 0.0276055 -0.0980334
-0.0310951 -0.0211048 -0.0936486
-0.0255212 -0.0188191 -0.09357
-0.0309382 -0.0143436 -0.0941985
-0.0293509 -0.033146 -0.0886368
-0.0320071 -0.0281976 -0.0862533
-0.0167287 0.0346143 -0.0843413
-0.00861311 -0.032902 -0.0795921
-0.0067008 -0.0244725 -0.0795145
-0.0345167 0.0199359 -0.07872
-0.0102129 0.026364 -0.0817802
-0.0253872 0.0292455 -0.0805721
-0.0215899 -0.032029 -0.0753273
-0.0188515 -0.0128461 -0.0775796
-0.0197841 0.0271245 -0.0779364
-0.00353272 -0.0272708 -0.0719699
-0.00986991 -0.0209412 -0.0736878
-0.000199364 0.0312143 -0.0734652
-0.0216218 -0.0125549 -0.0680924
-0.0307277 0.0146238 -0.0676181
-0.00135906 0.0258167 -0.069663
-0.00957752 0.00477992 -0.0653326
-0.0156564 0.0202325 -0.0658167
-0.030871 -0.0154504 -0.0618606
-0.0109636 0.00917349 -0.0608863
-0.0102718 -0.0251226 -0.0585028
-0.00247583 -0.0265002 -0.0581115
-0.0147423 -0.0238404 -0.0580799
-0.0143365 -0.0207127 -0.0587882
-0.0129094 -0.00700653 -0.0589875
-0.0277579 0.0221297 -0.0582598
-0.0214542 0.0290903 -0.0565313
-0.00105657 -0.0205112 -0.0544667
-0.00025791 0.0157383 -0.0545828
-0.0298384 -0.0293729 -0.0503686
-0.00282712 -0.0111117 -0.0514884
-0.011677 0.00513367 -0.0515782
-0.000325902 0.0289653 -0.0509073
-0.0218405 0.0334821 -0.0497097
-0.0337823 0.0338204 -0.0475737
-0.0127347 0.0169384 -0.0428001
-0.0181237 -0.0337278 -0.0387278
-0.00102814 -0.03181 -0.0390239
-0.0198718 -0.0203219 -0.0386004
-0.0257322 0.00190826 -0.0383793
-0.0194974 0.022596 -0.0394366
-0.01174 0.0219768 -0.0385128
-0.000358392 0.0328052 -0.0408205
-0.0343819 0.028377 -0.035469
-0.00101568 0.0056222 -0.030674
-0.0281948 -0.013967 -0.0286249
-0.0120116 -0.0134242 -0.028714
-0.00462244 9.1073e-05 -0.0277422
-0.0161376 -0.0192303 -0.0251959
-0.0331715 -0.0118968 -0.0240218
-0.0255961 -0.00430439 -0.0263324
-0.0264805 0.00467646 -0.0239489
-0.018075 -0.00126405 -0.0193496
-0.00409419 0.00427664 -0.0191503
-0.0295882 0.0195227 -0.019243
-0.0264186 -0.030143 -0.0163317
-0.00508037 0.000411699 -0.0186335
-0.00823198 0.0339661 -0.0162572
-0.0256024 -0.0167951 -0.0141983
-0.0222375 0.00717374 -0.0130291
-0.0337467 -0.0328342 -0.0111211
-0.0317433 0.00370031 -0.0103389
-0.015542 0.0071378 -0.00829099
-0.00437192 0.00713358 -0.0077402
-0.0073296 0.0298152 -0.00977881
-0.0198207 -0.0299006 -0.00549296
-0.00122887 -0.00913746 -0.00681195
-0.0115665 0.0103978 -0.00542907
-0.0185142 0.0141667 -0.00532691
-0.0152615 0.0186818 -0.00101006
-0.00708289 -0.0254512 7.74637e-05
-0.0201134 0.00549128 0.000126271
-0.0145897 0.00651434 0.00093215
-0.01865 0.0185516 0.00112829
-0.0299353 0.029374 0.00259081
-0.00853525 -0.0314194 0.00561795
-0.0138113 -0.00480769 0.00511434
-0.0273788 0.000547331 0.00716535
-0.0222014 -0.0164865 0.00776755
-0.0163947 0.00745233 0.00834965
-0.0196223 0.0153824 0.00831328
-0.00173502 0.0250629 0.00735205
-0.0143318 -0.0241319 0.0147866
-0.0113106 0.00957326 0.0140726
-0.0163221 -0.0327697 0.0162219
-0.0294293 -0.020276 0.0149046
-0.00944666 -0.00903849 0.0172156
-0.0340628 -0.00161366 0.0161846
-0.0203247 -0.014912 0.0202776
-0.0315763 -0.00146741 0.0216757
-0.0189274 0.01843 0.0214564
-0.0224144 0.0214972 0.020235
-0.000963089 -0.0178458 0.0232687
-0.00779733 0.000323918 0.0246777
-0.0117135 0.0109309 0.0238452
-0.0347719 0.0260351 0.0250279
-0.0126158 -0.020575 0.0275556
-0.0226812 0.0149911 0.0276576
-0.0112672 0.0341052 0.0297882
-0.0239985 -0.0202099 0.0331841
-0.0124861 -0.0171558 0.033323
-0.0130711 -0.00846836 0.0303501
-0.00806895 -0.0100837 0.0301293
-0.0201229 0.0106951 0.0336942
-0.00412293 0.0155838 0.031595
-0.0333008 0.0206976 0.0329074
-0.0277052 -0.0163362 0.0344849
-0.00892696 -0.0121328 0.0355243
-0.0243328 -0.00999095 0.0353992
-0.00135906 0.0307102 0.0361877
-0.0208219 -0.0250239 0.0395656
-0.00576254 -0.0269712 0.0406703
-0.018107 0.00523948 0.0413872
-0.013022 0.0149229 0.0387849
-0.0250664 0.0196123 0.0388684
-0.0154321 -0.0312994 0.043885
-0.0298938 -0.0245662 0.0416274
-0.0316665 -0.0187949 0.0442091
-0.0275845 -0.0163322 0.043245
-0.0300524 0.00155545 0.0420625
-0.010185 0.0132716 0.043108
-0.0178508 -0.0274682 0.0476411
-0.0097677 0.00158558 0.0489176
-0.0301885 0.0138115 0.0482473
-0.032723 0.0243106 0.0465577
-0.0261072 -0.0120447 0.0503887
-0.00740778 -0.00740569 0.0499109
VERTICES 527 1054
1 0
1 1
1 2
1 3
1 4
1 5
1 6
1 7
1 8
1 9
1 10
1 11
1 12
1 13
1 14
1 15
1 16
1 17
1 18
1 19
1 20
1 21
1 22
1 23
1 24
1 25
1 26
1 27
1 28
1 29
1 30
1 31
1 32
1 33
1 34
1 35
1 36
1 37
1 38
1 39
1 40
1 41
1 42
1 43
1 44
1 45
1 46
1 47
1 48
1 49
1 50
1 51
1 52
1 53
1 54
1 55
1 56
1 57
1 58
1 59
1 60
1 61
1 62
1 63
1 64
1 65
1 66
1 67
1 68
1 69
1 70
1 71
1 72
1 73
1 74
1 75
1 76
1 77
1 78
1 79
1 80
1 81
1 82
1 83
1 84
1 85
1 86
1 87
1 88
1 89
1 90
1 91
1 92
1 93
1 94
1 95
1 96
1 97
1 98
1 99
1 100
1 101
1 102
1 103
1 104
1 105
1 106
1 107
1 108
1 109
1 110
1 111
1 112
1 113
1 114
1 115
1 116
1 117
1 118
1 119
1 120
1 121
1 122
1 123
1 124
1 125
1 126
1 127
1 128
1 129
1 130
1 131
1 132
1 133
1 134
1 135
1 136
1 137
1 138
1 139
1 140
1 141
1 142
1 143
1 144
1 145
1 146
1 147
1 148
1 149
1 150
1 151
1 152
1 153
1 154
1 155
1 156
1 157
1 158
1 159
1 160
1 161
1 162
1 163
1 164
1 165
1 166
1 167
1 168
1 169
1 170
1 171
1 172
1 173
1 174
1 175
1 176
1 177
1 178
1 179
1 180
1 181
1 182
1 183
1 184
1 185
1 186
1 187
1 188
1 189
1 190
1 191
1 192
1 193
1 194
1 195
1 196
1 197
1 198
1 199
1 200
1 201
1 202
1 203
1 204
1 205
1 206
1 207
1 208
1 209
1 210
1 211
1 212
1 213
1 214
1 215
1 216
1 217
1 218
1 219
1 220
1 221
1 222
1 223
1 224
1 225
1 226
1 227
1 228
1 229
1 230
1 231
1 232
1 233
1 234
1 235
1 236
1 237
1 238
1 239
1 240
1 241
1 242
1 243
1 244
1 245
1 246
1 247
1 248
1 249
1 250
1 251
1 252
1 253
1 254
1 255
1 256
1 257
1 258
1 259
1 260
1 261
1 262
1 263
1 264
1 265
1 266
1 267
1 268
1 269
1 270
1 271
1 272
1 273
1 274
1 275
1 276
1 277
1 278
1 279
1 280
1 281
1 282
1 283
1 284
1 285
1 286
1 287
1 288
1 289
1 290
1 291
1 292
1 293
1 294
1 295
1 296
1 297
1 298
1 299
1 300
1 301
1 302
1 303
1 304
1 305
1 306
1 307
1 308
1 309
1 310
1 311
1 312
1 313
1 314
1 315
1 316
1 317
1 318
1 319
1 320
1 321
1 322
1 323
1 324
1 325
1 326
1 327
1 328
1 329
1 330
1 331
1 332
1 333
1 334
1 335
1 336
1 337
1 338
1 339
1 340
1 341
1 342
1 343
1 344
1 345
1 346
1 347
1 348
1 349
1 350
1 351
1 352
1 353
1 354
1 355
1 356
1 357
1 358
1 359
1 360
1 361
1 362
1 363
1 364
1 365
1 366
1 367
1 368
1 369
1 370
1 371
1 372
1 373
1 374
1 375
1 376
1 377
1 378
1 379
1 380
1 381
1 382
1 383
1 384
1 385
1 386
1 387
1 388
1 389
1 390
1 391
1 392
1 393
1 394
1 395
1 396
1 397
1 398
1 399
1 400
1 401
1 402
1 403
1 404
1 405
1 406
1 407
1 408
1 409
1 410
1 411
1 412
1 413
1 414
1 415
1 416
1 417
1 418
1 419
1 420
1 421
1 422
1 423
1 424
1 425
1 426
1 427
1 428
1 429
1 430
1 431
1 432
1 433
1 434
1 435
1 436
1 437
1 438
1 439
1 440
1 441
1 442
1 443
1 444
1 445
1 446
1 447
1 448
1 449
1 450
1 451
1 452
1 453
1 454
1 455
1 456
1 457
1 458
1 459
1 460
1 461
1 462
1 463
1 464
1 465
1 466
1 467
1 468
1 469
1 470
1 471
1 472
1 473
1 474
1 475
1 476
1 477
1 478
1 479
1 480
1 481
1 482
1 483
1 484
1 485
1 486
1 487
1 488
1 489
1 490
1 491
1 492
1 493
1 494
1 495
1 496
1 497
1 498
1 499
1 500
1 501
1 502
1 503
1 504
1 505
1 506
1 507
1 508
1 509
1 510
1 511
1 512
1 513
1 514
1 515
1 516
1 517
1 518
1 519
1 520
1 521
1 522
1 523
1 524
1 525
1 526
POINT_DATA 527
VECTORS i float
0.0 0.0 0.0
0.0 0.0 0.0
0.0 0.0 0.0
0.0 0.0 0.0
0.0 0.0 0.0
0.0 0.0 0.0
0.0 0.0 0.0
0.0 0.0 0.0
0.0 0.0 0.0
0.0 0.0 0.0
0.0 0.0 0.0
0.0 0.0 0.0
0.0 0.0 0.0
0.0 0.0 0.0
0.0 0.0 0.0
0.0 0.0 0.0
0.0 0.0 0.0
0.0 0.0 0.0
0.0 0.0 0.0
0.0 0.0 0.0
0.0 0.0 0.0
0.0 0.0 0.0
0.0 0.0 0.0
0.0 0.0 0.0
0.0 0.0 0.0
0.0 0.0 0.0
0.0 0.0 0.0
0.0 0.0 0.0
0.0 0.0 0.0
0.0 0.0 0.0
0.0 0.0 0.0
0.0 0.0 0.0
0.0 0.0 0.0
0.0 0.0 0.0
0.0 0.0 0.0
0.0 0.0 0.0
0.0 0.0 0.0
0.0 0.0 0.0
0.0 0.0 0.0
0.0 0.0 0.0
0.0 0.0 0.0
0.0 0.0 0.0
0.0 0.0 0.0
0.0 0.0 0.0
0.0 0.0 0.0
0.0 0.0 0.0
0.0 0.0 0.0
0.0 0.0 0.0
0.0 0.0 0.0
0.0 0.0 0.0
0.0 0.0 0.0
0.0 0.0 0.0
0.0 0.0 0.0
0.0 0.0 0.0
0.0 0.0 0.0
0.0 0.0 0.0
0.0 0.0 0.0
0.0 0.0 0.0
0.0 0.0 0.0
0.0 0.0 0.0
0.0 0.0 0.0
0.0 0.0 0.0
0.0 0.0 0.0
0.0 0.0 0.0
0.0 0.0 0.0
0.0 0.0 0.0
0.0 0.0 0.0
0.0 0.0 0.0
0.0 0.0 0.0
0.0 0.0 0.0
0.0 0.0 0.0
0.0 0.0 0.0
0.0 0.0 0.0
0.0 0.0 0.0
0.0 0.0 0.0
0.0 0.0 0.0
0.0 0.0 0.0
0.0 0.0 0.0
0.0 0.0 0.0
0.0 0.0 0.0
0.0 0.0 0.0
0.0 0.0 0.0
0.0 0.0 0.0
0.0 0.0 0.0
0.0 0.0 0.0
0.0 0.0 0.0
0.0 0.0 0.0
0.0 0.0 0.0
0.0 0.0 0.0
0.0 0.0 0.0
0.0 0.0 0.0
0.0 0.0 0.0
0.0 0.0 0.0
0.0 0.0 0.0
0.0 0.0 0.0
0.0 0.0 0.0
0.0 0.0 0.0
0.0 0.0 0.0
0.0 0.0 0.0
0.0 0.0 0.0
0.0 0.0 0.0
0.0 0.0 0.0
0.0 0.0 0.0
0.0 0.0 0.0
0.0 0.0 0.0
0.0 0.0 0.0
0.0 0.0 0.0
0.0 0.0 0.0
0.0 0.0 0.0
0.0 0.0 0.0
0.0 0.0 0.0
0.0 0.0 0.0
0.0 0.0 0.0
0.0 0.0 0.0
0.0 0.0 0.0
0.0 0.0 0.0
0.0 0.0 0.0
0.0 0.0 0.0
0.0 0.0 0.0
0.0 0.0 0.0
0.0 0.0 0.0
0.0 0.0 0.0
0.0 0.0 0.0
0.0 0.0 0.0
0.0 0.0 0.0
0.0 0.0 0.0
0.0 0.0 0.0
0.0 0.0 0.0
0.0 0.0 0.0
0.0 0.0 0.0
0.0 0.0 0.0
0.0 0.0 0.0
0.0 0.0 0.0
0.0 0.0 0.0
0.0 0.0 0.0
0.0 0.0 0.0
0.0 0.0 0.0
0.0 0.0 0.0
0.0 0.0 0.0
0.0 0.0 0.0
0.0 0.0 0.0
0.0 0.0 0.0
0.0 0.0 0.0
0.0 0.0 0.0
0.0 0.0 0.0
0.0 0.0 0.0
0.0 0.0 0.0
0.0 0.0 0.0
0.0 0.0 0.0
0.0 0.0 0.0
0.0 0.0 0.0
0.0 0.0 0.0
0.0 0.0 0.0
0.0 0.0 0.0
0.0 0.0 0.0
0.0 0.0 0.0
0.0 0.0 0.0
0.0 0.0 0.0
0.0 0.0 0.0
0.0 0.0 0.0
0.0 0.0 0.0
0.0 0.0 0.0
0.0 0.0 0.0
0.0 0.0 0.0
0.0 0.0 0.0
0.0 0.0 0.0
0.0 0.0 0.0
0.0 0.0 0.0
0.0 0.0 0.0
0.0 0.0 0.0
0.0 0.0 0.0
0.0 0.0 0.0
0.0 0.0 0.0
0.0 0.0 0.0
0.0 0.0 0.0
0.0 0.0 0.0
0.0 0.0 0.0
0.0 0.0 0.0
0.0 0.0 0.0
0.0 0.0 0.0
0.0 0.0 0.0
0.0 0.0 0.0
0.0 0.0 0.0
0.0 0.0 0.0
0.0 0.0 0.0
0.0 0.0 0.0
0.0 0.0 0.0
0.0 0.0 0.0
0.0 0.0 0.0
0.0 0.0 0.0
0.0 0.0 0.0
0.0 0.0 0.0
0.0 0.0 0.0
0.0 0.0 0.0
0.0 0.0 0.0
0.0 0.0 0.0
0.0 0.0 0.0
0.0 0.0 0.0
0.0 0.0 0.0
0.0 0.0 0.0
0.0 0.0 0.0
0.0 0.0 0.0
0.0 0.0 0.0
0.0 0.0 0.0
0.0 0.0 0.0
0.0 0.0 0.0
0.0 0.0 0.0
0.0 0.0 0.0
0.0 0.0 0.0
0.0 0.0 0.0
0.0 0.0 0.0
0.0 0.0 0.0
0.0 0.0 0.0
0.0 0.0 0.0
0.0 0.0 0.0
0.0 0.0 0.0
0.0 0.0 0.0
0.0 0.0 0.0
0.0 0.0 0.0
0.0 0.0 0.0
0.0 0.0 0.0
0.0 0.0 0.0
0.0 0.0 0.0
0.0 0.0 0.0
0.0 0.0 0.0
0.0 0.0 0.0
0.0 0.0 0.0
0.0 0.0 0.0
0.0 0.0 0.0
0.0 0.0 0.0
0.0 0.0 0.0
0.0 0.0 0.0
0.0 0.0 0.0
0.0 0.0 0.0
0.0 0.0 0.0
0.0 0.0 0.0
0.0 0.0 0.0
0.0 0.0 0.0
0.0 0.0 0.0
0.0 0.0 0.0
0.0 0.0 0.0
0.0 0.0 0.0
0.0 0.0 0.0
0.0 0.0 0.0
0.0 0.0 0.0
0.0 0.0 0.0
0.0 0.0 0.0
0.0 0.0 0.0
0.0 0.0 0.0
0.0 0.0 0.0
0.0 0.0 0.0
0.0 0.0 0.0
0.0 0.0 0.0
0.0 0.0 0.0
0.0 0.0 0.0
0.0 0.0 0.0
0.0 0.0 0.0
0.0 0.0 0.0
0.0 0.0 0.0
0.0 0.0 0.0
0.0 0.0 0.0
0.0 0.0 0.0
0.0 0.0 0.0
0.0 0.0 0.0
0.0 0.0 0.0
0.0 0.0 0.0
0.0 0.0 0.0
0.0 0.0 0.0
0.0 0.0 0.0
0.0 0.0 0.0
0.0 0.0 0.0
0.0 0.0 0.0
0.0 0.0 0.0
0.0 0.0 0.0
0.0 0.0 0.0
0.0 0.0 0.0
0.0 0.0 0.0
0.0 0.0 0.0
0.0 0.0 0.0
0.0 0.0 0.0
0.0 0.0 0.0
0.0 0.0 0.0
0.0 0.0 0.0
0.0 0.0 0.0
0.0 0.0 0.0
0.0 0.0 0.0
0.0 0.0 0.0
0.0 0.0 0.0
0.0 0.0 0.0
0.0 0.0 0.0
0.0 0.0 0.0
0.0 0.0 0.0
0.0 0.0 0.0
0.0 0.0 0.0
0.0 0.0 0.0
0.0 0.0 0.0
0.0 0.0 0.0
0.0 0.0 0.0
0.0 0.0 0.0
0.0 0.0 0.0
0.0 0.0 0.0
0.0 0.0 0.0
0.0 0.0 0.0
0.0 0.0 0.0
0.0 0.0 0.0
0.0 0.0 0.0
0.0 0.0 0.0
0.0 0.0 0.0
0.0 0.0 0.0
0.0 0.0 0.0
0.0 0.0 0.0
0.0 0.0 0.0
0.0 0.0 0.0
0.0 0.0 0.0
0.0 0.0 0.0
0.0 0.0 0.0
0.0 0.0 0.0
0.0 0.0 0.0
0.0 0.0 0.0
0.0 0.0 0.0
0.0 0.0 0.0
0.0 0.0 0.0
0.0 0.0 0.0
0.0 0.0 0.0
0.0 0.0 0.0
0.0 0.0 0.0
0.0 0.0 0.0
0.0 0.0 0.0
0.0 0.0 0.0
0.0 0.0 0.0
0.0 0.0 0.0
0.0 0.0 0.0
0.0 0.0 0.0
0.0 0.0 0.0
0.0 0.0 0.0
0.0 0.0 0.0
0.0 0.0 0.0
0.0 0.0 0.0
0.0 0.0 0.0
0.0 0.0 0.0
0.0 0.0 0.0
0.0 0.0 0.0
0.0 0.0 0.0
0.0 0.0 0.0
0.0 0.0 0.0
0.0 0.0 0.0
0.0 0.0 0.0
0.0 0.0 0.0
0.0 0.0 0.0
0.0 0.0 0.0
0.0 0.0 0.0
0.0 0.0 0.0
0.0 0.0 0.0
0.0 0.0 0.0
0.0 0.0 0.0
0.0 0.0 0.0
0.0 0.0 0.0
0.0 0.0 0.0
0.0 0.0 0.0
0.0 0.0 0.0
0.0 0.0 0.0
0.0 0.0 0.0
0.0 0.0 0.0
0.0 0.0 0.0
0.0 0.0 0.0
0.0 0.0 0.0
0.0 0.0 0.0
0.0 0.0 0.0
0.0 0.0 0.0
0.0 0.0 0.0
0.0 0.0 0.0
0.0 0.0 0.0
0.0 0.0 0.0
0.0 0.0 0.0
0.0 0.0 0.0
0.0 0.0 0.0
0.0 0.0 0.0
0.0 0.0 0.0
0.0 0.0 0.0
0.0 0.0 0.0
0.0 0.0 0.0
0.0 0.0 0.0
0.0 0.0 0.0
0.0 0.0 0.0
0.0 0.0 0.0
0.0 0.0 0.0
0.0 0.0 0.0
0.0 0.0 0.0
0.0 0.0 0.0
0.0 0.0 0.0
0.0 0.0 0.0
0.0 0.0 0.0
0.0 0.0 0.0
0.0 0.0 0.0
0.0 0.0 0.0
0.0 0.0 0.0
0.0 0.0 0.0
0.0 0.0 0.0
0.0 0.0 0.0
0.0 0.0 0.0
0.0 0.0 0.0
0.0 0.0 0.0
0.0 0.0 0.0
0.0 0.0 0.0
0.0 0.0 0.0
0.0 0.0 0.0
0.0 0.0 0.0
0.0 0.0 0.0
0.0 0.0 0.0
0.0 0.0 0.0
0.0 0.0 0.0
0.0 0.0 0.0
0.0 0.0 0.0
0.0 0.0 0.0
0.0 0.0 0.0
0.0 0.0 0.0
0.0 0.0 0.0
0.0 0.0 0.0
0.0 0.0 0.0
0.0 0.0 0.0
0.0 0.0 0.0
0.0 0.0 0.0
0.0 0.0 0.0
0.0 0.0 0.0
0.0 0.0 0.0
0.0 0.0 0.0
0.0 0.0 0.0
0.0 0.0 0.0
0.0 0.0 0.0
0.0 0.0 0.0
0.0 0.0 0.0
0.0 0.0 0.0
0.0 0.0 0.0
0.0 0.0 0.0
0.0 0.0 0.0
0.0 0.0 0.0
0.0 0.0 0.0
0.0 0.0 0.0
0.0 0.0 0.0
0.0 0.0 0.0
0.0 0.0 0.0
0.0 0.0 0.0
0.0 0.0 0.0
0.0 0.0 0.0
0.0 0.0 0.0
0.0 0.0 0.0
0.0 0.0 0.0
0.0 0.0 0.0
0.0 0.0 0.0
0.0 0.0 0.0
0.0 0.0 0.0
0.0 0.0 0.0
0.0 0.0 0.0
0.0 0.0 0.0
0.0 0.0 0.0
0.0 0.0 0.0
0.0 0.0 0.0
0.0 0.0 0.0
0.0 0.0 0.0
0.0 0.0 0.0
0.0 0.0 0.0
0.0 0.0 0.0
0.0 0.0 0.0
0.0 0.0 0.0
0.0 0.0 0.0
0.0 0.0 0.0
0.0 0.0 0.0
0.0 0.0 0.0
0.0 0.0 0.0
0.0 0.0 0.0
0.0 0.0 0.0
0.0 0.0 0.0
0.0 0.0 0.0
0.0 0.0 0.0
0.0 0.0 0.0
0.0 0.0 0.0
0.0 0.0 0.0
0.0 0.0 0.0
0.0 0.0 0.0
0.0 0.0 0.0
0.0 0.0 0.0
0.0 0.0 0.0
0.0 0.0 0.0
0.0 0.0 0.0
0.0 0.0 0.0
0.0 0.0 0.0
0.0 0.0 0.0
0.0 0.0 0.0
0.0 0.0 0.0
0.0 0.0 0.0
0.0 0.0 0.0
0.0 0.0 0.0
0.0 0.0 0.0
0.0 0.0 0.0
0.0 0.0 0.0
0.0 0.0 0.0
0.0 0.0 0.0
0.0 0.0 0.0
0.0 0.0 0.0
0.0 0.0 0.0
0.0 0.0 0.0
0.0 0.0 0.0
0.0 0.0 0.0
0.0 0.0 0.0
0.0 0.0 0.0
0.0 0.0 0.0
0.0 0.0 0.0
0.0 0.0 0.0
0.0 0.0 0.0
0.0 0.0 0.0
0.0 0.0 0.0
0.0 0.0 0.0
0.0 0.0 0.0
0.0 0.0 0.0
0.0 0.0 0.0
0.0 0.0 0.0
0.0 0.0 0.0
0.0 0.0 0.0
0.0 0.0 0.0
0.0 0.0 0.0
0.0 0.0 0.0
0.0 0.0 0.0
0.0 0.0 0.0
0.0 0.0 0.0
0.0 0.0 0.0
0.0 0.0 0.0
0.0 0.0 0.0
VECTORS f float
0.0 0.0 -0.000346714
0.0 0.0 -0.000346714
-0.000898121 0.000648922 0.0163544
-8.36542e-05 2.85275e-05 -3.84157e-05
0.0 0.0 -0.000346714
-6.55248e-05 -5.54292e-05 -8.35143e-05
-0.000403589 -6.04919e-05 -0.000191487
-0.000397698 0.00010266 -0.000202044
6.61479e-06 1.53502e-05 -0.000352928
-8.40521e-05 -3.8305e-05 -4.15117e-05
0.0 0.0 -0.000346714
-8.73276e-05 7.03585e-06 -4.12508e-05
0.0 0.0 -0.000346714
0.0 0.0 -0.000346714
-0.000242507 -3.57348e-05 0.000328196
3.90696e-05 -3.32936e-05 0.000255315
0.0 0.0 -0.000346714
-6.7011e-05 -2.47506e-05 -8.81029e-05
-0.000140509 3.73474e-05 0.000107928
-3.1748e-05 6.3533e-06 -0.000198201
0.0 0.0 -0.000346714
-8.55187e-05 -9.95606e-06 -4.54572e-05
-8.9494e-05 -1.05889e-05 -3.29096e-05
0.000566014 -9.74818e-05 0.00264663
0.0 0.0 -0.00160516
-8.23643e-05 8.5358e-06 -5.26835e-05
0.0 0.0 -0.000346714
-0.000516983 -0.000175396 9.86014e-05
-0.000171891 -6.46942e-05 0.00013872
5.8351e-06 1.96478e-05 -0.000358115
-0.00033574 -0.00022912 -0.000327789
0.000262546 0.000141612 -0.00074663
0.0 0.0 -0.000346714
-0.00015346 -1.67178e-05 0.000119252
0.0 0.0 -0.000346714
0.000222853 -0.000504617 -0.00254553
0.0 0.0 -0.000346714
-0.000364115 0.000138287 -0.000207822
-1.79418e-05 -0.000138511 0.00200017
0.0 0.0 -0.000346714
-8.8134e-05 -6.91868e-06 -3.57584e-05
-0.000348817 -0.000128491 -3.64221e-05
0.0 0.0 -0.00160516
-0.000417322 1.27033e-05 -0.000155562
-8.87088e-05 -6.93553e-06 -3.62476e-05
-7.7841e-05 -2.42812e-05 -6.79118e-05
0.0 0.0 -0.00160516
-8.62633e-05 -2.70861e-05 -3.91174e-05
0.0 0.0 -0.000346714
0.0 0.0 -0.000346714
-9.03262e-05 -2.58821e-05 -3.64129e-05
-0.000416981 -0.000248641 -0.000166276
0.0 0.0 -0.00160516
2.64067e-05 4.76314e-05 -1.66874e-05
-0.000113066 2.71217e-05 5.62842e-06
-0.000415864 9.12824e-05 -0.000148473
-0.000117579 -3.34901e-06 -4.72065e-05
0.0 0.0 -0.00160516
-6.65978e-05 -3.84957e-05 -8.1825e-05
0.0 0.0 -0.00160516
-6.25999e-05 -3.56539e-06 -0.00100438
-0.000100076 -2.59039e-05 -7.49139e-06
0.0 0.0 -0.000346714
8.23103e-06 -3.97856e-06 -0.000223741
0.0 0.0 -0.000346714
-7.10436e-05 9.85436e-05 -5.80168e-05
0.0 0.0 -0.00160516
0.0 0.0 -0.000346714
0.0 0.0 -0.000346714
0.0 0.0 -0.000346714
-1.6181e-05 -2.38139e-05 -0.000199017
-3.16544e-05 5.74246e-05 -1.75275e-05
0.0 0.0 -0.00160516
-7.75978e-05 2.19685e-05 -6.19356e-05
0.0 0.0 -0.000346714
0.0 0.0 -0.00160516
1.47201e-05 -5.18121e-05 -7.04166e-05
0.0 0.0 -0.000346714
-0.000421995 -9.12316e-05 -0.000133776
-0.000145949 -3.13917e-05 4.84981e-05
-0.000140515 -5.36598e-05 1.52907e-06
0.0 0.0 -0.000346714
0.0 0.0 -0.000346714
0.0 0.0 -0.000346714
0.00053328 5.3475e-05 -0.00163237
-7.38815e-05 2.14793e-05 -6.48121e-05
0.0 0.0 -0.000346714
-8.89628e-05 1.74601e-05 -3.93931e-05
-0.000572464 2.7087e-05 8.12096e-05
0.0 0.0 -0.00160516
0.0 0.0 -0.000346714
-0.000410153 -8.21529e-05 -0.000181256
-0.00217699 -0.00119581 0.000602904
-9.66025e-06 4.47737e-08 -0.000245443
-8.56084e-05 -4.11258e-05 -4.4261e-05
-4.46989e-05 -2.16454e-05 -0.000135343
0.0 0.0 -0.000346714
0.0 0.0 -0.000346714
-0.00070753 2.80532e-05 0.000449978
-0.00097627 0.000622848 -0.00142679
0.00139384 0.000315684 0.0118159
-9.59114e-06 -1.62427e-05 -0.0012848
0.0 0.0 -0.000346714
4.16094e-05 0.000205106 -0.000574637
0.0 0.0 -0.000346714
0.0 0.0 -0.000346714
0.00118571 -0.00129169 3.90723e-05
-8.71821e-05 -1.83475e-05 -3.55871e-05
-0.00039991 -8.42087e-05 -0.000171152
-8.70565e-05 -4.00524e-05 -4.07585e-05
-7.80029e-05 -6.39327e-05 -5.35868e-05
0.0 0.0 -0.000346714
0.0 0.0 -0.00160516
-0.000265722 3.71979e-05 -0.000555539
1.50939e-05 -4.93819e-05 0.00031249
0.0 0.0 -0.000346714
-9.31946e-05 -2.71921e-06 -2.14252e-05
8.58147e-05 -0.000126781 3.75851e-05
0.0 0.0 -0.000346714
-9.02582e-05 -5.09654e-06 -3.92775e-05
-6.04018e-05 -1.53074e-05 0.000167516
0.0 0.0 -0.000346714
-4.89508e-05 0.000111969 -0.000104686
0.0 0.0 -0.000346714
0.0 0.0 -0.000346714
0.000103714 0.000535032 0.000217639