# vtk DataFile Version 2.0
Generated by lpp.py
ASCII
DATASET POLYDATA
POINTS 652 float
-0.0160217 0.00701973 0.0491648
-0.0212333 0.0212522 0.0507389
-0.487018 -0.00612075 -0.370271
-0.460956 -0.00940572 -0.347064
-0.443777 -0.00431002 -0.339674
-0.458474 0.0293794 -0.33798
-0.450575 0.000436186 -0.334029
-0.432751 0.0102967 -0.322925
-0.423415 -0.00612439 -0.310513
-0.426924 0.0305212 -0.308477
-0.459516 -0.0542295 -0.307014
-0.418374 0.0283407 -0.305048
-0.409449 0.0163853 -0.302619
-0.406863 0.025178 -0.295603
-0.401587 -0.00695738 -0.294459
-0.404343 0.0284337 -0.292047
-0.397088 0.0174698 -0.289714
-0.411767 0.0381954 -0.290627
-0.399905 -0.0157489 -0.285595
-0.390111 -0.000953362 -0.283931
-0.392917 -9.96652e-05 -0.287446
-0.393234 0.00570232 -0.287527
-0.392557 0.0124194 -0.285485
-0.401958 0.024097 -0.287714
-0.38126 0.00593174 -0.28059
-0.389583 0.0123584 -0.281964
-0.393929 0.0276784 -0.281843
-0.383781 -0.011729 -0.277047
-0.384324 0.00867842 -0.278387
-0.381334 0.0154721 -0.276749
-0.398312 0.0414311 -0.278256
-0.385657 -0.0216618 -0.275332
-0.38126 -0.00969596 -0.275573
-0.393526 0.0434621 -0.273874
-0.384666 -0.030939 -0.272569
-0.373151 -0.00559633 -0.269984
-0.359498 -0.00721762 -0.262069
-0.356678 -0.00461783 -0.260696
-0.360516 0.00912876 -0.262216
-0.358099 -0.00986364 -0.258896
-0.35402 0.00495884 -0.257262
-0.355557 0.0085711 -0.25909
-0.352642 0.00902018 -0.257252
-0.359878 0.0253001 -0.257446
-0.348588 -0.0119772 -0.252832
-0.350538 -0.00356862 -0.255876
-0.349719 0.00783745 -0.255753
-0.348656 0.0207658 -0.25279
-0.356862 0.0278945 -0.253647
-0.343453 -0.0131657 -0.250034
-0.339153 -0.00985465 -0.249023
-0.339254 0.00447277 -0.249867
-0.336949 0.00641717 -0.249099
-0.363345 0.0395975 -0.253124
-0.332823 -0.00556871 -0.245231
-0.343483 0.0280951 -0.246587
-0.361854 -0.0503491 -0.244385
-0.323083 -0.00989871 -0.240643
-0.326583 -0.0089414 -0.24331
-0.326007 -0.0318702 -0.238162
-0.311031 0.0070786 -0.236852
-0.318973 0.0127659 -0.238752
-0.337091 0.0394485 -0.23998
-0.308183 -0.0229039 -0.233467
-0.345077 -0.011669 -0.234279
-0.309962 0.00278754 -0.235587
-0.308216 0.00718915 -0.235597
-0.305675 0.0101078 -0.234403
-0.310858 0.0269603 -0.233675
-0.304259 -0.0282793 -0.23055
-0.302788 -0.0237093 -0.229806
-0.295192 0.00622684 -0.230227
-0.295044 0.0147676 -0.229494
-0.299489 0.0196452 -0.230397
-0.299067 -0.0268075 -0.228565
-0.288221 -0.0181199 -0.226139
-0.288394 -0.00385293 -0.227427
-0.29254 0.00294054 -0.228232
-0.286347 0.00762301 -0.226405
-0.286244 0.0137986 -0.225972
-0.305732 0.0422322 -0.225922
-0.316824 -0.0494617 -0.226401
-0.288745 -0.0327042 -0.222722
-0.285722 -0.0292112 -0.222613
-0.290463 -0.0243829 -0.224796
-0.282515 -0.00226005 -0.224095
-0.2809 0.00470834 -0.224297
-0.282552 0.0106867 -0.224626
-0.284634 0.0164197 -0.224837
-0.285926 0.0213578 -0.223401
-0.287576 0.0248308 -0.224516
-0.287932 0.0315912 -0.222709
-0.298171 0.0385121 -0.224677
-0.276233 -0.0213961 -0.220523
-0.271137 -0.0036061 -0.220341
-0.267701 -0.00455641 -0.218852
-0.273035 -0.000822664 -0.22123
-0.274885 0.00346529 -0.220791
-0.275592 0.0187164 -0.219494
-0.271761 0.0223933 -0.218423
-0.284091 0.0318605 -0.221094
-0.271124 -0.0267194 -0.216891
-0.264144 -0.00218248 -0.216359
-0.261892 0.002543 -0.215332
-0.267398 0.0176883 -0.217377
-0.26646 -0.033827 -0.213265
-0.267634 -0.0272852 -0.213611
-0.26156 -0.0196967 -0.213499
-0.256656 -0.008292 -0.214026
-0.252672 -0.00913052 -0.212304
-0.253205 -0.0031984 -0.2128
-0.254567 0.00393534 -0.213259
-0.259575 0.0114327 -0.213941
-0.256924 -0.0309768 -0.209184
-0.251364 -0.0136905 -0.210104
-0.247842 -0.00505234 -0.210468
-0.24362 -0.001717 -0.207752
-0.252193 0.00123286 -0.21128
-0.241869 0.00223048 -0.207407
-0.249825 0.00959391 -0.211014
-0.246193 0.00879038 -0.208443
-0.251027 0.0151069 -0.210898
-0.262056 0.0268394 -0.212325
-0.266535 -0.0466463 -0.208453
-0.250648 -0.0303183 -0.207604
-0.248516 -0.026573 -0.207877
-0.241542 -0.0224957 -0.205854
-0.23808 -0.0038884 -0.205307
-0.235244 -0.000491539 -0.205244
-0.241411 0.00942521 -0.20641
-0.246914 0.0286127 -0.205589
-0.297553 -0.0674449 -0.205526
-0.232046 -0.0144814 -0.201941
-0.232985 -0.00508116 -0.203063
-0.23092 -0.000947164 -0.203412
-0.232728 0.00362833 -0.204062
-0.228277 0.00314871 -0.202103
-0.236454 0.014136 -0.204689
-0.238791 0.0219802 -0.203703
-0.233517 0.0234454 -0.201314
-0.240824 0.0349299 -0.202545
-0.23921 0.0384584 -0.200813
-0.246279 0.0442088 -0.201405
-0.235599 -0.0298868 -0.200626
-0.225278 -0.0167797 -0.199925
-0.223705 -0.0114241 -0.199738
-0.22347 -0.0105357 -0.196409
-0.223153 -0.00835236 -0.199773
-0.218342 -0.00742427 -0.196765
-0.225238 -0.00305438 -0.199947
-0.218976 0.000467712 -0.197238
-0.225828 0.0115242 -0.200759
-0.230309 0.0159906 -0.201829
-0.222552 0.0207601 -0.19821
-0.225459 0.0236127 -0.198989
-0.226935 0.0268122 -0.198836
-0.235109 0.0312686 -0.200013
-0.247283 0.0494358 -0.199764
-0.214937 -0.0156901 -0.194562
-0.218912 -0.013071 -0.19648
-0.214053 -0.00497092 -0.195133
-0.213973 0.000424024 -0.196071
-0.215286 0.00702318 -0.195575
-0.209901 0.00451401 -0.19441
-0.216322 0.0119616 -0.195226
-0.219683 0.0238979 -0.196501
-0.228837 -0.0491796 -0.192601
-0.218822 -0.0379773 -0.192585
-0.21377 -0.0331351 -0.190753
-0.214885 -0.0288778 -0.193312
-0.208077 -0.0197954 -0.191189
-0.203253 -0.0162095 -0.190649
-0.205992 -0.0133754 -0.19208
-0.200515 -0.0075479 -0.190426
-0.20401 -0.00184452 -0.190908
-0.214587 0.00160957 -0.193193
-0.205341 0.00562189 -0.192507
-0.201781 0.00475569 -0.189953
-0.205136 -0.0384442 -0.186968
-0.205165 -0.0291246 -0.188081
-0.198463 -0.0247308 -0.187483
-0.197487 -0.00313584 -0.18811
-0.192847 0.00305122 -0.186197
-0.194623 0.00687764 -0.18791
-0.192001 0.00698648 -0.185859
-0.193589 0.0115264 -0.187098
-0.19703 0.0197001 -0.187723
-0.200663 0.0224278 -0.188809
-0.202716 0.0295125 -0.188151
-0.210777 0.0404364 -0.188482
-0.192382 -0.0143861 -0.185145
-0.193846 -0.00978464 -0.186331
-0.188635 -0.00919835 -0.185324
-0.191893 -0.00451573 -0.185754
-0.187595 0.000356585 -0.183986
-0.182914 0.000506477 -0.18307
-0.186517 0.00955 -0.184261
-0.192237 0.0220621 -0.185315
-0.200216 0.0327911 -0.186412
-0.260349 -0.0783925 -0.18228
-0.180161 -0.0262851 -0.179492
-0.184102 -0.0227809 -0.181837
-0.181879 -0.0186994 -0.180318
-0.177092 -0.0146443 -0.17884
-0.179854 -0.00883378 -0.180529
-0.174172 -0.0111242 -0.179086
-0.176795 -0.00380008 -0.180427
-0.181308 0.00645045 -0.182345
-0.176429 0.00894429 -0.180059
-0.186463 0.0141392 -0.18274
-0.1818 0.00982934 -0.181724
-0.177914 0.0154136 -0.18014
-0.184727 0.0270731 -0.181158
-0.181444 -0.0319873 -0.177673
-0.179179 -0.0222733 -0.178092
-0.171356 -0.0177136 -0.177234
-0.170829 -0.00937187 -0.177804
-0.1703 -0.00604715 -0.177708
-0.167148 -0.00505373 -0.176425
-0.167704 -0.0011457 -0.17563
-0.167851 0.00534702 -0.17674
-0.16606 0.00873857 -0.175714
-0.169728 0.0149843 -0.176729
-0.169836 0.0185623 -0.176479
-0.232247 -0.0740248 -0.176749
-0.166767 -0.00935252 -0.174976
-0.184138 -0.00444263 -0.177784
-0.163947 -0.00345537 -0.175106
-0.163928 -0.000464259 -0.174248
-0.16458 0.00236029 -0.175318
-0.159159 0.0108396 -0.172696
-0.168023 0.0171737 -0.174034
-0.169519 0.0287963 -0.171671
-0.17133 0.0358901 -0.172643
-0.176398 0.0385365 -0.175004
-0.150405 -0.0129322 -0.168959
-0.152568 -0.00920829 -0.1699
-0.148158 -0.00943868 -0.168217
-0.154912 -0.00774567 -0.171165
-0.153563 0.000324351 -0.170729
-0.166016 0.00589224 -0.170965
-0.156088 0.00958826 -0.170248
-0.158455 0.0158111 -0.170905
-0.1594 0.0200971 -0.170822
-0.185602 0.0215415 -0.175379
-0.151117 -0.0302726 -0.166725
-0.157383 -0.0175714 -0.16921
-0.161067 -0.00945351 -0.168837
-0.144211 -0.00929629 -0.165504
-0.154742 -0.00545604 -0.167085
-0.150618 -0.00269375 -0.166576
-0.138612 -0.00605301 -0.164383
-0.160232 0.00702815 -0.166598
-0.147289 0.00754014 -0.166846
-0.149751 0.0130006 -0.167446
-0.145937 0.0176582 -0.166442
-0.142338 0.0165126 -0.165093
-0.150966 0.0330254 -0.165998
-0.153863 0.0351557 -0.166774
-0.135836 -0.0228491 -0.161617
-0.140848 -0.0204391 -0.164108
-0.141725 -0.016496 -0.163798
-0.155529 -0.012363 -0.166078
-0.145794 -0.00495342 -0.162451
-0.134768 -0.0072872 -0.162705
-0.129802 -0.00455699 -0.160709
-0.137796 -0.00337576 -0.16154
-0.133787 -0.0026315 -0.162377
-0.142088 0.00456387 -0.163081
-0.133672 0.00368932 -0.161264
-0.136997 0.0156812 -0.162943
-0.139117 0.0192611 -0.162315
-0.13846 -0.0318265 -0.16096
-0.136443 -0.0296819 -0.159291
-0.132675 -0.0229452 -0.159161
-0.128586 -0.0243029 -0.157918
-0.128211 -0.0204019 -0.158752
-0.13119 -0.0177925 -0.160382
-0.131142 -0.011786 -0.159816
-0.128766 -0.0072403 -0.159896
-0.125695 -0.00502782 -0.157595
-0.128199 -0.00244172 -0.158992
-0.129452 0.00226609 -0.15902
-0.127605 0.00643012 -0.157907
-0.126968 0.00923779 -0.159168
-0.130327 0.0140611 -0.160383
-0.127365 0.0151982 -0.15795
-0.133058 0.0190762 -0.160842
-0.127747 -0.0386345 -0.155097
-0.119309 -0.0263101 -0.15418
-0.120861 -0.0134716 -0.154681
-0.140436 -0.00506717 -0.158277
-0.16402 0.00232488 -0.158246
-0.12025 0.0019826 -0.155615
-0.122618 0.0053242 -0.15682
-0.124662 0.0121468 -0.157949
-0.119145 0.0189846 -0.155144
-0.129454 0.0227052 -0.157775
-0.125652 -0.0488643 -0.151021
-0.131335 -0.0274711 -0.154367
-0.115739 -0.0219758 -0.152197
-0.110711 -0.0163871 -0.151942
-0.168685 -0.0089714 -0.158852
-0.116456 -0.00639567 -0.153961
-0.145331 -0.000229318 -0.152193
-0.121476 -0.00245482 -0.15654
-0.1145 -0.00158691 -0.154291
-0.110467 0.00237462 -0.152037
-0.116153 0.00408078 -0.154812
-0.114947 0.0125029 -0.153923
-0.118824 0.0330328 -0.151522
-0.21027 -0.0917907 -0.151571
-0.122665 -0.0508228 -0.149191
-0.117412 -0.0459354 -0.14857
-0.125236 -0.0390156 -0.150065
-0.107341 -0.0160277 -0.149479
-0.100319 -0.0157556 -0.147637
-0.102553 -0.0121562 -0.148763
-0.108811 -0.0109352 -0.150431
-0.0991949 -0.00811816 -0.147487
-0.101685 -0.00481738 -0.147808
-0.10359 -0.00057775 -0.149682
-0.100285 0.00592685 -0.147171
[...]
POINT_DATA 652
VECTORS i float
0.0 0.0 0.0
0.0 0.0 0.0
0.0 0.0 0.0
0.0 0.0 0.0
0.0 0.0 0.0
0.0 0.0 0.0
0.0 0.0 0.0
0.0 0.0 0.0
0.0 0.0 0.0
0.0 0.0 0.0
0.0 0.0 0.0
0.0 0.0 0.0
0.0 0.0 0.0
0.0 0.0 0.0
0.0 0.0 0.0
0.0 0.0 0.0
0.0 0.0 0.0
0.0 0.0 0.0
0.0 0.0 0.0
0.0 0.0 0.0
0.0 0.0 0.0
0.0 0.0 0.0
0.0 0.0 0.0
0.0 0.0 0.0
0.0 0.0 0.0
0.0 0.0 0.0
0.0 0.0 0.0
0.0 0.0 0.0
0.0 0.0 0.0
0.0 0.0 0.0
0.0 0.0 0.0
0.0 0.0 0.0
0.0 0.0 0.0
0.0 0.0 0.0
0.0 0.0 0.0
0.0 0.0 0.0
0.0 0.0 0.0
0.0 0.0 0.0
0.0 0.0 0.0
0.0 0.0 0.0
0.0 0.0 0.0
0.0 0.0 0.0
0.0 0.0 0.0
0.0 0.0 0.0
0.0 0.0 0.0
0.0 0.0 0.0
0.0 0.0 0.0
0.0 0.0 0.0
0.0 0.0 0.0
0.0 0.0 0.0
0.0 0.0 0.0
0.0 0.0 0.0
0.0 0.0 0.0
0.0 0.0 0.0
0.0 0.0 0.0
0.0 0.0 0.0
0.0 0.0 0.0
0.0 0.0 0.0
0.0 0.0 0.0
0.0 0.0 0.0
0.0 0.0 0.0
0.0 0.0 0.0
0.0 0.0 0.0
0.0 0.0 0.0
0.0 0.0 0.0
0.0 0.0 0.0
0.0 0.0 0.0
0.0 0.0 0.0
0.0 0.0 0.0
0.0 0.0 0.0
0.0 0.0 0.0
0.0 0.0 0.0
0.0 0.0 0.0
0.0 0.0 0.0
0.0 0.0 0.0
0.0 0.0 0.0
0.0 0.0 0.0
0.0 0.0 0.0
0.0 0.0 0.0
0.0 0.0 0.0
0.0 0.0 0.0
0.0 0.0 0.0
0.0 0.0 0.0
0.0 0.0 0.0
0.0 0.0 0.0
0.0 0.0 0.0
0.0 0.0 0.0
0.0 0.0 0.0
0.0 0.0 0.0
0.0 0.0 0.0
0.0 0.0 0.0
0.0 0.0 0.0
0.0 0.0 0.0
0.0 0.0 0.0
0.0 0.0 0.0
0.0 0.0 0.0
0.0 0.0 0.0
0.0 0.0 0.0
0.0 0.0 0.0
0.0 0.0 0.0
0.0 0.0 0.0
0.0 0.0 0.0
0.0 0.0 0.0
0.0 0.0 0.0
0.0 0.0 0.0
0.0 0.0 0.0
0.0 0.0 0.0
0.0 0.0 0.0
0.0 0.0 0.0
0.0 0.0 0.0
0.0 0.0 0.0
0.0 0.0 0.0
0.0 0.0 0.0
0.0 0.0 0.0
0.0 0.0 0.0
0.0 0.0 0.0
0.0 0.0 0.0
0.0 0.0 0.0
0.0 0.0 0.0
0.0 0.0 0.0
0.0 0.0 0.0
0.0 0.0 0.0
0.0 0.0 0.0
0.0 0.0 0.0
0.0 0.0 0.0
0.0 0.0 0.0
0.0 0.0 0.0
0.0 0.0 0.0
0.0 0.0 0.0
0.0 0.0 0.0
0.0 0.0 0.0
0.0 0.0 0.0
0.0 0.0 0.0
0.0 0.0 0.0
0.0 0.0 0.0
0.0 0.0 0.0
0.0 0.0 0.0
0.0 0.0 0.0
0.0 0.0 0.0
0.0 0.0 0.0
0.0 0.0 0.0
0.0 0.0 0.0
0.0 0.0 0.0
0.0 0.0 0.0
0.0 0.0 0.0
0.0 0.0 0.0
0.0 0.0 0.0
0.0 0.0 0.0
0.0 0.0 0.0
0.0 0.0 0.0
0.0 0.0 0.0
0.0 0.0 0.0
0.0 0.0 0.0
0.0 0.0 0.0
0.0 0.0 0.0
0.0 0.0 0.0
0.0 0.0 0.0
0.0 0.0 0.0
0.0 0.0 0.0
0.0 0.0 0.0
0.0 0.0 0.0
0.0 0.0 0.0
0.0 0.0 0.0
0.0 0.0 0.0
0.0 0.0 0.0
0.0 0.0 0.0
0.0 0.0 0.0
0.0 0.0 0.0
0.0 0.0 0.0
0.0 0.0 0.0
0.0 0.0 0.0
0.0 0.0 0.0
0.0 0.0 0.0
0.0 0.0 0.0
0.0 0.0 0.0
0.0 0.0 0.0
0.0 0.0 0.0
0.0 0.0 0.0
0.0 0.0 0.0
0.0 0.0 0.0
0.0 0.0 0.0
0.0 0.0 0.0
0.0 0.0 0.0
0.0 0.0 0.0
0.0 0.0 0.0
0.0 0.0 0.0
0.0 0.0 0.0
0.0 0.0 0.0
0.0 0.0 0.0
0.0 0.0 0.0
0.0 0.0 0.0
0.0 0.0 0.0
0.0 0.0 0.0
0.0 0.0 0.0
0.0 0.0 0.0
0.0 0.0 0.0
0.0 0.0 0.0
0.0 0.0 0.0
0.0 0.0 0.0
0.0 0.0 0.0
0.0 0.0 0.0
0.0 0.0 0.0
0.0 0.0 0.0
0.0 0.0 0.0
0.0 0.0 0.0
0.0 0.0 0.0
0.0 0.0 0.0
0.0 0.0 0.0
0.0 0.0 0.0
0.0 0.0 0.0
0.0 0.0 0.0
0.0 0.0 0.0
0.0 0.0 0.0
0.0 0.0 0.0
0.0 0.0 0.0
0.0 0.0 0.0
0.0 0.0 0.0
0.0 0.0 0.0
0.0 0.0 0.0
0.0 0.0 0.0
0.0 0.0 0.0
0.0 0.0 0.0
0.0 0.0 0.0
0.0 0.0 0.0
0.0 0.0 0.0
0.0 0.0 0.0
0.0 0.0 0.0
0.0 0.0 0.0
0.0 0.0 0.0
0.0 0.0 0.0
0.0 0.0 0.0
0.0 0.0 0.0
0.0 0.0 0.0
0.0 0.0 0.0
0.0 0.0 0.0
0.0 0.0 0.0
0.0 0.0 0.0
0.0 0.0 0.0
0.0 0.0 0.0
0.0 0.0 0.0
0.0 0.0 0.0
0.0 0.0 0.0
0.0 0.0 0.0
0.0 0.0 0.0
0.0 0.0 0.0
0.0 0.0 0.0
0.0 0.0 0.0
0.0 0.0 0.0
0.0 0.0 0.0
0.0 0.0 0.0
0.0 0.0 0.0
0.0 0.0 0.0
0.0 0.0 0.0
0.0 0.0 0.0
0.0 0.0 0.0
0.0 0.0 0.0
0.0 0.0 0.0
0.0 0.0 0.0
0.0 0.0 0.0
0.0 0.0 0.0
0.0 0.0 0.0
0.0 0.0 0.0
0.0 0.0 0.0
0.0 0.0 0.0
0.0 0.0 0.0
0.0 0.0 0.0
0.0 0.0 0.0
0.0 0.0 0.0
0.0 0.0 0.0
0.0 0.0 0.0
0.0 0.0 0.0
0.0 0.0 0.0
0.0 0.0 0.0
0.0 0.0 0.0
0.0 0.0 0.0
0.0 0.0 0.0
0.0 0.0 0.0
0.0 0.0 0.0
0.0 0.0 0.0
0.0 0.0 0.0
0.0 0.0 0.0
0.0 0.0 0.0
0.0 0.0 0.0
0.0 0.0 0.0
0.0 0.0 0.0
0.0 0.0 0.0
0.0 0.0 0.0
0.0 0.0 0.0
0.0 0.0 0.0
0.0 0.0 0.0
0.0 0.0 0.0
0.0 0.0 0.0
0.0 0.0 0.0
0.0 0.0 0.0
0.0 0.0 0.0
0.0 0.0 0.0
0.0 0.0 0.0
0.0 0.0 0.0
0.0 0.0 0.0
0.0 0.0 0.0
0.0 0.0 0.0
0.0 0.0 0.0
0.0 0.0 0.0
0.0 0.0 0.0
0.0 0.0 0.0
0.0 0.0 0.0
0.0 0.0 0.0
0.0 0.0 0.0
0.0 0.0 0.0
0.0 0.0 0.0
0.0 0.0 0.0
0.0 0.0 0.0
0.0 0.0 0.0
0.0 0.0 0.0
0.0 0.0 0.0
0.0 0.0 0.0
0.0 0.0 0.0
0.0 0.0 0.0
0.0 0.0 0.0
0.0 0.0 0.0
0.0 0.0 0.0
0.0 0.0 0.0
0.0 0.0 0.0
0.0 0.0 0.0
0.0 0.0 0.0
0.0 0.0 0.0
0.0 0.0 0.0
0.0 0.0 0.0
0.0 0.0 0.0
0.0 0.0 0.0
0.0 0.0 0.0
0.0 0.0 0.0
0.0 0.0 0.0
0.0 0.0 0.0
0.0 0.0 0.0
0.0 0.0 0.0
0.0 0.0 0.0
0.0 0.0 0.0
0.0 0.0 0.0
0.0 0.0 0.0
0.0 0.0 0.0
0.0 0.0 0.0
0.0 0.0 0.0
0.0 0.0 0.0
0.0 0.0 0.0
0.0 0.0 0.0
0.0 0.0 0.0
0.0 0.0 0.0
0.0 0.0 0.0
0.0 0.0 0.0
0.0 0.0 0.0
0.0 0.0 0.0
0.0 0.0 0.0
0.0 0.0 0.0
0.0 0.0 0.0
0.0 0.0 0.0
0.0 0.0 0.0
0.0 0.0 0.0
0.0 0.0 0.0
0.0 0.0 0.0
0.0 0.0 0.0
0.0 0.0 0.0
0.0 0.0 0.0
0.0 0.0 0.0
0.0 0.0 0.0
0.0 0.0 0.0
0.0 0.0 0.0
0.0 0.0 0.0
0.0 0.0 0.0
0.0 0.0 0.0
0.0 0.0 0.0
0.0 0.0 0.0
0.0 0.0 0.0
0.0 0.0 0.0
0.0 0.0 0.0
0.0 0.0 0.0
0.0 0.0 0.0
0.0 0.0 0.0
0.0 0.0 0.0
0.0 0.0 0.0
0.0 0.0 0.0
0.0 0.0 0.0
0.0 0.0 0.0
0.0 0.0 0.0
0.0 0.0 0.0
0.0 0.0 0.0
0.0 0.0 0.0
0.0 0.0 0.0
0.0 0.0 0.0
0.0 0.0 0.0
0.0 0.0 0.0
0.0 0.0 0.0
0.0 0.0 0.0
0.0 0.0 0.0
0.0 0.0 0.0
0.0 0.0 0.0
0.0 0.0 0.0
0.0 0.0 0.0
0.0 0.0 0.0
0.0 0.0 0.0
0.0 0.0 0.0
0.0 0.0 0.0
0.0 0.0 0.0
0.0 0.0 0.0
0.0 0.0 0.0
0.0 0.0 0.0
0.0 0.0 0.0
0.0 0.0 0.0
0.0 0.0 0.0
0.0 0.0 0.0
0.0 0.0 0.0
0.0 0.0 0.0
0.0 0.0 0.0
0.0 0.0 0.0
0.0 0.0 0.0
0.0 0.0 0.0
0.0 0.0 0.0
0.0 0.0 0.0
0.0 0.0 0.0
0.0 0.0 0.0
0.0 0.0 0.0
0.0 0.0 0.0
0.0 0.0 0.0
0.0 0.0 0.0
0.0 0.0 0.0
0.0 0.0 0.0
0.0 0.0 0.0
0.0 0.0 0.0
0.0 0.0 0.0
0.0 0.0 0.0
0.0 0.0 0.0
0.0 0.0 0.0
0.0 0.0 0.0
0.0 0.0 0.0
0.0 0.0 0.0
0.0 0.0 0.0
0.0 0.0 0.0
0.0 0.0 0.0
0.0 0.0 0.0
0.0 0.0 0.0
0.0 0.0 0.0
0.0 0.0 0.0
0.0 0.0 0.0
0.0 0.0 0.0
0.0 0.0 0.0
0.0 0.0 0.0
0.0 0.0 0.0
0.0 0.0 0.0
0.0 0.0 0.0
0.0 0.0 0.0
0.0 0.0 0.0
0.0 0.0 0.0
0.0 0.0 0.0
0.0 0.0 0.0
0.0 0.0 0.0
0.0 0.0 0.0
0.0 0.0 0.0
0.0 0.0 0.0
0.0 0.0 0.0
0.0 0.0 0.0
0.0 0.0 0.0
0.0 0.0 0.0
0.0 0.0 0.0
0.0 0.0 0.0
0.0 0.0 0.0
0.0 0.0 0.0
0.0 0.0 0.0
0.0 0.0 0.0
0.0 0.0 0.0
0.0 0.0 0.0
0.0 0.0 0.0
0.0 0.0 0.0
0.0 0.0 0.0
0.0 0.0 0.0
0.0 0.0 0.0
0.0 0.0 0.0
0.0 0.0 0.0
0.0 0.0 0.0
0.0 0.0 0.0
0.0 0.0 0.0
0.0 0.0 0.0
0.0 0.0 0.0
0.0 0.0 0.0
0.0 0.0 0.0
0.0 0.0 0.0
0.0 0.0 0.0
0.0 0.0 0.0
0.0 0.0 0.0
0.0 0.0 0.0
0.0 0.0 0.0
0.0 0.0 0.0
0.0 0.0 0.0
0.0 0.0 0.0
0.0 0.0 0.0
0.0 0.0 0.0
0.0 0.0 0.0
0.0 0.0 0.0
0.0 0.0 0.0
0.0 0.0 0.0
0.0 0.0 0.0
0.0 0.0 0.0
0.0 0.0 0.0
0.0 0.0 0.0
0.0 0.0 0.0
0.0 0.0 0.0
0.0 0.0 0.0
0.0 0.0 0.0
0.0 0.0 0.0
0.0 0.0 0.0
0.0 0.0 0.0
0.0 0.0 0.0
0.0 0.0 0.0
0.0 0.0 0.0
0.0 0.0 0.0
0.0 0.0 0.0
0.0 0.0 0.0
0.0 0.0 0.0
0.0 0.0 0.0
0.0 0.0 0.0
0.0 0.0 0.0
0.0 0.0 0.0
0.0 0.0 0.0
0.0 0.0 0.0
0.0 0.0 0.0
0.0 0.0 0.0
0.0 0.0 0.0
0.0 0.0 0.0
0.0 0.0 0.0
0.0 0.0 0.0
0.0 0.0 0.0
0.0 0.0 0.0
0.0 0.0 0.0
0.0 0.0 0.0
0.0 0.0 0.0
0.0 0.0 0.0
0.0 0.0 0.0
0.0 0.0 0.0
0.0 0.0 0.0
0.0 0.0 0.0
0.0 0.0 0.0
0.0 0.0 0.0
0.0 0.0 0.0
0.0 0.0 0.0
0.0 0.0 0.0
0.0 0.0 0.0
0.0 0.0 0.0
0.0 0.0 0.0
0.0 0.0 0.0
0.0 0.0 0.0
0.0 0.0 0.0
0.0 0.0 0.0
0.0 0.0 0.0
0.0 0.0 0.0
0.0 0.0 0.0
0.0 0.0 0.0
0.0 0.0 0.0
0.0 0.0 0.0
0.0 0.0 0.0
0.0 0.0 0.0
0.0 0.0 0.0
0.0 0.0 0.0
0.0 0.0 0.0
0.0 0.0 0.0
0.0 0.0 0.0
0.0 0.0 0.0
0.0 0.0 0.0
0.0 0.0 0.0
0.0 0.0 0.0
0.0 0.0 0.0
0.0 0.0 0.0
0.0 0.0 0.0
0.0 0.0 0.0
0.0 0.0 0.0
0.0 0.0 0.0
0.0 0.0 0.0
0.0 0.0 0.0
0.0 0.0 0.0
0.0 0.0 0.0
0.0 0.0 0.0
0.0 0.0 0.0
0.0 0.0 0.0
0.0 0.0 0.0
0.0 0.0 0.0
0.0 0.0 0.0
0.0 0.0 0.0
0.0 0.0 0.0
0.0 0.0 0.0
0.0 0.0 0.0
0.0 0.0 0.0
0.0 0.0 0.0
0.0 0.0 0.0
0.0 0.0 0.0
0.0 0.0 0.0
0.0 0.0 0.0
0.0 0.0 0.0
0.0 0.0 0.0
0.0 0.0 0.0
0.0 0.0 0.0
0.0 0.0 0.0
0.0 0.0 0.0
0.0 0.0 0.0
0.0 0.0 0.0
0.0 0.0 0.0
0.0 0.0 0.0
0.0 0.0 0.0
0.0 0.0 0.0
0.0 0.0 0.0
0.0 0.0 0.0
0.0 0.0 0.0
0.0 0.0 0.0
0.0 0.0 0.0
0.0 0.0 0.0
0.0 0.0 0.0
0.0 0.0 0.0
0.0 0.0 0.0
0.0 0.0 0.0
0.0 0.0 0.0
0.0 0.0 0.0
0.0 0.0 0.0
0.0 0.0 0.0
0.0 0.0 0.0
0.0 0.0 0.0
0.0 0.0 0.0
0.0 0.0 0.0
0.0 0.0 0.0
0.0 0.0 0.0
0.0 0.0 0.0
0.0 0.0 0.0
0.0 0.0 0.0
0.0 0.0 0.0
0.0 0.0 0.0
0.0 0.0 0.0
0.0 0.0 0.0
0.0 0.0 0.0
0.0 0.0 0.0
0.0 0.0 0.0
0.0 0.0 0.0
0.0 0.0 0.0
0.0 0.0 0.0
0.0 0.0 0.0
0.0 0.0 0.0
0.0 0.0 0.0
0.0 0.0 0.0
0.0 0.0 0.0
0.0 0.0 0.0
0.0 0.0 0.0
0.0 0.0 0.0
0.0 0.0 0.0
0.0 0.0 0.0
0.0 0.0 0.0
0.0 0.0 0.0
0.0 0.0 0.0
VECTORS f float
0.0 0.0 -0.000346714
0.0 0.0 0.0
0.0 0.0 -0.000346714
0.0 0.0 -0.00160516
0.0 0.0 -0.000346714
0.0 0.0 -0.000346714
0.0 0.0 -0.000346714
0.0 0.0 -0.00160516
0.0 0.0 -0.00160516
0.0 0.0 -0.000346714
0.0 0.0 -0.000346714
0.0 0.0 -0.000346714
0.0 0.0 -0.000346714
0.0 0.0 -0.000346714
0.0 0.0 -0.000346714
0.0 0.0 -0.000346714
0.0 0.0 -0.000346714
0.0 0.0 -0.00160516
0.0 0.0 -0.00160516
0.0 0.0 -0.000346714
0.0 0.0 -0.000346714
0.0 0.0 -0.000346714
0.0 0.0 -0.000346714
0.0 0.0 -0.00160516
0.0 0.0 -0.000346714
0.0 0.0 -0.00160516
0.0 0.0 -0.000346714
0.0 0.0 -0.000346714
0.0 0.0 -0.000346714
0.0 0.0 -0.000346714
0.0 0.0 -0.000346714
0.0 0.0 -0.00160516
0.0 0.0 -0.000346714
0.0 0.0 -0.000346714
0.0 0.0 -0.000346714
0.0 0.0 -0.00160516
0.0 0.0 -0.000346714
0.0 0.0 -0.000346714
0.0 0.0 -0.000346714
0.0 0.0 -0.00160516
0.0 0.0 -0.00160516
0.0 0.0 -0.000346714
0.0 0.0 -0.000346714
0.0 0.0 -0.00160516
0.0 0.0 -0.00160516
0.0 0.0 -0.000346714
0.0 0.0 -0.000346714
0.0 0.0 -0.000346714
0.0 0.0 -0.00160516
0.0 0.0 -0.00160516
0.0 0.0 -0.000346714
0.0 0.0 -0.000346714
0.0 0.0 -0.000346714
0.0 0.0 -0.000346714
0.0 0.0 -0.00160516
0.0 0.0 -0.00160516
0.0 0.0 -0.000346714
0.0 0.0 -0.00160516
0.0 0.0 -0.000346714
0.0 0.0 -0.000346714
-0.000106326 -1.59116e-05 6.63745e-06
0.000107809 -0.000111885 2.37239e-05
0.0 0.0 -0.000346714
0.0 0.0 -0.000346714
0.0 0.0 -0.00160516
-0.00040931 -6.10825e-05 -0.000174485
0.0 0.0 -0.000346714
-8.84575e-05 -1.32936e-05 -3.79667e-05
1.80087e-05 1.67932e-05 -0.00028843
7.7268e-05 -6.60818e-05 -0.000566234
0.0 0.0 -0.00160516
-9.10572e-05 -1.3757e-05 -3.02316e-05
-8.6132e-05 -4.02184e-05 -4.12036e-05
-8.17906e-05 -3.82347e-05 -5.05726e-05
0.0 0.0 -0.000346714
-8.01991e-05 3.62245e-05 -5.41258e-05
0.0 0.0 -0.000346714
-0.000384053 -5.76102e-05 -0.00023058
-9.51586e-05 -1.44454e-05 -2.36428e-05
3.21277e-05 5.35341e-06 -0.000356693
0.0 0.0 -0.000346714
0.0 0.0 -0.000346714
3.65051e-05 7.65471e-05 -8.96141e-06
7.12381e-05 -7.21109e-05 -0.000518279
-0.00179144 0.000696617 0.0073987
-0.000419153 3.32485e-05 -0.000152564
-0.000166848 -2.67601e-05 0.000160335
-8.70838e-05 -1.19622e-05 -3.66152e-05
-8.70196e-05 -3.65474e-05 -4.41773e-05
-0.00220347 -0.000428854 0.00541771
-7.73904e-05 -3.61808e-05 -4.64513e-05
-8.46407e-05 -6.46149e-05 -3.7876e-05
0.0 0.0 -0.000346714
-7.93037e-05 3.5835e-05 -5.51641e-05
-6.08481e-05 7.96046e-06 -0.000132691
-0.000119485 1.08017e-05 1.95845e-05
-8.67644e-05 6.89587e-06 -4.01368e-05
-0.00141539 -0.000326491 0.00217059
-0.000372618 -0.000148503 -0.000226425
-7.70476e-05 -3.07823e-05 -5.63863e-05
0.0 0.0 -0.000346714
0.0 0.0 -0.000346714
-0.000399015 3.68667e-05 -0.000189782
-0.000300367 -3.30362e-05 -0.000435284
-5.26577e-05 -1.60275e-05 -0.000160498
0.0 0.0 -0.000346714
0.0 0.0 -0.00160516
0.0 0.0 -0.00160516
-2.10298e-06 2.07803e-06 -0.000222554
-8.87089e-05 1.03212e-05 -3.84057e-05
-8.74033e-05 9.14147e-06 -3.93181e-05
2.40266e-05 -8.25792e-06 1.04194e-05
-0.000365605 -3.95649e-05 -0.000234097
-0.00847821 0.00503637 0.0248894
0.0 0.0 -0.00160516
0.00011453 0.000535243 0.00238085
0.00080949 -5.16217e-05 -0.000328815
-0.00038897 -3.80459e-05 -0.000201129
0.0 0.0 -0.000346714
-8.81047e-05 -8.14269e-06 -3.71693e-05
-0.00045741 -4.26973e-05 -3.13213e-05
-7.24475e-05 -2.27142e-05 -0.000108233
-0.000342845 -0.000198086 0.00118753
-5.85914e-06 -3.38737e-05 -0.000411724
0.0 0.0 -0.000346714
0.0 0.0 -0.000346714
0.0 0.0 -0.000346714
0.0 0.0 -0.00160516
-7.04118e-05 1.52642e-06 -0.000130079
2.88016e-05 -1.09298e-05 -0.00128796
-0.000185134 -0.000108926 -0.000791077
0.0 0.0 -0.000346714
9.71845e-05 8.55219e-05 3.3827e-05
-0.00039879 7.45203e-05 -0.000183912
-8.96437e-05 -5.23141e-06 -3.82377e-05
-0.000503062 -4.62189e-05 0.00113438
0.0 0.0 -0.000346714
0.0 0.0 -0.000346714
-0.000480612 -0.000178556 0.000127488
-0.0020182 -0.00104795 0.00741749
0.0 0.0 -0.000346714
-7.74758e-05 -7.1483e-05 -5.89573e-05
0.0 0.0 -0.000346714
0.0 0.0 -0.00160516
-0.000108331 2.52808e-05 2.33777e-05
-0.000378489 6.23656e-05 0.000474877
0.0 0.0 -0.000346714
0.0 0.0 -0.000346714
0.00095036 0.000663381 0.0118474
-0.000500995 -2.82379e-05 -6.70134e-05
5.06176e-05 -8.25935e-05 -0.00129054
-8.8375e-05 -2.53272e-05 -4.06434e-05
0.0 0.0 -0.000346714
-8.45846e-05 -2.82701e-05 -8.67183e-06
-8.30112e-05 -5.18595e-05 -1.51596e-05
-0.000104118 -6.2901e-05 2.03473e-05
-0.000364315 -0.000223364 -0.000248052
0.000133673 0.000124238 -0.000604134
-0.000395701 9.67794e-05 -0.000215273
-0.000386093 8.42804e-05 -0.000219618
0.0 0.0 -0.000346714
0.0 0.0 -0.000346714
-2.19974e-05 0.000745766 0.00141045
-8.77828e-05 -1.39204e-06 -3.65e-05
0.0 0.0 -0.00160516
-0.000538805 -0.000337373 0.00109462
0.000285499 0.000805971 0.00237089
-7.06351e-05 6.34987e-05 -7.29998e-05
-0.000475189 0.000271874 2.88167e-05
-6.49721e-06 -2.74944e-06 -0.000286112
0.0 0.0 -0.00160516
-0.000106415 2.87547e-05 3.1787e-05
2.38144e-05 9.11164e-06 8.94823e-06
-7.55442e-05 1.92393e-05 -6.25586e-05
-0.000415438 1.70187e-06 -0.000177585
0.0 0.0 -0.000346714
-8.81486e-05 -1.39443e-06 -3.55253e-05
-0.000378986 4.16242e-05 -0.000283662
-9.74732e-05 7.99252e-05 -6.72362e-05
-0.000381929 0.000219251 -0.000206939
-8.24367e-05 4.73151e-05 -4.49315e-05
-0.000618037 1.23219e-06 0.000249267
-0.00041389 6.66198e-06 -0.000153612
0.0 0.0 -0.000346714
0.0 0.0 -0.000346714
-8.88323e-05 -1.9579e-05 -3.98945e-05
-8.49556e-05 -2.10119e-05 -4.20016e-05
-8.56031e-05 -4.29508e-05 -4.55793e-05
3.95637e-05 3.05921e-05 -0.000386868
-0.000450623 -0.000290878 0.00114015
0.00155879 -0.0122273 0.00828109
-0.00387173 0.00872153 -0.00107311
-8.63107e-05 2.48684e-05 -3.85301e-05
-0.00151545 8.17009e-05 0.00287163
-0.000426444 1.51387e-05 -0.000144381
-8.81613e-05 3.96191e-06 -3.69741e-05
-9.00085e-05 -1.93871e-05 -3.23428e-05
4.87716e-05 1.8021e-05 -0.000438537
-0.000196717 -0.000107685 0.000214084
0.0 0.0 -0.000346714
-0.000113828 5.75744e-05 -1.3079e-05
-8.72366e-05 2.50894e-05 -3.67061e-05
-0.000258145 8.77436e-05 -0.000633695
0.0 0.0 -0.00160516
-0.000234436 1.2722e-05 -0.000139634
-8.89272e-05 1.74527e-05 -3.94775e-05
-6.44494e-05 2.8959e-06 -8.97494e-05
-8.85853e-05 -1.77454e-05 -3.91632e-05
-8.87229e-05 -1.77657e-05 -3.89653e-05
-0.000415277 -8.98912e-05 -0.000146213
0.0 0.0 -0.000346714
-9.02492e-05 -1.79756e-05 -3.68018e-05
-8.56982e-05 -4.11814e-05 -4.39982e-05
-0.000465282 0.000250163 -1.47413e-05
0.0 0.0 -0.00160516
0.0 0.0 -0.000346714
-9.16149e-05 1.80495e-05 -3.21618e-05
-8.7103e-05 2.97442e-06 -3.59373e-05
-7.25952e-05 2.45938e-06 -6.53128e-05
-0.000372382 1.51456e-05 -0.000370435
1.26614e-05 3.57205e-05 -5.33864e-06
-0.000128007 -2.65811e-05 4.39005e-05
0.000106427 0.000131152 0.00184571
-6.52893e-06 -0.00013173 3.33352e-06
-0.000200535 0.000524865 -0.000535156
0.0 0.0 -0.00160516
0.0 0.0 -0.00160516
-2.51033e-05 7.37886e-09 -0.000178822
0.0 0.0 -0.000346714
0.0 0.0 -0.000346714
0.0 0.0 -0.000346714
0.0 0.0 -0.000346714
0.0 0.0 -0.000346714
-0.000356943 -0.000279254 -0.000288075
-8.01e-05 -6.30354e-05 -5.35981e-05
-8.86789e-05 2.10382e-05 -4.00183e-05
0.0 0.0 -0.000346714
-8.74938e-05 1.04603e-05 -3.68448e-05
0.0 0.0 -0.000346714
-8.75209e-05 -2.55208e-06 -3.49e-05
0.0 0.0 -0.00160516
0.0 0.0 -0.00160516
0.0 0.0 -0.000346714
7.38306e-05 0.00045033 -0.00238118
0.0 0.0 -0.000346714
-0.000118959 5.72836e-05 0.000389185
0.0 0.0 -0.000346714
0.0 0.0 -0.000346714
-0.000513339 6.46873e-05 0.000144034
0.0 0.0 -0.00160516
0.0 0.0 -0.000346714
-5.40764e-05 0.000192078 0.000118153
0.0 0.0 -0.00160516
8.76437e-05 -0.000126034 6.67208e-05
-0.000397046 -0.000110469 -0.000174199
-8.56629e-05 -2.38147e-05 -3.80404e-05
0.0 0.0 -0.000346714
-0.000225258 -0.000100285 0.000271706
-0.000689012 -0.000309557 0.00153736
-0.000110097 3.82052e-05 7.92239e-06
-8.76833e-05 3.03177e-05 -4.1844e-05
0.000806093 -0.000104467 -0.00228583
0.0 0.0 -0.000346714
0.0 0.0 -0.00160516
-8.70882e-05 4.93407e-06 -3.79272e-05
-0.00101243 0.00215756 0.00712191
-4.12698e-05 0.000134765 -0.00131215
0.0 0.0 -0.000346714
0.0 0.0 -0.000346714
-0.00349484 0.0010607 -0.00342413
0.0 0.0 -0.000346714
-0.000431277 -0.000132134 -9.90025e-05
0.0 0.0 -0.000346714
0.0 0.0 -0.000346714
-0.000569568 0.000196559 0.000226778
0.0 0.0 -0.000346714
0.00052242 0.00330444 0.0104601
-8.60708e-05 2.97457e-05 -4.55118e-05
-0.000412352 7.1471e-05 -0.000182497
0.00159628 -0.00151163 0.000829196
0.0 0.0 -0.000346714
0.0 0.0 -0.000346714
0.0072932 -0.003089 0.00895035
0.0 0.0 -0.000346714
0.0 0.0 -0.000346714
-0.000135488 -2.01343e-05 -0.000188338
0.000128593 9.03788e-05 0.000236682
-8.56376e-05 -2.97857e-05 -3.71222e-05
-2.25223e-06 -2.8872e-05 -0.000380211
-8.66046e-05 2.8585e-05 -4.00851e-05
0.0 0.0 -0.000346714
0.0 0.0 -0.000346714
0.0 0.0 -0.00160516
0.0 0.0 -0.00160516
0.0 0.0 -0.000346714
0.0 0.0 -0.000346714
-8.62933e-05 -3.1471e-05 -4.08023e-05
-0.000471815 -0.000162444 -1.99563e-05
-7.53846e-05 5.75056e-05 -6.36672e-05
0.0 0.0 -0.000346714
-0.000437317 0.00014501 -9.71017e-05
-8.72405e-05 2.80664e-05 -4.0572e-05
0.0 0.0 -0.00160516
-0.0005266 8.39527e-05 8.22286e-05
0.0 0.0 -0.00160516
0.0 0.0 -0.000346714
-0.000126685 1.54355e-07 3.98938e-05
0.0 0.0 -0.000346714
0.0 0.0 -0.000346714
0.0 0.0 -0.000346714
-0.000387583 -0.000221997 -0.000206251
0.0 0.0 -0.000346714
-7.97582e-05 6.07372e-05 -5.11815e-05
-9.80547e-05 7.45763e-05 -1.01024e-05
0.0 0.0 -0.00160516
-0.000308866 0.000136481 -7.91482e-05
-8.79345e-05 1.2451e-05 -3.76379e-05
0.0 0.0 -0.000346714
-0.000410094 6.39781e-05 -0.000166462
0.0 0.0 -0.000346714
-0.000491241 0.000103336 -0.000278397
-8.83076e-05 -1.21821e-06 -3.70502e-05
-0.0004562 -9.539e-06 -8.31002e-05
0.0 0.0 -0.000346714
-8.85947e-05 -1.60321e-05 -3.88728e-05
-8.86056e-05 -1.60346e-05 -3.88436e-05
2.46591e-05 -3.91676e-05 -0.00125449
0.0 0.0 -0.000346714
-8.67549e-05 2.77018e-05 -4.00345e-05
0.0 0.0 -0.00160516
0.000109817 -0.000193842 0.000407718
0.0 0.0 -0.000346714
0.0 0.0 -0.00160516
-0.000309972 -2.34829e-05 0.000827263
0.0 0.0 -0.00160516
-8.88565e-05 -1.91454e-06 -3.77707e-05
-0.000104213 -2.05186e-05 5.78293e-06
-8.75169e-05 -1.71694e-05 -3.8249e-05
-8.8785e-05 -1.60678e-05 -3.83656e-05
0.0 0.0 -0.000346714
0.0 0.0 -0.00160516
0.0 0.0 -0.00160516
0.0 0.0 -0.00160516
-7.94606e-05 1.06203e-05 -4.61874e-05
0.0 0.0 -0.000346714
9.50838e-05 -3.19252e-05 -0.000176323
0.0 0.0 -0.00160516
0.0 0.0 -0.000346714
0.0 0.0 -0.00160516
0.000630725 0.000260678 -0.000510092
0.0 0.0 -0.000346714
0.0 0.0 -0.00160516
0.0 0.0 -0.000346714
-0.000101636 -9.06782e-05 8.28473e-07
-0.000376085 0.000269789 -0.000235186
-1.0564e-05 0.000105011 0.000377368
0.0 0.0 -0.00160516
0.0 0.0 -0.000346714
0.0 0.0 -0.000346714
0.000509916 -0.000565901 0.00963647
0.0 0.0 -0.000346714
-8.82767e-05 -3.91271e-06 -3.70994e-05
0.0 0.0 -0.00160516
0.000711335 0.00177076 0.0140984
0.0 0.0 -0.000346714
0.0003946 0.000138238 0.000831111
0.0 0.0 -0.000346714
4.94751e-05 0.000749226 0.000140472
0.0 0.0 -0.00160516
-0.00156526 0.000461405 0.00206903
0.0 0.0 -0.000346714
-5.74369e-05 -1.27593e-05 -0.000182775
-0.00363871 -0.000245268 0.00545594
0.0 0.0 -0.000346714
-0.00366289 -0.000185444 0.00467044
-9.3125e-05 6.93801e-06 -3.05104e-05
0.0 0.0 -0.000346714
0.00418989 0.000311782 -0.0122686
0.0 0.0 -0.00160516
-4.24311e-05 5.01547e-05 4.49553e-06
0.0 0.0 -0.000346714
-8.87316e-05 9.33542e-06 -3.79779e-05
0.0 0.0 -0.000346714
0.0 0.0 -0.000346714
0.0 0.0 -0.000346714
0.0 0.0 -0.00160516
0.0 0.0 -0.00160516
-0.000111215 3.11184e-05 -6.32312e-05
0.0 0.0 -0.000346714
0.0 0.0 -0.000346714
-7.44837e-05 -0.000103005 -0.000697734
0.0 0.0 -0.000346714
-8.7717e-05 2.3709e-05 -3.97214e-05
0.0 0.0 -0.000346714
0.0 0.0 -0.000346714
0.0 0.0 -0.00160516
0.000392718 1.97273e-05 -0.00135111
-7.72037e-05 -1.63286e-05 -6.18904e-05
0.0 0.0 -0.000346714
0.0 0.0 -0.00160516
0.0 0.0 -0.000346714
0.0 0.0 -0.00160516
-3.5688e-05 5.57878e-05 -0.000219079
0.0 0.0 -0.00160516
0.000259336 -5.22924e-05 0.000831358
0.0 0.0 -0.000346714
0.0 0.0 -0.000346714
0.0 0.0 -0.00160516
0.0 0.0 -0.000346714
-0.0153015 -0.00673694 0.0235269
0.0 0.0 -0.000346714
0.0 0.0 -0.00160516
0.0 0.0 -0.000346714
0.0153015 0.00673694 -0.0254787
0.0 0.0 -0.000346714
0.0 0.0 -0.000346714
0.0 0.0 -0.000346714