# vtk DataFile Version 2.0
Generated by lpp.py
ASCII
DATASET POLYDATA
POINTS 809 float
-0.0343499 0.0252631 0.0521361
-0.0140497 0.0341208 0.052503
-0.015818 0.0202968 0.0534625
-0.00396742 0.00239006 0.0524544
-0.0198901 -0.0038704 0.0538429
-0.0325007 -0.025832 0.0509623
-0.000371679 -0.0238554 0.0523431
-0.00963557 -0.0321567 0.0482502
-0.0317134 -0.0341958 0.0512221
-0.027369 0.0224121 0.0480227
-0.450101 -0.00576903 -0.395827
-0.476172 -0.000152987 -0.395172
-0.476307 0.00262455 -0.392791
-0.476815 -0.0240829 -0.389922
-0.432873 0.016424 -0.392272
-0.468876 0.0158151 -0.38571
-0.478884 -0.0240885 -0.384117
-0.451341 0.0180682 -0.386335
-0.464246 -0.0162127 -0.377847
-0.476714 0.0248785 -0.379401
-0.452886 -0.00631265 -0.375922
-0.469362 -0.0189728 -0.371851
-0.442911 -0.00978194 -0.371601
-0.444836 -0.00390684 -0.366324
-0.449193 0.00743191 -0.366345
-0.463889 0.0144818 -0.366033
-0.417785 -0.0328202 -0.361368
-0.4458 -0.0176829 -0.362049
-0.446788 -0.00976015 -0.357206
-0.428997 -0.00243191 -0.358036
-0.432753 0.0022184 -0.359272
-0.443891 0.0115098 -0.356683
-0.445251 0.0165084 -0.359074
-0.447639 0.00420231 -0.355603
-0.450949 0.0148657 -0.352685
-0.407404 -0.0123591 -0.349802
-0.439904 0.00309948 -0.351183
-0.4314 0.00789115 -0.351892
-0.461169 0.0247098 -0.350797
-0.464047 0.041977 -0.349755
-0.420232 -0.030175 -0.346703
-0.432115 -0.000875342 -0.34549
-0.426375 0.00182585 -0.345852
-0.423554 -0.0155374 -0.34405
-0.432337 -0.0103317 -0.344595
-0.411676 -0.00798367 -0.344731
-0.417449 -0.00114169 -0.34217
-0.41394 0.00920262 -0.343236
-0.440937 -0.0109773 -0.340558
-0.42604 0.00542092 -0.339643
-0.413261 -0.0153825 -0.336742
-0.412039 -0.00772222 -0.333857
-0.486744 -0.00198219 -0.334039
-0.424881 0.00269736 -0.334008
-0.429972 0.00841726 -0.337003
-0.431672 0.0364119 -0.338685
-0.402047 -0.0252306 -0.333392
-0.438749 -0.0164344 -0.3307
-0.447867 -0.01213 -0.331006
-0.430972 0.0156227 -0.332971
-0.426871 0.0217492 -0.332394
-0.413459 -0.0114514 -0.329689
-0.431972 0.00567073 -0.329912
-0.420648 0.0579874 -0.325274
-0.413381 -0.0142288 -0.321755
-0.405573 -0.000926326 -0.320145
-0.410569 0.00442537 -0.320509
-0.427312 0.0089732 -0.32253
-0.414133 0.0153376 -0.319575
-0.409096 -0.00241275 -0.315599
-0.421175 0.0225969 -0.318377
-0.413462 0.00585083 -0.311774
-0.417037 -0.0151385 -0.30887
-0.410383 -0.000817749 -0.31061
-0.416635 0.0125079 -0.311622
-0.407027 0.0313155 -0.310761
-0.42131 0.0367553 -0.308559
-0.422369 0.0427264 -0.31096
-0.410714 0.0113192 -0.306547
-0.429191 0.0475117 -0.305739
-0.393278 0.00576302 -0.303338
-0.392046 0.00261534 -0.29806
-0.382881 0.00397523 -0.299114
-0.387496 0.0103588 -0.297304
-0.395051 0.011855 -0.299996
-0.395741 -0.012703 -0.29647
-0.389362 -0.00703051 -0.293039
-0.388291 0.0170557 -0.2932
-0.384474 -0.00836967 -0.290731
-0.387976 0.00528357 -0.292627
-0.409983 0.0396237 -0.293294
-0.399504 -0.0255166 -0.288895
-0.387135 -0.0104643 -0.287355
-0.381632 -0.00943757 -0.287505
-0.384367 0.00272016 -0.287095
-0.381374 0.00525954 -0.288564
-0.393174 0.00881276 -0.285343
-0.386948 0.00772851 -0.288234
-0.390161 0.0121856 -0.287206
-0.386274 -0.00435903 -0.284451
-0.381105 0.00143699 -0.282022
-0.381653 0.00403772 -0.285473
-0.384103 0.00645868 -0.279124
-0.389643 -0.027449 -0.276906
-0.377743 -0.0183298 -0.276455
-0.374802 -0.00040993 -0.274449
-0.375939 0.00537486 -0.276434
-0.382585 0.0129597 -0.276902
-0.374657 -0.0206479 -0.272168
-0.370584 -0.00905508 -0.273105
-0.361971 -0.00675908 -0.270504
-0.365161 -0.000157207 -0.27301
-0.361893 0.00190671 -0.270753
-0.372192 0.00474145 -0.274546
-0.378685 0.0113506 -0.273947
-0.374668 -0.0283208 -0.267774
-0.367365 -0.0213658 -0.267079
-0.371319 -0.0140344 -0.268091
-0.360108 -0.0119703 -0.266547
-0.363157 -0.00950099 -0.269719
-0.365355 0.00391229 -0.269517
-0.373692 0.00809894 -0.270072
-0.369258 -0.0283392 -0.263276
-0.361418 -0.0202927 -0.26741
-0.368443 -0.0152042 -0.263301
-0.366276 -0.0107711 -0.261335
-0.357948 -0.00741381 -0.264542
-0.366301 -0.00271568 -0.265041
-0.360475 0.00920889 -0.263203
-0.368606 -0.0306197 -0.260468
-0.366827 -0.0205473 -0.260079
-0.36161 -0.0135542 -0.261366
-0.355056 -0.0096278 -0.260279
-0.353149 -0.00437335 -0.258336
-0.357309 0.015379 -0.258708
-0.35994 0.02272 -0.259795
-0.349168 -0.00106816 -0.256131
-0.349418 0.0123079 -0.255535
-0.354147 0.0185652 -0.256231
-0.357771 -0.0292295 -0.256286
-0.348659 -0.0124209 -0.254
-0.341139 -0.00698387 -0.250722
-0.34424 -0.000876766 -0.253152
-0.344983 0.0211221 -0.251183
-0.338714 -0.0102449 -0.248205
-0.333503 -0.0128718 -0.246219
-0.333576 -0.00868332 -0.245915
-0.336287 -0.00460315 -0.247339
-0.334492 0.00317005 -0.247784
-0.338554 0.00812988 -0.249681
-0.334845 0.0141592 -0.246941
-0.340768 0.0178607 -0.249201
-0.336086 -0.0237977 -0.245669
-0.330387 -0.0175971 -0.243826
-0.330021 -0.0125473 -0.243558
-0.328906 -0.00845219 -0.244378
-0.331466 -0.00426913 -0.246292
-0.32888 -0.00423985 -0.244464
-0.325762 -0.00232798 -0.243686
-0.331322 0.00159382 -0.245079
-0.323859 0.0052261 -0.242392
-0.327795 0.00693689 -0.243045
-0.333003 0.0162876 -0.245484
-0.33886 -0.037832 -0.241138
-0.329216 -0.0286795 -0.24055
-0.322365 -0.020704 -0.239757
-0.321558 -0.0151928 -0.239407
-0.322447 -0.00663669 -0.241684
-0.322932 -0.00287325 -0.242272
-0.31981 -0.00332608 -0.239666
-0.324628 0.0008253 -0.240973
-0.317755 0.000336837 -0.24011
-0.323449 0.00941886 -0.240855
-0.317774 0.0093279 -0.239549
-0.321412 0.0133668 -0.240723
-0.344741 0.0380888 -0.243332
-0.349374 -0.0503894 -0.240056
-0.313064 -0.0220808 -0.235683
-0.318346 -0.010638 -0.238708
-0.310476 -0.00658179 -0.236824
-0.314691 -0.00630589 -0.238575
-0.30757 -0.00700211 -0.235556
-0.311043 -0.00270141 -0.236117
-0.313165 4.11235e-05 -0.238194
-0.313454 0.00411123 -0.236974
-0.31351 0.00851928 -0.2378
-0.311219 0.0101462 -0.236735
-0.319111 0.0211859 -0.238287
-0.319393 0.0268506 -0.237186
-0.305072 -0.0177149 -0.233226
-0.310462 -0.0172937 -0.234386
-0.303858 -0.0117124 -0.233556
-0.302876 -0.00888031 -0.23345
-0.304624 -0.00645894 -0.234361
-0.30832 0.00992352 -0.234513
-0.300576 0.00812545 -0.232376
-0.323417 0.037832 -0.235051
-0.299605 -0.01792 -0.230877
-0.299124 -0.0149086 -0.231207
-0.292534 -0.0153973 -0.228392
-0.296765 -0.0115517 -0.230591
-0.294468 -0.00807409 -0.228916
-0.295121 -0.00392611 -0.230441
-0.292047 -0.00391268 -0.229145
-0.297204 -0.000357152 -0.230359
-0.290234 0.0074028 -0.22806
-0.29469 0.0115918 -0.228588
-0.304785 0.016187 -0.232182
-0.32006 -0.0486251 -0.228013
-0.316567 -0.0459182 -0.227072
-0.286527 -0.0146862 -0.224857
-0.285617 -0.00955351 -0.226121
-0.283852 0.0155571 -0.224658
-0.296946 0.0203056 -0.229209
-0.292717 -0.0299193 -0.224012
-0.283242 -0.0243509 -0.221792
-0.284376 -0.0203869 -0.222409
-0.283312 -0.0181275 -0.224089
-0.277534 -0.020409 -0.221247
-0.280266 -0.0131619 -0.223474
-0.276905 -0.0136941 -0.222007
-0.280111 -0.00919131 -0.223836
-0.277096 -0.00856411 -0.222642
-0.279536 -0.00569046 -0.223806
-0.277974 -0.00258498 -0.223251
-0.277013 0.000325506 -0.222939
-0.301016 0.0430013 -0.222505
-0.278906 -0.0311336 -0.219308
-0.28109 -0.0178899 -0.220229
-0.271833 -0.00896021 -0.220395
-0.270309 -0.00482018 -0.219947
-0.286295 4.63283e-05 -0.221808
-0.270172 0.00145724 -0.219979
-0.275636 0.00649978 -0.220926
-0.270373 0.00804727 -0.218631
-0.275087 0.0146232 -0.221064
-0.271039 0.0152362 -0.218202
-0.274591 0.0198027 -0.219999
-0.286329 0.0290224 -0.221736
-0.281649 0.0278098 -0.221324
-0.271775 -0.0302045 -0.216521
-0.266316 -0.0141909 -0.217482
-0.263255 -0.011836 -0.214746
-0.264098 -0.00585076 -0.216199
-0.259397 -0.00920477 -0.215149
-0.265487 0.00222188 -0.216873
-0.2599 0.00873444 -0.215279
-0.265384 0.0197089 -0.216203
-0.264462 -0.0296392 -0.212683
-0.256142 -0.00884185 -0.213785
-0.250613 -0.0049452 -0.211636
-0.255604 -0.00412061 -0.212605
-0.248807 -0.000935775 -0.210099
-0.253006 0.0163914 -0.211529
-0.259138 0.0217288 -0.212207
-0.253773 -0.0343104 -0.208081
-0.252798 -0.0275512 -0.209398
-0.249347 -0.0186451 -0.208499
-0.243202 -0.0143277 -0.206657
-0.241046 -0.00488769 -0.207607
-0.253802 -0.00282183 -0.208027
-0.243474 -0.000933895 -0.207665
-0.256815 0.0260963 -0.21036
-0.251348 -0.0343265 -0.205072
-0.245695 -0.0279605 -0.206376
-0.243211 -0.0244487 -0.205085
-0.240113 -0.0204726 -0.203436
-0.237791 -0.0169533 -0.205192
-0.240767 -0.0081266 -0.207168
-0.238991 -0.00946999 -0.203471
-0.234588 -0.00575478 -0.204759
-0.23839 -0.00131556 -0.205516
-0.240217 0.00354891 -0.206117
-0.233093 0.0100621 -0.20292
-0.235985 0.0175368 -0.20425
-0.242524 0.0183641 -0.205761
-0.24398 0.0252041 -0.205254
-0.23446 -0.0336088 -0.200357
-0.231957 -0.0204518 -0.202142
-0.226117 -0.0159722 -0.200179
-0.230652 -0.0106394 -0.201663
-0.225275 -0.00334275 -0.19997
-0.233205 0.00454876 -0.201288
-0.228881 0.0130817 -0.200714
-0.234451 0.0212526 -0.202985
-0.229904 0.0235826 -0.200868
-0.235431 0.0279563 -0.202073
-0.244269 0.0398734 -0.202305
-0.270258 0.0542746 -0.204425
-0.301653 0.0659353 -0.206073
-0.23958 -0.039941 -0.2003
-0.224954 -0.0273472 -0.197797
-0.22629 -0.0241692 -0.199071
-0.228549 -0.0190255 -0.19968
-0.222182 -0.0100542 -0.196789
-0.221661 -0.00584259 -0.199364
-0.219283 -0.0036041 -0.197496
-0.217923 0.00512547 -0.196705
-0.221279 0.00873172 -0.198029
-0.229533 0.0194742 -0.199748
-0.221148 0.020597 -0.197653
-0.257096 0.0551792 -0.199091
-0.228429 -0.0368072 -0.195726
-0.215685 -0.0233583 -0.193742
-0.211636 -0.0222831 -0.193375
-0.215607 -0.0183815 -0.194568
-0.213052 -0.0150149 -0.194916
-0.207491 -0.00903408 -0.193156
-0.209041 -0.00279976 -0.194103
-0.211506 0.00228357 -0.194014
-0.206371 0.000871691 -0.192966
-0.208748 0.00683517 -0.193915
-0.206636 0.00386032 -0.193057
-0.204665 0.00601228 -0.192227
-0.236173 0.00965316 -0.193345
-0.211906 0.00708488 -0.195227
-0.214064 0.0107812 -0.195832
-0.210924 0.0106611 -0.193162
-0.218399 0.0168549 -0.195841
-0.211227 0.0155638 -0.194103
-0.208549 0.0175328 -0.192766
-0.218298 0.0219261 -0.195188
[...]
POINT_DATA 809
VECTORS i float
0.0 0.0 0.0
0.0 0.0 0.0
0.0 0.0 0.0
0.0 0.0 0.0
0.0 0.0 0.0
0.0 0.0 0.0
0.0 0.0 0.0
0.0 0.0 0.0
0.0 0.0 0.0
0.0 0.0 0.0
0.0 0.0 0.0
0.0 0.0 0.0
0.0 0.0 0.0
0.0 0.0 0.0
0.0 0.0 0.0
0.0 0.0 0.0
0.0 0.0 0.0
0.0 0.0 0.0
0.0 0.0 0.0
0.0 0.0 0.0
0.0 0.0 0.0
0.0 0.0 0.0
0.0 0.0 0.0
0.0 0.0 0.0
0.0 0.0 0.0
0.0 0.0 0.0
0.0 0.0 0.0
0.0 0.0 0.0
0.0 0.0 0.0
0.0 0.0 0.0
0.0 0.0 0.0
0.0 0.0 0.0
0.0 0.0 0.0
0.0 0.0 0.0
0.0 0.0 0.0
0.0 0.0 0.0
0.0 0.0 0.0
0.0 0.0 0.0
0.0 0.0 0.0
0.0 0.0 0.0
0.0 0.0 0.0
0.0 0.0 0.0
0.0 0.0 0.0
0.0 0.0 0.0
0.0 0.0 0.0
0.0 0.0 0.0
0.0 0.0 0.0
0.0 0.0 0.0
0.0 0.0 0.0
0.0 0.0 0.0
0.0 0.0 0.0
0.0 0.0 0.0
0.0 0.0 0.0
0.0 0.0 0.0
0.0 0.0 0.0
0.0 0.0 0.0
0.0 0.0 0.0
0.0 0.0 0.0
0.0 0.0 0.0
0.0 0.0 0.0
0.0 0.0 0.0
0.0 0.0 0.0
0.0 0.0 0.0
0.0 0.0 0.0
0.0 0.0 0.0
0.0 0.0 0.0
0.0 0.0 0.0
0.0 0.0 0.0
0.0 0.0 0.0
0.0 0.0 0.0
0.0 0.0 0.0
0.0 0.0 0.0
0.0 0.0 0.0
0.0 0.0 0.0
0.0 0.0 0.0
0.0 0.0 0.0
0.0 0.0 0.0
0.0 0.0 0.0
0.0 0.0 0.0
0.0 0.0 0.0
0.0 0.0 0.0
0.0 0.0 0.0
0.0 0.0 0.0
0.0 0.0 0.0
0.0 0.0 0.0
0.0 0.0 0.0
0.0 0.0 0.0
0.0 0.0 0.0
0.0 0.0 0.0
0.0 0.0 0.0
0.0 0.0 0.0
0.0 0.0 0.0
0.0 0.0 0.0
0.0 0.0 0.0
0.0 0.0 0.0
0.0 0.0 0.0
0.0 0.0 0.0
0.0 0.0 0.0
0.0 0.0 0.0
0.0 0.0 0.0
0.0 0.0 0.0
0.0 0.0 0.0
0.0 0.0 0.0
0.0 0.0 0.0
0.0 0.0 0.0
0.0 0.0 0.0
0.0 0.0 0.0
0.0 0.0 0.0
0.0 0.0 0.0
0.0 0.0 0.0
0.0 0.0 0.0
0.0 0.0 0.0
0.0 0.0 0.0
0.0 0.0 0.0
0.0 0.0 0.0
0.0 0.0 0.0
0.0 0.0 0.0
0.0 0.0 0.0
0.0 0.0 0.0
0.0 0.0 0.0
0.0 0.0 0.0
0.0 0.0 0.0
0.0 0.0 0.0
0.0 0.0 0.0
0.0 0.0 0.0
0.0 0.0 0.0
0.0 0.0 0.0
0.0 0.0 0.0
0.0 0.0 0.0
0.0 0.0 0.0
0.0 0.0 0.0
0.0 0.0 0.0
0.0 0.0 0.0
0.0 0.0 0.0
0.0 0.0 0.0
0.0 0.0 0.0
0.0 0.0 0.0
0.0 0.0 0.0
0.0 0.0 0.0
0.0 0.0 0.0
0.0 0.0 0.0
0.0 0.0 0.0
0.0 0.0 0.0
0.0 0.0 0.0
0.0 0.0 0.0
0.0 0.0 0.0
0.0 0.0 0.0
0.0 0.0 0.0
0.0 0.0 0.0
0.0 0.0 0.0
0.0 0.0 0.0
0.0 0.0 0.0
0.0 0.0 0.0
0.0 0.0 0.0
0.0 0.0 0.0
0.0 0.0 0.0
0.0 0.0 0.0
0.0 0.0 0.0
0.0 0.0 0.0
0.0 0.0 0.0
0.0 0.0 0.0
0.0 0.0 0.0
0.0 0.0 0.0
0.0 0.0 0.0
0.0 0.0 0.0
0.0 0.0 0.0
0.0 0.0 0.0
0.0 0.0 0.0
0.0 0.0 0.0
0.0 0.0 0.0
0.0 0.0 0.0
0.0 0.0 0.0
0.0 0.0 0.0
0.0 0.0 0.0
0.0 0.0 0.0
0.0 0.0 0.0
0.0 0.0 0.0
0.0 0.0 0.0
0.0 0.0 0.0
0.0 0.0 0.0
0.0 0.0 0.0
0.0 0.0 0.0
0.0 0.0 0.0
0.0 0.0 0.0
0.0 0.0 0.0
0.0 0.0 0.0
0.0 0.0 0.0
0.0 0.0 0.0
0.0 0.0 0.0
0.0 0.0 0.0
0.0 0.0 0.0
0.0 0.0 0.0
0.0 0.0 0.0
0.0 0.0 0.0
0.0 0.0 0.0
0.0 0.0 0.0
0.0 0.0 0.0
0.0 0.0 0.0
0.0 0.0 0.0
0.0 0.0 0.0
0.0 0.0 0.0
0.0 0.0 0.0
0.0 0.0 0.0
0.0 0.0 0.0
0.0 0.0 0.0
0.0 0.0 0.0
0.0 0.0 0.0
0.0 0.0 0.0
0.0 0.0 0.0
0.0 0.0 0.0
0.0 0.0 0.0
0.0 0.0 0.0
0.0 0.0 0.0
0.0 0.0 0.0
0.0 0.0 0.0
0.0 0.0 0.0
0.0 0.0 0.0
0.0 0.0 0.0
0.0 0.0 0.0
0.0 0.0 0.0
0.0 0.0 0.0
0.0 0.0 0.0
0.0 0.0 0.0
0.0 0.0 0.0
0.0 0.0 0.0
0.0 0.0 0.0
0.0 0.0 0.0
0.0 0.0 0.0
0.0 0.0 0.0
0.0 0.0 0.0
0.0 0.0 0.0
0.0 0.0 0.0
0.0 0.0 0.0
0.0 0.0 0.0
0.0 0.0 0.0
0.0 0.0 0.0
0.0 0.0 0.0
0.0 0.0 0.0
0.0 0.0 0.0
0.0 0.0 0.0
0.0 0.0 0.0
0.0 0.0 0.0
0.0 0.0 0.0
0.0 0.0 0.0
0.0 0.0 0.0
0.0 0.0 0.0
0.0 0.0 0.0
0.0 0.0 0.0
0.0 0.0 0.0
0.0 0.0 0.0
0.0 0.0 0.0
0.0 0.0 0.0
0.0 0.0 0.0
0.0 0.0 0.0
0.0 0.0 0.0
0.0 0.0 0.0
0.0 0.0 0.0
0.0 0.0 0.0
0.0 0.0 0.0
0.0 0.0 0.0
0.0 0.0 0.0
0.0 0.0 0.0
0.0 0.0 0.0
0.0 0.0 0.0
0.0 0.0 0.0
0.0 0.0 0.0
0.0 0.0 0.0
0.0 0.0 0.0
0.0 0.0 0.0
0.0 0.0 0.0
0.0 0.0 0.0
0.0 0.0 0.0
0.0 0.0 0.0
0.0 0.0 0.0
0.0 0.0 0.0
0.0 0.0 0.0
0.0 0.0 0.0
0.0 0.0 0.0
0.0 0.0 0.0
0.0 0.0 0.0
0.0 0.0 0.0
0.0 0.0 0.0
0.0 0.0 0.0
0.0 0.0 0.0
0.0 0.0 0.0
0.0 0.0 0.0
0.0 0.0 0.0
0.0 0.0 0.0
0.0 0.0 0.0
0.0 0.0 0.0
0.0 0.0 0.0
0.0 0.0 0.0
0.0 0.0 0.0
0.0 0.0 0.0
0.0 0.0 0.0
0.0 0.0 0.0
0.0 0.0 0.0
0.0 0.0 0.0
0.0 0.0 0.0
0.0 0.0 0.0
0.0 0.0 0.0
0.0 0.0 0.0
0.0 0.0 0.0
0.0 0.0 0.0
0.0 0.0 0.0
0.0 0.0 0.0
0.0 0.0 0.0
0.0 0.0 0.0
0.0 0.0 0.0
0.0 0.0 0.0
0.0 0.0 0.0
0.0 0.0 0.0
0.0 0.0 0.0
0.0 0.0 0.0
0.0 0.0 0.0
0.0 0.0 0.0
0.0 0.0 0.0
0.0 0.0 0.0
0.0 0.0 0.0
0.0 0.0 0.0
0.0 0.0 0.0
0.0 0.0 0.0
0.0 0.0 0.0
0.0 0.0 0.0
0.0 0.0 0.0
0.0 0.0 0.0
0.0 0.0 0.0
0.0 0.0 0.0
0.0 0.0 0.0
0.0 0.0 0.0
0.0 0.0 0.0
0.0 0.0 0.0
0.0 0.0 0.0
0.0 0.0 0.0
0.0 0.0 0.0
0.0 0.0 0.0
0.0 0.0 0.0
0.0 0.0 0.0
0.0 0.0 0.0
0.0 0.0 0.0
0.0 0.0 0.0
0.0 0.0 0.0
0.0 0.0 0.0
0.0 0.0 0.0
0.0 0.0 0.0
0.0 0.0 0.0
0.0 0.0 0.0
0.0 0.0 0.0
0.0 0.0 0.0
0.0 0.0 0.0
0.0 0.0 0.0
0.0 0.0 0.0
0.0 0.0 0.0
0.0 0.0 0.0
0.0 0.0 0.0
0.0 0.0 0.0
0.0 0.0 0.0
0.0 0.0 0.0
0.0 0.0 0.0
0.0 0.0 0.0
0.0 0.0 0.0
0.0 0.0 0.0
0.0 0.0 0.0
0.0 0.0 0.0
0.0 0.0 0.0
0.0 0.0 0.0
0.0 0.0 0.0
0.0 0.0 0.0
0.0 0.0 0.0
0.0 0.0 0.0
0.0 0.0 0.0
0.0 0.0 0.0
0.0 0.0 0.0
0.0 0.0 0.0
0.0 0.0 0.0
0.0 0.0 0.0
0.0 0.0 0.0
0.0 0.0 0.0
0.0 0.0 0.0
0.0 0.0 0.0
0.0 0.0 0.0
0.0 0.0 0.0
0.0 0.0 0.0
0.0 0.0 0.0
0.0 0.0 0.0
0.0 0.0 0.0
0.0 0.0 0.0
0.0 0.0 0.0
0.0 0.0 0.0
0.0 0.0 0.0
0.0 0.0 0.0
0.0 0.0 0.0
0.0 0.0 0.0
0.0 0.0 0.0
0.0 0.0 0.0
0.0 0.0 0.0
0.0 0.0 0.0
0.0 0.0 0.0
0.0 0.0 0.0
0.0 0.0 0.0
0.0 0.0 0.0
0.0 0.0 0.0
0.0 0.0 0.0
0.0 0.0 0.0
0.0 0.0 0.0
0.0 0.0 0.0
0.0 0.0 0.0
0.0 0.0 0.0
0.0 0.0 0.0
0.0 0.0 0.0
0.0 0.0 0.0
0.0 0.0 0.0
0.0 0.0 0.0
0.0 0.0 0.0
0.0 0.0 0.0
0.0 0.0 0.0
0.0 0.0 0.0
0.0 0.0 0.0
0.0 0.0 0.0
0.0 0.0 0.0
0.0 0.0 0.0
0.0 0.0 0.0
0.0 0.0 0.0
0.0 0.0 0.0
0.0 0.0 0.0
0.0 0.0 0.0
0.0 0.0 0.0
0.0 0.0 0.0
0.0 0.0 0.0
0.0 0.0 0.0
0.0 0.0 0.0
0.0 0.0 0.0
0.0 0.0 0.0
0.0 0.0 0.0
0.0 0.0 0.0
0.0 0.0 0.0
0.0 0.0 0.0
0.0 0.0 0.0
0.0 0.0 0.0
0.0 0.0 0.0
0.0 0.0 0.0
0.0 0.0 0.0
0.0 0.0 0.0
0.0 0.0 0.0
0.0 0.0 0.0
0.0 0.0 0.0
0.0 0.0 0.0
0.0 0.0 0.0
0.0 0.0 0.0
0.0 0.0 0.0
0.0 0.0 0.0
0.0 0.0 0.0
0.0 0.0 0.0
0.0 0.0 0.0
0.0 0.0 0.0
0.0 0.0 0.0
0.0 0.0 0.0
0.0 0.0 0.0
0.0 0.0 0.0
0.0 0.0 0.0
0.0 0.0 0.0
0.0 0.0 0.0
0.0 0.0 0.0
0.0 0.0 0.0
0.0 0.0 0.0
0.0 0.0 0.0
0.0 0.0 0.0
0.0 0.0 0.0
0.0 0.0 0.0
0.0 0.0 0.0
0.0 0.0 0.0
0.0 0.0 0.0
0.0 0.0 0.0
0.0 0.0 0.0
0.0 0.0 0.0
0.0 0.0 0.0
0.0 0.0 0.0
0.0 0.0 0.0
0.0 0.0 0.0
0.0 0.0 0.0
0.0 0.0 0.0
0.0 0.0 0.0
0.0 0.0 0.0
0.0 0.0 0.0
0.0 0.0 0.0
0.0 0.0 0.0
0.0 0.0 0.0
0.0 0.0 0.0
0.0 0.0 0.0
0.0 0.0 0.0
0.0 0.0 0.0
0.0 0.0 0.0
0.0 0.0 0.0
0.0 0.0 0.0
0.0 0.0 0.0
0.0 0.0 0.0
0.0 0.0 0.0
0.0 0.0 0.0
0.0 0.0 0.0
0.0 0.0 0.0
0.0 0.0 0.0
0.0 0.0 0.0
0.0 0.0 0.0
0.0 0.0 0.0
0.0 0.0 0.0
0.0 0.0 0.0
0.0 0.0 0.0
0.0 0.0 0.0
0.0 0.0 0.0
0.0 0.0 0.0
0.0 0.0 0.0
0.0 0.0 0.0
0.0 0.0 0.0
0.0 0.0 0.0
0.0 0.0 0.0
0.0 0.0 0.0
0.0 0.0 0.0
0.0 0.0 0.0
0.0 0.0 0.0
0.0 0.0 0.0
0.0 0.0 0.0
0.0 0.0 0.0
0.0 0.0 0.0
0.0 0.0 0.0
0.0 0.0 0.0
0.0 0.0 0.0
0.0 0.0 0.0
0.0 0.0 0.0
0.0 0.0 0.0
0.0 0.0 0.0
0.0 0.0 0.0
0.0 0.0 0.0
0.0 0.0 0.0
0.0 0.0 0.0
0.0 0.0 0.0
0.0 0.0 0.0
0.0 0.0 0.0
0.0 0.0 0.0
0.0 0.0 0.0
0.0 0.0 0.0
0.0 0.0 0.0
0.0 0.0 0.0
0.0 0.0 0.0
0.0 0.0 0.0
0.0 0.0 0.0
0.0 0.0 0.0
0.0 0.0 0.0
0.0 0.0 0.0
0.0 0.0 0.0
0.0 0.0 0.0
0.0 0.0 0.0
0.0 0.0 0.0
0.0 0.0 0.0
0.0 0.0 0.0
0.0 0.0 0.0
0.0 0.0 0.0
0.0 0.0 0.0
0.0 0.0 0.0
0.0 0.0 0.0
0.0 0.0 0.0
0.0 0.0 0.0
0.0 0.0 0.0
0.0 0.0 0.0
0.0 0.0 0.0
0.0 0.0 0.0
0.0 0.0 0.0
0.0 0.0 0.0
0.0 0.0 0.0
0.0 0.0 0.0
0.0 0.0 0.0
0.0 0.0 0.0
0.0 0.0 0.0
0.0 0.0 0.0
0.0 0.0 0.0
0.0 0.0 0.0
0.0 0.0 0.0
0.0 0.0 0.0
0.0 0.0 0.0
0.0 0.0 0.0
0.0 0.0 0.0
0.0 0.0 0.0
0.0 0.0 0.0
0.0 0.0 0.0
0.0 0.0 0.0
0.0 0.0 0.0
0.0 0.0 0.0
0.0 0.0 0.0
0.0 0.0 0.0
0.0 0.0 0.0
0.0 0.0 0.0
0.0 0.0 0.0
0.0 0.0 0.0
0.0 0.0 0.0
0.0 0.0 0.0
0.0 0.0 0.0
0.0 0.0 0.0
0.0 0.0 0.0
0.0 0.0 0.0
0.0 0.0 0.0
0.0 0.0 0.0
0.0 0.0 0.0
0.0 0.0 0.0
0.0 0.0 0.0
0.0 0.0 0.0
0.0 0.0 0.0
0.0 0.0 0.0
0.0 0.0 0.0
0.0 0.0 0.0
0.0 0.0 0.0
0.0 0.0 0.0
0.0 0.0 0.0
0.0 0.0 0.0
0.0 0.0 0.0
0.0 0.0 0.0
0.0 0.0 0.0
0.0 0.0 0.0
0.0 0.0 0.0
0.0 0.0 0.0
0.0 0.0 0.0
0.0 0.0 0.0
0.0 0.0 0.0
0.0 0.0 0.0
0.0 0.0 0.0
0.0 0.0 0.0
0.0 0.0 0.0
0.0 0.0 0.0
0.0 0.0 0.0
0.0 0.0 0.0
0.0 0.0 0.0
0.0 0.0 0.0
0.0 0.0 0.0
0.0 0.0 0.0
0.0 0.0 0.0
0.0 0.0 0.0
0.0 0.0 0.0
0.0 0.0 0.0
0.0 0.0 0.0
0.0 0.0 0.0
0.0 0.0 0.0
0.0 0.0 0.0
0.0 0.0 0.0
0.0 0.0 0.0
0.0 0.0 0.0
0.0 0.0 0.0
0.0 0.0 0.0
0.0 0.0 0.0
0.0 0.0 0.0
0.0 0.0 0.0
0.0 0.0 0.0
0.0 0.0 0.0
0.0 0.0 0.0
0.0 0.0 0.0
0.0 0.0 0.0
0.0 0.0 0.0
0.0 0.0 0.0
0.0 0.0 0.0
0.0 0.0 0.0
0.0 0.0 0.0
0.0 0.0 0.0
0.0 0.0 0.0
0.0 0.0 0.0
0.0 0.0 0.0
0.0 0.0 0.0
0.0 0.0 0.0
0.0 0.0 0.0
0.0 0.0 0.0
0.0 0.0 0.0
0.0 0.0 0.0
0.0 0.0 0.0
0.0 0.0 0.0
0.0 0.0 0.0
0.0 0.0 0.0
0.0 0.0 0.0
0.0 0.0 0.0
0.0 0.0 0.0
0.0 0.0 0.0
0.0 0.0 0.0
0.0 0.0 0.0
0.0 0.0 0.0
0.0 0.0 0.0
0.0 0.0 0.0
0.0 0.0 0.0
0.0 0.0 0.0
0.0 0.0 0.0
0.0 0.0 0.0
0.0 0.0 0.0
0.0 0.0 0.0
0.0 0.0 0.0
0.0 0.0 0.0
0.0 0.0 0.0
0.0 0.0 0.0
0.0 0.0 0.0
0.0 0.0 0.0
0.0 0.0 0.0
0.0 0.0 0.0
0.0 0.0 0.0
0.0 0.0 0.0
0.0 0.0 0.0
0.0 0.0 0.0
0.0 0.0 0.0
0.0 0.0 0.0
0.0 0.0 0.0
0.0 0.0 0.0
0.0 0.0 0.0
0.0 0.0 0.0
0.0 0.0 0.0
0.0 0.0 0.0
0.0 0.0 0.0
0.0 0.0 0.0
0.0 0.0 0.0
0.0 0.0 0.0
0.0 0.0 0.0
0.0 0.0 0.0
0.0 0.0 0.0
0.0 0.0 0.0
0.0 0.0 0.0
0.0 0.0 0.0
0.0 0.0 0.0
0.0 0.0 0.0
0.0 0.0 0.0
0.0 0.0 0.0
0.0 0.0 0.0
0.0 0.0 0.0
0.0 0.0 0.0
0.0 0.0 0.0
0.0 0.0 0.0
0.0 0.0 0.0
0.0 0.0 0.0
0.0 0.0 0.0
0.0 0.0 0.0
0.0 0.0 0.0
0.0 0.0 0.0
0.0 0.0 0.0
0.0 0.0 0.0
0.0 0.0 0.0
0.0 0.0 0.0
0.0 0.0 0.0
0.0 0.0 0.0
0.0 0.0 0.0
0.0 0.0 0.0
0.0 0.0 0.0
0.0 0.0 0.0
0.0 0.0 0.0
0.0 0.0 0.0
0.0 0.0 0.0
0.0 0.0 0.0
0.0 0.0 0.0
0.0 0.0 0.0
0.0 0.0 0.0
0.0 0.0 0.0
0.0 0.0 0.0
0.0 0.0 0.0
0.0 0.0 0.0
0.0 0.0 0.0
0.0 0.0 0.0
0.0 0.0 0.0
0.0 0.0 0.0
0.0 0.0 0.0
0.0 0.0 0.0
0.0 0.0 0.0
0.0 0.0 0.0
0.0 0.0 0.0
0.0 0.0 0.0
0.0 0.0 0.0
0.0 0.0 0.0
0.0 0.0 0.0
0.0 0.0 0.0
0.0 0.0 0.0
0.0 0.0 0.0
0.0 0.0 0.0
0.0 0.0 0.0
0.0 0.0 0.0
0.0 0.0 0.0
0.0 0.0 0.0
0.0 0.0 0.0
0.0 0.0 0.0
0.0 0.0 0.0
0.0 0.0 0.0
0.0 0.0 0.0
0.0 0.0 0.0
0.0 0.0 0.0
0.0 0.0 0.0
0.0 0.0 0.0
0.0 0.0 0.0
0.0 0.0 0.0
0.0 0.0 0.0
0.0 0.0 0.0
0.0 0.0 0.0
0.0 0.0 0.0
0.0 0.0 0.0
0.0 0.0 0.0
0.0 0.0 0.0
0.0 0.0 0.0
0.0 0.0 0.0
0.0 0.0 0.0
0.0 0.0 0.0
0.0 0.0 0.0
0.0 0.0 0.0
0.0 0.0 0.0
0.0 0.0 0.0
0.0 0.0 0.0
0.0 0.0 0.0
0.0 0.0 0.0
0.0 0.0 0.0
0.0 0.0 0.0
0.0 0.0 0.0
0.0 0.0 0.0
0.0 0.0 0.0
0.0 0.0 0.0
VECTORS f float
0.0 0.0 0.0
0.0 0.0 0.0
0.0 0.0 0.0
0.0 0.0 0.0
0.0 0.0 0.0
0.0 0.0 0.0
0.0 0.0 0.0
0.0 0.0 -0.00160516
0.0 0.0 0.0
0.0 0.0 -0.000346714
0.0 0.0 -0.000346714
0.0 0.0 -0.000346714
0.0 0.0 -0.000346714
0.0 0.0 -0.000346714
0.0 0.0 -0.000346714
0.0 0.0 -0.00160516
0.0 0.0 -0.000346714
0.0 0.0 -0.000346714
0.0 0.0 -0.000346714
0.0 0.0 -0.000346714
0.0 0.0 -0.000346714
0.0 0.0 -0.00160516
0.0 0.0 -0.00160516
0.0 0.0 -0.00160516
0.0 0.0 -0.000346714
0.0 0.0 -0.000346714
0.0 0.0 -0.000346714
0.0 0.0 -0.000346714
0.0 0.0 -0.00160516
0.0 0.0 -0.000346714
0.0 0.0 -0.000346714
0.0 0.0 -0.000346714
0.0 0.0 -0.00160516
0.0 0.0 -0.00160516
0.0 0.0 -0.00160516
0.0 0.0 -0.000346714
0.0 0.0 -0.00160516
0.0 0.0 -0.00160516
0.0 0.0 -0.000346714
0.0 0.0 -0.000346714
0.0 0.0 -0.00160516
0.0 0.0 -0.000346714
0.0 0.0 -0.00160516
0.0 0.0 -0.00160516
0.0 0.0 -0.000346714
0.0 0.0 -0.000346714
0.0 0.0 -0.00160516
0.0 0.0 -0.000346714
0.0 0.0 -0.000346714
0.0 0.0 -0.00160516
0.0 0.0 -0.000346714
0.0 0.0 -0.000346714
0.0 0.0 -0.00160516
0.0 0.0 -0.00160516
0.0 0.0 -0.000346714
0.0 0.0 -0.00160516
0.0 0.0 -0.000346714
0.0 0.0 -0.000346714
0.0 0.0 -0.00160516
0.0 0.0 -0.000346714
0.0 0.0 -0.000346714
0.0 0.0 -0.00160516
0.0 0.0 -0.000346714
0.0 0.0 -0.00160516
0.0 0.0 -0.000346714
0.0 0.0 -0.000346714
0.0 0.0 -0.000346714
0.0 0.0 -0.00160516
0.0 0.0 -0.00160516
0.0 0.0 -0.00160516
0.0 0.0 -0.000346714
0.0 0.0 -0.000346714
0.0 0.0 -0.00160516
0.0 0.0 -0.000346714
0.0 0.0 -0.00160516
0.0 0.0 -0.000346714
0.0 0.0 -0.00160516
0.0 0.0 -0.000346714
0.0 0.0 -0.00160516
0.0 0.0 -0.000346714
0.0 0.0 -0.000346714
0.0 0.0 -0.00160516
0.0 0.0 -0.000346714
0.0 0.0 -0.000346714
0.0 0.0 -0.000346714
0.0 0.0 -0.000346714
0.0 0.0 -0.00160516
0.0 0.0 -0.000346714
0.0 0.0 -0.000346714
0.0 0.0 -0.000346714
0.0 0.0 -0.00160516
0.0 0.0 -0.000346714
0.0 0.0 -0.00160516
0.0 0.0 -0.000346714
0.0 0.0 -0.000346714
0.0 0.0 -0.000346714
0.0 0.0 -0.00160516
0.0 0.0 -0.000346714
0.0 0.0 -0.000346714
0.0 0.0 -0.000346714
0.0 0.0 -0.000346714
0.0 0.0 -0.000346714
0.0 0.0 -0.00160516
0.0 0.0 -0.000346714
0.0 0.0 -0.000346714
0.0 0.0 -0.00160516
0.0 0.0 -0.00160516
0.0 0.0 -0.00160516
0.0 0.0 -0.000346714
0.0 0.0 -0.00160516
0.0 0.0 -0.000346714
0.0 0.0 -0.000346714
0.0 0.0 -0.000346714
0.0 0.0 -0.000346714
0.0 0.0 -0.00160516
0.0 0.0 -0.000346714
0.0 0.0 -0.000346714
0.0 0.0 -0.00160516
0.0 0.0 -0.000346714
0.0 0.0 -0.000346714
0.0 0.0 -0.000346714
0.0 0.0 -0.00160516
0.0 0.0 -0.000346714
0.0 0.0 -0.000346714
0.0 0.0 -0.00160516
0.0 0.0 -0.000346714
0.0 0.0 -0.000346714
0.0 0.0 -0.00160516
0.0 0.0 -0.00160516
0.0 0.0 -0.000346714
0.0 0.0 -0.000346714
0.0 0.0 -0.00160516
0.0 0.0 -0.000346714
0.0 0.0 -0.000346714
0.0 0.0 -0.00160516
0.0 0.0 -0.000346714
0.0 0.0 -0.000346714
0.0 0.0 -0.000346714
0.0 0.0 -0.000346714
0.0 0.0 -0.000346714
0.0 0.0 -0.000346714
0.0 0.0 -0.000346714
0.0 0.0 -0.000346714
0.0 0.0 -0.000346714
0.0 0.0 -0.00160516
0.0 0.0 -0.000346714
0.0 0.0 -0.000346714
0.0 0.0 -0.00160516
0.0 0.0 -0.000346714
0.0 0.0 -0.000346714
0.0 0.0 -0.000346714
0.0 0.0 -0.000346714
0.0 0.0 -0.000346714
0.0 0.0 -0.000346714
0.0 0.0 -0.00160516
0.0 0.0 -0.000346714
0.0 0.0 -0.000346714
0.0 0.0 -0.000346714
0.0 0.0 -0.000346714
0.0 0.0 -0.00160516
0.0 0.0 -0.000346714
0.0 0.0 -0.00160516
0.0 0.0 -0.000346714
0.0 0.0 -0.000346714
0.0 0.0 -0.000346714
-8.22681e-05 4.00533e-05 -4.04378e-05
7.04106e-05 -3.38824e-05 -0.001515
0.0 0.0 -0.000346714
0.0 0.0 -0.000346714
0.0 0.0 -0.00160516
0.0 0.0 -0.00160516
-8.83196e-05 -1.32913e-05 -3.80576e-05
0.0 0.0 -0.00160516
-8.82203e-05 -1.31767e-05 -3.79759e-05
0.0 0.0 -0.000346714
0.0 0.0 -0.00160516
0.0 0.0 -0.000346714
0.0 0.0 -0.000346714
-0.00404401 0.000516201 0.0202311
0.0025513 -0.00568606 0.00113264
0.0 0.0 -0.000346714
0.0 0.0 -0.000346714
-0.00297112 0.00537013 -0.00144087
-0.000114126 -3.75898e-06 -4.55312e-05
-0.000538696 -8.03151e-05 0.00013548
0.0 0.0 -0.000346714
0.0 0.0 -0.000346714
-6.56249e-05 -2.28757e-05 -0.000113381
-8.70333e-05 -7.41798e-05 -3.23704e-05
0.0 0.0 -0.000346714
-0.000362835 0.000113116 -0.000354264
-2.06193e-05 0.000327801 8.88849e-05
-4.13636e-05 -7.49552e-05 -0.000310808
-8.81729e-05 7.42739e-06 -3.84103e-05
0.0 0.0 -0.000346714
-9.17365e-05 -1.3779e-05 -3.14802e-05
-0.000160802 -0.00013575 8.26555e-05
0.0 0.0 -0.000346714
0.0 0.0 -0.000346714
-8.88393e-05 2.31294e-05 -3.676e-05
-8.8964e-05 2.31958e-05 -3.59975e-05
-0.000384676 9.89727e-05 -0.000240105
1.88213e-05 -2.61774e-05 9.49112e-06
-8.8609e-05 7.1614e-06 -3.76498e-05
-0.000410295 3.31623e-05 -0.000174217
-8.78889e-05 -1.33704e-05 -3.87426e-05
-0.000409495 -6.22438e-05 -0.000175524
-0.000382787 -0.000178254 -0.000228548
0.0 0.0 -0.000346714
0.0 0.0 -0.00160516
-0.000405577 0.000104961 -0.00018088
2.57238e-05 2.95073e-05 3.59108e-05
1.84673e-05 -2.38652e-05 3.41375e-06
2.25364e-05 4.27971e-06 0.000531258
0.0 0.0 -0.00160516
-0.000396258 0.000179541 -0.000189737
0.0 0.0 -0.000346714
-8.53828e-05 3.83495e-05 -4.31021e-05
-2.68889e-05 6.95411e-06 -0.000200538
0.0 0.0 -0.000346714
-3.49607e-05 3.74935e-06 -0.000173494
0.0 0.0 -0.000346714
-8.91832e-05 2.3504e-05 -1.4356e-05
2.28708e-05 -6.56607e-06 2.15895e-05
-8.34897e-05 6.53638e-06 -5.35838e-05
-8.03739e-05 -1.25068e-05 -5.18241e-05
-0.000580948 -0.00078068 0.000425776
0.000226972 -0.000205672 -0.00108898
0.0 0.0 -0.00160516
-7.90325e-05 2.01744e-05 -5.9613e-05
-8.73514e-05 7.98786e-06 -4.18369e-05
0.0 0.0 -0.00160516
-0.000100249 -1.28459e-05 -3.44422e-06
-0.00019325 -2.24213e-05 -0.000711742
0.0 0.0 -0.00160516
0.0 0.0 -0.000346714
-0.00102576 -0.00038421 0.00167141
-8.33899e-05 -3.30654e-05 -4.37696e-05
7.09553e-05 6.3874e-05 -0.00138442
-0.000119464 -8.16925e-05 -1.27037e-08
0.0 0.0 -0.000346714
0.0 0.0 -0.000346714
0.0 0.0 -0.00160516
-0.000462303 3.10596e-05 -0.000172635
-8.84706e-05 9.40328e-06 -3.3902e-05
-0.000548255 -9.03201e-05 0.000308829
7.44108e-05 1.18922e-05 -0.000494526
0.0 0.0 -0.000346714
-0.00444639 0.00361563 0.0109833
5.06419e-05 -5.94537e-05 -0.000425489
-0.000202997 4.68371e-06 0.000197453
0.0 0.0 -0.00160516
0.0 0.0 -0.000346714
-8.15053e-05 -2.90948e-05 -5.24611e-05
-0.000590879 -0.00027143 0.000405368
0.0 0.0 -0.000346714
0.0 0.0 -0.000346714
0.0 0.0 -0.00160516
-0.000690791 0.000260747 0.000495264
-0.000140185 1.65464e-05 7.85894e-05
0.0 0.0 -0.00160516
-0.000408714 -3.48814e-05 -0.000182332
-0.000381929 -0.00024683 -0.000226563
0.0 0.0 -0.000346714
-0.000325849 0.000232593 0.000516877
-0.000441532 0.000200613 -0.000175712
0.0 0.0 -0.00160516
-2.76444e-06 -4.58509e-05 -2.70954e-05
0.0 0.0 -0.000346714
0.0 0.0 -0.00160516
-8.72002e-05 1.62916e-05 -3.74498e-05
-0.000504645 -4.30789e-05 4.53404e-05
-0.00053276 -4.49074e-05 8.86434e-05
-0.000393767 -3.1094e-05 -0.000190209
-8.27144e-05 -2.6321e-05 -5.15861e-05
-0.000379068 -0.000130263 -0.000227074
-0.000409562 -0.000249319 -0.000176479
-2.95628e-05 4.06625e-05 0.000550231
-8.38303e-05 4.15299e-05 -4.27253e-05
0.0 0.0 -0.000346714
-0.000165032 2.72812e-05 -0.00080905
-0.000421725 -2.27058e-05 -0.000267923
0.0 0.0 -0.000346714
0.0 0.0 -0.000346714
0.0 0.0 -0.000346714
-8.42778e-05 -4.84973e-05 -4.73056e-05
0.0 0.0 -0.000346714
0.00416028 0.00199916 -0.00376472
0.0 0.0 -0.00160516
0.0 0.0 -0.00160516
0.0 0.0 -0.000346714
0.0 0.0 -0.000346714
-8.22385e-05 3.99686e-05 -8.45203e-05
0.0 0.0 -0.000346714
0.0 0.0 -0.00160516
0.0217884 -0.0183037 0.0130901
0.0 0.0 -0.000346714
-0.000260516 -1.23195e-05 -0.000490325
-0.00023653 -1.3698e-05 -0.000490511
0.0 0.0 -0.000346714
0.00600357 0.0027637 0.000878985
-0.000286655 -0.000422609 -0.000419958
-0.000562631 0.000517928 0.000464969
-0.000368939 0.000199326 -0.000218028
0.0 0.0 -0.000346714
-0.000364206 8.84779e-05 -0.00029813
-9.21028e-05 2.24557e-05 -3.24632e-05
0.0 0.0 -0.000346714
0.0 0.0 -0.000346714
1.42242e-05 2.86496e-05 -0.00128152
-8.47454e-05 -1.47954e-06 -4.70704e-05
-8.77809e-05 -1.39202e-06 -3.65059e-05
2.56085e-05 -1.93345e-05 3.163e-05
-0.000300341 0.000134913 0.00181809
0.0 0.0 -0.00160516
1.69896e-05 4.95961e-05 8.635e-06
-0.000103641 -2.87731e-05 -6.08436e-06
0.0 0.0 -0.00160516
1.24281e-05 4.17138e-06 -0.00101697
-0.000106577 -2.93734e-05 4.98127e-07
0.000121501 4.71748e-05 -0.000588998
0.000197039 0.000113722 -0.00112845
-0.000108981 2.75374e-05 1.00251e-05
-1.99348e-05 0.000275357 0.00030315
-8.66409e-05 2.19841e-05 -3.81518e-05
-0.00176585 -0.00044099 -0.00163215
-8.96571e-05 3.68802e-07 -3.8437e-05
0.00076385 2.64125e-05 0.00260182
-0.000414751 1.86191e-06 -0.000183972
0.0 0.0 -0.00160516
0.0 0.0 -0.000346714
0.0 0.0 -0.000346714
2.45797e-05 -6.38854e-06 8.80245e-06
-9.74493e-05 -2.34105e-05 -4.66137e-05
0.0 0.0 -0.000346714
0.0 0.0 -0.000346714
0.0 0.0 -0.000346714
0.00219604 0.00258556 0.00195448
0.0 0.0 -0.000346714
0.0 0.0 -0.000346714
0.0 0.0 -0.000346714
0.0 0.0 -0.000346714
-8.86074e-05 -1.95244e-05 -4.04993e-05
-0.000447815 -9.71915e-05 -0.000185213
-8.88561e-05 -1.95804e-05 -3.98962e-05
0.0 0.0 -0.000346714
6.2799e-05 6.2378e-05 -0.000438434
-0.000410457 -0.000101833 -0.000150604
0.0 0.0 -0.000346714
-0.000311618 -0.000458347 -0.000336423
-0.000322295 0.000345819 0.000160062
0.0 0.0 -0.000346714
-0.000137269 -2.9705e-06 -0.000814815
0.0 0.0 -0.000346714
0.0 0.0 -0.000346714
-0.000102706 -2.2224e-05 -9.59807e-07
0.0 0.0 -0.000346714
-8.74032e-05 -1.88289e-05 -3.81239e-05
-0.000356726 -0.000301572 -0.000258479
-8.26979e-05 4.41741e-05 -4.46931e-05
-0.000710361 0.00039716 0.000421254
-0.000389053 0.00011177 -0.000206473
0.0 0.0 -0.00160516
-8.89302e-05 1.74537e-05 -3.94653e-05
-0.000216685 1.14525e-05 0.000466058
0.0 0.0 -0.00160516
-8.85839e-05 -1.77451e-05 -3.91669e-05
1.80057e-05 -7.25984e-05 1.13591e-05
0.0 0.0 -0.000346714
-0.000757741 -0.000385282 0.000672903
-3.2723e-05 -1.61145e-05 -0.000159189
-8.1418e-05 4.4722e-05 -4.24058e-05
-0.000646223 0.000628188 0.00649229
-0.000631049 0.000236647 0.000221333
-0.000655735 0.000203015 0.000544381
8.81798e-05 -0.00014269 -1.22757e-05
-0.00253152 8.61753e-05 0.00515057
0.00131401 -0.000200905 -0.00239935
-8.66953e-05 -1.67132e-05 -4.24903e-05
-0.000405646 -7.97689e-05 -0.000173854
0.0 0.0 -0.000346714
-0.000104748 -3.85611e-05 -0.000652889
-0.000822629 -0.00163583 -0.00385999
0.000822629 0.00163583 0.00316656
0.0 0.0 -0.000346714
0.0 0.0 -0.000346714