# vtk DataFile Version 2.0
Generated by lpp.py
ASCII
DATASET POLYDATA
POINTS 307 float
-0.120973 -0.0130191 -0.155412
-0.120935 0.0028023 -0.155906
-0.124574 0.0184699 -0.157173
-0.154337 0.0660699 -0.155054
-0.116592 -0.00589241 -0.154055
-0.126987 7.30491e-05 -0.156779
-0.109957 -0.000550419 -0.152374
-0.111277 0.00359521 -0.152338
-0.116138 0.00796844 -0.154793
-0.110379 0.0110353 -0.152138
-0.112261 0.0189626 -0.152275
-0.115534 -0.0311469 -0.151658
-0.110848 -0.0292648 -0.149868
-0.118569 -0.00155088 -0.153308
-0.107031 -0.00054972 -0.148261
-0.115019 0.00282597 -0.153619
-0.106948 0.00413335 -0.150655
-0.111141 0.0257195 -0.150779
-0.0927041 -0.00991848 -0.144794
-0.10132 -0.00302385 -0.147594
-0.116248 0.000106894 -0.149954
-0.0960887 0.00427801 -0.146487
-0.0975376 0.0162398 -0.145249
-0.0840127 -0.00331126 -0.141483
-0.114485 -0.000967001 -0.145961
-0.0880615 -0.000509186 -0.142594
-0.112486 0.00166231 -0.146724
-0.0919706 0.00424055 -0.143963
-0.082269 0.0124229 -0.140203
-0.0933131 0.017074 -0.144475
-0.0889048 0.015478 -0.1415
-0.0797364 -0.0219519 -0.137088
-0.0960659 -0.00396214 -0.144451
-0.0813196 -0.00283127 -0.139688
-0.0751315 -0.00206236 -0.137734
-0.108264 0.00312589 -0.142452
-0.0930888 -0.00133034 -0.14393
-0.098026 -0.0167028 -0.135981
-0.068977 -0.0141686 -0.133505
-0.0826517 -0.0112853 -0.139465
-0.071143 -0.00156921 -0.13497
-0.111908 0.0103561 -0.13785
-0.0747904 0.00431722 -0.137287
-0.0654329 0.00382265 -0.13353
-0.0700424 0.00865161 -0.134298
-0.0855534 0.0186109 -0.135088
-0.0722098 0.0140052 -0.135849
-0.0764701 0.027387 -0.136
-0.0816351 0.0312246 -0.136428
-0.0845471 -0.0213001 -0.137467
-0.0644061 -0.0109854 -0.131734
-0.0593863 -0.00700141 -0.129799
-0.0551758 -0.00895192 -0.129015
-0.0632185 -0.00121631 -0.131631
-0.0659782 0.0163357 -0.131922
-0.0623749 0.028598 -0.129939
-0.0726849 0.040209 -0.131805
-0.0941193 -0.0747438 -0.126983
-0.0926436 -0.0262491 -0.129269
-0.0569207 -0.0182457 -0.128983
-0.0619499 -0.0178655 -0.123488
-0.13285 -0.0166547 -0.131402
-0.0750011 0.00447247 -0.129716
-0.075076 0.00999404 -0.130381
-0.0606367 0.0211313 -0.130332
-0.0517125 0.0208259 -0.12557
-0.0782524 -0.0454164 -0.127366
-0.0713839 -0.0117746 -0.124979
-0.0448594 -0.00775485 -0.123636
-0.0390408 -0.00953723 -0.122094
-0.085085 -0.00298785 -0.126303
-0.0790612 -0.00135321 -0.125744
-0.045874 -0.00423981 -0.125281
-0.0420689 -0.0034377 -0.123667
-0.0848318 0.00135549 -0.129918
-0.0815634 0.0032631 -0.124636
-0.0451279 0.011981 -0.123536
-0.0475995 0.0184066 -0.124078
-0.0428171 0.0182109 -0.123146
-0.0516205 0.0315124 -0.124978
-0.0555212 0.0464161 -0.122037
-0.0520165 -0.0375056 -0.120599
-0.0368172 -0.0144144 -0.120975
-0.0346661 -0.0174103 -0.11707
-0.0409606 -0.0135577 -0.121295
-0.064128 -0.0114841 -0.119875
-0.0397985 -0.0074848 -0.119769
-0.0353269 -0.00609255 -0.119258
-0.0498882 -0.00763035 -0.120961
-0.0438046 -0.00702022 -0.119321
-0.0373854 -0.00292523 -0.120577
-0.0620704 0.010135 -0.120322
-0.0340034 0.0122102 -0.118755
-0.0427553 0.0154801 -0.120207
-0.0533924 0.0191739 -0.118671
-0.061093 0.0186767 -0.119798
-0.0560582 0.0613633 -0.118502
-0.0494519 -0.0243268 -0.114133
-0.0269896 -0.02024 -0.116147
-0.0352412 -0.029116 -0.118307
-0.070891 -0.0134352 -0.117943
-0.0476423 -0.00981865 -0.11618
-0.0293266 -0.0109901 -0.117153
-0.0594946 -0.00589453 -0.114559
-0.0315433 -0.00630716 -0.11797
-0.0682776 0.0019634 -0.117731
-0.050528 0.00183053 -0.11909
-0.0656153 0.00586006 -0.117246
-0.0278434 0.00607888 -0.116824
-0.034732 0.00868793 -0.112982
-0.0288932 0.0136589 -0.117602
-0.0441161 0.03212 -0.114746
-0.0490922 0.038405 -0.11219
-0.0289761 -0.0235393 -0.110331
-0.0600821 -0.017015 -0.112145
-0.0304158 -0.0189083 -0.114368
-0.0228077 -0.0153307 -0.108932
-0.027461 -0.0145946 -0.115831
-0.0392456 -0.00584856 -0.114214
-0.0603541 -0.00165687 -0.111847
-0.0658952 0.0010257 -0.11592
-0.0251675 0.00759621 -0.112993
-0.0201443 0.00693577 -0.114
-0.0449496 0.00978289 -0.111259
-0.0318416 0.0115733 -0.113843
-0.0435117 0.0177471 -0.113074
-0.023122 0.0175567 -0.114605
-0.0440687 0.0268102 -0.106611
-0.031652 0.0310697 -0.111859
-0.0312004 0.0490253 -0.11245
-0.0200849 -0.0186049 -0.105901
-0.0352243 -0.0198199 -0.10688
-0.0511971 -0.0119763 -0.10979
-0.0596208 -0.0103327 -0.111975
-0.0324571 -0.0145817 -0.110292
-0.0160038 -0.0106439 -0.106173
-0.0223556 -0.0115524 -0.108043
-0.0359648 -0.00409799 -0.109037
-0.0167846 -0.00436108 -0.105781
-0.0203183 -0.00103586 -0.107533
-0.0132592 0.0158266 -0.110445
-0.0597105 0.018495 -0.110088
-0.027388 0.0277575 -0.112178
-0.0355024 -0.0331594 -0.115668
-0.0402624 -0.0177436 -0.105637
-0.0242672 -0.012015 -0.112906
-0.00968267 -0.0075854 -0.104896
-0.0469031 -0.00456291 -0.107405
-0.0862731 -0.00470968 -0.0999541
-0.0122206 0.00558696 -0.105285
-0.0472266 0.0140895 -0.107793
-0.0262814 0.018231 -0.112986
-0.0177665 0.017882 -0.111786
-0.0192177 0.0228066 -0.102459
-0.0132702 0.0495507 -0.10494
-0.0268336 -0.00408292 -0.116036
-0.023511 -0.0101669 -0.104144
-0.00902626 -0.00328978 -0.108142
-0.0319677 0.0187328 -0.0996828
-0.0544893 0.0226458 -0.099964
-0.0319859 0.0209563 -0.118347
-0.0295089 0.0224911 -0.107309
-0.0200552 -0.0207428 -0.0946799
-0.0280772 0.00199937 -0.115861
-0.0195375 0.009982 -0.113418
-0.0342746 0.0186103 -0.117562
-0.0196717 0.0183054 -0.107517
-0.0233162 -0.0257488 -0.112633
-0.00530618 -0.0265237 -0.104184
-0.0269279 -0.0156238 -0.111824
-0.0228627 0.00282045 -0.10925
-0.017644 0.0135246 -0.110692
-0.0022471 0.020517 -0.103176
-0.0188816 -0.0131793 -0.106439
-0.0322154 -0.0246784 -0.103463
-0.01426 -0.0150654 -0.101986
-0.0283887 -0.0102495 -0.101756
-0.0341304 -0.00318577 -0.100452
-0.0253235 -0.0188409 -0.0918346
-0.00264988 -0.0095541 -0.0934947
-0.0184157 0.00363086 -0.0941231
-0.00169906 -0.0346379 -0.0915994
-0.0106048 -0.00789334 -0.0900144
-0.0200733 -0.00130471 -0.0928699
-0.0258257 0.0147617 -0.0904044
-0.00526421 0.027503 -0.0903052
-0.0107488 0.0329346 -0.0871036
-0.0264666 -0.025466 -0.084709
-0.00998901 0.00893206 -0.0845918
-0.0196577 -0.024903 -0.0807351
-0.0249489 0.0269151 -0.0798175
-0.0201644 -0.0275601 -0.0767247
-0.0121862 -0.00588198 -0.0755088
-0.0134549 0.0182926 -0.0775221
-0.00018665 -0.0192075 -0.0744722
-0.0278654 0.00172744 -0.0745837
-0.0173269 -0.0294256 -0.0705413
-0.0232114 -0.0230043 -0.0679085
-0.00546888 -0.024539 -0.0703214
-0.0244014 0.0243576 -0.0688207
-0.0317899 0.0348276 -0.0692808
-0.00148336 -0.00863773 -0.0656015
-0.00237574 0.0349629 -0.0638511
-0.0299737 -0.0249092 -0.0619145
-0.0209901 0.00167617 -0.0623698
-0.0118483 0.00949823 -0.0564069
-0.0133438 0.0300767 -0.0570177
-0.00916175 0.0316192 -0.0567021
-0.00525173 0.0148756 -0.0543371
-0.00795 0.0273623 -0.0553921
-0.0116971 -0.0149443 -0.051557
-0.0325497 0.0284222 -0.0498664
-0.0315415 -0.0266248 -0.0469609
-0.014731 -0.00384992 -0.0486868
-0.0313425 0.0167345 -0.046548
-0.0220067 0.0311963 -0.0465655
-0.000147874 -0.0328927 -0.0435051
-0.0258692 -0.0150214 -0.0440768
-0.0126988 -0.0187384 -0.0383019
-0.0141421 0.000627184 -0.0390944
-0.0256746 -0.0295973 -0.0370417
-0.0186146 -0.0100891 -0.0371773
-0.0104339 -0.00964248 -0.0347807
-0.0206785 0.0145985 -0.0357676
-0.0125397 -0.025785 -0.0338033
-0.0158011 0.0337207 -0.0332825
-0.0349321 -0.00790873 -0.026972
-0.0114835 -0.0265679 -0.0245741
-0.0172445 0.00368684 -0.0230185
-0.03004 0.0154412 -0.0253135
-0.0245784 0.0311922 -0.024432
-0.00133775 0.0319388 -0.0237581
-0.004822 -0.0263713 -0.0215457
-0.0305153 0.021925 -0.0211258
-0.011765 -0.0317196 -0.0174906
-0.00523715 -0.00399455 -0.0166952
-0.0276781 -0.0346784 -0.0127128
-0.00624641 -0.0254844 -0.0130448
-0.024936 0.00943572 -0.0139597
-0.00913613 0.0130219 -0.014942
-0.0178674 0.023228 -0.0133583
-0.0312596 -0.0342874 -0.0101293
-0.0140583 -0.0235405 -0.0100597
-0.00778825 -0.017605 -0.00825034
-0.000908632 0.0183203 -0.00784032
-0.0103972 0.0260911 -0.00890077
-0.0202693 -0.0311084 -0.00580762
-0.0322818 -0.0136491 -0.00397797
-0.00508252 -0.00729713 -0.0064626
-0.0171169 0.0130299 -0.00435359
-0.0334625 0.0326024 -0.00729752
-0.0242205 -0.0101411 -0.00391951
-0.00133703 0.00391048 -0.0026883
-0.0304516 0.017575 -0.00216144
-0.0330193 -0.0287184 -6.67096e-05
-0.0327952 0.00273344 0.00112729
-0.0282211 -0.0123493 0.00501887
-0.0169822 0.00918438 0.0068177
-0.0323156 0.0257586 0.00617944
-0.0242312 -0.0119118 0.010471
-0.0266383 0.0211746 0.00862492
-0.000691472 -0.0346461 0.0141448
-0.0332043 -0.0119457 0.0145935
-0.0084722 -0.0123243 0.0135374
-0.0181876 -0.00799419 0.0141484
-0.016367 0.0234551 0.0119277
-0.0319423 -0.0207084 0.0152038
-0.0266867 0.00969496 0.0156097
-0.0345837 0.0307765 0.0155877
-0.0203439 -0.0213423 0.0188867
-0.0242569 -0.0048619 0.0201953
-0.018202 -0.00127292 0.0219044
-0.0265303 0.0300204 0.0217138
-0.0285795 0.0326856 0.0218196
-0.0158837 -0.0146366 0.0230981
-0.00968967 -0.0134906 0.025221
-0.00413281 -0.000337831 0.0244002
-0.00852479 0.034934 0.0253742
-0.014458 -0.0150737 0.0277929
-0.0171117 -0.0109135 0.0293681
-0.0238687 0.0109416 0.029053
-0.00517746 0.0266228 0.0289879
-0.0196571 -0.00676578 0.033847
-0.026238 0.0194762 0.0306193
-0.0145426 0.0200822 0.0306211
-0.0181127 0.0295097 0.0327049
-0.0170652 -0.0127043 0.0365584
-0.030318 0.0147393 0.0353286
-0.0300845 0.0256603 0.0372368
-0.0308827 0.00162734 0.0386546
-0.0108823 0.00232676 0.040999
-0.0239975 0.00585265 0.03928
-0.00434932 0.00423497 0.0382575
-0.0346254 0.0108555 0.0413896
-0.0332323 0.0316676 0.0385534
-0.0184752 -0.00390867 0.0432979
-0.0256427 -0.0310174 0.0464226
-0.027048 -0.0192107 0.0486169
-0.00876558 -0.0160351 0.0479698
-0.00296015 -0.0125694 0.04724
-0.00418171 -0.00389031 0.0475846
-0.0291592 -0.00156433 0.0453602
-0.0101895 0.00506721 0.04657
-0.00344499 0.0151299 0.0467024
-0.0316084 -0.0265255 0.0503266
-0.0281016 0.00020127 0.050644
-0.00981587 0.00303905 0.0514312
VERTICES 307 614
1 0
1 1
1 2
1 3
1 4
1 5
1 6
1 7
1 8
1 9
1 10
1 11
1 12
1 13
1 14
1 15
1 16
1 17
1 18
1 19
1 20
1 21
1 22
1 23
1 24
1 25
1 26
1 27
1 28
1 29
1 30
1 31
1 32
1 33
1 34
1 35
1 36
1 37
1 38
1 39
1 40
1 41
1 42
1 43
1 44
1 45
1 46
1 47
1 48
1 49
1 50
1 51
1 52
1 53
1 54
1 55
1 56
1 57
1 58
1 59
1 60
1 61
1 62
1 63
1 64
1 65
1 66
1 67
1 68
1 69
1 70
1 71
1 72
1 73
1 74
1 75
1 76
1 77
1 78
1 79
1 80
1 81
1 82
1 83
1 84
1 85
1 86
1 87
1 88
1 89
1 90
1 91
1 92
1 93
1 94
1 95
1 96
1 97
1 98
1 99
1 100
1 101
1 102
1 103
1 104
1 105
1 106
1 107
1 108
1 109
1 110
1 111
1 112
1 113
1 114
1 115
1 116
1 117
1 118
1 119
1 120
1 121
1 122
1 123
1 124
1 125
1 126
1 127
1 128
1 129
1 130
1 131
1 132
1 133
1 134
1 135
1 136
1 137
1 138
1 139
1 140
1 141
1 142
1 143
1 144
1 145
1 146
1 147
1 148
1 149
1 150
1 151
1 152
1 153
1 154
1 155
1 156
1 157
1 158
1 159
1 160
1 161
1 162
1 163
1 164
1 165
1 166
1 167
1 168
1 169
1 170
1 171
1 172
1 173
1 174
1 175
1 176
1 177
1 178
1 179
1 180
1 181
1 182
1 183
1 184
1 185
1 186
1 187
1 188
1 189
1 190
1 191
1 192
1 193
1 194
1 195
1 196
1 197
1 198
1 199
1 200
1 201
1 202
1 203
1 204
1 205
1 206
1 207
1 208
1 209
1 210
1 211
1 212
1 213
1 214
1 215
1 216
1 217
1 218
1 219
1 220
1 221
1 222
1 223
1 224
1 225
1 226
1 227
1 228
1 229
1 230
1 231
1 232
1 233
1 234
1 235
1 236
1 237
1 238
1 239
1 240
1 241
1 242
1 243
1 244
1 245
1 246
1 247
1 248
1 249
1 250
1 251
1 252
1 253
1 254
1 255
1 256
1 257
1 258
1 259
1 260
1 261
1 262
1 263
1 264
1 265
1 266
1 267
1 268
1 269
1 270
1 271
1 272
1 273
1 274
1 275
1 276
1 277
1 278
1 279
1 280
1 281
1 282
1 283
1 284
1 285
1 286
1 287
1 288
1 289
1 290
1 291
1 292
1 293
1 294
1 295
1 296
1 297
1 298
1 299
1 300
1 301
1 302
1 303
1 304
1 305
1 306
POINT_DATA 307
VECTORS i float
0.0 0.0 0.0
0.0 0.0 0.0
0.0 0.0 0.0
0.0 0.0 0.0
0.0 0.0 0.0
0.0 0.0 0.0
0.0 0.0 0.0
0.0 0.0 0.0
0.0 0.0 0.0
0.0 0.0 0.0
0.0 0.0 0.0
0.0 0.0 0.0
0.0 0.0 0.0
0.0 0.0 0.0
0.0 0.0 0.0
0.0 0.0 0.0
0.0 0.0 0.0
0.0 0.0 0.0
0.0 0.0 0.0
0.0 0.0 0.0
0.0 0.0 0.0
0.0 0.0 0.0
0.0 0.0 0.0
0.0 0.0 0.0
0.0 0.0 0.0
0.0 0.0 0.0
0.0 0.0 0.0
0.0 0.0 0.0
0.0 0.0 0.0
0.0 0.0 0.0
0.0 0.0 0.0
0.0 0.0 0.0
0.0 0.0 0.0
0.0 0.0 0.0
0.0 0.0 0.0
0.0 0.0 0.0
0.0 0.0 0.0
0.0 0.0 0.0
0.0 0.0 0.0
0.0 0.0 0.0
0.0 0.0 0.0
0.0 0.0 0.0
0.0 0.0 0.0
0.0 0.0 0.0
0.0 0.0 0.0
0.0 0.0 0.0
0.0 0.0 0.0
0.0 0.0 0.0
0.0 0.0 0.0
0.0 0.0 0.0
0.0 0.0 0.0
0.0 0.0 0.0
0.0 0.0 0.0
0.0 0.0 0.0
0.0 0.0 0.0
0.0 0.0 0.0
0.0 0.0 0.0
0.0 0.0 0.0
0.0 0.0 0.0
0.0 0.0 0.0
0.0 0.0 0.0
0.0 0.0 0.0
0.0 0.0 0.0
0.0 0.0 0.0
0.0 0.0 0.0
0.0 0.0 0.0
0.0 0.0 0.0
0.0 0.0 0.0
0.0 0.0 0.0
0.0 0.0 0.0
0.0 0.0 0.0
0.0 0.0 0.0
0.0 0.0 0.0
0.0 0.0 0.0
0.0 0.0 0.0
0.0 0.0 0.0
0.0 0.0 0.0
0.0 0.0 0.0
0.0 0.0 0.0
0.0 0.0 0.0
0.0 0.0 0.0
0.0 0.0 0.0
0.0 0.0 0.0
0.0 0.0 0.0
0.0 0.0 0.0
0.0 0.0 0.0
0.0 0.0 0.0
0.0 0.0 0.0
0.0 0.0 0.0
0.0 0.0 0.0
0.0 0.0 0.0
0.0 0.0 0.0
0.0 0.0 0.0
0.0 0.0 0.0
0.0 0.0 0.0
0.0 0.0 0.0
0.0 0.0 0.0
0.0 0.0 0.0
0.0 0.0 0.0
0.0 0.0 0.0
0.0 0.0 0.0
0.0 0.0 0.0
0.0 0.0 0.0
0.0 0.0 0.0
0.0 0.0 0.0
0.0 0.0 0.0
0.0 0.0 0.0
0.0 0.0 0.0
0.0 0.0 0.0
0.0 0.0 0.0
0.0 0.0 0.0
0.0 0.0 0.0
0.0 0.0 0.0
0.0 0.0 0.0
0.0 0.0 0.0
0.0 0.0 0.0
0.0 0.0 0.0
0.0 0.0 0.0
0.0 0.0 0.0
0.0 0.0 0.0
0.0 0.0 0.0
0.0 0.0 0.0
0.0 0.0 0.0
0.0 0.0 0.0
0.0 0.0 0.0
0.0 0.0 0.0
0.0 0.0 0.0
0.0 0.0 0.0
0.0 0.0 0.0
0.0 0.0 0.0
0.0 0.0 0.0
0.0 0.0 0.0
0.0 0.0 0.0
0.0 0.0 0.0
0.0 0.0 0.0
0.0 0.0 0.0
0.0 0.0 0.0
0.0 0.0 0.0
0.0 0.0 0.0
0.0 0.0 0.0
0.0 0.0 0.0
0.0 0.0 0.0
0.0 0.0 0.0
0.0 0.0 0.0
0.0 0.0 0.0
0.0 0.0 0.0
0.0 0.0 0.0
0.0 0.0 0.0
0.0 0.0 0.0
0.0 0.0 0.0
0.0 0.0 0.0
0.0 0.0 0.0
0.0 0.0 0.0
0.0 0.0 0.0
0.0 0.0 0.0
0.0 0.0 0.0
0.0 0.0 0.0
0.0 0.0 0.0
0.0 0.0 0.0
0.0 0.0 0.0
0.0 0.0 0.0
0.0 0.0 0.0
0.0 0.0 0.0
0.0 0.0 0.0
0.0 0.0 0.0
0.0 0.0 0.0
0.0 0.0 0.0
0.0 0.0 0.0
0.0 0.0 0.0
0.0 0.0 0.0
0.0 0.0 0.0
0.0 0.0 0.0
0.0 0.0 0.0
0.0 0.0 0.0
0.0 0.0 0.0
0.0 0.0 0.0
0.0 0.0 0.0
0.0 0.0 0.0
0.0 0.0 0.0
0.0 0.0 0.0
0.0 0.0 0.0
0.0 0.0 0.0
0.0 0.0 0.0
0.0 0.0 0.0
0.0 0.0 0.0
0.0 0.0 0.0
0.0 0.0 0.0
0.0 0.0 0.0
0.0 0.0 0.0
0.0 0.0 0.0
0.0 0.0 0.0
0.0 0.0 0.0
0.0 0.0 0.0
0.0 0.0 0.0
0.0 0.0 0.0
0.0 0.0 0.0
0.0 0.0 0.0
0.0 0.0 0.0
0.0 0.0 0.0
0.0 0.0 0.0
0.0 0.0 0.0
0.0 0.0 0.0
0.0 0.0 0.0
0.0 0.0 0.0
0.0 0.0 0.0
0.0 0.0 0.0
0.0 0.0 0.0
0.0 0.0 0.0
0.0 0.0 0.0
0.0 0.0 0.0
0.0 0.0 0.0
0.0 0.0 0.0
0.0 0.0 0.0
0.0 0.0 0.0
0.0 0.0 0.0
0.0 0.0 0.0
0.0 0.0 0.0
0.0 0.0 0.0
0.0 0.0 0.0
0.0 0.0 0.0
0.0 0.0 0.0
0.0 0.0 0.0
0.0 0.0 0.0
0.0 0.0 0.0
0.0 0.0 0.0
0.0 0.0 0.0
0.0 0.0 0.0
0.0 0.0 0.0
0.0 0.0 0.0
0.0 0.0 0.0
0.0 0.0 0.0
0.0 0.0 0.0
0.0 0.0 0.0
0.0 0.0 0.0
0.0 0.0 0.0
0.0 0.0 0.0
0.0 0.0 0.0
0.0 0.0 0.0
0.0 0.0 0.0
0.0 0.0 0.0
0.0 0.0 0.0
0.0 0.0 0.0
0.0 0.0 0.0
0.0 0.0 0.0
0.0 0.0 0.0
0.0 0.0 0.0
0.0 0.0 0.0
0.0 0.0 0.0
0.0 0.0 0.0
0.0 0.0 0.0
0.0 0.0 0.0
0.0 0.0 0.0
0.0 0.0 0.0
0.0 0.0 0.0
0.0 0.0 0.0
0.0 0.0 0.0
0.0 0.0 0.0
0.0 0.0 0.0
0.0 0.0 0.0
0.0 0.0 0.0
0.0 0.0 0.0
0.0 0.0 0.0
0.0 0.0 0.0
0.0 0.0 0.0
0.0 0.0 0.0
0.0 0.0 0.0
0.0 0.0 0.0
0.0 0.0 0.0
0.0 0.0 0.0
0.0 0.0 0.0
0.0 0.0 0.0
0.0 0.0 0.0
0.0 0.0 0.0
0.0 0.0 0.0
0.0 0.0 0.0
0.0 0.0 0.0
0.0 0.0 0.0
0.0 0.0 0.0
0.0 0.0 0.0
0.0 0.0 0.0
0.0 0.0 0.0
0.0 0.0 0.0
0.0 0.0 0.0
0.0 0.0 0.0
0.0 0.0 0.0
0.0 0.0 0.0
0.0 0.0 0.0
0.0 0.0 0.0
0.0 0.0 0.0
0.0 0.0 0.0
0.0 0.0 0.0
0.0 0.0 0.0
0.0 0.0 0.0
0.0 0.0 0.0
0.0 0.0 0.0
0.0 0.0 0.0
0.0 0.0 0.0
0.0 0.0 0.0
0.0 0.0 0.0
0.0 0.0 0.0
0.0 0.0 0.0
0.0 0.0 0.0
0.0 0.0 0.0
0.0 0.0 0.0
0.0 0.0 0.0
0.0 0.0 0.0
0.0 0.0 0.0
VECTORS f float
-0.000442781 7.37692e-05 -8.92101e-05
0.0 0.0 -0.000346714
0.0 0.0 -0.000346714
4.01743e-06 -4.42468e-05 -0.000118156
-0.0013471 0.000230247 0.00243054
0.0 0.0 -0.00160516
-8.75318e-05 -5.03771e-07 -4.20668e-05
0.0 0.0 -0.000346714
-5.86409e-05 -9.04166e-06 -0.000109789
-0.000661259 -0.000313632 0.000881152
-8.63095e-05 -3.14739e-05 -4.07922e-05
-8.34911e-05 4.24889e-05 -4.80586e-05
0.0 0.0 -0.000346714
0.0 0.0 -0.000346714
0.0 0.0 -0.000346714
0.0 0.0 -0.000346714
0.0 0.0 -0.000346714
-9.47593e-05 -3.5249e-05 -1.52965e-05
-5.58544e-05 7.15047e-06 -0.000100356
0.0 0.0 -0.00160516
0.0 0.0 -0.000346714
-9.14296e-05 -1.9606e-06 -3.24655e-05
-0.000380036 -6.85083e-05 -0.000247857
-0.0010524 -4.45004e-05 0.00123179
0.0 0.0 -0.000346714
0.0 0.0 -0.000346714
0.0 0.0 -0.000346714
0.0 0.0 -0.000346714
0.0 0.0 -0.000346714
0.0 0.0 -0.000346714
0.0 0.0 -0.00160516
0.000155427 -6.43073e-05 -0.00169698
0.0 0.0 -0.000346714
0.0 0.0 -0.000346714
-8.82718e-05 -3.91209e-06 -3.70796e-05
0.0 0.0 -0.000346714
0.0 0.0 -0.00160516
0.0 0.0 -0.00160516
-0.00040859 4.56786e-05 -0.000173538
0.0 0.0 -0.000346714
-0.000397811 -1.77168e-05 -0.00020757
0.0 0.0 -0.000346714
0.0 0.0 -0.000346714
-9.16805e-05 -4.72412e-06 -3.1454e-05
-0.00041225 -2.1247e-05 -0.000175564
0.0 0.0 -0.000346714
-9.13153e-05 -1.94281e-05 -3.23404e-05
-8.32624e-05 -3.28784e-05 -5.01578e-05
-0.000272191 -0.00010935 -0.000459885
0.0 0.0 -0.000346714
-1.07304e-05 0.000486609 -5.1547e-05
9.88941e-05 -2.95778e-05 5.37655e-05
-8.73749e-05 9.0604e-06 -4.1563e-05
-0.000360771 -2.40243e-05 -0.000338133
-0.000417168 -9.5299e-05 -0.00014965
-7.28982e-05 -3.0116e-05 -7.06121e-05
0.0 0.0 -0.000346714
0.0 0.0 -0.000346714
0.0 0.0 -0.00160516
0.0 0.0 -0.000346714
0.0 0.0 -0.000346714
0.0 0.0 -0.000346714
0.0 0.0 -0.00160516
0.0 0.0 -0.00160516
0.0 0.0 -0.000346714
-0.000354862 -0.000147944 -0.000189292
0.0 0.0 -0.00160516
0.0 0.0 -0.000346714
-0.000655577 9.57905e-05 0.000386019
0.0 0.0 -0.000346714
0.0 0.0 -0.000346714
0.0 0.0 -0.00160516
-4.13101e-05 -0.000162114 0.000175005
-9.32034e-05 7.40055e-06 -3.20796e-05
0.0 0.0 -0.000346714
0.0 0.0 -0.000346714
0.000107111 0.00012607 0.000172674
-0.00047655 -3.77057e-05 -0.000224832
0.0 0.0 -0.000346714
0.0 0.0 -0.000346714
-0.000477344 -0.000365315 8.88724e-05
0.0 0.0 -0.000346714
-6.90759e-05 1.63723e-05 -8.83801e-05
0.0 0.0 -0.000346714
0.0 0.0 -0.00160516
0.0 0.0 -0.00160516
0.0 0.0 -0.000346714
0.0 0.0 -0.000346714
0.0 0.0 -0.000346714
0.0 0.0 -0.000346714
0.00312848 -0.00133718 -0.00467659
0.0 0.0 -0.000346714
0.0 0.0 -0.00160516
0.0 0.0 -0.00160516
0.0 0.0 -0.00160516
0.0 0.0 -0.000346714
-6.93726e-05 -7.04108e-05 5.97142e-05
0.0 0.0 -0.000346714
0.0 0.0 -0.000346714
0.0 0.0 -0.000346714
0.0 0.0 -0.000346714
0.0 0.0 -0.00160516
0.0 0.0 -0.000346714
0.0 0.0 -0.00160516
0.0 0.0 -0.00160516
0.0 0.0 -0.000346714
0.0 0.0 -0.000346714
0.0 0.0 -0.000346714
0.0 0.0 -0.000346714
0.0 0.0 -0.000346714
0.0 0.0 -0.000346714
0.0 0.0 -0.00160516
0.0 0.0 -0.000346714
0.0 0.0 -0.00160516
0.0 0.0 -0.000346714
0.0 0.0 -0.00160516
0.0 0.0 -0.000346714
0.0 0.0 -0.00160516
0.0 0.0 -0.000346714
0.0 0.0 -0.000346714
0.0 0.0 -0.000346714
0.0 0.0 -0.00160516
0.0 0.0 -0.000346714
0.0 0.0 -0.00160516
0.0 0.0 -0.000346714
0.0 0.0 -0.00160516
0.0 0.0 -0.000346714
0.0 0.0 -0.000346714
0.0 0.0 -0.000346714
-8.08023e-05 -6.08255e-05 -4.16374e-05
0.0 0.0 -0.000346714
0.0 0.0 -0.00160516
0.0 0.0 -0.000346714
0.0 0.0 -0.00160516
0.0 0.0 -0.00160516
0.0 0.0 -0.000346714
0.0 0.0 -0.000346714
0.0 0.0 -0.00160516
0.0 0.0 -0.000346714
0.0 0.0 -0.00160516
0.0 0.0 -0.000346714
0.0 0.0 -0.000346714
0.0 0.0 -0.000346714
0.0 0.0 -0.000346714
0.0 0.0 -0.00160516
0.0 0.0 -0.000346714
0.0 0.0 -0.00160516
0.0 0.0 -0.000346714
0.0 0.0 -0.000346714
0.0 0.0 -0.00160516
0.0 0.0 -0.000346714
0.0 0.0 -0.000346714
0.0 0.0 -0.000346714
0.0 0.0 -0.000346714
-8.77716e-05 -5.69203e-05 -4.86667e-05
0.0 0.0 -0.00160516
0.0 0.0 -0.00160516
0.0 0.0 -0.000346714
0.0 0.0 -0.000346714
0.0 0.0 -0.000346714
0.00574845 0.00242433 -0.013285
0.0 0.0 -0.00160516
0.0 0.0 -0.00160516
0.0 0.0 -0.000346714
0.0 0.0 -0.000346714
0.0 0.0 -0.000346714
0.0 0.0 -0.00160516
0.0 0.0 -0.000346714
0.0 0.0 -0.000346714
0.0 0.0 -0.000346714
0.0 0.0 -0.000346714
0.0 0.0 -0.00160516
0.0 0.0 -0.00160516
0.0 0.0 -0.000346714
0.0 0.0 -0.000346714
0.0 0.0 -0.000346714
0.0 0.0 -0.00160516
0.0 0.0 -0.000346714
0.0 0.0 -0.00160516
0.0 0.0 -0.000346714
0.0 0.0 -0.000346714
0.0 0.0 -0.00160516
0.0 0.0 -0.000346714
0.0 0.0 -0.000346714
0.0 0.0 -0.00160516
0.0 0.0 -0.000346714
0.0 0.0 -0.00160516
0.0 0.0 -0.00160516
0.0 0.0 -0.000346714
0.0 0.0 -0.000346714
0.0 0.0 -0.000346714
0.0 0.0 -0.000346714
0.0 0.0 -0.000346714
0.0 0.0 -0.000346714
0.0 0.0 -0.00160516
0.0 0.0 -0.000346714
0.0 0.0 -0.00160516
0.0 0.0 -0.00160516
0.0 0.0 -0.000346714
0.0 0.0 -0.000346714
0.0 0.0 -0.000346714
0.0 0.0 -0.000346714
0.0 0.0 -0.000346714
0.0 0.0 -0.00160516
0.0 0.0 -0.000346714
0.0 0.0 -0.000346714
0.0 0.0 -0.000346714
0.0 0.0 -0.000346714
0.0 0.0 -0.000346714
0.0 0.0 -0.00160516
0.0 0.0 -0.000346714
0.0 0.0 -0.000346714
0.0 0.0 -0.00160516
0.0 0.0 -0.00160516
0.0 0.0 -0.00160516
0.0 0.0 -0.00160516
0.0 0.0 -0.000346714
0.0 0.0 -0.000346714
0.0 0.0 -0.00160516
0.0 0.0 -0.000346714
0.0 0.0 -0.000346714
0.0 0.0 -0.000346714
0.0 0.0 -0.000346714
0.0 0.0 -0.000346714
0.0 0.0 -0.000346714
0.0 0.0 -0.000346714
0.0 0.0 -0.000346714
0.0 0.0 -0.000346714
0.0 0.0 -0.00160516
0.0 0.0 -0.00160516
0.0 0.0 -0.00160516
0.0 0.0 -0.00160516
0.0 0.0 -0.000346714
0.0 0.0 -0.00160516
0.0 0.0 -0.000346714
0.0 0.0 -0.000346714
0.0 0.0 -0.000346714
0.0 0.0 -0.00160516
0.0 0.0 -0.000346714
0.0 0.0 -0.000346714
0.0 0.0 -0.000346714
0.0 0.0 -0.000346714
0.0 0.0 -0.00160516
0.0 0.0 -0.00160516
0.0 0.0 -0.000346714
0.0 0.0 -0.000346714
0.0 0.0 -0.000346714
0.0 0.0 -0.000346714
0.0 0.0 -0.000346714
0.0 0.0 -0.000346714
0.0 0.0 -0.000346714
0.0 0.0 -0.000346714
0.0 0.0 -0.00160516
0.0 0.0 -0.00160516
0.0 0.0 -0.000346714
0.0 0.0 -0.00160516
0.0 0.0 -0.000346714
0.0 0.0 -0.000346714
0.0 0.0 -0.000346714
0.0 0.0 -0.000346714
0.0 0.0 -0.000346714
0.0 0.0 -0.00160516
0.0 0.0 -0.000346714
0.0 0.0 -0.000346714
0.0 0.0 -0.00160516
0.0 0.0 -0.00160516
0.0 0.0 -0.000346714
0.0 0.0 -0.000346714
0.0 0.0 -0.00160516
0.0 0.0 -0.00160516
0.0 0.0 -0.000346714
0.0 0.0 -0.000346714
0.0 0.0 -0.000346714
0.0 0.0 -0.000346714
0.0 0.0 -0.000346714
0.0 0.0 -0.00160516
0.0 0.0 -0.000346714
0.0 0.0 -0.000346714
0.0 0.0 -0.00160516
0.0 0.0 -0.00160516
0.0 0.0 -0.000346714
0.0 0.0 -0.00160516
0.0 0.0 -0.000346714
0.0 0.0 -0.000346714
0.0 0.0 -0.000346714
0.0 0.0 -0.000346714
0.0 0.0 -0.00160516
0.0 0.0 -0.00160516
0.0 0.0 -0.000346714
0.0 0.0 -0.000346714
0.0 0.0 -0.000346714
0.0 0.0 -0.00160516
0.0 0.0 -0.000346714
0.0 0.0 -0.00160516
0.0 0.0 -0.000346714
0.0 0.0 -0.000346714
0.0 0.0 -0.000346714
0.0 0.0 -0.000346714
0.0 0.0 -0.000346714
0.0 0.0 -0.00160516
0.0 0.0 -0.000346714
0.0 0.0 -0.000346714
0.0 0.0 -0.00160516
0.0 0.0 -0.000346714
0.0 0.0 0.0
0.0 0.0 0.0
0.0 0.0 0.0
VECTORS omega float
9.81371 -420.898 41.3555
102.285 -555.377 289.329
103.268 -579.915 41.5705
-211.405 -942.854 -208.808
30.5241 -361.951 -17.0157
-14.8336 -225.779 -6.37285e-15
-64.1559 -679.007 -89.4644
-53.0752 -584.374 -64.012
-57.812 -689.04 -212.272
-48.2414 -603.11 -256.49
-26.8484 -658.249 -28.8481
-64.3701 -673.411 136.755
152.131 -611.253 526.705
-140.328 -115.939 -305.086
105.248 -339.958 -141.967
116.452 -309.166 46.8482
158.394 -492.744 -12.1993
-10.733 -821.566 43.643
155.407 -564.558 -167.966
-127.755 -335.758 38.0319
-69.1963 -297.382 -80.0457
-95.1585 -634.614 -10.4706
-41.7434 -345.136 -86.699
-102.437 -482.75 -142.16
-89.6062 -318.979 -0.477356
-47.6005 -645.075 11.94
-5.41412 -292.927 59.5269
-17.3327 -123.178 -42.6815
-21.2037 -434.889 -20.0443
-134.843 -617.693 -208.329
13.7115 -311.279 -95.1049
-68.9104 -313.16 16.3866
-232.924 -170.124 -89.3137
143.68 -544.913 -1.52468
72.9986 -491.782 -67.7071
-11.0748 -389.824 7.37302e-16
31.3286 -202.281 -11.6027
180.623 136.053 124.935
-37.4756 -268.687 108.764
-173.608 -707.796 -71.5395
26.816 -298.084 -13.0181
27.3203 136.186 -30.5113
31.4798 -183.433 82.4306
11.7065 -419.431 31.381
29.1092 -253.982 -81.9978
-6.95269 -344.761 118.502
-3.59216 -531.663 120.699
92.8915 -425.627 -201.617
21.3266 -324.886 -41.6464
226.102 83.844 139.827
-22.324 -300.17 -7.40673
54.3624 -87.9806 -17.2419
253.812 -337.61 -56.2373
75.5272 -237.928 -15.2216
60.3815 -314.368 -0.822316
85.4092 -456.069 -85.1767
-125.237 -500.16 -312.075
67.0625 -362.258 285.93
-159.194 -215.037 5.0754
-10.4639 -359.726 70.641
489.767 -176.371 -153.239
-992.473 989.332 -382.051
-27.1045 -201.308 23.5952
-32.1625 -196.229 -20.776
122.887 -529.508 -103.789
-42.7294 -145.769 -48.1015
73.1144 -310.468 92.8732
30.7175 221.295 -96.1964
-46.8383 -202.933 29.5884
-28.3183 -231.718 -15.7156
-85.5854 -368.423 1.07912e-13
-76.8102 -219.699 -17.9608
-94.0735 -393.117 144.428
-122.691 -434.655 8.54573
70.7003 -235.156 135.467
58.8912 -171.923 -2.54438
35.3756 -238.134 118.835
-31.5923 -163.275 -2.48889
-33.3931 -385.02 15.3748
-1.54453 -517.663 175.656
-48.3276 -179.399 -86.0168
42.3857 -637.087 149.544
-12.4737 -285.284 17.2016
79.1099 -307.201 77.9534
-0.26614 -142.331 -9.74645
-26.4565 -264.988 -43.8101
-118.283 -234.676 -80.3311
26.2467 248.535 -152.863
-492.37 36.2383 -159.473
-168.257 -359.863 97.4845
86.1834 -180.257 -38.6857
70.2628 -305.698 33.5383
-4.92589 -234.837 -61.3806
32.8998 84.2714 68.6068
-117.955 -11.1572 -67.4083
185.692 -394.795 28.3963
-176.324 -200.697 6.7901
-165.637 -371.218 1.31049e-13
-6.03474 -152.814 263.648
462.866 -35.2057 265.56
-155.835 -378.48 -1.58522e-13
21.1445 -4.98565 31.0059
-98.9639 -368.367 124.605
67.8699 -127.508 -136.596
250.318 -183.776 246.181
52.6196 -280.727 6.42893
-80.7065 -336.668 -48.6138
-16.4638 -306.665 -13.1889
-195.469 -212.224 -115.953
83.1315 -292.5 132.925
-68.0689 -9.33079 -62.6715
-77.6487 -73.4843 -78.7592
260.994 -389.889 163.549
-93.1519 -226.24 -1.09409e-13
-148.318 -360.491 6.00689e-14
-40.0834 -56.7741 -35.0033
-106.405 -444.689 -78.3923
53.9398 -153.843 84.5444
64.532 -319.055 -42.736
-168.237 -253.173 -43.4105
22.0777 -340.21 19.6179
-65.8077 -183.633 -5.26486
-16.5612 -326.727 27.7343
-129.309 260.788 3.75851
232.714 -588.143 97.9806
-56.5 -40.2411 -43.7451
197.04 -365.284 5.41067
165.241 -151.591 -75.0859
166.308 -372.94 1.57058e-13
-35.893 -70.5335 -214.669
-188.383 -431.94 -6.38626
-128.245 -158.403 34.4151
-148.193 -360.188 1.16897e-14
-89.5563 -217.669 2.17489e-14
-65.8868 -173.276 -123.59
169.105 -583.31 133.707
39.2176 491.542 -240.385
-85.0819 47.0231 -38.5406
-54.529 -376.277 5.92004e-14
310.15 159.743 154.151
46.6804 -101.106 67.2465
246.884 -254.322 -70.0386
135.577 -373.108 2.76099e-14
-165.699 -371.357 -1.45205e-13
-40.3372 -182.695 -16.5233
97.4045 43.7883 -18.1722
-138.309 -239.183 -42.5485
-212.708 -114.821 -170.59
389.887 -152.585 -138.964
94.0226 -184.261 39.4127
87.9167 -376.425 1.7442e-13
-221.353 -157.041 -91.256
337.578 -252.235 220.726
87.8954 -376.333 -1.05237e-14
-274.655 -77.9206 108.557
-120.0 -306.171 -56.1062
-92.201 -349.115 -46.2172
-152.198 176.692 -24.3874
-203.412 441.886 -62.7026
-314.22 -140.985 -64.0011
-29.3221 -259.077 -27.7756
225.285 53.3191 114.59
39.6521 16.6852 3.32463
0.0 0.0 0.0
69.1159 -382.658 2.05793e-14
179.482 -100.06 81.6662
64.5588 301.126 89.5845
0.0 0.0 0.0
-134.947 -367.581 4.36608e-14
221.783 197.292 174.673
0.0 0.0 0.0
49.2813 15.9357 32.2053
55.5692 -216.28 7.8149e-14
234.531 -217.133 133.707
0.0 0.0 0.0
0.0 0.0 0.0
51.957 -54.1966 55.3902
0.0 0.0 0.0
-115.734 -273.565 -18.3324
0.0 0.0 0.0
0.0 0.0 0.0
0.0 0.0 0.0
0.0 0.0 0.0
0.0 0.0 0.0
0.0 0.0 0.0
0.0 0.0 0.0
0.0 0.0 0.0
0.0 0.0 0.0
0.0 0.0 0.0
0.0 0.0 0.0
0.0 0.0 0.0
0.0 0.0 0.0
0.0 0.0 0.0
0.0 0.0 0.0
0.0 0.0 0.0
0.0 0.0 0.0
0.0 0.0 0.0
0.0 0.0 0.0
0.0 0.0 0.0
0.0 0.0 0.0
0.0 0.0 0.0
0.0 0.0 0.0
0.0 0.0 0.0
0.0 0.0 0.0
0.0 0.0 0.0
0.0 0.0 0.0
0.0 0.0 0.0
0.0 0.0 0.0
0.0 0.0 0.0
0.0 0.0 0.0
0.0 0.0 0.0
0.0 0.0 0.0
0.0 0.0 0.0
0.0 0.0 0.0
0.0 0.0 0.0
0.0 0.0 0.0
0.0 0.0 0.0
0.0 0.0 0.0
0.0 0.0 0.0
0.0 0.0 0.0
0.0 0.0 0.0
0.0 0.0 0.0
0.0 0.0 0.0
0.0 0.0 0.0
0.0 0.0 0.0
0.0 0.0 0.0
0.0 0.0 0.0
0.0 0.0 0.0
0.0 0.0 0.0
0.0 0.0 0.0
0.0 0.0 0.0
0.0 0.0 0.0
0.0 0.0 0.0
0.0 0.0 0.0
0.0 0.0 0.0
0.0 0.0 0.0
0.0 0.0 0.0
0.0 0.0 0.0
0.0 0.0 0.0
0.0 0.0 0.0
0.0 0.0 0.0
0.0 0.0 0.0
0.0 0.0 0.0
0.0 0.0 0.0
0.0 0.0 0.0
0.0 0.0 0.0
0.0 0.0 0.0
0.0 0.0 0.0
0.0 0.0 0.0
0.0 0.0 0.0
0.0 0.0 0.0
0.0 0.0 0.0
0.0 0.0 0.0
0.0 0.0 0.0
0.0 0.0 0.0
0.0 0.0 0.0
0.0 0.0 0.0
0.0 0.0 0.0
0.0 0.0 0.0
0.0 0.0 0.0
0.0 0.0 0.0
0.0 0.0 0.0
0.0 0.0 0.0
0.0 0.0 0.0
0.0 0.0 0.0
0.0 0.0 0.0
0.0 0.0 0.0
0.0 0.0 0.0
0.0 0.0 0.0
0.0 0.0 0.0
0.0 0.0 0.0
0.0 0.0 0.0
0.0 0.0 0.0
0.0 0.0 0.0
0.0 0.0 0.0
0.0 0.0 0.0
0.0 0.0 0.0
0.0 0.0 0.0
0.0 0.0 0.0
0.0 0.0 0.0
0.0 0.0 0.0
0.0 0.0 0.0
0.0 0.0 0.0
0.0 0.0 0.0
0.0 0.0 0.0
0.0 0.0 0.0
0.0 0.0 0.0
0.0 0.0 0.0
0.0 0.0 0.0
0.0 0.0 0.0
0.0 0.0 0.0
0.0 0.0 0.0
0.0 0.0 0.0
0.0 0.0 0.0
0.0 0.0 0.0
0.0 0.0 0.0
0.0 0.0 0.0
0.0 0.0 0.0
0.0 0.0 0.0
0.0 0.0 0.0
0.0 0.0 0.0
0.0 0.0 0.0
0.0 0.0 0.0
0.0 0.0 0.0
0.0 0.0 0.0
0.0 0.0 0.0
0.0 0.0 0.0
VECTORS v float
-0.974107 -0.0624588 -0.404486
-0.793291 -0.316713 -0.341909
-0.8336 -0.182338 -0.486484
-1.31508 0.362504 -0.309082
-0.823515 -0.0541686 -0.348414
-0.737266 0.0484382 -0.910308
-0.937339 0.140957 -0.397616
-0.859387 0.109474 -0.441533
-0.970635 0.203306 -0.395465
-0.859133 0.214422 -0.343896
-0.907896 0.0532802 -0.370778
-0.95361 0.0098168 -0.400524
-0.95347 -0.505283 -0.466146
-1.00282 0.258446 -0.742496
-0.801245 -0.0264037 -0.264646
-0.744958 -0.0400228 -0.945954
-0.799851 -0.217624 -0.399221
-1.1164 -0.0101983 -0.467768
-0.765739 -0.11748 -0.314381
-0.81897 0.262088 -0.470218
-0.745831 0.104058 -0.845912
-0.875814 0.137443 -0.370689
-0.807015 0.180173 -0.328701
-0.667907 0.224064 -0.284663
-0.76353 0.00794432 -0.77248
-0.931377 0.0561327 -0.339158
-0.708958 0.00642067 -0.762699
-0.753139 0.111604 -0.241189
-0.610278 0.0392499 -0.271352
-0.915098 0.28728 -0.372178
-0.810661 0.0562237 -0.396944
-0.722657 0.142438 -0.319704
-0.835374 -0.0515246 -1.06562
-0.801105 -0.200558 -0.414898
-0.681563 -0.0616618 -0.286956
-0.756912 0.0215037 -0.742637
-0.707961 -0.132151 -0.856939
-0.812789 0.0768082 -0.600016
-0.629997 -0.0189171 -0.263804
-0.924273 -0.176835 -0.733031
-0.687294 -0.0491994 -0.288826
-0.926663 0.481481 -0.742557
-0.549489 -0.0867312 -0.157486
-0.577671 -0.0345391 -0.246196
-0.587992 0.0131545 -0.249482
-0.876601 0.161005 -0.517839
-0.716225 -0.0655011 -0.309879
-0.627035 -0.0106902 -0.266313
-0.756793 -0.00917755 -0.316089