# vtk DataFile Version 2.0
Generated by lpp.py
ASCII
DATASET POLYDATA
POINTS 751 float
-0.0219466 -0.00892753 0.0523955
-0.0219837 -0.0251032 0.0512129
-0.00300591 0.0246462 0.0486392
-0.00765372 -0.0341596 0.0536781
-0.474648 -0.019132 -0.398658
-0.490729 -0.00100629 -0.398424
-0.488804 0.00657226 -0.399442
-0.495259 0.0191922 -0.394675
-0.483128 0.00418545 -0.391771
-0.478866 0.01036 -0.391848
-0.484058 0.0116643 -0.391183
-0.48462 0.0159573 -0.389539
-0.480241 0.00325495 -0.387062
-0.473184 -0.00125311 -0.381785
-0.467606 0.00646988 -0.379695
-0.474092 0.00730218 -0.378543
-0.479813 0.019515 -0.378501
-0.47192 -0.000996195 -0.365982
-0.464109 0.000751751 -0.365045
-0.461909 -0.00141569 -0.360623
-0.473095 0.0363938 -0.360924
-0.43529 0.0110039 -0.356711
-0.0110555 -0.0296414 0.0523995
-0.458899 -0.00100832 -0.353545
-0.434716 0.00704567 -0.341741
-0.443708 -0.0134016 -0.33984
-0.430744 -0.0116251 -0.339539
-0.440933 -0.00295401 -0.338236
-0.429789 0.00288804 -0.334354
-0.433825 0.0125839 -0.335661
-0.42831 -0.0128456 -0.332235
-0.434257 0.00851136 -0.329883
-0.435668 0.0324952 -0.328599
-0.428546 -0.0163781 -0.325433
-0.432058 0.0118576 -0.326133
-0.4348 -0.0165364 -0.322359
-0.429806 0.040108 -0.322168
-0.434162 -0.0105616 -0.318797
-0.42076 -1.85454e-06 -0.318652
-0.409211 0.00494796 -0.318143
-0.414084 0.00326538 -0.312125
-0.420198 -0.0177873 -0.31038
-0.413058 0.00830932 -0.309197
-0.41571 0.00331897 -0.306007
-0.409172 0.00524111 -0.305572
-0.388699 0.0102869 -0.305572
-0.427515 0.0340609 -0.305398
-0.411912 -0.0257497 -0.302411
-0.407989 -0.0170024 -0.302694
-0.406145 0.00252943 -0.304229
-0.412233 0.00363692 -0.301644
-0.407292 0.0198276 -0.301414
-0.409222 0.028025 -0.300835
-0.408297 0.00532832 -0.297246
-0.401478 -0.0168927 -0.295469
-0.390164 -0.00948832 -0.295803
-0.399603 0.00656996 -0.29373
-0.396059 0.0134769 -0.294816
-0.394304 0.0159066 -0.294538
-0.401946 -0.0167334 -0.291438
-0.397722 -0.0198571 -0.291907
-0.38554 -0.0217754 -0.291111
-0.396648 -0.00387872 -0.291964
-0.394417 0.0166385 -0.289529
-0.394427 -0.00388347 -0.288085
-0.390083 0.00328988 -0.289004
-0.394705 -0.0248911 -0.284602
-0.392319 -0.00817356 -0.281852
-0.387897 0.0242593 -0.28345
-0.382955 -0.0411261 -0.277805
-0.391814 -0.0215457 -0.280673
-0.392401 -0.012929 -0.277591
-0.383789 -0.00634219 -0.279024
-0.388751 -0.00375188 -0.279014
-0.379078 -0.0129284 -0.275027
-0.376887 -0.00546718 -0.274795
-0.373984 0.000498971 -0.274516
-0.379766 0.0103811 -0.276572
-0.372999 -0.00820743 -0.27135
-0.373116 0.00676034 -0.272464
-0.368959 -0.0168781 -0.266849
-0.373804 -0.0135569 -0.268738
-0.369464 -0.00875263 -0.26789
-0.37222 -0.00164173 -0.269704
-0.371554 -0.0301393 -0.26714
-0.365149 -0.00146655 -0.265654
-0.371667 0.00505726 -0.266234
-0.362747 0.00396105 -0.26317
-0.366075 0.00898848 -0.266494
-0.365497 0.0166388 -0.26589
-0.362809 -0.0268997 -0.260333
-0.361433 -0.0152615 -0.262371
-0.352931 -0.00739687 -0.25929
-0.35855 0.0180457 -0.26033
-0.363371 0.023333 -0.260627
-0.361218 -0.0171628 -0.258842
-0.348259 0.0133381 -0.25839
-0.342243 -0.00613921 -0.250491
-0.339139 0.00186104 -0.251051
-0.346759 0.00528064 -0.253637
-0.345468 0.00986589 -0.250838
-0.344496 0.0137893 -0.251309
-0.346553 0.0165743 -0.254206
-0.338507 -0.00148783 -0.248347
-0.33664 0.00355509 -0.2489
-0.340404 0.00472746 -0.250274
-0.338998 0.00685882 -0.247432
-0.338612 0.010783 -0.24821
-0.333425 0.0140287 -0.246884
-0.34019 0.0231954 -0.250395
-0.34609 0.0338478 -0.24783
-0.338478 -0.026287 -0.246771
-0.327774 -0.0162944 -0.242869
-0.333617 -0.00205665 -0.246236
-0.329593 0.0134443 -0.241686
-0.328359 0.00983783 -0.244132
-0.336546 0.0199356 -0.246386
-0.343653 -0.0360448 -0.243086
-0.331519 -0.0179007 -0.243102
-0.320829 -0.00261284 -0.241284
-0.316937 -0.00349621 -0.238578
-0.324429 0.0170402 -0.240233
-0.330999 -0.0392883 -0.237161
-0.313297 -0.0204404 -0.235097
-0.314063 -0.0139033 -0.23634
-0.310831 -0.00746738 -0.236942
-0.307856 -0.0073066 -0.235648
-0.309446 -0.00156483 -0.236568
-0.307078 4.83383e-05 -0.235625
-0.312005 0.0045011 -0.237424
-0.343956 0.010683 -0.232965
-0.31593 0.0163074 -0.23791
-0.322675 -0.0385381 -0.234261
-0.315356 -0.0275134 -0.234004
-0.309065 -0.0220406 -0.232969
-0.309593 -0.0175543 -0.235088
-0.306257 -0.0146844 -0.23306
-0.300962 -0.0117357 -0.231243
-0.305024 -0.00905761 -0.234337
-0.302068 -0.00711384 -0.232508
-0.304267 -0.00601963 -0.234227
-0.305384 -0.00261278 -0.234818
-0.302711 0.00516179 -0.23238
-0.310198 0.0146977 -0.23473
-0.306046 0.0234324 -0.232397
-0.319259 0.0331832 -0.234957
-0.30165 -0.0168136 -0.230833
-0.299194 -0.00730479 -0.229726
-0.302709 -0.00122469 -0.231746
-0.297632 -0.00174439 -0.230492
-0.293376 0.000661253 -0.228729
-0.298521 0.00755353 -0.231546
-0.295753 0.00672477 -0.230413
-0.299964 0.0132538 -0.230632
-0.313198 -0.0438775 -0.228045
-0.290751 -0.0200907 -0.226824
-0.289635 -0.0150014 -0.227217
-0.288332 -0.0176233 -0.226278
-0.293454 -0.0106198 -0.228212
-0.28766 -0.0046935 -0.227266
-0.285106 -0.00725411 -0.225018
-0.288722 -0.000365959 -0.226778
-0.291142 0.0149001 -0.227844
-0.287615 0.014821 -0.226397
-0.29727 0.0252726 -0.228327
-0.286257 -0.0296118 -0.222696
-0.289854 -0.0256407 -0.224179
-0.286963 -0.0125758 -0.224365
-0.277419 -0.0123345 -0.221282
-0.279312 -0.00134622 -0.223857
-0.280276 0.00377536 -0.224094
-0.273619 0.0084253 -0.221066
-0.279084 0.0195601 -0.221895
-0.290108 0.0247376 -0.224474
-0.294917 0.0385926 -0.223349
-0.273816 -0.00429198 -0.22036
-0.26757 -0.00608648 -0.218737
-0.270573 0.000238348 -0.219127
-0.269696 0.00631184 -0.219524
-0.267288 0.00416098 -0.218613
-0.273232 0.0148186 -0.220251
-0.270527 0.0131502 -0.218508
-0.275167 0.0260285 -0.218001
-0.283502 0.03149 -0.22047
-0.284819 0.0346842 -0.220523
-0.280674 0.0358694 -0.218476
-0.260826 -0.0111157 -0.21446
-0.263939 -0.0069332 -0.217174
-0.259476 -0.00647223 -0.215303
-0.258657 -0.00359438 -0.215083
-0.264293 -0.00157672 -0.217528
-0.261398 7.06536e-05 -0.215238
-0.256783 0.00489572 -0.214143
-0.260802 0.0111395 -0.21555
-0.257994 0.0104045 -0.214374
-0.260509 0.0172171 -0.214564
-0.248116 -0.00852147 -0.210403
-0.253576 -0.00242407 -0.21299
-0.248017 0.00343223 -0.210496
-0.257123 0.0143502 -0.213577
-0.257986 0.0245972 -0.211245
-0.265914 0.0278658 -0.213648
-0.267837 0.0336631 -0.21281
-0.251816 -0.0312101 -0.207998
-0.246744 -0.0251447 -0.207528
-0.249752 -0.024564 -0.208876
-0.24335 -0.0193562 -0.207048
-0.247865 -0.016824 -0.208158
-0.244241 -0.0134985 -0.208278
-0.242393 0.00452607 -0.207007
-0.246735 0.00694864 -0.208741
-0.243033 0.00860148 -0.208087
-0.275131 0.0506586 -0.209936
-0.244171 -0.0259681 -0.206202
-0.235892 -0.0133901 -0.204719
-0.239355 -0.00185782 -0.205947
-0.229133 0.000882647 -0.202602
-0.237267 0.00597869 -0.204739
-0.239085 0.0150744 -0.205897
-0.233798 0.0151316 -0.203643
-0.2401 0.020592 -0.205531
-0.232606 -0.0227079 -0.201951
-0.229985 -0.0238894 -0.200639
-0.228146 -0.016305 -0.201196
-0.226499 -0.010415 -0.201023
-0.243132 -0.00970377 -0.204146
-0.224195 -0.0086838 -0.200145
-0.23441 0.0191742 -0.202262
-0.280344 0.0238027 -0.202309
-0.225955 -0.0321012 -0.197257
-0.231891 -0.0302787 -0.200122
-0.226987 -0.0252569 -0.198032
-0.22072 -0.0134923 -0.197191
-0.220456 0.0067754 -0.198808
-0.217689 0.0122526 -0.197196
-0.218907 0.0170609 -0.197128
-0.224884 0.0199064 -0.198198
-0.230396 0.0219065 -0.20022
-0.323072 0.0739911 -0.202584
-0.233226 -0.0475056 -0.195032
-0.215582 -0.032074 -0.192877
-0.224024 -0.0288961 -0.195971
-0.216277 -0.0228999 -0.195183
-0.213574 -0.0204466 -0.193483
-0.211522 -0.0165498 -0.1941
-0.207839 -0.015847 -0.19259
-0.214016 -0.0133898 -0.194635
-0.208368 -0.0107953 -0.193344
-0.215276 -0.00814257 -0.196515
-0.206332 -0.00844316 -0.192738
-0.211957 -0.00103258 -0.194249
-0.211944 0.00547065 -0.194179
-0.213309 0.00889217 -0.195758
-0.222868 0.0128032 -0.190803
-0.208848 0.0124323 -0.193456
-0.214243 0.0156259 -0.195344
-0.218752 0.0299411 -0.193587
-0.206988 -0.0285075 -0.190069
-0.202994 -0.0243268 -0.18942
-0.208919 -0.0196258 -0.191577
-0.202749 -0.021102 -0.189885
-0.202426 -0.0107572 -0.190879
-0.198789 -0.00820385 -0.189608
-0.202769 -0.00535445 -0.191456
-0.20008 -0.000632377 -0.190311
-0.20573 0.000415359 -0.19162
-0.201546 0.0029139 -0.19088
-0.205558 0.00540676 -0.19122
-0.198604 0.00443226 -0.189685
-0.204484 0.00962691 -0.1919
-0.20116 0.00862551 -0.190583
-0.214769 0.0120016 -0.193739
-0.20536 0.0129724 -0.191903
-0.202211 0.0117168 -0.189009
-0.203603 0.0151639 -0.19083
-0.224854 -0.0523821 -0.189431
-0.219092 -0.0522931 -0.187243
-0.222523 -0.0497099 -0.189806
-0.199461 -0.0136592 -0.187529
-0.196909 -0.00833069 -0.186251
-0.198913 -0.00426801 -0.188687
-0.194835 -0.00510154 -0.188057
-0.190141 -0.00749262 -0.186045
-0.195578 -0.000993653 -0.1874
-0.198167 0.0120087 -0.188981
-0.192223 0.0100659 -0.186651
-0.206354 0.0388637 -0.186059
-0.218062 -0.0558662 -0.184975
-0.204657 -0.0430994 -0.185074
-0.185943 -0.0198028 -0.182952
-0.190958 -0.0162412 -0.185445
-0.187469 -0.0126363 -0.183347
-0.183392 -0.00922706 -0.183125
-0.187379 -0.00602928 -0.184883
-0.187698 0.00470481 -0.18251
-0.183983 0.0112035 -0.183055
-0.18973 0.0147949 -0.185136
-0.196797 0.0364391 -0.184088
-0.204122 -0.043737 -0.181039
-0.189504 -0.0388995 -0.180355
-0.179409 -0.0240179 -0.179668
-0.182718 -0.0192535 -0.180554
-0.177633 -0.0198718 -0.179525
-0.178126 -0.0163415 -0.180142
-0.180323 -0.00738283 -0.180755
-0.176787 -0.0106984 -0.180239
-0.176683 -0.00382208 -0.179295
-0.180694 0.0124447 -0.180486
-0.179932 0.022388 -0.180086
-0.174729 -0.0204524 -0.176843
-0.166455 -0.0143155 -0.175538
-0.1672 -0.00275827 -0.176478
-0.168885 0.000406489 -0.177217
-0.17131 0.00523521 -0.177112
-0.16727 0.00394415 -0.176559
-0.167165 0.00810609 -0.176244
-0.16684 0.0118774 -0.175777
-0.176641 0.0218193 -0.177718
-0.197025 0.0580417 -0.175833
-0.200063 -0.065523 -0.172803
-0.184771 -0.0508132 -0.173108
-0.164375 -0.0232751 -0.173481
-0.161764 -0.00858312 -0.17403
[...]
POINT_DATA 751
VECTORS i float
0.0 0.0 0.0
0.0 0.0 0.0
0.0 0.0 0.0
0.0 0.0 0.0
0.0 0.0 0.0
0.0 0.0 0.0
0.0 0.0 0.0
0.0 0.0 0.0
0.0 0.0 0.0
0.0 0.0 0.0
0.0 0.0 0.0
0.0 0.0 0.0
0.0 0.0 0.0
0.0 0.0 0.0
0.0 0.0 0.0
0.0 0.0 0.0
0.0 0.0 0.0
0.0 0.0 0.0
0.0 0.0 0.0
0.0 0.0 0.0
0.0 0.0 0.0
0.0 0.0 0.0
0.0 0.0 0.0
0.0 0.0 0.0
0.0 0.0 0.0
0.0 0.0 0.0
0.0 0.0 0.0
0.0 0.0 0.0
0.0 0.0 0.0
0.0 0.0 0.0
0.0 0.0 0.0
0.0 0.0 0.0
0.0 0.0 0.0
0.0 0.0 0.0
0.0 0.0 0.0
0.0 0.0 0.0
0.0 0.0 0.0
0.0 0.0 0.0
0.0 0.0 0.0
0.0 0.0 0.0
0.0 0.0 0.0
0.0 0.0 0.0
0.0 0.0 0.0
0.0 0.0 0.0
0.0 0.0 0.0
0.0 0.0 0.0
0.0 0.0 0.0
0.0 0.0 0.0
0.0 0.0 0.0
0.0 0.0 0.0
0.0 0.0 0.0
0.0 0.0 0.0
0.0 0.0 0.0
0.0 0.0 0.0
0.0 0.0 0.0
0.0 0.0 0.0
0.0 0.0 0.0
0.0 0.0 0.0
0.0 0.0 0.0
0.0 0.0 0.0
0.0 0.0 0.0
0.0 0.0 0.0
0.0 0.0 0.0
0.0 0.0 0.0
0.0 0.0 0.0
0.0 0.0 0.0
0.0 0.0 0.0
0.0 0.0 0.0
0.0 0.0 0.0
0.0 0.0 0.0
0.0 0.0 0.0
0.0 0.0 0.0
0.0 0.0 0.0
0.0 0.0 0.0
0.0 0.0 0.0
0.0 0.0 0.0
0.0 0.0 0.0
0.0 0.0 0.0
0.0 0.0 0.0
0.0 0.0 0.0
0.0 0.0 0.0
0.0 0.0 0.0
0.0 0.0 0.0
0.0 0.0 0.0
0.0 0.0 0.0
0.0 0.0 0.0
0.0 0.0 0.0
0.0 0.0 0.0
0.0 0.0 0.0
0.0 0.0 0.0
0.0 0.0 0.0
0.0 0.0 0.0
0.0 0.0 0.0
0.0 0.0 0.0
0.0 0.0 0.0
0.0 0.0 0.0
0.0 0.0 0.0
0.0 0.0 0.0
0.0 0.0 0.0
0.0 0.0 0.0
0.0 0.0 0.0
0.0 0.0 0.0
0.0 0.0 0.0
0.0 0.0 0.0
0.0 0.0 0.0
0.0 0.0 0.0
0.0 0.0 0.0
0.0 0.0 0.0
0.0 0.0 0.0
0.0 0.0 0.0
0.0 0.0 0.0
0.0 0.0 0.0
0.0 0.0 0.0
0.0 0.0 0.0
0.0 0.0 0.0
0.0 0.0 0.0
0.0 0.0 0.0
0.0 0.0 0.0
0.0 0.0 0.0
0.0 0.0 0.0
0.0 0.0 0.0
0.0 0.0 0.0
0.0 0.0 0.0
0.0 0.0 0.0
0.0 0.0 0.0
0.0 0.0 0.0
0.0 0.0 0.0
0.0 0.0 0.0
0.0 0.0 0.0
0.0 0.0 0.0
0.0 0.0 0.0
0.0 0.0 0.0
0.0 0.0 0.0
0.0 0.0 0.0
0.0 0.0 0.0
0.0 0.0 0.0
0.0 0.0 0.0
0.0 0.0 0.0
0.0 0.0 0.0
0.0 0.0 0.0
0.0 0.0 0.0
0.0 0.0 0.0
0.0 0.0 0.0
0.0 0.0 0.0
0.0 0.0 0.0
0.0 0.0 0.0
0.0 0.0 0.0
0.0 0.0 0.0
0.0 0.0 0.0
0.0 0.0 0.0
0.0 0.0 0.0
0.0 0.0 0.0
0.0 0.0 0.0
0.0 0.0 0.0
0.0 0.0 0.0
0.0 0.0 0.0
0.0 0.0 0.0
0.0 0.0 0.0
0.0 0.0 0.0
0.0 0.0 0.0
0.0 0.0 0.0
0.0 0.0 0.0
0.0 0.0 0.0
0.0 0.0 0.0
0.0 0.0 0.0
0.0 0.0 0.0
0.0 0.0 0.0
0.0 0.0 0.0
0.0 0.0 0.0
0.0 0.0 0.0
0.0 0.0 0.0
0.0 0.0 0.0
0.0 0.0 0.0
0.0 0.0 0.0
0.0 0.0 0.0
0.0 0.0 0.0
0.0 0.0 0.0
0.0 0.0 0.0
0.0 0.0 0.0
0.0 0.0 0.0
0.0 0.0 0.0
0.0 0.0 0.0
0.0 0.0 0.0
0.0 0.0 0.0
0.0 0.0 0.0
0.0 0.0 0.0
0.0 0.0 0.0
0.0 0.0 0.0
0.0 0.0 0.0
0.0 0.0 0.0
0.0 0.0 0.0
0.0 0.0 0.0
0.0 0.0 0.0
0.0 0.0 0.0
0.0 0.0 0.0
0.0 0.0 0.0
0.0 0.0 0.0
0.0 0.0 0.0
0.0 0.0 0.0
0.0 0.0 0.0
0.0 0.0 0.0
0.0 0.0 0.0
0.0 0.0 0.0
0.0 0.0 0.0
0.0 0.0 0.0
0.0 0.0 0.0
0.0 0.0 0.0
0.0 0.0 0.0
0.0 0.0 0.0
0.0 0.0 0.0
0.0 0.0 0.0
0.0 0.0 0.0
0.0 0.0 0.0
0.0 0.0 0.0
0.0 0.0 0.0
0.0 0.0 0.0
0.0 0.0 0.0
0.0 0.0 0.0
0.0 0.0 0.0
0.0 0.0 0.0
0.0 0.0 0.0
0.0 0.0 0.0
0.0 0.0 0.0
0.0 0.0 0.0
0.0 0.0 0.0
0.0 0.0 0.0
0.0 0.0 0.0
0.0 0.0 0.0
0.0 0.0 0.0
0.0 0.0 0.0
0.0 0.0 0.0
0.0 0.0 0.0
0.0 0.0 0.0
0.0 0.0 0.0
0.0 0.0 0.0
0.0 0.0 0.0
0.0 0.0 0.0
0.0 0.0 0.0
0.0 0.0 0.0
0.0 0.0 0.0
0.0 0.0 0.0
0.0 0.0 0.0
0.0 0.0 0.0
0.0 0.0 0.0
0.0 0.0 0.0
0.0 0.0 0.0
0.0 0.0 0.0
0.0 0.0 0.0
0.0 0.0 0.0
0.0 0.0 0.0
0.0 0.0 0.0
0.0 0.0 0.0
0.0 0.0 0.0
0.0 0.0 0.0
0.0 0.0 0.0
0.0 0.0 0.0
0.0 0.0 0.0
0.0 0.0 0.0
0.0 0.0 0.0
0.0 0.0 0.0
0.0 0.0 0.0
0.0 0.0 0.0
0.0 0.0 0.0
0.0 0.0 0.0
0.0 0.0 0.0
0.0 0.0 0.0
0.0 0.0 0.0
0.0 0.0 0.0
0.0 0.0 0.0
0.0 0.0 0.0
0.0 0.0 0.0
0.0 0.0 0.0
0.0 0.0 0.0
0.0 0.0 0.0
0.0 0.0 0.0
0.0 0.0 0.0
0.0 0.0 0.0
0.0 0.0 0.0
0.0 0.0 0.0
0.0 0.0 0.0
0.0 0.0 0.0
0.0 0.0 0.0
0.0 0.0 0.0
0.0 0.0 0.0
0.0 0.0 0.0
0.0 0.0 0.0
0.0 0.0 0.0
0.0 0.0 0.0
0.0 0.0 0.0
0.0 0.0 0.0
0.0 0.0 0.0
0.0 0.0 0.0
0.0 0.0 0.0
0.0 0.0 0.0
0.0 0.0 0.0
0.0 0.0 0.0
0.0 0.0 0.0
0.0 0.0 0.0
0.0 0.0 0.0
0.0 0.0 0.0
0.0 0.0 0.0
0.0 0.0 0.0
0.0 0.0 0.0
0.0 0.0 0.0
0.0 0.0 0.0
0.0 0.0 0.0
0.0 0.0 0.0
0.0 0.0 0.0
0.0 0.0 0.0
0.0 0.0 0.0
0.0 0.0 0.0
0.0 0.0 0.0
0.0 0.0 0.0
0.0 0.0 0.0
0.0 0.0 0.0
0.0 0.0 0.0
0.0 0.0 0.0
0.0 0.0 0.0
0.0 0.0 0.0
0.0 0.0 0.0
0.0 0.0 0.0
0.0 0.0 0.0
0.0 0.0 0.0
0.0 0.0 0.0
0.0 0.0 0.0
0.0 0.0 0.0
0.0 0.0 0.0
0.0 0.0 0.0
0.0 0.0 0.0
0.0 0.0 0.0
0.0 0.0 0.0
0.0 0.0 0.0
0.0 0.0 0.0
0.0 0.0 0.0
0.0 0.0 0.0
0.0 0.0 0.0
0.0 0.0 0.0
0.0 0.0 0.0
0.0 0.0 0.0
0.0 0.0 0.0
0.0 0.0 0.0
0.0 0.0 0.0
0.0 0.0 0.0
0.0 0.0 0.0
0.0 0.0 0.0
0.0 0.0 0.0
0.0 0.0 0.0
0.0 0.0 0.0
0.0 0.0 0.0
0.0 0.0 0.0
0.0 0.0 0.0
0.0 0.0 0.0
0.0 0.0 0.0
0.0 0.0 0.0
0.0 0.0 0.0
0.0 0.0 0.0
0.0 0.0 0.0
0.0 0.0 0.0
0.0 0.0 0.0
0.0 0.0 0.0
0.0 0.0 0.0
0.0 0.0 0.0
0.0 0.0 0.0
0.0 0.0 0.0
0.0 0.0 0.0
0.0 0.0 0.0
0.0 0.0 0.0
0.0 0.0 0.0
0.0 0.0 0.0
0.0 0.0 0.0
0.0 0.0 0.0
0.0 0.0 0.0
0.0 0.0 0.0
0.0 0.0 0.0
0.0 0.0 0.0
0.0 0.0 0.0
0.0 0.0 0.0
0.0 0.0 0.0
0.0 0.0 0.0
0.0 0.0 0.0
0.0 0.0 0.0
0.0 0.0 0.0
0.0 0.0 0.0
0.0 0.0 0.0
0.0 0.0 0.0
0.0 0.0 0.0
0.0 0.0 0.0
0.0 0.0 0.0
0.0 0.0 0.0
0.0 0.0 0.0
0.0 0.0 0.0
0.0 0.0 0.0
0.0 0.0 0.0
0.0 0.0 0.0
0.0 0.0 0.0
0.0 0.0 0.0
0.0 0.0 0.0
0.0 0.0 0.0
0.0 0.0 0.0
0.0 0.0 0.0
0.0 0.0 0.0
0.0 0.0 0.0
0.0 0.0 0.0
0.0 0.0 0.0
0.0 0.0 0.0
0.0 0.0 0.0
0.0 0.0 0.0
0.0 0.0 0.0
0.0 0.0 0.0
0.0 0.0 0.0
0.0 0.0 0.0
0.0 0.0 0.0
0.0 0.0 0.0
0.0 0.0 0.0
0.0 0.0 0.0
0.0 0.0 0.0
0.0 0.0 0.0
0.0 0.0 0.0
0.0 0.0 0.0
0.0 0.0 0.0
0.0 0.0 0.0
0.0 0.0 0.0
0.0 0.0 0.0
0.0 0.0 0.0
0.0 0.0 0.0
0.0 0.0 0.0
0.0 0.0 0.0
0.0 0.0 0.0
0.0 0.0 0.0
0.0 0.0 0.0
0.0 0.0 0.0
0.0 0.0 0.0
0.0 0.0 0.0
0.0 0.0 0.0
0.0 0.0 0.0
0.0 0.0 0.0
0.0 0.0 0.0
0.0 0.0 0.0
0.0 0.0 0.0
0.0 0.0 0.0
0.0 0.0 0.0
0.0 0.0 0.0
0.0 0.0 0.0
0.0 0.0 0.0
0.0 0.0 0.0
0.0 0.0 0.0
0.0 0.0 0.0
0.0 0.0 0.0
0.0 0.0 0.0
0.0 0.0 0.0
0.0 0.0 0.0
0.0 0.0 0.0
0.0 0.0 0.0
0.0 0.0 0.0
0.0 0.0 0.0
0.0 0.0 0.0
0.0 0.0 0.0
0.0 0.0 0.0
0.0 0.0 0.0
0.0 0.0 0.0
0.0 0.0 0.0
0.0 0.0 0.0
0.0 0.0 0.0
0.0 0.0 0.0
0.0 0.0 0.0
0.0 0.0 0.0
0.0 0.0 0.0
0.0 0.0 0.0
0.0 0.0 0.0
0.0 0.0 0.0
0.0 0.0 0.0
0.0 0.0 0.0
0.0 0.0 0.0
0.0 0.0 0.0
0.0 0.0 0.0
0.0 0.0 0.0
0.0 0.0 0.0
0.0 0.0 0.0
0.0 0.0 0.0
0.0 0.0 0.0
0.0 0.0 0.0
0.0 0.0 0.0
0.0 0.0 0.0
0.0 0.0 0.0
0.0 0.0 0.0
0.0 0.0 0.0
0.0 0.0 0.0
0.0 0.0 0.0
0.0 0.0 0.0
0.0 0.0 0.0
0.0 0.0 0.0
0.0 0.0 0.0
0.0 0.0 0.0
0.0 0.0 0.0
0.0 0.0 0.0
0.0 0.0 0.0
0.0 0.0 0.0
0.0 0.0 0.0
0.0 0.0 0.0
0.0 0.0 0.0
0.0 0.0 0.0
0.0 0.0 0.0
0.0 0.0 0.0
0.0 0.0 0.0
0.0 0.0 0.0
0.0 0.0 0.0
0.0 0.0 0.0
0.0 0.0 0.0
0.0 0.0 0.0
0.0 0.0 0.0
0.0 0.0 0.0
0.0 0.0 0.0
0.0 0.0 0.0
0.0 0.0 0.0
0.0 0.0 0.0
0.0 0.0 0.0
0.0 0.0 0.0
0.0 0.0 0.0
0.0 0.0 0.0
0.0 0.0 0.0
0.0 0.0 0.0
0.0 0.0 0.0
0.0 0.0 0.0
0.0 0.0 0.0
0.0 0.0 0.0
0.0 0.0 0.0
0.0 0.0 0.0
0.0 0.0 0.0
0.0 0.0 0.0
0.0 0.0 0.0
0.0 0.0 0.0
0.0 0.0 0.0
0.0 0.0 0.0
0.0 0.0 0.0
0.0 0.0 0.0
0.0 0.0 0.0
0.0 0.0 0.0
0.0 0.0 0.0
0.0 0.0 0.0
0.0 0.0 0.0
0.0 0.0 0.0
0.0 0.0 0.0
0.0 0.0 0.0
0.0 0.0 0.0
0.0 0.0 0.0
0.0 0.0 0.0
0.0 0.0 0.0
0.0 0.0 0.0
0.0 0.0 0.0
0.0 0.0 0.0
0.0 0.0 0.0
0.0 0.0 0.0
0.0 0.0 0.0
0.0 0.0 0.0
0.0 0.0 0.0
0.0 0.0 0.0
0.0 0.0 0.0
0.0 0.0 0.0
0.0 0.0 0.0
0.0 0.0 0.0
0.0 0.0 0.0
0.0 0.0 0.0
0.0 0.0 0.0
0.0 0.0 0.0
0.0 0.0 0.0
0.0 0.0 0.0
0.0 0.0 0.0
0.0 0.0 0.0
0.0 0.0 0.0
0.0 0.0 0.0
0.0 0.0 0.0
0.0 0.0 0.0
0.0 0.0 0.0
0.0 0.0 0.0
0.0 0.0 0.0
0.0 0.0 0.0
0.0 0.0 0.0
0.0 0.0 0.0
0.0 0.0 0.0
0.0 0.0 0.0
0.0 0.0 0.0
0.0 0.0 0.0
0.0 0.0 0.0
0.0 0.0 0.0
0.0 0.0 0.0
0.0 0.0 0.0
0.0 0.0 0.0
0.0 0.0 0.0
0.0 0.0 0.0
0.0 0.0 0.0
0.0 0.0 0.0
0.0 0.0 0.0
0.0 0.0 0.0
0.0 0.0 0.0
0.0 0.0 0.0
0.0 0.0 0.0
0.0 0.0 0.0
0.0 0.0 0.0
0.0 0.0 0.0
0.0 0.0 0.0
0.0 0.0 0.0
0.0 0.0 0.0
0.0 0.0 0.0
0.0 0.0 0.0
0.0 0.0 0.0
0.0 0.0 0.0
0.0 0.0 0.0
0.0 0.0 0.0
0.0 0.0 0.0
0.0 0.0 0.0
0.0 0.0 0.0
0.0 0.0 0.0
0.0 0.0 0.0
0.0 0.0 0.0
0.0 0.0 0.0
0.0 0.0 0.0
0.0 0.0 0.0
0.0 0.0 0.0
0.0 0.0 0.0
0.0 0.0 0.0
0.0 0.0 0.0
0.0 0.0 0.0
0.0 0.0 0.0
0.0 0.0 0.0
0.0 0.0 0.0
0.0 0.0 0.0
0.0 0.0 0.0
0.0 0.0 0.0
0.0 0.0 0.0
0.0 0.0 0.0
0.0 0.0 0.0
0.0 0.0 0.0
0.0 0.0 0.0
0.0 0.0 0.0
0.0 0.0 0.0
0.0 0.0 0.0
0.0 0.0 0.0
0.0 0.0 0.0
0.0 0.0 0.0
0.0 0.0 0.0
0.0 0.0 0.0
0.0 0.0 0.0
0.0 0.0 0.0
0.0 0.0 0.0
0.0 0.0 0.0
0.0 0.0 0.0
0.0 0.0 0.0
0.0 0.0 0.0
0.0 0.0 0.0
0.0 0.0 0.0
0.0 0.0 0.0
0.0 0.0 0.0
0.0 0.0 0.0
0.0 0.0 0.0
0.0 0.0 0.0
0.0 0.0 0.0
0.0 0.0 0.0
0.0 0.0 0.0
0.0 0.0 0.0
0.0 0.0 0.0
0.0 0.0 0.0
0.0 0.0 0.0
0.0 0.0 0.0
0.0 0.0 0.0
0.0 0.0 0.0
0.0 0.0 0.0
0.0 0.0 0.0
0.0 0.0 0.0
0.0 0.0 0.0
0.0 0.0 0.0
0.0 0.0 0.0
0.0 0.0 0.0
0.0 0.0 0.0
0.0 0.0 0.0
0.0 0.0 0.0
0.0 0.0 0.0
0.0 0.0 0.0
0.0 0.0 0.0
0.0 0.0 0.0
0.0 0.0 0.0
0.0 0.0 0.0
0.0 0.0 0.0
0.0 0.0 0.0
0.0 0.0 0.0
0.0 0.0 0.0
0.0 0.0 0.0
0.0 0.0 0.0
0.0 0.0 0.0
0.0 0.0 0.0
0.0 0.0 0.0
0.0 0.0 0.0
0.0 0.0 0.0
0.0 0.0 0.0
0.0 0.0 0.0
0.0 0.0 0.0
0.0 0.0 0.0
0.0 0.0 0.0
0.0 0.0 0.0
0.0 0.0 0.0
0.0 0.0 0.0
0.0 0.0 0.0
0.0 0.0 0.0
0.0 0.0 0.0
0.0 0.0 0.0
0.0 0.0 0.0
0.0 0.0 0.0
0.0 0.0 0.0
0.0 0.0 0.0
0.0 0.0 0.0
0.0 0.0 0.0
0.0 0.0 0.0
0.0 0.0 0.0
0.0 0.0 0.0
0.0 0.0 0.0
0.0 0.0 0.0
0.0 0.0 0.0
0.0 0.0 0.0
0.0 0.0 0.0
0.0 0.0 0.0
0.0 0.0 0.0
0.0 0.0 0.0
0.0 0.0 0.0
0.0 0.0 0.0
0.0 0.0 0.0
0.0 0.0 0.0
0.0 0.0 0.0
0.0 0.0 0.0
0.0 0.0 0.0
0.0 0.0 0.0
0.0 0.0 0.0
0.0 0.0 0.0
0.0 0.0 0.0
0.0 0.0 0.0
0.0 0.0 0.0
0.0 0.0 0.0
0.0 0.0 0.0
0.0 0.0 0.0
0.0 0.0 0.0
0.0 0.0 0.0
0.0 0.0 0.0
0.0 0.0 0.0
0.0 0.0 0.0
0.0 0.0 0.0
0.0 0.0 0.0
0.0 0.0 0.0
0.0 0.0 0.0
0.0 0.0 0.0
0.0 0.0 0.0
0.0 0.0 0.0
0.0 0.0 0.0
0.0 0.0 0.0
VECTORS f float
0.0 0.0 0.0
0.0 0.0 0.0
0.0 0.0 -0.000346714
0.0 0.0 0.0
0.0 0.0 -0.000346714
0.0 0.0 -0.00160516
0.0 0.0 -0.00160516
0.0 0.0 -0.00160516
0.0 0.0 -0.000346714
0.0 0.0 -0.000346714
0.0 0.0 -0.000346714
0.0 0.0 -0.000346714
0.0 0.0 -0.00160516
0.0 0.0 -0.00160516
0.0 0.0 -0.000346714
0.0 0.0 -0.000346714
0.0 0.0 -0.00160516
0.0 0.0 -0.000346714
0.0 0.0 -0.00160516
0.0 0.0 -0.000346714
0.0 0.0 -0.000346714
0.0 0.0 -0.000346714
0.0 0.0 0.0
0.0 0.0 -0.00160516
0.0 0.0 -0.00160516
0.0 0.0 -0.000346714
0.0 0.0 -0.000346714
0.0 0.0 -0.00160516
0.0 0.0 -0.000346714
0.0 0.0 -0.000346714
0.0 0.0 -0.000346714
0.0 0.0 -0.000346714
0.0 0.0 -0.000346714
0.0 0.0 -0.000346714
0.0 0.0 -0.000346714
0.0 0.0 -0.00160516
0.0 0.0 -0.000346714
0.0 0.0 -0.00160516
0.0 0.0 -0.000346714
0.0 0.0 -0.000346714
0.0 0.0 -0.00160516
0.0 0.0 -0.000346714
0.0 0.0 -0.000346714
0.0 0.0 -0.00160516
0.0 0.0 -0.00160516
0.0 0.0 -0.000346714
0.0 0.0 -0.000346714
0.0 0.0 -0.000346714
0.0 0.0 -0.000346714
0.0 0.0 -0.000346714
0.0 0.0 -0.000346714
0.0 0.0 -0.000346714
0.0 0.0 -0.000346714
0.0 0.0 -0.00160516
0.0 0.0 -0.000346714
0.0 0.0 -0.00160516
0.0 0.0 -0.000346714
0.0 0.0 -0.000346714
0.0 0.0 -0.000346714
0.0 0.0 -0.000346714
0.0 0.0 -0.00160516
0.0 0.0 -0.000346714
0.0 0.0 -0.000346714
0.0 0.0 -0.00160516
0.0 0.0 -0.000346714
0.0 0.0 -0.000346714
0.0 0.0 -0.000346714
0.0 0.0 -0.00160516
0.0 0.0 -0.000346714
0.0 0.0 -0.000346714
0.0 0.0 -0.000346714
0.0 0.0 -0.00160516
0.0 0.0 -0.00160516
0.0 0.0 -0.00160516
0.0 0.0 -0.000346714
0.0 0.0 -0.000346714
0.0 0.0 -0.000346714
0.0 0.0 -0.000346714
0.0 0.0 -0.000346714
0.0 0.0 -0.00160516
0.0 0.0 -0.000346714
0.0 0.0 -0.00160516
0.0 0.0 -0.00160516
0.0 0.0 -0.00160516
0.0 0.0 -0.000346714
0.0 0.0 -0.000346714
0.0 0.0 -0.00160516
0.0 0.0 -0.00160516
0.0 0.0 -0.000346714
0.0 0.0 -0.000346714
0.0 0.0 -0.000346714
0.0 0.0 -0.000346714
0.0 0.0 -0.000346714
0.0 0.0 -0.000346714
0.0 0.0 -0.00160516
0.0 0.0 -0.00160516
0.0 0.0 -0.000346714
0.0 0.0 -0.00160516
0.0 0.0 -0.000346714
0.0 0.0 -0.00160516
0.0 0.0 -0.000346714
0.0 0.0 -0.00160516
0.0 0.0 -0.000346714
0.0 0.0 -0.00160516
0.0 0.0 -0.000346714
0.0 0.0 -0.000346714
0.0 0.0 -0.000346714
0.0 0.0 -0.000346714
0.0 0.0 -0.000346714
0.0 0.0 -0.000346714
0.0 0.0 -0.000346714
0.0 0.0 -0.000346714
0.0 0.0 -0.000346714
0.0 0.0 -0.00160516
0.0 0.0 -0.000346714
0.0 0.0 -0.000346714
0.0 0.0 -0.000346714
0.0 0.0 -0.00160516
0.0 0.0 -0.00160516
-0.00015693 2.51277e-05 0.000129523
-0.000410973 3.4604e-05 -0.000172915
0.0 0.0 -0.00160516
0.0 0.0 -0.000346714
0.000272351 -9.99281e-05 -0.0016121
0.0 0.0 -0.00160516
2.34541e-05 2.39934e-05 1.89555e-05
0.0 0.0 -0.000346714
2.21503e-05 2.21747e-05 -1.77587e-06
-8.8617e-05 7.3083e-06 -3.76631e-05
-8.26373e-05 -1.22921e-05 -5.15147e-05
0.0 0.0 -0.00160516
-9.50769e-05 -4.45652e-05 -2.02984e-05
0.0 0.0 -0.000346714
0.0 0.0 -0.00160516
-0.000223176 0.000168317 0.000367679
-0.000286766 9.52836e-05 0.000227394
-0.000403272 0.000134168 -0.000185545
0.000417954 7.83493e-05 -0.00201166
-8.75863e-05 2.28152e-05 -3.93791e-05
9.98549e-05 -7.24748e-05 -0.000125475
-8.78795e-05 -3.18781e-05 3.99574e-05
-8.86054e-05 7.30688e-06 -3.77012e-05
-0.00040895 -6.12825e-05 -0.000182137
-0.000394419 -0.000183884 -0.000200623
-8.48562e-05 -3.96045e-05 -4.40878e-05
-7.81064e-05 -6.60547e-05 -5.60851e-05
0.0 0.0 -0.00160516
0.0 0.0 -0.00160516
0.0 0.0 -0.00160516
-0.000554224 1.6725e-05 -0.000223318
9.67389e-05 -1.89428e-05 -6.72436e-05
-1.28616e-05 8.07562e-05 -1.21601e-05
0.0 0.0 -0.000346714
0.0 0.0 -0.00160516
0.0 0.0 -0.000346714
-8.93703e-05 4.03312e-05 -3.43974e-05
2.32343e-06 -4.56149e-05 8.28365e-06
3.94706e-05 0.000153446 0.000213321
-0.000406083 0.000105073 -0.000179703
-7.79984e-05 7.50631e-06 -6.50944e-05
-0.000411331 3.32494e-05 -0.000170975
-0.000349688 2.55247e-05 -0.000368938
-0.000364267 -0.000158497 0.000546021
-0.000742496 -0.000369911 0.00169416
0.0 0.0 -0.000346714
0.0 0.0 -0.000346714
-0.000487268 0.000284602 -0.00060143
0.0 0.0 -0.00160516
-0.000236321 6.20811e-05 -0.000608949
-9.10307e-05 7.22513e-06 -3.20703e-05
-0.000125622 -1.89498e-05 2.94365e-05
-1.74194e-05 -2.40177e-06 -0.000232545
0.0 0.0 -0.000346714
0.00165395 0.000453781 -0.00303536
1.37755e-05 -2.27724e-05 -5.45966e-05
8.60102e-05 -0.000142361 5.43354e-05
-0.000130146 1.18384e-05 4.70977e-05
9.51826e-05 -4.41119e-05 -6.29579e-05
-0.000195508 -2.26607e-05 0.000207696
-8.64712e-05 -1.00891e-05 -4.41499e-05
3.17849e-05 -5.23227e-05 4.90753e-05
0.0 0.0 -0.000346714
-0.000437064 -0.000312364 -0.000114842
0.0 0.0 -0.000346714
-0.000112827 -8.13922e-05 -1.05623e-05
0.0 0.0 -0.000346714
-0.00023819 6.50956e-05 -0.000578081
-0.000216289 1.87248e-05 0.000299604
-9.31185e-05 9.7515e-06 -2.81284e-05
-8.57439e-05 8.82399e-06 -4.2198e-05
-8.81911e-05 8.109e-06 -3.74759e-05
-0.000406507 -4.58243e-05 -0.000161444
-8.509e-05 -8.86216e-06 -4.64246e-05
0.000121739 -1.45784e-05 -0.000606462
0.0 0.0 -0.000346714
-5.61147e-05 -2.08888e-05 -0.000128677
-7.83405e-05 9.05064e-06 -6.23339e-05
-8.84992e-05 9.26429e-06 -3.66866e-05
0.0 0.0 -0.000346714
-8.57829e-05 -3.08943e-05 -4.44495e-05
0.000952135 4.37193e-05 -0.00332601
-0.000431313 -0.000287935 -0.000104758
-8.79538e-05 -6.16486e-05 -0.000862108
0.0 0.0 -0.000346714
0.0 0.0 -0.000346714
0.0 0.0 -0.000346714
-8.75874e-05 3.51631e-05 -5.46383e-06
0.0 0.0 -0.00160516
-5.12242e-05 1.67113e-05 -0.00013965
-0.000321102 -2.75977e-05 -0.000393787
-0.000510432 -6.11344e-05 -0.000252578
0.0 0.0 -0.000346714
-7.12711e-05 -0.000124326 -4.55322e-05
0.0 0.0 -0.000346714
0.0 0.0 -0.000346714
-0.00049651 -4.26764e-05 1.20435e-05
-8.95093e-05 -5.22404e-06 -3.85169e-05
0.0 0.0 -0.00160516
-0.00022159 -7.68769e-05 0.00032496
-2.11542e-05 -6.35063e-06 -0.00018682
-8.64596e-05 -2.96374e-05 -4.01149e-05
-8.29751e-05 4.12889e-05 -4.23559e-05
-8.81534e-05 4.37644e-05 -3.21314e-05
-8.92829e-05 1.88673e-05 -3.89397e-05
1.81944e-05 8.79134e-05 5.48057e-05
0.0 0.0 -0.00160516
0.0 0.0 -0.000346714
0.000235386 4.44101e-05 -0.000687224
0.0 0.0 -0.00160516
-0.00928882 -0.00111966 0.014706
-8.53856e-05 4.39181e-05 -4.61537e-05
-0.00018538 9.81862e-05 -0.000632649
-0.000407254 8.96263e-05 -0.000164097
-8.7654e-05 -4.19547e-06 -3.68424e-05
3.96093e-05 9.37809e-06 0.00066564
-0.000124282 -3.39767e-05 -4.39392e-06
-0.000325332 -0.000110914 -0.000190446
-0.000396269 -0.000124382 -0.00018848
7.16322e-05 0.0017052 -0.000490285
-7.90002e-05 6.97542e-05 -5.63287e-05
-8.49358e-05 4.69056e-05 -4.68847e-05
0.0063505 0.0242599 0.0206267
2.44959e-05 0.000114627 -1.49357e-05
-6.31482e-05 8.20734e-05 0.000769255
-9.56523e-05 2.28066e-05 -3.1456e-05
0.0 0.0 -0.000346714
0.0 0.0 -0.000346714
0.0 0.0 -0.000346714
0.00245456 -0.00087501 -0.0128099
-8.66419e-05 2.19841e-05 -3.81526e-05
-0.000581944 -1.56059e-05 0.000150725
-0.00221027 -3.66199e-05 0.00464577
-0.00111165 -0.000702317 0.00312582
0.0 0.0 -0.00160516
-8.8697e-05 -2.24708e-05 -3.99319e-05
0.000763161 -0.00189637 -0.00227681
-5.99565e-05 -3.00745e-05 -0.000961519
0.0 0.0 -0.000346714
-8.2541e-05 4.73815e-05 -4.46413e-05
-0.000820783 0.000215502 0.000588049
-8.84923e-05 2.44797e-05 -4.08073e-05
2.42412e-05 1.18177e-05 8.87086e-06
0.0 0.0 -0.000346714
-8.96561e-05 3.68771e-07 -3.84416e-05
-8.98939e-05 3.68278e-07 -3.74918e-05
4.78016e-05 -5.97046e-05 -0.00119614
0.0 0.0 -0.000346714
0.0 0.0 -0.00160516
0.0 0.0 -0.000346714
-0.000841511 -0.000200564 0.000901808
-2.38609e-05 0.000154708 0.000539698
-0.00362487 0.00573151 0.00421031
0.0 0.0 -0.000346714
0.0 0.0 -0.000346714
0.0 0.0 -0.000346714
-8.25272e-06 0.000212612 -0.000157278
-7.23505e-05 9.45949e-05 -6.63337e-05
-0.00182723 -0.000333678 0.00243972
0.0 0.0 -0.00160516
0.0 0.0 -0.000346714
0.0 0.0 -0.00160516
0.000151328 0.000261019 0.00260904
-9.04595e-05 3.17665e-06 -3.68746e-05
0.0 0.0 -0.000346714
-0.00013428 -3.43481e-05 7.26787e-05
-8.9846e-05 -2.00542e-05 -4.12148e-05
-0.000374021 -0.00031167 -0.000250696
-0.000142469 0.000270804 0.000935777
-5.36883e-06 1.47416e-05 -8.25947e-06
0.000103196 9.72827e-05 0.00107986
-8.62868e-05 2.48612e-05 -3.85923e-05
-0.000399792 0.000115268 -0.000176813
-8.83642e-05 3.09207e-06 -4.19419e-05
-8.93203e-05 3.14246e-06 -3.93075e-05
0.0 0.0 -0.00160516
-8.84853e-05 -1.89769e-05 -3.64881e-05
0.0 0.0 -0.000346714
-7.95784e-05 -6.46815e-05 -5.44888e-05
0.0 0.0 -0.000346714
-8.0719e-05 6.71462e-05 -5.38388e-05
0.0 0.0 -0.000346714
0.0 0.0 -0.00160516
-0.000218866 0.000130152 -7.90127e-05
-8.48205e-05 2.51331e-05 -3.72397e-05
-0.000441227 1.88383e-05 -0.000166771
-8.89306e-05 1.74537e-05 -3.94651e-05
4.53764e-05 -5.25911e-06 -0.000408246
-0.000553427 -0.00031526 -0.000493218
-6.58356e-05 -3.27473e-05 -7.78535e-05
0.000291467 -0.000125775 -0.000821967
2.36759e-05 1.31186e-06 1.1143e-05
-0.000125009 5.50555e-06 6.75296e-05
-0.000116415 5.07821e-06 5.2239e-05
-0.000443193 -0.000101132 -0.000214187
-9.02545e-05 3.86669e-07 -3.90688e-05
-0.00309062 -0.000575887 0.00808734
1.67815e-05 -2.11928e-06 -8.43346e-05
-0.000146038 -6.24455e-05 -0.000841304
0.0 0.0 -0.000346714
0.0 0.0 -0.000346714
-0.000332134 0.000392802 -0.000321646
-8.60186e-05 3.56029e-05 -3.30157e-05
-0.000103744 1.9257e-05 9.07028e-06
0.013678 -0.0142642 -3.84888e-05
0.0 0.0 -0.000346714
0.0 0.0 -0.00160516
0.00326451 -0.00483164 0.00654351
-3.17828e-06 -7.47157e-08 -0.000343918
0.000124015 -7.59657e-05 6.44117e-05
-0.000136092 -5.68109e-05 -0.000816359
-0.000220838 0.000146297 -0.000583569
0.0 0.0 -0.00160516
0.0 0.0 -0.00160516
-8.62084e-05 2.52591e-05 -3.88436e-05
0.0 0.0 -0.000346714
0.0 0.0 -0.00160516
-0.0146349 0.0161573 0.000186724
0.0 0.0 -0.000346714
0.0 0.0 -0.000346714
0.0 0.0 -0.000346714
0.0 0.0 -0.000346714
-6.85668e-05 9.58617e-06 -0.000138447
-0.000396276 -0.0001102 -0.000176656
0.0 0.0 -0.000346714
0.0 0.0 -0.00160516
0.0 0.0 -0.000346714
0.0 0.0 -0.00160516
0.0 0.0 -0.000346714
-8.74214e-05 1.04521e-05 -3.70022e-05
0.0 0.0 -0.000346714
-0.000138715 -0.000109423 0.000688369
-0.00041236 2.94143e-05 -0.000182505
0.0 0.0 -0.00160516
-0.000436201 -2.45241e-05 -0.000150708
-8.51517e-05 -2.35895e-05 -4.04482e-05
0.0 0.0 -0.00160516
4.44653e-05 2.89431e-05 -0.000398111
-8.5094e-05 4.54724e-05 -4.62984e-05
0.0 0.0 -0.000346714
0.0 0.0 -0.000346714
-0.00011424 6.32854e-06 1.49451e-05
0.0 0.0 -0.000346714
-0.000396312 -3.67323e-05 -0.000182499
-0.000448181 -3.73524e-05 -0.000282542
-5.94758e-05 -3.97581e-06 -0.00104528
0.0 0.0 -0.000346714
0.0 0.0 -0.000346714
-0.00032423 0.000171543 -0.000366403
-0.000503687 0.00017817 2.29308e-05
0.0 0.0 -0.00160516
-8.91371e-05 1.545e-05 -3.92934e-05
0.0 0.0 -0.000346714
-0.000800203 5.56178e-05 0.000856513
0.0 0.0 -0.00160516
-5.53165e-05 4.83555e-05 -0.00150235
-7.18877e-05 -1.13041e-05 -7.01787e-05
0.000473675 -0.00172418 0.000817001
-0.000473675 0.00172418 -0.00151043
0.0 0.0 -0.000346714
0.0 0.0 -0.000346714
0.0 0.0 -0.000346714
-8.7029e-05 2.89216e-05 -4.10166e-05
0.0 0.0 -0.000346714
0.0 0.0 -0.00160516
0.0118745 -0.00441663 -0.0492041
0.0 0.0 -0.000346714