# vtk DataFile Version 2.0
Generated by lpp.py
ASCII
DATASET POLYDATA
POINTS 436 float
-0.278304 -0.0609098 -0.200163
-0.223922 0.02051 -0.198809
-0.221105 -0.0162764 -0.197095
-0.214307 -0.00961988 -0.195971
-0.213666 0.0052947 -0.194904
-0.216345 0.0242061 -0.195024
-0.213438 -0.0250182 -0.193561
-0.200812 -0.00534616 -0.190616
-0.208399 0.0111731 -0.193401
-0.207874 0.0188211 -0.192299
-0.2057 0.0205089 -0.19085
-0.203183 -0.00959567 -0.19023
-0.194633 0.00574317 -0.188039
-0.200543 0.0275639 -0.187667
-0.187014 -0.0107054 -0.184475
-0.187424 -0.00276183 -0.184952
-0.187048 0.00273566 -0.184866
-0.189219 0.00519554 -0.185784
-0.186541 0.00728148 -0.184482
-0.194881 0.0175271 -0.187056
-0.280251 0.0793566 -0.185205
-0.216372 -0.0638772 -0.179988
-0.182479 -0.00785019 -0.182754
-0.18471 0.00113448 -0.183463
-0.182082 0.00445561 -0.182796
-0.189367 0.0197105 -0.183452
-0.182383 0.0184972 -0.181731
-0.194379 0.0394536 -0.182082
-0.176121 -0.0114463 -0.178803
-0.172104 0.000270879 -0.178539
-0.173436 0.0180862 -0.176936
-0.183237 0.0289731 -0.179047
-0.183057 0.0403847 -0.177128
-0.166193 -0.0224605 -0.173138
-0.169024 -0.0183327 -0.175071
-0.163002 -0.0191735 -0.173534
-0.163704 -0.0127963 -0.174513
-0.171474 -0.00896917 -0.175572
-0.160635 0.00802073 -0.17355
-0.160543 0.0122295 -0.17315
-0.170581 0.0241997 -0.17582
-0.156977 -0.0117903 -0.170717
-0.158192 0.01454 -0.170505
-0.154158 0.0174069 -0.16997
-0.161466 0.0259678 -0.170555
-0.171548 -0.0527151 -0.167012
-0.150956 -0.00730664 -0.169481
-0.14821 -0.00768519 -0.168229
-0.149138 0.0139895 -0.168167
-0.153231 0.027072 -0.166974
-0.151986 -0.0405243 -0.164384
-0.141364 -0.0230977 -0.162821
-0.145135 -0.0116515 -0.163849
-0.141946 -0.0113485 -0.165505
-0.143614 -0.00609401 -0.165417
-0.13697 -0.00486561 -0.162621
-0.141054 0.00714259 -0.165241
-0.143841 0.0137786 -0.164263
-0.147941 0.0211886 -0.16578
-0.14417 0.0226942 -0.165054
-0.137539 -0.032166 -0.160517
-0.137884 -0.0150279 -0.162347
-0.143379 -0.00363499 -0.162116
-0.125863 -0.00529336 -0.159052
-0.132751 0.000936848 -0.160808
-0.126017 0.00243545 -0.159203
-0.145424 0.00949975 -0.160878
-0.134699 0.00716863 -0.161541
-0.131345 0.0125064 -0.160903
-0.128768 0.0155406 -0.159595
-0.131862 0.0182131 -0.160478
-0.124571 -0.014562 -0.156814
-0.124198 -0.00782016 -0.157522
-0.124611 -0.000293323 -0.158367
-0.121002 -0.00228314 -0.157039
-0.130744 0.00329798 -0.157522
-0.127952 0.00935628 -0.158499
-0.12225 0.0153799 -0.155759
-0.122479 0.0193413 -0.156488
-0.155747 0.062919 -0.157354
-0.114889 -0.025764 -0.15241
-0.114614 -0.0174379 -0.153443
-0.11756 -0.0112877 -0.15437
-0.115976 -0.00711281 -0.153695
-0.135924 0.00229601 -0.155281
-0.111474 0.000837505 -0.15191
-0.1203 0.0123227 -0.154142
-0.117961 0.0146987 -0.155028
-0.130532 0.0191095 -0.154505
-0.119451 0.0196591 -0.154071
-0.162627 -0.080018 -0.149166
-0.136831 -0.0591621 -0.151312
-0.107463 -0.0155976 -0.150549
-0.106252 -0.011735 -0.149206
-0.107088 -0.000148926 -0.149704
-0.103245 0.000698835 -0.148835
-0.115162 0.00499298 -0.152835
-0.110237 0.0105294 -0.151033
-0.10352 0.0160897 -0.148887
-0.108574 -0.0352293 -0.147901
-0.118418 -0.02173 -0.146099
-0.10103 -0.0228955 -0.14591
-0.103958 -0.0165799 -0.147979
-0.0973919 -0.015651 -0.145004
-0.104084 -0.00881282 -0.145549
-0.115031 -0.00648492 -0.144994
-0.0998691 -0.00363734 -0.148139
-0.112736 -0.00158904 -0.147686
-0.10149 2.27203e-05 -0.145199
-0.0933258 0.00182316 -0.145336
-0.0934336 0.00511881 -0.145352
-0.0979992 0.00849598 -0.146054
-0.104998 0.0132977 -0.147587
-0.102234 0.027667 -0.145607
-0.0933245 -0.0340295 -0.141818
-0.0877944 -0.00865411 -0.14279
-0.0958545 -0.00586656 -0.14351
-0.0913643 -0.00259342 -0.143474
-0.0962287 0.00590705 -0.142783
-0.0895816 0.00995076 -0.142415
-0.10628 0.0148234 -0.143817
-0.0926002 0.015543 -0.144303
-0.0889534 0.0151589 -0.142808
-0.0925852 0.0203494 -0.142771
-0.0940627 0.0300558 -0.141855
-0.116546 0.058228 -0.142604
-0.0889529 -0.0337757 -0.138938
-0.0888783 -0.0301667 -0.14074
-0.0841155 -0.0216577 -0.138977
-0.0819227 -0.0159074 -0.139726
-0.0785419 -0.0107061 -0.138571
-0.0799206 -0.00347474 -0.138657
-0.0839424 -0.000899002 -0.14035
-0.0976514 0.00163813 -0.13919
-0.0881023 0.00430352 -0.138831
-0.114172 0.00788381 -0.14058
-0.0818778 0.0162935 -0.13857
-0.0848003 0.0299214 -0.139063
-0.090997 0.0349581 -0.140605
-0.0965936 0.0443815 -0.139586
-0.107205 0.055784 -0.140104
-0.10519 -0.0659962 -0.135966
-0.0780731 -0.0271006 -0.135326
-0.0816634 -0.0241515 -0.136121
-0.0782179 -0.0155859 -0.136493
-0.07494 -0.0114732 -0.136148
-0.072039 -0.00468754 -0.13518
-0.0736575 0.00207194 -0.135957
-0.0943632 0.00342049 -0.13532
-0.0941445 0.00797514 -0.135253
-0.0855986 0.00815981 -0.138772
-0.0822717 0.019025 -0.134855
-0.0715272 0.0213522 -0.134896
-0.075327 0.025388 -0.135851
-0.0860177 -0.052903 -0.132094
-0.106476 -0.030667 -0.134965
-0.0698361 -0.0287307 -0.131967
-0.0646304 -0.0258595 -0.131381
-0.0616151 -0.0136434 -0.13152
-0.0633628 -0.00937179 -0.132455
-0.0909829 0.000227392 -0.132753
-0.0872356 0.00190148 -0.134755
-0.0622791 0.00316207 -0.131129
-0.0668632 0.00698251 -0.134034
-0.105347 0.0477799 -0.132459
-0.0612391 -0.0230236 -0.128936
-0.074228 -0.0164239 -0.130715
-0.0712246 -0.0115824 -0.130015
-0.0571567 -0.00493113 -0.129047
-0.0541376 -0.00130584 -0.127815
-0.0582566 0.00062779 -0.130582
-0.0745652 0.00286045 -0.129101
-0.0540981 0.00636713 -0.128668
-0.0815751 0.0136124 -0.12852
-0.0664845 0.0341688 -0.129911
-0.0674137 -0.0270821 -0.124794
-0.0526475 -0.0260789 -0.126341
-0.0446611 -0.0162786 -0.124102
-0.0599545 -0.012862 -0.126537
-0.0636144 -0.00454487 -0.124491
-0.0499087 -0.00546344 -0.126433
-0.0454103 -0.00624503 -0.124932
-0.0709696 -0.00241725 -0.126869
-0.0894322 0.00173066 -0.125665
-0.0511542 0.00246282 -0.125148
-0.0477022 0.000467828 -0.126104
-0.0498226 0.00665995 -0.126812
-0.0505247 0.010976 -0.124927
-0.0801923 0.0157932 -0.124959
-0.0595739 0.0292832 -0.127342
-0.0888388 0.0723603 -0.126552
-0.0436916 -0.0283479 -0.121058
-0.0438579 -0.0221128 -0.122957
-0.0415226 -0.0151066 -0.121618
-0.0523845 -0.00650516 -0.122241
-0.0540167 -0.00187145 -0.121642
-0.0415239 -0.0037019 -0.121882
-0.0400614 0.000372006 -0.12275
-0.0348871 -0.000149413 -0.1207
-0.0410754 0.00424468 -0.121555
-0.0784689 0.00949149 -0.120936
-0.0418607 0.00826131 -0.121473
-0.0462855 0.0136698 -0.121256
-0.0414267 0.0129779 -0.120237
-0.0405022 0.0109295 -0.122709
-0.0845823 0.0142086 -0.121324
-0.0456525 0.0247896 -0.122586
-0.0574474 0.0566697 -0.120818
-0.064008 -0.0716075 -0.117232
-0.160453 -0.0436413 -0.12093
-0.0389585 -0.0306996 -0.119784
-0.0370004 -0.030021 -0.117321
-0.0365537 -0.0271595 -0.118676
-0.059674 -0.0176081 -0.117532
-0.0330683 -0.0182818 -0.118958
-0.0325985 -0.00947785 -0.117263
-0.0646367 -0.00569001 -0.117104
-0.0650732 -0.000507897 -0.118956
-0.0321292 0.00482501 -0.118395
-0.0736072 0.00833852 -0.118499
-0.0691538 0.00760121 -0.117993
-0.0600924 0.00984283 -0.117628
-0.0329118 0.00971719 -0.117703
-0.0728965 0.0119494 -0.118006
-0.0509947 0.0131926 -0.119579
-0.0342861 0.0136189 -0.117608
-0.1132 0.0139509 -0.119368
-0.0527792 0.0155027 -0.118349
-0.0414482 0.0202837 -0.119893
-0.0311622 0.0208923 -0.116911
-0.0485235 0.0300016 -0.116609
-0.0279195 -0.0303105 -0.115111
-0.0261651 -0.0260991 -0.112656
-0.0503837 -0.0209704 -0.114563
-0.0415203 -0.0184091 -0.115665
-0.0620142 -0.0121139 -0.115318
-0.0250586 -0.0125141 -0.115548
-0.085121 -0.00798301 -0.11707
-0.0675883 -0.00874634 -0.11554
-0.0646738 -0.00633214 -0.113705
-0.0316584 -0.00465163 -0.113973
-0.0207692 -0.00348978 -0.114456
-0.0439189 0.000801534 -0.113637
-0.0290895 0.000506834 -0.116153
-0.0261621 0.00257994 -0.112925
-0.0443268 0.00743189 -0.11623
-0.0252816 0.011264 -0.115162
-0.0271441 0.0193188 -0.115939
-0.0380526 0.0270723 -0.115608
-0.029712 0.0297136 -0.115436
-0.0346716 0.0315626 -0.114794
-0.0510446 -0.0360857 -0.111841
-0.0307408 -0.0190293 -0.112375
-0.0264161 -0.0170369 -0.110264
-0.0209226 -0.0171077 -0.111836
-0.0224601 -0.0103936 -0.113363
-0.0167283 -0.0103814 -0.111937
-0.0123453 -0.0110723 -0.109477
-0.0367938 -0.00899345 -0.11237
-0.0303387 -0.0102655 -0.110839
-0.0569873 -0.00330489 -0.110081
-0.0533015 -0.0011284 -0.111197
-0.0230796 -0.00166204 -0.109397
-0.0144159 -0.00315416 -0.111988
-0.0268702 0.00497648 -0.111369
-0.0511413 0.0122587 -0.111947
-0.0371094 0.0139565 -0.111914
-0.0554888 0.0143258 -0.113032
-0.0273827 0.015554 -0.113208
-0.017209 0.0195344 -0.110165
-0.0478964 0.0261652 -0.112443
-0.0215333 0.0247347 -0.111859
-0.0598297 0.0308917 -0.112243
-0.0193987 0.0290424 -0.111086
-0.0610301 -0.0891939 -0.105928
-0.0196571 -0.00676578 -0.113247
-0.030318 0.0147393 -0.110592
-0.0383077 0.0267679 -0.106791
-0.0214124 -0.017998 -0.104191
-0.0327585 -0.0131435 -0.103252
-0.0170652 -0.0127043 -0.108379
-0.0117318 -0.000620128 -0.105254
-0.0300845 0.0256603 -0.107159
-0.00996432 0.0246926 -0.105483
-0.0159775 0.0315227 -0.104804
-0.0284923 0.069396 -0.104111
-0.0155049 -0.0292268 -0.0987171
-0.0308827 0.00162734 -0.104586
-0.0228866 0.00168375 -0.103599
-0.00434932 0.00423497 -0.105308
-0.0261303 0.0118401 -0.101673
-0.0332323 0.0316676 -0.104768
-0.0108823 0.00232676 -0.10031
-0.0254282 0.00722567 -0.100859
-0.0346254 0.0108555 -0.0995947
-0.0184752 -0.00390867 -0.0960799
-0.0291592 -0.00156433 -0.0922486
-0.0256427 -0.0310174 -0.0902657
-0.00296015 -0.0125694 -0.0887353
-0.0101895 0.00506721 -0.089992
-0.00344499 0.0151299 -0.0897422
-0.027048 -0.0192107 -0.08614
-0.00876558 -0.0160351 -0.0873647
-0.00418171 -0.00389031 -0.0880838
-0.0316084 -0.0265255 -0.0828965
-0.0281016 0.00020127 -0.0822918
-0.00981587 0.00303905 -0.0807997
-0.0288083 0.00732997 -0.0801781
-0.0246424 0.00553727 -0.0773408
-0.0208274 -0.0341404 -0.073911
-0.0188893 -0.0213338 -0.071296
-0.0195242 0.01415 -0.0738529
-0.00987825 0.0266251 -0.0710356
-0.0107355 -0.0103339 -0.0677096
-0.032854 -0.0214325 -0.0648305
-0.0141191 -0.0144365 -0.0671033
-0.0118162 -0.00633589 -0.0663126
-0.0120408 0.00484626 -0.0638889
-0.0260976 0.00786627 -0.064166
-0.0129098 0.021507 -0.0637155
-0.000558622 0.0213939 -0.0609574
-0.0120659 -0.0232029 -0.0544843
-0.00974267 -0.0210328 -0.0563019
-0.0193603 0.00427373 -0.0533653
-0.0026782 0.0306845 -0.0565306
-0.031713 0.0319285 -0.0565953
-0.0275767 -0.00857811 -0.0502615
-0.0280975 0.0196597 -0.051192
-0.00304149 -0.022423 -0.0462628
-0.0341957 -0.0270523 -0.0434562
-0.00515441 -0.0109162 -0.0452952
-0.018318 0.00551713 -0.0457807
-0.0142719 0.0175582 -0.0446459
-0.0230158 -0.0063197 -0.0409758
-0.00209743 0.0155548 -0.039045
-0.0329214 -0.0245036 -0.0382477
-0.0230867 -0.0242912 -0.0357335
-0.00426265 -0.000462787 -0.0365007
-0.034337 0.00561382 -0.0371815
-0.0054599 0.0237214 -0.0384456
-0.0273791 5.52728e-05 -0.0324957
-0.00209585 0.021148 -0.0336619
-0.0183167 0.0119421 -0.0317051
-0.00205387 0.0243132 -0.0301267
-0.0258414 -0.0270694 -0.026951
-0.0323459 0.000933277 -0.0261449
-0.0191985 0.0336061 -0.0258096
-0.00977287 -0.0305241 -0.0228082
-0.0268897 0.0240704 -0.0222243
-0.00315638 -0.0234267 -0.0203661
-0.0266262 0.0180085 -0.0210981
-0.0251891 0.0274385 -0.0186771
-0.00858455 -0.00832622 -0.0162369
-0.00797106 0.00155248 -0.0173686
-0.029518 -0.0331169 -0.0125967
-0.00532413 -0.0141231 -0.0113747
-0.0184795 -0.0100183 -0.0126018
-0.00657095 0.00906157 -0.0128096
-0.0304883 0.0114791 -0.0134064
-0.0306529 0.0174599 -0.0115284
-0.0183571 0.0195956 -0.0136746
-0.0123384 -0.0127121 -0.00778071
-0.0315432 -0.000776551 -0.0101299
-0.00639582 -0.0194124 -0.00366144
-0.0349219 -0.0119867 -0.00538697
-0.0215522 -0.0242077 -0.00265734
-0.0349316 0.000809468 -0.00144894
-0.00832892 0.000607053 -0.00324776
-0.0302252 0.0258081 -0.00200604
-0.0220487 -0.00121585 0.000920686
-0.00390427 -0.00253676 0.00084317
-0.00538423 0.0015153 0.00335109
-0.00221027 -0.0230351 0.0089834
-0.0183398 -0.0154698 0.00912059
-0.00676706 -0.00372403 0.00877862
-0.0151336 0.0123986 0.00721651
-0.0275497 0.0283687 0.00894701
-0.0077538 -0.0326437 0.0132321
-0.0206177 -0.0299049 0.0115288
-0.00131466 -0.00968721 0.010926
-0.0233766 -0.00607507 0.0117726
-0.0173855 -0.000880817 0.0135861
-0.0182307 0.00855733 0.0139044
-0.0296317 0.0298979 0.0139553
-0.00558275 -0.00660585 0.0175901
-0.0271405 0.0119819 0.0174317
-0.0197987 0.018953 0.0151095
-0.00341211 -0.034738 0.0180798
-0.0208051 -0.0158491 0.020242
-0.0341798 -0.011198 0.0195713
-0.010257 0.0208697 0.0188303
-0.00399213 0.0184532 0.020695
-0.00452227 -0.00895877 0.0247071
-0.00154371 0.0315848 0.0216777
-0.0138788 -0.0115128 0.0258752
-0.0163368 0.0276055 0.0262485
-0.0293509 -0.033146 0.0319646
-0.0310951 -0.0211048 0.0289269
-0.0255212 -0.0188191 0.0289749
-0.0309382 -0.0143436 0.0285913
-0.0320071 -0.0281976 0.0333993
-0.0167287 0.0346143 0.0345461
-0.00861311 -0.032902 0.0373747
-0.0067008 -0.0244725 0.0374217
-0.0188515 -0.0128461 0.0385684
-0.0345167 0.0199359 0.0378948
-0.0197841 0.0271245 0.038357
-0.0102129 0.026364 0.0360742
-0.0253872 0.0292455 0.0367926
-0.0215899 -0.032029 0.0398949
-0.00353272 -0.0272708 0.0418673
-0.00986991 -0.0209412 0.040861
-0.000199364 0.0312143 0.0409918
-0.0216218 -0.0125549 0.0441226
-0.00957752 0.00477992 0.0457194
-0.0307277 0.0146238 0.044398
-0.0156564 0.0202325 0.0454419
-0.00135906 0.0258167 0.0432101
-0.0102718 -0.0251226 0.0496262
-0.00247583 -0.0265002 0.0498491
-0.0147423 -0.0238404 0.0498654
-0.0143365 -0.0207127 0.0494632
-0.030871 -0.0154504 0.0477145
-0.0129094 -0.00700653 0.0493481
-0.0109636 0.00917349 0.048268
-0.0277579 0.0221297 0.049762
-0.00105657 -0.0205112 0.0519206
-0.00025791 0.0157383 0.0518566
-0.0214542 0.0290903 0.0507434
-0.0298384 -0.0293729 0.0542847
-0.00282712 -0.0111117 0.053637
-0.011677 0.00513367 0.0535837
-0.000325902 0.0289653 0.0539706
-0.0337823 0.0338204 0.0559139
-0.0218405 0.0334821 0.0546695
-0.0127347 0.0169384 0.0587324
VERTICES 436 872
1 0
1 1
1 2
1 3
1 4
1 5
1 6
1 7
1 8
1 9
1 10
1 11
1 12
1 13
1 14
1 15
1 16
1 17
1 18
1 19
1 20
1 21
1 22
1 23
1 24
1 25
1 26
1 27
1 28
1 29
1 30
1 31
1 32
1 33
1 34
1 35
1 36
1 37
1 38
1 39
1 40
1 41
1 42
1 43
1 44
1 45
1 46
1 47
1 48
1 49
1 50
1 51
1 52
1 53
1 54
1 55
1 56
1 57
1 58
1 59
1 60
1 61
1 62
1 63
1 64
1 65
1 66
1 67
1 68
1 69
1 70
1 71
1 72
1 73
1 74
1 75
1 76
1 77
1 78
1 79
1 80
1 81
1 82
1 83
1 84
1 85
1 86
1 87
1 88
1 89
1 90
1 91
1 92
1 93
1 94
1 95
1 96
1 97
1 98
1 99
1 100
1 101
1 102
1 103
1 104
1 105
1 106
1 107
1 108
1 109
1 110
1 111
1 112
1 113
1 114
1 115
1 116
1 117
1 118
1 119
1 120
1 121
1 122
1 123
1 124
1 125
1 126
1 127
1 128
1 129
1 130
1 131
1 132
1 133
1 134
1 135
1 136
1 137
1 138
1 139
1 140
1 141
1 142
1 143
1 144
1 145
1 146
1 147
1 148
1 149
1 150
1 151
1 152
1 153
1 154
1 155
1 156
1 157
1 158
1 159
1 160
1 161
1 162
1 163
1 164
1 165
1 166
1 167
1 168
1 169
1 170
1 171
1 172
1 173
1 174
1 175
1 176
1 177
1 178
1 179
1 180
1 181
1 182
1 183
1 184
1 185
1 186
1 187
1 188
1 189
1 190
1 191
1 192
1 193
1 194
1 195
1 196
1 197
1 198
1 199
1 200
1 201
1 202
1 203
1 204
1 205
1 206
1 207
1 208
1 209
1 210
1 211
1 212
1 213
1 214
1 215
1 216
1 217
1 218
1 219
1 220
1 221
1 222
1 223
1 224
1 225
1 226
1 227
1 228
1 229
1 230
1 231
1 232
1 233
1 234
1 235
1 236
1 237
1 238
1 239
1 240
1 241
1 242
1 243
1 244
1 245
1 246
1 247
1 248
1 249
1 250
1 251
1 252
1 253
1 254
1 255
1 256
1 257
1 258
1 259
1 260
1 261
1 262
1 263
1 264
1 265
1 266
1 267
1 268
1 269
1 270
1 271
1 272
1 273
1 274
1 275
1 276
1 277
1 278
1 279
1 280
1 281
1 282
1 283
1 284
1 285
1 286
1 287
1 288
1 289
1 290
1 291
1 292
1 293
1 294
1 295
1 296
1 297
1 298
1 299
1 300
1 301
1 302
1 303
1 304
1 305
1 306
1 307
1 308
1 309
1 310
1 311
1 312
1 313
1 314
1 315
1 316
1 317
1 318
1 319
1 320
1 321
1 322
1 323
1 324
1 325
1 326
1 327
1 328
1 329
1 330
1 331
1 332
1 333
1 334
1 335
1 336
1 337
1 338
1 339
1 340
1 341
1 342
1 343
1 344
1 345
1 346
1 347
1 348
1 349
1 350
1 351
1 352
1 353
1 354
1 355
1 356
1 357
1 358
1 359
1 360
1 361
1 362
1 363
1 364
1 365
1 366
1 367
1 368
1 369
1 370
1 371
1 372
1 373
1 374
1 375
1 376
1 377
1 378
1 379
1 380
1 381
1 382
1 383
1 384
1 385
1 386
1 387
1 388
1 389
1 390
1 391
1 392
1 393
1 394
1 395
1 396
1 397
1 398
1 399
1 400
1 401
1 402
1 403
1 404
1 405
1 406
1 407
1 408
1 409
1 410
1 411
1 412
1 413
1 414
1 415
1 416
1 417
1 418
1 419
1 420
1 421
1 422
1 423
1 424
1 425
1 426
1 427
1 428
1 429
1 430
1 431
1 432
1 433
1 434
1 435
POINT_DATA 436
VECTORS i float
0.0 0.0 0.0
0.0 0.0 0.0
0.0 0.0 0.0
0.0 0.0 0.0
0.0 0.0 0.0
0.0 0.0 0.0
0.0 0.0 0.0
0.0 0.0 0.0
0.0 0.0 0.0
0.0 0.0 0.0
0.0 0.0 0.0
0.0 0.0 0.0
0.0 0.0 0.0
0.0 0.0 0.0
0.0 0.0 0.0
0.0 0.0 0.0
0.0 0.0 0.0
0.0 0.0 0.0
0.0 0.0 0.0
0.0 0.0 0.0
0.0 0.0 0.0
0.0 0.0 0.0
0.0 0.0 0.0
0.0 0.0 0.0
0.0 0.0 0.0
0.0 0.0 0.0
0.0 0.0 0.0
0.0 0.0 0.0
0.0 0.0 0.0
0.0 0.0 0.0
0.0 0.0 0.0
0.0 0.0 0.0
0.0 0.0 0.0
0.0 0.0 0.0
0.0 0.0 0.0
0.0 0.0 0.0
0.0 0.0 0.0
0.0 0.0 0.0
0.0 0.0 0.0
0.0 0.0 0.0
0.0 0.0 0.0
0.0 0.0 0.0
0.0 0.0 0.0
0.0 0.0 0.0
0.0 0.0 0.0
0.0 0.0 0.0
0.0 0.0 0.0
0.0 0.0 0.0
0.0 0.0 0.0
0.0 0.0 0.0
0.0 0.0 0.0
0.0 0.0 0.0
0.0 0.0 0.0
0.0 0.0 0.0
0.0 0.0 0.0
0.0 0.0 0.0
0.0 0.0 0.0
0.0 0.0 0.0
0.0 0.0 0.0
0.0 0.0 0.0
0.0 0.0 0.0
0.0 0.0 0.0
0.0 0.0 0.0
0.0 0.0 0.0
0.0 0.0 0.0
0.0 0.0 0.0
0.0 0.0 0.0
0.0 0.0 0.0
0.0 0.0 0.0
0.0 0.0 0.0
0.0 0.0 0.0
0.0 0.0 0.0
0.0 0.0 0.0
0.0 0.0 0.0
0.0 0.0 0.0
0.0 0.0 0.0
0.0 0.0 0.0
0.0 0.0 0.0
0.0 0.0 0.0
0.0 0.0 0.0
0.0 0.0 0.0
0.0 0.0 0.0
0.0 0.0 0.0
0.0 0.0 0.0
0.0 0.0 0.0
0.0 0.0 0.0
0.0 0.0 0.0
0.0 0.0 0.0
0.0 0.0 0.0
0.0 0.0 0.0
0.0 0.0 0.0
0.0 0.0 0.0
0.0 0.0 0.0
0.0 0.0 0.0
0.0 0.0 0.0
0.0 0.0 0.0
0.0 0.0 0.0
0.0 0.0 0.0
0.0 0.0 0.0
0.0 0.0 0.0
0.0 0.0 0.0
0.0 0.0 0.0
0.0 0.0 0.0
0.0 0.0 0.0
0.0 0.0 0.0
0.0 0.0 0.0
0.0 0.0 0.0
0.0 0.0 0.0
0.0 0.0 0.0
0.0 0.0 0.0
0.0 0.0 0.0
0.0 0.0 0.0
0.0 0.0 0.0
0.0 0.0 0.0
0.0 0.0 0.0
0.0 0.0 0.0
0.0 0.0 0.0
0.0 0.0 0.0
0.0 0.0 0.0
0.0 0.0 0.0
0.0 0.0 0.0
0.0 0.0 0.0
0.0 0.0 0.0
0.0 0.0 0.0
0.0 0.0 0.0
0.0 0.0 0.0
0.0 0.0 0.0
0.0 0.0 0.0
0.0 0.0 0.0
0.0 0.0 0.0
0.0 0.0 0.0
0.0 0.0 0.0
0.0 0.0 0.0
0.0 0.0 0.0
0.0 0.0 0.0
0.0 0.0 0.0
0.0 0.0 0.0
0.0 0.0 0.0
0.0 0.0 0.0
0.0 0.0 0.0
0.0 0.0 0.0
0.0 0.0 0.0
0.0 0.0 0.0
0.0 0.0 0.0
0.0 0.0 0.0
0.0 0.0 0.0
0.0 0.0 0.0
0.0 0.0 0.0
0.0 0.0 0.0
0.0 0.0 0.0
0.0 0.0 0.0
0.0 0.0 0.0
0.0 0.0 0.0
0.0 0.0 0.0
0.0 0.0 0.0
0.0 0.0 0.0
0.0 0.0 0.0
0.0 0.0 0.0
0.0 0.0 0.0
0.0 0.0 0.0
0.0 0.0 0.0
0.0 0.0 0.0
0.0 0.0 0.0
0.0 0.0 0.0
0.0 0.0 0.0
0.0 0.0 0.0
0.0 0.0 0.0
0.0 0.0 0.0
0.0 0.0 0.0
0.0 0.0 0.0
0.0 0.0 0.0
0.0 0.0 0.0
0.0 0.0 0.0
0.0 0.0 0.0
0.0 0.0 0.0
0.0 0.0 0.0
0.0 0.0 0.0
0.0 0.0 0.0
0.0 0.0 0.0
0.0 0.0 0.0
0.0 0.0 0.0
0.0 0.0 0.0
0.0 0.0 0.0
0.0 0.0 0.0
0.0 0.0 0.0
0.0 0.0 0.0
0.0 0.0 0.0
0.0 0.0 0.0
0.0 0.0 0.0
0.0 0.0 0.0
0.0 0.0 0.0
0.0 0.0 0.0
0.0 0.0 0.0
0.0 0.0 0.0
0.0 0.0 0.0
0.0 0.0 0.0
0.0 0.0 0.0
0.0 0.0 0.0
0.0 0.0 0.0
0.0 0.0 0.0
0.0 0.0 0.0
0.0 0.0 0.0
0.0 0.0 0.0
0.0 0.0 0.0
0.0 0.0 0.0
0.0 0.0 0.0
0.0 0.0 0.0
0.0 0.0 0.0
0.0 0.0 0.0
0.0 0.0 0.0
0.0 0.0 0.0
0.0 0.0 0.0
0.0 0.0 0.0
0.0 0.0 0.0
0.0 0.0 0.0
0.0 0.0 0.0
0.0 0.0 0.0
0.0 0.0 0.0
0.0 0.0 0.0
0.0 0.0 0.0
0.0 0.0 0.0
0.0 0.0 0.0
0.0 0.0 0.0
0.0 0.0 0.0
0.0 0.0 0.0
0.0 0.0 0.0
0.0 0.0 0.0
0.0 0.0 0.0
0.0 0.0 0.0
0.0 0.0 0.0
0.0 0.0 0.0
0.0 0.0 0.0
0.0 0.0 0.0
0.0 0.0 0.0
0.0 0.0 0.0
0.0 0.0 0.0
0.0 0.0 0.0
0.0 0.0 0.0
0.0 0.0 0.0
0.0 0.0 0.0
0.0 0.0 0.0
0.0 0.0 0.0
0.0 0.0 0.0
0.0 0.0 0.0
0.0 0.0 0.0
0.0 0.0 0.0
0.0 0.0 0.0
0.0 0.0 0.0
0.0 0.0 0.0
0.0 0.0 0.0
0.0 0.0 0.0
0.0 0.0 0.0
0.0 0.0 0.0
0.0 0.0 0.0
0.0 0.0 0.0
0.0 0.0 0.0
0.0 0.0 0.0
0.0 0.0 0.0
0.0 0.0 0.0
0.0 0.0 0.0
0.0 0.0 0.0
0.0 0.0 0.0
0.0 0.0 0.0
0.0 0.0 0.0
0.0 0.0 0.0
0.0 0.0 0.0
0.0 0.0 0.0
0.0 0.0 0.0
0.0 0.0 0.0
0.0 0.0 0.0
0.0 0.0 0.0
0.0 0.0 0.0
0.0 0.0 0.0
0.0 0.0 0.0
0.0 0.0 0.0
0.0 0.0 0.0
0.0 0.0 0.0
0.0 0.0 0.0
0.0 0.0 0.0
0.0 0.0 0.0
0.0 0.0 0.0
0.0 0.0 0.0
0.0 0.0 0.0
0.0 0.0 0.0
0.0 0.0 0.0
0.0 0.0 0.0
0.0 0.0 0.0
0.0 0.0 0.0
0.0 0.0 0.0
0.0 0.0 0.0
0.0 0.0 0.0
0.0 0.0 0.0
0.0 0.0 0.0
0.0 0.0 0.0
0.0 0.0 0.0
0.0 0.0 0.0
0.0 0.0 0.0
0.0 0.0 0.0
0.0 0.0 0.0
0.0 0.0 0.0
0.0 0.0 0.0
0.0 0.0 0.0
0.0 0.0 0.0
0.0 0.0 0.0
0.0 0.0 0.0
0.0 0.0 0.0
0.0 0.0 0.0
0.0 0.0 0.0
0.0 0.0 0.0
0.0 0.0 0.0
0.0 0.0 0.0
0.0 0.0 0.0
0.0 0.0 0.0
0.0 0.0 0.0
0.0 0.0 0.0
0.0 0.0 0.0
0.0 0.0 0.0
0.0 0.0 0.0
0.0 0.0 0.0
0.0 0.0 0.0
0.0 0.0 0.0
0.0 0.0 0.0
0.0 0.0 0.0
0.0 0.0 0.0
0.0 0.0 0.0
0.0 0.0 0.0
0.0 0.0 0.0
0.0 0.0 0.0
0.0 0.0 0.0
0.0 0.0 0.0
0.0 0.0 0.0
0.0 0.0 0.0
0.0 0.0 0.0
0.0 0.0 0.0
0.0 0.0 0.0
0.0 0.0 0.0
0.0 0.0 0.0
0.0 0.0 0.0
0.0 0.0 0.0
0.0 0.0 0.0
0.0 0.0 0.0
0.0 0.0 0.0
0.0 0.0 0.0
0.0 0.0 0.0
0.0 0.0 0.0
0.0 0.0 0.0
0.0 0.0 0.0
0.0 0.0 0.0
0.0 0.0 0.0
0.0 0.0 0.0
0.0 0.0 0.0
0.0 0.0 0.0
0.0 0.0 0.0
0.0 0.0 0.0
0.0 0.0 0.0
0.0 0.0 0.0
0.0 0.0 0.0
0.0 0.0 0.0
0.0 0.0 0.0
0.0 0.0 0.0
0.0 0.0 0.0
0.0 0.0 0.0
0.0 0.0 0.0
0.0 0.0 0.0
0.0 0.0 0.0
0.0 0.0 0.0
0.0 0.0 0.0
0.0 0.0 0.0
0.0 0.0 0.0
0.0 0.0 0.0
0.0 0.0 0.0
0.0 0.0 0.0
0.0 0.0 0.0
0.0 0.0 0.0
0.0 0.0 0.0
0.0 0.0 0.0
0.0 0.0 0.0
0.0 0.0 0.0
0.0 0.0 0.0
0.0 0.0 0.0
0.0 0.0 0.0
0.0 0.0 0.0
0.0 0.0 0.0
0.0 0.0 0.0
0.0 0.0 0.0
0.0 0.0 0.0
0.0 0.0 0.0
0.0 0.0 0.0
0.0 0.0 0.0
0.0 0.0 0.0
0.0 0.0 0.0
0.0 0.0 0.0
0.0 0.0 0.0
0.0 0.0 0.0
0.0 0.0 0.0
0.0 0.0 0.0
0.0 0.0 0.0
0.0 0.0 0.0
0.0 0.0 0.0
0.0 0.0 0.0
0.0 0.0 0.0
0.0 0.0 0.0
0.0 0.0 0.0
0.0 0.0 0.0
0.0 0.0 0.0
0.0 0.0 0.0
0.0 0.0 0.0
0.0 0.0 0.0
0.0 0.0 0.0
0.0 0.0 0.0
0.0 0.0 0.0
0.0 0.0 0.0
0.0 0.0 0.0
0.0 0.0 0.0
0.0 0.0 0.0
0.0 0.0 0.0
0.0 0.0 0.0
0.0 0.0 0.0
0.0 0.0 0.0
0.0 0.0 0.0
0.0 0.0 0.0
0.0 0.0 0.0
0.0 0.0 0.0
0.0 0.0 0.0
0.0 0.0 0.0
0.0 0.0 0.0
0.0 0.0 0.0
0.0 0.0 0.0
0.0 0.0 0.0
0.0 0.0 0.0
0.0 0.0 0.0
0.0 0.0 0.0
0.0 0.0 0.0
0.0 0.0 0.0
0.0 0.0 0.0
0.0 0.0 0.0
VECTORS f float
0.0 0.0 -0.000346714
1.08626e-05 2.84923e-06 -0.000245001
-0.00265983 0.000618768 0.00567855
-0.000151525 3.17413e-05 5.64006e-05
3.89689e-06 2.02922e-06 -0.000830256
-8.47741e-05 -4.68163e-05 -4.14684e-05
2.59532e-05 -1.5795e-05 -0.000234802
-9.08524e-05 3.70763e-07 -3.61002e-05
-8.8577e-05 -2.2447e-05 -4.01565e-05
0.0 0.0 -0.000346714
0.0 0.0 -0.000346714
-0.000409267 0.000104768 -0.000145756
-8.77439e-05 1.41473e-06 -3.65363e-05
-8.36597e-05 -4.21753e-05 -4.87497e-05
-8.73387e-05 2.51685e-05 -3.61674e-05
-8.95921e-05 3.15347e-06 -3.8604e-05
-0.000161101 0.00014249 -0.000265466
-8.65338e-05 1.3952e-06 -3.75571e-05
-1.3831e-05 -2.7725e-06 -0.000145994
-2.6034e-05 -8.03562e-06 -0.000117759
0.0 0.0 -0.000346714
-2.86116e-05 4.03797e-05 -8.07829e-05
-6.4725e-05 1.62072e-06 -0.000105849
0.0 0.0 -0.000346714
-8.81002e-05 3.95916e-06 -3.70864e-05
-0.000405872 -8.74421e-05 -0.000173542
-8.82034e-05 -1.89068e-05 -3.72145e-05
-7.95884e-05 -6.4689e-05 -5.44679e-05
-0.00042041 8.25827e-05 -0.000162654
9.09358e-05 -4.86658e-05 -0.000662835
-0.000402181 -7.89404e-05 -0.000184293
-0.000937698 -0.000462259 0.000789448
-8.83829e-05 -8.3928e-05 1.93578e-05
0.0 0.0 -0.00160516
2.92202e-05 -3.54746e-05 -0.00123225
-7.71059e-05 2.32528e-05 -6.74888e-05
-8.71818e-05 1.60304e-05 -3.73834e-05
0.0 0.0 -0.000346714
-8.14682e-05 -1.72024e-05 -4.73325e-05
1.66023e-05 3.09619e-05 2.09908e-05
-8.59328e-05 -3.9486e-05 -4.36329e-05
-0.000193868 2.59979e-05 -0.000797056
0.0 0.0 -0.00160516
-6.36288e-06 -2.66798e-06 -0.000164281
-0.000325461 -0.000151761 -0.000322443
-0.000713743 0.000681813 5.37714e-05
0.0 0.0 -0.000346714
0.0 0.0 -0.000346714
-8.57456e-05 -2.38543e-05 -3.77433e-05
-0.000408934 -0.000199446 -0.000119461
0.0 0.0 -0.000346714
-0.000564766 0.000209786 -0.000243395
0.0 0.0 -0.000346714
1.98577e-05 7.38167e-05 2.49462e-05
-0.000686111 0.000107194 0.000388307
0.000130486 0.000481997 0.00142705
0.000841045 0.000476905 -0.00154168
0.0 0.0 -0.000346714
0.0 0.0 -0.00160516
0.0 0.0 -0.000346714
0.0 0.0 -0.000346714
-0.000400556 9.05669e-05 -0.000177858
0.0 0.0 -0.000346714
1.93267e-05 -2.66638e-06 -6.6317e-05
0.0 0.0 -0.00160516
0.0 0.0 -0.000346714
0.0 0.0 -0.000346714
-0.000376626 -4.3847e-05 -0.000292016
-9.05617e-05 -1.06383e-05 -3.87999e-05
1.37308e-05 4.70686e-06 -0.000276872
-8.49983e-05 -2.95535e-05 -3.87548e-05
-0.0004071 6.74336e-05 -0.000175514
0.0 0.0 -0.000346714
0.0 0.0 -0.000346714
-0.000417816 7.18682e-06 0.000516067
0.0 0.0 -0.000346714
0.0 0.0 -0.00160516
-0.00344179 0.00387434 0.00348034
-0.000170857 -0.00046222 0.000340846
-5.59187e-05 -8.30404e-05 -9.44329e-05
-8.61782e-05 2.84259e-05 -4.11797e-05
-0.000100845 3.19271e-05 -1.78943e-05
0.0 0.0 -0.000346714
0.0 0.0 -0.00160516
0.0 0.0 -0.000346714
0.0 0.0 -0.00160516
0.0030783 -0.0099997 0.0111129
0.0 0.0 -0.000346714
0.0 0.0 -0.000346714
0.0 0.0 -0.000346714
-5.14409e-05 0.00011771 -9.43774e-05
0.0 0.0 -0.000346714
0.0 0.0 -0.000346714
0.0 0.0 -0.00160516
0.0 0.0 -0.00160516
0.0 0.0 -0.000346714
0.0 0.0 -0.000346714
-0.000406709 -7.32517e-05 -0.000173502
-8.86054e-05 -1.60345e-05 -3.88441e-05
-8.55261e-05 4.35899e-05 -4.07011e-05
0.0 0.0 -0.000346714
-0.000393595 0.000124057 -0.000209354
7.05324e-05 -4.37514e-05 0.000116888
0.0 0.0 -0.00160516
0.0 0.0 -0.00160516
0.0 0.0 -0.00160516
-8.83343e-05 -1.21846e-06 -3.69837e-05
0.0 0.0 -0.00160516
0.0 0.0 -0.00160516
-9.5769e-05 -2.05725e-06 -2.26639e-05
-8.71976e-05 -1.90062e-06 -3.95782e-05
-0.000407549 -7.9942e-05 -0.00017178
0.0 0.0 -0.000346714
0.0 0.0 -0.00160516
-0.000106286 4.9935e-05 3.8022e-05
-8.89876e-05 1.17727e-05 -3.78747e-05
0.0 0.0 -0.00160516
-0.000279938 -4.67164e-06 -0.000577099
0.0 0.0 -0.000346714
-0.000289048 -5.88183e-05 -0.000529948
0.0 0.0 -0.00160516
-8.97662e-05 -1.76273e-05 -3.28696e-05
1.7723e-05 -6.98869e-05 1.68004e-06
-0.000291343 -0.000110745 -0.00041371
-0.000752748 -0.000289341 0.000799185
0.0 0.0 -0.000346714
-0.000627838 0.000305312 0.000288952
-8.51107e-05 4.11985e-05 -4.48169e-05
1.67994e-05 -1.34356e-05 -0.00120409
0.0 0.0 -0.000346714
0.0 0.0 -0.000346714
-0.000411355 4.80283e-05 -0.000176977
8.67198e-05 -0.00126679 0.00382473
0.0 0.0 -0.000346714
0.0 0.0 -0.00160516
0.0 0.0 -0.000346714
0.0 0.0 -0.00160516
-7.69649e-05 -2.86475e-05 -6.74448e-05
0.0 0.0 -0.000346714
-0.000387092 -0.000226229 -0.000215201
-0.000366073 -0.000300941 -0.000250859
-7.30375e-05 7.9223e-05 -6.21828e-05
0.0 0.0 -0.00160516
0.0 0.0 -0.000346714
0.0 0.0 -0.00160516
-0.000955365 0.00185949 0.00170639
0.0 0.0 -0.00160516
-0.000391222 -1.73511e-05 -0.00021099
0.0 0.0 -0.000346714
0.0 0.0 -0.000346714
0.0 0.0 -0.000346714
0.0 0.0 -0.000346714
-8.8419e-05 -1.8799e-05 -3.92209e-05
-8.31404e-05 -3.2114e-05 -5.58366e-05
0.0 0.0 -0.00160516
0.0 0.0 -0.000346714
-0.000398762 0.000188055 -0.000193458
-8.7154e-05 2.42699e-05 -3.9297e-05
-8.83524e-05 9.87716e-06 -3.72922e-05
-8.66997e-05 9.65575e-06 -4.19204e-05
0.0 0.0 -0.000346714
0.0 0.0 -0.000346714
0.000108192 1.73983e-05 6.95853e-05
0.0 0.0 -0.000346714
0.0 0.0 -0.000346714
0.0 0.0 -0.00160516
0.0 0.0 -0.000346714
0.0 0.0 -0.000346714
0.0 0.0 -0.000346714
-0.000414733 -2.39985e-05 -0.000157866
-8.84112e-05 -5.11295e-06 -3.72974e-05
0.0 0.0 -0.00160516
-8.99954e-05 -6.9608e-06 -3.91234e-05
0.0 0.0 -0.000346714
0.0 0.0 -0.000346714
0.0 0.0 -0.000346714
-4.68942e-05 1.35172e-05 -0.000113511
4.54205e-05 0.00010902 0.000345268
0.0 0.0 -0.000346714
0.0 0.0 -0.00160516
0.0 0.0 -0.000346714
0.0 0.0 -0.000346714
0.0 0.0 -0.000346714
0.0 0.0 -0.000346714
0.0 0.0 -0.000346714
0.0 0.0 -0.000346714
-9.64639e-05 -7.51175e-06 -2.43803e-05
0.0 0.0 -0.00160516
0.0 0.0 -0.00160516
0.0 0.0 -0.00160516
-6.40584e-05 -9.72472e-05 -7.83976e-05
0.0 0.0 -0.00160516
0.0 0.0 -0.000346714
0.0 0.0 -0.00160516
0.0317259 -0.18663 0.00826358
-0.0317259 0.18663 -0.0114739
0.0 0.0 -0.00160516
0.0 0.0 -0.000346714
-8.20921e-05 5.43352e-06 -4.71931e-05
0.0 0.0 -0.00160516
0.0 0.0 -0.000346714
0.0 0.0 -0.000346714
0.0 0.0 -0.00160516
0.0 0.0 -0.000346714
0.0 0.0 -0.000346714
0.0 0.0 -0.000346714
0.0 0.0 -0.000346714
-8.05562e-05 -7.71635e-05 -4.0747e-05
0.0 0.0 -0.000346714
0.0 0.0 -0.000346714
-0.000139536 6.21974e-05 6.22109e-05
0.0 0.0 -0.000346714
0.0 0.0 -0.000346714
0.0 0.0 -0.000346714
1.04303e-05 9.39953e-05 -5.79847e-06
0.0 0.0 -0.000346714
0.0 0.0 -0.000346714
0.0 0.0 -0.000346714
0.0 0.0 -0.00160516
0.0 0.0 -0.000346714
0.0 0.0 -0.000346714
0.0 0.0 -0.00160516
0.0 0.0 -0.000346714
0.0 0.0 -0.000346714
0.0 0.0 -0.000346714
0.0 0.0 -0.000346714
0.0 0.0 -0.000346714
0.0 0.0 -0.000346714
0.0 0.0 -0.00160516
-0.000757157 -0.000228538 0.000573671
0.0 0.0 -0.000346714
0.0 0.0 -0.000346714
0.0 0.0 -0.000346714
0.0 0.0 -0.000346714
0.0 0.0 -0.000346714
0.0 0.0 -0.00160516
0.0 0.0 -0.000346714
0.0 0.0 -0.000346714
0.0 0.0 -0.00160516
0.0 0.0 -0.000346714
0.0 0.0 -0.000346714
0.0 0.0 -0.000346714
0.0 0.0 -0.000346714
0.0 0.0 -0.000346714
-0.00279196 0.00843582 -3.5364e-05
0.0 0.0 -0.000346714
0.0 0.0 -0.00160516
0.0 0.0 -0.000346714
0.0 0.0 -0.000346714
0.0 0.0 -0.000346714
0.0 0.0 -0.000346714
0.0 0.0 -0.000346714
0.0 0.0 -0.000346714
0.0 0.0 -0.00160516
0.0 0.0 -0.00160516
0.0 0.0 -0.00160516
0.0 0.0 -0.000346714
0.0 0.0 -0.00160516
0.0 0.0 -0.000346714
0.0 0.0 -0.00160516
0.0 0.0 -0.00160516
0.0 0.0 -0.000346714
0.0 0.0 -0.000346714
0.0 0.0 -0.000346714
0.00279196 -0.00843582 -0.000658064
0.0 0.0 -0.000346714
0.0 0.0 -0.000346714
0.0 0.0 -0.000346714
0.0 0.0 -0.000346714
0.0 0.0 -0.000346714
0.0 0.0 -0.000346714
0.0 0.0 -0.00160516
0.0 0.0 -0.000346714
0.0 0.0 -0.000346714
-0.000162791 0.000351308 0.000169707
0.0 0.0 -0.000346714
0.0 0.0 -0.00160516
0.0 0.0 -0.00160516
0.0 0.0 -0.00160516
0.0 0.0 -0.00160516
0.0 0.0 -0.00160516
0.0 0.0 -0.000346714
0.0 0.0 -0.000346714
0.0 0.0 -0.00160516
0.0 0.0 -0.000346714
-7.63685e-05 -7.79712e-05 -6.54177e-05
0.0 0.0 -0.00160516
0.0 0.0 -0.000346714
0.0 0.0 -0.00160516
0.0 0.0 -0.000346714
0.0 0.0 -0.000346714
0.0 0.0 -0.000346714
0.0 0.0 -0.000346714
0.0 0.0 -0.00160516
0.0 0.0 -0.00160516
0.0 0.0 -0.000346714
0.0 0.0 -0.000346714
0.0 0.0 -0.000346714
0.0 0.0 -0.00160516
0.0 0.0 -0.00160516
0.0 0.0 -0.000346714
0.0 0.0 -0.000346714
0.0 0.0 -0.000346714
0.0 0.0 -0.000346714
0.0 0.0 -0.00160516
0.0 0.0 -0.000346714
0.0 0.0 -0.00160516
0.0 0.0 -0.000346714
0.0 0.0 -0.00160516
0.0 0.0 -0.000346714