# vtk DataFile Version 2.0
Generated by lpp.py
ASCII
DATASET POLYDATA
POINTS 820 float
-0.0206166 0.0320566 0.0513125
-0.00634163 0.0316746 0.0512035
-0.00147471 -0.0110741 0.0538942
-0.0317967 -0.0161815 0.0511089
-0.0178852 -0.0324242 0.0518841
-0.00692483 -0.0173467 0.0508693
-0.0277006 0.0341602 0.0441946
-0.0324139 0.0194186 0.0505354
-0.0347095 -0.00362356 0.0475087
-0.452825 -0.00590193 -0.39559
-0.482713 -0.00153985 -0.396375
-0.443401 0.0016981 -0.394654
-0.437909 0.00639882 -0.394188
-0.461825 -0.0190085 -0.392501
-0.412416 -0.0192221 -0.393538
-0.477328 -0.00903668 -0.392176
-0.471073 -0.00710024 -0.390054
-0.463808 -0.00819888 -0.389584
-0.461864 -0.00515825 -0.387556
-0.469546 -0.000834335 -0.387854
-0.464143 0.0191407 -0.386999
-0.469708 0.00862793 -0.384099
-0.468387 0.0150307 -0.382744
-0.454959 0.00346592 -0.378264
-0.45941 0.0152125 -0.377536
-0.451726 0.0148599 -0.376379
-0.467007 0.019115 -0.378441
-0.470033 -0.00199291 -0.371534
-0.445102 -0.0105096 -0.367478
-0.454221 -0.00375332 -0.370224
-0.449267 -0.0248575 -0.364551
-0.437653 -0.0139612 -0.365132
-0.443262 0.00915836 -0.36503
-0.453486 0.0225992 -0.364338
-0.468572 0.0285044 -0.365718
-0.484479 -0.0301338 -0.362567
-0.441209 -0.0125092 -0.360607
-0.436679 -0.00668198 -0.362684
-0.455856 0.000940776 -0.363615
-0.474834 -0.00691504 -0.356139
-0.431955 0.00473433 -0.353092
-0.443172 0.0135914 -0.34967
-0.433972 -0.0196618 -0.346213
-0.433217 -0.0031061 -0.348539
-0.435024 0.00302691 -0.345644
-0.442449 0.0249543 -0.34664
-0.445768 -0.0319137 -0.345187
-0.428316 0.000129582 -0.341295
-0.459534 0.0272358 -0.344002
-0.440484 -0.0073293 -0.341455
-0.431602 0.00731379 -0.338382
-0.451334 0.0542847 -0.340465
-0.440494 -0.0124625 -0.335967
-0.43055 0.00129538 -0.336773
-0.421665 -0.0203534 -0.334015
-0.422593 -0.0040703 -0.331318
-0.427437 -0.0120083 -0.327747
-0.430021 -0.0010847 -0.330151
-0.433613 -0.0245049 -0.323389
-0.414161 -0.018266 -0.324852
-0.422247 -0.0434969 -0.319589
-0.413559 -0.015197 -0.320653
-0.418979 -0.00579996 -0.321529
-0.420688 0.00545701 -0.322623
-0.419284 0.0146742 -0.32153
-0.404938 -0.00961286 -0.315434
-0.418785 0.0199247 -0.317099
-0.421571 0.0410418 -0.319745
-0.425689 -0.0280195 -0.316341
-0.401577 -0.000246634 -0.314825
-0.410636 0.00537779 -0.31342
-0.401981 -0.00772843 -0.308533
-0.403448 0.00457966 -0.31004
-0.399661 0.00721958 -0.305176
-0.407247 -0.0304111 -0.303781
-0.379427 -0.0166077 -0.302164
-0.387601 -0.00824369 -0.300215
-0.400208 -0.00394074 -0.301714
-0.386147 -0.00510083 -0.30138
-0.407747 -0.00148686 -0.301133
-0.395034 0.0240788 -0.301285
-0.398213 -0.000889842 -0.298794
-0.387659 0.0127589 -0.301225
-0.397067 -0.0192456 -0.296368
-0.397824 -0.00604137 -0.295192
-0.391969 -0.00370015 -0.293308
-0.396318 0.00121109 -0.292782
-0.391171 0.00167412 -0.293466
-0.392648 0.0151547 -0.296053
-0.384447 -0.00473972 -0.29037
-0.388707 0.00362608 -0.290727
-0.393214 0.00709386 -0.292424
-0.397764 -0.0303905 -0.287456
-0.376369 -0.0235018 -0.288654
-0.382887 -0.00842718 -0.286213
-0.376569 0.00092461 -0.288686
-0.390148 0.0162341 -0.288849
-0.387624 0.0136113 -0.286917
-0.394001 -0.0245348 -0.283393
-0.38663 -0.0194358 -0.281672
-0.384596 -0.0155935 -0.284196
-0.379782 -0.00534062 -0.283119
-0.384287 -0.00306479 -0.282034
-0.393951 -1.22512e-05 -0.284583
-0.387686 -0.0150157 -0.27945
-0.393103 -0.0107962 -0.280064
-0.386813 -0.00882791 -0.27992
-0.376952 -0.00881241 -0.278318
-0.379699 -0.00381397 -0.278685
-0.370917 -0.00427596 -0.278367
-0.368095 -0.00101942 -0.277732
-0.363752 0.00248192 -0.277893
-0.396004 0.0125573 -0.27921
-0.371839 0.00634344 -0.275765
-0.374683 0.0160212 -0.274571
-0.385302 0.0181853 -0.274729
-0.382426 0.0238811 -0.275494
-0.381693 -0.0242841 -0.272869
-0.372481 -0.0100818 -0.272572
-0.35807 0.000631097 -0.272188
-0.368284 0.0089855 -0.272961
-0.371085 0.0126251 -0.273639
-0.364859 0.0211332 -0.272073
-0.367626 -0.0210097 -0.267427
-0.365491 -0.0173108 -0.267241
-0.363396 -0.00912675 -0.267372
-0.360591 -0.00302059 -0.267116
-0.357899 0.00438681 -0.267475
-0.360835 0.0100222 -0.266507
-0.368024 0.012254 -0.269788
-0.364168 0.0151143 -0.268018
-0.374842 0.0300892 -0.267854
-0.390226 0.0490637 -0.269546
-0.364386 -0.0189162 -0.263127
-0.357909 -0.0151885 -0.264505
-0.359497 -0.0113629 -0.264388
-0.36003 -0.00730629 -0.26564
-0.357026 -0.00495311 -0.265165
-0.350478 -0.00282144 -0.263993
-0.358736 0.000454132 -0.264519
-0.354381 0.00834322 -0.263227
-0.358774 0.0119505 -0.265457
-0.360996 0.0143653 -0.266154
-0.357632 0.0173895 -0.266162
-0.352414 0.0130558 -0.265482
-0.366718 0.022446 -0.262681
-0.359508 -0.0201042 -0.261136
-0.358336 -0.0153086 -0.258026
-0.350728 -0.00642544 -0.25972
-0.363408 0.000276516 -0.261736
-0.358512 -0.00343185 -0.259805
-0.355077 -0.00180603 -0.260546
-0.355061 0.00322196 -0.261941
-0.357874 0.0138577 -0.261876
-0.359652 0.0115417 -0.259473
-0.355134 0.0133837 -0.258565
-0.361097 0.0154518 -0.258999
-0.365089 0.0272626 -0.262878
-0.358463 0.0266696 -0.259239
-0.351174 -0.0187005 -0.257971
-0.353328 -0.00835997 -0.256085
-0.350565 -0.0043446 -0.254271
-0.358535 0.0016173 -0.256673
-0.353432 0.002126 -0.256596
-0.361054 0.00591402 -0.253864
-0.349586 0.00540864 -0.256598
-0.347476 0.00844835 -0.258019
-0.352445 0.0164546 -0.258201
-0.350301 -0.0164588 -0.254043
-0.346885 -0.0154266 -0.251366
-0.343031 0.00236155 -0.251638
-0.338977 0.00557884 -0.252291
-0.340345 0.00849754 -0.250774
-0.350859 0.0113542 -0.253589
-0.344216 0.0139076 -0.251569
-0.348725 0.0154013 -0.254553
-0.352428 0.0174562 -0.253931
-0.349252 0.0199806 -0.253546
-0.345399 0.0179519 -0.252126
-0.340462 -0.013795 -0.250114
-0.338852 -0.00909593 -0.249258
-0.331754 -6.9939e-05 -0.24648
-0.336525 0.0156702 -0.247633
-0.337936 -0.0166277 -0.246725
-0.343988 -0.00137012 -0.247001
-0.327942 0.000849871 -0.244544
-0.34167 0.00517187 -0.246628
-0.330172 0.00310497 -0.245484
-0.329342 0.00763845 -0.24563
-0.32618 0.00839528 -0.243498
-0.32915 0.0115066 -0.24449
-0.326443 0.0117982 -0.243268
-0.327596 0.0192503 -0.24236
-0.322045 -0.0172326 -0.240304
-0.319153 0.00303628 -0.240528
-0.321208 0.00587083 -0.241159
-0.323766 0.00721481 -0.242096
-0.323473 0.0125676 -0.240364
-0.31921 0.0126679 -0.239943
-0.333788 -0.0354577 -0.24069
-0.324798 -0.0268416 -0.23828
-0.311801 -0.00471087 -0.23745
-0.312929 0.00113051 -0.236941
-0.314256 0.00609584 -0.237187
-0.308103 0.00404349 -0.235809
-0.307383 0.00693395 -0.235323
-0.311407 0.00999327 -0.235742
-0.315418 0.0107054 -0.23847
-0.342416 0.017172 -0.236994
-0.318341 0.0168235 -0.238817
-0.314212 0.0148715 -0.236372
-0.310038 -0.0109602 -0.235079
-0.30509 -0.00142587 -0.233651
-0.301985 0.00645725 -0.233077
-0.320047 0.0327218 -0.235437
-0.302052 -0.0255392 -0.230174
-0.295304 -0.0139628 -0.229713
-0.297937 -0.00935789 -0.230236
-0.291052 -0.00680375 -0.228625
-0.294715 -0.000907614 -0.230373
-0.296241 0.00295717 -0.229791
-0.291751 0.000494695 -0.228055
-0.290831 0.00471179 -0.228485
-0.297679 0.00848406 -0.230047
-0.292844 0.00718117 -0.229176
-0.293406 -0.0187021 -0.227096
-0.28633 -0.0159268 -0.225727
-0.28454 -0.0122626 -0.225373
-0.28623 -0.00582168 -0.226624
-0.282198 -0.00357923 -0.225001
-0.289137 0.00611989 -0.22645
-0.283762 0.00517952 -0.225472
-0.285786 0.0151988 -0.22555
-0.28947 0.0192463 -0.226326
-0.285421 -0.0206743 -0.22449
-0.276225 -0.0160975 -0.221464
-0.27818 -0.00676103 -0.223198
-0.276383 0.000125432 -0.22267
-0.27875 0.00368926 -0.223454
-0.280406 0.0158291 -0.222034
-0.288643 0.030034 -0.222183
-0.271029 -0.0225077 -0.218143
-0.27087 0.00043931 -0.220329
-0.267085 0.00199272 -0.218636
-0.267897 0.00617576 -0.217686
-0.27318 0.0239612 -0.218748
-0.279214 0.0260378 -0.220718
-0.281439 0.0285316 -0.221021
-0.281108 0.0378176 -0.218084
-0.261564 -0.0137977 -0.215553
-0.261167 -0.00088856 -0.216243
-0.261613 0.00777593 -0.216054
-0.26875 0.0225555 -0.217167
-0.291383 0.0498209 -0.216739
-0.252037 -0.018501 -0.210845
-0.258497 -0.00968806 -0.21365
-0.252898 -0.0074658 -0.211343
-0.252797 0.00596858 -0.211341
-0.255874 0.0071484 -0.213664
-0.256816 0.0114738 -0.212785
-0.254411 0.0149224 -0.212343
-0.259992 0.0222949 -0.213564
-0.257547 0.0266102 -0.211634
-0.266772 0.0320122 -0.212847
-0.269499 -0.0489311 -0.208498
-0.258517 -0.0344899 -0.20875
-0.244874 -0.0218964 -0.207276
-0.241663 -0.0107792 -0.207481
-0.240855 -0.007913 -0.206844
-0.246047 -0.00133045 -0.209856
-0.242927 -0.00220677 -0.208503
-0.259893 0.00280816 -0.211537
-0.248986 0.00149805 -0.209905
-0.243341 0.000993725 -0.208624
-0.244887 0.00472659 -0.209138
-0.248262 0.0115647 -0.209162
-0.259412 0.0371118 -0.208417
-0.246356 -0.0275785 -0.206743
-0.239421 -0.0131185 -0.20472
-0.237524 -0.00337383 -0.206199
-0.235225 -0.00396551 -0.202979
-0.251365 -0.00320985 -0.209019
-0.234516 -0.000270604 -0.204937
-0.250515 0.002299 -0.203239
-0.240157 0.000139809 -0.206215
-0.231568 0.00376609 -0.203572
-0.272261 0.0149784 -0.206683
-0.25008 0.0218309 -0.208246
-0.259795 0.0455395 -0.206265
-0.230846 -0.0133794 -0.202616
-0.223979 -0.0114222 -0.199853
-0.232554 -0.00974686 -0.202522
-0.228824 0.00387024 -0.202192
-0.225862 0.00445054 -0.20111
-0.232516 -0.0329569 -0.198688
-0.226597 -0.0293914 -0.198072
-0.221897 -0.0245702 -0.19712
-0.227754 -0.021705 -0.199071
-0.223405 -0.0213048 -0.19847
-0.22335 -0.0155094 -0.199214
-0.218706 -0.0158053 -0.197228
-0.237516 -0.0123133 -0.200523
-0.223762 -0.00724701 -0.199048
-0.218621 -0.00872342 -0.19784
-0.215535 -0.00587718 -0.19682
-0.21837 -0.00205989 -0.198094
-0.220558 0.000614882 -0.198973
-0.246944 0.00645484 -0.202325
-0.223945 0.00944789 -0.199118
-0.220357 0.0133317 -0.196998
-0.222191 0.0166777 -0.198576
-0.220704 0.0203199 -0.197496
-0.233855 0.0334659 -0.198954
-0.238241 0.0486264 -0.196449
-0.218173 -0.0196327 -0.195536
-0.20992 -0.0176542 -0.193299
-0.214462 -0.013996 -0.195625
-0.211263 -0.0137592 -0.193191
-0.209446 -0.0102033 -0.193873
-0.212926 -0.0078207 -0.194478
-0.207735 -0.00683518 -0.192402
[...]
POINT_DATA 820
VECTORS i float
0.0 0.0 0.0
0.0 0.0 0.0
0.0 0.0 0.0
0.0 0.0 0.0
0.0 0.0 0.0
0.0 0.0 0.0
0.0 0.0 0.0
0.0 0.0 0.0
0.0 0.0 0.0
0.0 0.0 0.0
0.0 0.0 0.0
0.0 0.0 0.0
0.0 0.0 0.0
0.0 0.0 0.0
0.0 0.0 0.0
0.0 0.0 0.0
0.0 0.0 0.0
0.0 0.0 0.0
0.0 0.0 0.0
0.0 0.0 0.0
0.0 0.0 0.0
0.0 0.0 0.0
0.0 0.0 0.0
0.0 0.0 0.0
0.0 0.0 0.0
0.0 0.0 0.0
0.0 0.0 0.0
0.0 0.0 0.0
0.0 0.0 0.0
0.0 0.0 0.0
0.0 0.0 0.0
0.0 0.0 0.0
0.0 0.0 0.0
0.0 0.0 0.0
0.0 0.0 0.0
0.0 0.0 0.0
0.0 0.0 0.0
0.0 0.0 0.0
0.0 0.0 0.0
0.0 0.0 0.0
0.0 0.0 0.0
0.0 0.0 0.0
0.0 0.0 0.0
0.0 0.0 0.0
0.0 0.0 0.0
0.0 0.0 0.0
0.0 0.0 0.0
0.0 0.0 0.0
0.0 0.0 0.0
0.0 0.0 0.0
0.0 0.0 0.0
0.0 0.0 0.0
0.0 0.0 0.0
0.0 0.0 0.0
0.0 0.0 0.0
0.0 0.0 0.0
0.0 0.0 0.0
0.0 0.0 0.0
0.0 0.0 0.0
0.0 0.0 0.0
0.0 0.0 0.0
0.0 0.0 0.0
0.0 0.0 0.0
0.0 0.0 0.0
0.0 0.0 0.0
0.0 0.0 0.0
0.0 0.0 0.0
0.0 0.0 0.0
0.0 0.0 0.0
0.0 0.0 0.0
0.0 0.0 0.0
0.0 0.0 0.0
0.0 0.0 0.0
0.0 0.0 0.0
0.0 0.0 0.0
0.0 0.0 0.0
0.0 0.0 0.0
0.0 0.0 0.0
0.0 0.0 0.0
0.0 0.0 0.0
0.0 0.0 0.0
0.0 0.0 0.0
0.0 0.0 0.0
0.0 0.0 0.0
0.0 0.0 0.0
0.0 0.0 0.0
0.0 0.0 0.0
0.0 0.0 0.0
0.0 0.0 0.0
0.0 0.0 0.0
0.0 0.0 0.0
0.0 0.0 0.0
0.0 0.0 0.0
0.0 0.0 0.0
0.0 0.0 0.0
0.0 0.0 0.0
0.0 0.0 0.0
0.0 0.0 0.0
0.0 0.0 0.0
0.0 0.0 0.0
0.0 0.0 0.0
0.0 0.0 0.0
0.0 0.0 0.0
0.0 0.0 0.0
0.0 0.0 0.0
0.0 0.0 0.0
0.0 0.0 0.0
0.0 0.0 0.0
0.0 0.0 0.0
0.0 0.0 0.0
0.0 0.0 0.0
0.0 0.0 0.0
0.0 0.0 0.0
0.0 0.0 0.0
0.0 0.0 0.0
0.0 0.0 0.0
0.0 0.0 0.0
0.0 0.0 0.0
0.0 0.0 0.0
0.0 0.0 0.0
0.0 0.0 0.0
0.0 0.0 0.0
0.0 0.0 0.0
0.0 0.0 0.0
0.0 0.0 0.0
0.0 0.0 0.0
0.0 0.0 0.0
0.0 0.0 0.0
0.0 0.0 0.0
0.0 0.0 0.0
0.0 0.0 0.0
0.0 0.0 0.0
0.0 0.0 0.0
0.0 0.0 0.0
0.0 0.0 0.0
0.0 0.0 0.0
0.0 0.0 0.0
0.0 0.0 0.0
0.0 0.0 0.0
0.0 0.0 0.0
0.0 0.0 0.0
0.0 0.0 0.0
0.0 0.0 0.0
0.0 0.0 0.0
0.0 0.0 0.0
0.0 0.0 0.0
0.0 0.0 0.0
0.0 0.0 0.0
0.0 0.0 0.0
0.0 0.0 0.0
0.0 0.0 0.0
0.0 0.0 0.0
0.0 0.0 0.0
0.0 0.0 0.0
0.0 0.0 0.0
0.0 0.0 0.0
0.0 0.0 0.0
0.0 0.0 0.0
0.0 0.0 0.0
0.0 0.0 0.0
0.0 0.0 0.0
0.0 0.0 0.0
0.0 0.0 0.0
0.0 0.0 0.0
0.0 0.0 0.0
0.0 0.0 0.0
0.0 0.0 0.0
0.0 0.0 0.0
0.0 0.0 0.0
0.0 0.0 0.0
0.0 0.0 0.0
0.0 0.0 0.0
0.0 0.0 0.0
0.0 0.0 0.0
0.0 0.0 0.0
0.0 0.0 0.0
0.0 0.0 0.0
0.0 0.0 0.0
0.0 0.0 0.0
0.0 0.0 0.0
0.0 0.0 0.0
0.0 0.0 0.0
0.0 0.0 0.0
0.0 0.0 0.0
0.0 0.0 0.0
0.0 0.0 0.0
0.0 0.0 0.0
0.0 0.0 0.0
0.0 0.0 0.0
0.0 0.0 0.0
0.0 0.0 0.0
0.0 0.0 0.0
0.0 0.0 0.0
0.0 0.0 0.0
0.0 0.0 0.0
0.0 0.0 0.0
0.0 0.0 0.0
0.0 0.0 0.0
0.0 0.0 0.0
0.0 0.0 0.0
0.0 0.0 0.0
0.0 0.0 0.0
0.0 0.0 0.0
0.0 0.0 0.0
0.0 0.0 0.0
0.0 0.0 0.0
0.0 0.0 0.0
0.0 0.0 0.0
0.0 0.0 0.0
0.0 0.0 0.0
0.0 0.0 0.0
0.0 0.0 0.0
0.0 0.0 0.0
0.0 0.0 0.0
0.0 0.0 0.0
0.0 0.0 0.0
0.0 0.0 0.0
0.0 0.0 0.0
0.0 0.0 0.0
0.0 0.0 0.0
0.0 0.0 0.0
0.0 0.0 0.0
0.0 0.0 0.0
0.0 0.0 0.0
0.0 0.0 0.0
0.0 0.0 0.0
0.0 0.0 0.0
0.0 0.0 0.0
0.0 0.0 0.0
0.0 0.0 0.0
0.0 0.0 0.0
0.0 0.0 0.0
0.0 0.0 0.0
0.0 0.0 0.0
0.0 0.0 0.0
0.0 0.0 0.0
0.0 0.0 0.0
0.0 0.0 0.0
0.0 0.0 0.0
0.0 0.0 0.0
0.0 0.0 0.0
0.0 0.0 0.0
0.0 0.0 0.0
0.0 0.0 0.0
0.0 0.0 0.0
0.0 0.0 0.0
0.0 0.0 0.0
0.0 0.0 0.0
0.0 0.0 0.0
0.0 0.0 0.0
0.0 0.0 0.0
0.0 0.0 0.0
0.0 0.0 0.0
0.0 0.0 0.0
0.0 0.0 0.0
0.0 0.0 0.0
0.0 0.0 0.0
0.0 0.0 0.0
0.0 0.0 0.0
0.0 0.0 0.0
0.0 0.0 0.0
0.0 0.0 0.0
0.0 0.0 0.0
0.0 0.0 0.0
0.0 0.0 0.0
0.0 0.0 0.0
0.0 0.0 0.0
0.0 0.0 0.0
0.0 0.0 0.0
0.0 0.0 0.0
0.0 0.0 0.0
0.0 0.0 0.0
0.0 0.0 0.0
0.0 0.0 0.0
0.0 0.0 0.0
0.0 0.0 0.0
0.0 0.0 0.0
0.0 0.0 0.0
0.0 0.0 0.0
0.0 0.0 0.0
0.0 0.0 0.0
0.0 0.0 0.0
0.0 0.0 0.0
0.0 0.0 0.0
0.0 0.0 0.0
0.0 0.0 0.0
0.0 0.0 0.0
0.0 0.0 0.0
0.0 0.0 0.0
0.0 0.0 0.0
0.0 0.0 0.0
0.0 0.0 0.0
0.0 0.0 0.0
0.0 0.0 0.0
0.0 0.0 0.0
0.0 0.0 0.0
0.0 0.0 0.0
0.0 0.0 0.0
0.0 0.0 0.0
0.0 0.0 0.0
0.0 0.0 0.0
0.0 0.0 0.0
0.0 0.0 0.0
0.0 0.0 0.0
0.0 0.0 0.0
0.0 0.0 0.0
0.0 0.0 0.0
0.0 0.0 0.0
0.0 0.0 0.0
0.0 0.0 0.0
0.0 0.0 0.0
0.0 0.0 0.0
0.0 0.0 0.0
0.0 0.0 0.0
0.0 0.0 0.0
0.0 0.0 0.0
0.0 0.0 0.0
0.0 0.0 0.0
0.0 0.0 0.0
0.0 0.0 0.0
0.0 0.0 0.0
0.0 0.0 0.0
0.0 0.0 0.0
0.0 0.0 0.0
0.0 0.0 0.0
0.0 0.0 0.0
0.0 0.0 0.0
0.0 0.0 0.0
0.0 0.0 0.0
0.0 0.0 0.0
0.0 0.0 0.0
0.0 0.0 0.0
0.0 0.0 0.0
0.0 0.0 0.0
0.0 0.0 0.0
0.0 0.0 0.0
0.0 0.0 0.0
0.0 0.0 0.0
0.0 0.0 0.0
0.0 0.0 0.0
0.0 0.0 0.0
0.0 0.0 0.0
0.0 0.0 0.0
0.0 0.0 0.0
0.0 0.0 0.0
0.0 0.0 0.0
0.0 0.0 0.0
0.0 0.0 0.0
0.0 0.0 0.0
0.0 0.0 0.0
0.0 0.0 0.0
0.0 0.0 0.0
0.0 0.0 0.0
0.0 0.0 0.0
0.0 0.0 0.0
0.0 0.0 0.0
0.0 0.0 0.0
0.0 0.0 0.0
0.0 0.0 0.0
0.0 0.0 0.0
0.0 0.0 0.0
0.0 0.0 0.0
0.0 0.0 0.0
0.0 0.0 0.0
0.0 0.0 0.0
0.0 0.0 0.0
0.0 0.0 0.0
0.0 0.0 0.0
0.0 0.0 0.0
0.0 0.0 0.0
0.0 0.0 0.0
0.0 0.0 0.0
0.0 0.0 0.0
0.0 0.0 0.0
0.0 0.0 0.0
0.0 0.0 0.0
0.0 0.0 0.0
0.0 0.0 0.0
0.0 0.0 0.0
0.0 0.0 0.0
0.0 0.0 0.0
0.0 0.0 0.0
0.0 0.0 0.0
0.0 0.0 0.0
0.0 0.0 0.0
0.0 0.0 0.0
0.0 0.0 0.0
0.0 0.0 0.0
0.0 0.0 0.0
0.0 0.0 0.0
0.0 0.0 0.0
0.0 0.0 0.0
0.0 0.0 0.0
0.0 0.0 0.0
0.0 0.0 0.0
0.0 0.0 0.0
0.0 0.0 0.0
0.0 0.0 0.0
0.0 0.0 0.0
0.0 0.0 0.0
0.0 0.0 0.0
0.0 0.0 0.0
0.0 0.0 0.0
0.0 0.0 0.0
0.0 0.0 0.0
0.0 0.0 0.0
0.0 0.0 0.0
0.0 0.0 0.0
0.0 0.0 0.0
0.0 0.0 0.0
0.0 0.0 0.0
0.0 0.0 0.0
0.0 0.0 0.0
0.0 0.0 0.0
0.0 0.0 0.0
0.0 0.0 0.0
0.0 0.0 0.0
0.0 0.0 0.0
0.0 0.0 0.0
0.0 0.0 0.0
0.0 0.0 0.0
0.0 0.0 0.0
0.0 0.0 0.0
0.0 0.0 0.0
0.0 0.0 0.0
0.0 0.0 0.0
0.0 0.0 0.0
0.0 0.0 0.0
0.0 0.0 0.0
0.0 0.0 0.0
0.0 0.0 0.0
0.0 0.0 0.0
0.0 0.0 0.0
0.0 0.0 0.0
0.0 0.0 0.0
0.0 0.0 0.0
0.0 0.0 0.0
0.0 0.0 0.0
0.0 0.0 0.0
0.0 0.0 0.0
0.0 0.0 0.0
0.0 0.0 0.0
0.0 0.0 0.0
0.0 0.0 0.0
0.0 0.0 0.0
0.0 0.0 0.0
0.0 0.0 0.0
0.0 0.0 0.0
0.0 0.0 0.0
0.0 0.0 0.0
0.0 0.0 0.0
0.0 0.0 0.0
0.0 0.0 0.0
0.0 0.0 0.0
0.0 0.0 0.0
0.0 0.0 0.0
0.0 0.0 0.0
0.0 0.0 0.0
0.0 0.0 0.0
0.0 0.0 0.0
0.0 0.0 0.0
0.0 0.0 0.0
0.0 0.0 0.0
0.0 0.0 0.0
0.0 0.0 0.0
0.0 0.0 0.0
0.0 0.0 0.0
0.0 0.0 0.0
0.0 0.0 0.0
0.0 0.0 0.0
0.0 0.0 0.0
0.0 0.0 0.0
0.0 0.0 0.0
0.0 0.0 0.0
0.0 0.0 0.0
0.0 0.0 0.0
0.0 0.0 0.0
0.0 0.0 0.0
0.0 0.0 0.0
0.0 0.0 0.0
0.0 0.0 0.0
0.0 0.0 0.0
0.0 0.0 0.0
0.0 0.0 0.0
0.0 0.0 0.0
0.0 0.0 0.0
0.0 0.0 0.0
0.0 0.0 0.0
0.0 0.0 0.0
0.0 0.0 0.0
0.0 0.0 0.0
0.0 0.0 0.0
0.0 0.0 0.0
0.0 0.0 0.0
0.0 0.0 0.0
0.0 0.0 0.0
0.0 0.0 0.0
0.0 0.0 0.0
0.0 0.0 0.0
0.0 0.0 0.0
0.0 0.0 0.0
0.0 0.0 0.0
0.0 0.0 0.0
0.0 0.0 0.0
0.0 0.0 0.0
0.0 0.0 0.0
0.0 0.0 0.0
0.0 0.0 0.0
0.0 0.0 0.0
0.0 0.0 0.0
0.0 0.0 0.0
0.0 0.0 0.0
0.0 0.0 0.0
0.0 0.0 0.0
0.0 0.0 0.0
0.0 0.0 0.0
0.0 0.0 0.0
0.0 0.0 0.0
0.0 0.0 0.0
0.0 0.0 0.0
0.0 0.0 0.0
0.0 0.0 0.0
0.0 0.0 0.0
0.0 0.0 0.0
0.0 0.0 0.0
0.0 0.0 0.0
0.0 0.0 0.0
0.0 0.0 0.0
0.0 0.0 0.0
0.0 0.0 0.0
0.0 0.0 0.0
0.0 0.0 0.0
0.0 0.0 0.0
0.0 0.0 0.0
0.0 0.0 0.0
0.0 0.0 0.0
0.0 0.0 0.0
0.0 0.0 0.0
0.0 0.0 0.0
0.0 0.0 0.0
0.0 0.0 0.0
0.0 0.0 0.0
0.0 0.0 0.0
0.0 0.0 0.0
0.0 0.0 0.0
0.0 0.0 0.0
0.0 0.0 0.0
0.0 0.0 0.0
0.0 0.0 0.0
0.0 0.0 0.0
0.0 0.0 0.0
0.0 0.0 0.0
0.0 0.0 0.0
0.0 0.0 0.0
0.0 0.0 0.0
0.0 0.0 0.0
0.0 0.0 0.0
0.0 0.0 0.0
0.0 0.0 0.0
0.0 0.0 0.0
0.0 0.0 0.0
0.0 0.0 0.0
0.0 0.0 0.0
0.0 0.0 0.0
0.0 0.0 0.0
0.0 0.0 0.0
0.0 0.0 0.0
0.0 0.0 0.0
0.0 0.0 0.0
0.0 0.0 0.0
0.0 0.0 0.0
0.0 0.0 0.0
0.0 0.0 0.0
0.0 0.0 0.0
0.0 0.0 0.0
0.0 0.0 0.0
0.0 0.0 0.0
0.0 0.0 0.0
0.0 0.0 0.0
0.0 0.0 0.0
0.0 0.0 0.0
0.0 0.0 0.0
0.0 0.0 0.0
0.0 0.0 0.0
0.0 0.0 0.0
0.0 0.0 0.0
0.0 0.0 0.0
0.0 0.0 0.0
0.0 0.0 0.0
0.0 0.0 0.0
0.0 0.0 0.0
0.0 0.0 0.0
0.0 0.0 0.0
0.0 0.0 0.0
0.0 0.0 0.0
0.0 0.0 0.0
0.0 0.0 0.0
0.0 0.0 0.0
0.0 0.0 0.0
0.0 0.0 0.0
0.0 0.0 0.0
0.0 0.0 0.0
0.0 0.0 0.0
0.0 0.0 0.0
0.0 0.0 0.0
0.0 0.0 0.0
0.0 0.0 0.0
0.0 0.0 0.0
0.0 0.0 0.0
0.0 0.0 0.0
0.0 0.0 0.0
0.0 0.0 0.0
0.0 0.0 0.0
0.0 0.0 0.0
0.0 0.0 0.0
0.0 0.0 0.0
0.0 0.0 0.0
0.0 0.0 0.0
0.0 0.0 0.0
0.0 0.0 0.0
0.0 0.0 0.0
0.0 0.0 0.0
0.0 0.0 0.0
0.0 0.0 0.0
0.0 0.0 0.0
0.0 0.0 0.0
0.0 0.0 0.0
0.0 0.0 0.0
0.0 0.0 0.0
0.0 0.0 0.0
0.0 0.0 0.0
0.0 0.0 0.0
0.0 0.0 0.0
0.0 0.0 0.0
0.0 0.0 0.0
0.0 0.0 0.0
0.0 0.0 0.0
0.0 0.0 0.0
0.0 0.0 0.0
0.0 0.0 0.0
0.0 0.0 0.0
0.0 0.0 0.0
0.0 0.0 0.0
0.0 0.0 0.0
0.0 0.0 0.0
0.0 0.0 0.0
0.0 0.0 0.0
0.0 0.0 0.0
0.0 0.0 0.0
0.0 0.0 0.0
0.0 0.0 0.0
0.0 0.0 0.0
0.0 0.0 0.0
0.0 0.0 0.0
0.0 0.0 0.0
0.0 0.0 0.0
0.0 0.0 0.0
0.0 0.0 0.0
0.0 0.0 0.0
0.0 0.0 0.0
0.0 0.0 0.0
0.0 0.0 0.0
0.0 0.0 0.0
0.0 0.0 0.0
0.0 0.0 0.0
0.0 0.0 0.0
0.0 0.0 0.0
0.0 0.0 0.0
0.0 0.0 0.0
0.0 0.0 0.0
0.0 0.0 0.0
0.0 0.0 0.0
0.0 0.0 0.0
0.0 0.0 0.0
0.0 0.0 0.0
0.0 0.0 0.0
0.0 0.0 0.0
0.0 0.0 0.0
0.0 0.0 0.0
0.0 0.0 0.0
0.0 0.0 0.0
0.0 0.0 0.0
0.0 0.0 0.0
0.0 0.0 0.0
0.0 0.0 0.0
0.0 0.0 0.0
0.0 0.0 0.0
0.0 0.0 0.0
0.0 0.0 0.0
0.0 0.0 0.0
0.0 0.0 0.0
0.0 0.0 0.0
0.0 0.0 0.0
0.0 0.0 0.0
0.0 0.0 0.0
0.0 0.0 0.0
0.0 0.0 0.0
0.0 0.0 0.0
0.0 0.0 0.0
0.0 0.0 0.0
0.0 0.0 0.0
0.0 0.0 0.0
0.0 0.0 0.0
0.0 0.0 0.0
0.0 0.0 0.0
0.0 0.0 0.0
0.0 0.0 0.0
0.0 0.0 0.0
0.0 0.0 0.0
0.0 0.0 0.0
0.0 0.0 0.0
0.0 0.0 0.0
0.0 0.0 0.0
0.0 0.0 0.0
0.0 0.0 0.0
0.0 0.0 0.0
0.0 0.0 0.0
0.0 0.0 0.0
0.0 0.0 0.0
0.0 0.0 0.0
0.0 0.0 0.0
0.0 0.0 0.0
0.0 0.0 0.0
0.0 0.0 0.0
0.0 0.0 0.0
0.0 0.0 0.0
0.0 0.0 0.0
0.0 0.0 0.0
0.0 0.0 0.0
0.0 0.0 0.0
0.0 0.0 0.0
0.0 0.0 0.0
0.0 0.0 0.0
0.0 0.0 0.0
0.0 0.0 0.0
0.0 0.0 0.0
0.0 0.0 0.0
0.0 0.0 0.0
0.0 0.0 0.0
0.0 0.0 0.0
0.0 0.0 0.0
0.0 0.0 0.0
0.0 0.0 0.0
0.0 0.0 0.0
0.0 0.0 0.0
0.0 0.0 0.0
0.0 0.0 0.0
0.0 0.0 0.0
0.0 0.0 0.0
0.0 0.0 0.0
0.0 0.0 0.0
0.0 0.0 0.0
0.0 0.0 0.0
0.0 0.0 0.0
0.0 0.0 0.0
0.0 0.0 0.0
0.0 0.0 0.0
0.0 0.0 0.0
0.0 0.0 0.0
0.0 0.0 0.0
0.0 0.0 0.0
0.0 0.0 0.0
0.0 0.0 0.0
0.0 0.0 0.0
0.0 0.0 0.0
0.0 0.0 0.0
0.0 0.0 0.0
0.0 0.0 0.0
0.0 0.0 0.0
0.0 0.0 0.0
0.0 0.0 0.0
0.0 0.0 0.0
0.0 0.0 0.0
0.0 0.0 0.0
0.0 0.0 0.0
0.0 0.0 0.0
0.0 0.0 0.0
0.0 0.0 0.0
0.0 0.0 0.0
0.0 0.0 0.0
0.0 0.0 0.0
0.0 0.0 0.0
0.0 0.0 0.0
0.0 0.0 0.0
0.0 0.0 0.0
0.0 0.0 0.0
0.0 0.0 0.0
0.0 0.0 0.0
0.0 0.0 0.0
0.0 0.0 0.0
0.0 0.0 0.0
0.0 0.0 0.0
0.0 0.0 0.0
0.0 0.0 0.0
0.0 0.0 0.0
0.0 0.0 0.0
0.0 0.0 0.0
0.0 0.0 0.0
0.0 0.0 0.0
0.0 0.0 0.0
0.0 0.0 0.0
0.0 0.0 0.0
0.0 0.0 0.0
0.0 0.0 0.0
0.0 0.0 0.0
0.0 0.0 0.0
0.0 0.0 0.0
0.0 0.0 0.0
0.0 0.0 0.0
0.0 0.0 0.0
0.0 0.0 0.0
0.0 0.0 0.0
0.0 0.0 0.0
0.0 0.0 0.0
0.0 0.0 0.0
0.0 0.0 0.0
0.0 0.0 0.0
0.0 0.0 0.0
0.0 0.0 0.0
0.0 0.0 0.0
VECTORS f float
0.0 0.0 0.0
0.0 0.0 0.0
0.0 0.0 0.0
0.0 0.0 0.0
0.0 0.0 0.0
0.0 0.0 0.0
0.0 0.0 -0.000346714
0.0 0.0 0.0
0.0 0.0 -0.000346714
0.0 0.0 -0.000346714
0.0 0.0 -0.00160516
0.0 0.0 -0.00160516
0.0 0.0 -0.000346714
0.0 0.0 -0.00160516
0.0 0.0 -0.000346714
0.0 0.0 -0.00160516
0.0 0.0 -0.000346714
0.0 0.0 -0.000346714
0.0 0.0 -0.000346714
0.0 0.0 -0.000346714
0.0 0.0 -0.000346714
0.0 0.0 -0.00160516
0.0 0.0 -0.00160516
0.0 0.0 -0.00160516
0.0 0.0 -0.000346714
0.0 0.0 -0.00160516
0.0 0.0 -0.00160516
0.0 0.0 -0.000346714
0.0 0.0 -0.000346714
0.0 0.0 -0.000346714
0.0 0.0 -0.00160516
0.0 0.0 -0.000346714
0.0 0.0 -0.00160516
0.0 0.0 -0.000346714
0.0 0.0 -0.00160516
0.0 0.0 -0.000346714
0.0 0.0 -0.00160516
0.0 0.0 -0.00160516
0.0 0.0 -0.000346714
0.0 0.0 -0.00160516
0.0 0.0 -0.00160516
0.0 0.0 -0.00160516
0.0 0.0 -0.000346714
0.0 0.0 -0.000346714
0.0 0.0 -0.00160516
0.0 0.0 -0.000346714
0.0 0.0 -0.000346714
0.0 0.0 -0.000346714
0.0 0.0 -0.00160516
0.0 0.0 -0.00160516
0.0 0.0 -0.000346714
0.0 0.0 -0.000346714
0.0 0.0 -0.00160516
0.0 0.0 -0.00160516
0.0 0.0 -0.00160516
0.0 0.0 -0.00160516
0.0 0.0 -0.000346714
0.0 0.0 -0.000346714
0.0 0.0 -0.000346714
0.0 0.0 -0.000346714
0.0 0.0 -0.000346714
0.0 0.0 -0.00160516
0.0 0.0 -0.000346714
0.0 0.0 -0.00160516
0.0 0.0 -0.000346714
0.0 0.0 -0.000346714
0.0 0.0 -0.000346714
0.0 0.0 -0.000346714
0.0 0.0 -0.000346714
0.0 0.0 -0.000346714
0.0 0.0 -0.00160516
0.0 0.0 -0.00160516
0.0 0.0 -0.00160516
0.0 0.0 -0.00160516
0.0 0.0 -0.00160516
0.0 0.0 -0.000346714
0.0 0.0 -0.000346714
0.0 0.0 -0.00160516
0.0 0.0 -0.000346714
0.0 0.0 -0.00160516
0.0 0.0 -0.00160516
0.0 0.0 -0.000346714
0.0 0.0 -0.000346714
0.0 0.0 -0.000346714
0.0 0.0 -0.00160516
0.0 0.0 -0.000346714
0.0 0.0 -0.000346714
0.0 0.0 -0.000346714
0.0 0.0 -0.000346714
0.0 0.0 -0.000346714
0.0 0.0 -0.00160516
0.0 0.0 -0.000346714
0.0 0.0 -0.000346714
0.0 0.0 -0.000346714
0.0 0.0 -0.00160516
0.0 0.0 -0.000346714
0.0 0.0 -0.000346714
0.0 0.0 -0.00160516
0.0 0.0 -0.000346714
0.0 0.0 -0.000346714
0.0 0.0 -0.00160516
0.0 0.0 -0.000346714
0.0 0.0 -0.000346714
0.0 0.0 -0.000346714
0.0 0.0 -0.000346714
0.0 0.0 -0.000346714
0.0 0.0 -0.00160516
0.0 0.0 -0.000346714
0.0 0.0 -0.00160516
0.0 0.0 -0.000346714
0.0 0.0 -0.000346714
0.0 0.0 -0.000346714
0.0 0.0 -0.000346714
0.0 0.0 -0.00160516
0.0 0.0 -0.000346714
0.0 0.0 -0.000346714
0.0 0.0 -0.000346714
0.0 0.0 -0.000346714
0.0 0.0 -0.00160516
0.0 0.0 -0.000346714
0.0 0.0 -0.000346714
0.0 0.0 -0.000346714
0.0 0.0 -0.000346714
0.0 0.0 -0.000346714
0.0 0.0 -0.000346714
0.0 0.0 -0.00160516
0.0 0.0 -0.00160516
0.0 0.0 -0.000346714
0.0 0.0 -0.000346714
0.0 0.0 -0.00160516
0.0 0.0 -0.000346714
0.0 0.0 -0.000346714
0.0 0.0 -0.00160516
0.0 0.0 -0.00160516
0.0 0.0 -0.000346714
0.0 0.0 -0.00160516
0.0 0.0 -0.000346714
0.0 0.0 -0.000346714
0.0 0.0 -0.000346714
0.0 0.0 -0.000346714
0.0 0.0 -0.00160516
0.0 0.0 -0.000346714
0.0 0.0 -0.000346714
0.0 0.0 -0.000346714
0.0 0.0 -0.000346714
0.0 0.0 -0.00160516
0.0 0.0 -0.000346714
0.0 0.0 -0.000346714
0.0 0.0 -0.000346714
0.0 0.0 -0.00160516
0.0 0.0 -0.000346714
0.0 0.0 -0.000346714
0.0 0.0 -0.00160516
0.0 0.0 -0.000346714
0.0 0.0 -0.000346714
0.0 0.0 -0.00160516
0.0 0.0 -0.00160516
0.0 0.0 -0.000346714
0.0 0.0 -0.000346714
0.0 0.0 -0.000346714
0.0 0.0 -0.00160516
0.0 0.0 -0.00160516
0.0 0.0 -0.000346714
0.0 0.0 -0.00160516
0.0 0.0 -0.000346714
0.0 0.0 -0.000346714
0.0 0.0 -0.000346714
0.0 0.0 -0.000346714
0.0 0.0 -0.000346714
0.0 0.0 -0.00160516
0.0 0.0 -0.00160516
0.0 0.0 -0.000346714
0.0 0.0 -0.000346714
0.0 0.0 -0.00160516
0.0 0.0 -0.00160516
0.0 0.0 -0.000346714
0.0 0.0 -0.00160516
0.0 0.0 -0.000346714
0.0 0.0 -0.000346714
0.0 0.0 -0.000346714
0.0 0.0 -0.000346714
0.0 0.0 -0.000346714
0.0 0.0 -0.000346714
0.0 0.0 -0.00160516
0.0 0.0 -0.00160516
0.0 0.0 -0.000346714
0.0 0.0 -0.00160516
0.0 0.0 -0.000346714
0.0 0.0 -0.000346714
0.0 0.0 -0.000346714
-0.00662993 -5.10403e-05 -0.00835023
0.00662993 5.10403e-05 0.00765681
0.0 0.0 -0.000346714
-0.000360411 0.000171838 0.000342254
-8.81619e-05 -1.32692e-05 -3.83567e-05
0.0 0.0 -0.000346714
0.0 0.0 -0.000346714
0.0 0.0 -0.00160516
-8.82499e-05 -1.31806e-05 -3.79341e-05
0.0 0.0 -0.000346714
0.0 0.0 -0.00160516
-9.10449e-05 7.75356e-06 -2.86793e-05
-0.000370447 -5.65947e-05 -0.000260844
-0.000407635 -6.1041e-05 -0.000172676
-8.92011e-05 -1.36544e-05 -3.21454e-05
1.85052e-05 8.69563e-06 -0.000312054
-0.000458532 -6.72498e-05 -3.63587e-05
-8.83059e-05 -1.31981e-05 -3.75844e-05
0.0 0.0 -0.00160516
-8.50144e-05 -3.98107e-05 -4.33482e-05
-0.000330617 -0.000154399 -0.00025543
-0.000261832 9.82287e-05 -0.00019306
-0.000410907 3.38819e-05 -0.000173055
-8.74179e-05 -1.31576e-05 -3.98951e-05
-0.000126202 -0.000103605 5.60975e-05
0.0 0.0 -0.000346714
-8.687e-05 2.26143e-05 -4.10293e-05
-0.000445672 0.00011598 -7.2755e-05
-8.94188e-05 7.39423e-06 -3.5061e-05
1.70489e-05 5.17077e-05 -9.21433e-06
-0.000409689 -6.16556e-05 -0.000173712
-0.000288343 -4.20912e-05 -0.000435863
-8.44447e-05 -4.43399e-05 -3.2389e-05
-0.000401997 -6.07713e-05 -0.00018593
-8.80148e-05 -1.33707e-05 -3.92025e-05
-0.000394187 0.000177877 -0.0002007
-8.75245e-05 2.26502e-05 -3.92856e-05
-8.9227e-05 2.31302e-05 -3.48923e-05
1.15584e-05 7.39572e-05 2.35769e-06
-0.000100086 7.41563e-06 -3.66339e-06
2.93441e-05 8.32961e-05 -0.000179484
-9.39819e-05 -1.42835e-05 -2.60611e-05
-8.71915e-05 -3.66222e-05 -4.37813e-05
-8.13492e-05 -3.77028e-05 -4.31553e-05
-8.22464e-05 3.73041e-05 -4.84167e-05
-0.000146729 9.38183e-05 0.000292256
2.38355e-05 1.5751e-06 2.59715e-05
-8.94786e-05 9.37975e-06 -2.01037e-05
2.70042e-05 8.94933e-06 -0.000352647
-0.000280095 -0.000121158 -0.000427308
0.0 0.0 -0.00160516
-8.16006e-05 3.83399e-05 -4.79023e-05
-9.14008e-05 -1.1164e-05 -3.75384e-05
0.0 0.0 -0.000346714
-0.000425046 -5.001e-05 -0.000135633
-8.49986e-05 -3.37956e-05 -3.92466e-05
0.0 0.0 -0.000346714
-0.000221734 -0.000881094 0.000664274
0.0 0.0 -0.000346714
-8.54203e-05 2.40885e-05 -4.55925e-05
-8.4686e-05 7.6753e-06 -4.84563e-05
-0.000155501 -1.84093e-05 3.90677e-05
-3.50679e-05 -4.25556e-06 -0.000264573
-0.000732625 -0.00146267 0.00315321
0.0 0.0 -0.000346714
-0.000354867 9.96292e-05 -0.000339235
0.0 0.0 -0.00160516
-0.000298094 -2.84658e-05 -0.000450648
-8.38503e-05 -8.80424e-06 -4.76413e-05
-0.00055927 -5.51888e-05 0.000175901
-0.000118016 -4.1899e-05 1.7217e-05
-9.3488e-05 -3.55823e-05 -1.69414e-05
-7.9603e-05 -4.77106e-05 -7.88667e-05
8.32126e-05 -0.000122585 -0.000184411
-0.00190803 0.00256562 0.00503791
0.0 0.0 -0.00160516
-8.02001e-05 3.15213e-05 -3.26929e-05
9.74374e-05 -0.000166844 0.00271121
0.0 0.0 -0.000346714
5.66504e-05 -4.73776e-06 -0.000428403
0.0 0.0 -0.000346714
0.0 0.0 -0.000346714
-0.000429828 -4.7085e-05 0.000345402
-8.89987e-05 -7.58277e-06 -3.83446e-05
0.00015184 1.48821e-05 -0.00104347
-0.000409696 -0.000141745 -0.000180064
-0.000239604 -0.000239763 -0.000544193
0.0 0.0 -0.000346714
0.0 0.0 -0.00160516
0.0 0.0 -0.000346714
0.0 0.0 -0.00160516
0.0 0.0 -0.00160516
-0.000882312 -0.000164347 0.00168902
0.0 0.0 -0.000346714
-0.000374184 -3.158e-05 -0.000272855
-0.000325532 7.95295e-05 0.000735876
0.0 0.0 -0.00160516
0.0 0.0 -0.00160516
0.0 0.0 -0.000346714
-0.00046315 8.81424e-06 0.00064038
-1.28907e-05 2.50616e-06 -0.000219455
-0.00039543 7.34338e-05 -0.000208651
0.0 0.0 -0.000346714
0.0 0.0 -0.000346714
-0.00199433 0.00178008 0.0040252
-8.68812e-05 4.4635e-05 -4.33189e-05
0.0 0.0 -0.000346714
-0.000395191 0.000193867 -0.000201057
3.46846e-05 -2.52788e-05 -0.000416133
-5.01425e-05 1.02402e-05 -0.000125336
-4.18267e-05 9.28993e-06 -0.000123989
0.0 0.0 -0.000346714
-0.000124644 5.70927e-05 0.00128716
-8.69858e-05 1.91436e-05 -3.7686e-05
-8.9147e-05 1.95163e-05 -2.86543e-05
-8.96135e-05 -2.43265e-06 -3.84366e-05
-0.000127131 -6.19832e-06 5.39598e-05
0.0 0.0 -0.00160516
-0.0004088 -0.000117169 -0.000188511
0.0 0.0 -0.00160516
1.83531e-05 -7.87931e-05 -2.00021e-06
-0.000101204 -2.59269e-05 -5.61489e-05
-0.000391734 -0.000237066 -0.000220619
0.0 0.0 -0.000346714
0.000152688 -4.04885e-05 0.00345328
-5.05811e-05 1.29088e-05 -0.000106392
-9.14295e-05 2.27022e-05 -2.88149e-05
-0.000484783 0.000126839 -0.000160509
-2.25221e-05 3.82105e-06 -0.000200993
-0.000459552 0.00010037 -6.11929e-05
-0.000517176 0.00026423 5.25793e-05
-0.000382543 -1.40627e-05 -9.51464e-05
-9.0216e-05 -7.16756e-07 3.88983e-05
-0.000372185 -1.04089e-05 -0.000263452
-0.000409928 -0.000103809 -0.000186866
0.0 0.0 -0.00160516
-8.65458e-05 -2.43481e-05 -3.82677e-05
-8.77794e-05 -5.08651e-05 -3.25542e-05
0.0 0.0 -0.00160516
-7.60019e-05 6.98377e-05 -5.54835e-05
-0.00035285 1.46491e-05 0.00034081
1.16188e-05 -6.73235e-06 -0.00158034
0.00022424 -0.000110971 -0.00128137
-8.97094e-05 3.69043e-07 -3.83182e-05
-8.94492e-05 3.67084e-07 -3.8801e-05
-8.97308e-05 3.69227e-07 -3.82536e-05
-9.10204e-05 3.74181e-07 -3.54384e-05
0.0 0.0 -0.000346714
0.0 0.0 -0.000346714
0.0 0.0 -0.000346714
0.000104582 2.84594e-05 -8.93198e-05
0.0 0.0 -0.000346714
-0.00147912 -0.000624638 -0.000931467
0.0 0.0 -0.000346714
-7.34633e-05 -6.16736e-05 -7.80738e-05
-0.000387887 0.000222411 -0.000195269
0.0 0.0 -0.000346714
-0.000122837 3.46175e-05 3.94771e-05
0.0 0.0 -0.00160516
2.6282e-05 3.02361e-05 9.51629e-06
-6.08162e-06 1.34017e-07 -0.000240094
0.0 0.0 -0.000346714
-8.82234e-05 1.42309e-06 -3.53772e-05
-7.95718e-05 -1.91372e-05 -6.40402e-05
-0.000295774 -0.000145373 0.000361332
-0.000358406 0.000469398 -0.00025072
0.0 0.0 -0.000346714
-0.000376007 0.000217101 -0.000209898
-7.73862e-05 4.47189e-05 -5.40322e-05
0.0 0.0 -0.00160516
-9.03335e-05 2.60538e-05 -2.83856e-05
0.0 0.0 -0.000346714
-0.000414709 1.46122e-05 -0.000178082
0.0 0.0 -0.000346714
0.0 0.0 -0.00160516
-0.000170906 -3.77657e-05 0.000134314
-4.24031e-05 -8.9185e-06 -0.000136466
0.0237577 0.0151574 -0.0271097
0.0 0.0 -0.000346714
-0.000212297 -0.00010011 9.91808e-05
-8.34042e-05 0.000104502 -3.97742e-05
-3.07755e-05 3.63053e-05 -0.000168617
-7.72013e-05 6.72397e-05 -5.28815e-05
-7.96563e-05 6.64084e-05 -5.56672e-05
-9.13633e-05 2.558e-05 -3.96101e-05
0.0 0.0 -0.00160516
8.5616e-06 -2.92767e-06 -0.00035437
-0.00141928 0.000489778 0.00439493
-0.000117351 4.25216e-06 -4.56646e-05