# vtk DataFile Version 2.0
Generated by lpp.py
ASCII
DATASET POLYDATA
POINTS 641 float
-0.474572 -0.00148513 -0.397349
-0.497857 0.0403705 -0.359452
-0.47189 -0.00452161 -0.353579
-0.447086 -0.00992975 -0.331923
-0.430511 -0.00537778 -0.324898
-0.444433 0.0294254 -0.323337
-0.436678 -0.00076057 -0.319953
-0.419855 0.0100954 -0.309581
-0.41028 -0.00649405 -0.298119
-0.405836 0.0281844 -0.293065
-0.413546 0.0308453 -0.295896
-0.445688 -0.0556506 -0.293003
-0.397404 0.0164162 -0.290977
-0.394656 0.0254366 -0.28443
-0.38938 -0.00696726 -0.283626
-0.392104 0.0282472 -0.281216
-0.380303 0.000214467 -0.277062
-0.380721 0.00580483 -0.277144
-0.384771 0.0171519 -0.279158
-0.398492 0.0377699 -0.279461
-0.386125 -0.0188014 -0.274379
-0.377461 -0.0008328 -0.273975
-0.379645 0.0124478 -0.275177
-0.388781 0.0250267 -0.276728
-0.369777 0.00656682 -0.270943
-0.376607 0.0125361 -0.271819
-0.371688 0.0099146 -0.268864
-0.381072 0.0278856 -0.271676
-0.372841 -0.0215227 -0.265965
-0.371392 -0.0121741 -0.267848
-0.368945 -0.0101467 -0.266555
-0.368693 0.0143591 -0.267378
-0.385958 0.0423156 -0.267894
-0.371808 -0.0299631 -0.263306
-0.35983 -0.00358333 -0.260964
-0.381374 0.0442081 -0.263925
-0.348252 -0.00703802 -0.254757
-0.345755 -0.00327392 -0.25371
-0.347931 0.00745547 -0.254491
-0.345899 -0.0107743 -0.251572
-0.338261 -0.00428659 -0.249081
-0.341593 0.00463578 -0.250012
-0.34308 0.00822334 -0.251697
-0.337761 0.00760388 -0.248939
-0.340226 0.00957939 -0.250052
-0.347047 0.0258404 -0.249532
-0.336398 -0.0133876 -0.246191
-0.336067 0.0212111 -0.245916
-0.344048 0.0287003 -0.246377
-0.331542 -0.0143738 -0.243818
-0.326392 -0.0101883 -0.243078
-0.326769 0.00421079 -0.243741
-0.324852 0.00641229 -0.242795
-0.350568 0.0428868 -0.244327
-0.3141 -0.00963199 -0.238015
-0.320668 -0.00615336 -0.239918
-0.33086 0.0288895 -0.240161
-0.347967 -0.0518158 -0.236783
-0.310671 -0.0106884 -0.235369
-0.308149 0.0132311 -0.23416
-0.324499 0.0397301 -0.234567
-0.315943 -0.0357897 -0.232763
-0.297955 -0.0232349 -0.229083
-0.299971 0.00652532 -0.232223
-0.298195 0.00326595 -0.230595
-0.297166 0.00738152 -0.230985
-0.299667 0.0261336 -0.229207
-0.330397 -0.0108817 -0.228812
-0.294161 0.0103959 -0.229526
-0.291715 -0.0294209 -0.22487
-0.290721 -0.0241206 -0.224953
-0.281988 0.00280632 -0.223792
-0.284211 0.00670417 -0.225563
-0.285412 0.0158384 -0.225275
-0.277415 0.0141369 -0.22216
-0.287721 0.0201128 -0.22545
-0.306863 -0.0523195 -0.220957
-0.286675 -0.0281495 -0.223219
-0.279821 -0.0310792 -0.219541
-0.276753 -0.0178133 -0.221409
-0.27883 -0.00202693 -0.223094
-0.271064 -0.0027057 -0.219258
-0.270206 0.00474612 -0.219822
-0.275231 0.0074855 -0.221785
-0.272745 0.0109523 -0.220562
-0.275386 0.0160535 -0.220939
-0.276716 0.0260442 -0.219773
-0.277586 0.0313158 -0.21856
-0.285902 0.037815 -0.219997
-0.295347 0.0424007 -0.22177
-0.275133 -0.0298261 -0.21813
-0.277867 -0.025283 -0.219368
-0.265664 -0.0212159 -0.216156
-0.260239 -0.00434052 -0.215721
-0.263321 -0.000941079 -0.217119
-0.263517 0.00292699 -0.21596
-0.265534 0.0184825 -0.215364
-0.275262 0.0224609 -0.218751
-0.272976 0.0322734 -0.216367
-0.259265 -0.0271707 -0.211871
-0.257198 -0.00464327 -0.21442
-0.253309 -0.00149937 -0.211834
-0.262014 0.0217675 -0.214486
-0.256143 0.0182904 -0.212563
-0.25606 -0.0274373 -0.209137
-0.250711 -0.0204204 -0.208803
-0.246262 -0.00886341 -0.209599
-0.242832 -0.00893517 -0.208131
-0.242792 -0.00215693 -0.208473
-0.251878 0.00337345 -0.211058
-0.245615 0.00405181 -0.209467
-0.250335 0.0116893 -0.210021
-0.254828 -0.0354101 -0.208142
-0.241271 -0.0133261 -0.206015
-0.238887 -0.00644315 -0.206205
-0.2362 -0.00252524 -0.204162
-0.242636 0.0021838 -0.207196
-0.239179 0.0099093 -0.206543
-0.240243 0.0151196 -0.206367
-0.251385 0.0299328 -0.207062
-0.255956 -0.0479148 -0.203726
-0.245562 -0.032362 -0.203972
-0.240865 -0.0307496 -0.203379
-0.239694 -0.0269845 -0.203173
-0.231453 -0.0239079 -0.201235
-0.228467 -0.00454404 -0.201229
-0.226016 -0.000963816 -0.201313
-0.232566 0.00138867 -0.204059
-0.235677 0.00914391 -0.204027
-0.231082 0.0102243 -0.202044
-0.287897 -0.0699037 -0.20004
-0.225967 -0.0144554 -0.199341
-0.223472 -0.00565711 -0.199059
-0.221614 -0.00147034 -0.199453
-0.223246 0.00433537 -0.199826
-0.220218 0.00373912 -0.1985
-0.228545 0.021341 -0.199528
-0.224391 0.023758 -0.197141
-0.236566 0.0309068 -0.200696
-0.232969 0.0371863 -0.198731
-0.23768 0.0433803 -0.198227
-0.225257 -0.0301949 -0.196228
-0.216298 -0.0152717 -0.196283
-0.215079 -0.0106294 -0.196161
-0.214115 -0.0094573 -0.193405
-0.21459 -0.00763296 -0.196268
-0.216529 -0.0030433 -0.196231
-0.21085 0.000873729 -0.19375
-0.224533 0.0132015 -0.199995
-0.214896 0.0127437 -0.195948
-0.214389 0.0213603 -0.194698
-0.215556 0.0243721 -0.194653
-0.217249 0.0278947 -0.194564
-0.225675 0.0322633 -0.195867
-0.23102 0.0397905 -0.196946
-0.237723 0.051389 -0.194945
-0.210248 -0.0119588 -0.192946
-0.206497 -0.0148681 -0.191047
-0.210242 -0.00666067 -0.19341
-0.205963 -0.00625734 -0.192816
-0.206338 0.000470981 -0.192936
-0.207613 0.00642791 -0.192365
-0.201519 0.00475604 -0.190922
-0.207473 0.0110889 -0.190564
-0.218766 0.0166972 -0.196292
-0.207906 0.0228535 -0.19173
-0.21749 -0.0499863 -0.187691
-0.209638 -0.0365714 -0.189309
-0.205765 -0.0297985 -0.18927
-0.200254 -0.0198514 -0.187873
-0.199411 -0.0137859 -0.18931
-0.193871 -0.0164049 -0.186632
-0.191709 -0.00734747 -0.18672
-0.196239 -0.00148624 -0.187577
-0.206257 0.0023205 -0.189319
-0.193966 0.00455874 -0.186672
-0.196953 0.00647428 -0.189011
-0.195458 -0.037163 -0.18336
-0.204242 -0.0336926 -0.186639
-0.196003 -0.0293423 -0.184304
-0.191242 -0.0251211 -0.184432
-0.190003 -0.00278377 -0.184971
-0.184842 0.00309587 -0.182845
-0.188029 0.00760419 -0.185089
-0.184382 0.0076436 -0.183512
-0.185595 0.0110892 -0.183738
-0.188554 0.0189224 -0.184268
-0.191622 0.0218318 -0.185108
-0.193359 0.0282961 -0.184486
-0.200512 0.0412977 -0.18394
-0.183383 -0.0158395 -0.181279
-0.179927 -0.0104669 -0.181574
-0.184871 -0.00997856 -0.182591
-0.183688 -0.00474257 -0.182234
-0.179737 0.000562593 -0.180659
-0.17451 0.000416623 -0.179549
-0.177509 0.00971312 -0.180452
-0.183112 0.0211585 -0.181674
-0.191971 0.0368999 -0.181945
-0.175684 -0.0222909 -0.178404
-0.171713 -0.0251706 -0.176153
-0.173368 -0.0187833 -0.176849
-0.170958 -0.0141483 -0.176146
-0.172013 -0.00853629 -0.177292
-0.166871 -0.0104807 -0.17602
-0.170215 -0.00396524 -0.177703
-0.172348 0.00604635 -0.178571
-0.168382 0.00842444 -0.176705
-0.176836 0.0137424 -0.178739
-0.172941 0.010643 -0.177362
-0.168233 0.014603 -0.176135
-0.177104 0.0248838 -0.1784
-0.250888 -0.0808201 -0.176783
-0.171703 -0.0328696 -0.173486
-0.169801 -0.0215419 -0.174604
-0.163794 -0.0176099 -0.174073
-0.162349 -0.00949552 -0.174203
-0.163072 -0.00498422 -0.174722
-0.159694 -0.00546618 -0.17332
-0.15694 -0.00375079 -0.172137
-0.160386 -0.00135232 -0.172479
-0.159874 0.00548647 -0.173322
-0.158251 0.00885489 -0.172362
-0.161317 0.0147769 -0.173024
-0.161265 0.0179053 -0.172955
-0.222781 -0.0756095 -0.172284
-0.158571 -0.00919066 -0.171563
-0.173652 -0.0040911 -0.171449
-0.148811 -0.00657562 -0.16863
-0.154747 -0.00054186 -0.170707
-0.156132 0.00408994 -0.17174
-0.150532 0.0106907 -0.16912
-0.160934 0.0304381 -0.168955
-0.163702 0.0349594 -0.169791
-0.166873 0.0380704 -0.171241
-0.143321 -0.0121332 -0.166014
-0.145525 -0.00890807 -0.167151
-0.141207 -0.00887476 -0.165359
-0.146966 -0.00543553 -0.164978
-0.146934 -4.91263e-05 -0.167964
-0.158118 0.00526047 -0.167618
-0.14749 0.00964808 -0.166757
-0.158288 0.0155907 -0.171901
-0.148957 0.0143952 -0.166805
-0.150298 0.0185081 -0.167066
-0.142957 -0.0302063 -0.163324
-0.134048 -0.0195596 -0.16134
-0.135178 -0.0156823 -0.161165
-0.14823 -0.0154202 -0.164414
-0.137275 -0.00882773 -0.162629
-0.151797 -0.00821423 -0.163407
-0.143502 -0.00398543 -0.162617
-0.133367 -0.00575495 -0.16215
-0.137862 -0.00396744 -0.161056
-0.136935 0.0036974 -0.161426
-0.148606 0.00621066 -0.16263
-0.139195 0.00756983 -0.163386
-0.137831 0.0151633 -0.163378
-0.131094 0.0147015 -0.160663
-0.141867 0.0136643 -0.16415
-0.135265 0.0161601 -0.162074
-0.175977 0.0244436 -0.167424
-0.144501 0.0349232 -0.16283
-0.147086 0.0372369 -0.163415
-0.131165 -0.0313695 -0.158122
-0.128671 -0.0213338 -0.1588
-0.124355 -0.0169509 -0.157611
-0.146756 -0.0107033 -0.160594
-0.124918 -0.0108297 -0.157222
-0.127884 -0.00634632 -0.159829
-0.131857 -0.00279085 -0.158974
-0.127481 -0.00198531 -0.159434
-0.127569 0.00411353 -0.158648
-0.121661 0.00981368 -0.156947
-0.131669 0.0188743 -0.159219
-0.126792 0.0195667 -0.15821
-0.128433 -0.0288014 -0.15747
-0.122127 -0.0240511 -0.155511
-0.125487 -0.0219618 -0.156292
-0.121133 -0.0210896 -0.155319
-0.132148 -0.00450593 -0.154523
-0.125325 -0.00397494 -0.158336
-0.122004 -0.00329594 -0.15681
-0.123144 0.00267869 -0.156208
-0.119702 0.00542266 -0.155415
-0.12306 0.0143396 -0.157229
-0.12015 0.0157323 -0.154812
-0.119374 -0.0366975 -0.151918
-0.112603 -0.0254908 -0.151494
-0.116612 -0.0126259 -0.152087
-0.13475 -0.00259407 -0.149586
-0.120982 -0.00620139 -0.156972
-0.107269 -0.00278824 -0.151066
-0.154164 -0.000285312 -0.153266
-0.113065 0.00139652 -0.152605
-0.116419 0.0127785 -0.154567
-0.112811 0.0190381 -0.152492
-0.121189 0.0230866 -0.154292
-0.117861 -0.0473938 -0.148301
-0.118445 -0.0359772 -0.14753
-0.106228 -0.0216095 -0.148252
-0.10438 -0.0161171 -0.149311
-0.10909 -0.00673633 -0.150823
-0.101815 -0.0104495 -0.147511
-0.116787 -0.00511452 -0.155054
-0.0976315 -0.000320435 -0.147181
-0.107816 0.00353933 -0.150099
-0.103083 0.00341415 -0.149095
-0.113734 0.00712133 -0.15317
-0.106984 0.0130977 -0.14988
-0.11098 0.0325876 -0.148381
-0.111722 0.0396515 -0.146355
-0.201471 -0.0937566 -0.146435
-0.114988 -0.0494038 -0.146513
-0.109412 -0.0437562 -0.145956
-0.121246 -0.0277406 -0.148351
-0.101102 -0.0154237 -0.14691
-0.0939117 -0.0153779 -0.144978
-0.160433 -0.0103514 -0.150303
-0.0959433 -0.0118354 -0.144995
-0.0932546 -0.00818056 -0.145128
-0.0956678 -0.00427622 -0.145288
[...]
POINT_DATA 641
VECTORS i float
0.0 0.0 0.0
0.0 0.0 0.0
0.0 0.0 0.0
0.0 0.0 0.0
0.0 0.0 0.0
0.0 0.0 0.0
0.0 0.0 0.0
0.0 0.0 0.0
0.0 0.0 0.0
0.0 0.0 0.0
0.0 0.0 0.0
0.0 0.0 0.0
0.0 0.0 0.0
0.0 0.0 0.0
0.0 0.0 0.0
0.0 0.0 0.0
0.0 0.0 0.0
0.0 0.0 0.0
0.0 0.0 0.0
0.0 0.0 0.0
0.0 0.0 0.0
0.0 0.0 0.0
0.0 0.0 0.0
0.0 0.0 0.0
0.0 0.0 0.0
0.0 0.0 0.0
0.0 0.0 0.0
0.0 0.0 0.0
0.0 0.0 0.0
0.0 0.0 0.0
0.0 0.0 0.0
0.0 0.0 0.0
0.0 0.0 0.0
0.0 0.0 0.0
0.0 0.0 0.0
0.0 0.0 0.0
0.0 0.0 0.0
0.0 0.0 0.0
0.0 0.0 0.0
0.0 0.0 0.0
0.0 0.0 0.0
0.0 0.0 0.0
0.0 0.0 0.0
0.0 0.0 0.0
0.0 0.0 0.0
0.0 0.0 0.0
0.0 0.0 0.0
0.0 0.0 0.0
0.0 0.0 0.0
0.0 0.0 0.0
0.0 0.0 0.0
0.0 0.0 0.0
0.0 0.0 0.0
0.0 0.0 0.0
0.0 0.0 0.0
0.0 0.0 0.0
0.0 0.0 0.0
0.0 0.0 0.0
0.0 0.0 0.0
0.0 0.0 0.0
0.0 0.0 0.0
0.0 0.0 0.0
0.0 0.0 0.0
0.0 0.0 0.0
0.0 0.0 0.0
0.0 0.0 0.0
0.0 0.0 0.0
0.0 0.0 0.0
0.0 0.0 0.0
0.0 0.0 0.0
0.0 0.0 0.0
0.0 0.0 0.0
0.0 0.0 0.0
0.0 0.0 0.0
0.0 0.0 0.0
0.0 0.0 0.0
0.0 0.0 0.0
0.0 0.0 0.0
0.0 0.0 0.0
0.0 0.0 0.0
0.0 0.0 0.0
0.0 0.0 0.0
0.0 0.0 0.0
0.0 0.0 0.0
0.0 0.0 0.0
0.0 0.0 0.0
0.0 0.0 0.0
0.0 0.0 0.0
0.0 0.0 0.0
0.0 0.0 0.0
0.0 0.0 0.0
0.0 0.0 0.0
0.0 0.0 0.0
0.0 0.0 0.0
0.0 0.0 0.0
0.0 0.0 0.0
0.0 0.0 0.0
0.0 0.0 0.0
0.0 0.0 0.0
0.0 0.0 0.0
0.0 0.0 0.0
0.0 0.0 0.0
0.0 0.0 0.0
0.0 0.0 0.0
0.0 0.0 0.0
0.0 0.0 0.0
0.0 0.0 0.0
0.0 0.0 0.0
0.0 0.0 0.0
0.0 0.0 0.0
0.0 0.0 0.0
0.0 0.0 0.0
0.0 0.0 0.0
0.0 0.0 0.0
0.0 0.0 0.0
0.0 0.0 0.0
0.0 0.0 0.0
0.0 0.0 0.0
0.0 0.0 0.0
0.0 0.0 0.0
0.0 0.0 0.0
0.0 0.0 0.0
0.0 0.0 0.0
0.0 0.0 0.0
0.0 0.0 0.0
0.0 0.0 0.0
0.0 0.0 0.0
0.0 0.0 0.0
0.0 0.0 0.0
0.0 0.0 0.0
0.0 0.0 0.0
0.0 0.0 0.0
0.0 0.0 0.0
0.0 0.0 0.0
0.0 0.0 0.0
0.0 0.0 0.0
0.0 0.0 0.0
0.0 0.0 0.0
0.0 0.0 0.0
0.0 0.0 0.0
0.0 0.0 0.0
0.0 0.0 0.0
0.0 0.0 0.0
0.0 0.0 0.0
0.0 0.0 0.0
0.0 0.0 0.0
0.0 0.0 0.0
0.0 0.0 0.0
0.0 0.0 0.0
0.0 0.0 0.0
0.0 0.0 0.0
0.0 0.0 0.0
0.0 0.0 0.0
0.0 0.0 0.0
0.0 0.0 0.0
0.0 0.0 0.0
0.0 0.0 0.0
0.0 0.0 0.0
0.0 0.0 0.0
0.0 0.0 0.0
0.0 0.0 0.0
0.0 0.0 0.0
0.0 0.0 0.0
0.0 0.0 0.0
0.0 0.0 0.0
0.0 0.0 0.0
0.0 0.0 0.0
0.0 0.0 0.0
0.0 0.0 0.0
0.0 0.0 0.0
0.0 0.0 0.0
0.0 0.0 0.0
0.0 0.0 0.0
0.0 0.0 0.0
0.0 0.0 0.0
0.0 0.0 0.0
0.0 0.0 0.0
0.0 0.0 0.0
0.0 0.0 0.0
0.0 0.0 0.0
0.0 0.0 0.0
0.0 0.0 0.0
0.0 0.0 0.0
0.0 0.0 0.0
0.0 0.0 0.0
0.0 0.0 0.0
0.0 0.0 0.0
0.0 0.0 0.0
0.0 0.0 0.0
0.0 0.0 0.0
0.0 0.0 0.0
0.0 0.0 0.0
0.0 0.0 0.0
0.0 0.0 0.0
0.0 0.0 0.0
0.0 0.0 0.0
0.0 0.0 0.0
0.0 0.0 0.0
0.0 0.0 0.0
0.0 0.0 0.0
0.0 0.0 0.0
0.0 0.0 0.0
0.0 0.0 0.0
0.0 0.0 0.0
0.0 0.0 0.0
0.0 0.0 0.0
0.0 0.0 0.0
0.0 0.0 0.0
0.0 0.0 0.0
0.0 0.0 0.0
0.0 0.0 0.0
0.0 0.0 0.0
0.0 0.0 0.0
0.0 0.0 0.0
0.0 0.0 0.0
0.0 0.0 0.0
0.0 0.0 0.0
0.0 0.0 0.0
0.0 0.0 0.0
0.0 0.0 0.0
0.0 0.0 0.0
0.0 0.0 0.0
0.0 0.0 0.0
0.0 0.0 0.0
0.0 0.0 0.0
0.0 0.0 0.0
0.0 0.0 0.0
0.0 0.0 0.0
0.0 0.0 0.0
0.0 0.0 0.0
0.0 0.0 0.0
0.0 0.0 0.0
0.0 0.0 0.0
0.0 0.0 0.0
0.0 0.0 0.0
0.0 0.0 0.0
0.0 0.0 0.0
0.0 0.0 0.0
0.0 0.0 0.0
0.0 0.0 0.0
0.0 0.0 0.0
0.0 0.0 0.0
0.0 0.0 0.0
0.0 0.0 0.0
0.0 0.0 0.0
0.0 0.0 0.0
0.0 0.0 0.0
0.0 0.0 0.0
0.0 0.0 0.0
0.0 0.0 0.0
0.0 0.0 0.0
0.0 0.0 0.0
0.0 0.0 0.0
0.0 0.0 0.0
0.0 0.0 0.0
0.0 0.0 0.0
0.0 0.0 0.0
0.0 0.0 0.0
0.0 0.0 0.0
0.0 0.0 0.0
0.0 0.0 0.0
0.0 0.0 0.0
0.0 0.0 0.0
0.0 0.0 0.0
0.0 0.0 0.0
0.0 0.0 0.0
0.0 0.0 0.0
0.0 0.0 0.0
0.0 0.0 0.0
0.0 0.0 0.0
0.0 0.0 0.0
0.0 0.0 0.0
0.0 0.0 0.0
0.0 0.0 0.0
0.0 0.0 0.0
0.0 0.0 0.0
0.0 0.0 0.0
0.0 0.0 0.0
0.0 0.0 0.0
0.0 0.0 0.0
0.0 0.0 0.0
0.0 0.0 0.0
0.0 0.0 0.0
0.0 0.0 0.0
0.0 0.0 0.0
0.0 0.0 0.0
0.0 0.0 0.0
0.0 0.0 0.0
0.0 0.0 0.0
0.0 0.0 0.0
0.0 0.0 0.0
0.0 0.0 0.0
0.0 0.0 0.0
0.0 0.0 0.0
0.0 0.0 0.0
0.0 0.0 0.0
0.0 0.0 0.0
0.0 0.0 0.0
0.0 0.0 0.0
0.0 0.0 0.0
0.0 0.0 0.0
0.0 0.0 0.0
0.0 0.0 0.0
0.0 0.0 0.0
0.0 0.0 0.0
0.0 0.0 0.0
0.0 0.0 0.0
0.0 0.0 0.0
0.0 0.0 0.0
0.0 0.0 0.0
0.0 0.0 0.0
0.0 0.0 0.0
0.0 0.0 0.0
0.0 0.0 0.0
0.0 0.0 0.0
0.0 0.0 0.0
0.0 0.0 0.0
0.0 0.0 0.0
0.0 0.0 0.0
0.0 0.0 0.0
0.0 0.0 0.0
0.0 0.0 0.0
0.0 0.0 0.0
0.0 0.0 0.0
0.0 0.0 0.0
0.0 0.0 0.0
0.0 0.0 0.0
0.0 0.0 0.0
0.0 0.0 0.0
0.0 0.0 0.0
0.0 0.0 0.0
0.0 0.0 0.0
0.0 0.0 0.0
0.0 0.0 0.0
0.0 0.0 0.0
0.0 0.0 0.0
0.0 0.0 0.0
0.0 0.0 0.0
0.0 0.0 0.0
0.0 0.0 0.0
0.0 0.0 0.0
0.0 0.0 0.0
0.0 0.0 0.0
0.0 0.0 0.0
0.0 0.0 0.0
0.0 0.0 0.0
0.0 0.0 0.0
0.0 0.0 0.0
0.0 0.0 0.0
0.0 0.0 0.0
0.0 0.0 0.0
0.0 0.0 0.0
0.0 0.0 0.0
0.0 0.0 0.0
0.0 0.0 0.0
0.0 0.0 0.0
0.0 0.0 0.0
0.0 0.0 0.0
0.0 0.0 0.0
0.0 0.0 0.0
0.0 0.0 0.0
0.0 0.0 0.0
0.0 0.0 0.0
0.0 0.0 0.0
0.0 0.0 0.0
0.0 0.0 0.0
0.0 0.0 0.0
0.0 0.0 0.0
0.0 0.0 0.0
0.0 0.0 0.0
0.0 0.0 0.0
0.0 0.0 0.0
0.0 0.0 0.0
0.0 0.0 0.0
0.0 0.0 0.0
0.0 0.0 0.0
0.0 0.0 0.0
0.0 0.0 0.0
0.0 0.0 0.0
0.0 0.0 0.0
0.0 0.0 0.0
0.0 0.0 0.0
0.0 0.0 0.0
0.0 0.0 0.0
0.0 0.0 0.0
0.0 0.0 0.0
0.0 0.0 0.0
0.0 0.0 0.0
0.0 0.0 0.0
0.0 0.0 0.0
0.0 0.0 0.0
0.0 0.0 0.0
0.0 0.0 0.0
0.0 0.0 0.0
0.0 0.0 0.0
0.0 0.0 0.0
0.0 0.0 0.0
0.0 0.0 0.0
0.0 0.0 0.0
0.0 0.0 0.0
0.0 0.0 0.0
0.0 0.0 0.0
0.0 0.0 0.0
0.0 0.0 0.0
0.0 0.0 0.0
0.0 0.0 0.0
0.0 0.0 0.0
0.0 0.0 0.0
0.0 0.0 0.0
0.0 0.0 0.0
0.0 0.0 0.0
0.0 0.0 0.0
0.0 0.0 0.0
0.0 0.0 0.0
0.0 0.0 0.0
0.0 0.0 0.0
0.0 0.0 0.0
0.0 0.0 0.0
0.0 0.0 0.0
0.0 0.0 0.0
0.0 0.0 0.0
0.0 0.0 0.0
0.0 0.0 0.0
0.0 0.0 0.0
0.0 0.0 0.0
0.0 0.0 0.0
0.0 0.0 0.0
0.0 0.0 0.0
0.0 0.0 0.0
0.0 0.0 0.0
0.0 0.0 0.0
0.0 0.0 0.0
0.0 0.0 0.0
0.0 0.0 0.0
0.0 0.0 0.0
0.0 0.0 0.0
0.0 0.0 0.0
0.0 0.0 0.0
0.0 0.0 0.0
0.0 0.0 0.0
0.0 0.0 0.0
0.0 0.0 0.0
0.0 0.0 0.0
0.0 0.0 0.0
0.0 0.0 0.0
0.0 0.0 0.0
0.0 0.0 0.0
0.0 0.0 0.0
0.0 0.0 0.0
0.0 0.0 0.0
0.0 0.0 0.0
0.0 0.0 0.0
0.0 0.0 0.0
0.0 0.0 0.0
0.0 0.0 0.0
0.0 0.0 0.0
0.0 0.0 0.0
0.0 0.0 0.0
0.0 0.0 0.0
0.0 0.0 0.0
0.0 0.0 0.0
0.0 0.0 0.0
0.0 0.0 0.0
0.0 0.0 0.0
0.0 0.0 0.0
0.0 0.0 0.0
0.0 0.0 0.0
0.0 0.0 0.0
0.0 0.0 0.0
0.0 0.0 0.0
0.0 0.0 0.0
0.0 0.0 0.0
0.0 0.0 0.0
0.0 0.0 0.0
0.0 0.0 0.0
0.0 0.0 0.0
0.0 0.0 0.0
0.0 0.0 0.0
0.0 0.0 0.0
0.0 0.0 0.0
0.0 0.0 0.0
0.0 0.0 0.0
0.0 0.0 0.0
0.0 0.0 0.0
0.0 0.0 0.0
0.0 0.0 0.0
0.0 0.0 0.0
0.0 0.0 0.0
0.0 0.0 0.0
0.0 0.0 0.0
0.0 0.0 0.0
0.0 0.0 0.0
0.0 0.0 0.0
0.0 0.0 0.0
0.0 0.0 0.0
0.0 0.0 0.0
0.0 0.0 0.0
0.0 0.0 0.0
0.0 0.0 0.0
0.0 0.0 0.0
0.0 0.0 0.0
0.0 0.0 0.0
0.0 0.0 0.0
0.0 0.0 0.0
0.0 0.0 0.0
0.0 0.0 0.0
0.0 0.0 0.0
0.0 0.0 0.0
0.0 0.0 0.0
0.0 0.0 0.0
0.0 0.0 0.0
0.0 0.0 0.0
0.0 0.0 0.0
0.0 0.0 0.0
0.0 0.0 0.0
0.0 0.0 0.0
0.0 0.0 0.0
0.0 0.0 0.0
0.0 0.0 0.0
0.0 0.0 0.0
0.0 0.0 0.0
0.0 0.0 0.0
0.0 0.0 0.0
0.0 0.0 0.0
0.0 0.0 0.0
0.0 0.0 0.0
0.0 0.0 0.0
0.0 0.0 0.0
0.0 0.0 0.0
0.0 0.0 0.0
0.0 0.0 0.0
0.0 0.0 0.0
0.0 0.0 0.0
0.0 0.0 0.0
0.0 0.0 0.0
0.0 0.0 0.0
0.0 0.0 0.0
0.0 0.0 0.0
0.0 0.0 0.0
0.0 0.0 0.0
0.0 0.0 0.0
0.0 0.0 0.0
0.0 0.0 0.0
0.0 0.0 0.0
0.0 0.0 0.0
0.0 0.0 0.0
0.0 0.0 0.0
0.0 0.0 0.0
0.0 0.0 0.0
0.0 0.0 0.0
0.0 0.0 0.0
0.0 0.0 0.0
0.0 0.0 0.0
0.0 0.0 0.0
0.0 0.0 0.0
0.0 0.0 0.0
0.0 0.0 0.0
0.0 0.0 0.0
0.0 0.0 0.0
0.0 0.0 0.0
0.0 0.0 0.0
0.0 0.0 0.0
0.0 0.0 0.0
0.0 0.0 0.0
0.0 0.0 0.0
0.0 0.0 0.0
0.0 0.0 0.0
0.0 0.0 0.0
0.0 0.0 0.0
0.0 0.0 0.0
0.0 0.0 0.0
0.0 0.0 0.0
0.0 0.0 0.0
0.0 0.0 0.0
0.0 0.0 0.0
0.0 0.0 0.0
0.0 0.0 0.0
0.0 0.0 0.0
0.0 0.0 0.0
0.0 0.0 0.0
0.0 0.0 0.0
0.0 0.0 0.0
0.0 0.0 0.0
0.0 0.0 0.0
0.0 0.0 0.0
0.0 0.0 0.0
0.0 0.0 0.0
0.0 0.0 0.0
0.0 0.0 0.0
0.0 0.0 0.0
0.0 0.0 0.0
0.0 0.0 0.0
0.0 0.0 0.0
0.0 0.0 0.0
0.0 0.0 0.0
0.0 0.0 0.0
0.0 0.0 0.0
0.0 0.0 0.0
0.0 0.0 0.0
0.0 0.0 0.0
0.0 0.0 0.0
0.0 0.0 0.0
0.0 0.0 0.0
0.0 0.0 0.0
0.0 0.0 0.0
0.0 0.0 0.0
0.0 0.0 0.0
0.0 0.0 0.0
0.0 0.0 0.0
0.0 0.0 0.0
0.0 0.0 0.0
0.0 0.0 0.0
0.0 0.0 0.0
0.0 0.0 0.0
0.0 0.0 0.0
0.0 0.0 0.0
0.0 0.0 0.0
0.0 0.0 0.0
0.0 0.0 0.0
0.0 0.0 0.0
0.0 0.0 0.0
0.0 0.0 0.0
0.0 0.0 0.0
0.0 0.0 0.0
0.0 0.0 0.0
0.0 0.0 0.0
0.0 0.0 0.0
0.0 0.0 0.0
0.0 0.0 0.0
0.0 0.0 0.0
0.0 0.0 0.0
0.0 0.0 0.0
0.0 0.0 0.0
0.0 0.0 0.0
0.0 0.0 0.0
0.0 0.0 0.0
0.0 0.0 0.0
0.0 0.0 0.0
0.0 0.0 0.0
0.0 0.0 0.0
0.0 0.0 0.0
VECTORS f float
0.0 0.0 -0.000346714
0.0 0.0 -0.000346714
0.0 0.0 -0.000346714
0.0 0.0 -0.00160516
0.0 0.0 -0.000346714
0.0 0.0 -0.000346714
0.0 0.0 -0.000346714
0.0 0.0 -0.00160516
0.0 0.0 -0.00160516
0.0 0.0 -0.000346714
0.0 0.0 -0.000346714
0.0 0.0 -0.000346714
0.0 0.0 -0.000346714
0.0 0.0 -0.000346714
0.0 0.0 -0.000346714
0.0 0.0 -0.000346714
0.0 0.0 -0.000346714
0.0 0.0 -0.000346714
0.0 0.0 -0.000346714
0.0 0.0 -0.00160516
0.0 0.0 -0.00160516
0.0 0.0 -0.000346714
0.0 0.0 -0.000346714
0.0 0.0 -0.00160516
0.0 0.0 -0.000346714
0.0 0.0 -0.00160516
0.0 0.0 -0.000346714
0.0 0.0 -0.000346714
0.0 0.0 -0.00160516
0.0 0.0 -0.000346714
0.0 0.0 -0.000346714
0.0 0.0 -0.000346714
0.0 0.0 -0.000346714
0.0 0.0 -0.000346714
0.0 0.0 -0.00160516
0.0 0.0 -0.000346714
0.0 0.0 -0.000346714
0.0 0.0 -0.000346714
0.0 0.0 -0.000346714
0.0 0.0 -0.00160516
0.0 0.0 -0.000346714
0.0 0.0 -0.00160516
0.0 0.0 -0.000346714
0.0 0.0 -0.000346714
0.0 0.0 -0.000346714
0.0 0.0 -0.00160516
0.0 0.0 -0.00160516
0.0 0.0 -0.000346714
0.0 0.0 -0.00160516
0.0 0.0 -0.00160516
0.0 0.0 -0.000346714
0.0 0.0 -0.000346714
0.0 0.0 -0.000346714
0.0 0.0 -0.000346714
0.0 0.0 -0.000346714
-0.000417972 6.99257e-05 5.56916e-05
0.0 0.0 -0.00160516
0.0 0.0 -0.000346714
-0.000371915 0.00013992 7.05115e-05
0.000121292 -0.000296496 -1.62195e-05
-6.66409e-05 -9.07186e-05 -7.49241e-05
0.0 0.0 -0.000346714
-8.15546e-05 4.48078e-05 -3.98841e-05
-6.99945e-05 -1.23752e-05 -6.30268e-05
-0.000288557 -4.40375e-05 -0.000470331
-8.87076e-05 -1.33126e-05 -3.8093e-05
0.0 0.0 -0.000346714
0.0 0.0 -0.00160516
-8.86275e-05 -1.34667e-05 -3.7738e-05
0.0 0.0 -0.000346714
-0.00169477 0.000601016 0.00725445
-0.000356579 -5.35366e-05 -0.000308844
-6.3699e-05 -9.59787e-06 -9.44265e-05
-8.71962e-05 -3.6614e-05 -4.38899e-05
-0.000119836 -5.14347e-05 3.5374e-05
0.0 0.0 -0.000346714
0.0 0.0 -0.000346714
0.0 0.0 -0.000346714
0.0 0.0 -0.000346714
-8.54824e-05 3.85891e-05 -4.14695e-05
0.0 0.0 -0.000346714
-0.000315889 1.29396e-05 -0.000559747
-0.000155168 -2.01674e-05 3.4746e-05
-0.000107405 -1.60106e-05 3.90564e-05
1.04808e-06 1.11257e-06 -0.000328717
0.0 0.0 -0.000346714
-7.0815e-06 -6.47443e-05 -0.000177334
-0.000393235 -0.000300172 0.00113203
-6.41293e-05 -4.56463e-05 -9.81308e-05
-7.22438e-05 -8.35013e-05 -7.13237e-05
-0.00165611 0.00114373 0.00360371
0.000133752 0.000258296 0.000308968
-0.000426965 0.000164959 -2.37681e-05
-0.000386354 -2.39621e-05 0.000472631
0.0 0.0 -0.000346714
0.0 0.0 -0.00160516
0.0 0.0 -0.00160516
-0.000342977 -7.7828e-05 -0.000378288
-8.05421e-05 -5.62023e-05 -4.6255e-05
0.0 0.0 -0.000346714
-0.000338723 3.09884e-05 0.000145749
-0.000290057 3.17145e-05 -0.000405558
-8.35324e-05 -3.11687e-05 -4.53624e-05
-0.000156823 -5.76306e-05 0.000110799
0.0 0.0 -0.00160516
0.0 0.0 -0.00160516
1.43293e-05 9.88622e-06 -0.000281144
-7.54234e-05 1.29776e-05 -7.40798e-05
-8.83802e-05 1.24713e-05 3.90134e-06
-0.000330368 -3.20093e-05 -0.000424113
2.57593e-05 -7.51978e-06 3.62206e-05
-0.000406096 -0.000140677 -0.000186098
0.0 0.0 -0.000346714
-2.43863e-05 -7.9285e-07 -0.0010991
0.0 0.0 -0.000346714
0.0 0.0 -0.00160516
-0.000409896 -3.48644e-05 -0.000170062
-8.78553e-05 -6.88819e-06 -3.702e-05
-1.64437e-05 -4.71152e-06 -0.000209238
0.000154096 0.00010755 -0.00170533
0.0 0.0 -0.000346714
-0.000390674 0.000292094 -0.000101003
0.0 0.0 -0.000346714
0.0 0.0 -0.000346714
-8.38024e-05 4.13822e-05 -4.41549e-05
-0.000373634 6.90943e-05 -0.000262696
-8.58587e-05 -5.30194e-06 -3.67363e-05
-8.97218e-05 -5.2368e-06 -3.79607e-05
-0.000411351 -3.23368e-05 -0.000154191
0.0 0.0 -0.00160516
0.00030252 0.00109155 0.0016703
9.46375e-05 8.95553e-05 -1.79098e-05
0.0 0.0 -0.00160516
-5.89658e-05 -3.69846e-06 -5.99367e-05
0.0 0.0 -0.000346714
0.0 0.0 -0.000346714
-0.00031484 -9.74931e-05 -0.000386024
0.0 0.0 -0.00160516
-0.000389326 -0.000238582 -0.000191588
-7.57525e-05 -7.02593e-05 -6.05472e-05
0.0 0.0 -0.000346714
-0.00157084 0.000851033 0.00250163
2.19007e-05 0.00115656 0.00163068
0.0 0.0 -0.000346714
0.0 0.0 -0.000346714
8.41349e-06 -3.92046e-06 -0.000201129
-0.000416886 -1.13237e-05 -0.000172437
2.78231e-05 2.49854e-06 -0.00162885
0.0 0.0 -0.000346714
-8.37427e-05 -2.37835e-05 -3.99512e-05
0.0 0.0 -0.000346714
-6.68002e-05 -0.000190836 -0.000108333
-0.000511274 -0.000240581 0.00124083
0.0 0.0 -0.00160516
-0.000348271 -0.000332158 0.000644298
-0.000243616 -0.000332901 0.000147294
-0.0011254 0.00029911 0.00197954
-0.000439272 0.000111371 -9.14878e-05
0.0 0.0 -0.00160516
-6.33322e-05 2.01799e-05 -7.62555e-06
0.0 0.0 -0.000346714
-2.80819e-05 0.000335081 1.77637e-05
-4.84086e-06 -8.75602e-07 -0.000249441
-4.6184e-05 0.000177923 -0.00160569
0.0 0.0 -0.000346714
0.0 0.0 -0.000346714
-7.59967e-05 6.98284e-05 -5.54916e-05
0.000164543 9.75023e-05 0.000702162
-8.25454e-05 4.73835e-05 -4.46347e-05
-0.000409849 0.00011374 -0.000183181
0.0 0.0 -0.000346714
0.0 0.0 -0.000346714
-8.96609e-05 3.1554e-06 -3.84964e-05
0.000135033 -1.89651e-06 -0.00171982
0.0 0.0 -0.000346714
-0.000407716 6.57215e-06 -0.000165353
-0.000646743 3.7057e-06 0.00138825
-0.000106438 5.89037e-05 -3.51201e-06
-0.000383246 0.00022046 -0.000201496
-0.000432026 0.00025743 -2.5847e-05
-8.49201e-05 4.67941e-05 -4.68285e-05
-0.000414545 1.45839e-05 -0.000179534
-5.68572e-05 3.2323e-05 -0.00111818
2.17927e-05 -1.98076e-05 1.97323e-05
0.0 0.0 -0.000346714
-8.70297e-05 -1.87062e-05 -3.95532e-05
-8.73863e-05 -1.88257e-05 -3.8155e-05
-6.11916e-06 1.69321e-07 -0.0002494
-8.41769e-05 -4.23577e-05 -4.2999e-05
-7.9936e-05 -6.74591e-05 -4.98071e-05
-0.000392717 0.000113412 -0.000182969
0.0 0.0 -0.000346714
-0.000382634 0.000109589 -0.000225963
-0.00052804 1.90353e-05 4.52992e-05
-0.000408956 1.83645e-05 -0.000169998
-5.73449e-05 2.58086e-06 -0.000105015
-8.85884e-05 -1.77394e-05 -3.92896e-05
-8.55017e-05 -4.09626e-05 -4.52045e-05
-7.96723e-05 -6.47621e-05 -5.42239e-05
0.0 0.0 -0.000346714
0.0 0.0 -0.000346714
5.19273e-06 -0.000803238 0.00368211
0.0 0.0 -0.00160516
-0.000418511 8.21835e-05 -0.000166943
-9.92933e-06 1.81979e-05 0.00041462
2.33079e-05 3.60408e-05 7.95454e-06
-8.42198e-05 -1.65998e-05 -5.31681e-05
-0.000220185 -4.4698e-05 0.000169779
0.000101873 -0.000561458 0.000801661
0.0 0.0 -0.000346714
-8.27993e-05 -1.60896e-05 -5.08777e-05
1.50328e-05 -2.97025e-06 1.59377e-05
-4.63585e-05 0.000195335 -0.000134576
0.0 0.0 -0.00160516
0.0 0.0 -0.00160516
-8.80886e-05 2.66919e-05 -4.09736e-05
-8.73386e-05 1.61436e-05 -3.51535e-05
0.0 0.0 -0.000346714
4.50966e-06 4.80108e-07 -0.000258726
0.0 0.0 -0.000346714
0.00031194 -4.04393e-06 -0.00219303
0.0 0.0 -0.000346714
0.0 0.0 -0.000346714
0.0 0.0 -0.000346714
4.96528e-05 1.07169e-05 -0.000416399
0.0 0.0 -0.00160516
-0.00041782 5.58103e-05 -0.000165639
0.0 0.0 -0.00160516
2.46051e-05 3.49514e-06 9.71258e-06
0.0 0.0 -0.000346714
-8.79017e-05 -2.64143e-06 -3.54898e-05
-0.000378343 0.000137168 -0.000564635
0.0 0.0 -0.000346714
0.000724581 -0.00483449 0.0117251
-0.000124274 -0.00010865 -5.88045e-05
-7.99303e-05 1.89479e-05 -5.94262e-05
-8.74872e-05 1.04595e-05 -3.68607e-05
-8.41931e-05 1.00984e-05 -4.36703e-05
0.0 0.0 -0.00160516
9.99818e-05 -2.33645e-05 0.000217631
0.0 0.0 -0.00160516
0.000429316 -0.000286628 -0.000667555
0.0 0.0 -0.000346714
0.0 0.0 -0.000346714
0.0 0.0 -0.00160516
-8.50864e-05 4.54687e-05 -4.63125e-05
-0.000149131 5.40969e-05 6.47447e-05
0.000119366 0.000107698 4.89389e-05
0.0 0.0 -0.000346714
0.000449089 -1.56832e-05 -0.00249907
0.0 0.0 -0.000346714
0.0 0.0 -0.000346714
0.0 0.0 -0.000346714
0.0 0.0 -0.00160516
0.0 0.0 -0.000346714
0.0 0.0 -0.00160516
0.000326894 -1.5993e-05 -0.00189345
-3.43563e-06 3.74969e-05 -4.65656e-05
1.19208e-06 9.66844e-07 -0.000321136
-0.000640247 -0.000183254 0.00047313
0.0 0.0 -0.000346714
0.0 0.0 -0.000346714
-8.67122e-05 -4.24913e-05 -4.59052e-05
-7.78006e-05 -6.20962e-05 -5.0213e-05
-8.46314e-05 4.41088e-05 -4.49534e-05
-8.71026e-05 2.96382e-05 -3.91216e-05
-8.67313e-05 2.88109e-05 -4.17594e-05
0.0 0.0 -0.000346714
-0.000279317 6.54757e-05 -0.000351871
0.0 0.0 -0.000346714
0.0 0.0 -0.00160516
0.0 0.0 -0.000346714
0.0 0.0 -0.00160516
-8.68838e-05 -1.36658e-05 -3.57421e-05
-0.000393262 -0.000136709 -0.000180088
0.0 0.0 -0.000346714
0.0 0.0 -0.000346714
0.0 0.0 -0.000346714
1.60885e-05 -0.000102426 -0.000456368
0.0 0.0 -0.000346714
0.0 0.0 -0.000346714
0.0 0.0 -0.000346714
0.0 0.0 -0.000346714
0.0 0.0 -0.00160516
0.0 0.0 -0.000346714
1.99676e-05 4.09924e-05 7.23044e-05
0.0 0.0 -0.00160516
0.0 0.0 -0.000346714
-8.57209e-05 2.83487e-05 -4.15787e-05
0.0 0.0 -0.000346714
0.0 0.0 -0.00160516
0.0 0.0 -0.000346714
0.0 0.0 -0.000346714
0.0 0.0 -0.00160516
-0.000411245 -2.53395e-06 -0.000177573
-8.83902e-05 -1.49689e-05 -3.85385e-05
-8.62935e-05 -3.1471e-05 -4.08018e-05
-0.00039545 -0.000141085 -0.000199933
-7.29536e-05 5.5011e-05 -6.90332e-05
0.0 0.0 -0.00160516
-0.000138753 1.8651e-05 -0.00085989
-8.88529e-05 2.86212e-05 -3.57017e-05
-0.000454917 7.20346e-05 -5.58769e-05
-0.000441716 -0.00085154 0.000610403
0.0 0.0 -0.000346714
-9.23577e-05 1.77784e-05 -0.000105584
0.0 0.0 -0.000346714
0.0 0.0 -0.000346714
0.0 0.0 -0.000346714
0.0 0.0 -0.000346714
-0.000262308 -0.00014727 -0.000384505
0.0 0.0 -0.000346714
0.0 0.0 -0.000346714
-0.00025211 0.000176537 0.000377082
-7.37388e-05 5.82344e-05 -5.55345e-05
0.0 0.0 -0.000346714
0.000187025 -0.00096063 0.00538224
1.56341e-05 1.99501e-07 0.00207475
0.0 0.0 -0.00160516
0.0 0.0 -0.000346714
-8.68506e-05 1.25142e-05 -2.95351e-05
-0.000140619 5.22571e-06 -0.000713688
0.0 0.0 -0.00160516
0.0 0.0 -0.000346714
-0.000180531 -5.07809e-05 0.000711312
0.0 0.0 -0.000346714
0.000422048 0.000396911 -0.00472751
-8.92098e-05 -1.61688e-05 -3.6127e-05
-0.000229356 1.13071e-06 -5.00063e-05
0.0 0.0 -0.000346714
0.0 0.0 -0.00160516
0.0 0.0 -0.00160516
0.000251447 -0.000229951 0.00229402
-0.000180722 -1.09824e-05 0.000221876
0.0 0.0 -0.000346714
0.0 0.0 -0.000346714
0.0 0.0 -0.00160516
0.0 0.0 -0.000346714
0.0 0.0 -0.00160516
-4.78851e-05 -3.27092e-07 -0.000134718
0.0 0.0 -0.000346714
-8.29808e-05 -1.75195e-05 -4.99788e-05
0.0 0.0 -0.00160516
-8.62304e-05 -1.69799e-05 -4.42875e-05
1.48626e-05 4.60225e-05 0.000118211
0.0 0.0 -0.00160516
0.0 0.0 -0.00160516
0.0 0.0 -0.000346714
0.0 0.0 -0.000346714
-0.000355823 3.99841e-05 0.000293598
0.000305984 0.000408056 0.00403387
0.0 0.0 -0.00160516
0.0 0.0 -0.000346714
-8.5788e-05 -3.24723e-05 -4.40498e-05
-7.91073e-05 -6.50315e-05 -5.41455e-05
-0.000375789 0.000269575 -0.000235863
0.0 0.0 -0.000346714
0.0 0.0 -0.00160516
0.0 0.0 -0.00160516
0.0 0.0 -0.000346714
-8.83212e-05 9.87391e-06 -3.73718e-05
-0.000410772 4.32175e-05 -0.000175737
0.0 0.0 -0.00160516
-8.9047e-05 -4.58939e-06 -3.79499e-05
-0.00118503 -0.00483003 -0.00316505
0.0 0.0 -0.00160516
0.0 0.0 -0.00160516
0.0 0.0 -0.000346714
0.0 0.0 -0.000346714
0.000112008 0.00016909 1.35091e-05
7.18471e-05 0.000290619 -0.000578445
0.0 0.0 -0.00160516
-8.23968e-05 8.67172e-06 -5.20887e-05
0.0 0.0 -0.000346714
0.0 0.0 -0.000346714
0.000257978 -0.000318238 0.000150019
0.0 0.0 -0.000346714
-0.000214282 0.000252431 -8.9386e-05
-0.00302106 -0.0047885 -0.000479407
-0.014585 -0.000777314 0.0737319
-8.17109e-05 -3.4221e-05 -4.47499e-05
-0.000345511 -0.000388777 -0.000280822
0.0 0.0 -0.000346714
-8.7717e-05 2.3709e-05 -3.97214e-05
0.0 0.0 -0.000346714
-0.00876432 0.00115235 0.0206661
0.0 0.0 -0.000346714
0.0 0.0 -0.000346714
0.0 0.0 -0.000346714
0.00168276 0.00318012 -0.00345031
0.0 0.0 -0.00160516
0.0 0.0 -0.000346714
-8.59505e-05 -2.99841e-05 -3.99009e-05
-3.28248e-05 6.48359e-05 -0.000155546
0.0 0.0 -0.000346714
0.0 0.0 -0.000346714
0.0 0.0 -0.000346714
0.0 0.0 -0.000346714
0.0 0.0 -0.00160516
0.0 0.0 -0.000346714
0.0 0.0 -0.000346714
0.0 0.0 -0.000346714
0.0 0.0 -0.000346714
0.0 0.0 -0.00160516
0.0 0.0 -0.000346714
0.0 0.0 -0.000346714
0.0 0.0 -0.000346714
0.0 0.0 -0.00160516
0.0 0.0 -0.00160516
0.0 0.0 -0.00160516
0.0 0.0 -0.000346714
0.0 0.0 -0.00160516
0.0 0.0 -0.000346714
0.0 0.0 -0.000346714
-8.97696e-05 2.15365e-05 -3.8335e-05
0.000414004 -0.00345722 0.00820131
0.0 0.0 -0.00160516
0.0 0.0 -0.000346714
0.0 0.0 -0.00160516
0.0 0.0 -0.000346714
0.0 0.0 -0.000346714
0.0 0.0 -0.00160516
0.0 0.0 -0.00160516
0.0 0.0 -0.000346714
0.0 0.0 -0.000346714
0.0 0.0 -0.000346714
0.0 0.0 -0.00160516
0.0 0.0 -0.00160516
-0.000295941 -0.00044545 -0.000366645
0.0 0.0 -0.00160516
-8.52101e-05 3.80207e-05 -4.24415e-05