# vtk DataFile Version 2.0
Generated by lpp.py
ASCII
DATASET POLYDATA
POINTS 689 float
-0.499794 -0.00793845 -0.394678
-0.480921 -0.00132029 -0.386268
-0.49779 0.0292507 -0.384198
-0.489487 0.0037871 -0.37866
-0.468861 0.01086 -0.365507
-0.498234 -0.0502503 -0.351463
-0.460194 -0.00508933 -0.350437
-0.464381 0.0296137 -0.348922
-0.453479 0.0287786 -0.343818
-0.443174 0.0162989 -0.340435
-0.44104 0.0244539 -0.332107
-0.435766 -0.00692971 -0.330011
-0.43861 0.0289559 -0.327592
-0.431575 0.0183598 -0.32449
-0.438852 0.021494 -0.323692
-0.448936 0.039387 -0.327109
-0.438489 -0.00720192 -0.322218
-0.428235 -0.000979235 -0.321738
-0.428271 0.00541529 -0.32182
-0.428708 0.0123399 -0.319567
-0.425529 -0.00129094 -0.317025
-0.413412 0.00415351 -0.312823
-0.425917 0.0118611 -0.315588
-0.429931 0.0270984 -0.31553
-0.432905 0.0389544 -0.312489
-0.419706 0.0052171 -0.310273
-0.416728 0.0185886 -0.308204
-0.421544 -0.0220514 -0.306778
-0.418472 -0.0104829 -0.308022
-0.415739 -0.00843375 -0.306043
-0.427554 0.0413735 -0.30695
-0.420668 -0.0336716 -0.303726
-0.41045 -0.0112327 -0.300456
-0.390063 -0.00668072 -0.289983
-0.387263 -0.00838076 -0.285477
-0.395755 0.013814 -0.289065
-0.392459 -0.00753852 -0.284144
-0.388948 0.00542618 -0.2831
-0.390494 0.00954482 -0.285009
-0.395802 0.0237875 -0.284826
-0.384913 -0.0015583 -0.280121
-0.386783 0.00947864 -0.281155
-0.383202 0.00849146 -0.28005
-0.392743 0.0256384 -0.279223
-0.39912 0.0303873 -0.282975
-0.38272 -0.00802815 -0.276645
-0.383906 0.0195192 -0.277256
-0.376965 -0.00995048 -0.272969
-0.374212 0.00520632 -0.272241
-0.370823 0.00643083 -0.27197
-0.400736 -0.0462423 -0.27089
-0.374136 -0.00814486 -0.269451
-0.378828 0.0258706 -0.2698
-0.361668 -0.00699029 -0.262737
-0.36686 -0.00393007 -0.265307
-0.358295 -0.0075938 -0.258926
-0.372352 0.0386565 -0.260349
-0.35434 -0.0207547 -0.25791
-0.386179 -0.0138732 -0.254808
-0.343829 0.00131168 -0.251537
-0.342783 0.00851899 -0.251784
-0.348996 0.0112856 -0.254508
-0.338994 -0.0205934 -0.249068
-0.339511 0.00642396 -0.250347
-0.338929 0.00938609 -0.249192
-0.343118 0.0284823 -0.247676
-0.340384 -0.024442 -0.248018
-0.337089 -0.0219538 -0.244337
-0.333288 -0.0235826 -0.244104
-0.327245 0.004693 -0.243937
-0.333544 0.0177874 -0.245378
-0.345534 -0.0401771 -0.243364
-0.327091 -0.0211476 -0.240502
-0.321681 -0.0183804 -0.239928
-0.323414 0.0031164 -0.241241
-0.318741 0.00781697 -0.240051
-0.323351 0.011263 -0.241783
-0.316626 -0.026662 -0.235914
-0.314281 -0.00876093 -0.238233
-0.315898 -0.000906087 -0.238231
-0.312136 0.00441468 -0.237485
-0.311247 0.00976057 -0.236774
-0.312392 0.0125754 -0.237079
-0.311903 0.0168338 -0.236124
-0.316985 0.0176153 -0.236996
-0.319307 0.0209336 -0.238418
-0.335885 0.0406299 -0.23903
-0.333259 0.039257 -0.238234
-0.312521 -0.0361408 -0.231293
-0.30713 -0.0212923 -0.233303
-0.301756 0.000349881 -0.233366
-0.3021 -0.00352018 -0.233399
-0.308012 0.00474936 -0.234641
-0.315689 0.0296367 -0.234723
-0.318368 0.0314031 -0.235207
-0.303807 -0.0248999 -0.231061
-0.298783 -0.00435591 -0.23197
-0.295529 -0.00389084 -0.229531
-0.300196 0.0154847 -0.231502
-0.30499 0.0188371 -0.231752
-0.300329 0.0236094 -0.229976
-0.299215 -0.0304149 -0.227572
-0.300365 -0.0262383 -0.228279
-0.293125 -0.017083 -0.227283
-0.287108 -0.00656024 -0.226969
-0.283676 -0.0059874 -0.225542
-0.291254 5.80244e-05 -0.227863
-0.286817 0.0105132 -0.225333
-0.293335 0.0173992 -0.227168
-0.297237 -0.0418807 -0.222637
-0.290033 -0.0262693 -0.224051
-0.280783 -0.0143778 -0.222477
-0.281627 -0.00944604 -0.224453
-0.280281 -0.00152261 -0.223176
-0.272047 0.000296075 -0.220836
-0.278889 0.00349279 -0.223526
-0.280949 0.00857034 -0.224084
-0.282498 0.0146008 -0.22425
-0.325964 -0.0585787 -0.223134
-0.279143 -0.0282687 -0.220189
-0.275435 -0.0247904 -0.219549
-0.271198 -0.0178836 -0.219092
-0.267052 0.000751373 -0.2176
-0.265639 0.00789444 -0.217741
-0.276946 0.00766833 -0.221401
-0.271649 0.00708121 -0.219228
-0.268944 0.0162039 -0.218265
-0.2772 0.021393 -0.219717
-0.259666 -0.00361797 -0.214428
-0.264428 -0.00351633 -0.216443
-0.262643 0.000595826 -0.216828
-0.260288 0.00220288 -0.215744
-0.258115 0.000196215 -0.214921
-0.263903 0.0137552 -0.216516
-0.268764 0.0233163 -0.215962
-0.265885 -0.0281727 -0.213544
-0.251955 -0.0205292 -0.210488
-0.250952 -0.00301053 -0.210779
-0.250018 0.00126036 -0.21144
-0.257983 0.00781232 -0.214517
-0.260298 0.0220847 -0.212632
-0.254297 0.0202834 -0.211486
-0.255365 0.0231746 -0.211499
-0.262092 0.0272129 -0.211934
-0.265375 0.0287513 -0.214292
-0.263489 0.0336529 -0.212157
-0.275807 0.0428186 -0.213731
-0.27062 0.0444268 -0.210965
-0.249362 -0.0148233 -0.209136
-0.244461 -0.0159367 -0.206842
-0.245749 -0.0127816 -0.208941
-0.249255 -0.0112843 -0.205848
-0.245808 -0.00948351 -0.209378
-0.243092 -0.00073675 -0.207495
-0.246689 0.0187398 -0.208538
-0.253931 0.0260791 -0.210276
-0.261497 -0.0456249 -0.207067
-0.24172 -0.0256256 -0.2053
-0.239936 -0.0176601 -0.204857
-0.240279 -0.00943155 -0.205874
-0.236063 -0.0025261 -0.204355
-0.236463 0.000126505 -0.205731
-0.239106 0.00104567 -0.20457
-0.234658 0.00379601 -0.204859
-0.237141 0.00954094 -0.204624
-0.242111 0.0143734 -0.206157
-0.245621 -0.0409039 -0.20263
-0.241717 -0.0308757 -0.202904
-0.231267 -0.0192406 -0.201009
-0.230853 -0.0153587 -0.20244
-0.22391 -0.0121295 -0.19976
-0.226457 -0.00782017 -0.201225
-0.227128 -0.00286879 -0.200751
-0.230109 0.00320288 -0.202961
-0.240693 0.0369751 -0.201969
-0.287582 -0.0696154 -0.199995
-0.233356 -0.0409049 -0.197396
-0.231999 -0.0278595 -0.19956
-0.219924 -0.0229246 -0.196666
-0.220433 -0.00884327 -0.197454
-0.220762 -0.00388576 -0.198052
-0.225015 0.00528271 -0.199653
-0.21399 0.00660076 -0.196043
-0.217328 0.012424 -0.197021
-0.227771 0.0224572 -0.20015
-0.224437 0.0226924 -0.198102
-0.221504 0.0210365 -0.1975
-0.230265 0.0321856 -0.198917
-0.217922 -0.0129691 -0.196082
-0.216229 -0.00929955 -0.196153
-0.215559 -0.00378421 -0.195824
-0.211273 -0.00495651 -0.193536
-0.216203 0.00169664 -0.196036
-0.211006 0.000421801 -0.193821
-0.206693 0.000874666 -0.1931
-0.211878 0.0051926 -0.194129
-0.207576 0.00646184 -0.19343
-0.212602 0.00928411 -0.19496
-0.206978 0.00937796 -0.192988
-0.214629 0.0142549 -0.194576
-0.212551 0.0208523 -0.193875
-0.219036 0.0239463 -0.196221
-0.259349 -0.0679427 -0.191192
-0.209903 -0.0288667 -0.1901
-0.205062 -0.0286802 -0.189245
-0.208947 -0.0237191 -0.192013
-0.205791 -0.0243579 -0.189449
-0.206781 -0.0181558 -0.19082
-0.203076 -0.00948112 -0.190197
-0.200287 0.0101242 -0.19005
-0.20636 0.0173911 -0.191858
-0.20735 0.0325633 -0.189368
-0.191125 -0.0190135 -0.184957
-0.194187 -0.0155388 -0.185782
-0.195136 -0.0109698 -0.187827
-0.194505 -0.00789317 -0.187898
-0.191912 -0.0070555 -0.186559
-0.19628 -0.0032514 -0.188678
-0.190828 0.00519363 -0.186453
-0.193245 0.0154146 -0.186584
-0.195075 0.0196791 -0.186916
-0.204241 0.0388747 -0.186312
-0.185059 -0.0121025 -0.183236
-0.190289 -0.0102586 -0.184578
-0.188747 -0.00482331 -0.185488
-0.190095 -0.000798633 -0.185001
-0.184428 -0.00321338 -0.18366
-0.186488 0.00258436 -0.184631
-0.189336 0.00862118 -0.185201
-0.183873 0.0108968 -0.183036
-0.184865 0.0171059 -0.182892
-0.195047 0.0216661 -0.184393
-0.193527 0.0242399 -0.184462
-0.181076 -0.022175 -0.18036
-0.179296 -0.0167599 -0.180148
-0.172954 -0.0100999 -0.178651
-0.19403 -0.00343585 -0.182751
-0.186989 -0.0024588 -0.180274
-0.173433 0.00134811 -0.179116
-0.191829 0.00427071 -0.181979
-0.189536 0.0103567 -0.181208
-0.179342 0.00922767 -0.180186
-0.185769 0.0229836 -0.181322
-0.193673 0.0374846 -0.18132
-0.175279 -0.0297921 -0.17677
-0.171666 -0.015084 -0.177683
-0.170857 -0.0120668 -0.177592
-0.168338 -0.0107592 -0.176612
-0.176693 -0.00490915 -0.175665
-0.169318 0.000914133 -0.177286
-0.170124 0.00694001 -0.176469
-0.173155 0.0108877 -0.177413
-0.169927 0.0241901 -0.175539
-0.174197 0.0286125 -0.176461
-0.17047 0.0270734 -0.175223
-0.161245 -0.0224249 -0.172364
-0.159443 -0.0184365 -0.171018
-0.16481 -0.0104846 -0.174065
-0.156689 0.00694995 -0.171872
-0.192735 0.0096604 -0.17643
-0.163166 0.0172366 -0.173808
-0.161279 0.0199814 -0.171602
-0.159391 -0.0327417 -0.169477
-0.156969 -0.0293162 -0.169132
-0.157672 -0.0263645 -0.170156
-0.154318 -0.0249401 -0.167935
-0.151666 -0.0197697 -0.168698
-0.153282 -0.00811192 -0.170449
-0.152257 -0.0118333 -0.16982
-0.149026 -0.0101494 -0.168543
-0.168356 -0.00716769 -0.171012
-0.163642 -0.00663861 -0.174007
-0.149664 -0.00422207 -0.169122
-0.155564 -0.00294388 -0.170003
-0.152215 0.00239281 -0.169069
-0.152225 0.0129306 -0.169563
-0.154781 0.0179778 -0.1702
-0.151828 0.0173216 -0.168971
-0.235323 -0.0842658 -0.168227
-0.160326 -0.0302865 -0.166666
-0.146968 -0.0241766 -0.16604
-0.14765 -0.0175028 -0.167118
-0.150048 -0.0142155 -0.167545
-0.144695 -0.00565955 -0.166967
-0.145715 -0.00255663 -0.166607
-0.142979 -0.00245573 -0.164402
-0.147288 0.00109991 -0.167003
-0.141272 0.00245022 -0.164429
-0.14446 0.00479374 -0.16593
-0.150569 0.00837614 -0.169165
-0.142236 0.00774287 -0.165739
-0.144853 0.0117976 -0.165252
-0.149042 0.0135115 -0.167098
-0.153774 0.0213092 -0.168264
-0.152594 -0.0430744 -0.163972
-0.139374 -0.0281335 -0.162249
-0.143682 -0.0225647 -0.163859
-0.133932 -0.0157078 -0.161724
-0.149217 -0.00565796 -0.159023
-0.138287 -0.00544156 -0.163169
-0.135969 0.00197722 -0.163348
-0.132568 -0.000505897 -0.161951
-0.174958 0.00639198 -0.164711
-0.137595 0.00618041 -0.163856
-0.138738 0.0106066 -0.164157
-0.138185 0.0183668 -0.163121
-0.145382 -0.0537634 -0.157279
-0.148712 -0.0519728 -0.159232
-0.143218 -0.0459987 -0.157821
-0.129755 -0.0167145 -0.159908
-0.126165 -0.0173351 -0.157228
-0.129716 -0.0120939 -0.159183
-0.139073 -0.000749453 -0.161269
-0.122376 -0.00233895 -0.157626
-0.129671 0.0140705 -0.160018
-0.145369 0.0188493 -0.161799
-0.142073 0.033558 -0.160951
-0.14104 -0.0510969 -0.156594
-0.120907 -0.0241847 -0.155146
-0.119799 -0.0168903 -0.1557
-0.121359 -0.0112257 -0.156783
-0.118212 -0.0132605 -0.154237
-0.115884 -0.00946661 -0.154535
[...]
POINT_DATA 689
VECTORS i float
0.0 0.0 0.0
0.0 0.0 0.0
0.0 0.0 0.0
0.0 0.0 0.0
0.0 0.0 0.0
0.0 0.0 0.0
0.0 0.0 0.0
0.0 0.0 0.0
0.0 0.0 0.0
0.0 0.0 0.0
0.0 0.0 0.0
0.0 0.0 0.0
0.0 0.0 0.0
0.0 0.0 0.0
0.0 0.0 0.0
0.0 0.0 0.0
0.0 0.0 0.0
0.0 0.0 0.0
0.0 0.0 0.0
0.0 0.0 0.0
0.0 0.0 0.0
0.0 0.0 0.0
0.0 0.0 0.0
0.0 0.0 0.0
0.0 0.0 0.0
0.0 0.0 0.0
0.0 0.0 0.0
0.0 0.0 0.0
0.0 0.0 0.0
0.0 0.0 0.0
0.0 0.0 0.0
0.0 0.0 0.0
0.0 0.0 0.0
0.0 0.0 0.0
0.0 0.0 0.0
0.0 0.0 0.0
0.0 0.0 0.0
0.0 0.0 0.0
0.0 0.0 0.0
0.0 0.0 0.0
0.0 0.0 0.0
0.0 0.0 0.0
0.0 0.0 0.0
0.0 0.0 0.0
0.0 0.0 0.0
0.0 0.0 0.0
0.0 0.0 0.0
0.0 0.0 0.0
0.0 0.0 0.0
0.0 0.0 0.0
0.0 0.0 0.0
0.0 0.0 0.0
0.0 0.0 0.0
0.0 0.0 0.0
0.0 0.0 0.0
0.0 0.0 0.0
0.0 0.0 0.0
0.0 0.0 0.0
0.0 0.0 0.0
0.0 0.0 0.0
0.0 0.0 0.0
0.0 0.0 0.0
0.0 0.0 0.0
0.0 0.0 0.0
0.0 0.0 0.0
0.0 0.0 0.0
0.0 0.0 0.0
0.0 0.0 0.0
0.0 0.0 0.0
0.0 0.0 0.0
0.0 0.0 0.0
0.0 0.0 0.0
0.0 0.0 0.0
0.0 0.0 0.0
0.0 0.0 0.0
0.0 0.0 0.0
0.0 0.0 0.0
0.0 0.0 0.0
0.0 0.0 0.0
0.0 0.0 0.0
0.0 0.0 0.0
0.0 0.0 0.0
0.0 0.0 0.0
0.0 0.0 0.0
0.0 0.0 0.0
0.0 0.0 0.0
0.0 0.0 0.0
0.0 0.0 0.0
0.0 0.0 0.0
0.0 0.0 0.0
0.0 0.0 0.0
0.0 0.0 0.0
0.0 0.0 0.0
0.0 0.0 0.0
0.0 0.0 0.0
0.0 0.0 0.0
0.0 0.0 0.0
0.0 0.0 0.0
0.0 0.0 0.0
0.0 0.0 0.0
0.0 0.0 0.0
0.0 0.0 0.0
0.0 0.0 0.0
0.0 0.0 0.0
0.0 0.0 0.0
0.0 0.0 0.0
0.0 0.0 0.0
0.0 0.0 0.0
0.0 0.0 0.0
0.0 0.0 0.0
0.0 0.0 0.0
0.0 0.0 0.0
0.0 0.0 0.0
0.0 0.0 0.0
0.0 0.0 0.0
0.0 0.0 0.0
0.0 0.0 0.0
0.0 0.0 0.0
0.0 0.0 0.0
0.0 0.0 0.0
0.0 0.0 0.0
0.0 0.0 0.0
0.0 0.0 0.0
0.0 0.0 0.0
0.0 0.0 0.0
0.0 0.0 0.0
0.0 0.0 0.0
0.0 0.0 0.0
0.0 0.0 0.0
0.0 0.0 0.0
0.0 0.0 0.0
0.0 0.0 0.0
0.0 0.0 0.0
0.0 0.0 0.0
0.0 0.0 0.0
0.0 0.0 0.0
0.0 0.0 0.0
0.0 0.0 0.0
0.0 0.0 0.0
0.0 0.0 0.0
0.0 0.0 0.0
0.0 0.0 0.0
0.0 0.0 0.0
0.0 0.0 0.0
0.0 0.0 0.0
0.0 0.0 0.0
0.0 0.0 0.0
0.0 0.0 0.0
0.0 0.0 0.0
0.0 0.0 0.0
0.0 0.0 0.0
0.0 0.0 0.0
0.0 0.0 0.0
0.0 0.0 0.0
0.0 0.0 0.0
0.0 0.0 0.0
0.0 0.0 0.0
0.0 0.0 0.0
0.0 0.0 0.0
0.0 0.0 0.0
0.0 0.0 0.0
0.0 0.0 0.0
0.0 0.0 0.0
0.0 0.0 0.0
0.0 0.0 0.0
0.0 0.0 0.0
0.0 0.0 0.0
0.0 0.0 0.0
0.0 0.0 0.0
0.0 0.0 0.0
0.0 0.0 0.0
0.0 0.0 0.0
0.0 0.0 0.0
0.0 0.0 0.0
0.0 0.0 0.0
0.0 0.0 0.0
0.0 0.0 0.0
0.0 0.0 0.0
0.0 0.0 0.0
0.0 0.0 0.0
0.0 0.0 0.0
0.0 0.0 0.0
0.0 0.0 0.0
0.0 0.0 0.0
0.0 0.0 0.0
0.0 0.0 0.0
0.0 0.0 0.0
0.0 0.0 0.0
0.0 0.0 0.0
0.0 0.0 0.0
0.0 0.0 0.0
0.0 0.0 0.0
0.0 0.0 0.0
0.0 0.0 0.0
0.0 0.0 0.0
0.0 0.0 0.0
0.0 0.0 0.0
0.0 0.0 0.0
0.0 0.0 0.0
0.0 0.0 0.0
0.0 0.0 0.0
0.0 0.0 0.0
0.0 0.0 0.0
0.0 0.0 0.0
0.0 0.0 0.0
0.0 0.0 0.0
0.0 0.0 0.0
0.0 0.0 0.0
0.0 0.0 0.0
0.0 0.0 0.0
0.0 0.0 0.0
0.0 0.0 0.0
0.0 0.0 0.0
0.0 0.0 0.0
0.0 0.0 0.0
0.0 0.0 0.0
0.0 0.0 0.0
0.0 0.0 0.0
0.0 0.0 0.0
0.0 0.0 0.0
0.0 0.0 0.0
0.0 0.0 0.0
0.0 0.0 0.0
0.0 0.0 0.0
0.0 0.0 0.0
0.0 0.0 0.0
0.0 0.0 0.0
0.0 0.0 0.0
0.0 0.0 0.0
0.0 0.0 0.0
0.0 0.0 0.0
0.0 0.0 0.0
0.0 0.0 0.0
0.0 0.0 0.0
0.0 0.0 0.0
0.0 0.0 0.0
0.0 0.0 0.0
0.0 0.0 0.0
0.0 0.0 0.0
0.0 0.0 0.0
0.0 0.0 0.0
0.0 0.0 0.0
0.0 0.0 0.0
0.0 0.0 0.0
0.0 0.0 0.0
0.0 0.0 0.0
0.0 0.0 0.0
0.0 0.0 0.0
0.0 0.0 0.0
0.0 0.0 0.0
0.0 0.0 0.0
0.0 0.0 0.0
0.0 0.0 0.0
0.0 0.0 0.0
0.0 0.0 0.0
0.0 0.0 0.0
0.0 0.0 0.0
0.0 0.0 0.0
0.0 0.0 0.0
0.0 0.0 0.0
0.0 0.0 0.0
0.0 0.0 0.0
0.0 0.0 0.0
0.0 0.0 0.0
0.0 0.0 0.0
0.0 0.0 0.0
0.0 0.0 0.0
0.0 0.0 0.0
0.0 0.0 0.0
0.0 0.0 0.0
0.0 0.0 0.0
0.0 0.0 0.0
0.0 0.0 0.0
0.0 0.0 0.0
0.0 0.0 0.0
0.0 0.0 0.0
0.0 0.0 0.0
0.0 0.0 0.0
0.0 0.0 0.0
0.0 0.0 0.0
0.0 0.0 0.0
0.0 0.0 0.0
0.0 0.0 0.0
0.0 0.0 0.0
0.0 0.0 0.0
0.0 0.0 0.0
0.0 0.0 0.0
0.0 0.0 0.0
0.0 0.0 0.0
0.0 0.0 0.0
0.0 0.0 0.0
0.0 0.0 0.0
0.0 0.0 0.0
0.0 0.0 0.0
0.0 0.0 0.0
0.0 0.0 0.0
0.0 0.0 0.0
0.0 0.0 0.0
0.0 0.0 0.0
0.0 0.0 0.0
0.0 0.0 0.0
0.0 0.0 0.0
0.0 0.0 0.0
0.0 0.0 0.0
0.0 0.0 0.0
0.0 0.0 0.0
0.0 0.0 0.0
0.0 0.0 0.0
0.0 0.0 0.0
0.0 0.0 0.0
0.0 0.0 0.0
0.0 0.0 0.0
0.0 0.0 0.0
0.0 0.0 0.0
0.0 0.0 0.0
0.0 0.0 0.0
0.0 0.0 0.0
0.0 0.0 0.0
0.0 0.0 0.0
0.0 0.0 0.0
0.0 0.0 0.0
0.0 0.0 0.0
0.0 0.0 0.0
0.0 0.0 0.0
0.0 0.0 0.0
0.0 0.0 0.0
0.0 0.0 0.0
0.0 0.0 0.0
0.0 0.0 0.0
0.0 0.0 0.0
0.0 0.0 0.0
0.0 0.0 0.0
0.0 0.0 0.0
0.0 0.0 0.0
0.0 0.0 0.0
0.0 0.0 0.0
0.0 0.0 0.0
0.0 0.0 0.0
0.0 0.0 0.0
0.0 0.0 0.0
0.0 0.0 0.0
0.0 0.0 0.0
0.0 0.0 0.0
0.0 0.0 0.0
0.0 0.0 0.0
0.0 0.0 0.0
0.0 0.0 0.0
0.0 0.0 0.0
0.0 0.0 0.0
0.0 0.0 0.0
0.0 0.0 0.0
0.0 0.0 0.0
0.0 0.0 0.0
0.0 0.0 0.0
0.0 0.0 0.0
0.0 0.0 0.0
0.0 0.0 0.0
0.0 0.0 0.0
0.0 0.0 0.0
0.0 0.0 0.0
0.0 0.0 0.0
0.0 0.0 0.0
0.0 0.0 0.0
0.0 0.0 0.0
0.0 0.0 0.0
0.0 0.0 0.0
0.0 0.0 0.0
0.0 0.0 0.0
0.0 0.0 0.0
0.0 0.0 0.0
0.0 0.0 0.0
0.0 0.0 0.0
0.0 0.0 0.0
0.0 0.0 0.0
0.0 0.0 0.0
0.0 0.0 0.0
0.0 0.0 0.0
0.0 0.0 0.0
0.0 0.0 0.0
0.0 0.0 0.0
0.0 0.0 0.0
0.0 0.0 0.0
0.0 0.0 0.0
0.0 0.0 0.0
0.0 0.0 0.0
0.0 0.0 0.0
0.0 0.0 0.0
0.0 0.0 0.0
0.0 0.0 0.0
0.0 0.0 0.0
0.0 0.0 0.0
0.0 0.0 0.0
0.0 0.0 0.0
0.0 0.0 0.0
0.0 0.0 0.0
0.0 0.0 0.0
0.0 0.0 0.0
0.0 0.0 0.0
0.0 0.0 0.0
0.0 0.0 0.0
0.0 0.0 0.0
0.0 0.0 0.0
0.0 0.0 0.0
0.0 0.0 0.0
0.0 0.0 0.0
0.0 0.0 0.0
0.0 0.0 0.0
0.0 0.0 0.0
0.0 0.0 0.0
0.0 0.0 0.0
0.0 0.0 0.0
0.0 0.0 0.0
0.0 0.0 0.0
0.0 0.0 0.0
0.0 0.0 0.0
0.0 0.0 0.0
0.0 0.0 0.0
0.0 0.0 0.0
0.0 0.0 0.0
0.0 0.0 0.0
0.0 0.0 0.0
0.0 0.0 0.0
0.0 0.0 0.0
0.0 0.0 0.0
0.0 0.0 0.0
0.0 0.0 0.0
0.0 0.0 0.0
0.0 0.0 0.0
0.0 0.0 0.0
0.0 0.0 0.0
0.0 0.0 0.0
0.0 0.0 0.0
0.0 0.0 0.0
0.0 0.0 0.0
0.0 0.0 0.0
0.0 0.0 0.0
0.0 0.0 0.0
0.0 0.0 0.0
0.0 0.0 0.0
0.0 0.0 0.0
0.0 0.0 0.0
0.0 0.0 0.0
0.0 0.0 0.0
0.0 0.0 0.0
0.0 0.0 0.0
0.0 0.0 0.0
0.0 0.0 0.0
0.0 0.0 0.0
0.0 0.0 0.0
0.0 0.0 0.0
0.0 0.0 0.0
0.0 0.0 0.0
0.0 0.0 0.0
0.0 0.0 0.0
0.0 0.0 0.0
0.0 0.0 0.0
0.0 0.0 0.0
0.0 0.0 0.0
0.0 0.0 0.0
0.0 0.0 0.0
0.0 0.0 0.0
0.0 0.0 0.0
0.0 0.0 0.0
0.0 0.0 0.0
0.0 0.0 0.0
0.0 0.0 0.0
0.0 0.0 0.0
0.0 0.0 0.0
0.0 0.0 0.0
0.0 0.0 0.0
0.0 0.0 0.0
0.0 0.0 0.0
0.0 0.0 0.0
0.0 0.0 0.0
0.0 0.0 0.0
0.0 0.0 0.0
0.0 0.0 0.0
0.0 0.0 0.0
0.0 0.0 0.0
0.0 0.0 0.0
0.0 0.0 0.0
0.0 0.0 0.0
0.0 0.0 0.0
0.0 0.0 0.0
0.0 0.0 0.0
0.0 0.0 0.0
0.0 0.0 0.0
0.0 0.0 0.0
0.0 0.0 0.0
0.0 0.0 0.0
0.0 0.0 0.0
0.0 0.0 0.0
0.0 0.0 0.0
0.0 0.0 0.0
0.0 0.0 0.0
0.0 0.0 0.0
0.0 0.0 0.0
0.0 0.0 0.0
0.0 0.0 0.0
0.0 0.0 0.0
0.0 0.0 0.0
0.0 0.0 0.0
0.0 0.0 0.0
0.0 0.0 0.0
0.0 0.0 0.0
0.0 0.0 0.0
0.0 0.0 0.0
0.0 0.0 0.0
0.0 0.0 0.0
0.0 0.0 0.0
0.0 0.0 0.0
0.0 0.0 0.0
0.0 0.0 0.0
0.0 0.0 0.0
0.0 0.0 0.0
0.0 0.0 0.0
0.0 0.0 0.0
0.0 0.0 0.0
0.0 0.0 0.0
0.0 0.0 0.0
0.0 0.0 0.0
0.0 0.0 0.0
0.0 0.0 0.0
0.0 0.0 0.0
0.0 0.0 0.0
0.0 0.0 0.0
0.0 0.0 0.0
0.0 0.0 0.0
0.0 0.0 0.0
0.0 0.0 0.0
0.0 0.0 0.0
0.0 0.0 0.0
0.0 0.0 0.0
0.0 0.0 0.0
0.0 0.0 0.0
0.0 0.0 0.0
0.0 0.0 0.0
0.0 0.0 0.0
0.0 0.0 0.0
0.0 0.0 0.0
0.0 0.0 0.0
0.0 0.0 0.0
0.0 0.0 0.0
0.0 0.0 0.0
0.0 0.0 0.0
0.0 0.0 0.0
0.0 0.0 0.0
0.0 0.0 0.0
0.0 0.0 0.0
0.0 0.0 0.0
0.0 0.0 0.0
0.0 0.0 0.0
0.0 0.0 0.0
0.0 0.0 0.0
0.0 0.0 0.0
0.0 0.0 0.0
0.0 0.0 0.0
0.0 0.0 0.0
0.0 0.0 0.0
0.0 0.0 0.0
0.0 0.0 0.0
0.0 0.0 0.0
0.0 0.0 0.0
0.0 0.0 0.0
0.0 0.0 0.0
0.0 0.0 0.0
0.0 0.0 0.0
0.0 0.0 0.0
0.0 0.0 0.0
0.0 0.0 0.0
0.0 0.0 0.0
0.0 0.0 0.0
0.0 0.0 0.0
0.0 0.0 0.0
0.0 0.0 0.0
0.0 0.0 0.0
0.0 0.0 0.0
0.0 0.0 0.0
0.0 0.0 0.0
0.0 0.0 0.0
0.0 0.0 0.0
0.0 0.0 0.0
0.0 0.0 0.0
0.0 0.0 0.0
0.0 0.0 0.0
0.0 0.0 0.0
0.0 0.0 0.0
0.0 0.0 0.0
0.0 0.0 0.0
0.0 0.0 0.0
0.0 0.0 0.0
0.0 0.0 0.0
0.0 0.0 0.0
0.0 0.0 0.0
0.0 0.0 0.0
0.0 0.0 0.0
0.0 0.0 0.0
0.0 0.0 0.0
0.0 0.0 0.0
0.0 0.0 0.0
0.0 0.0 0.0
0.0 0.0 0.0
0.0 0.0 0.0
0.0 0.0 0.0
0.0 0.0 0.0
0.0 0.0 0.0
0.0 0.0 0.0
0.0 0.0 0.0
0.0 0.0 0.0
0.0 0.0 0.0
0.0 0.0 0.0
0.0 0.0 0.0
0.0 0.0 0.0
0.0 0.0 0.0
0.0 0.0 0.0
0.0 0.0 0.0
0.0 0.0 0.0
0.0 0.0 0.0
0.0 0.0 0.0
0.0 0.0 0.0
0.0 0.0 0.0
0.0 0.0 0.0
0.0 0.0 0.0
0.0 0.0 0.0
0.0 0.0 0.0
0.0 0.0 0.0
0.0 0.0 0.0
0.0 0.0 0.0
0.0 0.0 0.0
0.0 0.0 0.0
0.0 0.0 0.0
0.0 0.0 0.0
0.0 0.0 0.0
0.0 0.0 0.0
0.0 0.0 0.0
0.0 0.0 0.0
0.0 0.0 0.0
0.0 0.0 0.0
0.0 0.0 0.0
0.0 0.0 0.0
0.0 0.0 0.0
0.0 0.0 0.0
0.0 0.0 0.0
0.0 0.0 0.0
0.0 0.0 0.0
0.0 0.0 0.0
0.0 0.0 0.0
0.0 0.0 0.0
0.0 0.0 0.0
0.0 0.0 0.0
0.0 0.0 0.0
0.0 0.0 0.0
0.0 0.0 0.0
0.0 0.0 0.0
0.0 0.0 0.0
0.0 0.0 0.0
0.0 0.0 0.0
0.0 0.0 0.0
0.0 0.0 0.0
0.0 0.0 0.0
0.0 0.0 0.0
0.0 0.0 0.0
0.0 0.0 0.0
0.0 0.0 0.0
0.0 0.0 0.0
0.0 0.0 0.0
0.0 0.0 0.0
0.0 0.0 0.0
0.0 0.0 0.0
0.0 0.0 0.0
0.0 0.0 0.0
0.0 0.0 0.0
0.0 0.0 0.0
0.0 0.0 0.0
0.0 0.0 0.0
0.0 0.0 0.0
0.0 0.0 0.0
0.0 0.0 0.0
0.0 0.0 0.0
0.0 0.0 0.0
0.0 0.0 0.0
0.0 0.0 0.0
0.0 0.0 0.0
0.0 0.0 0.0
0.0 0.0 0.0
0.0 0.0 0.0
0.0 0.0 0.0
0.0 0.0 0.0
0.0 0.0 0.0
VECTORS f float
0.0 0.0 -0.00160516
0.0 0.0 -0.000346714
0.0 0.0 -0.000346714
0.0 0.0 -0.000346714
0.0 0.0 -0.00160516
0.0 0.0 -0.000346714
0.0 0.0 -0.00160516
0.0 0.0 -0.000346714
0.0 0.0 -0.000346714
0.0 0.0 -0.000346714
0.0 0.0 -0.000346714
0.0 0.0 -0.000346714
0.0 0.0 -0.000346714
0.0 0.0 -0.000346714
0.0 0.0 -0.00160516
0.0 0.0 -0.00160516
0.0 0.0 -0.00160516
0.0 0.0 -0.000346714
0.0 0.0 -0.000346714
0.0 0.0 -0.000346714
0.0 0.0 -0.000346714
0.0 0.0 -0.000346714
0.0 0.0 -0.00160516
0.0 0.0 -0.000346714
0.0 0.0 -0.000346714
0.0 0.0 -0.000346714
0.0 0.0 -0.000346714
0.0 0.0 -0.00160516
0.0 0.0 -0.000346714
0.0 0.0 -0.000346714
0.0 0.0 -0.000346714
0.0 0.0 -0.000346714
0.0 0.0 -0.00160516
0.0 0.0 -0.000346714
0.0 0.0 -0.000346714
0.0 0.0 -0.000346714
0.0 0.0 -0.00160516
0.0 0.0 -0.00160516
0.0 0.0 -0.000346714
0.0 0.0 -0.00160516
0.0 0.0 -0.000346714
0.0 0.0 -0.000346714
0.0 0.0 -0.000346714
0.0 0.0 -0.00160516
0.0 0.0 -0.000346714
0.0 0.0 -0.00160516
0.0 0.0 -0.000346714
0.0 0.0 -0.00160516
0.0 0.0 -0.000346714
0.0 0.0 -0.000346714
0.0 0.0 -0.000346714
0.0 0.0 -0.000346714
0.0 0.0 -0.00160516
0.0 0.0 -0.000346714
0.0 0.0 -0.00160516
0.0 0.0 -0.00160516
0.0 0.0 -0.000346714
0.0 0.0 -0.000346714
0.0 0.0 -0.00160516
0.0 0.0 -0.00160516
0.0 0.0 -0.000346714
0.0 0.0 -0.00160516
0.0 0.0 -0.000346714
0.0 0.0 -0.000346714
0.0 0.0 -0.000346714
0.0 0.0 -0.000346714
0.0 0.0 -0.000346714
0.0 0.0 -0.00160516
0.0 0.0 -0.000346714
0.0 0.0 -0.000346714
0.0 0.0 -0.000346714
0.0 0.0 -0.000346714
0.0 0.0 -0.00160516
0.0 0.0 -0.000346714
0.0 0.0 -0.00160516
-8.93938e-05 -1.36276e-05 -2.98287e-05
0.0 0.0 -0.000346714
0.0 0.0 -0.000346714
0.0 0.0 -0.000346714
-0.000403156 3.3951e-05 -0.000190387
-8.18646e-05 -1.21792e-05 -5.38639e-05
-9.8856e-05 -1.48362e-05 -1.3871e-05
-8.62146e-05 -1.29272e-05 -4.0592e-05
-8.37328e-05 -3.89903e-05 -4.51076e-05
-0.000314317 -0.000144085 -0.000294071
-6.59035e-05 -3.01259e-05 -9.12815e-05
0.0 0.0 -0.000346714
0.0 0.0 -0.000346714
0.0 0.0 -0.000346714
0.0 0.0 -0.000346714
-8.91436e-05 -1.33569e-05 -3.51341e-05
-8.74345e-05 7.21022e-06 -4.02907e-05
-0.000414721 -6.19365e-05 -0.000161679
-0.000154454 -7.55593e-05 6.08807e-05
-0.000102121 -8.48527e-05 -4.1922e-06
0.0 0.0 -0.000346714
-8.85243e-05 7.30188e-06 -3.76626e-05
-0.000401529 3.26197e-05 -0.000209089
-7.82063e-05 -3.67547e-05 -5.57114e-05
-0.000415954 -0.000189796 -0.000150631
-7.56573e-05 -3.75144e-05 -6.76229e-05
0.0 0.0 -0.000346714
0.0 0.0 -0.00160516
-0.000389499 0.000175231 -0.000216744
-8.85522e-05 7.15897e-06 -3.75803e-05
-8.79566e-05 7.1119e-06 -3.88887e-05
-0.000539229 4.10713e-05 -1.91619e-05
-0.000583178 -9.06636e-05 0.000277706
0.000115351 4.29188e-05 -0.000710997
0.0 0.0 -0.000346714
3.19107e-05 -3.40158e-05 -0.00164139
-0.000416068 0.000107143 -0.000160459
-8.70929e-05 2.23775e-05 -4.03371e-05
-0.000390767 3.09561e-05 -0.000217372
2.02852e-06 4.04477e-06 -0.000299201
1.18687e-05 -6.4546e-06 -0.0001636
-8.70605e-05 -1.19558e-05 -3.67771e-05
-8.22931e-05 -3.50476e-05 -5.02727e-05
0.0 0.0 -0.000346714
0.000120049 -9.49211e-05 0.000460966
-8.52076e-05 3.93733e-05 -4.42947e-05
-0.000116169 5.22357e-05 2.32777e-05
2.74382e-05 -6.48936e-06 -0.00163114
0.00022935 0.00012204 0.00272375
-0.000468046 -6.53544e-05 1.96155e-05
-0.000572663 -6.93745e-05 0.000803824
2.25119e-05 -3.84915e-05 -1.03667e-05
-0.000401204 -0.000159367 -0.00016507
-0.000920488 6.12203e-05 -0.00024411
0.00178777 -0.00325267 0.0344767
-9.03706e-05 -1.00123e-05 -3.41329e-05
0.0 0.0 -0.000346714
5.43131e-05 8.34925e-06 -0.000457739
0.0 0.0 -0.000346714
-0.0014075 -0.000584247 0.00307185
0.0 0.0 -0.00160516
0.0 0.0 -0.000346714
-0.000403168 4.28941e-05 -0.000129875
2.38384e-05 -1.58947e-05 3.89162e-05
-9.15399e-05 -9.63711e-06 -2.93752e-05
-0.000283719 -0.000102835 -0.000514629
-8.47558e-05 -3.03328e-05 -4.37697e-05
-8.59555e-05 -3.07921e-05 -4.05719e-05
0.0 0.0 -0.00160516
0.0 0.0 -0.000346714
0.0 0.0 -0.000346714
0.0 0.0 -0.000346714
-0.000105185 -0.000117565 1.81294e-05
0.0 0.0 -0.00160516
0.0 0.0 -0.00160516
0.0 0.0 -0.000346714
0.0 0.0 -0.000346714
7.64541e-06 -3.95744e-07 -0.000276412
-0.000404017 -3.43871e-05 -0.000198464
-8.80395e-05 -2.93257e-05 -5.49536e-05
-6.40197e-05 -4.71084e-05 -5.6647e-05
-3.02531e-06 -7.72892e-06 -0.000385451
-7.66676e-05 3.93317e-05 6.03457e-05
-0.000450924 0.000165597 -5.47042e-05
7.81263e-05 4.73937e-05 4.96345e-05
0.0 0.0 -0.000346714
-9.58622e-05 -7.35682e-06 -2.6275e-05
0.0 0.0 -0.000346714
-7.59023e-05 -5.88707e-06 -6.89835e-05
-0.000408231 -3.20513e-05 -0.000166118
-0.000294742 -0.000105142 -0.000385639
-0.00173242 0.00234679 0.00590766
-0.00072544 0.000525294 0.000409213
-0.000388172 0.000192356 -0.000197058
-8.94111e-05 1.88909e-05 -3.86895e-05
2.17767e-05 1.93195e-06 6.31583e-05
-1.72501e-05 -1.56526e-07 -0.000247239
-0.000436733 -2.5598e-05 -0.000101556
-8.8982e-05 -5.18193e-06 -3.85602e-05
6.53952e-05 3.61461e-05 -0.00045777
0.0 0.0 -0.000346714
-7.62821e-05 6.63823e-05 -5.53028e-05
-0.000135881 4.93528e-05 -0.000940823
-8.32093e-05 4.44488e-05 -4.36364e-05
0.0 0.0 -0.00160516
-0.000135202 -0.000388987 -0.000699101
-0.000407814 -1.95246e-05 -0.000165688
0.0 0.0 -0.000346714
-7.20695e-05 -1.83952e-05 -0.000105532
-8.8126e-06 4.42218e-05 -0.000102237
0.0 0.0 -0.000346714
0.0 0.0 -0.000346714
-1.46695e-06 2.42028e-06 -0.000325236
-0.000136227 0.000467835 -0.000736873
0.0 0.0 -0.000346714
-0.000208293 -4.43067e-05 -3.24821e-05
0.000317902 -0.000123556 -0.00114526
-0.000453743 -1.22863e-05 -9.07384e-05
8.38516e-05 -2.65446e-05 -0.00131373
-8.86032e-05 -1.40974e-06 -3.41797e-05
0.0 0.0 -0.000346714
-8.77077e-05 -1.39088e-06 -3.66619e-05
0.0 0.0 -0.000346714
1.87768e-05 -6.96434e-05 -1.41459e-06
-0.000476648 -0.000131662 -4.01042e-05
0.0 0.0 -0.000346714
-8.50216e-05 -4.58941e-05 -4.64566e-05
0.0 0.0 -0.00160516
0.0 0.0 -0.00160516
-8.25451e-05 4.73833e-05 -4.4636e-05
-0.000119104 2.04525e-05 0.000669283
-0.000447636 0.000255949 -6.36299e-05
-0.000472014 0.000122945 3.05157e-05
-0.000395702 0.000100246 -0.000191018
-7.1627e-05 -1.73501e-05 -7.68423e-05
-0.000188854 -4.39858e-05 6.22649e-05
-8.287e-05 -4.48588e-05 -4.43438e-05
0.0 0.0 -0.000346714
0.0 0.0 -0.00160516
2.27085e-05 -2.30814e-05 0.000684476
0.0 0.0 -0.000346714
0.0 0.0 -0.000346714
-0.000181673 5.51988e-07 0.000160812
-8.81009e-05 1.41426e-06 -3.6543e-05
-8.62551e-05 -1.89411e-05 -4.66422e-05
-7.18158e-05 -1.73557e-05 -7.6897e-05
-5.42533e-05 -4.78335e-05 -9.98055e-05
0.0 0.0 -0.000346714
0.0 0.0 -0.00160516
-8.96355e-05 3.1545e-06 -3.8552e-05
0.0 0.0 -0.00160516
-9.45776e-05 3.34712e-06 -2.47201e-05
-0.000371041 0.000149005 0.000881152
0.0 0.0 -0.000346714
-0.000101883 -2.16472e-05 -1.10175e-05
1.78241e-05 -7.98942e-05 -1.68491e-07
0.0014093 0.00178695 0.000156976
-0.0014093 -0.00178695 -0.000850404
0.0 0.0 -0.000346714
0.0 0.0 -0.000346714
-9.47862e-05 1.86203e-05 -2.74847e-05
0.0 0.0 -0.00160516
0.0 0.0 -0.000346714
-5.43336e-05 2.1788e-06 -0.000119951
0.0 0.0 -0.00160516
0.0 0.0 -0.00160516
9.79652e-05 -4.20318e-05 4.16489e-05
-0.000398585 -0.000192003 -0.00019645
-0.000368091 -0.000299222 -0.000252702
-8.62649e-05 4.76712e-05 -2.88819e-05
-8.76759e-05 1.72045e-05 -4.24846e-05
4.99097e-05 9.9126e-05 0.000481173
0.0 0.0 -0.000346714
0.0 0.0 -0.00160516
0.0 0.0 -0.000346714
-0.000540363 -0.000106106 0.000129494
-0.00015115 -1.91486e-05 -0.000725073
0.00578248 -0.0355741 -0.00421983
-8.61551e-05 -4.143e-05 -3.91607e-05
-0.00744147 0.031484 0.00886435
-3.25512e-05 6.90107e-06 -0.000192806
7.58656e-05 8.50905e-05 -0.000338281
-0.000401694 7.38005e-05 -0.000178324
0.0 0.0 -0.000346714
0.0 0.0 -0.00160516
-0.000172146 -0.000240298 -0.000176687
0.000101636 0.000479515 -0.000907314
4.90825e-05 -2.74083e-05 -4.19495e-05
0.0 0.0 -0.000346714
0.0 0.0 -0.000346714
-0.000409724 0.000170377 -0.000180548
-8.62957e-05 2.5284e-05 -3.86483e-05
-8.92648e-05 1.19317e-05 -3.81077e-05
-0.00522143 0.00551226 -0.00199877
-8.72508e-05 1.04283e-05 -3.74569e-05
0.0 0.0 -0.00160516
0.0 0.0 -0.000346714
-4.10856e-05 4.35614e-06 -0.0001527
0.0 0.0 -0.00160516
-0.000136642 -8.12765e-06 -0.000817916
0.0 0.0 -0.000346714
-0.000249768 -0.0010028 -0.00101404
-5.6267e-05 -1.34818e-05 -6.81291e-05
0.0 0.0 -0.000346714
0.0 0.0 -0.000346714
0.0 0.0 -0.000346714
0.0 0.0 -0.000346714
0.00528676 -0.010708 0.0184555
2.34464e-05 5.20242e-05 2.56231e-05
0.0 0.0 -0.000346714
0.0 0.0 -0.000346714
-0.000417273 -2.36102e-05 -0.000259637
-5.02051e-05 -1.55105e-05 -0.000995124
0.0 0.0 -0.000346714
0.0 0.0 -0.000346714
-4.37429e-05 -2.67407e-06 -0.000155556
0.0 0.0 -0.000346714
-0.000395982 -0.000110151 -0.000177101
1.07477e-05 0.00140802 0.000246732
0.0 0.0 -0.000346714
-8.61173e-05 3.51622e-05 -3.77914e-05
-0.000335431 0.000145764 -0.000231077
0.0 0.0 -0.000346714
0.0 0.0 -0.000346714
-0.000639973 4.98549e-05 3.19666e-05
-8.61653e-05 -7.99019e-06 -3.78057e-05
0.0 0.0 -0.000346714
0.0 0.0 -0.00160516
-0.000117682 -1.13933e-05 -4.10904e-05
-0.000140124 -1.31045e-05 0.000114928
-0.000125452 -3.79735e-05 4.6099e-05
-6.46179e-05 6.73388e-05 -6.76557e-05
-7.33817e-05 7.46468e-05 -5.21934e-05
0.0 0.0 -0.00160516
-0.00010886 2.50692e-05 1.90651e-05
-0.000403299 0.000134044 -0.00018864
-0.000419697 7.26766e-05 -0.000167633
0.0 0.0 -0.000346714
-8.89088e-05 8.93607e-07 -4.04886e-05
0.0 0.0 -0.000346714
0.0 0.0 -0.00160516
0.0 0.0 -0.00160516
0.0 0.0 -0.000346714
-9.67707e-05 3.19649e-05 -2.52395e-05
-8.71775e-05 2.89687e-05 -4.06944e-05
-8.80768e-05 1.45801e-05 -3.78507e-05
-0.000352406 5.73248e-05 -0.000341211
0.0 0.0 -0.000346714
-0.000409797 6.51627e-05 -0.000177805
0.0 0.0 -0.00160516
0.0 0.0 -0.000346714
0.0 0.0 -0.00160516
-0.000136259 -1.68776e-05 -0.000891787
2.64386e-05 -0.000586506 0.00161915
-8.84307e-05 -1.49761e-05 -3.84509e-05
-0.00298331 0.000740996 0.00134898
-8.7631e-05 -3.07545e-05 -4.33339e-05
-0.000281121 -9.84085e-05 -0.000367334
-6.58599e-05 -5.09856e-05 -8.65402e-05
0.000235109 -9.17006e-05 -0.00105804
0.0 0.0 -0.00160516
0.00479071 -0.000244088 -0.00569589
-0.000406834 -2.51249e-06 -0.000187792
0.0 0.0 -0.000346714
0.0 0.0 -0.000346714
0.0 0.0 -0.000346714
-8.76788e-05 -1.57907e-05 -3.79869e-05
0.0 0.0 -0.00160516
-8.31746e-05 -4.76056e-05 -4.60367e-05
0.0 0.0 -0.000346714
-7.90508e-05 -6.39681e-05 -5.2836e-05
0.0 0.0 -0.000346714
-0.000397855 0.000127158 -0.000191907
0.0 0.0 -0.000346714
0.0 0.0 -0.000346714
-8.65754e-05 1.27874e-05 -4.32041e-05
0.0 0.0 -0.000346714
0.0 0.0 -0.000346714
0.0 0.0 -0.000346714
0.0 0.0 -0.000346714
0.00455174 0.00144431 -0.0107009
-0.00534851 -0.00589612 0.0275035
0.0 0.0 -0.000346714
-0.000409739 -7.41457e-05 -0.000180683
0.0 0.0 -0.000346714
0.00128025 -0.000634621 -0.00392063
0.0 0.0 -0.00160516
0.0 0.0 -0.000346714
0.0 0.0 -0.000346714
-0.000176347 -1.8841e-05 -0.00057108
0.0 0.0 -0.000346714
0.0 0.0 -0.00160516
0.0 0.0 -0.000346714
-8.82889e-05 -2.56474e-06 -3.71039e-05
-0.00040686 -1.18133e-05 -0.000176081
0.0 0.0 -0.00160516
0.0 0.0 -0.00160516
2.24446e-05 -2.37e-06 9.1424e-06
0.0 0.0 -0.000346714
-7.28704e-05 7.77714e-05 -7.00098e-05
-8.53397e-05 4.13252e-05 -4.4208e-05
-0.000401247 0.000122236 -0.000183561
0.0 0.0 -0.000346714
0.0 0.0 -0.000346714
-0.000328044 -8.92218e-06 -0.000351514
-0.00455174 -0.00144431 0.00749055
-0.000432739 -1.99683e-05 -0.000144132
0.0 0.0 -0.000346714
-8.90683e-05 -3.24526e-06 -3.78831e-05
1.12086e-05 3.54953e-05 8.36867e-06
-0.000344103 -6.78659e-05 -0.000323936
0.0 0.0 -0.000346714
-0.000392168 0.00018899 -0.000200403
-0.000623919 0.000372813 0.000272365
0.0 0.0 -0.000346714
0.0 0.0 -0.000346714
0.0 0.0 -0.00160516
0.0 0.0 -0.00160516
0.0 0.0 -0.000346714
0.0 0.0 -0.000346714
-0.00040938 -1.81492e-05 -0.00016976
0.0 0.0 -0.000346714
-8.42451e-05 -3.73084e-06 -4.61577e-05