# vtk DataFile Version 2.0
Generated by lpp.py
ASCII
DATASET POLYDATA
POINTS 205 float
-0.0502996 0.00795897 -0.125904
-0.0417148 0.011899 -0.120768
-0.0484601 0.0225335 -0.121718
-0.0402384 -0.0277817 -0.1195
-0.0310426 -0.0235552 -0.117178
-0.0397217 -0.00433232 -0.119292
-0.0303791 -0.00326255 -0.118055
-0.0325058 -0.000458416 -0.119461
-0.0345288 0.0173062 -0.117804
-0.0308906 -0.034097 -0.113814
-0.0362763 -0.0218942 -0.1139
-0.037676 -0.0183295 -0.116359
-0.0343555 -0.0183751 -0.116595
-0.0518069 -0.0145707 -0.115526
-0.0261154 -0.0156325 -0.115188
-0.062108 -0.00418951 -0.114656
-0.0490716 -0.00344659 -0.115728
-0.0416554 0.00123356 -0.115084
-0.0276661 0.00344326 -0.116218
-0.0241901 0.00572075 -0.116095
-0.0254916 0.00978897 -0.11465
-0.0332697 0.0239552 -0.118009
-0.0545346 0.0243034 -0.11417
-0.0205351 0.0242717 -0.112401
-0.055722 0.0287615 -0.116609
-0.0380542 0.03527 -0.114413
-0.0356257 -0.0275988 -0.111849
-0.0257331 -0.0312131 -0.112444
-0.0221544 -0.0176068 -0.113824
-0.0435181 -0.0142353 -0.111803
-0.0213567 -0.0114019 -0.111843
-0.0512277 -0.007238 -0.11263
-0.0280525 -0.00858362 -0.112238
-0.0310284 -0.00638961 -0.115407
-0.0473259 -7.55876e-05 -0.112701
-0.0217499 0.00204286 -0.11331
-0.0355057 0.00399633 -0.113555
-0.0502848 0.010116 -0.112118
-0.0194177 0.0220705 -0.109669
-0.0163545 0.0255119 -0.110539
-0.0305039 -0.0307022 -0.109192
-0.0131679 -0.0234142 -0.107621
-0.0034489 -0.0162539 -0.105775
-0.0162122 -0.0135724 -0.107971
-0.0250204 0.00245318 -0.11033
-0.0239805 0.00900834 -0.108446
-0.0185443 0.0109203 -0.113213
-0.0121226 0.0131069 -0.108857
-0.0133528 0.0248495 -0.109285
-0.0228403 0.0289355 -0.108255
-0.00435724 -0.0212321 -0.103733
-0.0120544 -0.0180444 -0.102167
-0.0325276 -0.0151827 -0.104071
-0.0352452 0.00491446 -0.105243
-0.0316858 0.00646893 -0.105454
-0.0146906 0.00801167 -0.104283
-0.0286336 0.0137019 -0.103175
-0.00887679 0.0242623 -0.10416
-0.00879429 0.0305121 -0.104407
-0.0346581 -0.0460881 -0.0997368
-0.0188291 -0.0247488 -0.103664
-0.0205837 -0.0117427 -0.103765
-0.00322644 0.00785004 -0.105529
-0.0136513 0.0103118 -0.101303
-0.00317446 -0.00307391 -0.0982266
-0.0183282 0.020832 -0.0968649
-0.0086291 0.0212435 -0.0948035
-0.00331379 0.000112052 -0.0890684
-0.0161255 0.0259916 -0.0891812
-0.0101315 -0.00307891 -0.0853726
-0.0313469 0.00594264 -0.0872181
-0.0113639 -0.028821 -0.0822165
-0.0132118 -0.0142448 -0.0830525
-0.021885 0.00637934 -0.0839972
-0.0339596 0.0247152 -0.0820108
-0.0222205 0.0252752 -0.0835213
-0.0246928 0.0149576 -0.0779532
-0.0138041 0.00231809 -0.0761955
-0.00512449 0.0194276 -0.0768696
-0.016039 -0.0311912 -0.074342
-0.0338446 -0.00790771 -0.0729167
-0.006758 -0.00933802 -0.0737105
-0.0261342 0.0289343 -0.0713709
-0.0166674 -0.0133665 -0.0684048
-0.0307162 0.0123479 -0.0698085
-0.0216846 0.010562 -0.0642897
-0.011833 0.030812 -0.0640033
-0.0267621 -0.0316048 -0.0617603
-0.0153514 -0.0285466 -0.0623467
-0.0266174 0.0340944 -0.0623996
-0.016986 -0.00213434 -0.0579585
-0.0135716 -0.0190259 -0.0545534
-0.0294235 0.0177987 -0.0551283
-0.0329725 0.0296342 -0.0563924
-0.020149 -0.0334448 -0.0525675
-0.0292811 0.00645928 -0.0517644
-0.0333375 0.0110949 -0.0523771
-0.0143727 0.015853 -0.0503877
-0.00439906 0.0240922 -0.0512803
-0.00739645 -0.0185545 -0.0475259
-0.0265909 0.0159092 -0.047266
-0.0159897 0.0274334 -0.0471804
-0.0275469 -0.0163611 -0.043617
-0.0102956 -0.00169209 -0.0440563
-0.0161861 -0.026381 -0.0402084
-0.00301846 -0.0111451 -0.0393889
-0.00205293 -0.0206571 -0.0361289
-0.0273253 -0.00441029 -0.0383838
-0.0112712 -0.00229192 -0.0361541
-0.0135333 0.000602269 -0.0372466
-0.00791609 0.00384723 -0.037241
-2.29018e-06 0.0149512 -0.0365217
-0.0318002 -0.0148599 -0.033562
-0.0192779 0.00722911 -0.0351897
-0.0322225 0.032442 -0.0319625
-0.0125841 -0.0111545 -0.0251506
-0.0125785 -0.0210623 -0.0225855
-0.00679321 -0.00388229 -0.0239324
-0.0143544 -0.00143019 -0.0215762
-0.0148309 -0.0333609 -0.0183139
-0.0191843 -0.0162196 -0.0209883
-0.0290047 0.00352617 -0.0185715
-0.0227292 -0.0112057 -0.0164357
-0.0208061 0.000145103 -0.0163924
-0.0158354 0.0147935 -0.0171482
-0.0114065 0.0295451 -0.0159097
-0.0188235 -0.0335238 -0.0125681
-0.00193271 -0.0127941 -0.0119136
-0.00304704 0.0316877 -0.0129097
-0.0142543 -0.0235946 -0.00705243
-0.010147 0.00134815 -0.00804353
-0.00401145 0.0125644 -0.00932512
-0.0167258 0.0295222 -0.00934981
-0.0316516 0.0258079 -0.00561944
-0.0309894 0.0333632 -0.00585048
-0.0331578 -0.0315972 -0.0033712
-0.0150343 -0.00254225 6.93635e-06
-0.0156127 0.0122027 -0.00334562
-0.00445669 0.0136763 -0.000532126
-0.021642 0.0141125 -0.00119279
-0.00584464 0.0229092 -0.00168943
-0.0237179 -0.0143876 0.00167117
-0.00430721 -0.0251385 0.00513253
-0.0337656 -0.0129184 0.00709624
-0.0189158 0.00679958 0.00682251
-0.0076982 0.0115519 0.00520303
-0.00630817 0.0207644 0.00683607
-0.00353112 0.0264703 0.0063769
-0.00618246 -0.0245765 0.0102942
-0.0152079 -0.0157693 0.0142247
-0.00623706 -0.0058896 0.014014
-0.0192798 0.00186917 0.0107497
-0.0214963 -0.0266191 0.0169243
-0.00679915 -0.012878 0.0144708
-0.00240788 0.00422687 0.0156965
-0.0251386 0.0339743 0.0176748
-0.023692 -0.0114622 0.0205903
-0.0326006 -0.0344541 0.0221801
-0.0239437 -0.00737998 0.024325
-0.00372425 -0.00768845 0.0228065
-0.00596878 0.00110293 0.0246417
-0.0310811 0.0209557 0.023723
-0.0229207 0.0293808 0.0214425
-0.0260626 -0.0145959 0.028249
-0.0280772 0.00199937 0.0276605
-0.0186593 0.0101406 0.0274343
-0.0334498 0.0192376 0.0260955
-0.0192512 0.0203811 0.0271111
-0.0233162 -0.0257488 0.029534
-0.00243205 -0.0275788 0.029109
-0.0228627 0.00282045 0.0314832
-0.0175477 0.0137467 0.0305059
-0.000114354 0.021065 0.0308957
-0.0322154 -0.0246784 0.0347927
-0.01426 -0.0150654 0.0356309
-0.0180071 -0.0127461 0.0326475
-0.0273571 -0.0103215 0.0352049
-0.0341304 -0.00318577 0.0365002
-0.00169906 -0.0346379 0.0414682
-0.0234861 -0.0194352 0.0398636
-0.0106048 -0.00789334 0.0423453
-0.00264988 -0.0095541 0.0404102
-0.0200733 -0.00130471 0.0407587
-0.0184157 0.00363086 0.040058
-0.0258257 0.0147617 0.0421279
-0.00526421 0.027503 0.0421839
-0.0264666 -0.025466 0.045268
-0.00998901 0.00893206 0.0453334
-0.0107488 0.0329346 0.0439525
-0.0196577 -0.024903 0.0474376
-0.0201644 -0.0275601 0.0496006
-0.0134549 0.0182926 0.0491744
-0.0249489 0.0269151 0.0479323
-0.0173269 -0.0294256 0.0529432
-0.00546888 -0.024539 0.0530631
-0.00018665 -0.0192075 0.0508118
-0.0121862 -0.00588198 0.0502557
-0.0278654 0.00172744 0.0507516
-0.0232114 -0.0230043 0.0543847
-0.00148336 -0.00863773 0.0556579
-0.0244014 0.0243576 0.0538838
-0.0317899 0.0348276 0.0536304
-0.00237574 0.0349629 0.0566293
-0.0299737 -0.0249092 0.0577094
-0.0209901 0.00167617 0.0574513
VERTICES 205 410
1 0
1 1
1 2
1 3
1 4
1 5
1 6
1 7
1 8
1 9
1 10
1 11
1 12
1 13
1 14
1 15
1 16
1 17
1 18
1 19
1 20
1 21
1 22
1 23
1 24
1 25
1 26
1 27
1 28
1 29
1 30
1 31
1 32
1 33
1 34
1 35
1 36
1 37
1 38
1 39
1 40
1 41
1 42
1 43
1 44
1 45
1 46
1 47
1 48
1 49
1 50
1 51
1 52
1 53
1 54
1 55
1 56
1 57
1 58
1 59
1 60
1 61
1 62
1 63
1 64
1 65
1 66
1 67
1 68
1 69
1 70
1 71
1 72
1 73
1 74
1 75
1 76
1 77
1 78
1 79
1 80
1 81
1 82
1 83
1 84
1 85
1 86
1 87
1 88
1 89
1 90
1 91
1 92
1 93
1 94
1 95
1 96
1 97
1 98
1 99
1 100
1 101
1 102
1 103
1 104
1 105
1 106
1 107
1 108
1 109
1 110
1 111
1 112
1 113
1 114
1 115
1 116
1 117
1 118
1 119
1 120
1 121
1 122
1 123
1 124
1 125
1 126
1 127
1 128
1 129
1 130
1 131
1 132
1 133
1 134
1 135
1 136
1 137
1 138
1 139
1 140
1 141
1 142
1 143
1 144
1 145
1 146
1 147
1 148
1 149
1 150
1 151
1 152
1 153
1 154
1 155
1 156
1 157
1 158
1 159
1 160
1 161
1 162
1 163
1 164
1 165
1 166
1 167
1 168
1 169
1 170
1 171
1 172
1 173
1 174
1 175
1 176
1 177
1 178
1 179
1 180
1 181
1 182
1 183
1 184
1 185
1 186
1 187
1 188
1 189
1 190
1 191
1 192
1 193
1 194
1 195
1 196
1 197
1 198
1 199
1 200
1 201
1 202
1 203
1 204
POINT_DATA 205
VECTORS i float
0.0 0.0 0.0
0.0 0.0 0.0
0.0 0.0 0.0
0.0 0.0 0.0
0.0 0.0 0.0
0.0 0.0 0.0
0.0 0.0 0.0
0.0 0.0 0.0
0.0 0.0 0.0
0.0 0.0 0.0
0.0 0.0 0.0
0.0 0.0 0.0
0.0 0.0 0.0
0.0 0.0 0.0
0.0 0.0 0.0
0.0 0.0 0.0
0.0 0.0 0.0
0.0 0.0 0.0
0.0 0.0 0.0
0.0 0.0 0.0
0.0 0.0 0.0
0.0 0.0 0.0
0.0 0.0 0.0
0.0 0.0 0.0
0.0 0.0 0.0
0.0 0.0 0.0
0.0 0.0 0.0
0.0 0.0 0.0
0.0 0.0 0.0
0.0 0.0 0.0
0.0 0.0 0.0
0.0 0.0 0.0
0.0 0.0 0.0
0.0 0.0 0.0
0.0 0.0 0.0
0.0 0.0 0.0
0.0 0.0 0.0
0.0 0.0 0.0
0.0 0.0 0.0
0.0 0.0 0.0
0.0 0.0 0.0
0.0 0.0 0.0
0.0 0.0 0.0
0.0 0.0 0.0
0.0 0.0 0.0
0.0 0.0 0.0
0.0 0.0 0.0
0.0 0.0 0.0
0.0 0.0 0.0
0.0 0.0 0.0
0.0 0.0 0.0
0.0 0.0 0.0
0.0 0.0 0.0
0.0 0.0 0.0
0.0 0.0 0.0
0.0 0.0 0.0
0.0 0.0 0.0
0.0 0.0 0.0
0.0 0.0 0.0
0.0 0.0 0.0
0.0 0.0 0.0
0.0 0.0 0.0
0.0 0.0 0.0
0.0 0.0 0.0
0.0 0.0 0.0
0.0 0.0 0.0
0.0 0.0 0.0
0.0 0.0 0.0
0.0 0.0 0.0
0.0 0.0 0.0
0.0 0.0 0.0
0.0 0.0 0.0
0.0 0.0 0.0
0.0 0.0 0.0
0.0 0.0 0.0
0.0 0.0 0.0
0.0 0.0 0.0
0.0 0.0 0.0
0.0 0.0 0.0
0.0 0.0 0.0
0.0 0.0 0.0
0.0 0.0 0.0
0.0 0.0 0.0
0.0 0.0 0.0
0.0 0.0 0.0
0.0 0.0 0.0
0.0 0.0 0.0
0.0 0.0 0.0
0.0 0.0 0.0
0.0 0.0 0.0
0.0 0.0 0.0
0.0 0.0 0.0
0.0 0.0 0.0
0.0 0.0 0.0
0.0 0.0 0.0
0.0 0.0 0.0
0.0 0.0 0.0
0.0 0.0 0.0
0.0 0.0 0.0
0.0 0.0 0.0
0.0 0.0 0.0
0.0 0.0 0.0
0.0 0.0 0.0
0.0 0.0 0.0
0.0 0.0 0.0
0.0 0.0 0.0
0.0 0.0 0.0
0.0 0.0 0.0
0.0 0.0 0.0
0.0 0.0 0.0
0.0 0.0 0.0
0.0 0.0 0.0
0.0 0.0 0.0
0.0 0.0 0.0
0.0 0.0 0.0
0.0 0.0 0.0
0.0 0.0 0.0
0.0 0.0 0.0
0.0 0.0 0.0
0.0 0.0 0.0
0.0 0.0 0.0
0.0 0.0 0.0
0.0 0.0 0.0
0.0 0.0 0.0
0.0 0.0 0.0
0.0 0.0 0.0
0.0 0.0 0.0
0.0 0.0 0.0
0.0 0.0 0.0
0.0 0.0 0.0
0.0 0.0 0.0
0.0 0.0 0.0
0.0 0.0 0.0
0.0 0.0 0.0
0.0 0.0 0.0
0.0 0.0 0.0
0.0 0.0 0.0
0.0 0.0 0.0
0.0 0.0 0.0
0.0 0.0 0.0
0.0 0.0 0.0
0.0 0.0 0.0
0.0 0.0 0.0
0.0 0.0 0.0
0.0 0.0 0.0
0.0 0.0 0.0
0.0 0.0 0.0
0.0 0.0 0.0
0.0 0.0 0.0
0.0 0.0 0.0
0.0 0.0 0.0
0.0 0.0 0.0
0.0 0.0 0.0
0.0 0.0 0.0
0.0 0.0 0.0
0.0 0.0 0.0
0.0 0.0 0.0
0.0 0.0 0.0
0.0 0.0 0.0
0.0 0.0 0.0
0.0 0.0 0.0
0.0 0.0 0.0
0.0 0.0 0.0
0.0 0.0 0.0
0.0 0.0 0.0
0.0 0.0 0.0
0.0 0.0 0.0
0.0 0.0 0.0
0.0 0.0 0.0
0.0 0.0 0.0
0.0 0.0 0.0
0.0 0.0 0.0
0.0 0.0 0.0
0.0 0.0 0.0
0.0 0.0 0.0
0.0 0.0 0.0
0.0 0.0 0.0
0.0 0.0 0.0
0.0 0.0 0.0
0.0 0.0 0.0
0.0 0.0 0.0
0.0 0.0 0.0
0.0 0.0 0.0
0.0 0.0 0.0
0.0 0.0 0.0
0.0 0.0 0.0
0.0 0.0 0.0
0.0 0.0 0.0
0.0 0.0 0.0
0.0 0.0 0.0
0.0 0.0 0.0
0.0 0.0 0.0
0.0 0.0 0.0
0.0 0.0 0.0
0.0 0.0 0.0
0.0 0.0 0.0
0.0 0.0 0.0
0.0 0.0 0.0
0.0 0.0 0.0
0.0 0.0 0.0
0.0 0.0 0.0
0.0 0.0 0.0
0.0 0.0 0.0
0.0 0.0 0.0
0.0 0.0 0.0
VECTORS f float
-0.00420277 -0.00770282 -0.0106337
0.0 0.0 -0.000346714
0.0 0.0 -0.000346714
0.0 0.0 -0.000346714
0.0 0.0 -0.000346714
0.0 0.0 -0.000346714
0.0 0.0 -0.000346714
0.0 0.0 -0.000346714
0.0 0.0 -0.000346714
0.0 0.0 -0.00160516
0.0 0.0 -0.00160516
0.0 0.0 -0.000346714
0.0 0.0 -0.000346714
0.0 0.0 -0.000346714
-0.000399616 9.28463e-05 -0.000171659
0.0 0.0 -0.00160516
0.0 0.0 -0.000346714
0.0 0.0 -0.000346714
0.0 0.0 -0.00160516
0.0 0.0 -0.000346714
0.0 0.0 -0.00160516
0.0 0.0 -0.000346714
0.0 0.0 -0.000346714
0.0 0.0 -0.000346714
0.0 0.0 -0.000346714
0.0 0.0 -0.000346714
0.0 0.0 -0.00160516
0.0 0.0 -0.00160516
0.0 0.0 -0.000346714
0.0 0.0 -0.000346714
0.0 0.0 -0.000346714
0.0 0.0 -0.000346714
0.0 0.0 -0.000346714
0.0 0.0 -0.00160516
0.0 0.0 -0.000346714
0.0 0.0 -0.00160516
0.0 0.0 -0.00160516
0.0 0.0 -0.000346714
0.0 0.0 -0.000346714
0.0 0.0 -0.000346714
0.0 0.0 -0.000346714
0.0 0.0 -0.00160516
0.0 0.0 -0.000346714
0.0 0.0 -0.000346714
0.0 0.0 -0.000346714
0.0 0.0 -0.000346714
0.0 0.0 -0.000346714
0.0 0.0 -0.00160516
0.0 0.0 -0.000346714
0.0 0.0 -0.00160516
0.0 0.0 -0.00160516
0.0 0.0 -0.00160516
0.0 0.0 -0.000346714
0.0 0.0 -0.000346714
0.0 0.0 -0.000346714
-0.0336443 -0.0357425 -0.0135502
0.0 0.0 -0.00160516
0.0 0.0 -0.00160516
0.0 0.0 -0.000346714
0.0 0.0 -0.000346714
0.0 0.0 -0.00160516
0.0 0.0 -0.000346714
0.0 0.0 -0.000346714
0.0336443 0.0357425 0.0115984
0.0 0.0 -0.000346714
0.0 0.0 -0.00160516
0.0 0.0 -0.00160516
0.0 0.0 -0.000346714
0.0 0.0 -0.000346714
0.0 0.0 -0.000346714
0.0 0.0 -0.000346714
0.0 0.0 -0.00160516
0.0 0.0 -0.000346714
0.0 0.0 -0.00160516
0.0 0.0 -0.000346714
0.0 0.0 -0.000346714
0.0 0.0 -0.000346714
0.0 0.0 -0.000346714
0.0 0.0 -0.00160516
0.0 0.0 -0.00160516
0.0 0.0 -0.00160516
0.0 0.0 -0.000346714
0.0 0.0 -0.000346714
0.0 0.0 -0.000346714
0.0 0.0 -0.000346714
0.0 0.0 -0.000346714
0.0 0.0 -0.000346714
0.0 0.0 -0.000346714
0.0 0.0 -0.00160516
0.0 0.0 -0.000346714
0.0 0.0 -0.000346714
0.0 0.0 -0.000346714
0.0 0.0 -0.000346714
0.0 0.0 -0.00160516
0.0 0.0 -0.000346714
0.0 0.0 -0.00160516
0.0 0.0 -0.00160516
0.0 0.0 -0.00160516
0.0 0.0 -0.000346714
0.0 0.0 -0.000346714
0.0 0.0 -0.00160516
0.0 0.0 -0.000346714
0.0 0.0 -0.000346714
0.0 0.0 -0.000346714
0.0 0.0 -0.000346714
0.0 0.0 -0.00160516
0.0 0.0 -0.00160516
0.0 0.0 -0.00160516
0.0 0.0 -0.000346714
0.0 0.0 -0.000346714
0.0 0.0 -0.00160516
0.0 0.0 -0.000346714
0.0 0.0 -0.000346714
0.0 0.0 -0.00160516
0.0 0.0 -0.000346714
0.0 0.0 -0.000346714
0.0 0.0 -0.00160516
0.0 0.0 -0.000346714
0.0 0.0 -0.00160516
0.0 0.0 -0.000346714
0.0 0.0 -0.000346714
0.0 0.0 -0.000346714
0.0 0.0 -0.000346714
0.0 0.0 -0.000346714
0.0 0.0 -0.00160516
0.0 0.0 -0.000346714
0.0 0.0 -0.000346714
0.0 0.0 -0.00160516
0.0 0.0 -0.00160516
0.0 0.0 -0.00160516
0.0 0.0 -0.00160516
0.0 0.0 -0.000346714
0.0 0.0 -0.000346714
0.0 0.0 -0.00160516
0.0 0.0 -0.000346714
0.0 0.0 -0.000346714
0.0 0.0 -0.00160516
0.0 0.0 -0.000346714
0.0 0.0 -0.000346714
0.0 0.0 -0.000346714
0.0 0.0 -0.000346714
0.0 0.0 -0.000346714
0.0 0.0 -0.000346714
0.0 0.0 -0.000346714
0.0 0.0 -0.000346714
0.0 0.0 -0.00160516
0.0 0.0 -0.000346714
0.0 0.0 -0.000346714
0.0 0.0 -0.00160516
0.0 0.0 -0.000346714
0.0 0.0 -0.000346714
0.0 0.0 -0.00160516
0.0 0.0 -0.00160516
0.0 0.0 -0.000346714
0.0 0.0 -0.00160516
0.0 0.0 -0.000346714
0.0 0.0 -0.000346714
0.0 0.0 -0.000346714
0.0 0.0 -0.00160516
0.0 0.0 -0.00160516
0.0 0.0 -0.000346714
0.0 0.0 -0.000346714
0.0 0.0 -0.000346714
0.0 0.0 -0.000346714
0.0 0.0 -0.000346714
0.0 0.0 -0.000346714
0.0 0.0 -0.000346714
0.0 0.0 -0.00160516
0.0 0.0 -0.000346714
0.0 0.0 -0.000346714
0.0 0.0 -0.000346714
0.0 0.0 -0.00160516
0.0 0.0 -0.00160516
0.0 0.0 -0.000346714
0.0 0.0 -0.000346714
0.0 0.0 -0.000346714
0.0 0.0 -0.00160516
0.0 0.0 -0.000346714
0.0 0.0 -0.00160516
0.0 0.0 -0.00160516
0.0 0.0 -0.000346714
0.0 0.0 -0.000346714
0.0 0.0 -0.000346714
0.0 0.0 -0.000346714
0.0 0.0 -0.00160516
0.0 0.0 -0.000346714
0.0 0.0 -0.00160516
0.0 0.0 -0.000346714
0.0 0.0 -0.00160516
0.0 0.0 -0.000346714
0.0 0.0 -0.000346714
0.0 0.0 -0.000346714
0.0 0.0 -0.000346714
0.0 0.0 0.0
0.0 0.0 0.0
0.0 0.0 0.0
0.0 0.0 0.0
0.0 0.0 0.0
0.0 0.0 0.0
0.0 0.0 0.0
0.0 0.0 0.0
0.0 0.0 0.0
0.0 0.0 0.0
0.0 0.0 0.0
0.0 0.0 0.0
VECTORS omega float
114.298 -282.688 17.3451
-64.7239 -473.802 -26.7444
-340.631 -726.294 -186.258
16.3055 -505.552 136.656
-183.386 -447.962 -9.9482
91.1675 -518.11 10.2559
170.959 243.738 365.797
-172.594 -635.919 86.5876
136.334 -512.554 67.7459
-98.5473 -220.859 -1.4966e-13
17.8756 -77.3327 -0.484907
203.054 -144.06 55.2991
-142.629 -517.4 12.32
-93.3386 -388.818 -8.97324e-15
-120.794 -227.501 -27.6619
-14.8336 -225.779 -6.37285e-15
-24.7329 -376.454 2.87063e-14
-11.0748 -389.824 7.37302e-16
-72.6125 161.209 -59.1201
-33.6754 -204.401 25.769
-24.1215 -250.433 -49.8834
69.9005 131.514 57.9175
157.283 -192.671 339.666
82.7078 33.5098 55.8023
109.333 -325.067 83.3711
-498.293 489.454 44.1913
-105.302 -255.327 -0.0941047
-29.8376 -211.638 16.2453
0.0 0.0 0.0
53.5445 -226.738 38.1963
-71.7461 -384.354 3.76326e-14
-24.4869 -372.71 -5.48927e-14
-91.909 -438.919 -4.95487
30.7561 43.3067 22.2081
-10.9755 -386.329 2.70716e-15
-56.3548 -170.884 -41.4098
-57.9861 -214.037 -30.4075
55.6535 -369.268 6.21219e-14
-12.1264 -12.3597 28.203
144.751 -324.173 22.6446
-21.4507 116.528 -15.8412
-69.9395 -110.67 -32.2049
-64.7637 -362.469 4.75323e-14
-65.8418 -368.503 1.62458e-14
0.0 0.0 0.0
-267.764 142.484 -137.224
0.0 0.0 0.0
-27.7796 -19.2631 -21.4538
69.0286 624.008 125.554
56.7407 -261.792 -12.4183
-81.4028 -221.733 3.69e-14
-81.4948 -221.983 -4.47958e-14
-65.0767 -364.221 8.43618e-14
-3.44496 463.931 -9.78414
94.6125 -408.957 4.03732
-78.1777 -116.187 -54.1437
53.1334 -227.496 5.06761e-14
52.7798 -225.982 -4.26587e-14
170.633 -372.778 -8.07544e-14
377.106 230.021 159.168
0.0 0.0 0.0
0.0 0.0 0.0
0.0 0.0 0.0
-486.024 534.053 -229.371
0.0 0.0 0.0
0.0 0.0 0.0
0.0 0.0 0.0
0.0 0.0 0.0
0.0 0.0 0.0
0.0 0.0 0.0
0.0 0.0 0.0
0.0 0.0 0.0
0.0 0.0 0.0
0.0 0.0 0.0
0.0 0.0 0.0
0.0 0.0 0.0
0.0 0.0 0.0
0.0 0.0 0.0
0.0 0.0 0.0
0.0 0.0 0.0
0.0 0.0 0.0
0.0 0.0 0.0
0.0 0.0 0.0
0.0 0.0 0.0
0.0 0.0 0.0
0.0 0.0 0.0
0.0 0.0 0.0
0.0 0.0 0.0
0.0 0.0 0.0
0.0 0.0 0.0
0.0 0.0 0.0
0.0 0.0 0.0
0.0 0.0 0.0
0.0 0.0 0.0
0.0 0.0 0.0
0.0 0.0 0.0
0.0 0.0 0.0
0.0 0.0 0.0
0.0 0.0 0.0
0.0 0.0 0.0
0.0 0.0 0.0
0.0 0.0 0.0
0.0 0.0 0.0
0.0 0.0 0.0
0.0 0.0 0.0
0.0 0.0 0.0
0.0 0.0 0.0
0.0 0.0 0.0
0.0 0.0 0.0
0.0 0.0 0.0
0.0 0.0 0.0
0.0 0.0 0.0
0.0 0.0 0.0
0.0 0.0 0.0
0.0 0.0 0.0
0.0 0.0 0.0
0.0 0.0 0.0
0.0 0.0 0.0
0.0 0.0 0.0
0.0 0.0 0.0
0.0 0.0 0.0
0.0 0.0 0.0
0.0 0.0 0.0
0.0 0.0 0.0
0.0 0.0 0.0
0.0 0.0 0.0
0.0 0.0 0.0
0.0 0.0 0.0
0.0 0.0 0.0
0.0 0.0 0.0
0.0 0.0 0.0
0.0 0.0 0.0
0.0 0.0 0.0
0.0 0.0 0.0
0.0 0.0 0.0
0.0 0.0 0.0
0.0 0.0 0.0
0.0 0.0 0.0
0.0 0.0 0.0
0.0 0.0 0.0
0.0 0.0 0.0
0.0 0.0 0.0
0.0 0.0 0.0
0.0 0.0 0.0
0.0 0.0 0.0
0.0 0.0 0.0
0.0 0.0 0.0
0.0 0.0 0.0
0.0 0.0 0.0
0.0 0.0 0.0
0.0 0.0 0.0
0.0 0.0 0.0
0.0 0.0 0.0
0.0 0.0 0.0
0.0 0.0 0.0
0.0 0.0 0.0
0.0 0.0 0.0
0.0 0.0 0.0
0.0 0.0 0.0
0.0 0.0 0.0
0.0 0.0 0.0
0.0 0.0 0.0
0.0 0.0 0.0
0.0 0.0 0.0
0.0 0.0 0.0
0.0 0.0 0.0
0.0 0.0 0.0
0.0 0.0 0.0
0.0 0.0 0.0
0.0 0.0 0.0
0.0 0.0 0.0
0.0 0.0 0.0
0.0 0.0 0.0
0.0 0.0 0.0
0.0 0.0 0.0
0.0 0.0 0.0
0.0 0.0 0.0
0.0 0.0 0.0
0.0 0.0 0.0
0.0 0.0 0.0
0.0 0.0 0.0
0.0 0.0 0.0
0.0 0.0 0.0
0.0 0.0 0.0
0.0 0.0 0.0
0.0 0.0 0.0
0.0 0.0 0.0
0.0 0.0 0.0
0.0 0.0 0.0
0.0 0.0 0.0
0.0 0.0 0.0
0.0 0.0 0.0
0.0 0.0 0.0
0.0 0.0 0.0
0.0 0.0 0.0
0.0 0.0 0.0
0.0 0.0 0.0
0.0 0.0 0.0
0.0 0.0 0.0
0.0 0.0 0.0
0.0 0.0 0.0
0.0 0.0 0.0
0.0 0.0 0.0
0.0 0.0 0.0
0.0 0.0 0.0
VECTORS v float
-0.656741 -0.259344 -0.208148
-0.739681 0.0955725 -0.196422
-1.13531 0.557518 -0.256054
-0.805626 -0.0623163 -0.15772
-0.649232 0.265843 -0.258633
-0.765248 -0.0892293 -0.247919
-0.198628 -0.228251 -0.903123
-0.952125 0.189711 -0.214274
-0.770949 -0.238651 -0.338893
-0.713551 0.318386 0.243847
-1.01633 0.294895 -0.456549
-0.942897 0.660971 -0.52125
-0.809413 0.212428 -0.215733
-0.750346 0.180126 0.0282366
-0.517755 0.304242 -0.241253
-0.737266 0.0484382 -0.0470276
-0.735117 0.048297 0.0987878
-0.756912 0.0215037 0.120643
-0.359121 0.0809861 -0.144492
-0.293843 0.0435479 -0.132004
-0.588504 0.125168 -0.162018
-0.901288 -0.161434 -1.02095
-0.746853 -0.229155 -0.160481
-0.0592586 -0.182058 0.252367
-0.761856 -0.0901797 -0.19554
-0.271633 0.311388 -0.259565
-0.72059 0.297164 -0.119906
-0.527198 0.0694493 -0.190929
0.0 0.0 -2.05286
-0.740387 0.234009 -0.179816
-0.744067 0.138893 0.221864
-0.730942 0.0480227 -0.0182977
-0.727982 0.151647 -0.159681
-0.136382 -0.117555 -1.6661
-0.755732 0.0214702 -0.00163875
-0.453966 -0.0949592 -0.365715
-0.520232 -0.14758 -0.631916
-0.729676 -0.109972 -0.0128984
-0.117574 -0.0191284 0.0611509
-0.769882 -0.199363 -0.158761
-0.884384 0.0977456 -0.257098
-0.306286 0.216467 -0.0617926
-0.713169 0.127425 0.271237
-0.717848 0.128261 0.216677
0.0 0.0 -2.03608
-0.649991 0.729528 -0.131586
0.0 0.0 -2.04992
-0.0974282 0.0739958 -0.0482489
-0.0388699 -0.238253 -0.793847
-0.798297 -0.190925 0.118975
-0.713816 0.262057 0.213055
-0.713952 0.262107 0.109994
-0.721152 0.128851 -0.025942
-0.55464 -0.0743018 -0.0645968
-0.419727 -0.0188315 -0.0858533
-0.591648 -0.104327 -0.397009
-0.732633 -0.171112 -0.0317608
-0.730176 -0.170538 0.208473
-0.715841 -0.327664 0.167243
-0.714072 -0.386294 -0.217251
0.0 0.0 -2.00371
0.0 0.0 -2.0042
0.0 0.0 -2.01283
0.0424022 0.678066 -0.531708
0.0 0.0 -1.97693
0.0 0.0 -1.97016
0.0 0.0 -1.95986
0.0 0.0 -1.93092
0.0 0.0 -1.93151
0.0 0.0 -1.91208
0.0 0.0 -1.9215
0.0 0.0 -1.8958
0.0 0.0 -1.90012
0.0 0.0 -1.90502
0.0 0.0 -1.89472
0.0 0.0 -1.90257
0.0 0.0 -1.87363
0.0 0.0 -1.86441
0.0 0.0 -1.86794
0.0 0.0 -1.8546
0.0 0.0 -1.84704
0.0 0.0 -1.85126
0.0 0.0 -1.8388
0.0 0.0 -1.82291
0.0 0.0 -1.83047
0.0 0.0 -1.80064
0.0 0.0 -1.79907
0.0 0.0 -1.78681
0.0 0.0 -1.79005
0.0 0.0 -1.79034
0.0 0.0 -1.76582
0.0 0.0 -1.74679
0.0 0.0 -1.75002
0.0 0.0 -1.75709
0.0 0.0 -1.7356
0.0 0.0 -1.73109
0.0 0.0 -1.73452
0.0 0.0 -1.72324
0.0 0.0 -1.72834
0.0 0.0 -1.70686
0.0 0.0 -1.70539
0.0 0.0 -1.7049
0.0 0.0 -1.6843
0.0 0.0 -1.68685
0.0 0.0 -1.66428
0.0 0.0 -1.65948
0.0 0.0 -1.64005
0.0 0.0 -1.65349
0.0 0.0 -1.64025
0.0 0.0 -1.64672
0.0 0.0 -1.64672
0.0 0.0 -1.64241
0.0 0.0 -1.62465
0.0 0.0 -1.63446
0.0 0.0 -1.61494
0.0 0.0 -1.57305
0.0 0.0 -1.55696
0.0 0.0 -1.5654
0.0 0.0 -1.55059
0.0 0.0 -1.52979
0.0 0.0 -1.54686
0.0 0.0 -1.53146
0.0 0.0 -1.51772
0.0 0.0 -1.51743
0.0 0.0 -1.52233
0.0 0.0 -1.51429
0.0 0.0 -1.49251
0.0 0.0 -1.48819
0.0 0.0 -1.49477
0.0 0.0 -1.45582
0.0 0.0 -1.46249
0.0 0.0 -1.47103
0.0 0.0 -1.47122
0.0 0.0 -1.44611
0.0 0.0 -1.44768
0.0 0.0 -1.43081
0.0 0.0 -1.40746
0.0 0.0 -1.43061
0.0 0.0 -1.41119
0.0 0.0 -1.4158
0.0 0.0 -1.41923
0.0 0.0 -1.39578
0.0 0.0 -1.37126
0.0 0.0 -1.35713
0.0 0.0 -1.3591
0.0 0.0 -1.37077
0.0 0.0 -1.359
0.0 0.0 -1.36233
0.0 0.0 -1.33379
0.0 0.0 -1.30455
0.0 0.0 -1.30612
0.0 0.0 -1.33045
0.0 0.0 -1.28415
0.0 0.0 -1.30269
0.0 0.0 -1.29347
0.0 0.0 -1.27836
0.0 0.0 -1.2558
0.0 0.0 -1.24334
0.0 0.0 -1.22627
0.0 0.0 -1.23833
0.0 0.0 -1.22372
0.0 0.0 -1.23107
0.0 0.0 -1.24912
0.0 0.0 -1.19448
0.0 0.0 -1.19929
0.0 0.0 -1.20115
0.0 0.0 -1.21204
0.0 0.0 -1.2038
0.0 0.0 -1.18389
0.0 0.0 -1.18742
0.0 0.0 -1.1676
0.0 0.0 -1.17575
0.0 0.0 -1.17251
0.0 0.0 -1.13945
0.0 0.0 -1.13219
0.0 0.0 -1.15779
0.0 0.0 -1.13592
0.0 0.0 -1.12464
0.0 0.0 -1.08049
0.0 0.0 -1.09491
0.0 0.0 -1.07245
0.0 0.0 -1.09001
0.0 0.0 -1.08687
0.0 0.0 -1.09315
0.0 0.0 -1.07441
0.0 0.0 -1.07392
0.0 0.0 -1.04537
0.0 0.0 -1.04478
0.0 0.0 -1.05763
0.0 0.0 -1.02487
0.0 0.0 -1.00387
0.0 0.0 -1.00809
0.0 0.0 -1.02006
-0 0.0 -1.0
-0 0.0 -1.0
-0 0.0 -1.0
-0 0.0 -1.0
-0 0.0 -1.0
-0 0.0 -1.0
-0 0.0 -1.0
-0 0.0 -1.0
-0 0.0 -1.0
-0 0.0 -1.0
-0 0.0 -1.0
-0 0.0 -1.0
SCALARS radius float 1
LOOKUP_TABLE default
0.0025
0.0015
0.0015
0.0015
0.0015
0.0015
0.0015
0.0015
0.0015
0.0025
0.0025
0.0015
0.0015
0.0015
0.0025
0.0025
0.0015
0.0015
0.0025
0.0015
0.0025
0.0015
0.0015
0.0015
0.0015
0.0015
0.0025
0.0025
0.0015
0.0015
0.0015
0.0015
0.0015
0.0025
0.0015
0.0025
0.0025
0.0015
0.0015
0.0015
0.0015
0.0025
0.0015
0.0015
0.0015
0.0015
0.0015
0.0025
0.0015
0.0025
0.0025
0.0025
0.0015
0.0015
0.0015
0.0025
0.0025
0.0025
0.0015
0.0015
0.0025
0.0015
0.0015
0.0015
0.0015
0.0025
0.0025
0.0015
0.0015
0.0015
0.0015
0.0025
0.0015
0.0025
0.0015
0.0015
0.0015
0.0015
0.0025
0.0025
0.0025
0.0015
0.0015
0.0015
0.0015
0.0015
0.0015
0.0015
0.0025
0.0015
0.0015
0.0015
0.0015
0.0025
0.0015
0.0025
0.0025
0.0025
0.0015
0.0015
0.0025
0.0015
0.0015
0.0015
0.0015
0.0025
0.0025
0.0025
0.0015
0.0015
0.0025
0.0015
0.0015
0.0025
0.0015
0.0015
0.0025
0.0015
0.0025
0.0015
0.0015
0.0015
0.0015
0.0015
0.0025
0.0015
0.0015
0.0025
0.0025
0.0025
0.0025
0.0015
0.0015
0.0025
0.0015
0.0015
0.0025
0.0015
0.0015
0.0015
0.0015
0.0015
0.0015
0.0015
0.0015
0.0025
0.0015
0.0015
0.0025
0.0015
0.0015
0.0025
0.0025
0.0015
0.0025
0.0015
0.0015
0.0015
0.0025
0.0025
0.0015
0.0015
0.0015
0.0015
0.0015
0.0015
0.0015
0.0025
0.0015
0.0015
0.0015
0.0025
0.0025
0.0015
0.0015
0.0015
0.0025
0.0015
0.0025
0.0025
0.0015
0.0015
0.0015
0.0015
0.0025
0.0015
0.0025
0.0015
0.0025
0.0015
0.0015
0.0015
0.0015
0.0025
0.0015
0.0025
0.0015
0.0015
0.0025
0.0015
0.0015
0.0015
0.0015
0.0025
0.0015
SCALARS type float 1
LOOKUP_TABLE default
1.0
1.0
1.0
1.0
1.0
1.0
1.0
1.0
1.0
1.0
1.0
1.0
1.0
1.0
1.0
1.0
1.0
1.0
1.0
1.0
1.0
1.0
1.0
1.0
1.0
1.0
1.0
1.0
1.0
1.0
1.0
1.0
1.0
1.0
1.0
1.0
1.0
1.0
1.0
1.0
1.0
1.0
1.0
1.0
1.0
1.0
1.0
1.0
1.0
1.0
1.0
1.0
1.0
1.0
1.0
1.0
1.0
1.0
1.0
1.0
1.0
1.0
1.0
1.0
1.0
1.0
1.0
1.0
1.0
1.0
1.0
1.0
1.0
1.0
1.0
1.0
1.0
1.0
1.0
1.0
1.0
1.0
1.0
1.0
1.0
1.0
1.0
1.0
1.0
1.0
1.0
1.0
1.0
1.0
1.0
1.0
1.0
1.0
1.0
1.0
1.0
1.0
1.0
1.0
1.0
1.0
1.0
1.0
1.0
1.0
1.0
1.0
1.0
1.0
1.0
1.0
1.0
1.0
1.0
1.0
1.0
1.0
1.0
1.0
1.0
1.0
1.0
1.0
1.0
1.0
1.0
1.0
1.0
1.0
1.0
1.0
1.0
1.0
1.0
1.0
1.0
1.0
1.0
1.0
1.0
1.0
1.0
1.0
1.0
1.0
1.0
1.0
1.0
1.0
1.0
1.0
1.0
1.0
1.0
1.0
1.0
1.0
1.0
1.0
1.0
1.0
1.0
1.0
1.0
1.0
1.0
1.0
1.0
1.0
1.0
1.0
1.0
1.0
1.0
1.0
1.0
1.0
1.0
1.0
1.0
1.0
1.0
1.0
1.0
1.0
1.0
1.0
1.0
1.0
1.0
1.0
1.0
1.0
1.0
1.0
1.0
1.0
1.0
1.0
1.0
SCALARS id float 1
LOOKUP_TABLE default
4.0
5.0
38.0
36.0
33.0
12.0
19.0
50.0
23.0
41.0
30.0
31.0
8.0
21.0
1.0
2.0
20.0
32.0
29.0
44.0
16.0
35.0
11.0
47.0
18.0
9.0
26.0
28.0
56.0
24.0
51.0
10.0
37.0
52.0
17.0
39.0
3.0
6.0
34.0
45.0
48.0
15.0
59.0
46.0
60.0
43.0
57.0
13.0
62.0
42.0
53.0
40.0
22.0
49.0
25.0
27.0
14.0
54.0
58.0
7.0
55.0
63.0
64.0
61.0
73.0
68.0
67.0
69.0
70.0
76.0
74.0
66.0
71.0
65.0
72.0
75.0
88.0
81.0
77.0
79.0
78.0
83.0
85.0
89.0
84.0
87.0
82.0
102.0
80.0
86.0
95.0
100.0
98.0
94.0
97.0
91.0
92.0
90.0
99.0
101.0
93.0
96.0
113.0
114.0
115.0
105.0
106.0
107.0
112.0
110.0
103.0
109.0
111.0
104.0
108.0
123.0
120.0
125.0
117.0
126.0
122.0
121.0
127.0
128.0
116.0
124.0
138.0
118.0
119.0
131.0
132.0
139.0
133.0
130.0
140.0
137.0
129.0
136.0
141.0
134.0
135.0
149.0
153.0
146.0
152.0
143.0
148.0
151.0
142.0
147.0
150.0
144.0
155.0
154.0
145.0
163.0
160.0
165.0
158.0
157.0
162.0
161.0
159.0
176.0
173.0
164.0
166.0
156.0
172.0
175.0
178.0
168.0
170.0
179.0
177.0
171.0
167.0
174.0
182.0
169.0
186.0
192.0
191.0
185.0
180.0
184.0
181.0
190.0
183.0
188.0
200.0
189.0
187.0
196.0
205.0
195.0
204.0
198.0
193.0
201.0
197.0
203.0
202.0
194.0
199.0

