# vtk DataFile Version 2.0
Generated by lpp.py
ASCII
DATASET POLYDATA
POINTS 792 float
-0.00922326 0.0343491 0.0552258
-0.00416296 -0.0137981 0.0539391
-0.00841227 0.0249216 0.0536628
-0.0182407 0.00374334 0.0561729
-0.00891217 -0.0211701 0.0530264
-0.482317 -0.0124068 -0.397965
-0.493787 0.00543388 -0.398925
-0.480343 -0.0145079 -0.394491
-0.48442 -0.00115796 -0.394827
-0.46837 0.0145286 -0.393314
-0.486227 -0.00959304 -0.390977
-0.477631 -0.00407125 -0.390145
-0.464086 0.0156129 -0.392697
-0.47069 0.0146436 -0.38705
-0.446062 -0.0328222 -0.385068
-0.475964 -0.00349032 -0.383164
-0.465517 0.00573673 -0.384398
-0.476345 -0.0198242 -0.38049
-0.473234 -0.00344014 -0.376167
-0.462776 0.0245941 -0.376647
-0.479724 -0.00288804 -0.373792
-0.463681 -0.0114517 -0.368808
-0.443064 -0.0451567 -0.365809
-0.444418 0.00651101 -0.367312
-0.463368 0.0065673 -0.366274
-0.461448 -0.0186127 -0.362018
-0.481054 -0.00741596 -0.363047
-0.468988 -0.00935058 -0.360357
-0.452554 -0.00574883 -0.362912
-0.444968 -0.0164676 -0.358213
-0.453569 -0.0082001 -0.359505
-0.447783 0.00335529 -0.357716
-0.454893 -0.0092689 -0.354437
-0.451186 -0.0151914 -0.350867
-0.455926 -0.0139485 -0.350291
-0.446501 -0.0120384 -0.350554
-0.442726 -0.00681728 -0.352229
-0.452933 0.00859515 -0.350341
-0.453121 -0.00373545 -0.345787
-0.447311 0.0130775 -0.34656
-0.448856 -0.0122687 -0.339528
-0.436047 -0.00541307 -0.341685
-0.441212 0.00170772 -0.341338
-0.421995 0.00915089 -0.339868
-0.445924 0.0223352 -0.340055
-0.445201 -0.00623686 -0.335862
-0.435727 0.0186011 -0.336339
-0.421208 0.00623962 -0.331587
-0.41676 -0.0166731 -0.329183
-0.41562 0.00401314 -0.325457
-0.409109 0.018201 -0.326694
-0.419101 -0.00231031 -0.319525
-0.407977 0.00273259 -0.316565
-0.422125 0.00961917 -0.317198
-0.412103 -0.00801201 -0.314258
-0.423066 0.00217282 -0.314752
-0.414867 0.00508207 -0.313867
-0.413447 0.0212553 -0.316317
-0.415325 -0.0294982 -0.312432
-0.415917 -0.00146384 -0.312208
-0.410619 -0.000620249 -0.309522
-0.405848 0.00659885 -0.310248
-0.413185 -0.00364428 -0.305822
-0.404375 -0.00138439 -0.306878
-0.396962 0.00737587 -0.306365
-0.410439 0.00406605 -0.302946
-0.385444 0.0152816 -0.302254
-0.40578 -0.00727327 -0.301696
-0.389866 0.00458593 -0.298815
-0.400534 -0.00279085 -0.295506
-0.399986 0.0163994 -0.295649
-0.408354 -0.0313376 -0.293351
-0.403302 -0.0309769 -0.295004
-0.389904 -0.00454798 -0.291032
-0.401611 0.0288468 -0.289869
-0.395157 -0.0238628 -0.284895
-0.380622 -0.0116571 -0.285628
-0.383822 -0.00371408 -0.284781
-0.383713 0.00604188 -0.284366
-0.386319 0.0130581 -0.281141
-0.3885 0.0188037 -0.282022
-0.370421 -0.0275435 -0.278568
-0.379925 -0.0166048 -0.279396
-0.377918 -0.0131942 -0.276955
-0.371737 -0.00225198 -0.279416
-0.372379 0.0011989 -0.27925
-0.378398 0.00459325 -0.276824
-0.380761 0.0156849 -0.27939
-0.371039 -0.0194542 -0.272272
-0.363243 -0.00748635 -0.272833
-0.376756 -0.0056279 -0.275273
-0.371917 -0.00668805 -0.272573
-0.370005 0.00370477 -0.274744
-0.378561 0.0141002 -0.274873
-0.390129 0.0448383 -0.278347
-0.367364 -0.0254289 -0.270223
-0.361698 -0.012359 -0.268294
-0.360481 -0.0067654 -0.27045
-0.369541 -0.00163856 -0.271032
-0.36538 0.000491586 -0.270858
-0.384628 0.0342865 -0.272283
-0.381614 0.0315737 -0.270409
-0.368868 -0.0155224 -0.267387
-0.360053 -0.00810908 -0.265863
-0.358652 -0.00458993 -0.267631
-0.364344 -0.00200554 -0.264745
-0.362529 0.00331978 -0.267017
-0.418645 0.00405811 -0.265155
-0.365971 0.00514448 -0.267935
-0.359681 0.00715161 -0.268496
-0.363185 0.00827499 -0.264248
-0.365338 -0.0233016 -0.261378
-0.371686 -0.0198168 -0.263729
-0.359227 -0.0115242 -0.2638
-0.362013 0.0155121 -0.263588
-0.347876 -0.0189254 -0.25958
-0.35371 -0.0147855 -0.258804
-0.350485 -0.000260492 -0.257994
-0.34741 -0.00152975 -0.257116
-0.360658 0.00219745 -0.260241
-0.354501 0.00161027 -0.258189
-0.359053 0.0280825 -0.258647
-0.349063 -0.00470094 -0.255232
-0.348476 0.00258261 -0.254535
-0.359422 0.0325364 -0.257107
-0.35866 0.0402869 -0.255825
-0.349383 -0.0149641 -0.252216
-0.343456 0.00330647 -0.252748
-0.346326 0.0283251 -0.251304
-0.353283 0.0296554 -0.253426
-0.355928 0.0398093 -0.250643
-0.331988 -0.010339 -0.24582
-0.333111 0.0026027 -0.246127
-0.334305 0.00608915 -0.248267
-0.329892 0.00682525 -0.245167
-0.335464 0.0140387 -0.247446
-0.340322 0.0203943 -0.247324
-0.344266 0.0236484 -0.248792
-0.350208 0.0321965 -0.249083
-0.328226 -0.0103123 -0.242733
-0.331577 -0.00546765 -0.244857
-0.327765 -0.00418964 -0.244039
-0.325484 -0.00585797 -0.242624
-0.328234 0.000567328 -0.244634
-0.326269 -0.00181544 -0.242636
-0.323157 -0.00085977 -0.241465
-0.329607 0.00377471 -0.24204
-0.327013 0.00640836 -0.244254
-0.325104 0.00396058 -0.24304
-0.322886 0.00562728 -0.241885
-0.329835 0.0101956 -0.24491
-0.326964 0.00964686 -0.243268
-0.324212 0.0106799 -0.242104
-0.326707 -0.0302182 -0.238977
-0.335626 0.0340198 -0.2406
-0.355078 0.0504543 -0.242858
-0.313362 -0.0231034 -0.235508
-0.306009 -0.0112625 -0.234509
-0.312188 -0.00145625 -0.236645
-0.307129 -0.00417827 -0.234414
-0.308077 0.00118806 -0.235979
-0.310965 0.00427689 -0.235916
-0.30621 0.00467976 -0.234971
-0.311343 0.00966497 -0.236821
-0.308712 -0.0256593 -0.233005
-0.306622 -0.0273893 -0.231681
-0.306058 -0.0235314 -0.232379
-0.303292 -0.0239168 -0.231078
-0.301885 -0.0181815 -0.231736
-0.306451 -0.0151506 -0.233074
-0.301789 -0.0130197 -0.232542
-0.303548 -0.00908693 -0.233713
-0.298519 -0.00903002 -0.231604
-0.301111 -0.00257934 -0.231931
-0.302968 0.00322856 -0.233696
-0.30619 0.009803 -0.23464
-0.309084 0.0140291 -0.234395
-0.30638 0.0186165 -0.232375
-0.312276 -0.040526 -0.229236
-0.299144 -0.0202169 -0.22911
-0.297384 0.00827479 -0.229936
-0.301951 0.0167512 -0.23089
-0.297795 -0.0340321 -0.226003
-0.29242 -0.0240318 -0.225635
-0.286047 -0.0166007 -0.225058
-0.288813 -0.0161572 -0.226697
-0.287874 -0.008119 -0.227225
-0.285205 -0.00686288 -0.226157
-0.287014 0.0196989 -0.225241
-0.295736 0.0203704 -0.227591
-0.291729 -0.0387384 -0.221972
-0.283521 -0.029846 -0.221506
-0.274262 -0.016834 -0.220551
-0.272792 -0.0139155 -0.220262
-0.277217 -0.0132461 -0.221098
-0.276212 -0.00802935 -0.222325
-0.276277 0.00164453 -0.222547
-0.278026 0.00565076 -0.223043
-0.274446 0.00914714 -0.220285
-0.272535 0.0136948 -0.22015
-0.2809 0.0157048 -0.223368
-0.280152 0.020729 -0.222135
-0.293272 -0.0474097 -0.218545
-0.27076 -0.0275033 -0.216911
-0.276185 -0.0224599 -0.220304
-0.269345 -0.0178225 -0.217239
-0.266376 -0.0140059 -0.217541
-0.269454 -0.0109721 -0.219185
-0.266977 -0.00886743 -0.218375
-0.264492 -0.00722657 -0.217394
-0.273334 -0.000914714 -0.22027
-0.268518 0.00116692 -0.216726
-0.271176 0.00363699 -0.219177
-0.270594 0.00800865 -0.219781
-0.267529 0.00771068 -0.217134
-0.293304 0.0150005 -0.222085
-0.271238 0.0174541 -0.21901
-0.266311 0.0175985 -0.216932
-0.274647 0.0299152 -0.217712
-0.260791 -0.0224496 -0.213763
-0.263978 -0.0191846 -0.214749
-0.259855 -0.0161007 -0.213465
-0.257122 -0.0130776 -0.213653
-0.259807 -0.00653182 -0.215441
-0.25707 -0.00418499 -0.213298
-0.256652 -0.000319322 -0.214321
-0.263087 0.00116832 -0.215905
-0.254369 0.00660877 -0.213058
-0.256324 0.00965339 -0.213742
-0.260757 0.0116332 -0.215509
-0.258457 0.0136959 -0.214204
-0.259596 0.0199309 -0.213766
-0.272119 -0.0450358 -0.211211
-0.26609 -0.0402477 -0.211073
-0.251367 -0.0233241 -0.209785
-0.252102 -0.0178819 -0.210956
-0.254557 -0.0142418 -0.210568
-0.249351 -0.00593586 -0.211054
-0.252254 -0.00504942 -0.21232
-0.253869 -0.00135133 -0.212586
-0.250278 -0.00156014 -0.210551
-0.253649 0.00181584 -0.212961
-0.247914 0.00894587 -0.210239
-0.274868 0.0431069 -0.212071
-0.278387 -0.0518612 -0.210448
-0.269164 -0.0505891 -0.207312
-0.256717 -0.0366555 -0.20727
-0.241216 -0.016204 -0.206668
-0.242566 -0.0117346 -0.207801
-0.246157 -0.0102574 -0.209489
-0.242672 -0.00769542 -0.208153
-0.246513 -0.00640125 -0.209836
-0.243328 0.00183895 -0.207502
-0.242746 0.0176582 -0.207042
-0.237018 -0.02327 -0.203685
-0.232425 -0.0188694 -0.202655
-0.238234 -0.0145209 -0.204588
-0.234134 -0.0146764 -0.203879
-0.237143 -0.0103727 -0.205497
-0.240013 -0.00584226 -0.205798
-0.235984 0.0103031 -0.205202
-0.235855 0.0139538 -0.203584
-0.238927 0.0191414 -0.204162
-0.248066 0.0228968 -0.203945
-0.231123 -0.02592 -0.1996
-0.22716 -0.0155912 -0.20082
-0.231358 -0.0121617 -0.201846
-0.226693 -0.0123191 -0.200901
-0.259189 0.0530445 -0.202363
-0.231018 -0.0307927 -0.198457
-0.22665 -0.0262275 -0.198784
-0.220543 -0.0203133 -0.196388
-0.222807 -0.0164033 -0.198893
-0.214628 -0.0158718 -0.195501
-0.221236 -0.0122377 -0.198603
-0.228883 -0.0105621 -0.199117
-0.219117 -0.00362638 -0.198432
-0.21528 -0.00435612 -0.196574
-0.220972 -0.000813064 -0.198911
-0.216068 -0.00141054 -0.197102
-0.212426 -0.00223882 -0.195549
-0.220399 0.00634346 -0.197712
-0.215325 0.00723319 -0.195586
-0.218465 0.0130836 -0.197426
-0.235087 0.0416897 -0.19675
-0.215338 -0.0233628 -0.194699
-0.212229 -0.0245786 -0.19316
-0.230706 -0.00773698 -0.196083
-0.216744 -0.00870929 -0.193632
-0.211201 0.00129492 -0.193894
-0.223178 0.00707342 -0.194443
-0.210597 0.00647112 -0.194397
-0.21388 0.0192816 -0.194765
-0.228442 0.0429737 -0.194704
-0.222006 -0.043754 -0.190612
-0.203202 -0.0183125 -0.189317
-0.209034 -0.0150987 -0.192086
-0.200121 -0.014539 -0.189237
-0.202854 -0.0142366 -0.190691
-0.203294 -0.00696251 -0.191637
-0.196719 -0.00637585 -0.18886
-0.196985 -0.00160805 -0.188982
-0.206587 0.000484439 -0.191964
-0.197453 0.00632037 -0.188137
-0.210837 0.0198853 -0.192242
-0.203075 0.0186266 -0.189249
-0.204226 0.0257208 -0.189605
-0.207371 0.0329437 -0.189293
-0.256283 -0.0703336 -0.189367
-0.19268 -0.0193338 -0.185788
-0.194499 -0.0149593 -0.185981
-0.195289 -0.00388488 -0.188001
-0.1935 -0.00489606 -0.185811
-0.226543 -0.000602289 -0.186556
-0.193913 -0.000402841 -0.186617
-0.19213 0.00366204 -0.186982
-0.193403 0.00894751 -0.186151
-0.200071 0.0223729 -0.18745
-0.195866 0.0242131 -0.186397
-0.210556 0.0382143 -0.188028
-0.196111 -0.0336103 -0.184454
[...]
POINT_DATA 792
VECTORS i float
0.0 0.0 0.0
0.0 0.0 0.0
0.0 0.0 0.0
0.0 0.0 0.0
0.0 0.0 0.0
0.0 0.0 0.0
0.0 0.0 0.0
0.0 0.0 0.0
0.0 0.0 0.0
0.0 0.0 0.0
0.0 0.0 0.0
0.0 0.0 0.0
0.0 0.0 0.0
0.0 0.0 0.0
0.0 0.0 0.0
0.0 0.0 0.0
0.0 0.0 0.0
0.0 0.0 0.0
0.0 0.0 0.0
0.0 0.0 0.0
0.0 0.0 0.0
0.0 0.0 0.0
0.0 0.0 0.0
0.0 0.0 0.0
0.0 0.0 0.0
0.0 0.0 0.0
0.0 0.0 0.0
0.0 0.0 0.0
0.0 0.0 0.0
0.0 0.0 0.0
0.0 0.0 0.0
0.0 0.0 0.0
0.0 0.0 0.0
0.0 0.0 0.0
0.0 0.0 0.0
0.0 0.0 0.0
0.0 0.0 0.0
0.0 0.0 0.0
0.0 0.0 0.0
0.0 0.0 0.0
0.0 0.0 0.0
0.0 0.0 0.0
0.0 0.0 0.0
0.0 0.0 0.0
0.0 0.0 0.0
0.0 0.0 0.0
0.0 0.0 0.0
0.0 0.0 0.0
0.0 0.0 0.0
0.0 0.0 0.0
0.0 0.0 0.0
0.0 0.0 0.0
0.0 0.0 0.0
0.0 0.0 0.0
0.0 0.0 0.0
0.0 0.0 0.0
0.0 0.0 0.0
0.0 0.0 0.0
0.0 0.0 0.0
0.0 0.0 0.0
0.0 0.0 0.0
0.0 0.0 0.0
0.0 0.0 0.0
0.0 0.0 0.0
0.0 0.0 0.0
0.0 0.0 0.0
0.0 0.0 0.0
0.0 0.0 0.0
0.0 0.0 0.0
0.0 0.0 0.0
0.0 0.0 0.0
0.0 0.0 0.0
0.0 0.0 0.0
0.0 0.0 0.0
0.0 0.0 0.0
0.0 0.0 0.0
0.0 0.0 0.0
0.0 0.0 0.0
0.0 0.0 0.0
0.0 0.0 0.0
0.0 0.0 0.0
0.0 0.0 0.0
0.0 0.0 0.0
0.0 0.0 0.0
0.0 0.0 0.0
0.0 0.0 0.0
0.0 0.0 0.0
0.0 0.0 0.0
0.0 0.0 0.0
0.0 0.0 0.0
0.0 0.0 0.0
0.0 0.0 0.0
0.0 0.0 0.0
0.0 0.0 0.0
0.0 0.0 0.0
0.0 0.0 0.0
0.0 0.0 0.0
0.0 0.0 0.0
0.0 0.0 0.0
0.0 0.0 0.0
0.0 0.0 0.0
0.0 0.0 0.0
0.0 0.0 0.0
0.0 0.0 0.0
0.0 0.0 0.0
0.0 0.0 0.0
0.0 0.0 0.0
0.0 0.0 0.0
0.0 0.0 0.0
0.0 0.0 0.0
0.0 0.0 0.0
0.0 0.0 0.0
0.0 0.0 0.0
0.0 0.0 0.0
0.0 0.0 0.0
0.0 0.0 0.0
0.0 0.0 0.0
0.0 0.0 0.0
0.0 0.0 0.0
0.0 0.0 0.0
0.0 0.0 0.0
0.0 0.0 0.0
0.0 0.0 0.0
0.0 0.0 0.0
0.0 0.0 0.0
0.0 0.0 0.0
0.0 0.0 0.0
0.0 0.0 0.0
0.0 0.0 0.0
0.0 0.0 0.0
0.0 0.0 0.0
0.0 0.0 0.0
0.0 0.0 0.0
0.0 0.0 0.0
0.0 0.0 0.0
0.0 0.0 0.0
0.0 0.0 0.0
0.0 0.0 0.0
0.0 0.0 0.0
0.0 0.0 0.0
0.0 0.0 0.0
0.0 0.0 0.0
0.0 0.0 0.0
0.0 0.0 0.0
0.0 0.0 0.0
0.0 0.0 0.0
0.0 0.0 0.0
0.0 0.0 0.0
0.0 0.0 0.0
0.0 0.0 0.0
0.0 0.0 0.0
0.0 0.0 0.0
0.0 0.0 0.0
0.0 0.0 0.0
0.0 0.0 0.0
0.0 0.0 0.0
0.0 0.0 0.0
0.0 0.0 0.0
0.0 0.0 0.0
0.0 0.0 0.0
0.0 0.0 0.0
0.0 0.0 0.0
0.0 0.0 0.0
0.0 0.0 0.0
0.0 0.0 0.0
0.0 0.0 0.0
0.0 0.0 0.0
0.0 0.0 0.0
0.0 0.0 0.0
0.0 0.0 0.0
0.0 0.0 0.0
0.0 0.0 0.0
0.0 0.0 0.0
0.0 0.0 0.0
0.0 0.0 0.0
0.0 0.0 0.0
0.0 0.0 0.0
0.0 0.0 0.0
0.0 0.0 0.0
0.0 0.0 0.0
0.0 0.0 0.0
0.0 0.0 0.0
0.0 0.0 0.0
0.0 0.0 0.0
0.0 0.0 0.0
0.0 0.0 0.0
0.0 0.0 0.0
0.0 0.0 0.0
0.0 0.0 0.0
0.0 0.0 0.0
0.0 0.0 0.0
0.0 0.0 0.0
0.0 0.0 0.0
0.0 0.0 0.0
0.0 0.0 0.0
0.0 0.0 0.0
0.0 0.0 0.0
0.0 0.0 0.0
0.0 0.0 0.0
0.0 0.0 0.0
0.0 0.0 0.0
0.0 0.0 0.0
0.0 0.0 0.0
0.0 0.0 0.0
0.0 0.0 0.0
0.0 0.0 0.0
0.0 0.0 0.0
0.0 0.0 0.0
0.0 0.0 0.0
0.0 0.0 0.0
0.0 0.0 0.0
0.0 0.0 0.0
0.0 0.0 0.0
0.0 0.0 0.0
0.0 0.0 0.0
0.0 0.0 0.0
0.0 0.0 0.0
0.0 0.0 0.0
0.0 0.0 0.0
0.0 0.0 0.0
0.0 0.0 0.0
0.0 0.0 0.0
0.0 0.0 0.0
0.0 0.0 0.0
0.0 0.0 0.0
0.0 0.0 0.0
0.0 0.0 0.0
0.0 0.0 0.0
0.0 0.0 0.0
0.0 0.0 0.0
0.0 0.0 0.0
0.0 0.0 0.0
0.0 0.0 0.0
0.0 0.0 0.0
0.0 0.0 0.0
0.0 0.0 0.0
0.0 0.0 0.0
0.0 0.0 0.0
0.0 0.0 0.0
0.0 0.0 0.0
0.0 0.0 0.0
0.0 0.0 0.0
0.0 0.0 0.0
0.0 0.0 0.0
0.0 0.0 0.0
0.0 0.0 0.0
0.0 0.0 0.0
0.0 0.0 0.0
0.0 0.0 0.0
0.0 0.0 0.0
0.0 0.0 0.0
0.0 0.0 0.0
0.0 0.0 0.0
0.0 0.0 0.0
0.0 0.0 0.0
0.0 0.0 0.0
0.0 0.0 0.0
0.0 0.0 0.0
0.0 0.0 0.0
0.0 0.0 0.0
0.0 0.0 0.0
0.0 0.0 0.0
0.0 0.0 0.0
0.0 0.0 0.0
0.0 0.0 0.0
0.0 0.0 0.0
0.0 0.0 0.0
0.0 0.0 0.0
0.0 0.0 0.0
0.0 0.0 0.0
0.0 0.0 0.0
0.0 0.0 0.0
0.0 0.0 0.0
0.0 0.0 0.0
0.0 0.0 0.0
0.0 0.0 0.0
0.0 0.0 0.0
0.0 0.0 0.0
0.0 0.0 0.0
0.0 0.0 0.0
0.0 0.0 0.0
0.0 0.0 0.0
0.0 0.0 0.0
0.0 0.0 0.0
0.0 0.0 0.0
0.0 0.0 0.0
0.0 0.0 0.0
0.0 0.0 0.0
0.0 0.0 0.0
0.0 0.0 0.0
0.0 0.0 0.0
0.0 0.0 0.0
0.0 0.0 0.0
0.0 0.0 0.0
0.0 0.0 0.0
0.0 0.0 0.0
0.0 0.0 0.0
0.0 0.0 0.0
0.0 0.0 0.0
0.0 0.0 0.0
0.0 0.0 0.0
0.0 0.0 0.0
0.0 0.0 0.0
0.0 0.0 0.0
0.0 0.0 0.0
0.0 0.0 0.0
0.0 0.0 0.0
0.0 0.0 0.0
0.0 0.0 0.0
0.0 0.0 0.0
0.0 0.0 0.0
0.0 0.0 0.0
0.0 0.0 0.0
0.0 0.0 0.0
0.0 0.0 0.0
0.0 0.0 0.0
0.0 0.0 0.0
0.0 0.0 0.0
0.0 0.0 0.0
0.0 0.0 0.0
0.0 0.0 0.0
0.0 0.0 0.0
0.0 0.0 0.0
0.0 0.0 0.0
0.0 0.0 0.0
0.0 0.0 0.0
0.0 0.0 0.0
0.0 0.0 0.0
0.0 0.0 0.0
0.0 0.0 0.0
0.0 0.0 0.0
0.0 0.0 0.0
0.0 0.0 0.0
0.0 0.0 0.0
0.0 0.0 0.0
0.0 0.0 0.0
0.0 0.0 0.0
0.0 0.0 0.0
0.0 0.0 0.0
0.0 0.0 0.0
0.0 0.0 0.0
0.0 0.0 0.0
0.0 0.0 0.0
0.0 0.0 0.0
0.0 0.0 0.0
0.0 0.0 0.0
0.0 0.0 0.0
0.0 0.0 0.0
0.0 0.0 0.0
0.0 0.0 0.0
0.0 0.0 0.0
0.0 0.0 0.0
0.0 0.0 0.0
0.0 0.0 0.0
0.0 0.0 0.0
0.0 0.0 0.0
0.0 0.0 0.0
0.0 0.0 0.0
0.0 0.0 0.0
0.0 0.0 0.0
0.0 0.0 0.0
0.0 0.0 0.0
0.0 0.0 0.0
0.0 0.0 0.0
0.0 0.0 0.0
0.0 0.0 0.0
0.0 0.0 0.0
0.0 0.0 0.0
0.0 0.0 0.0
0.0 0.0 0.0
0.0 0.0 0.0
0.0 0.0 0.0
0.0 0.0 0.0
0.0 0.0 0.0
0.0 0.0 0.0
0.0 0.0 0.0
0.0 0.0 0.0
0.0 0.0 0.0
0.0 0.0 0.0
0.0 0.0 0.0
0.0 0.0 0.0
0.0 0.0 0.0
0.0 0.0 0.0
0.0 0.0 0.0
0.0 0.0 0.0
0.0 0.0 0.0
0.0 0.0 0.0
0.0 0.0 0.0
0.0 0.0 0.0
0.0 0.0 0.0
0.0 0.0 0.0
0.0 0.0 0.0
0.0 0.0 0.0
0.0 0.0 0.0
0.0 0.0 0.0
0.0 0.0 0.0
0.0 0.0 0.0
0.0 0.0 0.0
0.0 0.0 0.0
0.0 0.0 0.0
0.0 0.0 0.0
0.0 0.0 0.0
0.0 0.0 0.0
0.0 0.0 0.0
0.0 0.0 0.0
0.0 0.0 0.0
0.0 0.0 0.0
0.0 0.0 0.0
0.0 0.0 0.0
0.0 0.0 0.0
0.0 0.0 0.0
0.0 0.0 0.0
0.0 0.0 0.0
0.0 0.0 0.0
0.0 0.0 0.0
0.0 0.0 0.0
0.0 0.0 0.0
0.0 0.0 0.0
0.0 0.0 0.0
0.0 0.0 0.0
0.0 0.0 0.0
0.0 0.0 0.0
0.0 0.0 0.0
0.0 0.0 0.0
0.0 0.0 0.0
0.0 0.0 0.0
0.0 0.0 0.0
0.0 0.0 0.0
0.0 0.0 0.0
0.0 0.0 0.0
0.0 0.0 0.0
0.0 0.0 0.0
0.0 0.0 0.0
0.0 0.0 0.0
0.0 0.0 0.0
0.0 0.0 0.0
0.0 0.0 0.0
0.0 0.0 0.0
0.0 0.0 0.0
0.0 0.0 0.0
0.0 0.0 0.0
0.0 0.0 0.0
0.0 0.0 0.0
0.0 0.0 0.0
0.0 0.0 0.0
0.0 0.0 0.0
0.0 0.0 0.0
0.0 0.0 0.0
0.0 0.0 0.0
0.0 0.0 0.0
0.0 0.0 0.0
0.0 0.0 0.0
0.0 0.0 0.0
0.0 0.0 0.0
0.0 0.0 0.0
0.0 0.0 0.0
0.0 0.0 0.0
0.0 0.0 0.0
0.0 0.0 0.0
0.0 0.0 0.0
0.0 0.0 0.0
0.0 0.0 0.0
0.0 0.0 0.0
0.0 0.0 0.0
0.0 0.0 0.0
0.0 0.0 0.0
0.0 0.0 0.0
0.0 0.0 0.0
0.0 0.0 0.0
0.0 0.0 0.0
0.0 0.0 0.0
0.0 0.0 0.0
0.0 0.0 0.0
0.0 0.0 0.0
0.0 0.0 0.0
0.0 0.0 0.0
0.0 0.0 0.0
0.0 0.0 0.0
0.0 0.0 0.0
0.0 0.0 0.0
0.0 0.0 0.0
0.0 0.0 0.0
0.0 0.0 0.0
0.0 0.0 0.0
0.0 0.0 0.0
0.0 0.0 0.0
0.0 0.0 0.0
0.0 0.0 0.0
0.0 0.0 0.0
0.0 0.0 0.0
0.0 0.0 0.0
0.0 0.0 0.0
0.0 0.0 0.0
0.0 0.0 0.0
0.0 0.0 0.0
0.0 0.0 0.0
0.0 0.0 0.0
0.0 0.0 0.0
0.0 0.0 0.0
0.0 0.0 0.0
0.0 0.0 0.0
0.0 0.0 0.0
0.0 0.0 0.0
0.0 0.0 0.0
0.0 0.0 0.0
0.0 0.0 0.0
0.0 0.0 0.0
0.0 0.0 0.0
0.0 0.0 0.0
0.0 0.0 0.0
0.0 0.0 0.0
0.0 0.0 0.0
0.0 0.0 0.0
0.0 0.0 0.0
0.0 0.0 0.0
0.0 0.0 0.0
0.0 0.0 0.0
0.0 0.0 0.0
0.0 0.0 0.0
0.0 0.0 0.0
0.0 0.0 0.0
0.0 0.0 0.0
0.0 0.0 0.0
0.0 0.0 0.0
0.0 0.0 0.0
0.0 0.0 0.0
0.0 0.0 0.0
0.0 0.0 0.0
0.0 0.0 0.0
0.0 0.0 0.0
0.0 0.0 0.0
0.0 0.0 0.0
0.0 0.0 0.0
0.0 0.0 0.0
0.0 0.0 0.0
0.0 0.0 0.0
0.0 0.0 0.0
0.0 0.0 0.0
0.0 0.0 0.0
0.0 0.0 0.0
0.0 0.0 0.0
0.0 0.0 0.0
0.0 0.0 0.0
0.0 0.0 0.0
0.0 0.0 0.0
0.0 0.0 0.0
0.0 0.0 0.0
0.0 0.0 0.0
0.0 0.0 0.0
0.0 0.0 0.0
0.0 0.0 0.0
0.0 0.0 0.0
0.0 0.0 0.0
0.0 0.0 0.0
0.0 0.0 0.0
0.0 0.0 0.0
0.0 0.0 0.0
0.0 0.0 0.0
0.0 0.0 0.0
0.0 0.0 0.0
0.0 0.0 0.0
0.0 0.0 0.0
0.0 0.0 0.0
0.0 0.0 0.0
0.0 0.0 0.0
0.0 0.0 0.0
0.0 0.0 0.0
0.0 0.0 0.0
0.0 0.0 0.0
0.0 0.0 0.0
0.0 0.0 0.0
0.0 0.0 0.0
0.0 0.0 0.0
0.0 0.0 0.0
0.0 0.0 0.0
0.0 0.0 0.0
0.0 0.0 0.0
0.0 0.0 0.0
0.0 0.0 0.0
0.0 0.0 0.0
0.0 0.0 0.0
0.0 0.0 0.0
0.0 0.0 0.0
0.0 0.0 0.0
0.0 0.0 0.0
0.0 0.0 0.0
0.0 0.0 0.0
0.0 0.0 0.0
0.0 0.0 0.0
0.0 0.0 0.0
0.0 0.0 0.0
0.0 0.0 0.0
0.0 0.0 0.0
0.0 0.0 0.0
0.0 0.0 0.0
0.0 0.0 0.0
0.0 0.0 0.0
0.0 0.0 0.0
0.0 0.0 0.0
0.0 0.0 0.0
0.0 0.0 0.0
0.0 0.0 0.0
0.0 0.0 0.0
0.0 0.0 0.0
0.0 0.0 0.0
0.0 0.0 0.0
0.0 0.0 0.0
0.0 0.0 0.0
0.0 0.0 0.0
0.0 0.0 0.0
0.0 0.0 0.0
0.0 0.0 0.0
0.0 0.0 0.0
0.0 0.0 0.0
0.0 0.0 0.0
0.0 0.0 0.0
0.0 0.0 0.0
0.0 0.0 0.0
0.0 0.0 0.0
0.0 0.0 0.0
0.0 0.0 0.0
0.0 0.0 0.0
0.0 0.0 0.0
0.0 0.0 0.0
0.0 0.0 0.0
0.0 0.0 0.0
0.0 0.0 0.0
0.0 0.0 0.0
0.0 0.0 0.0
0.0 0.0 0.0
0.0 0.0 0.0
0.0 0.0 0.0
0.0 0.0 0.0
0.0 0.0 0.0
0.0 0.0 0.0
0.0 0.0 0.0
0.0 0.0 0.0
0.0 0.0 0.0
0.0 0.0 0.0
0.0 0.0 0.0
0.0 0.0 0.0
0.0 0.0 0.0
0.0 0.0 0.0
0.0 0.0 0.0
0.0 0.0 0.0
0.0 0.0 0.0
0.0 0.0 0.0
0.0 0.0 0.0
0.0 0.0 0.0
0.0 0.0 0.0
0.0 0.0 0.0
0.0 0.0 0.0
0.0 0.0 0.0
0.0 0.0 0.0
0.0 0.0 0.0
0.0 0.0 0.0
0.0 0.0 0.0
0.0 0.0 0.0
0.0 0.0 0.0
0.0 0.0 0.0
0.0 0.0 0.0
0.0 0.0 0.0
0.0 0.0 0.0
0.0 0.0 0.0
0.0 0.0 0.0
0.0 0.0 0.0
0.0 0.0 0.0
0.0 0.0 0.0
0.0 0.0 0.0
0.0 0.0 0.0
0.0 0.0 0.0
0.0 0.0 0.0
0.0 0.0 0.0
0.0 0.0 0.0
0.0 0.0 0.0
0.0 0.0 0.0
0.0 0.0 0.0
0.0 0.0 0.0
0.0 0.0 0.0
0.0 0.0 0.0
0.0 0.0 0.0
0.0 0.0 0.0
0.0 0.0 0.0
0.0 0.0 0.0
0.0 0.0 0.0
0.0 0.0 0.0
0.0 0.0 0.0
0.0 0.0 0.0
0.0 0.0 0.0
0.0 0.0 0.0
0.0 0.0 0.0
0.0 0.0 0.0
0.0 0.0 0.0
0.0 0.0 0.0
0.0 0.0 0.0
0.0 0.0 0.0
0.0 0.0 0.0
0.0 0.0 0.0
0.0 0.0 0.0
0.0 0.0 0.0
0.0 0.0 0.0
0.0 0.0 0.0
0.0 0.0 0.0
0.0 0.0 0.0
0.0 0.0 0.0
0.0 0.0 0.0
0.0 0.0 0.0
0.0 0.0 0.0
0.0 0.0 0.0
0.0 0.0 0.0
0.0 0.0 0.0
0.0 0.0 0.0
0.0 0.0 0.0
0.0 0.0 0.0
0.0 0.0 0.0
0.0 0.0 0.0
0.0 0.0 0.0
0.0 0.0 0.0
0.0 0.0 0.0
0.0 0.0 0.0
0.0 0.0 0.0
0.0 0.0 0.0
0.0 0.0 0.0
0.0 0.0 0.0
0.0 0.0 0.0
0.0 0.0 0.0
0.0 0.0 0.0
0.0 0.0 0.0
0.0 0.0 0.0
0.0 0.0 0.0
0.0 0.0 0.0
0.0 0.0 0.0
0.0 0.0 0.0
0.0 0.0 0.0
0.0 0.0 0.0
0.0 0.0 0.0
0.0 0.0 0.0
0.0 0.0 0.0
0.0 0.0 0.0
0.0 0.0 0.0
0.0 0.0 0.0
0.0 0.0 0.0
0.0 0.0 0.0
0.0 0.0 0.0
0.0 0.0 0.0
0.0 0.0 0.0
0.0 0.0 0.0
0.0 0.0 0.0
0.0 0.0 0.0
0.0 0.0 0.0
0.0 0.0 0.0
0.0 0.0 0.0
0.0 0.0 0.0
0.0 0.0 0.0
0.0 0.0 0.0
0.0 0.0 0.0
0.0 0.0 0.0
0.0 0.0 0.0
0.0 0.0 0.0
0.0 0.0 0.0
0.0 0.0 0.0
0.0 0.0 0.0
0.0 0.0 0.0
0.0 0.0 0.0
0.0 0.0 0.0
0.0 0.0 0.0
0.0 0.0 0.0
0.0 0.0 0.0
0.0 0.0 0.0
0.0 0.0 0.0
0.0 0.0 0.0
0.0 0.0 0.0
0.0 0.0 0.0
0.0 0.0 0.0
0.0 0.0 0.0
0.0 0.0 0.0
0.0 0.0 0.0
0.0 0.0 0.0
0.0 0.0 0.0
0.0 0.0 0.0
0.0 0.0 0.0
0.0 0.0 0.0
0.0 0.0 0.0
0.0 0.0 0.0
0.0 0.0 0.0
0.0 0.0 0.0
0.0 0.0 0.0
0.0 0.0 0.0
0.0 0.0 0.0
0.0 0.0 0.0
0.0 0.0 0.0
0.0 0.0 0.0
VECTORS f float
0.0 0.0 0.0
0.0 0.0 0.0
0.0 0.0 0.0
0.0 0.0 0.0
0.0 0.0 0.0
0.0 0.0 -0.000346714
0.0 0.0 -0.00160516
0.0 0.0 -0.00160516
0.0 0.0 -0.000346714
0.0 0.0 -0.000346714
0.0 0.0 -0.000346714
0.0 0.0 -0.000346714
0.0 0.0 -0.000346714
0.0 0.0 -0.00160516
0.0 0.0 -0.000346714
0.0 0.0 -0.000346714
0.0 0.0 -0.000346714
0.0 0.0 -0.000346714
0.0 0.0 -0.000346714
0.0 0.0 -0.000346714
0.0 0.0 -0.00160516
0.0 0.0 -0.00160516
0.0 0.0 -0.000346714
0.0 0.0 -0.000346714
0.0 0.0 -0.000346714
0.0 0.0 -0.000346714
0.0 0.0 -0.00160516
0.0 0.0 -0.00160516
0.0 0.0 -0.000346714
0.0 0.0 -0.000346714
0.0 0.0 -0.000346714
0.0 0.0 -0.00160516
0.0 0.0 -0.00160516
0.0 0.0 -0.000346714
0.0 0.0 -0.00160516
0.0 0.0 -0.00160516
0.0 0.0 -0.000346714
0.0 0.0 -0.000346714
0.0 0.0 -0.00160516
0.0 0.0 -0.000346714
0.0 0.0 -0.000346714
0.0 0.0 -0.000346714
0.0 0.0 -0.00160516
0.0 0.0 -0.000346714
0.0 0.0 -0.00160516
0.0 0.0 -0.00160516
0.0 0.0 -0.000346714
0.0 0.0 -0.000346714
0.0 0.0 -0.000346714
0.0 0.0 -0.00160516
0.0 0.0 -0.000346714
0.0 0.0 -0.00160516
0.0 0.0 -0.000346714
0.0 0.0 -0.00160516
0.0 0.0 -0.00160516
0.0 0.0 -0.000346714
0.0 0.0 -0.000346714
0.0 0.0 -0.000346714
0.0 0.0 -0.000346714
0.0 0.0 -0.000346714
0.0 0.0 -0.00160516
0.0 0.0 -0.000346714
0.0 0.0 -0.00160516
0.0 0.0 -0.00160516
0.0 0.0 -0.000346714
0.0 0.0 -0.000346714
0.0 0.0 -0.000346714
0.0 0.0 -0.000346714
0.0 0.0 -0.000346714
0.0 0.0 -0.000346714
0.0 0.0 -0.00160516
0.0 0.0 -0.000346714
0.0 0.0 -0.000346714
0.0 0.0 -0.000346714
0.0 0.0 -0.000346714
0.0 0.0 -0.00160516
0.0 0.0 -0.00160516
0.0 0.0 -0.00160516
0.0 0.0 -0.000346714
0.0 0.0 -0.000346714
0.0 0.0 -0.000346714
0.0 0.0 -0.000346714
0.0 0.0 -0.000346714
0.0 0.0 -0.00160516
0.0 0.0 -0.000346714
0.0 0.0 -0.000346714
0.0 0.0 -0.00160516
0.0 0.0 -0.00160516
0.0 0.0 -0.00160516
0.0 0.0 -0.000346714
0.0 0.0 -0.00160516
0.0 0.0 -0.000346714
0.0 0.0 -0.00160516
0.0 0.0 -0.00160516
0.0 0.0 -0.000346714
0.0 0.0 -0.00160516
0.0 0.0 -0.000346714
0.0 0.0 -0.000346714
0.0 0.0 -0.000346714
0.0 0.0 -0.00160516
0.0 0.0 -0.000346714
0.0 0.0 -0.000346714
0.0 0.0 -0.000346714
0.0 0.0 -0.000346714
0.0 0.0 -0.00160516
0.0 0.0 -0.00160516
0.0 0.0 -0.00160516
0.0 0.0 -0.00160516
0.0 0.0 -0.000346714
0.0 0.0 -0.000346714
0.0 0.0 -0.000346714
0.0 0.0 -0.000346714
0.0 0.0 -0.00160516
0.0 0.0 -0.00160516
0.0 0.0 -0.000346714
0.0 0.0 -0.000346714
0.0 0.0 -0.000346714
0.0 0.0 -0.000346714
0.0 0.0 -0.000346714
0.0 0.0 -0.00160516
0.0 0.0 -0.00160516
0.0 0.0 -0.000346714
0.0 0.0 -0.00160516
0.0 0.0 -0.000346714
0.0 0.0 -0.00160516
0.0 0.0 -0.00160516
0.0 0.0 -0.00160516
0.0 0.0 -0.000346714
0.0 0.0 -0.000346714
0.0 0.0 -0.000346714
0.0 0.0 -0.000346714
0.0 0.0 -0.000346714
0.0 0.0 -0.00160516
0.0 0.0 -0.000346714
0.0 0.0 -0.000346714
0.0 0.0 -0.000346714
0.0 0.0 -0.00160516
0.0 0.0 -0.00160516
0.0 0.0 -0.00160516
0.0 0.0 -0.00160516
0.0 0.0 -0.00160516
0.0 0.0 -0.000346714
0.0 0.0 -0.000346714
0.0 0.0 -0.000346714
0.0 0.0 -0.000346714
0.0 0.0 -0.000346714
0.0 0.0 -0.00160516
0.0 0.0 -0.000346714
0.0 0.0 -0.000346714
0.0 0.0 -0.000346714
0.0 0.0 -0.000346714
0.0 0.0 -0.000346714
0.0 0.0 -0.000346714
0.0 0.0 -0.000346714
0.0 0.0 -0.00160516
0.0 0.0 -0.000346714
0.0 0.0 -0.000346714
-8.758e-05 2.2814e-05 -3.93842e-05
0.000102604 9.6911e-05 -1.79205e-06
-0.000393606 3.27928e-05 -0.000216515
-0.000148809 6.63705e-05 -0.000182916
-0.000443897 -6.72217e-05 -9.00057e-05
-8.94342e-05 -1.32875e-05 -4.31945e-05
-9.95863e-05 -1.43976e-05 -1.37089e-05
0.0 0.0 -0.000346714
0.0 0.0 -0.000346714
0.0 0.0 -0.000346714
0.0 0.0 -0.000346714
0.0 0.0 -0.000346714
-0.000331904 0.000112098 -0.000320711
-8.91504e-05 2.31266e-05 -3.72507e-05
-8.75168e-05 2.27926e-05 -3.96456e-05
-8.41792e-05 2.18995e-05 -4.94324e-05
-0.00042056 3.49656e-05 -0.000144248
-8.25713e-05 -1.22842e-05 -5.34209e-05
-8.84394e-05 -1.32889e-05 -3.80663e-05
-0.000394623 -0.000184028 -0.000199705
-0.000404925 -0.000187826 -0.000180675
0.0 0.0 -0.000346714
-0.000588732 0.000325424 0.000294836
-0.000399126 -6.02024e-05 -0.000193256
-0.000403507 -0.000188886 -0.000169271
0.0 0.0 -0.000346714
6.19687e-05 -5.13482e-05 -0.001392
0.0 0.0 -0.000346714
0.0 0.0 -0.000346714
-8.22568e-05 2.20491e-05 -5.77611e-05
-8.85313e-05 7.15722e-06 -3.76356e-05
7.44838e-05 4.95967e-05 -0.00052119
-3.94465e-05 -1.38578e-05 -0.000794383
0.0 0.0 -0.000346714
0.0 0.0 -0.000346714
-8.77638e-05 2.36294e-05 -3.99083e-05
-8.77122e-05 2.36108e-05 -4.01357e-05
-0.000221692 7.05901e-05 -0.00067089
-0.000186979 1.70902e-05 0.000244811
-5.30518e-05 -7.54741e-06 -0.000107784
-9.5666e-05 -1.32058e-05 -1.60061e-05
0.000112597 -3.14457e-05 -2.96514e-05
0.000994929 -0.000132715 -0.00176009
-9.75407e-05 -3.97915e-05 -3.10567e-05
0.0 0.0 -0.000346714
-0.000391818 0.000504232 0.00051589
0.0 0.0 -0.000346714
-6.52974e-05 3.10972e-05 -6.12425e-05
-0.000421879 0.000192574 -0.000189967
-8.84556e-05 2.40707e-05 -3.46987e-05
-0.000229577 6.09027e-05 0.000346202
-0.000104737 3.56239e-05 2.81498e-05
-0.000159899 6.44576e-06 0.000102123
-0.000407109 3.24111e-05 -0.000172266
0.0 0.0 -0.000346714
0.0 0.0 -0.00160516
0.0 0.0 -0.000346714
0.0 0.0 -0.00160516
0.0 0.0 -0.00160516
-2.86291e-05 -1.26191e-05 -0.000153473
-0.000136803 -4.91494e-05 -2.86174e-06
0.0 0.0 -0.000346714
0.0 0.0 -0.000346714
0.000213285 -0.00013695 -0.00194657
8.47582e-06 0.000393605 -0.000531559
0.0 0.0 -0.000346714
-9.02023e-05 9.37539e-06 -3.59501e-05
-0.000196907 2.08334e-05 -0.000570003
0.0 0.0 -0.000346714
-0.000417775 -4.57936e-05 -0.000173605
-7.6e-05 -8.15466e-06 -5.9991e-05
-8.76483e-05 -9.21853e-06 -3.85166e-05
-2.43176e-06 -7.04537e-07 -0.000257271
0.0 0.0 -0.000346714
-6.44356e-05 -2.03444e-05 -0.000114003
0.0 0.0 -0.000346714
0.0 0.0 -0.000346714
0.0 0.0 -0.000346714
0.0 0.0 -0.000346714
0.0 0.0 -0.00160516
-9.26829e-05 1.07863e-05 -2.95306e-05
4.76897e-06 0.000104408 3.361e-05
0.0 0.0 -0.000346714
0.0 0.0 -0.00160516
-8.85611e-05 -8.65348e-06 -3.94413e-05
-8.80464e-05 -8.13861e-06 -3.72224e-05
0.0 0.0 -0.00160516
0.0 0.0 -0.000346714
0.0 0.0 -0.000346714
0.0 0.0 -0.00160516
-8.4352e-05 3.16214e-05 -3.58321e-05
-7.92358e-05 1.37416e-05 -6.39604e-05
4.93214e-05 0.000175047 0.000629831
0.000139198 0.000233613 0.00183123
-0.00102971 0.000296499 -0.00252987
-0.000424105 -3.64058e-05 -0.000144789
-8.51261e-05 -2.92663e-05 -4.15909e-05
0.0 0.0 -0.000346714
2.175e-05 2.13282e-05 4.58786e-06
-0.000621169 8.50306e-05 0.00286893
-0.000133352 2.49078e-05 5.87416e-05
0.0 0.0 -0.000346714
0.0 0.0 -0.00160516
-6.05218e-05 -0.00039905 0.000561836
-0.000428706 0.00087629 -0.000405277
-0.000252892 -8.47013e-05 -0.000532598
0.0 0.0 -0.000346714
0.000360542 -0.000510937 -0.00220837
0.0 0.0 -0.000346714
0.00045605 0.000979917 0.00514724
0.0 0.0 -0.000346714
-0.000607336 -0.00111016 0.00205023
0.0 0.0 -0.00160516
-1.89719e-05 -3.94347e-05 5.06254e-06
-0.000392268 0.000210544 -0.000177779
0.0 0.0 -0.000346714
2.14301e-05 2.8184e-05 5.56426e-06
0.0 0.0 -0.000346714
0.0 0.0 -0.000346714
-8.96175e-05 -2.43279e-06 -3.84265e-05
0.0 0.0 -0.000346714
0.0 0.0 -0.000346714
-0.000173843 -0.000477913 0.000746963
-9.73792e-05 -2.61134e-06 -2.26569e-05
-0.000411126 -1.98018e-05 -0.000150236
-0.000691487 -6.40261e-05 0.000348475
-9.95855e-05 -2.90605e-05 -1.08296e-05
-0.000126476 -0.000114266 -0.000805267
-8.29518e-05 4.42363e-05 -4.46122e-05
0.0 0.0 -0.000346714
0.0 0.0 -0.000346714
0.0 0.0 -0.000346714
6.52142e-05 1.61772e-05 -0.00136939
0.0 0.0 -0.000346714
0.0 0.0 -0.000346714
0.00377293 0.000768805 0.000510629
-7.55281e-05 -7.05494e-05 -5.75213e-05
0.0 0.0 -0.00160516
-0.00042326 0.000117112 -0.000158501
0.0 0.0 -0.00160516
0.0 0.0 -0.000346714
1.1743e-05 -1.13195e-05 -0.000107289
-0.000125172 3.41625e-05 8.10389e-05
-0.000257796 -0.000684967 -0.00070059
-6.75531e-05 3.42137e-06 -0.000104122
0.0 0.0 -0.00160516
0.000152733 0.000269257 0.000942995
-0.00377293 -0.000768805 -0.0024625
-0.000401764 -9.93164e-05 -0.000175769
-3.45669e-06 5.67317e-07 -0.000322943
-8.39885e-05 -4.55805e-05 -4.09993e-05
0.0 0.0 -0.000346714
-8.63294e-05 2.48735e-05 -3.84952e-05
0.0 0.0 -0.00160516
0.000464608 -0.00411094 -0.00327477
0.0 0.0 -0.000346714
0.0 0.0 -0.00160516
-0.000170164 0.00493964 0.00258503
0.0 0.0 -0.000346714
0.0 0.0 -0.00160516
0.0 0.0 -0.00160516
-6.40313e-05 -3.24273e-05 -8.95031e-05
-0.000365168 -0.000306251 -0.000262439
-8.23959e-05 4.76469e-05 -4.21504e-05
0.0 0.0 -0.000346714
0.0 0.0 -0.00160516
0.0 0.0 -0.00160516
0.0 0.0 -0.000346714
-0.000291205 -1.19306e-06 -0.000605617
-0.000506356 -0.000110274 -2.13552e-06
-2.95442e-05 -4.83679e-06 -0.000158246
-0.000454488 0.000277319 0.000444627
0.0 0.0 -0.000346714
8.61362e-06 -2.64553e-05 -4.71314e-05
0.0 0.0 -0.000346714
-2.57633e-05 -4.66336e-06 -0.00100673
0.0 0.0 -0.00160516
-8.72366e-05 2.97782e-06 -3.56416e-05
0.0 0.0 -0.00160516
0.000101807 -9.14912e-05 2.7547e-05
-8.21655e-05 0.000586769 -0.000887441
-2.44879e-05 -4.51927e-06 -0.000212728
0.0 0.0 -0.000346714
0.0 0.0 -0.000346714
0.0 0.0 -0.00160516
0.0 0.0 -0.00160516
0.0 0.0 -0.000346714
0.0 0.0 -0.000346714
1.13232e-05 5.37139e-05 5.72751e-06
0.0 0.0 -0.000346714
0.000284189 1.51346e-05 -0.00185151
8.18843e-06 -6.69786e-05 2.88412e-05
8.21655e-05 -0.000586769 -0.00106443
-9.0258e-05 3.87172e-07 -3.90703e-05
-8.6571e-05 -1.82619e-05 -3.53417e-05
0.0 0.0 -0.000346714
0.0 0.0 -0.000346714
-0.000408636 -8.03841e-05 -0.000166639
7.90158e-05 -0.000117955 -0.000287726
0.0 0.0 -0.000346714
-0.000111991 -4.54075e-05 -1.35337e-05
-0.00577162 -0.00275706 0.0200654
0.0 0.0 -0.00160516
0.0 0.0 -0.000346714
1.05327e-05 -5.8804e-07 -0.000115944
2.05896e-05 3.61775e-05 6.74642e-06
-8.93187e-05 1.18962e-05 -3.86363e-05
0.0 0.0 -0.00160516
-8.93119e-05 1.18913e-05 -3.88203e-05
0.0 0.0 -0.000346714
0.0 0.0 -0.000346714
0.000182092 -0.000215892 0.000668704
-0.00018046 0.00234358 0.00902173
-8.45434e-05 9.14527e-05 -0.00160834
0.0 0.0 -0.00160516
0.0 0.0 -0.000346714
-0.00174126 0.000880644 0.00124249
-0.00115755 0.000655744 0.00241484
0.0 0.0 -0.000346714
-8.60075e-05 2.52115e-05 -3.90564e-05
-8.86783e-05 2.1038e-05 -4.00204e-05
0.0 0.0 -0.000346714
0.0 0.0 -0.00160516
0.0 0.0 -0.00160516
-4.26883e-05 -2.37621e-06 -0.000130161
-9.0268e-05 -5.09684e-06 -3.9259e-05
-9.09518e-05 -5.1297e-06 -3.81259e-05
-0.00176602 -0.000379617 0.00321805
0.0 0.0 -0.000346714
2.84556e-05 4.71823e-06 0.000111862
0.0 0.0 -0.000346714
-0.000429835 -0.000197817 -0.000109392
0.0 0.0 -0.00160516
0.000911661 -0.00135259 -0.00376802
0.0 0.0 -0.000346714
0.0 0.0 -0.00160516