# vtk DataFile Version 2.0
Generated by lpp.py
ASCII
DATASET POLYDATA
POINTS 564 float
-0.397179 -0.0281934 -0.288123
-0.369018 0.00635251 -0.266086
-0.352766 -0.0134931 -0.25498
-0.410659 0.0575638 -0.2572
-0.340304 -0.0126386 -0.250432
-0.342178 -0.00889851 -0.250254
-0.348951 0.029738 -0.249785
-0.332161 0.00872722 -0.244858
-0.320959 -0.00900777 -0.239852
-0.315536 0.0166047 -0.237687
-0.320584 0.0271163 -0.237579
-0.306595 -0.00700081 -0.235173
-0.312062 0.0270097 -0.234149
-0.32258 0.0330479 -0.236355
-0.295104 0.00226936 -0.23044
-0.292292 7.5211e-05 -0.229384
-0.296175 0.00641323 -0.230629
-0.301365 0.0148202 -0.23212
-0.308532 0.0269143 -0.232751
-0.288519 -0.0147397 -0.226776
-0.286449 -0.0126607 -0.226132
-0.291036 0.00902754 -0.228294
-0.292583 0.0124037 -0.228731
-0.299552 0.031025 -0.2266
-0.294243 0.0287668 -0.226245
-0.308401 0.0347131 -0.228882
-0.351657 -0.0653142 -0.223746
-0.286897 -0.0200818 -0.22412
-0.283935 0.00660144 -0.225454
-0.28894 0.0147905 -0.22585
-0.28454 0.0183687 -0.224446
-0.293095 -0.0389408 -0.221238
-0.282544 -0.0272411 -0.221869
-0.274506 -0.00550733 -0.221692
-0.271238 0.000868007 -0.220463
-0.271313 0.00998588 -0.218928
-0.302287 0.047827 -0.22185
-0.299137 0.0486606 -0.220252
-0.266189 -0.0161453 -0.216135
-0.265065 -0.00420995 -0.21775
-0.261249 0.00537945 -0.216011
-0.258953 -0.0208501 -0.212228
-0.258783 -0.00876735 -0.214908
-0.260227 0.00107727 -0.214695
-0.258034 0.0080381 -0.214529
-0.259273 0.0128447 -0.214715
-0.262994 0.0260957 -0.212922
-0.24549 -0.0111055 -0.209137
-0.247114 0.000377485 -0.210237
-0.245464 0.0104274 -0.209156
-0.254283 0.0224809 -0.211153
-0.259317 0.0329057 -0.209539
-0.248644 -0.0213831 -0.207787
-0.235848 -0.012619 -0.204756
-0.242263 -0.00845154 -0.206823
-0.249156 0.0307383 -0.205941
-0.234635 -0.022424 -0.202839
-0.232865 -0.014262 -0.202304
-0.233801 0.00230686 -0.204549
-0.229906 0.0177832 -0.201641
-0.243489 0.0354651 -0.203501
-0.256055 -0.0566131 -0.198716
-0.224173 0.00495269 -0.199309
-0.22467 0.00891778 -0.200518
-0.222298 0.0113705 -0.199271
-0.226189 0.0206308 -0.199733
-0.230489 0.0371678 -0.19772
-0.266283 0.0608243 -0.200171
-0.251625 -0.0563869 -0.196467
-0.23315 -0.00431363 -0.195103
-0.218581 0.00130009 -0.197028
-0.217856 0.0130792 -0.197169
-0.215416 0.0116241 -0.196204
-0.213801 0.020783 -0.19456
-0.214453 0.025119 -0.194016
-0.212074 -0.0331686 -0.191136
-0.209141 -0.0299648 -0.190638
-0.215408 -0.0236725 -0.19356
-0.205256 -0.0134986 -0.191763
-0.209786 -0.0085681 -0.192419
-0.20632 0.0058573 -0.192912
-0.204181 0.00433479 -0.191462
-0.22632 0.0101527 -0.19325
-0.210473 0.0127511 -0.194117
-0.206828 0.0207293 -0.190601
-0.208629 0.0287279 -0.190736
-0.209095 -0.0337661 -0.18972
-0.200099 -0.0171177 -0.189223
-0.197695 -0.00955806 -0.189049
-0.193704 -0.00859136 -0.18749
-0.199822 -0.00503657 -0.189107
-0.210473 0.00817241 -0.189479
-0.203968 0.0144124 -0.190065
-0.196828 0.01981 -0.187628
-0.203161 0.0311333 -0.187977
-0.244384 -0.0633437 -0.184239
-0.198334 -0.0279683 -0.185573
-0.196316 -0.022776 -0.186933
-0.187268 -0.0023145 -0.184883
-0.193401 0.002436 -0.186423
-0.189629 0.00783033 -0.184663
-0.194181 0.0114108 -0.186273
-0.205289 0.0383833 -0.186919
-0.183334 -0.0222647 -0.180495
-0.182633 -0.0118579 -0.182453
-0.178919 -0.0097496 -0.180127
-0.180022 -0.00448346 -0.181737
-0.186402 0.0029844 -0.183515
-0.184803 0.00471878 -0.180283
-0.17869 0.00487419 -0.181366
-0.182167 0.0083345 -0.181462
-0.185999 0.020298 -0.183063
-0.177706 -0.0265232 -0.177337
-0.16826 -0.00239209 -0.17692
-0.196732 0.00107302 -0.178146
-0.169563 0.0044112 -0.177523
-0.174665 0.0107544 -0.179155
-0.173224 0.0137226 -0.17829
-0.189401 -0.050116 -0.176484
-0.181839 -0.0408239 -0.176517
-0.174292 -0.037942 -0.173203
-0.173385 -0.0342984 -0.174901
-0.168033 -0.0292781 -0.173704
-0.178865 -0.0123284 -0.175847
-0.170106 -0.00831688 -0.176416
-0.163678 -0.00900425 -0.173709
-0.164693 -0.00431267 -0.175426
-0.160196 -0.00640506 -0.173473
-0.163281 0.00190116 -0.173742
-0.170088 0.0099799 -0.176204
-0.16588 0.00959775 -0.175565
-0.166477 0.0148771 -0.174295
-0.176334 0.044391 -0.173076
-0.184911 0.0465363 -0.17472
-0.223776 -0.0776894 -0.172195
-0.17193 -0.00719879 -0.171628
-0.155146 -0.00939596 -0.171172
-0.157749 -0.00511513 -0.172345
-0.154482 -0.00472686 -0.170066
-0.16171 -0.0027451 -0.172771
-0.157972 -0.00038944 -0.172361
-0.157934 0.00448772 -0.170444
-0.151212 0.00589853 -0.169674
-0.159642 0.0137894 -0.172224
-0.16389 0.0295737 -0.170872
-0.167694 0.0354955 -0.171274
-0.17875 0.0453027 -0.171332
-0.172306 0.042357 -0.170943
-0.160543 -0.0290217 -0.169416
-0.152899 -0.0236497 -0.167855
-0.153524 -0.0185809 -0.168523
-0.151634 -0.0135428 -0.168332
-0.156635 -0.00190092 -0.168264
-0.144664 -0.000494542 -0.165936
-0.157098 0.00100602 -0.168712
-0.149949 0.00086967 -0.168158
-0.146267 0.0109846 -0.167335
-0.14697 0.0191511 -0.166694
-0.153233 0.030092 -0.167482
-0.157863 0.0320983 -0.169001
-0.177331 0.0580772 -0.168083
-0.149747 -0.0326424 -0.165585
-0.179329 -0.0187944 -0.165684
-0.142145 -0.0160614 -0.165046
-0.13639 -0.0159098 -0.16273
-0.143836 -0.0137478 -0.163287
-0.13859 -0.0104464 -0.164152
-0.13835 -0.00557603 -0.164276
-0.137114 0.00349816 -0.162679
-0.144946 0.00639171 -0.165858
-0.143634 0.0104137 -0.164071
-0.139072 0.00743097 -0.164415
-0.137202 0.0116798 -0.163486
-0.144273 0.0166688 -0.164784
-0.136806 0.0154014 -0.162895
-0.176968 0.0327374 -0.164027
-0.145414 -0.0340678 -0.162384
-0.141004 -0.0293114 -0.161594
-0.135381 -0.00495327 -0.161596
-0.1327 0.00201075 -0.160856
-0.126897 0.00687473 -0.159284
-0.147892 0.0081901 -0.160402
-0.145333 0.00826693 -0.162298
-0.158899 0.0121179 -0.162105
-0.135929 0.0177837 -0.161299
-0.145916 -0.0495489 -0.15768
-0.129177 -0.0308951 -0.157395
-0.128817 -0.0239082 -0.157404
-0.127357 -0.0177021 -0.158767
-0.124207 -0.018597 -0.157318
-0.128966 -0.0139232 -0.158726
-0.118689 -0.0153316 -0.155378
-0.121486 -0.0122113 -0.155683
-0.180393 -0.00514055 -0.159019
-0.150083 -0.00355238 -0.158692
-0.126014 -0.0056595 -0.158046
-0.11733 -0.00637305 -0.155418
-0.123975 -0.00021195 -0.15832
-0.123335 0.00759377 -0.157761
-0.126335 0.0128523 -0.158697
-0.12253 0.0109637 -0.156085
-0.144588 0.0219184 -0.158453
-0.136386 0.0424062 -0.156075
-0.119279 -0.0183077 -0.154793
-0.11165 -0.00980854 -0.152782
-0.125261 -0.00642518 -0.153183
-0.114941 -0.00614953 -0.153293
-0.112422 -0.00312872 -0.152334
-0.116972 0.00304017 -0.155309
-0.112943 0.00363586 -0.153258
-0.118973 0.0125666 -0.154578
-0.119417 0.0201766 -0.153984
-0.142784 0.0594536 -0.153794
-0.188689 -0.0880094 -0.150566
-0.162038 -0.0775599 -0.149545
-0.10722 -0.00805851 -0.149951
-0.102858 -0.00814152 -0.149161
-0.108063 -0.00439726 -0.15158
-0.107946 -0.000947539 -0.151398
-0.122394 0.000865246 -0.151493
-0.107836 0.00242452 -0.150016
-0.105648 0.00490902 -0.150472
-0.103305 0.0109804 -0.149183
-0.104936 0.0149313 -0.149568
-0.108935 0.0181046 -0.151018
-0.104767 0.0202744 -0.148947
-0.111704 -0.0351999 -0.148102
-0.106364 -0.0193399 -0.14765
-0.0966053 -0.0119231 -0.146309
-0.096196 -0.00814603 -0.146362
-0.116954 -0.000300621 -0.149272
-0.105912 -0.00251161 -0.147799
-0.0942181 -0.0023278 -0.145575
-0.0974365 3.78477e-05 -0.146016
-0.100198 0.00378061 -0.14713
-0.0948452 0.00390901 -0.145963
-0.108817 0.00773758 -0.148918
-0.0985489 0.0121129 -0.147083
-0.0997787 0.0159424 -0.146224
-0.105279 0.0359637 -0.145709
-0.105754 0.041594 -0.145168
-0.0938632 -0.0264698 -0.143441
-0.0916508 -0.0278198 -0.141674
-0.0901277 -0.0181161 -0.143029
-0.0930084 -0.00789611 -0.143958
-0.0876232 -0.00869427 -0.142699
-0.0853645 -0.0103388 -0.141512
-0.0908732 -0.00451915 -0.144326
-0.0877137 -0.00447806 -0.141821
-0.101521 -0.002051 -0.143189
-0.0912695 0.000915895 -0.143293
-0.132364 0.0122691 -0.14322
-0.0925978 0.01182 -0.144588
-0.0897197 0.0117133 -0.143411
-0.0949461 0.0166711 -0.144116
-0.0904683 0.0146531 -0.143448
-0.106856 0.0475075 -0.142754
-0.0828054 -0.0137004 -0.139331
-0.0772155 -0.0131926 -0.13809
-0.0819475 -0.00928437 -0.140287
-0.0916022 -0.00358768 -0.138484
-0.0902439 -0.00143322 -0.14015
-0.0860682 0.00184431 -0.141197
-0.0872347 0.00969764 -0.141003
-0.0872529 0.0152024 -0.140995
-0.0808232 0.0144486 -0.139268
-0.0816032 0.0262078 -0.138336
-0.110527 0.0441783 -0.13935
-0.0805979 -0.0299162 -0.137334
-0.0735541 -0.0178466 -0.136089
-0.0896658 -0.0153373 -0.135648
-0.0847825 -0.01251 -0.134713
-0.071034 -0.0123625 -0.135248
-0.0697656 -0.00376214 -0.134332
-0.0866827 -0.00259126 -0.136721
-0.0915401 0.00282812 -0.136226
-0.0779636 0.000339428 -0.137179
-0.075711 0.0194826 -0.135753
-0.145011 0.0905077 -0.134266
-0.0711938 -0.0328506 -0.132822
-0.0690455 -0.0351741 -0.131471
-0.0645107 -0.0270718 -0.131166
-0.06976 -0.0226338 -0.133326
-0.0631668 -0.0118231 -0.131174
-0.0600182 -0.00924346 -0.130964
-0.0774837 -0.0011894 -0.133011
-0.0887014 0.00484774 -0.133243
-0.0603168 0.0083355 -0.131261
-0.0649912 0.0140237 -0.132816
-0.0694647 0.0172392 -0.134221
-0.0602898 -0.0156711 -0.129542
-0.0583963 -0.0122168 -0.130219
-0.0848092 -0.00974074 -0.129193
-0.10149 -0.00499013 -0.130485
-0.0896019 -0.004683 -0.130994
-0.0609245 -0.00507081 -0.130381
-0.0543499 -0.00649263 -0.12864
-0.0554019 -0.00247808 -0.128302
-0.0550138 0.0111513 -0.128903
-0.0592505 0.0167863 -0.12999
-0.0611577 0.020395 -0.129534
-0.0753621 0.0262493 -0.129501
-0.0623784 0.0265517 -0.127184
-0.142551 -0.0989491 -0.124865
-0.0539666 -0.0325405 -0.125491
-0.0835654 -0.00680834 -0.125251
-0.0744973 -0.0111574 -0.125181
-0.0576615 -0.00703118 -0.124702
-0.0479403 -0.00911008 -0.124512
-0.0514897 -0.00433121 -0.125759
-0.0475331 -0.00592086 -0.125666
-0.0867808 -0.00117133 -0.126031
-0.05434 0.00277263 -0.126656
-0.0451554 0.000891866 -0.124892
-0.0545145 0.0196627 -0.126157
-0.0710322 0.0220434 -0.127016
-0.0496844 0.0257021 -0.124036
-0.0462011 -0.0248048 -0.122476
-0.0480958 -0.0171365 -0.123642
-0.068975 -0.0116362 -0.123627
-0.0435797 -0.0112341 -0.122918
[...]
POINT_DATA 564
VECTORS i float
0.0 0.0 0.0
0.0 0.0 0.0
0.0 0.0 0.0
0.0 0.0 0.0
0.0 0.0 0.0
0.0 0.0 0.0
0.0 0.0 0.0
0.0 0.0 0.0
0.0 0.0 0.0
0.0 0.0 0.0
0.0 0.0 0.0
0.0 0.0 0.0
0.0 0.0 0.0
0.0 0.0 0.0
0.0 0.0 0.0
0.0 0.0 0.0
0.0 0.0 0.0
0.0 0.0 0.0
0.0 0.0 0.0
0.0 0.0 0.0
0.0 0.0 0.0
0.0 0.0 0.0
0.0 0.0 0.0
0.0 0.0 0.0
0.0 0.0 0.0
0.0 0.0 0.0
0.0 0.0 0.0
0.0 0.0 0.0
0.0 0.0 0.0
0.0 0.0 0.0
0.0 0.0 0.0
0.0 0.0 0.0
0.0 0.0 0.0
0.0 0.0 0.0
0.0 0.0 0.0
0.0 0.0 0.0
0.0 0.0 0.0
0.0 0.0 0.0
0.0 0.0 0.0
0.0 0.0 0.0
0.0 0.0 0.0
0.0 0.0 0.0
0.0 0.0 0.0
0.0 0.0 0.0
0.0 0.0 0.0
0.0 0.0 0.0
0.0 0.0 0.0
0.0 0.0 0.0
0.0 0.0 0.0
0.0 0.0 0.0
0.0 0.0 0.0
0.0 0.0 0.0
0.0 0.0 0.0
0.0 0.0 0.0
0.0 0.0 0.0
0.0 0.0 0.0
0.0 0.0 0.0
0.0 0.0 0.0
0.0 0.0 0.0
0.0 0.0 0.0
0.0 0.0 0.0
0.0 0.0 0.0
0.0 0.0 0.0
0.0 0.0 0.0
0.0 0.0 0.0
0.0 0.0 0.0
0.0 0.0 0.0
0.0 0.0 0.0
0.0 0.0 0.0
0.0 0.0 0.0
0.0 0.0 0.0
0.0 0.0 0.0
0.0 0.0 0.0
0.0 0.0 0.0
0.0 0.0 0.0
0.0 0.0 0.0
0.0 0.0 0.0
0.0 0.0 0.0
0.0 0.0 0.0
0.0 0.0 0.0
0.0 0.0 0.0
0.0 0.0 0.0
0.0 0.0 0.0
0.0 0.0 0.0
0.0 0.0 0.0
0.0 0.0 0.0
0.0 0.0 0.0
0.0 0.0 0.0
0.0 0.0 0.0
0.0 0.0 0.0
0.0 0.0 0.0
0.0 0.0 0.0
0.0 0.0 0.0
0.0 0.0 0.0
0.0 0.0 0.0
0.0 0.0 0.0
0.0 0.0 0.0
0.0 0.0 0.0
0.0 0.0 0.0
0.0 0.0 0.0
0.0 0.0 0.0
0.0 0.0 0.0
0.0 0.0 0.0
0.0 0.0 0.0
0.0 0.0 0.0
0.0 0.0 0.0
0.0 0.0 0.0
0.0 0.0 0.0
0.0 0.0 0.0
0.0 0.0 0.0
0.0 0.0 0.0
0.0 0.0 0.0
0.0 0.0 0.0
0.0 0.0 0.0
0.0 0.0 0.0
0.0 0.0 0.0
0.0 0.0 0.0
0.0 0.0 0.0
0.0 0.0 0.0
0.0 0.0 0.0
0.0 0.0 0.0
0.0 0.0 0.0
0.0 0.0 0.0
0.0 0.0 0.0
0.0 0.0 0.0
0.0 0.0 0.0
0.0 0.0 0.0
0.0 0.0 0.0
0.0 0.0 0.0
0.0 0.0 0.0
0.0 0.0 0.0
0.0 0.0 0.0
0.0 0.0 0.0
0.0 0.0 0.0
0.0 0.0 0.0
0.0 0.0 0.0
0.0 0.0 0.0
0.0 0.0 0.0
0.0 0.0 0.0
0.0 0.0 0.0
0.0 0.0 0.0
0.0 0.0 0.0
0.0 0.0 0.0
0.0 0.0 0.0
0.0 0.0 0.0
0.0 0.0 0.0
0.0 0.0 0.0
0.0 0.0 0.0
0.0 0.0 0.0
0.0 0.0 0.0
0.0 0.0 0.0
0.0 0.0 0.0
0.0 0.0 0.0
0.0 0.0 0.0
0.0 0.0 0.0
0.0 0.0 0.0
0.0 0.0 0.0
0.0 0.0 0.0
0.0 0.0 0.0
0.0 0.0 0.0
0.0 0.0 0.0
0.0 0.0 0.0
0.0 0.0 0.0
0.0 0.0 0.0
0.0 0.0 0.0
0.0 0.0 0.0
0.0 0.0 0.0
0.0 0.0 0.0
0.0 0.0 0.0
0.0 0.0 0.0
0.0 0.0 0.0
0.0 0.0 0.0
0.0 0.0 0.0
0.0 0.0 0.0
0.0 0.0 0.0
0.0 0.0 0.0
0.0 0.0 0.0
0.0 0.0 0.0
0.0 0.0 0.0
0.0 0.0 0.0
0.0 0.0 0.0
0.0 0.0 0.0
0.0 0.0 0.0
0.0 0.0 0.0
0.0 0.0 0.0
0.0 0.0 0.0
0.0 0.0 0.0
0.0 0.0 0.0
0.0 0.0 0.0
0.0 0.0 0.0
0.0 0.0 0.0
0.0 0.0 0.0
0.0 0.0 0.0
0.0 0.0 0.0
0.0 0.0 0.0
0.0 0.0 0.0
0.0 0.0 0.0
0.0 0.0 0.0
0.0 0.0 0.0
0.0 0.0 0.0
0.0 0.0 0.0
0.0 0.0 0.0
0.0 0.0 0.0
0.0 0.0 0.0
0.0 0.0 0.0
0.0 0.0 0.0
0.0 0.0 0.0
0.0 0.0 0.0
0.0 0.0 0.0
0.0 0.0 0.0
0.0 0.0 0.0
0.0 0.0 0.0
0.0 0.0 0.0
0.0 0.0 0.0
0.0 0.0 0.0
0.0 0.0 0.0
0.0 0.0 0.0
0.0 0.0 0.0
0.0 0.0 0.0
0.0 0.0 0.0
0.0 0.0 0.0
0.0 0.0 0.0
0.0 0.0 0.0
0.0 0.0 0.0
0.0 0.0 0.0
0.0 0.0 0.0
0.0 0.0 0.0
0.0 0.0 0.0
0.0 0.0 0.0
0.0 0.0 0.0
0.0 0.0 0.0
0.0 0.0 0.0
0.0 0.0 0.0
0.0 0.0 0.0
0.0 0.0 0.0
0.0 0.0 0.0
0.0 0.0 0.0
0.0 0.0 0.0
0.0 0.0 0.0
0.0 0.0 0.0
0.0 0.0 0.0
0.0 0.0 0.0
0.0 0.0 0.0
0.0 0.0 0.0
0.0 0.0 0.0
0.0 0.0 0.0
0.0 0.0 0.0
0.0 0.0 0.0
0.0 0.0 0.0
0.0 0.0 0.0
0.0 0.0 0.0
0.0 0.0 0.0
0.0 0.0 0.0
0.0 0.0 0.0
0.0 0.0 0.0
0.0 0.0 0.0
0.0 0.0 0.0
0.0 0.0 0.0
0.0 0.0 0.0
0.0 0.0 0.0
0.0 0.0 0.0
0.0 0.0 0.0
0.0 0.0 0.0
0.0 0.0 0.0
0.0 0.0 0.0
0.0 0.0 0.0
0.0 0.0 0.0
0.0 0.0 0.0
0.0 0.0 0.0
0.0 0.0 0.0
0.0 0.0 0.0
0.0 0.0 0.0
0.0 0.0 0.0
0.0 0.0 0.0
0.0 0.0 0.0
0.0 0.0 0.0
0.0 0.0 0.0
0.0 0.0 0.0
0.0 0.0 0.0
0.0 0.0 0.0
0.0 0.0 0.0
0.0 0.0 0.0
0.0 0.0 0.0
0.0 0.0 0.0
0.0 0.0 0.0
0.0 0.0 0.0
0.0 0.0 0.0
0.0 0.0 0.0
0.0 0.0 0.0
0.0 0.0 0.0
0.0 0.0 0.0
0.0 0.0 0.0
0.0 0.0 0.0
0.0 0.0 0.0
0.0 0.0 0.0
0.0 0.0 0.0
0.0 0.0 0.0
0.0 0.0 0.0
0.0 0.0 0.0
0.0 0.0 0.0
0.0 0.0 0.0
0.0 0.0 0.0
0.0 0.0 0.0
0.0 0.0 0.0
0.0 0.0 0.0
0.0 0.0 0.0
0.0 0.0 0.0
0.0 0.0 0.0
0.0 0.0 0.0
0.0 0.0 0.0
0.0 0.0 0.0
0.0 0.0 0.0
0.0 0.0 0.0
0.0 0.0 0.0
0.0 0.0 0.0
0.0 0.0 0.0
0.0 0.0 0.0
0.0 0.0 0.0
0.0 0.0 0.0
0.0 0.0 0.0
0.0 0.0 0.0
0.0 0.0 0.0
0.0 0.0 0.0
0.0 0.0 0.0
0.0 0.0 0.0
0.0 0.0 0.0
0.0 0.0 0.0
0.0 0.0 0.0
0.0 0.0 0.0
0.0 0.0 0.0
0.0 0.0 0.0
0.0 0.0 0.0
0.0 0.0 0.0
0.0 0.0 0.0
0.0 0.0 0.0
0.0 0.0 0.0
0.0 0.0 0.0
0.0 0.0 0.0
0.0 0.0 0.0
0.0 0.0 0.0
0.0 0.0 0.0
0.0 0.0 0.0
0.0 0.0 0.0
0.0 0.0 0.0
0.0 0.0 0.0
0.0 0.0 0.0
0.0 0.0 0.0
0.0 0.0 0.0
0.0 0.0 0.0
0.0 0.0 0.0
0.0 0.0 0.0
0.0 0.0 0.0
0.0 0.0 0.0
0.0 0.0 0.0
0.0 0.0 0.0
0.0 0.0 0.0
0.0 0.0 0.0
0.0 0.0 0.0
0.0 0.0 0.0
0.0 0.0 0.0
0.0 0.0 0.0
0.0 0.0 0.0
0.0 0.0 0.0
0.0 0.0 0.0
0.0 0.0 0.0
0.0 0.0 0.0
0.0 0.0 0.0
0.0 0.0 0.0
0.0 0.0 0.0
0.0 0.0 0.0
0.0 0.0 0.0
0.0 0.0 0.0
0.0 0.0 0.0
0.0 0.0 0.0
0.0 0.0 0.0
0.0 0.0 0.0
0.0 0.0 0.0
0.0 0.0 0.0
0.0 0.0 0.0
0.0 0.0 0.0
0.0 0.0 0.0
0.0 0.0 0.0
0.0 0.0 0.0
0.0 0.0 0.0
0.0 0.0 0.0
0.0 0.0 0.0
0.0 0.0 0.0
0.0 0.0 0.0
0.0 0.0 0.0
0.0 0.0 0.0
0.0 0.0 0.0
0.0 0.0 0.0
0.0 0.0 0.0
0.0 0.0 0.0
0.0 0.0 0.0
0.0 0.0 0.0
0.0 0.0 0.0
0.0 0.0 0.0
0.0 0.0 0.0
0.0 0.0 0.0
0.0 0.0 0.0
0.0 0.0 0.0
0.0 0.0 0.0
0.0 0.0 0.0
0.0 0.0 0.0
0.0 0.0 0.0
0.0 0.0 0.0
0.0 0.0 0.0
0.0 0.0 0.0
0.0 0.0 0.0
0.0 0.0 0.0
0.0 0.0 0.0
0.0 0.0 0.0
0.0 0.0 0.0
0.0 0.0 0.0
0.0 0.0 0.0
0.0 0.0 0.0
0.0 0.0 0.0
0.0 0.0 0.0
0.0 0.0 0.0
0.0 0.0 0.0
0.0 0.0 0.0
0.0 0.0 0.0
0.0 0.0 0.0
0.0 0.0 0.0
0.0 0.0 0.0
0.0 0.0 0.0
0.0 0.0 0.0
0.0 0.0 0.0
0.0 0.0 0.0
0.0 0.0 0.0
0.0 0.0 0.0
0.0 0.0 0.0
0.0 0.0 0.0
0.0 0.0 0.0
0.0 0.0 0.0
0.0 0.0 0.0
0.0 0.0 0.0
0.0 0.0 0.0
0.0 0.0 0.0
0.0 0.0 0.0
0.0 0.0 0.0
0.0 0.0 0.0
0.0 0.0 0.0
0.0 0.0 0.0
0.0 0.0 0.0
0.0 0.0 0.0
0.0 0.0 0.0
0.0 0.0 0.0
0.0 0.0 0.0
0.0 0.0 0.0
0.0 0.0 0.0
0.0 0.0 0.0
0.0 0.0 0.0
0.0 0.0 0.0
0.0 0.0 0.0
0.0 0.0 0.0
0.0 0.0 0.0
0.0 0.0 0.0
0.0 0.0 0.0
0.0 0.0 0.0
0.0 0.0 0.0
0.0 0.0 0.0
0.0 0.0 0.0
0.0 0.0 0.0
0.0 0.0 0.0
0.0 0.0 0.0
0.0 0.0 0.0
0.0 0.0 0.0
0.0 0.0 0.0
0.0 0.0 0.0
0.0 0.0 0.0
0.0 0.0 0.0
0.0 0.0 0.0
0.0 0.0 0.0
0.0 0.0 0.0
0.0 0.0 0.0
0.0 0.0 0.0
0.0 0.0 0.0
0.0 0.0 0.0
0.0 0.0 0.0
0.0 0.0 0.0
0.0 0.0 0.0
0.0 0.0 0.0
0.0 0.0 0.0
0.0 0.0 0.0
0.0 0.0 0.0
0.0 0.0 0.0
0.0 0.0 0.0
0.0 0.0 0.0
0.0 0.0 0.0
0.0 0.0 0.0
0.0 0.0 0.0
0.0 0.0 0.0
0.0 0.0 0.0
0.0 0.0 0.0
0.0 0.0 0.0
0.0 0.0 0.0
0.0 0.0 0.0
0.0 0.0 0.0
0.0 0.0 0.0
0.0 0.0 0.0
0.0 0.0 0.0
0.0 0.0 0.0
0.0 0.0 0.0
0.0 0.0 0.0
0.0 0.0 0.0
0.0 0.0 0.0
0.0 0.0 0.0
0.0 0.0 0.0
0.0 0.0 0.0
0.0 0.0 0.0
0.0 0.0 0.0
0.0 0.0 0.0
0.0 0.0 0.0
0.0 0.0 0.0
0.0 0.0 0.0
0.0 0.0 0.0
0.0 0.0 0.0
0.0 0.0 0.0
0.0 0.0 0.0
0.0 0.0 0.0
0.0 0.0 0.0
0.0 0.0 0.0
0.0 0.0 0.0
0.0 0.0 0.0
0.0 0.0 0.0
0.0 0.0 0.0
0.0 0.0 0.0
0.0 0.0 0.0
0.0 0.0 0.0
0.0 0.0 0.0
0.0 0.0 0.0
0.0 0.0 0.0
0.0 0.0 0.0
0.0 0.0 0.0
0.0 0.0 0.0
0.0 0.0 0.0
0.0 0.0 0.0
0.0 0.0 0.0
0.0 0.0 0.0
0.0 0.0 0.0
0.0 0.0 0.0
0.0 0.0 0.0
0.0 0.0 0.0
0.0 0.0 0.0
0.0 0.0 0.0
0.0 0.0 0.0
0.0 0.0 0.0
0.0 0.0 0.0
0.0 0.0 0.0
0.0 0.0 0.0
0.0 0.0 0.0
0.0 0.0 0.0
0.0 0.0 0.0
0.0 0.0 0.0
0.0 0.0 0.0
0.0 0.0 0.0
0.0 0.0 0.0
0.0 0.0 0.0
0.0 0.0 0.0
0.0 0.0 0.0
0.0 0.0 0.0
0.0 0.0 0.0
VECTORS f float
0.0 0.0 -0.000346714
0.0 0.0 -0.000346714
0.0 0.0 -0.00160516
0.0 0.0 -0.000346714
0.0 0.0 -0.000346714
0.0 0.0 -0.000346714
0.0 0.0 -0.000346714
0.0 0.0 -0.00160516
0.0 0.0 -0.00160516
-9.03778e-05 -4.23228e-05 -2.61438e-05
-7.84195e-05 -6.61918e-05 -5.47008e-05
-8.86604e-05 7.46672e-06 -3.73951e-05
-2.90323e-05 -4.98167e-05 -0.000178404
-8.17853e-05 -7.04849e-05 -4.08744e-05
-8.85894e-05 -1.33249e-05 -3.74926e-05
-8.87346e-05 7.17153e-06 -3.7421e-05
-8.97349e-05 -1.34659e-05 -3.56728e-05
-8.91619e-05 -4.13722e-05 -3.75375e-05
-0.000497759 -0.000390623 0.000886088
-7.14741e-05 1.89083e-05 -8.29954e-05
-8.73073e-05 2.26057e-05 -3.96033e-05
-8.80064e-05 -1.34157e-05 -3.82991e-05
-8.88778e-05 -1.35322e-05 -3.66729e-05
0.000157499 0.000166196 -0.00163985
-3.99309e-05 -3.85072e-05 -6.16393e-05
-0.000325898 -0.000291448 -0.000246438
0.0 0.0 -0.000346714
-0.000375275 0.000168498 -0.000249388
-6.34083e-05 -9.32079e-06 -9.67569e-05
0.00470604 0.00267432 -0.0129926
3.39369e-05 1.82013e-05 -0.000365187
0.0 0.0 -0.00160516
0.0 0.0 -0.000346714
-8.77323e-05 7.42707e-06 -2.33331e-05
-9.66665e-05 -1.15932e-05 -2.57334e-05
0.0 0.0 -0.00160516
-5.52416e-05 -7.47393e-05 -8.20892e-05
4.69341e-05 6.51051e-05 -5.39131e-08
-0.000964112 0.000259823 0.00130427
-8.08748e-05 7.44178e-06 -5.40423e-05
-0.000105546 -9.94998e-06 -6.28354e-05
0.0 0.0 -0.00160516
-7.01349e-05 7.06345e-06 -9.16863e-05
-0.000857026 -8.06308e-05 0.000503533
-8.80154e-05 -9.25563e-06 -3.77357e-05
-8.73526e-05 -3.1426e-05 -4.13276e-05
-0.000812394 -0.00047878 0.000244352
-0.000804527 4.49727e-05 0.00476909
0.0 0.0 -0.000346714
-8.37167e-05 -7.71951e-06 -4.9013e-05
-8.5047e-05 -3.04005e-05 -4.326e-05
-0.000397501 -0.000271187 -0.000136233
0.0 0.0 -0.00160516
0.0 0.0 -0.000346714
-2.52141e-05 -6.10718e-06 -0.00127249
-0.000437224 -0.000278732 -0.000105005
0.000934723 -0.000373385 -0.00252141
-0.00114042 0.000113248 0.0016004
1.06618e-05 1.69911e-06 -0.000290639
-8.68325e-05 -2.72775e-05 -3.77473e-05
0.0 0.0 -0.000346714
0.0 0.0 -0.000346714
-0.000405011 -1.93557e-05 -0.000175747
-8.77621e-05 -4.19245e-06 -3.75108e-05
1.52169e-05 7.49765e-06 1.85265e-05
2.24554e-05 -9.39325e-06 8.34725e-06
-0.000117391 -0.00010941 4.90749e-06
-5.88536e-05 -0.000100358 -8.15949e-05
0.0 0.0 -0.000346714
0.0 0.0 -0.00160516
0.0 0.0 -0.00160516
1.27048e-05 -3.51347e-05 -0.000140313
0.0 0.0 -0.000346714
-8.6626e-05 -2.436e-05 -3.81957e-05
-8.4995e-05 -4.58793e-05 -4.65173e-05
3.49549e-05 -2.84307e-05 -0.000358128
0.0 0.0 -0.000346714
-0.000334381 0.000177405 -0.000326639
-8.66837e-05 2.1984e-05 -3.81715e-05
0.0 0.0 -0.000346714
-9.20321e-05 1.62339e-06 -3.36413e-05
6.9919e-06 -9.13893e-06 -0.000331854
0.0 0.0 -0.00160516
-8.87079e-05 -2.24624e-05 -4.00705e-05
-0.00162803 -0.000415603 0.00352822
-8.07842e-05 -4.36266e-05 -4.96455e-05
0.0 0.0 -0.000346714
-8.87428e-05 2.44569e-05 -4.11479e-05
-0.000171104 4.38821e-05 0.000138885
0.0 0.0 -0.000346714
-0.000436043 1.68025e-06 -0.000115392
0.0 0.0 -0.000346714
-0.000366423 -0.000103774 -4.24879e-05
-8.54954e-05 -2.10832e-05 -4.163e-05
-0.000140341 -7.77509e-05 8.70253e-05
0.0 0.0 -0.000346714
-0.000375759 0.000210297 -0.000251302
-2.18312e-05 6.72573e-06 -0.000180692
0.0 0.0 -0.000346714
-0.000415869 6.72527e-06 -0.000137785
-0.000362506 -7.86319e-05 -0.000311343
-0.000413094 -9.10577e-05 -0.00018034
-9.5838e-05 -8.24206e-05 -4.95653e-06
-0.000329613 9.71438e-05 -0.00030522
0.0 0.0 -0.000346714
-0.000315274 -0.000302432 -0.000228855
0.0 0.0 -0.000346714
-0.000606232 2.27298e-05 0.000278715
0.0 0.0 -0.000346714
-8.85885e-05 -1.77462e-05 -3.91511e-05
-0.000410211 -8.21738e-05 -0.000180962
-8.54386e-05 -4.10491e-05 -4.46222e-05
0.0 0.0 -0.00160516
-7.64167e-05 2.47793e-06 -6.75146e-05
0.0 0.0 -0.000346714
0.0 0.0 -0.000346714
-8.7767e-05 -1.77711e-05 -3.79675e-05
-8.75097e-05 -1.72053e-05 -3.78715e-05
-0.000135115 0.000112907 3.39483e-05
-7.81459e-05 6.51459e-05 -4.79802e-05
0.0 0.0 -0.00160516
0.0 0.0 -0.000346714
0.0 0.0 -0.000346714
-0.000239015 -0.000144805 -0.000628748
0.0 0.0 -0.00160516
-0.000396812 7.26243e-05 -0.000198937
-0.00046868 5.35855e-05 0.0009098
-0.00220867 -0.000792491 -0.00294929
0.000129957 -0.000397953 2.84703e-06
-0.000297177 -5.79547e-05 -0.00042361
1.80589e-07 6.17882e-05 5.23036e-06
-0.000290912 -5.60549e-05 -0.000465145
-0.000180059 -0.000136559 4.99976e-05
-0.00035933 -0.000294051 -0.000255164
2.41802e-05 0.000117179 -0.000119206
0.0 0.0 -0.000346714
-6.47343e-06 -9.96165e-07 -0.000231387
0.00220867 0.000792491 0.00225586
0.000544425 -0.00101057 0.00162919
-8.21795e-05 0.000138209 -0.00156945
0.0 0.0 -0.000346714
-0.00117585 0.0083527 -0.0042016
-9.02727e-05 -5.09736e-06 -3.92423e-05
0.0 0.0 -0.000346714
-0.000390882 -0.000179715 -0.000199036
0.000236246 -7.46371e-05 -0.00180089
0.0 0.0 -0.000346714
-4.23857e-05 -2.97124e-05 -0.000979081
0.0 0.0 -0.00160516
0.0 0.0 -0.000346714
8.78622e-05 -3.7091e-05 5.09744e-05
-0.000436345 0.000104298 -0.000106335
0.000716275 -0.00396837 0.00135521
-0.000401165 -3.72113e-05 -0.000169284
-0.000614725 -0.00127631 0.000937791
0.000280354 0.000167943 0.00237347
-8.51322e-05 -2.36463e-05 -3.98665e-05
-9.27242e-05 -2.56912e-05 -2.35764e-05
-8.6811e-05 -4.15237e-05 -3.47446e-05
-8.32893e-05 -3.83869e-05 -4.47386e-05
-7.15516e-05 -8.21961e-05 -6.49923e-05
-0.000147553 0.00010139 0.00011196
0.0 0.0 -0.000346714
0.0 0.0 -0.000346714
-8.68326e-05 1.96287e-05 -3.78159e-05
0.0 0.0 -0.000346714
0.0 0.0 -0.000346714
-8.47118e-05 5.95263e-06 -5.21382e-05
3.48442e-05 -7.53117e-05 -0.00106296
-0.000352033 -1.34415e-05 -0.000293948
0.0 0.0 -0.000346714
-8.68449e-05 -8.0511e-06 -3.63031e-05
-0.000644207 0.000369849 0.000597282
0.0 0.0 -0.00160516
4.08281e-05 -0.000207432 -0.000532697
0.0 0.0 -0.000346714
-0.000395342 0.000211285 -0.000210996
-0.000392532 0.00021004 -0.000215366
0.0 0.0 -0.00160516
0.0 0.0 -0.00160516
-8.66033e-05 -1.36216e-05 -3.63912e-05
0.0 0.0 -0.000346714
0.0 0.0 -0.000346714
0.0 0.0 -0.00160516
-4.08281e-05 0.000207432 -0.000160731
0.0 0.0 -0.000346714
-8.50215e-05 4.43116e-05 -4.40835e-05
-0.000401463 0.000136673 -0.000184792
-6.98987e-05 2.19553e-05 -8.79718e-05
-8.7122e-05 2.89565e-05 -4.07549e-05
-0.000380292 6.56974e-05 -0.000265915
-8.79891e-05 1.46333e-05 -3.82198e-05
-0.000399133 6.57804e-05 -0.000197025
0.0 0.0 -0.00160516
0.0 0.0 -0.00160516
-0.00363249 0.000797517 0.00173878
-5.35676e-05 6.93908e-06 -0.000143273
-8.96178e-05 9.15576e-07 -3.84086e-05
0.0 0.0 -0.000346714
0.0 0.0 -0.000346714
0.0 0.0 -0.000346714
0.0 0.0 -0.000346714
0.0 0.0 -0.000346714
0.0 0.0 -0.000346714
-7.07305e-05 1.25335e-05 -5.6962e-05
0.000193359 -0.000864793 0.00503332
0.0 0.0 -0.000346714
-0.000409939 1.2919e-07 -0.000159245
0.0 0.0 -0.000346714
0.0 0.0 -0.000346714
-0.000610714 5.01753e-05 0.000602134
-0.000392674 -0.000143234 -0.000203959
-7.52552e-05 -8.1222e-05 -5.88559e-05
0.0 0.0 -0.000346714
0.0 0.0 -0.00160516
-0.000412698 8.11346e-05 -0.000477267
0.0 0.0 -0.000346714
-0.000207465 -1.4252e-05 0.000232129
0.0 0.0 -0.000346714
0.0 0.0 -0.000346714
0.0 0.0 -0.000346714
0.0 0.0 -0.000346714
-3.81519e-05 -6.99104e-06 -0.000163206
-9.43406e-05 -1.71386e-05 -1.05749e-05
-0.000157501 -4.82204e-05 3.81189e-05
-0.000404476 -0.000149668 0.000533583
-0.000390425 0.000198499 -0.000203404
0.0 0.0 -0.00160516
-8.79478e-05 1.24538e-05 -3.75904e-05
1.10684e-05 4.68516e-06 -0.000180973
0.0 0.0 -0.000346714
0.0 0.0 -0.00160516
0.0 0.0 -0.000346714
7.65018e-05 -0.000422539 0.000747766
0.0 0.0 -0.000346714
-8.9067e-05 -1.90192e-06 -3.78451e-05
0.0 0.0 -0.000346714
-8.41818e-05 -1.5256e-05 -4.78992e-05
-0.000410806 -7.43426e-05 -0.000178373
0.0 0.0 -0.000346714
-8.33451e-05 -4.77015e-05 -4.74698e-05
0.0 0.0 -0.000346714
0.0 0.0 -0.000346714
9.98911e-05 4.51337e-07 -0.000523335
-5.9737e-06 0.000800091 0.000884884
0.0 0.0 -0.000346714
0.0 0.0 -0.000346714
0.0 0.0 -0.000346714
0.0 0.0 -0.00160516
0.0 0.0 -0.00160516
0.0 0.0 -0.00160516
0.0 0.0 -0.000346714
0.0 0.0 -0.000346714
0.0 0.0 -0.000346714
-0.000409235 -7.33561e-05 -0.000190251
0.0 0.0 -0.000346714
0.0 0.0 -0.000346714
-0.000406492 5.11148e-05 -0.0001764
0.0 0.0 -0.000346714
-8.82325e-05 1.11161e-05 -3.69276e-05
0.0 0.0 -0.000346714
0.0 0.0 -0.000346714
5.3509e-05 -2.83495e-06 -0.00139735
0.0 0.0 -0.00160516
-0.000358442 -7.14016e-05 -0.00028125
0.0 0.0 -0.000346714
-8.49072e-05 -3.37315e-05 -4.29913e-05
0.0 0.0 -0.000346714
-7.07389e-05 3.37628e-05 -8.04906e-05
-8.84855e-05 2.5483e-05 -3.71822e-05
0.0 0.0 -0.00160516
0.0 0.0 -0.00160516
0.0 0.0 -0.000346714
-0.000468089 5.52617e-05 -5.9165e-05
0.0 0.0 -0.00160516
0.0 0.0 -0.000346714
0.0 0.0 -0.00160516
-0.000409304 -8.70234e-05 -0.000181541
0.0 0.0 -0.000346714
-8.61241e-05 4.05699e-05 -4.20856e-05
-8.48921e-05 3.98898e-05 -4.30053e-05
4.59634e-07 -1.59013e-06 -0.000311246
0.0 0.0 -0.000346714
-0.00040312 4.50516e-05 -0.000189618
0.0 0.0 -0.000346714
0.0 0.0 -0.000346714
0.0 0.0 -0.000346714
-1.15309e-05 -0.000108406 -1.9147e-05
-8.7341e-05 -1.99468e-05 -3.85406e-05
0.0 0.0 -0.000346714
0.000897935 0.00242244 -0.00342663
-0.000897935 -0.00242244 0.00147475
0.0 0.0 -0.000346714
0.0 0.0 -0.000346714
0.0 0.0 -0.000346714
0.0 0.0 -0.00160516
0.0 0.0 -0.000346714
0.0 0.0 -0.00160516
-9.00083e-05 -6.96249e-06 -3.90875e-05
0.0 0.0 -0.000346714
4.48436e-06 -0.000144058 -0.00119919
0.0 0.0 -0.000346714
0.0 0.0 -0.00160516
-3.33514e-05 0.000119715 -0.000131888
0.0 0.0 -0.000346714
0.0 0.0 -0.00160516
0.0 0.0 -0.00160516
0.0 0.0 -0.000346714
0.0 0.0 -0.000346714
0.0 0.0 -0.00160516
0.0 0.0 -0.000346714
0.0 0.0 -0.000346714
0.0 0.0 -0.000346714
0.0 0.0 -0.000346714
0.0 0.0 -0.000346714
0.0 0.0 -0.00160516
2.60378e-05 0.000235627 0.000794364
0.0 0.0 -0.00160516
0.0 0.0 -0.00160516
0.0 0.0 -0.000346714
0.0 0.0 -0.00160516
0.0 0.0 -0.000346714
0.0 0.0 -0.000346714
0.0 0.0 -0.000346714
0.0 0.0 -0.00160516
0.0 0.0 -0.000346714
0.0 0.0 -0.000346714
0.0 0.0 -0.000346714
0.0 0.0 -0.00160516
0.0 0.0 -0.00160516
0.0 0.0 -0.00160516
0.0 0.0 -0.000346714
0.0 0.0 -0.00160516
0.0 0.0 -0.00160516
0.0 0.0 -0.00160516
0.0 0.0 -0.000346714
0.0 0.0 -0.000346714
0.0 0.0 -0.000346714
0.0 0.0 -0.000346714
0.0 0.0 -0.00160516
0.0 0.0 -0.000346714
0.0 0.0 -0.00160516
0.0 0.0 -0.000346714
0.0 0.0 -0.000346714
0.0 0.0 -0.000346714
0.0 0.0 -0.00160516
0.0 0.0 -0.000346714
0.0 0.0 -0.000346714
0.0 0.0 -0.000346714
0.0 0.0 -0.00160516
0.0 0.0 -0.00160516
-7.2522e-05 -8.68023e-05 -6.89338e-05
0.0 0.0 -0.00160516
0.0 0.0 -0.000346714
0.0 0.0 -0.00160516
-0.0123657 0.0108781 0.0572428
0.0 0.0 -0.00160516
0.0 0.0 -0.00160516
0.0 0.0 -0.000346714
0.0 0.0 -0.00160516
0.0 0.0 -0.000346714
0.0 0.0 -0.000346714
0.0 0.0 -0.000346714
0.0 0.0 -0.00160516
0.0 0.0 -0.00160516
0.0 0.0 -0.000346714
0.0 0.0 -0.000346714
0.0 0.0 -0.000346714
0.0 0.0 -0.00160516
0.0 0.0 -0.000346714
0.0 0.0 -0.00160516
0.0 0.0 -0.00160516
0.0 0.0 -0.000346714
0.0 0.0 -0.000346714
0.0 0.0 -0.000346714
0.0 0.0 -0.000346714
0.0 0.0 -0.00160516
0.0 0.0 -0.000346714
0.0 0.0 -0.00160516
0.0 0.0 -0.000346714
0.0 0.0 -0.000346714
-0.000417369 -9.38825e-06 -0.000180496
0.0 0.0 -0.000346714
0.0 0.0 -0.000346714
0.0 0.0 -0.000346714
-3.13632e-05 0.000103704 0.000282373
0.0 0.0 -0.000346714
0.0 0.0 -0.000346714
0.0 0.0 -0.000346714
0.0 0.0 -0.00160516
0.0 0.0 -0.000346714
0.0 0.0 -0.000346714
0.0123657 -0.0108781 -0.0591947
0.0 0.0 -0.000346714
0.0 0.0 -0.00160516
0.0 0.0 -0.000346714
0.0 0.0 -0.000346714
0.0 0.0 -0.000346714
0.0 0.0 -0.00160516
0.0 0.0 -0.00160516
0.0 0.0 -0.000346714
0.0 0.0 -0.000346714
0.0 0.0 -0.000346714
0.0 0.0 -0.000346714
0.0 0.0 -0.000346714
0.0 0.0 -0.00160516
0.0 0.0 -0.000346714
0.0 0.0 -0.000346714
0.0 0.0 -0.00160516
0.0 0.0 -0.000346714
0.0 0.0 -0.000346714
0.0 0.0 -0.00160516
0.0 0.0 -0.000346714
0.0 0.0 -0.000346714
0.0 0.0 -0.000346714
0.0 0.0 -0.000346714
0.0 0.0 -0.00160516
-1.09926e-05 0.00010643 -0.000188247
0.0 0.0 -0.000346714
0.0 0.0 -0.000346714
0.0 0.0 -0.000346714
0.0 0.0 -0.000346714
0.0 0.0 -0.000346714
0.0 0.0 -0.000346714
0.0 0.0 -0.00160516
0.0 0.0 -0.000346714
0.0 0.0 -0.000346714
0.0 0.0 -0.000346714
0.0 0.0 -0.00160516
0.0 0.0 -0.00160516
0.0 0.0 -0.000346714
0.0 0.0 -0.00160516
0.0 0.0 -0.000346714
0.0 0.0 -0.000346714
0.0 0.0 -0.00160516
0.0 0.0 -0.000346714
0.0 0.0 -0.000346714
0.0 0.0 -0.000346714
0.0 0.0 -0.000346714
0.0 0.0 -0.00160516
0.0 0.0 -0.00160516
0.0 0.0 -0.00160516
0.0 0.0 -0.000346714
0.0 0.0 -0.00160516
0.0 0.0 -0.000346714
0.0 0.0 -0.000346714
0.0 0.0 -0.000346714
0.0 0.0 -0.000346714
0.0 0.0 -0.000346714
0.0 0.0 -0.000346714
0.0 0.0 -0.00160516
0.0 0.0 -0.000346714
0.0 0.0 -0.00160516
0.0 0.0 -0.000346714
0.0 0.0 -0.000346714
0.0 0.0 -0.00160516
0.0 0.0 -0.00160516
0.0 0.0 -0.00160516
0.0 0.0 -0.000346714
0.0 0.0 -0.000346714
0.0 0.0 -0.000346714
0.0 0.0 -0.000346714
0.0 0.0 -0.00160516
0.0 0.0 -0.000346714
0.0 0.0 -0.00160516
0.0 0.0 -0.000346714
0.0 0.0 -0.000346714
0.0 0.0 -0.00160516
0.0 0.0 -0.000346714
0.0 0.0 -0.000346714
0.0 0.0 -0.000346714
0.0 0.0 -0.000346714
0.0 0.0 -0.000346714
0.0 0.0 -0.000346714
0.0 0.0 -0.00160516
0.0 0.0 -0.00160516
0.0 0.0 -0.000346714
0.0 0.0 -0.00160516
0.0 0.0 -0.000346714
0.0 0.0 -0.00160516
0.0 0.0 -0.000346714
0.0 0.0 -0.00160516
0.0 0.0 -0.000346714
0.0 0.0 -0.000346714
0.0 0.0 -0.000346714