# vtk DataFile Version 2.0
Generated by lpp.py
ASCII
DATASET POLYDATA
POINTS 51 float
-0.00894204 -0.00172108 0.00917593
-0.0106535 0.00311808 0.00954873
-0.0241534 0.031784 0.0100175
-0.00174714 -0.029557 0.0113782
-0.0346734 -0.00599195 0.0110507
-0.0255875 0.0216478 0.0129291
-0.00953586 -0.0287916 0.0154096
-0.00462371 -0.0298822 0.0179655
-0.0270088 -0.00882918 0.0178394
-0.0134792 0.0074157 0.0190769
-0.0266102 0.013684 0.0190524
-0.00857183 0.0107813 0.0201894
-0.0280307 0.022667 0.0197672
-0.0202974 -0.0206343 0.0217744
-0.0083641 -0.0195 0.0227157
-0.0101549 -0.00442827 0.0239683
-0.0253454 -0.000700049 0.023293
-0.00408721 0.01129 0.0218055
-0.0335467 0.0344165 0.0223468
-0.00454319 -0.0294115 0.0251
-0.0333391 -0.019004 0.0273369
-0.00618745 0.0189444 0.0273235
-0.0332823 -0.00448395 0.0305352
-0.00741847 0.0112937 0.0315971
-0.0165601 0.0229939 0.0321608
-0.0127396 -0.0117751 0.0361451
-0.022531 -0.00019371 0.0342305
-0.000459601 0.00699661 0.0355253
-0.0138262 0.0291618 0.0332967
-0.0219947 -0.0332201 0.0383345
-0.0160817 -0.03192 0.039861
-0.0230202 -0.0250033 0.0384933
-0.0290883 0.000876534 0.0370578
-0.0254317 0.00979368 0.0362585
-0.0177649 0.0224168 0.0375998
-0.0159539 -0.0280969 0.0434426
-0.020721 -0.0278475 0.0408935
-0.0297813 -0.0200888 0.0426294
-0.00180681 -0.0218065 0.0466517
-0.0159102 0.00235532 0.0461388
-0.022228 0.00485213 0.0464923
-0.0097629 0.0296421 0.0454977
-0.0105626 -0.0145818 0.0506384
-0.0279742 -1.04943e-05 0.049797
-0.0218847 0.0256262 0.0499857
-0.0160508 0.0304724 0.0503058
-0.0294843 -0.0347245 0.054389
-0.022804 -0.0315502 0.0511699
-0.0175025 -0.0121213 0.0517898
-0.0312011 0.00531382 0.0529779
-0.0196938 0.0042356 0.0530598
VERTICES 51 102
1 0
1 1
1 2
1 3
1 4
1 5
1 6
1 7
1 8
1 9
1 10
1 11
1 12
1 13
1 14
1 15
1 16
1 17
1 18
1 19
1 20
1 21
1 22
1 23
1 24
1 25
1 26
1 27
1 28
1 29
1 30
1 31
1 32
1 33
1 34
1 35
1 36
1 37
1 38
1 39
1 40
1 41
1 42
1 43
1 44
1 45
1 46
1 47
1 48
1 49
1 50
POINT_DATA 51
VECTORS i float
0.0 0.0 0.0
0.0 0.0 0.0
0.0 0.0 0.0
0.0 0.0 0.0
0.0 0.0 0.0
0.0 0.0 0.0
0.0 0.0 0.0
0.0 0.0 0.0
0.0 0.0 0.0
0.0 0.0 0.0
0.0 0.0 0.0
0.0 0.0 0.0
0.0 0.0 0.0
0.0 0.0 0.0
0.0 0.0 0.0
0.0 0.0 0.0
0.0 0.0 0.0
0.0 0.0 0.0
0.0 0.0 0.0
0.0 0.0 0.0
0.0 0.0 0.0
0.0 0.0 0.0
0.0 0.0 0.0
0.0 0.0 0.0
0.0 0.0 0.0
0.0 0.0 0.0
0.0 0.0 0.0
0.0 0.0 0.0
0.0 0.0 0.0
0.0 0.0 0.0
0.0 0.0 0.0
0.0 0.0 0.0
0.0 0.0 0.0
0.0 0.0 0.0
0.0 0.0 0.0
0.0 0.0 0.0
0.0 0.0 0.0
0.0 0.0 0.0
0.0 0.0 0.0
0.0 0.0 0.0
0.0 0.0 0.0
0.0 0.0 0.0
0.0 0.0 0.0
0.0 0.0 0.0
0.0 0.0 0.0
0.0 0.0 0.0
0.0 0.0 0.0
0.0 0.0 0.0
0.0 0.0 0.0
0.0 0.0 0.0
0.0 0.0 0.0
VECTORS f float
0.0 0.0 -0.000346714
0.0 0.0 -0.000346714
0.0 0.0 -0.000346714
0.0 0.0 -0.00160516
0.0 0.0 -0.00160516
0.0 0.0 -0.00160516
0.0 0.0 -0.000346714
0.0 0.0 -0.000346714
0.0 0.0 -0.000346714
0.0 0.0 -0.00160516
0.0 0.0 -0.000346714
0.0 0.0 -0.000346714
0.0 0.0 -0.000346714
0.0 0.0 -0.000346714
0.0 0.0 -0.000346714
0.0 0.0 -0.000346714
0.0 0.0 -0.000346714
0.0 0.0 -0.00160516
0.0 0.0 -0.000346714
0.0 0.0 -0.00160516
0.0 0.0 -0.000346714
0.0 0.0 -0.00160516
0.0 0.0 -0.000346714
0.0 0.0 -0.00160516
0.0 0.0 -0.000346714
0.0 0.0 -0.000346714
0.0 0.0 -0.00160516
0.0 0.0 -0.00160516
0.0 0.0 -0.000346714
0.0 0.0 -0.00160516
0.0 0.0 -0.00160516
0.0 0.0 -0.000346714
0.0 0.0 -0.000346714
0.0 0.0 -0.000346714
0.0 0.0 -0.000346714
0.0 0.0 -0.00160516
0.0 0.0 -0.000346714
0.0 0.0 -0.000346714
0.0 0.0 -0.00160516
0.0 0.0 -0.00160516
0.0 0.0 -0.000346714
0.0 0.0 -0.000346714
0.0 0.0 0.0
0.0 0.0 -0.000346714
0.0 0.0 -0.000346714
0.0 0.0 0.0
0.0 0.0 0.0
0.0 0.0 0.0
0.0 0.0 0.0
0.0 0.0 0.0
0.0 0.0 0.0
VECTORS omega float
0.0 0.0 0.0
0.0 0.0 0.0
0.0 0.0 0.0
0.0 0.0 0.0
0.0 0.0 0.0
0.0 0.0 0.0
0.0 0.0 0.0
0.0 0.0 0.0
0.0 0.0 0.0
0.0 0.0 0.0
0.0 0.0 0.0
0.0 0.0 0.0
0.0 0.0 0.0
0.0 0.0 0.0
0.0 0.0 0.0
0.0 0.0 0.0
0.0 0.0 0.0
0.0 0.0 0.0
0.0 0.0 0.0
0.0 0.0 0.0
0.0 0.0 0.0
0.0 0.0 0.0
0.0 0.0 0.0
0.0 0.0 0.0
0.0 0.0 0.0
0.0 0.0 0.0
0.0 0.0 0.0
0.0 0.0 0.0
0.0 0.0 0.0
0.0 0.0 0.0
0.0 0.0 0.0
0.0 0.0 0.0
0.0 0.0 0.0
0.0 0.0 0.0
0.0 0.0 0.0
0.0 0.0 0.0
0.0 0.0 0.0
0.0 0.0 0.0
0.0 0.0 0.0
0.0 0.0 0.0
0.0 0.0 0.0
0.0 0.0 0.0
0.0 0.0 0.0
0.0 0.0 0.0
0.0 0.0 0.0
0.0 0.0 0.0
0.0 0.0 0.0
0.0 0.0 0.0
0.0 0.0 0.0
0.0 0.0 0.0
0.0 0.0 0.0
VECTORS v float
0.0 0.0 -1.34203
0.0 0.0 -1.33928
0.0 0.0 -1.33585
0.0 0.0 -1.32584
0.0 0.0 -1.32819
0.0 0.0 -1.31426
0.0 0.0 -1.29562
0.0 0.0 -1.2761
0.0 0.0 -1.27708
0.0 0.0 -1.26757
0.0 0.0 -1.26776
0.0 0.0 -1.25893
0.0 0.0 -1.26217
0.0 0.0 -1.24648
0.0 0.0 -1.23912
0.0 0.0 -1.22911
0.0 0.0 -1.23451
0.0 0.0 -1.24628
0.0 0.0 -1.24196
0.0 0.0 -1.22009
0.0 0.0 -1.20194
0.0 0.0 -1.20204
0.0 0.0 -1.17555
0.0 0.0 -1.16662
0.0 0.0 -1.16191
0.0 0.0 -1.12778
0.0 0.0 -1.14426
0.0 0.0 -1.13317
0.0 0.0 -1.1523
0.0 0.0 -1.10855
0.0 0.0 -1.09491
0.0 0.0 -1.10717
0.0 0.0 -1.11983
0.0 0.0 -1.12679
0.0 0.0 -1.11502
0.0 0.0 -1.06234
0.0 0.0 -1.08569
0.0 0.0 -1.0699
0.0 0.0 -1.03232
0.0 0.0 -1.03723
0.0 0.0 -1.0338
0.0 0.0 -1.04321
-0 0.0 -1.0
0.0 0.0 -1.00201
0.0 0.0 -1.00015
-0 0.0 -1.0
-0 0.0 -1.0
-0 0.0 -1.0
-0 0.0 -1.0
-0 0.0 -1.0
-0 0.0 -1.0
SCALARS radius float 1
LOOKUP_TABLE default
0.0015
0.0015
0.0015
0.0025
0.0025
0.0025
0.0015
0.0015
0.0015
0.0025
0.0015
0.0015
0.0015
0.0015
0.0015
0.0015
0.0015
0.0025
0.0015
0.0025
0.0015
0.0025
0.0015
0.0025
0.0015
0.0015
0.0025
0.0025
0.0015
0.0025
0.0025
0.0015
0.0015
0.0015
0.0015
0.0025
0.0015
0.0015
0.0025
0.0025
0.0015
0.0015
0.0015
0.0015
0.0015
0.0025
0.0025
0.0015
0.0015
0.0015
0.0015
SCALARS type float 1
LOOKUP_TABLE default
1.0
1.0
1.0
1.0
1.0
1.0
1.0
1.0
1.0
1.0
1.0
1.0
1.0
1.0
1.0
1.0
1.0
1.0
1.0
1.0
1.0
1.0
1.0
1.0
1.0
1.0
1.0
1.0
1.0
1.0
1.0
1.0
1.0
1.0
1.0
1.0
1.0
1.0
1.0
1.0
1.0
1.0
1.0
1.0
1.0
1.0
1.0
1.0
1.0
1.0
1.0
SCALARS id float 1
LOOKUP_TABLE default
12.0
5.0
11.0
1.0
2.0
4.0
8.0
7.0
10.0
3.0
6.0
25.0
9.0
24.0
22.0
19.0
17.0
16.0
18.0
15.0
21.0
14.0
20.0
13.0
23.0
37.0
29.0
27.0
35.0
26.0
28.0
36.0
32.0
38.0
34.0
30.0
33.0
31.0
40.0
39.0
44.0
45.0
46.0
50.0
47.0
42.0
41.0
48.0
51.0
49.0
43.0

