# vtk DataFile Version 2.0
Generated by lpp.py
ASCII
DATASET POLYDATA
POINTS 25 float
-0.00174714 -0.029557 0.0381726
-0.0346734 -0.00599195 0.037897
-0.00894204 -0.00172108 0.0363265
-0.0106535 0.00311808 0.0366388
-0.0241534 0.031784 0.037032
-0.00953586 -0.0287916 0.0415393
-0.0255875 0.0216478 0.0394689
-0.00462371 -0.0298822 0.0436657
-0.0270088 -0.00882918 0.0435612
-0.0134792 0.0074157 0.0445893
-0.0266102 0.013684 0.0445691
-0.00857183 0.0107813 0.045512
-0.0280307 0.022667 0.045161
-0.0202974 -0.0206343 0.0468228
-0.0083641 -0.0195 0.0476023
-0.0101549 -0.00442827 0.0486347
-0.0253454 -0.000700049 0.0480781
-0.00408721 0.01129 0.0468496
-0.0335467 0.0344165 0.047296
-0.00454319 -0.0294115 0.0495679
-0.0333391 -0.019004 0.0514154
-0.00618745 0.0189444 0.051404
-0.0332823 -0.00448395 0.0541059
-0.00741847 0.0112937 0.0550121
-0.0165601 0.0229939 0.055497
VERTICES 25 50
1 0
1 1
1 2
1 3
1 4
1 5
1 6
1 7
1 8
1 9
1 10
1 11
1 12
1 13
1 14
1 15
1 16
1 17
1 18
1 19
1 20
1 21
1 22
1 23
1 24
POINT_DATA 25
VECTORS i float
0.0 0.0 0.0
0.0 0.0 0.0
0.0 0.0 0.0
0.0 0.0 0.0
0.0 0.0 0.0
0.0 0.0 0.0
0.0 0.0 0.0
0.0 0.0 0.0
0.0 0.0 0.0
0.0 0.0 0.0
0.0 0.0 0.0
0.0 0.0 0.0
0.0 0.0 0.0
0.0 0.0 0.0
0.0 0.0 0.0
0.0 0.0 0.0
0.0 0.0 0.0
0.0 0.0 0.0
0.0 0.0 0.0
0.0 0.0 0.0
0.0 0.0 0.0
0.0 0.0 0.0
0.0 0.0 0.0
0.0 0.0 0.0
0.0 0.0 0.0
VECTORS f float
0.0 0.0 -0.00160516
0.0 0.0 -0.00160516
0.0 0.0 -0.000346714
0.0 0.0 -0.000346714
0.0 0.0 -0.000346714
0.0 0.0 -0.000346714
0.0 0.0 -0.00160516
0.0 0.0 -0.000346714
0.0 0.0 -0.000346714
0.0 0.0 -0.00160516
0.0 0.0 -0.000346714
0.0 0.0 -0.000346714
0.0 0.0 -0.000346714
0.0 0.0 -0.000346714
0.0 0.0 -0.000346714
0.0 0.0 -0.000346714
0.0 0.0 -0.000346714
0.0 0.0 -0.00160516
0.0 0.0 -0.000346714
0.0 0.0 -0.00160516
0.0 0.0 0.0
0.0 0.0 0.0
0.0 0.0 0.0
0.0 0.0 0.0
0.0 0.0 0.0
VECTORS omega float
0.0 0.0 0.0
0.0 0.0 0.0
0.0 0.0 0.0
0.0 0.0 0.0
0.0 0.0 0.0
0.0 0.0 0.0
0.0 0.0 0.0
0.0 0.0 0.0
0.0 0.0 0.0
0.0 0.0 0.0
0.0 0.0 0.0
0.0 0.0 0.0
0.0 0.0 0.0
0.0 0.0 0.0
0.0 0.0 0.0
0.0 0.0 0.0
0.0 0.0 0.0
0.0 0.0 0.0
0.0 0.0 0.0
0.0 0.0 0.0
0.0 0.0 0.0
0.0 0.0 0.0
0.0 0.0 0.0
0.0 0.0 0.0
0.0 0.0 0.0
VECTORS v float
0.0 0.0 -1.11002
0.0 0.0 -1.11237
0.0 0.0 -1.12621
0.0 0.0 -1.12346
0.0 0.0 -1.12003
0.0 0.0 -1.0798
0.0 0.0 -1.09844
0.0 0.0 -1.06028
0.0 0.0 -1.06126
0.0 0.0 -1.05175
0.0 0.0 -1.05194
0.0 0.0 -1.04311
0.0 0.0 -1.04635
0.0 0.0 -1.03066
0.0 0.0 -1.0233
0.0 0.0 -1.01329
0.0 0.0 -1.01869
0.0 0.0 -1.03046
0.0 0.0 -1.02614
0.0 0.0 -1.00427
-0 0.0 -1.0
-0 0.0 -1.0
-0 0.0 -1.0
-0 0.0 -1.0
-0 0.0 -1.0
SCALARS radius float 1
LOOKUP_TABLE default
0.0025
0.0025
0.0015
0.0015
0.0015
0.0015
0.0025
0.0015
0.0015
0.0025
0.0015
0.0015
0.0015
0.0015
0.0015
0.0015
0.0015
0.0025
0.0015
0.0025
0.0015
0.0025
0.0015
0.0025
0.0015
SCALARS type float 1
LOOKUP_TABLE default
1.0
1.0
1.0
1.0
1.0
1.0
1.0
1.0
1.0
1.0
1.0
1.0
1.0
1.0
1.0
1.0
1.0
1.0
1.0
1.0
1.0
1.0
1.0
1.0
1.0
SCALARS id float 1
LOOKUP_TABLE default
1.0
2.0
12.0
5.0
11.0
8.0
4.0
7.0
10.0
3.0
6.0
25.0
9.0
24.0
22.0
19.0
17.0
16.0
18.0
15.0
21.0
14.0
20.0
13.0
23.0

