# vtk DataFile Version 2.0
Generated by lpp.py
ASCII
DATASET POLYDATA
POINTS 798 float
-0.0174474 0.00971585 0.0523364
-0.0111704 -0.00442839 0.0519246
-0.0175739 -0.000926651 0.0490262
-0.000858352 -0.00761314 0.0479922
-0.025319 0.0341425 0.0497688
-0.031011 -0.0109616 0.0499976
-0.0203024 -0.030617 0.0486568
-0.029044 -0.0329503 0.0508606
-0.491453 -0.0078732 -0.398919
-0.485975 0.0199217 -0.40033
-0.471159 -0.000778526 -0.394706
-0.478137 0.00064733 -0.393819
-0.456694 0.00718046 -0.393907
-0.484772 0.0218657 -0.393129
-0.488376 -0.00715243 -0.388287
-0.484723 -0.00109526 -0.387802
-0.472045 0.0188625 -0.387804
-0.45634 0.00137622 -0.383698
-0.446797 -0.0210383 -0.377769
-0.447427 0.00233658 -0.375844
-0.441541 0.0158508 -0.378296
-0.454606 0.0135648 -0.371193
-0.445144 0.0153293 -0.364242
-0.444979 -0.00889332 -0.359962
-0.463834 -0.00651073 -0.36178
-0.440371 0.00314273 -0.363091
-0.459242 0.00880694 -0.363189
-0.451488 -0.0310093 -0.359028
-0.44907 -0.00679548 -0.356783
-0.449909 0.00524894 -0.359489
-0.444554 -0.000211977 -0.354006
-0.438417 0.00803122 -0.354813
-0.437673 -0.00106804 -0.351111
-0.451617 0.00306461 -0.351034
-0.425502 0.00675703 -0.351509
-0.442488 -0.00302804 -0.345075
-0.444059 0.0027518 -0.344766
-0.420955 -0.000758567 -0.344177
-0.409923 0.0158713 -0.344006
-0.441244 -0.0274187 -0.339285
-0.444756 -0.0275962 -0.335489
-0.435542 0.0160978 -0.337423
-0.433417 -0.00971825 -0.333296
-0.422411 -0.00545878 -0.330137
-0.440374 0.0267986 -0.33137
-0.433456 -0.0213389 -0.325067
-0.412771 -0.0106893 -0.325293
-0.421722 0.0310215 -0.329373
-0.415313 -0.00381357 -0.322159
-0.417509 0.00675932 -0.321969
-0.42741 0.016573 -0.320674
-0.394867 -0.030267 -0.316595
-0.413925 -0.0171612 -0.317347
-0.40354 0.0017251 -0.315843
-0.414046 0.0161099 -0.315809
-0.413464 -0.0114218 -0.313666
-0.401291 -0.00234484 -0.315285
-0.414135 0.00439148 -0.312775
-0.416734 0.0126976 -0.314341
-0.409348 -0.00112344 -0.309744
-0.401693 0.00586548 -0.309853
-0.415771 0.0144005 -0.310559
-0.394651 -0.0278785 -0.304988
-0.398144 -0.0174326 -0.30461
-0.403102 -0.00856865 -0.305037
-0.388241 -0.00774303 -0.305232
-0.384699 -0.00965245 -0.306697
-0.401837 -0.00124464 -0.304753
-0.396861 0.00118024 -0.304856
-0.422675 0.028031 -0.307191
-0.425618 0.0382558 -0.30756
-0.388999 -0.0028102 -0.301394
-0.387685 0.00821019 -0.302362
-0.406065 -0.0131765 -0.300444
-0.388312 -0.0139195 -0.298913
-0.399002 0.00683236 -0.298872
-0.395309 0.00440452 -0.299793
-0.411005 -0.0158494 -0.293744
-0.387217 -0.0114867 -0.293098
-0.386884 -0.00790941 -0.296248
-0.395589 0.000421759 -0.295784
-0.453793 0.000940535 -0.296
-0.398688 0.00693086 -0.29343
-0.397605 0.0155692 -0.29469
-0.375835 -0.0221797 -0.292968
-0.403228 -0.0197572 -0.292448
-0.394056 0.0248137 -0.292001
-0.396712 0.0345367 -0.294503
-0.384508 -0.0144981 -0.286586
-0.381496 0.00215802 -0.285551
-0.39506 0.00569461 -0.287681
-0.385279 0.00869536 -0.285163
-0.390654 0.0494226 -0.286961
-0.380123 -0.00341735 -0.281513
-0.37743 -0.00121831 -0.284938
-0.388324 0.0260123 -0.282241
-0.377648 0.000702868 -0.278677
-0.382017 0.00426944 -0.279369
-0.384301 -0.0150541 -0.276748
-0.381617 0.0178984 -0.276512
-0.377656 0.0298685 -0.277283
-0.386906 0.0345494 -0.275071
-0.39022 0.0413149 -0.277066
-0.364743 0.00592082 -0.271982
-0.376653 0.0157104 -0.273182
-0.364893 -0.0115591 -0.267253
-0.363529 0.00260923 -0.268222
-0.356343 0.00477148 -0.26762
-0.359637 0.00885174 -0.266919
-0.366219 0.0129116 -0.26986
-0.39333 0.0489356 -0.270604
-0.361402 -0.00627429 -0.265017
-0.357035 -0.00634707 -0.263429
-0.358415 0.00357044 -0.264431
-0.360003 0.0137278 -0.265109
-0.374004 0.0369121 -0.263088
-0.36428 -0.0277916 -0.260033
-0.358631 -0.0103907 -0.261055
-0.354464 -0.0077055 -0.26108
-0.35724 -0.00312826 -0.259509
-0.355721 0.00326253 -0.261408
-0.362153 0.00655751 -0.259738
-0.353202 0.00530746 -0.261435
-0.360787 0.00991795 -0.261437
-0.356592 0.0091566 -0.261204
-0.353066 0.000325654 -0.257689
-0.347711 0.00617336 -0.256981
-0.346521 -0.0206678 -0.252149
-0.344407 -0.000374719 -0.25197
-0.344337 0.00476625 -0.252073
-0.342208 0.00865864 -0.250654
-0.347699 0.0101535 -0.25309
-0.352106 -0.0339384 -0.249598
-0.342752 -0.0230331 -0.249115
-0.337461 -0.0225297 -0.246388
-0.339153 -0.0136029 -0.247902
-0.333364 -0.0146665 -0.246345
-0.335337 -0.0123737 -0.245778
-0.335958 -0.00995223 -0.248409
-0.33994 -0.00810703 -0.249117
-0.33419 -0.00646349 -0.247969
-0.336957 0.000608236 -0.250002
-0.334286 0.000893786 -0.248196
-0.336779 0.00392123 -0.248534
-0.34561 0.0157413 -0.251021
-0.341224 0.0135588 -0.249045
-0.341618 -0.0279827 -0.24646
-0.334006 -0.022146 -0.244716
-0.334999 -0.0174892 -0.243414
-0.329959 -0.00682198 -0.245153
-0.334097 -0.00272462 -0.245867
-0.329576 0.00881464 -0.243713
-0.335674 0.0140251 -0.246039
-0.334345 -0.0313712 -0.241862
-0.329379 -0.0288755 -0.240532
-0.327641 -0.0188882 -0.241198
-0.322635 -0.0128555 -0.241382
-0.320848 -0.00627458 -0.241062
-0.317725 -0.00463916 -0.239908
-0.326342 0.0154133 -0.240335
-0.324112 0.0215006 -0.240323
-0.331713 -0.0393722 -0.237403
-0.312645 -0.0176799 -0.236273
-0.315713 -0.00629784 -0.237223
-0.308638 -0.00762129 -0.236012
-0.308241 0.00708725 -0.235676
-0.315472 0.0143237 -0.238105
-0.312737 0.021349 -0.235594
-0.309672 -0.0273737 -0.232908
-0.304063 -0.0147863 -0.233253
-0.307878 -0.011993 -0.234073
-0.303523 -0.0102233 -0.233578
-0.300878 -0.00745098 -0.232746
-0.304734 -0.00303141 -0.233445
-0.305121 0.00279865 -0.23463
-0.301785 0.00264177 -0.232149
-0.298044 0.00586541 -0.231452
-0.302311 0.00810315 -0.232025
-0.303613 0.0144349 -0.233133
-0.30613 0.0181258 -0.233465
-0.31489 0.0244786 -0.235884
-0.318713 -0.0408417 -0.231499
-0.300439 -0.0230077 -0.230111
-0.299468 -0.0154978 -0.230206
-0.297775 -0.0119297 -0.230974
-0.297555 -0.00556645 -0.23141
-0.294101 -0.00459582 -0.229988
-0.290905 -0.00669152 -0.228567
-0.29818 -0.000591799 -0.231812
-0.294085 0.00112765 -0.228999
-0.295566 0.00883975 -0.229136
-0.291647 0.00970386 -0.228039
-0.299632 0.0174217 -0.23089
-0.30562 -0.0424961 -0.225932
-0.297632 -0.0351588 -0.225568
-0.291406 -0.0221239 -0.226714
-0.292527 -0.017644 -0.226928
-0.288767 -0.0135856 -0.225918
-0.283396 -0.0091039 -0.225235
-0.288334 -0.0038304 -0.226496
-0.28091 -0.00638094 -0.224362
-0.286994 -9.4533e-06 -0.227145
-0.28396 -0.00403969 -0.225728
-0.283125 0.00092607 -0.225477
-0.284606 0.00888573 -0.225591
-0.281826 0.00793197 -0.224482
-0.290216 0.0130625 -0.227689
-0.289103 0.0238047 -0.22533
-0.3102 0.041569 -0.226869
-0.309933 -0.0516332 -0.222506
-0.277937 -0.0209594 -0.221313
-0.282882 -0.019838 -0.223588
-0.28368 -0.0158421 -0.223539
-0.274663 -0.0112947 -0.221327
-0.274622 -0.00803019 -0.221651
-0.278143 -0.00621541 -0.223201
-0.280688 -0.00249742 -0.223315
-0.278739 0.00425385 -0.222336
-0.273905 0.00867732 -0.221169
-0.276193 0.0134523 -0.221753
-0.285193 0.0228551 -0.223432
-0.287259 -0.0441087 -0.216716
-0.272393 -0.0127621 -0.220023
-0.269343 -0.013348 -0.218869
-0.269216 -0.00733221 -0.219386
-0.266292 -0.00684857 -0.218164
-0.268271 -0.00314763 -0.218064
-0.271781 0.0180746 -0.21804
-0.26818 -0.0209526 -0.217249
-0.262999 -0.0152998 -0.21598
-0.266632 -0.011149 -0.216884
-0.260746 -0.00946169 -0.214987
-0.262777 0.00894383 -0.216489
-0.264996 0.0131156 -0.215992
-0.291386 0.0463562 -0.218276
-0.261785 -0.0310422 -0.211114
-0.256909 -0.025525 -0.210383
-0.257094 -0.0185944 -0.213095
-0.25517 -0.0197218 -0.210838
-0.255173 -0.015808 -0.212123
-0.250229 -0.0147434 -0.210569
-0.258867 -0.0138879 -0.213313
-0.252822 -0.0126235 -0.212003
-0.256164 -0.00884724 -0.213784
-0.248711 -5.30593e-05 -0.210938
-0.248383 -0.00304624 -0.210783
-0.255979 0.0117704 -0.212896
-0.262498 0.0321014 -0.212169
-0.287506 -0.0541775 -0.212363
-0.252307 -0.0230549 -0.210217
-0.251835 -0.0181944 -0.208576
-0.246503 -0.00864361 -0.209615
-0.243311 -0.00685607 -0.20846
-0.242853 -0.00326318 -0.208444
-0.241001 -0.000231366 -0.207673
-0.247727 0.00653474 -0.209172
-0.242559 0.00775597 -0.206961
-0.246491 0.0142897 -0.209106
-0.245055 0.0197185 -0.207704
-0.268169 0.0434466 -0.209276
-0.24699 -0.0280934 -0.206841
-0.241774 -0.0282099 -0.204795
-0.239655 -0.0154377 -0.206153
-0.238024 0.00186518 -0.205243
-0.234881 0.0077495 -0.204822
-0.24133 0.0177829 -0.205381
-0.244617 0.0309877 -0.205141
-0.248547 0.0342218 -0.204777
-0.242851 -0.0373776 -0.201516
-0.22933 -0.0270382 -0.199103
-0.233538 -0.0154609 -0.202489
-0.237454 -0.0107361 -0.203287
-0.229242 -0.0117123 -0.20208
-0.225017 -0.00986048 -0.200439
-0.231096 -0.00833271 -0.20311
-0.232107 -0.00160244 -0.202851
-0.222825 -0.000944676 -0.199947
-0.230848 0.0206037 -0.200577
-0.234494 0.0231334 -0.202852
-0.224235 -0.0311095 -0.196697
-0.21742 -0.018622 -0.196346
-0.219072 -0.0149762 -0.196371
-0.219957 -0.00522211 -0.198713
-0.215088 -0.00412335 -0.196709
-0.257383 -0.000267519 -0.200042
-0.219085 -0.000911103 -0.196987
-0.218317 0.00458099 -0.196881
-0.228225 0.0249669 -0.198716
-0.224194 0.0205995 -0.198911
-0.218317 -0.0283153 -0.194835
-0.219265 -0.0221015 -0.195477
-0.214469 -0.0210646 -0.193637
-0.211213 -0.00828945 -0.193731
-0.216348 -0.00705415 -0.195838
-0.214284 -0.000509392 -0.195195
-0.211284 0.00584531 -0.194977
-0.213507 0.00938839 -0.194681
-0.216183 0.0161391 -0.194999
-0.211105 0.016818 -0.193907
-0.214844 -0.0272567 -0.192548
-0.206452 -0.0292909 -0.189668
-0.205569 -0.0179813 -0.191421
-0.201998 -0.0161705 -0.190141
-0.197832 -0.00555524 -0.189339
-0.201049 -0.00319798 -0.189636
-0.207025 0.0122706 -0.192695
-0.208661 0.0175992 -0.192282
-0.206158 0.0227485 -0.190942
-0.215767 0.0256555 -0.192209
-0.206216 0.0285816 -0.18946
-0.223268 -0.032336 -0.191528
-0.198955 -0.0220017 -0.188155
-0.19532 -0.0115977 -0.18673
-0.200877 -0.0101239 -0.18922
-0.193338 -0.00656313 -0.187418
-0.205875 0.00377134 -0.187872
-0.191102 0.00223838 -0.185466
-0.187482 0.00401285 -0.185018
-0.188245 0.00697583 -0.185243
-0.1993 0.0101155 -0.188557
-0.194186 0.00684502 -0.186705
[...]
POINT_DATA 798
VECTORS i float
0.0 0.0 0.0
0.0 0.0 0.0
0.0 0.0 0.0
0.0 0.0 0.0
0.0 0.0 0.0
0.0 0.0 0.0
0.0 0.0 0.0
0.0 0.0 0.0
0.0 0.0 0.0
0.0 0.0 0.0
0.0 0.0 0.0
0.0 0.0 0.0
0.0 0.0 0.0
0.0 0.0 0.0
0.0 0.0 0.0
0.0 0.0 0.0
0.0 0.0 0.0
0.0 0.0 0.0
0.0 0.0 0.0
0.0 0.0 0.0
0.0 0.0 0.0
0.0 0.0 0.0
0.0 0.0 0.0
0.0 0.0 0.0
0.0 0.0 0.0
0.0 0.0 0.0
0.0 0.0 0.0
0.0 0.0 0.0
0.0 0.0 0.0
0.0 0.0 0.0
0.0 0.0 0.0
0.0 0.0 0.0
0.0 0.0 0.0
0.0 0.0 0.0
0.0 0.0 0.0
0.0 0.0 0.0
0.0 0.0 0.0
0.0 0.0 0.0
0.0 0.0 0.0
0.0 0.0 0.0
0.0 0.0 0.0
0.0 0.0 0.0
0.0 0.0 0.0
0.0 0.0 0.0
0.0 0.0 0.0
0.0 0.0 0.0
0.0 0.0 0.0
0.0 0.0 0.0
0.0 0.0 0.0
0.0 0.0 0.0
0.0 0.0 0.0
0.0 0.0 0.0
0.0 0.0 0.0
0.0 0.0 0.0
0.0 0.0 0.0
0.0 0.0 0.0
0.0 0.0 0.0
0.0 0.0 0.0
0.0 0.0 0.0
0.0 0.0 0.0
0.0 0.0 0.0
0.0 0.0 0.0
0.0 0.0 0.0
0.0 0.0 0.0
0.0 0.0 0.0
0.0 0.0 0.0
0.0 0.0 0.0
0.0 0.0 0.0
0.0 0.0 0.0
0.0 0.0 0.0
0.0 0.0 0.0
0.0 0.0 0.0
0.0 0.0 0.0
0.0 0.0 0.0
0.0 0.0 0.0
0.0 0.0 0.0
0.0 0.0 0.0
0.0 0.0 0.0
0.0 0.0 0.0
0.0 0.0 0.0
0.0 0.0 0.0
0.0 0.0 0.0
0.0 0.0 0.0
0.0 0.0 0.0
0.0 0.0 0.0
0.0 0.0 0.0
0.0 0.0 0.0
0.0 0.0 0.0
0.0 0.0 0.0
0.0 0.0 0.0
0.0 0.0 0.0
0.0 0.0 0.0
0.0 0.0 0.0
0.0 0.0 0.0
0.0 0.0 0.0
0.0 0.0 0.0
0.0 0.0 0.0
0.0 0.0 0.0
0.0 0.0 0.0
0.0 0.0 0.0
0.0 0.0 0.0
0.0 0.0 0.0
0.0 0.0 0.0
0.0 0.0 0.0
0.0 0.0 0.0
0.0 0.0 0.0
0.0 0.0 0.0
0.0 0.0 0.0
0.0 0.0 0.0
0.0 0.0 0.0
0.0 0.0 0.0
0.0 0.0 0.0
0.0 0.0 0.0
0.0 0.0 0.0
0.0 0.0 0.0
0.0 0.0 0.0
0.0 0.0 0.0
0.0 0.0 0.0
0.0 0.0 0.0
0.0 0.0 0.0
0.0 0.0 0.0
0.0 0.0 0.0
0.0 0.0 0.0
0.0 0.0 0.0
0.0 0.0 0.0
0.0 0.0 0.0
0.0 0.0 0.0
0.0 0.0 0.0
0.0 0.0 0.0
0.0 0.0 0.0
0.0 0.0 0.0
0.0 0.0 0.0
0.0 0.0 0.0
0.0 0.0 0.0
0.0 0.0 0.0
0.0 0.0 0.0
0.0 0.0 0.0
0.0 0.0 0.0
0.0 0.0 0.0
0.0 0.0 0.0
0.0 0.0 0.0
0.0 0.0 0.0
0.0 0.0 0.0
0.0 0.0 0.0
0.0 0.0 0.0
0.0 0.0 0.0
0.0 0.0 0.0
0.0 0.0 0.0
0.0 0.0 0.0
0.0 0.0 0.0
0.0 0.0 0.0
0.0 0.0 0.0
0.0 0.0 0.0
0.0 0.0 0.0
0.0 0.0 0.0
0.0 0.0 0.0
0.0 0.0 0.0
0.0 0.0 0.0
0.0 0.0 0.0
0.0 0.0 0.0
0.0 0.0 0.0
0.0 0.0 0.0
0.0 0.0 0.0
0.0 0.0 0.0
0.0 0.0 0.0
0.0 0.0 0.0
0.0 0.0 0.0
0.0 0.0 0.0
0.0 0.0 0.0
0.0 0.0 0.0
0.0 0.0 0.0
0.0 0.0 0.0
0.0 0.0 0.0
0.0 0.0 0.0
0.0 0.0 0.0
0.0 0.0 0.0
0.0 0.0 0.0
0.0 0.0 0.0
0.0 0.0 0.0
0.0 0.0 0.0
0.0 0.0 0.0
0.0 0.0 0.0
0.0 0.0 0.0
0.0 0.0 0.0
0.0 0.0 0.0
0.0 0.0 0.0
0.0 0.0 0.0
0.0 0.0 0.0
0.0 0.0 0.0
0.0 0.0 0.0
0.0 0.0 0.0
0.0 0.0 0.0
0.0 0.0 0.0
0.0 0.0 0.0
0.0 0.0 0.0
0.0 0.0 0.0
0.0 0.0 0.0
0.0 0.0 0.0
0.0 0.0 0.0
0.0 0.0 0.0
0.0 0.0 0.0
0.0 0.0 0.0
0.0 0.0 0.0
0.0 0.0 0.0
0.0 0.0 0.0
0.0 0.0 0.0
0.0 0.0 0.0
0.0 0.0 0.0
0.0 0.0 0.0
0.0 0.0 0.0
0.0 0.0 0.0
0.0 0.0 0.0
0.0 0.0 0.0
0.0 0.0 0.0
0.0 0.0 0.0
0.0 0.0 0.0
0.0 0.0 0.0
0.0 0.0 0.0
0.0 0.0 0.0
0.0 0.0 0.0
0.0 0.0 0.0
0.0 0.0 0.0
0.0 0.0 0.0
0.0 0.0 0.0
0.0 0.0 0.0
0.0 0.0 0.0
0.0 0.0 0.0
0.0 0.0 0.0
0.0 0.0 0.0
0.0 0.0 0.0
0.0 0.0 0.0
0.0 0.0 0.0
0.0 0.0 0.0
0.0 0.0 0.0
0.0 0.0 0.0
0.0 0.0 0.0
0.0 0.0 0.0
0.0 0.0 0.0
0.0 0.0 0.0
0.0 0.0 0.0
0.0 0.0 0.0
0.0 0.0 0.0
0.0 0.0 0.0
0.0 0.0 0.0
0.0 0.0 0.0
0.0 0.0 0.0
0.0 0.0 0.0
0.0 0.0 0.0
0.0 0.0 0.0
0.0 0.0 0.0
0.0 0.0 0.0
0.0 0.0 0.0
0.0 0.0 0.0
0.0 0.0 0.0
0.0 0.0 0.0
0.0 0.0 0.0
0.0 0.0 0.0
0.0 0.0 0.0
0.0 0.0 0.0
0.0 0.0 0.0
0.0 0.0 0.0
0.0 0.0 0.0
0.0 0.0 0.0
0.0 0.0 0.0
0.0 0.0 0.0
0.0 0.0 0.0
0.0 0.0 0.0
0.0 0.0 0.0
0.0 0.0 0.0
0.0 0.0 0.0
0.0 0.0 0.0
0.0 0.0 0.0
0.0 0.0 0.0
0.0 0.0 0.0
0.0 0.0 0.0
0.0 0.0 0.0
0.0 0.0 0.0
0.0 0.0 0.0
0.0 0.0 0.0
0.0 0.0 0.0
0.0 0.0 0.0
0.0 0.0 0.0
0.0 0.0 0.0
0.0 0.0 0.0
0.0 0.0 0.0
0.0 0.0 0.0
0.0 0.0 0.0
0.0 0.0 0.0
0.0 0.0 0.0
0.0 0.0 0.0
0.0 0.0 0.0
0.0 0.0 0.0
0.0 0.0 0.0
0.0 0.0 0.0
0.0 0.0 0.0
0.0 0.0 0.0
0.0 0.0 0.0
0.0 0.0 0.0
0.0 0.0 0.0
0.0 0.0 0.0
0.0 0.0 0.0
0.0 0.0 0.0
0.0 0.0 0.0
0.0 0.0 0.0
0.0 0.0 0.0
0.0 0.0 0.0
0.0 0.0 0.0
0.0 0.0 0.0
0.0 0.0 0.0
0.0 0.0 0.0
0.0 0.0 0.0
0.0 0.0 0.0
0.0 0.0 0.0
0.0 0.0 0.0
0.0 0.0 0.0
0.0 0.0 0.0
0.0 0.0 0.0
0.0 0.0 0.0
0.0 0.0 0.0
0.0 0.0 0.0
0.0 0.0 0.0
0.0 0.0 0.0
0.0 0.0 0.0
0.0 0.0 0.0
0.0 0.0 0.0
0.0 0.0 0.0
0.0 0.0 0.0
0.0 0.0 0.0
0.0 0.0 0.0
0.0 0.0 0.0
0.0 0.0 0.0
0.0 0.0 0.0
0.0 0.0 0.0
0.0 0.0 0.0
0.0 0.0 0.0
0.0 0.0 0.0
0.0 0.0 0.0
0.0 0.0 0.0
0.0 0.0 0.0
0.0 0.0 0.0
0.0 0.0 0.0
0.0 0.0 0.0
0.0 0.0 0.0
0.0 0.0 0.0
0.0 0.0 0.0
0.0 0.0 0.0
0.0 0.0 0.0
0.0 0.0 0.0
0.0 0.0 0.0
0.0 0.0 0.0
0.0 0.0 0.0
0.0 0.0 0.0
0.0 0.0 0.0
0.0 0.0 0.0
0.0 0.0 0.0
0.0 0.0 0.0
0.0 0.0 0.0
0.0 0.0 0.0
0.0 0.0 0.0
0.0 0.0 0.0
0.0 0.0 0.0
0.0 0.0 0.0
0.0 0.0 0.0
0.0 0.0 0.0
0.0 0.0 0.0
0.0 0.0 0.0
0.0 0.0 0.0
0.0 0.0 0.0
0.0 0.0 0.0
0.0 0.0 0.0
0.0 0.0 0.0
0.0 0.0 0.0
0.0 0.0 0.0
0.0 0.0 0.0
0.0 0.0 0.0
0.0 0.0 0.0
0.0 0.0 0.0
0.0 0.0 0.0
0.0 0.0 0.0
0.0 0.0 0.0
0.0 0.0 0.0
0.0 0.0 0.0
0.0 0.0 0.0
0.0 0.0 0.0
0.0 0.0 0.0
0.0 0.0 0.0
0.0 0.0 0.0
0.0 0.0 0.0
0.0 0.0 0.0
0.0 0.0 0.0
0.0 0.0 0.0
0.0 0.0 0.0
0.0 0.0 0.0
0.0 0.0 0.0
0.0 0.0 0.0
0.0 0.0 0.0
0.0 0.0 0.0
0.0 0.0 0.0
0.0 0.0 0.0
0.0 0.0 0.0
0.0 0.0 0.0
0.0 0.0 0.0
0.0 0.0 0.0
0.0 0.0 0.0
0.0 0.0 0.0
0.0 0.0 0.0
0.0 0.0 0.0
0.0 0.0 0.0
0.0 0.0 0.0
0.0 0.0 0.0
0.0 0.0 0.0
0.0 0.0 0.0
0.0 0.0 0.0
0.0 0.0 0.0
0.0 0.0 0.0
0.0 0.0 0.0
0.0 0.0 0.0
0.0 0.0 0.0
0.0 0.0 0.0
0.0 0.0 0.0
0.0 0.0 0.0
0.0 0.0 0.0
0.0 0.0 0.0
0.0 0.0 0.0
0.0 0.0 0.0
0.0 0.0 0.0
0.0 0.0 0.0
0.0 0.0 0.0
0.0 0.0 0.0
0.0 0.0 0.0
0.0 0.0 0.0
0.0 0.0 0.0
0.0 0.0 0.0
0.0 0.0 0.0
0.0 0.0 0.0
0.0 0.0 0.0
0.0 0.0 0.0
0.0 0.0 0.0
0.0 0.0 0.0
0.0 0.0 0.0
0.0 0.0 0.0
0.0 0.0 0.0
0.0 0.0 0.0
0.0 0.0 0.0
0.0 0.0 0.0
0.0 0.0 0.0
0.0 0.0 0.0
0.0 0.0 0.0
0.0 0.0 0.0
0.0 0.0 0.0
0.0 0.0 0.0
0.0 0.0 0.0
0.0 0.0 0.0
0.0 0.0 0.0
0.0 0.0 0.0
0.0 0.0 0.0
0.0 0.0 0.0
0.0 0.0 0.0
0.0 0.0 0.0
0.0 0.0 0.0
0.0 0.0 0.0
0.0 0.0 0.0
0.0 0.0 0.0
0.0 0.0 0.0
0.0 0.0 0.0
0.0 0.0 0.0
0.0 0.0 0.0
0.0 0.0 0.0
0.0 0.0 0.0
0.0 0.0 0.0
0.0 0.0 0.0
0.0 0.0 0.0
0.0 0.0 0.0
0.0 0.0 0.0
0.0 0.0 0.0
0.0 0.0 0.0
0.0 0.0 0.0
0.0 0.0 0.0
0.0 0.0 0.0
0.0 0.0 0.0
0.0 0.0 0.0
0.0 0.0 0.0
0.0 0.0 0.0
0.0 0.0 0.0
0.0 0.0 0.0
0.0 0.0 0.0
0.0 0.0 0.0
0.0 0.0 0.0
0.0 0.0 0.0
0.0 0.0 0.0
0.0 0.0 0.0
0.0 0.0 0.0
0.0 0.0 0.0
0.0 0.0 0.0
0.0 0.0 0.0
0.0 0.0 0.0
0.0 0.0 0.0
0.0 0.0 0.0
0.0 0.0 0.0
0.0 0.0 0.0
0.0 0.0 0.0
0.0 0.0 0.0
0.0 0.0 0.0
0.0 0.0 0.0
0.0 0.0 0.0
0.0 0.0 0.0
0.0 0.0 0.0
0.0 0.0 0.0
0.0 0.0 0.0
0.0 0.0 0.0
0.0 0.0 0.0
0.0 0.0 0.0
0.0 0.0 0.0
0.0 0.0 0.0
0.0 0.0 0.0
0.0 0.0 0.0
0.0 0.0 0.0
0.0 0.0 0.0
0.0 0.0 0.0
0.0 0.0 0.0
0.0 0.0 0.0
0.0 0.0 0.0
0.0 0.0 0.0
0.0 0.0 0.0
0.0 0.0 0.0
0.0 0.0 0.0
0.0 0.0 0.0
0.0 0.0 0.0
0.0 0.0 0.0
0.0 0.0 0.0
0.0 0.0 0.0
0.0 0.0 0.0
0.0 0.0 0.0
0.0 0.0 0.0
0.0 0.0 0.0
0.0 0.0 0.0
0.0 0.0 0.0
0.0 0.0 0.0
0.0 0.0 0.0
0.0 0.0 0.0
0.0 0.0 0.0
0.0 0.0 0.0
0.0 0.0 0.0
0.0 0.0 0.0
0.0 0.0 0.0
0.0 0.0 0.0
0.0 0.0 0.0
0.0 0.0 0.0
0.0 0.0 0.0
0.0 0.0 0.0
0.0 0.0 0.0
0.0 0.0 0.0
0.0 0.0 0.0
0.0 0.0 0.0
0.0 0.0 0.0
0.0 0.0 0.0
0.0 0.0 0.0
0.0 0.0 0.0
0.0 0.0 0.0
0.0 0.0 0.0
0.0 0.0 0.0
0.0 0.0 0.0
0.0 0.0 0.0
0.0 0.0 0.0
0.0 0.0 0.0
0.0 0.0 0.0
0.0 0.0 0.0
0.0 0.0 0.0
0.0 0.0 0.0
0.0 0.0 0.0
0.0 0.0 0.0
0.0 0.0 0.0
0.0 0.0 0.0
0.0 0.0 0.0
0.0 0.0 0.0
0.0 0.0 0.0
0.0 0.0 0.0
0.0 0.0 0.0
0.0 0.0 0.0
0.0 0.0 0.0
0.0 0.0 0.0
0.0 0.0 0.0
0.0 0.0 0.0
0.0 0.0 0.0
0.0 0.0 0.0
0.0 0.0 0.0
0.0 0.0 0.0
0.0 0.0 0.0
0.0 0.0 0.0
0.0 0.0 0.0
0.0 0.0 0.0
0.0 0.0 0.0
0.0 0.0 0.0
0.0 0.0 0.0
0.0 0.0 0.0
0.0 0.0 0.0
0.0 0.0 0.0
0.0 0.0 0.0
0.0 0.0 0.0
0.0 0.0 0.0
0.0 0.0 0.0
0.0 0.0 0.0
0.0 0.0 0.0
0.0 0.0 0.0
0.0 0.0 0.0
0.0 0.0 0.0
0.0 0.0 0.0
0.0 0.0 0.0
0.0 0.0 0.0
0.0 0.0 0.0
0.0 0.0 0.0
0.0 0.0 0.0
0.0 0.0 0.0
0.0 0.0 0.0
0.0 0.0 0.0
0.0 0.0 0.0
0.0 0.0 0.0
0.0 0.0 0.0
0.0 0.0 0.0
0.0 0.0 0.0
0.0 0.0 0.0
0.0 0.0 0.0
0.0 0.0 0.0
0.0 0.0 0.0
0.0 0.0 0.0
0.0 0.0 0.0
0.0 0.0 0.0
0.0 0.0 0.0
0.0 0.0 0.0
0.0 0.0 0.0
0.0 0.0 0.0
0.0 0.0 0.0
0.0 0.0 0.0
0.0 0.0 0.0
0.0 0.0 0.0
0.0 0.0 0.0
0.0 0.0 0.0
0.0 0.0 0.0
0.0 0.0 0.0
0.0 0.0 0.0
0.0 0.0 0.0
0.0 0.0 0.0
0.0 0.0 0.0
0.0 0.0 0.0
0.0 0.0 0.0
0.0 0.0 0.0
0.0 0.0 0.0
0.0 0.0 0.0
0.0 0.0 0.0
0.0 0.0 0.0
0.0 0.0 0.0
0.0 0.0 0.0
0.0 0.0 0.0
0.0 0.0 0.0
0.0 0.0 0.0
0.0 0.0 0.0
0.0 0.0 0.0
0.0 0.0 0.0
0.0 0.0 0.0
0.0 0.0 0.0
0.0 0.0 0.0
0.0 0.0 0.0
0.0 0.0 0.0
0.0 0.0 0.0
0.0 0.0 0.0
0.0 0.0 0.0
0.0 0.0 0.0
0.0 0.0 0.0
0.0 0.0 0.0
0.0 0.0 0.0
0.0 0.0 0.0
0.0 0.0 0.0
0.0 0.0 0.0
0.0 0.0 0.0
0.0 0.0 0.0
0.0 0.0 0.0
0.0 0.0 0.0
0.0 0.0 0.0
0.0 0.0 0.0
0.0 0.0 0.0
0.0 0.0 0.0
0.0 0.0 0.0
0.0 0.0 0.0
0.0 0.0 0.0
0.0 0.0 0.0
0.0 0.0 0.0
0.0 0.0 0.0
0.0 0.0 0.0
0.0 0.0 0.0
0.0 0.0 0.0
0.0 0.0 0.0
0.0 0.0 0.0
0.0 0.0 0.0
0.0 0.0 0.0
0.0 0.0 0.0
0.0 0.0 0.0
0.0 0.0 0.0
0.0 0.0 0.0
0.0 0.0 0.0
0.0 0.0 0.0
0.0 0.0 0.0
0.0 0.0 0.0
0.0 0.0 0.0
0.0 0.0 0.0
0.0 0.0 0.0
0.0 0.0 0.0
0.0 0.0 0.0
0.0 0.0 0.0
0.0 0.0 0.0
0.0 0.0 0.0
0.0 0.0 0.0
0.0 0.0 0.0
0.0 0.0 0.0
0.0 0.0 0.0
0.0 0.0 0.0
0.0 0.0 0.0
0.0 0.0 0.0
0.0 0.0 0.0
0.0 0.0 0.0
0.0 0.0 0.0
0.0 0.0 0.0
0.0 0.0 0.0
0.0 0.0 0.0
0.0 0.0 0.0
0.0 0.0 0.0
0.0 0.0 0.0
0.0 0.0 0.0
0.0 0.0 0.0
0.0 0.0 0.0
0.0 0.0 0.0
0.0 0.0 0.0
0.0 0.0 0.0
0.0 0.0 0.0
0.0 0.0 0.0
0.0 0.0 0.0
0.0 0.0 0.0
0.0 0.0 0.0
0.0 0.0 0.0
0.0 0.0 0.0
0.0 0.0 0.0
0.0 0.0 0.0
0.0 0.0 0.0
0.0 0.0 0.0
0.0 0.0 0.0
0.0 0.0 0.0
0.0 0.0 0.0
0.0 0.0 0.0
0.0 0.0 0.0
0.0 0.0 0.0
0.0 0.0 0.0
0.0 0.0 0.0
0.0 0.0 0.0
0.0 0.0 0.0
0.0 0.0 0.0
0.0 0.0 0.0
0.0 0.0 0.0
0.0 0.0 0.0
0.0 0.0 0.0
0.0 0.0 0.0
0.0 0.0 0.0
0.0 0.0 0.0
0.0 0.0 0.0
0.0 0.0 0.0
0.0 0.0 0.0
0.0 0.0 0.0
0.0 0.0 0.0
0.0 0.0 0.0
0.0 0.0 0.0
0.0 0.0 0.0
0.0 0.0 0.0
0.0 0.0 0.0
0.0 0.0 0.0
0.0 0.0 0.0
0.0 0.0 0.0
0.0 0.0 0.0
0.0 0.0 0.0
0.0 0.0 0.0
0.0 0.0 0.0
0.0 0.0 0.0
0.0 0.0 0.0
0.0 0.0 0.0
0.0 0.0 0.0
0.0 0.0 0.0
0.0 0.0 0.0
0.0 0.0 0.0
0.0 0.0 0.0
0.0 0.0 0.0
0.0 0.0 0.0
0.0 0.0 0.0
0.0 0.0 0.0
0.0 0.0 0.0
0.0 0.0 0.0
0.0 0.0 0.0
0.0 0.0 0.0
0.0 0.0 0.0
0.0 0.0 0.0
0.0 0.0 0.0
0.0 0.0 0.0
VECTORS f float
0.0 0.0 0.0
0.0 0.0 0.0
0.0 0.0 -0.000346714
0.0 0.0 -0.000346714
0.0 0.0 -0.000346714
0.0 0.0 -0.000346714
0.0 0.0 -0.00160516
0.0 0.0 0.0
0.0 0.0 -0.00160516
0.0 0.0 -0.000346714
0.0 0.0 -0.000346714
0.0 0.0 -0.00160516
0.0 0.0 -0.000346714
0.0 0.0 -0.00160516
0.0 0.0 -0.000346714
0.0 0.0 -0.00160516
0.0 0.0 -0.000346714
0.0 0.0 -0.000346714
0.0 0.0 -0.000346714
0.0 0.0 -0.00160516
0.0 0.0 -0.000346714
0.0 0.0 -0.00160516
0.0 0.0 -0.000346714
0.0 0.0 -0.00160516
0.0 0.0 -0.000346714
0.0 0.0 -0.000346714
0.0 0.0 -0.00160516
0.0 0.0 -0.000346714
0.0 0.0 -0.000346714
0.0 0.0 -0.000346714
0.0 0.0 -0.00160516
0.0 0.0 -0.000346714
0.0 0.0 -0.00160516
0.0 0.0 -0.00160516
0.0 0.0 -0.000346714
0.0 0.0 -0.000346714
0.0 0.0 -0.000346714
0.0 0.0 -0.000346714
0.0 0.0 -0.000346714
0.0 0.0 -0.000346714
0.0 0.0 -0.000346714
0.0 0.0 -0.00160516
0.0 0.0 -0.000346714
0.0 0.0 -0.000346714
0.0 0.0 -0.000346714
0.0 0.0 -0.00160516
0.0 0.0 -0.00160516
0.0 0.0 -0.000346714
0.0 0.0 -0.00160516
0.0 0.0 -0.000346714
0.0 0.0 -0.000346714
0.0 0.0 -0.000346714
0.0 0.0 -0.000346714
0.0 0.0 -0.000346714
0.0 0.0 -0.00160516
0.0 0.0 -0.00160516
0.0 0.0 -0.000346714
0.0 0.0 -0.00160516
0.0 0.0 -0.000346714
0.0 0.0 -0.00160516
0.0 0.0 -0.00160516
0.0 0.0 -0.00160516
0.0 0.0 -0.00160516
0.0 0.0 -0.00160516
0.0 0.0 -0.000346714
0.0 0.0 -0.000346714
0.0 0.0 -0.000346714
0.0 0.0 -0.000346714
0.0 0.0 -0.00160516
0.0 0.0 -0.000346714
0.0 0.0 -0.000346714
0.0 0.0 -0.00160516
0.0 0.0 -0.000346714
0.0 0.0 -0.000346714
0.0 0.0 -0.000346714
0.0 0.0 -0.000346714
0.0 0.0 -0.00160516
0.0 0.0 -0.00160516
0.0 0.0 -0.00160516
0.0 0.0 -0.000346714
0.0 0.0 -0.00160516
0.0 0.0 -0.00160516
0.0 0.0 -0.000346714
0.0 0.0 -0.000346714
0.0 0.0 -0.000346714
0.0 0.0 -0.000346714
0.0 0.0 -0.000346714
0.0 0.0 -0.00160516
0.0 0.0 -0.000346714
0.0 0.0 -0.000346714
0.0 0.0 -0.00160516
0.0 0.0 -0.00160516
0.0 0.0 -0.00160516
0.0 0.0 -0.00160516
0.0 0.0 -0.000346714
0.0 0.0 -0.000346714
0.0 0.0 -0.000346714
0.0 0.0 -0.000346714
0.0 0.0 -0.00160516
0.0 0.0 -0.00160516
0.0 0.0 -0.000346714
0.0 0.0 -0.00160516
0.0 0.0 -0.000346714
0.0 0.0 -0.000346714
0.0 0.0 -0.00160516
0.0 0.0 -0.000346714
0.0 0.0 -0.00160516
0.0 0.0 -0.000346714
0.0 0.0 -0.000346714
0.0 0.0 -0.000346714
0.0 0.0 -0.000346714
0.0 0.0 -0.00160516
0.0 0.0 -0.000346714
0.0 0.0 -0.000346714
0.0 0.0 -0.000346714
0.0 0.0 -0.00160516
0.0 0.0 -0.000346714
0.0 0.0 -0.00160516
0.0 0.0 -0.000346714
0.0 0.0 -0.000346714
0.0 0.0 -0.000346714
0.0 0.0 -0.00160516
0.0 0.0 -0.000346714
0.0 0.0 -0.000346714
0.0 0.0 -0.000346714
0.0 0.0 -0.000346714
0.0 0.0 -0.000346714
0.0 0.0 -0.000346714
0.0 0.0 -0.00160516
0.0 0.0 -0.00160516
0.0 0.0 -0.000346714
0.0 0.0 -0.00160516
0.0 0.0 -0.000346714
0.0 0.0 -0.000346714
0.0 0.0 -0.000346714
0.0 0.0 -0.00160516
0.0 0.0 -0.000346714
0.0 0.0 -0.000346714
0.0 0.0 -0.000346714
0.0 0.0 -0.00160516
0.0 0.0 -0.000346714
0.0 0.0 -0.000346714
0.0 0.0 -0.000346714
0.0 0.0 -0.000346714
0.0 0.0 -0.00160516
0.0 0.0 -0.00160516
0.0 0.0 -0.000346714
0.0 0.0 -0.000346714
0.0 0.0 -0.00160516
0.0 0.0 -0.000346714
0.0 0.0 -0.00160516
0.0 0.0 -0.00160516
0.0 0.0 -0.00160516
0.0 0.0 -0.000346714
0.0 0.0 -0.000346714
0.0 0.0 -0.00160516
0.0 0.0 -0.000346714
-8.5319e-05 1.33088e-05 -3.59563e-05
5.41959e-05 1.02032e-05 -0.000971107
0.0 0.0 -0.00160516
0.0 0.0 -0.000346714
0.0 0.0 -0.000346714
0.0 0.0 -0.000346714
0.0 0.0 -0.000346714
-8.85847e-05 7.46115e-06 -3.75427e-05
-8.80021e-05 -1.31073e-05 -3.91529e-05
-8.43308e-05 -3.94593e-05 -4.51581e-05
-8.74278e-05 -4.08913e-05 -3.66765e-05
-7.17515e-05 5.05707e-05 -6.46144e-05
-0.000118157 3.94871e-05 2.67547e-05
-0.000125667 4.49967e-05 -0.000688571
-8.79456e-05 2.29063e-05 -3.86516e-05
-0.00010089 8.422e-06 -1.52388e-05
-0.000409776 3.3859e-05 -0.000173791
2.11516e-05 3.81199e-06 6.19507e-06
0.000478918 0.000111191 -0.00347235
2.223e-05 -3.02794e-06 9.06934e-06
0.00010349 -3.50318e-05 3.08646e-05
-8.49254e-05 -3.95624e-05 -4.42022e-05
-8.58786e-05 -4.01227e-05 -4.12007e-05
-8.39722e-05 -3.9038e-05 -4.72236e-05
0.0 0.0 -0.000346714
-8.11371e-05 4.44776e-05 -4.15964e-05
-0.000373314 0.000111818 -0.000228367
-5.16013e-05 1.64408e-05 -0.000141775
-8.85427e-05 7.30393e-06 -3.76025e-05
-8.93478e-05 7.36806e-06 -3.4952e-05
-8.44658e-05 6.94275e-06 -4.67576e-05
0.0 0.0 -0.000346714
-0.000406122 -6.10476e-05 -0.000183319
-0.000381685 -3.42298e-05 -0.0010309
0.0 0.0 -0.000346714
-6.79137e-05 -3.07129e-05 -9.0272e-05
0.0 0.0 -0.000346714
0.0 0.0 -0.000346714
-8.47332e-05 3.80903e-05 -4.56248e-05
-0.000390854 0.000176188 -0.000210295
-0.000364761 9.62292e-05 -0.000288765
-8.76382e-05 2.25045e-05 -3.93087e-05
-0.000374053 2.99172e-05 -0.000266567
2.79219e-07 0.000104936 2.40426e-05
-0.000101503 8.5922e-06 -5.05574e-06
-9.00984e-05 7.31952e-06 -3.33708e-05
-8.78931e-05 -1.33664e-05 -3.9295e-05
-0.000131584 -1.97972e-05 4.33504e-05
-8.70706e-05 -1.196e-05 -3.66554e-05
-9.01342e-05 -1.38785e-05 -2.90802e-05
-9.00862e-05 -4.16947e-05 -2.35776e-05
-3.96839e-05 -6.43528e-05 -0.000892843
0.0 0.0 -0.000346714
-4.89792e-05 2.22423e-05 -0.000123848
-7.91891e-05 3.47998e-05 -6.18546e-05
8.97819e-05 -0.000282233 0.00166034
-4.93121e-05 1.3786e-05 -0.000156647
-8.88497e-05 8.14444e-06 -3.80358e-05
-8.94084e-05 7.01579e-06 -3.86926e-05
-0.000315822 2.5876e-05 -0.000364125
-0.000499017 -7.06322e-05 8.0804e-05
-5.99658e-05 -8.56459e-06 -8.30505e-05
0.0 0.0 -0.000346714
0.0 0.0 -0.000346714
-0.000631997 0.000356885 -0.00115925
0.0 0.0 -0.000346714
-7.75403e-05 2.20899e-05 -5.91031e-05
2.15513e-05 3.48452e-05 1.36328e-05
5.10987e-06 -4.54196e-06 -0.000264851
-0.000526619 4.83344e-05 7.99061e-05
-0.000132924 -4.25056e-05 -0.000888302
-1.21479e-05 8.28003e-06 -0.000132303
-8.79881e-05 2.48427e-05 -3.94873e-05
-0.000376647 0.000102314 -0.000260971
0.0 0.0 -0.000346714
-9.59144e-05 -1.53415e-06 -4.76354e-09
-0.000922747 -0.000330227 0.00069654
0.0 0.0 -0.000346714
0.0 0.0 -0.00160516
-0.000402068 0.000230222 -0.000126384
7.41846e-05 8.92826e-05 0.00079337
0.0 0.0 -0.000346714
0.0 0.0 -0.000346714
0.0 0.0 -0.000346714
-0.000524409 0.000151081 9.73585e-05
0.0 0.0 -0.000346714
0.0 0.0 -0.000346714
-5.77473e-05 -4.81894e-06 -0.000130994
-8.27987e-05 9.33849e-06 -7.37064e-05
0.0 0.0 -0.000346714
0.0 0.0 -0.000346714
0.0 0.0 -0.000346714
0.0 0.0 -0.000346714
0.0 0.0 -0.00160516
0.0 0.0 -0.000346714
-0.000125209 1.63176e-05 7.21189e-05
-8.74133e-05 1.0238e-05 -3.87134e-05
-8.73799e-05 -7.44143e-06 -4.20057e-05
-0.000406024 -3.74272e-05 -0.000179685
-0.00277601 0.000257512 0.00620368
-8.95881e-05 -3.08497e-05 -3.7891e-05
-9.94479e-05 -3.33026e-05 -4.58417e-05
-0.000365448 -0.000379799 -0.000243368
0.0 0.0 -0.000346714
-0.00187099 0.00142985 0.00510202
0.0 0.0 -0.000346714
-5.78794e-05 3.43562e-05 -0.00123044
-8.80449e-05 -6.90445e-06 -3.64024e-05
-0.0159879 -0.00465758 0.0169289
-0.000107666 -5.35763e-05 -7.8066e-05
-0.000410938 -0.000259298 -0.000186402
-0.003491 0.00351785 0.0101879
0.0 0.0 -0.000346714
-0.00124421 0.000363426 0.00215257
0.0 0.0 -0.00160516
-0.000276052 0.000197446 0.000736882
-0.000116853 2.48321e-05 3.01403e-05
-8.63296e-05 1.61322e-05 -3.93629e-05
9.60585e-05 -8.89341e-05 3.67359e-05
-8.01704e-05 -3.86958e-06 -5.20421e-05
-0.000400021 -0.00012568 -0.000178707
-0.000133953 -5.77003e-05 0.00057715
-6.50365e-05 2.43349e-05 -0.000196903
0.0 0.0 -0.000346714
-4.87828e-05 -0.000278354 -0.000348482
1.84938e-05 8.12999e-05 2.49343e-07
0.0 0.0 -0.000346714
0.0 0.0 -0.00160516
0.0 0.0 -0.00160516
-0.000452242 -2.15396e-05 -8.83162e-06
-0.000381319 -0.000215938 -0.000258496
-6.80806e-05 -2.12443e-05 -8.30524e-05
-8.20661e-05 4.37988e-05 -4.65386e-05
-0.000380267 2.42461e-05 -0.000304122
0.0 0.0 -0.00160516
-0.00175929 0.000395181 0.00243106
0.0 0.0 -0.000346714
0.0 0.0 -0.00160516
-8.77774e-05 -1.39196e-06 -3.65141e-05
0.000144299 0.000105532 0.00130062
-0.000403197 -0.000113114 -0.000174441
-8.75301e-05 -2.34513e-05 -4.90493e-05
-8.16921e-05 4.02904e-05 -0.00100833
-8.74528e-05 5.0161e-05 -4.80319e-05
-7.911e-05 2.00056e-05 -5.59564e-05
-0.00101973 0.000268462 0.00123428
-6.38057e-05 -2.91349e-05 2.90263e-05
5.39518e-05 1.51617e-05 2.08383e-06
-8.97808e-05 -2.27843e-05 -3.66137e-05
0.0 0.0 -0.000346714
0.0 0.0 -0.000346714
0.0 0.0 -0.00160516
0.0 0.0 -0.000346714
0.0 0.0 -0.000346714
-8.96032e-05 2.50446e-05 -3.58792e-05
0.0 0.0 -0.00160516
-0.000374806 9.19597e-05 -0.000274999
1.62681e-06 7.10647e-07 -0.000323211
0.0 0.0 -0.00160516
8.61501e-05 0.000183183 -8.60897e-05
0.0 0.0 -0.000346714
-0.000459692 9.94241e-05 0.000570503
-0.000295516 -7.59286e-05 -0.000363148
-0.000410493 -9.04238e-05 -0.0001872
1.72009e-05 4.41458e-06 2.94078e-06
1.46273e-05 1.0225e-05 -1.91461e-05
0.0 0.0 -0.000346714
-9.9359e-05 -4.99254e-05 -1.50834e-05
-2.33667e-05 1.04974e-05 -0.000327505
0.0 0.0 -0.000346714
0.0 0.0 -0.000346714
0.0 0.0 -0.00160516
-8.61023e-05 2.48114e-05 -3.89696e-05
0.0 0.0 -0.000346714
-9.26165e-05 3.72099e-06 1.4401e-05
-8.99309e-05 3.16248e-06 -3.7956e-05
0.0 0.0 -0.00160516
0.0 0.0 -0.000346714
-6.59461e-05 -3.02692e-05 -0.00010276
-4.08968e-05 -1.83958e-06 -0.000295091
0.000115986 0.000105997 -0.000269179
0.0 0.0 -0.00160516
-0.000368215 -8.11362e-05 -0.000279021
0.0 0.0 -0.000346714
0.0 0.0 -0.000346714
-0.000556727 -0.000287565 4.2547e-05
0.0 0.0 -0.000346714
0.0 0.0 -0.00160516
-0.000227721 -0.000504593 -0.000509697
-0.000348082 0.000303853 -0.000261699
0.0 0.0 -0.00160516
0.0 0.0 -0.000346714
-9.50041e-05 2.90132e-05 4.57588e-06
-9.36494e-05 2.68513e-05 -3.05688e-05
2.75648e-05 -1.03896e-05 -0.000364218
-0.000411625 8.07791e-05 -0.000182933
0.0 0.0 -0.000346714
0.0 0.0 -0.00160516
0.0 0.0 -0.00160516
0.0 0.0 -0.000346714
-5.54302e-05 -1.41077e-05 -2.46832e-05
-8.85856e-05 -1.77455e-05 -3.9163e-05
-0.000409857 -8.20272e-05 -0.000183238
-8.06286e-05 -1.56829e-05 -6.23554e-05
0.0 0.0 -0.00160516
0.0 0.0 -0.000346714
-8.62632e-05 1.69997e-05 -4.41208e-05
0.0 0.0 -0.000346714
-0.000450425 -1.64619e-05 0.000871463
0.0 0.0 -0.000346714
-0.000416326 1.78477e-06 -0.000183937
-8.63237e-05 -1.8173e-05 -3.71783e-05
-8.69811e-05 -1.71037e-05 -3.84096e-05
-8.74721e-05 -1.7183e-05 -3.82427e-05
-0.000397508 -0.000182033 -0.000207532
0.0 0.0 -0.00160516
0.0 0.0 -0.00160516
0.0 0.0 -0.00160516
-8.93547e-05 1.18944e-05 -3.87645e-05
0.0 0.0 -0.000346714
0.0 0.0 -0.000346714
-8.63699e-05 -1.81879e-05 -3.69729e-05
0.0 0.0 -0.000346714
-8.50303e-05 -1.78931e-05 -4.02066e-05