# vtk DataFile Version 2.0
Generated by lpp.py
ASCII
DATASET POLYDATA
POINTS 827 float
-0.000330328 0.0145139 0.0536365
-0.0259778 -0.00286041 0.0561028
-0.00262037 0.021756 0.0528231
-0.0337055 0.00352844 0.0523143
-0.0284116 -0.0310219 0.0544038
-0.00444667 -0.00640165 0.0525051
-0.46814 0.00189089 -0.397329
-0.476663 0.0042742 -0.397755
-0.470397 -0.0112764 -0.393269
-0.46063 -0.00754455 -0.393228
-0.45634 -0.00779585 -0.395715
-0.472979 -0.00571864 -0.39652
-0.479573 0.0028453 -0.396244
-0.475637 0.0075878 -0.395451
-0.453093 0.0143804 -0.395529
-0.456774 0.0265721 -0.393011
-0.460869 0.00198876 -0.392428
-0.439599 -0.0204323 -0.389405
-0.47861 -0.000905804 -0.386864
-0.441195 0.00572875 -0.388358
-0.449372 0.00966468 -0.386425
-0.455 0.013306 -0.387115
-0.457645 -0.012084 -0.383103
-0.44773 0.000650641 -0.383513
-0.455129 -0.0127831 -0.379704
-0.466029 -2.22536e-05 -0.379915
-0.465999 0.0370232 -0.381526
-0.477148 -0.0370003 -0.377049
-0.460212 -0.0277956 -0.374982
-0.450116 -0.00496968 -0.377904
-0.444731 0.00498886 -0.374897
-0.444119 -0.00720523 -0.37102
-0.46738 0.00483179 -0.371055
-0.427899 0.0119627 -0.371403
-0.473297 -0.00277038 -0.366006
-0.439443 -0.00252738 -0.36462
-0.443158 -0.0202929 -0.363633
-0.457497 -0.0431781 -0.358433
-0.439373 -0.0115089 -0.356999
-0.444252 -0.00362422 -0.358325
-0.427993 -0.00604044 -0.356958
-0.443744 0.00330607 -0.357601
-0.466044 0.00517954 -0.35843
-0.460856 0.0286957 -0.357611
-0.454133 -0.0115393 -0.35562
-0.435033 -0.00541384 -0.353649
-0.42625 -0.0028385 -0.353412
-0.448215 -0.0146103 -0.34668
-0.437299 -0.000158264 -0.348973
-0.434843 0.00600583 -0.345992
-0.445866 0.00938979 -0.347649
-0.44106 -0.0129969 -0.343064
-0.427598 0.00984146 -0.343416
-0.461162 -0.0257829 -0.338645
-0.423673 -0.00846789 -0.341127
-0.417781 -0.00160969 -0.338188
-0.420393 0.00247426 -0.337413
-0.404214 0.00573171 -0.338429
-0.415104 0.0120387 -0.33842
-0.437167 0.0208889 -0.33635
-0.429765 -0.0134756 -0.333997
-0.390538 0.00521547 -0.332578
-0.424426 0.0110026 -0.334251
-0.441207 -0.0320941 -0.329149
-0.412451 -0.00255967 -0.329231
-0.427688 0.0127165 -0.328071
-0.407992 -0.0119786 -0.324673
-0.413897 0.00803388 -0.325978
-0.418327 0.025758 -0.324745
-0.411548 -0.00547337 -0.32337
-0.40916 0.00235145 -0.322028
-0.411658 0.00835347 -0.32075
-0.426118 -0.0261788 -0.319504
-0.414533 -0.0163239 -0.319754
-0.414881 -0.00496323 -0.320491
-0.42666 -0.00732563 -0.315283
-0.406329 -0.00765624 -0.314146
-0.412768 -0.00590574 -0.314448
-0.41797 -0.00216454 -0.314481
-0.39941 0.00128855 -0.31549
-0.394628 0.00379602 -0.315233
-0.405619 -0.0138397 -0.310778
-0.415749 -0.00856772 -0.312387
-0.413191 -0.00442062 -0.310944
-0.407789 -0.0059839 -0.311195
-0.411029 0.0155382 -0.310537
-0.373886 -0.00541914 -0.308003
-0.412978 0.0064116 -0.30793
-0.403646 -0.000153959 -0.303209
-0.405726 0.00915305 -0.303561
-0.399758 0.00986941 -0.301905
-0.409936 0.0174515 -0.305163
-0.406116 -0.0041653 -0.300855
-0.408216 0.0215701 -0.3019
-0.395526 -0.0126188 -0.294994
-0.38989 -0.0114546 -0.295191
-0.392616 -0.00346066 -0.295938
-0.399601 0.0152547 -0.296438
-0.396246 -0.00877416 -0.29184
-0.3879 -0.000424559 -0.292127
-0.39001 0.00728001 -0.292842
-0.407305 0.0140892 -0.292738
-0.392142 -0.00739437 -0.290096
-0.401978 -0.00265811 -0.287573
-0.410753 -0.0397314 -0.285078
-0.387616 -0.0219547 -0.287733
-0.383337 0.000557819 -0.286595
-0.383315 -0.025093 -0.280601
-0.380618 -0.00346067 -0.282918
-0.378012 -0.002379 -0.279348
-0.380247 0.00121684 -0.280445
-0.38622 0.0161358 -0.282616
-0.385119 0.0244071 -0.280799
-0.386106 -0.0342277 -0.277656
-0.381092 -0.00700634 -0.276678
-0.37131 -0.0198766 -0.27242
-0.371898 -0.00727361 -0.272934
-0.375141 -0.00232991 -0.274731
-0.375495 0.0112513 -0.275733
-0.390752 0.0264539 -0.27621
-0.39578 0.0521639 -0.27486
-0.370298 -0.0152457 -0.26906
-0.378864 -0.0138531 -0.272358
-0.365405 -0.0115574 -0.268987
-0.36979 0.00557204 -0.270047
-0.375375 -0.0237968 -0.267614
-0.363301 -0.00990422 -0.265753
-0.36363 -0.00413674 -0.266014
-0.363756 0.0176218 -0.264885
-0.373897 -0.0438135 -0.262883
-0.357579 -0.00868696 -0.263205
-0.357581 0.00166478 -0.261053
-0.363022 0.0120016 -0.264483
-0.36913 0.0235599 -0.26399
-0.352949 -0.00761605 -0.257783
-0.352977 -0.00136044 -0.259631
-0.35138 0.00168701 -0.257547
-0.360197 -0.0142885 -0.255616
-0.345457 -0.0105795 -0.254751
-0.343258 -0.00725684 -0.253676
-0.351245 -0.00335232 -0.255758
-0.346646 -0.00254384 -0.253194
-0.34994 0.00869121 -0.256144
-0.366483 0.0457164 -0.257465
-0.345606 -0.0245279 -0.250453
-0.339445 -0.0204056 -0.249316
-0.339475 -0.0147194 -0.251215
-0.347121 -0.00874249 -0.250544
-0.343244 -0.00417295 -0.251787
-0.339173 -0.00468995 -0.24998
-0.33897 -4.50302e-05 -0.250122
-0.343317 0.00232833 -0.252761
-0.34241 0.0165036 -0.251022
-0.345991 0.0210464 -0.25265
-0.338612 -0.0134903 -0.247739
-0.334652 -0.00821683 -0.246299
-0.332243 -0.00396349 -0.246301
-0.335428 -0.00354004 -0.248159
-0.335657 0.00125566 -0.247511
-0.328465 0.00589876 -0.244711
-0.335233 0.00688666 -0.248581
-0.335878 0.0119907 -0.247859
-0.334803 0.0187503 -0.245991
-0.330097 -0.019338 -0.243324
-0.332848 -0.0129947 -0.244895
-0.326202 -0.011253 -0.242993
-0.324905 -0.007911 -0.242636
-0.325284 -0.00371718 -0.241975
-0.325633 0.00234081 -0.243395
-0.322855 0.00265708 -0.242023
-0.331603 0.0189792 -0.243159
-0.334796 0.0229249 -0.245094
-0.366329 -0.0536715 -0.243726
-0.334698 -0.0353541 -0.240948
-0.331652 -0.0307161 -0.240872
-0.323283 -0.0232209 -0.239619
-0.324388 -0.0159512 -0.240383
-0.315391 -0.0154923 -0.237843
-0.316434 -0.0102993 -0.237927
-0.319584 -0.00505867 -0.239551
-0.31354 -0.00698224 -0.23807
-0.31867 -0.000105268 -0.240513
-0.332092 0.00133492 -0.239575
-0.313416 0.00232052 -0.238156
-0.314923 0.0049123 -0.238626
-0.323724 0.00778402 -0.241073
-0.319919 0.00904093 -0.240474
-0.313437 0.00746031 -0.237751
-0.322488 0.0113974 -0.239332
-0.319628 0.0120051 -0.240142
-0.327854 0.0270809 -0.240607
-0.33328 0.0297171 -0.242177
-0.31863 -0.0296858 -0.235882
-0.314608 -0.0182957 -0.236951
-0.309375 -0.0154915 -0.23528
-0.312122 -0.0115705 -0.235452
-0.309964 -0.00699625 -0.236593
-0.309467 -0.00358905 -0.236505
-0.313705 -0.00194428 -0.237268
-0.308156 0.00264513 -0.235919
-0.305015 0.00113951 -0.23469
-0.308003 0.00779145 -0.234447
-0.316439 0.0120506 -0.237712
-0.309094 0.0137234 -0.235557
-0.307576 0.0117622 -0.233824
-0.315472 0.0167664 -0.237629
-0.312676 0.0163047 -0.23655
-0.310222 0.0164917 -0.234807
-0.315133 0.0209568 -0.235793
-0.320388 0.032607 -0.235615
-0.30922 -0.0208387 -0.233311
-0.304688 -0.0189565 -0.232752
-0.301359 -0.0162408 -0.231959
-0.301697 -0.00687125 -0.232988
-0.301116 -0.0102932 -0.231655
-0.302225 0.000760614 -0.233538
-0.304845 0.00499344 -0.231685
-0.307172 0.0107781 -0.23051
-0.303649 0.0109954 -0.233491
-0.306468 0.0153084 -0.234153
-0.302284 0.014797 -0.231409
-0.301894 0.0190813 -0.231511
-0.304381 0.0237089 -0.231648
-0.308541 0.0275028 -0.231418
-0.297197 -0.00820461 -0.23005
-0.290446 -0.0105849 -0.228039
-0.310757 -0.00372554 -0.229818
-0.298406 -0.0010849 -0.230843
-0.293885 -0.00339507 -0.228855
-0.297388 0.00253821 -0.229441
-0.295672 0.00576239 -0.230459
-0.293552 0.0103233 -0.227507
-0.2958 0.0164415 -0.228385
-0.307501 0.0320936 -0.230539
-0.315198 0.0393485 -0.231169
-0.335452 0.0548948 -0.228427
-0.281555 -0.00606655 -0.223728
-0.282163 -0.00299832 -0.224888
-0.280532 0.00192683 -0.224319
-0.287283 0.00477675 -0.225897
-0.281664 0.0085465 -0.22438
-0.285949 0.0103722 -0.226062
-0.285308 0.0135066 -0.225603
-0.292266 0.0205347 -0.227226
-0.282954 0.0185582 -0.223734
-0.296614 0.0223943 -0.227563
-0.290069 0.0219211 -0.225504
-0.289826 0.0262327 -0.225169
-0.296606 0.0311644 -0.22528
-0.286638 -0.0206924 -0.223897
-0.282801 -0.0169268 -0.221076
-0.279209 0.00515897 -0.223559
-0.27883 0.00951165 -0.223155
-0.275778 0.00677696 -0.222051
-0.271753 0.00712413 -0.220355
-0.275632 0.0120305 -0.221682
-0.279989 0.0147015 -0.223159
-0.278425 0.0170983 -0.222053
-0.287559 0.0291416 -0.223311
-0.268006 -0.0195075 -0.217456
-0.264451 0.00519563 -0.217375
-0.269651 0.0121339 -0.218112
-0.284622 0.0160795 -0.219966
-0.261678 -0.00617607 -0.21625
-0.263327 -0.000745513 -0.216072
-0.257994 -0.000969534 -0.213825
-0.260528 0.0024556 -0.215459
-0.261929 0.00677995 -0.214705
-0.258046 0.00569157 -0.214637
-0.277584 0.014074 -0.218157
-0.262381 0.0104839 -0.216223
-0.259296 0.0113747 -0.213787
-0.26226 0.0151996 -0.215602
-0.261114 0.0191806 -0.214511
-0.263796 -0.0360718 -0.210386
-0.252759 -0.00857277 -0.211284
-0.252095 -0.00425526 -0.212288
-0.247778 -0.00765343 -0.210303
-0.251299 0.000147905 -0.210945
-0.248453 -0.00324668 -0.21077
-0.250594 0.00436527 -0.211555
-0.257919 0.0160708 -0.212556
-0.273056 -0.0481699 -0.210156
-0.249725 -0.0254287 -0.207505
-0.247907 -0.0165292 -0.208209
-0.245881 -0.00366627 -0.209194
-0.245059 0.00316591 -0.209268
-0.242377 0.000255891 -0.207155
-0.247709 0.00635247 -0.209172
-0.238375 0.0037636 -0.206409
-0.279648 0.00695128 -0.211154
-0.246339 0.0148057 -0.208949
-0.237405 -0.0166261 -0.205084
-0.232322 -0.0167803 -0.20294
-0.23709 -0.0133534 -0.205251
-0.232788 -0.00782024 -0.203335
-0.23152 -0.00368283 -0.203152
-0.23439 -0.00391535 -0.204818
-0.23201 0.000170846 -0.203852
-0.235916 0.00633795 -0.2053
-0.238288 0.0142502 -0.205673
-0.236261 0.0111649 -0.205227
-0.235148 0.0249015 -0.202728
-0.259362 0.0492043 -0.204616
-0.242954 -0.0395477 -0.20196
-0.228083 -0.00587773 -0.201829
-0.223089 0.00422495 -0.199954
-0.234145 0.0175647 -0.202372
-0.231825 0.0216989 -0.201846
-0.23501 0.0295078 -0.201127
-0.221394 -0.018328 -0.198116
-0.22 0.00193285 -0.198715
-0.214189 0.000525618 -0.196272
-0.212667 0.00698451 -0.195544
-0.220004 0.00751307 -0.197524
-0.214944 0.012319 -0.196017
-0.215991 0.0193297 -0.195635
-0.233921 0.0254157 -0.19721
-0.225455 0.0266025 -0.197155
-0.221392 0.0256774 -0.196775
-0.213503 -0.0137997 -0.195235
-0.210447 -0.0111263 -0.193118
[...]
POINT_DATA 827
VECTORS i float
0.0 0.0 0.0
0.0 0.0 0.0
0.0 0.0 0.0
0.0 0.0 0.0
0.0 0.0 0.0
0.0 0.0 0.0
0.0 0.0 0.0
0.0 0.0 0.0
0.0 0.0 0.0
0.0 0.0 0.0
0.0 0.0 0.0
0.0 0.0 0.0
0.0 0.0 0.0
0.0 0.0 0.0
0.0 0.0 0.0
0.0 0.0 0.0
0.0 0.0 0.0
0.0 0.0 0.0
0.0 0.0 0.0
0.0 0.0 0.0
0.0 0.0 0.0
0.0 0.0 0.0
0.0 0.0 0.0
0.0 0.0 0.0
0.0 0.0 0.0
0.0 0.0 0.0
0.0 0.0 0.0
0.0 0.0 0.0
0.0 0.0 0.0
0.0 0.0 0.0
0.0 0.0 0.0
0.0 0.0 0.0
0.0 0.0 0.0
0.0 0.0 0.0
0.0 0.0 0.0
0.0 0.0 0.0
0.0 0.0 0.0
0.0 0.0 0.0
0.0 0.0 0.0
0.0 0.0 0.0
0.0 0.0 0.0
0.0 0.0 0.0
0.0 0.0 0.0
0.0 0.0 0.0
0.0 0.0 0.0
0.0 0.0 0.0
0.0 0.0 0.0
0.0 0.0 0.0
0.0 0.0 0.0
0.0 0.0 0.0
0.0 0.0 0.0
0.0 0.0 0.0
0.0 0.0 0.0
0.0 0.0 0.0
0.0 0.0 0.0
0.0 0.0 0.0
0.0 0.0 0.0
0.0 0.0 0.0
0.0 0.0 0.0
0.0 0.0 0.0
0.0 0.0 0.0
0.0 0.0 0.0
0.0 0.0 0.0
0.0 0.0 0.0
0.0 0.0 0.0
0.0 0.0 0.0
0.0 0.0 0.0
0.0 0.0 0.0
0.0 0.0 0.0
0.0 0.0 0.0
0.0 0.0 0.0
0.0 0.0 0.0
0.0 0.0 0.0
0.0 0.0 0.0
0.0 0.0 0.0
0.0 0.0 0.0
0.0 0.0 0.0
0.0 0.0 0.0
0.0 0.0 0.0
0.0 0.0 0.0
0.0 0.0 0.0
0.0 0.0 0.0
0.0 0.0 0.0
0.0 0.0 0.0
0.0 0.0 0.0
0.0 0.0 0.0
0.0 0.0 0.0
0.0 0.0 0.0
0.0 0.0 0.0
0.0 0.0 0.0
0.0 0.0 0.0
0.0 0.0 0.0
0.0 0.0 0.0
0.0 0.0 0.0
0.0 0.0 0.0
0.0 0.0 0.0
0.0 0.0 0.0
0.0 0.0 0.0
0.0 0.0 0.0
0.0 0.0 0.0
0.0 0.0 0.0
0.0 0.0 0.0
0.0 0.0 0.0
0.0 0.0 0.0
0.0 0.0 0.0
0.0 0.0 0.0
0.0 0.0 0.0
0.0 0.0 0.0
0.0 0.0 0.0
0.0 0.0 0.0
0.0 0.0 0.0
0.0 0.0 0.0
0.0 0.0 0.0
0.0 0.0 0.0
0.0 0.0 0.0
0.0 0.0 0.0
0.0 0.0 0.0
0.0 0.0 0.0
0.0 0.0 0.0
0.0 0.0 0.0
0.0 0.0 0.0
0.0 0.0 0.0
0.0 0.0 0.0
0.0 0.0 0.0
0.0 0.0 0.0
0.0 0.0 0.0
0.0 0.0 0.0
0.0 0.0 0.0
0.0 0.0 0.0
0.0 0.0 0.0
0.0 0.0 0.0
0.0 0.0 0.0
0.0 0.0 0.0
0.0 0.0 0.0
0.0 0.0 0.0
0.0 0.0 0.0
0.0 0.0 0.0
0.0 0.0 0.0
0.0 0.0 0.0
0.0 0.0 0.0
0.0 0.0 0.0
0.0 0.0 0.0
0.0 0.0 0.0
0.0 0.0 0.0
0.0 0.0 0.0
0.0 0.0 0.0
0.0 0.0 0.0
0.0 0.0 0.0
0.0 0.0 0.0
0.0 0.0 0.0
0.0 0.0 0.0
0.0 0.0 0.0
0.0 0.0 0.0
0.0 0.0 0.0
0.0 0.0 0.0
0.0 0.0 0.0
0.0 0.0 0.0
0.0 0.0 0.0
0.0 0.0 0.0
0.0 0.0 0.0
0.0 0.0 0.0
0.0 0.0 0.0
0.0 0.0 0.0
0.0 0.0 0.0
0.0 0.0 0.0
0.0 0.0 0.0
0.0 0.0 0.0
0.0 0.0 0.0
0.0 0.0 0.0
0.0 0.0 0.0
0.0 0.0 0.0
0.0 0.0 0.0
0.0 0.0 0.0
0.0 0.0 0.0
0.0 0.0 0.0
0.0 0.0 0.0
0.0 0.0 0.0
0.0 0.0 0.0
0.0 0.0 0.0
0.0 0.0 0.0
0.0 0.0 0.0
0.0 0.0 0.0
0.0 0.0 0.0
0.0 0.0 0.0
0.0 0.0 0.0
0.0 0.0 0.0
0.0 0.0 0.0
0.0 0.0 0.0
0.0 0.0 0.0
0.0 0.0 0.0
0.0 0.0 0.0
0.0 0.0 0.0
0.0 0.0 0.0
0.0 0.0 0.0
0.0 0.0 0.0
0.0 0.0 0.0
0.0 0.0 0.0
0.0 0.0 0.0
0.0 0.0 0.0
0.0 0.0 0.0
0.0 0.0 0.0
0.0 0.0 0.0
0.0 0.0 0.0
0.0 0.0 0.0
0.0 0.0 0.0
0.0 0.0 0.0
0.0 0.0 0.0
0.0 0.0 0.0
0.0 0.0 0.0
0.0 0.0 0.0
0.0 0.0 0.0
0.0 0.0 0.0
0.0 0.0 0.0
0.0 0.0 0.0
0.0 0.0 0.0
0.0 0.0 0.0
0.0 0.0 0.0
0.0 0.0 0.0
0.0 0.0 0.0
0.0 0.0 0.0
0.0 0.0 0.0
0.0 0.0 0.0
0.0 0.0 0.0
0.0 0.0 0.0
0.0 0.0 0.0
0.0 0.0 0.0
0.0 0.0 0.0
0.0 0.0 0.0
0.0 0.0 0.0
0.0 0.0 0.0
0.0 0.0 0.0
0.0 0.0 0.0
0.0 0.0 0.0
0.0 0.0 0.0
0.0 0.0 0.0
0.0 0.0 0.0
0.0 0.0 0.0
0.0 0.0 0.0
0.0 0.0 0.0
0.0 0.0 0.0
0.0 0.0 0.0
0.0 0.0 0.0
0.0 0.0 0.0
0.0 0.0 0.0
0.0 0.0 0.0
0.0 0.0 0.0
0.0 0.0 0.0
0.0 0.0 0.0
0.0 0.0 0.0
0.0 0.0 0.0
0.0 0.0 0.0
0.0 0.0 0.0
0.0 0.0 0.0
0.0 0.0 0.0
0.0 0.0 0.0
0.0 0.0 0.0
0.0 0.0 0.0
0.0 0.0 0.0
0.0 0.0 0.0
0.0 0.0 0.0
0.0 0.0 0.0
0.0 0.0 0.0
0.0 0.0 0.0
0.0 0.0 0.0
0.0 0.0 0.0
0.0 0.0 0.0
0.0 0.0 0.0
0.0 0.0 0.0
0.0 0.0 0.0
0.0 0.0 0.0
0.0 0.0 0.0
0.0 0.0 0.0
0.0 0.0 0.0
0.0 0.0 0.0
0.0 0.0 0.0
0.0 0.0 0.0
0.0 0.0 0.0
0.0 0.0 0.0
0.0 0.0 0.0
0.0 0.0 0.0
0.0 0.0 0.0
0.0 0.0 0.0
0.0 0.0 0.0
0.0 0.0 0.0
0.0 0.0 0.0
0.0 0.0 0.0
0.0 0.0 0.0
0.0 0.0 0.0
0.0 0.0 0.0
0.0 0.0 0.0
0.0 0.0 0.0
0.0 0.0 0.0
0.0 0.0 0.0
0.0 0.0 0.0
0.0 0.0 0.0
0.0 0.0 0.0
0.0 0.0 0.0
0.0 0.0 0.0
0.0 0.0 0.0
0.0 0.0 0.0
0.0 0.0 0.0
0.0 0.0 0.0
0.0 0.0 0.0
0.0 0.0 0.0
0.0 0.0 0.0
0.0 0.0 0.0
0.0 0.0 0.0
0.0 0.0 0.0
0.0 0.0 0.0
0.0 0.0 0.0
0.0 0.0 0.0
0.0 0.0 0.0
0.0 0.0 0.0
0.0 0.0 0.0
0.0 0.0 0.0
0.0 0.0 0.0
0.0 0.0 0.0
0.0 0.0 0.0
0.0 0.0 0.0
0.0 0.0 0.0
0.0 0.0 0.0
0.0 0.0 0.0
0.0 0.0 0.0
0.0 0.0 0.0
0.0 0.0 0.0
0.0 0.0 0.0
0.0 0.0 0.0
0.0 0.0 0.0
0.0 0.0 0.0
0.0 0.0 0.0
0.0 0.0 0.0
0.0 0.0 0.0
0.0 0.0 0.0
0.0 0.0 0.0
0.0 0.0 0.0
0.0 0.0 0.0
0.0 0.0 0.0
0.0 0.0 0.0
0.0 0.0 0.0
0.0 0.0 0.0
0.0 0.0 0.0
0.0 0.0 0.0
0.0 0.0 0.0
0.0 0.0 0.0
0.0 0.0 0.0
0.0 0.0 0.0
0.0 0.0 0.0
0.0 0.0 0.0
0.0 0.0 0.0
0.0 0.0 0.0
0.0 0.0 0.0
0.0 0.0 0.0
0.0 0.0 0.0
0.0 0.0 0.0
0.0 0.0 0.0
0.0 0.0 0.0
0.0 0.0 0.0
0.0 0.0 0.0
0.0 0.0 0.0
0.0 0.0 0.0
0.0 0.0 0.0
0.0 0.0 0.0
0.0 0.0 0.0
0.0 0.0 0.0
0.0 0.0 0.0
0.0 0.0 0.0
0.0 0.0 0.0
0.0 0.0 0.0
0.0 0.0 0.0
0.0 0.0 0.0
0.0 0.0 0.0
0.0 0.0 0.0
0.0 0.0 0.0
0.0 0.0 0.0
0.0 0.0 0.0
0.0 0.0 0.0
0.0 0.0 0.0
0.0 0.0 0.0
0.0 0.0 0.0
0.0 0.0 0.0
0.0 0.0 0.0
0.0 0.0 0.0
0.0 0.0 0.0
0.0 0.0 0.0
0.0 0.0 0.0
0.0 0.0 0.0
0.0 0.0 0.0
0.0 0.0 0.0
0.0 0.0 0.0
0.0 0.0 0.0
0.0 0.0 0.0
0.0 0.0 0.0
0.0 0.0 0.0
0.0 0.0 0.0
0.0 0.0 0.0
0.0 0.0 0.0
0.0 0.0 0.0
0.0 0.0 0.0
0.0 0.0 0.0
0.0 0.0 0.0
0.0 0.0 0.0
0.0 0.0 0.0
0.0 0.0 0.0
0.0 0.0 0.0
0.0 0.0 0.0
0.0 0.0 0.0
0.0 0.0 0.0
0.0 0.0 0.0
0.0 0.0 0.0
0.0 0.0 0.0
0.0 0.0 0.0
0.0 0.0 0.0
0.0 0.0 0.0
0.0 0.0 0.0
0.0 0.0 0.0
0.0 0.0 0.0
0.0 0.0 0.0
0.0 0.0 0.0
0.0 0.0 0.0
0.0 0.0 0.0
0.0 0.0 0.0
0.0 0.0 0.0
0.0 0.0 0.0
0.0 0.0 0.0
0.0 0.0 0.0
0.0 0.0 0.0
0.0 0.0 0.0
0.0 0.0 0.0
0.0 0.0 0.0
0.0 0.0 0.0
0.0 0.0 0.0
0.0 0.0 0.0
0.0 0.0 0.0
0.0 0.0 0.0
0.0 0.0 0.0
0.0 0.0 0.0
0.0 0.0 0.0
0.0 0.0 0.0
0.0 0.0 0.0
0.0 0.0 0.0
0.0 0.0 0.0
0.0 0.0 0.0
0.0 0.0 0.0
0.0 0.0 0.0
0.0 0.0 0.0
0.0 0.0 0.0
0.0 0.0 0.0
0.0 0.0 0.0
0.0 0.0 0.0
0.0 0.0 0.0
0.0 0.0 0.0
0.0 0.0 0.0
0.0 0.0 0.0
0.0 0.0 0.0
0.0 0.0 0.0
0.0 0.0 0.0
0.0 0.0 0.0
0.0 0.0 0.0
0.0 0.0 0.0
0.0 0.0 0.0
0.0 0.0 0.0
0.0 0.0 0.0
0.0 0.0 0.0
0.0 0.0 0.0
0.0 0.0 0.0
0.0 0.0 0.0
0.0 0.0 0.0
0.0 0.0 0.0
0.0 0.0 0.0
0.0 0.0 0.0
0.0 0.0 0.0
0.0 0.0 0.0
0.0 0.0 0.0
0.0 0.0 0.0
0.0 0.0 0.0
0.0 0.0 0.0
0.0 0.0 0.0
0.0 0.0 0.0
0.0 0.0 0.0
0.0 0.0 0.0
0.0 0.0 0.0
0.0 0.0 0.0
0.0 0.0 0.0
0.0 0.0 0.0
0.0 0.0 0.0
0.0 0.0 0.0
0.0 0.0 0.0
0.0 0.0 0.0
0.0 0.0 0.0
0.0 0.0 0.0
0.0 0.0 0.0
0.0 0.0 0.0
0.0 0.0 0.0
0.0 0.0 0.0
0.0 0.0 0.0
0.0 0.0 0.0
0.0 0.0 0.0
0.0 0.0 0.0
0.0 0.0 0.0
0.0 0.0 0.0
0.0 0.0 0.0
0.0 0.0 0.0
0.0 0.0 0.0
0.0 0.0 0.0
0.0 0.0 0.0
0.0 0.0 0.0
0.0 0.0 0.0
0.0 0.0 0.0
0.0 0.0 0.0
0.0 0.0 0.0
0.0 0.0 0.0
0.0 0.0 0.0
0.0 0.0 0.0
0.0 0.0 0.0
0.0 0.0 0.0
0.0 0.0 0.0
0.0 0.0 0.0
0.0 0.0 0.0
0.0 0.0 0.0
0.0 0.0 0.0
0.0 0.0 0.0
0.0 0.0 0.0
0.0 0.0 0.0
0.0 0.0 0.0
0.0 0.0 0.0
0.0 0.0 0.0
0.0 0.0 0.0
0.0 0.0 0.0
0.0 0.0 0.0
0.0 0.0 0.0
0.0 0.0 0.0
0.0 0.0 0.0
0.0 0.0 0.0
0.0 0.0 0.0
0.0 0.0 0.0
0.0 0.0 0.0
0.0 0.0 0.0
0.0 0.0 0.0
0.0 0.0 0.0
0.0 0.0 0.0
0.0 0.0 0.0
0.0 0.0 0.0
0.0 0.0 0.0
0.0 0.0 0.0
0.0 0.0 0.0
0.0 0.0 0.0
0.0 0.0 0.0
0.0 0.0 0.0
0.0 0.0 0.0
0.0 0.0 0.0
0.0 0.0 0.0
0.0 0.0 0.0
0.0 0.0 0.0
0.0 0.0 0.0
0.0 0.0 0.0
0.0 0.0 0.0
0.0 0.0 0.0
0.0 0.0 0.0
0.0 0.0 0.0
0.0 0.0 0.0
0.0 0.0 0.0
0.0 0.0 0.0
0.0 0.0 0.0
0.0 0.0 0.0
0.0 0.0 0.0
0.0 0.0 0.0
0.0 0.0 0.0
0.0 0.0 0.0
0.0 0.0 0.0
0.0 0.0 0.0
0.0 0.0 0.0
0.0 0.0 0.0
0.0 0.0 0.0
0.0 0.0 0.0
0.0 0.0 0.0
0.0 0.0 0.0
0.0 0.0 0.0
0.0 0.0 0.0
0.0 0.0 0.0
0.0 0.0 0.0
0.0 0.0 0.0
0.0 0.0 0.0
0.0 0.0 0.0
0.0 0.0 0.0
0.0 0.0 0.0
0.0 0.0 0.0
0.0 0.0 0.0
0.0 0.0 0.0
0.0 0.0 0.0
0.0 0.0 0.0
0.0 0.0 0.0
0.0 0.0 0.0
0.0 0.0 0.0
0.0 0.0 0.0
0.0 0.0 0.0
0.0 0.0 0.0
0.0 0.0 0.0
0.0 0.0 0.0
0.0 0.0 0.0
0.0 0.0 0.0
0.0 0.0 0.0
0.0 0.0 0.0
0.0 0.0 0.0
0.0 0.0 0.0
0.0 0.0 0.0
0.0 0.0 0.0
0.0 0.0 0.0
0.0 0.0 0.0
0.0 0.0 0.0
0.0 0.0 0.0
0.0 0.0 0.0
0.0 0.0 0.0
0.0 0.0 0.0
0.0 0.0 0.0
0.0 0.0 0.0
0.0 0.0 0.0
0.0 0.0 0.0
0.0 0.0 0.0
0.0 0.0 0.0
0.0 0.0 0.0
0.0 0.0 0.0
0.0 0.0 0.0
0.0 0.0 0.0
0.0 0.0 0.0
0.0 0.0 0.0
0.0 0.0 0.0
0.0 0.0 0.0
0.0 0.0 0.0
0.0 0.0 0.0
0.0 0.0 0.0
0.0 0.0 0.0
0.0 0.0 0.0
0.0 0.0 0.0
0.0 0.0 0.0
0.0 0.0 0.0
0.0 0.0 0.0
0.0 0.0 0.0
0.0 0.0 0.0
0.0 0.0 0.0
0.0 0.0 0.0
0.0 0.0 0.0
0.0 0.0 0.0
0.0 0.0 0.0
0.0 0.0 0.0
0.0 0.0 0.0
0.0 0.0 0.0
0.0 0.0 0.0
0.0 0.0 0.0
0.0 0.0 0.0
0.0 0.0 0.0
0.0 0.0 0.0
0.0 0.0 0.0
0.0 0.0 0.0
0.0 0.0 0.0
0.0 0.0 0.0
0.0 0.0 0.0
0.0 0.0 0.0
0.0 0.0 0.0
0.0 0.0 0.0
0.0 0.0 0.0
0.0 0.0 0.0
0.0 0.0 0.0
0.0 0.0 0.0
0.0 0.0 0.0
0.0 0.0 0.0
0.0 0.0 0.0
0.0 0.0 0.0
0.0 0.0 0.0
0.0 0.0 0.0
0.0 0.0 0.0
0.0 0.0 0.0
0.0 0.0 0.0
0.0 0.0 0.0
0.0 0.0 0.0
0.0 0.0 0.0
0.0 0.0 0.0
0.0 0.0 0.0
0.0 0.0 0.0
0.0 0.0 0.0
0.0 0.0 0.0
0.0 0.0 0.0
0.0 0.0 0.0
0.0 0.0 0.0
0.0 0.0 0.0
0.0 0.0 0.0
0.0 0.0 0.0
0.0 0.0 0.0
0.0 0.0 0.0
0.0 0.0 0.0
0.0 0.0 0.0
0.0 0.0 0.0
0.0 0.0 0.0
0.0 0.0 0.0
0.0 0.0 0.0
0.0 0.0 0.0
0.0 0.0 0.0
0.0 0.0 0.0
0.0 0.0 0.0
0.0 0.0 0.0
0.0 0.0 0.0
0.0 0.0 0.0
0.0 0.0 0.0
0.0 0.0 0.0
0.0 0.0 0.0
0.0 0.0 0.0
0.0 0.0 0.0
0.0 0.0 0.0
0.0 0.0 0.0
0.0 0.0 0.0
0.0 0.0 0.0
0.0 0.0 0.0
0.0 0.0 0.0
0.0 0.0 0.0
0.0 0.0 0.0
0.0 0.0 0.0
0.0 0.0 0.0
0.0 0.0 0.0
0.0 0.0 0.0
0.0 0.0 0.0
0.0 0.0 0.0
0.0 0.0 0.0
0.0 0.0 0.0
0.0 0.0 0.0
0.0 0.0 0.0
0.0 0.0 0.0
0.0 0.0 0.0
0.0 0.0 0.0
0.0 0.0 0.0
0.0 0.0 0.0
0.0 0.0 0.0
0.0 0.0 0.0
0.0 0.0 0.0
0.0 0.0 0.0
0.0 0.0 0.0
0.0 0.0 0.0
0.0 0.0 0.0
0.0 0.0 0.0
0.0 0.0 0.0
0.0 0.0 0.0
0.0 0.0 0.0
0.0 0.0 0.0
0.0 0.0 0.0
0.0 0.0 0.0
0.0 0.0 0.0
0.0 0.0 0.0
0.0 0.0 0.0
0.0 0.0 0.0
0.0 0.0 0.0
0.0 0.0 0.0
0.0 0.0 0.0
0.0 0.0 0.0
0.0 0.0 0.0
0.0 0.0 0.0
0.0 0.0 0.0
0.0 0.0 0.0
0.0 0.0 0.0
0.0 0.0 0.0
0.0 0.0 0.0
0.0 0.0 0.0
0.0 0.0 0.0
0.0 0.0 0.0
0.0 0.0 0.0
0.0 0.0 0.0
0.0 0.0 0.0
0.0 0.0 0.0
0.0 0.0 0.0
0.0 0.0 0.0
0.0 0.0 0.0
0.0 0.0 0.0
0.0 0.0 0.0
0.0 0.0 0.0
0.0 0.0 0.0
0.0 0.0 0.0
0.0 0.0 0.0
0.0 0.0 0.0
0.0 0.0 0.0
0.0 0.0 0.0
0.0 0.0 0.0
0.0 0.0 0.0
0.0 0.0 0.0
0.0 0.0 0.0
0.0 0.0 0.0
0.0 0.0 0.0
0.0 0.0 0.0
0.0 0.0 0.0
0.0 0.0 0.0
0.0 0.0 0.0
0.0 0.0 0.0
0.0 0.0 0.0
0.0 0.0 0.0
0.0 0.0 0.0
0.0 0.0 0.0
0.0 0.0 0.0
0.0 0.0 0.0
0.0 0.0 0.0
0.0 0.0 0.0
0.0 0.0 0.0
0.0 0.0 0.0
0.0 0.0 0.0
0.0 0.0 0.0
0.0 0.0 0.0
0.0 0.0 0.0
0.0 0.0 0.0
0.0 0.0 0.0
0.0 0.0 0.0
0.0 0.0 0.0
0.0 0.0 0.0
0.0 0.0 0.0
0.0 0.0 0.0
0.0 0.0 0.0
0.0 0.0 0.0
0.0 0.0 0.0
0.0 0.0 0.0
0.0 0.0 0.0
0.0 0.0 0.0
0.0 0.0 0.0
0.0 0.0 0.0
0.0 0.0 0.0
0.0 0.0 0.0
0.0 0.0 0.0
0.0 0.0 0.0
0.0 0.0 0.0
0.0 0.0 0.0
0.0 0.0 0.0
0.0 0.0 0.0
0.0 0.0 0.0
0.0 0.0 0.0
VECTORS f float
0.0 0.0 0.0
0.0 0.0 0.0
0.0 0.0 0.0
0.0 0.0 0.0
0.0 0.0 0.0
0.0 0.0 0.0
0.0 0.0 -0.00160516
0.0 0.0 -0.000346714
0.0 0.0 -0.000346714
0.0 0.0 -0.00160516
0.0 0.0 -0.000346714
0.0 0.0 -0.000346714
0.0 0.0 -0.000346714
0.0 0.0 -0.000346714
0.0 0.0 -0.000346714
0.0 0.0 -0.000346714
0.0 0.0 -0.00160516
0.0 0.0 -0.00160516
0.0 0.0 -0.00160516
0.0 0.0 -0.000346714
0.0 0.0 -0.000346714
0.0 0.0 -0.00160516
0.0 0.0 -0.000346714
0.0 0.0 -0.000346714
0.0 0.0 -0.00160516
0.0 0.0 -0.00160516
0.0 0.0 -0.000346714
0.0 0.0 -0.000346714
0.0 0.0 -0.000346714
0.0 0.0 -0.000346714
0.0 0.0 -0.000346714
0.0 0.0 -0.000346714
0.0 0.0 -0.00160516
0.0 0.0 -0.000346714
0.0 0.0 -0.00160516
0.0 0.0 -0.000346714
0.0 0.0 -0.00160516
0.0 0.0 -0.00160516
0.0 0.0 -0.000346714
0.0 0.0 -0.000346714
0.0 0.0 -0.000346714
0.0 0.0 -0.00160516
0.0 0.0 -0.000346714
0.0 0.0 -0.00160516
0.0 0.0 -0.000346714
0.0 0.0 -0.000346714
0.0 0.0 -0.000346714
0.0 0.0 -0.00160516
0.0 0.0 -0.000346714
0.0 0.0 -0.00160516
0.0 0.0 -0.00160516
0.0 0.0 -0.000346714
0.0 0.0 -0.000346714
0.0 0.0 -0.000346714
0.0 0.0 -0.00160516
0.0 0.0 -0.00160516
0.0 0.0 -0.000346714
0.0 0.0 -0.000346714
0.0 0.0 -0.000346714
0.0 0.0 -0.00160516
0.0 0.0 -0.00160516
0.0 0.0 -0.000346714
0.0 0.0 -0.000346714
0.0 0.0 -0.000346714
0.0 0.0 -0.000346714
0.0 0.0 -0.000346714
0.0 0.0 -0.000346714
0.0 0.0 -0.000346714
0.0 0.0 -0.000346714
0.0 0.0 -0.000346714
0.0 0.0 -0.000346714
0.0 0.0 -0.00160516
0.0 0.0 -0.000346714
0.0 0.0 -0.00160516
0.0 0.0 -0.000346714
0.0 0.0 -0.00160516
0.0 0.0 -0.000346714
0.0 0.0 -0.000346714
0.0 0.0 -0.00160516
0.0 0.0 -0.00160516
0.0 0.0 -0.000346714
0.0 0.0 -0.00160516
0.0 0.0 -0.000346714
0.0 0.0 -0.000346714
0.0 0.0 -0.000346714
0.0 0.0 -0.000346714
0.0 0.0 -0.000346714
0.0 0.0 -0.00160516
0.0 0.0 -0.00160516
0.0 0.0 -0.000346714
0.0 0.0 -0.00160516
0.0 0.0 -0.00160516
0.0 0.0 -0.000346714
0.0 0.0 -0.00160516
0.0 0.0 -0.000346714
0.0 0.0 -0.000346714
0.0 0.0 -0.000346714
0.0 0.0 -0.000346714
0.0 0.0 -0.000346714
0.0 0.0 -0.00160516
0.0 0.0 -0.00160516
0.0 0.0 -0.00160516
0.0 0.0 -0.00160516
0.0 0.0 -0.00160516
0.0 0.0 -0.000346714
0.0 0.0 -0.00160516
0.0 0.0 -0.00160516
0.0 0.0 -0.000346714
0.0 0.0 -0.000346714
0.0 0.0 -0.000346714
0.0 0.0 -0.00160516
0.0 0.0 -0.00160516
0.0 0.0 -0.000346714
0.0 0.0 -0.000346714
0.0 0.0 -0.00160516
0.0 0.0 -0.00160516
0.0 0.0 -0.00160516
0.0 0.0 -0.00160516
0.0 0.0 -0.000346714
0.0 0.0 -0.00160516
0.0 0.0 -0.000346714
0.0 0.0 -0.000346714
0.0 0.0 -0.00160516
0.0 0.0 -0.000346714
0.0 0.0 -0.000346714
0.0 0.0 -0.000346714
0.0 0.0 -0.00160516
0.0 0.0 -0.000346714
0.0 0.0 -0.000346714
0.0 0.0 -0.000346714
0.0 0.0 -0.000346714
0.0 0.0 -0.00160516
0.0 0.0 -0.00160516
0.0 0.0 -0.000346714
0.0 0.0 -0.00160516
0.0 0.0 -0.000346714
0.0 0.0 -0.00160516
0.0 0.0 -0.00160516
0.0 0.0 -0.000346714
0.0 0.0 -0.000346714
0.0 0.0 -0.00160516
0.0 0.0 -0.00160516
0.0 0.0 -0.00160516
0.0 0.0 -0.000346714
0.0 0.0 -0.000346714
0.0 0.0 -0.000346714
0.0 0.0 -0.000346714
0.0 0.0 -0.00160516
0.0 0.0 -0.000346714
0.0 0.0 -0.000346714
0.0 0.0 -0.000346714
0.0 0.0 -0.000346714
0.0 0.0 -0.000346714
0.0 0.0 -0.00160516
0.0 0.0 -0.000346714
0.0 0.0 -0.00160516
0.0 0.0 -0.000346714
0.0 0.0 -0.000346714
0.0 0.0 -0.00160516
0.0 0.0 -0.000346714
0.0 0.0 -0.000346714
0.0 0.0 -0.000346714
0.0 0.0 -0.000346714
0.0 0.0 -0.000346714
0.0 0.0 -0.00160516
0.0 0.0 -0.000346714
0.0 0.0 -0.000346714
0.0 0.0 -0.00160516
0.0 0.0 -0.000346714
0.0 0.0 -0.000346714
0.0 0.0 -0.00160516
0.0 0.0 -0.000346714
0.0 0.0 -0.000346714
0.0 0.0 -0.000346714
0.0 0.0 -0.000346714
0.0 0.0 -0.000346714
0.0 0.0 -0.00160516
-7.62776e-05 -0.000123907 9.43586e-05
0.000267801 9.7371e-05 0.00556541
-0.00057638 8.87296e-05 0.000210754
-4.23607e-05 7.52143e-06 -7.26681e-05
2.29786e-05 1.28384e-05 9.24224e-06
0.0 0.0 -0.000346714
-0.000105508 -1.58311e-05 1.3226e-05
2.03433e-05 -1.22637e-05 -3.37144e-05
0.0 0.0 -0.00160516
-0.000419142 0.000746687 0.00112165
0.0 0.0 -0.000346714
0.0 0.0 -0.000346714
-1.83505e-05 -0.000100249 -0.000310042
0.0 0.0 -0.000346714
0.0 0.0 -0.000346714
0.0 0.0 -0.000346714
0.0 0.0 -0.000346714
-8.37477e-05 2.8563e-05 -3.81504e-05
0.0 0.0 -0.00160516
2.10428e-05 3.94084e-05 7.47351e-06
-8.86036e-05 7.46335e-06 -3.74824e-05
0.000100768 0.000152974 3.67994e-05
-8.83174e-05 -1.31768e-05 -3.80235e-05
-8.82625e-05 -1.31654e-05 -3.82139e-05
9.29702e-05 3.83736e-05 4.3382e-06
0.0 0.0 -0.00160516
2.76312e-05 -8.64581e-05 1.93386e-05
0.0 0.0 -0.000346714
3.50815e-05 -7.56262e-05 0.000128072
3.83063e-05 -6.77858e-05 0.000195653
0.0 0.0 -0.000346714
0.0 0.0 -0.000346714
-7.1787e-05 -5.9266e-05 -8.46259e-05
-0.00347405 0.00182603 0.00732571
0.0 0.0 -0.000346714
0.0 0.0 -0.000346714
0.0 0.0 -0.000346714
0.0 0.0 -0.000346714
-8.91376e-05 -1.32847e-05 -3.64647e-05
0.0 0.0 -0.00160516
0.0 0.0 -0.000346714
-9.0503e-05 -1.36529e-05 -3.6147e-05
-8.52191e-05 -3.97271e-05 -4.33357e-05
-0.000389518 -0.000180167 -0.000227154
2.53995e-05 -8.04213e-05 -8.89582e-06
-8.53143e-05 -3.97994e-05 -4.32139e-05
-0.000401627 -0.000342252 -0.000158271
-0.000405077 0.000104755 -0.000183052
-8.62601e-05 2.22054e-05 -4.32365e-05
0.0 0.0 -0.00160516
-0.000541172 -0.00041296 -0.000592299
-0.000411625 3.32698e-05 -0.000171224
0.0 0.0 -0.000346714
-8.74293e-05 -1.30771e-05 -4.08796e-05
0.0 0.0 -0.00160516
-0.000394218 -0.000185359 -0.000189252
0.0 0.0 -0.000346714
5.2362e-05 4.69457e-05 -0.000413415
0.0 0.0 -0.00160516
0.0 0.0 -0.000346714
0.0 0.0 -0.000346714
-8.06801e-05 -1.34897e-05 -4.13448e-05
-0.000402078 -6.11244e-05 -0.000193288
-8.70951e-05 -1.1963e-05 -3.66188e-05
-0.000169173 -2.5349e-05 0.000118213
-4.47411e-05 -6.99925e-06 -2.53281e-05
1.22173e-05 9.5234e-06 8.31521e-06
1.84464e-05 -2.92248e-05 -2.6517e-05
4.48032e-08 9.84907e-08 -0.00160257
0.0 0.0 -0.000346714
0.0 0.0 -0.000346714
0.0 0.0 -0.00160516
-0.00039151 0.00017729 -0.000201108
0.0 0.0 -0.00160516
-8.61448e-05 -1.18332e-05 -3.88552e-05
-5.00793e-05 -6.87264e-06 -0.000122545
-0.000100752 -1.37356e-05 -1.15863e-05
-7.38627e-05 -8.72365e-06 -8.12917e-05
0.0 0.0 -0.000346714
9.48629e-06 4.18047e-06 8.19447e-06
0.0 0.0 -0.000346714
0.0 0.0 -0.000346714
-2.8974e-05 1.60517e-05 -8.84329e-05
-0.000113792 -2.4464e-05 -0.000103151
-0.000397722 -0.000148975 -0.000202064
0.0 0.0 -0.00160516
-8.89512e-05 9.27179e-06 -3.7894e-05
-2.43399e-05 5.0466e-05 -5.77947e-05
-0.000357796 3.13957e-05 -0.000334377
0.0 0.0 -0.000346714
0.0 0.0 -0.00160516
-8.96306e-05 -9.43665e-06 -3.35541e-05
0.0 0.0 -0.00160516
0.0 0.0 -0.000346714
0.0 0.0 -0.00160516
-9.24067e-05 -3.56692e-05 -1.34187e-05
-9.37364e-05 -3.6128e-05 -1.09309e-05
0.0 0.0 -0.00160516
-0.000408919 4.76193e-05 -0.000180658
2.26244e-05 -6.36192e-06 1.35659e-05
2.17365e-05 7.96041e-07 1.02712e-05
-0.0004429 -4.3283e-05 -0.000109925
0.0 0.0 -0.000346714
-5.57804e-05 -5.31454e-06 -0.000112588
-0.000216774 -8.15054e-05 -0.000470264
0.0 0.0 -0.000346714
0.0 0.0 -0.00160516
0.0 0.0 -0.00160516
0.0 0.0 -0.000346714
-5.99451e-05 -5.11495e-06 -0.000120008
-0.000424482 -3.61906e-05 -0.000145813
-0.000413166 -3.81353e-05 -0.000163684
4.06527e-05 6.67974e-06 -0.000400814
0.0 0.0 -0.00160516
0.0 0.0 -0.000346714
0.0 0.0 -0.000346714
-8.90007e-05 1.87997e-05 -3.96806e-05
0.0 0.0 -0.000346714
0.0 0.0 -0.000346714
0.0 0.0 -0.000346714
0.000233898 -4.89823e-05 -0.000551221
-0.000154287 -7.85185e-06 1.70723e-05
-8.81358e-05 -6.91321e-06 -3.6168e-05
-8.78473e-05 -2.78758e-05 -4.11029e-05
-8.7014e-05 -2.75797e-05 -4.33831e-05
0.0 0.0 -0.000346714
0.000106832 0.000166349 -0.000731241
-0.000260956 0.000200525 -0.00015392
0.0 0.0 -0.000346714
-8.78032e-05 -4.20235e-06 -3.64885e-05
5.81839e-05 0.000130824 0.000678498
0.0 0.0 -0.000346714
0.0 0.0 -0.000346714
0.0 0.0 -0.000346714
-0.000118895 -5.61221e-06 2.73393e-05
-8.60726e-05 -2.33682e-06 -4.79097e-05
0.000945287 4.46027e-07 -0.00193544
-0.000411384 -1.97329e-05 -0.000150878
-8.83825e-05 -2.48265e-05 -3.48502e-05
-8.64123e-05 -2.43121e-05 -3.85342e-05
0.0 0.0 -0.00160516
8.60737e-05 -0.000169824 -0.000208315
0.0 0.0 -0.000346714
-9.15682e-05 2.23014e-05 -3.42246e-05
-0.0012998 0.000308441 0.00162778
9.31735e-05 0.000146161 0.000915583
-0.000377087 9.59318e-05 -0.000227445
-0.00011955 3.6734e-05 -0.0016586
0.0 0.0 -0.000346714
-0.000409524 -0.000103724 -0.000187502
-9.79553e-05 -2.89445e-05 -7.40573e-05
-6.68745e-05 -5.70158e-05 -8.87571e-05
-0.00138837 0.000792434 0.00190958
-8.85062e-05 2.44837e-05 -4.07753e-05
5.70531e-06 -3.133e-05 6.86537e-06
0.0 0.0 -0.000346714
-0.000125601 -1.93915e-05 -0.000293988
0.0 0.0 -0.000346714
-7.92899e-05 3.12039e-07 -6.222e-05
-0.000365108 -5.87617e-06 -0.00026763
0.0 0.0 -0.00160516
-0.000529908 -0.000131552 0.000115014
-8.30724e-05 -4.49855e-05 -4.3794e-05
-6.40551e-05 -9.50192e-05 -7.61055e-05
-0.00113656 0.000328783 0.00138459
-0.00188709 0.000270711 0.00428583
0.0 0.0 -0.000346714
-0.0146516 -0.00358865 0.0131519
0.0 0.0 -0.000346714
-7.75609e-05 5.40952e-06 -0.000795931
0.0 0.0 -0.000346714
-0.000342519 -0.000307869 -0.000271097
-6.18246e-05 8.21295e-05 -7.93857e-05
-0.000392279 0.00021612 -0.000218829
-0.000396039 0.000218408 -0.000208853
-8.49009e-05 2.44512e-05 -4.16257e-05
-8.60312e-05 2.47785e-05 -3.93232e-05
-0.000399382 0.000115075 -0.000178672
-8.77535e-05 2.53101e-05 -3.47245e-05
6.08163e-05 -0.000108136 0.000325215
0.0 0.0 -0.000346714
-8.29952e-05 0.000625129 -0.000882907
-8.63443e-05 3.88078e-06 -4.06034e-05
-8.90843e-05 4.00221e-06 -3.45788e-05
0.0 0.0 -0.000346714
-3.76746e-05 -9.84574e-06 -4.46192e-05
-0.000428159 -9.22677e-05 -0.000168558
0.0 0.0 -0.00160516
0.0 0.0 -0.000346714
-8.71222e-05 3.33728e-05 -4.24359e-05
-9.00359e-05 2.68048e-05 -2.32436e-05
9.53473e-05 0.000526497 0.00161833
3.32943e-05 4.27461e-05 9.96439e-05
9.06743e-05 0.000172067 4.74014e-05
-9.70833e-05 3.06796e-05 1.76904e-05
5.76025e-05 3.49137e-05 2.14661e-05
0.0 0.0 -0.00160516
-0.0194387 0.00994326 0.133716
0.0 0.0 -0.000346714
8.44089e-05 0.000240574 4.32361e-05
0.000754104 -0.000329656 -0.00055257
0.0 0.0 -0.00160516
-0.000135701 -2.72196e-05 5.76849e-05