# vtk DataFile Version 2.0
Generated by lpp.py
ASCII
DATASET POLYDATA
POINTS 397 float
-0.242051 -0.0659506 -0.187371
-0.188455 -0.0158617 -0.183371
-0.183452 -0.00595841 -0.183201
-0.184878 0.00399525 -0.182875
-0.182827 0.00838772 -0.182448
-0.183465 0.0199623 -0.182051
-0.187446 0.0230747 -0.183111
-0.181551 -0.0279597 -0.179694
-0.174585 -0.0087723 -0.178356
-0.175642 -0.00441263 -0.17993
-0.180339 0.0140585 -0.180857
-0.175315 0.0206695 -0.178499
-0.163267 -0.00785602 -0.174456
-0.16721 -0.00235807 -0.176488
-0.169133 0.00282262 -0.177375
-0.16178 0.00191208 -0.174179
-0.16442 0.00468314 -0.175327
-0.161769 0.0055123 -0.174114
-0.167515 0.0134638 -0.175929
-0.170759 0.0234339 -0.176043
-0.241705 0.0798765 -0.17497
-0.18168 -0.0558475 -0.170663
-0.157772 -0.00485864 -0.172523
-0.156235 -0.000123312 -0.171804
-0.160258 0.0132209 -0.17186
-0.155403 0.0137178 -0.17084
-0.168552 0.0332668 -0.173156
-0.148787 -0.00859494 -0.167439
-0.15127 0.00302297 -0.169755
-0.154927 0.0260332 -0.167861
-0.146364 -0.0177484 -0.165595
-0.14254 -0.0136422 -0.165526
-0.143396 0.00102268 -0.166402
-0.137977 0.0100527 -0.163866
-0.145529 0.01787 -0.165168
-0.142966 0.0238721 -0.164485
-0.153497 0.0345522 -0.166724
-0.142406 -0.0241337 -0.163108
-0.13879 -0.022125 -0.162983
-0.145833 -0.0107931 -0.161622
-0.128748 -0.00927514 -0.160065
-0.136247 0.00738617 -0.162389
-0.131642 0.0107053 -0.160035
-0.13052 0.0149224 -0.160399
-0.1313 -0.0137701 -0.159719
-0.123823 -0.00610118 -0.158185
-0.123207 0.00528846 -0.157873
-0.126543 0.0139398 -0.158749
-0.123943 0.0164483 -0.156386
-0.127812 0.0232853 -0.157023
-0.134998 0.0286478 -0.159173
-0.14105 -0.0524008 -0.155019
-0.114642 -0.0150803 -0.152608
-0.117955 -0.00847193 -0.155541
-0.115095 -0.00721247 -0.153044
-0.119729 -0.00479756 -0.155406
-0.119374 0.00530903 -0.155501
-0.11163 0.0136045 -0.152484
-0.121605 0.0247594 -0.15531
-0.11943 -0.0412391 -0.150852
-0.115676 -0.0217493 -0.151159
-0.118704 -0.00617405 -0.1511
-0.11705 -0.0032613 -0.152143
-0.108972 -0.00159859 -0.15188
-0.110927 0.00283074 -0.14942
-0.107394 0.00138521 -0.150421
-0.104547 -0.000535323 -0.149416
-0.113324 0.00814105 -0.152504
-0.109 0.0107671 -0.150386
-0.109718 0.0152456 -0.150357
-0.108507 0.0222055 -0.150214
-0.106173 -0.0222548 -0.148846
-0.10357 -0.0108888 -0.148227
-0.101899 0.00134732 -0.147642
-0.0959949 0.0113254 -0.146068
-0.101905 0.0153269 -0.146467
-0.0987876 0.0234715 -0.145947
-0.128282 0.0580888 -0.148625
-0.0900651 -0.0280987 -0.141658
-0.0948434 -0.0183501 -0.144992
-0.0922771 -0.0214366 -0.143203
-0.0903591 -0.0170493 -0.142924
-0.100106 -0.0115362 -0.14554
-0.0898621 -0.0113693 -0.142429
-0.0963259 -0.0072553 -0.144414
-0.111968 -0.0056464 -0.146826
-0.102078 -0.00359265 -0.146934
-0.108661 -0.00129689 -0.147568
-0.0932234 -0.000855467 -0.14423
-0.085654 -0.00233165 -0.142078
-0.11382 0.0103024 -0.145543
-0.0904914 0.0130076 -0.142545
-0.093396 0.0185747 -0.143934
-0.140282 -0.081325 -0.140231
-0.114331 -0.0479509 -0.142963
-0.0910464 -0.0191885 -0.140312
-0.0824352 -0.0149051 -0.139105
-0.0840745 -0.00415011 -0.13869
-0.0858911 0.00152314 -0.141029
-0.0784928 0.00024569 -0.139101
-0.0963133 0.00658599 -0.143769
-0.0810142 0.00359115 -0.140119
-0.0844875 0.01014 -0.140599
-0.0845227 0.0141692 -0.14101
-0.0880214 0.0235104 -0.139611
-0.0782045 -0.0212442 -0.136534
-0.0710785 -0.00879134 -0.135725
-0.0730488 -0.00403202 -0.135712
-0.0767006 0.00290037 -0.138284
-0.0747214 0.00304282 -0.135932
-0.0759205 0.0108948 -0.136606
-0.100841 0.0164079 -0.137514
-0.0745074 0.015288 -0.136708
-0.0769101 0.0207328 -0.136149
-0.0789921 0.0281113 -0.135847
-0.0851951 -0.0533414 -0.132862
-0.0729025 -0.0296254 -0.134173
-0.0693585 -0.0303432 -0.131449
-0.0695979 -0.0267815 -0.133352
-0.0685877 -0.0164504 -0.133383
-0.072156 -0.0119253 -0.13196
-0.0636321 -0.0132609 -0.132385
-0.0642492 -0.00794499 -0.131629
-0.0688361 -0.00428262 -0.132193
-0.0807185 -0.00273852 -0.134656
-0.0707959 0.00967098 -0.133752
-0.0721343 0.0138036 -0.135322
-0.068082 0.0177444 -0.132573
-0.0701731 0.0298831 -0.13259
-0.0663759 0.0275824 -0.13175
-0.0796086 0.0417902 -0.132679
-0.0894715 0.0546008 -0.13327
-0.0633623 -0.0209417 -0.130337
-0.0798859 -0.0170454 -0.129517
-0.0887078 -0.0114528 -0.132733
-0.0951633 -0.00393043 -0.132266
-0.0863083 -0.00331953 -0.132581
-0.0573348 0.00453101 -0.128966
-0.0721011 0.0102424 -0.127675
-0.0840754 0.0168243 -0.13118
-0.0547984 0.020561 -0.127984
-0.0578971 0.0222921 -0.129045
-0.0953408 0.0557257 -0.129419
-0.0571587 -0.0277691 -0.126856
-0.0503905 -0.0254098 -0.125475
-0.0560783 -0.0170955 -0.127635
-0.046965 -0.0151381 -0.125196
-0.046982 -0.00828908 -0.125598
-0.0551909 -0.0024982 -0.124971
-0.0461029 0.00244369 -0.125402
-0.0433274 0.00216558 -0.124266
-0.0678778 0.00639143 -0.124755
-0.0488736 0.0104279 -0.125903
-0.0631038 -0.0415977 -0.123098
-0.0587326 -0.0232909 -0.122697
-0.0355064 -0.0164572 -0.120198
-0.0551677 -0.0109559 -0.123244
-0.0424454 -0.00148021 -0.121962
-0.0410481 0.00398278 -0.123281
-0.0899949 0.00812854 -0.123391
-0.0457556 0.00856479 -0.123021
-0.0775646 0.0105956 -0.122082
-0.0557211 0.0121208 -0.122193
-0.0770836 0.0711274 -0.122536
-0.0771812 -0.025404 -0.119866
-0.0461724 -0.0249912 -0.118932
-0.038793 -0.026812 -0.119041
-0.0369008 -0.0236645 -0.117977
-0.0600299 -0.0193748 -0.121051
-0.0308505 -0.0164925 -0.116986
-0.0692917 -0.00681897 -0.118578
-0.0443956 -0.00728698 -0.117532
-0.0363724 -0.00924284 -0.117548
-0.0560112 -0.00811603 -0.119351
-0.0680033 0.0019005 -0.119463
-0.0296275 0.00134692 -0.117685
-0.042195 0.00602859 -0.119924
-0.0739795 0.0108274 -0.119487
-0.0659668 0.011888 -0.119147
-0.0554798 0.0164618 -0.117705
-0.0493797 0.0133966 -0.119721
-0.0389983 0.0182853 -0.115936
-0.0473826 0.0559815 -0.116947
-0.0460978 -0.0568616 -0.116119
-0.0364489 -0.0334037 -0.117073
-0.0289427 -0.0328835 -0.115136
-0.0271717 -0.00763943 -0.114363
-0.0679705 0.00356576 -0.113983
-0.0554178 0.00681615 -0.116338
-0.0293296 0.00350385 -0.114397
-0.0248633 0.00447726 -0.116467
-0.029179 0.00876236 -0.116475
-0.0331583 0.0159265 -0.115431
-0.0604868 0.0220305 -0.114371
-0.0527756 0.0201644 -0.114014
-0.0391581 0.0271423 -0.113819
-0.0255955 0.0269263 -0.112807
-0.0392096 0.0313829 -0.116522
-0.0503283 -0.0740454 -0.110562
-0.0237126 -0.0280085 -0.113676
-0.0245477 -0.0318682 -0.11304
-0.0267599 -0.0254707 -0.113345
-0.0417494 -0.0229787 -0.111639
-0.022732 -0.0225316 -0.1125
-0.0509851 -0.00975398 -0.111175
-0.0441577 -0.0107729 -0.112046
-0.0548084 -0.00918838 -0.1139
-0.0117977 -0.00508073 -0.110945
-0.0332761 0.00180881 -0.112488
-0.0250998 0.00440903 -0.111612
-0.0304778 0.0127326 -0.111731
-0.0582744 0.0160659 -0.112268
-0.0534101 0.0149138 -0.111499
-0.0236358 0.0213501 -0.11043
-0.0173703 0.0209023 -0.111115
-0.032534 0.0264451 -0.112006
-0.0561875 0.0296433 -0.114826
-0.0181645 0.030019 -0.110623
-0.0339793 0.0323498 -0.116928
-0.0898685 0.0401304 -0.11378
-0.0182777 -0.0315341 -0.108539
-0.0155805 -0.0240533 -0.107742
-0.0478977 -0.0168477 -0.10744
-0.0234627 -0.0176302 -0.10963
-0.0372944 -0.0150601 -0.113095
-0.0127294 -0.0167222 -0.105833
-0.0264337 -0.00612531 -0.106818
-0.0245361 -0.0115064 -0.112256
-0.00908813 -0.00671665 -0.106821
-0.0445461 -0.00348263 -0.107178
-0.0367675 -0.00356569 -0.10652
-0.0140449 -0.00432176 -0.105453
-0.0316223 -0.000649084 -0.109553
-0.0481698 0.00807322 -0.108245
-0.0182016 0.0127482 -0.112407
-0.0166005 0.0114885 -0.107021
-0.0299727 0.0202968 -0.111059
-0.137877 -0.0317926 -0.105756
-0.0174457 -0.0279815 -0.106981
-0.0102679 -0.0234183 -0.104086
-0.042075 -0.019867 -0.103639
-0.065366 -0.0110104 -0.105265
-0.0326903 -0.0112941 -0.108317
-0.0327321 -0.00410926 -0.103516
-0.028098 0.00479313 -0.108683
-0.00422957 0.00380302 -0.104542
-0.0290952 0.00982188 -0.106178
-0.0921598 0.0178646 -0.106696
-0.00634035 0.0169247 -0.103685
-0.0353748 0.0216814 -0.104924
-0.0320176 0.0234871 -0.103455
-0.0219241 0.0652517 -0.103233
-0.0330193 -0.0287184 -0.110266
-0.0337761 0.00261397 -0.107413
-0.0343534 0.0141932 -0.105495
-0.0142239 0.0264251 -0.101427
-0.0282211 -0.0123493 -0.102883
-0.0169822 0.00918438 -0.100255
-0.0323156 0.0257586 -0.101189
-0.0266383 0.0211746 -0.097613
-0.0242312 -0.0119118 -0.0949005
-0.016367 0.0234551 -0.0927532
-0.000691472 -0.0346461 -0.0894751
-0.0084722 -0.0123243 -0.0903775
-0.0181876 -0.00799419 -0.0894714
-0.0319423 -0.0207084 -0.0879075
-0.0332043 -0.0119457 -0.0888129
-0.0266867 0.00969496 -0.087307
-0.0345837 0.0307765 -0.0873352
-0.0203439 -0.0213423 -0.0824227
-0.0242569 -0.0048619 -0.0804611
-0.0265303 0.0300204 -0.0781829
-0.0158837 -0.0146366 -0.0761017
-0.018202 -0.00127292 -0.0778981
-0.0285795 0.0326856 -0.0780269
-0.00968967 -0.0134906 -0.0728927
-0.00413281 -0.000337831 -0.0741341
-0.00852479 0.034934 -0.0726578
-0.014458 -0.0150737 -0.0689834
-0.0171117 -0.0109135 -0.0665796
-0.0238687 0.0109416 -0.0670578
-0.026238 0.0194762 -0.0646629
-0.0145426 0.0200822 -0.064661
-0.00517746 0.0266228 -0.0671606
-0.0181127 0.0295097 -0.0614533
-0.0196571 -0.00676578 -0.0596898
-0.030318 0.0147393 -0.0573919
-0.0170652 -0.0127043 -0.0554778
-0.0300845 0.0256603 -0.0544227
-0.0308827 0.00162734 -0.0522012
-0.0239975 0.00585265 -0.051218
-0.00434932 0.00423497 -0.0528244
-0.0332323 0.0316676 -0.052359
-0.0108823 0.00232676 -0.0485133
-0.0346254 0.0108555 -0.0478966
-0.0184752 -0.00390867 -0.0448708
-0.0256427 -0.0310174 -0.0398752
-0.0291592 -0.00156433 -0.0415779
-0.0101895 0.00506721 -0.0396399
-0.00344499 0.0151299 -0.0394258
-0.027048 -0.0192107 -0.0363372
-0.00876558 -0.0160351 -0.0373862
-0.00296015 -0.0125694 -0.0385618
-0.00418171 -0.00389031 -0.0380037
-0.0316084 -0.0265255 -0.0335607
-0.0281016 0.00020127 -0.033044
-0.00981587 0.00303905 -0.0317688
-0.0246424 0.00553727 -0.0288153
-0.0288083 0.00732997 -0.0312379
-0.0208274 -0.0341404 -0.025891
-0.0195242 0.01415 -0.0258411
-0.0188893 -0.0213338 -0.023666
-0.00987825 0.0266251 -0.023444
-0.032854 -0.0214325 -0.0181756
-0.0141191 -0.0144365 -0.0201023
-0.0107355 -0.0103339 -0.020618
-0.0118162 -0.00633589 -0.0194324
-0.0120408 0.00484626 -0.0173768
-0.0260976 0.00786627 -0.0176128
-0.0129098 0.021507 -0.0172309
-0.000558622 0.0213939 -0.0148958
-0.00974267 -0.0210328 -0.0109627
-0.0026782 0.0306845 -0.0111557
-0.031713 0.0319285 -0.0112095
-0.0120659 -0.0232029 -0.00943076
-0.0193603 0.00427373 -0.00848759
-0.0280975 0.0196597 -0.00665763
-0.0275767 -0.00857811 -0.00587546
-0.0341957 -0.0270523 -0.000168924
-0.00304149 -0.022423 -0.00251948
-0.00515441 -0.0109162 -0.00170851
-0.018318 0.00551713 -0.00211432
-0.0142719 0.0175582 -0.00116355
-0.0329214 -0.0245036 0.00418257
-0.0230158 -0.0063197 0.00190502
-0.00209743 0.0155548 0.00351711
-0.0054599 0.0237214 0.00401764
-0.0230867 -0.0242912 0.00627659
-0.00426265 -0.000462787 0.00563843
-0.034337 0.00561382 0.00507028
-0.00209585 0.021148 0.00799935
-0.0273791 5.52728e-05 0.00896774
-0.0183167 0.0119421 0.00962377
-0.00205387 0.0243132 0.010933
-0.0258414 -0.0270694 0.013562
-0.0323459 0.000933277 0.014228
-0.0191985 0.0336061 0.0145056
-0.00977287 -0.0305241 0.0169797
-0.0266262 0.0180085 0.0183877
-0.0268897 0.0240704 0.017462
-0.00315638 -0.0234267 0.0189906
-0.00858455 -0.00832622 0.0223781
-0.00797106 0.00155248 0.0214497
-0.0251891 0.0274385 0.0203774
-0.029518 -0.0331169 0.0253536
-0.0184795 -0.0100183 0.0253485
-0.00657095 0.00906157 0.0251791
-0.0304883 0.0114791 0.0246922
-0.0183571 0.0195956 0.0244734
-0.00532413 -0.0141231 0.0263503
-0.0123384 -0.0127121 0.0292741
-0.0315432 -0.000776551 0.0273644
-0.0306529 0.0174599 0.0262241
-0.00639582 -0.0194124 0.0326106
-0.0349219 -0.0119867 0.0312146
-0.00832892 0.000607053 0.0329446
-0.0215522 -0.0242077 0.0334224
-0.0220487 -0.00121585 0.0363055
-0.00390427 -0.00253676 0.0362417
-0.0349316 0.000809468 0.0343973
-0.0302252 0.0258081 0.0339473
-0.00538423 0.0015153 0.0382552
-0.00221027 -0.0230351 0.042753
-0.0183398 -0.0154698 0.0428628
-0.00676706 -0.00372403 0.0425895
-0.0151336 0.0123986 0.041346
-0.0275497 0.0283687 0.0427249
-0.0077538 -0.0326437 0.0461228
-0.0206177 -0.0299049 0.0447739
-0.00131466 -0.00968721 0.0442974
-0.0233766 -0.00607507 0.0449682
-0.0173855 -0.000880817 0.0464027
-0.0182307 0.00855733 0.046655
-0.0197987 0.018953 0.0476047
-0.0296317 0.0298979 0.0466949
-0.00341211 -0.034738 0.0499404
-0.0341798 -0.011198 0.0511166
-0.00558275 -0.00660585 0.0495578
-0.0271405 0.0119819 0.0494325
-0.010257 0.0208697 0.0505302
-0.0208051 -0.0158491 0.051649
-0.00399213 0.0184532 0.0520095
-0.00154371 0.0315848 0.0527939
-0.0138788 -0.0115128 0.0562052
-0.00452227 -0.00895877 0.0552469
-0.0163368 0.0276055 0.0565127
-0.0309382 -0.0143436 0.0584631
VERTICES 397 794
1 0
1 1
1 2
1 3
1 4
1 5
1 6
1 7
1 8
1 9
1 10
1 11
1 12
1 13
1 14
1 15
1 16
1 17
1 18
1 19
1 20
1 21
1 22
1 23
1 24
1 25
1 26
1 27
1 28
1 29
1 30
1 31
1 32
1 33
1 34
1 35
1 36
1 37
1 38
1 39
1 40
1 41
1 42
1 43
1 44
1 45
1 46
1 47
1 48
1 49
1 50
1 51
1 52
1 53
1 54
1 55
1 56
1 57
1 58
1 59
1 60
1 61
1 62
1 63
1 64
1 65
1 66
1 67
1 68
1 69
1 70
1 71
1 72
1 73
1 74
1 75
1 76
1 77
1 78
1 79
1 80
1 81
1 82
1 83
1 84
1 85
1 86
1 87
1 88
1 89
1 90
1 91
1 92
1 93
1 94
1 95
1 96
1 97
1 98
1 99
1 100
1 101
1 102
1 103
1 104
1 105
1 106
1 107
1 108
1 109
1 110
1 111
1 112
1 113
1 114
1 115
1 116
1 117
1 118
1 119
1 120
1 121
1 122
1 123
1 124
1 125
1 126
1 127
1 128
1 129
1 130
1 131
1 132
1 133
1 134
1 135
1 136
1 137
1 138
1 139
1 140
1 141
1 142
1 143
1 144
1 145
1 146
1 147
1 148
1 149
1 150
1 151
1 152
1 153
1 154
1 155
1 156
1 157
1 158
1 159
1 160
1 161
1 162
1 163
1 164
1 165
1 166
1 167
1 168
1 169
1 170
1 171
1 172
1 173
1 174
1 175
1 176
1 177
1 178
1 179
1 180
1 181
1 182
1 183
1 184
1 185
1 186
1 187
1 188
1 189
1 190
1 191
1 192
1 193
1 194
1 195
1 196
1 197
1 198
1 199
1 200
1 201
1 202
1 203
1 204
1 205
1 206
1 207
1 208
1 209
1 210
1 211
1 212
1 213
1 214
1 215
1 216
1 217
1 218
1 219
1 220
1 221
1 222
1 223
1 224
1 225
1 226
1 227
1 228
1 229
1 230
1 231
1 232
1 233
1 234
1 235
1 236
1 237
1 238
1 239
1 240
1 241
1 242
1 243
1 244
1 245
1 246
1 247
1 248
1 249
1 250
1 251
1 252
1 253
1 254
1 255
1 256
1 257
1 258
1 259
1 260
1 261
1 262
1 263
1 264
1 265
1 266
1 267
1 268
1 269
1 270
1 271
1 272
1 273
1 274
1 275
1 276
1 277
1 278
1 279
1 280
1 281
1 282
1 283
1 284
1 285
1 286
1 287
1 288
1 289
1 290
1 291
1 292
1 293
1 294
1 295
1 296
1 297
1 298
1 299
1 300
1 301
1 302
1 303
1 304
1 305
1 306
1 307
1 308
1 309
1 310
1 311
1 312
1 313
1 314
1 315
1 316
1 317
1 318
1 319
1 320
1 321
1 322
1 323
1 324
1 325
1 326
1 327
1 328
1 329
1 330
1 331
1 332
1 333
1 334
1 335
1 336
1 337
1 338
1 339
1 340
1 341
1 342
1 343
1 344
1 345
1 346
1 347
1 348
1 349
1 350
1 351
1 352
1 353
1 354
1 355
1 356
1 357
1 358
1 359
1 360
1 361
1 362
1 363
1 364
1 365
1 366
1 367
1 368
1 369
1 370
1 371
1 372
1 373
1 374
1 375
1 376
1 377
1 378
1 379
1 380
1 381
1 382
1 383
1 384
1 385
1 386
1 387
1 388
1 389
1 390
1 391
1 392
1 393
1 394
1 395
1 396
POINT_DATA 397
VECTORS i float
0.0 0.0 0.0
0.0 0.0 0.0
0.0 0.0 0.0
0.0 0.0 0.0
0.0 0.0 0.0
0.0 0.0 0.0
0.0 0.0 0.0
0.0 0.0 0.0
0.0 0.0 0.0
0.0 0.0 0.0
0.0 0.0 0.0
0.0 0.0 0.0
0.0 0.0 0.0
0.0 0.0 0.0
0.0 0.0 0.0
0.0 0.0 0.0
0.0 0.0 0.0
0.0 0.0 0.0
0.0 0.0 0.0
0.0 0.0 0.0
0.0 0.0 0.0
0.0 0.0 0.0
0.0 0.0 0.0
0.0 0.0 0.0
0.0 0.0 0.0
0.0 0.0 0.0
0.0 0.0 0.0
0.0 0.0 0.0
0.0 0.0 0.0
0.0 0.0 0.0
0.0 0.0 0.0
0.0 0.0 0.0
0.0 0.0 0.0
0.0 0.0 0.0
0.0 0.0 0.0
0.0 0.0 0.0
0.0 0.0 0.0
0.0 0.0 0.0
0.0 0.0 0.0
0.0 0.0 0.0
0.0 0.0 0.0
0.0 0.0 0.0
0.0 0.0 0.0
0.0 0.0 0.0
0.0 0.0 0.0
0.0 0.0 0.0
0.0 0.0 0.0
0.0 0.0 0.0
0.0 0.0 0.0
0.0 0.0 0.0
0.0 0.0 0.0
0.0 0.0 0.0
0.0 0.0 0.0
0.0 0.0 0.0
0.0 0.0 0.0
0.0 0.0 0.0
0.0 0.0 0.0
0.0 0.0 0.0
0.0 0.0 0.0
0.0 0.0 0.0
0.0 0.0 0.0
0.0 0.0 0.0
0.0 0.0 0.0
0.0 0.0 0.0
0.0 0.0 0.0
0.0 0.0 0.0
0.0 0.0 0.0
0.0 0.0 0.0
0.0 0.0 0.0
0.0 0.0 0.0
0.0 0.0 0.0
0.0 0.0 0.0
0.0 0.0 0.0
0.0 0.0 0.0
0.0 0.0 0.0
0.0 0.0 0.0
0.0 0.0 0.0
0.0 0.0 0.0
0.0 0.0 0.0
0.0 0.0 0.0
0.0 0.0 0.0
0.0 0.0 0.0
0.0 0.0 0.0
0.0 0.0 0.0
0.0 0.0 0.0
0.0 0.0 0.0
0.0 0.0 0.0
0.0 0.0 0.0
0.0 0.0 0.0
0.0 0.0 0.0
0.0 0.0 0.0
0.0 0.0 0.0
0.0 0.0 0.0
0.0 0.0 0.0
0.0 0.0 0.0
0.0 0.0 0.0
0.0 0.0 0.0
0.0 0.0 0.0
0.0 0.0 0.0
0.0 0.0 0.0
0.0 0.0 0.0
0.0 0.0 0.0
0.0 0.0 0.0
0.0 0.0 0.0
0.0 0.0 0.0
0.0 0.0 0.0
0.0 0.0 0.0
0.0 0.0 0.0
0.0 0.0 0.0
0.0 0.0 0.0
0.0 0.0 0.0
0.0 0.0 0.0
0.0 0.0 0.0
0.0 0.0 0.0
0.0 0.0 0.0
0.0 0.0 0.0
0.0 0.0 0.0
0.0 0.0 0.0
0.0 0.0 0.0
0.0 0.0 0.0
0.0 0.0 0.0
0.0 0.0 0.0
0.0 0.0 0.0
0.0 0.0 0.0
0.0 0.0 0.0
0.0 0.0 0.0
0.0 0.0 0.0
0.0 0.0 0.0
0.0 0.0 0.0
0.0 0.0 0.0
0.0 0.0 0.0
0.0 0.0 0.0
0.0 0.0 0.0
0.0 0.0 0.0
0.0 0.0 0.0
0.0 0.0 0.0
0.0 0.0 0.0
0.0 0.0 0.0
0.0 0.0 0.0
0.0 0.0 0.0
0.0 0.0 0.0
0.0 0.0 0.0
0.0 0.0 0.0
0.0 0.0 0.0
0.0 0.0 0.0
0.0 0.0 0.0
0.0 0.0 0.0
0.0 0.0 0.0
0.0 0.0 0.0
0.0 0.0 0.0
0.0 0.0 0.0
0.0 0.0 0.0
0.0 0.0 0.0
0.0 0.0 0.0
0.0 0.0 0.0
0.0 0.0 0.0
0.0 0.0 0.0
0.0 0.0 0.0
0.0 0.0 0.0
0.0 0.0 0.0
0.0 0.0 0.0
0.0 0.0 0.0
0.0 0.0 0.0
0.0 0.0 0.0
0.0 0.0 0.0
0.0 0.0 0.0
0.0 0.0 0.0
0.0 0.0 0.0
0.0 0.0 0.0
0.0 0.0 0.0
0.0 0.0 0.0
0.0 0.0 0.0
0.0 0.0 0.0
0.0 0.0 0.0
0.0 0.0 0.0
0.0 0.0 0.0
0.0 0.0 0.0
0.0 0.0 0.0
0.0 0.0 0.0
0.0 0.0 0.0
0.0 0.0 0.0
0.0 0.0 0.0
0.0 0.0 0.0
0.0 0.0 0.0
0.0 0.0 0.0
0.0 0.0 0.0
0.0 0.0 0.0
0.0 0.0 0.0
0.0 0.0 0.0
0.0 0.0 0.0
0.0 0.0 0.0
0.0 0.0 0.0
0.0 0.0 0.0
0.0 0.0 0.0
0.0 0.0 0.0
0.0 0.0 0.0
0.0 0.0 0.0
0.0 0.0 0.0
0.0 0.0 0.0
0.0 0.0 0.0
0.0 0.0 0.0
0.0 0.0 0.0
0.0 0.0 0.0
0.0 0.0 0.0
0.0 0.0 0.0
0.0 0.0 0.0
0.0 0.0 0.0
0.0 0.0 0.0
0.0 0.0 0.0
0.0 0.0 0.0
0.0 0.0 0.0
0.0 0.0 0.0
0.0 0.0 0.0
0.0 0.0 0.0
0.0 0.0 0.0
0.0 0.0 0.0
0.0 0.0 0.0
0.0 0.0 0.0
0.0 0.0 0.0
0.0 0.0 0.0
0.0 0.0 0.0
0.0 0.0 0.0
0.0 0.0 0.0
0.0 0.0 0.0
0.0 0.0 0.0
0.0 0.0 0.0
0.0 0.0 0.0
0.0 0.0 0.0
0.0 0.0 0.0
0.0 0.0 0.0
0.0 0.0 0.0
0.0 0.0 0.0
0.0 0.0 0.0
0.0 0.0 0.0
0.0 0.0 0.0
0.0 0.0 0.0
0.0 0.0 0.0
0.0 0.0 0.0
0.0 0.0 0.0
0.0 0.0 0.0
0.0 0.0 0.0
0.0 0.0 0.0
0.0 0.0 0.0
0.0 0.0 0.0
0.0 0.0 0.0
0.0 0.0 0.0
0.0 0.0 0.0
0.0 0.0 0.0
0.0 0.0 0.0
0.0 0.0 0.0
0.0 0.0 0.0
0.0 0.0 0.0
0.0 0.0 0.0
0.0 0.0 0.0
0.0 0.0 0.0
0.0 0.0 0.0
0.0 0.0 0.0
0.0 0.0 0.0
0.0 0.0 0.0
0.0 0.0 0.0
0.0 0.0 0.0
0.0 0.0 0.0
0.0 0.0 0.0
0.0 0.0 0.0
0.0 0.0 0.0
0.0 0.0 0.0
0.0 0.0 0.0
0.0 0.0 0.0
0.0 0.0 0.0
0.0 0.0 0.0
0.0 0.0 0.0
0.0 0.0 0.0
0.0 0.0 0.0
0.0 0.0 0.0
0.0 0.0 0.0
0.0 0.0 0.0
0.0 0.0 0.0
0.0 0.0 0.0
0.0 0.0 0.0
0.0 0.0 0.0
0.0 0.0 0.0
0.0 0.0 0.0
0.0 0.0 0.0
0.0 0.0 0.0
0.0 0.0 0.0
0.0 0.0 0.0
0.0 0.0 0.0
0.0 0.0 0.0
0.0 0.0 0.0
0.0 0.0 0.0
0.0 0.0 0.0
0.0 0.0 0.0
0.0 0.0 0.0
0.0 0.0 0.0
0.0 0.0 0.0
0.0 0.0 0.0
0.0 0.0 0.0
0.0 0.0 0.0
0.0 0.0 0.0
0.0 0.0 0.0
0.0 0.0 0.0
0.0 0.0 0.0
0.0 0.0 0.0
0.0 0.0 0.0
0.0 0.0 0.0
0.0 0.0 0.0
0.0 0.0 0.0
0.0 0.0 0.0
0.0 0.0 0.0
0.0 0.0 0.0
0.0 0.0 0.0
0.0 0.0 0.0
0.0 0.0 0.0
0.0 0.0 0.0
0.0 0.0 0.0
0.0 0.0 0.0
0.0 0.0 0.0
0.0 0.0 0.0
0.0 0.0 0.0
0.0 0.0 0.0
0.0 0.0 0.0
0.0 0.0 0.0
0.0 0.0 0.0
0.0 0.0 0.0
0.0 0.0 0.0
0.0 0.0 0.0
0.0 0.0 0.0
0.0 0.0 0.0
0.0 0.0 0.0
0.0 0.0 0.0
0.0 0.0 0.0
0.0 0.0 0.0
0.0 0.0 0.0
0.0 0.0 0.0
0.0 0.0 0.0
0.0 0.0 0.0
0.0 0.0 0.0
0.0 0.0 0.0
0.0 0.0 0.0
0.0 0.0 0.0
0.0 0.0 0.0
0.0 0.0 0.0
0.0 0.0 0.0
0.0 0.0 0.0
0.0 0.0 0.0
0.0 0.0 0.0
0.0 0.0 0.0
0.0 0.0 0.0
0.0 0.0 0.0
0.0 0.0 0.0
0.0 0.0 0.0
0.0 0.0 0.0
0.0 0.0 0.0
0.0 0.0 0.0
0.0 0.0 0.0
0.0 0.0 0.0
0.0 0.0 0.0
0.0 0.0 0.0
0.0 0.0 0.0
0.0 0.0 0.0
0.0 0.0 0.0
0.0 0.0 0.0
0.0 0.0 0.0
0.0 0.0 0.0
0.0 0.0 0.0
0.0 0.0 0.0
0.0 0.0 0.0
0.0 0.0 0.0
0.0 0.0 0.0
0.0 0.0 0.0
0.0 0.0 0.0
0.0 0.0 0.0
0.0 0.0 0.0
0.0 0.0 0.0
0.0 0.0 0.0
0.0 0.0 0.0
0.0 0.0 0.0
0.0 0.0 0.0
0.0 0.0 0.0
0.0 0.0 0.0
0.0 0.0 0.0
0.0 0.0 0.0
0.0 0.0 0.0
0.0 0.0 0.0
0.0 0.0 0.0
0.0 0.0 0.0
0.0 0.0 0.0
0.0 0.0 0.0
0.0 0.0 0.0
0.0 0.0 0.0
0.0 0.0 0.0
0.0 0.0 0.0
0.0 0.0 0.0
0.0 0.0 0.0
0.0 0.0 0.0
0.0 0.0 0.0
0.0 0.0 0.0
VECTORS f float
0.0 0.0 -0.000346714
-0.000397907 0.000114737 -0.000181063
-0.00011788 2.80618e-06 -3.05799e-05
0.00239125 -0.000231015 -0.00672414
0.0 0.0 -0.000346714
-8.66648e-05 -1.87034e-05 -3.94605e-05
-8.55184e-05 -4.09716e-05 -4.53808e-05
-0.000200086 9.99895e-05 1.92818e-06
-0.00037637 4.49774e-05 0.000113818
0.0 0.0 -0.000346714
0.0 0.0 -0.000346714
0.000254429 1.5429e-07 -0.000978425
0.0 0.0 -0.000346714
2.67271e-05 4.59629e-05 7.01251e-05
0.00215052 -4.33254e-05 0.0290821
-5.72779e-05 2.52781e-07 -8.30852e-05
-3.85241e-05 7.17989e-07 -1.04753e-05
0.0 0.0 -0.000346714
-7.26676e-05 -1.53588e-05 -5.89996e-05
-8.58047e-05 -3.9421e-05 -4.39663e-05
3.88122e-06 0.000914753 -0.00118052
0.0 0.0 -0.000346714
-8.82663e-05 -2.57462e-06 -3.3299e-05
0.0 0.0 -0.000346714
0.0 0.0 -0.00160516
0.0 0.0 -0.000346714
0.0 0.0 -0.000346714
-0.000401822 4.79848e-05 -0.000178646
-0.000129967 -6.56494e-06 -2.30947e-05
-0.000377718 -0.000184348 -0.000192151
0.0 0.0 -0.00160516
-7.2046e-05 1.78068e-05 -6.10555e-05
0.0 0.0 -0.000346714
-0.000129823 -1.23642e-05 6.52085e-05
-0.00051483 -0.000141135 6.0104e-05
-8.88685e-05 -2.63724e-05 -4.14203e-05
0.0 0.0 -0.000346714
-0.0153954 0.00725154 0.049041
-8.77168e-05 3.03292e-05 -4.17732e-05
0.0 0.0 -0.000346714
-8.08267e-05 1.38449e-05 -6.29295e-05
0.0 0.0 -0.000346714
-0.000473938 -6.01287e-05 1.02907e-06
-0.000206046 1.59601e-05 -6.78587e-05
0.0 0.0 -0.00160516
-5.10345e-05 6.93503e-06 -0.000103706
-8.65932e-05 -1.36224e-05 -3.6379e-05
-0.000302406 -3.36717e-05 0.000202409
0.0 0.0 -0.00160516
-0.000101536 -2.67962e-05 -0.000926814
-0.000344859 -0.000192428 -0.000282074
-0.00214865 0.000835695 0.00213662
-0.000258244 -4.32597e-05 -0.000799015
0.000478743 0.000120156 -0.000359857
-0.000364973 -0.000115153 -0.00169108
-0.000395682 7.3853e-08 -0.000200833
0.0 0.0 -0.000346714
1.29605e-05 3.17542e-05 3.49459e-06
-8.68442e-05 -3.08957e-05 -4.10914e-05
-0.000116991 9.04899e-05 3.1043e-05
0.0 0.0 -0.00160516
0.0 0.0 -0.000346714
0.0 0.0 -0.000346714
0.0 0.0 -0.000346714
0.0 0.0 -0.000346714
0.0 0.0 -0.000346714
0.0 0.0 -0.000346714
0.000115847 6.44904e-05 -0.00172642
0.0 0.0 -0.00160516
0.0 0.0 -0.000346714
-9.2918e-05 -3.40979e-05 -2.17693e-05
0.0 0.0 -0.000346714
-0.000404293 5.93733e-05 -0.000196108
0.0 0.0 -0.000346714
-8.82668e-05 -1.73059e-05 -3.66652e-05
0.0 0.0 -0.00160516
-8.58674e-05 -3.26317e-05 -4.08289e-05
-6.75854e-05 -7.47859e-05 -7.49195e-05
-7.61514e-05 3.74133e-05 -6.22763e-05
-8.73341e-05 2.70057e-05 -4.10502e-05
0.0 0.0 -0.000346714
0.0 0.0 -0.000346714
0.0 0.0 -0.000346714
-0.000410655 5.4343e-05 -0.000177917
0.0 0.0 -0.00160516
0.0 0.0 -0.00160516
0.0 0.0 -0.000346714
0.0 0.0 -0.000346714
-1.21702e-06 2.0115e-05 -0.00152796
0.0 0.0 -0.000346714
0.0 0.0 -0.000346714
9.0285e-05 -0.000107031 -0.000300087
0.0 0.0 -0.000346714
-0.000298921 0.00064775 0.000654667
0.0 0.0 -0.000346714
0.0 0.0 -0.000346714
-0.000406689 0.000119107 -0.000184989
0.0 0.0 -0.00160516
0.0 0.0 -0.00160516
-0.000104766 -4.60447e-06 -1.72962e-06
0.0 0.0 -0.000346714
-8.88004e-05 -3.24207e-06 -3.856e-05
0.0 0.0 -0.000346714
1.53635e-05 1.86798e-05 2.38366e-06
0.0 0.0 -0.00160516
-0.000402623 0.00011662 -0.000182035
-3.05014e-05 3.52875e-06 -0.00015713
-0.000339285 3.96289e-05 -0.000334747
0.0 0.0 -0.000346714
0.0 0.0 -0.000346714
0.0132927 -0.00685559 0.0128207
0.0 0.0 -0.000346714
-0.000148617 -3.31327e-05 0.00022643
0.0005045 7.71939e-05 -0.00220987
-0.00090479 -0.000407224 0.00105751
0.0 0.0 -0.000346714
-8.53419e-05 4.024e-05 -4.36576e-05
-0.000439576 0.000210155 -8.15905e-05
-0.000697854 0.000144144 0.000282531
0.0 0.0 -0.000346714
0.0 0.0 -0.00160516
-8.81675e-05 9.85677e-06 -3.76949e-05
0.0 0.0 -0.00160516
0.0 0.0 -0.00160516
0.0 0.0 -0.00160516
0.0 0.0 -0.00160516
0.0 0.0 -0.000346714
0.0 0.0 -0.00160516
0.0 0.0 -0.000346714
1.47874e-05 7.72071e-06 -0.000255192
0.0 0.0 -0.00160516
-0.000364842 -0.000304857 -0.000253079
-0.000121843 4.28581e-05 -0.000364652
0.0 0.0 -0.00160516
0.0 0.0 -0.00160516
0.0 0.0 -0.000346714
0.0 0.0 -0.00160516
0.0 0.0 -0.00160516
0.0 0.0 -0.000346714
0.0 0.0 -0.00160516
-8.62227e-05 -3.0867e-05 -2.99609e-05
-0.000328832 -0.000133909 0.000237526
0.0 0.0 -0.000346714
0.000170029 0.000562103 0.00071403
-7.29823e-05 2.04597e-05 -7.44652e-05
0.0 0.0 -0.00160516
0.0 0.0 -0.000346714
-8.48986e-05 8.57595e-06 -4.64413e-05
0.0 0.0 -0.00160516
9.57696e-05 -0.000330303 0.00146248
0.0266592 0.0261168 0.0222601
0.0 0.0 -0.00160516
0.0 0.0 -0.000346714
0.0 0.0 -0.00160516
0.0 0.0 -0.00160516
-8.92012e-05 2.14134e-05 -4.06724e-05
0.0 0.0 -0.00160516
0.0 0.0 -0.00160516
-0.00936389 0.0361604 0.0621673
0.0 0.0 -0.000346714
0.0 0.0 -0.00160516
0.0 0.0 -0.000346714
0.0 0.0 -0.000346714
-7.1802e-05 -8.21269e-05 -6.54135e-05
0.0 0.0 -0.000346714
0.0 0.0 -0.00160516
0.0 0.0 -0.000346714
0.0 0.0 -0.000346714
0.0 0.0 -0.000346714
0.0 0.0 -0.00160516
0.0 0.0 -0.000346714
0.0 0.0 -0.000346714
0.0 0.0 -0.000346714
0.0 0.0 -0.000346714
0.0 0.0 -0.000346714
0.0 0.0 -0.000346714
0.0 0.0 -0.00160516
0.0 0.0 -0.000346714
0.0 0.0 -0.000346714
0.0 0.0 -0.00160516
0.0 0.0 -0.00160516
0.0 0.0 -0.00160516
-7.72551e-05 -6.77816e-05 -5.44881e-05
0.0 0.0 -0.000346714
0.0 0.0 -0.000346714
0.0 0.0 -0.000346714
0.0 0.0 -0.00160516
0.0 0.0 -0.000346714
0.0 0.0 -0.000346714
0.0 0.0 -0.000346714
-9.01239e-05 2.56066e-06 -3.88963e-05
0.0 0.0 -0.00160516
0.0 0.0 -0.00160516
0.0 0.0 -0.000346714
0.0 0.0 -0.000346714
0.0 0.0 -0.000346714
0.0 0.0 -0.00160516
0.0 0.0 -0.00160516
0.0 0.0 -0.000346714
0.00143269 -0.00082508 0.000253732
0.0 0.0 -0.000346714
-0.00143269 0.00082508 -0.0022056
0.0 0.0 -0.000346714
0.0 0.0 -0.000346714
0.0 0.0 -0.000346714
0.0 0.0 -0.000346714
0.0 0.0 -0.000346714
-8.72185e-05 1.12496e-06 -3.59517e-05
0.0 0.0 -0.000346714
0.0 0.0 -0.00160516
0.0 0.0 -0.000346714
0.0 0.0 -0.000346714
0.0 0.0 -0.000346714
0.0 0.0 -0.000346714
0.0 0.0 -0.000346714
0.0 0.0 -0.000346714
0.0 0.0 -0.000346714
0.0 0.0 -0.000346714
0.0 0.0 -0.000346714
0.0 0.0 -0.000346714
0.0 0.0 -0.000346714
0.0 0.0 -0.000346714
0.0 0.0 -0.00160516
0.0 0.0 -0.00160516
0.0 0.0 -0.000346714
0.0 0.0 -0.00160516
0.0 0.0 -0.000346714
0.0 0.0 -0.000346714
0.0 0.0 -0.000346714
0.0 0.0 -0.000346714
0.0 0.0 -0.00160516
0.0 0.0 -0.000346714
0.0 0.0 -0.000346714
0.0 0.0 -0.000346714
0.0 0.0 -0.000346714
0.0 0.0 -0.000346714
0.0 0.0 -0.00160516
0.0 0.0 -0.000346714
0.0 0.0 -0.000346714
0.0 0.0 -0.00160516
0.0 0.0 -0.00160516
0.0 0.0 -0.000346714
0.0 0.0 -0.000346714
0.0 0.0 -0.000346714
0.0 0.0 -0.000346714
0.0 0.0 -0.00160516
0.0 0.0 -0.000346714
0.0 0.0 -0.000346714
0.0 0.0 -0.000346714
0.0 0.0 -0.000346714
0.0 0.0 -0.000346714
-6.41752e-05 -6.88491e-05 -7.68284e-05
0.0 0.0 -0.000346714
0.0 0.0 -0.00160516
0.0 0.0 -0.00160516
0.0 0.0 -0.00160516
0.0 0.0 -0.000346714
0.0 0.0 -0.000346714
0.0 0.0 -0.000346714
0.0 0.0 -0.000346714
0.0 0.0 -0.000346714
0.0 0.0 -0.00160516
0.0 0.0 -0.00160516
0.0 0.0 -0.000346714
0.0 0.0 -0.00160516
0.0 0.0 -0.000346714
0.0 0.0 -0.000346714
0.0 0.0 -0.000346714
0.0 0.0 -0.00160516
0.0 0.0 -0.00160516
0.0 0.0 -0.000346714
0.0 0.0 -0.000346714
0.0 0.0 -0.000346714
0.0 0.0 -0.000346714
0.0 0.0 -0.000346714
0.0 0.0 -0.00160516
0.0 0.0 -0.000346714
0.0 0.0 -0.000346714
0.0 0.0 -0.00160516
0.0 0.0 -0.00160516
0.0 0.0 -0.000346714
0.0 0.0 -0.000346714
0.0 0.0 -0.000346714
0.0 0.0 -0.00160516
0.0 0.0 -0.000346714
0.0 0.0 -0.000346714
0.0 0.0 -0.00160516
0.0 0.0 -0.00160516
0.0 0.0 -0.000346714
0.0 0.0 -0.000346714
0.0 0.0 -0.00160516
0.0 0.0 -0.000346714
0.0 0.0 -0.000346714
0.0 0.0 -0.000346714
0.0 0.0 -0.00160516
0.0 0.0 -0.000346714
0.0 0.0 -0.000346714
0.0 0.0 -0.000346714
0.0 0.0 -0.00160516
0.0 0.0 -0.000346714
0.0 0.0 -0.000346714
0.0 0.0 -0.000346714
0.0 0.0 -0.00160516
0.0 0.0 -0.000346714
0.0 0.0 -0.00160516
0.0 0.0 -0.000346714
0.0 0.0 -0.00160516
0.0 0.0 -0.00160516
0.0 0.0 -0.000346714
0.0 0.0 -0.000346714
0.0 0.0 -0.000346714
0.0 0.0 -0.00160516
0.0 0.0 -0.000346714
0.0 0.0 -0.00160516
0.0 0.0 -0.00160516
0.0 0.0 -0.000346714
0.0 0.0 -0.000346714
0.0 0.0 -0.00160516
0.0 0.0 -0.000346714
0.0 0.0 -0.000346714
0.0 0.0 -0.000346714
0.0 0.0 -0.000346714
0.0 0.0 -0.00160516
0.0 0.0 -0.000346714
0.0 0.0 -0.000346714
0.0 0.0 -0.000346714
0.0 0.0 -0.00160516
0.0 0.0 -0.000346714
0.0 0.0 -0.00160516
0.0 0.0 -0.000346714
0.0 0.0 -0.00160516
0.0 0.0 -0.000346714
0.0 0.0 -0.000346714
0.0 0.0 -0.000346714
0.0 0.0 -0.000346714
0.0 0.0 -0.000346714
0.0 0.0 -0.000346714
0.0 0.0 -0.00160516
0.0 0.0 -0.000346714
0.0 0.0 -0.00160516
0.0 0.0 -0.000346714
0.0 0.0 -0.000346714
0.0 0.0 -0.00160516
0.0 0.0 -0.000346714
0.0 0.0 -0.00160516
0.0 0.0 -0.000346714
0.0 0.0 -0.000346714
0.0 0.0 -0.000346714
0.0 0.0 -0.000346714
0.0 0.0 -0.000346714
0.0 0.0 -0.000346714
0.0 0.0 -0.000346714
0.0 0.0 -0.00160516
0.0 0.0 -0.00160516
0.0 0.0 -0.000346714
0.0 0.0 -0.00160516
0.0 0.0 -0.000346714
0.0 0.0 -0.000346714
0.0 0.0 -0.00160516
0.0 0.0 -0.00160516
0.0 0.0 -0.000346714
0.0 0.0 -0.000346714
0.0 0.0 -0.00160516
0.0 0.0 -0.000346714
0.0 0.0 -0.000346714
0.0 0.0 -0.00160516
0.0 0.0 -0.00160516
0.0 0.0 -0.000346714
0.0 0.0 -0.000346714
0.0 0.0 -0.00160516
0.0 0.0 -0.000346714
0.0 0.0 -0.000346714
0.0 0.0 -0.000346714
0.0 0.0 -0.00160516
0.0 0.0 -0.00160516
0.0 0.0 -0.000346714
0.0 0.0 -0.000346714
0.0 0.0 -0.000346714
0.0 0.0 -0.00160516
0.0 0.0 -0.000346714
0.0 0.0 -0.00160516
0.0 0.0 -0.000346714
0.0 0.0 -0.000346714
0.0 0.0 -0.000346714
0.0 0.0 -0.00160516
0.0 0.0 -0.000346714
0.0 0.0 0.0
0.0 0.0 -0.000346714
0.0 0.0 -0.00160516
0.0 0.0 0.0
0.0 0.0 0.0
0.0 0.0 0.0
0.0 0.0 0.0
0.0 0.0 0.0
0.0 0.0 0.0
0.0 0.0 0.0
0.0 0.0 0.0
VECTORS omega float
-992.473 989.332 -382.051
-6.96584 -489.483 41.4135
-22.1437 -763.499 282.936
-23.8108 -430.825 8.88875
-159.571 -635.818 80.1467
-35.3557 -802.009 -211.376
38.2172 -939.797 41.7994
-120.481 -784.882 136.935
21.7118 -428.596 -16.6867
76.7041 -627.093 -124.047
-58.2724 -349.03 -159.57
14.4665 -774.307 -29.4165
80.7319 -528.951 -17.0026
-48.9079 -339.712 55.9512
-64.2377 -642.793 -25.6299
59.0639 -620.989 -172.861
-63.2294 -618.397 106.136
-53.4663 -583.286 -0.656817
-77.3641 -677.115 -78.8827
-14.5255 -707.012 -252.742
36.4935 -1115.69 -292.116
66.3638 -694.914 514.879
52.949 -612.341 59.3002
-39.1927 -699.456 -13.8288