# vtk DataFile Version 2.0
Generated by lpp.py
ASCII
DATASET POLYDATA
POINTS 699 float
-0.486228 -0.000893184 -0.393552
-0.495046 0.00426581 -0.385664
-0.474019 0.0109405 -0.372218
-0.465448 -0.00494146 -0.356768
-0.469732 0.0294841 -0.355328
-0.458494 0.0288411 -0.349984
-0.447992 0.0162865 -0.346465
-0.445923 0.0243505 -0.33795
-0.440648 -0.00692575 -0.335718
-0.443505 0.0290305 -0.333298
-0.454246 0.0395572 -0.332949
-0.436502 0.0184869 -0.330086
-0.444122 0.0211222 -0.32946
-0.444001 -0.00598092 -0.328078
-0.433281 -0.00110489 -0.327265
-0.433276 0.00537429 -0.327346
-0.430588 -0.00133916 -0.322381
-0.433873 0.0123285 -0.325063
-0.431107 0.0117901 -0.321019
-0.435074 0.0270155 -0.32097
-0.42476 0.00472263 -0.315456
-0.418005 0.00389947 -0.318056
-0.437846 0.0386006 -0.318007
-0.426671 -0.022107 -0.311898
-0.423428 -0.0103049 -0.313075
-0.421785 0.0190338 -0.313326
-0.432415 0.0410751 -0.312304
-0.425811 -0.034062 -0.308805
-0.420665 -0.00825344 -0.311023
-0.415778 -0.0120379 -0.305438
-0.394407 -0.00657832 -0.294654
-0.400789 0.0144833 -0.293528
-0.397373 -0.00721191 -0.288367
-0.391632 -0.00891832 -0.289645
-0.393941 0.00548348 -0.287426
-0.395485 0.00968393 -0.289339
-0.400934 0.0235714 -0.289365
-0.404231 0.0290716 -0.287867
-0.389824 -0.00127112 -0.284212
-0.391647 0.00958792 -0.285165
-0.387985 0.00858489 -0.284148
-0.397869 0.0253161 -0.283504
-0.387596 -0.007464 -0.280675
-0.388942 0.0193411 -0.281379
-0.381776 -0.00951561 -0.276918
-0.379206 0.00531111 -0.276065
-0.375663 0.00643279 -0.275865
-0.406291 -0.0456557 -0.275304
-0.379025 -0.00778742 -0.272786
-0.383877 0.0255528 -0.273744
-0.371722 -0.00369598 -0.268803
-0.36668 -0.00671156 -0.266141
-0.363325 -0.00726452 -0.262166
-0.377389 0.0385434 -0.263886
-0.358387 -0.0191667 -0.261359
-0.392051 -0.0141881 -0.258368
-0.348684 0.00109839 -0.254381
-0.347335 0.00872223 -0.254487
-0.353282 0.0110736 -0.257379
-0.34555 -0.02389 -0.251118
-0.343581 -0.020145 -0.252101
-0.344025 0.00624716 -0.253057
-0.343695 0.00934235 -0.251736
-0.338469 0.0174909 -0.247924
-0.347745 0.0286829 -0.250231
-0.349672 -0.0388105 -0.246316
-0.341975 -0.0216829 -0.246747
-0.338051 -0.0232224 -0.24668
-0.331921 0.00445825 -0.246182
-0.327526 0.0107356 -0.243703
-0.332445 -0.0206183 -0.242926
-0.326607 -0.0183513 -0.241966
-0.317877 -0.00942409 -0.239667
-0.320827 -0.000699383 -0.240319
-0.327951 0.00312081 -0.243277
-0.323526 0.00782097 -0.242076
-0.323986 0.0203078 -0.240502
-0.340581 0.0406038 -0.241696
-0.337971 0.0389972 -0.240101
-0.321143 -0.0262326 -0.238056
-0.316759 0.00434862 -0.239436
-0.312903 0.00490909 -0.236692
-0.315478 0.00951498 -0.238547
-0.316309 0.0124078 -0.238739
-0.321569 0.017011 -0.239032
-0.315951 0.0168216 -0.237818
-0.320228 0.0291837 -0.236724
-0.322886 0.0312552 -0.237094
-0.315957 -0.0364663 -0.232462
-0.308542 -0.0245671 -0.233176
-0.311644 -0.0212251 -0.235385
-0.306633 -0.00356579 -0.235311
-0.303432 -0.00433963 -0.233933
-0.30603 0.000517937 -0.235157
-0.305034 0.0151006 -0.233596
-0.309343 0.0187836 -0.233578
-0.303781 -0.0302597 -0.229719
-0.305184 -0.0259586 -0.230302
-0.300116 -0.0041031 -0.231458
-0.295619 -0.000311115 -0.229692
-0.304552 0.0237161 -0.231718
-0.294906 -0.0254933 -0.226238
-0.297788 -0.0166404 -0.229314
-0.285924 -0.00945225 -0.22626
-0.29162 -0.00629928 -0.228882
-0.288189 -0.00637248 -0.227432
-0.290859 0.0103619 -0.227049
-0.285552 0.00840388 -0.22602
-0.297951 0.0159854 -0.22937
-0.287137 0.01447 -0.226259
-0.330124 -0.0571224 -0.225935
-0.301713 -0.0410837 -0.224879
-0.285146 -0.0144336 -0.224304
-0.284453 -0.00191039 -0.224925
-0.282268 0.00341352 -0.224956
-0.275457 0.00116846 -0.222238
-0.281507 0.00748696 -0.223295
-0.283359 -0.0278783 -0.222035
-0.279437 -0.0244643 -0.221282
-0.275581 -0.0171546 -0.221046
-0.270591 0.00109407 -0.219094
-0.276133 0.00673031 -0.221118
-0.26908 0.0087668 -0.219136
-0.27346 0.0164173 -0.220086
-0.281693 0.020282 -0.221764
-0.270353 -0.0278259 -0.21547
-0.268059 -0.00364786 -0.217918
-0.263453 -0.00344035 -0.216019
-0.266655 0.000712256 -0.218476
-0.264213 0.00216798 -0.217422
-0.262016 0.000247833 -0.216575
-0.262739 0.00726408 -0.216556
-0.268855 0.0133828 -0.218673
-0.273211 0.0234458 -0.217755
-0.269183 0.0279079 -0.216068
-0.279989 0.041784 -0.215934
-0.255932 -0.0209902 -0.212089
-0.254787 -0.00298577 -0.21239
-0.253045 0.000965028 -0.212739
-0.258532 0.0196747 -0.213362
-0.264272 0.0218112 -0.214312
-0.259605 0.0225942 -0.213357
-0.265889 0.0264956 -0.213906
-0.258975 0.0262925 -0.212302
-0.267111 0.032863 -0.213855
-0.274113 0.0442249 -0.212432
-0.266317 -0.0449472 -0.209161
-0.252195 -0.0149349 -0.210378
-0.248046 -0.0163755 -0.208029
-0.248191 -0.0124347 -0.20993
-0.248799 -0.00937109 -0.210651
-0.246697 -0.000920774 -0.209029
-0.250285 0.0183996 -0.2101
-0.245694 -0.0250923 -0.207129
-0.243652 -0.0179 -0.206266
-0.25251 -0.0108164 -0.207086
-0.243346 -0.00970125 -0.207206
-0.239365 -0.00258811 -0.205908
-0.242726 0.00103277 -0.206667
-0.239724 0.000142345 -0.207116
-0.238361 0.00368289 -0.206406
-0.240419 0.00989255 -0.205978
-0.245952 0.0146705 -0.20773
-0.291561 -0.0681579 -0.202848
-0.249621 -0.0411293 -0.203966
-0.245894 -0.0304379 -0.204645
-0.235995 -0.027596 -0.20126
-0.234736 -0.0190908 -0.202458
-0.234961 -0.0152032 -0.204182
-0.230328 -0.00782517 -0.202831
-0.230588 -0.00302148 -0.202231
-0.233803 0.0028495 -0.204533
-0.228485 0.0053527 -0.201127
-0.231841 0.022262 -0.20186
-0.245146 0.0363451 -0.203945
-0.237525 -0.0411372 -0.199011
-0.223128 -0.0225914 -0.198087
-0.226417 -0.0119466 -0.20085
-0.221699 -0.0129795 -0.19764
-0.224321 -0.00900056 -0.199131
-0.220243 -0.00891215 -0.197529
-0.224393 -0.00394072 -0.199586
-0.221175 0.0122338 -0.198628
-0.224596 0.0207263 -0.198732
-0.228284 0.022072 -0.200125
-0.223029 0.0241272 -0.197835
-0.234362 0.0324739 -0.200514
-0.218949 -0.00368033 -0.197275
-0.214665 -0.00500077 -0.195065
-0.219663 0.00144925 -0.197503
-0.214502 0.000508007 -0.19532
-0.210056 0.000945919 -0.194498
-0.217043 0.00638322 -0.1974
-0.214669 0.00486206 -0.195645
-0.211495 0.00643983 -0.19506
-0.216106 0.00958471 -0.196181
-0.210543 0.0092744 -0.194523
-0.21871 0.0142701 -0.196093
-0.216253 0.021614 -0.195467
-0.263329 -0.0668061 -0.193379
-0.2141 -0.0283469 -0.19201
-0.208773 -0.0289367 -0.190717
-0.212692 -0.023755 -0.193534
-0.209714 -0.0245921 -0.191001
-0.210492 -0.0180368 -0.192417
-0.206555 -0.00953347 -0.191631
-0.203853 0.010257 -0.191557
-0.210582 0.0176344 -0.193596
-0.210744 0.0332621 -0.190598
-0.196641 -0.0156046 -0.18683
-0.198229 -0.010815 -0.189137
-0.197826 -0.00743284 -0.189326
-0.19519 -0.00712621 -0.187912
-0.199219 -0.00316944 -0.189937
-0.194279 0.00515536 -0.187887
-0.196728 0.0154524 -0.188033
-0.198674 0.0195884 -0.188379
-0.208349 0.0388078 -0.188041
-0.193627 -0.0193879 -0.186189
-0.188064 -0.0123057 -0.184637
-0.193642 -0.0105077 -0.185951
-0.191978 -0.00479909 -0.186864
-0.198957 -0.00193602 -0.183759
-0.193293 -0.000768044 -0.186359
-0.187498 -0.00317664 -0.184977
-0.189634 0.00270934 -0.18594
-0.195803 0.0037485 -0.18375
-0.192291 0.00856759 -0.186848
-0.187562 0.0108729 -0.184579
-0.1886 0.0169289 -0.184466
-0.199475 0.0220911 -0.186638
-0.196616 0.02408 -0.186558
-0.184293 -0.0227135 -0.181933
-0.182547 -0.0173411 -0.18157
-0.190276 -0.00273445 -0.181745
-0.176436 0.00149813 -0.180376
-0.182597 0.00915948 -0.181575
-0.193258 0.010979 -0.183844
-0.189689 0.0233234 -0.182903
-0.197007 0.0375959 -0.182657
-0.178891 -0.0296408 -0.178241
-0.174892 -0.0154025 -0.17895
-0.173527 -0.0123992 -0.178703
-0.171054 -0.0108465 -0.177787
-0.175715 -0.0103637 -0.179809
-0.179829 -0.00483102 -0.177518
-0.171748 0.00143124 -0.178385
-0.173438 0.00672196 -0.177889
-0.197356 0.0107224 -0.179205
-0.176672 0.0105733 -0.178936
-0.173304 0.0237889 -0.176902
-0.173648 0.0271928 -0.176516
-0.177256 0.0276054 -0.177922
-0.164332 -0.0226507 -0.173567
-0.167908 -0.0106292 -0.17536
-0.166793 -0.00683039 -0.176167
-0.158927 0.0072575 -0.172858
-0.166334 0.0172048 -0.175129
-0.238946 -0.083008 -0.170927
-0.162358 -0.0329121 -0.170706
-0.160142 -0.0297283 -0.170345
-0.161047 -0.0267371 -0.171426
-0.161902 -0.018673 -0.172037
-0.154753 -0.0200085 -0.169944
-0.154949 -0.0120445 -0.170876
-0.171579 -0.00748401 -0.172862
-0.155547 -0.00836231 -0.171404
-0.151975 -0.010336 -0.169759
-0.152073 -0.00443864 -0.170141
-0.158042 -0.00285533 -0.17152
-0.155028 0.00219689 -0.17023
-0.153821 0.00880849 -0.170629
-0.155486 0.0127326 -0.171013
-0.154658 0.0170314 -0.170225
-0.164573 0.0200896 -0.172987
-0.157869 0.0176958 -0.171406
-0.157343 0.0214188 -0.169448
-0.164111 -0.0300934 -0.167816
-0.157578 -0.0251455 -0.169284
-0.150459 -0.0243559 -0.167356
-0.150133 -0.017693 -0.167996
-0.152852 -0.0147425 -0.16839
-0.146847 -0.00583143 -0.167852
-0.148288 -0.00271933 -0.168206
-0.149977 0.00093733 -0.168169
-0.17919 0.00733788 -0.167127
-0.147413 0.00516011 -0.167569
-0.144542 0.00755051 -0.166743
-0.152296 0.0132273 -0.168472
-0.147694 0.0117855 -0.166778
-0.156306 -0.043587 -0.165292
-0.142401 -0.0283274 -0.16346
-0.147602 -0.0223524 -0.16509
-0.135975 -0.0159968 -0.162549
-0.141556 -0.00529532 -0.164572
-0.145594 -0.00257623 -0.165654
-0.143266 -0.000983667 -0.163633
-0.135875 -0.0009285 -0.163359
-0.144343 0.00245578 -0.165692
-0.139208 0.00247977 -0.16466
-0.140588 0.00649511 -0.165074
-0.142289 0.0103181 -0.165699
-0.149703 0.0194268 -0.165063
-0.141042 0.0182349 -0.164374
-0.152153 -0.0522767 -0.160465
-0.14562 -0.0467551 -0.158835
-0.132641 -0.0167127 -0.161103
-0.132857 -0.0122334 -0.160516
-0.152521 -0.00578264 -0.15942
-0.133213 0.0141261 -0.161496
-0.145525 0.0335599 -0.162449
-0.195674 0.0378606 -0.163486
-0.148785 -0.054031 -0.158471
-0.144587 -0.0516876 -0.157762
-0.123986 -0.0237766 -0.156497
-0.129013 -0.0174693 -0.158406
-0.122765 -0.0170478 -0.156927
-0.124203 -0.0110677 -0.157987
-0.121367 -0.0131776 -0.155566
-0.118867 -0.00948154 -0.155795
-0.122702 -0.00625833 -0.156613
-0.125218 -0.00261363 -0.158842
-0.123424 0.00209288 -0.156063
[...]
POINT_DATA 699
VECTORS i float
0.0 0.0 0.0
0.0 0.0 0.0
0.0 0.0 0.0
0.0 0.0 0.0
0.0 0.0 0.0
0.0 0.0 0.0
0.0 0.0 0.0
0.0 0.0 0.0
0.0 0.0 0.0
0.0 0.0 0.0
0.0 0.0 0.0
0.0 0.0 0.0
0.0 0.0 0.0
0.0 0.0 0.0
0.0 0.0 0.0
0.0 0.0 0.0
0.0 0.0 0.0
0.0 0.0 0.0
0.0 0.0 0.0
0.0 0.0 0.0
0.0 0.0 0.0
0.0 0.0 0.0
0.0 0.0 0.0
0.0 0.0 0.0
0.0 0.0 0.0
0.0 0.0 0.0
0.0 0.0 0.0
0.0 0.0 0.0
0.0 0.0 0.0
0.0 0.0 0.0
0.0 0.0 0.0
0.0 0.0 0.0
0.0 0.0 0.0
0.0 0.0 0.0
0.0 0.0 0.0
0.0 0.0 0.0
0.0 0.0 0.0
0.0 0.0 0.0
0.0 0.0 0.0
0.0 0.0 0.0
0.0 0.0 0.0
0.0 0.0 0.0
0.0 0.0 0.0
0.0 0.0 0.0
0.0 0.0 0.0
0.0 0.0 0.0
0.0 0.0 0.0
0.0 0.0 0.0
0.0 0.0 0.0
0.0 0.0 0.0
0.0 0.0 0.0
0.0 0.0 0.0
0.0 0.0 0.0
0.0 0.0 0.0
0.0 0.0 0.0
0.0 0.0 0.0
0.0 0.0 0.0
0.0 0.0 0.0
0.0 0.0 0.0
0.0 0.0 0.0
0.0 0.0 0.0
0.0 0.0 0.0
0.0 0.0 0.0
0.0 0.0 0.0
0.0 0.0 0.0
0.0 0.0 0.0
0.0 0.0 0.0
0.0 0.0 0.0
0.0 0.0 0.0
0.0 0.0 0.0
0.0 0.0 0.0
0.0 0.0 0.0
0.0 0.0 0.0
0.0 0.0 0.0
0.0 0.0 0.0
0.0 0.0 0.0
0.0 0.0 0.0
0.0 0.0 0.0
0.0 0.0 0.0
0.0 0.0 0.0
0.0 0.0 0.0
0.0 0.0 0.0
0.0 0.0 0.0
0.0 0.0 0.0
0.0 0.0 0.0
0.0 0.0 0.0
0.0 0.0 0.0
0.0 0.0 0.0
0.0 0.0 0.0
0.0 0.0 0.0
0.0 0.0 0.0
0.0 0.0 0.0
0.0 0.0 0.0
0.0 0.0 0.0
0.0 0.0 0.0
0.0 0.0 0.0
0.0 0.0 0.0
0.0 0.0 0.0
0.0 0.0 0.0
0.0 0.0 0.0
0.0 0.0 0.0
0.0 0.0 0.0
0.0 0.0 0.0
0.0 0.0 0.0
0.0 0.0 0.0
0.0 0.0 0.0
0.0 0.0 0.0
0.0 0.0 0.0
0.0 0.0 0.0
0.0 0.0 0.0
0.0 0.0 0.0
0.0 0.0 0.0
0.0 0.0 0.0
0.0 0.0 0.0
0.0 0.0 0.0
0.0 0.0 0.0
0.0 0.0 0.0
0.0 0.0 0.0
0.0 0.0 0.0
0.0 0.0 0.0
0.0 0.0 0.0
0.0 0.0 0.0
0.0 0.0 0.0
0.0 0.0 0.0
0.0 0.0 0.0
0.0 0.0 0.0
0.0 0.0 0.0
0.0 0.0 0.0
0.0 0.0 0.0
0.0 0.0 0.0
0.0 0.0 0.0
0.0 0.0 0.0
0.0 0.0 0.0
0.0 0.0 0.0
0.0 0.0 0.0
0.0 0.0 0.0
0.0 0.0 0.0
0.0 0.0 0.0
0.0 0.0 0.0
0.0 0.0 0.0
0.0 0.0 0.0
0.0 0.0 0.0
0.0 0.0 0.0
0.0 0.0 0.0
0.0 0.0 0.0
0.0 0.0 0.0
0.0 0.0 0.0
0.0 0.0 0.0
0.0 0.0 0.0
0.0 0.0 0.0
0.0 0.0 0.0
0.0 0.0 0.0
0.0 0.0 0.0
0.0 0.0 0.0
0.0 0.0 0.0
0.0 0.0 0.0
0.0 0.0 0.0
0.0 0.0 0.0
0.0 0.0 0.0
0.0 0.0 0.0
0.0 0.0 0.0
0.0 0.0 0.0
0.0 0.0 0.0
0.0 0.0 0.0
0.0 0.0 0.0
0.0 0.0 0.0
0.0 0.0 0.0
0.0 0.0 0.0
0.0 0.0 0.0
0.0 0.0 0.0
0.0 0.0 0.0
0.0 0.0 0.0
0.0 0.0 0.0
0.0 0.0 0.0
0.0 0.0 0.0
0.0 0.0 0.0
0.0 0.0 0.0
0.0 0.0 0.0
0.0 0.0 0.0
0.0 0.0 0.0
0.0 0.0 0.0
0.0 0.0 0.0
0.0 0.0 0.0
0.0 0.0 0.0
0.0 0.0 0.0
0.0 0.0 0.0
0.0 0.0 0.0
0.0 0.0 0.0
0.0 0.0 0.0
0.0 0.0 0.0
0.0 0.0 0.0
0.0 0.0 0.0
0.0 0.0 0.0
0.0 0.0 0.0
0.0 0.0 0.0
0.0 0.0 0.0
0.0 0.0 0.0
0.0 0.0 0.0
0.0 0.0 0.0
0.0 0.0 0.0
0.0 0.0 0.0
0.0 0.0 0.0
0.0 0.0 0.0
0.0 0.0 0.0
0.0 0.0 0.0
0.0 0.0 0.0
0.0 0.0 0.0
0.0 0.0 0.0
0.0 0.0 0.0
0.0 0.0 0.0
0.0 0.0 0.0
0.0 0.0 0.0
0.0 0.0 0.0
0.0 0.0 0.0
0.0 0.0 0.0
0.0 0.0 0.0
0.0 0.0 0.0
0.0 0.0 0.0
0.0 0.0 0.0
0.0 0.0 0.0
0.0 0.0 0.0
0.0 0.0 0.0
0.0 0.0 0.0
0.0 0.0 0.0
0.0 0.0 0.0
0.0 0.0 0.0
0.0 0.0 0.0
0.0 0.0 0.0
0.0 0.0 0.0
0.0 0.0 0.0
0.0 0.0 0.0
0.0 0.0 0.0
0.0 0.0 0.0
0.0 0.0 0.0
0.0 0.0 0.0
0.0 0.0 0.0
0.0 0.0 0.0
0.0 0.0 0.0
0.0 0.0 0.0
0.0 0.0 0.0
0.0 0.0 0.0
0.0 0.0 0.0
0.0 0.0 0.0
0.0 0.0 0.0
0.0 0.0 0.0
0.0 0.0 0.0
0.0 0.0 0.0
0.0 0.0 0.0
0.0 0.0 0.0
0.0 0.0 0.0
0.0 0.0 0.0
0.0 0.0 0.0
0.0 0.0 0.0
0.0 0.0 0.0
0.0 0.0 0.0
0.0 0.0 0.0
0.0 0.0 0.0
0.0 0.0 0.0
0.0 0.0 0.0
0.0 0.0 0.0
0.0 0.0 0.0
0.0 0.0 0.0
0.0 0.0 0.0
0.0 0.0 0.0
0.0 0.0 0.0
0.0 0.0 0.0
0.0 0.0 0.0
0.0 0.0 0.0
0.0 0.0 0.0
0.0 0.0 0.0
0.0 0.0 0.0
0.0 0.0 0.0
0.0 0.0 0.0
0.0 0.0 0.0
0.0 0.0 0.0
0.0 0.0 0.0
0.0 0.0 0.0
0.0 0.0 0.0
0.0 0.0 0.0
0.0 0.0 0.0
0.0 0.0 0.0
0.0 0.0 0.0
0.0 0.0 0.0
0.0 0.0 0.0
0.0 0.0 0.0
0.0 0.0 0.0
0.0 0.0 0.0
0.0 0.0 0.0
0.0 0.0 0.0
0.0 0.0 0.0
0.0 0.0 0.0
0.0 0.0 0.0
0.0 0.0 0.0
0.0 0.0 0.0
0.0 0.0 0.0
0.0 0.0 0.0
0.0 0.0 0.0
0.0 0.0 0.0
0.0 0.0 0.0
0.0 0.0 0.0
0.0 0.0 0.0
0.0 0.0 0.0
0.0 0.0 0.0
0.0 0.0 0.0
0.0 0.0 0.0
0.0 0.0 0.0
0.0 0.0 0.0
0.0 0.0 0.0
0.0 0.0 0.0
0.0 0.0 0.0
0.0 0.0 0.0
0.0 0.0 0.0
0.0 0.0 0.0
0.0 0.0 0.0
0.0 0.0 0.0
0.0 0.0 0.0
0.0 0.0 0.0
0.0 0.0 0.0
0.0 0.0 0.0
0.0 0.0 0.0
0.0 0.0 0.0
0.0 0.0 0.0
0.0 0.0 0.0
0.0 0.0 0.0
0.0 0.0 0.0
0.0 0.0 0.0
0.0 0.0 0.0
0.0 0.0 0.0
0.0 0.0 0.0
0.0 0.0 0.0
0.0 0.0 0.0
0.0 0.0 0.0
0.0 0.0 0.0
0.0 0.0 0.0
0.0 0.0 0.0
0.0 0.0 0.0
0.0 0.0 0.0
0.0 0.0 0.0
0.0 0.0 0.0
0.0 0.0 0.0
0.0 0.0 0.0
0.0 0.0 0.0
0.0 0.0 0.0
0.0 0.0 0.0
0.0 0.0 0.0
0.0 0.0 0.0
0.0 0.0 0.0
0.0 0.0 0.0
0.0 0.0 0.0
0.0 0.0 0.0
0.0 0.0 0.0
0.0 0.0 0.0
0.0 0.0 0.0
0.0 0.0 0.0
0.0 0.0 0.0
0.0 0.0 0.0
0.0 0.0 0.0
0.0 0.0 0.0
0.0 0.0 0.0
0.0 0.0 0.0
0.0 0.0 0.0
0.0 0.0 0.0
0.0 0.0 0.0
0.0 0.0 0.0
0.0 0.0 0.0
0.0 0.0 0.0
0.0 0.0 0.0
0.0 0.0 0.0
0.0 0.0 0.0
0.0 0.0 0.0
0.0 0.0 0.0
0.0 0.0 0.0
0.0 0.0 0.0
0.0 0.0 0.0
0.0 0.0 0.0
0.0 0.0 0.0
0.0 0.0 0.0
0.0 0.0 0.0
0.0 0.0 0.0
0.0 0.0 0.0
0.0 0.0 0.0
0.0 0.0 0.0
0.0 0.0 0.0
0.0 0.0 0.0
0.0 0.0 0.0
0.0 0.0 0.0
0.0 0.0 0.0
0.0 0.0 0.0
0.0 0.0 0.0
0.0 0.0 0.0
0.0 0.0 0.0
0.0 0.0 0.0
0.0 0.0 0.0
0.0 0.0 0.0
0.0 0.0 0.0
0.0 0.0 0.0
0.0 0.0 0.0
0.0 0.0 0.0
0.0 0.0 0.0
0.0 0.0 0.0
0.0 0.0 0.0
0.0 0.0 0.0
0.0 0.0 0.0
0.0 0.0 0.0
0.0 0.0 0.0
0.0 0.0 0.0
0.0 0.0 0.0
0.0 0.0 0.0
0.0 0.0 0.0
0.0 0.0 0.0
0.0 0.0 0.0
0.0 0.0 0.0
0.0 0.0 0.0
0.0 0.0 0.0
0.0 0.0 0.0
0.0 0.0 0.0
0.0 0.0 0.0
0.0 0.0 0.0
0.0 0.0 0.0
0.0 0.0 0.0
0.0 0.0 0.0
0.0 0.0 0.0
0.0 0.0 0.0
0.0 0.0 0.0
0.0 0.0 0.0
0.0 0.0 0.0
0.0 0.0 0.0
0.0 0.0 0.0
0.0 0.0 0.0
0.0 0.0 0.0
0.0 0.0 0.0
0.0 0.0 0.0
0.0 0.0 0.0
0.0 0.0 0.0
0.0 0.0 0.0
0.0 0.0 0.0
0.0 0.0 0.0
0.0 0.0 0.0
0.0 0.0 0.0
0.0 0.0 0.0
0.0 0.0 0.0
0.0 0.0 0.0
0.0 0.0 0.0
0.0 0.0 0.0
0.0 0.0 0.0
0.0 0.0 0.0
0.0 0.0 0.0
0.0 0.0 0.0
0.0 0.0 0.0
0.0 0.0 0.0
0.0 0.0 0.0
0.0 0.0 0.0
0.0 0.0 0.0
0.0 0.0 0.0
0.0 0.0 0.0
0.0 0.0 0.0
0.0 0.0 0.0
0.0 0.0 0.0
0.0 0.0 0.0
0.0 0.0 0.0
0.0 0.0 0.0
0.0 0.0 0.0
0.0 0.0 0.0
0.0 0.0 0.0
0.0 0.0 0.0
0.0 0.0 0.0
0.0 0.0 0.0
0.0 0.0 0.0
0.0 0.0 0.0
0.0 0.0 0.0
0.0 0.0 0.0
0.0 0.0 0.0
0.0 0.0 0.0
0.0 0.0 0.0
0.0 0.0 0.0
0.0 0.0 0.0
0.0 0.0 0.0
0.0 0.0 0.0
0.0 0.0 0.0
0.0 0.0 0.0
0.0 0.0 0.0
0.0 0.0 0.0
0.0 0.0 0.0
0.0 0.0 0.0
0.0 0.0 0.0
0.0 0.0 0.0
0.0 0.0 0.0
0.0 0.0 0.0
0.0 0.0 0.0
0.0 0.0 0.0
0.0 0.0 0.0
0.0 0.0 0.0
0.0 0.0 0.0
0.0 0.0 0.0
0.0 0.0 0.0
0.0 0.0 0.0
0.0 0.0 0.0
0.0 0.0 0.0
0.0 0.0 0.0
0.0 0.0 0.0
0.0 0.0 0.0
0.0 0.0 0.0
0.0 0.0 0.0
0.0 0.0 0.0
0.0 0.0 0.0
0.0 0.0 0.0
0.0 0.0 0.0
0.0 0.0 0.0
0.0 0.0 0.0
0.0 0.0 0.0
0.0 0.0 0.0
0.0 0.0 0.0
0.0 0.0 0.0
0.0 0.0 0.0
0.0 0.0 0.0
0.0 0.0 0.0
0.0 0.0 0.0
0.0 0.0 0.0
0.0 0.0 0.0
0.0 0.0 0.0
0.0 0.0 0.0
0.0 0.0 0.0
0.0 0.0 0.0
0.0 0.0 0.0
0.0 0.0 0.0
0.0 0.0 0.0
0.0 0.0 0.0
0.0 0.0 0.0
0.0 0.0 0.0
0.0 0.0 0.0
0.0 0.0 0.0
0.0 0.0 0.0
0.0 0.0 0.0
0.0 0.0 0.0
0.0 0.0 0.0
0.0 0.0 0.0
0.0 0.0 0.0
0.0 0.0 0.0
0.0 0.0 0.0
0.0 0.0 0.0
0.0 0.0 0.0
0.0 0.0 0.0
0.0 0.0 0.0
0.0 0.0 0.0
0.0 0.0 0.0
0.0 0.0 0.0
0.0 0.0 0.0
0.0 0.0 0.0
0.0 0.0 0.0
0.0 0.0 0.0
0.0 0.0 0.0
0.0 0.0 0.0
0.0 0.0 0.0
0.0 0.0 0.0
0.0 0.0 0.0
0.0 0.0 0.0
0.0 0.0 0.0
0.0 0.0 0.0
0.0 0.0 0.0
0.0 0.0 0.0
0.0 0.0 0.0
0.0 0.0 0.0
0.0 0.0 0.0
0.0 0.0 0.0
0.0 0.0 0.0
0.0 0.0 0.0
0.0 0.0 0.0
0.0 0.0 0.0
0.0 0.0 0.0
0.0 0.0 0.0
0.0 0.0 0.0
0.0 0.0 0.0
0.0 0.0 0.0
0.0 0.0 0.0
0.0 0.0 0.0
0.0 0.0 0.0
0.0 0.0 0.0
0.0 0.0 0.0
0.0 0.0 0.0
0.0 0.0 0.0
0.0 0.0 0.0
0.0 0.0 0.0
0.0 0.0 0.0
0.0 0.0 0.0
0.0 0.0 0.0
0.0 0.0 0.0
0.0 0.0 0.0
0.0 0.0 0.0
0.0 0.0 0.0
0.0 0.0 0.0
0.0 0.0 0.0
0.0 0.0 0.0
0.0 0.0 0.0
0.0 0.0 0.0
0.0 0.0 0.0
0.0 0.0 0.0
0.0 0.0 0.0
0.0 0.0 0.0
0.0 0.0 0.0
0.0 0.0 0.0
0.0 0.0 0.0
0.0 0.0 0.0
0.0 0.0 0.0
0.0 0.0 0.0
0.0 0.0 0.0
0.0 0.0 0.0
0.0 0.0 0.0
0.0 0.0 0.0
0.0 0.0 0.0
0.0 0.0 0.0
0.0 0.0 0.0
0.0 0.0 0.0
0.0 0.0 0.0
0.0 0.0 0.0
0.0 0.0 0.0
0.0 0.0 0.0
0.0 0.0 0.0
0.0 0.0 0.0
0.0 0.0 0.0
0.0 0.0 0.0
0.0 0.0 0.0
0.0 0.0 0.0
0.0 0.0 0.0
0.0 0.0 0.0
0.0 0.0 0.0
0.0 0.0 0.0
0.0 0.0 0.0
0.0 0.0 0.0
0.0 0.0 0.0
0.0 0.0 0.0
0.0 0.0 0.0
0.0 0.0 0.0
0.0 0.0 0.0
0.0 0.0 0.0
0.0 0.0 0.0
0.0 0.0 0.0
0.0 0.0 0.0
0.0 0.0 0.0
0.0 0.0 0.0
0.0 0.0 0.0
0.0 0.0 0.0
0.0 0.0 0.0
0.0 0.0 0.0
0.0 0.0 0.0
0.0 0.0 0.0
0.0 0.0 0.0
0.0 0.0 0.0
0.0 0.0 0.0
0.0 0.0 0.0
0.0 0.0 0.0
0.0 0.0 0.0
0.0 0.0 0.0
0.0 0.0 0.0
0.0 0.0 0.0
0.0 0.0 0.0
0.0 0.0 0.0
0.0 0.0 0.0
0.0 0.0 0.0
0.0 0.0 0.0
0.0 0.0 0.0
0.0 0.0 0.0
0.0 0.0 0.0
0.0 0.0 0.0
0.0 0.0 0.0
0.0 0.0 0.0
0.0 0.0 0.0
0.0 0.0 0.0
0.0 0.0 0.0
0.0 0.0 0.0
0.0 0.0 0.0
0.0 0.0 0.0
0.0 0.0 0.0
0.0 0.0 0.0
0.0 0.0 0.0
0.0 0.0 0.0
0.0 0.0 0.0
0.0 0.0 0.0
0.0 0.0 0.0
0.0 0.0 0.0
0.0 0.0 0.0
0.0 0.0 0.0
0.0 0.0 0.0
0.0 0.0 0.0
0.0 0.0 0.0
0.0 0.0 0.0
0.0 0.0 0.0
0.0 0.0 0.0
0.0 0.0 0.0
0.0 0.0 0.0
0.0 0.0 0.0
0.0 0.0 0.0
0.0 0.0 0.0
0.0 0.0 0.0
0.0 0.0 0.0
0.0 0.0 0.0
0.0 0.0 0.0
0.0 0.0 0.0
0.0 0.0 0.0
0.0 0.0 0.0
VECTORS f float
0.0 0.0 -0.000346714
0.0 0.0 -0.000346714
0.0 0.0 -0.00160516
0.0 0.0 -0.00160516
0.0 0.0 -0.000346714
0.0 0.0 -0.000346714
0.0 0.0 -0.000346714
0.0 0.0 -0.000346714
0.0 0.0 -0.000346714
0.0 0.0 -0.000346714
0.0 0.0 -0.00160516
0.0 0.0 -0.000346714
0.0 0.0 -0.00160516
0.0 0.0 -0.00160516
0.0 0.0 -0.000346714
0.0 0.0 -0.000346714
0.0 0.0 -0.000346714
0.0 0.0 -0.000346714
0.0 0.0 -0.00160516
0.0 0.0 -0.000346714
0.0 0.0 -0.000346714
0.0 0.0 -0.000346714
0.0 0.0 -0.000346714
0.0 0.0 -0.00160516
0.0 0.0 -0.000346714
0.0 0.0 -0.000346714
0.0 0.0 -0.000346714
0.0 0.0 -0.000346714
0.0 0.0 -0.000346714
0.0 0.0 -0.00160516
0.0 0.0 -0.000346714
0.0 0.0 -0.000346714
0.0 0.0 -0.00160516
0.0 0.0 -0.000346714
0.0 0.0 -0.00160516
0.0 0.0 -0.000346714
0.0 0.0 -0.00160516
0.0 0.0 -0.000346714
0.0 0.0 -0.000346714
0.0 0.0 -0.000346714
0.0 0.0 -0.000346714
0.0 0.0 -0.00160516
0.0 0.0 -0.00160516
0.0 0.0 -0.000346714
0.0 0.0 -0.00160516
0.0 0.0 -0.000346714
0.0 0.0 -0.000346714
0.0 0.0 -0.000346714
0.0 0.0 -0.000346714
0.0 0.0 -0.00160516
0.0 0.0 -0.00160516
0.0 0.0 -0.000346714
0.0 0.0 -0.00160516
0.0 0.0 -0.000346714
0.0 0.0 -0.000346714
0.0 0.0 -0.00160516
0.0 0.0 -0.00160516
0.0 0.0 -0.000346714
0.0 0.0 -0.00160516
0.0 0.0 -0.000346714
0.0 0.0 -0.000346714
0.0 0.0 -0.000346714
0.0 0.0 -0.000346714
0.0 0.0 -0.000346714
0.0 0.0 -0.000346714
0.0 0.0 -0.000346714
0.0 0.0 -0.00160516
0.0 0.0 -0.000346714
0.0 0.0 -0.000346714
0.0 0.0 -0.000346714
0.0 0.0 -0.00160516
0.0 0.0 -0.000346714
4.32561e-05 2.44538e-05 0.000186776
-0.000409923 3.45251e-05 -0.000174739
0.0 0.0 -0.00160516
0.0 0.0 -0.000346714
0.0 0.0 -0.000346714
0.0 0.0 -0.000346714
0.0 0.0 -0.000346714
0.0 0.0 -0.000346714
-8.88787e-05 -1.32885e-05 -3.8918e-05
-0.000398477 -5.82784e-05 -0.000214257
0.0 0.0 -0.000346714
-3.52558e-06 -0.000171562 0.00017338
-0.000394988 -0.00018471 -0.000199167
-9.28344e-05 -4.36335e-05 -2.50358e-05
-7.75071e-05 -6.55047e-05 -5.63877e-05
-7.90116e-05 -6.67696e-05 -5.29992e-05
0.0 0.0 -0.000346714
0.0 0.0 -0.000346714
-0.00149373 0.00107906 0.00516806
-8.37525e-05 6.98637e-06 -5.15017e-05
-8.91766e-05 7.35557e-06 -3.63731e-05
-8.82747e-05 -1.31703e-05 -3.81294e-05
-8.47748e-05 -3.94844e-05 -4.46527e-05
-0.000396876 -0.000185064 -0.000194862
0.0 0.0 -0.000346714
0.0 0.0 -0.00160516
-0.00033826 2.78006e-05 -0.000249371
-0.000399074 3.17867e-05 -0.000209138
-8.5171e-05 -3.97174e-05 -4.36452e-05
0.0 0.0 -0.00160516
-0.000394711 0.00017804 -0.00020052
-0.000105595 2.83399e-05 5.63072e-06
-8.54439e-05 7.03953e-06 -4.39442e-05
-7.9956e-05 6.22198e-06 -5.71967e-05
-0.000428716 -6.4905e-05 -0.000140649
-6.19533e-05 -8.72613e-06 -0.000113842
-0.000415097 -0.000195183 -0.00012445
-8.69494e-05 -3.65137e-05 -4.43702e-05
0.0 0.0 -0.000346714
0.0 0.0 -0.000346714
-0.000403785 0.000104396 -0.000186207
-0.000409721 3.25093e-05 -0.000174831
2.26256e-05 -1.191e-05 2.75876e-06
5.96899e-05 8.79695e-05 0.000766166
-0.000410236 -5.63499e-05 -0.000153418
-7.7404e-05 5.15014e-05 -5.81075e-05
-0.000150512 6.93763e-05 0.00011232
-8.53534e-05 3.85449e-05 -4.15159e-05
0.000315108 -0.000329474 0.0034588
-0.000254755 -3.5862e-05 -0.000509596
-5.0217e-05 -5.59205e-06 -0.000122787
2.52921e-05 -3.55322e-05 -2.3407e-05
0.0 0.0 -0.00160516
0.0 0.0 -0.00160516
-0.00687926 7.64974e-05 -0.00947231
0.00800649 0.000540864 0.00503059
0.0 0.0 -0.000346714
-0.000118089 -1.30868e-05 2.61334e-05
-9.91484e-05 -0.000343602 -0.000104367
-0.000159977 3.55072e-05 0.000104703
-8.26324e-05 -3.03669e-05 -5.73906e-05
-0.000465289 -0.00018223 -4.18288e-05
3.06561e-05 -7.02854e-05 -2.21357e-05
-0.000113897 -0.000133737 0.000132152
0.0 0.0 -0.000346714
-0.000416483 4.3676e-05 -0.000151716
2.19776e-05 -1.32329e-05 8.98234e-06
-8.05762e-05 -2.93274e-05 -5.07958e-05
0.00243325 -0.0158467 -0.00416867
-4.75815e-05 -1.81622e-05 -0.000119207
-0.00243325 0.0158467 0.000958351
0.0 0.0 -0.000346714
-9.60117e-05 -6.94076e-05 9.64312e-06
0.0 0.0 -0.000346714
-1.971e-05 2.26601e-05 -0.000188042
-0.0134804 0.00328525 -0.0209879
0.0078378 -0.00098226 0.0111948
0.0 0.0 -0.000346714
-9.43598e-05 1.09994e-05 -2.49214e-05
0.000303349 -9.15515e-06 -0.00201081
-5.24658e-05 -1.71959e-05 -0.000126604
0.000390169 -8.3726e-05 -0.00149504
0.00564264 -0.00230299 0.00497762
0.0 0.0 -0.000346714
7.85631e-05 4.62613e-05 6.20047e-05
0.0 0.0 -0.000346714
0.0 0.0 -0.000346714
-0.000136101 -1.13734e-05 5.51706e-05
4.16106e-05 2.88452e-06 -0.000395524
-0.000406699 -3.19031e-05 -0.000170145
-0.00045578 -0.000154734 -0.000108022
0.0 0.0 -0.000346714
0.0 0.0 -0.000346714
-0.000364024 0.00026337 -0.000220452
0.0 0.0 -0.00160516
-0.000388129 0.000192286 -0.000197576
0.0 0.0 -0.000346714
-8.8896e-05 1.65757e-05 -3.4255e-05
-0.00135086 0.000266316 0.002805
-5.63797e-05 -4.35453e-06 -8.01818e-05
-0.000476049 -2.70888e-05 -9.10629e-05
2.82298e-06 4.16008e-05 1.04444e-05
-8.59998e-05 -5.55188e-05 -3.81385e-05
0.0 0.0 -0.000346714
-0.000403032 0.000230954 0.000600831
1.88147e-05 1.43126e-06 8.22726e-06
0.000654477 -0.00146402 -0.000123678
-0.00102163 0.000437613 0.000636062
0.0 0.0 -0.000346714
-0.000265272 5.03313e-05 -0.000416029
0.0 0.0 -0.000346714
0.0 0.0 -0.000346714
0.0 0.0 -0.000346714
0.0 0.0 -0.000346714
-8.36676e-05 -5.10813e-05 -4.3341e-05
-0.000175343 -4.02253e-05 -8.04564e-05
0.000278957 -0.00011711 -0.00121136
-0.000126168 -1.14209e-05 -0.00099147
-0.000389348 -1.07301e-05 -0.000219364
-8.77607e-05 -1.39176e-06 -3.65451e-05
-1.32076e-05 0.00107473 0.00412871
0.0 0.0 -0.000346714
-8.77765e-05 -1.39195e-06 -3.65169e-05
0.0 0.0 -0.000346714
1.91009e-05 -6.88767e-05 7.25538e-07
0.0 0.0 -0.00160516
0.0 0.0 -0.000346714
0.0 0.0 -0.00160516
-0.00162095 0.00102664 0.00313907
0.0 0.0 -0.000346714
0.000737614 -0.000243808 -0.000521132
-0.000424497 0.000108356 -0.00170459
-0.00135504 0.000322455 0.00186332
-0.000400549 0.000101635 -0.000177776
-8.484e-05 -2.24245e-05 -3.60317e-05
-0.000148108 -4.31525e-05 0.000107221
-8.30747e-05 -4.49864e-05 -4.37903e-05
8.65302e-05 5.47757e-05 -2.31224e-05
-0.000109823 2.79114e-05 1.45026e-05
-0.000138545 3.54606e-05 8.61481e-05
0.0 0.0 -0.000346714
-8.93304e-05 3.63859e-07 -3.85582e-05
-8.78012e-05 1.41547e-06 -3.63937e-05
-9.29812e-05 -2.2223e-05 -3.39748e-05
0.0 0.0 -0.000346714
-7.88172e-05 -6.58873e-05 -5.78408e-05
-0.000376007 0.000283221 -0.000928847
0.0 0.0 -0.000346714
0.0 0.0 -0.00160516
-3.64521e-05 4.86092e-06 -0.00020515
0.0 0.0 -0.00160516
-0.000423444 7.57634e-06 -0.0006902
-8.95342e-05 3.15114e-06 -3.87393e-05
-8.12003e-05 1.29587e-06 -4.93511e-05
0.0 0.0 -0.00160516
-0.000930474 0.00165365 0.000988084
3.34332e-05 8.68318e-06 -0.000400059
-8.73679e-05 -1.88286e-05 -3.8158e-05
0.0 0.0 -0.000346714
0.0 0.0 -0.000346714
6.17886e-05 9.94297e-05 0.000473484
0.0 0.0 -0.000346714
0.0 0.0 -0.000346714
-8.84312e-05 3.97437e-06 -3.6628e-05
9.76161e-05 -4.08008e-05 3.81926e-05
-0.00167008 0.000962817 0.00313126
-0.000396605 -0.000190584 -0.000203869
-0.000368429 -0.000299465 -0.000252085
0.0 0.0 -0.000346714
-6.70659e-05 1.9786e-05 -7.93731e-05
2.21168e-05 4.06436e-05 1.73332e-05
-0.0061747 0.00081294 -0.00260697
-8.90296e-05 1.74766e-05 -3.92003e-05
0.0 0.0 -0.00160516
0.0 0.0 -0.000346714
-0.000428601 -8.37076e-05 -0.00016548
0.0 0.0 -0.00160516
-0.000404228 -8.12272e-05 -0.000185693
0.0 0.0 -0.000346714
-1.86447e-05 -4.96435e-05 -0.000281806
-8.44516e-05 -4.06189e-05 -4.28073e-05
-6.68311e-05 2.75754e-05 -7.86669e-05
0.00938522 0.000506201 0.0124204
0.0 0.0 -0.000346714
0.0 0.0 -0.000346714
-9.48278e-05 -1.80743e-05 -1.85879e-05
0.0 0.0 -0.000346714
0.0 0.0 -0.000346714
0.0 0.0 -0.000346714
0.0 0.0 -0.000346714
9.55641e-05 9.85439e-05 1.41844e-05
-8.62801e-05 2.52778e-05 -3.87001e-05
0.0 0.0 -0.000346714
0.0 0.0 -0.00160516
-8.92313e-05 1.18804e-05 -3.90013e-05
0.0 0.0 -0.000346714
-8.96805e-05 1.1924e-05 -3.83224e-05
0.0 0.0 -0.00160516
-0.00039127 -1.13433e-05 -0.000187113
0.0 0.0 -0.000346714
-2.33802e-05 -5.81142e-06 -0.000130759
-8.78361e-05 -2.03055e-05 -4.4666e-05
-0.000400325 -0.00044995 0.00484951
0.0 0.0 -0.000346714
0.0 0.0 -0.00160516
0.0 0.0 -0.000346714
-0.000402529 0.000167087 -0.000198818
0.0 0.0 -0.000346714
0.0 0.0 -0.000346714
0.0 0.0 -0.00160516
2.32171e-05 4.41435e-05 8.0571e-06
0.0 0.0 -0.000346714
-0.00148079 4.10076e-05 0.00244442
0.0 0.0 -0.00160516
0.0 0.0 -0.000346714
-9.12499e-05 -5.15408e-06 -3.73734e-05
0.0 0.0 -0.00160516
0.0 0.0 -0.000346714
0.0 0.0 -0.000346714
-8.49656e-05 3.46559e-05 -4.07163e-05
0.0 0.0 -0.00160516
-6.95301e-05 1.5479e-05 -7.98055e-05
-0.00039738 2.8262e-05 -0.000226973
0.0 0.0 -0.000346714
0.0 0.0 -0.000346714
-0.00011411 8.76869e-06 2.4215e-05
0.00197676 -0.000152777 -0.00656748
-8.69318e-05 -8.06124e-06 -3.60571e-05
-8.69962e-05 -8.06902e-06 -3.58758e-05
-1.1237e-05 -8.57664e-07 -0.000251695
0.0 0.0 -0.00160516
-8.8647e-05 -2.62555e-05 -4.23913e-05
0.0 0.0 -0.000346714
0.00186029 0.00725898 0.0220622
-8.66606e-05 1.95995e-05 -3.80349e-05
-0.000412589 7.14986e-05 -0.000182227
0.0 0.0 -0.000346714
0.0 0.0 -0.000346714
-0.000115548 -5.71213e-05 -0.000819164
0.0 0.0 -0.000346714
-7.25272e-05 7.30232e-05 -5.70272e-05
0.0 0.0 -0.000346714
-8.33872e-05 2.85969e-05 -6.45649e-05
-0.000220994 7.98003e-05 -0.000489735
-8.71267e-05 2.89581e-05 -4.07442e-05
0.000130192 -7.65523e-05 -0.000671674
-0.00039832 6.59208e-05 -0.000196473
0.0 0.0 -0.000346714
-0.000297938 5.46976e-05 -0.000336866
-8.96441e-05 9.15719e-07 -3.83468e-05
0.0 0.0 -0.00160516
0.0 0.0 -0.000346714
1.04287e-05 -6.12588e-05 -0.000100016
0.0 0.0 -0.00160516
-0.000374322 -5.89263e-05 -0.000228598
0.0 0.0 -0.000346714
-8.70827e-05 -3.09813e-05 -4.05609e-05
-7.98119e-05 -6.34348e-05 -5.28903e-05
0.0 0.0 -0.00160516
-0.0172857 0.00636221 0.0655479
9.06715e-05 -1.05941e-06 -0.000559341
0.00383754 0.0024015 0.00465536
8.49151e-05 -5.61993e-05 0.0010206
-8.77247e-05 -1.57987e-05 -3.78943e-05
0.0 0.0 -0.00160516
-8.84217e-05 -1.49746e-05 -3.84563e-05
0.0 0.0 -0.00160516
-0.000403152 -0.000143727 -0.00018452
-8.33477e-05 -4.76969e-05 -4.5688e-05
-7.89624e-05 -6.38972e-05 -5.30314e-05
0.0 0.0 -0.000346714
0.0 0.0 -0.000346714
-7.65584e-05 2.16118e-05 -0.000169824
6.79708e-05 0.000680748 0.000448841
0.0 0.0 -0.000346714
-0.00139551 0.000214988 0.00189877
-8.869e-05 1.3102e-05 -3.84967e-05
-0.0246289 0.00363173 -0.00589854
0.0211118 -0.00699001 0.00610275
0.0 0.0 -0.000346714
0.0 0.0 -0.000346714
0.0 0.0 -0.000346714
0.0 0.0 -0.000346714
0.0 0.0 -0.00160516
-0.000210661 -3.99374e-05 -0.000650706
-0.000367097 0.000275164 -0.000253707
0.0 0.0 -0.00160516
0.0 0.0 -0.000346714
-0.0191381 0.00743489 0.0750707
-0.000110519 0.000341031 0.00208398
0.0 0.0 -0.000346714
0.0 0.0 -0.000346714
0.0 0.0 -0.000346714
0.0 0.0 -0.00160516
-0.000719079 -0.000147985 0.000630066
-6.07897e-05 -0.00163993 0.00432287
0.0 0.0 -0.000346714
-7.28963e-05 8.03343e-05 -6.2568e-05
-8.72889e-05 4.30706e-05 -3.95219e-05
-0.000172154 5.81775e-05 -0.000438847
0.0 0.0 -0.000346714
0.0 0.0 -0.000346714
0.0 0.0 -0.000346714
-0.000407448 -1.68641e-05 -0.000168478
-0.0105191 -0.00462271 0.0262203
0.0 0.0 -0.00160516
-0.000445276 -1.04348e-05 -0.000136292
-0.000768013 -6.38673e-06 0.000805455
2.23735e-05 -1.85262e-06 9.32257e-06
-0.000408531 -8.05339e-05 -0.00018172
0.0 0.0 -0.000346714
0.0 0.0 -0.000346714
-0.00040652 0.000196554 -0.000181491
0.0 0.0 -0.000346714
0.0 0.0 -0.00160516
0.0 0.0 -0.00160516
0.000139849 -0.000371774 0.0234158
0.0 0.0 -0.000346714
0.0 0.0 -0.000346714
-8.469e-05 -2.84361e-06 -4.945e-05
0.0 0.0 -0.000346714
-8.90687e-05 -3.24528e-06 -3.78822e-05
0.0 0.0 -0.000346714
0.0 0.0 -0.00160516
1.38056e-05 2.88336e-05 8.32953e-06