# vtk DataFile Version 2.0
Generated by lpp.py
ASCII
DATASET POLYDATA
POINTS 410 float
-0.255184 -0.0645642 -0.191432
-0.200212 0.0222573 -0.188654
-0.199897 -0.0160669 -0.188168
-0.194159 -0.00731907 -0.187756
-0.194938 0.0044588 -0.187076
-0.191704 0.00934126 -0.186471
-0.190542 0.0159273 -0.185368
-0.194982 0.0215913 -0.18658
-0.1927 -0.027045 -0.1846
-0.184578 -0.00911203 -0.182549
-0.18441 -0.0047544 -0.183629
-0.178078 0.00385931 -0.180978
-0.186049 0.0205804 -0.183028
-0.171636 -0.00893509 -0.17817
-0.174503 -0.00257712 -0.179488
-0.170462 0.0021264 -0.17789
-0.173052 0.00490807 -0.178967
-0.170425 0.00618886 -0.177741
-0.177061 0.0149628 -0.179815
-0.181179 0.0250131 -0.180081
-0.255496 0.0800256 -0.178238
-0.193814 -0.0590351 -0.174012
-0.166371 -0.0059333 -0.176093
-0.166374 0.000473781 -0.176167
-0.162058 0.00353297 -0.174303
-0.17044 0.0155848 -0.175891
-0.164821 0.0154701 -0.174641
-0.17752 0.0356672 -0.176398
-0.158319 -0.00965209 -0.171429
-0.153418 0.000758616 -0.170664
-0.164834 0.0271788 -0.171719
-0.163825 0.0368127 -0.170382
-0.151333 -0.022709 -0.166995
-0.153865 -0.0183559 -0.168691
-0.149852 -0.0133904 -0.168676
-0.145577 0.0110862 -0.167039
-0.155273 0.0179976 -0.169301
-0.152629 0.0240869 -0.168404
-0.147218 -0.0211482 -0.166687
-0.140265 -0.013107 -0.163512
-0.15499 -0.0101417 -0.165721
-0.136415 -0.00859847 -0.163359
-0.145003 0.00794637 -0.166539
-0.14098 0.0120541 -0.163979
-0.138757 0.0158692 -0.16368
-0.132369 -0.00668676 -0.161722
-0.129359 0.00601663 -0.160332
-0.134365 0.014025 -0.162088
-0.132304 0.0182163 -0.15957
-0.136653 0.0247411 -0.160548
-0.144247 0.0277925 -0.163099
-0.1518 -0.0526906 -0.159016
-0.126356 -0.00928199 -0.15883
-0.128052 -0.00527008 -0.158881
-0.123072 -0.00648513 -0.156693
-0.128213 0.00811323 -0.158368
-0.129569 0.0240107 -0.158723
-0.130843 -0.0411437 -0.155568
-0.124636 -0.0223074 -0.155455
-0.117509 -0.0257781 -0.152803
-0.12271 -0.0151033 -0.155996
-0.127837 -0.00832657 -0.155396
-0.126489 -0.00353303 -0.155309
-0.119867 -0.00402645 -0.153606
-0.114213 -0.0029195 -0.153515
-0.112046 -0.000851221 -0.15301
-0.11394 0.00151827 -0.153217
-0.120914 0.00783835 -0.155601
-0.115544 0.0103003 -0.153282
-0.118516 0.0132346 -0.155421
-0.116658 0.015098 -0.153922
-0.116619 0.0208628 -0.153804
-0.110842 -0.0122422 -0.151199
-0.106168 -0.011387 -0.149729
-0.111451 -0.00457499 -0.152981
-0.118025 -0.00022683 -0.150728
-0.118004 0.00299761 -0.151431
-0.108546 2.23915e-05 -0.151213
-0.123702 0.00950563 -0.152437
-0.104151 0.00913668 -0.148986
-0.10413 0.0126155 -0.149405
-0.108974 0.0154236 -0.150156
-0.10706 0.0218622 -0.149663
-0.137896 0.0600314 -0.151603
-0.122454 -0.0524684 -0.148388
-0.100109 -0.023041 -0.146599
-0.101681 -0.0180955 -0.147911
-0.103444 -0.00721036 -0.147812
-0.0993804 -0.000238142 -0.146832
-0.0976372 0.0121751 -0.145604
-0.103738 0.0182828 -0.148776
-0.148115 -0.0811701 -0.143215
-0.0964566 -0.0307543 -0.143789
-0.100822 -0.0200962 -0.141496
-0.0964322 -0.0159765 -0.1447
-0.0902733 -0.0150671 -0.142387
-0.0953189 -0.0119173 -0.144756
-0.0913056 -0.00291581 -0.144505
-0.0933426 0.000988584 -0.144267
-0.0886841 0.0010907 -0.143387
-0.0916138 0.0119982 -0.142173
-0.109327 0.0169797 -0.145625
-0.0913372 0.014619 -0.143819
-0.0861321 -0.0219018 -0.139796
-0.0964881 -0.0104129 -0.140191
-0.0912534 -0.00551056 -0.141381
-0.0795139 -0.00358288 -0.138479
-0.0835616 0.000816284 -0.141242
-0.083205 0.00453069 -0.141035
-0.0835665 0.0100091 -0.13988
-0.0807121 0.0153162 -0.139302
-0.0822833 0.0206645 -0.13843
-0.0930717 0.025004 -0.141009
-0.0799764 -0.0313035 -0.136799
-0.0762641 -0.0280944 -0.135882
-0.0725338 -0.0174365 -0.134314
-0.0804049 -0.00966717 -0.135211
-0.076819 -0.00877046 -0.138163
-0.102306 -0.0007435 -0.13873
-0.0953325 -0.00277808 -0.137883
-0.0882619 -0.00128415 -0.139139
-0.074439 -0.00258061 -0.135615
-0.0821634 0.00424208 -0.13791
-0.0774383 0.0101147 -0.137308
-0.0781673 0.0139938 -0.138337
-0.0728028 0.0172867 -0.134716
-0.0841644 0.0288869 -0.137864
-0.0774973 0.0319392 -0.135106
-0.0854441 0.0428506 -0.135287
-0.0956083 0.0551858 -0.135563
-0.0922796 -0.0580024 -0.134036
-0.0761359 -0.0316738 -0.134023
-0.0707558 -0.020941 -0.133456
-0.0868643 -0.0166119 -0.136684
-0.0682978 -0.0130206 -0.134357
-0.0696205 -0.00637378 -0.134143
-0.06294 0.00366358 -0.131395
-0.091977 0.0160683 -0.134874
-0.0638807 0.0234964 -0.13142
-0.072742 0.0285039 -0.134241
-0.102567 0.0584321 -0.13574
-0.0618042 -0.0284957 -0.128659
-0.0638656 -0.015966 -0.131141
-0.0622832 -0.0112732 -0.129731
-0.052609 -0.0086984 -0.127945
-0.0615915 -0.00500651 -0.129489
-0.0750375 0.00572665 -0.128875
-0.0799738 0.00943267 -0.129499
-0.0552441 0.00937199 -0.128922
-0.0605562 0.0208957 -0.130326
-0.0719802 -0.0460082 -0.128493
-0.0552542 -0.0256322 -0.127484
-0.0649676 -0.0249669 -0.127052
-0.0678787 -0.0209401 -0.126629
-0.0519695 -0.0146616 -0.12737
-0.046656 -0.00109233 -0.124609
-0.050321 0.00182799 -0.127188
-0.0471788 0.00370025 -0.125645
-0.0440938 0.00493113 -0.124171
-0.0986297 0.00804114 -0.128647
-0.0847385 0.00739649 -0.127309
-0.0520544 0.00686784 -0.126308
-0.0650921 0.0144503 -0.126443
-0.0571988 0.00942179 -0.12522
-0.0811095 0.0717892 -0.123824
-0.0876436 -0.0272836 -0.124376
-0.0515534 -0.0242885 -0.121622
-0.0434049 -0.0266116 -0.122162
-0.0383186 -0.0243584 -0.120116
-0.0443215 -0.0153334 -0.123509
-0.0381584 -0.0165986 -0.121327
-0.0625172 -0.0110831 -0.122527
-0.0765705 -0.00382199 -0.122852
-0.07534 0.00142044 -0.123947
-0.0383205 0.00316796 -0.122161
-0.0497799 0.00222835 -0.120806
-0.0812594 0.00818208 -0.124259
-0.0732714 0.010182 -0.125384
-0.0522922 -0.0623366 -0.116409
-0.0475078 -0.031146 -0.118947
-0.037497 -0.0267204 -0.116457
-0.0341061 -0.015422 -0.118654
-0.0606713 -0.0100434 -0.118773
-0.0437954 -0.00770294 -0.120772
-0.051749 -0.00680387 -0.116192
-0.0321092 -0.00559341 -0.118253
-0.0331025 0.0013736 -0.119987
-0.0359251 0.000160851 -0.118774
-0.0282086 0.00281719 -0.117892
-0.0648362 0.00946884 -0.119677
-0.0330436 0.00661598 -0.118318
-0.0645899 0.0162657 -0.119365
-0.0341101 0.020258 -0.116823
-0.0599719 0.0313481 -0.120822
-0.0464826 0.030633 -0.119504
-0.0953965 0.0428624 -0.119568
-0.0507796 0.0563923 -0.118182
-0.0341335 -0.0334624 -0.112304
-0.0321027 -0.0304855 -0.116666
-0.0286501 -0.0288869 -0.114679
-0.033038 -0.026575 -0.115927
-0.0266044 -0.0193785 -0.115924
-0.0256487 -0.0165298 -0.114717
-0.0581224 -0.00713372 -0.115897
-0.0346064 -0.00907325 -0.11696
-0.036432 -0.00338124 -0.118218
-0.0756354 0.00291037 -0.117273
-0.039022 0.00397617 -0.118308
-0.0267921 0.0043997 -0.11421
-0.0340366 0.0120562 -0.117048
-0.0654867 0.0137179 -0.114481
-0.0465319 0.0152701 -0.115657
-0.0368272 0.0160293 -0.116122
-0.0263892 0.0146873 -0.11422
-0.0676999 0.018814 -0.116324
-0.0599616 0.0172305 -0.114557
-0.0465408 0.0284814 -0.112373
-0.0354204 0.0274579 -0.116882
-0.027248 0.0243235 -0.113563
-0.0389497 0.030141 -0.114443
-0.0539287 -0.0797959 -0.108868
-0.0214532 -0.0281016 -0.11273
-0.0197268 -0.0314914 -0.111274
-0.0490362 -0.0199784 -0.111877
-0.0338495 -0.012785 -0.114444
-0.0513605 -0.00909968 -0.11206
-0.0339673 -0.00417256 -0.11344
-0.0131822 -0.00443435 -0.111519
-0.0358711 0.00820248 -0.112009
-0.0556641 0.00790465 -0.110844
-0.0171366 0.0062355 -0.112554
-0.0606234 0.0125655 -0.113116
-0.039825 0.00941623 -0.115537
-0.0247779 0.0116473 -0.112317
-0.0303641 0.0177682 -0.115414
-0.0339782 0.0297524 -0.114938
-0.0202652 0.0291533 -0.112385
-0.14594 -0.0360243 -0.110293
-0.0204809 -0.0236061 -0.106234
-0.05493 -0.0139544 -0.10945
-0.0242312 -0.0119118 -0.114995
-0.0724214 -0.0099292 -0.108598
-0.0439889 -0.00347255 -0.106909
-0.0326784 -0.00365144 -0.10837
-0.0518772 -0.00242022 -0.110501
-0.0345351 0.00896831 -0.108885
-0.0240317 0.0122994 -0.108659
-0.099674 0.0164669 -0.110339
-0.0425584 0.0190544 -0.106937
-0.0362875 0.0199163 -0.112491
-0.0269724 0.0216219 -0.110259
-0.0142481 -0.0214825 -0.10324
-0.0490049 -0.0173318 -0.107139
-0.0198827 -0.0154441 -0.104028
-0.0208936 -0.00303346 -0.106535
-0.0155544 -0.005295 -0.105807
-0.0400783 -0.00304467 -0.105377
-0.0114038 0.00353651 -0.102398
-0.0134082 0.0151088 -0.102084
-0.0180138 0.0278168 -0.109463
-0.0240974 0.0669305 -0.103375
-0.00302996 -0.0337906 -0.101467
-0.0319423 -0.0207084 -0.107648
-0.0332043 -0.0119457 -0.1086
-0.00877739 -0.0122698 -0.109157
-0.0184545 -0.00840704 -0.108616
-0.0266867 0.00969496 -0.107017
-0.0186455 0.0193309 -0.105068
-0.0345837 0.0307765 -0.107047
-0.0203439 -0.0213423 -0.101882
-0.0242569 -0.0048619 -0.0998184
-0.018202 -0.00127292 -0.097122
-0.0265303 0.0300204 -0.0974215
-0.0285795 0.0326856 -0.0972577
-0.0158837 -0.0146366 -0.0952314
-0.00413281 -0.000337831 -0.0931598
-0.00968967 -0.0134906 -0.0918526
-0.00852479 0.034934 -0.091605
-0.014458 -0.0150737 -0.0877345
-0.0238687 0.0109416 -0.0857049
-0.00517746 0.0266228 -0.0858136
-0.0171117 -0.0109135 -0.0852011
-0.026238 0.0194762 -0.0831804
-0.0145426 0.0200822 -0.0831786
-0.0181127 0.0295097 -0.0797953
-0.0196571 -0.00676578 -0.0779346
-0.030318 0.0147393 -0.0755092
-0.0170652 -0.0127043 -0.0734882
-0.0300845 0.0256603 -0.0723742
-0.0308827 0.00162734 -0.0700272
-0.0239975 0.00585265 -0.068988
-0.00434932 0.00423497 -0.0706856
-0.0332323 0.0316676 -0.0701937
-0.0108823 0.00232676 -0.0661293
-0.0346254 0.0108555 -0.0654773
-0.0184752 -0.00390867 -0.0622768
-0.0256427 -0.0310174 -0.0569889
-0.0291592 -0.00156433 -0.0587917
-0.0101895 0.00506721 -0.0567399
-0.027048 -0.0192107 -0.053241
-0.00876558 -0.0160351 -0.0543528
-0.00296015 -0.0125694 -0.055598
-0.00418171 -0.00389031 -0.0550065
-0.00344499 0.0151299 -0.0565131
-0.0316084 -0.0265255 -0.0502977
-0.0281016 0.00020127 -0.0497496
-0.00981587 0.00303905 -0.0483969
-0.0288083 0.00732997 -0.0478337
-0.0246424 0.00553727 -0.045263
-0.0208274 -0.0341404 -0.0421581
-0.0188893 -0.0213338 -0.0397938
-0.0195242 0.01415 -0.0421052
-0.00987825 0.0266251 -0.0395581
-0.0141191 -0.0144365 -0.0360055
-0.0107355 -0.0103339 -0.0365535
-0.0118162 -0.00633589 -0.0352924
-0.032854 -0.0214325 -0.0339552
-0.0120408 0.00484626 -0.0331054
-0.0260976 0.00786627 -0.033356
-0.0129098 0.021507 -0.0329497
-0.000558622 0.0213939 -0.0304635
-0.0120659 -0.0232029 -0.0246384
-0.00974267 -0.0210328 -0.0262724
-0.0026782 0.0306845 -0.0264781
-0.031713 0.0319285 -0.0265358
-0.0275767 -0.00857811 -0.0208447
-0.0193603 0.00427373 -0.0236324
-0.0280975 0.0196597 -0.0216799
-0.00304149 -0.022423 -0.0172592
-0.0341957 -0.0270523 -0.0147458
-0.00515441 -0.0109162 -0.0163923
-0.018318 0.00551713 -0.0168266
-0.0142719 0.0175582 -0.0158101
-0.0329214 -0.0245036 -0.0100882
-0.0230158 -0.0063197 -0.0125267
-0.00209743 0.0155548 -0.0108008
-0.0054599 0.0237214 -0.0102649
-0.0230867 -0.0242912 -0.0078441
-0.00426265 -0.000462787 -0.00852837
-0.034337 0.00561382 -0.00913674
-0.0273791 5.52728e-05 -0.00495773
-0.0183167 0.0119421 -0.00425363
-0.00209585 0.021148 -0.00599675
-0.00205387 0.0243132 -0.00284826
-0.0258414 -0.0270694 -2.40345e-05
-0.0323459 0.000933277 0.000692029
-0.00977287 -0.0305241 0.00365261
-0.0268897 0.0240704 0.00417122
-0.0191985 0.0336061 0.000990226
-0.00315638 -0.0234267 0.00581753
-0.0266262 0.0180085 0.00516852
-0.0251891 0.0274385 0.00731224
-0.00858455 -0.00832622 0.00946996
-0.00797106 0.00155248 0.00846889
-0.029518 -0.0331169 0.0126828
-0.00532413 -0.0141231 0.01376
-0.0184795 -0.0100183 0.0126777
-0.0315432 -0.000776551 0.0148564
-0.00657095 0.00906157 0.0124946
-0.0304883 0.0114791 0.0119684
-0.0306529 0.0174599 0.0136239
-0.0183571 0.0195956 0.011732
-0.0123384 -0.0127121 0.0169231
-0.0215522 -0.0242077 0.0214197
-0.00639582 -0.0194124 0.0205392
-0.0349219 -0.0119867 0.0190255
-0.0349316 0.000809468 0.022478
-0.00832892 0.000607053 0.0209016
-0.0302252 0.0258081 0.0219897
-0.0220487 -0.00121585 0.0245509
-0.00390427 -0.00253676 0.0244823
-0.00538423 0.0015153 0.0266723
-0.00221027 -0.0230351 0.0315754
-0.0183398 -0.0154698 0.0316949
-0.00131466 -0.00968721 0.0332619
-0.00676706 -0.00372403 0.0313971
-0.0151336 0.0123986 0.0300398
-0.0275497 0.0283687 0.0315443
-0.0077538 -0.0326437 0.035259
-0.0206177 -0.0299049 0.0337835
-0.0233766 -0.00607507 0.0339955
-0.0173855 -0.000880817 0.0355654
-0.0182307 0.00855733 0.0358413
-0.0197987 0.018953 0.0368822
-0.0296317 0.0298979 0.035885
-0.00341211 -0.034738 0.0394445
-0.00558275 -0.00660585 0.0390237
-0.0271405 0.0119819 0.0388865
-0.010257 0.0208697 0.0400908
-0.0208051 -0.0158491 0.0413066
-0.0341798 -0.011198 0.0407294
-0.00399213 0.0184532 0.0416959
-0.00154371 0.0315848 0.0425392
-0.0138788 -0.0115128 0.0461346
-0.00452227 -0.00895877 0.045136
-0.0163368 0.0276055 0.0464531
-0.0293509 -0.033146 0.0513285
-0.0310951 -0.0211048 0.0487378
-0.0255212 -0.0188191 0.0487787
-0.0309382 -0.0143436 0.0484516
-0.0320071 -0.0281976 0.0525679
-0.0102129 0.026364 0.054914
-0.0167287 0.0346143 0.0535681
-0.0215899 -0.032029 0.0583512
-0.00861311 -0.032902 0.0560722
-0.0067008 -0.0244725 0.0561146
-0.0188515 -0.0128461 0.0571464
-0.0345167 0.0199359 0.0565395
-0.0197841 0.0271245 0.0569554
-0.0253872 0.0292455 0.0555522
VERTICES 410 820
1 0
1 1
1 2
1 3
1 4
1 5
1 6
1 7
1 8
1 9
1 10
1 11
1 12
1 13
1 14
1 15
1 16
1 17
1 18
1 19
1 20
1 21
1 22
1 23
1 24
1 25
1 26
1 27
1 28
1 29
1 30
1 31
1 32
1 33
1 34
1 35
1 36
1 37
1 38
1 39
1 40
1 41
1 42
1 43
1 44
1 45
1 46
1 47
1 48
1 49
1 50
1 51
1 52
1 53
1 54
1 55
1 56
1 57
1 58
1 59
1 60
1 61
1 62
1 63
1 64
1 65
1 66
1 67
1 68
1 69
1 70
1 71
1 72
1 73
1 74
1 75
1 76
1 77
1 78
1 79
1 80
1 81
1 82
1 83
1 84
1 85
1 86
1 87
1 88
1 89
1 90
1 91
1 92
1 93
1 94
1 95
1 96
1 97
1 98
1 99
1 100
1 101
1 102
1 103
1 104
1 105
1 106
1 107
1 108
1 109
1 110
1 111
1 112
1 113
1 114
1 115
1 116
1 117
1 118
1 119
1 120
1 121
1 122
1 123
1 124
1 125
1 126
1 127
1 128
1 129
1 130
1 131
1 132
1 133
1 134
1 135
1 136
1 137
1 138
1 139
1 140
1 141
1 142
1 143
1 144
1 145
1 146
1 147
1 148
1 149
1 150
1 151
1 152
1 153
1 154
1 155
1 156
1 157
1 158
1 159
1 160
1 161
1 162
1 163
1 164
1 165
1 166
1 167
1 168
1 169
1 170
1 171
1 172
1 173
1 174
1 175
1 176
1 177
1 178
1 179
1 180
1 181
1 182
1 183
1 184
1 185
1 186
1 187
1 188
1 189
1 190
1 191
1 192
1 193
1 194
1 195
1 196
1 197
1 198
1 199
1 200
1 201
1 202
1 203
1 204
1 205
1 206
1 207
1 208
1 209
1 210
1 211
1 212
1 213
1 214
1 215
1 216
1 217
1 218
1 219
1 220
1 221
1 222
1 223
1 224
1 225
1 226
1 227
1 228
1 229
1 230
1 231
1 232
1 233
1 234
1 235
1 236
1 237
1 238
1 239
1 240
1 241
1 242
1 243
1 244
1 245
1 246
1 247
1 248
1 249
1 250
1 251
1 252
1 253
1 254
1 255
1 256
1 257
1 258
1 259
1 260
1 261
1 262
1 263
1 264
1 265
1 266
1 267
1 268
1 269
1 270
1 271
1 272
1 273
1 274
1 275
1 276
1 277
1 278
1 279
1 280
1 281
1 282
1 283
1 284
1 285
1 286
1 287
1 288
1 289
1 290
1 291
1 292
1 293
1 294
1 295
1 296
1 297
1 298
1 299
1 300
1 301
1 302
1 303
1 304
1 305
1 306
1 307
1 308
1 309
1 310
1 311
1 312
1 313
1 314
1 315
1 316
1 317
1 318
1 319
1 320
1 321
1 322
1 323
1 324
1 325
1 326
1 327
1 328
1 329
1 330
1 331
1 332
1 333
1 334
1 335
1 336
1 337
1 338
1 339
1 340
1 341
1 342
1 343
1 344
1 345
1 346
1 347
1 348
1 349
1 350
1 351
1 352
1 353
1 354
1 355
1 356
1 357
1 358
1 359
1 360
1 361
1 362
1 363
1 364
1 365
1 366
1 367
1 368
1 369
1 370
1 371
1 372
1 373
1 374
1 375
1 376
1 377
1 378
1 379
1 380
1 381
1 382
1 383
1 384
1 385
1 386
1 387
1 388
1 389
1 390
1 391
1 392
1 393
1 394
1 395
1 396
1 397
1 398
1 399
1 400
1 401
1 402
1 403
1 404
1 405
1 406
1 407
1 408
1 409
POINT_DATA 410
VECTORS i float
0.0 0.0 0.0
0.0 0.0 0.0
0.0 0.0 0.0
0.0 0.0 0.0
0.0 0.0 0.0
0.0 0.0 0.0
0.0 0.0 0.0
0.0 0.0 0.0
0.0 0.0 0.0
0.0 0.0 0.0
0.0 0.0 0.0
0.0 0.0 0.0
0.0 0.0 0.0
0.0 0.0 0.0
0.0 0.0 0.0
0.0 0.0 0.0
0.0 0.0 0.0
0.0 0.0 0.0
0.0 0.0 0.0
0.0 0.0 0.0
0.0 0.0 0.0
0.0 0.0 0.0
0.0 0.0 0.0
0.0 0.0 0.0
0.0 0.0 0.0
0.0 0.0 0.0
0.0 0.0 0.0
0.0 0.0 0.0
0.0 0.0 0.0
0.0 0.0 0.0
0.0 0.0 0.0
0.0 0.0 0.0
0.0 0.0 0.0
0.0 0.0 0.0
0.0 0.0 0.0
0.0 0.0 0.0
0.0 0.0 0.0
0.0 0.0 0.0
0.0 0.0 0.0
0.0 0.0 0.0
0.0 0.0 0.0
0.0 0.0 0.0
0.0 0.0 0.0
0.0 0.0 0.0
0.0 0.0 0.0
0.0 0.0 0.0
0.0 0.0 0.0
0.0 0.0 0.0
0.0 0.0 0.0
0.0 0.0 0.0
0.0 0.0 0.0
0.0 0.0 0.0
0.0 0.0 0.0
0.0 0.0 0.0
0.0 0.0 0.0
0.0 0.0 0.0
0.0 0.0 0.0
0.0 0.0 0.0
0.0 0.0 0.0
0.0 0.0 0.0
0.0 0.0 0.0
0.0 0.0 0.0
0.0 0.0 0.0
0.0 0.0 0.0
0.0 0.0 0.0
0.0 0.0 0.0
0.0 0.0 0.0
0.0 0.0 0.0
0.0 0.0 0.0
0.0 0.0 0.0
0.0 0.0 0.0
0.0 0.0 0.0
0.0 0.0 0.0
0.0 0.0 0.0
0.0 0.0 0.0
0.0 0.0 0.0
0.0 0.0 0.0
0.0 0.0 0.0
0.0 0.0 0.0
0.0 0.0 0.0
0.0 0.0 0.0
0.0 0.0 0.0
0.0 0.0 0.0
0.0 0.0 0.0
0.0 0.0 0.0
0.0 0.0 0.0
0.0 0.0 0.0
0.0 0.0 0.0
0.0 0.0 0.0
0.0 0.0 0.0
0.0 0.0 0.0
0.0 0.0 0.0
0.0 0.0 0.0
0.0 0.0 0.0
0.0 0.0 0.0
0.0 0.0 0.0
0.0 0.0 0.0
0.0 0.0 0.0
0.0 0.0 0.0
0.0 0.0 0.0
0.0 0.0 0.0
0.0 0.0 0.0
0.0 0.0 0.0
0.0 0.0 0.0
0.0 0.0 0.0
0.0 0.0 0.0
0.0 0.0 0.0
0.0 0.0 0.0
0.0 0.0 0.0
0.0 0.0 0.0
0.0 0.0 0.0
0.0 0.0 0.0
0.0 0.0 0.0
0.0 0.0 0.0
0.0 0.0 0.0
0.0 0.0 0.0
0.0 0.0 0.0
0.0 0.0 0.0
0.0 0.0 0.0
0.0 0.0 0.0
0.0 0.0 0.0
0.0 0.0 0.0
0.0 0.0 0.0
0.0 0.0 0.0
0.0 0.0 0.0
0.0 0.0 0.0
0.0 0.0 0.0
0.0 0.0 0.0
0.0 0.0 0.0
0.0 0.0 0.0
0.0 0.0 0.0
0.0 0.0 0.0
0.0 0.0 0.0
0.0 0.0 0.0
0.0 0.0 0.0
0.0 0.0 0.0
0.0 0.0 0.0
0.0 0.0 0.0
0.0 0.0 0.0
0.0 0.0 0.0
0.0 0.0 0.0
0.0 0.0 0.0
0.0 0.0 0.0
0.0 0.0 0.0
0.0 0.0 0.0
0.0 0.0 0.0
0.0 0.0 0.0
0.0 0.0 0.0
0.0 0.0 0.0
0.0 0.0 0.0
0.0 0.0 0.0
0.0 0.0 0.0
0.0 0.0 0.0
0.0 0.0 0.0
0.0 0.0 0.0
0.0 0.0 0.0
0.0 0.0 0.0
0.0 0.0 0.0
0.0 0.0 0.0
0.0 0.0 0.0
0.0 0.0 0.0
0.0 0.0 0.0
0.0 0.0 0.0
0.0 0.0 0.0
0.0 0.0 0.0
0.0 0.0 0.0
0.0 0.0 0.0
0.0 0.0 0.0
0.0 0.0 0.0
0.0 0.0 0.0
0.0 0.0 0.0
0.0 0.0 0.0
0.0 0.0 0.0
0.0 0.0 0.0
0.0 0.0 0.0
0.0 0.0 0.0
0.0 0.0 0.0
0.0 0.0 0.0
0.0 0.0 0.0
0.0 0.0 0.0
0.0 0.0 0.0
0.0 0.0 0.0
0.0 0.0 0.0
0.0 0.0 0.0
0.0 0.0 0.0
0.0 0.0 0.0
0.0 0.0 0.0
0.0 0.0 0.0
0.0 0.0 0.0
0.0 0.0 0.0
0.0 0.0 0.0
0.0 0.0 0.0
0.0 0.0 0.0
0.0 0.0 0.0
0.0 0.0 0.0
0.0 0.0 0.0
0.0 0.0 0.0
0.0 0.0 0.0
0.0 0.0 0.0
0.0 0.0 0.0
0.0 0.0 0.0
0.0 0.0 0.0
0.0 0.0 0.0
0.0 0.0 0.0
0.0 0.0 0.0
0.0 0.0 0.0
0.0 0.0 0.0
0.0 0.0 0.0
0.0 0.0 0.0
0.0 0.0 0.0
0.0 0.0 0.0
0.0 0.0 0.0
0.0 0.0 0.0
0.0 0.0 0.0
0.0 0.0 0.0
0.0 0.0 0.0
0.0 0.0 0.0
0.0 0.0 0.0
0.0 0.0 0.0
0.0 0.0 0.0
0.0 0.0 0.0
0.0 0.0 0.0
0.0 0.0 0.0
0.0 0.0 0.0
0.0 0.0 0.0
0.0 0.0 0.0
0.0 0.0 0.0
0.0 0.0 0.0
0.0 0.0 0.0
0.0 0.0 0.0
0.0 0.0 0.0
0.0 0.0 0.0
0.0 0.0 0.0
0.0 0.0 0.0
0.0 0.0 0.0
0.0 0.0 0.0
0.0 0.0 0.0
0.0 0.0 0.0
0.0 0.0 0.0
0.0 0.0 0.0
0.0 0.0 0.0
0.0 0.0 0.0
0.0 0.0 0.0
0.0 0.0 0.0
0.0 0.0 0.0
0.0 0.0 0.0
0.0 0.0 0.0
0.0 0.0 0.0
0.0 0.0 0.0
0.0 0.0 0.0
0.0 0.0 0.0
0.0 0.0 0.0
0.0 0.0 0.0
0.0 0.0 0.0
0.0 0.0 0.0
0.0 0.0 0.0
0.0 0.0 0.0
0.0 0.0 0.0
0.0 0.0 0.0
0.0 0.0 0.0
0.0 0.0 0.0
0.0 0.0 0.0
0.0 0.0 0.0
0.0 0.0 0.0
0.0 0.0 0.0
0.0 0.0 0.0
0.0 0.0 0.0
0.0 0.0 0.0
0.0 0.0 0.0
0.0 0.0 0.0
0.0 0.0 0.0
0.0 0.0 0.0
0.0 0.0 0.0
0.0 0.0 0.0
0.0 0.0 0.0
0.0 0.0 0.0
0.0 0.0 0.0
0.0 0.0 0.0
0.0 0.0 0.0
0.0 0.0 0.0
0.0 0.0 0.0
0.0 0.0 0.0
0.0 0.0 0.0
0.0 0.0 0.0
0.0 0.0 0.0
0.0 0.0 0.0
0.0 0.0 0.0
0.0 0.0 0.0
0.0 0.0 0.0
0.0 0.0 0.0
0.0 0.0 0.0
0.0 0.0 0.0
0.0 0.0 0.0
0.0 0.0 0.0
0.0 0.0 0.0
0.0 0.0 0.0
0.0 0.0 0.0
0.0 0.0 0.0
0.0 0.0 0.0
0.0 0.0 0.0
0.0 0.0 0.0
0.0 0.0 0.0
0.0 0.0 0.0
0.0 0.0 0.0
0.0 0.0 0.0
0.0 0.0 0.0
0.0 0.0 0.0
0.0 0.0 0.0
0.0 0.0 0.0
0.0 0.0 0.0
0.0 0.0 0.0
0.0 0.0 0.0
0.0 0.0 0.0
0.0 0.0 0.0
0.0 0.0 0.0
0.0 0.0 0.0
0.0 0.0 0.0
0.0 0.0 0.0
0.0 0.0 0.0
0.0 0.0 0.0
0.0 0.0 0.0
0.0 0.0 0.0
0.0 0.0 0.0
0.0 0.0 0.0
0.0 0.0 0.0
0.0 0.0 0.0
0.0 0.0 0.0
0.0 0.0 0.0
0.0 0.0 0.0
0.0 0.0 0.0
0.0 0.0 0.0
0.0 0.0 0.0
0.0 0.0 0.0
0.0 0.0 0.0
0.0 0.0 0.0
0.0 0.0 0.0
0.0 0.0 0.0
0.0 0.0 0.0
0.0 0.0 0.0
0.0 0.0 0.0
0.0 0.0 0.0
0.0 0.0 0.0
0.0 0.0 0.0
0.0 0.0 0.0
0.0 0.0 0.0
0.0 0.0 0.0
0.0 0.0 0.0
0.0 0.0 0.0
0.0 0.0 0.0
0.0 0.0 0.0
0.0 0.0 0.0
0.0 0.0 0.0
0.0 0.0 0.0
0.0 0.0 0.0
0.0 0.0 0.0
0.0 0.0 0.0
0.0 0.0 0.0
0.0 0.0 0.0
0.0 0.0 0.0
0.0 0.0 0.0
0.0 0.0 0.0
0.0 0.0 0.0
0.0 0.0 0.0
0.0 0.0 0.0
0.0 0.0 0.0
0.0 0.0 0.0
0.0 0.0 0.0
0.0 0.0 0.0
0.0 0.0 0.0
0.0 0.0 0.0
0.0 0.0 0.0
0.0 0.0 0.0
0.0 0.0 0.0
0.0 0.0 0.0
0.0 0.0 0.0
0.0 0.0 0.0
0.0 0.0 0.0
0.0 0.0 0.0
0.0 0.0 0.0
0.0 0.0 0.0
0.0 0.0 0.0
0.0 0.0 0.0
0.0 0.0 0.0
0.0 0.0 0.0
0.0 0.0 0.0
0.0 0.0 0.0
0.0 0.0 0.0
0.0 0.0 0.0
0.0 0.0 0.0
0.0 0.0 0.0
0.0 0.0 0.0
0.0 0.0 0.0
0.0 0.0 0.0
0.0 0.0 0.0
0.0 0.0 0.0
0.0 0.0 0.0
0.0 0.0 0.0
0.0 0.0 0.0
0.0 0.0 0.0
0.0 0.0 0.0
0.0 0.0 0.0
0.0 0.0 0.0
0.0 0.0 0.0
0.0 0.0 0.0
0.0 0.0 0.0
0.0 0.0 0.0
0.0 0.0 0.0
0.0 0.0 0.0
0.0 0.0 0.0
0.0 0.0 0.0
VECTORS f float
0.0 0.0 -0.000346714
-8.16383e-05 -4.11668e-05 -5.27332e-05
-4.96933e-05 3.38272e-06 -0.00109066
0.0 0.0 -0.000346714
-0.000400907 6.48127e-06 -0.000183225
0.0 0.0 -0.000346714
0.0 0.0 -0.000346714
-7.31918e-05 -2.93631e-05 -0.000120562
-0.000539393 0.00031823 0.00104807
-0.000346165 1.26283e-05 -0.000303369
-9.55448e-05 3.46407e-06 -2.08125e-05
0.0 0.0 -0.000346714
-8.46094e-05 -4.06756e-05 -4.62765e-05
0.0 0.0 -0.000346714
0.0 0.0 -0.000346714
-0.0001391 4.78709e-06 7.99291e-05
-9.5017e-05 -1.89974e-05 -2.5688e-05
0.000117087 -2.28626e-05 0.000150863
-9.38732e-05 -1.89644e-05 -2.59294e-05
-3.54169e-05 -1.29276e-05 -0.000171505
0.0 0.0 -0.000346714
-0.000640226 0.000987983 0.00152061
-0.000180385 6.62405e-06 0.000150799
-4.80357e-06 2.28408e-06 -0.000480092
-5.24698e-05 2.07603e-06 -0.000279709
-0.000431635 -8.3862e-05 -0.000124391
-0.000265723 -5.45286e-05 0.000382859
9.56321e-05 9.57186e-05 -0.000566583
-0.000409313 5.33368e-05 -0.000206002
-8.38894e-05 -2.45026e-06 -3.94306e-05
-4.0648e-05 -4.38439e-06 -0.00104993
-8.13528e-05 -6.21535e-05 -5.03129e-05
0.0 0.0 -0.00160516
-0.000449763 0.000130913 -7.48452e-05
-8.86803e-05 2.10385e-05 -4.00158e-05
0.0 0.0 -0.000346714
0.000148487 4.82059e-05 -0.00133506
-8.31635e-05 -3.99221e-05 -4.19764e-05
-0.000274354 0.000130117 0.000181185
0.0 0.0 -0.00160516
0.0 0.0 -0.000346714
-0.000106313 6.05725e-06 -1.15454e-06
0.0 0.0 -0.000346714
-0.00320596 -0.000968036 0.0082895
0.0 0.0 -0.000346714
-8.76833e-05 4.96936e-06 -3.65509e-05
0.0 0.0 -0.000346714
-8.90705e-05 -3.43764e-05 5.18124e-05
-0.000378948 -0.000131296 -0.000216043
-0.000265244 -5.10295e-05 -0.000825614
0.0 0.0 -0.00160516
0.0 0.0 -0.00160516
0.0 0.0 -0.000346714
-0.000484616 2.84828e-05 3.91967e-05
0.0 0.0 -0.00160516
0.0 0.0 -0.000346714
-8.21747e-05 -2.87639e-05 -4.21974e-05
-2.45799e-06 -7.62878e-06 -0.000267847
0.0 0.0 -0.00160516
0.0 0.0 -0.000346714
-0.000406398 6.72631e-05 -0.000178128
0.0 0.0 -0.000346714
0.0 0.0 -0.000346714
0.0 0.0 -0.00160516
0.0 0.0 -0.000346714
0.0 0.0 -0.000346714
0.0 0.0 -0.000346714
0.0 0.0 -0.00160516
0.0 0.0 -0.00160516
7.51817e-06 4.15704e-05 -1.86266e-05
0.0 0.0 -0.000346714
-8.62932e-05 -3.14709e-05 -4.08029e-05
-0.000420696 6.54776e-05 -0.000145661
0.0 0.0 -0.000346714
0.0 0.0 -0.000346714
0.0 0.0 -0.000346714
0.0 0.0 -0.000346714
0.0 0.0 -0.000346714
0.0 0.0 -0.000346714
0.0 0.0 -0.000346714
-4.06164e-05 -7.16591e-06 -0.000145408
0.00393983 0.00105084 0.0391612
-9.58589e-05 -4.0376e-05 -2.5018e-05
-7.35901e-05 -8.03957e-05 -6.17485e-05
0.0 0.0 -0.000346714
-0.000316254 0.000137293 0.00294325
-8.86108e-05 2.80357e-05 -3.87671e-05
0.0 0.0 -0.00160516
-0.000409026 -7.10619e-06 -0.000141241
9.80081e-05 -0.000100792 -5.79964e-05
0.0 0.0 -0.000346714
-0.000149953 0.000334875 0.000261651
-8.89546e-05 4.43452e-05 -3.29745e-05
0.0 0.0 -0.000346714
0.0 0.0 -0.000346714
-0.000255064 3.42471e-05 -0.00059162
-0.0135093 -0.00357978 0.0184931
0.0 0.0 -0.000346714
-0.000494414 -1.16161e-05 0.000538547
-8.74824e-05 -2.56251e-06 -3.91783e-05
0.0 0.0 -0.000346714
0.0 0.0 -0.000346714
0.0 0.0 -0.000346714
-0.000440708 0.000168618 -0.000260365
-0.00951301 0.00904274 0.0310201
0.0 0.0 -0.00160516
-0.000411213 4.80113e-05 -0.000177316
-0.000107534 7.44262e-07 1.21712e-07
2.11154e-05 1.32391e-05 9.43185e-06
-0.000395324 -8.39728e-05 -0.000195576
6.07268e-06 -0.00012033 2.77355e-05
-0.000410501 -8.08019e-05 -0.000178675
0.0 0.0 -0.00160516
-6.54056e-05 2.88055e-05 -0.000100647
-8.53388e-05 4.02371e-05 -4.36731e-05
0.0 0.0 -0.000346714
0.0 0.0 -0.00160516
-8.88659e-05 1.03757e-05 -3.82253e-05
0.0 0.0 -0.000346714
0.0 0.0 -0.00160516
0.0 0.0 -0.00160516
0.0 0.0 -0.00160516
0.0 0.0 -0.000346714
0.00153193 0.000480843 -0.00622308
0.0 0.0 -0.000346714
-0.000236189 -5.2865e-05 0.000863928
0.000609994 0.00027065 -0.00266468
0.0 0.0 -0.000346714
0.0 0.0 -0.00160516
-0.000411254 -0.000345021 -0.000114364
0.0 0.0 -0.000346714
-0.000395048 0.000186277 -0.000202068
-0.000455831 0.000123882 -7.10087e-05
0.0 0.0 -0.00160516
-8.8247e-05 9.86536e-06 -3.754e-05
-0.000625561 6.19583e-05 0.00232653
-0.000411199 -2.40787e-05 -0.000181669
0.0 0.0 -0.00160516
-6.14249e-05 -2.87358e-05 -6.46541e-05
-0.000112503 -4.42739e-05 1.15294e-05
0.0 0.0 -0.000346714
0.00295792 -0.00145839 -0.00483395
-0.000419586 0.000120072 -8.89274e-05
0.0 0.0 -0.00160516
-8.82854e-05 8.97572e-06 -3.74817e-05
0.0 0.0 -0.00160516
0.0 0.0 -0.00160516
0.0 0.0 -0.000346714
0.0 0.0 -0.000346714
-8.28183e-05 -1.88519e-05 -4.44023e-05
0.0 0.0 -0.00160516
-8.71548e-05 2.42702e-05 -3.92951e-05
0.0 0.0 -0.00160516
0.0 0.0 -0.000346714
-8.78295e-05 2.37391e-05 -3.94789e-05
0.0 0.0 -0.00160516
-6.21392e-05 -3.3814e-06 -0.000145261
0.0 0.0 -0.000346714
0.0 0.0 -0.000346714
0.0 0.0 -0.000346714
0.0 0.0 -0.000346714
0.0 0.0 -0.00160516
0.0 0.0 -0.000346714
0.0 0.0 -0.00160516
-7.18283e-05 -8.2157e-05 -6.53518e-05
0.0 0.0 -0.000346714
0.0 0.0 -0.00160516
0.0 0.0 -0.000346714
0.0 0.0 -0.000346714
0.0 0.0 -0.000346714
-8.92012e-05 2.14134e-05 -4.06724e-05
0.0 0.0 -0.000346714
0.0 0.0 -0.000346714
0.0 0.0 -0.000346714
0.00153078 0.000435173 -0.00422014
0.0 0.0 -0.00160516
0.0 0.0 -0.000346714
0.0 0.0 -0.000346714
-8.08414e-05 8.70983e-05 -3.41512e-05
0.0 0.0 -0.000346714
0.0 0.0 -0.000346714
-0.0179805 0.0101399 0.0470004
0.0 0.0 -0.000346714
0.0 0.0 -0.000346714
0.0 0.0 -0.000346714
0.0 0.0 -0.00160516
-5.0864e-05 1.56732e-06 -8.54692e-05
0.0 0.0 -0.000346714
-9.0103e-05 2.55981e-06 -3.89442e-05
0.0 0.0 -0.000346714
0.0 0.0 -0.00160516
0.0 0.0 -0.00160516
0.0 0.0 -0.00160516
0.0 0.0 -0.000346714
0.0 0.0 -0.00160516
0.0 0.0 -0.000346714
-7.65616e-05 -6.39795e-05 -6.1726e-05
0.0 0.0 -0.000346714
0.0 0.0 -0.000346714
0.0 0.0 -0.000346714
0.0 0.0 -0.00160516
0.0 0.0 -0.000346714
0.0 0.0 -0.000346714
0.0 0.0 -0.000346714
0.0 0.0 -0.000346714
0.0 0.0 -0.000346714
0.0 0.0 -0.000346714
0.00286622 -0.00127235 -0.0124419
0.0 0.0 -0.00160516
0.0 0.0 -0.000346714
0.0 0.0 -0.000346714
0.0 0.0 -0.00160516
0.0 0.0 -0.00160516
0.0 0.0 -0.000346714
0.0 0.0 -0.000346714
0.0 0.0 -0.000346714
0.0 0.0 -0.000346714
0.0 0.0 -0.000346714
0.0 0.0 -0.00160516
0.0 0.0 -0.000346714
-6.55518e-05 9.38557e-05 -7.17678e-05
0.0 0.0 -0.000346714
0.0 0.0 -0.000346714
0.0 0.0 -0.000346714
-0.00166469 0.00135022 0.00358137
0.0 0.0 -0.000346714
0.0 0.0 -0.000346714
-8.72185e-05 1.12497e-06 -3.59517e-05
0.0 0.0 -0.000346714
0.0 0.0 -0.000346714
0.0 0.0 -0.000346714
0.0 0.0 -0.000346714
0.0 0.0 -0.00160516
0.0 0.0 -0.000346714
0.0 0.0 -0.000346714
0.0 0.0 -0.000346714
-0.00971523 -0.000405929 0.00861586
0.0 0.0 -0.000346714
0.0 0.0 -0.000346714
0.0 0.0 -0.00160516
0.0 0.0 -0.000346714
0.0 0.0 -0.000346714
0.0 0.0 -0.00160516
0.0 0.0 -0.000346714
0.0 0.0 -0.000346714
0.0 0.0 -0.000346714
0.0 0.0 -0.000346714
0.0 0.0 -0.000346714
0.0 0.0 -0.000346714
0.0 0.0 -0.000346714
0.0 0.0 -0.000346714
0.0 0.0 -0.00160516
0.0 0.0 -0.00160516
0.0 0.0 -0.00160516
0.0 0.0 -0.000346714
0.0 0.0 -0.000346714
0.0 0.0 -0.000346714
0.0 0.0 -0.00160516
0.0 0.0 -0.000346714
0.0149066 -0.0255868 0.0840512
-7.17275e-05 -7.68853e-05 -5.84583e-05
0.0 0.0 -0.00160516
0.0 0.0 -0.000346714
0.0 0.0 -0.000346714
0.0 0.0 -0.000346714
0.0 0.0 -0.00160516
0.0 0.0 -0.000346714
0.0 0.0 -0.00160516
0.0 0.0 -0.00160516
0.0 0.0 -0.00160516
0.0 0.0 -0.000346714
0.0 0.0 -0.000346714
0.0 0.0 -0.000346714
0.0 0.0 -0.000346714
0.0 0.0 -0.000346714
0.0 0.0 -0.000346714
0.0 0.0 -0.00160516
0.0 0.0 -0.000346714
0.0 0.0 -0.00160516
0.0 0.0 -0.000346714
0.0 0.0 -0.00160516
0.0 0.0 -0.00160516
0.0 0.0 -0.000346714
0.0 0.0 -0.000346714
0.0 0.0 -0.000346714
0.0 0.0 -0.000346714
0.0 0.0 -0.00160516
0.0 0.0 -0.00160516
0.0 0.0 -0.000346714
0.0 0.0 -0.000346714
0.0 0.0 -0.00160516
0.0 0.0 -0.000346714
0.0 0.0 -0.000346714
0.0 0.0 -0.000346714
0.0 0.0 -0.00160516
0.0 0.0 -0.000346714
0.0 0.0 -0.000346714
0.0 0.0 -0.000346714
0.0 0.0 -0.00160516
0.0 0.0 -0.000346714
0.0 0.0 -0.000346714
0.0 0.0 -0.00160516
0.0 0.0 -0.000346714
0.0 0.0 -0.000346714
0.0 0.0 -0.00160516
0.0 0.0 -0.000346714
0.0 0.0 -0.00160516
0.0 0.0 -0.000346714
0.0 0.0 -0.00160516
0.0 0.0 -0.000346714
0.0 0.0 -0.00160516
0.0 0.0 -0.000346714
0.0 0.0 -0.000346714
0.0 0.0 -0.00160516
0.0 0.0 -0.000346714
0.0 0.0 -0.000346714
0.0 0.0 -0.00160516
0.0 0.0 -0.00160516
0.0 0.0 -0.000346714
0.0 0.0 -0.000346714
0.0 0.0 -0.000346714
0.0 0.0 -0.000346714
0.0 0.0 -0.000346714
0.0 0.0 -0.00160516
0.0 0.0 -0.000346714
0.0 0.0 -0.000346714
0.0 0.0 -0.000346714
0.0 0.0 -0.00160516
0.0 0.0 -0.000346714
0.0 0.0 -0.00160516
0.0 0.0 -0.00160516
0.0 0.0 -0.000346714
0.0 0.0 -0.000346714
0.0 0.0 -0.000346714
0.0 0.0 -0.000346714
0.0 0.0 -0.000346714
0.0 0.0 -0.000346714
0.0 0.0 -0.00160516
0.0 0.0 -0.000346714
0.0 0.0 -0.00160516
0.0 0.0 -0.000346714
0.0 0.0 -0.00160516
0.0 0.0 -0.000346714
0.0 0.0 -0.000346714
0.0 0.0 -0.00160516
0.0 0.0 -0.000346714
0.0 0.0 -0.000346714
0.0 0.0 -0.000346714
0.0 0.0 -0.000346714
0.0 0.0 -0.000346714
0.0 0.0 -0.000346714
0.0 0.0 -0.00160516
0.0 0.0 -0.000346714
0.0 0.0 -0.00160516
0.0 0.0 -0.000346714
0.0 0.0 -0.00160516
0.0 0.0 -0.00160516
0.0 0.0 -0.000346714
0.0 0.0 -0.000346714
0.0 0.0 -0.000346714
0.0 0.0 -0.00160516
0.0 0.0 -0.00160516
0.0 0.0 -0.000346714
0.0 0.0 -0.00160516
0.0 0.0 -0.000346714
0.0 0.0 -0.000346714
0.0 0.0 -0.00160516
0.0 0.0 -0.00160516
0.0 0.0 -0.000346714
0.0 0.0 -0.000346714
0.0 0.0 -0.000346714
0.0 0.0 -0.000346714
0.0 0.0 -0.000346714
0.0 0.0 -0.00160516
0.0 0.0 -0.000346714
0.0 0.0 -0.00160516
0.0 0.0 -0.000346714
0.0 0.0 -0.000346714
0.0 0.0 -0.000346714
0.0 0.0 -0.00160516
0.0 0.0 -0.00160516
0.0 0.0 -0.000346714
0.0 0.0 -0.000346714