# vtk DataFile Version 2.0
Generated by lpp.py
ASCII
DATASET POLYDATA
POINTS 51 float
-0.00894204 -0.00172108 0.0118404
-0.0106535 0.00311808 0.0122077
-0.0241534 0.031784 0.0126695
-0.00174714 -0.029557 0.0140102
-0.0346734 -0.00599195 0.0136875
-0.0255875 0.0216478 0.015538
-0.00953586 -0.0287916 0.0179812
-0.00462371 -0.0298822 0.0204981
-0.0270088 -0.00882918 0.020374
-0.0134792 0.0074157 0.0215924
-0.0266102 0.013684 0.0215683
-0.00857183 0.0107813 0.0226877
-0.0280307 0.022667 0.022272
-0.0202974 -0.0206343 0.0242477
-0.0083641 -0.0195 0.0251743
-0.0101549 -0.00442827 0.0264069
-0.0253454 -0.000700049 0.0257424
-0.00408721 0.01129 0.0242784
-0.0335467 0.0344165 0.0248111
-0.00454319 -0.0294115 0.0275206
-0.0333391 -0.019004 0.0297212
-0.00618745 0.0189444 0.029708
-0.0332823 -0.00448395 0.0328666
-0.00741847 0.0112937 0.0339107
-0.0165601 0.0229939 0.034465
-0.0127396 -0.0117751 0.038381
-0.022531 -0.00019371 0.0364994
-0.000459601 0.00699661 0.037772
-0.0138262 0.0291618 0.0355817
-0.0219947 -0.0332201 0.040532
-0.0160817 -0.03192 0.0420312
-0.0230202 -0.0250033 0.040688
-0.0290883 0.000876534 0.0392778
-0.0254317 0.00979368 0.0384925
-0.0177649 0.0224168 0.0398103
-0.0159539 -0.0280969 0.0455477
-0.020721 -0.0278475 0.0430453
-0.0297813 -0.0200888 0.0447495
-0.00180681 -0.0218065 0.0486967
-0.0159102 0.00235532 0.0481936
-0.022228 0.00485213 0.0485403
-0.0097629 0.0296421 0.0475645
-0.0105626 -0.0145818 0.0526384
-0.0279742 -1.04943e-05 0.0517972
-0.0218847 0.0256262 0.0519857
-0.0160508 0.0304724 0.0523058
-0.0294843 -0.0347245 0.056389
-0.022804 -0.0315502 0.0531699
-0.0175025 -0.0121213 0.0537898
-0.0312011 0.00531382 0.0549779
-0.0196938 0.0042356 0.0550598
VERTICES 51 102
1 0
1 1
1 2
1 3
1 4
1 5
1 6
1 7
1 8
1 9
1 10
1 11
1 12
1 13
1 14
1 15
1 16
1 17
1 18
1 19
1 20
1 21
1 22
1 23
1 24
1 25
1 26
1 27
1 28
1 29
1 30
1 31
1 32
1 33
1 34
1 35
1 36
1 37
1 38
1 39
1 40
1 41
1 42
1 43
1 44
1 45
1 46
1 47
1 48
1 49
1 50
POINT_DATA 51
VECTORS i float
0.0 0.0 0.0
0.0 0.0 0.0
0.0 0.0 0.0
0.0 0.0 0.0
0.0 0.0 0.0
0.0 0.0 0.0
0.0 0.0 0.0
0.0 0.0 0.0
0.0 0.0 0.0
0.0 0.0 0.0
0.0 0.0 0.0
0.0 0.0 0.0
0.0 0.0 0.0
0.0 0.0 0.0
0.0 0.0 0.0
0.0 0.0 0.0
0.0 0.0 0.0
0.0 0.0 0.0
0.0 0.0 0.0
0.0 0.0 0.0
0.0 0.0 0.0
0.0 0.0 0.0
0.0 0.0 0.0
0.0 0.0 0.0
0.0 0.0 0.0
0.0 0.0 0.0
0.0 0.0 0.0
0.0 0.0 0.0
0.0 0.0 0.0
0.0 0.0 0.0
0.0 0.0 0.0
0.0 0.0 0.0
0.0 0.0 0.0
0.0 0.0 0.0
0.0 0.0 0.0
0.0 0.0 0.0
0.0 0.0 0.0
0.0 0.0 0.0
0.0 0.0 0.0
0.0 0.0 0.0
0.0 0.0 0.0
0.0 0.0 0.0
0.0 0.0 0.0
0.0 0.0 0.0
0.0 0.0 0.0
0.0 0.0 0.0
0.0 0.0 0.0
0.0 0.0 0.0
0.0 0.0 0.0
0.0 0.0 0.0
0.0 0.0 0.0
VECTORS f float
0.0 0.0 -0.000346714
0.0 0.0 -0.000346714
0.0 0.0 -0.000346714
0.0 0.0 -0.00160516
0.0 0.0 -0.00160516
0.0 0.0 -0.00160516
0.0 0.0 -0.000346714
0.0 0.0 -0.000346714
0.0 0.0 -0.000346714
0.0 0.0 -0.00160516
0.0 0.0 -0.000346714
0.0 0.0 -0.000346714
0.0 0.0 -0.000346714
0.0 0.0 -0.000346714
0.0 0.0 -0.000346714
0.0 0.0 -0.000346714
0.0 0.0 -0.000346714
0.0 0.0 -0.00160516
0.0 0.0 -0.000346714
0.0 0.0 -0.00160516
0.0 0.0 -0.000346714
0.0 0.0 -0.00160516
0.0 0.0 -0.000346714
0.0 0.0 -0.00160516
0.0 0.0 -0.000346714
0.0 0.0 -0.000346714
0.0 0.0 -0.00160516
0.0 0.0 -0.00160516
0.0 0.0 -0.000346714
0.0 0.0 -0.00160516
0.0 0.0 -0.00160516
0.0 0.0 -0.000346714
0.0 0.0 -0.000346714
0.0 0.0 -0.000346714
0.0 0.0 -0.000346714
0.0 0.0 -0.00160516
0.0 0.0 -0.000346714
0.0 0.0 -0.000346714
0.0 0.0 -0.00160516
0.0 0.0 -0.00160516
0.0 0.0 -0.000346714
0.0 0.0 -0.000346714
0.0 0.0 0.0
0.0 0.0 0.0
0.0 0.0 0.0
0.0 0.0 0.0
0.0 0.0 0.0
0.0 0.0 0.0
0.0 0.0 0.0
0.0 0.0 0.0
0.0 0.0 0.0
VECTORS omega float
0.0 0.0 0.0
0.0 0.0 0.0
0.0 0.0 0.0
0.0 0.0 0.0
0.0 0.0 0.0
0.0 0.0 0.0
0.0 0.0 0.0
0.0 0.0 0.0
0.0 0.0 0.0
0.0 0.0 0.0
0.0 0.0 0.0
0.0 0.0 0.0
0.0 0.0 0.0
0.0 0.0 0.0
0.0 0.0 0.0
0.0 0.0 0.0
0.0 0.0 0.0
0.0 0.0 0.0
0.0 0.0 0.0
0.0 0.0 0.0
0.0 0.0 0.0
0.0 0.0 0.0
0.0 0.0 0.0
0.0 0.0 0.0
0.0 0.0 0.0
0.0 0.0 0.0
0.0 0.0 0.0
0.0 0.0 0.0
0.0 0.0 0.0
0.0 0.0 0.0
0.0 0.0 0.0
0.0 0.0 0.0
0.0 0.0 0.0
0.0 0.0 0.0
0.0 0.0 0.0
0.0 0.0 0.0
0.0 0.0 0.0
0.0 0.0 0.0
0.0 0.0 0.0
0.0 0.0 0.0
0.0 0.0 0.0
0.0 0.0 0.0
0.0 0.0 0.0
0.0 0.0 0.0
0.0 0.0 0.0
0.0 0.0 0.0
0.0 0.0 0.0
0.0 0.0 0.0
0.0 0.0 0.0
0.0 0.0 0.0
0.0 0.0 0.0
VECTORS v float
0.0 0.0 -1.32241
0.0 0.0 -1.31966
0.0 0.0 -1.31623
0.0 0.0 -1.30622
0.0 0.0 -1.30857
0.0 0.0 -1.29464
0.0 0.0 -1.276
0.0 0.0 -1.25648
0.0 0.0 -1.25746
0.0 0.0 -1.24795
0.0 0.0 -1.24814
0.0 0.0 -1.23931
0.0 0.0 -1.24255
0.0 0.0 -1.22686
0.0 0.0 -1.2195
0.0 0.0 -1.20949
0.0 0.0 -1.21489
0.0 0.0 -1.22666
0.0 0.0 -1.22234
0.0 0.0 -1.20047
0.0 0.0 -1.18232
0.0 0.0 -1.18242
0.0 0.0 -1.15593
0.0 0.0 -1.147
0.0 0.0 -1.14229
0.0 0.0 -1.10816
0.0 0.0 -1.12464
0.0 0.0 -1.11355
0.0 0.0 -1.13268
0.0 0.0 -1.08893
0.0 0.0 -1.07529
0.0 0.0 -1.08755
0.0 0.0 -1.10021
0.0 0.0 -1.10717
0.0 0.0 -1.0954
0.0 0.0 -1.04272
0.0 0.0 -1.06607
0.0 0.0 -1.05028
0.0 0.0 -1.0127
0.0 0.0 -1.01761
0.0 0.0 -1.01418
0.0 0.0 -1.02359
-0 0.0 -1.0
-0 0.0 -1.0
-0 0.0 -1.0
-0 0.0 -1.0
-0 0.0 -1.0
-0 0.0 -1.0
-0 0.0 -1.0
-0 0.0 -1.0
-0 0.0 -1.0
SCALARS radius float 1
LOOKUP_TABLE default
0.0015
0.0015
0.0015
0.0025
0.0025
0.0025
0.0015
0.0015
0.0015
0.0025
0.0015
0.0015
0.0015
0.0015
0.0015
0.0015
0.0015
0.0025
0.0015
0.0025
0.0015
0.0025
0.0015
0.0025
0.0015
0.0015
0.0025
0.0025
0.0015
0.0025
0.0025
0.0015
0.0015
0.0015
0.0015
0.0025
0.0015
0.0015
0.0025
0.0025
0.0015
0.0015
0.0015
0.0015
0.0015
0.0025
0.0025
0.0015
0.0015
0.0015
0.0015
SCALARS type float 1
LOOKUP_TABLE default
1.0
1.0
1.0
1.0
1.0
1.0
1.0
1.0
1.0
1.0
1.0
1.0
1.0
1.0
1.0
1.0
1.0
1.0
1.0
1.0
1.0
1.0
1.0
1.0
1.0
1.0
1.0
1.0
1.0
1.0
1.0
1.0
1.0
1.0
1.0
1.0
1.0
1.0
1.0
1.0
1.0
1.0
1.0
1.0
1.0
1.0
1.0
1.0
1.0
1.0
1.0
SCALARS id float 1
LOOKUP_TABLE default
12.0
5.0
11.0
1.0
2.0
4.0
8.0
7.0
10.0
3.0
6.0
25.0
9.0
24.0
22.0
19.0
17.0
16.0
18.0
15.0
21.0
14.0
20.0
13.0
23.0
37.0
29.0
27.0
35.0
26.0
28.0
36.0
32.0
38.0
34.0
30.0
33.0
31.0
40.0
39.0
44.0
45.0
46.0
50.0
47.0
42.0
41.0
48.0
51.0
49.0
43.0

