# vtk DataFile Version 2.0
Generated by lpp.py
ASCII
DATASET POLYDATA
POINTS 397 float
-0.247478 -0.0657824 -0.189228
-0.193014 -0.0159491 -0.185243
-0.187703 -0.00650421 -0.185015
-0.18887 0.00418008 -0.18455
-0.186348 0.00874791 -0.18406
-0.188038 0.0206295 -0.183855
-0.192533 0.0227593 -0.185292
-0.18599 -0.0276055 -0.18163
-0.178564 -0.00890916 -0.179991
-0.179123 -0.0045514 -0.181388
-0.184453 0.0148116 -0.182624
-0.179584 0.0206469 -0.180294
-0.166621 -0.00829359 -0.1759
-0.170136 -0.00245831 -0.177691
-0.172706 0.00323709 -0.178702
-0.165216 0.00199892 -0.175667
-0.167845 0.00477828 -0.176787
-0.165208 0.00579079 -0.17561
-0.171307 0.0140686 -0.177462
-0.174896 0.0240807 -0.177648
-0.247221 0.0799361 -0.176159
-0.186514 -0.0571402 -0.171989
-0.161184 -0.00528815 -0.173931
-0.16028 0.000115655 -0.173476
-0.164307 0.0141723 -0.173443
-0.159133 0.0144264 -0.172379
-0.172119 0.0342386 -0.174425
-0.152579 -0.00902116 -0.169001
-0.155569 0.00322774 -0.171519
-0.158867 0.0265023 -0.169379
-0.149329 -0.0180017 -0.166851
-0.145435 -0.0135486 -0.166773
-0.14737 0.000918081 -0.168117
-0.140959 0.0104215 -0.165102
-0.149416 0.0179232 -0.166754
-0.146797 0.0239738 -0.166067
-0.157585 0.035488 -0.168216
-0.145973 -0.0235646 -0.164546
-0.142128 -0.0217474 -0.164451
-0.149496 -0.0105325 -0.163144
-0.131782 -0.00901022 -0.161383
-0.13979 0.00781312 -0.164154
-0.13534 0.0112484 -0.161611
-0.133793 0.0153087 -0.161674
-0.134854 -0.0135124 -0.161233
-0.127212 -0.0063371 -0.159588
-0.125629 0.0055942 -0.158846
-0.129636 0.0139798 -0.160087
-0.127256 0.0171664 -0.157662
-0.131334 0.0238729 -0.158375
-0.138672 0.0283202 -0.160722
-0.145327 -0.0525403 -0.156593
-0.117839 -0.0150948 -0.153952
-0.120952 -0.00858769 -0.156796
-0.118319 -0.00684149 -0.154291
-0.123032 -0.00498506 -0.156797
-0.122928 0.00639025 -0.156644
-0.114348 0.0134938 -0.153644
-0.124755 0.0244739 -0.156678
-0.123966 -0.0412233 -0.152726
-0.11926 -0.0219725 -0.15276
-0.122358 -0.00703506 -0.152701
-0.120859 -0.00349905 -0.153746
-0.111053 -0.00208693 -0.152731
-0.113758 0.00289749 -0.150107
-0.110012 0.00143843 -0.151422
-0.107369 -0.00113845 -0.151232
-0.116375 0.0080318 -0.153803
-0.111604 0.0105824 -0.151497
-0.112544 0.0150925 -0.151878
-0.111723 0.0216791 -0.151636
-0.110789 -0.023647 -0.150703
-0.106444 -0.0114403 -0.149406
-0.104558 0.000817351 -0.148953
-0.0992196 0.0118468 -0.147388
-0.104733 0.0153655 -0.147826
-0.102068 0.0228388 -0.147416
-0.132101 0.0588948 -0.149799
-0.0925915 -0.0291753 -0.1425
-0.097548 -0.0182576 -0.146147
-0.0953491 -0.0220796 -0.144719
-0.0927883 -0.0166202 -0.143517
-0.102423 -0.0114158 -0.148705
-0.0920713 -0.0116024 -0.143345
-0.0992666 -0.00724288 -0.146557
-0.115257 -0.00532285 -0.15035
-0.106223 -0.00353428 -0.149642
-0.112058 -0.00106778 -0.149916
-0.0956545 -0.000607651 -0.145263
-0.088024 -0.00267779 -0.14315
-0.117202 0.00979033 -0.149094
-0.0933589 0.0126837 -0.14377
-0.0975063 0.0184629 -0.145882
-0.143391 -0.0813133 -0.141418
-0.117605 -0.0498313 -0.145515
-0.0949566 -0.0195516 -0.140668
-0.0855445 -0.0149756 -0.140409
-0.0871852 -0.00450528 -0.139344
-0.0888736 0.0013114 -0.142382
-0.0804903 0.000475012 -0.139944
-0.099133 0.00774614 -0.147226
-0.0840474 0.0025909 -0.141422
-0.0872332 0.0110543 -0.141192
-0.0872877 0.0142677 -0.142175
-0.0900415 0.0241078 -0.140053
-0.0813461 -0.0215162 -0.137826
-0.0733444 -0.00878652 -0.136687
-0.0756046 -0.0038559 -0.136806
-0.0793121 0.00354704 -0.139396
-0.0776982 0.00352252 -0.136605
-0.078953 0.0105478 -0.137906
-0.104236 0.0166366 -0.140641
-0.0769516 0.0152742 -0.137683
-0.0790305 0.0207112 -0.137046
-0.0810322 0.028433 -0.136639
-0.0880828 -0.0551995 -0.133528
-0.0757026 -0.0303106 -0.13521
-0.0720405 -0.0308891 -0.132464
-0.0722355 -0.0273203 -0.134349
-0.0701662 -0.0168449 -0.133638
-0.0754556 -0.011022 -0.133143
-0.0654684 -0.0131681 -0.133161
-0.0663699 -0.00731937 -0.132656
-0.0710773 -0.00360181 -0.133444
-0.0837359 -0.00215677 -0.136331
-0.0734803 0.00991857 -0.13515
-0.0745335 0.0137399 -0.136619
-0.0699531 0.0175648 -0.133401
-0.0730478 0.0308955 -0.133734
-0.0688942 0.0279628 -0.13273
-0.0819101 0.0422339 -0.133776
-0.0918998 0.0548569 -0.134168
-0.0662891 -0.0209501 -0.131573
-0.0826773 -0.016872 -0.132266
-0.0917356 -0.0110596 -0.13576
-0.0980202 -0.00265566 -0.134734
-0.0896194 -0.00321492 -0.135108
-0.0595473 0.00418499 -0.129947
-0.0752502 0.00991851 -0.128287
-0.087236 0.0165219 -0.13254
-0.0570608 0.0207023 -0.128918
-0.0602571 0.0227864 -0.129988
-0.0982313 0.0568083 -0.13183
-0.0590576 -0.0281086 -0.127585
-0.0523063 -0.025507 -0.126266
-0.0591868 -0.0166173 -0.129087
-0.0489364 -0.0149557 -0.126056
-0.0492028 -0.00845586 -0.126524
-0.0577511 -0.00350153 -0.12666
-0.0478019 0.0022077 -0.12611
-0.0448987 0.00255883 -0.124834
-0.0707416 0.00612552 -0.126285
-0.0517664 0.0103989 -0.127073
-0.0666544 -0.0433619 -0.125138
-0.0611557 -0.0239933 -0.124396
-0.0365369 -0.016521 -0.120636
-0.0580139 -0.0110829 -0.125721
-0.0441338 -0.00114616 -0.123254
-0.0422646 0.00434287 -0.123605
-0.0934488 0.00809358 -0.125376
-0.0482751 0.00788601 -0.124218
-0.0804342 0.00931594 -0.124055
-0.0594695 0.0130526 -0.123775
-0.0786696 0.07142 -0.123029
-0.0813661 -0.0261559 -0.121552
-0.0483248 -0.0247101 -0.11989
-0.0406378 -0.0267318 -0.120172
-0.0374384 -0.0239754 -0.119693
-0.0631695 -0.020001 -0.123165
-0.0321192 -0.016035 -0.117611
-0.0722032 -0.00562018 -0.12017
-0.047337 -0.00709374 -0.116878
-0.0393416 -0.00862688 -0.11872
-0.0586136 -0.00930286 -0.120504
-0.070938 0.00170848 -0.121139
-0.0308406 0.00146377 -0.11894
-0.0451683 0.00448609 -0.120283
-0.0768914 0.00976928 -0.121278
-0.0688886 0.0112056 -0.121524
-0.0591239 0.0163833 -0.118251
-0.0522835 0.0117375 -0.122354
-0.0420117 0.0170792 -0.115707
-0.048718 0.0561658 -0.117417
-0.0485518 -0.0590753 -0.116225
-0.0408725 -0.0325006 -0.117705
-0.0298655 -0.0318438 -0.115802
-0.0293859 -0.00640649 -0.116258
-0.0710364 0.0033036 -0.115181
-0.0591852 0.00787723 -0.117556
-0.0318962 0.00150781 -0.116107
-0.0261709 0.00381237 -0.117024
-0.0307248 0.00790381 -0.117094
-0.0346259 0.0159676 -0.11559
-0.063372 0.0207439 -0.115035
-0.05565 0.0189908 -0.114113
-0.0421112 0.0276779 -0.113123
-0.0262499 0.0258151 -0.112895
-0.0421188 0.0310829 -0.117597
-0.0517471 -0.0763766 -0.109878
-0.0256866 -0.0283612 -0.113961
-0.0284965 -0.032588 -0.113165
-0.0292714 -0.0259121 -0.11426
-0.0446641 -0.0217786 -0.111616
-0.0243798 -0.0213763 -0.114269
-0.05384 -0.00870588 -0.112946
-0.0470388 -0.0101036 -0.111934
-0.0571536 -0.00953038 -0.115732
-0.0123219 -0.00482256 -0.111163
-0.0349503 0.00268498 -0.117614
-0.0258182 0.00440934 -0.1125
-0.0319013 0.012462 -0.11374
-0.0611593 0.0151267 -0.113036
-0.0562954 0.0139744 -0.112028
-0.0264911 0.0204206 -0.109719
-0.0209778 0.0184163 -0.112239
-0.0336886 0.0268502 -0.113839
-0.0577013 0.0303252 -0.117106
-0.0186968 0.0293349 -0.110753
-0.0359675 0.0314663 -0.115816
-0.0920797 0.0412232 -0.115977
-0.0188573 -0.031517 -0.109515
-0.0175407 -0.0238744 -0.107021
-0.0507106 -0.0156904 -0.108127
-0.0279101 -0.0151843 -0.111168
-0.0399399 -0.0153589 -0.118283
-0.0155907 -0.0162109 -0.104993
-0.0289316 -0.00513576 -0.107321
-0.0246349 -0.0132475 -0.115701
-0.0120302 -0.00629029 -0.105999
-0.0474785 -0.00305767 -0.10839
-0.039656 -0.00352843 -0.106558
-0.0169231 -0.00442868 -0.104815
-0.0317019 -0.00363481 -0.11414
-0.0511675 0.00800579 -0.109167
-0.0207407 0.0120926 -0.111516
-0.0195542 0.0115157 -0.107417
-0.0306785 0.0208062 -0.115847
-0.141102 -0.0334852 -0.107453
-0.018894 -0.028183 -0.1094
-0.01186 -0.022644 -0.10363
-0.044847 -0.0188529 -0.104921
-0.0681881 -0.0105779 -0.10648
-0.0329113 -0.00994295 -0.112298
-0.0356706 -0.00368342 -0.104143
-0.0310149 0.00613815 -0.11005
-0.00709925 0.00369642 -0.103567
-0.0312712 0.00948045 -0.107144
-0.0951655 0.0173055 -0.108035
-0.00916748 0.0161984 -0.102927
-0.0382482 0.0206306 -0.105611
-0.033745 0.0221342 -0.106854
-0.022769 0.0659493 -0.10327
-0.0332004 -0.0286376 -0.117798
-0.0356677 0.00307869 -0.112451
-0.036542 0.0122824 -0.109394
-0.0162226 0.0262792 -0.103276
-0.0289384 -0.0110324 -0.110188
-0.0168741 0.00857254 -0.107194
-0.0329611 0.0272808 -0.106668
-0.0266383 0.0211746 -0.105587
-0.0242312 -0.0119118 -0.10282
-0.0168573 0.0226099 -0.099042
-0.000691472 -0.0346461 -0.0972855
-0.0084722 -0.0123243 -0.0982063
-0.0181876 -0.00799419 -0.0972818
-0.0319423 -0.0207084 -0.0956861
-0.0332043 -0.0119457 -0.0966099
-0.0266867 0.00969496 -0.0950735
-0.0345837 0.0307765 -0.0951021
-0.0203439 -0.0213423 -0.0900887
-0.0242569 -0.0048619 -0.0880863
-0.0265303 0.0300204 -0.0857606
-0.0158837 -0.0146366 -0.0836359
-0.018202 -0.00127292 -0.08547
-0.0285795 0.0326856 -0.0856015
-0.00968967 -0.0134906 -0.0803589
-0.00413281 -0.000337831 -0.0816267
-0.00852479 0.034934 -0.080119
-0.014458 -0.0150737 -0.0763661
-0.0171117 -0.0109135 -0.0739105
-0.0238687 0.0109416 -0.0743989
-0.026238 0.0194762 -0.0719522
-0.0145426 0.0200822 -0.0719503
-0.00517746 0.0266228 -0.0745041
-0.0181127 0.0295097 -0.0686724
-0.0196571 -0.00676578 -0.06687
-0.030318 0.0147393 -0.0645211
-0.0170652 -0.0127043 -0.0625642
-0.0300845 0.0256603 -0.0614856
-0.0308827 0.00162734 -0.0592139
-0.0239975 0.00585265 -0.0582082
-0.00434932 0.00423497 -0.0598512
-0.0332323 0.0316676 -0.0593752
-0.0108823 0.00232676 -0.055442
-0.0346254 0.0108555 -0.0548112
-0.0184752 -0.00390867 -0.0517155
-0.0256427 -0.0310174 -0.0466029
-0.0291592 -0.00156433 -0.0483457
-0.0101895 0.00506721 -0.0463622
-0.00344499 0.0151299 -0.046143
-0.027048 -0.0192107 -0.042981
-0.00876558 -0.0160351 -0.0440551
-0.00296015 -0.0125694 -0.0452585
-0.00418171 -0.00389031 -0.0446871
-0.0316084 -0.0265255 -0.0401378
-0.0281016 0.00020127 -0.0396085
-0.00981587 0.00303905 -0.0383023
-0.0246424 0.00553727 -0.0352767
-0.0288083 0.00732997 -0.0377585
-0.0208274 -0.0341404 -0.0322801
-0.0195242 0.01415 -0.032229
-0.0188893 -0.0213338 -0.0299994
-0.00987825 0.0266251 -0.0297719
-0.032854 -0.0214325 -0.0243697
-0.0141191 -0.0144365 -0.0263459
-0.0107355 -0.0103339 -0.0268745
-0.0118162 -0.00633589 -0.0256587
-0.0120408 0.00484626 -0.0235505
-0.0260976 0.00786627 -0.0237924
-0.0129098 0.021507 -0.0234007
-0.000558622 0.0213939 -0.0210051
-0.00974267 -0.0210328 -0.0169688
-0.0026782 0.0306845 -0.0171669
-0.031713 0.0319285 -0.0172223
-0.0120659 -0.0232029 -0.0153961
-0.0193603 0.00427373 -0.0144278
-0.0280975 0.0196597 -0.0125488
-0.0275767 -0.00857811 -0.0117454
-0.0341957 -0.0270523 -0.00588195
-0.00304149 -0.022423 -0.00829764
-0.00515441 -0.0109162 -0.00746431
-0.018318 0.00551713 -0.0078815
-0.0142719 0.0175582 -0.00690443
-0.0329214 -0.0245036 -0.00140803
-0.0230158 -0.0063197 -0.00374993
-0.00209743 0.0155548 -0.00209231
-0.0054599 0.0237214 -0.00157767
-0.0230867 -0.0242912 0.000746037
-0.00426265 -0.000462787 8.9433e-05
-0.034337 0.00561382 -0.000494809
-0.00209585 0.021148 0.00251863
-0.0273791 5.52728e-05 0.00351528
-0.0183167 0.0119421 0.00419053
-0.00205387 0.0243132 0.00553822
-0.0258414 -0.0270694 0.00824531
-0.0323459 0.000933277 0.00893136
-0.0191985 0.0336061 0.00921719
-0.00977287 -0.0305241 0.0117666
-0.0266262 0.0180085 0.0132177
-0.0268897 0.0240704 0.0122634
-0.00315638 -0.0234267 0.0138391
-0.00858455 -0.00832622 0.0173326
-0.00797106 0.00155248 0.0163751
-0.0251891 0.0274385 0.015269
-0.029518 -0.0331169 0.020403
-0.0184795 -0.0100183 0.0203979
-0.00657095 0.00906157 0.0202231
-0.0304883 0.0114791 0.0197204
-0.0183571 0.0195956 0.0194946
-0.00532413 -0.0141231 0.0214319
-0.0123384 -0.0127121 0.0244514
-0.0315432 -0.000776551 0.0224789
-0.0306529 0.0174599 0.0213017
-0.00639582 -0.0194124 0.0278997
-0.0349219 -0.0119867 0.0264567
-0.00832892 0.000607053 0.0282451
-0.0215522 -0.0242077 0.028739
-0.0220487 -0.00121585 0.0317214
-0.00390427 -0.00253676 0.0316556
-0.0349316 0.000809468 0.0297473
-0.0302252 0.0258081 0.029282
-0.00538423 0.0015153 0.0337398
-0.00221027 -0.0230351 0.0383997
-0.0183398 -0.0154698 0.0385133
-0.00676706 -0.00372403 0.0382302
-0.0151336 0.0123986 0.0369412
-0.0275497 0.0283687 0.0383704
-0.0077538 -0.0326437 0.041895
-0.0206177 -0.0299049 0.0404954
-0.00131466 -0.00968721 0.0400009
-0.0233766 -0.00607507 0.0406969
-0.0173855 -0.000880817 0.0421855
-0.0182307 0.00855733 0.0424473
-0.0197987 0.018953 0.0434334
-0.0296317 0.0298979 0.0424887
-0.00341211 -0.034738 0.0458597
-0.0341798 -0.011198 0.0470758
-0.00558275 -0.00660585 0.0454619
-0.0271405 0.0119819 0.0453318
-0.010257 0.0208697 0.0464714
-0.0208051 -0.0158491 0.0476218
-0.00399213 0.0184532 0.0479899
-0.00154371 0.0315848 0.0487867
-0.0138788 -0.0115128 0.0522052
-0.00452227 -0.00895877 0.0512469
-0.0163368 0.0276055 0.0525127
-0.0309382 -0.0143436 0.0544631
VERTICES 397 794
1 0
1 1
1 2
1 3
1 4
1 5
1 6
1 7
1 8
1 9
1 10
1 11
1 12
1 13
1 14
1 15
1 16
1 17
1 18
1 19
1 20
1 21
1 22
1 23
1 24
1 25
1 26
1 27
1 28
1 29
1 30
1 31
1 32
1 33
1 34
1 35
1 36
1 37
1 38
1 39
1 40
1 41
1 42
1 43
1 44
1 45
1 46
1 47
1 48
1 49
1 50
1 51
1 52
1 53
1 54
1 55
1 56
1 57
1 58
1 59
1 60
1 61
1 62
1 63
1 64
1 65
1 66
1 67
1 68
1 69
1 70
1 71
1 72
1 73
1 74
1 75
1 76
1 77
1 78
1 79
1 80
1 81
1 82
1 83
1 84
1 85
1 86
1 87
1 88
1 89
1 90
1 91
1 92
1 93
1 94
1 95
1 96
1 97
1 98
1 99
1 100
1 101
1 102
1 103
1 104
1 105
1 106
1 107
1 108
1 109
1 110
1 111
1 112
1 113
1 114
1 115
1 116
1 117
1 118
1 119
1 120
1 121
1 122
1 123
1 124
1 125
1 126
1 127
1 128
1 129
1 130
1 131
1 132
1 133
1 134
1 135
1 136
1 137
1 138
1 139
1 140
1 141
1 142
1 143
1 144
1 145
1 146
1 147
1 148
1 149
1 150
1 151
1 152
1 153
1 154
1 155
1 156
1 157
1 158
1 159
1 160
1 161
1 162
1 163
1 164
1 165
1 166
1 167
1 168
1 169
1 170
1 171
1 172
1 173
1 174
1 175
1 176
1 177
1 178
1 179
1 180
1 181
1 182
1 183
1 184
1 185
1 186
1 187
1 188
1 189
1 190
1 191
1 192
1 193
1 194
1 195
1 196
1 197
1 198
1 199
1 200
1 201
1 202
1 203
1 204
1 205
1 206
1 207
1 208
1 209
1 210
1 211
1 212
1 213
1 214
1 215
1 216
1 217
1 218
1 219
1 220
1 221
1 222
1 223
1 224
1 225
1 226
1 227
1 228
1 229
1 230
1 231
1 232
1 233
1 234
1 235
1 236
1 237
1 238
1 239
1 240
1 241
1 242
1 243
1 244
1 245
1 246
1 247
1 248
1 249
1 250
1 251
1 252
1 253
1 254
1 255
1 256
1 257
1 258
1 259
1 260
1 261
1 262
1 263
1 264
1 265
1 266
1 267
1 268
1 269
1 270
1 271
1 272
1 273
1 274
1 275
1 276
1 277
1 278
1 279
1 280
1 281
1 282
1 283
1 284
1 285
1 286
1 287
1 288
1 289
1 290
1 291
1 292
1 293
1 294
1 295
1 296
1 297
1 298
1 299
1 300
1 301
1 302
1 303
1 304
1 305
1 306
1 307
1 308
1 309
1 310
1 311
1 312
1 313
1 314
1 315
1 316
1 317
1 318
1 319
1 320
1 321
1 322
1 323
1 324
1 325
1 326
1 327
1 328
1 329
1 330
1 331
1 332
1 333
1 334
1 335
1 336
1 337
1 338
1 339
1 340
1 341
1 342
1 343
1 344
1 345
1 346
1 347
1 348
1 349
1 350
1 351
1 352
1 353
1 354
1 355
1 356
1 357
1 358
1 359
1 360
1 361
1 362
1 363
1 364
1 365
1 366
1 367
1 368
1 369
1 370
1 371
1 372
1 373
1 374
1 375
1 376
1 377
1 378
1 379
1 380
1 381
1 382
1 383
1 384
1 385
1 386
1 387
1 388
1 389
1 390
1 391
1 392
1 393
1 394
1 395
1 396
POINT_DATA 397
VECTORS i float
0.0 0.0 0.0
0.0 0.0 0.0
0.0 0.0 0.0
0.0 0.0 0.0
0.0 0.0 0.0
0.0 0.0 0.0
0.0 0.0 0.0
0.0 0.0 0.0
0.0 0.0 0.0
0.0 0.0 0.0
0.0 0.0 0.0
0.0 0.0 0.0
0.0 0.0 0.0
0.0 0.0 0.0
0.0 0.0 0.0
0.0 0.0 0.0
0.0 0.0 0.0
0.0 0.0 0.0
0.0 0.0 0.0
0.0 0.0 0.0
0.0 0.0 0.0
0.0 0.0 0.0
0.0 0.0 0.0
0.0 0.0 0.0
0.0 0.0 0.0
0.0 0.0 0.0
0.0 0.0 0.0
0.0 0.0 0.0
0.0 0.0 0.0
0.0 0.0 0.0
0.0 0.0 0.0
0.0 0.0 0.0
0.0 0.0 0.0
0.0 0.0 0.0
0.0 0.0 0.0
0.0 0.0 0.0
0.0 0.0 0.0
0.0 0.0 0.0
0.0 0.0 0.0
0.0 0.0 0.0
0.0 0.0 0.0
0.0 0.0 0.0
0.0 0.0 0.0
0.0 0.0 0.0
0.0 0.0 0.0
0.0 0.0 0.0
0.0 0.0 0.0
0.0 0.0 0.0
0.0 0.0 0.0
0.0 0.0 0.0
0.0 0.0 0.0
0.0 0.0 0.0
0.0 0.0 0.0
0.0 0.0 0.0
0.0 0.0 0.0
0.0 0.0 0.0
0.0 0.0 0.0
0.0 0.0 0.0
0.0 0.0 0.0
0.0 0.0 0.0
0.0 0.0 0.0
0.0 0.0 0.0
0.0 0.0 0.0
0.0 0.0 0.0
0.0 0.0 0.0
0.0 0.0 0.0
0.0 0.0 0.0
0.0 0.0 0.0
0.0 0.0 0.0
0.0 0.0 0.0
0.0 0.0 0.0
0.0 0.0 0.0
0.0 0.0 0.0
0.0 0.0 0.0
0.0 0.0 0.0
0.0 0.0 0.0
0.0 0.0 0.0
0.0 0.0 0.0
0.0 0.0 0.0
0.0 0.0 0.0
0.0 0.0 0.0
0.0 0.0 0.0
0.0 0.0 0.0
0.0 0.0 0.0
0.0 0.0 0.0
0.0 0.0 0.0
0.0 0.0 0.0
0.0 0.0 0.0
0.0 0.0 0.0
0.0 0.0 0.0
0.0 0.0 0.0
0.0 0.0 0.0
0.0 0.0 0.0
0.0 0.0 0.0
0.0 0.0 0.0
0.0 0.0 0.0
0.0 0.0 0.0
0.0 0.0 0.0
0.0 0.0 0.0
0.0 0.0 0.0
0.0 0.0 0.0
0.0 0.0 0.0
0.0 0.0 0.0
0.0 0.0 0.0
0.0 0.0 0.0
0.0 0.0 0.0
0.0 0.0 0.0
0.0 0.0 0.0
0.0 0.0 0.0
0.0 0.0 0.0
0.0 0.0 0.0
0.0 0.0 0.0
0.0 0.0 0.0
0.0 0.0 0.0
0.0 0.0 0.0
0.0 0.0 0.0
0.0 0.0 0.0
0.0 0.0 0.0
0.0 0.0 0.0
0.0 0.0 0.0
0.0 0.0 0.0
0.0 0.0 0.0
0.0 0.0 0.0
0.0 0.0 0.0
0.0 0.0 0.0
0.0 0.0 0.0
0.0 0.0 0.0
0.0 0.0 0.0
0.0 0.0 0.0
0.0 0.0 0.0
0.0 0.0 0.0
0.0 0.0 0.0
0.0 0.0 0.0
0.0 0.0 0.0
0.0 0.0 0.0
0.0 0.0 0.0
0.0 0.0 0.0
0.0 0.0 0.0
0.0 0.0 0.0
0.0 0.0 0.0
0.0 0.0 0.0
0.0 0.0 0.0
0.0 0.0 0.0
0.0 0.0 0.0
0.0 0.0 0.0
0.0 0.0 0.0
0.0 0.0 0.0
0.0 0.0 0.0
0.0 0.0 0.0
0.0 0.0 0.0
0.0 0.0 0.0
0.0 0.0 0.0
0.0 0.0 0.0
0.0 0.0 0.0
0.0 0.0 0.0
0.0 0.0 0.0
0.0 0.0 0.0
0.0 0.0 0.0
0.0 0.0 0.0
0.0 0.0 0.0
0.0 0.0 0.0
0.0 0.0 0.0
0.0 0.0 0.0
0.0 0.0 0.0
0.0 0.0 0.0
0.0 0.0 0.0
0.0 0.0 0.0
0.0 0.0 0.0
0.0 0.0 0.0
0.0 0.0 0.0
0.0 0.0 0.0
0.0 0.0 0.0
0.0 0.0 0.0
0.0 0.0 0.0
0.0 0.0 0.0
0.0 0.0 0.0
0.0 0.0 0.0
0.0 0.0 0.0
0.0 0.0 0.0
0.0 0.0 0.0
0.0 0.0 0.0
0.0 0.0 0.0
0.0 0.0 0.0
0.0 0.0 0.0
0.0 0.0 0.0
0.0 0.0 0.0
0.0 0.0 0.0
0.0 0.0 0.0
0.0 0.0 0.0
0.0 0.0 0.0
0.0 0.0 0.0
0.0 0.0 0.0
0.0 0.0 0.0
0.0 0.0 0.0
0.0 0.0 0.0
0.0 0.0 0.0
0.0 0.0 0.0
0.0 0.0 0.0
0.0 0.0 0.0
0.0 0.0 0.0
0.0 0.0 0.0
0.0 0.0 0.0
0.0 0.0 0.0
0.0 0.0 0.0
0.0 0.0 0.0
0.0 0.0 0.0
0.0 0.0 0.0
0.0 0.0 0.0
0.0 0.0 0.0
0.0 0.0 0.0
0.0 0.0 0.0
0.0 0.0 0.0
0.0 0.0 0.0
0.0 0.0 0.0
0.0 0.0 0.0
0.0 0.0 0.0
0.0 0.0 0.0
0.0 0.0 0.0
0.0 0.0 0.0
0.0 0.0 0.0
0.0 0.0 0.0
0.0 0.0 0.0
0.0 0.0 0.0
0.0 0.0 0.0
0.0 0.0 0.0
0.0 0.0 0.0
0.0 0.0 0.0
0.0 0.0 0.0
0.0 0.0 0.0
0.0 0.0 0.0
0.0 0.0 0.0
0.0 0.0 0.0
0.0 0.0 0.0
0.0 0.0 0.0
0.0 0.0 0.0
0.0 0.0 0.0
0.0 0.0 0.0
0.0 0.0 0.0
0.0 0.0 0.0
0.0 0.0 0.0
0.0 0.0 0.0
0.0 0.0 0.0
0.0 0.0 0.0
0.0 0.0 0.0
0.0 0.0 0.0
0.0 0.0 0.0
0.0 0.0 0.0
0.0 0.0 0.0
0.0 0.0 0.0
0.0 0.0 0.0
0.0 0.0 0.0
0.0 0.0 0.0
0.0 0.0 0.0
0.0 0.0 0.0
0.0 0.0 0.0
0.0 0.0 0.0
0.0 0.0 0.0
0.0 0.0 0.0
0.0 0.0 0.0
0.0 0.0 0.0
0.0 0.0 0.0
0.0 0.0 0.0
0.0 0.0 0.0
0.0 0.0 0.0
0.0 0.0 0.0
0.0 0.0 0.0
0.0 0.0 0.0
0.0 0.0 0.0
0.0 0.0 0.0
0.0 0.0 0.0
0.0 0.0 0.0
0.0 0.0 0.0
0.0 0.0 0.0
0.0 0.0 0.0
0.0 0.0 0.0
0.0 0.0 0.0
0.0 0.0 0.0
0.0 0.0 0.0
0.0 0.0 0.0
0.0 0.0 0.0
0.0 0.0 0.0
0.0 0.0 0.0
0.0 0.0 0.0
0.0 0.0 0.0
0.0 0.0 0.0
0.0 0.0 0.0
0.0 0.0 0.0
0.0 0.0 0.0
0.0 0.0 0.0
0.0 0.0 0.0
0.0 0.0 0.0
0.0 0.0 0.0
0.0 0.0 0.0
0.0 0.0 0.0
0.0 0.0 0.0
0.0 0.0 0.0
0.0 0.0 0.0
0.0 0.0 0.0
0.0 0.0 0.0
0.0 0.0 0.0
0.0 0.0 0.0
0.0 0.0 0.0
0.0 0.0 0.0
0.0 0.0 0.0
0.0 0.0 0.0
0.0 0.0 0.0
0.0 0.0 0.0
0.0 0.0 0.0
0.0 0.0 0.0
0.0 0.0 0.0
0.0 0.0 0.0
0.0 0.0 0.0
0.0 0.0 0.0
0.0 0.0 0.0
0.0 0.0 0.0
0.0 0.0 0.0
0.0 0.0 0.0
0.0 0.0 0.0
0.0 0.0 0.0
0.0 0.0 0.0
0.0 0.0 0.0
0.0 0.0 0.0
0.0 0.0 0.0
0.0 0.0 0.0
0.0 0.0 0.0
0.0 0.0 0.0
0.0 0.0 0.0
0.0 0.0 0.0
0.0 0.0 0.0
0.0 0.0 0.0
0.0 0.0 0.0
0.0 0.0 0.0
0.0 0.0 0.0
0.0 0.0 0.0
0.0 0.0 0.0
0.0 0.0 0.0
0.0 0.0 0.0
0.0 0.0 0.0
0.0 0.0 0.0
0.0 0.0 0.0
0.0 0.0 0.0
0.0 0.0 0.0
0.0 0.0 0.0
0.0 0.0 0.0
0.0 0.0 0.0
0.0 0.0 0.0
0.0 0.0 0.0
0.0 0.0 0.0
0.0 0.0 0.0
0.0 0.0 0.0
0.0 0.0 0.0
0.0 0.0 0.0
0.0 0.0 0.0
0.0 0.0 0.0
0.0 0.0 0.0
0.0 0.0 0.0
0.0 0.0 0.0
0.0 0.0 0.0
0.0 0.0 0.0
0.0 0.0 0.0
0.0 0.0 0.0
0.0 0.0 0.0
0.0 0.0 0.0
0.0 0.0 0.0
0.0 0.0 0.0
0.0 0.0 0.0
0.0 0.0 0.0
0.0 0.0 0.0
0.0 0.0 0.0
0.0 0.0 0.0
0.0 0.0 0.0
0.0 0.0 0.0
0.0 0.0 0.0
0.0 0.0 0.0
0.0 0.0 0.0
0.0 0.0 0.0
0.0 0.0 0.0
0.0 0.0 0.0
0.0 0.0 0.0
0.0 0.0 0.0
0.0 0.0 0.0
0.0 0.0 0.0
0.0 0.0 0.0
0.0 0.0 0.0
0.0 0.0 0.0
0.0 0.0 0.0
0.0 0.0 0.0
0.0 0.0 0.0
0.0 0.0 0.0
0.0 0.0 0.0
0.0 0.0 0.0
0.0 0.0 0.0
0.0 0.0 0.0
0.0 0.0 0.0
0.0 0.0 0.0
0.0 0.0 0.0
0.0 0.0 0.0
VECTORS f float
0.0 0.0 -0.000346714
-0.000399535 0.000115125 -0.000178285
-9.12446e-05 3.22485e-06 -3.47457e-05
-0.000258895 3.73232e-06 -0.000402322
0.0 0.0 -0.000346714
-9.22361e-05 -4.20052e-05 -4.1281e-05
0.000148288 2.38115e-05 -0.00066844
9.99912e-05 -6.19391e-05 0.000158826
-0.00248698 -0.000250039 0.00457362
-9.35306e-05 4.15115e-06 -2.74006e-05
0.0 0.0 -0.000346714
-0.000198439 -0.000149189 0.00103126
0.0 0.0 -0.000346714
2.30106e-05 3.66928e-05 5.79709e-06
0.0 0.0 -0.000346714
-8.88323e-05 3.82349e-07 -4.24615e-05
4.29639e-05 1.43026e-05 -0.000444248
0.0 0.0 -0.000346714
-8.68469e-05 -1.7059e-05 -3.95268e-05
7.13893e-06 7.72826e-06 -0.000292167
0.0 0.0 -0.000346714
6.83866e-05 -0.000127223 -0.000537524
-8.71217e-05 -2.53944e-06 -3.58339e-05
0.0 0.0 -0.000346714
0.0 0.0 -0.00160516
0.0 0.0 -0.000346714
0.0 0.0 -0.000346714
0.0 0.0 -0.00160516
-9.48832e-05 -2.82815e-06 -1.5381e-05
0.000105586 2.88551e-05 0.000327446
0.0 0.0 -0.00160516
-8.77655e-05 2.08133e-05 -4.21782e-05
0.0 0.0 -0.000346714
0.0 0.0 -0.000346714
0.0 0.0 -0.00160516
-6.0778e-05 -3.26312e-05 -3.71158e-05
5.8473e-05 8.04108e-05 -0.000518159
0.0 0.0 -0.00160516
-4.88624e-05 1.53667e-05 -0.000155766
0.0 0.0 -0.000346714
-8.93973e-05 1.54938e-05 -3.87777e-05
0.0 0.0 -0.000346714
-0.000429768 -5.06413e-05 -0.000154827
-9.21858e-05 -3.30505e-05 -1.42591e-05
-3.90927e-05 8.50065e-06 -0.00105222
-8.91103e-05 5.04741e-06 -3.34174e-05
-8.66005e-05 -1.36212e-05 -3.63979e-05
-9.42614e-05 -1.1121e-05 -2.94421e-05
5.66653e-05 1.32392e-05 -0.000233273
-0.000377486 -0.000132265 -0.000208479
-0.000379047 -0.000211606 -0.000201402
-0.000446728 0.000452969 1.13023e-05
-0.000329626 5.57373e-05 -0.000344777
2.47399e-05 5.62281e-05 4.85215e-05
0.0 0.0 -0.00160516
0.0 0.0 -0.00160516
0.0 0.0 -0.000346714
-0.002028 -0.00283012 -0.00381401
-8.68284e-05 -3.08888e-05 -4.11452e-05
-8.04864e-05 6.1427e-05 -5.18789e-05
0.0 0.0 -0.00160516
0.0 0.0 -0.000346714
0.0 0.0 -0.000346714
0.0 0.0 -0.000346714
0.0 0.0 -0.000346714
0.0 0.0 -0.000346714
0.0 0.0 -0.000346714
-0.000339885 -5.7424e-05 -0.00033245
0.0 0.0 -0.00160516
0.00207467 0.00334808 0.00663221
-8.61415e-05 -3.14182e-05 -4.10921e-05
0.0 0.0 -0.000346714
-0.000366274 2.47498e-05 -0.00109159
0.0 0.0 -0.000346714
-7.65676e-05 -1.34411e-05 -6.98591e-05
0.0 0.0 -0.00160516
-0.000139402 -4.9337e-05 6.10878e-05
-7.31002e-05 -7.98558e-05 -6.45732e-05
-8.51059e-05 4.11945e-05 -4.4807e-05
-8.75131e-05 2.70713e-05 -4.05038e-05
0.000530274 -0.000184185 -0.00203028
0.0 0.0 -0.000346714
0.0 0.0 -0.000346714
-0.000274608 3.50534e-05 -0.000481584
0.0 0.0 -0.00160516
0.0 0.0 -0.00160516
0.0 0.0 -0.000346714
0.0 0.0 -0.000346714
-0.000373093 -8.53483e-06 -0.000254687
0.0 0.0 -0.000346714
0.0 0.0 -0.000346714
0.000110985 -0.000123946 2.91961e-07
0.0 0.0 -0.000346714
0.0 0.0 -0.000346714
0.0 0.0 -0.000346714
0.0 0.0 -0.000346714
-0.000405798 7.45006e-05 -0.000154085
0.0 0.0 -0.00160516
-0.000499109 7.93332e-06 -0.00296205
-9.58713e-05 -3.566e-06 -2.07724e-05
0.0 0.0 -0.000346714
-8.90712e-05 -3.24552e-06 -3.78786e-05
0.0 0.0 -0.000346714
-8.83541e-05 -1.73865e-05 -3.93642e-05
0.0 0.0 -0.00160516
-0.0005018 0.000142372 -4.22646e-05
-8.83631e-05 1.03062e-05 -3.97381e-05
-0.000409862 4.78742e-05 -0.000178465
1.85284e-05 1.27098e-05 -3.23032e-05
0.0 0.0 -0.000346714
-0.00072828 -0.000157204 0.00128156
0.0 0.0 -0.000346714
0.0 0.0 -0.000346714
-0.000440443 -8.64967e-05 -0.000124435
-0.000432134 -0.000171294 -0.000114164
0.0 0.0 -0.000346714
-8.53427e-05 4.02401e-05 -4.36573e-05
-0.000400927 0.000189116 -0.000188533
-8.09836e-05 3.83831e-05 -5.22075e-05
0.0 0.0 -0.000346714
0.0 0.0 -0.00160516
-8.82446e-05 9.86508e-06 -3.75461e-05
0.0 0.0 -0.00160516
0.0 0.0 -0.00160516
0.0 0.0 -0.00160516
0.0 0.0 -0.00160516
0.0 0.0 -0.000346714
0.0 0.0 -0.00160516
0.0 0.0 -0.000346714
-8.41584e-05 -3.48037e-05 -4.5284e-05
0.0 0.0 -0.00160516
-0.000353656 -0.000298042 -0.000261181
-0.000435947 0.00012366 -0.000101764
0.0 0.0 -0.00160516
0.0 0.0 -0.00160516
0.0 0.0 -0.000346714
0.0 0.0 -0.00160516
0.0 0.0 -0.00160516
0.0 0.0 -0.000346714
0.0 0.0 -0.00160516
0.0 0.0 -0.000346714
-9.31318e-05 -3.37559e-05 -3.18891e-05
0.0 0.0 -0.000346714
0.000119223 0.000344543 -1.04498e-05
-8.71729e-05 2.4269e-05 -3.93427e-05
0.0 0.0 -0.00160516
-5.09283e-05 1.34337e-05 -0.000126452
-8.8351e-05 8.98161e-06 -3.73546e-05
0.0 0.0 -0.00160516
1.68028e-05 -2.36833e-05 -0.000105965
0.0 0.0 -0.000346714
0.0 0.0 -0.00160516
0.0 0.0 -0.000346714
0.0 0.0 -0.00160516
0.0 0.0 -0.00160516
-8.92012e-05 2.14134e-05 -4.06724e-05
0.0 0.0 -0.00160516
0.0 0.0 -0.00160516
0.0 0.0 -0.000346714
0.0 0.0 -0.000346714
0.0 0.0 -0.00160516
0.0 0.0 -0.000346714
0.0 0.0 -0.000346714
-7.18281e-05 -8.21567e-05 -6.53524e-05
0.0 0.0 -0.000346714
0.0 0.0 -0.00160516
0.0 0.0 -0.000346714
0.0 0.0 -0.000346714
0.0 0.0 -0.000346714
0.0 0.0 -0.00160516
0.0 0.0 -0.000346714
0.0 0.0 -0.000346714
0.0 0.0 -0.000346714
0.0 0.0 -0.000346714
0.0 0.0 -0.000346714
0.0 0.0 -0.000346714
0.0 0.0 -0.00160516
0.0 0.0 -0.000346714
0.0 0.0 -0.000346714
0.0 0.0 -0.00160516
0.0 0.0 -0.00160516
0.0 0.0 -0.00160516
-7.71825e-05 -6.77215e-05 -5.46375e-05
-0.000143581 0.000176377 0.00154201
0.0 0.0 -0.000346714
-0.00312034 0.00344562 0.00360425
0.0 0.0 -0.00160516
0.0 0.0 -0.000346714
0.0 0.0 -0.000346714
0.0 0.0 -0.000346714
-9.01029e-05 2.55982e-06 -3.89442e-05
0.0 0.0 -0.00160516
0.0 0.0 -0.00160516
0.0 0.0 -0.000346714
0.0 0.0 -0.000346714
0.0 0.0 -0.000346714
0.0 0.0 -0.00160516
0.0 0.0 -0.00160516
5.8963e-05 -0.000109695 -0.000424154
0.0 0.0 -0.000346714
0.0 0.0 -0.000346714
0.0 0.0 -0.00160516
0.0 0.0 -0.000346714
0.0 0.0 -0.000346714
0.0 0.0 -0.000346714
0.0 0.0 -0.000346714
0.0 0.0 -0.000346714
-8.72185e-05 1.12497e-06 -3.59517e-05
0.0 0.0 -0.000346714
0.0 0.0 -0.00160516
0.0 0.0 -0.000346714
0.0 0.0 -0.000346714
0.0 0.0 -0.000346714
0.0 0.0 -0.000346714
0.0 0.0 -0.000346714
0.0 0.0 -0.000346714
0.0 0.0 -0.000346714
0.0 0.0 -0.000346714
0.0 0.0 -0.000346714
0.0 0.0 -0.000346714
0.0 0.0 -0.000346714
0.0 0.0 -0.000346714
0.0 0.0 -0.00160516
0.0 0.0 -0.00160516
0.0 0.0 -0.000346714
0.0 0.0 -0.00160516
0.0 0.0 -0.000346714
0.0 0.0 -0.000346714
0.0 0.0 -0.000346714
0.0 0.0 -0.000346714
0.0 0.0 -0.00160516
0.0 0.0 -0.000346714
0.0 0.0 -0.000346714
0.0 0.0 -0.000346714
0.0 0.0 -0.000346714
0.0 0.0 -0.000346714
0.0 0.0 -0.00160516
0.0 0.0 -0.000346714
0.0 0.0 -0.000346714
0.0 0.0 -0.00160516
0.0 0.0 -0.00160516
0.0 0.0 -0.000346714
0.0 0.0 -0.000346714
0.0 0.0 -0.000346714
0.0 0.0 -0.000346714
0.0 0.0 -0.00160516
0.0 0.0 -0.000346714
0.0 0.0 -0.000346714
0.0 0.0 -0.000346714
0.0 0.0 -0.000346714
0.0 0.0 -0.000346714
-7.16414e-05 -7.67819e-05 -5.87113e-05
0.0190712 -0.00850957 -0.0599818
0.0 0.0 -0.00160516
0.0 0.0 -0.00160516
0.0 0.0 -0.00160516
0.0 0.0 -0.000346714
0.0 0.0 -0.000346714
0.0 0.0 -0.000346714
0.0 0.0 -0.000346714
0.0 0.0 -0.000346714
0.0 0.0 -0.00160516
0.0 0.0 -0.00160516
0.0 0.0 -0.000346714
0.0 0.0 -0.00160516
0.0 0.0 -0.000346714
0.0 0.0 -0.000346714
0.0 0.0 -0.000346714
0.0 0.0 -0.00160516
0.0 0.0 -0.00160516
0.0 0.0 -0.000346714
0.0 0.0 -0.000346714
0.0 0.0 -0.000346714
0.0 0.0 -0.000346714
0.0 0.0 -0.000346714
0.0 0.0 -0.00160516
0.0 0.0 -0.000346714
0.0 0.0 -0.000346714
0.0 0.0 -0.00160516
0.0 0.0 -0.00160516
0.0 0.0 -0.000346714
0.0 0.0 -0.000346714
0.0 0.0 -0.000346714
0.0 0.0 -0.00160516
0.0 0.0 -0.000346714
0.0 0.0 -0.000346714
0.0 0.0 -0.00160516
0.0 0.0 -0.00160516
0.0 0.0 -0.000346714
0.0 0.0 -0.000346714
0.0 0.0 -0.00160516
0.0 0.0 -0.000346714
0.0 0.0 -0.000346714
0.0 0.0 -0.000346714
0.0 0.0 -0.00160516
0.0 0.0 -0.000346714
0.0 0.0 -0.000346714
0.0 0.0 -0.000346714
0.0 0.0 -0.00160516
0.0 0.0 -0.000346714
0.0 0.0 -0.000346714
0.0 0.0 -0.000346714
0.0 0.0 -0.00160516
0.0 0.0 -0.000346714
0.0 0.0 -0.00160516
0.0 0.0 -0.000346714
0.0 0.0 -0.00160516
0.0 0.0 -0.00160516
0.0 0.0 -0.000346714
0.0 0.0 -0.000346714
0.0 0.0 -0.000346714
0.0 0.0 -0.00160516
0.0 0.0 -0.000346714
0.0 0.0 -0.00160516
0.0 0.0 -0.00160516
0.0 0.0 -0.000346714
0.0 0.0 -0.000346714
0.0 0.0 -0.00160516
0.0 0.0 -0.000346714
0.0 0.0 -0.000346714
0.0 0.0 -0.000346714
0.0 0.0 -0.000346714
0.0 0.0 -0.00160516
0.0 0.0 -0.000346714
0.0 0.0 -0.000346714
0.0 0.0 -0.000346714
0.0 0.0 -0.00160516
0.0 0.0 -0.000346714
0.0 0.0 -0.00160516
0.0 0.0 -0.000346714
0.0 0.0 -0.00160516
0.0 0.0 -0.000346714
0.0 0.0 -0.000346714
0.0 0.0 -0.000346714
0.0 0.0 -0.000346714
0.0 0.0 -0.000346714
0.0 0.0 -0.000346714
0.0 0.0 -0.00160516
0.0 0.0 -0.000346714
0.0 0.0 -0.00160516
0.0 0.0 -0.000346714
0.0 0.0 -0.000346714
0.0 0.0 -0.00160516
0.0 0.0 -0.000346714
0.0 0.0 -0.00160516
0.0 0.0 -0.000346714
0.0 0.0 -0.000346714
0.0 0.0 -0.000346714
0.0 0.0 -0.000346714
0.0 0.0 -0.000346714
0.0 0.0 -0.000346714
0.0 0.0 -0.000346714
0.0 0.0 -0.00160516
0.0 0.0 -0.00160516
0.0 0.0 -0.000346714
0.0 0.0 -0.00160516
0.0 0.0 -0.000346714
0.0 0.0 -0.000346714
0.0 0.0 -0.00160516
0.0 0.0 -0.00160516
0.0 0.0 -0.000346714
0.0 0.0 -0.000346714
0.0 0.0 -0.00160516
0.0 0.0 -0.000346714
0.0 0.0 -0.000346714
0.0 0.0 -0.00160516
0.0 0.0 -0.00160516
0.0 0.0 -0.000346714
0.0 0.0 -0.000346714
0.0 0.0 -0.00160516
0.0 0.0 -0.000346714
0.0 0.0 -0.000346714
0.0 0.0 -0.000346714
0.0 0.0 -0.00160516
0.0 0.0 -0.00160516
0.0 0.0 -0.000346714
0.0 0.0 -0.000346714
0.0 0.0 -0.000346714
0.0 0.0 -0.00160516
0.0 0.0 -0.000346714
0.0 0.0 -0.00160516
0.0 0.0 -0.000346714
0.0 0.0 -0.000346714
0.0 0.0 -0.000346714
0.0 0.0 -0.00160516
0.0 0.0 -0.000346714
0.0 0.0 -0.000346714
0.0 0.0 -0.000346714
0.0 0.0 -0.00160516
0.0 0.0 -0.00160516
0.0 0.0 -0.000346714
0.0 0.0 -0.000346714
0.0 0.0 -0.00160516
0.0 0.0 0.0
0.0 0.0 0.0
0.0 0.0 0.0
0.0 0.0 0.0
VECTORS omega float
-580.214 28.3815 473.706
-8.19166 -493.738 41.4137
-22.4174 -770.751 282.928
-23.7936 -435.086 8.92859
-159.571 -635.818 80.1467
-32.3422 -804.059 -210.017
41.7866 -947.655 41.6119
-121.451 -786.274 136.843
21.594 -432.933 -16.673
76.7464 -635.431 -123.872
-58.2724 -349.03 -159.57
18.3054 -782.943 -29.6053
80.7319 -528.951 -17.0026
-42.8682 -370.542 58.8704
-63.8513 -632.466 -25.6159
59.0279 -628.528 -172.862
-60.3033 -633.62 106.151
-48.5169 -622.169 -1.985
-75.9609 -684.347 -78.8906
-11.7397 -713.514 -252.82
36.4039 -1115.27 -291.616
49.6485 -707.831 514.31
53.156 -619.449 59.3001