# vtk DataFile Version 2.0
Generated by lpp.py
ASCII
DATASET POLYDATA
POINTS 38 float
-0.00174714 -0.029557 0.0216709
-0.0346734 -0.00599195 0.0213624
-0.00894204 -0.00172108 0.0195982
-0.0106535 0.00311808 0.019949
-0.0241534 0.031784 0.0203903
-0.00953586 -0.0287916 0.0254606
-0.0255875 0.0216478 0.0231293
-0.00462371 -0.0298822 0.0278604
-0.0270088 -0.00882918 0.0277422
-0.0134792 0.0074157 0.0289035
-0.0266102 0.013684 0.0288805
-0.00857183 0.0107813 0.029947
-0.0280307 0.022667 0.0295507
-0.0202974 -0.0206343 0.0314323
-0.0083641 -0.0195 0.0323147
-0.0101549 -0.00442827 0.0334872
-0.0253454 -0.000700049 0.0328551
-0.00408721 0.01129 0.0314618
-0.0335467 0.0344165 0.0319686
-0.00454319 -0.0294115 0.0345468
-0.0333391 -0.019004 0.0366385
-0.00618745 0.0189444 0.0366259
-0.0332823 -0.00448395 0.0396256
-0.00741847 0.0112937 0.0406161
-0.0165601 0.0229939 0.0411422
-0.0127396 -0.0117751 0.0448534
-0.022531 -0.00019371 0.0430707
-0.000459601 0.00699661 0.0442767
-0.0254317 0.00979368 0.044959
-0.0138262 0.0291618 0.0422012
-0.0219947 -0.0332201 0.046889
-0.0160817 -0.03192 0.0483064
-0.0230202 -0.0250033 0.0470368
-0.0290883 0.000876534 0.0457025
-0.0177649 0.0224168 0.0462061
-0.0159539 -0.0280969 0.0516407
-0.020721 -0.0278475 0.0492651
-0.0297813 -0.0200888 0.0508784
VERTICES 38 76
1 0
1 1
1 2
1 3
1 4
1 5
1 6
1 7
1 8
1 9
1 10
1 11
1 12
1 13
1 14
1 15
1 16
1 17
1 18
1 19
1 20
1 21
1 22
1 23
1 24
1 25
1 26
1 27
1 28
1 29
1 30
1 31
1 32
1 33
1 34
1 35
1 36
1 37
POINT_DATA 38
VECTORS i float
0.0 0.0 0.0
0.0 0.0 0.0
0.0 0.0 0.0
0.0 0.0 0.0
0.0 0.0 0.0
0.0 0.0 0.0
0.0 0.0 0.0
0.0 0.0 0.0
0.0 0.0 0.0
0.0 0.0 0.0
0.0 0.0 0.0
0.0 0.0 0.0
0.0 0.0 0.0
0.0 0.0 0.0
0.0 0.0 0.0
0.0 0.0 0.0
0.0 0.0 0.0
0.0 0.0 0.0
0.0 0.0 0.0
0.0 0.0 0.0
0.0 0.0 0.0
0.0 0.0 0.0
0.0 0.0 0.0
0.0 0.0 0.0
0.0 0.0 0.0
0.0 0.0 0.0
0.0 0.0 0.0
0.0 0.0 0.0
0.0 0.0 0.0
0.0 0.0 0.0
0.0 0.0 0.0
0.0 0.0 0.0
0.0 0.0 0.0
0.0 0.0 0.0
0.0 0.0 0.0
0.0 0.0 0.0
0.0 0.0 0.0
0.0 0.0 0.0
VECTORS f float
0.0 0.0 -0.00160516
0.0 0.0 -0.00160516
0.0 0.0 -0.000346714
0.0 0.0 -0.000346714
0.0 0.0 -0.000346714
0.0 0.0 -0.000346714
0.0 0.0 -0.00160516
0.0 0.0 -0.000346714
0.0 0.0 -0.000346714
0.0 0.0 -0.00160516
0.0 0.0 -0.000346714
0.0 0.0 -0.000346714
0.0 0.0 -0.000346714
0.0 0.0 -0.000346714
0.0 0.0 -0.000346714
0.0 0.0 -0.000346714
0.0 0.0 -0.000346714
0.0 0.0 -0.00160516
0.0 0.0 -0.000346714
0.0 0.0 -0.00160516
0.0 0.0 -0.000346714
0.0 0.0 -0.00160516
0.0 0.0 -0.000346714
0.0 0.0 -0.00160516
0.0 0.0 -0.000346714
0.0 0.0 -0.000346714
0.0 0.0 -0.00160516
0.0 0.0 -0.00160516
0.0 0.0 -0.000346714
0.0 0.0 -0.000346714
0.0 0.0 -0.00160516
0.0 0.0 -0.00160516
0.0 0.0 -0.000346714
0.0 0.0 -0.000346714
0.0 0.0 -0.000346714
0.0 0.0 0.0
0.0 0.0 -0.000346714
0.0 0.0 0.0
VECTORS omega float
0.0 0.0 0.0
0.0 0.0 0.0
0.0 0.0 0.0
0.0 0.0 0.0
0.0 0.0 0.0
0.0 0.0 0.0
0.0 0.0 0.0
0.0 0.0 0.0
0.0 0.0 0.0
0.0 0.0 0.0
0.0 0.0 0.0
0.0 0.0 0.0
0.0 0.0 0.0
0.0 0.0 0.0
0.0 0.0 0.0
0.0 0.0 0.0
0.0 0.0 0.0
0.0 0.0 0.0
0.0 0.0 0.0
0.0 0.0 0.0
0.0 0.0 0.0
0.0 0.0 0.0
0.0 0.0 0.0
0.0 0.0 0.0
0.0 0.0 0.0
0.0 0.0 0.0
0.0 0.0 0.0
0.0 0.0 0.0
0.0 0.0 0.0
0.0 0.0 0.0
0.0 0.0 0.0
0.0 0.0 0.0
0.0 0.0 0.0
0.0 0.0 0.0
0.0 0.0 0.0
0.0 0.0 0.0
0.0 0.0 0.0
0.0 0.0 0.0
VECTORS v float
0.0 0.0 -1.24736
0.0 0.0 -1.24971
0.0 0.0 -1.26355
0.0 0.0 -1.2608
0.0 0.0 -1.25737
0.0 0.0 -1.21714
0.0 0.0 -1.23578
0.0 0.0 -1.19762
0.0 0.0 -1.1986
0.0 0.0 -1.18909
0.0 0.0 -1.18928
0.0 0.0 -1.18045
0.0 0.0 -1.18369
0.0 0.0 -1.168
0.0 0.0 -1.16064
0.0 0.0 -1.15063
0.0 0.0 -1.15603
0.0 0.0 -1.1678
0.0 0.0 -1.16348
0.0 0.0 -1.14161
0.0 0.0 -1.12346
0.0 0.0 -1.12356
0.0 0.0 -1.09707
0.0 0.0 -1.08814
0.0 0.0 -1.08343
0.0 0.0 -1.0493
0.0 0.0 -1.06578
0.0 0.0 -1.05469
0.0 0.0 -1.04831
0.0 0.0 -1.07382
0.0 0.0 -1.03007
0.0 0.0 -1.01643
0.0 0.0 -1.02869
0.0 0.0 -1.04135
0.0 0.0 -1.03654
-0 0.0 -1.0
0.0 0.0 -1.00721
-0 0.0 -1.0
SCALARS radius float 1
LOOKUP_TABLE default
0.0025
0.0025
0.0015
0.0015
0.0015
0.0015
0.0025
0.0015
0.0015
0.0025
0.0015
0.0015
0.0015
0.0015
0.0015
0.0015
0.0015
0.0025
0.0015
0.0025
0.0015
0.0025
0.0015
0.0025
0.0015
0.0015
0.0025
0.0025
0.0015
0.0015
0.0025
0.0025
0.0015
0.0015
0.0015
0.0025
0.0015
0.0015
SCALARS type float 1
LOOKUP_TABLE default
1.0
1.0
1.0
1.0
1.0
1.0
1.0
1.0
1.0
1.0
1.0
1.0
1.0
1.0
1.0
1.0
1.0
1.0
1.0
1.0
1.0
1.0
1.0
1.0
1.0
1.0
1.0
1.0
1.0
1.0
1.0
1.0
1.0
1.0
1.0
1.0
1.0
1.0
SCALARS id float 1
LOOKUP_TABLE default
1.0
2.0
12.0
5.0
11.0
8.0
4.0
7.0
10.0
3.0
6.0
25.0
9.0
24.0
22.0
19.0
17.0
16.0
18.0
15.0
21.0
14.0
20.0
13.0
23.0
37.0
29.0
27.0
38.0
35.0
26.0
28.0
36.0
32.0
34.0
30.0
33.0
31.0

