# vtk DataFile Version 2.0
Generated by lpp.py
ASCII
DATASET POLYDATA
POINTS 218 float
-0.0594985 0.00424218 -0.12993
-0.0643544 0.0303388 -0.126264
-0.0515171 -0.0286542 -0.12267
-0.0508765 -0.00907588 -0.124618
-0.0504351 -0.00558154 -0.123724
-0.0428376 -0.000521876 -0.124016
-0.0520703 0.013237 -0.124479
-0.0453221 0.0139651 -0.123509
-0.0446738 0.0209217 -0.122218
-0.0401318 -0.0198334 -0.121761
-0.0505049 -0.0177656 -0.121253
-0.0456873 -0.0154012 -0.120577
-0.0388359 -0.0128001 -0.118844
-0.0324214 -0.0126804 -0.117842
-0.038188 -0.000692222 -0.119982
-0.0437045 0.00296985 -0.12203
-0.0330931 0.00518677 -0.118787
-0.0285331 0.00625197 -0.117924
-0.0337306 0.0115413 -0.11788
-0.0663879 0.027499 -0.120308
-0.0418571 0.0396295 -0.119008
-0.0331138 -0.0302408 -0.116079
-0.045714 -0.0234385 -0.11449
-0.0623118 -0.0120489 -0.116092
-0.0538835 -0.0109592 -0.115282
-0.0270482 -0.010536 -0.112484
-0.0382442 -0.00646056 -0.115435
-0.0724297 -0.00351138 -0.116276
-0.0614609 -0.00656568 -0.113848
-0.0593632 -0.00277044 -0.115306
-0.0579061 0.000224995 -0.113686
-0.0522522 0.00153461 -0.114356
-0.032519 0.00206817 -0.114544
-0.028076 0.00144854 -0.115746
-0.0649905 0.0210953 -0.117378
-0.0322177 0.0238238 -0.117325
-0.02425 0.0206003 -0.113625
-0.0407831 -0.0305166 -0.112224
-0.043335 -0.0252735 -0.10976
-0.0260996 -0.0217553 -0.109588
-0.0318934 -0.0153444 -0.111535
-0.0317737 -0.00945736 -0.109698
-0.0605003 0.00857636 -0.11326
-0.0287845 0.00907076 -0.110796
-0.0139914 0.0139187 -0.110084
-0.0330804 0.0192217 -0.111249
-0.020003 0.0189609 -0.10996
-0.0153378 0.021994 -0.111173
-0.0228398 0.0264102 -0.112984
-0.0174559 -0.0203837 -0.109447
-0.026262 -0.0117767 -0.105899
-0.00797689 -0.00338487 -0.106231
-0.0430101 0.00387424 -0.107109
-0.0375619 0.00620529 -0.107618
-0.021809 0.00699627 -0.114191
-0.0121636 0.0202065 -0.107539
-0.00893884 0.0164985 -0.106229
-0.0334967 0.026695 -0.108296
-0.0190448 0.0249247 -0.111283
-0.0143507 -0.0175633 -0.101712
-0.0426237 -0.0133787 -0.105395
-0.0105449 -0.015228 -0.104771
-0.00664279 -1.16176e-05 -0.106233
-0.0313469 0.00594264 -0.115081
-0.0125906 0.00750218 -0.104304
-0.0388905 0.0113064 -0.104581
-0.0215646 0.0278676 -0.107048
-0.0177067 0.027264 -0.103334
-0.0446551 -0.0514962 -0.10374
-0.0220497 -0.0143749 -0.101589
-0.0122773 -0.00300085 -0.111084
-0.0231033 0.00603725 -0.10788
-0.0233288 0.0250012 -0.110476
-0.0119547 -0.0285459 -0.107529
-0.0161002 -0.0134868 -0.108784
-0.0363659 0.0227133 -0.106046
-0.0246928 0.0149576 -0.105145
-0.00512449 0.0194276 -0.103982
-0.016039 -0.0311912 -0.101268
-0.006758 -0.00933802 -0.10059
-0.0138041 0.00231809 -0.103259
-0.0338446 -0.00790771 -0.0997367
-0.0307162 0.0123479 -0.0963964
-0.0261342 0.0289343 -0.0980755
-0.0166674 -0.0133665 -0.094887
-0.0216846 0.010562 -0.0904601
-0.011833 0.030812 -0.0901517
-0.0267621 -0.0316048 -0.087737
-0.0153514 -0.0285466 -0.0883688
-0.0266174 0.0340944 -0.0884258
-0.016986 -0.00213434 -0.0836413
-0.0329725 0.0296342 -0.081953
-0.0135716 -0.0190259 -0.0799698
-0.0294235 0.0177987 -0.08059
-0.020149 -0.0334448 -0.0778273
-0.0292811 0.00645928 -0.076961
-0.0333375 0.0110949 -0.0776218
-0.0143727 0.015853 -0.0754745
-0.00439906 0.0240922 -0.0764385
-0.00739645 -0.0185545 -0.0723834
-0.0265909 0.0159092 -0.0721028
-0.0159897 0.0274334 -0.0720103
-0.0275469 -0.0163611 -0.0681585
-0.0102956 -0.00169209 -0.0686335
-0.0161861 -0.026381 -0.0644698
-0.00301846 -0.0111451 -0.063583
-0.0273253 -0.00441029 -0.0624941
-0.0135333 0.000602269 -0.0612622
-0.00791609 0.00384723 -0.0612565
-2.29018e-06 0.0149512 -0.0604768
-0.00205293 -0.0206571 -0.060051
-0.0318002 -0.0148599 -0.0572685
-0.0112712 -0.00229192 -0.060079
-0.0192779 0.00722911 -0.0590336
-0.0322225 0.032442 -0.0555331
-0.0125841 -0.0111545 -0.0481347
-0.00679321 -0.00388229 -0.0468094
-0.0125785 -0.0210623 -0.0453443
-0.0191843 -0.0162196 -0.0436057
-0.0143544 -0.00143019 -0.0442458
-0.0148309 -0.0333609 -0.0406924
-0.0227292 -0.0112057 -0.0386452
-0.0208061 0.000145103 -0.0385978
-0.0290047 0.00352617 -0.0409733
-0.0158354 0.0147935 -0.0394223
-0.0114065 0.0295451 -0.0380711
-0.00304704 0.0316877 -0.0347978
-0.0188235 -0.0335238 -0.0344246
-0.00193271 -0.0127941 -0.0337097
-0.0142543 -0.0235946 -0.0283953
-0.010147 0.00134815 -0.0294798
-0.00401145 0.0125644 -0.0308809
-0.0167258 0.0295222 -0.0309083
-0.0331578 -0.0315972 -0.0243639
-0.0156127 0.0122027 -0.0243355
-0.0316516 0.0258079 -0.0268264
-0.0309894 0.0333632 -0.0270794
-0.0150343 -0.00254225 -0.0206589
-0.00445669 0.0136763 -0.0212501
-0.021642 0.0141125 -0.0219753
-0.00584464 0.0229092 -0.02252
-0.0237179 -0.0143876 -0.0188312
-0.00430721 -0.0251385 -0.0150265
-0.0189158 0.00679958 -0.0131662
-0.0076982 0.0115519 -0.0149491
-0.00630817 0.0207644 -0.0131513
-0.00353112 0.0264703 -0.0136571
-0.00618246 -0.0245765 -0.00934019
-0.0337656 -0.0129184 -0.012865
-0.0192798 0.00186917 -0.00883799
-0.0214963 -0.0266191 -0.00201512
-0.0152079 -0.0157693 -0.00500037
-0.00679915 -0.012878 -0.00472819
-0.00623706 -0.0058896 -0.00523305
-0.00240788 0.00422687 -0.00337341
-0.0251386 0.0339743 -0.00118362
-0.0326006 -0.0344541 0.00381195
-0.023692 -0.0114622 0.00204778
-0.00372425 -0.00768845 0.00450845
-0.0229207 0.0293808 0.00299337
-0.0239437 -0.00737998 0.00619585
-0.00596878 0.00110293 0.00654829
-0.0334498 0.0192376 0.0081655
-0.0310811 0.0209557 0.00552657
-0.0233162 -0.0257488 0.0119982
-0.00243205 -0.0275788 0.0115238
-0.0260626 -0.0145959 0.0105648
-0.0280772 0.00199937 0.00990906
-0.0186593 0.0101406 0.00965679
-0.0192512 0.0203811 0.00929649
-0.0180071 -0.0127461 0.0154771
-0.0228627 0.00282045 0.0141753
-0.0175477 0.0137467 0.0130841
-0.000114354 0.021065 0.0135192
-0.0322154 -0.0246784 0.017879
-0.01426 -0.0150654 0.0188189
-0.0273571 -0.0103215 0.0183406
-0.0341304 -0.00318577 0.0197939
-0.0234861 -0.0194352 0.0235734
-0.00169906 -0.0346379 0.0253799
-0.0106048 -0.00789334 0.0263696
-0.00264988 -0.0095541 0.0241887
-0.0200733 -0.00130471 0.0245812
-0.0184157 0.00363086 0.0237926
-0.0258257 0.0147617 0.0261248
-0.00526421 0.027503 0.0261877
-0.0264666 -0.025466 0.0296714
-0.00998901 0.00893206 0.0297451
-0.0107488 0.0329346 0.0281842
-0.0196577 -0.024903 0.0321281
-0.0201644 -0.0275601 0.034585
-0.0134549 0.0182926 0.0340997
-0.0249489 0.0269151 0.03269
-0.0173269 -0.0294256 0.0383437
-0.00018665 -0.0192075 0.0359591
-0.0121862 -0.00588198 0.0353291
-0.0278654 0.00172744 0.0358911
-0.0232114 -0.0230043 0.0399312
-0.00546888 -0.024539 0.0384765
-0.00148336 -0.00863773 0.0413163
-0.0244014 0.0243576 0.039382
-0.0317899 0.0348276 0.0391034
-0.0299737 -0.0249092 0.043515
-0.0209901 0.00167617 0.0432412
-0.00237574 0.0349629 0.0423625
-0.0315415 -0.0266248 0.0522728
-0.014731 -0.00384992 0.0512625
-0.0313425 0.0167345 0.0525171
-0.00795 0.0273623 0.0473588
-0.0220067 0.0311963 0.0525066
-0.0325497 0.0284222 0.0505776
-0.0118483 0.00949823 0.046765
-0.0258692 -0.0150214 0.0539749
-0.000147874 -0.0328927 0.0543135
-0.0133438 0.0300767 0.0464083
-0.00916175 0.0316192 0.0465932
-0.00525173 0.0148756 0.0479782
-0.0116971 -0.0149443 0.0495968
VERTICES 218 436
1 0
1 1
1 2
1 3
1 4
1 5
1 6
1 7
1 8
1 9
1 10
1 11
1 12
1 13
1 14
1 15
1 16
1 17
1 18
1 19
1 20
1 21
1 22
1 23
1 24
1 25
1 26
1 27
1 28
1 29
1 30
1 31
1 32
1 33
1 34
1 35
1 36
1 37
1 38
1 39
1 40
1 41
1 42
1 43
1 44
1 45
1 46
1 47
1 48
1 49
1 50
1 51
1 52
1 53
1 54
1 55
1 56
1 57
1 58
1 59
1 60
1 61
1 62
1 63
1 64
1 65
1 66
1 67
1 68
1 69
1 70
1 71
1 72
1 73
1 74
1 75
1 76
1 77
1 78
1 79
1 80
1 81
1 82
1 83
1 84
1 85
1 86
1 87
1 88
1 89
1 90
1 91
1 92
1 93
1 94
1 95
1 96
1 97
1 98
1 99
1 100
1 101
1 102
1 103
1 104
1 105
1 106
1 107
1 108
1 109
1 110
1 111
1 112
1 113
1 114
1 115
1 116
1 117
1 118
1 119
1 120
1 121
1 122
1 123
1 124
1 125
1 126
1 127
1 128
1 129
1 130
1 131
1 132
1 133
1 134
1 135
1 136
1 137
1 138
1 139
1 140
1 141
1 142
1 143
1 144
1 145
1 146
1 147
1 148
1 149
1 150
1 151
1 152
1 153
1 154
1 155
1 156
1 157
1 158
1 159
1 160
1 161
1 162
1 163
1 164
1 165
1 166
1 167
1 168
1 169
1 170
1 171
1 172
1 173
1 174
1 175
1 176
1 177
1 178
1 179
1 180
1 181
1 182
1 183
1 184
1 185
1 186
1 187
1 188
1 189
1 190
1 191
1 192
1 193
1 194
1 195
1 196
1 197
1 198
1 199
1 200
1 201
1 202
1 203
1 204
1 205
1 206
1 207
1 208
1 209
1 210
1 211
1 212
1 213
1 214
1 215
1 216
1 217
POINT_DATA 218
VECTORS i float
0.0 0.0 0.0
0.0 0.0 0.0
0.0 0.0 0.0
0.0 0.0 0.0
0.0 0.0 0.0
0.0 0.0 0.0
0.0 0.0 0.0
0.0 0.0 0.0
0.0 0.0 0.0
0.0 0.0 0.0
0.0 0.0 0.0
0.0 0.0 0.0
0.0 0.0 0.0
0.0 0.0 0.0
0.0 0.0 0.0
0.0 0.0 0.0
0.0 0.0 0.0
0.0 0.0 0.0
0.0 0.0 0.0
0.0 0.0 0.0
0.0 0.0 0.0
0.0 0.0 0.0
0.0 0.0 0.0
0.0 0.0 0.0
0.0 0.0 0.0
0.0 0.0 0.0
0.0 0.0 0.0
0.0 0.0 0.0
0.0 0.0 0.0
0.0 0.0 0.0
0.0 0.0 0.0
0.0 0.0 0.0
0.0 0.0 0.0
0.0 0.0 0.0
0.0 0.0 0.0
0.0 0.0 0.0
0.0 0.0 0.0
0.0 0.0 0.0
0.0 0.0 0.0
0.0 0.0 0.0
0.0 0.0 0.0
0.0 0.0 0.0
0.0 0.0 0.0
0.0 0.0 0.0
0.0 0.0 0.0
0.0 0.0 0.0
0.0 0.0 0.0
0.0 0.0 0.0
0.0 0.0 0.0
0.0 0.0 0.0
0.0 0.0 0.0
0.0 0.0 0.0
0.0 0.0 0.0
0.0 0.0 0.0
0.0 0.0 0.0
0.0 0.0 0.0
0.0 0.0 0.0
0.0 0.0 0.0
0.0 0.0 0.0
0.0 0.0 0.0
0.0 0.0 0.0
0.0 0.0 0.0
0.0 0.0 0.0
0.0 0.0 0.0
0.0 0.0 0.0
0.0 0.0 0.0
0.0 0.0 0.0
0.0 0.0 0.0
0.0 0.0 0.0
0.0 0.0 0.0
0.0 0.0 0.0
0.0 0.0 0.0
0.0 0.0 0.0
0.0 0.0 0.0
0.0 0.0 0.0
0.0 0.0 0.0
0.0 0.0 0.0
0.0 0.0 0.0
0.0 0.0 0.0
0.0 0.0 0.0
0.0 0.0 0.0
0.0 0.0 0.0
0.0 0.0 0.0
0.0 0.0 0.0
0.0 0.0 0.0
0.0 0.0 0.0
0.0 0.0 0.0
0.0 0.0 0.0
0.0 0.0 0.0
0.0 0.0 0.0
0.0 0.0 0.0
0.0 0.0 0.0
0.0 0.0 0.0
0.0 0.0 0.0
0.0 0.0 0.0
0.0 0.0 0.0
0.0 0.0 0.0
0.0 0.0 0.0
0.0 0.0 0.0
0.0 0.0 0.0
0.0 0.0 0.0
0.0 0.0 0.0
0.0 0.0 0.0
0.0 0.0 0.0
0.0 0.0 0.0
0.0 0.0 0.0
0.0 0.0 0.0
0.0 0.0 0.0
0.0 0.0 0.0
0.0 0.0 0.0
0.0 0.0 0.0
0.0 0.0 0.0
0.0 0.0 0.0
0.0 0.0 0.0
0.0 0.0 0.0
0.0 0.0 0.0
0.0 0.0 0.0
0.0 0.0 0.0
0.0 0.0 0.0
0.0 0.0 0.0
0.0 0.0 0.0
0.0 0.0 0.0
0.0 0.0 0.0
0.0 0.0 0.0
0.0 0.0 0.0
0.0 0.0 0.0
0.0 0.0 0.0
0.0 0.0 0.0
0.0 0.0 0.0
0.0 0.0 0.0
0.0 0.0 0.0
0.0 0.0 0.0
0.0 0.0 0.0
0.0 0.0 0.0
0.0 0.0 0.0
0.0 0.0 0.0
0.0 0.0 0.0
0.0 0.0 0.0
0.0 0.0 0.0
0.0 0.0 0.0
0.0 0.0 0.0
0.0 0.0 0.0
0.0 0.0 0.0
0.0 0.0 0.0
0.0 0.0 0.0
0.0 0.0 0.0
0.0 0.0 0.0
0.0 0.0 0.0
0.0 0.0 0.0
0.0 0.0 0.0
0.0 0.0 0.0
0.0 0.0 0.0
0.0 0.0 0.0
0.0 0.0 0.0
0.0 0.0 0.0
0.0 0.0 0.0
0.0 0.0 0.0
0.0 0.0 0.0
0.0 0.0 0.0
0.0 0.0 0.0
0.0 0.0 0.0
0.0 0.0 0.0
0.0 0.0 0.0
0.0 0.0 0.0
0.0 0.0 0.0
0.0 0.0 0.0
0.0 0.0 0.0
0.0 0.0 0.0
0.0 0.0 0.0
0.0 0.0 0.0
0.0 0.0 0.0
0.0 0.0 0.0
0.0 0.0 0.0
0.0 0.0 0.0
0.0 0.0 0.0
0.0 0.0 0.0
0.0 0.0 0.0
0.0 0.0 0.0
0.0 0.0 0.0
0.0 0.0 0.0
0.0 0.0 0.0
0.0 0.0 0.0
0.0 0.0 0.0
0.0 0.0 0.0
0.0 0.0 0.0
0.0 0.0 0.0
0.0 0.0 0.0
0.0 0.0 0.0
0.0 0.0 0.0
0.0 0.0 0.0
0.0 0.0 0.0
0.0 0.0 0.0
0.0 0.0 0.0
0.0 0.0 0.0
0.0 0.0 0.0
0.0 0.0 0.0
0.0 0.0 0.0
0.0 0.0 0.0
0.0 0.0 0.0
0.0 0.0 0.0
0.0 0.0 0.0
0.0 0.0 0.0
0.0 0.0 0.0
0.0 0.0 0.0
0.0 0.0 0.0
0.0 0.0 0.0
0.0 0.0 0.0
0.0 0.0 0.0
0.0 0.0 0.0
0.0 0.0 0.0
0.0 0.0 0.0
0.0 0.0 0.0
0.0 0.0 0.0
0.0 0.0 0.0
0.0 0.0 0.0
0.0 0.0 0.0
0.0 0.0 0.0
0.0 0.0 0.0
VECTORS f float
0.000581451 1.16901e-05 -0.00292919
0.0 0.0 -0.000346714
0.0 0.0 -0.000346714
0.0 0.0 -0.000346714
0.0 0.0 -0.000346714
0.0 0.0 -0.000346714
0.0 0.0 -0.000346714
0.0 0.0 -0.000346714
0.0 0.0 -0.000346714
0.0 0.0 -0.000346714
0.0 0.0 -0.00160516
0.0 0.0 -0.000346714
0.0 0.0 -0.00160516
0.0 0.0 -0.00160516
0.0 0.0 -0.000346714
0.0 0.0 -0.00160516
0.000132292 -2.50579e-05 0.000241163
-8.67541e-05 -1.30748e-05 -3.67447e-05
0.0 0.0 -0.00160516
0.0 0.0 -0.000346714
0.0 0.0 -0.000346714
0.0 0.0 -0.00160516
0.0 0.0 -0.00160516
0.0 0.0 -0.000346714
0.0 0.0 -0.000346714
0.0 0.0 -0.000346714
0.0 0.0 -0.000346714
0.0 0.0 -0.00160516
0.0 0.0 -0.000346714
0.0 0.0 -0.000346714
0.0 0.0 -0.000346714
0.0 0.0 -0.000346714
0.0 0.0 -0.000346714
0.0 0.0 -0.00160516
0.0 0.0 -0.000346714
0.0 0.0 -0.000346714
0.0 0.0 -0.000346714
0.0 0.0 -0.00160516
0.0 0.0 -0.000346714
0.0 0.0 -0.00160516
0.0 0.0 -0.000346714
0.0 0.0 -0.000346714
0.0 0.0 -0.000346714
0.0 0.0 -0.000346714
0.0 0.0 -0.00160516
0.0 0.0 -0.000346714
0.0 0.0 -0.00160516
0.0 0.0 -0.000346714
0.0214421 0.0521768 -0.0931804
0.0 0.0 -0.00160516
0.0 0.0 -0.000346714
0.0 0.0 -0.000346714
0.0 0.0 -0.000346714
0.0 0.0 -0.000346714
-0.122886 0.000338052 0.803388
0.0 0.0 -0.000346714
0.0 0.0 -0.00160516
0.0 0.0 -0.00160516
0.0 0.0 -0.00160516
0.0 0.0 -0.00160516
0.0 0.0 -0.000346714
0.0 0.0 -0.000346714
0.0 0.0 -0.000346714
0.0 0.0 -0.000346714
0.0 0.0 -0.000346714
0.0 0.0 -0.00160516
0.0 0.0 -0.000346714
0.0 0.0 -0.000346714
0.0 0.0 -0.000346714
0.0 0.0 -0.00160516
0.0 0.0 -0.000346714
0.0 0.0 -0.00160516
-0.0214421 -0.0521768 0.092487
0.0 0.0 -0.00160516
0.0 0.0 -0.000346714
0.0 0.0 -0.000346714
0.0 0.0 -0.000346714
0.0 0.0 -0.00160516
0.0 0.0 -0.00160516
0.0 0.0 -0.000346714
0.0 0.0 -0.000346714
0.0 0.0 -0.00160516
0.0 0.0 -0.000346714
0.0 0.0 -0.000346714
0.0 0.0 -0.000346714
0.0 0.0 -0.000346714
0.0 0.0 -0.000346714
0.0 0.0 -0.000346714
0.0 0.0 -0.00160516
0.0 0.0 -0.000346714
0.0 0.0 -0.000346714
0.0 0.0 -0.00160516
0.0 0.0 -0.000346714
0.0 0.0 -0.000346714
0.0 0.0 -0.000346714
0.0 0.0 -0.00160516
0.0 0.0 -0.00160516
0.0 0.0 -0.00160516
0.0 0.0 -0.000346714
0.0 0.0 -0.000346714
0.0 0.0 -0.00160516
0.0 0.0 -0.000346714
0.0 0.0 -0.000346714
0.0 0.0 -0.000346714
0.0 0.0 -0.000346714
0.0 0.0 -0.00160516
0.0 0.0 -0.00160516
0.0 0.0 -0.000346714
0.0 0.0 -0.00160516
0.0 0.0 -0.000346714
0.0 0.0 -0.00160516
0.0 0.0 -0.000346714
0.0 0.0 -0.000346714
0.0 0.0 -0.00160516
0.0 0.0 -0.000346714
0.0 0.0 -0.000346714
0.0 0.0 -0.000346714
0.0 0.0 -0.00160516
0.0 0.0 -0.000346714
0.0 0.0 -0.00160516
0.0 0.0 -0.000346714
0.0 0.0 -0.000346714
0.0 0.0 -0.000346714
0.0 0.0 -0.000346714
0.0 0.0 -0.00160516
0.0 0.0 -0.000346714
0.0 0.0 -0.00160516
0.0 0.0 -0.000346714
0.0 0.0 -0.00160516
0.0 0.0 -0.00160516
0.0 0.0 -0.00160516
0.0 0.0 -0.000346714
0.0 0.0 -0.000346714
0.0 0.0 -0.000346714
0.0 0.0 -0.000346714
0.0 0.0 -0.00160516
0.0 0.0 -0.000346714
0.0 0.0 -0.00160516
0.0 0.0 -0.000346714
0.0 0.0 -0.000346714
0.0 0.0 -0.000346714
0.0 0.0 -0.000346714
0.0 0.0 -0.000346714
0.0 0.0 -0.000346714
0.0 0.0 -0.00160516
0.0 0.0 -0.000346714
0.0 0.0 -0.000346714
0.0 0.0 -0.00160516
0.0 0.0 -0.000346714
0.0 0.0 -0.00160516
0.0 0.0 -0.00160516
0.0 0.0 -0.000346714
0.0 0.0 -0.000346714
0.0 0.0 -0.000346714
0.0 0.0 -0.00160516
0.0 0.0 -0.000346714
0.0 0.0 -0.000346714
0.0 0.0 -0.000346714
0.0 0.0 -0.00160516
0.0 0.0 -0.000346714
0.0 0.0 -0.00160516
0.0 0.0 -0.000346714
0.0 0.0 -0.000346714
0.0 0.0 -0.000346714
0.0 0.0 -0.000346714
0.0 0.0 -0.000346714
0.0 0.0 -0.000346714
0.0 0.0 -0.000346714
0.0 0.0 -0.000346714
0.0 0.0 -0.00160516
0.0 0.0 -0.000346714
0.0 0.0 -0.000346714
0.0 0.0 -0.00160516
0.0 0.0 -0.00160516
0.0 0.0 -0.000346714
0.0 0.0 -0.000346714
0.0 0.0 -0.00160516
0.0 0.0 -0.000346714
0.0 0.0 -0.00160516
0.0 0.0 -0.00160516
0.0 0.0 -0.000346714
0.0 0.0 -0.000346714
0.0 0.0 -0.000346714
0.0 0.0 -0.000346714
0.0 0.0 -0.00160516
0.0 0.0 -0.000346714
0.0 0.0 -0.00160516
0.0 0.0 -0.000346714
0.0 0.0 -0.00160516
0.0 0.0 -0.000346714
0.0 0.0 -0.000346714
0.0 0.0 -0.000346714
0.0 0.0 -0.000346714
0.0 0.0 -0.00160516
0.0 0.0 -0.00160516
0.0 0.0 -0.000346714
0.0 0.0 -0.000346714
0.0 0.0 -0.00160516
0.0 0.0 -0.000346714
0.0 0.0 -0.000346714
0.0 0.0 -0.000346714
0.0 0.0 -0.000346714
0.0 0.0 -0.00160516
0.0 0.0 -0.000346714
0.0 0.0 -0.000346714
0.0 0.0 0.0
0.0 0.0 0.0
0.0 0.0 0.0
0.0 0.0 -0.00160516
0.0 0.0 0.0
0.0 0.0 0.0
0.0 0.0 -0.000346714
0.0 0.0 0.0
0.0 0.0 0.0
0.0 0.0 -0.000346714
0.0 0.0 -0.000346714
0.0 0.0 -0.000346714
0.0 0.0 -0.000346714
VECTORS omega float
109.235 -291.422 14.9925
-340.631 -726.294 -186.258
16.3055 -505.552 136.656
203.054 -144.06 55.2991
91.1675 -518.11 10.2559
182.387 -425.237 -163.483
-64.7239 -473.802 -26.7444
136.334 -512.554 67.7459
145.888 -543.345 2.29713
-183.386 -447.962 -9.9482
17.8756 -77.3327 -0.484907
-142.629 -517.4 12.32
295.394 -43.8859 179.667
-58.0529 -100.836 77.1272
-82.0058 -360.959 6.27673
-157.542 -128.106 -127.937
-36.364 -87.3051 -68.4786
-34.5326 -238.369 23.3097
-24.1215 -250.433 -49.8834
109.333 -325.067 83.3711
-498.293 489.454 44.1913
-29.8376 -211.638 16.2453
-105.302 -255.327 -0.0941047
-93.3386 -388.818 -8.97324e-15
53.5445 -226.738 38.1963
-72.1604 -386.573 -3.16862e-14
-91.909 -438.919 -4.95487
-14.8336 -225.779 -6.37285e-15
-24.4869 -372.71 -5.48927e-14
-24.7329 -376.454 2.87063e-14
-10.9755 -386.329 2.70716e-15
-11.0748 -389.824 7.37302e-16
76.5445 -305.361 -82.55
17.9899 -186.747 -8.36648
157.283 -192.671 339.666
-65.5626 -524.773 71.0875
203.718 -290.221 -86.073
-92.2038 -218.304 -1.90708
27.3203 136.186 -30.5113
-92.8876 -225.641 -0.0301518
-85.5854 -368.423 1.07912e-13
-71.7461 -384.354 3.76326e-14
55.6535 -369.268 6.21219e-14
69.7203 -386.005 -6.26036e-14
-14.8209 -71.128 -12.602
-267.764 142.484 -137.224
81.3497 -105.608 17.9338
-107.089 -252.315 191.028
393.856 192.406 18.308
-69.9395 -110.67 -32.2049
-65.8418 -368.503 1.62458e-14
-7.27532 -742.974 -14.0664
-3.44496 463.931 -9.78414
94.6125 -408.957 4.03732
18.0847 -239.762 -22.1486
-404.189 226.434 -148.831
170.137 -32.7556 74.8826
88.7682 -253.862 13.3528
38.9865 -234.261 -0.780963
-81.4028 -221.733 3.69e-14
-65.0767 -364.221 8.43618e-14
-148.811 -637.225 -17.6189
13.5753 -365.427 2.76259e-15
0.0 0.0 0.0
13.6638 -367.81 1.29697e-14
53.1334 -227.496 5.06761e-14
-62.6319 -333.199 -32.3356
207.663 -424.231 -92.2129
377.106 230.021 159.168
-81.4948 -221.983 -4.47958e-14
-19.2562 -636.876 -40.2669
41.2161 75.9155 20.3504
167.629 -240.727 256.985
-86.4602 -209.571 -33.4662
-84.0474 -274.756 -17.6189
244.277 60.682 196.704
0.0 0.0 0.0
0.0 0.0 0.0
0.0 0.0 0.0
0.0 0.0 0.0
0.0 0.0 0.0
0.0 0.0 0.0
0.0 0.0 0.0
0.0 0.0 0.0
0.0 0.0 0.0
0.0 0.0 0.0
0.0 0.0 0.0
0.0 0.0 0.0
0.0 0.0 0.0
0.0 0.0 0.0
0.0 0.0 0.0
0.0 0.0 0.0
0.0 0.0 0.0
0.0 0.0 0.0
0.0 0.0 0.0
0.0 0.0 0.0
0.0 0.0 0.0
0.0 0.0 0.0
0.0 0.0 0.0
0.0 0.0 0.0
0.0 0.0 0.0
0.0 0.0 0.0
0.0 0.0 0.0
0.0 0.0 0.0
0.0 0.0 0.0
0.0 0.0 0.0
0.0 0.0 0.0
0.0 0.0 0.0
0.0 0.0 0.0
0.0 0.0 0.0
0.0 0.0 0.0
0.0 0.0 0.0
0.0 0.0 0.0
0.0 0.0 0.0
0.0 0.0 0.0
0.0 0.0 0.0
0.0 0.0 0.0
0.0 0.0 0.0
0.0 0.0 0.0
0.0 0.0 0.0
0.0 0.0 0.0
0.0 0.0 0.0
0.0 0.0 0.0
0.0 0.0 0.0
0.0 0.0 0.0
0.0 0.0 0.0
0.0 0.0 0.0
0.0 0.0 0.0
0.0 0.0 0.0
0.0 0.0 0.0
0.0 0.0 0.0
0.0 0.0 0.0
0.0 0.0 0.0
0.0 0.0 0.0
0.0 0.0 0.0
0.0 0.0 0.0
0.0 0.0 0.0
0.0 0.0 0.0
0.0 0.0 0.0
0.0 0.0 0.0
0.0 0.0 0.0
0.0 0.0 0.0
0.0 0.0 0.0
0.0 0.0 0.0
0.0 0.0 0.0
0.0 0.0 0.0
0.0 0.0 0.0
0.0 0.0 0.0
0.0 0.0 0.0
0.0 0.0 0.0
0.0 0.0 0.0
0.0 0.0 0.0
0.0 0.0 0.0
0.0 0.0 0.0
0.0 0.0 0.0
0.0 0.0 0.0
0.0 0.0 0.0
0.0 0.0 0.0
0.0 0.0 0.0
0.0 0.0 0.0
0.0 0.0 0.0
0.0 0.0 0.0
0.0 0.0 0.0
0.0 0.0 0.0
0.0 0.0 0.0
0.0 0.0 0.0
0.0 0.0 0.0
0.0 0.0 0.0
0.0 0.0 0.0
0.0 0.0 0.0
0.0 0.0 0.0
0.0 0.0 0.0
0.0 0.0 0.0
0.0 0.0 0.0
0.0 0.0 0.0
0.0 0.0 0.0
0.0 0.0 0.0
0.0 0.0 0.0
0.0 0.0 0.0
0.0 0.0 0.0
0.0 0.0 0.0
0.0 0.0 0.0
0.0 0.0 0.0
0.0 0.0 0.0
0.0 0.0 0.0
0.0 0.0 0.0
0.0 0.0 0.0
0.0 0.0 0.0
0.0 0.0 0.0
0.0 0.0 0.0
0.0 0.0 0.0
0.0 0.0 0.0
0.0 0.0 0.0
0.0 0.0 0.0
0.0 0.0 0.0
0.0 0.0 0.0
0.0 0.0 0.0
0.0 0.0 0.0
0.0 0.0 0.0
0.0 0.0 0.0
0.0 0.0 0.0
0.0 0.0 0.0
0.0 0.0 0.0
0.0 0.0 0.0
0.0 0.0 0.0
0.0 0.0 0.0
0.0 0.0 0.0
0.0 0.0 0.0
0.0 0.0 0.0
0.0 0.0 0.0
0.0 0.0 0.0
0.0 0.0 0.0
0.0 0.0 0.0
0.0 0.0 0.0
0.0 0.0 0.0
0.0 0.0 0.0
0.0 0.0 0.0
0.0 0.0 0.0
VECTORS v float
-0.676201 -0.266392 -0.276191
-1.13531 0.557518 -0.393394
-0.805626 -0.0623163 -0.29506
-0.942897 0.660971 -0.65859
-0.765248 -0.0892293 -0.385259
-0.60364 -0.129187 -0.187526
-0.739681 0.0955725 -0.333762
-0.770949 -0.238651 -0.476233
-0.810353 -0.220714 -0.31466
-0.649232 0.265843 -0.395973
-1.01633 0.294895 -0.593889
-0.809413 0.212428 -0.353073
-0.718375 -0.358767 -0.209946
-0.343991 0.0775158 -0.129973
-0.579489 0.194121 -0.137218
-0.708423 0.0952214 -0.394751
-0.369337 0.134338 -0.142991
-0.327936 0.0345213 -0.132805
-0.588504 0.125168 -0.299358
-0.761856 -0.0901797 -0.33288
-0.271633 0.311388 -0.396905
-0.527198 0.0694493 -0.328269
-0.72059 0.297164 -0.257246
-0.750346 0.180126 -0.109103
-0.740387 0.234009 -0.317156
-0.74552 0.139164 0.188156
-0.727982 0.151647 -0.297021
-0.737266 0.0484382 -0.184368
-0.730942 0.0480227 -0.155638
-0.735117 0.048297 -0.0385522
-0.755732 0.0214702 -0.138979
-0.756912 0.0215037 -0.016697
-0.481235 -0.055419 -0.174638
-0.478936 -0.0320231 -0.174706
-0.746853 -0.229155 -0.297821
-1.0713 0.0493354 -0.320714
-0.525783 -0.262883 0.00380527
-0.704419 0.235499 0.0248977
-0.926663 0.481481 -0.0166172
-0.724818 0.29843 0.143997
-0.718805 0.16698 0.163395
-0.744067 0.138893 0.0845239
-0.729676 -0.109972 -0.150238
-0.744631 -0.134496 0.138027
-0.185317 0.0420331 -0.0620016
-0.649991 0.729528 -0.268926
-0.411832 -0.234231 0.231197
-0.296961 -0.0504403 -0.139096
-0.565543 0.437376 -0.911114
-0.306286 0.216467 -0.199133
-0.717848 0.128261 0.0793371
-0.201623 -0.0439977 -0.0826504
-0.55464 -0.0743018 -0.201937
-0.419727 -0.0188315 -0.223193
-0.303273 0.0118095 -0.932301
0.141988 0.757837 -0.29814
-0.198361 -0.491415 0.199056
-0.574276 -0.00154763 -0.34034
-0.581102 -0.101463 -0.133832
-0.713816 0.262057 0.0757148
-0.721152 0.128851 -0.163282
0.0154589 -0.0641846 -0.32257
-0.721155 -0.0267903 0.255548
0.0 0.0 -2.05884
-0.717929 -0.0266705 0.170392
-0.732633 -0.171112 -0.169101
-0.587057 0.307388 -0.72754
-0.54179 -0.119024 -0.0171191
-0.714072 -0.386294 -0.354591
-0.713952 0.262107 -0.027346
-1.01612 0.0456391 -0.0528773
-0.322212 -0.0936405 -1.03903
-0.479439 -0.279183 -1.516
-0.644023 0.2924 0.184572
-0.728628 0.191609 -1.58099
-1.03713 -0.876745 -0.541434
0.0 0.0 -2.01097
0.0 0.0 -2.00528
0.0 0.0 -1.99194
0.0 0.0 -1.9886
0.0 0.0 -2.00175
0.0 0.0 -1.98438
0.0 0.0 -1.96781
0.0 0.0 -1.97614
0.0 0.0 -1.96025
0.0 0.0 -1.93798
0.0 0.0 -1.93641
0.0 0.0 -1.92415
0.0 0.0 -1.92739
0.0 0.0 -1.92768
0.0 0.0 -1.90316
0.0 0.0 -1.89443
0.0 0.0 -1.88413
0.0 0.0 -1.88736
0.0 0.0 -1.87294
0.0 0.0 -1.86843
0.0 0.0 -1.87186
0.0 0.0 -1.86058
0.0 0.0 -1.86568
0.0 0.0 -1.8442
0.0 0.0 -1.84273
0.0 0.0 -1.84224
0.0 0.0 -1.82164
0.0 0.0 -1.82419
0.0 0.0 -1.80162
0.0 0.0 -1.79682
0.0 0.0 -1.79083
0.0 0.0 -1.78406
0.0 0.0 -1.78406
0.0 0.0 -1.77975
0.0 0.0 -1.77739
0.0 0.0 -1.76199
0.0 0.0 -1.77759
0.0 0.0 -1.7718
0.0 0.0 -1.75228
0.0 0.0 -1.71039
0.0 0.0 -1.70274
0.0 0.0 -1.6943
0.0 0.0 -1.6842
0.0 0.0 -1.68793
0.0 0.0 -1.66713
0.0 0.0 -1.65506
0.0 0.0 -1.65477
0.0 0.0 -1.6688
0.0 0.0 -1.65967
0.0 0.0 -1.65163
0.0 0.0 -1.63211
0.0 0.0 -1.62985
0.0 0.0 -1.62553
0.0 0.0 -1.59316
0.0 0.0 -1.59983
0.0 0.0 -1.60837
0.0 0.0 -1.60856
0.0 0.0 -1.56815
0.0 0.0 -1.56795
0.0 0.0 -1.58345
0.0 0.0 -1.58502
0.0 0.0 -1.5448
0.0 0.0 -1.54853
0.0 0.0 -1.55314
0.0 0.0 -1.55657
0.0 0.0 -1.53312
0.0 0.0 -1.5086
0.0 0.0 -1.49644
0.0 0.0 -1.50811
0.0 0.0 -1.49634
0.0 0.0 -1.49967
0.0 0.0 -1.47113
0.0 0.0 -1.49447
0.0 0.0 -1.46779
0.0 0.0 -1.42149
0.0 0.0 -1.44189
0.0 0.0 -1.44003
0.0 0.0 -1.44346
0.0 0.0 -1.43081
0.0 0.0 -1.4157
0.0 0.0 -1.38068
0.0 0.0 -1.39314
0.0 0.0 -1.37567
0.0 0.0 -1.38646
0.0 0.0 -1.36361
0.0 0.0 -1.36106
0.0 0.0 -1.34938
0.0 0.0 -1.36841
0.0 0.0 -1.32123
0.0 0.0 -1.32476
0.0 0.0 -1.33182
0.0 0.0 -1.33663
0.0 0.0 -1.33849
0.0 0.0 -1.34114
0.0 0.0 -1.29513
0.0 0.0 -1.30494
0.0 0.0 -1.31309
0.0 0.0 -1.30985
0.0 0.0 -1.27679
0.0 0.0 -1.26953
0.0 0.0 -1.27326
0.0 0.0 -1.26198
0.0 0.0 -1.23225
0.0 0.0 -1.21783
0.0 0.0 -1.20979
0.0 0.0 -1.22735
0.0 0.0 -1.22421
0.0 0.0 -1.23049
0.0 0.0 -1.21175
0.0 0.0 -1.21126
0.0 0.0 -1.18271
0.0 0.0 -1.18212
0.0 0.0 -1.19497
0.0 0.0 -1.16221
0.0 0.0 -1.14121
0.0 0.0 -1.14543
0.0 0.0 -1.1574
0.0 0.0 -1.10845
0.0 0.0 -1.12934
0.0 0.0 -1.13484
0.0 0.0 -1.12993
0.0 0.0 -1.09432
0.0 0.0 -1.10727
0.0 0.0 -1.08186
0.0 0.0 -1.09923
0.0 0.0 -1.10168
0.0 0.0 -1.06175
0.0 0.0 -1.06421
0.0 0.0 -1.07235
-0 0.0 -1.0
-0 0.0 -1.0
-0 0.0 -1.0
0.0 0.0 -1.02556
-0 0.0 -1.0
-0 0.0 -1.0
0.0 0.0 -1.03124
-0 0.0 -1.0
-0 0.0 -1.0
0.0 0.0 -1.03468
0.0 0.0 -1.03291
0.0 0.0 -1.01967
0.0 0.0 -1.00397
SCALARS radius float 1
LOOKUP_TABLE default
0.0025
0.0015
0.0015
0.0015
0.0015
0.0015
0.0015
0.0015
0.0015
0.0015
0.0025
0.0015
0.0025
0.0025
0.0015
0.0025
0.0025
0.0015
0.0025
0.0015
0.0015
0.0025
0.0025
0.0015
0.0015
0.0015
0.0015
0.0025
0.0015
0.0015
0.0015
0.0015
0.0015
0.0025
0.0015
0.0015
0.0015
0.0025
0.0015
0.0025
0.0015
0.0015
0.0015
0.0015
0.0025
0.0015
0.0025
0.0015
0.0015
0.0025
0.0015
0.0015
0.0015
0.0015
0.0025
0.0015
0.0025
0.0025
0.0025
0.0025
0.0015
0.0015
0.0015
0.0015
0.0015
0.0025
0.0015
0.0015
0.0015
0.0025
0.0015
0.0025
0.0015
0.0025
0.0015
0.0015
0.0015
0.0025
0.0025
0.0015
0.0015
0.0025
0.0015
0.0015
0.0015
0.0015
0.0015
0.0015
0.0025
0.0015
0.0015
0.0025
0.0015
0.0015
0.0015
0.0025
0.0025
0.0025
0.0015
0.0015
0.0025
0.0015
0.0015
0.0015
0.0015
0.0025
0.0025
0.0015
0.0025
0.0015
0.0025
0.0015
0.0015
0.0025
0.0015
0.0015
0.0015
0.0025
0.0015
0.0025
0.0015
0.0015
0.0015
0.0015
0.0025
0.0015
0.0025
0.0015
0.0025
0.0025
0.0025
0.0015
0.0015
0.0015
0.0015
0.0025
0.0015
0.0025
0.0015
0.0015
0.0015
0.0015
0.0015
0.0015
0.0025
0.0015
0.0015
0.0025
0.0015
0.0025
0.0025
0.0015
0.0015
0.0015
0.0025
0.0015
0.0015
0.0015
0.0025
0.0015
0.0025
0.0015
0.0015
0.0015
0.0015
0.0015
0.0015
0.0015
0.0015
0.0025
0.0015
0.0015
0.0025
0.0025
0.0015
0.0015
0.0025
0.0015
0.0025
0.0025
0.0015
0.0015
0.0015
0.0015
0.0025
0.0015
0.0025
0.0015
0.0025
0.0015
0.0015
0.0015
0.0015
0.0025
0.0025
0.0015
0.0015
0.0025
0.0015
0.0015
0.0015
0.0015
0.0025
0.0015
0.0015
0.0025
0.0025
0.0025
0.0025
0.0025
0.0015
0.0015
0.0015
0.0015
0.0015
0.0015
0.0015
0.0015
SCALARS type float 1
LOOKUP_TABLE default
1.0
1.0
1.0
1.0
1.0
1.0
1.0
1.0
1.0
1.0
1.0
1.0
1.0
1.0
1.0
1.0
1.0
1.0
1.0
1.0
1.0
1.0
1.0
1.0
1.0
1.0
1.0
1.0
1.0
1.0
1.0
1.0
1.0
1.0
1.0
1.0
1.0
1.0
1.0
1.0
1.0
1.0
1.0
1.0
1.0
1.0
1.0
1.0
1.0
1.0
1.0
1.0
1.0
1.0
1.0
1.0
1.0
1.0
1.0
1.0
1.0
1.0
1.0
1.0
1.0
1.0
1.0
1.0
1.0
1.0
1.0
1.0
1.0
1.0
1.0
1.0
1.0
1.0
1.0
1.0
1.0
1.0
1.0
1.0
1.0
1.0
1.0
1.0
1.0
1.0
1.0
1.0
1.0
1.0
1.0
1.0
1.0
1.0
1.0
1.0
1.0
1.0
1.0
1.0
1.0
1.0
1.0
1.0
1.0
1.0
1.0
1.0
1.0
1.0
1.0
1.0
1.0
1.0
1.0
1.0
1.0
1.0
1.0
1.0
1.0
1.0
1.0
1.0
1.0
1.0
1.0
1.0
1.0
1.0
1.0
1.0
1.0
1.0
1.0
1.0
1.0
1.0
1.0
1.0
1.0
1.0
1.0
1.0
1.0
1.0
1.0
1.0
1.0
1.0
1.0
1.0
1.0
1.0
1.0
1.0
1.0
1.0
1.0
1.0
1.0
1.0
1.0
1.0
1.0
1.0
1.0
1.0
1.0
1.0
1.0
1.0
1.0
1.0
1.0
1.0
1.0
1.0
1.0
1.0
1.0
1.0
1.0
1.0
1.0
1.0
1.0
1.0
1.0
1.0
1.0
1.0
1.0
1.0
1.0
1.0
1.0
1.0
1.0
1.0
1.0
1.0
1.0
1.0
1.0
1.0
1.0
1.0
1.0
1.0
1.0
1.0
1.0
1.0
SCALARS id float 1
LOOKUP_TABLE default
4.0
38.0
36.0
31.0
12.0
50.0
5.0
23.0
35.0
33.0
30.0
8.0
52.0
1.0
19.0
3.0
29.0
44.0
16.0
18.0
9.0
28.0
26.0
21.0
24.0
63.0
37.0
2.0
10.0
20.0
17.0
32.0
60.0
39.0
11.0
47.0
34.0
41.0
48.0
55.0
56.0
51.0
6.0
57.0
13.0
43.0
68.0
62.0
45.0
15.0
46.0
73.0
49.0
25.0
27.0
61.0
67.0
42.0
54.0
53.0
22.0
59.0
69.0
74.0
64.0
14.0
70.0
58.0
7.0
40.0
76.0
65.0
75.0
66.0
71.0
72.0
88.0
77.0
79.0
83.0
81.0
78.0
84.0
85.0
89.0
87.0
82.0
102.0
80.0
86.0
95.0
94.0
100.0
98.0
97.0
91.0
92.0
90.0
99.0
101.0
93.0
96.0
113.0
114.0
115.0
105.0
107.0
110.0
103.0
109.0
106.0
111.0
112.0
104.0
108.0
123.0
125.0
120.0
122.0
117.0
126.0
127.0
128.0
121.0
116.0
124.0
119.0
138.0
118.0
131.0
132.0
139.0
133.0
137.0
136.0
130.0
140.0
129.0
141.0
134.0
135.0
149.0
153.0
152.0
143.0
148.0
151.0
142.0
146.0
144.0
155.0
147.0
154.0
150.0
145.0
163.0
165.0
160.0
157.0
159.0
158.0
162.0
166.0
161.0
172.0
175.0
176.0
173.0
164.0
156.0
171.0
178.0
168.0
170.0
179.0
177.0
167.0
174.0
169.0
182.0
186.0
192.0
191.0
185.0
180.0
184.0
181.0
190.0
183.0
188.0
200.0
189.0
187.0
196.0
195.0
204.0
198.0
193.0
205.0
201.0
197.0
203.0
194.0
199.0
202.0
206.0
207.0
208.0
209.0
210.0
211.0
212.0
213.0
214.0
215.0
216.0
217.0
218.0

