# vtk DataFile Version 2.0
Generated by lpp.py
ASCII
DATASET POLYDATA
POINTS 628 float
-0.456362 -0.00776944 -0.367568
-0.447685 -0.001963 -0.328911
-0.477339 0.044416 -0.331312
-0.424893 -0.0107682 -0.309738
-0.409286 -0.0070862 -0.303295
-0.421966 0.029499 -0.30195
-0.414443 -0.00267538 -0.299472
-0.399221 0.00977351 -0.290271
-0.389263 -0.00708552 -0.280328
-0.378132 0.0164656 -0.27439
-0.385775 0.0279342 -0.275934
-0.392142 0.0313639 -0.277807
-0.423563 -0.0579244 -0.272627
-0.36985 -0.00698307 -0.268333
-0.375126 0.0258504 -0.268593
-0.365064 0.0166433 -0.264309
-0.372523 0.0279488 -0.265926
-0.377253 0.037089 -0.263637
-0.357223 -0.000639901 -0.260087
-0.360121 0.000717078 -0.26249
-0.360699 0.00596885 -0.262571
-0.358987 0.0124933 -0.260725
-0.367699 0.0265141 -0.261191
-0.364077 -0.0236854 -0.258474
-0.351404 0.00758295 -0.257547
-0.355845 0.0128202 -0.257628
-0.3605 0.028217 -0.257449
-0.352334 -0.0213001 -0.253018
-0.351569 -0.0128861 -0.255171
-0.349243 -0.010868 -0.254167
-0.35147 0.0118925 -0.255666
-0.348468 0.0125782 -0.254426
-0.366191 0.0437309 -0.253355
-0.351236 -0.0284016 -0.250525
-0.338516 -0.000362541 -0.248574
-0.36193 0.0454016 -0.250047
-0.330259 -0.00675067 -0.245097
-0.328278 -0.00112368 -0.244572
-0.326379 -0.0122312 -0.241893
-0.327795 0.0047782 -0.244171
-0.323116 0.00766692 -0.241909
-0.318626 -0.00543342 -0.240218
-0.321711 0.00411844 -0.240453
-0.318637 0.00723047 -0.240045
-0.320361 0.0104742 -0.240566
-0.326563 0.0265974 -0.239083
-0.316983 -0.015603 -0.237351
-0.312502 -0.0162559 -0.235226
-0.306292 -0.010678 -0.234692
-0.306926 0.00378007 -0.235329
-0.305468 0.00661673 -0.234537
-0.315957 0.0219065 -0.23683
-0.3235 0.0300966 -0.236611
-0.301758 -0.00704643 -0.23129
-0.310783 0.0300471 -0.231451
-0.330125 0.0481498 -0.232292
-0.294638 -0.0106155 -0.229799
-0.291325 -0.0118093 -0.227187
-0.32575 -0.054162 -0.22666
-0.300335 -0.0415804 -0.224052
-0.283334 0.00560936 -0.225264
-0.27908 0.00786512 -0.223352
-0.290309 0.0135853 -0.226145
-0.304643 0.0397673 -0.226694
-0.282029 -0.0235333 -0.222538
-0.30691 -0.00962218 -0.222104
-0.279774 0.00382156 -0.222792
-0.276231 0.0107848 -0.22201
-0.282218 0.0245805 -0.22234
-0.272019 -0.0244825 -0.217066
-0.265659 0.00251716 -0.21693
-0.26712 0.00739457 -0.218384
-0.263572 0.0144967 -0.216265
-0.270518 0.0173273 -0.218736
-0.269359 0.0206397 -0.217726
-0.27203 -0.0309686 -0.216343
-0.26731 -0.0299325 -0.214761
-0.265042 -0.0279614 -0.21414
-0.258915 -0.0171041 -0.214019
-0.253637 0.00474 -0.212834
-0.257984 0.00719563 -0.214545
-0.257598 0.0113083 -0.214202
-0.260959 0.0153233 -0.215043
-0.266733 0.0363383 -0.212733
-0.279181 0.0421293 -0.21545
-0.291552 -0.0560895 -0.212074
-0.258665 -0.0304707 -0.211047
-0.25822 -0.0264277 -0.2107
-0.249249 -0.0206823 -0.209254
-0.253263 -0.00337542 -0.211733
-0.247015 -0.00285127 -0.210216
-0.262319 0.00059982 -0.213759
-0.249961 0.0179125 -0.208948
-0.258477 0.0237105 -0.211626
-0.259893 0.0275012 -0.212137
-0.261515 0.0305331 -0.212194
-0.255596 0.0326241 -0.20921
-0.242725 -0.0269585 -0.205471
-0.243332 -0.00546408 -0.208537
-0.24077 -0.00465409 -0.207184
-0.245939 0.00277616 -0.208569
-0.246886 0.020627 -0.208187
-0.230205 -0.00970142 -0.202634
-0.236541 -0.000390926 -0.204698
-0.236365 0.0046529 -0.20446
-0.231118 0.00420062 -0.203369
-0.236071 0.0119249 -0.203951
-0.238628 0.0190758 -0.205138
-0.236739 -0.0374589 -0.199954
-0.236962 -0.0275267 -0.201684
-0.233826 -0.0213528 -0.201628
-0.225746 -0.0125663 -0.199419
-0.227606 -0.00853276 -0.201572
-0.224669 -0.0039658 -0.199581
-0.22669 -0.000473019 -0.201589
-0.227862 0.00366245 -0.20088
-0.2227 0.0103597 -0.199567
-0.223498 0.0149698 -0.199343
-0.234749 0.0346029 -0.199034
-0.239412 -0.0494298 -0.196547
-0.227773 -0.0343147 -0.196327
-0.225491 -0.03076 -0.197087
-0.225578 -0.0276427 -0.197687
-0.216063 -0.0142992 -0.195182
-0.224055 -0.00786392 -0.198494
-0.213595 -0.00549167 -0.194968
-0.211772 -0.00174512 -0.195263
-0.216726 0.00211437 -0.19734
-0.219383 0.00966094 -0.197143
-0.215122 0.0113873 -0.195113
-0.272262 -0.0731325 -0.191805
-0.21574 -0.0259534 -0.194298
-0.208764 -0.00647408 -0.19287
-0.207236 -0.00232959 -0.193347
-0.208662 0.00581829 -0.193886
-0.212577 0.0201882 -0.19304
-0.220453 0.0343096 -0.193253
-0.224232 0.0415825 -0.192342
-0.220843 0.0403783 -0.192591
-0.209201 -0.0304303 -0.189437
-0.202258 -0.0128197 -0.190177
-0.201602 -0.00956381 -0.190664
-0.200594 -0.00623215 -0.190522
-0.199269 -0.00677134 -0.18786
-0.203117 -0.00303946 -0.190523
-0.205962 0.00369454 -0.189351
-0.198299 0.00152368 -0.18846
-0.194498 0.000233182 -0.187711
-0.197859 0.0145602 -0.188592
-0.201628 0.0205333 -0.18954
-0.209728 0.0245726 -0.191037
-0.20224 0.0293516 -0.187996
-0.211045 0.0335799 -0.18955
-0.218337 0.0415255 -0.19114
-0.195387 -0.0339357 -0.184084
-0.193452 -0.0134455 -0.185672
-0.196871 -0.0100603 -0.187571
-0.189098 -0.00731644 -0.185601
-0.196907 -0.0055857 -0.184817
-0.195298 0.00591809 -0.187237
-0.188634 0.00514081 -0.18554
-0.204315 0.0110492 -0.188674
-0.1934 0.00998051 -0.185036
-0.200845 0.0178631 -0.185896
-0.200314 0.0261541 -0.187869
-0.222815 0.0539666 -0.187679
-0.191611 -0.0310176 -0.183214
-0.18825 -0.0197988 -0.182818
-0.188532 -0.0144035 -0.184669
-0.178149 -0.0070013 -0.180933
-0.18429 -0.00090623 -0.18255
-0.193335 0.00403215 -0.183156
-0.18197 0.00425277 -0.181663
-0.184143 0.00777057 -0.183429
-0.178498 0.00857154 -0.18097
-0.189472 0.0208484 -0.183643
-0.199862 -0.0508722 -0.180313
-0.18945 -0.0343278 -0.180425
-0.180433 -0.0348117 -0.177724
-0.181873 -0.0293924 -0.178413
-0.180228 -0.0254698 -0.179695
-0.179316 -0.0165799 -0.180597
-0.178564 -0.00220159 -0.180116
-0.172548 0.00318529 -0.1777
-0.173182 0.0102112 -0.17858
-0.170933 0.00842027 -0.177732
-0.175504 0.0175633 -0.178932
-0.177645 0.020636 -0.179472
-0.178886 0.026105 -0.178893
-0.169464 -0.0180726 -0.175291
-0.166573 -0.0123508 -0.175737
-0.17107 -0.0101305 -0.176711
-0.17103 -0.00509034 -0.176943
-0.167649 0.000920344 -0.17563
-0.161594 0.000291645 -0.174095
-0.163607 0.00987346 -0.174609
-0.169021 0.0194668 -0.176065
-0.16479 0.0213796 -0.173926
-0.18451 0.0423121 -0.177077
-0.179413 0.0430402 -0.174785
-0.162551 -0.0211799 -0.173101
-0.158627 -0.0231774 -0.171161
-0.160521 -0.018152 -0.171507
-0.160543 -0.0130084 -0.171042
-0.16003 -0.00799025 -0.172256
-0.155678 -0.00935821 -0.171396
-0.159447 -0.00394843 -0.173
-0.152045 -0.00328465 -0.170147
-0.158504 0.00530345 -0.172769
-0.155598 0.00749081 -0.171496
-0.162069 0.0130534 -0.172614
-0.23592 -0.0839943 -0.168852
-0.156584 -0.033998 -0.167007
-0.154041 -0.0211989 -0.16842
-0.15222 -0.0172786 -0.169228
-0.14929 -0.00960691 -0.168679
-0.148188 -0.00618627 -0.168393
-0.146014 -0.00422809 -0.167291
-0.149115 -0.0016907 -0.167834
-0.147105 0.00598271 -0.167718
-0.149635 0.0109689 -0.167605
-0.145961 0.0096355 -0.167307
-0.153242 0.013203 -0.169967
-0.147942 0.0182599 -0.167193
-0.207907 -0.0774348 -0.165741
-0.146008 -0.00885048 -0.166241
-0.137962 -0.00476121 -0.164049
-0.136553 -0.000836416 -0.163405
-0.145481 0.00424965 -0.164303
-0.155192 0.00899451 -0.167856
-0.14324 0.00725848 -0.166186
-0.138325 0.0108796 -0.163977
-0.151721 0.0328929 -0.165233
-0.152065 0.0368624 -0.1655
-0.134559 -0.00859622 -0.162587
-0.132471 -0.0107302 -0.161463
-0.130611 -0.00792149 -0.160939
-0.135187 -0.00468775 -0.160918
-0.156874 -0.00352866 -0.163354
-0.139628 -0.00138589 -0.161798
-0.128791 0.00247668 -0.160353
-0.134174 0.0123733 -0.162137
-0.136447 0.0163095 -0.161531
-0.143207 0.0307107 -0.161894
-0.130411 -0.0298371 -0.158141
-0.123146 -0.018496 -0.156743
-0.133585 -0.0119784 -0.158782
-0.124637 -0.0140932 -0.156832
-0.12615 -0.00839987 -0.157931
-0.136965 -0.00623137 -0.156759
-0.124575 -0.00461625 -0.158523
-0.12679 -0.000384368 -0.158438
-0.12243 -0.00191527 -0.156483
-0.141545 0.0108294 -0.158922
-0.132769 0.00917553 -0.160081
-0.125471 0.0108225 -0.158507
-0.122292 0.0129792 -0.157001
-0.129785 0.0145731 -0.159033
-0.123779 0.0159944 -0.157437
-0.134634 0.0377226 -0.15809
-0.1367 0.0402134 -0.158365
-0.120934 -0.0310346 -0.153933
-0.117747 -0.0187378 -0.154577
-0.113943 -0.0154487 -0.153375
-0.132718 -0.00804791 -0.15386
-0.115459 -0.00921736 -0.153349
-0.130093 -0.00561328 -0.155463
-0.117432 -0.00462502 -0.15527
-0.12975 0.00373617 -0.156258
-0.117872 0.000161699 -0.154018
-0.12566 0.00722313 -0.156926
-0.118472 0.0047122 -0.154887
-0.113698 0.0106514 -0.153569
-0.112168 0.014633 -0.152637
-0.120184 0.0181099 -0.154619
-0.116857 0.0204338 -0.153969
-0.160577 0.0290871 -0.156737
-0.111318 -0.0255198 -0.150953
-0.115308 -0.0249417 -0.150764
-0.114581 -0.0201609 -0.151963
-0.10958 -0.0188611 -0.149491
-0.109812 -0.0112729 -0.149977
-0.115354 -0.00393151 -0.151688
-0.118259 -0.00354527 -0.152265
-0.112314 0.00250301 -0.152283
-0.108742 0.0167394 -0.149952
-0.106658 -0.0336446 -0.147441
-0.102389 -0.024012 -0.147418
-0.0944049 -0.0155415 -0.145175
-0.117956 -0.00639112 -0.147087
-0.0971825 -0.00799128 -0.145701
-0.138395 -0.00446162 -0.147339
-0.113008 -0.00440969 -0.149662
-0.107023 -0.00549953 -0.148048
-0.102071 0.000123093 -0.147959
-0.106456 0.00539711 -0.147926
-0.103275 0.01327 -0.149
-0.103162 0.0189425 -0.148479
-0.108492 0.0235029 -0.148863
-0.102152 0.0353006 -0.144617
-0.103188 -0.0467688 -0.142496
-0.105875 -0.0446769 -0.144224
-0.108002 -0.0304314 -0.14345
-0.0912553 -0.0154888 -0.142714
-0.0911504 -0.00942637 -0.143085
-0.0954056 -0.00374165 -0.146263
-0.088169 -0.00031039 -0.143125
-0.0940456 0.0028276 -0.14247
-0.092054 0.00477269 -0.143674
-0.0894921 0.0136673 -0.14292
-0.0865088 0.0128377 -0.141964
-0.0943462 0.014032 -0.144929
-0.0989175 0.0315947 -0.143645
-0.187394 -0.0964437 -0.139534
-0.0970642 -0.0399353 -0.141942
-0.105104 -0.0281717 -0.140765
-0.0827661 -0.0278445 -0.13864
-0.0810508 -0.0254075 -0.138136
-0.0915237 -0.0208594 -0.142175
-0.0841849 -0.0147074 -0.140533
-0.085322 -0.0111416 -0.140486
-0.0831292 -0.00866095 -0.140563
-0.104853 -0.00526414 -0.142379
[...]
POINT_DATA 628
VECTORS i float
0.0 0.0 0.0
0.0 0.0 0.0
0.0 0.0 0.0
0.0 0.0 0.0
0.0 0.0 0.0
0.0 0.0 0.0
0.0 0.0 0.0
0.0 0.0 0.0
0.0 0.0 0.0
0.0 0.0 0.0
0.0 0.0 0.0
0.0 0.0 0.0
0.0 0.0 0.0
0.0 0.0 0.0
0.0 0.0 0.0
0.0 0.0 0.0
0.0 0.0 0.0
0.0 0.0 0.0
0.0 0.0 0.0
0.0 0.0 0.0
0.0 0.0 0.0
0.0 0.0 0.0
0.0 0.0 0.0
0.0 0.0 0.0
0.0 0.0 0.0
0.0 0.0 0.0
0.0 0.0 0.0
0.0 0.0 0.0
0.0 0.0 0.0
0.0 0.0 0.0
0.0 0.0 0.0
0.0 0.0 0.0
0.0 0.0 0.0
0.0 0.0 0.0
0.0 0.0 0.0
0.0 0.0 0.0
0.0 0.0 0.0
0.0 0.0 0.0
0.0 0.0 0.0
0.0 0.0 0.0
0.0 0.0 0.0
0.0 0.0 0.0
0.0 0.0 0.0
0.0 0.0 0.0
0.0 0.0 0.0
0.0 0.0 0.0
0.0 0.0 0.0
0.0 0.0 0.0
0.0 0.0 0.0
0.0 0.0 0.0
0.0 0.0 0.0
0.0 0.0 0.0
0.0 0.0 0.0
0.0 0.0 0.0
0.0 0.0 0.0
0.0 0.0 0.0
0.0 0.0 0.0
0.0 0.0 0.0
0.0 0.0 0.0
0.0 0.0 0.0
0.0 0.0 0.0
0.0 0.0 0.0
0.0 0.0 0.0
0.0 0.0 0.0
0.0 0.0 0.0
0.0 0.0 0.0
0.0 0.0 0.0
0.0 0.0 0.0
0.0 0.0 0.0
0.0 0.0 0.0
0.0 0.0 0.0
0.0 0.0 0.0
0.0 0.0 0.0
0.0 0.0 0.0
0.0 0.0 0.0
0.0 0.0 0.0
0.0 0.0 0.0
0.0 0.0 0.0
0.0 0.0 0.0
0.0 0.0 0.0
0.0 0.0 0.0
0.0 0.0 0.0
0.0 0.0 0.0
0.0 0.0 0.0
0.0 0.0 0.0
0.0 0.0 0.0
0.0 0.0 0.0
0.0 0.0 0.0
0.0 0.0 0.0
0.0 0.0 0.0
0.0 0.0 0.0
0.0 0.0 0.0
0.0 0.0 0.0
0.0 0.0 0.0
0.0 0.0 0.0
0.0 0.0 0.0
0.0 0.0 0.0
0.0 0.0 0.0
0.0 0.0 0.0
0.0 0.0 0.0
0.0 0.0 0.0
0.0 0.0 0.0
0.0 0.0 0.0
0.0 0.0 0.0
0.0 0.0 0.0
0.0 0.0 0.0
0.0 0.0 0.0
0.0 0.0 0.0
0.0 0.0 0.0
0.0 0.0 0.0
0.0 0.0 0.0
0.0 0.0 0.0
0.0 0.0 0.0
0.0 0.0 0.0
0.0 0.0 0.0
0.0 0.0 0.0
0.0 0.0 0.0
0.0 0.0 0.0
0.0 0.0 0.0
0.0 0.0 0.0
0.0 0.0 0.0
0.0 0.0 0.0
0.0 0.0 0.0
0.0 0.0 0.0
0.0 0.0 0.0
0.0 0.0 0.0
0.0 0.0 0.0
0.0 0.0 0.0
0.0 0.0 0.0
0.0 0.0 0.0
0.0 0.0 0.0
0.0 0.0 0.0
0.0 0.0 0.0
0.0 0.0 0.0
0.0 0.0 0.0
0.0 0.0 0.0
0.0 0.0 0.0
0.0 0.0 0.0
0.0 0.0 0.0
0.0 0.0 0.0
0.0 0.0 0.0
0.0 0.0 0.0
0.0 0.0 0.0
0.0 0.0 0.0
0.0 0.0 0.0
0.0 0.0 0.0
0.0 0.0 0.0
0.0 0.0 0.0
0.0 0.0 0.0
0.0 0.0 0.0
0.0 0.0 0.0
0.0 0.0 0.0
0.0 0.0 0.0
0.0 0.0 0.0
0.0 0.0 0.0
0.0 0.0 0.0
0.0 0.0 0.0
0.0 0.0 0.0
0.0 0.0 0.0
0.0 0.0 0.0
0.0 0.0 0.0
0.0 0.0 0.0
0.0 0.0 0.0
0.0 0.0 0.0
0.0 0.0 0.0
0.0 0.0 0.0
0.0 0.0 0.0
0.0 0.0 0.0
0.0 0.0 0.0
0.0 0.0 0.0
0.0 0.0 0.0
0.0 0.0 0.0
0.0 0.0 0.0
0.0 0.0 0.0
0.0 0.0 0.0
0.0 0.0 0.0
0.0 0.0 0.0
0.0 0.0 0.0
0.0 0.0 0.0
0.0 0.0 0.0
0.0 0.0 0.0
0.0 0.0 0.0
0.0 0.0 0.0
0.0 0.0 0.0
0.0 0.0 0.0
0.0 0.0 0.0
0.0 0.0 0.0
0.0 0.0 0.0
0.0 0.0 0.0
0.0 0.0 0.0
0.0 0.0 0.0
0.0 0.0 0.0
0.0 0.0 0.0
0.0 0.0 0.0
0.0 0.0 0.0
0.0 0.0 0.0
0.0 0.0 0.0
0.0 0.0 0.0
0.0 0.0 0.0
0.0 0.0 0.0
0.0 0.0 0.0
0.0 0.0 0.0
0.0 0.0 0.0
0.0 0.0 0.0
0.0 0.0 0.0
0.0 0.0 0.0
0.0 0.0 0.0
0.0 0.0 0.0
0.0 0.0 0.0
0.0 0.0 0.0
0.0 0.0 0.0
0.0 0.0 0.0
0.0 0.0 0.0
0.0 0.0 0.0
0.0 0.0 0.0
0.0 0.0 0.0
0.0 0.0 0.0
0.0 0.0 0.0
0.0 0.0 0.0
0.0 0.0 0.0
0.0 0.0 0.0
0.0 0.0 0.0
0.0 0.0 0.0
0.0 0.0 0.0
0.0 0.0 0.0
0.0 0.0 0.0
0.0 0.0 0.0
0.0 0.0 0.0
0.0 0.0 0.0
0.0 0.0 0.0
0.0 0.0 0.0
0.0 0.0 0.0
0.0 0.0 0.0
0.0 0.0 0.0
0.0 0.0 0.0
0.0 0.0 0.0
0.0 0.0 0.0
0.0 0.0 0.0
0.0 0.0 0.0
0.0 0.0 0.0
0.0 0.0 0.0
0.0 0.0 0.0
0.0 0.0 0.0
0.0 0.0 0.0
0.0 0.0 0.0
0.0 0.0 0.0
0.0 0.0 0.0
0.0 0.0 0.0
0.0 0.0 0.0
0.0 0.0 0.0
0.0 0.0 0.0
0.0 0.0 0.0
0.0 0.0 0.0
0.0 0.0 0.0
0.0 0.0 0.0
0.0 0.0 0.0
0.0 0.0 0.0
0.0 0.0 0.0
0.0 0.0 0.0
0.0 0.0 0.0
0.0 0.0 0.0
0.0 0.0 0.0
0.0 0.0 0.0
0.0 0.0 0.0
0.0 0.0 0.0
0.0 0.0 0.0
0.0 0.0 0.0
0.0 0.0 0.0
0.0 0.0 0.0
0.0 0.0 0.0
0.0 0.0 0.0
0.0 0.0 0.0
0.0 0.0 0.0
0.0 0.0 0.0
0.0 0.0 0.0
0.0 0.0 0.0
0.0 0.0 0.0
0.0 0.0 0.0
0.0 0.0 0.0
0.0 0.0 0.0
0.0 0.0 0.0
0.0 0.0 0.0
0.0 0.0 0.0
0.0 0.0 0.0
0.0 0.0 0.0
0.0 0.0 0.0
0.0 0.0 0.0
0.0 0.0 0.0
0.0 0.0 0.0
0.0 0.0 0.0
0.0 0.0 0.0
0.0 0.0 0.0
0.0 0.0 0.0
0.0 0.0 0.0
0.0 0.0 0.0
0.0 0.0 0.0
0.0 0.0 0.0
0.0 0.0 0.0
0.0 0.0 0.0
0.0 0.0 0.0
0.0 0.0 0.0
0.0 0.0 0.0
0.0 0.0 0.0
0.0 0.0 0.0
0.0 0.0 0.0
0.0 0.0 0.0
0.0 0.0 0.0
0.0 0.0 0.0
0.0 0.0 0.0
0.0 0.0 0.0
0.0 0.0 0.0
0.0 0.0 0.0
0.0 0.0 0.0
0.0 0.0 0.0
0.0 0.0 0.0
0.0 0.0 0.0
0.0 0.0 0.0
0.0 0.0 0.0
0.0 0.0 0.0
0.0 0.0 0.0
0.0 0.0 0.0
0.0 0.0 0.0
0.0 0.0 0.0
0.0 0.0 0.0
0.0 0.0 0.0
0.0 0.0 0.0
0.0 0.0 0.0
0.0 0.0 0.0
0.0 0.0 0.0
0.0 0.0 0.0
0.0 0.0 0.0
0.0 0.0 0.0
0.0 0.0 0.0
0.0 0.0 0.0
0.0 0.0 0.0
0.0 0.0 0.0
0.0 0.0 0.0
0.0 0.0 0.0
0.0 0.0 0.0
0.0 0.0 0.0
0.0 0.0 0.0
0.0 0.0 0.0
0.0 0.0 0.0
0.0 0.0 0.0
0.0 0.0 0.0
0.0 0.0 0.0
0.0 0.0 0.0
0.0 0.0 0.0
0.0 0.0 0.0
0.0 0.0 0.0
0.0 0.0 0.0
0.0 0.0 0.0
0.0 0.0 0.0
0.0 0.0 0.0
0.0 0.0 0.0
0.0 0.0 0.0
0.0 0.0 0.0
0.0 0.0 0.0
0.0 0.0 0.0
0.0 0.0 0.0
0.0 0.0 0.0
0.0 0.0 0.0
0.0 0.0 0.0
0.0 0.0 0.0
0.0 0.0 0.0
0.0 0.0 0.0
0.0 0.0 0.0
0.0 0.0 0.0
0.0 0.0 0.0
0.0 0.0 0.0
0.0 0.0 0.0
0.0 0.0 0.0
0.0 0.0 0.0
0.0 0.0 0.0
0.0 0.0 0.0
0.0 0.0 0.0
0.0 0.0 0.0
0.0 0.0 0.0
0.0 0.0 0.0
0.0 0.0 0.0
0.0 0.0 0.0
0.0 0.0 0.0
0.0 0.0 0.0
0.0 0.0 0.0
0.0 0.0 0.0
0.0 0.0 0.0
0.0 0.0 0.0
0.0 0.0 0.0
0.0 0.0 0.0
0.0 0.0 0.0
0.0 0.0 0.0
0.0 0.0 0.0
0.0 0.0 0.0
0.0 0.0 0.0
0.0 0.0 0.0
0.0 0.0 0.0
0.0 0.0 0.0
0.0 0.0 0.0
0.0 0.0 0.0
0.0 0.0 0.0
0.0 0.0 0.0
0.0 0.0 0.0
0.0 0.0 0.0
0.0 0.0 0.0
0.0 0.0 0.0
0.0 0.0 0.0
0.0 0.0 0.0
0.0 0.0 0.0
0.0 0.0 0.0
0.0 0.0 0.0
0.0 0.0 0.0
0.0 0.0 0.0
0.0 0.0 0.0
0.0 0.0 0.0
0.0 0.0 0.0
0.0 0.0 0.0
0.0 0.0 0.0
0.0 0.0 0.0
0.0 0.0 0.0
0.0 0.0 0.0
0.0 0.0 0.0
0.0 0.0 0.0
0.0 0.0 0.0
0.0 0.0 0.0
0.0 0.0 0.0
0.0 0.0 0.0
0.0 0.0 0.0
0.0 0.0 0.0
0.0 0.0 0.0
0.0 0.0 0.0
0.0 0.0 0.0
0.0 0.0 0.0
0.0 0.0 0.0
0.0 0.0 0.0
0.0 0.0 0.0
0.0 0.0 0.0
0.0 0.0 0.0
0.0 0.0 0.0
0.0 0.0 0.0
0.0 0.0 0.0
0.0 0.0 0.0
0.0 0.0 0.0
0.0 0.0 0.0
0.0 0.0 0.0
0.0 0.0 0.0
0.0 0.0 0.0
0.0 0.0 0.0
0.0 0.0 0.0
0.0 0.0 0.0
0.0 0.0 0.0
0.0 0.0 0.0
0.0 0.0 0.0
0.0 0.0 0.0
0.0 0.0 0.0
0.0 0.0 0.0
0.0 0.0 0.0
0.0 0.0 0.0
0.0 0.0 0.0
0.0 0.0 0.0
0.0 0.0 0.0
0.0 0.0 0.0
0.0 0.0 0.0
0.0 0.0 0.0
0.0 0.0 0.0
0.0 0.0 0.0
0.0 0.0 0.0
0.0 0.0 0.0
0.0 0.0 0.0
0.0 0.0 0.0
0.0 0.0 0.0
0.0 0.0 0.0
0.0 0.0 0.0
0.0 0.0 0.0
0.0 0.0 0.0
0.0 0.0 0.0
0.0 0.0 0.0
0.0 0.0 0.0
0.0 0.0 0.0
0.0 0.0 0.0
0.0 0.0 0.0
0.0 0.0 0.0
0.0 0.0 0.0
0.0 0.0 0.0
0.0 0.0 0.0
0.0 0.0 0.0
0.0 0.0 0.0
0.0 0.0 0.0
0.0 0.0 0.0
0.0 0.0 0.0
0.0 0.0 0.0
0.0 0.0 0.0
0.0 0.0 0.0
0.0 0.0 0.0
0.0 0.0 0.0
0.0 0.0 0.0
0.0 0.0 0.0
0.0 0.0 0.0
0.0 0.0 0.0
0.0 0.0 0.0
0.0 0.0 0.0
0.0 0.0 0.0
0.0 0.0 0.0
0.0 0.0 0.0
0.0 0.0 0.0
0.0 0.0 0.0
0.0 0.0 0.0
0.0 0.0 0.0
0.0 0.0 0.0
0.0 0.0 0.0
0.0 0.0 0.0
0.0 0.0 0.0
0.0 0.0 0.0
0.0 0.0 0.0
0.0 0.0 0.0
0.0 0.0 0.0
0.0 0.0 0.0
0.0 0.0 0.0
0.0 0.0 0.0
0.0 0.0 0.0
0.0 0.0 0.0
0.0 0.0 0.0
0.0 0.0 0.0
0.0 0.0 0.0
0.0 0.0 0.0
0.0 0.0 0.0
0.0 0.0 0.0
0.0 0.0 0.0
0.0 0.0 0.0
0.0 0.0 0.0
0.0 0.0 0.0
0.0 0.0 0.0
0.0 0.0 0.0
0.0 0.0 0.0
0.0 0.0 0.0
0.0 0.0 0.0
0.0 0.0 0.0
0.0 0.0 0.0
0.0 0.0 0.0
0.0 0.0 0.0
0.0 0.0 0.0
0.0 0.0 0.0
0.0 0.0 0.0
0.0 0.0 0.0
0.0 0.0 0.0
0.0 0.0 0.0
0.0 0.0 0.0
0.0 0.0 0.0
0.0 0.0 0.0
0.0 0.0 0.0
0.0 0.0 0.0
0.0 0.0 0.0
0.0 0.0 0.0
0.0 0.0 0.0
0.0 0.0 0.0
0.0 0.0 0.0
0.0 0.0 0.0
0.0 0.0 0.0
0.0 0.0 0.0
0.0 0.0 0.0
0.0 0.0 0.0
0.0 0.0 0.0
0.0 0.0 0.0
0.0 0.0 0.0
0.0 0.0 0.0
0.0 0.0 0.0
0.0 0.0 0.0
0.0 0.0 0.0
0.0 0.0 0.0
0.0 0.0 0.0
0.0 0.0 0.0
0.0 0.0 0.0
0.0 0.0 0.0
0.0 0.0 0.0
0.0 0.0 0.0
0.0 0.0 0.0
0.0 0.0 0.0
0.0 0.0 0.0
0.0 0.0 0.0
0.0 0.0 0.0
0.0 0.0 0.0
0.0 0.0 0.0
0.0 0.0 0.0
0.0 0.0 0.0
0.0 0.0 0.0
0.0 0.0 0.0
0.0 0.0 0.0
0.0 0.0 0.0
0.0 0.0 0.0
0.0 0.0 0.0
0.0 0.0 0.0
0.0 0.0 0.0
0.0 0.0 0.0
0.0 0.0 0.0
0.0 0.0 0.0
0.0 0.0 0.0
0.0 0.0 0.0
0.0 0.0 0.0
0.0 0.0 0.0
0.0 0.0 0.0
0.0 0.0 0.0
0.0 0.0 0.0
0.0 0.0 0.0
0.0 0.0 0.0
0.0 0.0 0.0
0.0 0.0 0.0
0.0 0.0 0.0
0.0 0.0 0.0
0.0 0.0 0.0
0.0 0.0 0.0
0.0 0.0 0.0
0.0 0.0 0.0
0.0 0.0 0.0
0.0 0.0 0.0
0.0 0.0 0.0
0.0 0.0 0.0
0.0 0.0 0.0
0.0 0.0 0.0
0.0 0.0 0.0
0.0 0.0 0.0
0.0 0.0 0.0
0.0 0.0 0.0
0.0 0.0 0.0
0.0 0.0 0.0
0.0 0.0 0.0
0.0 0.0 0.0
0.0 0.0 0.0
0.0 0.0 0.0
0.0 0.0 0.0
VECTORS f float
0.0 0.0 -0.000346714
0.0 0.0 -0.000346714
0.0 0.0 -0.000346714
0.0 0.0 -0.00160516
0.0 0.0 -0.000346714
0.0 0.0 -0.000346714
0.0 0.0 -0.000346714
0.0 0.0 -0.00160516
0.0 0.0 -0.00160516
0.0 0.0 -0.000346714
0.0 0.0 -0.000346714
0.0 0.0 -0.000346714
0.0 0.0 -0.000346714
0.0 0.0 -0.000346714
0.0 0.0 -0.000346714
0.0 0.0 -0.000346714
0.0 0.0 -0.000346714
0.0 0.0 -0.00160516
0.0 0.0 -0.000346714
0.0 0.0 -0.000346714
0.0 0.0 -0.000346714
0.0 0.0 -0.000346714
0.0 0.0 -0.00160516
0.0 0.0 -0.00160516
0.0 0.0 -0.000346714
0.0 0.0 -0.00160516
0.0 0.0 -0.000346714
0.0 0.0 -0.00160516
0.0 0.0 -0.000346714
0.0 0.0 -0.000346714
0.0 0.0 -0.000346714
0.0 0.0 -0.000346714
0.0 0.0 -0.000346714
0.0 0.0 -0.000346714
0.0 0.0 -0.00160516
0.0 0.0 -0.000346714
0.0 0.0 -0.000346714
0.0 0.0 -0.000346714
0.0 0.0 -0.00160516
0.0 0.0 -0.000346714
0.0 0.0 -0.000346714
-7.56899e-05 1.1965e-05 -5.26975e-05
-0.000410671 -6.17952e-05 -0.000172233
-9.5183e-05 -1.44194e-05 -2.03185e-05
-6.86481e-05 -8.65677e-06 -9.50868e-05
0.0 0.0 -0.00160516
0.0 0.0 -0.00160516
0.0 0.0 -0.00160516
-8.76033e-05 2.28253e-05 -3.92575e-05
-8.80923e-05 -1.31532e-05 -3.83601e-05
-0.000100269 -1.49729e-05 -1.17155e-05
-8.56251e-05 -3.99235e-05 -4.23292e-05
-0.000365662 -0.00030731 -0.000253268
0.0 0.0 -0.00160516
-0.000370067 -0.00031741 -0.000221627
0.0 0.0 -0.000346714
-8.76684e-05 2.26734e-05 -3.91549e-05
-0.000421208 0.000108805 -0.000147067
-0.00117449 0.00272407 0.00338289
0.0 0.0 -0.000346714
-9.04684e-05 -1.40722e-05 -2.8025e-05
-8.59024e-05 -1.17878e-05 -3.96782e-05
0.0 0.0 -0.00160516
0.0 0.0 -0.000346714
-8.44856e-05 3.82404e-05 -4.39914e-05
0.0 0.0 -0.00160516
-6.65503e-06 5.53643e-07 -0.00112281
-8.13709e-05 -1.12964e-05 -4.60206e-05
-8.47647e-05 -3.36678e-05 -4.00884e-05
0.0 0.0 -0.00160516
-0.000532911 -0.000122028 0.000213898
3.3475e-05 6.5878e-06 0.000177804
4.72513e-05 -6.29739e-05 0.000290808
-1.01576e-05 -1.24149e-06 -0.000254217
-7.54831e-05 -3.9361e-05 -0.000139029
0.0 0.0 -0.000346714
0.0 0.0 -0.000346714
0.0 0.0 -0.000346714
0.0 0.0 -0.000346714
-0.00022717 -3.97298e-05 0.000264774
-8.94331e-05 -9.41315e-06 -3.41768e-05
-8.78596e-05 -9.25187e-06 -3.75417e-05
-6.34155e-05 -2.15566e-05 -0.000104076
-2.71963e-06 -1.60922e-06 -0.000195478
-7.44982e-05 -7.99569e-05 -6.56391e-05
0.0 0.0 -0.000346714
0.0 0.0 -0.000346714
0.0 0.0 -0.00160516
0.0 0.0 -0.000346714
-0.000467299 4.86629e-05 -5.23046e-05
-0.000129167 1.70666e-05 7.01366e-05
0.0 0.0 -0.000346714
-0.000688246 -0.000273274 0.000652394
-0.000706492 -0.000258218 0.000995888
0.0 0.0 -0.000346714
0.0 0.0 -0.000346714
-0.000267756 -0.000184456 0.000491021
-6.78148e-05 3.11311e-05 -9.11358e-05
-9.12193e-05 4.12852e-06 1.44182e-06
0.0 0.0 -0.000346714
-0.000414974 -3.35386e-05 -0.000186765
0.0 0.0 -0.000346714
-9.91522e-05 1.81934e-05 -1.8972e-05
-8.14032e-05 -5.97393e-06 -0.00109572
-0.000366539 -2.87604e-05 -0.000267238
0.000155764 6.44376e-06 -0.000478584
-0.000400458 -0.00012734 -0.000200576
-0.00010386 -3.797e-05 2.82219e-05
0.0 0.0 -0.000346714
0.0 0.0 -0.00160516
-0.000382971 0.000189872 -0.000208196
-0.000660277 0.000122943 -0.000160841
0.0 0.0 -0.000346714
0.0 0.0 -0.00160516
-7.16237e-05 -4.05625e-06 -6.71e-05
0.0 0.0 -0.00160516
-8.8445e-05 -2.53565e-05 -4.0339e-05
-8.88319e-05 -2.54141e-05 -4.01211e-05
-0.000357143 -0.000220902 -0.000242275
0.0 0.0 -0.000346714
-0.000502252 0.000436642 7.94337e-05
0.0 0.0 -0.000346714
0.0 0.0 -0.000346714
0.0 0.0 -0.00160516
0.0 0.0 -0.000346714
-0.000427177 9.38029e-05 -0.000125461
-6.60327e-05 -1.84757e-06 -8.68689e-05
-9.05704e-05 -2.45216e-06 -3.51031e-05
-0.000218019 -6.22737e-05 -0.000596919
0.00256755 0.000753516 -0.00749983
0.0 0.0 -0.000346714
-8.70432e-05 4.68239e-05 -3.19243e-05
0.0 0.0 -0.00160516
-0.000132871 -2.64425e-06 7.36039e-05
-8.78414e-05 -1.39337e-06 -3.63828e-05
-0.000833443 -0.000216137 0.000194421
-0.000395478 -0.000228788 -0.000177573
0.0 0.0 -0.000346714
2.0132e-05 -5.68745e-05 -2.10775e-05
0.0 0.0 -0.00160516
0.0 0.0 -0.000346714
-8.65041e-05 2.195e-05 -3.84553e-05
3.55301e-05 -7.36767e-05 0.000389593
0.0 0.0 -0.000346714
-0.000437207 2.42172e-06 -0.000132914
0.0 0.0 -0.000346714
0.0 0.0 -0.00160516
0.0 0.0 -0.000346714
-7.45656e-05 -1.80405e-05 -7.49571e-05
-8.66771e-05 -2.14409e-05 -3.80645e-05
-0.000728731 -0.00040909 0.000601177
-8.78339e-05 -4.48312e-05 -0.000124776
-0.000384371 -0.000208159 -0.000203015
0.00256021 0.00119776 0.00291031
-7.65009e-05 4.23437e-05 -6.56782e-05
0.0 0.0 -0.00160516
-0.000416779 0.000116723 -0.000806008
-8.97055e-05 3.15712e-06 -3.84173e-05
0.0 0.0 -0.00160516
-7.28909e-05 -0.000622837 0.000490573
-8.17629e-05 1.23148e-06 -5.62772e-05
0.0 0.0 -0.000346714
-0.00013522 0.00179026 -0.000373936
0.0 0.0 -0.000346714
-8.71769e-05 -4.37669e-05 -4.18538e-05
0.0 0.0 -0.000346714
-8.20055e-05 4.53685e-05 -5.18445e-05
-0.000399461 0.00011502 -0.000178321
0.00294771 -0.000605241 -0.00289874
-1.60939e-05 2.10292e-05 0.000154171
-0.000509563 1.84526e-05 0.000108254
0.0 0.0 -0.000346714
-0.00041548 1.86511e-05 -0.000158813
-2.44521e-05 -4.632e-06 -0.000202476
2.22144e-05 -2.22885e-05 7.33034e-06
0.0 0.0 -0.000346714
-5.41412e-07 2.03995e-07 -0.000346236
-0.000384958 0.000205762 -0.000201166
0.0 0.0 -0.000346714
4.82982e-05 0.000171818 -0.00102251
9.15275e-06 -1.49014e-05 -0.000363892
1.66678e-05 -9.16647e-06 -0.000292827
-0.000409734 1.82704e-05 -0.000173437
-0.00100959 5.4425e-05 0.0010117
0.00107345 -0.00158035 0.00209278
-0.0010673 0.000697453 -0.00013087
-7.6896e-05 -2.25189e-05 -2.67735e-05
0.0 0.0 -0.000346714
0.0 0.0 -0.000346714
-0.000231329 9.93939e-05 -0.00049707
-8.71818e-05 1.60304e-05 -3.73829e-05
0.0 0.0 -0.00160516
-0.000402858 1.37607e-05 -0.000165003
-0.000418444 1.79406e-06 -0.000179291
-2.03018e-05 1.46712e-07 -0.000238183
-0.000108538 -3.10362e-05 -5.06807e-05
-8.74298e-05 -1.71882e-05 -3.80695e-05
1.92488e-05 -7.13373e-06 0.000161051
-8.04634e-05 -6.57655e-05 -4.8852e-05
-0.000264932 -0.000195376 0.000530041
-0.00367391 -0.000488823 0.00658884
-8.63102e-05 2.52873e-05 -3.86265e-05
0.00251629 0.00847292 0.00762592
0.0 0.0 -0.00160516
-0.000414496 5.52047e-05 -0.000177003
0.0 0.0 -0.000346714
0.0 0.0 -0.000346714
-5.3548e-05 -1.0835e-06 -0.000115995
-0.000358821 6.7153e-06 0.000325125
0.0 0.0 -0.000346714
0.0 0.0 -0.00160516
-4.6114e-05 0.000640218 0.000781311
-0.00161397 0.00107741 0.0153532
-0.000383957 0.000112095 -0.000218861
-8.58351e-05 2.51578e-05 -3.95832e-05
-8.74939e-05 1.04603e-05 -3.68448e-05
1.06162e-05 -0.000320052 0.00129852
0.0 0.0 -0.000346714
0.0 0.0 -0.00160516
0.0 0.0 -0.000346714
0.0 0.0 -0.000346714
-8.85333e-05 -5.03082e-06 -4.36242e-05
0.0 0.0 -0.000346714
0.0 0.0 -0.000346714
0.0 0.0 -0.00160516
0.0 0.0 -0.00160516
0.0 0.0 -0.000346714
0.0 0.0 -0.000346714
0.0 0.0 -0.00160516
0.0 0.0 -0.000346714
-1.8832e-05 -2.80795e-06 -0.000217111
-0.00010892 -9.96724e-06 4.0141e-05
-0.0258872 -0.0180458 0.0126492
0.0259068 0.0180033 -0.0143764
-8.86633e-05 4.5144e-06 -4.36764e-05
0.0 0.0 -0.000346714
0.0 0.0 -0.000346714
0.0 0.0 -0.00160516
0.0 0.0 -0.00160516
0.0 0.0 -0.000346714
-0.00215815 0.00497175 -0.0007682
-9.01676e-05 -1.05913e-05 -3.9694e-05
0.0 0.0 -0.00160516
0.0 0.0 -0.000346714
-8.4637e-05 4.41119e-05 -4.49397e-05
0.0 0.0 -0.000346714
0.0 0.0 -0.000346714
0.0 0.0 -0.00160516
-0.000615723 0.0001079 0.000261068
0.0 0.0 -0.000346714
0.0 0.0 -0.000346714
0.00280306 -0.0088093 0.00705662
0.0 0.0 -0.00160516
0.0 0.0 -0.000346714
0.0 0.0 -0.00160516
-0.00565235 0.00713452 0.00986837
-9.50034e-05 -1.42442e-05 -4.29812e-05
-0.000414847 -4.87691e-05 -0.000185975
0.0 0.0 -0.000346714
-8.39531e-05 -4.71024e-05 -4.59611e-05
-1.50212e-05 6.50041e-05 -9.92046e-05
-9.18139e-05 4.81997e-05 -2.35487e-05
-8.20994e-05 2.73419e-05 -5.15697e-05
8.9947e-05 -2.2595e-05 -0.000592355
0.0 0.0 -0.000346714
-0.000409604 6.51546e-05 -0.000177939
0.0 0.0 -0.000346714
0.0 0.0 -0.000346714
0.0 0.0 -0.00160516
0.0 0.0 -0.000346714
-0.014382 -0.0425738 0.0467757
8.47696e-05 1.77961e-05 -0.00100296
-8.82296e-05 -1.49411e-05 -3.89477e-05
-8.83296e-05 -1.49605e-05 -3.86221e-05
-0.000403157 -0.000146945 -0.000181359
-8.63077e-05 -3.14764e-05 -4.07649e-05
0.0 0.0 -0.000346714
-9.23982e-05 3.0505e-05 -2.70543e-05
0.0 0.0 -0.000346714
-0.000329539 0.000108732 -0.000354591
0.0 0.0 -0.000346714
0.0 0.0 -0.000346714
0.00178394 -0.00120424 0.000372074
-0.00178394 0.00120424 -0.0010655
-0.000411271 -2.53647e-06 -0.000177482
-0.000344007 -5.83557e-05 -0.000318706
-5.16899e-05 2.40459e-05 -0.000131015
-8.67281e-05 2.77054e-05 -3.98745e-05
0.00465053 -0.000261179 -0.00131031
0.0 0.0 -0.00160516
-0.00040844 5.7861e-05 -0.000167282
0.0 0.0 -0.00160516
0.0 0.0 -0.000346714
0.0 0.0 -0.000346714
-0.000414635 -5.78767e-06 -0.000156331
0.0 0.0 -0.000346714
-0.000303279 -1.24809e-05 0.000505175
2.33398e-05 -2.40299e-05 4.48049e-06
0.0 0.0 -0.00160516
0.0 0.0 -0.000346714
-8.26936e-05 5.94727e-05 -6.99728e-05
-8.01882e-05 6.03645e-05 -4.88891e-05
0.0 0.0 -0.00160516
-0.00284486 4.75707e-05 -0.00218323
-0.00041088 5.43555e-05 -0.00017774
0.0 0.0 -0.000346714
0.0 0.0 -0.000346714
0.0 0.0 -0.000346714
0.0 0.0 -0.000346714
0.0 0.0 -0.000346714
-8.86764e-05 -1.74519e-05 -3.8685e-05
0.0 0.0 -0.000346714
-0.00223363 -0.000664219 0.000618073
0.0 0.0 -0.000346714
0.0 0.0 -0.000346714
0.0 0.0 -0.000346714
0.0 0.0 -0.000346714
0.0 0.0 -0.000346714
-0.000398121 0.000121862 -0.000184487
0.0 0.0 -0.000346714
0.0 0.0 -0.000346714
0.0 0.0 -0.000346714
0.0 0.0 -0.000346714
0.0 0.0 -0.00160516
0.0 0.0 -0.00160516
-8.8285e-05 -3.91338e-06 -3.70343e-05
0.0 0.0 -0.00160516
0.0 0.0 -0.000346714
0.0 0.0 -0.000346714
0.00113607 -0.000738708 -0.00223288
-0.00113607 0.000738708 0.000281007
0.0154645 -0.00566594 -0.0429999
0.0 0.0 -0.00160516
0.0 0.0 -0.000346714
-0.000372384 4.47121e-05 -0.000283466
0.0 0.0 -0.000346714
0.0 0.0 -0.00160516
-8.85455e-05 -3.92214e-06 -3.65205e-05
0.0 0.0 -0.000346714
0.0 0.0 -0.000346714
0.0 0.0 -0.000346714
2.27583e-05 -3.42694e-05 8.23738e-06
0.0 0.0 -0.00160516
-9.11468e-05 -3.61518e-05 -3.15133e-05
-0.000392965 0.000184649 -0.000199093
0.0 0.0 -0.000346714
0.0 0.0 -0.00160516
0.0 0.0 -0.000346714
0.0 0.0 -0.000346714
0.0 0.0 -0.000346714
0.0 0.0 -0.00160516
0.0 0.0 -0.00160516
0.0 0.0 -0.00160516
0.0 0.0 -0.000346714
4.23371e-05 3.26605e-06 -0.000299085
0.0 0.0 -0.00160516
-3.57152e-05 -5.30836e-05 -0.000210075
0.0 0.0 -0.000346714
0.000119231 0.0002138 1.11491e-05
0.0 0.0 -0.00160516
0.0 0.0 -0.000346714
0.000101921 -0.000172853 0.000211618
0.0 0.0 -0.00160516
-8.87328e-05 9.33556e-06 -3.79752e-05
-0.000406416 -2.35454e-05 -0.000180929
-0.000169282 -8.22635e-06 1.97037e-05
0.0 0.0 -0.00160516
0.0 0.0 -0.00160516
-0.000393326 -8.34128e-05 -0.00018558
0.000349307 0.00047657 -0.00245867
0.0 0.0 -0.000346714
0.0 0.0 -0.00160516
0.0 0.0 -0.000346714
6.65237e-06 -1.47525e-06 -0.000206525
0.0 0.0 -0.00160516
0.0 0.0 -0.00160516
0.0 0.0 -0.000346714
0.0 0.0 -0.000346714
0.0 0.0 -0.000346714
0.0 0.0 -0.000346714
0.0 0.0 -0.000346714
0.0 0.0 -0.00160516
-0.000168828 -4.01086e-05 0.000135799
0.0 0.0 -0.000346714
0.0 0.0 -0.000346714
-8.70939e-05 2.34773e-05 -4.16458e-05
0.0 0.0 -0.000346714
0.0 0.0 -0.000346714
8.36744e-05 -0.000598077 -8.27387e-05
0.0 0.0 -0.00160516
0.0 0.0 -0.000346714
0.0 0.0 -0.00160516
0.0 0.0 -0.000346714
0.0 0.0 -0.000346714
-8.30449e-05 -2.84882e-05 -6.12834e-05
0.0 0.0 -0.00160516
0.0 0.0 -0.000346714
0.0 0.0 -0.000346714
0.0 0.0 -0.000346714
0.0 0.0 -0.00160516
0.0 0.0 -0.000346714
0.0 0.0 -0.000346714
-0.00830102 0.00464899 0.0273364
0.0 0.0 -0.000346714
-0.000384473 1.06888e-05 -0.0002621
-8.36744e-05 0.000598077 -0.00186913
0.0 0.0 -0.000346714
0.0 0.0 -0.00160516
0.0 0.0 -0.000346714
0.0 0.0 -0.00160516
0.0 0.0 -0.00160516
0.000204074 0.000321992 0.000781299
0.0 0.0 -0.00160516
0.0 0.0 -0.000346714
-8.74429e-05 3.60039e-05 -4.38921e-05
0.0 0.0 -0.000346714
0.0 0.0 -0.00160516
0.0 0.0 -0.00160516
0.0 0.0 -0.000346714
0.0 0.0 -0.000346714
0.0 0.0 -0.000346714
0.0 0.0 -0.00160516
0.0 0.0 -0.000346714
0.0 0.0 -0.000346714
0.0 0.0 -0.00160516
0.0 0.0 -0.000346714
0.0 0.0 -0.000346714
0.0 0.0 -0.00160516
0.0 0.0 -0.00160516
0.0 0.0 -0.000346714
0.0 0.0 -0.00160516
0.0 0.0 -0.00160516
0.0 0.0 -0.00160516
0.0 0.0 -0.00160516
0.0 0.0 -0.000346714
0.0 0.0 -0.000346714
0.0 0.0 -0.000346714
0.0 0.0 -0.00160516
0.0 0.0 -0.00160516
0.0 0.0 -0.000346714
0.0 0.0 -0.000346714
-0.0533174 -0.00888382 0.0946292
-0.0596534 0.00318062 0.0894649
0.0 0.0 -0.000346714