# vtk DataFile Version 2.0
Generated by lpp.py
ASCII
DATASET POLYDATA
POINTS 824 float
-0.0155757 0.0223015 0.0519261
-0.01373 0.00358416 0.0495908
-0.0268155 -0.00100401 0.0495041
-0.0238463 -0.0251742 0.0514157
-0.477729 0.025291 -0.400342
-0.482483 -0.0304897 -0.39993
-0.465146 -0.0163195 -0.399775
-0.468733 0.0041408 -0.398952
-0.0207678 -0.0270771 0.0506687
-0.477033 -0.00752804 -0.394503
-0.459273 0.00167332 -0.3926
-0.485521 0.0555898 -0.394021
-0.465683 0.00624789 -0.391351
-0.47842 -0.0116068 -0.388296
-0.464744 0.00323317 -0.387871
-0.452652 -0.0206468 -0.385105
-0.467086 -0.00518116 -0.380322
-0.45379 -0.00209903 -0.380431
-0.4626 -0.010016 -0.377047
-0.469451 -0.0249406 -0.370897
-0.444165 -0.0223944 -0.372415
-0.462219 -0.0122337 -0.374211
-0.456174 0.0014296 -0.371586
-0.452002 -0.0433021 -0.367669
-0.444487 -0.0184541 -0.367623
-0.45304 -0.00682348 -0.368876
-0.453455 0.0128603 -0.369573
-0.455471 0.0381652 -0.371256
-0.449343 0.0176877 -0.362966
-0.434082 -0.0101826 -0.360759
-0.431481 0.000419923 -0.362002
-0.443284 0.00766272 -0.35883
-0.432155 -0.0077976 -0.352948
-0.43549 0.00636382 -0.355522
-0.430259 0.00631396 -0.348534
-0.419812 0.00533308 -0.350748
-0.4362 -0.0403327 -0.346605
-0.404013 -0.0177698 -0.346702
-0.432989 -0.00461798 -0.345517
-0.41379 -0.00709832 -0.341595
-0.412288 -0.00348198 -0.343702
-0.442517 -0.000338877 -0.342241
-0.425214 0.0259448 -0.344399
-0.428735 -0.0159949 -0.337808
-0.431584 -0.00165159 -0.338804
-0.423564 0.0143247 -0.336949
-0.429294 -0.00482476 -0.335417
-0.424459 -0.00309104 -0.333156
-0.423385 0.00264778 -0.333598
-0.414713 -0.00543555 -0.329816
-0.430498 0.00333104 -0.331675
-0.426979 0.00527372 -0.332553
-0.421334 0.005103 -0.330447
-0.436573 -0.027336 -0.329261
-0.399091 -0.0254072 -0.326046
-0.402006 -0.00274435 -0.32655
-0.422333 0.0097429 -0.327713
-0.424207 0.0146856 -0.328408
-0.43237 -0.0207308 -0.322745
-0.416227 -0.0168586 -0.321763
-0.412595 -0.00866649 -0.324041
-0.432017 -0.00084128 -0.325465
-0.412148 -0.00102955 -0.321526
-0.422405 -0.0210432 -0.317539
-0.427319 -0.00996632 -0.317145
-0.42536 -0.00458966 -0.317321
-0.413186 -0.00387353 -0.31446
-0.416101 -0.00204553 -0.316553
-0.426635 -0.00913828 -0.313141
-0.408981 -0.00936712 -0.313461
-0.398784 -0.00834782 -0.313073
-0.395935 -0.00328188 -0.312892
-0.385467 0.000379259 -0.311498
-0.434983 0.00316723 -0.313387
-0.401455 0.00545455 -0.310305
-0.42061 0.0185048 -0.313193
-0.420534 -0.0209278 -0.308683
-0.40275 0.0130181 -0.30743
-0.419569 0.0153275 -0.305752
-0.406804 0.0188666 -0.309441
-0.395742 0.0192533 -0.31141
-0.423933 0.0454753 -0.308034
-0.405037 -0.0131723 -0.306061
-0.382373 0.00144185 -0.306048
-0.398013 0.0089517 -0.306117
-0.400301 -0.0226583 -0.299116
-0.389022 -0.0039636 -0.29967
-0.37524 0.00588388 -0.304332
-0.399793 0.0123751 -0.302601
-0.394169 0.0140799 -0.29975
-0.411598 0.0243441 -0.303415
-0.396379 -0.0184127 -0.298277
-0.388165 -0.015319 -0.297519
-0.388668 -0.0112621 -0.295194
-0.392386 -0.00838196 -0.298606
-0.388874 -0.00730939 -0.295958
-0.385628 -0.00700387 -0.295557
-0.381621 -0.00138531 -0.298692
-0.384434 0.00427825 -0.298442
-0.390849 0.010358 -0.299128
-0.3833 0.00803355 -0.296255
-0.391299 0.0137233 -0.298103
-0.388335 0.0115577 -0.295101
-0.386751 0.0179578 -0.298536
-0.398541 -0.0176772 -0.294168
-0.387507 -0.000844746 -0.294597
-0.397217 0.00233061 -0.29364
-0.386089 0.0024514 -0.292589
-0.389643 0.0149411 -0.292476
-0.402603 0.0196598 -0.29363
-0.400396 0.0247499 -0.295451
-0.392849 -0.0205471 -0.290787
-0.387292 -0.00360317 -0.288673
-0.394173 0.00385711 -0.290216
-0.402 0.00852242 -0.289743
-0.383767 0.0157005 -0.287933
-0.391986 0.0283705 -0.288524
-0.381978 -0.0238742 -0.287349
-0.393031 -0.0146373 -0.283324
-0.387766 -0.00882188 -0.284816
-0.391475 -0.00617061 -0.286525
-0.375736 -0.00598205 -0.286387
-0.386822 0.00423378 -0.284005
-0.382751 0.00533976 -0.283789
-0.373734 0.00730575 -0.285323
-0.388329 0.0134614 -0.287239
-0.387929 -0.0197356 -0.280307
-0.38553 -0.00467873 -0.2801
-0.388742 0.000429429 -0.28164
-0.376778 0.000860711 -0.281497
-0.373015 0.00517248 -0.28145
-0.384067 0.0119521 -0.282465
-0.387401 0.0145726 -0.281837
-0.384804 -0.0118246 -0.278404
-0.400833 0.0108489 -0.276328
-0.383818 0.00794836 -0.279011
-0.375011 0.00838471 -0.2763
-0.379508 0.0169173 -0.28028
-0.375075 0.0146334 -0.275981
-0.383573 0.0177568 -0.279156
-0.376619 -0.0194155 -0.275059
-0.37478 -0.0130161 -0.273253
-0.387797 -0.0101134 -0.273231
-0.382515 -0.000635035 -0.273494
-0.373113 -0.0158207 -0.270576
-0.365333 -0.00336016 -0.268852
-0.36769 0.00688355 -0.271854
-0.3584 0.0131878 -0.268889
-0.372078 -0.0265222 -0.268779
-0.361085 -0.00353972 -0.265677
-0.363309 -0.000972132 -0.267252
-0.355351 0.00482627 -0.265097
-0.355398 0.00712527 -0.267828
-0.363624 -0.0198382 -0.262076
-0.355223 0.00317514 -0.260548
-0.351686 0.00463272 -0.259868
-0.356658 0.00735729 -0.261633
-0.358097 0.0205827 -0.262409
-0.357499 -0.0148399 -0.259645
-0.354373 -0.000716793 -0.258348
-0.349456 0.00926005 -0.257447
-0.357603 0.0125425 -0.258798
-0.352462 0.0101034 -0.257805
-0.354414 0.0156164 -0.257428
-0.378815 0.0189025 -0.256729
-0.359843 0.0208713 -0.258944
-0.351165 -0.00695402 -0.254475
-0.345552 -0.00352464 -0.253654
-0.345909 0.000490468 -0.25349
-0.348813 0.00544219 -0.254764
-0.345978 0.00931785 -0.252693
-0.351511 0.0133569 -0.254887
-0.341236 -0.0150125 -0.249478
-0.337264 -0.00143389 -0.247958
-0.340048 0.00461094 -0.250831
-0.338753 0.00752444 -0.250187
-0.336307 0.00729408 -0.248073
-0.329045 -0.00831606 -0.243388
-0.326037 0.000178455 -0.243702
-0.331142 0.0103042 -0.24437
-0.326736 0.00936779 -0.243452
-0.327901 -0.0168828 -0.242849
-0.323474 -0.013131 -0.240579
-0.316724 -0.00775518 -0.239304
-0.323121 0.00145898 -0.24122
-0.327832 0.00374091 -0.243209
-0.320317 0.00558438 -0.240857
-0.318505 0.00883065 -0.239895
-0.321297 -0.0214944 -0.23918
-0.319776 -0.0145641 -0.239899
-0.317059 -0.0107458 -0.239182
-0.311123 -0.00614546 -0.237112
-0.31348 -0.00100385 -0.23829
-0.316547 0.00402511 -0.239367
-0.310882 0.00542277 -0.236893
-0.31828 0.0144003 -0.239265
-0.317793 0.0195558 -0.238061
-0.319339 0.0230684 -0.237
-0.308141 -0.0213723 -0.233797
-0.306138 -0.00666163 -0.234992
-0.303816 -0.00201533 -0.234176
-0.306914 0.00242743 -0.235409
-0.312034 0.0134543 -0.235738
-0.309141 0.0217317 -0.234019
-0.319241 0.0295698 -0.23506
-0.328068 0.0392762 -0.236202
-0.304806 -0.0235405 -0.231793
-0.294449 -0.0128904 -0.229471
-0.293466 -0.0017782 -0.229817
-0.298894 0.00145138 -0.23209
-0.300702 0.00497676 -0.231544
-0.293714 0.00452822 -0.229711
-0.300999 0.0191654 -0.231121
-0.301141 0.0244712 -0.230147
-0.310529 0.0405707 -0.228699
-0.291886 -0.00816075 -0.22782
-0.289386 0.00379529 -0.227567
-0.285675 0.00681149 -0.226122
-0.288495 0.0112395 -0.225994
-0.310646 0.0174576 -0.231985
-0.291077 0.0220454 -0.226461
-0.307469 -0.0416594 -0.226976
-0.291163 -0.0334002 -0.222331
-0.283649 -0.0154791 -0.224649
-0.278542 -0.0123409 -0.222842
-0.286861 -0.00977212 -0.225532
-0.275157 -0.00148468 -0.222099
-0.285758 0.00285335 -0.225224
-0.279037 -3.0431e-05 -0.222701
-0.282099 0.00664465 -0.223534
-0.284867 0.0140113 -0.22537
-0.287758 0.0227314 -0.224949
-0.293022 0.033481 -0.223045
-0.30275 0.0445174 -0.223611
-0.273976 -0.0100017 -0.221179
-0.266853 -0.00758724 -0.218374
-0.268744 -0.00457694 -0.21849
-0.27056 -0.00245499 -0.220137
-0.272116 0.000394413 -0.220861
-0.270916 0.00325447 -0.220201
-0.278025 0.011337 -0.221053
-0.276613 0.0241164 -0.219035
-0.2879 0.0286652 -0.220947
-0.267753 -0.0131124 -0.217133
-0.260271 -0.011498 -0.215273
-0.262493 -0.00769301 -0.215444
-0.262947 -0.00158988 -0.216963
-0.284505 -0.00225451 -0.214665
-0.268252 0.000783722 -0.218112
-0.263602 0.00174728 -0.217182
-0.289031 0.0033514 -0.218605
-0.255899 -0.01791 -0.211573
-0.250417 -0.0117455 -0.211109
-0.268417 -0.00948752 -0.214785
-0.26019 -0.00261273 -0.214254
-0.256931 0.00364788 -0.21426
-0.252722 0.00694834 -0.212353
-0.250715 0.00374549 -0.211633
-0.267959 0.0229192 -0.215689
-0.260792 -0.0327284 -0.210303
-0.252617 -0.0274114 -0.209356
-0.253045 -0.0227274 -0.210576
-0.250196 -0.0195685 -0.209823
-0.24772 -0.0167403 -0.208113
-0.251495 -0.0168979 -0.210888
-0.247702 -0.0111296 -0.209941
-0.250654 -0.00729017 -0.210455
-0.246769 -0.00615865 -0.209948
-0.245872 -0.000614854 -0.209755
-0.247929 0.00183382 -0.210524
-0.249055 0.00903551 -0.209631
-0.244288 0.00790519 -0.207476
-0.245547 0.0127766 -0.207828
-0.247817 0.0186307 -0.209031
-0.250686 0.0228508 -0.209604
-0.252894 0.0277927 -0.209384
-0.260978 0.0346572 -0.210854
-0.260836 0.0431084 -0.207687
-0.234214 -0.0164441 -0.203777
-0.238335 -0.0111323 -0.205975
-0.237472 -0.0074223 -0.204721
-0.232311 -0.00828019 -0.203618
-0.239253 -0.00425362 -0.206884
-0.236107 -0.00039977 -0.204519
-0.235866 0.00588485 -0.204147
-0.239292 0.0130805 -0.205165
-0.24321 0.0169087 -0.20625
-0.241197 0.0215135 -0.205854
-0.257364 0.0395051 -0.206599
-0.257852 -0.0478449 -0.203436
-0.227684 -0.0180037 -0.200849
-0.231015 -0.0144413 -0.201439
-0.235008 -0.01166 -0.203397
-0.224818 -0.0120929 -0.200152
-0.232209 -0.0036824 -0.202849
-0.227656 -0.00623396 -0.201845
-0.224941 -0.00462724 -0.200833
-0.228473 -0.00209811 -0.202393
-0.225599 -0.00172104 -0.201161
-0.232017 0.00189628 -0.203811
-0.227893 0.000826994 -0.202069
-0.225714 0.00264454 -0.20109
-0.229171 0.00497258 -0.202515
-0.248994 0.00853489 -0.202076
-0.235979 0.0102373 -0.202135
-0.229899 0.0114275 -0.20248
-0.246109 0.036701 -0.204242
-0.236618 -0.0486722 -0.195811
-0.226266 -0.0260293 -0.198665
-0.231765 -0.0212119 -0.200813
-0.225652 -0.0204629 -0.197985
-0.220475 -0.0176772 -0.197791
-0.225541 -0.015929 -0.200016
-0.216897 -0.0087472 -0.197123
-0.22333 -0.000396282 -0.199719
-0.255212 0.0036887 -0.202173
-0.220462 -8.38217e-05 -0.198895
-0.22573 0.0138451 -0.199341
-0.226728 0.0189303 -0.200177
-0.231899 0.0248264 -0.201406
-0.247106 -0.0511922 -0.197487
-0.230766 -0.042759 -0.195725
[...]
POINT_DATA 824
VECTORS i float
0.0 0.0 0.0
0.0 0.0 0.0
0.0 0.0 0.0
0.0 0.0 0.0
0.0 0.0 0.0
0.0 0.0 0.0
0.0 0.0 0.0
0.0 0.0 0.0
0.0 0.0 0.0
0.0 0.0 0.0
0.0 0.0 0.0
0.0 0.0 0.0
0.0 0.0 0.0
0.0 0.0 0.0
0.0 0.0 0.0
0.0 0.0 0.0
0.0 0.0 0.0
0.0 0.0 0.0
0.0 0.0 0.0
0.0 0.0 0.0
0.0 0.0 0.0
0.0 0.0 0.0
0.0 0.0 0.0
0.0 0.0 0.0
0.0 0.0 0.0
0.0 0.0 0.0
0.0 0.0 0.0
0.0 0.0 0.0
0.0 0.0 0.0
0.0 0.0 0.0
0.0 0.0 0.0
0.0 0.0 0.0
0.0 0.0 0.0
0.0 0.0 0.0
0.0 0.0 0.0
0.0 0.0 0.0
0.0 0.0 0.0
0.0 0.0 0.0
0.0 0.0 0.0
0.0 0.0 0.0
0.0 0.0 0.0
0.0 0.0 0.0
0.0 0.0 0.0
0.0 0.0 0.0
0.0 0.0 0.0
0.0 0.0 0.0
0.0 0.0 0.0
0.0 0.0 0.0
0.0 0.0 0.0
0.0 0.0 0.0
0.0 0.0 0.0
0.0 0.0 0.0
0.0 0.0 0.0
0.0 0.0 0.0
0.0 0.0 0.0
0.0 0.0 0.0
0.0 0.0 0.0
0.0 0.0 0.0
0.0 0.0 0.0
0.0 0.0 0.0
0.0 0.0 0.0
0.0 0.0 0.0
0.0 0.0 0.0
0.0 0.0 0.0
0.0 0.0 0.0
0.0 0.0 0.0
0.0 0.0 0.0
0.0 0.0 0.0
0.0 0.0 0.0
0.0 0.0 0.0
0.0 0.0 0.0
0.0 0.0 0.0
0.0 0.0 0.0
0.0 0.0 0.0
0.0 0.0 0.0
0.0 0.0 0.0
0.0 0.0 0.0
0.0 0.0 0.0
0.0 0.0 0.0
0.0 0.0 0.0
0.0 0.0 0.0
0.0 0.0 0.0
0.0 0.0 0.0
0.0 0.0 0.0
0.0 0.0 0.0
0.0 0.0 0.0
0.0 0.0 0.0
0.0 0.0 0.0
0.0 0.0 0.0
0.0 0.0 0.0
0.0 0.0 0.0
0.0 0.0 0.0
0.0 0.0 0.0
0.0 0.0 0.0
0.0 0.0 0.0
0.0 0.0 0.0
0.0 0.0 0.0
0.0 0.0 0.0
0.0 0.0 0.0
0.0 0.0 0.0
0.0 0.0 0.0
0.0 0.0 0.0
0.0 0.0 0.0
0.0 0.0 0.0
0.0 0.0 0.0
0.0 0.0 0.0
0.0 0.0 0.0
0.0 0.0 0.0
0.0 0.0 0.0
0.0 0.0 0.0
0.0 0.0 0.0
0.0 0.0 0.0
0.0 0.0 0.0
0.0 0.0 0.0
0.0 0.0 0.0
0.0 0.0 0.0
0.0 0.0 0.0
0.0 0.0 0.0
0.0 0.0 0.0
0.0 0.0 0.0
0.0 0.0 0.0
0.0 0.0 0.0
0.0 0.0 0.0
0.0 0.0 0.0
0.0 0.0 0.0
0.0 0.0 0.0
0.0 0.0 0.0
0.0 0.0 0.0
0.0 0.0 0.0
0.0 0.0 0.0
0.0 0.0 0.0
0.0 0.0 0.0
0.0 0.0 0.0
0.0 0.0 0.0
0.0 0.0 0.0
0.0 0.0 0.0
0.0 0.0 0.0
0.0 0.0 0.0
0.0 0.0 0.0
0.0 0.0 0.0
0.0 0.0 0.0
0.0 0.0 0.0
0.0 0.0 0.0
0.0 0.0 0.0
0.0 0.0 0.0
0.0 0.0 0.0
0.0 0.0 0.0
0.0 0.0 0.0
0.0 0.0 0.0
0.0 0.0 0.0
0.0 0.0 0.0
0.0 0.0 0.0
0.0 0.0 0.0
0.0 0.0 0.0
0.0 0.0 0.0
0.0 0.0 0.0
0.0 0.0 0.0
0.0 0.0 0.0
0.0 0.0 0.0
0.0 0.0 0.0
0.0 0.0 0.0
0.0 0.0 0.0
0.0 0.0 0.0
0.0 0.0 0.0
0.0 0.0 0.0
0.0 0.0 0.0
0.0 0.0 0.0
0.0 0.0 0.0
0.0 0.0 0.0
0.0 0.0 0.0
0.0 0.0 0.0
0.0 0.0 0.0
0.0 0.0 0.0
0.0 0.0 0.0
0.0 0.0 0.0
0.0 0.0 0.0
0.0 0.0 0.0
0.0 0.0 0.0
0.0 0.0 0.0
0.0 0.0 0.0
0.0 0.0 0.0
0.0 0.0 0.0
0.0 0.0 0.0
0.0 0.0 0.0
0.0 0.0 0.0
0.0 0.0 0.0
0.0 0.0 0.0
0.0 0.0 0.0
0.0 0.0 0.0
0.0 0.0 0.0
0.0 0.0 0.0
0.0 0.0 0.0
0.0 0.0 0.0
0.0 0.0 0.0
0.0 0.0 0.0
0.0 0.0 0.0
0.0 0.0 0.0
0.0 0.0 0.0
0.0 0.0 0.0
0.0 0.0 0.0
0.0 0.0 0.0
0.0 0.0 0.0
0.0 0.0 0.0
0.0 0.0 0.0
0.0 0.0 0.0
0.0 0.0 0.0
0.0 0.0 0.0
0.0 0.0 0.0
0.0 0.0 0.0
0.0 0.0 0.0
0.0 0.0 0.0
0.0 0.0 0.0
0.0 0.0 0.0
0.0 0.0 0.0
0.0 0.0 0.0
0.0 0.0 0.0
0.0 0.0 0.0
0.0 0.0 0.0
0.0 0.0 0.0
0.0 0.0 0.0
0.0 0.0 0.0
0.0 0.0 0.0
0.0 0.0 0.0
0.0 0.0 0.0
0.0 0.0 0.0
0.0 0.0 0.0
0.0 0.0 0.0
0.0 0.0 0.0
0.0 0.0 0.0
0.0 0.0 0.0
0.0 0.0 0.0
0.0 0.0 0.0
0.0 0.0 0.0
0.0 0.0 0.0
0.0 0.0 0.0
0.0 0.0 0.0
0.0 0.0 0.0
0.0 0.0 0.0
0.0 0.0 0.0
0.0 0.0 0.0
0.0 0.0 0.0
0.0 0.0 0.0
0.0 0.0 0.0
0.0 0.0 0.0
0.0 0.0 0.0
0.0 0.0 0.0
0.0 0.0 0.0
0.0 0.0 0.0
0.0 0.0 0.0
0.0 0.0 0.0
0.0 0.0 0.0
0.0 0.0 0.0
0.0 0.0 0.0
0.0 0.0 0.0
0.0 0.0 0.0
0.0 0.0 0.0
0.0 0.0 0.0
0.0 0.0 0.0
0.0 0.0 0.0
0.0 0.0 0.0
0.0 0.0 0.0
0.0 0.0 0.0
0.0 0.0 0.0
0.0 0.0 0.0
0.0 0.0 0.0
0.0 0.0 0.0
0.0 0.0 0.0
0.0 0.0 0.0
0.0 0.0 0.0
0.0 0.0 0.0
0.0 0.0 0.0
0.0 0.0 0.0
0.0 0.0 0.0
0.0 0.0 0.0
0.0 0.0 0.0
0.0 0.0 0.0
0.0 0.0 0.0
0.0 0.0 0.0
0.0 0.0 0.0
0.0 0.0 0.0
0.0 0.0 0.0
0.0 0.0 0.0
0.0 0.0 0.0
0.0 0.0 0.0
0.0 0.0 0.0
0.0 0.0 0.0
0.0 0.0 0.0
0.0 0.0 0.0
0.0 0.0 0.0
0.0 0.0 0.0
0.0 0.0 0.0
0.0 0.0 0.0
0.0 0.0 0.0
0.0 0.0 0.0
0.0 0.0 0.0
0.0 0.0 0.0
0.0 0.0 0.0
0.0 0.0 0.0
0.0 0.0 0.0
0.0 0.0 0.0
0.0 0.0 0.0
0.0 0.0 0.0
0.0 0.0 0.0
0.0 0.0 0.0
0.0 0.0 0.0
0.0 0.0 0.0
0.0 0.0 0.0
0.0 0.0 0.0
0.0 0.0 0.0
0.0 0.0 0.0
0.0 0.0 0.0
0.0 0.0 0.0
0.0 0.0 0.0
0.0 0.0 0.0
0.0 0.0 0.0
0.0 0.0 0.0
0.0 0.0 0.0
0.0 0.0 0.0
0.0 0.0 0.0
0.0 0.0 0.0
0.0 0.0 0.0
0.0 0.0 0.0
0.0 0.0 0.0
0.0 0.0 0.0
0.0 0.0 0.0
0.0 0.0 0.0
0.0 0.0 0.0
0.0 0.0 0.0
0.0 0.0 0.0
0.0 0.0 0.0
0.0 0.0 0.0
0.0 0.0 0.0
0.0 0.0 0.0
0.0 0.0 0.0
0.0 0.0 0.0
0.0 0.0 0.0
0.0 0.0 0.0
0.0 0.0 0.0
0.0 0.0 0.0
0.0 0.0 0.0
0.0 0.0 0.0
0.0 0.0 0.0
0.0 0.0 0.0
0.0 0.0 0.0
0.0 0.0 0.0
0.0 0.0 0.0
0.0 0.0 0.0
0.0 0.0 0.0
0.0 0.0 0.0
0.0 0.0 0.0
0.0 0.0 0.0
0.0 0.0 0.0
0.0 0.0 0.0
0.0 0.0 0.0
0.0 0.0 0.0
0.0 0.0 0.0
0.0 0.0 0.0
0.0 0.0 0.0
0.0 0.0 0.0
0.0 0.0 0.0
0.0 0.0 0.0
0.0 0.0 0.0
0.0 0.0 0.0
0.0 0.0 0.0
0.0 0.0 0.0
0.0 0.0 0.0
0.0 0.0 0.0
0.0 0.0 0.0
0.0 0.0 0.0
0.0 0.0 0.0
0.0 0.0 0.0
0.0 0.0 0.0
0.0 0.0 0.0
0.0 0.0 0.0
0.0 0.0 0.0
0.0 0.0 0.0
0.0 0.0 0.0
0.0 0.0 0.0
0.0 0.0 0.0
0.0 0.0 0.0
0.0 0.0 0.0
0.0 0.0 0.0
0.0 0.0 0.0
0.0 0.0 0.0
0.0 0.0 0.0
0.0 0.0 0.0
0.0 0.0 0.0
0.0 0.0 0.0
0.0 0.0 0.0
0.0 0.0 0.0
0.0 0.0 0.0
0.0 0.0 0.0
0.0 0.0 0.0
0.0 0.0 0.0
0.0 0.0 0.0
0.0 0.0 0.0
0.0 0.0 0.0
0.0 0.0 0.0
0.0 0.0 0.0
0.0 0.0 0.0
0.0 0.0 0.0
0.0 0.0 0.0
0.0 0.0 0.0
0.0 0.0 0.0
0.0 0.0 0.0
0.0 0.0 0.0
0.0 0.0 0.0
0.0 0.0 0.0
0.0 0.0 0.0
0.0 0.0 0.0
0.0 0.0 0.0
0.0 0.0 0.0
0.0 0.0 0.0
0.0 0.0 0.0
0.0 0.0 0.0
0.0 0.0 0.0
0.0 0.0 0.0
0.0 0.0 0.0
0.0 0.0 0.0
0.0 0.0 0.0
0.0 0.0 0.0
0.0 0.0 0.0
0.0 0.0 0.0
0.0 0.0 0.0
0.0 0.0 0.0
0.0 0.0 0.0
0.0 0.0 0.0
0.0 0.0 0.0
0.0 0.0 0.0
0.0 0.0 0.0
0.0 0.0 0.0
0.0 0.0 0.0
0.0 0.0 0.0
0.0 0.0 0.0
0.0 0.0 0.0
0.0 0.0 0.0
0.0 0.0 0.0
0.0 0.0 0.0
0.0 0.0 0.0
0.0 0.0 0.0
0.0 0.0 0.0
0.0 0.0 0.0
0.0 0.0 0.0
0.0 0.0 0.0
0.0 0.0 0.0
0.0 0.0 0.0
0.0 0.0 0.0
0.0 0.0 0.0
0.0 0.0 0.0
0.0 0.0 0.0
0.0 0.0 0.0
0.0 0.0 0.0
0.0 0.0 0.0
0.0 0.0 0.0
0.0 0.0 0.0
0.0 0.0 0.0
0.0 0.0 0.0
0.0 0.0 0.0
0.0 0.0 0.0
0.0 0.0 0.0
0.0 0.0 0.0
0.0 0.0 0.0
0.0 0.0 0.0
0.0 0.0 0.0
0.0 0.0 0.0
0.0 0.0 0.0
0.0 0.0 0.0
0.0 0.0 0.0
0.0 0.0 0.0
0.0 0.0 0.0
0.0 0.0 0.0
0.0 0.0 0.0
0.0 0.0 0.0
0.0 0.0 0.0
0.0 0.0 0.0
0.0 0.0 0.0
0.0 0.0 0.0
0.0 0.0 0.0
0.0 0.0 0.0
0.0 0.0 0.0
0.0 0.0 0.0
0.0 0.0 0.0
0.0 0.0 0.0
0.0 0.0 0.0
0.0 0.0 0.0
0.0 0.0 0.0
0.0 0.0 0.0
0.0 0.0 0.0
0.0 0.0 0.0
0.0 0.0 0.0
0.0 0.0 0.0
0.0 0.0 0.0
0.0 0.0 0.0
0.0 0.0 0.0
0.0 0.0 0.0
0.0 0.0 0.0
0.0 0.0 0.0
0.0 0.0 0.0
0.0 0.0 0.0
0.0 0.0 0.0
0.0 0.0 0.0
0.0 0.0 0.0
0.0 0.0 0.0
0.0 0.0 0.0
0.0 0.0 0.0
0.0 0.0 0.0
0.0 0.0 0.0
0.0 0.0 0.0
0.0 0.0 0.0
0.0 0.0 0.0
0.0 0.0 0.0
0.0 0.0 0.0
0.0 0.0 0.0
0.0 0.0 0.0
0.0 0.0 0.0
0.0 0.0 0.0
0.0 0.0 0.0
0.0 0.0 0.0
0.0 0.0 0.0
0.0 0.0 0.0
0.0 0.0 0.0
0.0 0.0 0.0
0.0 0.0 0.0
0.0 0.0 0.0
0.0 0.0 0.0
0.0 0.0 0.0
0.0 0.0 0.0
0.0 0.0 0.0
0.0 0.0 0.0
0.0 0.0 0.0
0.0 0.0 0.0
0.0 0.0 0.0
0.0 0.0 0.0
0.0 0.0 0.0
0.0 0.0 0.0
0.0 0.0 0.0
0.0 0.0 0.0
0.0 0.0 0.0
0.0 0.0 0.0
0.0 0.0 0.0
0.0 0.0 0.0
0.0 0.0 0.0
0.0 0.0 0.0
0.0 0.0 0.0
0.0 0.0 0.0
0.0 0.0 0.0
0.0 0.0 0.0
0.0 0.0 0.0
0.0 0.0 0.0
0.0 0.0 0.0
0.0 0.0 0.0
0.0 0.0 0.0
0.0 0.0 0.0
0.0 0.0 0.0
0.0 0.0 0.0
0.0 0.0 0.0
0.0 0.0 0.0
0.0 0.0 0.0
0.0 0.0 0.0
0.0 0.0 0.0
0.0 0.0 0.0
0.0 0.0 0.0
0.0 0.0 0.0
0.0 0.0 0.0
0.0 0.0 0.0
0.0 0.0 0.0
0.0 0.0 0.0
0.0 0.0 0.0
0.0 0.0 0.0
0.0 0.0 0.0
0.0 0.0 0.0
0.0 0.0 0.0
0.0 0.0 0.0
0.0 0.0 0.0
0.0 0.0 0.0
0.0 0.0 0.0
0.0 0.0 0.0
0.0 0.0 0.0
0.0 0.0 0.0
0.0 0.0 0.0
0.0 0.0 0.0
0.0 0.0 0.0
0.0 0.0 0.0
0.0 0.0 0.0
0.0 0.0 0.0
0.0 0.0 0.0
0.0 0.0 0.0
0.0 0.0 0.0
0.0 0.0 0.0
0.0 0.0 0.0
0.0 0.0 0.0
0.0 0.0 0.0
0.0 0.0 0.0
0.0 0.0 0.0
0.0 0.0 0.0
0.0 0.0 0.0
0.0 0.0 0.0
0.0 0.0 0.0
0.0 0.0 0.0
0.0 0.0 0.0
0.0 0.0 0.0
0.0 0.0 0.0
0.0 0.0 0.0
0.0 0.0 0.0
0.0 0.0 0.0
0.0 0.0 0.0
0.0 0.0 0.0
0.0 0.0 0.0
0.0 0.0 0.0
0.0 0.0 0.0
0.0 0.0 0.0
0.0 0.0 0.0
0.0 0.0 0.0
0.0 0.0 0.0
0.0 0.0 0.0
0.0 0.0 0.0
0.0 0.0 0.0
0.0 0.0 0.0
0.0 0.0 0.0
0.0 0.0 0.0
0.0 0.0 0.0
0.0 0.0 0.0
0.0 0.0 0.0
0.0 0.0 0.0
0.0 0.0 0.0
0.0 0.0 0.0
0.0 0.0 0.0
0.0 0.0 0.0
0.0 0.0 0.0
0.0 0.0 0.0
0.0 0.0 0.0
0.0 0.0 0.0
0.0 0.0 0.0
0.0 0.0 0.0
0.0 0.0 0.0
0.0 0.0 0.0
0.0 0.0 0.0
0.0 0.0 0.0
0.0 0.0 0.0
0.0 0.0 0.0
0.0 0.0 0.0
0.0 0.0 0.0
0.0 0.0 0.0
0.0 0.0 0.0
0.0 0.0 0.0
0.0 0.0 0.0
0.0 0.0 0.0
0.0 0.0 0.0
0.0 0.0 0.0
0.0 0.0 0.0
0.0 0.0 0.0
0.0 0.0 0.0
0.0 0.0 0.0
0.0 0.0 0.0
0.0 0.0 0.0
0.0 0.0 0.0
0.0 0.0 0.0
0.0 0.0 0.0
0.0 0.0 0.0
0.0 0.0 0.0
0.0 0.0 0.0
0.0 0.0 0.0
0.0 0.0 0.0
0.0 0.0 0.0
0.0 0.0 0.0
0.0 0.0 0.0
0.0 0.0 0.0
0.0 0.0 0.0
0.0 0.0 0.0
0.0 0.0 0.0
0.0 0.0 0.0
0.0 0.0 0.0
0.0 0.0 0.0
0.0 0.0 0.0
0.0 0.0 0.0
0.0 0.0 0.0
0.0 0.0 0.0
0.0 0.0 0.0
0.0 0.0 0.0
0.0 0.0 0.0
0.0 0.0 0.0
0.0 0.0 0.0
0.0 0.0 0.0
0.0 0.0 0.0
0.0 0.0 0.0
0.0 0.0 0.0
0.0 0.0 0.0
0.0 0.0 0.0
0.0 0.0 0.0
0.0 0.0 0.0
0.0 0.0 0.0
0.0 0.0 0.0
0.0 0.0 0.0
0.0 0.0 0.0
0.0 0.0 0.0
0.0 0.0 0.0
0.0 0.0 0.0
0.0 0.0 0.0
0.0 0.0 0.0
0.0 0.0 0.0
0.0 0.0 0.0
0.0 0.0 0.0
0.0 0.0 0.0
0.0 0.0 0.0
0.0 0.0 0.0
0.0 0.0 0.0
0.0 0.0 0.0
0.0 0.0 0.0
0.0 0.0 0.0
0.0 0.0 0.0
0.0 0.0 0.0
0.0 0.0 0.0
0.0 0.0 0.0
0.0 0.0 0.0
0.0 0.0 0.0
0.0 0.0 0.0
0.0 0.0 0.0
0.0 0.0 0.0
0.0 0.0 0.0
0.0 0.0 0.0
0.0 0.0 0.0
0.0 0.0 0.0
0.0 0.0 0.0
0.0 0.0 0.0
0.0 0.0 0.0
0.0 0.0 0.0
0.0 0.0 0.0
0.0 0.0 0.0
0.0 0.0 0.0
0.0 0.0 0.0
0.0 0.0 0.0
0.0 0.0 0.0
0.0 0.0 0.0
0.0 0.0 0.0
0.0 0.0 0.0
0.0 0.0 0.0
0.0 0.0 0.0
0.0 0.0 0.0
0.0 0.0 0.0
0.0 0.0 0.0
0.0 0.0 0.0
0.0 0.0 0.0
0.0 0.0 0.0
0.0 0.0 0.0
0.0 0.0 0.0
0.0 0.0 0.0
0.0 0.0 0.0
0.0 0.0 0.0
0.0 0.0 0.0
0.0 0.0 0.0
0.0 0.0 0.0
0.0 0.0 0.0
0.0 0.0 0.0
0.0 0.0 0.0
0.0 0.0 0.0
0.0 0.0 0.0
0.0 0.0 0.0
0.0 0.0 0.0
0.0 0.0 0.0
0.0 0.0 0.0
0.0 0.0 0.0
0.0 0.0 0.0
0.0 0.0 0.0
0.0 0.0 0.0
0.0 0.0 0.0
0.0 0.0 0.0
0.0 0.0 0.0
0.0 0.0 0.0
0.0 0.0 0.0
0.0 0.0 0.0
0.0 0.0 0.0
0.0 0.0 0.0
0.0 0.0 0.0
0.0 0.0 0.0
0.0 0.0 0.0
0.0 0.0 0.0
0.0 0.0 0.0
0.0 0.0 0.0
0.0 0.0 0.0
0.0 0.0 0.0
0.0 0.0 0.0
0.0 0.0 0.0
0.0 0.0 0.0
0.0 0.0 0.0
0.0 0.0 0.0
0.0 0.0 0.0
0.0 0.0 0.0
0.0 0.0 0.0
0.0 0.0 0.0
0.0 0.0 0.0
0.0 0.0 0.0
0.0 0.0 0.0
0.0 0.0 0.0
0.0 0.0 0.0
0.0 0.0 0.0
0.0 0.0 0.0
0.0 0.0 0.0
0.0 0.0 0.0
0.0 0.0 0.0
0.0 0.0 0.0
0.0 0.0 0.0
0.0 0.0 0.0
0.0 0.0 0.0
0.0 0.0 0.0
0.0 0.0 0.0
0.0 0.0 0.0
0.0 0.0 0.0
0.0 0.0 0.0
0.0 0.0 0.0
0.0 0.0 0.0
0.0 0.0 0.0
0.0 0.0 0.0
0.0 0.0 0.0
0.0 0.0 0.0
0.0 0.0 0.0
0.0 0.0 0.0
0.0 0.0 0.0
0.0 0.0 0.0
0.0 0.0 0.0
0.0 0.0 0.0
0.0 0.0 0.0
0.0 0.0 0.0
0.0 0.0 0.0
0.0 0.0 0.0
VECTORS f float
0.0 0.0 0.0
0.0 0.0 -0.00160516
0.0 0.0 -0.000346714
0.0 0.0 0.0
0.0 0.0 -0.000346714
0.0 0.0 -0.000346714
0.0 0.0 -0.000346714
0.0 0.0 -0.00160516
0.0 0.0 0.0
0.0 0.0 -0.00160516
0.0 0.0 -0.000346714
0.0 0.0 -0.000346714
0.0 0.0 -0.000346714
0.0 0.0 -0.00160516
0.0 0.0 -0.00160516
0.0 0.0 -0.00160516
0.0 0.0 -0.000346714
0.0 0.0 -0.00160516
0.0 0.0 -0.000346714
0.0 0.0 -0.000346714
0.0 0.0 -0.000346714
0.0 0.0 -0.000346714
0.0 0.0 -0.00160516
0.0 0.0 -0.000346714
0.0 0.0 -0.00160516
0.0 0.0 -0.000346714
0.0 0.0 -0.000346714
0.0 0.0 -0.000346714
0.0 0.0 -0.000346714
0.0 0.0 -0.000346714
0.0 0.0 -0.000346714
0.0 0.0 -0.00160516
0.0 0.0 -0.00160516
0.0 0.0 -0.00160516
0.0 0.0 -0.00160516
0.0 0.0 -0.000346714
0.0 0.0 -0.00160516
0.0 0.0 -0.000346714
0.0 0.0 -0.00160516
0.0 0.0 -0.000346714
0.0 0.0 -0.000346714
0.0 0.0 -0.00160516
0.0 0.0 -0.00160516
0.0 0.0 -0.000346714
0.0 0.0 -0.000346714
0.0 0.0 -0.000346714
0.0 0.0 -0.00160516
0.0 0.0 -0.000346714
0.0 0.0 -0.000346714
0.0 0.0 -0.000346714
0.0 0.0 -0.000346714
0.0 0.0 -0.000346714
0.0 0.0 -0.00160516
0.0 0.0 -0.000346714
0.0 0.0 -0.000346714
0.0 0.0 -0.000346714
0.0 0.0 -0.00160516
0.0 0.0 -0.000346714
0.0 0.0 -0.000346714
0.0 0.0 -0.00160516
0.0 0.0 -0.00160516
0.0 0.0 -0.000346714
0.0 0.0 -0.000346714
0.0 0.0 -0.000346714
0.0 0.0 -0.000346714
0.0 0.0 -0.00160516
0.0 0.0 -0.00160516
0.0 0.0 -0.000346714
0.0 0.0 -0.000346714
0.0 0.0 -0.000346714
0.0 0.0 -0.000346714
0.0 0.0 -0.000346714
0.0 0.0 -0.000346714
0.0 0.0 -0.000346714
0.0 0.0 -0.00160516
0.0 0.0 -0.000346714
0.0 0.0 -0.000346714
0.0 0.0 -0.000346714
0.0 0.0 -0.000346714
0.0 0.0 -0.000346714
0.0 0.0 -0.000346714
0.0 0.0 -0.00160516
0.0 0.0 -0.00160516
0.0 0.0 -0.000346714
0.0 0.0 -0.000346714
0.0 0.0 -0.000346714
0.0 0.0 -0.00160516
0.0 0.0 -0.000346714
0.0 0.0 -0.00160516
0.0 0.0 -0.000346714
0.0 0.0 -0.000346714
0.0 0.0 -0.000346714
0.0 0.0 -0.000346714
0.0 0.0 -0.00160516
0.0 0.0 -0.00160516
0.0 0.0 -0.000346714
0.0 0.0 -0.000346714
0.0 0.0 -0.000346714
0.0 0.0 -0.000346714
0.0 0.0 -0.000346714
0.0 0.0 -0.00160516
0.0 0.0 -0.000346714
0.0 0.0 -0.000346714
0.0 0.0 -0.000346714
0.0 0.0 -0.00160516
0.0 0.0 -0.000346714
0.0 0.0 -0.00160516
0.0 0.0 -0.00160516
0.0 0.0 -0.000346714
0.0 0.0 -0.00160516
0.0 0.0 -0.000346714
0.0 0.0 -0.000346714
0.0 0.0 -0.000346714
0.0 0.0 -0.000346714
0.0 0.0 -0.00160516
0.0 0.0 -0.000346714
0.0 0.0 -0.000346714
0.0 0.0 -0.000346714
0.0 0.0 -0.000346714
0.0 0.0 -0.00160516
0.0 0.0 -0.000346714
0.0 0.0 -0.000346714
0.0 0.0 -0.00160516
0.0 0.0 -0.000346714
0.0 0.0 -0.000346714
0.0 0.0 -0.00160516
0.0 0.0 -0.000346714
0.0 0.0 -0.00160516
0.0 0.0 -0.000346714
0.0 0.0 -0.00160516
0.0 0.0 -0.000346714
0.0 0.0 -0.000346714
0.0 0.0 -0.00160516
0.0 0.0 -0.00160516
0.0 0.0 -0.000346714
0.0 0.0 -0.00160516
0.0 0.0 -0.000346714
0.0 0.0 -0.000346714
0.0 0.0 -0.00160516
0.0 0.0 -0.000346714
0.0 0.0 -0.000346714
0.0 0.0 -0.000346714
0.0 0.0 -0.00160516
0.0 0.0 -0.00160516
0.0 0.0 -0.00160516
0.0 0.0 -0.000346714
0.0 0.0 -0.000346714
0.0 0.0 -0.000346714
0.0 0.0 -0.000346714
0.0 0.0 -0.000346714
0.0 0.0 -0.000346714
0.0 0.0 -0.000346714
0.0 0.0 -0.000346714
0.0 0.0 -0.00160516
0.0 0.0 -0.000346714
0.0 0.0 -0.000346714
0.0 0.0 -0.000346714
0.0 0.0 -0.000346714
0.0 0.0 -0.000346714
0.0 0.0 -0.000346714
0.0 0.0 -0.000346714
0.0 0.0 -0.00160516
0.0 0.0 -0.000346714
0.0 0.0 -0.000346714
0.0 0.0 -0.00160516
0.0 0.0 -0.000346714
0.0 0.0 -0.00160516
0.0 0.0 -0.000346714
0.0 0.0 -0.00160516
0.0 0.0 -0.00160516
0.0 0.0 -0.00160516
0.0 0.0 -0.00160516
0.0 0.0 -0.000346714
0.0 0.0 -0.00160516
0.0 0.0 -0.000346714
0.0 0.0 -0.000346714
0.0 0.0 -0.000346714
0.0 0.0 -0.00160516
0.0 0.0 -0.000346714
0.0 0.0 -0.00160516
0.0 0.0 -0.000346714
0.0 0.0 -0.000346714
0.0 0.0 -0.00160516
1.05827e-05 -9.74349e-06 -0.000362382
0.0 0.0 -0.00160516
0.0 0.0 -0.00160516
-8.8188e-05 -1.32735e-05 -3.83082e-05
-0.00245377 -0.000382117 0.00333373
-8.96279e-05 3.9055e-05 -6.66766e-05
0.000323605 0.000108306 0.00348895
0.0 0.0 -0.000346714
-7.90328e-05 6.55995e-06 -6.16152e-05
-9.21917e-05 7.73334e-06 -2.65193e-05
-8.68646e-05 -1.30251e-05 -4.28169e-05
-0.00010437 -1.5446e-05 4.13003e-06
-8.54427e-05 -3.9909e-05 -4.32686e-05
-0.000767737 0.000908946 0.00312644
0.0 0.0 -0.000346714
0.0 0.0 -0.000346714
-8.84833e-05 7.45326e-06 -3.77334e-05
-8.8466e-05 7.29269e-06 -3.80714e-05
-8.83171e-05 -1.31773e-05 -3.8025e-05
-0.000297276 -0.000150941 -0.000430132
-8.4116e-05 -3.92406e-05 -4.52938e-05
-0.000353921 -0.00030093 -0.000263766
0.0 0.0 -0.000346714
0.0 0.0 -0.000346714
-8.335e-05 2.17374e-05 -4.81757e-05
-8.86739e-05 7.16732e-06 -3.75313e-05
7.5398e-05 -0.000243318 2.01278e-06
-0.000537549 0.000148523 -0.000259294
-9.13895e-05 -1.37648e-05 -2.99221e-05
-9.0458e-05 -4.24504e-05 -3.11059e-05
-9.33871e-05 -4.37038e-05 -2.2773e-05
-7.00626e-05 -8.81948e-05 -7.35562e-05
-0.000404845 0.00010448 -0.000187272
0.0 0.0 -0.000346714
0.0 0.0 -0.000346714
-0.000379539 -5.53686e-05 -0.000303755
0.0 0.0 -0.00160516
-8.18731e-05 -3.72971e-05 -4.66791e-05
0.0 0.0 -0.000346714
-0.000108543 0.000135791 -0.000867124
-8.76069e-05 2.26659e-05 -3.92311e-05
-9.53824e-05 2.47018e-05 -2.71208e-05
-0.000456319 0.000114259 -0.000108708
-8.82542e-05 7.00484e-06 -3.73508e-05
0.0 0.0 -0.00160516
-0.000425999 3.27074e-05 -0.000167381
0.0 0.0 -0.00160516
-8.71697e-05 -3.66175e-05 -4.37864e-05
0.0 0.0 -0.000346714
0.0 0.0 -0.00160516
-0.000368798 -0.000479499 0.000502427
-8.86508e-05 2.27762e-05 -3.37561e-05
1.74634e-05 -5.10387e-05 0.000102755
0.0 0.0 -0.000346714
-4.16574e-05 -0.000132574 2.8931e-05
-7.92864e-05 -1.00683e-05 -5.63999e-05
-9.38439e-05 -1.14725e-05 -2.98083e-05
0.0 0.0 -0.00160516
-0.000374887 -0.000150711 -0.000210735
0.0 0.0 -0.00160516
-0.000180189 5.00672e-05 -0.000604949
-6.18621e-05 1.64388e-05 -9.12021e-05
-0.000416968 4.34121e-05 -0.000167813
-3.48573e-05 8.83427e-06 -6.20839e-05
0.0 0.0 -0.000346714
-0.000614959 -8.20428e-05 0.000576066
-8.96418e-05 -9.8513e-06 -3.74637e-05
0.0 0.0 -0.00160516
1.95079e-05 -3.59371e-06 -0.000525188
0.0 0.0 -0.000346714
0.0 0.0 -0.000346714
6.19885e-05 -3.34044e-05 -0.00142287
-8.4897e-05 -8.92038e-06 -4.49777e-05
4.35644e-05 -1.46956e-05 0.000314071
-9.07717e-05 -9.01822e-06 -2.70855e-05
7.60979e-05 0.000118633 -0.000722552
-4.23533e-05 -6.42682e-06 -0.00122245
0.0 0.0 -0.000346714
0.0 0.0 -0.000346714
0.0 0.0 -0.000346714
0.0 0.0 -0.00160516
-1.06595e-05 -4.53985e-05 1.17384e-05
0.0 0.0 -0.000346714
-0.000404023 4.72715e-05 -0.000183501
-6.35087e-05 4.25129e-06 -5.80143e-05
-0.000128639 -1.91507e-05 5.77185e-05
0.0 0.0 -0.000346714
-0.000407614 -3.76689e-05 -0.000172707
0.0 0.0 -0.00160516
0.0 0.0 -0.00160516
-9.24803e-05 -3.20164e-05 -2.99177e-05
-9.12758e-05 -3.20981e-05 -3.34624e-05
-8.80532e-05 -5.83729e-05 -2.80047e-05
-8.5262e-05 -5.6678e-05 -3.87443e-05
-7.99255e-05 -8.18787e-05 -4.57568e-05
-0.000239648 4.89042e-05 0.000372669
0.0 0.0 -0.000346714
0.0 0.0 -0.00160516
-8.70966e-05 1.62716e-05 -3.77105e-05
5.13405e-06 -6.45204e-07 -0.00035114
-0.000212893 -9.00232e-06 -0.000796452
0.0 0.0 -0.00160516
-0.000405802 -0.000128799 -0.000191875
-4.86827e-05 0.000231433 -0.000236817
-8.61826e-05 -2.9633e-05 -3.91637e-05
0.0 0.0 -0.00160516
0.0 0.0 -0.00160516
0.000273724 0.000420949 0.00414326
0.0 0.0 -0.00160516
-0.00162824 0.000142224 0.00437174
-9.42542e-05 1.97581e-05 -3.28378e-05
-0.000405793 7.58151e-05 -0.000168491
-8.85443e-05 1.65277e-05 -3.47258e-05
3.17952e-05 -0.000316447 -0.000147814
-5.10564e-05 -0.000206602 -0.000193535
0.000663205 0.000798093 0.00141482
-8.94897e-05 -5.2228e-06 -3.85629e-05
2.39713e-05 0.000319988 -0.000146482
0.0 0.0 -0.000346714
-8.70908e-05 -5.05075e-06 -4.54613e-05
0.0 0.0 -0.000346714
0.0 0.0 -0.000346714
0.0 0.0 -0.000346714
-7.82324e-05 -5.15247e-05 -5.06761e-05
0.0 0.0 -0.000346714
-0.00012735 6.60684e-05 4.61835e-05
-0.000413081 0.000204788 -0.000139353
0.0 0.0 -0.00160516
-7.46231e-05 1.7295e-05 -4.32074e-05
0.0 0.0 -0.000346714
-8.69752e-05 1.91413e-05 -3.77101e-05
-0.000609308 -0.000297044 -0.000376406
0.0 0.0 -0.00160516
0.0 0.0 -0.000346714
-0.00170134 -0.000335758 0.00377229
-9.03791e-05 -2.84791e-05 -2.81823e-05
-8.33489e-05 -4.79896e-05 -4.91609e-05
0.0 0.0 -0.00160516
1.12099e-05 -2.39546e-05 -0.000360417
-0.000367933 0.000187435 -0.00029085
-8.75739e-05 2.134e-05 -4.27556e-05
0.0 0.0 -0.00160516
-9.68708e-05 2.11275e-05 -1.90589e-05
0.0 0.0 -0.000346714
-0.000409373 -1.11262e-05 -0.000193503
-8.66463e-05 -1.37387e-06 -3.90937e-05
0.0 0.0 -0.00160516
-0.000409736 -9.56814e-05 -0.000173341
-4.506e-05 -1.07715e-05 -0.000158021
0.0 0.0 -0.000346714
-8.17151e-05 7.20423e-05 -5.06804e-05
-7.60177e-05 6.98429e-05 -5.54812e-05
-7.59887e-05 6.98327e-05 -5.54851e-05
0.00108243 0.00142608 -0.00144276
-0.000508263 -0.00097248 -0.00157137
-8.66945e-05 2.19965e-05 -3.80527e-05
0.0 0.0 -0.000346714
-0.000413049 -6.48284e-06 -0.000148285
-8.87452e-05 -2.24776e-05 -3.98768e-05
-8.51337e-05 -2.10448e-05 -4.16929e-05
0.0 0.0 -0.00160516
0.0 0.0 -0.00160516
-6.62394e-05 9.08025e-05 -7.2356e-05
-6.31193e-05 8.72306e-05 -7.77861e-05
-1.55628e-06 5.61412e-05 -0.000276233
0.0 0.0 -0.000346714
-6.27651e-05 5.64829e-05 -9.13892e-05
-0.000153171 6.55449e-05 -6.86795e-05
0.0 0.0 -0.000346714
-8.96607e-05 3.15539e-06 -3.84966e-05
0.0 0.0 -0.000346714
-8.76747e-05 1.41345e-06 -3.67593e-05
-8.88688e-05 -1.95829e-05 -3.98726e-05
-8.54946e-05 -4.29042e-05 -4.56745e-05
0.0 0.0 -0.000346714
0.0 0.0 -0.000346714
0.0 0.0 -0.000346714
0.00023672 9.66896e-05 0.00243567
-0.000522497 4.85863e-05 -0.000394938
-8.07891e-05 -1.62673e-05 -5.67828e-05
1.94895e-05 -8.2514e-05 2.07206e-05
-8.7386e-05 -1.88256e-05 -3.81557e-05
-8.74934e-05 -4.44868e-05 -3.48992e-05
0.0 0.0 -0.000346714
-0.000393034 0.000216542 -0.000217161
0.0 0.0 -0.00160516
0.0 0.0 -0.00160516
0.0 0.0 -0.00160516
-0.000260584 1.70629e-05 0.000407263
-0.000407406 7.02384e-05 -8.89996e-05
-0.000411617 -8.24481e-05 -0.000178034
0.0 0.0 -0.000346714
-8.85836e-05 -1.7745e-05 -3.91678e-05
-8.89796e-05 -1.78296e-05 -3.82104e-05
-8.40063e-05 -1.69008e-05 -4.72478e-05