# vtk DataFile Version 2.0
Generated by lpp.py
ASCII
DATASET POLYDATA
POINTS 641 float
-0.465467 -0.00462728 -0.382145
-0.487598 0.0423932 -0.345068
-0.459788 -0.00324231 -0.340931
-0.435989 -0.010349 -0.320516
-0.419899 -0.00623199 -0.313783
-0.433199 0.0294622 -0.31233
-0.42556 -0.00171798 -0.309399
-0.409538 0.00993448 -0.299612
-0.399771 -0.00678979 -0.28891
-0.395806 0.0280593 -0.284186
-0.402844 0.0311046 -0.286538
-0.434625 -0.0567875 -0.282501
-0.387768 0.0164409 -0.28237
-0.384891 0.0256435 -0.276197
-0.379615 -0.00697516 -0.275665
-0.382314 0.028098 -0.273257
-0.370212 0.000465772 -0.269462
-0.37071 0.00588684 -0.269544
-0.374917 0.0168976 -0.271419
-0.387872 0.0374294 -0.271235
-0.375101 -0.0212434 -0.266112
-0.367342 -0.00073635 -0.266717
-0.369316 0.0124706 -0.267637
-0.37824 0.0257704 -0.268646
-0.360591 0.00707489 -0.263931
-0.366226 0.0126781 -0.26441
-0.361579 0.0109035 -0.261951
-0.370786 0.0280513 -0.264249
-0.362587 -0.0214114 -0.259177
-0.36148 -0.0125301 -0.261195
-0.359094 -0.0105074 -0.260047
-0.35858 0.0134686 -0.260588
-0.376074 0.0430233 -0.260311
-0.361522 -0.0291823 -0.256601
-0.349173 -0.00197294 -0.254455
-0.371652 0.0448048 -0.256672
-0.339255 -0.00689435 -0.249613
-0.337017 -0.0021988 -0.248827
-0.337863 0.00611683 -0.249017
-0.336139 -0.0115027 -0.246418
-0.32844 -0.00486096 -0.244351
-0.331652 0.00437733 -0.244918
-0.333098 0.00794513 -0.246489
-0.328194 0.00741702 -0.244195
-0.330293 0.0100268 -0.244999
-0.336783 0.0262725 -0.243906
-0.326646 -0.0145159 -0.241585
-0.325996 0.0215673 -0.241123
-0.333796 0.0293449 -0.241267
-0.322013 -0.0153403 -0.239551
-0.316259 -0.0104459 -0.238818
-0.316796 0.00400008 -0.239473
-0.315173 0.00640838 -0.238458
-0.340346 0.0455183 -0.237995
-0.304276 -0.0101504 -0.233902
-0.311035 -0.00660589 -0.236007
-0.320767 0.0295169 -0.235699
-0.336858 -0.0529892 -0.231407
-0.300905 -0.0112756 -0.231272
-0.299424 0.0134944 -0.230469
-0.314495 0.0398575 -0.230647
-0.308108 -0.0387221 -0.228232
-0.289892 -0.0234338 -0.225835
-0.291552 0.00604298 -0.228704
-0.288923 0.00357879 -0.226666
-0.288048 0.00763425 -0.227122
-0.290862 0.0253938 -0.225751
-0.318654 -0.010252 -0.225144
-0.285131 0.0105989 -0.225699
-0.28176 -0.0302762 -0.220708
-0.281289 -0.0243375 -0.220981
-0.273716 0.00267219 -0.220338
-0.275585 0.00705991 -0.221955
-0.277908 0.0166068 -0.221921
-0.270501 0.0143451 -0.219215
-0.27849 0.0204047 -0.221494
-0.299102 -0.0543679 -0.216725
-0.276992 -0.029041 -0.218676
-0.272431 -0.0295203 -0.216526
-0.267747 -0.0174914 -0.217722
-0.270857 -0.000519479 -0.218634
-0.262085 -0.00304774 -0.215461
-0.261842 0.00475194 -0.216292
-0.266526 0.00735028 -0.218137
-0.265091 0.0111396 -0.21735
-0.268121 0.0157007 -0.217996
-0.268262 0.0268864 -0.215983
-0.269477 0.0309755 -0.215329
-0.27625 0.0371287 -0.216322
-0.287221 0.0423148 -0.218488
-0.266844 -0.0301978 -0.214513
-0.267956 -0.0258982 -0.215035
-0.257383 -0.0209927 -0.212656
-0.251705 -0.00491082 -0.212095
-0.255196 -0.00172458 -0.2137
-0.254618 0.0027907 -0.212248
-0.257668 0.0182265 -0.212123
-0.266852 0.0232296 -0.215135
-0.264204 0.0325036 -0.212776
-0.25045 -0.0272704 -0.208528
-0.248959 -0.0046794 -0.210816
-0.244839 -0.000939655 -0.208246
-0.254401 0.0211985 -0.211386
-0.247311 0.0187093 -0.208806
-0.246582 -0.0275444 -0.205717
-0.242165 -0.0209255 -0.205251
-0.238173 -0.00929384 -0.206029
-0.235171 -0.00874543 -0.204769
-0.234653 -0.00130963 -0.20502
-0.244041 0.00402036 -0.207726
-0.238397 0.00413087 -0.206406
-0.243126 0.0118336 -0.206948
-0.245716 -0.036484 -0.20395
-0.233442 -0.0129588 -0.202641
-0.231707 -0.00754051 -0.203451
-0.230434 -0.00324552 -0.201557
-0.235168 0.00292927 -0.204017
-0.230837 0.0101467 -0.203051
-0.231802 0.015067 -0.202797
-0.242988 0.0323178 -0.20302
-0.247654 -0.0487052 -0.199942
-0.236564 -0.0334037 -0.200157
-0.233242 -0.030887 -0.199995
-0.232636 -0.0273136 -0.200116
-0.223522 -0.0249687 -0.197729
-0.220952 -0.0050342 -0.198058
-0.218805 -0.00135072 -0.198272
-0.224582 0.00175568 -0.200628
-0.227441 0.00941288 -0.200579
-0.223016 0.0108307 -0.198552
-0.280031 -0.0716064 -0.195744
-0.221058 -0.0143943 -0.197249
-0.21604 -0.00608278 -0.195927
-0.214345 -0.00189764 -0.196367
-0.215717 0.00491475 -0.196875
-0.213479 0.00410824 -0.194881
-0.220489 0.020818 -0.196214
-0.217124 0.0239896 -0.194022
-0.228433 0.0326538 -0.196941
-0.226888 0.0388264 -0.195625
-0.230931 0.0425373 -0.195354
-0.217143 -0.0303594 -0.192813
-0.209294 -0.0140258 -0.193259
-0.208288 -0.0100585 -0.193385
-0.206674 -0.00826754 -0.190887
-0.207665 -0.00698628 -0.193443
-0.20975 -0.00304041 -0.193324
-0.2045 0.00119475 -0.191104
-0.214442 0.012138 -0.194132
-0.206302 0.0136722 -0.192233
-0.207947 0.0212715 -0.192084
-0.20784 0.0250859 -0.191223
-0.209689 0.0286552 -0.19119
-0.21828 0.0329678 -0.192683
-0.224601 0.0407281 -0.194014
-0.230204 0.0527703 -0.191263
-0.203487 -0.0110279 -0.190205
-0.199896 -0.014172 -0.18838
-0.203575 -0.00612318 -0.1888
-0.197451 -0.00678777 -0.189175
-0.200417 0.000359658 -0.190104
-0.201472 0.00612739 -0.189814
-0.195001 0.00494696 -0.188186
-0.200411 0.0104437 -0.187532
-0.209805 0.0172802 -0.19078
-0.198668 0.0218713 -0.187525
-0.208549 -0.0505114 -0.183964
-0.202443 -0.0352935 -0.186636
-0.198611 -0.030452 -0.186208
-0.194189 -0.0198447 -0.18527
-0.193996 -0.0140958 -0.186786
-0.186516 -0.0165149 -0.183579
-0.184852 -0.00717775 -0.183782
-0.190172 -0.00119816 -0.185059
-0.199796 0.00317633 -0.185923
-0.187885 0.0044045 -0.184142
-0.19047 0.00713948 -0.186177
-0.187874 -0.0360274 -0.180512
-0.196763 -0.0340586 -0.183513
-0.188864 -0.0294095 -0.181318
-0.185662 -0.0253168 -0.182026
-0.184211 -0.00249433 -0.182492
-0.178616 0.00313706 -0.180238
-0.183295 0.00810669 -0.183047
-0.177657 0.0080319 -0.180308
-0.179365 0.0107034 -0.181157
-0.181948 0.0182598 -0.181571
-0.184553 0.0212724 -0.182258
-0.186036 0.027244 -0.181674
-0.192436 0.041867 -0.180472
-0.176346 -0.0169789 -0.178267
-0.173164 -0.0114261 -0.178629
-0.177875 -0.0100703 -0.179668
-0.17729 -0.00491848 -0.17953
-0.173619 0.000737231 -0.178101
-0.167953 0.000351978 -0.176832
-0.17049 0.00980444 -0.177471
-0.175988 0.0203507 -0.17884
-0.185633 0.0400194 -0.178287
-0.169111 -0.0217924 -0.175622
-0.165097 -0.0242044 -0.173616
-0.166818 -0.018717 -0.174126
-0.165923 -0.0136958 -0.174136
-0.165952 -0.00827727 -0.174719
-0.16119 -0.00993434 -0.173689
-0.164911 -0.00403104 -0.175521
-0.165337 0.00568835 -0.175679
-0.162023 0.00798112 -0.174123
-0.169113 0.0132775 -0.175538
-0.165857 0.0112967 -0.174585
-0.160649 0.0139213 -0.173047
-0.170974 0.0231302 -0.176193
-0.243348 -0.0825313 -0.172681
-0.164072 -0.0334825 -0.1702
-0.161959 -0.0212884 -0.171726
-0.157937 -0.0174659 -0.171595
-0.155736 -0.00956311 -0.171416
-0.157482 -0.00413156 -0.172394
-0.153926 -0.00579529 -0.170857
-0.151461 -0.00398981 -0.169626
-0.154673 -0.00151919 -0.170128
-0.153431 0.00578363 -0.170623
-0.152222 0.00898798 -0.169711
-0.155448 0.012968 -0.170748
-0.154519 0.0181022 -0.170058
-0.215301 -0.0766259 -0.168916
-0.152223 -0.00902642 -0.168849
-0.165263 -0.00380988 -0.167088
-0.143448 -0.00566826 -0.166449
-0.147447 -0.00110763 -0.168139
-0.149585 0.00567656 -0.168974
-0.144289 0.0107912 -0.166552
-0.153713 0.0315216 -0.167232
-0.157412 0.0337598 -0.167022
-0.159414 0.0375669 -0.168318
-0.137838 -0.0114498 -0.163704
-0.139963 -0.00876088 -0.164848
-0.135831 -0.00840281 -0.16312
-0.140982 -0.00504089 -0.162496
-0.141797 -0.000363505 -0.165801
-0.1518 0.00475506 -0.165646
-0.140213 0.00956739 -0.163164
-0.149916 0.0132101 -0.165098
-0.141358 0.0132625 -0.164231
-0.143029 0.0169075 -0.164257
-0.136614 -0.0300594 -0.160676
-0.128733 -0.0188507 -0.159113
-0.129903 -0.0149676 -0.159048
-0.140908 -0.0136993 -0.161284
-0.131624 -0.00862571 -0.160256
-0.144381 -0.0072228 -0.159769
-0.137236 -0.0048954 -0.159365
-0.129015 -0.00528775 -0.160131
-0.132304 -0.00203558 -0.159543
-0.132812 0.00300423 -0.160809
-0.139305 0.00555667 -0.160161
-0.132561 0.00749648 -0.160477
-0.131567 0.0130588 -0.160811
-0.126618 0.0138493 -0.158785
-0.13575 0.0141436 -0.161549
-0.129479 0.0160589 -0.159812
-0.168277 0.0267653 -0.161767
-0.139508 0.0363531 -0.160378
-0.141815 0.0387812 -0.160852
-0.125975 -0.031241 -0.155983
-0.123128 -0.0200631 -0.156658
-0.119065 -0.0162185 -0.155473
-0.139737 -0.00937562 -0.156913
-0.120106 -0.010037 -0.155255
-0.12248 -0.00554287 -0.157489
-0.12723 -0.00229425 -0.157549
-0.122839 -0.000811467 -0.157742
-0.122627 0.00436319 -0.156614
-0.117591 0.0102466 -0.155245
-0.125854 0.0185133 -0.156903
-0.121874 0.0199539 -0.155909
-0.121817 -0.0268943 -0.15403
-0.116649 -0.0246137 -0.153303
-0.119945 -0.0210939 -0.154081
-0.115383 -0.0203751 -0.152375
-0.125517 -0.00405695 -0.152226
-0.120539 -0.00387496 -0.154977
-0.117261 -0.00387451 -0.15483
-0.118178 0.00280019 -0.154764
-0.112681 0.00543887 -0.153173
-0.117397 0.0145525 -0.154854
-0.114436 0.0162132 -0.152397
-0.112813 -0.035113 -0.14968
-0.107419 -0.0247767 -0.149417
-0.113212 -0.0119494 -0.150718
-0.126285 -0.00448587 -0.148207
-0.114036 -0.00582809 -0.152314
-0.101507 -0.00361069 -0.148571
-0.146279 -0.00237347 -0.149988
-0.107491 0.000760509 -0.150241
-0.109771 0.0130381 -0.151738
-0.107919 0.0190167 -0.150454
-0.114761 0.0233233 -0.151562
-0.111794 -0.0460909 -0.146218
-0.113047 -0.0334896 -0.146032
-0.0987917 -0.0212613 -0.145189
-0.0994228 -0.0158511 -0.147254
-0.10304 -0.00736284 -0.148222
-0.0963958 -0.01002 -0.145251
-0.110705 -0.00518866 -0.148987
-0.092919 -0.000208551 -0.145177
-0.100927 0.0031899 -0.145969
-0.0975717 0.00408698 -0.146072
-0.106909 0.00910114 -0.149225
-0.100665 0.0135648 -0.14709
-0.104874 0.0321348 -0.145969
-0.106937 0.037476 -0.145172
-0.194425 -0.0951759 -0.142806
-0.10902 -0.0481382 -0.144449
-0.103188 -0.0418825 -0.143864
-0.113175 -0.0279561 -0.144244
-0.0961558 -0.0153015 -0.144622
-0.088979 -0.0150502 -0.142761
-0.153832 -0.0114555 -0.14417
-0.0906327 -0.0114885 -0.142427
-0.0882441 -0.00856745 -0.142923
-0.091074 -0.00377869 -0.143368
[...]
POINT_DATA 641
VECTORS i float
0.0 0.0 0.0
0.0 0.0 0.0
0.0 0.0 0.0
0.0 0.0 0.0
0.0 0.0 0.0
0.0 0.0 0.0
0.0 0.0 0.0
0.0 0.0 0.0
0.0 0.0 0.0
0.0 0.0 0.0
0.0 0.0 0.0
0.0 0.0 0.0
0.0 0.0 0.0
0.0 0.0 0.0
0.0 0.0 0.0
0.0 0.0 0.0
0.0 0.0 0.0
0.0 0.0 0.0
0.0 0.0 0.0
0.0 0.0 0.0
0.0 0.0 0.0
0.0 0.0 0.0
0.0 0.0 0.0
0.0 0.0 0.0
0.0 0.0 0.0
0.0 0.0 0.0
0.0 0.0 0.0
0.0 0.0 0.0
0.0 0.0 0.0
0.0 0.0 0.0
0.0 0.0 0.0
0.0 0.0 0.0
0.0 0.0 0.0
0.0 0.0 0.0
0.0 0.0 0.0
0.0 0.0 0.0
0.0 0.0 0.0
0.0 0.0 0.0
0.0 0.0 0.0
0.0 0.0 0.0
0.0 0.0 0.0
0.0 0.0 0.0
0.0 0.0 0.0
0.0 0.0 0.0
0.0 0.0 0.0
0.0 0.0 0.0
0.0 0.0 0.0
0.0 0.0 0.0
0.0 0.0 0.0
0.0 0.0 0.0
0.0 0.0 0.0
0.0 0.0 0.0
0.0 0.0 0.0
0.0 0.0 0.0
0.0 0.0 0.0
0.0 0.0 0.0
0.0 0.0 0.0
0.0 0.0 0.0
0.0 0.0 0.0
0.0 0.0 0.0
0.0 0.0 0.0
0.0 0.0 0.0
0.0 0.0 0.0
0.0 0.0 0.0
0.0 0.0 0.0
0.0 0.0 0.0
0.0 0.0 0.0
0.0 0.0 0.0
0.0 0.0 0.0
0.0 0.0 0.0
0.0 0.0 0.0
0.0 0.0 0.0
0.0 0.0 0.0
0.0 0.0 0.0
0.0 0.0 0.0
0.0 0.0 0.0
0.0 0.0 0.0
0.0 0.0 0.0
0.0 0.0 0.0
0.0 0.0 0.0
0.0 0.0 0.0
0.0 0.0 0.0
0.0 0.0 0.0
0.0 0.0 0.0
0.0 0.0 0.0
0.0 0.0 0.0
0.0 0.0 0.0
0.0 0.0 0.0
0.0 0.0 0.0
0.0 0.0 0.0
0.0 0.0 0.0
0.0 0.0 0.0
0.0 0.0 0.0
0.0 0.0 0.0
0.0 0.0 0.0
0.0 0.0 0.0
0.0 0.0 0.0
0.0 0.0 0.0
0.0 0.0 0.0
0.0 0.0 0.0
0.0 0.0 0.0
0.0 0.0 0.0
0.0 0.0 0.0
0.0 0.0 0.0
0.0 0.0 0.0
0.0 0.0 0.0
0.0 0.0 0.0
0.0 0.0 0.0
0.0 0.0 0.0
0.0 0.0 0.0
0.0 0.0 0.0
0.0 0.0 0.0
0.0 0.0 0.0
0.0 0.0 0.0
0.0 0.0 0.0
0.0 0.0 0.0
0.0 0.0 0.0
0.0 0.0 0.0
0.0 0.0 0.0
0.0 0.0 0.0
0.0 0.0 0.0
0.0 0.0 0.0
0.0 0.0 0.0
0.0 0.0 0.0
0.0 0.0 0.0
0.0 0.0 0.0
0.0 0.0 0.0
0.0 0.0 0.0
0.0 0.0 0.0
0.0 0.0 0.0
0.0 0.0 0.0
0.0 0.0 0.0
0.0 0.0 0.0
0.0 0.0 0.0
0.0 0.0 0.0
0.0 0.0 0.0
0.0 0.0 0.0
0.0 0.0 0.0
0.0 0.0 0.0
0.0 0.0 0.0
0.0 0.0 0.0
0.0 0.0 0.0
0.0 0.0 0.0
0.0 0.0 0.0
0.0 0.0 0.0
0.0 0.0 0.0
0.0 0.0 0.0
0.0 0.0 0.0
0.0 0.0 0.0
0.0 0.0 0.0
0.0 0.0 0.0
0.0 0.0 0.0
0.0 0.0 0.0
0.0 0.0 0.0
0.0 0.0 0.0
0.0 0.0 0.0
0.0 0.0 0.0
0.0 0.0 0.0
0.0 0.0 0.0
0.0 0.0 0.0
0.0 0.0 0.0
0.0 0.0 0.0
0.0 0.0 0.0
0.0 0.0 0.0
0.0 0.0 0.0
0.0 0.0 0.0
0.0 0.0 0.0
0.0 0.0 0.0
0.0 0.0 0.0
0.0 0.0 0.0
0.0 0.0 0.0
0.0 0.0 0.0
0.0 0.0 0.0
0.0 0.0 0.0
0.0 0.0 0.0
0.0 0.0 0.0
0.0 0.0 0.0
0.0 0.0 0.0
0.0 0.0 0.0
0.0 0.0 0.0
0.0 0.0 0.0
0.0 0.0 0.0
0.0 0.0 0.0
0.0 0.0 0.0
0.0 0.0 0.0
0.0 0.0 0.0
0.0 0.0 0.0
0.0 0.0 0.0
0.0 0.0 0.0
0.0 0.0 0.0
0.0 0.0 0.0
0.0 0.0 0.0
0.0 0.0 0.0
0.0 0.0 0.0
0.0 0.0 0.0
0.0 0.0 0.0
0.0 0.0 0.0
0.0 0.0 0.0
0.0 0.0 0.0
0.0 0.0 0.0
0.0 0.0 0.0
0.0 0.0 0.0
0.0 0.0 0.0
0.0 0.0 0.0
0.0 0.0 0.0
0.0 0.0 0.0
0.0 0.0 0.0
0.0 0.0 0.0
0.0 0.0 0.0
0.0 0.0 0.0
0.0 0.0 0.0
0.0 0.0 0.0
0.0 0.0 0.0
0.0 0.0 0.0
0.0 0.0 0.0
0.0 0.0 0.0
0.0 0.0 0.0
0.0 0.0 0.0
0.0 0.0 0.0
0.0 0.0 0.0
0.0 0.0 0.0
0.0 0.0 0.0
0.0 0.0 0.0
0.0 0.0 0.0
0.0 0.0 0.0
0.0 0.0 0.0
0.0 0.0 0.0
0.0 0.0 0.0
0.0 0.0 0.0
0.0 0.0 0.0
0.0 0.0 0.0
0.0 0.0 0.0
0.0 0.0 0.0
0.0 0.0 0.0
0.0 0.0 0.0
0.0 0.0 0.0
0.0 0.0 0.0
0.0 0.0 0.0
0.0 0.0 0.0
0.0 0.0 0.0
0.0 0.0 0.0
0.0 0.0 0.0
0.0 0.0 0.0
0.0 0.0 0.0
0.0 0.0 0.0
0.0 0.0 0.0
0.0 0.0 0.0
0.0 0.0 0.0
0.0 0.0 0.0
0.0 0.0 0.0
0.0 0.0 0.0
0.0 0.0 0.0
0.0 0.0 0.0
0.0 0.0 0.0
0.0 0.0 0.0
0.0 0.0 0.0
0.0 0.0 0.0
0.0 0.0 0.0
0.0 0.0 0.0
0.0 0.0 0.0
0.0 0.0 0.0
0.0 0.0 0.0
0.0 0.0 0.0
0.0 0.0 0.0
0.0 0.0 0.0
0.0 0.0 0.0
0.0 0.0 0.0
0.0 0.0 0.0
0.0 0.0 0.0
0.0 0.0 0.0
0.0 0.0 0.0
0.0 0.0 0.0
0.0 0.0 0.0
0.0 0.0 0.0
0.0 0.0 0.0
0.0 0.0 0.0
0.0 0.0 0.0
0.0 0.0 0.0
0.0 0.0 0.0
0.0 0.0 0.0
0.0 0.0 0.0
0.0 0.0 0.0
0.0 0.0 0.0
0.0 0.0 0.0
0.0 0.0 0.0
0.0 0.0 0.0
0.0 0.0 0.0
0.0 0.0 0.0
0.0 0.0 0.0
0.0 0.0 0.0
0.0 0.0 0.0
0.0 0.0 0.0
0.0 0.0 0.0
0.0 0.0 0.0
0.0 0.0 0.0
0.0 0.0 0.0
0.0 0.0 0.0
0.0 0.0 0.0
0.0 0.0 0.0
0.0 0.0 0.0
0.0 0.0 0.0
0.0 0.0 0.0
0.0 0.0 0.0
0.0 0.0 0.0
0.0 0.0 0.0
0.0 0.0 0.0
0.0 0.0 0.0
0.0 0.0 0.0
0.0 0.0 0.0
0.0 0.0 0.0
0.0 0.0 0.0
0.0 0.0 0.0
0.0 0.0 0.0
0.0 0.0 0.0
0.0 0.0 0.0
0.0 0.0 0.0
0.0 0.0 0.0
0.0 0.0 0.0
0.0 0.0 0.0
0.0 0.0 0.0
0.0 0.0 0.0
0.0 0.0 0.0
0.0 0.0 0.0
0.0 0.0 0.0
0.0 0.0 0.0
0.0 0.0 0.0
0.0 0.0 0.0
0.0 0.0 0.0
0.0 0.0 0.0
0.0 0.0 0.0
0.0 0.0 0.0
0.0 0.0 0.0
0.0 0.0 0.0
0.0 0.0 0.0
0.0 0.0 0.0
0.0 0.0 0.0
0.0 0.0 0.0
0.0 0.0 0.0
0.0 0.0 0.0
0.0 0.0 0.0
0.0 0.0 0.0
0.0 0.0 0.0
0.0 0.0 0.0
0.0 0.0 0.0
0.0 0.0 0.0
0.0 0.0 0.0
0.0 0.0 0.0
0.0 0.0 0.0
0.0 0.0 0.0
0.0 0.0 0.0
0.0 0.0 0.0
0.0 0.0 0.0
0.0 0.0 0.0
0.0 0.0 0.0
0.0 0.0 0.0
0.0 0.0 0.0
0.0 0.0 0.0
0.0 0.0 0.0
0.0 0.0 0.0
0.0 0.0 0.0
0.0 0.0 0.0
0.0 0.0 0.0
0.0 0.0 0.0
0.0 0.0 0.0
0.0 0.0 0.0
0.0 0.0 0.0
0.0 0.0 0.0
0.0 0.0 0.0
0.0 0.0 0.0
0.0 0.0 0.0
0.0 0.0 0.0
0.0 0.0 0.0
0.0 0.0 0.0
0.0 0.0 0.0
0.0 0.0 0.0
0.0 0.0 0.0
0.0 0.0 0.0
0.0 0.0 0.0
0.0 0.0 0.0
0.0 0.0 0.0
0.0 0.0 0.0
0.0 0.0 0.0
0.0 0.0 0.0
0.0 0.0 0.0
0.0 0.0 0.0
0.0 0.0 0.0
0.0 0.0 0.0
0.0 0.0 0.0
0.0 0.0 0.0
0.0 0.0 0.0
0.0 0.0 0.0
0.0 0.0 0.0
0.0 0.0 0.0
0.0 0.0 0.0
0.0 0.0 0.0
0.0 0.0 0.0
0.0 0.0 0.0
0.0 0.0 0.0
0.0 0.0 0.0
0.0 0.0 0.0
0.0 0.0 0.0
0.0 0.0 0.0
0.0 0.0 0.0
0.0 0.0 0.0
0.0 0.0 0.0
0.0 0.0 0.0
0.0 0.0 0.0
0.0 0.0 0.0
0.0 0.0 0.0
0.0 0.0 0.0
0.0 0.0 0.0
0.0 0.0 0.0
0.0 0.0 0.0
0.0 0.0 0.0
0.0 0.0 0.0
0.0 0.0 0.0
0.0 0.0 0.0
0.0 0.0 0.0
0.0 0.0 0.0
0.0 0.0 0.0
0.0 0.0 0.0
0.0 0.0 0.0
0.0 0.0 0.0
0.0 0.0 0.0
0.0 0.0 0.0
0.0 0.0 0.0
0.0 0.0 0.0
0.0 0.0 0.0
0.0 0.0 0.0
0.0 0.0 0.0
0.0 0.0 0.0
0.0 0.0 0.0
0.0 0.0 0.0
0.0 0.0 0.0
0.0 0.0 0.0
0.0 0.0 0.0
0.0 0.0 0.0
0.0 0.0 0.0
0.0 0.0 0.0
0.0 0.0 0.0
0.0 0.0 0.0
0.0 0.0 0.0
0.0 0.0 0.0
0.0 0.0 0.0
0.0 0.0 0.0
0.0 0.0 0.0
0.0 0.0 0.0
0.0 0.0 0.0
0.0 0.0 0.0
0.0 0.0 0.0
0.0 0.0 0.0
0.0 0.0 0.0
0.0 0.0 0.0
0.0 0.0 0.0
0.0 0.0 0.0
0.0 0.0 0.0
0.0 0.0 0.0
0.0 0.0 0.0
0.0 0.0 0.0
0.0 0.0 0.0
0.0 0.0 0.0
0.0 0.0 0.0
0.0 0.0 0.0
0.0 0.0 0.0
0.0 0.0 0.0
0.0 0.0 0.0
0.0 0.0 0.0
0.0 0.0 0.0
0.0 0.0 0.0
0.0 0.0 0.0
0.0 0.0 0.0
0.0 0.0 0.0
0.0 0.0 0.0
0.0 0.0 0.0
0.0 0.0 0.0
0.0 0.0 0.0
0.0 0.0 0.0
0.0 0.0 0.0
0.0 0.0 0.0
0.0 0.0 0.0
0.0 0.0 0.0
0.0 0.0 0.0
0.0 0.0 0.0
0.0 0.0 0.0
0.0 0.0 0.0
0.0 0.0 0.0
0.0 0.0 0.0
0.0 0.0 0.0
0.0 0.0 0.0
0.0 0.0 0.0
0.0 0.0 0.0
0.0 0.0 0.0
0.0 0.0 0.0
0.0 0.0 0.0
0.0 0.0 0.0
0.0 0.0 0.0
0.0 0.0 0.0
0.0 0.0 0.0
0.0 0.0 0.0
0.0 0.0 0.0
0.0 0.0 0.0
0.0 0.0 0.0
0.0 0.0 0.0
0.0 0.0 0.0
0.0 0.0 0.0
0.0 0.0 0.0
0.0 0.0 0.0
0.0 0.0 0.0
0.0 0.0 0.0
0.0 0.0 0.0
0.0 0.0 0.0
0.0 0.0 0.0
0.0 0.0 0.0
0.0 0.0 0.0
0.0 0.0 0.0
0.0 0.0 0.0
0.0 0.0 0.0
0.0 0.0 0.0
0.0 0.0 0.0
0.0 0.0 0.0
0.0 0.0 0.0
0.0 0.0 0.0
0.0 0.0 0.0
0.0 0.0 0.0
0.0 0.0 0.0
0.0 0.0 0.0
0.0 0.0 0.0
0.0 0.0 0.0
0.0 0.0 0.0
0.0 0.0 0.0
0.0 0.0 0.0
0.0 0.0 0.0
0.0 0.0 0.0
0.0 0.0 0.0
0.0 0.0 0.0
0.0 0.0 0.0
0.0 0.0 0.0
0.0 0.0 0.0
0.0 0.0 0.0
0.0 0.0 0.0
0.0 0.0 0.0
0.0 0.0 0.0
0.0 0.0 0.0
0.0 0.0 0.0
0.0 0.0 0.0
0.0 0.0 0.0
0.0 0.0 0.0
0.0 0.0 0.0
0.0 0.0 0.0
0.0 0.0 0.0
0.0 0.0 0.0
0.0 0.0 0.0
0.0 0.0 0.0
0.0 0.0 0.0
0.0 0.0 0.0
0.0 0.0 0.0
0.0 0.0 0.0
0.0 0.0 0.0
0.0 0.0 0.0
0.0 0.0 0.0
0.0 0.0 0.0
0.0 0.0 0.0
0.0 0.0 0.0
0.0 0.0 0.0
0.0 0.0 0.0
0.0 0.0 0.0
0.0 0.0 0.0
0.0 0.0 0.0
0.0 0.0 0.0
0.0 0.0 0.0
0.0 0.0 0.0
0.0 0.0 0.0
0.0 0.0 0.0
0.0 0.0 0.0
0.0 0.0 0.0
0.0 0.0 0.0
0.0 0.0 0.0
0.0 0.0 0.0
0.0 0.0 0.0
0.0 0.0 0.0
0.0 0.0 0.0
0.0 0.0 0.0
0.0 0.0 0.0
0.0 0.0 0.0
0.0 0.0 0.0
0.0 0.0 0.0
0.0 0.0 0.0
0.0 0.0 0.0
0.0 0.0 0.0
0.0 0.0 0.0
0.0 0.0 0.0
0.0 0.0 0.0
0.0 0.0 0.0
0.0 0.0 0.0
0.0 0.0 0.0
0.0 0.0 0.0
0.0 0.0 0.0
0.0 0.0 0.0
0.0 0.0 0.0
0.0 0.0 0.0
0.0 0.0 0.0
0.0 0.0 0.0
0.0 0.0 0.0
0.0 0.0 0.0
0.0 0.0 0.0
0.0 0.0 0.0
0.0 0.0 0.0
0.0 0.0 0.0
0.0 0.0 0.0
0.0 0.0 0.0
0.0 0.0 0.0
0.0 0.0 0.0
0.0 0.0 0.0
0.0 0.0 0.0
0.0 0.0 0.0
0.0 0.0 0.0
0.0 0.0 0.0
0.0 0.0 0.0
0.0 0.0 0.0
0.0 0.0 0.0
0.0 0.0 0.0
0.0 0.0 0.0
0.0 0.0 0.0
0.0 0.0 0.0
0.0 0.0 0.0
0.0 0.0 0.0
0.0 0.0 0.0
0.0 0.0 0.0
0.0 0.0 0.0
0.0 0.0 0.0
0.0 0.0 0.0
0.0 0.0 0.0
0.0 0.0 0.0
0.0 0.0 0.0
0.0 0.0 0.0
0.0 0.0 0.0
0.0 0.0 0.0
0.0 0.0 0.0
0.0 0.0 0.0
0.0 0.0 0.0
0.0 0.0 0.0
VECTORS f float
0.0 0.0 -0.000346714
0.0 0.0 -0.000346714
0.0 0.0 -0.000346714
0.0 0.0 -0.00160516
0.0 0.0 -0.000346714
0.0 0.0 -0.000346714
0.0 0.0 -0.000346714
0.0 0.0 -0.00160516
0.0 0.0 -0.00160516
0.0 0.0 -0.000346714
0.0 0.0 -0.000346714
0.0 0.0 -0.000346714
0.0 0.0 -0.000346714
0.0 0.0 -0.000346714
0.0 0.0 -0.000346714
0.0 0.0 -0.000346714
0.0 0.0 -0.000346714
0.0 0.0 -0.000346714
0.0 0.0 -0.000346714
0.0 0.0 -0.00160516
0.0 0.0 -0.00160516
0.0 0.0 -0.000346714
0.0 0.0 -0.000346714
0.0 0.0 -0.00160516
0.0 0.0 -0.000346714
0.0 0.0 -0.00160516
0.0 0.0 -0.000346714
0.0 0.0 -0.000346714
0.0 0.0 -0.00160516
0.0 0.0 -0.000346714
0.0 0.0 -0.000346714
0.0 0.0 -0.000346714
0.0 0.0 -0.000346714
0.0 0.0 -0.000346714
0.0 0.0 -0.00160516
0.0 0.0 -0.000346714
0.0 0.0 -0.000346714
0.0 0.0 -0.000346714
0.0 0.0 -0.000346714
0.0 0.0 -0.00160516
0.0 0.0 -0.000346714
0.0 0.0 -0.00160516
0.0 0.0 -0.000346714
0.0 0.0 -0.000346714
0.0 0.0 -0.000346714
0.0 0.0 -0.00160516
0.0 0.0 -0.00160516
0.0 0.0 -0.000346714
0.0 0.0 -0.00160516
0.0 0.0 -0.00160516
0.0 0.0 -0.000346714
-1.48454e-05 6.10438e-05 -0.000125637
0.0 0.0 -0.000346714
0.0 0.0 -0.000346714
-8.8125e-05 2.29518e-05 -3.82391e-05
-0.0147905 0.00108838 0.0411057
-0.000378403 -0.000322568 -0.000203853
0.0 0.0 -0.000346714
-0.000363118 9.41066e-05 -0.000287784
0.00328375 0.000419567 -0.00442628
-0.000626465 -0.000918241 0.00131316
0.0 0.0 -0.000346714
-7.54419e-05 3.38689e-05 -6.74333e-05
-8.87326e-05 -1.34683e-05 -3.77591e-05
-0.000382104 -5.90637e-05 -0.000221604
-7.235e-05 -1.13944e-05 -7.1903e-05
-8.23851e-05 -3.71431e-05 -4.7917e-05
0.0 0.0 -0.00160516
0.0 0.0 -0.000346714
0.0 0.0 -0.000346714
-0.000520899 0.000241227 0.000111163
-0.000191161 -2.27698e-05 0.00431069
-0.000121528 -1.69977e-05 4.76601e-05
0.0 0.0 -0.000346714
-7.01233e-05 -0.000174305 0.00073127
-8.47751e-05 -3.3676e-05 -4.00256e-05
0.0 0.0 -0.000346714
0.0 0.0 -0.000346714
0.0 0.0 -0.000346714
-1.05344e-05 1.51024e-06 -0.000231634
0.0 0.0 -0.000346714
-0.000316922 3.09435e-05 -0.000322486
-9.24108e-05 -1.0561e-05 -1.98687e-05
-8.32941e-05 -9.70861e-06 -5.05256e-05
-8.24868e-05 -9.6675e-06 -5.15239e-05
9.79258e-05 9.11751e-05 0.000156637
-4.35861e-06 -4.00639e-05 -0.000292057
-6.89306e-05 -4.79365e-05 -7.43109e-05
-8.00715e-05 -5.58348e-05 -4.75618e-05
0.0 0.0 -0.000346714
0.0 0.0 -0.000346714
0.0 0.0 -0.00160516
0.0 0.0 -0.000346714
-3.95348e-05 3.55785e-06 -0.0001527
-8.81498e-05 9.22662e-06 -3.7621e-05
-0.000833301 -0.000143956 0.000290067
-0.000410281 -0.000144345 -0.000204518
0.0 0.0 -0.00160516
-0.000287491 -0.000172674 0.000333155
0.0 0.0 -0.000346714
0.0 0.0 -0.000346714
-0.000401086 -3.41655e-05 -0.00020196
0.0 0.0 -0.000346714
-8.72987e-05 -2.78666e-05 -7.28791e-05
0.0 0.0 -0.00160516
0.0 0.0 -0.00160516
0.0 0.0 -0.000346714
-0.000116738 2.17191e-05 2.59451e-05
-8.95367e-05 -5.22576e-06 -3.84607e-05
-0.00071854 -5.10826e-05 0.000157678
6.83769e-05 3.71288e-06 -0.000404849
-0.000192637 -7.30669e-05 -0.000539684
0.0 0.0 -0.000346714
-0.000318032 6.19444e-05 -0.000323582
0.00200963 0.00971526 0.0412775
0.0 0.0 -0.00160516
-0.00041489 -3.29324e-05 -4.8674e-05
0.0 0.0 -0.000346714
0.0 0.0 -0.000346714
-0.00141994 -0.000912378 0.00195817
0.0 0.0 -0.000346714
0.0 0.0 -0.00160516
0.0 0.0 -0.000346714
0.0 0.0 -0.000346714
0.0 0.0 -0.000346714
-0.000402341 8.85436e-05 -0.000175239
-8.96259e-05 -2.43293e-06 -3.84119e-05
0.0 0.0 -0.000346714
-0.000141717 -9.03926e-06 -0.000792412
-0.000403652 -0.000115798 -0.00019802
0.0 0.0 -0.000346714
0.000111886 9.55701e-05 -4.183e-05
-0.000411848 9.06644e-05 -0.000153118
-9.07865e-05 -2.48141e-06 -3.51611e-05
-0.000646973 -0.000254395 0.000929901
0.0 0.0 -0.000346714
0.0 0.0 -0.00160516
0.0 0.0 -0.00160516
0.000315453 0.000351457 0.00145388
-7.63872e-05 -7.5209e-05 -3.1171e-05
0.0 0.0 -0.000346714
-0.000559876 0.000260371 9.18858e-05
0.0 0.0 -0.000346714
0.0 0.0 -0.000346714
0.0 0.0 -0.000346714
0.0 0.0 -0.000346714
-4.8538e-05 -6.40064e-06 -0.000947326
-0.000116976 -2.95677e-06 -0.000966053
0.0 0.0 -0.000346714
-3.27121e-05 -8.50239e-06 -0.000158163
-0.000128858 -3.74222e-05 6.29271e-05
0.0 0.0 -0.000346714
0.0 0.0 -0.000346714
-0.000508913 -0.000294348 7.40747e-05
-0.000288062 -0.000247889 0.000510054
-6.75396e-05 -9.20749e-05 -7.67258e-05
-0.000396259 0.000100573 -0.000187229
0.0 0.0 -0.00160516
0.0 0.0 -0.00160516
-0.000297838 5.02501e-06 0.000188156
0.0 0.0 -0.000346714
-1.65835e-06 0.000189448 -0.000244708
-8.77626e-05 1.41484e-06 -3.64827e-05
-9.24814e-05 0.00032238 -0.00143871
0.0 0.0 -0.000346714
0.0 0.0 -0.000346714
-0.000324015 0.000115392 -6.62429e-05
-8.25342e-05 4.73662e-05 -4.45977e-05
-8.2933e-05 4.76177e-05 -4.35029e-05
0.0 0.0 -0.00160516
0.0 0.0 -0.000346714
-8.7015e-05 2.50863e-05 -3.8493e-05
-8.85311e-05 3.12213e-06 -4.05668e-05
-0.000547524 7.30987e-06 8.77437e-05
0.0 0.0 -0.000346714
-0.000274726 2.83087e-06 -0.000413701
-8.94448e-05 -1.97253e-05 -3.81207e-05
-8.89638e-05 4.82804e-05 -2.63366e-05
-0.00044056 0.000251895 -7.96259e-05
-0.000292599 0.00016097 -0.000437553
-8.42943e-05 4.63941e-05 -4.85478e-05
-0.00053191 1.89341e-05 6.38773e-05
-0.000406752 1.82643e-05 -0.000175311
4.16198e-05 -3.57835e-05 0.000256027
0.0 0.0 -0.000346714
1.82372e-05 -5.59586e-05 -2.25521e-05
-8.6479e-05 -1.86268e-05 -4.02336e-05
-8.57934e-05 -4.1217e-05 -4.38475e-05
-8.56152e-05 -4.11601e-05 -4.40724e-05
-8.01804e-05 -6.53035e-05 -5.24803e-05
-0.00056635 0.0001658 0.000129262
-8.88067e-05 1.74191e-05 -4.04326e-05
-0.00039908 8.04614e-05 -0.000165078
-0.000281148 8.91019e-06 -1.42298e-05
-0.000677607 3.04705e-05 0.000562853
-1.41563e-05 3.34674e-07 -0.000272228
-8.33102e-05 -1.63606e-05 -4.77131e-05
-0.000118431 1.32481e-05 -0.000111269
5.88487e-05 4.79457e-05 -0.000456254
0.00224456 0.00237921 0.0018057
-8.09379e-05 3.34567e-05 -4.52276e-05
-0.000780138 0.00392886 0.00489537
0.0 0.0 -0.00160516
0.0 0.0 -0.00160516
-7.99906e-05 1.46751e-05 -5.41463e-05
0.000178705 0.000381692 0.00262131
1.94893e-05 3.68209e-06 -0.000140268
2.67699e-05 -2.5109e-05 6.08996e-06
-0.0432068 0.024863 -0.0175262
0.0439819 -0.0339298 0.0463014
-7.83771e-05 -1.68439e-05 -5.10556e-05
1.2805e-05 -3.64023e-06 4.61842e-06
-1.862e-05 6.09887e-05 -0.000211371
0.0 0.0 -0.00160516
-0.00113309 0.000370949 0.00217846
-0.000108942 2.86191e-05 -7.30053e-05
-8.11633e-05 1.07033e-05 -5.97736e-05
-8.7121e-05 -2.53989e-06 -3.58527e-05
9.29087e-06 -4.47474e-05 1.45376e-05
0.0 0.0 -0.000346714
-0.000376203 -1.06793e-05 -0.000247051
-5.56849e-05 0.00162875 0.00581061
0.0 0.0 -0.000346714
0.0 0.0 -0.000346714
-8.15539e-05 -1.90341e-05 -5.48168e-05
-0.000210944 0.000516358 -0.000507126
0.0 0.0 -0.00160516
0.0 0.0 -0.00160516
7.56216e-05 1.6354e-05 0.000742314
0.0 0.0 -0.000346714
-9.03111e-05 -5.099e-06 -3.91492e-05
-0.000996169 -0.000271457 0.00115499
0.0 0.0 -0.000346714
0.0 0.0 -0.00160516
-1.2504e-05 -2.38493e-05 -0.000101398
0.0 0.0 -0.000346714
-0.000101627 1.24538e-05 -2.03564e-06
-8.93219e-05 5.01472e-06 -3.41558e-05
0.0 0.0 -0.00160516
0.0 0.0 -0.000346714
0.0 0.0 -0.00160516
0.0 0.0 -0.00160516
0.0 0.0 -0.000346714
0.0 0.0 -0.000346714
-0.000228696 -0.000794082 -0.000231017
-0.000138633 7.70145e-05 8.19132e-05
0.0 0.0 -0.000346714
0.000216115 0.000237054 0.00136005
0.0 0.0 -0.000346714
-0.00039745 6.90604e-05 -0.000213025
0.0 0.0 -0.000346714
0.0 0.0 -0.000346714
0.0 0.0 -0.000346714
0.0 0.0 -0.00160516
0.0 0.0 -0.000346714
0.0 0.0 -0.00160516
0.0 0.0 -0.00160516
0.0 0.0 -0.000346714
-0.000115588 -1.40974e-05 2.05383e-05
-0.000370913 -0.000129256 -0.000226975
-8.95306e-05 -3.10689e-05 -2.90149e-05
0.0 0.0 -0.000346714
0.0 0.0 -0.000346714
-8.35261e-05 -6.67539e-05 -3.60334e-05
-8.72235e-05 4.55121e-05 -3.87711e-05
-8.71246e-05 2.89572e-05 -4.07498e-05
-8.70286e-05 1.44074e-05 -4.00666e-05
0.0 0.0 -0.000346714
-0.000337955 5.4676e-05 -0.00034965
0.0 0.0 -0.000346714
0.0 0.0 -0.00160516
0.0 0.0 -0.000346714
-0.000399813 -6.28972e-05 -0.000170177
-8.84209e-05 -1.49745e-05 -3.84583e-05
-0.000517363 -0.000182994 0.000119894
0.0 0.0 -0.000346714
0.0 0.0 -0.000346714
-8.66023e-05 2.85843e-05 -4.00901e-05
-0.000401231 0.000131796 -0.000204297
0.0 0.0 -0.000346714
0.0 0.0 -0.000346714
0.0 0.0 -0.000346714
0.0 0.0 -0.000346714
-0.000447968 -1.02047e-05 -4.76191e-05
0.0 0.0 -0.000346714
-8.84208e-05 -1.49744e-05 -3.84585e-05
-0.000409666 -6.93814e-05 -0.000177086
0.00281799 -0.00278515 -0.00712693
-3.07436e-05 1.11775e-05 -0.000155397
0.0 0.0 -0.000346714
0.0 0.0 -0.00160516
0.0 0.0 -0.000346714
0.0 0.0 -0.000346714
0.0 0.0 -0.00160516
-0.000489566 -1.75822e-06 -5.43378e-05
-0.000132239 -2.26995e-05 0.00011057
-8.59533e-05 -3.13317e-05 -4.17369e-05
-0.000301713 -0.000108914 -0.000420953
-8.03202e-05 6.0146e-05 -5.27828e-05
-0.00290229 0.00282804 0.00547791
-0.000397052 0.000122255 -0.000211212
2.25681e-05 2.67758e-05 5.46542e-06
-2.122e-05 0.000410309 -0.000409572
-0.000411966 5.85281e-05 -0.000159969
0.0 0.0 -0.000346714
0.0 0.0 -0.000346714
0.0 0.0 -0.000346714
0.0 0.0 -0.000346714
0.0 0.0 -0.000346714
0.0 0.0 -0.000346714
-0.0003843 -0.000224117 -0.000216236
0.0 0.0 -0.000346714
-1.65058e-05 0.000140314 -9.4241e-05
-8.00215e-05 5.98745e-05 -5.07198e-05
0.0 0.0 -0.000346714
0.0 0.0 -0.000346714
0.0 0.0 -0.00160516
0.0 0.0 -0.000346714
0.0 0.0 -0.00160516
0.0 0.0 -0.000346714
0.0 0.0 -0.000346714
0.0454275 0.0207877 0.0876953
0.00124339 0.00114409 -0.00459499
-0.00961309 -2.18716e-05 0.00966505
0.0 0.0 -0.000346714
0.0 0.0 -0.000346714
0.0 0.0 -0.00160516
2.34701e-05 -3.87127e-05 2.29022e-05
0.0 0.0 -0.000346714
0.0 0.0 -0.000346714
0.0 0.0 -0.00160516
-0.000453927 5.72044e-05 -7.06547e-05
0.000122393 0.000167823 0.000358402
0.0 0.0 -0.000346714
0.0 0.0 -0.000346714
0.00316083 -0.00074683 -0.00574706
0.0 0.0 -0.00160516
-0.000291551 4.71512e-05 0.000312793
0.000941329 -0.000895036 -0.00491919
-8.95493e-05 -3.28013e-06 -3.63568e-05
0.0 0.0 -0.000346714
-8.66973e-05 -1.84175e-05 -3.95593e-05
-0.018349 -0.00422343 0.125359
0.0 0.0 -0.000346714
0.00190033 0.00154597 0.00220399
0.0 0.0 -0.00160516
0.0 0.0 -0.00160516
0.0 0.0 -0.000346714
0.0 0.0 -0.000346714
0.0 0.0 -0.000346714
0.00476223 -0.00379682 0.0709333
0.0 0.0 -0.00160516
-0.00190033 -0.00154597 -0.00289742
-7.84428e-05 -3.09355e-05 -5.90804e-05
-6.80147e-06 -5.419e-06 -0.000173888
-0.000381883 0.000271185 -0.000235635
-0.00138895 -9.49811e-05 0.00118121
0.0 0.0 -0.00160516
0.0 0.0 -0.00160516
0.0052916 -0.00101045 -0.00496925
-8.87312e-05 9.33538e-06 -3.79789e-05
-0.000408301 4.30157e-05 -0.000180199
0.0 0.0 -0.00160516
-0.000109134 -5.58002e-06 7.79051e-06
0.0 0.0 -0.00160516
0.0 0.0 -0.00160516
0.0 0.0 -0.00160516
0.0 0.0 -0.000346714
0.0 0.0 -0.000346714
0.000116148 0.000193318 1.05201e-05
0.00109556 -0.00284281 0.00394885
0.000333154 0.00185478 0.000222645
-8.83123e-05 8.98007e-06 -3.74371e-05
0.0 0.0 -0.000346714
0.0 0.0 -0.000346714
0.0 0.0 -0.000346714
-0.00110253 -9.83189e-05 0.00422489
0.0 0.0 -0.000346714
-0.000351424 -7.96325e-05 -0.000183691
0.0 0.0 -0.000346714
-0.000352315 -0.000427721 0.000825287
-0.000450398 -0.000518932 -2.60738e-05
0.0 0.0 -0.000346714
-8.77175e-05 2.37092e-05 -3.97199e-05
0.0 0.0 -0.000346714
0.0 0.0 -0.00160516
0.0 0.0 -0.000346714
0.0 0.0 -0.000346714
0.0 0.0 -0.000346714
0.0 0.0 -0.00160516
0.0 0.0 -0.00160516
0.0 0.0 -0.000346714
-8.5955e-05 -2.99858e-05 -3.98883e-05
0.0 0.0 -0.000346714
0.0 0.0 -0.000346714
0.0 0.0 -0.000346714
0.0 0.0 -0.000346714
0.0 0.0 -0.000346714
0.0 0.0 -0.00160516
0.0 0.0 -0.000346714
0.0 0.0 -0.000346714
0.0 0.0 -0.000346714
0.0 0.0 -0.000346714
0.0 0.0 -0.00160516
0.0 0.0 -0.000346714
0.0 0.0 -0.000346714
0.0 0.0 -0.000346714
0.0 0.0 -0.00160516
0.0 0.0 -0.00160516
0.0 0.0 -0.00160516
0.000152567 -0.00185578 -0.00499753
0.0 0.0 -0.00160516
0.0 0.0 -0.000346714
0.0 0.0 -0.000346714
0.0 0.0 -0.000346714
0.0 0.0 -0.00160516
0.0 0.0 -0.00160516
0.0 0.0 -0.000346714
0.0 0.0 -0.00160516
0.0 0.0 -0.000346714
0.0 0.0 -0.000346714
0.0 0.0 -0.00160516
0.0 0.0 -0.00160516
0.0 0.0 -0.000346714
0.0 0.0 -0.000346714
0.0 0.0 -0.000346714
0.0 0.0 -0.00160516
0.0 0.0 -0.00160516
-0.000353449 -0.000539539 -0.0002143
0.0 0.0 -0.00160516
-8.53373e-05 3.80784e-05 -4.21486e-05
0.0 0.0 -0.000346714
0.0 0.0 -0.000346714
0.0 0.0 -0.000346714
0.0 0.0 -0.00160516
0.0 0.0 -0.000346714
0.0 0.0 -0.00160516
0.0 0.0 -0.00160516
0.0 0.0 -0.000346714