# vtk DataFile Version 2.0
Generated by lpp.py
ASCII
DATASET POLYDATA
POINTS 821 float
-0.0263525 0.0297555 0.0535086
-0.0211353 0.0346594 0.0502843
-0.00450047 0.0219848 0.0516878
-0.00116673 0.0162421 0.0484133
-0.00407755 0.0134556 0.0523838
-0.00285265 0.00934521 0.0504275
-0.0185405 0.00924548 0.0493706
-0.00119055 -0.0257421 0.0495781
-0.0121585 0.0234804 0.0444618
-0.00305123 -0.0134106 0.0487503
-0.475911 0.0148181 -0.396783
-0.468431 0.0182725 -0.399099
-0.449479 -0.0155485 -0.394528
-0.4637 -0.00764108 -0.394127
-0.467983 0.0023337 -0.393501
-0.489739 -0.0101438 -0.392893
-0.481182 -0.00339419 -0.391712
-0.455876 0.00440055 -0.390075
-0.481185 0.00554227 -0.389082
-0.461002 -0.0120954 -0.384435
-0.478804 0.00612445 -0.383452
-0.46021 0.00699782 -0.38456
-0.4311 -0.0108482 -0.380718
-0.45177 -0.0104513 -0.381076
-0.459738 -0.0142876 -0.376807
-0.455856 -0.000503824 -0.377556
-0.440372 -0.00219839 -0.377528
-0.475427 -0.00624029 -0.374559
-0.435296 -0.00629051 -0.373133
-0.435511 0.00460784 -0.37407
-0.462803 -0.0292226 -0.367776
-0.458335 -0.0177297 -0.37091
-0.436445 -0.00955451 -0.370338
-0.441556 0.00388844 -0.368637
-0.447109 -0.018262 -0.365419
-0.457624 -0.0163169 -0.364255
-0.431426 -0.0047805 -0.363581
-0.459753 -0.00860016 -0.362632
-0.452355 0.000264349 -0.363946
-0.471012 -0.00980414 -0.357777
-0.432584 -0.00899202 -0.359411
-0.442929 0.00976635 -0.359019
-0.452308 -0.0060205 -0.351803
-0.451805 -0.00199977 -0.353813
-0.441513 -0.00102056 -0.353834
-0.440735 0.0137699 -0.35627
-0.455482 0.0259717 -0.354884
-0.470103 -0.00284114 -0.345737
-0.449527 -0.00243035 -0.344689
-0.439285 0.000697167 -0.347553
-0.44501 0.00177772 -0.343071
-0.440049 0.00687794 -0.34477
-0.433041 0.00846171 -0.342362
-0.420314 0.0135794 -0.338792
-0.431248 0.0203731 -0.334895
-0.428332 -0.00520343 -0.331216
-0.433777 0.0168465 -0.331999
-0.454648 -0.0468482 -0.329543
-0.422297 -0.00905456 -0.32941
-0.419884 0.00999218 -0.329123
-0.437286 0.0281136 -0.328379
-0.417152 -0.00374554 -0.323607
-0.411915 -0.000192793 -0.325536
-0.45475 0.012062 -0.325063
-0.419981 0.0115978 -0.325272
-0.412128 -0.00940111 -0.320275
-0.410466 -0.00397634 -0.321253
-0.422065 -0.00326567 -0.321439
-0.413757 0.00401836 -0.322554
-0.422621 0.0147743 -0.319546
-0.428813 -0.0234972 -0.319541
-0.407694 -0.0135895 -0.318991
-0.411496 -0.000107204 -0.317964
-0.396902 -0.00339621 -0.317823
-0.41551 -0.00974103 -0.315534
-0.408355 -0.00985561 -0.314602
-0.413927 -0.00459374 -0.313259
-0.409344 -0.0014796 -0.313144
-0.409712 -0.00610448 -0.308685
-0.415771 -2.70149e-05 -0.310114
-0.398837 -0.00228499 -0.30894
-0.407149 0.000587647 -0.30909
-0.396183 0.00299039 -0.3116
-0.412144 0.0113754 -0.31043
-0.408181 -0.0152388 -0.305991
-0.4022 -0.0100949 -0.305437
-0.401993 -0.000557547 -0.305456
-0.409846 0.0133046 -0.306657
-0.399892 0.0210196 -0.306259
-0.409116 0.00100588 -0.301452
-0.39243 0.0061655 -0.303778
-0.393293 0.00882973 -0.302076
-0.399753 0.0116168 -0.302993
-0.393501 0.0131894 -0.303806
-0.397238 -0.00914596 -0.298292
-0.403694 -0.00417074 -0.298806
-0.392696 -0.00280488 -0.29664
-0.389138 0.00454794 -0.29813
-0.404376 0.0327534 -0.298128
-0.398308 -0.0254206 -0.293856
-0.394275 -0.00775675 -0.29496
-0.390998 0.00750533 -0.294224
-0.411086 -0.0419386 -0.291824
-0.385946 -0.00880988 -0.290589
-0.398655 0.00932592 -0.291064
-0.387268 -0.018959 -0.286756
-0.384405 -0.00526644 -0.288447
-0.375346 0.00899398 -0.288614
-0.381354 0.0163477 -0.290472
-0.389108 -0.0146186 -0.282695
-0.394094 -0.0102572 -0.281349
-0.38527 -0.00927371 -0.283826
-0.381779 -0.0104458 -0.283116
-0.377358 -0.00648319 -0.28375
-0.394303 0.0107921 -0.284072
-0.398206 -0.0444185 -0.280774
-0.377199 -0.00986453 -0.279917
-0.37529 -0.00453227 -0.281215
-0.377662 -0.00493046 -0.27812
-0.381906 0.00370751 -0.281659
-0.388055 0.0149178 -0.279852
-0.393494 0.0349837 -0.278903
-0.382358 -0.0214657 -0.274272
-0.37848 -0.0138836 -0.274632
-0.375393 3.02664e-05 -0.275599
-0.370007 0.00674995 -0.274021
-0.381659 0.00877736 -0.277424
-0.366914 0.00205837 -0.271743
-0.368867 -0.0142457 -0.267984
-0.363543 0.00477755 -0.269589
-0.372207 -0.0324167 -0.263426
-0.359163 -0.0130427 -0.262943
-0.35705 -0.00638955 -0.264602
-0.357303 0.0010945 -0.262678
-0.360473 0.00495423 -0.265286
-0.351091 0.00499392 -0.26656
-0.360574 0.0118639 -0.264294
-0.362352 0.0161589 -0.263474
-0.360968 0.0218608 -0.263003
-0.35963 -0.0193142 -0.260186
-0.353979 -0.0124306 -0.261745
-0.356899 -0.00747526 -0.259623
-0.354022 -0.00322988 -0.261451
-0.350343 0.000831657 -0.258486
-0.345474 0.00327321 -0.2629
-0.346352 0.000893311 -0.258459
-0.358077 0.00892853 -0.262065
-0.355328 0.0126604 -0.259048
-0.360206 -0.0287968 -0.257769
-0.364139 -0.013779 -0.256129
-0.351883 -0.0123961 -0.257501
-0.354041 -0.0102045 -0.257053
-0.35301 -0.00707605 -0.257891
-0.350158 -0.00856371 -0.255955
-0.35335 0.00695953 -0.257731
-0.349703 0.00393955 -0.254266
-0.363926 0.0109024 -0.259517
-0.351786 0.01152 -0.256547
-0.349305 -0.00381325 -0.253058
-0.34546 -0.00267489 -0.251711
-0.345849 0.00239439 -0.252345
-0.341905 0.0037392 -0.250625
-0.339024 -0.0135612 -0.248777
-0.342927 -0.00807456 -0.25092
-0.336616 -0.00865863 -0.248474
-0.334074 0.00440161 -0.247437
-0.33899 0.00967344 -0.249712
-0.344742 0.0201516 -0.249924
-0.342642 0.0243085 -0.247821
-0.329754 -0.0195944 -0.243091
-0.333354 -0.00797496 -0.245595
-0.329109 -0.00410059 -0.24372
-0.32979 0.00855214 -0.244923
-0.326812 -0.0311508 -0.238711
-0.330061 -0.0225228 -0.242363
-0.328836 -0.0128286 -0.242793
-0.321542 -0.00849175 -0.241212
-0.338968 -0.00198916 -0.242632
-0.321861 -0.00332428 -0.241655
-0.319139 2.06113e-05 -0.239629
-0.329535 0.0135369 -0.242116
-0.322696 0.0189738 -0.23912
-0.330754 0.0197148 -0.242746
-0.314436 -0.0201859 -0.235616
-0.314375 -0.0136033 -0.236504
-0.318528 -0.00950722 -0.238839
-0.310897 -0.00467973 -0.237069
-0.310675 -6.11494e-05 -0.235843
-0.313002 0.0155994 -0.236823
-0.321176 0.0237954 -0.238642
-0.31956 -0.0368087 -0.233626
-0.309589 -0.0246201 -0.233645
-0.318852 -0.0187169 -0.233345
-0.306902 -0.0187229 -0.233789
-0.299142 -0.0160028 -0.231066
-0.305219 -0.00757757 -0.234572
-0.298881 -0.00638114 -0.231941
-0.307546 -0.00399141 -0.234491
-0.302421 -0.00222161 -0.23358
-0.30772 0.00369434 -0.233189
-0.302954 0.0129486 -0.233074
-0.312945 0.027019 -0.234506
-0.333817 0.0497983 -0.23298
-0.328519 -0.0504364 -0.229941
-0.320012 -0.0441031 -0.230703
-0.311566 -0.0147495 -0.231189
-0.298609 -0.0130542 -0.231206
-0.2961 -0.0141528 -0.230002
-0.297322 -0.00953101 -0.229837
-0.299162 -0.0023853 -0.231114
-0.29553 0.0101725 -0.229033
-0.298557 0.0186682 -0.229101
-0.302486 0.0211522 -0.231355
-0.290009 -0.0291365 -0.224288
-0.293376 -0.0140425 -0.227098
-0.288463 -0.0108829 -0.227172
-0.292698 -0.00887903 -0.228083
-0.286441 -0.00575016 -0.226716
-0.283709 -0.00614448 -0.225444
-0.28338 -0.00151076 -0.225569
-0.287678 0.000730856 -0.226323
-0.291682 0.00471027 -0.227759
-0.283536 0.00660946 -0.225285
-0.288221 0.00996335 -0.227045
-0.28075 0.00977567 -0.223933
-0.286819 0.0167347 -0.22571
-0.316328 0.0243639 -0.229291
-0.277948 -0.0133013 -0.222489
-0.28031 -0.00835277 -0.222605
-0.280329 -0.00336111 -0.224219
-0.275309 -0.00254609 -0.222128
-0.277719 0.00126461 -0.22209
-0.272433 0.00200484 -0.220814
-0.290693 0.0174931 -0.222725
-0.286277 0.0132469 -0.222587
-0.277092 0.0197216 -0.221034
-0.271288 -0.0192281 -0.218877
-0.267992 -0.0140958 -0.218213
-0.274752 -0.0115259 -0.220253
-0.270502 -0.00736187 -0.21993
-0.267203 -0.00645135 -0.218572
-0.264423 -0.00654516 -0.217376
-0.268585 -0.00271287 -0.218214
-0.269661 0.00278557 -0.219695
-0.271475 0.00522433 -0.220337
-0.267149 0.00426929 -0.21855
-0.272481 0.00905314 -0.219479
-0.267551 0.0078018 -0.218544
-0.266938 0.0132069 -0.21789
-0.274431 0.0163006 -0.220502
-0.266594 0.0162939 -0.217202
-0.275214 0.0231167 -0.219716
-0.272125 0.0212342 -0.21767
-0.305039 0.0509304 -0.219293
-0.261192 -0.0146438 -0.215295
-0.266586 -0.0100638 -0.216985
-0.259405 -0.00642011 -0.215275
-0.263968 -0.00236591 -0.216279
-0.257772 -0.00333788 -0.214719
-0.265817 0.00318408 -0.215434
-0.263479 0.00758805 -0.216853
-0.255951 0.00814684 -0.213652
-0.262309 0.0109888 -0.21511
-0.259762 0.014036 -0.214617
-0.264292 0.0146548 -0.214578
-0.261508 0.016461 -0.215085
-0.266525 -0.0385523 -0.211726
-0.265249 -0.0349106 -0.212422
-0.259527 -0.0226093 -0.212082
-0.254734 -0.0191063 -0.212002
-0.25836 -0.0151538 -0.214038
-0.255543 -0.0138639 -0.211302
-0.254272 -0.00587794 -0.211715
-0.253234 -0.00176518 -0.212738
-0.248502 -0.00275471 -0.210845
-0.261202 0.00114664 -0.212935
-0.252185 0.00459554 -0.212223
-0.25285 0.00947431 -0.212296
-0.251893 0.0125339 -0.211641
-0.257951 0.0198901 -0.213084
-0.252865 0.0181907 -0.211202
-0.252719 -0.0319962 -0.20816
-0.256249 -0.0296646 -0.210273
-0.252401 -0.0209942 -0.209386
-0.243699 -0.0149528 -0.207844
-0.246409 -0.0141352 -0.209047
-0.241551 -0.00795433 -0.207641
-0.241836 -0.00157384 -0.206992
-0.241203 0.00816148 -0.207455
-0.248536 0.015546 -0.209787
-0.245703 0.0168746 -0.207188
-0.252655 0.021495 -0.210122
-0.247903 0.0216706 -0.208623
-0.237059 -0.00156549 -0.204958
-0.2538 0.00172438 -0.20598
-0.233991 0.0134203 -0.203957
-0.238398 0.0184898 -0.204037
-0.237744 0.0228939 -0.20423
-0.249215 0.0290419 -0.206412
-0.255214 0.038972 -0.207105
-0.253648 0.0447049 -0.20418
-0.262147 0.0459755 -0.207043
-0.275935 0.0575424 -0.20462
-0.234811 -0.010987 -0.203363
-0.231166 -0.00215326 -0.203548
-0.232686 0.00652457 -0.202866
-0.229351 0.0100087 -0.202437
-0.226924 0.00845524 -0.201399
-0.225818 0.0125239 -0.2006
-0.245044 0.0136015 -0.202754
-0.231486 0.0188568 -0.202155
-0.226758 0.0173868 -0.200321
-0.228588 0.019906 -0.200762
-0.230185 0.0243295 -0.200805
-0.238224 0.0280069 -0.202112
-0.23395 0.031387 -0.200617
-0.244834 0.0423988 -0.201523
-0.270088 0.0554044 -0.204884
-0.226744 -0.0232161 -0.198351
-0.219674 -0.0126689 -0.197916
-0.217656 -0.00923206 -0.197394
[...]
POINT_DATA 821
VECTORS i float
0.0 0.0 0.0
0.0 0.0 0.0
0.0 0.0 0.0
0.0 0.0 0.0
0.0 0.0 0.0
0.0 0.0 0.0
0.0 0.0 0.0
0.0 0.0 0.0
0.0 0.0 0.0
0.0 0.0 0.0
0.0 0.0 0.0
0.0 0.0 0.0
0.0 0.0 0.0
0.0 0.0 0.0
0.0 0.0 0.0
0.0 0.0 0.0
0.0 0.0 0.0
0.0 0.0 0.0
0.0 0.0 0.0
0.0 0.0 0.0
0.0 0.0 0.0
0.0 0.0 0.0
0.0 0.0 0.0
0.0 0.0 0.0
0.0 0.0 0.0
0.0 0.0 0.0
0.0 0.0 0.0
0.0 0.0 0.0
0.0 0.0 0.0
0.0 0.0 0.0
0.0 0.0 0.0
0.0 0.0 0.0
0.0 0.0 0.0
0.0 0.0 0.0
0.0 0.0 0.0
0.0 0.0 0.0
0.0 0.0 0.0
0.0 0.0 0.0
0.0 0.0 0.0
0.0 0.0 0.0
0.0 0.0 0.0
0.0 0.0 0.0
0.0 0.0 0.0
0.0 0.0 0.0
0.0 0.0 0.0
0.0 0.0 0.0
0.0 0.0 0.0
0.0 0.0 0.0
0.0 0.0 0.0
0.0 0.0 0.0
0.0 0.0 0.0
0.0 0.0 0.0
0.0 0.0 0.0
0.0 0.0 0.0
0.0 0.0 0.0
0.0 0.0 0.0
0.0 0.0 0.0
0.0 0.0 0.0
0.0 0.0 0.0
0.0 0.0 0.0
0.0 0.0 0.0
0.0 0.0 0.0
0.0 0.0 0.0
0.0 0.0 0.0
0.0 0.0 0.0
0.0 0.0 0.0
0.0 0.0 0.0
0.0 0.0 0.0
0.0 0.0 0.0
0.0 0.0 0.0
0.0 0.0 0.0
0.0 0.0 0.0
0.0 0.0 0.0
0.0 0.0 0.0
0.0 0.0 0.0
0.0 0.0 0.0
0.0 0.0 0.0
0.0 0.0 0.0
0.0 0.0 0.0
0.0 0.0 0.0
0.0 0.0 0.0
0.0 0.0 0.0
0.0 0.0 0.0
0.0 0.0 0.0
0.0 0.0 0.0
0.0 0.0 0.0
0.0 0.0 0.0
0.0 0.0 0.0
0.0 0.0 0.0
0.0 0.0 0.0
0.0 0.0 0.0
0.0 0.0 0.0
0.0 0.0 0.0
0.0 0.0 0.0
0.0 0.0 0.0
0.0 0.0 0.0
0.0 0.0 0.0
0.0 0.0 0.0
0.0 0.0 0.0
0.0 0.0 0.0
0.0 0.0 0.0
0.0 0.0 0.0
0.0 0.0 0.0
0.0 0.0 0.0
0.0 0.0 0.0
0.0 0.0 0.0
0.0 0.0 0.0
0.0 0.0 0.0
0.0 0.0 0.0
0.0 0.0 0.0
0.0 0.0 0.0
0.0 0.0 0.0
0.0 0.0 0.0
0.0 0.0 0.0
0.0 0.0 0.0
0.0 0.0 0.0
0.0 0.0 0.0
0.0 0.0 0.0
0.0 0.0 0.0
0.0 0.0 0.0
0.0 0.0 0.0
0.0 0.0 0.0
0.0 0.0 0.0
0.0 0.0 0.0
0.0 0.0 0.0
0.0 0.0 0.0
0.0 0.0 0.0
0.0 0.0 0.0
0.0 0.0 0.0
0.0 0.0 0.0
0.0 0.0 0.0
0.0 0.0 0.0
0.0 0.0 0.0
0.0 0.0 0.0
0.0 0.0 0.0
0.0 0.0 0.0
0.0 0.0 0.0
0.0 0.0 0.0
0.0 0.0 0.0
0.0 0.0 0.0
0.0 0.0 0.0
0.0 0.0 0.0
0.0 0.0 0.0
0.0 0.0 0.0
0.0 0.0 0.0
0.0 0.0 0.0
0.0 0.0 0.0
0.0 0.0 0.0
0.0 0.0 0.0
0.0 0.0 0.0
0.0 0.0 0.0
0.0 0.0 0.0
0.0 0.0 0.0
0.0 0.0 0.0
0.0 0.0 0.0
0.0 0.0 0.0
0.0 0.0 0.0
0.0 0.0 0.0
0.0 0.0 0.0
0.0 0.0 0.0
0.0 0.0 0.0
0.0 0.0 0.0
0.0 0.0 0.0
0.0 0.0 0.0
0.0 0.0 0.0
0.0 0.0 0.0
0.0 0.0 0.0
0.0 0.0 0.0
0.0 0.0 0.0
0.0 0.0 0.0
0.0 0.0 0.0
0.0 0.0 0.0
0.0 0.0 0.0
0.0 0.0 0.0
0.0 0.0 0.0
0.0 0.0 0.0
0.0 0.0 0.0
0.0 0.0 0.0
0.0 0.0 0.0
0.0 0.0 0.0
0.0 0.0 0.0
0.0 0.0 0.0
0.0 0.0 0.0
0.0 0.0 0.0
0.0 0.0 0.0
0.0 0.0 0.0
0.0 0.0 0.0
0.0 0.0 0.0
0.0 0.0 0.0
0.0 0.0 0.0
0.0 0.0 0.0
0.0 0.0 0.0
0.0 0.0 0.0
0.0 0.0 0.0
0.0 0.0 0.0
0.0 0.0 0.0
0.0 0.0 0.0
0.0 0.0 0.0
0.0 0.0 0.0
0.0 0.0 0.0
0.0 0.0 0.0
0.0 0.0 0.0
0.0 0.0 0.0
0.0 0.0 0.0
0.0 0.0 0.0
0.0 0.0 0.0
0.0 0.0 0.0
0.0 0.0 0.0
0.0 0.0 0.0
0.0 0.0 0.0
0.0 0.0 0.0
0.0 0.0 0.0
0.0 0.0 0.0
0.0 0.0 0.0
0.0 0.0 0.0
0.0 0.0 0.0
0.0 0.0 0.0
0.0 0.0 0.0
0.0 0.0 0.0
0.0 0.0 0.0
0.0 0.0 0.0
0.0 0.0 0.0
0.0 0.0 0.0
0.0 0.0 0.0
0.0 0.0 0.0
0.0 0.0 0.0
0.0 0.0 0.0
0.0 0.0 0.0
0.0 0.0 0.0
0.0 0.0 0.0
0.0 0.0 0.0
0.0 0.0 0.0
0.0 0.0 0.0
0.0 0.0 0.0
0.0 0.0 0.0
0.0 0.0 0.0
0.0 0.0 0.0
0.0 0.0 0.0
0.0 0.0 0.0
0.0 0.0 0.0
0.0 0.0 0.0
0.0 0.0 0.0
0.0 0.0 0.0
0.0 0.0 0.0
0.0 0.0 0.0
0.0 0.0 0.0
0.0 0.0 0.0
0.0 0.0 0.0
0.0 0.0 0.0
0.0 0.0 0.0
0.0 0.0 0.0
0.0 0.0 0.0
0.0 0.0 0.0
0.0 0.0 0.0
0.0 0.0 0.0
0.0 0.0 0.0
0.0 0.0 0.0
0.0 0.0 0.0
0.0 0.0 0.0
0.0 0.0 0.0
0.0 0.0 0.0
0.0 0.0 0.0
0.0 0.0 0.0
0.0 0.0 0.0
0.0 0.0 0.0
0.0 0.0 0.0
0.0 0.0 0.0
0.0 0.0 0.0
0.0 0.0 0.0
0.0 0.0 0.0
0.0 0.0 0.0
0.0 0.0 0.0
0.0 0.0 0.0
0.0 0.0 0.0
0.0 0.0 0.0
0.0 0.0 0.0
0.0 0.0 0.0
0.0 0.0 0.0
0.0 0.0 0.0
0.0 0.0 0.0
0.0 0.0 0.0
0.0 0.0 0.0
0.0 0.0 0.0
0.0 0.0 0.0
0.0 0.0 0.0
0.0 0.0 0.0
0.0 0.0 0.0
0.0 0.0 0.0
0.0 0.0 0.0
0.0 0.0 0.0
0.0 0.0 0.0
0.0 0.0 0.0
0.0 0.0 0.0
0.0 0.0 0.0
0.0 0.0 0.0
0.0 0.0 0.0
0.0 0.0 0.0
0.0 0.0 0.0
0.0 0.0 0.0
0.0 0.0 0.0
0.0 0.0 0.0
0.0 0.0 0.0
0.0 0.0 0.0
0.0 0.0 0.0
0.0 0.0 0.0
0.0 0.0 0.0
0.0 0.0 0.0
0.0 0.0 0.0
0.0 0.0 0.0
0.0 0.0 0.0
0.0 0.0 0.0
0.0 0.0 0.0
0.0 0.0 0.0
0.0 0.0 0.0
0.0 0.0 0.0
0.0 0.0 0.0
0.0 0.0 0.0
0.0 0.0 0.0
0.0 0.0 0.0
0.0 0.0 0.0
0.0 0.0 0.0
0.0 0.0 0.0
0.0 0.0 0.0
0.0 0.0 0.0
0.0 0.0 0.0
0.0 0.0 0.0
0.0 0.0 0.0
0.0 0.0 0.0
0.0 0.0 0.0
0.0 0.0 0.0
0.0 0.0 0.0
0.0 0.0 0.0
0.0 0.0 0.0
0.0 0.0 0.0
0.0 0.0 0.0
0.0 0.0 0.0
0.0 0.0 0.0
0.0 0.0 0.0
0.0 0.0 0.0
0.0 0.0 0.0
0.0 0.0 0.0
0.0 0.0 0.0
0.0 0.0 0.0
0.0 0.0 0.0
0.0 0.0 0.0
0.0 0.0 0.0
0.0 0.0 0.0
0.0 0.0 0.0
0.0 0.0 0.0
0.0 0.0 0.0
0.0 0.0 0.0
0.0 0.0 0.0
0.0 0.0 0.0
0.0 0.0 0.0
0.0 0.0 0.0
0.0 0.0 0.0
0.0 0.0 0.0
0.0 0.0 0.0
0.0 0.0 0.0
0.0 0.0 0.0
0.0 0.0 0.0
0.0 0.0 0.0
0.0 0.0 0.0
0.0 0.0 0.0
0.0 0.0 0.0
0.0 0.0 0.0
0.0 0.0 0.0
0.0 0.0 0.0
0.0 0.0 0.0
0.0 0.0 0.0
0.0 0.0 0.0
0.0 0.0 0.0
0.0 0.0 0.0
0.0 0.0 0.0
0.0 0.0 0.0
0.0 0.0 0.0
0.0 0.0 0.0
0.0 0.0 0.0
0.0 0.0 0.0
0.0 0.0 0.0
0.0 0.0 0.0
0.0 0.0 0.0
0.0 0.0 0.0
0.0 0.0 0.0
0.0 0.0 0.0
0.0 0.0 0.0
0.0 0.0 0.0
0.0 0.0 0.0
0.0 0.0 0.0
0.0 0.0 0.0
0.0 0.0 0.0
0.0 0.0 0.0
0.0 0.0 0.0
0.0 0.0 0.0
0.0 0.0 0.0
0.0 0.0 0.0
0.0 0.0 0.0
0.0 0.0 0.0
0.0 0.0 0.0
0.0 0.0 0.0
0.0 0.0 0.0
0.0 0.0 0.0
0.0 0.0 0.0
0.0 0.0 0.0
0.0 0.0 0.0
0.0 0.0 0.0
0.0 0.0 0.0
0.0 0.0 0.0
0.0 0.0 0.0
0.0 0.0 0.0
0.0 0.0 0.0
0.0 0.0 0.0
0.0 0.0 0.0
0.0 0.0 0.0
0.0 0.0 0.0
0.0 0.0 0.0
0.0 0.0 0.0
0.0 0.0 0.0
0.0 0.0 0.0
0.0 0.0 0.0
0.0 0.0 0.0
0.0 0.0 0.0
0.0 0.0 0.0
0.0 0.0 0.0
0.0 0.0 0.0
0.0 0.0 0.0
0.0 0.0 0.0
0.0 0.0 0.0
0.0 0.0 0.0
0.0 0.0 0.0
0.0 0.0 0.0
0.0 0.0 0.0
0.0 0.0 0.0
0.0 0.0 0.0
0.0 0.0 0.0
0.0 0.0 0.0
0.0 0.0 0.0
0.0 0.0 0.0
0.0 0.0 0.0
0.0 0.0 0.0
0.0 0.0 0.0
0.0 0.0 0.0
0.0 0.0 0.0
0.0 0.0 0.0
0.0 0.0 0.0
0.0 0.0 0.0
0.0 0.0 0.0
0.0 0.0 0.0
0.0 0.0 0.0
0.0 0.0 0.0
0.0 0.0 0.0
0.0 0.0 0.0
0.0 0.0 0.0
0.0 0.0 0.0
0.0 0.0 0.0
0.0 0.0 0.0
0.0 0.0 0.0
0.0 0.0 0.0
0.0 0.0 0.0
0.0 0.0 0.0
0.0 0.0 0.0
0.0 0.0 0.0
0.0 0.0 0.0
0.0 0.0 0.0
0.0 0.0 0.0
0.0 0.0 0.0
0.0 0.0 0.0
0.0 0.0 0.0
0.0 0.0 0.0
0.0 0.0 0.0
0.0 0.0 0.0
0.0 0.0 0.0
0.0 0.0 0.0
0.0 0.0 0.0
0.0 0.0 0.0
0.0 0.0 0.0
0.0 0.0 0.0
0.0 0.0 0.0
0.0 0.0 0.0
0.0 0.0 0.0
0.0 0.0 0.0
0.0 0.0 0.0
0.0 0.0 0.0
0.0 0.0 0.0
0.0 0.0 0.0
0.0 0.0 0.0
0.0 0.0 0.0
0.0 0.0 0.0
0.0 0.0 0.0
0.0 0.0 0.0
0.0 0.0 0.0
0.0 0.0 0.0
0.0 0.0 0.0
0.0 0.0 0.0
0.0 0.0 0.0
0.0 0.0 0.0
0.0 0.0 0.0
0.0 0.0 0.0
0.0 0.0 0.0
0.0 0.0 0.0
0.0 0.0 0.0
0.0 0.0 0.0
0.0 0.0 0.0
0.0 0.0 0.0
0.0 0.0 0.0
0.0 0.0 0.0
0.0 0.0 0.0
0.0 0.0 0.0
0.0 0.0 0.0
0.0 0.0 0.0
0.0 0.0 0.0
0.0 0.0 0.0
0.0 0.0 0.0
0.0 0.0 0.0
0.0 0.0 0.0
0.0 0.0 0.0
0.0 0.0 0.0
0.0 0.0 0.0
0.0 0.0 0.0
0.0 0.0 0.0
0.0 0.0 0.0
0.0 0.0 0.0
0.0 0.0 0.0
0.0 0.0 0.0
0.0 0.0 0.0
0.0 0.0 0.0
0.0 0.0 0.0
0.0 0.0 0.0
0.0 0.0 0.0
0.0 0.0 0.0
0.0 0.0 0.0
0.0 0.0 0.0
0.0 0.0 0.0
0.0 0.0 0.0
0.0 0.0 0.0
0.0 0.0 0.0
0.0 0.0 0.0
0.0 0.0 0.0
0.0 0.0 0.0
0.0 0.0 0.0
0.0 0.0 0.0
0.0 0.0 0.0
0.0 0.0 0.0
0.0 0.0 0.0
0.0 0.0 0.0
0.0 0.0 0.0
0.0 0.0 0.0
0.0 0.0 0.0
0.0 0.0 0.0
0.0 0.0 0.0
0.0 0.0 0.0
0.0 0.0 0.0
0.0 0.0 0.0
0.0 0.0 0.0
0.0 0.0 0.0
0.0 0.0 0.0
0.0 0.0 0.0
0.0 0.0 0.0
0.0 0.0 0.0
0.0 0.0 0.0
0.0 0.0 0.0
0.0 0.0 0.0
0.0 0.0 0.0
0.0 0.0 0.0
0.0 0.0 0.0
0.0 0.0 0.0
0.0 0.0 0.0
0.0 0.0 0.0
0.0 0.0 0.0
0.0 0.0 0.0
0.0 0.0 0.0
0.0 0.0 0.0
0.0 0.0 0.0
0.0 0.0 0.0
0.0 0.0 0.0
0.0 0.0 0.0
0.0 0.0 0.0
0.0 0.0 0.0
0.0 0.0 0.0
0.0 0.0 0.0
0.0 0.0 0.0
0.0 0.0 0.0
0.0 0.0 0.0
0.0 0.0 0.0
0.0 0.0 0.0
0.0 0.0 0.0
0.0 0.0 0.0
0.0 0.0 0.0
0.0 0.0 0.0
0.0 0.0 0.0
0.0 0.0 0.0
0.0 0.0 0.0
0.0 0.0 0.0
0.0 0.0 0.0
0.0 0.0 0.0
0.0 0.0 0.0
0.0 0.0 0.0
0.0 0.0 0.0
0.0 0.0 0.0
0.0 0.0 0.0
0.0 0.0 0.0
0.0 0.0 0.0
0.0 0.0 0.0
0.0 0.0 0.0
0.0 0.0 0.0
0.0 0.0 0.0
0.0 0.0 0.0
0.0 0.0 0.0
0.0 0.0 0.0
0.0 0.0 0.0
0.0 0.0 0.0
0.0 0.0 0.0
0.0 0.0 0.0
0.0 0.0 0.0
0.0 0.0 0.0
0.0 0.0 0.0
0.0 0.0 0.0
0.0 0.0 0.0
0.0 0.0 0.0
0.0 0.0 0.0
0.0 0.0 0.0
0.0 0.0 0.0
0.0 0.0 0.0
0.0 0.0 0.0
0.0 0.0 0.0
0.0 0.0 0.0
0.0 0.0 0.0
0.0 0.0 0.0
0.0 0.0 0.0
0.0 0.0 0.0
0.0 0.0 0.0
0.0 0.0 0.0
0.0 0.0 0.0
0.0 0.0 0.0
0.0 0.0 0.0
0.0 0.0 0.0
0.0 0.0 0.0
0.0 0.0 0.0
0.0 0.0 0.0
0.0 0.0 0.0
0.0 0.0 0.0
0.0 0.0 0.0
0.0 0.0 0.0
0.0 0.0 0.0
0.0 0.0 0.0
0.0 0.0 0.0
0.0 0.0 0.0
0.0 0.0 0.0
0.0 0.0 0.0
0.0 0.0 0.0
0.0 0.0 0.0
0.0 0.0 0.0
0.0 0.0 0.0
0.0 0.0 0.0
0.0 0.0 0.0
0.0 0.0 0.0
0.0 0.0 0.0
0.0 0.0 0.0
0.0 0.0 0.0
0.0 0.0 0.0
0.0 0.0 0.0
0.0 0.0 0.0
0.0 0.0 0.0
0.0 0.0 0.0
0.0 0.0 0.0
0.0 0.0 0.0
0.0 0.0 0.0
0.0 0.0 0.0
0.0 0.0 0.0
0.0 0.0 0.0
0.0 0.0 0.0
0.0 0.0 0.0
0.0 0.0 0.0
0.0 0.0 0.0
0.0 0.0 0.0
0.0 0.0 0.0
0.0 0.0 0.0
0.0 0.0 0.0
0.0 0.0 0.0
0.0 0.0 0.0
0.0 0.0 0.0
0.0 0.0 0.0
0.0 0.0 0.0
0.0 0.0 0.0
0.0 0.0 0.0
0.0 0.0 0.0
0.0 0.0 0.0
0.0 0.0 0.0
0.0 0.0 0.0
0.0 0.0 0.0
0.0 0.0 0.0
0.0 0.0 0.0
0.0 0.0 0.0
0.0 0.0 0.0
0.0 0.0 0.0
0.0 0.0 0.0
0.0 0.0 0.0
0.0 0.0 0.0
0.0 0.0 0.0
0.0 0.0 0.0
0.0 0.0 0.0
0.0 0.0 0.0
0.0 0.0 0.0
0.0 0.0 0.0
0.0 0.0 0.0
0.0 0.0 0.0
0.0 0.0 0.0
0.0 0.0 0.0
0.0 0.0 0.0
0.0 0.0 0.0
0.0 0.0 0.0
0.0 0.0 0.0
0.0 0.0 0.0
0.0 0.0 0.0
0.0 0.0 0.0
0.0 0.0 0.0
0.0 0.0 0.0
0.0 0.0 0.0
0.0 0.0 0.0
0.0 0.0 0.0
0.0 0.0 0.0
0.0 0.0 0.0
0.0 0.0 0.0
0.0 0.0 0.0
0.0 0.0 0.0
0.0 0.0 0.0
0.0 0.0 0.0
0.0 0.0 0.0
0.0 0.0 0.0
0.0 0.0 0.0
0.0 0.0 0.0
0.0 0.0 0.0
0.0 0.0 0.0
0.0 0.0 0.0
0.0 0.0 0.0
0.0 0.0 0.0
0.0 0.0 0.0
0.0 0.0 0.0
0.0 0.0 0.0
0.0 0.0 0.0
0.0 0.0 0.0
0.0 0.0 0.0
0.0 0.0 0.0
0.0 0.0 0.0
0.0 0.0 0.0
0.0 0.0 0.0
0.0 0.0 0.0
0.0 0.0 0.0
0.0 0.0 0.0
0.0 0.0 0.0
0.0 0.0 0.0
0.0 0.0 0.0
0.0 0.0 0.0
0.0 0.0 0.0
0.0 0.0 0.0
0.0 0.0 0.0
0.0 0.0 0.0
0.0 0.0 0.0
0.0 0.0 0.0
0.0 0.0 0.0
0.0 0.0 0.0
0.0 0.0 0.0
0.0 0.0 0.0
0.0 0.0 0.0
0.0 0.0 0.0
0.0 0.0 0.0
0.0 0.0 0.0
0.0 0.0 0.0
0.0 0.0 0.0
0.0 0.0 0.0
0.0 0.0 0.0
0.0 0.0 0.0
0.0 0.0 0.0
0.0 0.0 0.0
0.0 0.0 0.0
0.0 0.0 0.0
0.0 0.0 0.0
0.0 0.0 0.0
0.0 0.0 0.0
0.0 0.0 0.0
0.0 0.0 0.0
0.0 0.0 0.0
0.0 0.0 0.0
0.0 0.0 0.0
0.0 0.0 0.0
0.0 0.0 0.0
0.0 0.0 0.0
0.0 0.0 0.0
0.0 0.0 0.0
0.0 0.0 0.0
0.0 0.0 0.0
0.0 0.0 0.0
0.0 0.0 0.0
0.0 0.0 0.0
0.0 0.0 0.0
0.0 0.0 0.0
0.0 0.0 0.0
0.0 0.0 0.0
0.0 0.0 0.0
0.0 0.0 0.0
0.0 0.0 0.0
0.0 0.0 0.0
0.0 0.0 0.0
0.0 0.0 0.0
0.0 0.0 0.0
0.0 0.0 0.0
0.0 0.0 0.0
0.0 0.0 0.0
0.0 0.0 0.0
0.0 0.0 0.0
0.0 0.0 0.0
0.0 0.0 0.0
0.0 0.0 0.0
0.0 0.0 0.0
0.0 0.0 0.0
0.0 0.0 0.0
0.0 0.0 0.0
0.0 0.0 0.0
0.0 0.0 0.0
0.0 0.0 0.0
0.0 0.0 0.0
VECTORS f float
0.0 0.0 0.0
0.0 0.0 0.0
0.0 0.0 0.0
0.0 0.0 -0.000346714
0.0 0.0 0.0
0.0 0.0 0.0
0.0 0.0 -0.00160516
0.0 0.0 -0.000346714
0.0 0.0 -0.000346714
0.0 0.0 -0.00160516
0.0 0.0 -0.00160516
0.0 0.0 -0.000346714
0.0 0.0 -0.000346714
0.0 0.0 -0.000346714
0.0 0.0 -0.000346714
0.0 0.0 -0.000346714
0.0 0.0 -0.00160516
0.0 0.0 -0.000346714
0.0 0.0 -0.00160516
0.0 0.0 -0.000346714
0.0 0.0 -0.00160516
0.0 0.0 -0.00160516
0.0 0.0 -0.000346714
0.0 0.0 -0.00160516
0.0 0.0 -0.000346714
0.0 0.0 -0.00160516
0.0 0.0 -0.000346714
0.0 0.0 -0.00160516
0.0 0.0 -0.000346714
0.0 0.0 -0.000346714
0.0 0.0 -0.000346714
0.0 0.0 -0.000346714
0.0 0.0 -0.000346714
0.0 0.0 -0.000346714
0.0 0.0 -0.000346714
0.0 0.0 -0.00160516
0.0 0.0 -0.000346714
0.0 0.0 -0.00160516
0.0 0.0 -0.00160516
0.0 0.0 -0.000346714
0.0 0.0 -0.000346714
0.0 0.0 -0.00160516
0.0 0.0 -0.000346714
0.0 0.0 -0.00160516
0.0 0.0 -0.000346714
0.0 0.0 -0.00160516
0.0 0.0 -0.000346714
0.0 0.0 -0.000346714
0.0 0.0 -0.000346714
0.0 0.0 -0.000346714
0.0 0.0 -0.000346714
0.0 0.0 -0.000346714
0.0 0.0 -0.000346714
0.0 0.0 -0.000346714
0.0 0.0 -0.000346714
0.0 0.0 -0.000346714
0.0 0.0 -0.000346714
0.0 0.0 -0.000346714
0.0 0.0 -0.00160516
0.0 0.0 -0.000346714
0.0 0.0 -0.00160516
0.0 0.0 -0.000346714
0.0 0.0 -0.000346714
0.0 0.0 -0.000346714
0.0 0.0 -0.000346714
0.0 0.0 -0.000346714
0.0 0.0 -0.000346714
0.0 0.0 -0.00160516
0.0 0.0 -0.000346714
0.0 0.0 -0.000346714
0.0 0.0 -0.000346714
0.0 0.0 -0.000346714
0.0 0.0 -0.00160516
0.0 0.0 -0.000346714
0.0 0.0 -0.000346714
0.0 0.0 -0.000346714
0.0 0.0 -0.00160516
0.0 0.0 -0.000346714
0.0 0.0 -0.000346714
0.0 0.0 -0.000346714
0.0 0.0 -0.000346714
0.0 0.0 -0.00160516
0.0 0.0 -0.00160516
0.0 0.0 -0.000346714
0.0 0.0 -0.000346714
0.0 0.0 -0.00160516
0.0 0.0 -0.00160516
0.0 0.0 -0.000346714
0.0 0.0 -0.000346714
0.0 0.0 -0.00160516
0.0 0.0 -0.000346714
0.0 0.0 -0.000346714
0.0 0.0 -0.00160516
0.0 0.0 -0.000346714
0.0 0.0 -0.000346714
0.0 0.0 -0.00160516
0.0 0.0 -0.000346714
0.0 0.0 -0.000346714
0.0 0.0 -0.000346714
0.0 0.0 -0.000346714
0.0 0.0 -0.00160516
0.0 0.0 -0.000346714
0.0 0.0 -0.000346714
0.0 0.0 -0.000346714
0.0 0.0 -0.00160516
0.0 0.0 -0.00160516
0.0 0.0 -0.000346714
0.0 0.0 -0.000346714
0.0 0.0 -0.00160516
0.0 0.0 -0.000346714
0.0 0.0 -0.000346714
0.0 0.0 -0.000346714
0.0 0.0 -0.000346714
0.0 0.0 -0.000346714
0.0 0.0 -0.00160516
0.0 0.0 -0.00160516
0.0 0.0 -0.000346714
0.0 0.0 -0.000346714
0.0 0.0 -0.000346714
0.0 0.0 -0.00160516
0.0 0.0 -0.000346714
0.0 0.0 -0.00160516
0.0 0.0 -0.00160516
0.0 0.0 -0.000346714
0.0 0.0 -0.00160516
0.0 0.0 -0.000346714
0.0 0.0 -0.00160516
0.0 0.0 -0.000346714
0.0 0.0 -0.00160516
0.0 0.0 -0.000346714
0.0 0.0 -0.000346714
0.0 0.0 -0.000346714
0.0 0.0 -0.000346714
0.0 0.0 -0.000346714
0.0 0.0 -0.00160516
0.0 0.0 -0.000346714
0.0 0.0 -0.000346714
0.0 0.0 -0.000346714
0.0 0.0 -0.000346714
0.0 0.0 -0.00160516
0.0 0.0 -0.000346714
0.0 0.0 -0.000346714
0.0 0.0 -0.000346714
-0.00450623 -0.000349911 -0.00388207
0.0 0.0 -0.000346714
0.00450623 0.000349911 0.0019302
0.0 0.0 -0.00160516
0.0 0.0 -0.00160516
0.0 0.0 -0.000346714
0.0 0.0 -0.00160516
0.0 0.0 -0.000346714
0.0 0.0 -0.000346714
0.0 0.0 -0.000346714
0.0 0.0 -0.000346714
0.0 0.0 -0.00160516
0.0 0.0 -0.00160516
0.0 0.0 -0.00160516
0.0 0.0 -0.000346714
0.0 0.0 -0.000346714
0.0 0.0 -0.00160516
0.0 0.0 -0.000346714
0.0 0.0 -0.00160516
0.0 0.0 -0.000346714
0.0 0.0 -0.00160516
0.0 0.0 -0.000346714
0.0 0.0 -0.000346714
0.0 0.0 -0.000346714
0.0 0.0 -0.00160516
0.0 0.0 -0.00160516
0.0 0.0 -0.000346714
0.0 0.0 -0.00160516
0.0 0.0 -0.00160516
0.0 0.0 -0.000346714
0.0 0.0 -0.000346714
0.0 0.0 -0.000346714
0.0 0.0 -0.00160516
-0.015332 0.00664714 -0.0186145
0.0 0.0 -0.00160516
-9.16254e-05 1.44746e-05 -1.75052e-05
-0.000321038 -6.90132e-05 -6.10216e-05
0.0 0.0 -0.00160516
-0.000394576 -0.000184516 -0.000200634
0.0 0.0 -0.00160516
-2.68176e-06 -1.3096e-05 -0.00150104
0.0 0.0 -0.00160516
0.0164001 -0.00794531 0.0340405
-7.5308e-05 8.52502e-06 -7.26629e-05
0.0 0.0 -0.00160516
-8.60575e-05 -4.00231e-05 -4.23045e-05
-8.37725e-05 -3.90228e-05 -4.67714e-05
0.0 0.0 -0.000346714
-0.000922649 0.000532537 0.000813301
0.0 0.0 -0.00160516
0.0 0.0 -0.000346714
-0.000114498 0.00042704 -0.000303011
-8.84976e-05 7.45492e-06 -3.76826e-05
-9.13906e-05 7.50762e-06 -3.37827e-05
0.0 0.0 -0.00160516
-9.98656e-05 9.71941e-06 -2.05248e-05
0.0 0.0 -0.00160516
-8.81627e-05 -1.32504e-05 -3.84232e-05
-0.000116392 -9.7027e-05 5.60948e-05
0.0 0.0 -0.000346714
0.0 0.0 -0.000346714
0.0 0.0 -0.000346714
0.0 0.0 -0.00160516
-0.00373342 0.000687918 -0.00137787
0.00177213 -0.00230617 -0.00630856
-0.00917325 -0.000982696 -0.0108006
0.000101289 0.000106617 -2.15349e-05
-0.000409786 -6.22683e-05 -0.00017567
-0.000411694 -0.000194166 -0.000144192
-8.33966e-05 -3.88998e-05 -4.75661e-05
-7.49263e-05 5.88905e-05 -5.26362e-05
0.00227214 0.000416839 0.0060023
-7.7386e-05 1.98234e-05 -6.36618e-05
0.0105478 0.00227167 0.00830691
-5.23726e-05 3.90086e-06 -0.000122823
0.0 0.0 -0.000346714
-8.86197e-05 7.02484e-06 -3.76688e-05
-0.000339353 -5.05591e-05 -0.000358671
-0.000466819 -7.6798e-05 -1.13625e-05
-6.62021e-05 -9.87101e-06 -9.49941e-05
2.12445e-05 8.07506e-06 2.44993e-05
-8.70814e-05 -1.19617e-05 -3.66254e-05
0.0 0.0 -0.000346714
0.0 0.0 -0.00160516
-0.000111135 2.8963e-05 1.6752e-05
0.0 0.0 -0.00160516
-8.78053e-05 6.95328e-06 -3.98012e-05
-8.79838e-05 6.98379e-06 -3.78078e-05
-5.79125e-05 9.92278e-06 -0.000900379
0.0 0.0 -0.000346714
0.0 0.0 -0.00160516
0.0 0.0 -0.000346714
-8.48036e-05 -3.36854e-05 -3.99802e-05
-0.000102042 4.70353e-05 2.29729e-06
-0.0001332 3.58047e-05 6.25564e-05
-0.000444431 0.000114089 -9.77135e-05
-8.60338e-05 8.20311e-06 -3.78939e-05
0.000478858 0.00130451 0.000870525
0.0 0.0 -0.000346714
-0.000142399 -0.000549938 0.000139806
-0.000311859 -5.11467e-05 0.00140455
-9.86303e-05 -1.20952e-05 -1.74882e-05
1.63918e-05 -6.45159e-05 -7.64639e-06
-0.00310385 -0.000483008 0.00622399
2.5458e-06 -9.99124e-05 -5.0689e-06
-5.75842e-05 9.01361e-05 -1.21304e-05
-8.84951e-05 -3.52204e-05 -3.08206e-05
0.0 0.0 -0.000346714
-8.46793e-05 -3.3616e-05 -4.04389e-05
-0.000480945 -0.000194129 4.12091e-05
0.0 0.0 -0.000346714
-8.74098e-05 2.47092e-05 -4.03821e-05
-0.000730167 -0.00216111 0.000167978
-9.25884e-05 9.65541e-06 -2.96738e-05
-0.000445996 4.01083e-05 -0.000126882
-8.21296e-05 8.33867e-06 -6.06276e-05
0.0 0.0 -0.000346714
-0.000205394 7.69665e-05 0.000523638
-8.74331e-05 -9.24101e-06 -3.77143e-05
-0.000128562 0.00109926 0.00135955
0.0 0.0 -0.000346714
0.0 0.0 -0.000346714
0.0 0.0 -0.000346714
0.0 0.0 -0.000346714
0.0 0.0 -0.000346714
0.0 0.0 -0.00160516
0.00308268 -0.00178236 -0.0020021
1.58095e-05 1.27408e-05 -9.04818e-05
0.0 0.0 -0.00160516
0.0 0.0 -0.00160516
0.0 0.0 -0.000346714
-3.78448e-05 3.21561e-06 -0.000166166
0.0 0.0 -0.00160516
-9.67132e-05 -9.40764e-06 -2.35659e-05
-6.57155e-05 -8.21124e-06 -9.54788e-05
-1.97702e-07 3.81722e-07 -0.000345131
-7.31866e-05 -2.6394e-05 -7.20058e-05
-8.22224e-05 -2.94786e-05 -4.87781e-05
0.0 0.0 -0.000346714
0.0 0.0 -0.000346714
-0.000950653 0.000653801 -0.00191005
-6.80845e-05 2.73775e-05 -5.46396e-05
0.0 0.0 -0.000346714
-0.000145958 2.67513e-05 0.000102227
-0.000424871 -3.62873e-05 -0.000145424
-0.000149101 -1.24018e-05 0.000105406
-8.53197e-05 -2.9618e-05 -4.48497e-05
0.0 0.0 -0.00160516
0.0 0.0 -0.000346714
-0.000106635 -3.5397e-05 -1.71e-05
-4.35603e-05 2.94808e-05 -0.00109629
0.0 0.0 -0.00160516
-8.40075e-05 -2.67447e-05 -4.84333e-05
-0.00028598 -8.79821e-05 -0.000568827
-8.03659e-05 -2.76489e-05 -5.21102e-05
-0.000425022 -0.000273178 -0.000120984
0.000511298 0.000132504 -0.00121478
-6.92639e-05 -6.80528e-05 -7.7911e-05
-4.01586e-05 -5.14063e-05 0.000486641
0.000163414 0.000447259 -0.0019078
-0.000378477 7.0629e-05 -0.000232254
-8.97092e-05 -5.23545e-06 -3.80673e-05
-0.00037102 -3.01394e-05 -0.00016986
0.0 0.0 -0.000346714
0.0 0.0 -0.000346714
0.0 0.0 -0.000346714
0.0 0.0 -0.00160516
0.000145773 7.67071e-05 -0.000716647
0.0 0.0 -0.000346714
0.0 0.0 -0.000346714
-6.28115e-05 -3.61513e-05 -9.40532e-05
0.0 0.0 -0.00160516
-8.50572e-05 -5.25955e-05 -3.70383e-05
0.0 0.0 -0.000346714
0.0 0.0 -0.000346714
-0.000227066 9.86564e-05 -0.000652221
-8.8723e-05 1.95018e-05 -3.47008e-05
-8.53556e-05 1.87819e-05 -4.16436e-05
-0.0105242 0.0113488 -0.0066434
-7.48286e-05 -3.26188e-06 -7.19523e-05
-9.50582e-05 -2.55055e-06 -2.78037e-05
-0.000385454 -0.000104621 -0.000288044
0.0 0.0 -0.000346714
0.0 0.0 -0.000346714
0.0 0.0 -0.000346714
0.0 0.0 -0.00160516
-0.00036624 -0.000195715 0.000771387
0.0 0.0 -0.000346714
0.0107671 -0.0117564 0.00927552
0.0 0.0 -0.000346714
0.0 0.0 -0.00160516
-0.00479367 0.00692293 -0.00899566
-8.78281e-05 -1.39274e-06 -3.63943e-05
0.0 0.0 -0.000346714
0.000926895 0.00032662 -0.00342021
0.0 0.0 -0.000346714
-8.96158e-05 3.68644e-07 -3.85278e-05
0.00770552 -0.0106985 0.0115184
-8.95137e-05 3.72418e-07 -3.89911e-05
-9.11988e-05 5.07462e-07 -2.77502e-05
0.0 0.0 -0.00160516
0.0 0.0 -0.00160516
0.0 0.0 -0.00160516
-7.77433e-05 -1.93504e-05 -5.58766e-05
-0.000105095 -2.69153e-05 -2.50197e-07
0.0 0.0 -0.000346714
0.0 0.0 -0.000346714
-8.62899e-05 2.48621e-05 -3.85853e-05
2.27381e-05 -4.00091e-06 -1.90386e-05
-8.77565e-05 1.4147e-06 -3.64998e-05
-8.86963e-05 -1.95398e-05 -4.03286e-05
0.0 0.0 -0.00160516
-0.000411171 -9.06113e-05 -0.000184898
0.000799137 -0.000951922 0.0128181
-0.00039936 -9.88521e-05 -0.000179389
-5.47679e-05 6.8581e-05 -0.000109241
-0.000212111 0.000199465 -0.000539064
-8.6398e-05 2.48967e-05 -3.82937e-05
-8.96601e-05 3.15538e-06 -3.84994e-05
-7.58202e-05 2.70419e-06 -7.90709e-05
0.0 0.0 -0.00160516
-9.15436e-05 3.24001e-06 -3.5938e-05
0.0 0.0 -0.00160516
4.60789e-05 -0.00012818 0.00043044
-0.000497268 0.000142511 2.89628e-05
0.0 0.0 -0.000346714
-9.62998e-05 4.37072e-06 0.000180079
0.0 0.0 -0.000346714
2.20857e-05 -3.63789e-05 3.27945e-06
0.0 0.0 -0.00160516
2.66919e-05 -5.45832e-05 8.46241e-05
0.0 0.0 -0.000346714
-8.7018e-05 -1.97271e-05 -1.74543e-05
0.0 0.0 -0.00160516
0.0 0.0 -0.000346714
-9.09208e-05 3.86062e-07 -3.65592e-05
-0.00012553 4.63566e-06 6.507e-05
0.000498698 0.000156995 -0.00210315
0.0 0.0 -0.00160516