# vtk DataFile Version 2.0
Generated by lpp.py
ASCII
DATASET POLYDATA
POINTS 577 float
-0.413113 -0.0226947 -0.306903
-0.390197 0.00411372 -0.280391
-0.428611 0.054024 -0.274543
-0.372185 -0.0127595 -0.267113
-0.358876 -0.0111437 -0.262055
-0.361634 -0.00722305 -0.260896
-0.368609 0.0296736 -0.26122
-0.350215 0.00900891 -0.254475
-0.339349 -0.00849024 -0.24814
-0.323465 -0.00702062 -0.242077
-0.332361 0.0165829 -0.245063
-0.338132 0.02734 -0.245311
-0.341307 0.0325954 -0.244911
-0.318271 0.0154287 -0.23906
-0.328742 0.0268331 -0.241046
-0.326018 0.0272402 -0.23968
-0.309331 -0.000159648 -0.236569
-0.312258 0.00190214 -0.237694
-0.313208 0.00634711 -0.237814
-0.30744 0.00947873 -0.235188
-0.309873 0.0126521 -0.235964
-0.326809 0.0354718 -0.236119
-0.371017 -0.0633247 -0.234297
-0.304948 -0.0144187 -0.233657
-0.30283 -0.0123763 -0.23305
-0.300791 0.00828973 -0.232457
-0.30688 0.0137492 -0.233344
-0.302414 0.0167685 -0.232178
-0.317652 0.0300247 -0.234259
-0.311737 0.0289182 -0.233359
-0.311839 -0.0351672 -0.230171
-0.302377 -0.0246931 -0.230235
-0.303851 -0.0208578 -0.230924
-0.288838 -0.00590562 -0.227722
-0.319269 0.0470505 -0.228752
-0.281314 -0.00178149 -0.224688
-0.287158 0.00221733 -0.227093
-0.288717 0.00717666 -0.226348
-0.315789 0.0481602 -0.226871
-0.28173 -0.0152722 -0.222777
-0.27421 -0.00792714 -0.221481
-0.276343 0.00233553 -0.221219
-0.277421 0.00616799 -0.22276
-0.273902 0.00764395 -0.221227
-0.275066 0.0123283 -0.22144
-0.273813 -0.0197471 -0.218731
-0.270251 0.0225951 -0.217772
-0.279505 0.0266812 -0.219635
-0.265559 -0.0202623 -0.215094
-0.26122 -0.0111652 -0.215707
-0.262548 0.00137853 -0.216751
-0.260965 0.00948304 -0.215694
-0.276044 0.0325891 -0.216398
-0.251008 -0.0122639 -0.211291
-0.257882 -0.00837656 -0.213457
-0.246467 0.00326483 -0.209854
-0.265168 0.0309902 -0.212479
-0.24675 -0.0230383 -0.207858
-0.247978 -0.0137826 -0.208646
-0.238661 0.00869605 -0.206367
-0.243323 0.0198525 -0.206969
-0.259434 0.0372494 -0.209521
-0.283108 0.0581417 -0.208012
-0.274361 -0.0567796 -0.205945
-0.238481 0.00470937 -0.20534
-0.23621 0.0113574 -0.205179
-0.237574 0.019944 -0.204579
-0.264642 -0.0527535 -0.202812
-0.230026 -0.0241876 -0.199498
-0.225754 -0.0140898 -0.200095
-0.252511 -0.00596823 -0.203984
-0.230596 0.0016789 -0.202122
-0.243989 0.0114624 -0.201399
-0.230268 0.0138718 -0.202309
-0.227604 0.0129654 -0.20127
-0.223905 0.0117822 -0.199907
-0.228142 0.0209594 -0.200498
-0.243005 0.0390873 -0.202091
-0.227543 -0.0330159 -0.197683
-0.224106 -0.0330739 -0.196214
-0.221839 -0.0304684 -0.19581
-0.219037 -0.0146394 -0.197473
-0.219571 0.00625811 -0.19845
-0.216859 0.00449073 -0.197317
-0.224818 0.00913874 -0.197809
-0.220173 0.0225424 -0.195904
-0.226324 0.0269658 -0.198542
-0.223639 0.0311687 -0.196396
-0.212651 -0.0183081 -0.1944
-0.210321 -0.00789017 -0.194478
-0.206358 -0.00787454 -0.192809
-0.213511 -0.00465692 -0.194956
-0.215679 0.0155641 -0.194857
-0.209845 0.0200604 -0.193009
-0.21667 0.0319031 -0.193379
-0.219578 0.0340655 -0.194056
-0.256726 -0.0621278 -0.191521
-0.213823 -0.0278978 -0.191995
-0.208193 -0.0242318 -0.191572
-0.201115 -0.00303228 -0.19075
-0.206883 0.00254871 -0.192088
-0.199263 0.00209547 -0.18888
-0.202009 0.00748659 -0.189831
-0.204737 0.0116964 -0.190687
-0.196249 -0.022337 -0.185867
-0.194768 -0.0114098 -0.187609
-0.190922 -0.0105926 -0.185017
-0.192199 -0.00574627 -0.186952
-0.197239 0.00476834 -0.186604
-0.19096 0.00343229 -0.186496
-0.193895 0.00706416 -0.18656
-0.199518 0.0201465 -0.188706
-0.196016 -0.0404518 -0.182459
-0.1931 -0.0268609 -0.183703
-0.179579 -0.00252697 -0.181616
-0.21439 0.000945623 -0.185124
-0.181599 0.00378036 -0.182581
-0.186607 0.0107935 -0.184186
-0.186262 0.0138914 -0.18377
-0.20231 -0.0505782 -0.18144
-0.188039 -0.0373271 -0.179167
-0.187054 -0.0337475 -0.180674
-0.180742 -0.029394 -0.179051
-0.189344 -0.0129517 -0.180902
-0.18099 -0.00758701 -0.181032
-0.175635 -0.00821878 -0.178795
-0.175588 -0.00407213 -0.179913
-0.170812 -0.00700515 -0.177852
-0.172186 0.00214319 -0.177526
-0.182948 0.0101208 -0.181638
-0.177245 0.00988301 -0.180182
-0.179053 0.0139017 -0.179665
-0.197746 0.043817 -0.180845
-0.236522 -0.0774113 -0.17656
-0.186948 -0.00707042 -0.175266
-0.168732 -0.00890225 -0.176595
-0.168648 -0.00463841 -0.177048
-0.165771 -0.00560329 -0.174074
-0.172376 -0.00312832 -0.177524
-0.16614 -0.00173123 -0.176018
-0.167812 0.0050547 -0.175623
-0.172275 0.016129 -0.177562
-0.175601 0.0285349 -0.175958
-0.178712 0.0353906 -0.175855
-0.184673 0.0406728 -0.176558
-0.19004 0.044531 -0.17598
-0.18764 0.044146 -0.177733
-0.173437 -0.0296605 -0.173905
-0.163888 -0.0263503 -0.172672
-0.191791 -0.0213649 -0.172221
-0.162295 -0.0189726 -0.172166
-0.162591 -0.0123903 -0.172991
-0.169175 -0.00252854 -0.174015
-0.170254 0.00172947 -0.171658
-0.158301 0.000686492 -0.171594
-0.160605 0.00577937 -0.173678
-0.156284 0.0102741 -0.171384
-0.159816 0.018302 -0.172329
-0.166073 0.0298479 -0.172826
-0.190483 0.0355149 -0.173139
-0.168983 0.0315618 -0.173721
-0.189056 0.0576421 -0.172903
-0.160427 -0.0325445 -0.169937
-0.151985 -0.019237 -0.168894
-0.159666 -0.0147238 -0.17099
-0.14729 -0.0162718 -0.16729
-0.151548 -0.00968564 -0.169613
-0.148436 -0.00603629 -0.168502
-0.153844 -0.000798861 -0.169519
-0.155212 0.00469605 -0.170276
-0.153838 0.0101526 -0.169015
-0.157384 0.00913229 -0.168778
-0.147546 0.00827536 -0.168027
-0.173604 0.014709 -0.171669
-0.147063 0.0138039 -0.16734
-0.157629 0.0140778 -0.170715
-0.158264 0.0206924 -0.171188
-0.156669 -0.0345053 -0.166942
-0.151253 -0.0295938 -0.165807
-0.192167 -0.00516703 -0.168401
-0.163367 -0.00379826 -0.168598
-0.144331 -0.00515619 -0.165761
-0.146013 0.003444 -0.166393
-0.141521 0.00175963 -0.164559
-0.160645 0.00927455 -0.166604
-0.138089 0.00737259 -0.164014
-0.147054 0.0167836 -0.166998
-0.147027 0.0197762 -0.166377
-0.16004 -0.0504355 -0.163558
-0.14306 -0.031603 -0.163052
-0.13901 -0.0225254 -0.161923
-0.135149 -0.0202153 -0.161713
-0.13734 -0.0163167 -0.163085
-0.139749 -0.01279 -0.163327
-0.134453 -0.00643474 -0.161513
-0.133423 -5.85807e-05 -0.162337
-0.13343 0.00848149 -0.162013
-0.137924 0.0147174 -0.163457
-0.134535 0.0133797 -0.1621
-0.148745 0.0428939 -0.162099
-0.129866 -0.0183664 -0.159734
-0.127222 -0.0158295 -0.158926
-0.131259 -0.0140509 -0.159697
-0.134511 -0.00790025 -0.156492
-0.120748 -0.009516 -0.156587
-0.12767 -0.00711555 -0.159761
-0.123972 -0.00632105 -0.158229
-0.130665 2.3452e-05 -0.157028
-0.128122 0.00337571 -0.159699
-0.12711 0.000540985 -0.158216
-0.123231 0.00448512 -0.157016
-0.129971 0.0127198 -0.159208
-0.127458 0.0238855 -0.156795
-0.152001 0.0556483 -0.159126
-0.201291 -0.0878942 -0.154456
-0.173989 -0.0784707 -0.153217
-0.117615 -0.00851228 -0.154113
-0.117762 -0.0044284 -0.155661
-0.122443 -0.00303455 -0.156487
-0.118764 -0.00143008 -0.155996
-0.120646 0.00401087 -0.155365
-0.117897 0.00545765 -0.154227
-0.120102 0.0094645 -0.155392
-0.114922 0.0137668 -0.153864
-0.118645 0.0184194 -0.155012
-0.115928 0.017389 -0.153887
-0.12315 -0.0352179 -0.152848
-0.118676 -0.0200204 -0.152934
-0.106085 -0.0110075 -0.150367
-0.111168 -0.00825957 -0.15268
-0.105435 -0.00704928 -0.150309
-0.118076 -0.0023458 -0.151545
-0.106964 -0.00130127 -0.15001
-0.109368 0.0011049 -0.152126
-0.103556 0.00375183 -0.149501
-0.147544 0.0147258 -0.153827
-0.112085 0.0110572 -0.152858
-0.107487 0.0122934 -0.150834
-0.108973 0.0161776 -0.15009
-0.117488 0.0364233 -0.150204
-0.103047 -0.0276934 -0.147176
-0.100028 -0.0162078 -0.147166
-0.102101 -0.00693276 -0.14782
-0.0937352 -0.00948359 -0.145252
-0.104319 -0.00425054 -0.149725
-0.0981755 -0.00422537 -0.147432
-0.113669 -0.00100889 -0.149081
-0.101059 0.000897694 -0.147515
-0.100899 0.0117272 -0.14811
-0.0971118 0.0122013 -0.146464
-0.103659 0.0162217 -0.147849
-0.0989136 0.015273 -0.146993
-0.113065 0.0415574 -0.148219
-0.114472 0.0456533 -0.146413
-0.0991024 -0.0289758 -0.14523
-0.100944 -0.0143804 -0.143327
-0.0912705 -0.0150787 -0.142772
-0.093527 -0.0126197 -0.144978
-0.0906808 -0.0110466 -0.14388
-0.0949288 -0.00583333 -0.143963
-0.102042 -0.00375758 -0.145407
-0.102661 -0.00095011 -0.142763
-0.0964191 0.000439437 -0.145575
-0.095946 0.00862953 -0.144804
-0.0957557 0.0154316 -0.144528
-0.0892644 0.014642 -0.142983
-0.0882108 -0.0290311 -0.140691
-0.0806591 -0.0197039 -0.13885
-0.0855489 -0.0163353 -0.141335
-0.0959148 -0.0124328 -0.140043
-0.102693 -0.00464135 -0.142078
-0.0981898 0.000472794 -0.140739
-0.0866583 0.00106559 -0.141446
-0.0988723 0.0032864 -0.144214
-0.0839119 0.0188595 -0.139272
-0.0906744 0.0255163 -0.142162
-0.124002 0.0401152 -0.141422
-0.0798463 -0.0364404 -0.135719
-0.0795085 -0.0256357 -0.137334
-0.0766236 -0.0133112 -0.137845
-0.114511 -0.00181005 -0.138693
-0.101779 -0.000478732 -0.138162
-0.0880722 -0.00258084 -0.137458
-0.0779396 -0.00277346 -0.137844
-0.074633 0.013958 -0.136881
-0.0793205 0.0179704 -0.138466
-0.0922041 0.0266895 -0.139657
-0.158462 0.0952653 -0.133392
-0.0775421 -0.0387528 -0.134301
-0.0711985 -0.0299744 -0.133391
-0.0680557 -0.015797 -0.132929
-0.0716641 -0.010871 -0.134789
-0.0650877 -0.0128425 -0.131973
-0.0965406 -0.00874944 -0.134908
-0.0658883 -0.0100439 -0.133483
-0.0618271 -0.0073784 -0.1319
-0.0684337 -0.00631849 -0.133645
-0.0964661 -0.000225927 -0.136261
-0.0675633 0.00525274 -0.134436
-0.0621775 0.0129173 -0.131747
-0.0662911 0.015894 -0.132896
-0.0681186 0.0204741 -0.132441
-0.0804909 0.0233755 -0.135397
-0.0610561 -0.0315437 -0.128859
-0.0838116 -0.0161015 -0.134434
-0.0574355 -0.013085 -0.129524
-0.0853083 -0.0105542 -0.13296
-0.0778392 -0.00847372 -0.129782
-0.0947889 -0.00270697 -0.131543
-0.0668272 -0.00503595 -0.129738
-0.059389 -0.00342807 -0.127893
-0.103254 -0.00176515 -0.13336
-0.0628346 -0.002745 -0.131448
-0.0653206 0.00566132 -0.132518
-0.0631605 0.0206633 -0.131194
-0.0721428 0.0280547 -0.131104
-0.154535 -0.0992513 -0.127579
-0.0515784 -0.0273634 -0.124598
-0.0659289 -0.025124 -0.127792
-0.0591524 -0.0183175 -0.128685
-0.0864364 -0.011001 -0.126904
[...]
POINT_DATA 577
VECTORS i float
0.0 0.0 0.0
0.0 0.0 0.0
0.0 0.0 0.0
0.0 0.0 0.0
0.0 0.0 0.0
0.0 0.0 0.0
0.0 0.0 0.0
0.0 0.0 0.0
0.0 0.0 0.0
0.0 0.0 0.0
0.0 0.0 0.0
0.0 0.0 0.0
0.0 0.0 0.0
0.0 0.0 0.0
0.0 0.0 0.0
0.0 0.0 0.0
0.0 0.0 0.0
0.0 0.0 0.0
0.0 0.0 0.0
0.0 0.0 0.0
0.0 0.0 0.0
0.0 0.0 0.0
0.0 0.0 0.0
0.0 0.0 0.0
0.0 0.0 0.0
0.0 0.0 0.0
0.0 0.0 0.0
0.0 0.0 0.0
0.0 0.0 0.0
0.0 0.0 0.0
0.0 0.0 0.0
0.0 0.0 0.0
0.0 0.0 0.0
0.0 0.0 0.0
0.0 0.0 0.0
0.0 0.0 0.0
0.0 0.0 0.0
0.0 0.0 0.0
0.0 0.0 0.0
0.0 0.0 0.0
0.0 0.0 0.0
0.0 0.0 0.0
0.0 0.0 0.0
0.0 0.0 0.0
0.0 0.0 0.0
0.0 0.0 0.0
0.0 0.0 0.0
0.0 0.0 0.0
0.0 0.0 0.0
0.0 0.0 0.0
0.0 0.0 0.0
0.0 0.0 0.0
0.0 0.0 0.0
0.0 0.0 0.0
0.0 0.0 0.0
0.0 0.0 0.0
0.0 0.0 0.0
0.0 0.0 0.0
0.0 0.0 0.0
0.0 0.0 0.0
0.0 0.0 0.0
0.0 0.0 0.0
0.0 0.0 0.0
0.0 0.0 0.0
0.0 0.0 0.0
0.0 0.0 0.0
0.0 0.0 0.0
0.0 0.0 0.0
0.0 0.0 0.0
0.0 0.0 0.0
0.0 0.0 0.0
0.0 0.0 0.0
0.0 0.0 0.0
0.0 0.0 0.0
0.0 0.0 0.0
0.0 0.0 0.0
0.0 0.0 0.0
0.0 0.0 0.0
0.0 0.0 0.0
0.0 0.0 0.0
0.0 0.0 0.0
0.0 0.0 0.0
0.0 0.0 0.0
0.0 0.0 0.0
0.0 0.0 0.0
0.0 0.0 0.0
0.0 0.0 0.0
0.0 0.0 0.0
0.0 0.0 0.0
0.0 0.0 0.0
0.0 0.0 0.0
0.0 0.0 0.0
0.0 0.0 0.0
0.0 0.0 0.0
0.0 0.0 0.0
0.0 0.0 0.0
0.0 0.0 0.0
0.0 0.0 0.0
0.0 0.0 0.0
0.0 0.0 0.0
0.0 0.0 0.0
0.0 0.0 0.0
0.0 0.0 0.0
0.0 0.0 0.0
0.0 0.0 0.0
0.0 0.0 0.0
0.0 0.0 0.0
0.0 0.0 0.0
0.0 0.0 0.0
0.0 0.0 0.0
0.0 0.0 0.0
0.0 0.0 0.0
0.0 0.0 0.0
0.0 0.0 0.0
0.0 0.0 0.0
0.0 0.0 0.0
0.0 0.0 0.0
0.0 0.0 0.0
0.0 0.0 0.0
0.0 0.0 0.0
0.0 0.0 0.0
0.0 0.0 0.0
0.0 0.0 0.0
0.0 0.0 0.0
0.0 0.0 0.0
0.0 0.0 0.0
0.0 0.0 0.0
0.0 0.0 0.0
0.0 0.0 0.0
0.0 0.0 0.0
0.0 0.0 0.0
0.0 0.0 0.0
0.0 0.0 0.0
0.0 0.0 0.0
0.0 0.0 0.0
0.0 0.0 0.0
0.0 0.0 0.0
0.0 0.0 0.0
0.0 0.0 0.0
0.0 0.0 0.0
0.0 0.0 0.0
0.0 0.0 0.0
0.0 0.0 0.0
0.0 0.0 0.0
0.0 0.0 0.0
0.0 0.0 0.0
0.0 0.0 0.0
0.0 0.0 0.0
0.0 0.0 0.0
0.0 0.0 0.0
0.0 0.0 0.0
0.0 0.0 0.0
0.0 0.0 0.0
0.0 0.0 0.0
0.0 0.0 0.0
0.0 0.0 0.0
0.0 0.0 0.0
0.0 0.0 0.0
0.0 0.0 0.0
0.0 0.0 0.0
0.0 0.0 0.0
0.0 0.0 0.0
0.0 0.0 0.0
0.0 0.0 0.0
0.0 0.0 0.0
0.0 0.0 0.0
0.0 0.0 0.0
0.0 0.0 0.0
0.0 0.0 0.0
0.0 0.0 0.0
0.0 0.0 0.0
0.0 0.0 0.0
0.0 0.0 0.0
0.0 0.0 0.0
0.0 0.0 0.0
0.0 0.0 0.0
0.0 0.0 0.0
0.0 0.0 0.0
0.0 0.0 0.0
0.0 0.0 0.0
0.0 0.0 0.0
0.0 0.0 0.0
0.0 0.0 0.0
0.0 0.0 0.0
0.0 0.0 0.0
0.0 0.0 0.0
0.0 0.0 0.0
0.0 0.0 0.0
0.0 0.0 0.0
0.0 0.0 0.0
0.0 0.0 0.0
0.0 0.0 0.0
0.0 0.0 0.0
0.0 0.0 0.0
0.0 0.0 0.0
0.0 0.0 0.0
0.0 0.0 0.0
0.0 0.0 0.0
0.0 0.0 0.0
0.0 0.0 0.0
0.0 0.0 0.0
0.0 0.0 0.0
0.0 0.0 0.0
0.0 0.0 0.0
0.0 0.0 0.0
0.0 0.0 0.0
0.0 0.0 0.0
0.0 0.0 0.0
0.0 0.0 0.0
0.0 0.0 0.0
0.0 0.0 0.0
0.0 0.0 0.0
0.0 0.0 0.0
0.0 0.0 0.0
0.0 0.0 0.0
0.0 0.0 0.0
0.0 0.0 0.0
0.0 0.0 0.0
0.0 0.0 0.0
0.0 0.0 0.0
0.0 0.0 0.0
0.0 0.0 0.0
0.0 0.0 0.0
0.0 0.0 0.0
0.0 0.0 0.0
0.0 0.0 0.0
0.0 0.0 0.0
0.0 0.0 0.0
0.0 0.0 0.0
0.0 0.0 0.0
0.0 0.0 0.0
0.0 0.0 0.0
0.0 0.0 0.0
0.0 0.0 0.0
0.0 0.0 0.0
0.0 0.0 0.0
0.0 0.0 0.0
0.0 0.0 0.0
0.0 0.0 0.0
0.0 0.0 0.0
0.0 0.0 0.0
0.0 0.0 0.0
0.0 0.0 0.0
0.0 0.0 0.0
0.0 0.0 0.0
0.0 0.0 0.0
0.0 0.0 0.0
0.0 0.0 0.0
0.0 0.0 0.0
0.0 0.0 0.0
0.0 0.0 0.0
0.0 0.0 0.0
0.0 0.0 0.0
0.0 0.0 0.0
0.0 0.0 0.0
0.0 0.0 0.0
0.0 0.0 0.0
0.0 0.0 0.0
0.0 0.0 0.0
0.0 0.0 0.0
0.0 0.0 0.0
0.0 0.0 0.0
0.0 0.0 0.0
0.0 0.0 0.0
0.0 0.0 0.0
0.0 0.0 0.0
0.0 0.0 0.0
0.0 0.0 0.0
0.0 0.0 0.0
0.0 0.0 0.0
0.0 0.0 0.0
0.0 0.0 0.0
0.0 0.0 0.0
0.0 0.0 0.0
0.0 0.0 0.0
0.0 0.0 0.0
0.0 0.0 0.0
0.0 0.0 0.0
0.0 0.0 0.0
0.0 0.0 0.0
0.0 0.0 0.0
0.0 0.0 0.0
0.0 0.0 0.0
0.0 0.0 0.0
0.0 0.0 0.0
0.0 0.0 0.0
0.0 0.0 0.0
0.0 0.0 0.0
0.0 0.0 0.0
0.0 0.0 0.0
0.0 0.0 0.0
0.0 0.0 0.0
0.0 0.0 0.0
0.0 0.0 0.0
0.0 0.0 0.0
0.0 0.0 0.0
0.0 0.0 0.0
0.0 0.0 0.0
0.0 0.0 0.0
0.0 0.0 0.0
0.0 0.0 0.0
0.0 0.0 0.0
0.0 0.0 0.0
0.0 0.0 0.0
0.0 0.0 0.0
0.0 0.0 0.0
0.0 0.0 0.0
0.0 0.0 0.0
0.0 0.0 0.0
0.0 0.0 0.0
0.0 0.0 0.0
0.0 0.0 0.0
0.0 0.0 0.0
0.0 0.0 0.0
0.0 0.0 0.0
0.0 0.0 0.0
0.0 0.0 0.0
0.0 0.0 0.0
0.0 0.0 0.0
0.0 0.0 0.0
0.0 0.0 0.0
0.0 0.0 0.0
0.0 0.0 0.0
0.0 0.0 0.0
0.0 0.0 0.0
0.0 0.0 0.0
0.0 0.0 0.0
0.0 0.0 0.0
0.0 0.0 0.0
0.0 0.0 0.0
0.0 0.0 0.0
0.0 0.0 0.0
0.0 0.0 0.0
0.0 0.0 0.0
0.0 0.0 0.0
0.0 0.0 0.0
0.0 0.0 0.0
0.0 0.0 0.0
0.0 0.0 0.0
0.0 0.0 0.0
0.0 0.0 0.0
0.0 0.0 0.0
0.0 0.0 0.0
0.0 0.0 0.0
0.0 0.0 0.0
0.0 0.0 0.0
0.0 0.0 0.0
0.0 0.0 0.0
0.0 0.0 0.0
0.0 0.0 0.0
0.0 0.0 0.0
0.0 0.0 0.0
0.0 0.0 0.0
0.0 0.0 0.0
0.0 0.0 0.0
0.0 0.0 0.0
0.0 0.0 0.0
0.0 0.0 0.0
0.0 0.0 0.0
0.0 0.0 0.0
0.0 0.0 0.0
0.0 0.0 0.0
0.0 0.0 0.0
0.0 0.0 0.0
0.0 0.0 0.0
0.0 0.0 0.0
0.0 0.0 0.0
0.0 0.0 0.0
0.0 0.0 0.0
0.0 0.0 0.0
0.0 0.0 0.0
0.0 0.0 0.0
0.0 0.0 0.0
0.0 0.0 0.0
0.0 0.0 0.0
0.0 0.0 0.0
0.0 0.0 0.0
0.0 0.0 0.0
0.0 0.0 0.0
0.0 0.0 0.0
0.0 0.0 0.0
0.0 0.0 0.0
0.0 0.0 0.0
0.0 0.0 0.0
0.0 0.0 0.0
0.0 0.0 0.0
0.0 0.0 0.0
0.0 0.0 0.0
0.0 0.0 0.0
0.0 0.0 0.0
0.0 0.0 0.0
0.0 0.0 0.0
0.0 0.0 0.0
0.0 0.0 0.0
0.0 0.0 0.0
0.0 0.0 0.0
0.0 0.0 0.0
0.0 0.0 0.0
0.0 0.0 0.0
0.0 0.0 0.0
0.0 0.0 0.0
0.0 0.0 0.0
0.0 0.0 0.0
0.0 0.0 0.0
0.0 0.0 0.0
0.0 0.0 0.0
0.0 0.0 0.0
0.0 0.0 0.0
0.0 0.0 0.0
0.0 0.0 0.0
0.0 0.0 0.0
0.0 0.0 0.0
0.0 0.0 0.0
0.0 0.0 0.0
0.0 0.0 0.0
0.0 0.0 0.0
0.0 0.0 0.0
0.0 0.0 0.0
0.0 0.0 0.0
0.0 0.0 0.0
0.0 0.0 0.0
0.0 0.0 0.0
0.0 0.0 0.0
0.0 0.0 0.0
0.0 0.0 0.0
0.0 0.0 0.0
0.0 0.0 0.0
0.0 0.0 0.0
0.0 0.0 0.0
0.0 0.0 0.0
0.0 0.0 0.0
0.0 0.0 0.0
0.0 0.0 0.0
0.0 0.0 0.0
0.0 0.0 0.0
0.0 0.0 0.0
0.0 0.0 0.0
0.0 0.0 0.0
0.0 0.0 0.0
0.0 0.0 0.0
0.0 0.0 0.0
0.0 0.0 0.0
0.0 0.0 0.0
0.0 0.0 0.0
0.0 0.0 0.0
0.0 0.0 0.0
0.0 0.0 0.0
0.0 0.0 0.0
0.0 0.0 0.0
0.0 0.0 0.0
0.0 0.0 0.0
0.0 0.0 0.0
0.0 0.0 0.0
0.0 0.0 0.0
0.0 0.0 0.0
0.0 0.0 0.0
0.0 0.0 0.0
0.0 0.0 0.0
0.0 0.0 0.0
0.0 0.0 0.0
0.0 0.0 0.0
0.0 0.0 0.0
0.0 0.0 0.0
0.0 0.0 0.0
0.0 0.0 0.0
0.0 0.0 0.0
0.0 0.0 0.0
0.0 0.0 0.0
0.0 0.0 0.0
0.0 0.0 0.0
0.0 0.0 0.0
0.0 0.0 0.0
0.0 0.0 0.0
0.0 0.0 0.0
0.0 0.0 0.0
0.0 0.0 0.0
0.0 0.0 0.0
0.0 0.0 0.0
0.0 0.0 0.0
0.0 0.0 0.0
0.0 0.0 0.0
0.0 0.0 0.0
0.0 0.0 0.0
0.0 0.0 0.0
0.0 0.0 0.0
0.0 0.0 0.0
0.0 0.0 0.0
0.0 0.0 0.0
0.0 0.0 0.0
0.0 0.0 0.0
0.0 0.0 0.0
0.0 0.0 0.0
0.0 0.0 0.0
0.0 0.0 0.0
0.0 0.0 0.0
0.0 0.0 0.0
0.0 0.0 0.0
0.0 0.0 0.0
0.0 0.0 0.0
0.0 0.0 0.0
0.0 0.0 0.0
0.0 0.0 0.0
0.0 0.0 0.0
0.0 0.0 0.0
0.0 0.0 0.0
0.0 0.0 0.0
0.0 0.0 0.0
0.0 0.0 0.0
0.0 0.0 0.0
0.0 0.0 0.0
0.0 0.0 0.0
0.0 0.0 0.0
0.0 0.0 0.0
0.0 0.0 0.0
0.0 0.0 0.0
0.0 0.0 0.0
0.0 0.0 0.0
0.0 0.0 0.0
0.0 0.0 0.0
0.0 0.0 0.0
0.0 0.0 0.0
0.0 0.0 0.0
0.0 0.0 0.0
0.0 0.0 0.0
0.0 0.0 0.0
0.0 0.0 0.0
0.0 0.0 0.0
0.0 0.0 0.0
0.0 0.0 0.0
0.0 0.0 0.0
0.0 0.0 0.0
0.0 0.0 0.0
0.0 0.0 0.0
0.0 0.0 0.0
0.0 0.0 0.0
0.0 0.0 0.0
0.0 0.0 0.0
0.0 0.0 0.0
0.0 0.0 0.0
0.0 0.0 0.0
0.0 0.0 0.0
0.0 0.0 0.0
0.0 0.0 0.0
0.0 0.0 0.0
0.0 0.0 0.0
0.0 0.0 0.0
0.0 0.0 0.0
0.0 0.0 0.0
0.0 0.0 0.0
0.0 0.0 0.0
0.0 0.0 0.0
0.0 0.0 0.0
0.0 0.0 0.0
0.0 0.0 0.0
0.0 0.0 0.0
0.0 0.0 0.0
0.0 0.0 0.0
0.0 0.0 0.0
0.0 0.0 0.0
0.0 0.0 0.0
0.0 0.0 0.0
0.0 0.0 0.0
0.0 0.0 0.0
0.0 0.0 0.0
0.0 0.0 0.0
0.0 0.0 0.0
0.0 0.0 0.0
0.0 0.0 0.0
0.0 0.0 0.0
0.0 0.0 0.0
0.0 0.0 0.0
0.0 0.0 0.0
0.0 0.0 0.0
0.0 0.0 0.0
0.0 0.0 0.0
0.0 0.0 0.0
0.0 0.0 0.0
VECTORS f float
0.0 0.0 -0.000346714
0.0 0.0 -0.000346714
0.0 0.0 -0.000346714
0.0 0.0 -0.00160516
0.0 0.0 -0.000346714
0.0 0.0 -0.000346714
0.0 0.0 -0.000346714
0.0 0.0 -0.00160516
0.0 0.0 -0.00160516
0.0 0.0 -0.000346714
0.0 0.0 -0.000346714
0.0 0.0 -0.000346714
0.0 0.0 -0.000346714
-8.53249e-05 -3.98053e-05 -4.38763e-05
0.0 0.0 -0.000346714
0.0 0.0 -0.000346714
-8.86197e-05 7.30855e-06 -3.76563e-05
-6.40389e-05 -5.98207e-06 -0.000109617
-8.90438e-05 -1.33842e-05 -3.41043e-05
-0.000108797 -1.43615e-05 1.16234e-05
0.0 0.0 -0.000346714
0.0 0.0 -0.00160516
0.0 0.0 -0.000346714
-0.000169734 6.22955e-05 0.000199355
-8.56658e-05 2.22968e-05 -4.39219e-05
-9.52189e-05 -1.44435e-05 -2.17966e-05
0.0 0.0 -0.00160516
-9.4746e-05 -4.07559e-05 -2.52642e-05
-0.000500293 -0.000422517 9.31002e-05
-8.22398e-05 -7.01143e-05 -4.45485e-05
0.0 0.0 -0.00160516
0.0 0.0 -0.000346714
0.0 0.0 -0.00160516
-9.30725e-05 7.5941e-06 -2.56058e-05
-4.0443e-05 -6.00927e-05 -0.000116932
-8.76324e-05 6.95193e-06 -4.0116e-05
-6.29276e-05 -1.54904e-05 -9.95138e-05
-0.000313523 -4.78326e-05 -0.000378032
0.0 0.0 -0.000346714
-0.000353464 9.07051e-05 -0.000311981
-8.86374e-05 8.12441e-06 -3.85558e-05
0.0 0.0 -0.00160516
0.0 0.0 -0.000346714
-2.716e-05 3.39741e-07 -0.000243641
0.0 0.0 -0.000346714
-0.000329491 0.000155219 -0.000274381
-2.58288e-05 -1.36445e-05 -9.20107e-05
-0.00054762 -0.000402013 0.000167512
0.0 0.0 -0.00160516
-8.08508e-05 2.36209e-05 -2.94975e-05
-8.33066e-05 -9.15728e-06 -5.14642e-05
0.0 0.0 -0.000346714
0.0 0.0 -0.00160516
0.0 0.0 -0.000346714
-0.000120659 1.48951e-05 -0.000636845
-9.81799e-05 -9.05505e-06 -1.51017e-05
-0.000770278 -0.000456589 0.000266241
0.0 0.0 -0.000346714
0.0 0.0 -0.00160516
-8.78058e-05 -6.88784e-06 -3.68769e-05
-8.62901e-05 -2.96707e-05 -3.8921e-05
0.000685317 -0.000389612 0.00138246
-7.07316e-05 -0.000140745 -2.92069e-05
0.0 0.0 -0.000346714
-0.000420888 -3.31398e-05 -0.000130844
-8.68343e-05 -2.75293e-05 -4.36149e-05
-0.000105068 -3.69015e-05 1.40474e-05
0.0 0.0 -0.000346714
-0.000435025 0.000216713 -8.56879e-05
0.0 0.0 -0.000346714
0.0 0.0 -0.00160516
-0.000405562 -2.36008e-05 -0.000200489
0.0 0.0 -0.00160516
0.0 0.0 -0.000346714
0.0 0.0 -0.000346714
-8.84566e-05 -2.53533e-05 -4.04048e-05
-8.71307e-05 -2.73789e-05 -3.69226e-05
0.0 0.0 -0.000346714
-0.000113118 5.72485e-05 5.9547e-06
0.000105075 0.00017236 0.00088238
0.0 0.0 -0.000346714
-7.76445e-05 1.67177e-05 -6.33088e-05
-9.08194e-05 -4.33537e-06 -3.02777e-05
0.0 0.0 -0.000346714
0.0 0.0 -0.000346714
0.000176442 8.27075e-05 -0.00197257
-7.72501e-05 -4.37207e-05 -6.66601e-05
-8.33709e-05 -4.8253e-05 -4.30745e-05
-7.72903e-05 1.85874e-05 -6.80644e-05
-0.000112888 2.06922e-05 -0.000186172
-8.66409e-05 2.19839e-05 -3.81545e-05
-0.000398064 -1.13137e-05 -0.00018223
-0.000415124 -0.000117366 -0.000138259
-6.4927e-05 -1.77716e-05 -9.31296e-05
5.79444e-06 4.2686e-06 -0.000236746
-7.57248e-05 -4.36489e-05 -6.27716e-05
0.0 0.0 -0.000346714
-0.00130739 0.000501992 0.00198251
0.0 0.0 -0.000346714
-8.47257e-05 3.54856e-07 -4.88267e-05
-0.000420071 -6.4591e-06 -0.000172201
-0.000491566 3.079e-06 0.00015354
0.0 0.0 -0.00160516
0.00326896 -0.00247705 0.00356069
-0.000648201 0.000177043 0.00250322
0.0 0.0 -0.000346714
-0.000429862 9.30495e-05 -0.000192936
-0.000381793 3.25775e-06 0.000714652
0.0 0.0 -0.000346714
-8.63817e-05 1.39453e-06 -3.95446e-05
-0.000391293 -8.60358e-05 -0.000236159
-8.65959e-05 -2.14207e-05 -3.825e-05
0.0 0.0 -0.000346714
-0.00158694 0.000910393 0.00246798
-8.8109e-05 3.95519e-06 -3.73888e-05
0.0 0.0 -0.000346714
-8.8162e-05 3.96198e-06 -3.69714e-05
-8.67893e-05 -1.87094e-05 -3.92798e-05
4.33712e-05 0.000953476 0.00596556
-7.04461e-05 8.75346e-05 -7.19003e-05
-0.00364064 0.00304611 0.00757988
-4.99605e-05 1.77165e-05 -0.000108876
-9.92477e-07 0.000138985 -8.82221e-05
1.47227e-05 -6.26398e-05 -0.00118662
3.54846e-05 -0.000101212 -0.00117443
-0.000532161 1.81104e-05 0.000131271
0.0 0.0 -0.000346714
0.0 0.0 -0.000346714
7.27012e-05 -0.000237567 0.000120652
-0.000808558 -0.000165103 0.000841287
0.0 0.0 -0.000346714
-0.000432951 -8.70081e-05 -0.000120124
-0.000455789 -0.000387979 -1.63209e-05
-3.47262e-05 0.000117893 -0.000138654
0.0 0.0 -0.000346714
0.0 0.0 -0.000346714
3.06493e-05 1.0505e-05 7.18676e-05
0.0 0.0 -0.00160516
0.000195165 -0.000580783 0.00246128
0.0 0.0 -0.000346714
0.0 0.0 -0.00160516
0.0 0.0 -0.000346714
-0.000367133 -0.000175112 -0.000267034
-0.000371034 -0.000291922 -0.000247848
-0.000363069 -0.000293271 -0.000268357
-0.00320944 0.000267296 0.000193639
0.00359011 -0.000327375 -0.000418393
0.0 0.0 -0.00160516
0.0 0.0 -0.000346714
0.0 0.0 -0.000346714
7.26589e-05 -8.54383e-06 1.41414e-05
0.0 0.0 -0.00160516
0.0 0.0 -0.000346714
0.0 0.0 -0.000346714
0.000124225 -0.000144112 0.00019802
-8.94818e-05 3.83307e-07 -4.07537e-05
0.0 0.0 -0.000346714
-0.000836671 -2.23052e-05 0.00166283
-0.000104746 -5.24966e-05 6.14976e-05
0.0 0.0 -0.000346714
-9.0093e-05 -4.13601e-05 -3.47576e-05
-7.16222e-05 -8.46706e-05 -6.44762e-05
0.0 0.0 -0.000346714
-8.65078e-05 2.53912e-05 -3.78769e-05
0.0 0.0 -0.000346714
-8.77589e-05 2.07956e-05 -4.23845e-05
0.0 0.0 -0.000346714
-8.74481e-05 1.04547e-05 -3.69509e-05
0.0 0.0 -0.00160516
-0.000521534 -1.49079e-05 0.0001019
0.0 0.0 -0.000346714
0.0 0.0 -0.000346714
-9.0303e-05 -5.09956e-06 -3.91638e-05
0.0 0.0 -0.00160516
-8.05934e-05 5.43049e-05 -3.9755e-05
-0.00206325 -0.00106999 0.00441139
0.0 0.0 -0.000346714
-0.00451235 0.00230365 0.00718342
0.0 0.0 -0.00160516
0.0 0.0 -0.00160516
0.0 0.0 -0.00160516
-0.00101833 0.000126246 0.00144275
-0.000335637 -1.81021e-05 -0.000411899
-0.000402299 -3.73353e-05 -0.00016519
0.0 0.0 -0.000346714
-8.51275e-05 -8.02151e-06 -3.64994e-05
-0.000101077 6.08239e-06 -3.6701e-05
0.0 0.0 -0.000346714
0.0 0.0 -0.000346714
-8.51067e-05 4.54441e-05 -4.64862e-05
-0.000406508 0.000140544 -0.000192577
-8.77102e-05 3.03319e-05 -4.17468e-05
-8.68559e-05 1.96339e-05 -3.77757e-05
0.000398964 -0.000129081 -0.00248293
-0.000376024 2.18453e-05 -0.000220276
-0.000269146 2.03151e-05 0.000489436
-8.90365e-05 -1.04268e-05 -4.27392e-05
0.0 0.0 -0.000346714
0.0 0.0 -0.000346714
0.0 0.0 -0.000346714
-5.73052e-08 -6.93419e-08 -0.000347685
-4.77327e-05 8.15257e-06 -0.000107099
-0.000879713 4.10125e-05 0.00164807
0.0 0.0 -0.00160516
0.0 0.0 -0.000346714
-0.000162933 9.15946e-06 0.00017578
0.0 0.0 -0.000346714
0.0 0.0 -0.000346714
0.0 0.0 -0.000346714
0.0 0.0 -0.000346714
0.0 0.0 -0.000346714
-0.000501084 -5.97621e-05 2.01961e-05
-0.000238714 -7.19232e-05 -0.000569781
-7.39522e-05 -7.95398e-05 -6.34316e-05
-5.34194e-05 0.000221025 -0.000138201
-0.000239365 0.000517831 -0.000492183
0.0 0.0 -0.00160516
-8.84453e-05 2.50106e-08 -3.71828e-05
0.0 0.0 -0.00160516
0.0 0.0 -0.000346714
0.0 0.0 -0.000346714
0.0 0.0 -0.000346714
0.0 0.0 -0.000346714
-8.84305e-05 -1.49761e-05 -3.84349e-05
0.0 0.0 -0.000346714
0.0 0.0 -0.000346714
-0.000389784 0.000203053 -0.000201244
0.0 0.0 -0.00160516
-8.51179e-05 1.27177e-05 -4.62568e-05
0.0 0.0 -0.000346714
0.0 0.0 -0.000346714
0.0 0.0 -0.00160516
-0.0121758 0.012227 -0.0117832
-5.26869e-05 -0.000509514 0.0013764
0.0 0.0 -0.000346714
0.0 0.0 -0.000346714
-6.83836e-05 -1.14205e-05 -8.63139e-05
-8.78901e-05 -1.58277e-05 -3.75396e-05
-0.000336643 -5.49743e-05 -0.00034858
0.0 0.0 -0.000346714
-8.47908e-05 4.2371e-05 -4.39278e-05
0.0 0.0 -0.000346714
0.0383658 -0.0278052 -0.00805548
-0.000219815 0.000491066 0.00053621
0.00547402 0.00410024 -0.0126999
2.50061e-05 -9.23642e-06 3.0782e-05
0.0 0.0 -0.00160516
0.0 0.0 -0.00160516
2.2474e-05 -2.42846e-05 7.59306e-06
0.000130438 3.26777e-05 -0.000460293
-0.00041016 -7.42249e-05 -0.000179813
4.54077e-06 -2.21437e-06 -0.000272406
-8.37558e-05 -4.79712e-05 -4.62808e-05
0.0 0.0 -0.000346714
0.0 0.0 -0.000346714
0.0 0.0 -0.00160516
0.0 0.0 -0.00160516
0.000972689 -0.000508007 -0.00135927
-0.000274269 4.25791e-05 0.000364954
0.0 0.0 -0.00160516
-0.031664 0.011478 0.0286349
0.0 0.0 -0.000346714
-0.000920605 0.00501438 0.00423024
0.0 0.0 -0.00160516
0.0 0.0 -0.00160516
5.97328e-05 -5.30388e-05 0.000523771
-8.52862e-05 4.13027e-05 -4.42857e-05
-8.74642e-05 2.56227e-05 -4.07295e-05
-8.73897e-05 2.56438e-05 -4.06268e-05
0.0 0.0 -0.00160516
0.0 0.0 -0.000346714
0.0 0.0 -0.00160516
0.0 0.0 -0.00160516
0.000824418 -0.00286974 -0.0024489
-0.000410163 -8.07239e-05 -0.000179712
0.0 0.0 -0.000346714
0.0 0.0 -0.000346714
-8.5043e-05 4.09471e-05 -4.27283e-05
0.0 0.0 -0.000346714
-5.97919e-05 7.35785e-06 -0.000102366
0.0 0.0 -0.000346714
0.0 0.0 -0.000346714
0.0 0.0 -0.000346714
-0.000674632 -3.5615e-05 0.000622175
-8.83059e-05 -1.87734e-05 -3.95017e-05
0.0 0.0 -0.000346714
0.0 0.0 -0.000346714
0.0 0.0 -0.000346714
-8.48782e-05 4.10261e-05 -4.23581e-05
-8.53439e-05 4.02407e-05 -4.36543e-05
-0.000364961 9.92647e-05 -0.000318627
-0.0004085 4.56673e-05 -0.000173779
0.0 0.0 -0.000346714
0.0 0.0 -0.000346714
8.49789e-05 -8.22847e-06 0.000214492
2.06006e-05 4.08446e-05 4.02983e-06
-0.000381936 4.25896e-05 -0.000234946
0.0 0.0 -0.000346714
-0.000562246 0.000286583 0.0192515
-9.06618e-05 -2.07435e-05 -3.06881e-05
0.0 0.0 -0.000346714
-0.000410976 -8.7339e-05 -0.000178758
0.0 0.0 -0.00160516
-7.47774e-05 3.44077e-05 -6.7057e-05
0.0 0.0 -0.00160516
0.0 0.0 -0.000346714
0.0 0.0 -0.000346714
0.0 0.0 -0.000346714
0.0 0.0 -0.00160516
0.0 0.0 -0.000346714
-0.000971295 -0.000112406 -0.00120619
0.0 0.0 -0.000346714
0.00310479 -0.000459138 -0.00283539
0.00199384 0.000574584 0.00441276
0.0 0.0 -0.000346714
0.0 0.0 -0.00160516
0.0 0.0 -0.000346714
0.000285885 0.000665407 0.00224135
0.0 0.0 -0.000346714
0.0 0.0 -0.00160516
0.0 0.0 -0.00160516
8.67534e-05 9.66542e-05 -0.000280579
0.0 0.0 -0.000346714
-7.17624e-05 -4.72181e-06 -8.80996e-05
0.0 0.0 -0.000346714
0.0 0.0 -0.000346714
0.00199339 0.00156078 -0.0092451
0.000557481 0.000201532 0.0223127
-0.000435974 -0.000222317 -0.000132028
0.0 0.0 -0.00160516
0.0 0.0 -0.00160516
0.0 0.0 -0.000346714
0.0 0.0 -0.00160516
0.0 0.0 -0.000346714
0.0 0.0 -0.000346714
-0.000687436 0.000361502 -0.00257741
0.0 0.0 -0.000346714
0.0 0.0 -0.000346714
0.0 0.0 -0.000346714
0.0 0.0 -0.00160516
0.0 0.0 -0.000346714
0.0 0.0 -0.000346714
0.0 0.0 -0.000346714
0.0 0.0 -0.000346714
-7.01127e-05 -8.28959e-05 -6.43382e-05
0.0 0.0 -0.00160516
0.0 0.0 -0.000346714
0.0 0.0 -0.00160516
0.046803 0.0186907 -0.0337898
0.0 0.0 -0.000346714
0.0 0.0 -0.000346714
0.0 0.0 -0.00160516
0.0 0.0 -0.00160516
0.0 0.0 -0.000346714
0.0 0.0 -0.000346714
0.0 0.0 -0.00160516
0.0 0.0 -0.00160516
0.0 0.0 -0.00160516
0.0 0.0 -0.000346714
0.0 0.0 -0.000346714
0.000130472 -0.000325982 -8.5785e-05
0.0 0.0 -0.000346714
0.0 0.0 -0.00160516
0.0 0.0 -0.000346714
0.0 0.0 -0.000346714
0.0 0.0 -0.00160516
0.0 0.0 -0.00160516
0.0 0.0 -0.000346714
0.0 0.0 -0.000346714
0.0 0.0 -0.000346714
0.0 0.0 -0.00160516
0.0 0.0 -0.00160516
0.0 0.0 -0.000346714
0.0 0.0 -0.00160516
0.0 0.0 -0.000346714
0.0 0.0 -0.00160516
0.0 0.0 -0.000346714
0.0 0.0 -0.00160516
0.0 0.0 -0.000346714
0.0 0.0 -0.00160516
0.0 0.0 -0.00160516
0.0 0.0 -0.00160516
0.0 0.0 -0.000346714
0.0 0.0 -0.000346714
-0.046803 -0.0186907 0.0305795
0.0 0.0 -0.000346714
0.0 0.0 -0.000346714
0.0 0.0 -0.000346714
0.0 0.0 -0.00160516
0.0 0.0 -0.000346714
0.0 0.0 -0.000346714
0.0 0.0 -0.00160516
0.0 0.0 -0.000346714
0.0 0.0 -0.00160516
0.0 0.0 -0.000346714
0.0 0.0 -0.000346714
0.0 0.0 -0.000346714
0.0 0.0 -0.000346714
0.0 0.0 -0.000346714
0.0 0.0 -0.000346714
0.0 0.0 -0.00160516
-8.79221e-05 -2.86596e-05 -3.48271e-05
0.0 0.0 -0.00160516
0.0 0.0 -0.000346714
0.0 0.0 -0.000346714
0.0 0.0 -0.000346714
0.0 0.0 -0.000346714
0.0 0.0 -0.00160516
0.0 0.0 -0.000346714
0.0 0.0 -0.000346714
0.0 0.0 -0.000346714
0.0 0.0 -0.00160516
0.0 0.0 -0.000346714
0.0 0.0 -0.000346714
0.0 0.0 -0.000346714
0.0 0.0 -0.000346714
0.0 0.0 -0.000346714
0.0 0.0 -0.000346714
0.0 0.0 -0.000346714
0.0 0.0 -0.000346714
0.0 0.0 -0.000346714
0.0 0.0 -0.000346714
0.0 0.0 -0.000346714
0.0 0.0 -0.00160516
0.0 0.0 -0.00160516
0.0 0.0 -0.00160516
0.0 0.0 -0.000346714
0.0 0.0 -0.000346714
0.0 0.0 -0.00160516
0.0 0.0 -0.000346714
-1.78669e-06 1.2796e-05 -0.000328079
0.0 0.0 -0.000346714
0.0 0.0 -0.00160516
0.0 0.0 -0.000346714
0.0 0.0 -0.000346714
0.0 0.0 -0.000346714
0.0 0.0 -0.000346714
0.0 0.0 -0.000346714
0.0 0.0 -0.00160516
0.0 0.0 -0.00160516
0.0 0.0 -0.00160516
0.0 0.0 -0.000346714
0.0 0.0 -0.000346714
0.0 0.0 -0.00160516
0.0 0.0 -0.000346714
0.0 0.0 -0.000346714
0.0 0.0 -0.000346714
0.0 0.0 -0.00160516
0.0 0.0 -0.000346714
0.0 0.0 -0.000346714
0.0 0.0 -0.000346714
0.0 0.0 -0.000346714
0.0 0.0 -0.00160516
0.0 0.0 -0.000346714
0.0 0.0 -0.000346714
0.0 0.0 -0.00160516
0.0 0.0 -0.00160516
0.0 0.0 -0.00160516
0.0 0.0 -0.000346714
0.0 0.0 -0.000346714
0.0 0.0 -0.000346714
0.0 0.0 -0.000346714
0.0 0.0 -0.000346714
0.0 0.0 -0.00160516
0.0 0.0 -0.000346714
0.0 0.0 -0.00160516
0.0 0.0 -0.000346714
0.0 0.0 -0.00160516
0.0 0.0 -0.000346714
0.0 0.0 -0.000346714
0.0 0.0 -0.000346714
0.0 0.0 -0.000346714
0.0 0.0 -0.000346714
0.0 0.0 -0.000346714
0.0 0.0 -0.00160516
0.0 0.0 -0.00160516
0.0 0.0 -0.000346714
0.0 0.0 -0.00160516
0.0 0.0 -0.00160516
0.0 0.0 -0.000346714
0.0 0.0 -0.00160516