# vtk DataFile Version 2.0
Generated by lpp.py
ASCII
DATASET POLYDATA
POINTS 141 float
-0.00894204 -0.00172108 -0.1088
-0.0106535 0.00311808 -0.108235
-0.00236065 -0.0293325 -0.103297
-0.0346734 -0.00599195 -0.105957
-0.0241534 0.031784 -0.107526
-0.0255875 0.0216478 -0.103104
-0.00953586 -0.0287916 -0.0993186
-0.00462371 -0.0298822 -0.0953962
-0.0270088 -0.00882918 -0.0955909
-0.0134792 0.0074157 -0.0936874
-0.0266102 0.013684 -0.0937256
-0.0202974 -0.0206343 -0.0895134
-0.00857183 0.0107813 -0.0919705
-0.00408721 0.01129 -0.0894686
-0.0280307 0.022667 -0.0926193
-0.0083641 -0.0195 -0.0880571
-0.0101549 -0.00442827 -0.0861041
-0.0253454 -0.000700049 -0.0871571
-0.0335467 0.0344165 -0.0886251
-0.00454319 -0.0294115 -0.0843406
-0.0333391 -0.019004 -0.0808333
-0.00618745 0.0189444 -0.0808536
-0.0332823 -0.00448395 -0.0757878
-0.00741847 0.0112937 -0.074101
-0.0165601 0.0229939 -0.0732077
-0.0138262 0.0291618 -0.0713988
-0.022531 -0.00019371 -0.0699019
-0.000459601 0.00699661 -0.0678312
-0.0127396 -0.0117751 -0.0668337
-0.0290883 0.000876534 -0.0653648
-0.0254317 0.00979368 -0.0666516
-0.0177649 0.0224168 -0.0644862
-0.0219947 -0.0332201 -0.0632983
-0.0160817 -0.03192 -0.0608173
-0.0230202 -0.0250033 -0.0630434
-0.020721 -0.0278475 -0.0591393
-0.0159539 -0.0280969 -0.0549559
-0.0297813 -0.0200888 -0.0562979
-0.00180681 -0.0218065 -0.0496455
-0.0159102 0.00235532 -0.0505017
-0.022228 0.00485213 -0.0499079
-0.0097629 0.0296421 -0.0515617
-0.022804 -0.0315502 -0.0420713
-0.0105626 -0.0145818 -0.0429621
-0.0279742 -1.04943e-05 -0.0443783
-0.0218847 0.0256262 -0.0440591
-0.0160508 0.0304724 -0.0435197
-0.0175025 -0.0121213 -0.0410346
-0.0312011 0.00531382 -0.0390571
-0.0196938 0.0042356 -0.0389226
-0.0294843 -0.0347245 -0.0367287
-0.0302313 -0.00571197 -0.0361059
-0.0046838 0.0252416 -0.0358269
-0.00481478 0.0323336 -0.0354494
-0.00163565 -0.0222313 -0.0319589
-0.0221544 -0.0176068 -0.0329944
-0.0185443 0.0109203 -0.0325128
-0.0131635 0.0258143 -0.0335328
-0.00206763 -0.0165007 -0.0302507
-0.0250204 0.00245318 -0.0302385
-0.0188291 -0.0247488 -0.0249967
-0.0205837 -0.0117427 -0.0250767
-0.0136213 0.0102173 -0.0233627
-0.00322644 0.00785004 -0.02646
-0.00317446 -0.00307391 -0.0207378
-0.0183282 0.020832 -0.0196739
-0.0086291 0.0212435 -0.0180658
-0.00331379 0.000112052 -0.013604
-0.0161255 0.0259916 -0.0136909
-0.0132118 -0.0142448 -0.00894342
-0.0101315 -0.00307891 -0.010737
-0.0313469 0.00594264 -0.0121681
-0.021885 0.00637934 -0.00967238
-0.0222205 0.0252752 -0.0093043
-0.0113639 -0.028821 -0.00829739
-0.0246928 0.0149576 -0.00500963
-0.0339596 0.0247152 -0.00813916
-0.016039 -0.0311912 -0.00223576
-0.0338446 -0.00790771 -0.00114287
-0.006758 -0.00933802 -0.001751
-0.0138041 0.00231809 -0.00365767
-0.00512449 0.0194276 -0.00417638
-0.0166674 -0.0133665 0.00230723
-0.0307162 0.0123479 0.00123586
-0.0261342 0.0289343 4.03917e-05
-0.0216846 0.010562 0.00544255
-0.011833 0.030812 0.00565987
-0.0267621 -0.0316048 0.00736329
-0.0153514 -0.0285466 0.0069193
-0.0266174 0.0340944 0.00687936
-0.0135716 -0.0190259 0.0128091
-0.016986 -0.00213434 0.0102414
-0.0294235 0.0177987 0.0123766
-0.0329725 0.0296342 0.0114233
-0.020149 -0.0334448 0.014303
-0.0292811 0.00645928 0.0149075
-0.0333375 0.0110949 0.0144459
-0.0143727 0.015853 0.0159388
-0.00439906 0.0240922 0.0152708
-0.00739645 -0.0185545 0.0180798
-0.0275469 -0.0163611 0.020996
-0.0102956 -0.00169209 0.0206689
-0.0265909 0.0159092 0.018275
-0.0159897 0.0274334 0.018339
-0.0161861 -0.026381 0.023524
-0.00301846 -0.0111451 0.024132
-0.0273253 -0.00441029 0.0248738
-0.00205293 -0.0206571 0.0265374
-0.0318002 -0.0148599 0.0284266
-0.0112712 -0.00229192 0.0265208
-0.0135333 0.000602269 0.0257131
-0.00791609 0.00384723 0.0257188
-0.0192779 0.00722911 0.0272305
-2.29018e-06 0.0149512 0.0262482
-0.0322225 0.032442 0.0295987
-0.0125841 -0.0111545 0.0345676
-0.00679321 -0.00388229 0.0354491
-0.0148309 -0.0333609 0.0395007
-0.0125785 -0.0210623 0.0364248
-0.0191843 -0.0162196 0.0375774
-0.0143544 -0.00143019 0.0371535
-0.0290047 0.00352617 0.0393165
-0.0188235 -0.0335238 0.0436063
-0.0227292 -0.0112057 0.040848
-0.0208061 0.000145103 0.0408784
-0.0158354 0.0147935 0.0403384
-0.0114065 0.0295451 0.0412229
-0.00304704 0.0316877 0.043364
-0.00193271 -0.0127941 0.0440708
-0.010147 0.00134815 0.0468101
-0.00401145 0.0125644 0.045904
-0.0167258 0.0295222 0.0458879
-0.0331578 -0.0315972 0.0500882
-0.0142543 -0.0235946 0.0475076
-0.0156127 0.0122027 0.0501052
-0.0316516 0.0258079 0.0485133
-0.0309894 0.0333632 0.0483513
-0.0150343 -0.00254225 0.0524688
-0.00445669 0.0136763 0.0520853
-0.021642 0.0141125 0.051619
-0.00584464 0.0229092 0.0512685
VERTICES 141 282
1 0
1 1
1 2
1 3
1 4
1 5
1 6
1 7
1 8
1 9
1 10
1 11
1 12
1 13
1 14
1 15
1 16
1 17
1 18
1 19
1 20
1 21
1 22
1 23
1 24
1 25
1 26
1 27
1 28
1 29
1 30
1 31
1 32
1 33
1 34
1 35
1 36
1 37
1 38
1 39
1 40
1 41
1 42
1 43
1 44
1 45
1 46
1 47
1 48
1 49
1 50
1 51
1 52
1 53
1 54
1 55
1 56
1 57
1 58
1 59
1 60
1 61
1 62
1 63
1 64
1 65
1 66
1 67
1 68
1 69
1 70
1 71
1 72
1 73
1 74
1 75
1 76
1 77
1 78
1 79
1 80
1 81
1 82
1 83
1 84
1 85
1 86
1 87
1 88
1 89
1 90
1 91
1 92
1 93
1 94
1 95
1 96
1 97
1 98
1 99
1 100
1 101
1 102
1 103
1 104
1 105
1 106
1 107
1 108
1 109
1 110
1 111
1 112
1 113
1 114
1 115
1 116
1 117
1 118
1 119
1 120
1 121
1 122
1 123
1 124
1 125
1 126
1 127
1 128
1 129
1 130
1 131
1 132
1 133
1 134
1 135
1 136
1 137
1 138
1 139
1 140
POINT_DATA 141
VECTORS i float
0.0 0.0 0.0
0.0 0.0 0.0
0.0 0.0 0.0
0.0 0.0 0.0
0.0 0.0 0.0
0.0 0.0 0.0
0.0 0.0 0.0
0.0 0.0 0.0
0.0 0.0 0.0
0.0 0.0 0.0
0.0 0.0 0.0
0.0 0.0 0.0
0.0 0.0 0.0
0.0 0.0 0.0
0.0 0.0 0.0
0.0 0.0 0.0
0.0 0.0 0.0
0.0 0.0 0.0
0.0 0.0 0.0
0.0 0.0 0.0
0.0 0.0 0.0
0.0 0.0 0.0
0.0 0.0 0.0
0.0 0.0 0.0
0.0 0.0 0.0
0.0 0.0 0.0
0.0 0.0 0.0
0.0 0.0 0.0
0.0 0.0 0.0
0.0 0.0 0.0
0.0 0.0 0.0
0.0 0.0 0.0
0.0 0.0 0.0
0.0 0.0 0.0
0.0 0.0 0.0
0.0 0.0 0.0
0.0 0.0 0.0
0.0 0.0 0.0
0.0 0.0 0.0
0.0 0.0 0.0
0.0 0.0 0.0
0.0 0.0 0.0
0.0 0.0 0.0
0.0 0.0 0.0
0.0 0.0 0.0
0.0 0.0 0.0
0.0 0.0 0.0
0.0 0.0 0.0
0.0 0.0 0.0
0.0 0.0 0.0
0.0 0.0 0.0
0.0 0.0 0.0
0.0 0.0 0.0
0.0 0.0 0.0
0.0 0.0 0.0
0.0 0.0 0.0
0.0 0.0 0.0
0.0 0.0 0.0
0.0 0.0 0.0
0.0 0.0 0.0
0.0 0.0 0.0
0.0 0.0 0.0
0.0 0.0 0.0
0.0 0.0 0.0
0.0 0.0 0.0
0.0 0.0 0.0
0.0 0.0 0.0
0.0 0.0 0.0
0.0 0.0 0.0
0.0 0.0 0.0
0.0 0.0 0.0
0.0 0.0 0.0
0.0 0.0 0.0
0.0 0.0 0.0
0.0 0.0 0.0
0.0 0.0 0.0
0.0 0.0 0.0
0.0 0.0 0.0
0.0 0.0 0.0
0.0 0.0 0.0
0.0 0.0 0.0
0.0 0.0 0.0
0.0 0.0 0.0
0.0 0.0 0.0
0.0 0.0 0.0
0.0 0.0 0.0
0.0 0.0 0.0
0.0 0.0 0.0
0.0 0.0 0.0
0.0 0.0 0.0
0.0 0.0 0.0
0.0 0.0 0.0
0.0 0.0 0.0
0.0 0.0 0.0
0.0 0.0 0.0
0.0 0.0 0.0
0.0 0.0 0.0
0.0 0.0 0.0
0.0 0.0 0.0
0.0 0.0 0.0
0.0 0.0 0.0
0.0 0.0 0.0
0.0 0.0 0.0
0.0 0.0 0.0
0.0 0.0 0.0
0.0 0.0 0.0
0.0 0.0 0.0
0.0 0.0 0.0
0.0 0.0 0.0
0.0 0.0 0.0
0.0 0.0 0.0
0.0 0.0 0.0
0.0 0.0 0.0
0.0 0.0 0.0
0.0 0.0 0.0
0.0 0.0 0.0
0.0 0.0 0.0
0.0 0.0 0.0
0.0 0.0 0.0
0.0 0.0 0.0
0.0 0.0 0.0
0.0 0.0 0.0
0.0 0.0 0.0
0.0 0.0 0.0
0.0 0.0 0.0
0.0 0.0 0.0
0.0 0.0 0.0
0.0 0.0 0.0
0.0 0.0 0.0
0.0 0.0 0.0
0.0 0.0 0.0
0.0 0.0 0.0
0.0 0.0 0.0
0.0 0.0 0.0
0.0 0.0 0.0
0.0 0.0 0.0
0.0 0.0 0.0
0.0 0.0 0.0
0.0 0.0 0.0
0.0 0.0 0.0
0.0 0.0 0.0
VECTORS f float
0.0 0.0 -0.000346714
0.0 0.0 -0.000346714
0.0 0.0 -0.00160516
0.0 0.0 -0.00160516
0.0 0.0 -0.000346714
0.0 0.0 -0.00160516
0.0 0.0 -0.000346714
0.0 0.0 -0.000346714
0.0 0.0 -0.000346714
0.0 0.0 -0.00160516
0.0 0.0 -0.000346714
0.0 0.0 -0.000346714
0.0 0.0 -0.000346714
0.0 0.0 -0.00160516
0.0 0.0 -0.000346714
0.0 0.0 -0.000346714
0.0 0.0 -0.000346714
0.0 0.0 -0.000346714
0.0 0.0 -0.000346714
0.0 0.0 -0.00160516
0.0 0.0 -0.000346714
0.0 0.0 -0.00160516
0.0 0.0 -0.000346714
0.0 0.0 -0.00160516
0.0 0.0 -0.000346714
0.0 0.0 -0.000346714
0.0 0.0 -0.00160516
0.0 0.0 -0.00160516
0.0 0.0 -0.000346714
0.0 0.0 -0.000346714
0.0 0.0 -0.000346714
0.0 0.0 -0.000346714
0.0 0.0 -0.00160516
0.0 0.0 -0.00160516
0.0 0.0 -0.000346714
0.0 0.0 -0.000346714
0.0 0.0 -0.00160516
0.0 0.0 -0.000346714
0.0 0.0 -0.00160516
0.0 0.0 -0.00160516
0.0 0.0 -0.000346714
0.0 0.0 -0.000346714
0.0 0.0 -0.000346714
0.0 0.0 -0.000346714
0.0 0.0 -0.000346714
0.0 0.0 -0.000346714
0.0 0.0 -0.00160516
0.0 0.0 -0.000346714
0.0 0.0 -0.000346714
0.0 0.0 -0.000346714
0.0 0.0 -0.00160516
0.0 0.0 -0.00160516
0.0 0.0 -0.00160516
0.0 0.0 -0.000346714
0.0 0.0 -0.00160516
0.0 0.0 -0.000346714
0.0 0.0 -0.000346714
0.0 0.0 -0.000346714
0.0 0.0 -0.000346714
0.0 0.0 -0.000346714
0.0 0.0 -0.00160516
0.0 0.0 -0.000346714
0.0 0.0 -0.000346714
0.0 0.0 -0.000346714
0.0 0.0 -0.000346714
0.0 0.0 -0.00160516
0.0 0.0 -0.00160516
0.0 0.0 -0.000346714
0.0 0.0 -0.000346714
0.0 0.0 -0.000346714
0.0 0.0 -0.000346714
0.0 0.0 -0.000346714
0.0 0.0 -0.00160516
0.0 0.0 -0.000346714
0.0 0.0 -0.00160516
0.0 0.0 -0.000346714
0.0 0.0 -0.000346714
0.0 0.0 -0.00160516
0.0 0.0 -0.00160516
0.0 0.0 -0.000346714
0.0 0.0 -0.000346714
0.0 0.0 -0.00160516
0.0 0.0 -0.000346714
0.0 0.0 -0.000346714
0.0 0.0 -0.000346714
0.0 0.0 -0.000346714
0.0 0.0 -0.000346714
0.0 0.0 -0.000346714
0.0 0.0 -0.00160516
0.0 0.0 -0.000346714
0.0 0.0 -0.000346714
0.0 0.0 -0.000346714
0.0 0.0 -0.000346714
0.0 0.0 -0.00160516
0.0 0.0 -0.000346714
0.0 0.0 -0.00160516
0.0 0.0 -0.00160516
0.0 0.0 -0.00160516
0.0 0.0 -0.000346714
0.0 0.0 -0.000346714
0.0 0.0 -0.000346714
0.0 0.0 -0.000346714
0.0 0.0 -0.00160516
0.0 0.0 -0.000346714
0.0 0.0 -0.000346714
0.0 0.0 -0.00160516
0.0 0.0 -0.00160516
0.0 0.0 -0.00160516
0.0 0.0 -0.000346714
0.0 0.0 -0.000346714
0.0 0.0 -0.000346714
0.0 0.0 -0.00160516
0.0 0.0 -0.00160516
0.0 0.0 -0.000346714
0.0 0.0 -0.000346714
0.0 0.0 -0.000346714
0.0 0.0 -0.000346714
0.0 0.0 -0.000346714
0.0 0.0 -0.00160516
0.0 0.0 -0.000346714
0.0 0.0 -0.00160516
0.0 0.0 -0.000346714
0.0 0.0 -0.000346714
0.0 0.0 -0.000346714
0.0 0.0 -0.000346714
0.0 0.0 -0.00160516
0.0 0.0 -0.000346714
0.0 0.0 -0.00160516
0.0 0.0 -0.00160516
0.0 0.0 -0.00160516
0.0 0.0 -0.000346714
0.0 0.0 -0.000346714
0.0 0.0 0.0
0.0 0.0 -0.00160516
0.0 0.0 0.0
0.0 0.0 -0.00160516
0.0 0.0 -0.000346714
0.0 0.0 0.0
0.0 0.0 0.0
0.0 0.0 0.0
0.0 0.0 0.0
VECTORS omega float
0.0 0.0 0.0
0.0 0.0 0.0
-78.31 -214.059 -5.16315e-14
0.0 0.0 0.0
0.0 0.0 0.0
0.0 0.0 0.0
0.0 0.0 0.0
0.0 0.0 0.0
0.0 0.0 0.0
0.0 0.0 0.0
0.0 0.0 0.0
0.0 0.0 0.0
0.0 0.0 0.0
0.0 0.0 0.0
0.0 0.0 0.0
0.0 0.0 0.0
0.0 0.0 0.0
0.0 0.0 0.0
0.0 0.0 0.0
0.0 0.0 0.0
0.0 0.0 0.0
0.0 0.0 0.0
0.0 0.0 0.0
0.0 0.0 0.0
0.0 0.0 0.0
0.0 0.0 0.0
0.0 0.0 0.0
0.0 0.0 0.0
0.0 0.0 0.0
0.0 0.0 0.0
0.0 0.0 0.0
0.0 0.0 0.0
0.0 0.0 0.0
0.0 0.0 0.0
0.0 0.0 0.0
0.0 0.0 0.0
0.0 0.0 0.0
0.0 0.0 0.0
0.0 0.0 0.0
0.0 0.0 0.0
0.0 0.0 0.0
0.0 0.0 0.0
0.0 0.0 0.0
0.0 0.0 0.0
0.0 0.0 0.0
0.0 0.0 0.0
0.0 0.0 0.0
0.0 0.0 0.0
0.0 0.0 0.0
0.0 0.0 0.0
0.0 0.0 0.0
0.0 0.0 0.0
0.0 0.0 0.0
0.0 0.0 0.0
0.0 0.0 0.0
0.0 0.0 0.0
0.0 0.0 0.0
0.0 0.0 0.0
0.0 0.0 0.0
0.0 0.0 0.0
0.0 0.0 0.0
0.0 0.0 0.0
0.0 0.0 0.0
0.0 0.0 0.0
0.0 0.0 0.0
0.0 0.0 0.0
0.0 0.0 0.0
0.0 0.0 0.0
0.0 0.0 0.0
0.0 0.0 0.0
0.0 0.0 0.0
0.0 0.0 0.0
0.0 0.0 0.0
0.0 0.0 0.0
0.0 0.0 0.0
0.0 0.0 0.0
0.0 0.0 0.0
0.0 0.0 0.0
0.0 0.0 0.0
0.0 0.0 0.0
0.0 0.0 0.0
0.0 0.0 0.0
0.0 0.0 0.0
0.0 0.0 0.0
0.0 0.0 0.0
0.0 0.0 0.0
0.0 0.0 0.0
0.0 0.0 0.0
0.0 0.0 0.0
0.0 0.0 0.0
0.0 0.0 0.0
0.0 0.0 0.0
0.0 0.0 0.0
0.0 0.0 0.0
0.0 0.0 0.0
0.0 0.0 0.0
0.0 0.0 0.0
0.0 0.0 0.0
0.0 0.0 0.0
0.0 0.0 0.0
0.0 0.0 0.0
0.0 0.0 0.0
0.0 0.0 0.0
0.0 0.0 0.0
0.0 0.0 0.0
0.0 0.0 0.0
0.0 0.0 0.0
0.0 0.0 0.0
0.0 0.0 0.0
0.0 0.0 0.0
0.0 0.0 0.0
0.0 0.0 0.0
0.0 0.0 0.0
0.0 0.0 0.0
0.0 0.0 0.0
0.0 0.0 0.0
0.0 0.0 0.0
0.0 0.0 0.0
0.0 0.0 0.0
0.0 0.0 0.0
0.0 0.0 0.0
0.0 0.0 0.0
0.0 0.0 0.0
0.0 0.0 0.0
0.0 0.0 0.0
0.0 0.0 0.0
0.0 0.0 0.0
0.0 0.0 0.0
0.0 0.0 0.0
0.0 0.0 0.0
0.0 0.0 0.0
0.0 0.0 0.0
0.0 0.0 0.0
0.0 0.0 0.0
0.0 0.0 0.0
0.0 0.0 0.0
0.0 0.0 0.0
0.0 0.0 0.0
0.0 0.0 0.0
0.0 0.0 0.0
0.0 0.0 0.0
VECTORS v float
0.0 0.0 -2.02873
0.0 0.0 -2.02598
-0.695964 0.254607 0.266806
0.0 0.0 -2.01489
0.0 0.0 -2.02255
0.0 0.0 -2.00096
0.0 0.0 -1.98232
0.0 0.0 -1.9628
0.0 0.0 -1.96378
0.0 0.0 -1.95427
0.0 0.0 -1.95446
0.0 0.0 -1.93318
0.0 0.0 -1.94563
0.0 0.0 -1.93298
0.0 0.0 -1.94887
0.0 0.0 -1.92582
0.0 0.0 -1.91581
0.0 0.0 -1.92121
0.0 0.0 -1.92866
0.0 0.0 -1.90679
0.0 0.0 -1.88864
0.0 0.0 -1.88874
0.0 0.0 -1.86225
0.0 0.0 -1.85332
0.0 0.0 -1.84861
0.0 0.0 -1.839
0.0 0.0 -1.83096
0.0 0.0 -1.81987
0.0 0.0 -1.81448
0.0 0.0 -1.80653
0.0 0.0 -1.81349
0.0 0.0 -1.80172
0.0 0.0 -1.79525
0.0 0.0 -1.78161
0.0 0.0 -1.79387
0.0 0.0 -1.77239
0.0 0.0 -1.74904
0.0 0.0 -1.7566
0.0 0.0 -1.71902
0.0 0.0 -1.72393
0.0 0.0 -1.7205
0.0 0.0 -1.72991
0.0 0.0 -1.67527
0.0 0.0 -1.68047
0.0 0.0 -1.68871
0.0 0.0 -1.68685
0.0 0.0 -1.68371
0.0 0.0 -1.66919
0.0 0.0 -1.65752
0.0 0.0 -1.65673
0.0 0.0 -1.64368
0.0 0.0 -1.63996
0.0 0.0 -1.63829
0.0 0.0 -1.63603
0.0 0.0 -1.61494
0.0 0.0 -1.62122
0.0 0.0 -1.61828
0.0 0.0 -1.62446
0.0 0.0 -1.60454
0.0 0.0 -1.60444
0.0 0.0 -1.57207
0.0 0.0 -1.57256
0.0 0.0 -1.56187
0.0 0.0 -1.58119
0.0 0.0 -1.54529
0.0 0.0 -1.53852
0.0 0.0 -1.52822
0.0 0.0 -1.49928
0.0 0.0 -1.49987
0.0 0.0 -1.46848
0.0 0.0 -1.48044
0.0 0.0 -1.48986
0.0 0.0 -1.47338
0.0 0.0 -1.47093
0.0 0.0 -1.46416
0.0 0.0 -1.44199
0.0 0.0 -1.46308
0.0 0.0 -1.42296
0.0 0.0 -1.4154
0.0 0.0 -1.41962
0.0 0.0 -1.43277
0.0 0.0 -1.4363
0.0 0.0 -1.39127
0.0 0.0 -1.39883
0.0 0.0 -1.40716
0.0 0.0 -1.369
0.0 0.0 -1.36743
0.0 0.0 -1.35517
0.0 0.0 -1.35841
0.0 0.0 -1.3587
0.0 0.0 -1.31515
0.0 0.0 -1.33418
0.0 0.0 -1.31838
0.0 0.0 -1.32545
0.0 0.0 -1.30396
0.0 0.0 -1.29945
0.0 0.0 -1.30288
0.0 0.0 -1.2916
0.0 0.0 -1.2967
0.0 0.0 -1.27522
0.0 0.0 -1.25266
0.0 0.0 -1.25521
0.0 0.0 -1.27375
0.0 0.0 -1.27326
0.0 0.0 -1.23264
0.0 0.0 -1.22784
0.0 0.0 -1.22185
0.0 0.0 -1.20841
0.0 0.0 -1.19301
0.0 0.0 -1.20861
0.0 0.0 -1.21508
0.0 0.0 -1.21508
0.0 0.0 -1.20282
0.0 0.0 -1.21077
0.0 0.0 -1.1833
0.0 0.0 -1.14141
0.0 0.0 -1.13376
0.0 0.0 -1.09815
0.0 0.0 -1.12532
0.0 0.0 -1.11522
0.0 0.0 -1.11895
0.0 0.0 -1.09982
0.0 0.0 -1.06087
0.0 0.0 -1.08608
0.0 0.0 -1.08579
0.0 0.0 -1.09069
0.0 0.0 -1.08265
0.0 0.0 -1.06313
0.0 0.0 -1.05655
0.0 0.0 -1.03085
0.0 0.0 -1.03939
0.0 0.0 -1.03958
-0 0.0 -1.0
0.0 0.0 -1.02418
-0 0.0 -1.0
0.0 0.0 -1.01447
0.0 0.0 -1.01604
-0 0.0 -1.0
-0 0.0 -1.0
-0 0.0 -1.0
-0 0.0 -1.0
SCALARS radius float 1
LOOKUP_TABLE default
0.0015
0.0015
0.0025
0.0025
0.0015
0.0025
0.0015
0.0015
0.0015
0.0025
0.0015
0.0015
0.0015
0.0025
0.0015
0.0015
0.0015
0.0015
0.0015
0.0025
0.0015
0.0025
0.0015
0.0025
0.0015
0.0015
0.0025
0.0025
0.0015
0.0015
0.0015
0.0015
0.0025
0.0025
0.0015
0.0015
0.0025
0.0015
0.0025
0.0025
0.0015
0.0015
0.0015
0.0015
0.0015
0.0015
0.0025
0.0015
0.0015
0.0015
0.0025
0.0025
0.0025
0.0015
0.0025
0.0015
0.0015
0.0015
0.0015
0.0015
0.0025
0.0015
0.0015
0.0015
0.0015
0.0025
0.0025
0.0015
0.0015
0.0015
0.0015
0.0015
0.0025
0.0015
0.0025
0.0015
0.0015
0.0025
0.0025
0.0015
0.0015
0.0025
0.0015
0.0015
0.0015
0.0015
0.0015
0.0015
0.0025
0.0015
0.0015
0.0015
0.0015
0.0025
0.0015
0.0025
0.0025
0.0025
0.0015
0.0015
0.0015
0.0015
0.0025
0.0015
0.0015
0.0025
0.0025
0.0025
0.0015
0.0015
0.0015
0.0025
0.0025
0.0015
0.0015
0.0015
0.0015
0.0015
0.0025
0.0015
0.0025
0.0015
0.0015
0.0015
0.0015
0.0025
0.0015
0.0025
0.0025
0.0025
0.0015
0.0015
0.0015
0.0025
0.0015
0.0025
0.0015
0.0025
0.0015
0.0015
0.0015
SCALARS type float 1
LOOKUP_TABLE default
1.0
1.0
1.0
1.0
1.0
1.0
1.0
1.0
1.0
1.0
1.0
1.0
1.0
1.0
1.0
1.0
1.0
1.0
1.0
1.0
1.0
1.0
1.0
1.0
1.0
1.0
1.0
1.0
1.0
1.0
1.0
1.0
1.0
1.0
1.0
1.0
1.0
1.0
1.0
1.0
1.0
1.0
1.0
1.0
1.0
1.0
1.0
1.0
1.0
1.0
1.0
1.0
1.0
1.0
1.0
1.0
1.0
1.0
1.0
1.0
1.0
1.0
1.0
1.0
1.0
1.0
1.0
1.0
1.0
1.0
1.0
1.0
1.0
1.0
1.0
1.0
1.0
1.0
1.0
1.0
1.0
1.0
1.0
1.0
1.0
1.0
1.0
1.0
1.0
1.0
1.0
1.0
1.0
1.0
1.0
1.0
1.0
1.0
1.0
1.0
1.0
1.0
1.0
1.0
1.0
1.0
1.0
1.0
1.0
1.0
1.0
1.0
1.0
1.0
1.0
1.0
1.0
1.0
1.0
1.0
1.0
1.0
1.0
1.0
1.0
1.0
1.0
1.0
1.0
1.0
1.0
1.0
1.0
1.0
1.0
1.0
1.0
1.0
1.0
1.0
1.0
SCALARS id float 1
LOOKUP_TABLE default
12.0
5.0
1.0
2.0
11.0
4.0
8.0
7.0
10.0
3.0
6.0
24.0
25.0
16.0
9.0
22.0
19.0
17.0
18.0
15.0
21.0
14.0
20.0
13.0
23.0
35.0
29.0
27.0
37.0
32.0
38.0
34.0
26.0
28.0
36.0
33.0
30.0
31.0
40.0
39.0
44.0
45.0
48.0
46.0
50.0
47.0
42.0
51.0
49.0
43.0
41.0
52.0
54.0
58.0
53.0
56.0
57.0
62.0
59.0
60.0
55.0
63.0
61.0
64.0
73.0
68.0
67.0
69.0
70.0
71.0
76.0
74.0
65.0
75.0
66.0
88.0
72.0
79.0
78.0
83.0
81.0
77.0
89.0
84.0
85.0
87.0
82.0
102.0
80.0
86.0
100.0
95.0
98.0
94.0
97.0
91.0
92.0
90.0
99.0
101.0
113.0
114.0
93.0
96.0
115.0
105.0
107.0
106.0
111.0
112.0
110.0
103.0
104.0
109.0
108.0
123.0
125.0
126.0
120.0
122.0
117.0
121.0
138.0
127.0
128.0
116.0
124.0
119.0
118.0
132.0
139.0
133.0
137.0
131.0
136.0
130.0
140.0
129.0
141.0
134.0
135.0

