# vtk DataFile Version 2.0
Generated by lpp.py
ASCII
DATASET POLYDATA
POINTS 721 float
-0.496973 -0.00405427 -0.398051
-0.0332144 0.0229071 0.0536438
-0.488585 0.0292164 -0.390279
-0.4769 0.0162124 -0.385942
-0.475218 0.0237298 -0.376303
-0.469944 -0.00690204 -0.373255
-0.472877 0.0294781 -0.370829
-0.486105 0.0405786 -0.371282
-0.477073 0.00134509 -0.366533
-0.475746 0.018891 -0.367362
-0.466062 0.0192498 -0.366957
-0.463553 -0.0018588 -0.363721
-0.463308 0.00512826 -0.363803
-0.46486 0.0122603 -0.361339
-0.460947 -0.00162851 -0.35781
-0.46225 0.0113638 -0.356903
-0.465932 0.0265183 -0.356907
-0.467497 0.0364777 -0.354412
-0.455087 0.00175578 -0.34985
-0.445564 0.00237527 -0.352747
-0.453162 -0.00923684 -0.346689
-0.452123 0.0217051 -0.347351
-0.461581 0.0392848 -0.347718
-0.456669 -0.0364042 -0.342574
-0.457431 -0.0224409 -0.345915
-0.450219 -0.00717155 -0.344203
-0.447749 -0.0168691 -0.33862
-0.420468 -0.00596397 -0.325973
-0.430993 0.0184992 -0.323605
-0.43657 0.022842 -0.321746
-0.417848 -0.0121437 -0.317949
-0.426854 -0.00525224 -0.317001
-0.42543 0.0105185 -0.318619
-0.431365 0.0219152 -0.319631
-0.423898 0.00582731 -0.316678
-0.419289 0.00045201 -0.312056
-0.420829 0.0102436 -0.312523
-0.416684 0.00914546 -0.312037
-0.428624 0.0233822 -0.312489
-0.416853 -0.00407907 -0.308149
-0.419156 0.0182725 -0.309413
-0.439618 -0.0421356 -0.305086
-0.410642 -0.0069064 -0.303913
-0.40917 0.00593987 -0.302305
-0.404697 0.0064445 -0.302532
-0.414173 0.0236461 -0.300703
-0.408361 -0.00564282 -0.296095
-0.400897 -0.00229143 -0.293073
-0.396752 -0.00503918 -0.289856
-0.407612 0.0378646 -0.288408
-0.382672 -0.00963916 -0.285349
-0.393506 -0.00528888 -0.284901
-0.427282 -0.0160774 -0.283027
-0.378998 0.00980164 -0.277898
-0.376547 -0.0205779 -0.273014
-0.371106 -0.0174545 -0.273591
-0.377815 -0.000181313 -0.27474
-0.371108 0.00518639 -0.272608
-0.374648 0.00994169 -0.273999
-0.372294 0.00907993 -0.270292
-0.37551 0.0298868 -0.268857
-0.374505 -0.0306111 -0.267327
-0.366628 -0.0210611 -0.265428
-0.368024 0.015712 -0.2665
-0.371288 -0.0200577 -0.264503
-0.359975 0.0030498 -0.262946
-0.364566 -0.0174425 -0.260764
-0.356162 -0.0181732 -0.257449
-0.355173 0.00314724 -0.258795
-0.353032 0.00838991 -0.260094
-0.368757 0.0404473 -0.260987
-0.350765 0.000588495 -0.255054
-0.351828 0.00701769 -0.255761
-0.349233 0.0132949 -0.253926
-0.352114 0.0165188 -0.256074
-0.366248 0.0374383 -0.2546
-0.348556 -0.0233319 -0.252406
-0.339258 -0.0133278 -0.249869
-0.344894 0.00385401 -0.253439
-0.342923 0.00524759 -0.250099
-0.33935 0.00925576 -0.252964
-0.341038 0.0122613 -0.25045
-0.340666 0.0165426 -0.249733
-0.347715 0.0262363 -0.251058
-0.35015 0.0302356 -0.251105
-0.337698 -0.0220647 -0.246236
-0.339669 -0.0203078 -0.247728
-0.33472 -0.0037315 -0.247492
-0.332075 -0.00418412 -0.245984
-0.332398 0.00141877 -0.246663
-0.334744 0.0124795 -0.247027
-0.355952 -0.0472152 -0.243964
-0.334495 -0.0239788 -0.243994
-0.328522 -0.00528952 -0.243278
-0.326572 0.00718798 -0.24237
-0.336091 0.018164 -0.245561
-0.330637 0.0240033 -0.242788
-0.336989 -0.0380439 -0.241116
-0.332274 -0.0287659 -0.241883
-0.32497 -0.0203554 -0.23976
-0.326648 -0.0136122 -0.241727
-0.316113 -0.00857623 -0.239012
-0.319449 -0.0047639 -0.240539
-0.322696 -0.00243493 -0.240973
-0.315864 0.0132832 -0.238473
-0.329552 -0.0353912 -0.238255
-0.312219 -0.0145242 -0.235469
-0.312562 -0.00926366 -0.23742
-0.310331 -0.00416873 -0.235765
-0.309602 0.00628516 -0.235199
-0.316055 0.00935948 -0.237738
-0.312777 0.00663673 -0.237635
-0.309488 -0.0249561 -0.233494
-0.304302 -0.0221039 -0.231897
-0.302714 -0.0125057 -0.232987
-0.303816 0.000552085 -0.234061
-0.303292 0.00536224 -0.231881
-0.295618 0.00669235 -0.230377
-0.299352 0.0109172 -0.231682
-0.309385 0.0132967 -0.234663
-0.300017 0.0173853 -0.231057
-0.290238 -0.00453799 -0.227276
-0.293218 0.00273597 -0.228531
-0.288393 0.000736266 -0.22771
-0.2901 0.0060796 -0.227037
-0.290569 0.013892 -0.227785
-0.30066 0.023893 -0.228961
-0.306046 0.0346405 -0.229097
-0.297854 -0.0252014 -0.227536
-0.285906 -0.00242415 -0.22552
-0.286848 0.00317446 -0.226901
-0.284617 0.00132074 -0.22608
-0.28459 0.0155964 -0.224889
-0.288184 0.0174077 -0.22505
-0.284045 0.0191439 -0.224096
-0.292811 0.0224489 -0.227093
-0.289488 0.0222559 -0.224682
-0.290248 0.0278369 -0.224634
-0.295819 -0.0402932 -0.223
-0.280629 -0.023357 -0.221987
-0.278631 -0.00275936 -0.222439
-0.271873 -0.000647299 -0.22065
-0.287488 0.0270146 -0.222655
-0.295701 0.042296 -0.221964
-0.316064 -0.0576912 -0.220104
-0.270491 -0.0216221 -0.218077
-0.271231 -0.0149311 -0.2184
-0.264319 -0.0113747 -0.216976
-0.272042 -0.00800927 -0.217815
-0.267586 -0.00860321 -0.218646
-0.268961 -0.00215326 -0.218086
-0.263519 0.000821257 -0.217187
-0.272944 0.0161068 -0.219926
-0.269702 0.0161238 -0.217482
-0.274122 -0.0419855 -0.213422
-0.271569 -0.0274022 -0.216045
-0.268664 -0.0185939 -0.216174
-0.26395 -0.0201637 -0.214508
-0.259777 -0.014652 -0.214565
-0.26108 -0.0106276 -0.2144
-0.258557 -0.00313217 -0.215062
-0.26011 0.000185551 -0.21577
-0.261367 0.00293645 -0.216176
-0.256799 0.000658961 -0.214337
-0.260908 0.0119152 -0.214454
-0.272621 0.0320643 -0.216283
-0.260733 -0.025556 -0.21193
-0.256339 -0.0179001 -0.211769
-0.254319 -0.00771984 -0.21307
-0.252259 -0.00381706 -0.211293
-0.250187 0.00570415 -0.210238
-0.250356 0.0166602 -0.210389
-0.256896 0.0209648 -0.212474
-0.259713 0.0337254 -0.21059
-0.287599 -0.0591829 -0.207934
-0.26321 -0.0417719 -0.209166
-0.243166 -0.0201767 -0.206852
-0.246217 -0.0154723 -0.208771
-0.243613 -0.0128019 -0.206901
-0.247866 -0.00859694 -0.20844
-0.243884 -0.00650866 -0.208665
-0.246639 -0.00364007 -0.208932
-0.241542 0.000414377 -0.206794
-0.244612 0.0110033 -0.208777
-0.243251 0.0144692 -0.206615
-0.243392 0.0184072 -0.207205
-0.247718 0.024764 -0.208041
-0.240169 -0.0247665 -0.203667
-0.23612 -0.0231815 -0.20331
-0.239349 -0.00455188 -0.205833
-0.233846 -0.00544279 -0.203392
-0.236711 0.000410008 -0.204742
-0.230914 0.00118176 -0.203296
-0.235523 0.0056714 -0.205158
-0.231464 0.00422271 -0.203516
-0.23294 0.00899411 -0.203613
-0.23728 0.0114977 -0.205618
-0.230174 0.0113474 -0.202613
-0.23673 0.0188525 -0.204387
-0.237887 0.0261807 -0.203557
-0.231793 -0.0300623 -0.200127
-0.233589 -0.0257419 -0.20064
-0.233588 -0.0171243 -0.202362
-0.228217 -0.00966415 -0.200732
-0.226091 0.0108315 -0.200956
-0.217623 -0.00967549 -0.197339
-0.214652 -0.0074679 -0.196309
-0.218431 -0.00558455 -0.198022
-0.217931 -0.00259416 -0.197782
-0.219843 0.000970115 -0.197291
-0.21579 0.0049251 -0.196906
-0.224917 0.0170296 -0.198585
-0.216194 0.0150368 -0.195382
-0.220308 0.0180839 -0.197601
-0.22621 0.0257273 -0.198797
-0.231603 0.0358568 -0.198547
-0.23411 0.0390208 -0.198505
-0.20932 -0.0217784 -0.192589
-0.211436 -0.0163484 -0.192995
-0.214045 -0.0107829 -0.194103
-0.205131 -0.0130548 -0.191757
-0.212255 -0.00464926 -0.195483
-0.209921 -0.00436743 -0.19358
-0.213286 -0.000583956 -0.194812
-0.206794 -0.00293921 -0.193166
-0.209322 0.00346317 -0.194176
-0.228518 0.0070629 -0.193099
-0.208554 0.00695989 -0.193854
-0.209754 0.0112519 -0.193971
-0.211813 0.0156732 -0.194333
-0.215387 0.0220064 -0.195
-0.213402 0.0251137 -0.19205
-0.202307 -0.0252188 -0.188933
-0.202789 -0.0205961 -0.189962
-0.197909 -0.00408281 -0.188178
-0.20233 0.00855707 -0.190001
-0.219854 0.0160506 -0.189141
-0.217792 0.0375853 -0.191209
-0.261272 -0.073678 -0.187976
-0.201243 -0.0283552 -0.187768
-0.195015 -0.0170867 -0.187046
-0.193217 -0.0117076 -0.186917
-0.189645 -0.0140982 -0.185158
-0.187831 -0.0108493 -0.184787
-0.195291 0.00188237 -0.188248
-0.194134 0.00547818 -0.186663
-0.185712 0.00457787 -0.184323
-0.197773 0.00865537 -0.187901
-0.196651 0.0213297 -0.187343
-0.193712 0.021673 -0.185816
-0.218811 0.0423459 -0.190533
-0.183543 -0.0237137 -0.181496
-0.184726 -0.0116722 -0.181172
-0.193192 -0.00717984 -0.183288
-0.183588 -0.00762275 -0.183214
-0.204584 0.0130133 -0.184919
-0.186101 0.0169156 -0.183425
-0.185068 0.0203773 -0.181554
-0.193251 0.0261298 -0.18489
-0.180995 -0.0334312 -0.178275
-0.17847 -0.0315107 -0.177663
-0.181984 -0.0286473 -0.17972
-0.17668 -0.0198497 -0.178058
-0.17128 -0.0139044 -0.177617
-0.170502 -0.00937352 -0.177664
-0.172806 -0.0023593 -0.177712
-0.174651 0.00822669 -0.179364
-0.171648 0.008231 -0.17807
-0.175993 0.0113383 -0.17967
-0.176549 0.0169625 -0.179427
-0.172255 0.0161794 -0.177684
-0.178984 0.0221102 -0.178637
-0.186817 -0.0289345 -0.178017
-0.178039 -0.0259519 -0.177602
-0.172473 -0.0252998 -0.176468
-0.172943 -0.0215357 -0.176744
-0.165297 -0.0190893 -0.174523
-0.169874 -0.0173094 -0.175518
-0.169138 -0.0120891 -0.176561
-0.162197 -0.00749921 -0.174296
-0.167802 -0.00604659 -0.17668
-0.165886 -0.00392765 -0.175696
-0.171784 0.00267736 -0.177346
-0.167301 3.63911e-05 -0.175478
-0.164009 0.00687148 -0.175035
-0.172415 0.0124416 -0.176267
-0.165246 0.0118524 -0.175111
-0.173161 0.0202467 -0.176254
-0.179281 -0.0459951 -0.17378
-0.161367 -0.0291329 -0.171056
-0.170782 -0.0220112 -0.172794
-0.164059 -0.00470881 -0.173218
-0.160005 -0.00433561 -0.171261
-0.163048 -0.00145803 -0.173961
-0.156096 -0.00322836 -0.171814
-0.16338 0.00264273 -0.173709
-0.161322 0.0060912 -0.173986
-0.159388 0.0042887 -0.172511
-0.155192 0.00598109 -0.171007
-0.162788 0.0104794 -0.173779
-0.157987 0.00845698 -0.172405
-0.159064 0.0171926 -0.172116
-0.167167 0.033143 -0.171548
-0.173445 -0.0534016 -0.168613
-0.151475 -0.0168679 -0.168972
-0.148858 -0.0177263 -0.167793
-0.152499 -0.0126031 -0.168782
-0.167772 0.0104215 -0.169042
-0.155246 0.0142417 -0.17076
-0.169779 -0.0549408 -0.166533
-0.166543 -0.0544814 -0.165434
-0.159 -0.0496876 -0.163255
-0.143096 -0.0212318 -0.164857
-0.145753 -0.0182446 -0.16534
-0.141395 -0.0177355 -0.164631
-0.142481 -0.00967842 -0.165849
-0.172343 -0.00653073 -0.165101
-0.140114 -0.00706344 -0.163902
-0.143162 -0.00421659 -0.166378
-0.140967 0.0149106 -0.164719
-0.16053 0.0283307 -0.165547
-0.147381 0.0324409 -0.164591
-0.161823 -0.0359574 -0.165511
-0.140795 -0.0128296 -0.163765
[...]
POINT_DATA 721
VECTORS i float
0.0 0.0 0.0
0.0 0.0 0.0
0.0 0.0 0.0
0.0 0.0 0.0
0.0 0.0 0.0
0.0 0.0 0.0
0.0 0.0 0.0
0.0 0.0 0.0
0.0 0.0 0.0
0.0 0.0 0.0
0.0 0.0 0.0
0.0 0.0 0.0
0.0 0.0 0.0
0.0 0.0 0.0
0.0 0.0 0.0
0.0 0.0 0.0
0.0 0.0 0.0
0.0 0.0 0.0
0.0 0.0 0.0
0.0 0.0 0.0
0.0 0.0 0.0
0.0 0.0 0.0
0.0 0.0 0.0
0.0 0.0 0.0
0.0 0.0 0.0
0.0 0.0 0.0
0.0 0.0 0.0
0.0 0.0 0.0
0.0 0.0 0.0
0.0 0.0 0.0
0.0 0.0 0.0
0.0 0.0 0.0
0.0 0.0 0.0
0.0 0.0 0.0
0.0 0.0 0.0
0.0 0.0 0.0
0.0 0.0 0.0
0.0 0.0 0.0
0.0 0.0 0.0
0.0 0.0 0.0
0.0 0.0 0.0
0.0 0.0 0.0
0.0 0.0 0.0
0.0 0.0 0.0
0.0 0.0 0.0
0.0 0.0 0.0
0.0 0.0 0.0
0.0 0.0 0.0
0.0 0.0 0.0
0.0 0.0 0.0
0.0 0.0 0.0
0.0 0.0 0.0
0.0 0.0 0.0
0.0 0.0 0.0
0.0 0.0 0.0
0.0 0.0 0.0
0.0 0.0 0.0
0.0 0.0 0.0
0.0 0.0 0.0
0.0 0.0 0.0
0.0 0.0 0.0
0.0 0.0 0.0
0.0 0.0 0.0
0.0 0.0 0.0
0.0 0.0 0.0
0.0 0.0 0.0
0.0 0.0 0.0
0.0 0.0 0.0
0.0 0.0 0.0
0.0 0.0 0.0
0.0 0.0 0.0
0.0 0.0 0.0
0.0 0.0 0.0
0.0 0.0 0.0
0.0 0.0 0.0
0.0 0.0 0.0
0.0 0.0 0.0
0.0 0.0 0.0
0.0 0.0 0.0
0.0 0.0 0.0
0.0 0.0 0.0
0.0 0.0 0.0
0.0 0.0 0.0
0.0 0.0 0.0
0.0 0.0 0.0
0.0 0.0 0.0
0.0 0.0 0.0
0.0 0.0 0.0
0.0 0.0 0.0
0.0 0.0 0.0
0.0 0.0 0.0
0.0 0.0 0.0
0.0 0.0 0.0
0.0 0.0 0.0
0.0 0.0 0.0
0.0 0.0 0.0
0.0 0.0 0.0
0.0 0.0 0.0
0.0 0.0 0.0
0.0 0.0 0.0
0.0 0.0 0.0
0.0 0.0 0.0
0.0 0.0 0.0
0.0 0.0 0.0
0.0 0.0 0.0
0.0 0.0 0.0
0.0 0.0 0.0
0.0 0.0 0.0
0.0 0.0 0.0
0.0 0.0 0.0
0.0 0.0 0.0
0.0 0.0 0.0
0.0 0.0 0.0
0.0 0.0 0.0
0.0 0.0 0.0
0.0 0.0 0.0
0.0 0.0 0.0
0.0 0.0 0.0
0.0 0.0 0.0
0.0 0.0 0.0
0.0 0.0 0.0
0.0 0.0 0.0
0.0 0.0 0.0
0.0 0.0 0.0
0.0 0.0 0.0
0.0 0.0 0.0
0.0 0.0 0.0
0.0 0.0 0.0
0.0 0.0 0.0
0.0 0.0 0.0
0.0 0.0 0.0
0.0 0.0 0.0
0.0 0.0 0.0
0.0 0.0 0.0
0.0 0.0 0.0
0.0 0.0 0.0
0.0 0.0 0.0
0.0 0.0 0.0
0.0 0.0 0.0
0.0 0.0 0.0
0.0 0.0 0.0
0.0 0.0 0.0
0.0 0.0 0.0
0.0 0.0 0.0
0.0 0.0 0.0
0.0 0.0 0.0
0.0 0.0 0.0
0.0 0.0 0.0
0.0 0.0 0.0
0.0 0.0 0.0
0.0 0.0 0.0
0.0 0.0 0.0
0.0 0.0 0.0
0.0 0.0 0.0
0.0 0.0 0.0
0.0 0.0 0.0
0.0 0.0 0.0
0.0 0.0 0.0
0.0 0.0 0.0
0.0 0.0 0.0
0.0 0.0 0.0
0.0 0.0 0.0
0.0 0.0 0.0
0.0 0.0 0.0
0.0 0.0 0.0
0.0 0.0 0.0
0.0 0.0 0.0
0.0 0.0 0.0
0.0 0.0 0.0
0.0 0.0 0.0
0.0 0.0 0.0
0.0 0.0 0.0
0.0 0.0 0.0
0.0 0.0 0.0
0.0 0.0 0.0
0.0 0.0 0.0
0.0 0.0 0.0
0.0 0.0 0.0
0.0 0.0 0.0
0.0 0.0 0.0
0.0 0.0 0.0
0.0 0.0 0.0
0.0 0.0 0.0
0.0 0.0 0.0
0.0 0.0 0.0
0.0 0.0 0.0
0.0 0.0 0.0
0.0 0.0 0.0
0.0 0.0 0.0
0.0 0.0 0.0
0.0 0.0 0.0
0.0 0.0 0.0
0.0 0.0 0.0
0.0 0.0 0.0
0.0 0.0 0.0
0.0 0.0 0.0
0.0 0.0 0.0
0.0 0.0 0.0
0.0 0.0 0.0
0.0 0.0 0.0
0.0 0.0 0.0
0.0 0.0 0.0
0.0 0.0 0.0
0.0 0.0 0.0
0.0 0.0 0.0
0.0 0.0 0.0
0.0 0.0 0.0
0.0 0.0 0.0
0.0 0.0 0.0
0.0 0.0 0.0
0.0 0.0 0.0
0.0 0.0 0.0
0.0 0.0 0.0
0.0 0.0 0.0
0.0 0.0 0.0
0.0 0.0 0.0
0.0 0.0 0.0
0.0 0.0 0.0
0.0 0.0 0.0
0.0 0.0 0.0
0.0 0.0 0.0
0.0 0.0 0.0
0.0 0.0 0.0
0.0 0.0 0.0
0.0 0.0 0.0
0.0 0.0 0.0
0.0 0.0 0.0
0.0 0.0 0.0
0.0 0.0 0.0
0.0 0.0 0.0
0.0 0.0 0.0
0.0 0.0 0.0
0.0 0.0 0.0
0.0 0.0 0.0
0.0 0.0 0.0
0.0 0.0 0.0
0.0 0.0 0.0
0.0 0.0 0.0
0.0 0.0 0.0
0.0 0.0 0.0
0.0 0.0 0.0
0.0 0.0 0.0
0.0 0.0 0.0
0.0 0.0 0.0
0.0 0.0 0.0
0.0 0.0 0.0
0.0 0.0 0.0
0.0 0.0 0.0
0.0 0.0 0.0
0.0 0.0 0.0
0.0 0.0 0.0
0.0 0.0 0.0
0.0 0.0 0.0
0.0 0.0 0.0
0.0 0.0 0.0
0.0 0.0 0.0
0.0 0.0 0.0
0.0 0.0 0.0
0.0 0.0 0.0
0.0 0.0 0.0
0.0 0.0 0.0
0.0 0.0 0.0
0.0 0.0 0.0
0.0 0.0 0.0
0.0 0.0 0.0
0.0 0.0 0.0
0.0 0.0 0.0
0.0 0.0 0.0
0.0 0.0 0.0
0.0 0.0 0.0
0.0 0.0 0.0
0.0 0.0 0.0
0.0 0.0 0.0
0.0 0.0 0.0
0.0 0.0 0.0
0.0 0.0 0.0
0.0 0.0 0.0
0.0 0.0 0.0
0.0 0.0 0.0
0.0 0.0 0.0
0.0 0.0 0.0
0.0 0.0 0.0
0.0 0.0 0.0
0.0 0.0 0.0
0.0 0.0 0.0
0.0 0.0 0.0
0.0 0.0 0.0
0.0 0.0 0.0
0.0 0.0 0.0
0.0 0.0 0.0
0.0 0.0 0.0
0.0 0.0 0.0
0.0 0.0 0.0
0.0 0.0 0.0
0.0 0.0 0.0
0.0 0.0 0.0
0.0 0.0 0.0
0.0 0.0 0.0
0.0 0.0 0.0
0.0 0.0 0.0
0.0 0.0 0.0
0.0 0.0 0.0
0.0 0.0 0.0
0.0 0.0 0.0
0.0 0.0 0.0
0.0 0.0 0.0
0.0 0.0 0.0
0.0 0.0 0.0
0.0 0.0 0.0
0.0 0.0 0.0
0.0 0.0 0.0
0.0 0.0 0.0
0.0 0.0 0.0
0.0 0.0 0.0
0.0 0.0 0.0
0.0 0.0 0.0
0.0 0.0 0.0
0.0 0.0 0.0
0.0 0.0 0.0
0.0 0.0 0.0
0.0 0.0 0.0
0.0 0.0 0.0
0.0 0.0 0.0
0.0 0.0 0.0
0.0 0.0 0.0
0.0 0.0 0.0
0.0 0.0 0.0
0.0 0.0 0.0
0.0 0.0 0.0
0.0 0.0 0.0
0.0 0.0 0.0
0.0 0.0 0.0
0.0 0.0 0.0
0.0 0.0 0.0
0.0 0.0 0.0
0.0 0.0 0.0
0.0 0.0 0.0
0.0 0.0 0.0
0.0 0.0 0.0
0.0 0.0 0.0
0.0 0.0 0.0
0.0 0.0 0.0
0.0 0.0 0.0
0.0 0.0 0.0
0.0 0.0 0.0
0.0 0.0 0.0
0.0 0.0 0.0
0.0 0.0 0.0
0.0 0.0 0.0
0.0 0.0 0.0
0.0 0.0 0.0
0.0 0.0 0.0
0.0 0.0 0.0
0.0 0.0 0.0
0.0 0.0 0.0
0.0 0.0 0.0
0.0 0.0 0.0
0.0 0.0 0.0
0.0 0.0 0.0
0.0 0.0 0.0
0.0 0.0 0.0
0.0 0.0 0.0
0.0 0.0 0.0
0.0 0.0 0.0
0.0 0.0 0.0
0.0 0.0 0.0
0.0 0.0 0.0
0.0 0.0 0.0
0.0 0.0 0.0
0.0 0.0 0.0
0.0 0.0 0.0
0.0 0.0 0.0
0.0 0.0 0.0
0.0 0.0 0.0
0.0 0.0 0.0
0.0 0.0 0.0
0.0 0.0 0.0
0.0 0.0 0.0
0.0 0.0 0.0
0.0 0.0 0.0
0.0 0.0 0.0
0.0 0.0 0.0
0.0 0.0 0.0
0.0 0.0 0.0
0.0 0.0 0.0
0.0 0.0 0.0
0.0 0.0 0.0
0.0 0.0 0.0
0.0 0.0 0.0
0.0 0.0 0.0
0.0 0.0 0.0
0.0 0.0 0.0
0.0 0.0 0.0
0.0 0.0 0.0
0.0 0.0 0.0
0.0 0.0 0.0
0.0 0.0 0.0
0.0 0.0 0.0
0.0 0.0 0.0
0.0 0.0 0.0
0.0 0.0 0.0
0.0 0.0 0.0
0.0 0.0 0.0
0.0 0.0 0.0
0.0 0.0 0.0
0.0 0.0 0.0
0.0 0.0 0.0
0.0 0.0 0.0
0.0 0.0 0.0
0.0 0.0 0.0
0.0 0.0 0.0
0.0 0.0 0.0
0.0 0.0 0.0
0.0 0.0 0.0
0.0 0.0 0.0
0.0 0.0 0.0
0.0 0.0 0.0
0.0 0.0 0.0
0.0 0.0 0.0
0.0 0.0 0.0
0.0 0.0 0.0
0.0 0.0 0.0
0.0 0.0 0.0
0.0 0.0 0.0
0.0 0.0 0.0
0.0 0.0 0.0
0.0 0.0 0.0
0.0 0.0 0.0
0.0 0.0 0.0
0.0 0.0 0.0
0.0 0.0 0.0
0.0 0.0 0.0
0.0 0.0 0.0
0.0 0.0 0.0
0.0 0.0 0.0
0.0 0.0 0.0
0.0 0.0 0.0
0.0 0.0 0.0
0.0 0.0 0.0
0.0 0.0 0.0
0.0 0.0 0.0
0.0 0.0 0.0
0.0 0.0 0.0
0.0 0.0 0.0
0.0 0.0 0.0
0.0 0.0 0.0
0.0 0.0 0.0
0.0 0.0 0.0
0.0 0.0 0.0
0.0 0.0 0.0
0.0 0.0 0.0
0.0 0.0 0.0
0.0 0.0 0.0
0.0 0.0 0.0
0.0 0.0 0.0
0.0 0.0 0.0
0.0 0.0 0.0
0.0 0.0 0.0
0.0 0.0 0.0
0.0 0.0 0.0
0.0 0.0 0.0
0.0 0.0 0.0
0.0 0.0 0.0
0.0 0.0 0.0
0.0 0.0 0.0
0.0 0.0 0.0
0.0 0.0 0.0
0.0 0.0 0.0
0.0 0.0 0.0
0.0 0.0 0.0
0.0 0.0 0.0
0.0 0.0 0.0
0.0 0.0 0.0
0.0 0.0 0.0
0.0 0.0 0.0
0.0 0.0 0.0
0.0 0.0 0.0
0.0 0.0 0.0
0.0 0.0 0.0
0.0 0.0 0.0
0.0 0.0 0.0
0.0 0.0 0.0
0.0 0.0 0.0
0.0 0.0 0.0
0.0 0.0 0.0
0.0 0.0 0.0
0.0 0.0 0.0
0.0 0.0 0.0
0.0 0.0 0.0
0.0 0.0 0.0
0.0 0.0 0.0
0.0 0.0 0.0
0.0 0.0 0.0
0.0 0.0 0.0
0.0 0.0 0.0
0.0 0.0 0.0
0.0 0.0 0.0
0.0 0.0 0.0
0.0 0.0 0.0
0.0 0.0 0.0
0.0 0.0 0.0
0.0 0.0 0.0
0.0 0.0 0.0
0.0 0.0 0.0
0.0 0.0 0.0
0.0 0.0 0.0
0.0 0.0 0.0
0.0 0.0 0.0
0.0 0.0 0.0
0.0 0.0 0.0
0.0 0.0 0.0
0.0 0.0 0.0
0.0 0.0 0.0
0.0 0.0 0.0
0.0 0.0 0.0
0.0 0.0 0.0
0.0 0.0 0.0
0.0 0.0 0.0
0.0 0.0 0.0
0.0 0.0 0.0
0.0 0.0 0.0
0.0 0.0 0.0
0.0 0.0 0.0
0.0 0.0 0.0
0.0 0.0 0.0
0.0 0.0 0.0
0.0 0.0 0.0
0.0 0.0 0.0
0.0 0.0 0.0
0.0 0.0 0.0
0.0 0.0 0.0
0.0 0.0 0.0
0.0 0.0 0.0
0.0 0.0 0.0
0.0 0.0 0.0
0.0 0.0 0.0
0.0 0.0 0.0
0.0 0.0 0.0
0.0 0.0 0.0
0.0 0.0 0.0
0.0 0.0 0.0
0.0 0.0 0.0
0.0 0.0 0.0
0.0 0.0 0.0
0.0 0.0 0.0
0.0 0.0 0.0
0.0 0.0 0.0
0.0 0.0 0.0
0.0 0.0 0.0
0.0 0.0 0.0
0.0 0.0 0.0
0.0 0.0 0.0
0.0 0.0 0.0
0.0 0.0 0.0
0.0 0.0 0.0
0.0 0.0 0.0
0.0 0.0 0.0
0.0 0.0 0.0
0.0 0.0 0.0
0.0 0.0 0.0
0.0 0.0 0.0
0.0 0.0 0.0
0.0 0.0 0.0
0.0 0.0 0.0
0.0 0.0 0.0
0.0 0.0 0.0
0.0 0.0 0.0
0.0 0.0 0.0
0.0 0.0 0.0
0.0 0.0 0.0
0.0 0.0 0.0
0.0 0.0 0.0
0.0 0.0 0.0
0.0 0.0 0.0
0.0 0.0 0.0
0.0 0.0 0.0
0.0 0.0 0.0
0.0 0.0 0.0
0.0 0.0 0.0
0.0 0.0 0.0
0.0 0.0 0.0
0.0 0.0 0.0
0.0 0.0 0.0
0.0 0.0 0.0
0.0 0.0 0.0
0.0 0.0 0.0
0.0 0.0 0.0
0.0 0.0 0.0
0.0 0.0 0.0
0.0 0.0 0.0
0.0 0.0 0.0
0.0 0.0 0.0
0.0 0.0 0.0
0.0 0.0 0.0
0.0 0.0 0.0
0.0 0.0 0.0
0.0 0.0 0.0
0.0 0.0 0.0
0.0 0.0 0.0
0.0 0.0 0.0
0.0 0.0 0.0
0.0 0.0 0.0
0.0 0.0 0.0
0.0 0.0 0.0
0.0 0.0 0.0
0.0 0.0 0.0
0.0 0.0 0.0
0.0 0.0 0.0
0.0 0.0 0.0
0.0 0.0 0.0
0.0 0.0 0.0
0.0 0.0 0.0
0.0 0.0 0.0
0.0 0.0 0.0
0.0 0.0 0.0
0.0 0.0 0.0
0.0 0.0 0.0
0.0 0.0 0.0
0.0 0.0 0.0
0.0 0.0 0.0
0.0 0.0 0.0
0.0 0.0 0.0
0.0 0.0 0.0
0.0 0.0 0.0
0.0 0.0 0.0
0.0 0.0 0.0
0.0 0.0 0.0
0.0 0.0 0.0
0.0 0.0 0.0
0.0 0.0 0.0
0.0 0.0 0.0
0.0 0.0 0.0
0.0 0.0 0.0
0.0 0.0 0.0
0.0 0.0 0.0
0.0 0.0 0.0
0.0 0.0 0.0
0.0 0.0 0.0
0.0 0.0 0.0
0.0 0.0 0.0
0.0 0.0 0.0
0.0 0.0 0.0
0.0 0.0 0.0
0.0 0.0 0.0
0.0 0.0 0.0
0.0 0.0 0.0
0.0 0.0 0.0
0.0 0.0 0.0
0.0 0.0 0.0
0.0 0.0 0.0
0.0 0.0 0.0
0.0 0.0 0.0
0.0 0.0 0.0
0.0 0.0 0.0
0.0 0.0 0.0
0.0 0.0 0.0
0.0 0.0 0.0
0.0 0.0 0.0
0.0 0.0 0.0
0.0 0.0 0.0
0.0 0.0 0.0
0.0 0.0 0.0
0.0 0.0 0.0
0.0 0.0 0.0
0.0 0.0 0.0
0.0 0.0 0.0
0.0 0.0 0.0
0.0 0.0 0.0
0.0 0.0 0.0
0.0 0.0 0.0
0.0 0.0 0.0
0.0 0.0 0.0
0.0 0.0 0.0
0.0 0.0 0.0
0.0 0.0 0.0
0.0 0.0 0.0
0.0 0.0 0.0
0.0 0.0 0.0
0.0 0.0 0.0
0.0 0.0 0.0
0.0 0.0 0.0
0.0 0.0 0.0
0.0 0.0 0.0
0.0 0.0 0.0
0.0 0.0 0.0
0.0 0.0 0.0
0.0 0.0 0.0
0.0 0.0 0.0
0.0 0.0 0.0
0.0 0.0 0.0
0.0 0.0 0.0
0.0 0.0 0.0
0.0 0.0 0.0
0.0 0.0 0.0
0.0 0.0 0.0
0.0 0.0 0.0
0.0 0.0 0.0
0.0 0.0 0.0
0.0 0.0 0.0
0.0 0.0 0.0
0.0 0.0 0.0
0.0 0.0 0.0
0.0 0.0 0.0
0.0 0.0 0.0
0.0 0.0 0.0
0.0 0.0 0.0
0.0 0.0 0.0
0.0 0.0 0.0
0.0 0.0 0.0
0.0 0.0 0.0
0.0 0.0 0.0
0.0 0.0 0.0
0.0 0.0 0.0
0.0 0.0 0.0
0.0 0.0 0.0
0.0 0.0 0.0
0.0 0.0 0.0
0.0 0.0 0.0
0.0 0.0 0.0
0.0 0.0 0.0
0.0 0.0 0.0
VECTORS f float
0.0 0.0 -0.00160516
0.0 0.0 0.0
0.0 0.0 -0.000346714
0.0 0.0 -0.000346714
0.0 0.0 -0.000346714
0.0 0.0 -0.000346714
0.0 0.0 -0.000346714
0.0 0.0 -0.00160516
0.0 0.0 -0.00160516
0.0 0.0 -0.00160516
0.0 0.0 -0.000346714
0.0 0.0 -0.000346714
0.0 0.0 -0.000346714
0.0 0.0 -0.000346714
0.0 0.0 -0.000346714
0.0 0.0 -0.00160516
0.0 0.0 -0.000346714
0.0 0.0 -0.000346714
0.0 0.0 -0.000346714
0.0 0.0 -0.000346714
0.0 0.0 -0.000346714
0.0 0.0 -0.000346714
0.0 0.0 -0.000346714
0.0 0.0 -0.000346714
0.0 0.0 -0.00160516
0.0 0.0 -0.000346714
0.0 0.0 -0.00160516
0.0 0.0 -0.000346714
0.0 0.0 -0.000346714
0.0 0.0 -0.000346714
0.0 0.0 -0.000346714
0.0 0.0 -0.00160516
0.0 0.0 -0.000346714
0.0 0.0 -0.00160516
0.0 0.0 -0.00160516
0.0 0.0 -0.000346714
0.0 0.0 -0.000346714
0.0 0.0 -0.000346714
0.0 0.0 -0.00160516
0.0 0.0 -0.00160516
0.0 0.0 -0.000346714
0.0 0.0 -0.000346714
0.0 0.0 -0.00160516
0.0 0.0 -0.000346714
0.0 0.0 -0.000346714
0.0 0.0 -0.00160516
0.0 0.0 -0.000346714
0.0 0.0 -0.00160516
0.0 0.0 -0.000346714
0.0 0.0 -0.000346714
0.0 0.0 -0.000346714
0.0 0.0 -0.00160516
0.0 0.0 -0.00160516
0.0 0.0 -0.00160516
0.0 0.0 -0.000346714
0.0 0.0 -0.000346714
0.0 0.0 -0.00160516
0.0 0.0 -0.000346714
0.0 0.0 -0.000346714
0.0 0.0 -0.000346714
0.0 0.0 -0.000346714
0.0 0.0 -0.000346714
0.0 0.0 -0.000346714
0.0 0.0 -0.000346714
0.0 0.0 -0.00160516
0.0 0.0 -0.000346714
0.0 0.0 -0.00160516
0.0 0.0 -0.000346714
0.0 0.0 -0.00160516
0.0 0.0 -0.000346714
0.0 0.0 -0.000346714
0.0 0.0 -0.00160516
0.0 0.0 -0.000346714
0.0 0.0 -0.00160516
0.0 0.0 -0.000346714
0.0 0.0 -0.000346714
0.0 0.0 -0.000346714
0.0 0.0 -0.000346714
0.0 0.0 -0.000346714
0.0 0.0 -0.00160516
0.0 0.0 -0.000346714
0.0 0.0 -0.000346714
0.0 0.0 -0.000346714
0.0 0.0 -0.000346714
0.0 0.0 -0.000346714
0.0 0.0 -0.000346714
0.0 0.0 -0.000346714
0.0 0.0 -0.000346714
0.0 0.0 -0.000346714
0.0 0.0 -0.000346714
0.0 0.0 -0.000346714
0.0 0.0 -0.000346714
0.0 0.0 -0.00160516
0.0 0.0 -0.00160516
0.0 0.0 -0.00160516
0.0 0.0 -0.00160516
0.0 0.0 -0.000346714
0.0 0.0 -0.000346714
0.0 0.0 -0.000346714
0.0 0.0 -0.00160516
0.0 0.0 -0.00160516
-0.000580468 0.000178574 0.00122264
0.0 0.0 -0.000346714
0.0 0.0 -0.00160516
0.000248335 0.000478797 0.000237191
0.0 0.0 -0.000346714
0.0 0.0 -0.00160516
0.0 0.0 -0.000346714
-0.000411839 3.46375e-05 -0.000170802
0.0 0.0 -0.00160516
-0.000596517 -0.000612773 -0.000211843
0.00112684 -0.00236824 0.0178381
0.0 0.0 -0.000346714
0.0 0.0 -0.000346714
-8.56034e-05 2.22882e-05 -4.43387e-05
0.0 0.0 -0.000346714
0.0 0.0 -0.00160516
1.82181e-05 1.93312e-05 9.15248e-06
-6.47692e-05 -4.12827e-06 -9.83281e-05
-0.000394502 -0.000183957 -0.000199862
1.49588e-05 -1.02607e-05 -3.43023e-05
-0.000418514 3.38953e-05 -0.000157158
-9.8259e-06 0.000344496 0.000185663
-0.000134819 -1.87567e-05 3.1538e-05
0.0 0.0 -0.000346714
-8.78538e-05 -1.33075e-05 -3.98708e-05
-0.000468519 -0.000222118 -0.000114648
-7.434e-05 -6.25496e-05 -5.962e-05
-0.00315127 0.00168098 0.00450437
-0.000400405 2.53448e-05 -0.000206768
8.89127e-05 0.000219254 2.68344e-06
-8.35779e-05 -1.38193e-06 -3.46809e-05
0.0 0.0 -0.000346714
0.000135906 0.000121024 -0.00196411
-0.000100092 -4.23644e-05 -1.17973e-05
-8.37631e-05 -3.8187e-05 -4.21794e-05
-0.000597618 -0.000269891 0.000210817
0.0 0.0 -0.000346714
-9.12356e-06 6.21118e-05 0.000143742
-9.8749e-05 4.66622e-05 -1.16054e-05
-0.000462927 3.69663e-05 -6.14903e-05
0.0 0.0 -0.000346714
0.0 0.0 -0.000346714
-7.13417e-05 -8.26034e-05 -7.30682e-05
0.0 0.0 -0.000346714
0.0 0.0 -0.000346714
-1.2835e-06 -2.96724e-06 0.00111685
0.0 0.0 -0.000346714
0.0 0.0 -0.000346714
-0.00011286 1.01069e-05 1.62093e-05
0.0 0.0 -0.00160516
0.0 0.0 -0.000346714
3.31328e-05 -4.62131e-05 7.74133e-05
0.0 0.0 -0.00160516
0.0 0.0 -0.000346714
0.0 0.0 -0.00160516
8.01414e-05 -0.000239854 -0.00130632
0.0 0.0 -0.00160516
0.0 0.0 -0.000346714
0.0 0.0 -0.00160516
-0.000234385 -0.000110078 -0.000260121
-9.94082e-05 -1.08935e-05 -1.7952e-05
-0.000103794 -1.15266e-05 -2.71813e-06
0.0 0.0 -0.000346714
-0.000418791 -0.000150518 -0.000160461
-7.97634e-05 -5.57282e-05 -4.75525e-05
0.0 0.0 -0.00160516
-0.0022282 0.000262424 0.00380032
-9.54371e-05 2.32026e-05 -1.6074e-06
-0.000465057 4.96121e-05 -2.32116e-05
0.000125063 1.89768e-05 -0.00115403
-9.0605e-05 -2.70084e-05 -9.11983e-05
-0.000108875 -4.26727e-05 7.06931e-05
-8.0955e-05 -5.40865e-05 -4.7313e-05
0.0 0.0 -0.00160516
0.0 0.0 -0.000346714
-5.19098e-05 1.98446e-05 -0.000103517
0.0 0.0 -0.000346714
0.0 0.0 -0.00160516
0.0 0.0 -0.00160516
0.00630642 -0.00657688 0.00500247
-0.00638922 0.00601741 -0.00472751
-0.000398491 -3.40299e-05 -0.00020085
-1.77318e-05 -2.29262e-06 -0.000202918
0.00260799 -0.0137775 -0.00311591
-0.000123188 0.0109832 -0.00383079
-8.84373e-05 5.43136e-05 -0.000214997
0.0 0.0 -0.00160516
0.0 0.0 -0.000346714
0.000303566 -0.000415014 0.00422733
0.000116195 7.36542e-05 4.46535e-05
-0.000210981 -1.9317e-05 -0.000572565
0.0 0.0 -0.000346714
-8.81971e-05 -6.9206e-06 -3.58068e-05
0.000125909 -5.34807e-05 0.00147473
0.0 0.0 -0.000346714
0.000287372 0.000100548 0.00297923
6.53583e-05 -0.000230877 0.000740046
-0.000457892 -0.000159739 0.00100984
1.56169e-05 -2.67039e-05 -6.38791e-06
-0.000581486 6.45631e-06 0.000544795
-0.000359404 0.00017815 -0.000262719
-0.000408941 8.64005e-05 -0.000189917
-0.000934348 0.00020754 0.00140118
-8.82774e-05 -2.53032e-05 -4.07775e-05
-8.70488e-05 1.91544e-05 -3.76178e-05
-8.77862e-06 -7.03129e-05 -2.0983e-06
0.0 0.0 -0.000346714
0.0 0.0 -0.000346714
0.0 0.0 -0.00160516
-0.000524925 -3.51587e-05 0.00108575
0.00987724 0.00296768 -0.0226253
0.0 0.0 -0.000346714
-6.81911e-05 -1.75746e-05 -0.000126553
7.75056e-06 -8.8049e-06 -9.94063e-05
-8.60158e-05 -5.32489e-05 -3.38954e-05
-9.79755e-05 -8.8691e-05 -1.94951e-05
4.59592e-05 -4.58951e-05 -0.000500356
-0.000449012 0.000109067 -0.000107884
0.0 0.0 -0.00160516
2.44044e-05 1.29903e-05 8.70459e-06
0.0 0.0 -0.000346714
0.0 0.0 -0.000346714
-0.000338138 -8.93667e-06 -0.0003668
-2.01022e-05 -2.61534e-07 -0.000183117
-8.78262e-05 -1.39275e-06 -3.64035e-05
0.0 0.0 -0.00160516
-0.00334222 0.000765613 0.0136979
-8.85969e-05 -2.24369e-05 -4.02654e-05
-0.000101524 -2.78528e-05 -1.64766e-05
0.0 0.0 -0.000346714
0.0 0.0 -0.00160516
2.35128e-05 3.27434e-05 1.77715e-06
-8.84565e-05 2.44735e-05 -4.0853e-05
0.0 0.0 -0.00160516
0.000177153 -0.000112108 0.00152382
0.0 0.0 -0.00160516
-0.000366222 -0.000333301 -0.000504257
0.0 0.0 -0.000346714
-8.25595e-05 4.73918e-05 -4.46011e-05
0.0 0.0 -0.000346714
0.000211609 -0.000106358 -0.000841192
-8.62899e-05 2.48621e-05 -3.85854e-05
0.0 0.0 -0.000346714
0.0 0.0 -0.000346714
0.00199853 -0.00215494 0.000896671
2.62685e-05 3.56744e-06 2.98836e-05
-0.00199853 0.00215494 -0.00410699
3.01684e-05 -7.88858e-05 7.58268e-05
0.0 0.0 -0.000346714
0.0 0.0 -0.000346714
-6.40239e-05 1.73783e-05 -0.000101096
0.0 0.0 -0.00160516
0.0 0.0 -0.00160516
0.0 0.0 -0.000346714
0.0 0.0 -0.00160516
-8.7374e-05 -1.88228e-05 -3.81876e-05
-0.00040377 -0.000194293 -0.000185831
-8.41714e-05 -4.23273e-05 -4.30825e-05
-8.84522e-05 4.75852e-05 -2.91642e-05
7.97936e-07 1.70705e-06 -0.000337343
-8.66274e-05 4.60369e-05 -3.71233e-05
-0.000484805 0.000143706 3.57509e-05
-9.74601e-05 7.51894e-06 -3.8198e-05
-8.89691e-05 1.74595e-05 -3.94096e-05
-0.000401403 1.37009e-05 -0.000168705
7.74407e-06 3.90581e-05 3.75914e-06
0.0 0.0 -0.000346714
-9.15098e-05 -1.83011e-05 -3.35906e-05
-7.54153e-05 -1.4936e-05 -7.16455e-05
-3.14219e-05 1.11015e-05 -0.000185088
0.0 0.0 -0.00160516
0.0 0.0 -0.000346714
0.0 0.0 -0.00160516
0.0 0.0 -0.000346714
0.0 0.0 -0.000346714
-8.31944e-05 2.52157e-05 -5.16772e-05
0.0 0.0 -0.00160516
1.93453e-05 3.15214e-05 -0.000313018
0.000151009 0.00032509 0.00189076
1.46754e-05 3.57506e-05 -9.12217e-05
0.0 0.0 -0.000346714
0.0 0.0 -0.00160516
-0.00244053 0.000168052 0.00445081
-0.00764137 0.00199426 -0.00657231
0.0 0.0 -0.00160516
0.0 0.0 -0.000346714
0.0 0.0 -0.00160516
0.0 0.0 -0.000346714
0.0 0.0 -0.000346714
0.0 0.0 -0.00160516
0.0 0.0 -0.000346714
0.0 0.0 -0.00160516
0.0 0.0 -0.000346714
4.35085e-05 0.000121509 0.000524899
0.0 0.0 -0.00160516
0.00782578 -0.00240821 0.00846452
0.0 0.0 -0.000346714
0.0 0.0 -0.000346714
0.0 0.0 -0.000346714
0.0 0.0 -0.000346714
-0.000534373 -0.00025439 0.00125696
-9.82752e-05 7.28953e-05 -0.00118972
0.0 0.0 -0.000346714
-0.000187995 7.42285e-05 9.87196e-05
-0.000691169 0.000190574 0.000624153
-0.000342908 4.23991e-05 -0.000361364
0.0 0.0 -0.00160516
-9.64049e-05 -2.04534e-05 -0.000254935
0.0 0.0 -0.000346714
0.0 0.0 -0.000346714
0.000241158 0.000578961 0.000519701
0.0 0.0 -0.000346714
0.0258872 -0.014671 0.017219
-8.68429e-05 1.96314e-05 -3.77868e-05
-1.40708e-05 0.000312299 0.000581313
0.0 0.0 -0.000346714
-0.000757926 4.36849e-05 0.000824293
-8.94901e-05 6.38335e-06 -3.85346e-05
0.0 0.0 -0.000346714
0.0 0.0 -0.00160516
-8.66206e-05 -4.24488e-05 -4.60467e-05
0.0 0.0 -0.000346714
0.0 0.0 -0.00160516
0.0 0.0 -0.000346714
-8.91377e-05 1.545e-05 -3.92934e-05
5.97705e-06 -7.66579e-06 -0.00118344
-0.00184868 -0.000521373 0.00133771
0.0 0.0 -0.000346714
0.0 0.0 -0.000346714
0.00217665 0.000452908 0.00116766
0.0 0.0 -0.000346714
-9.00829e-05 -1.05815e-05 -3.98776e-05
0.0 0.0 -0.00160516
0.0 0.0 -0.00160516
-8.92682e-05 -2.64454e-05 -4.10526e-05
-0.000469176 -0.00014104 -4.35917e-05
1.72913e-05 1.16741e-05 -0.000363175
-7.37797e-05 -7.9342e-05 -6.39127e-05
0.0 0.0 -0.000346714
-8.6517e-05 2.94583e-05 -4.02982e-05
-0.00325149 -0.00447198 -0.00878831
0.0 0.0 -0.000346714
-0.000422695 2.39596e-05 -0.000133061
0.0 0.0 -0.000346714
0.0 0.0 -0.000346714
-0.000231086 -3.24482e-05 -0.000872074
0.0 0.0 -0.000346714
0.0 0.0 -0.000346714
0.0 0.0 -0.000346714
0.0 0.0 -0.000346714
0.0 0.0 -0.000346714
0.0 0.0 -0.000346714
-0.000400283 0.000133364 -0.000191534
0.0 0.0 -0.000346714
-2.60276e-05 0.000147529 -7.17617e-06
0.0 0.0 -0.000346714
0.0 0.0 -0.000346714
-8.84429e-05 2.80823e-08 -3.71336e-05
0.0 0.0 -0.000346714
0.0 0.0 -0.000346714
0.0 0.0 -0.00160516
0.0 0.0 -0.00160516
-0.000341479 -5.75297e-05 -0.000332327
-8.8233e-05 -1.49383e-05 -3.89518e-05
0.0 0.0 -0.00160516
0.0 0.0 -0.000346714
-3.66607e-05 4.84241e-05 -0.000148576
-0.000372322 0.000283725 -0.000242757
5.50459e-05 5.39694e-06 0.000268739
0.0 0.0 -0.000346714
-0.000437013 0.000142435 -0.000139163
0.0 0.0 -0.00160516
-8.87053e-05 1.31053e-05 -3.84463e-05
0.0 0.0 -0.00160516
0.0 0.0 -0.00160516
-0.000406672 -7.32785e-05 -0.000173266
-7.30062e-05 -2.63847e-05 -7.2855e-05
0.0 0.0 -0.000346714
0.0 0.0 -0.00160516
0.0 0.0 -0.000346714
0.0 0.0 -0.000346714
-0.000527806 2.12238e-06 0.000231395
0.0 0.0 -0.00160516
0.0 0.0 -0.000346714
-9.04422e-05 -1.7781e-05 -3.07828e-05
-8.83937e-05 -1.59685e-05 -3.96401e-05
-0.000778114 -0.000181237 0.000773653
0.0 0.0 -0.00160516
-8.67143e-05 -3.17646e-05 -4.13368e-05
-0.00037387 0.000186103 -0.000250773
0.0 0.0 -0.000346714
0.000109241 0.000188217 2.1673e-05
0.0 0.0 -0.000346714
0.0 0.0 -0.000346714
0.0 0.0 -0.000346714
0.0 0.0 -0.000346714
-0.000572346 -2.25435e-05 3.50008e-05
0.0 0.0 -0.000346714
0.0 0.0 -0.000346714
-8.7897e-05 -2.55186e-06 -3.79015e-05
-0.000174988 -8.45583e-06 0.000114159
-8.76927e-05 -1.71746e-05 -3.81096e-05
-8.85142e-05 -1.74205e-05 -3.90216e-05
-0.000367696 0.000269964 -0.00025744
0.0 0.0 -0.000346714
0.0 0.0 -0.000346714
-0.000152675 3.31997e-05 0.000511348
0.0 0.0 -0.000346714
-8.80131e-05 1.10866e-05 -3.74416e-05