# vtk DataFile Version 2.0
Generated by lpp.py
ASCII
DATASET POLYDATA
POINTS 827 float
-0.0324476 0.0335121 0.0583968
-0.00564639 -4.23187e-05 0.0574643
-0.0298191 -0.0219637 0.0580777
-0.0349582 0.000343834 0.0570518
-0.487242 -0.00140803 -0.395095
-0.470024 -0.00136646 -0.39501
-0.465865 -0.0256391 -0.389764
-0.459232 -0.0124074 -0.391271
-0.485067 0.0323854 -0.389898
-0.450512 -0.0146361 -0.388494
-0.449812 -0.00836667 -0.386213
-0.471905 0.00355634 -0.387471
-0.457599 0.00966407 -0.388997
-0.467994 0.0245766 -0.387151
-0.45442 -0.0138862 -0.384123
-0.49445 -0.00806114 -0.379132
-0.445045 0.00585877 -0.375527
-0.458505 0.0129063 -0.372255
-0.447611 -0.0181995 -0.36841
-0.447379 -0.00301063 -0.370738
-0.457884 0.0251016 -0.368899
-0.461831 -0.0312907 -0.367901
-0.449772 0.00351424 -0.36773
-0.478052 0.0274464 -0.366786
-0.456474 -0.00741625 -0.363427
-0.44186 0.000804969 -0.362505
-0.466291 0.0548557 -0.362659
-0.445468 0.00227142 -0.358008
-0.446708 0.00625369 -0.359782
-0.435222 -0.0204817 -0.355131
-0.457087 -0.0120881 -0.357625
-0.446237 -0.0028769 -0.350865
-0.436242 -0.00320787 -0.351568
-0.442821 -0.0111367 -0.34808
-0.427288 -0.0200722 -0.344425
-0.449292 -0.0246955 -0.342938
-0.42709 -0.016622 -0.339966
-0.433881 -0.00624775 -0.341007
-0.436213 0.00369502 -0.342808
-0.434234 0.0138806 -0.341313
-0.436402 0.0397833 -0.341045
-0.435265 -0.0434117 -0.339388
-0.441671 -0.0211132 -0.340423
-0.417688 -0.00986214 -0.334027
-0.41466 4.49847e-05 -0.334229
-0.432154 0.018946 -0.33593
-0.424919 0.00637745 -0.332051
-0.415182 -0.00775869 -0.326728
-0.417466 0.00536023 -0.328702
-0.413048 0.00682337 -0.322909
-0.419914 -0.0347518 -0.32128
-0.390184 -0.0171161 -0.320413
-0.41455 -0.00423703 -0.319642
-0.397584 -0.00439258 -0.31866
-0.401726 0.0095101 -0.321655
-0.408237 0.0248952 -0.318912
-0.399059 -0.00774259 -0.317082
-0.422959 -0.000984615 -0.317882
-0.412813 -0.00122311 -0.315062
-0.410921 -0.0178234 -0.313262
-0.411592 -0.0055091 -0.311554
-0.406174 0.0147916 -0.312709
-0.406183 -0.00343367 -0.309505
-0.410607 0.00266064 -0.308352
-0.405264 0.0021001 -0.309788
-0.408651 0.00577548 -0.308954
-0.414743 -0.0290541 -0.30451
-0.397688 -0.00504415 -0.306392
-0.402981 0.00427223 -0.306869
-0.405049 0.0155566 -0.30492
-0.38631 -0.0243354 -0.303777
-0.395884 -0.00853188 -0.301527
-0.410605 -0.000374951 -0.301232
-0.387697 -0.000680558 -0.304016
-0.402809 0.0119189 -0.303529
-0.410788 -0.0228706 -0.299374
-0.398434 -0.016147 -0.299395
-0.393942 -0.00345453 -0.298686
-0.402281 -0.020139 -0.296128
-0.405026 -0.0128066 -0.294705
-0.403677 -0.00697368 -0.295047
-0.398206 -0.00261886 -0.2959
-0.407773 -0.0100708 -0.293299
-0.390965 -0.0090551 -0.292457
-0.394349 -0.00384003 -0.293101
-0.383109 -0.0060574 -0.292315
-0.380275 -0.00200924 -0.291878
-0.373253 0.00156201 -0.291359
-0.413058 0.00844915 -0.292926
-0.399132 0.021529 -0.290751
-0.398686 -0.0228157 -0.287302
-0.384796 0.00595455 -0.28964
-0.384939 0.012797 -0.287187
-0.400294 0.016935 -0.287066
-0.388736 0.0172661 -0.288591
-0.37837 0.0203108 -0.288047
-0.386724 -0.0114339 -0.285987
-0.368702 0.000985802 -0.285766
-0.381291 0.00897071 -0.286231
-0.381923 0.012307 -0.282908
-0.404973 0.0474938 -0.285148
-0.381921 -0.021731 -0.280055
-0.379005 -0.0177929 -0.279583
-0.376079 -0.00880091 -0.279801
-0.37303 -0.00343315 -0.280122
-0.369508 0.00433931 -0.279787
-0.373963 0.0101753 -0.279532
-0.3624 0.00991808 -0.281243
-0.377294 0.0146617 -0.280664
-0.390923 0.0275757 -0.282176
-0.371146 -0.0152456 -0.277712
-0.372243 -0.0112882 -0.276647
-0.372575 -0.00738886 -0.277486
-0.369687 -0.00591063 -0.277324
-0.371323 -0.000114127 -0.276442
-0.364103 -0.00219314 -0.277938
-0.367033 0.00820774 -0.276441
-0.371711 0.0117725 -0.277201
-0.374254 0.0140844 -0.278896
-0.370372 0.0176381 -0.279089
-0.380536 0.0261633 -0.275893
-0.379329 -0.0183741 -0.275471
-0.374095 -0.020298 -0.272872
-0.3782 0.00117518 -0.274458
-0.368636 0.00288484 -0.274114
-0.371773 0.0143317 -0.274027
-0.382418 0.021227 -0.274985
-0.364651 -0.020964 -0.269588
-0.372933 -0.00463006 -0.270259
-0.361669 -0.00623146 -0.27015
-0.369171 -0.00259228 -0.271615
-0.374755 0.00817967 -0.271687
-0.358964 0.00794846 -0.268729
-0.378992 0.0124202 -0.271213
-0.369657 0.0134177 -0.269874
-0.366148 0.0161247 -0.269972
-0.373129 0.0274138 -0.270815
-0.373515 -0.0150149 -0.267858
-0.368395 -0.00856206 -0.267418
-0.37175 0.00109761 -0.26636
-0.367991 0.00306941 -0.267323
-0.36432 0.00528009 -0.267391
-0.364187 0.0138923 -0.265529
-0.366763 -0.0178924 -0.264297
-0.363475 -0.0138507 -0.261959
-0.365862 -0.00449078 -0.264335
-0.35794 0.00172219 -0.263116
-0.353869 0.00540106 -0.263812
-0.378458 0.00807302 -0.262456
-0.365279 0.00986417 -0.263475
-0.367728 0.0161946 -0.264904
-0.360322 0.0173693 -0.263106
-0.364268 0.0190077 -0.263514
-0.356281 -0.016254 -0.259791
-0.35457 -0.010811 -0.258519
-0.355512 0.00844818 -0.260705
-0.357717 0.0142532 -0.261035
-0.353326 -0.0162746 -0.255924
-0.363154 -0.00519529 -0.25724
-0.346445 -0.00150941 -0.255032
-0.359396 0.00261409 -0.257495
-0.35016 0.0118261 -0.256993
-0.35054 -0.0315484 -0.251743
-0.342442 -0.00107058 -0.252554
-0.344669 0.00132124 -0.253772
-0.340741 0.00741393 -0.254106
-0.338942 0.00683384 -0.251711
-0.341947 0.0122419 -0.253927
-0.341784 -0.0237776 -0.247455
-0.337556 -0.0161857 -0.247529
-0.334619 0.00155602 -0.247245
-0.337474 0.00542479 -0.24887
-0.334536 0.00519007 -0.248028
-0.339662 0.00985554 -0.250068
-0.338241 0.0126771 -0.24702
-0.341153 0.0199284 -0.249611
-0.326493 -0.00420291 -0.243562
-0.329339 0.00581703 -0.243774
-0.333833 0.011665 -0.246261
-0.330621 0.0105097 -0.245364
-0.334704 0.0157437 -0.246415
-0.330445 0.0141054 -0.243507
-0.358341 0.0179291 -0.244392
-0.337239 0.0274465 -0.244796
-0.327909 -0.00922506 -0.242699
-0.327304 0.000857413 -0.243142
-0.321945 0.00431415 -0.241624
-0.326463 0.00970884 -0.242173
-0.320843 0.00719135 -0.240977
-0.318964 -0.0210586 -0.238324
-0.318924 -0.00145443 -0.239489
-0.316893 0.00687823 -0.239332
-0.309282 -0.0153537 -0.235262
-0.306264 -0.0163735 -0.232825
-0.311234 -0.00897367 -0.235827
-0.301942 -0.00727268 -0.233201
-0.308243 -0.000358214 -0.236103
-0.309732 0.0033426 -0.235455
-0.305283 0.00090968 -0.233732
-0.303412 0.00517 -0.233761
-0.312041 0.00932206 -0.236052
-0.308097 0.00738422 -0.235268
-0.300856 -0.0211949 -0.230668
-0.300648 -0.0154255 -0.231798
-0.298461 -0.011662 -0.231291
-0.296835 -0.00600033 -0.231092
-0.296003 -0.00296143 -0.230668
-0.29779 0.00472191 -0.231417
-0.292493 0.0044952 -0.229199
-0.302021 0.00724806 -0.232104
-0.299703 0.0149902 -0.231393
-0.301262 0.0200587 -0.231057
-0.289848 -0.0185647 -0.226734
-0.290097 -0.00674335 -0.228225
-0.28496 -0.000659202 -0.226264
-0.289433 0.00117974 -0.22812
-0.293935 0.0149322 -0.2279
-0.292031 0.0242765 -0.226435
-0.297951 0.0254013 -0.228639
-0.302073 0.0300592 -0.227924
-0.285472 -0.0231205 -0.224051
-0.280686 0.00180195 -0.224392
-0.281948 0.00569453 -0.223589
-0.285114 0.0243193 -0.223609
-0.282567 0.0211958 -0.223088
-0.293712 0.0393528 -0.222546
-0.307261 0.0454602 -0.22488
-0.275639 -0.0134818 -0.2215
-0.272634 -0.00907659 -0.219645
-0.274988 -0.00130286 -0.222034
-0.273598 0.00338662 -0.221077
-0.275345 0.00639736 -0.221894
-0.268644 0.00687372 -0.219047
-0.273149 0.0224921 -0.218936
-0.285839 -0.0460819 -0.216433
-0.265537 -0.017272 -0.216817
-0.268154 -0.00861643 -0.217498
-0.267308 -0.000381865 -0.217749
-0.258504 -0.0013963 -0.215106
-0.261809 0.000859432 -0.215376
-0.265497 0.00579196 -0.2167
-0.270353 0.0114123 -0.218456
-0.289054 0.0160631 -0.216517
-0.26744 0.0146403 -0.217876
-0.27106 0.0243449 -0.217586
-0.277435 0.0330595 -0.216881
-0.272546 -0.0342152 -0.214478
-0.260149 -0.0207626 -0.213858
-0.257448 -0.0172483 -0.213164
-0.252796 -0.00923004 -0.212352
-0.253054 -0.00593173 -0.212611
-0.254685 -0.00210325 -0.213469
-0.255625 0.000996481 -0.213696
-0.255985 0.00403006 -0.213847
-0.261494 0.0115269 -0.214053
-0.261468 0.0229041 -0.212568
-0.272924 0.0334499 -0.214838
-0.278342 0.0453899 -0.213635
-0.251676 -0.0130976 -0.210225
-0.243651 -0.0121502 -0.208247
-0.245512 -0.00860389 -0.208216
-0.248267 -0.00272172 -0.210753
-0.264944 0.00310525 -0.208575
-0.252253 0.000367547 -0.211339
-0.247102 0.000236609 -0.210239
-0.264398 0.0063228 -0.210854
-0.242352 0.00374838 -0.208103
-0.251147 -0.0111669 -0.205963
-0.235215 -0.0116316 -0.204564
-0.246011 -0.00363581 -0.207586
-0.239399 0.00522894 -0.206793
-0.236692 0.0041544 -0.205688
-0.248485 0.0290328 -0.206118
-0.244655 -0.0330212 -0.203435
-0.23768 -0.0287023 -0.202901
-0.235234 -0.0238988 -0.202789
-0.239743 -0.0201721 -0.204415
-0.234841 -0.0205724 -0.203299
-0.231143 -0.0183668 -0.201135
-0.234587 -0.0165812 -0.20392
-0.231134 -0.0138241 -0.202699
-0.235241 -0.00731421 -0.203826
-0.230624 -0.00765916 -0.202966
-0.225606 -0.00522553 -0.201072
-0.230085 -0.00140706 -0.203066
-0.232208 0.00117114 -0.203911
-0.23462 0.00929209 -0.203581
-0.231372 0.0130789 -0.201796
-0.233104 0.0176348 -0.203011
-0.233525 0.0215294 -0.202657
-0.234976 0.0281713 -0.201837
-0.247876 0.0464686 -0.201171
-0.220138 -0.0170816 -0.197707
-0.224616 -0.0127443 -0.200007
-0.221352 -0.0128539 -0.197511
-0.223337 -0.00776295 -0.198817
-0.219144 -0.00942741 -0.197992
-0.221274 -0.00161655 -0.198236
-0.227979 0.00648836 -0.200882
-0.223531 0.0115464 -0.198684
-0.228032 0.0162702 -0.199881
-0.225977 0.0203839 -0.199678
-0.239199 0.037518 -0.201165
-0.23578 0.0377884 -0.198515
-0.238997 -0.0476451 -0.196061
-0.2132 -0.0183905 -0.194627
-0.217885 -0.0149868 -0.19461
-0.212057 -0.0132535 -0.194673
-0.218062 -0.00549634 -0.19682
-0.21342 -0.00616106 -0.195918
-0.21055 -0.0051907 -0.194779
-0.214868 -0.00306671 -0.196554
-0.212137 -0.00208355 -0.195423
-0.217002 0.00113216 -0.19747
-0.21391 0.000251724 -0.196156
-0.211579 0.00184433 -0.195138
-0.219771 0.0052295 -0.197473
-0.214826 0.00474086 -0.196508
-0.211698 0.0127476 -0.194625
-0.226636 0.0348095 -0.196764
-0.223004 -0.0456795 -0.191462
-0.209081 -0.0280481 -0.191057
[...]
POINT_DATA 827
VECTORS i float
0.0 0.0 0.0
0.0 0.0 0.0
0.0 0.0 0.0
0.0 0.0 0.0
0.0 0.0 0.0
0.0 0.0 0.0
0.0 0.0 0.0
0.0 0.0 0.0
0.0 0.0 0.0
0.0 0.0 0.0
0.0 0.0 0.0
0.0 0.0 0.0
0.0 0.0 0.0
0.0 0.0 0.0
0.0 0.0 0.0
0.0 0.0 0.0
0.0 0.0 0.0
0.0 0.0 0.0
0.0 0.0 0.0
0.0 0.0 0.0
0.0 0.0 0.0
0.0 0.0 0.0
0.0 0.0 0.0
0.0 0.0 0.0
0.0 0.0 0.0
0.0 0.0 0.0
0.0 0.0 0.0
0.0 0.0 0.0
0.0 0.0 0.0
0.0 0.0 0.0
0.0 0.0 0.0
0.0 0.0 0.0
0.0 0.0 0.0
0.0 0.0 0.0
0.0 0.0 0.0
0.0 0.0 0.0
0.0 0.0 0.0
0.0 0.0 0.0
0.0 0.0 0.0
0.0 0.0 0.0
0.0 0.0 0.0
0.0 0.0 0.0
0.0 0.0 0.0
0.0 0.0 0.0
0.0 0.0 0.0
0.0 0.0 0.0
0.0 0.0 0.0
0.0 0.0 0.0
0.0 0.0 0.0
0.0 0.0 0.0
0.0 0.0 0.0
0.0 0.0 0.0
0.0 0.0 0.0
0.0 0.0 0.0
0.0 0.0 0.0
0.0 0.0 0.0
0.0 0.0 0.0
0.0 0.0 0.0
0.0 0.0 0.0
0.0 0.0 0.0
0.0 0.0 0.0
0.0 0.0 0.0
0.0 0.0 0.0
0.0 0.0 0.0
0.0 0.0 0.0
0.0 0.0 0.0
0.0 0.0 0.0
0.0 0.0 0.0
0.0 0.0 0.0
0.0 0.0 0.0
0.0 0.0 0.0
0.0 0.0 0.0
0.0 0.0 0.0
0.0 0.0 0.0
0.0 0.0 0.0
0.0 0.0 0.0
0.0 0.0 0.0
0.0 0.0 0.0
0.0 0.0 0.0
0.0 0.0 0.0
0.0 0.0 0.0
0.0 0.0 0.0
0.0 0.0 0.0
0.0 0.0 0.0
0.0 0.0 0.0
0.0 0.0 0.0
0.0 0.0 0.0
0.0 0.0 0.0
0.0 0.0 0.0
0.0 0.0 0.0
0.0 0.0 0.0
0.0 0.0 0.0
0.0 0.0 0.0
0.0 0.0 0.0
0.0 0.0 0.0
0.0 0.0 0.0
0.0 0.0 0.0
0.0 0.0 0.0
0.0 0.0 0.0
0.0 0.0 0.0
0.0 0.0 0.0
0.0 0.0 0.0
0.0 0.0 0.0
0.0 0.0 0.0
0.0 0.0 0.0
0.0 0.0 0.0
0.0 0.0 0.0
0.0 0.0 0.0
0.0 0.0 0.0
0.0 0.0 0.0
0.0 0.0 0.0
0.0 0.0 0.0
0.0 0.0 0.0
0.0 0.0 0.0
0.0 0.0 0.0
0.0 0.0 0.0
0.0 0.0 0.0
0.0 0.0 0.0
0.0 0.0 0.0
0.0 0.0 0.0
0.0 0.0 0.0
0.0 0.0 0.0
0.0 0.0 0.0
0.0 0.0 0.0
0.0 0.0 0.0
0.0 0.0 0.0
0.0 0.0 0.0
0.0 0.0 0.0
0.0 0.0 0.0
0.0 0.0 0.0
0.0 0.0 0.0
0.0 0.0 0.0
0.0 0.0 0.0
0.0 0.0 0.0
0.0 0.0 0.0
0.0 0.0 0.0
0.0 0.0 0.0
0.0 0.0 0.0
0.0 0.0 0.0
0.0 0.0 0.0
0.0 0.0 0.0
0.0 0.0 0.0
0.0 0.0 0.0
0.0 0.0 0.0
0.0 0.0 0.0
0.0 0.0 0.0
0.0 0.0 0.0
0.0 0.0 0.0
0.0 0.0 0.0
0.0 0.0 0.0
0.0 0.0 0.0
0.0 0.0 0.0
0.0 0.0 0.0
0.0 0.0 0.0
0.0 0.0 0.0
0.0 0.0 0.0
0.0 0.0 0.0
0.0 0.0 0.0
0.0 0.0 0.0
0.0 0.0 0.0
0.0 0.0 0.0
0.0 0.0 0.0
0.0 0.0 0.0
0.0 0.0 0.0
0.0 0.0 0.0
0.0 0.0 0.0
0.0 0.0 0.0
0.0 0.0 0.0
0.0 0.0 0.0
0.0 0.0 0.0
0.0 0.0 0.0
0.0 0.0 0.0
0.0 0.0 0.0
0.0 0.0 0.0
0.0 0.0 0.0
0.0 0.0 0.0
0.0 0.0 0.0
0.0 0.0 0.0
0.0 0.0 0.0
0.0 0.0 0.0
0.0 0.0 0.0
0.0 0.0 0.0
0.0 0.0 0.0
0.0 0.0 0.0
0.0 0.0 0.0
0.0 0.0 0.0
0.0 0.0 0.0
0.0 0.0 0.0
0.0 0.0 0.0
0.0 0.0 0.0
0.0 0.0 0.0
0.0 0.0 0.0
0.0 0.0 0.0
0.0 0.0 0.0
0.0 0.0 0.0
0.0 0.0 0.0
0.0 0.0 0.0
0.0 0.0 0.0
0.0 0.0 0.0
0.0 0.0 0.0
0.0 0.0 0.0
0.0 0.0 0.0
0.0 0.0 0.0
0.0 0.0 0.0
0.0 0.0 0.0
0.0 0.0 0.0
0.0 0.0 0.0
0.0 0.0 0.0
0.0 0.0 0.0
0.0 0.0 0.0
0.0 0.0 0.0
0.0 0.0 0.0
0.0 0.0 0.0
0.0 0.0 0.0
0.0 0.0 0.0
0.0 0.0 0.0
0.0 0.0 0.0
0.0 0.0 0.0
0.0 0.0 0.0
0.0 0.0 0.0
0.0 0.0 0.0
0.0 0.0 0.0
0.0 0.0 0.0
0.0 0.0 0.0
0.0 0.0 0.0
0.0 0.0 0.0
0.0 0.0 0.0
0.0 0.0 0.0
0.0 0.0 0.0
0.0 0.0 0.0
0.0 0.0 0.0
0.0 0.0 0.0
0.0 0.0 0.0
0.0 0.0 0.0
0.0 0.0 0.0
0.0 0.0 0.0
0.0 0.0 0.0
0.0 0.0 0.0
0.0 0.0 0.0
0.0 0.0 0.0
0.0 0.0 0.0
0.0 0.0 0.0
0.0 0.0 0.0
0.0 0.0 0.0
0.0 0.0 0.0
0.0 0.0 0.0
0.0 0.0 0.0
0.0 0.0 0.0
0.0 0.0 0.0
0.0 0.0 0.0
0.0 0.0 0.0
0.0 0.0 0.0
0.0 0.0 0.0
0.0 0.0 0.0
0.0 0.0 0.0
0.0 0.0 0.0
0.0 0.0 0.0
0.0 0.0 0.0
0.0 0.0 0.0
0.0 0.0 0.0
0.0 0.0 0.0
0.0 0.0 0.0
0.0 0.0 0.0
0.0 0.0 0.0
0.0 0.0 0.0
0.0 0.0 0.0
0.0 0.0 0.0
0.0 0.0 0.0
0.0 0.0 0.0
0.0 0.0 0.0
0.0 0.0 0.0
0.0 0.0 0.0
0.0 0.0 0.0
0.0 0.0 0.0
0.0 0.0 0.0
0.0 0.0 0.0
0.0 0.0 0.0
0.0 0.0 0.0
0.0 0.0 0.0
0.0 0.0 0.0
0.0 0.0 0.0
0.0 0.0 0.0
0.0 0.0 0.0
0.0 0.0 0.0
0.0 0.0 0.0
0.0 0.0 0.0
0.0 0.0 0.0
0.0 0.0 0.0
0.0 0.0 0.0
0.0 0.0 0.0
0.0 0.0 0.0
0.0 0.0 0.0
0.0 0.0 0.0
0.0 0.0 0.0
0.0 0.0 0.0
0.0 0.0 0.0
0.0 0.0 0.0
0.0 0.0 0.0
0.0 0.0 0.0
0.0 0.0 0.0
0.0 0.0 0.0
0.0 0.0 0.0
0.0 0.0 0.0
0.0 0.0 0.0
0.0 0.0 0.0
0.0 0.0 0.0
0.0 0.0 0.0
0.0 0.0 0.0
0.0 0.0 0.0
0.0 0.0 0.0
0.0 0.0 0.0
0.0 0.0 0.0
0.0 0.0 0.0
0.0 0.0 0.0
0.0 0.0 0.0
0.0 0.0 0.0
0.0 0.0 0.0
0.0 0.0 0.0
0.0 0.0 0.0
0.0 0.0 0.0
0.0 0.0 0.0
0.0 0.0 0.0
0.0 0.0 0.0
0.0 0.0 0.0
0.0 0.0 0.0
0.0 0.0 0.0
0.0 0.0 0.0
0.0 0.0 0.0
0.0 0.0 0.0
0.0 0.0 0.0
0.0 0.0 0.0
0.0 0.0 0.0
0.0 0.0 0.0
0.0 0.0 0.0
0.0 0.0 0.0
0.0 0.0 0.0
0.0 0.0 0.0
0.0 0.0 0.0
0.0 0.0 0.0
0.0 0.0 0.0
0.0 0.0 0.0
0.0 0.0 0.0
0.0 0.0 0.0
0.0 0.0 0.0
0.0 0.0 0.0
0.0 0.0 0.0
0.0 0.0 0.0
0.0 0.0 0.0
0.0 0.0 0.0
0.0 0.0 0.0
0.0 0.0 0.0
0.0 0.0 0.0
0.0 0.0 0.0
0.0 0.0 0.0
0.0 0.0 0.0
0.0 0.0 0.0
0.0 0.0 0.0
0.0 0.0 0.0
0.0 0.0 0.0
0.0 0.0 0.0
0.0 0.0 0.0
0.0 0.0 0.0
0.0 0.0 0.0
0.0 0.0 0.0
0.0 0.0 0.0
0.0 0.0 0.0
0.0 0.0 0.0
0.0 0.0 0.0
0.0 0.0 0.0
0.0 0.0 0.0
0.0 0.0 0.0
0.0 0.0 0.0
0.0 0.0 0.0
0.0 0.0 0.0
0.0 0.0 0.0
0.0 0.0 0.0
0.0 0.0 0.0
0.0 0.0 0.0
0.0 0.0 0.0
0.0 0.0 0.0
0.0 0.0 0.0
0.0 0.0 0.0
0.0 0.0 0.0
0.0 0.0 0.0
0.0 0.0 0.0
0.0 0.0 0.0
0.0 0.0 0.0
0.0 0.0 0.0
0.0 0.0 0.0
0.0 0.0 0.0
0.0 0.0 0.0
0.0 0.0 0.0
0.0 0.0 0.0
0.0 0.0 0.0
0.0 0.0 0.0
0.0 0.0 0.0
0.0 0.0 0.0
0.0 0.0 0.0
0.0 0.0 0.0
0.0 0.0 0.0
0.0 0.0 0.0
0.0 0.0 0.0
0.0 0.0 0.0
0.0 0.0 0.0
0.0 0.0 0.0
0.0 0.0 0.0
0.0 0.0 0.0
0.0 0.0 0.0
0.0 0.0 0.0
0.0 0.0 0.0
0.0 0.0 0.0
0.0 0.0 0.0
0.0 0.0 0.0
0.0 0.0 0.0
0.0 0.0 0.0
0.0 0.0 0.0
0.0 0.0 0.0
0.0 0.0 0.0
0.0 0.0 0.0
0.0 0.0 0.0
0.0 0.0 0.0
0.0 0.0 0.0
0.0 0.0 0.0
0.0 0.0 0.0
0.0 0.0 0.0
0.0 0.0 0.0
0.0 0.0 0.0
0.0 0.0 0.0
0.0 0.0 0.0
0.0 0.0 0.0
0.0 0.0 0.0
0.0 0.0 0.0
0.0 0.0 0.0
0.0 0.0 0.0
0.0 0.0 0.0
0.0 0.0 0.0
0.0 0.0 0.0
0.0 0.0 0.0
0.0 0.0 0.0
0.0 0.0 0.0
0.0 0.0 0.0
0.0 0.0 0.0
0.0 0.0 0.0
0.0 0.0 0.0
0.0 0.0 0.0
0.0 0.0 0.0
0.0 0.0 0.0
0.0 0.0 0.0
0.0 0.0 0.0
0.0 0.0 0.0
0.0 0.0 0.0
0.0 0.0 0.0
0.0 0.0 0.0
0.0 0.0 0.0
0.0 0.0 0.0
0.0 0.0 0.0
0.0 0.0 0.0
0.0 0.0 0.0
0.0 0.0 0.0
0.0 0.0 0.0
0.0 0.0 0.0
0.0 0.0 0.0
0.0 0.0 0.0
0.0 0.0 0.0
0.0 0.0 0.0
0.0 0.0 0.0
0.0 0.0 0.0
0.0 0.0 0.0
0.0 0.0 0.0
0.0 0.0 0.0
0.0 0.0 0.0
0.0 0.0 0.0
0.0 0.0 0.0
0.0 0.0 0.0
0.0 0.0 0.0
0.0 0.0 0.0
0.0 0.0 0.0
0.0 0.0 0.0
0.0 0.0 0.0
0.0 0.0 0.0
0.0 0.0 0.0
0.0 0.0 0.0
0.0 0.0 0.0
0.0 0.0 0.0
0.0 0.0 0.0
0.0 0.0 0.0
0.0 0.0 0.0
0.0 0.0 0.0
0.0 0.0 0.0
0.0 0.0 0.0
0.0 0.0 0.0
0.0 0.0 0.0
0.0 0.0 0.0
0.0 0.0 0.0
0.0 0.0 0.0
0.0 0.0 0.0
0.0 0.0 0.0
0.0 0.0 0.0
0.0 0.0 0.0
0.0 0.0 0.0
0.0 0.0 0.0
0.0 0.0 0.0
0.0 0.0 0.0
0.0 0.0 0.0
0.0 0.0 0.0
0.0 0.0 0.0
0.0 0.0 0.0
0.0 0.0 0.0
0.0 0.0 0.0
0.0 0.0 0.0
0.0 0.0 0.0
0.0 0.0 0.0
0.0 0.0 0.0
0.0 0.0 0.0
0.0 0.0 0.0
0.0 0.0 0.0
0.0 0.0 0.0
0.0 0.0 0.0
0.0 0.0 0.0
0.0 0.0 0.0
0.0 0.0 0.0
0.0 0.0 0.0
0.0 0.0 0.0
0.0 0.0 0.0
0.0 0.0 0.0
0.0 0.0 0.0
0.0 0.0 0.0
0.0 0.0 0.0
0.0 0.0 0.0
0.0 0.0 0.0
0.0 0.0 0.0
0.0 0.0 0.0
0.0 0.0 0.0
0.0 0.0 0.0
0.0 0.0 0.0
0.0 0.0 0.0
0.0 0.0 0.0
0.0 0.0 0.0
0.0 0.0 0.0
0.0 0.0 0.0
0.0 0.0 0.0
0.0 0.0 0.0
0.0 0.0 0.0
0.0 0.0 0.0
0.0 0.0 0.0
0.0 0.0 0.0
0.0 0.0 0.0
0.0 0.0 0.0
0.0 0.0 0.0
0.0 0.0 0.0
0.0 0.0 0.0
0.0 0.0 0.0
0.0 0.0 0.0
0.0 0.0 0.0
0.0 0.0 0.0
0.0 0.0 0.0
0.0 0.0 0.0
0.0 0.0 0.0
0.0 0.0 0.0
0.0 0.0 0.0
0.0 0.0 0.0
0.0 0.0 0.0
0.0 0.0 0.0
0.0 0.0 0.0
0.0 0.0 0.0
0.0 0.0 0.0
0.0 0.0 0.0
0.0 0.0 0.0
0.0 0.0 0.0
0.0 0.0 0.0
0.0 0.0 0.0
0.0 0.0 0.0
0.0 0.0 0.0
0.0 0.0 0.0
0.0 0.0 0.0
0.0 0.0 0.0
0.0 0.0 0.0
0.0 0.0 0.0
0.0 0.0 0.0
0.0 0.0 0.0
0.0 0.0 0.0
0.0 0.0 0.0
0.0 0.0 0.0
0.0 0.0 0.0
0.0 0.0 0.0
0.0 0.0 0.0
0.0 0.0 0.0
0.0 0.0 0.0
0.0 0.0 0.0
0.0 0.0 0.0
0.0 0.0 0.0
0.0 0.0 0.0
0.0 0.0 0.0
0.0 0.0 0.0
0.0 0.0 0.0
0.0 0.0 0.0
0.0 0.0 0.0
0.0 0.0 0.0
0.0 0.0 0.0
0.0 0.0 0.0
0.0 0.0 0.0
0.0 0.0 0.0
0.0 0.0 0.0
0.0 0.0 0.0
0.0 0.0 0.0
0.0 0.0 0.0
0.0 0.0 0.0
0.0 0.0 0.0
0.0 0.0 0.0
0.0 0.0 0.0
0.0 0.0 0.0
0.0 0.0 0.0
0.0 0.0 0.0
0.0 0.0 0.0
0.0 0.0 0.0
0.0 0.0 0.0
0.0 0.0 0.0
0.0 0.0 0.0
0.0 0.0 0.0
0.0 0.0 0.0
0.0 0.0 0.0
0.0 0.0 0.0
0.0 0.0 0.0
0.0 0.0 0.0
0.0 0.0 0.0
0.0 0.0 0.0
0.0 0.0 0.0
0.0 0.0 0.0
0.0 0.0 0.0
0.0 0.0 0.0
0.0 0.0 0.0
0.0 0.0 0.0
0.0 0.0 0.0
0.0 0.0 0.0
0.0 0.0 0.0
0.0 0.0 0.0
0.0 0.0 0.0
0.0 0.0 0.0
0.0 0.0 0.0
0.0 0.0 0.0
0.0 0.0 0.0
0.0 0.0 0.0
0.0 0.0 0.0
0.0 0.0 0.0
0.0 0.0 0.0
0.0 0.0 0.0
0.0 0.0 0.0
0.0 0.0 0.0
0.0 0.0 0.0
0.0 0.0 0.0
0.0 0.0 0.0
0.0 0.0 0.0
0.0 0.0 0.0
0.0 0.0 0.0
0.0 0.0 0.0
0.0 0.0 0.0
0.0 0.0 0.0
0.0 0.0 0.0
0.0 0.0 0.0
0.0 0.0 0.0
0.0 0.0 0.0
0.0 0.0 0.0
0.0 0.0 0.0
0.0 0.0 0.0
0.0 0.0 0.0
0.0 0.0 0.0
0.0 0.0 0.0
0.0 0.0 0.0
0.0 0.0 0.0
0.0 0.0 0.0
0.0 0.0 0.0
0.0 0.0 0.0
0.0 0.0 0.0
0.0 0.0 0.0
0.0 0.0 0.0
0.0 0.0 0.0
0.0 0.0 0.0
0.0 0.0 0.0
0.0 0.0 0.0
0.0 0.0 0.0
0.0 0.0 0.0
0.0 0.0 0.0
0.0 0.0 0.0
0.0 0.0 0.0
0.0 0.0 0.0
0.0 0.0 0.0
0.0 0.0 0.0
0.0 0.0 0.0
0.0 0.0 0.0
0.0 0.0 0.0
0.0 0.0 0.0
0.0 0.0 0.0
0.0 0.0 0.0
0.0 0.0 0.0
0.0 0.0 0.0
0.0 0.0 0.0
0.0 0.0 0.0
0.0 0.0 0.0
0.0 0.0 0.0
0.0 0.0 0.0
0.0 0.0 0.0
0.0 0.0 0.0
0.0 0.0 0.0
0.0 0.0 0.0
0.0 0.0 0.0
0.0 0.0 0.0
0.0 0.0 0.0
0.0 0.0 0.0
0.0 0.0 0.0
0.0 0.0 0.0
0.0 0.0 0.0
0.0 0.0 0.0
0.0 0.0 0.0
0.0 0.0 0.0
0.0 0.0 0.0
0.0 0.0 0.0
0.0 0.0 0.0
0.0 0.0 0.0
0.0 0.0 0.0
0.0 0.0 0.0
0.0 0.0 0.0
0.0 0.0 0.0
0.0 0.0 0.0
0.0 0.0 0.0
0.0 0.0 0.0
0.0 0.0 0.0
0.0 0.0 0.0
0.0 0.0 0.0
0.0 0.0 0.0
0.0 0.0 0.0
0.0 0.0 0.0
0.0 0.0 0.0
0.0 0.0 0.0
0.0 0.0 0.0
0.0 0.0 0.0
0.0 0.0 0.0
0.0 0.0 0.0
0.0 0.0 0.0
0.0 0.0 0.0
0.0 0.0 0.0
0.0 0.0 0.0
0.0 0.0 0.0
0.0 0.0 0.0
0.0 0.0 0.0
0.0 0.0 0.0
0.0 0.0 0.0
0.0 0.0 0.0
0.0 0.0 0.0
0.0 0.0 0.0
0.0 0.0 0.0
0.0 0.0 0.0
0.0 0.0 0.0
0.0 0.0 0.0
0.0 0.0 0.0
0.0 0.0 0.0
0.0 0.0 0.0
0.0 0.0 0.0
0.0 0.0 0.0
0.0 0.0 0.0
0.0 0.0 0.0
0.0 0.0 0.0
0.0 0.0 0.0
0.0 0.0 0.0
0.0 0.0 0.0
0.0 0.0 0.0
0.0 0.0 0.0
0.0 0.0 0.0
0.0 0.0 0.0
0.0 0.0 0.0
0.0 0.0 0.0
0.0 0.0 0.0
0.0 0.0 0.0
0.0 0.0 0.0
0.0 0.0 0.0
0.0 0.0 0.0
0.0 0.0 0.0
0.0 0.0 0.0
0.0 0.0 0.0
0.0 0.0 0.0
0.0 0.0 0.0
0.0 0.0 0.0
0.0 0.0 0.0
0.0 0.0 0.0
0.0 0.0 0.0
0.0 0.0 0.0
0.0 0.0 0.0
0.0 0.0 0.0
0.0 0.0 0.0
0.0 0.0 0.0
0.0 0.0 0.0
0.0 0.0 0.0
0.0 0.0 0.0
0.0 0.0 0.0
0.0 0.0 0.0
0.0 0.0 0.0
0.0 0.0 0.0
0.0 0.0 0.0
0.0 0.0 0.0
0.0 0.0 0.0
0.0 0.0 0.0
0.0 0.0 0.0
0.0 0.0 0.0
0.0 0.0 0.0
0.0 0.0 0.0
0.0 0.0 0.0
0.0 0.0 0.0
0.0 0.0 0.0
0.0 0.0 0.0
0.0 0.0 0.0
0.0 0.0 0.0
0.0 0.0 0.0
0.0 0.0 0.0
0.0 0.0 0.0
0.0 0.0 0.0
0.0 0.0 0.0
0.0 0.0 0.0
0.0 0.0 0.0
0.0 0.0 0.0
0.0 0.0 0.0
0.0 0.0 0.0
0.0 0.0 0.0
0.0 0.0 0.0
0.0 0.0 0.0
0.0 0.0 0.0
0.0 0.0 0.0
0.0 0.0 0.0
0.0 0.0 0.0
VECTORS f float
0.0 0.0 0.0
0.0 0.0 0.0
0.0 0.0 0.0
0.0 0.0 0.0
0.0 0.0 -0.000346714
0.0 0.0 -0.000346714
0.0 0.0 -0.00160516
0.0 0.0 -0.000346714
0.0 0.0 -0.00160516
0.0 0.0 -0.000346714
0.0 0.0 -0.00160516
0.0 0.0 -0.000346714
0.0 0.0 -0.00160516
0.0 0.0 -0.000346714
0.0 0.0 -0.00160516
0.0 0.0 -0.00160516
0.0 0.0 -0.00160516
0.0 0.0 -0.00160516
0.0 0.0 -0.000346714
0.0 0.0 -0.000346714
0.0 0.0 -0.000346714
0.0 0.0 -0.000346714
0.0 0.0 -0.00160516
0.0 0.0 -0.00160516
0.0 0.0 -0.00160516
0.0 0.0 -0.000346714
0.0 0.0 -0.000346714
0.0 0.0 -0.00160516
0.0 0.0 -0.000346714
0.0 0.0 -0.00160516
0.0 0.0 -0.00160516
0.0 0.0 -0.000346714
0.0 0.0 -0.00160516
0.0 0.0 -0.000346714
0.0 0.0 -0.000346714
0.0 0.0 -0.000346714
0.0 0.0 -0.00160516
0.0 0.0 -0.000346714
0.0 0.0 -0.00160516
0.0 0.0 -0.000346714
0.0 0.0 -0.000346714
0.0 0.0 -0.000346714
0.0 0.0 -0.000346714
0.0 0.0 -0.000346714
0.0 0.0 -0.000346714
0.0 0.0 -0.000346714
0.0 0.0 -0.00160516
0.0 0.0 -0.00160516
0.0 0.0 -0.00160516
0.0 0.0 -0.00160516
0.0 0.0 -0.00160516
0.0 0.0 -0.000346714
0.0 0.0 -0.00160516
0.0 0.0 -0.000346714
0.0 0.0 -0.000346714
0.0 0.0 -0.00160516
0.0 0.0 -0.000346714
0.0 0.0 -0.00160516
0.0 0.0 -0.000346714
0.0 0.0 -0.000346714
0.0 0.0 -0.00160516
0.0 0.0 -0.000346714
0.0 0.0 -0.000346714
0.0 0.0 -0.000346714
0.0 0.0 -0.000346714
0.0 0.0 -0.000346714
0.0 0.0 -0.000346714
0.0 0.0 -0.000346714
0.0 0.0 -0.00160516
0.0 0.0 -0.000346714
0.0 0.0 -0.000346714
0.0 0.0 -0.00160516
0.0 0.0 -0.000346714
0.0 0.0 -0.000346714
0.0 0.0 -0.00160516
0.0 0.0 -0.000346714
0.0 0.0 -0.00160516
0.0 0.0 -0.000346714
0.0 0.0 -0.000346714
0.0 0.0 -0.000346714
0.0 0.0 -0.00160516
0.0 0.0 -0.000346714
0.0 0.0 -0.000346714
0.0 0.0 -0.000346714
0.0 0.0 -0.00160516
0.0 0.0 -0.000346714
0.0 0.0 -0.000346714
0.0 0.0 -0.000346714
0.0 0.0 -0.000346714
0.0 0.0 -0.000346714
0.0 0.0 -0.000346714
0.0 0.0 -0.00160516
0.0 0.0 -0.000346714
0.0 0.0 -0.000346714
0.0 0.0 -0.000346714
0.0 0.0 -0.000346714
0.0 0.0 -0.00160516
0.0 0.0 -0.000346714
0.0 0.0 -0.000346714
0.0 0.0 -0.00160516
0.0 0.0 -0.00160516
0.0 0.0 -0.000346714
0.0 0.0 -0.000346714
0.0 0.0 -0.00160516
0.0 0.0 -0.00160516
0.0 0.0 -0.000346714
0.0 0.0 -0.000346714
0.0 0.0 -0.000346714
0.0 0.0 -0.000346714
0.0 0.0 -0.000346714
0.0 0.0 -0.000346714
0.0 0.0 -0.00160516
0.0 0.0 -0.000346714
0.0 0.0 -0.000346714
0.0 0.0 -0.000346714
0.0 0.0 -0.000346714
0.0 0.0 -0.00160516
0.0 0.0 -0.000346714
0.0 0.0 -0.000346714
0.0 0.0 -0.000346714
0.0 0.0 -0.000346714
0.0 0.0 -0.00160516
0.0 0.0 -0.000346714
0.0 0.0 -0.00160516
0.0 0.0 -0.00160516
0.0 0.0 -0.000346714
0.0 0.0 -0.00160516
0.0 0.0 -0.000346714
0.0 0.0 -0.000346714
0.0 0.0 -0.000346714
0.0 0.0 -0.000346714
0.0 0.0 -0.000346714
0.0 0.0 -0.000346714
0.0 0.0 -0.00160516
0.0 0.0 -0.00160516
0.0 0.0 -0.000346714
0.0 0.0 -0.000346714
0.0 0.0 -0.000346714
0.0 0.0 -0.00160516
0.0 0.0 -0.000346714
0.0 0.0 -0.00160516
0.0 0.0 -0.000346714
0.0 0.0 -0.000346714
0.0 0.0 -0.000346714
0.0 0.0 -0.00160516
0.0 0.0 -0.00160516
0.0 0.0 -0.00160516
0.0 0.0 -0.000346714
0.0 0.0 -0.000346714
0.0 0.0 -0.00160516
0.0 0.0 -0.00160516
0.0 0.0 -0.000346714
0.0 0.0 -0.000346714
0.0 0.0 -0.000346714
0.0 0.0 -0.000346714
0.0 0.0 -0.000346714
0.0 0.0 -0.00160516
0.0 0.0 -0.00160516
0.0 0.0 -0.00160516
0.0 0.0 -0.000346714
0.0 0.0 -0.00160516
0.0 0.0 -0.000346714
0.0 0.0 -0.000346714
0.0 0.0 -0.000346714
0.0 0.0 -0.000346714
0.0 0.0 -0.000346714
0.0 0.0 -0.000346714
0.0 0.0 -0.000346714
0.0 0.0 -0.00160516
0.0 0.0 -0.000346714
0.0 0.0 -0.000346714
0.0 0.0 -0.000346714
0.0 0.0 -0.000346714
0.0 0.0 -0.000346714
0.0 0.0 -0.00160516
0.0 0.0 -0.000346714
0.0 0.0 -0.000346714
0.0 0.0 -0.00160516
0.0 0.0 -0.000346714
0.0 0.0 -0.000346714
0.0 0.0 -0.000346714
0.0 0.0 -0.00160516
0.0 0.0 -0.00160516
0.0 0.0 -0.000346714
0.0 0.0 -0.00160516
0.0 0.0 -0.00160516
-8.83129e-05 -1.3291e-05 -3.80576e-05
0.0 0.0 -0.00160516
-8.8664e-05 -1.33386e-05 -3.739e-05
0.0 0.0 -0.000346714
-0.000410077 3.45388e-05 -0.000174477
-7.10284e-05 -9.82796e-06 -8.60102e-05
-8.4534e-05 2.88103e-05 -3.64663e-05
0.0 0.0 -0.00160516
5.40753e-05 -3.02665e-05 -0.00132315
-8.96864e-05 7.57611e-06 -3.43377e-05
-4.34475e-05 1.69291e-05 -2.87387e-05
-0.000308353 -6.70153e-05 -8.04463e-05
-0.000286575 -4.80984e-06 -9.35397e-05
-0.000104437 -1.67309e-05 -3.12438e-06
-0.00043773 -6.52549e-05 -0.000113594
0.0 0.0 -0.000346714
0.0 0.0 -0.000346714
-7.8813e-05 2.03209e-05 -5.89495e-05
-8.75596e-05 2.28358e-05 -3.90231e-05
-5.16077e-05 0.000387391 0.000735749
0.0 0.0 -0.000346714
-8.82684e-05 -1.32801e-05 -3.81126e-05
-8.22862e-05 -1.23745e-05 -5.10937e-05
7.75664e-07 6.64987e-06 -0.000338324
-7.16754e-05 -3.33596e-05 -7.76482e-05
-8.74233e-05 -4.06603e-05 -3.93896e-05
-8.79121e-05 4.02187e-05 -3.4721e-05
-8.79184e-05 7.14061e-06 -4.10806e-05
-8.86142e-05 7.02461e-06 -3.7674e-05
-8.01513e-05 -1.18447e-05 -5.73093e-05
-0.000254474 -0.000119802 -0.000497568
-8.84723e-05 -4.02074e-05 -3.28158e-05
-2.80438e-05 -5.63901e-06 -0.000298018
-0.000178331 0.000113137 -0.00148689
-8.54416e-05 3.85958e-05 -4.25176e-05
-9.44106e-05 -1.43716e-05 -2.44473e-05
-0.00028279 -4.69483e-05 -0.000278347
5.13356e-05 2.74587e-05 -0.000498321
0.0 0.0 -0.000346714
-7.25463e-05 -8.43054e-05 -6.9228e-05
0.0 0.0 -0.000346714
-9.01994e-05 2.28922e-05 -3.7772e-05
0.000686096 0.0016424 0.010844
-8.82165e-05 7.00165e-06 -3.7446e-05
0.0 0.0 -0.000346714
-0.000107722 -1.49557e-05 2.85073e-05
-0.000545134 -0.000120531 0.00115813
0.0 0.0 -0.000346714
-0.00114818 0.00126713 0.000945394
-8.77072e-05 2.47877e-05 -3.97282e-05
0.0001991 4.39211e-05 -0.00134807
0.0 0.0 -0.00160516
-0.000103803 9.70079e-06 3.37915e-06
-0.000434775 -4.79807e-05 -0.000102111
-0.000352584 -4.04402e-05 -0.000340245
-0.000409122 -4.81701e-05 -0.000169321
0.0 0.0 -0.00160516
-8.20298e-05 -3.05421e-05 -5.41943e-05
0.0 0.0 -0.000346714
-9.87309e-05 -0.00886108 0.0432431
0.0 0.0 -0.00160516
0.0 0.0 -0.000346714
0.0 0.0 -0.000346714
7.68449e-06 -5.22649e-05 4.95715e-06
0.0 0.0 -0.000346714
-9.17299e-05 9.71597e-06 -2.71944e-05
0.0 0.0 -0.000346714
-3.10122e-05 -0.00010722 -0.000113675
0.0 0.0 -0.00160516
0.0 0.0 -0.00160516
0.00341038 1.88761e-05 0.00254723
0.0 0.0 -0.000346714
0.0 0.0 -0.00160516
-0.000692433 0.000197924 0.00240983
-0.000306594 2.82144e-05 -0.000677039
-0.000153473 0.000110632 8.08628e-05
0.000748012 0.00463905 -0.00262317
1.72902e-05 1.26317e-06 -0.00103964
0.0 0.0 -0.000346714
-0.000748012 -0.00463905 0.000671302
-8.87926e-05 -7.57082e-06 -3.85107e-05
0.0 0.0 -0.000346714
0.0 0.0 -0.000346714
0.000269256 -0.000257766 0.000122987
2.13171e-05 -7.13527e-06 1.67965e-07
0.0 0.0 -0.000346714
-0.000450014 -0.000293661 -2.8925e-05
-0.000353072 0.000257593 -0.000233578
0.0 0.0 -0.000346714
0.0 0.0 -0.000346714
-0.00314929 0.00114604 0.00716656
0.0 0.0 -0.000346714
-0.000385779 0.000191088 -0.000203266
-8.28208e-05 1.00373e-05 -8.46881e-05
-0.000448809 5.64803e-05 0.000761021
-0.000403542 7.53892e-05 -0.000173708
-8.60549e-05 1.60684e-05 -4.03977e-05
-6.93119e-05 1.28256e-05 -8.18374e-05
-8.95438e-05 -5.22531e-06 -3.84658e-05
-8.95388e-05 -5.22606e-06 -3.84414e-05
-0.000407494 -3.19369e-05 -0.000170187
2.42573e-05 4.04508e-05 -0.000771511
-6.82811e-05 -1.77079e-05 -0.000132234
0.0 0.0 -0.000346714
-7.68143e-05 -4.74264e-05 -5.59259e-05
0.000149404 1.10996e-05 0.000443683
-0.000112487 2.49926e-05 2.46916e-05
-0.000110367 2.32984e-05 5.80944e-06
-0.00162387 0.000520362 0.00258551
0.000304323 -6.15127e-05 3.23422e-05
-8.69463e-05 1.9135e-05 -3.77733e-05
-0.000527884 -1.55094e-05 3.54605e-06
-0.000594013 -3.91764e-05 0.000322894
-0.000407493 -0.000116753 -0.000191739
0.0 0.0 -0.00160516
-6.08309e-05 -2.17052e-05 0.000532844
-7.71454e-05 -7.12792e-05 -5.9258e-05
-0.00042191 -0.000388022 -0.000135884
-0.000444565 0.00104505 0.000464223
-8.83481e-05 2.15383e-05 -4.09486e-05
0.000134791 -0.000123624 -0.00127369
-9.01409e-05 2.19479e-05 -3.75965e-05
4.53956e-05 0.000515607 7.24405e-05
-8.66779e-05 1.9083e-05 -3.82612e-05
-6.0284e-05 -1.75711e-06 -9.30768e-05
0.0 0.0 -0.000346714
0.0038231 -0.00133045 0.00351306
-8.97231e-05 -2.43562e-06 -3.81974e-05
2.05071e-05 -1.45761e-05 6.4359e-06
-0.000109637 -3.32177e-06 0.00013088
-0.000453756 -2.10639e-05 -8.74941e-05
0.00063413 -0.000175399 0.0104178
1.73808e-05 8.46112e-06 -0.000358597
0.0 0.0 -0.000346714
0.0 0.0 -0.000346714
0.0 0.0 -0.000346714
-0.000498763 0.000262848 1.9011e-05
-0.000145968 3.75385e-06 -0.00107509
-2.63554e-06 5.89452e-07 -0.000264596
-0.000185121 0.000115213 0.000867732
0.0 0.0 -0.000346714
-8.66418e-05 2.19841e-05 -3.81526e-05
0.0 0.0 -0.00160516
-8.66294e-05 -1.37456e-06 -3.98789e-05
-7.37796e-05 -8.03951e-07 -3.58608e-05
0.0 0.0 -0.000346714
0.0 0.0 -0.000346714
-0.000762389 -0.000135917 -0.00121603
-9.83103e-06 -2.30635e-06 -0.000185694
-1.1053e-05 -1.0005e-06 -0.000245792
-0.000308213 0.000422489 -0.000330752
-8.45861e-05 7.72663e-05 -3.76378e-05
-7.48464e-05 6.85492e-05 -5.91859e-05
-0.00028119 0.000127857 -0.00074399
-0.00011602 3.19397e-05 1.39442e-05
0.0 0.0 -0.00160516
0.0 0.0 -0.000346714
-0.000419241 1.9108e-06 -0.000153358
0.0 0.0 -0.000346714
0.0 0.0 -0.00160516
0.0 0.0 -0.00160516
-8.58931e-05 -2.11687e-05 -4.09392e-05
2.26725e-05 -2.17784e-06 8.97549e-06
-8.244e-05 7.26155e-05 -4.87737e-05
0.0 0.0 -0.000346714
0.0 0.0 -0.000346714
-0.00441017 0.0028965 -0.00523329
0.00534052 -0.00338162 0.00311707
0.0 0.0 -0.000346714
-0.000122835 4.18076e-06 2.48342e-05
-0.000416561 -9.16886e-05 -0.000175728
-8.64924e-05 -1.85861e-05 -4.06069e-05
-8.8677e-05 -1.95416e-05 -4.02718e-05
-3.8065e-05 -5.99101e-06 -0.00111936
0.0 0.0 -0.000346714
-6.66845e-05 8.68793e-05 -7.24537e-05
-7.68027e-05 6.68075e-05 -5.42091e-05
0.0 0.0 -0.000346714
-0.000271138 0.000223729 0.000437967
-0.000399958 0.000115283 -0.000175726
2.53479e-06 -1.3715e-06 -0.000231519
-0.000106062 2.82784e-05 -2.31452e-05
-8.57417e-05 3.8296e-06 -4.30592e-05
-8.81588e-05 3.9618e-06 -3.69802e-05
-8.85853e-05 -1.77454e-05 -3.91637e-05
0.0 0.0 -0.00160516
1.25556e-05 -2.62155e-05 -0.000167737
4.64742e-05 -4.37204e-05 -0.00148955