# vtk DataFile Version 2.0
Generated by lpp.py
ASCII
DATASET POLYDATA
POINTS 205 float
-0.0542333 0.0063666 -0.127441
-0.0461529 0.0124724 -0.122123
-0.0552719 0.0258786 -0.123431
-0.0450721 -0.0281556 -0.120623
-0.034938 -0.0219601 -0.118907
-0.0443132 -0.0048677 -0.120956
-0.0335521 -0.00224519 -0.119198
-0.0382186 0.000679847 -0.120923
-0.0391545 0.0158743 -0.120013
-0.0351478 -0.0324006 -0.112737
-0.0423743 -0.0201248 -0.116816
-0.0433334 -0.0143636 -0.119663
-0.0392119 -0.0171006 -0.118066
-0.056309 -0.0134899 -0.115533
-0.029258 -0.0137987 -0.116683
-0.0665316 -0.00389888 -0.115115
-0.0534823 -0.00315681 -0.115311
-0.0461969 0.00136258 -0.114537
-0.0301047 0.00410768 -0.117606
-0.025988 0.005964 -0.116896
-0.0290226 0.01054 -0.115799
-0.038191 0.0226874 -0.120014
-0.0590157 0.0229285 -0.11531
-0.0231594 0.0231416 -0.112998
-0.0602931 0.0282204 -0.117959
-0.039684 0.0371384 -0.116147
-0.0399492 -0.0258158 -0.112745
-0.0288963 -0.0307964 -0.113766
-0.026143 -0.0166802 -0.113156
-0.0479604 -0.0128313 -0.113059
-0.0258211 -0.0105685 -0.110688
-0.0556133 -0.00694986 -0.112916
-0.0324204 -0.00767374 -0.113372
-0.0334982 -0.00943461 -0.117886
-0.0518603 5.32336e-05 -0.112888
-0.0242445 0.00170472 -0.114663
-0.0386271 0.00311085 -0.117523
-0.0546629 0.00945614 -0.112372
-0.0204642 0.0221159 -0.111199
-0.0195213 0.0249969 -0.110854
-0.0359217 -0.0291254 -0.109941
-0.0150056 -0.0221154 -0.108168
-0.00772791 -0.0154894 -0.104324
-0.0205193 -0.0128028 -0.106847
-0.0286691 0.00251153 -0.11346
-0.0278805 0.0133855 -0.109412
-0.0228275 0.0101467 -0.112214
-0.0127072 0.0135509 -0.109323
-0.0135366 0.0230406 -0.10953
-0.0276301 0.02779 -0.107718
-0.00864014 -0.0196598 -0.102631
-0.0163381 -0.0164717 -0.101684
-0.0368545 -0.0144095 -0.104403
-0.038573 0.00446865 -0.105807
-0.0342041 0.00635595 -0.106146
-0.0182633 0.00742846 -0.106705
-0.0330294 0.0126753 -0.103542
-0.013629 0.0244 -0.105636
-0.0130893 0.0285461 -0.10358
-0.0389425 -0.0484059 -0.101217
-0.0203011 -0.0241427 -0.111054
-0.0210841 -0.0116493 -0.114303
-0.00684713 0.00771554 -0.105981
-0.0132911 0.0141822 -0.105305
-0.00411592 -0.00310889 -0.107125
-0.0180783 0.0206584 -0.108249
-0.00825795 0.0200826 -0.104189
-0.00331379 0.000112052 -0.10083
-0.0161255 0.0259916 -0.100947
-0.0101315 -0.00307891 -0.0970217
-0.0313469 0.00594264 -0.0989237
-0.0113639 -0.028821 -0.0937679
-0.0132118 -0.0142448 -0.0946297
-0.021885 0.00637934 -0.095604
-0.0339596 0.0247152 -0.0935557
-0.0222205 0.0252752 -0.0951133
-0.0246928 0.0149576 -0.0893716
-0.0138041 0.00231809 -0.0875586
-0.00512449 0.0194276 -0.0882539
-0.016039 -0.0311912 -0.0856462
-0.0338446 -0.00790771 -0.0841756
-0.006758 -0.00933802 -0.0849946
-0.0261342 0.0289343 -0.0825803
-0.0166674 -0.0133665 -0.0795189
-0.0307162 0.0123479 -0.0809679
-0.0216846 0.010562 -0.0752701
-0.011833 0.030812 -0.0749743
-0.0267621 -0.0316048 -0.0726578
-0.0153514 -0.0285466 -0.0732636
-0.0266174 0.0340944 -0.0733183
-0.016986 -0.00213434 -0.0687299
-0.0135716 -0.0190259 -0.0652107
-0.0294235 0.0177987 -0.065805
-0.0329725 0.0296342 -0.0671115
-0.020149 -0.0334448 -0.0631577
-0.0292811 0.00645928 -0.0623275
-0.0333375 0.0110949 -0.0629608
-0.0143727 0.015853 -0.0609038
-0.00439906 0.0240922 -0.0618269
-0.00739645 -0.0185545 -0.0579437
-0.0265909 0.0159092 -0.0576749
-0.0159897 0.0274334 -0.0575863
-0.0275469 -0.0163611 -0.0538993
-0.0102956 -0.00169209 -0.0543539
-0.0161861 -0.026381 -0.0503707
-0.00301846 -0.0111451 -0.0495224
-0.00205293 -0.0206571 -0.0461458
-0.0273253 -0.00441029 -0.0484813
-0.0112712 -0.00229192 -0.0461722
-0.0135333 0.000602269 -0.0473036
-0.00791609 0.00384723 -0.0472979
-2.29018e-06 0.0149512 -0.0465527
-0.0318002 -0.0148599 -0.0434865
-0.0192779 0.00722911 -0.0451731
-0.0322225 0.032442 -0.0418288
-0.0125841 -0.0111545 -0.0347655
-0.0125785 -0.0210623 -0.0321038
-0.00679321 -0.00388229 -0.0335014
-0.0143544 -0.00143019 -0.0310563
-0.0148309 -0.0333609 -0.0276693
-0.0191843 -0.0162196 -0.0304461
-0.0290047 0.00352617 -0.0279368
-0.0227292 -0.0112057 -0.0257186
-0.0208061 0.000145103 -0.0256735
-0.0158354 0.0147935 -0.0264588
-0.0114065 0.0295451 -0.025172
-0.0188235 -0.0335238 -0.0216998
-0.00193271 -0.0127941 -0.0210194
-0.00304704 0.0316877 -0.0220549
-0.0142543 -0.0235946 -0.0159639
-0.010147 0.00134815 -0.0169951
-0.00401145 0.0125644 -0.0183279
-0.0167258 0.0295222 -0.0183537
-0.0316516 0.0258079 -0.0144727
-0.0309894 0.0333632 -0.0147131
-0.0331578 -0.0315972 -0.0121326
-0.0150343 -0.00254225 -0.00861439
-0.0156127 0.0122027 -0.0121059
-0.00445669 0.0136763 -0.00917582
-0.021642 0.0141125 -0.00986415
-0.00584464 0.0229092 -0.0103814
-0.0237179 -0.0143876 -0.00688011
-0.00430721 -0.0251385 -0.00327161
-0.0337656 -0.0129184 -0.00122314
-0.0189158 0.00679958 -0.00150864
-0.0076982 0.0115519 -0.00319816
-0.00630817 0.0207644 -0.00149449
-0.00353112 0.0264703 -0.00197367
-0.00618246 -0.0245765 0.00211489
-0.0152079 -0.0157693 0.00622084
-0.00623706 -0.0058896 0.00600071
-0.0192798 0.00186917 0.00259041
-0.0214963 -0.0266191 0.00904285
-0.00679915 -0.012878 0.00647811
-0.00240788 0.00422687 0.00775912
-0.0251386 0.0339743 0.00982805
-0.023692 -0.0114622 0.0128789
-0.0326006 -0.0344541 0.0145434
-0.0239437 -0.00737998 0.0167908
-0.00372425 -0.00768845 0.0151999
-0.00596878 0.00110293 0.0171228
-0.0310811 0.0209557 0.01616
-0.0229207 0.0293808 0.0137712
-0.0260626 -0.0145959 0.0209055
-0.0280772 0.00199937 0.0202882
-0.0186593 0.0101406 0.0200508
-0.0334498 0.0192376 0.0186466
-0.0192512 0.0203811 0.0197117
-0.0233162 -0.0257488 0.0222541
-0.00243205 -0.0275788 0.0218079
-0.0228627 0.00282045 0.0243009
-0.0175477 0.0137467 0.0232749
-0.000114354 0.021065 0.023684
-0.0322154 -0.0246784 0.0277794
-0.01426 -0.0150654 0.0286612
-0.0180071 -0.0127461 0.0255242
-0.0273571 -0.0103215 0.0282128
-0.0341304 -0.00318577 0.0295758
-0.00169906 -0.0346379 0.0348086
-0.0234861 -0.0194352 0.0331175
-0.0106048 -0.00789334 0.035734
-0.00264988 -0.0095541 0.0336936
-0.0200733 -0.00130471 0.0340609
-0.0184157 0.00363086 0.0333226
-0.0258257 0.0147617 0.0355049
-0.00526421 0.027503 0.0355638
-0.0264666 -0.025466 0.0388192
-0.00998901 0.00893206 0.0388881
-0.0107488 0.0329346 0.0374301
-0.0196577 -0.024903 0.0411119
-0.0201644 -0.0275601 0.0434008
-0.0134549 0.0182926 0.0429493
-0.0249489 0.0269151 0.0416353
-0.0173269 -0.0294256 0.0468974
-0.00546888 -0.024539 0.0470208
-0.00018665 -0.0192075 0.0446799
-0.0121862 -0.00588198 0.0440938
-0.0278654 0.00172744 0.0446167
-0.0232114 -0.0230043 0.0483719
-0.00148336 -0.00863773 0.0496573
-0.0244014 0.0243576 0.0478619
-0.0317899 0.0348276 0.0476029
-0.00237574 0.0349629 0.0506293
-0.0299737 -0.0249092 0.0517094
-0.0209901 0.00167617 0.0514513
VERTICES 205 410
1 0
1 1
1 2
1 3
1 4
1 5
1 6
1 7
1 8
1 9
1 10
1 11
1 12
1 13
1 14
1 15
1 16
1 17
1 18
1 19
1 20
1 21
1 22
1 23
1 24
1 25
1 26
1 27
1 28
1 29
1 30
1 31
1 32
1 33
1 34
1 35
1 36
1 37
1 38
1 39
1 40
1 41
1 42
1 43
1 44
1 45
1 46
1 47
1 48
1 49
1 50
1 51
1 52
1 53
1 54
1 55
1 56
1 57
1 58
1 59
1 60
1 61
1 62
1 63
1 64
1 65
1 66
1 67
1 68
1 69
1 70
1 71
1 72
1 73
1 74
1 75
1 76
1 77
1 78
1 79
1 80
1 81
1 82
1 83
1 84
1 85
1 86
1 87
1 88
1 89
1 90
1 91
1 92
1 93
1 94
1 95
1 96
1 97
1 98
1 99
1 100
1 101
1 102
1 103
1 104
1 105
1 106
1 107
1 108
1 109
1 110
1 111
1 112
1 113
1 114
1 115
1 116
1 117
1 118
1 119
1 120
1 121
1 122
1 123
1 124
1 125
1 126
1 127
1 128
1 129
1 130
1 131
1 132
1 133
1 134
1 135
1 136
1 137
1 138
1 139
1 140
1 141
1 142
1 143
1 144
1 145
1 146
1 147
1 148
1 149
1 150
1 151
1 152
1 153
1 154
1 155
1 156
1 157
1 158
1 159
1 160
1 161
1 162
1 163
1 164
1 165
1 166
1 167
1 168
1 169
1 170
1 171
1 172
1 173
1 174
1 175
1 176
1 177
1 178
1 179
1 180
1 181
1 182
1 183
1 184
1 185
1 186
1 187
1 188
1 189
1 190
1 191
1 192
1 193
1 194
1 195
1 196
1 197
1 198
1 199
1 200
1 201
1 202
1 203
1 204
POINT_DATA 205
VECTORS i float
0.0 0.0 0.0
0.0 0.0 0.0
0.0 0.0 0.0
0.0 0.0 0.0
0.0 0.0 0.0
0.0 0.0 0.0
0.0 0.0 0.0
0.0 0.0 0.0
0.0 0.0 0.0
0.0 0.0 0.0
0.0 0.0 0.0
0.0 0.0 0.0
0.0 0.0 0.0
0.0 0.0 0.0
0.0 0.0 0.0
0.0 0.0 0.0
0.0 0.0 0.0
0.0 0.0 0.0
0.0 0.0 0.0
0.0 0.0 0.0
0.0 0.0 0.0
0.0 0.0 0.0
0.0 0.0 0.0
0.0 0.0 0.0
0.0 0.0 0.0
0.0 0.0 0.0
0.0 0.0 0.0
0.0 0.0 0.0
0.0 0.0 0.0
0.0 0.0 0.0
0.0 0.0 0.0
0.0 0.0 0.0
0.0 0.0 0.0
0.0 0.0 0.0
0.0 0.0 0.0
0.0 0.0 0.0
0.0 0.0 0.0
0.0 0.0 0.0
0.0 0.0 0.0
0.0 0.0 0.0
0.0 0.0 0.0
0.0 0.0 0.0
0.0 0.0 0.0
0.0 0.0 0.0
0.0 0.0 0.0
0.0 0.0 0.0
0.0 0.0 0.0
0.0 0.0 0.0
0.0 0.0 0.0
0.0 0.0 0.0
0.0 0.0 0.0
0.0 0.0 0.0
0.0 0.0 0.0
0.0 0.0 0.0
0.0 0.0 0.0
0.0 0.0 0.0
0.0 0.0 0.0
0.0 0.0 0.0
0.0 0.0 0.0
0.0 0.0 0.0
0.0 0.0 0.0
0.0 0.0 0.0
0.0 0.0 0.0
0.0 0.0 0.0
0.0 0.0 0.0
0.0 0.0 0.0
0.0 0.0 0.0
0.0 0.0 0.0
0.0 0.0 0.0
0.0 0.0 0.0
0.0 0.0 0.0
0.0 0.0 0.0
0.0 0.0 0.0
0.0 0.0 0.0
0.0 0.0 0.0
0.0 0.0 0.0
0.0 0.0 0.0
0.0 0.0 0.0
0.0 0.0 0.0
0.0 0.0 0.0
0.0 0.0 0.0
0.0 0.0 0.0
0.0 0.0 0.0
0.0 0.0 0.0
0.0 0.0 0.0
0.0 0.0 0.0
0.0 0.0 0.0
0.0 0.0 0.0
0.0 0.0 0.0
0.0 0.0 0.0
0.0 0.0 0.0
0.0 0.0 0.0
0.0 0.0 0.0
0.0 0.0 0.0
0.0 0.0 0.0
0.0 0.0 0.0
0.0 0.0 0.0
0.0 0.0 0.0
0.0 0.0 0.0
0.0 0.0 0.0
0.0 0.0 0.0
0.0 0.0 0.0
0.0 0.0 0.0
0.0 0.0 0.0
0.0 0.0 0.0
0.0 0.0 0.0
0.0 0.0 0.0
0.0 0.0 0.0
0.0 0.0 0.0
0.0 0.0 0.0
0.0 0.0 0.0
0.0 0.0 0.0
0.0 0.0 0.0
0.0 0.0 0.0
0.0 0.0 0.0
0.0 0.0 0.0
0.0 0.0 0.0
0.0 0.0 0.0
0.0 0.0 0.0
0.0 0.0 0.0
0.0 0.0 0.0
0.0 0.0 0.0
0.0 0.0 0.0
0.0 0.0 0.0
0.0 0.0 0.0
0.0 0.0 0.0
0.0 0.0 0.0
0.0 0.0 0.0
0.0 0.0 0.0
0.0 0.0 0.0
0.0 0.0 0.0
0.0 0.0 0.0
0.0 0.0 0.0
0.0 0.0 0.0
0.0 0.0 0.0
0.0 0.0 0.0
0.0 0.0 0.0
0.0 0.0 0.0
0.0 0.0 0.0
0.0 0.0 0.0
0.0 0.0 0.0
0.0 0.0 0.0
0.0 0.0 0.0
0.0 0.0 0.0
0.0 0.0 0.0
0.0 0.0 0.0
0.0 0.0 0.0
0.0 0.0 0.0
0.0 0.0 0.0
0.0 0.0 0.0
0.0 0.0 0.0
0.0 0.0 0.0
0.0 0.0 0.0
0.0 0.0 0.0
0.0 0.0 0.0
0.0 0.0 0.0
0.0 0.0 0.0
0.0 0.0 0.0
0.0 0.0 0.0
0.0 0.0 0.0
0.0 0.0 0.0
0.0 0.0 0.0
0.0 0.0 0.0
0.0 0.0 0.0
0.0 0.0 0.0
0.0 0.0 0.0
0.0 0.0 0.0
0.0 0.0 0.0
0.0 0.0 0.0
0.0 0.0 0.0
0.0 0.0 0.0
0.0 0.0 0.0
0.0 0.0 0.0
0.0 0.0 0.0
0.0 0.0 0.0
0.0 0.0 0.0
0.0 0.0 0.0
0.0 0.0 0.0
0.0 0.0 0.0
0.0 0.0 0.0
0.0 0.0 0.0
0.0 0.0 0.0
0.0 0.0 0.0
0.0 0.0 0.0
0.0 0.0 0.0
0.0 0.0 0.0
0.0 0.0 0.0
0.0 0.0 0.0
0.0 0.0 0.0
0.0 0.0 0.0
0.0 0.0 0.0
0.0 0.0 0.0
0.0 0.0 0.0
0.0 0.0 0.0
0.0 0.0 0.0
0.0 0.0 0.0
0.0 0.0 0.0
0.0 0.0 0.0
0.0 0.0 0.0
0.0 0.0 0.0
0.0 0.0 0.0
0.0 0.0 0.0
0.0 0.0 0.0
0.0 0.0 0.0
0.0 0.0 0.0
VECTORS f float
0.0 0.0 -0.00160516
0.0 0.0 -0.000346714
0.0 0.0 -0.000346714
0.0 0.0 -0.000346714
0.0 0.0 -0.000346714
0.0 0.0 -0.000346714
0.0 0.0 -0.000346714
0.0 0.0 -0.000346714
0.0 0.0 -0.000346714
0.0 0.0 -0.00160516
0.0 0.0 -0.00160516
0.0 0.0 -0.000346714
0.0 0.0 -0.000346714
0.0 0.0 -0.000346714
0.0 0.0 -0.00160516
0.0 0.0 -0.00160516
0.0 0.0 -0.000346714
0.0 0.0 -0.000346714
0.0 0.0 -0.00160516
-0.000282826 -4.44101e-05 0.000522396
0.0 0.0 -0.00160516
0.0 0.0 -0.000346714
0.0 0.0 -0.000346714
0.0 0.0 -0.000346714
0.0 0.0 -0.000346714
0.0 0.0 -0.000346714
0.0 0.0 -0.00160516
0.0 0.0 -0.00160516
0.0 0.0 -0.000346714
0.0 0.0 -0.000346714
0.0 0.0 -0.000346714
0.0 0.0 -0.000346714
0.0 0.0 -0.000346714
0.0 0.0 -0.00160516
0.0 0.0 -0.000346714
0.0 0.0 -0.00160516
0.0 0.0 -0.00160516
0.0 0.0 -0.000346714
0.0 0.0 -0.000346714
0.0 0.0 -0.000346714
0.0 0.0 -0.000346714
0.0 0.0 -0.00160516
0.0 0.0 -0.000346714
0.0 0.0 -0.000346714
0.0 0.0 -0.000346714
0.0 0.0 -0.000346714
0.0 0.0 -0.000346714
0.0 0.0 -0.00160516
0.0 0.0 -0.000346714
0.0 0.0 -0.00160516
0.0 0.0 -0.00160516
0.0 0.0 -0.00160516
0.0 0.0 -0.000346714
0.0 0.0 -0.000346714
0.0 0.0 -0.000346714
0.0 0.0 -0.00160516
0.0 0.0 -0.00160516
0.0 0.0 -0.00160516
0.0 0.0 -0.000346714
0.0 0.0 -0.000346714
0.0 0.0 -0.00160516
0.0 0.0 -0.000346714
0.0 0.0 -0.000346714
0.0 0.0 -0.000346714
0.0 0.0 -0.000346714
0.0 0.0 -0.00160516
0.0 0.0 -0.00160516
0.0 0.0 -0.000346714
0.0 0.0 -0.000346714
0.0 0.0 -0.000346714
0.0 0.0 -0.000346714
0.0 0.0 -0.00160516
0.0 0.0 -0.000346714
0.0 0.0 -0.00160516
0.0 0.0 -0.000346714
0.0 0.0 -0.000346714
0.0 0.0 -0.000346714
0.0 0.0 -0.000346714
0.0 0.0 -0.00160516
0.0 0.0 -0.00160516
0.0 0.0 -0.00160516
0.0 0.0 -0.000346714
0.0 0.0 -0.000346714
0.0 0.0 -0.000346714
0.0 0.0 -0.000346714
0.0 0.0 -0.000346714
0.0 0.0 -0.000346714
0.0 0.0 -0.000346714
0.0 0.0 -0.00160516
0.0 0.0 -0.000346714
0.0 0.0 -0.000346714
0.0 0.0 -0.000346714
0.0 0.0 -0.000346714
0.0 0.0 -0.00160516
0.0 0.0 -0.000346714
0.0 0.0 -0.00160516
0.0 0.0 -0.00160516
0.0 0.0 -0.00160516
0.0 0.0 -0.000346714
0.0 0.0 -0.000346714
0.0 0.0 -0.00160516
0.0 0.0 -0.000346714
0.0 0.0 -0.000346714
0.0 0.0 -0.000346714
0.0 0.0 -0.000346714
0.0 0.0 -0.00160516
0.0 0.0 -0.00160516
0.0 0.0 -0.00160516
0.0 0.0 -0.000346714
0.0 0.0 -0.000346714
0.0 0.0 -0.00160516
0.0 0.0 -0.000346714
0.0 0.0 -0.000346714
0.0 0.0 -0.00160516
0.0 0.0 -0.000346714
0.0 0.0 -0.000346714
0.0 0.0 -0.00160516
0.0 0.0 -0.000346714
0.0 0.0 -0.00160516
0.0 0.0 -0.000346714
0.0 0.0 -0.000346714
0.0 0.0 -0.000346714
0.0 0.0 -0.000346714
0.0 0.0 -0.000346714
0.0 0.0 -0.00160516
0.0 0.0 -0.000346714
0.0 0.0 -0.000346714
0.0 0.0 -0.00160516
0.0 0.0 -0.00160516
0.0 0.0 -0.00160516
0.0 0.0 -0.00160516
0.0 0.0 -0.000346714
0.0 0.0 -0.000346714
0.0 0.0 -0.00160516
0.0 0.0 -0.000346714
0.0 0.0 -0.000346714
0.0 0.0 -0.00160516
0.0 0.0 -0.000346714
0.0 0.0 -0.000346714
0.0 0.0 -0.000346714
0.0 0.0 -0.000346714
0.0 0.0 -0.000346714
0.0 0.0 -0.000346714
0.0 0.0 -0.000346714
0.0 0.0 -0.000346714
0.0 0.0 -0.00160516
0.0 0.0 -0.000346714
0.0 0.0 -0.000346714
0.0 0.0 -0.00160516
0.0 0.0 -0.000346714
0.0 0.0 -0.000346714
0.0 0.0 -0.00160516
0.0 0.0 -0.00160516
0.0 0.0 -0.000346714
0.0 0.0 -0.00160516
0.0 0.0 -0.000346714
0.0 0.0 -0.000346714
0.0 0.0 -0.000346714
0.0 0.0 -0.00160516
0.0 0.0 -0.00160516
0.0 0.0 -0.000346714
0.0 0.0 -0.000346714
0.0 0.0 -0.000346714
0.0 0.0 -0.000346714
0.0 0.0 -0.000346714
0.0 0.0 -0.000346714
0.0 0.0 -0.000346714
0.0 0.0 -0.00160516
0.0 0.0 -0.000346714
0.0 0.0 -0.000346714
0.0 0.0 -0.000346714
0.0 0.0 -0.00160516
0.0 0.0 -0.00160516
0.0 0.0 -0.000346714
0.0 0.0 -0.000346714
0.0 0.0 -0.000346714
0.0 0.0 -0.00160516
0.0 0.0 -0.000346714
0.0 0.0 -0.00160516
0.0 0.0 -0.00160516
0.0 0.0 -0.000346714
0.0 0.0 -0.000346714
0.0 0.0 -0.000346714
0.0 0.0 -0.000346714
0.0 0.0 -0.00160516
0.0 0.0 -0.000346714
0.0 0.0 -0.00160516
0.0 0.0 -0.000346714
0.0 0.0 -0.00160516
0.0 0.0 -0.000346714
0.0 0.0 -0.000346714
0.0 0.0 -0.000346714
0.0 0.0 -0.000346714
0.0 0.0 -0.00160516
0.0 0.0 -0.000346714
0.0 0.0 -0.00160516
0.0 0.0 -0.000346714
0.0 0.0 -0.000346714
0.0 0.0 -0.00160516
0.0 0.0 -0.000346714
0.0 0.0 -0.000346714
0.0 0.0 -0.000346714
0.0 0.0 0.0
0.0 0.0 0.0
0.0 0.0 0.0
VECTORS omega float
108.09 -276.259 14.8797
-64.7239 -473.802 -26.7444
-340.631 -726.294 -186.258
16.3055 -505.552 136.656
-183.386 -447.962 -9.9482
91.1675 -518.11 10.2559
-82.0058 -360.959 6.27673
-172.594 -635.919 86.5876
136.334 -512.554 67.7459
-92.2038 -218.304 -1.90708
17.8756 -77.3327 -0.484907
203.054 -144.06 55.2991
-142.629 -517.4 12.32
-93.3386 -388.818 -8.97324e-15
-121.571 -230.939 -27.6523
-14.8336 -225.779 -6.37285e-15
-24.7329 -376.454 2.87063e-14
-11.0748 -389.824 7.37302e-16
-39.592 -54.0273 -67.7431
-36.5195 -225.293 23.303
-24.1215 -250.433 -49.8834
145.888 -543.345 2.29713
157.283 -192.671 339.666
-61.1203 245.419 176.746
109.333 -325.067 83.3711
-498.293 489.454 44.1913
-105.302 -255.327 -0.0941047
-29.8376 -211.638 16.2453
-85.5854 -368.423 1.07912e-13
53.5445 -226.738 38.1963
-71.7461 -384.354 3.76326e-14
-24.4869 -372.71 -5.48927e-14
-91.909 -438.919 -4.95487
228.469 -183.883 74.4423
-10.9755 -386.329 2.70716e-15
17.9899 -186.747 -8.36648
-57.9861 -214.037 -30.4075
55.6535 -369.268 6.21219e-14
358.972 239.038 49.5527
318.574 -268.789 -7.19634
27.3203 136.186 -30.5113
-69.9395 -110.67 -32.2049
-64.7637 -362.469 4.75323e-14
-65.8418 -368.503 1.62458e-14
76.5445 -305.361 -82.55
-267.764 142.484 -137.224
69.7203 -386.005 -6.26036e-14
-27.7796 -19.2631 -21.4538
179.539 20.7599 75.5433
56.7407 -261.792 -12.4183
-81.4028 -221.733 3.69e-14
-81.4948 -221.983 -4.47958e-14
-65.0767 -364.221 8.43618e-14
-3.44496 463.931 -9.78414
94.6125 -408.957 4.03732
-69.624 -125.556 -49.8396
53.1334 -227.496 5.06761e-14
203.194 39.2065 96.4217
170.633 -372.778 -8.07544e-14
377.106 230.021 159.168
-92.8876 -225.641 -0.0301518
-72.1604 -386.573 -3.16862e-14
13.6638 -367.81 1.29697e-14
-420.547 462.336 -196.423
13.6317 -366.946 -6.66146e-15
21.9182 37.1235 3.39861
150.414 265.189 96.4217
0.0 0.0 0.0
0.0 0.0 0.0
0.0 0.0 0.0
0.0 0.0 0.0
0.0 0.0 0.0
0.0 0.0 0.0
0.0 0.0 0.0
0.0 0.0 0.0
0.0 0.0 0.0
0.0 0.0 0.0
0.0 0.0 0.0
0.0 0.0 0.0
0.0 0.0 0.0
0.0 0.0 0.0
0.0 0.0 0.0
0.0 0.0 0.0
0.0 0.0 0.0
0.0 0.0 0.0
0.0 0.0 0.0
0.0 0.0 0.0
0.0 0.0 0.0
0.0 0.0 0.0
0.0 0.0 0.0
0.0 0.0 0.0
0.0 0.0 0.0
0.0 0.0 0.0
0.0 0.0 0.0
0.0 0.0 0.0
0.0 0.0 0.0
0.0 0.0 0.0
0.0 0.0 0.0
0.0 0.0 0.0
0.0 0.0 0.0
0.0 0.0 0.0
0.0 0.0 0.0
0.0 0.0 0.0
0.0 0.0 0.0
0.0 0.0 0.0
0.0 0.0 0.0
0.0 0.0 0.0
0.0 0.0 0.0
0.0 0.0 0.0
0.0 0.0 0.0
0.0 0.0 0.0
0.0 0.0 0.0
0.0 0.0 0.0
0.0 0.0 0.0
0.0 0.0 0.0
0.0 0.0 0.0
0.0 0.0 0.0
0.0 0.0 0.0
0.0 0.0 0.0
0.0 0.0 0.0
0.0 0.0 0.0
0.0 0.0 0.0
0.0 0.0 0.0
0.0 0.0 0.0
0.0 0.0 0.0
0.0 0.0 0.0
0.0 0.0 0.0
0.0 0.0 0.0
0.0 0.0 0.0
0.0 0.0 0.0
0.0 0.0 0.0
0.0 0.0 0.0
0.0 0.0 0.0
0.0 0.0 0.0
0.0 0.0 0.0
0.0 0.0 0.0
0.0 0.0 0.0
0.0 0.0 0.0
0.0 0.0 0.0
0.0 0.0 0.0
0.0 0.0 0.0
0.0 0.0 0.0
0.0 0.0 0.0
0.0 0.0 0.0
0.0 0.0 0.0
0.0 0.0 0.0
0.0 0.0 0.0
0.0 0.0 0.0
0.0 0.0 0.0
0.0 0.0 0.0
0.0 0.0 0.0
0.0 0.0 0.0
0.0 0.0 0.0
0.0 0.0 0.0
0.0 0.0 0.0
0.0 0.0 0.0
0.0 0.0 0.0
0.0 0.0 0.0
0.0 0.0 0.0
0.0 0.0 0.0
0.0 0.0 0.0
0.0 0.0 0.0
0.0 0.0 0.0
0.0 0.0 0.0
0.0 0.0 0.0
0.0 0.0 0.0
0.0 0.0 0.0
0.0 0.0 0.0
0.0 0.0 0.0
0.0 0.0 0.0
0.0 0.0 0.0
0.0 0.0 0.0
0.0 0.0 0.0
0.0 0.0 0.0
0.0 0.0 0.0
0.0 0.0 0.0
0.0 0.0 0.0
0.0 0.0 0.0
0.0 0.0 0.0
0.0 0.0 0.0
0.0 0.0 0.0
0.0 0.0 0.0
0.0 0.0 0.0
0.0 0.0 0.0
0.0 0.0 0.0
0.0 0.0 0.0
0.0 0.0 0.0
0.0 0.0 0.0
0.0 0.0 0.0
0.0 0.0 0.0
0.0 0.0 0.0
0.0 0.0 0.0
0.0 0.0 0.0
0.0 0.0 0.0
0.0 0.0 0.0
0.0 0.0 0.0
0.0 0.0 0.0
0.0 0.0 0.0
0.0 0.0 0.0
0.0 0.0 0.0
0.0 0.0 0.0
0.0 0.0 0.0
0.0 0.0 0.0
0.0 0.0 0.0
0.0 0.0 0.0
VECTORS v float
-0.655545 -0.265489 -0.286046
-0.739681 0.0955725 -0.255282
-1.13531 0.557518 -0.314914
-0.805626 -0.0623163 -0.21658
-0.649232 0.265843 -0.317493
-0.765248 -0.0892293 -0.306779
-0.579489 0.194121 -0.0587381
-0.952125 0.189711 -0.273134
-0.770949 -0.238651 -0.397753
-0.704419 0.235499 0.103378
-1.01633 0.294895 -0.515409
-0.942897 0.660971 -0.58011
-0.809413 0.212428 -0.274593
-0.750346 0.180126 -0.0306234
-0.526089 0.306175 -0.270255
-0.737266 0.0484382 -0.105888
-0.735117 0.048297 0.0399278
-0.756912 0.0215037 0.061783
-0.376854 0.135143 -0.133928
-0.306754 0.0377032 -0.126461
-0.588504 0.125168 -0.220878
-0.810353 -0.220714 -0.23618
-0.746853 -0.229155 -0.219341
-1.25327 0.159182 -1.0353
-0.761856 -0.0901797 -0.2544
-0.271633 0.311388 -0.318425
-0.72059 0.297164 -0.178766
-0.527198 0.0694493 -0.249789
-0.718805 0.16698 0.241875
-0.740387 0.234009 -0.238676
-0.744067 0.138893 0.163004
-0.730942 0.0480227 -0.0771577
-0.727982 0.151647 -0.218541
-0.533893 -0.586869 0.0566495
-0.755732 0.0214702 -0.0604988
-0.478936 -0.0320231 -0.096226
-0.520232 -0.14758 -0.690776
-0.729676 -0.109972 -0.0717584
-0.354309 0.0105923 -1.18142
-0.355467 0.160226 -0.156706
-0.926663 0.481481 0.0618628
-0.306286 0.216467 -0.120653
-0.713169 0.127425 0.212377
-0.717848 0.128261 0.157817
-0.481235 -0.055419 -0.0961577
-0.649991 0.729528 -0.190446
-0.744631 -0.134496 0.216507
-0.0974282 0.0739958 -0.107109
-0.035504 -0.31757 0.111883
-0.798297 -0.190925 0.0601152
-0.713816 0.262057 0.154195
-0.713952 0.262107 0.051134
-0.721152 0.128851 -0.084802
-0.55464 -0.0743018 -0.123457
-0.419727 -0.0188315 -0.144713
-0.59542 -0.0969496 -0.432559
-0.732633 -0.171112 -0.0906208
-0.855675 0.189712 -0.627654
-0.715841 -0.327664 0.108383
-0.714072 -0.386294 -0.276111
-0.724818 0.29843 0.222477
-0.74552 0.139164 0.266636
-0.717929 -0.0266705 0.248872
0.0598653 0.64391 -0.698486
-0.719341 -0.0267229 0.286172
0.219529 -0.157799 -1.52107
0.125499 -0.36025 -1.24145
0.0 0.0 -1.98978
0.0 0.0 -1.99037
0.0 0.0 -1.97094
0.0 0.0 -1.98036
0.0 0.0 -1.95466
0.0 0.0 -1.95898
0.0 0.0 -1.96388
0.0 0.0 -1.95358
0.0 0.0 -1.96143
0.0 0.0 -1.93249
0.0 0.0 -1.92327
0.0 0.0 -1.9268
0.0 0.0 -1.91346
0.0 0.0 -1.9059
0.0 0.0 -1.91012
0.0 0.0 -1.89766
0.0 0.0 -1.88177
0.0 0.0 -1.88933
0.0 0.0 -1.8595
0.0 0.0 -1.85793
0.0 0.0 -1.84567
0.0 0.0 -1.84891
0.0 0.0 -1.8492
0.0 0.0 -1.82468
0.0 0.0 -1.80565
0.0 0.0 -1.80888
0.0 0.0 -1.81595
0.0 0.0 -1.79446
0.0 0.0 -1.78995
0.0 0.0 -1.79338
0.0 0.0 -1.7821
0.0 0.0 -1.7872
0.0 0.0 -1.76572
0.0 0.0 -1.76425
0.0 0.0 -1.76376
0.0 0.0 -1.74316
0.0 0.0 -1.74571
0.0 0.0 -1.72314
0.0 0.0 -1.71834
0.0 0.0 -1.69891
0.0 0.0 -1.71235
0.0 0.0 -1.69911
0.0 0.0 -1.70558
0.0 0.0 -1.70558
0.0 0.0 -1.70127
0.0 0.0 -1.68351
0.0 0.0 -1.69332
0.0 0.0 -1.6738
0.0 0.0 -1.63191
0.0 0.0 -1.61582
0.0 0.0 -1.62426
0.0 0.0 -1.60945
0.0 0.0 -1.58865
0.0 0.0 -1.60572
0.0 0.0 -1.59032
0.0 0.0 -1.57658
0.0 0.0 -1.57629
0.0 0.0 -1.58119
0.0 0.0 -1.57315
0.0 0.0 -1.55137
0.0 0.0 -1.54705
0.0 0.0 -1.55363
0.0 0.0 -1.51468
0.0 0.0 -1.52135
0.0 0.0 -1.52989
0.0 0.0 -1.53008
0.0 0.0 -1.50497
0.0 0.0 -1.50654
0.0 0.0 -1.48967
0.0 0.0 -1.46632
0.0 0.0 -1.48947
0.0 0.0 -1.47005
0.0 0.0 -1.47466
0.0 0.0 -1.47809
0.0 0.0 -1.45464
0.0 0.0 -1.43012
0.0 0.0 -1.41599
0.0 0.0 -1.41796
0.0 0.0 -1.42963
0.0 0.0 -1.41786
0.0 0.0 -1.42119
0.0 0.0 -1.39265
0.0 0.0 -1.36341
0.0 0.0 -1.36498
0.0 0.0 -1.38931
0.0 0.0 -1.34301
0.0 0.0 -1.36155
0.0 0.0 -1.35233
0.0 0.0 -1.33722
0.0 0.0 -1.31466
0.0 0.0 -1.3022
0.0 0.0 -1.28513
0.0 0.0 -1.29719
0.0 0.0 -1.28258
0.0 0.0 -1.28993
0.0 0.0 -1.30798
0.0 0.0 -1.25334
0.0 0.0 -1.25815
0.0 0.0 -1.26001
0.0 0.0 -1.2709
0.0 0.0 -1.26266
0.0 0.0 -1.24275
0.0 0.0 -1.24628
0.0 0.0 -1.22646
0.0 0.0 -1.23461
0.0 0.0 -1.23137
0.0 0.0 -1.19831
0.0 0.0 -1.19105
0.0 0.0 -1.21665
0.0 0.0 -1.19478
0.0 0.0 -1.1835
0.0 0.0 -1.13935
0.0 0.0 -1.15377
0.0 0.0 -1.13131
0.0 0.0 -1.14887
0.0 0.0 -1.14573
0.0 0.0 -1.15201
0.0 0.0 -1.13327
0.0 0.0 -1.13278
0.0 0.0 -1.10423
0.0 0.0 -1.10364
0.0 0.0 -1.11649
0.0 0.0 -1.08373
0.0 0.0 -1.06273
0.0 0.0 -1.06695
0.0 0.0 -1.07892
0.0 0.0 -1.02997
0.0 0.0 -1.02879
0.0 0.0 -1.05086
0.0 0.0 -1.05636
0.0 0.0 -1.05145
0.0 0.0 -1.01584
0.0 0.0 -1.00338
0.0 0.0 -1.02075
0.0 0.0 -1.0232
-0 0.0 -1.0
-0 0.0 -1.0
-0 0.0 -1.0
SCALARS radius float 1
LOOKUP_TABLE default
0.0025
0.0015
0.0015
0.0015
0.0015
0.0015
0.0015
0.0015
0.0015
0.0025
0.0025
0.0015
0.0015
0.0015
0.0025
0.0025
0.0015
0.0015
0.0025
0.0015
0.0025
0.0015
0.0015
0.0015
0.0015
0.0015
0.0025
0.0025
0.0015
0.0015
0.0015
0.0015
0.0015
0.0025
0.0015
0.0025
0.0025
0.0015
0.0015
0.0015
0.0015
0.0025
0.0015
0.0015
0.0015
0.0015
0.0015
0.0025
0.0015
0.0025
0.0025
0.0025
0.0015
0.0015
0.0015
0.0025
0.0025
0.0025
0.0015
0.0015
0.0025
0.0015
0.0015
0.0015
0.0015
0.0025
0.0025
0.0015
0.0015
0.0015
0.0015
0.0025
0.0015
0.0025
0.0015
0.0015
0.0015
0.0015
0.0025
0.0025
0.0025
0.0015
0.0015
0.0015
0.0015
0.0015
0.0015
0.0015
0.0025
0.0015
0.0015
0.0015
0.0015
0.0025
0.0015
0.0025
0.0025
0.0025
0.0015
0.0015
0.0025
0.0015
0.0015
0.0015
0.0015
0.0025
0.0025
0.0025
0.0015
0.0015
0.0025
0.0015
0.0015
0.0025
0.0015
0.0015
0.0025
0.0015
0.0025
0.0015
0.0015
0.0015
0.0015
0.0015
0.0025
0.0015
0.0015
0.0025
0.0025
0.0025
0.0025
0.0015
0.0015
0.0025
0.0015
0.0015
0.0025
0.0015
0.0015
0.0015
0.0015
0.0015
0.0015
0.0015
0.0015
0.0025
0.0015
0.0015
0.0025
0.0015
0.0015
0.0025
0.0025
0.0015
0.0025
0.0015
0.0015
0.0015
0.0025
0.0025
0.0015
0.0015
0.0015
0.0015
0.0015
0.0015
0.0015
0.0025
0.0015
0.0015
0.0015
0.0025
0.0025
0.0015
0.0015
0.0015
0.0025
0.0015
0.0025
0.0025
0.0015
0.0015
0.0015
0.0015
0.0025
0.0015
0.0025
0.0015
0.0025
0.0015
0.0015
0.0015
0.0015
0.0025
0.0015
0.0025
0.0015
0.0015
0.0025
0.0015
0.0015
0.0015
0.0015
0.0025
0.0015
SCALARS type float 1
LOOKUP_TABLE default
1.0
1.0
1.0
1.0
1.0
1.0
1.0
1.0
1.0
1.0
1.0
1.0
1.0
1.0
1.0
1.0
1.0
1.0
1.0
1.0
1.0
1.0
1.0
1.0
1.0
1.0
1.0
1.0
1.0
1.0
1.0
1.0
1.0
1.0
1.0
1.0
1.0
1.0
1.0
1.0
1.0
1.0
1.0
1.0
1.0
1.0
1.0
1.0
1.0
1.0
1.0
1.0
1.0
1.0
1.0
1.0
1.0
1.0
1.0
1.0
1.0
1.0
1.0
1.0
1.0
1.0
1.0
1.0
1.0
1.0
1.0
1.0
1.0
1.0
1.0
1.0
1.0
1.0
1.0
1.0
1.0
1.0
1.0
1.0
1.0
1.0
1.0
1.0
1.0
1.0
1.0
1.0
1.0
1.0
1.0
1.0
1.0
1.0
1.0
1.0
1.0
1.0
1.0
1.0
1.0
1.0
1.0
1.0
1.0
1.0
1.0
1.0
1.0
1.0
1.0
1.0
1.0
1.0
1.0
1.0
1.0
1.0
1.0
1.0
1.0
1.0
1.0
1.0
1.0
1.0
1.0
1.0
1.0
1.0
1.0
1.0
1.0
1.0
1.0
1.0
1.0
1.0
1.0
1.0
1.0
1.0
1.0
1.0
1.0
1.0
1.0
1.0
1.0
1.0
1.0
1.0
1.0
1.0
1.0
1.0
1.0
1.0
1.0
1.0
1.0
1.0
1.0
1.0
1.0
1.0
1.0
1.0
1.0
1.0
1.0
1.0
1.0
1.0
1.0
1.0
1.0
1.0
1.0
1.0
1.0
1.0
1.0
1.0
1.0
1.0
1.0
1.0
1.0
1.0
1.0
1.0
1.0
1.0
1.0
1.0
1.0
1.0
1.0
1.0
1.0
SCALARS id float 1
LOOKUP_TABLE default
4.0
5.0
38.0
36.0
33.0
12.0
19.0
50.0
23.0
41.0
30.0
31.0
8.0
21.0
1.0
2.0
20.0
32.0
29.0
44.0
16.0
35.0
11.0
47.0
18.0
9.0
26.0
28.0
56.0
24.0
51.0
10.0
37.0
52.0
17.0
39.0
3.0
6.0
34.0
45.0
48.0
15.0
59.0
46.0
60.0
43.0
57.0
13.0
62.0
42.0
53.0
40.0
22.0
49.0
25.0
27.0
14.0
54.0
58.0
7.0
55.0
63.0
64.0
61.0
73.0
68.0
67.0
69.0
70.0
76.0
74.0
66.0
71.0
65.0
72.0
75.0
88.0
81.0
77.0
79.0
78.0
83.0
85.0
89.0
84.0
87.0
82.0
102.0
80.0
86.0
95.0
100.0
98.0
94.0
97.0
91.0
92.0
90.0
99.0
101.0
93.0
96.0
113.0
114.0
115.0
105.0
106.0
107.0
112.0
110.0
103.0
109.0
111.0
104.0
108.0
123.0
120.0
125.0
117.0
126.0
122.0
121.0
127.0
128.0
116.0
124.0
138.0
118.0
119.0
131.0
132.0
139.0
133.0
130.0
140.0
137.0
129.0
136.0
141.0
134.0
135.0
149.0
153.0
146.0
152.0
143.0
148.0
151.0
142.0
147.0
150.0
144.0
155.0
154.0
145.0
163.0
160.0
165.0
158.0
157.0
162.0
161.0
159.0
176.0
173.0
164.0
166.0
156.0
172.0
175.0
178.0
168.0
170.0
179.0
177.0
171.0
167.0
174.0
182.0
169.0
186.0
192.0
191.0
185.0
180.0
184.0
181.0
190.0
183.0
188.0
200.0
189.0
187.0
196.0
205.0
195.0
204.0
198.0
193.0
201.0
197.0
203.0
202.0
194.0
199.0

