# vtk DataFile Version 2.0
Generated by lpp.py
ASCII
DATASET POLYDATA
POINTS 76 float
-0.00174714 -0.029557 -0.0201643
-0.0346734 -0.00599195 -0.0205435
-0.00894204 -0.00172108 -0.0227227
-0.0106535 0.00311808 -0.0222894
-0.0241534 0.031784 -0.0217452
-0.00953586 -0.0287916 -0.0154682
-0.0255875 0.0216478 -0.0183587
-0.00462371 -0.0298822 -0.0124828
-0.0270088 -0.00882918 -0.0126304
-0.0202974 -0.0206343 -0.00802211
-0.0134792 0.0074157 -0.0111836
-0.0266102 0.013684 -0.0112125
-0.00857183 0.0107813 -0.00988114
-0.00408721 0.01129 -0.00798671
-0.0280307 0.022667 -0.0103746
-0.00454319 -0.0294115 -0.0041159
-0.0083641 -0.0195 -0.00691894
-0.0101549 -0.00442827 -0.00544623
-0.0253454 -0.000700049 -0.00624022
-0.0335467 0.0344165 -0.00735038
-0.0333391 -0.019004 -0.00147973
-0.00618745 0.0189444 -0.00149533
-0.0332823 -0.00448395 0.00229904
-0.022531 -0.00019371 0.00668287
-0.00741847 0.0112937 0.00355734
-0.0165601 0.0229939 0.00422467
-0.0138262 0.0291618 0.00557212
-0.0127396 -0.0117751 0.00896001
-0.0290883 0.000876534 0.0100475
-0.000459601 0.00699661 0.00822152
-0.0254317 0.00979368 0.00909504
-0.0177649 0.0224168 0.0106953
-0.0219947 -0.0332201 0.0115724
-0.0160817 -0.03192 0.0133989
-0.0230202 -0.0250033 0.0117614
-0.020721 -0.0278475 0.0146343
-0.0159539 -0.0280969 0.017697
-0.0297813 -0.0200888 0.0167176
-0.00180681 -0.0218065 0.0215665
-0.0159102 0.00235532 0.0209457
-0.022228 0.00485213 0.0213748
-0.0097629 0.0296421 0.020173
-0.0279742 -1.04943e-05 0.0253787
-0.0218847 0.0256262 0.0256085
-0.0160508 0.0304724 0.0259971
-0.022804 -0.0315502 0.0270406
-0.0105626 -0.0145818 0.0263994
-0.0175025 -0.0121213 0.0277853
-0.0312011 0.00531382 0.0292025
-0.0196938 0.0042356 0.0292993
-0.0294843 -0.0347245 0.030867
-0.0221544 -0.0176068 0.033523
-0.0302313 -0.00571197 0.0313108
-0.0185443 0.0109203 0.0338633
-0.0131635 0.0258143 0.0331399
-0.0046838 0.0252416 0.0315098
-0.00481478 0.0323336 0.031779
-0.00163565 -0.0222313 0.034257
-0.00206763 -0.0165007 0.0354661
-0.0250204 0.00245318 0.0354737
-0.0188291 -0.0247488 0.0391615
-0.0205837 -0.0117427 0.0391051
-0.0136213 0.0102173 0.0403058
-0.00322644 0.00785004 0.0381362
-0.021885 0.00637934 0.0497488
-0.0113639 -0.028821 0.0506835
-0.0086291 0.0212435 0.0439876
-0.0183282 0.020832 0.0428739
-0.00331379 0.000112052 0.0470603
-0.0161255 0.0259916 0.0470017
-0.0132118 -0.0142448 0.0502426
-0.0339596 0.0247152 0.0507907
-0.00317446 -0.00307391 0.042135
-0.0313469 0.00594264 0.0480442
-0.0222205 0.0252752 0.0499992
-0.0101315 -0.00307891 0.0490232
VERTICES 76 152
1 0
1 1
1 2
1 3
1 4
1 5
1 6
1 7
1 8
1 9
1 10
1 11
1 12
1 13
1 14
1 15
1 16
1 17
1 18
1 19
1 20
1 21
1 22
1 23
1 24
1 25
1 26
1 27
1 28
1 29
1 30
1 31
1 32
1 33
1 34
1 35
1 36
1 37
1 38
1 39
1 40
1 41
1 42
1 43
1 44
1 45
1 46
1 47
1 48
1 49
1 50
1 51
1 52
1 53
1 54
1 55
1 56
1 57
1 58
1 59
1 60
1 61
1 62
1 63
1 64
1 65
1 66
1 67
1 68
1 69
1 70
1 71
1 72
1 73
1 74
1 75
POINT_DATA 76
VECTORS i float
0.0 0.0 0.0
0.0 0.0 0.0
0.0 0.0 0.0
0.0 0.0 0.0
0.0 0.0 0.0
0.0 0.0 0.0
0.0 0.0 0.0
0.0 0.0 0.0
0.0 0.0 0.0
0.0 0.0 0.0
0.0 0.0 0.0
0.0 0.0 0.0
0.0 0.0 0.0
0.0 0.0 0.0
0.0 0.0 0.0
0.0 0.0 0.0
0.0 0.0 0.0
0.0 0.0 0.0
0.0 0.0 0.0
0.0 0.0 0.0
0.0 0.0 0.0
0.0 0.0 0.0
0.0 0.0 0.0
0.0 0.0 0.0
0.0 0.0 0.0
0.0 0.0 0.0
0.0 0.0 0.0
0.0 0.0 0.0
0.0 0.0 0.0
0.0 0.0 0.0
0.0 0.0 0.0
0.0 0.0 0.0
0.0 0.0 0.0
0.0 0.0 0.0
0.0 0.0 0.0
0.0 0.0 0.0
0.0 0.0 0.0
0.0 0.0 0.0
0.0 0.0 0.0
0.0 0.0 0.0
0.0 0.0 0.0
0.0 0.0 0.0
0.0 0.0 0.0
0.0 0.0 0.0
0.0 0.0 0.0
0.0 0.0 0.0
0.0 0.0 0.0
0.0 0.0 0.0
0.0 0.0 0.0
0.0 0.0 0.0
0.0 0.0 0.0
0.0 0.0 0.0
0.0 0.0 0.0
0.0 0.0 0.0
0.0 0.0 0.0
0.0 0.0 0.0
0.0 0.0 0.0
0.0 0.0 0.0
0.0 0.0 0.0
0.0 0.0 0.0
0.0 0.0 0.0
0.0 0.0 0.0
0.0 0.0 0.0
0.0 0.0 0.0
0.0 0.0 0.0
0.0 0.0 0.0
0.0 0.0 0.0
0.0 0.0 0.0
0.0 0.0 0.0
0.0 0.0 0.0
0.0 0.0 0.0
0.0 0.0 0.0
0.0 0.0 0.0
0.0 0.0 0.0
0.0 0.0 0.0
0.0 0.0 0.0
VECTORS f float
0.0 0.0 -0.00160516
0.0 0.0 -0.00160516
0.0 0.0 -0.000346714
0.0 0.0 -0.000346714
0.0 0.0 -0.000346714
0.0 0.0 -0.000346714
0.0 0.0 -0.00160516
0.0 0.0 -0.000346714
0.0 0.0 -0.000346714
0.0 0.0 -0.000346714
0.0 0.0 -0.00160516
0.0 0.0 -0.000346714
0.0 0.0 -0.000346714
0.0 0.0 -0.00160516
0.0 0.0 -0.000346714
0.0 0.0 -0.00160516
0.0 0.0 -0.000346714
0.0 0.0 -0.000346714
0.0 0.0 -0.000346714
0.0 0.0 -0.000346714
0.0 0.0 -0.000346714
0.0 0.0 -0.00160516
0.0 0.0 -0.000346714
0.0 0.0 -0.00160516
0.0 0.0 -0.00160516
0.0 0.0 -0.000346714
0.0 0.0 -0.000346714
0.0 0.0 -0.000346714
0.0 0.0 -0.000346714
0.0 0.0 -0.00160516
0.0 0.0 -0.000346714
0.0 0.0 -0.000346714
0.0 0.0 -0.00160516
0.0 0.0 -0.00160516
0.0 0.0 -0.000346714
0.0 0.0 -0.000346714
0.0 0.0 -0.00160516
0.0 0.0 -0.000346714
0.0 0.0 -0.00160516
0.0 0.0 -0.00160516
0.0 0.0 -0.000346714
0.0 0.0 -0.000346714
0.0 0.0 -0.000346714
0.0 0.0 -0.000346714
0.0 0.0 -0.00160516
0.0 0.0 -0.000346714
0.0 0.0 -0.000346714
0.0 0.0 -0.000346714
0.0 0.0 -0.000346714
0.0 0.0 -0.000346714
0.0 0.0 -0.00160516
0.0 0.0 -0.000346714
0.0 0.0 -0.00160516
0.0 0.0 -0.000346714
0.0 0.0 -0.000346714
0.0 0.0 -0.00160516
0.0 0.0 -0.000346714
0.0 0.0 -0.00160516
0.0 0.0 -0.000346714
0.0 0.0 -0.000346714
0.0 0.0 -0.00160516
0.0 0.0 -0.000346714
0.0 0.0 -0.000346714
0.0 0.0 -0.000346714
0.0 0.0 -0.00160516
0.0 0.0 0.0
0.0 0.0 -0.00160516
0.0 0.0 -0.00160516
0.0 0.0 -0.000346714
0.0 0.0 -0.000346714
0.0 0.0 0.0
0.0 0.0 0.0
0.0 0.0 -0.000346714
0.0 0.0 -0.000346714
0.0 0.0 -0.000346714
0.0 0.0 -0.000346714
VECTORS omega float
0.0 0.0 0.0
0.0 0.0 0.0
0.0 0.0 0.0
0.0 0.0 0.0
0.0 0.0 0.0
0.0 0.0 0.0
0.0 0.0 0.0
0.0 0.0 0.0
0.0 0.0 0.0
0.0 0.0 0.0
0.0 0.0 0.0
0.0 0.0 0.0
0.0 0.0 0.0
0.0 0.0 0.0
0.0 0.0 0.0
0.0 0.0 0.0
0.0 0.0 0.0
0.0 0.0 0.0
0.0 0.0 0.0
0.0 0.0 0.0
0.0 0.0 0.0
0.0 0.0 0.0
0.0 0.0 0.0
0.0 0.0 0.0
0.0 0.0 0.0
0.0 0.0 0.0
0.0 0.0 0.0
0.0 0.0 0.0
0.0 0.0 0.0
0.0 0.0 0.0
0.0 0.0 0.0
0.0 0.0 0.0
0.0 0.0 0.0
0.0 0.0 0.0
0.0 0.0 0.0
0.0 0.0 0.0
0.0 0.0 0.0
0.0 0.0 0.0
0.0 0.0 0.0
0.0 0.0 0.0
0.0 0.0 0.0
0.0 0.0 0.0
0.0 0.0 0.0
0.0 0.0 0.0
0.0 0.0 0.0
0.0 0.0 0.0
0.0 0.0 0.0
0.0 0.0 0.0
0.0 0.0 0.0
0.0 0.0 0.0
0.0 0.0 0.0
0.0 0.0 0.0
0.0 0.0 0.0
0.0 0.0 0.0
0.0 0.0 0.0
0.0 0.0 0.0
0.0 0.0 0.0
0.0 0.0 0.0
0.0 0.0 0.0
0.0 0.0 0.0
0.0 0.0 0.0
0.0 0.0 0.0
0.0 0.0 0.0
0.0 0.0 0.0
0.0 0.0 0.0
0.0 0.0 0.0
0.0 0.0 0.0
0.0 0.0 0.0
0.0 0.0 0.0
0.0 0.0 0.0
0.0 0.0 0.0
0.0 0.0 0.0
0.0 0.0 0.0
0.0 0.0 0.0
0.0 0.0 0.0
0.0 0.0 0.0
VECTORS v float
0.0 0.0 -1.54166
0.0 0.0 -1.54401
0.0 0.0 -1.55785
0.0 0.0 -1.5551
0.0 0.0 -1.55167
0.0 0.0 -1.51144
0.0 0.0 -1.53008
0.0 0.0 -1.49192
0.0 0.0 -1.4929
0.0 0.0 -1.4623
0.0 0.0 -1.48339
0.0 0.0 -1.48358
0.0 0.0 -1.47475
0.0 0.0 -1.4621
0.0 0.0 -1.47799
0.0 0.0 -1.43591
0.0 0.0 -1.45494
0.0 0.0 -1.44493
0.0 0.0 -1.45033
0.0 0.0 -1.45778
0.0 0.0 -1.41776
0.0 0.0 -1.41786
0.0 0.0 -1.39137
0.0 0.0 -1.36008
0.0 0.0 -1.38244
0.0 0.0 -1.37773
0.0 0.0 -1.36812
0.0 0.0 -1.3436
0.0 0.0 -1.33565
0.0 0.0 -1.34899
0.0 0.0 -1.34261
0.0 0.0 -1.33084
0.0 0.0 -1.32437
0.0 0.0 -1.31073
0.0 0.0 -1.32299
0.0 0.0 -1.30151
0.0 0.0 -1.27816
0.0 0.0 -1.28572
0.0 0.0 -1.24814
0.0 0.0 -1.25305
0.0 0.0 -1.24962
0.0 0.0 -1.25903
0.0 0.0 -1.21783
0.0 0.0 -1.21597
0.0 0.0 -1.21283
0.0 0.0 -1.20439
0.0 0.0 -1.20959
0.0 0.0 -1.19831
0.0 0.0 -1.18664
0.0 0.0 -1.18585
0.0 0.0 -1.1728
0.0 0.0 -1.15034
0.0 0.0 -1.16908
0.0 0.0 -1.1474
0.0 0.0 -1.15358
0.0 0.0 -1.16741
0.0 0.0 -1.16515
0.0 0.0 -1.14406
0.0 0.0 -1.13366
0.0 0.0 -1.13356
0.0 0.0 -1.10119
0.0 0.0 -1.10168
0.0 0.0 -1.09099
0.0 0.0 -1.11031
0.0 0.0 -1.0025
-0 0.0 -1.0
0.0 0.0 -1.05734
0.0 0.0 -1.06764
0.0 0.0 -1.0284
0.0 0.0 -1.02899
-0 0.0 -1.0
-0 0.0 -1.0
0.0 0.0 -1.07441
0.0 0.0 -1.01898
0.0 0.0 -1.00005
0.0 0.0 -1.00956
SCALARS radius float 1
LOOKUP_TABLE default
0.0025
0.0025
0.0015
0.0015
0.0015
0.0015
0.0025
0.0015
0.0015
0.0015
0.0025
0.0015
0.0015
0.0025
0.0015
0.0025
0.0015
0.0015
0.0015
0.0015
0.0015
0.0025
0.0015
0.0025
0.0025
0.0015
0.0015
0.0015
0.0015
0.0025
0.0015
0.0015
0.0025
0.0025
0.0015
0.0015
0.0025
0.0015
0.0025
0.0025
0.0015
0.0015
0.0015
0.0015
0.0025
0.0015
0.0015
0.0015
0.0015
0.0015
0.0025
0.0015
0.0025
0.0015
0.0015
0.0025
0.0015
0.0025
0.0015
0.0015
0.0025
0.0015
0.0015
0.0015
0.0025
0.0025
0.0025
0.0025
0.0015
0.0015
0.0015
0.0015
0.0015
0.0015
0.0015
0.0015
SCALARS type float 1
LOOKUP_TABLE default
1.0
1.0
1.0
1.0
1.0
1.0
1.0
1.0
1.0
1.0
1.0
1.0
1.0
1.0
1.0
1.0
1.0
1.0
1.0
1.0
1.0
1.0
1.0
1.0
1.0
1.0
1.0
1.0
1.0
1.0
1.0
1.0
1.0
1.0
1.0
1.0
1.0
1.0
1.0
1.0
1.0
1.0
1.0
1.0
1.0
1.0
1.0
1.0
1.0
1.0
1.0
1.0
1.0
1.0
1.0
1.0
1.0
1.0
1.0
1.0
1.0
1.0
1.0
1.0
1.0
1.0
1.0
1.0
1.0
1.0
1.0
1.0
1.0
1.0
1.0
1.0
SCALARS id float 1
LOOKUP_TABLE default
1.0
2.0
12.0
5.0
11.0
8.0
4.0
7.0
10.0
24.0
3.0
6.0
25.0
16.0
9.0
15.0
22.0
19.0
17.0
18.0
21.0
14.0
20.0
29.0
13.0
23.0
35.0
37.0
32.0
27.0
38.0
34.0
26.0
28.0
36.0
33.0
30.0
31.0
40.0
39.0
44.0
45.0
50.0
47.0
42.0
48.0
46.0
51.0
49.0
43.0
41.0
56.0
52.0
57.0
62.0
54.0
58.0
53.0
59.0
60.0
55.0
63.0
61.0
64.0
65.0
66.0
67.0
68.0
69.0
70.0
71.0
72.0
73.0
74.0
75.0
76.0

