# vtk DataFile Version 2.0
Generated by lpp.py
ASCII
DATASET POLYDATA
POINTS 824 float
-0.0205489 -0.0158574 0.0537792
-0.0212751 -0.0222794 0.0554481
-0.00276741 0.0063758 0.0559804
-0.0123723 -0.00795185 0.0534737
-0.0225654 0.0160472 0.0532902
-0.0218173 -0.00677131 0.0496965
-0.0271958 0.0326793 0.0492631
-0.0170461 0.028586 0.0479392
-0.482279 -0.0110644 -0.397082
-0.468145 0.00231012 -0.39857
-0.479077 0.00970657 -0.396921
-0.465593 0.00909664 -0.395351
-0.456371 -0.0154247 -0.393242
-0.473429 -0.0125383 -0.391409
-0.448662 -0.0070605 -0.390511
-0.457386 0.0114405 -0.392259
-0.431691 0.00611333 -0.388551
-0.441733 0.0158607 -0.387262
-0.47505 0.0260543 -0.38904
-0.495852 -0.0338135 -0.38123
-0.448055 0.00268938 -0.384329
-0.457453 0.010557 -0.383384
-0.461263 -0.0130773 -0.381091
-0.413846 0.00622009 -0.381567
-0.476896 -0.0319272 -0.376092
-0.441107 -0.0005787 -0.375609
-0.443137 0.0098434 -0.374989
-0.461482 0.0109359 -0.374432
-0.43593 -0.0117449 -0.370172
-0.44316 -0.00723763 -0.370628
-0.438644 -0.00155819 -0.367575
-0.447996 0.0277738 -0.36963
-0.460209 -0.0248247 -0.364385
-0.437382 0.00506871 -0.366191
-0.440858 0.00695668 -0.365094
-0.442932 -0.0147772 -0.363515
-0.458998 -0.00398768 -0.35883
-0.433154 -0.00664414 -0.357895
-0.424789 0.00152483 -0.357924
-0.419598 0.00529764 -0.357547
-0.438045 -0.0168217 -0.354688
-0.396115 -0.0133824 -0.354113
-0.447666 -0.0077211 -0.353958
-0.452215 -0.00612924 -0.356068
-0.441817 -0.00708098 -0.353885
-0.439383 -0.00565529 -0.352685
-0.445703 -0.00235161 -0.352078
-0.441671 0.0176165 -0.351413
-0.445707 0.00769025 -0.348636
-0.443658 0.0160549 -0.346683
-0.43325 0.00193443 -0.343273
-0.436698 0.0126489 -0.343001
-0.442134 0.0201537 -0.342821
-0.442991 -0.002912 -0.338394
-0.429739 0.0127485 -0.341634
-0.429389 -0.00750409 -0.335158
-0.417445 -0.0129007 -0.332304
-0.422896 -0.00752736 -0.333973
-0.442651 0.0224057 -0.331604
-0.430689 0.0194919 -0.332374
-0.423184 -0.0236294 -0.328813
-0.430636 -0.00316939 -0.330011
-0.416042 -0.00403461 -0.329596
-0.420732 0.00836367 -0.331251
-0.453287 -0.0341943 -0.326546
-0.42045 -0.0103452 -0.327538
-0.444011 -0.00511403 -0.323893
-0.411386 0.00296734 -0.321721
-0.410964 -0.00325611 -0.317539
-0.419077 0.0146679 -0.318064
-0.420526 -0.0328927 -0.313379
-0.41254 -0.0219596 -0.315217
-0.411849 0.00226111 -0.314823
-0.418194 0.0247228 -0.315547
-0.415356 -0.00719266 -0.310812
-0.407034 -0.00093174 -0.311849
-0.430434 0.026905 -0.312083
-0.41442 -0.0130509 -0.305818
-0.407108 -0.000238397 -0.307287
-0.407864 0.00897966 -0.30864
-0.427831 0.0533874 -0.309472
-0.400361 -0.0201516 -0.304718
-0.401145 -0.00542555 -0.303379
-0.393534 -0.0154278 -0.297979
-0.403263 -0.013378 -0.299681
-0.404539 0.00173161 -0.301485
-0.408974 -0.0242053 -0.296555
-0.395562 -0.00509629 -0.294804
-0.396291 0.00822586 -0.294788
-0.401791 -0.0436309 -0.29236
-0.392296 -0.0129577 -0.294189
-0.395792 0.0159213 -0.294328
-0.397777 0.0214627 -0.291393
-0.384901 -0.00922113 -0.2901
-0.381018 -0.000704891 -0.288218
-0.388189 0.0038069 -0.288027
-0.398264 0.0430195 -0.290159
-0.381237 -0.00768088 -0.283824
-0.381418 0.00335304 -0.284598
-0.400575 -0.0388723 -0.282382
-0.387341 -0.02359 -0.280166
-0.378625 0.00784219 -0.281194
-0.362525 -0.0158088 -0.277371
-0.369597 -0.00903113 -0.277593
-0.368176 -0.00621379 -0.27811
-0.383842 -0.00227609 -0.278699
-0.377695 -0.0035488 -0.277517
-0.375156 -2.50912e-05 -0.276693
-0.374285 0.0227958 -0.277471
-0.375295 -0.0214804 -0.273705
-0.376188 -0.00687779 -0.273364
-0.373863 -0.00106677 -0.272201
-0.371393 0.0157254 -0.273764
-0.360747 -0.0221919 -0.268773
-0.369632 -0.00411891 -0.27174
-0.363639 -0.00426134 -0.269078
-0.369023 0.00100473 -0.271703
-0.366276 0.00261069 -0.269247
-0.35908 0.00344702 -0.268481
-0.368957 0.00916561 -0.270332
-0.365555 0.0178641 -0.273005
-0.362463 -0.00826265 -0.266034
-0.362415 -0.00376554 -0.26413
-0.366733 0.0172987 -0.267479
-0.371082 -0.0324905 -0.264542
-0.367623 -0.02715 -0.262166
-0.362228 -0.0186305 -0.262662
-0.362807 -0.014659 -0.264233
-0.370049 -0.011936 -0.263151
-0.357531 -0.00830449 -0.262541
-0.36778 0.000557706 -0.262303
-0.348823 0.00392751 -0.260617
-0.363762 0.0162709 -0.264698
-0.369206 0.019013 -0.26154
-0.360439 -0.0184871 -0.259361
-0.360312 -0.0117417 -0.260034
-0.354932 -0.00843104 -0.259985
-0.356677 -0.00377302 -0.259917
-0.351759 -0.00147656 -0.260334
-0.348955 0.000536026 -0.259387
-0.351477 0.00695454 -0.257845
-0.361743 0.02015 -0.259228
-0.35499 -0.0265916 -0.254074
-0.350099 -0.00795703 -0.255376
-0.341361 7.3702e-05 -0.254736
-0.347846 0.00900875 -0.255994
-0.3526 0.014065 -0.256425
-0.349316 0.012355 -0.256235
-0.356175 0.0275772 -0.255403
-0.345162 -0.0198764 -0.251468
-0.344256 -0.0165533 -0.25173
-0.343466 -0.0096388 -0.251726
-0.340316 -0.00717656 -0.250908
-0.341044 -0.00237226 -0.250562
-0.33713 -0.00344844 -0.249942
-0.338955 0.00134711 -0.249667
-0.339657 0.00446145 -0.252012
-0.340741 0.00893573 -0.251311
-0.346182 0.0121707 -0.253057
-0.343543 0.0158255 -0.252029
-0.340294 0.0149488 -0.250224
-0.337613 0.0169987 -0.249732
-0.343626 0.0224257 -0.250856
-0.340905 -0.0197681 -0.247613
-0.336586 -0.0197996 -0.246577
-0.337212 -0.0150908 -0.248057
-0.334379 -0.0157782 -0.246039
-0.339467 -0.0114802 -0.249008
-0.333536 -0.00673028 -0.247214
-0.335849 -0.00154896 -0.247261
-0.332929 -0.000570487 -0.247037
-0.33727 0.00141415 -0.247101
-0.3338 0.00339127 -0.246346
-0.334441 0.00901088 -0.246745
-0.329424 0.00923389 -0.245075
-0.337778 0.0129339 -0.249293
-0.335973 0.0131375 -0.246698
-0.335238 0.0162109 -0.24676
-0.342048 0.0243614 -0.247231
-0.340815 0.0289902 -0.246312
-0.349572 0.0340389 -0.249234
-0.367052 0.0515307 -0.248912
-0.329995 -0.0151436 -0.2436
-0.324431 -0.014206 -0.241815
-0.329686 -0.00810461 -0.242211
-0.329068 -0.00380878 -0.245965
-0.326493 -0.00405269 -0.242288
-0.340231 -0.00119336 -0.245669
-0.334219 0.00367706 -0.24208
-0.330472 0.000577509 -0.243625
-0.326431 0.00561064 -0.243523
-0.337053 0.0117901 -0.244144
-0.332365 0.0132286 -0.244796
-0.330322 0.0172133 -0.244032
-0.3282 0.0136958 -0.241939
-0.333063 0.0216814 -0.24322
-0.335417 0.0255002 -0.244933
-0.320816 -0.017903 -0.238606
-0.314207 -0.00638998 -0.238375
-0.318882 0.0034213 -0.239305
-0.315523 0.00567031 -0.237918
-0.316557 0.00867566 -0.239046
-0.322999 0.0131007 -0.240376
-0.328855 0.0192452 -0.240748
-0.324427 0.0177726 -0.241191
-0.321961 0.0200885 -0.239694
-0.323822 0.0226356 -0.239977
-0.313857 -0.0171316 -0.235793
-0.315584 -0.0101554 -0.237619
-0.308859 0.00216601 -0.236246
-0.307628 0.00587168 -0.235494
-0.305473 0.00382276 -0.234714
-0.311424 0.00752542 -0.2367
-0.310715 0.0110528 -0.235277
-0.306686 0.0118298 -0.234714
-0.307285 0.0147601 -0.234606
-0.315171 0.0216859 -0.236545
-0.313985 0.00451004 -0.234434
-0.299916 0.00695028 -0.232172
-0.31443 0.0092655 -0.231941
-0.302325 0.00945203 -0.23303
-0.306582 0.0180672 -0.233059
-0.298369 -0.0185717 -0.230252
-0.289767 -0.00539879 -0.228132
-0.291213 0.00112487 -0.227788
-0.295144 0.00413368 -0.230339
-0.291498 0.00637083 -0.227575
-0.300323 0.0122761 -0.230899
-0.292244 0.0106197 -0.228702
-0.317391 0.0159822 -0.229254
-0.294281 0.0140866 -0.229309
-0.29336 0.0181715 -0.22813
-0.307501 -0.0415582 -0.227017
-0.298325 -0.031311 -0.225944
-0.284344 -0.00129915 -0.224899
-0.287323 0.00333625 -0.227091
-0.286869 0.00656103 -0.226693
-0.288619 0.0104684 -0.226095
-0.289586 0.0157334 -0.22593
-0.28298 -0.0134268 -0.223503
-0.274392 -0.0114942 -0.221193
-0.278044 -0.00970003 -0.22183
-0.274468 -0.00590323 -0.221662
-0.27402 -0.00161422 -0.221557
-0.276266 0.00200035 -0.221443
-0.271886 0.00356514 -0.220374
-0.279549 0.00564664 -0.223672
-0.276073 0.0070216 -0.221094
-0.293689 0.0404384 -0.222004
-0.276307 -0.0320308 -0.217949
-0.27419 -0.0219072 -0.218486
-0.269728 -0.00496169 -0.219695
-0.271019 -0.000136187 -0.219126
-0.268109 0.00485854 -0.218922
-0.268136 0.00883338 -0.218738
-0.271598 0.0175913 -0.219136
-0.264904 0.0150973 -0.216733
-0.262181 -0.0193867 -0.215066
-0.26482 -0.0164577 -0.216611
-0.263645 -0.0129529 -0.216518
-0.255928 -0.0118762 -0.213403
-0.261169 -0.0039764 -0.216124
-0.2595 -0.00673585 -0.215262
-0.256748 -0.00152832 -0.214365
-0.258142 0.00228797 -0.214834
-0.262686 0.00576248 -0.216604
-0.26006 0.0168484 -0.213343
-0.260277 0.0262424 -0.212864
-0.249799 0.00210361 -0.211311
-0.246706 0.00217684 -0.209996
-0.255387 0.0230218 -0.211531
-0.266153 0.0287175 -0.211108
-0.262025 0.0346696 -0.211277
-0.249265 -0.0211046 -0.209205
-0.240396 -0.0140248 -0.206669
-0.240463 -0.000228167 -0.207443
-0.246823 0.00681385 -0.208783
-0.241016 0.00983528 -0.207313
-0.248024 0.0243145 -0.208281
-0.249712 0.030057 -0.206346
-0.255995 0.0336788 -0.209086
-0.23738 -0.0104391 -0.204503
-0.232361 -0.00729487 -0.202632
-0.233779 0.00613289 -0.203335
-0.236826 0.00750904 -0.205641
-0.236536 0.0113368 -0.204229
-0.234891 0.0150221 -0.204124
-0.240572 0.0213125 -0.205624
-0.267671 0.0552545 -0.204058
-0.237345 -0.0341103 -0.20025
-0.231675 -0.0201506 -0.202088
-0.224793 -0.0203315 -0.199235
-0.225806 -0.0118921 -0.200593
-0.221524 -0.00897971 -0.199019
-0.224948 -0.00328151 -0.200914
-0.227457 -0.00130641 -0.201939
-0.229797 0.00241564 -0.201778
-0.224997 0.00031807 -0.200845
-0.228356 0.00611099 -0.200848
-0.227401 0.0112245 -0.200373
-0.236887 0.0301098 -0.202131
-0.244514 -0.0525193 -0.197103
-0.220284 -0.0144379 -0.196924
-0.221418 -0.00374829 -0.199431
-0.217748 -0.00485882 -0.196747
-0.227869 0.000830624 -0.198639
-0.215817 -0.00114947 -0.196263
-0.237809 0.00179671 -0.197809
-0.221768 0.000144577 -0.198405
-0.215572 0.00363525 -0.196828
-0.239045 0.041982 -0.198253
-0.227008 -0.0441806 -0.193572
-0.211686 -0.0151147 -0.194321
-0.213091 -0.011369 -0.194222
-0.207309 -0.0108829 -0.192886
-0.206698 -0.00693946 -0.191963
-0.211811 0.00159276 -0.195014
-0.208197 0.00503951 -0.193698
-0.208218 0.0094886 -0.192415
-0.24587 0.0132739 -0.195115
-0.205135 0.0147033 -0.191477
-0.229671 0.01945 -0.194245
[...]
POINT_DATA 824
VECTORS i float
0.0 0.0 0.0
0.0 0.0 0.0
0.0 0.0 0.0
0.0 0.0 0.0
0.0 0.0 0.0
0.0 0.0 0.0
0.0 0.0 0.0
0.0 0.0 0.0
0.0 0.0 0.0
0.0 0.0 0.0
0.0 0.0 0.0
0.0 0.0 0.0
0.0 0.0 0.0
0.0 0.0 0.0
0.0 0.0 0.0
0.0 0.0 0.0
0.0 0.0 0.0
0.0 0.0 0.0
0.0 0.0 0.0
0.0 0.0 0.0
0.0 0.0 0.0
0.0 0.0 0.0
0.0 0.0 0.0
0.0 0.0 0.0
0.0 0.0 0.0
0.0 0.0 0.0
0.0 0.0 0.0
0.0 0.0 0.0
0.0 0.0 0.0
0.0 0.0 0.0
0.0 0.0 0.0
0.0 0.0 0.0
0.0 0.0 0.0
0.0 0.0 0.0
0.0 0.0 0.0
0.0 0.0 0.0
0.0 0.0 0.0
0.0 0.0 0.0
0.0 0.0 0.0
0.0 0.0 0.0
0.0 0.0 0.0
0.0 0.0 0.0
0.0 0.0 0.0
0.0 0.0 0.0
0.0 0.0 0.0
0.0 0.0 0.0
0.0 0.0 0.0
0.0 0.0 0.0
0.0 0.0 0.0
0.0 0.0 0.0
0.0 0.0 0.0
0.0 0.0 0.0
0.0 0.0 0.0
0.0 0.0 0.0
0.0 0.0 0.0
0.0 0.0 0.0
0.0 0.0 0.0
0.0 0.0 0.0
0.0 0.0 0.0
0.0 0.0 0.0
0.0 0.0 0.0
0.0 0.0 0.0
0.0 0.0 0.0
0.0 0.0 0.0
0.0 0.0 0.0
0.0 0.0 0.0
0.0 0.0 0.0
0.0 0.0 0.0
0.0 0.0 0.0
0.0 0.0 0.0
0.0 0.0 0.0
0.0 0.0 0.0
0.0 0.0 0.0
0.0 0.0 0.0
0.0 0.0 0.0
0.0 0.0 0.0
0.0 0.0 0.0
0.0 0.0 0.0
0.0 0.0 0.0
0.0 0.0 0.0
0.0 0.0 0.0
0.0 0.0 0.0
0.0 0.0 0.0
0.0 0.0 0.0
0.0 0.0 0.0
0.0 0.0 0.0
0.0 0.0 0.0
0.0 0.0 0.0
0.0 0.0 0.0
0.0 0.0 0.0
0.0 0.0 0.0
0.0 0.0 0.0
0.0 0.0 0.0
0.0 0.0 0.0
0.0 0.0 0.0
0.0 0.0 0.0
0.0 0.0 0.0
0.0 0.0 0.0
0.0 0.0 0.0
0.0 0.0 0.0
0.0 0.0 0.0
0.0 0.0 0.0
0.0 0.0 0.0
0.0 0.0 0.0
0.0 0.0 0.0
0.0 0.0 0.0
0.0 0.0 0.0
0.0 0.0 0.0
0.0 0.0 0.0
0.0 0.0 0.0
0.0 0.0 0.0
0.0 0.0 0.0
0.0 0.0 0.0
0.0 0.0 0.0
0.0 0.0 0.0
0.0 0.0 0.0
0.0 0.0 0.0
0.0 0.0 0.0
0.0 0.0 0.0
0.0 0.0 0.0
0.0 0.0 0.0
0.0 0.0 0.0
0.0 0.0 0.0
0.0 0.0 0.0
0.0 0.0 0.0
0.0 0.0 0.0
0.0 0.0 0.0
0.0 0.0 0.0
0.0 0.0 0.0
0.0 0.0 0.0
0.0 0.0 0.0
0.0 0.0 0.0
0.0 0.0 0.0
0.0 0.0 0.0
0.0 0.0 0.0
0.0 0.0 0.0
0.0 0.0 0.0
0.0 0.0 0.0
0.0 0.0 0.0
0.0 0.0 0.0
0.0 0.0 0.0
0.0 0.0 0.0
0.0 0.0 0.0
0.0 0.0 0.0
0.0 0.0 0.0
0.0 0.0 0.0
0.0 0.0 0.0
0.0 0.0 0.0
0.0 0.0 0.0
0.0 0.0 0.0
0.0 0.0 0.0
0.0 0.0 0.0
0.0 0.0 0.0
0.0 0.0 0.0
0.0 0.0 0.0
0.0 0.0 0.0
0.0 0.0 0.0
0.0 0.0 0.0
0.0 0.0 0.0
0.0 0.0 0.0
0.0 0.0 0.0
0.0 0.0 0.0
0.0 0.0 0.0
0.0 0.0 0.0
0.0 0.0 0.0
0.0 0.0 0.0
0.0 0.0 0.0
0.0 0.0 0.0
0.0 0.0 0.0
0.0 0.0 0.0
0.0 0.0 0.0
0.0 0.0 0.0
0.0 0.0 0.0
0.0 0.0 0.0
0.0 0.0 0.0
0.0 0.0 0.0
0.0 0.0 0.0
0.0 0.0 0.0
0.0 0.0 0.0
0.0 0.0 0.0
0.0 0.0 0.0
0.0 0.0 0.0
0.0 0.0 0.0
0.0 0.0 0.0
0.0 0.0 0.0
0.0 0.0 0.0
0.0 0.0 0.0
0.0 0.0 0.0
0.0 0.0 0.0
0.0 0.0 0.0
0.0 0.0 0.0
0.0 0.0 0.0
0.0 0.0 0.0
0.0 0.0 0.0
0.0 0.0 0.0
0.0 0.0 0.0
0.0 0.0 0.0
0.0 0.0 0.0
0.0 0.0 0.0
0.0 0.0 0.0
0.0 0.0 0.0
0.0 0.0 0.0
0.0 0.0 0.0
0.0 0.0 0.0
0.0 0.0 0.0
0.0 0.0 0.0
0.0 0.0 0.0
0.0 0.0 0.0
0.0 0.0 0.0
0.0 0.0 0.0
0.0 0.0 0.0
0.0 0.0 0.0
0.0 0.0 0.0
0.0 0.0 0.0
0.0 0.0 0.0
0.0 0.0 0.0
0.0 0.0 0.0
0.0 0.0 0.0
0.0 0.0 0.0
0.0 0.0 0.0
0.0 0.0 0.0
0.0 0.0 0.0
0.0 0.0 0.0
0.0 0.0 0.0
0.0 0.0 0.0
0.0 0.0 0.0
0.0 0.0 0.0
0.0 0.0 0.0
0.0 0.0 0.0
0.0 0.0 0.0
0.0 0.0 0.0
0.0 0.0 0.0
0.0 0.0 0.0
0.0 0.0 0.0
0.0 0.0 0.0
0.0 0.0 0.0
0.0 0.0 0.0
0.0 0.0 0.0
0.0 0.0 0.0
0.0 0.0 0.0
0.0 0.0 0.0
0.0 0.0 0.0
0.0 0.0 0.0
0.0 0.0 0.0
0.0 0.0 0.0
0.0 0.0 0.0
0.0 0.0 0.0
0.0 0.0 0.0
0.0 0.0 0.0
0.0 0.0 0.0
0.0 0.0 0.0
0.0 0.0 0.0
0.0 0.0 0.0
0.0 0.0 0.0
0.0 0.0 0.0
0.0 0.0 0.0
0.0 0.0 0.0
0.0 0.0 0.0
0.0 0.0 0.0
0.0 0.0 0.0
0.0 0.0 0.0
0.0 0.0 0.0
0.0 0.0 0.0
0.0 0.0 0.0
0.0 0.0 0.0
0.0 0.0 0.0
0.0 0.0 0.0
0.0 0.0 0.0
0.0 0.0 0.0
0.0 0.0 0.0
0.0 0.0 0.0
0.0 0.0 0.0
0.0 0.0 0.0
0.0 0.0 0.0
0.0 0.0 0.0
0.0 0.0 0.0
0.0 0.0 0.0
0.0 0.0 0.0
0.0 0.0 0.0
0.0 0.0 0.0
0.0 0.0 0.0
0.0 0.0 0.0
0.0 0.0 0.0
0.0 0.0 0.0
0.0 0.0 0.0
0.0 0.0 0.0
0.0 0.0 0.0
0.0 0.0 0.0
0.0 0.0 0.0
0.0 0.0 0.0
0.0 0.0 0.0
0.0 0.0 0.0
0.0 0.0 0.0
0.0 0.0 0.0
0.0 0.0 0.0
0.0 0.0 0.0
0.0 0.0 0.0
0.0 0.0 0.0
0.0 0.0 0.0
0.0 0.0 0.0
0.0 0.0 0.0
0.0 0.0 0.0
0.0 0.0 0.0
0.0 0.0 0.0
0.0 0.0 0.0
0.0 0.0 0.0
0.0 0.0 0.0
0.0 0.0 0.0
0.0 0.0 0.0
0.0 0.0 0.0
0.0 0.0 0.0
0.0 0.0 0.0
0.0 0.0 0.0
0.0 0.0 0.0
0.0 0.0 0.0
0.0 0.0 0.0
0.0 0.0 0.0
0.0 0.0 0.0
0.0 0.0 0.0
0.0 0.0 0.0
0.0 0.0 0.0
0.0 0.0 0.0
0.0 0.0 0.0
0.0 0.0 0.0
0.0 0.0 0.0
0.0 0.0 0.0
0.0 0.0 0.0
0.0 0.0 0.0
0.0 0.0 0.0
0.0 0.0 0.0
0.0 0.0 0.0
0.0 0.0 0.0
0.0 0.0 0.0
0.0 0.0 0.0
0.0 0.0 0.0
0.0 0.0 0.0
0.0 0.0 0.0
0.0 0.0 0.0
0.0 0.0 0.0
0.0 0.0 0.0
0.0 0.0 0.0
0.0 0.0 0.0
0.0 0.0 0.0
0.0 0.0 0.0
0.0 0.0 0.0
0.0 0.0 0.0
0.0 0.0 0.0
0.0 0.0 0.0
0.0 0.0 0.0
0.0 0.0 0.0
0.0 0.0 0.0
0.0 0.0 0.0
0.0 0.0 0.0
0.0 0.0 0.0
0.0 0.0 0.0
0.0 0.0 0.0
0.0 0.0 0.0
0.0 0.0 0.0
0.0 0.0 0.0
0.0 0.0 0.0
0.0 0.0 0.0
0.0 0.0 0.0
0.0 0.0 0.0
0.0 0.0 0.0
0.0 0.0 0.0
0.0 0.0 0.0
0.0 0.0 0.0
0.0 0.0 0.0
0.0 0.0 0.0
0.0 0.0 0.0
0.0 0.0 0.0
0.0 0.0 0.0
0.0 0.0 0.0
0.0 0.0 0.0
0.0 0.0 0.0
0.0 0.0 0.0
0.0 0.0 0.0
0.0 0.0 0.0
0.0 0.0 0.0
0.0 0.0 0.0
0.0 0.0 0.0
0.0 0.0 0.0
0.0 0.0 0.0
0.0 0.0 0.0
0.0 0.0 0.0
0.0 0.0 0.0
0.0 0.0 0.0
0.0 0.0 0.0
0.0 0.0 0.0
0.0 0.0 0.0
0.0 0.0 0.0
0.0 0.0 0.0
0.0 0.0 0.0
0.0 0.0 0.0
0.0 0.0 0.0
0.0 0.0 0.0
0.0 0.0 0.0
0.0 0.0 0.0
0.0 0.0 0.0
0.0 0.0 0.0
0.0 0.0 0.0
0.0 0.0 0.0
0.0 0.0 0.0
0.0 0.0 0.0
0.0 0.0 0.0
0.0 0.0 0.0
0.0 0.0 0.0
0.0 0.0 0.0
0.0 0.0 0.0
0.0 0.0 0.0
0.0 0.0 0.0
0.0 0.0 0.0
0.0 0.0 0.0
0.0 0.0 0.0
0.0 0.0 0.0
0.0 0.0 0.0
0.0 0.0 0.0
0.0 0.0 0.0
0.0 0.0 0.0
0.0 0.0 0.0
0.0 0.0 0.0
0.0 0.0 0.0
0.0 0.0 0.0
0.0 0.0 0.0
0.0 0.0 0.0
0.0 0.0 0.0
0.0 0.0 0.0
0.0 0.0 0.0
0.0 0.0 0.0
0.0 0.0 0.0
0.0 0.0 0.0
0.0 0.0 0.0
0.0 0.0 0.0
0.0 0.0 0.0
0.0 0.0 0.0
0.0 0.0 0.0
0.0 0.0 0.0
0.0 0.0 0.0
0.0 0.0 0.0
0.0 0.0 0.0
0.0 0.0 0.0
0.0 0.0 0.0
0.0 0.0 0.0
0.0 0.0 0.0
0.0 0.0 0.0
0.0 0.0 0.0
0.0 0.0 0.0
0.0 0.0 0.0
0.0 0.0 0.0
0.0 0.0 0.0
0.0 0.0 0.0
0.0 0.0 0.0
0.0 0.0 0.0
0.0 0.0 0.0
0.0 0.0 0.0
0.0 0.0 0.0
0.0 0.0 0.0
0.0 0.0 0.0
0.0 0.0 0.0
0.0 0.0 0.0
0.0 0.0 0.0
0.0 0.0 0.0
0.0 0.0 0.0
0.0 0.0 0.0
0.0 0.0 0.0
0.0 0.0 0.0
0.0 0.0 0.0
0.0 0.0 0.0
0.0 0.0 0.0
0.0 0.0 0.0
0.0 0.0 0.0
0.0 0.0 0.0
0.0 0.0 0.0
0.0 0.0 0.0
0.0 0.0 0.0
0.0 0.0 0.0
0.0 0.0 0.0
0.0 0.0 0.0
0.0 0.0 0.0
0.0 0.0 0.0
0.0 0.0 0.0
0.0 0.0 0.0
0.0 0.0 0.0
0.0 0.0 0.0
0.0 0.0 0.0
0.0 0.0 0.0
0.0 0.0 0.0
0.0 0.0 0.0
0.0 0.0 0.0
0.0 0.0 0.0
0.0 0.0 0.0
0.0 0.0 0.0
0.0 0.0 0.0
0.0 0.0 0.0
0.0 0.0 0.0
0.0 0.0 0.0
0.0 0.0 0.0
0.0 0.0 0.0
0.0 0.0 0.0
0.0 0.0 0.0
0.0 0.0 0.0
0.0 0.0 0.0
0.0 0.0 0.0
0.0 0.0 0.0
0.0 0.0 0.0
0.0 0.0 0.0
0.0 0.0 0.0
0.0 0.0 0.0
0.0 0.0 0.0
0.0 0.0 0.0
0.0 0.0 0.0
0.0 0.0 0.0
0.0 0.0 0.0
0.0 0.0 0.0
0.0 0.0 0.0
0.0 0.0 0.0
0.0 0.0 0.0
0.0 0.0 0.0
0.0 0.0 0.0
0.0 0.0 0.0
0.0 0.0 0.0
0.0 0.0 0.0
0.0 0.0 0.0
0.0 0.0 0.0
0.0 0.0 0.0
0.0 0.0 0.0
0.0 0.0 0.0
0.0 0.0 0.0
0.0 0.0 0.0
0.0 0.0 0.0
0.0 0.0 0.0
0.0 0.0 0.0
0.0 0.0 0.0
0.0 0.0 0.0
0.0 0.0 0.0
0.0 0.0 0.0
0.0 0.0 0.0
0.0 0.0 0.0
0.0 0.0 0.0
0.0 0.0 0.0
0.0 0.0 0.0
0.0 0.0 0.0
0.0 0.0 0.0
0.0 0.0 0.0
0.0 0.0 0.0
0.0 0.0 0.0
0.0 0.0 0.0
0.0 0.0 0.0
0.0 0.0 0.0
0.0 0.0 0.0
0.0 0.0 0.0
0.0 0.0 0.0
0.0 0.0 0.0
0.0 0.0 0.0
0.0 0.0 0.0
0.0 0.0 0.0
0.0 0.0 0.0
0.0 0.0 0.0
0.0 0.0 0.0
0.0 0.0 0.0
0.0 0.0 0.0
0.0 0.0 0.0
0.0 0.0 0.0
0.0 0.0 0.0
0.0 0.0 0.0
0.0 0.0 0.0
0.0 0.0 0.0
0.0 0.0 0.0
0.0 0.0 0.0
0.0 0.0 0.0
0.0 0.0 0.0
0.0 0.0 0.0
0.0 0.0 0.0
0.0 0.0 0.0
0.0 0.0 0.0
0.0 0.0 0.0
0.0 0.0 0.0
0.0 0.0 0.0
0.0 0.0 0.0
0.0 0.0 0.0
0.0 0.0 0.0
0.0 0.0 0.0
0.0 0.0 0.0
0.0 0.0 0.0
0.0 0.0 0.0
0.0 0.0 0.0
0.0 0.0 0.0
0.0 0.0 0.0
0.0 0.0 0.0
0.0 0.0 0.0
0.0 0.0 0.0
0.0 0.0 0.0
0.0 0.0 0.0
0.0 0.0 0.0
0.0 0.0 0.0
0.0 0.0 0.0
0.0 0.0 0.0
0.0 0.0 0.0
0.0 0.0 0.0
0.0 0.0 0.0
0.0 0.0 0.0
0.0 0.0 0.0
0.0 0.0 0.0
0.0 0.0 0.0
0.0 0.0 0.0
0.0 0.0 0.0
0.0 0.0 0.0
0.0 0.0 0.0
0.0 0.0 0.0
0.0 0.0 0.0
0.0 0.0 0.0
0.0 0.0 0.0
0.0 0.0 0.0
0.0 0.0 0.0
0.0 0.0 0.0
0.0 0.0 0.0
0.0 0.0 0.0
0.0 0.0 0.0
0.0 0.0 0.0
0.0 0.0 0.0
0.0 0.0 0.0
0.0 0.0 0.0
0.0 0.0 0.0
0.0 0.0 0.0
0.0 0.0 0.0
0.0 0.0 0.0
0.0 0.0 0.0
0.0 0.0 0.0
0.0 0.0 0.0
0.0 0.0 0.0
0.0 0.0 0.0
0.0 0.0 0.0
0.0 0.0 0.0
0.0 0.0 0.0
0.0 0.0 0.0
0.0 0.0 0.0
0.0 0.0 0.0
0.0 0.0 0.0
0.0 0.0 0.0
0.0 0.0 0.0
0.0 0.0 0.0
0.0 0.0 0.0
0.0 0.0 0.0
0.0 0.0 0.0
0.0 0.0 0.0
0.0 0.0 0.0
0.0 0.0 0.0
0.0 0.0 0.0
0.0 0.0 0.0
0.0 0.0 0.0
0.0 0.0 0.0
0.0 0.0 0.0
0.0 0.0 0.0
0.0 0.0 0.0
0.0 0.0 0.0
0.0 0.0 0.0
0.0 0.0 0.0
0.0 0.0 0.0
0.0 0.0 0.0
0.0 0.0 0.0
0.0 0.0 0.0
0.0 0.0 0.0
0.0 0.0 0.0
0.0 0.0 0.0
0.0 0.0 0.0
0.0 0.0 0.0
0.0 0.0 0.0
0.0 0.0 0.0
0.0 0.0 0.0
0.0 0.0 0.0
0.0 0.0 0.0
0.0 0.0 0.0
0.0 0.0 0.0
0.0 0.0 0.0
0.0 0.0 0.0
0.0 0.0 0.0
0.0 0.0 0.0
0.0 0.0 0.0
0.0 0.0 0.0
0.0 0.0 0.0
0.0 0.0 0.0
0.0 0.0 0.0
0.0 0.0 0.0
0.0 0.0 0.0
0.0 0.0 0.0
0.0 0.0 0.0
0.0 0.0 0.0
0.0 0.0 0.0
0.0 0.0 0.0
0.0 0.0 0.0
0.0 0.0 0.0
0.0 0.0 0.0
0.0 0.0 0.0
0.0 0.0 0.0
0.0 0.0 0.0
0.0 0.0 0.0
0.0 0.0 0.0
0.0 0.0 0.0
0.0 0.0 0.0
0.0 0.0 0.0
0.0 0.0 0.0
0.0 0.0 0.0
0.0 0.0 0.0
0.0 0.0 0.0
0.0 0.0 0.0
0.0 0.0 0.0
0.0 0.0 0.0
0.0 0.0 0.0
0.0 0.0 0.0
0.0 0.0 0.0
0.0 0.0 0.0
0.0 0.0 0.0
0.0 0.0 0.0
0.0 0.0 0.0
0.0 0.0 0.0
0.0 0.0 0.0
0.0 0.0 0.0
0.0 0.0 0.0
0.0 0.0 0.0
0.0 0.0 0.0
0.0 0.0 0.0
0.0 0.0 0.0
0.0 0.0 0.0
0.0 0.0 0.0
0.0 0.0 0.0
0.0 0.0 0.0
0.0 0.0 0.0
0.0 0.0 0.0
0.0 0.0 0.0
0.0 0.0 0.0
0.0 0.0 0.0
0.0 0.0 0.0
0.0 0.0 0.0
0.0 0.0 0.0
0.0 0.0 0.0
0.0 0.0 0.0
0.0 0.0 0.0
0.0 0.0 0.0
0.0 0.0 0.0
0.0 0.0 0.0
0.0 0.0 0.0
0.0 0.0 0.0
0.0 0.0 0.0
0.0 0.0 0.0
0.0 0.0 0.0
0.0 0.0 0.0
0.0 0.0 0.0
0.0 0.0 0.0
0.0 0.0 0.0
0.0 0.0 0.0
0.0 0.0 0.0
0.0 0.0 0.0
0.0 0.0 0.0
0.0 0.0 0.0
0.0 0.0 0.0
0.0 0.0 0.0
0.0 0.0 0.0
0.0 0.0 0.0
0.0 0.0 0.0
0.0 0.0 0.0
0.0 0.0 0.0
0.0 0.0 0.0
0.0 0.0 0.0
0.0 0.0 0.0
0.0 0.0 0.0
0.0 0.0 0.0
0.0 0.0 0.0
0.0 0.0 0.0
0.0 0.0 0.0
0.0 0.0 0.0
0.0 0.0 0.0
0.0 0.0 0.0
0.0 0.0 0.0
0.0 0.0 0.0
0.0 0.0 0.0
0.0 0.0 0.0
0.0 0.0 0.0
0.0 0.0 0.0
0.0 0.0 0.0
0.0 0.0 0.0
0.0 0.0 0.0
0.0 0.0 0.0
0.0 0.0 0.0
0.0 0.0 0.0
0.0 0.0 0.0
0.0 0.0 0.0
0.0 0.0 0.0
0.0 0.0 0.0
0.0 0.0 0.0
0.0 0.0 0.0
0.0 0.0 0.0
0.0 0.0 0.0
0.0 0.0 0.0
0.0 0.0 0.0
0.0 0.0 0.0
0.0 0.0 0.0
0.0 0.0 0.0
0.0 0.0 0.0
0.0 0.0 0.0
0.0 0.0 0.0
0.0 0.0 0.0
0.0 0.0 0.0
0.0 0.0 0.0
0.0 0.0 0.0
0.0 0.0 0.0
0.0 0.0 0.0
0.0 0.0 0.0
0.0 0.0 0.0
0.0 0.0 0.0
0.0 0.0 0.0
0.0 0.0 0.0
0.0 0.0 0.0
0.0 0.0 0.0
0.0 0.0 0.0
0.0 0.0 0.0
0.0 0.0 0.0
0.0 0.0 0.0
0.0 0.0 0.0
0.0 0.0 0.0
0.0 0.0 0.0
0.0 0.0 0.0
0.0 0.0 0.0
0.0 0.0 0.0
0.0 0.0 0.0
VECTORS f float
0.0 0.0 0.0
0.0 0.0 0.0
0.0 0.0 0.0
0.0 0.0 0.0
0.0 0.0 0.0
0.0 0.0 -0.00160516
0.0 0.0 -0.000346714
0.0 0.0 -0.000346714
0.0 0.0 -0.00160516
0.0 0.0 -0.000346714
0.0 0.0 -0.00160516
0.0 0.0 -0.00160516
0.0 0.0 -0.00160516
0.0 0.0 -0.000346714
0.0 0.0 -0.00160516
0.0 0.0 -0.000346714
0.0 0.0 -0.000346714
0.0 0.0 -0.000346714
0.0 0.0 -0.00160516
0.0 0.0 -0.000346714
0.0 0.0 -0.000346714
0.0 0.0 -0.000346714
0.0 0.0 -0.00160516
0.0 0.0 -0.000346714
0.0 0.0 -0.000346714
0.0 0.0 -0.000346714
0.0 0.0 -0.000346714
0.0 0.0 -0.000346714
0.0 0.0 -0.000346714
0.0 0.0 -0.000346714
0.0 0.0 -0.000346714
0.0 0.0 -0.000346714
0.0 0.0 -0.000346714
0.0 0.0 -0.000346714
0.0 0.0 -0.00160516
0.0 0.0 -0.00160516
0.0 0.0 -0.00160516
0.0 0.0 -0.000346714
0.0 0.0 -0.00160516
0.0 0.0 -0.000346714
0.0 0.0 -0.00160516
0.0 0.0 -0.000346714
0.0 0.0 -0.000346714
0.0 0.0 -0.00160516
0.0 0.0 -0.000346714
0.0 0.0 -0.000346714
0.0 0.0 -0.000346714
0.0 0.0 -0.000346714
0.0 0.0 -0.00160516
0.0 0.0 -0.00160516
0.0 0.0 -0.00160516
0.0 0.0 -0.000346714
0.0 0.0 -0.00160516
0.0 0.0 -0.000346714
0.0 0.0 -0.00160516
0.0 0.0 -0.000346714
0.0 0.0 -0.000346714
0.0 0.0 -0.000346714
0.0 0.0 -0.00160516
0.0 0.0 -0.000346714
0.0 0.0 -0.00160516
0.0 0.0 -0.000346714
0.0 0.0 -0.00160516
0.0 0.0 -0.00160516
0.0 0.0 -0.000346714
0.0 0.0 -0.00160516
0.0 0.0 -0.00160516
0.0 0.0 -0.00160516
0.0 0.0 -0.000346714
0.0 0.0 -0.00160516
0.0 0.0 -0.000346714
0.0 0.0 -0.000346714
0.0 0.0 -0.00160516
0.0 0.0 -0.000346714
0.0 0.0 -0.00160516
0.0 0.0 -0.000346714
0.0 0.0 -0.00160516
0.0 0.0 -0.00160516
0.0 0.0 -0.00160516
0.0 0.0 -0.000346714
0.0 0.0 -0.000346714
0.0 0.0 -0.00160516
0.0 0.0 -0.00160516
0.0 0.0 -0.000346714
0.0 0.0 -0.000346714
0.0 0.0 -0.000346714
0.0 0.0 -0.000346714
0.0 0.0 -0.000346714
0.0 0.0 -0.00160516
0.0 0.0 -0.000346714
0.0 0.0 -0.00160516
0.0 0.0 -0.000346714
0.0 0.0 -0.000346714
0.0 0.0 -0.000346714
0.0 0.0 -0.000346714
0.0 0.0 -0.00160516
0.0 0.0 -0.000346714
0.0 0.0 -0.00160516
0.0 0.0 -0.00160516
0.0 0.0 -0.000346714
0.0 0.0 -0.00160516
0.0 0.0 -0.00160516
0.0 0.0 -0.000346714
0.0 0.0 -0.000346714
0.0 0.0 -0.000346714
0.0 0.0 -0.00160516
0.0 0.0 -0.00160516
0.0 0.0 -0.000346714
0.0 0.0 -0.00160516
0.0 0.0 -0.000346714
0.0 0.0 -0.00160516
0.0 0.0 -0.000346714
0.0 0.0 -0.000346714
0.0 0.0 -0.000346714
0.0 0.0 -0.000346714
0.0 0.0 -0.000346714
0.0 0.0 -0.000346714
0.0 0.0 -0.00160516
0.0 0.0 -0.000346714
0.0 0.0 -0.000346714
0.0 0.0 -0.000346714
0.0 0.0 -0.00160516
0.0 0.0 -0.000346714
0.0 0.0 -0.000346714
0.0 0.0 -0.000346714
0.0 0.0 -0.000346714
0.0 0.0 -0.000346714
0.0 0.0 -0.00160516
0.0 0.0 -0.000346714
0.0 0.0 -0.000346714
0.0 0.0 -0.000346714
0.0 0.0 -0.000346714
0.0 0.0 -0.00160516
0.0 0.0 -0.000346714
0.0 0.0 -0.000346714
0.0 0.0 -0.00160516
0.0 0.0 -0.000346714
0.0 0.0 -0.00160516
0.0 0.0 -0.000346714
0.0 0.0 -0.000346714
0.0 0.0 -0.00160516
0.0 0.0 -0.000346714
0.0 0.0 -0.000346714
0.0 0.0 -0.00160516
0.0 0.0 -0.000346714
0.0 0.0 -0.000346714
0.0 0.0 -0.000346714
0.0 0.0 -0.000346714
0.0 0.0 -0.000346714
0.0 0.0 -0.000346714
0.0 0.0 -0.000346714
0.0 0.0 -0.00160516
0.0 0.0 -0.000346714
0.0 0.0 -0.00160516
0.0 0.0 -0.000346714
0.0 0.0 -0.000346714
0.0 0.0 -0.000346714
0.0 0.0 -0.000346714
0.0 0.0 -0.00160516
0.0 0.0 -0.000346714
0.0 0.0 -0.000346714
0.0 0.0 -0.000346714
0.0 0.0 -0.000346714
0.0 0.0 -0.00160516
0.0 0.0 -0.000346714
0.0 0.0 -0.000346714
0.0 0.0 -0.000346714
0.0 0.0 -0.00160516
0.0 0.0 -0.000346714
0.0 0.0 -0.000346714
0.0 0.0 -0.000346714
0.0 0.0 -0.000346714
0.0 0.0 -0.00160516
0.0 0.0 -0.00160516
0.0 0.0 -0.000346714
0.0 0.0 -0.000346714
0.0 0.0 -0.000346714
0.0 0.0 -0.000346714
0.0 0.0 -0.00160516
0.0 0.0 -0.000346714
0.0 0.0 -0.000346714
0.0 0.0 -0.00160516
0.0 0.0 -0.000346714
0.0 0.0 -0.000346714
0.0 0.0 -0.00160516
0.0 0.0 -0.000346714
0.0 0.0 -0.00160516
0.0 0.0 -0.00160516
0.0 0.0 -0.000346714
0.0 0.0 -0.00160516
0.0 0.0 -0.000346714
0.0 0.0 -0.000346714
0.0 0.0 -0.00160516
0.0 0.0 -0.000346714
0.0 0.0 -0.00160516
0.0 0.0 -0.00160516
0.0 0.0 -0.000346714
-0.00485757 0.00225122 0.00845602
6.61214e-05 -1.55542e-05 -0.000484666
-0.000405988 -6.11196e-05 -0.000181746
0.000415307 0.00177665 -0.00640325
0.0 0.0 -0.000346714
0.0 0.0 -0.00160516
0.0 0.0 -0.00160516
0.0 0.0 -0.000346714
-9.25685e-05 -4.35661e-05 -2.43142e-05
0.0 0.0 -0.000346714
0.0 0.0 -0.00160516
0.0 0.0 -0.000346714
-8.83229e-05 -1.3177e-05 -3.8035e-05
-8.80683e-05 -1.31351e-05 -3.91162e-05
-9.70402e-05 -1.44499e-05 -2.4355e-05
0.0 0.0 -0.000346714
0.0 0.0 -0.000346714
-4.85384e-05 -0.000941879 3.19478e-06
-0.000301166 -0.000493681 0.00141958
-8.5559e-05 -3.98694e-05 -4.26321e-05
-0.000415307 -0.00177665 0.00445138
-8.99826e-05 -1.33188e-05 -3.03153e-05
0.0 0.0 -0.00160516
-1.46667e-05 0.000196243 0.000597785
0.0 0.0 -0.000346714
0.0 0.0 -0.000346714
-8.72863e-05 7.04584e-06 -4.13047e-05
-0.000398477 -6.01533e-05 -0.000195734
-8.79241e-05 -1.32351e-05 -3.86511e-05
-0.000412485 -6.24813e-05 -0.000174611
0.0 0.0 -0.00160516
-8.8069e-05 -1.33799e-05 -3.90208e-05
0.0 0.0 -0.00160516
-8.41826e-05 -3.93762e-05 -4.49802e-05
-0.00018743 -9.39083e-05 0.000214653
0.0 0.0 -0.000346714
0.0 0.0 -0.00160516
-0.00041094 3.25765e-05 -0.000172724
-6.60779e-05 -1.43743e-05 -9.68728e-05
-7.80099e-05 -1.38839e-05 -1.08196e-05
-0.000300366 -4.45433e-05 -0.000447117
0.000100881 5.7766e-05 -0.00154195
-0.000407106 0.000105281 -0.000182628
-8.69709e-05 2.24267e-05 -3.95063e-05
-0.000382578 9.9383e-05 -0.000201439
2.14944e-05 4.2484e-05 1.42856e-05
0.0 0.0 -0.000346714
-0.000507381 -7.45132e-05 3.21653e-05
0.0 0.0 -0.000346714
-8.61508e-05 -1.18348e-05 -3.87218e-05
-0.00608668 -0.000486725 0.0165316
0.0 0.0 -0.000346714
0.0 0.0 -0.000346714
-0.000998502 0.000400851 0.0013237
7.7774e-07 9.64096e-05 -4.53764e-06
0.0 0.0 -0.00160516
0.0 0.0 -0.000346714
-8.72391e-05 -1.02674e-05 -3.96081e-05
3.10053e-05 -3.11593e-05 8.04492e-05
-0.000126815 -4.26968e-05 -1.73461e-05
-0.000700665 0.000335315 0.00168604
-8.7735e-05 2.47835e-05 -3.98987e-05
-8.33428e-05 2.23301e-05 -5.14954e-05
2.22811e-05 1.11156e-05 8.4823e-06
-5.13092e-05 4.31047e-06 -0.000119824
0.0 0.0 -0.000346714
-0.000217192 7.24634e-05 0.000497355
2.19754e-05 -6.47875e-06 8.80614e-05
-9.31182e-05 -1.01987e-05 -3.21124e-05
-0.000626736 -0.000186435 0.000269094
-7.0412e-05 -4.1677e-05 -0.000106449
-5.63881e-05 -5.59813e-06 -0.000132633
-9.75954e-05 -9.01868e-06 -1.60952e-05
-8.60806e-05 -3.08338e-05 -4.03322e-05
0.0 0.0 -0.00160516
2.21091e-05 -3.86156e-05 -1.62099e-06
0.0 0.0 -0.000346714
-0.000986667 0.000280562 0.00311257
-9.06282e-05 -7.70128e-06 -3.60492e-05
-0.000421845 -3.90241e-05 -0.0001383
1.46436e-05 1.6884e-06 -0.000359228
-0.000160327 -2.61548e-05 -4.91505e-05
0.000109209 -0.000186496 -2.87008e-05
-3.45135e-05 -1.42178e-05 -0.000195508
0.0 0.0 -0.00160516
-0.000403948 7.54238e-05 -0.000173606
-0.000511066 -4.00847e-05 6.33425e-05
-8.79506e-05 -6.89924e-06 -3.65497e-05
-0.000661994 -0.000215618 0.000196991
-8.07093e-05 -2.56145e-05 -5.6806e-05
-8.55946e-05 -2.94464e-05 -4.03508e-05
0.0 0.0 -0.000346714
0.0 0.0 -0.00160516
-8.3805e-05 4.15166e-05 -4.27906e-05
-0.000101879 4.95348e-05 -7.79947e-06
2.18648e-05 3.13439e-05 1.2136e-05
0.0 0.0 -0.000346714
8.37206e-06 5.83919e-05 1.51537e-05
-9.0211e-05 -5.27616e-06 -3.6274e-05
-0.00618483 0.00108107 0.00620314
-0.000206432 -1.6649e-05 8.69911e-05
0.0 0.0 -0.000346714
-0.00159297 -0.000509449 0.00302297
0.000163772 0.000149411 -0.000785613
-0.00177776 0.000748444 0.00644434
-0.000430453 9.42058e-05 -0.000126472
0.011821 -0.00116798 -0.00953776
-0.000396811 8.71994e-05 -0.000191373
0.0 0.0 -0.000346714
0.0 0.0 -0.000346714
0.0 0.0 -0.000346714
-0.00072605 6.0689e-05 0.000310049
2.09723e-05 -7.69743e-06 9.74386e-06
-0.000447781 -0.000409473 -2.45029e-06
0.0 0.0 -0.000346714
-9.0468e-05 2.17619e-05 -4.30045e-05
-0.00177413 0.000368679 0.00299546
0.0 0.0 -0.000346714
-0.00039939 0.000101808 -0.000173637
0.0 0.0 -0.000346714
-8.7769e-05 -1.39182e-06 -3.65307e-05
-0.000409567 -0.000103724 -0.000187556
0.0 0.0 -0.00160516
0.0 0.0 -0.000346714
0.0 0.0 -0.00160516
0.0 0.0 -0.000346714
-0.000393139 0.000218069 -0.000210992
0.0 0.0 -0.000346714
-8.77021e-05 5.09439e-05 -2.87887e-05
-0.00150062 0.000821726 0.00199815
-8.85062e-05 2.44837e-05 -4.07753e-05
0.00214024 -0.00215421 -0.00149133
8.25152e-06 1.96922e-05 -0.00021294
0.0 0.0 -0.000346714
-8.65667e-05 2.19713e-05 -3.81867e-05
1.9403e-05 -2.20648e-05 8.507e-06
-8.96187e-05 3.6873e-07 -3.85274e-05
-8.96148e-05 3.67548e-07 -3.84594e-05
0.00170825 2.35502e-05 -0.00523871
0.0 0.0 -0.00160516
-8.66711e-05 -2.14381e-05 -3.80905e-05
0.0 0.0 -0.000346714
-0.000975643 0.0012184 -0.00184405
0.000123741 -4.41438e-05 0.000363863
-0.000438328 -0.00292701 0.0014289
0.000116044 7.31568e-05 7.92406e-05
0.000629731 0.00301072 0.000264727
-0.000113615 1.58906e-05 -0.000123735
0.0 0.0 -0.00160516
0.0 0.0 -0.00160516
0.0 0.0 -0.000346714
0.0 0.0 -0.00160516
-8.52599e-06 -1.13586e-06 -0.000220511
0.00147046 -0.00536333 0.00191164
0.000331941 6.53101e-06 -0.00213034
-0.000411037 -9.05914e-05 -0.000185147
0.0 0.0 -0.00160516
-8.553e-05 -4.29282e-05 -4.56463e-05
-0.00144918 -0.00133006 0.00276627
0.0 0.0 -0.00160516
0.0 0.0 -0.000346714
4.57428e-06 2.9781e-05 -0.00024644
-3.82964e-05 1.06044e-05 -0.000149497
0.0 0.0 -0.000346714
2.0606e-05 -4.53426e-05 0.00010872
-0.000130245 4.38861e-06 6.58921e-05
1.43373e-05 -2.51316e-07 -0.000279074
-8.81227e-05 3.95978e-06 -3.7083e-05
0.0 0.0 -0.00160516
-8.70852e-05 3.10736e-06 -3.95039e-05
-8.81583e-05 3.96175e-06 -3.69824e-05
-0.000693582 3.743e-05 0.00110263
0.000189264 5.23828e-05 -0.000716841
-7.38046e-05 -3.69665e-05 -6.76203e-05
-0.000113205 -0.000100915 4.26807e-05
-0.00113563 0.000653792 0.00109707
1.8427e-05 -1.26856e-05 -0.000296672
0.0 0.0 -0.000346714
-8.89448e-05 1.74521e-05 -3.95036e-05
0.0 0.0 -0.000346714
-8.92797e-05 4.01462e-06 -3.43532e-05
-8.89375e-05 -1.77634e-05 -3.96732e-05
0.0 0.0 -0.00160516
0.000123168 -0.000175555 -0.000708449
-7.28369e-05 8.61955e-05 -6.68874e-05
-0.000694323 0.000284809 0.000317819
-7.68938e-05 4.20304e-05 -5.47537e-05