# vtk DataFile Version 2.0
Generated by lpp.py
ASCII
DATASET POLYDATA
POINTS 793 float
-0.034281 0.0210612 0.0541859
-0.0080272 0.0132344 0.0530411
-0.0343098 0.0280673 0.0554819
-0.0217978 -0.0317125 0.0550848
-0.0163926 0.0332374 0.0512081
-0.0272337 -0.0100453 0.0513567
-0.0311912 -0.00567439 0.0519267
-0.488351 -0.019079 -0.398417
-0.485208 -0.000777551 -0.394037
-0.473788 0.0246434 -0.394178
-0.492578 -0.00211076 -0.391138
-0.475429 -0.0122031 -0.385837
-0.451904 -0.0457495 -0.382576
-0.475662 0.00600645 -0.383291
-0.455134 0.0119008 -0.385869
-0.473561 -0.0194486 -0.378637
-0.494091 -0.00660523 -0.379441
-0.463903 -0.00643108 -0.379752
-0.480787 -0.0101739 -0.376145
-0.465051 -0.00883853 -0.375774
-0.455245 -0.0180928 -0.374939
-0.458763 0.00285454 -0.374079
-0.466755 -0.00979173 -0.370957
-0.454037 -0.0102461 -0.368727
-0.468364 -0.0145162 -0.365849
-0.463697 -0.0150143 -0.368041
-0.457805 -0.0123869 -0.366606
-0.465753 0.00851674 -0.366523
-0.4651 -0.0050285 -0.361311
-0.459393 0.0152163 -0.362284
-0.447019 -0.00396477 -0.357175
-0.461206 -0.0106698 -0.353686
-0.452751 0.00137635 -0.35666
-0.432838 0.00853513 -0.355676
-0.458064 0.0221885 -0.355562
-0.457552 -0.00463011 -0.351014
-0.447076 0.0186828 -0.351343
-0.432187 0.00471981 -0.346793
-0.426147 -0.0180372 -0.343287
-0.425559 0.00348922 -0.340124
-0.419244 0.0174666 -0.341741
-0.430196 0.00265065 -0.334592
-0.422377 -0.00828742 -0.327462
-0.435806 -0.000540792 -0.328369
-0.4181 0.00286076 -0.330025
-0.433724 0.00936535 -0.330491
-0.423352 0.0194034 -0.330215
-0.426626 -0.0299704 -0.325914
-0.426278 -0.00312998 -0.325058
-0.425818 0.00513422 -0.327045
-0.421224 -0.000492664 -0.322344
-0.416026 0.00704647 -0.323095
-0.425195 -0.00154775 -0.318872
-0.414781 -0.00128553 -0.319622
-0.405881 0.00718248 -0.319393
-0.417251 -0.00594664 -0.314172
-0.420945 0.00365534 -0.314936
-0.393094 0.0154659 -0.314222
-0.399582 0.00291578 -0.311912
-0.415159 -0.029865 -0.307763
-0.41081 -0.00495566 -0.306236
-0.411097 0.0163051 -0.307624
-0.41973 -0.0301684 -0.30544
-0.400063 -0.0048326 -0.302174
-0.413724 0.0282068 -0.301759
-0.407126 -0.0230741 -0.296369
-0.390668 -0.0113547 -0.296944
-0.393663 -0.00374517 -0.295383
-0.394275 0.00626608 -0.295037
-0.395824 0.0129454 -0.290437
-0.400659 0.0181066 -0.293022
-0.37806 -0.0283946 -0.289373
-0.39055 -0.0167787 -0.290176
-0.389026 -0.0126403 -0.287348
-0.380972 -0.002281 -0.289546
-0.382116 0.00136334 -0.289606
-0.391162 0.0158177 -0.289692
-0.400002 0.0405205 -0.293213
-0.386941 -0.00422026 -0.284966
-0.389566 0.0045302 -0.286979
-0.379907 0.00437999 -0.284636
-0.390189 0.014194 -0.284946
-0.375891 -0.0261944 -0.280008
-0.379509 -0.0188225 -0.281298
-0.371055 -0.00756656 -0.281878
-0.368049 -0.0076676 -0.280698
-0.381662 -0.00727574 -0.281639
-0.379633 -0.00151546 -0.280491
-0.375218 0.000706789 -0.280403
-0.394445 0.0304666 -0.280824
-0.397438 0.0355269 -0.282228
-0.380492 -0.0147894 -0.276638
-0.370015 -0.0128467 -0.276784
-0.368136 -0.00403377 -0.277103
-0.372773 0.00365916 -0.276181
-0.376291 0.0056701 -0.27652
-0.368432 0.00748242 -0.278
-0.383973 -0.018577 -0.272029
-0.367974 -0.0115125 -0.271876
-0.368438 -0.00804668 -0.274279
-0.374108 -0.00124701 -0.273365
-0.429629 0.00308387 -0.273715
-0.374279 0.00785495 -0.272288
-0.373136 0.01553 -0.272228
-0.377178 -0.022194 -0.270008
-0.356613 -0.0199424 -0.268935
-0.363334 -0.0146957 -0.266407
-0.356791 -0.00143243 -0.264731
-0.371408 0.00329031 -0.267737
-0.364119 0.00382436 -0.265539
-0.360176 0.000495292 -0.265526
-0.369992 0.027061 -0.267991
-0.371075 0.0331615 -0.267714
-0.358769 -0.00429982 -0.262366
-0.358958 0.00310975 -0.261216
-0.364233 0.0285169 -0.261351
-0.368658 0.0431418 -0.264476
-0.360295 -0.0149922 -0.258803
-0.354141 0.00249284 -0.259772
-0.356117 0.0288074 -0.258343
-0.366644 0.0402798 -0.257821
-0.343817 0.00603655 -0.254598
-0.345075 0.0136865 -0.253371
-0.351675 0.0189306 -0.254326
-0.355938 0.0218515 -0.256375
-0.361676 0.0329318 -0.256125
-0.34227 -0.0107203 -0.251439
-0.340897 -0.00571972 -0.250078
-0.336912 -0.00486384 -0.249019
-0.342617 0.00260474 -0.251953
-0.337339 0.00180188 -0.249509
-0.336398 0.00572701 -0.250369
-0.339203 0.00769677 -0.250359
-0.339258 0.0112873 -0.250119
-0.337727 -0.0103368 -0.24738
-0.33454 -0.00643532 -0.247312
-0.335948 -0.0022257 -0.24683
-0.332504 -0.000489325 -0.245456
-0.339778 0.00464433 -0.246491
-0.33471 0.00368512 -0.247953
-0.332429 0.00545839 -0.247003
-0.337522 0.00950541 -0.248416
-0.33433 0.0102039 -0.246994
-0.347619 0.0349236 -0.246548
-0.367031 0.0499797 -0.25045
-0.338449 -0.0294599 -0.244478
-0.323624 -0.0223822 -0.239936
-0.315166 -0.0109175 -0.238333
-0.317128 -0.00550191 -0.23853
-0.322225 -0.000706392 -0.240893
-0.316803 0.00112212 -0.239633
-0.312733 0.00230097 -0.237869
-0.321291 0.00435493 -0.240265
-0.315824 0.00392779 -0.238757
-0.322798 0.00782929 -0.241763
-0.317804 0.00882101 -0.239593
-0.321003 0.0128629 -0.239603
-0.319361 -0.0247859 -0.237708
-0.317469 -0.027652 -0.235977
-0.315639 -0.0233306 -0.236437
-0.312844 -0.0230013 -0.235363
-0.312942 -0.0170421 -0.236571
-0.316206 -0.0148526 -0.237201
-0.312496 -0.0126839 -0.236922
-0.313009 -0.00804221 -0.237767
-0.309212 -0.00675122 -0.236285
-0.310989 -0.00279945 -0.236091
-0.31405 0.0158382 -0.236116
-0.318508 0.0177767 -0.237602
-0.324586 -0.0386862 -0.235161
-0.310604 -0.0191096 -0.234116
-0.29928 -0.0150993 -0.231259
-0.297883 -0.00757305 -0.231479
-0.307187 0.00848215 -0.234059
-0.307995 0.0184924 -0.233073
-0.309003 -0.0333729 -0.230722
-0.303212 -0.0225453 -0.230237
-0.295168 -0.012506 -0.22873
-0.295174 -0.00649575 -0.230374
-0.303663 0.0153237 -0.230511
-0.291432 0.0153989 -0.227867
-0.298356 0.0203753 -0.229783
-0.30329 -0.0358213 -0.227498
-0.291469 -0.0292276 -0.22484
-0.287299 -0.0210935 -0.225195
-0.283751 -0.0158309 -0.224611
-0.2865 -0.0129394 -0.225036
-0.282125 -0.0128317 -0.224297
-0.28607 -0.00793083 -0.226485
-0.283103 -0.00142734 -0.224134
-0.284678 0.0021316 -0.226005
-0.287199 0.00614115 -0.226859
-0.283242 0.00884277 -0.223934
-0.281967 0.0140483 -0.224123
-0.290068 0.0210459 -0.226236
-0.305075 -0.0451953 -0.224286
-0.279751 -0.0262796 -0.220985
-0.278493 -0.0172097 -0.22115
-0.279008 -0.00993975 -0.223298
-0.275935 -0.0134573 -0.221626
-0.276245 -0.00785944 -0.222345
-0.273466 -0.00642798 -0.221223
-0.277805 0.000620534 -0.220473
-0.280717 0.00331448 -0.223224
-0.279133 0.0076157 -0.223388
-0.276316 0.00806469 -0.220442
-0.281876 0.0177827 -0.223412
-0.276472 0.0176487 -0.221119
-0.286967 0.0283904 -0.223307
-0.270074 -0.0224781 -0.217749
-0.272638 -0.0188215 -0.218417
-0.268501 -0.0153747 -0.217193
-0.265387 -0.0118288 -0.217365
-0.269247 -0.00660548 -0.219428
-0.266567 -0.00409743 -0.217303
-0.265839 -0.000226372 -0.218224
-0.262845 -0.00225826 -0.216903
-0.272495 0.00119325 -0.219895
-0.262585 0.00157059 -0.216758
-0.262667 0.00705567 -0.216535
-0.264883 0.00944778 -0.217346
-0.270706 0.0108548 -0.219713
-0.26809 0.0135946 -0.218316
-0.268532 0.0212544 -0.21729
-0.290643 -0.0487365 -0.216904
-0.282392 -0.0444899 -0.215642
-0.275719 -0.0388685 -0.215403
-0.259446 -0.022693 -0.213157
-0.26184 -0.0181437 -0.21515
-0.263969 -0.0147931 -0.214639
-0.25479 -0.0105397 -0.213087
-0.261198 -0.00568162 -0.216068
-0.258368 -0.00578366 -0.214864
-0.254831 -0.00747383 -0.2133
-0.259678 -0.00192877 -0.214492
-0.255763 0.00889183 -0.21354
-0.28572 0.0428834 -0.216486
-0.281691 -0.051262 -0.211938
-0.266548 -0.0390709 -0.210424
-0.250049 -0.0150576 -0.210458
-0.252264 -0.0118699 -0.211874
-0.251039 -0.00769336 -0.211683
-0.248544 -0.00502919 -0.209675
-0.254113 0.00262393 -0.21204
-0.252937 0.0164395 -0.211493
-0.246493 -0.0226714 -0.207806
-0.239845 -0.0186461 -0.205758
-0.246915 -0.0135666 -0.208249
-0.242738 -0.0148456 -0.207479
-0.246081 -0.00913688 -0.209509
-0.244086 0.00990343 -0.2086
-0.244698 0.0137853 -0.207329
-0.24893 0.0189035 -0.208369
-0.25967 0.0228534 -0.209963
-0.269025 0.0512419 -0.207116
-0.238924 -0.025887 -0.202915
-0.235078 -0.0168613 -0.204076
-0.232483 -0.0152498 -0.203148
-0.239892 -0.0129111 -0.205368
-0.235999 -0.0139981 -0.204658
-0.237421 -0.0100315 -0.202694
-0.22938 -0.000486896 -0.202707
-0.240358 -0.0309721 -0.202345
-0.234456 -0.0253218 -0.202178
-0.230416 -0.0196626 -0.200575
-0.229989 -0.0130983 -0.202274
-0.240473 -0.00844648 -0.202732
-0.223822 -0.00512396 -0.200331
-0.2281 -0.00328787 -0.202259
-0.224168 -0.00197687 -0.200548
-0.221071 -0.00159688 -0.19923
-0.228667 0.00642274 -0.201179
-0.233807 0.0085797 -0.201106
-0.223572 0.00741321 -0.19901
-0.226944 0.0135482 -0.200965
-0.245198 0.0424748 -0.200495
-0.238771 0.0398191 -0.200117
-0.221232 -0.0258322 -0.196567
-0.224972 -0.0249781 -0.198345
-0.221284 -0.0155575 -0.198307
-0.218335 -0.0140985 -0.196
-0.225976 -0.00868608 -0.197833
-0.219297 0.00148679 -0.197352
-0.214667 -0.000109298 -0.195398
-0.217955 0.00691422 -0.197764
-0.223794 0.0193981 -0.198619
-0.220369 0.0192284 -0.195294
-0.265787 -0.0656929 -0.196318
-0.228282 -0.041976 -0.193864
-0.212445 -0.0174375 -0.193314
-0.210891 -0.013559 -0.194147
-0.207654 -0.0131899 -0.19277
-0.211713 -0.00744965 -0.195093
-0.204049 -0.00632479 -0.192002
-0.204773 -0.00139656 -0.192319
-0.211481 0.0193231 -0.192685
-0.213422 0.0250548 -0.193595
-0.218757 0.0324818 -0.194095
-0.222148 0.0371713 -0.193153
-0.209876 -0.0210846 -0.190468
-0.200262 -0.0192239 -0.189043
-0.202306 -0.0149563 -0.189303
-0.201651 -0.00408522 -0.190977
-0.200641 -0.00538707 -0.188335
-0.23618 -0.000497674 -0.189691
-0.201672 5.82874e-05 -0.189913
-0.203807 0.0055088 -0.190788
-0.197793 0.00425974 -0.189296
-0.199762 0.00901751 -0.188861
-0.208612 0.0233267 -0.190845
-0.204447 0.0232199 -0.190244
-0.204659 -0.0329645 -0.188081
-0.199754 -0.0280622 -0.187231
-0.19871 -0.0240031 -0.186175
-0.197073 0.000403488 -0.187787
-0.198268 0.0140966 -0.187724
-0.194391 0.0158639 -0.187025
-0.19507 -0.0287668 -0.184058
-0.186368 -0.0257145 -0.182009
-0.195609 -0.0204891 -0.184112
-0.187665 -0.0157604 -0.184143
[...]
POINT_DATA 793
VECTORS i float
0.0 0.0 0.0
0.0 0.0 0.0
0.0 0.0 0.0
0.0 0.0 0.0
0.0 0.0 0.0
0.0 0.0 0.0
0.0 0.0 0.0
0.0 0.0 0.0
0.0 0.0 0.0
0.0 0.0 0.0
0.0 0.0 0.0
0.0 0.0 0.0
0.0 0.0 0.0
0.0 0.0 0.0
0.0 0.0 0.0
0.0 0.0 0.0
0.0 0.0 0.0
0.0 0.0 0.0
0.0 0.0 0.0
0.0 0.0 0.0
0.0 0.0 0.0
0.0 0.0 0.0
0.0 0.0 0.0
0.0 0.0 0.0
0.0 0.0 0.0
0.0 0.0 0.0
0.0 0.0 0.0
0.0 0.0 0.0
0.0 0.0 0.0
0.0 0.0 0.0
0.0 0.0 0.0
0.0 0.0 0.0
0.0 0.0 0.0
0.0 0.0 0.0
0.0 0.0 0.0
0.0 0.0 0.0
0.0 0.0 0.0
0.0 0.0 0.0
0.0 0.0 0.0
0.0 0.0 0.0
0.0 0.0 0.0
0.0 0.0 0.0
0.0 0.0 0.0
0.0 0.0 0.0
0.0 0.0 0.0
0.0 0.0 0.0
0.0 0.0 0.0
0.0 0.0 0.0
0.0 0.0 0.0
0.0 0.0 0.0
0.0 0.0 0.0
0.0 0.0 0.0
0.0 0.0 0.0
0.0 0.0 0.0
0.0 0.0 0.0
0.0 0.0 0.0
0.0 0.0 0.0
0.0 0.0 0.0
0.0 0.0 0.0
0.0 0.0 0.0
0.0 0.0 0.0
0.0 0.0 0.0
0.0 0.0 0.0
0.0 0.0 0.0
0.0 0.0 0.0
0.0 0.0 0.0
0.0 0.0 0.0
0.0 0.0 0.0
0.0 0.0 0.0
0.0 0.0 0.0
0.0 0.0 0.0
0.0 0.0 0.0
0.0 0.0 0.0
0.0 0.0 0.0
0.0 0.0 0.0
0.0 0.0 0.0
0.0 0.0 0.0
0.0 0.0 0.0
0.0 0.0 0.0
0.0 0.0 0.0
0.0 0.0 0.0
0.0 0.0 0.0
0.0 0.0 0.0
0.0 0.0 0.0
0.0 0.0 0.0
0.0 0.0 0.0
0.0 0.0 0.0
0.0 0.0 0.0
0.0 0.0 0.0
0.0 0.0 0.0
0.0 0.0 0.0
0.0 0.0 0.0
0.0 0.0 0.0
0.0 0.0 0.0
0.0 0.0 0.0
0.0 0.0 0.0
0.0 0.0 0.0
0.0 0.0 0.0
0.0 0.0 0.0
0.0 0.0 0.0
0.0 0.0 0.0
0.0 0.0 0.0
0.0 0.0 0.0
0.0 0.0 0.0
0.0 0.0 0.0
0.0 0.0 0.0
0.0 0.0 0.0
0.0 0.0 0.0
0.0 0.0 0.0
0.0 0.0 0.0
0.0 0.0 0.0
0.0 0.0 0.0
0.0 0.0 0.0
0.0 0.0 0.0
0.0 0.0 0.0
0.0 0.0 0.0
0.0 0.0 0.0
0.0 0.0 0.0
0.0 0.0 0.0
0.0 0.0 0.0
0.0 0.0 0.0
0.0 0.0 0.0
0.0 0.0 0.0
0.0 0.0 0.0
0.0 0.0 0.0
0.0 0.0 0.0
0.0 0.0 0.0
0.0 0.0 0.0
0.0 0.0 0.0
0.0 0.0 0.0
0.0 0.0 0.0
0.0 0.0 0.0
0.0 0.0 0.0
0.0 0.0 0.0
0.0 0.0 0.0
0.0 0.0 0.0
0.0 0.0 0.0
0.0 0.0 0.0
0.0 0.0 0.0
0.0 0.0 0.0
0.0 0.0 0.0
0.0 0.0 0.0
0.0 0.0 0.0
0.0 0.0 0.0
0.0 0.0 0.0
0.0 0.0 0.0
0.0 0.0 0.0
0.0 0.0 0.0
0.0 0.0 0.0
0.0 0.0 0.0
0.0 0.0 0.0
0.0 0.0 0.0
0.0 0.0 0.0
0.0 0.0 0.0
0.0 0.0 0.0
0.0 0.0 0.0
0.0 0.0 0.0
0.0 0.0 0.0
0.0 0.0 0.0
0.0 0.0 0.0
0.0 0.0 0.0
0.0 0.0 0.0
0.0 0.0 0.0
0.0 0.0 0.0
0.0 0.0 0.0
0.0 0.0 0.0
0.0 0.0 0.0
0.0 0.0 0.0
0.0 0.0 0.0
0.0 0.0 0.0
0.0 0.0 0.0
0.0 0.0 0.0
0.0 0.0 0.0
0.0 0.0 0.0
0.0 0.0 0.0
0.0 0.0 0.0
0.0 0.0 0.0
0.0 0.0 0.0
0.0 0.0 0.0
0.0 0.0 0.0
0.0 0.0 0.0
0.0 0.0 0.0
0.0 0.0 0.0
0.0 0.0 0.0
0.0 0.0 0.0
0.0 0.0 0.0
0.0 0.0 0.0
0.0 0.0 0.0
0.0 0.0 0.0
0.0 0.0 0.0
0.0 0.0 0.0
0.0 0.0 0.0
0.0 0.0 0.0
0.0 0.0 0.0
0.0 0.0 0.0
0.0 0.0 0.0
0.0 0.0 0.0
0.0 0.0 0.0
0.0 0.0 0.0
0.0 0.0 0.0
0.0 0.0 0.0
0.0 0.0 0.0
0.0 0.0 0.0
0.0 0.0 0.0
0.0 0.0 0.0
0.0 0.0 0.0
0.0 0.0 0.0
0.0 0.0 0.0
0.0 0.0 0.0
0.0 0.0 0.0
0.0 0.0 0.0
0.0 0.0 0.0
0.0 0.0 0.0
0.0 0.0 0.0
0.0 0.0 0.0
0.0 0.0 0.0
0.0 0.0 0.0
0.0 0.0 0.0
0.0 0.0 0.0
0.0 0.0 0.0
0.0 0.0 0.0
0.0 0.0 0.0
0.0 0.0 0.0
0.0 0.0 0.0
0.0 0.0 0.0
0.0 0.0 0.0
0.0 0.0 0.0
0.0 0.0 0.0
0.0 0.0 0.0
0.0 0.0 0.0
0.0 0.0 0.0
0.0 0.0 0.0
0.0 0.0 0.0
0.0 0.0 0.0
0.0 0.0 0.0
0.0 0.0 0.0
0.0 0.0 0.0
0.0 0.0 0.0
0.0 0.0 0.0
0.0 0.0 0.0
0.0 0.0 0.0
0.0 0.0 0.0
0.0 0.0 0.0
0.0 0.0 0.0
0.0 0.0 0.0
0.0 0.0 0.0
0.0 0.0 0.0
0.0 0.0 0.0
0.0 0.0 0.0
0.0 0.0 0.0
0.0 0.0 0.0
0.0 0.0 0.0
0.0 0.0 0.0
0.0 0.0 0.0
0.0 0.0 0.0
0.0 0.0 0.0
0.0 0.0 0.0
0.0 0.0 0.0
0.0 0.0 0.0
0.0 0.0 0.0
0.0 0.0 0.0
0.0 0.0 0.0
0.0 0.0 0.0
0.0 0.0 0.0
0.0 0.0 0.0
0.0 0.0 0.0
0.0 0.0 0.0
0.0 0.0 0.0
0.0 0.0 0.0
0.0 0.0 0.0
0.0 0.0 0.0
0.0 0.0 0.0
0.0 0.0 0.0
0.0 0.0 0.0
0.0 0.0 0.0
0.0 0.0 0.0
0.0 0.0 0.0
0.0 0.0 0.0
0.0 0.0 0.0
0.0 0.0 0.0
0.0 0.0 0.0
0.0 0.0 0.0
0.0 0.0 0.0
0.0 0.0 0.0
0.0 0.0 0.0
0.0 0.0 0.0
0.0 0.0 0.0
0.0 0.0 0.0
0.0 0.0 0.0
0.0 0.0 0.0
0.0 0.0 0.0
0.0 0.0 0.0
0.0 0.0 0.0
0.0 0.0 0.0
0.0 0.0 0.0
0.0 0.0 0.0
0.0 0.0 0.0
0.0 0.0 0.0
0.0 0.0 0.0
0.0 0.0 0.0
0.0 0.0 0.0
0.0 0.0 0.0
0.0 0.0 0.0
0.0 0.0 0.0
0.0 0.0 0.0
0.0 0.0 0.0
0.0 0.0 0.0
0.0 0.0 0.0
0.0 0.0 0.0
0.0 0.0 0.0
0.0 0.0 0.0
0.0 0.0 0.0
0.0 0.0 0.0
0.0 0.0 0.0
0.0 0.0 0.0
0.0 0.0 0.0
0.0 0.0 0.0
0.0 0.0 0.0
0.0 0.0 0.0
0.0 0.0 0.0
0.0 0.0 0.0
0.0 0.0 0.0
0.0 0.0 0.0
0.0 0.0 0.0
0.0 0.0 0.0
0.0 0.0 0.0
0.0 0.0 0.0
0.0 0.0 0.0
0.0 0.0 0.0
0.0 0.0 0.0
0.0 0.0 0.0
0.0 0.0 0.0
0.0 0.0 0.0
0.0 0.0 0.0
0.0 0.0 0.0
0.0 0.0 0.0
0.0 0.0 0.0
0.0 0.0 0.0
0.0 0.0 0.0
0.0 0.0 0.0
0.0 0.0 0.0
0.0 0.0 0.0
0.0 0.0 0.0
0.0 0.0 0.0
0.0 0.0 0.0
0.0 0.0 0.0
0.0 0.0 0.0
0.0 0.0 0.0
0.0 0.0 0.0
0.0 0.0 0.0
0.0 0.0 0.0
0.0 0.0 0.0
0.0 0.0 0.0
0.0 0.0 0.0
0.0 0.0 0.0
0.0 0.0 0.0
0.0 0.0 0.0
0.0 0.0 0.0
0.0 0.0 0.0
0.0 0.0 0.0
0.0 0.0 0.0
0.0 0.0 0.0
0.0 0.0 0.0
0.0 0.0 0.0
0.0 0.0 0.0
0.0 0.0 0.0
0.0 0.0 0.0
0.0 0.0 0.0
0.0 0.0 0.0
0.0 0.0 0.0
0.0 0.0 0.0
0.0 0.0 0.0
0.0 0.0 0.0
0.0 0.0 0.0
0.0 0.0 0.0
0.0 0.0 0.0
0.0 0.0 0.0
0.0 0.0 0.0
0.0 0.0 0.0
0.0 0.0 0.0
0.0 0.0 0.0
0.0 0.0 0.0
0.0 0.0 0.0
0.0 0.0 0.0
0.0 0.0 0.0
0.0 0.0 0.0
0.0 0.0 0.0
0.0 0.0 0.0
0.0 0.0 0.0
0.0 0.0 0.0
0.0 0.0 0.0
0.0 0.0 0.0
0.0 0.0 0.0
0.0 0.0 0.0
0.0 0.0 0.0
0.0 0.0 0.0
0.0 0.0 0.0
0.0 0.0 0.0
0.0 0.0 0.0
0.0 0.0 0.0
0.0 0.0 0.0
0.0 0.0 0.0
0.0 0.0 0.0
0.0 0.0 0.0
0.0 0.0 0.0
0.0 0.0 0.0
0.0 0.0 0.0
0.0 0.0 0.0
0.0 0.0 0.0
0.0 0.0 0.0
0.0 0.0 0.0
0.0 0.0 0.0
0.0 0.0 0.0
0.0 0.0 0.0
0.0 0.0 0.0
0.0 0.0 0.0
0.0 0.0 0.0
0.0 0.0 0.0
0.0 0.0 0.0
0.0 0.0 0.0
0.0 0.0 0.0
0.0 0.0 0.0
0.0 0.0 0.0
0.0 0.0 0.0
0.0 0.0 0.0
0.0 0.0 0.0
0.0 0.0 0.0
0.0 0.0 0.0
0.0 0.0 0.0
0.0 0.0 0.0
0.0 0.0 0.0
0.0 0.0 0.0
0.0 0.0 0.0
0.0 0.0 0.0
0.0 0.0 0.0
0.0 0.0 0.0
0.0 0.0 0.0
0.0 0.0 0.0
0.0 0.0 0.0
0.0 0.0 0.0
0.0 0.0 0.0
0.0 0.0 0.0
0.0 0.0 0.0
0.0 0.0 0.0
0.0 0.0 0.0
0.0 0.0 0.0
0.0 0.0 0.0
0.0 0.0 0.0
0.0 0.0 0.0
0.0 0.0 0.0
0.0 0.0 0.0
0.0 0.0 0.0
0.0 0.0 0.0
0.0 0.0 0.0
0.0 0.0 0.0
0.0 0.0 0.0
0.0 0.0 0.0
0.0 0.0 0.0
0.0 0.0 0.0
0.0 0.0 0.0
0.0 0.0 0.0
0.0 0.0 0.0
0.0 0.0 0.0
0.0 0.0 0.0
0.0 0.0 0.0
0.0 0.0 0.0
0.0 0.0 0.0
0.0 0.0 0.0
0.0 0.0 0.0
0.0 0.0 0.0
0.0 0.0 0.0
0.0 0.0 0.0
0.0 0.0 0.0
0.0 0.0 0.0
0.0 0.0 0.0
0.0 0.0 0.0
0.0 0.0 0.0
0.0 0.0 0.0
0.0 0.0 0.0
0.0 0.0 0.0
0.0 0.0 0.0
0.0 0.0 0.0
0.0 0.0 0.0
0.0 0.0 0.0
0.0 0.0 0.0
0.0 0.0 0.0
0.0 0.0 0.0
0.0 0.0 0.0
0.0 0.0 0.0
0.0 0.0 0.0
0.0 0.0 0.0
0.0 0.0 0.0
0.0 0.0 0.0
0.0 0.0 0.0
0.0 0.0 0.0
0.0 0.0 0.0
0.0 0.0 0.0
0.0 0.0 0.0
0.0 0.0 0.0
0.0 0.0 0.0
0.0 0.0 0.0
0.0 0.0 0.0
0.0 0.0 0.0
0.0 0.0 0.0
0.0 0.0 0.0
0.0 0.0 0.0
0.0 0.0 0.0
0.0 0.0 0.0
0.0 0.0 0.0
0.0 0.0 0.0
0.0 0.0 0.0
0.0 0.0 0.0
0.0 0.0 0.0
0.0 0.0 0.0
0.0 0.0 0.0
0.0 0.0 0.0
0.0 0.0 0.0
0.0 0.0 0.0
0.0 0.0 0.0
0.0 0.0 0.0
0.0 0.0 0.0
0.0 0.0 0.0
0.0 0.0 0.0
0.0 0.0 0.0
0.0 0.0 0.0
0.0 0.0 0.0
0.0 0.0 0.0
0.0 0.0 0.0
0.0 0.0 0.0
0.0 0.0 0.0
0.0 0.0 0.0
0.0 0.0 0.0
0.0 0.0 0.0
0.0 0.0 0.0
0.0 0.0 0.0
0.0 0.0 0.0
0.0 0.0 0.0
0.0 0.0 0.0
0.0 0.0 0.0
0.0 0.0 0.0
0.0 0.0 0.0
0.0 0.0 0.0
0.0 0.0 0.0
0.0 0.0 0.0
0.0 0.0 0.0
0.0 0.0 0.0
0.0 0.0 0.0
0.0 0.0 0.0
0.0 0.0 0.0
0.0 0.0 0.0
0.0 0.0 0.0
0.0 0.0 0.0
0.0 0.0 0.0
0.0 0.0 0.0
0.0 0.0 0.0
0.0 0.0 0.0
0.0 0.0 0.0
0.0 0.0 0.0
0.0 0.0 0.0
0.0 0.0 0.0
0.0 0.0 0.0
0.0 0.0 0.0
0.0 0.0 0.0
0.0 0.0 0.0
0.0 0.0 0.0
0.0 0.0 0.0
0.0 0.0 0.0
0.0 0.0 0.0
0.0 0.0 0.0
0.0 0.0 0.0
0.0 0.0 0.0
0.0 0.0 0.0
0.0 0.0 0.0
0.0 0.0 0.0
0.0 0.0 0.0
0.0 0.0 0.0
0.0 0.0 0.0
0.0 0.0 0.0
0.0 0.0 0.0
0.0 0.0 0.0
0.0 0.0 0.0
0.0 0.0 0.0
0.0 0.0 0.0
0.0 0.0 0.0
0.0 0.0 0.0
0.0 0.0 0.0
0.0 0.0 0.0
0.0 0.0 0.0
0.0 0.0 0.0
0.0 0.0 0.0
0.0 0.0 0.0
0.0 0.0 0.0
0.0 0.0 0.0
0.0 0.0 0.0
0.0 0.0 0.0
0.0 0.0 0.0
0.0 0.0 0.0
0.0 0.0 0.0
0.0 0.0 0.0
0.0 0.0 0.0
0.0 0.0 0.0
0.0 0.0 0.0
0.0 0.0 0.0
0.0 0.0 0.0
0.0 0.0 0.0
0.0 0.0 0.0
0.0 0.0 0.0
0.0 0.0 0.0
0.0 0.0 0.0
0.0 0.0 0.0
0.0 0.0 0.0
0.0 0.0 0.0
0.0 0.0 0.0
0.0 0.0 0.0
0.0 0.0 0.0
0.0 0.0 0.0
0.0 0.0 0.0
0.0 0.0 0.0
0.0 0.0 0.0
0.0 0.0 0.0
0.0 0.0 0.0
0.0 0.0 0.0
0.0 0.0 0.0
0.0 0.0 0.0
0.0 0.0 0.0
0.0 0.0 0.0
0.0 0.0 0.0
0.0 0.0 0.0
0.0 0.0 0.0
0.0 0.0 0.0
0.0 0.0 0.0
0.0 0.0 0.0
0.0 0.0 0.0
0.0 0.0 0.0
0.0 0.0 0.0
0.0 0.0 0.0
0.0 0.0 0.0
0.0 0.0 0.0
0.0 0.0 0.0
0.0 0.0 0.0
0.0 0.0 0.0
0.0 0.0 0.0
0.0 0.0 0.0
0.0 0.0 0.0
0.0 0.0 0.0
0.0 0.0 0.0
0.0 0.0 0.0
0.0 0.0 0.0
0.0 0.0 0.0
0.0 0.0 0.0
0.0 0.0 0.0
0.0 0.0 0.0
0.0 0.0 0.0
0.0 0.0 0.0
0.0 0.0 0.0
0.0 0.0 0.0
0.0 0.0 0.0
0.0 0.0 0.0
0.0 0.0 0.0
0.0 0.0 0.0
0.0 0.0 0.0
0.0 0.0 0.0
0.0 0.0 0.0
0.0 0.0 0.0
0.0 0.0 0.0
0.0 0.0 0.0
0.0 0.0 0.0
0.0 0.0 0.0
0.0 0.0 0.0
0.0 0.0 0.0
0.0 0.0 0.0
0.0 0.0 0.0
0.0 0.0 0.0
0.0 0.0 0.0
0.0 0.0 0.0
0.0 0.0 0.0
0.0 0.0 0.0
0.0 0.0 0.0
0.0 0.0 0.0
0.0 0.0 0.0
0.0 0.0 0.0
0.0 0.0 0.0
0.0 0.0 0.0
0.0 0.0 0.0
0.0 0.0 0.0
0.0 0.0 0.0
0.0 0.0 0.0
0.0 0.0 0.0
0.0 0.0 0.0
0.0 0.0 0.0
0.0 0.0 0.0
0.0 0.0 0.0
0.0 0.0 0.0
0.0 0.0 0.0
0.0 0.0 0.0
0.0 0.0 0.0
0.0 0.0 0.0
0.0 0.0 0.0
0.0 0.0 0.0
0.0 0.0 0.0
0.0 0.0 0.0
0.0 0.0 0.0
0.0 0.0 0.0
0.0 0.0 0.0
0.0 0.0 0.0
0.0 0.0 0.0
0.0 0.0 0.0
0.0 0.0 0.0
0.0 0.0 0.0
0.0 0.0 0.0
0.0 0.0 0.0
0.0 0.0 0.0
0.0 0.0 0.0
0.0 0.0 0.0
0.0 0.0 0.0
0.0 0.0 0.0
0.0 0.0 0.0
0.0 0.0 0.0
0.0 0.0 0.0
0.0 0.0 0.0
0.0 0.0 0.0
0.0 0.0 0.0
0.0 0.0 0.0
0.0 0.0 0.0
0.0 0.0 0.0
0.0 0.0 0.0
0.0 0.0 0.0
0.0 0.0 0.0
0.0 0.0 0.0
0.0 0.0 0.0
0.0 0.0 0.0
0.0 0.0 0.0
0.0 0.0 0.0
0.0 0.0 0.0
0.0 0.0 0.0
0.0 0.0 0.0
0.0 0.0 0.0
0.0 0.0 0.0
0.0 0.0 0.0
0.0 0.0 0.0
0.0 0.0 0.0
0.0 0.0 0.0
0.0 0.0 0.0
0.0 0.0 0.0
0.0 0.0 0.0
0.0 0.0 0.0
0.0 0.0 0.0
0.0 0.0 0.0
0.0 0.0 0.0
0.0 0.0 0.0
0.0 0.0 0.0
0.0 0.0 0.0
0.0 0.0 0.0
0.0 0.0 0.0
0.0 0.0 0.0
0.0 0.0 0.0
0.0 0.0 0.0
0.0 0.0 0.0
0.0 0.0 0.0
0.0 0.0 0.0
0.0 0.0 0.0
0.0 0.0 0.0
0.0 0.0 0.0
0.0 0.0 0.0
0.0 0.0 0.0
0.0 0.0 0.0
0.0 0.0 0.0
0.0 0.0 0.0
0.0 0.0 0.0
0.0 0.0 0.0
0.0 0.0 0.0
0.0 0.0 0.0
0.0 0.0 0.0
0.0 0.0 0.0
0.0 0.0 0.0
0.0 0.0 0.0
0.0 0.0 0.0
0.0 0.0 0.0
0.0 0.0 0.0
0.0 0.0 0.0
0.0 0.0 0.0
0.0 0.0 0.0
0.0 0.0 0.0
0.0 0.0 0.0
0.0 0.0 0.0
0.0 0.0 0.0
0.0 0.0 0.0
0.0 0.0 0.0
0.0 0.0 0.0
0.0 0.0 0.0
0.0 0.0 0.0
0.0 0.0 0.0
0.0 0.0 0.0
VECTORS f float
0.0 0.0 0.0
0.0 0.0 0.0
0.0 0.0 0.0
0.0 0.0 0.0
0.0 0.0 0.0
0.0 0.0 0.0
0.0 0.0 0.0
0.0 0.0 -0.000346714
0.0 0.0 -0.000346714
0.0 0.0 -0.000346714
0.0 0.0 -0.00160516
0.0 0.0 -0.00160516
0.0 0.0 -0.000346714
0.0 0.0 -0.000346714
0.0 0.0 -0.000346714
0.0 0.0 -0.000346714
0.0 0.0 -0.00160516
0.0 0.0 -0.000346714
0.0 0.0 -0.00160516
0.0 0.0 -0.000346714
0.0 0.0 -0.000346714
0.0 0.0 -0.00160516
0.0 0.0 -0.00160516
0.0 0.0 -0.000346714
0.0 0.0 -0.00160516
0.0 0.0 -0.000346714
0.0 0.0 -0.00160516
0.0 0.0 -0.000346714
0.0 0.0 -0.00160516
0.0 0.0 -0.000346714
0.0 0.0 -0.000346714
0.0 0.0 -0.000346714
0.0 0.0 -0.00160516
0.0 0.0 -0.000346714
0.0 0.0 -0.00160516
0.0 0.0 -0.00160516
0.0 0.0 -0.000346714
0.0 0.0 -0.000346714
0.0 0.0 -0.000346714
0.0 0.0 -0.00160516
0.0 0.0 -0.000346714
0.0 0.0 -0.00160516
0.0 0.0 -0.00160516
0.0 0.0 -0.000346714
0.0 0.0 -0.000346714
0.0 0.0 -0.00160516
0.0 0.0 -0.000346714
0.0 0.0 -0.000346714
0.0 0.0 -0.000346714
0.0 0.0 -0.000346714
0.0 0.0 -0.00160516
0.0 0.0 -0.000346714
0.0 0.0 -0.00160516
0.0 0.0 -0.00160516
0.0 0.0 -0.000346714
0.0 0.0 -0.000346714
0.0 0.0 -0.000346714
0.0 0.0 -0.000346714
0.0 0.0 -0.000346714
0.0 0.0 -0.000346714
0.0 0.0 -0.000346714
0.0 0.0 -0.00160516
0.0 0.0 -0.000346714
0.0 0.0 -0.000346714
0.0 0.0 -0.000346714
0.0 0.0 -0.00160516
0.0 0.0 -0.00160516
0.0 0.0 -0.00160516
0.0 0.0 -0.000346714
0.0 0.0 -0.000346714
0.0 0.0 -0.000346714
0.0 0.0 -0.000346714
0.0 0.0 -0.000346714
0.0 0.0 -0.00160516
0.0 0.0 -0.000346714
0.0 0.0 -0.000346714
0.0 0.0 -0.00160516
0.0 0.0 -0.000346714
0.0 0.0 -0.00160516
0.0 0.0 -0.00160516
0.0 0.0 -0.00160516
0.0 0.0 -0.00160516
0.0 0.0 -0.00160516
0.0 0.0 -0.00160516
0.0 0.0 -0.000346714
0.0 0.0 -0.000346714
0.0 0.0 -0.000346714
0.0 0.0 -0.000346714
0.0 0.0 -0.00160516
0.0 0.0 -0.000346714
0.0 0.0 -0.000346714
0.0 0.0 -0.000346714
0.0 0.0 -0.000346714
0.0 0.0 -0.00160516
0.0 0.0 -0.00160516
0.0 0.0 -0.000346714
0.0 0.0 -0.000346714
0.0 0.0 -0.00160516
0.0 0.0 -0.00160516
0.0 0.0 -0.000346714
0.0 0.0 -0.00160516
0.0 0.0 -0.00160516
0.0 0.0 -0.000346714
0.0 0.0 -0.000346714
0.0 0.0 -0.000346714
0.0 0.0 -0.000346714
0.0 0.0 -0.000346714
0.0 0.0 -0.000346714
0.0 0.0 -0.00160516
0.0 0.0 -0.00160516
0.0 0.0 -0.000346714
0.0 0.0 -0.000346714
0.0 0.0 -0.00160516
0.0 0.0 -0.00160516
0.0 0.0 -0.000346714
0.0 0.0 -0.000346714
0.0 0.0 -0.00160516
0.0 0.0 -0.00160516
0.0 0.0 -0.000346714
0.0 0.0 -0.000346714
0.0 0.0 -0.000346714
0.0 0.0 -0.000346714
0.0 0.0 -0.000346714
0.0 0.0 -0.00160516
0.0 0.0 -0.00160516
0.0 0.0 -0.00160516
0.0 0.0 -0.000346714
0.0 0.0 -0.00160516
0.0 0.0 -0.000346714
0.0 0.0 -0.00160516
0.0 0.0 -0.000346714
0.0 0.0 -0.000346714
0.0 0.0 -0.000346714
0.0 0.0 -0.000346714
0.0 0.0 -0.00160516
0.0 0.0 -0.000346714
0.0 0.0 -0.000346714
0.0 0.0 -0.000346714
0.0 0.0 -0.00160516
0.0 0.0 -0.000346714
0.0 0.0 -0.000346714
0.0 0.0 -0.000346714
0.0 0.0 -0.000346714
0.0 0.0 -0.00160516
0.0 0.0 -0.000346714
0.0 0.0 -0.000346714
0.0 0.0 -0.000346714
0.0 0.0 -0.000346714
4.88414e-05 -1.39831e-05 -0.00123148
0.000171573 0.000344494 0.000699602
0.0 0.0 -0.000346714
-7.00093e-05 -1.27307e-05 -8.11086e-05
-0.000792358 -0.000455544 0.00148554
0.0 0.0 -0.000346714
0.0 0.0 -0.000346714
-8.81597e-05 -1.3168e-05 -3.80991e-05
-6.30826e-05 -5.85402e-05 0.00165738
0.0 0.0 -0.000346714
0.0 0.0 -0.000346714
0.0 0.0 -0.000346714
0.0 0.0 -0.000346714
0.00501833 7.08345e-05 0.0015089
-0.0100774 0.00441308 0.00169015
0.0 0.0 -0.000346714
0.0 0.0 -0.000346714
-8.43856e-05 6.96748e-06 -4.29618e-05
-0.000376694 2.56967e-05 -0.000259068
-0.000451073 -0.000256235 -0.000417246
-0.000422039 -0.000199431 -0.000122464
4.32254e-05 -5.69082e-05 -0.000441163
0.00464066 -0.00704373 0.0150464
7.47154e-06 -3.42125e-05 -9.88985e-07
-8.90733e-05 7.34852e-06 -3.631e-05
-0.000459318 -6.66067e-05 -4.87836e-05
-0.000386184 -0.000179897 -0.000220014
0.0 0.0 -0.000346714
0.0 0.0 -0.00160516
0.0 0.0 -0.000346714
-8.84882e-05 7.29921e-06 -3.77368e-05
0.0 0.0 -0.00160516
-0.000321855 -0.000139477 0.00032115
-8.62338e-05 -3.98638e-05 -4.35664e-05
0.0 0.0 -0.000346714
0.0 0.0 -0.000346714
-8.55471e-05 3.86313e-05 -4.23343e-05
0.0 0.0 -0.000346714
-4.15784e-05 -0.000295884 3.7357e-05
-9.36342e-05 2.43334e-05 -2.75274e-05
-8.91149e-05 8.35835e-06 -3.78751e-05
0.0 0.0 -0.00160516
0.0 0.0 -0.000346714
-8.82193e-05 -1.34298e-05 -3.81835e-05
0.000117899 -3.13381e-05 4.63102e-05
-8.7309e-05 -3.6662e-05 -4.36005e-05
-9.1024e-05 -4.2026e-05 -2.15428e-05
0.0 0.0 -0.000346714
-0.000101066 6.66577e-05 -9.82192e-06
-0.00035532 0.000160832 -0.000246231
-8.31488e-05 2.14082e-05 -4.80063e-05
-8.14104e-05 2.08002e-05 -5.55333e-05
-0.000130539 1.41585e-05 8.16081e-05
-8.89084e-05 8.14977e-06 -3.79058e-05
0.0 0.0 -0.000346714
-0.000553217 -8.57999e-05 0.000167141
2.49101e-05 -3.44105e-05 2.20176e-06
0.0 0.0 -0.00160516
-0.000112041 -5.07665e-05 3.41563e-05
0.0 0.0 -0.000346714
0.0 0.0 -0.000346714
-0.00010461 4.87186e-05 1.14554e-06
-0.000467342 0.000213528 -6.24954e-06
-0.000480326 0.000130745 6.71061e-05
0.0 0.0 -0.000346714
-9.25809e-05 8.56016e-06 -2.71321e-05
-8.62053e-05 3.49002e-06 -0.00102963
6.21252e-05 -1.95037e-05 -0.000397305
-0.000630936 0.000347997 0.0062335
-0.000447474 -5.48789e-05 -0.000100212
-8.99536e-05 -9.91991e-06 -3.62711e-05
-9.09427e-05 -9.92723e-06 -3.63404e-05
-8.58266e-05 -1.01005e-05 -4.25064e-05
0.0 0.0 -0.000346714
-8.74111e-05 -3.26823e-05 -4.09145e-05
-0.000408752 -0.00019208 0.000825798
0.0 0.0 -0.000346714
0.0 0.0 -0.000346714
0.0 0.0 -0.000346714
0.0 0.0 -0.000346714
-1.2682e-05 -3.00848e-05 -0.000231634
0.0 0.0 -0.00160516
-3.95474e-05 1.08956e-05 -1.80837e-05
5.84686e-06 8.93942e-05 -9.88991e-08
-7.72097e-05 8.06519e-06 -6.44878e-05
-0.000670974 5.83218e-05 0.000387074
0.00166475 0.000130687 0.000693049
-8.85845e-05 -9.33127e-06 -3.58053e-05
-0.000272549 -0.00029606 -0.000486253
0.0 0.0 -0.000346714
0.0 0.0 -0.00160516
0.0 0.0 -0.000346714
6.81359e-05 -3.12781e-05 -0.000592755
2.10468e-05 4.0385e-05 8.11842e-06
-0.000914066 0.000110252 0.00441322
-0.00045457 -4.46861e-05 -7.91061e-05
-8.30203e-05 -2.95156e-05 -5.05929e-05
0.0 0.0 -0.000346714
1.73952e-05 2.81439e-06 -9.26344e-05
0.0 0.0 -0.00160516
7.76404e-05 0.000217536 0.000581766
1.35714e-05 -1.77879e-06 -0.000267009
-9.04377e-05 -8.32676e-06 -3.55554e-05
-0.00054379 -0.00019747 0.000160962
-0.000345911 -0.000117151 -0.000348485
0.0 0.0 -0.000346714
0.0 0.0 -0.000346714
-0.000992551 0.000494337 0.000192569
0.0 0.0 -0.000346714
-8.9007e-05 1.88013e-05 -3.96518e-05
0.0 0.0 -0.00160516
0.0 0.0 -0.000346714
0.0 0.0 -0.000346714
0.0 0.0 -0.000346714
-0.00136101 -0.0045383 0.0104393
-8.38257e-05 4.15309e-05 -4.27052e-05
-0.000398778 0.000197521 -0.000173627
-8.89899e-05 1.87897e-05 -3.97973e-05
0.0 0.0 -0.000346714
0.0 0.0 -0.000346714
0.000264778 -0.00100172 0.00297761
-0.000166326 -9.69603e-06 7.65978e-05
1.57867e-05 -7.12893e-07 -0.000306151
-0.000532488 -3.01497e-05 3.90826e-05
0.0 0.0 -0.000346714
-0.00040763 -1.95094e-05 -0.000166463
-6.69223e-05 -2.3192e-05 -4.46379e-05
0.0 0.0 -0.00160516
-8.19568e-05 -7.5706e-05 -4.82902e-05
0.0 0.0 -0.000346714
-1.51796e-06 -3.00113e-06 -0.000321513
0.0 0.0 -0.000346714
0.0 0.0 -0.00160516
0.0 0.0 -0.000346714
-0.000400256 -2.48048e-05 -0.000347194
9.90728e-05 -8.31846e-05 0.00011477
-9.32e-05 -5.15574e-06 2.15272e-05
0.0 0.0 -0.000346714
0.0 0.0 -0.00160516
0.0 0.0 -0.000346714
-0.000367602 0.000323979 -0.00025942
0.00282823 0.00184249 0.00836745
-0.000688244 -0.00104376 0.00256168
0.0 0.0 -0.000346714
-9.91111e-05 2.09623e-05 -2.24343e-05
2.9815e-06 7.70178e-05 1.39934e-06
-0.000350436 -7.71093e-06 0.000630664
-0.000395189 -0.00010846 -0.000217451
-8.61586e-05 -4.67142e-05 -4.22995e-05
-5.82372e-05 -3.24077e-05 -0.000107991
5.96673e-05 5.77628e-05 -0.00118848
0.0 0.0 -0.000346714
-8.87803e-05 2.45581e-05 -4.01975e-05
7.3957e-05 -3.682e-06 -0.000398562
-3.21213e-07 7.0738e-06 -0.000319483
0.0 0.0 -0.000346714
0.0 0.0 -0.00160516
0.000466754 0.00102359 0.00812864
0.000104381 9.23179e-05 -1.02429e-05
0.0 0.0 -0.000346714
6.00718e-05 6.98708e-05 -0.000334358
0.0 0.0 -0.00160516
-8.56608e-05 -4.29825e-05 -4.54342e-05
-8.26622e-05 4.74554e-05 -4.43287e-05
2.91738e-05 5.9305e-05 -1.85637e-07
0.0 0.0 -0.00160516
0.0 0.0 -0.00160516
-0.000539508 -0.00013801 0.000175569
-0.00011609 -3.04959e-05 -1.98961e-05
-0.000181763 0.0001061 -0.000689769
0.0 0.0 -0.000346714
0.0 0.0 -0.00160516
1.45139e-05 -2.11661e-05 8.43834e-06
0.0 0.0 -0.000346714
-0.000414202 1.45734e-05 -0.000180243
0.000148776 -8.77081e-05 -0.000239116
-0.000148776 8.77081e-05 -0.00171276
0.00012182 -8.95565e-05 0.000176935
-8.73883e-05 -1.88262e-05 -3.81483e-05
0.0 0.0 -0.000346714
0.0 0.0 -0.000346714
-8.67476e-05 2.35752e-05 -4.96234e-05
-0.000428412 0.000126508 -0.000100142
0.0 0.0 -0.00160516
-8.01784e-05 2.70423e-06 -4.86822e-05
0.0 0.0 -0.00160516
-0.000124175 4.11029e-06 4.06024e-05
0.0 0.0 -0.000346714
-8.7314e-05 2.98637e-06 -3.50922e-05
9.23842e-05 0.000191548 4.2053e-06
0.0 0.0 -0.000346714
-0.000352736 7.44877e-05 -0.000169321
0.00035393 -7.77841e-05 -0.00176202
0.0 0.0 -0.000346714
1.4772e-05 -7.12834e-05 -2.40515e-05
0.0 0.0 -0.000346714
-0.000470862 -9.4187e-05 -6.02362e-05
-2.91259e-05 -1.14045e-05 -0.000184363
0.0 0.0 -0.00160516
0.0 0.0 -0.000346714
-7.19559e-05 6.59725e-05 -6.01127e-06
-0.000378798 0.000156526 -0.000200584
0.0 0.0 -0.000346714
1.60088e-05 -1.38508e-06 7.01474e-06
1.34639e-05 9.13417e-06 -0.000119486
0.0 0.0 -0.000346714
-7.87732e-05 -2.26571e-06 -5.89417e-05
0.0 0.0 -0.00160516
0.0 0.0 -0.000346714
0.0 0.0 -0.000346714
0.0 0.0 -0.000346714
3.71347e-06 0.000158303 0.000369426
-8.40693e-05 -1.80819e-05 -3.60893e-05
-0.000335015 -6.78856e-05 -0.000272836
0.0 0.0 -0.000346714
-8.7483e-05 -1.72001e-05 -3.79319e-05
-0.00159483 0.000822809 0.00172225
0.0 0.0 -0.000346714
0.0 0.0 -0.000346714
0.0 0.0 -0.000346714
-0.000210722 5.64916e-05 7.58374e-05
-9.34794e-05 1.70228e-05 -2.67154e-05
0.0 0.0 -0.000346714
-0.000351602 6.39005e-05 -0.000381821
-0.000422563 -1.24072e-05 -0.000114523
0.0 0.0 -0.00160516
-8.76167e-05 -2.55444e-06 -3.46646e-05
-0.000184707 5.08693e-06 3.40902e-05
-0.000402195 -8.4717e-05 -0.000165204
0.0 0.0 -0.000346714
-0.000392714 -0.000180339 -0.000214287
0.0 0.0 -0.00160516
0.0 0.0 -0.00160516
-0.00184965 0.000938914 0.00267941
3.00845e-05 3.92468e-05 0.000290717
-0.000391789 -2.21009e-05 -0.00024832
-9.02735e-05 -5.0974e-06 -3.92407e-05
0.000176038 5.50323e-05 -0.000756165