# vtk DataFile Version 2.0
Generated by lpp.py
ASCII
DATASET POLYDATA
POINTS 230 float
-0.0677277 0.0010393 -0.133482
-0.0612744 -0.00519372 -0.131174
-0.0779782 0.037029 -0.131691
-0.0611846 -0.029402 -0.126917
-0.0627008 -0.0142269 -0.129086
-0.0601735 -0.00338539 -0.127414
-0.0500812 -0.00207212 -0.126973
-0.0521321 0.00437179 -0.126716
-0.0609465 0.0143838 -0.129191
-0.0548507 0.0110888 -0.128674
-0.054398 0.0182731 -0.1267
-0.0476848 -0.0167832 -0.125049
-0.0554002 -0.012852 -0.12552
-0.0477333 -0.0166645 -0.120568
-0.0451419 0.00163724 -0.122335
-0.0755302 0.0264168 -0.125009
-0.0397408 -0.0292712 -0.11928
-0.0713159 -0.00988741 -0.118107
-0.0369086 -0.0124644 -0.11971
-0.0627682 -0.0081511 -0.119794
-0.04698 -0.00464079 -0.119705
-0.0812769 -0.00293012 -0.119194
-0.0338233 0.00106426 -0.118549
-0.0383795 0.00636264 -0.120398
-0.0328818 0.0062691 -0.118719
-0.0409435 0.0130018 -0.121658
-0.0739527 0.0183454 -0.121658
-0.0450733 0.0244158 -0.12188
-0.0439517 0.0435192 -0.118743
-0.054361 -0.0198725 -0.118283
-0.0281308 -0.0105746 -0.11473
-0.0702322 -0.00598941 -0.116422
-0.0681879 -0.00220672 -0.116489
-0.0669716 0.00049848 -0.116046
-0.0613351 0.00179266 -0.115263
-0.0382938 0.00140315 -0.117346
-0.0312586 0.00892574 -0.112364
-0.0692564 0.0072567 -0.11577
-0.0288184 0.00718924 -0.1169
-0.0296669 0.0140592 -0.114359
-0.0305594 0.0174457 -0.114286
-0.0319634 0.0185898 -0.116772
-0.0301856 0.0278789 -0.11668
-0.0492362 -0.0276906 -0.112631
-0.054455 -0.0194957 -0.110666
-0.0211314 -0.0177861 -0.112543
-0.0405191 -0.0133406 -0.11028
-0.0407037 -0.00731306 -0.118964
-0.0301762 -0.012584 -0.115784
-0.0244707 -0.00245318 -0.112425
-0.019536 0.00218915 -0.11008
-0.0295821 0.00338898 -0.112911
-0.0377201 0.00745682 -0.109846
-0.016296 0.0144067 -0.111131
-0.040595 0.0245205 -0.11697
-0.026018 0.0237071 -0.113595
-0.0191905 0.0215923 -0.112879
-0.0404497 0.0274228 -0.112701
-0.0272836 0.0307127 -0.114722
-0.0235986 -0.0334849 -0.109304
-0.0160964 -0.0227746 -0.110176
-0.0347975 -0.0181741 -0.108567
-0.0103594 -0.0159982 -0.109348
-0.0512776 -0.0118325 -0.108061
-0.0355459 -0.00606764 -0.119258
-0.0117006 -0.00807303 -0.107517
-0.0103964 -0.00391284 -0.107929
-0.0496658 0.00298261 -0.110239
-0.0425987 0.00597932 -0.111002
-0.0488115 0.0121923 -0.11325
-0.024945 0.0161501 -0.107892
-0.0113695 0.0283843 -0.108021
-0.0303101 0.0287764 -0.113635
-0.0532239 -0.0561318 -0.108701
-0.0348762 -0.0102376 -0.105653
-0.0152967 -0.000333101 -0.103872
-0.0212057 0.00718213 -0.102966
-0.0476821 0.00925303 -0.107317
-0.0314096 0.0122434 -0.118351
-0.0113192 0.0106015 -0.104546
-0.0130082 0.0175863 -0.103974
-0.0242082 0.0258357 -0.104245
-0.0222571 -0.0162182 -0.10311
-0.0306172 -0.0112296 -0.102623
-0.0197202 -0.00503496 -0.111709
-0.0267621 -0.0316048 -0.111533
-0.0162435 -0.0281795 -0.109104
-0.0216846 0.010562 -0.114422
-0.0134955 0.0306785 -0.108756
-0.0266174 0.0340944 -0.112264
-0.016986 -0.00213434 -0.107186
-0.0294235 0.0177987 -0.103945
-0.0329725 0.0296342 -0.105392
-0.020149 -0.0334448 -0.101009
-0.0135716 -0.0190259 -0.103286
-0.0333375 0.0110949 -0.100791
-0.0292811 0.00645928 -0.100089
-0.0143727 0.015853 -0.0985078
-0.00439906 0.0240922 -0.099533
-0.00739645 -0.0185545 -0.0952201
-0.0265909 0.0159092 -0.0949219
-0.0159897 0.0274334 -0.0948235
-0.0275469 -0.0163611 -0.0907244
-0.0102956 -0.00169209 -0.0912301
-0.0161861 -0.026381 -0.0867956
-0.00301846 -0.0111451 -0.0858511
-0.00205293 -0.0206571 -0.0820861
-0.0273253 -0.00441029 -0.0846904
-0.0112712 -0.00229192 -0.0821164
-0.0135333 0.000602269 -0.0833773
-0.00791609 0.00384723 -0.0833716
-2.29018e-06 0.0149512 -0.0825401
-0.0318002 -0.0148599 -0.0791187
-0.0192779 0.00722911 -0.0810015
-0.0322225 0.032442 -0.0772668
-0.0125841 -0.0111545 -0.0693657
-0.00679321 -0.00388229 -0.0679486
-0.0125785 -0.0210623 -0.0663823
-0.0191843 -0.0162196 -0.0645224
-0.0143544 -0.00143019 -0.0652072
-0.0148309 -0.0333609 -0.0614042
-0.0290047 0.00352617 -0.0617052
-0.0227292 -0.0112057 -0.0592123
-0.0208061 0.000145103 -0.0591613
-0.0158354 0.0147935 -0.0600447
-0.0114065 0.0295451 -0.058597
-0.0188235 -0.0335238 -0.0546892
-0.00193271 -0.0127941 -0.0539225
-0.00304704 0.0316877 -0.0550894
-0.010147 0.00134815 -0.0493841
-0.00401145 0.0125644 -0.0508876
-0.0167258 0.0295222 -0.0509174
-0.0142543 -0.0235946 -0.0482196
-0.0316516 0.0258079 -0.0465341
-0.0309894 0.0333632 -0.0468059
-0.0331578 -0.0315972 -0.0438879
-0.0156127 0.0122027 -0.0438573
-0.00584464 0.0229092 -0.0419052
-0.0150343 -0.00254225 -0.0399028
-0.00445669 0.0136763 -0.0405387
-0.021642 0.0141125 -0.0413193
-0.0237179 -0.0143876 -0.037935
-0.00430721 -0.0251385 -0.033836
-0.0337656 -0.0129184 -0.031505
-0.0189158 0.00679958 -0.0318297
-0.0076982 0.0115519 -0.0337527
-0.00630817 0.0207644 -0.0318136
-0.00353112 0.0264703 -0.0323595
-0.00618246 -0.0245765 -0.0277
-0.0192798 0.00186917 -0.0271578
-0.0214963 -0.0266191 -0.0197793
-0.0152079 -0.0157693 -0.0230094
-0.00679915 -0.012878 -0.0227148
-0.00623706 -0.0058896 -0.0232609
-0.00240788 0.00422687 -0.0212494
-0.0251386 0.0339743 -0.0188783
-0.0326006 -0.0344541 -0.0134625
-0.023692 -0.0114622 -0.0153762
-0.00372425 -0.00768845 -0.012706
-0.0229207 0.0293808 -0.0143505
-0.0239437 -0.00737998 -0.0108738
-0.00596878 0.00110293 -0.0104907
-0.0334498 0.0192376 -0.00873342
-0.0310811 0.0209557 -0.0116007
-0.00243205 -0.0275788 -0.00507969
-0.0260626 -0.0145959 -0.00612335
-0.0280772 0.00199937 -0.00683682
-0.0186593 0.0101406 -0.00711146
-0.0192512 0.0203811 -0.00750355
-0.0233162 -0.0257488 -0.00456288
-0.0228627 0.00282045 -0.00219033
-0.0175477 0.0137467 -0.00337926
-0.000114354 0.021065 -0.00290535
-0.0322154 -0.0246784 0.00185122
-0.0180071 -0.0127461 -0.000770876
-0.0273571 -0.0103215 0.00235523
-0.01426 -0.0150654 0.00287823
-0.0341304 -0.00318577 0.00394389
-0.0234861 -0.0194352 0.00808007
-0.00264988 -0.0095541 0.00875423
-0.0200733 -0.00130471 0.00918438
-0.0184157 0.00363086 0.00832046
-0.00169906 -0.0346379 0.0100596
-0.0106048 -0.00789334 0.0111459
-0.0258257 0.0147617 0.0108775
-0.00526421 0.027503 0.0109463
-0.0107488 0.0329346 0.0131382
-0.0264666 -0.025466 0.0147726
-0.00998901 0.00893206 0.0148533
-0.0196577 -0.024903 0.0174753
-0.0201644 -0.0275601 0.0201841
-0.0121862 -0.00588198 0.0210047
-0.0134549 0.0182926 0.0196482
-0.0249489 0.0269151 0.0180949
-0.0173269 -0.0294256 0.024336
-0.00546888 -0.024539 0.024483
-0.00018665 -0.0192075 0.0217006
-0.0278654 0.00172744 0.0216256
-0.0232114 -0.0230043 0.026093
-0.00148336 -0.00863773 0.0276276
-0.0244014 0.0243576 0.0254849
-0.0317899 0.0348276 0.0251769
-0.0299737 -0.0249092 0.0300677
-0.0209901 0.00167617 0.0297644
-0.00237574 0.0349629 0.028788
-0.0118483 0.00949823 0.0336837
-0.00525173 0.0148756 0.0350358
-0.00795 0.0273623 0.0343458
-0.0133438 0.0300767 0.0332859
-0.00916175 0.0316192 0.0334919
-0.0315415 -0.0266248 0.0398089
-0.0116971 -0.0149443 0.0368428
-0.014731 -0.00384992 0.0386973
-0.0325497 0.0284222 0.0379374
-0.000147874 -0.0328927 0.0420238
-0.0258692 -0.0150214 0.041659
-0.0313425 0.0167345 0.0400758
-0.0220067 0.0311963 0.0400644
-0.0256746 -0.0295973 0.0461274
-0.0126988 -0.0187384 0.0453295
-0.0186146 -0.0100891 0.0460404
-0.0141421 0.000627184 0.0448288
-0.0206785 0.0145985 0.0469271
-0.0125397 -0.025785 0.0481615
-0.0104339 -0.00964248 0.047549
-0.0158011 0.0337207 0.0484877
-0.0349321 -0.00790873 0.0524308
-0.03004 0.0154412 0.0534813
-0.0245784 0.0311922 0.0540429
-0.00133775 0.0319388 0.0544732
VERTICES 230 460
1 0
1 1
1 2
1 3
1 4
1 5
1 6
1 7
1 8
1 9
1 10
1 11
1 12
1 13
1 14
1 15
1 16
1 17
1 18
1 19
1 20
1 21
1 22
1 23
1 24
1 25
1 26
1 27
1 28
1 29
1 30
1 31
1 32
1 33
1 34
1 35
1 36
1 37
1 38
1 39
1 40
1 41
1 42
1 43
1 44
1 45
1 46
1 47
1 48
1 49
1 50
1 51
1 52
1 53
1 54
1 55
1 56
1 57
1 58
1 59
1 60
1 61
1 62
1 63
1 64
1 65
1 66
1 67
1 68
1 69
1 70
1 71
1 72
1 73
1 74
1 75
1 76
1 77
1 78
1 79
1 80
1 81
1 82
1 83
1 84
1 85
1 86
1 87
1 88
1 89
1 90
1 91
1 92
1 93
1 94
1 95
1 96
1 97
1 98
1 99
1 100
1 101
1 102
1 103
1 104
1 105
1 106
1 107
1 108
1 109
1 110
1 111
1 112
1 113
1 114
1 115
1 116
1 117
1 118
1 119
1 120
1 121
1 122
1 123
1 124
1 125
1 126
1 127
1 128
1 129
1 130
1 131
1 132
1 133
1 134
1 135
1 136
1 137
1 138
1 139
1 140
1 141
1 142
1 143
1 144
1 145
1 146
1 147
1 148
1 149
1 150
1 151
1 152
1 153
1 154
1 155
1 156
1 157
1 158
1 159
1 160
1 161
1 162
1 163
1 164
1 165
1 166
1 167
1 168
1 169
1 170
1 171
1 172
1 173
1 174
1 175
1 176
1 177
1 178
1 179
1 180
1 181
1 182
1 183
1 184
1 185
1 186
1 187
1 188
1 189
1 190
1 191
1 192
1 193
1 194
1 195
1 196
1 197
1 198
1 199
1 200
1 201
1 202
1 203
1 204
1 205
1 206
1 207
1 208
1 209
1 210
1 211
1 212
1 213
1 214
1 215
1 216
1 217
1 218
1 219
1 220
1 221
1 222
1 223
1 224
1 225
1 226
1 227
1 228
1 229
POINT_DATA 230
VECTORS i float
0.0 0.0 0.0
0.0 0.0 0.0
0.0 0.0 0.0
0.0 0.0 0.0
0.0 0.0 0.0
0.0 0.0 0.0
0.0 0.0 0.0
0.0 0.0 0.0
0.0 0.0 0.0
0.0 0.0 0.0
0.0 0.0 0.0
0.0 0.0 0.0
0.0 0.0 0.0
0.0 0.0 0.0
0.0 0.0 0.0
0.0 0.0 0.0
0.0 0.0 0.0
0.0 0.0 0.0
0.0 0.0 0.0
0.0 0.0 0.0
0.0 0.0 0.0
0.0 0.0 0.0
0.0 0.0 0.0
0.0 0.0 0.0
0.0 0.0 0.0
0.0 0.0 0.0
0.0 0.0 0.0
0.0 0.0 0.0
0.0 0.0 0.0
0.0 0.0 0.0
0.0 0.0 0.0
0.0 0.0 0.0
0.0 0.0 0.0
0.0 0.0 0.0
0.0 0.0 0.0
0.0 0.0 0.0
0.0 0.0 0.0
0.0 0.0 0.0
0.0 0.0 0.0
0.0 0.0 0.0
0.0 0.0 0.0
0.0 0.0 0.0
0.0 0.0 0.0
0.0 0.0 0.0
0.0 0.0 0.0
0.0 0.0 0.0
0.0 0.0 0.0
0.0 0.0 0.0
0.0 0.0 0.0
0.0 0.0 0.0
0.0 0.0 0.0
0.0 0.0 0.0
0.0 0.0 0.0
0.0 0.0 0.0
0.0 0.0 0.0
0.0 0.0 0.0
0.0 0.0 0.0
0.0 0.0 0.0
0.0 0.0 0.0
0.0 0.0 0.0
0.0 0.0 0.0
0.0 0.0 0.0
0.0 0.0 0.0
0.0 0.0 0.0
0.0 0.0 0.0
0.0 0.0 0.0
0.0 0.0 0.0
0.0 0.0 0.0
0.0 0.0 0.0
0.0 0.0 0.0
0.0 0.0 0.0
0.0 0.0 0.0
0.0 0.0 0.0
0.0 0.0 0.0
0.0 0.0 0.0
0.0 0.0 0.0
0.0 0.0 0.0
0.0 0.0 0.0
0.0 0.0 0.0
0.0 0.0 0.0
0.0 0.0 0.0
0.0 0.0 0.0
0.0 0.0 0.0
0.0 0.0 0.0
0.0 0.0 0.0
0.0 0.0 0.0
0.0 0.0 0.0
0.0 0.0 0.0
0.0 0.0 0.0
0.0 0.0 0.0
0.0 0.0 0.0
0.0 0.0 0.0
0.0 0.0 0.0
0.0 0.0 0.0
0.0 0.0 0.0
0.0 0.0 0.0
0.0 0.0 0.0
0.0 0.0 0.0
0.0 0.0 0.0
0.0 0.0 0.0
0.0 0.0 0.0
0.0 0.0 0.0
0.0 0.0 0.0
0.0 0.0 0.0
0.0 0.0 0.0
0.0 0.0 0.0
0.0 0.0 0.0
0.0 0.0 0.0
0.0 0.0 0.0
0.0 0.0 0.0
0.0 0.0 0.0
0.0 0.0 0.0
0.0 0.0 0.0
0.0 0.0 0.0
0.0 0.0 0.0
0.0 0.0 0.0
0.0 0.0 0.0
0.0 0.0 0.0
0.0 0.0 0.0
0.0 0.0 0.0
0.0 0.0 0.0
0.0 0.0 0.0
0.0 0.0 0.0
0.0 0.0 0.0
0.0 0.0 0.0
0.0 0.0 0.0
0.0 0.0 0.0
0.0 0.0 0.0
0.0 0.0 0.0
0.0 0.0 0.0
0.0 0.0 0.0
0.0 0.0 0.0
0.0 0.0 0.0
0.0 0.0 0.0
0.0 0.0 0.0
0.0 0.0 0.0
0.0 0.0 0.0
0.0 0.0 0.0
0.0 0.0 0.0
0.0 0.0 0.0
0.0 0.0 0.0
0.0 0.0 0.0
0.0 0.0 0.0
0.0 0.0 0.0
0.0 0.0 0.0
0.0 0.0 0.0
0.0 0.0 0.0
0.0 0.0 0.0
0.0 0.0 0.0
0.0 0.0 0.0
0.0 0.0 0.0
0.0 0.0 0.0
0.0 0.0 0.0
0.0 0.0 0.0
0.0 0.0 0.0
0.0 0.0 0.0
0.0 0.0 0.0
0.0 0.0 0.0
0.0 0.0 0.0
0.0 0.0 0.0
0.0 0.0 0.0
0.0 0.0 0.0
0.0 0.0 0.0
0.0 0.0 0.0
0.0 0.0 0.0
0.0 0.0 0.0
0.0 0.0 0.0
0.0 0.0 0.0
0.0 0.0 0.0
0.0 0.0 0.0
0.0 0.0 0.0
0.0 0.0 0.0
0.0 0.0 0.0
0.0 0.0 0.0
0.0 0.0 0.0
0.0 0.0 0.0
0.0 0.0 0.0
0.0 0.0 0.0
0.0 0.0 0.0
0.0 0.0 0.0
0.0 0.0 0.0
0.0 0.0 0.0
0.0 0.0 0.0
0.0 0.0 0.0
0.0 0.0 0.0
0.0 0.0 0.0
0.0 0.0 0.0
0.0 0.0 0.0
0.0 0.0 0.0
0.0 0.0 0.0
0.0 0.0 0.0
0.0 0.0 0.0
0.0 0.0 0.0
0.0 0.0 0.0
0.0 0.0 0.0
0.0 0.0 0.0
0.0 0.0 0.0
0.0 0.0 0.0
0.0 0.0 0.0
0.0 0.0 0.0
0.0 0.0 0.0
0.0 0.0 0.0
0.0 0.0 0.0
0.0 0.0 0.0
0.0 0.0 0.0
0.0 0.0 0.0
0.0 0.0 0.0
0.0 0.0 0.0
0.0 0.0 0.0
0.0 0.0 0.0
0.0 0.0 0.0
0.0 0.0 0.0
0.0 0.0 0.0
0.0 0.0 0.0
0.0 0.0 0.0
0.0 0.0 0.0
0.0 0.0 0.0
0.0 0.0 0.0
0.0 0.0 0.0
0.0 0.0 0.0
0.0 0.0 0.0
0.0 0.0 0.0
0.0 0.0 0.0
0.0 0.0 0.0
0.0 0.0 0.0
0.0 0.0 0.0
0.0 0.0 0.0
0.0 0.0 0.0
0.0 0.0 0.0
0.0 0.0 0.0
VECTORS f float
-0.000393214 -2.02963e-05 -0.000217864
0.0 0.0 -0.000346714
0.0 0.0 -0.000346714
0.0 0.0 -0.000346714
0.0 0.0 -0.00160516
0.0 0.0 -0.000346714
0.0 0.0 -0.000346714
0.0 0.0 -0.00160516
0.0 0.0 -0.000346714
0.0 0.0 -0.000346714
0.0 0.0 -0.000346714
0.0 0.0 -0.000346714
0.0 0.0 -0.000346714
0.0 0.0 -0.00160516
0.0 0.0 -0.000346714
0.0 0.0 -0.000346714
0.000284257 -0.000140928 -0.00191873
0.0 0.0 -0.000346714
0.0 0.0 -0.00160516
0.0 0.0 -0.000346714
0.0 0.0 -0.000346714
0.0 0.0 -0.00160516
0.0 0.0 -0.00160516
0.0 0.0 -0.00160516
0.0 0.0 -0.000346714
0.0 0.0 -0.00160516
0.0 0.0 -0.000346714
0.0 0.0 -0.000346714
0.0 0.0 -0.000346714
0.0 0.0 -0.00160516
0.0 0.0 -0.000346714
0.0 0.0 -0.000346714
0.000266706 0.000434251 -0.00050307
-0.000266706 -0.000434251 -0.000190358
0.0 0.0 -0.000346714
0.0 0.0 -0.000346714
0.0 0.0 -0.000346714
0.0 0.0 -0.000346714
0.000260577 0.000153821 -0.00238922
0.0 0.0 -0.000346714
0.0 0.0 -0.000346714
0.0 0.0 -0.000346714
4.67505e-05 0.00034868 0.00134796
0.0 0.0 -0.00160516
0.0 0.0 -0.000346714
0.0 0.0 -0.00160516
0.0 0.0 -0.000346714
0.0 0.0 -0.000346714
0.0 0.0 -0.000346714
0.0 0.0 -0.000346714
0.0 0.0 -0.000346714
0.0 0.0 -0.00160516
0.0 0.0 -0.000346714
-0.000382066 -7.50981e-05 -0.000354617
0.0 0.0 -0.000346714
0.0 0.0 -0.00160516
-8.96659e-05 -1.61955e-05 -3.99862e-05
0.0 0.0 -0.00160516
0.0 0.0 -0.000346714
0.0 0.0 -0.00160516
0.0 0.0 -0.00160516
0.0 0.0 -0.00160516
0.0 0.0 -0.000346714
0.0 0.0 -0.000346714
0.0 0.0 -0.00160516
0.0 0.0 -0.000346714
0.0 0.0 -0.000346714
0.0 0.0 -0.000346714
0.0 0.0 -0.000346714
0.0 0.0 -0.000346714
0.0 0.0 -0.00160516
0.0 0.0 -0.000346714
0.0 0.0 -0.000346714
0.0 0.0 -0.000346714
0.0 0.0 -0.000346714
0.0 0.0 -0.000346714
0.0 0.0 -0.000346714
0.0 0.0 -0.00160516
0.0 0.0 -0.000346714
0.0 0.0 -0.00160516
0.0 0.0 -0.00160516
0.0 0.0 -0.000346714
0.0 0.0 -0.00160516
0.0 0.0 -0.00160516
0.0 0.0 -0.000346714
0.0 0.0 -0.000346714
0.0 0.0 -0.00160516
0.0 0.0 -0.000346714
0.0 0.0 -0.000346714
0.0 0.0 -0.000346714
0.0 0.0 -0.000346714
0.0 0.0 -0.000346714
0.0 0.0 -0.00160516
0.0 0.0 -0.000346714
0.0 0.0 -0.000346714
0.0 0.0 -0.00160516
0.0 0.0 -0.00160516
0.0 0.0 -0.00160516
0.0 0.0 -0.000346714
0.0 0.0 -0.000346714
0.0 0.0 -0.00160516
0.0 0.0 -0.000346714
0.0 0.0 -0.000346714
0.0 0.0 -0.000346714
0.0 0.0 -0.000346714
0.0 0.0 -0.00160516
0.0 0.0 -0.00160516
0.0 0.0 -0.00160516
0.0 0.0 -0.000346714
0.0 0.0 -0.000346714
0.0 0.0 -0.00160516
0.0 0.0 -0.000346714
0.0 0.0 -0.000346714
0.0 0.0 -0.00160516
0.0 0.0 -0.000346714
0.0 0.0 -0.000346714
0.0 0.0 -0.000346714
0.0 0.0 -0.00160516
0.0 0.0 -0.000346714
0.0 0.0 -0.00160516
0.0 0.0 -0.000346714
0.0 0.0 -0.000346714
0.0 0.0 -0.000346714
0.0 0.0 -0.000346714
0.0 0.0 -0.00160516
0.0 0.0 -0.000346714
0.0 0.0 -0.000346714
0.0 0.0 -0.00160516
0.0 0.0 -0.00160516
0.0 0.0 -0.00160516
0.0 0.0 -0.000346714
0.0 0.0 -0.000346714
0.0 0.0 -0.00160516
0.0 0.0 -0.00160516
0.0 0.0 -0.000346714
0.0 0.0 -0.000346714
0.0 0.0 -0.000346714
0.0 0.0 -0.000346714
0.0 0.0 -0.00160516
0.0 0.0 -0.000346714
0.0 0.0 -0.000346714
0.0 0.0 -0.000346714
0.0 0.0 -0.000346714
0.0 0.0 -0.000346714
0.0 0.0 -0.000346714
0.0 0.0 -0.00160516
0.0 0.0 -0.000346714
0.0 0.0 -0.000346714
0.0 0.0 -0.00160516
0.0 0.0 -0.00160516
0.0 0.0 -0.00160516
0.0 0.0 -0.000346714
0.0 0.0 -0.000346714
0.0 0.0 -0.000346714
0.0 0.0 -0.00160516
0.0 0.0 -0.000346714
0.0 0.0 -0.000346714
0.0 0.0 -0.000346714
0.0 0.0 -0.00160516
0.0 0.0 -0.000346714
0.0 0.0 -0.00160516
0.0 0.0 -0.000346714
0.0 0.0 -0.000346714
0.0 0.0 -0.000346714
0.0 0.0 -0.000346714
0.0 0.0 -0.000346714
0.0 0.0 -0.000346714
0.0 0.0 -0.000346714
0.0 0.0 -0.00160516
0.0 0.0 -0.000346714
0.0 0.0 -0.000346714
0.0 0.0 -0.00160516
0.0 0.0 -0.00160516
0.0 0.0 -0.000346714
0.0 0.0 -0.000346714
0.0 0.0 -0.00160516
0.0 0.0 -0.000346714
0.0 0.0 -0.000346714
0.0 0.0 -0.00160516
0.0 0.0 -0.000346714
0.0 0.0 -0.000346714
0.0 0.0 -0.000346714
0.0 0.0 -0.00160516
0.0 0.0 -0.000346714
0.0 0.0 -0.00160516
0.0 0.0 -0.000346714
0.0 0.0 -0.00160516
0.0 0.0 -0.00160516
0.0 0.0 -0.000346714
0.0 0.0 -0.000346714
0.0 0.0 -0.000346714
0.0 0.0 -0.000346714
0.0 0.0 -0.000346714
0.0 0.0 -0.000346714
0.0 0.0 -0.00160516
0.0 0.0 -0.000346714
0.0 0.0 -0.00160516
0.0 0.0 -0.000346714
0.0 0.0 -0.00160516
0.0 0.0 -0.000346714
0.0 0.0 -0.000346714
0.0 0.0 -0.000346714
0.0 0.0 -0.00160516
0.0 0.0 -0.000346714
0.0 0.0 -0.000346714
0.0 0.0 -0.000346714
0.0 0.0 -0.000346714
0.0 0.0 -0.00160516
0.0 0.0 -0.000346714
0.0 0.0 -0.000346714
0.0 0.0 -0.00160516
0.0 0.0 -0.000346714
0.0 0.0 -0.00160516
0.0 0.0 -0.000346714
0.0 0.0 -0.000346714
0.0 0.0 -0.000346714
0.0 0.0 -0.00160516
0.0 0.0 -0.00160516
0.0 0.0 -0.000346714
0.0 0.0 -0.00160516
0.0 0.0 -0.000346714
0.0 0.0 -0.000346714
0.0 0.0 -0.000346714
0.0 0.0 -0.000346714
0.0 0.0 -0.000346714
0.0 0.0 -0.000346714
0.0 0.0 0.0
0.0 0.0 0.0
0.0 0.0 0.0
0.0 0.0 0.0
VECTORS omega float
110.04 -304.802 15.0184
-65.6062 -574.641 -212.59
-340.631 -726.294 -186.258
16.3055 -505.552 136.656
17.8756 -77.3327 -0.484907
76.6052 -432.34 -173.062
182.387 -425.237 -163.483
-69.6157 -251.806 -94.1094
-64.7239 -473.802 -26.7444
144.617 -587.478 68.8196
145.888 -543.345 2.29713
-83.751 -385.281 -139.55
-142.629 -517.4 12.32
247.613 132.787 117.952
-82.0058 -360.959 6.27673
109.333 -325.067 83.3711
-45.4037 -246.852 16.3092
-93.3386 -388.818 -8.97324e-15
-28.6326 -159.481 109.781
53.5445 -226.738 38.1963
-91.909 -438.919 -4.95487
-14.8336 -225.779 -6.37285e-15
17.9899 -186.747 -8.36648
-15.309 -172.684 -71.3942
-18.4333 -230.003 40.6691
-27.3364 -269.681 -52.3406
157.283 -192.671 339.666
-65.5626 -524.773 71.0875
-303.96 5.95485 17.627
-105.302 -255.327 -0.0941047
-163.435 -699.586 -17.6561
-24.4869 -372.71 -5.48927e-14
-55.0964 -360.834 -10.4402
-41.339 -370.709 -10.4402
-11.0748 -389.824 7.37302e-16
76.5445 -305.361 -82.55
-165.447 555.887 -71.4804
55.6535 -369.268 6.21219e-14
4.97641 -245.598 -14.7499
69.9945 -387.523 -4.21035e-14
203.718 -290.221 -86.073
299.059 -554.827 269.236
67.5269 -417.719 -205.579
-92.2038 -218.304 -1.90708
27.3203 136.186 -30.5113
-69.9395 -110.67 -32.2049
-85.5854 -368.423 1.07912e-13
-245.398 -83.3105 -31.3154
-335.61 -609.336 -140.926
-19.2562 -636.876 -40.2669
8.58772 -381.78 -1.52841e-14
80.3999 196.423 57.1029
69.7203 -386.005 -6.26036e-14
-11.2079 -88.5735 -12.59
-40.652 196.878 -207.346
38.9865 -234.261 -0.780963
-66.3398 -262.042 207.871
118.328 -246.781 4.22467
-2.93693 -437.306 -2.0934
73.1144 -310.468 92.8732
-48.5957 -230.051 -5.82909
-92.8876 -225.641 -0.0301518
-148.811 -637.225 -17.6189
-65.0767 -364.221 8.43618e-14
-53.0959 37.5312 -37.4724
-80.7065 -336.668 -48.6138
-7.27532 -742.974 -14.0664
-3.44496 463.931 -9.78414
94.6125 -408.957 4.03732
244.277 60.682 196.704
81.3497 -105.608 17.9338
-358.746 130.139 123.305
-31.9436 256.995 43.0528
377.106 230.021 159.168
-65.8418 -368.503 1.62458e-14
13.5753 -365.427 2.76259e-15
13.6638 -367.81 1.29697e-14
53.1334 -227.496 5.06761e-14
56.5207 -375.022 -5.68582e-14
170.137 -32.7556 74.8826
52.996 -226.908 -1.71788e-14
207.663 -424.231 -92.2129
-155.554 -213.747 -38.0693
-81.4948 -221.983 -4.47958e-14
-567.473 61.1874 -291.489
0.0 0.0 0.0
-89.5563 -217.669 2.17489e-14
0.0 0.0 0.0
201.247 -317.756 298.547
0.0 0.0 0.0
0.0 0.0 0.0
0.0 0.0 0.0
0.0 0.0 0.0
0.0 0.0 0.0
0.0 0.0 0.0
0.0 0.0 0.0
0.0 0.0 0.0
0.0 0.0 0.0
0.0 0.0 0.0
0.0 0.0 0.0
0.0 0.0 0.0
0.0 0.0 0.0
0.0 0.0 0.0
0.0 0.0 0.0
0.0 0.0 0.0
0.0 0.0 0.0
0.0 0.0 0.0
0.0 0.0 0.0
0.0 0.0 0.0
0.0 0.0 0.0
0.0 0.0 0.0
0.0 0.0 0.0
0.0 0.0 0.0
0.0 0.0 0.0
0.0 0.0 0.0
0.0 0.0 0.0
0.0 0.0 0.0
0.0 0.0 0.0
0.0 0.0 0.0
0.0 0.0 0.0
0.0 0.0 0.0
0.0 0.0 0.0
0.0 0.0 0.0
0.0 0.0 0.0
0.0 0.0 0.0
0.0 0.0 0.0
0.0 0.0 0.0
0.0 0.0 0.0
0.0 0.0 0.0
0.0 0.0 0.0
0.0 0.0 0.0
0.0 0.0 0.0
0.0 0.0 0.0
0.0 0.0 0.0
0.0 0.0 0.0
0.0 0.0 0.0
0.0 0.0 0.0
0.0 0.0 0.0
0.0 0.0 0.0
0.0 0.0 0.0
0.0 0.0 0.0
0.0 0.0 0.0
0.0 0.0 0.0
0.0 0.0 0.0
0.0 0.0 0.0
0.0 0.0 0.0
0.0 0.0 0.0
0.0 0.0 0.0
0.0 0.0 0.0
0.0 0.0 0.0
0.0 0.0 0.0
0.0 0.0 0.0
0.0 0.0 0.0
0.0 0.0 0.0
0.0 0.0 0.0
0.0 0.0 0.0
0.0 0.0 0.0
0.0 0.0 0.0
0.0 0.0 0.0
0.0 0.0 0.0
0.0 0.0 0.0
0.0 0.0 0.0
0.0 0.0 0.0
0.0 0.0 0.0
0.0 0.0 0.0
0.0 0.0 0.0
0.0 0.0 0.0
0.0 0.0 0.0
0.0 0.0 0.0
0.0 0.0 0.0
0.0 0.0 0.0
0.0 0.0 0.0
0.0 0.0 0.0
0.0 0.0 0.0
0.0 0.0 0.0
0.0 0.0 0.0
0.0 0.0 0.0
0.0 0.0 0.0
0.0 0.0 0.0
0.0 0.0 0.0
0.0 0.0 0.0
0.0 0.0 0.0
0.0 0.0 0.0
0.0 0.0 0.0
0.0 0.0 0.0
0.0 0.0 0.0
0.0 0.0 0.0
0.0 0.0 0.0
0.0 0.0 0.0
0.0 0.0 0.0
0.0 0.0 0.0
0.0 0.0 0.0
0.0 0.0 0.0
0.0 0.0 0.0
0.0 0.0 0.0
0.0 0.0 0.0
0.0 0.0 0.0
0.0 0.0 0.0
0.0 0.0 0.0
0.0 0.0 0.0
0.0 0.0 0.0
0.0 0.0 0.0
0.0 0.0 0.0
0.0 0.0 0.0
0.0 0.0 0.0
0.0 0.0 0.0
0.0 0.0 0.0
0.0 0.0 0.0
0.0 0.0 0.0
0.0 0.0 0.0
0.0 0.0 0.0
0.0 0.0 0.0
0.0 0.0 0.0
0.0 0.0 0.0
0.0 0.0 0.0
0.0 0.0 0.0
0.0 0.0 0.0
0.0 0.0 0.0
0.0 0.0 0.0
0.0 0.0 0.0
0.0 0.0 0.0
0.0 0.0 0.0
0.0 0.0 0.0
0.0 0.0 0.0
0.0 0.0 0.0
0.0 0.0 0.0
0.0 0.0 0.0
0.0 0.0 0.0
0.0 0.0 0.0
0.0 0.0 0.0
VECTORS v float
-0.69996 -0.267637 -0.303197
-0.829408 0.22026 -0.272013
-1.13531 0.557518 -0.511114
-0.805626 -0.0623163 -0.41278
-1.01633 0.294895 -0.711609
-0.81565 0.213 -0.35127
-0.60364 -0.129187 -0.305246
-0.682214 0.183059 -0.259387
-0.739681 0.0955725 -0.451482
-0.825891 -0.241266 -0.352729
-0.810353 -0.220714 -0.43238
-0.540794 0.21486 -0.129215
-0.809413 0.212428 -0.470793
-0.806873 -0.212866 0.184085
-0.579489 0.194121 -0.254938
-0.761856 -0.0901797 -0.4506
-0.570348 0.0888922 -0.249102
-0.750346 0.180126 -0.226823
-0.434069 -0.0327364 -0.101954
-0.740387 0.234009 -0.434876
-0.727982 0.151647 -0.414741
-0.737266 0.0484382 -0.302088
-0.478936 -0.0320231 -0.292426
-0.444275 0.0972333 -0.183689
-0.369691 -0.00339579 -0.0999892
-0.637851 0.112599 -0.254057
-0.746853 -0.229155 -0.415541
-1.0713 0.0493354 -0.438434
-0.165809 0.325428 0.00390865
-0.72059 0.297164 -0.374966
-1.09074 0.259136 -0.202813
-0.730942 0.0480227 -0.273358
-0.741069 0.0198058 -0.181591
-0.74978 0.0499614 -0.23138
-0.756912 0.0215037 -0.134417
-0.481235 -0.055419 -0.292358
-0.0392526 0.252388 0.289469
-0.729676 -0.109972 -0.267958
-0.572285 0.00220327 -0.227758
-0.749106 -0.135304 0.209105
-0.525783 -0.262883 -0.113915
-0.809307 -0.592309 -0.214702
-0.682352 -0.0373961 -0.280047
-0.704419 0.235499 -0.0928223
-0.926663 0.481481 -0.134337
-0.306286 0.216467 -0.316853
-0.718805 0.16698 0.0456753
-0.874901 0.506308 -0.5859
0.166147 -0.446184 -0.685444
-1.01612 0.0456391 -0.170597
-0.748691 -0.016841 0.206505
-0.580715 -0.2412 -0.360255
-0.744631 -0.134496 0.0203071
-0.207771 0.0374521 -0.0789093
-0.602832 0.144916 -0.693117
-0.581102 -0.101463 -0.251552
-0.337468 -0.0321881 -0.148276
-0.584463 0.124729 -0.391862
-0.470583 0.131677 -0.191464
-0.881514 -0.192444 0.0127857
-0.395523 0.441468 -0.208144
-0.724818 0.29843 0.0262767
0.0154589 -0.0641846 -0.44029
-0.721152 0.128851 -0.281002
-0.245697 0.242776 -1.49689
-0.62625 0.159735 0.117449
-0.201623 -0.0439977 -0.20037
-0.55464 -0.0743018 -0.319657
-0.419727 -0.0188315 -0.340913
-1.03713 -0.876745 -0.659154
-0.411832 -0.234231 0.113477
-0.0258085 0.351569 0.239459
-0.767814 -0.0177079 -0.259529
-0.714072 -0.386294 -0.472311
-0.717848 0.128261 -0.0383829
-0.721155 -0.0267903 0.137828
-0.717929 -0.0266705 0.052672
-0.732633 -0.171112 -0.286821
-0.72901 -0.109871 0.294322
-0.198361 -0.491415 0.0813355
-0.732088 -0.170985 0.162949
-0.54179 -0.119024 -0.134839
-0.644309 0.0703581 -0.211169
-0.713952 0.262107 -0.145066
-0.321792 0.887494 -1.29481
0.0 0.0 -2.04187
-0.699633 0.287853 0.257805
0.0 0.0 -2.0557
-0.603435 0.12284 -0.126299
0.0 0.0 -2.0454
0.0 0.0 -2.02088
0.0 0.0 -2.00508
0.0 0.0 -2.01215
0.0 0.0 -1.99066
0.0 0.0 -2.00185
0.0 0.0 -1.98958
0.0 0.0 -1.98615
0.0 0.0 -1.9783
0.0 0.0 -1.9834
0.0 0.0 -1.96192
0.0 0.0 -1.96045
0.0 0.0 -1.95996
0.0 0.0 -1.93936
0.0 0.0 -1.94191
0.0 0.0 -1.91934
0.0 0.0 -1.91454
0.0 0.0 -1.89511
0.0 0.0 -1.90855
0.0 0.0 -1.89531
0.0 0.0 -1.90178
0.0 0.0 -1.90178
0.0 0.0 -1.89747
0.0 0.0 -1.87971
0.0 0.0 -1.88952
0.0 0.0 -1.87
0.0 0.0 -1.82811
0.0 0.0 -1.82046
0.0 0.0 -1.81202
0.0 0.0 -1.80192
0.0 0.0 -1.80565
0.0 0.0 -1.78485
0.0 0.0 -1.78652
0.0 0.0 -1.77278
0.0 0.0 -1.77249
0.0 0.0 -1.77739
0.0 0.0 -1.76935
0.0 0.0 -1.74757
0.0 0.0 -1.74325
0.0 0.0 -1.74983
0.0 0.0 -1.71755
0.0 0.0 -1.72609
0.0 0.0 -1.72628
0.0 0.0 -1.71088
0.0 0.0 -1.70117
0.0 0.0 -1.70274
0.0 0.0 -1.68587
0.0 0.0 -1.68567
0.0 0.0 -1.67429
0.0 0.0 -1.66252
0.0 0.0 -1.66625
0.0 0.0 -1.67086
0.0 0.0 -1.65084
0.0 0.0 -1.62632
0.0 0.0 -1.61219
0.0 0.0 -1.61416
0.0 0.0 -1.62583
0.0 0.0 -1.61406
0.0 0.0 -1.61739
0.0 0.0 -1.58885
0.0 0.0 -1.58551
0.0 0.0 -1.53921
0.0 0.0 -1.55961
0.0 0.0 -1.55775
0.0 0.0 -1.56118
0.0 0.0 -1.54853
0.0 0.0 -1.53342
0.0 0.0 -1.4984
0.0 0.0 -1.51086
0.0 0.0 -1.49339
0.0 0.0 -1.50418
0.0 0.0 -1.48133
0.0 0.0 -1.47878
0.0 0.0 -1.4671
0.0 0.0 -1.48613
0.0 0.0 -1.44248
0.0 0.0 -1.44954
0.0 0.0 -1.45435
0.0 0.0 -1.45621
0.0 0.0 -1.45886
0.0 0.0 -1.43895
0.0 0.0 -1.42266
0.0 0.0 -1.43081
0.0 0.0 -1.42757
0.0 0.0 -1.39451
0.0 0.0 -1.41285
0.0 0.0 -1.39098
0.0 0.0 -1.38725
0.0 0.0 -1.3797
0.0 0.0 -1.34997
0.0 0.0 -1.34507
0.0 0.0 -1.34193
0.0 0.0 -1.34821
0.0 0.0 -1.33555
0.0 0.0 -1.32751
0.0 0.0 -1.32947
0.0 0.0 -1.32898
0.0 0.0 -1.31269
0.0 0.0 -1.30043
0.0 0.0 -1.29984
0.0 0.0 -1.27993
0.0 0.0 -1.25893
0.0 0.0 -1.25256
0.0 0.0 -1.26315
0.0 0.0 -1.27512
0.0 0.0 -1.22617
0.0 0.0 -1.22499
0.0 0.0 -1.24706
0.0 0.0 -1.24765
0.0 0.0 -1.21204
0.0 0.0 -1.19958
0.0 0.0 -1.21695
0.0 0.0 -1.2194
0.0 0.0 -1.17947
0.0 0.0 -1.18193
0.0 0.0 -1.19007
0.0 0.0 -1.14896
0.0 0.0 -1.13739
0.0 0.0 -1.14328
0.0 0.0 -1.1524
0.0 0.0 -1.15063
0.0 0.0 -1.0954
0.0 0.0 -1.12169
0.0 0.0 -1.10531
0.0 0.0 -1.11208
0.0 0.0 -1.07539
0.0 0.0 -1.07873
0.0 0.0 -1.09305
0.0 0.0 -1.09315
0.0 0.0 -1.03733
0.0 0.0 -1.04478
0.0 0.0 -1.03811
0.0 0.0 -1.04949
0.0 0.0 -1.02968
0.0 0.0 -1.0179
0.0 0.0 -1.02379
0.0 0.0 -1.01476
-0 0.0 -1.0
-0 0.0 -1.0
-0 0.0 -1.0
-0 0.0 -1.0
SCALARS radius float 1
LOOKUP_TABLE default
0.0025
0.0015
0.0015
0.0015
0.0025
0.0015
0.0015
0.0025
0.0015
0.0015
0.0015
0.0015
0.0015
0.0025
0.0015
0.0015
0.0025
0.0015
0.0025
0.0015
0.0015
0.0025
0.0025
0.0025
0.0015
0.0025
0.0015
0.0015
0.0015
0.0025
0.0015
0.0015
0.0015
0.0015
0.0015
0.0015
0.0015
0.0015
0.0025
0.0015
0.0015
0.0015
0.0015
0.0025
0.0015
0.0025
0.0015
0.0015
0.0015
0.0015
0.0015
0.0025
0.0015
0.0025
0.0015
0.0025
0.0015
0.0025
0.0015
0.0025
0.0025
0.0025
0.0015
0.0015
0.0025
0.0015
0.0015
0.0015
0.0015
0.0015
0.0025
0.0015
0.0015
0.0015
0.0015
0.0015
0.0015
0.0025
0.0015
0.0025
0.0025
0.0015
0.0025
0.0025
0.0015
0.0015
0.0025
0.0015
0.0015
0.0015
0.0015
0.0015
0.0025
0.0015
0.0015
0.0025
0.0025
0.0025
0.0015
0.0015
0.0025
0.0015
0.0015
0.0015
0.0015
0.0025
0.0025
0.0025
0.0015
0.0015
0.0025
0.0015
0.0015
0.0025
0.0015
0.0015
0.0015
0.0025
0.0015
0.0025
0.0015
0.0015
0.0015
0.0015
0.0025
0.0015
0.0015
0.0025
0.0025
0.0025
0.0015
0.0015
0.0025
0.0025
0.0015
0.0015
0.0015
0.0015
0.0025
0.0015
0.0015
0.0015
0.0015
0.0015
0.0015
0.0025
0.0015
0.0015
0.0025
0.0025
0.0025
0.0015
0.0015
0.0015
0.0025
0.0015
0.0015
0.0015
0.0025
0.0015
0.0025
0.0015
0.0015
0.0015
0.0015
0.0015
0.0015
0.0015
0.0025
0.0015
0.0015
0.0025
0.0025
0.0015
0.0015
0.0025
0.0015
0.0015
0.0025
0.0015
0.0015
0.0015
0.0025
0.0015
0.0025
0.0015
0.0025
0.0025
0.0015
0.0015
0.0015
0.0015
0.0015
0.0015
0.0025
0.0015
0.0025
0.0015
0.0025
0.0015
0.0015
0.0015
0.0025
0.0015
0.0015
0.0015
0.0015
0.0025
0.0015
0.0015
0.0025
0.0015
0.0025
0.0015
0.0015
0.0015
0.0025
0.0025
0.0015
0.0025
0.0015
0.0015
0.0015
0.0015
0.0015
0.0015
0.0015
0.0025
0.0025
0.0025
SCALARS type float 1
LOOKUP_TABLE default
1.0
1.0
1.0
1.0
1.0
1.0
1.0
1.0
1.0
1.0
1.0
1.0
1.0
1.0
1.0
1.0
1.0
1.0
1.0
1.0
1.0
1.0
1.0
1.0
1.0
1.0
1.0
1.0
1.0
1.0
1.0
1.0
1.0
1.0
1.0
1.0
1.0
1.0
1.0
1.0
1.0
1.0
1.0
1.0
1.0
1.0
1.0
1.0
1.0
1.0
1.0
1.0
1.0
1.0
1.0
1.0
1.0
1.0
1.0
1.0
1.0
1.0
1.0
1.0
1.0
1.0
1.0
1.0
1.0
1.0
1.0
1.0
1.0
1.0
1.0
1.0
1.0
1.0
1.0
1.0
1.0
1.0
1.0
1.0
1.0
1.0
1.0
1.0
1.0
1.0
1.0
1.0
1.0
1.0
1.0
1.0
1.0
1.0
1.0
1.0
1.0
1.0
1.0
1.0
1.0
1.0
1.0
1.0
1.0
1.0
1.0
1.0
1.0
1.0
1.0
1.0
1.0
1.0
1.0
1.0
1.0
1.0
1.0
1.0
1.0
1.0
1.0
1.0
1.0
1.0
1.0
1.0
1.0
1.0
1.0
1.0
1.0
1.0
1.0
1.0
1.0
1.0
1.0
1.0
1.0
1.0
1.0
1.0
1.0
1.0
1.0
1.0
1.0
1.0
1.0
1.0
1.0
1.0
1.0
1.0
1.0
1.0
1.0
1.0
1.0
1.0
1.0
1.0
1.0
1.0
1.0
1.0
1.0
1.0
1.0
1.0
1.0
1.0
1.0
1.0
1.0
1.0
1.0
1.0
1.0
1.0
1.0
1.0
1.0
1.0
1.0
1.0
1.0
1.0
1.0
1.0
1.0
1.0
1.0
1.0
1.0
1.0
1.0
1.0
1.0
1.0
1.0
1.0
1.0
1.0
1.0
1.0
1.0
1.0
1.0
1.0
1.0
1.0
1.0
1.0
1.0
1.0
1.0
1.0
1.0
1.0
1.0
1.0
1.0
1.0
SCALARS id float 1
LOOKUP_TABLE default
4.0
31.0
38.0
36.0
30.0
12.0
50.0
3.0
5.0
23.0
35.0
33.0
8.0
52.0
19.0
18.0
28.0
21.0
1.0
24.0
37.0
2.0
39.0
29.0
44.0
16.0
11.0
47.0
9.0
26.0
71.0
10.0
20.0
17.0
32.0
60.0
74.0
6.0
27.0
88.0
34.0
75.0
45.0
41.0
48.0
15.0
56.0
51.0
63.0
76.0
81.0
65.0
57.0
13.0
43.0
54.0
62.0
42.0
70.0
79.0
66.0
55.0
59.0
22.0
78.0
83.0
73.0
49.0
25.0
72.0
68.0
61.0
85.0
7.0
46.0
69.0
64.0
14.0
84.0
67.0
77.0
58.0
53.0
40.0
89.0
102.0
80.0
87.0
82.0
86.0
95.0
98.0
94.0
97.0
100.0
92.0
91.0
90.0
99.0
101.0
93.0
96.0
113.0
114.0
115.0
105.0
106.0
107.0
112.0
110.0
103.0
109.0
111.0
104.0
108.0
123.0
125.0
120.0
122.0
117.0
126.0
121.0
127.0
128.0
116.0
124.0
138.0
118.0
119.0
132.0
139.0
133.0
131.0
130.0
140.0
137.0
136.0
135.0
129.0
141.0
134.0
149.0
153.0
146.0
152.0
143.0
148.0
151.0
142.0
144.0
155.0
147.0
154.0
150.0
145.0
163.0
165.0
160.0
157.0
159.0
158.0
162.0
166.0
161.0
175.0
176.0
173.0
164.0
156.0
172.0
178.0
168.0
170.0
179.0
171.0
167.0
177.0
174.0
169.0
192.0
191.0
185.0
182.0
186.0
180.0
184.0
183.0
181.0
190.0
188.0
200.0
204.0
189.0
187.0
196.0
205.0
195.0
198.0
193.0
201.0
197.0
203.0
194.0
199.0
202.0
212.0
217.0
209.0
215.0
216.0
206.0
218.0
207.0
211.0
214.0
213.0
208.0
210.0
226.0
219.0
228.0
223.0
229.0
227.0
224.0
230.0
225.0
221.0
220.0
222.0

