# vtk DataFile Version 2.0
Generated by lpp.py
ASCII
DATASET POLYDATA
POINTS 128 float
-0.00174714 -0.029557 -0.0745201
-0.0346734 -0.00599195 -0.0749747
-0.00894204 -0.00172108 -0.0775964
-0.0106535 0.00311808 -0.0770753
-0.0241534 0.031784 -0.0764212
-0.0255875 0.0216478 -0.0723441
-0.00953586 -0.0287916 -0.0688571
-0.00462371 -0.0298822 -0.065247
-0.0270088 -0.00882918 -0.0654261
-0.0134792 0.0074157 -0.0636748
-0.0266102 0.013684 -0.0637099
-0.00857183 0.0107813 -0.062096
-0.0280307 0.022667 -0.062693
-0.0202974 -0.0206343 -0.0598383
-0.0083641 -0.0195 -0.0584997
-0.0101549 -0.00442827 -0.0567068
-0.0253454 -0.000700049 -0.0576734
-0.00408721 0.01129 -0.0597966
-0.0335467 0.0344165 -0.0590222
-0.00454319 -0.0294115 -0.0550877
-0.0333391 -0.019004 -0.0518707
-0.00618745 0.0189444 -0.0518895
-0.0332823 -0.00448395 -0.0472475
-0.00741847 0.0112937 -0.0457036
-0.0165601 0.0229939 -0.0448855
-0.0138262 0.0291618 -0.0432304
-0.0127396 -0.0117751 -0.0390578
-0.022531 -0.00019371 -0.0418623
-0.000459601 0.00699661 -0.0399689
-0.0219947 -0.0332201 -0.03583
-0.0230202 -0.0250033 -0.0355971
-0.0290883 0.000876534 -0.037716
-0.0254317 0.00979368 -0.0388913
-0.0177649 0.0224168 -0.0369144
-0.0160817 -0.03192 -0.0335672
-0.020721 -0.0278475 -0.0320367
-0.0297813 -0.0200888 -0.029448
-0.0159539 -0.0280969 -0.0282269
-0.0097629 0.0296421 -0.0251388
-0.00180681 -0.0218065 -0.0233968
-0.0159102 0.00235532 -0.0241746
-0.022228 0.00485213 -0.0236356
-0.0279742 -1.04943e-05 -0.0186146
-0.0218847 0.0256262 -0.0183252
-0.0160508 0.0304724 -0.0178361
-0.022804 -0.0315502 -0.0165226
-0.0105626 -0.0145818 -0.0173302
-0.0175025 -0.0121213 -0.0155833
-0.0294843 -0.0347245 -0.0116854
-0.0302313 -0.00571197 -0.0111223
-0.0312011 0.00531382 -0.0137926
-0.0196938 0.0042356 -0.0136706
-0.0046838 0.0252416 -0.0108699
-0.00163565 -0.0222313 -0.00737559
-0.0221544 -0.0176068 -0.00831055
-0.0185443 0.0109203 -0.00787605
-0.0131635 0.0258143 -0.00879721
-0.00481478 0.0323336 -0.0105286
-0.00206763 -0.0165007 -0.00583373
-0.0250204 0.00245318 -0.00582305
-0.0188291 -0.0247488 -0.0010993
-0.0205837 -0.0117427 -0.00117141
-0.00322644 0.00785004 -0.00241658
-0.00317446 -0.00307391 0.00273116
-0.0136213 0.0102173 0.000371473
-0.0183282 0.020832 0.00368672
-0.0086291 0.0212435 0.00513003
-0.00331379 0.000112052 0.00912882
-0.0313469 0.00594264 0.010414
-0.0161255 0.0259916 0.00905134
-0.0113639 -0.028821 0.0138735
-0.0132118 -0.0142448 0.0132965
-0.0101315 -0.00307891 0.0116944
-0.021885 0.00637934 0.012646
-0.0339596 0.0247152 0.0140145
-0.0222205 0.0252752 0.0129749
-0.0246928 0.0149576 0.0168065
-0.00512449 0.0194276 0.0175487
-0.016039 -0.0311912 0.0192759
-0.0338446 -0.00790771 0.0202479
-0.006758 -0.00933802 0.0197073
-0.0138041 0.00231809 0.0180109
-0.0261342 0.0289343 0.0212993
-0.0166674 -0.0133665 0.0233119
-0.0307162 0.0123479 0.0223614
-0.0267621 -0.0316048 0.0277904
-0.0153514 -0.0285466 0.0273982
-0.0216846 0.010562 0.0260909
-0.011833 0.030812 0.0262831
-0.0266174 0.0340944 0.0273629
-0.016986 -0.00213434 0.0303326
-0.0329725 0.0296342 0.0313748
-0.020149 -0.0334448 0.0339107
-0.0135716 -0.0190259 0.0325958
-0.0292811 0.00645928 0.034443
-0.0333375 0.0110949 0.0340363
-0.0143727 0.015853 0.0353488
-0.0294235 0.0177987 0.0322151
-0.00439906 0.0240922 0.0347623
-0.00739645 -0.0185545 0.0372276
-0.0265909 0.0159092 0.0373993
-0.0159897 0.0274334 0.0374555
-0.0161861 -0.026381 0.0419907
-0.0275469 -0.0163611 0.0397828
-0.00301846 -0.0111451 0.0425217
-0.0102956 -0.00169209 0.0394966
-0.00205293 -0.0206571 0.0446163
-0.0318002 -0.0148599 0.0462591
-0.0273253 -0.00441029 0.0431678
-0.0112712 -0.00229192 0.0446029
-0.0135333 0.000602269 0.0438988
-0.00791609 0.00384723 0.0439045
-0.0192779 0.00722911 0.04522
-2.29018e-06 0.0149512 0.0443648
-0.0322225 0.032442 0.0472759
-0.0125785 -0.0210623 0.0532253
-0.0125841 -0.0111545 0.0515868
-0.00679321 -0.00388229 0.052361
-0.0148309 -0.0333609 0.0559917
-0.0191843 -0.0162196 0.054254
-0.0143544 -0.00143019 0.0538747
-0.0290047 0.00352617 0.0558243
-0.0158354 0.0147935 0.0567576
-0.0227292 -0.0112057 0.0572257
-0.00193271 -0.0127941 0.0602339
-0.0208061 0.000145103 0.0572535
-0.0114065 0.0295451 0.0575711
-0.00304704 0.0316877 0.0595671
VERTICES 128 256
1 0
1 1
1 2
1 3
1 4
1 5
1 6
1 7
1 8
1 9
1 10
1 11
1 12
1 13
1 14
1 15
1 16
1 17
1 18
1 19
1 20
1 21
1 22
1 23
1 24
1 25
1 26
1 27
1 28
1 29
1 30
1 31
1 32
1 33
1 34
1 35
1 36
1 37
1 38
1 39
1 40
1 41
1 42
1 43
1 44
1 45
1 46
1 47
1 48
1 49
1 50
1 51
1 52
1 53
1 54
1 55
1 56
1 57
1 58
1 59
1 60
1 61
1 62
1 63
1 64
1 65
1 66
1 67
1 68
1 69
1 70
1 71
1 72
1 73
1 74
1 75
1 76
1 77
1 78
1 79
1 80
1 81
1 82
1 83
1 84
1 85
1 86
1 87
1 88
1 89
1 90
1 91
1 92
1 93
1 94
1 95
1 96
1 97
1 98
1 99
1 100
1 101
1 102
1 103
1 104
1 105
1 106
1 107
1 108
1 109
1 110
1 111
1 112
1 113
1 114
1 115
1 116
1 117
1 118
1 119
1 120
1 121
1 122
1 123
1 124
1 125
1 126
1 127
POINT_DATA 128
VECTORS i float
0.0 0.0 0.0
0.0 0.0 0.0
0.0 0.0 0.0
0.0 0.0 0.0
0.0 0.0 0.0
0.0 0.0 0.0
0.0 0.0 0.0
0.0 0.0 0.0
0.0 0.0 0.0
0.0 0.0 0.0
0.0 0.0 0.0
0.0 0.0 0.0
0.0 0.0 0.0
0.0 0.0 0.0
0.0 0.0 0.0
0.0 0.0 0.0
0.0 0.0 0.0
0.0 0.0 0.0
0.0 0.0 0.0
0.0 0.0 0.0
0.0 0.0 0.0
0.0 0.0 0.0
0.0 0.0 0.0
0.0 0.0 0.0
0.0 0.0 0.0
0.0 0.0 0.0
0.0 0.0 0.0
0.0 0.0 0.0
0.0 0.0 0.0
0.0 0.0 0.0
0.0 0.0 0.0
0.0 0.0 0.0
0.0 0.0 0.0
0.0 0.0 0.0
0.0 0.0 0.0
0.0 0.0 0.0
0.0 0.0 0.0
0.0 0.0 0.0
0.0 0.0 0.0
0.0 0.0 0.0
0.0 0.0 0.0
0.0 0.0 0.0
0.0 0.0 0.0
0.0 0.0 0.0
0.0 0.0 0.0
0.0 0.0 0.0
0.0 0.0 0.0
0.0 0.0 0.0
0.0 0.0 0.0
0.0 0.0 0.0
0.0 0.0 0.0
0.0 0.0 0.0
0.0 0.0 0.0
0.0 0.0 0.0
0.0 0.0 0.0
0.0 0.0 0.0
0.0 0.0 0.0
0.0 0.0 0.0
0.0 0.0 0.0
0.0 0.0 0.0
0.0 0.0 0.0
0.0 0.0 0.0
0.0 0.0 0.0
0.0 0.0 0.0
0.0 0.0 0.0
0.0 0.0 0.0
0.0 0.0 0.0
0.0 0.0 0.0
0.0 0.0 0.0
0.0 0.0 0.0
0.0 0.0 0.0
0.0 0.0 0.0
0.0 0.0 0.0
0.0 0.0 0.0
0.0 0.0 0.0
0.0 0.0 0.0
0.0 0.0 0.0
0.0 0.0 0.0
0.0 0.0 0.0
0.0 0.0 0.0
0.0 0.0 0.0
0.0 0.0 0.0
0.0 0.0 0.0
0.0 0.0 0.0
0.0 0.0 0.0
0.0 0.0 0.0
0.0 0.0 0.0
0.0 0.0 0.0
0.0 0.0 0.0
0.0 0.0 0.0
0.0 0.0 0.0
0.0 0.0 0.0
0.0 0.0 0.0
0.0 0.0 0.0
0.0 0.0 0.0
0.0 0.0 0.0
0.0 0.0 0.0
0.0 0.0 0.0
0.0 0.0 0.0
0.0 0.0 0.0
0.0 0.0 0.0
0.0 0.0 0.0
0.0 0.0 0.0
0.0 0.0 0.0
0.0 0.0 0.0
0.0 0.0 0.0
0.0 0.0 0.0
0.0 0.0 0.0
0.0 0.0 0.0
0.0 0.0 0.0
0.0 0.0 0.0
0.0 0.0 0.0
0.0 0.0 0.0
0.0 0.0 0.0
0.0 0.0 0.0
0.0 0.0 0.0
0.0 0.0 0.0
0.0 0.0 0.0
0.0 0.0 0.0
0.0 0.0 0.0
0.0 0.0 0.0
0.0 0.0 0.0
0.0 0.0 0.0
0.0 0.0 0.0
0.0 0.0 0.0
0.0 0.0 0.0
0.0 0.0 0.0
0.0 0.0 0.0
VECTORS f float
0.0 0.0 -0.00160516
0.0 0.0 -0.00160516
0.0 0.0 -0.000346714
0.0 0.0 -0.000346714
0.0 0.0 -0.000346714
0.0 0.0 -0.00160516
0.0 0.0 -0.000346714
0.0 0.0 -0.000346714
0.0 0.0 -0.000346714
0.0 0.0 -0.00160516
0.0 0.0 -0.000346714
0.0 0.0 -0.000346714
0.0 0.0 -0.000346714
0.0 0.0 -0.000346714
0.0 0.0 -0.000346714
0.0 0.0 -0.000346714
0.0 0.0 -0.000346714
0.0 0.0 -0.00160516
0.0 0.0 -0.000346714
0.0 0.0 -0.00160516
0.0 0.0 -0.000346714
0.0 0.0 -0.00160516
0.0 0.0 -0.000346714
0.0 0.0 -0.00160516
0.0 0.0 -0.000346714
0.0 0.0 -0.000346714
0.0 0.0 -0.000346714
0.0 0.0 -0.00160516
0.0 0.0 -0.00160516
0.0 0.0 -0.00160516
0.0 0.0 -0.000346714
0.0 0.0 -0.000346714
0.0 0.0 -0.000346714
0.0 0.0 -0.000346714
0.0 0.0 -0.00160516
0.0 0.0 -0.000346714
0.0 0.0 -0.000346714
0.0 0.0 -0.00160516
0.0 0.0 -0.000346714
0.0 0.0 -0.00160516
0.0 0.0 -0.00160516
0.0 0.0 -0.000346714
0.0 0.0 -0.000346714
0.0 0.0 -0.000346714
0.0 0.0 -0.00160516
0.0 0.0 -0.000346714
0.0 0.0 -0.000346714
0.0 0.0 -0.000346714
0.0 0.0 -0.00160516
0.0 0.0 -0.00160516
0.0 0.0 -0.000346714
0.0 0.0 -0.000346714
0.0 0.0 -0.00160516
0.0 0.0 -0.00160516
0.0 0.0 -0.000346714
0.0 0.0 -0.000346714
0.0 0.0 -0.000346714
0.0 0.0 -0.000346714
0.0 0.0 -0.000346714
0.0 0.0 -0.000346714
0.0 0.0 -0.00160516
0.0 0.0 -0.000346714
0.0 0.0 -0.000346714
0.0 0.0 -0.000346714
0.0 0.0 -0.000346714
0.0 0.0 -0.00160516
0.0 0.0 -0.00160516
0.0 0.0 -0.000346714
0.0 0.0 -0.000346714
0.0 0.0 -0.000346714
0.0 0.0 -0.00160516
0.0 0.0 -0.000346714
0.0 0.0 -0.000346714
0.0 0.0 -0.00160516
0.0 0.0 -0.000346714
0.0 0.0 -0.000346714
0.0 0.0 -0.000346714
0.0 0.0 -0.00160516
0.0 0.0 -0.00160516
0.0 0.0 -0.00160516
0.0 0.0 -0.000346714
0.0 0.0 -0.000346714
0.0 0.0 -0.000346714
0.0 0.0 -0.000346714
0.0 0.0 -0.000346714
0.0 0.0 -0.000346714
0.0 0.0 -0.00160516
0.0 0.0 -0.000346714
0.0 0.0 -0.000346714
0.0 0.0 -0.000346714
0.0 0.0 -0.000346714
0.0 0.0 -0.00160516
0.0 0.0 -0.000346714
0.0 0.0 -0.000346714
0.0 0.0 -0.00160516
0.0 0.0 -0.00160516
0.0 0.0 -0.00160516
0.0 0.0 -0.000346714
0.0 0.0 -0.000346714
0.0 0.0 -0.000346714
0.0 0.0 -0.00160516
0.0 0.0 -0.000346714
0.0 0.0 -0.000346714
0.0 0.0 -0.000346714
0.0 0.0 -0.00160516
0.0 0.0 -0.000346714
0.0 0.0 -0.00160516
0.0 0.0 -0.000346714
0.0 0.0 -0.00160516
0.0 0.0 -0.000346714
0.0 0.0 -0.000346714
0.0 0.0 -0.00160516
0.0 0.0 -0.00160516
0.0 0.0 -0.000346714
0.0 0.0 -0.000346714
0.0 0.0 0.0
0.0 0.0 0.0
0.0 0.0 0.0
0.0 0.0 0.0
0.0 0.0 0.0
0.0 0.0 0.0
0.0 0.0 0.0
0.0 0.0 0.0
0.0 0.0 0.0
0.0 0.0 0.0
0.0 0.0 0.0
0.0 0.0 0.0
0.0 0.0 0.0
VECTORS omega float
0.0 0.0 0.0
0.0 0.0 0.0
0.0 0.0 0.0
0.0 0.0 0.0
0.0 0.0 0.0
0.0 0.0 0.0
0.0 0.0 0.0
0.0 0.0 0.0
0.0 0.0 0.0
0.0 0.0 0.0
0.0 0.0 0.0
0.0 0.0 0.0
0.0 0.0 0.0
0.0 0.0 0.0
0.0 0.0 0.0
0.0 0.0 0.0
0.0 0.0 0.0
0.0 0.0 0.0
0.0 0.0 0.0
0.0 0.0 0.0
0.0 0.0 0.0
0.0 0.0 0.0
0.0 0.0 0.0
0.0 0.0 0.0
0.0 0.0 0.0
0.0 0.0 0.0
0.0 0.0 0.0
0.0 0.0 0.0
0.0 0.0 0.0
0.0 0.0 0.0
0.0 0.0 0.0
0.0 0.0 0.0
0.0 0.0 0.0
0.0 0.0 0.0
0.0 0.0 0.0
0.0 0.0 0.0
0.0 0.0 0.0
0.0 0.0 0.0
0.0 0.0 0.0
0.0 0.0 0.0
0.0 0.0 0.0
0.0 0.0 0.0
0.0 0.0 0.0
0.0 0.0 0.0
0.0 0.0 0.0
0.0 0.0 0.0
0.0 0.0 0.0
0.0 0.0 0.0
0.0 0.0 0.0
0.0 0.0 0.0
0.0 0.0 0.0
0.0 0.0 0.0
0.0 0.0 0.0
0.0 0.0 0.0
0.0 0.0 0.0
0.0 0.0 0.0
0.0 0.0 0.0
0.0 0.0 0.0
0.0 0.0 0.0
0.0 0.0 0.0
0.0 0.0 0.0
0.0 0.0 0.0
0.0 0.0 0.0
0.0 0.0 0.0
0.0 0.0 0.0
0.0 0.0 0.0
0.0 0.0 0.0
0.0 0.0 0.0
0.0 0.0 0.0
0.0 0.0 0.0
0.0 0.0 0.0
0.0 0.0 0.0
0.0 0.0 0.0
0.0 0.0 0.0
0.0 0.0 0.0
0.0 0.0 0.0
0.0 0.0 0.0
0.0 0.0 0.0
0.0 0.0 0.0
0.0 0.0 0.0
0.0 0.0 0.0
0.0 0.0 0.0
0.0 0.0 0.0
0.0 0.0 0.0
0.0 0.0 0.0
0.0 0.0 0.0
0.0 0.0 0.0
0.0 0.0 0.0
0.0 0.0 0.0
0.0 0.0 0.0
0.0 0.0 0.0
0.0 0.0 0.0
0.0 0.0 0.0
0.0 0.0 0.0
0.0 0.0 0.0
0.0 0.0 0.0
0.0 0.0 0.0
0.0 0.0 0.0
0.0 0.0 0.0
0.0 0.0 0.0
0.0 0.0 0.0
0.0 0.0 0.0
0.0 0.0 0.0
0.0 0.0 0.0
0.0 0.0 0.0
0.0 0.0 0.0
0.0 0.0 0.0
0.0 0.0 0.0
0.0 0.0 0.0
0.0 0.0 0.0
0.0 0.0 0.0
0.0 0.0 0.0
0.0 0.0 0.0
0.0 0.0 0.0
0.0 0.0 0.0
0.0 0.0 0.0
0.0 0.0 0.0
0.0 0.0 0.0
0.0 0.0 0.0
0.0 0.0 0.0
0.0 0.0 0.0
0.0 0.0 0.0
0.0 0.0 0.0
0.0 0.0 0.0
0.0 0.0 0.0
0.0 0.0 0.0
0.0 0.0 0.0
0.0 0.0 0.0
VECTORS v float
0.0 0.0 -1.85558
0.0 0.0 -1.85793
0.0 0.0 -1.87177
0.0 0.0 -1.86902
0.0 0.0 -1.86559
0.0 0.0 -1.844
0.0 0.0 -1.82536
0.0 0.0 -1.80584
0.0 0.0 -1.80682
0.0 0.0 -1.79731
0.0 0.0 -1.7975
0.0 0.0 -1.78867
0.0 0.0 -1.79191
0.0 0.0 -1.77622
0.0 0.0 -1.76886
0.0 0.0 -1.75885
0.0 0.0 -1.76425
0.0 0.0 -1.77602
0.0 0.0 -1.7717
0.0 0.0 -1.74983
0.0 0.0 -1.73168
0.0 0.0 -1.73178
0.0 0.0 -1.70529
0.0 0.0 -1.69636
0.0 0.0 -1.69165
0.0 0.0 -1.68204
0.0 0.0 -1.65752
0.0 0.0 -1.674
0.0 0.0 -1.66291
0.0 0.0 -1.63829
0.0 0.0 -1.63691
0.0 0.0 -1.64957
0.0 0.0 -1.65653
0.0 0.0 -1.64476
0.0 0.0 -1.62465
0.0 0.0 -1.61543
0.0 0.0 -1.59964
0.0 0.0 -1.59208
0.0 0.0 -1.57295
0.0 0.0 -1.56206
0.0 0.0 -1.56697
0.0 0.0 -1.56354
0.0 0.0 -1.53175
0.0 0.0 -1.52989
0.0 0.0 -1.52675
0.0 0.0 -1.51831
0.0 0.0 -1.52351
0.0 0.0 -1.51223
0.0 0.0 -1.48672
0.0 0.0 -1.483
0.0 0.0 -1.50056
0.0 0.0 -1.49977
0.0 0.0 -1.48133
0.0 0.0 -1.45798
0.0 0.0 -1.46426
0.0 0.0 -1.46132
0.0 0.0 -1.4675
0.0 0.0 -1.47907
0.0 0.0 -1.44758
0.0 0.0 -1.44748
0.0 0.0 -1.41511
0.0 0.0 -1.4156
0.0 0.0 -1.42423
0.0 0.0 -1.38833
0.0 0.0 -1.40491
0.0 0.0 -1.38156
0.0 0.0 -1.37126
0.0 0.0 -1.34232
0.0 0.0 -1.3329
0.0 0.0 -1.34291
0.0 0.0 -1.3072
0.0 0.0 -1.31152
0.0 0.0 -1.32348
0.0 0.0 -1.31642
0.0 0.0 -1.30612
0.0 0.0 -1.31397
0.0 0.0 -1.28503
0.0 0.0 -1.27934
0.0 0.0 -1.266
0.0 0.0 -1.25844
0.0 0.0 -1.26266
0.0 0.0 -1.27581
0.0 0.0 -1.2502
0.0 0.0 -1.23431
0.0 0.0 -1.24187
0.0 0.0 -1.19821
0.0 0.0 -1.20145
0.0 0.0 -1.21204
0.0 0.0 -1.21047
0.0 0.0 -1.20174
0.0 0.0 -1.17722
0.0 0.0 -1.16849
0.0 0.0 -1.147
0.0 0.0 -1.15819
0.0 0.0 -1.14249
0.0 0.0 -1.14592
0.0 0.0 -1.13464
0.0 0.0 -1.16142
0.0 0.0 -1.13974
0.0 0.0 -1.11826
0.0 0.0 -1.11679
0.0 0.0 -1.1163
0.0 0.0 -1.07568
0.0 0.0 -1.0957
0.0 0.0 -1.07088
0.0 0.0 -1.09825
0.0 0.0 -1.05145
0.0 0.0 -1.03605
0.0 0.0 -1.06489
0.0 0.0 -1.05165
0.0 0.0 -1.05812
0.0 0.0 -1.05812
0.0 0.0 -1.04586
0.0 0.0 -1.05381
0.0 0.0 -1.02634
-0 0.0 -1.0
-0 0.0 -1.0
-0 0.0 -1.0
-0 0.0 -1.0
-0 0.0 -1.0
-0 0.0 -1.0
-0 0.0 -1.0
-0 0.0 -1.0
-0 0.0 -1.0
-0 0.0 -1.0
-0 0.0 -1.0
-0 0.0 -1.0
-0 0.0 -1.0
SCALARS radius float 1
LOOKUP_TABLE default
0.0025
0.0025
0.0015
0.0015
0.0015
0.0025
0.0015
0.0015
0.0015
0.0025
0.0015
0.0015
0.0015
0.0015
0.0015
0.0015
0.0015
0.0025
0.0015
0.0025
0.0015
0.0025
0.0015
0.0025
0.0015
0.0015
0.0015
0.0025
0.0025
0.0025
0.0015
0.0015
0.0015
0.0015
0.0025
0.0015
0.0015
0.0025
0.0015
0.0025
0.0025
0.0015
0.0015
0.0015
0.0025
0.0015
0.0015
0.0015
0.0025
0.0025
0.0015
0.0015
0.0025
0.0025
0.0015
0.0015
0.0015
0.0015
0.0015
0.0015
0.0025
0.0015
0.0015
0.0015
0.0015
0.0025
0.0025
0.0015
0.0015
0.0015
0.0025
0.0015
0.0015
0.0025
0.0015
0.0015
0.0015
0.0025
0.0025
0.0025
0.0015
0.0015
0.0015
0.0015
0.0015
0.0015
0.0025
0.0015
0.0015
0.0015
0.0015
0.0025
0.0015
0.0015
0.0025
0.0025
0.0025
0.0015
0.0015
0.0015
0.0025
0.0015
0.0015
0.0015
0.0025
0.0015
0.0025
0.0015
0.0025
0.0015
0.0015
0.0025
0.0025
0.0015
0.0015
0.0025
0.0015
0.0015
0.0015
0.0015
0.0025
0.0015
0.0025
0.0015
0.0025
0.0015
0.0015
0.0025
SCALARS type float 1
LOOKUP_TABLE default
1.0
1.0
1.0
1.0
1.0
1.0
1.0
1.0
1.0
1.0
1.0
1.0
1.0
1.0
1.0
1.0
1.0
1.0
1.0
1.0
1.0
1.0
1.0
1.0
1.0
1.0
1.0
1.0
1.0
1.0
1.0
1.0
1.0
1.0
1.0
1.0
1.0
1.0
1.0
1.0
1.0
1.0
1.0
1.0
1.0
1.0
1.0
1.0
1.0
1.0
1.0
1.0
1.0
1.0
1.0
1.0
1.0
1.0
1.0
1.0
1.0
1.0
1.0
1.0
1.0
1.0
1.0
1.0
1.0
1.0
1.0
1.0
1.0
1.0
1.0
1.0
1.0
1.0
1.0
1.0
1.0
1.0
1.0
1.0
1.0
1.0
1.0
1.0
1.0
1.0
1.0
1.0
1.0
1.0
1.0
1.0
1.0
1.0
1.0
1.0
1.0
1.0
1.0
1.0
1.0
1.0
1.0
1.0
1.0
1.0
1.0
1.0
1.0
1.0
1.0
1.0
1.0
1.0
1.0
1.0
1.0
1.0
1.0
1.0
1.0
1.0
1.0
1.0
SCALARS id float 1
LOOKUP_TABLE default
1.0
2.0
12.0
5.0
11.0
4.0
8.0
7.0
10.0
3.0
6.0
25.0
9.0
24.0
22.0
19.0
17.0
16.0
18.0
15.0
21.0
14.0
20.0
13.0
23.0
35.0
37.0
29.0
27.0
26.0
36.0
32.0
38.0
34.0
28.0
33.0
31.0
30.0
45.0
40.0
39.0
44.0
50.0
47.0
42.0
48.0
46.0
51.0
41.0
52.0
49.0
43.0
54.0
53.0
56.0
57.0
62.0
58.0
59.0
60.0
55.0
63.0
64.0
73.0
61.0
68.0
67.0
69.0
74.0
70.0
66.0
71.0
76.0
65.0
72.0
75.0
88.0
77.0
79.0
78.0
83.0
81.0
85.0
89.0
84.0
102.0
80.0
87.0
82.0
86.0
95.0
94.0
97.0
100.0
91.0
92.0
90.0
98.0
99.0
101.0
93.0
96.0
115.0
113.0
105.0
114.0
106.0
111.0
107.0
112.0
110.0
103.0
104.0
109.0
108.0
120.0
123.0
125.0
126.0
122.0
117.0
121.0
116.0
127.0
118.0
128.0
124.0
119.0

