# vtk DataFile Version 2.0
Generated by lpp.py
ASCII
DATASET POLYDATA
POINTS 475 float
-0.32434 -0.0533307 -0.22676
-0.273722 0.0162373 -0.220223
-0.265921 -0.0160558 -0.216033
-0.257176 -0.0198113 -0.212869
-0.256997 -0.013667 -0.213631
-0.253502 0.00685432 -0.211602
-0.2615 0.0280429 -0.212876
-0.24419 0.0141624 -0.208152
-0.245627 0.0229193 -0.207486
-0.242715 -0.0100124 -0.206904
-0.236027 -0.00632918 -0.205316
-0.242241 0.0237239 -0.20597
-0.224446 0.00589679 -0.200485
-0.230214 0.00950377 -0.20282
-0.232993 0.0220234 -0.202368
-0.241715 0.0313557 -0.203842
-0.328591 0.0737457 -0.2024
-0.220155 -0.0136265 -0.198028
-0.217157 -0.0113251 -0.196996
-0.21515 -0.00299983 -0.196725
-0.222969 0.00313572 -0.199926
-0.220735 0.000962434 -0.19904
-0.221916 0.00619534 -0.198849
-0.221602 0.00939787 -0.199216
-0.229508 0.0268652 -0.198797
-0.214171 -0.0144153 -0.194366
-0.211904 -0.000645658 -0.195305
-0.219912 0.0238194 -0.196612
-0.222413 0.0313651 -0.194746
-0.230352 0.0451125 -0.194668
-0.263783 -0.0694526 -0.192778
-0.204814 -0.00564753 -0.192335
-0.212198 0.0177355 -0.193166
-0.208728 0.0233256 -0.191996
-0.223768 0.0456637 -0.191853
-0.196804 -0.0230375 -0.186022
-0.201213 -0.0183306 -0.188464
-0.196986 -0.0144557 -0.188206
-0.194622 -0.0116415 -0.187523
-0.193934 0.00745993 -0.187629
-0.19325 0.0131655 -0.186799
-0.198121 0.0212659 -0.186875
-0.212895 -0.0505265 -0.184503
-0.192382 -0.00833249 -0.185769
-0.182775 -0.00456949 -0.182931
-0.188389 0.00939773 -0.184675
-0.193213 0.0197571 -0.185056
-0.187332 0.0199505 -0.183666
-0.196393 -0.0375929 -0.183644
-0.179772 -0.0170123 -0.180704
-0.179879 -0.00932628 -0.181614
-0.176867 -0.00759592 -0.17931
-0.178555 -0.00212734 -0.180948
-0.180991 0.0133639 -0.181611
-0.18167 0.0260483 -0.178979
-0.188687 0.0306328 -0.180977
-0.177247 -0.0237089 -0.177751
-0.170035 -0.0148893 -0.175885
-0.172583 -0.0127977 -0.178266
-0.166882 0.00914494 -0.176017
-0.176597 0.0237096 -0.178424
-0.174006 0.024959 -0.177103
-0.171336 0.0225281 -0.176446
-0.177469 -0.0439714 -0.173744
-0.164474 -0.000396504 -0.174253
-0.164607 0.00583692 -0.174284
-0.164712 0.012181 -0.174863
-0.159456 0.0106185 -0.172843
-0.154473 -0.0187119 -0.168899
-0.148075 -0.0140168 -0.167854
-0.149355 -0.0100424 -0.168684
-0.1484 -0.00676456 -0.168451
-0.149339 0.00130469 -0.168279
-0.171723 0.00734169 -0.173922
-0.156587 0.0072472 -0.170855
-0.152191 0.00404761 -0.170118
-0.152392 0.00945332 -0.168927
-0.155228 0.0157315 -0.170559
-0.154096 0.0185215 -0.169333
-0.193552 0.0657604 -0.170192
-0.14694 -0.030258 -0.164996
-0.142907 -0.0153746 -0.165509
-0.142036 -0.010792 -0.1656
-0.14331 -0.00660221 -0.165264
-0.151577 0.00131332 -0.163743
-0.160656 0.0119706 -0.167986
-0.146189 0.00683304 -0.165998
-0.146287 0.0144522 -0.165926
-0.151197 0.0144181 -0.167879
-0.143534 0.0172672 -0.165505
-0.147287 0.0245929 -0.166145
-0.192981 -0.0747747 -0.163942
-0.153609 -0.0249977 -0.16484
-0.132033 -0.0143716 -0.16107
-0.131985 -0.00356751 -0.160555
-0.137974 0.0020922 -0.163088
-0.13063 0.00216381 -0.161016
-0.1372 0.00700449 -0.162487
-0.152328 0.0108675 -0.164494
-0.166598 -0.0699319 -0.157616
-0.143904 -0.0360947 -0.161599
-0.133266 -0.025191 -0.15908
-0.130384 -0.0198899 -0.158634
-0.127737 -0.0111944 -0.158402
-0.124293 -0.00728046 -0.158309
-0.1539 -0.00211689 -0.160494
-0.122657 -0.00190249 -0.157747
-0.124837 0.00154401 -0.15762
-0.129191 0.0055267 -0.158945
-0.134137 0.0132152 -0.160355
-0.12896 0.0106853 -0.159962
-0.130396 0.0185083 -0.159839
-0.135109 -0.0427506 -0.156812
-0.130176 -0.0110391 -0.153169
-0.116396 -0.0125869 -0.153518
-0.122577 -0.00607117 -0.155538
-0.115631 0.00320288 -0.154767
-0.121082 0.00561493 -0.156982
-0.11365 0.00585074 -0.153899
-0.125516 0.00798036 -0.157993
-0.118755 0.0155216 -0.155359
-0.123072 0.0319998 -0.15352
-0.145882 0.0534688 -0.15761
-0.122393 -0.0383043 -0.152972
-0.116481 -0.0331537 -0.151627
-0.113169 -0.0223738 -0.151069
-0.112162 -0.00808915 -0.153115
-0.115169 -0.0011545 -0.153436
-0.112116 0.00261471 -0.152121
-0.123892 0.00543859 -0.15488
-0.116323 0.00929893 -0.15369
-0.112322 0.00746033 -0.150432
-0.108912 0.0148554 -0.150601
-0.115568 0.0188537 -0.152583
-0.116276 0.0314038 -0.150855
-0.120259 0.039567 -0.151676
-0.132558 0.0548462 -0.150576
-0.116925 -0.0368267 -0.149928
-0.106681 -0.0297784 -0.148259
-0.105452 -0.0120731 -0.150032
-0.101874 -0.00974296 -0.147579
-0.101323 -0.00473192 -0.148745
-0.118477 -0.00030604 -0.150524
-0.104377 -0.000173498 -0.148928
-0.0997233 0.000552229 -0.146971
-0.105885 0.00377413 -0.149025
-0.101833 0.013547 -0.14728
-0.115183 0.0200398 -0.14686
-0.111283 0.0318046 -0.149801
-0.121267 0.0457331 -0.149185
-0.128748 0.0541763 -0.147761
-0.18948 -0.0588755 -0.15174
-0.100521 -0.029834 -0.144572
-0.100024 -0.0215026 -0.146138
-0.104705 -0.0159987 -0.14536
-0.0980096 -0.0118681 -0.145668
-0.109298 -0.0102622 -0.146397
-0.126571 -0.0050195 -0.140617
-0.0919989 -0.00235705 -0.143814
-0.0951027 0.00137658 -0.145012
-0.0906161 0.00183099 -0.143453
-0.0957617 0.021564 -0.144991
-0.100536 0.0282479 -0.145938
-0.119251 0.031512 -0.146375
-0.133374 -0.0786274 -0.139703
-0.0882395 -0.0281457 -0.139782
-0.0854201 -0.0251196 -0.140178
-0.107095 -0.0198513 -0.14572
-0.0791391 -0.0121439 -0.138955
-0.0873191 -0.0104412 -0.142488
-0.080358 -0.00828562 -0.139674
-0.0828143 -0.00269961 -0.139888
-0.104433 0.0010387 -0.143381
-0.0986095 0.00368895 -0.139352
-0.0932595 0.00342162 -0.140463
-0.140251 0.008919 -0.146963
-0.111126 0.0153509 -0.145436
-0.111905 -0.0649872 -0.137886
-0.0835589 -0.0198962 -0.138962
-0.0932562 -0.0166961 -0.141098
-0.0792559 -0.0152295 -0.138387
-0.0876116 -0.0131232 -0.13851
-0.11052 -0.00409065 -0.14355
-0.0765853 -0.00190888 -0.138341
-0.120646 0.0056942 -0.140283
-0.0961332 0.00699434 -0.141827
-0.082935 0.0158869 -0.139753
-0.0873798 0.0258297 -0.13971
-0.0734924 -0.0243664 -0.135274
-0.0900226 -0.002977 -0.139392
-0.0735405 -0.0069071 -0.13457
-0.0660897 -0.00528029 -0.133793
-0.0939342 0.000650372 -0.13754
-0.0720669 -0.00196855 -0.135365
-0.099575 -0.000115345 -0.1388
-0.0867444 0.00205073 -0.138943
-0.0757914 0.00357012 -0.135964
-0.0683953 0.000637851 -0.134746
-0.067702 0.00302741 -0.133031
-0.0693465 0.00942636 -0.13507
-0.0638216 0.00901246 -0.132742
-0.0728443 0.0133623 -0.135086
-0.0892871 0.0140226 -0.136319
-0.0703301 0.0165702 -0.134566
-0.0781518 0.0383649 -0.134466
-0.106003 0.070825 -0.133944
-0.0653816 -0.0321347 -0.129446
-0.0695103 -0.0262151 -0.133384
-0.0609125 -0.013865 -0.131214
-0.0592549 -0.0162075 -0.13025
-0.0567237 -0.0130356 -0.1284
-0.0593976 -0.00837686 -0.130144
-0.0629179 -0.00606013 -0.131335
-0.054618 -0.00114441 -0.129096
-0.086852 0.000243296 -0.131406
-0.0987663 0.00138722 -0.134441
-0.0813497 0.00486861 -0.134758
-0.0596396 0.00429707 -0.129991
-0.0684284 0.00810475 -0.130912
-0.0620572 0.00735334 -0.130951
-0.0644136 0.0130682 -0.131579
-0.0558685 0.0118065 -0.129234
-0.0773664 0.0148671 -0.134365
-0.0555674 -0.0296479 -0.126925
-0.0518041 -0.031124 -0.12499
-0.0459499 -0.0141156 -0.124892
-0.0913337 -0.0145832 -0.127919
-0.0522984 -0.0088965 -0.126518
-0.0523802 -0.00499059 -0.127973
-0.0499498 -0.00391959 -0.126102
-0.0865695 -0.00414822 -0.127506
-0.0797479 0.00270412 -0.132373
-0.0599467 0.00855193 -0.129087
-0.0557582 0.00585217 -0.125264
-0.063265 0.0172709 -0.127959
-0.0544267 0.0157038 -0.127069
-0.0577762 0.0193321 -0.128259
-0.0729565 0.0552975 -0.127449
-0.0473869 -0.0269189 -0.124026
-0.0381383 -0.0137771 -0.12161
-0.0401307 -0.0113027 -0.122269
-0.0922622 -0.00146267 -0.124207
-0.0829843 -0.00296957 -0.12596
-0.0513349 0.00100257 -0.125137
-0.0429707 -0.000811381 -0.123058
-0.04995 0.0146543 -0.125409
-0.0443435 0.0209212 -0.122425
-0.0458659 0.0256877 -0.121843
-0.0901738 -0.086348 -0.118494
-0.0848667 -0.0413323 -0.12045
-0.0514576 -0.0256171 -0.121936
-0.0419653 -0.0195276 -0.117445
-0.0525208 -0.0200472 -0.120895
-0.0452595 -0.017246 -0.118218
-0.0361556 -0.0166922 -0.120382
-0.0761569 -0.00947042 -0.120309
-0.0283467 -0.0103828 -0.11742
-0.0374799 -0.00601185 -0.120458
-0.062968 0.00103816 -0.119214
-0.0585579 -0.00215253 -0.120162
-0.0401037 -0.00270513 -0.120626
-0.0462094 0.00395518 -0.123585
-0.0494682 0.00830987 -0.121406
-0.0381227 0.0151902 -0.118087
-0.0831067 0.0270916 -0.120372
-0.0587609 0.0288471 -0.121686
-0.0864075 0.0357125 -0.121518
-0.0573787 0.0374667 -0.117351
-0.0447223 -0.0241374 -0.115347
-0.0375764 -0.0186912 -0.108102
-0.0324852 -0.0149317 -0.117803
-0.0277266 -0.0143559 -0.114045
-0.0686765 -0.0118901 -0.116462
-0.0572251 -0.0137044 -0.115075
-0.0389864 -0.0110078 -0.118041
-0.0259542 -0.00385075 -0.115749
-0.0315707 -0.000556458 -0.115844
-0.0410135 0.00549049 -0.114453
-0.0366697 0.00359863 -0.114118
-0.0315242 0.0128042 -0.118764
-0.0347723 0.0135489 -0.11483
-0.0657898 0.0182135 -0.117979
-0.0513019 0.0170798 -0.117012
-0.0314361 0.0160305 -0.116448
-0.053645 0.0233646 -0.115384
-0.0854894 0.0451212 -0.118496
-0.0314074 -0.0302618 -0.109463
-0.0430345 -0.0238566 -0.111348
-0.0296176 -0.0188416 -0.108547
-0.0202041 -0.0152701 -0.108992
-0.0412747 -0.0130094 -0.112366
-0.0203463 -0.011197 -0.112308
-0.062722 -0.00297028 -0.114226
-0.058795 -0.00388068 -0.113598
-0.0144103 0.00179592 -0.111205
-0.0313612 0.00965185 -0.11634
-0.0301266 0.0105224 -0.11127
-0.0318173 0.01394 -0.110098
-0.0211751 0.019809 -0.107645
-0.0349217 0.0306184 -0.115684
-0.0180414 -0.0239978 -0.109367
-0.0135202 -0.0186277 -0.109572
-0.0152563 -0.00974642 -0.110647
-0.0585102 -0.00854235 -0.111235
-0.0449124 -0.0088288 -0.109885
-0.0378693 -0.00247771 -0.108075
-0.0271204 -0.0037923 -0.106379
-0.0183889 0.00293173 -0.107289
-0.0339063 0.00180886 -0.106635
-0.0322635 0.0073417 -0.109424
-0.0221499 0.00430971 -0.113194
-0.00704894 0.00673094 -0.106598
-0.045728 0.0100138 -0.107677
-0.0213678 0.0115267 -0.11092
-0.0429462 0.0142472 -0.107172
-0.0453696 0.0196052 -0.108835
-0.0214975 0.0221637 -0.105451
-0.0393041 0.0721186 -0.107273
-0.0281569 -0.00748382 -0.115204
-0.0376495 -0.00158295 -0.104574
-0.0289855 0.0220368 -0.109718
-0.00949855 0.019097 -0.102297
-0.0418009 0.0197024 -0.106834
-0.010333 0.0271807 -0.10205
-0.0776126 -0.103175 -0.100309
-0.0404548 -0.0200993 -0.102753
-0.0297032 0.00215727 -0.10292
-0.0056988 -0.0214475 -0.105296
-0.00701408 -0.0105706 -0.106374
-0.018318 0.00551713 -0.113224
-0.0477985 0.0164038 -0.0944032
-0.0144264 0.0175265 -0.111246
-0.0344236 -0.0268561 -0.110234
-0.0329214 -0.0245036 -0.104102
-0.0230158 -0.0063197 -0.107409
-0.00209743 0.0155548 -0.105069
-0.0054599 0.0237214 -0.104342
-0.0230867 -0.0242912 -0.101048
-0.00426265 -0.000462787 -0.101981
-0.034337 0.00561382 -0.102806
-0.0273791 5.52728e-05 -0.097107
-0.00209585 0.021148 -0.0985274
-0.0183167 0.0119421 -0.0961433
-0.00205387 0.0243132 -0.0942188
-0.0258414 -0.0270694 -0.0903404
-0.0323459 0.000933277 -0.0893541
-0.0191985 0.0336061 -0.0889447
-0.00977287 -0.0305241 -0.0852652
-0.00315638 -0.0234267 -0.0822686
-0.0266262 0.0180085 -0.0831666
-0.0268897 0.0240704 -0.0845506
-0.00797106 0.00155248 -0.0785789
-0.0251891 0.0274385 -0.0801912
-0.00858455 -0.00832622 -0.0771859
-0.029518 -0.0331169 -0.072691
-0.00532413 -0.0141231 -0.0711795
-0.0184795 -0.0100183 -0.0726962
-0.00657095 0.00906157 -0.0729534
-0.0304883 0.0114791 -0.0736915
-0.0306529 0.0174599 -0.0713685
-0.0183571 0.0195956 -0.0740232
-0.0315432 -0.000776551 -0.069638
-0.0349219 -0.0119867 -0.0637473
-0.0123384 -0.0127121 -0.0667238
-0.0215522 -0.0242077 -0.0603467
-0.00639582 -0.0194124 -0.061598
-0.00832892 0.000607053 -0.0610819
-0.0349316 0.000809468 -0.0588381
-0.0302252 0.0258081 -0.0595329
-0.0220487 -0.00121585 -0.0558751
-0.00390427 -0.00253676 -0.0559703
-0.00538423 0.0015153 -0.0528267
-0.00221027 -0.0230351 -0.0457358
-0.0183398 -0.0154698 -0.0455633
-0.00676706 -0.00372403 -0.0459936
-0.0151336 0.0123986 -0.0479654
-0.0275497 0.0283687 -0.0457828
-0.0206177 -0.0299049 -0.0425159
-0.00131466 -0.00968721 -0.0432812
-0.0233766 -0.00607507 -0.0422085
-0.0077538 -0.0326437 -0.040357
-0.0173855 -0.000880817 -0.0399076
-0.0182307 0.00855733 -0.0395046
-0.0296317 0.0298979 -0.0394396
-0.00558275 -0.00660585 -0.0348124
-0.0271405 0.0119819 -0.0350132
-0.0197987 0.018953 -0.0379711
-0.00341211 -0.034738 -0.034185
-0.0208051 -0.0158491 -0.0314224
-0.0341798 -0.011198 -0.0322803
-0.010257 0.0208697 -0.0332261
-0.00399213 0.0184532 -0.0308423
-0.00154371 0.0315848 -0.0295805
-0.0138788 -0.0115128 -0.0241788
-0.00452227 -0.00895877 -0.0256859
-0.0163368 0.0276055 -0.023696
-0.0310951 -0.0211048 -0.02023
-0.0255212 -0.0188191 -0.0201679
-0.0309382 -0.0143436 -0.0206646
-0.0293509 -0.033146 -0.0162812
-0.0320071 -0.0281976 -0.0144086
-0.0167287 0.0346143 -0.0129087
-0.00861311 -0.032902 -0.00919362
-0.0067008 -0.0244725 -0.00913247
-0.0102129 0.026364 -0.0109038
-0.0253872 0.0292455 -0.00995939
-0.0215899 -0.032029 -0.00586825
-0.0188515 -0.0128461 -0.00762199
-0.0345167 0.0199359 -0.00851106
-0.0197841 0.0271245 -0.00790054
-0.00353272 -0.0272708 -0.00325658
-0.00986991 -0.0209412 -0.00459131
-0.00135906 0.0258167 -0.00146883
-0.000199364 0.0312143 -0.00441813
-0.0216218 -0.0125549 -0.000252604
-0.00957752 0.00477992 0.001881
-0.0307277 0.0146238 0.000114635
-0.0156564 0.0202325 0.00150814
-0.030871 -0.0154504 0.00455773
-0.0109636 0.00917349 0.00530545
-0.0102718 -0.0251226 0.00713686
-0.00247583 -0.0265002 0.00743748
-0.0147423 -0.0238404 0.00746087
-0.0143365 -0.0207127 0.00691739
-0.0129094 -0.00700653 0.0067634
-0.0277579 0.0221297 0.00732213
-0.0214542 0.0290903 0.00864692
-0.0298384 -0.0293729 0.013351
-0.00105657 -0.0205112 0.0102253
-0.00282712 -0.0111117 0.012499
-0.011677 0.00513367 0.0124299
-0.00025791 0.0157383 0.010138
-0.000325902 0.0289653 0.01294
-0.0337823 0.0338204 0.0154744
-0.0218405 0.0334821 0.0138533
-0.0127347 0.0169384 0.0190861
-0.000358392 0.0328052 0.0205795
-0.0181237 -0.0337278 0.022153
-0.00102814 -0.03181 0.0219311
-0.0198718 -0.0203219 0.0222475
-0.0257322 0.00190826 0.022415
-0.0194974 0.022596 0.0216214
-0.01174 0.0219768 0.0223145
-0.0343819 0.028377 0.0245961
-0.00101568 0.0056222 0.0281714
-0.0161376 -0.0192303 0.0322322
-0.0281948 -0.013967 0.0296932
-0.0120116 -0.0134242 0.0296288
-0.0255961 -0.00430439 0.0313923
-0.00462244 9.1073e-05 0.0303492
-0.0331715 -0.0118968 0.0330973
-0.0264805 0.00467646 0.0331495
-0.0264186 -0.030143 0.0387314
-0.018075 -0.00126405 0.0365293
-0.00508037 0.000411699 0.0370517
-0.00409419 0.00427664 0.036675
-0.0295882 0.0195227 0.0366071
-0.00823198 0.0339661 0.0387853
-0.0337467 -0.0328342 0.0425123
-0.0256024 -0.0167951 0.0402838
-0.0317433 0.00370031 0.0430761
-0.0222375 0.00717374 0.0411316
-0.0073296 0.0298152 0.0434796
-0.0198207 -0.0299006 0.0465541
-0.00122887 -0.00913746 0.0456101
-0.015542 0.0071378 0.0445513
-0.0115665 0.0103978 0.0466016
-0.00437192 0.00713358 0.0449455
-0.0185142 0.0141667 0.0466749
-0.00708289 -0.0254512 0.050519
-0.0201134 0.00549128 0.0505515
-0.0152615 0.0186818 0.0497474
-0.0145897 0.00651434 0.0511273
-0.01865 0.0185516 0.0512673
-0.0299353 0.029374 0.0523157
VERTICES 475 950
1 0
1 1
1 2
1 3
1 4
1 5
1 6
1 7
1 8
1 9
1 10
1 11
1 12
1 13
1 14
1 15
1 16
1 17
1 18
1 19
1 20
1 21
1 22
1 23
1 24
1 25
1 26
1 27
1 28
1 29
1 30
1 31
1 32
1 33
1 34
1 35
1 36
1 37
1 38
1 39
1 40
1 41
1 42
1 43
1 44
1 45
1 46
1 47
1 48
1 49
1 50
1 51
1 52
1 53
1 54
1 55
1 56
1 57
1 58
1 59
1 60
1 61
1 62
1 63
1 64
1 65
1 66
1 67
1 68
1 69
1 70
1 71
1 72
1 73
1 74
1 75
1 76
1 77
1 78
1 79
1 80
1 81
1 82
1 83
1 84
1 85
1 86
1 87
1 88
1 89
1 90
1 91
1 92
1 93
1 94
1 95
1 96
1 97
1 98
1 99
1 100
1 101
1 102
1 103
1 104
1 105
1 106
1 107
1 108
1 109
1 110
1 111
1 112
1 113
1 114
1 115
1 116
1 117
1 118
1 119
1 120
1 121
1 122
1 123
1 124
1 125
1 126
1 127
1 128
1 129
1 130
1 131
1 132
1 133
1 134
1 135
1 136
1 137
1 138
1 139
1 140
1 141
1 142
1 143
1 144
1 145
1 146
1 147
1 148
1 149
1 150
1 151
1 152
1 153
1 154
1 155
1 156
1 157
1 158
1 159
1 160
1 161
1 162
1 163
1 164
1 165
1 166
1 167
1 168
1 169
1 170
1 171
1 172
1 173
1 174
1 175
1 176
1 177
1 178
1 179
1 180
1 181
1 182
1 183
1 184
1 185
1 186
1 187
1 188
1 189
1 190
1 191
1 192
1 193
1 194
1 195
1 196
1 197
1 198
1 199
1 200
1 201
1 202
1 203
1 204
1 205
1 206
1 207
1 208
1 209
1 210
1 211
1 212
1 213
1 214
1 215
1 216
1 217
1 218
1 219
1 220
1 221
1 222
1 223
1 224
1 225
1 226
1 227
1 228
1 229
1 230
1 231
1 232
1 233
1 234
1 235
1 236
1 237
1 238
1 239
1 240
1 241
1 242
1 243
1 244
1 245
1 246
1 247
1 248
1 249
1 250
1 251
1 252
1 253
1 254
1 255
1 256
1 257
1 258
1 259
1 260
1 261
1 262
1 263
1 264
1 265
1 266
1 267
1 268
1 269
1 270
1 271
1 272
1 273
1 274
1 275
1 276
1 277
1 278
1 279
1 280
1 281
1 282
1 283
1 284
1 285
1 286
1 287
1 288
1 289
1 290
1 291
1 292
1 293
1 294
1 295
1 296
1 297
1 298
1 299
1 300
1 301
1 302
1 303
1 304
1 305
1 306
1 307
1 308
1 309
1 310
1 311
1 312
1 313
1 314
1 315
1 316
1 317
1 318
1 319
1 320
1 321
1 322
1 323
1 324
1 325
1 326
1 327
1 328
1 329
1 330
1 331
1 332
1 333
1 334
1 335
1 336
1 337
1 338
1 339
1 340
1 341
1 342
1 343
1 344
1 345
1 346
1 347
1 348
1 349
1 350
1 351
1 352
1 353
1 354
1 355
1 356
1 357
1 358
1 359
1 360
1 361
1 362
1 363
1 364
1 365
1 366
1 367
1 368
1 369
1 370
1 371
1 372
1 373
1 374
1 375
1 376
1 377
1 378
1 379
1 380
1 381
1 382
1 383
1 384
1 385
1 386
1 387
1 388
1 389
1 390
1 391
1 392
1 393
1 394
1 395
1 396
1 397
1 398
1 399
1 400
1 401
1 402
1 403
1 404
1 405
1 406
1 407
1 408
1 409
1 410
1 411
1 412
1 413
1 414
1 415
1 416
1 417
1 418
1 419
1 420
1 421
1 422
1 423
1 424
1 425
1 426
1 427
1 428
1 429
1 430
1 431
1 432
1 433
1 434
1 435
1 436
1 437
1 438
1 439
1 440
1 441
1 442
1 443
1 444
1 445
1 446
1 447
1 448
1 449
1 450
1 451
1 452
1 453
1 454
1 455
1 456
1 457
1 458
1 459
1 460
1 461
1 462
1 463
1 464
1 465
1 466
1 467
1 468
1 469
1 470
1 471
1 472
1 473
1 474
POINT_DATA 475
VECTORS i float
0.0 0.0 0.0
0.0 0.0 0.0
0.0 0.0 0.0
0.0 0.0 0.0
0.0 0.0 0.0
0.0 0.0 0.0
0.0 0.0 0.0
0.0 0.0 0.0
0.0 0.0 0.0
0.0 0.0 0.0
0.0 0.0 0.0
0.0 0.0 0.0
0.0 0.0 0.0
0.0 0.0 0.0
0.0 0.0 0.0
0.0 0.0 0.0
0.0 0.0 0.0
0.0 0.0 0.0
0.0 0.0 0.0
0.0 0.0 0.0
0.0 0.0 0.0
0.0 0.0 0.0
0.0 0.0 0.0
0.0 0.0 0.0
0.0 0.0 0.0
0.0 0.0 0.0
0.0 0.0 0.0
0.0 0.0 0.0
0.0 0.0 0.0
0.0 0.0 0.0
0.0 0.0 0.0
0.0 0.0 0.0
0.0 0.0 0.0
0.0 0.0 0.0
0.0 0.0 0.0
0.0 0.0 0.0
0.0 0.0 0.0
0.0 0.0 0.0
0.0 0.0 0.0
0.0 0.0 0.0
0.0 0.0 0.0
0.0 0.0 0.0
0.0 0.0 0.0
0.0 0.0 0.0
0.0 0.0 0.0
0.0 0.0 0.0
0.0 0.0 0.0
0.0 0.0 0.0
0.0 0.0 0.0
0.0 0.0 0.0
0.0 0.0 0.0
0.0 0.0 0.0
0.0 0.0 0.0
0.0 0.0 0.0
0.0 0.0 0.0
0.0 0.0 0.0
0.0 0.0 0.0
0.0 0.0 0.0
0.0 0.0 0.0
0.0 0.0 0.0
0.0 0.0 0.0
0.0 0.0 0.0
0.0 0.0 0.0
0.0 0.0 0.0
0.0 0.0 0.0
0.0 0.0 0.0
0.0 0.0 0.0
0.0 0.0 0.0
0.0 0.0 0.0
0.0 0.0 0.0
0.0 0.0 0.0
0.0 0.0 0.0
0.0 0.0 0.0
0.0 0.0 0.0
0.0 0.0 0.0
0.0 0.0 0.0
0.0 0.0 0.0
0.0 0.0 0.0
0.0 0.0 0.0
0.0 0.0 0.0
0.0 0.0 0.0
0.0 0.0 0.0
0.0 0.0 0.0
0.0 0.0 0.0
0.0 0.0 0.0
0.0 0.0 0.0
0.0 0.0 0.0
0.0 0.0 0.0
0.0 0.0 0.0
0.0 0.0 0.0
0.0 0.0 0.0
0.0 0.0 0.0
0.0 0.0 0.0
0.0 0.0 0.0
0.0 0.0 0.0
0.0 0.0 0.0
0.0 0.0 0.0
0.0 0.0 0.0
0.0 0.0 0.0
0.0 0.0 0.0
0.0 0.0 0.0
0.0 0.0 0.0
0.0 0.0 0.0
0.0 0.0 0.0
0.0 0.0 0.0
0.0 0.0 0.0
0.0 0.0 0.0
0.0 0.0 0.0
0.0 0.0 0.0
0.0 0.0 0.0
0.0 0.0 0.0
0.0 0.0 0.0
0.0 0.0 0.0
0.0 0.0 0.0
0.0 0.0 0.0
0.0 0.0 0.0
0.0 0.0 0.0
0.0 0.0 0.0
0.0 0.0 0.0
0.0 0.0 0.0
0.0 0.0 0.0
0.0 0.0 0.0
0.0 0.0 0.0
0.0 0.0 0.0
0.0 0.0 0.0
0.0 0.0 0.0
0.0 0.0 0.0
0.0 0.0 0.0
0.0 0.0 0.0
0.0 0.0 0.0
0.0 0.0 0.0
0.0 0.0 0.0
0.0 0.0 0.0
0.0 0.0 0.0
0.0 0.0 0.0
0.0 0.0 0.0
0.0 0.0 0.0
0.0 0.0 0.0
0.0 0.0 0.0
0.0 0.0 0.0
0.0 0.0 0.0
0.0 0.0 0.0
0.0 0.0 0.0
0.0 0.0 0.0
0.0 0.0 0.0
0.0 0.0 0.0
0.0 0.0 0.0
0.0 0.0 0.0
0.0 0.0 0.0
0.0 0.0 0.0
0.0 0.0 0.0
0.0 0.0 0.0
0.0 0.0 0.0
0.0 0.0 0.0
0.0 0.0 0.0
0.0 0.0 0.0
0.0 0.0 0.0
0.0 0.0 0.0
0.0 0.0 0.0
0.0 0.0 0.0
0.0 0.0 0.0
0.0 0.0 0.0
0.0 0.0 0.0
0.0 0.0 0.0
0.0 0.0 0.0
0.0 0.0 0.0
0.0 0.0 0.0
0.0 0.0 0.0
0.0 0.0 0.0
0.0 0.0 0.0
0.0 0.0 0.0
0.0 0.0 0.0
0.0 0.0 0.0
0.0 0.0 0.0
0.0 0.0 0.0
0.0 0.0 0.0
0.0 0.0 0.0
0.0 0.0 0.0
0.0 0.0 0.0
0.0 0.0 0.0
0.0 0.0 0.0
0.0 0.0 0.0
0.0 0.0 0.0
0.0 0.0 0.0
0.0 0.0 0.0
0.0 0.0 0.0
0.0 0.0 0.0
0.0 0.0 0.0
0.0 0.0 0.0
0.0 0.0 0.0
0.0 0.0 0.0
0.0 0.0 0.0
0.0 0.0 0.0
0.0 0.0 0.0
0.0 0.0 0.0
0.0 0.0 0.0
0.0 0.0 0.0
0.0 0.0 0.0
0.0 0.0 0.0
0.0 0.0 0.0
0.0 0.0 0.0
0.0 0.0 0.0
0.0 0.0 0.0
0.0 0.0 0.0
0.0 0.0 0.0
0.0 0.0 0.0
0.0 0.0 0.0
0.0 0.0 0.0
0.0 0.0 0.0
0.0 0.0 0.0
0.0 0.0 0.0
0.0 0.0 0.0
0.0 0.0 0.0
0.0 0.0 0.0
0.0 0.0 0.0
0.0 0.0 0.0
0.0 0.0 0.0
0.0 0.0 0.0
0.0 0.0 0.0
0.0 0.0 0.0
0.0 0.0 0.0
0.0 0.0 0.0
0.0 0.0 0.0
0.0 0.0 0.0
0.0 0.0 0.0
0.0 0.0 0.0
0.0 0.0 0.0
0.0 0.0 0.0
0.0 0.0 0.0
0.0 0.0 0.0
0.0 0.0 0.0
0.0 0.0 0.0
0.0 0.0 0.0
0.0 0.0 0.0
0.0 0.0 0.0
0.0 0.0 0.0
0.0 0.0 0.0
0.0 0.0 0.0
0.0 0.0 0.0
0.0 0.0 0.0
0.0 0.0 0.0
0.0 0.0 0.0
0.0 0.0 0.0
0.0 0.0 0.0
0.0 0.0 0.0
0.0 0.0 0.0
0.0 0.0 0.0
0.0 0.0 0.0
0.0 0.0 0.0
0.0 0.0 0.0
0.0 0.0 0.0
0.0 0.0 0.0
0.0 0.0 0.0
0.0 0.0 0.0
0.0 0.0 0.0
0.0 0.0 0.0
0.0 0.0 0.0
0.0 0.0 0.0
0.0 0.0 0.0
0.0 0.0 0.0
0.0 0.0 0.0
0.0 0.0 0.0
0.0 0.0 0.0
0.0 0.0 0.0
0.0 0.0 0.0
0.0 0.0 0.0
0.0 0.0 0.0
0.0 0.0 0.0
0.0 0.0 0.0
0.0 0.0 0.0
0.0 0.0 0.0
0.0 0.0 0.0
0.0 0.0 0.0
0.0 0.0 0.0
0.0 0.0 0.0
0.0 0.0 0.0
0.0 0.0 0.0
0.0 0.0 0.0
0.0 0.0 0.0
0.0 0.0 0.0
0.0 0.0 0.0
0.0 0.0 0.0
0.0 0.0 0.0
0.0 0.0 0.0
0.0 0.0 0.0
0.0 0.0 0.0
0.0 0.0 0.0
0.0 0.0 0.0
0.0 0.0 0.0
0.0 0.0 0.0
0.0 0.0 0.0
0.0 0.0 0.0
0.0 0.0 0.0
0.0 0.0 0.0
0.0 0.0 0.0
0.0 0.0 0.0
0.0 0.0 0.0
0.0 0.0 0.0
0.0 0.0 0.0
0.0 0.0 0.0
0.0 0.0 0.0
0.0 0.0 0.0
0.0 0.0 0.0
0.0 0.0 0.0
0.0 0.0 0.0
0.0 0.0 0.0
0.0 0.0 0.0
0.0 0.0 0.0
0.0 0.0 0.0
0.0 0.0 0.0
0.0 0.0 0.0
0.0 0.0 0.0
0.0 0.0 0.0
0.0 0.0 0.0
0.0 0.0 0.0
0.0 0.0 0.0
0.0 0.0 0.0
0.0 0.0 0.0
0.0 0.0 0.0
0.0 0.0 0.0
0.0 0.0 0.0
0.0 0.0 0.0
0.0 0.0 0.0
0.0 0.0 0.0
0.0 0.0 0.0
0.0 0.0 0.0
0.0 0.0 0.0
0.0 0.0 0.0
0.0 0.0 0.0
0.0 0.0 0.0
0.0 0.0 0.0
0.0 0.0 0.0
0.0 0.0 0.0
0.0 0.0 0.0
0.0 0.0 0.0
0.0 0.0 0.0
0.0 0.0 0.0
0.0 0.0 0.0
0.0 0.0 0.0
0.0 0.0 0.0
0.0 0.0 0.0
0.0 0.0 0.0
0.0 0.0 0.0
0.0 0.0 0.0
0.0 0.0 0.0
0.0 0.0 0.0
0.0 0.0 0.0
0.0 0.0 0.0
0.0 0.0 0.0
0.0 0.0 0.0
0.0 0.0 0.0
0.0 0.0 0.0
0.0 0.0 0.0
0.0 0.0 0.0
0.0 0.0 0.0
0.0 0.0 0.0
0.0 0.0 0.0
0.0 0.0 0.0
0.0 0.0 0.0
0.0 0.0 0.0
0.0 0.0 0.0
0.0 0.0 0.0
0.0 0.0 0.0
0.0 0.0 0.0
0.0 0.0 0.0
0.0 0.0 0.0
0.0 0.0 0.0
0.0 0.0 0.0
0.0 0.0 0.0
0.0 0.0 0.0
0.0 0.0 0.0
0.0 0.0 0.0
0.0 0.0 0.0
0.0 0.0 0.0
0.0 0.0 0.0
0.0 0.0 0.0
0.0 0.0 0.0
0.0 0.0 0.0
0.0 0.0 0.0
0.0 0.0 0.0
0.0 0.0 0.0
0.0 0.0 0.0
0.0 0.0 0.0
0.0 0.0 0.0
0.0 0.0 0.0
0.0 0.0 0.0
0.0 0.0 0.0
0.0 0.0 0.0
0.0 0.0 0.0
0.0 0.0 0.0
0.0 0.0 0.0
0.0 0.0 0.0
0.0 0.0 0.0
0.0 0.0 0.0
0.0 0.0 0.0
0.0 0.0 0.0
0.0 0.0 0.0
0.0 0.0 0.0
0.0 0.0 0.0
0.0 0.0 0.0
0.0 0.0 0.0
0.0 0.0 0.0
0.0 0.0 0.0
0.0 0.0 0.0
0.0 0.0 0.0
0.0 0.0 0.0
0.0 0.0 0.0
0.0 0.0 0.0
0.0 0.0 0.0
0.0 0.0 0.0
0.0 0.0 0.0
0.0 0.0 0.0
0.0 0.0 0.0
0.0 0.0 0.0
0.0 0.0 0.0
0.0 0.0 0.0
0.0 0.0 0.0
0.0 0.0 0.0
0.0 0.0 0.0
0.0 0.0 0.0
0.0 0.0 0.0
0.0 0.0 0.0
0.0 0.0 0.0
0.0 0.0 0.0
0.0 0.0 0.0
0.0 0.0 0.0
0.0 0.0 0.0
0.0 0.0 0.0
0.0 0.0 0.0
0.0 0.0 0.0
0.0 0.0 0.0
0.0 0.0 0.0
0.0 0.0 0.0
0.0 0.0 0.0
0.0 0.0 0.0
0.0 0.0 0.0
0.0 0.0 0.0
0.0 0.0 0.0
0.0 0.0 0.0
0.0 0.0 0.0
0.0 0.0 0.0
0.0 0.0 0.0
0.0 0.0 0.0
0.0 0.0 0.0
0.0 0.0 0.0
0.0 0.0 0.0
0.0 0.0 0.0
0.0 0.0 0.0
0.0 0.0 0.0
0.0 0.0 0.0
0.0 0.0 0.0
0.0 0.0 0.0
0.0 0.0 0.0
0.0 0.0 0.0
0.0 0.0 0.0
0.0 0.0 0.0
0.0 0.0 0.0
0.0 0.0 0.0
0.0 0.0 0.0
0.0 0.0 0.0
0.0 0.0 0.0
0.0 0.0 0.0
0.0 0.0 0.0
0.0 0.0 0.0
0.0 0.0 0.0
0.0 0.0 0.0
0.0 0.0 0.0
0.0 0.0 0.0
0.0 0.0 0.0
0.0 0.0 0.0
0.0 0.0 0.0
0.0 0.0 0.0
0.0 0.0 0.0
0.0 0.0 0.0
0.0 0.0 0.0
VECTORS f float
0.0 0.0 -0.000346714
-0.00012306 -4.78124e-05 3.03452e-05
-0.000859867 0.000218704 0.00108362
0.0 0.0 -0.000346714
0.0 0.0 -0.000346714
-0.000598449 -8.11415e-05 0.000210994
8.38609e-05 5.37856e-05 6.80243e-05
-0.000179222 -6.80448e-05 0.000173831
-8.59634e-05 -2.95513e-05 -3.97147e-05
9.15056e-06 -1.29185e-05 -0.00135592
0.0 0.0 -0.000346714
6.80499e-05 2.50408e-05 0.000113724
-6.77538e-05 -2.35358e-06 -0.000222054
-8.52717e-05 -8.12657e-06 -9.56167e-06
0.0 0.0 -0.000346714
-0.000259154 -0.000153535 0.000109282
0.0 0.0 -0.000346714
-8.59208e-05 1.88996e-05 -4.02147e-05
-9.04665e-05 1.99205e-05 -2.97025e-05
-8.96802e-05 -2.43485e-06 -3.8212e-05
-8.62287e-05 -4.12647e-06 -4.01363e-05
-0.000137859 -6.79961e-06 8.33201e-05
0.0 0.0 -0.000346714
-8.7685e-05 -2.51291e-05 -4.21214e-05
-0.000470536 -0.000271502 -3.94663e-05
-0.000254012 6.73224e-05 -0.000453671
9.92049e-05 -6.89937e-06 0.000128792
-0.000251248 -0.000152424 0.000238743
-0.00033949 -0.000196871 -0.00030385
-7.62688e-05 -7.13544e-05 -5.51633e-05
0.0 0.0 -0.000346714
-0.000550056 4.52931e-06 0.000462932
-0.000568735 -0.000164413 0.000257738
0.0 0.0 -0.000346714
9.82662e-06 2.55894e-05 -0.000275383
-0.000736905 0.000206289 6.45725e-05
-0.000375966 0.00010326 -0.000273053
-5.4879e-05 1.56659e-05 -0.000221021
0.0 0.0 -0.000346714
-8.89921e-05 -1.96122e-05 -3.95632e-05
-8.70052e-05 -1.92065e-05 -4.34364e-05
-0.000366727 -0.00018841 -0.000229765
-0.000901822 0.00125403 0.000812251
0.0 0.0 -0.00160516
-0.000178358 5.21248e-06 0.000137321
0.0 0.0 -0.000346714
-0.000841434 -0.000233535 0.00060633
-8.73902e-05 -1.88266e-05 -3.81459e-05
-0.000778043 0.000487934 0.00180207
0.0 0.0 -0.000346714
0.0 0.0 -0.000346714
-0.000405733 1.38702e-05 -0.00015966
0.0 0.0 -0.000346714
-1.5154e-05 -2.21904e-06 -0.000225956
-0.000865675 -0.00039621 0.000597003
-0.000199386 -0.000104012 -0.00059778
0.000940622 7.12002e-05 0.00288227
0.0 0.0 -0.00160516
-7.80409e-05 1.51685e-05 -6.58574e-05
0.0 0.0 -0.000346714
-0.000125701 -6.16729e-05 -2.74983e-05
0.0 0.0 -0.000346714
0.0 0.0 -0.000346714
0.0 0.0 -0.000346714
-0.000383121 -2.26526e-07 -0.000205307
-9.41841e-05 -1.70372e-05 -0.00103396
7.38998e-05 3.18293e-05 -0.000468685
-8.71091e-05 -1.82876e-05 -3.68684e-05
-0.000397542 0.00011622 -0.00018567
-8.8678e-05 2.1038e-05 -4.00202e-05
-8.74934e-05 1.04603e-05 -3.68458e-05
-8.77665e-05 1.04907e-05 -3.62614e-05
0.0 0.0 -0.000346714
0.0 0.0 -0.000346714
0.000106204 0.000556942 0.0019105
1.32587e-05 1.4069e-06 -0.000273401
0.00107599 0.000337893 -0.00474547
0.0 0.0 -0.000346714
0.0 0.0 -0.000346714
-1.59125e-05 0.000143261 -0.000581112
-8.51105e-05 4.54822e-05 -4.62552e-05
-0.000216602 4.03358e-05 0.000770419
-8.09876e-05 1.90823e-05 -5.94078e-05
-0.00028476 3.4141e-05 -0.000533738
0.0 0.0 -0.00160516
0.0 0.0 -0.000346714
0.0 0.0 -0.000346714
0.0 0.0 -0.000346714
0.0 0.0 -0.00160516
-8.34944e-05 -2.35083e-05 -3.98198e-05
-7.61427e-05 -3.61426e-05 -6.04354e-05
-0.00022515 0.00057285 0.000884161
0.0 0.0 -0.000346714
-0.000107675 2.45782e-05 1.39189e-05
0.000117732 2.80421e-05 7.63549e-05
0.00105543 0.00116135 -0.00353081
0.0 0.0 -0.000346714
0.0 0.0 -0.00160516
0.0 0.0 -0.000346714
1.6664e-05 -0.000116903 -0.000517756
0.0 0.0 -0.000346714
-0.000120677 -8.70244e-05 -0.00113549
-0.000217234 7.68063e-05 -0.00051127
-0.000434871 7.57719e-05 -0.000118902
-0.000406926 7.14117e-05 0.000609765
0.0 0.0 -0.00160516
-2.27435e-05 1.96524e-07 -0.00013206
0.000121876 -0.000170497 0.000703974
0.0 0.0 -0.00160516
0.0 0.0 -0.00160516
-0.00010833 -1.27254e-05 -3.61874e-06
-8.49678e-05 -2.95427e-05 -3.88177e-05
-8.01267e-05 6.21973e-05 -5.27901e-05
0.0 0.0 -0.00160516
-0.000416336 6.61971e-05 -0.000161244
0.0 0.0 -0.000346714
-9.39746e-05 4.17513e-08 -2.57497e-05
-0.000355651 -5.93448e-05 0.000839471
-4.98316e-05 7.88961e-06 -2.41881e-05
0.0 0.0 -0.000346714
-8.84207e-05 -1.49744e-05 -3.84587e-05
-0.000385794 -0.000220778 -0.000211548
-2.4889e-05 -4.15362e-05 -0.000282977
-8.41941e-05 4.3787e-05 -4.40452e-05
-8.49034e-05 4.33121e-05 -4.41708e-05
-0.000332985 0.000104576 -0.000386956
-8.07585e-05 1.28211e-05 -5.61703e-05
0.0 0.0 -0.00160516
9.60163e-06 -0.000263112 -0.00133836
0.0 0.0 -0.000346714
-0.000432114 -7.36379e-05 -0.000115585
0.0 0.0 -0.000346714
0.0 0.0 -0.000346714
-0.00107562 -0.000370484 0.000253585
-0.0003796 -0.000217295 -0.000225125
-8.1755e-05 -4.68458e-05 -4.89679e-05
-0.000353226 -0.000385551 -0.000257982
-0.000734657 0.000357864 0.000718932
0.0 0.0 -0.000346714
-8.5832e-05 1.29932e-05 -4.4394e-05
-0.000321295 4.7243e-05 -0.000389898
-8.88095e-05 1.31203e-05 -3.81995e-05
0.0 0.0 -0.000346714
-0.000408058 -5.63e-06 -0.000173681
8.8897e-05 9.47051e-05 -0.000158639
0.0 0.0 -0.000346714
-0.000410187 -7.42303e-05 -0.000179711
0.0 0.0 -0.000346714
-9.11856e-05 -5.40122e-05 -6.33342e-06
-0.00037289 -0.000301257 -0.000236848
0.0 0.0 -0.000346714
0.0 0.0 -0.000346714
-0.000375428 0.000187286 -0.000233786
0.0 0.0 -0.000346714
0.0 0.0 -0.00160516
0.0 0.0 -0.000346714
0.0 0.0 -0.00160516
0.0 0.0 -0.00160516
-0.0211281 -0.00361153 0.0889117
6.20575e-05 -0.000420543 0.000594413
0.0 0.0 -0.000346714
-8.6114e-05 -3.27332e-05 -4.0199e-05
-8.40564e-05 -3.06875e-05 -4.81531e-05
0.0 0.0 -0.000346714
-6.26113e-05 9.84742e-05 -8.06571e-05
-0.000401886 0.000194823 -0.000187065
-0.00014936 4.65265e-05 0.000160235
0.0 0.0 -0.000346714
0.0 0.0 -0.000346714
-8.83862e-05 1.17385e-05 -3.80628e-05
-8.15041e-05 1.00218e-05 -5.41782e-05
6.17934e-05 -8.72322e-05 -0.000595117
0.0 0.0 -0.000346714
0.0 0.0 -0.000346714
0.0 0.0 -0.000346714
0.0 0.0 -0.000346714
0.0 0.0 -0.00160516
-0.000337685 0.0003663 -0.000289573
-0.000396452 0.000116124 -0.00020797
0.0 0.0 -0.00160516
0.0 0.0 -0.000346714
0.0 0.0 -0.000346714
0.0 0.0 -0.000346714
-8.82683e-05 -3.91194e-06 -3.70876e-05
0.0 0.0 -0.000346714
0.0 0.0 -0.000346714
0.0 0.0 -0.000346714
-0.000417706 -0.00014822 -4.94264e-05
-8.70584e-05 2.51856e-05 -3.94656e-05
0.0381764 -0.0186315 0.182993
0.0 0.0 -0.000346714
-8.99519e-05 1.00419e-05 -3.46946e-05
0.0 0.0 -0.00160516
-0.000407767 -1.80708e-05 -0.000174319
0.0 0.0 -0.000346714
0.0 0.0 -0.00160516
0.0 0.0 -0.000346714
0.0 0.0 -0.000346714
0.0 0.0 -0.000346714
-8.90556e-05 -4.58983e-06 -3.79301e-05
0.000692845 -0.00125557 0.0120433
0.000318768 0.000218439 -0.00196498
0.0 0.0 -0.000346714
0.0 0.0 -0.000346714
0.0 0.0 -0.000346714
-3.49414e-05 -0.000102312 -8.94815e-05
-0.000401294 0.000188048 -0.000183948
-8.38863e-05 2.42398e-05 -4.69914e-05