# vtk DataFile Version 2.0
Generated by lpp.py
ASCII
DATASET POLYDATA
POINTS 397 float
-0.244909 -0.0661884 -0.188572
-0.19073 -0.0159068 -0.184305
-0.185573 -0.00623149 -0.184106
-0.186864 0.00408746 -0.183721
-0.184587 0.00856781 -0.183234
-0.185743 0.0202991 -0.182955
-0.189981 0.0229207 -0.184209
-0.183771 -0.0277824 -0.180642
-0.17657 -0.00884088 -0.17917
-0.177378 -0.00448234 -0.180658
-0.182396 0.0144351 -0.181721
-0.177448 0.0206587 -0.17938
-0.164944 -0.00807481 -0.175159
-0.168674 -0.00241035 -0.17709
-0.170916 0.00302969 -0.178021
-0.163493 0.00195548 -0.174921
-0.166126 0.0047309 -0.176066
-0.163486 0.00565394 -0.174899
-0.169406 0.0137672 -0.176693
-0.17282 0.0237609 -0.176849
-0.244463 0.0799062 -0.175545
-0.184095 -0.0564961 -0.171325
-0.159473 -0.00507325 -0.173225
-0.158249 -3.70052e-06 -0.172648
-0.162276 0.0136979 -0.172653
-0.157251 0.0140756 -0.171646
-0.170336 0.0337527 -0.173771
-0.150679 -0.0088085 -0.168214
-0.153415 0.00312549 -0.170635
-0.156894 0.0262691 -0.16861
-0.147829 -0.0178803 -0.166269
-0.143982 -0.0135966 -0.166148
-0.145378 0.000971703 -0.16726
-0.139443 0.010195 -0.164464
-0.147468 0.0178978 -0.165956
-0.144872 0.0239271 -0.165298
-0.155531 0.035026 -0.167484
-0.144186 -0.0238499 -0.163808
-0.140452 -0.0219391 -0.163719
-0.147664 -0.0106628 -0.162363
-0.13026 -0.00914356 -0.160722
-0.138037 0.00769453 -0.163357
-0.133486 0.0109775 -0.160821
-0.132153 0.015117 -0.161034
-0.133069 -0.0136434 -0.160486
-0.125513 -0.00621942 -0.158884
-0.124413 0.0054421 -0.158357
-0.128085 0.0139604 -0.159415
-0.125589 0.016811 -0.157041
-0.129568 0.0235809 -0.157698
-0.13683 0.0284866 -0.159945
-0.143185 -0.0524742 -0.155801
-0.116234 -0.0150888 -0.153281
-0.119455 -0.0085332 -0.156172
-0.116707 -0.00702698 -0.153648
-0.121376 -0.00488757 -0.1561
-0.121151 0.00584964 -0.156053
-0.11299 0.013548 -0.153063
-0.123175 0.0246184 -0.155992
-0.121693 -0.0412346 -0.151786
-0.117468 -0.0218609 -0.15194
-0.120531 -0.00660456 -0.151881
-0.118973 -0.00344965 -0.153168
-0.110079 -0.0018371 -0.152413
-0.112342 0.00286411 -0.149744
-0.108703 0.00141182 -0.150902
-0.105852 -0.000960014 -0.150235
-0.114844 0.0080873 -0.153153
-0.110302 0.0106747 -0.150922
-0.111131 0.0151685 -0.1511
-0.11011 0.0219441 -0.150923
-0.108549 -0.0229366 -0.150082
-0.104996 -0.0111688 -0.148814
-0.103229 0.00108234 -0.148278
-0.0976042 0.0115867 -0.146721
-0.103319 0.0153462 -0.147127
-0.100424 0.0231569 -0.146676
-0.130187 0.0584964 -0.149208
-0.0913234 -0.0286394 -0.142077
-0.0961908 -0.0183054 -0.145568
-0.0938075 -0.0217563 -0.143982
-0.0915737 -0.0168347 -0.143201
-0.101322 -0.0114545 -0.147195
-0.0909604 -0.0114865 -0.142889
-0.0978589 -0.00724964 -0.145879
-0.113613 -0.00548463 -0.148568
-0.104257 -0.00344034 -0.148339
-0.11017 -0.00128565 -0.149332
-0.0944332 -0.000731417 -0.144746
-0.0868234 -0.00253212 -0.142634
-0.115511 0.0100464 -0.147299
-0.0919265 0.0128473 -0.143158
-0.0954512 0.0185188 -0.144888
-0.141837 -0.0813191 -0.140805
-0.115968 -0.0488911 -0.144219
-0.0930015 -0.01937 -0.140471
-0.0839846 -0.0149417 -0.139756
-0.0857121 -0.00429971 -0.138858
-0.087389 0.0014178 -0.141727
-0.0794867 0.000360515 -0.13952
-0.0977232 0.00716606 -0.145478
-0.0825258 0.00309121 -0.140768
-0.0858603 0.0105972 -0.140875
-0.0859007 0.0142193 -0.141591
-0.0890315 0.0238091 -0.139812
-0.0797726 -0.0213814 -0.137174
-0.0722064 -0.00878952 -0.136204
-0.0743216 -0.00394456 -0.136257
-0.0780096 0.00322241 -0.138847
-0.0762098 0.00328267 -0.136249
-0.0774352 0.0107232 -0.13725
-0.102538 0.0165222 -0.139058
-0.0757225 0.0152834 -0.137202
-0.0779665 0.0207228 -0.136592
-0.0800078 0.0282738 -0.13624
-0.0866839 -0.0542651 -0.133438
-0.0742977 -0.0299703 -0.134689
-0.0706947 -0.0306184 -0.131954
-0.0709121 -0.0270531 -0.133848
-0.069377 -0.0166477 -0.133491
-0.0738058 -0.0114736 -0.132532
-0.0645453 -0.0132151 -0.132771
-0.0653095 -0.00763218 -0.132123
-0.0699567 -0.00394222 -0.132799
-0.0822272 -0.00244765 -0.135474
-0.0721381 0.00979477 -0.134431
-0.0733712 0.0138122 -0.136027
-0.0690175 0.0176546 -0.132967
-0.0715646 0.0305476 -0.133355
-0.0676301 0.0277746 -0.132238
-0.0807594 0.0420121 -0.133208
-0.0906807 0.054733 -0.133717
-0.0648202 -0.0209475 -0.130954
-0.0812816 -0.0169587 -0.130872
-0.0902217 -0.0112562 -0.134227
-0.0965917 -0.00329305 -0.133481
-0.0878816 -0.0032952 -0.133965
-0.0584286 0.00435807 -0.129489
-0.0736757 0.0100805 -0.127961
-0.0856557 0.0166731 -0.131841
-0.0559286 0.0206323 -0.128435
-0.0590724 0.0225409 -0.129513
-0.096786 0.056267 -0.130604
-0.0581095 -0.027943 -0.127219
-0.0513434 -0.0254598 -0.125868
-0.0576362 -0.0168385 -0.128411
-0.0479457 -0.0150482 -0.125625
-0.0480874 -0.00837298 -0.126059
-0.056471 -0.00299986 -0.125796
-0.0469517 0.00232672 -0.12575
-0.0441338 0.00216949 -0.124648
-0.0693097 0.00625848 -0.1255
-0.05032 0.0104134 -0.126468
-0.0648791 -0.0424798 -0.124099
-0.0599442 -0.0236421 -0.123527
-0.0360166 -0.0164903 -0.120415
-0.0565908 -0.0110194 -0.124463
-0.0432752 -0.00119265 -0.122745
-0.0416549 0.00414678 -0.123495
-0.0917219 0.00811106 -0.124364
-0.0470154 0.0082254 -0.1236
-0.0789994 0.00995576 -0.123049
-0.0575953 0.0125867 -0.122964
-0.0778726 0.0712783 -0.122779
-0.0792737 -0.0257799 -0.12069
-0.0472486 -0.0248507 -0.119391
-0.0397154 -0.0267719 -0.119587
-0.0371696 -0.0238199 -0.118815
-0.0615997 -0.0196879 -0.122088
-0.0314848 -0.0162638 -0.117279
-0.0707474 -0.00621957 -0.119354
-0.0458663 -0.00719036 -0.117186
-0.037857 -0.00893486 -0.118114
-0.0573124 -0.00870945 -0.119908
-0.0694706 0.00180449 -0.120281
-0.0302336 0.00142577 -0.118271
-0.0436312 0.00523867 -0.120188
-0.0754354 0.0102983 -0.120363
-0.0674277 0.0115468 -0.120316
-0.0573019 0.0164226 -0.117959
-0.0508316 0.0125671 -0.121018
-0.040505 0.0176822 -0.115802
-0.0480459 0.0560775 -0.117179
-0.0473248 -0.0579684 -0.116153
-0.0386607 -0.0329522 -0.117369
-0.0293667 -0.0323375 -0.115366
-0.0282788 -0.00702296 -0.115291
-0.0695035 0.00343468 -0.114563
-0.0573015 0.00734669 -0.116927
-0.0306134 0.0024854 -0.115254
-0.025512 0.00414467 -0.116743
-0.0299519 0.00833309 -0.116765
-0.0338921 0.015947 -0.115491
-0.0619294 0.0213872 -0.114683
-0.0542128 0.0195776 -0.114044
-0.0406346 0.0274101 -0.113451
-0.0259227 0.0263707 -0.112831
-0.0406642 0.0312329 -0.11704
-0.0510361 -0.0752135 -0.110214
-0.0246988 -0.028186 -0.1138
-0.0265485 -0.0322487 -0.11321
-0.0280158 -0.0256912 -0.113783
-0.0432068 -0.0223786 -0.111608
-0.0235559 -0.0219539 -0.113365
-0.0524126 -0.00922993 -0.112041
-0.0455983 -0.0104382 -0.11197
-0.055981 -0.00935938 -0.114796
-0.0120549 -0.00495171 -0.111052
-0.0342307 0.00239377 -0.114347
-0.0254936 0.00441256 -0.112009
-0.0311895 0.0125973 -0.112716
-0.0597169 0.0155963 -0.112632
-0.0548528 0.0144441 -0.111744
-0.0250635 0.0208854 -0.110055
-0.0191741 0.0196593 -0.111657
-0.0331113 0.0266476 -0.112903
-0.0569444 0.0299843 -0.115947
-0.0184306 0.0296769 -0.110668
-0.0349734 0.0319081 -0.116352
-0.0909741 0.0406768 -0.114859
-0.0185675 -0.0315255 -0.109008
-0.0165606 -0.0239639 -0.107362
-0.0493042 -0.016269 -0.107764
-0.0257639 -0.016265 -0.110296
-0.0386171 -0.0152095 -0.115669
-0.0141601 -0.0164666 -0.105393
-0.0276827 -0.00563054 -0.10705
-0.0245855 -0.012377 -0.113959
-0.0105592 -0.00650347 -0.10639
-0.0460123 -0.00327015 -0.107764
-0.0382118 -0.00354706 -0.10652
-0.015484 -0.00437522 -0.105114
-0.0316621 -0.00214195 -0.111826
-0.0496687 0.00803951 -0.108687
-0.0194711 0.0124204 -0.111942
-0.0180234 0.0111962 -0.106656
-0.0303256 0.0205515 -0.113433
-0.139489 -0.0326389 -0.106585
-0.0181698 -0.0280823 -0.108171
-0.0110639 -0.0230311 -0.103838
-0.043461 -0.01936 -0.10426
-0.0667771 -0.0107942 -0.105853
-0.0328008 -0.0106185 -0.110288
-0.0342014 -0.00389634 -0.10381
-0.0293962 0.00545004 -0.109475
-0.00566441 0.00374972 -0.104035
-0.0301832 0.00965116 -0.106641
-0.0936626 0.0175851 -0.107346
-0.00775392 0.0165616 -0.103286
-0.0368115 0.021156 -0.105248
-0.0328976 0.0228735 -0.105053
-0.0223425 0.0656049 -0.103248
-0.0330193 -0.0287184 -0.114358
-0.0346965 0.0028146 -0.11006
-0.0354477 0.0132378 -0.107425
-0.0154684 0.0259296 -0.101538
-0.0282211 -0.0123493 -0.106902
-0.0169822 0.00918438 -0.104249
-0.0326221 0.0264569 -0.10399
-0.0266383 0.0211746 -0.10158
-0.0242312 -0.0119118 -0.0988408
-0.016367 0.0234551 -0.0966719
-0.000691472 -0.0346461 -0.0933607
-0.0084722 -0.0123243 -0.0942723
-0.0181876 -0.00799419 -0.093357
-0.0319423 -0.0207084 -0.0917772
-0.0332043 -0.0119457 -0.0926918
-0.0266867 0.00969496 -0.0911706
-0.0345837 0.0307765 -0.091199
-0.0203439 -0.0213423 -0.0862361
-0.0242569 -0.0048619 -0.0842541
-0.0265303 0.0300204 -0.0819522
-0.0158837 -0.0146366 -0.0798492
-0.018202 -0.00127292 -0.0816644
-0.0285795 0.0326856 -0.0817946
-0.00968967 -0.0134906 -0.0766062
-0.00413281 -0.000337831 -0.0778608
-0.00852479 0.034934 -0.0763688
-0.014458 -0.0150737 -0.0726552
-0.0171117 -0.0109135 -0.0702254
-0.0238687 0.0109416 -0.0707088
-0.026238 0.0194762 -0.0682879
-0.0145426 0.0200822 -0.0682861
-0.00517746 0.0266228 -0.0708127
-0.0181127 0.0295097 -0.0650433
-0.0196571 -0.00676578 -0.0632603
-0.030318 0.0147393 -0.0609369
-0.0170652 -0.0127043 -0.0590014
-0.0300845 0.0256603 -0.0579345
-0.0308827 0.00162734 -0.0556879
-0.0239975 0.00585265 -0.0546935
-0.00434932 0.00423497 -0.0563182
-0.0332323 0.0316676 -0.0558474
-0.0108823 0.00232676 -0.051958
-0.0346254 0.0108555 -0.0513343
-0.0184752 -0.00390867 -0.0482735
-0.0256427 -0.0310174 -0.0432194
-0.0291592 -0.00156433 -0.0449422
-0.0101895 0.00506721 -0.0429814
-0.00344499 0.0151299 -0.0427648
-0.027048 -0.0192107 -0.0396395
-0.00876558 -0.0160351 -0.040701
-0.00296015 -0.0125694 -0.0418905
-0.00418171 -0.00389031 -0.0413258
-0.0316084 -0.0265255 -0.0368296
-0.0281016 0.00020127 -0.0363066
-0.00981587 0.00303905 -0.0350159
-0.0246424 0.00553727 -0.0320264
-0.0288083 0.00732997 -0.0344786
-0.0208274 -0.0341404 -0.0290659
-0.0195242 0.01415 -0.0290154
-0.0188893 -0.0213338 -0.0268131
-0.00987825 0.0266251 -0.0265884
-0.032854 -0.0214325 -0.021253
-0.0141191 -0.0144365 -0.0232045
-0.0107355 -0.0103339 -0.0237266
-0.0118162 -0.00633589 -0.022526
-0.0120408 0.00484626 -0.0204441
-0.0260976 0.00786627 -0.0206829
-0.0129098 0.021507 -0.0202962
-0.000558622 0.0213939 -0.0179308
-0.00974267 -0.0210328 -0.0139461
-0.0026782 0.0306845 -0.0141417
-0.031713 0.0319285 -0.0141963
-0.0120659 -0.0232029 -0.0123938
-0.0193603 0.00427373 -0.0114381
-0.0280975 0.0196597 -0.0095836
-0.0275767 -0.00857811 -0.00879083
-0.0341957 -0.0270523 -0.00300581
-0.00304149 -0.022423 -0.00538894
-0.00515441 -0.0109162 -0.00456679
-0.018318 0.00551713 -0.00497829
-0.0142719 0.0175582 -0.00401437
-0.0329214 -0.0245036 0.00140689
-0.0230158 -0.0063197 -0.000902838
-0.00209743 0.0155548 0.00073202
-0.0054599 0.0237214 0.00123961
-0.0230867 -0.0242912 0.00353094
-0.00426265 -0.000462787 0.00288355
-0.034337 0.00561382 0.00230735
-0.00209585 0.021148 0.00527861
-0.0273791 5.52728e-05 0.00626113
-0.0183167 0.0119421 0.00692677
-0.00205387 0.0243132 0.00825523
-0.0258414 -0.0270694 0.0109233
-0.0323459 0.000933277 0.0115993
-0.0191985 0.0336061 0.011881
-0.00977287 -0.0305241 0.0143927
-0.0266262 0.0180085 0.0158223
-0.0268897 0.0240704 0.0148823
-0.00315638 -0.0234267 0.0164344
-0.00858455 -0.00832622 0.019875
-0.00797106 0.00155248 0.018932
-0.0251891 0.0274385 0.0178428
-0.029518 -0.0331169 0.0228979
-0.0184795 -0.0100183 0.0228928
-0.00657095 0.00906157 0.0227207
-0.0304883 0.0114791 0.0222259
-0.0183571 0.0195956 0.0220036
-0.00532413 -0.0141231 0.0239107
-0.0123384 -0.0127121 0.0268824
-0.0315432 -0.000776551 0.0249413
-0.0306529 0.0174599 0.0237825
-0.00639582 -0.0194124 0.0302748
-0.0349219 -0.0119867 0.0288553
-0.00832892 0.000607053 0.0306145
-0.0215522 -0.0242077 0.0311003
-0.0220487 -0.00121585 0.034033
-0.00390427 -0.00253676 0.0339683
-0.0349316 0.000809468 0.0320919
-0.0302252 0.0258081 0.0316343
-0.00538423 0.0015153 0.0360171
-0.00221027 -0.0230351 0.040596
-0.0183398 -0.0154698 0.0407077
-0.00676706 -0.00372403 0.0404295
-0.0151336 0.0123986 0.0391632
-0.0275497 0.0283687 0.0405673
-0.0077538 -0.0326437 0.0440285
-0.0206177 -0.0299049 0.0426543
-0.00131466 -0.00968721 0.0421688
-0.0233766 -0.00607507 0.0428522
-0.0173855 -0.000880817 0.0443137
-0.0182307 0.00855733 0.0445708
-0.0197987 0.018953 0.0455386
-0.0296317 0.0298979 0.0446114
-0.00341211 -0.034738 0.0479197
-0.0341798 -0.011198 0.0491128
-0.00558275 -0.00660585 0.0475295
-0.0271405 0.0119819 0.0474017
-0.010257 0.0208697 0.0485197
-0.0208051 -0.0158491 0.0496483
-0.00399213 0.0184532 0.0500095
-0.00154371 0.0315848 0.0507939
-0.0138788 -0.0115128 0.0542052
-0.00452227 -0.00895877 0.0532469
-0.0163368 0.0276055 0.0545127
-0.0309382 -0.0143436 0.0564631
VERTICES 397 794
1 0
1 1
1 2
1 3
1 4
1 5
1 6
1 7
1 8
1 9
1 10
1 11
1 12
1 13
1 14
1 15
1 16
1 17
1 18
1 19
1 20
1 21
1 22
1 23
1 24
1 25
1 26
1 27
1 28
1 29
1 30
1 31
1 32
1 33
1 34
1 35
1 36
1 37
1 38
1 39
1 40
1 41
1 42
1 43
1 44
1 45
1 46
1 47
1 48
1 49
1 50
1 51
1 52
1 53
1 54
1 55
1 56
1 57
1 58
1 59
1 60
1 61
1 62
1 63
1 64
1 65
1 66
1 67
1 68
1 69
1 70
1 71
1 72
1 73
1 74
1 75
1 76
1 77
1 78
1 79
1 80
1 81
1 82
1 83
1 84
1 85
1 86
1 87
1 88
1 89
1 90
1 91
1 92
1 93
1 94
1 95
1 96
1 97
1 98
1 99
1 100
1 101
1 102
1 103
1 104
1 105
1 106
1 107
1 108
1 109
1 110
1 111
1 112
1 113
1 114
1 115
1 116
1 117
1 118
1 119
1 120
1 121
1 122
1 123
1 124
1 125
1 126
1 127
1 128
1 129
1 130
1 131
1 132
1 133
1 134
1 135
1 136
1 137
1 138
1 139
1 140
1 141
1 142
1 143
1 144
1 145
1 146
1 147
1 148
1 149
1 150
1 151
1 152
1 153
1 154
1 155
1 156
1 157
1 158
1 159
1 160
1 161
1 162
1 163
1 164
1 165
1 166
1 167
1 168
1 169
1 170
1 171
1 172
1 173
1 174
1 175
1 176
1 177
1 178
1 179
1 180
1 181
1 182
1 183
1 184
1 185
1 186
1 187
1 188
1 189
1 190
1 191
1 192
1 193
1 194
1 195
1 196
1 197
1 198
1 199
1 200
1 201
1 202
1 203
1 204
1 205
1 206
1 207
1 208
1 209
1 210
1 211
1 212
1 213
1 214
1 215
1 216
1 217
1 218
1 219
1 220
1 221
1 222
1 223
1 224
1 225
1 226
1 227
1 228
1 229
1 230
1 231
1 232
1 233
1 234
1 235
1 236
1 237
1 238
1 239
1 240
1 241
1 242
1 243
1 244
1 245
1 246
1 247
1 248
1 249
1 250
1 251
1 252
1 253
1 254
1 255
1 256
1 257
1 258
1 259
1 260
1 261
1 262
1 263
1 264
1 265
1 266
1 267
1 268
1 269
1 270
1 271
1 272
1 273
1 274
1 275
1 276
1 277
1 278
1 279
1 280
1 281
1 282
1 283
1 284
1 285
1 286
1 287
1 288
1 289
1 290
1 291
1 292
1 293
1 294
1 295
1 296
1 297
1 298
1 299
1 300
1 301
1 302
1 303
1 304
1 305
1 306
1 307
1 308
1 309
1 310
1 311
1 312
1 313
1 314
1 315
1 316
1 317
1 318
1 319
1 320
1 321
1 322
1 323
1 324
1 325
1 326
1 327
1 328
1 329
1 330
1 331
1 332
1 333
1 334
1 335
1 336
1 337
1 338
1 339
1 340
1 341
1 342
1 343
1 344
1 345
1 346
1 347
1 348
1 349
1 350
1 351
1 352
1 353
1 354
1 355
1 356
1 357
1 358
1 359
1 360
1 361
1 362
1 363
1 364
1 365
1 366
1 367
1 368
1 369
1 370
1 371
1 372
1 373
1 374
1 375
1 376
1 377
1 378
1 379
1 380
1 381
1 382
1 383
1 384
1 385
1 386
1 387
1 388
1 389
1 390
1 391
1 392
1 393
1 394
1 395
1 396
POINT_DATA 397
VECTORS i float
0.0 0.0 0.0
0.0 0.0 0.0
0.0 0.0 0.0
0.0 0.0 0.0
0.0 0.0 0.0
0.0 0.0 0.0
0.0 0.0 0.0
0.0 0.0 0.0
0.0 0.0 0.0
0.0 0.0 0.0
0.0 0.0 0.0
0.0 0.0 0.0
0.0 0.0 0.0
0.0 0.0 0.0
0.0 0.0 0.0
0.0 0.0 0.0
0.0 0.0 0.0
0.0 0.0 0.0
0.0 0.0 0.0
0.0 0.0 0.0
0.0 0.0 0.0
0.0 0.0 0.0
0.0 0.0 0.0
0.0 0.0 0.0
0.0 0.0 0.0
0.0 0.0 0.0
0.0 0.0 0.0
0.0 0.0 0.0
0.0 0.0 0.0
0.0 0.0 0.0
0.0 0.0 0.0
0.0 0.0 0.0
0.0 0.0 0.0
0.0 0.0 0.0
0.0 0.0 0.0
0.0 0.0 0.0
0.0 0.0 0.0
0.0 0.0 0.0
0.0 0.0 0.0
0.0 0.0 0.0
0.0 0.0 0.0
0.0 0.0 0.0
0.0 0.0 0.0
0.0 0.0 0.0
0.0 0.0 0.0
0.0 0.0 0.0
0.0 0.0 0.0
0.0 0.0 0.0
0.0 0.0 0.0
0.0 0.0 0.0
0.0 0.0 0.0
0.0 0.0 0.0
0.0 0.0 0.0
0.0 0.0 0.0
0.0 0.0 0.0
0.0 0.0 0.0
0.0 0.0 0.0
0.0 0.0 0.0
0.0 0.0 0.0
0.0 0.0 0.0
0.0 0.0 0.0
0.0 0.0 0.0
0.0 0.0 0.0
0.0 0.0 0.0
0.0 0.0 0.0
0.0 0.0 0.0
0.0 0.0 0.0
0.0 0.0 0.0
0.0 0.0 0.0
0.0 0.0 0.0
0.0 0.0 0.0
0.0 0.0 0.0
0.0 0.0 0.0
0.0 0.0 0.0
0.0 0.0 0.0
0.0 0.0 0.0
0.0 0.0 0.0
0.0 0.0 0.0
0.0 0.0 0.0
0.0 0.0 0.0
0.0 0.0 0.0
0.0 0.0 0.0
0.0 0.0 0.0
0.0 0.0 0.0
0.0 0.0 0.0
0.0 0.0 0.0
0.0 0.0 0.0
0.0 0.0 0.0
0.0 0.0 0.0
0.0 0.0 0.0
0.0 0.0 0.0
0.0 0.0 0.0
0.0 0.0 0.0
0.0 0.0 0.0
0.0 0.0 0.0
0.0 0.0 0.0
0.0 0.0 0.0
0.0 0.0 0.0
0.0 0.0 0.0
0.0 0.0 0.0
0.0 0.0 0.0
0.0 0.0 0.0
0.0 0.0 0.0
0.0 0.0 0.0
0.0 0.0 0.0
0.0 0.0 0.0
0.0 0.0 0.0
0.0 0.0 0.0
0.0 0.0 0.0
0.0 0.0 0.0
0.0 0.0 0.0
0.0 0.0 0.0
0.0 0.0 0.0
0.0 0.0 0.0
0.0 0.0 0.0
0.0 0.0 0.0
0.0 0.0 0.0
0.0 0.0 0.0
0.0 0.0 0.0
0.0 0.0 0.0
0.0 0.0 0.0
0.0 0.0 0.0
0.0 0.0 0.0
0.0 0.0 0.0
0.0 0.0 0.0
0.0 0.0 0.0
0.0 0.0 0.0
0.0 0.0 0.0
0.0 0.0 0.0
0.0 0.0 0.0
0.0 0.0 0.0
0.0 0.0 0.0
0.0 0.0 0.0
0.0 0.0 0.0
0.0 0.0 0.0
0.0 0.0 0.0
0.0 0.0 0.0
0.0 0.0 0.0
0.0 0.0 0.0
0.0 0.0 0.0
0.0 0.0 0.0
0.0 0.0 0.0
0.0 0.0 0.0
0.0 0.0 0.0
0.0 0.0 0.0
0.0 0.0 0.0
0.0 0.0 0.0
0.0 0.0 0.0
0.0 0.0 0.0
0.0 0.0 0.0
0.0 0.0 0.0
0.0 0.0 0.0
0.0 0.0 0.0
0.0 0.0 0.0
0.0 0.0 0.0
0.0 0.0 0.0
0.0 0.0 0.0
0.0 0.0 0.0
0.0 0.0 0.0
0.0 0.0 0.0
0.0 0.0 0.0
0.0 0.0 0.0
0.0 0.0 0.0
0.0 0.0 0.0
0.0 0.0 0.0
0.0 0.0 0.0
0.0 0.0 0.0
0.0 0.0 0.0
0.0 0.0 0.0
0.0 0.0 0.0
0.0 0.0 0.0
0.0 0.0 0.0
0.0 0.0 0.0
0.0 0.0 0.0
0.0 0.0 0.0
0.0 0.0 0.0
0.0 0.0 0.0
0.0 0.0 0.0
0.0 0.0 0.0
0.0 0.0 0.0
0.0 0.0 0.0
0.0 0.0 0.0
0.0 0.0 0.0
0.0 0.0 0.0
0.0 0.0 0.0
0.0 0.0 0.0
0.0 0.0 0.0
0.0 0.0 0.0
0.0 0.0 0.0
0.0 0.0 0.0
0.0 0.0 0.0
0.0 0.0 0.0
0.0 0.0 0.0
0.0 0.0 0.0
0.0 0.0 0.0
0.0 0.0 0.0
0.0 0.0 0.0
0.0 0.0 0.0
0.0 0.0 0.0
0.0 0.0 0.0
0.0 0.0 0.0
0.0 0.0 0.0
0.0 0.0 0.0
0.0 0.0 0.0
0.0 0.0 0.0
0.0 0.0 0.0
0.0 0.0 0.0
0.0 0.0 0.0
0.0 0.0 0.0
0.0 0.0 0.0
0.0 0.0 0.0
0.0 0.0 0.0
0.0 0.0 0.0
0.0 0.0 0.0
0.0 0.0 0.0
0.0 0.0 0.0
0.0 0.0 0.0
0.0 0.0 0.0
0.0 0.0 0.0
0.0 0.0 0.0
0.0 0.0 0.0
0.0 0.0 0.0
0.0 0.0 0.0
0.0 0.0 0.0
0.0 0.0 0.0
0.0 0.0 0.0
0.0 0.0 0.0
0.0 0.0 0.0
0.0 0.0 0.0
0.0 0.0 0.0
0.0 0.0 0.0
0.0 0.0 0.0
0.0 0.0 0.0
0.0 0.0 0.0
0.0 0.0 0.0
0.0 0.0 0.0
0.0 0.0 0.0
0.0 0.0 0.0
0.0 0.0 0.0
0.0 0.0 0.0
0.0 0.0 0.0
0.0 0.0 0.0
0.0 0.0 0.0
0.0 0.0 0.0
0.0 0.0 0.0
0.0 0.0 0.0
0.0 0.0 0.0
0.0 0.0 0.0
0.0 0.0 0.0
0.0 0.0 0.0
0.0 0.0 0.0
0.0 0.0 0.0
0.0 0.0 0.0
0.0 0.0 0.0
0.0 0.0 0.0
0.0 0.0 0.0
0.0 0.0 0.0
0.0 0.0 0.0
0.0 0.0 0.0
0.0 0.0 0.0
0.0 0.0 0.0
0.0 0.0 0.0
0.0 0.0 0.0
0.0 0.0 0.0
0.0 0.0 0.0
0.0 0.0 0.0
0.0 0.0 0.0
0.0 0.0 0.0
0.0 0.0 0.0
0.0 0.0 0.0
0.0 0.0 0.0
0.0 0.0 0.0
0.0 0.0 0.0
0.0 0.0 0.0
0.0 0.0 0.0
0.0 0.0 0.0
0.0 0.0 0.0
0.0 0.0 0.0
0.0 0.0 0.0
0.0 0.0 0.0
0.0 0.0 0.0
0.0 0.0 0.0
0.0 0.0 0.0
0.0 0.0 0.0
0.0 0.0 0.0
0.0 0.0 0.0
0.0 0.0 0.0
0.0 0.0 0.0
0.0 0.0 0.0
0.0 0.0 0.0
0.0 0.0 0.0
0.0 0.0 0.0
0.0 0.0 0.0
0.0 0.0 0.0
0.0 0.0 0.0
0.0 0.0 0.0
0.0 0.0 0.0
0.0 0.0 0.0
0.0 0.0 0.0
0.0 0.0 0.0
0.0 0.0 0.0
0.0 0.0 0.0
0.0 0.0 0.0
0.0 0.0 0.0
0.0 0.0 0.0
0.0 0.0 0.0
0.0 0.0 0.0
0.0 0.0 0.0
0.0 0.0 0.0
0.0 0.0 0.0
0.0 0.0 0.0
0.0 0.0 0.0
0.0 0.0 0.0
0.0 0.0 0.0
0.0 0.0 0.0
0.0 0.0 0.0
0.0 0.0 0.0
0.0 0.0 0.0
0.0 0.0 0.0
0.0 0.0 0.0
0.0 0.0 0.0
0.0 0.0 0.0
0.0 0.0 0.0
0.0 0.0 0.0
0.0 0.0 0.0
0.0 0.0 0.0
0.0 0.0 0.0
0.0 0.0 0.0
0.0 0.0 0.0
0.0 0.0 0.0
0.0 0.0 0.0
0.0 0.0 0.0
0.0 0.0 0.0
0.0 0.0 0.0
0.0 0.0 0.0
0.0 0.0 0.0
0.0 0.0 0.0
0.0 0.0 0.0
0.0 0.0 0.0
0.0 0.0 0.0
0.0 0.0 0.0
0.0 0.0 0.0
0.0 0.0 0.0
0.0 0.0 0.0
0.0 0.0 0.0
0.0 0.0 0.0
0.0 0.0 0.0
0.0 0.0 0.0
0.0 0.0 0.0
0.0 0.0 0.0
0.0 0.0 0.0
0.0 0.0 0.0
0.0 0.0 0.0
0.0 0.0 0.0
0.0 0.0 0.0
0.0 0.0 0.0
0.0 0.0 0.0
0.0 0.0 0.0
0.0 0.0 0.0
0.0 0.0 0.0
0.0 0.0 0.0
0.0 0.0 0.0
0.0 0.0 0.0
0.0 0.0 0.0
0.0 0.0 0.0
0.0 0.0 0.0
0.0 0.0 0.0
0.0 0.0 0.0
0.0 0.0 0.0
0.0 0.0 0.0
0.0 0.0 0.0
0.0 0.0 0.0
0.0 0.0 0.0
0.0 0.0 0.0
0.0 0.0 0.0
0.0 0.0 0.0
0.0 0.0 0.0
0.0 0.0 0.0
0.0 0.0 0.0
0.0 0.0 0.0
0.0 0.0 0.0
0.0 0.0 0.0
0.0 0.0 0.0
0.0 0.0 0.0
0.0 0.0 0.0
0.0 0.0 0.0
0.0 0.0 0.0
0.0 0.0 0.0
0.0 0.0 0.0
0.0 0.0 0.0
0.0 0.0 0.0
0.0 0.0 0.0
0.0 0.0 0.0
0.0 0.0 0.0
0.0 0.0 0.0
0.0 0.0 0.0
0.0 0.0 0.0
VECTORS f float
0.0 0.0 -0.000346714
-0.000399502 0.000115071 -0.000178879
-9.93131e-05 3.4072e-06 -1.9357e-05
-0.00124431 7.57492e-06 0.00184651
0.0 0.0 -0.000346714
6.35329e-07 9.0634e-07 -0.000310309
-0.000404708 -0.000109593 0.00107968
0.0 0.0 -0.000346714
-0.000411569 1.5092e-05 -7.53e-05
-8.33598e-05 2.9155e-06 -7.81807e-05
0.0 0.0 -0.000346714
0.0 0.0 -0.000346714
0.0 0.0 -0.000346714
2.2467e-05 3.72589e-05 5.97585e-07
0.0 0.0 -0.000346714
-8.09795e-05 3.42307e-07 -5.85008e-05
-8.75618e-05 3.52177e-07 -4.44018e-05
0.0 0.0 -0.000346714
-8.32054e-05 -1.63948e-05 -4.71927e-05
-8.586e-05 -3.94456e-05 -4.3848e-05
0.0 0.0 -0.000346714
0.0 0.0 -0.000346714
-8.72754e-05 -2.54308e-06 -3.54514e-05
0.0 0.0 -0.000346714
-0.000605499 -0.00011727 0.000108709
-0.00133479 -0.000267293 0.00286017
0.0 0.0 -0.000346714
-0.000405984 4.85408e-05 -0.000168315
-0.000156027 -4.53413e-06 0.00010095
0.000403724 0.00020819 -0.0026379
-0.0053264 0.00162132 0.012275
-8.30741e-05 1.97377e-05 -5.17561e-05
0.0 0.0 -0.000346714
0.0 0.0 -0.000346714
-0.000380353 -0.000106929 -0.000198229
0.000495259 -2.60633e-05 0.00046071
-0.000299698 -0.000133496 0.000243742
0.0 0.0 -0.00160516
-8.76903e-05 3.03203e-05 -4.18266e-05
0.0 0.0 -0.000346714
-8.95522e-05 1.55039e-05 -3.91827e-05
0.0 0.0 -0.000346714
-0.000383357 -4.40247e-05 -0.000271198
-0.000189614 -7.20121e-05 0.000293512
-0.00113475 0.000371277 0.00379588
-9.27633e-05 5.14113e-06 -2.8529e-05
-8.65914e-05 -1.36199e-05 -3.64157e-05
-0.00012623 -1.48872e-05 3.72414e-05
-0.000782215 -0.000171231 -0.000645317
-0.00048338 -0.000166841 1.5027e-05
-0.000387786 -0.000216051 -0.000184627
-5.81907e-05 1.0886e-05 -0.00111906
-0.000751477 0.000145029 0.00063119
4.69519e-05 0.000109356 0.000407924
0.0 0.0 -0.00160516
-0.000199418 -4.6241e-05 -0.000886679
0.0 0.0 -0.000346714
1.39076e-05 2.9722e-05 7.2799e-06
-8.68267e-05 -3.08884e-05 -4.11468e-05
-8.40482e-05 6.45588e-05 -4.19095e-05
0.0 0.0 -0.00160516
0.0 0.0 -0.000346714
0.0 0.0 -0.000346714
0.0 0.0 -0.000346714
0.0 0.0 -0.000346714
0.0 0.0 -0.000346714
0.0 0.0 -0.000346714
-0.000761255 -0.000155828 0.00038171
0.0 0.0 -0.00160516
0.0 0.0 -0.000346714
-8.62366e-05 -3.14825e-05 -4.03098e-05
0.0 0.0 -0.000346714
-0.000413634 6.1187e-05 -0.000170421
0.0 0.0 -0.000346714
-2.74103e-06 8.46243e-07 -0.000240737
0.0 0.0 -0.00160516
-8.58731e-05 -3.26328e-05 -4.08375e-05
-7.1991e-05 -7.86351e-05 -6.71786e-05
-8.33656e-05 4.03437e-05 -4.87246e-05
-8.75238e-05 2.70734e-05 -4.0498e-05
0.0 0.0 -0.000346714
0.0 0.0 -0.000346714
0.0 0.0 -0.000346714
-0.000755147 -0.00012558 0.00115332
0.0 0.0 -0.00160516
0.0 0.0 -0.00160516
0.0 0.0 -0.000346714
0.0 0.0 -0.000346714
-0.000661231 -3.29599e-05 0.000245237
0.0 0.0 -0.000346714
0.0 0.0 -0.000346714
0.000122449 -0.000141055 0.000165318
0.0 0.0 -0.000346714
0.0 0.0 -0.000346714
0.0 0.0 -0.000346714
0.0 0.0 -0.000346714
-0.000536426 0.000119422 -6.4393e-05
0.0 0.0 -0.00160516
0.0 0.0 -0.00160516
-0.000158684 -6.21175e-06 0.00010652
0.0 0.0 -0.000346714
-8.90547e-05 -3.24609e-06 -3.79304e-05
0.0 0.0 -0.000346714
-8.67893e-05 -1.68987e-05 -4.06779e-05
0.0 0.0 -0.00160516
3.59793e-05 0.000100054 -0.00104653
-8.09535e-05 9.3992e-06 -5.74937e-05
-0.000426235 4.97208e-05 -0.000148086
5.42453e-05 4.78785e-06 -0.000393156
0.0 0.0 -0.000346714
0.0 0.0 -0.00160516
0.0 0.0 -0.000346714
0.0 0.0 -0.000346714
-0.000242645 -5.03254e-05 -0.000485099
-0.000260628 -0.000102702 -0.000519055
0.0 0.0 -0.000346714
-8.53423e-05 4.02399e-05 -4.36582e-05
-0.000376304 0.000176643 -0.000248283
-8.33761e-05 4.0866e-05 -3.50971e-05
0.0 0.0 -0.000346714
0.0 0.0 -0.00160516
-8.82282e-05 9.86326e-06 -3.75823e-05
0.0 0.0 -0.00160516
0.0 0.0 -0.00160516
0.0 0.0 -0.00160516
0.0 0.0 -0.00160516
0.0 0.0 -0.000346714
0.0 0.0 -0.00160516
0.0 0.0 -0.000346714
-6.81988e-05 -2.77906e-05 -8.3991e-05
0.0 0.0 -0.00160516
-0.000433989 -0.000360748 -8.99737e-05
-0.000362102 9.78041e-05 -0.000332621
0.0 0.0 -0.00160516
0.0 0.0 -0.00160516
0.0 0.0 -0.000346714
0.0 0.0 -0.00160516
-0.00224434 -0.000249597 0.000492179
0.0 0.0 -0.000346714
0.0 0.0 -0.00160516
0.0 0.0 -0.000346714
-0.000132606 -4.83717e-05 4.53691e-05
0.0 0.0 -0.000346714
0.00010839 0.000335912 -0.000143672
-8.58156e-05 2.3857e-05 -4.28969e-05
0.0 0.0 -0.00160516
0.0 0.0 -0.000346714
-8.82637e-05 8.96444e-06 -3.77519e-05
0.0 0.0 -0.00160516
0.0 0.0 -0.000346714
-0.00690251 0.00398932 0.0118582
0.0 0.0 -0.00160516
0.0 0.0 -0.000346714
0.0 0.0 -0.00160516
0.0 0.0 -0.00160516
-8.92012e-05 2.14134e-05 -4.06724e-05
0.0 0.0 -0.00160516
-0.00081157 -0.0267168 0.0332068
0.0 0.0 -0.000346714
0.0 0.0 -0.000346714
0.0 0.0 -0.00160516
0.0 0.0 -0.000346714
0.0 0.0 -0.000346714
-7.18247e-05 -8.21526e-05 -6.53611e-05
0.0 0.0 -0.000346714
0.0 0.0 -0.00160516
0.0 0.0 -0.000346714
0.0 0.0 -0.000346714
0.0 0.0 -0.000346714
0.0 0.0 -0.00160516
0.0 0.0 -0.000346714
0.0 0.0 -0.000346714
0.0 0.0 -0.000346714
0.0 0.0 -0.000346714
0.0 0.0 -0.000346714
0.0 0.0 -0.000346714
0.0 0.0 -0.00160516
0.0 0.0 -0.000346714
0.0 0.0 -0.000346714
0.0 0.0 -0.00160516
0.0 0.0 -0.00160516
0.0 0.0 -0.00160516
-7.71981e-05 -6.77351e-05 -5.46011e-05
0.0 0.0 -0.000346714
0.0 0.0 -0.000346714
0.0 0.0 -0.000346714
0.0 0.0 -0.00160516
0.0 0.0 -0.000346714
0.0 0.0 -0.000346714
0.0 0.0 -0.000346714
-9.01048e-05 2.55993e-06 -3.89397e-05
0.0 0.0 -0.00160516
0.0 0.0 -0.00160516
0.0 0.0 -0.000346714
0.0 0.0 -0.000346714
0.0 0.0 -0.000346714
0.0 0.0 -0.00160516
0.0 0.0 -0.00160516
0.0 0.0 -0.000346714
0.0 0.0 -0.000346714
0.0 0.0 -0.000346714
0.0 0.0 -0.00160516
0.0 0.0 -0.000346714
0.0 0.0 -0.000346714
0.0 0.0 -0.000346714
0.0 0.0 -0.000346714
0.0 0.0 -0.000346714
-8.72185e-05 1.12497e-06 -3.59518e-05
0.0 0.0 -0.000346714
0.0 0.0 -0.00160516
0.0 0.0 -0.000346714
0.0 0.0 -0.000346714
0.0 0.0 -0.000346714
0.0 0.0 -0.000346714
0.0 0.0 -0.000346714
0.0 0.0 -0.000346714
0.0 0.0 -0.000346714
0.0 0.0 -0.000346714
0.0 0.0 -0.000346714
0.0 0.0 -0.000346714
0.0 0.0 -0.000346714
0.0 0.0 -0.000346714
0.0 0.0 -0.00160516
0.0 0.0 -0.00160516
0.0 0.0 -0.000346714
0.0 0.0 -0.00160516
0.0 0.0 -0.000346714
0.0 0.0 -0.000346714
0.0 0.0 -0.000346714
0.0 0.0 -0.000346714
0.0 0.0 -0.00160516
0.0 0.0 -0.000346714
0.0 0.0 -0.000346714
0.0 0.0 -0.000346714
0.0 0.0 -0.000346714
0.0 0.0 -0.000346714
0.0 0.0 -0.00160516
0.0 0.0 -0.000346714
0.0 0.0 -0.000346714
0.0 0.0 -0.00160516
0.0 0.0 -0.00160516
0.0 0.0 -0.000346714
0.0 0.0 -0.000346714
0.0 0.0 -0.000346714
0.0 0.0 -0.000346714
0.0 0.0 -0.00160516
0.0 0.0 -0.000346714
0.0 0.0 -0.000346714
0.0 0.0 -0.000346714
0.0 0.0 -0.000346714
0.0 0.0 -0.000346714
-7.05508e-05 -7.55785e-05 -6.15159e-05
0.0 0.0 -0.000346714
0.0 0.0 -0.00160516
0.0 0.0 -0.00160516
0.0 0.0 -0.00160516
0.0 0.0 -0.000346714
0.0 0.0 -0.000346714
0.0 0.0 -0.000346714
0.0 0.0 -0.000346714
0.0 0.0 -0.000346714
0.0 0.0 -0.00160516
0.0 0.0 -0.00160516
0.0 0.0 -0.000346714
0.0 0.0 -0.00160516
0.0 0.0 -0.000346714
0.0 0.0 -0.000346714
0.0 0.0 -0.000346714
0.0 0.0 -0.00160516
0.0 0.0 -0.00160516
0.0 0.0 -0.000346714
0.0 0.0 -0.000346714
0.0 0.0 -0.000346714
0.0 0.0 -0.000346714
0.0 0.0 -0.000346714
0.0 0.0 -0.00160516
0.0 0.0 -0.000346714
0.0 0.0 -0.000346714
0.0 0.0 -0.00160516
0.0 0.0 -0.00160516
0.0 0.0 -0.000346714
0.0 0.0 -0.000346714
0.0 0.0 -0.000346714
0.0 0.0 -0.00160516
0.0 0.0 -0.000346714
0.0 0.0 -0.000346714
0.0 0.0 -0.00160516
0.0 0.0 -0.00160516
0.0 0.0 -0.000346714
0.0 0.0 -0.000346714
0.0 0.0 -0.00160516
0.0 0.0 -0.000346714
0.0 0.0 -0.000346714
0.0 0.0 -0.000346714
0.0 0.0 -0.00160516
0.0 0.0 -0.000346714
0.0 0.0 -0.000346714
0.0 0.0 -0.000346714
0.0 0.0 -0.00160516
0.0 0.0 -0.000346714
0.0 0.0 -0.000346714
0.0 0.0 -0.000346714
0.0 0.0 -0.00160516
0.0 0.0 -0.000346714
0.0 0.0 -0.00160516
0.0 0.0 -0.000346714
0.0 0.0 -0.00160516
0.0 0.0 -0.00160516
0.0 0.0 -0.000346714
0.0 0.0 -0.000346714
0.0 0.0 -0.000346714
0.0 0.0 -0.00160516
0.0 0.0 -0.000346714
0.0 0.0 -0.00160516
0.0 0.0 -0.00160516
0.0 0.0 -0.000346714
0.0 0.0 -0.000346714
0.0 0.0 -0.00160516
0.0 0.0 -0.000346714
0.0 0.0 -0.000346714
0.0 0.0 -0.000346714
0.0 0.0 -0.000346714
0.0 0.0 -0.00160516
0.0 0.0 -0.000346714
0.0 0.0 -0.000346714
0.0 0.0 -0.000346714
0.0 0.0 -0.00160516
0.0 0.0 -0.000346714
0.0 0.0 -0.00160516
0.0 0.0 -0.000346714
0.0 0.0 -0.00160516
0.0 0.0 -0.000346714
0.0 0.0 -0.000346714
0.0 0.0 -0.000346714
0.0 0.0 -0.000346714
0.0 0.0 -0.000346714
0.0 0.0 -0.000346714
0.0 0.0 -0.00160516
0.0 0.0 -0.000346714
0.0 0.0 -0.00160516
0.0 0.0 -0.000346714
0.0 0.0 -0.000346714
0.0 0.0 -0.00160516
0.0 0.0 -0.000346714
0.0 0.0 -0.00160516
0.0 0.0 -0.000346714
0.0 0.0 -0.000346714
0.0 0.0 -0.000346714
0.0 0.0 -0.000346714
0.0 0.0 -0.000346714
0.0 0.0 -0.000346714
0.0 0.0 -0.000346714
0.0 0.0 -0.00160516
0.0 0.0 -0.00160516
0.0 0.0 -0.000346714
0.0 0.0 -0.00160516
0.0 0.0 -0.000346714
0.0 0.0 -0.000346714
0.0 0.0 -0.00160516
0.0 0.0 -0.00160516
0.0 0.0 -0.000346714
0.0 0.0 -0.000346714
0.0 0.0 -0.00160516
0.0 0.0 -0.000346714
0.0 0.0 -0.000346714
0.0 0.0 -0.00160516
0.0 0.0 -0.00160516
0.0 0.0 -0.000346714
0.0 0.0 -0.000346714
0.0 0.0 -0.00160516
0.0 0.0 -0.000346714
0.0 0.0 -0.000346714
0.0 0.0 -0.000346714
0.0 0.0 -0.00160516
0.0 0.0 -0.00160516
0.0 0.0 -0.000346714
0.0 0.0 -0.000346714
0.0 0.0 -0.000346714
0.0 0.0 -0.00160516
0.0 0.0 -0.000346714
0.0 0.0 -0.00160516
0.0 0.0 -0.000346714
0.0 0.0 -0.000346714
0.0 0.0 -0.000346714
0.0 0.0 -0.00160516
0.0 0.0 -0.000346714
0.0 0.0 -0.000346714
0.0 0.0 -0.000346714
0.0 0.0 -0.00160516
0.0 0.0 -0.00160516
0.0 0.0 -0.000346714
0.0 0.0 0.0
0.0 0.0 0.0
0.0 0.0 0.0
0.0 0.0 0.0
0.0 0.0 0.0
0.0 0.0 0.0
VECTORS omega float
-580.214 28.3815 473.706
-7.57875 -491.611 41.4137
-22.2854 -767.096 282.93
-23.7488 -433.417 8.93604
-159.571 -635.818 80.1467
-34.1144 -800.507 -210.044
40.6621 -943.819 41.9689
-121.412 -786.208 136.844
21.6742 -430.808 -16.6711
76.9018 -631.791 -123.875
-58.2724 -349.03 -159.57
15.8474 -775.92 -29.2196
80.7319 -528.951 -17.0026
-45.7371 -355.624 57.4799
-63.8513 -632.466 -25.6159
59.0443 -624.794 -172.862
-63.291 -621.722 106.115
-53.4663 -583.286 -0.656817
-76.6658 -680.748 -78.8894
-12.8841 -710.585 -252.742
36.4039 -1115.27 -291.616
66.3638 -694.914 514.879
53.0524 -615.894 59.3001
-37.6538 -726.833 -13.524
-118.423 -442.845 37.0583
-114.382 -675.565 -31.3574