# vtk DataFile Version 2.0
Generated by lpp.py
ASCII
DATASET POLYDATA
POINTS 230 float
-0.0691326 0.000503795 -0.13409
-0.0629332 -0.0047532 -0.131738
-0.0802488 0.038144 -0.132733
-0.0627959 -0.0295266 -0.127762
-0.0647335 -0.0136371 -0.130529
-0.0618048 -0.00295939 -0.128136
-0.0512885 -0.0023305 -0.127603
-0.0534965 0.0047379 -0.127255
-0.0624259 0.014575 -0.130113
-0.0565025 0.0106063 -0.129399
-0.0560187 0.0178317 -0.127584
-0.0487664 -0.0163534 -0.125327
-0.057019 -0.0124272 -0.126481
-0.0493471 -0.0170902 -0.120219
-0.0463009 0.00202548 -0.122864
-0.0770539 0.0262365 -0.12593
-0.0408809 -0.0290938 -0.119793
-0.0728166 -0.00952716 -0.118581
-0.0377767 -0.0125299 -0.119933
-0.064249 -0.00768309 -0.120684
-0.048436 -0.00433749 -0.120554
-0.0827514 -0.00283324 -0.119818
-0.0347811 0.00100021 -0.119154
-0.039268 0.00655711 -0.120785
-0.0336212 0.00626231 -0.118938
-0.0422192 0.013227 -0.122186
-0.0754464 0.0178871 -0.122509
-0.0472159 0.0245145 -0.122776
-0.0442833 0.04417 -0.118755
-0.0558022 -0.0192782 -0.119052
-0.0303123 -0.0100564 -0.115155
-0.0716941 -0.00589336 -0.116988
-0.0696692 -0.00216574 -0.116872
-0.068472 0.000597041 -0.116528
-0.062849 0.00183567 -0.115552
-0.0392563 0.00129231 -0.11795
-0.0313371 0.00943052 -0.111805
-0.0707158 0.00703676 -0.116325
-0.0299622 0.0071938 -0.117374
-0.0311651 0.0137886 -0.11396
-0.0316109 0.0169199 -0.114533
-0.033582 0.0174052 -0.117221
-0.0315425 0.0278123 -0.117246
-0.050645 -0.0272196 -0.112836
-0.0563083 -0.0185328 -0.110954
-0.0217439 -0.0173532 -0.113197
-0.0419567 -0.0130066 -0.110208
-0.0424535 -0.00630044 -0.120156
-0.0298439 -0.0134764 -0.117175
-0.0265029 -0.0023619 -0.112785
-0.0210334 0.00215547 -0.109687
-0.0307435 0.00290658 -0.113651
-0.0392093 0.00718783 -0.109825
-0.0167145 0.014481 -0.111295
-0.0418006 0.0248103 -0.118376
-0.0271802 0.0235042 -0.114118
-0.0198705 0.021527 -0.113177
-0.0416186 0.0276723 -0.113504
-0.0282248 0.030976 -0.115124
-0.0253616 -0.0338697 -0.109298
-0.0168875 -0.0218917 -0.110612
-0.0362471 -0.0175773 -0.108534
-0.0108948 -0.0159769 -0.109719
-0.0527199 -0.0115748 -0.108643
-0.0365697 -0.00557941 -0.119824
-0.0129531 -0.00775356 -0.107302
-0.0107996 -0.00400083 -0.10835
-0.0507751 0.00283401 -0.110898
-0.0434381 0.00594165 -0.111704
-0.0508858 0.0104389 -0.114588
-0.0257687 0.0156817 -0.107685
-0.0114211 0.0290875 -0.107562
-0.0318458 0.0287409 -0.114173
-0.0546521 -0.0569044 -0.109665
-0.0363119 -0.00998108 -0.105749
-0.016739 -0.000386682 -0.103616
-0.0226416 0.00712879 -0.10288
-0.0491474 0.00891081 -0.10791
-0.0328676 0.0120236 -0.117782
-0.0117159 0.00961865 -0.104403
-0.0138633 0.0178412 -0.105515
-0.0252918 0.0255977 -0.104535
-0.0235457 -0.0160775 -0.103551
-0.0320451 -0.0107054 -0.102933
-0.0203638 -0.00325998 -0.114318
-0.0270598 -0.0314822 -0.114596
-0.0176428 -0.0276038 -0.108608
-0.0229396 0.0103354 -0.114551
-0.0147024 0.0309242 -0.109028
-0.0273188 0.0337816 -0.114033
-0.016986 -0.00213434 -0.111247
-0.0294235 0.0177987 -0.107974
-0.0329725 0.0296342 -0.109436
-0.020149 -0.0334448 -0.10501
-0.0135716 -0.0190259 -0.107309
-0.0333375 0.0110949 -0.104789
-0.0292811 0.00645928 -0.10408
-0.0149818 0.0152562 -0.100637
-0.00439906 0.0240922 -0.103519
-0.00739645 -0.0185545 -0.0991635
-0.0265909 0.0159092 -0.0988624
-0.0159897 0.0274334 -0.098763
-0.0275469 -0.0163611 -0.0946228
-0.0102956 -0.00169209 -0.0951335
-0.0161861 -0.026381 -0.0906539
-0.00301846 -0.0111451 -0.0896998
-0.00205293 -0.0206571 -0.0858959
-0.0273253 -0.00441029 -0.0885271
-0.0112712 -0.00229192 -0.0859266
-0.0135333 0.000602269 -0.0872004
-0.00791609 0.00384723 -0.0871948
-2.29018e-06 0.0149512 -0.0863546
-0.0318002 -0.0148599 -0.0828978
-0.0192779 0.00722911 -0.0848002
-0.0322225 0.032442 -0.0810264
-0.0125841 -0.0111545 -0.0730416
-0.00679321 -0.00388229 -0.0716091
-0.0125785 -0.0210623 -0.0700259
-0.0191843 -0.0162196 -0.0681459
-0.0143544 -0.00143019 -0.0688381
-0.0148309 -0.0333609 -0.0649936
-0.0290047 0.00352617 -0.0652978
-0.0227292 -0.0112057 -0.0627775
-0.0208061 0.000145103 -0.0627259
-0.0158354 0.0147935 -0.0636191
-0.0114065 0.0295451 -0.0621553
-0.0188235 -0.0335238 -0.0582039
-0.00193271 -0.0127941 -0.0574286
-0.00304704 0.0316877 -0.0586087
-0.010147 0.00134815 -0.0528388
-0.00401145 0.0125644 -0.0543594
-0.0167258 0.0295222 -0.0543896
-0.0142543 -0.0235946 -0.051661
-0.0316516 0.0258079 -0.049956
-0.0309894 0.0333632 -0.050231
-0.0331578 -0.0315972 -0.0472793
-0.0156127 0.0122027 -0.0472482
-0.00584464 0.0229092 -0.0452734
-0.0150343 -0.00254225 -0.0432474
-0.00445669 0.0136763 -0.0438909
-0.021642 0.0141125 -0.0446806
-0.0237179 -0.0143876 -0.0412563
-0.00430721 -0.0251385 -0.0371083
-0.0337656 -0.0129184 -0.034749
-0.0189158 0.00679958 -0.0350777
-0.0076982 0.0115519 -0.037024
-0.00630817 0.0207644 -0.0350614
-0.00353112 0.0264703 -0.0356139
-0.00618246 -0.0245765 -0.0308973
-0.0192798 0.00186917 -0.0303484
-0.0214963 -0.0266191 -0.0228773
-0.0152079 -0.0157693 -0.0261482
-0.00679915 -0.012878 -0.02585
-0.00623706 -0.0058896 -0.0264029
-0.00240788 0.00422687 -0.0243661
-0.0251386 0.0339743 -0.0219648
-0.0326006 -0.0344541 -0.0164789
-0.023692 -0.0114622 -0.0184175
-0.00372425 -0.00768845 -0.0157124
-0.0229207 0.0293808 -0.0173785
-0.0239437 -0.00737998 -0.013856
-0.00596878 0.00110293 -0.0134679
-0.0334498 0.0192376 -0.0116872
-0.0310811 0.0209557 -0.0145926
-0.00243205 -0.0275788 -0.00798427
-0.0260626 -0.0145959 -0.00904206
-0.0280772 0.00199937 -0.00976514
-0.0186593 0.0101406 -0.0100435
-0.0192512 0.0203811 -0.0104409
-0.0233162 -0.0257488 -0.00746039
-0.0228627 0.00282045 -0.00505528
-0.0175477 0.0137467 -0.00626049
-0.000114354 0.021065 -0.00578011
-0.0322154 -0.0246784 -0.00095742
-0.0180071 -0.0127461 -0.0036162
-0.0273571 -0.0103215 -0.000446345
-0.01426 -0.0150654 8.41056e-05
-0.0341304 -0.00318577 0.00116488
-0.0234861 -0.0194352 0.00536051
-0.00264988 -0.0095541 0.00604448
-0.0200733 -0.00130471 0.00648091
-0.0184157 0.00363086 0.00560443
-0.00169906 -0.0346379 0.00736888
-0.0106048 -0.00789334 0.00847124
-0.0258257 0.0147617 0.00819893
-0.00526421 0.027503 0.00826868
-0.0107488 0.0329346 0.0104932
-0.0264666 -0.025466 0.0121521
-0.00998901 0.00893206 0.012234
-0.0196577 -0.024903 0.0148958
-0.0201644 -0.0275601 0.0176466
-0.0121862 -0.00588198 0.0184799
-0.0134549 0.0182926 0.0171023
-0.0249489 0.0269151 0.015525
-0.0173269 -0.0294256 0.021864
-0.00546888 -0.024539 0.0220134
-0.00018665 -0.0192075 0.0191869
-0.0278654 0.00172744 0.0191107
-0.0232114 -0.0230043 0.0236493
-0.00148336 -0.00863773 0.0252088
-0.0244014 0.0243576 0.0230314
-0.0317899 0.0348276 0.0227185
-0.0299737 -0.0249092 0.0276891
-0.0209901 0.00167617 0.027381
-0.00237574 0.0349629 0.0263883
-0.0118483 0.00949823 0.0313662
-0.00525173 0.0148756 0.0327414
-0.00795 0.0273623 0.0320396
-0.0133438 0.0300767 0.0309614
-0.00916175 0.0316192 0.031171
-0.0315415 -0.0266248 0.0375984
-0.0116971 -0.0149443 0.0345798
-0.014731 -0.00384992 0.0364671
-0.0325497 0.0284222 0.0356936
-0.000147874 -0.0328927 0.0398534
-0.0258692 -0.0150214 0.0394819
-0.0313425 0.0167345 0.0378701
-0.0220067 0.0311963 0.0378585
-0.0256746 -0.0295973 0.0440332
-0.0126988 -0.0187384 0.0432203
-0.0186146 -0.0100891 0.0439446
-0.0141421 0.000627184 0.0427102
-0.0206785 0.0145985 0.0448481
-0.0125397 -0.025785 0.0461061
-0.0104339 -0.00964248 0.0454818
-0.0158011 0.0337207 0.0464385
-0.0349321 -0.00790873 0.0504308
-0.03004 0.0154412 0.0514813
-0.0245784 0.0311922 0.0520429
-0.00133775 0.0319388 0.0524732
VERTICES 230 460
1 0
1 1
1 2
1 3
1 4
1 5
1 6
1 7
1 8
1 9
1 10
1 11
1 12
1 13
1 14
1 15
1 16
1 17
1 18
1 19
1 20
1 21
1 22
1 23
1 24
1 25
1 26
1 27
1 28
1 29
1 30
1 31
1 32
1 33
1 34
1 35
1 36
1 37
1 38
1 39
1 40
1 41
1 42
1 43
1 44
1 45
1 46
1 47
1 48
1 49
1 50
1 51
1 52
1 53
1 54
1 55
1 56
1 57
1 58
1 59
1 60
1 61
1 62
1 63
1 64
1 65
1 66
1 67
1 68
1 69
1 70
1 71
1 72
1 73
1 74
1 75
1 76
1 77
1 78
1 79
1 80
1 81
1 82
1 83
1 84
1 85
1 86
1 87
1 88
1 89
1 90
1 91
1 92
1 93
1 94
1 95
1 96
1 97
1 98
1 99
1 100
1 101
1 102
1 103
1 104
1 105
1 106
1 107
1 108
1 109
1 110
1 111
1 112
1 113
1 114
1 115
1 116
1 117
1 118
1 119
1 120
1 121
1 122
1 123
1 124
1 125
1 126
1 127
1 128
1 129
1 130
1 131
1 132
1 133
1 134
1 135
1 136
1 137
1 138
1 139
1 140
1 141
1 142
1 143
1 144
1 145
1 146
1 147
1 148
1 149
1 150
1 151
1 152
1 153
1 154
1 155
1 156
1 157
1 158
1 159
1 160
1 161
1 162
1 163
1 164
1 165
1 166
1 167
1 168
1 169
1 170
1 171
1 172
1 173
1 174
1 175
1 176
1 177
1 178
1 179
1 180
1 181
1 182
1 183
1 184
1 185
1 186
1 187
1 188
1 189
1 190
1 191
1 192
1 193
1 194
1 195
1 196
1 197
1 198
1 199
1 200
1 201
1 202
1 203
1 204
1 205
1 206
1 207
1 208
1 209
1 210
1 211
1 212
1 213
1 214
1 215
1 216
1 217
1 218
1 219
1 220
1 221
1 222
1 223
1 224
1 225
1 226
1 227
1 228
1 229
POINT_DATA 230
VECTORS i float
0.0 0.0 0.0
0.0 0.0 0.0
0.0 0.0 0.0
0.0 0.0 0.0
0.0 0.0 0.0
0.0 0.0 0.0
0.0 0.0 0.0
0.0 0.0 0.0
0.0 0.0 0.0
0.0 0.0 0.0
0.0 0.0 0.0
0.0 0.0 0.0
0.0 0.0 0.0
0.0 0.0 0.0
0.0 0.0 0.0
0.0 0.0 0.0
0.0 0.0 0.0
0.0 0.0 0.0
0.0 0.0 0.0
0.0 0.0 0.0
0.0 0.0 0.0
0.0 0.0 0.0
0.0 0.0 0.0
0.0 0.0 0.0
0.0 0.0 0.0
0.0 0.0 0.0
0.0 0.0 0.0
0.0 0.0 0.0
0.0 0.0 0.0
0.0 0.0 0.0
0.0 0.0 0.0
0.0 0.0 0.0
0.0 0.0 0.0
0.0 0.0 0.0
0.0 0.0 0.0
0.0 0.0 0.0
0.0 0.0 0.0
0.0 0.0 0.0
0.0 0.0 0.0
0.0 0.0 0.0
0.0 0.0 0.0
0.0 0.0 0.0
0.0 0.0 0.0
0.0 0.0 0.0
0.0 0.0 0.0
0.0 0.0 0.0
0.0 0.0 0.0
0.0 0.0 0.0
0.0 0.0 0.0
0.0 0.0 0.0
0.0 0.0 0.0
0.0 0.0 0.0
0.0 0.0 0.0
0.0 0.0 0.0
0.0 0.0 0.0
0.0 0.0 0.0
0.0 0.0 0.0
0.0 0.0 0.0
0.0 0.0 0.0
0.0 0.0 0.0
0.0 0.0 0.0
0.0 0.0 0.0
0.0 0.0 0.0
0.0 0.0 0.0
0.0 0.0 0.0
0.0 0.0 0.0
0.0 0.0 0.0
0.0 0.0 0.0
0.0 0.0 0.0
0.0 0.0 0.0
0.0 0.0 0.0
0.0 0.0 0.0
0.0 0.0 0.0
0.0 0.0 0.0
0.0 0.0 0.0
0.0 0.0 0.0
0.0 0.0 0.0
0.0 0.0 0.0
0.0 0.0 0.0
0.0 0.0 0.0
0.0 0.0 0.0
0.0 0.0 0.0
0.0 0.0 0.0
0.0 0.0 0.0
0.0 0.0 0.0
0.0 0.0 0.0
0.0 0.0 0.0
0.0 0.0 0.0
0.0 0.0 0.0
0.0 0.0 0.0
0.0 0.0 0.0
0.0 0.0 0.0
0.0 0.0 0.0
0.0 0.0 0.0
0.0 0.0 0.0
0.0 0.0 0.0
0.0 0.0 0.0
0.0 0.0 0.0
0.0 0.0 0.0
0.0 0.0 0.0
0.0 0.0 0.0
0.0 0.0 0.0
0.0 0.0 0.0
0.0 0.0 0.0
0.0 0.0 0.0
0.0 0.0 0.0
0.0 0.0 0.0
0.0 0.0 0.0
0.0 0.0 0.0
0.0 0.0 0.0
0.0 0.0 0.0
0.0 0.0 0.0
0.0 0.0 0.0
0.0 0.0 0.0
0.0 0.0 0.0
0.0 0.0 0.0
0.0 0.0 0.0
0.0 0.0 0.0
0.0 0.0 0.0
0.0 0.0 0.0
0.0 0.0 0.0
0.0 0.0 0.0
0.0 0.0 0.0
0.0 0.0 0.0
0.0 0.0 0.0
0.0 0.0 0.0
0.0 0.0 0.0
0.0 0.0 0.0
0.0 0.0 0.0
0.0 0.0 0.0
0.0 0.0 0.0
0.0 0.0 0.0
0.0 0.0 0.0
0.0 0.0 0.0
0.0 0.0 0.0
0.0 0.0 0.0
0.0 0.0 0.0
0.0 0.0 0.0
0.0 0.0 0.0
0.0 0.0 0.0
0.0 0.0 0.0
0.0 0.0 0.0
0.0 0.0 0.0
0.0 0.0 0.0
0.0 0.0 0.0
0.0 0.0 0.0
0.0 0.0 0.0
0.0 0.0 0.0
0.0 0.0 0.0
0.0 0.0 0.0
0.0 0.0 0.0
0.0 0.0 0.0
0.0 0.0 0.0
0.0 0.0 0.0
0.0 0.0 0.0
0.0 0.0 0.0
0.0 0.0 0.0
0.0 0.0 0.0
0.0 0.0 0.0
0.0 0.0 0.0
0.0 0.0 0.0
0.0 0.0 0.0
0.0 0.0 0.0
0.0 0.0 0.0
0.0 0.0 0.0
0.0 0.0 0.0
0.0 0.0 0.0
0.0 0.0 0.0
0.0 0.0 0.0
0.0 0.0 0.0
0.0 0.0 0.0
0.0 0.0 0.0
0.0 0.0 0.0
0.0 0.0 0.0
0.0 0.0 0.0
0.0 0.0 0.0
0.0 0.0 0.0
0.0 0.0 0.0
0.0 0.0 0.0
0.0 0.0 0.0
0.0 0.0 0.0
0.0 0.0 0.0
0.0 0.0 0.0
0.0 0.0 0.0
0.0 0.0 0.0
0.0 0.0 0.0
0.0 0.0 0.0
0.0 0.0 0.0
0.0 0.0 0.0
0.0 0.0 0.0
0.0 0.0 0.0
0.0 0.0 0.0
0.0 0.0 0.0
0.0 0.0 0.0
0.0 0.0 0.0
0.0 0.0 0.0
0.0 0.0 0.0
0.0 0.0 0.0
0.0 0.0 0.0
0.0 0.0 0.0
0.0 0.0 0.0
0.0 0.0 0.0
0.0 0.0 0.0
0.0 0.0 0.0
0.0 0.0 0.0
0.0 0.0 0.0
0.0 0.0 0.0
0.0 0.0 0.0
0.0 0.0 0.0
0.0 0.0 0.0
0.0 0.0 0.0
0.0 0.0 0.0
0.0 0.0 0.0
0.0 0.0 0.0
0.0 0.0 0.0
0.0 0.0 0.0
0.0 0.0 0.0
0.0 0.0 0.0
0.0 0.0 0.0
0.0 0.0 0.0
0.0 0.0 0.0
0.0 0.0 0.0
0.0 0.0 0.0
0.0 0.0 0.0
0.0 0.0 0.0
0.0 0.0 0.0
0.0 0.0 0.0
0.0 0.0 0.0
0.0 0.0 0.0
0.0 0.0 0.0
VECTORS f float
-0.00106073 -0.000113883 0.00164598
0.0 0.0 -0.000346714
0.0 0.0 -0.000346714
0.0 0.0 -0.000346714
0.0 0.0 -0.00160516
0.0 0.0 -0.000346714
0.0 0.0 -0.000346714
0.0 0.0 -0.00160516
0.0 0.0 -0.000346714
0.0 0.0 -0.000346714
0.0 0.0 -0.000346714
0.0 0.0 -0.000346714
0.0 0.0 -0.000346714
0.0 0.0 -0.00160516
0.0 0.0 -0.000346714
0.0 0.0 -0.000346714
-0.000693007 0.000315554 0.000514867
0.0 0.0 -0.000346714
0.0 0.0 -0.00160516
0.0 0.0 -0.000346714
0.0 0.0 -0.000346714
0.0 0.0 -0.00160516
0.0 0.0 -0.00160516
0.0 0.0 -0.00160516
0.0 0.0 -0.000346714
0.0 0.0 -0.00160516
0.0 0.0 -0.000346714
0.0 0.0 -0.000346714
0.0 0.0 -0.000346714
0.0 0.0 -0.00160516
0.0 0.0 -0.000346714
0.0 0.0 -0.000346714
0.0 0.0 -0.000346714
0.0 0.0 -0.000346714
0.0 0.0 -0.000346714
0.0 0.0 -0.000346714
0.0 0.0 -0.000346714
0.0 0.0 -0.000346714
-0.000668633 -0.000111166 0.000929431
0.0 0.0 -0.000346714
0.0 0.0 -0.000346714
0.0 0.0 -0.000346714
-2.0785e-05 8.37761e-05 0.000225269
0.0 0.0 -0.00160516
0.0 0.0 -0.000346714
0.0 0.0 -0.00160516
0.0 0.0 -0.000346714
0.0 0.0 -0.000346714
0.0 0.0 -0.000346714
0.0 0.0 -0.000346714
0.0 0.0 -0.000346714
0.0 0.0 -0.00160516
0.0 0.0 -0.000346714
-0.000455635 -9.46959e-05 -2.53763e-05
0.0 0.0 -0.000346714
0.0 0.0 -0.00160516
-8.96632e-05 -1.6195e-05 -3.99942e-05
0.0 0.0 -0.00160516
0.0 0.0 -0.000346714
0.0 0.0 -0.00160516
0.0 0.0 -0.00160516
0.0 0.0 -0.00160516
0.0 0.0 -0.000346714
0.0 0.0 -0.000346714
0.0 0.0 -0.00160516
0.0 0.0 -0.000346714
0.0 0.0 -0.000346714
0.0 0.0 -0.000346714
0.0 0.0 -0.000346714
0.0 0.0 -0.000346714
0.0 0.0 -0.00160516
0.0 0.0 -0.000346714
0.0 0.0 -0.000346714
0.0 0.0 -0.000346714
0.0 0.0 -0.000346714
0.0 0.0 -0.000346714
0.0 0.0 -0.000346714
0.0 0.0 -0.00160516
0.0 0.0 -0.000346714
0.0 0.0 -0.00160516
0.0 0.0 -0.00160516
0.0 0.0 -0.000346714
0.0 0.0 -0.00160516
0.0 0.0 -0.00160516
0.0 0.0 -0.000346714
0.0 0.0 -0.000346714
0.0 0.0 -0.00160516
0.0 0.0 -0.000346714
0.0 0.0 -0.000346714
0.0 0.0 -0.000346714
0.0 0.0 -0.000346714
0.0 0.0 -0.000346714
0.0 0.0 -0.00160516
0.0 0.0 -0.000346714
0.0 0.0 -0.000346714
0.0 0.0 -0.00160516
0.0 0.0 -0.00160516
0.0 0.0 -0.00160516
0.0 0.0 -0.000346714
0.0 0.0 -0.000346714
0.0 0.0 -0.00160516
0.0 0.0 -0.000346714
0.0 0.0 -0.000346714
0.0 0.0 -0.000346714
0.0 0.0 -0.000346714
0.0 0.0 -0.00160516
0.0 0.0 -0.00160516
0.0 0.0 -0.00160516
0.0 0.0 -0.000346714
0.0 0.0 -0.000346714
0.0 0.0 -0.00160516
0.0 0.0 -0.000346714
0.0 0.0 -0.000346714
0.0 0.0 -0.00160516
0.0 0.0 -0.000346714
0.0 0.0 -0.000346714
0.0 0.0 -0.000346714
0.0 0.0 -0.00160516
0.0 0.0 -0.000346714
0.0 0.0 -0.00160516
0.0 0.0 -0.000346714
0.0 0.0 -0.000346714
0.0 0.0 -0.000346714
0.0 0.0 -0.000346714
0.0 0.0 -0.00160516
0.0 0.0 -0.000346714
0.0 0.0 -0.000346714
0.0 0.0 -0.00160516
0.0 0.0 -0.00160516
0.0 0.0 -0.00160516
0.0 0.0 -0.000346714
0.0 0.0 -0.000346714
0.0 0.0 -0.00160516
0.0 0.0 -0.00160516
0.0 0.0 -0.000346714
0.0 0.0 -0.000346714
0.0 0.0 -0.000346714
0.0 0.0 -0.000346714
0.0 0.0 -0.00160516
0.0 0.0 -0.000346714
0.0 0.0 -0.000346714
0.0 0.0 -0.000346714
0.0 0.0 -0.000346714
0.0 0.0 -0.000346714
0.0 0.0 -0.000346714
0.0 0.0 -0.00160516
0.0 0.0 -0.000346714
0.0 0.0 -0.000346714
0.0 0.0 -0.00160516
0.0 0.0 -0.00160516
0.0 0.0 -0.00160516
0.0 0.0 -0.000346714
0.0 0.0 -0.000346714
0.0 0.0 -0.000346714
0.0 0.0 -0.00160516
0.0 0.0 -0.000346714
0.0 0.0 -0.000346714
0.0 0.0 -0.000346714
0.0 0.0 -0.00160516
0.0 0.0 -0.000346714
0.0 0.0 -0.00160516
0.0 0.0 -0.000346714
0.0 0.0 -0.000346714
0.0 0.0 -0.000346714
0.0 0.0 -0.000346714
0.0 0.0 -0.000346714
0.0 0.0 -0.000346714
0.0 0.0 -0.000346714
0.0 0.0 -0.00160516
0.0 0.0 -0.000346714
0.0 0.0 -0.000346714
0.0 0.0 -0.00160516
0.0 0.0 -0.00160516
0.0 0.0 -0.000346714
0.0 0.0 -0.000346714
0.0 0.0 -0.00160516
0.0 0.0 -0.000346714
0.0 0.0 -0.000346714
0.0 0.0 -0.00160516
0.0 0.0 -0.000346714
0.0 0.0 -0.000346714
0.0 0.0 -0.000346714
0.0 0.0 -0.00160516
0.0 0.0 -0.000346714
0.0 0.0 -0.00160516
0.0 0.0 -0.000346714
0.0 0.0 -0.00160516
0.0 0.0 -0.00160516
0.0 0.0 -0.000346714
0.0 0.0 -0.000346714
0.0 0.0 -0.000346714
0.0 0.0 -0.000346714
0.0 0.0 -0.000346714
0.0 0.0 -0.000346714
0.0 0.0 -0.00160516
0.0 0.0 -0.000346714
0.0 0.0 -0.00160516
0.0 0.0 -0.000346714
0.0 0.0 -0.00160516
0.0 0.0 -0.000346714
0.0 0.0 -0.000346714
0.0 0.0 -0.000346714
0.0 0.0 -0.00160516
0.0 0.0 -0.000346714
0.0 0.0 -0.000346714
0.0 0.0 -0.000346714
0.0 0.0 -0.000346714
0.0 0.0 -0.00160516
0.0 0.0 -0.000346714
0.0 0.0 -0.000346714
0.0 0.0 -0.00160516
0.0 0.0 -0.000346714
0.0 0.0 -0.00160516
0.0 0.0 -0.000346714
0.0 0.0 -0.000346714
0.0 0.0 -0.000346714
0.0 0.0 -0.00160516
0.0 0.0 -0.00160516
0.0 0.0 -0.000346714
0.0 0.0 -0.00160516
0.0 0.0 -0.000346714
0.0 0.0 -0.000346714
0.0 0.0 -0.000346714
0.0 0.0 -0.000346714
0.0 0.0 -0.000346714
0.0 0.0 -0.000346714
0.0 0.0 0.0
0.0 0.0 0.0
0.0 0.0 0.0
0.0 0.0 0.0
VECTORS omega float
110.078 -306.894 14.9986
-65.6062 -574.641 -212.59
-340.631 -726.294 -186.258
16.3055 -505.552 136.656
17.8756 -77.3327 -0.484907
76.6052 -432.34 -173.062
182.387 -425.237 -163.483
-69.6157 -251.806 -94.1094
-64.7239 -473.802 -26.7444
144.617 -587.478 68.8196
145.888 -543.345 2.29713
-83.751 -385.281 -139.55
-142.629 -517.4 12.32
247.613 132.787 117.952
-82.0058 -360.959 6.27673
109.333 -325.067 83.3711
-46.5296 -249.385 16.3128
-93.3386 -388.818 -8.97324e-15
-28.6326 -159.481 109.781
53.5445 -226.738 38.1963
-91.909 -438.919 -4.95487
-14.8336 -225.779 -6.37285e-15
17.9899 -186.747 -8.36648
-15.309 -172.684 -71.3942
-18.4333 -230.003 40.6691
-27.3364 -269.681 -52.3406
157.283 -192.671 339.666
-65.5626 -524.773 71.0875
-303.96 5.95485 17.627
-105.302 -255.327 -0.0941047
-163.435 -699.586 -17.6561
-24.4869 -372.71 -5.48927e-14
-55.6409 -360.561 -10.6104
-41.8835 -370.436 -10.6104
-11.0748 -389.824 7.37302e-16
76.5445 -305.361 -82.55
-165.447 555.887 -71.4804
55.6535 -369.268 6.21219e-14
5.31087 -248.498 -14.7921
69.9945 -387.523 -4.21035e-14
203.718 -290.221 -86.073
299.059 -554.827 269.236
79.4791 -432.051 -202.709
-92.2038 -218.304 -1.90708
27.3203 136.186 -30.5113
-69.9395 -110.67 -32.2049
-85.5854 -368.423 1.07912e-13
-245.398 -83.3105 -31.3154
-335.61 -609.336 -140.926
-19.2562 -636.876 -40.2669
8.58772 -381.78 -1.52841e-14
80.3999 196.423 57.1029
69.7203 -386.005 -6.26036e-14
-10.753 -90.7572 -12.5875
-40.652 196.878 -207.346
38.9865 -234.261 -0.780963
-65.6722 -265.738 207.871
118.328 -246.781 4.22467
-2.93693 -437.306 -2.0934
73.1144 -310.468 92.8732
-48.5957 -230.051 -5.82909
-92.8876 -225.641 -0.0301518
-28.9945 -260.279 4.10075
-65.0767 -364.221 8.43618e-14
-86.5528 -216.904 -44.3712
-80.7065 -336.668 -48.6138
-7.27532 -742.974 -14.0664
-3.44496 463.931 -9.78414
94.6125 -408.957 4.03732
244.277 60.682 196.704
81.3497 -105.608 17.9338
-358.746 130.139 123.305
-31.9436 256.995 43.0528
377.106 230.021 159.168
-65.8418 -368.503 1.62458e-14
13.5753 -365.427 2.76259e-15
13.6638 -367.81 1.29697e-14
53.1334 -227.496 5.06761e-14
56.5207 -375.022 -5.68582e-14
170.137 -32.7556 74.8826
109.445 -124.621 49.7922
207.663 -424.231 -92.2129
-155.554 -213.747 -38.0693
-81.4948 -221.983 -4.47958e-14
-567.473 61.1874 -291.489
-155.835 -378.48 -1.58522e-13
-89.5563 -217.669 2.17489e-14
69.2573 -383.441 -4.34912e-14
201.247 -317.756 298.547
165.88 -371.981 2.71505e-13
0.0 0.0 0.0
0.0 0.0 0.0
0.0 0.0 0.0
0.0 0.0 0.0
0.0 0.0 0.0
0.0 0.0 0.0
0.0 0.0 0.0
56.4488 102.286 49.7922
0.0 0.0 0.0
0.0 0.0 0.0
0.0 0.0 0.0
0.0 0.0 0.0
0.0 0.0 0.0
0.0 0.0 0.0
0.0 0.0 0.0
0.0 0.0 0.0
0.0 0.0 0.0
0.0 0.0 0.0
0.0 0.0 0.0
0.0 0.0 0.0
0.0 0.0 0.0
0.0 0.0 0.0
0.0 0.0 0.0
0.0 0.0 0.0
0.0 0.0 0.0
0.0 0.0 0.0
0.0 0.0 0.0
0.0 0.0 0.0
0.0 0.0 0.0
0.0 0.0 0.0
0.0 0.0 0.0
0.0 0.0 0.0
0.0 0.0 0.0
0.0 0.0 0.0
0.0 0.0 0.0
0.0 0.0 0.0
0.0 0.0 0.0
0.0 0.0 0.0
0.0 0.0 0.0
0.0 0.0 0.0
0.0 0.0 0.0
0.0 0.0 0.0
0.0 0.0 0.0
0.0 0.0 0.0
0.0 0.0 0.0
0.0 0.0 0.0
0.0 0.0 0.0
0.0 0.0 0.0
0.0 0.0 0.0
0.0 0.0 0.0
0.0 0.0 0.0
0.0 0.0 0.0
0.0 0.0 0.0
0.0 0.0 0.0
0.0 0.0 0.0
0.0 0.0 0.0
0.0 0.0 0.0
0.0 0.0 0.0
0.0 0.0 0.0
0.0 0.0 0.0
0.0 0.0 0.0
0.0 0.0 0.0
0.0 0.0 0.0
0.0 0.0 0.0
0.0 0.0 0.0
0.0 0.0 0.0
0.0 0.0 0.0
0.0 0.0 0.0
0.0 0.0 0.0
0.0 0.0 0.0
0.0 0.0 0.0
0.0 0.0 0.0
0.0 0.0 0.0
0.0 0.0 0.0
0.0 0.0 0.0
0.0 0.0 0.0
0.0 0.0 0.0
0.0 0.0 0.0
0.0 0.0 0.0
0.0 0.0 0.0
0.0 0.0 0.0
0.0 0.0 0.0
0.0 0.0 0.0
0.0 0.0 0.0
0.0 0.0 0.0
0.0 0.0 0.0
0.0 0.0 0.0
0.0 0.0 0.0
0.0 0.0 0.0
0.0 0.0 0.0
0.0 0.0 0.0
0.0 0.0 0.0
0.0 0.0 0.0
0.0 0.0 0.0
0.0 0.0 0.0
0.0 0.0 0.0
0.0 0.0 0.0
0.0 0.0 0.0
0.0 0.0 0.0
0.0 0.0 0.0
0.0 0.0 0.0
0.0 0.0 0.0
0.0 0.0 0.0
0.0 0.0 0.0
0.0 0.0 0.0
0.0 0.0 0.0
0.0 0.0 0.0
0.0 0.0 0.0
0.0 0.0 0.0
0.0 0.0 0.0
0.0 0.0 0.0
0.0 0.0 0.0
0.0 0.0 0.0
0.0 0.0 0.0
0.0 0.0 0.0
0.0 0.0 0.0
0.0 0.0 0.0
0.0 0.0 0.0
0.0 0.0 0.0
0.0 0.0 0.0
0.0 0.0 0.0
0.0 0.0 0.0
0.0 0.0 0.0
0.0 0.0 0.0
0.0 0.0 0.0
0.0 0.0 0.0
0.0 0.0 0.0
0.0 0.0 0.0
0.0 0.0 0.0
0.0 0.0 0.0
0.0 0.0 0.0
0.0 0.0 0.0
0.0 0.0 0.0
0.0 0.0 0.0
0.0 0.0 0.0
0.0 0.0 0.0
0.0 0.0 0.0
0.0 0.0 0.0
0.0 0.0 0.0
0.0 0.0 0.0
VECTORS v float
-0.705463 -0.267917 -0.304183
-0.829408 0.22026 -0.291633
-1.13531 0.557518 -0.530734
-0.805626 -0.0623163 -0.4324
-1.01633 0.294895 -0.731229
-0.81565 0.213 -0.37089
-0.60364 -0.129187 -0.324866
-0.682214 0.183059 -0.279007
-0.739681 0.0955725 -0.471102
-0.825891 -0.241266 -0.372349
-0.810353 -0.220714 -0.452
-0.540794 0.21486 -0.148835
-0.809413 0.212428 -0.490413
-0.806873 -0.212866 0.164465
-0.579489 0.194121 -0.274558
-0.761856 -0.0901797 -0.47022
-0.571864 0.0895805 -0.25845
-0.750346 0.180126 -0.246443
-0.434069 -0.0327364 -0.121574
-0.740387 0.234009 -0.454496
-0.727982 0.151647 -0.434361
-0.737266 0.0484382 -0.321708
-0.478936 -0.0320231 -0.312046
-0.444275 0.0972333 -0.203309
-0.369691 -0.00339579 -0.119609
-0.637851 0.112599 -0.273677
-0.746853 -0.229155 -0.435161
-1.0713 0.0493354 -0.458054
-0.165809 0.325428 -0.0157113
-0.72059 0.297164 -0.394586
-1.09074 0.259136 -0.222433
-0.730942 0.0480227 -0.292978
-0.740645 0.020497 -0.201461
-0.750204 0.0492702 -0.25075
-0.756912 0.0215037 -0.154037
-0.481235 -0.055419 -0.311978
-0.0392526 0.252388 0.269849
-0.729676 -0.109972 -0.287578
-0.57235 0.00208223 -0.239583
-0.749106 -0.135304 0.189485
-0.525783 -0.262883 -0.133535
-0.809307 -0.592309 -0.234322
-0.678085 -0.0318642 -0.287019
-0.704419 0.235499 -0.112442
-0.926663 0.481481 -0.153957
-0.306286 0.216467 -0.336473
-0.718805 0.16698 0.0260553
-0.874901 0.506308 -0.60552
0.166147 -0.446184 -0.705064
-1.01612 0.0456391 -0.190217
-0.748691 -0.016841 0.186885
-0.580715 -0.2412 -0.379875
-0.744631 -0.134496 0.000687142
-0.211152 0.0367644 -0.0845255
-0.602832 0.144916 -0.712737
-0.581102 -0.101463 -0.271172
-0.342542 -0.0331046 -0.150539
-0.584463 0.124729 -0.411482
-0.470583 0.131677 -0.211084
-0.881514 -0.192444 -0.00683426
-0.395523 0.441468 -0.227764
-0.724818 0.29843 0.00665669
-0.403737 0.0452109 -0.0459068
-0.721152 0.128851 -0.300622
-0.643754 0.250415 0.130934
-0.62625 0.159735 0.0978294
-0.201623 -0.0439977 -0.21999
-0.55464 -0.0743018 -0.339277
-0.419727 -0.0188315 -0.360533
-1.03713 -0.876745 -0.678774
-0.411832 -0.234231 0.0938574
-0.0258085 0.351569 0.219839
-0.767814 -0.0177079 -0.279149
-0.714072 -0.386294 -0.491931
-0.717848 0.128261 -0.0580029
-0.721155 -0.0267903 0.118208
-0.717929 -0.0266705 0.033052
-0.732633 -0.171112 -0.306441
-0.72901 -0.109871 0.274702
-0.198361 -0.491415 0.0617155
-0.32445 0.25102 -1.13434
-0.54179 -0.119024 -0.154459
-0.644309 0.0703581 -0.230789
-0.713952 0.262107 -0.164686
-0.321792 0.887494 -1.31443
-0.730519 0.300783 0.238518
-0.699633 0.287853 0.238185
-0.752938 -0.135996 0.266652
-0.603435 0.12284 -0.145919
-0.718964 -0.320613 0.234253
0.0 0.0 -2.0405
0.0 0.0 -2.0247
0.0 0.0 -2.03177
0.0 0.0 -2.01028
0.0 0.0 -2.02147
0.0 0.0 -2.0092
0.0 0.0 -2.00577
-0.407639 -0.422005 -0.720249
0.0 0.0 -2.00302
0.0 0.0 -1.98154
0.0 0.0 -1.98007
0.0 0.0 -1.97958
0.0 0.0 -1.95898
0.0 0.0 -1.96153
0.0 0.0 -1.93896
0.0 0.0 -1.93416
0.0 0.0 -1.91473
0.0 0.0 -1.92817
0.0 0.0 -1.91493
0.0 0.0 -1.9214
0.0 0.0 -1.9214
0.0 0.0 -1.91709
0.0 0.0 -1.89933
0.0 0.0 -1.90914
0.0 0.0 -1.88962
0.0 0.0 -1.84773
0.0 0.0 -1.84008
0.0 0.0 -1.83164
0.0 0.0 -1.82154
0.0 0.0 -1.82527
0.0 0.0 -1.80447
0.0 0.0 -1.80614
0.0 0.0 -1.7924
0.0 0.0 -1.79211
0.0 0.0 -1.79701
0.0 0.0 -1.78897
0.0 0.0 -1.76719
0.0 0.0 -1.76287
0.0 0.0 -1.76945
0.0 0.0 -1.73717
0.0 0.0 -1.74571
0.0 0.0 -1.7459
0.0 0.0 -1.7305
0.0 0.0 -1.72079
0.0 0.0 -1.72236
0.0 0.0 -1.70549
0.0 0.0 -1.70529
0.0 0.0 -1.69391
0.0 0.0 -1.68214
0.0 0.0 -1.68587
0.0 0.0 -1.69048
0.0 0.0 -1.67046
0.0 0.0 -1.64594
0.0 0.0 -1.63181
0.0 0.0 -1.63378
0.0 0.0 -1.64545
0.0 0.0 -1.63368
0.0 0.0 -1.63701
0.0 0.0 -1.60847
0.0 0.0 -1.60513
0.0 0.0 -1.55883
0.0 0.0 -1.57923
0.0 0.0 -1.57737
0.0 0.0 -1.5808
0.0 0.0 -1.56815
0.0 0.0 -1.55304
0.0 0.0 -1.51802
0.0 0.0 -1.53048
0.0 0.0 -1.51301
0.0 0.0 -1.5238
0.0 0.0 -1.50095
0.0 0.0 -1.4984
0.0 0.0 -1.48672
0.0 0.0 -1.50575
0.0 0.0 -1.4621
0.0 0.0 -1.46916
0.0 0.0 -1.47397
0.0 0.0 -1.47583
0.0 0.0 -1.47848
0.0 0.0 -1.45857
0.0 0.0 -1.44228
0.0 0.0 -1.45043
0.0 0.0 -1.44719
0.0 0.0 -1.41413
0.0 0.0 -1.43247
0.0 0.0 -1.4106
0.0 0.0 -1.40687
0.0 0.0 -1.39932
0.0 0.0 -1.36959
0.0 0.0 -1.36469
0.0 0.0 -1.36155
0.0 0.0 -1.36783
0.0 0.0 -1.35517
0.0 0.0 -1.34713
0.0 0.0 -1.34909
0.0 0.0 -1.3486
0.0 0.0 -1.33231
0.0 0.0 -1.32005
0.0 0.0 -1.31946
0.0 0.0 -1.29955
0.0 0.0 -1.27855
0.0 0.0 -1.27218
0.0 0.0 -1.28277
0.0 0.0 -1.29474
0.0 0.0 -1.24579
0.0 0.0 -1.24461
0.0 0.0 -1.26668
0.0 0.0 -1.26727
0.0 0.0 -1.23166
0.0 0.0 -1.2192
0.0 0.0 -1.23657
0.0 0.0 -1.23902
0.0 0.0 -1.19909
0.0 0.0 -1.20155
0.0 0.0 -1.20969
0.0 0.0 -1.16858
0.0 0.0 -1.15701
0.0 0.0 -1.1629
0.0 0.0 -1.17202
0.0 0.0 -1.17025
0.0 0.0 -1.11502
0.0 0.0 -1.14131
0.0 0.0 -1.12493
0.0 0.0 -1.1317
0.0 0.0 -1.09501
0.0 0.0 -1.09835
0.0 0.0 -1.11267
0.0 0.0 -1.11277
0.0 0.0 -1.05695
0.0 0.0 -1.0644
0.0 0.0 -1.05773
0.0 0.0 -1.06911
0.0 0.0 -1.0493
0.0 0.0 -1.03752
0.0 0.0 -1.04341
0.0 0.0 -1.03438
-0 0.0 -1.0
-0 0.0 -1.0
-0 0.0 -1.0
-0 0.0 -1.0
SCALARS radius float 1
LOOKUP_TABLE default
0.0025
0.0015
0.0015
0.0015
0.0025
0.0015
0.0015
0.0025
0.0015
0.0015
0.0015
0.0015
0.0015
0.0025
0.0015
0.0015
0.0025
0.0015
0.0025
0.0015
0.0015
0.0025
0.0025
0.0025
0.0015
0.0025
0.0015
0.0015
0.0015
0.0025
0.0015
0.0015
0.0015
0.0015
0.0015
0.0015
0.0015
0.0015
0.0025
0.0015
0.0015
0.0015
0.0015
0.0025
0.0015
0.0025
0.0015
0.0015
0.0015
0.0015
0.0015
0.0025
0.0015
0.0025
0.0015
0.0025
0.0015
0.0025
0.0015
0.0025
0.0025
0.0025
0.0015
0.0015
0.0025
0.0015
0.0015
0.0015
0.0015
0.0015
0.0025
0.0015
0.0015
0.0015
0.0015
0.0015
0.0015
0.0025
0.0015
0.0025
0.0025
0.0015
0.0025
0.0025
0.0015
0.0015
0.0025
0.0015
0.0015
0.0015
0.0015
0.0015
0.0025
0.0015
0.0015
0.0025
0.0025
0.0025
0.0015
0.0015
0.0025
0.0015
0.0015
0.0015
0.0015
0.0025
0.0025
0.0025
0.0015
0.0015
0.0025
0.0015
0.0015
0.0025
0.0015
0.0015
0.0015
0.0025
0.0015
0.0025
0.0015
0.0015
0.0015
0.0015
0.0025
0.0015
0.0015
0.0025
0.0025
0.0025
0.0015
0.0015
0.0025
0.0025
0.0015
0.0015
0.0015
0.0015
0.0025
0.0015
0.0015
0.0015
0.0015
0.0015
0.0015
0.0025
0.0015
0.0015
0.0025
0.0025
0.0025
0.0015
0.0015
0.0015
0.0025
0.0015
0.0015
0.0015
0.0025
0.0015
0.0025
0.0015
0.0015
0.0015
0.0015
0.0015
0.0015
0.0015
0.0025
0.0015
0.0015
0.0025
0.0025
0.0015
0.0015
0.0025
0.0015
0.0015
0.0025
0.0015
0.0015
0.0015
0.0025
0.0015
0.0025
0.0015
0.0025
0.0025
0.0015
0.0015
0.0015
0.0015
0.0015
0.0015
0.0025
0.0015
0.0025
0.0015
0.0025
0.0015
0.0015
0.0015
0.0025
0.0015
0.0015
0.0015
0.0015
0.0025
0.0015
0.0015
0.0025
0.0015
0.0025
0.0015
0.0015
0.0015
0.0025
0.0025
0.0015
0.0025
0.0015
0.0015
0.0015
0.0015
0.0015
0.0015
0.0015
0.0025
0.0025
0.0025
SCALARS type float 1
LOOKUP_TABLE default
1.0
1.0
1.0
1.0
1.0
1.0
1.0
1.0
1.0
1.0
1.0
1.0
1.0
1.0
1.0
1.0
1.0
1.0
1.0
1.0
1.0
1.0
1.0
1.0
1.0
1.0
1.0
1.0
1.0
1.0
1.0
1.0
1.0
1.0
1.0
1.0
1.0
1.0
1.0
1.0
1.0
1.0
1.0
1.0
1.0
1.0
1.0
1.0
1.0
1.0
1.0
1.0
1.0
1.0
1.0
1.0
1.0
1.0
1.0
1.0
1.0
1.0
1.0
1.0
1.0
1.0
1.0
1.0
1.0
1.0
1.0
1.0
1.0
1.0
1.0
1.0
1.0
1.0
1.0
1.0
1.0
1.0
1.0
1.0
1.0
1.0
1.0
1.0
1.0
1.0
1.0
1.0
1.0
1.0
1.0
1.0
1.0
1.0
1.0
1.0
1.0
1.0
1.0
1.0
1.0
1.0
1.0
1.0
1.0
1.0
1.0
1.0
1.0
1.0
1.0
1.0
1.0
1.0
1.0
1.0
1.0
1.0
1.0
1.0
1.0
1.0
1.0
1.0
1.0
1.0
1.0
1.0
1.0
1.0
1.0
1.0
1.0
1.0
1.0
1.0
1.0
1.0
1.0
1.0
1.0
1.0
1.0
1.0
1.0
1.0
1.0
1.0
1.0
1.0
1.0
1.0
1.0
1.0
1.0
1.0
1.0
1.0
1.0
1.0
1.0
1.0
1.0
1.0
1.0
1.0
1.0
1.0
1.0
1.0
1.0
1.0
1.0
1.0
1.0
1.0
1.0
1.0
1.0
1.0
1.0
1.0
1.0
1.0
1.0
1.0
1.0
1.0
1.0
1.0
1.0
1.0
1.0
1.0
1.0
1.0
1.0
1.0
1.0
1.0
1.0
1.0
1.0
1.0
1.0
1.0
1.0
1.0
1.0
1.0
1.0
1.0
1.0
1.0
1.0
1.0
1.0
1.0
1.0
1.0
1.0
1.0
1.0
1.0
1.0
1.0
SCALARS id float 1
LOOKUP_TABLE default
4.0
31.0
38.0
36.0
30.0
12.0
50.0
3.0
5.0
23.0
35.0
33.0
8.0
52.0
19.0
18.0
28.0
21.0
1.0
24.0
37.0
2.0
39.0
29.0
44.0
16.0
11.0
47.0
9.0
26.0
71.0
10.0
20.0
17.0
32.0
60.0
74.0
6.0
27.0
88.0
34.0
75.0
45.0
41.0
48.0
15.0
56.0
51.0
63.0
76.0
81.0
65.0
57.0
13.0
43.0
54.0
62.0
42.0
70.0
79.0
66.0
55.0
59.0
22.0
78.0
83.0
73.0
49.0
25.0
72.0
68.0
61.0
85.0
7.0
46.0
69.0
64.0
14.0
84.0
67.0
77.0
58.0
53.0
40.0
89.0
102.0
80.0
87.0
82.0
86.0
95.0
98.0
94.0
97.0
100.0
92.0
91.0
90.0
99.0
101.0
93.0
96.0
113.0
114.0
115.0
105.0
106.0
107.0
112.0
110.0
103.0
109.0
111.0
104.0
108.0
123.0
125.0
120.0
122.0
117.0
126.0
121.0
127.0
128.0
116.0
124.0
138.0
118.0
119.0
132.0
139.0
133.0
131.0
130.0
140.0
137.0
136.0
135.0
129.0
141.0
134.0
149.0
153.0
146.0
152.0
143.0
148.0
151.0
142.0
144.0
155.0
147.0
154.0
150.0
145.0
163.0
165.0
160.0
157.0
159.0
158.0
162.0
166.0
161.0
175.0
176.0
173.0
164.0
156.0
172.0
178.0
168.0
170.0
179.0
171.0
167.0
177.0
174.0
169.0
192.0
191.0
185.0
182.0
186.0
180.0
184.0
183.0
181.0
190.0
188.0
200.0
204.0
189.0
187.0
196.0
205.0
195.0
198.0
193.0
201.0
197.0
203.0
194.0
199.0
202.0
212.0
217.0
209.0
215.0
216.0
206.0
218.0
207.0
211.0
214.0
213.0
208.0
210.0
226.0
219.0
228.0
223.0
229.0
227.0
224.0
230.0
225.0
221.0
220.0
222.0

