# vtk DataFile Version 2.0
Generated by lpp.py
ASCII
DATASET POLYDATA
POINTS 746 float
-0.495705 -0.0241159 -0.398989
-0.45956 -0.00504244 -0.383546
-0.487504 0.0159116 -0.384949
-0.4763 0.0245231 -0.379315
-0.470349 0.0117705 -0.373132
-0.476487 0.0189096 -0.375238
-0.457171 -0.0169817 -0.370999
-0.471075 -0.00231273 -0.370546
-0.468833 0.00634304 -0.371151
-0.474756 0.0204815 -0.366562
-0.463485 0.0030367 -0.364418
-0.459733 0.00998632 -0.364466
-0.464603 0.0112272 -0.364155
-0.464477 0.0166697 -0.362059
-0.48961 -0.0368554 -0.360353
-0.460737 0.000998327 -0.359956
-0.45394 -0.00299259 -0.354999
-0.454116 0.006883 -0.35226
-0.44825 0.00646207 -0.353127
-0.459616 0.0207861 -0.351738
-0.452363 -0.00242593 -0.341653
-0.444659 -0.000184613 -0.340074
-0.441861 -0.00253061 -0.336023
-0.452946 0.0368464 -0.335786
-0.480128 -0.0189115 -0.330611
-0.438778 -0.00232542 -0.329599
-0.4191 0.00465222 -0.331928
-0.417572 0.00789366 -0.319272
-0.423043 -0.0156097 -0.316453
-0.412394 -0.0134188 -0.316422
-0.421512 -0.00210087 -0.315873
-0.411733 0.00359523 -0.31253
-0.415616 0.0117709 -0.313863
-0.411755 -0.0183119 -0.309438
-0.415191 0.00868631 -0.308722
-0.412355 0.0130435 -0.304959
-0.417158 0.0316926 -0.307392
-0.415258 -0.0176199 -0.301732
-0.409494 -0.017819 -0.304144
-0.412748 -0.0126788 -0.298115
-0.402057 0.000937115 -0.298686
-0.391925 0.00600702 -0.297456
-0.411022 0.0402124 -0.300518
-0.400495 -0.0179061 -0.291269
-0.395978 0.00321171 -0.292798
-0.395706 0.00249614 -0.287596
-0.39073 0.00771921 -0.286856
-0.394306 0.0108353 -0.290027
-0.408664 0.0351001 -0.286943
-0.389702 -0.0189499 -0.284396
-0.387298 0.00293699 -0.285776
-0.393647 0.00467716 -0.284701
-0.373515 0.00996965 -0.286559
-0.388961 0.0217995 -0.283094
-0.394694 -0.0323545 -0.281602
-0.388182 0.00530348 -0.279914
-0.391046 0.0287052 -0.282708
-0.382458 -0.0179482 -0.277945
-0.379646 0.0083883 -0.276534
-0.37912 0.0131174 -0.278328
-0.37781 0.0160877 -0.277938
-0.378282 -0.0211157 -0.274362
-0.382115 -0.0184134 -0.27461
-0.371299 -0.0191761 -0.275596
-0.371415 -0.00756527 -0.274181
-0.377593 -0.00383342 -0.275455
-0.375242 -0.00397598 -0.272306
-0.372334 0.00271416 -0.273151
-0.376471 0.0171079 -0.273175
-0.375495 -0.0260834 -0.268632
-0.371753 -0.00941722 -0.266811
-0.369872 -0.00243453 -0.266467
-0.370279 0.0241806 -0.268113
-0.368812 -0.0401778 -0.263691
-0.372657 -0.0258059 -0.264796
-0.371541 -0.0142261 -0.264076
-0.364991 -0.00513996 -0.264491
-0.359214 -0.00525079 -0.26143
-0.360095 0.0112785 -0.262058
-0.359696 -0.011591 -0.261151
-0.354371 -0.00853733 -0.258209
-0.355127 0.00239569 -0.260335
-0.355547 0.00756153 -0.258998
-0.354783 -0.0138902 -0.255924
-0.35122 -0.00735003 -0.255359
-0.352833 0.00106941 -0.256425
-0.350593 -0.0193986 -0.254036
-0.345816 -0.00488867 -0.253209
-0.344284 0.00449124 -0.25137
-0.352501 0.00712614 -0.254108
-0.34584 0.00899122 -0.253469
-0.347123 0.0222477 -0.252056
-0.354409 -0.0387629 -0.250163
-0.343726 -0.017449 -0.250633
-0.34149 -0.0197616 -0.247241
-0.337913 -0.00521424 -0.249437
-0.340391 0.017915 -0.249038
-0.343947 0.0235677 -0.24853
-0.342127 -0.0311328 -0.246415
-0.329985 0.00454315 -0.244186
-0.329124 0.0115555 -0.243624
-0.33091 0.0143233 -0.245811
-0.325805 -0.00569855 -0.242079
-0.32154 -0.00169177 -0.240546
-0.322939 0.00164933 -0.242225
-0.320357 0.00283776 -0.241048
-0.322886 0.00464977 -0.241906
-0.322189 0.00751594 -0.240962
-0.325301 0.0116367 -0.242454
-0.321185 0.0137339 -0.240449
-0.326864 0.0161262 -0.241491
-0.328987 0.0194053 -0.242919
-0.320373 -0.0255528 -0.237832
-0.316968 -0.00221483 -0.238559
-0.310555 0.0119234 -0.236347
-0.318191 0.014329 -0.23767
-0.323974 0.0243705 -0.239034
-0.316232 0.0240081 -0.236536
-0.330241 0.0368108 -0.238308
-0.312409 -0.0212235 -0.23459
-0.309464 -0.018274 -0.234928
-0.305038 -0.00209754 -0.234689
-0.326382 0.0122417 -0.231983
-0.306895 0.017077 -0.232889
-0.325901 -0.0439823 -0.231692
-0.312979 -0.0407798 -0.229414
-0.299755 -0.0198947 -0.22942
-0.300226 -0.0143888 -0.230646
-0.298966 -0.0074306 -0.231941
-0.296234 -0.00755403 -0.229834
-0.30181 -0.00337345 -0.232199
-0.295268 -0.00103211 -0.230603
-0.292409 7.21482e-05 -0.229433
-0.295799 0.00403856 -0.230621
-0.297085 0.0180402 -0.229708
-0.30381 -0.0401911 -0.226095
-0.298114 -0.0268289 -0.227271
-0.295136 -0.021334 -0.22729
-0.293983 -0.017618 -0.228638
-0.290354 -0.0158196 -0.226342
-0.28832 -0.0110838 -0.226002
-0.291841 -0.00996556 -0.228693
-0.286958 -0.00713124 -0.226744
-0.289119 -0.00485201 -0.227876
-0.290121 -0.00179089 -0.228404
-0.294315 0.0141231 -0.228218
-0.300286 0.0338616 -0.227071
-0.283841 -0.00767795 -0.224078
-0.286859 -0.00310543 -0.22457
-0.281795 -0.00244197 -0.22373
-0.285708 0.00558325 -0.225182
-0.283516 0.0095237 -0.225034
-0.280908 0.00846988 -0.22362
-0.282231 0.0128963 -0.223107
-0.287395 0.0241656 -0.224564
-0.282018 -0.0191113 -0.222266
-0.273421 -0.0208497 -0.219458
-0.276098 -0.0156692 -0.221454
-0.273593 -0.0168444 -0.220258
-0.277361 -0.0115988 -0.221337
-0.274477 -0.00493644 -0.221699
-0.270317 -0.00648842 -0.218801
-0.27722 -0.00035901 -0.221923
-0.272608 -0.000108447 -0.219992
-0.271423 0.0140621 -0.219636
-0.275747 0.0163468 -0.221039
-0.27577 0.0219097 -0.220039
-0.268904 -0.03019 -0.215321
-0.271854 -0.026087 -0.21669
-0.270837 -0.0149062 -0.218087
-0.261639 -0.00471617 -0.215212
-0.263677 -0.000538287 -0.217309
-0.265791 0.00443764 -0.217973
-0.264376 0.0163006 -0.216319
-0.272823 0.0205216 -0.217608
-0.269602 0.0323603 -0.214992
-0.296545 -0.054441 -0.215615
-0.261979 -0.011133 -0.21494
-0.251689 -0.00608054 -0.212038
-0.25558 0.000507797 -0.212751
-0.257281 0.00574093 -0.214315
-0.258734 0.00941203 -0.214761
-0.259469 0.0142611 -0.214582
-0.25536 0.0150421 -0.212726
-0.259062 0.0235379 -0.211851
-0.26578 0.030687 -0.213931
-0.264888 0.0363228 -0.212002
-0.275624 0.0393658 -0.215206
-0.245727 -0.0112268 -0.208134
-0.2491 -0.00770397 -0.210861
-0.244966 -0.00681644 -0.209156
-0.244047 -0.00395801 -0.208911
-0.249042 -0.00190052 -0.21111
-0.246058 -0.000237803 -0.208736
-0.250731 0.0044592 -0.21161
-0.24651 0.0124553 -0.209353
-0.246484 0.0186762 -0.208461
-0.236047 -0.00726556 -0.205256
-0.238443 -0.00262033 -0.206625
-0.241472 0.00450876 -0.207701
-0.23517 0.00456421 -0.205047
-0.243827 0.0114402 -0.207965
-0.242919 0.0147451 -0.207528
-0.241303 0.021234 -0.204818
-0.249096 0.0274182 -0.20679
-0.251739 0.0353356 -0.20578
-0.235651 -0.0303641 -0.201676
-0.236454 -0.0240763 -0.203283
-0.233815 -0.024083 -0.201585
-0.235854 -0.0169049 -0.203348
-0.231492 -0.0135161 -0.202873
-0.228533 0.0063169 -0.201081
-0.233035 0.00734848 -0.202985
-0.228856 0.011143 -0.202073
-0.257319 0.048674 -0.203758
-0.230771 -0.0259386 -0.200545
-0.227733 -0.0189168 -0.200726
-0.22207 -0.0130287 -0.198883
-0.225812 -0.00247823 -0.200177
-0.219773 0.000440231 -0.19865
-0.22431 0.00532558 -0.198608
-0.224449 0.017311 -0.199443
-0.224956 0.02262 -0.198962
-0.218752 -0.0253189 -0.195657
-0.21502 -0.0241896 -0.194389
-0.215588 -0.0157984 -0.195919
-0.213853 -0.0106988 -0.195684
-0.227802 -0.00844959 -0.195968
-0.211047 -0.00855517 -0.194716
-0.218423 0.0158727 -0.197067
-0.21853 0.0197465 -0.19555
-0.261732 0.0214174 -0.195432
-0.21145 -0.0328152 -0.190955
-0.215864 -0.0301455 -0.193437
-0.211246 -0.0258493 -0.19139
-0.20908 -0.013145 -0.192318
-0.208365 0.00744452 -0.193744
-0.207888 0.011006 -0.193198
-0.206102 0.0160935 -0.191815
-0.208306 0.0200776 -0.191286
-0.213897 0.0223024 -0.193317
-0.216033 -0.0475806 -0.187989
-0.204198 -0.0322294 -0.188065
-0.2043 -0.0241096 -0.189948
-0.20159 -0.0208144 -0.188331
-0.198456 -0.015971 -0.188655
-0.195249 -0.0148695 -0.187415
-0.201068 -0.0102739 -0.18815
-0.195937 -0.0104864 -0.188224
-0.194007 -0.0081581 -0.187665
-0.199065 -0.00148146 -0.188789
-0.198865 0.00482794 -0.188712
-0.200821 0.00870052 -0.190429
-0.193718 0.00901345 -0.18739
-0.206324 0.012319 -0.189782
-0.194769 0.0120594 -0.187553
-0.200532 0.015926 -0.189558
-0.192262 -0.0290835 -0.18394
-0.206883 -0.026619 -0.187007
-0.193203 -0.0237217 -0.185485
-0.197143 -0.0193542 -0.186478
-0.190555 -0.0206835 -0.18475
-0.202076 -0.00765287 -0.184218
-0.189735 -0.00929572 -0.185766
-0.187027 -0.00980161 -0.184569
-0.191148 -0.00494242 -0.186516
-0.186925 -0.00380529 -0.183636
-0.19384 3.23688e-05 -0.18659
-0.188908 -0.000944372 -0.185615
-0.188523 0.00217618 -0.184477
-0.192105 0.0046979 -0.1859
-0.187202 0.00520451 -0.184945
-0.191002 0.00855944 -0.186175
-0.200788 0.0119065 -0.185418
-0.1917 0.0115313 -0.186251
-0.189022 0.0116641 -0.184766
-0.185105 0.0110637 -0.183535
-0.189201 0.0157993 -0.184819
-0.202208 0.0312791 -0.186457
-0.308011 0.0791361 -0.187248
-0.207457 -0.0525687 -0.182512
-0.203393 -0.05379 -0.180275
-0.178166 -0.0166278 -0.180124
-0.18454 -0.0121496 -0.182196
-0.1809 -0.00996558 -0.181551
-0.182342 -0.0038573 -0.182702
-0.176678 -0.00511116 -0.180237
-0.180838 -0.00128585 -0.181828
-0.19169 0.036495 -0.180835
-0.212438 -0.0624717 -0.179412
-0.201667 -0.0561282 -0.178408
-0.1907 -0.0422417 -0.179624
-0.188502 -0.0431974 -0.17779
-0.174718 -0.019118 -0.178434
-0.172396 -0.0124886 -0.177123
-0.171078 -0.00853676 -0.177981
-0.173 -0.00577582 -0.178823
-0.173434 0.00636619 -0.177035
-0.175531 0.00893096 -0.179678
-0.174017 0.0149841 -0.178519
-0.177565 0.0172129 -0.179837
-0.180014 0.0368967 -0.177031
-0.172469 -0.0345779 -0.174513
-0.167699 -0.0232702 -0.174812
-0.170881 -0.0191303 -0.175695
-0.166347 -0.0170368 -0.175236
-0.162225 -0.0177075 -0.173392
-0.167436 -0.00736655 -0.175432
-0.164093 -0.0102312 -0.17487
-0.162638 -0.00513675 -0.173449
-0.161321 0.00472056 -0.172898
-0.167243 0.0122288 -0.174833
-0.166901 0.0224626 -0.174605
-0.177205 -0.0510589 -0.170032
-0.158842 -0.0194493 -0.170334
-0.155886 -0.00105266 -0.171701
-0.157833 0.00137373 -0.172473
-0.156178 0.0045527 -0.171742
-0.157597 0.00738325 -0.172219
-0.155807 0.00999788 -0.1714
-0.163421 0.0225709 -0.172018
-0.183658 0.05745 -0.170872
-0.152464 -0.024498 -0.168324
-0.151438 -0.0150506 -0.169129
[...]
POINT_DATA 746
VECTORS i float
0.0 0.0 0.0
0.0 0.0 0.0
0.0 0.0 0.0
0.0 0.0 0.0
0.0 0.0 0.0
0.0 0.0 0.0
0.0 0.0 0.0
0.0 0.0 0.0
0.0 0.0 0.0
0.0 0.0 0.0
0.0 0.0 0.0
0.0 0.0 0.0
0.0 0.0 0.0
0.0 0.0 0.0
0.0 0.0 0.0
0.0 0.0 0.0
0.0 0.0 0.0
0.0 0.0 0.0
0.0 0.0 0.0
0.0 0.0 0.0
0.0 0.0 0.0
0.0 0.0 0.0
0.0 0.0 0.0
0.0 0.0 0.0
0.0 0.0 0.0
0.0 0.0 0.0
0.0 0.0 0.0
0.0 0.0 0.0
0.0 0.0 0.0
0.0 0.0 0.0
0.0 0.0 0.0
0.0 0.0 0.0
0.0 0.0 0.0
0.0 0.0 0.0
0.0 0.0 0.0
0.0 0.0 0.0
0.0 0.0 0.0
0.0 0.0 0.0
0.0 0.0 0.0
0.0 0.0 0.0
0.0 0.0 0.0
0.0 0.0 0.0
0.0 0.0 0.0
0.0 0.0 0.0
0.0 0.0 0.0
0.0 0.0 0.0
0.0 0.0 0.0
0.0 0.0 0.0
0.0 0.0 0.0
0.0 0.0 0.0
0.0 0.0 0.0
0.0 0.0 0.0
0.0 0.0 0.0
0.0 0.0 0.0
0.0 0.0 0.0
0.0 0.0 0.0
0.0 0.0 0.0
0.0 0.0 0.0
0.0 0.0 0.0
0.0 0.0 0.0
0.0 0.0 0.0
0.0 0.0 0.0
0.0 0.0 0.0
0.0 0.0 0.0
0.0 0.0 0.0
0.0 0.0 0.0
0.0 0.0 0.0
0.0 0.0 0.0
0.0 0.0 0.0
0.0 0.0 0.0
0.0 0.0 0.0
0.0 0.0 0.0
0.0 0.0 0.0
0.0 0.0 0.0
0.0 0.0 0.0
0.0 0.0 0.0
0.0 0.0 0.0
0.0 0.0 0.0
0.0 0.0 0.0
0.0 0.0 0.0
0.0 0.0 0.0
0.0 0.0 0.0
0.0 0.0 0.0
0.0 0.0 0.0
0.0 0.0 0.0
0.0 0.0 0.0
0.0 0.0 0.0
0.0 0.0 0.0
0.0 0.0 0.0
0.0 0.0 0.0
0.0 0.0 0.0
0.0 0.0 0.0
0.0 0.0 0.0
0.0 0.0 0.0
0.0 0.0 0.0
0.0 0.0 0.0
0.0 0.0 0.0
0.0 0.0 0.0
0.0 0.0 0.0
0.0 0.0 0.0
0.0 0.0 0.0
0.0 0.0 0.0
0.0 0.0 0.0
0.0 0.0 0.0
0.0 0.0 0.0
0.0 0.0 0.0
0.0 0.0 0.0
0.0 0.0 0.0
0.0 0.0 0.0
0.0 0.0 0.0
0.0 0.0 0.0
0.0 0.0 0.0
0.0 0.0 0.0
0.0 0.0 0.0
0.0 0.0 0.0
0.0 0.0 0.0
0.0 0.0 0.0
0.0 0.0 0.0
0.0 0.0 0.0
0.0 0.0 0.0
0.0 0.0 0.0
0.0 0.0 0.0
0.0 0.0 0.0
0.0 0.0 0.0
0.0 0.0 0.0
0.0 0.0 0.0
0.0 0.0 0.0
0.0 0.0 0.0
0.0 0.0 0.0
0.0 0.0 0.0
0.0 0.0 0.0
0.0 0.0 0.0
0.0 0.0 0.0
0.0 0.0 0.0
0.0 0.0 0.0
0.0 0.0 0.0
0.0 0.0 0.0
0.0 0.0 0.0
0.0 0.0 0.0
0.0 0.0 0.0
0.0 0.0 0.0
0.0 0.0 0.0
0.0 0.0 0.0
0.0 0.0 0.0
0.0 0.0 0.0
0.0 0.0 0.0
0.0 0.0 0.0
0.0 0.0 0.0
0.0 0.0 0.0
0.0 0.0 0.0
0.0 0.0 0.0
0.0 0.0 0.0
0.0 0.0 0.0
0.0 0.0 0.0
0.0 0.0 0.0
0.0 0.0 0.0
0.0 0.0 0.0
0.0 0.0 0.0
0.0 0.0 0.0
0.0 0.0 0.0
0.0 0.0 0.0
0.0 0.0 0.0
0.0 0.0 0.0
0.0 0.0 0.0
0.0 0.0 0.0
0.0 0.0 0.0
0.0 0.0 0.0
0.0 0.0 0.0
0.0 0.0 0.0
0.0 0.0 0.0
0.0 0.0 0.0
0.0 0.0 0.0
0.0 0.0 0.0
0.0 0.0 0.0
0.0 0.0 0.0
0.0 0.0 0.0
0.0 0.0 0.0
0.0 0.0 0.0
0.0 0.0 0.0
0.0 0.0 0.0
0.0 0.0 0.0
0.0 0.0 0.0
0.0 0.0 0.0
0.0 0.0 0.0
0.0 0.0 0.0
0.0 0.0 0.0
0.0 0.0 0.0
0.0 0.0 0.0
0.0 0.0 0.0
0.0 0.0 0.0
0.0 0.0 0.0
0.0 0.0 0.0
0.0 0.0 0.0
0.0 0.0 0.0
0.0 0.0 0.0
0.0 0.0 0.0
0.0 0.0 0.0
0.0 0.0 0.0
0.0 0.0 0.0
0.0 0.0 0.0
0.0 0.0 0.0
0.0 0.0 0.0
0.0 0.0 0.0
0.0 0.0 0.0
0.0 0.0 0.0
0.0 0.0 0.0
0.0 0.0 0.0
0.0 0.0 0.0
0.0 0.0 0.0
0.0 0.0 0.0
0.0 0.0 0.0
0.0 0.0 0.0
0.0 0.0 0.0
0.0 0.0 0.0
0.0 0.0 0.0
0.0 0.0 0.0
0.0 0.0 0.0
0.0 0.0 0.0
0.0 0.0 0.0
0.0 0.0 0.0
0.0 0.0 0.0
0.0 0.0 0.0
0.0 0.0 0.0
0.0 0.0 0.0
0.0 0.0 0.0
0.0 0.0 0.0
0.0 0.0 0.0
0.0 0.0 0.0
0.0 0.0 0.0
0.0 0.0 0.0
0.0 0.0 0.0
0.0 0.0 0.0
0.0 0.0 0.0
0.0 0.0 0.0
0.0 0.0 0.0
0.0 0.0 0.0
0.0 0.0 0.0
0.0 0.0 0.0
0.0 0.0 0.0
0.0 0.0 0.0
0.0 0.0 0.0
0.0 0.0 0.0
0.0 0.0 0.0
0.0 0.0 0.0
0.0 0.0 0.0
0.0 0.0 0.0
0.0 0.0 0.0
0.0 0.0 0.0
0.0 0.0 0.0
0.0 0.0 0.0
0.0 0.0 0.0
0.0 0.0 0.0
0.0 0.0 0.0
0.0 0.0 0.0
0.0 0.0 0.0
0.0 0.0 0.0
0.0 0.0 0.0
0.0 0.0 0.0
0.0 0.0 0.0
0.0 0.0 0.0
0.0 0.0 0.0
0.0 0.0 0.0
0.0 0.0 0.0
0.0 0.0 0.0
0.0 0.0 0.0
0.0 0.0 0.0
0.0 0.0 0.0
0.0 0.0 0.0
0.0 0.0 0.0
0.0 0.0 0.0
0.0 0.0 0.0
0.0 0.0 0.0
0.0 0.0 0.0
0.0 0.0 0.0
0.0 0.0 0.0
0.0 0.0 0.0
0.0 0.0 0.0
0.0 0.0 0.0
0.0 0.0 0.0
0.0 0.0 0.0
0.0 0.0 0.0
0.0 0.0 0.0
0.0 0.0 0.0
0.0 0.0 0.0
0.0 0.0 0.0
0.0 0.0 0.0
0.0 0.0 0.0
0.0 0.0 0.0
0.0 0.0 0.0
0.0 0.0 0.0
0.0 0.0 0.0
0.0 0.0 0.0
0.0 0.0 0.0
0.0 0.0 0.0
0.0 0.0 0.0
0.0 0.0 0.0
0.0 0.0 0.0
0.0 0.0 0.0
0.0 0.0 0.0
0.0 0.0 0.0
0.0 0.0 0.0
0.0 0.0 0.0
0.0 0.0 0.0
0.0 0.0 0.0
0.0 0.0 0.0
0.0 0.0 0.0
0.0 0.0 0.0
0.0 0.0 0.0
0.0 0.0 0.0
0.0 0.0 0.0
0.0 0.0 0.0
0.0 0.0 0.0
0.0 0.0 0.0
0.0 0.0 0.0
0.0 0.0 0.0
0.0 0.0 0.0
0.0 0.0 0.0
0.0 0.0 0.0
0.0 0.0 0.0
0.0 0.0 0.0
0.0 0.0 0.0
0.0 0.0 0.0
0.0 0.0 0.0
0.0 0.0 0.0
0.0 0.0 0.0
0.0 0.0 0.0
0.0 0.0 0.0
0.0 0.0 0.0
0.0 0.0 0.0
0.0 0.0 0.0
0.0 0.0 0.0
0.0 0.0 0.0
0.0 0.0 0.0
0.0 0.0 0.0
0.0 0.0 0.0
0.0 0.0 0.0
0.0 0.0 0.0
0.0 0.0 0.0
0.0 0.0 0.0
0.0 0.0 0.0
0.0 0.0 0.0
0.0 0.0 0.0
0.0 0.0 0.0
0.0 0.0 0.0
0.0 0.0 0.0
0.0 0.0 0.0
0.0 0.0 0.0
0.0 0.0 0.0
0.0 0.0 0.0
0.0 0.0 0.0
0.0 0.0 0.0
0.0 0.0 0.0
0.0 0.0 0.0
0.0 0.0 0.0
0.0 0.0 0.0
0.0 0.0 0.0
0.0 0.0 0.0
0.0 0.0 0.0
0.0 0.0 0.0
0.0 0.0 0.0
0.0 0.0 0.0
0.0 0.0 0.0
0.0 0.0 0.0
0.0 0.0 0.0
0.0 0.0 0.0
0.0 0.0 0.0
0.0 0.0 0.0
0.0 0.0 0.0
0.0 0.0 0.0
0.0 0.0 0.0
0.0 0.0 0.0
0.0 0.0 0.0
0.0 0.0 0.0
0.0 0.0 0.0
0.0 0.0 0.0
0.0 0.0 0.0
0.0 0.0 0.0
0.0 0.0 0.0
0.0 0.0 0.0
0.0 0.0 0.0
0.0 0.0 0.0
0.0 0.0 0.0
0.0 0.0 0.0
0.0 0.0 0.0
0.0 0.0 0.0
0.0 0.0 0.0
0.0 0.0 0.0
0.0 0.0 0.0
0.0 0.0 0.0
0.0 0.0 0.0
0.0 0.0 0.0
0.0 0.0 0.0
0.0 0.0 0.0
0.0 0.0 0.0
0.0 0.0 0.0
0.0 0.0 0.0
0.0 0.0 0.0
0.0 0.0 0.0
0.0 0.0 0.0
0.0 0.0 0.0
0.0 0.0 0.0
0.0 0.0 0.0
0.0 0.0 0.0
0.0 0.0 0.0
0.0 0.0 0.0
0.0 0.0 0.0
0.0 0.0 0.0
0.0 0.0 0.0
0.0 0.0 0.0
0.0 0.0 0.0
0.0 0.0 0.0
0.0 0.0 0.0
0.0 0.0 0.0
0.0 0.0 0.0
0.0 0.0 0.0
0.0 0.0 0.0
0.0 0.0 0.0
0.0 0.0 0.0
0.0 0.0 0.0
0.0 0.0 0.0
0.0 0.0 0.0
0.0 0.0 0.0
0.0 0.0 0.0
0.0 0.0 0.0
0.0 0.0 0.0
0.0 0.0 0.0
0.0 0.0 0.0
0.0 0.0 0.0
0.0 0.0 0.0
0.0 0.0 0.0
0.0 0.0 0.0
0.0 0.0 0.0
0.0 0.0 0.0
0.0 0.0 0.0
0.0 0.0 0.0
0.0 0.0 0.0
0.0 0.0 0.0
0.0 0.0 0.0
0.0 0.0 0.0
0.0 0.0 0.0
0.0 0.0 0.0
0.0 0.0 0.0
0.0 0.0 0.0
0.0 0.0 0.0
0.0 0.0 0.0
0.0 0.0 0.0
0.0 0.0 0.0
0.0 0.0 0.0
0.0 0.0 0.0
0.0 0.0 0.0
0.0 0.0 0.0
0.0 0.0 0.0
0.0 0.0 0.0
0.0 0.0 0.0
0.0 0.0 0.0
0.0 0.0 0.0
0.0 0.0 0.0
0.0 0.0 0.0
0.0 0.0 0.0
0.0 0.0 0.0
0.0 0.0 0.0
0.0 0.0 0.0
0.0 0.0 0.0
0.0 0.0 0.0
0.0 0.0 0.0
0.0 0.0 0.0
0.0 0.0 0.0
0.0 0.0 0.0
0.0 0.0 0.0
0.0 0.0 0.0
0.0 0.0 0.0
0.0 0.0 0.0
0.0 0.0 0.0
0.0 0.0 0.0
0.0 0.0 0.0
0.0 0.0 0.0
0.0 0.0 0.0
0.0 0.0 0.0
0.0 0.0 0.0
0.0 0.0 0.0
0.0 0.0 0.0
0.0 0.0 0.0
0.0 0.0 0.0
0.0 0.0 0.0
0.0 0.0 0.0
0.0 0.0 0.0
0.0 0.0 0.0
0.0 0.0 0.0
0.0 0.0 0.0
0.0 0.0 0.0
0.0 0.0 0.0
0.0 0.0 0.0
0.0 0.0 0.0
0.0 0.0 0.0
0.0 0.0 0.0
0.0 0.0 0.0
0.0 0.0 0.0
0.0 0.0 0.0
0.0 0.0 0.0
0.0 0.0 0.0
0.0 0.0 0.0
0.0 0.0 0.0
0.0 0.0 0.0
0.0 0.0 0.0
0.0 0.0 0.0
0.0 0.0 0.0
0.0 0.0 0.0
0.0 0.0 0.0
0.0 0.0 0.0
0.0 0.0 0.0
0.0 0.0 0.0
0.0 0.0 0.0
0.0 0.0 0.0
0.0 0.0 0.0
0.0 0.0 0.0
0.0 0.0 0.0
0.0 0.0 0.0
0.0 0.0 0.0
0.0 0.0 0.0
0.0 0.0 0.0
0.0 0.0 0.0
0.0 0.0 0.0
0.0 0.0 0.0
0.0 0.0 0.0
0.0 0.0 0.0
0.0 0.0 0.0
0.0 0.0 0.0
0.0 0.0 0.0
0.0 0.0 0.0
0.0 0.0 0.0
0.0 0.0 0.0
0.0 0.0 0.0
0.0 0.0 0.0
0.0 0.0 0.0
0.0 0.0 0.0
0.0 0.0 0.0
0.0 0.0 0.0
0.0 0.0 0.0
0.0 0.0 0.0
0.0 0.0 0.0
0.0 0.0 0.0
0.0 0.0 0.0
0.0 0.0 0.0
0.0 0.0 0.0
0.0 0.0 0.0
0.0 0.0 0.0
0.0 0.0 0.0
0.0 0.0 0.0
0.0 0.0 0.0
0.0 0.0 0.0
0.0 0.0 0.0
0.0 0.0 0.0
0.0 0.0 0.0
0.0 0.0 0.0
0.0 0.0 0.0
0.0 0.0 0.0
0.0 0.0 0.0
0.0 0.0 0.0
0.0 0.0 0.0
0.0 0.0 0.0
0.0 0.0 0.0
0.0 0.0 0.0
0.0 0.0 0.0
0.0 0.0 0.0
0.0 0.0 0.0
0.0 0.0 0.0
0.0 0.0 0.0
0.0 0.0 0.0
0.0 0.0 0.0
0.0 0.0 0.0
0.0 0.0 0.0
0.0 0.0 0.0
0.0 0.0 0.0
0.0 0.0 0.0
0.0 0.0 0.0
0.0 0.0 0.0
0.0 0.0 0.0
0.0 0.0 0.0
0.0 0.0 0.0
0.0 0.0 0.0
0.0 0.0 0.0
0.0 0.0 0.0
0.0 0.0 0.0
0.0 0.0 0.0
0.0 0.0 0.0
0.0 0.0 0.0
0.0 0.0 0.0
0.0 0.0 0.0
0.0 0.0 0.0
0.0 0.0 0.0
0.0 0.0 0.0
0.0 0.0 0.0
0.0 0.0 0.0
0.0 0.0 0.0
0.0 0.0 0.0
0.0 0.0 0.0
0.0 0.0 0.0
0.0 0.0 0.0
0.0 0.0 0.0
0.0 0.0 0.0
0.0 0.0 0.0
0.0 0.0 0.0
0.0 0.0 0.0
0.0 0.0 0.0
0.0 0.0 0.0
0.0 0.0 0.0
0.0 0.0 0.0
0.0 0.0 0.0
0.0 0.0 0.0
0.0 0.0 0.0
0.0 0.0 0.0
0.0 0.0 0.0
0.0 0.0 0.0
0.0 0.0 0.0
0.0 0.0 0.0
0.0 0.0 0.0
0.0 0.0 0.0
0.0 0.0 0.0
0.0 0.0 0.0
0.0 0.0 0.0
0.0 0.0 0.0
0.0 0.0 0.0
0.0 0.0 0.0
0.0 0.0 0.0
0.0 0.0 0.0
0.0 0.0 0.0
0.0 0.0 0.0
0.0 0.0 0.0
0.0 0.0 0.0
0.0 0.0 0.0
0.0 0.0 0.0
0.0 0.0 0.0
0.0 0.0 0.0
0.0 0.0 0.0
0.0 0.0 0.0
0.0 0.0 0.0
0.0 0.0 0.0
0.0 0.0 0.0
0.0 0.0 0.0
0.0 0.0 0.0
0.0 0.0 0.0
0.0 0.0 0.0
0.0 0.0 0.0
0.0 0.0 0.0
0.0 0.0 0.0
0.0 0.0 0.0
0.0 0.0 0.0
0.0 0.0 0.0
0.0 0.0 0.0
0.0 0.0 0.0
0.0 0.0 0.0
0.0 0.0 0.0
0.0 0.0 0.0
0.0 0.0 0.0
0.0 0.0 0.0
0.0 0.0 0.0
0.0 0.0 0.0
0.0 0.0 0.0
0.0 0.0 0.0
0.0 0.0 0.0
0.0 0.0 0.0
0.0 0.0 0.0
0.0 0.0 0.0
0.0 0.0 0.0
0.0 0.0 0.0
0.0 0.0 0.0
0.0 0.0 0.0
0.0 0.0 0.0
0.0 0.0 0.0
0.0 0.0 0.0
0.0 0.0 0.0
0.0 0.0 0.0
0.0 0.0 0.0
0.0 0.0 0.0
0.0 0.0 0.0
0.0 0.0 0.0
0.0 0.0 0.0
0.0 0.0 0.0
0.0 0.0 0.0
0.0 0.0 0.0
0.0 0.0 0.0
0.0 0.0 0.0
0.0 0.0 0.0
0.0 0.0 0.0
0.0 0.0 0.0
0.0 0.0 0.0
0.0 0.0 0.0
0.0 0.0 0.0
0.0 0.0 0.0
0.0 0.0 0.0
0.0 0.0 0.0
0.0 0.0 0.0
0.0 0.0 0.0
0.0 0.0 0.0
0.0 0.0 0.0
0.0 0.0 0.0
0.0 0.0 0.0
0.0 0.0 0.0
0.0 0.0 0.0
0.0 0.0 0.0
0.0 0.0 0.0
0.0 0.0 0.0
0.0 0.0 0.0
0.0 0.0 0.0
0.0 0.0 0.0
0.0 0.0 0.0
0.0 0.0 0.0
0.0 0.0 0.0
0.0 0.0 0.0
0.0 0.0 0.0
0.0 0.0 0.0
0.0 0.0 0.0
0.0 0.0 0.0
0.0 0.0 0.0
0.0 0.0 0.0
0.0 0.0 0.0
0.0 0.0 0.0
0.0 0.0 0.0
0.0 0.0 0.0
0.0 0.0 0.0
0.0 0.0 0.0
0.0 0.0 0.0
0.0 0.0 0.0
0.0 0.0 0.0
0.0 0.0 0.0
0.0 0.0 0.0
0.0 0.0 0.0
0.0 0.0 0.0
0.0 0.0 0.0
0.0 0.0 0.0
0.0 0.0 0.0
0.0 0.0 0.0
0.0 0.0 0.0
0.0 0.0 0.0
0.0 0.0 0.0
0.0 0.0 0.0
0.0 0.0 0.0
0.0 0.0 0.0
0.0 0.0 0.0
0.0 0.0 0.0
0.0 0.0 0.0
0.0 0.0 0.0
0.0 0.0 0.0
0.0 0.0 0.0
0.0 0.0 0.0
0.0 0.0 0.0
VECTORS f float
0.0 0.0 -0.00160516
0.0 0.0 -0.000346714
0.0 0.0 -0.000346714
0.0 0.0 -0.000346714
0.0 0.0 -0.000346714
0.0 0.0 -0.00160516
0.0 0.0 -0.000346714
0.0 0.0 -0.00160516
0.0 0.0 -0.00160516
0.0 0.0 -0.00160516
0.0 0.0 -0.000346714
0.0 0.0 -0.000346714
0.0 0.0 -0.000346714
0.0 0.0 -0.000346714
0.0 0.0 -0.000346714
0.0 0.0 -0.00160516
0.0 0.0 -0.00160516
0.0 0.0 -0.000346714
0.0 0.0 -0.000346714
0.0 0.0 -0.00160516
0.0 0.0 -0.000346714
0.0 0.0 -0.00160516
0.0 0.0 -0.000346714
0.0 0.0 -0.000346714
0.0 0.0 -0.00160516
0.0 0.0 -0.00160516
0.0 0.0 -0.000346714
0.0 0.0 -0.00160516
0.0 0.0 -0.000346714
0.0 0.0 -0.000346714
0.0 0.0 -0.00160516
0.0 0.0 -0.000346714
0.0 0.0 -0.000346714
0.0 0.0 -0.000346714
0.0 0.0 -0.000346714
0.0 0.0 -0.000346714
0.0 0.0 -0.000346714
0.0 0.0 -0.00160516
0.0 0.0 -0.000346714
0.0 0.0 -0.00160516
0.0 0.0 -0.000346714
0.0 0.0 -0.000346714
0.0 0.0 -0.000346714
0.0 0.0 -0.000346714
0.0 0.0 -0.00160516
0.0 0.0 -0.00160516
0.0 0.0 -0.00160516
0.0 0.0 -0.000346714
0.0 0.0 -0.000346714
0.0 0.0 -0.000346714
0.0 0.0 -0.000346714
0.0 0.0 -0.000346714
0.0 0.0 -0.000346714
0.0 0.0 -0.000346714
0.0 0.0 -0.000346714
0.0 0.0 -0.00160516
0.0 0.0 -0.000346714
0.0 0.0 -0.000346714
0.0 0.0 -0.000346714
0.0 0.0 -0.000346714
0.0 0.0 -0.000346714
0.0 0.0 -0.00160516
0.0 0.0 -0.000346714
0.0 0.0 -0.000346714
0.0 0.0 -0.00160516
0.0 0.0 -0.000346714
0.0 0.0 -0.000346714
0.0 0.0 -0.000346714
0.0 0.0 -0.00160516
0.0 0.0 -0.000346714
0.0 0.0 -0.00160516
0.0 0.0 -0.00160516
0.0 0.0 -0.000346714
0.0 0.0 -0.000346714
0.0 0.0 -0.000346714
0.0 0.0 -0.00160516
0.0 0.0 -0.00160516
0.0 0.0 -0.000346714
0.0 0.0 -0.000346714
0.0 0.0 -0.000346714
0.0 0.0 -0.000346714
0.0 0.0 -0.000346714
0.0 0.0 -0.00160516
0.0 0.0 -0.00160516
0.0 0.0 -0.00160516
0.0 0.0 -0.00160516
0.0 0.0 -0.000346714
0.0 0.0 -0.000346714
0.0 0.0 -0.00160516
0.0 0.0 -0.00160516
0.0 0.0 -0.000346714
0.0 0.0 -0.000346714
0.0 0.0 -0.000346714
0.0 0.0 -0.000346714
0.0 0.0 -0.00160516
0.0 0.0 -0.000346714
0.0 0.0 -0.000346714
0.0 0.0 -0.00160516
0.0 0.0 -0.000346714
0.0 0.0 -0.00160516
0.0 0.0 -0.000346714
0.0 0.0 -0.000346714
0.0 0.0 -0.00160516
-2.11495e-05 -0.00118317 -0.000504241
2.11495e-05 0.00118317 -0.00144763
-7.72398e-05 -1.15512e-05 -6.4112e-05
0.0 0.0 -0.000346714
0.0 0.0 -0.000346714
0.0 0.0 -0.000346714
0.0 0.0 -0.000346714
0.0 0.0 -0.00160516
0.0 0.0 -0.000346714
0.0 0.0 -0.000346714
0.0 0.0 -0.00160516
-8.99975e-05 -1.37071e-05 -3.85123e-05
0.0 0.0 -0.000346714
0.0 0.0 -0.000346714
-8.57101e-05 -3.99664e-05 -4.1968e-05
0.0 0.0 -0.000346714
0.01038 -0.00711336 -0.0255844
0.0 0.0 -0.000346714
-8.87502e-05 7.32062e-06 -3.73266e-05
0.0 0.0 -0.00160516
-0.000396553 -0.000184994 -0.00019496
0.0 0.0 -0.00160516
0.0 0.0 -0.000346714
8.97007e-05 3.35166e-05 -1.64622e-05
-0.000405157 0.000105624 -0.000181715
2.16541e-05 3.39894e-05 6.48059e-06
0.0 0.0 -0.000346714
-0.000435952 3.56017e-05 -0.000132149
2.24877e-05 2.50162e-05 8.63269e-06
-8.86255e-05 7.16348e-06 -3.76268e-05
-8.82821e-05 -1.32774e-05 -3.81838e-05
-8.71019e-05 -4.02708e-05 -4.26035e-05
0.0 0.0 -0.000346714
0.0 0.0 -0.00160516
-4.6309e-06 -1.54752e-05 -0.00147637
-8.28335e-05 3.72947e-05 -4.93252e-05
-0.000428467 0.000112025 -0.000128015
0.000102259 0.000237183 -6.39203e-05
-8.74971e-05 2.26261e-05 -3.95838e-05
0.0 0.0 -0.000346714
5.27122e-06 -5.99926e-05 -1.4235e-05
-8.83337e-05 7.1505e-06 -3.80084e-05
-0.000456551 -0.000212387 -6.76481e-05
0.0 0.0 -0.000346714
0.0 0.0 -0.00160516
0.0 0.0 -0.00160516
0.0 0.0 -0.00160516
-0.00039738 -5.52899e-05 -0.000157914
0.0 0.0 -0.000346714
0.0 0.0 -0.000346714
0.0 0.0 -0.00160516
0.0 0.0 -0.000346714
-0.000364184 0.000161932 -0.000286544
-4.11165e-05 1.83959e-05 -0.000140383
0.0 0.0 -0.000346714
0.0 0.0 -0.000346714
-0.000222878 5.8292e-05 -0.000595522
-3.31865e-05 0.0001284 -4.56063e-05
-0.000391272 3.6028e-05 -0.000216114
-0.000240124 1.71732e-05 -0.000520188
-0.000301916 2.37799e-05 -0.000386977
-2.91212e-05 -2.89889e-06 -0.000232542
0.0 0.0 -0.000346714
0.0 0.0 -0.000346714
0.0 0.0 -0.000346714
-0.000811241 0.000590021 0.00110557
0.0 0.0 -0.00160516
0.000130996 -0.000280435 0.00119621
-4.0628e-05 2.0526e-06 -0.000203974
-9.53677e-05 -1.14181e-05 -1.5915e-05
-1.45875e-06 -2.91628e-05 0.000155516
0.0 0.0 -0.00160516
-8.33294e-05 -5.8607e-05 -3.77993e-05
0.0 0.0 -0.000346714
-0.000191352 5.67698e-05 -0.000575028
-0.000298413 2.71116e-06 0.00041715
0.00015396 -5.32607e-05 0.000683081
-8.81225e-05 -9.26978e-06 -3.72365e-05
-8.49777e-05 -8.93563e-06 -4.50843e-05
2.34766e-05 -6.5427e-05 -6.23896e-08
-7.21153e-05 -2.52006e-05 -8.46799e-05
0.0 0.0 -0.00160516
-0.000482119 -0.000181743 0.00109756
-0.000438838 -0.000328789 0.000997944
-0.000129251 -0.000138592 4.33196e-05
-0.00437534 0.00173361 0.00921268
-9.1652e-05 1.07262e-05 -2.85321e-05
-7.6811e-05 9.02428e-06 -6.111e-05
-8.42337e-05 9.85268e-06 -4.60433e-05
-9.43505e-05 9.8161e-06 -2.695e-05
-0.000569801 -8.6162e-05 0.000362044
-0.000102416 -9.25498e-06 -5.98757e-05
0.0 0.0 -0.000346714
-9.84167e-05 -3.31761e-05 -3.19985e-05
0.0 0.0 -0.000346714
8.69991e-06 -1.7826e-06 -0.000265361
-8.8517e-05 -7.69325e-06 -3.46002e-05
-8.68271e-05 -6.81253e-06 -3.95929e-05
0.0 0.0 -0.000346714
3.64199e-05 1.5071e-05 -0.000434749
0.0 0.0 -0.00160516
-0.000357486 -0.000244912 -0.000184575
-0.000376847 -0.000244339 -0.000217545
-5.89784e-05 2.48852e-05 -0.000154884
0.0 0.0 -0.000346714
0.0 0.0 -0.000346714
-0.0033288 0.00141312 0.0059597
-0.000130714 1.23534e-05 2.49623e-05
0.00114516 -0.00026283 -0.000600378
-0.00194507 0.000589985 -0.00167568
0.0 0.0 -0.000346714
0.0 0.0 -0.000346714
-8.06086e-05 4.01703e-05 -4.82762e-05
-0.000165653 8.52876e-05 0.000140166
0.0 0.0 -0.000346714
-0.000280394 -1.51398e-05 -0.000501828
-9.95519e-05 -4.07858e-06 7.74272e-06
0.000969748 -0.000414343 -8.31888e-05
-3.70539e-05 -1.23658e-05 -0.000131385
0.0 0.0 -0.000346714
0.0 0.0 -0.000346714
-8.17886e-05 4.37689e-05 -4.63309e-05
-8.87854e-05 2.16343e-05 -4.01492e-05
-0.000109309 2.47044e-05 2.37043e-05
0.0 0.0 -0.00160516
-5.5228e-05 8.72605e-06 -0.000124583
-0.000114669 -3.58881e-05 0.000406825
-0.000399353 -0.000112334 -0.000180204
0.0 0.0 -0.00160516
-0.000109419 6.36854e-05 3.02696e-05
-0.000117256 6.25503e-05 7.03716e-06
-0.00163 0.000943725 0.00211154
0.000120966 8.32643e-05 0.000703914
0.0 0.0 -0.000346714
0.000145895 -0.000858243 -0.00263652
0.0 0.0 -0.000346714
-0.000200885 -4.55435e-05 -0.00096077
-0.000384188 -0.000206127 -0.00024449
-7.55806e-05 6.93934e-05 -5.66811e-05
1.74362e-05 1.55298e-05 3.43506e-06
0.0 0.0 -0.000346714
-0.000314967 7.6725e-05 -6.46314e-05
-8.9291e-05 2.48871e-05 -3.69038e-05
-0.00038166 0.000116201 0.000626684
0.0 0.0 -0.000346714
-0.000167266 5.57462e-05 0.000223163
0.0 0.0 -0.000346714
-0.000348095 1.68938e-06 -0.000349696
4.6936e-06 -1.15699e-07 -0.00160913
-7.07344e-05 -2.20329e-05 7.01864e-05
-6.6882e-05 -1.26615e-05 -6.86505e-05
-0.000145895 0.000858243 0.000684653
-3.89835e-05 -1.98595e-05 -3.69803e-05
-8.65387e-05 -2.14069e-05 -3.83748e-05
-8.51913e-05 4.69539e-05 -4.61568e-05
0.0 0.0 -0.00160516
0.0 0.0 -0.000346714
0.0 0.0 -0.00160516
-8.61594e-05 2.48113e-05 -3.90406e-05
0.0 0.0 -0.000346714
2.62235e-05 2.31361e-05 1.92275e-05
0.0 0.0 -0.000346714
-8.96604e-05 3.15538e-06 -3.84972e-05
-0.000413806 1.45349e-05 -0.000184385
-0.000379838 1.01952e-05 -0.0002077
4.6393e-05 -0.000258806 0.00107141
0.0 0.0 -0.000346714
-0.000320991 -6.4675e-06 7.52464e-05
3.93976e-06 -8.7886e-07 -0.000282598
0.0 0.0 -0.000346714
0.0 0.0 -0.00160516
0.0 0.0 -0.000346714
0.0 0.0 -0.000346714
-9.03495e-05 -1.95106e-05 -3.0908e-05
-8.7385e-05 -1.88254e-05 -3.81577e-05
-0.000271444 -0.000142044 -0.000816934
0.0 0.0 -0.000346714
-0.000476735 0.000437132 0.00100628
-9.76664e-05 0.000121712 -1.11666e-05
-8.48315e-05 2.51366e-05 -3.7211e-05
-0.000410774 0.000118569 -0.000149897
0.0 0.0 -0.000346714
0.0 0.0 -0.000346714
0.0 0.0 -0.000346714
0.0 0.0 -0.000346714
-0.000430933 -0.000352553 -0.000104535
0.0 0.0 -0.000346714
0.0 0.0 -0.000346714
0.0 0.0 -0.000346714
0.0 0.0 -0.000346714
0.0 0.0 -0.000346714
-0.000175235 3.46621e-05 -0.000676889
-7.93263e-05 -0.000123944 -2.58232e-05
-8.61226e-05 2.62099e-06 -3.55471e-05
0.0 0.0 -0.00160516
1.97332e-05 1.45909e-07 8.47975e-06
2.6008e-05 2.06255e-05 -0.000362085
-0.000180496 -1.8315e-05 0.000269921
-8.01376e-05 -6.30481e-05 -5.35878e-05
0.0 0.0 -0.000346714
-8.34917e-05 3.4553e-05 -3.89752e-05
0.0 0.0 -0.00160516
-8.80818e-05 2.66883e-05 -4.10077e-05
-8.81715e-05 2.6617e-05 -4.1526e-05
-0.000669153 9.71821e-06 0.00057897
-8.71361e-05 1.6018e-05 -3.75548e-05
0.00222785 -1.32867e-05 -0.00685752
7.86858e-05 0.000129655 1.86923e-06
-0.000598408 -0.000114386 0.000166627
-8.58497e-05 -3.94285e-05 -4.39742e-05
0.00025925 0.000615931 0.000817945
0.0 0.0 -0.00160516
-8.66145e-05 -2.52024e-06 -3.68489e-05
-8.71137e-05 -2.53948e-06 -3.58631e-05
0.0 0.0 -0.000346714
0.0 0.0 -0.000346714
0.000144046 2.46998e-05 -0.000472528
-0.000119876 -6.46662e-05 -0.000922329
-7.07685e-05 -7.99811e-05 -7.21671e-05
-8.59852e-05 3.56929e-05 -4.50825e-05
0.0 0.0 -0.000346714
-0.000111387 1.34467e-05 2.36836e-06
-8.75638e-05 1.04687e-05 -3.66875e-05
-0.000101977 1.22658e-05 -3.84815e-06
-1.28423e-05 2.4231e-06 -0.00118246
9.55538e-07 7.6983e-05 -5.50365e-05
2.62446e-05 -2.26648e-05 9.92198e-06
-0.00130292 -5.64927e-05 0.00230366
-9.02248e-05 -5.09493e-06 -3.93386e-05
0.0 0.0 -0.00160516
0.000181345 -0.000151442 0.00151694
0.0 0.0 -0.000346714
0.0 0.0 -0.00160516
0.000205654 8.07692e-05 0.000898295
-5.13168e-05 5.83707e-06 -0.000303358
-8.91377e-05 1.545e-05 -3.92934e-05
0.0 0.0 -0.00160516
0.0 0.0 -0.000346714
0.0 0.0 -0.000346714
0.0 0.0 -0.000346714
-8.69377e-05 -8.06223e-06 -3.60367e-05
0.0 0.0 -0.00160516
0.0 0.0 -0.000346714
-0.000470143 0.000194312 1.51407e-05
-8.65122e-05 2.94569e-05 -4.03067e-05
-0.00040735 0.000140853 -0.000190383
0.0 0.0 -0.00160516
0.0 0.0 -0.000346714
0.0 0.0 -0.000346714
-8.7739e-05 4.97167e-06 -3.64885e-05
-0.000388938 2.20489e-05 -0.000206739
0.0 0.0 -0.00160516
-2.35436e-05 0.00026827 -0.000323231
-4.30969e-07 2.44105e-06 -0.000336849
0.0 0.0 -0.00160516
0.000695481 0.000545591 -0.00253464
-0.000170822 -9.67192e-05 0.000133231
0.0 0.0 -0.000346714
-8.38473e-05 4.46895e-05 -4.41323e-05
0.0 0.0 -0.000346714
0.0 0.0 -0.000346714
0.0 0.0 -0.000346714
-9.11265e-05 3.12956e-07 -2.42544e-05
0.0 0.0 -0.000346714
-0.000414862 4.2384e-06 -0.000177721
0.0 0.0 -0.00160516
-8.84207e-05 -1.49744e-05 -3.84586e-05
0.0 0.0 -0.000346714
-0.000389427 0.000202523 -0.000205219
0.0 0.0 -0.000346714
4.90967e-05 5.26549e-05 -0.00175108
0.0 0.0 -0.000346714
-3.7166e-05 7.64182e-06 -0.000138449
0.0 0.0 -0.00160516
0.0 0.0 -0.000346714
-0.00030419 -1.10874e-06 -0.000443577
0.0 0.0 -0.00160516
-0.00035016 2.91228e-08 -0.000316745
0.0 0.0 -0.000346714
0.000319521 -0.000249436 0.00186736
0.0 0.0 -0.000346714
-8.62932e-05 -3.14709e-05 -4.08026e-05
0.0 0.0 -0.000346714
0.0 0.0 -0.000346714
-8.72685e-05 2.80767e-05 -4.04923e-05
-4.15555e-05 -8.4202e-05 -2.48988e-05