# vtk DataFile Version 2.0
Generated by lpp.py
ASCII
DATASET POLYDATA
POINTS 736 float
-0.0132403 0.0125661 0.0552705
-0.025904 -0.0191398 0.053547
-0.00719477 0.0150586 0.0499855
-0.012399 -0.0173474 0.0510698
-0.0218923 -0.0174068 0.0494721
-0.488781 -0.00248707 -0.398418
-0.488334 0.00492324 -0.3985
-0.490683 0.0122034 -0.395885
-0.486245 -0.00186963 -0.391651
-0.488203 0.0110086 -0.391123
-0.491647 0.026104 -0.391172
-0.46853 0.00110511 -0.385973
-0.492206 0.0347086 -0.389067
-0.48036 -0.000716583 -0.382827
-0.477941 -0.00834678 -0.379016
-0.477404 0.0239312 -0.380022
-0.485886 0.037793 -0.381546
-0.483064 -0.0227191 -0.378579
-0.474848 -0.00626997 -0.376169
-0.482385 -0.038356 -0.375031
-0.474391 -0.0208951 -0.370589
-0.442186 -0.00545201 -0.356388
-0.464867 0.0189918 -0.355289
-0.456164 0.0218458 -0.352986
-0.439694 -0.0148315 -0.345851
-0.450385 0.0112141 -0.347334
-0.456433 0.0202454 -0.348954
-0.451421 -0.00361918 -0.345178
-0.448862 0.00611382 -0.345371
-0.443842 0.00188795 -0.339576
-0.4406 0.00961261 -0.339595
-0.445148 0.01079 -0.339638
-0.454253 0.0217707 -0.34096
-0.441233 -0.00125829 -0.335361
-0.444334 0.0173821 -0.337092
-0.467391 -0.0392022 -0.33422
-0.434696 -0.00473206 -0.330724
-0.43414 0.00646383 -0.328488
-0.428893 0.00645426 -0.329071
-0.439419 0.0220572 -0.327486
-0.432807 -0.00385566 -0.319836
-0.425209 -0.00112098 -0.317615
-0.421813 -0.00364553 -0.313935
-0.40291 -0.0016995 -0.309657
-0.432797 0.0372989 -0.31316
-0.456641 -0.0176519 -0.307893
-0.418657 -0.00364251 -0.308163
-0.400428 0.00874165 -0.299314
-0.402378 -0.0178178 -0.295577
-0.394044 -0.0152124 -0.295817
-0.402091 -0.00124774 -0.296022
-0.397408 0.0109579 -0.294576
-0.393678 0.00430241 -0.293217
-0.395199 -0.0237782 -0.289152
-0.396126 0.00886125 -0.290073
-0.398648 0.0308901 -0.288696
-0.395716 -0.0187034 -0.283616
-0.390443 -0.0192599 -0.285367
-0.392652 0.0142295 -0.286297
-0.383354 0.00187609 -0.281232
-0.392237 0.0403168 -0.281379
-0.391333 -0.014796 -0.279945
-0.377858 0.00316927 -0.276043
-0.37464 0.00706608 -0.279281
-0.380791 -0.0180248 -0.274668
-0.375554 0.0133613 -0.273367
-0.375717 0.00166209 -0.271636
-0.368452 0.00334456 -0.269834
-0.375061 0.00571739 -0.270269
-0.358331 0.00965237 -0.270058
-0.372287 0.0101973 -0.270651
-0.389812 0.0361393 -0.270999
-0.371415 -0.0208975 -0.268608
-0.368067 0.00527864 -0.265093
-0.37063 0.0237714 -0.267286
-0.37287 0.0293854 -0.267093
-0.377475 -0.0389593 -0.263304
-0.363437 -0.0190037 -0.262932
-0.357058 -0.0165769 -0.262592
-0.358538 -0.00378812 -0.261457
-0.362194 0.0127369 -0.264368
-0.35969 0.0102066 -0.261851
-0.361302 0.0162899 -0.263833
-0.358841 -0.0223744 -0.259328
-0.362284 -0.0200935 -0.260292
-0.356057 -0.00406849 -0.259038
-0.354584 0.00213843 -0.259809
-0.358525 0.0175772 -0.259333
-0.356286 -0.0272756 -0.255174
-0.351311 -0.0108039 -0.254233
-0.35263 -0.00622229 -0.255949
-0.350889 -0.000225828 -0.25576
-0.35266 0.0241018 -0.255288
-0.354668 -0.0392294 -0.252088
-0.353499 -0.030066 -0.25143
-0.350698 -0.0156916 -0.252915
-0.340315 -0.0102535 -0.249786
-0.341541 -0.00503439 -0.250575
-0.346194 -0.00393773 -0.252469
-0.340424 0.0121758 -0.250055
-0.335761 -0.0142235 -0.245622
-0.335744 -0.00886723 -0.247579
-0.336271 0.00429241 -0.248666
-0.337978 0.00836272 -0.248042
-0.332227 -0.0219192 -0.243734
-0.326484 -0.00831079 -0.243276
-0.332976 -0.00594744 -0.245339
-0.322894 -0.00303161 -0.242096
-0.333445 0.00378056 -0.245656
-0.325822 0.00502144 -0.242081
-0.333335 0.00919501 -0.244493
-0.325606 0.00899396 -0.242955
-0.325999 -0.0196183 -0.241453
-0.322232 0.0177841 -0.240257
-0.324523 0.0238025 -0.238945
-0.328749 0.0278565 -0.240734
-0.321778 -0.0223588 -0.238111
-0.309577 -0.00522225 -0.23541
-0.313298 0.00378753 -0.236929
-0.30713 0.00126172 -0.235574
-0.306359 0.00417483 -0.235066
-0.312751 0.0110581 -0.237223
-0.309631 0.00904184 -0.234986
-0.310548 0.0128526 -0.236188
-0.313639 0.0174228 -0.236734
-0.337264 -0.0473865 -0.235696
-0.321444 -0.035366 -0.235008
-0.305392 -0.00190564 -0.233763
-0.299597 -0.00248094 -0.231295
-0.304174 0.00217308 -0.234271
-0.305198 0.0107166 -0.234163
-0.308893 0.0138764 -0.232648
-0.304345 0.0160526 -0.233123
-0.309913 0.0189608 -0.233782
-0.311552 0.0234136 -0.234698
-0.302324 -0.0248018 -0.230477
-0.287071 -0.00713763 -0.226935
-0.289989 -0.00146977 -0.228359
-0.293359 0.0139173 -0.228957
-0.307758 0.0255457 -0.230185
-0.314542 0.0396466 -0.230773
-0.293911 -0.0241878 -0.226187
-0.291768 -0.0199538 -0.227274
-0.285878 -0.01941 -0.223821
-0.287082 -0.0146677 -0.225092
-0.279291 -0.0107093 -0.223334
-0.28437 -0.00781262 -0.225772
-0.28719 -0.00321288 -0.225832
-0.280928 -0.000317836 -0.224574
-0.280236 0.00347946 -0.224084
-0.289969 0.0168303 -0.225884
-0.29641 0.0278526 -0.227452
-0.295384 -0.0416692 -0.22201
-0.281454 -0.0207462 -0.221472
-0.278497 -0.0168745 -0.222313
-0.275826 -0.0104906 -0.220813
-0.273791 -0.00674767 -0.221349
-0.274414 -0.00383865 -0.221719
-0.275488 -0.000937212 -0.22225
-0.278129 0.000113137 -0.223407
-0.27907 0.0132855 -0.22192
-0.278856 0.0194901 -0.2218
-0.308579 -0.0512737 -0.220944
-0.285484 -0.0412486 -0.218237
-0.281519 -0.0258061 -0.220064
-0.275125 -0.0167701 -0.219824
-0.267653 -0.00813329 -0.217606
-0.271344 -0.00427966 -0.219211
-0.266336 -0.00317625 -0.217241
-0.269364 0.00589325 -0.218314
-0.265079 0.00987149 -0.217407
-0.268814 0.0113323 -0.218897
-0.28188 0.0340771 -0.219541
-0.260446 -0.0179324 -0.214338
-0.263138 -0.0171709 -0.215809
-0.26197 -0.0122794 -0.214807
-0.261545 -0.00454606 -0.21626
-0.260882 -0.000555692 -0.215048
-0.264548 0.0135913 -0.215721
-0.255846 0.0130662 -0.213233
-0.260763 0.0176276 -0.21458
-0.258917 0.019982 -0.212861
-0.269325 0.0246364 -0.217065
-0.263012 -0.0212689 -0.213821
-0.256485 -0.0220697 -0.212084
-0.253959 -0.016054 -0.210946
-0.256171 -0.00566608 -0.212853
-0.249266 -0.00542115 -0.209946
-0.256337 0.000151765 -0.213084
-0.248713 0.000274129 -0.210926
-0.251945 0.00502522 -0.212103
-0.245501 0.0051019 -0.209378
-0.250319 0.0127976 -0.210945
-0.255391 0.0297686 -0.209893
-0.252043 -0.0303693 -0.20834
-0.25449 -0.0261415 -0.209303
-0.247116 -0.00987159 -0.208653
-0.246393 0.0132196 -0.209222
-0.244429 0.0103056 -0.208456
-0.247848 0.0287128 -0.207052
-0.256855 0.0395587 -0.207527
-0.234862 -0.00848684 -0.204661
-0.231097 -0.00707355 -0.203208
-0.236498 -0.00597381 -0.205546
-0.230085 -0.0042487 -0.203012
-0.234791 -0.00243069 -0.205102
-0.239996 0.000735815 -0.206128
-0.234809 0.00469508 -0.204892
-0.253153 0.014562 -0.205199
-0.239391 0.0165233 -0.205816
-0.232803 0.0136091 -0.203276
-0.243724 0.0207032 -0.20512
-0.232813 0.0200367 -0.202556
-0.249724 0.0363528 -0.205802
-0.280513 -0.0638559 -0.203231
-0.224612 -0.0167417 -0.198553
-0.231372 -0.0111288 -0.201925
-0.22455 -0.00590731 -0.200581
-0.231051 -0.000423157 -0.20237
-0.223971 -0.00275228 -0.200483
-0.226793 0.00406743 -0.201521
-0.222967 0.0056467 -0.199875
-0.228787 0.0118406 -0.201952
-0.229296 0.0149175 -0.201768
-0.232872 0.0265888 -0.200273
-0.223525 -0.0232978 -0.198112
-0.220784 -0.022885 -0.196979
-0.219394 -0.0133964 -0.197734
-0.219519 0.00782383 -0.197316
-0.22523 0.0176494 -0.198076
-0.236203 0.0366306 -0.199123
-0.240205 0.0458615 -0.196311
-0.220241 -0.0292911 -0.194718
-0.21778 -0.0256863 -0.195189
-0.212793 -0.018205 -0.194472
-0.208861 -0.0125358 -0.193377
-0.212801 -0.00298526 -0.194524
-0.210854 0.000606163 -0.19479
-0.210852 0.00448237 -0.193483
-0.214564 0.00739167 -0.195265
-0.214171 0.0157721 -0.195296
-0.243119 0.0190322 -0.191066
-0.210424 0.0193624 -0.193329
-0.210481 0.0243833 -0.192504
-0.205375 -0.0276425 -0.189399
-0.200646 -0.0241755 -0.188501
-0.20367 -0.0151434 -0.190934
-0.2019 -0.0108656 -0.19065
-0.198461 -0.00822145 -0.189505
-0.212472 -0.00719541 -0.190301
-0.197227 0.00718069 -0.189064
-0.203669 0.0164346 -0.190807
-0.203254 0.0201393 -0.189168
-0.197543 -0.0333003 -0.185109
-0.200432 -0.0296921 -0.187126
-0.196093 -0.0261184 -0.185093
-0.198045 -0.0126505 -0.187739
-0.188121 -0.007158 -0.184177
-0.19413 0.00996616 -0.187476
-0.189 0.00863336 -0.185407
-0.192928 0.0164543 -0.186344
-0.197995 0.0224084 -0.186579
-0.192942 -0.0321394 -0.18351
-0.190539 -0.0251467 -0.184129
-0.184055 -0.0228787 -0.181803
-0.190048 -0.0204561 -0.183482
-0.184891 -0.0185943 -0.181575
-0.186008 -0.015225 -0.183522
-0.183265 -0.0137267 -0.182568
-0.184131 -0.0099905 -0.18337
-0.18233 -0.0076775 -0.182693
-0.180058 -0.00454015 -0.181779
-0.1868 -0.00192687 -0.183611
-0.182453 -0.000326242 -0.181735
-0.186367 0.00398321 -0.183514
-0.184429 0.00798991 -0.18353
-0.178944 0.00783337 -0.181222
-0.190503 0.0123092 -0.183912
-0.181228 0.0119076 -0.181843
-0.187572 0.016126 -0.18411
-0.192339 0.0200791 -0.184646
-0.199347 -0.0471854 -0.181456
-0.178176 -0.0293038 -0.178025
-0.190599 -0.0245069 -0.179451
-0.17894 -0.0200949 -0.180025
-0.175858 -0.00875175 -0.179958
-0.178562 -0.00717164 -0.18071
-0.175194 -0.00386295 -0.178611
-0.177525 -0.00142487 -0.18078
-0.170205 -0.00346595 -0.177705
-0.179288 0.00345544 -0.180523
-0.175875 0.00297557 -0.178136
-0.175965 0.00577329 -0.180132
-0.178825 0.0107714 -0.180456
-0.172676 0.00998217 -0.178376
-0.186844 0.0117015 -0.1794
-0.174344 0.013358 -0.178549
-0.175383 0.0163856 -0.178981
-0.18626 0.0322956 -0.179634
-0.192044 -0.053315 -0.176026
-0.17827 -0.0399885 -0.174488
-0.165983 -0.0168327 -0.175108
-0.169908 -0.0124337 -0.176068
-0.165229 0.000428097 -0.17564
-0.166792 0.0076011 -0.176074
-0.177584 0.0335929 -0.175432
-0.188174 -0.0546601 -0.173823
-0.185769 -0.0557555 -0.172332
-0.163375 -0.0185331 -0.173775
-0.159557 -0.0187757 -0.171024
-0.157956 -0.0123924 -0.171077
-0.158856 -0.00884603 -0.172792
-0.188861 -0.00715414 -0.174152
-0.159218 -0.0054539 -0.173124
-0.163693 -0.00270913 -0.174719
-0.158905 0.0150422 -0.172234
-0.163722 0.0241589 -0.172937
-0.292971 0.0841564 -0.174223
-0.169349 -0.0507972 -0.166832
-0.170243 -0.0438105 -0.170822
-0.156141 -0.0298164 -0.16863
-0.156532 -0.0222903 -0.170376
-0.155258 -0.0175133 -0.170455
[...]
POINT_DATA 736
VECTORS i float
0.0 0.0 0.0
0.0 0.0 0.0
0.0 0.0 0.0
0.0 0.0 0.0
0.0 0.0 0.0
0.0 0.0 0.0
0.0 0.0 0.0
0.0 0.0 0.0
0.0 0.0 0.0
0.0 0.0 0.0
0.0 0.0 0.0
0.0 0.0 0.0
0.0 0.0 0.0
0.0 0.0 0.0
0.0 0.0 0.0
0.0 0.0 0.0
0.0 0.0 0.0
0.0 0.0 0.0
0.0 0.0 0.0
0.0 0.0 0.0
0.0 0.0 0.0
0.0 0.0 0.0
0.0 0.0 0.0
0.0 0.0 0.0
0.0 0.0 0.0
0.0 0.0 0.0
0.0 0.0 0.0
0.0 0.0 0.0
0.0 0.0 0.0
0.0 0.0 0.0
0.0 0.0 0.0
0.0 0.0 0.0
0.0 0.0 0.0
0.0 0.0 0.0
0.0 0.0 0.0
0.0 0.0 0.0
0.0 0.0 0.0
0.0 0.0 0.0
0.0 0.0 0.0
0.0 0.0 0.0
0.0 0.0 0.0
0.0 0.0 0.0
0.0 0.0 0.0
0.0 0.0 0.0
0.0 0.0 0.0
0.0 0.0 0.0
0.0 0.0 0.0
0.0 0.0 0.0
0.0 0.0 0.0
0.0 0.0 0.0
0.0 0.0 0.0
0.0 0.0 0.0
0.0 0.0 0.0
0.0 0.0 0.0
0.0 0.0 0.0
0.0 0.0 0.0
0.0 0.0 0.0
0.0 0.0 0.0
0.0 0.0 0.0
0.0 0.0 0.0
0.0 0.0 0.0
0.0 0.0 0.0
0.0 0.0 0.0
0.0 0.0 0.0
0.0 0.0 0.0
0.0 0.0 0.0
0.0 0.0 0.0
0.0 0.0 0.0
0.0 0.0 0.0
0.0 0.0 0.0
0.0 0.0 0.0
0.0 0.0 0.0
0.0 0.0 0.0
0.0 0.0 0.0
0.0 0.0 0.0
0.0 0.0 0.0
0.0 0.0 0.0
0.0 0.0 0.0
0.0 0.0 0.0
0.0 0.0 0.0
0.0 0.0 0.0
0.0 0.0 0.0
0.0 0.0 0.0
0.0 0.0 0.0
0.0 0.0 0.0
0.0 0.0 0.0
0.0 0.0 0.0
0.0 0.0 0.0
0.0 0.0 0.0
0.0 0.0 0.0
0.0 0.0 0.0
0.0 0.0 0.0
0.0 0.0 0.0
0.0 0.0 0.0
0.0 0.0 0.0
0.0 0.0 0.0
0.0 0.0 0.0
0.0 0.0 0.0
0.0 0.0 0.0
0.0 0.0 0.0
0.0 0.0 0.0
0.0 0.0 0.0
0.0 0.0 0.0
0.0 0.0 0.0
0.0 0.0 0.0
0.0 0.0 0.0
0.0 0.0 0.0
0.0 0.0 0.0
0.0 0.0 0.0
0.0 0.0 0.0
0.0 0.0 0.0
0.0 0.0 0.0
0.0 0.0 0.0
0.0 0.0 0.0
0.0 0.0 0.0
0.0 0.0 0.0
0.0 0.0 0.0
0.0 0.0 0.0
0.0 0.0 0.0
0.0 0.0 0.0
0.0 0.0 0.0
0.0 0.0 0.0
0.0 0.0 0.0
0.0 0.0 0.0
0.0 0.0 0.0
0.0 0.0 0.0
0.0 0.0 0.0
0.0 0.0 0.0
0.0 0.0 0.0
0.0 0.0 0.0
0.0 0.0 0.0
0.0 0.0 0.0
0.0 0.0 0.0
0.0 0.0 0.0
0.0 0.0 0.0
0.0 0.0 0.0
0.0 0.0 0.0
0.0 0.0 0.0
0.0 0.0 0.0
0.0 0.0 0.0
0.0 0.0 0.0
0.0 0.0 0.0
0.0 0.0 0.0
0.0 0.0 0.0
0.0 0.0 0.0
0.0 0.0 0.0
0.0 0.0 0.0
0.0 0.0 0.0
0.0 0.0 0.0
0.0 0.0 0.0
0.0 0.0 0.0
0.0 0.0 0.0
0.0 0.0 0.0
0.0 0.0 0.0
0.0 0.0 0.0
0.0 0.0 0.0
0.0 0.0 0.0
0.0 0.0 0.0
0.0 0.0 0.0
0.0 0.0 0.0
0.0 0.0 0.0
0.0 0.0 0.0
0.0 0.0 0.0
0.0 0.0 0.0
0.0 0.0 0.0
0.0 0.0 0.0
0.0 0.0 0.0
0.0 0.0 0.0
0.0 0.0 0.0
0.0 0.0 0.0
0.0 0.0 0.0
0.0 0.0 0.0
0.0 0.0 0.0
0.0 0.0 0.0
0.0 0.0 0.0
0.0 0.0 0.0
0.0 0.0 0.0
0.0 0.0 0.0
0.0 0.0 0.0
0.0 0.0 0.0
0.0 0.0 0.0
0.0 0.0 0.0
0.0 0.0 0.0
0.0 0.0 0.0
0.0 0.0 0.0
0.0 0.0 0.0
0.0 0.0 0.0
0.0 0.0 0.0
0.0 0.0 0.0
0.0 0.0 0.0
0.0 0.0 0.0
0.0 0.0 0.0
0.0 0.0 0.0
0.0 0.0 0.0
0.0 0.0 0.0
0.0 0.0 0.0
0.0 0.0 0.0
0.0 0.0 0.0
0.0 0.0 0.0
0.0 0.0 0.0
0.0 0.0 0.0
0.0 0.0 0.0
0.0 0.0 0.0
0.0 0.0 0.0
0.0 0.0 0.0
0.0 0.0 0.0
0.0 0.0 0.0
0.0 0.0 0.0
0.0 0.0 0.0
0.0 0.0 0.0
0.0 0.0 0.0
0.0 0.0 0.0
0.0 0.0 0.0
0.0 0.0 0.0
0.0 0.0 0.0
0.0 0.0 0.0
0.0 0.0 0.0
0.0 0.0 0.0
0.0 0.0 0.0
0.0 0.0 0.0
0.0 0.0 0.0
0.0 0.0 0.0
0.0 0.0 0.0
0.0 0.0 0.0
0.0 0.0 0.0
0.0 0.0 0.0
0.0 0.0 0.0
0.0 0.0 0.0
0.0 0.0 0.0
0.0 0.0 0.0
0.0 0.0 0.0
0.0 0.0 0.0
0.0 0.0 0.0
0.0 0.0 0.0
0.0 0.0 0.0
0.0 0.0 0.0
0.0 0.0 0.0
0.0 0.0 0.0
0.0 0.0 0.0
0.0 0.0 0.0
0.0 0.0 0.0
0.0 0.0 0.0
0.0 0.0 0.0
0.0 0.0 0.0
0.0 0.0 0.0
0.0 0.0 0.0
0.0 0.0 0.0
0.0 0.0 0.0
0.0 0.0 0.0
0.0 0.0 0.0
0.0 0.0 0.0
0.0 0.0 0.0
0.0 0.0 0.0
0.0 0.0 0.0
0.0 0.0 0.0
0.0 0.0 0.0
0.0 0.0 0.0
0.0 0.0 0.0
0.0 0.0 0.0
0.0 0.0 0.0
0.0 0.0 0.0
0.0 0.0 0.0
0.0 0.0 0.0
0.0 0.0 0.0
0.0 0.0 0.0
0.0 0.0 0.0
0.0 0.0 0.0
0.0 0.0 0.0
0.0 0.0 0.0
0.0 0.0 0.0
0.0 0.0 0.0
0.0 0.0 0.0
0.0 0.0 0.0
0.0 0.0 0.0
0.0 0.0 0.0
0.0 0.0 0.0
0.0 0.0 0.0
0.0 0.0 0.0
0.0 0.0 0.0
0.0 0.0 0.0
0.0 0.0 0.0
0.0 0.0 0.0
0.0 0.0 0.0
0.0 0.0 0.0
0.0 0.0 0.0
0.0 0.0 0.0
0.0 0.0 0.0
0.0 0.0 0.0
0.0 0.0 0.0
0.0 0.0 0.0
0.0 0.0 0.0
0.0 0.0 0.0
0.0 0.0 0.0
0.0 0.0 0.0
0.0 0.0 0.0
0.0 0.0 0.0
0.0 0.0 0.0
0.0 0.0 0.0
0.0 0.0 0.0
0.0 0.0 0.0
0.0 0.0 0.0
0.0 0.0 0.0
0.0 0.0 0.0
0.0 0.0 0.0
0.0 0.0 0.0
0.0 0.0 0.0
0.0 0.0 0.0
0.0 0.0 0.0
0.0 0.0 0.0
0.0 0.0 0.0
0.0 0.0 0.0
0.0 0.0 0.0
0.0 0.0 0.0
0.0 0.0 0.0
0.0 0.0 0.0
0.0 0.0 0.0
0.0 0.0 0.0
0.0 0.0 0.0
0.0 0.0 0.0
0.0 0.0 0.0
0.0 0.0 0.0
0.0 0.0 0.0
0.0 0.0 0.0
0.0 0.0 0.0
0.0 0.0 0.0
0.0 0.0 0.0
0.0 0.0 0.0
0.0 0.0 0.0
0.0 0.0 0.0
0.0 0.0 0.0
0.0 0.0 0.0
0.0 0.0 0.0
0.0 0.0 0.0
0.0 0.0 0.0
0.0 0.0 0.0
0.0 0.0 0.0
0.0 0.0 0.0
0.0 0.0 0.0
0.0 0.0 0.0
0.0 0.0 0.0
0.0 0.0 0.0
0.0 0.0 0.0
0.0 0.0 0.0
0.0 0.0 0.0
0.0 0.0 0.0
0.0 0.0 0.0
0.0 0.0 0.0
0.0 0.0 0.0
0.0 0.0 0.0
0.0 0.0 0.0
0.0 0.0 0.0
0.0 0.0 0.0
0.0 0.0 0.0
0.0 0.0 0.0
0.0 0.0 0.0
0.0 0.0 0.0
0.0 0.0 0.0
0.0 0.0 0.0
0.0 0.0 0.0
0.0 0.0 0.0
0.0 0.0 0.0
0.0 0.0 0.0
0.0 0.0 0.0
0.0 0.0 0.0
0.0 0.0 0.0
0.0 0.0 0.0
0.0 0.0 0.0
0.0 0.0 0.0
0.0 0.0 0.0
0.0 0.0 0.0
0.0 0.0 0.0
0.0 0.0 0.0
0.0 0.0 0.0
0.0 0.0 0.0
0.0 0.0 0.0
0.0 0.0 0.0
0.0 0.0 0.0
0.0 0.0 0.0
0.0 0.0 0.0
0.0 0.0 0.0
0.0 0.0 0.0
0.0 0.0 0.0
0.0 0.0 0.0
0.0 0.0 0.0
0.0 0.0 0.0
0.0 0.0 0.0
0.0 0.0 0.0
0.0 0.0 0.0
0.0 0.0 0.0
0.0 0.0 0.0
0.0 0.0 0.0
0.0 0.0 0.0
0.0 0.0 0.0
0.0 0.0 0.0
0.0 0.0 0.0
0.0 0.0 0.0
0.0 0.0 0.0
0.0 0.0 0.0
0.0 0.0 0.0
0.0 0.0 0.0
0.0 0.0 0.0
0.0 0.0 0.0
0.0 0.0 0.0
0.0 0.0 0.0
0.0 0.0 0.0
0.0 0.0 0.0
0.0 0.0 0.0
0.0 0.0 0.0
0.0 0.0 0.0
0.0 0.0 0.0
0.0 0.0 0.0
0.0 0.0 0.0
0.0 0.0 0.0
0.0 0.0 0.0
0.0 0.0 0.0
0.0 0.0 0.0
0.0 0.0 0.0
0.0 0.0 0.0
0.0 0.0 0.0
0.0 0.0 0.0
0.0 0.0 0.0
0.0 0.0 0.0
0.0 0.0 0.0
0.0 0.0 0.0
0.0 0.0 0.0
0.0 0.0 0.0
0.0 0.0 0.0
0.0 0.0 0.0
0.0 0.0 0.0
0.0 0.0 0.0
0.0 0.0 0.0
0.0 0.0 0.0
0.0 0.0 0.0
0.0 0.0 0.0
0.0 0.0 0.0
0.0 0.0 0.0
0.0 0.0 0.0
0.0 0.0 0.0
0.0 0.0 0.0
0.0 0.0 0.0
0.0 0.0 0.0
0.0 0.0 0.0
0.0 0.0 0.0
0.0 0.0 0.0
0.0 0.0 0.0
0.0 0.0 0.0
0.0 0.0 0.0
0.0 0.0 0.0
0.0 0.0 0.0
0.0 0.0 0.0
0.0 0.0 0.0
0.0 0.0 0.0
0.0 0.0 0.0
0.0 0.0 0.0
0.0 0.0 0.0
0.0 0.0 0.0
0.0 0.0 0.0
0.0 0.0 0.0
0.0 0.0 0.0
0.0 0.0 0.0
0.0 0.0 0.0
0.0 0.0 0.0
0.0 0.0 0.0
0.0 0.0 0.0
0.0 0.0 0.0
0.0 0.0 0.0
0.0 0.0 0.0
0.0 0.0 0.0
0.0 0.0 0.0
0.0 0.0 0.0
0.0 0.0 0.0
0.0 0.0 0.0
0.0 0.0 0.0
0.0 0.0 0.0
0.0 0.0 0.0
0.0 0.0 0.0
0.0 0.0 0.0
0.0 0.0 0.0
0.0 0.0 0.0
0.0 0.0 0.0
0.0 0.0 0.0
0.0 0.0 0.0
0.0 0.0 0.0
0.0 0.0 0.0
0.0 0.0 0.0
0.0 0.0 0.0
0.0 0.0 0.0
0.0 0.0 0.0
0.0 0.0 0.0
0.0 0.0 0.0
0.0 0.0 0.0
0.0 0.0 0.0
0.0 0.0 0.0
0.0 0.0 0.0
0.0 0.0 0.0
0.0 0.0 0.0
0.0 0.0 0.0
0.0 0.0 0.0
0.0 0.0 0.0
0.0 0.0 0.0
0.0 0.0 0.0
0.0 0.0 0.0
0.0 0.0 0.0
0.0 0.0 0.0
0.0 0.0 0.0
0.0 0.0 0.0
0.0 0.0 0.0
0.0 0.0 0.0
0.0 0.0 0.0
0.0 0.0 0.0
0.0 0.0 0.0
0.0 0.0 0.0
0.0 0.0 0.0
0.0 0.0 0.0
0.0 0.0 0.0
0.0 0.0 0.0
0.0 0.0 0.0
0.0 0.0 0.0
0.0 0.0 0.0
0.0 0.0 0.0
0.0 0.0 0.0
0.0 0.0 0.0
0.0 0.0 0.0
0.0 0.0 0.0
0.0 0.0 0.0
0.0 0.0 0.0
0.0 0.0 0.0
0.0 0.0 0.0
0.0 0.0 0.0
0.0 0.0 0.0
0.0 0.0 0.0
0.0 0.0 0.0
0.0 0.0 0.0
0.0 0.0 0.0
0.0 0.0 0.0
0.0 0.0 0.0
0.0 0.0 0.0
0.0 0.0 0.0
0.0 0.0 0.0
0.0 0.0 0.0
0.0 0.0 0.0
0.0 0.0 0.0
0.0 0.0 0.0
0.0 0.0 0.0
0.0 0.0 0.0
0.0 0.0 0.0
0.0 0.0 0.0
0.0 0.0 0.0
0.0 0.0 0.0
0.0 0.0 0.0
0.0 0.0 0.0
0.0 0.0 0.0
0.0 0.0 0.0
0.0 0.0 0.0
0.0 0.0 0.0
0.0 0.0 0.0
0.0 0.0 0.0
0.0 0.0 0.0
0.0 0.0 0.0
0.0 0.0 0.0
0.0 0.0 0.0
0.0 0.0 0.0
0.0 0.0 0.0
0.0 0.0 0.0
0.0 0.0 0.0
0.0 0.0 0.0
0.0 0.0 0.0
0.0 0.0 0.0
0.0 0.0 0.0
0.0 0.0 0.0
0.0 0.0 0.0
0.0 0.0 0.0
0.0 0.0 0.0
0.0 0.0 0.0
0.0 0.0 0.0
0.0 0.0 0.0
0.0 0.0 0.0
0.0 0.0 0.0
0.0 0.0 0.0
0.0 0.0 0.0
0.0 0.0 0.0
0.0 0.0 0.0
0.0 0.0 0.0
0.0 0.0 0.0
0.0 0.0 0.0
0.0 0.0 0.0
0.0 0.0 0.0
0.0 0.0 0.0
0.0 0.0 0.0
0.0 0.0 0.0
0.0 0.0 0.0
0.0 0.0 0.0
0.0 0.0 0.0
0.0 0.0 0.0
0.0 0.0 0.0
0.0 0.0 0.0
0.0 0.0 0.0
0.0 0.0 0.0
0.0 0.0 0.0
0.0 0.0 0.0
0.0 0.0 0.0
0.0 0.0 0.0
0.0 0.0 0.0
0.0 0.0 0.0
0.0 0.0 0.0
0.0 0.0 0.0
0.0 0.0 0.0
0.0 0.0 0.0
0.0 0.0 0.0
0.0 0.0 0.0
0.0 0.0 0.0
0.0 0.0 0.0
0.0 0.0 0.0
0.0 0.0 0.0
0.0 0.0 0.0
0.0 0.0 0.0
0.0 0.0 0.0
0.0 0.0 0.0
0.0 0.0 0.0
0.0 0.0 0.0
0.0 0.0 0.0
0.0 0.0 0.0
0.0 0.0 0.0
0.0 0.0 0.0
0.0 0.0 0.0
0.0 0.0 0.0
0.0 0.0 0.0
0.0 0.0 0.0
0.0 0.0 0.0
0.0 0.0 0.0
0.0 0.0 0.0
0.0 0.0 0.0
0.0 0.0 0.0
0.0 0.0 0.0
0.0 0.0 0.0
0.0 0.0 0.0
0.0 0.0 0.0
0.0 0.0 0.0
0.0 0.0 0.0
0.0 0.0 0.0
0.0 0.0 0.0
0.0 0.0 0.0
0.0 0.0 0.0
0.0 0.0 0.0
0.0 0.0 0.0
0.0 0.0 0.0
0.0 0.0 0.0
0.0 0.0 0.0
0.0 0.0 0.0
0.0 0.0 0.0
0.0 0.0 0.0
0.0 0.0 0.0
0.0 0.0 0.0
0.0 0.0 0.0
0.0 0.0 0.0
0.0 0.0 0.0
0.0 0.0 0.0
0.0 0.0 0.0
0.0 0.0 0.0
0.0 0.0 0.0
0.0 0.0 0.0
0.0 0.0 0.0
0.0 0.0 0.0
0.0 0.0 0.0
0.0 0.0 0.0
0.0 0.0 0.0
0.0 0.0 0.0
0.0 0.0 0.0
0.0 0.0 0.0
0.0 0.0 0.0
0.0 0.0 0.0
0.0 0.0 0.0
0.0 0.0 0.0
0.0 0.0 0.0
0.0 0.0 0.0
0.0 0.0 0.0
0.0 0.0 0.0
0.0 0.0 0.0
0.0 0.0 0.0
0.0 0.0 0.0
0.0 0.0 0.0
0.0 0.0 0.0
0.0 0.0 0.0
0.0 0.0 0.0
0.0 0.0 0.0
0.0 0.0 0.0
0.0 0.0 0.0
0.0 0.0 0.0
0.0 0.0 0.0
0.0 0.0 0.0
0.0 0.0 0.0
0.0 0.0 0.0
0.0 0.0 0.0
0.0 0.0 0.0
0.0 0.0 0.0
0.0 0.0 0.0
0.0 0.0 0.0
0.0 0.0 0.0
0.0 0.0 0.0
0.0 0.0 0.0
0.0 0.0 0.0
0.0 0.0 0.0
0.0 0.0 0.0
0.0 0.0 0.0
0.0 0.0 0.0
0.0 0.0 0.0
0.0 0.0 0.0
0.0 0.0 0.0
0.0 0.0 0.0
0.0 0.0 0.0
0.0 0.0 0.0
0.0 0.0 0.0
0.0 0.0 0.0
0.0 0.0 0.0
0.0 0.0 0.0
0.0 0.0 0.0
0.0 0.0 0.0
0.0 0.0 0.0
0.0 0.0 0.0
0.0 0.0 0.0
0.0 0.0 0.0
0.0 0.0 0.0
0.0 0.0 0.0
0.0 0.0 0.0
0.0 0.0 0.0
0.0 0.0 0.0
0.0 0.0 0.0
0.0 0.0 0.0
0.0 0.0 0.0
0.0 0.0 0.0
0.0 0.0 0.0
0.0 0.0 0.0
0.0 0.0 0.0
0.0 0.0 0.0
0.0 0.0 0.0
0.0 0.0 0.0
VECTORS f float
0.0 0.0 0.0
0.0 0.0 0.0
0.0 0.0 -0.00160516
0.0 0.0 0.0
0.0 0.0 -0.000346714
0.0 0.0 -0.000346714
0.0 0.0 -0.000346714
0.0 0.0 -0.000346714
0.0 0.0 -0.000346714
0.0 0.0 -0.00160516
0.0 0.0 -0.000346714
0.0 0.0 -0.000346714
0.0 0.0 -0.000346714
0.0 0.0 -0.000346714
0.0 0.0 -0.000346714
0.0 0.0 -0.000346714
0.0 0.0 -0.000346714
0.0 0.0 -0.00160516
0.0 0.0 -0.000346714
0.0 0.0 -0.000346714
0.0 0.0 -0.00160516
0.0 0.0 -0.000346714
0.0 0.0 -0.000346714
0.0 0.0 -0.000346714
0.0 0.0 -0.000346714
0.0 0.0 -0.000346714
0.0 0.0 -0.00160516
0.0 0.0 -0.00160516
0.0 0.0 -0.00160516
0.0 0.0 -0.000346714
0.0 0.0 -0.000346714
0.0 0.0 -0.000346714
0.0 0.0 -0.00160516
0.0 0.0 -0.00160516
0.0 0.0 -0.000346714
0.0 0.0 -0.000346714
0.0 0.0 -0.00160516
0.0 0.0 -0.000346714
0.0 0.0 -0.000346714
0.0 0.0 -0.00160516
0.0 0.0 -0.000346714
0.0 0.0 -0.00160516
0.0 0.0 -0.000346714
0.0 0.0 -0.000346714
0.0 0.0 -0.000346714
0.0 0.0 -0.00160516
0.0 0.0 -0.00160516
0.0 0.0 -0.00160516
0.0 0.0 -0.000346714
0.0 0.0 -0.000346714
0.0 0.0 -0.00160516
0.0 0.0 -0.000346714
0.0 0.0 -0.000346714
0.0 0.0 -0.000346714
0.0 0.0 -0.000346714
0.0 0.0 -0.000346714
0.0 0.0 -0.00160516
0.0 0.0 -0.000346714
0.0 0.0 -0.000346714
0.0 0.0 -0.000346714
0.0 0.0 -0.000346714
0.0 0.0 -0.00160516
0.0 0.0 -0.00160516
0.0 0.0 -0.000346714
0.0 0.0 -0.000346714
0.0 0.0 -0.000346714
0.0 0.0 -0.00160516
0.0 0.0 -0.000346714
0.0 0.0 -0.000346714
0.0 0.0 -0.000346714
0.0 0.0 -0.00160516
0.0 0.0 -0.000346714
0.0 0.0 -0.000346714
0.0 0.0 -0.00160516
0.0 0.0 -0.000346714
0.0 0.0 -0.000346714
0.0 0.0 -0.000346714
0.0 0.0 -0.000346714
0.0 0.0 -0.000346714
0.0 0.0 -0.000346714
0.0 0.0 -0.000346714
0.0 0.0 -0.000346714
0.0 0.0 -0.000346714
0.0 0.0 -0.00160516
0.0 0.0 -0.000346714
0.0 0.0 -0.000346714
0.0 0.0 -0.000346714
0.0 0.0 -0.00160516
0.0 0.0 -0.000346714
0.0 0.0 -0.00160516
0.0 0.0 -0.00160516
0.0 0.0 -0.00160516
0.0 0.0 -0.000346714
0.0 0.0 -0.000346714
0.0 0.0 -0.000346714
0.0 0.0 -0.00160516
0.0 0.0 -0.000346714
0.0 0.0 -0.000346714
0.0 0.0 -0.00160516
0.0 0.0 -0.000346714
0.0 0.0 -0.00160516
0.0 0.0 -0.000346714
0.0 0.0 -0.000346714
0.0 0.0 -0.00160516
0.0 0.0 -0.000346714
0.0 0.0 -0.000346714
0.0 0.0 -0.00160516
0.0 0.0 -0.000346714
0.0 0.0 -0.00160516
0.0 0.0 -0.00160516
0.0 0.0 -0.00160516
0.0 0.0 -0.000346714
0.0 0.0 -0.000346714
-8.54588e-05 -3.99107e-05 -4.3282e-05
0.0 0.0 -0.00160516
0.0 0.0 -0.000346714
0.0003354 -0.000247752 0.0113636
-0.00040906 3.44637e-05 -0.000175617
-0.000392771 -5.84503e-05 -0.000211681
-8.82736e-05 -1.31606e-05 -3.83173e-05
-8.82528e-05 -1.3176e-05 -3.80217e-05
0.0 0.0 -0.000346714
0.0 0.0 -0.000346714
0.0 0.0 -0.000346714
-8.45094e-05 -3.93413e-05 -4.5644e-05
0.0 0.0 -0.000346714
0.0 0.0 -0.000346714
-0.000509181 4.07354e-05 -3.14127e-05
-0.000371731 3.50194e-05 -0.000277159
-8.7692e-05 -1.30786e-05 -3.95122e-05
-8.83064e-05 -1.32702e-05 -3.83925e-05
0.0 0.0 -0.00160516
-8.57486e-05 -4.0018e-05 -4.16536e-05
-0.000396945 -0.000185069 -0.000194922
-8.58334e-05 -4.01072e-05 -4.05808e-05
0.0 0.0 -0.000346714
-2.70265e-05 0.000261753 0.000422691
-8.83815e-05 7.15332e-06 -3.79127e-05
-8.20276e-05 -3.81653e-05 -5.18037e-05
0.0 0.0 -0.000346714
-0.000321962 -0.000142666 0.00018582
4.98472e-05 -2.60222e-05 -0.0011365
-8.37494e-05 3.77386e-05 -4.70456e-05
6.9586e-05 6.30584e-06 0.000172415
-0.00040521 0.000104861 -0.000181606
-8.88916e-05 2.28144e-05 -3.67398e-05
-8.84153e-05 7.15001e-06 -3.76179e-05
0.0 0.0 -0.00160516
2.23381e-05 2.69644e-05 8.97441e-06
0.0 0.0 -0.000346714
-0.000161621 -8.13694e-05 -0.000478098
0.0 0.0 -0.000346714
0.0 0.0 -0.000346714
0.0 0.0 -0.00160516
3.4818e-05 4.14129e-05 0.000222918
0.000116008 0.000132272 7.52398e-05
0.00214276 0.000255809 -0.00224631
-0.000525684 0.000535694 3.03479e-05
0.0 0.0 -0.000346714
2.10552e-05 -1.13278e-05 4.10173e-06
-0.000398437 -0.000165616 -0.000226967
0.0 0.0 -0.000346714
0.0 0.0 -0.00160516
0.0 0.0 -0.000346714
0.0 0.0 -0.00160516
0.0 0.0 -0.00160516
-8.7342e-05 6.37857e-06 -0.000890476
0.000661411 -0.00010698 -0.000133868
-0.000109109 -4.32245e-05 -0.00108678
0.0 0.0 -0.00160516
-9.37279e-05 -1.08808e-05 -3.33578e-05
6.77132e-05 5.99379e-06 -7.45692e-05
0.000229576 0.000128179 -0.000861608
0.0 0.0 -0.000346714
0.0 0.0 -0.000346714
1.50093e-06 -1.2315e-05 -0.0012997
8.4946e-06 3.56121e-05 -0.000156753
-0.000395923 -4.42594e-05 -0.000170522
0.0 0.0 -0.00160516
-8.83956e-05 -3.16265e-05 -4.03962e-05
0.0 0.0 -0.000346714
0.0 0.0 -0.000346714
-4.31967e-05 -5.10382e-05 1.32744e-06
0.0 0.0 -0.00160516
0.0 0.0 -0.000346714
0.0 0.0 -0.00160516
-0.000397009 4.16402e-05 -0.000196402
0.0 0.0 -0.00160516
-0.00299387 -0.000717114 0.00719199
-7.9903e-05 -7.50116e-06 -8.73894e-05
-0.000101071 -9.88578e-06 -1.13307e-05
-8.94251e-05 -8.20619e-06 -3.54912e-05
-2.72523e-07 3.63151e-05 4.99893e-06
-0.000104178 -6.56687e-05 -6.15243e-05
0.0 0.0 -0.000346714
-0.00364229 0.00220145 0.00829966
0.0 0.0 -0.00160516
2.09849e-05 -7.48694e-05 -1.32162e-05
0.0 0.0 -0.000346714
-0.000122924 -8.27208e-05 5.2149e-05
0.0 0.0 -0.000346714
-8.72326e-05 1.62976e-05 -3.73788e-05
-7.2385e-05 1.40708e-05 -7.08763e-05
0.0 0.0 -0.000346714
-0.000139794 -0.000913005 0.00190249
-0.000163268 3.32886e-05 0.000112823
0.000317254 -9.62856e-05 0.00356315
-8.1509e-05 -6.44013e-06 -4.84607e-05
0.0 0.0 -0.00160516
-4.67376e-05 -1.68147e-05 -0.000118719
0.0 0.0 -0.000346714
0.0 0.0 -0.00160516
0.0 0.0 -0.000346714
-8.15296e-05 -5.28429e-05 -4.68537e-05
-0.000485608 0.00120835 0.000756569
-0.000319334 6.84e-05 -0.000361217
-0.000468983 8.98392e-05 -1.54493e-05
-6.57968e-05 1.41036e-05 -4.92471e-05
-0.00077502 0.00083712 -0.000465106
-0.000279884 -1.58049e-05 0.000346294
-0.000175443 -1.04827e-05 8.96369e-05
-8.76752e-05 -4.19698e-06 -3.68514e-05
0.0 0.0 -0.000346714
0.000613202 -0.000200315 0.0095708
-0.000951934 -0.000625512 0.00135469
0.00199266 0.00138559 0.00496985
-0.00159595 -0.000151802 -0.000230025
-8.70453e-05 1.91662e-05 -3.73916e-05
0.000109238 4.93265e-05 2.4577e-05
0.0 0.0 -0.00160516
-0.00292629 -0.000663191 0.000934389
0.0 0.0 -0.000346714
0.0 0.0 -0.000346714
-8.338e-05 4.45594e-05 -4.31118e-05
-7.87521e-05 1.91607e-05 -6.25348e-05
0.0 0.0 -0.000346714
0.0 0.0 -0.00160516
0.0 0.0 -0.000346714
0.0 0.0 -0.00160516
-0.00148849 -0.000163446 0.00255587
-8.67826e-05 -2.4416e-05 -3.77134e-05
0.0 0.0 -0.00160516
-9.23792e-05 -2.60781e-05 -2.26703e-05
-5.81997e-05 -3.26428e-05 -9.1977e-05
0.0 0.0 -0.000346714
-8.04608e-05 4.61473e-05 -4.96863e-05
-8.72562e-05 2.21035e-05 -3.72166e-05
-8.65314e-05 2.19537e-05 -3.84408e-05
-8.662e-05 2.19756e-05 -3.82428e-05
0.0 0.0 -0.00160516
-8.8863e-05 -1.95817e-05 -3.98839e-05
0.0 0.0 -0.000346714
-0.000402056 -9.94637e-05 -0.000174193
-8.13458e-05 4.66541e-05 -4.75392e-05
-8.21292e-05 4.71461e-05 -4.55812e-05
-0.000420055 0.000251584 -4.43785e-05
0.0 0.0 -0.00160516
0.0 0.0 -0.000346714
-8.86503e-05 -1.9537e-05 -4.02954e-05
-4.23426e-05 -8.88636e-06 -0.000129001
0.0 0.0 -0.000346714
-0.000430884 -0.000218626 -0.000117606
6.33082e-05 0.000116772 0.000437192
-8.49425e-05 4.68092e-05 -4.67596e-05
0.0 0.0 -0.000346714
-0.000397687 0.000114495 -0.000182063
-0.000396076 0.000114027 -0.000186199
-8.61046e-05 2.48109e-05 -3.89819e-05
-8.71884e-05 2.52185e-05 -3.58845e-05
-8.66367e-05 2.51448e-05 -3.55329e-05
-7.24188e-05 2.529e-06 -7.67164e-05
2.09772e-05 -2.47007e-05 6.79403e-06
-0.000154307 1.45638e-05 -3.787e-05
0.000257263 0.000136562 -0.001283
-0.00183904 -7.79599e-05 0.00331186
1.84029e-05 5.25626e-05 0.000203716
-9.27698e-05 -1.86407e-05 -2.90464e-05
0.0 0.0 -0.00160516
-0.000202617 1.84866e-05 -4.46407e-05
-8.73852e-05 -1.88254e-05 -3.81581e-05
0.0 0.0 -0.00160516
-7.65704e-05 6.67133e-05 -5.4316e-05
-8.14859e-05 4.47138e-05 -4.25744e-05
0.0 0.0 -0.00160516
2.94409e-06 -4.75824e-06 -0.00023504
-8.72969e-05 2.9817e-06 -3.54579e-05
0.0 0.0 -0.000346714
0.0 0.0 -0.00160516
1.20156e-05 -5.53458e-05 1.14912e-06
-8.75623e-05 2.98889e-06 -3.49096e-05
-0.000166298 -2.17798e-05 -0.000654961
0.0 0.0 -0.000346714
1.6342e-05 -7.6336e-05 3.84946e-06
0.000216285 -0.000164158 8.50132e-06
-0.000121392 -2.60089e-05 4.83467e-05
0.0 0.0 -0.00160516
0.0 0.0 -0.000346714
1.13012e-05 -0.000132427 0.000118053
-0.000239931 -0.000129009 -0.000832437
-7.21523e-05 8.5327e-05 -6.86514e-05
0.0 0.0 -0.000346714
-8.80817e-05 2.66882e-05 -4.10088e-05
-0.00110903 0.00022834 0.00172168
0.0 0.0 -0.000346714
0.0 0.0 -0.000346714
0.0 0.0 -0.00160516
-2.73786e-05 1.60322e-05 -0.00023553
-7.17014e-05 8.53346e-05 -5.93119e-05
1.83753e-05 8.02067e-06 6.68594e-06
-0.000606575 0.000174404 -0.000390665
-0.000458883 8.82029e-05 5.23765e-05
-8.95459e-05 1.1922e-05 -3.8329e-05
0.0 0.0 -0.000346714
-3.60263e-05 -1.11098e-06 -0.000159992
0.0 0.0 -0.000346714
3.65173e-05 1.08571e-05 -0.000371816
-0.000109692 -4.98919e-05 8.92614e-05
0.0 0.0 -0.000346714
0.000174572 0.000403579 -8.91103e-05
0.0 0.0 -0.000346714
0.0 0.0 -0.000346714
0.0 0.0 -0.000346714
-9.60498e-05 2.77502e-05 -2.25525e-05
0.0 0.0 -0.000346714
0.0 0.0 -0.00160516
0.0 0.0 -0.000346714
-0.000405406 4.84704e-05 -0.000169313
0.0 0.0 -0.000346714
0.0 0.0 -0.000346714
8.96272e-05 -5.37677e-06 4.03323e-05
-5.31612e-05 -4.98313e-06 -0.000122944
0.0 0.0 -0.00160516
-9.03134e-05 -5.10117e-06 -3.92216e-05
0.0 0.0 -0.00160516
-9.06502e-05 -4.35795e-05 -2.42435e-05
-8.06635e-05 -6.13881e-05 -5.27426e-05
-4.9262e-05 0.000112777 -0.000103686
0.0 0.0 -0.000346714
-0.000399477 2.85255e-05 -0.000218193
0.0 0.0 -0.00160516
0.0 0.0 -0.000346714
-0.000227962 -1.98566e-05 0.000120217
0.000118828 -0.000122971 -6.61393e-05
-0.00036386 -0.000189145 7.04663e-05
-7.30641e-05 -8.09192e-05 -6.50894e-05
-8.50752e-05 3.46961e-05 -4.05183e-05
-0.000429118 0.000148575 -0.000140685
0.0 0.0 -0.000346714
0.0 0.0 -0.000346714
-8.91993e-05 1.54616e-05 -3.91203e-05
0.0 0.0 -0.000346714
-2.34677e-05 -0.000112566 8.80622e-07
2.78756e-05 -3.11216e-05 3.8003e-05
0.0 0.0 -0.000346714
4.19727e-07 -9.69001e-05 -1.79692e-06
0.0 0.0 -0.00160516
0.0 0.0 -0.000346714
0.0 0.0 -0.00160516
0.0 0.0 -0.00160516
0.0 0.0 -0.000346714
-8.81077e-05 1.52677e-05 -4.15891e-05
-8.85253e-05 1.40766e-05 -3.84141e-05
0.0 0.0 -0.000346714
0.0 0.0 -0.00160516
0.0 0.0 -0.000346714
0.0 0.0 -0.00160516
-0.000782467 -8.79808e-05 0.000302826
-0.00039867 -6.27156e-05 -0.00017329
-8.90204e-05 -1.40521e-05 -2.98529e-05
-8.28067e-05 4.30232e-05 -4.74593e-05
-0.00039374 0.000205367 -0.000202074
-8.66037e-05 2.85844e-05 -4.00904e-05
0.0 0.0 -0.000346714
0.000402543 -0.000148044 -0.00237815
0.0 0.0 -0.00160516
0.0 0.0 -0.00160516
0.0 0.0 -0.000346714
-0.000405353 7.02833e-08 -0.00018563
-0.000409295 -6.93157e-05 -0.000178055
0.000544747 0.00028393 0.00965594
-0.000108807 -4.06692e-05 -5.34199e-05
0.0 0.0 -0.000346714
-0.000460777 0.000234535 -5.82052e-05
-0.000404136 0.000130071 -0.00018669
0.0 0.0 -0.000346714
0.0 0.0 -0.000346714
0.0 0.0 -0.000346714
0.0 0.0 -0.000346714
0.0 0.0 -0.000346714
0.0 0.0 -0.000346714
0.0 0.0 -0.00160516
-0.0125923 0.0126948 -0.0074527
0.00178273 -0.000119075 -0.00193006
-7.09519e-05 -1.19473e-05 -7.80579e-05
2.13421e-05 -5.81702e-05 3.18962e-06
0.0 0.0 -0.000346714
0.0 0.0 -0.000346714
-1.03705e-05 0.000186425 8.07356e-05