ITEM: TIMESTEP
8800
ITEM: NUMBER OF ATOMS
115
ITEM: BOX BOUNDS ff ff ff
-0.5 0.1
-0.2 0.2
-0.4 0.15
ITEM: ATOMS id type type x y z ix iy iz vx vy vz fx fy fz omegax omegay omegaz radius 
2 1 1 -0.0346734 -0.00599195 -0.0676214 0 0 0 0 0 -1.81869 0 0 -0.00160516 0 0 0 0.0025 
12 1 1 -0.00894204 -0.00172108 -0.0701879 0 0 0 0 0 -1.83253 0 0 -0.000346714 0 0 0 0.0015 
5 1 1 -0.0106535 0.00311808 -0.0696777 0 0 0 0 0 -1.82978 0 0 -0.000346714 0 0 0 0.0015 
11 1 1 -0.0241534 0.031784 -0.0690373 0 0 0 0 0 -1.82635 0 0 -0.000346714 0 0 0 0.0015 
1 1 1 -0.00174714 -0.029557 -0.0671763 0 0 0 0 0 -1.81634 0 0 -0.00160516 0 0 0 0.0025 
4 1 1 -0.0255875 0.0216478 -0.0650465 0 0 0 0 0 -1.80476 0 0 -0.00160516 0 0 0 0.0025 
8 1 1 -0.00953586 -0.0287916 -0.0616342 0 0 0 0 0 -1.78612 0 0 -0.000346714 0 0 0 0.0015 
7 1 1 -0.00462371 -0.0298822 -0.0581021 0 0 0 0 0 -1.7666 0 0 -0.000346714 0 0 0 0.0015 
10 1 1 -0.0270088 -0.00882918 -0.0582773 0 0 0 0 0 -1.76758 0 0 -0.000346714 0 0 0 0.0015 
3 1 1 -0.0134792 0.0074157 -0.056564 0 0 0 0 0 -1.75807 0 0 -0.00160516 0 0 0 0.0025 
6 1 1 -0.0266102 0.013684 -0.0565983 0 0 0 0 0 -1.75826 0 0 -0.000346714 0 0 0 0.0015 
24 1 1 -0.0202974 -0.0206343 -0.0528119 0 0 0 0 0 -1.73698 0 0 -0.000346714 0 0 0 0.0015 
25 1 1 -0.00857183 0.0107813 -0.0550198 0 0 0 0 0 -1.74943 0 0 -0.000346714 0 0 0 0.0015 
16 1 1 -0.00408721 0.01129 -0.052771 0 0 0 0 0 -1.73678 0 0 -0.00160516 0 0 0 0.0025 
9 1 1 -0.0280307 0.022667 -0.0556039 0 0 0 0 0 -1.75267 0 0 -0.000346714 0 0 0 0.0015 
22 1 1 -0.0083641 -0.0195 -0.0515027 0 0 0 0 0 -1.72962 0 0 -0.000346714 0 0 0 0.0015 
19 1 1 -0.0101549 -0.00442827 -0.0497499 0 0 0 0 0 -1.71961 0 0 -0.000346714 0 0 0 0.0015 
17 1 1 -0.0253454 -0.000700049 -0.0506949 0 0 0 0 0 -1.72501 0 0 -0.000346714 0 0 0 0.0015 
18 1 1 -0.0335467 0.0344165 -0.0520138 0 0 0 0 0 -1.73246 0 0 -0.000346714 0 0 0 0.0015 
15 1 1 -0.00454319 -0.0294115 -0.0481668 0 0 0 0 0 -1.71059 0 0 -0.00160516 0 0 0 0.0025 
21 1 1 -0.0333391 -0.019004 -0.0450225 0 0 0 0 0 -1.69244 0 0 -0.000346714 0 0 0 0.0015 
14 1 1 -0.00618745 0.0189444 -0.0450408 0 0 0 0 0 -1.69254 0 0 -0.00160516 0 0 0 0.0025 
20 1 1 -0.0332823 -0.00448395 -0.0405048 0 0 0 0 0 -1.66605 0 0 -0.000346714 0 0 0 0.0015 
13 1 1 -0.00741847 0.0112937 -0.0389966 0 0 0 0 0 -1.65712 0 0 -0.00160516 0 0 0 0.0025 
23 1 1 -0.0165601 0.0229939 -0.0381974 0 0 0 0 0 -1.65241 0 0 -0.000346714 0 0 0 0.0015 
29 1 1 -0.022531 -0.00019371 -0.0352448 0 0 0 0 0 -1.63476 0 0 -0.00160516 0 0 0 0.0025 
35 1 1 -0.0138262 0.0291618 -0.0365808 0 0 0 0 0 -1.6428 0 0 -0.000346714 0 0 0 0.0015 
37 1 1 -0.0127396 -0.0117751 -0.0325062 0 0 0 0 0 -1.61828 0 0 -0.000346714 0 0 0 0.0015 
32 1 1 -0.0290883 0.000876534 -0.0311962 0 0 0 0 0 -1.61033 0 0 -0.000346714 0 0 0 0.0015 
27 1 1 -0.000459601 0.00699661 -0.0333957 0 0 0 0 0 -1.62367 0 0 -0.00160516 0 0 0 0.0025 
38 1 1 -0.0254317 0.00979368 -0.0323437 0 0 0 0 0 -1.61729 0 0 -0.000346714 0 0 0 0.0015 
26 1 1 -0.0219947 -0.0332201 -0.0293554 0 0 0 0 0 -1.59905 0 0 -0.00160516 0 0 0 0.0025 
28 1 1 -0.0160817 -0.03192 -0.0271471 0 0 0 0 0 -1.58541 0 0 -0.00160516 0 0 0 0.0025 
36 1 1 -0.0230202 -0.0250033 -0.0291279 0 0 0 0 0 -1.59767 0 0 -0.000346714 0 0 0 0.0015 
34 1 1 -0.0177649 0.0224168 -0.0304138 0 0 0 0 0 -1.60552 0 0 -0.000346714 0 0 0 0.0015 
33 1 1 -0.020721 -0.0278475 -0.0256535 0 0 0 0 0 -1.57619 0 0 -0.000346714 0 0 0 0.0015 
30 1 1 -0.0159539 -0.0280969 -0.021937 0 0 0 0 0 -1.55284 0 0 -0.00160516 0 0 0 0.0025 
31 1 1 -0.0297813 -0.0200888 -0.0231279 0 0 0 0 0 -1.5604 0 0 -0.000346714 0 0 0 0.0015 
40 1 1 -0.00180681 -0.0218065 -0.017227 0 0 0 0 0 -1.52282 0 0 -0.00160516 0 0 0 0.0025 
39 1 1 -0.0159102 0.00235532 -0.0179852 0 0 0 0 0 -1.52773 0 0 -0.00160516 0 0 0 0.0025 
44 1 1 -0.022228 0.00485213 -0.01746 0 0 0 0 0 -1.5243 0 0 -0.000346714 0 0 0 0.0015 
45 1 1 -0.0097629 0.0296421 -0.0189254 0 0 0 0 0 -1.53371 0 0 -0.000346714 0 0 0 0.0015 
50 1 1 -0.0279742 -1.04943e-05 -0.0125661 0 0 0 0 0 -1.49251 0 0 -0.000346714 0 0 0 0.0015 
47 1 1 -0.0218847 0.0256262 -0.0122841 0 0 0 0 0 -1.49065 0 0 -0.000346714 0 0 0 0.0015 
48 1 1 -0.022804 -0.0315502 -0.0105279 0 0 0 0 0 -1.47907 0 0 -0.000346714 0 0 0 0.0015 
46 1 1 -0.0105626 -0.0145818 -0.0113146 0 0 0 0 0 -1.48427 0 0 -0.000346714 0 0 0 0.0015 
51 1 1 -0.0175025 -0.0121213 -0.00961283 0 0 0 0 0 -1.47299 0 0 -0.000346714 0 0 0 0.0015 
42 1 1 -0.0160508 0.0304724 -0.0118076 0 0 0 0 0 -1.48751 0 0 -0.00160516 0 0 0 0.0025 
41 1 1 -0.0294843 -0.0347245 -0.005817 0 0 0 0 0 -1.44748 0 0 -0.00160516 0 0 0 0.0025 
52 1 1 -0.0302313 -0.00571197 -0.00526884 0 0 0 0 0 -1.44376 0 0 -0.00160516 0 0 0 0.0025 
49 1 1 -0.0312011 0.00531382 -0.00786882 0 0 0 0 0 -1.46132 0 0 -0.000346714 0 0 0 0.0015 
43 1 1 -0.0196938 0.0042356 -0.00775003 0 0 0 0 0 -1.46053 0 0 -0.000346714 0 0 0 0.0015 
54 1 1 -0.0046838 0.0252416 -0.00502312 0 0 0 0 0 -1.44209 0 0 -0.00160516 0 0 0 0.0025 
53 1 1 -0.00163565 -0.0222313 -0.00162215 0 0 0 0 0 -1.41874 0 0 -0.00160516 0 0 0 0.0025 
56 1 1 -0.0221544 -0.0176068 -0.002532 0 0 0 0 0 -1.42502 0 0 -0.000346714 0 0 0 0.0015 
57 1 1 -0.0185443 0.0109203 -0.00210927 0 0 0 0 0 -1.42208 0 0 -0.000346714 0 0 0 0.0015 
62 1 1 -0.0131635 0.0258143 -0.00300571 0 0 0 0 0 -1.42826 0 0 -0.000346714 0 0 0 0.0015 
58 1 1 -0.00481478 0.0323336 -0.0046908 0 0 0 0 0 -1.43983 0 0 -0.000346714 0 0 0 0.0015 
59 1 1 -0.00206763 -0.0165007 -0.000121888 0 0 0 0 0 -1.40834 0 0 -0.000346714 0 0 0 0.0015 
60 1 1 -0.0250204 0.00245318 -0.000111596 0 0 0 0 0 -1.40824 0 0 -0.000346714 0 0 0 0.0015 
55 1 1 -0.0188291 -0.0247488 0.00448266 0 0 0 0 0 -1.37587 0 0 -0.00160516 0 0 0 0.0025 
63 1 1 -0.0205837 -0.0117427 0.00441251 0 0 0 0 0 -1.37636 0 0 -0.000346714 0 0 0 0.0015 
61 1 1 -0.0136213 0.0102173 0.00591262 0 0 0 0 0 -1.36567 0 0 -0.000346714 0 0 0 0.0015 
64 1 1 -0.00322644 0.00785004 0.00320188 0 0 0 0 0 -1.38499 0 0 -0.000346714 0 0 0 0.0015 
73 1 1 -0.00317446 -0.00307391 0.00820599 0 0 0 0 0 -1.34909 0 0 -0.000346714 0 0 0 0.0015 
68 1 1 -0.0183282 0.020832 0.00913448 0 0 0 0 0 -1.34232 0 0 -0.00160516 0 0 0 0.0025 
67 1 1 -0.0086291 0.0212435 0.0105366 0 0 0 0 0 -1.33202 0 0 -0.00160516 0 0 0 0.0025 
76 1 1 -0.0101315 -0.00307891 0.0169099 0 0 0 0 0 -1.28424 0 0 -0.000346714 0 0 0 0.0015 
69 1 1 -0.00331379 0.000112052 0.0144196 0 0 0 0 0 -1.30308 0 0 -0.000346714 0 0 0 0.0015 
74 1 1 -0.0313469 0.00594264 0.0156671 0 0 0 0 0 -1.29366 0 0 -0.000346714 0 0 0 0.0015 
70 1 1 -0.0161255 0.0259916 0.0143445 0 0 0 0 0 -1.30367 0 0 -0.000346714 0 0 0 0.0015 
66 1 1 -0.0113639 -0.028821 0.0190238 0 0 0 0 0 -1.26796 0 0 -0.00160516 0 0 0 0.0025 
71 1 1 -0.0132118 -0.0142448 0.0184641 0 0 0 0 0 -1.27228 0 0 -0.000346714 0 0 0 0.0015 
65 1 1 -0.021885 0.00637934 0.0178333 0 0 0 0 0 -1.27718 0 0 -0.00160516 0 0 0 0.0025 
72 1 1 -0.0339596 0.0247152 0.0191605 0 0 0 0 0 -1.26688 0 0 -0.000346714 0 0 0 0.0015 
75 1 1 -0.0222205 0.0252752 0.0181523 0 0 0 0 0 -1.27473 0 0 -0.000346714 0 0 0 0.0015 
79 1 1 -0.016039 -0.0311912 0.0242614 0 0 0 0 0 -1.22676 0 0 -0.00160516 0 0 0 0.0025 
83 1 1 -0.006758 -0.00933802 0.0246795 0 0 0 0 0 -1.22342 0 0 -0.000346714 0 0 0 0.0015 
81 1 1 -0.0138041 0.00231809 0.0230357 0 0 0 0 0 -1.23657 0 0 -0.000346714 0 0 0 0.0015 
88 1 1 -0.0246928 0.0149576 0.0218682 0 0 0 0 0 -1.24579 0 0 -0.000346714 0 0 0 0.0015 
77 1 1 -0.00512449 0.0194276 0.0225876 0 0 0 0 0 -1.2401 0 0 -0.00160516 0 0 0 0.0025 
89 1 1 -0.0166674 -0.0133665 0.0281707 0 0 0 0 0 -1.19507 0 0 -0.000346714 0 0 0 0.0015 
78 1 1 -0.0338446 -0.00790771 0.0252032 0 0 0 0 0 -1.2192 0 0 -0.00160516 0 0 0 0.0025 
84 1 1 -0.0307162 0.0123479 0.0272504 0 0 0 0 0 -1.20263 0 0 -0.000346714 0 0 0 0.0015 
85 1 1 -0.0261342 0.0289343 0.0262217 0 0 0 0 0 -1.21096 0 0 -0.000346714 0 0 0 0.0015 
80 1 1 -0.0153514 -0.0285466 0.0321255 0 0 0 0 0 -1.16221 0 0 -0.00160516 0 0 0 0.0025 
87 1 1 -0.0216846 0.010562 0.0308606 0 0 0 0 0 -1.1728 0 0 -0.000346714 0 0 0 0.0015 
82 1 1 -0.011833 0.030812 0.0310465 0 0 0 0 0 -1.17123 0 0 -0.000346714 0 0 0 0.0015 
86 1 1 -0.0266174 0.0340944 0.0320914 0 0 0 0 0 -1.1625 0 0 -0.000346714 0 0 0 0.0015 
102 1 1 -0.0267621 -0.0316048 0.0325047 0 0 0 0 0 -1.15897 0 0 -0.000346714 0 0 0 0.0015 
95 1 1 -0.016986 -0.00213434 0.034963 0 0 0 0 0 -1.13798 0 0 -0.000346714 0 0 0 0.0015 
94 1 1 -0.0329725 0.0296342 0.0359703 0 0 0 0 0 -1.12925 0 0 -0.00160516 0 0 0 0.0025 
97 1 1 -0.020149 -0.0334448 0.0384202 0 0 0 0 0 -1.10776 0 0 -0.000346714 0 0 0 0.0015 
100 1 1 -0.0135716 -0.0190259 0.0371501 0 0 0 0 0 -1.11895 0 0 -0.000346714 0 0 0 0.0015 
91 1 1 -0.0292811 0.00645928 0.0389345 0 0 0 0 0 -1.10325 0 0 -0.00160516 0 0 0 0.0025 
92 1 1 -0.0333375 0.0110949 0.0385415 0 0 0 0 0 -1.10668 0 0 -0.00160516 0 0 0 0.0025 
90 1 1 -0.0143727 0.015853 0.0398089 0 0 0 0 0 -1.0954 0 0 -0.00160516 0 0 0 0.0025 
98 1 1 -0.0294235 0.0177987 0.0367823 0 0 0 0 0 -1.12218 0 0 -0.000346714 0 0 0 0.0015 
99 1 1 -0.00439906 0.0240922 0.0392428 0 0 0 0 0 -1.1005 0 0 -0.000346714 0 0 0 0.0015 
101 1 1 -0.00739645 -0.0185545 0.0416222 0 0 0 0 0 -1.07902 0 0 -0.000346714 0 0 0 0.0015 
93 1 1 -0.0265909 0.0159092 0.041788 0 0 0 0 0 -1.07755 0 0 -0.00160516 0 0 0 0.0025 
96 1 1 -0.0159897 0.0274334 0.0418422 0 0 0 0 0 -1.07706 0 0 -0.000346714 0 0 0 0.0015 
115 1 1 -0.0161861 -0.026381 0.0462149 0 0 0 0 0 -1.03644 0 0 -0.000346714 0 0 0 0.0015 
113 1 1 -0.0275469 -0.0163611 0.0440871 0 0 0 0 0 -1.05646 0 0 -0.000346714 0 0 0 0.0015 
105 1 1 -0.00301846 -0.0111451 0.0467267 0 0 0 0 0 -1.03164 0 0 -0.00160516 0 0 0 0.0025 
107 1 1 -0.0273253 -0.00441029 0.0473489 0 0 0 0 0 -1.02565 0 0 -0.00160516 0 0 0 0.0025 
114 1 1 -0.0102956 -0.00169209 0.0438111 0 0 0 0 0 -1.05901 0 0 -0.000346714 0 0 0 0.0015 
106 1 1 -0.00205293 -0.0206571 0.0487437 0 0 0 0 0 -1.01221 0 0 -0.00160516 0 0 0 0.0025 
111 1 1 -0.0318002 -0.0148599 0.0503253 0 0 0 -0 0 -1 0 0 0 0 0 0 0.0015 
112 1 1 -0.0112712 -0.00229192 0.048731 0 0 0 0 0 -1.01241 0 0 -0.000346714 0 0 0 0.0015 
110 1 1 -0.0135333 0.000602269 0.0480528 0 0 0 0 0 -1.01888 0 0 -0.000346714 0 0 0 0.0015 
103 1 1 -0.00791609 0.00384723 0.0480585 0 0 0 0 0 -1.01888 0 0 -0.00160516 0 0 0 0.0025 
104 1 1 -0.0192779 0.00722911 0.0493249 0 0 0 0 0 -1.00662 0 0 -0.00160516 0 0 0 0.0025 
109 1 1 -2.29018e-06 0.0149512 0.0485015 0 0 0 0 0 -1.01457 0 0 -0.000346714 0 0 0 0.0015 
108 1 1 -0.0322225 0.032442 0.0513112 0 0 0 -0 0 -1 0 0 0 0 0 0 0.0015 
