ITEM: TIMESTEP
23000
ITEM: NUMBER OF ATOMS
295
ITEM: BOX BOUNDS ff ff ff
-0.5 0.1
-0.2 0.2
-0.4 0.15
ITEM: ATOMS id type type x y z ix iy iz vx vy vz fx fy fz omegax omegay omegaz radius 
11 1 1 -0.113002 0.00596943 -0.152977 0 0 0 -0.793291 -0.316713 -0.243809 0 0 -0.000346714 102.285 -555.377 289.329 0.0015 
18 1 1 -0.116238 0.0202933 -0.152798 0 0 0 -0.8336 -0.182338 -0.388384 0 0 -0.000346714 103.268 -579.915 41.5705 0.0015 
38 1 1 -0.141279 0.0622787 -0.151976 0 0 0 -1.2888 0.41246 -0.339631 -7.03863e-05 -9.28828e-05 5.29867e-08 -237.973 -910.812 -201.12 0.0015 
30 1 1 -0.111362 -0.0123732 -0.151408 0 0 0 -0.948897 -0.0665228 -0.394306 -0.00042174 6.71027e-05 -0.000119344 11.5626 -410.046 41.3563 0.0025 
4 1 1 -0.108227 -0.00538814 -0.150547 0 0 0 -0.846498 -0.0469798 -0.356106 -0.000410614 6.06658e-05 -0.000177955 17.7613 -368.283 6.36593 0.0025 
8 1 1 -0.100699 -0.00195485 -0.148416 0 0 0 -0.917981 0.139396 -0.385654 0 0 -0.000346714 -67.1425 -652.982 -90.5968 0.0015 
24 1 1 -0.102683 0.00250048 -0.148413 0 0 0 -0.859387 0.109474 -0.343433 0 0 -0.000346714 -53.0752 -584.374 -64.012 0.0015 
31 1 1 -0.106548 0.00591626 -0.15091 0 0 0 -0.936235 0.208551 -0.396863 -9.07542e-05 -3.93861e-07 -3.66482e-05 -60.669 -677.871 -213.036 0.0015 
12 1 1 -0.101916 0.00886817 -0.148624 0 0 0 -0.838433 0.218076 -0.34104 0 0 -0.000346714 -53.6516 -573.797 -256.552 0.0015 
5 1 1 -0.103305 0.0183846 -0.14862 0 0 0 -0.881235 0.06344 -0.3692 -8.86062e-05 -1.60347e-05 -3.88421e-05 -34.0099 -637.972 -28.446 0.0015 
36 1 1 -0.106112 -0.0311872 -0.14773 0 0 0 -0.929543 -0.00240388 -0.388246 -8.50319e-05 4.23583e-05 -4.42624e-05 -55.4268 -655.862 136.764 0.0015 
72 1 1 -0.101313 -0.024212 -0.145697 0 0 0 -0.95347 -0.505283 -0.368046 0 0 -0.000346714 152.131 -611.253 526.705 0.0015 
23 1 1 -0.099019 -0.000285683 -0.146105 0 0 0 -0.801245 -0.0264037 -0.166546 0 0 -0.000346714 105.248 -339.958 -141.967 0.0015 
35 1 1 -0.0989493 0.00630959 -0.147153 0 0 0 -0.799851 -0.217624 -0.301121 0 0 -0.000346714 158.394 -492.744 -12.1993 0.0015 
47 1 1 -0.100109 0.0257751 -0.146139 0 0 0 -1.0894 -0.000523118 -0.462054 -6.3846e-05 -3.82964e-05 0.000146658 -17.5959 -803.655 43.5144 0.0015 
26 1 1 -0.0931307 -0.00564473 -0.143383 0 0 0 -0.81897 0.262088 -0.372118 0 0 -0.00160516 -127.755 -335.758 38.0319 0.0025 
50 1 1 -0.0851809 -0.00872905 -0.141677 0 0 0 -0.739525 -0.120554 -0.306963 -0.000102196 1.29692e-05 -1.20527e-05 158.664 -546.025 -167.701 0.0015 
21 1 1 -0.109853 -0.00339941 -0.145617 0 0 0 -0.738535 0.109544 -0.797066 0 0 -0.000346714 -128.412 -337.666 -66.8896 0.0015 
2 1 1 -0.119615 -0.000411333 -0.148166 0 0 0 -0.737266 0.0484382 -0.812208 0 0 -0.00160516 -14.8336 -225.779 -6.37285e-15 0.0025 
37 1 1 -0.0874523 0.00290056 -0.142818 0 0 0 -0.853586 0.138016 -0.361694 0 0 -0.000346714 -95.7083 -610.979 -10.4515 0.0015 
3 1 1 -0.0895781 0.014418 -0.142048 0 0 0 -0.782938 0.184914 -0.316822 0.000596785 0.0004215 -0.00275965 -43.7636 -334.113 -86.6916 0.0025 
51 1 1 -0.0840666 0.0143019 -0.140694 0 0 0 -0.929399 0.272116 -0.357205 0 0 -0.000346714 -168.484 -542.619 -216.237 0.0015 
33 1 1 -0.0775182 -0.00553877 -0.13862 0 0 0 -0.636927 0.221278 -0.281328 -8.88607e-05 1.03751e-05 -3.8238e-05 -100.056 -469.069 -142.419 0.0015 
10 1 1 -0.10879 -0.000933689 -0.141986 0 0 0 -0.745831 0.104058 -0.747812 0 0 -0.000346714 -69.1963 -297.382 -80.0457 0.0015 
6 1 1 -0.107569 0.0032262 -0.14465 0 0 0 -0.744958 -0.0400228 -0.847854 0 0 -0.000346714 116.452 -309.166 46.8482 0.0015 
19 1 1 -0.0762301 0.0118839 -0.137443 0 0 0 -0.598756 0.0690829 -0.280064 0 0 -0.000346714 9.93343 -384.257 -2.54288 0.0015 
16 1 1 -0.0807982 0.0149158 -0.138021 0 0 0 -0.810661 0.0562237 -0.298844 0 0 -0.00160516 13.7115 -311.279 -95.1049 0.0025 
28 1 1 -0.0726339 -0.0233405 -0.13395 0 0 0 -0.697892 0.135286 -0.308323 -0.000404873 0.000117134 -0.000178227 -65.9182 -302.722 16.3781 0.0025 
20 1 1 -0.10685 -0.00104644 -0.138727 0 0 0 -0.76353 0.00794432 -0.67438 0 0 -0.000346714 -89.6062 -318.979 -0.477356 0.0015 
71 1 1 -0.0792824 -0.000975611 -0.13835 0 0 0 -0.749224 0.0213593 -0.701738 0 0 -0.000346714 -111.41 -624.533 -14.8452 0.0015 
60 1 1 -0.068441 -0.00145128 -0.134916 0 0 0 -0.656454 -0.0605508 -0.276969 -4.36069e-05 -2.13987e-06 -0.00013142 72.1898 -473.596 -67.7083 0.0015 
17 1 1 -0.105397 0.0015981 -0.139588 0 0 0 -0.708958 0.00642067 -0.664599 0 0 -0.000346714 -5.41412 -292.927 59.5269 0.0015 
49 1 1 -0.0840738 0.00299494 -0.140313 0 0 0 -0.896151 0.163475 -0.840973 0 0 -0.000346714 48.5802 538.984 -6.97324 0.0015 
25 1 1 -0.0733086 -0.000825699 -0.13603 0 0 0 -0.801105 -0.200558 -0.316798 0 0 -0.000346714 143.68 -544.913 -1.52468 0.0015 
43 1 1 -0.0703156 0.0274495 -0.13336 0 0 0 -0.609128 -0.00396294 -0.24671 0 0 -0.000346714 83.2359 -402.555 -201.843 0.0015 
1 1 1 -0.0628018 -0.0139654 -0.13092 0 0 0 -0.604913 -0.0217195 -0.253391 -0.000483001 5.43734e-05 6.78661e-07 -36.2642 -257.865 108.765 0.0025 
76 1 1 -0.073409 -0.00951699 -0.132625 0 0 0 -0.924273 -0.176835 -0.634931 0 0 -0.000346714 -173.608 -707.796 -71.5395 0.0015 
22 1 1 -0.0887775 -0.00513227 -0.135936 0 0 0 -0.721152 0.128851 -0.791122 0 0 -0.000346714 -65.0767 -364.221 8.43618e-14 0.0015 
39 1 1 -0.0643987 -0.00108312 -0.132123 0 0 0 -0.661925 -0.0479673 -0.279468 -0.000409261 -2.36682e-05 -0.000172653 26.3046 -287.188 -13.0105 0.0025 
32 1 1 -0.100695 0.00291085 -0.135516 0 0 0 -0.756912 0.0215037 -0.644537 0 0 -0.000346714 -11.0748 -389.824 7.37302e-16 0.0015 
14 1 1 -0.085779 0.000355212 -0.135494 0 0 0 -0.732633 -0.171112 -0.796941 0 0 -0.00160516 53.1334 -227.496 5.06761e-14 0.0025 
84 1 1 -0.0685858 0.00509759 -0.132762 0 0 0 -0.64557 -0.0748796 -0.528711 0 0 -0.000346714 36.2499 262.927 92.7264 0.0015 
44 1 1 -0.0597763 0.00416121 -0.131135 0 0 0 -0.553441 -0.0331392 -0.233497 -8.84207e-05 -5.1135e-06 -3.7269e-05 10.777 -401.32 31.4137 0.0015 
29 1 1 -0.0642884 0.00851358 -0.131857 0 0 0 -0.562774 0.0144541 -0.238799 -0.000420073 -2.1682e-05 -0.000156216 28.5445 -243.025 -81.9978 0.0025 
88 1 1 -0.0651634 0.0146326 -0.13283 0 0 0 -0.692738 -0.0599122 -0.294985 -8.77592e-05 -2.00511e-05 -3.75383e-05 -7.02262 -514.208 120.926 0.0015 
42 1 1 -0.0742033 0.0312627 -0.133269 0 0 0 -0.732483 0.000451697 -0.312223 0 0 -0.00160516 15.8579 -311.099 -41.6505 0.0025 
7 1 1 -0.0876101 -0.072602 -0.12543 0 0 0 -0.619036 -0.260006 -0.247428 0 0 -0.000346714 126.408 -322.742 286.533 0.0015 
52 1 1 -0.0898981 -0.0174708 -0.130472 0 0 0 -0.812789 0.0768082 -0.501916 0 0 -0.00160516 180.623 136.053 124.935 0.0025 
63 1 1 -0.0519482 -0.0179563 -0.126424 0 0 0 -0.485696 -0.0323985 -0.262973 0 0 -0.000346714 1.57595 -313.289 70.2679 0.0015 
53 1 1 -0.0569261 -0.0109447 -0.12858 0 0 0 -0.745327 -0.0231937 -0.317406 -7.45078e-05 0.00041703 -0.000549845 -51.3469 -265.203 -21.2509 0.0025 
121 1 1 -0.0537653 -0.0131647 -0.124075 0 0 0 -0.818457 -0.470085 0.107718 0 0 -0.000346714 489.767 -176.371 -153.239 0.0015 
65 1 1 -0.0549422 -0.00625084 -0.127923 0 0 0 -0.450681 -0.0736447 -0.192396 0 0 -0.00160516 61.0477 -36.8417 -16.6894 0.0025 
74 1 1 -0.0506759 -0.00576514 -0.127244 0 0 0 -0.433349 -0.32031 -0.205254 0 0 -0.000346714 257.192 -303.365 -56.2874 0.0015 
48 1 1 -0.102641 0.00554124 -0.130915 0 0 0 -0.926663 0.481481 -0.644457 0 0 -0.000346714 27.3203 136.186 -30.5113 0.0015 
27 1 1 -0.0578562 0.000367907 -0.129257 0 0 0 -0.530037 -0.158071 -0.218809 0 0 -0.00160516 74.6718 -223.266 -15.2247 0.0025 
75 1 1 -0.0767874 0.0170008 -0.1304 0 0 0 -0.876601 0.161005 -0.419739 0 0 -0.000346714 -6.95269 -344.761 118.502 0.0015 
54 1 1 -0.0588691 0.0176888 -0.128857 0 0 0 -0.700337 -0.132879 -0.297439 -0.000400043 -9.14243e-05 -0.00015658 57.9728 -303.723 -0.811917 0.0025 
70 1 1 -0.0560535 0.029243 -0.127203 0 0 0 -0.622237 -0.0607719 -0.260475 -8.44096e-05 -3.10349e-05 -3.86893e-05 78.6832 -439.173 -85.4986 0.0015 
34 1 1 -0.0649276 0.0367439 -0.129482 0 0 0 -0.773497 0.348033 -0.193815 0 0 -0.000346714 -133.606 -485.601 -311.792 0.0015 
41 1 1 -0.0856586 -0.0257073 -0.124507 0 0 0 -0.698503 -0.0541749 -0.427061 0 0 -0.00160516 -159.194 -215.037 5.0754 0.0025 
113 1 1 -0.0744993 -0.0204255 -0.128763 0 0 0 -1.00478 -0.0874557 -0.821333 0 0 -0.000346714 226.102 83.844 139.827 0.0015 
111 1 1 -0.0640684 -0.0123694 -0.123205 0 0 0 -0.731541 0.0594779 -0.128343 0 0 -0.000346714 30.7175 221.295 -96.1964 0.0015 
15 1 1 -0.0402373 -0.0084978 -0.121509 0 0 0 -0.460181 0.0531044 -0.215999 0 0 -0.00160516 -84.9193 -173.348 11.6987 0.0025 
85 1 1 -0.115788 -0.00895221 -0.126287 0 0 0 -1.70626 -0.770248 -0.462489 0 0 -0.000346714 -992.473 989.332 -382.051 0.0015 
95 1 1 -0.0405131 -0.00467487 -0.122896 0 0 0 -0.524098 0.0571165 -0.237743 0 0 -0.000346714 -44.593 -364.674 161.396 0.0015 
78 1 1 -0.0687574 0.00694134 -0.12554 0 0 0 -0.643754 0.250415 -0.359566 0 0 -0.00160516 -86.5528 -216.904 -44.3712 0.0025 
68 1 1 -0.0439389 0.0176065 -0.122606 0 0 0 -0.354058 0.0835454 -0.142615 -0.000280614 -3.19549e-05 -0.000319664 -35.3583 -154.394 -2.69665 0.0025 
92 1 1 -0.0484038 0.0193564 -0.12432 0 0 0 -0.3185 0.149899 -0.11849 -0.000433228 -0.000106645 -0.000145511 -45.3606 -133.974 -47.5151 0.0025 
79 1 1 -0.0694373 -0.0434919 -0.121902 0 0 0 -0.881514 -0.192444 -0.497334 0 0 -0.00160516 73.1144 -310.468 92.8732 0.0025 
137 1 1 -0.0423095 -0.0275137 -0.11493 0 0 0 -0.71424 0.318693 0.128687 0 0 -0.000346714 -165.637 -371.218 1.31049e-13 0.0015 
66 1 1 -0.0368256 -0.0139047 -0.119415 0 0 0 -0.395375 0.0322335 -0.126508 0 0 -0.00160516 -2.68238 -157.496 -9.23154 0.0025 
59 1 1 -0.0326785 -0.0145022 -0.119181 0 0 0 -0.496572 0.0193779 -0.216087 -8.91753e-05 2.14076e-05 -4.07195e-05 -22.9143 -360.209 20.3551 0.0015 
127 1 1 -0.0356061 -0.00998057 -0.120504 0 0 0 -0.37502 0.0194138 -0.30403 0 0 -0.000346714 -64.1116 -28.6528 -35.964 0.0015 
56 1 1 -0.077897 -0.00465765 -0.121168 0 0 0 -0.718805 0.16698 -0.464445 0 0 -0.000346714 -85.5854 -368.423 1.07912e-13 0.0015 
73 1 1 -0.0361983 -0.00506755 -0.121107 0 0 0 -0.577601 0.162485 -0.242462 -8.90189e-05 5.82631e-06 -3.14074e-05 -120.868 -416.609 8.75445 0.0015 
40 1 1 -0.0677427 0.00239995 -0.12343 0 0 0 -0.713952 0.262107 -0.655186 0 0 -0.00160516 -81.4948 -221.983 -4.47958e-14 0.0025 
57 1 1 -0.0768042 0.00132048 -0.123002 0 0 0 -0.802764 0.00350102 -0.642511 0 0 -0.000346714 70.7003 -235.156 135.467 0.0015 
90 1 1 -0.0339652 -0.000712604 -0.119224 0 0 0 -0.315423 -0.236767 -0.123442 -0.000275781 1.38897e-05 -0.000470987 96.6837 -136.152 14.201 0.0025 
93 1 1 -0.0399193 0.0140415 -0.120862 0 0 0 -0.413437 -0.230164 -0.23385 0 0 -0.00160516 70.1586 -169.249 64.7467 0.0025 
58 1 1 -0.0532989 0.0205568 -0.124241 0 0 0 -0.732551 0.0691425 -0.585152 0 0 -0.000346714 343.555 -320.49 5.41083 0.0015 
62 1 1 -0.0388761 0.0197625 -0.120804 0 0 0 -0.363095 -0.197913 -0.200833 0 0 -0.000346714 94.0857 -249.313 87.7484 0.0015 
108 1 1 -0.0541906 0.0219664 -0.117548 0 0 0 -0.690242 -0.328967 -0.176006 0 0 -0.000346714 185.692 -394.795 28.3963 0.0015 
82 1 1 -0.0451651 0.0324021 -0.12216 0 0 0 -0.633268 -0.083062 -0.276999 -8.48451e-05 -4.19895e-05 -4.08865e-05 -11.1114 -500.284 175.436 0.0015 
94 1 1 -0.0510819 0.0444653 -0.120756 0 0 0 -0.428937 0.20511 -0.121116 -0.00357083 -0.00240563 0.00495379 -53.528 -171.965 -86.0418 0.0025 
9 1 1 -0.0535542 0.0589897 -0.118396 0 0 0 -0.239893 0.247319 -0.00184092 -9.02681e-05 -8.46204e-05 -2.63782e-05 -190.944 -184.989 6.9427 0.0015 
138 1 1 -0.0420518 -0.0364603 -0.116765 0 0 0 -0.996472 -0.104532 -0.334277 0 0 -0.000346714 42.3857 -637.087 149.544 0.0015 
102 1 1 -0.0635858 -0.0164431 -0.114932 0 0 0 -0.730519 0.300783 -0.251982 0 0 -0.000346714 -155.835 -378.48 -1.58522e-13 0.0015 
149 1 1 -0.0294881 -0.0160822 -0.116372 0 0 0 -0.517796 -0.132811 -0.0207597 0 0 -0.000346714 79.1099 -307.201 77.9534 0.0015 
101 1 1 -0.0295011 -0.0090353 -0.116878 0 0 0 -0.569763 0.367421 -0.186851 0 0 -0.000346714 -204.674 -374.874 -117.893 0.0015 
107 1 1 -0.0563862 -0.00950795 -0.117128 0 0 0 -0.774177 -0.197611 -0.225636 0 0 -0.00160516 -26.4565 -264.988 -43.8101 0.0025 
104 1 1 -0.0400552 -0.010342 -0.115292 0 0 0 -0.758712 0.0523375 -0.0397704 0 0 -0.00160516 21.1445 -4.98565 31.0059 0.0025 
123 1 1 -0.0340496 -0.00896182 -0.118078 0 0 0 -0.574887 0.147702 -0.120146 0 0 -0.000346714 -118.283 -234.676 -80.3311 0.0015 
55 1 1 -0.0719934 -0.00388729 -0.120428 0 0 0 -0.706771 0.253408 -0.482552 0 0 -0.00160516 -76.8102 -219.699 -17.9608 0.0025 
128 1 1 -0.0420687 -0.00572443 -0.11637 0 0 0 -0.781943 -0.190592 -0.410086 0 0 -0.000346714 -492.37 36.2383 -159.473 0.0015 
112 1 1 -0.0235362 -0.00720673 -0.1138 0 0 0 -0.565848 -0.193949 -0.0972799 0 0 -0.000346714 144.022 -353.119 37.3301 0.0015 
46 1 1 -0.0741307 0.00127611 -0.120128 0 0 0 -0.743267 0.1987 -0.401783 0 0 -0.000346714 58.8912 -171.923 -2.54438 0.0015 
91 1 1 -0.0534911 -0.00414951 -0.112976 0 0 0 -0.601694 -0.177426 -0.110755 6.35237e-05 -0.000232831 -0.0024311 69.2468 -128.308 -136.254 0.0025 
114 1 1 -0.0366509 -0.00409285 -0.116894 0 0 0 -0.715372 -0.292737 -0.193601 0 0 -0.000346714 -168.257 -359.863 97.4845 0.0015 
110 1 1 -0.0224582 0.00452141 -0.114927 0 0 0 -0.538519 0.155748 -0.140733 0 0 -0.000346714 -195.469 -212.224 -115.953 0.0015 
98 1 1 -0.0561551 0.0115231 -0.117636 0 0 0 -0.591527 -0.13881 -0.219618 0 0 -0.000346714 70.2628 -305.698 33.5383 0.0015 
103 1 1 -0.0285232 0.0114904 -0.116513 0 0 0 -0.532656 0.0800331 -0.242899 -0.0116888 0.0224627 -0.0344337 10.4267 -209.046 -55.0731 0.0025 
77 1 1 -0.0456506 0.019994 -0.11662 0 0 0 -0.774182 -0.0820079 -0.15607 0 0 -0.00160516 -117.955 -11.1572 -67.4083 0.0025 
130 1 1 -0.0386354 0.0304726 -0.114399 0 0 0 -0.548073 0.164744 0.0143266 0 0 -0.00160516 -77.6487 -73.4843 -78.7592 0.0025 
140 1 1 -0.0418658 0.0356987 -0.113128 0 0 0 -0.722634 0.270636 0.142821 0 0 -0.000346714 260.994 -389.889 163.549 0.0015 
126 1 1 -0.0237313 -0.022959 -0.113713 0 0 0 -0.342877 0.386226 -0.265192 0 0 -0.000346714 -249.371 -223.108 -40.3557 0.0015 
117 1 1 -0.0237987 -0.0117788 -0.112615 0 0 0 -0.411494 -0.0231511 -0.251884 0 0 -0.00160516 18.8381 -92.1992 101.223 0.0025 
122 1 1 -0.0311429 -0.005889 -0.11101 0 0 0 -0.810261 0.00404358 -0.271407 0 0 -0.000346714 64.532 -319.055 -42.736 0.0015 
125 1 1 -0.0194833 -0.0103035 -0.108357 0 0 0 -0.372916 -0.0931425 0.211786 0 0 -0.000346714 70.1277 -66.9475 -92.3771 0.0015 
129 1 1 -0.0280986 -0.00421963 -0.108987 0 0 0 -0.786618 0.0121635 0.04413 0 0 -0.00160516 -85.0819 47.0231 -38.5406 0.0025 
83 1 1 -0.0442655 0.000233181 -0.114673 0 0 0 -0.62625 0.159735 -0.392671 0 0 -0.000346714 -80.7065 -336.668 -48.6138 0.0015 
81 1 1 -0.058468 0.00131342 -0.112605 0 0 0 -0.748691 -0.016841 -0.303615 0 0 -0.000346714 8.58772 -381.78 -1.52841e-14 0.0015 
87 1 1 -0.0606346 0.00338015 -0.114094 0 0 0 -0.758327 -0.153606 -0.293469 0 0 -0.000346714 39.1297 -322.296 -13.1889 0.0015 
64 1 1 -0.0584899 0.00595066 -0.112877 0 0 0 -0.71254 -0.00906028 -0.387826 0 0 -0.000346714 -16.4638 -306.665 -13.1889 0.0015 
67 1 1 -0.0377995 0.00711864 -0.110014 0 0 0 -0.715008 0.266425 -0.0754459 0 0 -0.00160516 -129.309 260.788 3.75851 0.0025 
132 1 1 -0.0197936 0.00621018 -0.112117 0 0 0 -0.537382 0.138603 -0.0386251 0 0 -0.00160516 -65.8077 -183.633 -5.26486 0.0025 
139 1 1 -0.0224007 0.0101014 -0.111908 0 0 0 -0.944089 0.147195 -0.144508 0 0 -0.000346714 232.714 -588.143 97.9806 0.0015 
109 1 1 -0.0154757 0.00687369 -0.112092 0 0 0 -0.466855 0.00620793 -0.141764 0 0 -0.000346714 -16.5612 -326.727 27.7343 0.0015 
116 1 1 -0.0356722 0.0147704 -0.117149 0 0 0 -0.839044 0.0889513 -0.54666 0 0 -0.00160516 101.831 -64.3633 17.5931 0.0025 
136 1 1 -0.0256897 0.0128249 -0.113906 0 0 0 -0.326755 0.0824372 -0.348777 0 0 -0.000346714 -136.653 445.261 -62.701 0.0015 
13 1 1 -0.0388608 0.0173458 -0.111615 0 0 0 -0.465096 0.0401318 -0.0967711 0 0 -0.00160516 -56.5 -40.2411 -43.7451 0.0025 
124 1 1 -0.0194644 0.0207673 -0.111979 0 0 0 -0.249718 -0.355936 -0.299063 0 0 -0.000346714 -13.3708 -736.021 -114.033 0.0015 
133 1 1 -0.0365544 0.028208 -0.110227 0 0 0 -0.751423 -0.139775 0.410688 0 0 -0.000346714 165.241 -151.591 -75.0859 0.0015 
86 1 1 -0.0295348 0.0473061 -0.112235 0 0 0 -0.155562 0.180071 -0.0139359 0 0 -0.000346714 -45.9408 -52.8691 -214.261 0.0015 
153 1 1 -0.0126886 -0.0216877 -0.106053 0 0 0 -0.73963 0.308277 0.0642281 0 0 -0.000346714 -188.383 -431.94 -6.38626 0.0015 
97 1 1 -0.0530425 -0.0199113 -0.109748 0 0 0 -0.703963 0.289634 -0.190707 0 0 -0.000346714 -148.318 -360.491 6.00689e-14 0.0015 
131 1 1 -0.0282459 -0.0202534 -0.106972 0 0 0 -0.697838 0.0433516 0.0583048 0 0 -0.00160516 -128.245 -158.403 34.4151 0.0025 
115 1 1 -0.0441477 -0.0148767 -0.108111 0 0 0 -0.704941 0.290036 -0.118893 0 0 -0.000346714 -148.193 -360.188 1.16897e-14 0.0015 
80 1 1 -0.0526245 -0.0132112 -0.108961 0 0 0 -0.699633 0.287853 -0.252315 0 0 -0.00160516 -89.5563 -217.669 2.17489e-14 0.0025 
106 1 1 -0.0256453 -0.016286 -0.110537 0 0 0 -0.518731 -0.0388463 -0.256564 0 0 -0.00160516 -69.8259 -153.022 -20.7395 0.0025 
146 1 1 -0.03431 -0.0203677 -0.115596 0 0 0 -0.0654311 -0.93704 -0.485108 0 0 -0.000346714 328.004 295.818 173.023 0.0015 
69 1 1 -0.052807 -0.00171502 -0.109896 0 0 0 -0.748514 0.0193503 -0.139329 -6.35237e-05 0.000232831 0.000479231 -157.621 -259.337 -40.7695 0.0015 
45 1 1 -0.0782101 -0.000477976 -0.102677 0 0 0 -0.806305 -0.42317 0.321361 0 0 -0.000346714 389.887 -152.585 -138.964 0.0015 
152 1 1 -0.0260985 0.00876185 -0.114963 0 0 0 -0.934732 0.154779 0.0275114 0.0188501 -0.0316164 0.0407309 -61.0943 -467.289 50.7231 0.0015 
143 1 1 -0.014633 0.00458581 -0.107502 0 0 0 -0.568531 -0.562166 0.0459459 0 0 -0.00160516 310.15 159.743 154.151 0.0025 
141 1 1 -0.01144 0.0156141 -0.108274 0 0 0 -0.434322 0.158737 -0.0500531 0 0 -0.000346714 -109.852 -250.189 -79.4219 0.0015 
148 1 1 -0.0138535 0.0190021 -0.105419 0 0 0 -0.735628 -0.171811 0.166147 0 0 -0.000346714 87.7239 -375.599 8.68426e-15 0.0015 
96 1 1 -0.0512559 0.0197751 -0.108178 0 0 0 -0.845457 -0.12801 -0.141966 0 0 -0.000346714 246.884 -254.322 -70.0386 0.0015 
61 1 1 -0.0127693 0.0464224 -0.105503 0 0 0 -0.0318564 0.330307 0.0147108 0 0 -0.000346714 -295.913 -31.9908 112.56 0.0015 
142 1 1 -0.0139221 -0.0223932 -0.097473 0 0 0 -0.797047 0.224474 0.592205 0 0 -0.00160516 155.386 290.25 21.657 0.0025 
120 1 1 -0.0326928 -0.0187266 -0.105032 0 0 0 -0.756959 0.0982943 -0.0113559 0 0 -0.00160516 -40.3372 -182.695 -16.5233 0.0025 
105 1 1 -0.0260875 -0.0139752 -0.106098 0 0 0 -0.53278 -0.202064 -0.471161 0 0 -0.00160516 -146.947 -258.459 -87.9433 0.0025 
118 1 1 -0.019776 -0.0102083 -0.101601 0 0 0 -0.730189 0.105817 0.0412323 0 0 -0.00160516 -32.7933 -226.29 -7.92876e-15 0.0025 
100 1 1 -0.0411108 -0.0068598 -0.105243 0 0 0 -0.579227 0.229689 -0.167168 0 0 -0.000346714 -212.708 -114.821 -170.59 0.0015 
144 1 1 -0.0236832 -0.00216215 -0.113998 0 0 0 -0.728842 -0.696646 -0.544724 0 0 -0.00160516 572.812 -117.689 244.936 0.0025 
89 1 1 -0.0489613 0.0199138 -0.101435 0 0 0 -0.5528 0.273197 0.196152 0 0 -0.000346714 -314.22 -140.985 -64.0011 0.0015 
99 1 1 -0.0399029 0.0158 -0.10519 0 0 0 -0.732365 -0.171049 -0.211222 0 0 -0.000346714 87.9167 -376.425 1.7442e-13 0.0015 
134 1 1 -0.0281833 0.017028 -0.100946 0 0 0 -0.378435 0.170477 0.175409 0 0 -0.000346714 -203.412 441.886 -62.7026 0.0015 
135 1 1 -0.0180041 0.0200693 -0.104185 0 0 0 -0.732486 -0.171077 0.101492 0 0 -0.000346714 88.3809 -378.412 1.11828e-13 0.0015 
151 1 1 -0.0119132 0.0245126 -0.103481 0 0 0 -0.730455 -0.170603 0.151278 0 0 -0.000346714 87.8954 -376.333 -1.05237e-14 0.0015 
119 1 1 -0.0215228 0.0232308 -0.101397 0 0 0 -0.712381 -0.32608 -0.0318937 0 0 -0.00160516 102.404 -223.72 9.36145e-14 0.0025 
147 1 1 -0.0171661 -0.0154038 -0.111155 0 0 0 -0.741121 0.138343 0.245954 0 0 -0.000346714 -71.6883 -384.044 1.7935e-13 0.0015 
154 1 1 -0.00971408 -0.0123572 -0.107435 0 0 0 -0.716414 0.128005 0.253532 0 0 -0.000346714 -65.4264 -366.178 -1.54887e-14 0.0015 
150 1 1 -0.0094121 -0.00542949 -0.107661 0 0 0 -0.737252 0.10684 0.237112 0 0 -0.000346714 -54.529 -376.277 5.92004e-14 0.0015 
155 1 1 -0.0216916 -0.0265386 -0.112302 0 0 0 -0.774491 0.318888 0.41614 -0.0643698 0.0265035 0.0366543 -103.105 -250.413 -8.91057e-14 0.0025 
145 1 1 -0.00548817 0.00411244 -0.104914 0 0 0 -0.717364 -0.0266495 0.260678 0 0 -0.00160516 8.19457 -220.585 -6.73245e-16 0.0025 
163 1 1 -0.0251386 0.0339743 -0.111879 0 0 0 0 0 -2.04354 0 0 -0.000346714 0 0 0 0.0015 
165 1 1 -0.0326006 -0.0344541 -0.104642 0 0 0 0 0 -2.00852 0 0 -0.000346714 0 0 0 0.0015 
160 1 1 -0.0238182 -0.0102506 -0.103776 0 0 0 -0.133296 -0.432734 -1.68016 0 0 -0.000346714 -346.547 293.094 10.5594 0.0015 
159 1 1 -0.0229207 0.0293808 -0.105831 0 0 0 0 0 -2.0143 0 0 -0.000346714 0 0 0 0.0015 
158 1 1 -0.0239272 -0.00729612 -0.10108 0 0 0 0.0284679 0.219708 -1.76831 0 0 -0.00160516 -1.13803 -30.9191 29.5376 0.0025 
157 1 1 -0.00372425 -0.00768845 -0.103626 0 0 0 0 0 -2.00351 0 0 -0.00160516 0 0 0 0.0025 
162 1 1 -0.00596878 0.00110293 -0.10065 0 0 0 0 0 -1.9889 0 0 -0.000346714 0 0 0 0.0015 
161 1 1 -0.0310811 0.0209557 -0.102143 0 0 0 0 0 -1.99625 0 0 -0.000346714 0 0 0 0.0015 
166 1 1 -0.0334498 0.0192376 -0.0982859 0 0 0 0 0 -1.97722 0 0 -0.000346714 0 0 0 0.0015 
175 1 1 -0.00243205 -0.0275788 -0.0933518 0 0 0 0 0 -1.9526 0 0 -0.000346714 0 0 0 0.0015 
176 1 1 -0.0260626 -0.0145959 -0.0947627 0 0 0 0 0 -1.95966 0 0 -0.000346714 0 0 0 0.0015 
173 1 1 -0.0280772 0.00199937 -0.0957261 0 0 0 0 0 -1.96447 0 0 -0.000346714 0 0 0 0.0015 
164 1 1 -0.0186593 0.0101406 -0.0960977 0 0 0 0 0 -1.96633 0 0 -0.000346714 0 0 0 0.0015 
156 1 1 -0.0192512 0.0203811 -0.0966275 0 0 0 0 0 -1.96898 0 0 -0.00160516 0 0 0 0.0025 
172 1 1 -0.0233162 -0.0257488 -0.0926513 0 0 0 0 0 -1.94907 0 0 -0.000346714 0 0 0 0.0015 
168 1 1 -0.0175477 0.0137467 -0.0910443 0 0 0 0 0 -1.94093 0 0 -0.00160516 0 0 0 0.0025 
170 1 1 -0.000114354 0.021065 -0.090402 0 0 0 0 0 -1.93769 0 0 -0.00160516 0 0 0 0.0025 
171 1 1 -0.0180071 -0.0127461 -0.0875024 0 0 0 0 0 -1.92297 0 0 -0.000346714 0 0 0 0.0015 
178 1 1 -0.0228627 0.00282045 -0.089432 0 0 0 0 0 -1.93278 0 0 -0.000346714 0 0 0 0.0015 
179 1 1 -0.0322154 -0.0246784 -0.0839264 0 0 0 0 0 -1.90463 0 0 -0.000346714 0 0 0 0.0015 
177 1 1 -0.01426 -0.0150654 -0.0825219 0 0 0 0 0 -1.89737 0 0 -0.000346714 0 0 0 0.0015 
167 1 1 -0.0273571 -0.0103215 -0.0832387 0 0 0 0 0 -1.9011 0 0 -0.00160516 0 0 0 0.0025 
174 1 1 -0.0341304 -0.00318577 -0.0810634 0 0 0 0 0 -1.88982 0 0 -0.000346714 0 0 0 0.0015 
169 1 1 -0.0234861 -0.0194352 -0.0753816 0 0 0 0 0 -1.86009 0 0 -0.00160516 0 0 0 0.0025 
185 1 1 -0.0184157 0.00363086 -0.0750494 0 0 0 0 0 -1.85833 0 0 -0.000346714 0 0 0 0.0015 
182 1 1 -0.00169906 -0.0346379 -0.0726522 0 0 0 0 0 -1.84567 0 0 -0.00160516 0 0 0 0.0025 
186 1 1 -0.0106048 -0.00789334 -0.0711476 0 0 0 0 0 -1.83763 0 0 -0.000346714 0 0 0 0.0015 
192 1 1 -0.00264988 -0.0095541 -0.0744524 0 0 0 0 0 -1.85519 0 0 -0.000346714 0 0 0 0.0015 
191 1 1 -0.0200733 -0.00130471 -0.073859 0 0 0 0 0 -1.85205 0 0 -0.000346714 0 0 0 0.0015 
180 1 1 -0.0258257 0.0147617 -0.071518 0 0 0 0 0 -1.83959 0 0 -0.00160516 0 0 0 0.0025 
184 1 1 -0.00526421 0.027503 -0.0714237 0 0 0 0 0 -1.8391 0 0 -0.000346714 0 0 0 0.0015 
183 1 1 -0.0107488 0.0329346 -0.068385 0 0 0 0 0 -1.82281 0 0 -0.00160516 0 0 0 0.0025 
181 1 1 -0.0264666 -0.025466 -0.066113 0 0 0 0 0 -1.81055 0 0 -0.00160516 0 0 0 0.0025 
190 1 1 -0.00998901 0.00893206 -0.0660017 0 0 0 0 0 -1.80996 0 0 -0.000346714 0 0 0 0.0015 
188 1 1 -0.0196577 -0.024903 -0.0623441 0 0 0 0 0 -1.79005 0 0 -0.000346714 0 0 0 0.0015 
187 1 1 -0.0249489 0.0269151 -0.0614745 0 0 0 0 0 -1.78524 0 0 -0.000346714 0 0 0 0.0015 
200 1 1 -0.0201644 -0.0275601 -0.0585436 0 0 0 0 0 -1.76905 0 0 -0.000346714 0 0 0 0.0015 
195 1 1 -0.00018665 -0.0192075 -0.0564099 0 0 0 0 0 -1.75718 0 0 -0.00160516 0 0 0 0.0025 
204 1 1 -0.0121862 -0.00588198 -0.0573915 0 0 0 0 0 -1.76268 0 0 -0.000346714 0 0 0 0.0015 
198 1 1 -0.0278654 0.00172744 -0.0565155 0 0 0 0 0 -1.75777 0 0 -0.000346714 0 0 0 0.0015 
189 1 1 -0.0134549 0.0182926 -0.0592989 0 0 0 0 0 -1.77327 0 0 -0.000346714 0 0 0 0.0015 
196 1 1 -0.0173269 -0.0294256 -0.0526879 0 0 0 0 0 -1.73629 0 0 -0.00160516 0 0 0 0.0025 
193 1 1 -0.0232114 -0.0230043 -0.0501963 0 0 0 0 0 -1.72216 0 0 -0.00160516 0 0 0 0.0025 
205 1 1 -0.00546888 -0.024539 -0.0524798 0 0 0 0 0 -1.73511 0 0 -0.000346714 0 0 0 0.0015 
197 1 1 -0.0244014 0.0243576 -0.0510595 0 0 0 0 0 -1.72707 0 0 -0.000346714 0 0 0 0.0015 
203 1 1 -0.0317899 0.0348276 -0.0514951 0 0 0 0 0 -1.72952 0 0 -0.000346714 0 0 0 0.0015 
201 1 1 -0.00148336 -0.00863773 -0.0480139 0 0 0 0 0 -1.7097 0 0 -0.000346714 0 0 0 0.0015 
202 1 1 -0.00237574 0.0349629 -0.0463587 0 0 0 0 0 -1.70019 0 0 -0.000346714 0 0 0 0.0015 
194 1 1 -0.0299737 -0.0249092 -0.0445281 0 0 0 0 0 -1.68959 0 0 -0.00160516 0 0 0 0.0025 
199 1 1 -0.0209901 0.00167617 -0.0449589 0 0 0 0 0 -1.69205 0 0 -0.000346714 0 0 0 0.0015 
212 1 1 -0.0118483 0.00949823 -0.0393256 0 0 0 0 0 -1.65908 0 0 -0.000346714 0 0 0 0.0015 
209 1 1 -0.00795 0.0273623 -0.0383676 0 0 0 0 0 -1.6534 0 0 -0.00160516 0 0 0 0.0025 
215 1 1 -0.0133438 0.0300767 -0.039902 0 0 0 0 0 -1.66252 0 0 -0.000346714 0 0 0 0.0015 
216 1 1 -0.00916175 0.0316192 -0.0396041 0 0 0 0 0 -1.66075 0 0 -0.000346714 0 0 0 0.0015 
218 1 1 -0.0116971 -0.0149443 -0.0347484 0 0 0 0 0 -1.63181 0 0 -0.000346714 0 0 0 0.0015 
217 1 1 -0.00525173 0.0148756 -0.0373715 0 0 0 0 0 -1.64751 0 0 -0.000346714 0 0 0 0.0015 
206 1 1 -0.0315415 -0.0266248 -0.0304152 0 0 0 0 0 -1.60552 0 0 -0.00160516 0 0 0 0.0025 
207 1 1 -0.014731 -0.00384992 -0.032042 0 0 0 0 0 -1.61543 0 0 -0.00160516 0 0 0 0.0025 
211 1 1 -0.0325497 0.0284222 -0.0331539 0 0 0 0 0 -1.6222 0 0 -0.000346714 0 0 0 0.0015 
214 1 1 -0.000147874 -0.0328927 -0.0271595 0 0 0 0 0 -1.58551 0 0 -0.000346714 0 0 0 0.0015 
213 1 1 -0.0258692 -0.0150214 -0.0276979 0 0 0 0 0 -1.58885 0 0 -0.000346714 0 0 0 0.0015 
208 1 1 -0.0313425 0.0167345 -0.0300258 0 0 0 0 0 -1.60317 0 0 -0.00160516 0 0 0 0.0025 
210 1 1 -0.0220067 0.0311963 -0.0300423 0 0 0 0 0 -1.60327 0 0 -0.00160516 0 0 0 0.0025 
223 1 1 -0.0141421 0.000627184 -0.0230078 0 0 0 0 0 -1.55961 0 0 -0.000346714 0 0 0 0.0015 
226 1 1 -0.0256746 -0.0295973 -0.0210767 0 0 0 0 0 -1.54745 0 0 -0.000346714 0 0 0 0.0015 
219 1 1 -0.0126988 -0.0187384 -0.0222623 0 0 0 0 0 -1.5549 0 0 -0.00160516 0 0 0 0.0025 
228 1 1 -0.0186146 -0.0100891 -0.0212045 0 0 0 0 0 -1.54823 0 0 -0.000346714 0 0 0 0.0015 
229 1 1 -0.0206785 0.0145985 -0.0198792 0 0 0 0 0 -1.5398 0 0 -0.000346714 0 0 0 0.0015 
227 1 1 -0.0125397 -0.025785 -0.0180326 0 0 0 0 0 -1.52802 0 0 -0.000346714 0 0 0 0.0015 
224 1 1 -0.0104339 -0.00964248 -0.0189511 0 0 0 0 0 -1.53391 0 0 -0.000346714 0 0 0 0.0015 
230 1 1 -0.0158011 0.0337207 -0.0175432 0 0 0 0 0 -1.52488 0 0 -0.000346714 0 0 0 0.0015 
225 1 1 -0.0349321 -0.00790873 -0.0116192 0 0 0 0 0 -1.48623 0 0 -0.000346714 0 0 0 0.0015 
240 1 1 -0.0114835 -0.0265679 -0.00937038 0 0 0 0 0 -1.47132 0 0 -0.000346714 0 0 0 0.0015 
231 1 1 -0.0172445 0.00368684 -0.00791191 0 0 0 0 0 -1.46161 0 0 -0.00160516 0 0 0 0.0025 
221 1 1 -0.03004 0.0154412 -0.0100637 0 0 0 0 0 -1.47593 0 0 -0.00160516 0 0 0 0.0025 
220 1 1 -0.0245784 0.0311922 -0.00923707 0 0 0 0 0 -1.47044 0 0 -0.00160516 0 0 0 0.0025 
222 1 1 -0.00133775 0.0319388 -0.00860536 0 0 0 0 0 -1.46622 0 0 -0.00160516 0 0 0 0.0025 
239 1 1 -0.004822 -0.0263713 -0.00653226 0 0 0 0 0 -1.45229 0 0 -0.000346714 0 0 0 0.0015 
232 1 1 -0.0305153 0.021925 -0.00613886 0 0 0 0 0 -1.44964 0 0 -0.00160516 0 0 0 0.0025 
236 1 1 -0.011765 -0.0317196 -0.00273614 0 0 0 0 0 -1.42639 0 0 -0.000346714 0 0 0 0.0015 
238 1 1 -0.00523715 -0.00399455 -0.00199177 0 0 0 0 0 -1.42129 0 0 -0.000346714 0 0 0 0.0015 
235 1 1 -0.00913613 0.0130219 -0.000352389 0 0 0 0 0 -1.40991 0 0 -0.000346714 0 0 0 0.0015 
237 1 1 -0.0276781 -0.0346784 0.00173164 0 0 0 0 0 -1.39539 0 0 -0.000346714 0 0 0 0.0015 
234 1 1 -0.00624641 -0.0254844 0.00142118 0 0 0 0 0 -1.39755 0 0 -0.00160516 0 0 0 0.0025 
242 1 1 -0.024936 0.00943572 0.000566167 0 0 0 0 0 -1.40353 0 0 -0.000346714 0 0 0 0.0015 
241 1 1 -0.0178674 0.023228 0.00112826 0 0 0 0 0 -1.39961 0 0 -0.000346714 0 0 0 0.0015 
243 1 1 -0.0312596 -0.0342874 0.00414447 0 0 0 0 0 -1.37832 0 0 -0.000346714 0 0 0 0.0015 
233 1 1 -0.0140583 -0.0235405 0.00420914 0 0 0 0 0 -1.37783 0 0 -0.00160516 0 0 0 0.0025 
247 1 1 -0.00778825 -0.017605 0.00589782 0 0 0 0 0 -1.36577 0 0 -0.00160516 0 0 0 0.0025 
249 1 1 -0.000908632 0.0183203 0.00628037 0 0 0 0 0 -1.36302 0 0 -0.000346714 0 0 0 0.0015 
255 1 1 -0.0103972 0.0260911 0.00529056 0 0 0 0 0 -1.37008 0 0 -0.000346714 0 0 0 0.0015 
254 1 1 -0.0334625 0.0326024 0.00678687 0 0 0 0 0 -1.35939 0 0 -0.000346714 0 0 0 0.0015 
256 1 1 -0.0202693 -0.0311084 0.00817573 0 0 0 0 0 -1.34929 0 0 -0.000346714 0 0 0 0.0015 
251 1 1 -0.0322818 -0.0136491 0.0098808 0 0 0 0 0 -1.33683 0 0 -0.000346714 0 0 0 0.0015 
250 1 1 -0.0242205 -0.0101411 0.00993533 0 0 0 0 0 -1.33643 0 0 -0.000346714 0 0 0 0.0015 
248 1 1 -0.00508252 -0.00729713 0.0075649 0 0 0 0 0 -1.3537 0 0 -0.000346714 0 0 0 0.0015 
246 1 1 -0.00133703 0.00391048 0.0110822 0 0 0 0 0 -1.328 0 0 -0.00160516 0 0 0 0.0025 
252 1 1 -0.0171169 0.0130299 0.00953068 0 0 0 0 0 -1.33938 0 0 -0.000346714 0 0 0 0.0015 
253 1 1 -0.0330193 -0.0287184 0.0135223 0 0 0 0 0 -1.30985 0 0 -0.000346714 0 0 0 0.0015 
245 1 1 -0.0327952 0.00273344 0.0146329 0 0 0 0 0 -1.30151 0 0 -0.00160516 0 0 0 0.0025 
244 1 1 -0.0304516 0.017575 0.0115727 0 0 0 0 0 -1.32437 0 0 -0.00160516 0 0 0 0.0025 
265 1 1 -0.0282211 -0.0123493 0.0182488 0 0 0 0 0 -1.27394 0 0 -0.000346714 0 0 0 0.0015 
267 1 1 -0.0169822 0.00918438 0.0199181 0 0 0 0 0 -1.261 0 0 -0.000346714 0 0 0 0.0015 
264 1 1 -0.0266383 0.0211746 0.0215949 0 0 0 0 0 -1.24795 0 0 -0.000346714 0 0 0 0.0015 
269 1 1 -0.0323156 0.0257586 0.019326 0 0 0 0 0 -1.26561 0 0 -0.000346714 0 0 0 0.0015 
262 1 1 -0.0242312 -0.0119118 0.0233056 0 0 0 0 0 -1.23441 0 0 -0.000346714 0 0 0 0.0015 