ITEM: TIMESTEP
52800
ITEM: NUMBER OF ATOMS
676
ITEM: BOX BOUNDS ff ff ff
-0.5 0.1
-0.2 0.2
-0.4 0.15
ITEM: ATOMS id type type x y z ix iy iz vx vy vz fx fy fz omegax omegay omegaz radius 
30 1 1 -0.485924 -0.00846248 -0.37679 0 0 0 -1.38706 0.0524024 -1.73974 0 0 -0.00160516 -39.2856 -605.929 42.5201 0.0025 
36 1 1 -0.467656 -0.00238805 -0.368745 0 0 0 -1.32658 0.106776 -1.70331 0 0 -0.000346714 -96.2795 -964.526 43.0852 0.0015 
31 1 1 -0.483748 0.0292967 -0.366808 0 0 0 -1.40414 -0.00459657 -1.68988 0 0 -0.000346714 89.1678 -989.387 -210.392 0.0015 
11 1 1 -0.47559 0.00259035 -0.361838 0 0 0 -1.3897 0.119676 -1.63321 0 0 -0.000346714 -132.585 -988.781 116.991 0.0015 
2 1 1 -0.455964 0.0106588 -0.349416 0 0 0 -1.28962 0.020121 -1.56002 0 0 -0.00160516 -12.7174 -562.33 8.67378 0.0025 
4 1 1 -0.447059 -0.00545899 -0.335295 0 0 0 -1.31354 0.0369665 -1.46508 0 0 -0.00160516 -9.29632 -567.073 -15.9392 0.0025 
72 1 1 -0.484406 -0.0516715 -0.334705 0 0 0 -1.3828 0.142112 -1.6267 0 0 -0.000346714 -248.697 -830.908 528.372 0.0015 
12 1 1 -0.451003 0.0299378 -0.333595 0 0 0 -1.33776 -0.03241 -1.48372 0 0 -0.000346714 127.202 -925.05 -251.424 0.0015 
17 1 1 -0.440942 0.0286222 -0.329089 0 0 0 -1.25378 0.0156372 -1.42388 0 0 -0.000346714 60.9242 -886.665 -178.752 0.0015 
18 1 1 -0.431129 0.0163298 -0.326046 0 0 0 -1.20449 -0.00308704 -1.38981 0 0 -0.000346714 -37.6135 -903.718 92.424 0.0015 
21 1 1 -0.423559 -0.00693959 -0.316431 0 0 0 -1.22066 0.000988222 -1.30897 0 0 -0.000346714 49.6369 -887.668 -122.725 0.0015 
5 1 1 -0.428834 0.0247125 -0.318187 0 0 0 -1.22063 -0.0258608 -1.34296 0 0 -0.000346714 40.8132 -862.41 -69.636 0.0015 
24 1 1 -0.426372 0.0287694 -0.314015 0 0 0 -1.22383 0.0186497 -1.30873 0 0 -0.000346714 14.4092 -872.264 -80.6741 0.0015 
26 1 1 -0.435661 0.0389614 -0.313197 0 0 0 -1.32747 0.0425561 -1.34218 0 0 -0.00160516 -32.6902 -612.822 29.8485 0.0025 
8 1 1 -0.415621 -0.000665103 -0.308608 0 0 0 -1.26137 -0.0314132 -1.26397 0 0 -0.000346714 76.1638 -907.335 -125.055 0.0015 
6 1 1 -0.415758 0.0055178 -0.30869 0 0 0 -1.25132 -0.010251 -1.26396 0 0 -0.000346714 -33.5802 -913.941 95.5313 0.0015 
20 1 1 -0.419258 0.0180419 -0.311187 0 0 0 -1.23169 0.0317857 -1.28124 0 0 -0.000346714 -11.9006 -900.031 -28.6026 0.0015 
3 1 1 -0.425675 0.0224237 -0.30996 0 0 0 -1.31764 -0.0929644 -1.3242 0 0 -0.00160516 76.4224 -569.127 -84.3997 0.0025 
79 1 1 -0.424709 -0.0102544 -0.308256 0 0 0 -1.378 0.30525 -1.34722 0 0 -0.00160516 -176.122 -587.899 99.1921 0.0025 
32 1 1 -0.415797 0.0123683 -0.306512 0 0 0 -1.29113 -0.0028421 -1.25643 0 0 -0.000346714 20.8681 -933.198 -44.7153 0.0015 
22 1 1 -0.412879 -0.00117037 -0.304323 0 0 0 -1.26492 -0.0120562 -1.22117 0 0 -0.000346714 1.49463 -913.023 19.2065 0.0015 
16 1 1 -0.412941 0.0120387 -0.302697 0 0 0 -1.29763 -0.0177613 -1.2401 0 0 -0.00160516 57.8637 -529.809 -129.785 0.0025 
37 1 1 -0.417073 0.0273055 -0.302616 0 0 0 -1.28576 -0.0207153 -1.24234 0 0 -0.000346714 30.0417 -959.45 -37.3227 0.0015 
71 1 1 -0.401929 0.00478859 -0.300429 0 0 0 -1.14829 -0.0635083 -1.19041 0 0 -0.000346714 72.3421 -824.369 -110.69 0.0015 
75 1 1 -0.407069 0.00645328 -0.298002 0 0 0 -1.26362 -0.123618 -1.17801 0 0 -0.000346714 63.747 -912.826 47.474 0.0015 
48 1 1 -0.42055 0.0398389 -0.29938 0 0 0 -1.23544 -0.0884536 -1.26184 0 0 -0.000346714 151.646 -872.326 -212.38 0.0015 
14 1 1 -0.408727 -0.0219122 -0.294664 0 0 0 -1.28167 -0.0139118 -1.16232 0 0 -0.00160516 8.61766 -562.419 -4.83414 0.0025 
23 1 1 -0.406082 -0.010928 -0.296077 0 0 0 -1.23895 0.0445033 -1.1455 0 0 -0.000346714 -47.7125 -887.95 34.9517 0.0015 
35 1 1 -0.403425 -0.00888454 -0.294278 0 0 0 -1.23142 0.0450788 -1.12743 0 0 -0.000346714 -69.7978 -876.085 94.5709 0.0015 
57 1 1 -0.404087 0.0174756 -0.296087 0 0 0 -1.26408 0.111304 -1.16266 0 0 -0.000346714 -100.896 -920.057 46.3585 0.0015 
51 1 1 -0.415401 0.0421194 -0.294255 0 0 0 -1.21526 -0.0745945 -1.22054 0 0 -0.000346714 131.495 -873.56 -184.238 0.0015 
138 1 1 -0.40781 -0.0326957 -0.291716 0 0 0 -1.28577 -0.0975923 -1.15198 0 0 -0.000346714 175.539 -861.909 106.915 0.0015 
42 1 1 -0.397129 -0.00921972 -0.28869 0 0 0 -1.33211 -0.2013 -1.12755 0 0 -0.00160516 109.87 -576.939 -51.5609 0.0025 
10 1 1 -0.379205 -0.0069367 -0.278994 0 0 0 -1.08588 0.0255981 -1.04989 0 0 -0.000346714 8.62949 -715.818 131.799 0.0015 
113 1 1 -0.38317 0.0121407 -0.278593 0 0 0 -1.25852 0.167329 -0.998142 0 0 -0.000346714 -194.603 -924.024 170.121 0.0015 
52 1 1 -0.380175 -0.00835505 -0.274274 0 0 0 -1.22838 0.0816529 -0.937999 0 0 -0.00160516 -60.2016 -512.405 63.3718 0.0025 
76 1 1 -0.37634 -0.00703685 -0.275743 0 0 0 -1.09231 -0.13439 -0.924268 0 0 -0.000346714 92.8442 -788.275 14.2557 0.0015 
56 1 1 -0.378016 0.00919706 -0.274869 0 0 0 -1.24774 0.0347759 -0.964912 0 0 -0.000346714 -69.6708 -911.978 103.154 0.0015 
50 1 1 -0.372637 -0.00227627 -0.270579 0 0 0 -1.22769 0.0717969 -0.905125 0 0 -0.000346714 -20.5329 -889.797 -76.0856 0.0015 
28 1 1 -0.376467 0.00528292 -0.272972 0 0 0 -1.24819 0.014326 -0.963766 0 0 -0.00160516 -59.8863 -541.768 76.586 0.0025 
49 1 1 -0.374624 0.00920543 -0.271816 0 0 0 -1.21594 0.0273208 -0.884859 0 0 -0.000346714 -2.95137 -858.897 -124.859 0.0015 
96 1 1 -0.371243 0.00825789 -0.270489 0 0 0 -1.19581 0.0233573 -0.906981 0 0 -0.000346714 98.111 -850.536 -269.484 0.0015 
55 1 1 -0.382972 0.0243277 -0.274164 0 0 0 -1.28302 -0.0540228 -1.01708 0 0 -0.00160516 4.0714 -561.937 -9.01532 0.0025 
41 1 1 -0.37053 -0.00943854 -0.267258 0 0 0 -1.21901 0.141039 -0.889707 0 0 -0.00160516 -90.0438 -515.039 74.5683 0.0025 
46 1 1 -0.371317 0.0199644 -0.267635 0 0 0 -1.25892 -0.0445232 -0.913034 0 0 -0.000346714 58.0925 -913.663 -61.0714 0.0015 
78 1 1 -0.379928 0.0264441 -0.269206 0 0 0 -1.28145 -0.0805766 -0.952652 0 0 -0.00160516 53.9726 -553.987 -53.888 0.0025 
34 1 1 -0.386343 0.0336767 -0.271431 0 0 0 -1.27769 -0.328934 -1.10535 0 0 -0.000346714 373.273 -846.183 -313.119 0.0015 
107 1 1 -0.364938 -0.0110376 -0.263781 0 0 0 -1.20273 0.108717 -0.869703 0 0 -0.00160516 -56.9293 -506.666 -9.08631 0.0025 
25 1 1 -0.361727 0.00494434 -0.263367 0 0 0 -1.24851 0.0261982 -0.83828 0 0 -0.000346714 -60.0562 -912.014 95.3081 0.0015 
19 1 1 -0.358726 0.00642595 -0.262919 0 0 0 -1.20978 0.000488063 -0.85606 0 0 -0.000346714 5.80892 -834.78 -69.1373 0.0015 
174 1 1 -0.38685 -0.0477091 -0.260541 0 0 0 -1.38865 0.146671 -0.985844 0 0 -0.000346714 -250.031 -903.892 387.194 0.0015 
60 1 1 -0.361913 -0.00903844 -0.261799 0 0 0 -1.2223 0.0893583 -0.716148 0 0 -0.000346714 -56.6924 -815.658 -85.2318 0.0015 
40 1 1 -0.366205 0.0266651 -0.260626 0 0 0 -1.26232 -0.0794454 -0.868265 0 0 -0.00160516 24.5492 -581.951 25.5622 0.0025 
111 1 1 -0.349137 -0.00768711 -0.254916 0 0 0 -1.25302 0.0696824 -0.733071 0 0 -0.000346714 -85.679 -900.298 85.1638 0.0015 
39 1 1 -0.354704 -0.0045153 -0.257254 0 0 0 -1.21561 0.0585228 -0.756222 0 0 -0.00160516 -19.8868 -526.821 -12.8098 0.0025 
1 1 1 -0.345719 -0.00841698 -0.251514 0 0 0 -1.25756 0.0823184 -0.692233 0 0 -0.00160516 -80.3433 -534.057 111.987 0.0025 
102 1 1 -0.359759 0.0389394 -0.252191 0 0 0 -1.25929 -0.0282837 -0.766692 0 0 -0.000346714 57.9866 -954.03 -94.2035 0.0015 
7 1 1 -0.344221 -0.0247245 -0.249974 0 0 0 -1.01188 0.396983 -0.744514 0 0 -0.000346714 -433.814 -624.856 371.752 0.0015 
129 1 1 -0.338281 0.0118156 -0.248019 0 0 0 -1.0715 -0.0529995 -0.599909 0 0 -0.00160516 59.257 -278.556 -70.1664 0.0025 
120 1 1 -0.3715 -0.013086 -0.246593 0 0 0 -1.46795 -0.0787227 -0.7724 0 0 -0.00160516 68.5391 360.736 -3.49879 0.0025 
29 1 1 -0.331691 0.00184489 -0.245115 0 0 0 -1.2138 -0.0533211 -0.593228 0 0 -0.00160516 37.3982 -526.679 -33.1236 0.0025 
81 1 1 -0.331403 0.00801088 -0.245714 0 0 0 -1.13802 0.0508109 -0.557956 0 0 -0.000346714 -22.8756 -823.707 -33.2889 0.0015 
33 1 1 -0.328227 0.00686328 -0.244265 0 0 0 -1.12188 -0.0227924 -0.537605 -0.000779006 -0.00229207 -0.00241543 43.5867 -802.387 -96.7817 0.0015 
70 1 1 -0.327012 0.00949809 -0.243517 0 0 0 -1.19819 -0.0323405 -0.540108 0.000779006 0.00229207 0.001722 53.4094 -858.126 -92.237 0.0015 
114 1 1 -0.327469 -0.025822 -0.240955 0 0 0 -1.29154 0.138004 -0.657281 0 0 -0.000346714 -177.256 -902.318 191.707 0.0015 
87 1 1 -0.327525 -0.0217144 -0.242174 0 0 0 -1.14688 0.112103 -0.640384 0 0 -0.000346714 -95.6221 -653.381 131.349 0.0015 
82 1 1 -0.32123 0.018527 -0.239693 0 0 0 -1.22919 -0.0721926 -0.528248 -8.62587e-05 -4.0277e-05 -4.15552e-05 -29.7811 -941.717 197.996 0.0015 
69 1 1 -0.331549 0.0279806 -0.241975 0 0 0 -1.15688 0.0501623 -0.521041 0 0 -0.000346714 4.34776 -838.832 -104.978 0.0015 
45 1 1 -0.335186 -0.0435935 -0.236669 0 0 0 -1.03471 0.341643 -0.620388 0 0 -0.000346714 -276.055 -792.101 37.7484 0.0015 
171 1 1 -0.321381 -0.0244832 -0.238353 0 0 0 -1.19072 0.0900565 -0.526103 0 0 -0.000346714 -20.8638 -869.319 -74.2511 0.0015 
27 1 1 -0.324875 -0.022631 -0.238999 0 0 0 -1.22138 0.0677168 -0.484772 0 0 -0.00160516 -2.99417 -474.149 -2.65371 0.0025 
53 1 1 -0.312164 0.00308731 -0.236495 0 0 0 -1.11306 0.00477138 -0.467906 -0.000422946 -6.42682e-05 -0.000153246 -17.9047 -486.561 37.6047 0.0025 
152 1 1 -0.315591 0.00527274 -0.238885 0 0 0 -1.15581 -0.0563818 -0.490557 -6.76623e-05 -1.17912e-05 -8.88785e-05 0.143388 -844.105 96.5969 0.0015 
99 1 1 -0.313005 0.0125699 -0.237338 0 0 0 -1.02233 -0.12888 -0.438475 -9.04851e-05 -1.35228e-05 -3.13281e-05 121.539 -736.922 -66.7871 0.0015 
105 1 1 -0.313798 -0.0224287 -0.234832 0 0 0 -1.3027 0.119213 -0.58365 0 0 -0.00160516 -46.2995 -587.69 -12.9091 0.0025 
98 1 1 -0.309489 -0.0183814 -0.234924 0 0 0 -1.21386 -0.0028211 -0.473926 0 0 -0.000346714 -19.5085 -867.116 57.3869 0.0015 
164 1 1 -0.305148 -0.00705284 -0.234561 0 0 0 -0.922572 -0.174923 -0.382798 2.30675e-05 9.93277e-06 8.71811e-06 170.882 234.792 -97.595 0.0015 
104 1 1 -0.30375 -0.00140816 -0.233086 0 0 0 -1.20225 0.0491631 -0.509216 -0.000403519 3.32603e-05 -0.000191194 -41.6181 -520.969 47.9595 0.0025 
108 1 1 -0.300755 0.00455347 -0.232679 0 0 0 -1.12538 -0.0119651 -0.475717 -9.32044e-05 -1.39597e-05 -2.81529e-05 47.8241 -810.292 -92.7491 0.0015 
44 1 1 -0.306945 0.00778171 -0.235086 0 0 0 -1.16708 0.00539463 -0.49131 -8.56108e-05 -1.25998e-05 -4.9214e-05 6.11662 -844.639 -23.8186 0.0015 
58 1 1 -0.300776 0.010125 -0.232334 0 0 0 -1.03453 -0.034555 -0.438813 -9.29674e-05 -1.39643e-05 -2.8464e-05 28.3835 -749.784 -7.87327 0.0015 
115 1 1 -0.302829 0.0130462 -0.233015 0 0 0 -0.943759 -0.0451851 -0.401218 -8.89283e-05 -1.33665e-05 -3.68303e-05 43.8171 -682.789 -26.1724 0.0015 
88 1 1 -0.30195 0.0167863 -0.231981 0 0 0 -0.983216 0.0103901 -0.408381 -8.34231e-05 -3.88727e-05 -4.77688e-05 -2.81353 -719.786 -11.546 0.0015 
140 1 1 -0.307772 0.0224218 -0.233314 0 0 0 -1.14141 -0.143188 -0.504338 -8.51795e-05 -3.97343e-05 -4.35431e-05 89.7898 -845.388 36.8041 0.0015 
43 1 1 -0.324902 0.0413073 -0.233894 0 0 0 -1.08331 -0.0760786 -0.457796 -6.71594e-05 -9.13438e-05 -7.39327e-05 164.943 -720.311 -270.613 0.0015 
137 1 1 -0.320731 0.0392737 -0.233355 0 0 0 -1.26032 0.0173411 -0.476498 -0.000172033 -0.000263665 0.000139815 3.13652 -982.079 -41.9489 0.0015 
133 1 1 -0.304181 -0.0350526 -0.228156 0 0 0 -0.827307 -0.115865 -0.297483 0 0 -0.000346714 36.6386 -570.112 141.266 0.0015 
165 1 1 -0.305378 -0.0276983 -0.231039 0 0 0 -1.1159 0.0963348 -0.481334 0 0 -0.000346714 -94.7112 -795.522 69.4982 0.0015 
84 1 1 -0.29587 -0.0214422 -0.228648 0 0 0 -1.11824 0.0104921 -0.447095 2.09849e-05 -9.58092e-06 1.83653e-05 -34.6892 -802.631 68.5347 0.0015 
63 1 1 -0.291268 -8.97936e-05 -0.228946 0 0 0 -1.03428 0.0437179 -0.438121 -8.90697e-05 7.19839e-06 -3.67223e-05 4.14153 -752.101 -84.8245 0.0015 
91 1 1 -0.295961 0.00432348 -0.229587 0 0 0 -1.19272 0.0444427 -0.499855 -0.000416235 -6.25931e-05 -0.000159962 14.7537 -513.871 -80.8915 0.0025 
77 1 1 -0.305689 0.0190488 -0.232003 0 0 0 -1.11754 -0.137724 -0.493085 -0.000419498 -0.000193678 -0.000138317 46.5237 -499.084 33.9855 0.0025 
139 1 1 -0.304483 0.03063 -0.229772 0 0 0 -1.11674 -0.0924554 -0.480095 0 0 -0.000346714 37.273 -850.425 75.6634 0.0015 
64 1 1 -0.307231 0.0316396 -0.23059 0 0 0 -1.10635 -0.0142169 -0.457874 7.19128e-05 -0.000187963 0.000485834 102.225 -746.414 -227.672 0.0015 
122 1 1 -0.292063 -0.0256845 -0.226134 0 0 0 -1.16161 0.0724282 -0.484994 0 0 -0.000346714 -76.8083 -841.918 63.0204 0.0015 
166 1 1 -0.28731 -0.00437592 -0.227124 0 0 0 -1.14502 -0.00171549 -0.480298 0 0 -0.000346714 -1.77104 -799.714 -13.1759 0.0015 
97 1 1 -0.290941 -0.00339187 -0.228687 0 0 0 -1.10696 -0.0135451 -0.458105 0 0 -0.000346714 18.06 -798.324 -18.6108 0.0015 
135 1 1 -0.288261 0.0163691 -0.226367 0 0 0 -1.18646 -0.0850513 -0.496119 0 0 -0.000346714 101.393 -847.516 -97.6349 0.0015 
80 1 1 -0.294276 0.0188922 -0.227272 0 0 0 -1.05847 0.0005904 -0.444118 -0.000380045 -0.000199893 3.92356e-06 12.7399 -460.83 -30.5306 0.0025 
83 1 1 -0.289914 0.0232718 -0.225759 0 0 0 -1.03096 0.0388491 -0.412908 -8.88815e-05 -4.04347e-05 -3.09803e-05 -36.3046 -757.12 19.4007 0.0015 
149 1 1 -0.287802 -0.0308028 -0.222891 0 0 0 -1.14135 0.0387911 -0.419082 0 0 -0.000346714 -40.8362 -820.03 104.463 0.0015 
117 1 1 -0.288509 -0.0268532 -0.223264 0 0 0 -1.18118 0.0723836 -0.519501 0 0 -0.00160516 -30.2886 -484.695 87.8818 0.0025 
66 1 1 -0.281635 -0.0181135 -0.222293 0 0 0 -1.137 0.0976337 -0.492829 -0.000370911 0.000165047 -0.000269174 -64.3204 -490.9 51.1551 0.0025 
128 1 1 -0.276 -0.0071985 -0.222263 0 0 0 -1.09968 0.0628991 -0.461866 4.03693e-07 8.4175e-07 -0.000339667 -28.5915 -796.716 -40.219 0.0015 
103 1 1 -0.284237 -0.00334511 -0.22477 0 0 0 -1.12063 -0.0557554 -0.470415 0 0 -0.00160516 19.0253 -480.713 11.4545 0.0025 
116 1 1 -0.280541 0.000976135 -0.2233 0 0 0 -1.05877 -0.0900556 -0.450977 -0.000370066 -5.53028e-05 -0.000311531 37.1711 -460.86 4.72191 0.0025 
54 1 1 -0.276859 0.0108715 -0.221184 0 0 0 -0.984198 -0.034286 -0.407716 -0.000406373 -5.51239e-05 -0.000186983 30.5895 -424.576 -38.1108 0.0025 
93 1 1 -0.27005 -0.0141932 -0.217982 0 0 0 -1.06038 -0.0218096 -0.445086 -0.000468592 0.000123934 -7.74236e-05 -5.64678 -459.218 35.9688 0.0025 
203 1 1 -0.271054 -0.00938731 -0.220024 0 0 0 -1.04539 -0.00891091 -0.436307 -8.41818e-05 2.17581e-05 -4.50506e-05 -41.6469 -747.143 115.051 0.0015 
100 1 1 -0.272567 -0.00501058 -0.220895 0 0 0 -1.09973 -0.0986763 -0.456186 -0.000115816 1.99556e-05 5.08924e-05 88.9645 -796.828 -42.0031 0.0015 
13 1 1 -0.270021 -0.000538982 -0.21889 0 0 0 -1.01345 -0.0994254 -0.423756 -0.000264238 2.40222e-05 -0.000403839 62.6425 -441.831 -46.4215 0.0025 
110 1 1 -0.270338 0.00367257 -0.219934 0 0 0 -0.863014 -0.0165726 -0.368224 2.25356e-05 -1.00462e-05 1.8759e-05 -14.2985 -118.639 16.9359 0.0015 
185 1 1 -0.269603 0.00896348 -0.219345 0 0 0 -1.12229 -0.0375789 -0.469112 7.66354e-05 -2.05544e-05 -0.000509175 11.1172 -813.435 38.9538 0.0015 
62 1 1 -0.271048 0.0148637 -0.219354 0 0 0 -1.14025 -0.0240007 -0.464411 -0.000120381 -4.37506e-05 -2.7972e-05 38.385 -821.468 -52.3779 0.0015 
94 1 1 -0.281949 0.0208663 -0.221767 0 0 0 -1.12549 -0.3407 -0.538246 0 0 -0.00160516 188.901 -476.799 -94.335 0.0025 
121 1 1 -0.315663 -0.0621054 -0.216598 0 0 0 -1.03015 0.352672 -0.604638 0 0 -0.000346714 -305.562 -951.333 -10.5971 0.0015 
74 1 1 -0.286086 -0.043788 -0.217412 0 0 0 -1.11013 0.179019 -0.518657 0 0 -0.000346714 -115.719 -853.722 -38.4836 0.0015 
106 1 1 -0.278029 -0.0280787 -0.218653 0 0 0 -1.18945 0.173323 -0.537578 0 0 -0.00160516 -97.6599 -512.957 54.2665 0.0025 
112 1 1 -0.268758 -0.0291443 -0.215594 0 0 0 -1.03414 0.0846013 -0.430198 0 0 -0.000346714 -148.325 -700.511 221.854 0.0015 
159 1 1 -0.265615 -0.0255248 -0.215279 0 0 0 -0.96267 0.0662623 -0.433292 -6.61215e-05 2.93795e-05 -0.00013961 -24.8658 -727.171 -54.9127 0.0015 
187 1 1 -0.263464 -0.00177795 -0.217172 0 0 0 -0.861999 0.19869 -0.369405 1.72125e-05 6.00136e-05 2.88153e-06 -252.021 -204.534 -92.7696 0.0015 
169 1 1 -0.258394 -0.000136111 -0.213969 0 0 0 -0.863321 0.0944392 -0.351856 0.000744146 -0.000218303 -0.00233499 -53.0099 -363.377 48.8618 0.0025 
158 1 1 -0.265736 0.00809514 -0.216687 0 0 0 -1.10835 -0.0411221 -0.466552 -0.000381754 -4.58436e-05 -0.00020207 32.0302 -479.847 -33.8242 0.0025 
68 1 1 -0.260626 0.00793483 -0.214536 0 0 0 -1.09005 -0.083876 -0.464703 0 0 -0.00160516 50.6474 -471.544 -33.8862 0.0025 
243 1 1 -0.260419 -0.0196268 -0.214192 0 0 0 -1.06916 0.170468 -0.481738 0 0 -0.000346714 -172.366 -749.434 127.887 0.0015 
65 1 1 -0.255098 -0.00336539 -0.212038 0 0 0 -0.933342 -0.0149613 -0.391925 0 0 -0.00160516 77.4559 -261.63 -53.4784 0.0025 
163 1 1 -0.252511 0.000306683 -0.21254 0 0 0 -0.981509 0.0423114 -0.415885 -9.08695e-05 -8.90782e-06 -3.35891e-05 -1.51118 -709.161 -68.5843 0.0015 
95 1 1 -0.248313 -4.83486e-05 -0.210769 0 0 0 -0.987019 0.0479348 -0.419648 -0.00026279 -2.44829e-05 0.000391951 -68.9243 -721.346 80.0475 0.0015 
151 1 1 -0.250467 0.00230845 -0.211587 0 0 0 -1.00688 -0.0749997 -0.431011 -4.22481e-05 -3.52532e-06 -0.000149307 110.687 -724.572 -132.363 0.0015 
172 1 1 -0.257183 0.0058201 -0.21394 0 0 0 -0.839889 0.182801 -0.435702 0 0 -0.000346714 -259.091 -524.647 53.1301 0.0015 
190 1 1 -0.257525 0.0155808 -0.21356 0 0 0 -1.15358 0.068181 -0.477239 2.58101e-05 -4.58844e-05 3.70174e-05 -79.1391 -444.962 55.7713 0.0015 
196 1 1 -0.257843 0.0229183 -0.211481 0 0 0 -1.07734 0.045226 -0.449538 -0.000146396 -4.52774e-05 -0.000701359 -9.08259 -468.705 -25.369 0.0025 
130 1 1 -0.266119 0.0241145 -0.214743 0 0 0 -1.09619 -0.267905 -0.48589 -0.00209547 -0.000500066 0.00214762 154.903 -466.683 -91.9317 0.0025 
233 1 1 -0.254858 -0.028915 -0.20882 0 0 0 -1.08055 0.0615994 -0.491752 -0.00200939 0.00128725 0.0186716 -65.6555 -457.219 93.4079 0.0025 
15 1 1 -0.24271 -0.0144217 -0.206454 0 0 0 -0.627087 -0.00901888 -0.24721 0.000773168 0.00154242 0.0070776 -39.8926 -118.564 65.2923 0.0025 
131 1 1 -0.250346 -0.00405735 -0.210364 0 0 0 -0.929848 0.0434294 -0.395487 0 0 -0.00160516 -24.5392 -381.601 17.0597 0.0025 
153 1 1 -0.242363 0.00197201 -0.208172 0 0 0 -0.773956 -0.0692119 -0.331803 2.20347e-05 -1.44802e-05 1.02686e-05 -20.1303 -332.607 179.585 0.0015 
148 1 1 -0.246249 0.00916562 -0.209534 0 0 0 -1.16162 -0.134167 -0.491396 -8.05489e-05 -7.44495e-06 -5.38659e-05 48.1406 -844.972 116.911 0.0015 
269 1 1 -0.251684 0.0146292 -0.211242 0 0 0 -1.21245 -0.0844334 -0.513804 -3.37823e-05 -8.78118e-06 -0.00020974 180.116 -840.711 -285.944 0.0015 
92 1 1 -0.25052 0.0226455 -0.208474 0 0 0 -0.966248 -0.051923 -0.408828 -0.000245548 -8.70935e-05 -0.000560696 56.092 -410.638 -80.4231 0.0025 
67 1 1 -0.252616 0.0290614 -0.207728 0 0 0 -0.947619 -0.184852 -0.371613 0 0 -0.00160516 78.3446 -385.875 -6.03611 0.0025 
199 1 1 -0.255693 0.0306012 -0.209784 0 0 0 -0.97014 -0.181449 -0.411624 0 0 -0.000346714 215.587 -558.127 -85.1107 0.0015 
173 1 1 -0.254593 0.0355214 -0.208015 0 0 0 -0.875813 -0.177686 -0.412276 -0.000429792 -0.000290038 0.000778822 167.098 -630.194 -82.6089 0.0015 
204 1 1 -0.261996 0.0447622 -0.207339 0 0 0 -0.857628 -0.0196976 -0.362644 0 0 -0.000346714 80.7927 -559.543 -161.015 0.0015 
89 1 1 -0.265414 0.0453273 -0.208577 0 0 0 -1.03147 -0.241991 -0.501836 0 0 -0.000346714 217.68 -752.979 -86.9183 0.0015 
150 1 1 -0.242203 -0.0192816 -0.206602 0 0 0 -0.967856 -0.127484 -0.366637 -9.68138e-05 3.63556e-05 -6.51135e-06 -24.0607 -658.006 292.299 0.0015 
127 1 1 -0.239148 -0.0126279 -0.206072 0 0 0 -0.592872 0.0520836 -0.159617 -0.0150143 -0.00697072 -0.0258509 -79.6035 -294.695 -91.3478 0.0015 
197 1 1 -0.241009 -0.0123486 -0.203327 0 0 0 -1.04349 -0.0881682 -0.377921 0 0 -0.000346714 -60.147 438.959 26.7072 0.0015 
101 1 1 -0.238313 -0.00975067 -0.206078 0 0 0 -0.821721 -0.078425 -0.358513 0.0150596 0.00695658 0.0262515 40.2216 -494.237 61.1319 0.0015 
90 1 1 -0.241542 -0.00305409 -0.206822 0 0 0 -0.928544 0.00291779 -0.390029 -0.000591385 7.01371e-05 0.000246905 12.0486 -405.234 -31.7822 0.0025 
167 1 1 -0.234253 -0.000291496 -0.203737 0 0 0 -0.870202 -0.0434418 -0.373666 -0.000414738 -2.4206e-05 -0.000177272 13.1063 -379.362 13.5818 0.0025 
175 1 1 -0.237852 0.0195342 -0.204752 0 0 0 -0.871939 -0.0752958 -0.372026 -0.000103639 -3.66947e-05 1.4035e-05 27.374 -644.477 66.5716 0.0015 
136 1 1 -0.243863 0.021751 -0.206914 0 0 0 -1.03256 -0.138947 -0.460509 0 0 -0.000346714 159.454 -725.205 -122.554 0.0015 
161 1 1 -0.244939 0.0245631 -0.206933 0 0 0 -1.02348 -0.131896 -0.462623 -7.26784e-05 -4.43635e-05 -8.78357e-05 112.056 -751.802 -33.6367 0.0015 
289 1 1 -0.241491 0.0254334 -0.205262 0 0 0 -1.23027 0.0731312 -0.499934 -8.6939e-05 -6.07658e-05 1.78195e-05 -50.4898 -912.87 -8.19311 0.0015 
256 1 1 -0.249697 -0.0470259 -0.201462 0 0 0 -1.17814 0.138022 -0.520157 0 0 -0.000346714 -107.673 -903.897 4.71848 0.0015 
177 1 1 -0.231941 -0.0268861 -0.200831 0 0 0 -0.972156 0.122747 -0.42214 -8.03034e-05 3.87496e-05 -6.02848e-05 -86.8526 -714.249 -7.52311 0.0015 
157 1 1 -0.235109 -0.0149421 -0.203179 0 0 0 -0.924308 -0.0989519 -0.376665 -0.000331798 6.45968e-05 -0.000302391 20.0299 -397.374 55.2753 0.0025 
193 1 1 -0.230759 -0.0170245 -0.20116 0 0 0 -0.900254 -0.0695607 -0.379061 -0.000416142 8.7773e-05 -0.00017628 15.2673 -390.153 35.3374 0.0025 
182 1 1 -0.232547 -0.00874177 -0.202597 0 0 0 -0.779246 -0.0699293 -0.31792 0.000114805 5.57973e-05 4.57674e-05 26.2595 -25.9001 64.3707 0.0025 
191 1 1 -0.227872 -0.00252277 -0.200991 0 0 0 -0.81388 0.0114665 -0.301929 -0.000843133 -0.00349417 0.00304389 -68.4283 -283.393 144.331 0.0015 
73 1 1 -0.228436 7.85627e-05 -0.202341 0 0 0 -0.801315 0.0328839 -0.344713 -0.00178939 -0.00250492 0.00846126 3.03211 -572.844 11.0104 0.0015 
123 1 1 -0.225601 0.00406298 -0.201007 0 0 0 -0.892544 -0.0257944 -0.382776 0 0 -0.000346714 41.2181 -644.765 -52.7729 0.0015 
208 1 1 -0.229121 0.00864841 -0.201315 0 0 0 -0.788985 0.0902405 -0.327194 -0.00157026 -0.000143401 0.00284179 -29.3387 -341.789 -23.6478 0.0025 
210 1 1 -0.23269 0.0135702 -0.202285 0 0 0 -0.926375 0.0852696 -0.400808 0 0 -0.00160516 -3.63519 -391.523 -82.4829 0.0025 
198 1 1 -0.235906 -0.0399932 -0.198734 0 0 0 -0.966547 -0.09623 -0.364261 0 0 -0.000346714 83.3699 -737.385 -22.2786 0.0015 
143 1 1 -0.231494 -0.0318183 -0.198512 0 0 0 -1.00517 0.083724 -0.444183 -0.000407581 0.000210044 -0.000183213 -91.1621 -417.917 127.527 0.0025 
183 1 1 -0.222762 -0.0195329 -0.19747 0 0 0 -0.837077 0.0223729 -0.351747 -0.000711949 0.000333788 0.00102283 -3.67579 -372.44 -16.6806 0.0025 
205 1 1 -0.220784 -0.0157088 -0.198099 0 0 0 -0.998725 0.0326626 -0.416918 -7.79056e-05 1.71767e-05 -5.7696e-05 22.3206 -733.753 -110.968 0.0015 
225 1 1 -0.217592 -0.0125851 -0.197061 0 0 0 -0.635801 0.0453193 -0.267589 2.32145e-05 3.3415e-06 8.06835e-06 -35.3971 -128.781 130.958 0.0015 
59 1 1 -0.216976 -0.0077714 -0.197245 0 0 0 -0.937281 -0.00735593 -0.38775 -8.66911e-05 1.90728e-05 -3.84482e-05 45.967 -688.08 -98.0572 0.0015 
132 1 1 -0.218648 -0.00249582 -0.197132 0 0 0 -0.834771 -0.036745 -0.358114 -0.000414074 -1.12402e-05 -0.000179511 11.7463 -363.674 9.93463 0.0025 
213 1 1 -0.230142 0.00112087 -0.199893 0 0 0 -0.864161 -0.0271495 -0.460497 0 0 -0.000346714 -16.585 493.52 13.3667 0.0015 
189 1 1 -0.221049 0.00407577 -0.199108 0 0 0 -0.895803 -0.0868052 -0.374374 -8.64173e-05 -4.13833e-06 -3.9797e-05 61.6493 -647.309 2.57583 0.0015 
119 1 1 -0.216484 0.00510291 -0.196112 0 0 0 -0.841189 0.0183883 -0.347445 -0.00111921 -3.11781e-05 0.00171982 9.27417 -363.666 -42.085 0.0025 
214 1 1 -0.223089 -0.0401921 -0.193488 0 0 0 -1.01313 -0.0826101 -0.390827 0 0 -0.000346714 66.9757 -770.571 -9.86395 0.0015 
221 1 1 -0.222214 -0.0284185 -0.195309 0 0 0 -0.968037 0.0503689 -0.41699 0 0 -0.00160516 -33.3319 -420.715 27.7322 0.0025 
211 1 1 -0.21205 -0.0236861 -0.193287 0 0 0 -0.775529 0.0698044 -0.33193 -8.34236e-05 4.50652e-05 -3.86603e-05 -154.905 -514.695 253.828 0.0015 
206 1 1 -0.210776 -0.00884867 -0.193495 0 0 0 -0.956402 0.0517219 -0.415308 -0.00240656 0.000367829 0.00328685 -22.704 -418.678 -0.553069 0.0025 
144 1 1 -0.211771 -0.00377279 -0.194205 0 0 0 -0.899556 -0.0365536 -0.361671 0.000567023 -1.0137e-05 -0.00208563 -8.22229 -340.339 62.5557 0.0025 
202 1 1 -0.206802 0.00686563 -0.193106 0 0 0 -0.674287 0.00245367 -0.280444 -2.3654e-05 -0.000119482 -1.5298e-05 25.377 -442.193 65.9912 0.0015 
178 1 1 -0.208621 0.0121626 -0.193389 0 0 0 -0.856176 0.0300575 -0.362651 -8.8755e-05 -2.24774e-05 -3.99126e-05 3.4997 -617.682 -59.4575 0.0015 
276 1 1 -0.212905 0.0209432 -0.194171 0 0 0 -0.903804 0.0630004 -0.366273 -8.66845e-05 -2.43746e-05 -3.80651e-05 -103.029 -672.204 138.603 0.0015 
192 1 1 -0.217574 0.0231377 -0.195807 0 0 0 -1.03526 -0.0951259 -0.441516 4.56413e-05 0.00265107 0.0126839 -10.9959 -617.694 -147.569 0.0015 
212 1 1 -0.220211 0.031352 -0.194955 0 0 0 -0.995201 0.0891307 -0.38495 -8.83034e-05 -5.14017e-05 -3.01898e-05 29.7568 -678.632 -234.061 0.0015 
9 1 1 -0.215714 0.025082 -0.194509 0 0 0 -0.80926 -0.281134 -0.264365 -0.00114895 -0.000885929 -0.000360071 196.725 -489.658 -77.6542 0.0015 
184 1 1 -0.229828 0.03838 -0.196978 0 0 0 -1.07556 -0.129838 -0.495344 0 0 -0.000346714 121.076 -795.815 -56.0836 0.0015 
179 1 1 -0.277655 -0.0732163 -0.193499 0 0 0 -0.971424 0.316583 -0.65378 0 0 -0.000346714 -386.782 -726.949 230.927 0.0015 
181 1 1 -0.208683 -0.0133311 -0.19209 0 0 0 -0.923155 0.0520083 -0.378499 0 0 -0.00160516 -58.0195 -388.846 89.0381 0.0025 
126 1 1 -0.205436 -0.00784481 -0.192221 0 0 0 -1.08921 -0.177225 -0.360583 0 0 -0.000346714 -114.53 -475.221 27.279 0.0015 
168 1 1 -0.207154 -0.00406611 -0.192255 0 0 0 -0.840328 0.0302345 -0.339946 -0.000426032 -0.000554398 0.00687605 17.0255 -192.507 5.91516 0.0025 
155 1 1 -0.207728 0.00231016 -0.192433 0 0 0 -0.840626 -0.0610423 -0.342955 0 0 -0.00160516 8.89146 -362.576 42.197 0.0025 
180 1 1 -0.202408 0.000176118 -0.190207 0 0 0 -0.847548 0.037642 -0.35934 0 0 -0.00160516 38.0734 -365.138 -71.6525 0.0025 
216 1 1 -0.198442 0.000704592 -0.189548 0 0 0 -0.821349 0.0158592 -0.343242 0 0 -0.000346714 -18.1987 -565.04 2.96185 0.0015 
201 1 1 -0.204871 0.00597128 -0.190849 0 0 0 -0.715433 -0.0549366 -0.36463 0 0 -0.000346714 35.7404 -358.527 -17.5936 0.0015 
228 1 1 -0.203345 0.00912834 -0.191462 0 0 0 -0.95692 -0.0284033 -0.412402 -5.87493e-05 -1.5148e-05 -9.96743e-05 105.18 -676.126 -197.629 0.0015 
244 1 1 -0.204365 0.0144353 -0.190217 0 0 0 -1.01286 -0.0143905 -0.444113 0 0 -0.00160516 24.3631 -432.933 -45.1912 0.0025 
224 1 1 -0.209253 0.0233879 -0.192215 0 0 0 -0.965876 0.0622802 -0.392587 -0.000386054 -0.000188031 0.000425484 -27.3055 -706.694 -43.7533 0.0015 
188 1 1 -0.195935 -0.0279523 -0.185703 0 0 0 -0.901132 -0.0794632 -0.347787 -7.12492e-05 4.05994e-05 -7.23009e-05 73.9033 -672.586 -37.7449 0.0015 
218 1 1 -0.199851 -0.0234871 -0.188338 0 0 0 -0.900555 -0.0283952 -0.354093 5.37354e-05 -4.61899e-05 -0.000469817 7.28765 -653.518 35.8231 0.0015 
145 1 1 -0.197677 -0.0184105 -0.18694 0 0 0 -0.897011 0.0220862 -0.384383 -0.000136514 3.42461e-05 -0.000870383 2.40345 -395.657 -27.9474 0.0025 
232 1 1 -0.194554 -0.00930569 -0.186673 0 0 0 -0.838172 -0.0209298 -0.353141 0 0 -0.00160516 9.5042 -365.027 -0.349051 0.0025 
247 1 1 -0.202671 -0.00489267 -0.190214 0 0 0 -0.866078 -0.00441518 -0.292614 0.0010505 -0.000263604 -0.000289967 19.5418 105.342 -5.56276 0.0025 
124 1 1 -0.189086 -0.00345442 -0.185654 0 0 0 -0.704641 0.0200201 -0.302473 -8.96658e-05 3.15557e-06 -3.84864e-05 -12.1795 -511.532 -5.48408 0.0015 
217 1 1 -0.197954 0.00651427 -0.189424 0 0 0 -0.951058 -0.00456551 -0.393686 4.5196e-05 -0.000114094 -0.000307886 -13.6583 -686.455 37.7221 0.0015 
239 1 1 -0.198019 0.00950191 -0.189177 0 0 0 -0.900499 -0.00819255 -0.367232 -6.10636e-05 0.000180617 0.000350182 212.848 59.3033 -2.08072 0.0015 
268 1 1 -0.191538 0.00975291 -0.186388 0 0 0 -0.860694 0.0404166 -0.364476 -8.91581e-05 -1.96869e-05 -3.86808e-05 14.0849 -617.198 -101.705 0.0015 
262 1 1 -0.195975 0.0167384 -0.18759 0 0 0 -1.0272 0.0681736 -0.418658 -0.000145777 -3.74759e-05 0.000101994 -42.7642 -743.604 -15.9348 0.0015 
287 1 1 -0.203155 0.0189965 -0.189897 0 0 0 -0.998604 0.165532 -0.636069 0 0 -0.000346714 -330.31 151.757 -102.569 0.0015 
253 1 1 -0.19904 0.0307214 -0.186358 0 0 0 -0.815043 0.192934 -0.304331 -9.12341e-05 -4.57247e-05 -3.34506e-05 -50.9422 -555.76 -215.884 0.0015 
194 1 1 -0.249549 -0.0704327 -0.185732 0 0 0 -0.970143 0.225487 -0.538468 0 0 -0.00160516 -186.427 -361.997 194.729 0.0025 
219 1 1 -0.199522 -0.0301046 -0.185557 0 0 0 -1.02711 0.117482 -0.445361 -0.00036566 0.000210519 -0.000239197 -85.5844 -434.822 82.6808 0.0025 
259 1 1 -0.19611 -0.0236897 -0.185593 0 0 0 -0.950058 -0.0783 -0.412042 0 0 -0.00160516 12.0827 -402.253 56.9233 0.0025 
226 1 1 -0.184862 -0.0181034 -0.182437 0 0 0 -0.626275 -0.091012 -0.202941 0 0 -0.000346714 138.462 -398.598 -31.6883 0.0015 
207 1 1 -0.187952 -0.0153548 -0.183224 0 0 0 -0.627906 -0.0207802 -0.256608 0.000141925 0.000105759 0.000415468 -6.96015 -122.768 77.0512 0.0025 
109 1 1 -0.18755 -0.0113 -0.184626 0 0 0 -0.75519 0.0239448 -0.314557 -4.04596e-06 0.000102067 -1.63691e-05 -62.6369 -514.879 63.8668 0.0015 
147 1 1 -0.186199 -0.00869683 -0.183996 0 0 0 -0.832463 0.0738174 -0.354698 7.57538e-06 3.1698e-05 -0.000323491 -125.045 -509.309 -48.4202 0.0015 
266 1 1 -0.183923 -0.00683474 -0.183388 0 0 0 -0.784778 0.0140423 -0.337507 -1.05224e-06 -6.81325e-05 -4.66759e-05 -33.286 -551.159 80.8766 0.0015 
223 1 1 -0.180854 -0.00487812 -0.182106 0 0 0 -0.779332 0.00491885 -0.326311 -8.82286e-05 3.96222e-06 -3.70944e-05 14.9804 -564.45 -44.2834 0.0015 
249 1 1 -0.182391 0.00528706 -0.182905 0 0 0 -0.829717 -0.00769891 -0.35332 -8.85854e-05 -1.77454e-05 -3.91634e-05 12.861 -601.74 -17.0901 0.0015 
281 1 1 -0.184725 0.0152781 -0.182998 0 0 0 -0.841188 0.0161408 -0.34955 -8.76118e-05 -1.88723e-05 -3.76806e-05 -19.6659 -611.777 19.076 0.0015 
215 1 1 -0.185837 0.0193289 -0.183098 0 0 0 -0.91135 0.0378093 -0.37688 -8.73722e-05 -1.88226e-05 -3.8187e-05 -17.8817 -658.891 -22.8606 0.0015 
195 1 1 -0.181987 -0.00970504 -0.181289 0 0 0 -0.845028 -0.0414176 -0.350109 0 0 -0.00160516 -2.4328 -352.125 65.9719 0.0025 