ITEM: TIMESTEP
63600
ITEM: NUMBER OF ATOMS
764
ITEM: BOX BOUNDS ff ff ff
-0.5 0.1
-0.2 0.2
-0.4 0.15
ITEM: ATOMS id type type x y z ix iy iz vx vy vz fx fy fz omegax omegay omegaz radius 
809 1 1 -0.0310816 0.0313629 0.0540182 0 0 0 -0 0 -1 0 0 0 0 0 0 0.0025 
60 1 1 -0.493922 0.000612253 -0.396354 0 0 0 -1.2223 0.0893583 -1.77563 0 0 -0.000346714 -56.6924 -815.658 -85.2318 0.0015 
39 1 1 -0.48599 0.00180516 -0.396138 0 0 0 -1.21561 0.0585228 -1.8157 0 0 -0.00160516 -19.8868 -526.821 -12.8098 0.0025 
111 1 1 -0.484464 -0.000161408 -0.3913 0 0 0 -1.25302 0.0696824 -1.79255 0 0 -0.000346714 -85.679 -900.298 85.1638 0.0015 
102 1 1 -0.495762 0.0358847 -0.392206 0 0 0 -1.25929 -0.0282837 -1.82617 0 0 -0.000346714 57.9866 -954.03 -94.2035 0.0015 
7 1 1 -0.453504 0.0181496 -0.387594 0 0 0 -1.01188 0.396983 -1.80399 0 0 -0.000346714 -433.814 -624.856 371.752 0.0015 
1 1 1 -0.481535 0.000473407 -0.383487 0 0 0 -1.25756 0.0823184 -1.75171 0 0 -0.00160516 -80.3433 -534.057 111.987 0.0025 
114 1 1 -0.466955 -0.0109176 -0.369153 0 0 0 -1.29154 0.138004 -1.71676 0 0 -0.000346714 -177.256 -902.318 191.707 0.0015 
87 1 1 -0.451388 -0.00960726 -0.368547 0 0 0 -1.14688 0.112103 -1.69986 0 0 -0.000346714 -95.6221 -653.381 131.349 0.0015 
129 1 1 -0.454003 0.00609168 -0.370021 0 0 0 -1.0715 -0.0529995 -1.65939 0 0 -0.00160516 59.257 -278.556 -70.1664 0.0025 
29 1 1 -0.462781 -0.00391379 -0.366395 0 0 0 -1.2138 -0.0533211 -1.65271 0 0 -0.00160516 37.3982 -526.679 -33.1236 0.0025 
45 1 1 -0.446935 -0.00669606 -0.360883 0 0 0 -1.03471 0.341643 -1.67987 0 0 -0.000346714 -276.055 -792.101 37.7484 0.0015 
33 1 1 -0.450101 0.00209246 -0.361908 0 0 0 -1.12847 -0.0441989 -1.61906 0 0 -0.000346714 20.3045 -790.454 -101.48 0.0015 
81 1 1 -0.454309 0.0134985 -0.363185 0 0 0 -1.13802 0.0508109 -1.61744 0 0 -0.000346714 -22.8756 -823.707 -33.2889 0.0015 
70 1 1 -0.455706 0.00831455 -0.356691 0 0 0 -1.1916 -0.010934 -1.57761 0 0 -0.000346714 30.1272 -846.192 -96.9348 0.0015 
69 1 1 -0.456492 0.0333982 -0.355459 0 0 0 -1.15688 0.0501623 -1.58052 0 0 -0.000346714 4.34776 -838.832 -104.978 0.0015 
171 1 1 -0.449979 -0.0147571 -0.352384 0 0 0 -1.19072 0.0900565 -1.58558 0 0 -0.000346714 -20.8638 -869.319 -74.2511 0.0015 
82 1 1 -0.454224 0.0105233 -0.352955 0 0 0 -1.23143 -0.0741231 -1.57842 0 0 -0.000346714 -29.9445 -944.1 197.417 0.0015 
27 1 1 -0.456785 -0.0153175 -0.348566 0 0 0 -1.22138 0.0677168 -1.54425 0 0 -0.00160516 -2.99417 -474.149 -2.65371 0.0025 
43 1 1 -0.450938 0.0399906 -0.349527 0 0 0 -1.17401 -0.00652347 -1.60821 0 0 -0.000346714 218.147 -602.343 -229.085 0.0015 
105 1 1 -0.458253 -0.00817972 -0.345065 0 0 0 -1.33838 0.132325 -1.54766 0 0 -0.00160516 -51.181 -589.493 -14.4579 0.0025 
152 1 1 -0.4418 -0.0010582 -0.344115 0 0 0 -1.16893 -0.0586856 -1.50291 0 0 -0.000346714 1.19702 -854.343 96.3749 0.0015 
99 1 1 -0.428658 0.00375652 -0.344417 0 0 0 -1.08037 -0.0661912 -1.54797 0 0 -0.000346714 169.819 -626.796 -14.1058 0.0015 
53 1 1 -0.434422 0.00329555 -0.336911 0 0 0 -1.11746 -0.0106032 -1.48176 0 0 -0.00160516 -16.8307 -477.631 28.6212 0.0025 
98 1 1 -0.442364 -0.0176537 -0.334883 0 0 0 -1.23145 0.00742095 -1.44955 0 0 -0.000346714 -28.5849 -890.559 58.3764 0.0015 
140 1 1 -0.434295 0.00560741 -0.333579 0 0 0 -1.23747 -0.0932563 -1.36638 0 0 -0.000346714 92.9899 -770.857 -41.6695 0.0015 
121 1 1 -0.431283 -0.0183193 -0.328823 0 0 0 -1.07616 0.412799 -1.55563 0 0 -0.000346714 -331.159 -939.075 -28.2489 0.0015 
77 1 1 -0.430025 0.00264373 -0.32993 0 0 0 -1.15977 -0.141949 -1.44517 0 0 -0.00160516 60.6422 -502.978 39.167 0.0025 
104 1 1 -0.438215 0.00424465 -0.329721 0 0 0 -1.25025 0.0514267 -1.40573 0 0 -0.00160516 -42.1805 -530.679 49.2011 0.0025 
58 1 1 -0.405782 0.0106439 -0.329963 0 0 0 -0.94902 0.0198305 -1.44334 0 0 -0.000346714 155.641 -677.146 71.2123 0.0015 
137 1 1 -0.448723 0.0328918 -0.329162 0 0 0 -1.1782 -0.0649507 -1.40853 0 0 -0.000346714 60.2564 -867.776 -0.874001 0.0015 
165 1 1 -0.428562 -0.0148114 -0.326282 0 0 0 -1.14294 0.121721 -1.39872 0 0 -0.000346714 -118.131 -839.428 72.9318 0.0015 
44 1 1 -0.433142 0.00246666 -0.323706 0 0 0 -1.16163 -0.0650147 -1.314 0 0 -0.000346714 55.0474 -741.588 28.6765 0.0015 
108 1 1 -0.426864 0.00118909 -0.326605 0 0 0 -1.14511 -0.0853433 -1.3143 0 0 -0.000346714 98.8608 -719.647 -54.3008 0.0015 
139 1 1 -0.427915 0.0176092 -0.325025 0 0 0 -1.14571 -0.123245 -1.40002 0 0 -0.000346714 62.6153 -891.181 71.8998 0.0015 
64 1 1 -0.42967 0.0272598 -0.324229 0 0 0 -1.13601 -0.0425118 -1.38799 0 0 -0.000346714 126.092 -780.116 -229.565 0.0015 
103 1 1 -0.411256 -0.0116517 -0.323129 0 0 0 -1.17177 -0.12019 -1.6064 0 0 -0.00160516 -97.0685 -383.117 65.5816 0.0025 
84 1 1 -0.422877 -0.0157052 -0.318186 0 0 0 -1.18881 0.0659689 -1.35033 0 0 -0.000346714 -31.4453 -803.539 80.3585 0.0015 
91 1 1 -0.430927 0.00535626 -0.319747 0 0 0 -1.2572 0.00155239 -1.33832 0 0 -0.00160516 28.9173 -522.756 -60.0474 0.0025 
117 1 1 -0.419592 -0.0184411 -0.314647 0 0 0 -1.21502 0.0786648 -1.35163 0 0 -0.00160516 -67.7865 -517.688 82.8251 0.0025 
122 1 1 -0.424255 -0.0148433 -0.313372 0 0 0 -1.23943 0.105005 -1.30685 0 0 -0.000346714 -52.3441 -801.964 76.9716 0.0015 
97 1 1 -0.418084 -0.00392969 -0.313539 0 0 0 -1.19092 -0.00283125 -1.28688 0 0 -0.000346714 15.5574 -830.818 -16.9975 0.0015 
135 1 1 -0.422055 0.00452434 -0.316076 0 0 0 -1.2473 -0.113646 -1.32976 0 0 -0.000346714 124.573 -897.878 -97.7638 0.0015 
115 1 1 -0.4152 0.0137553 -0.316475 0 0 0 -1.0634 0.0154668 -1.29154 0 0 -0.000346714 46.0013 -705.403 -123.119 0.0015 
88 1 1 -0.412776 0.0158289 -0.316107 0 0 0 -1.0262 -0.00432002 -1.28655 0 0 -0.000346714 5.24096 -750.645 -11.7672 0.0015 
164 1 1 -0.40156 -0.0246995 -0.311568 0 0 0 -0.89004 -0.162454 -1.22476 0 0 -0.000346714 163.798 49.1603 -85.2408 0.0015 
63 1 1 -0.410051 0.00393758 -0.309841 0 0 0 -1.10933 0.035983 -1.2459 0 0 -0.000346714 9.74113 -799.623 -84.2586 0.0015 
80 1 1 -0.414607 0.0161104 -0.310929 0 0 0 -1.12165 -0.029336 -1.27718 0 0 -0.00160516 25.5936 -489.149 -30.692 0.0025 
166 1 1 -0.416011 -0.0037794 -0.308838 0 0 0 -1.19907 0.00578169 -1.24126 0 0 -0.000346714 0.512656 -855.694 -8.72509 0.0015 
149 1 1 -0.416315 -0.0235499 -0.30557 0 0 0 -1.20059 0.0745144 -1.25316 0 0 -0.000346714 -89.3031 -861.97 98.2465 0.0015 
83 1 1 -0.407718 0.024348 -0.303705 0 0 0 -1.10116 0.00492353 -1.21359 0 0 -0.000346714 -12.1613 -813.412 18.5196 0.0015 
74 1 1 -0.413367 -0.0167531 -0.301536 0 0 0 -1.19736 0.266259 -1.24737 0 0 -0.000346714 -179.356 -904.898 -38.5655 0.0015 
66 1 1 -0.415456 -0.00677446 -0.301774 0 0 0 -1.28537 0.0777282 -1.19509 0 0 -0.00160516 87.1001 -437.028 198.78 0.0025 
116 1 1 -0.404937 -0.00769471 -0.298376 0 0 0 -1.17487 -0.0751396 -1.16339 0 0 -0.00160516 38.9938 -497.86 4.88896 0.0025 
133 1 1 -0.398866 -0.0421931 -0.296686 0 0 0 -0.88396 -0.0592736 -1.13721 0 0 -0.000346714 -9.68419 -615.26 140.855 0.0015 
106 1 1 -0.415868 -0.0114696 -0.295797 0 0 0 -1.30373 0.0810737 -1.09975 0 0 -0.00160516 -21.3255 -529.621 87.5652 0.0025 
94 1 1 -0.40999 -0.00523389 -0.296132 0 0 0 -1.17995 -0.0823339 -1.03926 0 0 -0.00160516 23.4741 -455.182 -153.871 0.0025 
62 1 1 -0.401896 0.00937156 -0.295902 0 0 0 -1.22943 -0.0560851 -1.16219 0 0 -0.000346714 58.0721 -895.93 -40.99 0.0015 
100 1 1 -0.400881 -0.0144331 -0.29364 0 0 0 -1.21133 -0.0835917 -1.12232 0 0 -0.000346714 77.6811 -875.877 -41.6933 0.0015 
128 1 1 -0.39677 -0.00571062 -0.292834 0 0 0 -1.10458 -0.0135245 -1.09042 0 0 -0.000346714 45.1345 -755.649 -21.3679 0.0015 
185 1 1 -0.395197 -0.00163484 -0.29347 0 0 0 -1.17854 -0.118545 -1.14134 0 0 -0.000346714 71.3097 -764.026 38.6786 0.0015 
179 1 1 -0.390841 -0.0204377 -0.289242 0 0 0 -1.07154 0.538975 -1.31616 0 0 -0.000346714 -521.433 -757.262 213.055 0.0015 
203 1 1 -0.393581 -0.00834151 -0.289294 0 0 0 -1.02773 -0.162521 -1.13313 0 0 -0.000346714 -32.8074 -744.114 -97.5735 0.0015 
158 1 1 -0.394112 -0.00458265 -0.287612 0 0 0 -1.24121 -0.129889 -1.07279 0 0 -0.00160516 3.58794 -506.67 -14.4202 0.0025 
54 1 1 -0.392881 0.005859 -0.290616 0 0 0 -1.09805 -0.0500744 -1.09674 0 0 -0.00160516 39.2195 -475.791 -40.5462 0.0025 
112 1 1 -0.389657 -0.0142026 -0.28417 0 0 0 -1.19351 -0.0869729 -0.929194 0 0 -0.000346714 -71.5016 -755.303 333.571 0.0015 
93 1 1 -0.395204 -0.0131819 -0.286155 0 0 0 -1.18885 0.0208314 -1.05592 0 0 -0.00160516 -21.8668 -510.094 36.0523 0.0025 
13 1 1 -0.389981 -0.0102959 -0.28501 0 0 0 -1.1304 -0.0348486 -1.06563 0 0 -0.00160516 74.1335 -492.073 -31.9773 0.0025 
269 1 1 -0.388839 0.0089854 -0.28415 0 0 0 -1.26465 -0.000171214 -1.06915 0 0 -0.000346714 134.225 -926.731 -186.097 0.0015 
89 1 1 -0.386168 0.0103288 -0.284454 0 0 0 -1.1484 -0.350555 -1.11966 0 0 -0.000346714 300.57 -838.142 -87.59 0.0015 
130 1 1 -0.393228 0.00272978 -0.282877 0 0 0 -1.19787 -0.129305 -1.01294 0 0 -0.00160516 64.5069 -519.33 -75.6691 0.0025 
243 1 1 -0.386897 0.00238334 -0.282656 0 0 0 -1.20826 0.213882 -1.03285 0 0 -0.000346714 -205.047 -857.591 128.246 0.0015 
256 1 1 -0.386077 -0.0221374 -0.278993 0 0 0 -1.29264 0.264572 -1.12494 0 0 -0.000346714 -199.626 -988.315 9.896 0.0015 
159 1 1 -0.381184 -0.0126545 -0.278951 0 0 0 -1.09726 0.144829 -1.00943 0 0 -0.000346714 -70.3077 -799.299 -45.3437 0.0015 
68 1 1 -0.383517 0.00336458 -0.279447 0 0 0 -1.1539 -0.0331372 -0.992574 0 0 -0.00160516 15.0556 -483.325 -36.6526 0.0025 
190 1 1 -0.378979 0.0181927 -0.276036 0 0 0 -1.13495 0.0081687 -0.960817 0 0 -0.000346714 -12.7155 -837.309 14.3686 0.0015 
196 1 1 -0.385224 0.0230688 -0.277237 0 0 0 -1.21401 -0.0146728 -1.0111 0 0 -0.00160516 17.0199 -530.87 -25.7927 0.0025 
233 1 1 -0.383449 -0.0142706 -0.274815 0 0 0 -1.23505 0.160675 -0.975677 0 0 -0.00160516 -106.123 -516.404 94.0733 0.0025 
110 1 1 -0.369827 -0.00985233 -0.273377 0 0 0 -0.938657 -0.136414 -0.87087 0 0 -0.000346714 17.4258 -542.259 -2.09917 0.0015 
199 1 1 -0.367778 0.0122297 -0.275543 0 0 0 -1.08435 -0.061576 -1.04125 0 0 -0.000346714 403.501 -676.786 42.8433 0.0015 
173 1 1 -0.366314 0.0138387 -0.270275 0 0 0 -1.09788 -0.151981 -0.981 0 0 -0.000346714 272.386 -707.869 -24.3477 0.0015 
169 1 1 -0.36563 0.00611031 -0.267271 0 0 0 -1.04837 0.0460929 -0.845729 0 0 -0.00160516 -39.8266 -459.556 45.0987 0.0025 
67 1 1 -0.364405 0.0114979 -0.26524 0 0 0 -1.10607 -0.127303 -0.862268 0 0 -0.00160516 109.719 -438.822 18.5878 0.0025 
289 1 1 -0.358434 0.0218733 -0.266177 0 0 0 -1.01351 -0.0734463 -0.965092 0 0 -0.000346714 -9.09044 -543.624 102.941 0.0015 
65 1 1 -0.360735 -0.00663495 -0.262956 0 0 0 -1.02736 -0.0275412 -0.780792 0 0 -0.00160516 36.4644 -448.4 -58.5931 0.0025 
163 1 1 -0.357361 0.00209174 -0.263978 0 0 0 -1.01231 0.0128169 -0.806477 0 0 -0.000346714 31.6847 -707.681 7.95581 0.0015 
151 1 1 -0.360115 0.00482133 -0.262693 0 0 0 -1.09504 0.00521485 -0.778234 0 0 -0.000346714 -73.6914 -748.728 -85.419 0.0015 
95 1 1 -0.354959 0.00436079 -0.260725 0 0 0 -1.01777 0.0447613 -0.745211 0 0 -0.000346714 -79.8216 -745.486 109.778 0.0015 
187 1 1 -0.364116 0.00686684 -0.262669 0 0 0 -1.03602 -0.166614 -0.745531 0 0 -0.000346714 -94.216 -487.749 108.677 0.0015 
204 1 1 -0.36392 0.0305145 -0.261544 0 0 0 -0.99054 -0.185185 -0.850205 0 0 -0.000346714 209.691 -691.083 -169.486 0.0015 
194 1 1 -0.363625 -0.0271151 -0.258905 0 0 0 -1.10952 0.496096 -0.967147 0 0 -0.00160516 -298.467 -421.307 192.778 0.0025 
150 1 1 -0.35882 -0.027137 -0.259737 0 0 0 -1.1301 -0.0472229 -0.808651 0 0 -0.000346714 -99.481 -786.221 286.276 0.0015 
131 1 1 -0.357595 -0.00125817 -0.260126 0 0 0 -1.06047 0.0127585 -0.742661 0 0 -0.00160516 -21.5098 -451.351 42.9886 0.0025 
90 1 1 -0.352347 -0.0018787 -0.257874 0 0 0 -1.04056 0.00988612 -0.734837 0 0 -0.00160516 10.5195 -430.119 -30.2997 0.0025 
136 1 1 -0.357909 0.00611955 -0.257712 0 0 0 -1.0506 -0.0410702 -0.659426 0 0 -0.000346714 -18.4602 -729.004 -118.572 0.0015 
148 1 1 -0.352989 0.00890879 -0.257136 0 0 0 -0.798714 -0.10412 -0.584172 0 0 -0.000346714 170.295 -523.697 -10.5933 0.0015 
184 1 1 -0.359432 0.0153375 -0.260337 0 0 0 -1.27148 -0.255453 -0.863339 0 0 -0.000346714 211.435 -923.763 -56.4605 0.0015 
172 1 1 -0.347195 0.0143603 -0.257126 0 0 0 -0.764985 0.0184259 -0.657298 0 0 -0.000346714 -36.3449 -204.036 -265.701 0.0015 
143 1 1 -0.353136 -0.0141269 -0.25529 0 0 0 -1.20098 0.209653 -0.765398 0 0 -0.00160516 -144.076 -500.166 126.817 0.0025 
177 1 1 -0.348422 -0.0139065 -0.254026 0 0 0 -1.14715 0.132664 -0.708139 0 0 -0.000346714 -58.4485 -848.324 -95.2034 0.0015 
175 1 1 -0.348533 0.00746723 -0.25537 0 0 0 -1.12077 -0.1317 -0.712614 0 0 -0.000346714 68.1247 -817.381 63.9385 0.0015 
153 1 1 -0.339113 -0.00312486 -0.250041 0 0 0 -1.01583 -0.0284624 -0.574572 0 0 -0.000346714 -45.0149 -722.203 160.275 0.0015 
161 1 1 -0.34242 0.012449 -0.249206 0 0 0 -0.712641 -0.0552957 -0.506058 0 0 -0.000346714 -59.8555 -428.326 48.3612 0.0015 
210 1 1 -0.34443 0.0168705 -0.250487 0 0 0 -1.11113 -0.00942351 -0.657983 0 0 -0.00160516 37.4291 -475.028 -78.8357 0.0025 
198 1 1 -0.351475 -0.0371837 -0.24762 0 0 0 -1.13758 0.116921 -0.669359 0 0 -0.000346714 -80.478 -897.555 -10.3047 0.0015 
167 1 1 -0.334617 -0.00355863 -0.246489 0 0 0 -0.984101 -0.00310899 -0.520595 0 0 -0.00160516 3.00523 -426.073 -3.53896 0.0025 
123 1 1 -0.330907 0.00492089 -0.245721 0 0 0 -1.05613 0.0224199 -0.527635 0 0 -0.000346714 3.88147 -763.446 -47.503 0.0015 
192 1 1 -0.337666 0.0141089 -0.248217 0 0 0 -1.20935 -0.122983 -0.654097 0 0 -0.000346714 143.096 -864.496 -125.274 0.0015 
214 1 1 -0.344017 -0.0365366 -0.245925 0 0 0 -1.18569 0.111194 -0.736323 0 0 -0.000346714 -83.0994 -915.365 -4.93271 0.0015 
221 1 1 -0.335337 -0.0277815 -0.242268 0 0 0 -1.12043 -0.00525105 -0.50861 0 0 -0.00160516 -18.5998 -479.707 62.1217 0.0025 
157 1 1 -0.328562 -0.0209971 -0.241268 0 0 0 -0.853966 -0.027526 -0.396118 0 0 -0.00160516 -0.904848 -367.969 32.9147 0.0025 
205 1 1 -0.327898 -0.0171909 -0.242748 0 0 0 -1.02902 0.0269432 -0.461241 0 0 -0.000346714 26.2749 -771.378 -111.683 0.0015 
15 1 1 -0.330389 -0.0131694 -0.243763 0 0 0 -1.00466 0.0302447 -0.592051 0 0 -0.00160516 -52.1407 -288.095 58.0442 0.0025 
197 1 1 -0.324318 -0.00728124 -0.242445 0 0 0 -0.756708 0.0134519 -0.336859 0 0 -0.000346714 -3.37099 -525.68 -14.7504 0.0015 
101 1 1 -0.321533 -0.00720859 -0.241278 0 0 0 -0.758738 0.00998257 -0.305269 6.1543e-06 -1.57203e-06 -0.000352315 -37.5265 -540.998 75.5074 0.0015 
213 1 1 -0.325559 -0.00210688 -0.24348 0 0 0 -0.923552 -0.00290206 -0.473455 0 0 -0.000346714 12.4447 -326.308 43.9774 0.0015 
189 1 1 -0.323214 -0.00356495 -0.242058 0 0 0 -0.971988 -0.0783205 -0.356614 0 0 -0.000346714 86.2385 -656.74 -34.671 0.0015 
73 1 1 -0.32389 0.000344631 -0.24272 0 0 0 -0.944369 0.0211212 -0.418531 0 0 -0.000346714 -20.3279 -686.132 11.1458 0.0015 
208 1 1 -0.328752 0.0150208 -0.242597 0 0 0 -1.04016 0.013282 -0.49062 0 0 -0.00160516 4.40502 -454.321 -25.219 0.0025 
212 1 1 -0.341044 0.0320471 -0.245134 0 0 0 -1.21134 -0.064005 -0.64946 0 0 -0.000346714 143.661 -835.886 -232.941 0.0015 
200 1 1 -0.332704 -0.0308841 -0.241837 0 0 0 -1.08554 0.724256 -0.847714 0 0 -0.000346714 -658.044 -697.46 295.996 0.0015 
193 1 1 -0.324372 -0.0228507 -0.239053 0 0 0 -0.863603 -0.0379659 -0.345115 0 0 -0.00160516 -9.93499 -365.18 66.6137 0.0025 
219 1 1 -0.322112 -0.0157016 -0.239089 0 0 0 -1.12059 0.0505683 -0.522443 0 0 -0.00160516 -56.1869 -418.66 69.1708 0.0025 
183 1 1 -0.325858 -0.0126137 -0.24159 0 0 0 -1.01597 0.136008 -0.423756 0 0 -0.00160516 -29.8089 -330.108 -10.0336 0.0025 
127 1 1 -0.320103 -0.00990542 -0.240537 0 0 0 -0.832466 -0.0567959 -0.346919 7.42686e-05 0.00123645 0.00361804 -2.05242 -548.646 10.5589 0.0015 
59 1 1 -0.318345 -0.00757066 -0.239858 0 0 0 -0.881867 -0.0265124 -0.350102 0 0 -0.000346714 -76.5747 12.1877 1.69621 0.0015 
191 1 1 -0.320865 -0.00407558 -0.239925 0 0 0 -0.906157 0.135654 -0.369055 0 0 -0.000346714 -137.559 -460.796 46.8451 0.0015 
144 1 1 -0.315788 -0.000940352 -0.238126 0 0 0 -0.986585 0.035865 -0.433733 0 0 -0.00160516 -33.7583 -409.909 53.6753 0.0025 
132 1 1 -0.320392 0.000432985 -0.239935 0 0 0 -1.00485 0.0524966 -0.458623 0 0 -0.00160516 10.0497 -300.251 -6.51122 0.0025 
119 1 1 -0.322559 0.00490853 -0.24076 0 0 0 -1.11803 -0.00625777 -0.473354 0.000901914 -0.000106217 -0.00321141 -1.38693 -487.37 9.84626 0.0025 
9 1 1 -0.315642 0.00596366 -0.238863 0 0 0 -0.972026 -0.0902707 -0.414787 -8.8277e-05 -1.31847e-05 -3.78862e-05 76.1885 -703.018 -25.5439 0.0015 
92 1 1 -0.363726 0.00892932 -0.237072 0 0 0 -1.09837 -0.0974242 -0.316424 0 0 -0.00160516 13.3064 -107.421 -112.37 0.0025 
244 1 1 -0.320422 0.0136295 -0.239213 0 0 0 -1.15915 0.0112099 -0.482659 -0.000393611 -0.000183784 -0.000205079 24.769 -497.178 -71.0328 0.0025 
224 1 1 -0.327702 0.022289 -0.241739 0 0 0 -1.21595 -0.0697075 -0.56041 0 0 -0.000346714 69.4761 -885.323 -44.1922 0.0015 
218 1 1 -0.310824 -0.0191311 -0.235351 0 0 0 -1.15084 0.0652238 -0.455111 0 0 -0.000346714 -32.529 -832.632 -32.2433 0.0015 
182 1 1 -0.315609 -0.011767 -0.237354 0 0 0 -0.85864 -0.00951265 -0.391253 0.000109326 0.000669144 0.00101453 -32.4394 -343.931 59.8168 0.0025 
181 1 1 -0.311669 -0.00887534 -0.235572 0 0 0 -0.932214 0.167338 -0.333954 0 0 -0.00160516 -102.985 -347.857 43.8517 0.0025 
206 1 1 -0.316127 -0.00596839 -0.236445 0 0 0 -0.917731 0.0941164 -0.315968 0 0 -0.00160516 -38.1199 -209.285 -21.1038 0.0025 
180 1 1 -0.307243 -0.000593505 -0.234589 0 0 0 -1.05145 -0.0107902 -0.443496 -0.000409652 3.3783e-05 -0.000175641 24.1297 -458.693 -46.047 0.0025 
155 1 1 -0.311456 0.00181648 -0.236155 0 0 0 -1.02307 -0.00790396 -0.383371 0 0 -0.00160516 3.46659 -418.2 12.8455 0.0025 
178 1 1 -0.312848 0.00528907 -0.237687 0 0 0 -0.977513 0.0517692 -0.382106 0 0 -0.000346714 38.1675 -651.287 55.4282 0.0015 
276 1 1 -0.309263 0.0129309 -0.235738 0 0 0 -1.03667 -0.117319 -0.445127 -8.73895e-05 -1.31556e-05 -3.80841e-05 49.9359 -757.13 83.281 0.0015 
262 1 1 -0.320585 0.0280789 -0.237249 0 0 0 -1.27822 0.127846 -0.475871 1.63778e-05 -4.07424e-05 -9.45672e-06 -62.318 -928.96 -90.3309 0.0015 
188 1 1 -0.306492 -0.0284717 -0.231366 0 0 0 -1.14791 0.0761361 -0.50061 0.000373742 -0.000247967 0.000809942 -34.1863 -845.405 -35.4235 0.0015 
259 1 1 -0.310839 -0.0246539 -0.232999 0 0 0 -1.19506 0.0744871 -0.473073 0 0 -0.00160516 -53.9526 -511.262 58.4753 0.0025 
211 1 1 -0.304683 -0.0177362 -0.233039 0 0 0 -0.90151 -0.00951547 -0.401712 0 0 -0.000346714 -80.9554 -316.557 82.8748 0.0015 
225 1 1 -0.305952 -0.0150625 -0.233969 0 0 0 -0.925959 -0.0072582 -0.370053 -3.20981e-05 1.1577e-05 -0.000146736 35.1141 -680.618 -74.7836 0.0015 
145 1 1 -0.305597 -0.00991285 -0.233361 0 0 0 -1.02902 0.205523 -0.450136 0 0 -0.00160516 -123.438 -374.433 -57.7102 0.0025 
168 1 1 -0.301525 -0.00689811 -0.231928 0 0 0 -0.897938 0.0339707 -0.430857 3.84998e-05 -0.000282181 -0.00127293 -41.4926 -366.711 20.8191 0.0025 
126 1 1 -0.303323 -0.00392235 -0.233903 0 0 0 -0.894759 0.0681841 -0.380911 -0.000123977 0.000107327 1.06851e-05 -14.8813 -651.307 -81.4419 0.0015 
216 1 1 -0.297659 -0.00219426 -0.231571 0 0 0 -1.04191 -0.045282 -0.43785 -8.78192e-05 7.28952e-06 -3.7798e-05 38.6538 -755.117 -13.8964 0.0015 
202 1 1 -0.297312 0.00292079 -0.23133 0 0 0 -0.968991 -0.0508706 -0.411615 -8.83031e-05 -1.32842e-05 -3.80696e-05 -10.7397 -709.751 112.999 0.0015 
228 1 1 -0.306642 0.0153128 -0.234225 0 0 0 -1.07838 0.0174082 -0.446493 -8.5198e-05 -3.97158e-05 -4.33898e-05 63.5174 -756.262 -182.894 0.0015 
272 1 1 -0.308735 0.0290304 -0.230969 0 0 0 -1.01016 0.220384 -0.334486 0.000134575 -0.000345662 1.07892e-05 -95.3371 -36.9125 -154.912 0.0025 
293 1 1 -0.317498 0.037072 -0.232896 0 0 0 -1.26927 -0.0987094 -0.552623 -9.34572e-05 -8.04795e-05 -1.52395e-05 74.9415 -959.995 -0.480202 0.0015 
232 1 1 -0.29554 -0.0134917 -0.228776 0 0 0 -1.02908 -0.0584907 -0.426028 -0.00040048 0.000104742 -0.0001878 24.3339 -448.785 2.82635 0.0025 
268 1 1 -0.291136 0.00721321 -0.228453 0 0 0 -0.993897 -0.0702878 -0.42425 -8.91893e-05 -1.35508e-05 -3.65389e-05 82.1537 -716.163 -73.8118 0.0015 
217 1 1 -0.296378 0.0229062 -0.228465 0 0 0 -0.98207 0.176099 -0.375577 9.00158e-06 1.30933e-05 -0.000278692 -106.443 -709.717 -55.2541 0.0015 
305 1 1 -0.302965 0.0314085 -0.228952 0 0 0 -1.10012 -0.0320726 -0.455637 0 0 -0.000346714 39.0422 -809.44 -43.009 0.0015 
287 1 1 -0.302883 0.036775 -0.227131 0 0 0 -1.02497 0.098319 -0.373804 -3.39033e-05 -2.92458e-05 -0.000148097 -4.3535 -711.335 -175.246 0.0015 
247 1 1 -0.287841 -0.00442119 -0.226268 0 0 0 -0.802958 -0.00740488 -0.338367 9.50011e-05 0.000138673 -6.14311e-05 -1.28912 -313.653 -1.84759 0.0025 
147 1 1 -0.284263 -0.00698144 -0.225012 0 0 0 -0.802141 -0.116885 -0.27808 0 0 -0.000346714 153.527 -451.771 -20.0851 0.0015 
109 1 1 -0.281403 -0.00599222 -0.224583 0 0 0 -0.992951 0.0541766 -0.420567 -8.9604e-05 7.24316e-06 -3.52988e-05 -72.26 -716.484 78.3075 0.0015 
124 1 1 -0.282234 -0.00119069 -0.225096 0 0 0 -1.01887 0.0232103 -0.430912 -8.86303e-05 7.0246e-06 -3.77156e-05 -13.4514 -738.303 -7.96183 0.0015 
274 1 1 -0.28698 0.000591738 -0.226032 0 0 0 -0.903605 0.0414894 -0.380742 0 0 -0.00160516 -90.8516 -185.792 32.0217 0.0025 
201 1 1 -0.284937 0.00709572 -0.225847 0 0 0 -0.862212 0.051921 -0.371922 -0.000142658 0.00134879 0.000201777 -36.4953 -627.781 47.1158 0.0015 
249 1 1 -0.28455 0.00418853 -0.225256 0 0 0 -0.910206 0.0507263 -0.356362 -0.000525204 -0.00263945 0.00130146 -51.6159 -558.574 -30.2935 0.0015 
215 1 1 -0.28673 0.0108356 -0.226349 0 0 0 -0.908211 -0.132325 -0.35643 0 0 -0.000346714 124.505 -644.044 -71.3029 0.0015 
239 1 1 -0.288978 0.0150738 -0.226902 0 0 0 -0.87585 0.00425254 -0.361765 0 0 -0.000346714 55.8481 -612.462 -145.018 0.0015 
296 1 1 -0.294057 0.0282904 -0.225192 0 0 0 -1.06844 0.110824 -0.414137 3.34231e-05 1.5547e-05 -0.000419859 -4.91088 -449.191 -107.697 0.0025 
253 1 1 -0.299111 0.0348637 -0.226278 0 0 0 -1.0519 -0.0784406 -0.425008 -0.000133234 -3.09806e-05 -6.74453e-05 153.415 -704.326 -248.146 0.0015 
195 1 1 -0.278523 -0.0108015 -0.221913 0 0 0 -1.00452 0.02296 -0.425847 -0.000464628 0.000122482 -1.66828e-05 -39.2585 -431.065 69.3962 0.0025 
266 1 1 -0.27656 -0.00601309 -0.222539 0 0 0 -0.971273 0.0274132 -0.41154 -6.01919e-05 7.60226e-06 -9.72521e-05 -98.6048 -697.321 186.364 0.0015 
223 1 1 -0.275867 -0.00309561 -0.222344 0 0 0 -0.978754 0.0297337 -0.412956 -2.79001e-05 1.28507e-05 -0.00019823 24.5602 -712.241 -109.203 0.0015 
251 1 1 -0.27136 -0.00212705 -0.220484 0 0 0 -1.01098 0.0184731 -0.424822 -8.71224e-05 6.83681e-06 -4.43321e-05 -15.9653 -731.439 6.19457 0.0015 
118 1 1 -0.279316 0.000386546 -0.222821 0 0 0 -1.01848 0.0145716 -0.428625 -0.000426557 -6.5511e-05 -0.000117782 -10.9897 -443.96 11.0548 0.0025 
235 1 1 -0.274759 0.0052496 -0.221717 0 0 0 -1.02497 0.0169009 -0.419456 -1.44316e-05 8.30779e-07 -0.000255464 -68.9193 -747.61 136.98 0.0015 
281 1 1 -0.277653 0.00950546 -0.22267 0 0 0 -0.959588 -0.0937791 -0.401445 -8.62472e-05 -1.18488e-05 -3.83671e-05 49.4996 -695.91 44.248 0.0015 
160 1 1 -0.274359 0.00902033 -0.221338 0 0 0 -0.933039 -0.0799515 -0.390166 -0.000107238 -1.48361e-05 1.78691e-05 74.5292 -672.109 -40.5322 0.0015 
154 1 1 -0.273864 0.0136287 -0.220721 0 0 0 -0.950462 -0.0477505 -0.415171 0 0 -0.000346714 84.5089 -674.066 -119.453 0.0015 
369 1 1 -0.277048 0.0152945 -0.221791 0 0 0 -0.935264 -0.112695 -0.434015 0 0 -0.000346714 164.635 -649.126 -197.054 0.0015 
156 1 1 -0.284963 0.0270711 -0.221797 0 0 0 -1.06323 -0.114242 -0.435726 -3.47836e-05 8.88447e-05 -0.00191179 86.0455 -445.046 -93.6862 0.0025 
245 1 1 -0.287032 0.0316533 -0.221216 0 0 0 -1.10165 -0.123305 -0.476707 -0.000595122 -0.000460413 0.000277868 72.3447 -480.657 -42.7114 0.0025 
282 1 1 -0.26251 -0.00983028 -0.216398 0 0 0 -0.82342 -0.0681501 -0.336539 -8.81713e-05 2.40772e-05 -3.49656e-05 48.9547 -598.396 1.36874 0.0015 
279 1 1 -0.263221 0.00208967 -0.217004 0 0 0 -0.866916 -0.0768719 -0.372165 -8.86542e-05 -9.77775e-06 -3.92823e-05 101.93 -623.827 -108.577 0.0015 
311 1 1 -0.277525 0.0278938 -0.218436 0 0 0 -1.10348 0.169444 -0.415136 -0.000477428 -0.000349486 4.49751e-06 -54.7814 -482.251 -50.9785 0.0025 
315 1 1 -0.295741 0.0518002 -0.217043 0 0 0 -1.16703 0.0194812 -0.384872 0 0 -0.000346714 70.9022 -797.999 -265.763 0.0015 
250 1 1 -0.270695 -0.0317138 -0.21557 0 0 0 -1.0679 -0.0124055 -0.42628 0 0 -0.000346714 -19.6958 -770.086 76.4424 0.0015 
226 1 1 -0.265503 -0.0247141 -0.215408 0 0 0 -0.88998 0.00144085 -0.388726 0 0 -0.000346714 4.10203 -661.064 -9.11798 0.0015 
295 1 1 -0.261993 -0.0257925 -0.213582 0 0 0 -0.857035 -0.0303187 -0.387162 0 0 -0.000346714 -22.6305 -601.727 114.106 0.0015 
176 1 1 -0.26016 -0.0206507 -0.213881 0 0 0 -0.886828 -0.108469 -0.410367 0 0 -0.000346714 138.887 -593.999 -7.67139 0.0015 
207 1 1 -0.262131 -0.0164945 -0.214381 0 0 0 -0.822645 0.0227788 -0.350417 -0.00051624 0.000147901 7.59248e-05 -44.7309 -349.905 82.3013 0.0025 
278 1 1 -0.259662 -0.0132674 -0.213955 0 0 0 -0.851575 0.0734509 -0.292187 0 0 -0.000346714 -94.0215 -545.778 97.2791 0.0015 
209 1 1 -0.258673 0.00224152 -0.213987 0 0 0 -0.960037 -0.102735 -0.397203 0.00139106 -0.00317098 0.00301323 57.8367 -391.732 29.4115 0.0025 
271 1 1 -0.262564 0.00639572 -0.215437 0 0 0 -0.900964 -0.0329466 -0.383585 -0.000312363 -3.34494e-05 -0.000437797 22.1346 -391.182 -18.3773 0.0025 
86 1 1 -0.257857 0.00732251 -0.214486 0 0 0 -0.841448 -0.0739747 -0.355438 -8.80259e-05 -9.26728e-06 -3.72622e-05 19.713 -612.5 80.8073 0.0015 
290 1 1 -0.256288 0.0123115 -0.213534 0 0 0 -0.976711 -0.16092 -0.437331 -8.6037e-05 -3.0879e-05 -4.58293e-05 139.347 -706.397 -51.2861 0.0015 
265 1 1 -0.340765 0.066427 -0.218727 0 0 0 -0.987278 -0.431775 -0.947133 0 0 -0.000346714 641.773 -429.402 -512.99 0.0015 
306 1 1 -0.258852 -0.0260313 -0.212153 0 0 0 -0.82988 0.00543428 -0.349286 0 0 -0.000346714 -46.1236 -583.402 107.236 0.0015 
242 1 1 -0.252224 -0.0136021 -0.211656 0 0 0 -0.921591 -0.00721774 -0.407589 -0.000801015 0.000231097 0.00463316 -41.8167 -664.621 108.112 0.0015 
299 1 1 -0.261234 -0.0086195 -0.212467 0 0 0 -1.03728 0.153356 -0.406985 0 0 -0.00160516 -58.3535 275.988 -88.0048 0.0025 
170 1 1 -0.255356 -0.00125381 -0.212661 0 0 0 -0.873118 -0.0246001 -0.324878 -0.00162606 0.00133755 -0.00122456 1.71384 -359.178 50.2035 0.0025 
323 1 1 -0.252055 0.00671321 -0.210995 0 0 0 -0.843249 0.0387399 -0.355708 -0.00050248 -4.66825e-05 -5.51581e-05 -15.9095 -366.844 -2.31226 0.0025 
252 1 1 -0.251845 0.014056 -0.211394 0 0 0 -1.02661 -0.0681075 -0.436492 -4.92951e-05 -1.74093e-05 -0.000129487 86.1962 -735.177 -88.0428 0.0015 
134 1 1 -0.257861 0.0180659 -0.213323 0 0 0 -1.00667 -0.147296 -0.448283 -8.96563e-05 -3.25557e-05 -3.13712e-05 153.989 -719.554 -109.396 0.0015 
286 1 1 -0.253064 0.0182538 -0.210185 0 0 0 -1.06216 -0.0610353 -0.450624 -0.000422173 -0.000153187 -0.000110792 33.9438 -462.201 -17.3693 0.0025 
258 1 1 -0.301283 0.0264861 -0.213047 0 0 0 -1.16328 0.149078 -0.684863 0 0 -0.00160516 -87.506 120.216 -42.4668 0.0025 
238 1 1 -0.250699 -0.0299623 -0.207859 0 0 0 -1.05851 0.0276282 -0.464515 0 0 -0.000346714 -53.4141 -759.569 84.3306 0.0015 
236 1 1 -0.247876 -0.0229487 -0.208355 0 0 0 -1.02101 0.0649756 -0.446346 0 0 -0.000346714 -75.3222 -728.289 71.7524 0.0015 
303 1 1 -0.24894 -0.0194322 -0.209314 0 0 0 -0.927578 0.189817 -0.42945 0 0 -0.000346714 -150.856 -667.047 33.4421 0.0015 
275 1 1 -0.243075 -0.0166831 -0.207337 0 0 0 -0.854519 -0.0126624 -0.338585 -8.45071e-05 3.16329e-05 -3.60001e-05 10.0361 -619.755 -2.14627 0.0015 
125 1 1 -0.241605 -0.0100008 -0.207509 0 0 0 -0.857346 0.0264792 -0.380226 -8.4148e-05 1.45708e-05 -5.30513e-05 -18.5907 -626.639 -1.7376 0.0015 
327 1 1 -0.239196 -0.0083604 -0.206571 0 0 0 -0.851789 0.0230761 -0.373341 2.74233e-05 -2.67198e-06 -0.00033913 33.6312 -629.607 -114.038 0.0015 
254 1 1 -0.240436 0.00133235 -0.207376 0 0 0 -0.650143 0.0232621 -0.275787 -8.842e-05 -7.53703e-06 -3.9497e-05 2.49633 -469.889 -45.5204 0.0015 
222 1 1 -0.249546 0.0213342 -0.208267 0 0 0 -1.07558 -0.0315306 -0.449531 -0.000531803 -0.00014157 0.000271913 71.1827 -449.721 -138.684 0.0025 
237 1 1 -0.244762 -0.0342157 -0.204248 0 0 0 -1.02907 -0.0495311 -0.378425 6.48448e-05 0.000507719 0.000620097 17.3262 -723.931 -13.065 0.0015 
350 1 1 -0.242315 -0.0285479 -0.203792 0 0 0 -0.98456 0.036103 -0.379272 0.000760334 -0.000306436 -0.00227236 -43.2211 -316.088 108.292 0.0025 
257 1 1 -0.245038 -0.0244211 -0.205889 0 0 0 -1.02045 0.0551373 -0.437031 -0.00420657 0.00246799 0.011796 -60.2516 -434.185 88.0344 0.0025 
142 1 1 -0.234566 -0.0137191 -0.203049 0 0 0 -0.79427 -0.00783129 -0.32931 -0.000460282 8.69192e-05 -3.05439e-05 7.65818 -345.992 -10.284 0.0025 
302 1 1 -0.234745 0.0060316 -0.204822 0 0 0 -0.816683 -0.0428248 -0.34173 -8.6737e-05 -6.80388e-06 -3.93098e-05 -10.4312 -593.66 99.3249 0.0015 
264 1 1 -0.234234 0.0147081 -0.203886 0 0 0 -0.994934 0.129356 -0.415536 9.94586e-06 5.73753e-05 0.000353178 26.9643 -665.5 -310.37 0.0015 
347 1 1 -0.244263 0.0194828 -0.206321 0 0 0 -1.09893 -0.0311679 -0.458822 -0.000403158 -0.00013853 -0.000172768 3.74034 -483.508 23.8838 0.0025 
241 1 1 -0.23405 0.0179239 -0.203373 0 0 0 -0.86131 0.0411662 -0.360825 -2.75329e-05 -9.1529e-06 -0.000174645 -61.3128 -638.776 73.3682 0.0015 
261 1 1 -0.253297 -0.0466334 -0.203103 0 0 0 -1.12417 0.0594989 -0.498846 0 0 -0.000346714 -100.891 -798.654 149.782 0.0015 
227 1 1 -0.230351 -0.0213615 -0.201301 0 0 0 -0.803562 0.0957181 -0.348237 -8.38147e-05 4.15254e-05 -4.27292e-05 -99.2641 -574.829 71.053 0.0015 
234 1 1 -0.22736 -0.0194819 -0.199359 0 0 0 -0.787934 0.047893 -0.322526 0.0018432 -0.00637117 0.00413546 -25.5956 -340.779 7.41769 0.0025 
406 1 1 -0.229203 -0.0166956 -0.201528 0 0 0 -0.849101 -0.100101 -0.473741 -0.000200126 0.00712811 -0.00662607 206.508 -557.584 -74.7352 0.0015 
162 1 1 -0.225868 -0.0155879 -0.200285 0 0 0 -0.798028 0.0863332 -0.349454 -9.09304e-05 1.92162e-05 -3.51289e-05 -131.515 -566.527 160.379 0.0015 
263 1 1 -0.223091 -0.0109645 -0.199513 0 0 0 -0.83606 -0.00546458 -0.3681 0.000109842 5.00197e-05 0.000145238 37.5744 -613.184 -80.5818 0.0015 