ITEM: TIMESTEP
10400
ITEM: NUMBER OF ATOMS
141
ITEM: BOX BOUNDS ff ff ff
-0.5 0.1
-0.2 0.2
-0.4 0.15
ITEM: ATOMS id type type x y z ix iy iz vx vy vz fx fy fz omegax omegay omegaz radius 
12 1 1 -0.00894204 -0.00172108 -0.100764 0 0 0 0 0 -1.98949 0 0 -0.000346714 0 0 0 0.0015 
5 1 1 -0.0106535 0.00311808 -0.10021 0 0 0 0 0 -1.98674 0 0 -0.000346714 0 0 0 0.0015 
1 1 1 -0.00174714 -0.029557 -0.0974934 0 0 0 0 0 -1.9733 0 0 -0.00160516 0 0 0 0.0025 
2 1 1 -0.0346734 -0.00599195 -0.0979762 0 0 0 0 0 -1.97565 0 0 -0.00160516 0 0 0 0.0025 
11 1 1 -0.0241534 0.031784 -0.0995145 0 0 0 0 0 -1.98331 0 0 -0.000346714 0 0 0 0.0015 
4 1 1 -0.0255875 0.0216478 -0.0951784 0 0 0 0 0 -1.96172 0 0 -0.00160516 0 0 0 0.0025 
8 1 1 -0.00953586 -0.0287916 -0.0914678 0 0 0 0 0 -1.94308 0 0 -0.000346714 0 0 0 0.0015 
7 1 1 -0.00462371 -0.0298822 -0.0876234 0 0 0 0 0 -1.92356 0 0 -0.000346714 0 0 0 0.0015 
10 1 1 -0.0270088 -0.00882918 -0.0878143 0 0 0 0 0 -1.92454 0 0 -0.000346714 0 0 0 0.0015 
3 1 1 -0.0134792 0.0074157 -0.0859488 0 0 0 0 0 -1.91503 0 0 -0.00160516 0 0 0 0.0025 
6 1 1 -0.0266102 0.013684 -0.0859862 0 0 0 0 0 -1.91522 0 0 -0.000346714 0 0 0 0.0015 
24 1 1 -0.0202974 -0.0206343 -0.0818592 0 0 0 0 0 -1.89394 0 0 -0.000346714 0 0 0 0.0015 
25 1 1 -0.00857183 0.0107813 -0.0842664 0 0 0 0 0 -1.90639 0 0 -0.000346714 0 0 0 0.0015 
16 1 1 -0.00408721 0.01129 -0.0818152 0 0 0 0 0 -1.89374 0 0 -0.00160516 0 0 0 0.0025 
9 1 1 -0.0280307 0.022667 -0.0849023 0 0 0 0 0 -1.90963 0 0 -0.000346714 0 0 0 0.0015 
22 1 1 -0.0083641 -0.0195 -0.0804323 0 0 0 0 0 -1.88658 0 0 -0.000346714 0 0 0 0.0015 
19 1 1 -0.0101549 -0.00442827 -0.0785193 0 0 0 0 0 -1.87657 0 0 -0.000346714 0 0 0 0.0015 
17 1 1 -0.0253454 -0.000700049 -0.0795507 0 0 0 0 0 -1.88197 0 0 -0.000346714 0 0 0 0.0015 
18 1 1 -0.0335467 0.0344165 -0.0809889 0 0 0 0 0 -1.88942 0 0 -0.000346714 0 0 0 0.0015 
15 1 1 -0.00454319 -0.0294115 -0.0767919 0 0 0 0 0 -1.86755 0 0 -0.00160516 0 0 0 0.0025 
21 1 1 -0.0333391 -0.019004 -0.0733572 0 0 0 0 0 -1.8494 0 0 -0.000346714 0 0 0 0.0015 
14 1 1 -0.00618745 0.0189444 -0.0733771 0 0 0 0 0 -1.8495 0 0 -0.00160516 0 0 0 0.0025 
20 1 1 -0.0332823 -0.00448395 -0.0684173 0 0 0 0 0 -1.82301 0 0 -0.000346714 0 0 0 0.0015 
13 1 1 -0.00741847 0.0112937 -0.0667662 0 0 0 0 0 -1.81408 0 0 -0.00160516 0 0 0 0.0025 
23 1 1 -0.0165601 0.0229939 -0.0658917 0 0 0 0 0 -1.80937 0 0 -0.000346714 0 0 0 0.0015 
35 1 1 -0.0138262 0.0291618 -0.0641213 0 0 0 0 0 -1.79976 0 0 -0.000346714 0 0 0 0.0015 
29 1 1 -0.022531 -0.00019371 -0.0626566 0 0 0 0 0 -1.79172 0 0 -0.00160516 0 0 0 0.0025 
27 1 1 -0.000459601 0.00699661 -0.0606302 0 0 0 0 0 -1.78063 0 0 -0.00160516 0 0 0 0.0025 
37 1 1 -0.0127396 -0.0117751 -0.0596543 0 0 0 0 0 -1.77524 0 0 -0.000346714 0 0 0 0.0015 
32 1 1 -0.0290883 0.000876534 -0.0582171 0 0 0 0 0 -1.76729 0 0 -0.000346714 0 0 0 0.0015 
38 1 1 -0.0254317 0.00979368 -0.0594761 0 0 0 0 0 -1.77425 0 0 -0.000346714 0 0 0 0.0015 
34 1 1 -0.0177649 0.0224168 -0.0573578 0 0 0 0 0 -1.76248 0 0 -0.000346714 0 0 0 0.0015 
26 1 1 -0.0219947 -0.0332201 -0.0561958 0 0 0 0 0 -1.75601 0 0 -0.00160516 0 0 0 0.0025 
28 1 1 -0.0160817 -0.03192 -0.0537694 0 0 0 0 0 -1.74237 0 0 -0.00160516 0 0 0 0.0025 
36 1 1 -0.0230202 -0.0250033 -0.0559464 0 0 0 0 0 -1.75463 0 0 -0.000346714 0 0 0 0.0015 
33 1 1 -0.020721 -0.0278475 -0.0521282 0 0 0 0 0 -1.73315 0 0 -0.000346714 0 0 0 0.0015 
30 1 1 -0.0159539 -0.0280969 -0.0480382 0 0 0 0 0 -1.7098 0 0 -0.00160516 0 0 0 0.0025 
31 1 1 -0.0297813 -0.0200888 -0.04935 0 0 0 0 0 -1.71736 0 0 -0.000346714 0 0 0 0.0015 
40 1 1 -0.00180681 -0.0218065 -0.0428479 0 0 0 0 0 -1.67978 0 0 -0.00160516 0 0 0 0.0025 
39 1 1 -0.0159102 0.00235532 -0.0436845 0 0 0 0 0 -1.68469 0 0 -0.00160516 0 0 0 0.0025 
44 1 1 -0.022228 0.00485213 -0.0431044 0 0 0 0 0 -1.68126 0 0 -0.000346714 0 0 0 0.0015 
45 1 1 -0.0097629 0.0296421 -0.0447205 0 0 0 0 0 -1.69067 0 0 -0.000346714 0 0 0 0.0015 
48 1 1 -0.022804 -0.0315502 -0.0354487 0 0 0 0 0 -1.63603 0 0 -0.000346714 0 0 0 0.0015 
46 1 1 -0.0105626 -0.0145818 -0.0363187 0 0 0 0 0 -1.64123 0 0 -0.000346714 0 0 0 0.0015 
50 1 1 -0.0279742 -1.04943e-05 -0.037702 0 0 0 0 0 -1.64947 0 0 -0.000346714 0 0 0 0.0015 
47 1 1 -0.0218847 0.0256262 -0.0373902 0 0 0 0 0 -1.64761 0 0 -0.000346714 0 0 0 0.0015 
42 1 1 -0.0160508 0.0304724 -0.0368634 0 0 0 0 0 -1.64447 0 0 -0.00160516 0 0 0 0.0025 
51 1 1 -0.0175025 -0.0121213 -0.0344363 0 0 0 0 0 -1.62995 0 0 -0.000346714 0 0 0 0.0015 
49 1 1 -0.0312011 0.00531382 -0.0325055 0 0 0 0 0 -1.61828 0 0 -0.000346714 0 0 0 0.0015 
43 1 1 -0.0196938 0.0042356 -0.0323742 0 0 0 0 0 -1.61749 0 0 -0.000346714 0 0 0 0.0015 
41 1 1 -0.0294843 -0.0347245 -0.0302324 0 0 0 0 0 -1.60444 0 0 -0.00160516 0 0 0 0.0025 
52 1 1 -0.0302313 -0.00571197 -0.0296246 0 0 0 0 0 -1.60072 0 0 -0.00160516 0 0 0 0.0025 
54 1 1 -0.0046838 0.0252416 -0.0293522 0 0 0 0 0 -1.59905 0 0 -0.00160516 0 0 0 0.0025 
58 1 1 -0.00481478 0.0323336 -0.0289838 0 0 0 0 0 -1.59679 0 0 -0.000346714 0 0 0 0.0015 
53 1 1 -0.00163565 -0.0222313 -0.0255777 0 0 0 0 0 -1.5757 0 0 -0.00160516 0 0 0 0.0025 
56 1 1 -0.0221544 -0.0176068 -0.026588 0 0 0 0 0 -1.58198 0 0 -0.000346714 0 0 0 0.0015 
57 1 1 -0.0185443 0.0109203 -0.0261182 0 0 0 0 0 -1.57904 0 0 -0.000346714 0 0 0 0.0015 
62 1 1 -0.0131635 0.0258143 -0.0271135 0 0 0 0 0 -1.58522 0 0 -0.000346714 0 0 0 0.0015 
59 1 1 -0.00206763 -0.0165007 -0.023911 0 0 0 0 0 -1.5653 0 0 -0.000346714 0 0 0 0.0015 
60 1 1 -0.0250204 0.00245318 -0.0238992 0 0 0 0 0 -1.5652 0 0 -0.000346714 0 0 0 0.0015 
55 1 1 -0.0188291 -0.0247488 -0.0187869 0 0 0 0 0 -1.53283 0 0 -0.00160516 0 0 0 0.0025 
63 1 1 -0.0205837 -0.0117427 -0.0188649 0 0 0 0 0 -1.53332 0 0 -0.000346714 0 0 0 0.0015 
61 1 1 -0.0136213 0.0102173 -0.0171937 0 0 0 0 0 -1.52263 0 0 -0.000346714 0 0 0 0.0015 
64 1 1 -0.00322644 0.00785004 -0.0202137 0 0 0 0 0 -1.54195 0 0 -0.000346714 0 0 0 0.0015 
73 1 1 -0.00317446 -0.00307391 -0.0146351 0 0 0 0 0 -1.50605 0 0 -0.000346714 0 0 0 0.0015 
68 1 1 -0.0183282 0.020832 -0.0135983 0 0 0 0 0 -1.49928 0 0 -0.00160516 0 0 0 0.0025 
67 1 1 -0.0086291 0.0212435 -0.0120314 0 0 0 0 0 -1.48898 0 0 -0.00160516 0 0 0 0.0025 
69 1 1 -0.00331379 0.000112052 -0.00768533 0 0 0 0 0 -1.46004 0 0 -0.000346714 0 0 0 0.0015 
70 1 1 -0.0161255 0.0259916 -0.00776988 0 0 0 0 0 -1.46063 0 0 -0.000346714 0 0 0 0.0015 
71 1 1 -0.0132118 -0.0142448 -0.00314799 0 0 0 0 0 -1.42924 0 0 -0.000346714 0 0 0 0.0015 
76 1 1 -0.0101315 -0.00307891 -0.00489369 0 0 0 0 0 -1.4412 0 0 -0.000346714 0 0 0 0.0015 
74 1 1 -0.0313469 0.00594264 -0.00628713 0 0 0 0 0 -1.45062 0 0 -0.000346714 0 0 0 0.0015 
65 1 1 -0.021885 0.00637934 -0.00385733 0 0 0 0 0 -1.43414 0 0 -0.00160516 0 0 0 0.0025 
75 1 1 -0.0222205 0.0252752 -0.00349907 0 0 0 0 0 -1.43169 0 0 -0.000346714 0 0 0 0.0015 
66 1 1 -0.0113639 -0.028821 -0.00251923 0 0 0 0 0 -1.42492 0 0 -0.00160516 0 0 0 0.0025 
88 1 1 -0.0246928 0.0149576 0.000679853 0 0 0 0 0 -1.40275 0 0 -0.000346714 0 0 0 0.0015 
72 1 1 -0.0339596 0.0247152 -0.00236532 0 0 0 0 0 -1.42384 0 0 -0.000346714 0 0 0 0.0015 
79 1 1 -0.016039 -0.0311912 0.0033776 0 0 0 0 0 -1.38372 0 0 -0.00160516 0 0 0 0.0025 
78 1 1 -0.0338446 -0.00790771 0.00444027 0 0 0 0 0 -1.37616 0 0 -0.00160516 0 0 0 0.0025 
83 1 1 -0.006758 -0.00933802 0.00384901 0 0 0 0 0 -1.38038 0 0 -0.000346714 0 0 0 0.0015 
81 1 1 -0.0138041 0.00231809 0.00199493 0 0 0 0 0 -1.39353 0 0 -0.000346714 0 0 0 0.0015 
77 1 1 -0.00512449 0.0194276 0.00149034 0 0 0 0 0 -1.39706 0 0 -0.00160516 0 0 0 0.0025 
89 1 1 -0.0166674 -0.0133665 0.00779384 0 0 0 0 0 -1.35203 0 0 -0.000346714 0 0 0 0.0015 
84 1 1 -0.0307162 0.0123479 0.00675268 0 0 0 0 0 -1.35959 0 0 -0.000346714 0 0 0 0.0015 
85 1 1 -0.0261342 0.0289343 0.00559057 0 0 0 0 0 -1.36792 0 0 -0.000346714 0 0 0 0.0015 
87 1 1 -0.0216846 0.010562 0.0108401 0 0 0 0 0 -1.32976 0 0 -0.000346714 0 0 0 0.0015 
82 1 1 -0.011833 0.030812 0.0110511 0 0 0 0 0 -1.32819 0 0 -0.000346714 0 0 0 0.0015 
102 1 1 -0.0267621 -0.0316048 0.0127055 0 0 0 0 0 -1.31593 0 0 -0.000346714 0 0 0 0.0015 
80 1 1 -0.0153514 -0.0285466 0.0122745 0 0 0 0 0 -1.31917 0 0 -0.00160516 0 0 0 0.0025 
86 1 1 -0.0266174 0.0340944 0.0122357 0 0 0 0 0 -1.31946 0 0 -0.000346714 0 0 0 0.0015 
100 1 1 -0.0135716 -0.0190259 0.0179913 0 0 0 0 0 -1.27591 0 0 -0.000346714 0 0 0 0.0015 
95 1 1 -0.016986 -0.00213434 0.0154997 0 0 0 0 0 -1.29494 0 0 -0.000346714 0 0 0 0.0015 
98 1 1 -0.0294235 0.0177987 0.0175717 0 0 0 0 0 -1.27914 0 0 -0.000346714 0 0 0 0.0015 
94 1 1 -0.0329725 0.0296342 0.0166466 0 0 0 0 0 -1.28621 0 0 -0.00160516 0 0 0 0.0025 
97 1 1 -0.020149 -0.0334448 0.0194403 0 0 0 0 0 -1.26472 0 0 -0.000346714 0 0 0 0.0015 
91 1 1 -0.0292811 0.00645928 0.0200268 0 0 0 0 0 -1.26021 0 0 -0.00160516 0 0 0 0.0025 
92 1 1 -0.0333375 0.0110949 0.0195789 0 0 0 0 0 -1.26364 0 0 -0.00160516 0 0 0 0.0025 
90 1 1 -0.0143727 0.015853 0.0210268 0 0 0 0 0 -1.25236 0 0 -0.00160516 0 0 0 0.0025 
99 1 1 -0.00439906 0.0240922 0.0203791 0 0 0 0 0 -1.25746 0 0 -0.000346714 0 0 0 0.0015 
101 1 1 -0.00739645 -0.0185545 0.0231022 0 0 0 0 0 -1.23598 0 0 -0.000346714 0 0 0 0.0015 
113 1 1 -0.0275469 -0.0163611 0.0259282 0 0 0 0 0 -1.21342 0 0 -0.000346714 0 0 0 0.0015 
114 1 1 -0.0102956 -0.00169209 0.0256113 0 0 0 0 0 -1.21597 0 0 -0.000346714 0 0 0 0.0015 
93 1 1 -0.0265909 0.0159092 0.0232915 0 0 0 0 0 -1.23451 0 0 -0.00160516 0 0 0 0.0025 
96 1 1 -0.0159897 0.0274334 0.0233536 0 0 0 0 0 -1.23402 0 0 -0.000346714 0 0 0 0.0015 
115 1 1 -0.0161861 -0.026381 0.0283761 0 0 0 0 0 -1.1934 0 0 -0.000346714 0 0 0 0.0015 
105 1 1 -0.00301846 -0.0111451 0.0289649 0 0 0 0 0 -1.1886 0 0 -0.00160516 0 0 0 0.0025 
107 1 1 -0.0273253 -0.00441029 0.0296828 0 0 0 0 0 -1.18261 0 0 -0.00160516 0 0 0 0.0025 
106 1 1 -0.00205293 -0.0206571 0.0312926 0 0 0 0 0 -1.16917 0 0 -0.00160516 0 0 0 0.0025 
111 1 1 -0.0318002 -0.0148599 0.0331201 0 0 0 0 0 -1.15377 0 0 -0.000346714 0 0 0 0.0015 
112 1 1 -0.0112712 -0.00229192 0.0312767 0 0 0 0 0 -1.16937 0 0 -0.000346714 0 0 0 0.0015 
110 1 1 -0.0135333 0.000602269 0.030495 0 0 0 0 0 -1.17584 0 0 -0.000346714 0 0 0 0.0015 
103 1 1 -0.00791609 0.00384723 0.0305007 0 0 0 0 0 -1.17584 0 0 -0.00160516 0 0 0 0.0025 
104 1 1 -0.0192779 0.00722911 0.0319633 0 0 0 0 0 -1.16358 0 0 -0.00160516 0 0 0 0.0025 
109 1 1 -2.29018e-06 0.0149512 0.0310128 0 0 0 0 0 -1.17153 0 0 -0.000346714 0 0 0 0.0015 
108 1 1 -0.0322225 0.032442 0.0342535 0 0 0 0 0 -1.14406 0 0 -0.000346714 0 0 0 0.0015 
123 1 1 -0.0125841 -0.0111545 0.0390547 0 0 0 0 0 -1.10217 0 0 -0.000346714 0 0 0 0.0015 
125 1 1 -0.00679321 -0.00388229 0.0399056 0 0 0 0 0 -1.09452 0 0 -0.000346714 0 0 0 0.0015 
126 1 1 -0.0148309 -0.0333609 0.0438148 0 0 0 0 0 -1.05891 0 0 -0.000346714 0 0 0 0.0015 
120 1 1 -0.0125785 -0.0210623 0.0408476 0 0 0 0 0 -1.08608 0 0 -0.00160516 0 0 0 0.0025 
122 1 1 -0.0191843 -0.0162196 0.0419598 0 0 0 0 0 -1.07598 0 0 -0.000346714 0 0 0 0.0015 
117 1 1 -0.0143544 -0.00143019 0.0415508 0 0 0 0 0 -1.07971 0 0 -0.00160516 0 0 0 0.0025 
121 1 1 -0.0290047 0.00352617 0.0436373 0 0 0 0 0 -1.06058 0 0 -0.000346714 0 0 0 0.0015 
138 1 1 -0.0188235 -0.0335238 0.0477713 0 0 0 0 0 -1.02163 0 0 -0.000346714 0 0 0 0.0015 
127 1 1 -0.0227292 -0.0112057 0.0451139 0 0 0 0 0 -1.04684 0 0 -0.000346714 0 0 0 0.0015 
128 1 1 -0.0208061 0.000145103 0.045143 0 0 0 0 0 -1.04655 0 0 -0.000346714 0 0 0 0.0015 
116 1 1 -0.0158354 0.0147935 0.0446227 0 0 0 0 0 -1.05145 0 0 -0.00160516 0 0 0 0.0025 
124 1 1 -0.0114065 0.0295451 0.0454751 0 0 0 0 0 -1.04341 0 0 -0.000346714 0 0 0 0.0015 
119 1 1 -0.00304704 0.0316877 0.047538 0 0 0 0 0 -1.02389 0 0 -0.00160516 0 0 0 0.0025 
118 1 1 -0.00193271 -0.0127941 0.0482186 0 0 0 0 0 -1.01731 0 0 -0.00160516 0 0 0 0.0025 
132 1 1 -0.010147 0.00134815 0.0508586 0 0 0 -0 0 -1 0 0 0 0 0 0 0.0025 
139 1 1 -0.00401145 0.0125644 0.0499831 0 0 0 0 0 -1.00015 0 0 -0.000346714 0 0 0 0.0015 
133 1 1 -0.0167258 0.0295222 0.0499678 0 0 0 0 0 -1.00034 0 0 -0.000346714 0 0 0 0.0015 
137 1 1 -0.0331578 -0.0315972 0.0540882 0 0 0 -0 0 -1 0 0 0 0 0 0 0.0015 
131 1 1 -0.0142543 -0.0235946 0.0515374 0 0 0 -0 0 -1 0 0 0 0 0 0 0.0025 
136 1 1 -0.0156127 0.0122027 0.0541052 0 0 0 -0 0 -1 0 0 0 0 0 0 0.0015 
130 1 1 -0.0316516 0.0258079 0.052524 0 0 0 -0 0 -1 0 0 0 0 0 0 0.0025 
140 1 1 -0.0309894 0.0333632 0.0523644 0 0 0 -0 0 -1 0 0 0 0 0 0 0.0015 
129 1 1 -0.0150343 -0.00254225 0.0564688 0 0 0 -0 0 -1 0 0 0 0 0 0 0.0025 
141 1 1 -0.00445669 0.0136763 0.0560853 0 0 0 -0 0 -1 0 0 0 0 0 0 0.0015 
134 1 1 -0.021642 0.0141125 0.055619 0 0 0 -0 0 -1 0 0 0 0 0 0 0.0015 
135 1 1 -0.00584464 0.0229092 0.0552685 0 0 0 -0 0 -1 0 0 0 0 0 0 0.0015 
