ITEM: TIMESTEP
70800
ITEM: NUMBER OF ATOMS
796
ITEM: BOX BOUNDS ff ff ff
-0.5 0.1
-0.2 0.2
-0.4 0.15
ITEM: ATOMS id type type x y z ix iy iz vx vy vz fx fy fz omegax omegay omegaz radius 
906 1 1 -0.008826 0.00936949 0.0512367 0 0 0 -0 0 -1 0 0 0 0 0 0 0.0015 
901 1 1 -0.0287893 -0.0314634 0.0525428 0 0 0 -0 0 -1 0 0 0 0 0 0 0.0025 
910 1 1 -0.0291743 0.0064272 0.0494415 0 0 0 0 0 -1.00544 0 0 -0.000346714 0 0 0 0.0015 
902 1 1 -0.0134181 0.031161 0.0503102 0 0 0 -0 0 -1 0 0 0 0 0 0 0.0015 
909 1 1 -0.00616762 0.0194192 0.0482446 0 0 0 0 0 -1.01712 0 0 -0.000346714 0 0 0 0.0015 
900 1 1 -0.0234341 0.0158716 0.053427 0 0 0 -0 0 -1 0 0 0 0 0 0 0.0025 
904 1 1 -0.0150138 -0.00823537 0.048978 0 0 0 0 0 -1.00996 0 0 -0.000346714 0 0 0 0.0015 
100 1 1 -0.488097 -0.0204517 -0.399874 0 0 0 -1.21133 -0.0835917 -1.82864 0 0 -0.000346714 77.6811 -875.877 -41.6933 0.0015 
94 1 1 -0.494947 -0.0111619 -0.396386 0 0 0 -1.17995 -0.0823339 -1.74558 0 0 -0.00160516 23.4741 -455.182 -153.871 0.0025 
128 1 1 -0.478829 -0.00960466 -0.396591 0 0 0 -1.14817 -0.0638436 -1.79363 0 0 -0.000346714 11.9702 -723.931 26.743 0.0015 
203 1 1 -0.467578 -0.020043 -0.396307 0 0 0 -1.02773 -0.162521 -1.83945 0 0 -0.000346714 -32.8074 -744.114 -97.5735 0.0015 
54 1 1 -0.47194 0.00225365 -0.395009 0 0 0 -1.09805 -0.0500744 -1.80306 0 0 -0.00160516 39.2195 -475.791 -40.5462 0.0025 
89 1 1 -0.46761 -0.0143608 -0.389818 0 0 0 -1.13108 -0.342886 -1.8165 0 0 -0.000346714 292.773 -820.8 -86.9371 0.0015 
158 1 1 -0.48099 -0.0104191 -0.392075 0 0 0 -1.18623 -0.0522831 -1.81872 0 0 -0.00160516 10.2226 -483.236 40.6446 0.0025 
93 1 1 -0.48329 -0.0151975 -0.385814 0 0 0 -1.24383 -0.0567742 -1.72263 0 0 -0.00160516 -15.2321 -486.66 91.1171 0.0025 
112 1 1 -0.478711 -0.0148016 -0.389945 0 0 0 -1.25116 0.0177169 -1.88419 0 0 -0.000346714 57.3328 -558.85 385.875 0.0015 
13 1 1 -0.47137 -0.012805 -0.387163 0 0 0 -1.1304 -0.0348486 -1.77195 0 0 -0.00160516 74.1335 -492.073 -31.9773 0.0025 
269 1 1 -0.481136 0.00842266 -0.387236 0 0 0 -1.28197 -0.00784036 -1.78496 0 0 -0.000346714 126.428 -909.389 -185.444 0.0015 
243 1 1 -0.473892 0.0177829 -0.382448 0 0 0 -1.20826 0.213882 -1.73917 0 0 -0.000346714 -205.047 -857.591 128.246 0.0015 
130 1 1 -0.479474 -0.00658015 -0.381236 0 0 0 -1.19787 -0.129305 -1.71926 0 0 -0.00160516 64.5069 -519.33 -75.6691 0.0025 
159 1 1 -0.460186 -0.00222682 -0.377058 0 0 0 -1.09726 0.144829 -1.71575 0 0 -0.000346714 -70.3077 -799.299 -45.3437 0.0015 
68 1 1 -0.466598 0.000978702 -0.37634 0 0 0 -1.1539 -0.0331372 -1.69889 0 0 -0.00160516 15.0556 -483.325 -36.6526 0.0025 
199 1 1 -0.44585 0.00779622 -0.375941 0 0 0 -1.08435 -0.061576 -1.74757 0 0 -0.000346714 403.501 -676.786 42.8433 0.0015 
196 1 1 -0.472632 0.0220124 -0.375464 0 0 0 -1.21401 -0.0146728 -1.71742 0 0 -0.00160516 17.0199 -530.87 -25.7927 0.0025 
256 1 1 -0.476026 -0.00875125 -0.371971 0 0 0 -1.235 0.159882 -1.58259 0 0 -0.000346714 -70.7916 -791.862 62.1996 0.0015 
233 1 1 -0.472372 -0.00270201 -0.370492 0 0 0 -1.23505 0.160675 -1.682 0 0 -0.00160516 -106.123 -516.404 94.0733 0.0025 
190 1 1 -0.460696 0.0187809 -0.370642 0 0 0 -1.13495 0.0081687 -1.66714 0 0 -0.000346714 -12.7155 -837.309 14.3686 0.0015 
173 1 1 -0.445362 0.00289603 -0.366334 0 0 0 -1.09788 -0.151981 -1.68732 0 0 -0.000346714 272.386 -707.869 -24.3477 0.0015 
110 1 1 -0.43741 -0.0196742 -0.361507 0 0 0 -0.938657 -0.136414 -1.57719 0 0 -0.000346714 17.4258 -542.259 -2.09917 0.0015 
289 1 1 -0.431406 0.0165852 -0.361091 0 0 0 -1.01351 -0.0734463 -1.67141 0 0 -0.000346714 -9.09044 -543.624 102.941 0.0015 
169 1 1 -0.437487 0.00286051 -0.359019 0 0 0 -0.993969 -0.0523926 -1.63345 0 0 -0.00160516 -74.29 -423.412 -21.6146 0.0025 
194 1 1 -0.443511 0.0086038 -0.353967 0 0 0 -1.10952 0.496096 -1.67347 0 0 -0.00160516 -298.467 -421.307 192.778 0.0025 
184 1 1 -0.451094 -0.00379712 -0.346004 0 0 0 -1.27399 -0.271361 -1.52848 0 0 -0.000346714 213.733 -888.409 -42.4456 0.0015 
163 1 1 -0.430248 0.00301456 -0.347472 0 0 0 -1.01231 0.0128169 -1.5128 0 0 -0.000346714 31.6847 -707.681 7.95581 0.0015 
67 1 1 -0.447643 0.00906076 -0.347738 0 0 0 -1.15993 -0.025382 -1.49609 0 0 -0.00160516 75.5539 -398.094 -46.3078 0.0025 
204 1 1 -0.435239 0.0171812 -0.348187 0 0 0 -0.99054 -0.185185 -1.55653 0 0 -0.000346714 209.691 -691.083 -169.486 0.0015 
150 1 1 -0.440187 -0.0305371 -0.343388 0 0 0 -1.1301 -0.0472229 -1.51497 0 0 -0.000346714 -99.481 -786.221 286.276 0.0015 
65 1 1 -0.434705 -0.00861791 -0.344601 0 0 0 -1.02736 -0.0275412 -1.48711 0 0 -0.00160516 36.4644 -448.4 -58.5931 0.0025 
187 1 1 -0.43871 -0.00512934 -0.341774 0 0 0 -1.03602 -0.166614 -1.45185 0 0 -0.000346714 -94.216 -487.749 108.677 0.0015 
151 1 1 -0.438958 0.00519679 -0.344153 0 0 0 -1.09504 0.00521485 -1.48455 0 0 -0.000346714 -73.6914 -748.728 -85.419 0.0015 
131 1 1 -0.433949 -0.000339562 -0.339025 0 0 0 -1.06047 0.0127585 -1.44898 0 0 -0.00160516 -21.5098 -451.351 42.9886 0.0025 
95 1 1 -0.428239 0.0075836 -0.339808 0 0 0 -1.01777 0.0447613 -1.45153 0 0 -0.000346714 -79.8216 -745.486 109.778 0.0015 
143 1 1 -0.439607 0.00096808 -0.335826 0 0 0 -1.20098 0.209653 -1.47172 0 0 -0.00160516 -144.076 -500.166 126.817 0.0025 
90 1 1 -0.427268 -0.0011669 -0.336209 0 0 0 -1.04056 0.00988612 -1.44116 0 0 -0.00160516 10.5195 -430.119 -30.2997 0.0025 
148 1 1 -0.416583 0.00695042 -0.336323 0 0 0 -0.891873 -0.0193385 -1.46963 0 0 -0.000346714 289.653 -341.242 14.0345 0.0015 
177 1 1 -0.431017 -0.00435467 -0.33044 0 0 0 -1.14715 0.132664 -1.41446 0 0 -0.000346714 -58.4485 -848.324 -95.2034 0.0015 
136 1 1 -0.433553 0.0031625 -0.330618 0 0 0 -1.0506 -0.0410702 -1.36575 0 0 -0.000346714 -18.4602 -729.004 -118.572 0.0015 
161 1 1 -0.41124 0.000911589 -0.328922 0 0 0 -0.97153 -0.167016 -1.47641 0 0 -0.000346714 -239.173 -98.2788 84.1176 0.0015 
172 1 1 -0.402273 0.015687 -0.32988 0 0 0 -0.764985 0.0184259 -1.36362 0 0 -0.000346714 -36.3449 -204.036 -265.701 0.0015 
214 1 1 -0.429387 -0.0285307 -0.324368 0 0 0 -1.18569 0.111194 -1.44264 0 0 -0.000346714 -83.0994 -915.365 -4.93271 0.0015 
210 1 1 -0.424431 0.016192 -0.32329 0 0 0 -1.11113 -0.00942351 -1.3643 0 0 -0.00160516 37.4291 -475.028 -78.8357 0.0025 
198 1 1 -0.433381 -0.0287654 -0.321242 0 0 0 -1.13758 0.116921 -1.37568 0 0 -0.000346714 -80.478 -897.555 -10.3047 0.0015 
175 1 1 -0.423141 -0.00755344 -0.320407 0 0 0 -1.02761 -0.216481 -1.2398 0 0 -0.000346714 187.482 -634.926 88.5663 0.0015 
153 1 1 -0.412253 -0.00517415 -0.316838 0 0 0 -1.01583 -0.0284624 -1.28089 0 0 -0.000346714 -45.0149 -722.203 160.275 0.0015 
212 1 1 -0.42826 0.0274387 -0.317322 0 0 0 -1.21134 -0.064005 -1.35578 0 0 -0.000346714 143.661 -835.886 -232.941 0.0015 
221 1 1 -0.421488 -0.0221276 -0.311434 0 0 0 -1.19685 0.0788713 -1.31423 0 0 -0.00160516 46.1343 -420.092 62.5528 0.0025 
15 1 1 -0.402724 -0.0109917 -0.311818 0 0 0 -1.00466 0.0302447 -1.29837 0 0 -0.00160516 -52.1407 -288.095 58.0442 0.0025 
167 1 1 -0.405472 -0.00378248 -0.309399 0 0 0 -0.984101 -0.00310899 -1.22692 0 0 -0.00160516 3.00523 -426.073 -3.53896 0.0025 
123 1 1 -0.406948 0.00653512 -0.309139 0 0 0 -1.05613 0.0224199 -1.23395 0 0 -0.000346714 3.88147 -763.446 -47.503 0.0015 
265 1 1 -0.41185 0.0353392 -0.312348 0 0 0 -0.987278 -0.431775 -1.65345 0 0 -0.000346714 641.773 -429.402 -512.99 0.0015 
224 1 1 -0.415251 0.0172701 -0.307516 0 0 0 -1.21595 -0.0697075 -1.26673 0 0 -0.000346714 69.4761 -885.323 -44.1922 0.0015 
200 1 1 -0.387227 -0.0294159 -0.303632 0 0 0 -0.763939 -0.0851092 -1.24719 0 0 -0.000346714 -272.422 -116.611 -16.6336 0.0015 
205 1 1 -0.4033 -0.0169874 -0.304408 0 0 0 -1.0625 -0.0173898 -1.24483 0 0 -0.000346714 -10.5004 -705.017 -133.94 0.0015 
219 1 1 -0.402356 -0.0119757 -0.301115 0 0 0 -1.11082 0.0553876 -1.20608 0 0 -0.00160516 -57.456 -407.681 66.7014 0.0025 
213 1 1 -0.392055 -0.00231582 -0.302997 0 0 0 -0.923552 -0.00290206 -1.17978 0 0 -0.000346714 12.4447 -326.308 43.9774 0.0015 
73 1 1 -0.393802 0.00156066 -0.303329 0 0 0 -0.973773 0.0164436 -1.20239 0 0 -0.000346714 -25.3215 -617.309 8.82711 0.0015 
192 1 1 -0.407229 0.0128103 -0.302887 0 0 0 -0.95046 -0.0112632 -1.09639 0 0 -0.000346714 -36.2216 -534.449 -89.5178 0.0015 
208 1 1 -0.403644 0.0159771 -0.303349 0 0 0 -1.04016 0.013282 -1.19694 0 0 -0.00160516 4.40502 -454.321 -25.219 0.0025 
183 1 1 -0.399163 -0.00253109 -0.297893 0 0 0 -1.01851 0.140764 -1.13607 0 0 -0.00160516 -26.3056 -327.74 -9.61479 0.0025 
119 1 1 -0.402967 0.00445453 -0.300461 0 0 0 -1.11678 -0.00630556 -1.18234 0 0 -0.00160516 -1.58639 -487.378 9.75291 0.0025 
132 1 1 -0.39179 0.00519026 -0.297802 0 0 0 -0.990237 0.0675224 -1.15603 0 0 -0.00160516 14.8907 -289.595 2.05263 0.0025 
244 1 1 -0.404143 0.0143067 -0.298328 0 0 0 -1.16282 0.00938645 -1.17403 0 0 -0.00160516 25.7538 -499.402 -71.0578 0.0025 
157 1 1 -0.389673 -0.0180644 -0.293425 0 0 0 -0.847013 0.0631745 -1.06942 0 0 -0.00160516 -15.3931 -351.929 -8.20579 0.0025 
189 1 1 -0.393356 -0.00798096 -0.293813 0 0 0 -0.974528 -0.0587685 -1.07335 0 0 -0.000346714 106.442 -651.39 -29.6752 0.0015 
197 1 1 -0.380429 -0.00766282 -0.294028 0 0 0 -0.781164 -0.00802137 -1.07136 0 0 -0.000346714 17.1181 -481.313 -11.8934 0.0015 
101 1 1 -0.377131 -0.00875024 -0.294291 0 0 0 -0.756817 -0.0902203 -1.19159 0 0 -0.000346714 -28.3705 -280.433 -43.8822 0.0015 
191 1 1 -0.391744 -0.00136774 -0.293136 0 0 0 -1.00926 0.01231 -1.11264 0 0 -0.000346714 -143.128 -351.733 81.2902 0.0015 
144 1 1 -0.387023 0.000965033 -0.293152 0 0 0 -0.983795 0.0215203 -1.12129 0 0 -0.00160516 -59.7677 -370.271 50.4024 0.0025 
293 1 1 -0.409843 0.0291381 -0.294617 0 0 0 -1.28315 -0.110707 -1.2083 0 0 -0.000346714 82.9603 -969.846 -0.631742 0.0015 
262 1 1 -0.412809 0.0370154 -0.295456 0 0 0 -1.28094 0.124041 -1.16127 0 0 -0.000346714 -57.362 -937.353 -91.2237 0.0015 
193 1 1 -0.386124 -0.027113 -0.293045 0 0 0 -0.852717 -0.0765502 -1.14526 0 0 -0.00160516 -19.0268 -313.611 44.2248 0.0025 
181 1 1 -0.379516 -0.00336637 -0.289764 0 0 0 -0.948338 0.0556168 -1.11396 0 0 -0.00160516 -147.893 -232.712 -9.95269 0.0025 
178 1 1 -0.378934 0.00787939 -0.2907 0 0 0 -0.875148 0.0330808 -1.11719 0 0 -0.000346714 -54.1508 -599.63 39.6465 0.0015 
218 1 1 -0.394441 -0.0139096 -0.289034 0 0 0 -1.16241 0.0733094 -1.0919 0 0 -0.000346714 -40.6898 -856.813 -30.7497 0.0015 
127 1 1 -0.379995 -0.0134319 -0.288266 0 0 0 -0.831664 -0.0487669 -1.0157 0 0 -0.000346714 12.3567 -579.139 19.1742 0.0015 
59 1 1 -0.378499 -0.00797181 -0.285674 0 0 0 -0.838481 0.00623968 -1.00838 0 0 -0.000346714 -35.7349 121.694 7.76013 0.0015 
92 1 1 -0.442809 0.00191478 -0.285282 0 0 0 -1.09837 -0.0974242 -1.02274 0 0 -0.00160516 13.3064 -107.421 -112.37 0.0025 
9 1 1 -0.388679 0.00630406 -0.288123 0 0 0 -1.03234 0.05283 -1.02579 0 0 -0.000346714 6.86682 -694.063 -113.314 0.0015 
155 1 1 -0.385066 0.00406572 -0.288472 0 0 0 -1.02435 0.0338799 -1.08309 0 0 -0.00160516 1.55192 -349.204 26.4785 0.0025 
259 1 1 -0.398718 -0.0170893 -0.283285 0 0 0 -1.22873 0.123982 -0.996835 0 0 -0.00160516 -68.6659 -469.939 35.8833 0.0025 
182 1 1 -0.37847 -0.0114984 -0.282863 0 0 0 -0.874703 0.00117447 -0.974443 0 0 -0.00160516 -24.6677 -371.655 66.7302 0.0025 
206 1 1 -0.385825 -0.000336773 -0.285005 0 0 0 -0.976405 0.0758532 -1.02886 0 0 -0.00160516 -17.202 -170.623 4.82597 0.0025 
276 1 1 -0.387593 0.0073509 -0.283232 0 0 0 -1.10948 -0.0420042 -0.97081 0 0 -0.000346714 27.7378 -715.581 -0.74492 0.0015 
228 1 1 -0.386483 0.0155514 -0.283891 0 0 0 -1.11224 0.00178354 -1.0308 0 0 -0.000346714 75.8592 -782.056 -182.758 0.0015 
188 1 1 -0.391387 -0.0208649 -0.281659 0 0 0 -1.18406 0.110762 -1.02981 0 0 -0.000346714 -65.3032 -893.373 -32.5978 0.0015 
211 1 1 -0.367098 -0.0211627 -0.281455 0 0 0 -0.873726 -0.101697 -1.10222 0 0 -0.000346714 -178.623 -327.611 8.8973 0.0015 
180 1 1 -0.384309 0.00460175 -0.278027 0 0 0 -1.07507 0.109286 -0.916384 0 0 -0.00160516 -2.30228 -398.032 -60.2754 0.0025 
305 1 1 -0.383118 0.0258352 -0.280499 0 0 0 -1.09384 -0.102151 -1.10118 0 0 -0.000346714 -1.1303 -780.799 -101.29 0.0015 
258 1 1 -0.385059 0.0339116 -0.281738 0 0 0 -1.16534 0.062507 -1.22749 0 0 -0.00160516 -11.6734 176.405 -22.5778 0.0025 
225 1 1 -0.374883 -0.0145879 -0.276825 0 0 0 -0.962436 0.00897913 -0.927048 0 0 -0.000346714 23.763 -718.116 -73.3922 0.0015 
216 1 1 -0.368048 -0.00131563 -0.275165 0 0 0 -0.938118 0.00973268 -0.928307 0 0 -0.000346714 -183.288 -637.657 -39.8282 0.0015 
126 1 1 -0.371805 0.00140223 -0.27586 0 0 0 -0.969099 0.0755784 -0.920031 0 0 -0.000346714 -19.0477 -663.005 -79.6916 0.0015 
145 1 1 -0.375661 0.00648127 -0.275655 0 0 0 -0.961799 0.221409 -0.901804 0 0 -0.00160516 -76.3318 -385.074 -25.0555 0.0025 
272 1 1 -0.380656 0.0465677 -0.276152 0 0 0 -0.999806 0.285492 -1.03185 0 0 -0.00160516 9.75074 -59.5008 -143.463 0.0025 
168 1 1 -0.370417 -0.00381847 -0.272221 0 0 0 -0.970647 0.0401124 -0.880144 0 0 -0.00160516 -36.0981 -414.182 40.4275 0.0025 
202 1 1 -0.371535 0.00374231 -0.270529 0 0 0 -1.04816 0.0527132 -0.834931 0 0 -0.000346714 -93.445 -717.384 28.3075 0.0015 
253 1 1 -0.377374 0.0271508 -0.272157 0 0 0 -1.09504 -0.113846 -0.959314 0 0 -0.000346714 187.587 -742.933 -247.5 0.0015 
232 1 1 -0.373389 -0.015026 -0.268002 0 0 0 -1.0912 -0.00281361 -0.825495 0 0 -0.00160516 0.912803 -446.291 -12.5083 0.0025 
268 1 1 -0.366963 0.00151649 -0.269495 0 0 0 -1.06849 -0.0813625 -0.869126 0 0 -0.000346714 90.5287 -770.654 -73.7222 0.0015 
217 1 1 -0.367865 0.0293862 -0.268085 0 0 0 -0.979047 0.0482316 -0.870685 0 0 -0.000346714 -62.3769 -710.188 -149.895 0.0015 
287 1 1 -0.379504 0.0408444 -0.26773 0 0 0 -1.07163 0.0470492 -0.88457 0 0 -0.000346714 29.6621 -756.413 -180.337 0.0015 
215 1 1 -0.355231 0.00597342 -0.263492 0 0 0 -0.951175 -0.00526021 -0.799958 0 0 -0.000346714 81.017 -671.859 56.629 0.0015 
156 1 1 -0.3653 0.0171741 -0.264022 0 0 0 -1.13536 -0.146372 -0.866912 0 0 -0.00160516 104.231 -482.863 -93.3553 0.0025 
245 1 1 -0.369945 0.0196953 -0.26677 0 0 0 -1.16725 -0.179685 -0.925095 0 0 -0.00160516 98.8841 -514.922 -43.4747 0.0025 
296 1 1 -0.375438 0.0338141 -0.265871 0 0 0 -1.14681 0.0735282 -0.870993 0 0 -0.00160516 19.6271 -471.011 -120.325 0.0025 
147 1 1 -0.35461 -0.0111778 -0.259476 0 0 0 -1.02829 -0.0381294 -0.728655 0 0 -0.000346714 16.1649 -640.133 56.1681 0.0015 
274 1 1 -0.354023 0.00260719 -0.260238 0 0 0 -0.950556 0.000203931 -0.749329 0 0 -0.00160516 -35.2937 -287.224 55.6583 0.0025 
281 1 1 -0.347497 0.00503689 -0.259084 0 0 0 -0.884606 -0.0265414 -0.804558 0 0 -0.000346714 -242.945 -508.979 156.931 0.0015 
249 1 1 -0.350351 0.00834938 -0.258753 0 0 0 -0.928628 0.0502358 -0.767591 0 0 -0.000346714 -71.0977 -558.863 -75.5902 0.0015 
239 1 1 -0.356608 0.0132639 -0.261776 0 0 0 -0.961078 -0.0352204 -0.759277 0 0 -0.000346714 87.1321 -678.422 -144.801 0.0015 
315 1 1 -0.381376 0.0494102 -0.260855 0 0 0 -1.19537 -0.0474614 -0.925913 0 0 -0.000346714 141.619 -839.23 -269.993 0.0015 
195 1 1 -0.349129 -0.0103662 -0.25425 0 0 0 -0.950155 -0.00245124 -0.631422 0 0 -0.00160516 -31.7349 -403.29 79.3726 0.0025 
247 1 1 -0.352081 -0.00602221 -0.257638 0 0 0 -0.932008 -0.0252074 -0.688835 0 0 -0.00160516 -1.36802 -401.64 30.0268 0.0025 
109 1 1 -0.347888 -0.00567287 -0.25629 0 0 0 -0.91466 -0.0674199 -0.664813 0 0 -0.000346714 111.868 -222.572 118.383 0.0015 
266 1 1 -0.345407 -0.00712815 -0.254233 0 0 0 -0.905617 -0.0577355 -0.635592 0 0 -0.000346714 38.2168 -563.275 170.727 0.0015 
124 1 1 -0.348562 0.0029994 -0.256994 0 0 0 -0.985358 0.0571045 -0.694636 0 0 -0.000346714 5.29344 -290.979 -72.1655 0.0015 
235 1 1 -0.346172 0.00344332 -0.254807 0 0 0 -0.954868 -0.0180792 -0.610989 0 0 -0.000346714 -97.0801 -542.022 70.6628 0.0015 
369 1 1 -0.35021 0.0097078 -0.25498 0 0 0 -1.05768 0.0210152 -0.596599 0 0 -0.000346714 -35.0237 -568.064 -221.451 0.0015 
201 1 1 -0.350573 0.0126185 -0.257707 0 0 0 -0.942955 0.11093 -0.691134 0 0 -0.000346714 -49.0519 -675.763 -65.0532 0.0015 
250 1 1 -0.352538 -0.0285499 -0.252374 0 0 0 -1.17414 0.0758322 -0.716838 0 0 -0.000346714 -86.4605 -854.852 76.913 0.0015 
223 1 1 -0.347561 -0.00271801 -0.253157 0 0 0 -0.96782 -0.0410256 -0.58615 0 0 -0.000346714 -14.4538 -65.868 -23.1529 0.0015 
251 1 1 -0.343719 -4.47909e-05 -0.25154 0 0 0 -0.934641 0.0370445 -0.56586 0 0 -0.000346714 -45.3533 -548.355 12.8843 0.0015 
118 1 1 -0.351983 0.00568789 -0.253128 0 0 0 -1.01708 0.0869628 -0.611935 0 0 -0.00160516 -65.355 -215.565 -31.2235 0.0025 
160 1 1 -0.343812 0.00532343 -0.254355 0 0 0 -0.939044 -0.00159742 -0.659023 0 0 -0.000346714 7.64473 -602.03 -83.6384 0.0015 
154 1 1 -0.346473 0.00963263 -0.254156 0 0 0 -1.01188 -0.0476029 -0.655733 0 0 -0.000346714 70.4283 -702.067 -115.19 0.0015 
311 1 1 -0.362011 0.0360083 -0.254982 0 0 0 -1.1993 0.090386 -0.761614 0 0 -0.00160516 -20.5047 -526.685 -51.8186 0.0025 
299 1 1 -0.334283 -0.000386913 -0.246425 0 0 0 -1.00478 0.0266297 -0.519944 0 0 -0.00160516 -83.712 -57.8249 -40.6427 0.0025 
134 1 1 -0.336397 0.00688523 -0.249446 0 0 0 -1.13142 -0.0711879 -0.70447 0 0 -0.000346714 217.192 -761.928 -0.224583 0.0015 
226 1 1 -0.336113 -0.0214471 -0.246009 0 0 0 -1.04074 0.0779308 -0.56495 0 0 -0.000346714 -50.6944 -756.811 -10.2526 0.0015 
295 1 1 -0.332117 -0.0238281 -0.243393 0 0 0 -1.06351 0.0795044 -0.523184 0 0 -0.000346714 -112.987 -745.537 141.606 0.0015 
207 1 1 -0.32875 -0.0141505 -0.24262 0 0 0 -1.04034 0.0547586 -0.479098 0 0 -0.00160516 -52.1941 -428.02 86.0741 0.0025 
282 1 1 -0.326769 -0.0102368 -0.243333 0 0 0 -0.986165 0.0650216 -0.455782 0 0 -0.000346714 -44.2374 -659.457 76.5827 0.0015 
278 1 1 -0.324718 -0.00670717 -0.242633 0 0 0 -0.984413 0.112383 -0.431499 0 0 -0.000346714 -122.628 -703.411 101.268 0.0015 
209 1 1 -0.329453 -0.00704586 -0.243649 0 0 0 -1.02939 -0.128226 -0.476299 0 0 -0.00160516 46.3371 -444.172 22.941 0.0025 
279 1 1 -0.327626 0.000848087 -0.244441 0 0 0 -0.902228 -0.0173993 -0.444446 0 0 -0.000346714 -1.51911 -653.004 26.536 0.0015 
86 1 1 -0.324767 0.00113941 -0.243057 0 0 0 -1.01111 -0.0982816 -0.461336 0 0 -0.000346714 36.7195 -738.951 80.3909 0.0015 
271 1 1 -0.333796 0.00458731 -0.245929 0 0 0 -1.06178 -0.00751641 -0.550876 0 0 -0.00160516 -32.8858 -426.055 -2.56719 0.0025 
290 1 1 -0.327254 0.00392422 -0.243501 0 0 0 -0.952515 -0.000298131 -0.454204 0 0 -0.000346714 -18.9022 -634.161 -97.4314 0.0015 
252 1 1 -0.331603 0.00809369 -0.245597 0 0 0 -1.06052 0.0564945 -0.456639 0 0 -0.000346714 -66.849 -735.087 -63.9299 0.0015 
286 1 1 -0.335564 0.0113851 -0.246374 0 0 0 -1.21349 -0.123161 -0.62255 0 0 -0.00160516 61.1949 -526.834 -17.8641 0.0025 
222 1 1 -0.333285 0.0166685 -0.244357 0 0 0 -1.23249 -0.0927185 -0.617443 0 0 -0.00160516 99.848 -516.788 -138.809 0.0025 
261 1 1 -0.339594 -0.0361016 -0.242457 0 0 0 -1.2512 0.216315 -0.665032 0 0 -0.000346714 -219.487 -908.675 154.103 0.0015 
238 1 1 -0.330601 -0.02787 -0.241317 0 0 0 -1.10168 -0.0112723 -0.465227 0 0 -0.000346714 -29.0566 -782.247 111.447 0.0015 
176 1 1 -0.327493 -0.0229176 -0.241453 0 0 0 -0.996804 0.0387971 -0.444447 0 0 -0.000346714 -17.5264 -731.744 -22.2109 0.0015 
306 1 1 -0.324457 -0.0222163 -0.240283 0 0 0 -0.954912 0.00702524 -0.39428 0 0 -0.000346714 -2.80924 -691.12 -21.1207 0.0015 
257 1 1 -0.323844 -0.0184101 -0.238778 0 0 0 -1.11055 0.0992425 -0.417686 0 0 -0.00160516 -38.1753 -363.067 81.0521 0.0025 
236 1 1 -0.324368 -0.0154463 -0.241625 0 0 0 -0.922326 0.0448705 -0.408351 0 0 -0.000346714 198.427 -176.091 89.1107 0.0015 
242 1 1 -0.325079 -0.0124669 -0.24208 0 0 0 -1.04754 0.0751135 -0.42269 0 0 -0.000346714 -81.6541 -690.907 107.82 0.0015 
303 1 1 -0.32063 -0.00662471 -0.240652 0 0 0 -0.932948 -0.0197277 -0.401059 0 0 -0.000346714 96.2072 -653.206 -27.4599 0.0015 
170 1 1 -0.323453 -0.00276284 -0.241264 0 0 0 -1.05022 -0.000687988 -0.43708 0 0 -0.00160516 -10.4321 -453.134 26.2764 0.0025 
323 1 1 -0.319286 0.00868122 -0.239141 0 0 0 -1.02307 0.0143568 -0.430154 -0.000357934 -5.48608e-05 -0.000305699 -5.26565 -444.989 -2.3452 0.0025 
347 1 1 -0.328848 0.0146083 -0.242672 0 0 0 -1.23764 -0.104956 -0.588198 0 0 -0.00160516 35.3089 -551.143 24.732 0.0025 
237 1 1 -0.322709 -0.0323797 -0.236678 0 0 0 -1.16132 0.0983345 -0.479568 -7.50607e-05 6.45217e-05 -6.023e-05 -75.2148 -869.141 4.11929 0.0015 
350 1 1 -0.316355 -0.0206486 -0.236287 0 0 0 -1.12093 0.172337 -0.473964 0.000152581 -9.90184e-05 -0.00175723 -101.686 -476.524 67.3022 0.0025 
275 1 1 -0.31194 -0.0139016 -0.236527 0 0 0 -1.06657 0.103649 -0.450449 0 0 -0.000346714 -95.2552 -766.345 50.0699 0.0015 
125 1 1 -0.310234 -0.00688422 -0.236711 0 0 0 -1.04433 0.058669 -0.442428 -8.85389e-05 7.4582e-06 -3.75978e-05 -41.9258 -756.431 -1.34371 0.0015 
327 1 1 -0.307443 -0.0058257 -0.235498 0 0 0 -1.02764 0.118804 -0.396439 0 0 -0.000346714 -65.1283 -727.285 -24.8908 0.0015 
220 1 1 -0.31602 0.0154248 -0.236173 0 0 0 -1.03221 -0.00114483 -0.367178 0 0 -0.00160516 29.5534 -414.844 -94.8441 0.0025 
348 1 1 -0.323022 0.0160911 -0.239819 0 0 0 -1.26648 -0.206779 -0.570134 -0.000398358 -0.000186028 -0.000194314 88.1455 -559.788 7.22326 0.0025 
291 1 1 -0.317339 -0.0321711 -0.234681 0 0 0 -1.19643 0.322739 -0.568788 0 0 -0.000346714 -286.944 -854.64 120.017 0.0015 
248 1 1 -0.306203 -0.00810486 -0.233876 0 0 0 -0.950919 0.180702 -0.2857 0 0 -0.000346714 -110.923 -361.481 194.746 0.0015 
302 1 1 -0.298527 0.00667977 -0.231603 0 0 0 -0.959098 0.0426234 -0.401519 -8.82378e-05 -1.32752e-05 -3.81964e-05 -60.6139 -699.884 70.4909 0.0015 
230 1 1 -0.304401 0.0148794 -0.233375 0 0 0 -1.09516 -0.0500015 -0.466593 -8.47387e-05 -3.94778e-05 -4.46254e-05 54.7536 -795.738 -43.2433 0.0015 
264 1 1 -0.312262 0.0210553 -0.235453 0 0 0 -1.17317 0.0499884 -0.480153 -8.13121e-05 -3.83995e-05 -5.12189e-05 93.5071 -800.865 -311.867 0.0015 
277 1 1 -0.319492 -0.0421651 -0.231295 0 0 0 -1.21319 0.264517 -0.609309 0 0 -0.000346714 -272.081 -841.744 199.185 0.0015 
146 1 1 -0.301223 -0.0283274 -0.229271 0 0 0 -0.835423 0.0878576 -0.35509 8.77671e-06 -3.54872e-06 0.000430369 -86.3209 -599.408 55.2662 0.0015 
240 1 1 -0.300981 -0.0192938 -0.231129 0 0 0 -1.15531 0.158048 -0.497519 0 0 -0.000346714 -105.373 -850.947 -24.179 0.0015 
227 1 1 -0.294703 -0.0152685 -0.229317 0 0 0 -0.921551 0.0441697 -0.392809 -9.8887e-05 2.66132e-05 -5.18574e-08 -74.3261 -659.374 100.307 0.0015 
142 1 1 -0.298005 -0.0124642 -0.229924 0 0 0 -0.973571 0.0434225 -0.413758 -0.000405323 0.000105597 -0.000182537 -13.5584 -426.264 -12.829 0.0025 
406 1 1 -0.293648 -0.0114475 -0.229292 0 0 0 -0.975053 0.119183 -0.423189 -8.76737e-05 2.26724e-05 -3.91717e-05 -79.2301 -711.056 -17.7049 0.0015 
343 1 1 -0.29823 -0.00777911 -0.231618 0 0 0 -1.02833 0.0144888 -0.434161 -8.82876e-05 1.02371e-05 -3.78047e-05 -26.3636 -743.418 37.6352 0.0015 
162 1 1 -0.290791 -0.00861988 -0.228398 0 0 0 -0.9968 0.113813 -0.43178 -8.74702e-05 2.26376e-05 -3.91793e-05 -153.8 -706.584 168.819 0.0015 
297 1 1 -0.294785 -0.0022981 -0.229267 0 0 0 -0.980586 -0.0745026 -0.425609 0 0 -0.00160516 29.0914 -423.264 8.33447 0.0025 
254 1 1 -0.295496 0.0026516 -0.230526 0 0 0 -0.970186 0.0134571 -0.408399 0 0 -0.000346714 -11.1292 -581.283 -40.7304 0.0015 
284 1 1 -0.292307 0.00292221 -0.227956 0 0 0 -0.947919 -0.0278114 -0.379988 0 0 -0.00160516 16.2471 -385.944 -13.1495 0.0025 
374 1 1 -0.293682 0.00845341 -0.228363 0 0 0 -0.866151 -0.0338815 -0.367959 0.000103948 -3.85663e-05 3.99773e-05 -1.71291 -12.1984 -22.6406 0.0025 
313 1 1 -0.293623 0.0143281 -0.228987 0 0 0 -0.987048 0.0162882 -0.40826 -8.42881e-05 -3.94173e-05 -4.48576e-05 -27.953 -732.172 38.3788 0.0015 
356 1 1 -0.294962 0.0180362 -0.228824 0 0 0 -1.10469 0.0146057 -0.458031 -8.26545e-05 -3.97127e-05 -4.08111e-05 16.5303 -798.45 -65.2501 0.0015 
241 1 1 -0.302297 0.0212767 -0.231251 0 0 0 -1.03197 0.0128587 -0.428231 -8.36215e-05 -3.89121e-05 -4.75827e-05 -31.0759 -767.924 51.8108 0.0015 
337 1 1 -0.302054 0.0263367 -0.230163 0 0 0 -1.27089 -0.18067 -0.576132 0 0 -0.000346714 235.034 -878.654 -255.489 0.0015 
384 1 1 -0.290857 -0.0246013 -0.225992 0 0 0 -0.94885 0.154255 -0.400631 8.31188e-05 -5.51456e-05 -0.000546859 -150.994 -670.568 99.4325 0.0015 
234 1 1 -0.289778 -0.016335 -0.226027 0 0 0 -0.954987 0.0794386 -0.413563 -0.000373822 0.000167601 -0.000257726 -46.8236 -415.084 28.4066 0.0025 
342 1 1 -0.287735 -0.0127131 -0.226667 0 0 0 -0.998198 0.0658706 -0.426608 -8.75408e-05 2.26553e-05 -3.92326e-05 -117.635 -707.78 165.964 0.0015 
263 1 1 -0.287719 -0.00662092 -0.227225 0 0 0 -0.971084 0.104432 -0.413264 -7.5946e-05 7.89962e-06 -7.10475e-05 -35.2701 -706.616 -95.6416 0.0015 
318 1 1 -0.284572 -0.00544061 -0.225938 0 0 0 -0.940481 0.0834776 -0.399444 -8.85079e-05 7.15533e-06 -3.76868e-05 -90.3343 -678.733 70.8451 0.0015 
381 1 1 -0.288949 -3.5127e-05 -0.226264 0 0 0 -0.928681 -0.0546384 -0.541446 0 0 -0.000346714 107.162 419.22 139.478 0.0015 
308 1 1 -0.284122 0.0011798 -0.224796 0 0 0 -0.983811 -0.00332667 -0.414801 -0.000401847 -6.11157e-05 -0.000192622 2.49314 -427.936 -2.48269 0.0025 
255 1 1 -0.289455 0.00672152 -0.227774 0 0 0 -0.862082 -0.0850528 -0.369465 2.15068e-05 -4.22955e-06 -3.6539e-07 37.3084 -420.165 9.42276 0.0015 
246 1 1 -0.286752 0.00854175 -0.225339 0 0 0 -0.866466 0.0413433 -0.455793 0 0 -0.00160516 -20.5875 -318.278 11.0049 0.0025 
331 1 1 -0.282991 0.00987518 -0.224852 0 0 0 -1.03885 -0.0837135 -0.433583 -8.70788e-05 -1.19615e-05 -3.66257e-05 85.3388 -747.261 -60.1917 0.0015 
316 1 1 -0.288944 0.0175967 -0.226419 0 0 0 -1.0586 -0.0128709 -0.435959 -0.000143545 -7.12147e-05 0.00015168 64.1608 -749.973 -133.227 0.0015 
390 1 1 -0.305818 -0.0445762 -0.224758 0 0 0 -1.26688 0.348931 -0.707542 0 0 -0.000346714 -241.034 -1006.11 -60.312 0.0015 
294 1 1 -0.281564 -0.0223503 -0.222567 0 0 0 -0.972037 0.0171513 -0.408933 -9.49768e-05 4.04149e-05 2.50645e-06 10.3134 -723.397 -54.9197 0.0015 
231 1 1 -0.283343 -0.0182435 -0.222982 0 0 0 -0.906247 0.0544948 -0.388604 -0.000396649 0.000177968 -0.000198188 -53.0662 -385.899 69.6365 0.0025 
336 1 1 -0.279401 -0.0144346 -0.22189 0 0 0 -0.924367 0.0817205 -0.397049 -0.000438455 0.000111231 -0.000141413 -38.9932 -402.488 7.97067 0.0025 
357 1 1 -0.275216 -0.0102778 -0.221668 0 0 0 -0.81712 0.120559 -0.354746 6.79548e-06 -3.85858e-05 7.46063e-06 -116.851 -540.213 122.245 0.0015 
292 1 1 -0.280909 -0.00666456 -0.224352 0 0 0 -0.987135 -0.00370948 -0.416134 -8.86948e-05 7.16593e-06 -3.74646e-05 26.752 -716.881 -57.0672 0.0015 
285 1 1 -0.27829 -0.00396377 -0.222254 0 0 0 -0.991693 0.0123153 -0.419373 -0.000486284 3.88781e-05 1.22415e-05 -12.6762 -430.619 17.332 0.0025 
353 1 1 -0.27723 -0.000119542 -0.223019 0 0 0 -0.96389 0.010021 -0.407021 -0.000100147 7.82125e-06 -1.6136e-05 -29.9804 -696.399 53.8311 0.0015 
61 1 1 -0.274222 -0.00324285 -0.221648 0 0 0 -0.961976 -0.0806437 -0.401173 -8.80003e-05 6.96566e-06 -3.83478e-05 50.6532 -695.622 18.3738 0.0015 
229 1 1 -0.273634 0.001239 -0.221462 0 0 0 -0.935456 -0.0294401 -0.399202 -8.88189e-05 -1.09031e-05 -3.85105e-05 17.2561 -679.288 9.65976 0.0015 
365 1 1 -0.272955 0.00755419 -0.220843 0 0 0 -0.873509 0.0397185 -0.362019 -0.000328217 -3.97554e-05 0.000606735 -28.1691 -632.034 -0.568893 0.0015 
330 1 1 -0.275487 0.00916166 -0.221795 0 0 0 -0.900122 -0.0259698 -0.373014 -8.00809e-05 -1.0981e-05 -5.32235e-05 23.6522 -649.727 -11.8433 0.0015 
320 1 1 -0.279955 0.0133491 -0.223388 0 0 0 -1.00071 -0.0264038 -0.433052 -8.89438e-05 -3.77305e-05 -3.65936e-05 -32.4044 -757.67 121.182 0.0015 
301 1 1 -0.279612 0.0226999 -0.22158 0 0 0 -0.937746 0.114772 -0.364468 -8.47632e-05 -3.3667e-05 -4.00935e-05 12.834 -644.94 -236.115 0.0015 
361 1 1 -0.298967 0.0423152 -0.22205 0 0 0 -1.12187 -0.0687943 -0.453839 0.000187214 0.000325799 -0.001912 24.8212 -532.947 16.3751 0.0025 
423 1 1 -0.294989 -0.0434928 -0.221056 0 0 0 -1.05692 0.0924636 -0.465073 0 0 -0.000346714 -165.102 -709.615 243.642 0.0015 
367 1 1 -0.287513 -0.036973 -0.220915 0 0 0 -0.984273 0.159565 -0.511317 0 0 -0.000346714 -184.408 -683.778 165.271 0.0015 
280 1 1 -0.269378 -0.0218183 -0.217585 0 0 0 -0.843068 0.0800063 -0.368727 -7.90847e-05 3.5978e-05 -6.35217e-05 -94.2732 -602.927 84.7346 0.0015 
141 1 1 -0.273222 -0.0190216 -0.219718 0 0 0 -0.963036 -0.066682 -0.386964 -8.64248e-05 3.89433e-05 -3.98435e-05 100.36 -728.984 -124.13 0.0015 
402 1 1 -0.274892 -0.0153332 -0.21965 0 0 0 -0.899053 -0.0424787 -0.457064 0 0 -0.00160516 51.4129 -243.167 51.4667 0.0025 
307 1 1 -0.265433 -0.0110237 -0.217478 0 0 0 -0.916779 -0.0277253 -0.373126 0 0 -0.000346714 13.2101 -647.948 35.3424 0.0015 
319 1 1 -0.265514 -0.00780617 -0.2178 0 0 0 -0.900537 -0.0233397 -0.374346 -1.04908e-05 3.40345e-08 -0.000258392 4.48865 -649.921 29.7174 0.0015 
391 1 1 -0.271931 -0.00610156 -0.220586 0 0 0 -0.899496 -0.02111 -0.380519 -2.77905e-05 7.67818e-05 -1.86345e-05 -59.0953 -434.091 -67.3989 0.0015 
304 1 1 -0.269171 -0.00598773 -0.219419 0 0 0 -0.899257 -0.0244781 -0.380531 -4.01605e-05 1.12963e-05 -8.16284e-07 -21.8224 -648.353 93.3023 0.0015 
386 1 1 -0.271003 -0.00228715 -0.219245 0 0 0 -0.957098 -0.02854 -0.401202 -0.000293023 2.06576e-05 -0.000438284 22.8414 -416.504 -24.8688 0.0025 
354 1 1 -0.265509 0.00879226 -0.21764 0 0 0 -0.827476 -0.0100311 -0.346864 -8.61207e-05 -1.01509e-05 -4.12587e-05 -4.1669 -600.3 27.3035 0.0015 
393 1 1 -0.296966 -0.0516657 -0.217713 0 0 0 -1.27292 -0.033645 -0.540095 0 0 -0.000346714 -69.3845 -843.487 303.646 0.0015 
388 1 1 -0.277864 -0.0419048 -0.21389 0 0 0 -0.932141 -0.228341 -0.263872 -0.000412364 0.000429468 -6.59316e-05 39.1155 -357.832 171.451 0.0025 
288 1 1 -0.260647 -0.0138466 -0.215018 0 0 0 -0.872059 0.0523272 -0.393241 -0.00143422 -0.00127613 -0.0031305 -43.3568 -546.519 23.5825 0.0015 
267 1 1 -0.263244 -0.012369 -0.215914 0 0 0 -0.915798 -0.0386357 -0.363363 0 0 -0.000346714 120.423 -391.326 185.354 0.0015 
377 1 1 -0.260998 -0.00756024 -0.2159 0 0 0 -0.825976 0.0174692 -0.350966 2.11836e-05 3.73249e-05 8.58973e-06 -105.072 120.936 -65.8154 0.0015 
300 1 1 -0.257198 -0.00759443 -0.214288 0 0 0 -0.940763 0.130082 -0.405514 -0.000116782 1.2884e-05 3.9974e-05 -140.518 -677.667 108.888 0.0015 