ITEM: TIMESTEP
26400
ITEM: NUMBER OF ATOMS
345
ITEM: BOX BOUNDS ff ff ff
-0.5 0.1
-0.2 0.2
-0.4 0.15
ITEM: ATOMS id type type x y z ix iy iz vx vy vz fx fy fz omegax omegay omegaz radius 
30 1 1 -0.145067 -0.0143831 -0.165441 0 0 0 -1.03276 -0.0505275 -0.432787 -0.000235618 4.28258e-05 -0.000746251 4.58338 -446.682 41.3512 0.0025 
21 1 1 -0.140353 -0.00231037 -0.164913 0 0 0 -0.919256 -0.082351 -0.416507 0 0 -0.000346714 10.0901 -259.111 -155.769 0.0015 
10 1 1 -0.136921 -0.00095596 -0.163671 0 0 0 -0.817899 -0.0422057 -0.460699 0 0 -0.000346714 -146.608 139.277 55.2093 0.0015 
2 1 1 -0.147584 0.00164813 -0.166581 0 0 0 -0.877072 0.0682256 -0.43704 0 0 -0.00160516 -23.6285 -356.495 -12.8129 0.0025 
11 1 1 -0.14303 -0.000510684 -0.166339 0 0 0 -0.963292 -0.135472 -0.384937 0 0 -0.000346714 -19.5794 -700.905 284.245 0.0015 
31 1 1 -0.140125 0.0127362 -0.164623 0 0 0 -1.04026 0.191079 -0.402842 0 0 -0.000346714 -52.4756 -727.6 -211.586 0.0015 
18 1 1 -0.145676 0.0137342 -0.166781 0 0 0 -0.91101 -0.206624 -0.395649 -7.76656e-05 -2.15808e-05 -5.82154e-05 132.521 -664.781 42.0217 0.0015 
36 1 1 -0.139115 -0.0305514 -0.161622 0 0 0 -1.00908 0.0387022 -0.43568 -7.1918e-05 3.91743e-05 -6.97871e-05 -86.4668 -715.525 136.715 0.0015 
4 1 1 -0.137163 -0.00709723 -0.162628 0 0 0 -0.885679 -0.0481193 -0.376919 0 0 -0.00160516 28.0512 -384.304 -16.8923 0.0025 
20 1 1 -0.133799 -0.000487442 -0.161478 0 0 0 -0.890002 0.0433661 -0.280019 0 0 -0.000346714 -40.6895 -600.187 21.7107 0.0015 
6 1 1 -0.13269 0.00346447 -0.161946 0 0 0 -0.742295 0.0356541 -0.308039 -0.000451709 4.0829e-05 0.000786648 -70.6548 -540.392 111.637 0.0015 
8 1 1 -0.129331 0.00113081 -0.159817 0 0 0 -0.744796 0.0365241 -0.343848 0 0 -0.000346714 62.8708 -507.893 -198.594 0.0015 
24 1 1 -0.131797 0.00697574 -0.161368 0 0 0 -0.836135 0.170521 -0.372762 0 0 -0.000346714 -90.9606 -596.437 -79.3524 0.0015 
12 1 1 -0.131713 0.0160544 -0.160723 0 0 0 -0.931396 0.19902 -0.348193 -0.000125622 -3.75562e-05 -3.30828e-05 -40.9474 -639.944 -255.227 0.0015 
5 1 1 -0.134787 0.0199816 -0.161427 0 0 0 -0.965724 0.0328701 -0.402624 0 0 -0.000346714 -12.4691 -697.922 -28.773 0.0015 
47 1 1 -0.138626 0.025231 -0.162431 0 0 0 -1.17163 -0.0295808 -0.50848 0 0 -0.000346714 2.55064 -861.574 43.4206 0.0015 
38 1 1 -0.186461 0.073618 -0.162459 0 0 0 -1.36187 0.239835 -0.257079 -0.00146304 -0.00527318 0.00846215 -121.469 -1017.13 -228.093 0.0015 
72 1 1 -0.135782 -0.040427 -0.157831 0 0 0 -1.08991 -0.437289 -0.306923 -1.18881e-05 -3.57713e-06 -0.000242462 115.643 -653.113 519.259 0.0015 
23 1 1 -0.126993 -0.00197083 -0.156351 0 0 0 -0.921224 -0.155132 -0.321741 0 0 -0.000346714 43.4785 -160.849 -53.908 0.0015 
35 1 1 -0.125932 -0.000434275 -0.159104 0 0 0 -0.743178 -0.114035 -0.333642 0 0 -0.000346714 56.9155 -529.342 59.1451 0.0015 
26 1 1 -0.12215 0.00321494 -0.156467 0 0 0 -0.895359 0.259675 -0.384935 -0.000427643 3.65129e-06 -0.000140129 -129.058 -389.793 37.2819 0.0025 
17 1 1 -0.136297 0.00538948 -0.159078 0 0 0 -1.12554 0.226387 -0.456494 0 0 -0.000346714 -53.5625 69.6297 -123.256 0.0015 
32 1 1 -0.12718 0.00354849 -0.159227 0 0 0 -0.886769 0.00549432 -0.318747 0 0 -0.000346714 -5.71929 -613.684 -4.3948 0.0015 
50 1 1 -0.111787 -0.0126307 -0.152654 0 0 0 -0.82523 -0.108469 -0.339192 -8.801e-05 1.37005e-05 -3.78342e-05 149.003 -608.978 -167.771 0.0015 
22 1 1 -0.118078 -0.00269482 -0.153334 0 0 0 -0.930495 0.0669478 -0.372359 0 0 -0.000346714 -44.8957 -616.978 -13.0292 0.0015 
37 1 1 -0.117876 0.00753091 -0.155541 0 0 0 -0.942135 0.131164 -0.378211 -1.15269e-05 -8.14319e-07 -0.000217372 -90.4153 -679.465 -10.4595 0.0015 
48 1 1 -0.134148 0.0219116 -0.158497 0 0 0 -0.926663 0.481481 -0.977997 0 0 -0.000346714 27.3203 136.186 -30.5113 0.0015 
3 1 1 -0.117814 0.0203499 -0.153289 0 0 0 -0.878556 0.160394 -0.342236 -0.000399172 -0.000145598 -0.00018937 -35.1897 -372.029 -84.0214 0.0025 
52 1 1 -0.117533 -0.0148594 -0.153207 0 0 0 -0.812789 0.0768082 -0.835456 0 0 -0.00160516 180.623 136.053 124.935 0.0025 
76 1 1 -0.10802 -0.012375 -0.15084 0 0 0 -1.07545 -0.0284396 -0.540227 0 0 -0.000346714 18.3129 -750.746 11.1101 0.0015 
14 1 1 -0.113184 -0.00411707 -0.15154 0 0 0 -0.8425 -0.115899 -0.416494 0 0 -0.00160516 51.7253 -341.241 -4.20105 0.0025 
71 1 1 -0.110622 0.000839292 -0.152603 0 0 0 -0.963621 0.0563057 -0.429853 0 0 -0.000346714 -46.0512 -688.706 12.3373 0.0015 
49 1 1 -0.109983 0.0068854 -0.15225 0 0 0 -0.707446 0.0886634 -0.254941 0 0 -0.000346714 -26.8568 -334.568 -62.5932 0.0015 
16 1 1 -0.108911 0.0166557 -0.15003 0 0 0 -0.862556 0.0435596 -0.360312 -0.000398204 -6.34656e-05 -0.000254464 21.6849 -368.599 -96.2599 0.0025 
51 1 1 -0.114838 0.0240814 -0.152571 0 0 0 -0.914353 0.284199 -0.338329 -8.62957e-05 -3.14713e-05 -4.07996e-05 -128.831 -638.689 -188.332 0.0015 
85 1 1 -0.1738 -0.0351407 -0.147682 0 0 0 -1.70626 -0.770248 -0.796029 0 0 -0.000346714 -992.473 989.332 -382.051 0.0015 
113 1 1 -0.106474 -0.0238958 -0.147742 0 0 0 -0.887485 -0.114101 -0.369088 0 0 -0.000346714 35.4555 -586.816 145.527 0.0015 
25 1 1 -0.0988772 -0.00752386 -0.147533 0 0 0 -0.732552 -0.193224 -0.295045 -9.00539e-05 8.83837e-06 -0.000120272 145.466 -531.535 -11.8878 0.0015 
57 1 1 -0.10519 0.00184349 -0.150318 0 0 0 -1.00956 0.0799156 -0.936277 0 0 -0.000346714 123.803 -106.567 156.887 0.0015 
33 1 1 -0.100527 0.00143056 -0.148375 0 0 0 -0.583336 0.134335 -0.262993 0 0 -0.000346714 -39.8753 -415.445 -137.698 0.0015 
19 1 1 -0.0976784 0.01321 -0.146629 0 0 0 -0.671047 0.0271328 -0.282721 -8.07667e-05 -1.4574e-05 -5.68923e-05 -11.1792 -485.89 -20.1046 0.0015 
75 1 1 -0.106601 0.0222088 -0.14923 0 0 0 -0.890448 0.0475858 -0.271477 0 0 -0.000346714 -66.1405 -629.561 49.7532 0.0015 
41 1 1 -0.109408 -0.0275493 -0.144698 0 0 0 -0.698503 -0.0541749 -0.760601 0 0 -0.00160516 -159.194 -215.037 5.0754 0.0025 
28 1 1 -0.0977625 -0.0183295 -0.145137 0 0 0 -0.779952 0.159753 -0.350546 -0.000400425 0.000123915 -0.000196073 -76.8409 -339.259 16.36 0.0025 
60 1 1 -0.0922052 -0.0035692 -0.14492 0 0 0 -0.741382 -0.0637116 -0.311727 -8.82943e-05 -2.56338e-06 -3.70638e-05 74.4702 -535.459 -67.6743 0.0015 
39 1 1 -0.0883522 -0.00277999 -0.142212 0 0 0 -0.747043 -0.0514846 -0.313939 -0.000405491 -1.17784e-05 -0.0001794 27.8041 -324.134 -13.005 0.0025 
84 1 1 -0.0877883 0.00222249 -0.142992 0 0 0 -0.517648 -0.088915 -0.244029 0 0 -0.000346714 30.9116 -327.881 80.4334 0.0015 
40 1 1 -0.0931961 0.008675 -0.143702 0 0 0 -0.817855 0.128569 -0.327847 0 0 -0.00160516 -59.4197 -339.519 8.12952 0.0025 
43 1 1 -0.0922294 0.0268443 -0.14269 0 0 0 -0.685078 -0.0334509 -0.294507 -8.68228e-05 -3.28452e-05 -4.18833e-05 109.582 -469.139 -201.621 0.0015 
42 1 1 -0.100468 0.0307473 -0.144432 0 0 0 -0.814207 -0.0310166 -0.346892 -0.000411366 -0.00014991 -0.000178273 31.0891 -350.67 -41.6172 0.0025 
79 1 1 -0.100558 -0.0490494 -0.138862 0 0 0 -0.98113 -0.107651 -0.354 0 0 -0.00160516 22.1558 -393.767 97.0363 0.0025 
1 1 1 -0.0848679 -0.0146108 -0.140146 0 0 0 -0.694322 -0.0186696 -0.289841 -0.000403915 5.09033e-05 -0.000180513 -37.0397 -295.997 107.802 0.0025 
53 1 1 -0.0825586 -0.0100393 -0.13942 0 0 0 -0.770788 0.0625511 -0.326337 -0.000396412 5.0018e-05 -0.000189747 -23.5704 -335.385 -8.62216 0.0025 
56 1 1 -0.102336 0.00101967 -0.142629 0 0 0 -0.718805 0.16698 -0.797985 0 0 -0.000346714 -85.5854 -368.423 1.07912e-13 0.0015 
44 1 1 -0.0800344 0.00295925 -0.139712 0 0 0 -0.637965 -0.0372788 -0.271493 -8.68009e-05 -3.16696e-06 -4.36962e-05 13.6939 -462.839 31.3682 0.0015 
55 1 1 -0.0960237 0.00472858 -0.142505 0 0 0 -0.706771 0.253408 -0.816092 0 0 -0.00160516 -76.8102 -219.699 -17.9608 0.0025 
29 1 1 -0.0849351 0.00888106 -0.140561 0 0 0 -0.655792 -0.0202296 -0.303934 -0.0057538 -0.0110301 -0.0038686 16.2551 -267.069 -87.2912 0.0025 
54 1 1 -0.0830671 0.0130576 -0.138609 0 0 0 -0.655369 -0.0945088 -0.175536 0.00331582 0.0162909 0.0166585 46.2005 -212.285 -28.0997 0.0025 
78 1 1 -0.0939887 0.0161805 -0.142005 0 0 0 -0.875275 0.228069 -0.502239 0 0 -0.00160516 -41.4296 -163.028 -15.7517 0.0025 
88 1 1 -0.0857286 0.0143941 -0.141503 0 0 0 -0.59766 0.0194992 -0.251985 2.17997e-05 -2.91832e-05 -5.22585e-06 8.85915 -184.55 -31.0788 0.0015 
27 1 1 -0.0771352 -0.00499214 -0.137399 0 0 0 -0.610292 -0.153957 -0.251425 -0.000411357 4.80284e-05 -0.000176971 73.3808 -266.413 -14.9844 0.0025 
46 1 1 -0.0994018 0.00803189 -0.139459 0 0 0 -0.743267 0.1987 -0.735323 0 0 -0.000346714 58.8912 -171.923 -2.54438 0.0015 
58 1 1 -0.0794725 0.0182815 -0.138387 0 0 0 -0.784826 -0.118745 -0.453345 0 0 -0.000346714 122.887 -529.508 -103.789 0.0015 
70 1 1 -0.0785109 0.0266596 -0.136979 0 0 0 -0.702686 -0.093122 -0.304167 -0.000135558 -4.49316e-05 6.50484e-05 102.981 -498.798 -85.0904 0.0015 
34 1 1 -0.092251 0.0479237 -0.137789 0 0 0 -0.853714 0.294748 -0.245446 -7.5658e-05 -6.19699e-05 -6.43834e-05 -96.8323 -538.755 -310.131 0.0015 
7 1 1 -0.110525 -0.0787135 -0.131056 0 0 0 -0.704808 -0.13355 -0.194547 -6.42899e-05 9.61766e-05 -8.15757e-05 -1.52966 -407.511 285.284 0.0015 
138 1 1 -0.0760198 -0.0399364 -0.133307 0 0 0 -1.05381 -0.0555166 -0.373266 0 0 -0.000346714 -11.9771 -729.5 154.2 0.0015 
63 1 1 -0.0699531 -0.0186263 -0.134483 0 0 0 -0.572631 -0.00755374 -0.240627 -8.76065e-05 2.46295e-05 -3.9871e-05 -24.2755 -408.633 70.5973 0.0015 
74 1 1 -0.0670234 -0.0164633 -0.133504 0 0 0 -0.52592 -0.30561 -0.185577 -8.81627e-05 2.47744e-05 -3.86947e-05 245.903 -389.552 -55.357 0.0015 
111 1 1 -0.0889408 -0.0103471 -0.133239 0 0 0 -0.731541 0.0594779 -0.461883 0 0 -0.000346714 30.7175 221.295 -96.1964 0.0015 
128 1 1 -0.0678118 -0.0124487 -0.134023 0 0 0 -0.577516 -0.193289 -0.180722 0 0 -0.000346714 -87.5756 -73.3126 -76.5428 0.0015 
65 1 1 -0.0699365 -0.00877625 -0.134162 0 0 0 -0.461529 -0.0624921 -0.190023 1.0077e-05 -0.000367325 0.000310244 51.5997 -180.849 -26.1357 0.0025 
83 1 1 -0.0655643 0.00566101 -0.133593 0 0 0 -0.72754 0.143804 -0.165021 -0.0173146 -0.000293323 0.0229756 -86.2421 -545.075 -55.5279 0.0015 
82 1 1 -0.0681655 0.0289689 -0.132255 0 0 0 -0.716659 -0.117941 -0.317372 -8.36963e-05 -3.47501e-05 -4.52201e-05 13.4512 -554.161 175.571 0.0015 
107 1 1 -0.0827082 -0.0162267 -0.13047 0 0 0 -0.774177 -0.197611 -0.559176 0 0 -0.00160516 -26.4565 -264.988 -43.8101 0.0025 
102 1 1 -0.0884234 -0.00621646 -0.12917 0 0 0 -0.730519 0.300783 -0.585522 0 0 -0.000346714 -155.835 -378.48 -1.58522e-13 0.0015 
15 1 1 -0.0567329 -0.00618783 -0.128697 0 0 0 -0.495115 0.0542834 -0.203259 0 0 -0.00160516 -30.0461 -211.607 15.9189 0.0025 
87 1 1 -0.0867551 -0.00116432 -0.130945 0 0 0 -0.769897 -0.130322 -0.668318 0 0 -0.000346714 52.6196 -280.727 6.42893 0.0015 
95 1 1 -0.0598578 -0.00303512 -0.13126 0 0 0 -0.612964 0.0533646 -0.261867 -8.87311e-05 9.33537e-06 -3.79791e-05 -99.6056 -437.948 143.904 0.0015 
73 1 1 -0.057211 0.000521212 -0.130145 0 0 0 -0.663282 0.164105 -0.274884 -8.84019e-05 -5.11395e-06 -3.72978e-05 -122.382 -480.263 8.58601 0.0015 
64 1 1 -0.0827163 0.00564261 -0.131734 0 0 0 -0.71254 -0.00906028 -0.721366 0 0 -0.000346714 -16.4638 -306.665 -13.1889 0.0015 
98 1 1 -0.076267 0.00680357 -0.130773 0 0 0 -0.591527 -0.13881 -0.553158 0 0 -0.000346714 70.2628 -305.698 33.5383 0.0015 
93 1 1 -0.0587498 0.00722687 -0.129547 0 0 0 -0.601681 -0.200068 -0.256172 -0.000364514 -3.076e-05 -0.000313598 37.0133 -264.032 118.539 0.0025 
108 1 1 -0.0776588 0.0107815 -0.129202 0 0 0 -0.690242 -0.328967 -0.509546 0 0 -0.000346714 185.692 -394.795 28.3963 0.0015 
68 1 1 -0.0575531 0.0199903 -0.128107 0 0 0 -0.446951 0.0581344 -0.176517 -0.000396741 -9.06934e-05 -0.000169076 -21.9824 -193.14 -7.94233 0.0025 
92 1 1 -0.060749 0.024021 -0.12891 0 0 0 -0.404874 0.122964 -0.156217 -0.000407133 -0.000146668 -0.000206274 -33.4266 -170.945 -47.9249 0.0025 
121 1 1 -0.0815929 -0.0291476 -0.126082 0 0 0 -0.818457 -0.470085 -0.225822 0 0 -0.000346714 489.767 -176.371 -153.239 0.0015 
59 1 1 -0.0470021 -0.014061 -0.125342 0 0 0 -0.454624 0.0227677 -0.194451 -8.77171e-05 2.3709e-05 -3.97211e-05 -23.8256 -328.989 17.1835 0.0015 
114 1 1 -0.0617766 -0.0134464 -0.127382 0 0 0 -0.754937 -0.263175 -0.440429 0 0 -0.000346714 -97.4999 -289.009 106.159 0.0015 
66 1 1 -0.0535441 -0.0136033 -0.127045 0 0 0 -0.679331 -0.0450462 -0.283361 8.77592e-05 0.000251312 1.85667e-05 -17.2774 -277.521 77.7481 0.0025 
101 1 1 -0.0497277 -0.0122346 -0.124784 0 0 0 -0.546071 -0.142362 -0.283845 0 0 -0.000346714 42.8929 388.929 -230.336 0.0015 
127 1 1 -0.050409 -0.00865471 -0.127007 0 0 0 -0.501657 0.0763032 -0.216041 0 0 -0.000346714 -89.9536 -355.066 83.5662 0.0015 
91 1 1 -0.0714909 -0.00395298 -0.125612 0 0 0 -0.498521 0.0862428 -0.581181 0 0 -0.00160516 53.3082 -81.7548 -60.1937 0.0025 
122 1 1 -0.0592885 -0.0056473 -0.125384 0 0 0 -1.05267 0.0469454 -0.388446 0 0 -0.000346714 81.0236 -48.7047 -77.8753 0.0015 
123 1 1 -0.054166 -0.00419524 -0.125405 0 0 0 -0.560465 0.175553 -0.180509 0 0 -0.000346714 -221.466 200.881 -159.413 0.0015 
90 1 1 -0.0498694 -0.00442456 -0.125893 0 0 0 -0.527104 -0.0612242 -0.21908 -0.000372383 3.76397e-05 -0.000248518 44.3848 -230.866 -42.3304 0.0025 
81 1 1 -0.0835861 6.26788e-05 -0.127395 0 0 0 -0.737121 -0.0401257 -0.595846 0 0 -0.000346714 22.0777 -340.21 19.6179 0.0015 
103 1 1 -0.0479447 0.0120177 -0.124738 0 0 0 -0.604487 -0.0206313 -0.261527 -0.0012726 -9.92933e-05 0.00131334 11.2703 -264.571 -5.08582 0.0025 
77 1 1 -0.0719728 0.0172057 -0.127597 0 0 0 -0.774182 -0.0820079 -0.48961 0 0 -0.00160516 -117.955 -11.1572 -67.4083 0.0025 
116 1 1 -0.0594502 0.0149971 -0.126568 0 0 0 -0.820307 -0.0268676 -0.410057 0 0 -0.00160516 34.3901 97.7542 58.5807 0.0025 
135 1 1 -0.0552547 0.0147656 -0.126384 0 0 0 -0.79072 -0.0739992 -0.534155 0 0 -0.000346714 -182.811 82.342 -232.289 0.0015 
166 1 1 -0.0530379 0.0134449 -0.127917 0 0 0 -0.65318 -0.239387 -0.257315 -0.000311348 -0.000589555 -0.00099852 58.4995 -493.58 283.707 0.0015 
62 1 1 -0.0530483 0.0186369 -0.127451 0 0 0 -0.391563 0.0157672 -0.261527 0 0 -0.000346714 -5.98858 -179.454 0.119328 0.0015 
94 1 1 -0.0671408 0.0503914 -0.125635 0 0 0 -0.51031 0.145696 -0.169666 -0.000151463 -0.00011766 -0.000728901 -29.6943 -203.648 -85.7809 0.0025 
106 1 1 -0.0447857 -0.0245973 -0.12191 0 0 0 -0.564232 -0.150988 -0.238151 0 0 -0.00160516 58.3418 -233.608 25.9958 0.0025 
149 1 1 -0.0473238 -0.0215073 -0.123247 0 0 0 -0.554462 -0.281116 -0.434062 0 0 -0.000346714 2.89784 -324.346 145.688 0.0015 
105 1 1 -0.0485322 -0.0172617 -0.123015 0 0 0 -0.730485 -0.221167 -0.536532 0 0 -0.00160516 -27.401 -158.075 -90.9431 0.0025 
112 1 1 -0.0446091 -0.018223 -0.123787 0 0 0 -0.59574 -0.263339 -0.225322 0 0 -0.000346714 109.944 -396.447 200.506 0.0015 
144 1 1 -0.0459076 -0.0111691 -0.122181 0 0 0 -0.513215 -0.0110608 -0.17688 0 0 -0.00160516 101.797 -273.59 193.952 0.0025 
104 1 1 -0.0658514 -0.00856255 -0.122315 0 0 0 -0.758712 0.0523375 -0.37331 0 0 -0.00160516 21.1445 -4.98565 31.0059 0.0025 
158 1 1 -0.0431345 0.00345678 -0.122686 0 0 0 -0.616994 0.304083 -0.474515 0 0 -0.00160516 -35.2146 -290.721 -0.689767 0.0025 
110 1 1 -0.0415655 0.0094986 -0.122309 0 0 0 -0.728551 0.0460099 -0.134377 0 0 -0.000346714 50.7022 -499.14 -206.944 0.0015 
139 1 1 -0.0544997 0.015106 -0.122491 0 0 0 -0.944089 0.147195 -0.478048 0 0 -0.000346714 232.714 -588.143 97.9806 0.0015 
136 1 1 -0.0367835 0.0164675 -0.12062 0 0 0 -0.461824 0.169731 -0.199438 0 0 -0.000346714 -70.7334 -308.782 -121.489 0.0015 
119 1 1 -0.0491682 0.0209337 -0.124387 0 0 0 -0.725132 -0.24156 -0.214362 0 0 -0.00160516 89.9737 -301.531 24.4258 0.0025 
161 1 1 -0.0431782 0.0229508 -0.121732 0 0 0 -0.556904 0.125009 -0.161385 0 0 -0.000346714 -91.5738 -363.535 -25.8605 0.0015 
146 1 1 -0.0393103 -0.0472378 -0.116143 0 0 0 -0.201922 -0.732276 0.111086 -0.00113257 0.000864221 0.00415059 431.3 -84.3547 266.36 0.0015 
165 1 1 -0.054965 -0.0268744 -0.118325 0 0 0 -0.895994 0.214461 -0.406216 0 0 -0.000346714 -22.9455 -195.917 -119.891 0.0015 
126 1 1 -0.0338054 -0.0233812 -0.118748 0 0 0 -0.310639 -0.126006 -0.120883 -8.92629e-05 2.14302e-05 -4.05217e-05 -21.0026 -199.541 261.971 0.0015 
117 1 1 -0.0373561 -0.0192507 -0.119631 0 0 0 -0.442939 -0.183521 -0.126145 -0.0055981 0.00135802 0.00765815 47.031 -181.802 83.4622 0.0025 
97 1 1 -0.0757817 -0.0131697 -0.120673 0 0 0 -0.608113 0.0408381 -0.425482 0 0 -0.000346714 109.276 -295.039 -85.8856 0.0015 
80 1 1 -0.0790821 -0.00888195 -0.120225 0 0 0 -0.822154 0.0808888 -0.468836 0 0 -0.00160516 -70.6507 -163.412 65.2439 0.0025 
174 1 1 -0.0564221 -0.00905823 -0.120385 0 0 0 -1.24376 -0.329915 -0.515326 0 0 -0.000346714 387.716 105.058 290.11 0.0015 
160 1 1 -0.0300942 -0.00576126 -0.118573 0 0 0 -0.281139 0.237905 -0.122308 4.98891e-06 -7.15827e-05 -1.78893e-06 -82.3078 -123.07 -90.0385 0.0015 
69 1 1 -0.078469 -0.00152188 -0.120534 0 0 0 -0.754791 0.00562456 -0.479658 0 0 -0.000346714 -168.237 -253.173 -43.4105 0.0015 
185 1 1 -0.034299 0.00166677 -0.11819 0 0 0 -1.03806 0.0253191 -0.29671 0 0 -0.000346714 -61.0186 -684.767 102.483 0.0015 
109 1 1 -0.0320249 0.0068496 -0.119372 0 0 0 -0.401181 -0.139511 -0.141404 0.00040204 -0.00158121 0.00456314 121.167 -281.158 -45.9405 0.0015 
173 1 1 -0.0437499 0.0104632 -0.11801 0 0 0 -0.66058 0.485496 -0.168295 0 0 -0.000346714 249.586 -375.953 133.484 0.0015 
132 1 1 -0.0392389 0.00905057 -0.118083 0 0 0 -0.71597 -0.0664785 0.0294218 0 0 -0.00160516 -123.469 298.795 -66.7671 0.0025 
124 1 1 -0.0330968 0.0129781 -0.119412 0 0 0 -0.257819 -0.0817569 -0.0980675 0 0 -0.000346714 43.1701 -185.144 21.0337 0.0015 
96 1 1 -0.0800015 0.0154228 -0.118675 0 0 0 -0.845457 -0.12801 -0.475506 0 0 -0.000346714 246.884 -254.322 -70.0386 0.0015 
67 1 1 -0.0616578 0.0152837 -0.118932 0 0 0 -0.689896 0.217128 -0.446813 0 0 -0.00160516 -112.704 254.987 22.3229 0.0025 
13 1 1 -0.054674 0.0187103 -0.120576 0 0 0 -0.465096 0.0401318 -0.430311 0 0 -0.00160516 -56.5 -40.2411 -43.7451 0.0025 
148 1 1 -0.0323911 0.0189173 -0.118277 0 0 0 -0.569513 0.0379593 -0.238185 0 0 -0.000346714 -98.1253 -403.065 150.035 0.0015 
130 1 1 -0.0572699 0.0360739 -0.119582 0 0 0 -0.548073 0.164744 -0.319213 0 0 -0.00160516 -77.6487 -73.4843 -78.7592 0.0025 
9 1 1 -0.0629513 0.0661744 -0.119324 0 0 0 -0.315224 0.168906 -0.0398603 3.64077e-05 4.30943e-05 -0.000350272 -134.349 -245.413 5.0708 0.0015 
179 1 1 -0.0521823 -0.0354675 -0.11429 0 0 0 -0.82532 -0.446848 -0.268116 0 0 -0.000346714 606.356 136.341 150.775 0.0015 
181 1 1 -0.0325277 -0.0238425 -0.113148 0 0 0 -0.674858 0.145486 0.121076 0 0 -0.00160516 -88.967 -222.617 -15.0727 0.0025 
137 1 1 -0.0665937 -0.0166782 -0.116224 0 0 0 -0.71424 0.318693 -0.204853 0 0 -0.000346714 -165.637 -371.218 1.31049e-13 0.0015 
155 1 1 -0.0426084 -0.0159844 -0.117267 0 0 0 -0.563419 0.296858 -0.433488 0 0 -0.00160516 -29.797 -232.363 -28.655 0.0025 
147 1 1 -0.030192 -0.0161346 -0.11438 0 0 0 -0.312961 -0.00537989 -0.397218 0 0 -0.000346714 -25.8911 -241.683 23.1967 0.0015 
125 1 1 -0.0268448 -0.0148979 -0.116646 0 0 0 -0.220181 -0.0774145 -0.0312928 0.00135936 0.000389486 -0.00178116 33.9519 -40.6878 -180.859 0.0015 
167 1 1 -0.0470958 -0.00990625 -0.11615 0 0 0 -0.937745 0.216682 -0.54961 0 0 -0.00160516 57.8974 337.05 65.9034 0.0025 
118 1 1 -0.0260309 -0.00790586 -0.113653 0 0 0 -0.399246 0.176951 -0.0383484 0 0 -0.00160516 -54.0827 -138.857 -38.226 0.0025 
115 1 1 -0.0681156 -0.00501546 -0.117823 0 0 0 -0.704941 0.290036 -0.452433 0 0 -0.000346714 -148.193 -360.188 1.16897e-14 0.0015 
191 1 1 -0.0269233 -0.00513617 -0.116494 0 0 0 -0.517126 -0.300132 -0.220983 0 0 -0.000346714 -351.194 -497.142 -57.3735 0.0015 
154 1 1 -0.0218394 -0.00248229 -0.113947 0 0 0 -0.50276 0.165311 -0.109588 0 0 -0.000346714 -84.2218 -319.142 -81.5044 0.0015 
100 1 1 -0.0608045 0.000949625 -0.116597 0 0 0 -0.579227 0.229689 -0.500708 0 0 -0.000346714 -212.708 -114.821 -170.59 0.0015 
198 1 1 -0.0293017 0.00176824 -0.11739 0 0 0 -0.761637 0.021638 0.27402 0 0 -0.000346714 -10.9757 -386.336 -1.37497e-14 0.0015 
168 1 1 -0.0305158 0.00768237 -0.114249 0 0 0 -0.543485 -0.294472 -0.242292 -0.0043583 0.00333585 -0.00280668 43.1337 -64.9756 125.118 0.0025 
99 1 1 -0.066896 0.0141206 -0.114881 0 0 0 -0.848625 0.0571809 -0.369637 0 0 -0.000346714 215.697 -421.063 142.857 0.0015 
180 1 1 -0.0339232 0.00964888 -0.117331 0 0 0 -0.561494 -0.175777 -0.227977 -0.0194646 0.0155055 0.0358589 17.8995 -53.8388 -51.4996 0.0025 
187 1 1 -0.029425 0.0254579 -0.113228 0 0 0 -0.721234 -0.2348 0.220191 0 0 -0.000346714 119.521 -367.133 -2.96941e-14 0.0015 
140 1 1 -0.0664354 0.0449003 -0.113942 0 0 0 -0.722634 0.270636 -0.190719 0 0 -0.000346714 260.994 -389.889 163.549 0.0015 
86 1 1 -0.0361576 0.0524317 -0.113407 0 0 0 -0.232466 0.124884 -0.0607361 -7.99616e-05 -5.87705e-05 -5.84686e-05 -3.09935 -109.102 -213.006 0.0015 
200 1 1 -0.0242352 -0.032385 -0.112641 0 0 0 -0.598424 -0.625402 -0.428595 0 0 -0.000346714 498.883 135.224 258.025 0.0015 
188 1 1 -0.0223745 -0.0264534 -0.113464 0 0 0 -0.470134 -0.0456129 0.0429908 0 0 -0.000346714 81.412 -294.894 -56.9897 0.0015 
131 1 1 -0.0519724 -0.0187795 -0.11066 0 0 0 -0.697838 0.0433516 -0.275235 0 0 -0.00160516 -128.245 -158.403 34.4151 0.0025 
172 1 1 -0.0401764 -0.0188069 -0.111292 0 0 0 -0.727883 0.299697 0.0140604 0 0 -0.000346714 -156.375 -379.791 5.10942e-14 0.0015 
171 1 1 -0.0355008 -0.0192255 -0.112033 0 0 0 -0.984056 0.292994 0.130577 0 0 -0.000346714 323.439 -372.037 -4.96857 0.0015 
176 1 1 -0.0315251 -0.0205549 -0.109439 0 0 0 -0.134394 -0.0777383 -0.0172265 0 0 -0.000346714 241.791 189.798 -317.251 0.0015 
142 1 1 -0.0198321 -0.0206535 -0.11194 0 0 0 -0.270379 0.102759 0.0458624 0 0 -0.00160516 -10.1437 -98.2478 -67.1614 0.0025 
120 1 1 -0.0584294 -0.0153845 -0.111089 0 0 0 -0.756959 0.0982943 -0.344896 0 0 -0.00160516 -40.3372 -182.695 -16.5233 0.0025 
169 1 1 -0.044995 -0.0130236 -0.111796 0 0 0 -0.650581 -0.0109339 -0.390763 0 0 -0.00160516 -20.8798 -258.145 -39.1749 0.0025 
143 1 1 -0.0346374 -0.01367 -0.111837 0 0 0 -0.601138 -0.520621 -0.298533 0 0 -0.00160516 288.297 148.405 176.054 0.0025 
186 1 1 -0.00864748 -0.00749722 -0.10933 0 0 0 -0.0489499 0.0560632 0.0290992 0 0 -0.000346714 -75.7978 -8.88506 87.2225 0.0015 
129 1 1 -0.0548436 -0.00380607 -0.113157 0 0 0 -0.786618 0.0121635 -0.28941 0 0 -0.00160516 -85.0819 47.0231 -38.5406 0.0025 
204 1 1 -0.0177658 -0.00384212 -0.111915 0 0 0 -0.938495 0.273813 -0.0465357 0 0 -0.000346714 -208.54 -581.827 26.0516 0.0015 
162 1 1 -0.0182889 -0.000235421 -0.112435 0 0 0 -0.334403 0.230764 -0.106166 0 0 -0.000346714 -110.862 -117.891 -119.926 0.0015 
178 1 1 -0.0384995 0.00326469 -0.112023 0 0 0 -0.753066 0.0213945 0.0787642 0 0 -0.000346714 -10.9831 -386.597 -4.07301e-15 0.0015 
152 1 1 -0.0554556 0.00847816 -0.112177 0 0 0 -0.863483 -0.00874044 -0.0841573 0 0 -0.000346714 83.1315 -292.5 132.925 0.0015 
164 1 1 -0.0374678 0.00674342 -0.109949 0 0 0 -0.747095 -0.134941 0.0267975 0 0 -0.000346714 69.1159 -382.658 2.05793e-14 0.0015 
145 1 1 -0.0256919 0.0105074 -0.111157 0 0 0 -0.495426 0.179932 -0.280278 0 0 -0.00160516 122.548 -123.725 115.581 0.0025 
141 1 1 -0.0150386 0.0111841 -0.111037 0 0 0 -0.0844514 -0.194251 -0.12092 0 0 -0.000346714 94.6978 -30.6066 92.9092 0.0015 
156 1 1 -0.0242407 0.0152278 -0.112262 0 0 0 -0.180804 -0.129627 0.0791674 0 0 -0.00160516 47.449 -36.1966 5.62887 0.0025 
159 1 1 -0.0448598 0.0214087 -0.11021 0 0 0 -0.727991 -0.264533 -0.0357205 0 0 -0.000346714 135.577 -373.108 2.76099e-14 0.0015 
163 1 1 -0.0488692 0.0233919 -0.110984 0 0 0 -0.717385 -0.319909 -0.0812568 0 0 -0.000346714 166.308 -372.94 1.57058e-13 0.0015 
196 1 1 -0.0197683 -0.0284211 -0.109211 0 0 0 -0.703235 0.289335 0.240465 0 0 -0.00160516 -89.2179 -216.846 -7.66376e-14 0.0025 
193 1 1 -0.0247454 -0.023274 -0.112563 0 0 0 -0.731551 -0.107311 -1.17895 0 0 -0.00160516 178.964 -320.167 63.9751 0.0025 
205 1 1 -0.00903861 -0.0232284 -0.105735 0 0 0 -0.716609 0.263082 0.201888 0 0 -0.000346714 -136.781 -372.577 -3.71052e-14 0.0015 
177 1 1 -0.0286347 -0.0131138 -0.108551 0 0 0 -0.784881 -0.156527 -0.116316 0 0 -0.000346714 -126.743 -262.175 -161.616 0.0015 
157 1 1 -0.0267056 -0.00968684 -0.107105 0 0 0 -0.711552 -0.0317277 -0.207261 0 0 -0.00160516 -151.017 -131.734 -65.673 0.0025 
190 1 1 -0.0181927 0.00874752 -0.107661 0 0 0 -0.749428 -0.0168576 0.181601 0 0 -0.000346714 8.5455 -379.902 -1.22236e-17 0.0015 
189 1 1 -0.0313072 0.0166425 -0.11182 0 0 0 -1.39173 -0.128114 -1.0621 0 0 -0.000346714 -14.4434 -355.214 -59.3765 0.0015 
197 1 1 -0.0245545 0.0243078 -0.114847 0 0 0 -0.771018 -0.251007 0.428078 0.00903008 0.00293977 -0.0424702 125.793 -386.399 2.05783e-14 0.0015 
203 1 1 -0.0317899 0.0348276 -0.115969 0 0 0 0 0 -2.06306 0 0 -0.000346714 0 0 0 0.0015 
195 1 1 -0.00618556 -0.0181357 -0.102231 0 0 0 -0.711467 0.127121 0.214195 0 0 -0.00160516 -38.8351 -217.352 3.02888e-14 0.0025 
153 1 1 -0.0371445 -0.0153353 -0.101741 0 0 0 -0.705536 0.108121 0.108116 0 0 -0.000346714 -107.869 -228.934 95.2028 0.0015 
192 1 1 -0.0152216 -0.00773224 -0.103694 0 0 0 -0.733112 0.10624 0.109099 0 0 -0.000346714 -54.4381 -375.65 -2.57148e-14 0.0015 
201 1 1 -0.00334729 -0.00836761 -0.105886 0 0 0 -0.734621 0.106459 0.255429 0 0 -0.000346714 -54.0287 -372.826 4.43189e-14 0.0015 
150 1 1 -0.0313567 -0.00576838 -0.104221 0 0 0 -0.586293 -0.0855 -0.0457826 0 0 -0.000346714 -222.778 -463.567 168.636 0.0015 
151 1 1 -0.0367486 0.0187121 -0.104008 0 0 0 -0.730455 -0.170603 -0.182262 0 0 -0.000346714 87.8954 -376.333 -1.05237e-14 0.0015 
133 1 1 -0.0621028 0.0234556 -0.101934 0 0 0 -0.751423 -0.139775 0.0771485 0 0 -0.000346714 165.241 -151.591 -75.0859 0.0015 
184 1 1 -0.0163056 0.0232635 -0.103503 0 0 0 -0.699924 -0.268749 0.110942 0 0 -0.000346714 138.36 -360.342 -3.47581e-14 0.0015 
183 1 1 -0.0204709 0.0292017 -0.104106 0 0 0 -0.701214 -0.269244 0.134495 0 0 -0.00160516 83.5933 -217.709 2.6387e-14 0.0025 
61 1 1 -0.0154541 0.0563751 -0.103776 0 0 0 -0.118181 0.264041 0.0353604 -7.74009e-05 -6.12288e-05 -4.90634e-05 -239.337 -121.775 109.404 0.0015 
182 1 1 -0.014355 -0.0300079 -0.0994453 0 0 0 -0.692998 0.253522 0.0913668 0 0 -0.00160516 -78.25 -213.895 1.02045e-13 0.0025 
194 1 1 -0.0299737 -0.0249092 -0.107644 0 0 0 0 0 -2.02313 0 0 -0.00160516 0 0 0 0.0025 
175 1 1 -0.0224358 -0.020235 -0.102097 0 0 0 -0.713733 0.262026 -0.0307526 0 0 -0.000346714 -134.947 -367.581 4.36608e-14 0.0015 
199 1 1 -0.0209901 0.00167617 -0.108159 0 0 0 0 0 -2.02559 0 0 -0.000346714 0 0 0 0.0015 
170 1 1 -0.0153335 0.0165203 -0.10268 0 0 0 -0.405324 -0.153706 -0.201732 0 0 -0.00160516 53.6813 -262.807 -7.77067 0.0025 
134 1 1 -0.0410501 0.0228242 -0.100653 0 0 0 -0.378435 0.170477 -0.158131 0 0 -0.000346714 -203.412 441.886 -62.7026 0.0015 
89 1 1 -0.0677565 0.0292025 -0.100436 0 0 0 -0.5528 0.273197 -0.137388 0 0 -0.000346714 -314.22 -140.985 -64.0011 0.0015 
202 1 1 -0.0044287 0.0340232 -0.103324 0 0 0 -0.711246 -0.32556 0.186813 0 0 -0.000346714 169.603 -370.528 -1.51051e-13 0.0015 
45 1 1 -0.105624 -0.0148658 -0.0974211 0 0 0 -0.806305 -0.42317 -0.0121789 0 0 -0.000346714 389.887 -152.585 -138.964 0.0015 
212 1 1 -0.0118483 0.00949823 -0.101405 0 0 0 0 0 -1.99262 0 0 -0.000346714 0 0 0 0.0015 
209 1 1 -0.00795 0.0273623 -0.100253 0 0 0 0 0 -1.98694 0 0 -0.00160516 0 0 0 0.0025 
215 1 1 -0.0133438 0.0300767 -0.102098 0 0 0 0 0 -1.99606 0 0 -0.000346714 0 0 0 0.0015 
216 1 1 -0.00916175 0.0316192 -0.10174 0 0 0 0 0 -1.99429 0 0 -0.000346714 0 0 0 0.0015 
217 1 1 -0.00525173 0.0148756 -0.099057 0 0 0 0 0 -1.98105 0 0 -0.000346714 0 0 0 0.0015 
218 1 1 -0.0116971 -0.0149443 -0.0959002 0 0 0 0 0 -1.96535 0 0 -0.000346714 0 0 0 0.0015 
207 1 1 -0.014731 -0.00384992 -0.0926368 0 0 0 0 0 -1.94897 0 0 -0.00160516 0 0 0 0.0025 
211 1 1 -0.0325497 0.0284222 -0.0939788 0 0 0 0 0 -1.95574 0 0 -0.000346714 0 0 0 0.0015 
206 1 1 -0.0315415 -0.0266248 -0.0906731 0 0 0 0 0 -1.93906 0 0 -0.00160516 0 0 0 0.0025 
208 1 1 -0.0313425 0.0167345 -0.0902037 0 0 0 0 0 -1.93671 0 0 -0.00160516 0 0 0 0.0025 
210 1 1 -0.0220067 0.0311963 -0.0902235 0 0 0 0 0 -1.93681 0 0 -0.00160516 0 0 0 0.0025 
214 1 1 -0.000147874 -0.0328927 -0.0867371 0 0 0 0 0 -1.91905 0 0 -0.000346714 0 0 0 0.0015 
213 1 1 -0.0258692 -0.0150214 -0.0873888 0 0 0 0 0 -1.92239 0 0 -0.000346714 0 0 0 0.0015 
223 1 1 -0.0141421 0.000627184 -0.0817048 0 0 0 0 0 -1.89315 0 0 -0.000346714 0 0 0 0.0015 
226 1 1 -0.0256746 -0.0295973 -0.0793601 0 0 0 0 0 -1.88099 0 0 -0.000346714 0 0 0 0.0015 
219 1 1 -0.0126988 -0.0187384 -0.0807992 0 0 0 0 0 -1.88844 0 0 -0.00160516 0 0 0 0.0025 
228 1 1 -0.0186146 -0.0100891 -0.0795146 0 0 0 0 0 -1.88177 0 0 -0.000346714 0 0 0 0.0015 
227 1 1 -0.0125397 -0.025785 -0.0756555 0 0 0 0 0 -1.86156 0 0 -0.000346714 0 0 0 0.0015 
224 1 1 -0.0104339 -0.00964248 -0.0767742 0 0 0 0 0 -1.86745 0 0 -0.000346714 0 0 0 0.0015 
229 1 1 -0.0206785 0.0145985 -0.0779024 0 0 0 0 0 -1.87334 0 0 -0.000346714 0 0 0 0.0015 
230 1 1 -0.0158011 0.0337207 -0.0750594 0 0 0 0 0 -1.85842 0 0 -0.000346714 0 0 0 0.0015 
225 1 1 -0.0349321 -0.00790873 -0.0678213 0 0 0 0 0 -1.81977 0 0 -0.000346714 0 0 0 0.0015 
240 1 1 -0.0114835 -0.0265679 -0.0650655 0 0 0 0 0 -1.80486 0 0 -0.000346714 0 0 0 0.0015 
221 1 1 -0.03004 0.0154412 -0.0659155 0 0 0 0 0 -1.80947 0 0 -0.00160516 0 0 0 0.0025 
220 1 1 -0.0245784 0.0311922 -0.0649022 0 0 0 0 0 -1.80398 0 0 -0.00160516 0 0 0 0.0025 
222 1 1 -0.00133775 0.0319388 -0.064127 0 0 0 0 0 -1.79976 0 0 -0.00160516 0 0 0 0.0025 
239 1 1 -0.004822 -0.0263713 -0.0615803 0 0 0 0 0 -1.78583 0 0 -0.000346714 0 0 0 0.0015 
231 1 1 -0.0172445 0.00368684 -0.0632768 0 0 0 0 0 -1.79515 0 0 -0.00160516 0 0 0 0.0025 
232 1 1 -0.0305153 0.021925 -0.0610968 0 0 0 0 0 -1.78318 0 0 -0.00160516 0 0 0 0.0025 
236 1 1 -0.011765 -0.0317196 -0.0569036 0 0 0 0 0 -1.75993 0 0 -0.000346714 0 0 0 0.0015 
238 1 1 -0.00523715 -0.00399455 -0.0559858 0 0 0 0 0 -1.75483 0 0 -0.000346714 0 0 0 0.0015 
235 1 1 -0.00913613 0.0130219 -0.0539595 0 0 0 0 0 -1.74345 0 0 -0.000346714 0 0 0 0.0015 
237 1 1 -0.0276781 -0.0346784 -0.0513819 0 0 0 0 0 -1.72893 0 0 -0.000346714 0 0 0 0.0015 