ITEM: TIMESTEP
83000
ITEM: NUMBER OF ATOMS
820
ITEM: BOX BOUNDS ff ff ff
-0.5 0.1
-0.2 0.2
-0.4 0.15
ITEM: ATOMS id type type x y z ix iy iz vx vy vz fx fy fz omegax omegay omegaz radius 
1058 1 1 -0.0263525 0.0297555 0.0515086 0 0 0 -0 0 -1 0 0 0 0 0 0 0.0015 
1055 1 1 -0.0211353 0.0346594 0.0482699 0 0 0 0 0 -1.01682 0 0 -0.000346714 0 0 0 0.0015 
1048 1 1 -0.00450047 0.0219848 0.0496873 0 0 0 0 0 -1.00309 0 0 -0.00160516 0 0 0 0.0025 
1052 1 1 -0.00116673 0.0162421 0.0463627 0 0 0 0 0 -1.03507 0 0 -0.000346714 0 0 0 0.0015 
1049 1 1 -0.00407755 0.0134556 0.0503838 0 0 0 -0 0 -1 0 0 0 0 0 0 0.0025 
1059 1 1 -0.00285265 0.00934521 0.0484153 0 0 0 0 0 -1.01545 0 0 -0.000346714 0 0 0 0.0015 
1051 1 1 -0.0185405 0.00924548 0.0473388 0 0 0 0 0 -1.02575 0 0 -0.00160516 0 0 0 0.0025 
1056 1 1 -0.00119055 -0.0257421 0.0475502 0 0 0 0 0 -1.02379 0 0 -0.000346714 0 0 0 0.0015 
1054 1 1 -0.0121585 0.0234804 0.0423364 0 0 0 0 0 -1.07254 0 0 -0.000346714 0 0 0 0.0015 
1050 1 1 -0.00305123 -0.0134106 0.0467063 0 0 0 0 0 -1.03183 0 0 -0.00160516 0 0 0 0.0025 
118 1 1 -0.477979 0.0149683 -0.400373 0 0 0 -1.03421 0.0750674 -1.80503 0 0 -0.00160516 -67.2787 -209.567 -20.9341 0.0025 
1057 1 1 -0.0132457 0.00866945 0.0434807 0 0 0 0 0 -1.06205 0 0 -0.000346714 0 0 0 0.0015 
252 1 1 -0.451411 -0.0160558 -0.398332 0 0 0 -0.966088 -0.253625 -1.91179 0 0 -0.000346714 -163.922 -529.897 -271.472 0.0015 
223 1 1 -0.465636 -0.00772313 -0.397674 0 0 0 -0.96782 -0.0410256 -1.78297 0 0 -0.000346714 -14.4538 -65.868 -23.1529 0.0015 
134 1 1 -0.470139 0.00229395 -0.396999 0 0 0 -1.07764 -0.0198744 -1.75839 0 0 -0.000346714 162.244 -619.846 -30.5923 0.0015 
261 1 1 -0.492241 -0.00971114 -0.396597 0 0 0 -1.2512 0.216315 -1.86185 0 0 -0.000346714 -219.487 -908.675 154.103 0.0015 
286 1 1 -0.483609 -0.00364051 -0.395331 0 0 0 -1.21349 -0.123161 -1.81937 0 0 -0.00160516 61.1949 -526.834 -17.8641 0.0025 
251 1 1 -0.457745 0.00447464 -0.393581 0 0 0 -0.934641 0.0370445 -1.76268 0 0 -0.000346714 -45.3533 -548.355 12.8843 0.0015 
222 1 1 -0.48365 0.00535683 -0.392691 0 0 0 -1.23249 -0.0927185 -1.81426 0 0 -0.00160516 99.848 -516.788 -138.809 0.0025 
226 1 1 -0.463084 -0.0119395 -0.387939 0 0 0 -1.04074 0.0779308 -1.76177 0 0 -0.000346714 -50.6944 -756.811 -10.2526 0.0015 
347 1 1 -0.481307 0.00599379 -0.386994 0 0 0 -1.25149 -0.0653268 -1.78082 0 0 -0.00160516 39.0311 -548.399 12.5517 0.0025 
271 1 1 -0.462316 0.0070384 -0.388068 0 0 0 -1.05338 0.020287 -1.7636 0 0 -0.00160516 -14.5474 -428.222 3.29529 0.0025 
306 1 1 -0.432842 -0.0106121 -0.384355 0 0 0 -0.871024 0.118056 -1.82837 0 0 -0.000346714 94.844 -482.578 110.526 0.0015 
209 1 1 -0.4538 -0.0104862 -0.38458 0 0 0 -1.01483 -0.0174525 -1.76166 0 0 -0.00160516 98.5795 -406.85 75.5558 0.0025 
295 1 1 -0.461865 -0.0141286 -0.380227 0 0 0 -1.06351 0.0795044 -1.72 0 0 -0.000346714 -112.987 -745.537 141.606 0.0015 
299 1 1 -0.457882 -0.000506171 -0.380939 0 0 0 -1.01317 -0.00117368 -1.70086 0 0 -0.00160516 -65.3735 -59.9917 -34.7802 0.0025 
279 1 1 -0.442252 -0.00224942 -0.380946 0 0 0 -0.94014 -0.0255148 -1.7185 0 0 -0.000346714 -1.3844 -567.547 17.515 0.0015 
348 1 1 -0.477971 -0.00659877 -0.377976 0 0 0 -1.27169 -0.17924 -1.71812 0 0 -0.00160516 71.4792 -535.908 -7.71366 0.0025 
278 1 1 -0.437129 -0.00627879 -0.376503 0 0 0 -0.916566 0.0058572 -1.69488 0 0 -0.000346714 -189.381 -627.073 -31.7332 0.0015 
86 1 1 -0.437351 0.00467537 -0.377457 0 0 0 -0.920224 0.0337641 -1.70348 0 0 -0.000346714 123.484 -563.73 199.571 0.0015 
238 1 1 -0.465006 -0.0292452 -0.37108 0 0 0 -1.10168 -0.0112723 -1.66205 0 0 -0.000346714 -29.0566 -782.247 111.447 0.0015 
237 1 1 -0.460556 -0.0174608 -0.374416 0 0 0 -1.11058 0.134415 -1.76269 0 0 -0.000346714 -45.5223 -775.812 54.2523 0.0015 
282 1 1 -0.438278 -0.00955585 -0.373658 0 0 0 -0.916104 -0.000669075 -1.66975 0 0 -0.000346714 155.515 -430.726 136.919 0.0015 
290 1 1 -0.443461 0.00388784 -0.37192 0 0 0 -0.952515 -0.000298131 -1.65102 0 0 -0.000346714 -18.9022 -634.161 -97.4314 0.0015 
176 1 1 -0.449103 -0.0181844 -0.368682 0 0 0 -0.996804 0.0387971 -1.64127 0 0 -0.000346714 -17.5264 -731.744 -22.2109 0.0015 
207 1 1 -0.459782 -0.016374 -0.367463 0 0 0 -1.07882 -0.0285322 -1.61407 0 0 -0.00160516 -16.2793 -407.085 136.478 0.0025 
236 1 1 -0.433209 -0.00460076 -0.366812 0 0 0 -0.89147 0.0898722 -1.62495 0 0 -0.000346714 168.762 -139.541 125.842 0.0015 
257 1 1 -0.462088 -0.00840328 -0.365985 0 0 0 -1.16755 0.0984439 -1.68637 0 0 -0.00160516 -31.9636 -310.666 80.7113 0.0025 
170 1 1 -0.454511 0.000413555 -0.36734 0 0 0 -1.07789 0.0746029 -1.70666 0 0 -0.00160516 46.1816 -381.152 56.248 0.0025 
277 1 1 -0.473578 -0.00928734 -0.361004 0 0 0 -1.28296 0.258399 -1.62313 0 0 -0.000346714 -265.187 -765.948 250.678 0.0015 
303 1 1 -0.43445 -0.00903148 -0.362587 0 0 0 -0.932948 -0.0197277 -1.59788 0 0 -0.000346714 96.2072 -653.206 -27.4599 0.0015 
323 1 1 -0.444995 0.00974126 -0.362272 0 0 0 -1.03286 -0.0125455 -1.63665 0 0 -0.00160516 -20.4546 -433.105 -12.3153 0.0025 
390 1 1 -0.454576 -0.00578768 -0.354614 0 0 0 -1.1339 0.11641 -1.41514 0 0 -0.000346714 -65.1303 -639.642 103.981 0.0015 
350 1 1 -0.454024 -0.00174237 -0.356829 0 0 0 -1.1094 0.128703 -1.51779 0 0 -0.00160516 -49.6277 -427.843 115.058 0.0025 
275 1 1 -0.443675 -0.000805376 -0.356978 0 0 0 -1.08071 0.107591 -1.58146 0 0 -0.000346714 -101.324 -786.506 49.8113 0.0015 
220 1 1 -0.442817 0.0137663 -0.359467 0 0 0 -1.04119 -0.00181941 -1.60832 0 0 -0.00160516 -20.2055 -363.597 -111.511 0.0025 
264 1 1 -0.45787 0.026053 -0.358066 0 0 0 -1.19427 0.0406466 -1.60064 0 0 -0.000346714 101.853 -817.084 -311.517 0.0015 
291 1 1 -0.472685 -0.00239848 -0.348683 0 0 0 -1.29096 0.221328 -1.48275 0 0 -0.000346714 -197.966 -656.204 251.766 0.0015 
242 1 1 -0.451608 -0.00222183 -0.347578 0 0 0 -1.04064 0.104259 -1.45395 0 0 -0.000346714 -75.309 -591.385 67.6381 0.0015 
125 1 1 -0.441438 0.00082393 -0.350588 0 0 0 -1.0767 0.0633814 -1.52724 0 0 -0.000346714 -44.9976 -776.377 -1.41193 0.0015 
240 1 1 -0.447419 0.00213268 -0.346102 0 0 0 -1.20438 0.177482 -1.52541 0 0 -0.000346714 -117.81 -878.802 -24.1288 0.0015 
230 1 1 -0.442315 0.00674219 -0.347805 0 0 0 -1.13289 -0.0678747 -1.52746 0 0 -0.000346714 67.8075 -824.467 -43.4022 0.0015 
327 1 1 -0.435138 0.00869995 -0.345322 0 0 0 -1.04841 0.119123 -1.48991 0 0 -0.000346714 -74.6471 -759.05 -26.7064 0.0015 
248 1 1 -0.422216 0.0139408 -0.341737 0 0 0 -0.950919 0.180702 -1.48252 0 0 -0.000346714 -110.923 -361.481 194.746 0.0015 
241 1 1 -0.433404 0.0203544 -0.337792 0 0 0 -1.07831 -0.00936219 -1.45842 0 0 -0.000346714 -15.6061 -802.971 51.4179 0.0015 
343 1 1 -0.430512 -0.00515892 -0.334033 0 0 0 -1.08991 0.0222555 -1.4182 0 0 -0.000346714 -31.4121 -783.452 37.8496 0.0015 
356 1 1 -0.436102 0.0168212 -0.334873 0 0 0 -1.1626 -0.0126764 -1.44699 0 0 -0.000346714 36.4979 -841.994 -65.4061 0.0015 
393 1 1 -0.45728 -0.0467597 -0.332584 0 0 0 -1.31593 0.0442641 -1.5306 0 0 -0.000346714 -136.758 -884.306 309.158 0.0015 
142 1 1 -0.424388 -0.00904233 -0.332261 0 0 0 -1.04583 0.00611226 -1.43513 0 0 -0.00160516 -55.8784 -433.06 -27.5699 0.0025 
302 1 1 -0.421911 0.00999255 -0.331977 0 0 0 -1.01327 0.000186501 -1.43682 0 0 -0.000346714 -64.8653 -706.536 42.5242 0.0015 
361 1 1 -0.4396 0.0278643 -0.33131 0 0 0 -1.15682 -0.12469 -1.4751 0 0 -0.00160516 53.1964 -560.58 13.1249 0.0025 
406 1 1 -0.419263 -0.00358632 -0.326393 0 0 0 -1.05576 0.0796117 -1.40274 0 0 -0.000346714 185.75 -497.727 -5.45739 0.0015 
162 1 1 -0.413912 -0.000118076 -0.328344 0 0 0 -0.998759 0.0373586 -1.41363 0 0 -0.000346714 -127.94 -589.048 120.159 0.0015 
337 1 1 -0.457261 0.0119107 -0.327553 0 0 0 -1.25504 -0.0756442 -1.2552 0 0 -0.000346714 -9.93597 -637.522 -306.722 0.0015 
313 1 1 -0.422116 0.0115781 -0.327974 0 0 0 -1.06784 -0.0098394 -1.36075 0 0 -0.000346714 -40.456 -715.41 -4.50183 0.0015 
227 1 1 -0.414088 -0.00932389 -0.322938 0 0 0 -0.979694 0.0386089 -1.3411 0 0 -0.000346714 -111.597 -695.685 62.2439 0.0015 
381 1 1 -0.412559 -0.00401023 -0.324005 0 0 0 -1.04625 -0.0169456 -1.38598 0 0 -0.000346714 -72.4212 190.556 -56.8082 0.0015 
297 1 1 -0.424207 -0.0032147 -0.32408 0 0 0 -1.07118 0.025485 -1.33023 0 0 -0.00160516 12.5466 -434.091 -11.8533 0.0025 
254 1 1 -0.415738 0.00403957 -0.325228 0 0 0 -0.990815 0.0106039 -1.34664 0 0 -0.000346714 9.51715 -716.54 -40.5685 0.0015 
316 1 1 -0.424861 0.0147382 -0.322199 0 0 0 -1.11994 -0.0180026 -1.33642 0 0 -0.000346714 64.7908 -774.002 -147.916 0.0015 
423 1 1 -0.431062 -0.0231388 -0.322306 0 0 0 -1.12441 0.179185 -1.39205 0 0 -0.000346714 -221.768 -755.597 243.854 0.0015 
146 1 1 -0.409484 -0.0133343 -0.321629 0 0 0 -0.895098 0.127603 -1.32855 0 0 -0.000346714 -115.447 -643.49 55.929 0.0015 
284 1 1 -0.413495 -0.000114971 -0.320615 0 0 0 -0.999661 -0.00388339 -1.33579 0 0 -0.00160516 31.9142 -421.325 -7.82031 0.0025 
318 1 1 -0.398752 -0.00340929 -0.320517 0 0 0 -0.924629 -0.006537 -1.35641 0 0 -0.000346714 42.9014 -204.632 91.2436 0.0015 
367 1 1 -0.417667 -0.00926757 -0.318213 0 0 0 -1.07867 0.23673 -1.34932 0 0 -0.000346714 -237.907 -748.841 165.515 0.0015 
384 1 1 -0.410287 -0.00969726 -0.317166 0 0 0 -0.965859 0.0791716 -1.29205 0 0 -0.000346714 -107.676 -717.006 -0.409174 0.0015 
234 1 1 -0.416056 -0.00442379 -0.315802 0 0 0 -1.06469 0.0849751 -1.28151 0 0 -0.00160516 -49.9518 -415.955 35.4847 0.0025 
342 1 1 -0.411244 -0.00129735 -0.315524 0 0 0 -0.949916 0.091125 -1.19975 0 0 -0.000346714 -171.115 -581.607 246.47 0.0015 
292 1 1 -0.411894 -0.00609118 -0.311165 0 0 0 -1.09081 0.00665254 -1.24953 0 0 -0.000346714 18.9016 -790.098 -57.2001 0.0015 
263 1 1 -0.417972 7.20306e-05 -0.312534 0 0 0 -1.10003 0.0495227 -1.22014 0 0 -0.000346714 40.1686 -693.478 -153.089 0.0015 
353 1 1 -0.400819 -0.00247502 -0.311383 0 0 0 -0.991431 -0.0950149 -1.23124 0 0 -0.000346714 -47.9687 -543.939 62.4383 0.0015 
308 1 1 -0.409238 0.000605263 -0.311642 0 0 0 -1.0444 0.00880814 -1.28584 0 0 -0.00160516 26.3483 -342.515 7.59896 0.0025 
374 1 1 -0.397894 0.00291696 -0.314155 0 0 0 -0.855857 -0.0367162 -1.28766 0 0 -0.00160516 15.2676 -140.923 -24.6276 0.0025 
328 1 1 -0.414362 0.010714 -0.313119 0 0 0 -1.10912 -0.330733 -1.35412 0 0 -0.000346714 330.172 -771.887 -194.782 0.0015 
294 1 1 -0.410326 -0.0151022 -0.308451 0 0 0 -1.07269 0.0683177 -1.23993 0 0 -0.000346714 -27.3602 -793.48 -54.3081 0.0015 
231 1 1 -0.404215 -0.010007 -0.307915 0 0 0 -1.00743 0.0439715 -1.24876 0 0 -0.00160516 -90.9023 -417.055 46.7957 0.0025 
285 1 1 -0.404023 -0.000469743 -0.307905 0 0 0 -1.0151 0.0439018 -1.23464 0 0 -0.00160516 36.7957 -376.608 52.9537 0.0025 
524 1 1 -0.412114 0.0131075 -0.309169 0 0 0 -1.13433 -0.0985662 -1.26606 0 0 -0.000346714 183.127 -782.884 -261.246 0.0015 
320 1 1 -0.401854 0.021211 -0.308701 0 0 0 -0.980725 0.0957338 -1.23085 0 0 -0.000346714 -130.611 -741.905 96.6361 0.0015 
399 1 1 -0.411512 0.00093996 -0.303848 0 0 0 -1.19817 -0.0329601 -1.20775 0 0 -0.00160516 20.5402 -497.571 -10.3015 0.0025 
255 1 1 -0.394112 0.00615044 -0.306145 0 0 0 -0.840776 -0.0075303 -1.1934 0 0 -0.000346714 -37.2087 -589.374 62.4241 0.0015 
331 1 1 -0.395226 0.00885852 -0.304435 0 0 0 -0.966881 0.0143958 -1.18942 0 0 -0.000346714 40.4535 -577.626 -84.5239 0.0015 
246 1 1 -0.401658 0.011675 -0.305345 0 0 0 -0.952532 0.0291249 -1.18551 0 0 -0.00160516 -22.868 -403.019 8.07513 0.0025 
365 1 1 -0.395556 0.0132305 -0.30642 0 0 0 -1.02746 0.0205339 -1.31657 0 0 -0.000346714 -72.0759 -569.245 -49.7021 0.0015 
61 1 1 -0.399316 -0.00924522 -0.300645 0 0 0 -1.03921 -0.0496302 -1.18643 0 0 -0.000346714 -136.919 -519.493 -43.1392 0.0015 
336 1 1 -0.405843 -0.00402769 -0.301053 0 0 0 -1.07474 0.0715256 -1.13357 0 0 -0.00160516 -42.4465 -400.526 8.69038 0.0025 
229 1 1 -0.394676 -0.00287953 -0.298893 0 0 0 -0.989994 -0.0373241 -1.13623 0 0 -0.000346714 33.3345 -714.915 -4.44825 0.0015 
366 1 1 -0.391158 0.00441355 -0.300525 0 0 0 -1.01022 -0.0671947 -1.20724 0 0 -0.000346714 53.2509 -616.885 -75.1294 0.0015 
301 1 1 -0.406501 0.0329006 -0.300455 0 0 0 -1.06247 0.0736182 -1.17301 0 0 -0.000346714 35.6289 -726.739 -223.249 0.0015 
141 1 1 -0.400443 -0.0255025 -0.296104 0 0 0 -1.06731 -0.0409471 -1.13386 0 0 -0.000346714 82.8422 -806.273 -125.39 0.0015 
386 1 1 -0.396375 -0.00793052 -0.297338 0 0 0 -1.04969 -0.0868821 -1.1986 0 0 -0.00160516 -0.179146 -357.679 -31.8028 0.0025 
330 1 1 -0.392851 0.00741855 -0.296457 0 0 0 -0.926423 -0.0433874 -1.12603 0 0 -0.000346714 -4.7065 -622.086 -26.8567 0.0015 
368 1 1 -0.413364 -0.0417683 -0.294213 0 0 0 -1.139 0.0851428 -1.20453 0 0 -0.000346714 -52.1039 -909.765 -27.9697 0.0015 
307 1 1 -0.387952 -0.00875455 -0.292813 0 0 0 -1.00298 0.0276664 -1.12187 0 0 -0.000346714 57.237 -739.71 33.304 0.0015 
283 1 1 -0.401025 0.00917095 -0.293273 0 0 0 -1.18492 -0.0774851 -1.11427 0 0 -0.00160516 47.8238 -482.779 -32.1141 0.0025 
402 1 1 -0.389195 -0.019005 -0.288857 0 0 0 -0.963623 -0.022999 -1.0606 0 0 -0.00160516 -12.237 -408.569 42.899 0.0025 
357 1 1 -0.386303 -0.00517199 -0.290524 0 0 0 -0.948937 0.0472253 -1.04847 0 0 -0.000346714 -14.0961 -655.801 -16.0175 0.0015 
354 1 1 -0.377158 0.00909635 -0.29092 0 0 0 -0.906089 0.0511845 -1.16252 0 0 -0.000346714 7.59219 -581.922 134.497 0.0015 
360 1 1 -0.383362 0.0150794 -0.293334 0 0 0 -1.00422 -0.634138 -1.44088 0 0 -0.00160516 350.348 -427.785 -113.242 0.0025 
317 1 1 -0.391351 -0.0145124 -0.28466 0 0 0 -1.12112 0.0530913 -0.992458 0 0 -0.000346714 -7.35626 -781.634 -36.7645 0.0015 
429 1 1 -0.396407 -0.0107926 -0.282775 0 0 0 -1.15633 -0.267684 -0.722988 0 0 -0.000346714 121.174 -480.207 -125.464 0.0015 
280 1 1 -0.387304 -0.0090789 -0.285845 0 0 0 -1.01694 0.097405 -1.01961 0 0 -0.000346714 -29.7641 -662.596 145.892 0.0015 
319 1 1 -0.383765 -0.0104825 -0.285114 0 0 0 -0.993003 -0.0183283 -1.00898 0 0 -0.000346714 0.828004 -713.986 30.6998 0.0015 
391 1 1 -0.379104 -0.00646792 -0.285725 0 0 0 -0.873022 0.00763356 -0.997326 0 0 -0.000346714 14.4072 -625.247 -52.8278 0.0015 
532 1 1 -0.397027 0.0103244 -0.286348 0 0 0 -1.36195 -0.233836 -1.14778 0 0 -0.00160516 127.35 -589.89 -57.2917 0.0025 
388 1 1 -0.40025 -0.0443757 -0.282902 0 0 0 -1.02226 0.0213855 -1.07409 0 0 -0.00160516 -54.5804 -419.683 125.789 0.0025 
267 1 1 -0.379193 -0.00971105 -0.28191 0 0 0 -0.99715 0.0767359 -1.00637 0 0 -0.000346714 -55.9497 -649.947 108.712 0.0015 
304 1 1 -0.377047 -0.00447386 -0.283156 0 0 0 -0.878616 0.029203 -0.979894 0 0 -0.000346714 -48.6808 -624.488 79.2606 0.0015 
288 1 1 -0.379719 -0.0047659 -0.280014 0 0 0 -1.02821 0.0822793 -0.956725 0 0 -0.000346714 -71.4643 -725.07 29.3843 0.0015 
273 1 1 -0.384038 0.00369367 -0.283728 0 0 0 -1.06617 -0.00692133 -1.04447 0 0 -0.00160516 -57.5985 -437.382 -23.1646 0.0025 
457 1 1 -0.390744 0.014582 -0.282012 0 0 0 -1.34465 -0.167901 -1.08993 0 0 -0.000346714 184.897 -960.064 -145.846 0.0015 
441 1 1 -0.395817 0.0347669 -0.281067 0 0 0 -1.1614 -0.108414 -1.09217 0 0 -0.00160516 60.9912 -541.855 -26.4465 0.0025 
333 1 1 -0.384629 -0.0212293 -0.27622 0 0 0 -1.13547 0.118197 -0.983541 0 0 -0.00160516 -76.4591 -484.994 67.3674 0.0025 
314 1 1 -0.380638 -0.013853 -0.276442 0 0 0 -1.07896 0.0152871 -0.914991 0 0 -0.000346714 -21.2417 -744.232 63.9338 0.0015 
334 1 1 -0.377443 0.00023632 -0.277477 0 0 0 -1.02501 0.103027 -0.948806 0 0 -0.00160516 -58.9995 -441.514 34.8504 0.0025 
345 1 1 -0.371993 0.00685656 -0.275864 0 0 0 -0.992938 0.0533018 -0.931596 0 0 -0.000346714 135.945 -740.577 -81.4948 0.0015 
335 1 1 -0.383873 0.00879848 -0.279296 0 0 0 -1.10702 0.0105592 -0.945898 0 0 -0.00160516 -12.0329 -449.999 -12.4168 0.0025 
377 1 1 -0.368758 0.00207272 -0.273458 0 0 0 -0.922056 0.0071705 -0.867371 0 0 -0.000346714 -17.5486 -373.446 74.0245 0.0015 
414 1 1 -0.370967 -0.0142192 -0.269711 0 0 0 -1.04996 0.0132779 -0.873289 0 0 -0.00160516 5.28957 -464.051 -27.1016 0.0025 
300 1 1 -0.365342 0.0049929 -0.27126 0 0 0 -0.899221 0.107675 -0.845351 0 0 -0.000346714 -101.819 -644.892 57.3879 0.0015 
434 1 1 -0.374587 -0.0324056 -0.265143 0 0 0 -1.18965 0.0055621 -0.868284 0 0 -0.000346714 -53.1996 -846.882 133.107 0.0015 
527 1 1 -0.36097 -0.0127817 -0.264477 0 0 0 -0.903187 0.130506 -0.776986 0 0 -0.000346714 -16.6517 -388.207 255.72 0.0015 
421 1 1 -0.35896 -0.00625749 -0.266281 0 0 0 -0.955197 0.0660324 -0.849419 0 0 -0.000346714 29.3133 -567.249 45.1051 0.0015 
397 1 1 -0.359256 0.00138557 -0.264215 0 0 0 -0.976189 0.145533 -0.778249 0 0 -0.000346714 -109.713 -703.11 11.6296 0.0015 
298 1 1 -0.362648 0.00449897 -0.267385 0 0 0 -1.08743 -0.227632 -1.05927 0 0 -0.00160516 -43.7125 -353.367 -138.407 0.0025 
379 1 1 -0.352923 0.00501936 -0.268489 0 0 0 -0.915902 0.0127206 -0.97424 0 0 -0.000346714 -170.313 -242.254 -270.096 0.0015 
352 1 1 -0.362776 0.0118342 -0.266157 0 0 0 -1.1009 -0.0148508 -0.941272 0 0 -0.000346714 120.837 -697.109 -95.8744 0.0015 
329 1 1 -0.364605 0.0160402 -0.265152 0 0 0 -1.12647 -0.0593523 -0.848864 0 0 -0.000346714 67.128 -817.149 -56.5775 0.0015 
449 1 1 -0.362946 0.0219952 -0.264583 0 0 0 -0.988955 0.0671938 -0.799648 0 0 -0.000346714 45.2831 -683.385 -223.787 0.0015 
439 1 1 -0.361523 -0.0192111 -0.261691 0 0 0 -0.946617 0.0515573 -0.762165 0 0 -0.00160516 -15.5989 -413.069 -13.302 0.0025 
459 1 1 -0.355841 -0.012415 -0.263365 0 0 0 -0.93126 0.00779211 -0.820112 0 0 -0.000346714 -156.274 -529.42 37.0157 0.0015 
454 1 1 -0.358947 -0.00729301 -0.261038 0 0 0 -1.02425 0.0911232 -0.717734 0 0 -0.000346714 -55.9482 -647.318 251.146 0.0015 
363 1 1 -0.355923 -0.00303742 -0.262991 0 0 0 -0.950669 0.0962299 -0.77955 0 0 -0.000346714 -164.879 -661.874 41.2521 0.0015 
424 1 1 -0.352035 0.0008475 -0.259902 0 0 0 -0.845985 0.00787591 -0.717967 0 0 -0.00160516 8.55762 -314.904 -27.8941 0.0025 
326 1 1 -0.347028 0.00334018 -0.264753 0 0 0 -0.776952 0.0334873 -0.936478 0 0 -0.000346714 -99.7691 -171.646 -91.4587 0.0015 
408 1 1 -0.348018 0.000992995 -0.25987 0 0 0 -0.832322 0.050054 -0.71394 0 0 -0.000346714 122.92 -153.145 160.056 0.0015 
389 1 1 -0.360136 0.00856514 -0.26414 0 0 0 -1.02937 -0.181693 -1.0476 0 0 -0.00160516 -170.374 -282.199 -107.937 0.0025 
324 1 1 -0.357284 0.0121228 -0.260483 0 0 0 -0.977559 -0.268796 -0.727195 0 0 -0.00160516 90.4671 -407.357 -57.3624 0.0025 
395 1 1 -0.362479 -0.0287066 -0.259349 0 0 0 -1.1364 0.0451382 -0.799522 0 0 -0.000346714 -77.3425 -815.597 112.538 0.0015 
260 1 1 -0.366295 -0.0135565 -0.25762 0 0 0 -1.07794 0.111265 -0.755029 0 0 -0.00160516 32.4811 -22.1708 -34.201 0.0025 
488 1 1 -0.353777 -0.0122142 -0.258885 0 0 0 -0.947282 0.0909643 -0.702125 0 0 -0.000346714 -102.764 -658.297 121.698 0.0015 
419 1 1 -0.356169 -0.0101481 -0.258412 0 0 0 -1.06393 0.0282207 -0.689172 0 0 -0.000346714 -81.2707 -591.094 -37.8237 0.0015 
340 1 1 -0.35509 -0.00701689 -0.259288 0 0 0 -1.03985 0.0295768 -0.708215 0 0 -0.000346714 -33.2212 -757.69 23.0806 0.0015 
436 1 1 -0.352358 -0.00839945 -0.257377 0 0 0 -1.09994 0.0821317 -0.72043 0 0 -0.000346714 -42.799 -789.878 -38.6447 0.0015 
322 1 1 -0.355545 0.00699346 -0.259317 0 0 0 -1.09748 0.0169659 -0.802585 0 0 -0.00160516 16.4515 -374.139 25.8989 0.0025 
373 1 1 -0.351884 0.00402479 -0.255567 0 0 0 -1.09096 0.0426217 -0.660374 0 0 -0.00160516 76.8342 -384.686 30.3288 0.0025 
465 1 1 -0.366452 0.0112468 -0.261617 0 0 0 -1.26277 0.172181 -1.05983 0 0 -0.00160516 29.7715 220.971 19.0912 0.0025 
370 1 1 -0.353829 0.0116586 -0.257859 0 0 0 -1.02142 0.0692784 -0.665999 0 0 -0.000346714 -138.426 -666.057 75.7744 0.0015 
407 1 1 -0.351107 -0.0038597 -0.254275 0 0 0 -1.00332 -0.0475047 -0.75174 0 0 -0.000346714 65.6086 -291.633 -111.664 0.0015 
398 1 1 -0.347516 -0.00261032 -0.252985 0 0 0 -1.00613 0.0375271 -0.618023 0 0 -0.00160516 32.6821 -248.459 43.6935 0.0025 
467 1 1 -0.347914 0.00262745 -0.253561 0 0 0 -1.03237 0.116529 -0.618169 0 0 -0.000346714 222.266 152.253 158.75 0.0015 
349 1 1 -0.343892 0.00399182 -0.251808 0 0 0 -0.993443 0.126314 -0.601255 0 0 -0.00160516 -60.0961 -421.421 8.47853 0.0025 
358 1 1 -0.341303 -0.0131806 -0.250061 0 0 0 -1.13967 0.190323 -0.651605 0 0 -0.000346714 -146.871 -822.227 25.2334 0.0015 
438 1 1 -0.345089 -0.00827336 -0.252435 0 0 0 -1.08089 -0.0993998 -0.767167 0 0 -0.00160516 92.7292 229.409 -25.7589 0.0025 
394 1 1 -0.338453 -0.00875504 -0.249535 0 0 0 -0.918513 -0.0482055 -0.540599 0 0 -0.000346714 46.8051 -663.725 -27.3602 0.0015 
351 1 1 -0.336093 0.0041305 -0.24856 0 0 0 -1.00934 -0.135556 -0.57135 0 0 -0.000346714 188.468 -719.05 -210.205 0.0015 
325 1 1 -0.341118 0.00967496 -0.250941 0 0 0 -1.06369 0.000762713 -0.624134 0 0 -0.000346714 8.84489 -770.448 -22.3751 0.0015 
375 1 1 -0.34699 0.0200585 -0.251279 0 0 0 -1.12404 -0.0465544 -0.687521 0 0 -0.00160516 25.8437 -493.558 -13.5053 0.0025 
385 1 1 -0.344903 0.0242141 -0.249136 0 0 0 -1.13059 -0.0472145 -0.667528 0 0 -0.00160516 23.4442 -497.35 -7.44448 0.0025 
420 1 1 -0.332049 -0.0192331 -0.244212 0 0 0 -1.14758 0.180666 -0.570602 0 0 -0.000346714 -167.568 -820.018 89.4007 0.0015 
270 1 1 -0.335237 -0.00748558 -0.246636 0 0 0 -0.941355 0.244693 -0.530346 0 0 -0.00160516 -145.343 -398.989 98.7941 0.0025 
451 1 1 -0.330979 -0.00393996 -0.244649 0 0 0 -0.934964 0.0803175 -0.474361 0 0 -0.00160516 -59.8257 -400.9 60.4403 0.0025 
396 1 1 -0.331933 0.00886966 -0.245969 0 0 0 -1.07132 0.158764 -0.532706 0 0 -0.000346714 -176.193 -786.442 141.299 0.0015 
448 1 1 -0.328761 -0.0309419 -0.239606 0 0 0 -0.974184 0.104446 -0.457359 0 0 -0.000346714 -126.107 -689.353 123.306 0.0015 
487 1 1 -0.332316 -0.0221695 -0.243639 0 0 0 -1.12753 0.17665 -0.647583 0 0 -0.000346714 -138.722 -784.294 175.838 0.0015 
401 1 1 -0.331165 -0.012453 -0.243874 0 0 0 -1.16427 0.187792 -0.550377 0 0 -0.00160516 -119.978 -487.706 98.1795 0.0025 
405 1 1 -0.323493 -0.00825735 -0.241965 0 0 0 -0.979526 0.118987 -0.368981 0 0 -0.000346714 -32.4898 -565.013 -17.2395 0.0015 
452 1 1 -0.341325 -0.00143473 -0.243811 0 0 0 -1.17822 0.277214 -0.599029 0 0 -0.00160516 -130.632 -255.963 -44.0763 0.0025 
378 1 1 -0.323892 -0.00335927 -0.242492 0 0 0 -1.01553 -0.0175221 -0.428449 0 0 -0.000346714 -21.0757 -727.113 82.4822 0.0015 
362 1 1 -0.321239 5.66185e-05 -0.240512 0 0 0 -1.05245 0.0176065 -0.442178 -0.000375074 -5.62847e-05 -0.000257812 0.414195 -456.684 -19.1802 0.0025 
502 1 1 -0.331753 0.0126176 -0.24326 0 0 0 -1.10906 -0.459647 -0.58184 0 0 -0.00160516 123.385 -455.62 98.0103 0.0025 
359 1 1 -0.324887 0.018876 -0.24007 0 0 0 -1.09523 -0.0489319 -0.485076 0 0 -0.00160516 21.1635 -483.502 -0.102713 0.0025 
411 1 1 -0.332795 0.0190569 -0.243939 0 0 0 -1.02077 -0.328906 -0.605914 0 0 -0.00160516 294.738 -376.659 -122.126 0.0025 
376 1 1 -0.316404 -0.0201472 -0.236405 0 0 0 -0.985382 0.0199591 -0.397934 -0.000544729 0.000282939 0.000351934 -79.2153 -397.592 176.711 0.0025 
490 1 1 -0.316412 -0.013327 -0.23744 0 0 0 -1.0186 0.138161 -0.477911 0 0 -0.00160516 -58.5428 -443.929 -3.05491 0.0025 
426 1 1 -0.320533 -0.00938133 -0.239458 0 0 0 -0.997583 0.0605821 -0.306556 0 0 -0.00160516 -31.3874 -385.953 33.2815 0.0025 
447 1 1 -0.31285 -0.00466293 -0.237894 0 0 0 -0.979155 0.00861323 -0.413594 -8.77541e-05 7.36786e-06 -4.06129e-05 39.3863 -713.129 -108.077 0.0015 
312 1 1 -0.312929 -0.000399204 -0.236727 0 0 0 -1.12703 -0.169027 -0.451612 0 0 -0.00160516 -2.8472 -417.476 28.4612 0.0025 
339 1 1 -0.315123 0.0154656 -0.237737 0 0 0 -1.06314 -0.0680515 -0.457899 -8.98127e-05 -4.18265e-05 -3.53721e-05 58.2878 -777.17 -19.8464 0.0015 
371 1 1 -0.323378 0.0238179 -0.239558 0 0 0 -1.10339 0.0101689 -0.459784 0.000331143 0.000130483 -0.00104118 40.6902 -788.219 -115.105 0.0015 
551 1 1 -0.321855 -0.0367197 -0.234595 0 0 0 -1.14734 0.0444999 -0.494265 0 0 -0.000346714 -98.7665 -793.386 191.721 0.0015 
431 1 1 -0.311882 -0.0245041 -0.234541 0 0 0 -1.14617 0.05784 -0.458666 0 0 -0.000346714 -58.6272 -828.681 49.6629 0.0015 
310 1 1 -0.321223 -0.0188285 -0.234672 0 0 0 -1.18559 -0.0558241 -0.672843 0 0 -0.00160516 113.828 -12.6101 -32.4609 0.0025 
520 1 1 -0.309017 -0.0186324 -0.234704 0 0 0 -1.06883 0.0504851 -0.417857 0 0 -0.000346714 -183.646 -718.525 371.854 0.0015 
409 1 1 -0.300347 -0.0161189 -0.231563 0 0 0 -0.602506 -0.0580217 -0.258409 0 0 -0.000346714 -67.9376 -304.062 149.73 0.0015 
435 1 1 -0.306941 -0.00763062 -0.235296 0 0 0 -0.863574 -0.0263187 -0.363192 -8.85319e-05 7.45758e-06 -3.76139e-05 -20.9906 -622.09 94.9897 0.0015 
383 1 1 -0.300684 -0.00631249 -0.232704 0 0 0 -0.90378 0.0345338 -0.3827 -9.2499e-05 7.66624e-06 -2.95303e-05 33.2951 -659.504 -138.129 0.0015 
321 1 1 -0.309418 -0.00419039 -0.23528 0 0 0 -0.936056 -0.0994898 -0.403979 0 0 -0.00160516 41.7521 -386.983 31.1005 0.0025 
338 1 1 -0.304449 -0.00229589 -0.234434 0 0 0 -1.01649 -0.0369314 -0.427901 -8.69103e-05 7.21531e-06 -4.05956e-05 34.0646 -736.945 -17.3255 0.0015 
372 1 1 -0.309529 0.00307425 -0.233413 0 0 0 -0.904791 -0.310049 -0.121813 0 0 -0.00160516 94.6304 -303.763 -191.052 0.0025 
341 1 1 -0.305192 0.012704 -0.234035 0 0 0 -1.12146 -0.122679 -0.481132 -8.83201e-05 -1.32713e-05 -3.83088e-05 124.279 -808.017 -83.6512 0.0015 
486 1 1 -0.315097 0.0270572 -0.235368 0 0 0 -1.07797 0.0173188 -0.432594 -7.93719e-05 -6.7979e-05 -4.84233e-05 12.2866 -793.138 -62.2746 0.0015 
512 1 1 -0.335953 0.0498799 -0.233875 0 0 0 -1.06834 0.0407855 -0.457199 0 0 -0.000346714 2.51002 -469.227 -326.479 0.0015 
586 1 1 -0.331355 -0.0500673 -0.231293 0 0 0 -1.41782 0.184569 -0.685756 0 0 -0.000346714 -190.113 -1073.73 141.902 0.0015 
382 1 1 -0.32185 -0.0441218 -0.231356 0 0 0 -0.923279 -0.00322554 -0.322711 0 0 -0.000346714 -102.772 -565.472 307.007 0.0015 
463 1 1 -0.313799 -0.0147327 -0.232172 0 0 0 -1.11619 0.00841417 -0.501306 0 0 -0.00160516 67.5671 -202.799 -17.8054 0.0025 
458 1 1 -0.300293 -0.0130512 -0.231909 0 0 0 -0.841802 0.00421472 -0.354802 1.92657e-05 0.000113972 8.11149e-05 -124.803 -258.109 -82.4446 0.0015 
428 1 1 -0.297776 -0.0142805 -0.230712 0 0 0 -0.848479 -0.0637466 -0.331936 0 0 -0.000346714 57.7288 271.698 16.7153 0.0015 
425 1 1 -0.299271 -0.00941222 -0.230579 0 0 0 -0.975371 0.0588913 -0.383751 0 0 -0.00160516 -39.5627 -312.208 60.1524 0.0025 
477 1 1 -0.301113 -0.00225748 -0.231943 0 0 0 -0.974927 0.0645821 -0.41344 0.000103796 9.6608e-05 1.71611e-05 -22.9667 -402.395 -15.9423 0.0025 
346 1 1 -0.297302 0.0101371 -0.229784 0 0 0 -0.888857 -0.0181039 -0.37551 -0.000438416 -6.63298e-05 -0.000113165 10.0267 -386.432 -5.106 0.0025 
413 1 1 -0.300756 0.0185143 -0.230047 0 0 0 -1.10169 -0.077981 -0.475027 -0.00034276 -0.000158873 -0.000332126 48.3504 -478.962 -33.5296 0.0025 
461 1 1 -0.304495 0.021011 -0.232221 0 0 0 -1.00702 -0.0717538 -0.434324 -8.50266e-05 -3.96558e-05 -4.39471e-05 104.673 -715.275 -124.524 0.0015 
498 1 1 -0.29182 -0.029051 -0.225034 0 0 0 -0.905621 0.0426428 -0.38267 0 0 -0.000346714 -123.546 -602.22 234.683 0.0015 
309 1 1 -0.295198 -0.01389 -0.227673 0 0 0 -0.904934 0.078834 -0.268631 0 0 -0.00160516 -52.0807 -254.244 63.5837 0.0025 
430 1 1 -0.290549 -0.0107873 -0.22806 0 0 0 -1.04542 0.0484624 -0.445075 -8.58814e-05 2.21789e-05 -4.36321e-05 -18.7879 -764.546 -39.1121 0.0015 
515 1 1 -0.294604 -0.00868735 -0.228882 0 0 0 -0.951936 0.0963437 -0.40675 0 0 -0.00160516 -40.637 -405.964 -3.42765 0.0025 
481 1 1 -0.288271 -0.00572679 -0.227489 0 0 0 -0.917512 0.0118838 -0.38778 -8.49912e-05 6.7723e-06 -4.56083e-05 -2.11586 -665.14 -15.3769 0.0015 
344 1 1 -0.285383 -0.00607746 -0.226242 0 0 0 -0.837406 -0.0104457 -0.318577 0 0 -0.000346714 -28.7044 -594.196 86.6366 0.0015 
456 1 1 -0.285136 -0.00152341 -0.22631 0 0 0 -0.880893 -0.00615018 -0.371221 -9.76779e-05 8.00066e-06 -1.58942e-05 79.3962 -644.099 -177.769 0.0015 
387 1 1 -0.289587 0.00061644 -0.227135 0 0 0 -0.957144 -0.0576121 -0.406814 -0.000420602 -6.29833e-05 -0.00016074 31.8974 -415.438 -16.2128 0.0025 
440 1 1 -0.293648 0.00459586 -0.228595 0 0 0 -0.985711 -0.0575864 -0.418955 -0.000384918 -5.77284e-05 -0.000237597 39.2236 -426.75 -33.6213 0.0025 
403 1 1 -0.285475 0.00648028 -0.226111 0 0 0 -0.972185 -0.0649795 -0.413773 -8.7235e-05 -1.32351e-05 -4.2188e-05 46.1659 -705.041 2.2443 0.0015 
538 1 1 -0.289642 0.00981187 -0.227655 0 0 0 -0.709848 -0.0755235 -0.304658 2.03832e-05 7.68634e-06 9.27056e-06 -3.48405 -125.255 -30.7039 0.0015 
392 1 1 -0.281993 0.00954903 -0.224459 0 0 0 -0.624119 -0.113661 -0.264081 -8.70814e-05 -1.19617e-05 -3.66255e-05 120.327 -445.744 -92.5269 0.0015 
575 1 1 -0.288764 0.0168364 -0.226486 0 0 0 -0.974895 0.0496468 -0.38839 -4.96029e-05 -2.31581e-05 -0.000118115 30.0819 -682.175 -162.787 0.0015 
491 1 1 -0.318331 0.0247317 -0.230995 0 0 0 -1.00193 0.183885 -0.861357 0 0 -0.00160516 -91.4895 307.743 -47.082 0.0025 
500 1 1 -0.279913 -0.013353 -0.22331 0 0 0 -0.985061 -0.0252478 -0.411832 -8.98765e-05 2.31894e-05 -3.29282e-05 12.5428 -714.907 13.813 0.0015 
543 1 1 -0.282187 -0.00832862 -0.223304 0 0 0 -0.938503 0.0120777 -0.359029 0 0 -0.00160516 7.6275 -18.4619 -19.6862 0.0025 
494 1 1 -0.282317 -0.00335708 -0.225058 0 0 0 -0.9963 0.00221766 -0.420546 -9.92275e-05 7.65466e-06 -1.4884e-05 -4.43746 -721.448 6.70536 0.0015 
468 1 1 -0.277292 -0.00242422 -0.222968 0 0 0 -0.994024 0.0611142 -0.421594 -0.000106517 8.35169e-06 4.52373e-07 -70.4049 -718.016 61.9048 0.0015 
476 1 1 -0.27959 0.00121645 -0.222884 0 0 0 -0.938716 -0.0246117 -0.396285 -0.000477667 -6.99052e-05 -6.92866e-05 -1.80192 -410.305 29.631 0.0025 
560 1 1 -0.274028 0.00197217 -0.221595 0 0 0 -0.787816 -0.0176373 -0.382776 0.000404733 -0.000409983 0.00615332 55.5669 239.015 -3.23301 0.0015 
412 1 1 -0.292634 0.0176231 -0.223704 0 0 0 -0.970806 0.0650073 -0.499035 0 0 -0.00160516 -47.0464 -216.52 -88.1362 0.0025 
610 1 1 -0.288099 0.0130408 -0.223503 0 0 0 -0.91141 -0.103056 -0.467713 0 0 -0.000346714 6.84565 366.319 71.2966 0.0015 
186 1 1 -0.27894 0.0197525 -0.221794 0 0 0 -0.923923 0.0153813 -0.389577 0 0 -0.000346714 9.44328 -666.568 -51.1068 0.0015 
471 1 1 -0.273181 -0.0192927 -0.219651 0 0 0 -0.94896 -0.0312333 -0.387863 -8.60089e-05 3.899e-05 -3.90441e-05 6.59596 -688.105 39.2539 0.0015 
332 1 1 -0.269858 -0.0140348 -0.219008 0 0 0 -0.935468 0.0311548 -0.399028 -9.1868e-05 2.48958e-05 -2.83715e-05 -13.4748 -683.646 -21.8194 0.0015 