ITEM: TIMESTEP
11400
ITEM: NUMBER OF ATOMS
154
ITEM: BOX BOUNDS ff ff ff
-0.5 0.1
-0.2 0.2
-0.4 0.15
ITEM: ATOMS id type type x y z ix iy iz vx vy vz fx fy fz omegax omegay omegaz radius 
2 1 1 -0.0346734 -0.00599195 -0.118223 0 0 0 0 0 -2.07375 0 0 -0.00160516 0 0 0 0.0025 
12 1 1 -0.0127221 -0.0016688 -0.109993 0 0 0 -0.688738 0.00919731 -0.060888 0 0 -0.000346714 -8.90223 -431.608 -1.84247 0.0015 
5 1 1 -0.0142382 0.00303745 -0.109336 0 0 0 -0.747456 -0.0168132 0.235528 0 0 -0.000346714 8.56904 -380.949 6.53905e-15 0.0015 
11 1 1 -0.026188 0.0308289 -0.113027 0 0 0 -0.691118 -0.324443 0.198417 0 0 -0.000346714 171.247 -362.223 0.469648 0.0015 
4 1 1 -0.0256916 0.0216139 -0.114795 0 0 0 -0.649506 -0.211448 0.281117 -0.252848 -0.0823153 0.454514 92.648 -284.587 -1.50708e-15 0.0025 
8 1 1 -0.0107222 -0.0283561 -0.10753 0 0 0 -0.717879 0.263548 0.235085 0 0 -0.000346714 -137.377 -374.2 -8.1869e-14 0.0015 
1 1 1 -0.00591012 -0.0274751 -0.103771 0 0 0 -0.541725 0.338046 -0.262327 0 0 -0.00160516 -28.7996 -183.881 20.891 0.0025 
7 1 1 -0.00752331 -0.031409 -0.098564 0 0 0 -0.714072 -0.386294 0.155529 0 0 -0.000346714 377.106 230.021 159.168 0.0015 
10 1 1 -0.0270088 -0.00882918 -0.10755 0 0 0 0 0 -2.02264 0 0 -0.000346714 0 0 0 0.0015 
3 1 1 -0.0134792 0.0074157 -0.10559 0 0 0 0 0 -2.01313 0 0 -0.00160516 0 0 0 0.0025 
6 1 1 -0.0266102 0.013684 -0.105629 0 0 0 0 0 -2.01332 0 0 -0.000346714 0 0 0 0.0015 
25 1 1 -0.00857183 0.0107813 -0.103821 0 0 0 0 0 -2.00449 0 0 -0.000346714 0 0 0 0.0015 
9 1 1 -0.0280307 0.022667 -0.104489 0 0 0 0 0 -2.00773 0 0 -0.000346714 0 0 0 0.0015 
24 1 1 -0.0202974 -0.0206343 -0.101289 0 0 0 0 0 -1.99204 0 0 -0.000346714 0 0 0 0.0015 
22 1 1 -0.0083641 -0.0195 -0.0997886 0 0 0 0 0 -1.98468 0 0 -0.000346714 0 0 0 0.0015 
16 1 1 -0.00408721 0.01129 -0.101243 0 0 0 0 0 -1.99184 0 0 -0.00160516 0 0 0 0.0025 
18 1 1 -0.0335467 0.0344165 -0.100374 0 0 0 0 0 -1.98752 0 0 -0.000346714 0 0 0 0.0015 
19 1 1 -0.0101549 -0.00442827 -0.0977756 0 0 0 0 0 -1.97467 0 0 -0.000346714 0 0 0 0.0015 
17 1 1 -0.0253454 -0.000700049 -0.0988609 0 0 0 0 0 -1.98007 0 0 -0.000346714 0 0 0 0.0015 
15 1 1 -0.00454319 -0.0294115 -0.0959579 0 0 0 0 0 -1.96565 0 0 -0.00160516 0 0 0 0.0025 
21 1 1 -0.0333391 -0.019004 -0.0923417 0 0 0 0 0 -1.9475 0 0 -0.000346714 0 0 0 0.0015 
14 1 1 -0.00618745 0.0189444 -0.0923626 0 0 0 0 0 -1.9476 0 0 -0.00160516 0 0 0 0.0025 
20 1 1 -0.0332823 -0.00448395 -0.0871379 0 0 0 0 0 -1.92111 0 0 -0.000346714 0 0 0 0.0015 
13 1 1 -0.00741847 0.0112937 -0.0853976 0 0 0 0 0 -1.91218 0 0 -0.00160516 0 0 0 0.0025 
23 1 1 -0.0165601 0.0229939 -0.084476 0 0 0 0 0 -1.90747 0 0 -0.000346714 0 0 0 0.0015 
35 1 1 -0.0138262 0.0291618 -0.0826094 0 0 0 0 0 -1.89786 0 0 -0.000346714 0 0 0 0.0015 
29 1 1 -0.022531 -0.00019371 -0.0810642 0 0 0 0 0 -1.88982 0 0 -0.00160516 0 0 0 0.0025 
27 1 1 -0.000459601 0.00699661 -0.078927 0 0 0 0 0 -1.87873 0 0 -0.00160516 0 0 0 0.0025 
37 1 1 -0.0127396 -0.0117751 -0.0778971 0 0 0 0 0 -1.87334 0 0 -0.000346714 0 0 0 0.0015 
32 1 1 -0.0290883 0.000876534 -0.0763805 0 0 0 0 0 -1.86539 0 0 -0.000346714 0 0 0 0.0015 
38 1 1 -0.0254317 0.00979368 -0.0777091 0 0 0 0 0 -1.87235 0 0 -0.000346714 0 0 0 0.0015 
34 1 1 -0.0177649 0.0224168 -0.0754731 0 0 0 0 0 -1.86058 0 0 -0.000346714 0 0 0 0.0015 
26 1 1 -0.0219947 -0.0332201 -0.0742464 0 0 0 0 0 -1.85411 0 0 -0.00160516 0 0 0 0.0025 
28 1 1 -0.0160817 -0.03192 -0.0716836 0 0 0 0 0 -1.84047 0 0 -0.00160516 0 0 0 0.0025 
36 1 1 -0.0230202 -0.0250033 -0.0739832 0 0 0 0 0 -1.85273 0 0 -0.000346714 0 0 0 0.0015 
33 1 1 -0.020721 -0.0278475 -0.0699502 0 0 0 0 0 -1.83125 0 0 -0.000346714 0 0 0 0.0015 
30 1 1 -0.0159539 -0.0280969 -0.0656267 0 0 0 0 0 -1.8079 0 0 -0.00160516 0 0 0 0.0025 
31 1 1 -0.0297813 -0.0200888 -0.067014 0 0 0 0 0 -1.81546 0 0 -0.000346714 0 0 0 0.0015 
39 1 1 -0.0159102 0.00235532 -0.0610219 0 0 0 0 0 -1.78279 0 0 -0.00160516 0 0 0 0.0025 
44 1 1 -0.022228 0.00485213 -0.0604074 0 0 0 0 0 -1.77936 0 0 -0.000346714 0 0 0 0.0015 
45 1 1 -0.0097629 0.0296421 -0.0621178 0 0 0 0 0 -1.78877 0 0 -0.000346714 0 0 0 0.0015 
40 1 1 -0.00180681 -0.0218065 -0.0601362 0 0 0 0 0 -1.77788 0 0 -0.00160516 0 0 0 0.0025 
46 1 1 -0.0105626 -0.0145818 -0.0532215 0 0 0 0 0 -1.73933 0 0 -0.000346714 0 0 0 0.0015 
50 1 1 -0.0279742 -1.04943e-05 -0.0546872 0 0 0 0 0 -1.74757 0 0 -0.000346714 0 0 0 0.0015 
47 1 1 -0.0218847 0.0256262 -0.0543567 0 0 0 0 0 -1.74571 0 0 -0.000346714 0 0 0 0.0015 
42 1 1 -0.0160508 0.0304724 -0.0537986 0 0 0 0 0 -1.74257 0 0 -0.00160516 0 0 0 0.0025 
48 1 1 -0.022804 -0.0315502 -0.0522995 0 0 0 0 0 -1.73413 0 0 -0.000346714 0 0 0 0.0015 
51 1 1 -0.0175025 -0.0121213 -0.0512263 0 0 0 0 0 -1.72805 0 0 -0.000346714 0 0 0 0.0015 
41 1 1 -0.0294843 -0.0347245 -0.0467673 0 0 0 0 0 -1.70254 0 0 -0.00160516 0 0 0 0.0025 
52 1 1 -0.0302313 -0.00571197 -0.0461223 0 0 0 0 0 -1.69882 0 0 -0.00160516 0 0 0 0.0025 
49 1 1 -0.0312011 0.00531382 -0.0491788 0 0 0 0 0 -1.71638 0 0 -0.000346714 0 0 0 0.0015 
43 1 1 -0.0196938 0.0042356 -0.0490396 0 0 0 0 0 -1.71559 0 0 -0.000346714 0 0 0 0.0015 
56 1 1 -0.0221544 -0.0176068 -0.0428983 0 0 0 0 0 -1.68008 0 0 -0.000346714 0 0 0 0.0015 
57 1 1 -0.0185443 0.0109203 -0.042399 0 0 0 0 0 -1.67714 0 0 -0.000346714 0 0 0 0.0015 
62 1 1 -0.0131635 0.0258143 -0.0434561 0 0 0 0 0 -1.68332 0 0 -0.000346714 0 0 0 0.0015 
54 1 1 -0.0046838 0.0252416 -0.0458332 0 0 0 0 0 -1.69715 0 0 -0.00160516 0 0 0 0.0025 
58 1 1 -0.00481478 0.0323336 -0.0454422 0 0 0 0 0 -1.69489 0 0 -0.000346714 0 0 0 0.0015 
53 1 1 -0.00163565 -0.0222313 -0.0418252 0 0 0 0 0 -1.6738 0 0 -0.00160516 0 0 0 0.0025 
59 1 1 -0.00206763 -0.0165007 -0.0400545 0 0 0 0 0 -1.6634 0 0 -0.000346714 0 0 0 0.0015 
60 1 1 -0.0250204 0.00245318 -0.0400417 0 0 0 0 0 -1.6633 0 0 -0.000346714 0 0 0 0.0015 
64 1 1 -0.00322644 0.00785004 -0.0361237 0 0 0 0 0 -1.64005 0 0 -0.000346714 0 0 0 0.0015 
55 1 1 -0.0188291 -0.0247488 -0.0346057 0 0 0 0 0 -1.63093 0 0 -0.00160516 0 0 0 0.0025 
63 1 1 -0.0205837 -0.0117427 -0.0346886 0 0 0 0 0 -1.63142 0 0 -0.000346714 0 0 0 0.0015 
61 1 1 -0.0136213 0.0102173 -0.0329105 0 0 0 0 0 -1.62073 0 0 -0.000346714 0 0 0 0.0015 
73 1 1 -0.00317446 -0.00307391 -0.0301861 0 0 0 0 0 -1.60415 0 0 -0.000346714 0 0 0 0.0015 
68 1 1 -0.0183282 0.020832 -0.0290816 0 0 0 0 0 -1.59738 0 0 -0.00160516 0 0 0 0.0025 
67 1 1 -0.0086291 0.0212435 -0.0274117 0 0 0 0 0 -1.58708 0 0 -0.00160516 0 0 0 0.0025 
69 1 1 -0.00331379 0.000112052 -0.0227762 0 0 0 0 0 -1.55814 0 0 -0.000346714 0 0 0 0.0015 
74 1 1 -0.0313469 0.00594264 -0.0212839 0 0 0 0 0 -1.54872 0 0 -0.000346714 0 0 0 0.0015 
70 1 1 -0.0161255 0.0259916 -0.0228667 0 0 0 0 0 -1.55873 0 0 -0.000346714 0 0 0 0.0015 
66 1 1 -0.0113639 -0.028821 -0.0172589 0 0 0 0 0 -1.52302 0 0 -0.00160516 0 0 0 0.0025 
71 1 1 -0.0132118 -0.0142448 -0.0179309 0 0 0 0 0 -1.52734 0 0 -0.000346714 0 0 0 0.0015 
76 1 1 -0.0101315 -0.00307891 -0.0197962 0 0 0 0 0 -1.5393 0 0 -0.000346714 0 0 0 0.0015 
65 1 1 -0.021885 0.00637934 -0.0186892 0 0 0 0 0 -1.53224 0 0 -0.00160516 0 0 0 0.0025 
75 1 1 -0.0222205 0.0252752 -0.0183065 0 0 0 0 0 -1.52979 0 0 -0.000346714 0 0 0 0.0015 
88 1 1 -0.0246928 0.0149576 -0.0138381 0 0 0 0 0 -1.50085 0 0 -0.000346714 0 0 0 0.0015 
72 1 1 -0.0339596 0.0247152 -0.0170942 0 0 0 0 0 -1.52194 0 0 -0.000346714 0 0 0 0.0015 
79 1 1 -0.016039 -0.0311912 -0.0109501 0 0 0 0 0 -1.48182 0 0 -0.00160516 0 0 0 0.0025 
83 1 1 -0.006758 -0.00933802 -0.0104453 0 0 0 0 0 -1.47848 0 0 -0.000346714 0 0 0 0.0015 
81 1 1 -0.0138041 0.00231809 -0.0124309 0 0 0 0 0 -1.49163 0 0 -0.000346714 0 0 0 0.0015 
77 1 1 -0.00512449 0.0194276 -0.0129708 0 0 0 0 0 -1.49516 0 0 -0.00160516 0 0 0 0.0025 
78 1 1 -0.0338446 -0.00790771 -0.00981187 0 0 0 0 0 -1.47426 0 0 -0.00160516 0 0 0 0.0025 
84 1 1 -0.0307162 0.0123479 -0.00733367 0 0 0 0 0 -1.45769 0 0 -0.000346714 0 0 0 0.0015 
85 1 1 -0.0261342 0.0289343 -0.00857917 0 0 0 0 0 -1.46602 0 0 -0.000346714 0 0 0 0.0015 
89 1 1 -0.0166674 -0.0133665 -0.00621698 0 0 0 0 0 -1.45013 0 0 -0.000346714 0 0 0 0.0015 
87 1 1 -0.0216846 0.010562 -0.00294805 0 0 0 0 0 -1.42786 0 0 -0.000346714 0 0 0 0.0015 
102 1 1 -0.0267621 -0.0316048 -0.000944313 0 0 0 0 0 -1.41403 0 0 -0.000346714 0 0 0 0.0015 
80 1 1 -0.0153514 -0.0285466 -0.00140773 0 0 0 0 0 -1.41727 0 0 -0.00160516 0 0 0 0.0025 
82 1 1 -0.011833 0.030812 -0.00272131 0 0 0 0 0 -1.42629 0 0 -0.000346714 0 0 0 0.0015 
86 1 1 -0.0266174 0.0340944 -0.00144943 0 0 0 0 0 -1.41756 0 0 -0.000346714 0 0 0 0.0015 
95 1 1 -0.016986 -0.00213434 0.00205979 0 0 0 0 0 -1.39304 0 0 -0.000346714 0 0 0 0.0015 
98 1 1 -0.0294235 0.0177987 0.00428976 0 0 0 0 0 -1.37724 0 0 -0.000346714 0 0 0 0.0015 
94 1 1 -0.0329725 0.0296342 0.00329407 0 0 0 0 0 -1.38431 0 0 -0.00160516 0 0 0 0.0025 
97 1 1 -0.020149 -0.0334448 0.00630261 0 0 0 0 0 -1.36282 0 0 -0.000346714 0 0 0 0.0015 
100 1 1 -0.0135716 -0.0190259 0.00474169 0 0 0 0 0 -1.37401 0 0 -0.000346714 0 0 0 0.0015 
91 1 1 -0.0292811 0.00645928 0.00693421 0 0 0 0 0 -1.35831 0 0 -0.00160516 0 0 0 0.0025 
92 1 1 -0.0333375 0.0110949 0.00645197 0 0 0 0 0 -1.36174 0 0 -0.00160516 0 0 0 0.0025 
90 1 1 -0.0143727 0.015853 0.00801264 0 0 0 0 0 -1.35046 0 0 -0.00160516 0 0 0 0.0025 
99 1 1 -0.00439906 0.0240922 0.00731396 0 0 0 0 0 -1.35556 0 0 -0.000346714 0 0 0 0.0015 
101 1 1 -0.00739645 -0.0185545 0.0102519 0 0 0 0 0 -1.33408 0 0 -0.000346714 0 0 0 0.0015 
93 1 1 -0.0265909 0.0159092 0.0104559 0 0 0 0 0 -1.33261 0 0 -0.00160516 0 0 0 0.0025 
96 1 1 -0.0159897 0.0274334 0.0105229 0 0 0 0 0 -1.33212 0 0 -0.000346714 0 0 0 0.0015 
113 1 1 -0.0275469 -0.0163611 0.0133035 0 0 0 0 0 -1.31152 0 0 -0.000346714 0 0 0 0.0015 
114 1 1 -0.0102956 -0.00169209 0.0129611 0 0 0 0 0 -1.31407 0 0 -0.000346714 0 0 0 0.0015 
115 1 1 -0.0161861 -0.026381 0.0159516 0 0 0 0 0 -1.2915 0 0 -0.000346714 0 0 0 0.0015 
105 1 1 -0.00301846 -0.0111451 0.0165884 0 0 0 0 0 -1.2867 0 0 -0.00160516 0 0 0 0.0025 
107 1 1 -0.0273253 -0.00441029 0.0173661 0 0 0 0 0 -1.28071 0 0 -0.00160516 0 0 0 0.0025 
110 1 1 -0.0135333 0.000602269 0.0182461 0 0 0 0 0 -1.27394 0 0 -0.000346714 0 0 0 0.0015 
103 1 1 -0.00791609 0.00384723 0.0182517 0 0 0 0 0 -1.27394 0 0 -0.00160516 0 0 0 0.0025 
109 1 1 -2.29018e-06 0.0149512 0.018807 0 0 0 0 0 -1.26963 0 0 -0.000346714 0 0 0 0.0015 
106 1 1 -0.00205293 -0.0206571 0.0191103 0 0 0 0 0 -1.26727 0 0 -0.00160516 0 0 0 0.0025 
111 1 1 -0.0318002 -0.0148599 0.0210919 0 0 0 0 0 -1.25187 0 0 -0.000346714 0 0 0 0.0015 
112 1 1 -0.0112712 -0.00229192 0.0190925 0 0 0 0 0 -1.26747 0 0 -0.000346714 0 0 0 0.0015 
104 1 1 -0.0192779 0.00722911 0.019837 0 0 0 0 0 -1.26168 0 0 -0.00160516 0 0 0 0.0025 
108 1 1 -0.0322225 0.032442 0.0223224 0 0 0 0 0 -1.24216 0 0 -0.000346714 0 0 0 0.0015 
120 1 1 -0.0125785 -0.0210623 0.0294963 0 0 0 0 0 -1.18418 0 0 -0.00160516 0 0 0 0.0025 
123 1 1 -0.0125841 -0.0111545 0.0275425 0 0 0 0 0 -1.20027 0 0 -0.000346714 0 0 0 0.0015 
125 1 1 -0.00679321 -0.00388229 0.0284699 0 0 0 0 0 -1.19262 0 0 -0.000346714 0 0 0 0.0015 
126 1 1 -0.0148309 -0.0333609 0.0327352 0 0 0 0 0 -1.15701 0 0 -0.000346714 0 0 0 0.0015 
122 1 1 -0.0191843 -0.0162196 0.0307095 0 0 0 0 0 -1.17408 0 0 -0.000346714 0 0 0 0.0015 
117 1 1 -0.0143544 -0.00143019 0.0302633 0 0 0 0 0 -1.17781 0 0 -0.00160516 0 0 0 0.0025 
121 1 1 -0.0290047 0.00352617 0.032541 0 0 0 0 0 -1.15868 0 0 -0.000346714 0 0 0 0.0015 
127 1 1 -0.0227292 -0.0112057 0.0341549 0 0 0 0 0 -1.14494 0 0 -0.000346714 0 0 0 0.0015 
128 1 1 -0.0208061 0.000145103 0.0341871 0 0 0 0 0 -1.14465 0 0 -0.000346714 0 0 0 0.0015 
116 1 1 -0.0158354 0.0147935 0.0336176 0 0 0 0 0 -1.14955 0 0 -0.00160516 0 0 0 0.0025 
124 1 1 -0.0114065 0.0295451 0.0345505 0 0 0 0 0 -1.14151 0 0 -0.000346714 0 0 0 0.0015 
119 1 1 -0.00304704 0.0316877 0.0368086 0 0 0 0 0 -1.12199 0 0 -0.00160516 0 0 0 0.0025 
138 1 1 -0.0188235 -0.0335238 0.0370645 0 0 0 0 0 -1.11973 0 0 -0.000346714 0 0 0 0.0015 
118 1 1 -0.00193271 -0.0127941 0.0375549 0 0 0 0 0 -1.11541 0 0 -0.00160516 0 0 0 0.0025 
132 1 1 -0.010147 0.00134815 0.0404484 0 0 0 0 0 -1.08971 0 0 -0.00160516 0 0 0 0.0025 
139 1 1 -0.00401145 0.0125644 0.0394911 0 0 0 0 0 -1.09825 0 0 -0.000346714 0 0 0 0.0015 
133 1 1 -0.0167258 0.0295222 0.0394739 0 0 0 0 0 -1.09844 0 0 -0.000346714 0 0 0 0.0015 
137 1 1 -0.0331578 -0.0315972 0.0439166 0 0 0 0 0 -1.05803 0 0 -0.000346714 0 0 0 0.0015 
131 1 1 -0.0142543 -0.0235946 0.041186 0 0 0 0 0 -1.08304 0 0 -0.00160516 0 0 0 0.0025 
136 1 1 -0.0156127 0.0122027 0.0439347 0 0 0 0 0 -1.05783 0 0 -0.000346714 0 0 0 0.0015 
130 1 1 -0.0316516 0.0258079 0.0422499 0 0 0 0 0 -1.07333 0 0 -0.00160516 0 0 0 0.0025 
140 1 1 -0.0309894 0.0333632 0.0420785 0 0 0 0 0 -1.0749 0 0 -0.000346714 0 0 0 0.0015 
149 1 1 -0.0237179 -0.0143876 0.0476282 0 0 0 0 0 -1.023 0 0 -0.000346714 0 0 0 0.0015 
129 1 1 -0.0150343 -0.00254225 0.0464075 0 0 0 0 0 -1.03468 0 0 -0.00160516 0 0 0 0.0025 
141 1 1 -0.00445669 0.0136763 0.0460101 0 0 0 0 0 -1.03841 0 0 -0.000346714 0 0 0 0.0015 
134 1 1 -0.021642 0.0141125 0.0455247 0 0 0 0 0 -1.04302 0 0 -0.000346714 0 0 0 0.0015 
135 1 1 -0.00584464 0.0229092 0.0451585 0 0 0 0 0 -1.04645 0 0 -0.000346714 0 0 0 0.0015 
153 1 1 -0.00430721 -0.0251385 0.0501577 0 0 0 -0 0 -1 0 0 0 0 0 0 0.0015 
152 1 1 -0.0189158 0.00679958 0.0513948 0 0 0 -0 0 -1 0 0 0 0 0 0 0.0015 
143 1 1 -0.0076982 0.0115519 0.0502096 0 0 0 -0 0 -1 0 0 0 0 0 0 0.0025 
148 1 1 -0.00630817 0.0207644 0.0514048 0 0 0 -0 0 -1 0 0 0 0 0 0 0.0015 
151 1 1 -0.00353112 0.0264703 0.0510683 0 0 0 -0 0 -1 0 0 0 0 0 0 0.0015 
142 1 1 -0.00618246 -0.0245765 0.0539727 0 0 0 -0 0 -1 0 0 0 0 0 0 0.0025 
146 1 1 -0.0337656 -0.0129184 0.051597 0 0 0 -0 0 -1 0 0 0 0 0 0 0.0015 
144 1 1 -0.0192798 0.00186917 0.0543153 0 0 0 -0 0 -1 0 0 0 0 0 0 0.0025 
147 1 1 -0.0152079 -0.0157693 0.0569521 0 0 0 -0 0 -1 0 0 0 0 0 0 0.0015 
154 1 1 -0.00679915 -0.012878 0.0571405 0 0 0 -0 0 -1 0 0 0 0 0 0 0.0015 
150 1 1 -0.00623706 -0.0058896 0.0567903 0 0 0 -0 0 -1 0 0 0 0 0 0 0.0015 
145 1 1 -0.00240788 0.00422687 0.058086 0 0 0 -0 0 -1 0 0 0 0 0 0 0.0025 
