ITEM: TIMESTEP
95200
ITEM: NUMBER OF ATOMS
827
ITEM: BOX BOUNDS ff ff ff
-0.5 0.1
-0.2 0.2
-0.4 0.15
ITEM: ATOMS id type type x y z ix iy iz vx vy vz fx fy fz omegax omegay omegaz radius 
1215 1 1 -0.0324476 0.0335121 0.0583968 0 0 0 -0 0 -1 0 0 0 0 0 0 0.0025 
1218 1 1 -0.00564639 -4.23187e-05 0.0574643 0 0 0 -0 0 -1 0 0 0 0 0 0 0.0015 
1217 1 1 -0.0298191 -0.0219637 0.0580777 0 0 0 -0 0 -1 0 0 0 0 0 0 0.0015 
1219 1 1 -0.0349582 0.000343834 0.0570518 0 0 0 -0 0 -1 0 0 0 0 0 0 0.0015 
358 1 1 -0.487242 -0.00140803 -0.395095 0 0 0 -1.22918 0.0417769 -1.7516 0 0 -0.000346714 -85.219 -760.349 176.267 0.0015 
487 1 1 -0.470024 -0.00136646 -0.39501 0 0 0 -1.12876 0.17049 -1.83913 0 0 -0.000346714 -131.937 -784.677 176.966 0.0015 
310 1 1 -0.465865 -0.0256391 -0.389764 0 0 0 -1.18559 -0.0558241 -1.86966 0 0 -0.00160516 113.828 -12.6101 -32.4609 0.0025 
351 1 1 -0.459232 -0.0124074 -0.391271 0 0 0 -1.00934 -0.135556 -1.76817 0 0 -0.000346714 188.468 -719.05 -210.205 0.0015 
452 1 1 -0.485067 0.0323854 -0.389898 0 0 0 -1.17822 0.277214 -1.79585 0 0 -0.00160516 -130.632 -255.963 -44.0763 0.0025 
394 1 1 -0.450512 -0.0146361 -0.388494 0 0 0 -0.918513 -0.0482055 -1.73742 0 0 -0.000346714 46.8051 -663.725 -27.3602 0.0015 
270 1 1 -0.449812 -0.00836667 -0.386213 0 0 0 -0.938052 -0.120335 -1.74926 0 0 -0.00160516 -178.216 -401.481 136.268 0.0025 
420 1 1 -0.471905 0.00355634 -0.387471 0 0 0 -1.14635 0.186826 -1.77269 0 0 -0.000346714 -160.782 -820.402 90.5281 0.0015 
411 1 1 -0.457599 0.00966407 -0.388997 0 0 0 -1.02407 0.0361221 -1.78064 0 0 -0.00160516 261.865 -379.152 -84.6512 0.0025 
325 1 1 -0.467994 0.0245766 -0.387151 0 0 0 -1.03625 0.14124 -1.69816 0 0 -0.000346714 -146.725 -693.762 -75.3541 0.0015 
401 1 1 -0.45442 -0.0138862 -0.384123 0 0 0 -0.943604 -0.0983616 -1.74839 0 0 -0.00160516 -17.0172 -408.186 -34.8064 0.0025 
502 1 1 -0.49445 -0.00806114 -0.379132 0 0 0 -1.40108 -0.0818641 -1.71099 0 0 -0.00160516 238.535 -326.475 -89.8471 0.0025 
451 1 1 -0.445045 0.00585877 -0.375527 0 0 0 -0.934964 0.0803175 -1.67118 0 0 -0.00160516 -59.8257 -400.9 60.4403 0.0025 
359 1 1 -0.458505 0.0129063 -0.372255 0 0 0 -1.09523 -0.0489319 -1.6819 0 0 -0.00160516 21.1635 -483.502 -0.102713 0.0025 
448 1 1 -0.447611 -0.0181995 -0.36841 0 0 0 -0.974184 0.104446 -1.65418 0 0 -0.000346714 -126.107 -689.353 123.306 0.0015 
378 1 1 -0.447379 -0.00301063 -0.370738 0 0 0 -1.01153 0.0068187 -1.65434 0 0 -0.000346714 -8.86105 -705.24 102.346 0.0015 
371 1 1 -0.457884 0.0251016 -0.368899 0 0 0 -1.1025 0.0105222 -1.65858 0 0 -0.000346714 40.6308 -788.194 -115.127 0.0015 
551 1 1 -0.461831 -0.0312907 -0.367901 0 0 0 -1.14734 0.0444999 -1.69109 0 0 -0.000346714 -98.7665 -793.386 191.721 0.0015 
362 1 1 -0.449772 0.00351424 -0.36773 0 0 0 -1.05341 0.0348091 -1.64623 0 0 -0.00160516 11.4626 -453.343 -13.1632 0.0025 
491 1 1 -0.478052 0.0274464 -0.366786 0 0 0 -1.32273 0.0150375 -1.6961 0 0 -0.00160516 -50.1929 210.041 -56.7704 0.0025 
426 1 1 -0.456474 -0.00741625 -0.363427 0 0 0 -1.14216 -0.00621072 -1.63812 0 0 -0.00160516 -57.6083 -262.903 26.3945 0.0025 
405 1 1 -0.44186 0.000804969 -0.362505 0 0 0 -0.967398 0.0482419 -1.58368 0 0 -0.000346714 107.443 -409.719 87.5103 0.0015 
512 1 1 -0.466291 0.0548557 -0.362659 0 0 0 -1.06834 0.0407855 -1.65402 0 0 -0.000346714 2.51002 -469.227 -326.479 0.0015 
312 1 1 -0.445468 0.00227142 -0.358008 0 0 0 -1.06555 0.0697171 -1.58552 0 0 -0.00160516 -15.0392 -321.255 5.38346 0.0025 
339 1 1 -0.446708 0.00625369 -0.359782 0 0 0 -1.07899 -0.0757214 -1.5972 0 0 -0.000346714 63.6763 -789.483 -20.0104 0.0015 
376 1 1 -0.435222 -0.0204817 -0.355131 0 0 0 -0.968354 -0.00916958 -1.57693 0 0 -0.00160516 -73.0757 -386.433 129.158 0.0025 
463 1 1 -0.457087 -0.0120881 -0.357625 0 0 0 -1.18519 0.0267423 -1.61566 0 0 -0.00160516 75.3633 -157.222 -36.2256 0.0025 
341 1 1 -0.446237 -0.0028769 -0.350865 0 0 0 -1.15829 -0.128014 -1.54823 0 0 -0.000346714 128.633 -835.226 -83.5223 0.0015 
490 1 1 -0.436242 -0.00320787 -0.351568 0 0 0 -0.974905 0.0616022 -1.51516 0 0 -0.00160516 34.2272 -370.674 39.8972 0.0025 
520 1 1 -0.442821 -0.0111367 -0.34808 0 0 0 -1.09883 0.0622578 -1.52101 0 0 -0.000346714 -193.299 -729.49 370.127 0.0015 
447 1 1 -0.427288 -0.0200722 -0.344425 0 0 0 -0.937615 -0.129012 -1.46673 0 0 -0.000346714 175.924 -687.631 -192.249 0.0015 
431 1 1 -0.449292 -0.0246955 -0.342938 0 0 0 -1.11995 -0.0136157 -1.465 0 0 -0.000346714 52.9599 -800.177 16.3919 0.0015 
321 1 1 -0.42709 -0.016622 -0.339966 0 0 0 -0.966499 -0.101784 -1.44818 0 0 -0.00160516 32.5147 -416.683 28.5463 0.0025 
338 1 1 -0.433881 -0.00624775 -0.341007 0 0 0 -1.06441 -0.0319849 -1.45999 0 0 -0.000346714 30.4368 -768.469 -17.4568 0.0015 
413 1 1 -0.436213 0.00369502 -0.342808 0 0 0 -1.10895 -0.125857 -1.51047 0 0 -0.00160516 65.9759 -490.128 -24.1573 0.0025 
461 1 1 -0.434234 0.0138806 -0.341313 0 0 0 -1.06785 -0.0566849 -1.48172 0 0 -0.000346714 92.089 -753.633 -104.649 0.0015 
562 1 1 -0.436402 0.0397833 -0.341045 0 0 0 -1.05938 -0.0898955 -1.59009 0 0 -0.000346714 245.656 -418.441 -640.66 0.0015 
382 1 1 -0.435265 -0.0434117 -0.339388 0 0 0 -0.929824 0.00608847 -1.4829 0 0 -0.000346714 -116.408 -574.73 306.893 0.0015 
582 1 1 -0.441671 -0.0211132 -0.340423 0 0 0 -1.14156 0.493307 -1.78883 0 0 -0.000346714 -615.157 -855.62 343.336 0.0015 
435 1 1 -0.417688 -0.00986214 -0.334027 0 0 0 -0.910748 -0.0178058 -1.39679 0 0 -0.000346714 -25.8779 -650.704 94.5965 0.0015 
383 1 1 -0.41466 4.49847e-05 -0.334229 0 0 0 -0.934502 0.0208299 -1.45466 0 0 -0.000346714 -93.2888 -613.786 -145.444 0.0015 
486 1 1 -0.432154 0.018946 -0.33593 0 0 0 -0.954917 -0.0699079 -1.41373 0 0 -0.000346714 11.0916 -685.815 28.3944 0.0015 
477 1 1 -0.424919 0.00637745 -0.332051 0 0 0 -1.02028 0.0714041 -1.39946 0 0 -0.00160516 -24.404 -441.806 -15.0766 0.0025 
425 1 1 -0.415182 -0.00775869 -0.326728 0 0 0 -0.942918 -0.00216131 -1.36835 0 0 -0.00160516 -52.872 -392.452 53.4967 0.0025 
440 1 1 -0.417466 0.00536023 -0.328702 0 0 0 -1.00133 0.0557551 -1.4017 0 0 -0.00160516 66.9554 -431.482 27.8668 0.0025 
346 1 1 -0.413048 0.00682337 -0.322909 0 0 0 -0.956178 -0.0283006 -1.33533 0 0 -0.00160516 14.4138 -416.262 -5.14502 0.0025 
372 1 1 -0.419914 -0.0347518 -0.32128 0 0 0 -0.904791 -0.310049 -1.31863 0 0 -0.00160516 94.6304 -303.763 -191.052 0.0025 
428 1 1 -0.390184 -0.0171161 -0.320413 0 0 0 -0.768307 -0.0363134 -1.37219 0 0 -0.000346714 -64.6753 247.909 -68.8501 0.0015 
387 1 1 -0.41455 -0.00423703 -0.319642 0 0 0 -1.02443 -0.0211637 -1.34922 0 0 -0.00160516 31.6258 -422.115 10.476 0.0025 
430 1 1 -0.397584 -0.00439258 -0.31866 0 0 0 -0.816883 0.0505891 -1.30297 0 0 -0.000346714 -205.742 -530.129 1.4084 0.0015 
355 1 1 -0.401726 0.0095101 -0.321655 0 0 0 -1.00476 -0.232056 -1.52797 0 0 -0.000346714 -181.852 -560.955 -337.993 0.0015 
412 1 1 -0.408237 0.0248952 -0.318912 0 0 0 -0.94313 0.0583147 -1.3277 0 0 -0.00160516 10.0061 -386.136 -98.4435 0.0025 
458 1 1 -0.399059 -0.00774259 -0.317082 0 0 0 -0.818391 0.0357928 -1.2735 0 0 -0.000346714 -80.0544 -480.56 -32.9543 0.0015 
515 1 1 -0.422959 -0.000984615 -0.317882 0 0 0 -1.08657 0.0358743 -1.26501 0 0 -0.00160516 -25.0595 -414.148 46.3559 0.0025 
403 1 1 -0.412813 -0.00122311 -0.315062 0 0 0 -1.04284 -0.0238046 -1.23069 0 0 -0.000346714 -6.89625 -714.321 -26.0026 0.0015 
498 1 1 -0.410921 -0.0178234 -0.313262 0 0 0 -0.989632 0.101584 -1.27538 0 0 -0.000346714 -164.053 -660.091 233.81 0.0015 
309 1 1 -0.411592 -0.0055091 -0.311554 0 0 0 -0.983434 0.0380191 -1.23741 0 0 -0.00160516 -41.3523 -145.265 97.5055 0.0025 
575 1 1 -0.406174 0.0147916 -0.312709 0 0 0 -0.966114 -0.0259392 -1.25839 0 0 -0.000346714 82.1407 -681.046 -149.466 0.0015 
344 1 1 -0.406183 -0.00343367 -0.309505 0 0 0 -1.01532 0.0190346 -1.22563 0 0 -0.000346714 -63.4874 -709.449 86.9715 0.0015 
481 1 1 -0.410607 0.00266064 -0.308352 0 0 0 -1.02065 0.103539 -1.18077 0 0 -0.000346714 -82.1485 -667.591 -86.9151 0.0015 
456 1 1 -0.405264 0.0021001 -0.309788 0 0 0 -1.00669 0.0304268 -1.23449 0 0 -0.000346714 33.7012 -715.27 -162.521 0.0015 
514 1 1 -0.408651 0.00577548 -0.308954 0 0 0 -1.10262 -0.0941703 -1.24941 0 0 -0.000346714 134.192 -780.626 -153.803 0.0015 
522 1 1 -0.414743 -0.0290541 -0.30451 0 0 0 -1.21279 0.0954533 -1.28678 0 0 -0.000346714 -142.011 -839.653 201.697 0.0015 
494 1 1 -0.397688 -0.00504415 -0.306392 0 0 0 -0.945815 -0.0217445 -1.21306 0 0 -0.000346714 -76.9005 -498.746 -149.344 0.0015 
476 1 1 -0.402981 0.00427223 -0.306869 0 0 0 -1.01959 0.0461538 -1.22163 0 0 -0.00160516 -25.4379 -417.735 -7.22708 0.0025 
186 1 1 -0.405049 0.0155566 -0.30492 0 0 0 -1.06433 -0.0483893 -1.21659 0 0 -0.000346714 56.1084 -742.226 -63.2741 0.0015 
409 1 1 -0.38631 -0.0243354 -0.303777 0 0 0 -0.710079 -0.0595428 -1.14889 0 0 -0.000346714 -31.6313 -482.381 185.66 0.0015 
543 1 1 -0.395884 -0.00853188 -0.301527 0 0 0 -0.928366 -0.0074786 -1.16249 0 0 -0.00160516 64.4467 -41.4607 24.4674 0.0025 
501 1 1 -0.410605 -0.000374951 -0.301232 0 0 0 -1.18958 -0.0259072 -1.25794 0 0 -0.000346714 1.92946 -48.8122 -24.1478 0.0015 
610 1 1 -0.387697 -0.000680558 -0.304016 0 0 0 -0.794911 -0.114655 -1.16364 0 0 -0.000346714 37.5852 -133.426 52.5814 0.0015 
450 1 1 -0.402809 0.0119189 -0.303529 0 0 0 -1.08465 -0.120889 -1.25523 0 0 -0.00160516 -28.0903 -440.842 3.06825 0.0025 
625 1 1 -0.410788 -0.0228706 -0.299374 0 0 0 -1.19903 0.118872 -1.21011 0 0 -0.000346714 -147.704 -847.71 152.212 0.0015 
503 1 1 -0.398434 -0.016147 -0.299395 0 0 0 -0.988484 -0.0395338 -1.15437 0 0 -0.00160516 11.2401 -424.83 47.5859 0.0025 
332 1 1 -0.393942 -0.00345453 -0.298686 0 0 0 -1.01143 0.134721 -1.18061 0 0 -0.000346714 -21.3852 -720.392 64.0636 0.0015 
471 1 1 -0.402281 -0.020139 -0.296128 0 0 0 -1.11797 -0.0502311 -1.10125 0 0 -0.000346714 -14.6464 -737.92 119.906 0.0015 
548 1 1 -0.405026 -0.0128066 -0.294705 0 0 0 -1.23852 0.157793 -1.15837 0 0 -0.000346714 -77.6323 -915.102 -87.7637 0.0015 
464 1 1 -0.403677 -0.00697368 -0.295047 0 0 0 -1.20458 0.132445 -1.14916 0 0 -0.00160516 -76.2581 -504.949 49.3279 0.0025 
468 1 1 -0.398206 -0.00261886 -0.2959 0 0 0 -0.994191 0.0318521 -1.05908 0 0 -0.000346714 -64.7248 -669.351 25.0885 0.0015 
500 1 1 -0.407773 -0.0100708 -0.293299 0 0 0 -1.04789 0.0518096 -1.01403 0 0 -0.000346714 -64.5116 -608.263 -11.2878 0.0015 
404 1 1 -0.390965 -0.0090551 -0.292457 0 0 0 -1.0009 -0.0173348 -1.0786 0 0 -0.000346714 10.6967 -721.378 4.93078 0.0015 
479 1 1 -0.394349 -0.00384003 -0.293101 0 0 0 -1.04645 -0.00186137 -1.09836 0 0 -0.00160516 5.20515 -453.409 -10.1791 0.0025 
392 1 1 -0.383109 -0.0060574 -0.292315 0 0 0 -0.870846 -0.127246 -1.06494 0 0 -0.000346714 110.468 -630.007 -41.881 0.0015 
364 1 1 -0.380275 -0.00200924 -0.291878 0 0 0 -0.869998 -0.0707019 -1.07911 0 0 -0.000346714 58.1656 -573.655 -20.3274 0.0015 
538 1 1 -0.373253 0.00156201 -0.291359 0 0 0 -0.678602 -0.0657083 -1.03053 0 0 -0.000346714 57.2682 -477.303 -27.3687 0.0015 
483 1 1 -0.413058 0.00844915 -0.292926 0 0 0 -1.21809 -0.29344 -1.04843 0 0 -0.000346714 143.615 -643.505 -260.317 0.0015 
595 1 1 -0.399132 0.021529 -0.290751 0 0 0 -1.19325 -0.168008 -1.15847 0 0 -0.000346714 140.706 -890.276 -35.1252 0.0015 
508 1 1 -0.398686 -0.0228157 -0.287302 0 0 0 -1.21377 0.104884 -1.09958 0 0 -0.000346714 -89.0893 -892.783 37.5587 0.0015 
453 1 1 -0.384796 0.00595455 -0.28964 0 0 0 -0.925526 -0.0277776 -1.05977 0 0 -0.00160516 12.1421 -387.215 -9.69616 0.0025 
380 1 1 -0.384939 0.012797 -0.287187 0 0 0 -0.989533 0.0122794 -1.03636 0 0 -0.000346714 -25.8166 -667.531 -20.071 0.0015 
546 1 1 -0.400294 0.016935 -0.287066 0 0 0 -1.07086 -0.0893055 -0.949855 0 0 -0.000346714 -18.5611 -613.624 -248.205 0.0015 
564 1 1 -0.388736 0.0172661 -0.288591 0 0 0 -1.00376 0.0889197 -1.07007 0 0 -0.000346714 -288.652 143.706 -171.373 0.0015 
511 1 1 -0.37837 0.0203108 -0.288047 0 0 0 -0.965111 -0.0587477 -1.20967 0 0 -0.000346714 -135.731 -417.331 -184.459 0.0015 
437 1 1 -0.386724 -0.0114339 -0.285987 0 0 0 -1.01737 -0.0965789 -1.0269 0 0 -0.00160516 27.3189 -438.166 35.6543 0.0025 
560 1 1 -0.368702 0.000985802 -0.285766 0 0 0 -0.759473 0.0253361 -1.03852 0 0 -0.000346714 60.5115 -122.495 33.5742 0.0015 
519 1 1 -0.381291 0.00897071 -0.286231 0 0 0 -0.929021 -0.00105651 -1.0165 0 0 -0.000346714 -6.00766 -642.737 -91.4693 0.0015 
466 1 1 -0.381923 0.012307 -0.282908 0 0 0 -0.992795 0.00378608 -1.00579 0 0 -0.00160516 9.46458 -430.672 -26.1576 0.0025 
530 1 1 -0.404973 0.0474938 -0.285148 0 0 0 -1.05335 -0.112137 -1.18314 0 0 -0.00160516 94.429 -482.257 -94.3006 0.0025 
509 1 1 -0.381921 -0.021731 -0.280055 0 0 0 -1.02111 -0.0515175 -0.97067 0 0 -0.000346714 24.1742 -733.074 38.7757 0.0015 
444 1 1 -0.379005 -0.0177929 -0.279583 0 0 0 -0.965251 -0.0344342 -0.950258 0 0 -0.000346714 28.4453 -705.178 -4.91761 0.0015 
540 1 1 -0.376079 -0.00880091 -0.279801 0 0 0 -0.905929 0.0232747 -0.956447 0 0 -0.00160516 -22.7325 -376.074 41.6289 0.0025 
553 1 1 -0.37303 -0.00343315 -0.280122 0 0 0 -0.888491 -0.0294692 -0.997698 0 0 -0.00160516 -13.3761 -184.023 26.8056 0.0025 
460 1 1 -0.369508 0.00433931 -0.279787 0 0 0 -0.829201 -0.00339251 -0.948096 0 0 -0.000346714 53.5876 -497.951 35.7279 0.0015 
485 1 1 -0.373963 0.0101753 -0.279532 0 0 0 -0.938132 0.0101532 -1.00039 0 0 -0.000346714 -56.2946 -600.039 -77.0525 0.0015 
510 1 1 -0.3624 0.00991808 -0.281243 0 0 0 -0.713332 -0.224122 -1.19443 0 0 -0.000346714 -99.7704 -389.161 -430.887 0.0015 
545 1 1 -0.377294 0.0146617 -0.280664 0 0 0 -0.937516 -0.0323264 -0.972007 0 0 -0.000346714 85.9919 -660.636 -147.106 0.0015 
583 1 1 -0.390923 0.0275757 -0.282176 0 0 0 -1.14863 -0.179534 -1.09166 0 0 -0.000346714 144.955 -860.765 -24.38 0.0015 
446 1 1 -0.371146 -0.0152456 -0.277712 0 0 0 -0.945511 -0.00407781 -1.01205 0 0 -0.000346714 -27.6195 -498.1 177.241 0.0015 
516 1 1 -0.372243 -0.0112882 -0.276647 0 0 0 -0.910468 0.0053339 -0.944339 0 0 -0.00160516 16.2234 -312.938 44.6299 0.0025 
497 1 1 -0.372575 -0.00738886 -0.277486 0 0 0 -0.896086 -0.00589718 -0.914865 0 0 -0.000346714 -2.74907 -645.067 17.5038 0.0015 
472 1 1 -0.369687 -0.00591063 -0.277324 0 0 0 -0.904345 -0.0683942 -0.937185 0 0 -0.000346714 -108.872 -438.949 -50.6322 0.0015 
484 1 1 -0.371323 -0.000114127 -0.276442 0 0 0 -0.899105 -0.0405899 -0.920313 0 0 -0.000346714 29.3985 -432.979 41.8983 0.0015 
539 1 1 -0.364103 -0.00219314 -0.277938 0 0 0 -0.97321 0.0448791 -1.06471 0 0 -0.000346714 -52.671 -322.833 -176.084 0.0015 
505 1 1 -0.367033 0.00820774 -0.276441 0 0 0 -0.903713 -0.009677 -1.01249 0 0 -0.00160516 -70.9498 -260.397 -35.1092 0.0025 
506 1 1 -0.371711 0.0117725 -0.277201 0 0 0 -0.923586 -0.0119317 -0.906159 0 0 -0.000346714 11.789 -507.02 -30.0873 0.0015 
475 1 1 -0.374254 0.0140844 -0.278896 0 0 0 -0.946994 -0.0200628 -0.978777 0 0 -0.000346714 50.1846 -629.783 39.7158 0.0015 
470 1 1 -0.370372 0.0176381 -0.279089 0 0 0 -0.909957 0.0177607 -0.992061 0 0 -0.000346714 48.2428 -441.472 -48.5628 0.0015 
534 1 1 -0.380536 0.0261633 -0.275893 0 0 0 -1.10336 -0.0785241 -0.998267 0 0 -0.000346714 66.0528 -750.069 -209.445 0.0015 
529 1 1 -0.379329 -0.0183741 -0.275471 0 0 0 -1.06732 0.038721 -0.950424 0 0 -0.00160516 -32.6898 -456.477 38.2129 0.0025 
561 1 1 -0.374095 -0.020298 -0.272872 0 0 0 -1.04191 -0.0138427 -0.906985 0 0 -0.000346714 -35.1529 -712.929 110.468 0.0015 
568 1 1 -0.3782 0.00117518 -0.274458 0 0 0 -1.05653 0.0641904 -0.977399 0 0 -0.00160516 -73.7303 -140.862 49.7518 0.0025 
594 1 1 -0.368636 0.00288484 -0.274114 0 0 0 -0.969602 -0.0240802 -0.938149 0 0 -0.00160516 -13.67 461.463 -20.3609 0.0025 
496 1 1 -0.371773 0.0143317 -0.274027 0 0 0 -0.992789 0.0338566 -0.936632 0 0 -0.000346714 8.08891 54.8491 46.9728 0.0015 
493 1 1 -0.382418 0.021227 -0.274985 0 0 0 -1.12139 -0.087067 -0.947526 0 0 -0.00160516 42.9942 -472.278 -29.3615 0.0025 
482 1 1 -0.364651 -0.020964 -0.269588 0 0 0 -0.962647 -0.161678 -0.898465 0 0 -0.000346714 182.541 -586.036 103.655 0.0015 
473 1 1 -0.372933 -0.00463006 -0.270259 0 0 0 -1.03011 -0.0855862 -0.815406 0 0 -0.000346714 -20.2064 -551.482 24.2654 0.0015 
443 1 1 -0.361669 -0.00623146 -0.27015 0 0 0 -0.781489 0.0138561 -0.813715 0 0 -0.000346714 -22.7166 -389.378 -31.0628 0.0015 
416 1 1 -0.369171 -0.00259228 -0.271615 0 0 0 -1.00671 -0.0561609 -0.859326 0 0 -0.000346714 9.08693 -700.611 51.5916 0.0015 
432 1 1 -0.374755 0.00817967 -0.271687 0 0 0 -1.07879 -0.240142 -0.941092 0 0 -0.000346714 59.3084 -495.738 70.116 0.0015 
455 1 1 -0.358964 0.00794846 -0.268729 0 0 0 -0.820552 -0.0357062 -0.833621 0 0 -0.000346714 11.3852 -521.431 -32.7636 0.0015 
528 1 1 -0.378992 0.0124202 -0.271213 0 0 0 -1.27824 -0.216542 -0.941143 0 0 -0.00160516 157.554 -503.72 -65.3646 0.0025 
531 1 1 -0.369657 0.0134177 -0.269874 0 0 0 -1.03734 0.00242891 -0.876429 0 0 -0.00160516 -46.1424 -291.609 -63.7058 0.0025 
623 1 1 -0.366148 0.0161247 -0.269972 0 0 0 -0.978815 -0.0235671 -0.909511 0 0 -0.000346714 77.6996 -398.914 -54.8028 0.0015 
422 1 1 -0.373129 0.0274138 -0.270815 0 0 0 -1.04757 0.0531537 -0.895521 0 0 -0.000346714 -74.7391 -786.46 82.2933 0.0015 
415 1 1 -0.373515 -0.0150149 -0.267858 0 0 0 -1.08422 0.0209786 -0.770935 0 0 -0.000346714 -23.7506 -654.773 121.337 0.0015 
492 1 1 -0.368395 -0.00856206 -0.267418 0 0 0 -1.07618 -0.0144346 -0.878225 0 0 -0.00160516 8.85045 -389.047 14.9486 0.0025 
469 1 1 -0.37175 0.00109761 -0.26636 0 0 0 -0.943965 -0.0371211 -0.760606 0 0 -0.000346714 -98.2679 -269.498 -120.976 0.0015 
400 1 1 -0.367991 0.00306941 -0.267323 0 0 0 -1.03997 0.0673865 -0.834861 0 0 -0.00160516 -57.9818 -436.028 -52.8997 0.0025 
418 1 1 -0.36432 0.00528009 -0.267391 0 0 0 -1.05249 -0.00918174 -0.83957 0 0 -0.000346714 16.3114 -762.373 -22.9301 0.0015 
526 1 1 -0.364187 0.0138923 -0.265529 0 0 0 -1.10445 -0.107788 -0.852633 0 0 -0.000346714 131.631 -787.721 -124.278 0.0015 
590 1 1 -0.366763 -0.0178924 -0.264297 0 0 0 -1.17589 -0.102399 -0.801107 0 0 -0.000346714 88.5754 -858.324 -28.8445 0.0015 
517 1 1 -0.363475 -0.0138507 -0.261959 0 0 0 -1.18499 0.11256 -0.825324 0 0 -0.00160516 -44.7463 -518.45 -9.16818 0.0025 
581 1 1 -0.365862 -0.00449078 -0.264335 0 0 0 -1.09266 -0.0104414 -0.787552 0 0 -0.00160516 -9.70984 -448.518 31.3854 0.0025 
478 1 1 -0.35794 0.00172219 -0.263116 0 0 0 -1.04661 -0.04786 -0.932875 0 0 -0.00160516 -15.0048 -408.357 -19.0425 0.0025 
635 1 1 -0.353869 0.00540106 -0.263812 0 0 0 -1.06366 -0.0126987 -0.891602 0 0 -0.000346714 107.228 -500.771 113.493 0.0015 
688 1 1 -0.378458 0.00807302 -0.262456 0 0 0 -1.2431 0.154214 -0.682387 0 0 -0.000346714 -174.398 -642.826 -240.235 0.0015 
552 1 1 -0.365279 0.00986417 -0.263475 0 0 0 -1.02997 -0.106434 -0.774801 0 0 -0.00160516 47.3817 -356.78 17.4246 0.0025 
489 1 1 -0.367728 0.0161946 -0.264904 0 0 0 -1.0929 -0.0901124 -0.85243 0 0 -0.00160516 29.3352 -376.018 -99.5181 0.0025 
596 1 1 -0.360322 0.0173693 -0.263106 0 0 0 -1.06591 -0.0251093 -0.865813 0 0 -0.000346714 166.314 -732.922 -35.1579 0.0015 
597 1 1 -0.364268 0.0190077 -0.263514 0 0 0 -1.07253 -0.0694916 -0.780683 0 0 -0.000346714 25.0161 -734.716 -31.0606 0.0015 
507 1 1 -0.356281 -0.016254 -0.259791 0 0 0 -1.12992 -0.175639 -0.75992 0 0 -0.000346714 47.7868 -819.478 154.463 0.0015 
544 1 1 -0.35457 -0.010811 -0.258519 0 0 0 -1.12275 -0.122507 -0.730228 0 0 -0.000346714 99.1141 -811.09 -25.4113 0.0015 
574 1 1 -0.355512 0.00844818 -0.260705 0 0 0 -1.08333 -0.00352607 -0.778072 0 0 -0.000346714 104.06 -752.952 -102.079 0.0015 
619 1 1 -0.357717 0.0142532 -0.261035 0 0 0 -0.964323 0.0211212 -0.742017 0 0 -0.00160516 -37.932 -431.006 73.4627 0.0025 
655 1 1 -0.353326 -0.0162746 -0.255924 0 0 0 -1.0993 0.0252176 -0.725726 0 0 -0.00160516 -43.5516 -463.976 82.9017 0.0025 
643 1 1 -0.363154 -0.00519529 -0.25724 0 0 0 -1.36905 -0.273226 -0.80006 0 0 -0.00160516 156.617 -23.2277 112.737 0.0025 
627 1 1 -0.346445 -0.00150941 -0.255032 0 0 0 -1.04934 -0.102819 -0.67951 0 0 -0.000346714 109.886 -756.266 -82.3642 0.0015 
632 1 1 -0.359396 0.00261409 -0.257495 0 0 0 -1.28442 -0.180507 -0.800547 0 0 -0.00160516 79.6354 294.497 -1.43877 0.0025 
572 1 1 -0.35016 0.0118261 -0.256993 0 0 0 -0.973898 -0.274584 -0.737303 0 0 -0.000346714 341.306 -652.008 -327.267 0.0015 
692 1 1 -0.35054 -0.0315484 -0.251743 0 0 0 -1.19655 0.279236 -0.858156 0 0 -0.000346714 -325.591 -786.352 302.239 0.0015 
537 1 1 -0.342442 -0.00107058 -0.252554 0 0 0 -1.03572 -0.137175 -0.640801 0 0 -0.000346714 124.822 -747.881 -58.9414 0.0015 
499 1 1 -0.344669 0.00132124 -0.253772 0 0 0 -1.03554 -0.127409 -0.660642 0 0 -0.000346714 90.8386 -751.771 3.72947 0.0015 
547 1 1 -0.340741 0.00741393 -0.254106 0 0 0 -0.814253 -0.0160368 -0.67405 0 0 -0.000346714 -297.231 -501.749 73.0174 0.0015 
433 1 1 -0.338942 0.00683384 -0.251711 0 0 0 -0.911591 -0.111532 -0.655371 0 0 -0.000346714 200.832 -502.414 -56.6582 0.0015 
474 1 1 -0.341947 0.0122419 -0.253927 0 0 0 -0.914035 0.0525483 -0.742952 0 0 -0.000346714 39.6005 -295.729 -290.498 0.0015 
605 1 1 -0.341784 -0.0237776 -0.247455 0 0 0 -1.21331 0.218857 -0.724026 0 0 -0.00160516 -108.387 -546.635 26.6645 0.0025 
624 1 1 -0.337556 -0.0161857 -0.247529 0 0 0 -1.10793 0.0747657 -0.584798 0 0 -0.000346714 -133.615 -768.781 198.845 0.0015 
536 1 1 -0.334619 0.00155602 -0.247245 0 0 0 -1.09744 -0.126268 -0.528531 0 0 -0.000346714 188.679 -764.845 -147.719 0.0015 
417 1 1 -0.337474 0.00542479 -0.24887 0 0 0 -0.986023 -0.124981 -0.560487 0 0 -0.000346714 201.72 -538.296 -114.993 0.0015 
550 1 1 -0.334536 0.00519007 -0.248028 0 0 0 -0.952818 -0.0309636 -0.5695 0 0 -0.000346714 106.881 -604.691 146.899 0.0015 
525 1 1 -0.339662 0.00985554 -0.250068 0 0 0 -0.944229 -0.138791 -0.5542 0 0 -0.000346714 56.2525 -493.994 53.3761 0.0015 
592 1 1 -0.338241 0.0126771 -0.24702 0 0 0 -1.05952 0.00777456 -0.547867 0 0 -0.00160516 -0.671235 -387.673 -19.3882 0.0025 
495 1 1 -0.341153 0.0199284 -0.249611 0 0 0 -0.968308 0.0484354 -0.586609 0 0 -0.000346714 -39.5552 -715.742 8.0647 0.0015 
462 1 1 -0.326493 -0.00420291 -0.243562 0 0 0 -1.05884 0.0376814 -0.472361 0 0 -0.000346714 -42.5366 -761.073 37.7785 0.0015 
656 1 1 -0.329339 0.00581703 -0.243774 0 0 0 -1.08187 -0.0208242 -0.522235 0 0 -0.00160516 -4.63847 -473.381 31.3243 0.0025 
563 1 1 -0.333833 0.011665 -0.246261 0 0 0 -1.02258 -0.071477 -0.501367 0 0 -0.000346714 40.0866 -681.622 31.2886 0.0015 
615 1 1 -0.330621 0.0105097 -0.245364 0 0 0 -1.06022 -0.0636387 -0.591515 0 0 -0.000346714 -32.7613 -759.289 -59.5957 0.0015 
442 1 1 -0.334704 0.0157437 -0.246415 0 0 0 -1.16974 -0.0776784 -0.607622 0 0 -0.000346714 49.839 -863.163 15.8205 0.0015 
606 1 1 -0.330445 0.0141054 -0.243507 0 0 0 -1.17 -0.0461314 -0.553298 0 0 -0.00160516 48.8758 -495.74 -72.3462 0.0025 
427 1 1 -0.358341 0.0179291 -0.244392 0 0 0 -1.13748 0.05408 -0.597099 0 0 -0.00160516 -176.871 -8.04794 -112.527 0.0025 
626 1 1 -0.337239 0.0274465 -0.244796 0 0 0 -1.22882 -0.377376 -0.733847 0 0 -0.000346714 421.918 -814.673 -332.561 0.0015 
518 1 1 -0.327909 -0.00922506 -0.242699 0 0 0 -1.29201 0.126169 -0.565955 0 0 -0.00160516 -55.7519 -555.659 4.01594 0.0025 
556 1 1 -0.327304 0.000857413 -0.243142 0 0 0 -1.03365 -0.0203858 -0.486591 0 0 -0.00160516 32.0678 -446.826 -53.9858 0.0025 
601 1 1 -0.321945 0.00431415 -0.241624 0 0 0 -1.00612 0.0167077 -0.423027 -8.83129e-05 -1.3291e-05 -3.80576e-05 -34.6147 -732.905 53.38 0.0015 
667 1 1 -0.326463 0.00970884 -0.242173 0 0 0 -1.08414 -0.021722 -0.496117 0 0 -0.00160516 11.181 -472.107 -4.33677 0.0025 
634 1 1 -0.320843 0.00719135 -0.240977 0 0 0 -0.978885 0.0157858 -0.411601 -8.8664e-05 -1.33386e-05 -3.739e-05 32.3381 -703.185 -103.875 0.0015 
612 1 1 -0.318964 -0.0210586 -0.238324 0 0 0 -1.23143 0.33344 -0.561616 0 0 -0.000346714 -352.656 -839.449 280.665 0.0015 
541 1 1 -0.318924 -0.00145443 -0.239489 0 0 0 -1.00562 -0.00056495 -0.424499 -0.000410077 3.45388e-05 -0.000174477 3.63706 -437.462 -8.03395 0.0025 
521 1 1 -0.316893 0.00687823 -0.239332 0 0 0 -1.0824 0.0274493 -0.454129 -7.10284e-05 -9.82796e-06 -8.60102e-05 9.57461 -780.282 -69.974 0.0015 
570 1 1 -0.309282 -0.0153537 -0.235262 0 0 0 -1.01834 -0.0931059 -0.394501 -8.4534e-05 2.88103e-05 -3.64663e-05 71.541 -738.792 -10.3062 0.0015 
707 1 1 -0.306264 -0.0163735 -0.232825 0 0 0 -0.944298 0.17602 -0.39535 0 0 -0.00160516 -83.6362 -405.827 19.4212 0.0025 
504 1 1 -0.311234 -0.00897367 -0.235827 0 0 0 -0.97269 0.0340576 -0.392105 5.40753e-05 -3.02665e-05 -0.00132315 -18.6644 -420.724 10.0566 0.0025 
523 1 1 -0.301942 -0.00727268 -0.233201 0 0 0 -0.795412 -0.0320361 -0.334293 -8.96864e-05 7.57611e-06 -3.43377e-05 -18.3527 -572.61 98.5521 0.0015 
576 1 1 -0.308243 -0.000358214 -0.236103 0 0 0 -0.978226 0.0412254 -0.414299 -4.34475e-05 1.69291e-05 -2.87387e-05 -20.3598 -661.935 -53.8155 0.0015 
480 1 1 -0.309732 0.0033426 -0.235455 0 0 0 -0.983996 0.0244194 -0.413342 -0.000308353 -6.70153e-05 -8.04463e-05 -13.5849 -429.362 7.98527 0.0025 
542 1 1 -0.305283 0.00090968 -0.233732 0 0 0 -0.976798 0.0303357 -0.409986 -0.000286575 -4.80984e-06 -9.35397e-05 -8.79601 -424.398 -10.4331 0.0025 
653 1 1 -0.303412 0.00517 -0.233761 0 0 0 -0.916446 0.0264281 -0.385045 -0.000104437 -1.67309e-05 -3.12438e-06 -16.8941 -664.291 -5.33196 0.0015 
566 1 1 -0.312041 0.00932206 -0.236052 0 0 0 -1.04374 0.057181 -0.435493 -0.00043773 -6.52549e-05 -0.000113594 -13.0969 -452.296 -27.9974 0.0025 
588 1 1 -0.308097 0.00738422 -0.235268 0 0 0 -1.0268 0.099752 -0.415275 0 0 -0.000346714 -128.016 -714.214 -25.6106 0.0015 
675 1 1 -0.300856 -0.0211949 -0.230668 0 0 0 -1.12153 -0.0270935 -0.441177 0 0 -0.000346714 7.69516 -813.884 32.2869 0.0015 
558 1 1 -0.300648 -0.0154255 -0.231798 0 0 0 -1.03983 0.0402842 -0.441976 -7.8813e-05 2.03209e-05 -5.89495e-05 -24.711 -757.47 -10.904 0.0015 
639 1 1 -0.298461 -0.011662 -0.231291 0 0 0 -1.01173 0.0474164 -0.430261 -8.75596e-05 2.28358e-05 -3.90231e-05 -14.2477 -740.978 -48.1583 0.0015 
598 1 1 -0.296835 -0.00600033 -0.231092 0 0 0 -0.78603 -0.0308241 -0.342939 -5.16077e-05 0.000387391 0.000735749 -49.3498 -510.298 21.1944 0.0015 
602 1 1 -0.296003 -0.00296143 -0.230668 0 0 0 -0.961576 0.101353 -0.383605 0 0 -0.000346714 -91.5165 -675.413 -33.7244 0.0015 
445 1 1 -0.29779 0.00472191 -0.231417 0 0 0 -1.01957 -0.0353446 -0.431949 -8.82684e-05 -1.32801e-05 -3.81126e-05 59.3129 -734.192 -79.9259 0.0015 
584 1 1 -0.292493 0.0044952 -0.229199 0 0 0 -0.999179 0.0549055 -0.417674 -8.22862e-05 -1.23745e-05 -5.10937e-05 -36.7279 -723.996 -7.31002 0.0015 
573 1 1 -0.302021 0.00724806 -0.232104 0 0 0 -0.919179 0.0883315 -0.460118 7.75664e-07 6.64987e-06 -0.000338324 -76.1511 -506.48 -16.9631 0.0015 
637 1 1 -0.299703 0.0149902 -0.231393 0 0 0 -1.01042 -0.0226802 -0.426204 -7.16754e-05 -3.33596e-05 -7.76482e-05 14.6695 -742.904 4.70653 0.0015 
660 1 1 -0.301262 0.0200587 -0.231057 0 0 0 -0.858259 0.0505516 -0.348353 -8.74233e-05 -4.06603e-05 -3.93896e-05 8.9619 -608.772 -110.422 0.0015 
638 1 1 -0.289848 -0.0185647 -0.226734 0 0 0 -0.991937 -0.168237 -0.382561 -8.79121e-05 4.02187e-05 -3.4721e-05 9.29269 -676.286 273.345 0.0015 
587 1 1 -0.290097 -0.00674335 -0.228225 0 0 0 -0.868681 0.00268195 -0.366235 -8.79184e-05 7.14061e-06 -4.10806e-05 -20.5531 -627.583 44.145 0.0015 
603 1 1 -0.28496 -0.000659202 -0.226264 0 0 0 -1.02495 -0.0771733 -0.430123 -8.86142e-05 7.02461e-06 -3.7674e-05 27.052 -740.153 68.3363 0.0015 
714 1 1 -0.289433 0.00117974 -0.22812 0 0 0 -0.948687 0.0726954 -0.395201 -8.01513e-05 -1.18447e-05 -5.73093e-05 -132.767 -699.873 189.946 0.0015 
646 1 1 -0.293935 0.0149322 -0.2279 0 0 0 -0.983907 -0.0719775 -0.424442 -0.000254474 -0.000119802 -0.000497568 25.4413 -436.387 15.0579 0.0025 
654 1 1 -0.292031 0.0242765 -0.226435 0 0 0 -0.931944 -0.132288 -0.404303 -8.84723e-05 -4.02074e-05 -3.28158e-05 73.9287 -691.503 55.8187 0.0015 
672 1 1 -0.297951 0.0254013 -0.228639 0 0 0 -1.2013 -0.235133 -0.527981 -2.80438e-05 -5.63901e-06 -0.000298018 254.644 -838.574 -204.788 0.0015 
629 1 1 -0.302073 0.0300592 -0.227924 0 0 0 -0.936577 -0.0134489 -0.375187 -0.000178331 0.000113137 -0.00148689 64.1889 -372.913 -147.94 0.0025 
666 1 1 -0.285472 -0.0231205 -0.224051 0 0 0 -1.04857 -0.0361444 -0.430428 -8.54416e-05 3.85958e-05 -4.25176e-05 -7.79922 -753.644 82.2843 0.0015 
533 1 1 -0.280686 0.00180195 -0.224392 0 0 0 -0.989075 -0.0160689 -0.417851 -9.44106e-05 -1.43716e-05 -2.44473e-05 11.1036 -717.277 1.3024 0.0015 
593 1 1 -0.281948 0.00569453 -0.223589 0 0 0 -1.01878 -0.0363502 -0.434162 -0.00028279 -4.69483e-05 -0.000278347 26.7164 -441.876 -25.7339 0.0025 
685 1 1 -0.285114 0.0243193 -0.223609 0 0 0 -0.872823 0.016543 -0.343184 5.13356e-05 2.74587e-05 -0.000498321 -10.1741 -634.391 -7.34783 0.0015 
633 1 1 -0.282567 0.0211958 -0.223088 0 0 0 -0.996308 -0.100465 -0.457041 0 0 -0.000346714 137.991 -700.922 -155.477 0.0015 
621 1 1 -0.293712 0.0393528 -0.222546 0 0 0 -0.914765 0.0920329 -0.328581 -7.25463e-05 -8.43054e-05 -6.9228e-05 -3.49196 -639.049 -169.271 0.0015 
649 1 1 -0.307261 0.0454602 -0.22488 0 0 0 -1.14298 -0.32438 -0.60289 0 0 -0.000346714 295.776 -842.662 -110.887 0.0015 
559 1 1 -0.275639 -0.0134818 -0.2215 0 0 0 -1.02359 0.0272859 -0.430738 -9.01994e-05 2.28922e-05 -3.7772e-05 -23.2596 -742.762 8.2616 0.0015 
555 1 1 -0.272634 -0.00907659 -0.219645 0 0 0 -1.07152 0.0440537 -0.441872 0.000686096 0.0016424 0.010844 -21.6542 -436.582 -0.594906 0.0025 
535 1 1 -0.274988 -0.00130286 -0.222034 0 0 0 -1.0048 -0.0281924 -0.420924 -8.82165e-05 7.00165e-06 -3.7446e-05 32.9965 -728.234 -29.9918 0.0015 
730 1 1 -0.273598 0.00338662 -0.221077 0 0 0 -0.877157 0.0227037 -0.27227 0 0 -0.000346714 27.8034 -268.476 -115.909 0.0015 
611 1 1 -0.275345 0.00639736 -0.221894 0 0 0 -1.00026 -0.101009 -0.419543 -0.000107722 -1.49557e-05 2.85073e-05 88.3929 -720.976 -37.2174 0.0015 
549 1 1 -0.268644 0.00687372 -0.219047 0 0 0 -0.930823 -0.0218869 -0.388916 -0.000545134 -0.000120531 0.00115813 43.471 -670.084 -66.7404 0.0015 
585 1 1 -0.273149 0.0224921 -0.218936 0 0 0 -0.994663 -0.0352361 -0.40865 0 0 -0.000346714 -24.9475 -657.897 -32.8914 0.0015 