ITEM: TIMESTEP
38000
ITEM: NUMBER OF ATOMS
488
ITEM: BOX BOUNDS ff ff ff
-0.5 0.1
-0.2 0.2
-0.4 0.15
ITEM: ATOMS id type type x y z ix iy iz vx vy vz fx fy fz omegax omegay omegaz radius 
85 1 1 -0.337997 -0.0486174 -0.235205 0 0 0 -1.13812 0.392769 -0.762598 0 0 -0.000346714 -590.532 -294.61 698.542 0.0015 
47 1 1 -0.290957 0.0145629 -0.227821 0 0 0 -1.4512 -0.146586 -0.636728 0 0 -0.000346714 88.7632 -1070.18 40.6047 0.0015 
30 1 1 -0.281555 -0.0157798 -0.222649 0 0 0 -1.31824 0.0270123 -0.556542 -0.000452314 0.000115726 -9.66087e-05 -29.1531 -570.753 41.3525 0.0025 
11 1 1 -0.271956 -0.0148079 -0.219801 0 0 0 -1.31945 0.0717608 -0.528333 0.00190109 0.0159109 -0.00206688 -59.3103 -898.636 130.446 0.0015 
36 1 1 -0.272445 -0.0177326 -0.219635 0 0 0 -1.20882 0.0102216 -0.618435 -0.00190109 -0.0159109 0.00137345 -186.588 -901.173 -14.1414 0.0015 
2 1 1 -0.267495 0.00731 -0.217462 0 0 0 -1.18151 0.0361883 -0.492735 -0.000425202 -5.02211e-05 -0.000132445 -19.4313 -513.689 8.86682 0.0025 
31 1 1 -0.277253 0.0288685 -0.219147 0 0 0 -1.31942 0.0642021 -0.558456 0 0 -0.000346714 36.6829 -921.746 -209.847 0.0015 
4 1 1 -0.256594 -0.0100223 -0.212814 0 0 0 -1.17309 0.00258709 -0.49117 -0.00012924 0.000160567 -0.00124297 5.39644 -513.864 -15.6162 0.0025 
18 1 1 -0.25682 0.0149255 -0.213361 0 0 0 -1.06646 0.0583772 -0.441988 -9.15439e-05 -3.29585e-05 -3.1806e-05 -82.3497 -794.164 93.8074 0.0015 
17 1 1 -0.258901 0.0240735 -0.212837 0 0 0 -1.12204 0.0904592 -0.449957 -4.12961e-05 -1.09812e-05 -0.000181256 7.725 -790.499 -178.025 0.0015 
21 1 1 -0.248445 -0.00653484 -0.21064 0 0 0 -1.05204 -0.015051 -0.444799 -7.6209e-05 8.77394e-06 -7.41673e-05 62.8473 -768.859 -122.452 0.0015 
5 1 1 -0.254607 0.0248163 -0.210898 0 0 0 -1.04385 0.0821534 -0.412992 -8.54131e-05 -5.52275e-05 -4.23687e-05 -36.9844 -761.606 -58.003 0.0015 
12 1 1 -0.256143 0.0321976 -0.209549 0 0 0 -1.21813 0.0597114 -0.478441 -0.000201567 -0.000126465 0.000249265 57.989 -836.394 -252.025 0.0015 
8 1 1 -0.235703 0.00305025 -0.205318 0 0 0 -1.07904 -0.0086471 -0.449529 -7.50443e-05 -5.7298e-06 -7.33032e-05 58.556 -775.839 -125.539 0.0015 
6 1 1 -0.237122 0.00607427 -0.205811 0 0 0 -1.07314 0.0134279 -0.446768 -8.81761e-05 -6.919e-06 -3.59598e-05 -49.7928 -778.969 96.1916 0.0015 
20 1 1 -0.242794 0.0107194 -0.208028 0 0 0 -1.06337 0.100052 -0.439813 -5.24803e-05 -3.35465e-06 -0.000145577 -61.7362 -767.977 -25.5563 0.0015 
24 1 1 -0.246409 0.0233002 -0.207755 0 0 0 -1.13302 0.101234 -0.454113 -8.59189e-05 -2.95373e-05 -3.98053e-05 -41.0789 -813.617 -78.8837 0.0015 
38 1 1 -0.343979 0.0707116 -0.209614 0 0 0 -1.28232 -0.252842 -0.660047 0 0 -0.000346714 353.317 -1209.87 -459.629 0.0015 
23 1 1 -0.231882 -0.0144383 -0.202963 0 0 0 -0.993493 -0.0645217 -0.415333 -0.000442367 6.59882e-06 0.000585417 51.0203 -722.25 -10.7486 0.0015 
35 1 1 -0.229413 -0.0123218 -0.202098 0 0 0 -1.03437 -0.0802227 -0.435506 -9.12976e-05 1.92241e-05 -3.53972e-05 33.1383 -747.755 59.0348 0.0015 
10 1 1 -0.22551 -0.00360673 -0.20116 0 0 0 -0.885907 -0.0526601 -0.365289 -6.31247e-05 0.000458838 0.000725126 -11.192 -619.818 72.6955 0.0015 
22 1 1 -0.233366 0.000863117 -0.204414 0 0 0 -1.06653 -0.00912106 -0.456862 -8.96537e-05 -5.23192e-06 -3.82405e-05 -1.80958 -774.551 19.6879 0.0015 
71 1 1 -0.234298 0.00679049 -0.204568 0 0 0 -1.03286 0.0491289 -0.419632 0 0 -0.000346714 -38.4612 -738.892 5.47761 0.0015 
32 1 1 -0.23413 0.0100378 -0.204434 0 0 0 -1.05966 0.0520344 -0.439882 -8.72039e-05 -6.83856e-06 -3.82848e-05 -23.7738 -764.987 -33.2216 0.0015 
37 1 1 -0.233121 0.0252249 -0.20182 0 0 0 -1.11884 0.106664 -0.427819 -0.000395922 -0.000273149 0.000745365 -64.5894 -819.299 -33.7841 0.0015 
26 1 1 -0.24358 0.0288444 -0.204154 0 0 0 -1.18419 0.156909 -0.458227 -0.000424469 -0.000273217 -7.15109e-05 -83.6716 -536.842 32.9078 0.0025 
72 1 1 -0.280075 -0.0699216 -0.19735 0 0 0 -1.36473 -0.0156592 -0.3962 0 0 -0.000346714 -132.435 -794.762 511.857 0.0015 
14 1 1 -0.227544 -0.0152315 -0.199944 0 0 0 -1.12738 -0.0649605 -0.475638 -8.72253e-05 1.48471e-05 -0.000951198 29.9584 -492.455 -3.56512 0.0025 
57 1 1 -0.225295 0.000104247 -0.200404 0 0 0 -1.09396 0.116082 -0.419001 0 0 -0.000346714 -150.077 -723.611 35.1446 0.0015 
16 1 1 -0.225828 0.0174371 -0.198909 0 0 0 -1.15292 -0.030041 -0.480697 -4.0412e-05 -1.0648e-05 -0.00109335 52.549 -490.283 -95.3912 0.0025 
3 1 1 -0.236161 0.0317755 -0.200314 0 0 0 -1.16126 0.0246924 -0.466521 -0.000362363 -0.000222351 -0.000251619 23.0639 -494.232 -83.5729 0.0025 
48 1 1 -0.242994 0.0464009 -0.199243 0 0 0 -1.0678 0.0933757 -0.38568 -7.44971e-05 -7.30426e-05 -5.84551e-05 3.0879 -741.104 -187.97 0.0015 
76 1 1 -0.216478 -0.00444103 -0.19731 0 0 0 -0.986678 0.100163 -0.421614 -8.98741e-05 -2.44331e-06 -3.77675e-05 -78.2942 -716.196 13.0818 0.0015 
75 1 1 -0.222116 0.0226848 -0.19778 0 0 0 -1.13941 -0.0616174 -0.480706 -5.56377e-05 -1.70313e-05 -0.000102799 25.0893 -834.72 47.7728 0.0015 
51 1 1 -0.237999 0.0468262 -0.197103 0 0 0 -1.20049 0.0824821 -0.442206 0 0 -0.000346714 10.2289 -839.934 -189.071 0.0015 
41 1 1 -0.207712 -0.0230073 -0.190547 0 0 0 -0.924248 0.0105537 -0.384782 0 0 -0.00160516 -34.1727 -391.461 72.6237 0.0025 
52 1 1 -0.212619 -0.018142 -0.193313 0 0 0 -0.963226 0.0187808 -0.415103 -0.000239911 5.98041e-05 -0.000519146 -32.4953 -415.402 56.6715 0.0025 
113 1 1 -0.208999 -0.0126886 -0.193413 0 0 0 -1.01246 0.150265 -0.452841 0 0 -0.000346714 -180.134 -716.095 171.459 0.0015 
50 1 1 -0.205896 -0.0112708 -0.192261 0 0 0 -0.954217 0.0351357 -0.398458 -8.66648e-05 2.19893e-05 -3.81115e-05 6.03962 -700.028 -76.1912 0.0015 
28 1 1 -0.204349 -0.00671432 -0.191015 0 0 0 -1.01164 0.140009 -0.432672 -0.000388193 9.76053e-05 -0.000233364 -81.805 -434.916 50.4973 0.0025 
56 1 1 -0.205745 0.00712258 -0.192665 0 0 0 -1.00486 -0.0301087 -0.417903 -0.000122108 -1.94796e-06 3.48658e-05 -0.132723 -726.376 52.6274 0.0015 
49 1 1 -0.204864 0.0133235 -0.191657 0 0 0 -0.980658 0.0101669 -0.416405 -3.83212e-05 -7.59959e-06 -0.000175401 42.536 -701.575 -117.211 0.0015 
42 1 1 -0.211091 0.0193761 -0.192518 0 0 0 -1.0968 -0.16194 -0.473254 -0.00054262 -0.000155026 0.000201791 88.0048 -473.188 -42.0645 0.0025 
79 1 1 -0.227308 -0.0490999 -0.190854 0 0 0 -1.20867 0.12494 -0.565465 0 0 -0.00160516 -95.4555 -513.273 98.1625 0.0025 
138 1 1 -0.211854 -0.0361325 -0.19034 0 0 0 -1.29468 0.12531 -0.593596 0 0 -0.000346714 -155.066 -917.61 154.306 0.0015 
25 1 1 -0.194063 -0.0036313 -0.187739 0 0 0 -0.95879 0.0790599 -0.398897 -7.21652e-05 1.24991e-06 -7.6272e-05 -103.439 -691.748 111.441 0.0015 
96 1 1 -0.201758 0.00918835 -0.190298 0 0 0 -1.11412 -0.0174482 -0.52744 0 0 -0.000346714 96.4053 -433.439 -270.653 0.0015 
55 1 1 -0.205594 0.0213367 -0.190014 0 0 0 -1.04635 0.128018 -0.41978 -0.000400939 -9.91887e-05 -0.000176767 -57.7757 -455.811 5.00635 0.0025 
46 1 1 -0.199121 0.0206416 -0.188492 0 0 0 -0.997646 0.05386 -0.407213 -8.66464e-05 -2.14263e-05 -3.82178e-05 -14.0539 -717.172 -60.4258 0.0015 
87 1 1 -0.190445 -0.0183516 -0.184982 0 0 0 -0.88417 -0.104538 -0.352627 2.64776e-05 3.86173e-05 6.08821e-06 41.4263 -225.071 57.6933 0.0015 
60 1 1 -0.191351 -0.00983222 -0.18637 0 0 0 -0.979247 -0.0392856 -0.399725 -8.19844e-05 2.37465e-05 -4.70074e-05 52.9627 -717.961 -59.2132 0.0015 
39 1 1 -0.188478 -0.00795577 -0.184238 0 0 0 -0.968665 -0.0233179 -0.416445 -9.07955e-05 7.76478e-06 -0.000805674 18.7706 -422.146 -20.1154 0.0025 
81 1 1 -0.189358 -0.00137303 -0.185665 0 0 0 -0.900223 0.0628593 -0.45195 0 0 -0.000346714 -51.9407 -240.602 -44.4071 0.0015 
19 1 1 -0.192315 0.013008 -0.186413 0 0 0 -0.956304 -0.0324825 -0.412101 -9.41142e-05 -2.06376e-05 -3.03256e-05 32.2438 -694.502 -20.0888 0.0015 
40 1 1 -0.193594 0.0273325 -0.183684 0 0 0 -1.00949 0.0993959 -0.395245 -0.000351678 -0.000175447 -0.000294748 -55.9656 -451.044 29.456 0.0025 
78 1 1 -0.201186 0.0314852 -0.185999 0 0 0 -1.05636 0.0634263 -0.423272 -0.00201094 -0.00102191 0.00453515 -8.98388 -457.27 -45.2728 0.0025 
107 1 1 -0.189892 -0.0236076 -0.183043 0 0 0 -1.07179 0.0135085 -0.443505 -0.000362012 0.000102157 -0.000290426 -4.30644 -467.288 -3.76083 0.0025 
1 1 1 -0.181088 -0.0149659 -0.180436 0 0 0 -0.934481 -0.00278344 -0.386642 -0.000534976 0.000154532 0.000195982 -45.4538 -393.996 112.87 0.0025 
111 1 1 -0.1837 -0.0129618 -0.182839 0 0 0 -0.941126 -0.00949558 -0.387417 -8.40758e-05 2.41796e-05 -4.4162e-05 -28.5632 -673.009 85.8833 0.0015 
33 1 1 -0.177029 0.0089755 -0.180285 0 0 0 -0.871732 -0.0331158 -0.408694 0 0 -0.000346714 -31.1055 -533.506 -122.867 0.0015 
102 1 1 -0.188367 0.0263252 -0.18284 0 0 0 -0.997912 0.209785 -0.367699 -0.000366963 -0.000191147 0.000715831 -120.453 -716.798 -81.1554 0.0015 
99 1 1 -0.182014 0.0224812 -0.180945 0 0 0 -0.878242 -0.0111356 -0.369573 1.62457e-05 -3.06729e-05 -0.000105916 -33.1583 -79.8676 -26.0404 0.0015 
43 1 1 -0.184933 0.0275955 -0.181139 0 0 0 -0.90312 0.212865 -0.33709 2.32504e-05 -4.28519e-05 1.5999e-06 -104.204 -192.127 -229.377 0.0015 
174 1 1 -0.191443 -0.0473362 -0.178234 0 0 0 -1.17122 -0.27516 -0.400141 0 0 -0.000346714 83.1415 -774.025 313.723 0.0015 
53 1 1 -0.174395 0.000626607 -0.178281 0 0 0 -0.865306 -0.000306039 -0.342685 0 0 -0.00160516 -4.82524 -350.609 15.2346 0.0025 
29 1 1 -0.175242 0.00560169 -0.178744 0 0 0 -0.879721 0.0172703 -0.382074 0 0 -0.00160516 29.1021 -376.618 -34.5297 0.0025 
69 1 1 -0.183656 0.00902359 -0.182961 0 0 0 -0.994418 0.140158 -0.812111 0 0 -0.000346714 -233.452 13.4391 -106.184 0.0015 
88 1 1 -0.169548 0.00982353 -0.177076 0 0 0 -0.854527 -0.0690366 -0.362095 -9.15502e-05 -1.79218e-05 -3.12978e-05 54.9388 -618.402 -11.7556 0.0015 
70 1 1 -0.1754 0.011419 -0.178376 0 0 0 -0.866658 -0.0238771 -0.294048 0 0 -0.000346714 -35.0899 -552.753 -93.1963 0.0015 
27 1 1 -0.165129 -0.0199062 -0.173253 0 0 0 -0.902449 -0.0950711 -0.367917 -0.00162484 0.000425244 0.00461773 45.4088 -397.051 -10.0954 0.0025 
84 1 1 -0.157901 -0.0115486 -0.172202 0 0 0 -0.729322 -0.122859 -0.293911 -0.000113185 2.19626e-05 3.33552e-05 64.5269 -523.759 58.7465 0.0015 
98 1 1 -0.158251 -0.00819048 -0.17257 0 0 0 -0.835452 -0.116891 -0.350766 -8.92259e-05 1.18807e-05 -3.89992e-05 60.3948 -603.681 57.3251 0.0015 
108 1 1 -0.159291 0.00237942 -0.172038 0 0 0 -0.829335 0.0895604 -0.372081 0 0 -0.000346714 -42.8819 -570.004 -57.8847 0.0015 
44 1 1 -0.161617 0.00454301 -0.174113 0 0 0 -0.797776 0.0412052 -0.345562 -8.90292e-05 3.51353e-07 -3.93046e-05 -29.7963 -579.877 -0.351382 0.0015 
80 1 1 -0.164814 0.00884369 -0.174111 0 0 0 -0.689032 0.133847 -0.270908 8.65124e-05 9.22811e-05 -6.30225e-06 -44.4146 -293.299 -35.423 0.0025 
54 1 1 -0.159816 0.00981421 -0.171978 0 0 0 -0.603409 0.0403828 -0.243726 6.04602e-06 0.000285848 7.13792e-05 -11.2603 -252.674 -26.8777 0.0025 
64 1 1 -0.171425 0.0150611 -0.173652 0 0 0 -0.897397 0.257541 -0.531 0 0 -0.000346714 -0.602871 -9.19842 -110.027 0.0015 
58 1 1 -0.164828 0.0153219 -0.174655 0 0 0 -0.814551 -0.0363273 -0.3421 -5.11102e-05 -9.29814e-06 -0.000128658 80.2241 -579.476 -129.296 0.0015 
82 1 1 -0.164583 0.0190479 -0.174262 0 0 0 -0.88296 0.0481373 -0.33911 -0.00403829 -0.00103871 0.00525814 -113.893 -672.296 202.233 0.0015 
34 1 1 -0.20677 0.0656743 -0.174812 0 0 0 -1.10284 -0.00968921 -0.435793 0 0 -0.000346714 108.422 -707.358 -308.694 0.0015 
114 1 1 -0.158388 -0.0313697 -0.169374 0 0 0 -0.970242 -0.084106 -0.366552 -8.13081e-05 4.38548e-05 -4.25251e-05 -8.26105 -672.106 176.083 0.0015 
165 1 1 -0.165192 -0.0260822 -0.173274 0 0 0 -0.82847 -0.0879199 -0.197584 0 0 -0.000346714 61.7955 -517.884 64.5504 0.0015 
122 1 1 -0.156346 -0.015898 -0.17112 0 0 0 -0.702602 -0.15237 -0.278988 -0.000267607 6.85228e-05 0.00022975 116.286 -515.49 -11.6598 0.0015 
63 1 1 -0.153027 -0.0145177 -0.169896 0 0 0 -0.861142 0.0761381 -0.365927 -9.29415e-05 2.81398e-05 -5.11752e-06 -84.4969 -617.064 70.5093 0.0015 
97 1 1 -0.150968 -0.0104921 -0.169332 0 0 0 -0.759486 0.026782 -0.316658 -8.74955e-05 1.04606e-05 -3.68388e-05 8.10091 -552.377 -66.148 0.0015 
104 1 1 -0.153142 -0.00636279 -0.169402 0 0 0 -0.832763 0.0213755 -0.354927 -0.000278535 3.33238e-05 -0.000588045 -30.0309 -359.816 48.5947 0.0025 
152 1 1 -0.157715 0.00584514 -0.170308 0 0 0 -0.960513 -0.0823249 -0.418047 0 0 -0.000346714 17.6555 -648.28 92.4566 0.0015 
115 1 1 -0.164637 0.0110051 -0.169361 0 0 0 -1.08192 0.0327145 -0.41628 0 0 -0.000346714 80.5194 -117.211 96.8533 0.0015 
77 1 1 -0.161025 0.0149317 -0.172047 0 0 0 -0.835224 0.0631114 -0.323929 -0.00450644 -0.00186714 0.00885183 -25.4564 -363 1.88227 0.0025 
137 1 1 -0.157097 0.0174699 -0.171099 0 0 0 -0.926136 0.244444 -0.375256 0 0 -0.000346714 -171.73 -660.116 -23.4354 0.0015 
83 1 1 -0.15275 0.0179142 -0.16931 0 0 0 -0.778492 0.0507216 -0.334025 -2.3824e-05 -6.2252e-06 -0.000129147 -48.2682 -570.937 26.1818 0.0015 
139 1 1 -0.157053 0.0261689 -0.169788 0 0 0 -0.827144 0.124791 -0.314009 0 0 -0.000346714 -122.333 -619.012 76.0352 0.0015 
7 1 1 -0.203506 -0.0721442 -0.169706 0 0 0 -0.884667 0.236088 -0.505138 0 0 -0.000346714 -304.355 -553.048 284.708 0.0015 
171 1 1 -0.156015 -0.0355206 -0.166004 0 0 0 -1.00931 0.0478392 -0.425892 0 0 -0.000346714 47.7889 -733.208 -147.982 0.0015 
129 1 1 -0.164839 0.003284 -0.168298 0 0 0 -1.09949 0.172798 -0.45395 0 0 -0.00160516 107.201 168.895 14.0063 0.0025 
91 1 1 -0.147628 0.00210399 -0.167127 0 0 0 -0.813746 0.00698757 -0.349152 -0.000601338 -3.27737e-05 -8.48542e-05 16.9494 -353.615 -46.2215 0.0025 
116 1 1 -0.146766 0.00705173 -0.166374 0 0 0 -0.797148 0.00393647 -0.38275 0 0 -0.00160516 -24.5274 -332.178 4.94514 0.0025 
105 1 1 -0.144735 -0.0260553 -0.163708 0 0 0 -0.971641 -0.065738 -0.38803 -0.000393854 0.000160247 -0.000190364 36 -428.425 -17.5484 0.0025 
66 1 1 -0.139525 -0.020613 -0.162424 0 0 0 -0.776677 -0.0550981 -0.322895 -0.000406007 0.000140382 -0.000193452 0.678364 -332.917 55.1766 0.0025 
128 1 1 -0.140917 -0.0137956 -0.164812 0 0 0 -0.751586 0.0505609 -0.330743 0 0 -0.000346714 -36.1835 -544.482 -0.785206 0.0015 
65 1 1 -0.134851 -0.0108041 -0.161485 0 0 0 -0.615576 0.0415478 -0.236829 -0.0022336 -0.000963706 -0.00130934 29.3477 -276.133 -104.271 0.0025 
95 1 1 -0.132192 -0.00754073 -0.161629 0 0 0 -0.562254 0.0566782 -0.234987 2.1631e-05 3.79002e-05 -1.90335e-06 -78.3012 -401.268 88.6106 0.0015 
93 1 1 -0.139907 -0.00465225 -0.163885 0 0 0 -0.672219 -0.0894416 -0.285103 -0.000407105 2.91496e-05 -0.000191789 30.9771 -292.257 18.6472 0.0025 
120 1 1 -0.16759 -0.00181487 -0.16627 0 0 0 -1.14649 0.0165933 -0.524677 0 0 -0.00160516 3.6808 -104.303 -67.8123 0.0025 
163 1 1 -0.130518 -0.00188196 -0.161066 0 0 0 -0.660971 -0.0114419 -0.274316 -9.02047e-05 5.07956e-06 -3.15285e-05 60.4329 -480.486 -125.545 0.0015 
166 1 1 -0.14039 0.000911037 -0.165206 0 0 0 -0.811183 -0.0811644 -0.33613 7.46528e-06 5.89655e-05 -2.15892e-05 71.9311 -577.112 -41.6011 0.0015 
103 1 1 -0.139919 0.00525146 -0.163703 0 0 0 -0.894018 -0.0229371 -0.455341 0 0 -0.00160516 3.22168 -354.434 -1.53068 0.0025 
100 1 1 -0.137485 0.00967978 -0.163677 0 0 0 -0.730014 -0.0862593 -0.305212 -4.10007e-05 -3.77793e-06 -9.55291e-05 80.3318 -525.337 -43.9765 0.0015 
185 1 1 -0.134567 0.0085764 -0.162247 0 0 0 -0.735731 0.0489041 -0.330468 0 0 -0.000346714 -68.0899 -440.898 59.1424 0.0015 
13 1 1 -0.142618 0.0125079 -0.164529 0 0 0 -0.703742 -0.0666617 -0.289711 0 0 -0.00160516 44.9268 -295.715 -42.6104 0.0025 
135 1 1 -0.140056 0.019098 -0.163837 0 0 0 -0.816431 0.0457433 -0.347033 -7.34184e-05 -2.12027e-05 -7.92341e-05 9.04732 -584.708 -98.3568 0.0015 
140 1 1 -0.15623 0.0512649 -0.162718 0 0 0 -0.874858 -0.197103 -0.436575 -7.37781e-05 -7.93402e-05 -6.39165e-05 154.265 -675.742 -4.05306 0.0015 
121 1 1 -0.176932 -0.072484 -0.159788 0 0 0 -0.866908 -0.194158 -0.193581 -5.93927e-05 0.00010156 -0.000103671 183.489 -769.702 -47.5566 0.0015 
74 1 1 -0.144584 -0.0447557 -0.160147 0 0 0 -0.799938 -0.15805 -0.294842 -9.978e-05 7.83442e-05 -1.39542e-06 139.85 -620.875 -48.2053 0.0015 
159 1 1 -0.133044 -0.00924661 -0.158241 0 0 0 -0.890104 -0.18361 0.111922 0 0 -0.000346714 52.9769 -92.1889 -42.178 0.0015 
167 1 1 -0.132078 0.00179751 -0.160675 0 0 0 -0.594041 0.0165766 -0.259435 0.000298049 -0.000461795 0.00268213 32.943 48.5893 41.8425 0.0025 
73 1 1 -0.123747 0.00386318 -0.158186 0 0 0 -0.694366 0.0536708 -0.280703 -7.75894e-05 -1.17185e-05 -6.42524e-05 -51.1608 -503.257 30.1686 0.0015 
110 1 1 -0.136964 0.00539337 -0.160979 0 0 0 -1.08935 -0.00376909 -0.5671 0 0 -0.000346714 117.782 172.996 -82.0191 0.0015 
172 1 1 -0.129174 0.00627505 -0.16027 0 0 0 -0.685051 0.0525082 -0.2948 0 0 -0.000346714 -86.0087 -501.591 111.781 0.0015 
62 1 1 -0.128184 0.015394 -0.159383 0 0 0 -0.802277 -0.0136397 -0.333854 -0.000547152 -0.00019562 0.00161165 16.9062 -582.679 -15.352 0.0015 
45 1 1 -0.199156 -0.0639535 -0.164836 0 0 0 -0.806305 -0.42317 -1.15014 0 0 -0.000346714 389.887 -152.585 -138.964 0.0015 
149 1 1 -0.132817 -0.0393215 -0.156964 0 0 0 -0.883003 -0.0738845 -0.339883 -8.05095e-05 6.23407e-05 -5.25704e-05 -20.2395 -605.299 184.164 0.0015 
112 1 1 -0.126385 -0.0337937 -0.155598 0 0 0 -0.838819 -0.046598 -0.340804 -0.000116423 6.28881e-05 3.45791e-05 -86.9647 -555.56 290.22 0.0015 
117 1 1 -0.123565 -0.0223847 -0.155426 0 0 0 -0.880414 0.00371236 -0.371457 -0.000414039 0.000137925 -0.000161182 -36.3465 -374.065 82.4135 0.0025 
15 1 1 -0.139409 -0.0114423 -0.157129 0 0 0 -0.769425 -0.0335983 -0.388868 0 0 -0.00160516 -14.4016 140.45 43.327 0.0025 
131 1 1 -0.123762 -0.011565 -0.156618 0 0 0 -0.719951 0.0460555 -0.25825 0 0 -0.00160516 -7.40737 -298.249 -16.8781 0.0025 
127 1 1 -0.121002 -0.00779125 -0.156871 0 0 0 -0.752433 0.0273374 -0.317773 -7.0811e-05 1.1744e-05 -7.46398e-05 -21.7961 -545.039 4.71525 0.0015 
164 1 1 -0.132802 6.23188e-05 -0.156842 0 0 0 -1.19376 0.0306965 -0.585372 0 0 -0.000346714 41.7044 52.1454 -131.335 0.0015 
90 1 1 -0.123128 -0.00131736 -0.156867 0 0 0 -0.67665 -0.0133653 -0.290125 -0.000424769 4.41352e-06 -0.000144957 6.39157 -294.728 -1.33458 0.0025 
132 1 1 -0.119483 0.00236561 -0.155282 0 0 0 -0.612061 -0.0431122 -0.264948 0 0 -0.00160516 -32.7524 59.222 -9.27932 0.0025 
123 1 1 -0.120532 0.00600855 -0.156718 0 0 0 -0.536876 0.0244549 -0.224744 0 0 -0.000346714 47.6709 -357.936 -40.5661 0.0015 
158 1 1 -0.126049 0.00906505 -0.157714 0 0 0 -0.825817 -0.0218915 -0.340084 -0.000400799 -6.30735e-05 -0.000167685 16.5985 -356.807 -17.3377 0.0025 
68 1 1 -0.124096 0.0182168 -0.156146 0 0 0 -0.772796 -0.0515941 -0.267499 0 0 -0.00160516 28.2601 -322.804 -21.638 0.0025 
92 1 1 -0.124423 0.0314714 -0.154202 0 0 0 -0.702086 -0.00435882 -0.291928 6.94074e-05 -0.000104747 -0.000474123 20.1086 -291.716 -48.7787 0.0025 
67 1 1 -0.130713 0.0330729 -0.156438 0 0 0 -0.650626 0.0815847 -0.25182 -0.000390026 -0.0002186 -0.000210999 -23.3767 -281.408 -30.7783 0.0025 
173 1 1 -0.130688 0.040717 -0.155747 0 0 0 -0.883322 0.0878757 -0.347282 -8.39537e-05 -4.71025e-05 -4.59612e-05 -45.7495 -642.124 -46.117 0.0015 
106 1 1 -0.126944 -0.0374898 -0.153929 0 0 0 -0.849165 -0.0478357 -0.340903 -0.000389227 0.000202436 -0.000205 1.90296 -365.035 46.482 0.0025 
177 1 1 -0.114276 -0.0307048 -0.151227 0 0 0 -0.628605 -0.0684513 -0.248082 2.28857e-05 3.82451e-05 2.16012e-06 57.9718 -442.308 -9.37618 0.0015 
101 1 1 -0.114181 -0.0107328 -0.153759 0 0 0 -0.791908 0.0901743 -0.342521 0 0 -0.000346714 -54.8943 -511.951 -108.782 0.0015 
157 1 1 -0.111349 -0.00887247 -0.15153 0 0 0 -0.778512 0.0919544 -0.321597 0 0 -0.00160516 -25.2262 -325.296 -45.8715 0.0025 
59 1 1 -0.10871 -0.00362534 -0.151631 0 0 0 -0.519535 -0.0158624 -0.195381 0 0 -0.000346714 105.312 -351.383 -105.904 0.0015 
144 1 1 -0.111266 -0.000172738 -0.151846 0 0 0 -0.587244 0.0135984 -0.28784 -0.000232687 -0.00301146 0.00905095 -13.2581 -223.161 91.5013 0.0025 
178 1 1 -0.111857 0.00438538 -0.152953 0 0 0 -0.448718 0.0422609 -0.155927 0 0 -0.000346714 -5.53428 -199.73 -43.1642 0.0015 
133 1 1 -0.149268 0.00724169 -0.158986 0 0 0 -0.751423 -0.139775 -1.06081 0 0 -0.000346714 165.241 -151.591 -75.0859 0.0015 
151 1 1 -0.121522 0.00812348 -0.15464 0 0 0 -0.822416 0.113889 -0.31746 0 0 -0.000346714 -104.456 -353.891 -55.7069 0.0015 
119 1 1 -0.109207 0.0124954 -0.150454 0 0 0 -0.629695 -0.0904084 -0.270254 -0.000404006 -7.27586e-05 -0.000180104 62.9189 -269.643 -56.3979 0.0025 
189 1 1 -0.11491 0.0140323 -0.153843 0 0 0 -0.534086 -0.0823475 -0.192452 0.000459756 0.000135949 -0.00197267 80.2218 -374.824 -52.5206 0.0015 
161 1 1 -0.120485 0.0320964 -0.153415 0 0 0 -0.684433 0.0252197 -0.243967 0 0 -0.000346714 -24.3122 -442.303 -13.7982 0.0015 
130 1 1 -0.130138 0.0456566 -0.152812 0 0 0 -0.752688 -0.0172731 -0.311171 -0.000365749 -0.000295968 -0.00024497 45 -309.784 -91.6539 0.0025 
94 1 1 -0.141606 0.0538776 -0.154575 0 0 0 -0.766397 -0.0942429 -0.344013 -0.000337551 -0.000368793 -0.000293045 77.7021 -318.459 -85.8636 0.0025 
89 1 1 -0.137354 0.0555228 -0.151173 0 0 0 -0.71716 0.112212 -0.34322 0 0 -0.000346714 -99.3176 -457.478 -80.7531 0.0015 
143 1 1 -0.1079 -0.0304947 -0.14752 0 0 0 -0.630538 -0.0470749 -0.250652 -0.000568596 0.000288615 0.000232302 -31.9823 -251.369 127.745 0.0025 
198 1 1 -0.109407 -0.0217404 -0.150592 0 0 0 -0.800692 -0.0133446 -0.34477 0 0 -0.000346714 33.0464 -580.462 -47.8629 0.0015 
243 1 1 -0.120003 -0.0197829 -0.154758 0 0 0 -1.07568 0.00570154 -0.812029 0 0 -0.000346714 -113.631 -740.245 -66.0954 0.0015 
193 1 1 -0.113515 -0.0156271 -0.150912 0 0 0 -0.734216 0.030967 -0.521502 0 0 -0.00160516 15.8455 -148.289 12.942 0.0025 
183 1 1 -0.120462 -0.01464 -0.154188 0 0 0 -0.795393 -0.368994 -0.442585 0 0 -0.00160516 48.3353 158.616 -121.182 0.0025 
150 1 1 -0.107829 -0.0115526 -0.151021 0 0 0 -0.859969 0.0333558 -0.323017 0 0 -0.000346714 -115.089 -596.1 221.502 0.0015 
153 1 1 -0.118987 -0.00279319 -0.155201 0 0 0 -0.705536 0.108121 -1.02984 0 0 -0.000346714 -107.869 -228.934 95.2028 0.0015 
187 1 1 -0.116263 -0.000937192 -0.147995 0 0 0 -1.07012 -0.142016 -0.286727 0 0 -0.000346714 129.443 63.5394 -60.436 0.0015 
155 1 1 -0.106495 0.0017635 -0.149815 0 0 0 -0.569711 0.102099 -0.240696 -0.000514586 -1.78928e-06 8.30093e-06 -33.9726 -247.603 -24.5853 0.0025 
180 1 1 -0.101567 0.00167777 -0.147418 0 0 0 -0.555958 0.00789224 -0.190275 0 0 -0.00160516 32.9009 -224.694 -85.0717 0.0025 
208 1 1 -0.121196 0.014594 -0.154017 0 0 0 -0.761696 -0.259079 -0.430999 0 0 -0.00160516 142.335 -72.3891 84.6856 0.0025 
204 1 1 -0.126768 0.0224206 -0.147018 0 0 0 -0.965384 0.198399 -0.0720354 0 0 -0.000346714 -335.15 193.462 -73.885 0.0015 
148 1 1 -0.104534 0.0213677 -0.148679 0 0 0 -0.744825 -0.0217613 -0.316724 -9.33159e-05 -3.44586e-05 -2.35277e-05 -35.6724 -563.314 122.728 0.0015 
136 1 1 -0.109632 0.0289396 -0.149656 0 0 0 -0.772724 0.0522551 -0.316844 -8.67094e-05 -3.17627e-05 -4.13489e-05 22.9299 -542.341 -145.367 0.0015 
199 1 1 -0.131577 0.0356743 -0.153041 0 0 0 -1.0272 0.346861 -0.614324 0 0 -0.000346714 -449.456 -149.562 -136.866 0.0015 
221 1 1 -0.103088 -0.0207966 -0.146683 0 0 0 -0.781814 -0.370957 -0.212905 0 0 -0.00160516 146.767 -318.219 50.9999 0.0025 
191 1 1 -0.0960273 -0.0107064 -0.146139 0 0 0 -0.741257 -0.0198415 -0.309283 -8.81973e-05 1.24913e-05 -3.69828e-05 -30.2582 -530.528 106.555 0.0015 
168 1 1 -0.0997233 -0.00266034 -0.145702 0 0 0 -0.662674 -0.0546671 -0.221281 0 0 -0.00160516 -78.9191 -239.2 74.5966 0.0025 
124 1 1 -0.0975729 0.0015492 -0.144133 0 0 0 -0.47733 -0.013153 0.113529 0 0 -0.000346714 -174.468 262.879 48.2984 0.0015 
203 1 1 -0.132667 0.00285606 -0.149428 0 0 0 -1.00175 -0.236512 -0.820944 0 0 -0.000346714 231.67 -102.93 -70.3228 0.0015 
190 1 1 -0.105655 0.00665797 -0.14998 0 0 0 -0.90123 -0.0544679 -0.235365 0 0 -0.000346714 33.9331 -607.485 -6.52593 0.0015 
192 1 1 -0.10274 0.00826059 -0.149074 0 0 0 -0.664372 0.184772 -0.144269 0 0 -0.000346714 -122.183 -453.674 -50.3512 0.0015 
179 1 1 -0.143355 -0.0816604 -0.141094 0 0 0 -0.837943 -0.234999 -0.140273 0 0 -0.000346714 135.515 -571.254 210.632 0.0015 
194 1 1 -0.120602 -0.0684169 -0.139657 0 0 0 -0.747392 -0.257611 -0.143399 0 0 -0.00160516 53.7165 -249.166 194.913 0.0025 
181 1 1 -0.0950911 -0.0276585 -0.142756 0 0 0 -0.585452 0.0476171 -0.255346 -0.000395041 0.000191296 -0.000204649 -52.4618 -243.351 74.9032 0.0025 
126 1 1 -0.0925191 -0.0239657 -0.143284 0 0 0 -0.606312 0.100644 -0.265536 -8.67366e-05 2.64246e-05 -3.95135e-05 -166.767 -412.656 224.38 0.0015 
206 1 1 -0.0916797 -0.018657 -0.142521 0 0 0 -0.689868 0.107165 -0.30806 -1.74686e-06 -1.09735e-05 -0.000964428 -62.0821 -297.078 35.9975 0.0025 
226 1 1 -0.086642 -0.0148094 -0.140388 0 0 0 -0.615513 0.0350057 -0.225616 0 0 -0.000346714 22.369 -416.502 -108.382 0.0015 
205 1 1 -0.0973945 -0.0137498 -0.143776 0 0 0 -0.815239 -0.0522118 -0.497689 0 0 -0.000346714 106.9 -40.6314 -126.353 0.0015 
147 1 1 -0.0841749 -0.0112875 -0.141115 0 0 0 -0.430835 0.0597928 -0.183604 -8.8058e-05 1.10988e-05 -3.74535e-05 -55.4259 -310.402 28.974 0.0015 
218 1 1 -0.0878229 -0.0107795 -0.142683 0 0 0 -0.636448 -0.205885 -0.258514 -8.84383e-05 1.17009e-05 -3.90987e-05 140.853 -460.647 20.0933 0.0015 
169 1 1 -0.136663 -0.0050422 -0.141007 0 0 0 -0.840969 -0.00189137 -0.0913284 0 0 -0.00160516 -36.2028 196.873 12.8413 0.0025 
197 1 1 -0.108231 -0.0029333 -0.148393 0 0 0 -0.721327 -0.23483 -0.858228 0 0 -0.000346714 120.035 -368.712 4.36143e-14 0.0015 
182 1 1 -0.100741 -0.00263911 -0.138733 0 0 0 -0.948885 -0.0175628 -0.128763 0 0 -0.00160516 47.3578 268.415 4.57205 0.0025 
145 1 1 -0.0895798 -0.00454205 -0.142693 0 0 0 -0.559209 -0.155275 -0.228637 9.59317e-05 -2.40205e-05 5.36413e-05 74.4578 -226.395 -9.93716 0.0025 
109 1 1 -0.0834168 -0.00278757 -0.141224 0 0 0 -0.584456 -0.0737387 -0.246107 -8.48966e-05 -2.44528e-06 -4.38024e-05 43.0206 -423.078 24.6007 0.0015 
196 1 1 -0.105032 0.00283752 -0.142312 0 0 0 -1.06332 0.178595 -0.145462 0 0 -0.00160516 -87.6238 33.6582 9.00456 0.0025 
245 1 1 -0.0941299 0.00519781 -0.1441 0 0 0 -0.4303 0.291014 -0.1059 0 0 -0.00160516 -132.704 -174.154 9.9956 0.0025 
175 1 1 -0.108124 0.00520475 -0.143351 0 0 0 -0.792836 0.126317 -0.392138 0 0 -0.000346714 -192.689 309.211 113.977 0.0015 
202 1 1 -0.101456 0.0135292 -0.145134 0 0 0 -1.01411 -0.041114 -0.793447 0 0 -0.000346714 230.258 -168.206 177.623 0.0015 
212 1 1 -0.0926171 0.0160127 -0.143714 0 0 0 -0.806844 0.0104824 -0.388908 0 0 -0.000346714 75.3682 -539.902 -213.97 0.0015 
210 1 1 -0.0973198 0.0244133 -0.144096 0 0 0 -0.843869 -0.12403 -0.370161 -0.000378788 -0.000144087 -0.000228865 84.1537 -358.305 -71.8002 0.0025 
214 1 1 -0.0808196 -0.0265187 -0.137409 0 0 0 -0.914578 -0.0936322 -0.289535 0 0 -0.000346714 135.81 -564.594 -37.5581 0.0015 
188 1 1 -0.081462 -0.0230986 -0.138719 0 0 0 -0.696936 0.146708 -0.327025 0 0 -0.000346714 17.1542 -438.782 -95.7555 0.0015 
223 1 1 -0.0813599 -0.00792005 -0.13947 0 0 0 -0.651616 -0.0844132 -0.467151 0 0 -0.000346714 120.283 -364.128 32.9416 0.0015 
251 1 1 -0.0740038 -0.00489034 -0.13716 0 0 0 -0.674967 0.0328471 -0.288146 -8.90151e-05 1.03952e-05 -3.77696e-05 -57.3101 -485.697 78.8812 0.0015 
118 1 1 -0.0788328 -0.00223562 -0.138207 0 0 0 -0.57881 -0.0229202 -0.243147 -0.0004086 -1.81086e-05 -0.00017168 4.40878 -251.525 13.2148 0.0025 
211 1 1 -0.10739 -0.0021335 -0.142744 0 0 0 -0.718605 -0.293393 -0.750812 0 0 -0.000346714 149.838 -366.996 5.733e-14 0.0015 
201 1 1 -0.0885984 0.00373786 -0.141777 0 0 0 -0.739025 0.0766602 -0.823868 0 0 -0.000346714 -69.7908 -316.592 27.1813 0.0015 
242 1 1 -0.074946 0.000305946 -0.137612 0 0 0 -0.556058 -0.0205419 -0.233546 -7.98371e-05 -3.53775e-06 -5.63458e-05 -8.493 -403.259 55.6865 0.0015 
216 1 1 -0.0901595 0.00197889 -0.143707 0 0 0 -0.836349 -0.225077 -0.183258 0 0 -0.000346714 143.729 -556.942 42.9989 0.0015 
228 1 1 -0.0840284 0.00426933 -0.141295 0 0 0 -0.736636 0.0767655 -0.2554 0 0 -0.000346714 24.0545 -512.488 -190.06 0.0015 
160 1 1 -0.0749448 0.00987856 -0.137375 0 0 0 -0.481292 0.034391 -0.198409 -0.000102589 -2.19496e-05 -3.0772e-07 15.6712 -340.603 -97.1464 0.0015 
244 1 1 -0.0807755 0.013296 -0.138423 0 0 0 -0.672245 -0.00388268 -0.281227 -0.0004035 -8.55901e-05 -0.000181151 -4.21296 -293.868 14.1245 0.0025 
276 1 1 -0.0914276 0.0127781 -0.143256 0 0 0 -1.17176 -0.174084 -0.799718 0 0 -0.000346714 170.283 -90.0315 96.912 0.0015 
215 1 1 -0.07729 0.0166411 -0.136631 0 0 0 -0.579997 0.00590662 -0.230895 0 0 -0.000346714 -108.033 -312.843 -47.1002 0.0015 
134 1 1 -0.082628 0.0393863 -0.136124 0 0 0 -0.385867 0.0773503 -0.138423 0 0 -0.000346714 -14.0981 -254.366 -110.528 0.0015 
9 1 1 -0.11225 0.0695265 -0.137051 0 0 0 -0.531482 -0.124478 -0.272328 -6.40853e-05 -9.58381e-05 -7.8707e-05 100.321 -429.536 0.546831 0.0015 
176 1 1 -0.0653665 -0.0150216 -0.132974 0 0 0 -0.567072 0.0657981 -0.225942 0 0 -0.000346714 -34.7897 -375.958 -126.481 0.0015 
125 1 1 -0.0671075 -0.0126849 -0.133873 0 0 0 -0.531243 0.100015 -0.227897 -8.82473e-05 9.86539e-06 -3.75395e-05 -65.6861 -385.466 -16.048 0.0015 
275 1 1 -0.0668972 -0.00911016 -0.131887 0 0 0 -0.624961 -0.0611086 -0.204099 0 0 -0.000346714 194.756 -184.596 -86.1923 0.0015 
195 1 1 -0.0709251 -0.00622057 -0.134702 0 0 0 -0.661399 -0.0208532 -0.280614 9.33982e-05 -0.000117597 0.000272887 -15.9004 -284.045 59.2601 0.0025 
232 1 1 -0.0951251 -0.00181586 -0.138078 0 0 0 -0.632556 -0.126737 -0.482018 0 0 -0.00160516 61.6695 -103.085 -3.49941 0.0025 
217 1 1 -0.0767975 0.00302778 -0.135372 0 0 0 -0.757957 3.09338e-05 -0.253927 0 0 -0.000346714 26.4178 -406.955 -73.7642 0.0015 
170 1 1 -0.0661835 0.00390895 -0.132763 0 0 0 -0.559781 -0.033258 -0.238592 -0.000402837 -2.07594e-05 -0.000193943 18.2563 -243.317 -8.91923 0.0025 
224 1 1 -0.0795253 0.00821232 -0.1354 0 0 0 -0.924737 0.00896411 -0.432844 0 0 -0.000346714 1.58098 -193.09 97.1135 0.0015 
154 1 1 -0.069379 0.0100755 -0.135025 0 0 0 -0.476904 0.0833989 -0.191267 -8.99448e-05 -2.0624e-05 -3.17201e-05 -43.9345 -342.295 -39.6976 0.0015 
255 1 1 -0.0684654 0.00692407 -0.134241 0 0 0 -0.535665 -0.0346585 -0.329365 0 0 -0.000346714 264.316 58.0511 138.137 0.0015 