ITEM: TIMESTEP
17400
ITEM: NUMBER OF ATOMS
230
ITEM: BOX BOUNDS ff ff ff
-0.5 0.1
-0.2 0.2
-0.4 0.15
ITEM: ATOMS id type type x y z ix iy iz vx vy vz fx fy fz omegax omegay omegaz radius 
4 1 1 -0.064948 0.00210881 -0.132277 0 0 0 -0.690644 -0.267163 -0.297564 -0.000237561 1.10754e-06 -0.000639884 109.8 -300.241 15.0162 0.0025 
31 1 1 -0.0579567 -0.00607476 -0.130165 0 0 0 -0.829408 0.22026 -0.232773 0 0 -0.000346714 -65.6062 -574.641 -212.59 0.0015 
38 1 1 -0.0734369 0.0347989 -0.129725 0 0 0 -1.13531 0.557518 -0.471874 0 0 -0.000346714 -340.631 -726.294 -186.258 0.0015 
36 1 1 -0.0579621 -0.0291527 -0.125344 0 0 0 -0.805626 -0.0623163 -0.37354 0 0 -0.000346714 16.3055 -505.552 136.656 0.0015 
30 1 1 -0.0586355 -0.0154065 -0.126318 0 0 0 -1.01633 0.294895 -0.672369 0 0 -0.00160516 17.8756 -77.3327 -0.484907 0.0025 
12 1 1 -0.0569109 -0.0042374 -0.126087 0 0 0 -0.81565 0.213 -0.31203 0 0 -0.000346714 76.6052 -432.34 -173.062 0.0015 
50 1 1 -0.0476667 -0.00155537 -0.12583 0 0 0 -0.60364 -0.129187 -0.266006 0 0 -0.000346714 182.387 -425.237 -163.483 0.0015 
3 1 1 -0.0493719 0.00373162 -0.125501 0 0 0 -0.708423 0.0952214 -0.473231 0 0 -0.00160516 -157.542 -128.106 -127.937 0.0025 
5 1 1 -0.0579878 0.0140016 -0.127463 0 0 0 -0.739681 0.0955725 -0.412242 0 0 -0.000346714 -64.7239 -473.802 -26.7444 0.0015 
23 1 1 -0.0515471 0.0120539 -0.127341 0 0 0 -0.825891 -0.241266 -0.313489 0 0 -0.000346714 144.617 -587.478 68.8196 0.0015 
35 1 1 -0.0511566 0.019156 -0.125049 0 0 0 -0.810353 -0.220714 -0.39314 0 0 -0.000346714 145.888 -543.345 2.29713 0.0015 
33 1 1 -0.0455221 -0.0176512 -0.124307 0 0 0 -0.683745 0.275489 -0.315143 8.05102e-05 -1.97772e-05 -0.00048268 -196.009 -497.235 -9.69956 0.0015 
8 1 1 -0.0521626 -0.0137017 -0.123716 0 0 0 -0.809413 0.212428 -0.431553 0 0 -0.000346714 -142.629 -517.4 12.32 0.0015 
52 1 1 -0.0445829 -0.0156703 -0.120837 0 0 0 -0.718375 -0.358767 -0.288426 0 0 -0.00160516 295.394 -43.8859 179.667 0.0025 
19 1 1 -0.0428239 0.000860749 -0.121393 0 0 0 -0.579489 0.194121 -0.215698 0 0 -0.000346714 -82.0058 -360.959 6.27673 0.0015 
18 1 1 -0.0724828 0.0267776 -0.123285 0 0 0 -0.761856 -0.0901797 -0.41136 0 0 -0.000346714 109.333 -325.067 83.3711 0.0015 
28 1 1 -0.0374939 -0.0296115 -0.118226 0 0 0 -0.558905 0.0837864 -0.260461 0 0 -0.00160516 -41.4182 -237.989 16.3162 0.0025 
21 1 1 -0.0683145 -0.0106079 -0.117279 0 0 0 -0.750346 0.180126 -0.187583 0 0 -0.000346714 -93.3386 -388.818 -8.97324e-15 0.0015 
1 1 1 -0.0351723 -0.0123335 -0.11938 0 0 0 -0.434069 -0.0327364 -0.0627138 0 0 -0.00160516 -28.6326 -159.481 109.781 0.0025 
24 1 1 -0.0598066 -0.00908714 -0.118133 0 0 0 -0.740387 0.234009 -0.395636 0 0 -0.000346714 53.5445 -226.738 38.1963 0.0015 
37 1 1 -0.0440681 -0.00524738 -0.118125 0 0 0 -0.727982 0.151647 -0.375501 0 0 -0.000346714 -91.909 -438.919 -4.95487 0.0015 
2 1 1 -0.0783278 -0.00312387 -0.118065 0 0 0 -0.737266 0.0484382 -0.262848 0 0 -0.00160516 -14.8336 -225.779 -6.37285e-15 0.0025 
39 1 1 -0.0319075 0.00119235 -0.117458 0 0 0 -0.478936 -0.0320231 -0.253186 0 0 -0.00160516 17.9899 -186.747 -8.36648 0.0025 
29 1 1 -0.0366024 0.00597371 -0.119742 0 0 0 -0.444275 0.0972333 -0.144449 0 0 -0.00160516 -15.309 -172.684 -71.3942 0.0025 
44 1 1 -0.0314031 0.00628268 -0.118397 0 0 0 -0.369691 -0.00339579 -0.0607492 0 0 -0.000346714 -18.4333 -230.003 40.6691 0.0015 
16 1 1 -0.0384386 0.0125427 -0.120589 0 0 0 -0.588504 0.125168 -0.377838 0 0 -0.00160516 -24.1215 -250.433 -49.8834 0.0025 
11 1 1 -0.0709653 0.019262 -0.120075 0 0 0 -0.746853 -0.229155 -0.376301 0 0 -0.000346714 157.283 -192.671 339.666 0.0015 
47 1 1 -0.0407881 0.0242185 -0.120204 0 0 0 -1.0713 0.0493354 -0.399194 0 0 -0.000346714 -65.5626 -524.773 71.0875 0.0015 
9 1 1 -0.0432885 0.0422175 -0.118838 0 0 0 -0.165809 0.325428 0.0431487 0 0 -0.000346714 -303.96 5.95485 17.627 0.0015 
26 1 1 -0.0514787 -0.0210611 -0.116861 0 0 0 -0.72059 0.297164 -0.335726 0 0 -0.00160516 -105.302 -255.327 -0.0941047 0.0025 
71 1 1 -0.0237679 -0.0116112 -0.113997 0 0 0 -1.09074 0.259136 -0.163573 0 0 -0.000346714 -163.435 -699.586 -17.6561 0.0015 
10 1 1 -0.0673084 -0.0061815 -0.115407 0 0 0 -0.730942 0.0480227 -0.234118 0 0 -0.000346714 -24.4869 -372.71 -5.48927e-14 0.0015 
20 1 1 -0.0652442 -0.00238406 -0.115928 0 0 0 -0.735117 0.048297 -0.117032 0 0 -0.000346714 -24.7329 -376.454 2.87063e-14 0.0015 
17 1 1 -0.063952 0.000396757 -0.115112 0 0 0 -0.755732 0.0214702 -0.217459 0 0 -0.000346714 -10.9755 -386.329 2.70716e-15 0.0015 
32 1 1 -0.0583075 0.00170664 -0.114804 0 0 0 -0.756912 0.0215037 -0.095177 0 0 -0.000346714 -11.0748 -389.824 7.37302e-16 0.0015 
60 1 1 -0.0363689 0.00162482 -0.116255 0 0 0 -0.481235 -0.055419 -0.253118 0 0 -0.000346714 76.5445 -305.361 -82.55 0.0015 
74 1 1 -0.0311016 0.00791619 -0.113601 0 0 0 -0.0392526 0.252388 0.328709 0 0 -0.000346714 -165.447 555.887 -71.4804 0.0015 
6 1 1 -0.0663377 0.00769659 -0.114776 0 0 0 -0.729676 -0.109972 -0.228718 0 0 -0.000346714 55.6535 -369.268 6.21219e-14 0.0015 
27 1 1 -0.0265265 0.00712869 -0.115893 0 0 0 -0.575135 0.0233181 -0.255427 0 0 -0.00160516 20.6117 -217.599 -6.57947 0.0025 
88 1 1 -0.0266705 0.0146004 -0.115273 0 0 0 -0.749106 -0.135304 0.248345 0 0 -0.000346714 69.9945 -387.523 -4.21035e-14 0.0015 
34 1 1 -0.0284562 0.0184972 -0.113908 0 0 0 -0.525783 -0.262883 -0.0746747 0 0 -0.000346714 203.718 -290.221 -86.073 0.0015 
75 1 1 -0.0287262 0.020959 -0.115991 0 0 0 -0.809307 -0.592309 -0.175462 0 0 -0.000346714 299.059 -554.827 269.236 0.0015 
45 1 1 -0.0275303 0.0280175 -0.115038 0 0 0 -0.527778 0.0262628 -0.986148 -0.00729729 -0.0166059 -0.0373196 5.09919 -216.468 -193.416 0.0015 
41 1 1 -0.0464185 -0.0286326 -0.112338 0 0 0 -0.704419 0.235499 -0.0535823 0 0 -0.00160516 -92.2038 -218.304 -1.90708 0.0025 
48 1 1 -0.0507483 -0.0214217 -0.110207 0 0 0 -0.926663 0.481481 -0.0950972 0 0 -0.000346714 27.3203 136.186 -30.5113 0.0015 
15 1 1 -0.0199062 -0.018652 -0.111354 0 0 0 -0.306286 0.216467 -0.277613 0 0 -0.00160516 -69.9395 -110.67 -32.2049 0.0025 
56 1 1 -0.0376439 -0.0140085 -0.110541 0 0 0 -0.718805 0.16698 0.0849153 0 0 -0.000346714 -85.5854 -368.423 1.07912e-13 0.0015 
51 1 1 -0.0372041 -0.00933829 -0.116699 0 0 0 -0.874901 0.506308 -0.54666 0 0 -0.000346714 -245.398 -83.3105 -31.3154 0.0015 
63 1 1 -0.0308407 -0.0107993 -0.113121 0 0 0 0.166147 -0.446184 -0.646204 0 0 -0.000346714 -335.61 -609.336 -140.926 0.0015 
76 1 1 -0.0204062 -0.00263574 -0.111821 0 0 0 -1.01612 0.0456391 -0.131357 0 0 -0.000346714 -19.2562 -636.876 -40.2669 0.0015 
81 1 1 -0.0165413 0.00225652 -0.110985 0 0 0 -0.748691 -0.016841 0.245745 0 0 -0.000346714 8.58772 -381.78 -1.52841e-14 0.0015 
65 1 1 -0.0272592 0.00435378 -0.111549 0 0 0 -0.580715 -0.2412 -0.321015 0 0 -0.00160516 80.3999 196.423 57.1029 0.0025 
57 1 1 -0.0347416 0.0079948 -0.110006 0 0 0 -0.744631 -0.134496 0.0595471 0 0 -0.000346714 69.7203 -386.005 -6.26036e-14 0.0015 
13 1 1 -0.0154874 0.0142522 -0.11081 0 0 0 -0.202024 0.0386304 -0.0651868 0.000666122 0.000150319 -0.002997 -12.1058 -84.2132 -12.5909 0.0025 
43 1 1 -0.0381836 0.0239409 -0.114276 0 0 0 -0.602832 0.144916 -0.653877 0 0 -0.000346714 -40.652 196.878 -207.346 0.0015 
54 1 1 -0.0236936 0.024113 -0.112668 0 0 0 -0.581102 -0.101463 -0.212312 0 0 -0.00160516 38.9865 -234.261 -0.780963 0.0025 
62 1 1 -0.017861 0.0217174 -0.112294 0 0 0 -0.327318 -0.0303549 -0.143752 -9.01781e-05 -1.6286e-05 -3.88348e-05 -67.6748 -254.651 207.871 0.0015 
42 1 1 -0.0381118 0.0269239 -0.111212 0 0 0 -0.584463 0.124729 -0.352622 0 0 -0.00160516 118.328 -246.781 4.22467 0.0025 
70 1 1 -0.0252613 0.0302767 -0.114155 0 0 0 -0.644766 0.0209115 0.00515822 0 0 -0.000346714 -39.3051 -394.234 -11.5396 0.0015 
79 1 1 -0.0200725 -0.0327151 -0.109433 0 0 0 -0.881514 -0.192444 0.0520257 0 0 -0.00160516 73.1144 -310.468 92.8732 0.0025 
66 1 1 -0.0145143 -0.0245405 -0.109422 0 0 0 -0.395523 0.441468 -0.168904 0 0 -0.00160516 -48.5957 -230.051 -5.82909 0.0025 
55 1 1 -0.0318982 -0.0193678 -0.10875 0 0 0 -0.724818 0.29843 0.0655167 0 0 -0.00160516 -92.8876 -225.641 -0.0301518 0.0025 
59 1 1 -0.0104212 -0.0157415 -0.107665 0 0 0 0.0154589 -0.0641846 -0.40105 0 0 -0.000346714 -148.811 -637.225 -17.6189 0.0015 
22 1 1 -0.048393 -0.0123479 -0.107016 0 0 0 -0.721152 0.128851 -0.241762 0 0 -0.000346714 -65.0767 -364.221 8.43618e-14 0.0015 
78 1 1 -0.0345631 -0.00703875 -0.113349 0 0 0 -0.245697 0.242776 -1.45765 0 0 -0.00160516 -53.0959 37.5312 -37.4724 0.0025 
83 1 1 -0.00919557 -0.00871197 -0.108065 0 0 0 -0.62625 0.159735 0.156689 0 0 -0.000346714 -80.7065 -336.668 -48.6138 0.0015 
73 1 1 -0.00958988 -0.00373685 -0.107206 0 0 0 -0.201623 -0.0439977 -0.16113 0 0 -0.000346714 -7.27532 -742.974 -14.0664 0.0015 
49 1 1 -0.0474473 0.00327982 -0.109038 0 0 0 -0.55464 -0.0743018 -0.280417 0 0 -0.000346714 -3.44496 463.931 -9.78414 0.0015 
25 1 1 -0.0409197 0.00605464 -0.109717 0 0 0 -0.419727 -0.0188315 -0.301673 0 0 -0.000346714 94.6125 -408.957 4.03732 0.0015 
72 1 1 -0.044663 0.0156993 -0.110692 0 0 0 -1.03713 -0.876745 -0.619914 0 0 -0.000346714 244.277 60.682 196.704 0.0015 
68 1 1 -0.0232977 0.017087 -0.108425 0 0 0 -0.411832 -0.234231 0.152717 0 0 -0.00160516 81.3497 -105.608 17.9338 0.0025 
61 1 1 -0.0113497 0.0260784 -0.108827 0 0 0 0.00549932 0.682245 0.19394 0 0 -0.000346714 -431.4 60.2477 -177.351 0.0015 
85 1 1 -0.0274654 0.0287848 -0.112223 0 0 0 -0.544749 0.0745335 -0.560116 0.00729729 0.0166059 0.0366261 -14.0043 214.378 56.5254 0.0015 
7 1 1 -0.0503677 -0.0545866 -0.10689 0 0 0 -0.714072 -0.386294 -0.433071 0 0 -0.000346714 377.106 230.021 159.168 0.0015 
46 1 1 -0.0320048 -0.0107506 -0.105578 0 0 0 -0.717848 0.128261 0.000857063 0 0 -0.000346714 -65.8418 -368.503 1.62458e-14 0.0015 
69 1 1 -0.012412 -0.00022594 -0.104502 0 0 0 -0.721155 -0.0267903 0.177068 0 0 -0.000346714 13.5753 -365.427 2.76259e-15 0.0015 
64 1 1 -0.018334 0.00728881 -0.103255 0 0 0 -0.717929 -0.0266705 0.091912 0 0 -0.000346714 13.6638 -367.81 1.29697e-14 0.0015 
14 1 1 -0.0447516 0.00993748 -0.106248 0 0 0 -0.732633 -0.171112 -0.247581 0 0 -0.00160516 53.1334 -227.496 5.06761e-14 0.0025 
84 1 1 -0.0307162 0.0123479 -0.112453 0 0 0 0 0 -2.04629 0 0 -0.000346714 0 0 0 0.0015 
67 1 1 -0.0105257 0.0125671 -0.10495 0 0 0 -0.198361 -0.491415 0.120576 0 0 -0.00160516 170.137 -32.7556 74.8826 0.0025 
77 1 1 -0.0100798 0.0182703 -0.104705 0 0 0 -0.732088 -0.170985 0.202189 0 0 -0.00160516 52.996 -226.908 -1.71788e-14 0.0025 
58 1 1 -0.0220411 0.0263118 -0.103785 0 0 0 -0.54179 -0.119024 -0.0955991 0 0 -0.000346714 207.663 -424.231 -92.2129 0.0015 
53 1 1 -0.0196798 -0.0164997 -0.102343 0 0 0 -0.644309 0.0703581 -0.171929 0 0 -0.00160516 -155.554 -213.747 -38.0693 0.0025 
40 1 1 -0.0277614 -0.012278 -0.102122 0 0 0 -0.713952 0.262107 -0.105826 0 0 -0.00160516 -81.4948 -221.983 -4.47958e-14 0.0025 
89 1 1 -0.0184331 -0.00858494 -0.106608 0 0 0 -0.321792 0.887494 -1.25557 0 0 -0.000346714 -567.473 61.1874 -291.489 0.0015 
102 1 1 -0.0267621 -0.0316048 -0.103444 0 0 0 0 0 -2.00263 0 0 -0.000346714 0 0 0 0.0015 
80 1 1 -0.0153514 -0.0285466 -0.104102 0 0 0 0 0 -2.00587 0 0 -0.00160516 0 0 0 0.0025 
87 1 1 -0.0216846 0.010562 -0.106278 0 0 0 0 0 -2.01646 0 0 -0.000346714 0 0 0 0.0015 
82 1 1 -0.011833 0.030812 -0.105957 0 0 0 0 0 -2.01489 0 0 -0.000346714 0 0 0 0.0015 
86 1 1 -0.0266174 0.0340944 -0.104161 0 0 0 0 0 -2.00616 0 0 -0.000346714 0 0 0 0.0015 
95 1 1 -0.016986 -0.00213434 -0.0991805 0 0 0 0 0 -1.98164 0 0 -0.000346714 0 0 0 0.0015 
98 1 1 -0.0294235 0.0177987 -0.0960028 0 0 0 0 0 -1.96584 0 0 -0.000346714 0 0 0 0.0015 
94 1 1 -0.0329725 0.0296342 -0.0974223 0 0 0 0 0 -1.97291 0 0 -0.00160516 0 0 0 0.0025 
97 1 1 -0.020149 -0.0334448 -0.0931248 0 0 0 0 0 -1.95142 0 0 -0.000346714 0 0 0 0.0015 
100 1 1 -0.0135716 -0.0190259 -0.0953567 0 0 0 0 0 -1.96261 0 0 -0.000346714 0 0 0 0.0015 
92 1 1 -0.0333375 0.0110949 -0.0929107 0 0 0 0 0 -1.95034 0 0 -0.00160516 0 0 0 0.0025 
91 1 1 -0.0292811 0.00645928 -0.0922224 0 0 0 0 0 -1.94691 0 0 -0.00160516 0 0 0 0.0025 
90 1 1 -0.0143727 0.015853 -0.0906731 0 0 0 0 0 -1.93906 0 0 -0.00160516 0 0 0 0.0025 
99 1 1 -0.00439906 0.0240922 -0.0916778 0 0 0 0 0 -1.94416 0 0 -0.000346714 0 0 0 0.0015 
101 1 1 -0.00739645 -0.0185545 -0.0874509 0 0 0 0 0 -1.92268 0 0 -0.000346714 0 0 0 0.0015 
93 1 1 -0.0265909 0.0159092 -0.0871585 0 0 0 0 0 -1.92121 0 0 -0.00160516 0 0 0 0.0025 
96 1 1 -0.0159897 0.0274334 -0.0870621 0 0 0 0 0 -1.92072 0 0 -0.000346714 0 0 0 0.0015 
113 1 1 -0.0275469 -0.0163611 -0.0830455 0 0 0 0 0 -1.90012 0 0 -0.000346714 0 0 0 0.0015 
114 1 1 -0.0102956 -0.00169209 -0.0835409 0 0 0 0 0 -1.90267 0 0 -0.000346714 0 0 0 0.0015 
115 1 1 -0.0161861 -0.026381 -0.0791967 0 0 0 0 0 -1.8801 0 0 -0.000346714 0 0 0 0.0015 
105 1 1 -0.00301846 -0.0111451 -0.0782714 0 0 0 0 0 -1.8753 0 0 -0.00160516 0 0 0 0.0025 
106 1 1 -0.00205293 -0.0206571 -0.0745841 0 0 0 0 0 -1.85587 0 0 -0.00160516 0 0 0 0.0025 
107 1 1 -0.0273253 -0.00441029 -0.0771346 0 0 0 0 0 -1.86931 0 0 -0.00160516 0 0 0 0.0025 
112 1 1 -0.0112712 -0.00229192 -0.0746136 0 0 0 0 0 -1.85607 0 0 -0.000346714 0 0 0 0.0015 
110 1 1 -0.0135333 0.000602269 -0.0758486 0 0 0 0 0 -1.86254 0 0 -0.000346714 0 0 0 0.0015 
103 1 1 -0.00791609 0.00384723 -0.0758429 0 0 0 0 0 -1.86254 0 0 -0.00160516 0 0 0 0.0025 
109 1 1 -2.29018e-06 0.0149512 -0.0750287 0 0 0 0 0 -1.85823 0 0 -0.000346714 0 0 0 0.0015 
111 1 1 -0.0318002 -0.0148599 -0.0716784 0 0 0 0 0 -1.84047 0 0 -0.000346714 0 0 0 0.0015 
104 1 1 -0.0192779 0.00722911 -0.0735219 0 0 0 0 0 -1.85028 0 0 -0.00160516 0 0 0 0.0025 
108 1 1 -0.0322225 0.032442 -0.0698652 0 0 0 0 0 -1.83076 0 0 -0.000346714 0 0 0 0.0015 
123 1 1 -0.0125841 -0.0111545 -0.0621318 0 0 0 0 0 -1.78887 0 0 -0.000346714 0 0 0 0.0015 
125 1 1 -0.00679321 -0.00388229 -0.0607452 0 0 0 0 0 -1.78122 0 0 -0.000346714 0 0 0 0.0015 
120 1 1 -0.0125785 -0.0210623 -0.0592127 0 0 0 0 0 -1.77278 0 0 -0.00160516 0 0 0 0.0025 
122 1 1 -0.0191843 -0.0162196 -0.0573932 0 0 0 0 0 -1.76268 0 0 -0.000346714 0 0 0 0.0015 
117 1 1 -0.0143544 -0.00143019 -0.0580631 0 0 0 0 0 -1.76641 0 0 -0.00160516 0 0 0 0.0025 
126 1 1 -0.0148309 -0.0333609 -0.0543433 0 0 0 0 0 -1.74561 0 0 -0.000346714 0 0 0 0.0015 
121 1 1 -0.0290047 0.00352617 -0.0546376 0 0 0 0 0 -1.74728 0 0 -0.000346714 0 0 0 0.0015 
127 1 1 -0.0227292 -0.0112057 -0.0521996 0 0 0 0 0 -1.73354 0 0 -0.000346714 0 0 0 0.0015 
128 1 1 -0.0208061 0.000145103 -0.0521498 0 0 0 0 0 -1.73325 0 0 -0.000346714 0 0 0 0.0015 
116 1 1 -0.0158354 0.0147935 -0.0530136 0 0 0 0 0 -1.73815 0 0 -0.00160516 0 0 0 0.0025 
124 1 1 -0.0114065 0.0295451 -0.0515981 0 0 0 0 0 -1.73011 0 0 -0.000346714 0 0 0 0.0015 
138 1 1 -0.0188235 -0.0335238 -0.0477774 0 0 0 0 0 -1.70833 0 0 -0.000346714 0 0 0 0.0015 
118 1 1 -0.00193271 -0.0127941 -0.0470279 0 0 0 0 0 -1.70401 0 0 -0.00160516 0 0 0 0.0025 
119 1 1 -0.00304704 0.0316877 -0.0481686 0 0 0 0 0 -1.71059 0 0 -0.00160516 0 0 0 0.0025 
132 1 1 -0.010147 0.00134815 -0.0425924 0 0 0 0 0 -1.67831 0 0 -0.00160516 0 0 0 0.0025 
139 1 1 -0.00401145 0.0125644 -0.0440617 0 0 0 0 0 -1.68685 0 0 -0.000346714 0 0 0 0.0015 
133 1 1 -0.0167258 0.0295222 -0.0440907 0 0 0 0 0 -1.68704 0 0 -0.000346714 0 0 0 0.0015 
131 1 1 -0.0142543 -0.0235946 -0.0414545 0 0 0 0 0 -1.67164 0 0 -0.00160516 0 0 0 0.0025 
130 1 1 -0.0316516 0.0258079 -0.0398079 0 0 0 0 0 -1.66193 0 0 -0.00160516 0 0 0 0.0025 
140 1 1 -0.0309894 0.0333632 -0.0400734 0 0 0 0 0 -1.6635 0 0 -0.000346714 0 0 0 0.0015 
137 1 1 -0.0331578 -0.0315972 -0.037223 0 0 0 0 0 -1.64663 0 0 -0.000346714 0 0 0 0.0015 
136 1 1 -0.0156127 0.0122027 -0.0371931 0 0 0 0 0 -1.64643 0 0 -0.000346714 0 0 0 0.0015 
135 1 1 -0.00584464 0.0229092 -0.0352865 0 0 0 0 0 -1.63505 0 0 -0.000346714 0 0 0 0.0015 
129 1 1 -0.0150343 -0.00254225 -0.0333312 0 0 0 0 0 -1.62328 0 0 -0.00160516 0 0 0 0.0025 
141 1 1 -0.00445669 0.0136763 -0.0339522 0 0 0 0 0 -1.62701 0 0 -0.000346714 0 0 0 0.0015 
134 1 1 -0.021642 0.0141125 -0.0347143 0 0 0 0 0 -1.63162 0 0 -0.000346714 0 0 0 0.0015 
149 1 1 -0.0237179 -0.0143876 -0.0314101 0 0 0 0 0 -1.6116 0 0 -0.000346714 0 0 0 0.0015 
153 1 1 -0.00430721 -0.0251385 -0.0274092 0 0 0 0 0 -1.58708 0 0 -0.000346714 0 0 0 0.0015 
146 1 1 -0.0337656 -0.0129184 -0.0251347 0 0 0 0 0 -1.57295 0 0 -0.000346714 0 0 0 0.0015 
152 1 1 -0.0189158 0.00679958 -0.0254516 0 0 0 0 0 -1.57492 0 0 -0.000346714 0 0 0 0.0015 
143 1 1 -0.0076982 0.0115519 -0.0273279 0 0 0 0 0 -1.58659 0 0 -0.00160516 0 0 0 0.0025 
148 1 1 -0.00630817 0.0207644 -0.0254359 0 0 0 0 0 -1.57482 0 0 -0.000346714 0 0 0 0.0015 
151 1 1 -0.00353112 0.0264703 -0.0259684 0 0 0 0 0 -1.57815 0 0 -0.000346714 0 0 0 0.0015 
142 1 1 -0.00618246 -0.0245765 -0.0214231 0 0 0 0 0 -1.54961 0 0 -0.00160516 0 0 0 0.0025 
144 1 1 -0.0192798 0.00186917 -0.0208942 0 0 0 0 0 -1.54627 0 0 -0.00160516 0 0 0 0.0025 
155 1 1 -0.0214963 -0.0266191 -0.0137009 0 0 0 0 0 -1.49997 0 0 -0.00160516 0 0 0 0.0025 
147 1 1 -0.0152079 -0.0157693 -0.0168494 0 0 0 0 0 -1.52037 0 0 -0.000346714 0 0 0 0.0015 
154 1 1 -0.00679915 -0.012878 -0.0165623 0 0 0 0 0 -1.51851 0 0 -0.000346714 0 0 0 0.0015 
150 1 1 -0.00623706 -0.0058896 -0.0170947 0 0 0 0 0 -1.52194 0 0 -0.000346714 0 0 0 0.0015 
145 1 1 -0.00240788 0.00422687 -0.0151338 0 0 0 0 0 -1.50929 0 0 -0.00160516 0 0 0 0.0025 
163 1 1 -0.0251386 0.0339743 -0.0128231 0 0 0 0 0 -1.49418 0 0 -0.000346714 0 0 0 0.0015 
165 1 1 -0.0326006 -0.0344541 -0.00754738 0 0 0 0 0 -1.45916 0 0 -0.000346714 0 0 0 0.0015 
160 1 1 -0.023692 -0.0114622 -0.00941122 0 0 0 0 0 -1.47162 0 0 -0.000346714 0 0 0 0.0015 
157 1 1 -0.00372425 -0.00768845 -0.00681086 0 0 0 0 0 -1.45415 0 0 -0.00160516 0 0 0 0.0025 
159 1 1 -0.0229207 0.0293808 -0.00841227 0 0 0 0 0 -1.46494 0 0 -0.000346714 0 0 0 0.0015 
158 1 1 -0.0239437 -0.00737998 -0.00502693 0 0 0 0 0 -1.44209 0 0 -0.00160516 0 0 0 0.0025 
162 1 1 -0.00596878 0.00110293 -0.00465409 0 0 0 0 0 -1.43954 0 0 -0.000346714 0 0 0 0.0015 
166 1 1 -0.0334498 0.0192376 -0.00294349 0 0 0 0 0 -1.42786 0 0 -0.000346714 0 0 0 0.0015 
161 1 1 -0.0310811 0.0209557 -0.00573467 0 0 0 0 0 -1.44689 0 0 -0.000346714 0 0 0 0.0015 
175 1 1 -0.00243205 -0.0275788 0.000611751 0 0 0 0 0 -1.40324 0 0 -0.000346714 0 0 0 0.0015 
176 1 1 -0.0260626 -0.0145959 -0.00040366 0 0 0 0 0 -1.4103 0 0 -0.000346714 0 0 0 0.0015 
173 1 1 -0.0280772 0.00199937 -0.0010979 0 0 0 0 0 -1.41511 0 0 -0.000346714 0 0 0 0.0015 
164 1 1 -0.0186593 0.0101406 -0.00136509 0 0 0 0 0 -1.41697 0 0 -0.000346714 0 0 0 0.0015 
156 1 1 -0.0192512 0.0203811 -0.00174658 0 0 0 0 0 -1.41962 0 0 -0.00160516 0 0 0 0.0025 
172 1 1 -0.0233162 -0.0257488 0.00111444 0 0 0 0 0 -1.39971 0 0 -0.000346714 0 0 0 0.0015 
178 1 1 -0.0228627 0.00282045 0.00342185 0 0 0 0 0 -1.38342 0 0 -0.000346714 0 0 0 0.0015 
168 1 1 -0.0175477 0.0137467 0.00226549 0 0 0 0 0 -1.39157 0 0 -0.00160516 0 0 0 0.0025 
170 1 1 -0.000114354 0.021065 0.00272645 0 0 0 0 0 -1.38833 0 0 -0.00160516 0 0 0 0.0025 
179 1 1 -0.0322154 -0.0246784 0.00735078 0 0 0 0 0 -1.35527 0 0 -0.000346714 0 0 0 0.0015 
171 1 1 -0.0180071 -0.0127461 0.00480206 0 0 0 0 0 -1.37361 0 0 -0.000346714 0 0 0 0.0015 
167 1 1 -0.0273571 -0.0103215 0.00784066 0 0 0 0 0 -1.35174 0 0 -0.00160516 0 0 0 0.0025 
177 1 1 -0.01426 -0.0150654 0.00834874 0 0 0 0 0 -1.34801 0 0 -0.000346714 0 0 0 0.0015 
174 1 1 -0.0341304 -0.00318577 0.0093842 0 0 0 0 0 -1.34046 0 0 -0.000346714 0 0 0 0.0015 
169 1 1 -0.0234861 -0.0194352 0.0134015 0 0 0 0 0 -1.31073 0 0 -0.00160516 0 0 0 0.0025 
192 1 1 -0.00264988 -0.0095541 0.014056 0 0 0 0 0 -1.30583 0 0 -0.000346714 0 0 0 0.0015 
191 1 1 -0.0200733 -0.00130471 0.0144736 0 0 0 0 0 -1.30269 0 0 -0.000346714 0 0 0 0.0015 
185 1 1 -0.0184157 0.00363086 0.0136348 0 0 0 0 0 -1.30897 0 0 -0.000346714 0 0 0 0.0015 
182 1 1 -0.00169906 -0.0346379 0.0153233 0 0 0 0 0 -1.29631 0 0 -0.00160516 0 0 0 0.0025 
186 1 1 -0.0106048 -0.00789334 0.0163774 0 0 0 0 0 -1.28827 0 0 -0.000346714 0 0 0 0.0015 
180 1 1 -0.0258257 0.0147617 0.0161169 0 0 0 0 0 -1.29023 0 0 -0.00160516 0 0 0 0.0025 
184 1 1 -0.00526421 0.027503 0.0161837 0 0 0 0 0 -1.28974 0 0 -0.000346714 0 0 0 0.0015 
183 1 1 -0.0107488 0.0329346 0.0183105 0 0 0 0 0 -1.27345 0 0 -0.00160516 0 0 0 0.0025 
181 1 1 -0.0264666 -0.025466 0.0198958 0 0 0 0 0 -1.26119 0 0 -0.00160516 0 0 0 0.0025 
190 1 1 -0.00998901 0.00893206 0.0199741 0 0 0 0 0 -1.2606 0 0 -0.000346714 0 0 0 0.0015 
188 1 1 -0.0196577 -0.024903 0.0225165 0 0 0 0 0 -1.24069 0 0 -0.000346714 0 0 0 0.0015 
200 1 1 -0.0201644 -0.0275601 0.0251414 0 0 0 0 0 -1.21969 0 0 -0.000346714 0 0 0 0.0015 
204 1 1 -0.0121862 -0.00588198 0.0259364 0 0 0 0 0 -1.21332 0 0 -0.000346714 0 0 0 0.0015 
189 1 1 -0.0134549 0.0182926 0.0246223 0 0 0 0 0 -1.22391 0 0 -0.000346714 0 0 0 0.0015 
187 1 1 -0.0249489 0.0269151 0.0231169 0 0 0 0 0 -1.23588 0 0 -0.000346714 0 0 0 0.0015 
196 1 1 -0.0173269 -0.0294256 0.0291622 0 0 0 0 0 -1.18693 0 0 -0.00160516 0 0 0 0.0025 
205 1 1 -0.00546888 -0.024539 0.0293044 0 0 0 0 0 -1.18575 0 0 -0.000346714 0 0 0 0.0015 
195 1 1 -0.00018665 -0.0192075 0.0266104 0 0 0 0 0 -1.20782 0 0 -0.00160516 0 0 0 0.0025 
198 1 1 -0.0278654 0.00172744 0.0265378 0 0 0 0 0 -1.20841 0 0 -0.000346714 0 0 0 0.0015 
193 1 1 -0.0232114 -0.0230043 0.0308627 0 0 0 0 0 -1.1728 0 0 -0.00160516 0 0 0 0.0025 
201 1 1 -0.00148336 -0.00863773 0.0323474 0 0 0 0 0 -1.16034 0 0 -0.000346714 0 0 0 0.0015 
197 1 1 -0.0244014 0.0243576 0.0302743 0 0 0 0 0 -1.17771 0 0 -0.000346714 0 0 0 0.0015 
203 1 1 -0.0317899 0.0348276 0.029976 0 0 0 0 0 -1.18016 0 0 -0.000346714 0 0 0 0.0015 
194 1 1 -0.0299737 -0.0249092 0.0347071 0 0 0 0 0 -1.14023 0 0 -0.00160516 0 0 0 0.0025 
199 1 1 -0.0209901 0.00167617 0.0344137 0 0 0 0 0 -1.14269 0 0 -0.000346714 0 0 0 0.0015 
202 1 1 -0.00237574 0.0349629 0.0334698 0 0 0 0 0 -1.15083 0 0 -0.000346714 0 0 0 0.0015 
212 1 1 -0.0118483 0.00949823 0.0382011 0 0 0 0 0 -1.10972 0 0 -0.000346714 0 0 0 0.0015 
217 1 1 -0.00525173 0.0148756 0.0395069 0 0 0 0 0 -1.09815 0 0 -0.000346714 0 0 0 0.0015 
209 1 1 -0.00795 0.0273623 0.0388404 0 0 0 0 0 -1.10404 0 0 -0.00160516 0 0 0 0.0025 
215 1 1 -0.0133438 0.0300767 0.037817 0 0 0 0 0 -1.11316 0 0 -0.000346714 0 0 0 0.0015 
216 1 1 -0.00916175 0.0316192 0.038016 0 0 0 0 0 -1.11139 0 0 -0.000346714 0 0 0 0.0015 
206 1 1 -0.0315415 -0.0266248 0.044112 0 0 0 0 0 -1.05616 0 0 -0.00160516 0 0 0 0.0025 
218 1 1 -0.0116971 -0.0149443 0.0412511 0 0 0 0 0 -1.08245 0 0 -0.000346714 0 0 0 0.0015 
207 1 1 -0.014731 -0.00384992 0.0430401 0 0 0 0 0 -1.06607 0 0 -0.00160516 0 0 0 0.0025 
211 1 1 -0.0325497 0.0284222 0.0423072 0 0 0 0 0 -1.07284 0 0 -0.000346714 0 0 0 0.0015 
214 1 1 -0.000147874 -0.0328927 0.0462469 0 0 0 0 0 -1.03615 0 0 -0.000346714 0 0 0 0.0015 
213 1 1 -0.0258692 -0.0150214 0.0458954 0 0 0 0 0 -1.03949 0 0 -0.000346714 0 0 0 0.0015 
208 1 1 -0.0313425 0.0167345 0.0443695 0 0 0 0 0 -1.05381 0 0 -0.00160516 0 0 0 0.0025 
210 1 1 -0.0220067 0.0311963 0.0443585 0 0 0 0 0 -1.05391 0 0 -0.00160516 0 0 0 0.0025 
226 1 1 -0.0256746 -0.0295973 0.0501984 0 0 0 -0 0 -1 0 0 0 0 0 0 0.0015 
219 1 1 -0.0126988 -0.0187384 0.0494301 0 0 0 0 0 -1.00554 0 0 -0.00160516 0 0 0 0.0025 
228 1 1 -0.0186146 -0.0100891 0.0501145 0 0 0 -0 0 -1 0 0 0 0 0 0 0.0015 
223 1 1 -0.0141421 0.000627184 0.0489483 0 0 0 0 0 -1.01025 0 0 -0.000346714 0 0 0 0.0015 
229 1 1 -0.0206785 0.0145985 0.0509719 0 0 0 -0 0 -1 0 0 0 0 0 0 0.0015 
227 1 1 -0.0125397 -0.025785 0.0521779 0 0 0 -0 0 -1 0 0 0 0 0 0 0.0015 
224 1 1 -0.0104339 -0.00964248 0.0515779 0 0 0 -0 0 -1 0 0 0 0 0 0 0.0015 
230 1 1 -0.0158011 0.0337207 0.0524988 0 0 0 -0 0 -1 0 0 0 0 0 0 0.0015 
225 1 1 -0.0349321 -0.00790873 0.0564308 0 0 0 -0 0 -1 0 0 0 0 0 0 0.0015 
221 1 1 -0.03004 0.0154412 0.0574813 0 0 0 -0 0 -1 0 0 0 0 0 0 0.0025 
220 1 1 -0.0245784 0.0311922 0.0580429 0 0 0 -0 0 -1 0 0 0 0 0 0 0.0025 
222 1 1 -0.00133775 0.0319388 0.0584732 0 0 0 -0 0 -1 0 0 0 0 0 0 0.0025 
