ITEM: TIMESTEP
96600
ITEM: NUMBER OF ATOMS
828
ITEM: BOX BOUNDS ff ff ff
-0.5 0.1
-0.2 0.2
-0.4 0.15
ITEM: ATOMS id type type x y z ix iy iz vx vy vz fx fy fz omegax omegay omegaz radius 
1224 1 1 -0.0155757 0.0223015 0.0559261 0 0 0 -0 0 -1 0 0 0 0 0 0 0.0025 
451 1 1 -0.458134 0.00698322 -0.399885 0 0 0 -0.934964 0.0803175 -1.80852 0 0 -0.00160516 -59.8257 -400.9 60.4403 0.0025 
359 1 1 -0.473839 0.0122213 -0.396763 0 0 0 -1.09523 -0.0489319 -1.81924 0 0 -0.00160516 21.1635 -483.502 -0.102713 0.0025 
378 1 1 -0.46154 -0.00291517 -0.39486 0 0 0 -1.01153 0.0068187 -1.79168 0 0 -0.000346714 -8.86105 -705.24 102.346 0.0015 
371 1 1 -0.473319 0.0252489 -0.39308 0 0 0 -1.1025 0.0105222 -1.79592 0 0 -0.000346714 40.6308 -788.194 -115.127 0.0015 
551 1 1 -0.477893 -0.0306677 -0.392538 0 0 0 -1.14734 0.0444999 -1.82843 0 0 -0.000346714 -98.7665 -793.386 191.721 0.0015 
448 1 1 -0.46125 -0.0167373 -0.39253 0 0 0 -0.974184 0.104446 -1.79152 0 0 -0.000346714 -126.107 -689.353 123.306 0.0015 
362 1 1 -0.46452 0.00400157 -0.391739 0 0 0 -1.05341 0.0348091 -1.78357 0 0 -0.00160516 11.4626 -453.343 -13.1632 0.0025 
491 1 1 -0.496571 0.0276569 -0.391493 0 0 0 -1.32273 0.0150375 -1.83344 0 0 -0.00160516 -50.1929 210.041 -56.7704 0.0025 
426 1 1 -0.472465 -0.0075032 -0.387322 0 0 0 -1.14216 -0.00621072 -1.77546 0 0 -0.00160516 -57.6083 -262.903 26.3945 0.0025 
405 1 1 -0.455403 0.00148036 -0.385638 0 0 0 -0.967398 0.0482419 -1.72102 0 0 -0.000346714 107.443 -409.719 87.5103 0.0015 
512 1 1 -0.481248 0.0554267 -0.386777 0 0 0 -1.06834 0.0407855 -1.79136 0 0 -0.000346714 2.51002 -469.227 -326.479 0.0015 
339 1 1 -0.461503 0.00613937 -0.383961 0 0 0 -1.04479 0.0271289 -1.82794 0 0 -0.000346714 113 -712.498 82.574 0.0015 
463 1 1 -0.473679 -0.0117137 -0.381206 0 0 0 -1.18519 0.0267423 -1.753 0 0 -0.00160516 75.3633 -157.222 -36.2256 0.0025 
312 1 1 -0.460452 0.00304317 -0.380982 0 0 0 -1.07294 0.0475015 -1.70268 0 0 -0.00160516 -8.63762 -311.264 18.6975 0.0025 
376 1 1 -0.448779 -0.0206101 -0.378169 0 0 0 -0.968354 -0.00916958 -1.71427 0 0 -0.00160516 -73.0757 -386.433 129.158 0.0025 
341 1 1 -0.462453 -0.0046691 -0.373501 0 0 0 -1.15829 -0.128014 -1.68557 0 0 -0.000346714 128.633 -835.226 -83.5223 0.0015 
490 1 1 -0.44989 -0.00234544 -0.373742 0 0 0 -0.974905 0.0616022 -1.6525 0 0 -0.00160516 34.2272 -370.674 39.8972 0.0025 
520 1 1 -0.458205 -0.0102651 -0.370336 0 0 0 -1.09883 0.0622578 -1.65835 0 0 -0.000346714 -193.299 -729.49 370.127 0.0015 
431 1 1 -0.464971 -0.0248861 -0.364409 0 0 0 -1.11995 -0.0136157 -1.60234 0 0 -0.000346714 52.9599 -800.177 16.3919 0.0015 
447 1 1 -0.440415 -0.0218783 -0.36592 0 0 0 -0.937615 -0.129012 -1.60407 0 0 -0.000346714 175.924 -687.631 -192.249 0.0015 
582 1 1 -0.457653 -0.0142069 -0.366428 0 0 0 -1.14156 0.493307 -1.92617 0 0 -0.000346714 -615.157 -855.62 343.336 0.0015 
413 1 1 -0.451738 0.00193303 -0.364916 0 0 0 -1.10895 -0.125857 -1.64781 0 0 -0.00160516 65.9759 -490.128 -24.1573 0.0025 
382 1 1 -0.448282 -0.0433265 -0.36111 0 0 0 -0.929824 0.00608847 -1.62024 0 0 -0.000346714 -116.408 -574.73 306.893 0.0015 
321 1 1 -0.440621 -0.0180469 -0.361202 0 0 0 -0.966499 -0.101784 -1.58552 0 0 -0.00160516 32.5147 -416.683 28.5463 0.0025 
338 1 1 -0.448782 -0.00669554 -0.362408 0 0 0 -1.06441 -0.0319849 -1.59733 0 0 -0.000346714 30.4368 -768.469 -17.4568 0.0015 
461 1 1 -0.449184 0.013087 -0.363018 0 0 0 -1.06785 -0.0566849 -1.61906 0 0 -0.000346714 92.089 -753.633 -104.649 0.0015 
562 1 1 -0.451234 0.0385248 -0.364267 0 0 0 -1.05938 -0.0898955 -1.72743 0 0 -0.000346714 245.656 -418.441 -640.66 0.0015 
486 1 1 -0.445523 0.0179673 -0.356684 0 0 0 -0.954917 -0.0699079 -1.55107 0 0 -0.000346714 11.0916 -685.815 28.3944 0.0015 
435 1 1 -0.430439 -0.0101114 -0.354544 0 0 0 -0.910748 -0.0178058 -1.53413 0 0 -0.000346714 -25.8779 -650.704 94.5965 0.0015 
383 1 1 -0.427743 0.000336603 -0.355555 0 0 0 -0.934502 0.0208299 -1.592 0 0 -0.000346714 -93.2888 -613.786 -145.444 0.0015 
477 1 1 -0.439203 0.00737711 -0.352604 0 0 0 -1.02028 0.0714041 -1.5368 0 0 -0.00160516 -24.404 -441.806 -15.0766 0.0025 
425 1 1 -0.428383 -0.00778895 -0.346846 0 0 0 -0.942918 -0.00216131 -1.50569 0 0 -0.00160516 -52.872 -392.452 53.4967 0.0025 
440 1 1 -0.431485 0.0061408 -0.349288 0 0 0 -1.00133 0.0557551 -1.53904 0 0 -0.00160516 66.9554 -431.482 27.8668 0.0025 
346 1 1 -0.426434 0.00642717 -0.342565 0 0 0 -0.956178 -0.0283006 -1.47267 0 0 -0.00160516 14.4138 -416.262 -5.14502 0.0025 
355 1 1 -0.415793 0.00626131 -0.344008 0 0 0 -1.00476 -0.232056 -1.66531 0 0 -0.000346714 -181.852 -560.955 -337.993 0.0015 
372 1 1 -0.432581 -0.0390925 -0.340702 0 0 0 -0.904791 -0.310049 -1.45597 0 0 -0.00160516 94.6304 -303.763 -191.052 0.0025 
428 1 1 -0.40094 -0.0176245 -0.340585 0 0 0 -0.768307 -0.0363134 -1.50953 0 0 -0.000346714 -64.6753 247.909 -68.8501 0.0015 
387 1 1 -0.428892 -0.00453332 -0.339492 0 0 0 -1.02443 -0.0211637 -1.48656 0 0 -0.00160516 31.6258 -422.115 10.476 0.0025 
458 1 1 -0.410516 -0.00724149 -0.335873 0 0 0 -0.818391 0.0357928 -1.41084 0 0 -0.000346714 -80.0544 -480.56 -32.9543 0.0015 
430 1 1 -0.40902 -0.00368434 -0.337863 0 0 0 -0.816883 0.0505891 -1.44031 0 0 -0.000346714 -205.742 -530.129 1.4084 0.0015 
515 1 1 -0.43817 -0.000482375 -0.336553 0 0 0 -1.08657 0.0358743 -1.40235 0 0 -0.00160516 -25.0595 -414.148 46.3559 0.0025 
412 1 1 -0.421441 0.0257116 -0.338461 0 0 0 -0.94313 0.0583147 -1.46504 0 0 -0.00160516 10.0061 -386.136 -98.4435 0.0025 
498 1 1 -0.424776 -0.0164012 -0.332079 0 0 0 -0.989632 0.101584 -1.41272 0 0 -0.000346714 -164.053 -660.091 233.81 0.0015 
403 1 1 -0.427412 -0.00155637 -0.333253 0 0 0 -1.04284 -0.0238046 -1.36803 0 0 -0.000346714 -6.89625 -714.321 -26.0026 0.0015 
575 1 1 -0.419699 0.0144284 -0.331288 0 0 0 -0.966114 -0.0259392 -1.39573 0 0 -0.000346714 82.1407 -681.046 -149.466 0.0015 
309 1 1 -0.42536 -0.00497683 -0.329839 0 0 0 -0.983434 0.0380191 -1.37475 0 0 -0.00160516 -41.3523 -145.265 97.5055 0.0025 
344 1 1 -0.420398 -0.00316718 -0.327626 0 0 0 -1.01532 0.0190346 -1.36297 0 0 -0.000346714 -63.4874 -709.449 86.9715 0.0015 
456 1 1 -0.419358 0.00252607 -0.328032 0 0 0 -1.00669 0.0304268 -1.37183 0 0 -0.000346714 33.7012 -715.27 -162.521 0.0015 
494 1 1 -0.41093 -0.00534857 -0.324336 0 0 0 -0.945815 -0.0217445 -1.3504 0 0 -0.000346714 -76.9005 -498.746 -149.344 0.0015 
481 1 1 -0.425982 0.00325728 -0.326187 0 0 0 -1.1291 0.0184407 -1.35245 0 0 -0.000346714 -167.953 -583.643 -23.6901 0.0015 
514 1 1 -0.423002 0.00531 -0.327065 0 0 0 -0.994182 -0.00907169 -1.35241 0 0 -0.000346714 48.3873 -696.677 -90.5783 0.0015 
476 1 1 -0.417256 0.00491838 -0.324933 0 0 0 -1.01959 0.0461538 -1.35897 0 0 -0.00160516 -25.4379 -417.735 -7.22708 0.0025 
522 1 1 -0.431722 -0.0277178 -0.323486 0 0 0 -1.21279 0.0954533 -1.42412 0 0 -0.000346714 -142.011 -839.653 201.697 0.0015 
409 1 1 -0.396251 -0.025169 -0.320823 0 0 0 -0.710079 -0.0595428 -1.28623 0 0 -0.000346714 -31.6313 -482.381 185.66 0.0015 
610 1 1 -0.398826 -0.00228573 -0.321268 0 0 0 -0.794911 -0.114655 -1.30098 0 0 -0.000346714 37.5852 -133.426 52.5814 0.0015 
450 1 1 -0.417994 0.0102265 -0.322064 0 0 0 -1.08465 -0.120889 -1.39257 0 0 -0.00160516 -28.0903 -440.842 3.06825 0.0025 
186 1 1 -0.41995 0.0148792 -0.322914 0 0 0 -1.06433 -0.0483893 -1.35393 0 0 -0.000346714 56.1084 -742.226 -63.2741 0.0015 
625 1 1 -0.427574 -0.0212063 -0.317277 0 0 0 -1.19903 0.118872 -1.34745 0 0 -0.000346714 -147.704 -847.71 152.212 0.0015 
503 1 1 -0.412273 -0.0167004 -0.316518 0 0 0 -0.988484 -0.0395338 -1.29171 0 0 -0.00160516 11.2401 -424.83 47.5859 0.0025 
543 1 1 -0.408881 -0.00863658 -0.318763 0 0 0 -0.928366 -0.0074786 -1.29983 0 0 -0.00160516 64.4467 -41.4607 24.4674 0.0025 
501 1 1 -0.427259 -0.000737652 -0.319805 0 0 0 -1.18958 -0.0259072 -1.39528 0 0 -0.000346714 1.92946 -48.8122 -24.1478 0.0015 
332 1 1 -0.408102 -0.00156843 -0.316176 0 0 0 -1.01143 0.134721 -1.31795 0 0 -0.000346714 -21.3852 -720.392 64.0636 0.0015 
471 1 1 -0.417933 -0.0208422 -0.312507 0 0 0 -1.11797 -0.0502311 -1.23859 0 0 -0.000346714 -14.6464 -737.92 119.906 0.0015 
548 1 1 -0.422365 -0.0105975 -0.311884 0 0 0 -1.23852 0.157793 -1.29571 0 0 -0.000346714 -77.6323 -915.102 -87.7637 0.0015 
464 1 1 -0.420542 -0.00511945 -0.312097 0 0 0 -1.20458 0.132445 -1.2865 0 0 -0.00160516 -76.2581 -504.949 49.3279 0.0025 
479 1 1 -0.409 -0.00386609 -0.309439 0 0 0 -1.04645 -0.00186137 -1.2357 0 0 -0.00160516 5.20515 -453.409 -10.1791 0.0025 
468 1 1 -0.412125 -0.00217293 -0.311689 0 0 0 -0.994191 0.0318521 -1.19642 0 0 -0.000346714 -64.7248 -669.351 25.0885 0.0015 
500 1 1 -0.422444 -0.00934551 -0.308457 0 0 0 -1.04789 0.0518096 -1.15137 0 0 -0.000346714 -64.5116 -608.263 -11.2878 0.0015 
404 1 1 -0.404978 -0.00929779 -0.308519 0 0 0 -1.0009 -0.0173348 -1.21594 0 0 -0.000346714 10.6967 -721.378 4.93078 0.0015 
392 1 1 -0.395301 -0.00783883 -0.308186 0 0 0 -0.870846 -0.127246 -1.20228 0 0 -0.000346714 110.468 -630.007 -41.881 0.0015 
364 1 1 -0.392455 -0.00299907 -0.307947 0 0 0 -0.869998 -0.0707019 -1.21645 0 0 -0.000346714 58.1656 -573.655 -20.3274 0.0015 
538 1 1 -0.382753 0.000642092 -0.306748 0 0 0 -0.678602 -0.0657083 -1.16787 0 0 -0.000346714 57.2682 -477.303 -27.3687 0.0015 
483 1 1 -0.430111 0.00434099 -0.308566 0 0 0 -1.21809 -0.29344 -1.18577 0 0 -0.000346714 143.615 -643.505 -260.317 0.0015 
453 1 1 -0.397753 0.00556566 -0.305438 0 0 0 -0.925526 -0.0277776 -1.19711 0 0 -0.00160516 12.1421 -387.215 -9.69616 0.0025 
595 1 1 -0.415837 0.0191769 -0.307931 0 0 0 -1.19325 -0.168008 -1.29581 0 0 -0.000346714 140.706 -890.276 -35.1252 0.0015 
508 1 1 -0.415679 -0.0213473 -0.303657 0 0 0 -1.21377 0.104884 -1.23692 0 0 -0.000346714 -89.0893 -892.783 37.5587 0.0015 
380 1 1 -0.398792 0.0129689 -0.302657 0 0 0 -0.989533 0.0122794 -1.1737 0 0 -0.000346714 -25.8166 -667.531 -20.071 0.0015 
546 1 1 -0.415286 0.0156847 -0.301325 0 0 0 -1.07086 -0.0893055 -1.08719 0 0 -0.000346714 -18.5611 -613.624 -248.205 0.0015 
564 1 1 -0.402789 0.0185109 -0.304533 0 0 0 -1.00376 0.0889197 -1.20741 0 0 -0.000346714 -288.652 143.706 -171.373 0.0015 
511 1 1 -0.391882 0.0194883 -0.305944 0 0 0 -0.965111 -0.0587477 -1.34701 0 0 -0.000346714 -135.731 -417.331 -184.459 0.0015 
530 1 1 -0.41972 0.0459239 -0.302673 0 0 0 -1.05335 -0.112137 -1.32048 0 0 -0.00160516 94.429 -482.257 -94.3006 0.0025 
437 1 1 -0.400967 -0.012786 -0.301325 0 0 0 -1.01737 -0.0965789 -1.16424 0 0 -0.00160516 27.3189 -438.166 35.6543 0.0025 
560 1 1 -0.379335 0.00134051 -0.301267 0 0 0 -0.759473 0.0253361 -1.17586 0 0 -0.000346714 60.5115 -122.495 33.5742 0.0015 
519 1 1 -0.394297 0.00895592 -0.301423 0 0 0 -0.929021 -0.00105651 -1.15384 0 0 -0.000346714 -6.00766 -642.737 -91.4693 0.0015 
509 1 1 -0.396217 -0.0224522 -0.294606 0 0 0 -1.02111 -0.0515175 -1.10801 0 0 -0.000346714 24.1742 -733.074 38.7757 0.0015 
553 1 1 -0.385468 -0.00384572 -0.295051 0 0 0 -0.888491 -0.0294692 -1.13504 0 0 -0.00160516 -13.3761 -184.023 26.8056 0.0025 
510 1 1 -0.372387 0.00678037 -0.298926 0 0 0 -0.713332 -0.224122 -1.33177 0 0 -0.000346714 -99.7704 -389.161 -430.887 0.0015 
466 1 1 -0.395822 0.01236 -0.29795 0 0 0 -0.992795 0.00378608 -1.14313 0 0 -0.00160516 9.46458 -430.672 -26.1576 0.0025 
545 1 1 -0.390419 0.0142092 -0.295234 0 0 0 -0.937516 -0.0323264 -1.10935 0 0 -0.000346714 85.9919 -660.636 -147.106 0.0015 
583 1 1 -0.407003 0.0250622 -0.298421 0 0 0 -1.14863 -0.179534 -1.229 0 0 -0.000346714 144.955 -860.765 -24.38 0.0015 
444 1 1 -0.392518 -0.018275 -0.293848 0 0 0 -0.965251 -0.0344342 -1.0876 0 0 -0.000346714 28.4453 -705.178 -4.91761 0.0015 
446 1 1 -0.384383 -0.0153027 -0.292843 0 0 0 -0.945511 -0.00407781 -1.14939 0 0 -0.000346714 -27.6195 -498.1 177.241 0.0015 
516 1 1 -0.385018 -0.0112675 -0.290798 0 0 0 -0.912526 0.0013639 -1.07934 0 0 -0.00160516 17.6761 -312.323 46.9575 0.0025 
540 1 1 -0.388762 -0.00847506 -0.294153 0 0 0 -0.905929 0.0232747 -1.09379 0 0 -0.00160516 -22.7325 -376.074 41.6289 0.0025 
497 1 1 -0.385222 -0.00731578 -0.291556 0 0 0 -0.91315 0.00159705 -1.08088 0 0 -0.000346714 -1.38313 -613.962 34.1168 0.0015 
472 1 1 -0.382117 -0.00677383 -0.291252 0 0 0 -0.877753 -0.0575088 -1.05666 0 0 -0.000346714 -118.711 -412.587 -51.9728 0.0015 
539 1 1 -0.377728 -0.00156483 -0.293805 0 0 0 -0.97321 0.0448791 -1.20205 0 0 -0.000346714 -52.671 -322.833 -176.084 0.0015 
460 1 1 -0.381117 0.00429182 -0.294022 0 0 0 -0.829201 -0.00339251 -1.08544 0 0 -0.000346714 53.5876 -497.951 35.7279 0.0015 
485 1 1 -0.387097 0.0103174 -0.294499 0 0 0 -0.938132 0.0101532 -1.13773 0 0 -0.000346714 -56.2946 -600.039 -77.0525 0.0015 
505 1 1 -0.379685 0.00807226 -0.291577 0 0 0 -0.903713 -0.009677 -1.14983 0 0 -0.00160516 -70.9498 -260.397 -35.1092 0.0025 
475 1 1 -0.387511 0.0138035 -0.29356 0 0 0 -0.946994 -0.0200628 -1.11612 0 0 -0.000346714 50.1846 -629.783 39.7158 0.0015 
506 1 1 -0.384641 0.0116054 -0.290849 0 0 0 -0.923586 -0.0119317 -1.0435 0 0 -0.000346714 11.789 -507.02 -30.0873 0.0015 
470 1 1 -0.383111 0.0178868 -0.29394 0 0 0 -0.909957 0.0177607 -1.1294 0 0 -0.000346714 48.2428 -441.472 -48.5628 0.0015 
529 1 1 -0.394271 -0.017832 -0.289739 0 0 0 -1.06732 0.038721 -1.08776 0 0 -0.00160516 -32.6898 -456.477 38.2129 0.0025 
484 1 1 -0.383911 -0.000682386 -0.290288 0 0 0 -0.899105 -0.0405899 -1.05765 0 0 -0.000346714 29.3985 -432.979 41.8983 0.0015 
568 1 1 -0.392991 0.00207385 -0.289103 0 0 0 -1.05653 0.0641904 -1.11474 0 0 -0.00160516 -73.7303 -140.862 49.7518 0.0025 
594 1 1 -0.38221 0.00254772 -0.288209 0 0 0 -0.969602 -0.0240802 -1.07549 0 0 -0.00160516 -13.67 461.463 -20.3609 0.0025 
496 1 1 -0.385672 0.0148057 -0.288101 0 0 0 -0.992789 0.0338566 -1.07397 0 0 -0.000346714 8.08891 54.8491 46.9728 0.0015 
493 1 1 -0.398117 0.0200081 -0.289212 0 0 0 -1.12139 -0.087067 -1.08487 0 0 -0.00160516 42.9942 -472.278 -29.3615 0.0025 
534 1 1 -0.395983 0.025064 -0.29083 0 0 0 -1.10336 -0.0785241 -1.13561 0 0 -0.000346714 66.0528 -750.069 -209.445 0.0015 
561 1 1 -0.388681 -0.0204917 -0.286531 0 0 0 -1.04191 -0.0138427 -1.04433 0 0 -0.000346714 -35.1529 -712.929 110.468 0.0015 
416 1 1 -0.383265 -0.00337853 -0.284607 0 0 0 -1.00671 -0.0561609 -0.996666 0 0 -0.000346714 9.08693 -700.611 51.5916 0.0015 
432 1 1 -0.389858 0.00481768 -0.285824 0 0 0 -1.07879 -0.240142 -1.07843 0 0 -0.000346714 59.3084 -495.738 70.116 0.0015 
528 1 1 -0.396887 0.00938858 -0.285351 0 0 0 -1.27824 -0.216542 -1.07848 0 0 -0.00160516 157.554 -503.72 -65.3646 0.0025 
623 1 1 -0.379851 0.0157948 -0.283667 0 0 0 -0.978815 -0.0235671 -1.04685 0 0 -0.000346714 77.6996 -398.914 -54.8028 0.0015 
422 1 1 -0.387795 0.0281579 -0.284314 0 0 0 -1.04757 0.0531537 -1.03286 0 0 -0.000346714 -74.7391 -786.46 82.2933 0.0015 
482 1 1 -0.378128 -0.0232275 -0.283128 0 0 0 -0.962647 -0.161678 -1.03581 0 0 -0.000346714 182.541 -586.036 103.655 0.0015 
415 1 1 -0.388694 -0.0147212 -0.279612 0 0 0 -1.08422 0.0209786 -0.908275 0 0 -0.000346714 -23.7506 -654.773 121.337 0.0015 
492 1 1 -0.383461 -0.00876414 -0.280675 0 0 0 -1.07618 -0.0144346 -1.01557 0 0 -0.00160516 8.85045 -389.047 14.9486 0.0025 
473 1 1 -0.387355 -0.00582827 -0.282636 0 0 0 -1.03011 -0.0855862 -0.952746 0 0 -0.000346714 -20.2064 -551.482 24.2654 0.0015 
443 1 1 -0.37261 -0.00603747 -0.282504 0 0 0 -0.781489 0.0138561 -0.951055 0 0 -0.000346714 -22.7166 -389.378 -31.0628 0.0015 
400 1 1 -0.382624 0.00398075 -0.280015 0 0 0 -1.04941 0.0632574 -0.977809 0 0 -0.00160516 -60.5061 -430.755 -52.5182 0.0025 
418 1 1 -0.378716 0.00530002 -0.279907 0 0 0 -1.00879 0.00993428 -0.950946 0 0 -0.000346714 -3.14977 -721.723 -19.9891 0.0015 
455 1 1 -0.370452 0.00744858 -0.281361 0 0 0 -0.820552 -0.0357062 -0.970961 0 0 -0.000346714 11.3852 -521.431 -32.7636 0.0015 
531 1 1 -0.38418 0.0134517 -0.283105 0 0 0 -1.03734 0.00242891 -1.01377 0 0 -0.00160516 -46.1424 -291.609 -63.7058 0.0025 
590 1 1 -0.383226 -0.019326 -0.276474 0 0 0 -1.17589 -0.102399 -0.938447 0 0 -0.000346714 88.5754 -858.324 -28.8445 0.0015 
581 1 1 -0.381159 -0.00463696 -0.276322 0 0 0 -1.09266 -0.0104414 -0.924892 0 0 -0.00160516 -9.70984 -448.518 31.3854 0.0025 
469 1 1 -0.384966 0.000577913 -0.27797 0 0 0 -0.943965 -0.0371211 -0.897946 0 0 -0.000346714 -98.2679 -269.498 -120.976 0.0015 
478 1 1 -0.372592 0.00105215 -0.277138 0 0 0 -1.04661 -0.04786 -1.07021 0 0 -0.00160516 -15.0048 -408.357 -19.0425 0.0025 
635 1 1 -0.36876 0.00522327 -0.277256 0 0 0 -1.06366 -0.0126987 -1.02894 0 0 -0.000346714 107.228 -500.771 113.493 0.0015 
526 1 1 -0.379649 0.0123832 -0.278427 0 0 0 -1.10445 -0.107788 -0.989973 0 0 -0.000346714 131.631 -787.721 -124.278 0.0015 
489 1 1 -0.383029 0.0149331 -0.277799 0 0 0 -1.0929 -0.0901124 -0.98977 0 0 -0.00160516 29.3352 -376.018 -99.5181 0.0025 
517 1 1 -0.380064 -0.0122749 -0.274475 0 0 0 -1.18499 0.11256 -0.962664 0 0 -0.00160516 -44.7463 -518.45 -9.16818 0.0025 
688 1 1 -0.395861 0.010232 -0.272971 0 0 0 -1.2431 0.154214 -0.819727 0 0 -0.000346714 -174.398 -642.826 -240.235 0.0015 
552 1 1 -0.379699 0.0083741 -0.275284 0 0 0 -1.02997 -0.106434 -0.912141 0 0 -0.00160516 47.3817 -356.78 17.4246 0.0025 
574 1 1 -0.370678 0.00839881 -0.27256 0 0 0 -1.08333 -0.00352607 -0.915412 0 0 -0.000346714 104.06 -752.952 -102.079 0.0015 
596 1 1 -0.375245 0.0170177 -0.276189 0 0 0 -1.06591 -0.0251093 -1.00315 0 0 -0.000346714 166.314 -732.922 -35.1579 0.0015 
619 1 1 -0.371217 0.0145489 -0.272385 0 0 0 -0.964323 0.0211212 -0.879357 0 0 -0.00160516 -37.932 -431.006 73.4627 0.0025 
597 1 1 -0.379283 0.0180348 -0.275405 0 0 0 -1.07253 -0.0694916 -0.918023 0 0 -0.000346714 25.0161 -734.716 -31.0606 0.0015 
507 1 1 -0.3721 -0.0187129 -0.271391 0 0 0 -1.12992 -0.175639 -0.89726 0 0 -0.000346714 47.7868 -819.478 154.463 0.0015 
544 1 1 -0.370289 -0.0125261 -0.269704 0 0 0 -1.12275 -0.122507 -0.867568 0 0 -0.000346714 99.1141 -811.09 -25.4113 0.0015 
643 1 1 -0.382321 -0.00902045 -0.269402 0 0 0 -1.36905 -0.273226 -0.9374 0 0 -0.00160516 156.617 -23.2277 112.737 0.0025 
632 1 1 -0.377378 8.69921e-05 -0.269664 0 0 0 -1.28442 -0.180507 -0.937887 0 0 -0.00160516 79.6354 294.497 -1.43877 0.0025 
655 1 1 -0.368716 -0.0159216 -0.267045 0 0 0 -1.0993 0.0252176 -0.863066 0 0 -0.00160516 -43.5516 -463.976 82.9017 0.0025 
627 1 1 -0.361135 -0.00294888 -0.265507 0 0 0 -1.04934 -0.102819 -0.81685 0 0 -0.000346714 109.886 -756.266 -82.3642 0.0015 
572 1 1 -0.363795 0.00798189 -0.268277 0 0 0 -0.973898 -0.274584 -0.874643 0 0 -0.000346714 341.306 -652.008 -327.267 0.0015 
474 1 1 -0.354744 0.0129776 -0.265289 0 0 0 -0.914035 0.0525483 -0.880292 0 0 -0.000346714 39.6005 -295.729 -290.498 0.0015 
692 1 1 -0.367292 -0.0276391 -0.264718 0 0 0 -1.19655 0.279236 -0.995496 0 0 -0.000346714 -325.591 -786.352 302.239 0.0015 
537 1 1 -0.356942 -0.00299102 -0.262486 0 0 0 -1.03572 -0.137175 -0.778141 0 0 -0.000346714 124.822 -747.881 -58.9414 0.0015 
499 1 1 -0.359167 -0.000462495 -0.263982 0 0 0 -1.03554 -0.127409 -0.797982 0 0 -0.000346714 90.8386 -751.771 3.72947 0.0015 
433 1 1 -0.351705 0.00527239 -0.261848 0 0 0 -0.911591 -0.111532 -0.792711 0 0 -0.000346714 200.832 -502.414 -56.6582 0.0015 
547 1 1 -0.352141 0.00718942 -0.264504 0 0 0 -0.814253 -0.0160368 -0.81139 0 0 -0.000346714 -297.231 -501.749 73.0174 0.0015 
605 1 1 -0.35877 -0.0207136 -0.258552 0 0 0 -1.21331 0.218857 -0.861366 0 0 -0.00160516 -108.387 -546.635 26.6645 0.0025 
417 1 1 -0.351279 0.00367506 -0.257678 0 0 0 -0.986023 -0.124981 -0.697827 0 0 -0.000346714 201.72 -538.296 -114.993 0.0015 
550 1 1 -0.347875 0.00475658 -0.256962 0 0 0 -0.952818 -0.0309636 -0.70684 0 0 -0.000346714 106.881 -604.691 146.899 0.0015 
525 1 1 -0.352881 0.00791246 -0.258788 0 0 0 -0.944229 -0.138791 -0.69154 0 0 -0.000346714 56.2525 -493.994 53.3761 0.0015 
495 1 1 -0.354709 0.0206065 -0.258785 0 0 0 -0.968308 0.0484354 -0.723949 0 0 -0.000346714 -39.5552 -715.742 8.0647 0.0015 
624 1 1 -0.353067 -0.015139 -0.256678 0 0 0 -1.10793 0.0747657 -0.722138 0 0 -0.000346714 -133.615 -768.781 198.845 0.0015 
536 1 1 -0.349983 -0.000211722 -0.255606 0 0 0 -1.09744 -0.126268 -0.665871 0 0 -0.000346714 188.679 -764.845 -147.719 0.0015 
615 1 1 -0.345353 0.0095724 -0.254539 0 0 0 -1.02572 -0.0780875 -0.707399 0 0 -0.000346714 -20.3954 -725.749 -56.9523 0.0015 
592 1 1 -0.353274 0.0125969 -0.255876 0 0 0 -1.08215 -0.0135944 -0.710692 0 0 -0.00160516 -15.8308 -370.427 -20.3929 0.0025 
563 1 1 -0.348247 0.0105226 -0.254694 0 0 0 -1.05364 -0.104806 -0.758137 0 0 -0.000346714 -13.1238 -567.214 -7.8372 0.0015 
442 1 1 -0.350154 0.0155314 -0.254842 0 0 0 -1.065 0.0212521 -0.626975 0 0 -0.000346714 -66.9242 -730.332 8.08138 0.0015 
427 1 1 -0.374265 0.0186862 -0.253713 0 0 0 -1.13748 0.05408 -0.734439 0 0 -0.00160516 -176.871 -8.04794 -112.527 0.0025 
626 1 1 -0.354443 0.0221633 -0.256031 0 0 0 -1.22882 -0.377376 -0.871187 0 0 -0.000346714 421.918 -814.673 -332.561 0.0015 
518 1 1 -0.345997 -0.00745869 -0.251584 0 0 0 -1.29201 0.126169 -0.703295 0 0 -0.00160516 -55.7519 -555.659 4.01594 0.0025 
462 1 1 -0.341317 -0.00367537 -0.251136 0 0 0 -1.05884 0.0376814 -0.609701 0 0 -0.000346714 -42.5366 -761.073 37.7785 0.0015 
556 1 1 -0.341775 0.000572011 -0.250916 0 0 0 -1.03365 -0.0203858 -0.623931 0 0 -0.00160516 32.0678 -446.826 -53.9858 0.0025 
656 1 1 -0.344485 0.00552549 -0.252047 0 0 0 -1.08187 -0.0208242 -0.659575 0 0 -0.00160516 -4.63847 -473.381 31.3243 0.0025 
667 1 1 -0.341641 0.00940474 -0.25008 0 0 0 -1.08414 -0.021722 -0.633457 0 0 -0.00160516 11.181 -472.107 -4.33677 0.0025 
606 1 1 -0.346828 0.0135002 -0.252131 0 0 0 -1.17075 -0.0358113 -0.669476 0 0 -0.00160516 40.3683 -485.249 -77.7652 0.0025 
612 1 1 -0.336284 -0.0163567 -0.246735 0 0 0 -1.23786 0.33606 -0.666003 0 0 -0.000346714 -358.355 -849.502 280.317 0.0015 
541 1 1 -0.333184 -0.00143913 -0.245816 0 0 0 -1.02003 0.00130947 -0.515901 0 0 -0.00160516 2.84008 -441.321 -8.12709 0.0025 
601 1 1 -0.336025 0.00454499 -0.24851 0 0 0 -1.00575 0.0164863 -0.560585 0 0 -0.000346714 -34.973 -733.235 53.1942 0.0015 
634 1 1 -0.334664 0.00742652 -0.24769 0 0 0 -1.02235 0.02448 -0.604726 0 0 -0.000346714 32.8948 -641.342 -94.9991 0.0015 
521 1 1 -0.332097 0.00722633 -0.246054 0 0 0 -1.05269 0.0169367 -0.485088 0 0 -0.000346714 10.8753 -724.759 -61.1923 0.0015 
504 1 1 -0.325048 -0.00846818 -0.241577 0 0 0 -0.999218 0.0380312 -0.433058 0 0 -0.00160516 -20.5155 -431.993 10.0323 0.0025 
576 1 1 -0.32204 7.1058e-05 -0.241933 0 0 0 -0.999752 0.0267731 -0.421441 0.000745958 0.0001262 -0.00199356 2.84197 -721.989 -52.5678 0.0015 
566 1 1 -0.326872 0.0100898 -0.242338 0 0 0 -1.06735 0.0536032 -0.488368 0 0 -0.00160516 -11.4965 -463.171 -28.0103 0.0025 
588 1 1 -0.322552 0.00888235 -0.241578 0 0 0 -1.04584 0.121361 -0.448818 0 0 -0.000346714 -84.9477 -751.939 -9.85606 0.0015 
570 1 1 -0.323709 -0.016571 -0.241087 0 0 0 -1.04786 -0.0779636 -0.420929 0 0 -0.000346714 63.237 -760.846 -9.51344 0.0015 
707 1 1 -0.319592 -0.0138722 -0.238811 0 0 0 -0.964318 0.182614 -0.444646 0.000219963 -7.70803e-05 -0.00176153 -88.6794 -421.211 19.4159 0.0025 
523 1 1 -0.313341 -0.00769582 -0.237946 0 0 0 -0.836511 -0.0272277 -0.334963 -0.00011801 1.79928e-05 2.71815e-05 -20.0026 -596.435 98.3257 0.0015 
542 1 1 -0.319101 0.00134155 -0.239529 0 0 0 -1.00024 0.0300744 -0.419672 -0.000405279 -6.08824e-05 -0.000185119 -8.17182 -434.5 -11.6625 0.0025 
480 1 1 -0.323768 0.0036584 -0.241361 0 0 0 -1.01605 0.0206287 -0.442539 0 0 -0.00160516 -12.0001 -443.141 6.48452 0.0025 
653 1 1 -0.316491 0.00550273 -0.23925 0 0 0 -0.951477 0.0211737 -0.399904 -9.21013e-05 -1.39669e-05 -2.6159e-05 -13.0767 -689.616 -5.37841 0.0015 
573 1 1 -0.31485 0.00848101 -0.238275 0 0 0 -0.913924 0.087399 -0.386831 0 0 -0.000346714 -57.5609 -649.85 -18.2042 0.0015 
675 1 1 -0.316668 -0.0214771 -0.237326 0 0 0 -1.14475 -0.00641547 -0.478957 0 0 -0.000346714 -1.33394 -836.361 34.6576 0.0015 
558 1 1 -0.315501 -0.0147646 -0.237917 0 0 0 -1.06873 0.0501262 -0.475965 0 0 -0.000346714 -31.3346 -776.293 -10.9264 0.0015 
639 1 1 -0.312894 -0.0109237 -0.237331 0 0 0 -1.04571 0.0575725 -0.446629 0 0 -0.000346714 -21.4638 -764.775 -48.1274 0.0015 
598 1 1 -0.307898 -0.00613571 -0.235753 0 0 0 -0.80133 -0.00285953 -0.33778 -8.85357e-05 7.45786e-06 -3.76075e-05 -14.1435 -579.017 38.4551 0.0015 
602 1 1 -0.309534 -0.00147155 -0.236611 0 0 0 -0.981758 0.116524 -0.414405 -0.000450842 3.66689e-05 0.000480591 -73.9822 -713.388 -24.9935 0.0015 
445 1 1 -0.312308 0.00419048 -0.237571 0 0 0 -1.05475 -0.0406203 -0.446544 -8.4579e-05 -1.26755e-05 -4.52092e-05 63.0903 -759.566 -79.9337 0.0015 
584 1 1 -0.306725 0.00522714 -0.235154 0 0 0 -1.03417 0.0496526 -0.432747 -8.79141e-05 -1.30931e-05 -3.93487e-05 -32.9207 -749.37 -7.31052 0.0015 
637 1 1 -0.314085 0.0145626 -0.237479 0 0 0 -1.04385 -0.0383208 -0.444044 -8.9959e-05 -4.19632e-05 -3.41601e-05 26.1934 -767.793 4.67219 0.0015 
660 1 1 -0.313928 0.0199424 -0.236287 0 0 0 -0.966006 -0.0974564 -0.425836 0 0 -0.000346714 -78.5737 -665.545 -20.2725 0.0015 
672 1 1 -0.314653 0.0231729 -0.235367 0 0 0 -1.17149 -0.0261109 -0.388769 0 0 -0.000346714 2.29853 -828.32 -170.353 0.0015 
638 1 1 -0.304036 -0.0207687 -0.232082 0 0 0 -1.0262 -0.150908 -0.409133 0 0 -0.000346714 1.3361 -692.079 273.129 0.0015 
587 1 1 -0.302503 -0.00668564 -0.233459 0 0 0 -0.9037 0.00557776 -0.381305 -8.73841e-05 7.38518e-06 -3.92127e-05 -22.6546 -652.967 44.1443 0.0015 
603 1 1 -0.299556 -0.00171969 -0.232388 0 0 0 -1.06007 -0.0743292 -0.445063 -8.26595e-05 6.94172e-06 -5.02885e-05 24.989 -765.528 68.334 0.0015 
714 1 1 -0.302959 0.00216064 -0.233759 0 0 0 -0.983674 0.0674443 -0.410375 -9.01175e-05 -1.34669e-05 -3.37987e-05 -128.961 -725.174 189.948 0.0015 
646 1 1 -0.307945 0.0138142 -0.233962 0 0 0 -1.01757 -0.0877229 -0.44158 -0.000394722 -0.000184052 -0.00019969 32.3805 -451.332 15.0437 0.0025 
654 1 1 -0.305276 0.0223272 -0.23229 0 0 0 -0.961425 -0.146625 -0.429878 -8.5275e-05 -3.9784e-05 -4.32738e-05 84.5734 -716.821 55.3488 0.0015 
629 1 1 -0.315365 0.0297299 -0.233428 0 0 0 -0.964094 -0.0358957 -0.405952 -0.000398751 -0.000336209 -0.000178903 76.5686 -386.67 -147.632 0.0025 
649 1 1 -0.3234 0.0407154 -0.233625 0 0 0 -1.16428 -0.355942 -0.636064 -6.80063e-05 -9.23909e-05 -7.23949e-05 326.703 -867.962 -112.31 0.0015 
666 1 1 -0.30045 -0.0234792 -0.230014 0 0 0 -1.08909 -0.0154196 -0.425694 -8.08349e-05 4.43125e-05 -4.23153e-05 -21.0703 -778.638 82.1101 0.0015 
559 1 1 -0.2902 -0.0130398 -0.227668 0 0 0 -1.05726 0.0360331 -0.448653 -8.8586e-05 2.28253e-05 -3.85574e-05 -29.6913 -768.004 8.29646 0.0015 
535 1 1 -0.28929 -0.00167821 -0.228057 0 0 0 -1.03907 -0.0254033 -0.437727 -8.92998e-05 7.18902e-06 -3.72744e-05 31.0496 -753.689 -29.9564 0.0015 
533 1 1 -0.294777 0.00153985 -0.230349 0 0 0 -1.02407 -0.0213641 -0.432959 -8.82277e-05 -1.3274e-05 -3.82031e-05 14.9411 -742.605 1.30366 0.0015 
593 1 1 -0.296464 0.00514686 -0.229747 0 0 0 -1.05453 -0.0417853 -0.447093 -0.000416677 -6.26938e-05 -0.000158319 29.0311 -457.239 -25.7399 0.0025 
611 1 1 -0.289566 0.00495338 -0.227935 0 0 0 -1.0318 -0.105503 -0.442415 -8.64913e-05 -1.31146e-05 -4.44597e-05 92.2098 -745.975 -37.1544 0.0015 
633 1 1 -0.296839 0.0196452 -0.229293 0 0 0 -1.03496 -0.117666 -0.454774 -8.52556e-05 -4.06977e-05 -3.41575e-05 151.176 -729.754 -155.282 0.0015 
685 1 1 -0.297523 0.0244648 -0.228639 0 0 0 -0.901412 0.00300187 -0.370475 4.61029e-05 2.66759e-05 -0.000446119 0.270568 -659.035 -7.69702 0.0015 
621 1 1 -0.306741 0.040368 -0.227276 0 0 0 -0.942964 0.055782 -0.351697 -7.09406e-05 -9.0958e-05 -6.68295e-05 24.2618 -663.074 -170.096 0.0015 
555 1 1 -0.287551 -0.00838235 -0.225973 0 0 0 -1.07887 0.0541277 -0.459511 -0.000443564 0.000112711 -7.42281e-05 -24.419 -470.639 1.87844 0.0025 
730 1 1 -0.285878 0.00370447 -0.22585 0 0 0 -0.877157 0.0227037 -0.40961 0 0 -0.000346714 27.8034 -268.476 -115.909 0.0015 
549 1 1 -0.281918 0.00653689 -0.224607 0 0 0 -0.963025 -0.0259724 -0.4104 -6.15874e-05 -1.08955e-05 -1.55724e-06 47.0065 -694.565 -66.6099 0.0015 
607 1 1 -0.284401 0.0112862 -0.224274 0 0 0 -1.02096 -0.0114248 -0.422098 -0.00040279 -5.53225e-05 -0.000170425 23.4877 -440.199 -44.8968 0.0025 
735 1 1 -0.305848 0.0171477 -0.228273 0 0 0 -1.19955 0.077476 -0.90841 0 0 -0.00160516 -183.614 179.846 -50.0525 0.0025 
585 1 1 -0.287047 0.0221497 -0.224799 0 0 0 -1.00208 -0.0235363 -0.415506 -4.22278e-05 -2.30178e-05 -5.08826e-05 26.9776 -728.384 -23.3659 0.0015 
716 1 1 -0.302578 -0.0427231 -0.224663 0 0 0 -1.19827 0.246447 -0.606932 -0.000749557 0.000774001 0.000638596 -248.897 -890.216 126.498 0.0015 
567 1 1 -0.28694 -0.0336487 -0.220629 0 0 0 -1.05147 0.0588671 -0.422455 -0.000288438 0.000220755 -0.000415008 -53.8167 -446.863 71.7642 0.0025 
705 1 1 -0.279553 -0.0158964 -0.222883 0 0 0 -1.01911 0.103066 -0.439249 -7.46802e-05 1.91894e-05 -7.17326e-05 -133.474 -725.782 139.341 0.0015 
513 1 1 -0.274398 -0.0143145 -0.220893 0 0 0 -1.03159 0.492484 -0.482567 -0.000275932 5.71006e-05 0.000396368 -397.618 -739.606 95.7049 0.0015 
554 1 1 -0.282666 -0.00953077 -0.223798 0 0 0 -1.04185 -0.0620246 -0.432156 -0.00177571 0.000476113 0.00267195 3.58668 -451.002 54.7635 0.0025 
616 1 1 -0.271386 -0.00147081 -0.220517 0 0 0 -0.937684 -0.00386348 -0.393614 -9.03206e-05 7.19188e-06 -3.17359e-05 -15.9852 -677.19 44.7304 0.0015 
745 1 1 -0.2816 0.00244549 -0.22365 0 0 0 -1.02243 0.148257 -0.440415 0.000178039 0.000412799 0.0028534 -172.959 -14.0079 -120.531 0.0025 
630 1 1 -0.275125 0.000170466 -0.22106 0 0 0 -0.973566 -0.0505594 -0.407243 -0.00091893 8.27941e-05 0.00100954 7.18185 -421.131 35.2402 0.0025 
580 1 1 -0.278449 0.00625624 -0.221949 0 0 0 -0.912599 0.0971042 -0.376583 0 0 -0.00160516 -27.5067 -376.054 -49.9939 0.0025 
614 1 1 -0.280934 0.0141775 -0.223657 0 0 0 -0.978414 -0.039497 -0.425685 -9.11152e-05 -3.82973e-05 -3.4968e-05 26.3987 -720.581 6.18908 0.0015 
571 1 1 -0.284046 0.0230744 -0.2233 0 0 0 -0.927558 -0.09075 -0.476808 0 0 -0.000346714 87.4631 -566.175 -186.729 0.0015 
682 1 1 -0.289597 0.0334175 -0.221697 0 0 0 -0.857042 0.0173593 -0.336941 8.80958e-05 -0.000150096 1.33982e-05 9.00115 -354.254 -55.1699 0.0025 