ITEM: TIMESTEP
5200
ITEM: NUMBER OF ATOMS
76
ITEM: BOX BOUNDS ff ff ff
-0.5 0.1
-0.2 0.2
-0.4 0.15
ITEM: ATOMS id type type x y z ix iy iz vx vy vz fx fy fz omegax omegay omegaz radius 
1 1 1 -0.00174714 -0.029557 -0.00814497 0 0 0 0 0 -1.46318 0 0 -0.00160516 0 0 0 0.0025 
2 1 1 -0.0346734 -0.00599195 -0.00850535 0 0 0 0 0 -1.46553 0 0 -0.00160516 0 0 0 0.0025 
12 1 1 -0.00894204 -0.00172108 -0.0105738 0 0 0 0 0 -1.47937 0 0 -0.000346714 0 0 0 0.0015 
5 1 1 -0.0106535 0.00311808 -0.0101626 0 0 0 0 0 -1.47662 0 0 -0.000346714 0 0 0 0.0015 
11 1 1 -0.0241534 0.031784 -0.00964575 0 0 0 0 0 -1.47319 0 0 -0.000346714 0 0 0 0.0015 
8 1 1 -0.00953586 -0.0287916 -0.00369055 0 0 0 0 0 -1.43296 0 0 -0.000346714 0 0 0 0.0015 
4 1 1 -0.0255875 0.0216478 -0.00643194 0 0 0 0 0 -1.4516 0 0 -0.00160516 0 0 0 0.0025 
7 1 1 -0.00462371 -0.0298822 -0.000861315 0 0 0 0 0 -1.41344 0 0 -0.000346714 0 0 0 0.0015 
10 1 1 -0.0270088 -0.00882918 -0.00100113 0 0 0 0 0 -1.41442 0 0 -0.000346714 0 0 0 0.0015 
24 1 1 -0.0202974 -0.0206343 0.00336234 0 0 0 0 0 -1.38382 0 0 -0.000346714 0 0 0 0.0015 
3 1 1 -0.0134792 0.0074157 0.000369546 0 0 0 0 0 -1.40491 0 0 -0.00160516 0 0 0 0.0025 
6 1 1 -0.0266102 0.013684 0.000342281 0 0 0 0 0 -1.4051 0 0 -0.000346714 0 0 0 0.0015 
25 1 1 -0.00857183 0.0107813 0.00160298 0 0 0 0 0 -1.39627 0 0 -0.000346714 0 0 0 0.0015 
16 1 1 -0.00408721 0.01129 0.00339617 0 0 0 0 0 -1.38362 0 0 -0.00160516 0 0 0 0.0025 
9 1 1 -0.0280307 0.022667 0.00113545 0 0 0 0 0 -1.39951 0 0 -0.000346714 0 0 0 0.0015 
15 1 1 -0.00454319 -0.0294115 0.00705743 0 0 0 0 0 -1.35743 0 0 -0.00160516 0 0 0 0.0025 
22 1 1 -0.0083641 -0.0195 0.00440665 0 0 0 0 0 -1.37646 0 0 -0.000346714 0 0 0 0.0015 
19 1 1 -0.0101549 -0.00442827 0.00579931 0 0 0 0 0 -1.36645 0 0 -0.000346714 0 0 0 0.0015 
17 1 1 -0.0253454 -0.000700049 0.00504849 0 0 0 0 0 -1.37185 0 0 -0.000346714 0 0 0 0.0015 
18 1 1 -0.0335467 0.0344165 0.00399797 0 0 0 0 0 -1.3793 0 0 -0.000346714 0 0 0 0.0015 
21 1 1 -0.0333391 -0.019004 0.00954842 0 0 0 0 0 -1.33928 0 0 -0.000346714 0 0 0 0.0015 
14 1 1 -0.00618745 0.0189444 0.0095336 0 0 0 0 0 -1.33938 0 0 -0.00160516 0 0 0 0.0025 
20 1 1 -0.0332823 -0.00448395 0.0131161 0 0 0 0 0 -1.31289 0 0 -0.000346714 0 0 0 0.0015 
29 1 1 -0.022531 -0.00019371 0.0172496 0 0 0 0 0 -1.2816 0 0 -0.00160516 0 0 0 0.0025 
13 1 1 -0.00741847 0.0112937 0.014303 0 0 0 0 0 -1.30396 0 0 -0.00160516 0 0 0 0.0025 
23 1 1 -0.0165601 0.0229939 0.0149326 0 0 0 0 0 -1.29925 0 0 -0.000346714 0 0 0 0.0015 
35 1 1 -0.0138262 0.0291618 0.0162032 0 0 0 0 0 -1.28964 0 0 -0.000346714 0 0 0 0.0015 
37 1 1 -0.0127396 -0.0117751 0.0193949 0 0 0 0 0 -1.26512 0 0 -0.000346714 0 0 0 0.0015 
32 1 1 -0.0290883 0.000876534 0.0204188 0 0 0 0 0 -1.25717 0 0 -0.000346714 0 0 0 0.0015 
27 1 1 -0.000459601 0.00699661 0.0186995 0 0 0 0 0 -1.27051 0 0 -0.00160516 0 0 0 0.0025 
38 1 1 -0.0254317 0.00979368 0.019522 0 0 0 0 0 -1.26413 0 0 -0.000346714 0 0 0 0.0015 
34 1 1 -0.0177649 0.0224168 0.0210281 0 0 0 0 0 -1.25236 0 0 -0.000346714 0 0 0 0.0015 
26 1 1 -0.0219947 -0.0332201 0.0218535 0 0 0 0 0 -1.24589 0 0 -0.00160516 0 0 0 0.0025 
28 1 1 -0.0160817 -0.03192 0.0235708 0 0 0 0 0 -1.23225 0 0 -0.00160516 0 0 0 0.0025 
36 1 1 -0.0230202 -0.0250033 0.0220315 0 0 0 0 0 -1.24451 0 0 -0.000346714 0 0 0 0.0015 
33 1 1 -0.020721 -0.0278475 0.0247325 0 0 0 0 0 -1.22303 0 0 -0.000346714 0 0 0 0.0015 
30 1 1 -0.0159539 -0.0280969 0.0276084 0 0 0 0 0 -1.19968 0 0 -0.00160516 0 0 0 0.0025 
31 1 1 -0.0297813 -0.0200888 0.0266894 0 0 0 0 0 -1.20724 0 0 -0.000346714 0 0 0 0.0015 
40 1 1 -0.00180681 -0.0218065 0.0312377 0 0 0 0 0 -1.16966 0 0 -0.00160516 0 0 0 0.0025 
39 1 1 -0.0159102 0.00235532 0.0306562 0 0 0 0 0 -1.17457 0 0 -0.00160516 0 0 0 0.0025 
44 1 1 -0.022228 0.00485213 0.0310578 0 0 0 0 0 -1.17114 0 0 -0.000346714 0 0 0 0.0015 
45 1 1 -0.0097629 0.0296421 0.0299314 0 0 0 0 0 -1.18055 0 0 -0.000346714 0 0 0 0.0015 
50 1 1 -0.0279742 -1.04943e-05 0.0348074 0 0 0 0 0 -1.13935 0 0 -0.000346714 0 0 0 0.0015 
47 1 1 -0.0218847 0.0256262 0.0350223 0 0 0 0 0 -1.13749 0 0 -0.000346714 0 0 0 0.0015 
42 1 1 -0.0160508 0.0304724 0.0353858 0 0 0 0 0 -1.13435 0 0 -0.00160516 0 0 0 0.0025 
48 1 1 -0.022804 -0.0315502 0.0363618 0 0 0 0 0 -1.12591 0 0 -0.000346714 0 0 0 0.0015 
46 1 1 -0.0105626 -0.0145818 0.0357622 0 0 0 0 0 -1.13111 0 0 -0.000346714 0 0 0 0.0015 
51 1 1 -0.0175025 -0.0121213 0.0370579 0 0 0 0 0 -1.11983 0 0 -0.000346714 0 0 0 0.0015 
49 1 1 -0.0312011 0.00531382 0.0383817 0 0 0 0 0 -1.10816 0 0 -0.000346714 0 0 0 0.0015 
43 1 1 -0.0196938 0.0042356 0.0384722 0 0 0 0 0 -1.10737 0 0 -0.000346714 0 0 0 0.0015 
41 1 1 -0.0294843 -0.0347245 0.0399355 0 0 0 0 0 -1.09432 0 0 -0.00160516 0 0 0 0.0025 
56 1 1 -0.0221544 -0.0176068 0.0424118 0 0 0 0 0 -1.07186 0 0 -0.000346714 0 0 0 0.0015 
52 1 1 -0.0302313 -0.00571197 0.0403495 0 0 0 0 0 -1.0906 0 0 -0.00160516 0 0 0 0.0025 
57 1 1 -0.0185443 0.0109203 0.0427286 0 0 0 0 0 -1.06892 0 0 -0.000346714 0 0 0 0.0015 
62 1 1 -0.0131635 0.0258143 0.0420546 0 0 0 0 0 -1.0751 0 0 -0.000346714 0 0 0 0.0015 
54 1 1 -0.0046838 0.0252416 0.0405352 0 0 0 0 0 -1.08893 0 0 -0.00160516 0 0 0 0.0025 
58 1 1 -0.00481478 0.0323336 0.0407863 0 0 0 0 0 -1.08667 0 0 -0.000346714 0 0 0 0.0015 
53 1 1 -0.00163565 -0.0222313 0.0430956 0 0 0 0 0 -1.06558 0 0 -0.00160516 0 0 0 0.0025 
59 1 1 -0.00206763 -0.0165007 0.0442215 0 0 0 0 0 -1.05518 0 0 -0.000346714 0 0 0 0.0015 
60 1 1 -0.0250204 0.00245318 0.0442283 0 0 0 0 0 -1.05508 0 0 -0.000346714 0 0 0 0.0015 
55 1 1 -0.0188291 -0.0247488 0.0476571 0 0 0 0 0 -1.02271 0 0 -0.00160516 0 0 0 0.0025 
63 1 1 -0.0205837 -0.0117427 0.0476046 0 0 0 0 0 -1.0232 0 0 -0.000346714 0 0 0 0.0015 
61 1 1 -0.0136213 0.0102173 0.0487198 0 0 0 0 0 -1.01251 0 0 -0.000346714 0 0 0 0.0015 
64 1 1 -0.00322644 0.00785004 0.0467048 0 0 0 0 0 -1.03183 0 0 -0.000346714 0 0 0 0.0015 
65 1 1 -0.021885 0.00637934 0.0577491 0 0 0 -0 0 -1 0 0 0 0 0 0 0.0025 
66 1 1 -0.0113639 -0.028821 0.0586835 0 0 0 -0 0 -1 0 0 0 0 0 0 0.0025 
67 1 1 -0.0086291 0.0212435 0.0521552 0 0 0 -0 0 -1 0 0 0 0 0 0 0.0025 
68 1 1 -0.0183282 0.020832 0.0511071 0 0 0 -0 0 -1 0 0 0 0 0 0 0.0025 
69 1 1 -0.00331379 0.000112052 0.0551015 0 0 0 -0 0 -1 0 0 0 0 0 0 0.0015 
70 1 1 -0.0161255 0.0259916 0.0550445 0 0 0 -0 0 -1 0 0 0 0 0 0 0.0015 
71 1 1 -0.0132118 -0.0142448 0.0582426 0 0 0 -0 0 -1 0 0 0 0 0 0 0.0015 
72 1 1 -0.0339596 0.0247152 0.0587907 0 0 0 -0 0 -1 0 0 0 0 0 0 0.0015 
73 1 1 -0.00317446 -0.00307391 0.0504172 0 0 0 -0 0 -1 0 0 0 0 0 0 0.0015 
74 1 1 -0.0313469 0.00594264 0.0560625 0 0 0 -0 0 -1 0 0 0 0 0 0 0.0015 
75 1 1 -0.0222205 0.0252752 0.0579992 0 0 0 -0 0 -1 0 0 0 0 0 0 0.0015 
76 1 1 -0.0101315 -0.00307891 0.0570279 0 0 0 -0 0 -1 0 0 0 0 0 0 0.0015 
