ITEM: TIMESTEP
63800
ITEM: NUMBER OF ATOMS
764
ITEM: BOX BOUNDS ff ff ff
-0.5 0.1
-0.2 0.2
-0.4 0.15
ITEM: ATOMS id type type x y z ix iy iz vx vy vz fx fy fz omegax omegay omegaz radius 
809 1 1 -0.0310816 0.0313629 0.0520182 0 0 0 -0 0 -1 0 0 0 0 0 0 0.0025 
60 1 1 -0.496366 0.00079097 -0.399925 0 0 0 -1.2223 0.0893583 -1.79525 0 0 -0.000346714 -56.6924 -815.658 -85.2318 0.0015 
39 1 1 -0.488421 0.00192221 -0.399789 0 0 0 -1.21561 0.0585228 -1.83532 0 0 -0.00160516 -19.8868 -526.821 -12.8098 0.0025 
111 1 1 -0.48697 -2.20428e-05 -0.394905 0 0 0 -1.25302 0.0696824 -1.81217 0 0 -0.000346714 -85.679 -900.298 85.1638 0.0015 
102 1 1 -0.49828 0.0358281 -0.395878 0 0 0 -1.25929 -0.0282837 -1.84579 0 0 -0.000346714 57.9866 -954.03 -94.2035 0.0015 
7 1 1 -0.455528 0.0189436 -0.391221 0 0 0 -1.01188 0.396983 -1.82361 0 0 -0.000346714 -433.814 -624.856 371.752 0.0015 
1 1 1 -0.48405 0.000638044 -0.38701 0 0 0 -1.25756 0.0823184 -1.77133 0 0 -0.00160516 -80.3433 -534.057 111.987 0.0025 
114 1 1 -0.469539 -0.0106415 -0.372606 0 0 0 -1.29154 0.138004 -1.73638 0 0 -0.000346714 -177.256 -902.318 191.707 0.0015 
87 1 1 -0.453682 -0.00938305 -0.371967 0 0 0 -1.14688 0.112103 -1.71948 0 0 -0.000346714 -95.6221 -653.381 131.349 0.0015 
129 1 1 -0.456146 0.00598568 -0.373359 0 0 0 -1.0715 -0.0529995 -1.67901 0 0 -0.00160516 59.257 -278.556 -70.1664 0.0025 
29 1 1 -0.465209 -0.00402043 -0.36972 0 0 0 -1.2138 -0.0533211 -1.67233 0 0 -0.00160516 37.3982 -526.679 -33.1236 0.0025 
45 1 1 -0.449004 -0.00601278 -0.364262 0 0 0 -1.03471 0.341643 -1.69949 0 0 -0.000346714 -276.055 -792.101 37.7484 0.0015 
33 1 1 -0.452358 0.00200407 -0.365166 0 0 0 -1.12847 -0.0441989 -1.63868 0 0 -0.000346714 20.3045 -790.454 -101.48 0.0015 
81 1 1 -0.456585 0.0136001 -0.36644 0 0 0 -1.13802 0.0508109 -1.63706 0 0 -0.000346714 -22.8756 -823.707 -33.2889 0.0015 
70 1 1 -0.458089 0.00829268 -0.359865 0 0 0 -1.1916 -0.010934 -1.59723 0 0 -0.000346714 30.1272 -846.192 -96.9348 0.0015 
69 1 1 -0.458805 0.0334985 -0.35864 0 0 0 -1.15688 0.0501623 -1.60014 0 0 -0.000346714 4.34776 -838.832 -104.978 0.0015 
171 1 1 -0.45236 -0.014577 -0.355575 0 0 0 -1.19072 0.0900565 -1.6052 0 0 -0.000346714 -20.8638 -869.319 -74.2511 0.0015 
82 1 1 -0.456687 0.0103751 -0.356131 0 0 0 -1.23143 -0.0741231 -1.59804 0 0 -0.000346714 -29.9445 -944.1 197.417 0.0015 
27 1 1 -0.459227 -0.0151821 -0.351675 0 0 0 -1.22138 0.0677168 -1.56387 0 0 -0.00160516 -2.99417 -474.149 -2.65371 0.0025 
43 1 1 -0.453286 0.0399776 -0.352763 0 0 0 -1.17401 -0.00652347 -1.62783 0 0 -0.000346714 218.147 -602.343 -229.085 0.0015 
105 1 1 -0.46093 -0.00791507 -0.34818 0 0 0 -1.33838 0.132325 -1.56728 0 0 -0.00160516 -51.181 -589.493 -14.4579 0.0025 
152 1 1 -0.444138 -0.00117557 -0.34714 0 0 0 -1.16893 -0.0586856 -1.52253 0 0 -0.000346714 1.19702 -854.343 96.3749 0.0015 
99 1 1 -0.430819 0.00362414 -0.347533 0 0 0 -1.08037 -0.0661912 -1.56759 0 0 -0.000346714 169.819 -626.796 -14.1058 0.0015 
53 1 1 -0.436657 0.00327435 -0.339894 0 0 0 -1.11746 -0.0106032 -1.50138 0 0 -0.00160516 -16.8307 -477.631 28.6212 0.0025 
98 1 1 -0.444827 -0.0176389 -0.337802 0 0 0 -1.23145 0.00742095 -1.46917 0 0 -0.000346714 -28.5849 -890.559 58.3764 0.0015 
140 1 1 -0.43677 0.0054209 -0.336331 0 0 0 -1.23747 -0.0932563 -1.386 0 0 -0.000346714 92.9899 -770.857 -41.6695 0.0015 
121 1 1 -0.433435 -0.0174937 -0.331954 0 0 0 -1.07616 0.412799 -1.57525 0 0 -0.000346714 -331.159 -939.075 -28.2489 0.0015 
77 1 1 -0.432345 0.00235983 -0.33284 0 0 0 -1.15977 -0.141949 -1.46479 0 0 -0.00160516 60.6422 -502.978 39.167 0.0025 
104 1 1 -0.440716 0.00434751 -0.332552 0 0 0 -1.25025 0.0514267 -1.42535 0 0 -0.00160516 -42.1805 -530.679 49.2011 0.0025 
58 1 1 -0.40768 0.0106836 -0.332869 0 0 0 -0.94902 0.0198305 -1.46296 0 0 -0.000346714 155.641 -677.146 71.2123 0.0015 
137 1 1 -0.451079 0.0327619 -0.331999 0 0 0 -1.1782 -0.0649507 -1.42815 0 0 -0.000346714 60.2564 -867.776 -0.874001 0.0015 
165 1 1 -0.430848 -0.014568 -0.329099 0 0 0 -1.14294 0.121721 -1.41834 0 0 -0.000346714 -118.131 -839.428 72.9318 0.0015 
44 1 1 -0.435465 0.00233663 -0.326354 0 0 0 -1.16163 -0.0650147 -1.33362 0 0 -0.000346714 55.0474 -741.588 28.6765 0.0015 
108 1 1 -0.429154 0.0010184 -0.329253 0 0 0 -1.14511 -0.0853433 -1.33392 0 0 -0.000346714 98.8608 -719.647 -54.3008 0.0015 
139 1 1 -0.430206 0.0173627 -0.327844 0 0 0 -1.14571 -0.123245 -1.41964 0 0 -0.000346714 62.6153 -891.181 71.8998 0.0015 
64 1 1 -0.431942 0.0271747 -0.327025 0 0 0 -1.13601 -0.0425118 -1.40761 0 0 -0.000346714 126.092 -780.116 -229.565 0.0015 
103 1 1 -0.413599 -0.0118921 -0.326361 0 0 0 -1.17177 -0.12019 -1.62602 0 0 -0.00160516 -97.0685 -383.117 65.5816 0.0025 
84 1 1 -0.425255 -0.0155733 -0.320906 0 0 0 -1.18881 0.0659689 -1.36995 0 0 -0.000346714 -31.4453 -803.539 80.3585 0.0015 
91 1 1 -0.433441 0.00535937 -0.322443 0 0 0 -1.2572 0.00155239 -1.35794 0 0 -0.00160516 28.9173 -522.756 -60.0474 0.0025 
117 1 1 -0.422022 -0.0182838 -0.31737 0 0 0 -1.21502 0.0786648 -1.37125 0 0 -0.00160516 -67.7865 -517.688 82.8251 0.0025 
122 1 1 -0.426734 -0.0146333 -0.316006 0 0 0 -1.23943 0.105005 -1.32647 0 0 -0.000346714 -52.3441 -801.964 76.9716 0.0015 
97 1 1 -0.420466 -0.00393535 -0.316132 0 0 0 -1.19092 -0.00283125 -1.3065 0 0 -0.000346714 15.5574 -830.818 -16.9975 0.0015 
135 1 1 -0.424549 0.00429705 -0.318755 0 0 0 -1.2473 -0.113646 -1.34938 0 0 -0.000346714 124.573 -897.878 -97.7638 0.0015 
115 1 1 -0.417327 0.0137862 -0.319077 0 0 0 -1.0634 0.0154668 -1.31116 0 0 -0.000346714 46.0013 -705.403 -123.119 0.0015 
88 1 1 -0.414828 0.0158202 -0.318699 0 0 0 -1.0262 -0.00432002 -1.30617 0 0 -0.000346714 5.24096 -750.645 -11.7672 0.0015 
164 1 1 -0.40334 -0.0250245 -0.314037 0 0 0 -0.89004 -0.162454 -1.24438 0 0 -0.000346714 163.798 49.1603 -85.2408 0.0015 
63 1 1 -0.412269 0.00400954 -0.312352 0 0 0 -1.10933 0.035983 -1.26552 0 0 -0.000346714 9.74113 -799.623 -84.2586 0.0015 
80 1 1 -0.41685 0.0160518 -0.313503 0 0 0 -1.12165 -0.029336 -1.2968 0 0 -0.00160516 25.5936 -489.149 -30.692 0.0025 
166 1 1 -0.418409 -0.00376784 -0.31134 0 0 0 -1.19907 0.00578169 -1.26088 0 0 -0.000346714 0.512656 -855.694 -8.72509 0.0015 
149 1 1 -0.418717 -0.0234009 -0.308095 0 0 0 -1.20059 0.0745144 -1.27278 0 0 -0.000346714 -89.3031 -861.97 98.2465 0.0015 
83 1 1 -0.409921 0.0243578 -0.306152 0 0 0 -1.10116 0.00492353 -1.23321 0 0 -0.000346714 -12.1613 -813.412 18.5196 0.0015 
74 1 1 -0.415761 -0.0162206 -0.304051 0 0 0 -1.19736 0.266259 -1.26699 0 0 -0.000346714 -179.356 -904.898 -38.5655 0.0015 
66 1 1 -0.418026 -0.006619 -0.304184 0 0 0 -1.28537 0.0777282 -1.21471 0 0 -0.00160516 87.1001 -437.028 198.78 0.0025 
116 1 1 -0.407287 -0.00784499 -0.300722 0 0 0 -1.17487 -0.0751396 -1.18301 0 0 -0.00160516 38.9938 -497.86 4.88896 0.0025 
133 1 1 -0.400634 -0.0423116 -0.29898 0 0 0 -0.88396 -0.0592736 -1.15683 0 0 -0.000346714 -9.68419 -615.26 140.855 0.0015 
106 1 1 -0.418475 -0.0113075 -0.298016 0 0 0 -1.30373 0.0810737 -1.11937 0 0 -0.00160516 -21.3255 -529.621 87.5652 0.0025 
94 1 1 -0.41235 -0.00539856 -0.29823 0 0 0 -1.17995 -0.0823339 -1.05888 0 0 -0.00160516 23.4741 -455.182 -153.871 0.0025 
62 1 1 -0.404355 0.00925939 -0.298246 0 0 0 -1.22943 -0.0560851 -1.18181 0 0 -0.000346714 58.0721 -895.93 -40.99 0.0015 
100 1 1 -0.403304 -0.0146003 -0.295904 0 0 0 -1.21133 -0.0835917 -1.14194 0 0 -0.000346714 77.6811 -875.877 -41.6933 0.0015 
128 1 1 -0.398979 -0.00573767 -0.295034 0 0 0 -1.10458 -0.0135245 -1.11004 0 0 -0.000346714 45.1345 -755.649 -21.3679 0.0015 
185 1 1 -0.397555 -0.00187193 -0.295773 0 0 0 -1.17854 -0.118545 -1.16096 0 0 -0.000346714 71.3097 -764.026 38.6786 0.0015 
179 1 1 -0.392984 -0.0193598 -0.291894 0 0 0 -1.07154 0.538975 -1.33578 0 0 -0.000346714 -521.433 -757.262 213.055 0.0015 
203 1 1 -0.395636 -0.00866655 -0.291579 0 0 0 -1.02773 -0.162521 -1.15275 0 0 -0.000346714 -32.8074 -744.114 -97.5735 0.0015 
158 1 1 -0.396594 -0.00484243 -0.289777 0 0 0 -1.24121 -0.129889 -1.09241 0 0 -0.00160516 3.58794 -506.67 -14.4202 0.0025 
54 1 1 -0.395077 0.00575886 -0.29283 0 0 0 -1.09805 -0.0500744 -1.11636 0 0 -0.00160516 39.2195 -475.791 -40.5462 0.0025 
112 1 1 -0.392044 -0.0143766 -0.286048 0 0 0 -1.19351 -0.0869729 -0.948814 0 0 -0.000346714 -71.5016 -755.303 333.571 0.0015 
93 1 1 -0.397581 -0.0131402 -0.288286 0 0 0 -1.18885 0.0208314 -1.07554 0 0 -0.00160516 -21.8668 -510.094 36.0523 0.0025 
13 1 1 -0.392242 -0.0103656 -0.287161 0 0 0 -1.1304 -0.0348486 -1.08525 0 0 -0.00160516 74.1335 -492.073 -31.9773 0.0025 
269 1 1 -0.391398 0.00897148 -0.286324 0 0 0 -1.28197 -0.00784036 -1.09826 0 0 -0.000346714 126.428 -909.389 -185.444 0.0015 
89 1 1 -0.388435 0.00964125 -0.286698 0 0 0 -1.13108 -0.342886 -1.1298 0 0 -0.000346714 292.773 -820.8 -86.9371 0.0015 
130 1 1 -0.395624 0.00247117 -0.284923 0 0 0 -1.19787 -0.129305 -1.03256 0 0 -0.00160516 64.5069 -519.33 -75.6691 0.0025 
243 1 1 -0.389314 0.0028111 -0.284741 0 0 0 -1.20826 0.213882 -1.05247 0 0 -0.000346714 -205.047 -857.591 128.246 0.0015 
256 1 1 -0.388662 -0.0216082 -0.281262 0 0 0 -1.29264 0.264572 -1.14456 0 0 -0.000346714 -199.626 -988.315 9.896 0.0015 
159 1 1 -0.383378 -0.0123649 -0.28099 0 0 0 -1.09726 0.144829 -1.02905 0 0 -0.000346714 -70.3077 -799.299 -45.3437 0.0015 
68 1 1 -0.385825 0.00329831 -0.281452 0 0 0 -1.1539 -0.0331372 -1.01219 0 0 -0.00160516 15.0556 -483.325 -36.6526 0.0025 
190 1 1 -0.381249 0.018209 -0.277977 0 0 0 -1.13495 0.0081687 -0.980437 0 0 -0.000346714 -12.7155 -837.309 14.3686 0.0015 
196 1 1 -0.387652 0.0230395 -0.279279 0 0 0 -1.21401 -0.0146728 -1.03072 0 0 -0.00160516 17.0199 -530.87 -25.7927 0.0025 
233 1 1 -0.385919 -0.0139493 -0.276786 0 0 0 -1.23505 0.160675 -0.995297 0 0 -0.00160516 -106.123 -516.404 94.0733 0.0025 
110 1 1 -0.371705 -0.0101252 -0.275138 0 0 0 -0.938657 -0.136414 -0.89049 0 0 -0.000346714 17.4258 -542.259 -2.09917 0.0015 
199 1 1 -0.369946 0.0121065 -0.277646 0 0 0 -1.08435 -0.061576 -1.06087 0 0 -0.000346714 403.501 -676.786 42.8433 0.0015 
173 1 1 -0.36851 0.0135347 -0.272256 0 0 0 -1.09788 -0.151981 -1.00062 0 0 -0.000346714 272.386 -707.869 -24.3477 0.0015 
169 1 1 -0.367727 0.0062025 -0.268982 0 0 0 -1.04837 0.0460929 -0.865349 0 0 -0.00160516 -39.8266 -459.556 45.0987 0.0025 
67 1 1 -0.366617 0.0112433 -0.266984 0 0 0 -1.10607 -0.127303 -0.881888 0 0 -0.00160516 109.719 -438.822 18.5878 0.0025 
289 1 1 -0.360461 0.0217265 -0.268127 0 0 0 -1.01351 -0.0734463 -0.984712 0 0 -0.000346714 -9.09044 -543.624 102.941 0.0015 
65 1 1 -0.36279 -0.00669003 -0.264537 0 0 0 -1.02736 -0.0275412 -0.800412 0 0 -0.00160516 36.4644 -448.4 -58.5931 0.0025 
163 1 1 -0.359386 0.00211738 -0.265611 0 0 0 -1.01231 0.0128169 -0.826097 0 0 -0.000346714 31.6847 -707.681 7.95581 0.0015 
151 1 1 -0.362305 0.00483176 -0.264269 0 0 0 -1.09504 0.00521485 -0.797854 0 0 -0.000346714 -73.6914 -748.728 -85.419 0.0015 
95 1 1 -0.356995 0.00445031 -0.262235 0 0 0 -1.01777 0.0447613 -0.764831 0 0 -0.000346714 -79.8216 -745.486 109.778 0.0015 
187 1 1 -0.366188 0.00653362 -0.264179 0 0 0 -1.03602 -0.166614 -0.765151 0 0 -0.000346714 -94.216 -487.749 108.677 0.0015 
204 1 1 -0.365901 0.0301441 -0.263264 0 0 0 -0.99054 -0.185185 -0.869825 0 0 -0.000346714 209.691 -691.083 -169.486 0.0015 
194 1 1 -0.365844 -0.0261229 -0.260859 0 0 0 -1.10952 0.496096 -0.986767 0 0 -0.00160516 -298.467 -421.307 192.778 0.0025 
150 1 1 -0.36108 -0.0272315 -0.261374 0 0 0 -1.1301 -0.0472229 -0.828271 0 0 -0.000346714 -99.481 -786.221 286.276 0.0015 
131 1 1 -0.359716 -0.00123266 -0.261631 0 0 0 -1.06047 0.0127585 -0.762281 0 0 -0.00160516 -21.5098 -451.351 42.9886 0.0025 
90 1 1 -0.354428 -0.00185893 -0.259363 0 0 0 -1.04056 0.00988612 -0.754457 0 0 -0.00160516 10.5195 -430.119 -30.2997 0.0025 
136 1 1 -0.36001 0.00603741 -0.259051 0 0 0 -1.0506 -0.0410702 -0.679046 0 0 -0.000346714 -18.4602 -729.004 -118.572 0.0015 
148 1 1 -0.354587 0.00870055 -0.258324 0 0 0 -0.798714 -0.10412 -0.603792 0 0 -0.000346714 170.295 -523.697 -10.5933 0.0015 
184 1 1 -0.361975 0.0148265 -0.262083 0 0 0 -1.27148 -0.255453 -0.882959 0 0 -0.000346714 211.435 -923.763 -56.4605 0.0015 
172 1 1 -0.348724 0.0143972 -0.258461 0 0 0 -0.764985 0.0184259 -0.676918 0 0 -0.000346714 -36.3449 -204.036 -265.701 0.0015 
143 1 1 -0.355538 -0.0137076 -0.25684 0 0 0 -1.20098 0.209653 -0.785018 0 0 -0.00160516 -144.076 -500.166 126.817 0.0025 
177 1 1 -0.350717 -0.0136411 -0.255462 0 0 0 -1.14715 0.132664 -0.727759 0 0 -0.000346714 -58.4485 -848.324 -95.2034 0.0015 
175 1 1 -0.350774 0.00720383 -0.256815 0 0 0 -1.12077 -0.1317 -0.732234 0 0 -0.000346714 68.1247 -817.381 63.9385 0.0015 
153 1 1 -0.341145 -0.00318179 -0.25121 0 0 0 -1.01583 -0.0284624 -0.594192 0 0 -0.000346714 -45.0149 -722.203 160.275 0.0015 
161 1 1 -0.343846 0.0123384 -0.250238 0 0 0 -0.712641 -0.0552957 -0.525678 0 0 -0.000346714 -59.8555 -428.326 48.3612 0.0015 
210 1 1 -0.346652 0.0168517 -0.251823 0 0 0 -1.11113 -0.00942351 -0.677603 0 0 -0.00160516 37.4291 -475.028 -78.8357 0.0025 
198 1 1 -0.35375 -0.0369499 -0.248979 0 0 0 -1.13758 0.116921 -0.688979 0 0 -0.000346714 -80.478 -897.555 -10.3047 0.0015 
167 1 1 -0.336585 -0.00356485 -0.24755 0 0 0 -0.984101 -0.00310899 -0.540215 0 0 -0.00160516 3.00523 -426.073 -3.53896 0.0025 
123 1 1 -0.333019 0.00496573 -0.246796 0 0 0 -1.05613 0.0224199 -0.547255 0 0 -0.000346714 3.88147 -763.446 -47.503 0.0015 
192 1 1 -0.340084 0.013863 -0.249545 0 0 0 -1.20935 -0.122983 -0.673717 0 0 -0.000346714 143.096 -864.496 -125.274 0.0015 
214 1 1 -0.346389 -0.0363143 -0.247418 0 0 0 -1.18569 0.111194 -0.755943 0 0 -0.000346714 -83.0994 -915.365 -4.93271 0.0015 
221 1 1 -0.337708 -0.0276486 -0.243472 0 0 0 -1.19685 0.0788713 -0.627532 0 0 -0.00160516 46.1343 -420.092 62.5528 0.0025 
157 1 1 -0.33027 -0.0210521 -0.24208 0 0 0 -0.853966 -0.027526 -0.415738 0 0 -0.00160516 -0.904848 -367.969 32.9147 0.0025 
205 1 1 -0.329956 -0.017137 -0.24369 0 0 0 -1.02902 0.0269432 -0.480861 0 0 -0.000346714 26.2749 -771.378 -111.683 0.0015 
15 1 1 -0.332398 -0.0131089 -0.244967 0 0 0 -1.00466 0.0302447 -0.611671 0 0 -0.00160516 -52.1407 -288.095 58.0442 0.0025 
197 1 1 -0.325831 -0.00725433 -0.243139 0 0 0 -0.756708 0.0134519 -0.356479 0 0 -0.000346714 -3.37099 -525.68 -14.7504 0.0015 
101 1 1 -0.32305 -0.00718882 -0.241903 0 0 0 -0.758703 0.00978492 -0.321568 0 0 -0.000346714 -38.1463 -543.013 75.3728 0.0015 
213 1 1 -0.327406 -0.00211268 -0.244447 0 0 0 -0.923552 -0.00290206 -0.493075 0 0 -0.000346714 12.4447 -326.308 43.9774 0.0015 
189 1 1 -0.325158 -0.00372159 -0.242791 0 0 0 -0.971988 -0.0783205 -0.376234 0 0 -0.000346714 86.2385 -656.74 -34.671 0.0015 
73 1 1 -0.325779 0.000386873 -0.243576 0 0 0 -0.944369 0.0211212 -0.438151 0 0 -0.000346714 -20.3279 -686.132 11.1458 0.0015 
208 1 1 -0.330833 0.0150474 -0.243597 0 0 0 -1.04016 0.013282 -0.51024 0 0 -0.00160516 4.40502 -454.321 -25.219 0.0025 
212 1 1 -0.343466 0.0319191 -0.246452 0 0 0 -1.21134 -0.064005 -0.66908 0 0 -0.000346714 143.661 -835.886 -232.941 0.0015 
200 1 1 -0.334272 -0.0300994 -0.242776 0 0 0 -0.731752 0.3348 -0.407603 0 0 -0.000346714 -161.108 -239.846 299.301 0.0015 
193 1 1 -0.326099 -0.0229266 -0.239763 0 0 0 -0.863603 -0.0379659 -0.364735 0 0 -0.00160516 -9.93499 -365.18 66.6137 0.0025 
219 1 1 -0.324353 -0.0156004 -0.240153 0 0 0 -1.12059 0.0505683 -0.542063 0 0 -0.00160516 -56.1869 -418.66 69.1708 0.0025 
183 1 1 -0.32789 -0.0123417 -0.242457 0 0 0 -1.01597 0.136008 -0.443376 0 0 -0.00160516 -29.8089 -330.108 -10.0336 0.0025 
127 1 1 -0.321775 -0.0100154 -0.2412 0 0 0 -0.836732 -0.0546753 -0.336339 -4.83594e-07 0.000138368 5.29929e-05 4.01213 -566.915 14.8729 0.0015 
59 1 1 -0.3201 -0.00760422 -0.240559 0 0 0 -0.876443 -0.014411 -0.357278 0 0 -0.000346714 -88.2842 22.1775 -2.9326 0.0015 
191 1 1 -0.322677 -0.00380428 -0.240683 0 0 0 -0.906157 0.135654 -0.388675 0 0 -0.000346714 -137.559 -460.796 46.8451 0.0015 
144 1 1 -0.317761 -0.000868622 -0.239013 0 0 0 -0.986585 0.035865 -0.453353 0 0 -0.00160516 -33.7583 -409.909 53.6753 0.0025 
132 1 1 -0.322402 0.000537979 -0.240872 0 0 0 -1.00485 0.0524966 -0.478243 0 0 -0.00160516 10.0497 -300.251 -6.51122 0.0025 
119 1 1 -0.324793 0.00489592 -0.241732 0 0 0 -1.11678 -0.00630556 -0.49564 0 0 -0.00160516 -1.58639 -487.378 9.75291 0.0025 
9 1 1 -0.31759 0.00578244 -0.239695 0 0 0 -0.976811 -0.0909875 -0.417434 -9.15088e-05 -1.37502e-05 -3.21282e-05 76.7386 -706.647 -25.5421 0.0015 
92 1 1 -0.365923 0.00873447 -0.237724 0 0 0 -1.09837 -0.0974242 -0.336044 0 0 -0.00160516 13.3064 -107.421 -112.37 0.0025 
244 1 1 -0.322745 0.0136497 -0.24018 0 0 0 -1.16398 0.00895486 -0.485122 -0.000395579 -0.000184735 -0.00020044 25.7638 -499.309 -71.0329 0.0025 
224 1 1 -0.330134 0.0221496 -0.24288 0 0 0 -1.21595 -0.0697075 -0.58003 0 0 -0.000346714 69.4761 -885.323 -44.1922 0.0015 
218 1 1 -0.313125 -0.0190007 -0.236281 0 0 0 -1.15084 0.0652238 -0.474731 0 0 -0.000346714 -32.529 -832.632 -32.2433 0.0015 
182 1 1 -0.317324 -0.0117743 -0.238108 0 0 0 -0.856945 -0.000496398 -0.373144 2.85658e-05 0.000107853 -0.00104989 -29.0141 -360.497 63.6219 0.0025 
181 1 1 -0.313533 -0.00854067 -0.23626 0 0 0 -0.932214 0.167338 -0.353574 0 0 -0.00160516 -102.985 -347.857 43.8517 0.0025 
206 1 1 -0.317963 -0.00578016 -0.237097 0 0 0 -0.917731 0.0941164 -0.335588 0 0 -0.00160516 -38.1199 -209.285 -21.1038 0.0025 
180 1 1 -0.30935 -0.000614672 -0.235478 0 0 0 -1.05646 -0.0103767 -0.445627 -0.000410348 3.38412e-05 -0.000174066 23.95 -460.874 -46.047 0.0025 
155 1 1 -0.313502 0.00180067 -0.236941 0 0 0 -1.02307 -0.00790396 -0.402991 0 0 -0.00160516 3.46659 -418.2 12.8455 0.0025 
178 1 1 -0.314803 0.00539261 -0.23847 0 0 0 -0.977513 0.0517692 -0.401726 0 0 -0.000346714 38.1675 -651.287 55.4282 0.0015 
276 1 1 -0.311342 0.0126955 -0.23663 0 0 0 -1.04232 -0.118114 -0.44571 -9.60788e-05 -1.49235e-05 -2.42546e-05 50.5581 -760.76 83.314 0.0015 
262 1 1 -0.323143 0.0283323 -0.238202 0 0 0 -1.28049 0.125014 -0.477763 -7.79481e-05 -6.63973e-05 -5.47697e-05 -57.5347 -936.228 -90.8802 0.0015 
188 1 1 -0.308797 -0.0283117 -0.232306 0 0 0 -1.15504 0.0814529 -0.474266 0 0 -0.000346714 -45.2829 -861.565 -35.2767 0.0015 
259 1 1 -0.313229 -0.024505 -0.233965 0 0 0 -1.19506 0.0744871 -0.492693 0 0 -0.00160516 -53.9526 -511.262 58.4753 0.0025 
211 1 1 -0.306478 -0.0177466 -0.233815 0 0 0 -0.888703 0.00568471 -0.337856 0.000486467 -3.42813e-05 -0.000782632 -75.1123 -387.312 94.8622 0.0015 
225 1 1 -0.307808 -0.0150753 -0.23471 0 0 0 -0.93091 -0.00554426 -0.371418 -7.45731e-05 2.52915e-05 -6.12571e-05 33.9232 -684.223 -74.7682 0.0015 
145 1 1 -0.307655 -0.0095018 -0.234281 0 0 0 -1.02902 0.205523 -0.469756 0 0 -0.00160516 -123.438 -374.433 -57.7102 0.0025 
168 1 1 -0.303321 -0.00681162 -0.232714 0 0 0 -0.905595 0.0468966 -0.369249 0.000482413 -0.000115019 -0.00317883 -31.2152 -390.383 26.2101 0.0025 
126 1 1 -0.305117 -0.00378438 -0.234664 0 0 0 -0.899375 0.0690969 -0.382447 -8.54649e-05 4.06094e-06 -2.14181e-05 -16.2077 -654.383 -80.2263 0.0015 
216 1 1 -0.299747 -0.00228441 -0.232449 0 0 0 -1.0467 -0.0448777 -0.440521 -8.53599e-05 6.9733e-06 -4.18653e-05 38.3695 -758.735 -13.8904 0.0015 
202 1 1 -0.299255 0.00281829 -0.232155 0 0 0 -0.973781 -0.051632 -0.414308 -7.48845e-05 -1.13765e-05 -7.1694e-05 -10.2617 -713.347 112.973 0.0015 
228 1 1 -0.308804 0.0153454 -0.235121 0 0 0 -1.0832 0.01516 -0.448944 -8.52315e-05 -3.97359e-05 -4.3282e-05 65.1685 -759.803 -182.894 0.0015 
272 1 1 -0.310753 0.0294672 -0.231639 0 0 0 -1.00861 0.216398 -0.335374 0.000126709 -0.000324467 -7.24053e-05 -93.1558 -44.9966 -156.814 0.0025 
293 1 1 -0.320041 0.0368707 -0.234004 0 0 0 -1.27381 -0.102538 -0.555584 -7.94062e-05 -6.74626e-05 -5.1709e-05 77.7651 -963.312 -0.472383 0.0015 
232 1 1 -0.297603 -0.0136074 -0.22963 0 0 0 -1.03407 -0.057189 -0.428153 -0.000404893 0.000105427 -0.000183761 23.7707 -450.951 2.82689 0.0025 
268 1 1 -0.293129 0.00707188 -0.229303 0 0 0 -0.9989 -0.0710479 -0.426416 -8.85294e-05 -1.3452e-05 -3.7936e-05 82.705 -719.79 -73.8118 0.0015 
217 1 1 -0.298347 0.0232564 -0.229218 0 0 0 -0.986934 0.173802 -0.377197 -6.77124e-05 -3.05129e-05 -8.8294e-05 -104.616 -713.711 -55.27 0.0015 
305 1 1 -0.305171 0.0313394 -0.229852 0 0 0 -1.10361 -0.0358137 -0.45497 0 0 -0.000346714 43.472 -816.113 -43.5019 0.0015 
287 1 1 -0.304938 0.0369679 -0.227881 0 0 0 -1.02943 0.0945046 -0.376318 -7.04402e-05 -5.87575e-05 -7.07676e-05 -1.55626 -714.765 -175.281 0.0015 
247 1 1 -0.289445 -0.00443432 -0.226945 0 0 0 -0.801739 -0.0057253 -0.338333 0.000104933 0.000136024 7.55715e-05 -0.360727 -322.409 -1.1569 0.0025 
147 1 1 -0.285968 -0.00725087 -0.22568 0 0 0 -0.87133 -0.141516 -0.362796 0 0 -0.000346714 118.915 -365.675 -16.0905 0.0015 
109 1 1 -0.283285 -0.00584582 -0.225345 0 0 0 -0.921086 0.080358 -0.371878 0 0 -0.000346714 -104.66 -636.573 83.4454 0.0015 
124 1 1 -0.284277 -0.00114387 -0.22596 0 0 0 -1.02389 0.0236077 -0.433046 -8.86413e-05 7.02658e-06 -3.76221e-05 -13.7393 -741.935 -7.96183 0.0015 
274 1 1 -0.288787 0.000675712 -0.226796 0 0 0 -0.902376 0.0429604 -0.37561 0.000118948 0.000141418 0.000777354 -88.0523 -196.515 32.5199 0.0025 
201 1 1 -0.286673 0.00719279 -0.226568 0 0 0 -0.868681 0.0469774 -0.366952 4.43084e-05 -5.94557e-07 -0.000175778 -52.6789 -631.366 44.194 0.0015 
249 1 1 -0.286377 0.00426024 -0.225969 0 0 0 -0.914001 0.0348594 -0.365202 0 0 -0.000346714 -39.4262 -555.055 -20.8023 0.0015 
215 1 1 -0.288547 0.010571 -0.227082 0 0 0 -0.908211 -0.132325 -0.37605 0 0 -0.000346714 124.505 -644.044 -71.3029 0.0015 
239 1 1 -0.290731 0.0150819 -0.227636 0 0 0 -0.879847 0.0024849 -0.363657 -0.00016636 -7.6617e-05 3.12279e-05 58.3963 -617.596 -144.955 0.0015 
296 1 1 -0.296198 0.028508 -0.226021 0 0 0 -1.07391 0.106415 -0.414458 -0.000381462 -0.00028633 -0.000271926 -3.22034 -451.507 -107.747 0.0025 
253 1 1 -0.301213 0.0347092 -0.227153 0 0 0 -1.05091 -0.0770887 -0.447756 0 0 -0.000346714 153.871 -703.951 -247.84 0.0015 
195 1 1 -0.280538 -0.0107541 -0.222766 0 0 0 -1.00981 0.0243151 -0.427409 -0.000382097 9.77287e-05 -0.000240615 -39.8049 -433.183 69.3952 0.0025 
266 1 1 -0.278508 -0.0059578 -0.223363 0 0 0 -0.976455 0.0278513 -0.413138 -8.26472e-05 6.55527e-06 -5.15599e-05 -98.8579 -701.043 186.381 0.0015 
223 1 1 -0.277828 -0.0030358 -0.223174 0 0 0 -0.983405 0.0301165 -0.41588 -8.53974e-05 6.70605e-06 -4.99471e-05 24.2904 -715.92 -109.194 0.0015 
251 1 1 -0.273387 -0.00208973 -0.221336 0 0 0 -1.01589 0.018863 -0.427123 -8.90407e-05 7.05916e-06 -3.60641e-05 -16.2526 -735.055 6.19443 0.0015 
118 1 1 -0.281358 0.000414889 -0.22368 0 0 0 -1.02364 0.0137874 -0.430435 -0.000399372 -6.06007e-05 -0.000200832 -10.6604 -446.125 11.0547 0.0025 
235 1 1 -0.276812 0.00528305 -0.222562 0 0 0 -1.02906 0.0163571 -0.423399 -8.87881e-05 -1.18131e-05 -4.10954e-05 -68.3886 -751.273 136.991 0.0015 
281 1 1 -0.279577 0.00931723 -0.223475 0 0 0 -0.964518 -0.0944564 -0.403508 -8.69413e-05 -1.19422e-05 -3.69686e-05 49.989 -699.473 44.2479 0.0015 
160 1 1 -0.276231 0.00885969 -0.22212 0 0 0 -0.938127 -0.0806496 -0.391927 -8.79712e-05 -1.21069e-05 -3.29533e-05 75.0128 -675.621 -40.5317 0.0015 
154 1 1 -0.275766 0.0135331 -0.221564 0 0 0 -0.954264 -0.0492934 -0.414433 -0.000377581 -0.000162122 0.000381798 87.705 -681.481 -119.418 0.0015 
369 1 1 -0.278928 0.0150663 -0.222639 0 0 0 -0.941985 -0.115022 -0.425102 -3.22336e-05 -1.43677e-05 -0.000134082 168.865 -657.415 -196.734 0.0015 
156 1 1 -0.287087 0.026845 -0.222695 0 0 0 -1.06193 -0.11286 -0.459227 0 0 -0.00160516 86.2041 -444.811 -93.552 0.0025 
245 1 1 -0.289241 0.0314028 -0.222171 0 0 0 -1.10624 -0.126751 -0.479735 -0.000316648 -0.000245155 -0.000331745 73.8 -482.464 -42.6842 0.0025 
282 1 1 -0.264162 -0.00996522 -0.217073 0 0 0 -0.828388 -0.0668027 -0.338666 -8.68575e-05 2.3571e-05 -3.95202e-05 47.9837 -601.978 1.36895 0.0015 
279 1 1 -0.26496 0.00193516 -0.217749 0 0 0 -0.873816 -0.0780627 -0.370396 -0.000153535 -9.70987e-06 0.000170099 101.694 -627.027 -108.807 0.0015 
311 1 1 -0.279737 0.0282289 -0.219268 0 0 0 -1.10846 0.165935 -0.41754 -0.000350551 -0.000248514 -0.000314216 -53.3096 -484.281 -50.9673 0.0025 
315 1 1 -0.298075 0.0518392 -0.217833 0 0 0 -1.16703 0.0194812 -0.404492 0 0 -0.000346714 70.9022 -797.999 -265.763 0.0015 
250 1 1 -0.272831 -0.0317387 -0.216442 0 0 0 -1.0679 -0.0124055 -0.4459 0 0 -0.000346714 -19.6958 -770.086 76.4424 0.0015 
226 1 1 -0.267302 -0.0247057 -0.216156 0 0 0 -0.901522 0.00504293 -0.376908 -2.74294e-05 1.52721e-05 -0.000106167 0.362935 -663.312 -10.2332 0.0015 
295 1 1 -0.263706 -0.0258533 -0.214375 0 0 0 -0.855594 -0.0309002 -0.388966 -0.000236637 0.000171897 0.00369144 -29.4871 -615.515 114.211 0.0015 
176 1 1 -0.261931 -0.0208745 -0.214678 0 0 0 -0.891894 -0.117741 -0.316844 -0.0008938 0.000565171 -0.000152085 91.832 -657.224 -14.9607 0.0015 
207 1 1 -0.263782 -0.0164475 -0.215084 0 0 0 -0.827699 0.0241899 -0.352621 -0.000378972 0.000107362 -0.000242013 -45.3413 -352.012 82.2949 0.0025 
278 1 1 -0.261365 -0.0131205 -0.214559 0 0 0 -0.851575 0.0734509 -0.311807 0 0 -0.000346714 -94.0215 -545.778 97.2791 0.0015 
209 1 1 -0.260588 0.00202985 -0.214796 0 0 0 -0.956664 -0.106362 -0.415026 0 0 -0.00160516 55.6567 -394.361 28.3348 0.0025 
271 1 1 -0.264372 0.00632905 -0.216204 0 0 0 -0.907725 -0.0337963 -0.381241 -0.000514037 -5.89281e-05 0.000178663 22.3628 -393.379 -18.3851 0.0025 
86 1 1 -0.259545 0.00717407 -0.2152 0 0 0 -0.84527 -0.0744248 -0.361637 0 0 -0.000346714 19.8836 -615.131 80.7428 0.0015 
290 1 1 -0.258246 0.011988 -0.214411 0 0 0 -0.981604 -0.162682 -0.439765 -8.73499e-05 -3.14439e-05 -4.12311e-05 140.646 -710.002 -51.286 0.0015 
265 1 1 -0.34274 0.0655635 -0.220641 0 0 0 -0.987278 -0.431775 -0.966753 0 0 -0.000346714 641.773 -429.402 -512.99 0.0015 
306 1 1 -0.260512 -0.0260204 -0.212871 0 0 0 -0.82988 0.00543428 -0.368906 0 0 -0.000346714 -46.1236 -583.402 107.236 0.0015 
242 1 1 -0.254094 -0.0136091 -0.212424 0 0 0 -0.936158 -0.00314479 -0.391788 0 0 -0.000346714 -42.0257 -664.965 108.066 0.0015 
299 1 1 -0.263308 -0.00831279 -0.2133 0 0 0 -1.03728 0.153356 -0.426605 0 0 -0.00160516 -58.3535 275.988 -88.0048 0.0025 
170 1 1 -0.257104 -0.00130151 -0.21333 0 0 0 -0.874056 -0.0238307 -0.344279 0 0 -0.00160516 2.07089 -358.783 50.3472 0.0025 
323 1 1 -0.253748 0.00679022 -0.211708 0 0 0 -0.849615 0.0381867 -0.354737 -0.000544767 -7.78501e-05 0.000322104 -15.5749 -368.896 -2.263 0.0025 
252 1 1 -0.253898 0.0139196 -0.21228 0 0 0 -1.02839 -0.068735 -0.445752 -0.000146534 -5.3796e-05 9.19818e-05 87.592 -739.028 -88.0374 0.0015 
134 1 1 -0.25988 0.0177688 -0.214218 0 0 0 -1.01465 -0.15043 -0.443091 -0.000141277 -4.76163e-05 0.00010832 155.033 -723.139 -109.496 0.0015 
286 1 1 -0.255193 0.0181301 -0.21109 0 0 0 -1.06494 -0.0622073 -0.45827 -5.45566e-05 1.88766e-05 -0.00115523 34.46 -464.105 -17.4472 0.0025 
258 1 1 -0.30361 0.0267842 -0.214436 0 0 0 -1.16328 0.149078 -0.704483 0 0 -0.00160516 -87.506 120.216 -42.4668 0.0025 
238 1 1 -0.252816 -0.0299071 -0.208808 0 0 0 -1.05851 0.0276282 -0.484135 0 0 -0.000346714 -53.4141 -759.569 84.3306 0.0015 
236 1 1 -0.249918 -0.0228188 -0.209267 0 0 0 -1.02101 0.0649756 -0.465966 0 0 -0.000346714 -75.3222 -728.289 71.7524 0.0015 
303 1 1 -0.250795 -0.0190525 -0.210193 0 0 0 -0.927578 0.189817 -0.44907 0 0 -0.000346714 -150.856 -667.047 33.4421 0.0015 
275 1 1 -0.244788 -0.0167067 -0.208017 0 0 0 -0.859239 -0.0108941 -0.340753 -8.37284e-05 3.13777e-05 -3.74708e-05 8.75229 -623.179 -2.1466 0.0015 
125 1 1 -0.243325 -0.00994694 -0.208271 0 0 0 -0.862555 0.027376 -0.382397 -8.93622e-05 1.53601e-05 -4.47115e-05 -19.2382 -630.417 -1.73669 0.0015 
327 1 1 -0.240901 -0.00831391 -0.207327 0 0 0 -0.855562 0.0237432 -0.378351 -9.57811e-05 1.60595e-05 -4.01954e-05 32.9618 -633.666 -114.026 0.0015 
254 1 1 -0.241742 0.00137845 -0.207929 0 0 0 -0.655189 0.0228321 -0.277935 -8.89549e-05 -7.57742e-06 -3.84929e-05 2.80781 -473.547 -45.5204 0.0015 
222 1 1 -0.251702 0.0212698 -0.20917 0 0 0 -1.07958 -0.0328716 -0.454066 -0.00037403 -0.000137485 -0.000199305 72.0084 -451.787 -138.649 0.0025 
237 1 1 -0.246817 -0.0343103 -0.205019 0 0 0 -1.0264 -0.0466733 -0.394789 0 0 -0.000346714 20.2347 -729.829 -10.2672 0.0015 
350 1 1 -0.244281 -0.028477 -0.204573 0 0 0 -0.98198 0.0357572 -0.397378 0.000186166 0.000320159 0.00037215 -43.9187 -318.942 108.828 0.0025 
257 1 1 -0.247105 -0.0243003 -0.20671 0 0 0 -1.03592 0.061156 -0.414358 0 0 -0.00160516 -60.5244 -434.922 87.9796 0.0025 
142 1 1 -0.236156 -0.0137339 -0.20372 0 0 0 -0.794436 -0.00729476 -0.345764 0 0 -0.00160516 7.90901 -346.876 -10.0956 0.0025 
302 1 1 -0.236383 0.00594556 -0.205507 0 0 0 -0.821652 -0.0432147 -0.343811 -8.76894e-05 -6.8785e-06 -3.71791e-05 -10.1492 -597.255 99.3249 0.0015 
264 1 1 -0.236223 0.0149697 -0.204697 0 0 0 -0.99434 0.13134 -0.406521 -2.76892e-06 1.90576e-07 -2.57887e-05 35.8613 -684.932 -309.208 0.0015 
347 1 1 -0.246463 0.0194191 -0.207247 0 0 0 -1.09963 -0.0319077 -0.471447 -9.89341e-06 1.45403e-05 -0.00102344 3.93622 -485.419 23.6718 0.0025 
241 1 1 -0.235777 0.0180048 -0.204098 0 0 0 -0.866219 0.039585 -0.363049 -8.02489e-05 -2.51714e-05 -6.08373e-05 -60.1454 -642.57 73.3527 0.0015 
261 1 1 -0.255545 -0.0465144 -0.20412 0 0 0 -1.12417 0.0594989 -0.518466 0 0 -0.000346714 -100.891 -798.654 149.782 0.0015 
227 1 1 -0.231963 -0.0211677 -0.202 0 0 0 -0.808306 0.0980685 -0.350653 -8.38212e-05 4.1526e-05 -4.27419e-05 -100.987 -578.308 71.053 0.0015 
234 1 1 -0.228936 -0.0194196 -0.199986 0 0 0 -0.79311 0.0125846 -0.305114 -0.00188266 -4.86897e-05 -0.00375434 -16.1816 -316.919 26.0722 0.0025 
406 1 1 -0.230903 -0.0168391 -0.202327 0 0 0 -0.857518 -0.0361005 -0.344255 0.000636109 -0.000426819 -0.00105315 65.8395 -590 -1.50227 0.0015 
162 1 1 -0.227469 -0.0154142 -0.200986 0 0 0 -0.803069 0.0873978 -0.351695 -8.91357e-05 1.88309e-05 -3.92823e-05 -132.288 -570.188 160.379 0.0015 
263 1 1 -0.224771 -0.0109726 -0.200232 0 0 0 -0.842361 -0.00355747 -0.361462 -6.2468e-05 1.42171e-05 -7.76235e-05 36.8614 -620.724 -80.2053 0.0015 
343 1 1 -0.23247 -0.00817375 -0.202558 0 0 0 -0.85968 -0.0015612 -0.400261 0 0 -0.000346714 -5.93978 -580.268 38.2736 0.0015 