ITEM: TIMESTEP
31400
ITEM: NUMBER OF ATOMS
410
ITEM: BOX BOUNDS ff ff ff
-0.5 0.1
-0.2 0.2
-0.4 0.15
ITEM: ATOMS id type type x y z ix iy iz vx vy vz fx fy fz omegax omegay omegaz radius 
85 1 1 -0.255184 -0.0645642 -0.191432 0 0 0 -1.28442 0.203025 -0.396782 0 0 -0.000346714 -580.214 28.3815 473.706 0.0015 
47 1 1 -0.200212 0.0222573 -0.188654 0 0 0 -1.28686 -0.087253 -0.563953 -8.16383e-05 -4.11668e-05 -5.27332e-05 46.8692 -958.739 41.409 0.0015 
30 1 1 -0.199897 -0.0160669 -0.188168 0 0 0 -1.15431 -0.017622 -0.489664 -4.96933e-05 3.38272e-06 -0.00109066 -9.87614 -500.01 41.4405 0.0025 
11 1 1 -0.194159 -0.00731907 -0.187756 0 0 0 -1.0844 -0.13581 -0.45594 0 0 -0.000346714 -22.801 -783.146 282.776 0.0015 
2 1 1 -0.194938 0.0044588 -0.187076 0 0 0 -1.01895 0.0465752 -0.4239 -0.000400907 6.48127e-06 -0.000183225 -23.9027 -441.665 8.92732 0.0025 
18 1 1 -0.191704 0.00934126 -0.186471 0 0 0 -0.906822 0.106506 -0.377606 0 0 -0.000346714 -119.549 -663.392 94.6707 0.0015 
17 1 1 -0.190542 0.0159273 -0.185368 0 0 0 -0.967356 0.179416 -0.387673 0 0 -0.000346714 -54.0602 -524.994 -174.757 0.0015 
31 1 1 -0.194982 0.0215913 -0.18658 0 0 0 -1.16445 0.156803 -0.457975 -7.31918e-05 -2.93631e-05 -0.000120562 -27.1323 -814.379 -209.947 0.0015 
36 1 1 -0.1927 -0.027045 -0.1846 0 0 0 -1.12722 0.0983445 -0.49516 -0.000539393 0.00031823 0.00104807 -129.999 -801.777 136.84 0.0015 
4 1 1 -0.184578 -0.00911203 -0.182549 0 0 0 -1.00831 -0.0334955 -0.432432 -0.000346165 1.26283e-05 -0.000303369 21.6748 -439.485 -16.5303 0.0025 
21 1 1 -0.18441 -0.0047544 -0.183629 0 0 0 -0.887269 -0.0333692 -0.380279 -9.55448e-05 3.46407e-06 -2.08125e-05 77.175 -645.961 -123.494 0.0015 
20 1 1 -0.178078 0.00385931 -0.180978 0 0 0 -0.895354 0.103702 -0.408912 0 0 -0.000346714 -63.8513 -632.466 -25.6159 0.0015 
5 1 1 -0.186049 0.0205804 -0.183028 0 0 0 -1.08479 -0.0145399 -0.459593 -8.46094e-05 -4.06756e-05 -4.62765e-05 23.1345 -792.611 -29.528 0.0015 
23 1 1 -0.171636 -0.00893509 -0.17817 0 0 0 -0.832755 -0.101764 -0.341401 0 0 -0.000346714 79.8219 -601.686 -11.2915 0.0015 
10 1 1 -0.174503 -0.00257712 -0.179488 0 0 0 -0.722692 -0.016693 -0.303108 0 0 -0.000346714 -34.3414 -417.665 62.8308 0.0015 
8 1 1 -0.170462 0.0021264 -0.17789 0 0 0 -0.884874 0.020741 -0.364773 -0.0001391 4.78709e-06 7.99291e-05 56.5557 -641.045 -173.765 0.0015 
6 1 1 -0.173052 0.00490807 -0.178967 0 0 0 -0.873938 0.0200799 -0.369701 -9.5017e-05 -1.89974e-05 -2.5688e-05 -59.4628 -644.343 105.55 0.0015 
32 1 1 -0.170425 0.00618886 -0.177741 0 0 0 -0.871545 0.0655788 -0.369363 0.000117087 -2.28626e-05 0.000150863 -46.5924 -632.956 -2.15057 0.0015 
24 1 1 -0.177061 0.0149628 -0.179815 0 0 0 -0.965479 0.14773 -0.397878 -9.38732e-05 -1.89644e-05 -2.59294e-05 -73.8515 -695.215 -78.9146 0.0015 
12 1 1 -0.181179 0.0250131 -0.180081 0 0 0 -1.05346 0.152688 -0.411562 -3.54169e-05 -1.29276e-05 -0.000171505 -6.24722 -723.966 -252.606 0.0015 
38 1 1 -0.255496 0.0800256 -0.178238 0 0 0 -1.37901 0.0149321 -0.375851 0 0 -0.000346714 36.4039 -1115.27 -291.616 0.0015 
72 1 1 -0.193814 -0.0590351 -0.174012 0 0 0 -1.22486 -0.305503 -0.337154 -0.000640226 0.000987983 0.00152061 38.7793 -716.039 513.799 0.0015 
35 1 1 -0.166371 -0.0059333 -0.176093 0 0 0 -0.873424 -0.10719 -0.35846 -0.000180385 6.62405e-06 0.000150799 52.9281 -629.865 59.2833 0.0015 
22 1 1 -0.166374 0.000473781 -0.176167 0 0 0 -1.0263 0.0597816 -0.431964 -4.80357e-06 2.28408e-06 -0.000480092 -37.6389 -743.411 -13.4868 0.0015 
71 1 1 -0.162058 0.00353297 -0.174303 0 0 0 -1.0886 0.050786 -0.464923 -5.24698e-05 2.07603e-06 -0.000279709 -42.2189 -789.615 12.2547 0.0015 
26 1 1 -0.17044 0.0155848 -0.175891 0 0 0 -1.02972 0.233877 -0.410335 -0.000431635 -8.3862e-05 -0.000124391 -117.14 -450.943 36.8935 0.0025 
37 1 1 -0.164821 0.0154701 -0.174641 0 0 0 -0.952606 0.172718 -0.384699 -0.000265723 -5.45286e-05 0.000382859 -111.905 -689.652 -31.5493 0.0015 
48 1 1 -0.17752 0.0356672 -0.176398 0 0 0 -0.918093 0.225398 -0.298544 9.56321e-05 9.57186e-05 -0.000566583 -94.0151 -628.624 -187.566 0.0015 
14 1 1 -0.158319 -0.00965209 -0.171429 0 0 0 -0.964643 -0.104062 -0.406401 -0.000409313 5.33368e-05 -0.000206002 46.9928 -420.732 -3.77114 0.0025 
57 1 1 -0.153418 0.000758616 -0.170664 0 0 0 -1.01839 -0.0266447 -0.419566 -8.38894e-05 -2.45026e-06 -3.94306e-05 -18.4861 -735.718 91.6395 0.0015 
3 1 1 -0.164834 0.0271788 -0.171719 0 0 0 -0.999514 0.1105 -0.399576 -4.0648e-05 -4.38439e-06 -0.00104993 -13.649 -424.397 -83.6002 0.0025 
51 1 1 -0.163825 0.0368127 -0.170382 0 0 0 -1.04671 0.215647 -0.365445 -8.13528e-05 -6.21535e-05 -5.03129e-05 -84.1283 -727.651 -188.408 0.0015 
41 1 1 -0.151333 -0.022709 -0.166995 0 0 0 -0.893317 0.142605 -0.437631 0 0 -0.00160516 -91.9456 -371.498 78.3732 0.0025 
52 1 1 -0.153865 -0.0183559 -0.168691 0 0 0 -0.763593 -0.0568093 -0.308301 -0.000449763 0.000130913 -7.48452e-05 -12.0906 -321.974 89.2332 0.0025 
50 1 1 -0.149852 -0.0133904 -0.168676 0 0 0 -0.743758 0.0281593 -0.32062 -8.86803e-05 2.10385e-05 -4.00158e-05 13.7051 -549.936 -80.0919 0.0015 
49 1 1 -0.145577 0.0110862 -0.167039 0 0 0 -0.781154 0.0978163 -0.297395 0 0 -0.000346714 -39.61 -553.758 -78.4982 0.0015 
16 1 1 -0.155273 0.0179976 -0.169301 0 0 0 -0.983901 0.0110737 -0.423014 0.000148487 4.82059e-05 -0.00133506 36.3361 -420.517 -95.5702 0.0025 
75 1 1 -0.152629 0.0240869 -0.168404 0 0 0 -0.979148 0.0154279 -0.392915 -8.31635e-05 -3.99221e-05 -4.19764e-05 -30.7911 -725.166 48.2551 0.0015 
113 1 1 -0.147218 -0.0211482 -0.166687 0 0 0 -0.854249 0.101739 -0.377155 -0.000274354 0.000130117 0.000181185 -147.54 -597.184 171.154 0.0015 
28 1 1 -0.140265 -0.013107 -0.163512 0 0 0 -0.908139 0.0689077 -0.387 0 0 -0.00160516 -54.952 -389.011 60.2829 0.0025 
76 1 1 -0.15499 -0.0101417 -0.165721 0 0 0 -0.915748 0.0651395 -0.45898 0 0 -0.000346714 -120.303 -383.935 -9.27578 0.0015 
25 1 1 -0.136415 -0.00859847 -0.163359 0 0 0 -0.7811 0.0697088 -0.325797 -0.000106313 6.05725e-06 -1.15454e-06 -98.5649 -561.563 116.005 0.0015 
56 1 1 -0.145003 0.00794637 -0.166539 0 0 0 -0.868905 0.0222089 -0.426786 0 0 -0.000346714 8.60413 -511.894 69.4651 0.0015 
55 1 1 -0.14098 0.0120541 -0.163979 0 0 0 -0.948722 0.132338 -0.379147 -0.00320596 -0.000968036 0.0082895 -62.4697 -418.243 14.2319 0.0025 
46 1 1 -0.138757 0.0158692 -0.16368 0 0 0 -0.828089 0.0930327 -0.359771 0 0 -0.000346714 -42.9763 -593.617 -60.488 0.0015 
60 1 1 -0.132369 -0.00668676 -0.161722 0 0 0 -0.866946 -0.0578553 -0.358862 -8.76833e-05 4.96936e-06 -3.65509e-05 69.6623 -627.927 -67.0578 0.0015 
33 1 1 -0.129359 0.00601663 -0.160332 0 0 0 -0.632758 0.0649591 -0.250666 0 0 -0.000346714 21.8859 -444.057 -162.06 0.0015 
19 1 1 -0.134365 0.014025 -0.162088 0 0 0 -0.798706 0.00465586 -0.327159 -8.90705e-05 -3.43764e-05 5.18124e-05 5.05922 -577.992 -20.0393 0.0015 
40 1 1 -0.132304 0.0182163 -0.15957 0 0 0 -0.848671 0.172413 -0.320945 -0.000378948 -0.000131296 -0.000216043 -87.6366 -374.236 30.6691 0.0025 
78 1 1 -0.136653 0.0247411 -0.160548 0 0 0 -0.893869 0.14237 -0.36327 -0.000265244 -5.10295e-05 -0.000825614 -43.306 -385.893 -45.117 0.0025 
42 1 1 -0.144247 0.0277925 -0.163099 0 0 0 -0.931772 -0.0895554 -0.414479 0 0 -0.00160516 56.4946 -401.827 -41.923 0.0025 
79 1 1 -0.1518 -0.0526906 -0.159016 0 0 0 -1.08102 -0.0223633 -0.422324 0 0 -0.00160516 -27.0784 -455.007 97.7726 0.0025 
111 1 1 -0.126356 -0.00928199 -0.15883 0 0 0 -0.93672 -0.134436 -0.357217 0 0 -0.000346714 -139.349 -225.029 -7.40371 0.0015 
39 1 1 -0.128052 -0.00527008 -0.158881 0 0 0 -0.843642 -0.0471047 -0.350128 -0.000484616 2.84828e-05 3.91967e-05 25.8697 -366.249 -13.1245 0.0025 
53 1 1 -0.123072 -0.00648513 -0.156693 0 0 0 -0.782756 0.0770162 -0.302982 0 0 -0.00160516 -72.6265 -169.883 -74.0335 0.0025 
102 1 1 -0.128213 0.00811323 -0.158368 0 0 0 -0.868219 0.314745 -0.239206 0 0 -0.000346714 -252.003 -505.444 -31.7193 0.0015 
43 1 1 -0.129569 0.0240107 -0.158723 0 0 0 -0.810427 -0.0803396 -0.341415 -8.21747e-05 -2.87639e-05 -4.21974e-05 140.692 -560.027 -202.272 0.0015 
138 1 1 -0.130843 -0.0411437 -0.155568 0 0 0 -1.15245 0.0181813 -0.479532 -2.45799e-06 -7.62878e-06 -0.000267847 -76.7778 -816.873 154.251 0.0015 
107 1 1 -0.124636 -0.0223074 -0.155455 0 0 0 -0.895967 -0.0558118 -0.478656 0 0 -0.00160516 33.1572 -370.91 -4.78768 0.0025 
174 1 1 -0.117509 -0.0257781 -0.152803 0 0 0 -1.12 -0.355191 -0.379429 0 0 -0.000346714 221.449 -479.897 299.348 0.0015 
1 1 1 -0.12271 -0.0151033 -0.155996 0 0 0 -0.819468 -0.000178631 -0.34379 -0.000406398 6.72631e-05 -0.000178128 -45.0647 -348.982 107.595 0.0025 
87 1 1 -0.127837 -0.00832657 -0.155396 0 0 0 -0.913272 -0.215252 -0.478668 0 0 -0.000346714 1.79084 333.062 -11.0459 0.0015 
81 1 1 -0.126489 -0.00353303 -0.155309 0 0 0 -0.938324 -0.00566414 -0.289895 0 0 -0.000346714 -54.7965 89.7482 -1.35715 0.0015 
80 1 1 -0.119867 -0.00402645 -0.153606 0 0 0 -0.734518 0.27261 -0.403526 0 0 -0.00160516 -126.04 117.084 -21.0559 0.0025 
84 1 1 -0.114213 -0.0029195 -0.153515 0 0 0 -0.585391 -0.163768 -0.221293 0 0 -0.000346714 1.5096 -262.728 108.144 0.0015 
108 1 1 -0.112046 -0.000851221 -0.15301 0 0 0 -0.715926 0.0728327 -0.244617 0 0 -0.000346714 -40.1367 -188.109 -100.158 0.0015 
44 1 1 -0.11394 0.00151827 -0.153217 0 0 0 -0.654626 0.0133061 -0.32868 0 0 -0.000346714 -64.647 -375.264 -16.4205 0.0015 
29 1 1 -0.120914 0.00783835 -0.155601 0 0 0 -0.755167 -0.0360614 -0.293428 0 0 -0.00160516 50.2336 -314.827 -87.5053 0.0025 
54 1 1 -0.115544 0.0103003 -0.153282 0 0 0 -0.665771 -0.0484778 -0.287641 0 0 -0.00160516 37.4555 -285.464 -39.3036 0.0025 
88 1 1 -0.118516 0.0132346 -0.155421 0 0 0 -0.692719 -0.0379871 -0.297307 7.51817e-06 4.15704e-05 -1.86266e-05 27.7829 -491.136 -13.2396 0.0015 
58 1 1 -0.116658 0.015098 -0.153922 0 0 0 -0.685346 0.00165142 -0.368254 0 0 -0.000346714 -39.5914 -328.665 -124.21 0.0015 
70 1 1 -0.116619 0.0208628 -0.153804 0 0 0 -0.823373 -0.138728 -0.364729 -8.62932e-05 -3.14709e-05 -4.08029e-05 136.734 -588.009 -85.0201 0.0015 
27 1 1 -0.110842 -0.0122422 -0.151199 0 0 0 -0.74046 -0.132485 -0.302043 -0.000420696 6.54776e-05 -0.000145661 61.9962 -322.71 -10.4343 0.0025 
97 1 1 -0.106168 -0.011387 -0.149729 0 0 0 -0.632891 0.00551712 -0.169521 0 0 -0.000346714 30.3178 -424.119 -66.2504 0.0015 
122 1 1 -0.111451 -0.00457499 -0.152981 0 0 0 -0.808967 -0.142909 -0.268936 0 0 -0.000346714 50.2814 -309.046 14.5898 0.0015 
69 1 1 -0.118025 -0.00022683 -0.150728 0 0 0 -0.994418 0.140158 -0.164651 0 0 -0.000346714 -233.452 13.4391 -106.184 0.0015 
64 1 1 -0.118004 0.00299761 -0.151431 0 0 0 -0.707752 0.0166872 -0.250087 0 0 -0.000346714 -78.1293 -363.973 -46.8703 0.0015 
98 1 1 -0.108546 2.23915e-05 -0.151213 0 0 0 -0.66473 -0.132493 -0.40614 0 0 -0.000346714 58.2752 -410.429 53.6072 0.0015 
96 1 1 -0.123702 0.00950563 -0.152437 0 0 0 -1.20674 -0.000326976 -0.38064 0 0 -0.000346714 54.048 24.5764 -247.155 0.0015 
115 1 1 -0.104151 0.00913668 -0.148986 0 0 0 -0.86152 0.222578 -0.222107 0 0 -0.000346714 -160.422 -579.358 -23.1109 0.0015 
83 1 1 -0.10413 0.0126155 -0.149405 0 0 0 -0.826995 0.126604 -0.336715 -4.06164e-05 -7.16591e-06 -0.000145408 -68.724 -595.122 -55.0101 0.0015 
77 1 1 -0.108974 0.0154236 -0.150156 0 0 0 -0.702551 0.010736 -0.390994 0.00393983 0.00105084 0.0391612 10.2566 -300.86 -37.4009 0.0025 
82 1 1 -0.10706 0.0218622 -0.149663 0 0 0 -0.840722 -0.165677 -0.374921 -9.58589e-05 -4.0376e-05 -2.5018e-05 47.5933 -640.107 175.63 0.0015 
34 1 1 -0.137896 0.0600314 -0.151603 0 0 0 -0.972153 0.182523 -0.305775 -7.35901e-05 -8.03957e-05 -6.17485e-05 -18.9624 -618.135 -308.686 0.0015 
121 1 1 -0.122454 -0.0524684 -0.148388 0 0 0 -0.798725 -0.371875 -0.0741741 0 0 -0.000346714 342.319 -588.277 -85.7337 0.0015 
114 1 1 -0.100109 -0.023041 -0.146599 0 0 0 -0.792611 -0.160331 -0.327522 -0.000316254 0.000137293 0.00294325 41.5037 -558.541 176.849 0.0015 
63 1 1 -0.101681 -0.0180955 -0.147911 0 0 0 -0.697206 0.029724 -0.294815 -8.86108e-05 2.80357e-05 -3.87671e-05 -51.0995 -498.329 70.5558 0.0015 
104 1 1 -0.103444 -0.00721036 -0.147812 0 0 0 -0.696237 0.00541942 -0.238558 0 0 -0.00160516 -20.1059 -280.511 48.7587 0.0025 
91 1 1 -0.0993804 -0.000238142 -0.146832 0 0 0 -0.62865 0.0613832 -0.264044 -0.000409026 -7.10619e-06 -0.000141241 5.82891 -272.546 -77.4175 0.0025 
116 1 1 -0.0976372 0.0121751 -0.145604 0 0 0 -0.708379 -0.0866906 -0.308165 9.80081e-05 -0.000100792 -5.79964e-05 26.8928 -233.483 26.5093 0.0025 
139 1 1 -0.103738 0.0182828 -0.148776 0 0 0 -1.05502 -0.033021 -0.442486 0 0 -0.000346714 24.5139 -758.909 -4.39195 0.0015 
7 1 1 -0.148115 -0.0811701 -0.143215 0 0 0 -0.794896 0.0389193 -0.29624 -0.000149953 0.000334875 0.000261651 -130.969 -473.571 284.43 0.0015 
74 1 1 -0.0964566 -0.0307543 -0.143789 0 0 0 -0.65205 -0.259421 -0.216637 -8.89546e-05 4.43452e-05 -3.29745e-05 212.845 -490.239 -53.624 0.0015 
165 1 1 -0.100822 -0.0200962 -0.141496 0 0 0 -0.977547 -0.0907691 -0.167425 0 0 -0.000346714 212.35 82.0941 25.4295 0.0015 
128 1 1 -0.0964322 -0.0159765 -0.1447 0 0 0 -0.607306 0.107273 -0.226641 0 0 -0.000346714 -84.7207 -402.089 28.187 0.0015 
66 1 1 -0.0902733 -0.0150671 -0.142387 0 0 0 -0.796148 -0.0141463 -0.331269 -0.000255064 3.42471e-05 -0.00059162 -26.6726 -341.131 78.3811 0.0025 
65 1 1 -0.0953189 -0.0119173 -0.144756 0 0 0 -0.524713 -0.0390476 -0.0736978 -0.0135093 -0.00357978 0.0184931 40.3332 -211.265 -43.1286 0.0025 
95 1 1 -0.0913056 -0.00291581 -0.144505 0 0 0 -0.463089 -0.0394229 -0.167905 0 0 -0.000346714 4.77545 -325.132 60.1131 0.0015 
93 1 1 -0.0933426 0.000988584 -0.144267 0 0 0 -0.749002 -0.0540334 -0.32308 -0.000494414 -1.16161e-05 0.000538547 16.0175 -326.863 17.6083 0.0025 
166 1 1 -0.0886841 0.0010907 -0.143387 0 0 0 -0.780354 -0.250237 -0.330325 -8.74824e-05 -2.56251e-06 -3.91783e-05 62.7183 -567.901 282.035 0.0015 
100 1 1 -0.0916138 0.0119982 -0.142173 0 0 0 -0.764245 0.101979 -0.166483 0 0 -0.000346714 -112.196 -378.556 -35.1732 0.0015 
99 1 1 -0.109327 0.0169797 -0.145625 0 0 0 -0.848625 0.0571809 -0.860137 0 0 -0.000346714 215.697 -421.063 142.857 0.0015 
135 1 1 -0.0913372 0.014619 -0.143819 0 0 0 -0.658321 0.0852138 -0.268162 0 0 -0.000346714 -21.3577 -462.784 -98.8878 0.0015 
105 1 1 -0.0861321 -0.0219018 -0.139796 0 0 0 -0.807294 -0.0615889 -0.325497 -0.000440708 0.000168618 -0.000260365 42.8728 -357.02 -38.1793 0.0025 
120 1 1 -0.0964881 -0.0104129 -0.140191 0 0 0 -1.02884 0.214276 -0.18299 -0.00951301 0.00904274 0.0310201 -112.854 -36.0743 -69.225 0.0025 
15 1 1 -0.0912534 -0.00551056 -0.141381 0 0 0 -0.718283 -0.218603 -0.21481 0 0 -0.00160516 70.9809 -75.9483 119.221 0.0025 
90 1 1 -0.0795139 -0.00358288 -0.138479 0 0 0 -0.659096 0.0463826 -0.28207 -0.000411213 4.80113e-05 -0.000177316 -0.932051 -289.164 -45.3712 0.0025 
73 1 1 -0.0835616 0.000816284 -0.141242 0 0 0 -0.520741 0.0565373 -0.216085 -0.000107534 7.44262e-07 1.21712e-07 -23.599 -375.859 -41.4027 0.0015 
123 1 1 -0.083205 0.00453069 -0.141035 0 0 0 -0.647025 0.165099 -0.27227 2.11154e-05 1.32391e-05 9.43185e-06 -58.1121 -318.227 -187.31 0.0015 
103 1 1 -0.0835665 0.0100091 -0.13988 0 0 0 -0.776319 -0.0913652 -0.332574 -0.000395324 -8.39728e-05 -0.000195576 26.5426 -340.734 31.6587 0.0025 
62 1 1 -0.0807121 0.0153162 -0.139302 0 0 0 -0.650195 0.0247425 -0.270962 6.07268e-06 -0.00012033 2.77355e-05 6.84041 -438.412 -8.32146 0.0015 
68 1 1 -0.0822833 0.0206645 -0.13843 0 0 0 -0.549641 -0.00926682 -0.234056 -0.000410501 -8.08019e-05 -0.000178675 9.25064 -238.696 -12.2728 0.0025 
67 1 1 -0.0930717 0.025004 -0.141009 0 0 0 -0.505029 0.149361 -0.188852 0 0 -0.00160516 -62.4596 -192.176 -30.5683 0.0025 
149 1 1 -0.0799764 -0.0313035 -0.136799 0 0 0 -0.720801 -0.161391 -0.265664 -6.54056e-05 2.88055e-05 -0.000100647 41.9088 -492.032 185.039 0.0015 
112 1 1 -0.0762641 -0.0280944 -0.135882 0 0 0 -0.67868 -0.125608 -0.259245 -8.53388e-05 4.02371e-05 -4.36731e-05 -29.343 -441.434 290.699 0.0015 
101 1 1 -0.0725338 -0.0174365 -0.134314 0 0 0 -0.39461 -0.0986106 -0.142202 0 0 -0.000346714 153.916 -260.347 -114.565 0.0015 
169 1 1 -0.0804049 -0.00966717 -0.135211 0 0 0 -0.824885 0.225809 -0.374065 0 0 -0.00160516 -161.301 -224.172 -101.931 0.0025 
127 1 1 -0.076819 -0.00877046 -0.138163 0 0 0 -0.586639 0.00355706 -0.249192 -8.88659e-05 1.03757e-05 -3.82253e-05 -4.58551 -425.299 4.72418 0.0015 
137 1 1 -0.102306 -0.0007435 -0.13873 0 0 0 -0.71424 0.318693 -0.695353 0 0 -0.000346714 -165.637 -371.218 1.31049e-13 0.0015 
129 1 1 -0.0953325 -0.00277808 -0.137883 0 0 0 -0.952186 0.0728069 -0.49197 0 0 -0.00160516 -96.3441 65.3278 -48.523 0.0025 
167 1 1 -0.0882619 -0.00128415 -0.139139 0 0 0 -0.754336 0.145437 -0.497283 0 0 -0.00160516 66.3412 347.841 63.9355 0.0025 
144 1 1 -0.074439 -0.00258061 -0.135615 0 0 0 -0.560291 0.170201 -0.391267 0 0 -0.00160516 70.6422 52.8057 214.362 0.0025 
185 1 1 -0.0821634 0.00424208 -0.13791 0 0 0 -0.744198 0.119926 -0.246868 0 0 -0.000346714 -52.2484 -285.069 26.5144 0.0015 
158 1 1 -0.0774383 0.0101147 -0.137308 0 0 0 -0.663503 -0.00674933 -0.244078 0.00153193 0.000480843 -0.00622308 2.60782 -283.268 -1.89075 0.0025 
189 1 1 -0.0781673 0.0139938 -0.138337 0 0 0 -0.604637 0.0822045 -0.239749 0 0 -0.000346714 145.919 167.017 39.3335 0.0015 
119 1 1 -0.0728028 0.0172867 -0.134716 0 0 0 -0.481573 -0.0477007 -0.215303 -0.000236189 -5.2865e-05 0.000863928 41.1859 -206.671 -47.5696 0.0025 
92 1 1 -0.0841644 0.0288869 -0.137864 0 0 0 -0.528851 0.0729737 -0.208834 0.000609994 0.00027065 -0.00266468 -12.0083 -224.079 -47.8851 0.0025 
173 1 1 -0.0774973 0.0319392 -0.135106 0 0 0 -0.74158 0.173962 -0.258154 0 0 -0.000346714 -118.278 -508.264 -43.7946 0.0015 
130 1 1 -0.0854441 0.0428506 -0.135287 0 0 0 -0.604225 0.0938228 -0.215901 0 0 -0.00160516 -6.61324 -240.902 -92.1355 0.0025 
94 1 1 -0.0956083 0.0551858 -0.135563 0 0 0 -0.623842 0.0500365 -0.239149 -0.000411254 -0.000345021 -0.000114364 12.538 -253.886 -85.7398 0.0025 
179 1 1 -0.0922796 -0.0580024 -0.134036 0 0 0 -0.699468 -0.467165 -0.11394 0 0 -0.000346714 291.989 -435.576 194.633 0.0015 
106 1 1 -0.0761359 -0.0316738 -0.134023 0 0 0 -0.689811 -0.127374 -0.263557 -0.000395048 0.000186277 -0.000202068 36.7399 -295.085 46.4513 0.0025 
117 1 1 -0.0707558 -0.020941 -0.133456 0 0 0 -0.753026 0.00405805 -0.314542 -0.000455831 0.000123882 -7.10087e-05 -37.6038 -318.275 85.8142 0.0025 
131 1 1 -0.0868643 -0.0166119 -0.136684 0 0 0 -0.697838 0.0433516 -0.765735 0 0 -0.00160516 -128.245 -158.403 34.4151 0.0025 
59 1 1 -0.0682978 -0.0130206 -0.134357 0 0 0 -0.479057 0.025422 -0.202468 -8.8247e-05 9.86536e-06 -3.754e-05 14.7819 -350.632 -79.0008 0.0015 
155 1 1 -0.0696205 -0.00637378 -0.134143 0 0 0 -0.547478 0.158224 -0.24515 -0.000625561 6.19583e-05 0.00232653 -68.4913 -239.66 -1.08711 0.0025 
180 1 1 -0.06294 0.00366358 -0.131395 0 0 0 -0.573369 -0.087359 -0.242793 -0.000411199 -2.40787e-05 -0.000181669 55.3926 -247.973 -41.5064 0.0025 
13 1 1 -0.091977 0.0160683 -0.134874 0 0 0 -0.790169 -0.0755974 -0.418436 0 0 -0.00160516 22.2829 81.6203 -13.7847 0.0025 
136 1 1 -0.0638807 0.0234964 -0.13142 0 0 0 -0.613825 0.114285 -0.236517 -6.14249e-05 -2.87358e-05 -6.46541e-05 -23.021 -424.1 -145.435 0.0015 
161 1 1 -0.072742 0.0285039 -0.134241 0 0 0 -0.647358 0.0875916 -0.258383 -0.000112503 -4.42739e-05 1.15294e-05 -52.7934 -469.709 -26.9631 0.0015 
140 1 1 -0.102567 0.0584321 -0.13574 0 0 0 -0.722634 0.270636 -0.681219 0 0 -0.000346714 260.994 -389.889 163.549 0.0015 
181 1 1 -0.0618042 -0.0284957 -0.128659 0 0 0 -0.434221 -0.0187489 -0.148013 0.00295792 -0.00145839 -0.00483395 -21.1684 -171.681 75.5781 0.0025 
193 1 1 -0.0638656 -0.015966 -0.131141 0 0 0 -0.786364 0.110455 -0.346178 -0.000419586 0.000120072 -8.89274e-05 -50.6415 -343.233 5.46135 0.0025 
157 1 1 -0.0622832 -0.0112732 -0.129731 0 0 0 -0.711552 -0.0317277 -0.697761 0 0 -0.00160516 -151.017 -131.734 -65.673 0.0025 
191 1 1 -0.052609 -0.0086984 -0.127945 0 0 0 -0.575193 -0.0396616 -0.240009 -8.82854e-05 8.97572e-06 -3.74817e-05 -16.0981 -411.926 106.651 0.0015 
168 1 1 -0.0615915 -0.00500651 -0.129489 0 0 0 -0.640062 -0.250831 -0.500792 0 0 -0.00160516 -0.284387 -15.4326 101.731 0.0025 
132 1 1 -0.0750375 0.00572665 -0.128875 0 0 0 -0.71597 -0.0664785 -0.461078 0 0 -0.00160516 -123.469 298.795 -66.7671 0.0025 
110 1 1 -0.0799738 0.00943267 -0.129499 0 0 0 -0.787263 -0.0809739 -0.231422 0 0 -0.000346714 15.9792 -144.379 -94.3964 0.0015 
124 1 1 -0.0552441 0.00937199 -0.128922 0 0 0 -0.50519 -0.305169 -0.105472 0 0 -0.000346714 223.165 -333.484 -3.75785 0.0015 
148 1 1 -0.0605562 0.0208957 -0.130326 0 0 0 -0.590075 0.0305422 -0.237193 -8.28183e-05 -1.88519e-05 -4.44023e-05 -73.167 -438.131 125.558 0.0015 
194 1 1 -0.0719802 -0.0460082 -0.128493 0 0 0 -0.887637 -0.441045 -0.588524 0 0 -0.00160516 248.016 258.491 96.0867 0.0025 
126 1 1 -0.0552542 -0.0256322 -0.127484 0 0 0 -0.498706 -0.0188101 -0.206488 -8.71548e-05 2.42702e-05 -3.92951e-05 -95.9752 -332.135 262.053 0.0015 
143 1 1 -0.0649676 -0.0249669 -0.127052 0 0 0 -0.728083 -0.11854 -0.371405 0 0 -0.00160516 43.166 126.706 83.4855 0.0025 
177 1 1 -0.0678787 -0.0209401 -0.126629 0 0 0 -0.784881 -0.156527 -0.606816 0 0 -0.000346714 -126.743 -262.175 -161.616 0.0015 
147 1 1 -0.0519695 -0.0146616 -0.12737 0 0 0 -0.512969 0.0510344 -0.222296 -8.78295e-05 2.37391e-05 -3.94789e-05 -48.7724 -370.282 27.538 0.0015 
118 1 1 -0.046656 -0.00109233 -0.124609 0 0 0 -0.40401 -0.00943455 -0.15999 0 0 -0.00160516 5.34939 -160.505 8.82828 0.0025 
109 1 1 -0.050321 0.00182799 -0.127188 0 0 0 -0.416722 -0.0651206 -0.18206 -6.21392e-05 -3.3814e-06 -0.000145261 36.7231 -303.797 24.5917 0.0015 
160 1 1 -0.0471788 0.00370025 -0.125645 0 0 0 -0.380011 0.190237 -0.164648 0 0 -0.000346714 20.9985 -195.13 3.60744 0.0015 
154 1 1 -0.0440938 0.00493113 -0.124171 0 0 0 -0.304863 0.0980436 -0.123771 0 0 -0.000346714 -35.9812 -195.786 -80.4239 0.0015 
152 1 1 -0.0986297 0.00804114 -0.128647 0 0 0 -0.863483 -0.00874044 -0.574657 0 0 -0.000346714 83.1315 -292.5 132.925 0.0015 
163 1 1 -0.0847385 0.00739649 -0.127309 0 0 0 -0.717385 -0.319909 -0.571757 0 0 -0.000346714 166.308 -372.94 1.57058e-13 0.0015 
145 1 1 -0.0520544 0.00686784 -0.126308 0 0 0 -0.629881 -0.169695 -0.3778 0 0 -0.00160516 65.0757 149.728 -5.37137 0.0025 
199 1 1 -0.0650921 0.0144503 -0.126443 0 0 0 -0.9371 0.232945 -0.474067 0 0 -0.000346714 -331.629 -563.636 -24.6884 0.0015 
183 1 1 -0.0571988 0.00942179 -0.12522 0 0 0 -0.9648 -0.364519 -0.127292 0 0 -0.00160516 -86.3109 23.7513 -54.6006 0.0025 
9 1 1 -0.0811095 0.0717892 -0.123824 0 0 0 -0.412752 0.0545596 -0.138093 -7.18283e-05 -8.2157e-05 -6.53518e-05 -44.3043 -323.054 4.78649 0.0015 
171 1 1 -0.0876436 -0.0272836 -0.124376 0 0 0 -1.04624 -0.187962 -0.499993 0 0 -0.000346714 -67.283 -233.374 -305.453 0.0015 
206 1 1 -0.0515534 -0.0242885 -0.121622 0 0 0 -0.538096 0.0702735 -0.318043 0 0 -0.00160516 -23.9653 -184.476 38.5764 0.0025 
188 1 1 -0.0434049 -0.0266116 -0.122162 0 0 0 -0.461186 0.0200349 -0.361147 0 0 -0.000346714 65.5161 -320.391 -141.7 0.0015 
176 1 1 -0.0383186 -0.0243584 -0.120116 0 0 0 -0.155356 -0.0586658 0.0229072 0 0 -0.000346714 180.583 -115.251 -308.707 0.0015 
205 1 1 -0.0443215 -0.0153334 -0.123509 0 0 0 -0.868497 0.137296 -0.079944 0 0 -0.000346714 -77.3943 -551.317 -2.87598 0.0015 
125 1 1 -0.0381584 -0.0165986 -0.121327 0 0 0 -0.277814 -0.0111045 -0.118621 -8.92012e-05 2.14134e-05 -4.06724e-05 71.3128 -217.877 -146.62 0.0015 
198 1 1 -0.0625172 -0.0110831 -0.122527 0 0 0 -0.650597 -0.296708 -0.366611 0 0 -0.000346714 -267.498 -380.614 -200.252 0.0015 
172 1 1 -0.0765705 -0.00382199 -0.122852 0 0 0 -0.727883 0.299697 -0.47644 0 0 -0.000346714 -156.375 -379.791 5.10942e-14 0.0015 
178 1 1 -0.07534 0.00142044 -0.123947 0 0 0 -0.733672 -0.0480067 -0.497484 0 0 -0.000346714 -53.1085 -317.226 -65.5963 0.0015 
228 1 1 -0.0383205 0.00316796 -0.122161 0 0 0 -0.730325 -0.0040284 -0.034139 0.00153078 0.000435173 -0.00422014 105.73 -462.195 -234.975 0.0015 
221 1 1 -0.0497799 0.00222835 -0.120806 0 0 0 -0.768587 -0.37629 -0.116473 0 0 -0.00160516 241.362 -76.4441 77.5254 0.0025 
159 1 1 -0.0812594 0.00818208 -0.124259 0 0 0 -0.727991 -0.264533 -0.52622 0 0 -0.000346714 135.577 -373.108 2.76099e-14 0.0015 
151 1 1 -0.0732714 0.010182 -0.125384 0 0 0 -0.730455 -0.170603 -0.672762 0 0 -0.000346714 87.8954 -376.333 -1.05237e-14 0.0015 
200 1 1 -0.0522922 -0.0623366 -0.116409 0 0 0 -0.630341 -0.536544 -0.0345309 -8.08414e-05 8.70983e-05 -3.41512e-05 301.125 -371.638 276.753 0.0015 
243 1 1 -0.0475078 -0.031146 -0.118947 0 0 0 -1.10588 0.225772 -0.236506 0 0 -0.000346714 -151.288 -700.202 73.2054 0.0015 
253 1 1 -0.037497 -0.0267204 -0.116457 0 0 0 -0.715924 0.319445 0.193549 0 0 -0.000346714 -165.162 -370.152 2.26491e-14 0.0015 
142 1 1 -0.0341061 -0.015422 -0.118654 0 0 0 -0.40964 0.0048385 -0.167596 -0.0179805 0.0101399 0.0470004 26.6541 -193.571 -61.0998 0.0025 
150 1 1 -0.0606713 -0.0100434 -0.118773 0 0 0 -0.586293 -0.0855 -0.536283 0 0 -0.000346714 -222.778 -463.567 168.636 0.0015 
218 1 1 -0.0437954 -0.00770294 -0.120772 0 0 0 -0.742298 0.15399 -0.371423 0 0 -0.000346714 -117.049 -463.356 40.7966 0.0015 
225 1 1 -0.051749 -0.00680387 -0.116192 0 0 0 -0.735338 0.0483115 0.0849124 0 0 -0.000346714 -24.8105 -377.635 2.51046e-14 0.0015 
195 1 1 -0.0321092 -0.00559341 -0.118253 0 0 0 -0.502786 0.1943 -0.166951 0 0 -0.00160516 -90.8291 -208.509 18.8804 0.0025 
162 1 1 -0.0331025 0.0013736 -0.119987 0 0 0 -0.391286 -0.011966 -0.170741 -5.0864e-05 1.56732e-06 -8.54692e-05 -0.0474962 -284.424 20.2261 0.0015 
242 1 1 -0.0359251 0.000160851 -0.118774 0 0 0 -0.697287 0.0661667 -0.534085 0 0 -0.000346714 85.8484 -42.2049 239.698 0.0015 
141 1 1 -0.0282086 0.00281719 -0.117892 0 0 0 -0.347276 -0.165645 -0.147946 -9.0103e-05 2.55981e-06 -3.89442e-05 77.1996 -251.107 99.9358 0.0015 
204 1 1 -0.0648362 0.00946884 -0.119677 0 0 0 -0.94184 0.265268 -0.383014 0 0 -0.000346714 -156.011 -439.85 35.1347 0.0015 
170 1 1 -0.0330436 0.00661598 -0.118318 0 0 0 -0.386459 -0.214639 -0.233395 0 0 -0.00160516 86.4326 -152.315 11.1799 0.0025 
208 1 1 -0.0645899 0.0162657 -0.119365 0 0 0 -0.911011 -0.0196086 -0.214952 0 0 -0.00160516 -13.9262 -316.867 26.3988 0.0025 
209 1 1 -0.0341101 0.020258 -0.116823 0 0 0 -0.648926 -0.128243 0.00883375 0 0 -0.00160516 43.7207 -230.416 -6.47538 0.0025 
134 1 1 -0.0599719 0.0313481 -0.120822 0 0 0 -0.378435 0.170477 -0.648631 0 0 -0.000346714 -203.412 441.886 -62.7026 0.0015 
210 1 1 -0.0464826 0.030633 -0.119504 0 0 0 -0.727298 -0.0749875 -0.347195 0 0 -0.00160516 34.8221 -229.284 -71.4303 0.0025 
89 1 1 -0.0953965 0.0428624 -0.119568 0 0 0 -0.5528 0.273197 -0.627888 0 0 -0.000346714 -314.22 -140.985 -64.0011 0.0015 
86 1 1 -0.0507796 0.0563923 -0.118182 0 0 0 -0.349902 0.0325656 -0.132682 -7.65616e-05 -6.39795e-05 -6.1726e-05 62.6812 -191.72 -212.297 0.0015 
256 1 1 -0.0341335 -0.0334624 -0.112304 0 0 0 -0.939503 -0.14574 0.114031 0 0 -0.000346714 281.63 -408.1 -23.8757 0.0015 
237 1 1 -0.0321027 -0.0304855 -0.116666 0 0 0 -0.372653 0.22636 -0.174037 0 0 -0.000346714 -128.181 -265.64 -67.9828 0.0015 
227 1 1 -0.0286501 -0.0288869 -0.114679 0 0 0 -0.49392 -0.0876125 -0.149113 0 0 -0.000346714 123.546 -271.436 -15.2234 0.0015 
219 1 1 -0.033038 -0.026575 -0.115927 0 0 0 -0.627776 -0.11048 -0.307285 0 0 -0.00160516 53.5726 -144.321 60.369 0.0025 
240 1 1 -0.0266044 -0.0193785 -0.115924 0 0 0 -0.331532 0.372736 -0.11325 0 0 -0.000346714 -346.657 39.3541 41.5915 0.0015 
250 1 1 -0.0256487 -0.0165298 -0.114717 0 0 0 -0.183325 -0.548901 0.194188 0 0 -0.000346714 369.754 -51.8233 115.39 0.0015 
175 1 1 -0.0581224 -0.00713372 -0.115897 0 0 0 -0.713733 0.262026 -0.521253 0 0 -0.000346714 -134.947 -367.581 4.36608e-14 0.0015 
251 1 1 -0.0346064 -0.00907325 -0.11696 0 0 0 -0.633795 -0.160935 -0.398132 0 0 -0.000346714 336.563 154.142 85.9504 0.0015 
223 1 1 -0.036432 -0.00338124 -0.118218 0 0 0 -0.799493 -0.208506 -0.614883 0 0 -0.000346714 -8.23072 -214.328 -227.399 0.0015 
164 1 1 -0.0756354 0.00291037 -0.117273 0 0 0 -0.766489 -0.0655395 -0.377954 0 0 -0.000346714 26.9906 -313.287 -65.5963 0.0015 
245 1 1 -0.039022 0.00397617 -0.118308 0 0 0 -0.884937 0.236349 0.171014 0.00286622 -0.00127235 -0.0124419 -110.734 196.824 -66.1766 0.0025 
231 1 1 -0.0267921 0.0043997 -0.11421 0 0 0 -0.162313 -0.00160713 -0.314462 0 0 -0.00160516 -53.0282 -127.329 -7.23481 0.0025 
229 1 1 -0.0340366 0.0120562 -0.117048 0 0 0 -0.355881 -0.0676389 -0.580762 0 0 -0.000346714 -109.618 363.146 -7.29039 0.0015 
187 1 1 -0.0654867 0.0137179 -0.114481 0 0 0 -0.721234 -0.2348 -0.270309 0 0 -0.000346714 119.521 -367.133 -2.96941e-14 0.0015 
232 1 1 -0.0465319 0.0152701 -0.115657 0 0 0 -0.753363 -0.301515 -0.0212118 0 0 -0.00160516 103.622 -250.001 9.26853 0.0025 
156 1 1 -0.0368272 0.0160293 -0.116122 0 0 0 -0.366891 0.0102837 -0.118127 0 0 -0.00160516 4.48985 -108.727 -54.2127 0.0025 
255 1 1 -0.0263892 0.0146873 -0.11422 0 0 0 -0.901892 -0.621505 -0.359618 0 0 -0.000346714 416.343 -603.777 64.1246 0.0015 
203 1 1 -0.0676999 0.018814 -0.116324 0 0 0 -0.721311 -0.321659 -0.244384 0 0 -0.000346714 167.198 -374.935 -9.98108e-14 0.0015 
211 1 1 -0.0599616 0.0172305 -0.114557 0 0 0 -0.718605 -0.293393 -0.103352 0 0 -0.000346714 149.838 -366.996 5.733e-14 0.0015 
184 1 1 -0.0465408 0.0284814 -0.112373 0 0 0 -0.738272 0.13391 0.0955216 0 0 -0.000346714 -126.183 -377.335 -40.8689 0.0015 
215 1 1 -0.0354204 0.0274579 -0.116882 0 0 0 -0.288639 0.101284 -0.536728 0 0 -0.000346714 553.492 -758.668 114.664 0.0015 
220 1 1 -0.027248 0.0243235 -0.113563 0 0 0 -0.174528 -0.15319 -0.270422 0 0 -0.00160516 111.587 -55.0045 20.6009 0.0025 
254 1 1 -0.0389497 0.030141 -0.114443 0 0 0 -0.497038 -0.22088 0.199387 0 0 -0.000346714 106.96 -221.653 -6.40741 0.0015 
146 1 1 -0.0539287 -0.0797959 -0.108868 0 0 0 -0.369094 -0.562021 0.162089 -6.55518e-05 9.38557e-05 -7.17678e-05 349.542 -153.989 262.014 0.0015 
214 1 1 -0.0214532 -0.0281016 -0.11273 0 0 0 -0.674202 0.244828 -0.186645 0 0 -0.000346714 -172.012 -455.072 15.1021 0.0015 
236 1 1 -0.0197268 -0.0314914 -0.111274 0 0 0 -0.14491 0.00426745 -0.322463 0 0 -0.000346714 -80.6667 -730.351 21.4638 0.0015 