ITEM: TIMESTEP
72800
ITEM: NUMBER OF ATOMS
801
ITEM: BOX BOUNDS ff ff ff
-0.5 0.1
-0.2 0.2
-0.4 0.15
ITEM: ATOMS id type type x y z ix iy iz vx vy vz fx fy fz omegax omegay omegaz radius 
930 1 1 -0.00467171 0.022926 0.0518528 0 0 0 -0 0 -1 0 0 0 0 0 0 0.0015 
932 1 1 -0.0199733 0.00632549 0.052564 0 0 0 -0 0 -1 0 0 0 0 0 0 0.0015 
925 1 1 -0.0150074 0.0170284 0.0541379 0 0 0 -0 0 -1 0 0 0 0 0 0 0.0025 
928 1 1 -0.00352865 -0.0154181 0.0533515 0 0 0 -0 0 -1 0 0 0 0 0 0 0.0015 
936 1 1 -0.00692763 -0.0197331 0.0523825 0 0 0 -0 0 -1 0 0 0 0 0 0 0.0015 
926 1 1 -0.0168638 0.0244523 0.0498163 0 0 0 0 0 -1.00181 0 0 -0.00160516 0 0 0 0.0025 
931 1 1 -0.00220252 0.0202693 0.0508724 0 0 0 -0 0 -1 0 0 0 0 0 0 0.0015 
924 1 1 -0.0103739 -0.00577765 0.0501237 0 0 0 -0 0 -1 0 0 0 0 0 0 0.0025 
110 1 1 -0.456184 -0.0224025 -0.395012 0 0 0 -0.938657 -0.136414 -1.77339 0 0 -0.000346714 17.4258 -542.259 -2.09917 0.0015 
169 1 1 -0.457366 0.00181266 -0.39365 0 0 0 -0.993969 -0.0523926 -1.82965 0 0 -0.00160516 -74.29 -423.412 -21.6146 0.0025 
289 1 1 -0.451676 0.0151163 -0.396482 0 0 0 -1.01351 -0.0734463 -1.86761 0 0 -0.000346714 -9.09044 -543.624 102.941 0.0015 
194 1 1 -0.465701 0.0185257 -0.389399 0 0 0 -1.10952 0.496096 -1.86967 0 0 -0.00160516 -298.467 -421.307 192.778 0.0025 
184 1 1 -0.476574 -0.00922434 -0.378536 0 0 0 -1.27399 -0.271361 -1.72468 0 0 -0.000346714 213.733 -888.409 -42.4456 0.0015 
163 1 1 -0.450494 0.0032709 -0.37969 0 0 0 -1.01231 0.0128169 -1.709 0 0 -0.000346714 31.6847 -707.681 7.95581 0.0015 
67 1 1 -0.470842 0.00855312 -0.379621 0 0 0 -1.15993 -0.025382 -1.69229 0 0 -0.00160516 75.5539 -398.094 -46.3078 0.0025 
204 1 1 -0.45505 0.0134775 -0.381279 0 0 0 -0.99054 -0.185185 -1.75273 0 0 -0.000346714 209.691 -691.083 -169.486 0.0015 
150 1 1 -0.462789 -0.0314815 -0.375649 0 0 0 -1.1301 -0.0472229 -1.71117 0 0 -0.000346714 -99.481 -786.221 286.276 0.0015 
65 1 1 -0.455252 -0.00916874 -0.376305 0 0 0 -1.02736 -0.0275412 -1.68331 0 0 -0.00160516 36.4644 -448.4 -58.5931 0.0025 
151 1 1 -0.460859 0.00530109 -0.375806 0 0 0 -1.09504 0.00521485 -1.68075 0 0 -0.000346714 -73.6914 -748.728 -85.419 0.0015 
187 1 1 -0.45943 -0.00846161 -0.372773 0 0 0 -1.03602 -0.166614 -1.64805 0 0 -0.000346714 -94.216 -487.749 108.677 0.0015 
131 1 1 -0.455159 -8.43914e-05 -0.369967 0 0 0 -1.06047 0.0127585 -1.64518 0 0 -0.00160516 -21.5098 -451.351 42.9886 0.0025 
148 1 1 -0.434421 0.00656365 -0.367677 0 0 0 -0.891873 -0.0193385 -1.66583 0 0 -0.000346714 289.653 -341.242 14.0345 0.0015 
95 1 1 -0.448595 0.00847883 -0.3708 0 0 0 -1.01777 0.0447613 -1.64773 0 0 -0.000346714 -79.8216 -745.486 109.778 0.0015 
90 1 1 -0.448079 -0.000969177 -0.366994 0 0 0 -1.04056 0.00988612 -1.63736 0 0 -0.00160516 10.5195 -430.119 -30.2997 0.0025 
143 1 1 -0.463627 0.00516113 -0.367222 0 0 0 -1.20098 0.209653 -1.66792 0 0 -0.00160516 -144.076 -500.166 126.817 0.0025 
177 1 1 -0.45396 -0.0017014 -0.360691 0 0 0 -1.14715 0.132664 -1.61066 0 0 -0.000346714 -58.4485 -848.324 -95.2034 0.0015 
136 1 1 -0.454565 0.0023411 -0.359895 0 0 0 -1.0506 -0.0410702 -1.56195 0 0 -0.000346714 -18.4602 -729.004 -118.572 0.0015 
161 1 1 -0.430671 -0.00242872 -0.360412 0 0 0 -0.97153 -0.167016 -1.67261 0 0 -0.000346714 -239.173 -98.2788 84.1176 0.0015 
172 1 1 -0.417573 0.0160555 -0.359114 0 0 0 -0.764985 0.0184259 -1.55982 0 0 -0.000346714 -36.3449 -204.036 -265.701 0.0015 
214 1 1 -0.453101 -0.0263068 -0.355183 0 0 0 -1.18569 0.111194 -1.63884 0 0 -0.000346714 -83.0994 -915.365 -4.93271 0.0015 
198 1 1 -0.456132 -0.026427 -0.350717 0 0 0 -1.13758 0.116921 -1.57188 0 0 -0.000346714 -80.478 -897.555 -10.3047 0.0015 
210 1 1 -0.446653 0.0160036 -0.352538 0 0 0 -1.11113 -0.00942351 -1.5605 0 0 -0.00160516 37.4291 -475.028 -78.8357 0.0025 
175 1 1 -0.443694 -0.0118831 -0.347165 0 0 0 -1.02761 -0.216481 -1.436 0 0 -0.000346714 187.482 -634.926 88.5663 0.0015 
212 1 1 -0.452487 0.0261586 -0.3464 0 0 0 -1.21134 -0.064005 -1.55198 0 0 -0.000346714 143.661 -835.886 -232.941 0.0015 
153 1 1 -0.432569 -0.0057434 -0.344418 0 0 0 -1.01583 -0.0284624 -1.47709 0 0 -0.000346714 -45.0149 -722.203 160.275 0.0015 
265 1 1 -0.431595 0.0267037 -0.34738 0 0 0 -0.987278 -0.431775 -1.84965 0 0 -0.000346714 641.773 -429.402 -512.99 0.0015 
221 1 1 -0.445425 -0.0205502 -0.33968 0 0 0 -1.19685 0.0788713 -1.51043 0 0 -0.00160516 46.1343 -420.092 62.5528 0.0025 
15 1 1 -0.422818 -0.0103868 -0.339748 0 0 0 -1.00466 0.0302447 -1.49457 0 0 -0.00160516 -52.1407 -288.095 58.0442 0.0025 
167 1 1 -0.425154 -0.00384466 -0.3359 0 0 0 -0.984101 -0.00310899 -1.42312 0 0 -0.00160516 3.00523 -426.073 -3.53896 0.0025 
123 1 1 -0.428071 0.00698352 -0.33578 0 0 0 -1.05613 0.0224199 -1.43015 0 0 -0.000346714 3.88147 -763.446 -47.503 0.0015 
224 1 1 -0.43957 0.0158759 -0.334813 0 0 0 -1.21595 -0.0697075 -1.46293 0 0 -0.000346714 69.4761 -885.323 -44.1922 0.0015 
205 1 1 -0.42455 -0.0173351 -0.331267 0 0 0 -1.0625 -0.0173898 -1.44103 0 0 -0.000346714 -10.5004 -705.017 -133.94 0.0015 
200 1 1 -0.402506 -0.0311181 -0.330538 0 0 0 -0.763939 -0.0851092 -1.44339 0 0 -0.000346714 -272.422 -116.611 -16.6336 0.0015 
219 1 1 -0.424572 -0.0108679 -0.327198 0 0 0 -1.11082 0.0553876 -1.40228 0 0 -0.00160516 -57.456 -407.681 66.7014 0.0025 
213 1 1 -0.410526 -0.00237386 -0.328554 0 0 0 -0.923552 -0.00290206 -1.37598 0 0 -0.000346714 12.4447 -326.308 43.9774 0.0015 
73 1 1 -0.413277 0.00188953 -0.329338 0 0 0 -0.973773 0.0164436 -1.39859 0 0 -0.000346714 -25.3215 -617.309 8.82711 0.0015 
192 1 1 -0.425885 0.0123624 -0.327325 0 0 0 -0.900325 -0.0426275 -1.36979 0 0 -0.000346714 -46.4395 -449.048 -130.891 0.0015 
208 1 1 -0.424448 0.0162428 -0.32925 0 0 0 -1.04016 0.013282 -1.39314 0 0 -0.00160516 4.40502 -454.321 -25.219 0.0025 
119 1 1 -0.425303 0.00432842 -0.32607 0 0 0 -1.11678 -0.00630556 -1.37854 0 0 -0.00160516 -1.58639 -487.378 9.75291 0.0025 
244 1 1 -0.427476 0.0145425 -0.323652 0 0 0 -1.17365 0.0161611 -1.35356 0 0 -0.00160516 24.4282 -488.323 -76.4254 0.0025 
101 1 1 -0.392267 -0.0105547 -0.320084 0 0 0 -0.756817 -0.0902203 -1.38779 0 0 -0.000346714 -28.3705 -280.433 -43.8822 0.0015 
183 1 1 -0.419533 0.000284198 -0.322576 0 0 0 -1.01851 0.140764 -1.33227 0 0 -0.00160516 -26.3056 -327.74 -9.61479 0.0025 
132 1 1 -0.411595 0.00654071 -0.322885 0 0 0 -0.990237 0.0675224 -1.35223 0 0 -0.00160516 14.8907 -289.595 2.05263 0.0025 
293 1 1 -0.435506 0.026924 -0.320745 0 0 0 -1.28315 -0.110707 -1.4045 0 0 -0.000346714 82.9603 -969.846 -0.631742 0.0015 
262 1 1 -0.438428 0.0394962 -0.320644 0 0 0 -1.28094 0.124041 -1.35747 0 0 -0.000346714 -57.362 -937.353 -91.2237 0.0015 
193 1 1 -0.403178 -0.028644 -0.317912 0 0 0 -0.852717 -0.0765502 -1.34146 0 0 -0.00160516 -19.0268 -313.611 44.2248 0.0025 
157 1 1 -0.406614 -0.0168009 -0.316775 0 0 0 -0.847013 0.0631745 -1.26562 0 0 -0.00160516 -15.3931 -351.929 -8.20579 0.0025 
189 1 1 -0.412847 -0.00915633 -0.317242 0 0 0 -0.974528 -0.0587685 -1.26955 0 0 -0.000346714 106.442 -651.39 -29.6752 0.0015 
197 1 1 -0.396052 -0.00782324 -0.317418 0 0 0 -0.781164 -0.00802137 -1.26756 0 0 -0.000346714 17.1181 -481.313 -11.8934 0.0015 
191 1 1 -0.41193 -0.00112154 -0.317351 0 0 0 -1.00926 0.01231 -1.30884 0 0 -0.000346714 -143.128 -351.733 81.2902 0.0015 
144 1 1 -0.406699 0.00139544 -0.31754 0 0 0 -0.983795 0.0215203 -1.31749 0 0 -0.00160516 -59.7677 -370.271 50.4024 0.0025 
218 1 1 -0.417689 -0.0124435 -0.312834 0 0 0 -1.16241 0.0733094 -1.2881 0 0 -0.000346714 -40.6898 -856.813 -30.7497 0.0015 
181 1 1 -0.398483 -0.00225403 -0.314005 0 0 0 -0.948338 0.0556168 -1.31016 0 0 -0.00160516 -147.893 -232.712 -9.95269 0.0025 
155 1 1 -0.405553 0.00474332 -0.312095 0 0 0 -1.02435 0.0338799 -1.27929 0 0 -0.00160516 1.55192 -349.204 26.4785 0.0025 
178 1 1 -0.396437 0.008541 -0.315006 0 0 0 -0.875148 0.0330808 -1.31339 0 0 -0.000346714 -54.1508 -599.63 39.6465 0.0015 
127 1 1 -0.396628 -0.0144072 -0.310542 0 0 0 -0.831664 -0.0487669 -1.2119 0 0 -0.000346714 12.3567 -579.139 19.1742 0.0015 
59 1 1 -0.395269 -0.00784701 -0.307803 0 0 0 -0.838481 0.00623968 -1.20458 0 0 -0.000346714 -35.7349 121.694 7.76013 0.0015 
9 1 1 -0.409326 0.00736066 -0.310601 0 0 0 -1.03234 0.05283 -1.22199 0 0 -0.000346714 6.86682 -694.063 -113.314 0.0015 
211 1 1 -0.384572 -0.0231967 -0.305461 0 0 0 -0.873726 -0.101697 -1.29842 0 0 -0.000346714 -178.623 -327.611 8.8973 0.0015 
259 1 1 -0.423293 -0.0146096 -0.305184 0 0 0 -1.22873 0.123982 -1.19303 0 0 -0.00160516 -68.6659 -469.939 35.8833 0.0025 
182 1 1 -0.395964 -0.0114749 -0.304314 0 0 0 -0.874703 0.00117447 -1.17064 0 0 -0.00160516 -24.6677 -371.655 66.7302 0.0025 
92 1 1 -0.464776 -3.37076e-05 -0.307699 0 0 0 -1.09837 -0.0974242 -1.21894 0 0 -0.00160516 13.3064 -107.421 -112.37 0.0025 
206 1 1 -0.405353 0.00118029 -0.307545 0 0 0 -0.976405 0.0758532 -1.22506 0 0 -0.00160516 -17.202 -170.623 4.82597 0.0025 
276 1 1 -0.409783 0.00651081 -0.30461 0 0 0 -1.10948 -0.0420042 -1.16701 0 0 -0.000346714 27.7378 -715.581 -0.74492 0.0015 
228 1 1 -0.408728 0.0155871 -0.306469 0 0 0 -1.11224 0.00178354 -1.227 0 0 -0.000346714 75.8592 -782.056 -182.758 0.0015 
258 1 1 -0.408366 0.0351617 -0.30825 0 0 0 -1.16534 0.062507 -1.42369 0 0 -0.00160516 -11.6734 176.405 -22.5778 0.0025 
188 1 1 -0.415068 -0.0186496 -0.304218 0 0 0 -1.18406 0.110762 -1.22601 0 0 -0.000346714 -65.3032 -893.373 -32.5978 0.0015 
305 1 1 -0.404994 0.0237922 -0.304484 0 0 0 -1.09384 -0.102151 -1.29738 0 0 -0.000346714 -1.1303 -780.799 -101.29 0.0015 
225 1 1 -0.394132 -0.0144083 -0.297328 0 0 0 -0.962436 0.00897913 -1.12325 0 0 -0.000346714 23.763 -718.116 -73.3922 0.0015 
180 1 1 -0.405811 0.00678747 -0.298317 0 0 0 -1.07507 0.109286 -1.11258 0 0 -0.00160516 -2.30228 -398.032 -60.2754 0.0025 
272 1 1 -0.400652 0.0522776 -0.298751 0 0 0 -0.999806 0.285492 -1.22805 0 0 -0.00160516 9.75074 -59.5008 -143.463 0.0025 
216 1 1 -0.386811 -0.00112098 -0.295693 0 0 0 -0.938118 0.00973268 -1.12451 0 0 -0.000346714 -183.288 -637.657 -39.8282 0.0015 
126 1 1 -0.391187 0.0029138 -0.296223 0 0 0 -0.969099 0.0755784 -1.11623 0 0 -0.000346714 -19.0477 -663.005 -79.6916 0.0015 
145 1 1 -0.394897 0.0109095 -0.295653 0 0 0 -0.961799 0.221409 -1.098 0 0 -0.00160516 -76.3318 -385.074 -25.0555 0.0025 
168 1 1 -0.38983 -0.00301622 -0.291786 0 0 0 -0.970647 0.0401124 -1.07634 0 0 -0.00160516 -36.0981 -414.182 40.4275 0.0025 
202 1 1 -0.392499 0.00479657 -0.28919 0 0 0 -1.04816 0.0527132 -1.03113 0 0 -0.000346714 -93.445 -717.384 28.3075 0.0015 
253 1 1 -0.399274 0.0248738 -0.293305 0 0 0 -1.09504 -0.113846 -1.15551 0 0 -0.000346714 187.587 -742.933 -247.5 0.0015 
232 1 1 -0.395213 -0.0150822 -0.286474 0 0 0 -1.0912 -0.00281361 -1.0217 0 0 -0.00160516 0.912803 -446.291 -12.5083 0.0025 
268 1 1 -0.388332 -0.000110757 -0.288839 0 0 0 -1.06849 -0.0813625 -1.06533 0 0 -0.000346714 90.5287 -770.654 -73.7222 0.0015 
245 1 1 -0.39329 0.0161016 -0.287234 0 0 0 -1.16725 -0.179685 -1.12129 0 0 -0.00160516 98.8841 -514.922 -43.4747 0.0025 
217 1 1 -0.387446 0.0303508 -0.287461 0 0 0 -0.979047 0.0482316 -1.06689 0 0 -0.000346714 -62.3769 -710.188 -149.895 0.0015 
287 1 1 -0.400936 0.0417854 -0.287383 0 0 0 -1.07163 0.0470492 -1.08077 0 0 -0.000346714 29.6621 -756.413 -180.337 0.0015 
156 1 1 -0.388007 0.0142467 -0.283323 0 0 0 -1.13536 -0.146372 -1.06311 0 0 -0.00160516 104.231 -482.863 -93.3553 0.0025 
296 1 1 -0.398374 0.0352847 -0.285253 0 0 0 -1.14681 0.0735282 -1.06719 0 0 -0.00160516 19.6271 -471.011 -120.325 0.0025 
215 1 1 -0.374254 0.00586822 -0.281453 0 0 0 -0.951175 -0.00526021 -0.996158 0 0 -0.000346714 81.017 -671.859 56.629 0.0015 
239 1 1 -0.37583 0.0125594 -0.278924 0 0 0 -0.961078 -0.0352204 -0.955477 0 0 -0.000346714 87.1321 -678.422 -144.801 0.0015 
315 1 1 -0.405283 0.0484609 -0.281335 0 0 0 -1.19537 -0.0474614 -1.12211 0 0 -0.000346714 141.619 -839.23 -269.993 0.0015 
147 1 1 -0.375176 -0.0119404 -0.276011 0 0 0 -1.02829 -0.0381294 -0.924855 0 0 -0.000346714 16.1649 -640.133 56.1681 0.0015 
274 1 1 -0.373034 0.00261127 -0.277187 0 0 0 -0.950556 0.000203931 -0.945529 0 0 -0.00160516 -35.2937 -287.224 55.6583 0.0025 
281 1 1 -0.365189 0.00450606 -0.277137 0 0 0 -0.884606 -0.0265414 -1.00076 0 0 -0.000346714 -242.945 -508.979 156.931 0.0015 
249 1 1 -0.368924 0.0093541 -0.276067 0 0 0 -0.928628 0.0502358 -0.963791 0 0 -0.000346714 -71.0977 -558.863 -75.5902 0.0015 
247 1 1 -0.370722 -0.00652636 -0.273376 0 0 0 -0.932008 -0.0252074 -0.885035 0 0 -0.00160516 -1.36802 -401.64 30.0268 0.0025 
109 1 1 -0.366181 -0.00702127 -0.271549 0 0 0 -0.91466 -0.0674199 -0.861013 0 0 -0.000346714 111.868 -222.572 118.383 0.0015 
124 1 1 -0.368269 0.00414149 -0.272849 0 0 0 -0.985358 0.0571045 -0.890836 0 0 -0.000346714 5.29344 -290.979 -72.1655 0.0015 
201 1 1 -0.369432 0.0148371 -0.273491 0 0 0 -0.942955 0.11093 -0.887334 0 0 -0.000346714 -49.0519 -675.763 -65.0532 0.0015 
311 1 1 -0.385997 0.037816 -0.272176 0 0 0 -1.1993 0.090386 -0.957814 0 0 -0.00160516 -20.5047 -526.685 -51.8186 0.0025 
250 1 1 -0.376021 -0.0270332 -0.268672 0 0 0 -1.17414 0.0758322 -0.913038 0 0 -0.000346714 -86.4605 -854.852 76.913 0.0015 
195 1 1 -0.368132 -0.0104152 -0.268841 0 0 0 -0.950155 -0.00245124 -0.827622 0 0 -0.00160516 -31.7349 -403.29 79.3726 0.0025 
266 1 1 -0.36352 -0.00828286 -0.268907 0 0 0 -0.905617 -0.0577355 -0.831792 0 0 -0.000346714 38.2168 -563.275 170.727 0.0015 
223 1 1 -0.366918 -0.00353852 -0.266842 0 0 0 -0.96782 -0.0410256 -0.78235 0 0 -0.000346714 -14.4538 -65.868 -23.1529 0.0015 
235 1 1 -0.36527 0.00308174 -0.268989 0 0 0 -0.954868 -0.0180792 -0.807189 0 0 -0.000346714 -97.0801 -542.022 70.6628 0.0015 
118 1 1 -0.37249 0.00731141 -0.267292 0 0 0 -1.03421 0.0750674 -0.804406 0 0 -0.00160516 -67.2787 -209.567 -20.9341 0.0025 
160 1 1 -0.362593 0.00529148 -0.269497 0 0 0 -0.939044 -0.00159742 -0.855223 0 0 -0.000346714 7.64473 -602.03 -83.6384 0.0015 
369 1 1 -0.370594 0.0106639 -0.269042 0 0 0 -0.97837 0.0760865 -0.810064 0 0 -0.000346714 -49.8506 -521.834 -142.143 0.0015 
154 1 1 -0.366711 0.00868057 -0.269233 0 0 0 -1.01188 -0.0476029 -0.851933 0 0 -0.000346714 70.4283 -702.067 -115.19 0.0015 
251 1 1 -0.362412 0.0006961 -0.264819 0 0 0 -0.934641 0.0370445 -0.76206 0 0 -0.000346714 -45.3533 -548.355 12.8843 0.0015 
134 1 1 -0.359025 0.00546148 -0.265497 0 0 0 -1.13142 -0.0711879 -0.90067 0 0 -0.000346714 217.192 -761.928 -0.224583 0.0015 
226 1 1 -0.356928 -0.0198885 -0.25927 0 0 0 -1.04074 0.0779308 -0.76115 0 0 -0.000346714 -50.6944 -756.811 -10.2526 0.0015 
299 1 1 -0.354539 -0.000386456 -0.258482 0 0 0 -1.01317 -0.00117368 -0.700241 0 0 -0.00160516 -65.3735 -59.9917 -34.7802 0.0025 
271 1 1 -0.354871 0.00496912 -0.259212 0 0 0 -1.05338 0.020287 -0.762978 0 0 -0.00160516 -14.5474 -428.222 3.29529 0.0025 
286 1 1 -0.359833 0.0089219 -0.260787 0 0 0 -1.21349 -0.123161 -0.81875 0 0 -0.00160516 61.1949 -526.834 -17.8641 0.0025 
261 1 1 -0.364618 -0.0317753 -0.257719 0 0 0 -1.2512 0.216315 -0.861232 0 0 -0.000346714 -219.487 -908.675 154.103 0.0015 
295 1 1 -0.353387 -0.022238 -0.255818 0 0 0 -1.06351 0.0795044 -0.719384 0 0 -0.000346714 -112.987 -745.537 141.606 0.0015 
209 1 1 -0.350287 -0.00870603 -0.255922 0 0 0 -1.01483 -0.0174525 -0.761039 0 0 -0.00160516 98.5795 -406.85 75.5558 0.0025 
282 1 1 -0.344987 -0.00973922 -0.254501 0 0 0 -0.902875 0.0213001 -0.658188 0 0 -0.000346714 178.792 -442.148 131.71 0.0015 
279 1 1 -0.346358 0.000353088 -0.256691 0 0 0 -0.94014 -0.0255148 -0.717878 0 0 -0.000346714 -1.3844 -567.547 17.515 0.0015 
86 1 1 -0.343488 0.00123143 -0.254734 0 0 0 -0.920224 0.0337641 -0.702855 0 0 -0.000346714 123.484 -563.73 199.571 0.0015 
290 1 1 -0.346305 0.00391825 -0.254547 0 0 0 -0.952515 -0.000298131 -0.650404 0 0 -0.000346714 -18.9022 -634.161 -97.4314 0.0015 
252 1 1 -0.352561 0.00853881 -0.25677 0 0 0 -0.996386 -0.126973 -0.672258 0 0 -0.000346714 -38.2103 -713.947 -157.754 0.0015 
347 1 1 -0.353655 0.0126571 -0.256381 0 0 0 -1.25149 -0.0653268 -0.780204 0 0 -0.00160516 39.0311 -548.399 12.5517 0.0025 
222 1 1 -0.357935 0.0148141 -0.258667 0 0 0 -1.23249 -0.0927185 -0.813643 0 0 -0.00160516 99.848 -516.788 -138.809 0.0025 
238 1 1 -0.352635 -0.0280954 -0.252583 0 0 0 -1.10168 -0.0112723 -0.661427 0 0 -0.000346714 -29.0566 -782.247 111.447 0.0015 
176 1 1 -0.347429 -0.0221417 -0.252304 0 0 0 -0.996804 0.0387971 -0.640647 0 0 -0.000346714 -17.5264 -731.744 -22.2109 0.0015 
236 1 1 -0.342279 -0.0137677 -0.252098 0 0 0 -0.89147 0.0898722 -0.624334 0 0 -0.000346714 168.762 -139.541 125.842 0.0015 
207 1 1 -0.349742 -0.0134637 -0.25386 0 0 0 -1.07882 -0.0285322 -0.613446 0 0 -0.00160516 -16.2793 -407.085 136.478 0.0025 
242 1 1 -0.345538 -0.0124577 -0.250179 0 0 0 -1.02009 -0.00840224 -0.489127 0 0 -0.000346714 15.587 -599.835 145.918 0.0015 
278 1 1 -0.343488 -0.00662461 -0.254531 0 0 0 -0.929795 -0.016112 -0.705206 0 0 -0.000346714 -166.104 -638.495 -36.9415 0.0015 
303 1 1 -0.339289 -0.00701926 -0.250635 0 0 0 -0.932948 -0.0197277 -0.597259 0 0 -0.000346714 96.2072 -653.206 -27.4599 0.0015 
170 1 1 -0.344831 -0.00272164 -0.251278 0 0 0 -1.07346 0.000297935 -0.590067 0 0 -0.00160516 -4.82873 -433.055 24.9808 0.0025 
348 1 1 -0.348325 0.0119592 -0.253239 0 0 0 -1.26514 -0.206597 -0.769102 0 0 -0.00160516 87.8143 -559.824 7.06302 0.0025 
237 1 1 -0.345983 -0.0303605 -0.248019 0 0 0 -1.16376 0.101066 -0.664781 0 0 -0.000346714 -76.6909 -871.697 4.44533 0.0015 
306 1 1 -0.343555 -0.0220757 -0.250131 0 0 0 -0.954912 0.00702524 -0.59048 0 0 -0.000346714 -2.80924 -691.12 -21.1207 0.0015 
257 1 1 -0.346171 -0.016594 -0.249019 0 0 0 -1.11721 0.0895221 -0.609613 0 0 -0.00160516 -42.0224 -358.327 85.8156 0.0025 
275 1 1 -0.333442 -0.0117796 -0.2467 0 0 0 -1.08071 0.107591 -0.58084 0 0 -0.000346714 -101.324 -786.506 49.8113 0.0015 
323 1 1 -0.339876 0.00894606 -0.249229 0 0 0 -1.02998 0.0131417 -0.600598 0 0 -0.00160516 -4.88159 -448.51 -2.41291 0.0025 
291 1 1 -0.34145 -0.025552 -0.247236 0 0 0 -1.20707 0.332358 -0.719408 0 0 -0.000346714 -295.619 -864.745 120.119 0.0015 
350 1 1 -0.338964 -0.0171102 -0.246939 0 0 0 -1.1323 0.177802 -0.62322 0 0 -0.00160516 -104.978 -483.069 67.2552 0.0025 
125 1 1 -0.331615 -0.00564098 -0.245841 0 0 0 -1.0767 0.0633814 -0.52662 0 0 -0.000346714 -44.9976 -776.377 -1.41193 0.0015 
327 1 1 -0.3282 -0.00345062 -0.244383 0 0 0 -1.04841 0.119123 -0.489286 0 0 -0.000346714 -74.6471 -759.05 -26.7064 0.0015 
220 1 1 -0.336664 0.0154019 -0.245479 0 0 0 -1.03221 -0.00114483 -0.563378 0 0 -0.00160516 29.5534 -414.844 -94.8441 0.0025 
230 1 1 -0.32676 0.0136654 -0.243036 0 0 0 -1.13289 -0.0678747 -0.526842 0 0 -0.000346714 67.8075 -824.467 -43.4022 0.0015 
264 1 1 -0.336055 0.021907 -0.245832 0 0 0 -1.19427 0.0406466 -0.600022 0 0 -0.000346714 101.853 -817.084 -311.517 0.0015 
277 1 1 -0.34401 -0.0364547 -0.24411 0 0 0 -1.22977 0.291748 -0.719807 0 0 -0.000346714 -296.356 -861.832 200.871 0.0015 
240 1 1 -0.324572 -0.0159705 -0.241542 0 0 0 -1.20438 0.177482 -0.524786 0 0 -0.000346714 -117.81 -878.802 -24.1288 0.0015 
343 1 1 -0.319347 -0.00742807 -0.240384 0 0 0 -1.0845 0.0214106 -0.438543 -8.54631e-05 1.33248e-05 -3.57778e-05 -30.6853 -778.891 37.8562 0.0015 
248 1 1 -0.325222 -0.00449082 -0.241552 0 0 0 -0.950919 0.180702 -0.4819 0 0 -0.000346714 -110.923 -361.481 194.746 0.0015 
254 1 1 -0.314738 0.00294847 -0.238673 0 0 0 -0.973071 0.0132791 -0.409274 -9.20306e-05 -1.38249e-05 -3.03969e-05 7.47143 -702.991 -40.5715 0.0015 
302 1 1 -0.318209 0.00745735 -0.23985 0 0 0 -1.00897 0.0351572 -0.4233 -8.99713e-05 -1.33884e-05 -3.07855e-05 -55.1946 -736.116 70.4892 0.0015 
241 1 1 -0.323417 0.0213093 -0.240065 0 0 0 -1.07831 -0.00936219 -0.457798 0 0 -0.000346714 -15.6061 -802.971 51.4179 0.0015 
337 1 1 -0.327947 0.022519 -0.241793 0 0 0 -1.30999 -0.197689 -0.623806 0 0 -0.000346714 253.014 -913.21 -254.69 0.0015 
390 1 1 -0.331732 -0.036971 -0.23878 0 0 0 -1.30195 0.387075 -0.777179 0 0 -0.000346714 -266.547 -1023.17 -62.2383 0.0015 
146 1 1 -0.318302 -0.0262879 -0.236811 0 0 0 -0.863845 0.109269 -0.435612 0 0 -0.000346714 -102.333 -623.911 55.7761 0.0015 
227 1 1 -0.3137 -0.0142139 -0.237222 0 0 0 -0.969389 0.0590873 -0.423555 0 0 -0.000346714 -83.5736 -689.13 100.201 0.0015 
142 1 1 -0.31797 -0.0114512 -0.238422 0 0 0 -1.01 0.0547089 -0.479878 0 0 -0.00160516 -18.054 -441.506 -12.7293 0.0025 
406 1 1 -0.31366 -0.00892736 -0.237934 0 0 0 -1.02149 0.132223 -0.456534 0 0 -0.000346714 -88.1401 -743.329 -17.6548 0.0015 
162 1 1 -0.311203 -0.00624891 -0.237143 0 0 0 -1.04487 0.121208 -0.445343 -7.59338e-05 5.62331e-06 -7.04201e-05 -159.09 -750.856 168.834 0.0015 
263 1 1 -0.307641 -0.00449128 -0.235703 0 0 0 -1.02118 0.108562 -0.434445 -8.85349e-05 7.45713e-06 -3.74841e-05 -38.2984 -743.015 -95.6494 0.0015 
297 1 1 -0.314935 -0.00374375 -0.237723 0 0 0 -1.03257 -0.0701826 -0.433373 -0.000405058 3.4044e-05 -0.000187345 26.9932 -448.591 8.33347 0.0025 
381 1 1 -0.306882 -0.00124134 -0.235341 0 0 0 -0.870236 -0.0649537 -0.401867 0 0 -0.000346714 73.9721 113.999 135.884 0.0015 
284 1 1 -0.31142 0.00232416 -0.23623 0 0 0 -0.97572 -0.0335881 -0.412937 -0.000460594 -6.91633e-05 -4.04583e-05 20.4166 -423.655 -13.777 0.0025 
255 1 1 -0.30657 0.00500082 -0.235103 0 0 0 -0.849514 -0.0867303 -0.363504 2.19156e-05 -1.17547e-06 7.39643e-06 54.3934 -570.074 7.11658 0.0015 
374 1 1 -0.310876 0.0077314 -0.235661 0 0 0 -0.853314 -0.0381896 -0.362047 0.000104481 -3.19021e-05 3.70984e-05 6.09096 -102.352 -25.0579 0.0025 
313 1 1 -0.313844 0.0144296 -0.237404 0 0 0 -1.03473 -0.0060712 -0.433939 -8.99542e-05 -4.20117e-05 -3.39173e-05 -11.5668 -767.666 38.3066 0.0015 
356 1 1 -0.317537 0.0181034 -0.238231 0 0 0 -1.15244 -0.00772836 -0.483583 -9.34851e-05 -4.38446e-05 -2.43206e-05 32.9955 -833.942 -65.2879 0.0015 
384 1 1 -0.310146 -0.0213466 -0.234701 0 0 0 -0.980797 0.170972 -0.464758 0 0 -0.000346714 -169.116 -704.006 99.2169 0.0015 
234 1 1 -0.309474 -0.0145808 -0.23436 0 0 0 -1.01345 0.0960788 -0.418273 -0.000387059 0.000131711 -0.000182602 -54.1941 -436.145 31.1279 0.0025 
342 1 1 -0.307909 -0.0108352 -0.235328 0 0 0 -1.03247 0.115666 -0.428121 1.65556e-07 -6.76156e-08 -0.000346867 -152.919 -723.112 173.497 0.0015 
318 1 1 -0.303881 -0.0037305 -0.234144 0 0 0 -0.990449 0.0875524 -0.42117 -8.84633e-05 7.29565e-06 -3.80093e-05 -93.3254 -715.003 70.8355 0.0015 
292 1 1 -0.301152 -0.00669797 -0.232888 0 0 0 -1.03718 0.000386306 -0.437414 -0.000102826 8.03378e-06 1.60225e-06 23.7746 -753.29 -57.0665 0.0015 
308 1 1 -0.304298 0.00103788 -0.233309 0 0 0 -1.03376 -0.0108441 -0.436425 -0.00041486 -6.19573e-05 -0.000161166 5.76573 -449.668 -2.48229 0.0025 
246 1 1 -0.304578 0.00910547 -0.232918 0 0 0 -0.913447 0.0247158 -0.383976 -0.000413004 -6.2049e-05 -0.000168362 -14.7562 -398.164 9.47443 0.0025 
331 1 1 -0.300258 0.00955078 -0.232158 0 0 0 -0.846107 -0.00997371 -0.433867 0.000543096 0.000699276 0.0108361 21.2535 -569.834 -67.1072 0.0015 
320 1 1 -0.300712 0.0127386 -0.232141 0 0 0 -1.06216 -0.0342802 -0.450621 -9.64493e-05 -1.4652e-05 -1.74706e-05 -26.5091 -778.094 121.729 0.0015 
316 1 1 -0.310552 0.0171382 -0.235502 0 0 0 -1.10415 -0.0339854 -0.467241 -8.52396e-05 -3.97408e-05 -4.32552e-05 80.5158 -784.852 -133.181 0.0015 
423 1 1 -0.316559 -0.0411385 -0.230604 0 0 0 -1.10045 0.143547 -0.488112 0 0 -0.000346714 -201.309 -740.324 243.294 0.0015 
367 1 1 -0.307929 -0.0331731 -0.230458 0 0 0 -1.03115 0.199977 -0.53288 0 0 -0.000346714 -209.999 -713.321 165.482 0.0015 
294 1 1 -0.301531 -0.0217611 -0.230817 0 0 0 -1.02178 0.0419132 -0.423164 0 0 -0.000346714 -7.80421 -759.822 -54.805 0.0015 
231 1 1 -0.301974 -0.0169217 -0.230944 0 0 0 -0.957992 0.0790079 -0.408463 0 0 -0.00160516 -61.91 -404.908 69.5629 0.0025 
336 1 1 -0.298381 -0.0126726 -0.230059 0 0 0 -0.973822 0.0945356 -0.419489 -0.000403849 0.000105285 -0.000184578 -44.6024 -424.098 7.96795 0.0025 
357 1 1 -0.292083 -0.00819704 -0.228987 0 0 0 -0.917916 0.0588082 -0.391969 -2.11794e-06 0.000132538 -3.34933e-07 -144.992 -579.11 97.0769 0.0015 
285 1 1 -0.298629 -0.00367679 -0.230846 0 0 0 -1.04214 0.0163991 -0.439996 -0.00041043 3.38386e-05 -0.00017378 -14.4361 -452.363 17.3321 0.0025 
391 1 1 -0.289843 -0.00655978 -0.227768 0 0 0 -0.889594 -0.0240917 -0.305189 0 0 -0.000346714 -18.8053 -347.703 -81.2167 0.0015 
61 1 1 -0.293949 -0.0048164 -0.229916 0 0 0 -1.01147 -0.076647 -0.42391 -8.63394e-05 7.16492e-06 -4.14133e-05 47.7584 -731.937 18.3842 0.0015 
353 1 1 -0.297008 0.000120719 -0.231377 0 0 0 -1.01398 0.01403 -0.428545 -8.86202e-05 7.16273e-06 -3.76589e-05 -32.8879 -732.67 53.8297 0.0015 
229 1 1 -0.292862 0.000575805 -0.229603 0 0 0 -0.986255 -0.0369125 -0.418004 -8.84701e-05 -1.33081e-05 -3.77371e-05 22.6924 -715.717 9.66094 0.0015 
330 1 1 -0.293947 0.00857676 -0.229553 0 0 0 -0.946548 -0.032784 -0.401849 -8.83856e-05 -1.34291e-05 -3.82962e-05 28.803 -685.79 -11.8964 0.0015 
365 1 1 -0.291033 0.00859152 -0.228262 0 0 0 -0.958375 0.133323 -0.378988 0 0 -0.000346714 -15.1464 -642.925 42.2005 0.0015 
301 1 1 -0.298892 0.0248246 -0.229136 0 0 0 -1.01122 0.117478 -0.382667 0 0 -0.000346714 19.6623 -673.367 -217.994 0.0015 
361 1 1 -0.321615 0.0405608 -0.231826 0 0 0 -1.15061 -0.114515 -0.502965 -0.000192388 -0.000254129 -0.000654039 49.1942 -556.699 13.6741 0.0025 
393 1 1 -0.323055 -0.0512747 -0.227495 0 0 0 -1.31593 0.0442641 -0.529979 0 0 -0.000346714 -136.758 -884.306 309.158 0.0015 
141 1 1 -0.292712 -0.020706 -0.227527 0 0 0 -0.995024 -0.0813574 -0.400077 -8.59296e-05 3.87706e-05 -4.17591e-05 112.354 -753.747 -126.159 0.0015 
280 1 1 -0.286736 -0.0199929 -0.225167 0 0 0 -0.892066 0.10216 -0.391177 -8.50935e-05 3.83882e-05 -4.3774e-05 -110.271 -638.373 84.7514 0.0015 
402 1 1 -0.292371 -0.0164299 -0.227092 0 0 0 -0.878579 -0.0550184 -0.356392 -0.000429611 0.000193575 -0.000123859 5.22958 -378.27 45.4968 0.0025 
307 1 1 -0.284147 -0.011496 -0.225291 0 0 0 -0.960841 -0.0169052 -0.40168 -8.69682e-05 2.22973e-05 -4.45813e-05 -2.05551 -694.896 34.1835 0.0015 
319 1 1 -0.283988 -0.00821503 -0.22558 0 0 0 -0.949222 -0.0153134 -0.397749 -8.76519e-05 2.25079e-05 -3.92715e-05 -1.47009 -687.072 29.9607 0.0015 
304 1 1 -0.286941 -0.00638977 -0.226845 0 0 0 -0.853981 -0.0134572 -0.366571 0 0 -0.000346714 -26.594 -591.058 87.4966 0.0015 
386 1 1 -0.290601 -0.00256482 -0.227497 0 0 0 -1.0023 -0.000884381 -0.423525 -0.000547812 0.000186939 -1.18861e-06 11.9499 -437.163 -28.582 0.0025 
399 1 1 -0.290311 0.00474133 -0.227016 0 0 0 -1.16092 -0.000735636 -0.448953 0 0 -0.00160516 9.6398 -484.189 9.6968 0.0025 
354 1 1 -0.282567 0.00852828 -0.224754 0 0 0 -0.878502 -0.0165986 -0.363587 -8.7084e-05 -1.19621e-05 -3.66201e-05 0.702089 -636.36 27.355 0.0015 
366 1 1 -0.287202 0.0119607 -0.226486 0 0 0 -1.11185 -0.150822 -0.482976 1.76421e-05 3.1056e-06 7.79012e-05 122.405 -804.066 -31.0003 0.0015 
524 1 1 -0.296764 0.0228369 -0.228363 0 0 0 -1.11902 -0.0743663 -0.462267 0 0 -0.000346714 161.821 -682.011 -250.539 0.0015 
317 1 1 -0.278414 -0.0199849 -0.221695 0 0 0 -1.03482 0.10193 -0.452301 -9.72492e-05 4.44612e-05 5.77841e-06 -66.2541 -763.315 -20.7505 0.0015 
267 1 1 -0.281351 -0.0134165 -0.223907 0 0 0 -0.886632 -0.0799782 -0.3585 0.000143329 -6.08454e-05 -0.000479239 38.0916 -539.886 166.988 0.0015 
288 1 1 -0.278237 -0.0128129 -0.222663 0 0 0 -0.901633 0.0566745 -0.385182 -9.1737e-05 2.32931e-05 -3.53656e-05 -51.9164 -652.891 25.4797 0.0015 
377 1 1 -0.277703 -0.00706888 -0.223009 0 0 0 -0.864642 0.158162 -0.370141 -0.000894198 0.00547575 0.00899121 34.1121 -8.24922 16.8807 0.0015 
300 1 1 -0.275069 -0.0060444 -0.221843 0 0 0 -0.866515 0.0847843 -0.39894 0 0 -0.000346714 -95.112 -591.352 75.9014 0.0015 
273 1 1 -0.277667 -0.00223718 -0.222049 0 0 0 -0.951474 0.0919776 -0.405497 -0.000450407 3.53534e-05 -4.54918e-05 -36.5529 -414.017 -8.15015 0.0025 
283 1 1 -0.282546 0.0175509 -0.22264 0 0 0 -1.085 -0.0562095 -0.473476 -0.00011962 -4.49072e-05 -0.000861315 32.8962 -474.98 -19.1573 0.0025 
328 1 1 -0.301884 0.0437437 -0.223648 0 0 0 -1.06159 -0.276076 -0.536551 -2.92812e-05 -3.96248e-05 -0.00014622 289.696 -736.888 -194.037 0.0015 
388 1 1 -0.296937 -0.045621 -0.219572 0 0 0 -0.966618 -0.000989978 -0.360638 0 0 -0.00160516 54.762 -381.839 143.468 0.0025 
314 1 1 -0.272594 -0.0153978 -0.220009 0 0 0 -0.971466 -0.00658958 -0.409809 -8.83517e-05 2.3791e-05 -3.85621e-05 -19.3781 -700.82 57.2049 0.0015 
334 1 1 -0.275859 -0.00987868 -0.220882 0 0 0 -0.92593 0.0985877 -0.361759 0.00196577 -0.00686881 0.00899069 -50.3958 -387.216 33.7474 0.0025 
421 1 1 -0.269247 -0.00960504 -0.218735 0 0 0 -0.850102 -0.0143352 -0.423881 0 0 -0.000346714 -22.0904 -256.3 5.10578 0.0015 
345 1 1 -0.271673 0.00846452 -0.220252 0 0 0 -0.901123 -0.0489407 -0.384029 -7.89515e-05 -9.32531e-06 -8.89242e-05 108.519 -644.47 -171.934 0.0015 
335 1 1 -0.274606 0.0126667 -0.220118 0 0 0 -0.968092 -0.0482848 -0.432913 0.000291708 0.000192832 4.98521e-05 9.18346 -430.543 26.5949 0.0025 
368 1 1 -0.297884 -0.0495224 -0.219257 0 0 0 -1.10883 0.0448685 -0.339694 0 0 -0.000346714 1.1491 -884.465 -30.1014 0.0015 
333 1 1 -0.271892 -0.0308173 -0.215231 0 0 0 -1.01669 0.0277418 -0.432947 0 0 -0.00160516 -37.8073 -433.848 65.809 0.0025 
439 1 1 -0.265407 -0.0251734 -0.214153 0 0 0 -0.861189 0.0420118 -0.378988 0.000332302 -0.000203791 -0.00211382 -24.0666 -379.586 13.7994 0.0025 
488 1 1 -0.260853 -0.0218012 -0.213965 0 0 0 -0.8582 0.127414 -0.410014 0 0 -0.000346714 -168.561 -585.297 191.025 0.0015 
459 1 1 -0.265885 -0.0186822 -0.216733 0 0 0 -0.874842 -0.00279016 -0.361954 2.46348e-05 3.75738e-05 2.68039e-06 -9.14494 -547.27 52.2183 0.0015 
527 1 1 -0.264737 -0.0209225 -0.214813 0 0 0 -0.956709 -0.120067 -0.446581 0 0 -0.000346714 168.843 -41.2947 195.618 0.0015 
363 1 1 -0.263669 -0.0156205 -0.216207 0 0 0 -0.849641 0.0187494 -0.457464 0 0 -0.000346714 32.0169 -493.084 3.09758 0.0015 
454 1 1 -0.259152 -0.0147399 -0.214422 0 0 0 -0.862668 0.0451532 -0.370108 -0.000108126 3.09404e-05 9.55991e-06 -156.431 -593.67 292.366 0.0015 
414 1 1 -0.26784 -0.0142192 -0.217044 0 0 0 -0.908682 -0.0299495 -0.381639 -0.000159613 3.63659e-05 -0.00065992 24.7573 -400.079 -27.4766 0.0025 