ITEM: TIMESTEP
4000
ITEM: NUMBER OF ATOMS
51
ITEM: BOX BOUNDS ff ff ff
-0.5 0.1
-0.2 0.2
-0.4 0.15
ITEM: ATOMS id type type x y z ix iy iz vx vy vz fx fy fz omegax omegay omegaz radius 
12 1 1 -0.00894204 -0.00172108 0.00647225 0 0 0 0 0 -1.36165 0 0 -0.000346714 0 0 0 0.0015 
5 1 1 -0.0106535 0.00311808 0.00685055 0 0 0 0 0 -1.3589 0 0 -0.000346714 0 0 0 0.0015 
11 1 1 -0.0241534 0.031784 0.00732616 0 0 0 0 0 -1.35547 0 0 -0.000346714 0 0 0 0.0015 
1 1 1 -0.00174714 -0.029557 0.00870686 0 0 0 0 0 -1.34546 0 0 -0.00160516 0 0 0 0.0025 
2 1 1 -0.0346734 -0.00599195 0.00837473 0 0 0 0 0 -1.34781 0 0 -0.00160516 0 0 0 0.0025 
4 1 1 -0.0255875 0.0216478 0.010281 0 0 0 0 0 -1.33388 0 0 -0.00160516 0 0 0 0.0025 
8 1 1 -0.00953586 -0.0287916 0.0127987 0 0 0 0 0 -1.31524 0 0 -0.000346714 0 0 0 0.0015 
7 1 1 -0.00462371 -0.0298822 0.0153937 0 0 0 0 0 -1.29572 0 0 -0.000346714 0 0 0 0.0015 
10 1 1 -0.0270088 -0.00882918 0.0152656 0 0 0 0 0 -1.2967 0 0 -0.000346714 0 0 0 0.0015 
3 1 1 -0.0134792 0.0074157 0.0165221 0 0 0 0 0 -1.28719 0 0 -0.00160516 0 0 0 0.0025 
6 1 1 -0.0266102 0.013684 0.0164972 0 0 0 0 0 -1.28738 0 0 -0.000346714 0 0 0 0.0015 
25 1 1 -0.00857183 0.0107813 0.017652 0 0 0 0 0 -1.27855 0 0 -0.000346714 0 0 0 0.0015 
9 1 1 -0.0280307 0.022667 0.0172233 0 0 0 0 0 -1.28179 0 0 -0.000346714 0 0 0 0.0015 
24 1 1 -0.0202974 -0.0206343 0.0192618 0 0 0 0 0 -1.2661 0 0 -0.000346714 0 0 0 0.0015 
22 1 1 -0.0083641 -0.0195 0.0202178 0 0 0 0 0 -1.25874 0 0 -0.000346714 0 0 0 0.0015 
19 1 1 -0.0101549 -0.00442827 0.0214904 0 0 0 0 0 -1.24873 0 0 -0.000346714 0 0 0 0.0015 
17 1 1 -0.0253454 -0.000700049 0.0208043 0 0 0 0 0 -1.25413 0 0 -0.000346714 0 0 0 0.0015 
16 1 1 -0.00408721 0.01129 0.0192933 0 0 0 0 0 -1.2659 0 0 -0.00160516 0 0 0 0.0025 
18 1 1 -0.0335467 0.0344165 0.0198433 0 0 0 0 0 -1.26158 0 0 -0.000346714 0 0 0 0.0015 
15 1 1 -0.00454319 -0.0294115 0.0226402 0 0 0 0 0 -1.23971 0 0 -0.00160516 0 0 0 0.0025 
21 1 1 -0.0333391 -0.019004 0.0249135 0 0 0 0 0 -1.22156 0 0 -0.000346714 0 0 0 0.0015 
14 1 1 -0.00618745 0.0189444 0.0248998 0 0 0 0 0 -1.22166 0 0 -0.00160516 0 0 0 0.0025 
20 1 1 -0.0332823 -0.00448395 0.0281644 0 0 0 0 0 -1.19517 0 0 -0.000346714 0 0 0 0.0015 
13 1 1 -0.00741847 0.0112937 0.0292442 0 0 0 0 0 -1.18624 0 0 -0.00160516 0 0 0 0.0025 
23 1 1 -0.0165601 0.0229939 0.0298173 0 0 0 0 0 -1.18153 0 0 -0.000346714 0 0 0 0.0015 
37 1 1 -0.0127396 -0.0117751 0.0338699 0 0 0 0 0 -1.1474 0 0 -0.000346714 0 0 0 0.0015 
29 1 1 -0.022531 -0.00019371 0.0319224 0 0 0 0 0 -1.16388 0 0 -0.00160516 0 0 0 0.0025 
27 1 1 -0.000459601 0.00699661 0.0332393 0 0 0 0 0 -1.15279 0 0 -0.00160516 0 0 0 0.0025 
35 1 1 -0.0138262 0.0291618 0.0309725 0 0 0 0 0 -1.17192 0 0 -0.000346714 0 0 0 0.0015 
26 1 1 -0.0219947 -0.0332201 0.0360978 0 0 0 0 0 -1.12817 0 0 -0.00160516 0 0 0 0.0025 
28 1 1 -0.0160817 -0.03192 0.0376515 0 0 0 0 0 -1.11453 0 0 -0.00160516 0 0 0 0.0025 
36 1 1 -0.0230202 -0.0250033 0.0362593 0 0 0 0 0 -1.12679 0 0 -0.000346714 0 0 0 0.0015 
32 1 1 -0.0290883 0.000876534 0.0347985 0 0 0 0 0 -1.13945 0 0 -0.000346714 0 0 0 0.0015 
38 1 1 -0.0254317 0.00979368 0.0339853 0 0 0 0 0 -1.14641 0 0 -0.000346714 0 0 0 0.0015 
34 1 1 -0.0177649 0.0224168 0.0353502 0 0 0 0 0 -1.13464 0 0 -0.000346714 0 0 0 0.0015 
30 1 1 -0.0159539 -0.0280969 0.0412983 0 0 0 0 0 -1.08196 0 0 -0.00160516 0 0 0 0.0025 
33 1 1 -0.020721 -0.0278475 0.0387025 0 0 0 0 0 -1.10531 0 0 -0.000346714 0 0 0 0.0015 
31 1 1 -0.0297813 -0.0200888 0.04047 0 0 0 0 0 -1.08952 0 0 -0.000346714 0 0 0 0.0015 
40 1 1 -0.00180681 -0.0218065 0.0445674 0 0 0 0 0 -1.05194 0 0 -0.00160516 0 0 0 0.0025 
39 1 1 -0.0159102 0.00235532 0.0440447 0 0 0 0 0 -1.05685 0 0 -0.00160516 0 0 0 0.0025 
44 1 1 -0.022228 0.00485213 0.0444051 0 0 0 0 0 -1.05342 0 0 -0.000346714 0 0 0 0.0015 
45 1 1 -0.0097629 0.0296421 0.0433917 0 0 0 0 0 -1.06283 0 0 -0.000346714 0 0 0 0.0015 
46 1 1 -0.0105626 -0.0145818 0.0486292 0 0 0 0 0 -1.01339 0 0 -0.000346714 0 0 0 0.0015 
50 1 1 -0.0279742 -1.04943e-05 0.0477733 0 0 0 0 0 -1.02163 0 0 -0.000346714 0 0 0 0.0015 
47 1 1 -0.0218847 0.0256262 0.0479658 0 0 0 0 0 -1.01977 0 0 -0.000346714 0 0 0 0.0015 
42 1 1 -0.0160508 0.0304724 0.0482917 0 0 0 0 0 -1.01663 0 0 -0.00160516 0 0 0 0.0025 
41 1 1 -0.0294843 -0.0347245 0.052389 0 0 0 -0 0 -1 0 0 0 0 0 0 0.0025 
48 1 1 -0.022804 -0.0315502 0.0491665 0 0 0 0 0 -1.00819 0 0 -0.000346714 0 0 0 0.0015 
51 1 1 -0.0175025 -0.0121213 0.0497895 0 0 0 0 0 -1.00211 0 0 -0.000346714 0 0 0 0.0015 
49 1 1 -0.0312011 0.00531382 0.0509779 0 0 0 -0 0 -1 0 0 0 0 0 0 0.0015 
43 1 1 -0.0196938 0.0042356 0.0510598 0 0 0 -0 0 -1 0 0 0 0 0 0 0.0015 
