ITEM: TIMESTEP
22800
ITEM: NUMBER OF ATOMS
295
ITEM: BOX BOUNDS ff ff ff
-0.5 0.1
-0.2 0.2
-0.4 0.15
ITEM: ATOMS id type type x y z ix iy iz vx vy vz fx fy fz omegax omegay omegaz radius 
11 1 1 -0.111415 0.00660285 -0.152509 0 0 0 -0.793291 -0.316713 -0.224189 0 0 -0.000346714 102.285 -555.377 289.329 0.0015 
18 1 1 -0.11457 0.020658 -0.152041 0 0 0 -0.8336 -0.182338 -0.368764 0 0 -0.000346714 103.268 -579.915 41.5705 0.0015 
38 1 1 -0.138703 0.0614523 -0.151308 0 0 0 -1.28686 0.414635 -0.329928 -7.04201e-05 -7.66215e-05 -6.99278e-05 -241 -907.939 -201.084 0.0015 
30 1 1 -0.109468 -0.0122394 -0.150623 0 0 0 -0.94462 -0.0671764 -0.39042 -0.000444489 6.45939e-05 -0.000170069 11.9067 -407.908 41.361 0.0025 
4 1 1 -0.106539 -0.00529344 -0.149837 0 0 0 -0.84148 -0.0477212 -0.353928 -0.000410797 6.06866e-05 -0.00017767 18.0843 -366.097 6.36594 0.0025 
8 1 1 -0.0988628 -0.00223364 -0.147665 0 0 0 -0.917981 0.139396 -0.366034 0 0 -0.000346714 -67.1425 -652.982 -90.5968 0.0015 
24 1 1 -0.100964 0.00228153 -0.147746 0 0 0 -0.859387 0.109474 -0.323813 0 0 -0.000346714 -53.0752 -584.374 -64.012 0.0015 
31 1 1 -0.104681 0.00549912 -0.150118 0 0 0 -0.931578 0.208575 -0.393918 -6.71617e-05 1.19435e-06 -0.000101765 -60.6987 -674.154 -213.039 0.0015 
12 1 1 -0.100239 0.00843202 -0.147962 0 0 0 -0.838433 0.218076 -0.32142 0 0 -0.000346714 -53.6516 -573.797 -256.552 0.0015 
5 1 1 -0.101548 0.0182568 -0.147884 0 0 0 -0.876221 0.0643474 -0.367002 -8.86107e-05 -1.60355e-05 -3.88322e-05 -34.669 -634.33 -28.446 0.0015 
36 1 1 -0.104257 -0.03118 -0.146956 0 0 0 -0.924735 -0.00479867 -0.385731 -8.51868e-05 4.24235e-05 -4.40034e-05 -53.6631 -652.322 136.764 0.0015 
72 1 1 -0.0994061 -0.0232014 -0.144981 0 0 0 -0.95347 -0.505283 -0.348426 0 0 -0.000346714 152.131 -611.253 526.705 0.0015 
23 1 1 -0.0974165 -0.000232875 -0.145791 0 0 0 -0.801245 -0.0264037 -0.146926 0 0 -0.000346714 105.248 -339.958 -141.967 0.0015 
35 1 1 -0.0973496 0.00674484 -0.146571 0 0 0 -0.799851 -0.217624 -0.281501 0 0 -0.000346714 158.394 -492.744 -12.1993 0.0015 
47 1 1 -0.0979307 0.0257755 -0.145227 0 0 0 -1.08757 0.000415378 -0.451631 -8.56688e-05 -3.24572e-05 -4.22062e-05 -18.4405 -800.7 43.6529 0.0015 
26 1 1 -0.0914927 -0.00616891 -0.142658 0 0 0 -0.81897 0.262088 -0.352498 0 0 -0.00160516 -127.755 -335.758 38.0319 0.0025 
50 1 1 -0.0837061 -0.00848712 -0.141066 0 0 0 -0.736143 -0.121521 -0.301909 -8.80303e-05 1.10848e-05 -3.7457e-05 158.391 -541.847 -168.104 0.0015 
21 1 1 -0.108376 -0.0036185 -0.144042 0 0 0 -0.738535 0.109544 -0.777446 0 0 -0.000346714 -128.412 -337.666 -66.8896 0.0015 
2 1 1 -0.11814 -0.000508209 -0.146561 0 0 0 -0.737266 0.0484382 -0.792588 0 0 -0.00160516 -14.8336 -225.779 -6.37285e-15 0.0025 
37 1 1 -0.0857451 0.00262453 -0.142114 0 0 0 -0.853586 0.138016 -0.342074 0 0 -0.000346714 -95.7083 -610.979 -10.4515 0.0015 
3 1 1 -0.0880173 0.0140473 -0.141416 0 0 0 -0.777861 0.185837 -0.314628 -0.000419527 -8.26746e-05 -0.000158146 -44.2433 -332.019 -86.7245 0.0025 
51 1 1 -0.0822078 0.0137577 -0.139999 0 0 0 -0.929399 0.272116 -0.337585 0 0 -0.000346714 -168.484 -542.619 -216.237 0.0015 
33 1 1 -0.0762493 -0.00598074 -0.138059 0 0 0 -0.631899 0.220691 -0.279164 -8.88489e-05 1.03737e-05 -3.82646e-05 -99.6298 -465.421 -142.419 0.0015 
10 1 1 -0.107298 -0.00114181 -0.14051 0 0 0 -0.745831 0.104058 -0.728192 0 0 -0.000346714 -69.1963 -297.382 -80.0457 0.0015 
6 1 1 -0.106079 0.00330624 -0.142974 0 0 0 -0.744958 -0.0400228 -0.828234 0 0 -0.000346714 116.452 -309.166 46.8482 0.0015 
19 1 1 -0.0750326 0.0117457 -0.136902 0 0 0 -0.598756 0.0690829 -0.260444 0 0 -0.000346714 9.93343 -384.257 -2.54288 0.0015 
16 1 1 -0.0791769 0.0148033 -0.137443 0 0 0 -0.810661 0.0562237 -0.279224 0 0 -0.00160516 13.7115 -311.279 -95.1049 0.0025 
28 1 1 -0.0712431 -0.0236097 -0.133336 0 0 0 -0.692987 0.133867 -0.306048 -0.000397632 0.00011499 -0.000196564 -65.2953 -300.569 16.378 0.0025 
20 1 1 -0.105322 -0.00106233 -0.137398 0 0 0 -0.76353 0.00794432 -0.65476 0 0 -0.000346714 -89.6062 -318.979 -0.477356 0.0015 
71 1 1 -0.0777839 -0.00101833 -0.136966 0 0 0 -0.749224 0.0213593 -0.682118 0 0 -0.000346714 -111.41 -624.533 -14.8452 0.0015 
60 1 1 -0.0671334 -0.00133045 -0.134363 0 0 0 -0.650128 -0.0600985 -0.281196 0 0 -0.000346714 72.2125 -467.966 -67.5952 0.0015 
17 1 1 -0.103979 0.00158526 -0.138278 0 0 0 -0.708958 0.00642067 -0.644979 0 0 -0.000346714 -5.41412 -292.927 59.5269 0.0015 
49 1 1 -0.0822815 0.00266799 -0.138651 0 0 0 -0.896151 0.163475 -0.821353 0 0 -0.000346714 48.5802 538.984 -6.97324 0.0015 
25 1 1 -0.0717064 -0.000424584 -0.135416 0 0 0 -0.801105 -0.200558 -0.297178 0 0 -0.000346714 143.68 -544.913 -1.52468 0.0015 
43 1 1 -0.0690974 0.0274575 -0.132886 0 0 0 -0.609128 -0.00396294 -0.22709 0 0 -0.000346714 83.2359 -402.555 -201.843 0.0015 
1 1 1 -0.0615969 -0.0139214 -0.130415 0 0 0 -0.600718 -0.0221926 -0.249679 -0.000200607 2.0281e-05 -0.00068154 -36.012 -255.575 108.763 0.0025 
76 1 1 -0.0715604 -0.00916332 -0.131375 0 0 0 -0.924273 -0.176835 -0.615311 0 0 -0.000346714 -173.608 -707.796 -71.5395 0.0015 
22 1 1 -0.0873352 -0.00538997 -0.134374 0 0 0 -0.721152 0.128851 -0.771502 0 0 -0.000346714 -65.0767 -364.221 8.43618e-14 0.0015 
39 1 1 -0.0630799 -0.000987476 -0.131567 0 0 0 -0.656923 -0.047678 -0.277358 -0.000409278 -2.36691e-05 -0.000172616 26.1789 -285.015 -13.0105 0.0025 
32 1 1 -0.0991808 0.00286785 -0.134246 0 0 0 -0.756912 0.0215037 -0.624917 0 0 -0.000346714 -11.0748 -389.824 7.37302e-16 0.0015 
14 1 1 -0.0843138 0.000697436 -0.13392 0 0 0 -0.732633 -0.171112 -0.777321 0 0 -0.00160516 53.1334 -227.496 5.06761e-14 0.0025 
84 1 1 -0.0672947 0.00524735 -0.131724 0 0 0 -0.64557 -0.0748796 -0.509091 0 0 -0.000346714 36.2499 262.927 92.7264 0.0015 
44 1 1 -0.0586744 0.0042272 -0.13067 0 0 0 -0.548437 -0.0328499 -0.231388 -8.85575e-05 -5.12139e-06 -3.69365e-05 10.5677 -397.699 31.4137 0.0015 
29 1 1 -0.0631679 0.00848441 -0.131382 0 0 0 -0.557861 0.0147077 -0.236377 -0.00039588 -2.02541e-05 -0.000220433 28.4314 -240.825 -81.9977 0.0025 
88 1 1 -0.0637829 0.0147513 -0.132242 0 0 0 -0.687825 -0.058783 -0.292742 -9.77531e-05 -2.11585e-05 -4.225e-05 -7.83193 -510.621 120.93 0.0015 
42 1 1 -0.0727383 0.0312618 -0.132665 0 0 0 -0.732483 0.000451697 -0.292603 0 0 -0.00160516 15.8579 -311.099 -41.6505 0.0025 
7 1 1 -0.086372 -0.072082 -0.124955 0 0 0 -0.619036 -0.260006 -0.227808 0 0 -0.000346714 126.408 -322.742 286.533 0.0015 
52 1 1 -0.0882725 -0.0176245 -0.129488 0 0 0 -0.812789 0.0768082 -0.482296 0 0 -0.00160516 180.623 136.053 124.935 0.0025 
63 1 1 -0.0509769 -0.0178915 -0.125918 0 0 0 -0.485696 -0.0323985 -0.243353 0 0 -0.000346714 1.57595 -313.289 70.2679 0.0015 
53 1 1 -0.0554357 -0.010896 -0.12796 0 0 0 -0.744803 -0.0267514 -0.306374 -0.000246506 0.00129778 0.0016174 -54.2793 -262.358 -22.6083 0.0025 
121 1 1 -0.0521284 -0.0122245 -0.12431 0 0 0 -0.818457 -0.470085 0.127338 0 0 -0.000346714 489.767 -176.371 -153.239 0.0015 
65 1 1 -0.0540408 -0.00610355 -0.127558 0 0 0 -0.450681 -0.0736447 -0.172776 0 0 -0.00160516 61.0477 -36.8417 -16.6894 0.0025 
74 1 1 -0.0498092 -0.00512452 -0.126853 0 0 0 -0.433349 -0.32031 -0.185634 0 0 -0.000346714 257.192 -303.365 -56.2874 0.0015 
48 1 1 -0.100788 0.00457828 -0.129646 0 0 0 -0.926663 0.481481 -0.624837 0 0 -0.000346714 27.3203 136.186 -30.5113 0.0015 
27 1 1 -0.0567962 0.000684049 -0.128839 0 0 0 -0.530037 -0.158071 -0.199189 0 0 -0.00160516 74.6718 -223.266 -15.2247 0.0025 
75 1 1 -0.0750342 0.0166788 -0.12958 0 0 0 -0.876601 0.161005 -0.400119 0 0 -0.000346714 -6.95269 -344.761 118.502 0.0015 
54 1 1 -0.0574731 0.0179535 -0.128264 0 0 0 -0.69566 -0.131815 -0.294853 -0.00040705 -9.28776e-05 -0.000150273 57.4948 -301.645 -0.813365 0.0025 
70 1 1 -0.0548138 0.0293628 -0.126684 0 0 0 -0.61746 -0.0590156 -0.258285 -8.45284e-05 -3.10801e-05 -3.83898e-05 77.408 -435.705 -85.4987 0.0015 
34 1 1 -0.0634562 0.0360056 -0.12886 0 0 0 -0.709167 0.38484 -0.412983 0 0 -0.000346714 -163.532 -428.411 -311.04 0.0015 
41 1 1 -0.0842616 -0.025599 -0.123673 0 0 0 -0.698503 -0.0541749 -0.407441 0 0 -0.00160516 -159.194 -215.037 5.0754 0.0025 
113 1 1 -0.0724897 -0.0202506 -0.12714 0 0 0 -1.00478 -0.0874557 -0.801713 0 0 -0.000346714 226.102 83.844 139.827 0.0015 
111 1 1 -0.0626054 -0.0124883 -0.122968 0 0 0 -0.731541 0.0594779 -0.108723 0 0 -0.000346714 30.7175 221.295 -96.1964 0.0015 
15 1 1 -0.0393169 -0.00860401 -0.121097 0 0 0 -0.460181 0.0531044 -0.196379 0 0 -0.00160516 -84.9193 -173.348 11.6987 0.0025 
85 1 1 -0.112375 -0.00741171 -0.125382 0 0 0 -1.70626 -0.770248 -0.442869 0 0 -0.000346714 -992.473 989.332 -382.051 0.0015 
95 1 1 -0.0394649 -0.0047891 -0.12244 0 0 0 -0.524098 0.0571165 -0.218123 0 0 -0.000346714 -44.593 -364.674 161.396 0.0015 
78 1 1 -0.0674699 0.00644051 -0.12484 0 0 0 -0.643754 0.250415 -0.339946 0 0 -0.00160516 -86.5528 -216.904 -44.3712 0.0025 
68 1 1 -0.0432333 0.0174386 -0.12233 0 0 0 -0.350729 0.0845873 -0.13608 -0.000408435 -0.000109334 -0.000166044 -35.7622 -152.507 -2.64611 0.0025 
92 1 1 -0.0477736 0.0190549 -0.124081 0 0 0 -0.3125 0.151421 -0.11891 2.81366e-05 -1.4186e-05 -0.000669135 -45.9284 -131.664 -47.5097 0.0025 
79 1 1 -0.0676742 -0.043107 -0.120927 0 0 0 -0.881514 -0.192444 -0.477714 0 0 -0.00160516 73.1144 -310.468 92.8732 0.0025 
137 1 1 -0.040881 -0.0281511 -0.115206 0 0 0 -0.71424 0.318693 0.148307 0 0 -0.000346714 -165.637 -371.218 1.31049e-13 0.0015 
66 1 1 -0.0360349 -0.0139691 -0.119181 0 0 0 -0.395375 0.0322335 -0.106888 0 0 -0.00160516 -2.68238 -157.496 -9.23154 0.0025 
59 1 1 -0.0316904 -0.0145397 -0.118752 0 0 0 -0.491521 0.0181655 -0.213792 -8.92496e-05 2.14293e-05 -4.04732e-05 -22.0302 -356.526 20.3551 0.0015 
127 1 1 -0.0348617 -0.0100292 -0.12004 0 0 0 -0.365058 0.032437 -0.125949 0 0 -0.000346714 -4.13231 -174.721 -27.5526 0.0015 
56 1 1 -0.0764593 -0.00499161 -0.120259 0 0 0 -0.718805 0.16698 -0.444825 0 0 -0.000346714 -85.5854 -368.423 1.07912e-13 0.0015 
73 1 1 -0.0350479 -0.0053922 -0.120624 0 0 0 -0.572673 0.162159 -0.240369 -0.000101151 6.64817e-06 -4.63119e-06 -120.639 -413.074 8.75318 0.0015 
40 1 1 -0.0663148 0.00187573 -0.122139 0 0 0 -0.713952 0.262107 -0.635566 0 0 -0.00160516 -81.4948 -221.983 -4.47958e-14 0.0025 
57 1 1 -0.0751987 0.00131348 -0.121737 0 0 0 -0.802764 0.00350102 -0.622891 0 0 -0.000346714 70.7003 -235.156 135.467 0.0015 
90 1 1 -0.0333388 -0.000238705 -0.118981 0 0 0 -0.309501 -0.237309 -0.123886 -0.000848899 -7.04439e-06 0.0010128 96.6851 -133.985 14.1429 0.0025 
93 1 1 -0.0390924 0.0145018 -0.120413 0 0 0 -0.413437 -0.230164 -0.21423 0 0 -0.00160516 70.1586 -169.249 64.7467 0.0025 
58 1 1 -0.0518338 0.0204185 -0.12309 0 0 0 -0.732551 0.0691425 -0.565532 0 0 -0.000346714 343.555 -320.49 5.41083 0.0015 
62 1 1 -0.0381499 0.0201584 -0.120422 0 0 0 -0.363095 -0.197913 -0.181213 0 0 -0.000346714 94.0857 -249.313 87.7484 0.0015 
108 1 1 -0.0528101 0.0226243 -0.117216 0 0 0 -0.690242 -0.328967 -0.156386 0 0 -0.000346714 185.692 -394.795 28.3963 0.0015 
82 1 1 -0.0439033 0.0325659 -0.121608 0 0 0 -0.628507 -0.0807087 -0.274555 -9.07819e-05 -4.48883e-05 -2.81248e-05 -12.8324 -496.81 175.435 0.0015 
94 1 1 -0.050236 0.0440478 -0.120458 0 0 0 -0.422895 0.208697 -0.148991 0 0 -0.00160516 -62.1672 -159.246 -86.1803 0.0025 
9 1 1 -0.0530788 0.0584908 -0.118395 0 0 0 -0.236736 0.250247 0.00441827 -7.54291e-05 -4.60006e-05 -0.000171877 -194.019 -181.84 6.9062 0.0015 
138 1 1 -0.0400588 -0.0362512 -0.116116 0 0 0 -0.996472 -0.104532 -0.314657 0 0 -0.000346714 42.3857 -637.087 149.544 0.0015 
102 1 1 -0.0621247 -0.0170446 -0.114448 0 0 0 -0.730519 0.300783 -0.232362 0 0 -0.000346714 -155.835 -378.48 -1.58522e-13 0.0015 
149 1 1 -0.0284525 -0.0158165 -0.11635 0 0 0 -0.517796 -0.132811 -0.00113974 0 0 -0.000346714 79.1099 -307.201 77.9534 0.0015 
101 1 1 -0.0283615 -0.00977014 -0.116524 0 0 0 -0.569763 0.367421 -0.167231 0 0 -0.000346714 -204.674 -374.874 -117.893 0.0015 
107 1 1 -0.0548378 -0.00911273 -0.116697 0 0 0 -0.774177 -0.197611 -0.206016 0 0 -0.00160516 -26.4565 -264.988 -43.8101 0.0025 
104 1 1 -0.0385378 -0.0104467 -0.115232 0 0 0 -0.758712 0.0523375 -0.0201504 0 0 -0.00160516 21.1445 -4.98565 31.0059 0.0025 
123 1 1 -0.0328942 -0.00924738 -0.117733 0 0 0 -0.584849 0.134678 -0.258987 0 0 -0.000346714 -58.3033 -380.744 -71.9198 0.0015 
55 1 1 -0.0705799 -0.00439411 -0.119482 0 0 0 -0.706771 0.253408 -0.462932 0 0 -0.00160516 -76.8102 -219.699 -17.9608 0.0025 
128 1 1 -0.0405048 -0.00534325 -0.115569 0 0 0 -0.781943 -0.190592 -0.390466 0 0 -0.000346714 -492.37 36.2383 -159.473 0.0015 
112 1 1 -0.0224045 -0.00681883 -0.113625 0 0 0 -0.565848 -0.193949 -0.0776599 0 0 -0.000346714 144.022 -353.119 37.3301 0.0015 
46 1 1 -0.0726442 0.000878708 -0.119344 0 0 0 -0.743267 0.1987 -0.382163 0 0 -0.000346714 58.8912 -171.923 -2.54438 0.0015 
91 1 1 -0.0522781 -0.00381218 -0.112859 0 0 0 -0.607604 -0.167459 -0.040815 0 0 -0.00160516 91.4855 -142.089 -130.958 0.0025 
114 1 1 -0.0352202 -0.00350738 -0.116527 0 0 0 -0.715372 -0.292737 -0.173981 0 0 -0.000346714 -168.257 -359.863 97.4845 0.0015 
110 1 1 -0.0213812 0.00420991 -0.114665 0 0 0 -0.538519 0.155748 -0.121113 0 0 -0.000346714 -195.469 -212.224 -115.953 0.0015 
98 1 1 -0.054972 0.0118007 -0.117216 0 0 0 -0.591527 -0.13881 -0.199998 0 0 -0.000346714 70.2628 -305.698 33.5383 0.0015 
103 1 1 -0.0274688 0.0113586 -0.116091 0 0 0 -0.521128 0.0616847 -0.239729 -0.00886263 -0.00172442 -0.00140616 -7.80074 -208.231 -63.648 0.0025 
77 1 1 -0.0441022 0.020158 -0.116328 0 0 0 -0.774182 -0.0820079 -0.13645 0 0 -0.00160516 -117.955 -11.1572 -67.4083 0.0025 
130 1 1 -0.0375393 0.0301431 -0.114447 0 0 0 -0.548073 0.164744 0.0339466 0 0 -0.00160516 -77.6487 -73.4843 -78.7592 0.0025 
140 1 1 -0.0404205 0.0351574 -0.113433 0 0 0 -0.722634 0.270636 0.162441 0 0 -0.000346714 260.994 -389.889 163.549 0.0015 
126 1 1 -0.0230455 -0.0237315 -0.113202 0 0 0 -0.342877 0.386226 -0.245572 0 0 -0.000346714 -249.371 -223.108 -40.3557 0.0015 
117 1 1 -0.0229757 -0.0117325 -0.11213 0 0 0 -0.411494 -0.0231511 -0.232264 0 0 -0.00160516 18.8381 -92.1992 101.223 0.0025 
122 1 1 -0.0303128 -0.00639665 -0.110649 0 0 0 -0.257165 0.356864 -0.157213 0 0 -0.000346714 -144.555 -7.34691 20.2362 0.0015 
125 1 1 -0.0187375 -0.0101172 -0.1088 0 0 0 -0.372916 -0.0931425 0.231406 0 0 -0.000346714 70.1277 -66.9475 -92.3771 0.0015 
129 1 1 -0.0263546 -0.00413605 -0.10906 0 0 0 -0.906087 -0.0640458 0.043322 0 0 -0.00160516 -112.307 87.6096 -30.3405 0.0025 
83 1 1 -0.0430131 -8.62883e-05 -0.113907 0 0 0 -0.62625 0.159735 -0.373051 0 0 -0.000346714 -80.7065 -336.668 -48.6138 0.0015 
81 1 1 -0.0569706 0.0013471 -0.112017 0 0 0 -0.748691 -0.016841 -0.283995 0 0 -0.000346714 8.58772 -381.78 -1.52841e-14 0.0015 
87 1 1 -0.059118 0.00368736 -0.113527 0 0 0 -0.758327 -0.153606 -0.273849 0 0 -0.000346714 39.1297 -322.296 -13.1889 0.0015 
64 1 1 -0.0570648 0.00596878 -0.112121 0 0 0 -0.71254 -0.00906028 -0.368206 0 0 -0.000346714 -16.4638 -306.665 -13.1889 0.0015 
67 1 1 -0.0363695 0.00658579 -0.109883 0 0 0 -0.715008 0.266425 -0.0558259 0 0 -0.00160516 -129.309 260.788 3.75851 0.0025 
132 1 1 -0.0187189 0.00593297 -0.112059 0 0 0 -0.537382 0.138603 -0.0190051 0 0 -0.00160516 -65.8077 -183.633 -5.26486 0.0025 
139 1 1 -0.0205125 0.00980698 -0.111638 0 0 0 -0.944089 0.147195 -0.124888 0 0 -0.000346714 232.714 -588.143 97.9806 0.0015 
109 1 1 -0.014542 0.00686128 -0.111828 0 0 0 -0.466855 0.00620793 -0.122144 0 0 -0.000346714 -16.5612 -326.727 27.7343 0.0015 
116 1 1 -0.0339941 0.0145925 -0.116076 0 0 0 -0.839044 0.0889513 -0.52704 0 0 -0.00160516 101.831 -64.3633 17.5931 0.0025 
136 1 1 -0.0250375 0.0126575 -0.11323 0 0 0 -0.343935 0.0877389 -0.33992 0.00926165 0.00281892 0.00907095 -124.641 455.02 -77.5439 0.0015 
13 1 1 -0.0379306 0.0172655 -0.111442 0 0 0 -0.465096 0.0401318 -0.0771511 0 0 -0.00160516 -56.5 -40.2411 -43.7451 0.0025 
124 1 1 -0.018965 0.0214792 -0.1114 0 0 0 -0.249718 -0.355936 -0.279443 0 0 -0.000346714 -13.3708 -736.021 -114.033 0.0015 
133 1 1 -0.0350516 0.0284875 -0.111068 0 0 0 -0.751423 -0.139775 0.430308 0 0 -0.000346714 165.241 -151.591 -75.0859 0.0015 
86 1 1 -0.0292233 0.0469462 -0.112228 0 0 0 -0.151139 0.182577 0.00422517 -0.00211515 -0.00133223 0.00269287 -42.8198 -58.4899 -214.449 0.0015 
153 1 1 -0.0112094 -0.0223042 -0.106201 0 0 0 -0.73963 0.308277 0.0838481 0 0 -0.000346714 -188.383 -431.94 -6.38626 0.0015 
97 1 1 -0.0516346 -0.0204906 -0.109386 0 0 0 -0.703963 0.289634 -0.171087 0 0 -0.000346714 -148.318 -360.491 6.00689e-14 0.0015 
131 1 1 -0.0268502 -0.0203401 -0.107108 0 0 0 -0.697838 0.0433516 0.0779248 0 0 -0.00160516 -128.245 -158.403 34.4151 0.0025 
115 1 1 -0.0427378 -0.0154568 -0.107893 0 0 0 -0.704941 0.290036 -0.0992731 0 0 -0.000346714 -148.193 -360.188 1.16897e-14 0.0015 
80 1 1 -0.0512252 -0.0137869 -0.108476 0 0 0 -0.699633 0.287853 -0.232695 0 0 -0.00160516 -89.5563 -217.669 2.17489e-14 0.0025 
106 1 1 -0.0246078 -0.0162083 -0.110043 0 0 0 -0.518731 -0.0388463 -0.236944 0 0 -0.00160516 -69.8259 -153.022 -20.7395 0.0025 
146 1 1 -0.0341791 -0.0184936 -0.114645 0 0 0 -0.0654311 -0.93704 -0.465488 0 0 -0.000346714 328.004 295.818 173.023 0.0015 
69 1 1 -0.0513544 -0.00167262 -0.109243 0 0 0 -0.721155 -0.0267903 -0.352672 0 0 -0.000346714 13.5753 -365.427 2.76259e-15 0.0015 
45 1 1 -0.0765975 0.000368364 -0.10334 0 0 0 -0.806305 -0.42317 0.340981 0 0 -0.000346714 389.887 -152.585 -138.964 0.0015 
152 1 1 -0.024174 0.00829329 -0.114726 0 0 0 -0.962404 0.236339 -0.114416 0 0 -0.000346714 -192.846 -614.458 -0.879042 0.0015 
143 1 1 -0.013496 0.00571014 -0.107614 0 0 0 -0.568531 -0.562166 0.0655659 0 0 -0.00160516 310.15 159.743 154.151 0.0025 
141 1 1 -0.0105713 0.0152967 -0.108193 0 0 0 -0.434322 0.158737 -0.0304331 0 0 -0.000346714 -109.852 -250.189 -79.4219 0.0015 
148 1 1 -0.0123822 0.0193457 -0.105771 0 0 0 -0.735628 -0.171811 0.185767 0 0 -0.000346714 87.7239 -375.599 8.68426e-15 0.0015 
96 1 1 -0.049565 0.0200311 -0.107914 0 0 0 -0.845457 -0.12801 -0.122346 0 0 -0.000346714 246.884 -254.322 -70.0386 0.0015 
61 1 1 -0.0127056 0.0457617 -0.105552 0 0 0 -0.0318564 0.330307 0.0343308 0 0 -0.000346714 -295.913 -31.9908 112.56 0.0015 
142 1 1 -0.012328 -0.0228422 -0.098677 0 0 0 -0.797047 0.224474 0.611825 0 0 -0.00160516 155.386 290.25 21.657 0.0025 
120 1 1 -0.0311789 -0.0189231 -0.105029 0 0 0 -0.756959 0.0982943 0.00826412 0 0 -0.00160516 -40.3372 -182.695 -16.5233 0.0025 
105 1 1 -0.0250219 -0.0135711 -0.105175 0 0 0 -0.53278 -0.202064 -0.451541 0 0 -0.00160516 -146.947 -258.459 -87.9433 0.0025 
118 1 1 -0.0183156 -0.01042 -0.101704 0 0 0 -0.730189 0.105817 0.0608523 0 0 -0.00160516 -32.7933 -226.29 -7.92876e-15 0.0025 
100 1 1 -0.0399523 -0.00731918 -0.104928 0 0 0 -0.579227 0.229689 -0.147548 0 0 -0.000346714 -212.708 -114.821 -170.59 0.0015 
144 1 1 -0.0222255 -0.000768861 -0.112928 0 0 0 -0.728842 -0.696646 -0.525104 0 0 -0.00160516 572.812 -117.689 244.936 0.0025 
89 1 1 -0.0478557 0.0193674 -0.101847 0 0 0 -0.5528 0.273197 0.215772 0 0 -0.000346714 -314.22 -140.985 -64.0011 0.0015 
99 1 1 -0.0384382 0.0161421 -0.104787 0 0 0 -0.732365 -0.171049 -0.191602 0 0 -0.000346714 87.9167 -376.425 1.7442e-13 0.0015 
134 1 1 -0.0274264 0.016687 -0.101317 0 0 0 -0.378435 0.170477 0.195029 0 0 -0.000346714 -203.412 441.886 -62.7026 0.0015 
135 1 1 -0.0165391 0.0204115 -0.104408 0 0 0 -0.732486 -0.171077 0.121112 0 0 -0.000346714 88.3809 -378.412 1.11828e-13 0.0015 
151 1 1 -0.0104522 0.0248538 -0.103804 0 0 0 -0.730455 -0.170603 0.170898 0 0 -0.000346714 87.8954 -376.333 -1.05237e-14 0.0015 
119 1 1 -0.020098 0.0238829 -0.101353 0 0 0 -0.712381 -0.32608 -0.0122737 0 0 -0.00160516 102.404 -223.72 9.36145e-14 0.0025 
147 1 1 -0.0156839 -0.0156804 -0.111666 0 0 0 -0.741121 0.138343 0.265574 0 0 -0.000346714 -71.6883 -384.044 1.7935e-13 0.0015 
154 1 1 -0.00828125 -0.0126132 -0.107961 0 0 0 -0.716414 0.128005 0.273152 0 0 -0.000346714 -65.4264 -366.178 -1.54887e-14 0.0015 
150 1 1 -0.0079376 -0.00564317 -0.108155 0 0 0 -0.737252 0.10684 0.256732 0 0 -0.000346714 -54.529 -376.277 5.92004e-14 0.0015 
155 1 1 -0.0214963 -0.0266191 -0.109002 0 0 0 0 0 -2.02971 0 0 -0.00160516 0 0 0 0.0025 
145 1 1 -0.00405345 0.00416574 -0.105455 0 0 0 -0.717364 -0.0266495 0.280298 0 0 -0.00160516 8.19457 -220.585 -6.73245e-16 0.0025 
163 1 1 -0.0251386 0.0339743 -0.107812 0 0 0 0 0 -2.02392 0 0 -0.000346714 0 0 0 0.0015 
165 1 1 -0.0326006 -0.0344541 -0.100645 0 0 0 0 0 -1.9889 0 0 -0.000346714 0 0 0 0.0015 
160 1 1 -0.0237391 -0.0110312 -0.102102 0 0 0 -0.00149982 0.584431 -0.627499 0 0 -0.000346714 -337.933 529.744 -215.53 0.0015 
159 1 1 -0.0229207 0.0293808 -0.101822 0 0 0 0 0 -1.99468 0 0 -0.000346714 0 0 0 0.0015 
158 1 1 -0.0239437 -0.00737998 -0.0972026 0 0 0 0 0 -1.97183 0 0 -0.00160516 0 0 0 0.0025 
157 1 1 -0.00372425 -0.00768845 -0.0996382 0 0 0 0 0 -1.98389 0 0 -0.00160516 0 0 0 0.0025 
162 1 1 -0.00596878 0.00110293 -0.0966921 0 0 0 0 0 -1.96928 0 0 -0.000346714 0 0 0 0.0015 
161 1 1 -0.0310811 0.0209557 -0.09817 0 0 0 0 0 -1.97663 0 0 -0.000346714 0 0 0 0.0015 
166 1 1 -0.0334498 0.0192376 -0.0943511 0 0 0 0 0 -1.9576 0 0 -0.000346714 0 0 0 0.0015 
175 1 1 -0.00243205 -0.0275788 -0.0894662 0 0 0 0 0 -1.93298 0 0 -0.000346714 0 0 0 0.0015 
176 1 1 -0.0260626 -0.0145959 -0.090863 0 0 0 0 0 -1.94004 0 0 -0.000346714 0 0 0 0.0015 
173 1 1 -0.0280772 0.00199937 -0.0918168 0 0 0 0 0 -1.94485 0 0 -0.000346714 0 0 0 0.0015 
164 1 1 -0.0186593 0.0101406 -0.0921847 0 0 0 0 0 -1.94671 0 0 -0.000346714 0 0 0 0.0015 
156 1 1 -0.0192512 0.0203811 -0.0927092 0 0 0 0 0 -1.94936 0 0 -0.00160516 0 0 0 0.0025 
172 1 1 -0.0233162 -0.0257488 -0.0887728 0 0 0 0 0 -1.92945 0 0 -0.000346714 0 0 0 0.0015 
168 1 1 -0.0175477 0.0137467 -0.0871821 0 0 0 0 0 -1.92131 0 0 -0.00160516 0 0 0 0.0025 
170 1 1 -0.000114354 0.021065 -0.0865463 0 0 0 0 0 -1.91807 0 0 -0.00160516 0 0 0 0.0025 
171 1 1 -0.0180071 -0.0127461 -0.0836761 0 0 0 0 0 -1.90335 0 0 -0.000346714 0 0 0 0.0015 
178 1 1 -0.0228627 0.00282045 -0.085586 0 0 0 0 0 -1.91316 0 0 -0.000346714 0 0 0 0.0015 
179 1 1 -0.0322154 -0.0246784 -0.0801367 0 0 0 0 0 -1.88501 0 0 -0.000346714 0 0 0 0.0015 
177 1 1 -0.01426 -0.0150654 -0.0787468 0 0 0 0 0 -1.87775 0 0 -0.000346714 0 0 0 0.0015 
167 1 1 -0.0273571 -0.0103215 -0.0794561 0 0 0 0 0 -1.88148 0 0 -0.00160516 0 0 0 0.0025 
174 1 1 -0.0341304 -0.00318577 -0.0773034 0 0 0 0 0 -1.8702 0 0 -0.000346714 0 0 0 0.0015 
169 1 1 -0.0234861 -0.0194352 -0.071681 0 0 0 0 0 -1.84047 0 0 -0.00160516 0 0 0 0.0025 
185 1 1 -0.0184157 0.00363086 -0.0713523 0 0 0 0 0 -1.83871 0 0 -0.000346714 0 0 0 0.0015 
182 1 1 -0.00169906 -0.0346379 -0.0689804 0 0 0 0 0 -1.82605 0 0 -0.00160516 0 0 0 0.0025 
186 1 1 -0.0106048 -0.00789334 -0.067492 0 0 0 0 0 -1.81801 0 0 -0.000346714 0 0 0 0.0015 
192 1 1 -0.00264988 -0.0095541 -0.0707616 0 0 0 0 0 -1.83557 0 0 -0.000346714 0 0 0 0.0015 
191 1 1 -0.0200733 -0.00130471 -0.0701745 0 0 0 0 0 -1.83243 0 0 -0.000346714 0 0 0 0.0015 
180 1 1 -0.0258257 0.0147617 -0.0678585 0 0 0 0 0 -1.81997 0 0 -0.00160516 0 0 0 0.0025 
184 1 1 -0.00526421 0.027503 -0.0677652 0 0 0 0 0 -1.81948 0 0 -0.000346714 0 0 0 0.0015 
183 1 1 -0.0107488 0.0329346 -0.064759 0 0 0 0 0 -1.80319 0 0 -0.00160516 0 0 0 0.0025 
181 1 1 -0.0264666 -0.025466 -0.0625115 0 0 0 0 0 -1.79093 0 0 -0.00160516 0 0 0 0.0025 
190 1 1 -0.00998901 0.00893206 -0.0624014 0 0 0 0 0 -1.79034 0 0 -0.000346714 0 0 0 0.0015 
188 1 1 -0.0196577 -0.024903 -0.0587836 0 0 0 0 0 -1.77043 0 0 -0.000346714 0 0 0 0.0015 
187 1 1 -0.0249489 0.0269151 -0.0579237 0 0 0 0 0 -1.76562 0 0 -0.000346714 0 0 0 0.0015 
200 1 1 -0.0201644 -0.0275601 -0.0550251 0 0 0 0 0 -1.74943 0 0 -0.000346714 0 0 0 0.0015 
195 1 1 -0.00018665 -0.0192075 -0.0529151 0 0 0 0 0 -1.73756 0 0 -0.00160516 0 0 0 0.0025 
204 1 1 -0.0121862 -0.00588198 -0.0538857 0 0 0 0 0 -1.74306 0 0 -0.000346714 0 0 0 0.0015 
198 1 1 -0.0278654 0.00172744 -0.0530196 0 0 0 0 0 -1.73815 0 0 -0.000346714 0 0 0 0.0015 
189 1 1 -0.0134549 0.0182926 -0.055772 0 0 0 0 0 -1.75365 0 0 -0.000346714 0 0 0 0.0015 
196 1 1 -0.0173269 -0.0294256 -0.049235 0 0 0 0 0 -1.71667 0 0 -0.00160516 0 0 0 0.0025 
193 1 1 -0.0232114 -0.0230043 -0.0467716 0 0 0 0 0 -1.70254 0 0 -0.00160516 0 0 0 0.0025 
205 1 1 -0.00546888 -0.024539 -0.0490292 0 0 0 0 0 -1.71549 0 0 -0.000346714 0 0 0 0.0015 
197 1 1 -0.0244014 0.0243576 -0.047625 0 0 0 0 0 -1.70745 0 0 -0.000346714 0 0 0 0.0015 
203 1 1 -0.0317899 0.0348276 -0.0480556 0 0 0 0 0 -1.7099 0 0 -0.000346714 0 0 0 0.0015 
201 1 1 -0.00148336 -0.00863773 -0.0446141 0 0 0 0 0 -1.69008 0 0 -0.000346714 0 0 0 0.0015 
202 1 1 -0.00237574 0.0349629 -0.0429779 0 0 0 0 0 -1.68057 0 0 -0.000346714 0 0 0 0.0015 
194 1 1 -0.0299737 -0.0249092 -0.0411685 0 0 0 0 0 -1.66997 0 0 -0.00160516 0 0 0 0.0025 
199 1 1 -0.0209901 0.00167617 -0.0415944 0 0 0 0 0 -1.67243 0 0 -0.000346714 0 0 0 0.0015 
212 1 1 -0.0118483 0.00949823 -0.036027 0 0 0 0 0 -1.63946 0 0 -0.000346714 0 0 0 0.0015 
209 1 1 -0.00795 0.0273623 -0.0350805 0 0 0 0 0 -1.63378 0 0 -0.00160516 0 0 0 0.0025 
215 1 1 -0.0133438 0.0300767 -0.0365966 0 0 0 0 0 -1.6429 0 0 -0.000346714 0 0 0 0.0015 
216 1 1 -0.00916175 0.0316192 -0.0363022 0 0 0 0 0 -1.64113 0 0 -0.000346714 0 0 0 0.0015 
218 1 1 -0.0116971 -0.0149443 -0.0315044 0 0 0 0 0 -1.61219 0 0 -0.000346714 0 0 0 0.0015 
217 1 1 -0.00525173 0.0148756 -0.0340961 0 0 0 0 0 -1.62789 0 0 -0.000346714 0 0 0 0.0015 
206 1 1 -0.0315415 -0.0266248 -0.0272237 0 0 0 0 0 -1.5859 0 0 -0.00160516 0 0 0 0.0025 
207 1 1 -0.014731 -0.00384992 -0.0288307 0 0 0 0 0 -1.59581 0 0 -0.00160516 0 0 0 0.0025 
211 1 1 -0.0325497 0.0284222 -0.0299291 0 0 0 0 0 -1.60258 0 0 -0.000346714 0 0 0 0.0015 
214 1 1 -0.000147874 -0.0328927 -0.0240081 0 0 0 0 0 -1.56589 0 0 -0.000346714 0 0 0 0.0015 
213 1 1 -0.0258692 -0.0150214 -0.0245398 0 0 0 0 0 -1.56923 0 0 -0.000346714 0 0 0 0.0015 
208 1 1 -0.0313425 0.0167345 -0.0268391 0 0 0 0 0 -1.58355 0 0 -0.00160516 0 0 0 0.0025 
210 1 1 -0.0220067 0.0311963 -0.0268554 0 0 0 0 0 -1.58365 0 0 -0.00160516 0 0 0 0.0025 
223 1 1 -0.0141421 0.000627184 -0.0199082 0 0 0 0 0 -1.53999 0 0 -0.000346714 0 0 0 0.0015 
226 1 1 -0.0256746 -0.0295973 -0.0180014 0 0 0 0 0 -1.52783 0 0 -0.000346714 0 0 0 0.0015 
219 1 1 -0.0126988 -0.0187384 -0.0191721 0 0 0 0 0 -1.53528 0 0 -0.00160516 0 0 0 0.0025 
228 1 1 -0.0186146 -0.0100891 -0.0181276 0 0 0 0 0 -1.52861 0 0 -0.000346714 0 0 0 0.0015 
229 1 1 -0.0206785 0.0145985 -0.0168192 0 0 0 0 0 -1.52018 0 0 -0.000346714 0 0 0 0.0015 
227 1 1 -0.0125397 -0.025785 -0.0149961 0 0 0 0 0 -1.5084 0 0 -0.000346714 0 0 0 0.0015 
224 1 1 -0.0104339 -0.00964248 -0.0159029 0 0 0 0 0 -1.51429 0 0 -0.000346714 0 0 0 0.0015 
230 1 1 -0.0158011 0.0337207 -0.014513 0 0 0 0 0 -1.50526 0 0 -0.000346714 0 0 0 0.0015 
225 1 1 -0.0349321 -0.00790873 -0.00866637 0 0 0 0 0 -1.46661 0 0 -0.000346714 0 0 0 0.0015 
240 1 1 -0.0114835 -0.0265679 -0.00644735 0 0 0 0 0 -1.4517 0 0 -0.000346714 0 0 0 0.0015 
231 1 1 -0.0172445 0.00368684 -0.00500831 0 0 0 0 0 -1.44199 0 0 -0.00160516 0 0 0 0.0025 
221 1 1 -0.03004 0.0154412 -0.00713142 0 0 0 0 0 -1.45631 0 0 -0.00160516 0 0 0 0.0025 
220 1 1 -0.0245784 0.0311922 -0.00631581 0 0 0 0 0 -1.45082 0 0 -0.00160516 0 0 0 0.0025 
222 1 1 -0.00133775 0.0319388 -0.00569254 0 0 0 0 0 -1.4466 0 0 -0.00160516 0 0 0 0.0025 
239 1 1 -0.004822 -0.0263713 -0.0036473 0 0 0 0 0 -1.43267 0 0 -0.000346714 0 0 0 0.0015 
232 1 1 -0.0305153 0.021925 -0.0032592 0 0 0 0 0 -1.43002 0 0 -0.00160516 0 0 0 0.0025 
236 1 1 -0.011765 -0.0317196 9.70263e-05 0 0 0 0 0 -1.40677 0 0 -0.000346714 0 0 0 0.0015 
238 1 1 -0.00523715 -0.00399455 0.000831195 0 0 0 0 0 -1.40167 0 0 -0.000346714 0 0 0 0.0015 
235 1 1 -0.00913613 0.0130219 0.00244781 0 0 0 0 0 -1.39029 0 0 -0.000346714 0 0 0 0.0015 
237 1 1 -0.0276781 -0.0346784 0.0045028 0 0 0 0 0 -1.37577 0 0 -0.000346714 0 0 0 0.0015 
234 1 1 -0.00624641 -0.0254844 0.00419666 0 0 0 0 0 -1.37793 0 0 -0.00160516 0 0 0 0.0025 
242 1 1 -0.024936 0.00943572 0.00335362 0 0 0 0 0 -1.38391 0 0 -0.000346714 0 0 0 0.0015 
241 1 1 -0.0178674 0.023228 0.00390786 0 0 0 0 0 -1.37999 0 0 -0.000346714 0 0 0 0.0015 
243 1 1 -0.0312596 -0.0342874 0.00688149 0 0 0 0 0 -1.3587 0 0 -0.000346714 0 0 0 0.0015 
233 1 1 -0.0140583 -0.0235405 0.00694519 0 0 0 0 0 -1.35821 0 0 -0.00160516 0 0 0 0.0025 
247 1 1 -0.00778825 -0.017605 0.00860973 0 0 0 0 0 -1.34615 0 0 -0.00160516 0 0 0 0.0025 
249 1 1 -0.000908632 0.0183203 0.00898679 0 0 0 0 0 -1.3434 0 0 -0.000346714 0 0 0 0.0015 
255 1 1 -0.0103972 0.0260911 0.0080111 0 0 0 0 0 -1.35046 0 0 -0.000346714 0 0 0 0.0015 
254 1 1 -0.0334625 0.0326024 0.00948603 0 0 0 0 0 -1.33977 0 0 -0.000346714 0 0 0 0.0015 
256 1 1 -0.0202693 -0.0311084 0.0108547 0 0 0 0 0 -1.32967 0 0 -0.000346714 0 0 0 0.0015 
251 1 1 -0.0322818 -0.0136491 0.0125348 0 0 0 0 0 -1.31721 0 0 -0.000346714 0 0 0 0.0015 
250 1 1 -0.0242205 -0.0101411 0.0125886 0 0 0 0 0 -1.31681 0 0 -0.000346714 0 0 0 0.0015 
248 1 1 -0.00508252 -0.00729713 0.0102527 0 0 0 0 0 -1.33408 0 0 -0.000346714 0 0 0 0.0015 
246 1 1 -0.00133703 0.00391048 0.0137185 0 0 0 0 0 -1.30838 0 0 -0.00160516 0 0 0 0.0025 
252 1 1 -0.0171169 0.0130299 0.0121898 0 0 0 0 0 -1.31976 0 0 -0.000346714 0 0 0 0.0015 
253 1 1 -0.0330193 -0.0287184 0.0161224 0 0 0 0 0 -1.29023 0 0 -0.000346714 0 0 0 0.0015 
245 1 1 -0.0327952 0.00273344 0.0172163 0 0 0 0 0 -1.28189 0 0 -0.00160516 0 0 0 0.0025 
244 1 1 -0.0304516 0.017575 0.0142019 0 0 0 0 0 -1.30475 0 0 -0.00160516 0 0 0 0.0025 
265 1 1 -0.0282211 -0.0123493 0.0207771 0 0 0 0 0 -1.25432 0 0 -0.000346714 0 0 0 0.0015 
267 1 1 -0.0169822 0.00918438 0.0224205 0 0 0 0 0 -1.24138 0 0 -0.000346714 0 0 0 0.0015 
264 1 1 -0.0266383 0.0211746 0.0240712 0 0 0 0 0 -1.22833 0 0 -0.000346714 0 0 0 0.0015 
269 1 1 -0.0323156 0.0257586 0.0218376 0 0 0 0 0 -1.24599 0 0 -0.000346714 0 0 0 0.0015 
262 1 1 -0.0242312 -0.0119118 0.0257548 0 0 0 0 0 -1.21479 0 0 -0.000346714 0 0 0 0.0015 
261 1 1 -0.0084722 -0.0123243 0.0285481 0 0 0 0 0 -1.19203 0 0 -0.000346714 0 0 0 0.0015 
257 1 1 -0.016367 0.0234551 0.027082 0 0 0 0 0 -1.204 0 0 -0.00160516 0 0 0 0.0025 