ITEM: TIMESTEP
41200
ITEM: NUMBER OF ATOMS
539
ITEM: BOX BOUNDS ff ff ff
-0.5 0.1
-0.2 0.2
-0.4 0.15
ITEM: ATOMS id type type x y z ix iy iz vx vy vz fx fy fz omegax omegay omegaz radius 
85 1 1 -0.374417 -0.0360488 -0.264631 0 0 0 -1.13812 0.392769 -1.07652 0 0 -0.000346714 -590.532 -294.61 698.542 0.0015 
47 1 1 -0.338761 0.00955078 -0.248986 0 0 0 -1.51283 -0.159914 -0.756911 0 0 -0.000346714 98.6681 -1100.17 40.6157 0.0015 
30 1 1 -0.325025 -0.0145412 -0.240982 0 0 0 -1.38706 0.0524024 -0.601779 0 0 -0.00160516 -39.2856 -605.929 42.5201 0.0025 
36 1 1 -0.31375 -0.0147782 -0.237149 0 0 0 -1.33006 0.107393 -0.567533 0 0 -0.000346714 -94.7266 -958.112 42.4914 0.0015 
11 1 1 -0.314512 -0.0112703 -0.23795 0 0 0 -1.36295 0.115086 -0.588856 0 0 -0.000346714 -130.587 -971.872 116.733 0.0015 
31 1 1 -0.320873 0.029826 -0.236766 0 0 0 -1.3998 -0.000726766 -0.5694 -7.65584e-05 -6.44198e-05 -5.97753e-05 86.0493 -985.428 -210.294 0.0015 
2 1 1 -0.306548 0.00829434 -0.233801 0 0 0 -1.25924 0.0249223 -0.529927 -0.000411135 -6.17986e-05 -0.000171878 -14.5507 -548.62 8.77538 0.0025 
38 1 1 -0.385013 0.0626206 -0.235758 0 0 0 -1.28232 -0.252842 -0.973967 0 0 -0.000346714 353.317 -1209.87 -459.629 0.0015 
4 1 1 -0.295392 -0.00960958 -0.229138 0 0 0 -1.25158 0.0230547 -0.52907 -0.000407956 0.0001055 -0.000176659 -3.51205 -547.956 -15.5699 0.0025 
18 1 1 -0.292189 0.0163045 -0.228005 0 0 0 -1.1436 0.0261187 -0.470957 -7.69922e-05 -3.41872e-05 -7.32741e-05 -58.0002 -857.567 92.9359 0.0015 
17 1 1 -0.296094 0.0263388 -0.227708 0 0 0 -1.20201 0.0524478 -0.480138 -8.40691e-05 -3.83346e-05 -4.1321e-05 34.1635 -845.46 -177.881 0.0015 
21 1 1 -0.28342 -0.0068899 -0.225403 0 0 0 -1.13374 -0.00759853 -0.477829 -8.85685e-05 7.15652e-06 -3.76994e-05 57.1302 -825.29 -122.426 0.0015 
20 1 1 -0.278061 0.0135615 -0.222539 0 0 0 -1.14042 0.0736177 -0.469241 4.04093e-05 2.6373e-05 -0.000400335 -43.2874 -832.111 -27.0696 0.0015 
5 1 1 -0.289196 0.0266215 -0.224781 0 0 0 -1.11561 0.0310608 -0.46705 0 0 -0.000346714 -2.51703 -812.99 -59.0377 0.0015 
24 1 1 -0.283843 0.0259303 -0.222786 0 0 0 -1.20992 0.0605336 -0.490855 0 0 -0.000346714 -11.3575 -869.905 -80.8013 0.0015 
12 1 1 -0.296308 0.0332872 -0.225599 0 0 0 -1.28599 0.0113753 -0.546511 0 0 -0.000346714 91.595 -882.725 -251.658 0.0015 
8 1 1 -0.271443 0.00266798 -0.220456 0 0 0 -1.15602 -0.0160388 -0.492725 -0.000101574 -1.28167e-05 -1.10826e-06 64.8725 -832.463 -125.183 0.0015 
22 1 1 -0.26882 0.000453282 -0.219458 0 0 0 -1.1464 -0.0169451 -0.487905 -0.000313507 -3.57049e-05 0.000363024 4.04534 -834.532 19.5889 0.0015 
6 1 1 -0.272667 0.00638091 -0.220782 0 0 0 -1.14843 0.0051675 -0.488648 -7.74702e-05 -9.98818e-06 -4.93225e-05 -44.4223 -838.424 95.7347 0.0015 
71 1 1 -0.268412 0.00826097 -0.218882 0 0 0 -1.10626 0.0416666 -0.460962 -8.81589e-05 -1.03669e-05 -3.73348e-05 -32.432 -801.013 5.42707 0.0015 
32 1 1 -0.269294 0.0115883 -0.219087 0 0 0 -1.13873 0.0442167 -0.474454 -8.79949e-05 -1.03713e-05 -3.71716e-05 -18.0919 -822.614 -33.241 0.0015 
26 1 1 -0.282742 0.0330164 -0.219095 0 0 0 -1.25793 0.105198 -0.483957 -0.00250573 -0.000948901 0.00733233 -58.7191 -575.497 32.0096 0.0025 
23 1 1 -0.265919 -0.0149681 -0.217241 0 0 0 -1.10314 0.00815051 -0.462059 -9.92455e-05 2.71033e-05 -1.01087e-05 -19.9734 -798.108 33.5887 0.0015 
35 1 1 -0.263878 -0.0128393 -0.216629 0 0 0 -1.11423 -0.00701561 -0.464593 -8.52903e-05 2.26621e-05 -4.90176e-05 -36.737 -798.48 100.157 0.0015 
57 1 1 -0.260679 0.00406883 -0.21583 0 0 0 -1.13631 0.129631 -0.475129 -6.86272e-05 -5.18606e-06 -0.000122523 -113.911 -825.989 46.5853 0.0015 
37 1 1 -0.270025 0.0279102 -0.216404 0 0 0 -1.19522 0.0563198 -0.461954 -9.356e-05 -6.20596e-05 -3.17523e-05 -28.1981 -877.42 -34.3259 0.0015 
3 1 1 -0.274471 0.0318123 -0.215984 0 0 0 -1.23672 -0.0256699 -0.502268 -0.00038451 -0.000269067 -0.000182961 44.9126 -527.531 -83.6135 0.0025 
72 1 1 -0.324001 -0.0681565 -0.212009 0 0 0 -1.3828 0.142112 -0.488744 0 0 -0.000346714 -248.697 -830.908 528.372 0.0015 
14 1 1 -0.263656 -0.0183678 -0.214775 0 0 0 -1.13556 -0.0973136 -0.4562 -0.000885431 0.000543698 0.00227539 35.4608 -499.64 16.1786 0.0025 
10 1 1 -0.254883 -0.0048655 -0.213431 0 0 0 -0.95711 -0.0343795 -0.400163 -8.79038e-05 9.18231e-06 -3.85493e-05 -7.9531 -689.479 78.2554 0.0015 
16 1 1 -0.263903 0.016087 -0.215055 0 0 0 -1.23019 -0.056481 -0.520774 0.000335057 0.000229708 -0.00238423 64.2022 -523.632 -95.2191 0.0025 
75 1 1 -0.259783 0.0203066 -0.213785 0 0 0 -1.21579 -0.0882449 -0.516351 -5.70747e-05 -1.79408e-05 -0.000148098 44.4828 -893.779 47.3686 0.0015 
48 1 1 -0.278672 0.0480943 -0.212591 0 0 0 -1.15627 0.0161037 -0.464113 0 0 -0.000346714 68.9396 -801.356 -209.63 0.0015 
79 1 1 -0.267123 -0.0435683 -0.208934 0 0 0 -1.28154 0.214057 -0.580419 0 0 -0.00160516 -134.749 -548.71 99.6663 0.0025 
138 1 1 -0.254668 -0.0311496 -0.209152 0 0 0 -1.36698 0.177232 -0.642648 0 0 -0.000346714 -190.814 -967.43 154.324 0.0015 
76 1 1 -0.249371 -0.00116713 -0.211265 0 0 0 -1.06786 0.104379 -0.450256 -9.26932e-05 -9.3262e-06 -2.55098e-05 -80.9518 -775.219 12.3212 0.0015 
42 1 1 -0.247364 0.0138432 -0.208448 0 0 0 -1.1704 -0.184844 -0.52138 -0.000352035 -0.000119224 -0.000353833 98.7605 -507.011 -41.9467 0.0025 
51 1 1 -0.275959 0.048523 -0.211178 0 0 0 -1.14946 0.0389177 -0.49236 0 0 -0.000346714 17.8532 -745.438 -167.762 0.0015 
52 1 1 -0.244832 -0.0171624 -0.206882 0 0 0 -1.05178 0.0460305 -0.425834 -0.000385835 0.00014392 -0.000185079 -42.5033 -449.11 56.4336 0.0025 
113 1 1 -0.242696 -0.00759926 -0.20817 0 0 0 -1.08915 0.16663 -0.477794 -0.000901567 0.000268453 0.00266308 -192.492 -784.867 171.86 0.0015 
50 1 1 -0.23766 -0.00987034 -0.205754 0 0 0 -1.02726 0.0510917 -0.458274 0 0 -0.000346714 -4.39834 -750.569 -75.8472 0.0015 
28 1 1 -0.237969 -0.00195942 -0.20536 0 0 0 -1.08887 0.153917 -0.45434 -0.000152774 -1.29398e-05 -0.000983634 -88.2208 -475.108 49.7345 0.0025 
56 1 1 -0.239132 0.00610881 -0.206647 0 0 0 -1.08282 -0.0342571 -0.453272 0.000704665 -0.000102748 -0.00176838 2.70249 -784.827 52.5395 0.0015 
96 1 1 -0.23622 0.00851415 -0.205355 0 0 0 -1.06633 -0.0219173 -0.445075 -8.82083e-05 -6.91817e-06 -3.60482e-05 132.878 -761.716 -280.842 0.0015 
49 1 1 -0.237552 0.0132815 -0.205491 0 0 0 -1.0601 -0.0129284 -0.452768 -8.75156e-05 -2.76884e-05 -4.27736e-05 59.2586 -758.538 -117.085 0.0015 
41 1 1 -0.238484 -0.0220407 -0.203477 0 0 0 -0.990028 0.0445653 -0.454955 0 0 -0.00160516 -49.9578 -421.857 72.603 0.0025 
25 1 1 -0.225912 -0.00112784 -0.201272 0 0 0 -1.03398 0.0768872 -0.440766 -5.5255e-05 -3.09951e-06 -0.000113715 -103.262 -753.054 110.859 0.0015 
55 1 1 -0.240171 0.0247317 -0.203777 0 0 0 -1.11874 0.0824558 -0.443037 -0.000425645 -0.000193539 -0.000608509 -38.328 -498.924 2.34342 0.0025 
46 1 1 -0.232292 0.0220203 -0.202079 0 0 0 -1.07586 0.0312466 -0.441256 -8.62366e-05 -2.70728e-05 -3.92289e-05 2.31117 -774.377 -60.4708 0.0015 
107 1 1 -0.225274 -0.0226196 -0.197877 0 0 0 -1.13911 0.0485136 -0.491075 -0.00238353 0.00118342 0.00749992 -21.6168 -504.792 -2.80689 0.0025 
60 1 1 -0.223919 -0.0107822 -0.19988 0 0 0 -1.05219 -0.0217447 -0.459344 0 0 -0.000346714 40.4416 -767.553 -59.2797 0.0015 
39 1 1 -0.220819 -0.00842801 -0.197694 0 0 0 -1.05082 -0.00556054 -0.435008 -0.000400653 8.82949e-05 -0.000177047 10.6236 -458.749 -19.8037 0.0025 
19 1 1 -0.224225 0.0116406 -0.200061 0 0 0 -1.03496 -0.0531895 -0.448307 -8.85666e-05 -2.53917e-05 -4.00585e-05 47.424 -752.87 -20.1574 0.0015 
78 1 1 -0.236227 0.032814 -0.200082 0 0 0 -1.13299 0.0187787 -0.456695 -0.000380855 -0.000235772 -0.000197047 10.1832 -491.251 -45.4242 0.0025 
87 1 1 -0.217969 -0.02121 -0.196242 0 0 0 -0.833399 -0.069873 -0.324689 2.81238e-05 4.79783e-05 1.32649e-05 22.5993 -520.736 90.0955 0.0015 
111 1 1 -0.215011 -0.0129368 -0.195961 0 0 0 -1.02072 0.0114638 -0.41938 -0.000101504 1.52987e-05 -6.71209e-05 -43.6619 -730.92 85.9554 0.0015 
81 1 1 -0.216575 0.000878033 -0.19729 0 0 0 -0.834421 0.0727607 -0.356694 -8.96894e-05 -2.43781e-06 -3.84105e-05 -36.5045 -605.106 -38.038 0.0015 
69 1 1 -0.211595 0.014559 -0.194353 0 0 0 -0.887359 0.169361 -0.375799 0 0 -0.000346714 -82.3762 -626.871 -101.815 0.0015 
40 1 1 -0.227043 0.029872 -0.197032 0 0 0 -1.07696 0.0601843 -0.446247 -0.000524116 -0.00057415 0.00226437 -37.9818 -487.929 28.3723 0.0025 
102 1 1 -0.221513 0.0323965 -0.195239 0 0 0 -1.07614 0.167392 -0.399366 -8.05127e-05 -4.63803e-05 -5.06921e-05 -90.2303 -774.252 -81.4058 0.0015 
1 1 1 -0.212197 -0.0147192 -0.19349 0 0 0 -1.00895 0.0169234 -0.430039 -0.000213275 4.09655e-05 -0.000809085 -55.3898 -428.904 112.572 0.0025 
29 1 1 -0.204562 0.00526011 -0.191105 0 0 0 -0.956465 -0.0148248 -0.397384 -0.000504785 -7.95414e-06 2.6118e-05 21.5891 -414.432 -36.4572 0.0025 
33 1 1 -0.205548 0.00912261 -0.192404 0 0 0 -0.930201 -0.00380488 -0.398022 -8.841e-05 -2.24694e-05 -3.95082e-05 42.0484 -668.148 -91.887 0.0015 
70 1 1 -0.203002 0.0112299 -0.190996 0 0 0 -0.861539 0.0381412 -0.366761 0 0 -0.000346714 6.50801 -605.578 -89.524 0.0015 
99 1 1 -0.209618 0.0215446 -0.192742 0 0 0 -0.838628 -0.0434199 -0.351458 2.12539e-05 -1.00061e-05 -2.8398e-05 15.6551 -349.683 -58.1415 0.0015 
43 1 1 -0.213293 0.0337946 -0.191547 0 0 0 -0.867813 0.17814 -0.3248 2.9768e-05 -5.12556e-05 0.000188722 -51.1115 -448.471 -262.374 0.0015 
174 1 1 -0.230418 -0.0545394 -0.190417 0 0 0 -1.25829 -0.173506 -0.385839 -6.65066e-05 9.14026e-05 -7.10947e-05 18.3877 -833.864 314.999 0.0015 
53 1 1 -0.202168 0.000753024 -0.189793 0 0 0 -0.816845 0.0272587 -0.283388 0 0 -0.00160516 -37.1989 -340.016 54.0779 0.0025 
88 1 1 -0.197717 0.00893374 -0.188657 0 0 0 -0.880523 0.137222 -0.307765 0 0 -0.000346714 -102.449 -614.414 -10.7019 0.0015 
64 1 1 -0.198325 0.022011 -0.187824 0 0 0 -0.788805 0.180601 -0.377915 0 0 -0.000346714 -53.7685 -470.702 -173.697 0.0015 
34 1 1 -0.242767 0.0637358 -0.189926 0 0 0 -1.15692 -0.114714 -0.494868 -5.61892e-05 -8.53022e-05 -9.91838e-05 207.811 -756.342 -310.558 0.0015 
7 1 1 -0.232738 -0.0628275 -0.186793 0 0 0 -0.937562 0.335147 -0.579004 -5.25114e-05 9.64296e-05 -0.000102995 -389.583 -598.013 284.696 0.0015 
165 1 1 -0.191769 -0.0288136 -0.18374 0 0 0 -0.841961 -0.0724806 -0.352314 0 0 -0.000346714 29.3723 -598.457 69.6161 0.0015 
27 1 1 -0.195332 -0.0225075 -0.185441 0 0 0 -0.977685 -0.0712723 -0.416001 0 0 -0.00160516 35.4377 -426.931 -10.2372 0.0025 
98 1 1 -0.186366 -0.0116649 -0.184094 0 0 0 -0.921297 -0.0981894 -0.368665 -8.59307e-05 2.46818e-05 -4.01152e-05 47.6467 -662.024 57.258 0.0015 
120 1 1 -0.205492 -0.00194993 -0.185751 0 0 0 -1.38292 -0.118185 -0.36951 0 0 -0.00160516 72.4082 62.6528 13.5061 0.0025 
108 1 1 -0.186207 0.00382907 -0.183836 0 0 0 -0.90608 0.0386384 -0.307026 0 0 -0.000346714 23.3165 -610.446 -106.908 0.0015 
44 1 1 -0.188283 0.00537097 -0.185396 0 0 0 -0.874554 0.0183524 -0.362764 -2.81949e-05 3.66366e-07 -0.000192973 -0.513336 -631.531 -30.625 0.0015 
129 1 1 -0.201078 0.00828165 -0.184943 0 0 0 -1.26208 0.0935505 -0.317233 0 0 -0.00160516 72.9657 222.538 13.225 0.0025 
115 1 1 -0.199258 0.012052 -0.187705 0 0 0 -1.08192 0.0327145 -0.7302 0 0 -0.000346714 80.5194 -117.211 96.8533 0.0015 
58 1 1 -0.192129 0.0139141 -0.186248 0 0 0 -0.890556 -0.0515826 -0.385934 -9.79708e-05 -2.16282e-05 -1.9184e-05 92.7288 -636.413 -128.92 0.0015 
80 1 1 -0.188089 0.0125524 -0.183562 0 0 0 -0.769923 0.0985769 -0.312404 -0.000399454 -8.6043e-05 -0.000188127 -29.6419 -332.237 -31.7834 0.0025 
82 1 1 -0.194104 0.0202968 -0.186452 0 0 0 -0.961117 0.0305588 -0.394333 -0.000106129 -2.60787e-05 2.86692e-06 -105.522 -717.534 201.489 0.0015 
114 1 1 -0.190713 -0.0329773 -0.182379 0 0 0 -1.03905 -0.0263246 -0.434439 -0.00036074 0.00021356 0.000541174 -64.4427 -727.509 194.33 0.0015 
171 1 1 -0.188385 -0.0343405 -0.181 0 0 0 -1.01374 0.0202183 -0.473925 0 0 -0.000346714 62.9134 -734.453 -110.91 0.0015 
122 1 1 -0.180163 -0.0203658 -0.180499 0 0 0 -0.784261 -0.127289 -0.307802 -9.07549e-05 2.46868e-05 -3.99093e-05 97.4923 -570.605 -12.1458 0.0015 
84 1 1 -0.182981 -0.0151959 -0.182276 0 0 0 -0.833142 -0.102651 -0.331672 -8.4143e-05 2.41904e-05 -4.37542e-05 46.3464 -596.691 68.2568 0.0015 
63 1 1 -0.180477 -0.011723 -0.181657 0 0 0 -0.845152 0.103878 -0.334407 0.000140434 -9.90687e-05 -0.00137282 -103.426 -599.646 72.3849 0.0015 
97 1 1 -0.176448 -0.0094326 -0.180194 0 0 0 -0.844124 0.0399953 -0.34434 -0.000220142 2.70909e-05 0.000565985 -2.14831 -607.317 -65.8283 0.0015 
104 1 1 -0.18111 -0.00557166 -0.181118 0 0 0 -0.913038 0.0262931 -0.383276 -0.000397317 1.80249e-05 -0.00016859 -31.7381 -395.434 48.5476 0.0025 
133 1 1 -0.186468 -0.0006154 -0.182369 0 0 0 -1.16586 -0.397635 -0.404392 0 0 -0.000346714 360.479 433.296 65.4433 0.0015 
152 1 1 -0.189981 0.00679195 -0.180915 0 0 0 -1.02462 0.069023 -0.330124 0 0 -0.000346714 -51.5387 -313.555 -58.3812 0.0015 
54 1 1 -0.180184 0.0109572 -0.180396 0 0 0 -0.674511 0.0281384 -0.284301 -0.000410113 -8.21567e-05 -0.000181143 -1.20768 -292.063 -26.0413 0.0025 
77 1 1 -0.188622 0.0179112 -0.183294 0 0 0 -0.885984 0.146822 -0.359212 0 0 -0.00160516 -58.7461 -382.467 -13.3137 0.0025 
83 1 1 -0.179069 0.0192492 -0.180281 0 0 0 -0.863296 0.0334556 -0.35684 -8.21588e-05 -1.72794e-05 -5.5852e-05 -35.3478 -628.373 26.5052 0.0015 
137 1 1 -0.188001 0.0247916 -0.182997 0 0 0 -1.00566 0.209941 -0.380872 -8.55731e-05 -4.11169e-05 -4.42981e-05 -144.172 -735.352 -24.6586 0.0015 
139 1 1 -0.184665 0.029601 -0.18062 0 0 0 -0.899617 0.0891134 -0.360546 -8.06388e-05 -3.84178e-05 -5.735e-05 -97.1701 -677.382 74.947 0.0015 
45 1 1 -0.226752 -0.0650808 -0.177171 0 0 0 -0.88159 0.0868543 -0.255283 0 0 -0.000346714 38.1207 -633.678 42.0881 0.0015 
105 1 1 -0.177003 -0.0276173 -0.176826 0 0 0 -1.05222 -0.026913 -0.404451 0 0 -0.00160516 19.581 -464.133 -17.0959 0.0025 
91 1 1 -0.174989 0.00229051 -0.178703 0 0 0 -0.895672 0.00628023 -0.375319 -0.000348484 1.57208e-05 -0.000294803 16.6651 -389.603 -46.3241 0.0025 
116 1 1 -0.172345 0.00762326 -0.177348 0 0 0 -0.839037 0.0153293 -0.35478 -0.000481406 -2.99598e-05 -0.000203041 -6.88963 -366.232 0.0754702 0.0025 
140 1 1 -0.185748 0.0438945 -0.177053 0 0 0 -0.957842 -0.259048 -0.471255 -7.83455e-05 -6.41768e-05 -5.30473e-05 195.611 -719.633 -2.00456 0.0015 
66 1 1 -0.165711 -0.0219048 -0.173155 0 0 0 -0.861676 -0.0253797 -0.341465 -0.000547315 0.000231736 0.000230378 -11.0746 -366.988 55.1526 0.0025 
128 1 1 -0.166195 -0.0122525 -0.17499 0 0 0 -0.821919 0.0197297 -0.275065 0 0 -0.000346714 8.03507 -588.713 -40.68 0.0015 
93 1 1 -0.162917 -0.00770912 -0.173493 0 0 0 -0.774475 -0.119122 -0.308388 -0.000563554 7.81317e-05 5.17839e-05 27.333 -331.564 59.2039 0.0025 
166 1 1 -0.168379 -0.00126725 -0.176001 0 0 0 -0.936091 -0.0525832 -0.387123 0 0 -0.000346714 41.1494 -649.993 1.80512 0.0015 
203 1 1 -0.163387 -0.0033269 -0.174325 0 0 0 -0.823721 -0.0453209 -0.307682 0 0 -0.000346714 82.7936 -570.525 164.039 0.0015 
103 1 1 -0.168839 0.00430932 -0.17603 0 0 0 -0.871784 -0.0589707 -0.435151 0 0 -0.00160516 39.757 -323.073 19.0739 0.0025 
13 1 1 -0.1662 0.0101014 -0.17457 0 0 0 -0.777738 -0.0845537 -0.324267 0.000325846 0.00018265 -0.00202274 53.9906 -333.281 -42.6116 0.0025 
100 1 1 -0.162037 0.00684304 -0.174227 0 0 0 -0.810473 -0.0939194 -0.340475 -8.65786e-05 -1.8232e-05 -3.64972e-05 85.5482 -582.442 -42.9747 0.0015 
135 1 1 -0.167535 0.0201595 -0.175319 0 0 0 -0.898787 0.0183321 -0.375235 -8.5929e-05 -3.94895e-05 -4.3602e-05 27.8256 -641.865 -98.0076 0.0015 
74 1 1 -0.171505 -0.0486667 -0.16963 0 0 0 -0.872528 -0.0893815 -0.318421 0 0 -0.000346714 87.7678 -679.08 -46.3523 0.0015 
15 1 1 -0.163905 -0.0122261 -0.170756 0 0 0 -0.750589 0.00657873 -0.162479 0 0 -0.00160516 4.44952 372.846 25.3223 0.0025 
65 1 1 -0.155665 -0.00936793 -0.17031 0 0 0 -0.688486 0.0505344 -0.297794 -0.000474057 6.32393e-05 -3.32544e-05 22.7591 -306.227 -104.723 0.0025 
95 1 1 -0.151402 -0.00562795 -0.169786 0 0 0 -0.638429 0.0635573 -0.277616 -7.93088e-05 1.06509e-05 -4.87068e-05 -83.9925 -458.965 88.3319 0.0015 
163 1 1 -0.152935 -0.00218599 -0.1705 0 0 0 -0.743695 -0.0101659 -0.306145 -8.77617e-05 -2.55949e-06 -3.41022e-05 58.8154 -534.947 -125.12 0.0015 
164 1 1 -0.171506 0.00125503 -0.171511 0 0 0 -1.2613 -0.0091001 -0.23361 0 0 -0.000346714 -82.064 317.704 -96.5623 0.0015 
110 1 1 -0.167467 0.00435138 -0.172041 0 0 0 -0.859367 0.035011 -0.417657 0 0 -0.000346714 125.754 424.882 84.6611 0.0015 
172 1 1 -0.153274 0.00528396 -0.170549 0 0 0 -0.793248 -0.0431521 -0.328636 -2.48738e-05 -6.38467e-07 -0.000137383 11.6094 -572.813 47.4273 0.0015 
185 1 1 -0.158501 0.0100665 -0.172498 0 0 0 -0.784963 0.0394298 -0.318997 -8.07566e-05 -1.74917e-05 -4.23736e-05 -52.5281 -572.862 58.6273 0.0015 
62 1 1 -0.155115 0.0145588 -0.17067 0 0 0 -0.874932 -0.0354727 -0.384484 -1.44575e-05 -3.87291e-06 -0.000149932 32.6383 -637.042 -15.4814 0.0015 
121 1 1 -0.205393 -0.0767984 -0.16669 0 0 0 -0.911119 -0.0791321 -0.249773 -4.89754e-05 0.000112109 -0.000104475 82.3917 -829.111 -37.8705 0.0015 
149 1 1 -0.162268 -0.0407917 -0.168543 0 0 0 -0.955111 -0.0189924 -0.396218 0 0 -0.000346714 -53.2418 -649.417 184.22 0.0015 
112 1 1 -0.154537 -0.0345719 -0.16706 0 0 0 -0.914039 -0.00393867 -0.40341 0 0 -0.000346714 -110.768 -597.479 289.693 0.0015 
117 1 1 -0.156459 -0.0256577 -0.168718 0 0 0 -1.03533 -0.0577112 -0.429788 0.000105654 0.000282111 -6.37638e-05 -14.9712 -436.092 94.6927 0.0025 
131 1 1 -0.147493 -0.0100378 -0.16683 0 0 0 -0.782189 0.0523346 -0.32739 -0.000413464 4.94559e-05 -0.000149673 -17.1578 -340.051 -13.3682 0.0025 
127 1 1 -0.145899 -0.00624865 -0.167438 0 0 0 -0.801752 0.0729203 -0.336471 -8.70265e-05 1.04015e-05 -3.8293e-05 -62.0069 -578.533 22.3703 0.0015 
90 1 1 -0.146473 -0.00165637 -0.166716 0 0 0 -0.775873 -0.044043 -0.310885 0.000834143 0.00238541 -0.00322204 8.37575 -333.484 7.06585 0.0025 
167 1 1 -0.150701 0.00174405 -0.168456 0 0 0 -0.596454 -0.025274 -0.240714 8.33355e-05 -3.73461e-05 -0.000464318 9.22437 -98.3976 25.413 0.0025 
73 1 1 -0.146719 0.00220065 -0.167726 0 0 0 -0.517059 0.0546367 -0.221099 -0.000834143 -0.00238541 0.00127017 116.521 -274.602 28.835 0.0015 
158 1 1 -0.152492 0.00962549 -0.16895 0 0 0 -0.856796 0.0224777 -0.347082 -0.00053756 -0.00014798 0.000115818 4.85233 -368.505 -35.8336 0.0025 
151 1 1 -0.148881 0.0074192 -0.168569 0 0 0 -0.860713 0.0865572 -0.343199 0 0 -0.000346714 -174.62 -380.117 -243.231 0.0015 
68 1 1 -0.149451 0.0163579 -0.166941 0 0 0 -0.829479 -0.0691187 -0.348781 0 0 -0.00160516 39.0076 -357.975 -21.8297 0.0025 
199 1 1 -0.163698 0.04585 -0.167463 0 0 0 -0.978865 0.297976 -0.302171 0 0 -0.000346714 -172.255 -613.404 -209.456 0.0015 
173 1 1 -0.158949 0.0433215 -0.166314 0 0 0 -0.868042 0.0803178 -0.331062 -0.000199596 -0.000143743 5.88414e-05 -30.3918 -629.652 -73.1361 0.0015 
94 1 1 -0.167194 0.0497351 -0.166514 0 0 0 -0.837374 -0.165332 -0.390994 -0.000355234 -0.000283389 -0.000252553 109.162 -349.528 -85.9964 0.0025 
106 1 1 -0.155365 -0.0382709 -0.165322 0 0 0 -0.916882 -0.00554708 -0.408447 0 0 -0.00160516 -15.7347 -393.358 46.8788 0.0025 
243 1 1 -0.149807 -0.0253081 -0.164003 0 0 0 -0.91126 -0.198499 -0.386962 0 0 -0.000346714 -411.693 -335.621 -56.366 0.0015 
183 1 1 -0.141043 -0.01771 -0.163403 0 0 0 -0.60254 -0.0565324 -0.244128 0.000114487 6.02669e-05 4.10884e-05 63.1896 -121.464 -58.3863 0.0025 
101 1 1 -0.14033 -0.00736305 -0.16507 0 0 0 -0.863044 0.108242 -0.37222 -0.000300271 -3.79525e-05 0.00079578 -39.805 -629.733 -91.5255 0.0015 
150 1 1 -0.13615 -0.010364 -0.163151 0 0 0 -0.92767 0.0451937 -0.392139 -0.000437911 0.000133385 0.000693761 -123.819 -651.221 221.534 0.0015 
157 1 1 -0.137204 -0.00613485 -0.162676 0 0 0 -0.843618 0.079906 -0.368457 0 0 -0.00160516 -15.425 -366.782 -45.681 0.0025 
132 1 1 -0.138541 0.00132072 -0.163351 0 0 0 -0.578969 -0.0256772 -0.238914 0.000114914 4.94194e-05 5.21651e-05 -9.76451 -102.33 -3.21555 0.0025 
123 1 1 -0.138653 0.00602897 -0.164297 0 0 0 -0.606643 -0.0052115 -0.249506 -8.68575e-05 -8.0534e-06 -3.62896e-05 25.878 -435.699 -53.8177 0.0015 
208 1 1 -0.144075 0.00733765 -0.165458 0 0 0 -0.682021 -0.231264 -0.301658 -0.000437029 -2.3284e-05 -0.000124608 81.452 -298.798 44.9262 0.0025 
92 1 1 -0.147941 0.0306942 -0.164093 0 0 0 -0.768665 -0.0422537 -0.339093 -0.000367588 -0.000179232 -0.000294114 39.9532 -330.672 -49.3738 0.0025 
67 1 1 -0.152722 0.0350445 -0.16522 0 0 0 -0.72562 0.0397693 -0.287687 -0.000648741 -0.000282034 0.000396915 -4.96811 -317.59 -31.9521 0.0025 
161 1 1 -0.142817 0.0324754 -0.162621 0 0 0 -0.7221 -0.00438054 -0.325274 0.000137793 2.53569e-05 0.000848562 11.2273 -528.579 -19.1469 0.0015 
130 1 1 -0.155389 0.0441714 -0.163462 0 0 0 -0.824477 -0.0742317 -0.35629 -0.000372668 -0.000286218 -0.000223222 70.3959 -341.973 -91.6503 0.0025 
177 1 1 -0.135356 -0.0323003 -0.159653 0 0 0 -0.697054 -0.0296974 -0.281598 -8.37024e-05 4.44966e-05 -4.52395e-05 24.9511 -515.016 -7.44308 0.0015 
198 1 1 -0.136226 -0.0217655 -0.161943 0 0 0 -0.875613 0.0123169 -0.374986 -8.76952e-05 3.03077e-05 -4.19756e-05 11.2429 -647.686 -47.5233 0.0015 
159 1 1 -0.161527 -0.0151221 -0.159683 0 0 0 -0.890104 -0.18361 -0.201998 0 0 -0.000346714 52.9769 -92.1889 -42.178 0.0015 
193 1 1 -0.136795 -0.0147641 -0.161921 0 0 0 -0.755271 0.0331302 -0.315875 -0.000402028 9.11292e-05 -0.000169354 -18.7538 -327.468 10.4897 0.0025 
211 1 1 -0.128867 -0.011331 -0.159469 0 0 0 -0.659038 -0.23771 -0.204243 0 0 -0.000346714 156.532 -444.891 51.0068 0.0015 
187 1 1 -0.150506 -0.00548169 -0.162193 0 0 0 -1.07012 -0.142016 -0.600647 0 0 -0.000346714 129.443 63.5394 -60.436 0.0015 
153 1 1 -0.142276 -0.000532822 -0.161247 0 0 0 -0.719245 0.0659608 -0.287128 0 0 -0.000346714 -62.7238 -375.107 92.9789 0.0015 
144 1 1 -0.131013 -0.000383864 -0.160226 0 0 0 -0.659823 -0.00581976 -0.274214 -0.000322415 2.0398e-05 -0.000367868 -32.1569 -284.092 83.4619 0.0025 
178 1 1 -0.127775 0.00614992 -0.15969 0 0 0 -0.549289 0.067694 -0.220907 2.60833e-05 -4.39261e-05 1.30707e-05 -29.9991 -376.423 -38.9917 0.0015 
175 1 1 -0.140164 0.0104769 -0.160044 0 0 0 -1.0036 0.165109 -0.678252 0 0 -0.000346714 -237.833 175.776 -43.6529 0.0015 
119 1 1 -0.130846 0.00906412 -0.159645 0 0 0 -0.688689 -0.135764 -0.321759 0 0 -0.00160516 75.3024 -279.69 -41.5374 0.0025 
189 1 1 -0.133217 0.0117689 -0.161751 0 0 0 -0.634401 -0.0317663 -0.278613 3.16954e-06 -2.23317e-05 -0.00024051 37.1004 -434.984 -5.89846 0.0015 
148 1 1 -0.129672 0.0202126 -0.159303 0 0 0 -0.827612 -0.0501703 -0.343946 -8.54952e-05 -2.97367e-05 -3.7466e-05 -13.8138 -618.576 123.473 0.0015 
136 1 1 -0.135694 0.03005 -0.160237 0 0 0 -0.856587 0.012881 -0.341305 -8.2596e-05 -4.6086e-05 -4.20577e-05 48.7276 -596.476 -144.804 0.0015 
89 1 1 -0.161264 0.0579071 -0.161817 0 0 0 -0.781426 0.0333839 -0.295893 -0.000434879 -0.000514841 0.00112582 11.7438 -571.147 -85.826 0.0015 
143 1 1 -0.1302 -0.0329232 -0.156279 0 0 0 -0.744249 -0.0739151 -0.292637 4.70788e-05 0.000694006 -7.26537e-05 -26.5375 -290.499 124.972 0.0025 
221 1 1 -0.127051 -0.0283678 -0.155702 0 0 0 -0.713073 -0.0906199 -0.342944 0 0 -0.00160516 11.5789 -226.303 -38.5955 0.0025 
205 1 1 -0.121622 -0.0152095 -0.156596 0 0 0 -0.718449 -0.0388443 -0.289258 0 0 -0.000346714 74.5393 -522.272 -108.168 0.0015 
191 1 1 -0.121008 -0.0111553 -0.156641 0 0 0 -0.821308 -0.00756765 -0.344091 -8.57844e-05 1.42202e-05 -4.24728e-05 -39.1892 -587.909 106.476 0.0015 
197 1 1 -0.137984 -0.00377272 -0.15896 0 0 0 -0.927056 0.0779742 -0.397912 0 0 -0.000346714 -5.61321 348.521 -104.595 0.0015 
59 1 1 -0.125041 -0.00490367 -0.158603 0 0 0 -0.675386 -0.0373056 -0.254378 0 0 -0.000346714 60.0811 -369.7 -108.246 0.0015 
168 1 1 -0.122062 -0.00442757 -0.155765 0 0 0 -0.665957 -0.0262847 -0.193453 0 0 -0.00160516 -21.2701 -220.14 61.4453 0.0025 
180 1 1 -0.12 0.00192271 -0.155541 0 0 0 -0.612349 0.00776583 -0.262427 -0.000397609 4.3191e-06 -0.000213629 33.0465 -267.04 -85.0301 0.0025 
155 1 1 -0.125329 0.00366455 -0.157578 0 0 0 -0.589699 -0.052504 -0.440691 0 0 -0.00160516 -67.2399 -131.263 9.34012 0.0025 
276 1 1 -0.123622 0.00824195 -0.157704 0 0 0 -0.680882 0.161562 -0.276999 0 0 -0.000346714 -247.07 -413.659 187.226 0.0015 
202 1 1 -0.128299 0.0112231 -0.156304 0 0 0 -0.760155 -0.0567997 -0.283343 0 0 -0.000346714 15.5486 -179.604 97.7702 0.0015 
192 1 1 -0.122956 0.0134142 -0.157243 0 0 0 -0.622655 0.131013 -0.210263 0 0 -0.000346714 -82.6638 -437.798 -32.966 0.0015 
212 1 1 -0.119693 0.0161448 -0.155711 0 0 0 -0.887264 -0.00280965 -0.375357 -8.84207e-05 -1.49744e-05 -3.84587e-05 92.2876 -628.66 -213.443 0.0015 
210 1 1 -0.125551 0.0199902 -0.156572 0 0 0 -0.926998 -0.154753 -0.393071 -0.000208386 -3.4902e-05 -0.000890119 96.4111 -393.064 -71.9217 0.0025 
126 1 1 -0.113168 -0.0203655 -0.152435 0 0 0 -0.685711 0.125555 -0.302749 -6.9296e-05 2.14503e-05 -8.8028e-05 -184.939 -468.533 224.063 0.0015 
206 1 1 -0.114503 -0.0153224 -0.152532 0 0 0 -0.69928 0.0660549 -0.296751 -1.22541e-05 1.27531e-06 -0.00109759 -41.3145 -301.711 30.139 0.0025 
225 1 1 -0.120222 -0.0131637 -0.152817 0 0 0 -1.12787 0.0702362 -0.671527 0 0 -0.000346714 -59.2542 216.171 126.208 0.0015 
232 1 1 -0.114394 -0.00431652 -0.153158 0 0 0 -0.558413 -0.0678314 -0.238688 0 0 -0.00160516 32.311 -240.983 -6.82658 0.0025 
216 1 1 -0.111335 -0.000420427 -0.152941 0 0 0 -0.61024 0.0103689 -0.254137 0 0 -0.000346714 -5.06548 -436.977 -5.84856 0.0015 
213 1 1 -0.12627 0.0045982 -0.15364 0 0 0 -0.973318 0.219942 -0.380949 0 0 -0.000346714 -58.8878 -26.8151 3.87406 0.0015 
201 1 1 -0.111675 0.00602793 -0.152513 0 0 0 -0.703789 0.0561987 -0.410814 0 0 -0.000346714 -8.91836 -462.994 -27.3379 0.0015 
190 1 1 -0.132664 0.00749309 -0.153518 0 0 0 -0.725358 0.0241943 -0.262116 0 0 -0.000346714 -15.1376 -261.641 -11.1927 0.0015 
204 1 1 -0.15766 0.0287694 -0.154346 0 0 0 -0.965384 0.198399 -0.385955 0 0 -0.000346714 -335.15 193.462 -73.885 0.0015 
214 1 1 -0.110135 -0.0294619 -0.149756 0 0 0 -0.931198 -0.0827391 -0.364358 0 0 -0.000346714 77.053 -689.689 -35.9976 0.0015 
181 1 1 -0.115064 -0.0256146 -0.151414 0 0 0 -0.66329 0.0772812 -0.287477 -0.000400932 0.000132301 -0.000186104 -65.074 -279.698 74.9511 0.0025 
233 1 1 -0.138915 -0.0245097 -0.152132 0 0 0 -1.0814 -0.225602 -0.766112 0 0 -0.00160516 -38.5355 75.952 -11.6802 0.0025 
188 1 1 -0.104254 -0.0189115 -0.148878 0 0 0 -0.74662 0.139083 -0.333823 -1.93081e-05 6.39112e-06 -0.000183971 -54.6897 -559.418 -110.527 0.0015 
218 1 1 -0.10941 -0.0160057 -0.151436 0 0 0 -0.712372 -0.138094 -0.289901 -8.80161e-05 1.37014e-05 -3.7822e-05 69.452 -511.468 72.9725 0.0015 
226 1 1 -0.106192 -0.0155861 -0.149681 0 0 0 -0.608537 -0.0556843 -0.398437 0 0 -0.000346714 25.124 -301.121 -34.3927 0.0015 
145 1 1 -0.108417 -0.00938295 -0.150368 0 0 0 -0.628884 -0.145361 -0.254191 -0.000399742 6.16724e-05 -0.000200653 67.4138 -274.116 -9.99264 0.0025 
169 1 1 -0.163574 -0.00510272 -0.148952 0 0 0 -0.840969 -0.00189137 -0.405248 0 0 -0.00160516 -36.2028 196.873 12.8413 0.0025 
109 1 1 -0.103411 -0.00513662 -0.149605 0 0 0 -0.665299 -0.069555 -0.277834 -8.87053e-05 1.31053e-05 -3.84463e-05 40.0336 -481.292 24.6261 0.0015 
228 1 1 -0.108457 0.00644483 -0.151682 0 0 0 -0.819169 0.049262 -0.321445 0.000142342 3.94843e-05 -0.00082369 39.3473 -576.085 -181.477 0.0015 
196 1 1 -0.137894 0.00841619 -0.151778 0 0 0 -1.0503 0.185083 -0.418251 0 0 -0.00160516 -76.5128 12.144 1.21368 0.0025 
224 1 1 -0.109088 0.0101932 -0.151298 0 0 0 -0.896492 0.132295 -0.448638 0 0 -0.000346714 -149.46 -50.9759 -26.7545 0.0015 
245 1 1 -0.108823 0.0145762 -0.150141 0 0 0 -0.501109 0.28678 -0.194217 -0.000376341 -5.79892e-05 -5.18557e-05 -121.374 -218.017 -8.34507 0.0025 
184 1 1 -0.118891 0.0416046 -0.15012 0 0 0 -0.738272 0.13391 -0.865858 0 0 -0.000346714 -126.183 -377.335 -40.8689 0.0015 
179 1 1 -0.170909 -0.0868894 -0.146146 0 0 0 -0.880111 -0.0948504 -0.193646 0 0 -0.000346714 26.2955 -626.094 222.117 0.0015 
194 1 1 -0.145457 -0.0751947 -0.145183 0 0 0 -0.819938 -0.136207 -0.165464 -0.0023781 0.00495476 0.00611984 7.08703 -278.756 194.571 0.0025 
256 1 1 -0.126205 -0.0477449 -0.148237 0 0 0 -0.939503 -0.14574 -0.847349 0 0 -0.000346714 281.63 -408.1 -23.8757 0.0015 
147 1 1 -0.100307 -0.0105282 -0.147951 0 0 0 -0.541618 0.0320962 -0.231934 -7.7266e-05 1.14615e-05 -6.18113e-05 -46.6543 -389.64 55.0638 0.0015 
207 1 1 -0.112916 -0.00475869 -0.14755 0 0 0 -0.614387 -0.082297 -0.192943 0 0 -0.00160516 -8.01059 137.224 46.8511 0.0025 
223 1 1 -0.101839 -0.00646048 -0.146578 0 0 0 -0.633895 0.0762256 -0.319068 0 0 -0.000346714 -113.898 -356.6 -49.046 0.0015 
251 1 1 -0.0950345 -0.0043623 -0.146098 0 0 0 -0.635192 0.00149439 -0.265394 0 0 -0.000346714 -5.04988 -430.709 57.4734 0.0015 
182 1 1 -0.131105 -0.00320112 -0.147876 0 0 0 -0.948885 -0.0175628 -0.442683 0 0 -0.00160516 47.3578 268.415 4.57205 0.0025 
118 1 1 -0.0988171 -0.00295749 -0.146612 0 0 0 -0.669658 -0.0222435 -0.280672 -0.000430019 -6.01047e-06 -0.000137323 6.31013 -290.7 7.97518 0.0025 
242 1 1 -0.0940137 -0.000399681 -0.145649 0 0 0 -0.635245 -0.0233239 -0.269808 -6.84242e-05 -1.47883e-06 -8.59493e-05 -6.69999 -460.76 55.5729 0.0015 
124 1 1 -0.112848 0.00112831 -0.145523 0 0 0 -0.47733 -0.013153 -0.200391 0 0 -0.000346714 -174.468 262.879 48.2984 0.0015 
217 1 1 -0.101052 0.00302877 -0.14852 0 0 0 -0.757957 3.09338e-05 -0.567847 0 0 -0.000346714 26.4178 -406.955 -73.7642 0.0015 
244 1 1 -0.103535 0.0129202 -0.148051 0 0 0 -0.750358 -0.0192593 -0.320385 -0.00119249 8.9473e-06 0.00149324 2.34065 -328.115 14.0353 0.0025 
215 1 1 -0.0961355 0.017398 -0.145652 0 0 0 -0.6149 0.039884 -0.257513 -8.86952e-05 -1.57205e-05 -4.38826e-05 -20.1767 -444.979 -20.7793 0.0015 
9 1 1 -0.130318 0.0641287 -0.146803 0 0 0 -0.602081 -0.210773 -0.332397 -7.32423e-05 -8.00393e-05 -6.41637e-05 161.971 -468.077 3.42484 0.0015 
219 1 1 -0.0961654 -0.0347614 -0.141744 0 0 0 -0.75315 -0.0337678 -0.304964 -0.000394625 0.000196433 -0.000191882 -19.46 -315.088 82.9487 0.0025 
195 1 1 -0.0929636 -0.00706055 -0.143987 0 0 0 -0.68957 -0.0529005 -0.280258 3.16926e-05 5.21855e-05 -0.00213704 -3.97308 -295.369 63.8595 0.0025 