ITEM: TIMESTEP
32200
ITEM: NUMBER OF ATOMS
423
ITEM: BOX BOUNDS ff ff ff
-0.5 0.1
-0.2 0.2
-0.4 0.15
ITEM: ATOMS id type type x y z ix iy iz vx vy vz fx fy fz omegax omegay omegaz radius 
85 1 1 -0.26546 -0.06294 -0.19492 0 0 0 -1.28442 0.203025 -0.475262 0 0 -0.000346714 -580.214 28.3815 473.706 0.0015 
30 1 1 -0.209238 -0.016181 -0.192054 0 0 0 -1.17522 -0.0123388 -0.499432 0 0 -0.00160516 -11.7225 -506.806 41.4103 0.0025 
11 1 1 -0.203004 -0.00836812 -0.19137 0 0 0 -1.11989 -0.127738 -0.4496 -9.46305e-05 2.3397e-05 -2.58039e-05 -24.077 -782.531 282.184 0.0015 
47 1 1 -0.210617 0.0215168 -0.193159 0 0 0 -1.31849 -0.0971354 -0.55821 -0.000157029 -4.73806e-05 0.000170762 53.3972 -963.091 42.0971 0.0015 
36 1 1 -0.201829 -0.0261942 -0.188511 0 0 0 -1.15044 0.111675 -0.493999 -8.23684e-05 4.72699e-05 -4.51305e-05 -137.932 -815.604 136.842 0.0015 
2 1 1 -0.20316 0.00483165 -0.190522 0 0 0 -1.03896 0.0465134 -0.431848 8.32296e-06 2.74541e-06 -0.00115328 -23.8781 -450.088 8.94052 0.0025 
18 1 1 -0.199026 0.0101799 -0.189523 0 0 0 -0.927984 0.102538 -0.375484 -7.17972e-05 -2.04516e-05 -2.0783e-05 -113.58 -683.027 95.255 0.0015 
17 1 1 -0.198174 0.017336 -0.188438 0 0 0 -0.943508 0.172179 -0.37286 2.87444e-05 -2.86606e-05 4.90693e-05 -50.6997 -620.529 -182.427 0.0015 
31 1 1 -0.20437 0.0228099 -0.190299 0 0 0 -1.1831 0.147474 -0.469991 -8.56709e-05 -4.2991e-05 -4.53931e-05 -19.9029 -828.703 -209.929 0.0015 
4 1 1 -0.192749 -0.00935357 -0.185918 0 0 0 -1.0317 -0.0272334 -0.422964 -0.00040841 0.000118731 -0.000145922 18.5011 -451.447 -16.1013 0.0025 
21 1 1 -0.191591 -0.00501854 -0.186704 0 0 0 -0.910442 -0.0334418 -0.383262 -0.000607051 -0.000110524 0.00107343 75.4718 -659.771 -123.944 0.0015 
20 1 1 -0.185323 0.0046932 -0.184163 0 0 0 -0.916294 0.104763 -0.388063 -0.000439646 -2.65767e-06 0.000897181 -65.085 -663.671 -25.5331 0.0015 
5 1 1 -0.194815 0.0204269 -0.186731 0 0 0 -1.10988 -0.023259 -0.462888 -3.37456e-05 -8.93401e-06 -0.000137393 29.1145 -801.671 -29.4545 0.0015 
23 1 1 -0.178362 -0.00974124 -0.180975 0 0 0 -0.853111 -0.099939 -0.349791 -9.81588e-05 3.41137e-06 -9.85779e-06 76.7571 -615.622 -11.3236 0.0015 
10 1 1 -0.180264 -0.002682 -0.1819 0 0 0 -0.717547 -0.0098896 -0.300186 2.31019e-05 2.47581e-05 9.41653e-06 -26.2418 -477.922 67.355 0.0015 
8 1 1 -0.177604 0.0022979 -0.18088 0 0 0 -0.902359 0.0219729 -0.378144 -8.75594e-05 3.93421e-06 -3.84397e-05 56.6848 -655.853 -173.373 0.0015 
6 1 1 -0.180124 0.00505266 -0.181961 0 0 0 -0.893982 0.0160665 -0.378612 -8.85831e-05 -1.7745e-05 -3.91678e-05 -56.5436 -658.902 105.551 0.0015 
32 1 1 -0.177485 0.00669509 -0.180699 0 0 0 -0.892565 0.0612651 -0.37416 -8.8553e-05 -1.77367e-05 -3.9265e-05 -43.5967 -648.696 -2.21743 0.0015 
24 1 1 -0.184883 0.0161239 -0.182988 0 0 0 -0.988194 0.142893 -0.399516 -8.70672e-05 -1.87865e-05 -3.85768e-05 -70.7159 -709.588 -78.8806 0.0015 
12 1 1 -0.189686 0.0261957 -0.183407 0 0 0 -1.07617 0.141414 -0.413927 -1.16286e-06 1.28503e-06 -0.000250656 0.177515 -737.667 -252.667 0.0015 
38 1 1 -0.266508 0.0799074 -0.181199 0 0 0 -1.37436 -0.0550873 -0.351581 0 0 -0.000346714 105.929 -1140.72 -312.103 0.0015 
72 1 1 -0.203706 -0.0613651 -0.176691 0 0 0 -1.24423 -0.28171 -0.342745 -6.88845e-05 8.5377e-05 -6.78474e-05 23.3726 -728.193 513.671 0.0015 
35 1 1 -0.17344 -0.00678811 -0.17899 0 0 0 -0.893507 -0.106516 -0.366294 -8.7099e-05 2.97298e-06 -3.59752e-05 52.4383 -643.722 59.2764 0.0015 
22 1 1 -0.174678 0.000955313 -0.17963 0 0 0 -1.04725 0.0605553 -0.43796 -5.10091e-05 2.40645e-06 -0.000146967 -38.1321 -757.099 -13.4691 0.0015 
71 1 1 -0.170841 0.00394 -0.178074 0 0 0 -1.11351 0.051115 -0.464506 0 0 -0.000346714 -41.9219 -802.031 12.3689 0.0015 
26 1 1 -0.178747 0.0174402 -0.179227 0 0 0 -1.05071 0.229552 -0.413391 -0.000863446 -0.000255226 0.000715049 -115.161 -460.479 36.8441 0.0025 
37 1 1 -0.17253 0.0168353 -0.177745 0 0 0 -0.973445 0.16871 -0.392377 -8.74243e-05 -1.71882e-05 -3.80695e-05 -109.145 -703 -31.4925 0.0015 
48 1 1 -0.184924 0.0374227 -0.178865 0 0 0 -0.933327 0.213035 -0.316076 -8.92205e-05 -8.43149e-05 5.15927e-05 -82.8071 -642.823 -187.627 0.0015 
14 1 1 -0.166149 -0.0104665 -0.174621 0 0 0 -0.989073 -0.0999366 -0.402396 0.000692844 7.0107e-05 -0.00286515 45.0968 -429.621 -3.85657 0.0025 
57 1 1 -0.161629 0.00054224 -0.174104 0 0 0 -1.02939 -0.02741 -0.458117 0 0 -0.000346714 -18.8313 -743.955 91.3749 0.0015 
3 1 1 -0.172907 0.0280267 -0.17495 0 0 0 -1.02329 0.0992009 -0.397346 -0.000548058 -0.00023313 4.45219e-05 -9.57245 -433.395 -83.6348 0.0025 
51 1 1 -0.172281 0.0384728 -0.173324 0 0 0 -1.06537 0.200843 -0.375078 -8.17537e-05 -6.56625e-05 -4.50991e-05 -73.4146 -741.588 -188.499 0.0015 
41 1 1 -0.157996 -0.0224856 -0.169496 0 0 0 -0.819741 0.00250208 -0.315157 0 0 -0.00160516 29.316 -299.19 84.3316 0.0025 
52 1 1 -0.160535 -0.0183243 -0.171413 0 0 0 -0.848352 0.0136203 -0.370863 0 0 -0.00160516 21.4547 -321.366 67.636 0.0025 
113 1 1 -0.154145 -0.0202953 -0.169658 0 0 0 -0.875814 0.109582 -0.375022 -8.64649e-05 2.53278e-05 -3.83739e-05 -150.578 -615.196 171.891 0.0015 
50 1 1 -0.155898 -0.0131461 -0.171249 0 0 0 -0.768337 0.0327156 -0.321045 -9.06371e-05 1.65846e-05 -3.15483e-05 9.5701 -562.298 -80.1592 0.0015 
56 1 1 -0.151926 0.00805976 -0.169893 0 0 0 -0.859788 -0.00149314 -0.36466 0 0 -0.000346714 -22.2664 -618.603 53.478 0.0015 
49 1 1 -0.151874 0.0118551 -0.169529 0 0 0 -0.795462 0.0937737 -0.319167 0 0 -0.000346714 -35.8318 -567.188 -78.4813 0.0015 
16 1 1 -0.163241 0.0180604 -0.172671 0 0 0 -1.00847 0.00448785 -0.423016 0 0 -0.00160516 37.0813 -428.043 -95.9016 0.0025 
75 1 1 -0.160531 0.0241766 -0.171606 0 0 0 -0.996304 0.00680864 -0.407544 -7.36482e-05 -2.75889e-05 -0.000120351 -25.0991 -738.436 47.9695 0.0015 
28 1 1 -0.147584 -0.0125447 -0.166703 0 0 0 -0.924957 0.0725839 -0.402484 -0.000381849 9.04504e-05 -0.000251481 -57.4309 -398.25 60.1603 0.0025 
76 1 1 -0.162316 -0.00962057 -0.169707 0 0 0 -0.915748 0.0651395 -0.53746 0 0 -0.000346714 -120.303 -383.935 -9.27578 0.0015 
25 1 1 -0.142738 -0.0080342 -0.166037 0 0 0 -0.801453 0.0718119 -0.336298 -8.84844e-05 1.05767e-05 -3.48798e-05 -99.955 -573.691 115.699 0.0015 
55 1 1 -0.148685 0.0130821 -0.167001 0 0 0 -0.972503 0.125889 -0.382907 -0.00039354 -0.000108549 -0.000190925 -60.5877 -424.457 14.2946 0.0025 
46 1 1 -0.145516 0.0165763 -0.166393 0 0 0 -0.855876 0.0853671 -0.340035 -8.61636e-05 -2.39833e-05 -3.66568e-05 -37.1539 -613.244 -60.4389 0.0015 
42 1 1 -0.151794 0.0270322 -0.166401 0 0 0 -0.956813 -0.101434 -0.405767 -0.000384023 -0.000180382 -0.000235291 61.3725 -411.533 -41.8771 0.0025 
60 1 1 -0.13937 -0.00714476 -0.164665 0 0 0 -0.88251 -0.0564179 -0.377175 -6.54302e-05 5.30819e-06 -7.18532e-05 69.4769 -642.774 -66.6994 0.0015 
33 1 1 -0.134443 0.00653371 -0.162549 0 0 0 -0.644845 0.0624913 -0.274443 -0.000323283 -0.000203726 0.00132812 22.214 -461.586 -162.735 0.0015 
19 1 1 -0.140827 0.0140377 -0.164765 0 0 0 -0.817886 -0.00113367 -0.338636 1.23203e-05 2.42223e-06 4.23063e-05 9.04941 -590.345 -19.9717 0.0015 
78 1 1 -0.143914 0.02583 -0.163388 0 0 0 -0.921563 0.128972 -0.344356 -0.00032254 -0.000319075 -0.000522246 -38.0969 -397.07 -45.2069 0.0025 
79 1 1 -0.160488 -0.0528152 -0.162532 0 0 0 -1.106 0.0101583 -0.401037 0 0 -0.00160516 -37.8142 -465.504 98.5064 0.0025 
138 1 1 -0.140132 -0.0409444 -0.159457 0 0 0 -1.17019 0.0319786 -0.49195 -8.02081e-05 6.2223e-05 -5.27485e-05 -87.5622 -830.845 154.273 0.0015 
111 1 1 -0.133836 -0.0104296 -0.162117 0 0 0 -0.925388 -0.183238 -0.516844 0 0 -0.000346714 -87.0783 -268.221 25.8906 0.0015 
87 1 1 -0.135157 -0.00997651 -0.159424 0 0 0 -0.924604 -0.16645 -0.476001 0 0 -0.000346714 54.0614 289.869 22.2484 0.0015 
39 1 1 -0.134882 -0.00564229 -0.16171 0 0 0 -0.863767 -0.0459652 -0.357817 -0.000406069 2.30067e-05 -0.000169033 25.3831 -374.819 -13.1249 0.0025 
53 1 1 -0.129328 -0.00586353 -0.159409 0 0 0 -0.772036 0.0904074 -0.318617 0.000581745 0.00208765 0.0105275 -61.6482 -203.83 -68.6725 0.0025 
102 1 1 -0.135159 0.0106312 -0.160595 0 0 0 -0.868219 0.314745 -0.317686 0 0 -0.000346714 -252.003 -505.444 -31.7193 0.0015 
40 1 1 -0.139136 0.019575 -0.162284 0 0 0 -0.862568 0.166556 -0.346545 -0.000335701 -6.61703e-05 -0.000698219 -86.4744 -381.833 30.1234 0.0025 
43 1 1 -0.136095 0.0233585 -0.161578 0 0 0 -0.821752 -0.0826488 -0.367923 -8.951e-05 -2.80866e-05 -1.08283e-05 147.788 -576.083 -201.357 0.0015 
174 1 1 -0.12647 -0.0286197 -0.156153 0 0 0 -1.12 -0.355191 -0.457909 0 0 -0.000346714 221.449 -479.897 299.348 0.0015 
107 1 1 -0.131963 -0.0226967 -0.158811 0 0 0 -0.934947 -0.0420545 -0.378064 0 0 -0.00160516 22.4935 -403.522 -4.60385 0.0025 
1 1 1 -0.129339 -0.0150942 -0.158799 0 0 0 -0.837364 0.00228889 -0.357962 -0.000433113 7.53191e-05 -0.000160893 -46.9377 -357.41 107.376 0.0025 
81 1 1 -0.133995 -0.00357835 -0.157942 0 0 0 -0.938324 -0.00566414 -0.368375 0 0 -0.000346714 -54.7965 89.7482 -1.35715 0.0015 
84 1 1 -0.119616 -0.00396245 -0.156347 0 0 0 -0.694867 -0.123207 -0.4139 0 0 -0.000346714 94.2234 -136.121 64.3258 0.0015 
80 1 1 -0.125744 -0.00184556 -0.157148 0 0 0 -0.734518 0.27261 -0.482006 0 0 -0.00160516 -126.04 117.084 -21.0559 0.0025 
44 1 1 -0.119302 0.00193842 -0.156333 0 0 0 -0.672011 0.0495022 -0.234048 -0.00022424 0.000101304 -0.00278348 -36.1639 -479.093 -0.387942 0.0015 
96 1 1 -0.133356 0.00950302 -0.155796 0 0 0 -1.20674 -0.000326976 -0.45912 0 0 -0.000346714 54.048 24.5764 -247.155 0.0015 
29 1 1 -0.126967 0.00754818 -0.158188 0 0 0 -0.769949 -0.0382595 -0.306043 0.000425247 7.88281e-05 -0.00258369 52.1246 -326.106 -87.4573 0.0025 
54 1 1 -0.120956 0.00989734 -0.155572 0 0 0 -0.68782 -0.0523203 -0.286061 -0.00051658 -8.1539e-05 0.000120545 38.8577 -295.734 -39.4038 0.0025 
88 1 1 -0.124138 0.0129234 -0.157762 0 0 0 -0.713361 -0.0407984 -0.29519 -8.76616e-05 -1.37977e-05 -3.35985e-05 34.241 -514.452 -11.6437 0.0015 
58 1 1 -0.12208 0.0151986 -0.156748 0 0 0 -0.66274 0.034844 -0.262384 0 0 -0.000346714 18.3557 -466.26 -108.799 0.0015 
70 1 1 -0.12328 0.0197263 -0.156768 0 0 0 -0.84211 -0.145423 -0.375943 -8.6012e-05 -3.05835e-05 -4.32711e-05 141.973 -602.408 -84.9928 0.0015 
27 1 1 -0.116842 -0.0132897 -0.15366 0 0 0 -0.759478 -0.129361 -0.312837 -0.000410484 6.56432e-05 -0.000171891 60.7292 -331.471 -10.3856 0.0025 
122 1 1 -0.117203 -0.00598545 -0.154699 0 0 0 -0.699491 -0.18347 -0.233288 0 0 -0.000346714 142.995 -182.44 -29.2279 0.0015 
108 1 1 -0.117637 -0.00058654 -0.155013 0 0 0 -0.697402 0.0293217 -0.286405 0 0 -0.000346714 0.907243 -153.073 -79.3523 0.0015 
98 1 1 -0.113981 -0.00101434 -0.15398 0 0 0 -0.697097 -0.126878 -0.281581 0 0 -0.000346714 67.7139 -492.808 57.3751 0.0015 
69 1 1 -0.12598 0.000894433 -0.152359 0 0 0 -0.994418 0.140158 -0.243131 0 0 -0.000346714 -233.452 13.4391 -106.184 0.0015 
64 1 1 -0.123666 0.00313111 -0.153745 0 0 0 -0.707752 0.0166872 -0.328567 0 0 -0.000346714 -78.1293 -363.973 -46.8703 0.0015 
83 1 1 -0.110791 0.0136398 -0.152125 0 0 0 -0.819709 0.146755 -0.323566 0.000199527 0.000132488 -0.000849686 -102.496 -590.711 -10.764 0.0015 
77 1 1 -0.114643 0.0154719 -0.152548 0 0 0 -0.742436 -0.0131471 -0.329334 2.988e-05 0.00249406 0.0131391 -8.49088 -271.562 -43.8857 0.0025 
82 1 1 -0.113861 0.0205092 -0.152707 0 0 0 -0.859876 -0.172683 -0.385131 -8.62921e-05 -3.14709e-05 -4.07963e-05 52.7454 -654.321 175.617 0.0015 
139 1 1 -0.111726 0.0183356 -0.151935 0 0 0 -0.789635 0.149555 -0.193649 0 0 -0.000346714 -234.28 -476.216 56.6687 0.0015 
34 1 1 -0.145733 0.0614267 -0.154123 0 0 0 -0.98754 0.165882 -0.323121 -7.31786e-05 -7.89951e-05 -6.40074e-05 -4.99649 -631.004 -308.673 0.0015 
121 1 1 -0.128844 -0.0554434 -0.149295 0 0 0 -0.798725 -0.371875 -0.152654 0 0 -0.000346714 342.319 -588.277 -85.7337 0.0015 
114 1 1 -0.10658 -0.0242822 -0.149132 0 0 0 -0.818647 -0.152071 -0.321549 -8.6354e-05 2.75485e-05 -4.09949e-05 36.9193 -572.622 176.813 0.0015 
63 1 1 -0.107331 -0.0178346 -0.150322 0 0 0 -0.715871 0.0356779 -0.306544 -8.74665e-05 2.8151e-05 -3.98975e-05 -55.7513 -512.638 70.5314 0.0015 
97 1 1 -0.111231 -0.0113428 -0.151399 0 0 0 -0.632891 0.00551712 -0.248001 0 0 -0.000346714 30.3178 -424.119 -66.2504 0.0015 
104 1 1 -0.109014 -0.007167 -0.150034 0 0 0 -0.696237 0.00541942 -0.317038 0 0 -0.00160516 -20.1059 -280.511 48.7587 0.0025 
91 1 1 -0.104491 0.000251794 -0.148973 0 0 0 -0.648884 0.0611042 -0.271826 -0.000409264 -5.64516e-06 -0.000170465 5.94875 -281.227 -77.4174 0.0025 
115 1 1 -0.11109 0.0108548 -0.151043 0 0 0 -0.909623 0.159401 -0.266219 0 0 -0.000346714 -142.579 -556.288 44.3435 0.0015 
99 1 1 -0.118405 0.0178578 -0.149668 0 0 0 -1.21264 0.125171 -0.434588 0 0 -0.000346714 -29.1852 -5.22587 -88.3972 0.0015 
7 1 1 -0.154504 -0.0807982 -0.145771 0 0 0 -0.799112 0.047448 -0.356017 0 0 -0.000346714 -136.679 -476.221 284.325 0.0015 
74 1 1 -0.101746 -0.0327916 -0.14557 0 0 0 -0.670353 -0.249898 -0.228266 -8.4404e-05 4.19775e-05 -4.59775e-05 206.302 -504.641 -53.3626 0.0015 
128 1 1 -0.101286 -0.0158076 -0.147158 0 0 0 -0.606746 -0.00694759 -0.359322 0 0 -0.000346714 -158.475 -373.499 -33.4552 0.0015 
65 1 1 -0.0998575 -0.0118479 -0.146198 0 0 0 -0.649992 0.0732626 -0.346046 0 0 -0.00160516 133.177 -93.5656 -62.6833 0.0025 
95 1 1 -0.0950209 -0.00323265 -0.146099 0 0 0 -0.472767 -0.0404067 -0.199054 0 0 -0.000346714 3.92538 -341.102 59.6073 0.0015 
93 1 1 -0.0994591 0.000551818 -0.146864 0 0 0 -0.800314 -0.0574792 -0.329751 0.000197791 1.29027e-05 0.00137015 19.6001 -327.515 11.7585 0.0025 
166 1 1 -0.0955221 0.000320202 -0.146099 0 0 0 -0.766026 -0.000791937 -0.230386 0 0 -0.000346714 -85.7313 -467.619 236.103 0.0015 
116 1 1 -0.103281 0.0114617 -0.148055 0 0 0 -0.695271 -0.0913499 -0.300742 0.000242316 -0.000152963 0.00198563 28.6575 -278.831 23.7282 0.0025 
135 1 1 -0.0966553 0.0152903 -0.146035 0 0 0 -0.673909 0.0822127 -0.279758 -9.10837e-05 -1.64937e-05 -3.32619e-05 -17.7404 -481.962 -98.8985 0.0015 
105 1 1 -0.0926612 -0.0223728 -0.142457 0 0 0 -0.8259 -0.0558955 -0.337196 -0.000399116 0.000121591 -0.000188294 40.3188 -365.478 -38.1697 0.0025 
165 1 1 -0.108642 -0.0208224 -0.143149 0 0 0 -0.977547 -0.0907691 -0.245905 0 0 -0.000346714 212.35 82.0941 25.4295 0.0015 
66 1 1 -0.0965004 -0.0154358 -0.144977 0 0 0 -0.7535 -0.111474 -0.275179 -0.00117065 0.000199142 -0.010231 85.8831 -157.796 53.338 0.0025 
131 1 1 -0.092244 -0.0163147 -0.142531 0 0 0 -0.586712 0.0157971 -0.520525 0.00401416 -0.000938913 0.00448883 -72.8362 36.0303 32.0105 0.0025 
120 1 1 -0.10473 -0.00866693 -0.141931 0 0 0 -1.03008 0.2182 -0.257282 0 0 -0.00160516 -110.309 -35.4899 -68.6505 0.0025 
15 1 1 -0.0969997 -0.00725939 -0.143413 0 0 0 -0.718283 -0.218603 -0.29329 0 0 -0.00160516 70.9809 -75.9483 119.221 0.0025 
129 1 1 -0.10295 -0.00219563 -0.142132 0 0 0 -0.952186 0.0728069 -0.57045 0 0 -0.00160516 -96.3441 65.3278 -48.523 0.0025 
167 1 1 -0.0943354 -0.00053592 -0.142157 0 0 0 -0.764704 0.0594396 -0.297051 0 0 -0.00160516 69.0032 398.25 78.6428 0.0025 
137 1 1 -0.10802 0.00180605 -0.144606 0 0 0 -0.71424 0.318693 -0.773833 0 0 -0.000346714 -165.637 -371.218 1.31049e-13 0.0015 
73 1 1 -0.0878033 0.00126657 -0.143015 0 0 0 -0.540184 0.0559959 -0.225884 -8.82925e-05 -2.56361e-06 -3.70587e-05 -23.146 -390.241 -41.3878 0.0015 
123 1 1 -0.0883036 0.00561993 -0.143121 0 0 0 -0.55001 -0.031057 -0.302508 0.00131306 0.00108996 -0.00355428 110.62 -217.185 -64.787 0.0015 
103 1 1 -0.0898611 0.0092975 -0.142589 0 0 0 -0.807049 -0.0684523 -0.333748 -0.000400489 -0.000930223 -2.03906e-05 34.5614 -346.717 35.4589 0.0025 
100 1 1 -0.0977277 0.012814 -0.143819 0 0 0 -0.764245 0.101979 -0.244963 0 0 -0.000346714 -112.196 -378.556 -35.1732 0.0015 
62 1 1 -0.0859056 0.0154436 -0.141491 0 0 0 -0.65627 0.0125053 -0.277481 -8.84126e-05 -1.73978e-05 -3.92969e-05 -2.55224 -475.651 -15.4004 0.0015 
67 1 1 -0.0971119 0.0261989 -0.142834 0 0 0 -0.505029 0.149361 -0.267332 0 0 -0.00160516 -62.4596 -192.176 -30.5683 0.0025 
149 1 1 -0.0858167 -0.032559 -0.13897 0 0 0 -0.739628 -0.15232 -0.276285 -8.473e-05 4.08333e-05 -4.32604e-05 35.1128 -506.126 185.037 0.0015 
112 1 1 -0.0817727 -0.0290616 -0.137992 0 0 0 -0.699165 -0.115735 -0.266849 -6.40676e-05 3.10605e-05 -9.18754e-05 -35.6207 -455.219 290.801 0.0015 
169 1 1 -0.0870039 -0.00786069 -0.138517 0 0 0 -0.824885 0.225809 -0.452545 0 0 -0.00160516 -161.301 -224.172 -101.931 0.0025 
127 1 1 -0.0815998 -0.00873113 -0.140171 0 0 0 -0.60771 0.00618865 -0.254863 -8.82039e-05 1.11125e-05 -3.69476e-05 -6.44906 -439.745 4.69915 0.0015 
90 1 1 -0.0848748 -0.0032032 -0.140759 0 0 0 -0.683449 0.0478601 -0.284698 -0.000347575 -7.73981e-06 -0.000306676 -1.84444 -295.955 -45.1588 0.0025 
144 1 1 -0.0787758 -0.00157305 -0.138056 0 0 0 -0.517569 0.0689863 -0.18527 0 0 -0.00160516 -17.3364 -95.7823 174.707 0.0025 
185 1 1 -0.0881313 0.0051909 -0.140174 0 0 0 -0.803974 0.0730358 -0.205506 -0.00131306 -0.00108996 0.00286086 -98.5589 -172.737 47.6172 0.0015 
158 1 1 -0.0827498 0.0100601 -0.139536 0 0 0 -0.674937 -0.00920852 -0.272603 -4.57828e-05 -6.19359e-06 -0.00156582 4.41856 -291.94 -1.90323 0.0025 
13 1 1 -0.0982984 0.0154635 -0.138536 0 0 0 -0.790169 -0.0755974 -0.496916 0 0 -0.00160516 22.2829 81.6203 -13.7847 0.0025 
189 1 1 -0.0829874 0.0145963 -0.140323 0 0 0 -0.599036 0.0665191 -0.248862 2.04364e-05 -8.8984e-05 7.53162e-05 131.278 114.018 28.5627 0.0015 
68 1 1 -0.0867642 0.0205629 -0.140315 0 0 0 -0.570146 -0.0166044 -0.239231 -0.000392363 -0.000155701 -0.000202656 12.4453 -247.873 -12.4644 0.0025 
92 1 1 -0.0884652 0.0294437 -0.139591 0 0 0 -0.54743 0.065881 -0.220557 -0.000402219 -0.0001522 -0.000192835 -8.72174 -232.769 -47.8812 0.0025 
140 1 1 -0.108564 0.0593703 -0.139838 0 0 0 -0.79823 -0.114227 -0.227599 0 0 -0.000346714 50.0041 -580.432 -4.26805 0.0015 
179 1 1 -0.0979252 -0.0616637 -0.134935 0 0 0 -0.712505 -0.448159 -0.113454 0 0 -0.000346714 271.133 -462.581 197.689 0.0015 
106 1 1 -0.0817356 -0.0326544 -0.13616 0 0 0 -0.710034 -0.11776 -0.27089 -0.000412829 0.000198842 -0.00015468 32.637 -303.619 46.4379 0.0025 
117 1 1 -0.0766 -0.0212892 -0.135858 0 0 0 -0.740243 -0.0405446 -0.304619 -0.000513651 0.000147934 5.64551e-05 -16.6258 -313.313 82.0633 0.0025 
101 1 1 -0.0766989 -0.0164723 -0.137139 0 0 0 -0.524238 0.127611 -0.395361 0 0 -0.000346714 328.507 -180.013 -143.005 0.0015 
59 1 1 -0.0722527 -0.012721 -0.136066 0 0 0 -0.649425 0.216116 -0.188655 -0.00445881 0.003468 0.00314504 21.4288 -299.012 -9.94329 0.0015 
155 1 1 -0.0740981 -0.00509701 -0.136105 0 0 0 -0.569694 0.160761 -0.249744 -0.000411221 4.80724e-05 -0.000178868 -69.5118 -248.045 -1.10653 0.0025 
119 1 1 -0.0767545 0.0168837 -0.136424 0 0 0 -0.505541 -0.0529762 -0.213963 -0.00031204 -4.70143e-05 -0.000460564 42.8905 -215.535 -47.6195 0.0025 
161 1 1 -0.0779993 0.0291738 -0.136347 0 0 0 -0.66695 0.0798585 -0.268079 -8.6618e-05 -3.42437e-05 -4.22808e-05 -47.1196 -484.013 -26.9551 0.0015 
173 1 1 -0.0834299 0.0333309 -0.137485 0 0 0 -0.74158 0.173962 -0.336634 0 0 -0.000346714 -118.278 -508.264 -43.7946 0.0015 
130 1 1 -0.0903075 0.0435844 -0.137166 0 0 0 -0.616217 0.0869374 -0.236426 -0.000642899 -0.000386692 0.000363863 -0.132093 -251.803 -92.0895 0.0025 
94 1 1 -0.100673 0.0555252 -0.13752 0 0 0 -0.642041 0.0350715 -0.250752 -0.000366479 -0.000301251 -0.000250052 19.1767 -261.965 -85.7411 0.0025 
177 1 1 -0.0741578 -0.0221923 -0.131797 0 0 0 -0.784881 -0.156527 -0.685296 0 0 -0.000346714 -126.743 -262.175 -161.616 0.0015 
193 1 1 -0.0703273 -0.0154064 -0.133871 0 0 0 -0.787376 -0.0166797 -0.220778 0.00322332 -0.00894225 0.0135631 12.3889 -280.743 28.2084 0.0025 
157 1 1 -0.0678852 -0.0110634 -0.133101 0 0 0 -0.698867 -0.0590303 -0.279509 0 0 -0.00160516 -116.331 -281.842 -89.4425 0.0025 
168 1 1 -0.0665005 -0.0056682 -0.132784 0 0 0 -0.553841 0.0980656 -0.190582 0 0 -0.00160516 -58.7577 -185.477 52.5427 0.0025 
180 1 1 -0.0676008 0.00296156 -0.133386 0 0 0 -0.592453 -0.0882306 -0.253575 -0.000416036 -2.14581e-05 -0.000167924 55.9887 -256.809 -41.452 0.0025 
163 1 1 -0.0904776 0.00483722 -0.132197 0 0 0 -0.717385 -0.319909 -0.650237 0 0 -0.000346714 166.308 -372.94 1.57058e-13 0.0015 
132 1 1 -0.0807652 0.00519482 -0.132877 0 0 0 -0.71597 -0.0664785 -0.539558 0 0 -0.00160516 -123.469 298.795 -66.7671 0.0025 
152 1 1 -0.105538 0.00797122 -0.133558 0 0 0 -0.863483 -0.00874044 -0.653137 0 0 -0.000346714 83.1315 -292.5 132.925 0.0015 
110 1 1 -0.0862719 0.00878488 -0.131664 0 0 0 -0.787263 -0.0809739 -0.309902 0 0 -0.000346714 15.9792 -144.379 -94.3964 0.0015 
136 1 1 -0.068873 0.0243764 -0.133338 0 0 0 -0.633725 0.105984 -0.244453 -8.54195e-05 -3.54525e-05 -4.15184e-05 -17.1907 -438.297 -145.461 0.0015 
148 1 1 -0.0653406 0.0211211 -0.132292 0 0 0 -0.606145 0.0257664 -0.254832 -0.000106274 -2.24863e-05 -1.97102e-06 -71.7053 -452.004 124.783 0.0015 
194 1 1 -0.0782986 -0.0491103 -0.130025 0 0 0 -0.771916 -0.379273 -0.157861 0 0 -0.00160516 170.803 -28.1082 148.406 0.0025 
171 1 1 -0.0960135 -0.0287873 -0.128689 0 0 0 -1.04624 -0.187962 -0.578473 0 0 -0.000346714 -67.283 -233.374 -305.453 0.0015 
181 1 1 -0.0652855 -0.0286419 -0.130084 0 0 0 -0.443958 -0.0140465 -0.180946 0.000129793 -6.85938e-05 -0.00136923 -24.9085 -180.075 75.626 0.0025 
143 1 1 -0.0707922 -0.0259152 -0.130337 0 0 0 -0.728083 -0.11854 -0.449885 0 0 -0.00160516 43.166 126.706 83.4855 0.0025 
126 1 1 -0.0593227 -0.0257607 -0.129172 0 0 0 -0.518434 -0.0133165 -0.215383 -8.7154e-05 2.42699e-05 -3.9297e-05 -99.9703 -346.481 262.053 0.0015 
147 1 1 -0.0561527 -0.0142318 -0.129184 0 0 0 -0.532824 0.056401 -0.231288 -8.77169e-05 2.3709e-05 -3.97214e-05 -52.679 -384.736 27.538 0.0015 
191 1 1 -0.057288 -0.00900823 -0.129906 0 0 0 -0.594672 -0.0377464 -0.250055 -8.8097e-05 9.26314e-06 -3.95205e-05 -17.7563 -426.346 106.582 0.0015 
178 1 1 -0.0812094 0.00103638 -0.128241 0 0 0 -0.733672 -0.0480067 -0.575964 0 0 -0.000346714 -53.1085 -317.226 -65.5963 0.0015 
109 1 1 -0.0537417 0.00130085 -0.128668 0 0 0 -0.438982 -0.0665828 -0.186154 -9.5134e-05 -5.50744e-06 -2.26181e-05 37.8381 -318.322 24.6239 0.0015 
159 1 1 -0.0870833 0.00606582 -0.128782 0 0 0 -0.727991 -0.264533 -0.6047 0 0 -0.000346714 135.577 -373.108 2.76099e-14 0.0015 
145 1 1 -0.0567592 0.00528678 -0.128714 0 0 0 -0.558858 -0.213321 -0.25101 0 0 -0.00160516 67.1557 52.6365 7.87847 0.0025 
151 1 1 -0.079115 0.00881714 -0.13108 0 0 0 -0.730455 -0.170603 -0.751242 0 0 -0.000346714 87.8954 -376.333 -1.05237e-14 0.0015 
124 1 1 -0.0601466 0.00802121 -0.13075 0 0 0 -0.676506 -0.0904576 -0.317472 0 0 -0.000346714 178.333 -305.372 97.8781 0.0015 
199 1 1 -0.0725889 0.0163138 -0.13055 0 0 0 -0.9371 0.232945 -0.552547 0 0 -0.000346714 -331.629 -563.636 -24.6884 0.0015 
188 1 1 -0.0474275 -0.0263944 -0.123986 0 0 0 -0.514265 0.029346 -0.224494 0 0 -0.000346714 42.9932 -376.705 -144.821 0.0015 
206 1 1 -0.0558582 -0.0237263 -0.12448 0 0 0 -0.538096 0.0702735 -0.396523 0 0 -0.00160516 -23.9653 -184.476 38.5764 0.0025 
205 1 1 -0.0512695 -0.014235 -0.124462 0 0 0 -0.868497 0.137296 -0.158424 0 0 -0.000346714 -77.3943 -551.317 -2.87598 0.0015 
198 1 1 -0.067722 -0.0134568 -0.125774 0 0 0 -0.650597 -0.296708 -0.445091 0 0 -0.000346714 -267.498 -380.614 -200.252 0.0015 
172 1 1 -0.0823936 -0.00142442 -0.126977 0 0 0 -0.727883 0.299697 -0.55492 0 0 -0.000346714 -156.375 -379.791 5.10942e-14 0.0015 
118 1 1 -0.0498962 -0.00117684 -0.12603 0 0 0 -0.412331 -0.0119405 -0.171523 -0.000769302 -4.42206e-05 0.00120418 2.00937 -179.101 7.88663 0.0025 
160 1 1 -0.0502274 0.0050813 -0.127041 0 0 0 -0.382292 0.14464 -0.166441 -0.000121204 -0.00048531 0.000839718 -44.7117 -242.199 -26.3325 0.0015 
154 1 1 -0.0465329 0.00571488 -0.125458 0 0 0 -0.316165 0.0949072 -0.114036 -0.0027438 -0.000211673 0.00468925 -35.3789 -234.305 -81.7162 0.0015 
183 1 1 -0.0649172 0.00650564 -0.126552 0 0 0 -0.9648 -0.364519 -0.205772 0 0 -0.00160516 -86.3109 23.7513 -54.6006 0.0025 
134 1 1 -0.0629994 0.0327119 -0.126325 0 0 0 -0.378435 0.170477 -0.727111 0 0 -0.000346714 -203.412 441.886 -62.7026 0.0015 
89 1 1 -0.0998189 0.045048 -0.124905 0 0 0 -0.5528 0.273197 -0.706368 0 0 -0.000346714 -314.22 -140.985 -64.0011 0.0015 
9 1 1 -0.0844766 0.0721513 -0.124988 0 0 0 -0.42901 0.035963 -0.152886 -7.18283e-05 -8.2157e-05 -6.53518e-05 -29.8463 -335.694 4.78649 0.0015 
243 1 1 -0.0563548 -0.0293398 -0.121153 0 0 0 -1.10588 0.225772 -0.314986 0 0 -0.000346714 -151.288 -700.202 73.2054 0.0015 
176 1 1 -0.0400502 -0.0241709 -0.120895 0 0 0 -0.402374 0.264302 -0.373567 0 0 -0.000346714 169.968 -24.2014 -210.042 0.0015 
125 1 1 -0.040465 -0.0166681 -0.1223 0 0 0 -0.316718 0.00577662 -0.186855 -0.00952202 4.55138e-05 -0.0104446 20.3464 -191.575 -117.383 0.0015 
150 1 1 -0.0653617 -0.0107274 -0.123377 0 0 0 -0.586293 -0.0855 -0.614763 0 0 -0.000346714 -222.778 -463.567 168.636 0.0015 
251 1 1 -0.0400659 -0.00700171 -0.122689 0 0 0 -0.645562 0.286245 -0.748691 0.0794147 -0.0644956 0.0918241 170.819 47.118 77.1632 0.0015 
218 1 1 -0.0497338 -0.00647103 -0.124057 0 0 0 -0.742298 0.15399 -0.449903 0 0 -0.000346714 -117.049 -463.356 40.7966 0.0015 
223 1 1 -0.0428279 -0.00504928 -0.123451 0 0 0 -0.799493 -0.208506 -0.693363 0 0 -0.000346714 -8.23072 -214.328 -227.399 0.0015 
221 1 1 -0.0559286 -0.000781969 -0.122051 0 0 0 -0.768587 -0.37629 -0.194953 0 0 -0.00160516 241.362 -76.4441 77.5254 0.0025 
228 1 1 -0.0440731 0.0029557 -0.122975 0 0 0 -0.70811 -0.049288 -0.168317 0 0 -0.000346714 176.413 -453.493 -213.663 0.0015 
242 1 1 -0.0415034 0.000690185 -0.123361 0 0 0 -0.697287 0.0661667 -0.612565 0 0 -0.000346714 85.8484 -42.2049 239.698 0.0015 
162 1 1 -0.0362952 0.00118034 -0.121353 0 0 0 -0.413188 -0.17592 -0.108392 -0.000584609 -0.00224458 0.000714347 23.2699 -266.655 -64.8749 0.0015 
244 1 1 -0.0446072 0.00975076 -0.12224 0 0 0 -0.606615 0.130768 -0.837078 0 0 -0.00160516 -90.9688 48.7028 25.7512 0.0025 
204 1 1 -0.0723709 0.011591 -0.123055 0 0 0 -0.94184 0.265268 -0.461494 0 0 -0.000346714 -156.011 -439.85 35.1347 0.0015 
229 1 1 -0.0367559 0.0115865 -0.120914 0 0 0 -0.288865 -0.0266224 0.00501676 0 0 -0.000346714 8.03323 -171.358 13.8459 0.0015 
208 1 1 -0.0716416 0.0160369 -0.121459 0 0 0 -0.850436 -0.0380005 -0.308746 0 0 -0.00160516 -5.54866 -281.522 17.2612 0.0025 
210 1 1 -0.052301 0.0300331 -0.122595 0 0 0 -0.727298 -0.0749875 -0.425675 0 0 -0.00160516 34.8221 -229.284 -71.4303 0.0025 
200 1 1 -0.0574044 -0.0665581 -0.116735 0 0 0 -0.64746 -0.519118 -0.0475381 -7.44871e-05 7.57471e-05 -6.02719e-05 288.01 -384.559 276.763 0.0015 
237 1 1 -0.0349249 -0.0306907 -0.118059 0 0 0 -0.373296 -0.0110019 -0.152806 0 0 -0.000346714 1.49979 -262.748 22.1717 0.0015 
219 1 1 -0.0380165 -0.0271253 -0.118554 0 0 0 -0.582789 -0.117228 -0.316264 0 0 -0.00160516 62.1201 -131.397 81.9085 0.0025 
266 1 1 -0.0339768 -0.02022 -0.117699 0 0 0 -0.754341 0.181085 0.252522 0 0 -0.000346714 -92.5648 -385.594 -5.21537e-14 0.0015 
240 1 1 -0.0295192 -0.018967 -0.117329 0 0 0 -0.358438 0.0527497 -0.162362 0 0 -0.000346714 -135.782 -49.5039 -74.5651 0.0015 
142 1 1 -0.0375577 -0.0153227 -0.119938 0 0 0 -0.425111 0.0112861 -0.181505 0.0100359 0.00179364 0.0170172 17.215 -176.471 -60.3406 0.0025 
233 1 1 -0.041573 -0.00953754 -0.118863 0 0 0 -0.967069 0.383823 -0.627043 0 0 -0.00160516 -249.253 -78.8607 -142.705 0.0025 
175 1 1 -0.0638323 -0.00503751 -0.120381 0 0 0 -0.713733 0.262026 -0.599733 0 0 -0.000346714 -134.947 -367.581 4.36608e-14 0.0015 
195 1 1 -0.0361315 -0.00403901 -0.119903 0 0 0 -0.502786 0.1943 -0.245431 0 0 -0.00160516 -90.8291 -208.509 18.8804 0.0025 
164 1 1 -0.0817673 0.00238605 -0.12061 0 0 0 -0.766489 -0.0655395 -0.456434 0 0 -0.000346714 26.9906 -313.287 -65.5963 0.0015 
245 1 1 -0.0457149 0.00174953 -0.119246 0 0 0 -0.830148 -0.362366 -0.190557 0 0 -0.00160516 -207.476 188.546 -68.6096 0.0025 
141 1 1 -0.0310684 0.00149435 -0.119111 0 0 0 -0.367671 -0.165066 -0.156761 -9.0103e-05 2.55981e-06 -3.89442e-05 76.7786 -265.926 99.9358 0.0015 
170 1 1 -0.0362364 0.00493817 -0.120049 0 0 0 -0.447568 -0.120735 -0.100526 -0.00165211 0.00592479 0.00387741 39.85 -164.178 -22.9834 0.0025 
231 1 1 -0.0282644 0.00417213 -0.116826 0 0 0 -0.325877 -0.0249396 -0.0695612 0 0 -0.00160516 -3.22534 -129.811 32.3576 0.0025 
187 1 1 -0.0712566 0.0118395 -0.116957 0 0 0 -0.721234 -0.2348 -0.348789 0 0 -0.000346714 119.521 -367.133 -2.96941e-14 0.0015 
255 1 1 -0.0339261 0.0102816 -0.118158 0 0 0 -0.963092 -0.512687 -0.581701 0 0 -0.000346714 416.103 -454.812 175.938 0.0015 
252 1 1 -0.0286915 0.0130398 -0.117236 0 0 0 -0.559459 0.0579139 0.0118867 0 0 -0.000346714 -134.484 -353.316 203.824 0.0015 
203 1 1 -0.0745648 0.0165737 -0.118313 0 0 0 -1.00175 -0.236512 -0.251964 0 0 -0.000346714 231.67 -102.93 -70.3228 0.0015 
156 1 1 -0.0408085 0.0149874 -0.117865 0 0 0 -0.508402 -0.150735 -0.267282 0 0 -0.00160516 -56.3392 -70.6534 -5.03234 0.0025 
241 1 1 -0.0361363 0.014801 -0.11964 0 0 0 -0.782394 -0.308586 -0.150036 0 0 -0.000346714 198.191 -506.612 40.6049 0.0015 
209 1 1 -0.0374672 0.0202268 -0.117718 0 0 0 -0.398095 0.00568552 -0.168432 0 0 -0.00160516 9.50047 -165.371 52.675 0.0025 
215 1 1 -0.0390223 0.0271103 -0.120079 0 0 0 -0.663016 -0.232068 -0.201708 0 0 -0.000346714 156.735 -452.039 2.61449 0.0015 
269 1 1 -0.038917 0.0308099 -0.11782 0 0 0 -0.960644 -0.0808325 0.17016 0 0 -0.000346714 107.965 -582.902 -270.426 0.0015 
86 1 1 -0.0536503 0.056593 -0.119294 0 0 0 -0.367781 0.0175984 -0.145262 -7.90956e-05 -6.62113e-05 -5.53449e-05 74.0284 -205.276 -212.297 0.0015 
45 1 1 -0.15239 -0.0394096 -0.114628 0 0 0 -0.806305 -0.42317 -0.581159 0 0 -0.000346714 389.887 -152.585 -138.964 0.0015 
227 1 1 -0.0326015 -0.0295878 -0.116186 0 0 0 -0.49392 -0.0876125 -0.227593 0 0 -0.000346714 123.546 -271.436 -15.2234 0.0015 
253 1 1 -0.0432244 -0.0241649 -0.115223 0 0 0 -0.715924 0.319445 0.115069 0 0 -0.000346714 -165.162 -370.152 2.26491e-14 0.0015 
214 1 1 -0.0277232 -0.0272956 -0.115465 0 0 0 -0.883054 0.0136088 -0.272074 0 0 -0.000346714 54.7739 -637.147 -120.439 0.0015 
239 1 1 -0.0232665 -0.026812 -0.113519 0 0 0 -0.289867 0.0712908 0.135311 0 0 -0.000346714 36.4318 -161.995 -141.26 0.0015 