ITEM: TIMESTEP
26000
ITEM: NUMBER OF ATOMS
332
ITEM: BOX BOUNDS ff ff ff
-0.5 0.1
-0.2 0.2
-0.4 0.15
ITEM: ATOMS id type type x y z ix iy iz vx vy vz fx fy fz omegax omegay omegaz radius 
30 1 1 -0.14096 -0.0141751 -0.1637 0 0 0 -1.02506 -0.0523967 -0.4244 0 0 -0.00160516 5.73442 -441.67 41.335 0.0025 
21 1 1 -0.136676 -0.00198097 -0.163325 0 0 0 -0.919256 -0.082351 -0.377267 0 0 -0.000346714 10.0901 -259.111 -155.769 0.0015 
2 1 1 -0.144075 0.00137523 -0.164912 0 0 0 -0.877072 0.0682256 -0.3978 0 0 -0.00160516 -23.6285 -356.495 -12.8129 0.0025 
11 1 1 -0.139246 3.96151e-05 -0.1646 0 0 0 -0.94161 -0.138786 -0.437784 0 0 -0.000346714 -30.0724 -676.053 280.88 0.0015 
31 1 1 -0.13602 0.0119577 -0.162959 0 0 0 -1.0138 0.197589 -0.429548 -9.11936e-05 -1.05496e-05 -3.92799e-05 -51.9069 -727.078 -211.912 0.0015 
18 1 1 -0.142052 0.0145551 -0.165204 0 0 0 -0.900524 -0.203706 -0.398553 0 0 -0.000346714 129.649 -654.452 42.0221 0.0015 
36 1 1 -0.135094 -0.0306979 -0.159897 0 0 0 -1.00291 0.0354863 -0.422206 -8.92984e-05 4.70957e-05 -3.53484e-05 -82.6469 -708.565 136.759 0.0015 
4 1 1 -0.133631 -0.00690393 -0.161161 0 0 0 -0.878314 -0.0485913 -0.363811 -0.000405152 2.29706e-05 -0.000170555 28.113 -381.218 -16.955 0.0025 
10 1 1 -0.13365 -0.000787137 -0.161907 0 0 0 -0.817899 -0.0422057 -0.421459 0 0 -0.000346714 -146.608 139.277 55.2093 0.0015 
6 1 1 -0.129759 0.00332232 -0.160685 0 0 0 -0.731906 0.0363501 -0.300247 -1.28381e-05 -2.03649e-06 -0.000135934 -71.8966 -535.852 111.447 0.0015 
8 1 1 -0.126352 0.000984716 -0.15852 0 0 0 -0.744796 0.0365241 -0.304608 0 0 -0.000346714 62.8708 -507.893 -198.594 0.0015 
24 1 1 -0.128452 0.00629366 -0.159955 0 0 0 -0.836135 0.170521 -0.333522 0 0 -0.000346714 -90.9606 -596.437 -79.3524 0.0015 
12 1 1 -0.128014 0.0152493 -0.15932 0 0 0 -0.902984 0.208283 -0.37402 -0.00015406 -1.94024e-05 -0.00013993 -40.9106 -642.908 -255.842 0.0015 
5 1 1 -0.130931 0.019847 -0.159867 0 0 0 -0.95988 0.0351578 -0.385691 -8.48191e-05 -2.94824e-05 -3.92424e-05 -13.8755 -693.11 -28.6495 0.0015 
47 1 1 -0.133967 0.0253397 -0.160369 0 0 0 -1.16272 -0.0263336 -0.506295 0 0 -0.000346714 0.276236 -850.763 43.8211 0.0015 
38 1 1 -0.181041 0.0725499 -0.161261 0 0 0 -1.35174 0.272985 -0.292412 -0.000280373 -0.000540548 0.000222876 -151.656 -999.673 -224.12 0.0015 
72 1 1 -0.13144 -0.0386648 -0.156612 0 0 0 -1.08627 -0.440086 -0.288492 -1.23738e-05 0.000192914 0.000534367 121.327 -645.84 519.276 0.0015 
20 1 1 -0.130239 -0.000660907 -0.160436 0 0 0 -0.890002 0.0433661 -0.240779 0 0 -0.000346714 -40.6895 -600.187 21.7107 0.0015 
23 1 1 -0.123308 -0.0013503 -0.155142 0 0 0 -0.921224 -0.155132 -0.282501 0 0 -0.000346714 43.4785 -160.849 -53.908 0.0015 
17 1 1 -0.131795 0.00448394 -0.15733 0 0 0 -1.12554 0.226387 -0.417254 0 0 -0.000346714 -53.5625 69.6297 -123.256 0.0015 
35 1 1 -0.122959 2.1864e-05 -0.157848 0 0 0 -0.743178 -0.114035 -0.294402 0 0 -0.000346714 56.9155 -529.342 59.1451 0.0015 
50 1 1 -0.108506 -0.0121937 -0.151306 0 0 0 -0.815265 -0.11002 -0.334919 -8.84131e-05 1.37747e-05 -3.67843e-05 150.127 -601.76 -167.771 0.0015 
22 1 1 -0.114356 -0.00296261 -0.151923 0 0 0 -0.930495 0.0669478 -0.333119 0 0 -0.000346714 -44.8957 -616.978 -13.0292 0.0015 
26 1 1 -0.118589 0.00217643 -0.154936 0 0 0 -0.884623 0.259628 -0.382281 -0.000265449 -8.50069e-06 -0.00036729 -128.955 -385.258 37.3064 0.0025 
32 1 1 -0.123633 0.00352651 -0.158031 0 0 0 -0.886769 0.00549432 -0.279507 0 0 -0.000346714 -5.71929 -613.684 -4.3948 0.0015 
37 1 1 -0.114138 0.00700244 -0.154015 0 0 0 -0.929377 0.132961 -0.380639 3.23449e-05 -5.81873e-07 -0.000412067 -91.9436 -672.551 -10.5966 0.0015 
3 1 1 -0.114319 0.0197012 -0.151929 0 0 0 -0.868799 0.163954 -0.337609 -0.000392967 -0.000143224 -0.000204057 -36.7498 -367.749 -84.021 0.0025 
51 1 1 -0.1112 0.0229375 -0.151227 0 0 0 -0.904589 0.28776 -0.333706 -8.59977e-05 -3.13449e-05 -4.1563e-05 -131.43 -631.56 -188.332 0.0015 
14 1 1 -0.109814 -0.00365348 -0.149953 0 0 0 -0.8425 -0.115899 -0.377254 0 0 -0.00160516 51.7253 -341.241 -4.20105 0.0025 
33 1 1 -0.0981941 0.000893222 -0.147401 0 0 0 -0.583336 0.134335 -0.223753 0 0 -0.000346714 -39.8753 -415.445 -137.698 0.0015 
71 1 1 -0.106767 0.00061407 -0.150962 0 0 0 -0.963621 0.0563057 -0.390613 0 0 -0.000346714 -46.0512 -688.706 12.3373 0.0015 
49 1 1 -0.107033 0.00647263 -0.150749 0 0 0 -0.753139 0.111604 -0.437389 0 0 -0.000346714 -17.3327 -123.178 -42.6815 0.0015 
48 1 1 -0.130441 0.0199857 -0.154663 0 0 0 -0.926663 0.481481 -0.938757 0 0 -0.000346714 27.3203 136.186 -30.5113 0.0015 
16 1 1 -0.105481 0.0164783 -0.148596 0 0 0 -0.854805 0.044758 -0.351154 -0.000314856 -2.25353e-05 -0.000523109 20.738 -364.124 -96.3572 0.0025 
113 1 1 -0.102924 -0.0234394 -0.146344 0 0 0 -0.887485 -0.114101 -0.329848 0 0 -0.000346714 35.4555 -586.816 145.527 0.0015 
52 1 1 -0.114282 -0.0151666 -0.149944 0 0 0 -0.812789 0.0768082 -0.796216 0 0 -0.00160516 180.623 136.053 124.935 0.0025 
76 1 1 -0.103719 -0.0122613 -0.148758 0 0 0 -1.07545 -0.0284396 -0.500987 0 0 -0.000346714 18.3129 -750.746 11.1101 0.0015 
25 1 1 -0.0959691 -0.00674741 -0.146348 0 0 0 -0.718842 -0.195027 -0.315978 0.000297575 -7.05767e-05 0.00100121 147.724 -514.82 -12.2652 0.0015 
19 1 1 -0.095012 0.0130981 -0.145512 0 0 0 -0.662593 0.0287812 -0.274659 -8.76185e-05 -1.71886e-05 -3.80138e-05 -12.47 -478.754 -20.0852 0.0015 
85 1 1 -0.166975 -0.0320597 -0.144576 0 0 0 -1.70626 -0.770248 -0.756789 0 0 -0.000346714 -992.473 989.332 -382.051 0.0015 
28 1 1 -0.0946625 -0.0189624 -0.143744 0 0 0 -0.770174 0.156726 -0.345766 -0.00031221 9.6268e-05 -0.000403978 -75.4902 -334.886 16.3592 0.0025 
60 1 1 -0.0892596 -0.00331493 -0.143682 0 0 0 -0.731389 -0.0634215 -0.307532 -8.8298e-05 -2.56347e-06 -3.70545e-05 74.2603 -528.23 -67.6743 0.0015 
39 1 1 -0.085384 -0.00257463 -0.140965 0 0 0 -0.737177 -0.051198 -0.309448 -0.000395143 -1.16301e-05 -0.000216688 27.6783 -319.795 -13.0049 0.0025 
57 1 1 -0.101152 0.00152382 -0.146651 0 0 0 -1.00956 0.0799156 -0.897037 0 0 -0.000346714 123.803 -106.567 156.887 0.0015 
84 1 1 -0.0857177 0.00257815 -0.142095 0 0 0 -0.517648 -0.088915 -0.204789 0 0 -0.000346714 30.9116 -327.881 80.4334 0.0015 
88 1 1 -0.0833327 0.014309 -0.140492 0 0 0 -0.600523 0.023429 -0.2576 1.18065e-05 -1.65298e-05 -0.000161741 9.13902 -151.068 -28.1632 0.0015 
75 1 1 -0.103085 0.021831 -0.147407 0 0 0 -0.876601 0.161005 -0.714039 0 0 -0.000346714 -6.95269 -344.761 118.502 0.0015 
43 1 1 -0.0895087 0.0269706 -0.141521 0 0 0 -0.675253 -0.0297344 -0.289762 -8.67746e-05 -3.28219e-05 -4.20515e-05 106.861 -461.948 -201.621 0.0015 
42 1 1 -0.0972311 0.0308643 -0.143054 0 0 0 -0.804034 -0.0273244 -0.342217 -0.000848676 -0.000310472 0.000603751 29.6014 -346.694 -41.6303 0.0025 
79 1 1 -0.0966331 -0.0486188 -0.137524 0 0 0 -0.98113 -0.107651 -0.31476 0 0 -0.00160516 22.1558 -393.767 97.0363 0.0025 
41 1 1 -0.106614 -0.0273326 -0.141734 0 0 0 -0.698503 -0.0541749 -0.721361 0 0 -0.00160516 -159.194 -215.037 5.0754 0.0025 
1 1 1 -0.0821106 -0.0145336 -0.138995 0 0 0 -0.68447 -0.0199118 -0.285393 -0.000353633 4.40973e-05 -0.000303315 -36.4934 -291.653 107.801 0.0025 
53 1 1 -0.0794955 -0.010287 -0.138123 0 0 0 -0.761044 0.061306 -0.32203 -8.82179e-05 2.23717e-05 -0.0008628 -23.0199 -330.885 -8.62899 0.0025 
27 1 1 -0.0747141 -0.00437396 -0.136402 0 0 0 -0.600236 -0.155131 -0.247099 -0.000411472 4.80441e-05 -0.000176691 73.8919 -262.036 -14.9844 0.0025 
44 1 1 -0.0775033 0.00310761 -0.138633 0 0 0 -0.627463 -0.0368927 -0.268944 3.2831e-06 -2.45648e-06 -0.000213865 13.4154 -455.047 31.3704 0.0015 
40 1 1 -0.0899247 0.00816073 -0.142469 0 0 0 -0.817855 0.128569 -0.288607 0 0 -0.00160516 -59.4197 -339.519 8.12952 0.0025 
29 1 1 -0.0823461 0.00886438 -0.139472 0 0 0 -0.642466 0.00620599 -0.267902 -0.000404315 -8.57907e-05 -0.000178753 31.3764 -272.423 -81.5535 0.0025 
78 1 1 -0.0904876 0.0152682 -0.140075 0 0 0 -0.875275 0.228069 -0.462999 0 0 -0.00160516 -41.4296 -163.028 -15.7517 0.0025 
54 1 1 -0.0804298 0.0135783 -0.137787 0 0 0 -0.659293 -0.131867 -0.188835 0 0 -0.00160516 75.8927 -230.4 -17.4051 0.0025 
34 1 1 -0.088855 0.046729 -0.136814 0 0 0 -0.844907 0.302159 -0.242801 0 0 -0.000346714 -104.182 -529.905 -310.108 0.0015 
63 1 1 -0.0676824 -0.0185905 -0.13353 0 0 0 -0.562716 -0.0103412 -0.236115 -8.76066e-05 2.46295e-05 -3.98707e-05 -22.2456 -401.413 70.5973 0.0015 
74 1 1 -0.0649395 -0.0152353 -0.132771 0 0 0 -0.516304 -0.308311 -0.180393 -7.31076e-05 1.87704e-05 -7.99583e-05 247.943 -382.307 -55.3556 0.0015 
65 1 1 -0.0680897 -0.00854225 -0.133403 0 0 0 -0.462536 -0.0511432 -0.198125 0.00324029 -0.00590427 0.00552605 62.8381 -162.556 -22.0992 0.0025 
56 1 1 -0.0994611 0.000351746 -0.139516 0 0 0 -0.718805 0.16698 -0.758745 0 0 -0.000346714 -85.5854 -368.423 1.07912e-13 0.0015 
55 1 1 -0.0931966 0.00371495 -0.139319 0 0 0 -0.706771 0.253408 -0.776852 0 0 -0.00160516 -76.8102 -219.699 -17.9608 0.0025 
58 1 1 -0.0763332 0.0187564 -0.136652 0 0 0 -0.784826 -0.118745 -0.414105 0 0 -0.000346714 122.887 -529.508 -103.789 0.0015 
70 1 1 -0.075729 0.02702 -0.135748 0 0 0 -0.690362 -0.0880556 -0.305967 -8.58113e-05 -3.39256e-05 -4.40552e-05 100.355 -491.478 -84.9896 0.0015 
7 1 1 -0.10772 -0.078157 -0.130296 0 0 0 -0.697645 -0.144365 -0.185539 -7.07581e-06 1.57411e-05 -0.000215084 7.60949 -401.357 285.248 0.0015 
111 1 1 -0.0860147 -0.0105851 -0.13147 0 0 0 -0.731541 0.0594779 -0.422643 0 0 -0.000346714 30.7175 221.295 -96.1964 0.0015 
95 1 1 -0.057426 -0.00324647 -0.130221 0 0 0 -0.602922 0.0523081 -0.257569 -8.87312e-05 9.33539e-06 -3.79772e-05 -98.8396 -430.668 143.904 0.0015 
46 1 1 -0.0964287 0.00723709 -0.136596 0 0 0 -0.743267 0.1987 -0.696083 0 0 -0.000346714 58.8912 -171.923 -2.54438 0.0015 
92 1 1 -0.0591496 0.0235219 -0.128295 0 0 0 -0.394955 0.126537 -0.151102 -0.000394722 -0.000141239 -0.00024006 -35.0188 -166.528 -47.9251 0.0025 
82 1 1 -0.0653183 0.0294326 -0.130994 0 0 0 -0.706047 -0.113501 -0.314835 -0.000100528 -4.39972e-05 6.40665e-05 10.6022 -547.169 175.594 0.0015 
138 1 1 -0.0719459 -0.0395963 -0.131208 0 0 0 -0.996472 -0.104532 -0.628577 0 0 -0.000346714 42.3857 -637.087 149.544 0.0015 
121 1 1 -0.078319 -0.0272672 -0.125258 0 0 0 -0.818457 -0.470085 -0.186582 0 0 -0.000346714 489.767 -176.371 -153.239 0.0015 
107 1 1 -0.0796115 -0.0154363 -0.128312 0 0 0 -0.774177 -0.197611 -0.519936 0 0 -0.00160516 -26.4565 -264.988 -43.8101 0.0025 
66 1 1 -0.0508229 -0.0134095 -0.125911 0 0 0 -0.681191 -0.0520684 -0.283187 9.07901e-05 0.000439262 0.000582464 -22.2051 -260.698 74.9587 0.0025 
128 1 1 -0.0654506 -0.0115153 -0.132995 0 0 0 -0.61923 -0.346579 -0.504685 -0.00336689 0.00386888 0.0015908 -292.374 224.254 -175.223 0.0015 
15 1 1 -0.0547188 -0.00640944 -0.12785 0 0 0 -0.52524 0.0578383 -0.220861 -0.000222188 2.38618e-05 -0.000764762 -33.1976 -226.897 19.1765 0.0025 
127 1 1 -0.048436 -0.008946 -0.12611 0 0 0 -0.478705 0.0646661 -0.258948 0 0 -0.000346714 -102.412 -337.337 77.5736 0.0015 
73 1 1 -0.0545779 -0.000136365 -0.129054 0 0 0 -0.653259 0.164684 -0.270694 -9.13014e-05 -5.32418e-06 -3.02854e-05 -122.801 -473.027 8.58569 0.0015 
83 1 1 -0.063053 0.00502523 -0.130868 0 0 0 -0.62625 0.159735 -0.686971 0 0 -0.000346714 -80.7065 -336.668 -48.6138 0.0015 
98 1 1 -0.0739009 0.00735881 -0.128639 0 0 0 -0.591527 -0.13881 -0.513918 0 0 -0.000346714 70.2628 -305.698 33.5383 0.0015 
93 1 1 -0.0563738 0.0080266 -0.128507 0 0 0 -0.587457 -0.199856 -0.260288 -0.000416618 -3.2227e-05 -0.000181027 36.104 -260.205 118.307 0.0025 
68 1 1 -0.0557847 0.0197533 -0.127409 0 0 0 -0.437292 0.0604301 -0.172537 -0.000352135 -7.8669e-05 -0.000345817 -22.8855 -188.817 -7.90831 0.0025 
62 1 1 -0.0514821 0.0185738 -0.126484 0 0 0 -0.391563 0.0157672 -0.222287 0 0 -0.000346714 -5.98858 -179.454 0.119328 0.0015 
94 1 1 -0.065119 0.049794 -0.124959 0 0 0 -0.502104 0.151861 -0.166066 0 0 -0.00160516 -34.5632 -197.538 -85.845 0.0025 
59 1 1 -0.0452035 -0.0141467 -0.124573 0 0 0 -0.444696 0.0200844 -0.189955 -8.77136e-05 2.3708e-05 -3.9731e-05 -21.8723 -321.763 17.1835 0.0015 
112 1 1 -0.0422187 -0.0171692 -0.122961 0 0 0 -0.603449 -0.263645 -0.189005 0 0 -0.000346714 109.122 -406.262 203.639 0.0015 
102 1 1 -0.0855013 -0.00741959 -0.126906 0 0 0 -0.730519 0.300783 -0.546282 0 0 -0.000346714 -155.835 -378.48 -1.58522e-13 0.0015 
114 1 1 -0.0587569 -0.0123937 -0.125699 0 0 0 -0.754937 -0.263175 -0.401189 0 0 -0.000346714 -97.4999 -289.009 106.159 0.0015 
101 1 1 -0.0475434 -0.0116652 -0.123727 0 0 0 -0.546071 -0.142362 -0.244605 0 0 -0.000346714 42.8929 388.929 -230.336 0.0015 
144 1 1 -0.0438548 -0.0111248 -0.121552 0 0 0 -0.513215 -0.0110608 -0.13764 0 0 -0.00160516 101.797 -273.59 193.952 0.0025 
123 1 1 -0.0519241 -0.00489745 -0.124761 0 0 0 -0.560465 0.175553 -0.141269 0 0 -0.000346714 -221.466 200.881 -159.413 0.0015 
90 1 1 -0.0477829 -0.00417764 -0.12502 0 0 0 -0.515207 -0.0619979 -0.220213 -0.000417237 3.317e-05 -0.000180467 45.2489 -226.176 -42.1877 0.0025 
87 1 1 -0.0836755 -0.000643033 -0.12835 0 0 0 -0.769897 -0.130322 -0.629078 0 0 -0.000346714 52.6196 -280.727 6.42893 0.0015 
81 1 1 -0.0806376 0.000223182 -0.12509 0 0 0 -0.737121 -0.0401257 -0.556606 0 0 -0.000346714 22.0777 -340.21 19.6179 0.0015 
64 1 1 -0.0798661 0.00567886 -0.128927 0 0 0 -0.71254 -0.00906028 -0.682126 0 0 -0.000346714 -16.4638 -306.665 -13.1889 0.0015 
103 1 1 -0.0455399 0.0120992 -0.123701 0 0 0 -0.599317 -0.020151 -0.247815 -0.000445998 -4.32163e-05 -7.47005e-05 10.8332 -259.479 -5.09859 0.0025 
108 1 1 -0.0748978 0.0120973 -0.127243 0 0 0 -0.690242 -0.328967 -0.470306 0 0 -0.000346714 185.692 -394.795 28.3963 0.0015 
116 1 1 -0.0564269 0.0150922 -0.125061 0 0 0 -0.683584 -0.0193959 -0.340789 0 0 -0.00160516 32.8998 84.2714 68.6068 0.0025 
166 1 1 -0.0499478 0.0142259 -0.126557 0 0 0 -0.796569 -0.179389 -0.347233 -3.71113e-05 -0.000157745 -3.24348e-05 42.0045 -570.405 357.358 0.0015 
77 1 1 -0.068876 0.0175337 -0.125717 0 0 0 -0.774182 -0.0820079 -0.45037 0 0 -0.00160516 -117.955 -11.1572 -67.4083 0.0025 
146 1 1 -0.0385055 -0.0443052 -0.116532 0 0 0 -0.201248 -0.733117 0.115804 0 0 -0.000346714 444.547 -64.3262 266.13 0.0015 
106 1 1 -0.0425288 -0.0239934 -0.121036 0 0 0 -0.564232 -0.150988 -0.198911 0 0 -0.00160516 58.3418 -233.608 25.9958 0.0025 
126 1 1 -0.032583 -0.0228723 -0.118274 0 0 0 -0.300557 -0.128425 -0.116242 -9.24264e-05 2.21487e-05 -3.39739e-05 -19.2338 -192.179 261.972 0.0015 
149 1 1 -0.0451059 -0.0203828 -0.121589 0 0 0 -0.554462 -0.281116 -0.394822 0 0 -0.000346714 2.89784 -324.346 145.688 0.0015 
117 1 1 -0.0357025 -0.0184763 -0.118648 0 0 0 -0.412075 -0.194084 -0.238936 0 0 -0.00160516 53.9398 -153.843 84.5444 0.0025 
104 1 1 -0.0628166 -0.0087719 -0.1209 0 0 0 -0.758712 0.0523375 -0.33407 0 0 -0.00160516 21.1445 -4.98565 31.0059 0.0025 
160 1 1 -0.0289687 -0.0067299 -0.118082 0 0 0 -0.281537 0.247183 -0.125823 2.18027e-06 -9.67185e-05 8.38295e-05 -66.2408 -95.3292 -84.1684 0.0015 
91 1 1 -0.0694968 -0.00429795 -0.123366 0 0 0 -0.498521 0.0862428 -0.541941 0 0 -0.00160516 53.3082 -81.7548 -60.1937 0.0025 
122 1 1 -0.0554508 -0.00576769 -0.123567 0 0 0 -0.810261 0.00404358 -0.565707 0 0 -0.000346714 64.532 -319.055 -42.736 0.0015 
158 1 1 -0.0406665 0.00224045 -0.120867 0 0 0 -0.616994 0.304083 -0.435275 0 0 -0.00160516 -35.2146 -290.721 -0.689767 0.0025 
173 1 1 -0.0411075 0.00852122 -0.117415 0 0 0 -0.66058 0.485496 -0.129055 0 0 -0.000346714 249.586 -375.953 133.484 0.0015 
109 1 1 -0.0300523 0.006967 -0.118505 0 0 0 -0.523174 -0.00275099 -0.215439 -8.69962e-05 -1.31047e-05 -3.63969e-05 -9.30361 -379.675 27.4371 0.0015 
110 1 1 -0.0386513 0.00931456 -0.12185 0 0 0 -0.728551 0.0460099 -0.0951368 0 0 -0.000346714 50.7022 -499.14 -206.944 0.0015 
139 1 1 -0.0507234 0.0145172 -0.120658 0 0 0 -0.944089 0.147195 -0.438808 0 0 -0.000346714 232.714 -588.143 97.9806 0.0015 
135 1 1 -0.0514517 0.0152539 -0.12402 0 0 0 -1.25851 -0.148856 -0.649816 0 0 -0.000346714 -221.353 -157.041 -91.256 0.0015 
136 1 1 -0.0349363 0.0157886 -0.119901 0 0 0 -0.461824 0.169731 -0.160198 0 0 -0.000346714 -70.7334 -308.782 -121.489 0.0015 
161 1 1 -0.0409506 0.0224508 -0.121165 0 0 0 -0.556904 0.125009 -0.122145 0 0 -0.000346714 -91.5738 -363.535 -25.8605 0.0015 
9 1 1 -0.0617163 0.0654634 -0.119135 0 0 0 -0.30437 0.183044 -0.046444 -7.41686e-05 -7.56824e-05 -5.97963e-05 -142.644 -235.614 6.21669 0.0015 
165 1 1 -0.051381 -0.0277323 -0.116779 0 0 0 -0.895994 0.214461 -0.366976 0 0 -0.000346714 -22.9455 -195.917 -119.891 0.0015 
137 1 1 -0.0637367 -0.0179529 -0.115483 0 0 0 -0.71424 0.318693 -0.165613 0 0 -0.000346714 -165.637 -371.218 1.31049e-13 0.0015 
171 1 1 -0.0315645 -0.0203975 -0.112634 0 0 0 -0.984056 0.292994 0.169817 0 0 -0.000346714 323.439 -372.037 -4.96857 0.0015 
97 1 1 -0.0733492 -0.013333 -0.119049 0 0 0 -0.608113 0.0408381 -0.386242 0 0 -0.000346714 109.276 -295.039 -85.8856 0.0015 
105 1 1 -0.0456118 -0.0163771 -0.120948 0 0 0 -0.72882 -0.221101 -0.496661 0 0 -0.00160516 -27.5076 -159.348 -90.5371 0.0025 
125 1 1 -0.0259044 -0.0142825 -0.115898 0 0 0 -0.237605 -0.163542 -0.188413 0 0 -0.000346714 -69.1803 109.108 -237.411 0.0015 
80 1 1 -0.0757935 -0.00920551 -0.118428 0 0 0 -0.822154 0.0808888 -0.429596 0 0 -0.00160516 -70.6507 -163.412 65.2439 0.0025 
167 1 1 -0.0435782 -0.0104095 -0.114789 0 0 0 -0.746533 -0.0691269 0.122133 0 0 -0.00160516 -36.9567 321.63 86.7459 0.0025 
174 1 1 -0.0514471 -0.00773857 -0.118402 0 0 0 -1.24376 -0.329915 -0.476086 0 0 -0.000346714 387.716 105.058 290.11 0.0015 
69 1 1 -0.0754499 -0.00154438 -0.118694 0 0 0 -0.754791 0.00562456 -0.440418 0 0 -0.000346714 -168.237 -253.173 -43.4105 0.0015 
191 1 1 -0.0248548 -0.00393564 -0.115689 0 0 0 -0.517126 -0.300132 -0.181743 0 0 -0.000346714 -351.194 -497.142 -57.3735 0.0015 
178 1 1 -0.0354873 0.00317911 -0.112417 0 0 0 -0.753066 0.0213945 0.118004 0 0 -0.000346714 -10.9831 -386.597 -4.07301e-15 0.0015 
132 1 1 -0.0364445 0.00930923 -0.1183 0 0 0 -0.58888 -0.0641331 0.0970245 0 0 -0.00160516 -116.443 331.809 -98.7423 0.0025 
67 1 1 -0.0588982 0.0144151 -0.117224 0 0 0 -0.689896 0.217128 -0.407573 0 0 -0.00160516 -112.704 254.987 22.3229 0.0025 
96 1 1 -0.0766196 0.0159348 -0.116852 0 0 0 -0.845457 -0.12801 -0.436266 0 0 -0.000346714 246.884 -254.322 -70.0386 0.0015 
124 1 1 -0.0322777 0.0133397 -0.118926 0 0 0 -0.280677 -0.183856 0.00624058 0 0 -0.000346714 107.632 -166.9 52.3827 0.0015 
13 1 1 -0.0528137 0.0185497 -0.118933 0 0 0 -0.465096 0.0401318 -0.391071 0 0 -0.00160516 -56.5 -40.2411 -43.7451 0.0025 
148 1 1 -0.0301131 0.0187655 -0.117403 0 0 0 -0.569513 0.0379593 -0.198945 0 0 -0.000346714 -98.1253 -403.065 150.035 0.0015 
119 1 1 -0.0459742 0.0214379 -0.122096 0 0 0 -0.838802 -0.0584602 -0.778639 0 0 -0.00160516 197.464 34.1411 106.028 0.0025 
130 1 1 -0.0550776 0.0354149 -0.118384 0 0 0 -0.548073 0.164744 -0.279973 0 0 -0.00160516 -77.6487 -73.4843 -78.7592 0.0025 
86 1 1 -0.0352452 0.0519224 -0.113181 0 0 0 -0.224363 0.128205 -0.0500821 -7.81786e-05 -5.88349e-05 -4.79579e-05 -11.1624 -103.393 -214.668 0.0015 
179 1 1 -0.048881 -0.0336801 -0.113296 0 0 0 -0.82532 -0.446848 -0.228876 0 0 -0.000346714 606.356 136.341 150.775 0.0015 
172 1 1 -0.0372648 -0.0200056 -0.111427 0 0 0 -0.727883 0.299697 0.0533004 0 0 -0.000346714 -156.375 -379.791 5.10942e-14 0.0015 
155 1 1 -0.0403547 -0.0171718 -0.115611 0 0 0 -0.563419 0.296858 -0.394248 0 0 -0.00160516 -29.797 -232.363 -28.655 0.0025 
176 1 1 -0.0309875 -0.020244 -0.109449 0 0 0 -0.134394 -0.0777383 0.0220135 0 0 -0.000346714 241.791 189.798 -317.251 0.0015 
147 1 1 -0.0289402 -0.016113 -0.11287 0 0 0 -0.312961 -0.00537989 -0.357978 0 0 -0.000346714 -25.8911 -241.683 23.1967 0.0015 
177 1 1 -0.0255786 -0.0129531 -0.108474 0 0 0 -0.742426 0.13855 0.122811 0 0 -0.000346714 -70.9108 -380.6 -0.24745 0.0015 
115 1 1 -0.0652959 -0.0061756 -0.116092 0 0 0 -0.704941 0.290036 -0.413193 0 0 -0.000346714 -148.193 -360.188 1.16897e-14 0.0015 
118 1 1 -0.0244339 -0.00861367 -0.113578 0 0 0 -0.399246 0.176951 0.000891644 0 0 -0.00160516 -54.0827 -138.857 -38.226 0.0025 
129 1 1 -0.0516971 -0.00385472 -0.112078 0 0 0 -0.786618 0.0121635 -0.25017 0 0 -0.00160516 -85.0819 47.0231 -38.5406 0.0025 
154 1 1 -0.0198283 -0.00314353 -0.113587 0 0 0 -0.50276 0.165311 -0.0703481 0 0 -0.000346714 -84.2218 -319.142 -81.5044 0.0015 
100 1 1 -0.0584876 3.08686e-05 -0.114672 0 0 0 -0.579227 0.229689 -0.461468 0 0 -0.000346714 -212.708 -114.821 -170.59 0.0015 
162 1 1 -0.0169513 -0.00115848 -0.112089 0 0 0 -0.334403 0.230764 -0.0669257 0 0 -0.000346714 -110.862 -117.891 -119.926 0.0015 
185 1 1 -0.0301467 0.00156549 -0.117082 0 0 0 -1.03806 0.0253191 -0.25747 0 0 -0.000346714 -61.0186 -684.767 102.483 0.0015 
152 1 1 -0.0520016 0.00851312 -0.111919 0 0 0 -0.863483 -0.00874044 -0.0449173 0 0 -0.000346714 83.1315 -292.5 132.925 0.0015 
164 1 1 -0.0344794 0.00728319 -0.110135 0 0 0 -0.747095 -0.134941 0.0660375 0 0 -0.000346714 69.1159 -382.658 2.05793e-14 0.0015 
99 1 1 -0.0635015 0.0138919 -0.113481 0 0 0 -0.848625 0.0571809 -0.330397 0 0 -0.000346714 215.697 -421.063 142.857 0.0015 
168 1 1 -0.0281859 0.00856269 -0.113108 0 0 0 -0.592142 -0.199372 -0.279734 0 0 -0.00160516 71.5368 -88.057 78.0859 0.0025 
141 1 1 -0.0147008 0.0119611 -0.110632 0 0 0 -0.0844514 -0.194251 -0.0816796 0 0 -0.000346714 94.6978 -30.6066 92.9092 0.0015 
156 1 1 -0.0235175 0.0157463 -0.112657 0 0 0 -0.180804 -0.129627 0.118407 0 0 -0.00160516 47.449 -36.1966 5.62887 0.0025 
163 1 1 -0.0459997 0.0246716 -0.110737 0 0 0 -0.717385 -0.319909 -0.0420168 0 0 -0.000346714 166.308 -372.94 1.57058e-13 0.0015 
159 1 1 -0.0419478 0.0224668 -0.110146 0 0 0 -0.727991 -0.264533 0.00351952 0 0 -0.000346714 135.577 -373.108 2.76099e-14 0.0015 
140 1 1 -0.0635448 0.0438177 -0.113257 0 0 0 -0.722634 0.270636 -0.151479 0 0 -0.000346714 260.994 -389.889 163.549 0.0015 
131 1 1 -0.049181 -0.0189529 -0.109638 0 0 0 -0.697838 0.0433516 -0.235995 0 0 -0.00160516 -128.245 -158.403 34.4151 0.0025 
120 1 1 -0.0554016 -0.0157777 -0.109788 0 0 0 -0.756959 0.0982943 -0.305656 0 0 -0.00160516 -40.3372 -182.695 -16.5233 0.0025 
186 1 1 -0.00869902 -0.00760774 -0.109295 0 0 0 0.326707 -0.122506 -0.257749 0 0 -0.000346714 -308.786 -383.583 33.7888 0.0015 
192 1 1 -0.0122892 -0.00815721 -0.104209 0 0 0 -0.733112 0.10624 0.148339 0 0 -0.000346714 -54.4381 -375.65 -2.57148e-14 0.0015 
143 1 1 -0.0322329 -0.0115875 -0.110721 0 0 0 -0.601138 -0.520621 -0.259293 0 0 -0.00160516 288.297 148.405 176.054 0.0025 
145 1 1 -0.0237102 0.00978766 -0.110114 0 0 0 -0.495426 0.179932 -0.241038 0 0 -0.00160516 122.548 -123.725 115.581 0.0025 
180 1 1 -0.032311 0.0107592 -0.115704 0 0 0 -0.443925 -0.235573 -0.540668 0 0 -0.00160516 25.8064 -62.4561 -126.973 0.0025 
184 1 1 -0.0135059 0.0243385 -0.104025 0 0 0 -0.699924 -0.268749 0.150182 0 0 -0.000346714 138.36 -360.342 -3.47581e-14 0.0015 
183 1 1 -0.017666 0.0302787 -0.104723 0 0 0 -0.701214 -0.269244 0.173735 0 0 -0.00160516 83.5933 -217.709 2.6387e-14 0.0025 
181 1 1 -0.0298283 -0.0244245 -0.113711 0 0 0 -0.674858 0.145486 0.160316 0 0 -0.00160516 -88.967 -222.617 -15.0727 0.0025 
175 1 1 -0.0195808 -0.0212831 -0.102052 0 0 0 -0.713733 0.262026 0.00848737 0 0 -0.000346714 -134.947 -367.581 4.36608e-14 0.0015 
153 1 1 -0.0343224 -0.0157677 -0.102252 0 0 0 -0.705536 0.108121 0.147356 0 0 -0.000346714 -107.869 -228.934 95.2028 0.0015 
157 1 1 -0.0238414 -0.00945939 -0.106288 0 0 0 -0.720722 -0.0954644 -0.211196 0 0 -0.00160516 -143.759 -147.127 -44.6982 0.0025 
150 1 1 -0.0290115 -0.00542638 -0.104116 0 0 0 -0.586293 -0.0855 -0.00654258 0 0 -0.000346714 -222.778 -463.567 168.636 0.0015 
190 1 1 -0.015195 0.00881496 -0.108466 0 0 0 -0.749428 -0.0168576 0.220841 0 0 -0.000346714 8.5455 -379.902 -1.22236e-17 0.0015 
151 1 1 -0.0338268 0.0193945 -0.103358 0 0 0 -0.730455 -0.170603 -0.143022 0 0 -0.000346714 87.8954 -376.333 -1.05237e-14 0.0015 
133 1 1 -0.0590971 0.0240147 -0.102321 0 0 0 -0.751423 -0.139775 0.116388 0 0 -0.000346714 165.241 -151.591 -75.0859 0.0015 
61 1 1 -0.0149989 0.055305 -0.103929 0 0 0 -0.109421 0.270971 0.0409133 -7.73908e-05 -6.12208e-05 -4.90879e-05 -244.499 -115.25 109.404 0.0015 
182 1 1 -0.0115831 -0.031022 -0.0998892 0 0 0 -0.692998 0.253522 0.130607 0 0 -0.00160516 -78.25 -213.895 1.02045e-13 0.0025 
188 1 1 -0.0208741 -0.0263316 -0.112472 0 0 0 -0.507442 0.181472 -0.0376124 0 0 -0.000346714 -65.3932 -330.809 -94.9785 0.0015 
142 1 1 -0.0191804 -0.0209466 -0.11104 0 0 0 0.0427278 0.0325421 -0.961776 0 0 -0.00160516 90.0839 14.5013 0.21467 0.0025 
169 1 1 -0.0421593 -0.0133434 -0.109553 0 0 0 -0.841792 0.274875 -0.984026 0 0 -0.00160516 -115.734 -273.565 -18.3324 0.0025 
134 1 1 -0.0395364 0.0221423 -0.100099 0 0 0 -0.378435 0.170477 -0.118891 0 0 -0.000346714 -203.412 441.886 -62.7026 0.0015 
170 1 1 -0.0137122 0.0171351 -0.101952 0 0 0 -0.405324 -0.153706 -0.162492 0 0 -0.00160516 53.6813 -262.807 -7.77067 0.0025 
89 1 1 -0.0655453 0.0281097 -0.099965 0 0 0 -0.5528 0.273197 -0.0981482 0 0 -0.000346714 -314.22 -140.985 -64.0011 0.0015 
187 1 1 -0.0265401 0.0263971 -0.114187 0 0 0 -0.721234 -0.2348 0.259431 0 0 -0.000346714 119.521 -367.133 -2.96941e-14 0.0015 
200 1 1 -0.0218415 -0.0298834 -0.111005 0 0 0 -0.598424 -0.625402 -0.389355 0 0 -0.000346714 498.883 135.224 258.025 0.0015 
45 1 1 -0.102399 -0.0131731 -0.0974509 0 0 0 -0.806305 -0.42317 0.0270611 0 0 -0.000346714 389.887 -152.585 -138.964 0.0015 
189 1 1 -0.0257403 0.017155 -0.107651 0 0 0 -1.39173 -0.128114 -1.02286 0 0 -0.000346714 -14.4434 -355.214 -59.3765 0.0015 
195 1 1 -0.00333969 -0.0186442 -0.103167 0 0 0 -0.711467 0.127121 0.253435 0 0 -0.00160516 -38.8351 -217.352 3.02888e-14 0.0025 
204 1 1 -0.0140118 -0.00493737 -0.111807 0 0 0 -0.938495 0.273813 -0.00729574 0 0 -0.000346714 -208.54 -581.827 26.0516 0.0015 
198 1 1 -0.0278654 0.00172744 -0.113663 0 0 0 0 0 -2.05207 0 0 -0.000346714 0 0 0 0.0015 
196 1 1 -0.0173269 -0.0294256 -0.109191 0 0 0 0 0 -2.03059 0 0 -0.00160516 0 0 0 0.0025 
205 1 1 -0.00617217 -0.0242808 -0.106621 0 0 0 -0.716609 0.263082 0.241128 0 0 -0.000346714 -136.781 -372.577 -3.71052e-14 0.0015 
193 1 1 -0.0232114 -0.0230043 -0.106276 0 0 0 0 0 -2.01646 0 0 -0.00160516 0 0 0 0.0025 
197 1 1 -0.0244014 0.0243576 -0.107286 0 0 0 0 0 -2.02137 0 0 -0.000346714 0 0 0 0.0015 
203 1 1 -0.0317899 0.0348276 -0.107795 0 0 0 0 0 -2.02382 0 0 -0.000346714 0 0 0 0.0015 
201 1 1 -0.00148336 -0.00863773 -0.10372 0 0 0 0 0 -2.004 0 0 -0.000346714 0 0 0 0.0015 
202 1 1 -0.00237574 0.0349629 -0.101779 0 0 0 0 0 -1.99449 0 0 -0.000346714 0 0 0 0.0015 
194 1 1 -0.0299737 -0.0249092 -0.0996304 0 0 0 0 0 -1.98389 0 0 -0.00160516 0 0 0 0.0025 
199 1 1 -0.0209901 0.00167617 -0.100135 0 0 0 0 0 -1.98635 0 0 -0.000346714 0 0 0 0.0015 
212 1 1 -0.0118483 0.00949823 -0.0935126 0 0 0 0 0 -1.95338 0 0 -0.000346714 0 0 0 0.0015 
215 1 1 -0.0133438 0.0300767 -0.094192 0 0 0 0 0 -1.95682 0 0 -0.000346714 0 0 0 0.0015 
216 1 1 -0.00916175 0.0316192 -0.0938412 0 0 0 0 0 -1.95505 0 0 -0.000346714 0 0 0 0.0015 
217 1 1 -0.00525173 0.0148756 -0.0912113 0 0 0 0 0 -1.94181 0 0 -0.000346714 0 0 0 0.0015 
209 1 1 -0.00795 0.0273623 -0.092384 0 0 0 0 0 -1.9477 0 0 -0.00160516 0 0 0 0.0025 
218 1 1 -0.0116971 -0.0149443 -0.0881173 0 0 0 0 0 -1.92611 0 0 -0.000346714 0 0 0 0.0015 
211 1 1 -0.0325497 0.0284222 -0.0862344 0 0 0 0 0 -1.9165 0 0 -0.000346714 0 0 0 0.0015 
206 1 1 -0.0315415 -0.0266248 -0.0829953 0 0 0 0 0 -1.89982 0 0 -0.00160516 0 0 0 0.0025 
207 1 1 -0.014731 -0.00384992 -0.0849194 0 0 0 0 0 -1.90973 0 0 -0.00160516 0 0 0 0.0025 
208 1 1 -0.0313425 0.0167345 -0.0825353 0 0 0 0 0 -1.89747 0 0 -0.00160516 0 0 0 0.0025 
210 1 1 -0.0220067 0.0311963 -0.0825548 0 0 0 0 0 -1.89757 0 0 -0.00160516 0 0 0 0.0025 
214 1 1 -0.000147874 -0.0328927 -0.0791393 0 0 0 0 0 -1.87981 0 0 -0.000346714 0 0 0 0.0015 
213 1 1 -0.0258692 -0.0150214 -0.0797777 0 0 0 0 0 -1.88315 0 0 -0.000346714 0 0 0 0.0015 
226 1 1 -0.0256746 -0.0295973 -0.0719146 0 0 0 0 0 -1.84175 0 0 -0.000346714 0 0 0 0.0015 
219 1 1 -0.0126988 -0.0187384 -0.0733239 0 0 0 0 0 -1.8492 0 0 -0.00160516 0 0 0 0.0025 
228 1 1 -0.0186146 -0.0100891 -0.0720659 0 0 0 0 0 -1.84253 0 0 -0.000346714 0 0 0 0.0015 
223 1 1 -0.0141421 0.000627184 -0.0742107 0 0 0 0 0 -1.85391 0 0 -0.000346714 0 0 0 0.0015 
227 1 1 -0.0125397 -0.025785 -0.0682878 0 0 0 0 0 -1.82232 0 0 -0.000346714 0 0 0 0.0015 
224 1 1 -0.0104339 -0.00964248 -0.0693829 0 0 0 0 0 -1.82821 0 0 -0.000346714 0 0 0 0.0015 
229 1 1 -0.0206785 0.0145985 -0.0704875 0 0 0 0 0 -1.8341 0 0 -0.000346714 0 0 0 0.0015 
230 1 1 -0.0158011 0.0337207 -0.0677042 0 0 0 0 0 -1.81918 0 0 -0.000346714 0 0 0 0.0015 
225 1 1 -0.0349321 -0.00790873 -0.0606207 0 0 0 0 0 -1.78053 0 0 -0.000346714 0 0 0 0.0015 
240 1 1 -0.0114835 -0.0265679 -0.0579245 0 0 0 0 0 -1.76562 0 0 -0.000346714 0 0 0 0.0015 
221 1 1 -0.03004 0.0154412 -0.0587561 0 0 0 0 0 -1.77023 0 0 -0.00160516 0 0 0 0.0025 
220 1 1 -0.0245784 0.0311922 -0.0577647 0 0 0 0 0 -1.76474 0 0 -0.00160516 0 0 0 0.0025 
222 1 1 -0.00133775 0.0319388 -0.0570065 0 0 0 0 0 -1.76052 0 0 -0.00160516 0 0 0 0.0025 
239 1 1 -0.004822 -0.0263713 -0.0545155 0 0 0 0 0 -1.74659 0 0 -0.000346714 0 0 0 0.0015 
231 1 1 -0.0172445 0.00368684 -0.0561747 0 0 0 0 0 -1.75591 0 0 -0.00160516 0 0 0 0.0025 
232 1 1 -0.0305153 0.021925 -0.0540426 0 0 0 0 0 -1.74394 0 0 -0.00160516 0 0 0 0.0025 
236 1 1 -0.011765 -0.0317196 -0.0499424 0 0 0 0 0 -1.72069 0 0 -0.000346714 0 0 0 0.0015 
238 1 1 -0.00523715 -0.00399455 -0.049045 0 0 0 0 0 -1.71559 0 0 -0.000346714 0 0 0 0.0015 
242 1 1 -0.024936 0.00943572 -0.0459544 0 0 0 0 0 -1.69783 0 0 -0.000346714 0 0 0 0.0015 
235 1 1 -0.00913613 0.0130219 -0.0470642 0 0 0 0 0 -1.70421 0 0 -0.000346714 0 0 0 0.0015 
241 1 1 -0.0178674 0.023228 -0.0452745 0 0 0 0 0 -1.69391 0 0 -0.000346714 0 0 0 0.0015 
243 1 1 -0.0312596 -0.0342874 -0.0416197 0 0 0 0 0 -1.67262 0 0 -0.000346714 0 0 0 0.0015 
237 1 1 -0.0276781 -0.0346784 -0.0445446 0 0 0 0 0 -1.68969 0 0 -0.000346714 0 0 0 0.0015 
234 1 1 -0.00624641 -0.0254844 -0.0449198 0 0 0 0 0 -1.69185 0 0 -0.00160516 0 0 0 0.0025 