ITEM: TIMESTEP
82000
ITEM: NUMBER OF ATOMS
818
ITEM: BOX BOUNDS ff ff ff
-0.5 0.1
-0.2 0.2
-0.4 0.15
ITEM: ATOMS id type type x y z ix iy iz vx vy vz fx fy fz omegax omegay omegaz radius 
1037 1 1 -0.0306877 0.00507864 0.0496154 0 0 0 0 0 -1.00378 0 0 -0.00160516 0 0 0 0.0025 
1047 1 1 -0.0308652 -8.69422e-05 0.0511075 0 0 0 -0 0 -1 0 0 0 0 0 0 0.0015 
1044 1 1 -0.0341814 -0.0149579 0.051285 0 0 0 -0 0 -1 0 0 0 0 0 0 0.0015 
1042 1 1 -0.0200896 -0.00473172 0.045399 0 0 0 0 0 -1.04419 0 0 -0.000346714 0 0 0 0.0015 
1045 1 1 -0.0191384 -0.00771527 0.0463657 0 0 0 0 0 -1.03507 0 0 -0.000346714 0 0 0 0.0015 
1043 1 1 -0.0324585 -0.0307642 0.0463799 0 0 0 0 0 -1.03487 0 0 -0.000346714 0 0 0 0.0015 
1040 1 1 -0.0181723 0.0181284 0.0423445 0 0 0 0 0 -1.07245 0 0 -0.000346714 0 0 0 0.0015 
201 1 1 -0.456184 0.0250427 -0.396642 0 0 0 -0.942955 0.11093 -1.78985 0 0 -0.000346714 -49.0519 -675.763 -65.0532 0.0015 
250 1 1 -0.484042 -0.0200567 -0.394188 0 0 0 -1.17414 0.0758322 -1.81556 0 0 -0.000346714 -86.4605 -854.852 76.913 0.0015 
247 1 1 -0.456466 -0.00884543 -0.396316 0 0 0 -0.932008 -0.0252074 -1.78755 0 0 -0.00160516 -1.36802 -401.64 30.0268 0.0025 
235 1 1 -0.45687 -0.00216205 -0.394736 0 0 0 -1.00864 -0.0693927 -1.85261 0 0 -0.000346714 -152.029 -399.94 40.2951 0.0015 
124 1 1 -0.458922 0.0093951 -0.396322 0 0 0 -0.985358 0.0571045 -1.79336 0 0 -0.000346714 5.29344 -290.979 -72.1655 0.0015 
109 1 1 -0.45033 -0.0132239 -0.392278 0 0 0 -0.91466 -0.0674199 -1.76353 0 0 -0.000346714 111.868 -222.572 118.383 0.0015 
154 1 1 -0.459804 0.0043011 -0.389127 0 0 0 -1.01188 -0.0476029 -1.75445 0 0 -0.000346714 70.4283 -702.067 -115.19 0.0015 
160 1 1 -0.448985 0.00514452 -0.389694 0 0 0 -0.939044 -0.00159742 -1.75774 0 0 -0.000346714 7.64473 -602.03 -83.6384 0.0015 
195 1 1 -0.455546 -0.0106407 -0.386498 0 0 0 -0.950155 -0.00245124 -1.73014 0 0 -0.00160516 -31.7349 -403.29 79.3726 0.0025 
266 1 1 -0.446837 -0.0135945 -0.386948 0 0 0 -0.905617 -0.0577355 -1.73431 0 0 -0.000346714 38.2168 -563.275 170.727 0.0015 
118 1 1 -0.467637 0.0142176 -0.382814 0 0 0 -1.03421 0.0750674 -1.70693 0 0 -0.00160516 -67.2787 -209.567 -20.9341 0.0025 
369 1 1 -0.460604 0.0176638 -0.385084 0 0 0 -0.97837 0.0760865 -1.71258 0 0 -0.000346714 -49.8506 -521.834 -142.143 0.0015 
252 1 1 -0.44175 -0.0135195 -0.379705 0 0 0 -0.966088 -0.253625 -1.81369 0 0 -0.000346714 -163.922 -529.897 -271.472 0.0015 
223 1 1 -0.455957 -0.00731287 -0.380335 0 0 0 -0.96782 -0.0410256 -1.68487 0 0 -0.000346714 -14.4538 -65.868 -23.1529 0.0015 
134 1 1 -0.459362 0.0024927 -0.379905 0 0 0 -1.07764 -0.0198744 -1.66029 0 0 -0.000346714 162.244 -619.846 -30.5923 0.0015 
261 1 1 -0.479729 -0.0118743 -0.378469 0 0 0 -1.2512 0.216315 -1.76375 0 0 -0.000346714 -219.487 -908.675 154.103 0.0015 
286 1 1 -0.471474 -0.0024089 -0.377628 0 0 0 -1.21349 -0.123161 -1.72127 0 0 -0.00160516 61.1949 -526.834 -17.8641 0.0025 
251 1 1 -0.448399 0.0041042 -0.376444 0 0 0 -0.934641 0.0370445 -1.66458 0 0 -0.000346714 -45.3533 -548.355 12.8843 0.0015 
222 1 1 -0.471325 0.00628401 -0.375039 0 0 0 -1.23249 -0.0927185 -1.71616 0 0 -0.00160516 99.848 -516.788 -138.809 0.0025 
226 1 1 -0.452676 -0.0127188 -0.370812 0 0 0 -1.04074 0.0779308 -1.66367 0 0 -0.000346714 -50.6944 -756.811 -10.2526 0.0015 
271 1 1 -0.451783 0.00683553 -0.370922 0 0 0 -1.05338 0.020287 -1.6655 0 0 -0.00160516 -14.5474 -428.222 3.29529 0.0025 
209 1 1 -0.443652 -0.0103117 -0.367454 0 0 0 -1.01483 -0.0174525 -1.66356 0 0 -0.00160516 98.5795 -406.85 75.5558 0.0025 
347 1 1 -0.468792 0.00664706 -0.369676 0 0 0 -1.25149 -0.0653268 -1.68272 0 0 -0.00160516 39.0311 -548.399 12.5517 0.0025 
295 1 1 -0.45123 -0.0149236 -0.363518 0 0 0 -1.06351 0.0795044 -1.6219 0 0 -0.000346714 -112.987 -745.537 141.606 0.0015 
306 1 1 -0.424132 -0.0117927 -0.366562 0 0 0 -0.871024 0.118056 -1.73027 0 0 -0.000346714 94.844 -482.578 110.526 0.0015 
299 1 1 -0.447751 -0.000494435 -0.36442 0 0 0 -1.01317 -0.00117368 -1.60276 0 0 -0.00160516 -65.3735 -59.9917 -34.7802 0.0025 
279 1 1 -0.432851 -0.00199427 -0.364251 0 0 0 -0.94014 -0.0255148 -1.6204 0 0 -0.000346714 -1.3844 -567.547 17.515 0.0015 
278 1 1 -0.427963 -0.00633736 -0.360044 0 0 0 -0.916566 0.0058572 -1.59678 0 0 -0.000346714 -189.381 -627.073 -31.7332 0.0015 
348 1 1 -0.465254 -0.00480637 -0.361285 0 0 0 -1.27169 -0.17924 -1.62002 0 0 -0.00160516 71.4792 -535.908 -7.71366 0.0025 
86 1 1 -0.428149 0.00433773 -0.360913 0 0 0 -0.920224 0.0337641 -1.60538 0 0 -0.000346714 123.484 -563.73 199.571 0.0015 
237 1 1 -0.44945 -0.018805 -0.35728 0 0 0 -1.11058 0.134415 -1.66459 0 0 -0.000346714 -45.5223 -775.812 54.2523 0.0015 
282 1 1 -0.429117 -0.00954916 -0.357451 0 0 0 -0.916104 -0.000669075 -1.57165 0 0 -0.000346714 155.515 -430.726 136.919 0.0015 
290 1 1 -0.433936 0.00389082 -0.3559 0 0 0 -0.952515 -0.000298131 -1.55292 0 0 -0.000346714 -18.9022 -634.161 -97.4314 0.0015 
238 1 1 -0.453989 -0.0291325 -0.354951 0 0 0 -1.10168 -0.0112723 -1.56395 0 0 -0.000346714 -29.0566 -782.247 111.447 0.0015 
176 1 1 -0.439135 -0.0185724 -0.352759 0 0 0 -0.996804 0.0387971 -1.54317 0 0 -0.000346714 -17.5264 -731.744 -22.2109 0.0015 
207 1 1 -0.448994 -0.0160887 -0.351813 0 0 0 -1.07882 -0.0285322 -1.51597 0 0 -0.00160516 -16.2793 -407.085 136.478 0.0025 
257 1 1 -0.450412 -0.00938772 -0.349612 0 0 0 -1.16755 0.0984439 -1.58827 0 0 -0.00160516 -31.9636 -310.666 80.7113 0.0025 
236 1 1 -0.424294 -0.00549948 -0.351053 0 0 0 -0.89147 0.0898722 -1.52685 0 0 -0.000346714 168.762 -139.541 125.842 0.0015 
170 1 1 -0.443732 -0.000332474 -0.350764 0 0 0 -1.07789 0.0746029 -1.60856 0 0 -0.00160516 46.1816 -381.152 56.248 0.0025 
277 1 1 -0.460748 -0.0118713 -0.345263 0 0 0 -1.28296 0.258399 -1.52503 0 0 -0.000346714 -265.187 -765.948 250.678 0.0015 
303 1 1 -0.42512 -0.0088342 -0.347099 0 0 0 -0.932948 -0.0197277 -1.49978 0 0 -0.000346714 96.2072 -653.206 -27.4599 0.0015 
323 1 1 -0.434667 0.00986671 -0.346396 0 0 0 -1.03286 -0.0125455 -1.53855 0 0 -0.00160516 -20.4546 -433.105 -12.3153 0.0025 
390 1 1 -0.443237 -0.00695178 -0.340953 0 0 0 -1.1339 0.11641 -1.31704 0 0 -0.000346714 -65.1303 -639.642 103.981 0.0015 
350 1 1 -0.44293 -0.0030294 -0.342141 0 0 0 -1.1094 0.128703 -1.41969 0 0 -0.00160516 -49.6277 -427.843 115.058 0.0025 
275 1 1 -0.432867 -0.00188128 -0.341654 0 0 0 -1.08071 0.107591 -1.48336 0 0 -0.000346714 -101.324 -786.506 49.8113 0.0015 
220 1 1 -0.432405 0.0137845 -0.343874 0 0 0 -1.04119 -0.00181941 -1.51022 0 0 -0.00160516 -20.2055 -363.597 -111.511 0.0025 
264 1 1 -0.445927 0.0256465 -0.34255 0 0 0 -1.19427 0.0406466 -1.50254 0 0 -0.000346714 101.853 -817.084 -311.517 0.0015 
291 1 1 -0.459776 -0.00461176 -0.334346 0 0 0 -1.29096 0.221328 -1.38465 0 0 -0.000346714 -197.966 -656.204 251.766 0.0015 
242 1 1 -0.441202 -0.00326443 -0.333529 0 0 0 -1.04064 0.104259 -1.35585 0 0 -0.000346714 -75.309 -591.385 67.6381 0.0015 
125 1 1 -0.430671 0.000190115 -0.335806 0 0 0 -1.0767 0.0633814 -1.42914 0 0 -0.000346714 -44.9976 -776.377 -1.41193 0.0015 
240 1 1 -0.435375 0.000357858 -0.331339 0 0 0 -1.20438 0.177482 -1.42731 0 0 -0.000346714 -117.81 -878.802 -24.1288 0.0015 
327 1 1 -0.424654 0.00750872 -0.330913 0 0 0 -1.04841 0.119123 -1.39181 0 0 -0.000346714 -74.6471 -759.05 -26.7064 0.0015 
230 1 1 -0.430986 0.00742094 -0.333021 0 0 0 -1.13289 -0.0678747 -1.42936 0 0 -0.000346714 67.8075 -824.467 -43.4022 0.0015 
248 1 1 -0.412706 0.0121338 -0.327403 0 0 0 -0.950919 0.180702 -1.38442 0 0 -0.000346714 -110.923 -361.481 194.746 0.0015 
241 1 1 -0.422621 0.020448 -0.323698 0 0 0 -1.07831 -0.00936219 -1.36032 0 0 -0.000346714 -15.6061 -802.971 51.4179 0.0015 
142 1 1 -0.41393 -0.00910345 -0.3184 0 0 0 -1.04583 0.00611226 -1.33703 0 0 -0.00160516 -55.8784 -433.06 -27.5699 0.0025 
343 1 1 -0.419613 -0.00538147 -0.320341 0 0 0 -1.08991 0.0222555 -1.3201 0 0 -0.000346714 -31.4121 -783.452 37.8496 0.0015 
356 1 1 -0.424476 0.016948 -0.320894 0 0 0 -1.1626 -0.0126764 -1.34889 0 0 -0.000346714 36.4979 -841.994 -65.4061 0.0015 
393 1 1 -0.444121 -0.0472024 -0.317769 0 0 0 -1.31593 0.0442641 -1.4325 0 0 -0.000346714 -136.758 -884.306 309.158 0.0015 
162 1 1 -0.403925 -0.000491662 -0.314698 0 0 0 -0.998759 0.0373586 -1.31553 0 0 -0.000346714 -127.94 -589.048 120.159 0.0015 
302 1 1 -0.411778 0.00999069 -0.318099 0 0 0 -1.01327 0.000186501 -1.33872 0 0 -0.000346714 -64.8653 -706.536 42.5242 0.0015 
337 1 1 -0.44471 0.0126671 -0.315492 0 0 0 -1.25504 -0.0756442 -1.1571 0 0 -0.000346714 -9.93597 -637.522 -306.722 0.0015 
313 1 1 -0.411438 0.0116765 -0.314857 0 0 0 -1.06784 -0.0098394 -1.26265 0 0 -0.000346714 -40.456 -715.41 -4.50183 0.0015 
361 1 1 -0.428032 0.0291112 -0.317049 0 0 0 -1.15682 -0.12469 -1.377 0 0 -0.00160516 53.1964 -560.58 13.1249 0.0025 
297 1 1 -0.413496 -0.00346955 -0.311268 0 0 0 -1.07118 0.025485 -1.23213 0 0 -0.00160516 12.5466 -434.091 -11.8533 0.0025 
406 1 1 -0.408706 -0.00438243 -0.312856 0 0 0 -1.05576 0.0796117 -1.30464 0 0 -0.000346714 185.75 -497.727 -5.45739 0.0015 
254 1 1 -0.40583 0.00393353 -0.312252 0 0 0 -0.990815 0.0106039 -1.24854 0 0 -0.000346714 9.51715 -716.54 -40.5685 0.0015 
423 1 1 -0.419818 -0.0249306 -0.308876 0 0 0 -1.12441 0.179185 -1.29395 0 0 -0.000346714 -221.768 -755.597 243.854 0.0015 
146 1 1 -0.400533 -0.0146103 -0.308834 0 0 0 -0.895098 0.127603 -1.23045 0 0 -0.000346714 -115.447 -643.49 55.929 0.0015 
227 1 1 -0.404291 -0.00970998 -0.310017 0 0 0 -0.979694 0.0386089 -1.243 0 0 -0.000346714 -111.597 -695.685 62.2439 0.0015 
381 1 1 -0.402096 -0.00384078 -0.310636 0 0 0 -1.04625 -0.0169456 -1.28788 0 0 -0.000346714 -72.4212 190.556 -56.8082 0.0015 
284 1 1 -0.403498 -7.61371e-05 -0.307748 0 0 0 -0.999661 -0.00388339 -1.23769 0 0 -0.00160516 31.9142 -421.325 -7.82031 0.0025 
318 1 1 -0.389505 -0.00334392 -0.307443 0 0 0 -0.924629 -0.006537 -1.25831 0 0 -0.000346714 42.9014 -204.632 91.2436 0.0015 
316 1 1 -0.413662 0.0149183 -0.309325 0 0 0 -1.11994 -0.0180026 -1.23832 0 0 -0.000346714 64.7908 -774.002 -147.916 0.0015 
367 1 1 -0.40688 -0.0116349 -0.30521 0 0 0 -1.07867 0.23673 -1.25122 0 0 -0.000346714 -237.907 -748.841 165.515 0.0015 
384 1 1 -0.400628 -0.010489 -0.304736 0 0 0 -0.965859 0.0791716 -1.19395 0 0 -0.000346714 -107.676 -717.006 -0.409174 0.0015 
234 1 1 -0.405409 -0.00527354 -0.303478 0 0 0 -1.06469 0.0849751 -1.18341 0 0 -0.00160516 -49.9518 -415.955 35.4847 0.0025 
342 1 1 -0.401745 -0.0022086 -0.304017 0 0 0 -0.949916 0.091125 -1.10165 0 0 -0.000346714 -171.115 -581.607 246.47 0.0015 
292 1 1 -0.400986 -0.00615771 -0.29916 0 0 0 -1.09081 0.00665254 -1.15143 0 0 -0.000346714 18.9016 -790.098 -57.2001 0.0015 
263 1 1 -0.406971 -0.000423197 -0.300823 0 0 0 -1.10003 0.0495227 -1.12204 0 0 -0.000346714 40.1686 -693.478 -153.089 0.0015 
353 1 1 -0.390905 -0.00152487 -0.299561 0 0 0 -0.991431 -0.0950149 -1.13314 0 0 -0.000346714 -47.9687 -543.939 62.4383 0.0015 
374 1 1 -0.389336 0.00328412 -0.301769 0 0 0 -0.855857 -0.0367162 -1.18956 0 0 -0.00160516 15.2676 -140.923 -24.6276 0.0025 
328 1 1 -0.403271 0.0140213 -0.300068 0 0 0 -1.10912 -0.330733 -1.25602 0 0 -0.000346714 330.172 -771.887 -194.782 0.0015 
294 1 1 -0.399599 -0.0157854 -0.296542 0 0 0 -1.07269 0.0683177 -1.14183 0 0 -0.000346714 -27.3602 -793.48 -54.3081 0.0015 
231 1 1 -0.39414 -0.0104467 -0.295918 0 0 0 -1.00743 0.0439715 -1.15066 0 0 -0.00160516 -90.9023 -417.055 46.7957 0.0025 
285 1 1 -0.393872 -0.000908761 -0.296049 0 0 0 -1.0151 0.0439018 -1.13654 0 0 -0.00160516 36.7957 -376.608 52.9537 0.0025 
308 1 1 -0.398794 0.000517182 -0.299274 0 0 0 -1.0444 0.00880814 -1.18774 0 0 -0.00160516 26.3483 -342.515 7.59896 0.0025 
255 1 1 -0.385704 0.00622575 -0.294702 0 0 0 -0.840776 -0.0075303 -1.0953 0 0 -0.000346714 -37.2087 -589.374 62.4241 0.0015 
524 1 1 -0.400771 0.0140932 -0.296999 0 0 0 -1.13433 -0.0985662 -1.16796 0 0 -0.000346714 183.127 -782.884 -261.246 0.0015 
320 1 1 -0.392047 0.0202537 -0.296883 0 0 0 -0.980725 0.0957338 -1.13275 0 0 -0.000346714 -130.611 -741.905 96.6361 0.0015 
399 1 1 -0.399531 0.00126956 -0.292261 0 0 0 -1.19817 -0.0329601 -1.10965 0 0 -0.00160516 20.5402 -497.571 -10.3015 0.0025 
331 1 1 -0.385558 0.00871456 -0.293032 0 0 0 -0.966881 0.0143958 -1.09132 0 0 -0.000346714 40.4535 -577.626 -84.5239 0.0015 
246 1 1 -0.392133 0.0113838 -0.29398 0 0 0 -0.952532 0.0291249 -1.08741 0 0 -0.00160516 -22.868 -403.019 8.07513 0.0025 
365 1 1 -0.385281 0.0130252 -0.293744 0 0 0 -1.02746 0.0205339 -1.21847 0 0 -0.000346714 -72.0759 -569.245 -49.7021 0.0015 
61 1 1 -0.388924 -0.00874892 -0.289271 0 0 0 -1.03921 -0.0496302 -1.08833 0 0 -0.000346714 -136.919 -519.493 -43.1392 0.0015 
336 1 1 -0.395096 -0.00474295 -0.290208 0 0 0 -1.07474 0.0715256 -1.03547 0 0 -0.00160516 -42.4465 -400.526 8.69038 0.0025 
229 1 1 -0.384776 -0.00250629 -0.288021 0 0 0 -0.989994 -0.0373241 -1.03813 0 0 -0.000346714 33.3345 -714.915 -4.44825 0.0015 
366 1 1 -0.381056 0.00508549 -0.288943 0 0 0 -1.01022 -0.0671947 -1.10914 0 0 -0.000346714 53.2509 -616.885 -75.1294 0.0015 
301 1 1 -0.395876 0.0321644 -0.289215 0 0 0 -1.06247 0.0736182 -1.07491 0 0 -0.000346714 35.6289 -726.739 -223.249 0.0015 
141 1 1 -0.38977 -0.025093 -0.285256 0 0 0 -1.06731 -0.0409471 -1.03576 0 0 -0.000346714 82.8422 -806.273 -125.39 0.0015 
386 1 1 -0.385878 -0.0070617 -0.285842 0 0 0 -1.04969 -0.0868821 -1.1005 0 0 -0.00160516 -0.179146 -357.679 -31.8028 0.0025 
330 1 1 -0.383587 0.00785242 -0.285687 0 0 0 -0.926423 -0.0433874 -1.02793 0 0 -0.000346714 -4.7065 -622.086 -26.8567 0.0015 
368 1 1 -0.401974 -0.0426197 -0.282658 0 0 0 -1.139 0.0851428 -1.10643 0 0 -0.000346714 -52.1039 -909.765 -27.9697 0.0015 
307 1 1 -0.377922 -0.00903121 -0.282085 0 0 0 -1.00298 0.0276664 -1.02377 0 0 -0.000346714 57.237 -739.71 33.304 0.0015 
357 1 1 -0.376813 -0.00564425 -0.28053 0 0 0 -0.948937 0.0472253 -0.95037 0 0 -0.000346714 -14.0961 -655.801 -16.0175 0.0015 
283 1 1 -0.389176 0.0099458 -0.282621 0 0 0 -1.18492 -0.0774851 -1.01617 0 0 -0.00160516 47.8238 -482.779 -32.1141 0.0025 
402 1 1 -0.379559 -0.018775 -0.278742 0 0 0 -0.963623 -0.022999 -0.962495 0 0 -0.00160516 -12.237 -408.569 42.899 0.0025 
280 1 1 -0.377134 -0.010053 -0.27614 0 0 0 -1.01694 0.097405 -0.921506 0 0 -0.000346714 -29.7641 -662.596 145.892 0.0015 
319 1 1 -0.373835 -0.0102992 -0.275515 0 0 0 -0.993003 -0.0183283 -0.910878 0 0 -0.000346714 0.828004 -713.986 30.6998 0.0015 
429 1 1 -0.384844 -0.00811575 -0.276036 0 0 0 -1.15633 -0.267684 -0.624888 0 0 -0.000346714 121.174 -480.207 -125.464 0.0015 
391 1 1 -0.370374 -0.00654426 -0.276243 0 0 0 -0.873022 0.00763356 -0.899226 0 0 -0.000346714 14.4072 -625.247 -52.8278 0.0015 
354 1 1 -0.368098 0.00858451 -0.279785 0 0 0 -0.906089 0.0511845 -1.06442 0 0 -0.000346714 7.59219 -581.922 134.497 0.0015 
388 1 1 -0.390028 -0.0445896 -0.272652 0 0 0 -1.02226 0.0213855 -0.975986 0 0 -0.00160516 -54.5804 -419.683 125.789 0.0025 
317 1 1 -0.380139 -0.0150433 -0.275226 0 0 0 -1.12112 0.0530913 -0.894358 0 0 -0.000346714 -7.35626 -781.634 -36.7645 0.0015 
267 1 1 -0.369222 -0.0104784 -0.272337 0 0 0 -0.99715 0.0767359 -0.908266 0 0 -0.000346714 -55.9497 -649.947 108.712 0.0015 
304 1 1 -0.368261 -0.00476589 -0.273847 0 0 0 -0.878616 0.029203 -0.881794 0 0 -0.000346714 -48.6808 -624.488 79.2606 0.0015 
273 1 1 -0.373376 0.00376288 -0.273774 0 0 0 -1.06617 -0.00692133 -0.946372 0 0 -0.00160516 -57.5985 -437.382 -23.1646 0.0025 
532 1 1 -0.383408 0.0126628 -0.27536 0 0 0 -1.36195 -0.233836 -1.04968 0 0 -0.00160516 127.35 -589.89 -57.2917 0.0025 
360 1 1 -0.37332 0.0214208 -0.279415 0 0 0 -1.00422 -0.634138 -1.34278 0 0 -0.00160516 350.348 -427.785 -113.242 0.0025 
314 1 1 -0.369849 -0.0140059 -0.267783 0 0 0 -1.07896 0.0152871 -0.816891 0 0 -0.000346714 -21.2417 -744.232 63.9338 0.0015 
288 1 1 -0.369437 -0.0055887 -0.270937 0 0 0 -1.02821 0.0822793 -0.858625 0 0 -0.000346714 -71.4643 -725.07 29.3843 0.0015 
334 1 1 -0.367193 -0.000793949 -0.268479 0 0 0 -1.02501 0.103027 -0.850706 0 0 -0.00160516 -58.9995 -441.514 34.8504 0.0025 
335 1 1 -0.372803 0.00869289 -0.270328 0 0 0 -1.10702 0.0105592 -0.847798 0 0 -0.00160516 -12.0329 -449.999 -12.4168 0.0025 
457 1 1 -0.377298 0.016261 -0.271604 0 0 0 -1.34465 -0.167901 -0.991826 0 0 -0.000346714 184.897 -960.064 -145.846 0.0015 
441 1 1 -0.384203 0.035851 -0.270636 0 0 0 -1.1614 -0.108414 -0.994074 0 0 -0.00160516 60.9912 -541.855 -26.4465 0.0025 
333 1 1 -0.373274 -0.0224113 -0.266875 0 0 0 -1.13547 0.118197 -0.885441 0 0 -0.00160516 -76.4591 -484.994 67.3674 0.0025 
377 1 1 -0.359538 0.00200101 -0.265275 0 0 0 -0.922056 0.0071705 -0.769271 0 0 -0.000346714 -17.5486 -373.446 74.0245 0.0015 
345 1 1 -0.362064 0.00632354 -0.267039 0 0 0 -0.992938 0.0533018 -0.833496 0 0 -0.000346714 135.945 -740.577 -81.4948 0.0015 
414 1 1 -0.360468 -0.014352 -0.261469 0 0 0 -1.04996 0.0132779 -0.775189 0 0 -0.00160516 5.28957 -464.051 -27.1016 0.0025 
300 1 1 -0.35635 0.00391615 -0.263297 0 0 0 -0.899221 0.107675 -0.747251 0 0 -0.000346714 -101.819 -644.892 57.3879 0.0015 
434 1 1 -0.36269 -0.0324612 -0.25695 0 0 0 -1.18965 0.0055621 -0.770184 0 0 -0.000346714 -53.1996 -846.882 133.107 0.0015 
527 1 1 -0.351938 -0.0140868 -0.257198 0 0 0 -0.903187 0.130506 -0.678886 0 0 -0.000346714 -16.6517 -388.207 255.72 0.0015 
421 1 1 -0.349408 -0.00691781 -0.258278 0 0 0 -0.955197 0.0660324 -0.751319 0 0 -0.000346714 29.3133 -567.249 45.1051 0.0015 
363 1 1 -0.346416 -0.00399972 -0.255686 0 0 0 -0.950669 0.0962299 -0.68145 0 0 -0.000346714 -164.879 -661.874 41.2521 0.0015 
397 1 1 -0.349494 -6.97563e-05 -0.256923 0 0 0 -0.976189 0.145533 -0.680149 0 0 -0.000346714 -109.713 -703.11 11.6296 0.0015 
379 1 1 -0.343764 0.00489216 -0.259237 0 0 0 -0.915902 0.0127206 -0.87614 0 0 -0.000346714 -170.313 -242.254 -270.096 0.0015 
298 1 1 -0.351773 0.00677529 -0.257282 0 0 0 -1.08743 -0.227632 -0.961165 0 0 -0.00160516 -43.7125 -353.367 -138.407 0.0025 
352 1 1 -0.351764 0.012003 -0.257298 0 0 0 -1.09921 -0.0522168 -0.734225 0 0 -0.000346714 91.1947 -783.681 -125.386 0.0015 
329 1 1 -0.35334 0.0166337 -0.257154 0 0 0 -1.12647 -0.0593523 -0.750764 0 0 -0.000346714 67.128 -817.149 -56.5775 0.0015 
449 1 1 -0.353056 0.0213232 -0.257077 0 0 0 -0.988955 0.0671938 -0.701548 0 0 -0.000346714 45.2831 -683.385 -223.787 0.0015 
439 1 1 -0.352057 -0.0197267 -0.25456 0 0 0 -0.946617 0.0515573 -0.664065 0 0 -0.00160516 -15.5989 -413.069 -13.302 0.0025 
488 1 1 -0.344224 -0.0132235 -0.25228 0 0 0 -0.97014 0.119133 -0.625074 0 0 -0.000346714 -137.755 -682.413 127.45 0.0015 
459 1 1 -0.346529 -0.0124929 -0.255654 0 0 0 -0.93126 0.00779211 -0.722012 0 0 -0.000346714 -156.274 -529.42 37.0157 0.0015 
419 1 1 -0.34561 -0.0103306 -0.252085 0 0 0 -1.04107 5.18191e-05 -0.570023 0 0 -0.000346714 -116.262 -615.21 -32.0712 0.0015 
454 1 1 -0.348705 -0.00820425 -0.254352 0 0 0 -1.02425 0.0911232 -0.619634 0 0 -0.000346714 -55.9482 -647.318 251.146 0.0015 
340 1 1 -0.344691 -0.00731266 -0.252696 0 0 0 -1.03985 0.0295768 -0.610115 0 0 -0.000346714 -33.2212 -757.69 23.0806 0.0015 
424 1 1 -0.343664 0.000759061 -0.25328 0 0 0 -0.834863 0.00908764 -0.611442 0 0 -0.00160516 8.67845 -323.241 -26.8532 0.0025 
326 1 1 -0.339259 0.00300531 -0.255879 0 0 0 -0.776952 0.0334873 -0.838378 0 0 -0.000346714 -99.7691 -171.646 -91.4587 0.0015 
408 1 1 -0.339284 0.000537269 -0.25291 0 0 0 -0.883814 0.0444441 -0.654844 0 0 -0.000346714 123.852 -217.429 168.083 0.0015 
389 1 1 -0.34975 0.010373 -0.254221 0 0 0 -1.27575 -0.110748 -0.728982 6.30082e-05 0.00024542 -0.00168556 -245.021 -224.035 -199.763 0.0025 
370 1 1 -0.343615 0.0109658 -0.25169 0 0 0 -1.02142 0.0692784 -0.567899 0 0 -0.000346714 -138.426 -666.057 75.7744 0.0015 
324 1 1 -0.347508 0.0148108 -0.253702 0 0 0 -0.977478 -0.268496 -0.629194 -6.30082e-05 -0.00024542 -0.00152476 90.5868 -407.41 -57.4266 0.0025 
395 1 1 -0.351115 -0.029158 -0.251844 0 0 0 -1.1364 0.0451382 -0.701422 0 0 -0.000346714 -77.3425 -815.597 112.538 0.0015 
260 1 1 -0.355516 -0.0146691 -0.25056 0 0 0 -1.07794 0.111265 -0.656929 0 0 -0.00160516 32.4811 -22.1708 -34.201 0.0025 
436 1 1 -0.341359 -0.00922076 -0.250663 0 0 0 -1.09994 0.0821317 -0.62233 0 0 -0.000346714 -42.799 -789.878 -38.6447 0.0015 
407 1 1 -0.342623 -0.00375569 -0.249228 0 0 0 -0.835228 -0.00719486 -0.439493 0 0 -0.000346714 151.177 -528.307 -134.081 0.0015 
467 1 1 -0.33759 0.00146216 -0.24787 0 0 0 -1.03237 0.116529 -0.520069 0 0 -0.000346714 222.266 152.253 158.75 0.0015 
373 1 1 -0.340975 0.00359857 -0.249454 0 0 0 -1.09096 0.0426217 -0.562274 0 0 -0.00160516 76.8342 -384.686 30.3288 0.0025 
322 1 1 -0.34457 0.0068238 -0.251782 0 0 0 -1.09748 0.0169659 -0.704485 0 0 -0.00160516 16.4515 -374.139 25.8989 0.0025 
358 1 1 -0.329906 -0.0150838 -0.244035 0 0 0 -1.13967 0.190323 -0.553505 0 0 -0.000346714 -146.871 -822.227 25.2334 0.0015 
394 1 1 -0.329268 -0.00827299 -0.24462 0 0 0 -0.918513 -0.0482055 -0.442499 0 0 -0.000346714 46.8051 -663.725 -27.3602 0.0015 
438 1 1 -0.33428 -0.00727936 -0.245253 0 0 0 -1.08089 -0.0993998 -0.669067 0 0 -0.00160516 92.7292 229.409 -25.7589 0.0025 
398 1 1 -0.33712 -0.00290545 -0.246868 0 0 0 -1.04244 0.0288202 -0.566179 0 0 -0.00160516 43.801 -279.212 40.7806 0.0025 
349 1 1 -0.333957 0.00272868 -0.246286 0 0 0 -0.993443 0.126314 -0.503155 0 0 -0.00160516 -60.0961 -421.421 8.47853 0.0025 
351 1 1 -0.326 0.00548606 -0.243337 0 0 0 -1.00934 -0.135556 -0.47325 0 0 -0.000346714 188.468 -719.05 -210.205 0.0015 
465 1 1 -0.353917 0.00952963 -0.251429 0 0 0 -1.01683 0.109006 -1.20568 0 0 -0.00160516 -41.1477 290.425 -68.8396 0.0025 
325 1 1 -0.330481 0.00966734 -0.24519 0 0 0 -1.06369 0.000762713 -0.526034 0 0 -0.000346714 8.84489 -770.448 -22.3751 0.0015 
375 1 1 -0.335749 0.0205241 -0.244895 0 0 0 -1.12404 -0.0465544 -0.589421 0 0 -0.00160516 25.8437 -493.558 -13.5053 0.0025 
270 1 1 -0.325823 -0.00993251 -0.241823 0 0 0 -0.941355 0.244693 -0.432246 0 0 -0.00160516 -145.343 -398.989 98.7941 0.0025 
451 1 1 -0.321629 -0.0047436 -0.240395 0 0 0 -0.933958 0.0805862 -0.381553 -0.0004076 6.35624e-05 -0.000138211 -59.2786 -399.974 60.6193 0.0025 
396 1 1 -0.32122 0.00728136 -0.24113 0 0 0 -1.06988 0.159626 -0.440829 -8.81645e-05 -1.3257e-05 -3.85256e-05 -175.486 -784.74 141.737 0.0015 
385 1 1 -0.333597 0.0246863 -0.242951 0 0 0 -1.13059 -0.0472145 -0.569428 0 0 -0.00160516 23.4442 -497.35 -7.44448 0.0025 
487 1 1 -0.321041 -0.023936 -0.237653 0 0 0 -1.12753 0.17665 -0.549483 0 0 -0.000346714 -138.722 -784.294 175.838 0.0015 
420 1 1 -0.320578 -0.0210377 -0.238978 0 0 0 -1.14249 0.178201 -0.49742 0 0 -0.000346714 -163.985 -812.747 89.4183 0.0015 
401 1 1 -0.319577 -0.0143052 -0.238694 0 0 0 -1.13461 0.173687 -0.548359 0 0 -0.00160516 -115.971 -479.949 98.4777 0.0025 
405 1 1 -0.315083 -0.00890029 -0.238573 0 0 0 -0.80231 0.0501246 -0.311118 0.000166681 -2.87935e-05 -0.000835008 -19.4749 -576.897 -39.7811 0.0015 
452 1 1 -0.329542 -0.00420687 -0.238311 0 0 0 -1.17822 0.277214 -0.500929 0 0 -0.00160516 -130.632 -255.963 -44.0763 0.0025 
378 1 1 -0.313835 -0.00316985 -0.238363 0 0 0 -0.989059 -0.0211727 -0.416794 -8.88262e-05 7.49126e-06 -3.68297e-05 -19.4871 -713.55 82.4932 0.0015 
362 1 1 -0.310851 -0.000126931 -0.236128 0 0 0 -1.02578 0.0177195 -0.433305 -0.000401665 3.80513e-05 -0.000190802 0.542007 -446.592 -19.5508 0.0025 
502 1 1 -0.320662 0.017214 -0.237932 0 0 0 -1.10906 -0.459647 -0.48374 0 0 -0.00160516 123.385 -455.62 98.0103 0.0025 
411 1 1 -0.322588 0.022346 -0.23837 0 0 0 -1.02077 -0.328906 -0.507814 0 0 -0.00160516 294.738 -376.659 -122.126 0.0025 
448 1 1 -0.31904 -0.0319668 -0.235416 0 0 0 -0.961223 0.0937684 -0.39846 -0.00154539 0.00137599 0.00339771 -122.205 -686.321 123.768 0.0015 
490 1 1 -0.306248 -0.0146988 -0.233054 0 0 0 -1.00833 0.134241 -0.4208 -0.000339576 0.000113664 -0.000325192 -57.0118 -438.484 -3.19971 0.0025 
426 1 1 -0.310289 -0.01018 -0.235285 0 0 0 -1.02568 0.0831382 -0.423883 -0.00019662 7.28144e-05 -0.000491232 -46.8825 -442.2 26.655 0.0025 
447 1 1 -0.303183 -0.00473842 -0.233814 0 0 0 -0.954118 0.00650337 -0.403006 -8.86005e-05 7.30495e-06 -3.77941e-05 40.915 -694.914 -108.079 0.0015 
312 1 1 -0.302262 0.000913866 -0.232459 0 0 0 -0.952926 -0.0433935 -0.404287 -0.000390458 -5.81504e-05 -0.000222137 33.9369 -412.372 -35.7261 0.0025 
339 1 1 -0.304609 0.0160909 -0.233226 0 0 0 -1.03945 -0.0569474 -0.444712 -8.57061e-05 -3.99559e-05 -4.22362e-05 50.0807 -759.394 -19.812 0.0015 
359 1 1 -0.314011 0.0193252 -0.235421 0 0 0 -1.0762 -0.0394768 -0.456998 -0.000403433 -0.000188316 -0.000178436 17.355 -474.324 0.112804 0.0025 
371 1 1 -0.312462 0.0236612 -0.235015 0 0 0 -1.08193 0.0201419 -0.445705 0 0 -0.000346714 31.0339 -767.614 -115.127 0.0015 
382 1 1 -0.312798 -0.0438433 -0.227998 0 0 0 -0.900546 -0.033594 -0.30937 0 0 -0.000346714 -85.1198 -554.497 308.183 0.0015 
551 1 1 -0.31043 -0.0371046 -0.229962 0 0 0 -1.12188 0.0122679 -0.497094 0 0 -0.000346714 -81.0256 -776.168 190.698 0.0015 
431 1 1 -0.300601 -0.0249444 -0.229757 0 0 0 -1.12312 0.0398053 -0.45083 -8.00932e-05 4.3355e-05 -4.78941e-05 -48.2739 -810.688 48.7291 0.0015 
376 1 1 -0.306593 -0.0202371 -0.232197 0 0 0 -1.01251 0.00630306 -0.407037 0 0 -0.00160516 -80.2623 -400.755 188.221 0.0025 
520 1 1 -0.298488 -0.0190567 -0.230195 0 0 0 -1.04769 0.0400753 -0.424724 -6.34884e-05 4.16609e-05 9.62136e-05 -175.763 -686.876 370.483 0.0015 
409 1 1 -0.294946 -0.0158819 -0.229051 0 0 0 -0.374107 0.0587852 -0.167277 0 0 -0.000346714 -11.5704 -262.734 -47.5697 0.0015 
435 1 1 -0.298431 -0.00735687 -0.231717 0 0 0 -0.838486 -0.0284239 -0.35258 -8.85462e-05 7.30422e-06 -3.7591e-05 -19.4687 -603.981 94.9905 0.0015 
383 1 1 -0.29171 -0.006644 -0.228896 0 0 0 -0.901252 -0.0169504 -0.380359 0 0 -0.000346714 33.2449 -646.228 -129.594 0.0015 
321 1 1 -0.300046 -0.00346536 -0.23145 0 0 0 -0.934557 -0.0314045 -0.393469 -0.000381313 3.13457e-05 -0.000244607 11.5286 -406.09 5.03267 0.0025 
338 1 1 -0.294426 -0.0018882 -0.230218 0 0 0 -0.978552 -0.0487811 -0.411327 1.31053e-05 -2.72007e-05 -6.63161e-05 52.544 -690.813 -26.6814 0.0015 
372 1 1 -0.300018 0.00761206 -0.231087 0 0 0 -1.02917 -0.704588 -0.481302 -0.00017939 -5.83409e-06 -0.000570258 370.612 -438.413 -151.689 0.0025 
486 1 1 -0.304424 0.0267824 -0.231067 0 0 0 -1.05675 0.0373392 -0.433746 -8.37612e-05 -3.88225e-05 -4.84683e-05 -2.82613 -764.538 -58.9521 0.0015 
512 1 1 -0.325258 0.0494712 -0.229766 0 0 0 -1.0736 0.044105 -0.381428 2.6346e-05 -7.82558e-05 -3.01498e-05 -8.82604 -450.11 -320.918 0.0015 
310 1 1 -0.309475 -0.018258 -0.228412 0 0 0 -1.13724 -0.0615406 -0.584992 0 0 -0.00160516 113.696 -38.9366 -18.3799 0.0025 
463 1 1 -0.302637 -0.0148168 -0.22765 0 0 0 -1.11619 0.00841417 -0.403206 0 0 -0.00160516 67.5671 -202.799 -17.8054 0.0025 
458 1 1 -0.291648 -0.0140892 -0.22816 0 0 0 -0.963117 0.0770885 -0.420436 0 0 -0.000346714 -69.7216 -527.63 74.769 0.0015 
428 1 1 -0.288867 -0.0145069 -0.226948 0 0 0 -0.958924 0.036362 -0.391376 0.0010906 -0.000126834 -0.000631371 39.3714 -196.805 -32.1069 0.0015 
425 1 1 -0.289756 -0.00932639 -0.226628 0 0 0 -0.955735 0.00674199 -0.478949 0 0 -0.00160516 -33.639 -370.96 99.5339 0.0025 
477 1 1 -0.291326 -0.0028125 -0.227715 0 0 0 -0.974339 0.0261014 -0.430251 0 0 -0.00160516 -13.9095 -388.379 -1.46179 0.0025 
346 1 1 -0.288542 0.0102987 -0.226074 0 0 0 -0.863383 -0.0142444 -0.365902 -0.000353229 -5.36969e-05 -0.000295839 8.36222 -375.507 -5.10857 0.0025 
538 1 1 -0.28251 0.0105788 -0.224614 0 0 0 -0.717401 -0.0781099 -0.300572 2.33108e-05 1.01719e-05 1.01994e-05 -16.3905 -53.2398 -31.6089 0.0015 
341 1 1 -0.294105 0.0139113 -0.229269 0 0 0 -1.09446 -0.117794 -0.479129 -8.20416e-05 -3.83401e-05 -5.00699e-05 121.383 -787.253 -83.7281 0.0015 
461 1 1 -0.294543 0.0216733 -0.227943 0 0 0 -0.98638 -0.0622744 -0.413576 -8.40733e-05 -3.83364e-05 -4.13172e-05 96.3001 -697.759 -124.611 0.0015 
586 1 1 -0.317176 -0.0519129 -0.224926 0 0 0 -1.41782 0.184569 -0.587656 0 0 -0.000346714 -190.113 -1073.73 141.902 0.0015 
309 1 1 -0.285857 -0.0146153 -0.224318 0 0 0 -0.959062 0.0720699 -0.368065 -0.000579911 3.80041e-05 -0.00175661 -52.8546 -354.781 67.0754 0.0025 
430 1 1 -0.280218 -0.01124 -0.223667 0 0 0 -1.02064 0.0420646 -0.434 -9.00469e-05 2.31271e-05 -3.38808e-05 -14.1335 -746.485 -39.1148 0.0015 
515 1 1 -0.284911 -0.00956782 -0.224734 0 0 0 -0.963492 0.0834936 -0.414441 -0.000406418 0.00010439 -0.00017972 -36.3083 -420.537 -0.31319 0.0025 
481 1 1 -0.279255 -0.0058201 -0.223683 0 0 0 -0.882177 0.00569525 -0.372366 -0.000120617 1.23988e-05 -1.0667e-05 3.11093 -639.737 -17.2152 0.0015 
456 1 1 -0.276454 -0.00145226 -0.222647 0 0 0 -0.855446 -0.00812493 -0.361639 -9.30676e-05 5.60011e-06 -1.29889e-05 80.9157 -625.814 -177.74 0.0015 
387 1 1 -0.280141 0.00117346 -0.223119 0 0 0 -0.9324 -0.0538531 -0.395554 -0.000356606 -5.32198e-05 -0.000330158 30.2427 -404.538 -16.2124 0.0025 
440 1 1 -0.283918 0.00515248 -0.224455 0 0 0 -0.960799 -0.0538057 -0.408039 -0.000353639 -5.33778e-05 -0.000315367 37.5709 -415.848 -33.6207 0.0025 
403 1 1 -0.27586 0.00711392 -0.222066 0 0 0 -0.950698 -0.0618347 -0.395573 -8.56344e-05 -1.16305e-05 -4.63597e-05 43.7144 -687.019 2.31087 0.0015 
392 1 1 -0.275875 0.0106687 -0.22187 0 0 0 -0.599482 -0.110277 -0.253715 -8.70869e-05 -1.19631e-05 -3.66671e-05 117.882 -427.94 -92.5269 0.0015 
575 1 1 -0.27921 0.0162636 -0.22232 0 0 0 -0.949228 0.0595152 -0.394799 0 0 -0.000346714 16.422 -654.072 -163.531 0.0015 
413 1 1 -0.289847 0.0192431 -0.225387 0 0 0 -1.08073 -0.0679963 -0.455905 -0.000515569 -0.000252312 0.000299408 43.7011 -468.355 -33.4078 0.0025 
498 1 1 -0.282844 -0.0294178 -0.221401 0 0 0 -0.880291 0.0234988 -0.369384 -8.09469e-05 5.36789e-05 -5.11546e-05 -114.387 -590.824 235.014 0.0015 
500 1 1 -0.270183 -0.0130695 -0.219255 0 0 0 -0.959669 -0.0317227 -0.401958 -9.2042e-05 2.47847e-05 -3.04087e-05 17.2511 -697.179 13.8322 0.0015 
344 1 1 -0.27693 -0.00681952 -0.221694 0 0 0 -0.858829 0.0891055 -0.450184 0 0 -0.000346714 110.911 -516.499 139.687 0.0015 
468 1 1 -0.267472 -0.00302608 -0.218814 0 0 0 -0.96852 0.0590281 -0.412517 -0.000112479 1.00335e-05 5.15409e-06 -69.0215 -699.726 61.8759 0.0015 