ITEM: TIMESTEP
25200
ITEM: NUMBER OF ATOMS
332
ITEM: BOX BOUNDS ff ff ff
-0.5 0.1
-0.2 0.2
-0.4 0.15
ITEM: ATOMS id type type x y z ix iy iz vx vy vz fx fy fz omegax omegay omegaz radius 
30 1 1 -0.132828 -0.0137407 -0.160376 0 0 0 -1.00799 -0.0561783 -0.407609 -0.000537378 0.000111246 4.30223e-05 7.48323 -434.018 41.3428 0.0025 
21 1 1 -0.12931 -0.00131978 -0.160623 0 0 0 -0.915904 -0.0842539 -0.352349 -0.00664453 0.00036317 0.0262991 2.50218 -202.033 -161.138 0.0015 
2 1 1 -0.137059 0.000829421 -0.162043 0 0 0 -0.877072 0.0682256 -0.31932 0 0 -0.00160516 -23.6285 -356.495 -12.8129 0.0025 
11 1 1 -0.131713 0.0011499 -0.161412 0 0 0 -0.94161 -0.138786 -0.359304 0 0 -0.000346714 -30.0724 -676.053 280.88 0.0015 
31 1 1 -0.127991 0.010369 -0.159532 0 0 0 -0.996925 0.198962 -0.418742 0 0 -0.000346714 -55.0742 -708.035 -212.316 0.0015 
18 1 1 -0.134942 0.0161598 -0.162024 0 0 0 -0.884478 -0.199548 -0.373287 -6.64013e-06 -2.17174e-06 -0.000340825 126.88 -645.712 41.8693 0.0015 
36 1 1 -0.127155 -0.0309374 -0.156542 0 0 0 -0.982299 0.0246348 -0.415701 -8.88494e-05 4.64623e-05 -3.44039e-05 -75.2905 -694.505 136.748 0.0015 
4 1 1 -0.126684 -0.00651071 -0.158283 0 0 0 -0.859022 -0.0496825 -0.354198 -0.000277477 2.41943e-05 -0.000448603 28.6025 -372.617 -16.9541 0.0025 
10 1 1 -0.127106 -0.000447835 -0.158837 0 0 0 -0.856481 -0.0687107 -0.457791 0.00951482 0.00583591 0.0214333 -116.989 36.2559 69.0695 0.0015 
6 1 1 -0.123884 0.0030877 -0.158228 0 0 0 -0.751151 0.000888252 -0.381828 0 0 -0.000346714 -142.204 -405.5 91.0229 0.0015 
8 1 1 -0.120393 0.000692523 -0.156397 0 0 0 -0.744796 0.0365241 -0.226128 0 0 -0.000346714 62.8708 -507.893 -198.594 0.0015 
24 1 1 -0.121718 0.00498457 -0.157238 0 0 0 -0.843496 0.16166 -0.313142 0 0 -0.000346714 -110.338 -548.507 -84.2073 0.0015 
12 1 1 -0.12085 0.013583 -0.156371 0 0 0 -0.890963 0.20854 -0.349941 4.30815e-06 3.03181e-06 -0.000287521 -45.2908 -626.134 -256.797 0.0015 
5 1 1 -0.123329 0.019539 -0.156816 0 0 0 -0.936161 0.042976 -0.38745 -8.90631e-05 -3.19127e-05 -3.41101e-05 -19.229 -679.547 -28.8876 0.0015 
47 1 1 -0.124706 0.0255354 -0.156498 0 0 0 -1.1448 -0.0205155 -0.484588 -8.6876e-05 -3.09061e-05 -4.10355e-05 -3.33556 -842.759 43.5591 0.0015 
38 1 1 -0.170271 0.070192 -0.158837 0 0 0 -1.34031 0.324968 -0.323154 -6.35219e-05 -9.50049e-05 -7.8975e-05 -182.985 -962.598 -209.04 0.0015 
72 1 1 -0.123067 -0.0349722 -0.153947 0 0 0 -1.02742 -0.471424 -0.373507 0 0 -0.000346714 135.676 -632.21 524.293 0.0015 
20 1 1 -0.123647 -0.00087167 -0.155937 0 0 0 -0.76353 0.00794432 -0.8902 0 0 -0.000346714 -89.6062 -318.979 -0.477356 0.0015 
23 1 1 -0.116646 -0.000866565 -0.152143 0 0 0 -0.801245 -0.0264037 -0.382366 0 0 -0.000346714 105.248 -339.958 -141.967 0.0015 
17 1 1 -0.12279 0.00267284 -0.154306 0 0 0 -1.12554 0.226387 -0.338774 0 0 -0.000346714 -53.5625 69.6297 -123.256 0.0015 
35 1 1 -0.116582 0.00153269 -0.155171 0 0 0 -0.812439 -0.216109 -0.335757 -0.000859108 4.12872e-06 0.00120166 161.281 -590.983 -11.1905 0.0015 
50 1 1 -0.102068 -0.0113016 -0.148649 0 0 0 -0.794165 -0.112895 -0.329722 -9.40441e-05 1.38413e-05 -2.73818e-05 153.009 -586.864 -167.56 0.0015 
22 1 1 -0.106912 -0.00349819 -0.149572 0 0 0 -0.930495 0.0669478 -0.254639 0 0 -0.000346714 -44.8957 -616.978 -13.0292 0.0015 
26 1 1 -0.111569 9.7101e-05 -0.15197 0 0 0 -0.867031 0.259841 -0.368355 7.743e-05 1.28708e-06 -0.0014712 -128.806 -376.504 37.3878 0.0025 
32 1 1 -0.117347 0.00338394 -0.15207 0 0 0 -0.756912 0.0215037 -0.860357 0 0 -0.000346714 -11.0748 -389.824 7.37302e-16 0.0015 
37 1 1 -0.106781 0.00592435 -0.151009 0 0 0 -0.905691 0.137031 -0.384237 -8.66479e-05 -5.32855e-07 -4.32182e-05 -94.8495 -656.287 -10.4814 0.0015 
3 1 1 -0.107446 0.0183614 -0.149267 0 0 0 -0.851937 0.17004 -0.32186 -0.000419599 -0.000161802 -8.01821e-06 -39.911 -359.24 -84.0452 0.0025 
51 1 1 -0.104043 0.0206061 -0.14859 0 0 0 -0.882906 0.295766 -0.329464 -7.18784e-05 -3.28464e-05 0.000176161 -136.501 -617.308 -188.276 0.0015 
14 1 1 -0.103074 -0.00272629 -0.147249 0 0 0 -0.8425 -0.115899 -0.298774 0 0 -0.00160516 51.7253 -341.241 -4.20105 0.0025 
33 1 1 -0.0925599 -0.000718326 -0.145034 0 0 0 -0.72383 0.214249 -0.299143 9.94402e-05 6.21781e-05 -0.000475763 -89.3644 -520.73 -157.688 0.0015 
71 1 1 -0.0992381 0.000164406 -0.147371 0 0 0 -0.931377 0.0561327 -0.456878 0 0 -0.000346714 -47.6005 -645.075 11.94 0.0015 
49 1 1 -0.101008 0.0055798 -0.147564 0 0 0 -0.753139 0.111604 -0.358909 0 0 -0.000346714 -17.3327 -123.178 -42.6815 0.0015 
48 1 1 -0.123028 0.0161338 -0.147467 0 0 0 -0.926663 0.481481 -0.860277 0 0 -0.000346714 27.3203 136.186 -30.5113 0.0015 
16 1 1 -0.0987423 0.0161004 -0.145771 0 0 0 -0.831201 0.049324 -0.351403 -0.000436018 -8.57372e-05 -1.49085e-06 19.4452 -355.351 -96.2612 0.0025 
113 1 1 -0.0958246 -0.0225266 -0.144019 0 0 0 -0.887485 -0.114101 -0.251368 0 0 -0.000346714 35.4555 -586.816 145.527 0.0015 
52 1 1 -0.107779 -0.0157811 -0.143888 0 0 0 -0.812789 0.0768082 -0.717736 0 0 -0.00160516 180.623 136.053 124.935 0.0025 
76 1 1 -0.095115 -0.0120338 -0.145064 0 0 0 -1.07545 -0.0284396 -0.422507 0 0 -0.000346714 18.3129 -750.746 11.1101 0.0015 
25 1 1 -0.090197 -0.00518561 -0.143814 0 0 0 -0.731338 -0.195602 -0.38469 0 0 -0.000346714 159.467 -400.366 -13.7089 0.0015 
19 1 1 -0.0897908 0.0128522 -0.143349 0 0 0 -0.642654 0.0327004 -0.266443 -5.39589e-05 -1.05682e-05 -0.000110984 -15.2958 -464.29 -20.0802 0.0015 
85 1 1 -0.153325 -0.0258977 -0.138836 0 0 0 -1.70626 -0.770248 -0.678309 0 0 -0.000346714 -992.473 989.332 -382.051 0.0015 
28 1 1 -0.0885735 -0.0201941 -0.141029 0 0 0 -0.752084 0.15123 -0.332877 -0.000461895 0.000140872 -4.05036e-05 -72.8729 -326.382 16.3641 0.0025 
60 1 1 -0.0834884 -0.00280988 -0.141255 0 0 0 -0.711498 -0.062844 -0.298933 -8.21999e-05 -2.44341e-06 -5.42034e-05 73.8403 -513.764 -67.6743 0.0015 
39 1 1 -0.079569 -0.00216751 -0.138514 0 0 0 -0.717151 -0.0505227 -0.301673 -0.000408602 -1.81087e-05 -0.000171669 27.3925 -311.095 -13.0181 0.0025 
57 1 1 -0.094465 0.00139751 -0.139511 0 0 0 -0.802764 0.00350102 -0.858331 0 0 -0.000346714 70.7003 -235.156 135.467 0.0015 
84 1 1 -0.0813843 0.00327644 -0.139883 0 0 0 -0.549489 -0.0867312 -0.275206 0 0 -0.000346714 31.4798 -183.433 82.4306 0.0015 
88 1 1 -0.0793619 0.013894 -0.138637 0 0 0 -0.321029 0.121828 -0.0407757 0 0 -0.000346714 -152.122 -212.418 132.625 0.0015 
75 1 1 -0.0960727 0.0205429 -0.142008 0 0 0 -0.876601 0.161005 -0.635559 0 0 -0.000346714 -6.95269 -344.761 118.502 0.0015 
43 1 1 -0.0841826 0.0271801 -0.139246 0 0 0 -0.657569 -0.0232457 -0.276683 -8.56818e-05 -3.40524e-05 -4.10845e-05 100.734 -447.059 -201.846 0.0015 
42 1 1 -0.0908733 0.0310538 -0.14035 0 0 0 -0.784443 -0.0197608 -0.334263 -0.000401733 -0.000151978 -0.00019425 26.2557 -337.852 -41.6436 0.0025 
79 1 1 -0.0888306 -0.0477257 -0.135217 0 0 0 -0.881046 -0.192615 -0.710731 0.0153154 -0.00560531 0.077712 72.3159 -311.764 92.9357 0.0025 
41 1 1 -0.101026 -0.0268992 -0.136277 0 0 0 -0.698503 -0.0541749 -0.642881 0 0 -0.00160516 -159.194 -215.037 5.0754 0.0025 
1 1 1 -0.0767188 -0.0143747 -0.136745 0 0 0 -0.660487 -0.0152755 -0.276166 -0.000376706 4.94873e-05 -0.000229436 -38.8707 -281.271 108.638 0.0025 
53 1 1 -0.0734289 -0.0106884 -0.135543 0 0 0 -0.76073 0.0291867 -0.325724 -0.000369639 4.23887e-05 -0.000185536 -12.0401 -331.414 -1.61516 0.0025 
27 1 1 -0.0699927 -0.00312351 -0.13446 0 0 0 -0.580095 -0.157485 -0.23853 -0.00039718 4.66309e-05 -0.000205252 74.9132 -253.275 -14.9851 0.0025 
44 1 1 -0.0725512 0.00339909 -0.13655 0 0 0 -0.609054 -0.0359912 -0.256082 -8.37526e-05 -3.71162e-06 -4.71751e-05 12.8655 -441.16 31.4058 0.0015 
40 1 1 -0.0837283 0.00688454 -0.13845 0 0 0 -0.727265 0.201006 -0.786626 0 0 -0.00160516 -27.1045 -201.308 23.5952 0.0025 
29 1 1 -0.0772853 0.00879798 -0.137364 0 0 0 -0.623135 0.0103781 -0.259506 -0.000389111 -0.000108639 0.000337243 29.4987 -263.275 -81.5268 0.0025 
78 1 1 -0.0834854 0.0134436 -0.136685 0 0 0 -0.875275 0.228069 -0.384519 0 0 -0.00160516 -41.4296 -163.028 -15.7517 0.0025 
54 1 1 -0.0748095 0.014644 -0.135807 0 0 0 -0.750427 -0.144097 -0.331464 -0.000409639 -8.70969e-05 -0.000180374 63.2224 -327.372 -0.815575 0.0025 
34 1 1 -0.0822545 0.0442038 -0.134785 0 0 0 -0.810904 0.324898 -0.257559 -8.36059e-05 -4.99347e-05 -4.73674e-05 -110.732 -523.662 -311.942 0.0015 
63 1 1 -0.06326 -0.0184855 -0.131677 0 0 0 -0.542892 -0.0159143 -0.227074 -8.75829e-05 2.46075e-05 -4.01387e-05 -18.1857 -386.972 70.5974 0.0015 
74 1 1 -0.0609057 -0.0127404 -0.131264 0 0 0 -0.493059 -0.314153 -0.192299 -8.86193e-05 9.71844e-06 -3.78207e-05 251.183 -359.683 -56.3497 0.0015 
65 1 1 -0.064629 -0.00792734 -0.131971 0 0 0 -0.433127 -0.0781172 -0.178332 0.000105441 -2.38418e-05 8.12333e-05 47.427 -142.344 -17.7038 0.0025 
56 1 1 -0.0937107 -0.000984093 -0.13376 0 0 0 -0.718805 0.16698 -0.680265 0 0 -0.000346714 -85.5854 -368.423 1.07912e-13 0.0015 
55 1 1 -0.0875424 0.00168769 -0.133418 0 0 0 -0.706771 0.253408 -0.698372 0 0 -0.00160516 -76.8102 -219.699 -17.9608 0.0025 
58 1 1 -0.0700546 0.0197064 -0.133653 0 0 0 -0.784826 -0.118745 -0.335625 0 0 -0.000346714 122.887 -529.508 -103.789 0.0015 
70 1 1 -0.0702792 0.0276955 -0.13335 0 0 0 -0.672559 -0.0809243 -0.292707 -8.53946e-05 -3.5443e-05 -4.15735e-05 94.4221 -477.08 -85.0578 0.0015 
7 1 1 -0.102188 -0.0769303 -0.12891 0 0 0 -0.684336 -0.164135 -0.164182 -6.31761e-05 9.53409e-05 -8.00929e-05 25.0867 -390.123 285.449 0.0015 
111 1 1 -0.0801624 -0.0110609 -0.128402 0 0 0 -0.731541 0.0594779 -0.344163 0 0 -0.000346714 30.7175 221.295 -96.1964 0.0015 
95 1 1 -0.052683 -0.00365648 -0.128195 0 0 0 -0.582928 0.0502047 -0.248742 -9.20774e-05 9.55571e-06 -3.39598e-05 -97.3085 -416.118 143.904 0.0015 
46 1 1 -0.0904826 0.0056475 -0.131341 0 0 0 -0.743267 0.1987 -0.617603 0 0 -0.000346714 58.8912 -171.923 -2.54438 0.0015 
92 1 1 -0.0560672 0.022482 -0.127127 0 0 0 -0.378514 0.132346 -0.133399 -0.000388125 -0.000143064 -0.000181736 -38.2796 -157.848 -47.9896 0.0025 
82 1 1 -0.0597197 0.0303123 -0.128559 0 0 0 -0.687108 -0.104265 -0.318856 0 0 -0.000346714 3.42842 -525.401 176.427 0.0015 
138 1 1 -0.0639741 -0.03876 -0.126493 0 0 0 -0.996472 -0.104532 -0.550097 0 0 -0.000346714 42.3857 -637.087 149.544 0.0015 
121 1 1 -0.0717714 -0.0235065 -0.124079 0 0 0 -0.818457 -0.470085 -0.108102 0 0 -0.000346714 489.767 -176.371 -153.239 0.0015 
107 1 1 -0.0734181 -0.0138554 -0.124466 0 0 0 -0.774177 -0.197611 -0.441456 0 0 -0.00160516 -26.4565 -264.988 -43.8101 0.0025 
66 1 1 -0.0461258 -0.0132159 -0.123944 0 0 0 -0.453694 0.00984109 -0.219505 -0.000218428 0.00243023 0.00541943 -23.509 -180.966 0.0199772 0.0025 
128 1 1 -0.0592715 -0.00991745 -0.127765 0 0 0 -0.781943 -0.190592 -0.625906 0 0 -0.000346714 -492.37 36.2383 -159.473 0.0015 
15 1 1 -0.0506133 -0.00688408 -0.126101 0 0 0 -0.492843 0.0709552 -0.210015 -0.000406248 4.13354e-05 -0.000182603 -43.1019 -212.893 29.2019 0.0025 
127 1 1 -0.0446075 -0.00946437 -0.124353 0 0 0 -0.478192 0.0650907 -0.179894 0 0 -0.000346714 -103.382 -337.105 78.2603 0.0015 
73 1 1 -0.0494331 -0.00145842 -0.126912 0 0 0 -0.628955 0.166153 -0.277116 -8.99788e-05 7.14484e-06 -3.90747e-05 -124.453 -456.853 8.54603 0.0015 
83 1 1 -0.058043 0.00374735 -0.125686 0 0 0 -0.62625 0.159735 -0.608491 0 0 -0.000346714 -80.7065 -336.668 -48.6138 0.0015 
98 1 1 -0.0691687 0.0084693 -0.124841 0 0 0 -0.591527 -0.13881 -0.435438 0 0 -0.000346714 70.2628 -305.698 33.5383 0.0015 
93 1 1 -0.0517557 0.00961914 -0.126461 0 0 0 -0.567095 -0.19828 -0.251416 -0.000419922 -3.2538e-05 -0.000174761 35.417 -251.32 118.307 0.0025 
68 1 1 -0.0523836 0.0192491 -0.126024 0 0 0 -0.414554 0.065601 -0.169606 -0.000485949 -0.000114603 -0.000243783 -25.2209 -180.584 -7.98524 0.0025 
62 1 1 -0.0483496 0.0184477 -0.125019 0 0 0 -0.391563 0.0157672 -0.143807 0 0 -0.000346714 -5.98858 -179.454 0.119328 0.0015 
94 1 1 -0.0611503 0.0485406 -0.123769 0 0 0 -0.482151 0.167815 -0.154875 -0.000394387 -0.000281359 -0.000220901 -39.1677 -191.804 -85.887 0.0025 
59 1 1 -0.0417253 -0.0142859 -0.12309 0 0 0 -0.424668 0.0146709 -0.181359 -8.87799e-05 2.39866e-05 -2.75977e-05 -17.9685 -307.319 17.1834 0.0015 
112 1 1 -0.0371037 -0.0149484 -0.120696 0 0 0 -0.674882 -0.278561 -0.256062 0 0 -0.000346714 111.237 -447.725 223.439 0.0015 
102 1 1 -0.0796572 -0.00982585 -0.12285 0 0 0 -0.730519 0.300783 -0.467802 0 0 -0.000346714 -155.835 -378.48 -1.58522e-13 0.0015 
114 1 1 -0.0527174 -0.0102883 -0.122804 0 0 0 -0.754937 -0.263175 -0.322709 0 0 -0.000346714 -97.4999 -289.009 106.159 0.0015 
101 1 1 -0.0426635 -0.00996995 -0.121852 0 0 0 -0.735583 -0.326625 -0.257093 -0.00960333 0.000615493 -0.00406061 69.5561 350.419 -308.836 0.0015 
144 1 1 -0.0387879 -0.00999468 -0.120946 0 0 0 -0.775942 -0.267635 -0.0287994 0.00960333 -0.000615493 0.00210874 30.6199 -302.638 216.905 0.0025 
123 1 1 -0.0472179 -0.0061152 -0.123418 0 0 0 -0.70453 0.0475311 -0.417305 0 0 -0.000346714 -238.896 -111.199 -39.6422 0.0015 
90 1 1 -0.0437169 -0.00368387 -0.123282 0 0 0 -0.507179 -0.0589278 -0.216863 4.72463e-05 -0.000177246 -0.000126151 50.4251 -203.806 -40.7205 0.0025 
87 1 1 -0.0775164 0.000399539 -0.123632 0 0 0 -0.769897 -0.130322 -0.550598 0 0 -0.000346714 52.6196 -280.727 6.42893 0.0015 
81 1 1 -0.0747406 0.000544188 -0.120952 0 0 0 -0.737121 -0.0401257 -0.478126 0 0 -0.000346714 22.0777 -340.21 19.6179 0.0015 
64 1 1 -0.0741658 0.00575134 -0.123783 0 0 0 -0.71254 -0.00906028 -0.603646 0 0 -0.000346714 -16.4638 -306.665 -13.1889 0.0015 
103 1 1 -0.0408382 0.0122498 -0.12172 0 0 0 -0.578685 -0.0192014 -0.243855 -0.000664097 0.00183735 0.00400994 8.63087 -249.77 -5.56929 0.0025 
108 1 1 -0.0693759 0.0147291 -0.123794 0 0 0 -0.690242 -0.328967 -0.391826 0 0 -0.000346714 185.692 -394.795 28.3963 0.0015 
116 1 1 -0.0509583 0.0152473 -0.122649 0 0 0 -0.683584 -0.0193959 -0.262309 0 0 -0.00160516 32.8998 84.2714 68.6068 0.0025 
166 1 1 -0.0436123 0.0154853 -0.123791 0 0 0 -0.787507 -0.123697 -0.354526 -0.000198381 -0.000656333 0.000791248 114.834 -529.84 391.692 0.0015 
77 1 1 -0.0626826 0.0181898 -0.122428 0 0 0 -0.774182 -0.0820079 -0.37189 0 0 -0.00160516 -117.955 -11.1572 -67.4083 0.0025 
146 1 1 -0.0370197 -0.0383551 -0.117374 0 0 0 -0.148203 -0.769925 0.0189306 0 0 -0.000346714 462.866 -35.2057 265.56 0.0015 
106 1 1 -0.0378784 -0.0224532 -0.119014 0 0 0 -0.621878 -0.295406 -0.446084 0 0 -0.00160516 -40.0834 -56.7741 -35.0033 0.0025 
126 1 1 -0.0302581 -0.0218312 -0.117371 0 0 0 -0.284586 -0.130349 -0.0975995 0 0 -0.000346714 -12.7333 -177.215 263.226 0.0015 
149 1 1 -0.0408796 -0.019004 -0.119203 0 0 0 -0.517796 -0.132811 -0.23658 0 0 -0.000346714 79.1099 -307.201 77.9534 0.0015 
117 1 1 -0.0324059 -0.0169236 -0.11705 0 0 0 -0.412075 -0.194084 -0.160456 0 0 -0.00160516 53.9398 -153.843 84.5444 0.0025 
104 1 1 -0.0567469 -0.0091906 -0.118541 0 0 0 -0.758712 0.0523375 -0.25559 0 0 -0.00160516 21.1445 -4.98565 31.0059 0.0025 
160 1 1 -0.026684 -0.00879882 -0.117084 0 0 0 -0.293457 0.297522 -0.218241 0.0185296 -0.0161824 0.0132812 18.1978 31.1772 -52.7964 0.0015 
91 1 1 -0.0655087 -0.00498789 -0.119345 0 0 0 -0.498521 0.0862428 -0.463461 0 0 -0.00160516 53.3082 -81.7548 -60.1937 0.0025 
122 1 1 -0.0489687 -0.00580004 -0.119355 0 0 0 -0.810261 0.00404358 -0.487227 0 0 -0.000346714 64.532 -319.055 -42.736 0.0015 
158 1 1 -0.0357306 -0.000192211 -0.117698 0 0 0 -0.616994 0.304083 -0.356795 0 0 -0.00160516 -35.2146 -290.721 -0.689767 0.0025 
173 1 1 -0.0358229 0.00463725 -0.116697 0 0 0 -0.66058 0.485496 -0.0505752 0 0 -0.000346714 249.586 -375.953 133.484 0.0015 
109 1 1 -0.0259467 0.006977 -0.116808 0 0 0 -0.499936 0.00074377 -0.23158 0 0 -0.000346714 -12.9533 -355.536 27.4323 0.0015 
110 1 1 -0.0342782 0.00800405 -0.120184 0 0 0 -0.514675 0.202231 -0.184529 0 0 -0.000346714 -110.15 -361.65 -87.4 0.0015 
139 1 1 -0.0431707 0.0133397 -0.117461 0 0 0 -0.944089 0.147195 -0.360328 0 0 -0.000346714 232.714 -588.143 97.9806 0.0015 
135 1 1 -0.0413836 0.0164447 -0.119136 0 0 0 -1.25851 -0.148856 -0.571336 0 0 -0.000346714 -221.353 -157.041 -91.256 0.0015 
136 1 1 -0.0317717 0.0147662 -0.118665 0 0 0 -0.354014 0.0620823 -0.306415 0 0 -0.000346714 -49.6109 92.0642 -97.5897 0.0015 
161 1 1 -0.0369083 0.0214915 -0.119606 0 0 0 -0.290312 0.0893445 -0.617519 0 0 -0.000346714 -242.732 -406.593 -93.4138 0.0015 
9 1 1 -0.0593485 0.0639305 -0.118818 0 0 0 -0.287583 0.200173 -0.0329054 -7.43377e-05 -7.58451e-05 -5.94322e-05 -155.764 -222.757 6.21659 0.0015 
165 1 1 -0.0442131 -0.029448 -0.114157 0 0 0 -0.895994 0.214461 -0.288496 0 0 -0.000346714 -22.9455 -195.917 -119.891 0.0015 
137 1 1 -0.0580228 -0.0205025 -0.114472 0 0 0 -0.71424 0.318693 -0.0871333 0 0 -0.000346714 -165.637 -371.218 1.31049e-13 0.0015 
171 1 1 -0.0250797 -0.0188532 -0.113319 0 0 0 -0.725362 -0.426385 0.0657221 0 0 -0.000346714 285.021 -415.23 110.777 0.0015 
97 1 1 -0.0684843 -0.0136596 -0.116273 0 0 0 -0.608553 0.0357675 -0.314007 -9.58737e-05 0.00358468 0.00258579 101.411 -297.14 -83.6287 0.0015 
105 1 1 -0.0401458 -0.0152503 -0.116583 0 0 0 -0.640721 -0.0557125 -0.583104 0 0 -0.00160516 -65.8868 -173.276 -123.59 0.0025 
125 1 1 -0.0240035 -0.0129742 -0.114705 0 0 0 -0.237605 -0.163542 -0.109933 0 0 -0.000346714 -69.1803 109.108 -237.411 0.0015 
80 1 1 -0.0692162 -0.00985265 -0.115305 0 0 0 -0.822059 0.081984 -0.349767 9.58737e-05 -0.00358468 -0.00453766 -71.6703 -163.684 65.5364 0.0025 
167 1 1 -0.0376059 -0.00985647 -0.11608 0 0 0 -0.746533 -0.0691269 0.200613 0 0 -0.00160516 -36.9567 321.63 86.7459 0.0025 
174 1 1 -0.041497 -0.00509925 -0.114908 0 0 0 -1.24376 -0.329915 -0.397606 0 0 -0.000346714 387.716 105.058 290.11 0.0015 
69 1 1 -0.0694116 -0.00158937 -0.115484 0 0 0 -0.754791 0.00562456 -0.361938 0 0 -0.000346714 -168.237 -253.173 -43.4105 0.0015 
191 1 1 -0.0207178 -0.00153459 -0.114549 0 0 0 -0.517126 -0.300132 -0.103263 0 0 -0.000346714 -351.194 -497.142 -57.3735 0.0015 
178 1 1 -0.0294627 0.00300795 -0.113675 0 0 0 -0.753066 0.0213945 0.196484 0 0 -0.000346714 -10.9831 -386.597 -4.07301e-15 0.0015 
132 1 1 -0.031616 0.00925945 -0.11534 0 0 0 -0.537382 0.138603 -0.254445 0 0 -0.00160516 -65.8077 -183.633 -5.26486 0.0025 
67 1 1 -0.0533791 0.0126781 -0.114277 0 0 0 -0.689896 0.217128 -0.329093 0 0 -0.00160516 -112.704 254.987 22.3229 0.0025 
96 1 1 -0.069856 0.0169589 -0.113675 0 0 0 -0.845457 -0.12801 -0.357786 0 0 -0.000346714 246.884 -254.322 -70.0386 0.0015 
124 1 1 -0.0296715 0.0142888 -0.116187 0 0 0 -0.431656 -0.242134 -0.0317482 0 0 -0.000346714 215.498 -263.889 -29.5076 0.0015 
13 1 1 -0.0490929 0.0182287 -0.116118 0 0 0 -0.465096 0.0401318 -0.312591 0 0 -0.00160516 -56.5 -40.2411 -43.7451 0.0025 
148 1 1 -0.0255089 0.018278 -0.11532 0 0 0 -0.604397 0.144591 -0.57782 0 0 -0.000346714 9.16318 -51.6188 223.795 0.0015 
119 1 1 -0.0392638 0.0219056 -0.116181 0 0 0 -0.838802 -0.0584602 -0.700159 0 0 -0.00160516 197.464 34.1411 106.028 0.0025 
130 1 1 -0.050693 0.0340969 -0.116458 0 0 0 -0.548073 0.164744 -0.201493 0 0 -0.00160516 -77.6487 -73.4843 -78.7592 0.0025 
86 1 1 -0.0335211 0.0508435 -0.112824 0 0 0 -0.206667 0.141522 -0.0392266 -7.81786e-05 -5.88349e-05 -4.79579e-05 -21.055 -90.2479 -214.668 0.0015 
179 1 1 -0.0422784 -0.0301053 -0.111779 0 0 0 -0.82532 -0.446848 -0.150396 0 0 -0.000346714 606.356 136.341 150.775 0.0015 
172 1 1 -0.0314418 -0.0224032 -0.112167 0 0 0 -0.727883 0.299697 0.13178 0 0 -0.000346714 -156.375 -379.791 5.10942e-14 0.0015 
155 1 1 -0.0358473 -0.0195467 -0.112771 0 0 0 -0.563419 0.296858 -0.315768 0 0 -0.00160516 -29.797 -232.363 -28.655 0.0025 
176 1 1 -0.0299124 -0.0196221 -0.109939 0 0 0 -0.134394 -0.0777383 0.100493 0 0 -0.000346714 241.791 189.798 -317.251 0.0015 
147 1 1 -0.0264365 -0.01607 -0.11032 0 0 0 -0.312961 -0.00537989 -0.279498 0 0 -0.000346714 -25.8911 -241.683 23.1967 0.0015 
177 1 1 -0.0196392 -0.0140615 -0.109771 0 0 0 -0.742426 0.13855 0.201291 0 0 -0.000346714 -70.9108 -380.6 -0.24745 0.0015 
115 1 1 -0.0596564 -0.00849589 -0.1131 0 0 0 -0.704941 0.290036 -0.334713 0 0 -0.000346714 -148.193 -360.188 1.16897e-14 0.0015 
118 1 1 -0.0214083 -0.00999319 -0.113569 0 0 0 0.182397 0.0334873 -0.794258 0 0 -0.00160516 -120.123 -323.709 -51.8378 0.0025 
129 1 1 -0.0454042 -0.00395203 -0.11039 0 0 0 -0.786618 0.0121635 -0.17169 0 0 -0.00160516 -85.0819 47.0231 -38.5406 0.0025 
154 1 1 -0.0171078 -0.00527089 -0.111547 0 0 0 -0.0919996 0.447752 -0.506661 0 0 -0.000346714 169.105 -583.31 133.707 0.0015 
100 1 1 -0.0538538 -0.00180664 -0.111294 0 0 0 -0.579227 0.229689 -0.382988 0 0 -0.000346714 -212.708 -114.821 -170.59 0.0015 
162 1 1 -0.0141208 -0.0026097 -0.111499 0 0 0 -0.392827 0.0796074 -0.130438 0 0 -0.000346714 -63.2182 -257.392 9.85379 0.0015 
185 1 1 -0.0219737 0.00137146 -0.114948 0 0 0 -0.752192 -0.00287915 -1.21632 0 0 -0.000346714 -84.3915 -440.048 89.3865 0.0015 
152 1 1 -0.0450938 0.00858305 -0.111873 0 0 0 -0.863483 -0.00874044 0.0335627 0 0 -0.000346714 83.1315 -292.5 132.925 0.0015 
164 1 1 -0.0285026 0.00836271 -0.110977 0 0 0 -0.747095 -0.134941 0.144518 0 0 -0.000346714 69.1159 -382.658 2.05793e-14 0.0015 
99 1 1 -0.0567125 0.0134345 -0.111152 0 0 0 -0.848625 0.0571809 -0.251917 0 0 -0.000346714 215.697 -421.063 142.857 0.0015 
168 1 1 -0.0236616 0.0103991 -0.111745 0 0 0 -0.52959 -0.269356 -0.038111 0 0 -0.00160516 94.5286 -184.322 28.1745 0.0025 
141 1 1 -0.0140252 0.0135151 -0.110293 0 0 0 -0.0844514 -0.194251 -0.00319965 0 0 -0.000346714 94.6978 -30.6066 92.9092 0.0015 
156 1 1 -0.022397 0.0165903 -0.112696 0 0 0 0.0627143 0.0576852 -0.867666 0 0 -0.00160516 141.612 159.119 61.5394 0.0025 
163 1 1 -0.0402606 0.0272308 -0.110715 0 0 0 -0.717385 -0.319909 0.0364632 0 0 -0.000346714 166.308 -372.94 1.57058e-13 0.0015 
159 1 1 -0.0361239 0.0245831 -0.110488 0 0 0 -0.727991 -0.264533 0.0819995 0 0 -0.000346714 135.577 -373.108 2.76099e-14 0.0015 
140 1 1 -0.0577638 0.0416527 -0.11236 0 0 0 -0.722634 0.270636 -0.0729993 0 0 -0.000346714 260.994 -389.889 163.549 0.0015 
131 1 1 -0.0435983 -0.0192997 -0.108064 0 0 0 -0.697838 0.0433516 -0.157515 0 0 -0.00160516 -128.245 -158.403 34.4151 0.0025 
120 1 1 -0.0493459 -0.0165641 -0.107656 0 0 0 -0.756959 0.0982943 -0.227176 0 0 -0.00160516 -40.3372 -182.695 -16.5233 0.0025 
186 1 1 -0.00945168 -0.00772851 -0.109976 0 0 0 0.104312 0.110016 0.226369 -0.0998887 0.0147841 0.179805 -97.4629 -170.271 25.3325 0.0015 
192 1 1 -0.00642425 -0.00900713 -0.105709 0 0 0 -0.733112 0.10624 0.226819 0 0 -0.000346714 -54.4381 -375.65 -2.57148e-14 0.0015 
143 1 1 -0.0274238 -0.00742256 -0.108961 0 0 0 -0.601138 -0.520621 -0.180813 0 0 -0.00160516 288.297 148.405 176.054 0.0025 
145 1 1 -0.019534 0.00810679 -0.107938 0 0 0 -0.557978 0.249917 -0.325701 0 0 -0.00160516 145.54 -219.99 65.6696 0.0025 
180 1 1 -0.0282836 0.0131328 -0.109983 0 0 0 -0.585747 -0.382808 -1.03494 0 0 -0.00160516 61.4304 -267.416 -61.3844 0.0025 
184 1 1 -0.0079065 0.0264885 -0.105541 0 0 0 -0.699924 -0.268749 0.228662 0 0 -0.000346714 138.36 -360.342 -3.47581e-14 0.0015 
183 1 1 -0.0120563 0.0324326 -0.106426 0 0 0 -0.701214 -0.269244 0.252215 0 0 -0.00160516 83.5933 -217.709 2.6387e-14 0.0025 
181 1 1 -0.0264666 -0.025466 -0.108319 0 0 0 0 0 -2.02637 0 0 -0.00160516 0 0 0 0.0025 
175 1 1 -0.013871 -0.0233794 -0.102434 0 0 0 -0.713733 0.262026 0.0869674 0 0 -0.000346714 -134.947 -367.581 4.36608e-14 0.0015 
153 1 1 -0.0286781 -0.0166327 -0.103745 0 0 0 -0.705536 0.108121 0.225836 0 0 -0.000346714 -107.869 -228.934 95.2028 0.0015 
157 1 1 -0.0180756 -0.00869567 -0.104912 0 0 0 -0.720722 -0.0954644 -0.132716 0 0 -0.00160516 -143.759 -147.127 -44.6982 0.0025 
150 1 1 -0.0243212 -0.00474238 -0.104378 0 0 0 -0.586293 -0.0855 0.0719374 0 0 -0.000346714 -222.778 -463.567 168.636 0.0015 
190 1 1 -0.00998901 0.00893206 -0.108195 0 0 0 0 0 -2.02578 0 0 -0.000346714 0 0 0 0.0015 
151 1 1 -0.0279832 0.0207594 -0.102527 0 0 0 -0.730455 -0.170603 -0.0645421 0 0 -0.000346714 87.8954 -376.333 -1.05237e-14 0.0015 
133 1 1 -0.0530857 0.0251329 -0.103566 0 0 0 -0.751423 -0.139775 0.194868 0 0 -0.000346714 165.241 -151.591 -75.0859 0.0015 
61 1 1 -0.0141936 0.0530819 -0.104301 0 0 0 -0.0918182 0.284887 0.0518586 -0.000101624 -8.10847e-05 8.40129e-06 -254.812 -102.229 109.4 0.0015 
182 1 1 -0.00603907 -0.0330502 -0.101248 0 0 0 -0.692998 0.253522 0.209087 0 0 -0.00160516 -78.25 -213.895 1.02045e-13 0.0025 
188 1 1 -0.0196397 -0.0255544 -0.103366 0 0 0 0.00933914 -0.383999 -1.59237 0 0 -0.000346714 387.325 -16.7752 -23.8886 0.0015 
142 1 1 -0.0195222 -0.0212069 -0.10366 0 0 0 0.0427278 0.0325421 -0.883296 0 0 -0.00160516 90.0839 14.5013 0.21467 0.0025 
169 1 1 -0.035425 -0.0155424 -0.101995 0 0 0 -0.841792 0.274875 -0.905546 0 0 -0.00160516 -115.734 -273.565 -18.3324 0.0025 
134 1 1 -0.0365089 0.0207785 -0.0994614 0 0 0 -0.378435 0.170477 -0.0404108 0 0 -0.000346714 -203.412 441.886 -62.7026 0.0015 
170 1 1 -0.0104696 0.0183648 -0.100966 0 0 0 -0.405324 -0.153706 -0.0840122 0 0 -0.00160516 53.6813 -262.807 -7.77067 0.0025 
89 1 1 -0.0611229 0.0259242 -0.0994937 0 0 0 -0.5528 0.273197 -0.0196682 0 0 -0.000346714 -314.22 -140.985 -64.0011 0.0015 
187 1 1 -0.0249489 0.0269151 -0.103124 0 0 0 0 0 -2.00106 0 0 -0.000346714 0 0 0 0.0015 
200 1 1 -0.0201644 -0.0275601 -0.0998369 0 0 0 0 0 -1.98487 0 0 -0.000346714 0 0 0 0.0015 
45 1 1 -0.0959488 -0.00978772 -0.0979813 0 0 0 -0.806305 -0.42317 0.105541 0 0 -0.000346714 389.887 -152.585 -138.964 0.0015 
189 1 1 -0.0146064 0.0181799 -0.0997816 0 0 0 -1.39173 -0.128114 -0.944378 0 0 -0.000346714 -14.4434 -355.214 -59.3765 0.0015 
195 1 1 -0.00018665 -0.0192075 -0.0974419 0 0 0 0 0 -1.973 0 0 -0.00160516 0 0 0 0.0025 
204 1 1 -0.0121862 -0.00588198 -0.0985444 0 0 0 0 0 -1.9785 0 0 -0.000346714 0 0 0 0.0015 
198 1 1 -0.0278654 0.00172744 -0.0975605 0 0 0 0 0 -1.97359 0 0 -0.000346714 0 0 0 0.0015 
196 1 1 -0.0173269 -0.0294256 -0.0932603 0 0 0 0 0 -1.95211 0 0 -0.00160516 0 0 0 0.0025 
205 1 1 -0.00546888 -0.024539 -0.0930263 0 0 0 0 0 -1.95093 0 0 -0.000346714 0 0 0 0.0015 
193 1 1 -0.0232114 -0.0230043 -0.090458 0 0 0 0 0 -1.93798 0 0 -0.00160516 0 0 0 0.0025 
197 1 1 -0.0244014 0.0243576 -0.091429 0 0 0 0 0 -1.94289 0 0 -0.000346714 0 0 0 0.0015 
203 1 1 -0.0317899 0.0348276 -0.0919185 0 0 0 0 0 -1.94534 0 0 -0.000346714 0 0 0 0.0015 
201 1 1 -0.00148336 -0.00863773 -0.0880014 0 0 0 0 0 -1.92552 0 0 -0.000346714 0 0 0 0.0015 
202 1 1 -0.00237574 0.0349629 -0.0861369 0 0 0 0 0 -1.91601 0 0 -0.000346714 0 0 0 0.0015 
194 1 1 -0.0299737 -0.0249092 -0.0840732 0 0 0 0 0 -1.90541 0 0 -0.00160516 0 0 0 0.0025 
199 1 1 -0.0209901 0.00167617 -0.0845579 0 0 0 0 0 -1.90787 0 0 -0.000346714 0 0 0 0.0015 
212 1 1 -0.0118483 0.00949823 -0.0781995 0 0 0 0 0 -1.8749 0 0 -0.000346714 0 0 0 0.0015 
215 1 1 -0.0133438 0.0300767 -0.0788514 0 0 0 0 0 -1.87834 0 0 -0.000346714 0 0 0 0.0015 
216 1 1 -0.00916175 0.0316192 -0.0785147 0 0 0 0 0 -1.87657 0 0 -0.000346714 0 0 0 0.0015 
217 1 1 -0.00525173 0.0148756 -0.0759907 0 0 0 0 0 -1.86333 0 0 -0.000346714 0 0 0 0.0015 
209 1 1 -0.00795 0.0273623 -0.0771163 0 0 0 0 0 -1.86922 0 0 -0.00160516 0 0 0 0.0025 
218 1 1 -0.0116971 -0.0149443 -0.0730223 0 0 0 0 0 -1.84763 0 0 -0.000346714 0 0 0 0.0015 
211 1 1 -0.0325497 0.0284222 -0.0712163 0 0 0 0 0 -1.83802 0 0 -0.000346714 0 0 0 0.0015 
206 1 1 -0.0315415 -0.0266248 -0.0681107 0 0 0 0 0 -1.82134 0 0 -0.00160516 0 0 0 0.0025 
207 1 1 -0.014731 -0.00384992 -0.0699555 0 0 0 0 0 -1.83125 0 0 -0.00160516 0 0 0 0.0025 
208 1 1 -0.0313425 0.0167345 -0.0676695 0 0 0 0 0 -1.81899 0 0 -0.00160516 0 0 0 0.0025 
210 1 1 -0.0220067 0.0311963 -0.0676882 0 0 0 0 0 -1.81909 0 0 -0.00160516 0 0 0 0.0025 
214 1 1 -0.000147874 -0.0328927 -0.0644148 0 0 0 0 0 -1.80133 0 0 -0.000346714 0 0 0 0.0015 
213 1 1 -0.0258692 -0.0150214 -0.0650265 0 0 0 0 0 -1.80467 0 0 -0.000346714 0 0 0 0.0015 
226 1 1 -0.0256746 -0.0295973 -0.0574946 0 0 0 0 0 -1.76327 0 0 -0.000346714 0 0 0 0.0015 
219 1 1 -0.0126988 -0.0187384 -0.0588442 0 0 0 0 0 -1.77072 0 0 -0.00160516 0 0 0 0.0025 
228 1 1 -0.0186146 -0.0100891 -0.0576396 0 0 0 0 0 -1.76405 0 0 -0.000346714 0 0 0 0.0015 
223 1 1 -0.0141421 0.000627184 -0.0596933 0 0 0 0 0 -1.77543 0 0 -0.000346714 0 0 0 0.0015 
227 1 1 -0.0125397 -0.025785 -0.0540231 0 0 0 0 0 -1.74384 0 0 -0.000346714 0 0 0 0.0015 
224 1 1 -0.0104339 -0.00964248 -0.0550711 0 0 0 0 0 -1.74973 0 0 -0.000346714 0 0 0 0.0015 
229 1 1 -0.0206785 0.0145985 -0.0561287 0 0 0 0 0 -1.75562 0 0 -0.000346714 0 0 0 0.0015 
230 1 1 -0.0158011 0.0337207 -0.0534646 0 0 0 0 0 -1.7407 0 0 -0.000346714 0 0 0 0.0015 
225 1 1 -0.0349321 -0.00790873 -0.0466904 0 0 0 0 0 -1.70205 0 0 -0.000346714 0 0 0 0.0015 
240 1 1 -0.0114835 -0.0265679 -0.0441135 0 0 0 0 0 -1.68714 0 0 -0.000346714 0 0 0 0.0015 
221 1 1 -0.03004 0.0154412 -0.0449082 0 0 0 0 0 -1.69175 0 0 -0.00160516 0 0 0 0.0025 
220 1 1 -0.0245784 0.0311922 -0.0439607 0 0 0 0 0 -1.68626 0 0 -0.00160516 0 0 0 0.0025 
222 1 1 -0.00133775 0.0319388 -0.0432362 0 0 0 0 0 -1.68204 0 0 -0.00160516 0 0 0 0.0025 
239 1 1 -0.004822 -0.0263713 -0.0408567 0 0 0 0 0 -1.66811 0 0 -0.000346714 0 0 0 0.0015 
231 1 1 -0.0172445 0.00368684 -0.0424413 0 0 0 0 0 -1.67743 0 0 -0.00160516 0 0 0 0.0025 
232 1 1 -0.0305153 0.021925 -0.040405 0 0 0 0 0 -1.66546 0 0 -0.00160516 0 0 0 0.0025 
236 1 1 -0.011765 -0.0317196 -0.0364908 0 0 0 0 0 -1.64221 0 0 -0.000346714 0 0 0 0.0015 
238 1 1 -0.00523715 -0.00399455 -0.0356342 0 0 0 0 0 -1.63711 0 0 -0.000346714 0 0 0 0.0015 
242 1 1 -0.024936 0.00943572 -0.0326856 0 0 0 0 0 -1.61935 0 0 -0.000346714 0 0 0 0.0015 
235 1 1 -0.00913613 0.0130219 -0.0337444 0 0 0 0 0 -1.62573 0 0 -0.000346714 0 0 0 0.0015 
241 1 1 -0.0178674 0.023228 -0.0320372 0 0 0 0 0 -1.61543 0 0 -0.000346714 0 0 0 0.0015 
243 1 1 -0.0312596 -0.0342874 -0.0285526 0 0 0 0 0 -1.59414 0 0 -0.000346714 0 0 0 0.0015 
237 1 1 -0.0276781 -0.0346784 -0.031341 0 0 0 0 0 -1.61121 0 0 -0.000346714 0 0 0 0.0015 
234 1 1 -0.00624641 -0.0254844 -0.0316989 0 0 0 0 0 -1.61337 0 0 -0.00160516 0 0 0 0.0025 
233 1 1 -0.0140583 -0.0235405 -0.0284772 0 0 0 0 0 -1.59365 0 0 -0.00160516 0 0 0 0.0025 