ITEM: TIMESTEP
14400
ITEM: NUMBER OF ATOMS
192
ITEM: BOX BOUNDS ff ff ff
-0.5 0.1
-0.2 0.2
-0.4 0.15
ITEM: ATOMS id type type x y z ix iy iz vx vy vz fx fy fz omegax omegay omegaz radius 
4 1 1 -0.045171 0.0108565 -0.122262 0 0 0 -0.641407 -0.372694 -0.440264 0 0 -0.00160516 1.45592 -174.382 -27.7536 0.0025 
31 1 1 -0.0319378 -0.0201941 -0.116448 0 0 0 -0.625653 0.057757 0.257974 0 0 -0.000346714 -13.0182 -304.399 18.6834 0.0015 
21 1 1 -0.0458042 -0.0160117 -0.116066 0 0 0 -0.750346 0.180126 0.106717 0 0 -0.000346714 -93.3386 -388.818 -8.97324e-15 0.0015 
20 1 1 -0.0431907 -0.00383297 -0.116832 0 0 0 -0.735117 0.048297 0.177268 0 0 -0.000346714 -24.7329 -376.454 2.87063e-14 0.0015 
12 1 1 -0.0335997 -0.00361849 -0.117623 0 0 0 -0.765248 -0.0892293 -0.169439 0 0 -0.000346714 91.1675 -518.11 10.2559 0.0015 
32 1 1 -0.0356001 0.00106153 -0.116363 0 0 0 -0.756912 0.0215037 0.199123 0 0 -0.000346714 -11.0748 -389.824 7.37302e-16 0.0015 
5 1 1 -0.0357974 0.0111344 -0.119511 0 0 0 -0.739681 0.0955725 -0.117942 0 0 -0.000346714 -64.7239 -473.802 -26.7444 0.0015 
38 1 1 -0.0393776 0.0180734 -0.119983 0 0 0 -1.13531 0.557518 -0.177574 0 0 -0.000346714 -340.631 -726.294 -186.258 0.0015 
36 1 1 -0.0338954 -0.0272063 -0.117787 0 0 0 -0.723767 -0.147522 -1.06955 0 0 -0.000346714 166.783 -7.57041 106.264 0.0015 
8 1 1 -0.0278802 -0.0200746 -0.115183 0 0 0 -0.809413 0.212428 -0.137253 0 0 -0.000346714 -142.629 -517.4 12.32 0.0015 
10 1 1 -0.0453802 -0.00762218 -0.112798 0 0 0 -0.730942 0.0480227 0.0601823 0 0 -0.000346714 -24.4869 -372.71 -5.48927e-14 0.0015 
2 1 1 -0.0562099 -0.00457702 -0.114594 0 0 0 -0.737266 0.0484382 0.0314524 0 0 -0.00160516 -14.8336 -225.779 -6.37285e-15 0.0025 
17 1 1 -0.04128 -0.000247349 -0.113002 0 0 0 -0.755732 0.0214702 0.0768412 0 0 -0.000346714 -10.9755 -386.329 2.70716e-15 0.0015 
29 1 1 -0.0249272 0.00272715 -0.1154 0 0 0 -0.238953 0.175793 -0.0495753 -0.0418918 -0.0476063 0.022249 -195.964 291.172 -86.7542 0.0025 
23 1 1 -0.0283612 0.0192154 -0.115406 0 0 0 -0.770949 -0.238651 -0.260413 0 0 -0.000346714 136.334 -512.554 67.7459 0.0015 
11 1 1 -0.0485597 0.0261367 -0.1132 0 0 0 -0.746853 -0.229155 -0.0820005 0 0 -0.000346714 157.283 -192.671 339.666 0.0015 
18 1 1 -0.0496271 0.029483 -0.115359 0 0 0 -0.761856 -0.0901797 -0.11706 0 0 -0.000346714 109.333 -325.067 83.3711 0.0015 
28 1 1 -0.0215394 -0.0317581 -0.11118 0 0 0 -0.385203 0.0133833 -0.450554 -0.0571638 0.0159804 0.153525 -26.5287 -208.827 17.169 0.0025 
26 1 1 -0.029861 -0.0299761 -0.111204 0 0 0 -0.72059 0.297164 -0.0414262 0 0 -0.00160516 -105.302 -255.327 -0.0941047 0.0025 
33 1 1 -0.0259618 -0.0256557 -0.114458 0 0 0 -0.59085 0.252199 -0.771683 0 0 -0.000346714 -94.2254 -161.293 -1.82317 0.0015 
1 1 1 -0.0220515 -0.0180483 -0.113292 0 0 0 -0.497791 0.299605 -0.233821 -0.000485417 0.000109395 6.37416e-05 -118.833 -219.059 -27.6618 0.0025 
24 1 1 -0.037595 -0.0161074 -0.110679 0 0 0 -0.740387 0.234009 -0.101336 0 0 -0.000346714 53.5445 -226.738 38.1963 0.0015 
37 1 1 -0.0222286 -0.0097968 -0.111274 0 0 0 -0.727982 0.151647 -0.0812014 0 0 -0.000346714 -91.909 -438.919 -4.95487 0.0015 
39 1 1 -0.0179209 0.00257282 -0.1113 0 0 0 -0.594364 0.0626189 0.135431 0 0 -0.00160516 -21.2028 -189.567 -23.4052 0.0025 
44 1 1 -0.0219698 0.00535565 -0.115083 0 0 0 -0.449232 -0.113798 0.0510506 0.0433797 0.047899 -0.0255205 206.127 -412.434 141.913 0.0015 
16 1 1 -0.0208048 0.00895413 -0.11347 0 0 0 -0.581834 0.0122772 -0.23076 0.000457855 -0.00092766 -0.00429275 65.8916 -280.126 -24.5581 0.0025 
6 1 1 -0.0444474 0.0109957 -0.112329 0 0 0 -0.729676 -0.109972 0.0655816 0 0 -0.000346714 55.6535 -369.268 6.21219e-14 0.0015 
34 1 1 -0.0184771 0.0222235 -0.110472 0 0 0 -0.117574 -0.0191284 0.139631 0 0 -0.000346714 -12.1264 -12.3597 28.203 0.0015 
9 1 1 -0.0358811 0.0327789 -0.11265 0 0 0 -0.271633 0.311388 -0.181085 0 0 -0.000346714 -498.293 489.454 44.1913 0.0015 
30 1 1 -0.0277558 -0.0249927 -0.10971 0 0 0 -1.08485 0.425189 -0.529429 0 0 -0.00160516 -10.2934 -98.2331 -5.25511 0.0025 
15 1 1 -0.0107176 -0.025146 -0.107441 0 0 0 -0.306286 0.216467 0.0166874 0 0 -0.00160516 -69.9395 -110.67 -32.2049 0.0025 
19 1 1 -0.0278465 -0.00439794 -0.109222 0 0 0 -0.747665 0.00118421 -0.0655288 0 0 -0.000346714 3.2142 -416.132 -16.8128 0.0015 
3 1 1 -0.0313471 0.00517675 -0.108814 0 0 0 -0.490606 -0.141221 -0.423802 0.00595632 -0.0102148 -0.323803 -59.604 -188.627 -31.4151 0.0025 
13 1 1 -0.0113432 0.0125149 -0.108785 0 0 0 -0.0974282 0.0739958 0.0302311 0 0 -0.00160516 -27.7796 -19.2631 -21.4538 0.0025 
35 1 1 -0.0260594 0.0252466 -0.110156 0 0 0 -0.901288 -0.161434 -0.942471 0 0 -0.000346714 69.9005 131.514 57.9175 0.0015 
45 1 1 -0.0130397 0.0278199 -0.107338 0 0 0 -0.229777 -0.397382 -0.210268 0 0 -0.000346714 -187.168 -923.138 -195.16 0.0015 
40 1 1 -0.00634279 -0.0201412 -0.103361 0 0 0 -0.713952 0.262107 0.188474 0 0 -0.00160516 -81.4948 -221.983 -4.47958e-14 0.0025 
22 1 1 -0.0267584 -0.0162135 -0.104177 0 0 0 -0.721152 0.128851 0.052538 0 0 -0.000346714 -65.0767 -364.221 8.43618e-14 0.0015 
50 1 1 -0.0279742 -1.04943e-05 -0.111529 0 0 0 0 0 -2.04187 0 0 -0.000346714 0 0 0 0.0015 
25 1 1 -0.0278818 0.00681449 -0.105133 0 0 0 -0.712017 -0.14627 0.0292523 0 0 -0.000346714 75.024 -365.204 2.19495e-14 0.0015 
27 1 1 -0.0100371 0.007695 -0.103887 0 0 0 -0.582489 0.0421349 -0.00278049 0 0 -0.00160516 -14.6422 -185.987 -24.1692 0.0025 
14 1 1 -0.0227726 0.0150708 -0.103235 0 0 0 -0.732633 -0.171112 0.0467192 0 0 -0.00160516 53.1334 -227.496 5.06761e-14 0.0025 
47 1 1 -0.0213457 0.025292 -0.107745 0 0 0 0.176597 -0.1019 -0.990313 0 0 -0.000346714 -64.506 501.399 57.9175 0.0015 
42 1 1 -0.0164463 0.0304656 -0.109543 0 0 0 -0.847425 -0.207578 0.36058 -0.00679688 -0.00298728 0.00445721 64.338 -279.759 -11.965 0.0025 
48 1 1 -0.0234289 -0.0314842 -0.107449 0 0 0 -0.884384 0.0977456 -0.178618 0 0 -0.000346714 -21.4507 116.528 -15.8412 0.0015 
46 1 1 -0.0105626 -0.0145818 -0.109815 0 0 0 -0.00441838 0.000789449 -1.94151 -0.0145963 0.00260798 0.277941 -9.21464 -51.5724 2.65121e-16 0.0015 
51 1 1 -0.0175025 -0.0121213 -0.107482 0 0 0 0 0 -2.02235 0 0 -0.000346714 0 0 0 0.0015 
7 1 1 -0.0289455 -0.0429978 -0.0983127 0 0 0 -0.714072 -0.386294 -0.138771 0 0 -0.000346714 377.106 230.021 159.168 0.0015 
49 1 1 -0.0312391 0.00531501 -0.104986 0 0 0 -0.399507 0.0236981 -0.622904 -0.00595632 0.0102148 0.321851 -35.3483 700.486 -21.4681 0.0015 
43 1 1 -0.0196938 0.0042356 -0.104922 0 0 0 0 0 -2.00989 0 0 -0.000346714 0 0 0 0.0015 
41 1 1 -0.0294843 -0.0347245 -0.102258 0 0 0 0 0 -1.99684 0 0 -0.00160516 0 0 0 0.0025 
52 1 1 -0.0302313 -0.00571197 -0.101501 0 0 0 0 0 -1.99312 0 0 -0.00160516 0 0 0 0.0025 
54 1 1 -0.0046838 0.0252416 -0.101162 0 0 0 0 0 -1.99145 0 0 -0.00160516 0 0 0 0.0025 
58 1 1 -0.00481478 0.0323336 -0.100703 0 0 0 0 0 -1.98919 0 0 -0.000346714 0 0 0 0.0015 
53 1 1 -0.00163565 -0.0222313 -0.0964537 0 0 0 0 0 -1.9681 0 0 -0.00160516 0 0 0 0.0025 
56 1 1 -0.0221544 -0.0176068 -0.0977151 0 0 0 0 0 -1.97438 0 0 -0.000346714 0 0 0 0.0015 
57 1 1 -0.0185443 0.0109203 -0.0971276 0 0 0 0 0 -1.97144 0 0 -0.000346714 0 0 0 0.0015 
62 1 1 -0.0131635 0.0258143 -0.0983701 0 0 0 0 0 -1.97762 0 0 -0.000346714 0 0 0 0.0015 
59 1 1 -0.00206763 -0.0165007 -0.0943711 0 0 0 0 0 -1.9577 0 0 -0.000346714 0 0 0 0.0015 
60 1 1 -0.0250204 0.00245318 -0.0943553 0 0 0 0 0 -1.9576 0 0 -0.000346714 0 0 0 0.0015 
64 1 1 -0.00322644 0.00785004 -0.0897398 0 0 0 0 0 -1.93435 0 0 -0.000346714 0 0 0 0.0015 
55 1 1 -0.0188291 -0.0247488 -0.0879482 0 0 0 0 0 -1.92523 0 0 -0.00160516 0 0 0 0.0025 
63 1 1 -0.0205837 -0.0117427 -0.0880458 0 0 0 0 0 -1.92572 0 0 -0.000346714 0 0 0 0.0015 
61 1 1 -0.0136213 0.0102173 -0.0859469 0 0 0 0 0 -1.91503 0 0 -0.000346714 0 0 0 0.0015 
73 1 1 -0.00317446 -0.00307391 -0.0827251 0 0 0 0 0 -1.89845 0 0 -0.000346714 0 0 0 0.0015 
68 1 1 -0.0183282 0.020832 -0.0814175 0 0 0 0 0 -1.89168 0 0 -0.00160516 0 0 0 0.0025 
67 1 1 -0.0086291 0.0212435 -0.0794386 0 0 0 0 0 -1.88138 0 0 -0.00160516 0 0 0 0.0025 
69 1 1 -0.00331379 0.000112052 -0.0739349 0 0 0 0 0 -1.85244 0 0 -0.000346714 0 0 0 0.0015 
74 1 1 -0.0313469 0.00594264 -0.07216 0 0 0 0 0 -1.84302 0 0 -0.000346714 0 0 0 0.0015 
70 1 1 -0.0161255 0.0259916 -0.074043 0 0 0 0 0 -1.85303 0 0 -0.000346714 0 0 0 0.0015 
71 1 1 -0.0132118 -0.0142448 -0.0681655 0 0 0 0 0 -1.82164 0 0 -0.000346714 0 0 0 0.0015 
76 1 1 -0.0101315 -0.00307891 -0.0703899 0 0 0 0 0 -1.8336 0 0 -0.000346714 0 0 0 0.0015 
65 1 1 -0.021885 0.00637934 -0.069071 0 0 0 0 0 -1.82654 0 0 -0.00160516 0 0 0 0.0025 
75 1 1 -0.0222205 0.0252752 -0.0686146 0 0 0 0 0 -1.82409 0 0 -0.000346714 0 0 0 0.0015 
66 1 1 -0.0113639 -0.028821 -0.067364 0 0 0 0 0 -1.81732 0 0 -0.00160516 0 0 0 0.0025 
72 1 1 -0.0339596 0.0247152 -0.067167 0 0 0 0 0 -1.81624 0 0 -0.000346714 0 0 0 0.0015 
81 1 1 -0.0138041 0.00231809 -0.0615942 0 0 0 0 0 -1.78593 0 0 -0.000346714 0 0 0 0.0015 
88 1 1 -0.0246928 0.0149576 -0.0632781 0 0 0 0 0 -1.79515 0 0 -0.000346714 0 0 0 0.0015 
77 1 1 -0.00512449 0.0194276 -0.0622401 0 0 0 0 0 -1.78946 0 0 -0.00160516 0 0 0 0.0025 
79 1 1 -0.016039 -0.0311912 -0.0598191 0 0 0 0 0 -1.77612 0 0 -0.00160516 0 0 0 0.0025 
78 1 1 -0.0338446 -0.00790771 -0.0584543 0 0 0 0 0 -1.76856 0 0 -0.00160516 0 0 0 0.0025 
83 1 1 -0.006758 -0.00933802 -0.0592143 0 0 0 0 0 -1.77278 0 0 -0.000346714 0 0 0 0.0015 
85 1 1 -0.0261342 0.0289343 -0.0569744 0 0 0 0 0 -1.76032 0 0 -0.000346714 0 0 0 0.0015 
89 1 1 -0.0166674 -0.0133665 -0.0541354 0 0 0 0 0 -1.74443 0 0 -0.000346714 0 0 0 0.0015 
84 1 1 -0.0307162 0.0123479 -0.0554787 0 0 0 0 0 -1.75199 0 0 -0.000346714 0 0 0 0.0015 
87 1 1 -0.0216846 0.010562 -0.0501984 0 0 0 0 0 -1.72216 0 0 -0.000346714 0 0 0 0.0015 
82 1 1 -0.011833 0.030812 -0.0499246 0 0 0 0 0 -1.72059 0 0 -0.000346714 0 0 0 0.0015 
102 1 1 -0.0267621 -0.0316048 -0.0477797 0 0 0 0 0 -1.70833 0 0 -0.000346714 0 0 0 0.0015 
80 1 1 -0.0153514 -0.0285466 -0.0483403 0 0 0 0 0 -1.71157 0 0 -0.00160516 0 0 0 0.0025 
86 1 1 -0.0266174 0.0340944 -0.0483908 0 0 0 0 0 -1.71186 0 0 -0.000346714 0 0 0 0.0015 
95 1 1 -0.016986 -0.00213434 -0.0441458 0 0 0 0 0 -1.68734 0 0 -0.000346714 0 0 0 0.0015 
94 1 1 -0.0329725 0.0296342 -0.0426496 0 0 0 0 0 -1.67861 0 0 -0.00160516 0 0 0 0.0025 
97 1 1 -0.020149 -0.0334448 -0.0389966 0 0 0 0 0 -1.65712 0 0 -0.000346714 0 0 0 0.0015 
100 1 1 -0.0135716 -0.0190259 -0.040893 0 0 0 0 0 -1.66831 0 0 -0.000346714 0 0 0 0.0015 
92 1 1 -0.0333375 0.0110949 -0.0388148 0 0 0 0 0 -1.65604 0 0 -0.00160516 0 0 0 0.0025 
98 1 1 -0.0294235 0.0177987 -0.041442 0 0 0 0 0 -1.67154 0 0 -0.000346714 0 0 0 0.0015 
91 1 1 -0.0292811 0.00645928 -0.0382296 0 0 0 0 0 -1.65261 0 0 -0.00160516 0 0 0 0.0025 
90 1 1 -0.0143727 0.015853 -0.0369157 0 0 0 0 0 -1.64476 0 0 -0.00160516 0 0 0 0.0025 
99 1 1 -0.00439906 0.0240922 -0.0377674 0 0 0 0 0 -1.64986 0 0 -0.000346714 0 0 0 0.0015 
101 1 1 -0.00739645 -0.0185545 -0.034185 0 0 0 0 0 -1.62838 0 0 -0.000346714 0 0 0 0.0015 
93 1 1 -0.0265909 0.0159092 -0.0339368 0 0 0 0 0 -1.62691 0 0 -0.00160516 0 0 0 0.0025 
96 1 1 -0.0159897 0.0274334 -0.0338551 0 0 0 0 0 -1.62642 0 0 -0.000346714 0 0 0 0.0015 
113 1 1 -0.0275469 -0.0163611 -0.0304565 0 0 0 0 0 -1.60582 0 0 -0.000346714 0 0 0 0.0015 
114 1 1 -0.0102956 -0.00169209 -0.0308754 0 0 0 0 0 -1.60837 0 0 -0.000346714 0 0 0 0.0015 
115 1 1 -0.0161861 -0.026381 -0.027208 0 0 0 0 0 -1.5858 0 0 -0.000346714 0 0 0 0.0015 
105 1 1 -0.00301846 -0.0111451 -0.026427 0 0 0 0 0 -1.581 0 0 -0.00160516 0 0 0 0.0025 
107 1 1 -0.0273253 -0.00441029 -0.0254697 0 0 0 0 0 -1.57501 0 0 -0.00160516 0 0 0 0.0025 
110 1 1 -0.0135333 0.000602269 -0.0243868 0 0 0 0 0 -1.56824 0 0 -0.000346714 0 0 0 0.0015 
103 1 1 -0.00791609 0.00384723 -0.0243811 0 0 0 0 0 -1.56824 0 0 -0.00160516 0 0 0 0.0025 
106 1 1 -0.00205293 -0.0206571 -0.0233224 0 0 0 0 0 -1.56157 0 0 -0.00160516 0 0 0 0.0025 
111 1 1 -0.0318002 -0.0148599 -0.0208787 0 0 0 0 0 -1.54617 0 0 -0.000346714 0 0 0 0.0015 
112 1 1 -0.0112712 -0.00229192 -0.0233461 0 0 0 0 0 -1.56177 0 0 -0.000346714 0 0 0 0.0015 
104 1 1 -0.0192779 0.00722911 -0.022428 0 0 0 0 0 -1.55598 0 0 -0.00160516 0 0 0 0.0025 
109 1 1 -2.29018e-06 0.0149512 -0.0236963 0 0 0 0 0 -1.56393 0 0 -0.000346714 0 0 0 0.0015 
108 1 1 -0.0322225 0.032442 -0.0193569 0 0 0 0 0 -1.53646 0 0 -0.000346714 0 0 0 0.0015 
120 1 1 -0.0125785 -0.0210623 -0.0104437 0 0 0 0 0 -1.47848 0 0 -0.00160516 0 0 0 0.0025 
123 1 1 -0.0125841 -0.0111545 -0.0128801 0 0 0 0 0 -1.49457 0 0 -0.000346714 0 0 0 0.0015 
125 1 1 -0.00679321 -0.00388229 -0.0117231 0 0 0 0 0 -1.48692 0 0 -0.000346714 0 0 0 0.0015 
126 1 1 -0.0148309 -0.0333609 -0.00638955 0 0 0 0 0 -1.45131 0 0 -0.000346714 0 0 0 0.0015 
122 1 1 -0.0191843 -0.0162196 -0.00892738 0 0 0 0 0 -1.46838 0 0 -0.000346714 0 0 0 0.0015 
117 1 1 -0.0143544 -0.00143019 -0.0094854 0 0 0 0 0 -1.47211 0 0 -0.00160516 0 0 0 0.0025 
121 1 1 -0.0290047 0.00352617 -0.00663378 0 0 0 0 0 -1.45298 0 0 -0.000346714 0 0 0 0.0015 
127 1 1 -0.0227292 -0.0112057 -0.00460785 0 0 0 0 0 -1.43924 0 0 -0.000346714 0 0 0 0.0015 
128 1 1 -0.0208061 0.000145103 -0.00456689 0 0 0 0 0 -1.43895 0 0 -0.000346714 0 0 0 0.0015 
116 1 1 -0.0158354 0.0147935 -0.00528348 0 0 0 0 0 -1.44385 0 0 -0.00160516 0 0 0 0.0025 
124 1 1 -0.0114065 0.0295451 -0.00410932 0 0 0 0 0 -1.43581 0 0 -0.000346714 0 0 0 0.0015 
138 1 1 -0.0188235 -0.0335238 -0.000941943 0 0 0 0 0 -1.41403 0 0 -0.000346714 0 0 0 0.0015 
118 1 1 -0.00193271 -0.0127941 -0.000321998 0 0 0 0 0 -1.40971 0 0 -0.00160516 0 0 0 0.0025 
119 1 1 -0.00304704 0.0316877 -0.00126547 0 0 0 0 0 -1.41629 0 0 -0.00160516 0 0 0 0.0025 
131 1 1 -0.0142543 -0.0235946 0.00428023 0 0 0 0 0 -1.37734 0 0 -0.00160516 0 0 0 0.0025 
132 1 1 -0.010147 0.00134815 0.00334249 0 0 0 0 0 -1.38401 0 0 -0.00160516 0 0 0 0.0025 
139 1 1 -0.00401145 0.0125644 0.00212918 0 0 0 0 0 -1.39255 0 0 -0.000346714 0 0 0 0.0015 
133 1 1 -0.0167258 0.0295222 0.00210605 0 0 0 0 0 -1.39274 0 0 -0.000346714 0 0 0 0.0015 
137 1 1 -0.0331578 -0.0315972 0.00776133 0 0 0 0 0 -1.35233 0 0 -0.000346714 0 0 0 0.0015 
136 1 1 -0.0156127 0.0122027 0.00778534 0 0 0 0 0 -1.35213 0 0 -0.000346714 0 0 0 0.0015 
130 1 1 -0.0316516 0.0258079 0.00563552 0 0 0 0 0 -1.36763 0 0 -0.00160516 0 0 0 0.0025 
140 1 1 -0.0309894 0.0333632 0.00541703 0 0 0 0 0 -1.3692 0 0 -0.000346714 0 0 0 0.0015 
129 1 1 -0.0150343 -0.00254225 0.0109527 0 0 0 0 0 -1.32898 0 0 -0.00160516 0 0 0 0.0025 
141 1 1 -0.00445669 0.0136763 0.0104434 0 0 0 0 0 -1.33271 0 0 -0.000346714 0 0 0 0.0015 
134 1 1 -0.021642 0.0141125 0.00981967 0 0 0 0 0 -1.33732 0 0 -0.000346714 0 0 0 0.0015 
135 1 1 -0.00584464 0.0229092 0.00935049 0 0 0 0 0 -1.34075 0 0 -0.000346714 0 0 0 0.0015 
149 1 1 -0.0237179 -0.0143876 0.0125235 0 0 0 0 0 -1.3173 0 0 -0.000346714 0 0 0 0.0015 
153 1 1 -0.00430721 -0.0251385 0.0157887 0 0 0 0 0 -1.29278 0 0 -0.000346714 0 0 0 0.0015 
146 1 1 -0.0337656 -0.0129184 0.0176394 0 0 0 0 0 -1.27865 0 0 -0.000346714 0 0 0 0.0015 
152 1 1 -0.0189158 0.00679958 0.0173814 0 0 0 0 0 -1.28062 0 0 -0.000346714 0 0 0 0.0015 
143 1 1 -0.0076982 0.0115519 0.0158553 0 0 0 0 0 -1.29229 0 0 -0.00160516 0 0 0 0.0025 
148 1 1 -0.00630817 0.0207644 0.0173941 0 0 0 0 0 -1.28052 0 0 -0.000346714 0 0 0 0.0015 
151 1 1 -0.00353112 0.0264703 0.0169616 0 0 0 0 0 -1.28385 0 0 -0.000346714 0 0 0 0.0015 
142 1 1 -0.00618246 -0.0245765 0.0206505 0 0 0 0 0 -1.25531 0 0 -0.00160516 0 0 0 0.0025 
144 1 1 -0.0192798 0.00186917 0.0210794 0 0 0 0 0 -1.25197 0 0 -0.00160516 0 0 0 0.0025 
147 1 1 -0.0152079 -0.0157693 0.0243472 0 0 0 0 0 -1.22607 0 0 -0.000346714 0 0 0 0.0015 
154 1 1 -0.00679915 -0.012878 0.0245784 0 0 0 0 0 -1.22421 0 0 -0.000346714 0 0 0 0.0015 
150 1 1 -0.00623706 -0.0058896 0.0241491 0 0 0 0 0 -1.22764 0 0 -0.000346714 0 0 0 0.0015 
145 1 1 -0.00240788 0.00422687 0.0257303 0 0 0 0 0 -1.21499 0 0 -0.00160516 0 0 0 0.0025 
155 1 1 -0.0214963 -0.0266191 0.0268836 0 0 0 0 0 -1.20567 0 0 -0.00160516 0 0 0 0.0025 
163 1 1 -0.0251386 0.0339743 0.0275877 0 0 0 0 0 -1.19988 0 0 -0.000346714 0 0 0 0.0015 
165 1 1 -0.0326006 -0.0344541 0.0318128 0 0 0 0 0 -1.16486 0 0 -0.000346714 0 0 0 0.0015 
160 1 1 -0.023692 -0.0114622 0.0303227 0 0 0 0 0 -1.17732 0 0 -0.000346714 0 0 0 0.0015 
157 1 1 -0.00372425 -0.00768845 0.0323993 0 0 0 0 0 -1.15985 0 0 -0.00160516 0 0 0 0.0025 
161 1 1 -0.0310811 0.0209557 0.0332577 0 0 0 0 0 -1.15259 0 0 -0.000346714 0 0 0 0.0015 
159 1 1 -0.0229207 0.0293808 0.0311216 0 0 0 0 0 -1.17064 0 0 -0.000346714 0 0 0 0.0015 
158 1 1 -0.0239437 -0.00737998 0.0338212 0 0 0 0 0 -1.14779 0 0 -0.00160516 0 0 0 0.0025 
173 1 1 -0.0280772 0.00199937 0.0369409 0 0 0 0 0 -1.12081 0 0 -0.000346714 0 0 0 0.0015 
162 1 1 -0.00596878 0.00110293 0.0341175 0 0 0 0 0 -1.14524 0 0 -0.000346714 0 0 0 0.0015 
164 1 1 -0.0186593 0.0101406 0.0367296 0 0 0 0 0 -1.12267 0 0 -0.000346714 0 0 0 0.0015 
166 1 1 -0.0334498 0.0192376 0.0354779 0 0 0 0 0 -1.13356 0 0 -0.000346714 0 0 0 0.0015 
156 1 1 -0.0192512 0.0203811 0.0364276 0 0 0 0 0 -1.12532 0 0 -0.00160516 0 0 0 0.0025 
172 1 1 -0.0233162 -0.0257488 0.0386912 0 0 0 0 0 -1.10541 0 0 -0.000346714 0 0 0 0.0015 
175 1 1 -0.00243205 -0.0275788 0.0382945 0 0 0 0 0 -1.10894 0 0 -0.000346714 0 0 0 0.0015 
176 1 1 -0.0260626 -0.0145959 0.0374909 0 0 0 0 0 -1.116 0 0 -0.000346714 0 0 0 0.0015 
178 1 1 -0.0228627 0.00282045 0.0405101 0 0 0 0 0 -1.08912 0 0 -0.000346714 0 0 0 0.0015 
168 1 1 -0.0175477 0.0137467 0.039598 0 0 0 0 0 -1.09727 0 0 -0.00160516 0 0 0 0.0025 
170 1 1 -0.000114354 0.021065 0.0399618 0 0 0 0 0 -1.09403 0 0 -0.00160516 0 0 0 0.0025 
179 1 1 -0.0322154 -0.0246784 0.0435943 0 0 0 0 0 -1.06097 0 0 -0.000346714 0 0 0 0.0015 
171 1 1 -0.0180071 -0.0127461 0.041596 0 0 0 0 0 -1.07931 0 0 -0.000346714 0 0 0 0.0015 
167 1 1 -0.0273571 -0.0103215 0.0439783 0 0 0 0 0 -1.05744 0 0 -0.00160516 0 0 0 0.0025 
177 1 1 -0.01426 -0.0150654 0.0443745 0 0 0 0 0 -1.05371 0 0 -0.000346714 0 0 0 0.0015 
174 1 1 -0.0341304 -0.00318577 0.0451834 0 0 0 0 0 -1.04616 0 0 -0.000346714 0 0 0 0.0015 
182 1 1 -0.00169906 -0.0346379 0.0497982 0 0 0 0 0 -1.00201 0 0 -0.00160516 0 0 0 0.0025 
169 1 1 -0.0234861 -0.0194352 0.0483089 0 0 0 0 0 -1.01643 0 0 -0.00160516 0 0 0 0.0025 
186 1 1 -0.0106048 -0.00789334 0.0506128 0 0 0 -0 0 -1 0 0 0 0 0 0 0.0015 
192 1 1 -0.00264988 -0.0095541 0.0488163 0 0 0 0 0 -1.01153 0 0 -0.000346714 0 0 0 0.0015 
191 1 1 -0.0200733 -0.00130471 0.0491397 0 0 0 0 0 -1.00839 0 0 -0.000346714 0 0 0 0.0015 
185 1 1 -0.0184157 0.00363086 0.0484893 0 0 0 0 0 -1.01467 0 0 -0.000346714 0 0 0 0.0015 
180 1 1 -0.0258257 0.0147617 0.0504101 0 0 0 -0 0 -1 0 0 0 0 0 0 0.0025 
184 1 1 -0.00526421 0.027503 0.0504624 0 0 0 -0 0 -1 0 0 0 0 0 0 0.0015 
181 1 1 -0.0264666 -0.025466 0.0533729 0 0 0 -0 0 -1 0 0 0 0 0 0 0.0025 
190 1 1 -0.00998901 0.00893206 0.0534356 0 0 0 -0 0 -1 0 0 0 0 0 0 0.0015 
183 1 1 -0.0107488 0.0329346 0.0521218 0 0 0 -0 0 -1 0 0 0 0 0 0 0.0025 
188 1 1 -0.0196577 -0.024903 0.0554692 0 0 0 -0 0 -1 0 0 0 0 0 0 0.0015 
189 1 1 -0.0134549 0.0182926 0.0571778 0 0 0 -0 0 -1 0 0 0 0 0 0 0.0015 
187 1 1 -0.0249489 0.0269151 0.0559528 0 0 0 -0 0 -1 0 0 0 0 0 0 0.0015 
