ITEM: TIMESTEP
20400
ITEM: NUMBER OF ATOMS
269
ITEM: BOX BOUNDS ff ff ff
-0.5 0.1
-0.2 0.2
-0.4 0.15
ITEM: ATOMS id type type x y z ix iy iz vx vy vz fx fy fz omegax omegay omegaz radius 
38 1 1 -0.108518 0.0507098 -0.143466 0 0 0 -1.22535 0.483576 -0.336267 -6.73207e-05 -6.21829e-05 -5.88647e-05 -284.03 -857.371 -197.378 0.0015 
30 1 1 -0.0872094 -0.00993741 -0.140807 0 0 0 -0.925281 -0.12547 -0.37839 0 0 -0.00160516 -28.9997 -339.718 20.1153 0.0025 
4 1 1 -0.0869701 -0.00439009 -0.141586 0 0 0 -0.787102 0.00966184 -0.352752 0 0 -0.00160516 83.4534 -325.192 31.7619 0.0025 
31 1 1 -0.0830168 0.000483092 -0.140965 0 0 0 -0.876604 0.209771 -0.366867 0 0 -0.000346714 -61.8865 -623.916 -213.184 0.0015 
12 1 1 -0.0813193 0.00241608 -0.139157 0 0 0 -0.799712 0.281342 -0.423147 0 0 -0.000346714 -15.9453 -306.823 -211.842 0.0015 
5 1 1 -0.0812215 0.0165814 -0.139414 0 0 0 -0.824508 0.073954 -0.316522 -0.000819646 -0.000143635 0.00024562 -42.6709 -593.82 -28.5765 0.0015 
18 1 1 -0.0953385 0.0240722 -0.140041 0 0 0 -0.761856 -0.0901797 -0.70566 0 0 -0.000346714 109.333 -325.067 83.3711 0.0015 
36 1 1 -0.082768 -0.0307176 -0.137918 0 0 0 -0.864639 -0.0341598 -0.390033 0 0 -0.000346714 -23.8412 -591.739 136.862 0.0015 
8 1 1 -0.0771253 -0.00728519 -0.137987 0 0 0 -0.8862 0.217504 -0.383163 0 0 -0.000346714 -159.451 -619.987 10.0705 0.0015 
23 1 1 -0.0770188 0.00478377 -0.138403 0 0 0 -0.884845 -0.244061 -0.382342 -0.000109525 -1.26619e-06 9.42901e-05 147.631 -643.303 68.9074 0.0015 
35 1 1 -0.0762247 0.0123819 -0.137686 0 0 0 -0.876374 -0.234194 -0.386095 7.61472e-06 1.30096e-06 -0.000272062 168.426 -635.321 3.11167 0.0015 
33 1 1 -0.0617465 -0.0111977 -0.13171 0 0 0 -0.558146 0.210266 -0.264225 -0.00594474 0.000482692 0.0160714 -99.4007 -435.886 -143.748 0.0015 
50 1 1 -0.0667755 -0.0054866 -0.134071 0 0 0 -0.675984 -0.128664 -0.277889 -8.61838e-05 9.54913e-06 -4.32408e-05 163.81 -497.401 -168.114 0.0015 
24 1 1 -0.0820183 -0.00206686 -0.134417 0 0 0 -0.740387 0.234009 -0.689936 0 0 -0.000346714 53.5445 -226.738 38.1963 0.0015 
37 1 1 -0.0659075 -0.000697958 -0.133804 0 0 0 -0.727982 0.151647 -0.669801 0 0 -0.000346714 -91.909 -438.919 -4.95487 0.0015 
51 1 1 -0.0624766 0.00472557 -0.131893 0 0 0 -0.786797 0.342198 -0.367684 0 0 -0.000346714 -358.869 -509.613 -152.558 0.0015 
19 1 1 -0.0603313 0.00714044 -0.131178 0 0 0 -0.613598 0.282604 -0.229115 0 0 -0.000346714 -165.895 -427.797 -93.7877 0.0015 
3 1 1 -0.0700206 0.00944893 -0.13427 0 0 0 -0.717143 0.198763 -0.291697 -0.00174745 -0.000396168 0.0027882 -49.8539 -306.182 -86.8903 0.0025 
11 1 1 -0.0933709 0.0123874 -0.135778 0 0 0 -0.746853 -0.229155 -0.670601 0 0 -0.000346714 157.283 -192.671 339.666 0.0015 
47 1 1 -0.0725669 0.0254874 -0.13458 0 0 0 -1.02744 0.0233959 -0.446135 0 0 -0.000346714 -40.4259 -746.196 43.4119 0.0015 
26 1 1 -0.073092 -0.012173 -0.131337 0 0 0 -0.713165 0.23752 -0.607094 0 0 -0.00160516 -126.587 -244.829 33.724 0.0025 
72 1 1 -0.0757973 -0.0104789 -0.133753 0 0 0 -1.07151 -0.600612 -1.02038 0 0 -0.000346714 80.4639 141.469 456.975 0.0015 
2 1 1 -0.100446 -0.00167073 -0.130364 0 0 0 -0.737266 0.0484382 -0.557148 0 0 -0.00160516 -14.8336 -225.779 -6.37285e-15 0.0025 
16 1 1 -0.0596582 0.0144291 -0.129496 0 0 0 -0.785106 0.0106663 -0.307492 -0.00669527 -0.00198516 0.00970442 28.6893 -341.381 -73.9614 0.0025 
28 1 1 -0.0553243 -0.0266204 -0.126307 0 0 0 -0.630861 0.116288 -0.28606 -0.00087276 0.00032881 0.000783457 -58.0419 -274.796 16.3183 0.0025 
1 1 1 -0.048344 -0.0133033 -0.124831 0 0 0 -0.462598 -0.0303465 -0.206763 0 0 -0.00160516 -32.3341 -191.273 109.583 0.0025 
21 1 1 -0.0906515 -0.00624755 -0.128209 0 0 0 -0.738535 0.109544 -0.542006 0 0 -0.000346714 -128.412 -337.666 -66.8896 0.0015 
10 1 1 -0.0894101 -0.0036974 -0.125956 0 0 0 -0.742753 0.118605 -0.468295 0 0 -0.000346714 -59.56 -321.558 -66.8896 0.0015 
17 1 1 -0.0864769 0.00177953 -0.125371 0 0 0 -0.750204 0.0492702 -0.48619 0 0 -0.000346714 -41.8835 -370.436 -10.6104 0.0015 
60 1 1 -0.0521038 7.85221e-05 -0.127787 0 0 0 -0.617963 -0.0581696 -0.196343 0 0 -0.000346714 69.549 -420.227 -67.5545 0.0015 
39 1 1 -0.0480316 0.000114831 -0.125208 0 0 0 -0.598702 -0.0439891 -0.248732 -0.000431191 -4.18503e-05 -0.000100314 24.4411 -258.918 -13.0438 0.0025 
6 1 1 -0.088228 0.00439744 -0.126052 0 0 0 -0.729676 -0.109972 -0.523018 0 0 -0.000346714 55.6535 -369.268 6.21219e-14 0.0015 
44 1 1 -0.0457545 0.00507151 -0.125151 0 0 0 -0.54301 -0.0487692 -0.223075 6.09235e-06 -2.54499e-07 -0.000261562 17.9291 -255.524 17.5842 0.0015 
29 1 1 -0.0505122 0.00808068 -0.125978 0 0 0 -0.500563 0.0190274 -0.203612 -0.000214646 0.000139248 -0.00108463 26.9779 -213.864 -81.8701 0.0025 
88 1 1 -0.0469532 0.0153133 -0.125129 0 0 0 -0.714078 0.0127739 -0.276864 0 0 -0.000346714 71.231 -331.174 170.13 0.0015 
43 1 1 -0.0551149 0.0268872 -0.127089 0 0 0 -0.558399 0.106401 -0.139343 0 0 -0.000346714 21.937 -345.846 -267.146 0.0015 
42 1 1 -0.0557507 0.0307851 -0.12582 0 0 0 -0.606602 0.042738 -0.434496 -0.0236356 -0.0738136 0.149811 10.8698 -288.135 -46.2962 0.0025 
7 1 1 -0.0715151 -0.0658419 -0.122313 0 0 0 -0.619036 -0.260006 0.0076319 0 0 -0.000346714 126.408 -322.742 286.533 0.0015 
52 1 1 -0.0687655 -0.0194678 -0.120738 0 0 0 -0.812789 0.0768082 -0.246856 0 0 -0.00160516 180.623 136.053 124.935 0.0025 
71 1 1 -0.05649 -0.00383712 -0.123319 0 0 0 -1.09074 0.259136 -0.457873 0 0 -0.000346714 -163.435 -699.586 -17.6561 0.0015 
20 1 1 -0.0874447 -0.00167381 -0.124533 0 0 0 -0.740645 0.020497 -0.436901 0 0 -0.000346714 -55.6409 -360.561 -10.6104 0.0015 
65 1 1 -0.0436856 -0.00192862 -0.123071 0 0 0 -0.506032 -0.181795 -0.431011 0 0 -0.00160516 73.2714 242.048 44.0693 0.0025 
32 1 1 -0.0810149 0.00235176 -0.122074 0 0 0 -0.756912 0.0215037 -0.389477 0 0 -0.000346714 -11.0748 -389.824 7.37302e-16 0.0015 
25 1 1 -0.0543349 0.00479629 -0.123252 0 0 0 -0.671272 -0.229814 -0.616683 0 0 -0.000346714 78.5295 -387.218 -25.0826 0.0015 
27 1 1 -0.0432869 0.00463686 -0.121941 0 0 0 -0.568516 -0.159014 -0.210813 0 0 -0.00160516 56.2538 -123.28 -23.547 0.0025 
74 1 1 -0.0387321 0.00391853 -0.12124 0 0 0 -0.470969 -0.39589 -0.172415 0 0 -0.000346714 153.694 -100.042 -107.918 0.0015 
84 1 1 -0.051801 0.00704446 -0.122331 0 0 0 -0.64557 -0.0748796 -0.273651 0 0 -0.000346714 36.2499 262.927 92.7264 0.0015 
75 1 1 -0.0539958 0.0128147 -0.122803 0 0 0 -0.876601 0.161005 -0.164679 0 0 -0.000346714 -6.95269 -344.761 118.502 0.0015 
92 1 1 -0.0402806 0.0141745 -0.120918 0 0 0 -0.292294 0.218119 -0.0686395 0 0 -0.00160516 -77.5657 -108.881 -46.2228 0.0025 
54 1 1 -0.0415901 0.0209274 -0.121259 0 0 0 -0.633078 -0.116717 -0.275734 -0.000323373 -8.6655e-05 -0.000361056 51.1744 -275.69 -0.803513 0.0025 
34 1 1 -0.0464362 0.0267695 -0.121774 0 0 0 -0.709167 0.38484 -0.177543 0 0 -0.000346714 -163.532 -428.411 -311.04 0.0015 
63 1 1 -0.0393132 -0.0161188 -0.119337 0 0 0 -0.489561 -0.179729 -0.531844 0 0 -0.000346714 -132.737 24.7564 -23.806 0.0015 
22 1 1 -0.0700275 -0.0084824 -0.118683 0 0 0 -0.721152 0.128851 -0.536062 0 0 -0.000346714 -65.0767 -364.221 8.43618e-14 0.0015 
76 1 1 -0.0493779 -0.00491929 -0.119433 0 0 0 -0.924273 -0.176835 -0.379871 0 0 -0.000346714 -173.608 -707.796 -71.5395 0.0015 
78 1 1 -0.0520198 0.000430554 -0.119507 0 0 0 -0.643754 0.250415 -0.104506 0 0 -0.00160516 -86.5528 -216.904 -44.3712 0.0025 
49 1 1 -0.0640864 0.00105077 -0.121865 0 0 0 -0.55464 -0.0743018 -0.574717 0 0 -0.000346714 -3.44496 463.931 -9.78414 0.0015 
45 1 1 -0.0572461 0.0105244 -0.114348 0 0 0 -0.806305 -0.42317 0.576421 0 0 -0.000346714 389.887 -152.585 -138.964 0.0015 
85 1 1 -0.071425 0.0110742 -0.117578 0 0 0 -1.70626 -0.770248 -0.207429 0 0 -0.000346714 -992.473 989.332 -382.051 0.0015 
68 1 1 -0.0343438 0.014905 -0.117823 0 0 0 -0.41503 0.127396 -0.219639 0 0 -0.00160516 -12.4211 -83.7335 27.4549 0.0025 
62 1 1 -0.0289452 0.0215539 -0.116545 0 0 0 -0.430071 0.127339 -0.0916421 0 0 -0.000346714 -60.26 -328.743 97.9792 0.0015 
70 1 1 -0.0407623 0.0304835 -0.120633 0 0 0 -0.554913 -0.0348255 -0.240823 -8.7133e-05 -3.37452e-05 -4.16987e-05 61.648 -392.557 -85.2864 0.0015 
108 1 1 -0.0362443 0.0305195 -0.116288 0 0 0 -0.690242 -0.328967 0.0790544 0 0 -0.000346714 185.692 -394.795 28.3963 0.0015 
94 1 1 -0.0406363 0.0386366 -0.117263 0 0 0 -0.387989 0.234357 -0.0711233 0 0 -0.00160516 -77.2948 -134.657 -85.5277 0.0025 
9 1 1 -0.0481213 0.0518381 -0.118618 0 0 0 -0.176894 0.304463 0.0121975 -7.96074e-05 -5.43264e-05 -4.60513e-05 -228.938 -133.402 9.69573 0.0015 
41 1 1 -0.0674975 -0.0242988 -0.11672 0 0 0 -0.698503 -0.0541749 -0.172001 0 0 -0.00160516 -159.194 -215.037 5.0754 0.0025 
111 1 1 -0.0430764 -0.0138892 -0.117124 0 0 0 -1.05094 0.0549115 -0.852664 0 0 -0.000346714 -1.0939 5.78149 -84.4257 0.0015 
53 1 1 -0.0374953 -0.0137522 -0.116519 0 0 0 -0.74296 0.13761 -0.428614 0 0 -0.00160516 -26.2411 -144.015 80.0155 0.0025 
66 1 1 -0.0259826 -0.0154322 -0.113027 0 0 0 -0.278366 0.143587 0.0286064 0 0 -0.00160516 10.0849 -23.2759 -28.1852 0.0025 
15 1 1 -0.0296516 -0.0122756 -0.116227 0 0 0 -0.289202 0.189833 -0.0933482 0 0 -0.00160516 -79.889 -103.634 1.52487 0.0025 
48 1 1 -0.0785482 -0.00697725 -0.117475 0 0 0 -0.926663 0.481481 -0.389397 0 0 -0.000346714 27.3203 136.186 -30.5113 0.0015 
107 1 1 -0.0357795 -0.00533832 -0.115249 0 0 0 -0.836759 -0.0726373 0.116863 0 0 -0.00160516 29.1216 -276.497 13.0108 0.0025 
73 1 1 -0.0213126 -0.00786312 -0.113721 0 0 0 -0.648824 -0.260629 -0.232358 0 0 -0.000346714 146.554 -430.607 94.1338 0.0015 
91 1 1 -0.0381737 0.0011751 -0.114033 0 0 0 -0.545022 -0.292433 0.107186 0 0 -0.00160516 147.064 -153.598 -74.1367 0.0025 
95 1 1 -0.0266077 0.00182012 -0.11573 0 0 0 -0.306927 0.238639 -0.544595 0 0 -0.000346714 510.204 -769.935 -6.50776 0.0015 
104 1 1 -0.02374 -0.00160046 -0.11289 0 0 0 -0.572219 -0.505867 0.0236962 0 0 -0.00160516 202.551 -153.751 127.505 0.0025 
14 1 1 -0.0667306 0.00480412 -0.11809 0 0 0 -0.732633 -0.171112 -0.541881 0 0 -0.00160516 53.1334 -227.496 5.06761e-14 0.0025 
90 1 1 -0.0260046 0.00636561 -0.115658 0 0 0 -0.508721 -0.345159 -0.535734 0 0 -0.00160516 385.221 202.431 137.829 0.0025 
98 1 1 -0.0407754 0.0151322 -0.115241 0 0 0 -0.591527 -0.13881 0.0354418 0 0 -0.000346714 70.2628 -305.698 33.5383 0.0015 
93 1 1 -0.0300156 0.0172772 -0.116633 0 0 0 -0.341814 0.0243844 -0.116046 0 0 -0.00160516 5.55897 -58.3206 23.1722 0.0025 
13 1 1 -0.0267683 0.0163024 -0.112415 0 0 0 -0.465096 0.0401318 0.158289 0 0 -0.00160516 -56.5 -40.2411 -43.7451 0.0025 
82 1 1 -0.0291953 0.0337607 -0.115216 0 0 0 -0.61277 -0.00669268 -0.224319 0 0 -0.000346714 50.718 -403.681 218.724 0.0015 
79 1 1 -0.0465179 -0.0384884 -0.112287 0 0 0 -0.881514 -0.192444 -0.242274 0 0 -0.00160516 73.1144 -310.468 92.8732 0.0025 
102 1 1 -0.0445923 -0.0242634 -0.111697 0 0 0 -0.730519 0.300783 0.00307839 0 0 -0.000346714 -155.835 -378.48 -1.58522e-13 0.0015 
59 1 1 -0.0205845 -0.0148919 -0.113646 0 0 0 -0.403737 0.0452109 -0.281347 0 0 -0.000346714 -28.9945 -260.279 4.10075 0.0015 
55 1 1 -0.0536174 -0.0104759 -0.111197 0 0 0 -0.706771 0.253408 -0.227492 0 0 -0.00160516 -76.8102 -219.699 -17.9608 0.0025 
123 1 1 -0.0188661 -0.0115728 -0.112521 0 0 0 -1.18535 -0.0232359 -0.114574 0 0 -0.000346714 20.2737 -751.665 46.8031 0.0015 
56 1 1 -0.059208 -0.00899913 -0.112408 0 0 0 -0.718805 0.16698 -0.209385 0 0 -0.000346714 -85.5854 -368.423 1.07912e-13 0.0015 
114 1 1 -0.0194325 -0.00142567 -0.114089 0 0 0 -0.462668 -0.281272 -0.836573 0 0 -0.000346714 -323.507 -226.368 -114.338 0.0015 
110 1 1 -0.016282 0.00254872 -0.112117 0 0 0 -0.163223 0.0511769 -0.0102733 0 0 -0.000346714 -91.7454 -23.9077 189.228 0.0015 
57 1 1 -0.0570805 0.00395993 -0.112634 0 0 0 -0.744631 -0.134496 -0.234753 0 0 -0.000346714 69.7203 -386.005 -6.26036e-14 0.0015 
103 1 1 -0.0149811 0.0068632 -0.111206 0 0 0 -0.506005 0.291659 -0.267543 -0.0580641 -0.0151701 0.122561 -140.908 -213.908 -80.1878 0.0025 
87 1 1 -0.0410101 0.00707144 -0.110977 0 0 0 -0.752938 -0.135996 0.0312124 0 0 -0.000346714 69.2573 -383.441 -4.34912e-14 0.0015 
89 1 1 -0.0345885 0.0128107 -0.109851 0 0 0 -0.5528 0.273197 0.451212 0 0 -0.000346714 -314.22 -140.985 -64.0011 0.0015 
77 1 1 -0.0274445 0.0211197 -0.111063 0 0 0 -0.624795 0.145869 -0.1222 0 0 -0.00160516 2.52905 -188.42 -21.3295 0.0025 
58 1 1 -0.0382948 0.0227411 -0.111067 0 0 0 -0.54179 -0.119024 -0.389899 0 0 -0.000346714 207.663 -424.231 -92.2129 0.0015 
86 1 1 -0.0278922 0.0408177 -0.111619 0 0 0 0.106868 0.382353 -0.0287713 0 0 -0.000346714 143.893 -268.571 -191.358 0.0015 
97 1 1 -0.0347395 -0.0274418 -0.108105 0 0 0 -0.703963 0.289634 0.0643529 0 0 -0.000346714 -148.318 -360.491 6.00689e-14 0.0015 
80 1 1 -0.034434 -0.0206954 -0.105717 0 0 0 -0.699633 0.287853 0.00274531 0 0 -0.00160516 -89.5563 -217.669 2.17489e-14 0.0025 
115 1 1 -0.0258192 -0.0224176 -0.108335 0 0 0 -0.704941 0.290036 0.136167 0 0 -0.000346714 -148.193 -360.188 1.16897e-14 0.0015 
120 1 1 -0.0150882 -0.0206418 -0.108389 0 0 0 -0.666462 0.0703805 0.258272 0 0 -0.00160516 -56.3143 -234.039 -15.7448 0.0025 
113 1 1 -0.0483749 -0.0181517 -0.110724 0 0 0 -1.00478 -0.0874557 -0.566273 0 0 -0.000346714 226.102 83.844 139.827 0.0015 
101 1 1 -0.0166644 -0.0172244 -0.109863 0 0 0 -0.103876 0.16248 -0.824896 0 0 -0.000346714 -242.51 -555.266 -140.407 0.0015 
46 1 1 -0.0536576 -0.00662056 -0.109976 0 0 0 -0.8014 0.336696 -0.299421 0 0 -0.000346714 57.9112 -322.772 -138.011 0.0015 
40 1 1 -0.0491799 -0.00441483 -0.109711 0 0 0 -0.713952 0.262107 -0.400126 0 0 -0.00160516 -81.4948 -221.983 -4.47958e-14 0.0025 
83 1 1 -0.0279831 -0.00391992 -0.107779 0 0 0 -0.62625 0.159735 -0.137611 0 0 -0.000346714 -80.7065 -336.668 -48.6138 0.0015 
125 1 1 -0.0099424 -0.00405648 -0.107695 0 0 0 -0.522878 -0.0826034 0.311583 0 0 -0.000346714 -13.2324 -429.092 32.8282 0.0015 
112 1 1 -0.0121789 -0.00347741 -0.109819 0 0 0 -0.101323 0.075363 -0.585263 0 0 -0.000346714 386.958 -301.314 97.1187 0.0015 
81 1 1 -0.039002 0.00175129 -0.108027 0 0 0 -0.748691 -0.016841 -0.0485552 0 0 -0.000346714 8.58772 -381.78 -1.52841e-14 0.0015 
67 1 1 -0.0194258 0.000499948 -0.110329 0 0 0 -0.47078 -0.0436871 -0.930424 0 0 -0.00160516 143.112 60.7988 118.629 0.0025 
96 1 1 -0.0292741 0.0231034 -0.107803 0 0 0 -0.845457 -0.12801 0.113094 0 0 -0.000346714 246.884 -254.322 -70.0386 0.0015 
126 1 1 -0.0153968 -0.033128 -0.109166 0 0 0 -0.699386 0.287751 0.257714 0 0 -0.000346714 -148.359 -360.591 -1.04618e-13 0.0015 
106 1 1 -0.0109087 -0.0181906 -0.105275 0 0 0 -0.620376 0.172778 -0.0961642 0 0 -0.00160516 -63.7061 -218.109 5.21217 0.0025 
122 1 1 -0.0239478 -0.0149135 -0.109332 0 0 0 -0.849847 0.233384 -1.10366 0 0 -0.000346714 -48.8527 -95.0813 -19.2801 0.0015 
100 1 1 -0.0260509 -0.0128317 -0.104212 0 0 0 -0.579227 0.229689 0.0878921 0 0 -0.000346714 -212.708 -114.821 -170.59 0.0015 
105 1 1 -0.0131867 -0.00996877 -0.103626 0 0 0 -0.448178 -0.227332 0.0422463 0 0 -0.00160516 -170.507 -379.291 -6.77549 0.0025 
117 1 1 -0.014273 -0.00626524 -0.107295 0 0 0 -0.150329 -0.439417 -0.807619 0 0 -0.00160516 -73.3692 16.1578 71.499 0.0025 
69 1 1 -0.0340467 -0.00102965 -0.103605 0 0 0 -0.721155 -0.0267903 -0.117232 0 0 -0.000346714 13.5753 -365.427 2.76259e-15 0.0015 
64 1 1 -0.0398719 0.0064887 -0.104912 0 0 0 -0.717929 -0.0266705 -0.202388 0 0 -0.000346714 13.6638 -367.81 1.29697e-14 0.0015 
121 1 1 -0.0290047 0.00352617 -0.11147 0 0 0 0 0 -2.04158 0 0 -0.000346714 0 0 0 0.0015 
109 1 1 -0.01003 0.0123748 -0.102511 0 0 0 -0.707383 -0.18175 0.145919 0 0 -0.000346714 92.6606 -360.642 1.03599e-14 0.0015 
99 1 1 -0.0208614 0.0202473 -0.103014 0 0 0 -0.732365 -0.171049 0.0438377 0 0 -0.000346714 87.9167 -376.425 1.7442e-13 0.0015 
61 1 1 -0.0120405 0.0375251 -0.105111 0 0 0 -0.0258085 0.351569 -0.0156007 0 0 -0.000346714 -358.746 130.139 123.305 0.0015 
127 1 1 -0.0226472 -0.01104 -0.108323 0 0 0 0.0335993 0.0694899 -1.89977 0 0 -0.000346714 -129.015 126.481 -34.0766 0.0015 
128 1 1 -0.0218185 -0.000253125 -0.106659 0 0 0 -0.765763 -0.288022 -0.608227 0 0 -0.000346714 -143.176 -155.361 -107.116 0.0015 
116 1 1 -0.0158354 0.0147935 -0.109573 0 0 0 0 0 -2.03245 0 0 -0.00160516 0 0 0 0.0025 
124 1 1 -0.0114065 0.0295451 -0.107916 0 0 0 0 0 -2.02441 0 0 -0.000346714 0 0 0 0.0015 
138 1 1 -0.0188235 -0.0335238 -0.103442 0 0 0 0 0 -2.00263 0 0 -0.000346714 0 0 0 0.0015 
119 1 1 -0.00305739 0.031683 -0.103816 0 0 0 -0.175296 -0.0802386 -0.922828 -0.320574 -0.146737 1.16419 118.445 -258.766 -4.98958e-15 0.0025 
118 1 1 -0.00193271 -0.0127941 -0.102563 0 0 0 0 0 -1.99831 0 0 -0.00160516 0 0 0 0.0025 
131 1 1 -0.0142543 -0.0235946 -0.0960183 0 0 0 0 0 -1.96594 0 0 -0.00160516 0 0 0 0.0025 
132 1 1 -0.010147 0.00134815 -0.0973563 0 0 0 0 0 -1.97261 0 0 -0.00160516 0 0 0 0.0025 
139 1 1 -0.00401145 0.0125644 -0.0990816 0 0 0 0 0 -1.98115 0 0 -0.000346714 0 0 0 0.0015 
133 1 1 -0.0167258 0.0295222 -0.0991165 0 0 0 0 0 -1.98134 0 0 -0.000346714 0 0 0 0.0015 
130 1 1 -0.0316516 0.0258079 -0.0940803 0 0 0 0 0 -1.95623 0 0 -0.00160516 0 0 0 0.0025 
140 1 1 -0.0309894 0.0333632 -0.0943929 0 0 0 0 0 -1.9578 0 0 -0.000346714 0 0 0 0.0015 
137 1 1 -0.0331578 -0.0315972 -0.0910362 0 0 0 0 0 -1.94093 0 0 -0.000346714 0 0 0 0.0015 
136 1 1 -0.0156127 0.0122027 -0.0910005 0 0 0 0 0 -1.94073 0 0 -0.000346714 0 0 0 0.0015 
129 1 1 -0.0150343 -0.00254225 -0.086444 0 0 0 0 0 -1.91758 0 0 -0.00160516 0 0 0 0.0025 
141 1 1 -0.00445669 0.0136763 -0.0871769 0 0 0 0 0 -1.92131 0 0 -0.000346714 0 0 0 0.0015 
134 1 1 -0.021642 0.0141125 -0.0880773 0 0 0 0 0 -1.92592 0 0 -0.000346714 0 0 0 0.0015 
135 1 1 -0.00584464 0.0229092 -0.0887525 0 0 0 0 0 -1.92935 0 0 -0.000346714 0 0 0 0.0015 
149 1 1 -0.0237179 -0.0143876 -0.0841727 0 0 0 0 0 -1.9059 0 0 -0.000346714 0 0 0 0.0015 
153 1 1 -0.00430721 -0.0251385 -0.0794361 0 0 0 0 0 -1.88138 0 0 -0.000346714 0 0 0 0.0015 
143 1 1 -0.0076982 0.0115519 -0.0793401 0 0 0 0 0 -1.88089 0 0 -0.00160516 0 0 0 0.0025 
146 1 1 -0.0337656 -0.0129184 -0.0767378 0 0 0 0 0 -1.86725 0 0 -0.000346714 0 0 0 0.0015 
152 1 1 -0.0189158 0.00679958 -0.0771136 0 0 0 0 0 -1.86922 0 0 -0.000346714 0 0 0 0.0015 
148 1 1 -0.00630817 0.0207644 -0.0770949 0 0 0 0 0 -1.86912 0 0 -0.000346714 0 0 0 0.0015 
151 1 1 -0.00353112 0.0264703 -0.0777275 0 0 0 0 0 -1.87245 0 0 -0.000346714 0 0 0 0.0015 
142 1 1 -0.00618246 -0.0245765 -0.0723258 0 0 0 0 0 -1.84391 0 0 -0.00160516 0 0 0 0.0025 
144 1 1 -0.0192798 0.00186917 -0.0716968 0 0 0 0 0 -1.84057 0 0 -0.00160516 0 0 0 0.0025 
147 1 1 -0.0152079 -0.0157693 -0.0668751 0 0 0 0 0 -1.81467 0 0 -0.000346714 0 0 0 0.0015 
154 1 1 -0.00679915 -0.012878 -0.0665321 0 0 0 0 0 -1.81281 0 0 -0.000346714 0 0 0 0.0015 
150 1 1 -0.00623706 -0.0058896 -0.0671674 0 0 0 0 0 -1.81624 0 0 -0.000346714 0 0 0 0.0015 
145 1 1 -0.00240788 0.00422687 -0.0648269 0 0 0 0 0 -1.80359 0 0 -0.00160516 0 0 0 0.0025 
155 1 1 -0.0214963 -0.0266191 -0.0631144 0 0 0 0 0 -1.79427 0 0 -0.00160516 0 0 0 0.0025 
163 1 1 -0.0251386 0.0339743 -0.062063 0 0 0 0 0 -1.78848 0 0 -0.000346714 0 0 0 0.0015 
160 1 1 -0.023692 -0.0114622 -0.0579742 0 0 0 0 0 -1.76592 0 0 -0.000346714 0 0 0 0.0015 
159 1 1 -0.0229207 0.0293808 -0.0567751 0 0 0 0 0 -1.75924 0 0 -0.000346714 0 0 0 0.0015 
165 1 1 -0.0326006 -0.0344541 -0.0557366 0 0 0 0 0 -1.75346 0 0 -0.000346714 0 0 0 0.0015 
157 1 1 -0.00372425 -0.00768845 -0.05485 0 0 0 0 0 -1.74845 0 0 -0.00160516 0 0 0 0.0025 
161 1 1 -0.0310811 0.0209557 -0.053556 0 0 0 0 0 -1.74119 0 0 -0.000346714 0 0 0 0.0015 
158 1 1 -0.0239437 -0.00737998 -0.0527041 0 0 0 0 0 -1.73639 0 0 -0.00160516 0 0 0 0.0025 
162 1 1 -0.00596878 0.00110293 -0.0522547 0 0 0 0 0 -1.73384 0 0 -0.000346714 0 0 0 0.0015 
166 1 1 -0.0334498 0.0192376 -0.0501939 0 0 0 0 0 -1.72216 0 0 -0.000346714 0 0 0 0.0015 
175 1 1 -0.00243205 -0.0275788 -0.0459 0 0 0 0 0 -1.69754 0 0 -0.000346714 0 0 0 0.0015 
176 1 1 -0.0260626 -0.0145959 -0.0471273 0 0 0 0 0 -1.7046 0 0 -0.000346714 0 0 0 0.0015 
173 1 1 -0.0280772 0.00199937 -0.0479657 0 0 0 0 0 -1.70941 0 0 -0.000346714 0 0 0 0.0015 
164 1 1 -0.0186593 0.0101406 -0.0482888 0 0 0 0 0 -1.71127 0 0 -0.000346714 0 0 0 0.0015 
156 1 1 -0.0192512 0.0203811 -0.0487498 0 0 0 0 0 -1.71392 0 0 -0.00160516 0 0 0 0.0025 
172 1 1 -0.0233162 -0.0257488 -0.0452913 0 0 0 0 0 -1.69401 0 0 -0.000346714 0 0 0 0.0015 
178 1 1 -0.0228627 0.00282045 -0.0424954 0 0 0 0 0 -1.67772 0 0 -0.000346714 0 0 0 0.0015 
168 1 1 -0.0175477 0.0137467 -0.043896 0 0 0 0 0 -1.68587 0 0 -0.00160516 0 0 0 0.0025 
170 1 1 -0.000114354 0.021065 -0.0433379 0 0 0 0 0 -1.68263 0 0 -0.00160516 0 0 0 0.0025 
171 1 1 -0.0180071 -0.0127461 -0.0408209 0 0 0 0 0 -1.66791 0 0 -0.000346714 0 0 0 0.0015 
179 1 1 -0.0322154 -0.0246784 -0.0377218 0 0 0 0 0 -1.64957 0 0 -0.000346714 0 0 0 0.0015 
177 1 1 -0.01426 -0.0150654 -0.036506 0 0 0 0 0 -1.64231 0 0 -0.000346714 0 0 0 0.0015 
167 1 1 -0.0273571 -0.0103215 -0.037126 0 0 0 0 0 -1.64604 0 0 -0.00160516 0 0 0 0.0025 
174 1 1 -0.0341304 -0.00318577 -0.035244 0 0 0 0 0 -1.63476 0 0 -0.000346714 0 0 0 0.0015 
182 1 1 -0.00169906 -0.0346379 -0.0279805 0 0 0 0 0 -1.59061 0 0 -0.00160516 0 0 0 0.0025 
169 1 1 -0.0234861 -0.0194352 -0.030335 0 0 0 0 0 -1.60503 0 0 -0.00160516 0 0 0 0.0025 
192 1 1 -0.00264988 -0.0095541 -0.0295333 0 0 0 0 0 -1.60013 0 0 -0.000346714 0 0 0 0.0015 
191 1 1 -0.0200733 -0.00130471 -0.0290215 0 0 0 0 0 -1.59699 0 0 -0.000346714 0 0 0 0.0015 
185 1 1 -0.0184157 0.00363086 -0.0300487 0 0 0 0 0 -1.60327 0 0 -0.000346714 0 0 0 0.0015 
186 1 1 -0.0106048 -0.00789334 -0.0266851 0 0 0 0 0 -1.58257 0 0 -0.000346714 0 0 0 0.0015 
180 1 1 -0.0258257 0.0147617 -0.0270045 0 0 0 0 0 -1.58453 0 0 -0.00160516 0 0 0 0.0025 
184 1 1 -0.00526421 0.027503 -0.026923 0 0 0 0 0 -1.58404 0 0 -0.000346714 0 0 0 0.0015 
181 1 1 -0.0264666 -0.025466 -0.0223544 0 0 0 0 0 -1.55549 0 0 -0.00160516 0 0 0 0.0025 
190 1 1 -0.00998901 0.00893206 -0.0222584 0 0 0 0 0 -1.5549 0 0 -0.000346714 0 0 0 0.0015 
183 1 1 -0.0107488 0.0329346 -0.0243076 0 0 0 0 0 -1.56775 0 0 -0.00160516 0 0 0 0.0025 
188 1 1 -0.0196577 -0.024903 -0.0191186 0 0 0 0 0 -1.53499 0 0 -0.000346714 0 0 0 0.0015 
187 1 1 -0.0249489 0.0269151 -0.018374 0 0 0 0 0 -1.53018 0 0 -0.000346714 0 0 0 0.0015 
200 1 1 -0.0201644 -0.0275601 -0.015864 0 0 0 0 0 -1.51399 0 0 -0.000346714 0 0 0 0.0015 
195 1 1 -0.00018665 -0.0192075 -0.0140388 0 0 0 0 0 -1.50212 0 0 -0.00160516 0 0 0 0.0025 
204 1 1 -0.0121862 -0.00588198 -0.0148776 0 0 0 0 0 -1.50762 0 0 -0.000346714 0 0 0 0.0015 
198 1 1 -0.0278654 0.00172744 -0.0141292 0 0 0 0 0 -1.50271 0 0 -0.000346714 0 0 0 0.0015 
189 1 1 -0.0134549 0.0182926 -0.0165096 0 0 0 0 0 -1.51821 0 0 -0.000346714 0 0 0 0.0015 
196 1 1 -0.0173269 -0.0294256 -0.0108602 0 0 0 0 0 -1.48123 0 0 -0.00160516 0 0 0 0.0025 
205 1 1 -0.00546888 -0.024539 -0.0106826 0 0 0 0 0 -1.48005 0 0 -0.000346714 0 0 0 0.0015 
193 1 1 -0.0232114 -0.0230043 -0.00873589 0 0 0 0 0 -1.4671 0 0 -0.00160516 0 0 0 0.0025 
201 1 1 -0.00148336 -0.00863773 -0.00687739 0 0 0 0 0 -1.45464 0 0 -0.000346714 0 0 0 0.0015 
197 1 1 -0.0244014 0.0243576 -0.00947149 0 0 0 0 0 -1.47201 0 0 -0.000346714 0 0 0 0.0015 
203 1 1 -0.0317899 0.0348276 -0.00984329 0 0 0 0 0 -1.47446 0 0 -0.000346714 0 0 0 0.0015 
194 1 1 -0.0299737 -0.0249092 -0.00391444 0 0 0 0 0 -1.43453 0 0 -0.00160516 0 0 0 0.0025 
199 1 1 -0.0209901 0.00167617 -0.00428144 0 0 0 0 0 -1.43699 0 0 -0.000346714 0 0 0 0.0015 
202 1 1 -0.00237574 0.0349629 -0.00546956 0 0 0 0 0 -1.44513 0 0 -0.000346714 0 0 0 0.0015 
212 1 1 -0.0118483 0.00949823 0.000494841 0 0 0 0 0 -1.40402 0 0 -0.000346714 0 0 0 0.0015 
215 1 1 -0.0133438 0.0300767 7.72616e-06 0 0 0 0 0 -1.40746 0 0 -0.000346714 0 0 0 0.0015 
216 1 1 -0.00916175 0.0316192 0.000259674 0 0 0 0 0 -1.40569 0 0 -0.000346714 0 0 0 0.0015 
218 1 1 -0.0116971 -0.0149443 0.004363 0 0 0 0 0 -1.37675 0 0 -0.000346714 0 0 0 0.0015 
217 1 1 -0.00525173 0.0148756 0.00214794 0 0 0 0 0 -1.39245 0 0 -0.000346714 0 0 0 0.0015 
209 1 1 -0.00795 0.0273623 0.00130487 0 0 0 0 0 -1.39834 0 0 -0.00160516 0 0 0 0.0025 
206 1 1 -0.0315415 -0.0266248 0.00801263 0 0 0 0 0 -1.35046 0 0 -0.00160516 0 0 0 0.0025 
207 1 1 -0.014731 -0.00384992 0.00664344 0 0 0 0 0 -1.36037 0 0 -0.00160516 0 0 0 0.0025 
211 1 1 -0.0325497 0.0284222 0.00570752 0 0 0 0 0 -1.36714 0 0 -0.000346714 0 0 0 0.0015 
214 1 1 -0.000147874 -0.0328927 0.0107479 0 0 0 0 0 -1.33045 0 0 -0.000346714 0 0 0 0.0015 
213 1 1 -0.0258692 -0.0150214 0.0102963 0 0 0 0 0 -1.33379 0 0 -0.000346714 0 0 0 0.0015 
208 1 1 -0.0313425 0.0167345 0.00834077 0 0 0 0 0 -1.34811 0 0 -0.00160516 0 0 0 0.0025 
210 1 1 -0.0220067 0.0311963 0.00832683 0 0 0 0 0 -1.34821 0 0 -0.00160516 0 0 0 0.0025 
219 1 1 -0.0126988 -0.0187384 0.0148494 0 0 0 0 0 -1.29984 0 0 -0.00160516 0 0 0 0.0025 
223 1 1 -0.0141421 0.000627184 0.0142263 0 0 0 0 0 -1.30455 0 0 -0.000346714 0 0 0 0.0015 
226 1 1 -0.0256746 -0.0295973 0.0158411 0 0 0 0 0 -1.29239 0 0 -0.000346714 0 0 0 0.0015 
227 1 1 -0.0125397 -0.025785 0.0183803 0 0 0 0 0 -1.27296 0 0 -0.000346714 0 0 0 0.0015 
228 1 1 -0.0186146 -0.0100891 0.0157338 0 0 0 0 0 -1.29317 0 0 -0.000346714 0 0 0 0.0015 
224 1 1 -0.0104339 -0.00964248 0.0176147 0 0 0 0 0 -1.27885 0 0 -0.000346714 0 0 0 0.0015 
229 1 1 -0.0206785 0.0145985 0.0168397 0 0 0 0 0 -1.28474 0 0 -0.000346714 0 0 0 0.0015 
230 1 1 -0.0158011 0.0337207 0.018788 0 0 0 0 0 -1.26982 0 0 -0.000346714 0 0 0 0.0015 
240 1 1 -0.0114835 -0.0265679 0.0255682 0 0 0 0 0 -1.21626 0 0 -0.000346714 0 0 0 0.0015 
225 1 1 -0.0349321 -0.00790873 0.0237071 0 0 0 0 0 -1.23117 0 0 -0.000346714 0 0 0 0.0015 
221 1 1 -0.03004 0.0154412 0.0249948 0 0 0 0 0 -1.22087 0 0 -0.00160516 0 0 0 0.0025 
220 1 1 -0.0245784 0.0311922 0.0256786 0 0 0 0 0 -1.21538 0 0 -0.00160516 0 0 0 0.0025 
239 1 1 -0.004822 -0.0263713 0.0279115 0 0 0 0 0 -1.19723 0 0 -0.000346714 0 0 0 0.0015 
231 1 1 -0.0172445 0.00368684 0.0267742 0 0 0 0 0 -1.20655 0 0 -0.00160516 0 0 0 0.0025 
232 1 1 -0.0305153 0.021925 0.028236 0 0 0 0 0 -1.19458 0 0 -0.00160516 0 0 0 0.0025 
222 1 1 -0.00133775 0.0319388 0.0262006 0 0 0 0 0 -1.21116 0 0 -0.00160516 0 0 0 0.0025 
236 1 1 -0.011765 -0.0317196 0.0310343 0 0 0 0 0 -1.17133 0 0 -0.000346714 0 0 0 0.0015 
238 1 1 -0.00523715 -0.00399455 0.031646 0 0 0 0 0 -1.16623 0 0 -0.000346714 0 0 0 0.0015 
235 1 1 -0.00913613 0.0130219 0.0329895 0 0 0 0 0 -1.15485 0 0 -0.000346714 0 0 0 0.0015 
243 1 1 -0.0312596 -0.0342874 0.0366651 0 0 0 0 0 -1.12326 0 0 -0.000346714 0 0 0 0.0015 
237 1 1 -0.0276781 -0.0346784 0.034696 0 0 0 0 0 -1.14033 0 0 -0.000346714 0 0 0 0.0015 
234 1 1 -0.00624641 -0.0254844 0.0344417 0 0 0 0 0 -1.14249 0 0 -0.00160516 0 0 0 0.0025 
233 1 1 -0.0140583 -0.0235405 0.036717 0 0 0 0 0 -1.12277 0 0 -0.00160516 0 0 0 0.0025 
242 1 1 -0.024936 0.00943572 0.0337423 0 0 0 0 0 -1.14847 0 0 -0.000346714 0 0 0 0.0015 
241 1 1 -0.0178674 0.023228 0.0342024 0 0 0 0 0 -1.14455 0 0 -0.000346714 0 0 0 0.0015 
256 1 1 -0.0202693 -0.0311084 0.0399414 0 0 0 0 0 -1.09423 0 0 -0.000346714 0 0 0 0.0015 
247 1 1 -0.00778825 -0.017605 0.0380919 0 0 0 0 0 -1.11071 0 0 -0.00160516 0 0 0 0.0025 
248 1 1 -0.00508252 -0.00729713 0.0394453 0 0 0 0 0 -1.09864 0 0 -0.000346714 0 0 0 0.0015 
249 1 1 -0.000908632 0.0183203 0.0384031 0 0 0 0 0 -1.10796 0 0 -0.000346714 0 0 0 0.0015 
255 1 1 -0.0103972 0.0260911 0.0375969 0 0 0 0 0 -1.11502 0 0 -0.000346714 0 0 0 0.0015 
254 1 1 -0.0334625 0.0326024 0.0388152 0 0 0 0 0 -1.10433 0 0 -0.000346714 0 0 0 0.0015 
253 1 1 -0.0330193 -0.0287184 0.0442626 0 0 0 0 0 -1.05479 0 0 -0.000346714 0 0 0 0.0015 
251 1 1 -0.0322818 -0.0136491 0.0413225 0 0 0 0 0 -1.08177 0 0 -0.000346714 0 0 0 0.0015 
250 1 1 -0.0242205 -0.0101411 0.0413668 0 0 0 0 0 -1.08137 0 0 -0.000346714 0 0 0 0.0015 
246 1 1 -0.00133703 0.00391048 0.0422943 0 0 0 0 0 -1.07294 0 0 -0.00160516 0 0 0 0.0025 
252 1 1 -0.0171169 0.0130299 0.0410387 0 0 0 0 0 -1.08432 0 0 -0.000346714 0 0 0 0.0015 
244 1 1 -0.0304516 0.017575 0.0426905 0 0 0 0 0 -1.06931 0 0 -0.00160516 0 0 0 0.0025 
245 1 1 -0.0327952 0.00273344 0.0451564 0 0 0 0 0 -1.04645 0 0 -0.00160516 0 0 0 0.0025 
265 1 1 -0.0282211 -0.0123493 0.0480556 0 0 0 0 0 -1.01888 0 0 -0.000346714 0 0 0 0.0015 
267 1 1 -0.0169822 0.00918438 0.0493882 0 0 0 0 0 -1.00594 0 0 -0.000346714 0 0 0 0.0015 
264 1 1 -0.0266383 0.0211746 0.0507283 0 0 0 -0 0 -1 0 0 0 0 0 0 0.0015 
269 1 1 -0.0323156 0.0257586 0.048916 0 0 0 0 0 -1.01055 0 0 -0.000346714 0 0 0 0.0015 
258 1 1 -0.000691472 -0.0346461 0.0548905 0 0 0 -0 0 -1 0 0 0 0 0 0 0.0025 
262 1 1 -0.0242312 -0.0119118 0.0521062 0 0 0 -0 0 -1 0 0 0 0 0 0 0.0015 
261 1 1 -0.0084722 -0.0123243 0.0544276 0 0 0 -0 0 -1 0 0 0 0 0 0 0.0015 
259 1 1 -0.0181876 -0.00799419 0.0548941 0 0 0 -0 0 -1 0 0 0 0 0 0 0.0025 
257 1 1 -0.016367 0.0234551 0.0532031 0 0 0 -0 0 -1 0 0 0 0 0 0 0.0025 
266 1 1 -0.0319423 -0.0207084 0.0557055 0 0 0 -0 0 -1 0 0 0 0 0 0 0.0015 
268 1 1 -0.0332043 -0.0119457 0.055236 0 0 0 -0 0 -1 0 0 0 0 0 0 0.0015 
263 1 1 -0.0266867 0.00969496 0.0560197 0 0 0 -0 0 -1 0 0 0 0 0 0 0.0015 
260 1 1 -0.0345837 0.0307765 0.0560007 0 0 0 -0 0 -1 0 0 0 0 0 0 0.0025 
