ITEM: TIMESTEP
28800
ITEM: NUMBER OF ATOMS
371
ITEM: BOX BOUNDS ff ff ff
-0.5 0.1
-0.2 0.2
-0.4 0.15
ITEM: ATOMS id type type x y z ix iy iz vx vy vz fx fy fz omegax omegay omegaz radius 
30 1 1 -0.17059 -0.0154044 -0.176096 0 0 0 -1.09191 -0.0358498 -0.463842 0 0 -0.00160516 -1.53766 -470.956 41.4159 0.0025 
11 1 1 -0.166772 -0.00378224 -0.176287 0 0 0 -1.02381 -0.136269 -0.421383 -2.02078e-05 8.44476e-07 -0.000143525 -18.6613 -734.532 284.039 0.0015 
2 1 1 -0.169335 0.00325369 -0.176364 0 0 0 -0.936341 0.0666589 -0.399113 -0.00177855 4.15811e-07 0.00293921 -23.5155 -407.368 -13.1138 0.0025 
18 1 1 -0.168243 0.00860446 -0.176632 0 0 0 -0.969123 -0.220099 -0.423138 -0.000222732 -4.07348e-05 0.000239298 142.198 -707.023 41.9402 0.0015 
21 1 1 -0.161807 -0.00378821 -0.174174 0 0 0 -0.873615 -0.0463252 -0.369532 0 0 -0.000346714 62.4579 -510.441 -131.48 0.0015 
10 1 1 -0.155359 -0.00176023 -0.171493 0 0 0 -0.746891 -0.0453824 -0.307863 2.13393e-05 3.66557e-05 9.12473e-06 -76.6935 -214.269 44.306 0.0015 
31 1 1 -0.165679 0.017168 -0.174858 0 0 0 -1.09209 0.178545 -0.4403 -2.40771e-05 -2.45886e-06 -0.000192598 -41.2261 -773.748 -211.449 0.0015 
47 1 1 -0.167493 0.0241439 -0.17453 0 0 0 -1.22715 -0.0575189 -0.528355 -9.68376e-05 -4.46686e-05 -1.82316e-05 24.6064 -910.468 41.9985 0.0015 
36 1 1 -0.164123 -0.0292152 -0.172197 0 0 0 -1.06495 0.0675888 -0.478341 0 0 -0.000346714 -103.683 -749.632 136.808 0.0015 
4 1 1 -0.159142 -0.00817248 -0.171866 0 0 0 -0.943776 -0.0410862 -0.40155 -0.000414623 5.54872e-05 -0.000171165 25.0781 -412.445 -16.7551 0.0025 
20 1 1 -0.155056 0.00117663 -0.169782 0 0 0 -0.880117 0.102881 -0.396793 0 0 -0.000346714 -59.8742 -502.405 -25.8062 0.0015 
8 1 1 -0.148357 0.00157607 -0.168528 0 0 0 -0.814516 0.0215109 -0.373606 0 0 -0.000346714 55.6578 -578.187 -173.844 0.0015 
6 1 1 -0.151194 0.00424027 -0.169706 0 0 0 -0.798532 0.0300187 -0.343817 -0.00066283 0.000173255 0.0010136 -69.2402 -582.558 110.818 0.0015 
17 1 1 -0.16331 0.0108228 -0.172859 0 0 0 -1.12554 0.226387 -0.691934 0 0 -0.000346714 -53.5625 69.6297 -123.256 0.0015 
24 1 1 -0.15272 0.0109675 -0.169977 0 0 0 -0.906609 0.159823 -0.359866 0 0 -0.000346714 -83.5161 -647.707 -78.9002 0.0015 
5 1 1 -0.158636 0.020577 -0.171514 0 0 0 -1.02684 0.0135861 -0.41708 -5.9682e-05 -3.55821e-05 0.000265615 2.37006 -746.086 -28.9893 0.0015 
12 1 1 -0.154591 0.020674 -0.169831 0 0 0 -0.974691 0.187557 -0.406641 -4.59754e-05 -1.51513e-05 6.16658e-05 -26.4962 -686.612 -254.478 0.0015 
38 1 1 -0.2196 0.0783542 -0.169948 0 0 0 -1.40444 0.146001 -0.316675 0 0 -0.000346714 -70.9786 -1031.58 -223.408 0.0015 
72 1 1 -0.162735 -0.0502511 -0.165576 0 0 0 -1.14784 -0.387316 -0.373996 0 0 -0.000346714 102.052 -667.116 517.041 0.0015 
23 1 1 -0.149102 -0.00569399 -0.166898 0 0 0 -0.921224 -0.155132 -0.557181 0 0 -0.000346714 43.4785 -160.849 -53.908 0.0015 
35 1 1 -0.144537 -0.00312871 -0.167 0 0 0 -0.80515 -0.110275 -0.34131 -8.95003e-05 6.38417e-06 -3.851e-05 54.6468 -582.608 59.3245 0.0015 
32 1 1 -0.147754 0.00454965 -0.168174 0 0 0 -0.871947 0.055844 -0.36339 0 0 -0.000346714 -45.6616 -626.478 10.331 0.0015 
26 1 1 -0.144489 0.00932546 -0.165588 0 0 0 -0.959791 0.248909 -0.408634 -0.00034524 -1.71015e-05 -0.000498758 -124.722 -419.426 37.0633 0.0025 
37 1 1 -0.140751 0.0108273 -0.164867 0 0 0 -0.908804 0.181475 -0.360935 0 0 -0.000346714 -134.698 -612.085 -32.5492 0.0015 
48 1 1 -0.154852 0.0290773 -0.16698 0 0 0 -0.851784 0.26435 -0.331204 0 0 -0.000346714 -128.544 -547.157 -185.461 0.0015 
85 1 1 -0.214751 -0.0536266 -0.169612 0 0 0 -1.70626 -0.770248 -1.03147 0 0 -0.000346714 -992.473 989.332 -382.051 0.0015 
14 1 1 -0.134025 -0.00684472 -0.161326 0 0 0 -0.903385 -0.111109 -0.372751 -0.000427085 2.42326e-05 -0.000120883 49.8213 -391.797 -3.96055 0.0025 
22 1 1 -0.14041 -0.00108807 -0.165096 0 0 0 -0.930495 0.0669478 -0.607799 0 0 -0.000346714 -44.8957 -616.978 -13.0292 0.0015 
71 1 1 -0.134518 0.00218259 -0.162743 0 0 0 -1.02941 0.0542192 -0.423657 -3.56118e-05 -4.52719e-06 -7.07452e-05 -44.1829 -743.541 12.4529 0.0015 
3 1 1 -0.139571 0.0239626 -0.16191 0 0 0 -0.930217 0.142888 -0.385307 -0.000554458 -0.000171768 0.00016471 -26.3596 -398.04 -83.949 0.0025 
52 1 1 -0.13469 -0.0165339 -0.16012 0 0 0 -0.729045 -0.0883898 -0.371646 0 0 -0.00160516 -10.5894 -232.885 81.0118 0.0025 
50 1 1 -0.131102 -0.0138782 -0.160728 0 0 0 -0.720073 0.00162742 -0.301769 0 0 -0.000346714 8.17426 -434.29 -93.3815 0.0015 
76 1 1 -0.131181 -0.0118353 -0.157103 0 0 0 -0.915748 0.0651395 -0.20392 0 0 -0.000346714 -120.303 -383.935 -9.27578 0.0015 
57 1 1 -0.127889 0.00138347 -0.159183 0 0 0 -0.946085 -0.0197158 -0.482029 0 0 -0.000346714 -24.4574 -646.54 92.5143 0.0015 
49 1 1 -0.126681 0.00886501 -0.159067 0 0 0 -0.691048 0.0757593 -0.278497 -8.66609e-05 -1.36294e-05 -3.64162e-05 -24.9516 -494.397 -72.5768 0.0015 
16 1 1 -0.130403 0.0175301 -0.158894 0 0 0 -0.92953 0.0262514 -0.374555 -0.000391404 -0.000135856 -0.000186445 27.5755 -391.584 -95.8742 0.0025 
75 1 1 -0.128053 0.0233253 -0.158175 0 0 0 -0.920506 0.0382611 -0.366009 0 0 -0.000346714 -49.9589 -670.247 49.2755 0.0015 
51 1 1 -0.137553 0.0305981 -0.160861 0 0 0 -0.983729 0.253817 -0.338489 -8.1221e-05 -4.57283e-05 -4.34421e-05 -110.779 -680.148 -188.055 0.0015 
41 1 1 -0.128678 -0.0260612 -0.155863 0 0 0 -0.858225 0.120386 -0.376058 0 0 -0.00160516 -82.6577 -331.068 75.4148 0.0025 
113 1 1 -0.125837 -0.0234849 -0.157195 0 0 0 -0.791229 0.0736683 -0.383265 0 0 -0.000346714 -130.56 -526.395 167.981 0.0015 
25 1 1 -0.116914 -0.010806 -0.154797 0 0 0 -0.734283 0.117266 -0.288838 0 0 -0.000346714 -4.58336 -491.201 152.141 0.0015 
33 1 1 -0.113975 0.00400327 -0.154069 0 0 0 -0.553043 0.0820408 -0.234562 -8.79396e-05 -5.13347e-07 -4.11377e-05 8.20574 -400.334 -159.33 0.0015 
56 1 1 -0.121923 0.00491932 -0.156059 0 0 0 -0.895238 0.154178 -0.317115 0 0 -0.000346714 -116.04 -603.34 9.04211 0.0015 
46 1 1 -0.117672 0.012489 -0.154795 0 0 0 -0.793702 0.230293 -0.386839 0 0 -0.000346714 129.914 -467.795 20.478 0.0015 
28 1 1 -0.117365 -0.0147375 -0.153521 0 0 0 -0.86952 0.0601076 -0.323799 0 0 -0.00160516 -48.5343 -350.388 59.9442 0.0025 
60 1 1 -0.110714 -0.00511126 -0.152698 0 0 0 -0.800781 -0.064588 -0.336941 -8.61086e-05 1.18645e-07 -3.76211e-05 75.1488 -579.485 -67.6008 0.0015 
55 1 1 -0.117106 0.00845372 -0.153782 0 0 0 -0.903297 0.146913 -0.395659 0 0 -0.00160516 -65.0151 -355.777 17.4126 0.0025 
19 1 1 -0.114516 0.01373 -0.153695 0 0 0 -0.731239 0.0164712 -0.308004 -8.84709e-05 -1.49824e-05 -3.83587e-05 -3.45944 -529.267 -20.0907 0.0015 
40 1 1 -0.111132 0.0134677 -0.151198 0 0 0 -0.78019 0.189658 -0.316112 -0.000650646 -0.000109327 0.00031176 -95.7031 -342.174 30.9389 0.0025 
78 1 1 -0.114153 0.0207862 -0.151695 0 0 0 -0.834255 0.163172 -0.323237 -0.000416674 -0.000151468 -0.000153685 -52.6646 -358.552 -45.0789 0.0025 
42 1 1 -0.120714 0.0297298 -0.153083 0 0 0 -0.872612 -0.05625 -0.373518 -0.000382112 -0.000218583 -0.00022055 42.2608 -376.878 -41.9757 0.0025 
79 1 1 -0.124409 -0.0514046 -0.148599 0 0 0 -1.02243 -0.0766838 -0.390828 -0.000355174 0.000262978 -0.000300836 -4.831 -429.417 96.9686 0.0025 
1 1 1 -0.102254 -0.0149616 -0.14741 0 0 0 -0.754101 -0.0105633 -0.317223 2.7614e-05 -3.93948e-05 -0.00166798 -40.5581 -320.921 107.637 0.0025 
53 1 1 -0.101754 -0.00844472 -0.147609 0 0 0 -0.828712 0.070538 -0.356263 -0.000363413 5.38945e-05 -0.000269159 -27.0885 -361.489 -8.57642 0.0025 
39 1 1 -0.106895 -0.00402253 -0.149923 0 0 0 -0.785878 -0.0510141 -0.337302 0 0 -0.00160516 27.861 -334.557 -13.8781 0.0025 
84 1 1 -0.100638 6.15142e-05 -0.14844 0 0 0 -0.56597 -0.090552 -0.237901 -8.82704e-05 -1.22789e-06 -3.74337e-05 31.9612 -409.84 79.9549 0.0015 
29 1 1 -0.101498 0.00851164 -0.147524 0 0 0 -0.717293 -0.0189827 -0.307519 -0.000515386 -8.53165e-05 0.000140377 40.5211 -307.217 -75.8023 0.0025 
88 1 1 -0.100649 0.0142291 -0.147758 0 0 0 -0.698029 -0.054191 -0.321633 0 0 -0.000346714 -58.3721 -281.911 -25.0833 0.0015 
43 1 1 -0.109387 0.0257651 -0.15004 0 0 0 -0.744798 -0.0561076 -0.318522 -7.594e-05 -2.52567e-05 -7.79165e-05 125.081 -512.672 -201.796 0.0015 
111 1 1 -0.106498 -0.00891967 -0.147149 0 0 0 -0.731541 0.0594779 -0.697323 0 0 -0.000346714 30.7175 221.295 -96.1964 0.0015 
27 1 1 -0.0925112 -0.00859575 -0.143709 0 0 0 -0.670288 -0.145968 -0.277261 0.000542043 0.000232595 -0.00273281 70.1979 -292.496 -14.8437 0.0025 
87 1 1 -0.105208 -0.0039725 -0.145923 0 0 0 -0.805118 -0.0949065 -0.257142 0 0 -0.000346714 -16.4536 348.365 -15.8707 0.0015 
44 1 1 -0.0960809 0.00204197 -0.146504 0 0 0 -0.698246 -0.0390147 -0.296878 -8.905e-05 -1.90102e-06 -3.78258e-05 14.9583 -506.3 31.3552 0.0015 
64 1 1 -0.099667 0.00312136 -0.147812 0 0 0 -0.674145 -0.267911 -0.21071 0 0 -0.000346714 143.093 -463.026 120.339 0.0015 
98 1 1 -0.0911151 0.00348079 -0.14381 0 0 0 -0.718338 -0.13745 -0.208531 0 0 -0.000346714 83.0988 -483.258 36.7599 0.0015 
54 1 1 -0.0986695 0.0115284 -0.144696 0 0 0 -0.64532 -0.048441 -0.340603 0 0 -0.00160516 16.4584 -185.844 -40.6422 0.0025 
58 1 1 -0.0984123 0.0158627 -0.145829 0 0 0 -0.70661 -0.0385675 -0.204509 0 0 -0.000346714 2.27784 -399.387 -102.808 0.0015 
70 1 1 -0.0960423 0.024165 -0.144697 0 0 0 -0.760278 -0.115422 -0.33399 -8.51573e-05 -3.23384e-05 -4.2837e-05 119.569 -541.495 -85.045 0.0015 
34 1 1 -0.113356 0.0544871 -0.144177 0 0 0 -0.905122 0.252281 -0.28669 -6.64809e-05 -5.19483e-05 -8.62445e-05 -63.2858 -579.493 -310.153 0.0015 
138 1 1 -0.101642 -0.0410317 -0.143603 0 0 0 -1.09295 -0.0271198 -0.443287 -8.11896e-05 5.97495e-05 -5.08676e-05 -43.3497 -772.442 154.136 0.0015 
107 1 1 -0.10134 -0.0208565 -0.146328 0 0 0 -0.902752 -0.0521267 -0.201861 0.00770612 -0.00579361 -0.0314198 33.8753 -373.003 -4.20861 0.0025 
63 1 1 -0.0844118 -0.0186012 -0.140573 0 0 0 -0.631744 0.00956617 -0.268323 -8.76685e-05 2.56853e-05 -4.02547e-05 -36.817 -451.733 70.5773 0.0015 
128 1 1 -0.0814213 -0.0163895 -0.139583 0 0 0 -0.551659 -0.11181 -0.219347 9.90357e-06 0.000106496 -1.59061e-05 -0.676251 -239.343 -19.2272 0.0015 
65 1 1 -0.0814271 -0.0103836 -0.138928 0 0 0 -0.507751 -0.0641504 -0.209254 -0.000407205 5.12479e-05 -0.000174641 39.9989 -222.142 -28.9488 0.0025 
102 1 1 -0.106384 0.000821221 -0.14589 0 0 0 -0.761117 0.28785 -0.809713 0 0 -0.000346714 -169.789 -342.187 3.4528 0.0015 
81 1 1 -0.101277 -0.000900339 -0.144521 0 0 0 -0.737121 -0.0401257 -0.831286 0 0 -0.000346714 22.0777 -340.21 19.6179 0.0015 
108 1 1 -0.0942246 0.00288627 -0.144257 0 0 0 -0.690242 -0.328967 -0.744986 0 0 -0.000346714 185.692 -394.795 28.3963 0.0015 
83 1 1 -0.0835206 0.00914618 -0.140649 0 0 0 -0.748134 0.145228 -0.412058 0 0 -0.000346714 -84.463 -506.337 -53.9241 0.0015 
82 1 1 -0.0860635 0.0258546 -0.140245 0 0 0 -0.775692 -0.141691 -0.346475 -1.55062e-05 -0.000310628 -0.00117176 29.7899 -595.067 175.423 0.0015 
7 1 1 -0.128033 -0.0809628 -0.136169 0 0 0 -0.756249 -0.0433434 -0.22396 -6.03802e-05 0.000108754 -0.000118114 -58.9226 -440.524 284.657 0.0015 
74 1 1 -0.08037 -0.0235954 -0.138245 0 0 0 -0.585158 -0.289053 -0.213658 6.91695e-06 9.48781e-05 -6.38991e-05 233.145 -431.793 -55.5407 0.0015 
114 1 1 -0.0800057 -0.0189504 -0.138264 0 0 0 -0.775696 -0.132524 -0.266956 0 0 -0.000346714 25.6068 -516.944 185.242 0.0015 
91 1 1 -0.0837856 -0.00200873 -0.140085 0 0 0 -0.584867 0.0811288 -0.227118 0 0 -0.00160516 21.9443 -228.497 -70.2306 0.0025 
95 1 1 -0.0752761 -0.00169432 -0.137788 0 0 0 -0.671464 0.0562273 -0.28053 -8.82789e-05 -3.91229e-06 -3.70675e-05 -100.971 -488.407 143.788 0.0015 
73 1 1 -0.0707777 -0.000524537 -0.13588 0 0 0 -0.534091 -0.139543 -0.226564 -8.98656e-05 -3.98e-06 -3.34631e-05 164.943 -383.528 -152.613 0.0015 
93 1 1 -0.0744247 0.00324819 -0.136257 0 0 0 -0.688003 -0.158082 -0.291174 -0.000396242 -1.80134e-05 -0.000210201 35.1551 -300.12 79.8185 0.0025 
77 1 1 -0.0905532 0.0152375 -0.142173 0 0 0 -0.774182 -0.0820079 -0.72505 0 0 -0.00160516 -117.955 -11.1572 -67.4083 0.0025 
116 1 1 -0.0787222 0.0141349 -0.137303 0 0 0 -0.744784 -0.0656751 -0.30103 0 0 -0.00160516 27.3441 -104.366 37.3545 0.0025 
121 1 1 -0.101236 -0.0404296 -0.134328 0 0 0 -0.818457 -0.470085 -0.461262 0 0 -0.000346714 489.767 -176.371 -153.239 0.0015 
66 1 1 -0.0703944 -0.0145092 -0.134068 0 0 0 -0.732802 -0.0303291 -0.305484 -0.000405552 0.00011402 -0.000184482 -19.8901 -310.937 78.5835 0.0025 
127 1 1 -0.0624004 -0.00876672 -0.132079 0 0 0 -0.522487 -0.00376402 -0.219201 -7.34792e-05 8.14277e-06 -7.30237e-05 0.753803 -378.077 4.70941 0.0015 
122 1 1 -0.0846585 -0.00478406 -0.137145 0 0 0 -1.12358 -0.150894 -0.337264 0.0114384 0.0151646 -0.00620961 117.59 30.8888 -14.5833 0.0015 
15 1 1 -0.070584 -0.00450336 -0.134371 0 0 0 -0.814994 0.121827 -0.295083 0 0 -0.00160516 -54.0907 -339.755 6.77689 0.0025 
166 1 1 -0.069283 0.00757365 -0.135084 0 0 0 -0.71204 -0.248132 -0.307897 -8.9042e-05 -4.58907e-06 -3.79595e-05 60.115 -522.292 281.891 0.0015 
135 1 1 -0.0732868 0.0139638 -0.13607 0 0 0 -0.724715 -0.00619193 -0.355851 0 0 -0.000346714 -19.6646 -280.778 -198.804 0.0015 
139 1 1 -0.0771579 0.0186387 -0.13679 0 0 0 -0.944089 0.147195 -0.713488 0 0 -0.000346714 232.714 -588.143 97.9806 0.0015 
62 1 1 -0.0657661 0.0161024 -0.132933 0 0 0 -0.538986 -0.112829 -0.217852 0 0 -0.000346714 103.885 -366.184 -68.1034 0.0015 
68 1 1 -0.0688566 0.0207329 -0.132493 0 0 0 -0.486004 0.00305675 -0.226208 0 0 -0.00160516 0.535899 -201.149 -12.6455 0.0025 
92 1 1 -0.0712364 0.0266633 -0.13283 0 0 0 -0.466358 0.0979407 -0.176461 -0.000395407 -0.000164116 -0.000192157 -23.11 -196.375 -47.9171 0.0025 
149 1 1 -0.0620962 -0.0267012 -0.13021 0 0 0 -0.654777 -0.191659 -0.236974 0 0 -0.000346714 63.4117 -448.774 185.523 0.0015 
112 1 1 -0.0595234 -0.0243655 -0.129419 0 0 0 -0.651574 -0.247508 -0.243806 -8.71548e-05 2.42703e-05 -3.92945e-05 95.9572 -450.437 200.83 0.0015 
105 1 1 -0.0660171 -0.0200462 -0.131545 0 0 0 -0.729259 -0.0843584 -0.381089 0 0 -0.00160516 56.4618 -309.173 -38.3178 0.0025 
174 1 1 -0.0862724 -0.0169762 -0.135578 0 0 0 -1.24376 -0.329915 -0.750766 0 0 -0.000346714 387.716 105.058 290.11 0.0015 
101 1 1 -0.0619447 -0.0151283 -0.131506 0 0 0 -0.456324 -0.0897187 -0.226305 0 0 -0.000346714 80.8507 64.5203 -187.83 0.0015 
97 1 1 -0.0903764 -0.0121896 -0.13371 0 0 0 -0.608113 0.0408381 -0.660922 0 0 -0.000346714 109.276 -295.039 -85.8856 0.0015 
59 1 1 -0.0567502 -0.0135854 -0.129473 0 0 0 -0.393914 0.0203871 -0.151265 0 0 -0.000346714 32.7335 -285.453 -111.931 0.0015 
80 1 1 -0.0988138 -0.00694062 -0.134302 0 0 0 -0.822154 0.0808888 -0.704276 0 0 -0.00160516 -70.6507 -163.412 65.2439 0.0025 
104 1 1 -0.0840605 -0.00730645 -0.134099 0 0 0 -0.759062 0.0518741 -0.608571 -0.0114384 -0.0151646 0.00425774 20.9047 -4.69274 31.2956 0.0025 
90 1 1 -0.0631981 -0.00464209 -0.131518 0 0 0 -0.5812 0.00376087 -0.246186 -0.000412867 4.34193e-05 -0.000171918 25.6424 -255.72 -64.4363 0.0025 
69 1 1 -0.096584 -0.00138689 -0.134871 0 0 0 -0.754791 0.00562456 -0.715098 0 0 -0.000346714 -168.237 -253.173 -43.4105 0.0015 
123 1 1 -0.0676171 1.8044e-05 -0.132562 0 0 0 -0.560465 0.175553 -0.415949 0 0 -0.000346714 -221.466 200.881 -159.413 0.0015 
158 1 1 -0.0600445 0.00843883 -0.129589 0 0 0 -0.673023 0.0948201 -0.191928 0 0 -0.00160516 -15.0189 -236.435 6.99238 0.0025 
96 1 1 -0.100292 0.0123505 -0.132913 0 0 0 -0.845457 -0.12801 -0.710946 0 0 -0.000346714 246.884 -254.322 -70.0386 0.0015 
103 1 1 -0.0637206 0.0115667 -0.131412 0 0 0 -0.76131 0.0117371 -0.322224 0 0 -0.00160516 27.5355 -273.409 29.5464 0.0025 
189 1 1 -0.0609805 0.0133654 -0.12891 0 0 0 -0.692199 -0.0550689 -0.274983 0 0 -0.000346714 -166.851 -54.3478 -61.8213 0.0015 
67 1 1 -0.0782153 0.0204947 -0.132481 0 0 0 -0.689896 0.217128 -0.682253 0 0 -0.00160516 -112.704 254.987 22.3229 0.0025 
94 1 1 -0.0801238 0.0532708 -0.129902 0 0 0 -0.566717 0.097853 -0.198538 9.14897e-05 7.61819e-05 -0.00134774 -9.68209 -227.174 -85.7048 0.0025 
106 1 1 -0.0590038 -0.0280085 -0.127581 0 0 0 -0.623768 -0.129293 -0.236359 -0.000396861 0.000182471 -0.000198293 46.0126 -269.895 26.2056 0.0025 
165 1 1 -0.0764688 -0.0217274 -0.1309 0 0 0 -0.895994 0.214461 -0.641656 0 0 -0.000346714 -22.9455 -195.917 -119.891 0.0015 
155 1 1 -0.0557042 -0.0107988 -0.12649 0 0 0 -0.537816 0.180366 -0.428356 0 0 -0.00160516 22.422 -106.884 26.5482 0.0025 
144 1 1 -0.059772 -0.00716743 -0.128376 0 0 0 -0.611247 0.25624 -0.336257 0 0 -0.00160516 39.5734 -51.8621 177.168 0.0025 
167 1 1 -0.0686492 -0.00506551 -0.129525 0 0 0 -0.754336 0.145437 -0.242223 0 0 -0.00160516 66.3412 347.841 63.9355 0.0025 
115 1 1 -0.0850342 0.00194541 -0.131507 0 0 0 -0.704941 0.290036 -0.687873 0 0 -0.000346714 -148.193 -360.188 1.16897e-14 0.0015 
185 1 1 -0.0592125 0.00227443 -0.128137 0 0 0 -1.03806 0.0253191 -0.53215 0 0 -0.000346714 -61.0186 -684.767 102.483 0.0015 
100 1 1 -0.074706 0.00646216 -0.131439 0 0 0 -0.579227 0.229689 -0.736148 0 0 -0.000346714 -212.708 -114.821 -170.59 0.0015 
110 1 1 -0.0595049 0.011538 -0.126797 0 0 0 -0.787263 -0.0809739 0.0236383 0 0 -0.000346714 15.9792 -144.379 -94.3964 0.0015 
13 1 1 -0.0714327 0.0180339 -0.127311 0 0 0 -0.790169 -0.0755974 -0.163376 0 0 -0.00160516 22.2829 81.6203 -13.7847 0.0025 
119 1 1 -0.0606846 0.0180135 -0.128353 0 0 0 -0.461909 -0.00633733 -0.241111 0 0 -0.00160516 54.854 -116.856 -33.3914 0.0025 
136 1 1 -0.0488338 0.0201937 -0.125502 0 0 0 -0.546972 0.13722 -0.217672 1.68186e-05 -4.01479e-08 -2.18353e-05 -39.7014 -374.648 -145.826 0.0015 
161 1 1 -0.0566589 0.0259053 -0.127864 0 0 0 -0.598514 0.108699 -0.20345 0 0 -0.000346714 -72.6246 -419.263 -26.4828 0.0015 
130 1 1 -0.0704017 0.0400169 -0.129869 0 0 0 -0.568971 0.109423 -0.0686691 -0.025451 -0.0109071 0.0141587 -16.3734 -232.739 -94.2507 0.0025 
179 1 1 -0.0719899 -0.0461918 -0.12355 0 0 0 -0.82532 -0.446848 -0.503556 0 0 -0.000346714 606.356 136.341 150.775 0.0015 
126 1 1 -0.0431304 -0.0249111 -0.122487 0 0 0 -0.434034 -0.036354 -0.177592 -8.72248e-05 2.33392e-05 -3.91706e-05 -83.2821 -286.158 262.12 0.0015 
117 1 1 -0.0520734 -0.0207954 -0.125169 0 0 0 -0.686489 -0.0143135 -0.335151 0 0 -0.00160516 -24.8119 -273.349 85.9145 0.0025 
147 1 1 -0.0394984 -0.0157514 -0.121405 0 0 0 -0.455323 0.0351263 -0.211312 0 0 -0.000346714 -30.5823 -301.142 27.328 0.0015 
137 1 1 -0.0837354 -0.00902953 -0.123966 0 0 0 -0.71424 0.318693 -0.440293 0 0 -0.000346714 -165.637 -371.218 1.31049e-13 0.0015 
191 1 1 -0.0385318 -0.00757911 -0.122001 0 0 0 -0.510399 -0.0452717 -0.209095 -8.61721e-05 5.65538e-06 -3.85026e-05 -11.394 -365.435 106.928 0.0015 
160 1 1 -0.0375398 -0.000599848 -0.121809 0 0 0 -0.324511 0.209415 -0.147974 -8.09881e-05 5.77473e-06 -5.11729e-05 -93.5763 -240.71 -135.862 0.0015 
109 1 1 -0.0403887 0.00378628 -0.12299 0 0 0 -0.324491 -0.0934051 -0.138075 -7.01888e-05 -6.66541e-06 -6.94773e-05 75.5286 -233.598 -19.6126 0.0015 
180 1 1 -0.0482886 0.00623841 -0.124181 0 0 0 -0.598818 -0.141844 -0.402773 0 0 -0.00160516 -5.92058 -62.3225 -61.9859 0.0025 
124 1 1 -0.039875 0.0109942 -0.122459 0 0 0 -0.306307 -0.0763575 -0.195777 -0.00267224 0.00239668 -0.0121404 52.5912 -174.119 34.6661 0.0015 
99 1 1 -0.087263 0.015493 -0.126577 0 0 0 -0.848625 0.0571809 -0.605077 0 0 -0.000346714 215.697 -421.063 142.857 0.0015 
173 1 1 -0.0596038 0.0221151 -0.124874 0 0 0 -0.66058 0.485496 -0.403735 0 0 -0.000346714 249.586 -375.953 133.484 0.0015 
148 1 1 -0.0460514 0.0198604 -0.124121 0 0 0 -0.54107 0.049501 -0.225816 0 0 -0.000346714 -84.9539 -358.121 129.796 0.0015 
9 1 1 -0.0710558 0.0695904 -0.12088 0 0 0 -0.361491 0.114187 -0.0866599 -7.01168e-05 -8.29002e-05 -6.43318e-05 -90.4649 -282.55 5.06173 0.0015 
206 1 1 -0.0375629 -0.0261156 -0.116669 0 0 0 -0.538096 0.0702735 -0.0629829 0 0 -0.00160516 -23.9653 -184.476 38.5764 0.0025 
181 1 1 -0.0489132 -0.0256573 -0.122942 0 0 0 -0.626458 -0.231864 -0.475176 0 0 -0.00160516 -78.4549 189.022 22.9427 0.0025 
193 1 1 -0.0435653 -0.0197721 -0.121187 0 0 0 -0.786698 0.234331 -0.505404 0 0 -0.00160516 105.809 -183.722 53.0676 0.0025 
131 1 1 -0.0687205 -0.0177391 -0.120091 0 0 0 -0.697838 0.0433516 -0.510675 0 0 -0.00160516 -128.245 -158.403 34.4151 0.0025 
125 1 1 -0.0317883 -0.016105 -0.118632 0 0 0 -0.212193 -0.0268572 -0.0887008 -8.92e-05 2.14131e-05 -4.06752e-05 82.8065 -169.998 -146.62 0.0015 
120 1 1 -0.0765964 -0.0130255 -0.122192 0 0 0 -0.756959 0.0982943 -0.580336 0 0 -0.00160516 -40.3372 -182.695 -16.5233 0.0025 
169 1 1 -0.060609 -0.013286 -0.124 0 0 0 -0.650581 -0.0109339 -0.626203 0 0 -0.00160516 -20.8798 -258.145 -39.1749 0.0025 
129 1 1 -0.0737224 -0.00351415 -0.122928 0 0 0 -0.786618 0.0121635 -0.52485 0 0 -0.00160516 -85.0819 47.0231 -38.5406 0.0025 
154 1 1 -0.0338538 0.00146306 -0.120147 0 0 0 -0.501841 0.151011 -0.230616 0 0 -0.000346714 -71.471 -349.907 -87.481 0.0015 
168 1 1 -0.0449499 0.0015151 -0.119784 0 0 0 -0.640062 -0.250831 -0.245732 0 0 -0.00160516 -0.284387 -15.4326 101.731 0.0025 
132 1 1 -0.0564222 0.00745509 -0.120203 0 0 0 -0.71597 -0.0664785 -0.206018 0 0 -0.00160516 -123.469 298.795 -66.7671 0.0025 
145 1 1 -0.0368068 0.01045 -0.119979 0 0 0 -0.518552 -0.0596143 -0.139714 0.0101949 -0.00428278 0.0210449 26.6055 -202.029 -4.66557 0.0025 
208 1 1 -0.0409036 0.0167755 -0.117092 0 0 0 -0.911011 -0.0196086 0.040108 0 0 -0.00160516 -13.9262 -316.867 26.3988 0.0025 
211 1 1 -0.0412779 0.0248587 -0.115185 0 0 0 -0.718605 -0.293393 0.151708 0 0 -0.000346714 149.838 -366.996 5.733e-14 0.0015 
140 1 1 -0.0837786 0.0513956 -0.121344 0 0 0 -0.722634 0.270636 -0.426159 0 0 -0.000346714 260.994 -389.889 163.549 0.0015 
146 1 1 -0.0453002 -0.063924 -0.112956 0 0 0 -0.290539 -0.65851 0.148051 -7.52617e-05 7.45567e-05 -6.19985e-05 399.052 -116.699 264.062 0.0015 
200 1 1 -0.0370143 -0.0473824 -0.115148 0 0 0 -0.546373 -0.607733 -0.0591967 0 0 -0.000346714 338.875 -328.128 277.909 0.0015 
194 1 1 -0.0489016 -0.034541 -0.116507 0 0 0 -0.887637 -0.441045 -0.333464 0 0 -0.00160516 248.016 258.491 96.0867 0.0025 
188 1 1 -0.0314141 -0.0271325 -0.116088 0 0 0 -0.461186 0.0200349 -0.106087 0 0 -0.000346714 65.5161 -320.391 -141.7 0.0015 
171 1 1 -0.0604414 -0.0223966 -0.114692 0 0 0 -1.04624 -0.187962 -0.244933 0 0 -0.000346714 -67.283 -233.374 -305.453 0.0015 
143 1 1 -0.0490402 -0.0204812 -0.117469 0 0 0 -0.605778 -0.175604 -0.248249 0 0 -0.00160516 117.92 152.335 141.666 0.0025 
213 1 1 -0.0326333 -0.01345 -0.114064 0 0 0 -0.720275 0.167321 0.204631 0 0 -0.000346714 -86.3022 -371.508 -5.18478e-14 0.0015 
118 1 1 -0.0358767 -0.00404665 -0.116761 0 0 0 -0.410547 0.160403 -0.246566 0 0 -0.00160516 -49.328 -123.905 -27.2835 0.0025 
198 1 1 -0.0456017 -0.00336869 -0.116311 0 0 0 -0.650597 -0.296708 -0.111551 0 0 -0.000346714 -267.498 -380.614 -200.252 0.0015 
162 1 1 -0.024779 0.000716152 -0.114409 0 0 0 -0.303033 0.039423 -0.126265 0 0 -0.000346714 -35.4598 -170.597 15.6444 0.0015 
199 1 1 -0.0407275 0.00839371 -0.117433 0 0 0 -0.9371 0.232945 -0.219007 0 0 -0.000346714 -331.629 -563.636 -24.6884 0.0015 
152 1 1 -0.0761792 0.00826839 -0.117022 0 0 0 -0.863483 -0.00874044 -0.319597 0 0 -0.000346714 83.1315 -292.5 132.925 0.0015 
141 1 1 -0.0200662 0.007136 -0.114385 0 0 0 -0.274478 -0.164172 -0.130699 -0.000433996 5.6459e-05 0.000544243 76.636 -207.276 100.236 0.0015 
156 1 1 -0.0274951 0.0157355 -0.115769 0 0 0 -0.305986 0.0213135 -0.0789461 0 0 -0.00160516 15.1656 -115.098 -53.2143 0.0025 
163 1 1 -0.0660865 0.0157141 -0.115759 0 0 0 -0.717385 -0.319909 -0.316697 0 0 -0.000346714 166.308 -372.94 1.57058e-13 0.0015 
203 1 1 -0.0489458 0.0271771 -0.113286 0 0 0 -0.721311 -0.321659 0.0106758 0 0 -0.000346714 167.198 -374.935 -9.98108e-14 0.0015 
86 1 1 -0.0424232 0.0549235 -0.115281 0 0 0 -0.290249 0.0816177 -0.0938739 -7.9811e-05 -6.17374e-05 -5.44885e-05 26.6825 -150.273 -213.145 0.0015 
226 1 1 -0.0300907 -0.027779 -0.113298 0 0 0 -0.728674 0.300023 0.182167 0 0 -0.000346714 -156.518 -380.14 -2.66295e-14 0.0015 
176 1 1 -0.0347505 -0.0224207 -0.112678 0 0 0 -0.134394 -0.0777383 -0.252667 0 0 -0.000346714 241.791 189.798 -317.251 0.0015 
142 1 1 -0.0263211 -0.0181873 -0.113665 0 0 0 -0.270379 0.102759 -0.189578 0 0 -0.00160516 -10.1437 -98.2478 -67.1614 0.0025 
177 1 1 -0.0474718 -0.0168704 -0.114168 0 0 0 -0.784881 -0.156527 -0.351756 0 0 -0.000346714 -126.743 -262.175 -161.616 0.0015 
172 1 1 -0.0576456 -0.0116141 -0.11378 0 0 0 -0.727883 0.299697 -0.22138 0 0 -0.000346714 -156.375 -379.791 5.10942e-14 0.0015 
218 1 1 -0.0244956 -0.0117067 -0.114431 0 0 0 -0.742298 0.15399 -0.116363 0 0 -0.000346714 -117.049 -463.356 40.7966 0.0015 
157 1 1 -0.0437829 -0.0104483 -0.114905 0 0 0 -0.711552 -0.0317277 -0.442701 0 0 -0.00160516 -151.017 -131.734 -65.673 0.0025 
228 1 1 -0.0228774 -0.00630091 -0.11299 0 0 0 -0.649917 0.506857 0.109812 0 0 -0.000346714 -257.014 -357.644 -207.826 0.0015 
207 1 1 -0.0252133 -0.00371472 -0.107939 0 0 0 -0.722137 0.00931431 0.167137 0 0 -0.00160516 -2.86438 -222.075 6.50758e-16 0.0025 
186 1 1 -0.0100932 -0.00610643 -0.110224 0 0 0 -0.087716 0.062892 -0.0409072 -0.000106297 1.9455e-05 4.13379e-06 -81.0956 -57.1791 85.8224 0.0015 
178 1 1 -0.0562645 0.00266861 -0.114328 0 0 0 -0.733672 -0.0480067 -0.242424 0 0 -0.000346714 -53.1085 -317.226 -65.5963 0.0015 
204 1 1 -0.0403484 0.00257186 -0.113035 0 0 0 -0.94184 0.265268 -0.127954 0 0 -0.000346714 -156.011 -439.85 35.1347 0.0015 
223 1 1 -0.0205212 0.000483694 -0.110054 0 0 0 -0.749963 -0.0168696 0.200104 0 0 -0.000346714 8.60465 -382.532 1.65741e-15 0.0015 
164 1 1 -0.0557067 0.00461439 -0.110761 0 0 0 -0.766489 -0.0655395 -0.122894 0 0 -0.000346714 26.9906 -313.287 -65.5963 0.0015 
159 1 1 -0.0623316 0.0150599 -0.113893 0 0 0 -0.727991 -0.264533 -0.27116 0 0 -0.000346714 135.577 -373.108 2.76099e-14 0.0015 
197 1 1 -0.0418689 0.018671 -0.110952 0 0 0 -0.721327 -0.23483 0.0442923 0 0 -0.000346714 120.035 -368.712 4.36143e-14 0.0015 
187 1 1 -0.0467346 0.0198227 -0.110769 0 0 0 -0.721234 -0.2348 -0.0152487 0 0 -0.000346714 119.521 -367.133 -2.96941e-14 0.0015 
210 1 1 -0.0279456 0.0321932 -0.112515 0 0 0 -0.648704 0.109704 -1.07614 0 0 -0.00160516 31.6715 70.5182 -13.9567 0.0025 
227 1 1 -0.0152332 -0.0260292 -0.110544 0 0 0 -0.426474 -0.086526 0.043086 0 0 -0.000346714 62.3522 -253.28 49.2339 0.0015 
196 1 1 -0.0366459 -0.0214771 -0.106265 0 0 0 -0.703235 0.289335 0.00502527 0 0 -0.00160516 -89.2179 -216.846 -7.66376e-14 0.0025 
195 1 1 -0.0185365 -0.0116463 -0.111348 0 0 0 -0.537521 0.239738 -0.0738657 0 0 -0.00160516 -102.067 -198.405 10.6183 0.0025 
150 1 1 -0.0454277 -0.00782038 -0.108145 0 0 0 -0.586293 -0.0855 -0.281223 0 0 -0.000346714 -222.778 -463.567 168.636 0.0015 
224 1 1 -0.0153365 -0.00876651 -0.108462 0 0 0 -0.723383 0.12925 0.237199 0 0 -0.000346714 -65.415 -366.114 -4.52467e-16 0.0015 
190 1 1 -0.0361789 0.00834294 -0.106128 0 0 0 -0.749428 -0.0168576 -0.0538395 0 0 -0.000346714 8.5455 -379.902 -1.22236e-17 0.0015 
212 1 1 -0.0228298 0.00620385 -0.106227 0 0 0 -0.556943 -0.17667 0.160459 0 0 -0.000346714 53.9443 -411.963 -25.0603 0.0015 
151 1 1 -0.0542795 0.0146176 -0.111208 0 0 0 -0.730455 -0.170603 -0.417702 0 0 -0.000346714 87.8954 -376.333 -1.05237e-14 0.0015 
170 1 1 -0.0239142 0.012711 -0.113914 0 0 0 -0.223551 -0.259571 -0.478362 0 0 -0.00160516 138.351 -26.2837 27.3626 0.0025 
183 1 1 -0.0377647 0.0200329 -0.110761 0 0 0 -0.725939 -0.41477 -0.481521 0 0 -0.00160516 -102.722 -57.822 -48.976 0.0025 
215 1 1 -0.0279213 0.0248201 -0.10624 0 0 0 -0.232533 0.141527 -0.322729 0.0043936 0.0051985 -0.00293297 612.916 -816.148 139.31 0.0015 
230 1 1 -0.0200231 0.0317392 -0.108501 0 0 0 -0.69519 -0.326275 0.192839 0 0 -0.000346714 169.738 -361.66 -5.47291e-14 0.0015 
219 1 1 -0.0185594 -0.0232391 -0.108869 0 0 0 -0.487338 -0.168106 -0.715508 0 0 -0.00160516 109.41 104.22 54.0214 0.0025 
205 1 1 -0.0262372 -0.0169145 -0.103715 0 0 0 -0.716609 0.263082 -0.0335519 0 0 -0.000346714 -136.781 -372.577 -3.71052e-14 0.0015 
175 1 1 -0.0395654 -0.0139464 -0.10566 0 0 0 -0.713733 0.262026 -0.266193 0 0 -0.000346714 -134.947 -367.581 4.36608e-14 0.0015 
192 1 1 -0.0328163 -0.00518247 -0.103901 0 0 0 -0.733112 0.10624 -0.126341 0 0 -0.000346714 -54.4381 -375.65 -2.57148e-14 0.0015 
201 1 1 -0.0209782 -0.0058126 -0.102581 0 0 0 -0.734621 0.106459 0.0199887 0 0 -0.000346714 -54.0287 -372.826 4.43189e-14 0.0015 
217 1 1 -0.0196865 0.0115043 -0.104409 0 0 0 -0.736574 -0.172032 0.0757687 0 0 -0.000346714 87.6691 -375.365 -2.02618e-14 0.0015 
229 1 1 -0.0247837 0.0138148 -0.105264 0 0 0 -0.355881 -0.0676389 -0.325702 0 0 -0.000346714 -109.618 363.146 -7.29039 0.0015 
184 1 1 -0.0299558 0.0226765 -0.110542 0 0 0 0.0336721 0.842505 -1.92849 0 0 -0.000346714 484.567 -86.1486 256.589 0.0015 
209 1 1 -0.022496 0.0217771 -0.103139 0 0 0 -0.701674 -0.26942 0.0673067 0 0 -0.00160516 83.1775 -216.626 -2.85333e-15 0.0025 
134 1 1 -0.0501326 0.0269157 -0.107273 0 0 0 -0.378435 0.170477 -0.393571 0 0 -0.000346714 -203.412 441.886 -62.7026 0.0015 
216 1 1 -0.0239843 0.0259278 -0.104066 0 0 0 -0.70196 -0.26953 0.0556872 0 0 -0.000346714 137.856 -359.03 4.38672e-14 0.0015 
89 1 1 -0.0810237 0.0357593 -0.106559 0 0 0 -0.5528 0.273197 -0.372828 0 0 -0.000346714 -314.22 -140.985 -64.0011 0.0015 
61 1 1 -0.0189097 0.0621135 -0.103211 0 0 0 -0.170101 0.212593 0.00945323 -7.9033e-05 -7.1539e-05 -6.08629e-05 -207.621 -170.781 104.751 0.0015 
214 1 1 -0.0107609 -0.0288819 -0.100495 0 0 0 -0.566923 0.342186 -0.0581756 0 0 -0.000346714 97.4946 -482.891 100.142 0.0015 
182 1 1 -0.030987 -0.0239234 -0.100078 0 0 0 -0.692998 0.253522 -0.144073 0 0 -0.00160516 -78.25 -213.895 1.02045e-13 0.0025 
45 1 1 -0.124976 -0.0250218 -0.100539 0 0 0 -0.806305 -0.42317 -0.247619 0 0 -0.000346714 389.887 -152.585 -138.964 0.0015 
153 1 1 -0.0540774 -0.0127404 -0.101972 0 0 0 -0.705536 0.108121 -0.127324 0 0 -0.000346714 -107.869 -228.934 95.2028 0.0015 
133 1 1 -0.080137 0.020101 -0.102907 0 0 0 -0.751423 -0.139775 -0.158292 0 0 -0.000346714 165.241 -151.591 -75.0859 0.0015 
202 1 1 -0.0214986 0.0262098 -0.101666 0 0 0 -0.711246 -0.32556 -0.0486272 0 0 -0.000346714 169.603 -370.528 -1.51051e-13 0.0015 