ITEM: TIMESTEP
79200
ITEM: NUMBER OF ATOMS
819
ITEM: BOX BOUNDS ff ff ff
-0.5 0.1
-0.2 0.2
-0.4 0.15
ITEM: ATOMS id type type x y z ix iy iz vx vy vz fx fy fz omegax omegay omegaz radius 
1021 1 1 -0.0269389 -0.00943488 0.0587596 0 0 0 -0 0 -1 0 0 0 0 0 0 0.0015 
1017 1 1 -0.00144673 0.020894 0.0583347 0 0 0 -0 0 -1 0 0 0 0 0 0 0.0015 
182 1 1 -0.451946 -0.0113997 -0.399326 0 0 0 -0.874703 0.00117447 -1.79848 0 0 -0.00160516 -24.6677 -371.655 66.7302 0.0025 
276 1 1 -0.480789 0.00382254 -0.399389 0 0 0 -1.10948 -0.0420042 -1.79485 0 0 -0.000346714 27.7378 -715.581 -0.74492 0.0015 
272 1 1 -0.46464 0.070549 -0.397437 0 0 0 -0.999806 0.285492 -1.85589 0 0 -0.00160516 9.75074 -59.5008 -143.463 0.0025 
180 1 1 -0.474615 0.0137818 -0.389613 0 0 0 -1.07507 0.109286 -1.74042 0 0 -0.00160516 -2.30228 -398.032 -60.2754 0.0025 
225 1 1 -0.455728 -0.0138337 -0.389307 0 0 0 -0.962436 0.00897913 -1.75109 0 0 -0.000346714 23.763 -718.116 -73.3922 0.0015 
216 1 1 -0.44685 -0.000498088 -0.387752 0 0 0 -0.938118 0.00973268 -1.75235 0 0 -0.000346714 -183.288 -637.657 -39.8282 0.0015 
126 1 1 -0.453209 0.00775082 -0.387753 0 0 0 -0.969099 0.0755784 -1.74407 0 0 -0.000346714 -19.0477 -663.005 -79.6916 0.0015 
253 1 1 -0.469357 0.0175877 -0.387349 0 0 0 -1.09504 -0.113846 -1.78335 0 0 -0.000346714 187.587 -742.933 -247.5 0.0015 
145 1 1 -0.456452 0.0250796 -0.386016 0 0 0 -0.961799 0.221409 -1.72584 0 0 -0.00160516 -76.3318 -385.074 -25.0555 0.0025 
168 1 1 -0.451393 -0.00120215 -0.381989 0 0 0 -0.96131 0.0275136 -1.7247 0 0 -0.00160516 -38.9396 -401.623 31.4263 0.0025 
245 1 1 -0.467994 0.00460174 -0.379088 0 0 0 -1.16725 -0.179685 -1.74913 0 0 -0.00160516 98.8841 -514.922 -43.4747 0.0025 
202 1 1 -0.459581 0.00817021 -0.375273 0 0 0 -1.04816 0.0527132 -1.65897 0 0 -0.000346714 -93.445 -717.384 28.3075 0.0015 
217 1 1 -0.450105 0.0334377 -0.375832 0 0 0 -0.979047 0.0482316 -1.69473 0 0 -0.000346714 -62.3769 -710.188 -149.895 0.0015 
287 1 1 -0.469521 0.0447965 -0.376643 0 0 0 -1.07163 0.0470492 -1.70861 0 0 -0.000346714 29.6621 -756.413 -180.337 0.0015 
232 1 1 -0.46505 -0.0152623 -0.371954 0 0 0 -1.0912 -0.00281361 -1.64954 0 0 -0.00160516 0.912803 -446.291 -12.5083 0.0025 
296 1 1 -0.47177 0.0399905 -0.373644 0 0 0 -1.14681 0.0735282 -1.69503 0 0 -0.00160516 19.6271 -471.011 -120.325 0.0025 
315 1 1 -0.481787 0.0454234 -0.373241 0 0 0 -1.19537 -0.0474614 -1.74995 0 0 -0.000346714 141.619 -839.23 -269.993 0.0015 
268 1 1 -0.459299 -0.00183128 -0.371434 0 0 0 -1.11172 -0.0230348 -1.5982 0 0 -0.000346714 68.6278 -673.864 -143.096 0.0015 
156 1 1 -0.46067 0.00487886 -0.371453 0 0 0 -1.13536 -0.146372 -1.69095 0 0 -0.00160516 104.231 -482.863 -93.3553 0.0025 
215 1 1 -0.435129 0.00553157 -0.365298 0 0 0 -0.951175 -0.00526021 -1.624 0 0 -0.000346714 81.017 -671.859 56.629 0.0015 
281 1 1 -0.421804 0.00280741 -0.361276 0 0 0 -0.884606 -0.0265414 -1.6286 0 0 -0.000346714 -242.945 -508.979 156.931 0.0015 
274 1 1 -0.43387 0.00262432 -0.357792 0 0 0 -0.950556 0.000203931 -1.57337 0 0 -0.00160516 -35.2937 -287.224 55.6583 0.0025 
239 1 1 -0.437339 0.0103053 -0.360165 0 0 0 -0.961078 -0.0352204 -1.58332 0 0 -0.000346714 87.1321 -678.422 -144.801 0.0015 
249 1 1 -0.428356 0.0125692 -0.35784 0 0 0 -0.928628 0.0502358 -1.59163 0 0 -0.000346714 -71.0977 -558.863 -75.5902 0.0015 
147 1 1 -0.440986 -0.0143807 -0.355293 0 0 0 -1.02829 -0.0381294 -1.5527 0 0 -0.000346714 16.1649 -640.133 56.1681 0.0015 
311 1 1 -0.462752 0.0436007 -0.353567 0 0 0 -1.1993 0.090386 -1.58565 0 0 -0.00160516 -20.5047 -526.685 -51.8186 0.0025 
250 1 1 -0.451166 -0.02218 -0.347198 0 0 0 -1.17414 0.0758322 -1.54088 0 0 -0.000346714 -86.4605 -854.852 76.913 0.0015 
247 1 1 -0.43037 -0.00813963 -0.35011 0 0 0 -0.932008 -0.0252074 -1.51287 0 0 -0.00160516 -1.36802 -401.64 30.0268 0.0025 
124 1 1 -0.431332 0.00779617 -0.349953 0 0 0 -0.985358 0.0571045 -1.51868 0 0 -0.000346714 5.29344 -290.979 -72.1655 0.0015 
201 1 1 -0.429781 0.0219366 -0.350372 0 0 0 -0.942955 0.11093 -1.51517 0 0 -0.000346714 -49.0519 -675.763 -65.0532 0.0015 
109 1 1 -0.424719 -0.0113361 -0.346744 0 0 0 -0.91466 -0.0674199 -1.48885 0 0 -0.000346714 111.868 -222.572 118.383 0.0015 
235 1 1 -0.428628 -0.000219055 -0.346709 0 0 0 -1.00864 -0.0693927 -1.57793 0 0 -0.000346714 -152.029 -399.94 40.2951 0.0015 
154 1 1 -0.431471 0.00563399 -0.343848 0 0 0 -1.01188 -0.0476029 -1.47977 0 0 -0.000346714 70.4283 -702.067 -115.19 0.0015 
160 1 1 -0.422692 0.00518925 -0.344322 0 0 0 -0.939044 -0.00159742 -1.48306 0 0 -0.000346714 7.64473 -602.03 -83.6384 0.0015 
195 1 1 -0.428942 -0.0105721 -0.341899 0 0 0 -0.950155 -0.00245124 -1.45546 0 0 -0.00160516 -31.7349 -403.29 79.3726 0.0025 
266 1 1 -0.421479 -0.0119779 -0.342233 0 0 0 -0.905617 -0.0577355 -1.45963 0 0 -0.000346714 38.2168 -563.275 170.727 0.0015 
369 1 1 -0.43321 0.0155334 -0.340977 0 0 0 -0.97837 0.0760865 -1.4379 0 0 -0.000346714 -49.8506 -521.834 -142.143 0.0015 
223 1 1 -0.428858 -0.00616416 -0.337004 0 0 0 -0.96782 -0.0410256 -1.41019 0 0 -0.000346714 -14.4538 -65.868 -23.1529 0.0015 
134 1 1 -0.429188 0.00304918 -0.337263 0 0 0 -1.07764 -0.0198744 -1.38561 0 0 -0.000346714 162.244 -619.846 -30.5923 0.0015 
118 1 1 -0.43868 0.0121157 -0.338865 0 0 0 -1.03421 0.0750674 -1.43225 0 0 -0.00160516 -67.2787 -209.567 -20.9341 0.0025 
261 1 1 -0.444696 -0.0179311 -0.332929 0 0 0 -1.2512 0.216315 -1.48907 0 0 -0.000346714 -219.487 -908.675 154.103 0.0015 
286 1 1 -0.437497 0.0010396 -0.333278 0 0 0 -1.21349 -0.123161 -1.44659 0 0 -0.00160516 61.1949 -526.834 -17.8641 0.0025 
251 1 1 -0.422229 0.00306695 -0.333682 0 0 0 -0.934641 0.0370445 -1.3899 0 0 -0.000346714 -45.3533 -548.355 12.8843 0.0015 
252 1 1 -0.4147 -0.00641803 -0.332767 0 0 0 -0.966088 -0.253625 -1.53901 0 0 -0.000346714 -163.922 -529.897 -271.472 0.0015 
222 1 1 -0.436815 0.00888013 -0.330831 0 0 0 -1.23249 -0.0927185 -1.44148 0 0 -0.00160516 99.848 -516.788 -138.809 0.0025 
226 1 1 -0.423536 -0.0149009 -0.328075 0 0 0 -1.04074 0.0779308 -1.38899 0 0 -0.000346714 -50.6944 -756.811 -10.2526 0.0015 
271 1 1 -0.422288 0.00626749 -0.328134 0 0 0 -1.05338 0.020287 -1.39082 0 0 -0.00160516 -14.5474 -428.222 3.29529 0.0025 
347 1 1 -0.43375 0.00847621 -0.326405 0 0 0 -1.25149 -0.0653268 -1.40804 0 0 -0.00160516 39.0311 -548.399 12.5517 0.0025 
209 1 1 -0.415236 -0.00982298 -0.32472 0 0 0 -1.01483 -0.0174525 -1.38888 0 0 -0.00160516 98.5795 -406.85 75.5558 0.0025 
299 1 1 -0.419382 -0.000461572 -0.323389 0 0 0 -1.01317 -0.00117368 -1.32808 0 0 -0.00160516 -65.3735 -59.9917 -34.7802 0.0025 
279 1 1 -0.406527 -0.00127986 -0.322726 0 0 0 -0.94014 -0.0255148 -1.34572 0 0 -0.000346714 -1.3844 -567.547 17.515 0.0015 
295 1 1 -0.421452 -0.0171497 -0.32195 0 0 0 -1.06351 0.0795044 -1.34722 0 0 -0.000346714 -112.987 -745.537 141.606 0.0015 
306 1 1 -0.399743 -0.0150982 -0.32196 0 0 0 -0.871024 0.118056 -1.45559 0 0 -0.000346714 94.844 -482.578 110.526 0.0015 
278 1 1 -0.4023 -0.00650137 -0.31918 0 0 0 -0.916566 0.0058572 -1.3221 0 0 -0.000346714 -189.381 -627.073 -31.7332 0.0015 
348 1 1 -0.429647 0.000212361 -0.31977 0 0 0 -1.27169 -0.17924 -1.34534 0 0 -0.00160516 71.4792 -535.908 -7.71366 0.0025 
86 1 1 -0.402383 0.00339233 -0.319808 0 0 0 -0.920224 0.0337641 -1.3307 0 0 -0.000346714 123.484 -563.73 199.571 0.0015 
238 1 1 -0.423142 -0.0288168 -0.315006 0 0 0 -1.10168 -0.0112723 -1.28927 0 0 -0.000346714 -29.0566 -782.247 111.447 0.0015 
282 1 1 -0.403466 -0.00953043 -0.31729 0 0 0 -0.916104 -0.000669075 -1.29697 0 0 -0.000346714 155.515 -430.726 136.919 0.0015 
290 1 1 -0.407265 0.00389917 -0.316264 0 0 0 -0.952515 -0.000298131 -1.27824 0 0 -0.000346714 -18.9022 -634.161 -97.4314 0.0015 
237 1 1 -0.418354 -0.0225686 -0.314517 0 0 0 -1.11058 0.134415 -1.38991 0 0 -0.000346714 -45.5223 -775.812 54.2523 0.0015 
176 1 1 -0.411224 -0.0196587 -0.313396 0 0 0 -0.996804 0.0387971 -1.26849 0 0 -0.000346714 -17.5264 -731.744 -22.2109 0.0015 
207 1 1 -0.418787 -0.0152898 -0.313212 0 0 0 -1.07882 -0.0285322 -1.24129 0 0 -0.00160516 -16.2793 -407.085 136.478 0.0025 
236 1 1 -0.399333 -0.0080159 -0.312146 0 0 0 -0.89147 0.0898722 -1.25217 0 0 -0.000346714 168.762 -139.541 125.842 0.0015 
257 1 1 -0.417721 -0.0121441 -0.308986 0 0 0 -1.16755 0.0984439 -1.31359 0 0 -0.00160516 -31.9636 -310.666 80.7113 0.0025 
303 1 1 -0.398998 -0.00828183 -0.30895 0 0 0 -0.932948 -0.0197277 -1.2251 0 0 -0.000346714 96.2072 -653.206 -27.4599 0.0015 
170 1 1 -0.413552 -0.00242136 -0.309569 0 0 0 -1.07789 0.0746029 -1.33388 0 0 -0.00160516 46.1816 -381.152 56.248 0.0025 
277 1 1 -0.424825 -0.0191065 -0.306408 0 0 0 -1.28296 0.258399 -1.25035 0 0 -0.000346714 -265.187 -765.948 250.678 0.0015 
390 1 1 -0.413592 -0.0130861 -0.306791 0 0 0 -1.04837 0.233108 -1.08833 0 0 -0.000346714 -98.5569 -665.228 -23.3945 0.0015 
350 1 1 -0.411412 -0.00601213 -0.30648 0 0 0 -1.12787 0.103497 -1.13508 0 0 -0.00160516 -53.9675 -431.165 98.5224 0.0025 
323 1 1 -0.405794 0.00978713 -0.307758 0 0 0 -1.02998 0.0131417 -1.22844 0 0 -0.00160516 -4.88159 -448.51 -2.41291 0.0025 
220 1 1 -0.403205 0.0142663 -0.304838 0 0 0 -1.04407 -0.0275066 -1.27097 0 0 -0.00160516 -4.63245 -379.002 -101.609 0.0025 
275 1 1 -0.402607 -0.00489382 -0.303965 0 0 0 -1.08071 0.107591 -1.20868 0 0 -0.000346714 -101.324 -786.506 49.8113 0.0015 
264 1 1 -0.412488 0.0245084 -0.304325 0 0 0 -1.19427 0.0406466 -1.22786 0 0 -0.000346714 101.853 -817.084 -311.517 0.0015 
291 1 1 -0.423629 -0.0108089 -0.299421 0 0 0 -1.29096 0.221328 -1.10997 0 0 -0.000346714 -197.966 -656.204 251.766 0.0015 
242 1 1 -0.412064 -0.00618369 -0.29941 0 0 0 -1.04064 0.104259 -1.08117 0 0 -0.000346714 -75.309 -591.385 67.6381 0.0015 
125 1 1 -0.400524 -0.00158456 -0.299636 0 0 0 -1.0767 0.0633814 -1.15446 0 0 -0.000346714 -44.9976 -776.377 -1.41193 0.0015 
240 1 1 -0.401652 -0.00461164 -0.295219 0 0 0 -1.20438 0.177482 -1.15263 0 0 -0.000346714 -117.81 -878.802 -24.1288 0.0015 
327 1 1 -0.395298 0.00417327 -0.295788 0 0 0 -1.04841 0.119123 -1.11713 0 0 -0.000346714 -74.6471 -759.05 -26.7064 0.0015 
230 1 1 -0.399265 0.00932143 -0.296845 0 0 0 -1.13289 -0.0678747 -1.15468 0 0 -0.000346714 67.8075 -824.467 -43.4022 0.0015 
248 1 1 -0.386081 0.00707414 -0.292484 0 0 0 -0.950919 0.180702 -1.10974 0 0 -0.000346714 -110.923 -361.481 194.746 0.0015 
343 1 1 -0.389095 -0.00600463 -0.287224 0 0 0 -1.08991 0.0222555 -1.04542 0 0 -0.000346714 -31.4121 -783.452 37.8496 0.0015 
337 1 1 -0.409569 0.0147852 -0.286939 0 0 0 -1.25504 -0.0756442 -0.882418 0 0 -0.000346714 -9.93597 -637.522 -306.722 0.0015 
356 1 1 -0.391923 0.0173029 -0.28697 0 0 0 -1.1626 -0.0126764 -1.07421 0 0 -0.000346714 36.4979 -841.994 -65.4061 0.0015 
241 1 1 -0.392429 0.0207101 -0.289455 0 0 0 -1.07831 -0.00936219 -1.08564 0 0 -0.000346714 -15.6061 -802.971 51.4179 0.0015 
142 1 1 -0.384647 -0.0092746 -0.284809 0 0 0 -1.04583 0.00611226 -1.06235 0 0 -0.00160516 -55.8784 -433.06 -27.5699 0.0025 
302 1 1 -0.383349 0.00960104 -0.28499 0 0 0 -1.01807 0.0334354 -1.01829 0 0 -0.000346714 -54.6361 -743.275 70.2522 0.0015 
393 1 1 -0.407275 -0.0484417 -0.281504 0 0 0 -1.31593 0.0442641 -1.15782 0 0 -0.000346714 -136.758 -884.306 309.158 0.0015 
297 1 1 -0.383503 -0.00418313 -0.280614 0 0 0 -1.07118 0.025485 -0.957447 0 0 -0.00160516 12.5466 -434.091 -11.8533 0.0025 
406 1 1 -0.379144 -0.00661156 -0.280172 0 0 0 -1.05576 0.0796117 -1.02996 0 0 -0.000346714 185.75 -497.727 -5.45739 0.0015 
162 1 1 -0.37596 -0.0015377 -0.281709 0 0 0 -0.998759 0.0373586 -1.04085 0 0 -0.000346714 -127.94 -589.048 120.159 0.0015 
254 1 1 -0.378087 0.00363662 -0.281138 0 0 0 -0.990815 0.0106039 -0.973861 0 0 -0.000346714 9.51715 -716.54 -40.5685 0.0015 
313 1 1 -0.381595 0.0123364 -0.282819 0 0 0 -1.06304 -0.0430883 -1.03372 0 0 -0.000346714 -30.2268 -752.149 23.2262 0.0015 
361 1 1 -0.395641 0.0326025 -0.282339 0 0 0 -1.15682 -0.12469 -1.10232 0 0 -0.00160516 53.1964 -560.58 13.1249 0.0025 
423 1 1 -0.388334 -0.0299478 -0.27649 0 0 0 -1.12441 0.179185 -1.01927 0 0 -0.000346714 -221.768 -755.597 243.854 0.0015 
146 1 1 -0.37547 -0.0181832 -0.278227 0 0 0 -0.895098 0.127603 -0.955771 0 0 -0.000346714 -115.447 -643.49 55.929 0.0015 
227 1 1 -0.376859 -0.010791 -0.279059 0 0 0 -0.979694 0.0386089 -0.968318 0 0 -0.000346714 -111.597 -695.685 62.2439 0.0015 
342 1 1 -0.374112 -0.00447023 -0.2759 0 0 0 -1.0233 0.0843554 -0.924343 0 0 -0.000346714 -170.328 -704.769 149.065 0.0015 
381 1 1 -0.372801 -0.0033663 -0.278421 0 0 0 -1.04625 -0.0169456 -1.0132 0 0 -0.000346714 -72.4212 190.556 -56.8082 0.0015 
318 1 1 -0.363616 -0.00316088 -0.276056 0 0 0 -0.924629 -0.006537 -0.983631 0 0 -0.000346714 42.9014 -204.632 91.2436 0.0015 
284 1 1 -0.375471 0.000220777 -0.277141 0 0 0 -1.00293 -0.0208594 -0.944756 0 0 -0.00160516 22.0481 -427.708 -15.5124 0.0025 
316 1 1 -0.382303 0.0154223 -0.278498 0 0 0 -1.11994 -0.0180026 -0.96364 0 0 -0.000346714 64.7908 -774.002 -147.916 0.0015 
367 1 1 -0.376677 -0.0182633 -0.274022 0 0 0 -1.07867 0.23673 -0.976539 0 0 -0.000346714 -237.907 -748.841 165.515 0.0015 
384 1 1 -0.373584 -0.0127058 -0.275151 0 0 0 -0.965859 0.0791716 -0.919271 0 0 -0.000346714 -107.676 -717.006 -0.409174 0.0015 
234 1 1 -0.375858 -0.00790364 -0.274226 0 0 0 -1.04557 0.103413 -0.90595 0 0 -0.00160516 -39.9827 -425.556 30.5363 0.0025 
263 1 1 -0.37617 -0.00180983 -0.273252 0 0 0 -1.10003 0.0495227 -0.847362 0 0 -0.000346714 40.1686 -693.478 -153.089 0.0015 
374 1 1 -0.365364 0.00449287 -0.272501 0 0 0 -0.856727 -0.0583314 -0.891813 0 0 -0.00160516 0.0871528 -147.447 -31.3329 0.0025 
292 1 1 -0.370443 -0.00634398 -0.270765 0 0 0 -1.09081 0.00665254 -0.876751 0 0 -0.000346714 18.9016 -790.098 -57.2001 0.0015 
308 1 1 -0.369551 0.000270554 -0.269863 0 0 0 -1.0444 0.00880814 -0.91306 0 0 -0.00160516 26.3483 -342.515 7.59896 0.0025 
353 1 1 -0.36318 0.000299001 -0.270784 0 0 0 -0.987403 0.00505564 -0.965235 0 0 -0.000346714 -164.924 -594.2 10.7794 0.0015 
320 1 1 -0.364586 0.0175732 -0.269012 0 0 0 -0.980725 0.0957338 -0.858073 0 0 -0.000346714 -130.611 -741.905 96.6361 0.0015 
294 1 1 -0.369564 -0.0176983 -0.268416 0 0 0 -1.07269 0.0683177 -0.867152 0 0 -0.000346714 -27.3602 -793.48 -54.3081 0.0015 
231 1 1 -0.365932 -0.0116779 -0.267545 0 0 0 -1.00743 0.0439715 -0.875983 0 0 -0.00160516 -90.9023 -417.055 46.7957 0.0025 
336 1 1 -0.365003 -0.00674566 -0.26506 0 0 0 -1.07474 0.0715256 -0.760792 0 0 -0.00160516 -42.4465 -400.526 8.69038 0.0025 
285 1 1 -0.36545 -0.00213801 -0.268072 0 0 0 -1.0151 0.0439018 -0.861865 0 0 -0.00160516 36.7957 -376.608 52.9537 0.0025 
399 1 1 -0.365982 0.00219244 -0.265036 0 0 0 -1.19817 -0.0329601 -0.834972 0 0 -0.00160516 20.5402 -497.571 -10.3015 0.0025 
255 1 1 -0.361706 0.0058631 -0.26836 0 0 0 -0.857492 0.0134788 -0.803007 0 0 -0.000346714 -32.4689 -607.15 88.1325 0.0015 
246 1 1 -0.365462 0.0105683 -0.267378 0 0 0 -0.952532 0.0291249 -0.812726 0 0 -0.00160516 -22.868 -403.019 8.07513 0.0025 
331 1 1 -0.358942 0.00888497 -0.265839 0 0 0 -0.950165 -0.00661328 -0.834251 0 0 -0.000346714 45.1933 -595.402 -58.8156 0.0015 
524 1 1 -0.36901 0.016853 -0.268142 0 0 0 -1.13433 -0.0985662 -0.893283 0 0 -0.000346714 183.127 -782.884 -261.246 0.0015 
328 1 1 -0.372215 0.0232818 -0.268745 0 0 0 -1.10912 -0.330733 -0.981337 0 0 -0.000346714 330.172 -771.887 -194.782 0.0015 
61 1 1 -0.359826 -0.00735927 -0.262643 0 0 0 -1.03921 -0.0496302 -0.813648 0 0 -0.000346714 -136.919 -519.493 -43.1392 0.0015 
229 1 1 -0.357056 -0.00146122 -0.262799 0 0 0 -0.989994 -0.0373241 -0.763454 0 0 -0.000346714 33.3345 -714.915 -4.44825 0.0015 
366 1 1 -0.35277 0.00696695 -0.261733 0 0 0 -1.01022 -0.0671947 -0.834458 0 0 -0.000346714 53.2509 -616.885 -75.1294 0.0015 
365 1 1 -0.356512 0.0124502 -0.263473 0 0 0 -1.02746 0.0205339 -0.943787 0 0 -0.000346714 -72.0759 -569.245 -49.7021 0.0015 
301 1 1 -0.366127 0.0301031 -0.262963 0 0 0 -1.06247 0.0736182 -0.800235 0 0 -0.000346714 35.6289 -726.739 -223.249 0.0015 
141 1 1 -0.359885 -0.0239465 -0.2601 0 0 0 -1.06731 -0.0409471 -0.761081 0 0 -0.000346714 82.8422 -806.273 -125.39 0.0015 
386 1 1 -0.356734 -0.00505859 -0.260012 0 0 0 -1.02871 -0.0505557 -0.729586 0 0 -0.00160516 25.5915 -413.001 -16.5909 0.0025 
357 1 1 -0.350503 -0.0066126 -0.257771 0 0 0 -0.914533 0.000287701 -0.674825 0 0 -0.000346714 -16.9359 -656.863 41.1165 0.0015 
330 1 1 -0.357204 0.0087121 -0.261065 0 0 0 -0.981036 0.000517776 -0.714325 0 0 -0.000346714 -11.5269 -679.338 28.067 0.0015 
283 1 1 -0.356094 0.0121921 -0.257945 0 0 0 -1.17312 -0.0869686 -0.749904 0 0 -0.00160516 46.939 -490.206 -24.9897 0.0025 
368 1 1 -0.370082 -0.0450037 -0.255524 0 0 0 -1.139 0.0851428 -0.831754 0 0 -0.000346714 -52.1039 -909.765 -27.9697 0.0015 
402 1 1 -0.352583 -0.018194 -0.255739 0 0 0 -0.963148 -0.0175427 -0.679102 0 0 -0.00160516 -10.0982 -412.656 45.3525 0.0025 
280 1 1 -0.34866 -0.0127803 -0.254183 0 0 0 -1.01694 0.097405 -0.646826 0 0 -0.000346714 -29.7641 -662.596 145.892 0.0015 
307 1 1 -0.349578 -0.0101598 -0.257259 0 0 0 -1.03739 0.074604 -0.749956 0 0 -0.000346714 54.3972 -740.772 90.438 0.0015 
391 1 1 -0.345929 -0.006758 -0.25491 0 0 0 -0.873022 0.00763356 -0.624546 0 0 -0.000346714 14.4072 -625.247 -52.8278 0.0015 
429 1 1 -0.35132 0.00136827 -0.257113 0 0 0 -1.25346 -0.435862 -0.795739 0 0 -0.000346714 319.294 -905.502 -8.52074 0.0015 
317 1 1 -0.348724 -0.0162382 -0.253562 0 0 0 -1.12332 0.0278308 -0.660019 0 0 -0.000346714 9.13407 -813.141 -17.8477 0.0015 
267 1 1 -0.341301 -0.012627 -0.250751 0 0 0 -0.99715 0.0767359 -0.633586 0 0 -0.000346714 -55.9497 -649.947 108.712 0.0015 
319 1 1 -0.346031 -0.00978601 -0.253856 0 0 0 -0.993003 -0.0183283 -0.636198 0 0 -0.000346714 0.828004 -713.986 30.6998 0.0015 
288 1 1 -0.340772 -0.00796657 -0.250557 0 0 0 -1.0221 0.0858971 -0.592939 0 0 -0.000346714 -72.0725 -734.108 25.3543 0.0015 
304 1 1 -0.343534 -0.00550953 -0.253187 0 0 0 -0.884728 0.0255853 -0.59812 0 0 -0.000346714 -49.2889 -633.526 75.2307 0.0015 
273 1 1 -0.343412 0.00350139 -0.251451 0 0 0 -1.08223 0.0597167 -0.623587 0 0 -0.00160516 -31.8774 -455.581 10.5981 0.0025 
354 1 1 -0.342727 0.00715134 -0.253827 0 0 0 -0.906089 0.0511845 -0.789744 0 0 -0.000346714 7.59219 -581.922 134.497 0.0015 
388 1 1 -0.361405 -0.0451883 -0.24917 0 0 0 -1.02226 0.0213855 -0.701306 0 0 -0.00160516 -54.5804 -419.683 125.789 0.0025 
314 1 1 -0.339638 -0.0144339 -0.248755 0 0 0 -1.07896 0.0152871 -0.542211 0 0 -0.000346714 -21.2417 -744.232 63.9338 0.0015 
334 1 1 -0.338492 -0.0036787 -0.248505 0 0 0 -1.02501 0.103027 -0.576026 0 0 -0.00160516 -58.9995 -441.514 34.8504 0.0025 
377 1 1 -0.33372 0.00180024 -0.247581 0 0 0 -0.922056 0.0071705 -0.494591 0 0 -0.000346714 -17.5486 -373.446 74.0245 0.0015 
345 1 1 -0.334262 0.00483109 -0.247546 0 0 0 -0.992938 0.0533018 -0.558816 0 0 -0.000346714 135.945 -740.577 -81.4948 0.0015 
335 1 1 -0.341918 0.00885251 -0.250105 0 0 0 -1.09097 -0.0560789 -0.621223 0 0 -0.00160516 13.6882 -468.199 21.3459 0.0025 
532 1 1 -0.345273 0.0192102 -0.249815 0 0 0 -1.36195 -0.233836 -0.775004 0 0 -0.00160516 127.35 -589.89 -57.2917 0.0025 
457 1 1 -0.339647 0.0209622 -0.247678 0 0 0 -1.34465 -0.167901 -0.717146 0 0 -0.000346714 184.897 -960.064 -145.846 0.0015 
333 1 1 -0.341481 -0.0257208 -0.245928 0 0 0 -1.13547 0.118197 -0.610761 0 0 -0.00160516 -76.4591 -484.994 67.3674 0.0025 
414 1 1 -0.331069 -0.0147238 -0.243609 0 0 0 -1.04996 0.0132779 -0.500509 0 0 -0.00160516 5.28957 -464.051 -27.1016 0.0025 
300 1 1 -0.331171 0.000901252 -0.24622 0 0 0 -0.899221 0.107675 -0.472571 0 0 -0.000346714 -101.819 -644.892 57.3879 0.0015 
441 1 1 -0.351684 0.0388866 -0.246648 0 0 0 -1.1614 -0.108414 -0.719394 0 0 -0.00160516 60.9912 -541.855 -26.4465 0.0025 
360 1 1 -0.345202 0.0391767 -0.245663 0 0 0 -1.00422 -0.634138 -1.0681 0 0 -0.00160516 350.348 -427.785 -113.242 0.0025 
439 1 1 -0.325551 -0.0211703 -0.239812 0 0 0 -0.946617 0.0515573 -0.389385 0 0 -0.00160516 -15.5989 -413.069 -13.302 0.0025 
527 1 1 -0.326649 -0.0177409 -0.242034 0 0 0 -0.903187 0.130506 -0.404206 0 0 -0.000346714 -16.6517 -388.207 255.72 0.0015 
459 1 1 -0.320897 -0.0139938 -0.240468 0 0 0 -0.88836 0.114358 -0.406503 -8.85912e-05 2.84925e-05 -3.64918e-05 -131.235 -637.56 107.519 0.0015 
454 1 1 -0.319873 -0.0106166 -0.240386 0 0 0 -1.04906 0.0793091 -0.413919 0 0 -0.000346714 -172.507 -732.723 288.039 0.0015 
421 1 1 -0.322991 -0.00853073 -0.241788 0 0 0 -0.909575 0.0331994 -0.379084 0 0 -0.000346714 -44.7748 -652.637 50.9978 0.0015 
363 1 1 -0.319765 -0.00690516 -0.240585 0 0 0 -0.953449 0.141151 -0.393315 -8.56753e-05 1.33681e-05 -3.39784e-05 -134.322 -681.791 80.9488 0.0015 
397 1 1 -0.322161 -0.00414467 -0.241725 0 0 0 -0.976189 0.145533 -0.405469 0 0 -0.000346714 -109.713 -703.11 11.6296 0.0015 
407 1 1 -0.319262 -0.00340521 -0.240569 0 0 0 -0.894799 0.20303 -0.350697 0 0 -0.000346714 -93.7639 -644.49 -126.973 0.0015 
424 1 1 -0.320578 0.000372493 -0.240213 0 0 0 -0.785662 -0.00185321 -0.330994 -0.000449513 -6.77529e-05 -0.000150364 9.81202 -340.443 -21.4357 0.0025 
298 1 1 -0.320867 0.0069616 -0.239905 0 0 0 -1.10883 0.00364859 -0.476934 0 0 -0.00160516 -27.0309 -457.578 -17.7748 0.0025 
379 1 1 -0.318274 0.00380821 -0.240024 0 0 0 -0.897651 0.133876 -0.399658 0 0 -0.000346714 -66.8645 -432.898 -167.444 0.0015 
352 1 1 -0.320987 0.0134647 -0.24058 0 0 0 -1.09693 -0.0511684 -0.46882 -8.53666e-05 -3.98667e-05 -4.34951e-05 90.0502 -781.368 -125.415 0.0015 
449 1 1 -0.325365 0.0194418 -0.241279 0 0 0 -0.988955 0.0671938 -0.426868 0 0 -0.000346714 45.2831 -683.385 -223.787 0.0015 
329 1 1 -0.321799 0.0182953 -0.239976 0 0 0 -1.12511 -0.0585288 -0.48205 -8.50722e-05 -3.97292e-05 -4.4154e-05 66.618 -815.544 -56.4677 0.0015 
434 1 1 -0.32938 -0.0326169 -0.239231 0 0 0 -1.18965 0.0055621 -0.495504 0 0 -0.000346714 -53.1996 -846.882 133.107 0.0015 
488 1 1 -0.317109 -0.0165366 -0.23843 0 0 0 -0.940795 0.105392 -0.453452 0 0 -0.000346714 -128.61 -664.757 128.244 0.0015 
419 1 1 -0.316879 -0.0107983 -0.239049 0 0 0 -1.01584 -0.00779162 -0.455414 0 0 -0.000346714 20.056 -738.777 -29.9137 0.0015 
436 1 1 -0.310794 -0.0114884 -0.236393 0 0 0 -1.0699 0.0776993 -0.438342 -8.73057e-05 2.96621e-05 -3.13517e-05 -40.8477 -779.976 -38.5349 0.0015 
340 1 1 -0.314664 -0.00674726 -0.238538 0 0 0 -1.06818 -0.0383756 -0.430985 -9.89199e-05 1.80933e-05 9.53594e-05 33.5655 -771.328 -15.0683 0.0015 
408 1 1 -0.315943 -0.000497025 -0.239349 0 0 0 -0.740982 0.0534756 -0.311393 1.71365e-05 -1.80499e-06 -7.33098e-05 -51.9317 -364.696 66.4019 0.0015 
467 1 1 -0.31374 -0.00230768 -0.238224 0 0 0 -0.724589 0.0660582 -0.297113 0 0 -0.000346714 -59.1864 -302.72 54.0114 0.0015 
326 1 1 -0.315838 0.0031294 -0.238396 0 0 0 -0.930411 -0.116412 -0.444927 0 0 -0.000346714 -147.935 -492.238 -148.985 0.0015 
322 1 1 -0.314797 0.00686047 -0.23735 0 0 0 -1.04882 -0.0394775 -0.429254 0 0 -0.00160516 -1.41255 -451.135 29.722 0.0025 
389 1 1 -0.318297 0.0110482 -0.238299 0 0 0 -1.0818 -0.00447076 -0.410588 0 0 -0.00160516 19.7767 -438.58 -107.992 0.0025 
370 1 1 -0.314423 0.0131541 -0.237895 0 0 0 -1.16554 -0.172794 -0.5213 -8.25225e-05 -3.856e-05 -4.95473e-05 82.3093 -877.11 106.711 0.0015 
395 1 1 -0.319288 -0.0304265 -0.236037 0 0 0 -1.12726 0.0373893 -0.449807 -0.00210489 0.00195226 0.00561701 -77.2306 -816.173 112.758 0.0015 
260 1 1 -0.325333 -0.0177845 -0.236011 0 0 0 -1.07794 0.111265 -0.382249 0 0 -0.00160516 32.4811 -22.1708 -34.201 0.0025 
394 1 1 -0.301892 -0.00836647 -0.233095 0 0 0 -1.005 0.0393121 -0.427049 -8.53086e-05 2.21864e-05 -4.49858e-05 -13.0926 -734.972 -36.8386 0.0015 
398 1 1 -0.307685 -0.00518362 -0.234618 0 0 0 -1.06261 0.134818 -0.445165 -7.32589e-05 0.00252106 0.0012926 -82.299 -457.037 33.0505 0.0025 
349 1 1 -0.306 -0.000513359 -0.234052 0 0 0 -0.978734 0.11606 -0.406558 -0.000736815 -0.000867645 -0.00139418 -57.7423 -416.634 15.3909 0.0025 
373 1 1 -0.310258 0.00286585 -0.235707 0 0 0 -1.07878 0.0160361 -0.453681 -0.000408952 -6.10029e-05 -0.000176031 -5.48186 -469.184 -3.54934 0.0025 
324 1 1 -0.31645 0.0308827 -0.233473 0 0 0 -1.10891 -0.592521 -0.657103 -0.000393588 -0.000331684 -0.000197842 306.645 -471.475 -92.3337 0.0025 
358 1 1 -0.298591 -0.0202319 -0.229982 0 0 0 -1.09966 0.1946 -0.475535 -7.93031e-05 4.41099e-05 -3.95983e-05 -156.75 -796.26 36.5831 0.0015 
270 1 1 -0.300128 -0.016357 -0.230226 0 0 0 -0.912442 0.20484 -0.373558 0 0 -0.00160516 -157.213 -341.506 89.6191 0.0025 
405 1 1 -0.293901 -0.0100298 -0.229553 0 0 0 -0.721868 0.0311769 -0.30672 -7.43553e-05 1.87651e-05 -7.3284e-05 -6.03631 -529.159 -39.4723 0.0015 
451 1 1 -0.295849 -0.00629574 -0.229583 0 0 0 -0.953308 -0.00239544 -0.401264 -0.000491928 4.01654e-05 -2.82875e-05 -10.6605 -413.362 27.7687 0.0025 
396 1 1 -0.292242 0.00266504 -0.229209 0 0 0 -0.999945 0.170111 -0.410631 -8.74646e-05 -1.31253e-05 -4.02858e-05 -183.081 -734.01 141.741 0.0015 
325 1 1 -0.301183 0.00957367 -0.232541 0 0 0 -1.02203 0.00591362 -0.429894 1.53712e-05 2.00587e-05 -2.91201e-05 -0.527152 -719.076 -23.078 0.0015 
351 1 1 -0.29822 0.00930696 -0.230787 0 0 0 -0.982558 -0.139135 -0.409154 0 0 -0.000346714 162.714 -624.349 -215.13 0.0015 
375 1 1 -0.304602 0.0216676 -0.231039 0 0 0 -1.08442 -0.0275978 -0.458055 -0.000389521 -0.000181797 -0.000211394 17.7273 -475.323 -13.329 0.0025 
385 1 1 -0.302368 0.0257996 -0.229302 0 0 0 -1.08529 -0.025628 -0.457489 -0.000510685 -0.000232849 2.17792e-05 14.2943 -476.914 -7.27215 0.0025 
452 1 1 -0.297325 -0.0125763 -0.228115 0 0 0 -1.07583 0.357941 -0.228647 0 0 -0.00160516 -91.7003 -306.708 -79.5694 0.0025 
438 1 1 -0.303366 -0.00516596 -0.226703 0 0 0 -1.12645 -0.0532757 -0.640274 0 0 -0.00160516 13.079 119.769 -28.1715 0.0025 
378 1 1 -0.287123 -0.0024955 -0.227114 0 0 0 -0.919107 -0.0269311 -0.386349 -8.11323e-05 6.39769e-06 -5.93267e-05 -15.2777 -662.756 82.5013 0.0015 
448 1 1 -0.292065 -0.03387 -0.223284 0 0 0 -1.03312 0.00932881 -0.624088 0 0 -0.000346714 -15.5771 -277.828 38.6416 0.0015 
487 1 1 -0.289859 -0.0299751 -0.223977 0 0 0 -1.08513 0.280179 -0.502758 -7.71876e-05 6.01051e-05 -5.10307e-05 -275.298 -753.175 174.445 0.0015 
420 1 1 -0.289827 -0.0252515 -0.225395 0 0 0 -1.05977 0.100611 -0.438247 0 0 -0.000346714 -132.553 -740.921 151.796 0.0015 
401 1 1 -0.288395 -0.0189318 -0.224961 0 0 0 -1.07824 0.149072 -0.477712 -0.00039484 0.000178525 -0.000196067 -106.702 -456.097 98.5155 0.0025 
426 1 1 -0.282671 -0.0121976 -0.223507 0 0 0 -0.951004 0.0628114 -0.406861 -0.000447775 0.000116021 -7.65177e-05 -38.6585 -412.155 26.732 0.0025 
447 1 1 -0.277447 -0.00483987 -0.222953 0 0 0 -0.884087 0.000801649 -0.373006 -9.57457e-05 7.61348e-06 -2.59014e-05 45.0527 -643.987 -108.081 0.0015 
362 1 1 -0.283114 -0.000542465 -0.224405 0 0 0 -0.955508 0.0120046 -0.40379 -0.000408119 3.23511e-05 -0.000179074 3.03453 -416.023 -19.549 0.0025 
359 1 1 -0.284864 0.0199283 -0.223205 0 0 0 -0.997987 0.00168742 -0.427555 -0.000467801 -0.00020209 -1.69244e-05 2.65834 -439.181 -7.77976 0.0025 
502 1 1 -0.289469 0.0223484 -0.224657 0 0 0 -1.09193 -0.0852401 -0.462066 -0.000785176 -0.000368423 0.000668666 61.6055 -468.67 -58.8214 0.0025 
411 1 1 -0.295632 0.0355846 -0.223395 0 0 0 -0.925234 -0.506613 -0.53291 0 0 -0.00160516 316.122 -338.983 -232.226 0.0025 
382 1 1 -0.288465 -0.0417342 -0.21943 0 0 0 -0.850152 -0.0989226 -0.246008 -0.000438445 0.000514845 0.000876764 -31.5755 -512.024 310.05 0.0015 
490 1 1 -0.278969 -0.0177669 -0.221245 0 0 0 -0.930309 0.0849199 -0.405337 -0.00043887 0.000198706 -5.25425e-05 -31.9474 -412.188 -13.1973 0.0025 
409 1 1 -0.274968 -0.0198952 -0.219789 0 0 0 -1.04749 0.273816 -0.457902 0 0 -0.000346714 -7.73834 -661.579 255.462 0.0015 
435 1 1 -0.274842 -0.00721517 -0.221729 0 0 0 -0.862071 0.0291274 -0.357669 0 0 -0.000346714 10.7602 -442.455 149.518 0.0015 
321 1 1 -0.274827 -0.00261899 -0.22084 0 0 0 -0.871407 -0.0138932 -0.365477 -0.000410168 3.26471e-05 -0.000165601 4.43105 -378.38 3.81632 0.0025 
312 1 1 -0.276571 0.00203606 -0.221566 0 0 0 -0.885076 -0.0413629 -0.365461 -0.000305654 -3.89175e-05 -0.000498735 33.1367 -381.412 -36.9074 0.0025 
338 1 1 -0.26857 0.000423974 -0.219202 0 0 0 -0.861984 -0.105615 -0.415785 0 0 -0.000346714 105.684 -603.602 -72.7921 0.0015 
465 1 1 -0.325445 0.00647746 -0.221516 0 0 0 -1.01683 0.109006 -0.930999 0 0 -0.00160516 -41.1477 290.425 -68.8396 0.0025 
339 1 1 -0.276464 0.0172441 -0.221185 0 0 0 -0.9723 -0.0265864 -0.413162 0 0 -0.000346714 26.8967 -707.077 -19.6794 0.0015 
371 1 1 -0.281863 0.0247729 -0.222164 0 0 0 -1.11133 -0.10511 -0.470876 -8.56084e-05 -3.3699e-05 -4.16601e-05 134.562 -786.658 -141.964 0.0015 
486 1 1 -0.27569 0.0253379 -0.21955 0 0 0 -0.993102 0.0657825 -0.395215 -0.000375308 -2.21249e-05 -1.1497e-05 -24.3033 -714.574 -58.6712 0.0015 
512 1 1 -0.294692 0.0473096 -0.219171 0 0 0 -1.11792 0.119566 -0.40891 0 0 -0.000346714 -112.975 -225.978 -249.766 0.0015 
551 1 1 -0.279564 -0.0369578 -0.217594 0 0 0 -1.08067 -0.0228958 -0.392223 0 0 -0.000346714 -49.4811 -741.148 190.967 0.0015 
431 1 1 -0.270239 -0.0254342 -0.217228 0 0 0 -1.05008 -0.00378218 -0.446209 0 0 -0.000346714 -15.4835 -756.696 48.6361 0.0015 
376 1 1 -0.275654 -0.0239808 -0.217486 0 0 0 -1.14544 0.185641 -0.420792 0 0 -0.00160516 -85.0574 -401.635 219.778 0.0025 
520 1 1 -0.270325 -0.0195975 -0.21841 0 0 0 -0.972064 0.00453099 -0.402222 -0.000182147 3.35053e-05 7.8948e-05 -156.349 -643.502 370.693 0.0015 
458 1 1 -0.268878 -0.015655 -0.218409 0 0 0 -0.759074 0.0446475 -0.325934 -7.8955e-05 2.12935e-05 -5.88903e-05 -64.8064 -543.97 76.4239 0.0015 
428 1 1 -0.262913 -0.0147768 -0.216006 0 0 0 -0.877989 -0.00768565 -0.369651 -0.000281383 4.40889e-05 0.000341732 19.3052 -643.24 -32.5191 0.0015 
463 1 1 -0.274216 -0.0132998 -0.215858 0 0 0 -0.955344 -0.0945644 -0.376589 0 0 -0.00160516 84.7903 -308.363 39.3059 0.0025 
383 1 1 -0.267067 -0.00724252 -0.218479 0 0 0 -0.793485 -0.0279592 -0.335987 -0.000123491 1.16094e-05 4.62717e-05 49.6294 -578.228 -69.3079 0.0015 
425 1 1 -0.262715 -0.0100351 -0.215371 0 0 0 -0.976548 0.0571607 -0.415824 1.42548e-05 -9.85872e-05 -0.000714479 -53.9956 -405.127 84.6858 0.0025 