ITEM: TIMESTEP
67200
ITEM: NUMBER OF ATOMS
793
ITEM: BOX BOUNDS ff ff ff
-0.5 0.1
-0.2 0.2
-0.4 0.15
ITEM: ATOMS id type type x y z ix iy iz vx vy vz fx fy fz omegax omegay omegaz radius 
98 1 1 -0.486696 -0.0173866 -0.393424 0 0 0 -1.23145 0.00742095 -1.80271 0 0 -0.000346714 -28.5849 -890.559 58.3764 0.0015 
53 1 1 -0.474651 0.00291384 -0.396611 0 0 0 -1.11746 -0.0106032 -1.83492 0 0 -0.00160516 -16.8307 -477.631 28.6212 0.0025 
121 1 1 -0.469351 -0.00413178 -0.391341 0 0 0 -0.847453 0.185132 -1.96059 0 0 -0.000346714 -147.623 -728.593 -135.807 0.0015 
103 1 1 -0.453439 -0.0159786 -0.387316 0 0 0 -1.17177 -0.12019 -1.95956 0 0 -0.00160516 -97.0685 -383.117 65.5816 0.0025 
77 1 1 -0.471922 -0.00232102 -0.388279 0 0 0 -1.20917 -0.0927731 -1.78714 0 0 -0.00160516 84.5016 -475.615 25.1848 0.0025 
140 1 1 -0.478844 0.00225018 -0.389125 0 0 0 -1.23747 -0.0932563 -1.71954 0 0 -0.000346714 92.9899 -770.857 -41.6695 0.0015 
104 1 1 -0.483224 0.00609601 -0.386684 0 0 0 -1.25025 0.0514267 -1.75889 0 0 -0.00160516 -42.1805 -530.679 49.2011 0.0025 
58 1 1 -0.439947 0.0113578 -0.38828 0 0 0 -0.94902 0.0198305 -1.7965 0 0 -0.000346714 155.641 -677.146 71.2123 0.0015 
137 1 1 -0.491138 0.0305536 -0.386226 0 0 0 -1.1782 -0.0649507 -1.76169 0 0 -0.000346714 60.2564 -867.776 -0.874001 0.0015 
165 1 1 -0.469708 -0.0104295 -0.382992 0 0 0 -1.14294 0.121721 -1.75188 0 0 -0.000346714 -118.131 -839.428 72.9318 0.0015 
108 1 1 -0.468087 -0.00188327 -0.380277 0 0 0 -1.14511 -0.0853433 -1.66746 0 0 -0.000346714 98.8608 -719.647 -54.3008 0.0015 
139 1 1 -0.46916 0.0131724 -0.381782 0 0 0 -1.14571 -0.123245 -1.75318 0 0 -0.000346714 62.6153 -891.181 71.8998 0.0015 
64 1 1 -0.470567 0.0257293 -0.380554 0 0 0 -1.13601 -0.0425118 -1.74115 0 0 -0.000346714 126.092 -780.116 -229.565 0.0015 
44 1 1 -0.474961 0.00012613 -0.377367 0 0 0 -1.16163 -0.0650147 -1.66716 0 0 -0.000346714 55.0474 -741.588 28.6765 0.0015 
84 1 1 -0.465674 -0.0133304 -0.373155 0 0 0 -1.18881 0.0659689 -1.70349 0 0 -0.000346714 -31.4453 -803.539 80.3585 0.0015 
91 1 1 -0.476186 0.00541215 -0.374283 0 0 0 -1.2572 0.00155239 -1.69148 0 0 -0.00160516 28.9173 -522.756 -60.0474 0.0025 
117 1 1 -0.463333 -0.0156092 -0.369663 0 0 0 -1.21502 0.0786648 -1.70479 0 0 -0.00160516 -67.7865 -517.688 82.8251 0.0025 
135 1 1 -0.466957 0.000433086 -0.370304 0 0 0 -1.2473 -0.113646 -1.68292 0 0 -0.000346714 124.573 -897.878 -97.7638 0.0015 
115 1 1 -0.453483 0.0143121 -0.369327 0 0 0 -1.0634 0.0154668 -1.6447 0 0 -0.000346714 46.0013 -705.403 -123.119 0.0015 
88 1 1 -0.449719 0.0156734 -0.368779 0 0 0 -1.0262 -0.00432002 -1.63971 0 0 -0.000346714 5.24096 -750.645 -11.7672 0.0015 
122 1 1 -0.468875 -0.0110631 -0.366776 0 0 0 -1.23943 0.105005 -1.66001 0 0 -0.000346714 -52.3441 -801.964 76.9716 0.0015 
97 1 1 -0.460958 -0.00403161 -0.366223 0 0 0 -1.19092 -0.00283125 -1.64004 0 0 -0.000346714 15.5574 -830.818 -16.9975 0.0015 
164 1 1 -0.433602 -0.0305479 -0.362016 0 0 0 -0.89004 -0.162454 -1.57792 0 0 -0.000346714 163.798 49.1603 -85.2408 0.0015 
80 1 1 -0.454987 0.0150543 -0.363264 0 0 0 -1.12165 -0.029336 -1.63034 0 0 -0.00160516 25.5936 -489.149 -30.692 0.0025 
166 1 1 -0.459177 -0.00357126 -0.359881 0 0 0 -1.19907 0.00578169 -1.59442 0 0 -0.000346714 0.512656 -855.694 -8.72509 0.0015 
63 1 1 -0.449987 0.00523297 -0.36105 0 0 0 -1.10933 0.035983 -1.59906 0 0 -0.000346714 9.74113 -799.623 -84.2586 0.0015 
149 1 1 -0.459537 -0.0208674 -0.35704 0 0 0 -1.20059 0.0745144 -1.60632 0 0 -0.000346714 -89.3031 -861.97 98.2465 0.0015 
74 1 1 -0.456471 -0.00716776 -0.352799 0 0 0 -1.19736 0.266259 -1.60053 0 0 -0.000346714 -179.356 -904.898 -38.5655 0.0015 
66 1 1 -0.461729 -0.00397624 -0.351155 0 0 0 -1.28537 0.0777282 -1.54825 0 0 -0.00160516 87.1001 -437.028 198.78 0.0025 
83 1 1 -0.44736 0.0245252 -0.353751 0 0 0 -1.10116 0.00492353 -1.56675 0 0 -0.000346714 -12.1613 -813.412 18.5196 0.0015 
133 1 1 -0.430689 -0.0443269 -0.343982 0 0 0 -0.88396 -0.0592736 -1.49037 0 0 -0.000346714 -9.68419 -615.26 140.855 0.0015 
116 1 1 -0.447232 -0.0103997 -0.346615 0 0 0 -1.17487 -0.0751396 -1.51655 0 0 -0.00160516 38.9938 -497.86 4.88896 0.0025 
62 1 1 -0.446156 0.00735249 -0.344098 0 0 0 -1.22943 -0.0560851 -1.51535 0 0 -0.000346714 58.0721 -895.93 -40.99 0.0015 
100 1 1 -0.444489 -0.0174424 -0.3404 0 0 0 -1.21133 -0.0835917 -1.47548 0 0 -0.000346714 77.6811 -875.877 -41.6933 0.0015 
106 1 1 -0.462802 -0.00855099 -0.341745 0 0 0 -1.30373 0.0810737 -1.45291 0 0 -0.00160516 -21.3255 -529.621 87.5652 0.0025 
94 1 1 -0.452469 -0.00819791 -0.339902 0 0 0 -1.17995 -0.0823339 -1.39242 0 0 -0.00160516 23.4741 -455.182 -153.871 0.0025 
185 1 1 -0.436665 -0.00479367 -0.340984 0 0 0 -1.13494 -0.0682258 -1.49761 0 0 -0.000346714 38.1454 -732.308 86.7896 0.0015 
179 1 1 -0.429417 -0.00103463 -0.34298 0 0 0 -1.07154 0.538975 -1.66932 0 0 -0.000346714 -521.433 -757.262 213.055 0.0015 
203 1 1 -0.430579 -0.0141923 -0.336443 0 0 0 -1.02773 -0.162521 -1.48629 0 0 -0.000346714 -32.8074 -744.114 -97.5735 0.0015 
128 1 1 -0.437495 -0.00730629 -0.338377 0 0 0 -1.14817 -0.0638436 -1.44047 0 0 -0.000346714 11.9702 -723.931 26.743 0.0015 
54 1 1 -0.43241 0.00405633 -0.336456 0 0 0 -1.09805 -0.0500744 -1.4499 0 0 -0.00160516 39.2195 -475.791 -40.5462 0.0025 
158 1 1 -0.438286 -0.00853694 -0.332958 0 0 0 -1.18623 -0.0522831 -1.46556 0 0 -0.00160516 10.2226 -483.236 40.6446 0.0025 
93 1 1 -0.438512 -0.0131537 -0.330157 0 0 0 -1.24383 -0.0567742 -1.36947 0 0 -0.00160516 -15.2321 -486.66 91.1171 0.0025 
13 1 1 -0.430675 -0.0115505 -0.329729 0 0 0 -1.1304 -0.0348486 -1.41879 0 0 -0.00160516 74.1335 -492.073 -31.9773 0.0025 
89 1 1 -0.426891 -0.00201688 -0.330781 0 0 0 -1.13108 -0.342886 -1.46334 0 0 -0.000346714 292.773 -820.8 -86.9371 0.0015 
269 1 1 -0.434985 0.00870491 -0.329335 0 0 0 -1.28197 -0.00784036 -1.4318 0 0 -0.000346714 126.428 -909.389 -185.444 0.0015 
112 1 1 -0.43367 -0.0154395 -0.328471 0 0 0 -1.25116 0.0177169 -1.53103 0 0 -0.000346714 57.3328 -558.85 385.875 0.0015 
130 1 1 -0.436351 -0.00192519 -0.3257 0 0 0 -1.19787 -0.129305 -1.3661 0 0 -0.00160516 64.5069 -519.33 -75.6691 0.0025 
243 1 1 -0.430395 0.0100831 -0.326195 0 0 0 -1.20826 0.213882 -1.38601 0 0 -0.000346714 -205.047 -857.591 128.246 0.0015 
256 1 1 -0.431566 -0.014507 -0.321354 0 0 0 -1.235 0.159882 -1.22943 0 0 -0.000346714 -70.7916 -791.862 62.1996 0.0015 
159 1 1 -0.420685 -0.00744068 -0.321648 0 0 0 -1.09726 0.144829 -1.36259 0 0 -0.000346714 -70.3077 -799.299 -45.3437 0.0015 
68 1 1 -0.425058 0.00217164 -0.321537 0 0 0 -1.1539 -0.0331372 -1.34573 0 0 -0.00160516 15.0556 -483.325 -36.6526 0.0025 
199 1 1 -0.406814 0.010013 -0.319385 0 0 0 -1.08435 -0.061576 -1.39441 0 0 -0.000346714 403.501 -676.786 42.8433 0.0015 
196 1 1 -0.428928 0.0225406 -0.319994 0 0 0 -1.21401 -0.0146728 -1.36426 0 0 -0.00160516 17.0199 -530.87 -25.7927 0.0025 
233 1 1 -0.427911 -0.00848631 -0.316297 0 0 0 -1.23505 0.160675 -1.32884 0 0 -0.00160516 -106.123 -516.404 94.0733 0.0025 
190 1 1 -0.419837 0.0184868 -0.316982 0 0 0 -1.13495 0.0081687 -1.31398 0 0 -0.000346714 -12.7155 -837.309 14.3686 0.0015 
173 1 1 -0.405838 0.00836735 -0.311948 0 0 0 -1.09788 -0.151981 -1.33416 0 0 -0.000346714 272.386 -707.869 -24.3477 0.0015 
110 1 1 -0.403619 -0.0147633 -0.311085 0 0 0 -0.938657 -0.136414 -1.22403 0 0 -0.000346714 17.4258 -542.259 -2.09917 0.0015 
169 1 1 -0.401704 0.00474664 -0.306572 0 0 0 -0.993969 -0.0523926 -1.28029 0 0 -0.00160516 -74.29 -423.412 -21.6146 0.0025 
289 1 1 -0.39492 0.0192293 -0.307277 0 0 0 -1.01351 -0.0734463 -1.31825 0 0 -0.000346714 -9.09044 -543.624 102.941 0.0015 
194 1 1 -0.403568 -0.00925564 -0.300079 0 0 0 -1.10952 0.496096 -1.32031 0 0 -0.00160516 -298.467 -421.307 192.778 0.0025 
65 1 1 -0.39772 -0.00762643 -0.297421 0 0 0 -1.02736 -0.0275412 -1.13395 0 0 -0.00160516 36.4644 -448.4 -58.5931 0.0025 
163 1 1 -0.393804 0.00255315 -0.299368 0 0 0 -1.01231 0.0128169 -1.15964 0 0 -0.000346714 31.6847 -707.681 7.95581 0.0015 
184 1 1 -0.40523 0.00597187 -0.297336 0 0 0 -1.27399 -0.271361 -1.17532 0 0 -0.000346714 213.733 -888.409 -42.4456 0.0015 
67 1 1 -0.405886 0.00997452 -0.300235 0 0 0 -1.15993 -0.025382 -1.14293 0 0 -0.00160516 75.5539 -398.094 -46.3078 0.0025 
204 1 1 -0.399579 0.0238478 -0.298509 0 0 0 -0.99054 -0.185185 -1.20337 0 0 -0.000346714 209.691 -691.083 -169.486 0.0015 
150 1 1 -0.399504 -0.0288371 -0.295206 0 0 0 -1.1301 -0.0472229 -1.16181 0 0 -0.000346714 -99.481 -786.221 286.276 0.0015 
187 1 1 -0.401413 0.000868752 -0.295865 0 0 0 -1.03602 -0.166614 -1.09869 0 0 -0.000346714 -94.216 -487.749 108.677 0.0015 
151 1 1 -0.399537 0.00500906 -0.297066 0 0 0 -1.09504 0.00521485 -1.13139 0 0 -0.000346714 -73.6914 -748.728 -85.419 0.0015 
95 1 1 -0.391599 0.0059722 -0.293909 0 0 0 -1.01777 0.0447613 -1.09837 0 0 -0.000346714 -79.8216 -745.486 109.778 0.0015 
131 1 1 -0.395772 -0.000798868 -0.293219 0 0 0 -1.06047 0.0127585 -1.09582 0 0 -0.00160516 -21.5098 -451.351 42.9886 0.0025 
90 1 1 -0.389808 -0.0015228 -0.290685 0 0 0 -1.04056 0.00988612 -1.088 0 0 -0.00160516 10.5195 -430.119 -30.2997 0.0025 
143 1 1 -0.396372 -0.00657941 -0.289201 0 0 0 -1.20098 0.209653 -1.11856 0 0 -0.00160516 -144.076 -500.166 126.817 0.0025 
136 1 1 -0.395731 0.00464103 -0.287808 0 0 0 -1.0506 -0.0410702 -1.01259 0 0 -0.000346714 -18.4602 -729.004 -118.572 0.0015 
148 1 1 -0.384476 0.00764661 -0.289773 0 0 0 -0.891873 -0.0193385 -1.11647 0 0 -0.000346714 289.653 -341.242 14.0345 0.0015 
172 1 1 -0.374734 0.0150237 -0.287146 0 0 0 -0.764985 0.0184259 -1.01046 0 0 -0.000346714 -36.3449 -204.036 -265.701 0.0015 
177 1 1 -0.38972 -0.00913056 -0.285876 0 0 0 -1.14715 0.132664 -1.0613 0 0 -0.000346714 -58.4485 -848.324 -95.2034 0.0015 
175 1 1 -0.386147 0.000239895 -0.282131 0 0 0 -1.02761 -0.216481 -0.886637 0 0 -0.000346714 187.482 -634.926 88.5663 0.0015 
161 1 1 -0.376265 0.00692415 -0.282128 0 0 0 -0.97153 -0.167016 -1.12325 0 0 -0.000346714 -239.173 -98.2788 84.1176 0.0015 
210 1 1 -0.38443 0.0165313 -0.280532 0 0 0 -1.11113 -0.00942351 -1.01114 0 0 -0.00160516 37.4291 -475.028 -78.8357 0.0025 
198 1 1 -0.392428 -0.0329745 -0.278074 0 0 0 -1.13758 0.116921 -1.02252 0 0 -0.000346714 -80.478 -897.555 -10.3047 0.0015 
214 1 1 -0.386702 -0.0325337 -0.27879 0 0 0 -1.18569 0.111194 -1.08948 0 0 -0.000346714 -83.0994 -915.365 -4.93271 0.0015 
153 1 1 -0.375683 -0.00414951 -0.277083 0 0 0 -1.01583 -0.0284624 -0.927732 0 0 -0.000346714 -45.0149 -722.203 160.275 0.0015 
212 1 1 -0.384652 0.0297429 -0.274871 0 0 0 -1.21134 -0.064005 -1.00262 0 0 -0.000346714 143.661 -835.886 -232.941 0.0015 
221 1 1 -0.378401 -0.024967 -0.270478 0 0 0 -1.19685 0.0788713 -0.961072 0 0 -0.00160516 46.1343 -420.092 62.5528 0.0025 
15 1 1 -0.366556 -0.0120805 -0.271434 0 0 0 -1.00466 0.0302447 -0.945211 0 0 -0.00160516 -52.1407 -288.095 58.0442 0.0025 
167 1 1 -0.370045 -0.00367056 -0.271587 0 0 0 -0.984101 -0.00310899 -0.873755 0 0 -0.00160516 3.00523 -426.073 -3.53896 0.0025 
123 1 1 -0.368928 0.005728 -0.271073 0 0 0 -1.05613 0.0224199 -0.880795 0 0 -0.000346714 3.88147 -763.446 -47.503 0.0015 
192 1 1 -0.373013 0.0132157 -0.269774 0 0 0 -0.95046 -0.0112632 -0.743225 0 0 -0.000346714 -36.2216 -534.449 -89.5178 0.0015 
205 1 1 -0.36505 -0.0163613 -0.265951 0 0 0 -1.0625 -0.0173898 -0.891669 0 0 -0.000346714 -10.5004 -705.017 -133.94 0.0015 
213 1 1 -0.358807 -0.00221135 -0.266882 0 0 0 -0.923552 -0.00290206 -0.826615 0 0 -0.000346714 12.4447 -326.308 43.9774 0.0015 
73 1 1 -0.358746 0.000968692 -0.266399 0 0 0 -0.973773 0.0164436 -0.849232 0 0 -0.000346714 -25.3215 -617.309 8.82711 0.0015 
208 1 1 -0.366198 0.015499 -0.266616 0 0 0 -1.04016 0.013282 -0.84378 0 0 -0.00160516 4.40502 -454.321 -25.219 0.0025 
224 1 1 -0.371476 0.0197796 -0.268271 0 0 0 -1.21595 -0.0697075 -0.91357 0 0 -0.000346714 69.4761 -885.323 -44.1922 0.0015 
200 1 1 -0.359726 -0.0263519 -0.265091 0 0 0 -0.763939 -0.0851092 -0.894026 0 0 -0.000346714 -272.422 -116.611 -16.6336 0.0015 
157 1 1 -0.359181 -0.0203387 -0.261283 0 0 0 -0.847013 0.0631745 -0.716256 0 0 -0.00160516 -15.3931 -351.929 -8.20579 0.0025 
219 1 1 -0.362366 -0.0139696 -0.264053 0 0 0 -1.11082 0.0553876 -0.85292 0 0 -0.00160516 -57.456 -407.681 66.7014 0.0025 
183 1 1 -0.362497 -0.0075986 -0.263351 0 0 0 -1.01851 0.140764 -0.782908 0 0 -0.00160516 -26.3056 -327.74 -9.61479 0.0025 
197 1 1 -0.352307 -0.00737405 -0.261816 0 0 0 -0.781164 -0.00802137 -0.718199 0 0 -0.000346714 17.1181 -481.313 -11.8934 0.0015 
189 1 1 -0.358273 -0.00586529 -0.261529 0 0 0 -0.974528 -0.0587685 -0.720194 0 0 -0.000346714 106.442 -651.39 -29.6752 0.0015 
132 1 1 -0.356142 0.00275945 -0.262542 0 0 0 -0.990237 0.0675224 -0.802867 0 0 -0.00160516 14.8907 -289.595 2.05263 0.0025 
119 1 1 -0.362763 0.00468153 -0.264254 0 0 0 -1.11678 -0.00630556 -0.82918 0 0 -0.00160516 -1.58639 -487.378 9.75291 0.0025 
244 1 1 -0.362282 0.0139688 -0.26242 0 0 0 -1.16282 0.00938645 -0.820872 0 0 -0.00160516 25.7538 -499.402 -71.0578 0.0025 
193 1 1 -0.355426 -0.0243572 -0.258172 0 0 0 -0.852717 -0.0765502 -0.792095 0 0 -0.00160516 -19.0268 -313.611 44.2248 0.0025 
127 1 1 -0.350055 -0.0116763 -0.258058 0 0 0 -0.831664 -0.0487669 -0.662537 0 0 -0.000346714 12.3567 -579.139 19.1742 0.0015 
101 1 1 -0.349569 -0.0068438 -0.259711 0 0 0 -0.780429 0.0102476 -0.691615 0 0 -0.000346714 -16.9856 -426.913 58.2385 0.0015 
191 1 1 -0.355411 -0.0018109 -0.259438 0 0 0 -1.00926 0.01231 -0.759482 0 0 -0.000346714 -143.128 -351.733 81.2902 0.0015 
144 1 1 -0.351607 0.000190301 -0.259143 0 0 0 -0.983795 0.0215203 -0.76813 0 0 -0.00160516 -59.7677 -370.271 50.4024 0.0025 
9 1 1 -0.351631 0.00448244 -0.257682 0 0 0 -1.02426 0.0472886 -0.663654 0 0 -0.000346714 2.05681 -703.949 -115.091 0.0015 
262 1 1 -0.366695 0.0325499 -0.260008 0 0 0 -1.28094 0.124041 -0.808108 0 0 -0.000346714 -57.362 -937.353 -91.2237 0.0015 
265 1 1 -0.376307 0.0508831 -0.259181 0 0 0 -0.987278 -0.431775 -1.30029 0 0 -0.000346714 641.773 -429.402 -512.99 0.0015 
218 1 1 -0.352594 -0.0165488 -0.256083 0 0 0 -1.16241 0.0733094 -0.738741 0 0 -0.000346714 -40.6898 -856.813 -30.7497 0.0015 
59 1 1 -0.348361 -0.00804864 -0.256008 0 0 0 -0.827722 -0.0129524 -0.615713 0 0 -0.000346714 -67.4091 99.2609 -17.928 0.0015 
181 1 1 -0.345431 -0.00507411 -0.255593 0 0 0 -0.945977 0.0329199 -0.792904 0 0 -0.00160516 -145.996 -252.262 1.70515 0.0025 
206 1 1 -0.350674 -0.00306749 -0.254324 0 0 0 -0.976405 0.0758532 -0.675696 0 0 -0.00160516 -17.202 -170.623 4.82597 0.0025 
155 1 1 -0.348164 0.00282871 -0.255809 0 0 0 -1.0261 0.0350769 -0.731867 0 0 -0.00160516 0.928375 -350.485 26.2481 0.0025 
92 1 1 -0.403268 0.00542205 -0.25482 0 0 0 -1.09837 -0.0974242 -0.669584 0 0 -0.00160516 13.3064 -107.421 -112.37 0.0025 
178 1 1 -0.347428 0.00668848 -0.256838 0 0 0 -0.875148 0.0330808 -0.764031 0 0 -0.000346714 -54.1508 -599.63 39.6465 0.0015 
276 1 1 -0.347652 0.00886305 -0.254639 0 0 0 -1.10948 -0.0420042 -0.61765 0 0 -0.000346714 27.7378 -715.581 -0.74492 0.0015 
293 1 1 -0.36365 0.0331236 -0.257475 0 0 0 -1.28315 -0.110707 -0.855139 0 0 -0.000346714 82.9603 -969.846 -0.631742 0.0015 
188 1 1 -0.348761 -0.0248523 -0.250943 0 0 0 -1.18406 0.110762 -0.67665 0 0 -0.000346714 -65.3032 -893.373 -32.5978 0.0015 
259 1 1 -0.354484 -0.0215526 -0.253756 0 0 0 -1.22873 0.123982 -0.643675 0 0 -0.00160516 -68.6659 -469.939 35.8833 0.0025 
182 1 1 -0.346984 -0.0115773 -0.254082 0 0 0 -0.874289 0.00631579 -0.629425 0 0 -0.00160516 -29.1939 -374.029 64.9987 0.0025 
180 1 1 -0.345607 0.000667444 -0.251394 0 0 0 -1.07507 0.109286 -0.563224 0 0 -0.00160516 -2.30228 -398.032 -60.2754 0.0025 
228 1 1 -0.346442 0.0154872 -0.253139 0 0 0 -1.11224 0.00178354 -0.67764 0 0 -0.000346714 75.8592 -782.056 -182.758 0.0015 
225 1 1 -0.340236 -0.0149112 -0.249809 0 0 0 -0.962436 0.00897913 -0.573888 0 0 -0.000346714 23.763 -718.116 -73.3922 0.0015 
211 1 1 -0.335644 -0.0175016 -0.248132 0 0 0 -0.873726 -0.101697 -0.74906 0 0 -0.000346714 -178.623 -327.611 8.8973 0.0015 
145 1 1 -0.341036 -0.00148945 -0.249547 0 0 0 -0.961799 0.221409 -0.548644 0 0 -0.00160516 -76.3318 -385.074 -25.0555 0.0025 
126 1 1 -0.336917 -0.00131862 -0.249096 0 0 0 -0.971164 0.0756868 -0.566248 -0.000323553 2.6693e-05 -0.000677324 -19.1723 -665.098 -79.7523 0.0015 
216 1 1 -0.33409 -0.00149976 -0.248122 0 0 0 -0.957023 -0.00924115 -0.573388 0.000323553 -2.6693e-05 -1.61041e-05 -173.895 -652.574 -57.2739 0.0015 
202 1 1 -0.333802 0.00184463 -0.246829 0 0 0 -1.04816 0.0527132 -0.481771 0 0 -0.000346714 -93.445 -717.384 28.3075 0.0015 
305 1 1 -0.343558 0.0293661 -0.247596 0 0 0 -1.13817 -0.0660108 -0.654018 0 0 -0.000346714 67.139 -845.649 -44.0672 0.0015 
232 1 1 -0.334106 -0.0149247 -0.244642 0 0 0 -1.0912 -0.00281361 -0.472335 0 0 -0.00160516 0.912803 -446.291 -12.5083 0.0025 
168 1 1 -0.335514 -0.00529842 -0.246889 0 0 0 -0.966118 0.0441873 -0.527498 0 0 -0.00160516 -34.8639 -415.844 38.1733 0.0025 
268 1 1 -0.328497 0.00444554 -0.244563 0 0 0 -1.06849 -0.0813625 -0.515966 0 0 -0.000346714 90.5287 -770.654 -73.7222 0.0015 
253 1 1 -0.337952 0.0312492 -0.243978 0 0 0 -1.09504 -0.113846 -0.606154 0 0 -0.000346714 187.587 -742.933 -247.5 0.0015 
272 1 1 -0.344663 0.03629 -0.245362 0 0 0 -0.999806 0.285492 -0.678688 0 0 -0.00160516 9.75074 -59.5008 -143.463 0.0025 
274 1 1 -0.31991 0.00252172 -0.239795 0 0 0 -0.913604 0.0585884 -0.381378 9.48741e-05 3.9666e-05 4.15865e-05 -52.0676 -331.853 32.7291 0.0025 
215 1 1 -0.320936 0.0062811 -0.241074 0 0 0 -0.996616 -0.129986 -0.428317 -8.83303e-05 -1.32923e-05 -3.82145e-05 123.307 -718.256 -68.9338 0.0015 
239 1 1 -0.322009 0.0145319 -0.240799 0 0 0 -0.960693 -0.0351718 -0.408712 -8.53655e-05 -3.98667e-05 -4.34931e-05 86.4522 -677.475 -144.909 0.0015 
217 1 1 -0.332619 0.0276499 -0.243097 0 0 0 -0.979047 0.0482316 -0.517525 0 0 -0.000346714 -62.3769 -710.188 -149.895 0.0015 
258 1 1 -0.343146 0.031693 -0.243822 0 0 0 -1.15576 0.0547008 -0.894637 0 0 -0.00160516 -2.81569 167.991 -15.1534 0.0025 
296 1 1 -0.334152 0.0311671 -0.240872 0 0 0 -1.14681 0.0735282 -0.517833 0 0 -0.00160516 19.6271 -471.011 -120.325 0.0025 
287 1 1 -0.340925 0.0391506 -0.242242 0 0 0 -1.07163 0.0470492 -0.53141 0 0 -0.000346714 29.6621 -756.413 -180.337 0.0015 
147 1 1 -0.31782 -0.00981028 -0.239625 0 0 0 -0.975134 -0.0320725 -0.424701 0.000437669 -0.000517829 0.00672499 37.3165 -574.864 65.7569 0.0015 
195 1 1 -0.314738 -0.0102968 -0.236617 0 0 0 -0.987624 0.000878592 -0.476883 0 0 -0.00160516 -26.1234 -370.611 80.2232 0.0025 
247 1 1 -0.318534 -0.00510773 -0.239126 0 0 0 -0.922251 -0.0266507 -0.372412 -0.00318275 -0.00122167 -0.000591925 -3.42751 -391.136 28.5515 0.0025 
266 1 1 -0.312803 -0.0050513 -0.237704 0 0 0 -0.930787 -0.0391922 -0.319187 0.00561099 -0.00426458 0.00736941 13.9605 -592.786 172.447 0.0015 
124 1 1 -0.316104 -0.00063276 -0.239422 0 0 0 -0.813293 -0.0105955 -0.342728 0.000606554 0.00489244 -0.00206698 -16.972 -400.466 -185.489 0.0015 
109 1 1 -0.314982 -0.00332345 -0.238774 0 0 0 -0.933851 -0.0302564 -0.348165 -0.00169104 -0.000530528 -0.001078 75.8547 -340.201 96.7861 0.0015 
223 1 1 -0.312582 -0.00181123 -0.237771 0 0 0 -0.985785 0.0903524 -0.354558 0 0 -0.000346714 -33.2317 -665.528 -124.116 0.0015 
251 1 1 -0.30935 -0.00133397 -0.236536 0 0 0 -1.10051 0.0257255 -0.464723 -8.79681e-05 7.36588e-06 -4.29511e-05 -21.2416 -796.8 6.19935 0.0015 
118 1 1 -0.315277 0.00258925 -0.237225 0 0 0 -1.03469 0.0616012 -0.347654 -0.00105749 0.00264325 0.00402918 -58.2738 -262.782 -19.9183 0.0025 
249 1 1 -0.31681 0.00557773 -0.23939 0 0 0 -0.942797 0.0735211 -0.366554 0.000239811 0.00140158 0.00213295 -43.1644 -594.644 -51.9829 0.0015 
281 1 1 -0.314156 0.00629584 -0.238186 0 0 0 -0.902322 0.0829782 -0.319391 2.51897e-05 -0.000306793 -0.00015609 -71.2509 -595.36 97.4076 0.0015 
235 1 1 -0.311688 0.00437523 -0.237304 0 0 0 -0.948256 -0.0283829 -0.386742 -0.000580359 -0.000275169 0.000588993 -97.9678 -573.952 91.082 0.0015 
160 1 1 -0.309425 0.00598554 -0.236177 0 0 0 -0.974155 -0.040412 -0.362225 0.00057765 0.00061947 0.000560266 38.7164 -653.095 -68.3598 0.0015 
201 1 1 -0.31668 0.00866098 -0.239114 0 0 0 -0.934088 0.117927 -0.401022 0 0 -0.000346714 -43.0598 -648.512 -61.5791 0.0015 
369 1 1 -0.312395 0.0107345 -0.237196 0 0 0 -1.02705 -0.134918 -0.440773 -8.3417e-05 -1.253e-05 -4.85595e-05 180.837 -732.09 -197.288 0.0015 
156 1 1 -0.324426 0.0224435 -0.23917 0 0 0 -1.13536 -0.146372 -0.513752 0 0 -0.00160516 104.231 -482.863 -93.3553 0.0025 
245 1 1 -0.327924 0.0261639 -0.239824 0 0 0 -1.16725 -0.179685 -0.571935 0 0 -0.00160516 98.8841 -514.922 -43.4747 0.0025 
154 1 1 -0.309694 0.0115222 -0.236009 0 0 0 -1.04015 -0.0657291 -0.442461 -0.000101746 -1.50518e-05 -6.12701e-06 97.979 -746.7 -119.423 0.0015 
311 1 1 -0.318861 0.0327296 -0.233819 0 0 0 -1.18815 0.100366 -0.4506 -0.000357738 -0.000303803 -0.000263571 -24.4653 -521.5 -51.6231 0.0025 
315 1 1 -0.338343 0.0511188 -0.233879 0 0 0 -1.19537 -0.0474614 -0.572753 0 0 -0.000346714 141.619 -839.23 -269.993 0.0015 
250 1 1 -0.310492 -0.0310968 -0.232072 0 0 0 -1.13908 0.049062 -0.501771 0 0 -0.000346714 -60.6543 -824.799 78.0721 0.0015 
226 1 1 -0.299392 -0.0238625 -0.229514 0 0 0 -0.98829 0.0467718 -0.399416 -8.12404e-05 4.45343e-05 -4.13537e-05 -30.1104 -724.908 -10.384 0.0015 
282 1 1 -0.293636 -0.0116516 -0.229249 0 0 0 -0.870556 0.0380678 -0.367781 0 0 -0.000346714 -22.5456 -612.313 94.7436 0.0015 
299 1 1 -0.298161 -0.0032048 -0.230465 0 0 0 -1.01557 0.119197 -0.457931 0 0 -0.00160516 -71.3908 107.737 -62.3416 0.0025 
279 1 1 -0.296001 0.000310003 -0.230945 0 0 0 -0.874579 0.0920702 -0.354582 2.96618e-05 -0.000120729 0.00026595 -67.3813 -598.943 30.6574 0.0015 
271 1 1 -0.296696 0.00497585 -0.229854 0 0 0 -1.00513 -0.0505275 -0.427681 5.04381e-05 0.000103609 -0.000407523 26.3283 -428.1 -17.1559 0.0025 
290 1 1 -0.292925 0.00635845 -0.229166 0 0 0 -0.947036 -0.12169 -0.383304 0 0 -0.000346714 93.2805 -639.813 -54.1415 0.0015 
134 1 1 -0.295728 0.0121712 -0.230074 0 0 0 -1.09766 -0.176333 -0.474858 -9.22705e-05 -1.40203e-05 -2.99436e-05 174.178 -789.136 -109.581 0.0015 
295 1 1 -0.294868 -0.0260238 -0.227236 0 0 0 -0.96327 0.0106574 -0.426192 0 0 -0.000346714 -60.0274 -671.363 138.91 0.0015 
306 1 1 -0.290201 -0.0250306 -0.22562 0 0 0 -0.914469 0.0692758 -0.391907 0 0 -0.000346714 -92.2331 -650.476 106.116 0.0015 
176 1 1 -0.292961 -0.0235996 -0.227032 0 0 0 -0.926847 -0.000112171 -0.351637 0 0 -0.000346714 11.5341 -678.725 -23.5095 0.0015 
207 1 1 -0.29339 -0.0153289 -0.227634 0 0 0 -0.919984 0.00885805 -0.384007 0 0 -0.00160516 -43.5329 -379.353 101.88 0.0025 
278 1 1 -0.290743 -0.0104305 -0.228181 0 0 0 -0.898238 0.0917207 -0.385227 -4.93046e-05 1.1013e-05 -0.000173763 -109.105 -641.451 101.289 0.0015 
242 1 1 -0.287289 -0.0133453 -0.226411 0 0 0 -1.0184 0.0187831 -0.429975 -8.75225e-05 2.26508e-05 -3.9273e-05 -59.0712 -728.761 108.075 0.0015 
209 1 1 -0.293559 -0.00229085 -0.228709 0 0 0 -0.960718 -0.134273 -0.406997 0 0 -0.00160516 52.2207 -398.783 23.5642 0.0025 
170 1 1 -0.287703 -0.00223647 -0.226284 0 0 0 -0.940251 -0.0259005 -0.395772 -0.000510581 3.5692e-05 -0.000283391 -8.77103 -406.981 47.5015 0.0025 
86 1 1 -0.28972 0.00446421 -0.228031 0 0 0 -0.928531 -0.0856137 -0.397629 -8.60714e-05 -1.30736e-05 -4.35121e-05 28.0679 -678.646 80.5754 0.0015 
252 1 1 -0.290355 0.0111136 -0.227873 0 0 0 -1.11349 -0.0909499 -0.475929 -8.43068e-05 -1.27494e-05 -5.04234e-05 103.156 -801.939 -88.0736 0.0015 
286 1 1 -0.292799 0.0154748 -0.227323 0 0 0 -1.14365 -0.0941345 -0.502842 -0.000333654 -0.000259693 0.00195439 49.4219 -501.818 -17.6091 0.0025 
238 1 1 -0.290458 -0.0279189 -0.224798 0 0 0 -1.15948 0.0421225 -0.433021 0 0 -0.000346714 -45.6509 -820.391 105.4 0.0015 
257 1 1 -0.283388 -0.0216777 -0.222357 0 0 0 -1.10633 0.0953538 -0.479206 -0.000422375 0.000190783 -0.000130261 -78.5486 -470.498 87.7211 0.0025 
236 1 1 -0.286145 -0.0198044 -0.224956 0 0 0 -1.1055 0.107069 -0.481184 -8.28182e-05 3.75056e-05 -4.73319e-05 -108.597 -797.32 72.0803 0.0015 
303 1 1 -0.28399 -0.0121147 -0.225158 0 0 0 -1.02053 0.215877 -0.452365 -8.72722e-05 2.26003e-05 -3.8734e-05 -171.081 -738.428 33.5699 0.0015 
323 1 1 -0.284078 0.00792112 -0.224345 0 0 0 -0.93244 0.0280066 -0.392766 -0.000502509 -8.60587e-05 0.000134945 -11.1403 -405.91 -2.34196 0.0025 
222 1 1 -0.289823 0.0196224 -0.225306 0 0 0 -1.16483 -0.0664036 -0.490472 -0.000373612 -0.000188423 6.04335e-05 85.7471 -485.667 -138.286 0.0025 
347 1 1 -0.28529 0.0178022 -0.223769 0 0 0 -1.17725 -0.0624369 -0.516319 -0.000478359 -0.00021012 4.66766e-05 17.7643 -523.939 23.1584 0.0025 
261 1 1 -0.295273 -0.0428109 -0.221424 0 0 0 -1.20468 0.151973 -0.527109 0 0 -0.000346714 -169.146 -861.004 151.104 0.0015 
237 1 1 -0.282445 -0.0346174 -0.219592 0 0 0 -1.08365 0.0354274 -0.424579 0 0 -0.000346714 -22.3551 -815.442 5.44052 0.0015 
350 1 1 -0.277789 -0.0258464 -0.219184 0 0 0 -1.03206 0.121727 -0.442421 4.07417e-05 -9.9405e-05 -0.00181351 -80.6605 -440.163 67.7808 0.0025 
275 1 1 -0.2752 -0.0166998 -0.220962 0 0 0 -0.937231 0.0122238 -0.397479 -8.77941e-05 2.36365e-05 -3.98548e-05 -8.15139 -682.601 -1.77156 0.0015 
125 1 1 -0.274293 -0.00878425 -0.221443 0 0 0 -0.953511 0.0432063 -0.40345 -8.72221e-05 2.24821e-05 -3.90391e-05 -30.7487 -692.959 -1.5389 0.0015 
327 1 1 -0.271672 -0.00734287 -0.220427 0 0 0 -0.948245 0.0328613 -0.403357 -8.93362e-05 8.18908e-06 -3.69565e-05 24.7775 -691.903 -114.618 0.0015 
264 1 1 -0.271598 0.0185503 -0.21898 0 0 0 -1.08645 0.0871082 -0.430938 -0.000114101 -4.8608e-05 5.31694e-05 64.5604 -741.238 -313.003 0.0015 
348 1 1 -0.278926 0.0228309 -0.220189 0 0 0 -1.18753 -0.169448 -0.512638 -0.000385148 -0.00015299 -0.000201975 70.9762 -520.492 7.627 0.0025 
146 1 1 -0.272988 -0.0306532 -0.216288 0 0 0 -0.740715 0.0603954 -0.345 0 0 -0.000346714 14.9471 -533.212 77.1727 0.0015 
248 1 1 -0.272101 -0.0236525 -0.218371 0 0 0 -1.00369 0.522486 -0.522901 -9.07191e-05 4.17057e-05 -1.88596e-05 -355.017 -751.038 -69.0673 0.0015 
142 1 1 -0.264652 -0.0135553 -0.215783 0 0 0 -0.880534 0.0174984 -0.370893 -0.00039721 0.000109636 -0.00015251 -3.44198 -385.363 -10.1249 0.0025 
343 1 1 -0.262842 -0.00813017 -0.216657 0 0 0 -0.937365 0.00554236 -0.397659 -8.86702e-05 9.24355e-06 -3.84549e-05 -19.7762 -678.029 37.1666 0.0015 
254 1 1 -0.265566 0.0017742 -0.21801 0 0 0 -0.749183 -0.00734801 -0.312352 -0.000100218 -2.96176e-05 -0.0001011 22.7775 -540.01 -41.6956 0.0015 
302 1 1 -0.26558 0.00497799 -0.217676 0 0 0 -0.878552 0.041153 -0.377096 0 0 -0.000346714 -92.6434 -611.728 62.0627 0.0015 
374 1 1 -0.262448 0.00968581 -0.215233 0 0 0 -0.851579 -0.0422532 -0.362003 0.00019404 4.45183e-06 0.00137498 -27.8407 141.986 -15.096 0.0025 
230 1 1 -0.266551 0.0159644 -0.217291 0 0 0 -1.00719 -0.0115919 -0.42771 -5.10044e-05 -1.94853e-05 -0.000115914 26.6836 -730.113 -43.0418 0.0015 
241 1 1 -0.266627 0.0201245 -0.216666 0 0 0 -0.944214 0.0511184 -0.395001 -9.57723e-05 -6.49601e-05 0.000306817 -59.1134 -700.68 52.3318 0.0015 
291 1 1 -0.276031 -0.0423585 -0.214052 0 0 0 -1.10122 0.239966 -0.564786 0 0 -0.000346714 -227.182 -793.963 122.437 0.0015 
240 1 1 -0.261072 -0.0241698 -0.213492 0 0 0 -1.0617 0.113672 -0.480747 0 0 -0.000346714 -73.4437 -782.821 -24.3855 0.0015 
227 1 1 -0.2613 -0.018235 -0.214912 0 0 0 -0.908491 0.0952392 -0.39512 -9.26676e-05 2.6164e-05 -2.92557e-05 -113.878 -649.233 105.342 0.0015 
234 1 1 -0.256948 -0.0184969 -0.211951 0 0 0 -0.862756 0.0399782 -0.383907 -0.000601051 0.000197222 6.36709e-05 -29.9751 -376.462 28.1926 0.0025 
406 1 1 -0.260153 -0.0153212 -0.214779 0 0 0 -0.88131 0.0946342 -0.387486 -0.000751586 0.000221255 0.00188172 -63.0298 -650.447 -17.6285 0.0015 
342 1 1 -0.253398 -0.0146639 -0.212013 0 0 0 -0.914523 0.0435682 -0.375675 0 0 -0.000346714 -100.002 -641.728 166.001 0.0015 
162 1 1 -0.256498 -0.0123055 -0.213591 0 0 0 -0.90862 0.0908301 -0.390758 -9.99191e-06 -3.95716e-06 -0.000334763 -136.422 -641.235 168.967 0.0015 
263 1 1 -0.254447 -0.0101742 -0.212988 0 0 0 -0.886125 0.0822892 -0.378671 5.0611e-06 0.000266176 0.00036197 -40.5072 -622.334 -106.305 0.0015 
318 1 1 -0.252289 -0.00825055 -0.212113 0 0 0 -0.871164 0.0616185 -0.36671 0 0 -0.000346714 -83.279 -608.5 70.9082 0.0015 
297 1 1 -0.259806 -0.000684496 -0.214595 0 0 0 -0.948172 -0.0180965 -0.400377 -0.000463435 2.56863e-05 4.8154e-05 11.8831 -412.217 -9.62778 0.0025 
284 1 1 -0.258294 0.00403746 -0.21373 0 0 0 -0.897923 -0.0280712 -0.37625 0.000348698 2.82062e-05 -0.00222228 13.8363 -389.274 -4.06286 0.0025 
246 1 1 -0.254594 0.00702392 -0.211994 0 0 0 -0.928725 0.0516884 -0.409605 0 0 -0.00160516 -31.8837 -389.149 8.42208 0.0025 
255 1 1 -0.258738 0.00802912 -0.214824 0 0 0 -0.842008 0.0140742 -0.351797 -8.82613e-05 -9.29416e-06 -3.66691e-05 -46.3978 -613.158 86.5219 0.0015 
313 1 1 -0.259692 0.0130457 -0.214861 0 0 0 -0.90362 0.0514201 -0.362686 0.000145201 5.84378e-05 -0.000786516 -55.4674 -663.353 39.2003 0.0015 
356 1 1 -0.256753 0.0168348 -0.213042 0 0 0 -1.01595 0.0511115 -0.421997 -8.34729e-05 -3.05488e-05 -4.53379e-05 -9.84809 -733.065 -65.0502 0.0015 
277 1 1 -0.277102 -0.0500614 -0.210794 0 0 0 -1.14668 0.175512 -0.53772 0 0 -0.000346714 -202.324 -792.849 197.108 0.0015 
384 1 1 -0.25856 -0.0289596 -0.211359 0 0 0 -0.860328 0.0969564 -0.371507 0 0 -0.000346714 -109.254 -605.87 99.6366 0.0015 
294 1 1 -0.248122 -0.0222277 -0.208553 0 0 0 -0.888687 -0.0268335 -0.375236 0 0 -0.000346714 42.209 -652.424 -56.6079 0.0015 
231 1 1 -0.25218 -0.019475 -0.209705 0 0 0 -0.837044 0.000939796 -0.406303 0.0173545 0.00482623 0.0110529 -42.1839 -300.962 58.6523 0.0025 
336 1 1 -0.248125 -0.0169706 -0.208159 0 0 0 -0.852333 0.0374527 -0.414293 0 0 -0.00160516 -33.0776 -312.752 -5.86758 0.0025 
357 1 1 -0.244244 -0.0129879 -0.208356 0 0 0 -0.951557 -0.029409 -0.375062 5.51e-05 2.56447e-05 0.000388696 37.4691 -364.707 127.7 0.0015 
292 1 1 -0.247014 -0.00638594 -0.210041 0 0 0 -0.895207 -0.0124195 -0.380282 -0.000116222 1.32226e-05 4.76295e-05 33.1682 -652.51 -57.1129 0.0015 
381 1 1 -0.254394 0.000217528 -0.209265 0 0 0 -1.07109 0.161778 -0.675177 0 0 -0.000346714 -192.406 5.66555 43.311 0.0015 