ITEM: TIMESTEP
42800
ITEM: NUMBER OF ATOMS
551
ITEM: BOX BOUNDS ff ff ff
-0.5 0.1
-0.2 0.2
-0.4 0.15
ITEM: ATOMS id type type x y z ix iy iz vx vy vz fx fy fz omegax omegay omegaz radius 
85 1 1 -0.392627 -0.0297645 -0.283111 0 0 0 -1.13812 0.392769 -1.23348 0 0 -0.000346714 -590.532 -294.61 698.542 0.0015 
47 1 1 -0.362966 0.00699216 -0.262352 0 0 0 -1.51283 -0.159914 -0.913871 0 0 -0.000346714 98.6681 -1100.17 40.6157 0.0015 
30 1 1 -0.347218 -0.0137027 -0.251866 0 0 0 -1.38706 0.0524024 -0.758739 0 0 -0.00160516 -39.2856 -605.929 42.5201 0.0025 
11 1 1 -0.336619 -0.00937721 -0.247567 0 0 0 -1.3897 0.119676 -0.652211 0 0 -0.000346714 -132.585 -988.781 116.991 0.0015 
38 1 1 -0.40553 0.0585751 -0.252598 0 0 0 -1.28232 -0.252842 -1.13093 0 0 -0.000346714 353.317 -1209.87 -459.629 0.0015 
36 1 1 -0.334998 -0.0130657 -0.247464 0 0 0 -1.32658 0.106776 -0.722306 0 0 -0.000346714 -96.2795 -964.526 43.0852 0.0015 
31 1 1 -0.343335 0.0297564 -0.246871 0 0 0 -1.40414 -0.00459657 -0.708876 0 0 -0.000346714 89.1678 -989.387 -210.392 0.0015 
2 1 1 -0.327002 0.00864674 -0.242464 0 0 0 -1.28962 0.020121 -0.57902 0 0 -0.00160516 -12.7174 -562.33 8.67378 0.0025 
4 1 1 -0.315764 -0.00914763 -0.237664 0 0 0 -1.29112 0.0339736 -0.552142 0 0 -0.00160516 -8.10584 -562.433 -15.7511 0.0025 
21 1 1 -0.30188 -0.00698527 -0.233185 0 0 0 -1.17385 -0.00429981 -0.494597 -8.24028e-05 6.87229e-06 -5.60152e-05 54.741 -854.464 -122.423 0.0015 
18 1 1 -0.31079 0.0165804 -0.235709 0 0 0 -1.18183 0.0082609 -0.49143 -8.52312e-05 -3.97362e-05 -4.32797e-05 -44.8309 -885.866 92.9212 0.0015 
17 1 1 -0.315605 0.0270218 -0.235587 0 0 0 -1.24014 0.0273895 -0.494928 -7.98061e-05 -6.77107e-05 -5.01543e-05 51.9549 -875.707 -178.628 0.0015 
5 1 1 -0.307425 0.0269826 -0.232277 0 0 0 -1.15381 0.0103107 -0.46377 -0.000181701 -0.000254355 0.000715112 17.0715 -854.039 -61.8433 0.0015 
12 1 1 -0.317259 0.0331521 -0.234151 0 0 0 -1.32539 -0.021939 -0.548871 -7.73583e-05 -6.59923e-05 -5.5429e-05 119.283 -915.7 -251.432 0.0015 
20 1 1 -0.296621 0.0146062 -0.230183 0 0 0 -1.18133 0.0557281 -0.481527 -8.51076e-05 -3.9722e-05 -4.35792e-05 -29.1106 -861.823 -28.3266 0.0015 
24 1 1 -0.30353 0.0267497 -0.2307 0 0 0 -1.24612 0.0437458 -0.511918 -6.02072e-05 -2.86521e-05 -9.43728e-05 1.70383 -899.27 -80.9775 0.0015 
8 1 1 -0.290292 0.0023608 -0.228407 0 0 0 -1.198 -0.0221303 -0.505893 -8.17656e-05 -1.17051e-05 -6.17331e-05 68.8001 -860.58 -125.215 0.0015 
22 1 1 -0.287513 0.000149658 -0.227369 0 0 0 -1.18959 -0.0190127 -0.501391 -8.68678e-05 7.01661e-06 -4.46203e-05 5.71745 -861.029 19.0881 0.0015 
6 1 1 -0.291399 0.0064186 -0.228615 0 0 0 -1.18875 -0.00058131 -0.5021 -8.93836e-05 -1.36101e-05 -3.54291e-05 -40.0025 -868.38 95.7229 0.0015 
71 1 1 -0.286439 0.00888498 -0.226362 0 0 0 -1.14437 0.0363902 -0.4803 -7.87366e-05 -1.23352e-05 -5.2659e-05 -28.6144 -830.153 5.32661 0.0015 
32 1 1 -0.287856 0.0122505 -0.226745 0 0 0 -1.17651 0.0390516 -0.49413 -0.000151871 -2.36435e-05 5.65128e-05 -14.231 -851.65 -33.3054 0.0015 
26 1 1 -0.303199 0.0344371 -0.226905 0 0 0 -1.29647 0.0723371 -0.494071 0 0 -0.00160516 -46.3879 -592.962 31.1907 0.0025 
14 1 1 -0.282173 -0.019773 -0.222207 0 0 0 -1.17596 -0.0793954 -0.476032 -0.000366957 0.000163577 -0.000270729 28.2577 -514.651 16.0616 0.0025 
23 1 1 -0.283919 -0.0148064 -0.224836 0 0 0 -1.14501 0.0153976 -0.482817 -8.74852e-05 2.26485e-05 -3.92536e-05 -25.8242 -828.797 34.811 0.0015 
35 1 1 -0.281858 -0.0127189 -0.224197 0 0 0 -1.14271 0.0132376 -0.482043 -0.000104714 2.79356e-05 3.6545e-06 -50.4336 -820.48 97.0359 0.0015 
57 1 1 -0.279203 0.00610564 -0.223503 0 0 0 -1.18042 0.124612 -0.48023 -9.10355e-05 -1.25381e-05 -2.71916e-05 -109.398 -855.659 46.8817 0.0015 
16 1 1 -0.283858 0.0150803 -0.223646 0 0 0 -1.26336 -0.0693153 -0.553717 -0.000524483 -0.00022604 0.000106141 71.333 -540.645 -95.0646 0.0025 
75 1 1 -0.279536 0.0187797 -0.222209 0 0 0 -1.24955 -0.101773 -0.548917 0 0 -0.000346714 53.9664 -920.233 46.9995 0.0015 
37 1 1 -0.289339 0.0286442 -0.224207 0 0 0 -1.22405 0.0334024 -0.503983 0 0 -0.000346714 -10.8674 -904.545 -35.4639 0.0015 
3 1 1 -0.294484 0.0312236 -0.224373 0 0 0 -1.26491 -0.047353 -0.552237 0 0 -0.00160516 54.3794 -540.834 -83.7973 0.0025 
72 1 1 -0.346126 -0.0658827 -0.221085 0 0 0 -1.3828 0.142112 -0.645704 0 0 -0.000346714 -248.697 -830.908 528.372 0.0015 
10 1 1 -0.270501 -0.00538635 -0.220007 0 0 0 -0.995542 -0.0307739 -0.420903 -8.73748e-05 7.98595e-06 -4.19755e-05 -10.8527 -718.68 78.2118 0.0015 
76 1 1 -0.266786 0.000469807 -0.218587 0 0 0 -1.10939 0.100131 -0.465375 0 0 -0.000346714 -77.8014 -803.07 12.3363 0.0015 
48 1 1 -0.297496 0.0479663 -0.219963 0 0 0 -1.19687 -0.0342032 -0.457892 2.32709e-05 9.78939e-05 -0.000547131 103.069 -832.511 -210.725 0.0015 
51 1 1 -0.294452 0.0487091 -0.218408 0 0 0 -1.16632 -0.00535822 -0.462475 0 0 -0.000346714 73.5158 -823.939 -181.386 0.0015 
79 1 1 -0.28786 -0.0399035 -0.21859 0 0 0 -1.30874 0.240686 -0.642538 0 0 -0.00160516 -145.125 -555.928 98.8846 0.0025 
138 1 1 -0.276895 -0.028074 -0.219297 0 0 0 -1.40016 0.200137 -0.66979 0 0 -0.000346714 -209.712 -996.189 153.812 0.0015 
113 1 1 -0.260509 -0.00489681 -0.215811 0 0 0 -1.13245 0.170806 -0.487615 -9.17e-05 9.57449e-06 -3.28553e-05 -196.538 -813.549 171.447 0.0015 
42 1 1 -0.26643 0.0107764 -0.216845 0 0 0 -1.21606 -0.197095 -0.517558 -0.000303458 -3.70437e-05 -0.000463976 103.138 -525.933 -41.9301 0.0025 
52 1 1 -0.26184 -0.0163705 -0.214276 0 0 0 -1.07808 0.0536661 -0.471818 -0.000894351 0.000268785 0.00424889 -47.9635 -467.09 56.3334 0.0025 
50 1 1 -0.254465 -0.00899838 -0.213071 0 0 0 -1.07383 0.0572362 -0.458089 -8.83459e-05 1.02834e-05 -3.9044e-05 -9.32346 -782.521 -75.9179 0.0015 
28 1 1 -0.255694 0.000477332 -0.2128 0 0 0 -1.12933 0.150768 -0.469088 -0.000768524 -2.8e-05 0.000714327 -85.9755 -493.006 49.9005 0.0025 
56 1 1 -0.256747 0.00553316 -0.214101 0 0 0 -1.12201 -0.0380123 -0.47103 -8.78665e-05 -9.1473e-06 -4.24179e-05 5.5235 -814.236 52.5118 0.0015 
96 1 1 -0.253588 0.00814145 -0.212663 0 0 0 -1.10656 -0.0252979 -0.463967 -5.16273e-05 -8.12037e-06 -0.000134335 135.731 -788.275 -280.407 0.0015 
49 1 1 -0.254852 0.012959 -0.212829 0 0 0 -1.10059 -0.0269032 -0.468861 -5.63676e-05 -1.9209e-05 -0.000118384 69.0801 -786.74 -117.036 0.0015 
55 1 1 -0.258354 0.025872 -0.211053 0 0 0 -1.15847 0.0573491 -0.455068 -0.00416949 -0.000505935 0.00722021 -26.5428 -516.852 2.39986 0.0025 
41 1 1 -0.25475 -0.0211462 -0.210537 0 0 0 -1.03968 0.0681999 -0.423911 -0.00685306 0.00404769 0.0163781 -60.7512 -445.549 72.9428 0.0025 
25 1 1 -0.242789 8.24692e-05 -0.208422 0 0 0 -1.07481 0.0740768 -0.454633 -9.00372e-05 -7.68631e-06 -3.57293e-05 -100.904 -783.568 110.884 0.0015 
46 1 1 -0.249808 0.022416 -0.209303 0 0 0 -1.11379 0.0180491 -0.460877 -3.93257e-05 -1.52401e-05 -0.000132615 12.0571 -802.95 -60.5314 0.0015 
78 1 1 -0.254627 0.0329358 -0.20761 0 0 0 -1.16436 -0.00231734 -0.488567 -0.000585545 -0.000411365 0.000411911 20.5055 -508.572 -45.7464 0.0025 
107 1 1 -0.243864 -0.0216676 -0.205812 0 0 0 -1.19508 0.0711107 -0.474238 0 0 -0.00160516 -28.5671 -517.514 -3.25147 0.0025 
60 1 1 -0.241112 -0.0110547 -0.207214 0 0 0 -1.09127 -0.0131105 -0.471873 -0.000368476 4.09779e-05 0.000150187 35.7163 -801.5 -58.4756 0.0015 
39 1 1 -0.237922 -0.00845845 -0.204885 0 0 0 -1.08299 0.00121449 -0.476732 0 0 -0.00160516 8.2606 -473.016 -19.5385 0.0025 
19 1 1 -0.241124 0.0106886 -0.207328 0 0 0 -1.07917 -0.0647502 -0.457367 6.4118e-05 8.15695e-06 -0.000477291 55.4639 -780.408 -20.3519 0.0015 
40 1 1 -0.244652 0.0306164 -0.204147 0 0 0 -1.1195 0.0348697 -0.449726 -0.00139104 -0.000932424 0.00276327 -26.0889 -506.415 28.5269 0.0025 
87 1 1 -0.231246 -0.0222164 -0.201494 0 0 0 -0.842605 -0.0542532 -0.333807 -8.38177e-05 4.1521e-05 -4.27721e-05 0.00633443 -598.157 97.2018 0.0015 
1 1 1 -0.228656 -0.0143692 -0.2005 0 0 0 -1.04635 0.0253938 -0.450735 -0.000525114 0.00011274 8.76209e-05 -59.3111 -447.17 112.568 0.0025 
111 1 1 -0.231596 -0.0126999 -0.202978 0 0 0 -1.05913 0.0195015 -0.440224 -1.15854e-06 -2.55583e-07 -0.000261932 -49.7309 -759.608 85.9489 0.0015 
81 1 1 -0.230276 0.00202567 -0.203062 0 0 0 -0.874909 0.0707263 -0.372823 -8.91493e-05 -5.20125e-06 -3.93512e-05 -35.0489 -634.032 -38.0295 0.0015 
69 1 1 -0.226157 0.0171646 -0.20017 0 0 0 -0.932574 0.156124 -0.365052 -9.8198e-05 -2.93232e-05 -2.36366e-05 -71.4463 -664.722 -101.803 0.0015 
102 1 1 -0.239021 0.0348972 -0.201805 0 0 0 -1.11374 0.144306 -0.417304 -8.20715e-05 -5.03024e-05 -4.59505e-05 -73.4433 -802.828 -81.6105 0.0015 
174 1 1 -0.250824 -0.0565656 -0.197004 0 0 0 -1.3076 -0.0118908 -0.408455 0 0 -0.000346714 -99.6428 -821.936 382.418 0.0015 
29 1 1 -0.220167 0.00501763 -0.197642 0 0 0 -0.99642 -0.0160021 -0.414368 -0.000477434 -2.26144e-05 -3.32301e-05 22.0843 -431.339 -36.4122 0.0025 
33 1 1 -0.220761 0.00897569 -0.19889 0 0 0 -0.972685 -0.014251 -0.404319 -6.23977e-06 -1.10588e-06 -0.000232501 48.5338 -700.425 -91.9109 0.0015 
70 1 1 -0.218315 0.0113779 -0.197567 0 0 0 -0.997041 -0.0023923 -0.424685 0 0 -0.000346714 10.9689 -621.587 -90.9058 0.0015 
99 1 1 -0.222919 0.0208192 -0.198355 0 0 0 -0.818834 -0.0464793 -0.345346 3.0104e-05 -1.49033e-05 0.000120726 40.8444 -483.161 -63.547 0.0015 
43 1 1 -0.227007 0.0365366 -0.196506 0 0 0 -0.856834 0.166041 -0.316122 -0.000158623 -6.2764e-05 9.94935e-05 -10.6454 -566.762 -273.511 0.0015 
34 1 1 -0.26152 0.0615079 -0.198069 0 0 0 -1.18736 -0.165207 -0.52096 -5.97693e-05 -0.000102179 -7.85726e-05 244.765 -779.272 -310.732 0.0015 
7 1 1 -0.247906 -0.057425 -0.195007 0 0 0 -0.929797 0.259528 -0.345299 0 0 -0.000346714 -249.511 -437.679 347.279 0.0015 
53 1 1 -0.215237 0.00118916 -0.195582 0 0 0 -0.816845 0.0272587 -0.440348 0 0 -0.00160516 -37.1989 -340.016 54.0779 0.0025 
88 1 1 -0.211805 0.0111293 -0.194837 0 0 0 -0.880523 0.137222 -0.464725 0 0 -0.000346714 -102.449 -614.414 -10.7019 0.0015 
115 1 1 -0.214402 0.0128675 -0.195723 0 0 0 -0.859362 0.0505383 -0.350959 0 0 -0.000346714 -13.0959 -108.615 56.3822 0.0015 
64 1 1 -0.211154 0.0245392 -0.192754 0 0 0 -0.819818 0.147552 -0.312947 -8.48e-05 -4.5921e-05 -4.61804e-05 -31.2536 -564.6 -184.335 0.0015 
165 1 1 -0.205596 -0.0297749 -0.189207 0 0 0 -0.883529 -0.0490437 -0.347916 -8.25412e-05 4.73814e-05 -4.46428e-05 7.92121 -634.723 69.3575 0.0015 
27 1 1 -0.21131 -0.0234835 -0.19193 0 0 0 -1.02142 -0.0488052 -0.40112 -3.54182e-05 -1.95217e-05 -0.00127321 25.7348 -451.623 -9.14847 0.0025 
98 1 1 -0.201397 -0.0131533 -0.190202 0 0 0 -0.960103 -0.0875559 -0.387862 -7.50791e-05 1.87785e-05 -6.73014e-05 39.8193 -690.207 57.2636 0.0015 
120 1 1 -0.227618 -0.00384089 -0.192919 0 0 0 -1.38292 -0.118185 -0.52647 0 0 -0.00160516 72.4082 62.6528 13.5061 0.0025 
44 1 1 -0.202622 0.00574246 -0.191375 0 0 0 -0.91894 0.0280163 -0.382225 -0.000100229 1.54675e-05 -4.11396e-05 -9.96759 -663.594 -24.3993 0.0015 
108 1 1 -0.20061 0.00427683 -0.189701 0 0 0 -0.89398 0.0165213 -0.424102 2.42355e-05 -3.7852e-05 -0.000279822 33.807 -578.943 -92.6236 0.0015 
129 1 1 -0.221271 0.00977846 -0.191275 0 0 0 -1.26208 0.0935505 -0.474193 0 0 -0.00160516 72.9657 222.538 13.225 0.0025 
58 1 1 -0.206732 0.0130011 -0.19249 0 0 0 -0.930495 -0.0612377 -0.404102 -8.35705e-05 -2.0996e-05 -5.44955e-05 99.6713 -664.289 -128.804 0.0015 
82 1 1 -0.209786 0.0207067 -0.192909 0 0 0 -0.999124 0.0203934 -0.410239 -7.16012e-05 -1.95223e-05 -7.91618e-05 -98.0165 -748.533 201.215 0.0015 
114 1 1 -0.207743 -0.0331641 -0.189292 0 0 0 -1.08179 -0.00166647 -0.4477 0 0 -0.000346714 -77.8214 -751.328 194.426 0.0015 
171 1 1 -0.204879 -0.0339208 -0.187947 0 0 0 -1.0504 0.0366561 -0.435789 -8.21749e-05 4.71379e-05 -4.56937e-05 19.2566 -800.408 -113.734 0.0015 
122 1 1 -0.193019 -0.0223138 -0.185574 0 0 0 -0.822486 -0.116238 -0.328075 0 0 -0.000346714 89.523 -598.295 -12.1163 0.0015 
84 1 1 -0.196608 -0.0167527 -0.187771 0 0 0 -0.868184 -0.0925274 -0.359697 2.5453e-06 -2.38368e-06 -0.000255265 38.3915 -624.92 68.3019 0.0015 
63 1 1 -0.19418 -0.0100112 -0.187522 0 0 0 -0.872942 0.111736 -0.383828 0 0 -0.000346714 -110.982 -624.914 72.2616 0.0015 
97 1 1 -0.190178 -0.00877325 -0.186012 0 0 0 -0.876678 0.0441081 -0.366868 -8.56438e-05 2.43251e-05 -4.54059e-05 -5.1992 -644.094 -64.8978 0.0015 
133 1 1 -0.205122 -0.00697756 -0.190095 0 0 0 -1.16586 -0.397635 -0.561352 0 0 -0.000346714 360.479 433.296 65.4433 0.0015 
104 1 1 -0.196004 -0.00514494 -0.187468 0 0 0 -0.948657 0.0270745 -0.410256 -0.000152496 4.7812e-06 -0.000477895 -32.5205 -413.237 48.3881 0.0025 
152 1 1 -0.206375 0.00789632 -0.187452 0 0 0 -1.02462 0.069023 -0.487084 0 0 -0.000346714 -51.5387 -313.555 -58.3812 0.0015 
80 1 1 -0.20071 0.0140602 -0.188738 0 0 0 -0.810873 0.0889921 -0.326578 -0.000396899 -9.9054e-05 -0.000176321 -25.5707 -349.612 -31.7677 0.0025 
77 1 1 -0.20311 0.020185 -0.189104 0 0 0 -0.925984 0.137101 -0.369042 -0.00040181 -9.93414e-05 -0.000175396 -54.1464 -401.559 -13.3213 0.0025 
83 1 1 -0.193195 0.0197164 -0.186134 0 0 0 -0.90331 0.0246451 -0.371995 -5.58339e-06 -2.77642e-07 -0.000204076 -28.8288 -657.456 26.532 0.0015 
137 1 1 -0.204416 0.0279853 -0.189182 0 0 0 -1.04794 0.188616 -0.388273 -2.1378e-05 -1.68205e-05 -9.98451e-05 -128.4 -765.17 -24.5004 0.0015 
139 1 1 -0.199385 0.0308667 -0.186474 0 0 0 -0.936047 0.0701854 -0.382214 -8.58698e-05 -4.4364e-05 -3.70337e-05 -83.2939 -706.917 74.4692 0.0015 
45 1 1 -0.240857 -0.0636911 -0.182511 0 0 0 -0.88159 0.0868543 -0.412243 0 0 -0.000346714 38.1207 -633.678 42.0881 0.0015 
105 1 1 -0.193983 -0.0279447 -0.183812 0 0 0 -1.08393 -0.00812452 -0.43477 -0.000897419 0.000634852 0.00104127 10.3961 -482.859 -16.6052 0.0025 
166 1 1 -0.183401 -0.00210768 -0.183217 0 0 0 -0.966695 -0.0517042 -0.396844 0 0 -0.000346714 37.2855 -695.028 1.16285 0.0015 
91 1 1 -0.189634 0.00240509 -0.184856 0 0 0 -0.936394 0.00763893 -0.391179 -0.000269315 2.36726e-06 -0.000394525 15.9397 -406.384 -46.3085 0.0025 
116 1 1 -0.186097 0.00780504 -0.183156 0 0 0 -0.880837 0.00703124 -0.368222 -0.000348931 -7.7935e-05 -0.000237639 -3.09181 -383.522 0.183883 0.0025 
54 1 1 -0.191307 0.0113364 -0.18505 0 0 0 -0.713426 0.0197241 -0.303593 -0.000413543 -9.16391e-05 -0.000171493 2.52662 -309.363 -26.0329 0.0025 
140 1 1 -0.201322 0.0395372 -0.184867 0 0 0 -0.989653 -0.286496 -0.50425 0 0 -0.000346714 216.58 -746.834 -2.68019 0.0015 
66 1 1 -0.17973 -0.0222195 -0.179007 0 0 0 -0.897478 -0.0123935 -0.369055 0 0 -0.00160516 -17.0107 -382.952 55.1658 0.0025 
128 1 1 -0.179346 -0.0119368 -0.180647 0 0 0 -0.821919 0.0197297 -0.432025 0 0 -0.000346714 8.03507 -588.713 -40.68 0.0015 
93 1 1 -0.175601 -0.00946948 -0.178746 0 0 0 -0.821724 -0.0773449 -0.346123 -0.000259461 4.49078e-05 -0.000450142 11.0159 -354.389 53.1869 0.0025 
203 1 1 -0.176605 -0.00412192 -0.180322 0 0 0 -0.854113 -0.0903849 -0.334228 0 0 -0.000346714 9.96426 -607.607 134.249 0.0015 
103 1 1 -0.182824 0.00323783 -0.182002 0 0 0 -0.89128 -0.0636617 -0.372329 -0.000460435 3.8957e-05 -2.40486e-05 21.4011 -386.662 14.853 0.0025 
100 1 1 -0.175287 0.00528223 -0.179886 0 0 0 -0.845563 -0.101005 -0.368002 -8.91949e-05 -1.78683e-05 -3.77874e-05 91.6477 -611.068 -42.8615 0.0015 
13 1 1 -0.178897 0.00870291 -0.180041 0 0 0 -0.812497 -0.0910971 -0.353117 -0.000411127 -8.23716e-05 -0.000178316 57.797 -350.868 -42.4712 0.0025 
135 1 1 -0.18223 0.0203067 -0.181475 0 0 0 -0.937386 0.000156364 -0.394701 -8.34063e-05 -4.03702e-05 -4.68617e-05 41.1607 -670.272 -98.0117 0.0015 
74 1 1 -0.185737 -0.0498923 -0.175097 0 0 0 -0.911477 -0.0595574 -0.343784 -7.70828e-05 6.3335e-05 -5.43904e-05 63.5853 -699.697 -47.352 0.0015 
15 1 1 -0.175895 -0.0122079 -0.174568 0 0 0 -0.743555 -0.0243818 -0.304042 0 0 -0.00160516 -11.5975 365.621 18.1311 0.0025 
65 1 1 -0.167098 -0.00852785 -0.17511 0 0 0 -0.751899 0.0527438 -0.306994 0 0 -0.00160516 20.5838 -329.602 -98.8019 0.0025 
163 1 1 -0.165114 -0.00235041 -0.175614 0 0 0 -0.77714 -0.00975208 -0.336291 -8.02969e-05 3.38e-07 -6.2053e-05 60.9318 -565.021 -124.392 0.0015 
164 1 1 -0.191686 0.00110943 -0.176505 0 0 0 -1.2613 -0.0091001 -0.39057 0 0 -0.000346714 -82.064 317.704 -96.5623 0.0015 
110 1 1 -0.18132 0.00466178 -0.178581 0 0 0 -0.870584 0.0130515 -0.413577 -2.69684e-06 3.43418e-05 -0.000118919 41.0385 536.922 94.0691 0.0015 
172 1 1 -0.166222 0.00458723 -0.176107 0 0 0 -0.828527 -0.0435526 -0.358551 -9.02434e-05 3.86632e-07 -3.90922e-05 11.2111 -602.104 47.2303 0.0015 
185 1 1 -0.171363 0.0106322 -0.177767 0 0 0 -0.822486 0.031427 -0.340628 -8.72119e-05 -1.71293e-05 -3.88239e-05 -47.1666 -600.954 58.438 0.0015 
62 1 1 -0.169524 0.0139057 -0.176731 0 0 0 -0.920145 -0.0448048 -0.387632 -8.80123e-05 -1.72905e-05 -3.70817e-05 38.8907 -665.687 -15.3743 0.0015 
121 1 1 -0.220096 -0.0776392 -0.171038 0 0 0 -0.929544 -0.025385 -0.292815 -4.69487e-05 0.000113515 -0.000108391 33.9266 -854.305 -33.6381 0.0015 
149 1 1 -0.177853 -0.0408764 -0.174916 0 0 0 -0.992816 0.00977248 -0.396899 -6.20965e-05 7.13989e-05 0.00113312 -80.0706 -683.944 184.129 0.0015 
112 1 1 -0.169543 -0.0343983 -0.173274 0 0 0 -0.96046 0.0249785 -0.387091 0 0 -0.000346714 -131.099 -630.327 289.477 0.0015 
117 1 1 -0.17338 -0.0263878 -0.175579 0 0 0 -1.06806 -0.0411487 -0.465562 0 0 -0.00160516 -20.3507 -450.346 95.0485 0.0025 
131 1 1 -0.160345 -0.00921455 -0.172312 0 0 0 -0.828746 0.0517339 -0.345889 -0.000601848 0.000125601 0.000273891 -20.468 -360.281 -4.81256 0.0025 
95 1 1 -0.161964 -0.00457533 -0.174245 0 0 0 -0.679999 0.0657107 -0.284741 0 0 -0.000346714 -85.3014 -491.463 88.0795 0.0015 
127 1 1 -0.157352 -0.00621287 -0.172298 0 0 0 -0.642603 -0.0299205 -0.273175 -8.59067e-05 1.14291e-05 -4.68533e-05 77.0357 -474.186 -129.253 0.0015 
90 1 1 -0.158659 -0.00253691 -0.171395 0 0 0 -0.759092 -0.0559655 -0.323399 0 0 -0.00160516 71.4901 -285.536 -20.9918 0.0025 
167 1 1 -0.16073 0.00184164 -0.172637 0 0 0 -0.638334 0.0167185 -0.275966 3.67261e-05 -0.000185408 -0.000399526 35.4752 -152.285 17.1132 0.0025 
73 1 1 -0.155616 0.000497515 -0.171287 0 0 0 -0.58887 -0.221739 -0.248976 0 0 -0.000346714 23.0689 -311.554 -100.351 0.0015 
158 1 1 -0.166495 0.00992349 -0.174707 0 0 0 -0.895595 0.0146152 -0.36673 0.000303166 7.6037e-05 -0.00212005 8.3135 -385.301 -35.7113 0.0025 
151 1 1 -0.16251 0.00908309 -0.174228 0 0 0 -0.842518 0.124955 -0.334858 -3.04684e-06 6.91421e-05 1.83752e-05 -83.2693 -487.531 -213.767 0.0015 
68 1 1 -0.162984 0.0151924 -0.172812 0 0 0 -0.871294 -0.078498 -0.360645 -0.00149973 -0.000376434 0.00256164 42.9117 -375.676 -21.8594 0.0025 
173 1 1 -0.173143 0.0443721 -0.171763 0 0 0 -0.902416 0.0532223 -0.358069 -8.27693e-05 -7.33233e-05 2.63167e-05 -9.22139 -656.829 -73.2253 0.0015 
94 1 1 -0.181319 0.0472519 -0.173037 0 0 0 -0.893812 -0.175407 -0.417277 -0.00036581 -0.000295548 -0.000264802 116.968 -372.267 -94.0491 0.0025 
199 1 1 -0.175572 0.0455398 -0.170362 0 0 0 -0.683498 -0.0986919 -0.213556 0 0 -0.000346714 160.928 -289.633 1.23539 0.0015 
106 1 1 -0.170444 -0.0380511 -0.171545 0 0 0 -0.962228 0.0272804 -0.394751 0 0 -0.00160516 -30.0253 -413.496 46.4843 0.0025 
243 1 1 -0.164387 -0.0284841 -0.17145 0 0 0 -0.91126 -0.198499 -0.543922 0 0 -0.000346714 -411.693 -335.621 -56.366 0.0015 
183 1 1 -0.150986 -0.0184804 -0.167487 0 0 0 -0.635652 -0.0246479 -0.260016 8.83637e-05 -3.81671e-05 6.48665e-05 57.7697 -186.803 -41.9497 0.0025 
150 1 1 -0.151279 -0.00959654 -0.169505 0 0 0 -0.964961 0.0503278 -0.404113 0 0 -0.000346714 -128.459 -686.279 221.426 0.0015 
187 1 1 -0.16764 -0.00723546 -0.170942 0 0 0 -1.07268 0.00916889 -0.151978 0 0 -0.000346714 -9.05919 216.14 -97.7141 0.0015 
101 1 1 -0.154475 -0.00559297 -0.171103 0 0 0 -0.901076 0.113158 -0.391561 -8.28485e-05 1.1022e-05 -5.90455e-05 -43.1291 -659.71 -91.3092 0.0015 
157 1 1 -0.150998 -0.0049137 -0.168567 0 0 0 -0.872628 0.0681121 -0.38358 -0.000380112 0.000118927 0.00123082 -10.353 -384.246 -45.4092 0.0025 
208 1 1 -0.155158 0.0047683 -0.169337 0 0 0 -0.693747 -0.102078 -0.233495 0 0 -0.00160516 7.86622 -252.966 3.75249 0.0025 
123 1 1 -0.148625 0.00592871 -0.168552 0 0 0 -0.641817 -0.007257 -0.27828 -9.02898e-05 -5.09851e-06 -3.91893e-05 28.481 -465.37 -53.5521 0.0015 
175 1 1 -0.156033 0.013121 -0.171052 0 0 0 -0.902329 0.167112 -0.273369 0 0 -0.000346714 -149.955 -343.9 -57.6368 0.0015 
92 1 1 -0.160625 0.0298328 -0.169475 0 0 0 -0.811407 -0.0625916 -0.346711 -0.000381389 -0.000174808 -0.000226137 47.8828 -347.362 -49.3537 0.0025 
67 1 1 -0.164627 0.0354608 -0.170015 0 0 0 -0.762242 0.0121497 -0.311741 -0.000373393 -0.000284169 -0.000244151 7.71794 -333.893 -31.8842 0.0025 
130 1 1 -0.168848 0.042779 -0.169407 0 0 0 -0.860569 -0.10227 -0.379871 -0.000335955 -0.000265968 -0.000311407 82.9867 -358.126 -91.5943 0.0025 
177 1 1 -0.146782 -0.0326225 -0.164395 0 0 0 -0.733019 -0.00996556 -0.307634 -8.511e-05 4.54819e-05 -4.62561e-05 10.3679 -543.799 -7.08836 0.0015 
198 1 1 -0.149759 -0.0228781 -0.166832 0 0 0 -0.784974 -0.192901 -0.236109 0 0 -0.000346714 257.152 -494.113 -11.2026 0.0015 
193 1 1 -0.148649 -0.0138462 -0.167023 0 0 0 -0.740792 0.0745472 -0.328867 0.000161994 -4.00928e-05 -0.000798689 -40.3848 -321.22 18.6092 0.0025 
153 1 1 -0.153845 0.000605526 -0.167131 0 0 0 -0.782089 0.159701 -0.480612 0 0 -0.000346714 -47.8844 -382.989 47.0659 0.0015 
197 1 1 -0.153017 -0.00219819 -0.16636 0 0 0 -0.910901 0.0578031 -0.483564 0 0 -0.000346714 62.9911 374.244 -149.627 0.0015 
144 1 1 -0.141855 -0.000469973 -0.164781 0 0 0 -0.697322 -0.00568922 -0.28673 -0.000377129 -3.49067e-05 -0.000227822 -31.7762 -305.126 83.3108 0.0025 
132 1 1 -0.147698 0.000948573 -0.167184 0 0 0 -0.564302 -0.02054 -0.245314 7.58662e-05 5.18595e-05 -0.000126547 -0.17425 -173.566 -1.61523 0.0025 
119 1 1 -0.142104 0.00687279 -0.164623 0 0 0 -0.709559 -0.120981 -0.300123 -0.00249839 -0.00058467 0.00310883 71.0399 -309.213 -40.2776 0.0025 
189 1 1 -0.14357 0.011157 -0.166213 0 0 0 -0.669409 -0.0417963 -0.278335 -9.94011e-06 -2.22846e-06 -0.000221406 34.1509 -483.649 -9.56967 0.0015 
148 1 1 -0.143365 0.0193737 -0.165194 0 0 0 -0.897908 -0.0546986 -0.369757 0 0 -0.000346714 -8.34003 -661.99 116.482 0.0015 
136 1 1 -0.14964 0.0301265 -0.166021 0 0 0 -0.895 -0.00705801 -0.359404 5.36256e-05 3.30177e-05 -0.000435002 63.1534 -624.833 -144.884 0.0015 
161 1 1 -0.15477 0.032213 -0.167702 0 0 0 -0.767277 -0.0258529 -0.32482 -0.000152295 -7.75655e-05 0.000281322 27.3371 -560.036 -18.8359 0.0015 
89 1 1 -0.174051 0.0581198 -0.166779 0 0 0 -0.816065 -0.00599557 -0.322468 -7.15425e-05 -8.20934e-05 -6.53347e-05 38.3669 -595.155 -86.0387 0.0015 
143 1 1 -0.142301 -0.0338773 -0.161111 0 0 0 -0.773431 -0.0502145 -0.315765 -0.000403991 0.000216809 -0.000186037 -31.8447 -314.431 128.021 0.0025 
233 1 1 -0.156218 -0.0281193 -0.165645 0 0 0 -1.0814 -0.225602 -0.923072 0 0 -0.00160516 -38.5355 75.952 -11.6802 0.0025 
159 1 1 -0.175769 -0.0180599 -0.16417 0 0 0 -0.890104 -0.18361 -0.358958 0 0 -0.000346714 52.9769 -92.1889 -42.178 0.0015 
205 1 1 -0.133356 -0.0157864 -0.161485 0 0 0 -0.753632 -0.0319667 -0.308982 -8.62327e-05 1.9501e-05 -3.90595e-05 67.934 -556.202 -108.157 0.0015 
211 1 1 -0.139411 -0.0151344 -0.163992 0 0 0 -0.659038 -0.23771 -0.361203 0 0 -0.000346714 156.532 -444.891 51.0068 0.0015 
191 1 1 -0.135 -0.0106403 -0.162468 0 0 0 -0.893136 0.0469418 -0.423956 0 0 -0.000346714 -66.1993 -627.268 71.295 0.0015 
59 1 1 -0.1357 -0.00545598 -0.163142 0 0 0 -0.657874 -0.0307108 -0.284022 0 0 -0.000346714 65.6764 -477.699 -103.316 0.0015 
178 1 1 -0.136725 0.00718432 -0.16346 0 0 0 -0.581858 0.0621205 -0.236805 -7.95882e-05 -7.39896e-06 -5.2449e-05 -28.2413 -418.319 -40.3498 0.0015 
155 1 1 -0.134632 0.00350244 -0.161668 0 0 0 -0.603852 -0.00881157 -0.223075 -0.000193862 -2.19747e-05 -0.00143547 -7.21059 -259.466 26.084 0.0025 
276 1 1 -0.134449 0.0109779 -0.162327 0 0 0 -0.683134 0.176047 -0.287329 -9.01162e-05 -1.05855e-05 -3.9799e-05 -213.575 -507.254 196.985 0.0015 
202 1 1 -0.140485 0.0103784 -0.16212 0 0 0 -0.787334 0.0088305 -0.468156 0 0 -0.000346714 9.96823 -216.169 17.801 0.0015 
192 1 1 -0.133961 0.015026 -0.161783 0 0 0 -0.710539 0.0900441 -0.277346 -2.96673e-05 8.94e-05 6.90501e-05 -99.3974 -498.264 20.5191 0.0015 
210 1 1 -0.140532 0.0173811 -0.163097 0 0 0 -0.931473 -0.174379 -0.435137 0 0 -0.00160516 106.729 -383.855 -67.0472 0.0025 
221 1 1 -0.138175 -0.0291871 -0.160426 0 0 0 -0.702391 -0.0336488 -0.289453 -0.000324733 0.000173838 -0.000364909 21.3207 -315.178 -15.1101 0.0025 
126 1 1 -0.12444 -0.0182608 -0.157463 0 0 0 -0.723933 0.137877 -0.324252 -8.7125e-05 2.89574e-05 -4.0749e-05 -194.908 -496.971 223.837 0.0015 
206 1 1 -0.125999 -0.0142149 -0.157438 0 0 0 -0.738561 0.0725383 -0.314914 -0.000407262 6.74409e-05 -0.000175384 -44.1976 -319.173 30.1362 0.0025 
225 1 1 -0.139054 -0.0135218 -0.161147 0 0 0 -1.19543 -0.0564884 -0.515508 0 0 -0.000346714 67.1196 218.144 153.638 0.0015 
168 1 1 -0.132717 -0.00484813 -0.160116 0 0 0 -0.665957 -0.0262847 -0.350413 0 0 -0.00160516 -21.2701 -220.14 61.4453 0.0025 
232 1 1 -0.123649 -0.00540075 -0.157048 0 0 0 -0.599581 -0.067333 -0.247857 -0.000303984 1.66756e-05 -0.00039411 32.0311 -260.112 -6.84221 0.0025 
216 1 1 -0.12137 -0.00025412 -0.157204 0 0 0 -0.646133 0.0104908 -0.276856 -8.84006e-05 9.03369e-07 -4.12232e-05 -5.1162 -468.892 -5.82712 0.0015 
180 1 1 -0.130149 0.00204257 -0.159848 0 0 0 -0.660044 0.00531355 -0.271547 -0.000415799 -6.71649e-05 -7.74261e-05 32.5933 -280.76 -85.0231 0.0025 
213 1 1 -0.141886 0.008019 -0.160785 0 0 0 -1.02513 0.115502 -0.30734 0 0 -0.000346714 -205.09 104.677 -98.9841 0.0015 
201 1 1 -0.123774 0.0067227 -0.158013 0 0 0 -0.776005 0.0387782 -0.315721 -8.55091e-05 -1.34549e-05 -3.58684e-05 -17.8379 -558.831 -24.797 0.0015 
196 1 1 -0.154698 0.0113775 -0.159726 0 0 0 -1.0503 0.185083 -0.575211 0 0 -0.00160516 -76.5128 12.144 1.21368 0.0025 
190 1 1 -0.14427 0.0078802 -0.158968 0 0 0 -0.725358 0.0241943 -0.419076 0 0 -0.000346714 -15.1376 -261.641 -11.1927 0.0015 
212 1 1 -0.132785 0.0172801 -0.160169 0 0 0 -0.785896 0.125747 -0.262981 0 0 -0.000346714 -103.265 -450.246 -216.459 0.0015 
204 1 1 -0.173106 0.0319438 -0.161777 0 0 0 -0.965384 0.198399 -0.542915 0 0 -0.000346714 -335.15 193.462 -73.885 0.0015 
256 1 1 -0.141881 -0.0492955 -0.156354 0 0 0 -1.00885 -0.0633308 -0.311916 0 0 -0.000346714 82.8942 -718.712 -6.82692 0.0015 
214 1 1 -0.125293 -0.0306479 -0.155827 0 0 0 -0.966212 -0.064199 -0.389055 -8.17767e-05 4.12694e-05 -5.96787e-05 62.3062 -720.015 -35.6514 0.0015 
181 1 1 -0.125987 -0.0242762 -0.156171 0 0 0 -0.702545 0.0903211 -0.306107 -0.000422874 0.000144058 -0.000134414 -70.7933 -296.718 74.9309 0.0025 
218 1 1 -0.121168 -0.018105 -0.156107 0 0 0 -0.754821 -0.124631 -0.300512 -8.71662e-05 2.89738e-05 -4.06362e-05 60.2088 -540.634 72.9844 0.0015 
226 1 1 -0.116156 -0.015373 -0.154312 0 0 0 -0.631896 0.0130702 -0.265851 -1.25403e-05 -6.83366e-05 -6.87218e-05 -4.78315 -444.878 16.5415 0.0015 
145 1 1 -0.11879 -0.0116586 -0.154591 0 0 0 -0.669284 -0.138931 -0.269997 -0.000436388 7.48763e-05 -0.00015567 64.6469 -291.69 -9.98449 0.0025 
169 1 1 -0.17703 -0.00513298 -0.156692 0 0 0 -0.840969 -0.00189137 -0.562208 0 0 -0.00160516 -36.2028 196.873 12.8413 0.0025 
109 1 1 -0.114465 -0.00614648 -0.154213 0 0 0 -0.706628 -0.0581931 -0.329792 0 0 -0.000346714 31.3742 -500.618 29.5314 0.0015 
182 1 1 -0.146287 -0.00348213 -0.156215 0 0 0 -0.948885 -0.0175628 -0.599643 0 0 -0.00160516 47.3578 268.415 4.57205 0.0025 
228 1 1 -0.120533 0.00732746 -0.156537 0 0 0 -0.700697 0.0665764 -0.286466 0 0 -0.000346714 25.3942 -485.441 -178.303 0.0015 
224 1 1 -0.122968 0.0123174 -0.157321 0 0 0 -0.844506 0.133622 -0.338601 2.69295e-05 -2.0036e-06 2.87605e-05 -119.347 -300.928 -31.7423 0.0015 
245 1 1 -0.117207 0.0190859 -0.153227 0 0 0 -0.547967 0.274372 -0.186327 -0.000326367 -0.000114978 -0.000371693 -116.557 -238.557 -8.76523 0.0025 
184 1 1 -0.132855 0.0422668 -0.154707 0 0 0 -0.882798 0.0348389 -0.32242 0 0 -0.000346714 -30.1745 -596.058 -51.9897 0.0015 
179 1 1 -0.185105 -0.0879275 -0.149604 0 0 0 -0.896431 -0.0224868 -0.225363 -1.10696e-05 2.45925e-05 -0.000280986 -39.89 -651.06 227.808 0.0015 
188 1 1 -0.116274 -0.0183085 -0.153424 0 0 0 -0.751229 0.00018499 -0.322566 0 0 -0.000346714 59.2714 -474.678 -13.3885 0.0015 
147 1 1 -0.1093 -0.00996506 -0.151784 0 0 0 -0.582591 0.0383862 -0.24697 -8.79753e-05 1.36947e-05 -3.79216e-05 -50.9335 -418.588 55.0892 0.0015 
207 1 1 -0.122746 -0.00607544 -0.151893 0 0 0 -0.614387 -0.082297 -0.349903 0 0 -0.00160516 -8.01059 137.224 46.8511 0.0025 
223 1 1 -0.112286 -0.00607943 -0.151878 0 0 0 -0.663833 -0.0175269 -0.333966 0 0 -0.000346714 -186.764 -70.1078 -60.7462 0.0015 
251 1 1 -0.105381 -0.00438892 -0.150455 0 0 0 -0.665514 -0.00201976 -0.279168 -8.83074e-05 -1.21822e-06 -3.70519e-05 -20.7899 -481.694 53.0464 0.0015 
118 1 1 -0.109653 -0.00312453 -0.151169 0 0 0 -0.686669 -0.00105307 -0.290609 -0.00053742 -3.26524e-06 4.87351e-05 -2.62036 -298.572 7.24974 0.0025 
242 1 1 -0.10475 -0.000829183 -0.150128 0 0 0 -0.798991 -0.0295891 -0.29802 0 0 -0.000346714 52.0836 -470.085 135.831 0.0015 
217 1 1 -0.113726 0.00303751 -0.153928 0 0 0 -0.794123 0.000537021 -0.407796 0 0 -0.000346714 29.9977 -555.008 -73.1193 0.0015 
253 1 1 -0.119229 0.0100474 -0.154373 0 0 0 -0.732601 0.377302 -0.324842 0 0 -0.000346714 -347.745 151.749 -53.3012 0.0015 
244 1 1 -0.115877 0.0125541 -0.153269 0 0 0 -0.790738 -0.0262953 -0.336269 -0.000409238 -6.93707e-05 -0.000176314 5.50282 -345.42 14.0753 0.0025 
269 1 1 -0.140745 0.0222417 -0.154896 0 0 0 -0.960644 -0.0808325 -0.8697 0 0 -0.000346714 107.965 -582.902 -270.426 0.0015 
9 1 1 -0.140224 0.0604611 -0.152338 0 0 0 -0.636278 -0.247826 -0.358926 -7.27188e-05 -7.94553e-05 -6.37373e-05 190.173 -493.474 3.60309 0.0015 
194 1 1 -0.158651 -0.07724 -0.148672 0 0 0 -0.841339 -0.0915088 -0.216261 -0.00399551 0.00934603 0.00976255 -17.7414 -291.539 193.903 0.0025 
195 1 1 -0.104281 -0.00787775 -0.148717 0 0 0 -0.729983 -0.0459256 -0.305926 -0.000424482 6.10137e-05 -0.000181404 -8.96749 -313.541 68.3524 0.0025 