ITEM: TIMESTEP
26800
ITEM: NUMBER OF ATOMS
345
ITEM: BOX BOUNDS ff ff ff
-0.5 0.1
-0.2 0.2
-0.4 0.15
ITEM: ATOMS id type type x y z ix iy iz vx vy vz fx fy fz omegax omegay omegaz radius 
30 1 1 -0.149213 -0.0145816 -0.167193 0 0 0 -1.04158 -0.0484441 -0.439994 -0.000378669 8.93466e-05 -0.000261358 3.51877 -451.133 41.3475 0.0025 
21 1 1 -0.14403 -0.00263978 -0.166657 0 0 0 -0.919256 -0.082351 -0.455747 0 0 -0.000346714 10.0901 -259.111 -155.769 0.0015 
10 1 1 -0.140104 -0.00106429 -0.165114 0 0 0 -0.783936 -0.0194448 -0.320927 0 0 -0.000346714 -120.221 -29.4633 71.6582 0.0015 
2 1 1 -0.151092 0.00192103 -0.168408 0 0 0 -0.877072 0.0682256 -0.47628 0 0 -0.00160516 -23.6285 -356.495 -12.8129 0.0025 
11 1 1 -0.146883 -0.00105257 -0.167957 0 0 0 -0.963292 -0.135472 -0.424177 0 0 -0.000346714 -19.5794 -700.905 284.245 0.0015 
31 1 1 -0.144301 0.0134962 -0.166247 0 0 0 -1.0491 0.188584 -0.407015 -8.91077e-05 -2.42324e-05 -3.42695e-05 -50.1891 -736.019 -211.609 0.0015 
18 1 1 -0.149339 0.0129024 -0.168373 0 0 0 -0.920669 -0.209312 -0.399998 -8.57654e-05 -2.3859e-05 -3.77726e-05 134.482 -671.832 42.0215 0.0015 
36 1 1 -0.143171 -0.0303861 -0.163374 0 0 0 -1.0188 0.0439138 -0.440614 -8.47685e-05 4.52781e-05 -4.71665e-05 -90.2804 -722.697 136.723 0.0015 
4 1 1 -0.140719 -0.00728819 -0.164152 0 0 0 -0.89444 -0.0473669 -0.380888 -0.0011719 -5.24888e-05 0.00260949 27.7164 -390.101 -16.8513 0.0025 
20 1 1 -0.137359 -0.000313978 -0.162676 0 0 0 -0.890002 0.0433661 -0.319259 0 0 -0.000346714 -40.6895 -600.187 21.7107 0.0015 
6 1 1 -0.135685 0.00360344 -0.163169 0 0 0 -0.753366 0.0342686 -0.308464 -8.62711e-05 -8.08184e-06 -3.52502e-05 -70.51 -547.907 111.41 0.0015 
8 1 1 -0.13235 0.00123138 -0.161336 0 0 0 -0.78012 -0.00336367 -0.441414 0 0 -0.000346714 2.02579 -464.409 -191.548 0.0015 
24 1 1 -0.135168 0.00765507 -0.162805 0 0 0 -0.85369 0.168499 -0.344878 -0.000443413 -4.25259e-05 0.000906909 -89.1897 -613.448 -79.4314 0.0015 
12 1 1 -0.135454 0.0168451 -0.162133 0 0 0 -0.938275 0.197131 -0.358644 0.000336899 0.000187106 -0.00102281 -37.541 -647.205 -254.831 0.0015 
5 1 1 -0.138651 0.0201123 -0.163102 0 0 0 -0.973163 0.0303171 -0.409739 -0.000275138 -6.69126e-05 5.24859e-05 -10.0992 -707.728 -29.0037 0.0015 
47 1 1 -0.143339 0.0250977 -0.164416 0 0 0 -1.18518 -0.0372179 -0.488487 0 0 -0.000346714 9.32368 -877.628 42.2905 0.0015 
38 1 1 -0.191963 0.074452 -0.163413 0 0 0 -1.37604 0.207883 -0.257603 0 0 -0.000346714 -123.957 -1013.92 -226.349 0.0015 
72 1 1 -0.140157 -0.0421645 -0.159078 0 0 0 -1.0982 -0.430816 -0.314479 -8.15808e-05 6.30565e-05 -5.0321e-05 110.256 -660.134 519.284 0.0015 
23 1 1 -0.130678 -0.00259136 -0.157716 0 0 0 -0.921224 -0.155132 -0.360981 0 0 -0.000346714 43.4785 -160.849 -53.908 0.0015 
35 1 1 -0.128923 -0.00088954 -0.160428 0 0 0 -0.758152 -0.113304 -0.311557 -0.000168353 6.10979e-06 0.00016176 57.2579 -546.394 59.3969 0.0015 
26 1 1 -0.125778 0.00424982 -0.157913 0 0 0 -0.911948 0.258129 -0.361476 -0.000409409 -8.4418e-05 0.000226275 -127.108 -398.306 37.4872 0.0025 
17 1 1 -0.140799 0.00629503 -0.160982 0 0 0 -1.12554 0.226387 -0.495734 0 0 -0.000346714 -53.5625 69.6297 -123.256 0.0015 
32 1 1 -0.130687 0.00361599 -0.160515 0 0 0 -0.851445 0.0453821 -0.299662 0 0 -0.000346714 -66.5643 -570.2 2.65077 0.0015 
50 1 1 -0.115105 -0.0130609 -0.154026 0 0 0 -0.83405 -0.106723 -0.345868 -8.19035e-05 1.3052e-05 -5.24946e-05 148.353 -616.522 -167.542 0.0015 
22 1 1 -0.1218 -0.00242702 -0.154902 0 0 0 -0.930495 0.0669478 -0.411599 0 0 -0.000346714 -44.8957 -616.978 -13.0292 0.0015 
37 1 1 -0.121664 0.00805245 -0.157062 0 0 0 -0.951927 0.129597 -0.381953 -8.58173e-05 -1.34244e-05 -3.91059e-05 -89.3025 -686.797 -10.476 0.0015 
48 1 1 -0.137818 0.0237935 -0.16233 0 0 0 -0.801846 0.245525 -0.104192 -0.0231231 -0.00238027 0.0336634 -150.896 -642.203 -207.305 0.0015 
3 1 1 -0.121345 0.0209853 -0.154673 0 0 0 -0.886969 0.157369 -0.349982 -0.000501769 -0.000182306 4.68422e-05 -33.6125 -376.395 -84.0185 0.0025 
52 1 1 -0.120461 -0.0149063 -0.154827 0 0 0 -0.678013 -0.0680658 -0.149862 0 0 -0.00160516 2.9707 -263.282 78.1431 0.0025 
76 1 1 -0.11236 -0.0124814 -0.152882 0 0 0 -1.10675 -0.0227619 -0.438911 0 0 -0.000346714 12.9526 -793.084 11.6264 0.0015 
14 1 1 -0.116554 -0.00458067 -0.153285 0 0 0 -0.8425 -0.115899 -0.455734 0 0 -0.00160516 51.7253 -341.241 -4.20105 0.0025 
71 1 1 -0.114501 0.00106455 -0.154287 0 0 0 -0.976856 0.0563324 -0.413866 0 0 -0.000346714 -45.9429 -704.123 12.3458 0.0015 
49 1 1 -0.112813 0.00724005 -0.153348 0 0 0 -0.707446 0.0886634 -0.294181 0 0 -0.000346714 -26.8568 -334.568 -62.5932 0.0015 
16 1 1 -0.11238 0.0168269 -0.151484 0 0 0 -0.872138 0.0419443 -0.365686 -0.000399235 -6.74166e-05 -0.000203773 22.4285 -372.95 -96.2571 0.0025 
51 1 1 -0.118512 0.0252124 -0.153941 0 0 0 -0.922891 0.281168 -0.345938 -7.48725e-05 -2.60842e-05 -7.08211e-05 -126.193 -645.879 -188.308 0.0015 
85 1 1 -0.180625 -0.0382216 -0.150944 0 0 0 -1.70626 -0.770248 -0.835269 0 0 -0.000346714 -992.473 989.332 -382.051 0.0015 
113 1 1 -0.110024 -0.0243522 -0.149297 0 0 0 -0.887485 -0.114101 -0.408328 0 0 -0.000346714 35.4555 -586.816 145.527 0.0015 
25 1 1 -0.101823 -0.00829461 -0.148734 0 0 0 -0.741337 -0.191952 -0.302423 -9.16625e-05 1.35594e-05 -3.17601e-05 144.358 -538.777 -11.9043 0.0015 
57 1 1 -0.108968 0.00177778 -0.151504 0 0 0 -0.946085 -0.0197158 -0.285829 0 0 -0.000346714 -24.4574 -646.54 92.5143 0.0015 
33 1 1 -0.102889 0.00196804 -0.149373 0 0 0 -0.596172 0.134313 -0.248696 -6.55163e-05 -4.78338e-07 -9.44798e-05 -39.4346 -430.221 -137.598 0.0015 
19 1 1 -0.100383 0.0133149 -0.147769 0 0 0 -0.681051 0.0253211 -0.287148 -8.85846e-05 -1.60276e-05 -3.89484e-05 -9.85982 -493.192 -20.1054 0.0015 
75 1 1 -0.110163 0.0223992 -0.150394 0 0 0 -0.890448 0.0475858 -0.310717 0 0 -0.000346714 -66.1405 -629.561 49.7532 0.0015 
41 1 1 -0.112202 -0.027766 -0.147819 0 0 0 -0.698503 -0.0541749 -0.799841 0 0 -0.00160516 -159.194 -215.037 5.0754 0.0025 
28 1 1 -0.100902 -0.0176843 -0.146549 0 0 0 -0.789866 0.16282 -0.355097 -0.000405267 0.000125372 -0.000186893 -78.1823 -343.596 16.3601 0.0025 
60 1 1 -0.0951897 -0.0038246 -0.146178 0 0 0 -0.750198 -0.0640349 -0.317785 -0.000206783 -5.13812e-06 0.000335747 74.5801 -543.189 -67.6852 0.0015 
39 1 1 -0.0913603 -0.00298651 -0.143476 0 0 0 -0.757028 -0.0517744 -0.318145 -0.00040852 -1.18598e-05 -0.000171974 27.9301 -328.472 -13.005 0.0025 
84 1 1 -0.089836 0.00186502 -0.14386 0 0 0 -0.515504 -0.0895313 -0.217142 -5.88922e-05 -1.79611e-06 -0.000103666 31.2016 -373.747 79.9965 0.0015 
40 1 1 -0.0959797 0.00959324 -0.145147 0 0 0 -0.729237 0.186774 -0.294561 -0.0126551 -0.00275218 0.0301833 -110.733 -321.696 26.2465 0.0025 
43 1 1 -0.0949949 0.0266992 -0.143862 0 0 0 -0.69627 -0.0381257 -0.29526 -8.06004e-05 -3.06546e-05 -5.24246e-05 111.67 -476.337 -201.848 0.0015 
42 1 1 -0.103745 0.0306161 -0.145829 0 0 0 -0.823956 -0.0345855 -0.35174 -0.00040006 -0.000146476 -0.000195208 32.6651 -354.966 -41.6162 0.0025 
79 1 1 -0.104482 -0.04948 -0.140356 0 0 0 -0.98113 -0.107651 -0.39324 0 0 -0.00160516 22.1558 -393.767 97.0363 0.0025 
1 1 1 -0.0876652 -0.0146829 -0.141314 0 0 0 -0.704286 -0.0174143 -0.294065 -0.000407447 5.13289e-05 -0.000173131 -37.5848 -300.326 107.802 0.0025 
53 1 1 -0.0856612 -0.00978662 -0.140735 0 0 0 -0.779205 0.0636366 -0.334536 -0.000318412 1.33318e-05 -0.000394559 -24.0335 -339.525 -8.5896 0.0025 
56 1 1 -0.105212 0.00168758 -0.1459 0 0 0 -0.718805 0.16698 -0.837225 0 0 -0.000346714 -85.5854 -368.423 1.07912e-13 0.0015 
44 1 1 -0.0826063 0.0028094 -0.140807 0 0 0 -0.648022 -0.0376452 -0.275829 -8.90998e-05 -3.24649e-06 -3.78282e-05 13.9603 -470.149 31.3682 0.0015 
55 1 1 -0.0993475 0.00532189 -0.145772 0 0 0 -0.834602 0.140226 -0.834832 0 0 -0.00160516 -84.6983 -202.172 18.2874 0.0025 
29 1 1 -0.0876167 0.00880482 -0.141672 0 0 0 -0.670426 -0.0161327 -0.291847 0 0 -0.00160516 35.2469 -279.446 -80.9062 0.0025 
54 1 1 -0.0856704 0.0127891 -0.139258 0 0 0 -0.650915 -0.0660633 -0.17987 0 0 -0.00160516 28.351 -200.961 -35.0076 0.0025 
78 1 1 -0.0974898 0.0170927 -0.144093 0 0 0 -0.875275 0.228069 -0.541479 0 0 -0.00160516 -41.4296 -163.028 -15.7517 0.0025 
88 1 1 -0.0881141 0.0144654 -0.14251 0 0 0 -0.595106 0.0161643 -0.251218 2.25814e-05 -2.87327e-05 7.15436e-06 8.86962 -214.414 -33.5688 0.0015 
27 1 1 -0.0795964 -0.00560562 -0.138413 0 0 0 -0.620348 -0.152783 -0.255752 -0.000411349 4.80275e-05 -0.000176989 72.8697 -270.791 -14.9844 0.0025 
46 1 1 -0.102375 0.00882669 -0.142479 0 0 0 -0.743267 0.1987 -0.774563 0 0 -0.000346714 58.8912 -171.923 -2.54438 0.0015 
58 1 1 -0.0826922 0.0177919 -0.139881 0 0 0 -0.817344 -0.12471 -0.343543 0 0 -0.000346714 132.779 -576.395 -103.507 0.0015 
70 1 1 -0.0813379 0.0262809 -0.138214 0 0 0 -0.711496 -0.0965598 -0.311192 -8.81962e-05 -3.50936e-05 -3.4777e-05 105.832 -505.73 -85.0504 0.0015 
34 1 1 -0.0956833 0.0490882 -0.138783 0 0 0 -0.862495 0.287401 -0.25177 -7.85685e-05 -6.57617e-05 -5.35435e-05 -91.2245 -545.449 -310.13 0.0015 
7 1 1 -0.113363 -0.0792185 -0.131841 0 0 0 -0.71367 -0.119846 -0.199196 -7.1251e-05 0.000117711 -4.09439e-05 -10.27 -413.247 285.275 0.0015 
138 1 1 -0.080235 -0.0401585 -0.134878 0 0 0 -1.05381 -0.0555166 -0.412506 0 0 -0.000346714 -11.9771 -729.5 154.2 0.0015 
63 1 1 -0.0722647 -0.0186505 -0.135452 0 0 0 -0.583187 -0.00451904 -0.243627 -7.91782e-05 2.3092e-05 -5.48444e-05 -26.2665 -415.761 70.6134 0.0015 
74 1 1 -0.0691469 -0.0176802 -0.134255 0 0 0 -0.535833 -0.302824 -0.190095 -8.76156e-05 2.46328e-05 -3.98471e-05 243.872 -396.772 -55.3573 0.0015 
111 1 1 -0.091867 -0.0101092 -0.135165 0 0 0 -0.731541 0.0594779 -0.501123 0 0 -0.000346714 30.7175 221.295 -96.1964 0.0015 
128 1 1 -0.0701219 -0.0132218 -0.134824 0 0 0 -0.577516 -0.193289 -0.219962 0 0 -0.000346714 -87.5756 -73.3126 -76.5428 0.0015 
65 1 1 -0.0717807 -0.0090398 -0.134925 0 0 0 -0.459873 -0.0689397 -0.192126 4.93389e-05 -0.000164101 -0.000176259 44.0431 -196.76 -28.5595 0.0025 
83 1 1 -0.0685579 0.00624161 -0.13437 0 0 0 -0.748134 0.145228 -0.215858 0 0 -0.000346714 -84.463 -506.337 -53.9241 0.0015 
82 1 1 -0.0710514 0.0284892 -0.133533 0 0 0 -0.72633 -0.121955 -0.322055 -8.53955e-05 -3.54432e-05 -4.15768e-05 16.3859 -561.234 175.571 0.0015 
107 1 1 -0.0858049 -0.0170172 -0.132785 0 0 0 -0.774177 -0.197611 -0.598416 0 0 -0.00160516 -26.4565 -264.988 -43.8101 0.0025 
102 1 1 -0.0913455 -0.00501333 -0.13159 0 0 0 -0.730519 0.300783 -0.624762 0 0 -0.000346714 -155.835 -378.48 -1.58522e-13 0.0015 
15 1 1 -0.0587163 -0.00597037 -0.129564 0 0 0 -0.502697 0.0550914 -0.209379 -0.000878069 9.19068e-05 0.000180366 -30.6596 -217.526 15.9229 0.0025 
87 1 1 -0.0898347 -0.00168561 -0.133697 0 0 0 -0.769897 -0.130322 -0.707558 0 0 -0.000346714 52.6196 -280.727 6.42893 0.0015 
95 1 1 -0.0623297 -0.00281955 -0.132316 0 0 0 -0.623007 0.0544212 -0.266165 -8.87312e-05 9.33538e-06 -3.79789e-05 -100.371 -445.228 143.904 0.0015 
73 1 1 -0.0598842 0.00117648 -0.131253 0 0 0 -0.673289 0.163526 -0.279103 -8.84104e-05 -5.11289e-06 -3.72994e-05 -121.963 -487.505 8.586 0.0015 
64 1 1 -0.0855664 0.00560637 -0.134697 0 0 0 -0.71254 -0.00906028 -0.760606 0 0 -0.000346714 -16.4638 -306.665 -13.1889 0.0015 
98 1 1 -0.0786331 0.00624833 -0.133064 0 0 0 -0.591527 -0.13881 -0.592398 0 0 -0.000346714 70.2628 -305.698 33.5383 0.0015 
93 1 1 -0.0611745 0.00642564 -0.130585 0 0 0 -0.611171 -0.200594 -0.261759 -0.000395175 -2.30511e-05 -0.000207246 37.2827 -268.322 118.548 0.0025 
108 1 1 -0.0804198 0.00946561 -0.131319 0 0 0 -0.690242 -0.328967 -0.548786 0 0 -0.000346714 185.692 -394.795 28.3963 0.0015 
68 1 1 -0.0593604 0.0202184 -0.128821 0 0 0 -0.456678 0.0559136 -0.180625 -0.000397587 -9.07684e-05 -0.000168847 -21.0212 -197.351 -7.94241 0.0025 
92 1 1 -0.0623885 0.0245056 -0.129544 0 0 0 -0.414955 0.119325 -0.160963 -0.00138622 -0.000585856 0.00208761 -31.8379 -175.352 -47.9243 0.0025 
121 1 1 -0.0848667 -0.0310279 -0.127064 0 0 0 -0.818457 -0.470085 -0.265062 0 0 -0.000346714 489.767 -176.371 -153.239 0.0015 
59 1 1 -0.0488404 -0.0139646 -0.126129 0 0 0 -0.464551 0.025451 -0.198946 -8.7717e-05 2.3709e-05 -3.97214e-05 -25.779 -336.216 17.1835 0.0015 
114 1 1 -0.0647964 -0.0144991 -0.129223 0 0 0 -0.754937 -0.263175 -0.479669 0 0 -0.000346714 -97.4999 -289.009 106.159 0.0015 
66 1 1 -0.0562578 -0.0137738 -0.128178 0 0 0 -0.679653 -0.0412853 -0.283825 -0.000519834 3.45042e-05 -0.000224038 -15.3403 -292.224 79.1902 0.0025 
101 1 1 -0.051912 -0.0128041 -0.125998 0 0 0 -0.546071 -0.142362 -0.323085 0 0 -0.000346714 42.8929 388.929 -230.336 0.0015 
127 1 1 -0.0523954 -0.00844326 -0.127876 0 0 0 -0.494648 -0.0484404 -0.166078 -0.00024784 -0.000623416 -0.000171152 -41.8954 -330.97 -15.8523 0.0015 
91 1 1 -0.073485 -0.003608 -0.128016 0 0 0 -0.498521 0.0862428 -0.620421 0 0 -0.00160516 53.3082 -81.7548 -60.1937 0.0025 
122 1 1 -0.0634991 -0.00545952 -0.127016 0 0 0 -1.05267 0.0469454 -0.427686 0 0 -0.000346714 81.0236 -48.7047 -77.8753 0.0015 
123 1 1 -0.0564078 -0.00349303 -0.126206 0 0 0 -0.560465 0.175553 -0.219749 0 0 -0.000346714 -221.466 200.881 -159.413 0.0015 
90 1 1 -0.0520082 -0.0046322 -0.126761 0 0 0 -0.549208 -0.00327724 -0.194796 -0.000157865 0.00138795 -0.000409276 25.0671 -228.809 -65.9338 0.0025 
81 1 1 -0.0865346 -9.78241e-05 -0.129857 0 0 0 -0.737121 -0.0401257 -0.635086 0 0 -0.000346714 22.0777 -340.21 19.6179 0.0015 
103 1 1 -0.0503864 0.0119334 -0.125792 0 0 0 -0.615468 -0.0214767 -0.266031 -0.000432792 -3.33381e-05 -0.00015937 11.5587 -268.252 -5.08426 0.0025 
77 1 1 -0.0750695 0.0168777 -0.129634 0 0 0 -0.774182 -0.0820079 -0.52885 0 0 -0.00160516 -117.955 -11.1572 -67.4083 0.0025 
116 1 1 -0.0627314 0.0148897 -0.128287 0 0 0 -0.820307 -0.0268676 -0.449297 0 0 -0.00160516 34.3901 97.7542 58.5807 0.0025 
135 1 1 -0.0584176 0.0144696 -0.128599 0 0 0 -0.79072 -0.0739992 -0.573395 0 0 -0.000346714 -182.811 82.342 -232.289 0.0015 
166 1 1 -0.055645 0.012482 -0.129056 0 0 0 -0.6517 -0.240742 -0.304614 0 0 -0.000346714 55.3316 -490.711 282.643 0.0015 
62 1 1 -0.0545896 0.0186575 -0.128077 0 0 0 -0.39648 -0.0588225 -0.400015 -0.0134154 -0.0168776 -0.0523177 -59.2017 -33.1964 -70.3945 0.0015 
94 1 1 -0.0692005 0.0509597 -0.126325 0 0 0 -0.519603 0.138467 -0.175559 -0.000374036 -0.000290174 -0.000259284 -26.4241 -207.942 -85.8004 0.0025 
106 1 1 -0.0470426 -0.0252013 -0.122941 0 0 0 -0.564232 -0.150988 -0.277391 0 0 -0.00160516 58.3418 -233.608 25.9958 0.0025 
149 1 1 -0.0495416 -0.0226317 -0.125062 0 0 0 -0.554462 -0.281116 -0.473302 0 0 -0.000346714 2.89784 -324.346 145.688 0.0015 
105 1 1 -0.0514541 -0.0181463 -0.125239 0 0 0 -0.730485 -0.221167 -0.575772 0 0 -0.00160516 -27.401 -158.075 -90.9431 0.0025 
112 1 1 -0.0469926 -0.0192758 -0.124748 0 0 0 -0.604305 -0.260344 -0.212285 -0.000693561 0.000155004 0.000465449 105.417 -417.032 200.943 0.0015 
144 1 1 -0.0479605 -0.0112133 -0.122967 0 0 0 -0.513215 -0.0110608 -0.21612 0 0 -0.00160516 101.797 -273.59 193.952 0.0025 
104 1 1 -0.0688863 -0.0083532 -0.123886 0 0 0 -0.758712 0.0523375 -0.41255 0 0 -0.00160516 21.1445 -4.98565 31.0059 0.0025 
158 1 1 -0.0458301 0.00449513 -0.124039 0 0 0 -0.722006 0.231736 -0.231088 0 0 -0.00160516 -91.3249 -301.317 -24.2497 0.0025 
110 1 1 -0.0444797 0.00968264 -0.122925 0 0 0 -0.728551 0.0460099 -0.173617 0 0 -0.000346714 50.7022 -499.14 -206.944 0.0015 
139 1 1 -0.0582761 0.0156948 -0.124482 0 0 0 -0.944089 0.147195 -0.517288 0 0 -0.000346714 232.714 -588.143 97.9806 0.0015 
136 1 1 -0.0386308 0.0171464 -0.121496 0 0 0 -0.461824 0.169731 -0.238678 0 0 -0.000346714 -70.7334 -308.782 -121.489 0.0015 
119 1 1 -0.0520692 0.0199685 -0.125319 0 0 0 -0.723164 -0.227617 -0.202655 0.0134154 0.0168776 0.0503658 82.6494 -270.399 16.1668 0.0025 
161 1 1 -0.0454058 0.0234508 -0.122456 0 0 0 -0.556904 0.125009 -0.200625 0 0 -0.000346714 -91.5738 -363.535 -25.8605 0.0015 
146 1 1 -0.0401657 -0.0501354 -0.11567 0 0 0 -0.218559 -0.7212 0.116743 -3.32178e-05 1.16679e-05 -0.000184698 428.946 -86.9148 266.119 0.0015 
165 1 1 -0.058549 -0.0260166 -0.120029 0 0 0 -0.895994 0.214461 -0.445456 0 0 -0.000346714 -22.9455 -195.917 -119.891 0.0015 
126 1 1 -0.0350748 -0.0238757 -0.119231 0 0 0 -0.323007 -0.121921 -0.121593 -9.42512e-05 2.5263e-05 -2.28809e-05 -21.2201 -205.442 262.442 0.0015 
117 1 1 -0.0391264 -0.0199884 -0.120242 0 0 0 -0.442338 -0.184543 -0.173086 0 0 -0.00160516 46.8671 -179.368 83.1044 0.0025 
97 1 1 -0.0782141 -0.0130063 -0.122453 0 0 0 -0.608113 0.0408381 -0.464722 0 0 -0.000346714 109.276 -295.039 -85.8856 0.0015 
80 1 1 -0.0823707 -0.0085584 -0.122179 0 0 0 -0.822154 0.0808888 -0.508076 0 0 -0.00160516 -70.6507 -163.412 65.2439 0.0025 
174 1 1 -0.0613972 -0.0103779 -0.122525 0 0 0 -1.24376 -0.329915 -0.554566 0 0 -0.000346714 387.716 105.058 290.11 0.0015 
160 1 1 -0.0312343 -0.00482791 -0.119076 0 0 0 -0.326049 0.223938 -0.134181 0.00110228 -0.0011302 0.00369497 -69.7009 -131.063 -127.399 0.0015 
69 1 1 -0.0814882 -0.00149938 -0.122531 0 0 0 -0.754791 0.00562456 -0.518898 0 0 -0.000346714 -168.237 -253.173 -43.4105 0.0015 
185 1 1 -0.0384512 0.00176805 -0.119456 0 0 0 -1.03806 0.0253191 -0.33595 0 0 -0.000346714 -61.0186 -684.767 102.483 0.0015 
109 1 1 -0.0336699 0.00614956 -0.119843 0 0 0 -0.411808 -0.178392 -0.13398 0 0 -0.000346714 151.086 -271.009 -28.3507 0.0015 
173 1 1 -0.0463922 0.0124052 -0.118762 0 0 0 -0.66058 0.485496 -0.207535 0 0 -0.000346714 249.586 -375.953 133.484 0.0015 
132 1 1 -0.0421028 0.00878466 -0.118044 0 0 0 -0.71597 -0.0664785 -0.00981817 0 0 -0.00160516 -123.469 298.795 -66.7671 0.0025 
124 1 1 -0.034128 0.0126513 -0.119882 0 0 0 -0.257538 -0.0794262 -0.129384 -0.000145287 0.000389765 0.00158481 47.4016 -190.801 22.5472 0.0015 
96 1 1 -0.0833833 0.0149107 -0.120656 0 0 0 -0.845457 -0.12801 -0.514746 0 0 -0.000346714 246.884 -254.322 -70.0386 0.0015 
67 1 1 -0.0644174 0.0161522 -0.120798 0 0 0 -0.689896 0.217128 -0.486053 0 0 -0.00160516 -112.704 254.987 22.3229 0.0025 
13 1 1 -0.0565344 0.0188708 -0.122376 0 0 0 -0.465096 0.0401318 -0.469551 0 0 -0.00160516 -56.5 -40.2411 -43.7451 0.0025 
148 1 1 -0.0346692 0.0190691 -0.119308 0 0 0 -0.569513 0.0379593 -0.277425 0 0 -0.000346714 -98.1253 -403.065 150.035 0.0015 
130 1 1 -0.0594622 0.0367328 -0.120937 0 0 0 -0.548073 0.164744 -0.358453 0 0 -0.00160516 -77.6487 -73.4843 -78.7592 0.0025 
9 1 1 -0.0642228 0.0668375 -0.119511 0 0 0 -0.321821 0.161086 -0.0502244 -7.32568e-05 -8.6524e-05 -5.70025e-05 -126.834 -251.792 5.06005 0.0015 
179 1 1 -0.0554835 -0.0372549 -0.115441 0 0 0 -0.82532 -0.446848 -0.307356 0 0 -0.000346714 606.356 136.341 150.775 0.0015 
181 1 1 -0.0356992 -0.0230243 -0.1149 0 0 0 -0.8358 0.225216 -0.627561 0 0 -0.00160516 28.0591 123.033 -2.68775 0.0025 
137 1 1 -0.0694506 -0.0154034 -0.117122 0 0 0 -0.71424 0.318693 -0.244093 0 0 -0.000346714 -165.637 -371.218 1.31049e-13 0.0015 
155 1 1 -0.044862 -0.014797 -0.119079 0 0 0 -0.563419 0.296858 -0.472728 0 0 -0.00160516 -29.797 -232.363 -28.655 0.0025 
147 1 1 -0.0314439 -0.0161561 -0.116047 0 0 0 -0.312961 -0.00537989 -0.436458 0 0 -0.000346714 -25.8911 -241.683 23.1967 0.0015 
125 1 1 -0.0276899 -0.0151947 -0.11688 0 0 0 -0.211079 -0.0741069 -0.0782509 0 0 -0.000346714 40.1571 -49.801 -177.447 0.0015 
167 1 1 -0.0508467 -0.00903952 -0.118427 0 0 0 -0.937745 0.216682 -0.58885 0 0 -0.00160516 57.8974 337.05 65.9034 0.0025 
118 1 1 -0.0276657 -0.00725471 -0.113792 0 0 0 -0.410547 0.160403 -0.0503658 0 0 -0.00160516 -49.328 -123.905 -27.2835 0.0025 
115 1 1 -0.0709354 -0.00385531 -0.119712 0 0 0 -0.704941 0.290036 -0.491673 0 0 -0.000346714 -148.193 -360.188 1.16897e-14 0.0015 
191 1 1 -0.0287983 -0.00607425 -0.117858 0 0 0 -0.414507 -0.225569 -0.314319 -0.000901247 0.000625199 -0.000317568 -273.189 -318.744 -0.517972 0.0015 
154 1 1 -0.0238504 -0.00182105 -0.114464 0 0 0 -0.50276 0.165311 -0.148828 0 0 -0.000346714 -84.2218 -319.142 -81.5044 0.0015 
100 1 1 -0.0631214 0.00186838 -0.118678 0 0 0 -0.579227 0.229689 -0.539948 0 0 -0.000346714 -212.708 -114.821 -170.59 0.0015 
198 1 1 -0.0323482 0.0018548 -0.116372 0 0 0 -0.761637 0.021638 0.23478 0 0 -0.000346714 -10.9757 -386.336 -1.37497e-14 0.0015 
168 1 1 -0.0326959 0.0065098 -0.115296 0 0 0 -0.545016 -0.293132 -0.281258 0 0 -0.00160516 44.0676 -63.8448 124.808 0.0025 
99 1 1 -0.0702905 0.0143494 -0.116438 0 0 0 -0.848625 0.0571809 -0.408877 0 0 -0.000346714 215.697 -421.063 142.857 0.0015 
180 1 1 -0.0363123 0.00907528 -0.118088 0 0 0 -0.598818 -0.141844 -0.206573 0 0 -0.00160516 -5.92058 -62.3225 -61.9859 0.0025 
187 1 1 -0.03231 0.0245187 -0.112426 0 0 0 -0.721234 -0.2348 0.180951 0 0 -0.000346714 119.521 -367.133 -2.96941e-14 0.0015 
140 1 1 -0.0693259 0.0459828 -0.114783 0 0 0 -0.722634 0.270636 -0.229959 0 0 -0.000346714 260.994 -389.889 163.549 0.0015 
86 1 1 -0.0371065 0.0529174 -0.113661 0 0 0 -0.24191 0.117997 -0.0666703 -8.24983e-05 -6.01204e-05 -5.46476e-05 2.04322 -116.167 -213.009 0.0015 
200 1 1 -0.0264976 -0.0348975 -0.113712 0 0 0 -0.516121 -0.633077 -0.0329142 0 0 -0.000346714 372.001 -268.421 274.903 0.0015 
188 1 1 -0.024255 -0.0266359 -0.113371 0 0 0 -0.470134 -0.0456129 0.00375078 0 0 -0.000346714 81.412 -294.894 -56.9897 0.0015 
131 1 1 -0.0547637 -0.0186061 -0.111839 0 0 0 -0.697838 0.0433516 -0.314475 0 0 -0.00160516 -128.245 -158.403 34.4151 0.0025 
172 1 1 -0.0430879 -0.0176081 -0.111314 0 0 0 -0.727883 0.299697 -0.0251796 0 0 -0.000346714 -156.375 -379.791 5.10942e-14 0.0015 
171 1 1 -0.0395167 -0.0186374 -0.111755 0 0 0 -1.04624 -0.187962 -0.0487327 0 0 -0.000346714 -67.283 -233.374 -305.453 0.0015 
176 1 1 -0.0320627 -0.0208659 -0.109587 0 0 0 -0.134394 -0.0777383 -0.0564665 0 0 -0.000346714 241.791 189.798 -317.251 0.0015 
142 1 1 -0.0209136 -0.0202425 -0.111835 0 0 0 -0.270379 0.102759 0.00662241 0 0 -0.00160516 -10.1437 -98.2478 -67.1614 0.0025 
120 1 1 -0.0614572 -0.0149914 -0.112547 0 0 0 -0.756959 0.0982943 -0.384136 0 0 -0.00160516 -40.3372 -182.695 -16.5233 0.0025 
169 1 1 -0.0475974 -0.0130674 -0.113438 0 0 0 -0.650581 -0.0109339 -0.430003 0 0 -0.00160516 -20.8798 -258.145 -39.1749 0.0025 
143 1 1 -0.0370248 -0.0156264 -0.113074 0 0 0 -0.587707 -0.416734 -0.307518 0 0 -0.00160516 237.467 166.444 136.962 0.0025 
186 1 1 -0.00884328 -0.00727296 -0.109293 0 0 0 -0.0489499 0.0560632 -0.0101408 0 0 -0.000346714 -75.7978 -8.88506 87.2225 0.0015 
129 1 1 -0.0579901 -0.00375742 -0.114393 0 0 0 -0.786618 0.0121635 -0.32865 0 0 -0.00160516 -85.0819 47.0231 -38.5406 0.0025 
204 1 1 -0.0215198 -0.00274687 -0.11218 0 0 0 -0.938495 0.273813 -0.0857757 0 0 -0.000346714 -208.54 -581.827 26.0516 0.0015 
162 1 1 -0.0187171 -7.24928e-05 -0.113848 0 0 0 -0.32447 0.0439827 0.114013 0.00627321 -0.00276069 -0.0102982 -28.8299 -165.583 18.3501 0.0015 
178 1 1 -0.0415118 0.00335026 -0.111787 0 0 0 -0.753066 0.0213945 0.0395242 0 0 -0.000346714 -10.9831 -386.597 -4.07301e-15 0.0015 
152 1 1 -0.0589095 0.0084432 -0.112592 0 0 0 -0.863483 -0.00874044 -0.123397 0 0 -0.000346714 83.1315 -292.5 132.925 0.0015 
164 1 1 -0.0404562 0.00620366 -0.109921 0 0 0 -0.747095 -0.134941 -0.0124425 0 0 -0.000346714 69.1159 -382.658 2.05793e-14 0.0015 
145 1 1 -0.0275371 0.0105685 -0.112362 0 0 0 -0.458384 -0.00441272 -0.320934 0 0 -0.00160516 86.1763 -130.675 23.1771 0.0025 
141 1 1 -0.0153764 0.0104071 -0.1116 0 0 0 -0.0844514 -0.194251 -0.16016 0 0 -0.000346714 94.6978 -30.6066 92.9092 0.0015 
156 1 1 -0.0251004 0.0153678 -0.112018 0 0 0 -0.217845 0.0547179 0.041343 0 0 -0.00160516 11.0774 -43.147 -86.7751 0.0025 
159 1 1 -0.0477718 0.0203506 -0.110431 0 0 0 -0.727991 -0.264533 -0.0749605 0 0 -0.000346714 135.577 -373.108 2.76099e-14 0.0015 
163 1 1 -0.0517387 0.0221123 -0.111387 0 0 0 -0.717385 -0.319909 -0.120497 0 0 -0.000346714 166.308 -372.94 1.57058e-13 0.0015 
196 1 1 -0.0225812 -0.0272638 -0.108328 0 0 0 -0.703235 0.289335 0.201225 0 0 -0.00160516 -89.2179 -216.846 -7.66376e-14 0.0025 
193 1 1 -0.0278245 -0.0234338 -0.11498 0 0 0 -0.787065 0.0964055 -0.0501251 0 0 -0.00160516 -37.8678 -293.962 -5.72913 0.0025 
205 1 1 -0.011905 -0.0221761 -0.105006 0 0 0 -0.716609 0.263082 0.162648 0 0 -0.000346714 -136.781 -372.577 -3.71052e-14 0.0015 
177 1 1 -0.0317742 -0.0137399 -0.109094 0 0 0 -0.784881 -0.156527 -0.155556 0 0 -0.000346714 -126.743 -262.175 -161.616 0.0015 
157 1 1 -0.0295518 -0.00981375 -0.108013 0 0 0 -0.711552 -0.0317277 -0.246501 0 0 -0.00160516 -151.017 -131.734 -65.673 0.0025 
190 1 1 -0.0211904 0.00868009 -0.107014 0 0 0 -0.749428 -0.0168576 0.142361 0 0 -0.000346714 8.5455 -379.902 -1.22236e-17 0.0015 
189 1 1 -0.0368741 0.0161301 -0.116147 0 0 0 -1.39173 -0.128114 -1.10134 0 0 -0.000346714 -14.4434 -355.214 -59.3765 0.0015 
197 1 1 -0.0274423 0.0233676 -0.1138 0 0 0 -0.721327 -0.23483 0.240492 0 0 -0.000346714 120.035 -368.712 4.36143e-14 0.0015 
203 1 1 -0.0345196 0.0336103 -0.115462 0 0 0 -0.721311 -0.321659 0.206876 0 0 -0.000346714 167.198 -374.935 -9.98108e-14 0.0015 
195 1 1 -0.00903143 -0.0176272 -0.101453 0 0 0 -0.711467 0.127121 0.174955 0 0 -0.00160516 -38.8351 -217.352 3.02888e-14 0.0025 
153 1 1 -0.0399667 -0.0149028 -0.101387 0 0 0 -0.705536 0.108121 0.0688759 0 0 -0.000346714 -107.869 -228.934 95.2028 0.0015 
192 1 1 -0.0181541 -0.00730728 -0.103336 0 0 0 -0.733112 0.10624 0.0698588 0 0 -0.000346714 -54.4381 -375.65 -2.57148e-14 0.0015 
201 1 1 -0.00628578 -0.00794178 -0.104942 0 0 0 -0.734621 0.106459 0.216189 0 0 -0.000346714 -54.0287 -372.826 4.43189e-14 0.0015 
150 1 1 -0.0337019 -0.00611038 -0.104483 0 0 0 -0.586293 -0.0855 -0.0850226 0 0 -0.000346714 -222.778 -463.567 168.636 0.0015 
151 1 1 -0.0396704 0.0180297 -0.104816 0 0 0 -0.730455 -0.170603 -0.221502 0 0 -0.000346714 87.8954 -376.333 -1.05237e-14 0.0015 
133 1 1 -0.0651085 0.0228965 -0.101704 0 0 0 -0.751423 -0.139775 0.0379085 0 0 -0.000346714 165.241 -151.591 -75.0859 0.0015 
184 1 1 -0.0191053 0.0221885 -0.103138 0 0 0 -0.699924 -0.268749 0.0717019 0 0 -0.000346714 138.36 -360.342 -3.47581e-14 0.0015 
183 1 1 -0.0232757 0.0281247 -0.103647 0 0 0 -0.701214 -0.269244 0.0952548 0 0 -0.00160516 83.5933 -217.709 2.6387e-14 0.0025 
61 1 1 -0.0159444 0.0574174 -0.103646 0 0 0 -0.126941 0.257111 0.0298076 -7.74009e-05 -6.12289e-05 -4.90633e-05 -234.176 -128.3 109.404 0.0015 
182 1 1 -0.017127 -0.0289938 -0.0991583 0 0 0 -0.692998 0.253522 0.0521268 0 0 -0.00160516 -78.25 -213.895 1.02045e-13 0.0025 
194 1 1 -0.0311489 -0.0257201 -0.1118 0 0 0 -0.887637 -0.441045 -0.137264 0 0 -0.00160516 248.016 258.491 96.0867 0.0025 
175 1 1 -0.0252907 -0.0191869 -0.102298 0 0 0 -0.713733 0.262026 -0.0699926 0 0 -0.000346714 -134.947 -367.581 4.36608e-14 0.0015 
199 1 1 -0.0220515 0.0025114 -0.115218 0 0 0 -0.450433 0.353001 -1.601 0 0 -0.000346714 -165.509 -264.843 37.4103 0.0015 
170 1 1 -0.0169548 0.0159055 -0.103565 0 0 0 -0.405324 -0.153706 -0.240972 0 0 -0.00160516 53.6813 -262.807 -7.77067 0.0025 
134 1 1 -0.0425639 0.0235061 -0.101364 0 0 0 -0.378435 0.170477 -0.197371 0 0 -0.000346714 -203.412 441.886 -62.7026 0.0015 
89 1 1 -0.0699677 0.0302953 -0.101064 0 0 0 -0.5528 0.273197 -0.176628 0 0 -0.000346714 -314.22 -140.985 -64.0011 0.0015 
202 1 1 -0.00727368 0.032721 -0.102655 0 0 0 -0.711246 -0.32556 0.147573 0 0 -0.000346714 169.603 -370.528 -1.51051e-13 0.0015 
45 1 1 -0.10885 -0.0165584 -0.0975483 0 0 0 -0.806305 -0.42317 -0.0514189 0 0 -0.000346714 389.887 -152.585 -138.964 0.0015 
212 1 1 -0.0118483 0.00949823 -0.109454 0 0 0 0 0 -2.03186 0 0 -0.000346714 0 0 0 0.0015 
209 1 1 -0.00846257 0.0271655 -0.106447 0 0 0 -0.701674 -0.26942 0.263507 0 0 -0.00160516 83.1775 -216.626 -2.85333e-15 0.0025 
215 1 1 -0.013573 0.0299934 -0.109336 0 0 0 -0.723266 -0.262816 0.259687 0.0073977 0.00268813 -0.0179534 134.186 -369.279 -5.84631e-14 0.0015 
216 1 1 -0.00994512 0.0313184 -0.107141 0 0 0 -0.70196 -0.26953 0.251887 0 0 -0.000346714 137.856 -359.03 4.38672e-14 0.0015 
217 1 1 -0.00525173 0.0148756 -0.10706 0 0 0 0 0 -2.02029 0 0 -0.000346714 0 0 0 0.0015 
218 1 1 -0.0116971 -0.0149443 -0.10384 0 0 0 0 0 -2.00459 0 0 -0.000346714 0 0 0 0.0015 
207 1 1 -0.014731 -0.00384992 -0.100511 0 0 0 0 0 -1.98821 0 0 -0.00160516 0 0 0 0.0025 
211 1 1 -0.0325497 0.0284222 -0.10188 0 0 0 0 0 -1.99498 0 0 -0.000346714 0 0 0 0.0015 
206 1 1 -0.0315415 -0.0266248 -0.0985078 0 0 0 0 0 -1.9783 0 0 -0.00160516 0 0 0 0.0025 
208 1 1 -0.0313425 0.0167345 -0.098029 0 0 0 0 0 -1.97595 0 0 -0.00160516 0 0 0 0.0025 
210 1 1 -0.0220067 0.0311963 -0.0980492 0 0 0 0 0 -1.97605 0 0 -0.00160516 0 0 0 0.0025 
214 1 1 -0.000147874 -0.0328927 -0.0944917 0 0 0 0 0 -1.95829 0 0 -0.000346714 0 0 0 0.0015 
213 1 1 -0.0258692 -0.0150214 -0.0951568 0 0 0 0 0 -1.96163 0 0 -0.000346714 0 0 0 0.0015 
223 1 1 -0.0141421 0.000627184 -0.0893559 0 0 0 0 0 -1.93239 0 0 -0.000346714 0 0 0 0.0015 
226 1 1 -0.0256746 -0.0295973 -0.0869625 0 0 0 0 0 -1.92023 0 0 -0.000346714 0 0 0 0.0015 
219 1 1 -0.0126988 -0.0187384 -0.0884314 0 0 0 0 0 -1.92768 0 0 -0.00160516 0 0 0 0.0025 
228 1 1 -0.0186146 -0.0100891 -0.0871201 0 0 0 0 0 -1.92101 0 0 -0.000346714 0 0 0 0.0015 
227 1 1 -0.0125397 -0.025785 -0.0831803 0 0 0 0 0 -1.9008 0 0 -0.000346714 0 0 0 0.0015 
224 1 1 -0.0104339 -0.00964248 -0.0843225 0 0 0 0 0 -1.90669 0 0 -0.000346714 0 0 0 0.0015 
229 1 1 -0.0206785 0.0145985 -0.0854742 0 0 0 0 0 -1.91258 0 0 -0.000346714 0 0 0 0.0015 
230 1 1 -0.0158011 0.0337207 -0.0825716 0 0 0 0 0 -1.89766 0 0 -0.000346714 0 0 0 0.0015 
225 1 1 -0.0349321 -0.00790873 -0.0751789 0 0 0 0 0 -1.85901 0 0 -0.000346714 0 0 0 0.0015 
240 1 1 -0.0114835 -0.0265679 -0.0723634 0 0 0 0 0 -1.8441 0 0 -0.000346714 0 0 0 0.0015 
221 1 1 -0.03004 0.0154412 -0.0732319 0 0 0 0 0 -1.84871 0 0 -0.00160516 0 0 0 0.0025 
220 1 1 -0.0245784 0.0311922 -0.0721966 0 0 0 0 0 -1.84322 0 0 -0.00160516 0 0 0 0.0025 
222 1 1 -0.00133775 0.0319388 -0.0714046 0 0 0 0 0 -1.839 0 0 -0.00160516 0 0 0 0.0025 
239 1 1 -0.004822 -0.0263713 -0.0688021 0 0 0 0 0 -1.82507 0 0 -0.000346714 0 0 0 0.0015 
231 1 1 -0.0172445 0.00368684 -0.0705359 0 0 0 0 0 -1.83439 0 0 -0.00160516 0 0 0 0.0025 
232 1 1 -0.0305153 0.021925 -0.0683081 0 0 0 0 0 -1.82242 0 0 -0.00160516 0 0 0 0.0025 