ITEM: TIMESTEP
60000
ITEM: NUMBER OF ATOMS
733
ITEM: BOX BOUNDS ff ff ff
-0.5 0.1
-0.2 0.2
-0.4 0.15
ITEM: ATOMS id type type x y z ix iy iz vx vy vz fx fy fz omegax omegay omegaz radius 
758 1 1 -0.00932383 0.0313617 0.0494102 0 0 0 0 0 -1.00574 0 0 -0.00160516 0 0 0 0.0025 
757 1 1 -0.0319049 0.0104035 0.0517958 0 0 0 -0 0 -1 0 0 0 0 0 0 0.0025 
767 1 1 -0.0171127 -0.00684045 0.051184 0 0 0 -0 0 -1 0 0 0 0 0 0 0.0015 
760 1 1 -0.00596176 0.0106942 0.0462024 0 0 0 0 0 -1.03654 0 0 -0.00160516 0 0 0 0.0025 
763 1 1 -0.0221052 0.0140773 0.0465977 0 0 0 0 0 -1.03281 0 0 -0.000346714 0 0 0 0.0015 
765 1 1 -0.0178827 0.011519 0.0471569 0 0 0 0 0 -1.02752 0 0 -0.000346714 0 0 0 0.0015 
768 1 1 -0.0346422 0.0167028 0.0420499 0 0 0 0 0 -1.07519 0 0 -0.000346714 0 0 0 0.0015 
766 1 1 -0.0120198 -0.00643587 0.0470594 0 0 0 0 0 -1.0284 0 0 -0.000346714 0 0 0 0.0015 
764 1 1 -0.0333443 0.00265979 0.0421458 0 0 0 0 0 -1.07431 0 0 -0.000346714 0 0 0 0.0015 
762 1 1 -0.0323027 -2.99829e-05 0.0452663 0 0 0 0 0 -1.04537 0 0 -0.000346714 0 0 0 0.0015 
761 1 1 -0.00292335 -0.0229686 0.0439512 0 0 0 0 0 -1.05763 0 0 -0.000346714 0 0 0 0.0015 
759 1 1 -0.0219433 -0.015591 0.0423336 0 0 0 0 0 -1.07254 0 0 -0.00160516 0 0 0 0.0025 
42 1 1 -0.493041 -0.0237133 -0.395302 0 0 0 -1.33211 -0.2013 -1.83387 0 0 -0.00160516 109.87 -576.939 -51.5609 0.0025 
10 1 1 -0.457388 -0.00509363 -0.380014 0 0 0 -1.08588 0.0255981 -1.75621 0 0 -0.000346714 8.62949 -715.818 131.799 0.0015 
34 1 1 -0.484674 0.0162967 -0.381104 0 0 0 -1.41482 -0.192511 -1.91259 0 0 -0.000346714 493.877 -684.048 -258.406 0.0015 
113 1 1 -0.473783 0.0241884 -0.375887 0 0 0 -1.25852 0.167329 -1.70446 0 0 -0.000346714 -194.603 -924.024 170.121 0.0015 
55 1 1 -0.47398 0.0190766 -0.371815 0 0 0 -1.2534 -0.0834902 -1.7016 0 0 -0.00160516 19.7338 -540.88 -1.90988 0.0025 
76 1 1 -0.454986 -0.016713 -0.367718 0 0 0 -1.09231 -0.13439 -1.63059 0 0 -0.000346714 92.8442 -788.275 14.2557 0.0015 
52 1 1 -0.468619 -0.00247604 -0.367237 0 0 0 -1.22838 0.0816529 -1.64432 0 0 -0.00160516 -60.2016 -512.405 63.3718 0.0025 
28 1 1 -0.466336 0.00631439 -0.367791 0 0 0 -1.24819 0.014326 -1.67009 0 0 -0.00160516 -59.8863 -541.768 76.586 0.0025 
56 1 1 -0.467853 0.0117009 -0.36977 0 0 0 -1.24774 0.0347759 -1.67123 0 0 -0.000346714 -69.6708 -911.978 103.154 0.0015 
50 1 1 -0.46103 0.00289311 -0.361175 0 0 0 -1.22769 0.0717969 -1.61144 0 0 -0.000346714 -20.5329 -889.797 -76.0856 0.0015 
96 1 1 -0.457342 0.00993961 -0.36122 0 0 0 -1.19581 0.0233573 -1.6133 0 0 -0.000346714 98.111 -850.536 -269.484 0.0015 
49 1 1 -0.462171 0.0111725 -0.360953 0 0 0 -1.21594 0.0273208 -1.59118 0 0 -0.000346714 -2.95137 -858.897 -124.859 0.0015 
78 1 1 -0.472193 0.0206426 -0.363224 0 0 0 -1.28145 -0.0805766 -1.65897 0 0 -0.00160516 53.9726 -553.987 -53.888 0.0025 
174 1 1 -0.486833 -0.0371488 -0.356949 0 0 0 -1.38865 0.146671 -1.69216 0 0 -0.000346714 -250.031 -903.892 387.194 0.0015 
41 1 1 -0.458299 0.000716249 -0.356744 0 0 0 -1.21901 0.141039 -1.59603 0 0 -0.00160516 -90.0438 -515.039 74.5683 0.0025 
46 1 1 -0.461959 0.0167588 -0.358801 0 0 0 -1.25892 -0.0445232 -1.61935 0 0 -0.000346714 58.0925 -913.663 -61.0714 0.0015 
107 1 1 -0.451535 -0.00321002 -0.351827 0 0 0 -1.20273 0.108717 -1.57602 0 0 -0.00160516 -56.9293 -506.666 -9.08631 0.0025 
25 1 1 -0.451619 0.00683061 -0.349151 0 0 0 -1.24851 0.0261982 -1.5446 0 0 -0.000346714 -60.0562 -912.014 95.3081 0.0015 
19 1 1 -0.44583 0.00646109 -0.349983 0 0 0 -1.20978 0.000488063 -1.56238 0 0 -0.000346714 5.80892 -834.78 -69.1373 0.0015 
40 1 1 -0.457092 0.020945 -0.348569 0 0 0 -1.26232 -0.0794454 -1.57458 0 0 -0.00160516 24.5492 -581.951 25.5622 0.0025 
60 1 1 -0.449919 -0.00260464 -0.338789 0 0 0 -1.2223 0.0893583 -1.42247 0 0 -0.000346714 -56.6924 -815.658 -85.2318 0.0015 
39 1 1 -0.442228 -0.000301659 -0.33713 0 0 0 -1.21561 0.0585228 -1.46254 0 0 -0.00160516 -19.8868 -526.821 -12.8098 0.0025 
111 1 1 -0.439355 -0.00266998 -0.333125 0 0 0 -1.25302 0.0696824 -1.43939 0 0 -0.000346714 -85.679 -900.298 85.1638 0.0015 
102 1 1 -0.450427 0.0369029 -0.332821 0 0 0 -1.25929 -0.0282837 -1.47301 0 0 -0.000346714 57.9866 -954.03 -94.2035 0.0015 
120 1 1 -0.477192 -0.018754 -0.327634 0 0 0 -1.46795 -0.0787227 -1.47872 0 0 -0.00160516 68.5391 360.736 -3.49879 0.0025 
1 1 1 -0.436263 -0.00249006 -0.326782 0 0 0 -1.25756 0.0823184 -1.39855 0 0 -0.00160516 -80.3433 -534.057 111.987 0.0025 
7 1 1 -0.417076 0.00385826 -0.329007 0 0 0 -1.01188 0.396983 -1.45083 0 0 -0.000346714 -433.814 -624.856 371.752 0.0015 
129 1 1 -0.415429 0.00799966 -0.31664 0 0 0 -1.0715 -0.0529995 -1.30623 0 0 -0.00160516 59.257 -278.556 -70.1664 0.0025 
114 1 1 -0.42046 -0.0158857 -0.313706 0 0 0 -1.29154 0.138004 -1.3636 0 0 -0.000346714 -177.256 -902.318 191.707 0.0015 
87 1 1 -0.4101 -0.013643 -0.313709 0 0 0 -1.14688 0.112103 -1.3467 0 0 -0.000346714 -95.6221 -653.381 131.349 0.0015 
29 1 1 -0.419084 -0.00199423 -0.313255 0 0 0 -1.2138 -0.0533211 -1.29955 0 0 -0.00160516 37.3982 -526.679 -33.1236 0.0025 
81 1 1 -0.41334 0.0116693 -0.311315 0 0 0 -1.13802 0.0508109 -1.26428 0 0 -0.000346714 -22.8756 -823.707 -33.2889 0.0015 
33 1 1 -0.409476 0.00368362 -0.309978 0 0 0 -1.12847 -0.0441989 -1.2659 0 0 -0.000346714 20.3045 -790.454 -101.48 0.0015 
45 1 1 -0.409685 -0.0189952 -0.306765 0 0 0 -1.03471 0.341643 -1.32671 0 0 -0.000346714 -276.055 -792.101 37.7484 0.0015 
70 1 1 -0.412808 0.00870818 -0.306254 0 0 0 -1.1916 -0.010934 -1.22445 0 0 -0.000346714 30.1272 -846.192 -96.9348 0.0015 
69 1 1 -0.414844 0.0315923 -0.304917 0 0 0 -1.15688 0.0501623 -1.22736 0 0 -0.000346714 4.34776 -838.832 -104.978 0.0015 
27 1 1 -0.412815 -0.0177553 -0.29933 0 0 0 -1.22138 0.0677168 -1.19109 0 0 -0.00160516 -2.99417 -474.149 -2.65371 0.0025 
171 1 1 -0.407113 -0.0179991 -0.30166 0 0 0 -1.19072 0.0900565 -1.23242 0 0 -0.000346714 -20.8638 -869.319 -74.2511 0.0015 
82 1 1 -0.409892 0.0131918 -0.302489 0 0 0 -1.23143 -0.0741231 -1.22526 0 0 -0.000346714 -29.9445 -944.1 197.417 0.0015 
152 1 1 -0.399719 0.00105449 -0.296367 0 0 0 -1.16893 -0.0586856 -1.14975 0 0 -0.000346714 1.19702 -854.343 96.3749 0.0015 
43 1 1 -0.408674 0.0402255 -0.297988 0 0 0 -1.17401 -0.00652347 -1.25505 0 0 -0.000346714 218.147 -602.343 -229.085 0.0015 
105 1 1 -0.410071 -0.0129434 -0.295706 0 0 0 -1.33838 0.132325 -1.1945 0 0 -0.00160516 -51.181 -589.493 -14.4579 0.0025 
99 1 1 -0.389765 0.0061394 -0.295047 0 0 0 -1.08037 -0.0661912 -1.19481 0 0 -0.000346714 169.819 -626.796 -14.1058 0.0015 
98 1 1 -0.398032 -0.0179209 -0.289056 0 0 0 -1.23145 0.00742095 -1.09639 0 0 -0.000346714 -28.5849 -890.559 58.3764 0.0015 
53 1 1 -0.393715 0.003205 -0.290559 0 0 0 -1.1316 0.00335432 -1.10984 0 0 -0.00160516 -15.9023 -490.348 38.7695 0.0025 
104 1 1 -0.393206 0.00239329 -0.285472 0 0 0 -1.25025 0.0514267 -1.05257 0 0 -0.00160516 -42.1805 -530.679 49.2011 0.0025 
77 1 1 -0.388424 0.00802897 -0.284693 0 0 0 -1.15269 -0.154881 -1.07169 0 0 -0.00160516 53.5331 -515.472 33.6965 0.0025 
58 1 1 -0.371617 0.00992999 -0.284359 0 0 0 -0.94902 0.0198305 -1.09018 0 0 -0.000346714 155.641 -677.146 71.2123 0.0015 
140 1 1 -0.391962 0.0111511 -0.287807 0 0 0 -1.17201 -0.157875 -1.10008 0 0 -0.000346714 100.145 -868.861 36.5402 0.0015 
137 1 1 -0.406307 0.03523 -0.284812 0 0 0 -1.1782 -0.0649507 -1.05537 0 0 -0.000346714 60.2564 -867.776 -0.874001 0.0015 
165 1 1 -0.387416 -0.0191934 -0.282285 0 0 0 -1.14294 0.121721 -1.04556 0 0 -0.000346714 -118.131 -839.428 72.9318 0.0015 
108 1 1 -0.384943 0.00298794 -0.283646 0 0 0 -1.1779 -0.0254728 -1.05521 0 0 -0.000346714 44.0659 -815.948 -96.4661 0.0015 
44 1 1 -0.391323 0.00480719 -0.282759 0 0 0 -1.16163 -0.0650147 -0.960841 0 0 -0.000346714 55.0474 -741.588 28.6765 0.0015 
139 1 1 -0.386669 0.022046 -0.280981 0 0 0 -1.14571 -0.123245 -1.04686 0 0 -0.000346714 62.6153 -891.181 71.8998 0.0015 
64 1 1 -0.388774 0.0287902 -0.280619 0 0 0 -1.13601 -0.0425118 -1.03483 0 0 -0.000346714 126.092 -780.116 -229.565 0.0015 
121 1 1 -0.392541 -0.0331801 -0.279178 0 0 0 -1.07616 0.412799 -1.20247 0 0 -0.000346714 -331.159 -939.075 -28.2489 0.0015 
91 1 1 -0.385668 0.00530038 -0.277924 0 0 0 -1.2572 0.00155239 -0.985155 0 0 -0.00160516 28.9173 -522.756 -60.0474 0.0025 
115 1 1 -0.377004 0.0130699 -0.276445 0 0 0 -1.05783 0.0237803 -0.931334 0 0 -0.000346714 54.4753 -711.091 -123.131 0.0015 
88 1 1 -0.375747 0.016113 -0.276038 0 0 0 -1.03177 -0.0126335 -0.940441 0 0 -0.000346714 13.715 -756.334 -11.7799 0.0015 
84 1 1 -0.38008 -0.0180801 -0.275931 0 0 0 -1.18881 0.0659689 -0.997172 0 0 -0.000346714 -31.4453 -803.539 80.3585 0.0015 
122 1 1 -0.379636 -0.0186235 -0.272683 0 0 0 -1.23943 0.105005 -0.953691 0 0 -0.000346714 -52.3441 -801.964 76.9716 0.0015 
164 1 1 -0.369519 -0.0188512 -0.273833 0 0 0 -0.89004 -0.162454 -0.871603 0 0 -0.000346714 163.798 49.1603 -85.2408 0.0015 
97 1 1 -0.375211 -0.00382776 -0.273568 0 0 0 -1.19092 -0.00283125 -0.933722 0 0 -0.000346714 15.5574 -830.818 -16.9975 0.0015 
135 1 1 -0.377152 0.00861559 -0.274562 0 0 0 -1.2473 -0.113646 -0.976601 0 0 -0.000346714 124.573 -897.878 -97.7638 0.0015 
117 1 1 -0.375852 -0.0212731 -0.272345 0 0 0 -1.21502 0.0786648 -0.99847 0 0 -0.00160516 -67.7865 -517.688 82.8251 0.0025 
166 1 1 -0.372844 -0.00398754 -0.27051 0 0 0 -1.19907 0.00578169 -0.888102 0 0 -0.000346714 0.512656 -855.694 -8.72509 0.0015 
63 1 1 -0.370115 0.00264219 -0.271346 0 0 0 -1.10933 0.035983 -0.892738 0 0 -0.000346714 9.74113 -799.623 -84.2586 0.0015 
80 1 1 -0.374228 0.0171665 -0.271307 0 0 0 -1.12165 -0.029336 -0.924018 0 0 -0.00160516 25.5936 -489.149 -30.692 0.0025 
149 1 1 -0.373094 -0.0262324 -0.266813 0 0 0 -1.20059 0.0745144 -0.900001 0 0 -0.000346714 -89.3031 -861.97 98.2465 0.0015 
66 1 1 -0.369182 -0.00957267 -0.265108 0 0 0 -1.28537 0.0777282 -0.841933 0 0 -0.00160516 87.1001 -437.028 198.78 0.0025 
103 1 1 -0.369072 -0.00732489 -0.271655 0 0 0 -1.17177 -0.12019 -1.25324 0 0 -0.00160516 -97.0685 -383.117 65.5816 0.0025 
94 1 1 -0.367512 -0.00226987 -0.265075 0 0 0 -1.17995 -0.0823339 -0.686098 0 0 -0.00160516 23.4741 -455.182 -153.871 0.0025 
83 1 1 -0.368077 0.0241707 -0.266373 0 0 0 -1.10116 0.00492353 -0.860428 0 0 -0.000346714 -12.1613 -813.412 18.5196 0.0015 
133 1 1 -0.367044 -0.0400592 -0.262103 0 0 0 -0.88396 -0.0592736 -0.784047 0 0 -0.000346714 -9.68419 -615.26 140.855 0.0015 
74 1 1 -0.370262 -0.0263384 -0.262988 0 0 0 -1.19736 0.266259 -0.894211 0 0 -0.000346714 -179.356 -904.898 -38.5655 0.0015 
106 1 1 -0.368933 -0.0143883 -0.262563 0 0 0 -1.30373 0.0810737 -0.746592 0 0 -0.00160516 -21.3255 -529.621 87.5652 0.0025 
116 1 1 -0.362642 -0.00498968 -0.262851 0 0 0 -1.17487 -0.0751396 -0.810225 0 0 -0.00160516 38.9938 -497.86 4.88896 0.0025 
128 1 1 -0.357005 -0.00522374 -0.259936 0 0 0 -1.10458 -0.0135245 -0.737262 0 0 -0.000346714 45.1345 -755.649 -21.3679 0.0015 
100 1 1 -0.357274 -0.0114238 -0.259593 0 0 0 -1.21133 -0.0835917 -0.769156 0 0 -0.000346714 77.6811 -875.877 -41.6933 0.0015 
203 1 1 -0.352043 -0.00857857 -0.256743 0 0 0 -1.16423 0.0206185 -0.723224 0 0 -0.000346714 -61.5607 -831.537 115.051 0.0015 
185 1 1 -0.35277 0.00263278 -0.258739 0 0 0 -1.17854 -0.118545 -0.788183 0 0 -0.000346714 71.3097 -764.026 38.6786 0.0015 
54 1 1 -0.353351 0.00766168 -0.257491 0 0 0 -1.09805 -0.0500744 -0.743578 0 0 -0.00160516 39.2195 -475.791 -40.5462 0.0025 
62 1 1 -0.357636 0.0113906 -0.26042 0 0 0 -1.22943 -0.0560851 -0.809025 0 0 -0.000346714 58.0721 -895.93 -40.99 0.0015 
112 1 1 -0.348298 -0.0197137 -0.252611 0 0 0 -1.14788 0.157535 -0.702735 0 0 -0.000346714 -200.626 -788.872 222.316 0.0015 
93 1 1 -0.352405 -0.0139318 -0.254499 0 0 0 -1.18885 0.0208314 -0.702759 0 0 -0.00160516 -21.8668 -510.094 36.0523 0.0025 
13 1 1 -0.34894 -0.00717471 -0.253969 0 0 0 -1.14026 -0.0876622 -0.685098 0 0 -0.00160516 57.3599 -496.435 -46.4329 0.0025 
158 1 1 -0.350409 0.00140831 -0.254941 0 0 0 -1.21172 -0.169447 -0.73189 0 0 -0.00160516 -0.14648 -518.024 13.1939 0.0025 
130 1 1 -0.350105 0.00738475 -0.252768 0 0 0 -1.19787 -0.129305 -0.659776 0 0 -0.00160516 64.5069 -519.33 -75.6691 0.0025 
159 1 1 -0.34151 -0.0177201 -0.249349 0 0 0 -1.1079 0.135586 -0.632622 0 0 -0.000346714 -76.0065 -819.383 -55.7588 0.0015 
243 1 1 -0.3434 -0.00531643 -0.25183 0 0 0 -1.20826 0.213882 -0.679687 0 0 -0.000346714 -205.047 -857.591 128.246 0.0015 
110 1 1 -0.336036 -0.00494141 -0.248382 0 0 0 -0.938657 -0.136414 -0.51771 0 0 -0.000346714 17.4258 -542.259 -2.09917 0.0015 
68 1 1 -0.341977 0.00455752 -0.250071 0 0 0 -1.1539 -0.0331372 -0.639414 0 0 -0.00160516 15.0556 -483.325 -36.6526 0.0025 
269 1 1 -0.343311 0.00899156 -0.252017 0 0 0 -1.26465 -0.000171214 -0.715993 0 0 -0.000346714 134.225 -926.731 -186.097 0.0015 
89 1 1 -0.344826 0.0229488 -0.250503 0 0 0 -1.1484 -0.350555 -0.766504 0 0 -0.000346714 300.57 -838.142 -87.59 0.0015 
179 1 1 -0.352266 -0.0398408 -0.248217 0 0 0 -1.07154 0.538975 -0.962997 0 0 -0.000346714 -521.433 -757.262 213.055 0.0015 
233 1 1 -0.339024 -0.0200869 -0.245966 0 0 0 -1.23275 0.162672 -0.627626 0 0 -0.00160516 -106.862 -519.008 92.7229 0.0025 
187 1 1 -0.327088 0.0117378 -0.242917 0 0 0 -1.01805 -0.0911627 -0.343563 0 0 -0.000346714 -13.4249 -512.621 117.498 0.0015 
190 1 1 -0.338121 0.0178986 -0.247803 0 0 0 -1.13495 0.0081687 -0.607657 0 0 -0.000346714 -12.7155 -837.309 14.3686 0.0015 
196 1 1 -0.341519 0.0235971 -0.247195 0 0 0 -1.21401 -0.0146728 -0.657944 0 0 -0.00160516 17.0199 -530.87 -25.7927 0.0025 
256 1 1 -0.339541 -0.0316619 -0.244852 0 0 0 -1.29264 0.264572 -0.77178 0 0 -0.000346714 -199.626 -988.315 9.896 0.0015 
65 1 1 -0.323751 -0.00564347 -0.241204 0 0 0 -1.02736 -0.0275412 -0.427632 0 0 -0.00160516 36.4644 -448.4 -58.5931 0.0025 
131 1 1 -0.319434 -0.00172882 -0.239695 0 0 0 -1.02322 0.0146738 -0.442822 -0.00866715 0.00114282 -0.0105124 -21.6233 -434.37 38.7411 0.0025 
163 1 1 -0.320909 0.0016786 -0.241355 0 0 0 -1.00621 0.0243329 -0.422711 -9.25296e-05 -1.40544e-05 -2.54059e-05 -5.79474 -727.859 -28.0906 0.0015 
95 1 1 -0.318334 0.00274547 -0.240201 0 0 0 -1.0091 0.0465558 -0.42342 -3.00016e-05 -5.09225e-06 -0.000146529 -80.1268 -738.618 110.109 0.0015 
169 1 1 -0.327889 0.00445097 -0.243181 0 0 0 -1.04837 0.0460929 -0.492569 0 0 -0.00160516 -39.8266 -459.556 45.0987 0.0025 
151 1 1 -0.320698 0.00465867 -0.241037 0 0 0 -1.09795 -0.0606264 -0.441837 0 0 -0.000346714 -57.7133 -750.386 -83.6436 0.0015 
148 1 1 -0.323333 0.0112806 -0.241636 0 0 0 -0.984124 0.178056 -0.399299 0 0 -0.000346714 -149.711 -702.913 43.181 0.0015 
136 1 1 -0.320088 0.00759808 -0.24033 0 0 0 -1.0506 -0.0410702 -0.306266 0 0 -0.000346714 -18.4602 -729.004 -118.572 0.0015 
172 1 1 -0.319655 0.013697 -0.239821 0 0 0 -0.764985 0.0184259 -0.304138 0 0 -0.000346714 -36.3449 -204.036 -265.701 0.0015 
199 1 1 -0.328741 0.0144464 -0.244415 0 0 0 -1.08435 -0.061576 -0.688088 0 0 -0.000346714 403.501 -676.786 42.8433 0.0015 
67 1 1 -0.324724 0.0164912 -0.240469 0 0 0 -1.06999 -0.182503 -0.501405 0 0 -0.00160516 73.8984 -475.23 14.7248 0.0025 
173 1 1 -0.326792 0.0199134 -0.241812 0 0 0 -1.09745 -0.254056 -0.544026 0 0 -0.000346714 236.168 -784.017 -116.805 0.0015 
150 1 1 -0.318095 -0.0254732 -0.236839 0 0 0 -1.13872 -0.0397864 -0.486423 0 0 -0.000346714 -79.6459 -756.823 289.395 0.0015 
90 1 1 -0.314868 -0.0022372 -0.237748 0 0 0 -1.10296 0.0180005 -0.455764 0.0134665 -0.00172797 0.0128613 6.23135 -472.185 -31.3769 0.0025 
92 1 1 -0.324185 0.0124366 -0.232037 0 0 0 -1.09837 -0.0974242 0.0367359 0 0 -0.00160516 13.3064 -107.421 -112.37 0.0025 
161 1 1 -0.316765 0.0144396 -0.237345 0 0 0 -0.712641 -0.0552957 -0.152898 0 0 -0.000346714 -59.8555 -428.326 48.3612 0.0015 
289 1 1 -0.321947 0.0245174 -0.237791 0 0 0 -1.01351 -0.0734463 -0.611932 0 0 -0.000346714 -9.09044 -543.624 102.941 0.0015 
204 1 1 -0.32826 0.0371812 -0.237294 0 0 0 -0.99054 -0.185185 -0.497045 0 0 -0.000346714 209.691 -691.083 -169.486 0.0015 
177 1 1 -0.30721 -0.0184981 -0.233958 0 0 0 -1.10882 0.107268 -0.523621 0 0 -0.000346714 -40.1857 -832.004 -93.9323 0.0015 
153 1 1 -0.303112 -0.00202862 -0.233878 0 0 0 -0.960511 -0.0346642 -0.404273 -8.95836e-05 7.3868e-06 -3.55451e-05 -42.5134 -690.21 160.188 0.0015 
175 1 1 -0.308369 0.012178 -0.235409 0 0 0 -1.08998 -0.1269 -0.46811 -8.84008e-05 -1.32834e-05 -3.81376e-05 64.9906 -794.552 64.0676 0.0015 
184 1 1 -0.313718 0.0245054 -0.23539 0 0 0 -1.25461 -0.247486 -0.571943 -9.00422e-05 -4.20495e-05 -3.15354e-05 205.305 -910.389 -56.413 0.0015 
143 1 1 -0.310085 -0.021601 -0.233454 0 0 0 -1.15779 0.185856 -0.577386 0 0 -0.00160516 -132.855 -481.403 126.664 0.0025 
157 1 1 -0.298039 -0.0198324 -0.228756 0 0 0 -0.85866 -0.0314238 -0.334167 6.93065e-05 2.66993e-05 -0.000385027 60.095 -228.015 29.7184 0.0025 
15 1 1 -0.298548 -0.0144327 -0.229936 0 0 0 -0.836347 0.0213132 -0.35371 -0.00040498 0.000105578 -0.000182097 -37.665 -357.583 67.5125 0.0025 
197 1 1 -0.297491 -0.00741085 -0.231319 0 0 0 -0.738148 -0.0108562 -0.310917 2.11732e-05 3.4101e-05 9.17068e-08 -22.1502 -282.376 -30.4427 0.0015 
101 1 1 -0.294755 -0.0075856 -0.229195 0 0 0 -0.739812 0.0157846 -0.31004 0 0 -0.000346714 -32.2479 -419.431 117.725 0.0015 
167 1 1 -0.299964 -0.00335431 -0.231419 0 0 0 -0.920236 -0.00977644 -0.388677 -0.000266867 2.26013e-05 -0.000476264 5.72936 -400.146 -3.51417 0.0025 
213 1 1 -0.293485 -0.000953045 -0.229853 0 0 0 -0.892474 -0.040244 -0.375396 2.24628e-05 2.52963e-05 8.55965e-06 -28.4868 -158.505 16.2545 0.0015 
73 1 1 -0.29062 7.87951e-05 -0.228679 0 0 0 -0.891741 -0.00352565 -0.376344 -8.70517e-05 7.0143e-06 -3.6453e-05 -5.13094 -645.32 18.2066 0.0015 
123 1 1 -0.293819 0.003974 -0.229791 0 0 0 -0.987884 0.0326519 -0.414259 -8.74674e-05 -1.31369e-05 -4.03454e-05 -3.65331 -713.265 -47.508 0.0015 
210 1 1 -0.304746 0.0170617 -0.231996 0 0 0 -1.0722 0.00873723 -0.445531 -0.00039032 -0.000181486 -0.000213781 29.04 -457.129 -78.8532 0.0025 
194 1 1 -0.32369 -0.044965 -0.230433 0 0 0 -1.08125 0.455809 -0.694729 -0.00467213 0.00853808 0.0382563 -297.101 -420.635 192.921 0.0025 
198 1 1 -0.310746 -0.040928 -0.228504 0 0 0 -1.11356 0.064338 -0.487884 0 0 -0.000346714 -35.6169 -842.849 -20.5028 0.0015 
221 1 1 -0.295993 -0.0267192 -0.226467 0 0 0 -1.04507 -0.0617532 -0.435224 -0.00353397 0.000348605 0.00921831 2.24053 -450.089 61.5828 0.0025 
193 1 1 -0.293413 -0.0212336 -0.226622 0 0 0 -0.854645 -0.0541129 -0.348686 7.47361e-05 4.04598e-05 -1.5065e-05 -2.44451 -361.98 64.5514 0.0025 
205 1 1 -0.292079 -0.0176061 -0.227846 0 0 0 -0.949476 -0.00706933 -0.39521 -7.09856e-05 3.09154e-05 -7.7198e-05 51.8702 -717.598 -111.85 0.0015 
183 1 1 -0.288414 -0.0159486 -0.225512 0 0 0 -0.967633 0.0638869 -0.413556 -0.000403042 0.00010432 -0.000186221 -27.645 -422.31 -0.556382 0.0025 
127 1 1 -0.290237 -0.0100675 -0.228007 0 0 0 -0.799159 0.0503167 -0.341712 -8.71965e-05 2.25615e-05 -3.99951e-05 -29.4697 -583.052 -16.9362 0.0015 
182 1 1 -0.286726 -0.0109834 -0.225343 0 0 0 -0.797223 -0.0517609 -0.329357 0.000106743 0.000254052 1.76466e-06 -32.6985 -207.809 80.8616 0.0025 
59 1 1 -0.285003 -0.00724927 -0.226043 0 0 0 -0.977812 0.0590157 -0.340667 0 0 -0.000346714 -11.8298 -230.585 11.6487 0.0015 
191 1 1 -0.2873 -0.00466819 -0.227114 0 0 0 -0.909688 -0.089975 -0.381689 3.76785e-06 -5.35672e-05 -6.01307e-05 69.9971 -530.446 160.1 0.0015 
189 1 1 -0.288258 -0.00168448 -0.227621 0 0 0 -0.928833 -0.0534126 -0.390438 -9.02726e-05 7.30398e-06 -3.14275e-05 58.9561 -674.5 -48.0126 0.0015 
208 1 1 -0.292374 0.0140309 -0.227425 0 0 0 -0.968973 0.0470335 -0.394205 -0.000176211 -8.19663e-05 -0.000707278 -10.3525 -421.776 -25.0251 0.0025 
192 1 1 -0.294773 0.0182367 -0.228706 0 0 0 -1.1544 -0.0973801 -0.498793 -5.99104e-05 -2.50885e-05 -0.000123845 123.525 -822.749 -125.314 0.0015 
212 1 1 -0.297954 0.0339135 -0.226115 0 0 0 -1.15404 -0.016057 -0.511547 0.00025437 0.000252543 0.0015791 107.03 -792.496 -233.153 0.0015 
214 1 1 -0.301508 -0.0403423 -0.225036 0 0 0 -1.15091 0.0755959 -0.519635 0 0 -0.000346714 -50.5797 -889.887 -3.50075 0.0015 
206 1 1 -0.281918 -0.00771568 -0.223525 0 0 0 -0.961569 0.0188641 -0.266488 0 0 -0.00160516 -5.26823 -356.912 10.0876 0.0025 
132 1 1 -0.284878 -0.00334052 -0.223849 0 0 0 -0.990607 0.117546 -0.350401 0 0 -0.00160516 -69.3199 -211.951 -67.842 0.0025 
144 1 1 -0.279917 -0.00255634 -0.222865 0 0 0 -0.939075 0.0571854 -0.422716 0 0 -0.00160516 -50.0793 -378.985 51.7378 0.0025 
119 1 1 -0.283628 0.00562897 -0.224303 0 0 0 -1.03797 -0.0223093 -0.437971 -3.04757e-05 7.13219e-05 0.000117652 13.4423 -451.24 -7.79081 0.0025 
9 1 1 -0.281635 0.00980601 -0.224319 0 0 0 -0.951151 -0.147504 -0.336803 -0.00242802 -0.00387107 -0.000289708 -25.581 -571.135 -57.3012 0.0015 
178 1 1 -0.279049 0.00870004 -0.222869 0 0 0 -0.929435 -0.115082 -0.365788 0 0 -0.000346714 61.3372 -568.618 -95.6197 0.0015 
224 1 1 -0.285102 0.0242396 -0.223618 0 0 0 -1.13672 -0.0325022 -0.49648 -0.000222948 -7.12972e-05 0.0018921 42.0627 -824.249 -43.8149 0.0015 
219 1 1 -0.27961 -0.0193773 -0.221211 0 0 0 -1.20104 0.131698 -0.527555 -0.000444693 0.000209329 -4.75845e-06 -99.2519 -510.467 98.5872 0.0025 
211 1 1 -0.271895 -0.0167209 -0.219533 0 0 0 -0.788276 0.0718617 -0.282454 0.00274575 -0.000921035 0.0031715 -132.422 -499.878 236.619 0.0015 
225 1 1 -0.274441 -0.0157446 -0.220749 0 0 0 -0.783641 0.032486 -0.387773 0.00312837 -0.00160272 0.00146507 37.1036 -470.112 -38.3388 0.0015 
181 1 1 -0.275391 -0.0117106 -0.220501 0 0 0 -0.984101 0.0566497 -0.416934 -3.31874e-05 -0.000301302 0.000119808 -52.8118 -418.181 72.7107 0.0025 
126 1 1 -0.272859 -0.00493714 -0.221019 0 0 0 -0.807934 -0.0035143 -0.338756 -2.12613e-05 6.24301e-05 -0.000213173 9.37962 -565.439 -122.547 0.0015 
155 1 1 -0.275157 -0.000401019 -0.221051 0 0 0 -1.02817 0.0207068 -0.439162 5.2582e-05 -1.54547e-06 0.000303917 -6.20351 -446.815 -6.68143 0.0025 
180 1 1 -0.27054 -7.35624e-05 -0.219126 0 0 0 -1.03029 -0.017717 -0.434064 -0.000867246 7.49551e-05 0.000130057 27.6129 -449.876 -47.5564 0.0025 
244 1 1 -0.280015 0.0128511 -0.222342 0 0 0 -1.10707 0.0209347 -0.377377 0.001363 0.00710185 0.00808189 9.74357 -453.102 -72.589 0.0025 
228 1 1 -0.269437 0.0139522 -0.218829 0 0 0 -0.987804 0.0570254 -0.408344 -8.63093e-05 -3.22741e-05 -4.3297e-05 35.6397 -693.873 -183.114 0.0015 
276 1 1 -0.273856 0.0165117 -0.220233 0 0 0 -0.944436 -0.0815893 -0.399166 -8.76738e-05 -3.4979e-05 -3.15718e-05 25.061 -701.824 84.2026 0.0015 
259 1 1 -0.269648 -0.0261123 -0.215766 0 0 0 -1.10097 0.011254 -0.461791 -0.000239224 8.15288e-05 -0.00067921 -29.2229 -473.855 58.3105 0.0025 
218 1 1 -0.271267 -0.021019 -0.218532 0 0 0 -1.07269 0.0829106 -0.466198 -8.62107e-05 4.03159e-05 -3.76285e-05 -81.0137 -778.955 47.8386 0.0015 
145 1 1 -0.268762 -0.0151321 -0.217331 0 0 0 -1.07382 0.0704466 -0.463982 -0.000489068 0.000129395 0.00014038 -19.1376 -472.756 -27.7715 0.0025 
168 1 1 -0.268514 -0.00638886 -0.218041 0 0 0 -0.898656 -0.0500218 -0.379127 -0.000505534 4.67195e-05 2.79803e-05 18.9955 -390.799 6.52484 0.0025 
247 1 1 -0.260102 -0.0047891 -0.214558 0 0 0 -0.77019 0.0378492 -0.328356 7.01883e-05 -0.000160726 5.06487e-05 33.5554 -171.021 13.1245 0.0025 
216 1 1 -0.261769 -0.000433545 -0.216505 0 0 0 -0.949859 -0.0523804 -0.406382 -8.93987e-05 -9.88341e-06 -3.59262e-05 43.9712 -688.46 -14.0374 0.0015 
202 1 1 -0.264023 0.00451491 -0.21723 0 0 0 -0.880863 -0.0381206 -0.371433 -0.000165453 -3.22448e-05 0.000174943 -19.3563 -643.4 113.364 0.0015 
217 1 1 -0.262584 0.0158751 -0.215633 0 0 0 -0.894619 0.213255 -0.338296 -9.36537e-05 -3.44872e-05 -2.54404e-05 -132.855 -644.182 -54.7748 0.0015 
262 1 1 -0.273509 0.0215079 -0.218613 0 0 0 -1.04225 0.10899 -0.479491 0 0 -0.000346714 -89.9524 -659.185 -48.527 0.0015 
287 1 1 -0.267788 0.0320616 -0.21435 0 0 0 -0.904406 0.151044 -0.320148 -0.000116288 -8.26683e-05 3.9395e-05 -61.356 -636.131 -126.588 0.0015 
188 1 1 -0.266762 -0.0302436 -0.214468 0 0 0 -1.07057 0.0268231 -0.416556 0 0 -0.000346714 -2.73617 -802.525 -35.0761 0.0015 
232 1 1 -0.260091 -0.0109717 -0.214175 0 0 0 -0.94004 -0.0817286 -0.382317 -0.00179548 0.000507237 0.00245444 34.1489 -411.395 2.80317 0.0025 
274 1 1 -0.253652 0.000538845 -0.211931 0 0 0 -0.965374 -0.0153217 -0.411159 0.000100793 -3.59507e-05 3.69523e-05 -30.8292 -42.334 61.2658 0.0025 
201 1 1 -0.255772 0.00566457 -0.213687 0 0 0 -0.751947 0.0384377 -0.312932 -8.61152e-05 -9.00798e-06 -4.29267e-05 -58.5477 -547.375 73.4176 0.0015 
268 1 1 -0.256917 0.00953043 -0.213995 0 0 0 -0.905917 -0.0589407 -0.381803 -6.54771e-05 -6.89127e-06 -8.74503e-05 73.6035 -652.258 -73.959 0.0015 
239 1 1 -0.25785 0.0141601 -0.213913 0 0 0 -0.810178 0.0523874 -0.334553 2.32807e-05 -6.74469e-05 -8.45485e-07 39.2246 -389.259 -111.846 0.0015 
272 1 1 -0.270398 0.0198114 -0.216004 0 0 0 -1.23174 0.374955 -0.840452 0 0 -0.00160516 -188.588 152.755 -148.514 0.0025 
215 1 1 -0.253333 0.0152381 -0.211838 0 0 0 -1.01185 -0.097328 -0.441664 6.98923e-06 3.03893e-06 -0.000352957 111.83 -724.308 -96.743 0.0015 
305 1 1 -0.263509 0.0304609 -0.213048 0 0 0 -1.13414 0.114059 -0.437996 -0.00010075 -5.3039e-05 -8.71377e-05 -66.8158 -832.576 -44.9013 0.0015 
293 1 1 -0.273257 0.0394177 -0.214213 0 0 0 -1.18297 -0.0259469 -0.488778 -0.000221069 -0.000155546 -0.000107372 20.074 -918.406 -4.01646 0.0015 
200 1 1 -0.294505 -0.0556918 -0.214067 0 0 0 -1.01999 0.6254 -0.764494 0 0 -0.000346714 -609.717 -650.833 290.828 0.0015 
109 1 1 -0.247291 -0.00779527 -0.210089 0 0 0 -0.901712 0.0453027 -0.3854 -0.00013884 1.72038e-05 8.21907e-05 -66.0861 -650.53 78.2605 0.0015 
147 1 1 -0.249751 -0.00607516 -0.211217 0 0 0 -0.966664 -0.0029822 -0.40965 -9.24096e-05 1.07414e-05 -3.057e-05 14.7682 -702.531 -29.7313 0.0015 
266 1 1 -0.243195 -0.00685504 -0.208411 0 0 0 -0.882325 0.0189358 -0.373198 -4.70467e-05 5.93905e-06 -7.13282e-05 -92.0153 -629.99 186.558 0.0015 
223 1 1 -0.242265 -0.00399823 -0.208161 0 0 0 -0.888421 0.0197976 -0.37419 -7.3194e-05 8.77154e-06 -6.15548e-05 31.3692 -648.687 -109 0.0015 
124 1 1 -0.247225 -0.00197073 -0.210344 0 0 0 -0.906387 0.034911 -0.380025 -7.60758e-05 7.8503e-06 -9.46986e-05 -24.6779 -655.842 -1.299 0.0015 
118 1 1 -0.244146 -0.000258109 -0.207927 0 0 0 -0.952665 0.0103504 -0.404977 -0.000405036 -3.45247e-05 -0.000192169 -11.2243 -415.229 15.793 0.0025 
249 1 1 -0.24871 0.0044915 -0.210746 0 0 0 -1.00998 -0.0160614 -0.427814 0 0 -0.000346714 18.7736 -729.903 -17.1794 0.0015 
281 1 1 -0.24472 0.0125861 -0.208557 0 0 0 -0.894849 -0.0654078 -0.388421 0 0 -0.000346714 48.4774 -577.997 58.0898 0.0015 
369 1 1 -0.244777 0.0188418 -0.207714 0 0 0 -0.852865 -0.0826028 -0.367667 0.000409133 0.000405591 -0.00150019 143.465 -592.769 -197.428 0.0015 
296 1 1 -0.257102 0.0231986 -0.211053 0 0 0 -0.980062 0.16963 -0.389019 0 0 -0.00160516 -31.628 -406.879 -107.882 0.0025 
253 1 1 -0.262961 0.0363475 -0.211205 0 0 0 -0.96172 -0.011062 -0.395382 -8.14733e-05 -5.40941e-05 -4.78607e-05 109.751 -646.864 -248.858 0.0015 
195 1 1 -0.2439 -0.0112202 -0.207335 0 0 0 -0.909636 -0.0042505 -0.400805 -0.000388172 6.67841e-05 -0.000259914 -28.8726 -393.601 69.7087 0.0025 
282 1 1 -0.234578 -0.00710211 -0.20465 0 0 0 -0.73357 -0.0821142 -0.298054 -8.72003e-05 1.62916e-05 -3.74496e-05 59.0749 -531.049 0.909493 0.0015 
251 1 1 -0.236598 -0.00263966 -0.205844 0 0 0 -0.91809 0.00924719 -0.395864 0 0 -0.000346714 -9.01909 -665.182 6.22952 0.0015 
235 1 1 -0.239605 0.00445657 -0.206909 0 0 0 -0.930103 0.0263859 -0.396671 -0.000131213 -1.29848e-05 9.83769e-05 -77.2266 -680.243 136.717 0.0015 
279 1 1 -0.233606 0.00470257 -0.204391 0 0 0 -0.779159 -0.0689867 -0.326867 -7.78254e-05 -6.11097e-06 -6.08288e-05 95.2679 -559.675 -108.942 0.0015 
160 1 1 -0.242058 0.011566 -0.207301 0 0 0 -0.884751 -0.0629155 -0.321942 0 0 -0.000346714 79.7874 -563.599 -33.3354 0.0015 
154 1 1 -0.241183 0.0147811 -0.206805 0 0 0 -0.865272 -0.0170435 -0.361119 -0.000127803 -4.53713e-05 6.56933e-05 62.0258 -613.29 -119.707 0.0015 
156 1 1 -0.247029 0.027339 -0.205974 0 0 0 -1.03198 0.0405679 -0.40468 -0.000596746 -0.000378882 0.000225403 12.4846 -438.633 -76.0228 0.0025 
245 1 1 -0.249765 0.0355183 -0.20493 0 0 0 -0.984576 -0.0898676 -0.423574 -0.000380943 -0.000246607 -0.000210757 38.8544 -438.58 2.72885 0.0025 
226 1 1 -0.234848 -0.0239933 -0.202609 0 0 0 -0.803381 -0.0415036 -0.327333 0 0 -0.000346714 37.1344 -592.851 -13.3111 0.0015 
295 1 1 -0.232186 -0.0239332 -0.200872 0 0 0 -0.814443 -0.074876 -0.346696 0 0 -0.000346714 8.50834 -493.673 103.286 0.0015 
207 1 1 -0.234412 -0.0168925 -0.202736 0 0 0 -0.717651 -0.00704914 -0.306581 -0.000411776 8.69791e-05 -0.000184161 -35.2187 -305.475 89.4642 0.0025 
278 1 1 -0.229944 -0.0135088 -0.202218 0 0 0 -0.770495 -0.00455648 -0.329428 -8.89769e-05 1.87942e-05 -3.97399e-05 -44.3067 -550.912 111.248 0.0015 
271 1 1 -0.231338 0.00739416 -0.202274 0 0 0 -0.848632 -0.0226018 -0.354912 4.24223e-05 -2.00034e-05 -0.000991626 17.7725 -296.857 -16.8404 0.0025 
86 1 1 -0.226982 0.0117334 -0.201217 0 0 0 -0.93639 -0.29503 -0.421721 -3.77634e-05 -6.27934e-06 -0.000198721 246.051 -669.886 -76.9407 0.0015 
311 1 1 -0.239244 0.0208037 -0.204085 0 0 0 -1.00925 0.221402 -0.384401 -0.0123105 -0.00442881 0.0273536 -72.9473 -448.095 -49.2731 0.0025 
315 1 1 -0.25518 0.0483225 -0.202689 0 0 0 -1.06967 0.175783 -0.524302 0 0 -0.000346714 -76.2062 -670.753 -256.741 0.0015 
250 1 1 -0.23369 -0.0302189 -0.200845 0 0 0 -0.981686 -0.0720667 -0.412472 0 0 -0.000346714 26.0501 -700.144 75.8627 0.0015 
306 1 1 -0.22911 -0.0259258 -0.199868 0 0 0 -0.827724 -0.00775496 -0.33832 -8.77612e-05 4.59586e-05 -1.27455e-05 -38.2449 -585.547 106.949 0.0015 
176 1 1 -0.225824 -0.0188428 -0.199962 0 0 0 -0.95285 -0.0374493 -0.375373 -0.000536931 0.000218447 0.000569537 19.3105 -695.958 20.8263 0.0015 
242 1 1 -0.220383 -0.0129754 -0.198182 0 0 0 -0.841946 -0.0270036 -0.34645 -8.69505e-05 1.91309e-05 -3.78391e-05 -25.5246 -600.135 108.806 0.0015 
170 1 1 -0.224165 -0.0025585 -0.199475 0 0 0 -0.819059 0.0404029 -0.354428 -0.000491922 -3.22173e-05 0.000645305 -33.8039 -358.713 38.027 0.0025 