ITEM: TIMESTEP
43000
ITEM: NUMBER OF ATOMS
551
ITEM: BOX BOUNDS ff ff ff
-0.5 0.1
-0.2 0.2
-0.4 0.15
ITEM: ATOMS id type type x y z ix iy iz vx vy vz fx fy fz omegax omegay omegaz radius 
85 1 1 -0.394903 -0.028979 -0.285598 0 0 0 -1.13812 0.392769 -1.2531 0 0 -0.000346714 -590.532 -294.61 698.542 0.0015 
47 1 1 -0.365992 0.00667234 -0.2642 0 0 0 -1.51283 -0.159914 -0.933491 0 0 -0.000346714 98.6681 -1100.17 40.6157 0.0015 
30 1 1 -0.349992 -0.0135979 -0.253403 0 0 0 -1.38706 0.0524024 -0.778359 0 0 -0.00160516 -39.2856 -605.929 42.5201 0.0025 
11 1 1 -0.339399 -0.00913786 -0.248891 0 0 0 -1.3897 0.119676 -0.671831 0 0 -0.000346714 -132.585 -988.781 116.991 0.0015 
38 1 1 -0.408094 0.0580694 -0.254879 0 0 0 -1.28232 -0.252842 -1.15055 0 0 -0.000346714 353.317 -1209.87 -459.629 0.0015 
36 1 1 -0.337651 -0.0128521 -0.248928 0 0 0 -1.32658 0.106776 -0.741926 0 0 -0.000346714 -96.2795 -964.526 43.0852 0.0015 
31 1 1 -0.346143 0.0297472 -0.248308 0 0 0 -1.40414 -0.00459657 -0.728496 0 0 -0.000346714 89.1678 -989.387 -210.392 0.0015 
2 1 1 -0.329581 0.00868698 -0.243642 0 0 0 -1.28962 0.020121 -0.59864 0 0 -0.00160516 -12.7174 -562.33 8.67378 0.0025 
4 1 1 -0.318346 -0.00907968 -0.238788 0 0 0 -1.29112 0.0339736 -0.571762 0 0 -0.00160516 -8.10584 -562.433 -15.7511 0.0025 
21 1 1 -0.304233 -0.00699347 -0.234177 0 0 0 -1.17879 -0.00388377 -0.496864 -8.84916e-05 7.43551e-06 -3.84216e-05 54.4337 -858.108 -122.423 0.0015 
18 1 1 -0.313159 0.0165948 -0.236695 0 0 0 -1.18654 0.00603548 -0.494136 -8.70074e-05 -4.04916e-05 -4.0059e-05 -43.2197 -889.418 92.9029 0.0015 
17 1 1 -0.31809 0.0270728 -0.23658 0 0 0 -1.2446 0.023627 -0.497979 -7.84154e-05 -6.62359e-05 -5.45189e-05 54.7841 -879.058 -178.628 0.0015 
5 1 1 -0.309739 0.0269996 -0.233209 0 0 0 -1.1588 0.00719645 -0.469232 -0.00011865 -0.000105092 4.32581e-05 19.6712 -855.164 -61.1744 0.0015 
12 1 1 -0.319914 0.0331044 -0.235252 0 0 0 -1.33024 -0.0260526 -0.550892 -0.000135419 -0.000118425 0.000106403 122.156 -919.121 -251.44 0.0015 
20 1 1 -0.298989 0.0147154 -0.231148 0 0 0 -1.18614 0.0534785 -0.483981 -8.51955e-05 -3.97895e-05 -4.32046e-05 -27.4577 -865.362 -28.3266 0.0015 
24 1 1 -0.306027 0.0268349 -0.231726 0 0 0 -1.251 0.0414449 -0.514086 -8.12172e-05 -3.77388e-05 -5.3431e-05 3.36445 -902.899 -80.9909 0.0015 
8 1 1 -0.292693 0.00231583 -0.229421 0 0 0 -1.20286 -0.0228618 -0.508349 -8.89817e-05 -1.33424e-05 -3.76994e-05 69.347 -864.211 -125.215 0.0015 
22 1 1 -0.289897 0.000112029 -0.228375 0 0 0 -1.19456 -0.0186114 -0.503642 -8.89858e-05 7.18125e-06 -3.72401e-05 5.42392 -864.654 19.0879 0.0015 
6 1 1 -0.293781 0.00641667 -0.22962 0 0 0 -1.19431 -0.0013675 -0.503023 -8.70004e-05 -1.34406e-05 -4.74532e-05 -39.3801 -871.942 95.7581 0.0015 
71 1 1 -0.288732 0.00895701 -0.227326 0 0 0 -1.149 0.0356615 -0.483265 -9.34998e-05 -1.44708e-05 -2.02127e-05 -28.0938 -833.826 5.31061 0.0015 
32 1 1 -0.290215 0.0123278 -0.227736 0 0 0 -1.18159 0.0382944 -0.496644 -9.49109e-05 -1.45322e-05 -2.18927e-05 -13.7093 -854.946 -33.2966 0.0015 
26 1 1 -0.305794 0.03458 -0.227895 0 0 0 -1.30123 0.068037 -0.490016 -0.000724129 -0.000575754 0.000168014 -43.1963 -597.062 31.088 0.0025 
14 1 1 -0.28453 -0.0199297 -0.223162 0 0 0 -1.18078 -0.0772282 -0.478383 -0.000441249 0.0001929 -4.09831e-05 27.2832 -516.824 16.0622 0.0025 
23 1 1 -0.286214 -0.0147743 -0.225803 0 0 0 -1.14997 0.0166802 -0.485033 -8.75123e-05 2.26477e-05 -3.93039e-05 -26.7564 -832.4 34.811 0.0015 
35 1 1 -0.284149 -0.0126911 -0.225162 0 0 0 -1.1478 0.0145535 -0.483969 -8.79331e-05 2.28709e-05 -3.67416e-05 -51.363 -824.073 97.036 0.0015 
57 1 1 -0.281567 0.00635413 -0.22447 0 0 0 -1.18162 0.124015 -0.492195 1.99278e-05 6.25216e-06 -0.000283457 -109.717 -858.581 46.5577 0.0015 
16 1 1 -0.286391 0.0149393 -0.224755 0 0 0 -1.26868 -0.0715295 -0.555551 -0.000365597 -0.000153059 -0.000290746 72.223 -542.726 -95.0577 0.0025 
75 1 1 -0.282035 0.0185761 -0.223326 0 0 0 -1.24955 -0.101773 -0.568537 0 0 -0.000346714 53.9664 -920.233 46.9995 0.0015 
37 1 1 -0.291787 0.028711 -0.225234 0 0 0 -1.22336 0.0333671 -0.521492 0.000479897 -4.69004e-05 0.00125226 -9.90108 -906.866 -35.8195 0.0015 
3 1 1 -0.297014 0.0311289 -0.225497 0 0 0 -1.26491 -0.047353 -0.571857 0 0 -0.00160516 54.3794 -540.834 -83.7973 0.0025 
72 1 1 -0.348892 -0.0655984 -0.222396 0 0 0 -1.3828 0.142112 -0.665324 0 0 -0.000346714 -248.697 -830.908 528.372 0.0015 
10 1 1 -0.272497 -0.00544743 -0.220851 0 0 0 -1.00071 -0.030323 -0.42284 5.46847e-05 -5.05513e-05 -0.000523855 -11.188 -722.229 78.2038 0.0015 
76 1 1 -0.269006 0.00066962 -0.219525 0 0 0 -1.11397 0.0993977 -0.466074 -8.10251e-05 -7.00814e-06 -0.000110591 -77.4121 -808.37 12.2253 0.0015 
48 1 1 -0.299889 0.0479002 -0.220903 0 0 0 -1.19599 -0.0326124 -0.47756 4.48854e-05 5.42695e-05 0.000320268 105.298 -833.746 -210.467 0.0015 
51 1 1 -0.296785 0.0486974 -0.219347 0 0 0 -1.17096 -0.0126098 -0.453623 -0.000790949 -0.00106097 0.00202267 82.5509 -832.729 -182.153 0.0015 
79 1 1 -0.290477 -0.0394221 -0.219894 0 0 0 -1.30874 0.240686 -0.662158 0 0 -0.00160516 -145.125 -555.928 98.8846 0.0025 
138 1 1 -0.279713 -0.0276616 -0.220583 0 0 0 -1.41542 0.210255 -0.633236 0 0 -0.000346714 -217.497 -1007.71 153.772 0.0015 
113 1 1 -0.262782 -0.00455388 -0.216778 0 0 0 -1.13884 0.171721 -0.485449 -5.45081e-05 5.49667e-06 -9.53501e-05 -196.326 -817.718 171.654 0.0015 
42 1 1 -0.268867 0.0103818 -0.217884 0 0 0 -1.22049 -0.197617 -0.520792 -0.000448453 -5.26415e-05 -6.81229e-05 103.402 -528.169 -41.9299 0.0025 
52 1 1 -0.26401 -0.0162591 -0.215201 0 0 0 -1.08758 0.056314 -0.465786 -2.86139e-05 4.57857e-06 -0.00105434 -48.3416 -468.312 56.3195 0.0025 
50 1 1 -0.25662 -0.00888332 -0.213984 0 0 0 -1.07965 0.057827 -0.459425 2.2463e-05 -2.58496e-06 -0.000361687 -9.61588 -785.321 -75.8833 0.0015 
28 1 1 -0.257959 0.000777834 -0.213737 0 0 0 -1.1334 0.149932 -0.47551 0 0 -0.00160516 -86.2816 -494.139 49.6753 0.0025 
56 1 1 -0.258996 0.00545665 -0.215046 0 0 0 -1.12559 -0.0384248 -0.478046 0 0 -0.000346714 5.69892 -816.736 52.4633 0.0015 
96 1 1 -0.255806 0.00809031 -0.213594 0 0 0 -1.11146 -0.0258446 -0.46619 -8.40022e-05 -8.79455e-06 -4.90293e-05 136.068 -791.936 -280.427 0.0015 
49 1 1 -0.257058 0.0129036 -0.21377 0 0 0 -1.10533 -0.0286168 -0.471539 -8.53372e-05 -3.04833e-05 -4.8029e-05 70.3955 -790.429 -117.041 0.0015 
55 1 1 -0.260673 0.0259849 -0.211976 0 0 0 -1.1594 0.0563905 -0.471512 0 0 -0.00160516 -26.7205 -516.955 2.23077 0.0025 
41 1 1 -0.256851 -0.0209983 -0.211363 0 0 0 -1.05091 0.074089 -0.422813 0 0 -0.00160516 -59.636 -442.753 72.7527 0.0025 
25 1 1 -0.244944 0.000230201 -0.209333 0 0 0 -1.08064 0.0739302 -0.454492 -0.000289856 -1.19548e-05 0.000451856 -99.9803 -787.397 111.112 0.0015 
46 1 1 -0.25204 0.0224502 -0.210226 0 0 0 -1.11891 0.016183 -0.46228 -7.66057e-05 -2.73226e-05 -6.28792e-05 13.3438 -806.676 -60.5513 0.0015 
78 1 1 -0.256966 0.0329247 -0.208575 0 0 0 -1.17388 -0.00839999 -0.479074 -0.000374392 -0.000252239 -0.000283437 22.1451 -510.617 -45.6482 0.0025 
107 1 1 -0.246254 -0.0215253 -0.20678 0 0 0 -1.19508 0.0711107 -0.493858 0 0 -0.00160516 -28.5671 -517.514 -3.25147 0.0025 
60 1 1 -0.243296 -0.0110809 -0.208173 0 0 0 -1.09385 -0.0127673 -0.481596 -0.00017079 2.97621e-05 0.000113408 35.0973 -804.219 -58.5424 0.0015 
39 1 1 -0.240088 -0.00845602 -0.205858 0 0 0 -1.08299 0.00121449 -0.496352 0 0 -0.00160516 8.2606 -473.016 -19.5385 0.0025 
19 1 1 -0.243289 0.0105585 -0.208241 0 0 0 -1.0852 -0.0653308 -0.456651 -5.26638e-05 -4.86604e-06 -0.000120643 55.7812 -784.219 -20.3664 0.0015 
40 1 1 -0.246901 0.0306797 -0.205039 0 0 0 -1.12577 0.0306702 -0.44967 -0.000135153 -8.34493e-05 -0.000782197 -25.207 -507.964 28.4774 0.0025 
87 1 1 -0.232936 -0.0223225 -0.202164 0 0 0 -0.847349 -0.0519032 -0.336226 -8.38328e-05 4.15312e-05 -4.27196e-05 -1.71697 -601.636 97.2018 0.0015 
1 1 1 -0.230755 -0.0143172 -0.201403 0 0 0 -1.05164 0.0265031 -0.45259 -0.000379846 8.01821e-05 -0.000255245 -59.7662 -449.291 112.565 0.0025 
111 1 1 -0.233718 -0.0126601 -0.203863 0 0 0 -1.06378 0.020389 -0.442664 -7.78883e-05 1.42237e-05 -6.53815e-05 -50.4131 -763.413 85.9608 0.0015 
81 1 1 -0.232031 0.00216683 -0.20381 0 0 0 -0.879974 0.0704306 -0.375001 -8.94931e-05 -5.22239e-06 -3.85705e-05 -34.8343 -637.71 -38.0295 0.0015 
69 1 1 -0.228027 0.0174754 -0.200903 0 0 0 -0.93725 0.154668 -0.367816 -9.01161e-05 -2.82352e-05 -3.08862e-05 -70.3243 -668.238 -101.796 0.0015 
102 1 1 -0.24125 0.0351851 -0.202656 0 0 0 -1.11433 0.143915 -0.434894 0 0 -0.000346714 -73.3324 -803.043 -81.6474 0.0015 
174 1 1 -0.253439 -0.0565893 -0.19784 0 0 0 -1.3076 -0.0118908 -0.428075 0 0 -0.000346714 -99.6428 -821.936 382.418 0.0015 
29 1 1 -0.222165 0.00498539 -0.198473 0 0 0 -1.0012 -0.0162294 -0.41703 -0.000397595 -1.91175e-05 -0.000178579 22.1861 -433.439 -36.4117 0.0025 
33 1 1 -0.22271 0.00894698 -0.199702 0 0 0 -0.977396 -0.0144877 -0.406578 -7.89202e-05 -3.73283e-06 -6.19099e-05 48.7013 -704.287 -91.9181 0.0015 
70 1 1 -0.220308 0.0113737 -0.198422 0 0 0 -0.995582 -0.00176634 -0.423269 1.13336e-05 5.75951e-06 -7.35658e-05 15.8398 -637.477 -90.7707 0.0015 
99 1 1 -0.224556 0.0207256 -0.199044 0 0 0 -0.81753 -0.0471024 -0.34464 2.33991e-05 -1.07413e-05 1.9687e-05 43.9281 -498.01 -64.2 0.0015 
43 1 1 -0.228738 0.0368595 -0.197119 0 0 0 -0.875214 0.154702 -0.29509 -2.93848e-05 -9.74985e-05 2.6377e-05 -8.21981 -564.371 -270.99 0.0015 
34 1 1 -0.263898 0.0611717 -0.199115 0 0 0 -1.1907 -0.170898 -0.525562 -5.889e-05 -0.000100471 -8.13718e-05 249.389 -781.982 -310.731 0.0015 
7 1 1 -0.249766 -0.056906 -0.195718 0 0 0 -0.929797 0.259528 -0.364919 0 0 -0.000346714 -249.511 -437.679 347.279 0.0015 
53 1 1 -0.216895 0.00124475 -0.196332 0 0 0 -0.843135 0.0276658 -0.338009 0 0 -0.00160516 -35.5246 -363.826 54.5184 0.0025 
88 1 1 -0.213617 0.0113896 -0.195547 0 0 0 -0.914124 0.127956 -0.340239 0 0 -0.000346714 -91.0038 -654.068 -10.5825 0.0015 
115 1 1 -0.216118 0.0129676 -0.196438 0 0 0 -0.856518 0.049063 -0.360082 2.13247e-05 -4.66066e-05 -9.79331e-06 -13.4647 -119.586 54.8754 0.0015 
64 1 1 -0.212798 0.0248317 -0.193382 0 0 0 -0.824646 0.144946 -0.315535 -8.48233e-05 -4.57979e-05 -4.68379e-05 -29.3321 -568.162 -184.335 0.0015 
165 1 1 -0.207368 -0.0298705 -0.189907 0 0 0 -0.886736 -0.0471731 -0.355946 0 0 -0.000346714 6.65752 -636.831 69.3536 0.0015 
27 1 1 -0.213354 -0.0235806 -0.192743 0 0 0 -1.02388 -0.0474835 -0.408621 -0.000542264 0.000301817 0.000220091 24.5378 -453.873 -9.1464 0.0025 
98 1 1 -0.203322 -0.0133272 -0.19098 0 0 0 -0.964953 -0.0863218 -0.390105 -8.57149e-05 2.16734e-05 -4.10514e-05 38.9154 -693.79 57.2658 0.0015 
120 1 1 -0.230384 -0.00407726 -0.193991 0 0 0 -1.38292 -0.118185 -0.54609 0 0 -0.00160516 72.4082 62.6528 13.5061 0.0025 
44 1 1 -0.204466 0.00579946 -0.192141 0 0 0 -0.924707 0.0288285 -0.384119 -8.95085e-05 5.00335e-06 -5.1723e-05 -10.9196 -667.886 -23.9628 0.0015 
108 1 1 -0.202397 0.00430706 -0.190564 0 0 0 -0.892403 0.0141402 -0.43957 8.66825e-06 -1.24497e-05 -0.000325482 35.0459 -575.685 -91.2261 0.0015 
129 1 1 -0.223796 0.00996556 -0.192243 0 0 0 -1.26208 0.0935505 -0.493813 0 0 -0.00160516 72.9657 222.538 13.225 0.0025 
58 1 1 -0.208598 0.0128774 -0.193301 0 0 0 -0.935446 -0.0624916 -0.406514 -8.86541e-05 -2.24249e-05 -4.06514e-05 100.599 -667.954 -128.804 0.0015 
82 1 1 -0.211789 0.0207462 -0.193733 0 0 0 -1.00388 0.019052 -0.412686 -8.59933e-05 -2.40789e-05 -4.08611e-05 -97.0126 -752.116 201.213 0.0015 
114 1 1 -0.209906 -0.0331674 -0.190207 0 0 0 -1.08179 -0.00166647 -0.46732 0 0 -0.000346714 -77.8214 -751.328 194.426 0.0015 
171 1 1 -0.206985 -0.0338448 -0.188821 0 0 0 -1.05482 0.0393231 -0.439382 0 0 -0.000346714 17.6176 -803.397 -113.641 0.0015 
122 1 1 -0.194664 -0.0225463 -0.18625 0 0 0 -0.822486 -0.116238 -0.347695 0 0 -0.000346714 89.523 -598.295 -12.1163 0.0015 
84 1 1 -0.198348 -0.0169366 -0.188495 0 0 0 -0.872863 -0.0912044 -0.362393 -7.95016e-05 2.1381e-05 -6.62248e-05 37.3552 -628.824 68.3205 0.0015 
63 1 1 -0.195928 -0.00978696 -0.188296 0 0 0 -0.882499 0.114291 -0.369142 -0.000383828 9.20485e-05 0.000379503 -112.585 -632.014 72.3439 0.0015 
97 1 1 -0.191936 -0.0086837 -0.186748 0 0 0 -0.881453 0.0454827 -0.369315 -8.7447e-05 2.51634e-05 -3.64683e-05 -6.22209 -647.638 -64.8985 0.0015 
133 1 1 -0.207454 -0.00777283 -0.191238 0 0 0 -1.16586 -0.397635 -0.580972 0 0 -0.000346714 360.479 433.296 65.4433 0.0015 
104 1 1 -0.197907 -0.00509077 -0.188286 0 0 0 -0.955184 0.0270902 -0.408297 -0.000402181 2.26717e-06 -0.000262828 -32.5411 -415.738 48.3838 0.0025 
152 1 1 -0.208424 0.00803437 -0.188446 0 0 0 -1.02462 0.069023 -0.506704 0 0 -0.000346714 -51.5387 -313.555 -58.3812 0.0015 
80 1 1 -0.202337 0.014237 -0.189393 0 0 0 -0.815876 0.0877523 -0.328483 -0.000398785 -9.83752e-05 -0.000184716 -25.044 -351.75 -31.7686 0.0025 
77 1 1 -0.204967 0.020458 -0.189844 0 0 0 -0.930884 0.135889 -0.371207 -0.00040129 -9.9284e-05 -0.000175895 -53.6184 -403.693 -13.3212 0.0025 
83 1 1 -0.195006 0.0197645 -0.186879 0 0 0 -0.908409 0.0233593 -0.37326 -7.28714e-05 -1.7805e-05 -7.24072e-05 -27.9207 -661.279 26.5165 0.0015 
137 1 1 -0.206518 0.0283592 -0.189957 0 0 0 -1.05333 0.185633 -0.388542 -6.84933e-05 -3.74471e-05 -7.54734e-05 -126.452 -768.951 -24.5408 0.0015 
139 1 1 -0.201264 0.0310041 -0.187234 0 0 0 -0.946938 0.065466 -0.36604 -0.000338643 -0.000220349 0.000459901 -78.5594 -712.664 75.1049 0.0015 
45 1 1 -0.242621 -0.0635174 -0.183355 0 0 0 -0.88159 0.0868543 -0.431863 0 0 -0.000346714 38.1207 -633.678 42.0881 0.0015 
105 1 1 -0.196154 -0.0279586 -0.184688 0 0 0 -1.08697 -0.00638683 -0.442298 -0.000291834 0.000180423 -0.000312888 9.41534 -484.558 -16.6076 0.0025 
166 1 1 -0.185334 -0.00221109 -0.184031 0 0 0 -0.966695 -0.0517042 -0.416464 0 0 -0.000346714 37.2855 -695.028 1.16285 0.0015 
91 1 1 -0.191512 0.00242046 -0.185638 0 0 0 -0.942133 0.00773133 -0.391076 -0.000407592 6.47008e-06 -0.000197674 15.903 -408.655 -46.3085 0.0025 
116 1 1 -0.187859 0.00781869 -0.183906 0 0 0 -0.882073 0.00654333 -0.378758 -0.000474376 -0.000115743 8.00869e-05 -2.79671 -385.839 0.0839847 0.0025 
54 1 1 -0.192739 0.0113747 -0.185659 0 0 0 -0.71855 0.0185941 -0.305626 -0.000407594 -8.96778e-05 -0.00019512 3.01 -311.56 -26.0332 0.0025 
140 1 1 -0.203301 0.0389642 -0.185893 0 0 0 -0.99027 -0.287311 -0.513184 -0.000264058 -0.000233137 0.000519189 220.822 -752.426 -2.86172 0.0015 
66 1 1 -0.181526 -0.0222439 -0.179754 0 0 0 -0.901327 -0.0112002 -0.369874 -0.000893727 0.000256679 0.000650639 -17.967 -386.544 55.198 0.0025 
128 1 1 -0.180989 -0.0118974 -0.18153 0 0 0 -0.821919 0.0197297 -0.451645 0 0 -0.000346714 8.03507 -588.713 -40.68 0.0015 
93 1 1 -0.17725 -0.00962188 -0.179438 0 0 0 -0.828986 -0.0717437 -0.345904 -0.00110205 0.00164497 9.19903e-05 9.10187 -358.059 52.7665 0.0025 
203 1 1 -0.178313 -0.00430269 -0.18101 0 0 0 -0.854113 -0.0903849 -0.353848 0 0 -0.000346714 9.96426 -607.607 134.249 0.0015 
103 1 1 -0.184612 0.00311091 -0.182748 0 0 0 -0.894741 -0.0633597 -0.378211 -1.95176e-05 2.85312e-05 -0.00137936 21.2161 -388.637 14.884 0.0025 
100 1 1 -0.176984 0.00507921 -0.180624 0 0 0 -0.850577 -0.102009 -0.370218 -8.86582e-05 -1.77606e-05 -3.89752e-05 92.3775 -614.711 -42.8614 0.0015 
13 1 1 -0.180527 0.00851971 -0.180749 0 0 0 -0.817516 -0.0921024 -0.355318 -0.00040961 -8.20503e-05 -0.000182425 58.2349 -353.054 -42.4712 0.0025 
135 1 1 -0.18411 0.0203047 -0.182267 0 0 0 -0.942269 -0.0021923 -0.3971 -8.48011e-05 -4.07589e-05 -4.59157e-05 42.8732 -673.843 -98.0131 0.0015 
74 1 1 -0.187564 -0.0500078 -0.175788 0 0 0 -0.915882 -0.0559337 -0.346742 -7.78841e-05 6.40544e-05 -5.226e-05 60.8614 -703.009 -47.3516 0.0015 
15 1 1 -0.177382 -0.0122577 -0.175196 0 0 0 -0.742516 -0.0281101 -0.321849 0.000303156 -0.00142003 -0.000643405 -13.7974 364.688 17.4649 0.0025 
65 1 1 -0.168602 -0.00842237 -0.175743 0 0 0 -0.751899 0.0527438 -0.326614 0 0 -0.00160516 20.5838 -329.602 -98.8019 0.0025 
163 1 1 -0.16668 -0.00237115 -0.176269 0 0 0 -0.788125 -0.0104891 -0.322874 3.94173e-05 -8.8254e-06 -0.000308521 59.1625 -569.187 -125.062 0.0015 
164 1 1 -0.194209 0.00109123 -0.177306 0 0 0 -1.2613 -0.0091001 -0.41019 0 0 -0.000346714 -82.064 317.704 -96.5623 0.0015 
110 1 1 -0.183061 0.00468978 -0.179417 0 0 0 -0.870667 0.0147916 -0.423135 -2.3437e-05 -1.71385e-05 -0.000363921 37.2383 543.426 92.9127 0.0015 
172 1 1 -0.167884 0.00450014 -0.176826 0 0 0 -0.833636 -0.0434995 -0.360151 -0.000109157 3.20901e-05 0.000711408 11.3268 -606.198 47.2488 0.0015 
185 1 1 -0.17301 0.0106943 -0.178457 0 0 0 -0.824543 0.0306808 -0.349188 -0.000116027 -2.67768e-05 4.79729e-05 -46.9259 -604.835 58.1933 0.0015 
62 1 1 -0.171369 0.0138151 -0.177508 0 0 0 -0.925089 -0.0457768 -0.389795 -8.76292e-05 -1.72283e-05 -3.76149e-05 39.5962 -669.274 -15.3742 0.0015 
121 1 1 -0.221957 -0.0776827 -0.171628 0 0 0 -0.922698 -0.010286 -0.283473 0.000589945 0.00161982 0.00156703 19.3223 -871.757 -18.9321 0.0015 
149 1 1 -0.179843 -0.0408531 -0.175712 0 0 0 -0.995505 0.0122135 -0.402138 -0.000114144 0.000102101 4.97926e-05 -83.4342 -687.891 184.122 0.0015 
112 1 1 -0.171464 -0.0343483 -0.174068 0 0 0 -0.96046 0.0249785 -0.406711 0 0 -0.000346714 -131.099 -630.327 289.477 0.0015 
117 1 1 -0.17552 -0.0264679 -0.176511 0 0 0 -1.08421 -0.0318696 -0.419961 -0.00569582 0.00324021 0.0129763 -24.8392 -459.19 95.1955 0.0025 
131 1 1 -0.162007 -0.00911023 -0.173007 0 0 0 -0.832901 0.0525021 -0.350221 -0.000379454 7.08132e-05 -0.00019234 -20.8342 -362.294 -4.81098 0.0025 
95 1 1 -0.163324 -0.00444391 -0.174834 0 0 0 -0.679999 0.0657107 -0.304361 0 0 -0.000346714 -85.3014 -491.463 88.0795 0.0015 
127 1 1 -0.158749 -0.00628452 -0.172884 0 0 0 -0.718385 -0.0618719 -0.280226 -2.85905e-05 0.000133614 -0.000243523 67.2771 -425.188 -94.966 0.0015 
90 1 1 -0.16018 -0.00264489 -0.172063 0 0 0 -0.764929 -0.0469389 -0.346045 2.85905e-05 -0.000133614 -0.00170835 76.1622 -283.224 -23.1104 0.0025 
167 1 1 -0.162006 0.00187228 -0.17319 0 0 0 -0.637726 0.0137422 -0.275994 5.48758e-05 -0.00026091 0.00013149 32.7124 -160.621 15.9327 0.0025 
73 1 1 -0.156794 5.40373e-05 -0.171805 0 0 0 -0.58887 -0.221739 -0.268596 0 0 -0.000346714 23.0689 -311.554 -100.351 0.0015 
158 1 1 -0.168286 0.0099528 -0.175455 0 0 0 -0.897069 0.0142901 -0.375377 -0.000806203 -0.000165762 0.000763965 8.84263 -388.158 -35.7249 0.0025 
151 1 1 -0.164195 0.00933678 -0.174897 0 0 0 -0.842644 0.128681 -0.334469 -1.44112e-06 6.43985e-05 5.44422e-06 -74.8906 -499.944 -211.403 0.0015 
68 1 1 -0.164726 0.0150356 -0.173552 0 0 0 -0.871157 -0.0784431 -0.374331 -0.00048886 -0.000101248 0.00049932 43.4229 -378.058 -21.8417 0.0025 
173 1 1 -0.174759 0.0443936 -0.172419 0 0 0 -0.787054 -0.000968895 -0.32271 0 0 -0.000346714 38.0957 -559.624 -95.1056 0.0015 
94 1 1 -0.183111 0.0468977 -0.173875 0 0 0 -0.898014 -0.178841 -0.420866 -0.000370019 -0.000304386 -0.000220319 118.611 -374.265 -94.0462 0.0025 
199 1 1 -0.177137 0.045413 -0.170825 0 0 0 -0.806403 -0.0551247 -0.243726 0 0 -0.000346714 202.625 -176.498 -17.7892 0.0015 
106 1 1 -0.172368 -0.0379966 -0.172354 0 0 0 -0.962228 0.0272804 -0.414371 0 0 -0.00160516 -30.0253 -413.496 46.4843 0.0025 
243 1 1 -0.16621 -0.0288811 -0.172557 0 0 0 -0.91126 -0.198499 -0.563542 0 0 -0.000346714 -411.693 -335.621 -56.366 0.0015 
183 1 1 -0.152256 -0.0185302 -0.168005 0 0 0 -0.634557 -0.0251181 -0.258955 8.58632e-05 -3.66756e-05 1.5494e-05 55.0411 -195.648 -42.0063 0.0025 
150 1 1 -0.153209 -0.00949588 -0.170333 0 0 0 -0.964961 0.0503278 -0.423733 0 0 -0.000346714 -128.459 -686.279 221.426 0.0015 
187 1 1 -0.169785 -0.00721713 -0.171265 0 0 0 -1.07268 0.00916889 -0.171598 0 0 -0.000346714 -9.05919 216.14 -97.7141 0.0015 
101 1 1 -0.156134 -0.00535107 -0.171704 0 0 0 -0.773382 0.126778 -0.233148 0 0 -0.000346714 -105.478 -488.353 -55.7584 0.0015 
157 1 1 -0.152752 -0.00479037 -0.169325 0 0 0 -0.881365 0.0536378 -0.378038 -0.000437838 8.94762e-05 -9.53794e-05 -6.48642 -386.034 -39.9477 0.0025 
208 1 1 -0.156546 0.00456414 -0.169824 0 0 0 -0.693747 -0.102078 -0.253115 0 0 -0.00160516 7.86622 -252.966 3.75249 0.0025 
123 1 1 -0.149913 0.00591391 -0.16911 0 0 0 -0.646926 -0.00754548 -0.280499 -9.02711e-05 -5.09729e-06 -3.92441e-05 28.6908 -469.084 -53.5521 0.0015 
175 1 1 -0.157837 0.0134552 -0.171619 0 0 0 -0.902329 0.167112 -0.292989 0 0 -0.000346714 -149.955 -343.9 -57.6368 0.0015 
92 1 1 -0.162253 0.0297055 -0.170171 0 0 0 -0.816145 -0.0647707 -0.349227 -0.000396407 -0.00018236 -0.000185431 48.8539 -349.476 -49.354 0.0025 
67 1 1 -0.166156 0.0354816 -0.170642 0 0 0 -0.766806 0.00867612 -0.314725 -0.000373407 -0.000284178 -0.000244125 9.28527 -335.952 -31.8842 0.0025 
130 1 1 -0.170573 0.042571 -0.17017 0 0 0 -0.865013 -0.105803 -0.382811 -0.000372962 -0.000295625 -0.000223916 84.5896 -360.157 -91.5973 0.0025 
177 1 1 -0.148255 -0.0326385 -0.165004 0 0 0 -0.745134 -0.00251606 -0.284275 -0.000365133 0.000250937 0.000442418 5.14868 -551.452 -7.21196 0.0015 
198 1 1 -0.151329 -0.0232639 -0.167324 0 0 0 -0.784974 -0.192901 -0.255729 0 0 -0.000346714 257.152 -494.113 -11.2026 0.0015 
193 1 1 -0.150136 -0.0136959 -0.167677 0 0 0 -0.747212 0.0760903 -0.32509 -0.000418688 9.67584e-05 -0.000251295 -41.1428 -324.492 18.617 0.0025 
153 1 1 -0.155409 0.000924927 -0.168112 0 0 0 -0.782089 0.159701 -0.500232 0 0 -0.000346714 -47.8844 -382.989 47.0659 0.0015 
197 1 1 -0.154847 -0.00202202 -0.167335 0 0 0 -0.919761 0.124108 -0.489487 0 0 -0.000346714 105.205 370.222 -102.769 0.0015 
144 1 1 -0.143254 -0.000481798 -0.165356 0 0 0 -0.70221 -0.00614311 -0.28881 -0.00040912 -3.79326e-05 -0.00015195 -31.578 -307.27 83.3106 0.0025 
132 1 1 -0.148826 0.000908192 -0.167674 0 0 0 -0.563246 -0.019834 -0.24438 8.56467e-05 5.59603e-05 5.84936e-05 0.933973 -182.698 -1.35848 0.0025 
119 1 1 -0.143523 0.00663093 -0.165237 0 0 0 -0.708058 -0.119177 -0.310571 -0.000175532 8.81844e-05 0.000472035 70.3551 -308.639 -41.0263 0.0025 
189 1 1 -0.144914 0.0110722 -0.166772 0 0 0 -0.674261 -0.0431582 -0.280184 -7.4387e-05 -2.05135e-05 -6.72704e-05 35.1605 -487.345 -9.57725 0.0015 
148 1 1 -0.145162 0.0192638 -0.165943 0 0 0 -0.901731 -0.0558237 -0.373242 -9.86479e-05 -2.58476e-05 -4.53184e-05 -7.25246 -666.238 116.444 0.0015 
136 1 1 -0.151431 0.0301116 -0.16675 0 0 0 -0.898583 -0.00880587 -0.364102 -8.39028e-05 -3.83475e-05 -5.53204e-05 64.9007 -628.558 -144.901 0.0015 
161 1 1 -0.156312 0.0321578 -0.168349 0 0 0 -0.773232 -0.0285647 -0.325174 -8.83288e-05 -4.15102e-05 -2.58172e-05 28.7701 -563.066 -18.8193 0.0015 
89 1 1 -0.175687 0.0581032 -0.167427 0 0 0 -0.820108 -0.0106392 -0.326162 -7.16053e-05 -8.22501e-05 -6.48924e-05 41.9795 -598.299 -86.0385 0.0015 
143 1 1 -0.143852 -0.0339751 -0.161745 0 0 0 -0.778309 -0.0476084 -0.31825 -0.000389682 0.000208062 -0.000224814 -32.9847 -316.563 128.021 0.0025 
233 1 1 -0.158381 -0.0285705 -0.167511 0 0 0 -1.0814 -0.225602 -0.942692 0 0 -0.00160516 -38.5355 75.952 -11.6802 0.0025 
159 1 1 -0.177549 -0.0184271 -0.164908 0 0 0 -0.890104 -0.18361 -0.378578 0 0 -0.000346714 52.9769 -92.1889 -42.178 0.0015 
205 1 1 -0.134868 -0.0158492 -0.162105 0 0 0 -0.758549 -0.0308551 -0.311112 -8.67353e-05 1.96061e-05 -3.8045e-05 67.129 -559.764 -108.157 0.0015 
211 1 1 -0.140764 -0.0156009 -0.164549 0 0 0 -0.690327 -0.230219 -0.238542 0 0 -0.000346714 147.621 -487.129 51.2706 0.0015 
191 1 1 -0.136786 -0.0105465 -0.163336 0 0 0 -0.893136 0.0469418 -0.443576 0 0 -0.000346714 -66.1993 -627.268 71.295 0.0015 
59 1 1 -0.137019 -0.00551647 -0.163708 0 0 0 -0.663009 -0.0299375 -0.282085 -2.84388e-05 2.51458e-06 -0.000179183 65.8526 -483.967 -103.05 0.0015 
178 1 1 -0.137893 0.00730811 -0.163936 0 0 0 -0.586791 0.0616619 -0.238789 -8.58091e-05 -7.94792e-06 -3.88209e-05 -27.9125 -421.882 -40.3505 0.0015 
155 1 1 -0.135862 0.00349848 -0.162173 0 0 0 -0.629142 0.00330013 -0.262497 0.00117128 -0.00149027 0.00660402 -4.78967 -246.466 30.2187 0.0025 
276 1 1 -0.13582 0.0113294 -0.162904 0 0 0 -0.688238 0.175448 -0.289573 -9.0174e-05 -1.0592e-05 -3.96779e-05 -213.138 -510.968 196.985 0.0015 
202 1 1 -0.14206 0.0103961 -0.163076 0 0 0 -0.787334 0.0088305 -0.487776 0 0 -0.000346714 9.96823 -216.169 17.801 0.0015 
192 1 1 -0.135384 0.0152105 -0.162336 0 0 0 -0.711705 0.0941422 -0.276475 -1.3591e-05 6.31335e-05 4.05643e-06 -88.6922 -509.239 23.323 0.0015 
210 1 1 -0.142395 0.0170322 -0.163986 0 0 0 -0.927358 -0.176079 -0.440708 0.00333496 -0.00193338 0.0149272 106.635 -392.921 -68.1166 0.0025 
221 1 1 -0.139585 -0.0292519 -0.161008 0 0 0 -0.707253 -0.0310356 -0.291861 -0.000408275 0.000217559 -0.000186914 20.1717 -317.354 -15.1044 0.0025 
126 1 1 -0.125893 -0.0179834 -0.158114 0 0 0 -0.728863 0.139516 -0.326558 -8.71232e-05 2.89568e-05 -4.07524e-05 -196.104 -500.569 223.837 0.0015 
206 1 1 -0.127478 -0.0140697 -0.158078 0 0 0 -0.740732 0.0727611 -0.323812 -0.00044485 7.36213e-05 -2.77681e-05 -44.6594 -321.282 30.0873 0.0025 
225 1 1 -0.141445 -0.0136348 -0.162197 0 0 0 -1.19543 -0.0564884 -0.535128 0 0 -0.000346714 67.1196 218.144 153.638 0.0015 
168 1 1 -0.134049 -0.0049007 -0.160836 0 0 0 -0.665957 -0.0262847 -0.370033 0 0 -0.00160516 -21.2701 -220.14 61.4453 0.0025 
232 1 1 -0.124853 -0.00553514 -0.157546 0 0 0 -0.60468 -0.0670382 -0.249456 -0.000424509 2.37526e-05 -0.000134818 31.9116 -262.316 -6.83998 0.0025 
216 1 1 -0.122668 -0.000233087 -0.15776 0 0 0 -0.651201 0.0105426 -0.279034 -8.94997e-05 9.14437e-07 -3.87127e-05 -5.15382 -472.575 -5.82712 0.0015 
180 1 1 -0.131442 0.00203672 -0.160359 0 0 0 -0.627223 -0.0133056 -0.239042 -0.000683292 0.000149955 -0.00154854 38.9274 -255.836 -78.9216 0.0025 
213 1 1 -0.143611 0.0081433 -0.161529 0 0 0 -0.860832 0.0618117 -0.374586 0 0 -0.000346714 -165.309 215.563 -25.8684 0.0015 
201 1 1 -0.125331 0.00679949 -0.158646 0 0 0 -0.780904 0.0380077 -0.31778 -8.66072e-05 -1.36223e-05 -3.63812e-05 -17.2807 -562.374 -24.797 0.0015 
196 1 1 -0.156799 0.0117477 -0.160896 0 0 0 -1.0503 0.185083 -0.594831 0 0 -0.00160516 -76.5128 12.144 1.21368 0.0025 
190 1 1 -0.14607 0.00803518 -0.159673 0 0 0 -0.910911 0.077461 -0.354698 0 0 -0.000346714 44.9778 -185.516 73.4766 0.0015 
212 1 1 -0.134357 0.0175316 -0.160715 0 0 0 -0.785896 0.125747 -0.282601 0 0 -0.000346714 -103.265 -450.246 -216.459 0.0015 
204 1 1 -0.175037 0.0323406 -0.162882 0 0 0 -0.965384 0.198399 -0.562535 0 0 -0.000346714 -335.15 193.462 -73.885 0.0015 
256 1 1 -0.143899 -0.0494222 -0.156998 0 0 0 -1.00885 -0.0633308 -0.331536 0 0 -0.000346714 82.8942 -718.712 -6.82692 0.0015 
214 1 1 -0.12723 -0.030774 -0.156608 0 0 0 -0.970838 -0.0617922 -0.391986 -8.6207e-05 4.47829e-05 -4.23322e-05 60.4584 -723.549 -35.654 0.0015 
181 1 1 -0.127397 -0.0240939 -0.156785 0 0 0 -0.707459 0.0919928 -0.308374 -0.000394987 0.000134518 -0.000198344 -71.5198 -298.847 74.9303 0.0025 
218 1 1 -0.122683 -0.0183526 -0.15671 0 0 0 -0.759752 -0.122992 -0.302817 -8.71233e-05 2.89573e-05 -4.07487e-05 59.013 -544.231 72.9844 0.0015 
226 1 1 -0.11742 -0.015351 -0.154844 0 0 0 -0.632138 0.00919741 -0.26578 1.66597e-05 -1.65995e-05 1.47653e-07 -12.8171 -457.171 14.0249 0.0015 
145 1 1 -0.120133 -0.0119358 -0.155135 0 0 0 -0.673748 -0.138194 -0.273441 -0.0004178 7.04464e-05 -0.000137165 64.2907 -293.826 -9.98557 0.0025 
169 1 1 -0.178711 -0.00513676 -0.157836 0 0 0 -0.840969 -0.00189137 -0.581828 0 0 -0.00160516 -36.2028 196.873 12.8413 0.0025 
109 1 1 -0.115893 -0.00626047 -0.154813 0 0 0 -0.717378 -0.0565039 -0.299763 0 0 -0.000346714 28.8459 -516.322 29.5183 0.0015 
182 1 1 -0.148185 -0.00351725 -0.157434 0 0 0 -0.948885 -0.0175628 -0.619263 0 0 -0.00160516 47.3578 268.415 4.57205 0.0025 
228 1 1 -0.121934 0.00746062 -0.15713 0 0 0 -0.700697 0.0665764 -0.306086 0 0 -0.000346714 25.3942 -485.441 -178.303 0.0015 
224 1 1 -0.124655 0.0125846 -0.157996 0 0 0 -0.840254 0.133835 -0.340435 0.000514352 5.99284e-05 -0.000778819 -117.2 -318.565 -31.9469 0.0015 
245 1 1 -0.118307 0.0196331 -0.153604 0 0 0 -0.552583 0.27268 -0.189189 -0.000424915 -0.000155593 -0.000128739 -115.773 -240.728 -8.76859 0.0025 
184 1 1 -0.13462 0.0423365 -0.155371 0 0 0 -0.882798 0.0348389 -0.34204 0 0 -0.000346714 -30.1745 -596.058 -51.9897 0.0015 
179 1 1 -0.186898 -0.0879692 -0.150067 0 0 0 -0.895513 -0.020118 -0.239693 0 0 -0.000346714 -43.5572 -653.584 229.641 0.0015 
188 1 1 -0.117777 -0.0183081 -0.154089 0 0 0 -0.751229 0.00018499 -0.342186 0 0 -0.000346714 59.2714 -474.678 -13.3885 0.0015 
147 1 1 -0.11047 -0.00988752 -0.15228 0 0 0 -0.587572 0.0391615 -0.249111 -8.80113e-05 1.37004e-05 -3.78363e-05 -51.4954 -422.197 55.0892 0.0015 
207 1 1 -0.123975 -0.00624004 -0.152613 0 0 0 -0.614387 -0.082297 -0.369523 0 0 -0.00160516 -8.01059 137.224 46.8511 0.0025 
223 1 1 -0.113613 -0.00611448 -0.152566 0 0 0 -0.663833 -0.0175269 -0.353586 0 0 -0.000346714 -186.764 -70.1078 -60.7462 0.0015 
251 1 1 -0.106717 -0.00439302 -0.151016 0 0 0 -0.670511 -0.0020887 -0.281265 -8.83085e-05 -1.21823e-06 -3.70496e-05 -20.74 -485.308 53.0464 0.0015 
118 1 1 -0.111032 -0.00312664 -0.15175 0 0 0 -0.692712 -0.00104202 -0.290399 -0.000456089 -1.2466e-06 -8.41208e-05 -2.59509 -300.71 7.25845 0.0025 
242 1 1 -0.106348 -0.000888361 -0.150743 0 0 0 -0.798991 -0.0295891 -0.31764 0 0 -0.000346714 52.0836 -470.085 135.831 0.0015 
217 1 1 -0.11534 0.00303881 -0.154632 0 0 0 -0.816117 0.000683947 -0.32863 0 0 -0.000346714 30.205 -584.957 -73.0286 0.0015 
253 1 1 -0.120776 0.0106549 -0.155124 0 0 0 -0.876994 0.154382 -0.470526 0 0 -0.000346714 -349.057 256.629 -239.351 0.0015 
244 1 1 -0.117445 0.0125321 -0.153929 0 0 0 -0.761594 0.0204149 -0.319254 0 0 -0.00160516 4.62715 -333.564 -10.5274 0.0025 
269 1 1 -0.142667 0.02208 -0.156655 0 0 0 -0.960644 -0.0808325 -0.88932 0 0 -0.000346714 107.965 -582.902 -270.426 0.0015 
9 1 1 -0.1415 0.0599618 -0.153062 0 0 0 -0.63988 -0.251803 -0.364089 -8.82254e-05 -9.53379e-05 -3.07816e-05 193.411 -496.58 3.55575 0.0015 
194 1 1 -0.160345 -0.0773997 -0.14909 0 0 0 -0.846869 -0.080084 -0.217855 0 0 -0.00160516 -19.5783 -291.956 193.604 0.0025 
195 1 1 -0.105745 -0.00796893 -0.149332 0 0 0 -0.734627 -0.0452438 -0.309011 -0.000420075 6.25967e-05 -0.000146833 -9.29296 -315.716 68.3507 0.0025 