ITEM: TIMESTEP
37200
ITEM: NUMBER OF ATOMS
488
ITEM: BOX BOUNDS ff ff ff
-0.5 0.1
-0.2 0.2
-0.4 0.15
ITEM: ATOMS id type type x y z ix iy iz vx vy vz fx fy fz omegax omegay omegaz radius 
85 1 1 -0.328892 -0.0517596 -0.229418 0 0 0 -1.13812 0.392769 -0.684118 0 0 -0.000346714 -590.532 -294.61 698.542 0.0015 
47 1 1 -0.279441 0.0156924 -0.222713 0 0 0 -1.42952 -0.136261 -0.642135 0 0 -0.000346714 81.5492 -1050.14 41.2799 0.0015 
30 1 1 -0.271093 -0.0159743 -0.21822 0 0 0 -1.2975 0.0216454 -0.549739 -0.000498242 0.000129406 -5.22887e-05 -26.8881 -562.183 41.3471 0.0025 
11 1 1 -0.261941 -0.0140651 -0.215679 0 0 0 -1.24037 -0.0985224 -0.513161 -1.94211e-05 6.06182e-06 -0.000175741 -46.759 -869.883 280.419 0.0015 
36 1 1 -0.26227 -0.0191114 -0.214967 0 0 0 -1.27332 0.174966 -0.544235 0 0 -0.000346714 -177.254 -893.469 136.852 0.0015 
2 1 1 -0.258129 0.00701034 -0.213531 0 0 0 -1.1618 0.0384711 -0.484439 -0.000410504 -4.29225e-05 -0.00017271 -20.4298 -504.949 8.88636 0.0025 
31 1 1 -0.266706 0.0283489 -0.214956 0 0 0 -1.31168 0.0695343 -0.508418 -0.000572494 -0.000433153 0.00134251 32.876 -916.387 -209.867 0.0015 
4 1 1 -0.247288 -0.0100229 -0.208894 0 0 0 -1.15594 -0.00121467 -0.482191 -7.47835e-05 -2.44771e-06 -0.00117198 7.52569 -502.793 -15.8953 0.0025 
18 1 1 -0.248359 0.0144309 -0.209876 0 0 0 -1.04713 0.0654317 -0.433487 -8.67999e-05 -3.01549e-05 -4.15346e-05 -87.5623 -779.038 93.9475 0.0015 
17 1 1 -0.250011 0.0233185 -0.209254 0 0 0 -1.1011 0.0980173 -0.444146 -7.86852e-05 -3.15112e-05 -2.70377e-05 2.64467 -776.53 -178.05 0.0015 
21 1 1 -0.240108 -0.00640443 -0.207122 0 0 0 -1.01948 -0.0184557 -0.466448 0.000187427 0.000143934 0.00160094 66.2926 -753.451 -122.024 0.0015 
5 1 1 -0.246328 0.0241073 -0.207606 0 0 0 -1.02677 0.0941458 -0.4112 -8.13951e-05 -2.79953e-05 -4.99638e-05 -45.4214 -739.519 -55.9008 0.0015 
12 1 1 -0.246487 0.0316604 -0.205723 0 0 0 -1.19925 0.072056 -0.468597 -0.000130382 -8.71011e-05 6.79776e-05 49.1144 -822.707 -252.036 0.0015 
8 1 1 -0.227173 0.00310973 -0.201707 0 0 0 -1.05466 -0.00647186 -0.449756 -0.00018399 -1.12519e-05 7.14668e-05 58.3332 -762.371 -125.291 0.0015 
6 1 1 -0.228623 0.00595973 -0.202256 0 0 0 -1.04822 0.0153325 -0.447261 -5.33822e-05 -2.69983e-06 -0.000135493 -52.41 -762.74 96.3663 0.0015 
20 1 1 -0.234369 0.00991209 -0.204538 0 0 0 -1.04353 0.101689 -0.43154 -8.66551e-05 -6.79672e-06 -3.94791e-05 -62.8735 -753.575 -25.5366 0.0015 
24 1 1 -0.237423 0.0224636 -0.204158 0 0 0 -1.11282 0.108186 -0.446753 -0.000117044 -4.51987e-05 8.2194e-05 -45.8996 -799.573 -78.8804 0.0015 
38 1 1 -0.33372 0.0727343 -0.204648 0 0 0 -1.28232 -0.252842 -0.581567 0 0 -0.000346714 353.317 -1209.87 -459.629 0.0015 
23 1 1 -0.224029 -0.0139057 -0.199652 0 0 0 -0.969481 -0.0689772 -0.411616 -0.000396297 9.43333e-05 0.000845341 54.4257 -710.176 -10.4087 0.0015 
35 1 1 -0.221215 -0.0116635 -0.198646 0 0 0 -1.01922 -0.0835367 -0.41524 0 0 -0.000346714 36.1142 -732.852 58.9612 0.0015 
10 1 1 -0.218427 -0.00302908 -0.198129 0 0 0 -0.824154 -0.00744899 -0.353222 -8.96138e-05 -2.43266e-06 -3.84354e-05 -24.0894 -598.897 68.8364 0.0015 
22 1 1 -0.224916 0.000931309 -0.200791 0 0 0 -1.04631 -0.0079329 -0.451356 0 0 -0.000346714 -2.78228 -757.671 19.6932 0.0015 
71 1 1 -0.22605 0.00639257 -0.200745 0 0 0 -1.03355 0.0493063 -0.493737 0 0 -0.000346714 -42.9018 -655.192 7.08893 0.0015 
32 1 1 -0.225733 0.00961532 -0.200947 0 0 0 -1.04038 0.0534616 -0.430232 -7.5163e-05 -4.85303e-06 -4.54742e-05 -24.8188 -750.68 -33.2246 0.0015 
37 1 1 -0.224286 0.0243076 -0.198319 0 0 0 -1.09346 0.122068 -0.446517 0 0 -0.000346714 -77.016 -796.459 -33.4155 0.0015 
26 1 1 -0.234165 0.027547 -0.200556 0 0 0 -1.17206 0.166129 -0.433577 -7.09317e-05 -9.60674e-06 -0.00106848 -87.6321 -527.755 33.6369 0.0025 
72 1 1 -0.269179 -0.0697317 -0.194326 0 0 0 -1.36086 -0.0274604 -0.349491 0 0 -0.000346714 -111.087 -788.334 512.068 0.0015 
14 1 1 -0.218591 -0.0146955 -0.196198 0 0 0 -1.11275 -0.0685697 -0.454163 -0.000176159 3.01765e-05 -0.000774533 31.4072 -483.943 -3.7424 0.0025 
57 1 1 -0.21651 -0.000748173 -0.197281 0 0 0 -1.15678 -0.0257692 -0.495989 -8.32159e-05 -2.25937e-06 -5.21258e-05 -20.3524 -840.527 91.1424 0.0015 
16 1 1 -0.21671 0.0176443 -0.195042 0 0 0 -1.13285 -0.0241761 -0.471052 -0.000412442 -0.000115864 -0.000152663 50.0163 -482.412 -95.5203 0.0025 
3 1 1 -0.226959 0.0315243 -0.196584 0 0 0 -1.13749 0.0391963 -0.475356 0 0 -0.00160516 16.6108 -483.434 -83.5684 0.0025 
48 1 1 -0.234527 0.0455804 -0.196189 0 0 0 -1.04373 0.116795 -0.397284 0.00016613 7.77633e-05 0.00062503 -13.2659 -723.801 -187.867 0.0015 
76 1 1 -0.208666 -0.00524452 -0.193968 0 0 0 -0.967563 0.100648 -0.412644 0 0 -0.000346714 -78.789 -699.861 13.0598 0.0015 
75 1 1 -0.213145 0.0231344 -0.193916 0 0 0 -1.10935 -0.0508472 -0.479998 -8.83076e-05 -4.61667e-05 -4.94168e-05 17.8564 -831.424 46.5694 0.0015 
51 1 1 -0.22848 0.0460813 -0.193567 0 0 0 -1.18244 0.100301 -0.431417 -7.6475e-05 -7.11642e-05 -5.59999e-05 -1.29428 -827.345 -188.82 0.0015 
41 1 1 -0.200382 -0.0230548 -0.187549 0 0 0 -0.89957 -0.00294146 -0.384221 -0.00130806 0.000418715 0.000993102 -29.9679 -385.253 73.0864 0.0025 
52 1 1 -0.204976 -0.0182779 -0.19006 0 0 0 -0.949693 0.0156338 -0.391004 -0.000300786 6.28658e-05 -0.000565387 -30.1664 -406.899 56.7802 0.0025 
113 1 1 -0.200946 -0.0138794 -0.189939 0 0 0 -0.996963 0.146413 -0.429337 -3.99242e-05 1.10525e-05 -0.0001162 -177.196 -705.129 171.551 0.0015 
50 1 1 -0.198341 -0.0115319 -0.189107 0 0 0 -0.934394 0.0300833 -0.390711 -2.4056e-05 6.583e-06 -0.000167184 9.67475 -685.565 -76.2054 0.0015 
28 1 1 -0.196334 -0.00781468 -0.187575 0 0 0 -0.996712 0.136193 -0.414363 0 0 -0.00160516 -79.5072 -425.761 50.4869 0.0025 
56 1 1 -0.197824 0.00735611 -0.189303 0 0 0 -0.977414 -0.027064 -0.420742 -8.88686e-05 -1.9583e-05 -3.98701e-05 -2.91471 -716.761 52.8762 0.0015 
49 1 1 -0.19708 0.0132285 -0.188405 0 0 0 -0.964358 0.0139351 -0.399419 -3.0609e-05 -8.30966e-06 -0.000118044 38.5492 -687.297 -117.397 0.0015 
42 1 1 -0.202396 0.0206492 -0.188759 0 0 0 -1.07949 -0.157254 -0.459816 0.000143357 3.95098e-05 -0.00165102 85.6381 -464.536 -42.0884 0.0025 
79 1 1 -0.217654 -0.0500851 -0.186587 0 0 0 -1.20181 0.118818 -0.514144 -9.24503e-06 1.55067e-06 -0.0013416 -92.159 -509.997 98.2636 0.0025 
138 1 1 -0.201516 -0.0371235 -0.185832 0 0 0 -1.28489 0.119674 -0.55087 -7.64803e-05 4.53136e-05 -4.8118e-05 -150.983 -910.599 154.33 0.0015 
25 1 1 -0.186492 -0.00425891 -0.18453 0 0 0 -0.934393 0.0778197 -0.40191 -8.98137e-05 3.15188e-06 -3.74924e-05 -104.099 -676.544 111.036 0.0015 
96 1 1 -0.192845 0.00932794 -0.186393 0 0 0 -1.11412 -0.0174482 -0.44896 0 0 -0.000346714 96.4053 -433.439 -270.653 0.0015 
55 1 1 -0.197301 0.0202932 -0.18669 0 0 0 -1.02694 0.132818 -0.410676 -0.000378602 -9.05166e-05 -0.000256877 -59.8904 -447.271 5.00552 0.0025 
46 1 1 -0.191219 0.0201911 -0.185266 0 0 0 -0.975291 0.0593297 -0.405547 7.68285e-05 2.02061e-05 -0.000528098 -17.7297 -702.754 -60.4717 0.0015 
87 1 1 -0.183348 -0.0174799 -0.182158 0 0 0 -0.890989 -0.112485 -0.345093 2.89613e-05 4.44409e-05 3.80105e-05 42.1757 -169.807 51.4306 0.0015 
60 1 1 -0.183582 -0.00948502 -0.183203 0 0 0 -0.930144 -0.0394365 -0.396722 0.000170851 -1.8029e-05 0.00122135 59.8396 -678.38 -73.7582 0.0015 
39 1 1 -0.180762 -0.00774871 -0.180933 0 0 0 -0.976042 -0.0377329 -0.413706 -0.000152767 -4.68867e-05 -0.00109502 24.2556 -424.557 -17.886 0.0025 
81 1 1 -0.182156 -0.0018759 -0.182363 0 0 0 -0.900223 0.0628593 -0.37347 0 0 -0.000346714 -51.9407 -240.602 -44.4071 0.0015 
19 1 1 -0.184731 0.0132529 -0.183183 0 0 0 -0.940036 -0.0288287 -0.394794 -8.76195e-05 -1.88361e-05 -3.84174e-05 29.2531 -679.943 -20.0064 0.0015 
40 1 1 -0.185602 0.0264968 -0.180541 0 0 0 -0.987631 0.109826 -0.393296 -0.000405991 -0.000193262 -0.000194194 -60.8684 -442.23 29.2868 0.0025 
78 1 1 -0.192821 0.030934 -0.182619 0 0 0 -1.03821 0.0728924 -0.412893 -0.00038974 -0.000197404 -0.000190439 -13.4801 -448.31 -45.2247 0.0025 
107 1 1 -0.181422 -0.0236877 -0.179477 0 0 0 -1.04642 0.0069778 -0.441512 0 0 -0.00160516 -0.40544 -461.667 -4.03846 0.0025 
1 1 1 -0.173664 -0.0149308 -0.177432 0 0 0 -0.923928 -0.00541348 -0.356669 2.40359e-05 -4.53045e-05 -0.00185113 -42.5465 -385.714 113.083 0.0025 
111 1 1 -0.17624 -0.0128661 -0.179796 0 0 0 -0.926355 -0.0137601 -0.36795 5.38683e-05 -2.1289e-05 -0.000440763 -24.3206 -658.717 85.9192 0.0015 
33 1 1 -0.170055 0.00924042 -0.17733 0 0 0 -0.871732 -0.0331158 -0.330214 0 0 -0.000346714 -31.1055 -533.506 -122.867 0.0015 
102 1 1 -0.180484 0.0245994 -0.179872 0 0 0 -0.976164 0.220176 -0.365076 -4.27382e-05 -1.66811e-05 -0.000157847 -128.074 -701.683 -81.2723 0.0015 
99 1 1 -0.174914 0.0225211 -0.177869 0 0 0 -0.894349 -0.00175823 -0.375429 0 0 -0.000346714 -44.742 -2.03388 -15.1737 0.0015 
43 1 1 -0.177679 0.0258546 -0.178444 0 0 0 -0.916819 0.221342 -0.335054 3.0588e-05 -5.2107e-05 6.07516e-05 -114.547 -123.076 -220.036 0.0015 
174 1 1 -0.182115 -0.0451029 -0.17515 0 0 0 -1.1614 -0.282859 -0.371262 0 0 -0.000346714 95.8142 -759.302 313.947 0.0015 
53 1 1 -0.167675 0.00011344 -0.175638 0 0 0 -0.808128 0.127008 -0.34048 -0.00142588 -7.03992e-05 0.00263002 -33.3075 -351.489 -53.3813 0.0025 
29 1 1 -0.168155 0.0056764 -0.175755 0 0 0 -0.892138 -0.0411725 -0.369576 -0.000378252 -7.99569e-05 -0.000213281 51.1323 -380.214 -81.1004 0.0025 
69 1 1 -0.175701 0.00790232 -0.176778 0 0 0 -0.994418 0.140158 -0.733631 0 0 -0.000346714 -233.452 13.4391 -106.184 0.0015 
88 1 1 -0.162784 0.0103612 -0.17423 0 0 0 -0.836856 -0.0653631 -0.34883 -8.6446e-05 -1.82046e-05 -3.6783e-05 52.0869 -604.22 -11.7408 0.0015 
70 1 1 -0.168467 0.01161 -0.176337 0 0 0 -0.866658 -0.0238771 -0.215568 0 0 -0.000346714 -35.0899 -552.753 -93.1963 0.0015 
27 1 1 -0.157997 -0.01912 -0.170307 0 0 0 -0.884093 -0.100883 -0.359699 0 0 -0.00160516 48.5596 -386.574 -10.1608 0.0025 
84 1 1 -0.152167 -0.0105493 -0.169829 0 0 0 -0.706547 -0.12635 -0.294135 0 0 -0.000346714 66.9618 -507.696 58.7814 0.0015 
98 1 1 -0.151647 -0.00724465 -0.1698 0 0 0 -0.814862 -0.119598 -0.341191 -0.00031337 4.33483e-05 0.000347068 62.2572 -590.085 57.3474 0.0015 
108 1 1 -0.152656 0.00166294 -0.169375 0 0 0 -0.829335 0.0895604 -0.293601 0 0 -0.000346714 -42.8819 -570.004 -57.8847 0.0015 
44 1 1 -0.155306 0.00421346 -0.171399 0 0 0 -0.783757 0.0413146 -0.321925 -8.67813e-05 -2.50816e-06 -3.76394e-05 -29.678 -565.319 -0.30051 0.0015 
80 1 1 -0.159284 0.00780051 -0.171938 0 0 0 -0.695205 0.126688 -0.258413 4.37948e-05 0.000134415 -0.000367777 -56.264 -262.672 -37.6374 0.0025 
54 1 1 -0.154995 0.00955813 -0.170031 0 0 0 -0.594293 0.0242654 -0.264116 -0.00134707 0.00325583 0.0163835 -41.6564 -215.418 -43.7417 0.0025 
64 1 1 -0.164246 0.0130007 -0.169717 0 0 0 -0.897397 0.257541 -0.45252 0 0 -0.000346714 -0.602871 -9.19842 -110.027 0.0015 
58 1 1 -0.158379 0.0156001 -0.171974 0 0 0 -0.793293 -0.032385 -0.336192 -0.000697651 -0.000207587 0.00198282 76.7197 -566.329 -129.658 0.0015 
82 1 1 -0.157593 0.0186962 -0.170828 0 0 0 -0.874082 0.0436579 -0.393574 0 0 -0.000346714 -137.428 -601.025 198.259 0.0015 
34 1 1 -0.197948 0.0657516 -0.171638 0 0 0 -1.10036 -0.00543415 -0.363641 -0.000302943 -0.000615475 0.000531992 108.794 -707.933 -308.935 0.0015 
114 1 1 -0.150699 -0.0306573 -0.16648 0 0 0 -0.945535 -0.0973548 -0.372936 -0.000728402 0.000363626 0.00154975 -0.81547 -658.546 176.133 0.0015 
165 1 1 -0.15752 -0.0253608 -0.167707 0 0 0 -0.977547 -0.0907691 -0.736405 0 0 -0.000346714 212.35 82.0941 25.4295 0.0015 
122 1 1 -0.150785 -0.014656 -0.168947 0 0 0 -0.682599 -0.158602 -0.27556 -8.86783e-05 2.1038e-05 -4.00196e-05 120.662 -498.479 -11.9899 0.0015 
63 1 1 -0.146237 -0.0150995 -0.166959 0 0 0 -0.83756 0.0699632 -0.365075 -8.68098e-05 2.06818e-05 -4.19832e-05 -81.0861 -603.033 70.4769 0.0015 
97 1 1 -0.144971 -0.0106968 -0.166832 0 0 0 -0.7398 0.024429 -0.308026 -8.67081e-05 1.02472e-05 -4.35152e-05 9.81313 -538.063 -66.1477 0.0015 
104 1 1 -0.146552 -0.00652634 -0.166614 0 0 0 -0.815503 0.0195616 -0.339552 -0.000389838 4.6591e-05 -0.00020544 -28.7152 -351.402 48.7213 0.0025 
152 1 1 -0.150031 0.00650374 -0.167278 0 0 0 -0.960513 -0.0823249 -0.339567 0 0 -0.000346714 17.6555 -648.28 92.4566 0.0015 
115 1 1 -0.155981 0.0107433 -0.166345 0 0 0 -1.08052 0.0347468 -0.331547 -0.000757802 -0.00106141 -0.00366328 80.5495 -121.975 98.3948 0.0015 
77 1 1 -0.154522 0.0144637 -0.169209 0 0 0 -0.81941 0.0477023 -0.32248 0.00110655 0.00174053 -0.00126635 -33.6409 -356.276 -8.76143 0.0025 
137 1 1 -0.149803 0.0154833 -0.167918 0 0 0 -0.87882 0.257767 -0.517535 0 0 -0.000346714 -185.05 -586.924 -21.8738 0.0015 
83 1 1 -0.146577 0.0174913 -0.166723 0 0 0 -0.765601 0.0546881 -0.306625 -8.55622e-05 -2.38012e-05 -3.81862e-05 -50.5104 -557.732 26.6427 0.0015 
139 1 1 -0.150505 0.0251364 -0.167341 0 0 0 -0.809075 0.133586 -0.301205 -8.33966e-05 -4.00369e-05 -4.14006e-05 -128.431 -606.245 76.1065 0.0015 
7 1 1 -0.196462 -0.0739576 -0.165828 0 0 0 -0.873089 0.210067 -0.477756 -5.02556e-05 0.000107699 -0.000104736 -287 -545.26 284.715 0.0015 
171 1 1 -0.147941 -0.0359033 -0.162911 0 0 0 -1.00931 0.0478392 -0.347412 0 0 -0.000346714 47.7889 -733.208 -147.982 0.0015 
129 1 1 -0.156043 0.00190161 -0.16498 0 0 0 -1.09949 0.172798 -0.37547 0 0 -0.00160516 107.201 168.895 14.0063 0.0025 
91 1 1 -0.141172 0.00205231 -0.164408 0 0 0 -0.802989 4.68498e-05 -0.329326 -0.000701717 0.00155876 0.00221936 8.72414 -340.928 -49.2079 0.0025 
116 1 1 -0.140389 0.00702024 -0.163626 0 0 0 -0.797148 0.00393647 -0.30427 0 0 -0.00160516 -24.5274 -332.178 4.94514 0.0025 
105 1 1 -0.137038 -0.0254982 -0.160642 0 0 0 -0.949794 -0.0747443 -0.384714 -0.0011928 0.00040597 0.00278996 39.2756 -420.181 -17.5841 0.0025 
66 1 1 -0.133391 -0.0201447 -0.159879 0 0 0 -0.756774 -0.0619811 -0.313563 -0.000408033 0.000141812 -0.000182263 3.69065 -324.202 55.1761 0.0025 
128 1 1 -0.134956 -0.0141883 -0.162297 0 0 0 -0.735632 0.046943 -0.308918 -8.67529e-05 1.96176e-05 -3.78317e-05 -33.6759 -533.117 -0.820322 0.0015 
65 1 1 -0.130035 -0.011054 -0.159396 0 0 0 -0.579481 0.0359586 -0.250673 -0.000416472 7.21972e-05 -0.000173035 36.5452 -261.957 -122.065 0.0025 
95 1 1 -0.127194 -0.00758711 -0.159525 0 0 0 -0.729884 -0.0758256 -0.306875 -9.06428e-05 1.5851e-05 -3.40222e-05 55.8491 -530.945 -1.67119 0.0015 
93 1 1 -0.13461 -0.00393092 -0.161637 0 0 0 -0.654625 -0.0907109 -0.271089 0.000424102 -3.31231e-05 -0.00215964 31.6193 -283.07 18.6416 0.0025 
120 1 1 -0.158418 -0.00194762 -0.162387 0 0 0 -1.14649 0.0165933 -0.446197 0 0 -0.00160516 3.6808 -104.303 -67.8123 0.0025 
163 1 1 -0.125255 -0.0018671 -0.158861 0 0 0 -0.654626 0.00890201 -0.280464 -8.74653e-05 8.93985e-07 -4.36033e-05 44.1503 -475.538 -118.13 0.0015 
166 1 1 -0.133892 0.00167121 -0.162455 0 0 0 -0.815371 -0.123151 -0.379377 0 0 -0.000346714 0.208618 -493.71 -67.8984 0.0015 
103 1 1 -0.132767 0.00543495 -0.160374 0 0 0 -0.894018 -0.0229371 -0.376861 0 0 -0.00160516 3.22168 -354.434 -1.53068 0.0025 
100 1 1 -0.131757 0.0103555 -0.161192 0 0 0 -0.70441 -0.0830425 -0.309767 -9.04795e-05 -1.0628e-05 -3.88753e-05 79.3912 -510.481 -43.6869 0.0015 
185 1 1 -0.128681 0.00818517 -0.159918 0 0 0 -0.735731 0.0489041 -0.251988 0 0 -0.000346714 -68.0899 -440.898 59.1424 0.0015 
13 1 1 -0.136977 0.0129937 -0.161816 0 0 0 -0.709863 -0.0553681 -0.38505 0 0 -0.00160516 37.1625 -224.961 -37.7397 0.0025 
135 1 1 -0.133592 0.0187124 -0.161111 0 0 0 -0.80398 0.0493331 -0.320239 -8.49852e-05 -2.95496e-05 -3.87702e-05 4.26122 -569.994 -98.5064 0.0015 
140 1 1 -0.149298 0.0527699 -0.159284 0 0 0 -0.858147 -0.179136 -0.422114 -7.79592e-05 -8.39068e-05 -5.395e-05 140.364 -662.821 -4.05539 0.0015 
121 1 1 -0.170025 -0.070837 -0.158312 0 0 0 -0.86287 -0.21027 -0.157455 0 0 -0.000346714 200.788 -753.97 -51.8921 0.0015 
74 1 1 -0.138238 -0.0434433 -0.157879 0 0 0 -0.78671 -0.169642 -0.269693 -8.01537e-05 6.21792e-05 -5.28789e-05 147.842 -607.405 -49.1938 0.0015 
159 1 1 -0.126003 -0.00715219 -0.156674 0 0 0 -0.856427 -0.270254 -0.303797 0 0 -0.000346714 199.66 -516.923 30.8919 0.0015 
167 1 1 -0.12727 0.00164127 -0.158656 0 0 0 -0.60562 0.0232009 -0.268005 0.0002636 -0.000361812 0.0033722 37.1768 94.9519 47.2433 0.0025 
73 1 1 -0.118293 0.00342387 -0.155902 0 0 0 -0.669946 0.0552441 -0.287365 -8.22386e-05 8.14927e-07 -5.34311e-05 -52.9847 -486.022 30.1049 0.0015 
110 1 1 -0.128249 0.00542352 -0.156756 0 0 0 -1.08935 -0.00376909 -0.48862 0 0 -0.000346714 117.782 172.996 -82.0191 0.0015 
172 1 1 -0.123741 0.00584131 -0.158056 0 0 0 -0.669615 0.055851 -0.271154 -8.6684e-05 -1.3763e-05 -3.40065e-05 -86.4061 -490.885 112.364 0.0015 
62 1 1 -0.121865 0.0154841 -0.156664 0 0 0 -0.785901 -0.0106512 -0.320238 4.05312e-06 1.97306e-06 -0.000293409 13.8546 -565.764 -15.3412 0.0015 
45 1 1 -0.192705 -0.0605681 -0.155948 0 0 0 -0.806305 -0.42317 -1.07166 0 0 -0.000346714 389.887 -152.585 -138.964 0.0015 
149 1 1 -0.125825 -0.0386745 -0.154292 0 0 0 -0.864399 -0.0883134 -0.329613 -5.92718e-05 4.75701e-05 -8.63461e-05 -9.76604 -591.663 184.15 0.0015 
112 1 1 -0.119743 -0.0333878 -0.152934 0 0 0 -0.820886 -0.055604 -0.327887 -6.60295e-05 3.52127e-05 -8.1431e-05 -79.2376 -541.646 290.423 0.0015 
117 1 1 -0.116597 -0.0223895 -0.152498 0 0 0 -0.861893 -0.00231622 -0.3594 -0.000390658 0.000128836 -0.00020977 -33.4016 -365.496 82.457 0.0025 
15 1 1 -0.133253 -0.0111735 -0.154332 0 0 0 -0.769425 -0.0335983 -0.310388 0 0 -0.00160516 -14.4016 140.45 43.327 0.0025 
131 1 1 -0.118706 -0.0122168 -0.154516 0 0 0 -0.582861 0.0934696 -0.250968 -0.000356299 5.97245e-05 -0.000295993 -68.9977 -248.81 67.5499 0.0025 
127 1 1 -0.115068 -0.0079963 -0.154351 0 0 0 -0.731523 0.0240083 -0.311216 -8.84896e-05 1.40689e-05 -3.8555e-05 -19.4259 -530.536 4.73391 0.0015 
164 1 1 -0.123252 -0.000183253 -0.152473 0 0 0 -1.19376 0.0306965 -0.506892 0 0 -0.000346714 41.7044 52.1454 -131.335 0.0015 
90 1 1 -0.117796 -0.00120961 -0.154557 0 0 0 -0.656694 -0.0137768 -0.299646 0 0 -0.00160516 5.98502 -279.122 -1.52922 0.0025 
132 1 1 -0.114592 0.00255334 -0.153246 0 0 0 -0.61349 -0.0121625 -0.247446 0.000831851 8.66496e-05 -0.00232805 -47.7554 65.9098 -25.9104 0.0025 
123 1 1 -0.116016 0.00593276 -0.154884 0 0 0 -0.588837 0.00784428 -0.238037 -1.46985e-05 -0.000197603 0.000174696 20.2966 -414.102 -46.1647 0.0015 
158 1 1 -0.119522 0.0092278 -0.155026 0 0 0 -0.806963 -0.0189187 -0.330313 -8.47475e-05 -1.03306e-05 -0.00101737 15.252 -348.204 -17.3349 0.0025 
68 1 1 -0.118318 0.0186309 -0.153761 0 0 0 -0.692315 -0.0574533 -0.296838 -0.000350036 -0.000125326 -0.000319518 28.9539 -301.685 -9.21629 0.0025 
92 1 1 -0.118939 0.0314505 -0.151944 0 0 0 -0.670589 0.00897565 -0.274725 -0.000385751 -0.000220779 -0.000211462 15.772 -285.948 -47.8407 0.0025 
67 1 1 -0.125583 0.0323781 -0.154467 0 0 0 -0.632424 0.0918854 -0.239377 -0.000385837 -0.000220802 -0.000211451 -28.0309 -273.065 -30.76 0.0025 
173 1 1 -0.123698 0.0399714 -0.15301 0 0 0 -0.864276 0.0985662 -0.337 -8.08202e-05 -4.57387e-05 -5.08006e-05 -53.6295 -628.067 -46.1141 0.0015 
106 1 1 -0.120227 -0.0370675 -0.151242 0 0 0 -0.830127 -0.0577312 -0.330858 -0.000421359 0.000218986 -0.000133907 6.27353 -356.644 46.4844 0.0025 
177 1 1 -0.109225 -0.030114 -0.149247 0 0 0 -0.634182 -0.0799181 -0.245647 2.64841e-05 6.02371e-05 -1.35402e-05 65.0358 -386.065 -18.3726 0.0015 
101 1 1 -0.108226 -0.0115882 -0.151228 0 0 0 -0.698509 0.121997 -0.301072 -8.80742e-05 1.37103e-05 -3.77089e-05 -40.946 -513.577 -113.108 0.0015 
157 1 1 -0.105028 -0.00948936 -0.148933 0 0 0 -0.793457 0.0641428 -0.340607 -0.000405291 5.99012e-05 -0.000188361 -11.0622 -348.075 -39.7843 0.0025 
59 1 1 -0.104023 -0.00407409 -0.149884 0 0 0 -0.681254 0.164406 -0.284319 -8.00189e-05 -6.76772e-07 -6.19214e-05 -103.058 -492.411 -37.8233 0.0015 
144 1 1 -0.106643 -0.000207241 -0.149892 0 0 0 -0.560179 -0.0183349 -0.175582 0.00161437 -0.000290052 -0.00798625 -35.2952 -235.426 102.501 0.0025 
178 1 1 -0.107991 0.00399858 -0.15073 0 0 0 -0.526369 0.0561125 -0.445984 0 0 -0.000346714 14.1025 157.088 -33.8907 0.0015 
133 1 1 -0.143257 0.0083599 -0.150814 0 0 0 -0.751423 -0.139775 -0.982332 0 0 -0.000346714 165.241 -151.591 -75.0859 0.0015 
151 1 1 -0.115287 0.00757365 -0.151846 0 0 0 -0.741135 0.0283303 -0.373122 0 0 -0.000346714 -88.2947 -468.34 27.2942 0.0015 
119 1 1 -0.104248 0.0132045 -0.148327 0 0 0 -0.610731 -0.0870615 -0.259376 -0.000439528 -2.96891e-05 -0.000168277 61.3128 -261.073 -56.4242 0.0025 
189 1 1 -0.110907 0.0145837 -0.151548 0 0 0 -0.498777 -0.0679146 -0.256454 0 0 -0.000346714 86.6858 -336.729 -47.0596 0.0015 
161 1 1 -0.114419 0.0319154 -0.151073 0 0 0 -0.788959 0.0248681 -0.319799 -8.84117e-05 -5.05426e-05 -3.46418e-05 -6.92201 -576.202 -27.732 0.0015 
130 1 1 -0.124188 0.0457369 -0.150371 0 0 0 -0.734714 -0.00272289 -0.299433 -0.000361933 -0.000295506 -0.000239883 38.4712 -301.71 -91.6518 0.0025 
94 1 1 -0.135541 0.0545594 -0.15188 0 0 0 -0.749897 -0.0762158 -0.329676 -0.000337853 -0.000368988 -0.000292908 69.3361 -310.802 -85.8637 0.0025 
89 1 1 -0.131617 0.0546251 -0.148741 0 0 0 -0.71716 0.112212 -0.26474 0 0 -0.000346714 -99.3176 -457.478 -80.7531 0.0015 
143 1 1 -0.102942 -0.0300735 -0.145535 0 0 0 -0.610136 -0.0574856 -0.243201 -0.000393227 0.000195935 -0.000205403 -27.9928 -242.981 127.664 0.0025 
198 1 1 -0.103091 -0.0216031 -0.147759 0 0 0 -0.76675 -0.025125 -0.425024 0 0 -0.000346714 47.3209 -531.28 -48.4617 0.0015 
243 1 1 -0.111397 -0.0198285 -0.148575 0 0 0 -1.07568 0.00570154 -0.733549 0 0 -0.000346714 -113.631 -740.245 -66.0954 0.0015 
193 1 1 -0.107641 -0.0158748 -0.147054 0 0 0 -0.734216 0.030967 -0.443022 0 0 -0.00160516 15.8455 -148.289 12.942 0.0025 
183 1 1 -0.113157 -0.0117203 -0.149104 0 0 0 -0.9648 -0.364519 -0.696272 0 0 -0.00160516 -86.3109 23.7513 -54.6006 0.0025 
150 1 1 -0.101262 -0.0117666 -0.1474 0 0 0 -0.812996 0.0253715 -0.452769 0 0 -0.000346714 -106.503 -534.354 221.071 0.0015 
153 1 1 -0.113342 -0.00365816 -0.147277 0 0 0 -0.705536 0.108121 -0.951364 0 0 -0.000346714 -107.869 -228.934 95.2028 0.0015 
187 1 1 -0.107702 0.000198934 -0.146015 0 0 0 -1.07012 -0.142016 -0.208247 0 0 -0.000346714 129.443 63.5394 -60.436 0.0015 
155 1 1 -0.101985 0.000949321 -0.147918 0 0 0 -0.564112 0.100443 -0.236089 0.000103752 8.79341e-05 4.05637e-05 -35.9006 -224.233 -25.2777 0.0025 
180 1 1 -0.0972493 0.00154968 -0.145921 0 0 0 -0.536022 0.0396866 -0.227066 5.39201e-05 -0.000284748 5.11105e-06 23.9957 -172.156 -35.024 0.0025 
208 1 1 -0.114563 0.0153017 -0.148496 0 0 0 -0.859262 -0.0122876 -0.784625 0 0 -0.00160516 -1.71969 -272.145 3.15979 0.0025 
204 1 1 -0.119045 0.0208334 -0.146756 0 0 0 -0.965384 0.198399 0.00644456 0 0 -0.000346714 -335.15 193.462 -73.885 0.0015 
148 1 1 -0.0986479 0.0215131 -0.146198 0 0 0 -0.726427 -0.0145535 -0.304033 -8.58766e-05 -3.26342e-05 -4.08294e-05 -40.441 -549.624 122.935 0.0015 
136 1 1 -0.103529 0.0284928 -0.147159 0 0 0 -0.753098 0.0594445 -0.307483 -8.67376e-05 -3.17707e-05 -4.13063e-05 17.6756 -527.997 -145.367 0.0015 
199 1 1 -0.12336 0.0328994 -0.14844 0 0 0 -1.0272 0.346861 -0.535844 0 0 -0.000346714 -449.456 -149.562 -136.866 0.0015 
221 1 1 -0.0966489 -0.0179757 -0.143712 0 0 0 -0.848196 -0.319885 -0.673196 0 0 -0.00160516 256.81 -51.9371 62.6942 0.0025 
191 1 1 -0.0901783 -0.010536 -0.143696 0 0 0 -0.719831 -0.0230347 -0.304159 -8.87186e-05 1.17362e-05 -3.84995e-05 -28.476 -516.296 106.492 0.0015 
168 1 1 -0.094438 -0.00224491 -0.144253 0 0 0 -0.62779 0.00165589 -0.120873 -7.88545e-06 -0.000181111 -0.00167673 -58.7775 -246.711 61.031 0.0025 
124 1 1 -0.0930195 0.00148229 -0.144122 0 0 0 -0.613603 0.0442161 -0.173191 -0.0178275 0.00309076 -0.0616472 -80.8465 -310.512 -13.0126 0.0015 
203 1 1 -0.124653 0.00474815 -0.143174 0 0 0 -1.00175 -0.236512 -0.742464 0 0 -0.000346714 231.67 -102.93 -70.3228 0.0015 
190 1 1 -0.0991309 0.0069269 -0.145261 0 0 0 -0.749428 -0.0168576 -0.877879 0 0 -0.000346714 8.5455 -379.902 -1.22236e-17 0.0015 
192 1 1 -0.0964748 0.00512671 -0.143438 0 0 0 -0.80383 0.426273 -0.763452 0 0 -0.000346714 152.107 213.424 137.352 0.0015 
179 1 1 -0.136669 -0.0797399 -0.140185 0 0 0 -0.833596 -0.24508 -0.0883805 0 0 -0.000346714 149.185 -565.251 210.583 0.0015 
194 1 1 -0.114746 -0.0661984 -0.138498 0 0 0 -0.714571 -0.298586 -0.156357 -0.00047483 0.000519086 -0.000120427 59.9373 -246.827 196.901 0.0025 
181 1 1 -0.0904848 -0.028002 -0.140753 0 0 0 -0.566137 0.038264 -0.24534 -0.000395747 0.000191639 -0.000203068 -48.3311 -234.82 74.9033 0.0025 
126 1 1 -0.0877472 -0.024747 -0.141195 0 0 0 -0.586667 0.0946594 -0.256625 -8.55707e-05 2.60844e-05 -4.16845e-05 -162.414 -398.369 224.38 0.0015 
206 1 1 -0.0862232 -0.0194963 -0.140138 0 0 0 -0.67102 0.101426 -0.296317 -0.000405403 0.000118781 -0.000187107 -59.6061 -289.061 36.0385 0.0025 
226 1 1 -0.0817179 -0.0150895 -0.138897 0 0 0 -0.615513 0.0350057 -0.147136 0 0 -0.000346714 22.369 -416.502 -108.382 0.0015 
205 1 1 -0.0908726 -0.0133321 -0.140108 0 0 0 -0.815239 -0.0522118 -0.419209 0 0 -0.000346714 106.9 -40.6314 -126.353 0.0015 
147 1 1 -0.0807867 -0.0118036 -0.139668 0 0 0 -0.417057 0.0765378 -0.178438 -7.02272e-05 -0.000124008 -5.01061e-05 -23.7921 -284.422 40.8527 0.0015 
218 1 1 -0.082808 -0.00912195 -0.140656 0 0 0 -0.617502 -0.208454 -0.247631 -8.80937e-05 1.10921e-05 -3.7303e-05 142.551 -446.025 19.9909 0.0015 
169 1 1 -0.129935 -0.00502706 -0.14059 0 0 0 -0.840969 -0.00189137 -0.0128484 0 0 -0.00160516 -36.2028 196.873 12.8413 0.0025 
197 1 1 -0.10246 -0.00105466 -0.141841 0 0 0 -0.721327 -0.23483 -0.779748 0 0 -0.000346714 120.035 -368.712 4.36143e-14 0.0015 
182 1 1 -0.0934665 -0.00275095 -0.138764 0 0 0 -0.85754 0.0539311 0.161364 0 0 -0.00160516 70.9026 132.221 40.4185 0.0025 
145 1 1 -0.0850851 -0.00330543 -0.140848 0 0 0 -0.56645 -0.153108 -0.239542 0.000100447 -0.000127735 9.62179e-06 80.6365 -184.918 -9.36274 0.0025 
109 1 1 -0.0788228 -0.00220015 -0.139284 0 0 0 -0.56438 -0.073038 -0.238027 -8.82683e-05 -3.91194e-06 -3.70876e-05 42.5139 -408.728 24.6137 0.0015 
196 1 1 -0.0970705 0.00139532 -0.140206 0 0 0 -0.784082 0.186236 -0.686109 0 0 -0.00160516 -61.7473 -189.061 17.0724 0.0025 
245 1 1 -0.090003 0.0029274 -0.141954 0 0 0 -0.811951 0.218513 -0.762009 0.0178354 -0.00290965 0.0597669 -84.7995 140.796 -11.7499 0.0025 
175 1 1 -0.101781 0.00419422 -0.140528 0 0 0 -0.792836 0.126317 -0.313658 0 0 -0.000346714 -192.689 309.211 113.977 0.0015 
202 1 1 -0.0933436 0.0138581 -0.1391 0 0 0 -1.01411 -0.041114 -0.714967 0 0 -0.000346714 230.258 -168.206 177.623 0.0015 
212 1 1 -0.0861624 0.0159289 -0.140917 0 0 0 -0.806844 0.0104824 -0.310428 0 0 -0.000346714 75.3682 -539.902 -213.97 0.0015 
210 1 1 -0.0906502 0.0253743 -0.141163 0 0 0 -0.822499 -0.115708 -0.365677 -0.000410454 -0.000155376 -0.000173461 81.099 -349.769 -71.7399 0.0025 
214 1 1 -0.0733833 -0.026043 -0.135025 0 0 0 -0.973187 0.0444487 -0.412484 -8.70527e-05 2.51818e-05 -3.95103e-05 18.0278 -722.58 -120.397 0.0015 
188 1 1 -0.0760051 -0.02412 -0.136355 0 0 0 -0.633122 0.0630348 -0.272478 -8.70582e-05 2.51855e-05 -3.94665e-05 14.6797 -478.121 -144.717 0.0015 
223 1 1 -0.076147 -0.00724475 -0.136047 0 0 0 -0.651616 -0.0844132 -0.388671 0 0 -0.000346714 120.283 -364.128 32.9416 0.0015 
251 1 1 -0.0686663 -0.00514821 -0.134878 0 0 0 -0.666032 0.0331778 -0.281239 0 0 -0.000346714 -51.3703 -452.847 79.7744 0.0015 
118 1 1 -0.0742823 -0.0020558 -0.136295 0 0 0 -0.558833 -0.0220348 -0.234752 -0.000408399 -1.80997e-05 -0.000172163 4.0244 -242.852 13.2148 0.0025 
211 1 1 -0.101641 0.000213643 -0.137052 0 0 0 -0.718605 -0.293393 -0.672332 0 0 -0.000346714 149.838 -366.996 5.733e-14 0.0015 
201 1 1 -0.0826873 0.0031245 -0.135501 0 0 0 -0.734862 0.0787749 -0.747114 0.000306349 -0.00130762 0.00266918 -67.654 -323.858 23.9498 0.0015 
242 1 1 -0.0705679 0.000485628 -0.135733 0 0 0 -0.543146 -0.0380558 -0.266251 0 0 -0.000346714 -38.5309 -351.529 44.0516 0.0015 
216 1 1 -0.0842222 0.00382327 -0.137968 0 0 0 -0.718118 -0.235016 -0.876261 -0.000306349 0.00130762 -0.00336261 119.665 -257.197 32.5166 0.0015 
228 1 1 -0.0785012 0.00378657 -0.137783 0 0 0 -0.67746 0.0541136 -0.474475 0 0 -0.000346714 -17.5525 -409.914 -206.145 0.0015 
160 1 1 -0.0711727 0.009586 -0.135821 0 0 0 -0.462023 0.0386963 -0.189079 -8.44503e-05 -1.91731e-05 -4.66933e-05 12.4887 -325.941 -97.1762 0.0015 
244 1 1 -0.0754758 0.0133107 -0.136209 0 0 0 -0.654521 -0.00195106 -0.274059 -0.000167414 0.000706597 0.00130145 -8.2488 -282.773 13.422 0.0025 
276 1 1 -0.0820535 0.0141708 -0.137172 0 0 0 -1.17176 -0.174084 -0.721238 0 0 -0.000346714 170.283 -90.0315 96.912 0.0015 
215 1 1 -0.07265 0.0165939 -0.135097 0 0 0 -0.579997 0.00590662 -0.152415 0 0 -0.000346714 -108.033 -312.843 -47.1002 0.0015 
134 1 1 -0.0796341 0.0387113 -0.134912 0 0 0 -0.370595 0.0866101 -0.130922 0 0 -0.000346714 -26.5208 -233.604 -110.493 0.0015 
9 1 1 -0.108056 0.0704356 -0.134944 0 0 0 -0.516978 -0.102788 -0.254508 -6.38377e-05 -9.54448e-05 -7.93961e-05 82.8011 -417.82 0.546898 0.0015 
176 1 1 -0.0612721 -0.015825 -0.131154 0 0 0 -0.502477 0.102046 -0.223683 1.44434e-05 6.75094e-05 -7.24882e-05 -32.4602 -353.91 -121.333 0.0015 
125 1 1 -0.0629375 -0.0134761 -0.132083 0 0 0 -0.511265 0.097782 -0.219409 -8.7377e-05 9.76638e-06 -3.93794e-05 -64.0687 -370.999 -16.048 0.0015 
275 1 1 -0.0618975 -0.0086213 -0.130568 0 0 0 -0.624961 -0.0611086 -0.125619 0 0 -0.000346714 194.756 -184.596 -86.1923 0.0015 
195 1 1 -0.0656144 -0.00609075 -0.13246 0 0 0 -0.666883 -0.0100624 -0.281955 0 0 -0.00160516 -2.48597 -248.084 63.1973 0.0025 
232 1 1 -0.0897476 -0.000549626 -0.133789 0 0 0 -0.723901 -0.198231 -0.615184 0 0 -0.00160516 85.2143 -239.278 32.347 0.0025 
217 1 1 -0.0707339 0.00302753 -0.133655 0 0 0 -0.757957 3.09338e-05 -0.175447 0 0 -0.000346714 26.4178 -406.955 -73.7642 0.0015 
170 1 1 -0.0617825 0.00417095 -0.130896 0 0 0 -0.540568 -0.0319381 -0.228344 -0.000273563 -0.000181985 -0.000196985 17.5569 -234.748 -9.18143 0.0025 
224 1 1 -0.0721274 0.00814061 -0.132251 0 0 0 -0.924737 0.00896411 -0.354364 0 0 -0.000346714 1.58098 -193.09 97.1135 0.0015 