ITEM: TIMESTEP
69600
ITEM: NUMBER OF ATOMS
793
ITEM: BOX BOUNDS ff ff ff
-0.5 0.1
-0.2 0.2
-0.4 0.15
ITEM: ATOMS id type type x y z ix iy iz vx vy vz fx fy fz omegax omegay omegaz radius 
891 1 1 -0.034281 0.0210612 0.0541859 0 0 0 -0 0 -1 0 0 0 0 0 0 0.0015 
885 1 1 -0.0080272 0.0132344 0.0530411 0 0 0 -0 0 -1 0 0 0 0 0 0 0.0025 
886 1 1 -0.0343098 0.0280673 0.0554819 0 0 0 -0 0 -1 0 0 0 0 0 0 0.0025 
888 1 1 -0.0217978 -0.0317125 0.0550848 0 0 0 -0 0 -1 0 0 0 0 0 0 0.0025 
890 1 1 -0.0163926 0.0332374 0.0512081 0 0 0 -0 0 -1 0 0 0 0 0 0 0.0015 
889 1 1 -0.0272337 -0.0100453 0.0513567 0 0 0 -0 0 -1 0 0 0 0 0 0 0.0015 
892 1 1 -0.0311912 -0.00567439 0.0519267 0 0 0 -0 0 -1 0 0 0 0 0 0 0.0015 
149 1 1 -0.488351 -0.019079 -0.398417 0 0 0 -1.20059 0.0745144 -1.84176 0 0 -0.000346714 -89.3031 -861.97 98.2465 0.0015 
74 1 1 -0.485208 -0.000777551 -0.394037 0 0 0 -1.19736 0.266259 -1.83597 0 0 -0.000346714 -179.356 -904.898 -38.5655 0.0015 
83 1 1 -0.473788 0.0246434 -0.394178 0 0 0 -1.10116 0.00492353 -1.80219 0 0 -0.000346714 -12.1613 -813.412 18.5196 0.0015 
66 1 1 -0.492578 -0.00211076 -0.391138 0 0 0 -1.28537 0.0777282 -1.78369 0 0 -0.00160516 87.1001 -437.028 198.78 0.0025 
116 1 1 -0.475429 -0.0122031 -0.385837 0 0 0 -1.17487 -0.0751396 -1.75199 0 0 -0.00160516 38.9938 -497.86 4.88896 0.0025 
133 1 1 -0.451904 -0.0457495 -0.382576 0 0 0 -0.88396 -0.0592736 -1.72581 0 0 -0.000346714 -9.68419 -615.26 140.855 0.0015 
62 1 1 -0.475662 0.00600645 -0.383291 0 0 0 -1.22943 -0.0560851 -1.75079 0 0 -0.000346714 58.0721 -895.93 -40.99 0.0015 
179 1 1 -0.455134 0.0119008 -0.385869 0 0 0 -1.07154 0.538975 -1.90476 0 0 -0.000346714 -521.433 -757.262 213.055 0.0015 
100 1 1 -0.473561 -0.0194486 -0.378637 0 0 0 -1.21133 -0.0835917 -1.71092 0 0 -0.000346714 77.6811 -875.877 -41.6933 0.0015 
106 1 1 -0.494091 -0.00660523 -0.379441 0 0 0 -1.30373 0.0810737 -1.68835 0 0 -0.00160516 -21.3255 -529.621 87.5652 0.0025 
185 1 1 -0.463903 -0.00643108 -0.379752 0 0 0 -1.13494 -0.0682258 -1.73305 0 0 -0.000346714 38.1454 -732.308 86.7896 0.0015 
94 1 1 -0.480787 -0.0101739 -0.376145 0 0 0 -1.17995 -0.0823339 -1.62786 0 0 -0.00160516 23.4741 -455.182 -153.871 0.0025 
128 1 1 -0.465051 -0.00883853 -0.375774 0 0 0 -1.14817 -0.0638436 -1.67591 0 0 -0.000346714 11.9702 -723.931 26.743 0.0015 
203 1 1 -0.455245 -0.0180928 -0.374939 0 0 0 -1.02773 -0.162521 -1.72173 0 0 -0.000346714 -32.8074 -744.114 -97.5735 0.0015 
54 1 1 -0.458763 0.00285454 -0.374079 0 0 0 -1.09805 -0.0500744 -1.68534 0 0 -0.00160516 39.2195 -475.791 -40.5462 0.0025 
158 1 1 -0.466755 -0.00979173 -0.370957 0 0 0 -1.18623 -0.0522831 -1.701 0 0 -0.00160516 10.2226 -483.236 40.6446 0.0025 
89 1 1 -0.454037 -0.0102461 -0.368727 0 0 0 -1.13108 -0.342886 -1.69878 0 0 -0.000346714 292.773 -820.8 -86.9371 0.0015 
93 1 1 -0.468364 -0.0145162 -0.365849 0 0 0 -1.24383 -0.0567742 -1.60491 0 0 -0.00160516 -15.2321 -486.66 91.1171 0.0025 
112 1 1 -0.463697 -0.0150143 -0.368041 0 0 0 -1.25116 0.0177169 -1.76647 0 0 -0.000346714 57.3328 -558.85 385.875 0.0015 
13 1 1 -0.457805 -0.0123869 -0.366606 0 0 0 -1.1304 -0.0348486 -1.65423 0 0 -0.00160516 74.1335 -492.073 -31.9773 0.0025 
269 1 1 -0.465753 0.00851674 -0.366523 0 0 0 -1.28197 -0.00784036 -1.66724 0 0 -0.000346714 126.428 -909.389 -185.444 0.0015 
130 1 1 -0.4651 -0.0050285 -0.361311 0 0 0 -1.19787 -0.129305 -1.60154 0 0 -0.00160516 64.5069 -519.33 -75.6691 0.0025 
243 1 1 -0.459393 0.0152163 -0.362284 0 0 0 -1.20826 0.213882 -1.62145 0 0 -0.000346714 -205.047 -857.591 128.246 0.0015 
159 1 1 -0.447019 -0.00396477 -0.357175 0 0 0 -1.09726 0.144829 -1.59803 0 0 -0.000346714 -70.3077 -799.299 -45.3437 0.0015 
256 1 1 -0.461206 -0.0106698 -0.353686 0 0 0 -1.235 0.159882 -1.46487 0 0 -0.000346714 -70.7916 -791.862 62.1996 0.0015 
68 1 1 -0.452751 0.00137635 -0.35666 0 0 0 -1.1539 -0.0331372 -1.58117 0 0 -0.00160516 15.0556 -483.325 -36.6526 0.0025 
199 1 1 -0.432838 0.00853513 -0.355676 0 0 0 -1.08435 -0.061576 -1.62985 0 0 -0.000346714 403.501 -676.786 42.8433 0.0015 
196 1 1 -0.458064 0.0221885 -0.355562 0 0 0 -1.21401 -0.0146728 -1.5997 0 0 -0.00160516 17.0199 -530.87 -25.7927 0.0025 
233 1 1 -0.457552 -0.00463011 -0.351014 0 0 0 -1.23505 0.160675 -1.56428 0 0 -0.00160516 -106.123 -516.404 94.0733 0.0025 
190 1 1 -0.447076 0.0186828 -0.351343 0 0 0 -1.13495 0.0081687 -1.54942 0 0 -0.000346714 -12.7155 -837.309 14.3686 0.0015 
173 1 1 -0.432187 0.00471981 -0.346793 0 0 0 -1.09788 -0.151981 -1.5696 0 0 -0.000346714 272.386 -707.869 -24.3477 0.0015 
110 1 1 -0.426147 -0.0180372 -0.343287 0 0 0 -0.938657 -0.136414 -1.45947 0 0 -0.000346714 17.4258 -542.259 -2.09917 0.0015 
169 1 1 -0.425559 0.00348922 -0.340124 0 0 0 -0.993969 -0.0523926 -1.51573 0 0 -0.00160516 -74.29 -423.412 -21.6146 0.0025 
289 1 1 -0.419244 0.0174666 -0.341741 0 0 0 -1.01351 -0.0734463 -1.55369 0 0 -0.000346714 -9.09044 -543.624 102.941 0.0015 
194 1 1 -0.430196 0.00265065 -0.334592 0 0 0 -1.10952 0.496096 -1.55575 0 0 -0.00160516 -298.467 -421.307 192.778 0.0025 
65 1 1 -0.422377 -0.00828742 -0.327462 0 0 0 -1.02736 -0.0275412 -1.36939 0 0 -0.00160516 36.4644 -448.4 -58.5931 0.0025 
184 1 1 -0.435806 -0.000540792 -0.328369 0 0 0 -1.27399 -0.271361 -1.41076 0 0 -0.000346714 213.733 -888.409 -42.4456 0.0015 
163 1 1 -0.4181 0.00286076 -0.330025 0 0 0 -1.01231 0.0128169 -1.39508 0 0 -0.000346714 31.6847 -707.681 7.95581 0.0015 
67 1 1 -0.433724 0.00936535 -0.330491 0 0 0 -1.15993 -0.025382 -1.37837 0 0 -0.00160516 75.5539 -398.094 -46.3078 0.0025 
204 1 1 -0.423352 0.0194034 -0.330215 0 0 0 -0.99054 -0.185185 -1.43881 0 0 -0.000346714 209.691 -691.083 -169.486 0.0015 
150 1 1 -0.426626 -0.0299704 -0.325914 0 0 0 -1.1301 -0.0472229 -1.39725 0 0 -0.000346714 -99.481 -786.221 286.276 0.0015 
187 1 1 -0.426278 -0.00312998 -0.325058 0 0 0 -1.03602 -0.166614 -1.33413 0 0 -0.000346714 -94.216 -487.749 108.677 0.0015 
151 1 1 -0.425818 0.00513422 -0.327045 0 0 0 -1.09504 0.00521485 -1.36683 0 0 -0.000346714 -73.6914 -748.728 -85.419 0.0015 
131 1 1 -0.421224 -0.000492664 -0.322344 0 0 0 -1.06047 0.0127585 -1.33126 0 0 -0.00160516 -21.5098 -451.351 42.9886 0.0025 
95 1 1 -0.416026 0.00704647 -0.323095 0 0 0 -1.01777 0.0447613 -1.33381 0 0 -0.000346714 -79.8216 -745.486 109.778 0.0015 
143 1 1 -0.425195 -0.00154775 -0.318872 0 0 0 -1.20098 0.209653 -1.354 0 0 -0.00160516 -144.076 -500.166 126.817 0.0025 
90 1 1 -0.414781 -0.00128553 -0.319622 0 0 0 -1.04056 0.00988612 -1.32344 0 0 -0.00160516 10.5195 -430.119 -30.2997 0.0025 
148 1 1 -0.405881 0.00718248 -0.319393 0 0 0 -0.891873 -0.0193385 -1.35191 0 0 -0.000346714 289.653 -341.242 14.0345 0.0015 
177 1 1 -0.417251 -0.00594664 -0.314172 0 0 0 -1.14715 0.132664 -1.29674 0 0 -0.000346714 -58.4485 -848.324 -95.2034 0.0015 
136 1 1 -0.420945 0.00365534 -0.314936 0 0 0 -1.0506 -0.0410702 -1.24803 0 0 -0.000346714 -18.4602 -729.004 -118.572 0.0015 
172 1 1 -0.393094 0.0154659 -0.314222 0 0 0 -0.764985 0.0184259 -1.2459 0 0 -0.000346714 -36.3449 -204.036 -265.701 0.0015 
161 1 1 -0.399582 0.00291578 -0.311912 0 0 0 -0.97153 -0.167016 -1.35869 0 0 -0.000346714 -239.173 -98.2788 84.1176 0.0015 
214 1 1 -0.415159 -0.029865 -0.307763 0 0 0 -1.18569 0.111194 -1.32492 0 0 -0.000346714 -83.0994 -915.365 -4.93271 0.0015 
175 1 1 -0.41081 -0.00495566 -0.306236 0 0 0 -1.02761 -0.216481 -1.12208 0 0 -0.000346714 187.482 -634.926 88.5663 0.0015 
210 1 1 -0.411097 0.0163051 -0.307624 0 0 0 -1.11113 -0.00942351 -1.24658 0 0 -0.00160516 37.4291 -475.028 -78.8357 0.0025 
198 1 1 -0.41973 -0.0301684 -0.30544 0 0 0 -1.13758 0.116921 -1.25796 0 0 -0.000346714 -80.478 -897.555 -10.3047 0.0015 
153 1 1 -0.400063 -0.0048326 -0.302174 0 0 0 -1.01583 -0.0284624 -1.16317 0 0 -0.000346714 -45.0149 -722.203 160.275 0.0015 
212 1 1 -0.413724 0.0282068 -0.301759 0 0 0 -1.21134 -0.064005 -1.23806 0 0 -0.000346714 143.661 -835.886 -232.941 0.0015 
221 1 1 -0.407126 -0.0230741 -0.296369 0 0 0 -1.19685 0.0788713 -1.19651 0 0 -0.00160516 46.1343 -420.092 62.5528 0.0025 
15 1 1 -0.390668 -0.0113547 -0.296944 0 0 0 -1.00466 0.0302447 -1.18065 0 0 -0.00160516 -52.1407 -288.095 58.0442 0.0025 
167 1 1 -0.393663 -0.00374517 -0.295383 0 0 0 -0.984101 -0.00310899 -1.1092 0 0 -0.00160516 3.00523 -426.073 -3.53896 0.0025 
123 1 1 -0.394275 0.00626608 -0.295037 0 0 0 -1.05613 0.0224199 -1.11623 0 0 -0.000346714 3.88147 -763.446 -47.503 0.0015 
192 1 1 -0.395824 0.0129454 -0.290437 0 0 0 -0.95046 -0.0112632 -0.978665 0 0 -0.000346714 -36.2216 -534.449 -89.5178 0.0015 
224 1 1 -0.400659 0.0181066 -0.293022 0 0 0 -1.21595 -0.0697075 -1.14901 0 0 -0.000346714 69.4761 -885.323 -44.1922 0.0015 
200 1 1 -0.37806 -0.0283946 -0.289373 0 0 0 -0.763939 -0.0851092 -1.12947 0 0 -0.000346714 -272.422 -116.611 -16.6336 0.0015 
205 1 1 -0.39055 -0.0167787 -0.290176 0 0 0 -1.0625 -0.0173898 -1.12711 0 0 -0.000346714 -10.5004 -705.017 -133.94 0.0015 
219 1 1 -0.389026 -0.0126403 -0.287348 0 0 0 -1.11082 0.0553876 -1.08836 0 0 -0.00160516 -57.456 -407.681 66.7014 0.0025 
213 1 1 -0.380972 -0.002281 -0.289546 0 0 0 -0.923552 -0.00290206 -1.06206 0 0 -0.000346714 12.4447 -326.308 43.9774 0.0015 
73 1 1 -0.382116 0.00136334 -0.289606 0 0 0 -0.973773 0.0164436 -1.08467 0 0 -0.000346714 -25.3215 -617.309 8.82711 0.0015 
208 1 1 -0.391162 0.0158177 -0.289692 0 0 0 -1.04016 0.013282 -1.07922 0 0 -0.00160516 4.40502 -454.321 -25.219 0.0025 
265 1 1 -0.400002 0.0405205 -0.293213 0 0 0 -0.987278 -0.431775 -1.53573 0 0 -0.000346714 641.773 -429.402 -512.99 0.0015 
183 1 1 -0.386941 -0.00422026 -0.284966 0 0 0 -1.01851 0.140764 -1.01835 0 0 -0.00160516 -26.3056 -327.74 -9.61479 0.0025 
119 1 1 -0.389566 0.0045302 -0.286979 0 0 0 -1.11678 -0.00630556 -1.06462 0 0 -0.00160516 -1.58639 -487.378 9.75291 0.0025 
132 1 1 -0.379907 0.00437999 -0.284636 0 0 0 -0.990237 0.0675224 -1.03831 0 0 -0.00160516 14.8907 -289.595 2.05263 0.0025 
244 1 1 -0.390189 0.014194 -0.284946 0 0 0 -1.16282 0.00938645 -1.05631 0 0 -0.00160516 25.7538 -499.402 -71.0578 0.0025 
193 1 1 -0.375891 -0.0261944 -0.280008 0 0 0 -0.852717 -0.0765502 -1.02754 0 0 -0.00160516 -19.0268 -313.611 44.2248 0.0025 
157 1 1 -0.379509 -0.0188225 -0.281298 0 0 0 -0.847013 0.0631745 -0.951696 0 0 -0.00160516 -15.3931 -351.929 -8.20579 0.0025 
197 1 1 -0.371055 -0.00756656 -0.281878 0 0 0 -0.781164 -0.00802137 -0.953639 0 0 -0.000346714 17.1181 -481.313 -11.8934 0.0015 
101 1 1 -0.368049 -0.0076676 -0.280698 0 0 0 -0.756817 -0.0902203 -1.07387 0 0 -0.000346714 -28.3705 -280.433 -43.8822 0.0015 
189 1 1 -0.381662 -0.00727574 -0.281639 0 0 0 -0.974528 -0.0587685 -0.955634 0 0 -0.000346714 106.442 -651.39 -29.6752 0.0015 
191 1 1 -0.379633 -0.00151546 -0.280491 0 0 0 -1.00926 0.01231 -0.994922 0 0 -0.000346714 -143.128 -351.733 81.2902 0.0015 
144 1 1 -0.375218 0.000706789 -0.280403 0 0 0 -0.983795 0.0215203 -1.00357 0 0 -0.00160516 -59.7677 -370.271 50.4024 0.0025 
293 1 1 -0.394445 0.0304666 -0.280824 0 0 0 -1.28315 -0.110707 -1.09058 0 0 -0.000346714 82.9603 -969.846 -0.631742 0.0015 
262 1 1 -0.397438 0.0355269 -0.282228 0 0 0 -1.28094 0.124041 -1.04355 0 0 -0.000346714 -57.362 -937.353 -91.2237 0.0015 
218 1 1 -0.380492 -0.0147894 -0.276638 0 0 0 -1.16241 0.0733094 -0.974181 0 0 -0.000346714 -40.6898 -856.813 -30.7497 0.0015 
127 1 1 -0.370015 -0.0128467 -0.276784 0 0 0 -0.831664 -0.0487669 -0.897977 0 0 -0.000346714 12.3567 -579.139 19.1742 0.0015 
181 1 1 -0.368136 -0.00403377 -0.277103 0 0 0 -0.948338 0.0556168 -0.99624 0 0 -0.00160516 -147.893 -232.712 -9.95269 0.0025 
155 1 1 -0.372773 0.00365916 -0.276181 0 0 0 -1.02435 0.0338799 -0.965368 0 0 -0.00160516 1.55192 -349.204 26.4785 0.0025 
9 1 1 -0.376291 0.0056701 -0.27652 0 0 0 -1.03234 0.05283 -0.908073 0 0 -0.000346714 6.86682 -694.063 -113.314 0.0015 
178 1 1 -0.368432 0.00748242 -0.278 0 0 0 -0.875148 0.0330808 -0.999471 0 0 -0.000346714 -54.1508 -599.63 39.6465 0.0015 
259 1 1 -0.383973 -0.018577 -0.272029 0 0 0 -1.22873 0.123982 -0.879115 0 0 -0.00160516 -68.6659 -469.939 35.8833 0.0025 
182 1 1 -0.367974 -0.0115125 -0.271876 0 0 0 -0.874703 0.00117447 -0.856723 0 0 -0.00160516 -24.6677 -371.655 66.7302 0.0025 
59 1 1 -0.368438 -0.00804668 -0.274279 0 0 0 -0.838481 0.00623968 -0.890661 0 0 -0.000346714 -35.7349 121.694 7.76013 0.0015 
206 1 1 -0.374108 -0.00124701 -0.273365 0 0 0 -0.976405 0.0758532 -0.911136 0 0 -0.00160516 -17.202 -170.623 4.82597 0.0025 
92 1 1 -0.429629 0.00308387 -0.273715 0 0 0 -1.09837 -0.0974242 -0.905024 0 0 -0.00160516 13.3064 -107.421 -112.37 0.0025 
276 1 1 -0.374279 0.00785495 -0.272288 0 0 0 -1.10948 -0.0420042 -0.85309 0 0 -0.000346714 27.7378 -715.581 -0.74492 0.0015 
228 1 1 -0.373136 0.01553 -0.272228 0 0 0 -1.11224 0.00178354 -0.91308 0 0 -0.000346714 75.8592 -782.056 -182.758 0.0015 
188 1 1 -0.377178 -0.022194 -0.270008 0 0 0 -1.18406 0.110762 -0.91209 0 0 -0.000346714 -65.3032 -893.373 -32.5978 0.0015 
211 1 1 -0.356613 -0.0199424 -0.268935 0 0 0 -0.873726 -0.101697 -0.9845 0 0 -0.000346714 -178.623 -327.611 8.8973 0.0015 
225 1 1 -0.363334 -0.0146957 -0.266407 0 0 0 -0.962436 0.00897913 -0.809328 0 0 -0.000346714 23.763 -718.116 -73.3922 0.0015 
216 1 1 -0.356791 -0.00143243 -0.264731 0 0 0 -0.938118 0.00973268 -0.810587 0 0 -0.000346714 -183.288 -637.657 -39.8282 0.0015 
180 1 1 -0.371408 0.00329031 -0.267737 0 0 0 -1.07507 0.109286 -0.798664 0 0 -0.00160516 -2.30228 -398.032 -60.2754 0.0025 
145 1 1 -0.364119 0.00382436 -0.265539 0 0 0 -0.961799 0.221409 -0.784084 0 0 -0.00160516 -76.3318 -385.074 -25.0555 0.0025 
126 1 1 -0.360176 0.000495292 -0.265526 0 0 0 -0.969099 0.0755784 -0.802311 0 0 -0.000346714 -19.0477 -663.005 -79.6916 0.0015 
305 1 1 -0.369992 0.027061 -0.267991 0 0 0 -1.09384 -0.102151 -0.983462 0 0 -0.000346714 -1.1303 -780.799 -101.29 0.0015 
258 1 1 -0.371075 0.0331615 -0.267714 0 0 0 -1.16534 0.062507 -1.10977 0 0 -0.00160516 -11.6734 176.405 -22.5778 0.0025 
168 1 1 -0.358769 -0.00429982 -0.262366 0 0 0 -0.970647 0.0401124 -0.762424 0 0 -0.00160516 -36.0981 -414.182 40.4275 0.0025 
202 1 1 -0.358958 0.00310975 -0.261216 0 0 0 -1.04816 0.0527132 -0.717211 0 0 -0.000346714 -93.445 -717.384 28.3075 0.0015 
253 1 1 -0.364233 0.0285169 -0.261351 0 0 0 -1.09504 -0.113846 -0.841594 0 0 -0.000346714 187.587 -742.933 -247.5 0.0015 
272 1 1 -0.368658 0.0431418 -0.264476 0 0 0 -0.999806 0.285492 -0.914128 0 0 -0.00160516 9.75074 -59.5008 -143.463 0.0025 
232 1 1 -0.360295 -0.0149922 -0.258803 0 0 0 -1.0912 -0.00281361 -0.707775 0 0 -0.00160516 0.912803 -446.291 -12.5083 0.0025 
268 1 1 -0.354141 0.00249284 -0.259772 0 0 0 -1.06849 -0.0813625 -0.751406 0 0 -0.000346714 90.5287 -770.654 -73.7222 0.0015 
217 1 1 -0.356117 0.0288074 -0.258343 0 0 0 -0.979047 0.0482316 -0.752965 0 0 -0.000346714 -62.3769 -710.188 -149.895 0.0015 
287 1 1 -0.366644 0.0402798 -0.257821 0 0 0 -1.07163 0.0470492 -0.76685 0 0 -0.000346714 29.6621 -756.413 -180.337 0.0015 
215 1 1 -0.343817 0.00603655 -0.254598 0 0 0 -0.951175 -0.00526021 -0.682238 0 0 -0.000346714 81.017 -671.859 56.629 0.0015 
239 1 1 -0.345075 0.0136865 -0.253371 0 0 0 -0.961078 -0.0352204 -0.641557 0 0 -0.000346714 87.1321 -678.422 -144.801 0.0015 
156 1 1 -0.351675 0.0189306 -0.254326 0 0 0 -1.13536 -0.146372 -0.749192 0 0 -0.00160516 104.231 -482.863 -93.3553 0.0025 
245 1 1 -0.355938 0.0218515 -0.256375 0 0 0 -1.16725 -0.179685 -0.807375 0 0 -0.00160516 98.8841 -514.922 -43.4747 0.0025 
296 1 1 -0.361676 0.0329318 -0.256125 0 0 0 -1.14681 0.0735282 -0.753273 0 0 -0.00160516 19.6271 -471.011 -120.325 0.0025 
147 1 1 -0.34227 -0.0107203 -0.251439 0 0 0 -1.02829 -0.0381294 -0.610935 0 0 -0.000346714 16.1649 -640.133 56.1681 0.0015 
247 1 1 -0.340897 -0.00571972 -0.250078 0 0 0 -0.932008 -0.0252074 -0.571115 0 0 -0.00160516 -1.36802 -401.64 30.0268 0.0025 
109 1 1 -0.336912 -0.00486384 -0.249019 0 0 0 -0.91466 -0.0674199 -0.547093 0 0 -0.000346714 111.868 -222.572 118.383 0.0015 
274 1 1 -0.342617 0.00260474 -0.251953 0 0 0 -0.950556 0.000203931 -0.631609 0 0 -0.00160516 -35.2937 -287.224 55.6583 0.0025 
124 1 1 -0.337339 0.00180188 -0.249509 0 0 0 -0.910503 0.123455 -0.536539 0 0 -0.000346714 29.1477 -401.41 -102.923 0.0015 
281 1 1 -0.336398 0.00572701 -0.250369 0 0 0 -0.938499 -0.0681349 -0.660601 0 0 -0.000346714 -235.908 -550.485 105.887 0.0015 
249 1 1 -0.339203 0.00769677 -0.250359 0 0 0 -0.931113 0.087152 -0.568232 0 0 -0.000346714 -35.4349 -630.258 -42.2518 0.0015 
201 1 1 -0.339258 0.0112873 -0.250119 0 0 0 -0.942955 0.11093 -0.573414 0 0 -0.000346714 -49.0519 -675.763 -65.0532 0.0015 
195 1 1 -0.337727 -0.0103368 -0.24738 0 0 0 -0.950155 -0.00245124 -0.513702 0 0 -0.00160516 -31.7349 -403.29 79.3726 0.0025 
266 1 1 -0.33454 -0.00643532 -0.247312 0 0 0 -0.905617 -0.0577355 -0.517872 0 0 -0.000346714 38.2168 -563.275 170.727 0.0015 
223 1 1 -0.335948 -0.0022257 -0.24683 0 0 0 -0.96782 -0.0410256 -0.46843 0 0 -0.000346714 -14.4538 -65.868 -23.1529 0.0015 
251 1 1 -0.332504 -0.000489325 -0.245456 0 0 0 -0.934641 0.0370445 -0.44814 0 0 -0.000346714 -45.3533 -548.355 12.8843 0.0015 
118 1 1 -0.339778 0.00464433 -0.246491 0 0 0 -1.01708 0.0869628 -0.494215 0 0 -0.00160516 -65.355 -215.565 -31.2235 0.0025 
235 1 1 -0.33471 0.00368512 -0.247953 0 0 0 -0.960625 -0.0275456 -0.540295 0 0 -0.000346714 -66.259 -630.225 95.1363 0.0015 
160 1 1 -0.332429 0.00545839 -0.247003 0 0 0 -0.95425 -0.0168884 -0.56089 0 0 -0.000346714 21.6491 -621.308 -79.4513 0.0015 
369 1 1 -0.337522 0.00950541 -0.248416 0 0 0 -1.0552 -0.0159009 -0.560518 0 0 -0.000346714 0.639157 -639.458 -188.113 0.0015 
154 1 1 -0.33433 0.0102039 -0.246994 0 0 0 -1.01188 -0.0476029 -0.538013 0 0 -0.000346714 70.4283 -702.067 -115.19 0.0015 
311 1 1 -0.347619 0.0349236 -0.246548 0 0 0 -1.1993 0.090386 -0.643894 0 0 -0.00160516 -20.5047 -526.685 -51.8186 0.0025 
315 1 1 -0.367031 0.0499797 -0.25045 0 0 0 -1.19537 -0.0474614 -0.808193 0 0 -0.000346714 141.619 -839.23 -269.993 0.0015 
250 1 1 -0.338449 -0.0294599 -0.244478 0 0 0 -1.17414 0.0758322 -0.599118 0 0 -0.000346714 -86.4605 -854.852 76.913 0.0015 
226 1 1 -0.323624 -0.0223822 -0.239936 0 0 0 -1.04074 0.0779308 -0.44723 0 0 -0.000346714 -50.6944 -756.811 -10.2526 0.0015 
282 1 1 -0.315166 -0.0109175 -0.238333 0 0 0 -0.9187 0.0354734 -0.41945 0 0 -0.000346714 -59.8219 -654.685 83.9917 0.0015 
209 1 1 -0.317128 -0.00550191 -0.23853 0 0 0 -1.01814 -0.130186 -0.40273 4.88414e-05 -1.39831e-05 -0.00123148 47.0921 -438.228 22.8657 0.0025 
299 1 1 -0.322225 -0.000706392 -0.240893 0 0 0 -1.00943 0.0261304 -0.400046 0.000171573 0.000344494 0.000699602 -84.2974 -54.5559 -41.1106 0.0025 
279 1 1 -0.316803 0.00112212 -0.239633 0 0 0 -0.899817 -0.0402846 -0.387165 0 0 -0.000346714 -42.4407 -617.76 11.5135 0.0015 
86 1 1 -0.312733 0.00230097 -0.237869 0 0 0 -0.988918 -0.0946326 -0.422582 -7.00093e-05 -1.27307e-05 -8.11086e-05 34.6328 -722.076 80.5979 0.0015 
271 1 1 -0.321291 0.00435493 -0.240265 0 0 0 -1.03173 0.0498403 -0.427032 -0.000792358 -0.000455544 0.00148554 -15.8939 -447.063 -20.2432 0.0025 
290 1 1 -0.315824 0.00392779 -0.238757 0 0 0 -0.952515 -0.000298131 -0.336484 0 0 -0.000346714 -18.9022 -634.161 -97.4314 0.0015 
134 1 1 -0.322798 0.00782929 -0.241763 0 0 0 -1.1558 -0.184785 -0.506267 0 0 -0.000346714 180.994 -831.721 -109.384 0.0015 
252 1 1 -0.317804 0.00882101 -0.239593 0 0 0 -1.17402 -0.10009 -0.500422 -8.81597e-05 -1.3168e-05 -3.80991e-05 109.637 -845.508 -88.102 0.0015 
286 1 1 -0.321003 0.0128629 -0.239603 0 0 0 -1.20866 -0.122576 -0.521808 -6.30826e-05 -5.85402e-05 0.00165738 60.8046 -524.815 -17.7503 0.0025 
295 1 1 -0.319361 -0.0247859 -0.237708 0 0 0 -1.06491 0.0873372 -0.5193 0 0 -0.000346714 -61.0815 -672.754 145.591 0.0015 
238 1 1 -0.317469 -0.027652 -0.235977 0 0 0 -1.0815 -0.0303603 -0.459196 0 0 -0.000346714 -1.16449 -748.558 110.729 0.0015 
176 1 1 -0.315639 -0.0233306 -0.236437 0 0 0 -0.966635 0.0256638 -0.425671 0 0 -0.000346714 -8.39517 -718.114 -21.2736 0.0015 
306 1 1 -0.312844 -0.0230013 -0.235363 0 0 0 -0.967389 0.10059 -0.420777 0 0 -0.000346714 -116.463 -688.814 105.392 0.0015 
236 1 1 -0.312942 -0.0170421 -0.236571 0 0 0 -1.00135 0.153381 -0.425778 0.00501833 7.08345e-05 0.0015089 287.151 -161.127 103.427 0.0015 
207 1 1 -0.316206 -0.0148526 -0.237201 0 0 0 -1.03922 0.0603259 -0.467173 -0.0100774 0.00441308 0.00169015 -27.1905 -378.248 91.0216 0.0025 
242 1 1 -0.312496 -0.0126839 -0.236922 0 0 0 -1.08037 0.036753 -0.452411 0 0 -0.000346714 -70.367 -768.36 107.986 0.0015 
278 1 1 -0.313009 -0.00804221 -0.237767 0 0 0 -0.958326 0.108321 -0.417499 0 0 -0.000346714 -118.84 -679.269 101.292 0.0015 
303 1 1 -0.309212 -0.00675122 -0.236285 0 0 0 -1.0842 0.229983 -0.465538 -8.43856e-05 6.96748e-06 -4.29618e-05 -180.73 -784.096 33.5828 0.0015 
170 1 1 -0.310989 -0.00279945 -0.236091 0 0 0 -1.00045 -0.020951 -0.421116 -0.000376694 2.56967e-05 -0.000259068 -10.9252 -433.17 47.5011 0.0025 
347 1 1 -0.31405 0.0158382 -0.236116 0 0 0 -1.22185 -0.0968797 -0.529088 -0.000451073 -0.000256235 -0.000417246 32.2513 -543.339 24.9989 0.0025 
222 1 1 -0.318508 0.0177767 -0.237602 0 0 0 -1.22444 -0.0893632 -0.52989 -0.000422039 -0.000199431 -0.000122464 97.5612 -512.75 -138.993 0.0025 
261 1 1 -0.324586 -0.0386862 -0.235161 0 0 0 -1.23803 0.192285 -0.602912 4.32254e-05 -5.69082e-05 -0.000441163 -212.863 -900.115 151.805 0.0015 
257 1 1 -0.310604 -0.0191096 -0.234116 0 0 0 -1.10581 0.0458505 -0.37794 0.00464066 -0.00704373 0.0150464 -33.3493 -396.82 108.711 0.0025 
275 1 1 -0.29928 -0.0150993 -0.231259 0 0 0 -1.04324 0.0975478 -0.448796 7.47154e-06 -3.42125e-05 -9.88985e-07 -81.0554 -730.625 51.4006 0.0015 
125 1 1 -0.297883 -0.00757305 -0.231479 0 0 0 -1.01428 0.0561448 -0.429653 -8.90733e-05 7.34852e-06 -3.631e-05 -40.0973 -734.654 -1.34374 0.0015 
323 1 1 -0.307187 0.00848215 -0.234059 0 0 0 -0.992956 0.0188553 -0.417579 -0.000459318 -6.66067e-05 -4.87836e-05 -7.20948 -431.965 -2.3446 0.0025 
348 1 1 -0.307995 0.0184924 -0.233073 0 0 0 -1.23809 -0.193471 -0.554134 -0.000386184 -0.000179897 -0.000220014 82.2291 -546.98 7.24797 0.0025 
237 1 1 -0.309003 -0.0333729 -0.230722 0 0 0 -1.1233 0.0687789 -0.51026 0 0 -0.000346714 -48.9959 -841.147 4.63853 0.0015 
350 1 1 -0.303212 -0.0225453 -0.230237 0 0 0 -1.08523 0.151939 -0.484524 0 0 -0.00160516 -93.9027 -462.382 67.724 0.0025 
248 1 1 -0.295168 -0.012506 -0.22873 0 0 0 -0.912132 0.409469 -0.416232 0 0 -0.000346714 -271.511 -537.449 6.91329 0.0015 
327 1 1 -0.295174 -0.00649575 -0.230374 0 0 0 -1.00943 0.0377411 -0.426964 -8.84882e-05 7.29921e-06 -3.77368e-05 21.0126 -735.083 -114.655 0.0015 
220 1 1 -0.303663 0.0153237 -0.230511 0 0 0 -1.03583 0.032313 -0.891665 0 0 -0.00160516 -52.6472 -170.81 -81.6725 0.0025 
230 1 1 -0.291432 0.0153989 -0.227867 0 0 0 -1.0658 -0.036464 -0.450661 -0.000321855 -0.000139477 0.00032115 45.26 -775.939 -43.3487 0.0015 
264 1 1 -0.298356 0.0203753 -0.229783 0 0 0 -1.14458 0.0632767 -0.464608 -8.62338e-05 -3.98638e-05 -4.35664e-05 83.5238 -779.615 -311.897 0.0015 
291 1 1 -0.30329 -0.0358213 -0.227498 0 0 0 -1.16552 0.300626 -0.559722 0 0 -0.000346714 -271.159 -833.369 120.532 0.0015 
146 1 1 -0.291469 -0.0292276 -0.22484 0 0 0 -0.802637 0.06832 -0.348011 0 0 -0.000346714 -71.7504 -580.194 55.3195 0.0015 
240 1 1 -0.287299 -0.0210935 -0.225195 0 0 0 -1.12341 0.142078 -0.495177 -8.55471e-05 3.86313e-05 -4.23343e-05 -94.117 -828.582 -24.2187 0.0015 
227 1 1 -0.283751 -0.0158309 -0.224611 0 0 0 -0.910403 0.0499339 -0.360539 0 0 -0.000346714 -51.2362 -621.581 105.868 0.0015 
142 1 1 -0.2865 -0.0129394 -0.225036 0 0 0 -0.946819 0.037448 -0.398471 -4.15784e-05 -0.000295884 3.7357e-05 -8.79208 -411.313 -12.4558 0.0025 
406 1 1 -0.282125 -0.0128317 -0.224297 0 0 0 -0.945539 0.111537 -0.40929 -9.36342e-05 2.43334e-05 -2.75274e-05 -73.6588 -689.456 -17.7118 0.0015 
343 1 1 -0.28607 -0.00793083 -0.226485 0 0 0 -0.998309 0.0109067 -0.421321 -8.91149e-05 8.35835e-06 -3.78751e-05 -23.5555 -721.717 37.1287 0.0015 
297 1 1 -0.283103 -0.00142734 -0.224134 0 0 0 -0.970878 -0.0712341 -0.402426 0 0 -0.00160516 35.0609 -395.506 9.90746 0.0025 
254 1 1 -0.284678 0.0021316 -0.226005 0 0 0 -0.868177 0.0792644 -0.379778 0 0 -0.000346714 13.8578 -546.882 4.23836 0.0015 
302 1 1 -0.287199 0.00614115 -0.226859 0 0 0 -0.92908 0.0471572 -0.388519 -8.82193e-05 -1.34298e-05 -3.81835e-05 -63.899 -678.19 70.4886 0.0015 
374 1 1 -0.283242 0.00884277 -0.223934 0 0 0 -0.875976 -0.0314132 -0.363385 0.000117899 -3.13381e-05 4.63102e-05 -6.06987 40.6446 -21.0614 0.0025 
313 1 1 -0.281967 0.0140483 -0.224123 0 0 0 -0.955156 0.0301869 -0.403199 -8.7309e-05 -3.6662e-05 -4.36005e-05 -38.6476 -709.257 38.4512 0.0015 
241 1 1 -0.290068 0.0210459 -0.226236 0 0 0 -1.0071 0.0253122 -0.405944 -9.1024e-05 -4.2026e-05 -2.15428e-05 -39.8433 -745.878 52.4406 0.0015 
277 1 1 -0.305075 -0.0451953 -0.224286 0 0 0 -1.18439 0.23519 -0.574673 0 0 -0.000346714 -261.501 -838.87 201.839 0.0015 
384 1 1 -0.279751 -0.0262796 -0.220985 0 0 0 -0.910865 0.130194 -0.410964 -0.000101066 6.66577e-05 -9.82192e-06 -137.849 -650.71 99.3725 0.0015 
234 1 1 -0.278493 -0.0172097 -0.22115 0 0 0 -0.925601 0.0662191 -0.400006 -0.00035532 0.000160832 -0.000246231 -41.0754 -402.267 28.4015 0.0025 
162 1 1 -0.279008 -0.00993975 -0.223298 0 0 0 -0.967012 0.106148 -0.418442 -8.31488e-05 2.14082e-05 -4.80063e-05 -148.233 -685.006 168.823 0.0015 
342 1 1 -0.275935 -0.0134573 -0.221626 0 0 0 -0.969193 0.0584892 -0.41146 -8.14104e-05 2.08002e-05 -5.55333e-05 -111.92 -686.221 166.029 0.0015 
263 1 1 -0.276245 -0.00785944 -0.222345 0 0 0 -0.941646 0.102063 -0.399027 -0.000130539 1.41585e-05 8.16081e-05 -33.4929 -684.828 -95.6348 0.0015 
318 1 1 -0.273466 -0.00642798 -0.221223 0 0 0 -0.909694 0.0809665 -0.388881 -8.89084e-05 8.14977e-06 -3.79058e-05 -88.7202 -656.746 70.8027 0.0015 
381 1 1 -0.277805 0.000620534 -0.220473 0 0 0 -0.928681 -0.0546384 -0.423726 0 0 -0.000346714 107.162 419.22 139.478 0.0015 
284 1 1 -0.280717 0.00331448 -0.223224 0 0 0 -0.965674 -0.0338684 -0.409705 -0.000553217 -8.57999e-05 0.000167141 18.9579 -419.775 -9.9591 0.0025 
255 1 1 -0.279133 0.0076157 -0.223388 0 0 0 -0.847176 -0.0453956 -0.352349 2.49101e-05 -3.44105e-05 2.20176e-06 54.1244 -321.354 36.3822 0.0015 
246 1 1 -0.276316 0.00806469 -0.220442 0 0 0 -0.878654 0.0354009 -0.37982 0 0 -0.00160516 -17.2398 -338.072 12.8674 0.0025 
356 1 1 -0.281876 0.0177827 -0.223412 0 0 0 -1.07157 0.0293055 -0.454717 -0.000112041 -5.07665e-05 3.41563e-05 6.63789 -776.766 -65.3034 0.0015 
316 1 1 -0.276472 0.0176487 -0.221119 0 0 0 -1.02738 0.00073811 -0.427668 0 0 -0.000346714 54.6211 -727.635 -133.238 0.0015 
337 1 1 -0.286967 0.0283904 -0.223307 0 0 0 -1.2475 -0.164123 -0.554702 0 0 -0.000346714 224.491 -854.112 -254.266 0.0015 
294 1 1 -0.270074 -0.0224781 -0.217749 0 0 0 -0.941959 0.00383378 -0.395968 -0.00010461 4.87186e-05 1.14554e-06 20.1269 -702.842 -54.7821 0.0015 
231 1 1 -0.272638 -0.0188215 -0.218417 0 0 0 -0.877929 0.0417837 -0.372486 -0.000467342 0.000213528 -6.24954e-06 -47.314 -373.193 69.6503 0.0025 
336 1 1 -0.268501 -0.0153747 -0.217193 0 0 0 -0.875518 0.0760423 -0.380179 -0.000480326 0.000130745 6.71061e-05 -37.0993 -381.825 8.981 0.0025 
357 1 1 -0.265387 -0.0118288 -0.217365 0 0 0 -0.824901 0.144011 -0.382187 0 0 -0.000346714 -56.5591 -435.456 135.865 0.0015 
292 1 1 -0.269247 -0.00660548 -0.219428 0 0 0 -0.956057 -0.00621613 -0.405301 -9.25809e-05 8.56016e-06 -2.71321e-05 28.6942 -695.376 -57.0533 0.0015 
285 1 1 -0.266567 -0.00409743 -0.217303 0 0 0 -0.961763 0.0098519 -0.406771 -8.62053e-05 3.49002e-06 -0.00102963 -11.605 -417.429 17.3153 0.0025 
353 1 1 -0.265839 -0.000226372 -0.218224 0 0 0 -0.932173 0.00785046 -0.393367 6.21252e-05 -1.95037e-05 -0.000397305 -28.6675 -677.939 54.2325 0.0015 
61 1 1 -0.262845 -0.00225826 -0.216903 0 0 0 -0.910573 -0.0874312 -0.412111 -0.000630936 0.000347997 0.0062335 56.9222 -643.917 10.567 0.0015 
308 1 1 -0.272495 0.00119325 -0.219895 0 0 0 -0.95288 0.00100364 -0.404973 -0.000447474 -5.48789e-05 -0.000100212 0.613942 -414.835 -2.47222 0.0025 
229 1 1 -0.262585 0.00157059 -0.216758 0 0 0 -0.905498 -0.0258581 -0.386184 -8.99536e-05 -9.91991e-06 -3.62711e-05 14.6462 -657.369 9.67402 0.0015 
365 1 1 -0.262667 0.00705567 -0.216535 0 0 0 -0.841219 0.0433962 -0.355458 -9.09427e-05 -9.92723e-06 -3.63404e-05 -31.1855 -610.218 -0.712164 0.0015 
330 1 1 -0.264883 0.00944778 -0.217346 0 0 0 -0.86864 -0.0220282 -0.364648 -8.58266e-05 -1.01005e-05 -4.25064e-05 20.9077 -628.156 -11.8593 0.0015 
331 1 1 -0.270706 0.0108548 -0.219713 0 0 0 -1.007 -0.079243 -0.427061 0 0 -0.000346714 82.5176 -725.654 -60.1311 0.0015 
320 1 1 -0.26809 0.0135946 -0.218316 0 0 0 -0.975302 -0.014933 -0.414429 -8.74111e-05 -3.26823e-05 -4.09145e-05 -40.6356 -732.955 122.036 0.0015 
301 1 1 -0.268532 0.0212544 -0.21729 0 0 0 -0.907735 0.12644 -0.354038 -0.000408752 -0.00019208 0.000825798 4.07825 -623.865 -236.272 0.0015 
390 1 1 -0.290643 -0.0487365 -0.216904 0 0 0 -1.2256 0.312475 -0.694713 0 0 -0.000346714 -223.057 -1009.84 -51.9399 0.0015 
423 1 1 -0.282392 -0.0444899 -0.215642 0 0 0 -1.02727 0.0545894 -0.492126 0 0 -0.000346714 -122.702 -676.694 243.802 0.0015 
367 1 1 -0.275719 -0.0388685 -0.215403 0 0 0 -0.977346 0.152195 -0.426766 0 0 -0.000346714 -176.13 -675.642 165.206 0.0015 
280 1 1 -0.259446 -0.022693 -0.213157 0 0 0 -0.813545 0.0663334 -0.364157 0 0 -0.000346714 -81.8791 -576.513 84.7765 0.0015 
141 1 1 -0.26184 -0.0181437 -0.21515 0 0 0 -0.938384 -0.0780158 -0.385764 -1.2682e-05 -3.00848e-05 -0.000231634 116.4 -693.15 -124.406 0.0015 
402 1 1 -0.263969 -0.0147931 -0.214639 0 0 0 -0.946069 -0.0531051 -0.420194 0 0 -0.00160516 49.6831 -290.808 58.7162 0.0025 
307 1 1 -0.25479 -0.0105397 -0.213087 0 0 0 -0.859254 -0.0197289 -0.356561 -3.95474e-05 1.08956e-05 -1.80837e-05 -27.4132 -613.609 100.043 0.0015 
391 1 1 -0.261198 -0.00568162 -0.216068 0 0 0 -0.89367 -0.0507638 -0.376652 5.84686e-06 8.93942e-05 -9.88991e-08 -98.2281 -357.667 -86.7968 0.0015 
304 1 1 -0.258368 -0.00578366 -0.214864 0 0 0 -0.913466 0.0163673 -0.387986 -7.72097e-05 8.06519e-06 -6.44878e-05 -60.2213 -657.253 114.054 0.0015 