ITEM: TIMESTEP
44800
ITEM: NUMBER OF ATOMS
577
ITEM: BOX BOUNDS ff ff ff
-0.5 0.1
-0.2 0.2
-0.4 0.15
ITEM: ATOMS id type type x y z ix iy iz vx vy vz fx fy fz omegax omegay omegaz radius 
85 1 1 -0.415389 -0.0219091 -0.309743 0 0 0 -1.13812 0.392769 -1.42968 0 0 -0.000346714 -590.532 -294.61 698.542 0.0015 
47 1 1 -0.393223 0.00379389 -0.282592 0 0 0 -1.51283 -0.159914 -1.11007 0 0 -0.000346714 98.6681 -1100.17 40.6157 0.0015 
38 1 1 -0.431176 0.0535183 -0.277178 0 0 0 -1.28232 -0.252842 -1.32713 0 0 -0.000346714 353.317 -1209.87 -459.629 0.0015 
30 1 1 -0.374959 -0.0126547 -0.269003 0 0 0 -1.38706 0.0524024 -0.954939 0 0 -0.00160516 -39.2856 -605.929 42.5201 0.0025 
36 1 1 -0.361529 -0.0109301 -0.263872 0 0 0 -1.32658 0.106776 -0.918506 0 0 -0.000346714 -96.2795 -964.526 43.0852 0.0015 
11 1 1 -0.364413 -0.0069837 -0.262573 0 0 0 -1.3897 0.119676 -0.848411 0 0 -0.000346714 -132.585 -988.781 116.991 0.0015 
31 1 1 -0.371417 0.0296644 -0.26301 0 0 0 -1.40414 -0.00459657 -0.905076 0 0 -0.000346714 89.1678 -989.387 -210.392 0.0015 
2 1 1 -0.352795 0.00904916 -0.256006 0 0 0 -1.28962 0.020121 -0.77522 0 0 -0.00160516 -12.7174 -562.33 8.67378 0.0025 
4 1 1 -0.341976 -0.00841631 -0.249481 0 0 0 -1.31354 0.0369665 -0.680278 0 0 -0.00160516 -9.29632 -567.073 -15.9392 0.0025 
21 1 1 -0.325906 -0.00701865 -0.243106 0 0 0 -1.22066 0.000988222 -0.52417 0 0 -0.000346714 49.6369 -887.668 -122.725 0.0015 
18 1 1 -0.33477 0.0165767 -0.246253 0 0 0 -1.20449 -0.00308704 -0.605013 0 0 -0.000346714 -37.6135 -903.718 92.424 0.0015 
17 1 1 -0.340639 0.0273712 -0.24657 0 0 0 -1.25378 0.0156372 -0.639084 0 0 -0.000346714 60.9242 -886.665 -178.752 0.0015 
12 1 1 -0.343983 0.0325306 -0.246289 0 0 0 -1.33776 -0.03241 -0.698919 0 0 -0.000346714 127.202 -925.05 -251.424 0.0015 
20 1 1 -0.320724 0.0154979 -0.240073 0 0 0 -1.22894 0.0334267 -0.507514 -8.54096e-05 -3.98831e-05 -4.3424e-05 -12.6859 -897.309 -28.3816 0.0015 
5 1 1 -0.331183 0.0267814 -0.242142 0 0 0 -1.22063 -0.0258608 -0.558161 0 0 -0.000346714 40.8132 -862.41 -69.636 0.0015 
24 1 1 -0.328465 0.0272775 -0.240708 0 0 0 -1.22383 0.0186497 -0.523934 0 0 -0.000346714 14.4092 -872.264 -80.6741 0.0015 
22 1 1 -0.311806 -0.000189886 -0.237612 0 0 0 -1.23964 -0.0149164 -0.522941 -8.67146e-05 7.3801e-06 -3.84845e-05 2.74386 -897.342 19.0876 0.0015 
8 1 1 -0.314749 0.00184372 -0.238747 0 0 0 -1.24784 -0.0295976 -0.527724 -8.74602e-05 -1.30552e-05 -4.27282e-05 74.2338 -896.817 -125.213 0.0015 
6 1 1 -0.315681 0.00633168 -0.238856 0 0 0 -1.23943 -0.00808898 -0.52218 -8.79963e-05 -1.3153e-05 -3.82438e-05 -34.4492 -904.485 95.7816 0.0015 
71 1 1 -0.309824 0.00953713 -0.236189 0 0 0 -1.19446 0.0288361 -0.501727 -8.88875e-05 -1.33553e-05 -3.48858e-05 -23.1484 -866.408 5.32576 0.0015 
32 1 1 -0.312479 0.0126221 -0.2371 0 0 0 -1.30327 -0.0150141 -0.577968 0 0 -0.000346714 -8.01872 -846.132 -51.3994 0.0015 
26 1 1 -0.329464 0.035557 -0.237214 0 0 0 -1.32747 0.0425561 -0.557378 0 0 -0.00160516 -32.6902 -612.822 29.8485 0.0025 
72 1 1 -0.373782 -0.0630404 -0.235961 0 0 0 -1.3828 0.142112 -0.841904 0 0 -0.000346714 -248.697 -830.908 528.372 0.0015 
23 1 1 -0.307347 -0.0143576 -0.234624 0 0 0 -1.20138 0.0312963 -0.485042 -8.86702e-05 3.09622e-05 -1.87354e-05 -36.5423 -865.304 34.6203 0.0015 
35 1 1 -0.305211 -0.0123246 -0.234051 0 0 0 -1.20123 0.0294597 -0.480931 -0.000635771 0.000221756 0.00141704 -59.7985 -856.877 97.0923 0.0015 
57 1 1 -0.303239 0.00852489 -0.233475 0 0 0 -1.22642 0.117206 -0.510239 -8.90975e-05 -1.34216e-05 -3.61339e-05 -104.644 -892.402 46.5383 0.0015 
16 1 1 -0.309416 0.0136242 -0.234416 0 0 0 -1.2677 -0.062503 -0.545897 0 0 -0.00160516 63.3786 -513.951 -101.509 0.0025 
75 1 1 -0.305004 0.0165227 -0.233306 0 0 0 -1.29708 -0.124015 -0.565273 -8.53717e-05 -3.98838e-05 -4.21808e-05 71.6462 -961.48 46.5513 0.0015 
3 1 1 -0.320272 0.0298531 -0.235382 0 0 0 -1.31167 -0.0874704 -0.563624 -0.000332381 -0.000282867 -0.000310911 73.9472 -565.821 -84.2584 0.0025 
37 1 1 -0.31427 0.0289094 -0.234396 0 0 0 -1.26879 -0.00609862 -0.520315 -9.84495e-05 -8.45089e-05 -7.80637e-06 19.8501 -946.973 -37.1559 0.0015 
79 1 1 -0.314525 -0.034621 -0.231579 0 0 0 -1.34272 0.27313 -0.713647 0 0 -0.00160516 -157.205 -567.748 98.6692 0.0025 
138 1 1 -0.304948 -0.0248883 -0.230949 0 0 0 -1.28577 -0.0975923 -0.36718 0 0 -0.000346714 175.539 -861.909 106.915 0.0015 
14 1 1 -0.306365 -0.0208298 -0.23206 0 0 0 -1.25764 0.0089143 -0.561625 -0.00100655 -0.00129404 0.00554605 63.6489 -517.311 7.638 0.0025 
10 1 1 -0.290926 -0.00595932 -0.228601 0 0 0 -1.04634 -0.0266209 -0.440229 -9.92028e-05 8.14326e-06 -1.15616e-05 -13.7063 -755.118 78.2459 0.0015 
48 1 1 -0.321726 0.046895 -0.229757 0 0 0 -1.2308 -0.080414 -0.504378 -6.07869e-05 -8.25602e-05 -8.56056e-05 143.126 -864.405 -211.471 0.0015 
113 1 1 -0.283675 -0.00143148 -0.225696 0 0 0 -1.18302 0.175204 -0.505297 -8.85445e-05 7.02052e-06 -3.79063e-05 -199.325 -851.198 171.525 0.0015 
76 1 1 -0.289471 0.00240416 -0.228058 0 0 0 -1.15955 0.0930169 -0.482807 -0.000114534 -1.64577e-05 2.46625e-05 -72.5928 -841.594 12.2433 0.0015 
42 1 1 -0.291237 0.00677087 -0.227439 0 0 0 -1.26282 -0.203315 -0.546077 -0.00042474 -6.44891e-05 -0.000159087 106.175 -546.981 -41.8595 0.0025 
51 1 1 -0.318198 0.0480456 -0.227839 0 0 0 -1.20682 -0.0604169 -0.484593 -2.95054e-05 -3.54272e-05 -0.000171345 116.286 -859.84 -182.822 0.0015 
52 1 1 -0.28399 -0.015137 -0.223742 0 0 0 -1.13267 0.0682687 -0.483372 -0.000420933 0.00010896 -0.000146269 -53.4776 -488.151 56.3666 0.0025 
50 1 1 -0.276455 -0.00780338 -0.222435 0 0 0 -1.12646 0.0621541 -0.474992 -8.55344e-05 3.82895e-06 -4.20788e-05 -12.8824 -817.939 -75.8671 0.0015 
28 1 1 -0.278651 0.00247032 -0.22226 0 0 0 -1.15438 0.0673939 -0.530367 0 0 -0.00160516 -47.9382 -481.732 77.642 0.0025 
56 1 1 -0.279753 0.00627121 -0.223718 0 0 0 -1.16598 0.0516089 -0.488576 0 0 -0.000346714 -61.4745 -833.512 110.509 0.0015 
96 1 1 -0.276216 0.00758056 -0.222186 0 0 0 -1.15973 -0.0320598 -0.480052 -9.64969e-05 -1.29503e-05 -2.53138e-05 138.958 -822.054 -280.542 0.0015 
49 1 1 -0.277365 0.0122425 -0.222396 0 0 0 -1.15283 -0.0433353 -0.477295 -6.92323e-05 -8.90871e-06 -9.56307e-05 79.7187 -826.06 -117.371 0.0015 
41 1 1 -0.275975 -0.0195717 -0.219661 0 0 0 -1.08393 0.0889124 -0.465835 -0.00038892 0.000173175 -0.000230333 -69.2117 -463.045 72.6612 0.0025 
46 1 1 -0.272576 0.0225948 -0.218723 0 0 0 -1.16482 -0.00112314 -0.476179 -7.05598e-05 -2.82631e-05 -7.05387e-05 25.5535 -838.838 -60.5248 0.0015 
55 1 1 -0.281894 0.0267403 -0.220624 0 0 0 -1.19675 0.0279869 -0.496208 -0.000333287 -0.000236483 -0.00035208 -13.1508 -539.738 1.24608 0.0025 
107 1 1 -0.267993 -0.0200901 -0.216217 0 0 0 -1.21742 0.0860988 -0.571239 0 0 -0.00160516 -35.2269 -532.687 -2.45878 0.0025 
60 1 1 -0.263504 -0.0111626 -0.216662 0 0 0 -1.14468 0.00198263 -0.478735 -8.27442e-05 2.25688e-05 -4.72494e-05 23.1555 -838.704 -58.8651 0.0015 
25 1 1 -0.264792 0.00151707 -0.217699 0 0 0 -1.12512 0.0691766 -0.473476 -0.000682132 0.000184389 0.00170397 -96.726 -821.214 110.922 0.0015 
19 1 1 -0.263217 0.00934425 -0.216653 0 0 0 -1.13082 -0.0699838 -0.473484 -1.50677e-05 -8.1147e-07 -0.000267742 59.071 -816.579 -20.3687 0.0015 
78 1 1 -0.278462 0.032522 -0.21742 0 0 0 -1.20899 -0.0335354 -0.520915 0 0 -0.00160516 32.8897 -527.541 -46.0364 0.0025 
111 1 1 -0.253216 -0.0122008 -0.212228 0 0 0 -1.10804 0.0326224 -0.465758 0 0 -0.000346714 -58.7646 -793.468 85.2547 0.0015 
39 1 1 -0.260153 -0.00836155 -0.214422 0 0 0 -1.13887 0.00785236 -0.48216 -0.000434083 4.37951e-05 -0.000180446 4.90925 -496.317 -19.5959 0.0025 
81 1 1 -0.248319 0.00339799 -0.210625 0 0 0 -0.926818 0.0664846 -0.391175 0 0 -0.000346714 -32.2086 -668.961 -38.021 0.0015 
40 1 1 -0.267496 0.0309995 -0.21342 0 0 0 -1.16949 0.000922143 -0.462964 -0.000380269 -0.000261727 -0.000454511 -12.1936 -528.265 28.1657 0.0025 
87 1 1 -0.248522 -0.0231095 -0.208595 0 0 0 -0.886064 -0.0355891 -0.378036 0 0 -0.000346714 -12.9689 -627.518 97.3181 0.0015 
1 1 1 -0.250179 -0.0136998 -0.209578 0 0 0 -1.10061 0.0413997 -0.476064 0 0 -0.00160516 -62.613 -461.641 111.933 0.0025 
33 1 1 -0.240699 0.00866142 -0.20722 0 0 0 -1.01935 -0.017109 -0.43429 0 0 -0.000346714 51.3707 -734.884 -91.6818 0.0015 
69 1 1 -0.245282 0.0201338 -0.207739 0 0 0 -0.981961 0.1398 -0.386168 -8.59817e-05 -2.95632e-05 -3.96298e-05 -59.683 -700.389 -101.79 0.0015 
102 1 1 -0.261742 0.0374671 -0.210366 0 0 0 -1.15512 0.107628 -0.426336 -3.82967e-05 -4.90243e-05 -6.49205e-05 -46.8785 -853.721 -87.4492 0.0015 
34 1 1 -0.285536 0.0577126 -0.209167 0 0 0 -1.21343 -0.214297 -0.587883 0 0 -0.000346714 288.963 -805.51 -311.787 0.0015 
174 1 1 -0.276991 -0.0567734 -0.20699 0 0 0 -1.31862 0.00952164 -0.514951 0 0 -0.000346714 -151.651 -853.8 383.636 0.0015 
29 1 1 -0.240563 0.00467185 -0.206223 0 0 0 -1.04191 -0.0187871 -0.446419 -0.000421115 -3.61593e-05 1.64263e-06 23.6523 -452.552 -36.301 0.0025 
70 1 1 -0.238224 0.011347 -0.206038 0 0 0 -1.00967 -0.0060034 -0.430421 -8.7763e-05 -2.78408e-05 -4.13794e-05 42.8397 -725.317 -90.3757 0.0015 
99 1 1 -0.239223 0.0198363 -0.205276 0 0 0 -0.826854 -0.0546773 -0.349784 -8.62665e-05 -2.97787e-05 -3.73413e-05 67.45 -592.467 -66.8326 0.0015 
7 1 1 -0.266502 -0.0522345 -0.203875 0 0 0 -0.929797 0.259528 -0.541499 0 0 -0.000346714 -249.511 -437.679 347.279 0.0015 
27 1 1 -0.232156 -0.0242409 -0.200359 0 0 0 -1.06727 -0.025527 -0.431615 -0.000376747 0.000186957 -0.000221455 14.9903 -471.52 -9.18794 0.0025 
133 1 1 -0.227938 -0.0148667 -0.200894 0 0 0 -1.09212 -0.388452 -0.409515 0 0 -0.000346714 326.07 101.162 81.5053 0.0015 
120 1 1 -0.255277 -0.0062046 -0.20541 0 0 0 -1.38292 -0.118185 -0.72267 0 0 -0.00160516 72.4082 62.6528 13.5061 0.0025 
53 1 1 -0.23235 0.00173055 -0.202872 0 0 0 -0.879326 0.0256758 -0.375849 -0.000417412 -2.43701e-05 -0.00017122 -34.5025 -384.36 54.4653 0.0025 
129 1 1 -0.246513 0.0116495 -0.202721 0 0 0 -1.26208 0.0935505 -0.670393 0 0 -0.00160516 72.9657 222.538 13.225 0.0025 
115 1 1 -0.232042 0.0139668 -0.203053 0 0 0 -0.886003 0.0456319 -0.371042 1.55731e-05 -4.19006e-05 -0.000104208 12.6398 -237.903 33.2262 0.0015 
88 1 1 -0.229318 0.0131237 -0.201992 0 0 0 -0.863268 0.0734464 -0.330766 0 0 -0.000346714 -51.2607 -620.478 -7.91831 0.0015 
58 1 1 -0.225861 0.0116336 -0.20076 0 0 0 -0.980232 -0.075006 -0.427612 -8.83046e-05 -2.53113e-05 -4.07127e-05 109.675 -699.65 -128.689 0.0015 
82 1 1 -0.230229 0.0209725 -0.201361 0 0 0 -1.04609 0.00576234 -0.43225 -8.63043e-05 -2.70997e-05 -3.90122e-05 -87.2988 -786.685 200.788 0.0015 
43 1 1 -0.244828 0.0393293 -0.202745 0 0 0 -0.913822 0.118517 -0.326837 -2.1869e-05 -1.87388e-05 -0.000188121 19.7447 -593.889 -270.849 0.0015 
114 1 1 -0.229788 -0.0329756 -0.198643 0 0 0 -1.12501 0.0213841 -0.481352 -9.00397e-05 4.6445e-05 -3.49802e-05 -98.1383 -788.889 194.317 0.0015 
171 1 1 -0.226289 -0.0329542 -0.197164 0 0 0 -1.09311 0.060734 -0.478123 -7.63896e-05 4.31948e-05 -2.90774e-05 2.79606 -832.695 -113.109 0.0015 
165 1 1 -0.223686 -0.0305233 -0.196593 0 0 0 -0.922975 -0.0271748 -0.392646 -0.000201429 0.000149396 0.0010697 -10.7183 -669.753 69.5563 0.0015 
98 1 1 -0.22105 -0.0147923 -0.198293 0 0 0 -1.0089 -0.0759106 -0.411918 0 0 -0.000346714 31.2953 -725.569 57.2721 0.0015 
44 1 1 -0.221506 0.00631367 -0.199254 0 0 0 -0.969698 0.0276612 -0.402847 -8.82758e-05 -4.22716e-06 -3.53623e-05 -10.0865 -700.187 -23.7984 0.0015 
108 1 1 -0.218701 0.00450955 -0.19812 0 0 0 -0.930736 0.00891062 -0.37684 0 0 -0.000346714 32.1177 -667.316 -93.06 0.0015 
152 1 1 -0.226867 0.00927678 -0.199156 0 0 0 -1.02462 0.069023 -0.683284 0 0 -0.000346714 -51.5387 -313.555 -58.3812 0.0015 
77 1 1 -0.222116 0.0227881 -0.196674 0 0 0 -0.973214 0.12033 -0.380335 0.000150449 -0.000367425 0.000468623 -47.5406 -428.02 -14.9739 0.0025 
64 1 1 -0.228057 0.0272089 -0.199212 0 0 0 -0.868658 0.120152 -0.336493 -8.42758e-05 -4.83668e-05 -4.79876e-05 -11.5471 -599.479 -184.246 0.0015 
137 1 1 -0.225823 0.0314957 -0.197224 0 0 0 -1.09159 0.163484 -0.423754 0 0 -0.000346714 -110.572 -798.773 -24.9694 0.0015 
84 1 1 -0.21448 -0.0184692 -0.195166 0 0 0 -0.916976 -0.0799545 -0.384116 -8.78413e-05 2.13364e-05 -4.29601e-05 29.0448 -661.226 68.3017 0.0015 
63 1 1 -0.212165 -0.00764203 -0.195264 0 0 0 -0.924484 0.12453 -0.394273 -0.00016416 3.61166e-05 0.000105044 -120.264 -663.599 72.33 0.0015 
97 1 1 -0.208204 -0.00776229 -0.193588 0 0 0 -0.923968 0.0563619 -0.396838 0 0 -0.000346714 -13.8534 -676.642 -64.9169 0.0015 
104 1 1 -0.215505 -0.00460342 -0.19581 0 0 0 -0.99983 0.0266754 -0.427898 -0.000407987 -1.09246e-05 -0.000202868 -32.331 -435.974 48.3388 0.0025 
80 1 1 -0.217394 0.0157169 -0.195551 0 0 0 -0.857682 0.0762987 -0.354631 4.79958e-05 1.95977e-05 -0.00164824 -20.0385 -370.953 -31.836 0.0025 
83 1 1 -0.211744 0.0200853 -0.193791 0 0 0 -0.952046 0.0117683 -0.392092 -8.48897e-05 -2.37577e-05 -4.3548e-05 -19.4763 -694.153 26.4311 0.0015 
139 1 1 -0.218639 0.0319911 -0.194163 0 0 0 -0.986959 0.0424857 -0.392294 -6.57954e-05 -3.73716e-05 -8.74761e-05 -61.7642 -745.176 74.5354 0.0015 
140 1 1 -0.221673 0.033417 -0.195064 0 0 0 -1.05027 -0.325595 -0.505094 -8.20934e-05 -4.7433e-05 -4.67494e-05 240.885 -773.908 -2.01177 0.0015 
45 1 1 -0.258489 -0.061954 -0.192718 0 0 0 -0.88159 0.0868543 -0.608443 0 0 -0.000346714 38.1207 -633.678 42.0881 0.0015 
105 1 1 -0.21608 -0.0278647 -0.19292 0 0 0 -1.13058 0.0176322 -0.464963 -0.000182477 8.51338e-05 -0.000721518 -0.902303 -502.075 -16.7176 0.0025 
122 1 1 -0.209924 -0.0244204 -0.192261 0 0 0 -0.874048 -0.0899531 -0.328281 -2.32598e-05 -4.20608e-06 -0.000332039 71.5484 -642.705 -10.2858 0.0015 
166 1 1 -0.203129 -0.00313444 -0.191614 0 0 0 -1.00981 -0.0510664 -0.432796 -8.89219e-05 3.62863e-07 -4.02325e-05 36.5618 -732.836 1.16231 0.0015 
91 1 1 -0.208853 0.00256415 -0.192906 0 0 0 -0.987016 0.00768004 -0.410638 -0.000413537 -6.62537e-06 -0.000142007 15.9093 -427.64 -46.2592 0.0025 
103 1 1 -0.201132 0.00196692 -0.189681 0 0 0 -0.937515 -0.0642639 -0.401198 -0.000350187 8.81404e-07 -0.000347555 21.9393 -408.159 14.1105 0.0025 
116 1 1 -0.203736 0.00735553 -0.190599 0 0 0 -0.86337 -0.0655279 -0.393863 0 0 -0.00160516 38.1752 -360.78 8.10484 0.0025 
54 1 1 -0.206295 0.0117338 -0.191349 0 0 0 -0.782727 0.0178355 -0.3299 1.06297e-05 -3.28106e-06 -0.00123578 8.47959 -337.46 -38.1716 0.0025 
66 1 1 -0.198125 -0.0223386 -0.186667 0 0 0 -0.940905 -6.83928e-05 -0.401988 -0.000128773 3.15396e-05 -0.000830757 -23.4938 -405.246 55.1057 0.0025 
128 1 1 -0.196529 -0.0113372 -0.188379 0 0 0 -0.885604 0.0375233 -0.378553 -0.000266373 2.09751e-05 0.000298401 -10.0944 -649.04 -40.9442 0.0015 
93 1 1 -0.192679 -0.0107061 -0.185729 0 0 0 -0.881456 -0.0562315 -0.356937 -0.000472234 9.50582e-05 -0.000118619 3.61363 -378.092 50.5084 0.0025 
203 1 1 -0.193986 -0.00592428 -0.187692 0 0 0 -0.895471 -0.0889956 -0.372378 -0.000128989 2.36063e-06 6.64792e-05 8.55221 -646.304 134.074 0.0015 
110 1 1 -0.199068 0.00473318 -0.187534 0 0 0 -0.91461 -0.0175802 -0.475043 0 0 -0.000346714 -27.479 629.934 10.9778 0.0015 
100 1 1 -0.192755 0.00322698 -0.187241 0 0 0 -0.89981 -0.102612 -0.373407 -8.75645e-05 1.4097e-06 -3.69868e-05 91.8818 -650.29 -42.7098 0.0015 
13 1 1 -0.195602 0.0068917 -0.187307 0 0 0 -0.856008 -0.0867853 -0.374449 -0.000418394 -9.22304e-05 -0.000168165 59.0766 -369.446 -49.4274 0.0025 
135 1 1 -0.20149 0.0201143 -0.189526 0 0 0 -0.988509 -0.0167021 -0.410659 -8.66704e-05 -2.14391e-05 -3.80825e-05 52.6283 -706.709 -97.9402 0.0015 
149 1 1 -0.19808 -0.0403658 -0.18333 0 0 0 -1.03194 0.0430172 -0.445205 0 0 -0.000346714 -105.235 -713.944 184.152 0.0015 
117 1 1 -0.195345 -0.026883 -0.184609 0 0 0 -1.12544 -0.00970542 -0.453924 -6.25813e-05 2.0006e-05 -0.00107833 -34.1409 -474.959 94.9173 0.0025 
163 1 1 -0.181233 -0.00254427 -0.182308 0 0 0 -0.829675 -0.00853442 -0.347149 -8.82218e-05 3.96422e-06 -3.68668e-05 58.41 -602.377 -124.788 0.0015 
164 1 1 -0.216912 0.000927423 -0.186278 0 0 0 -1.2613 -0.0091001 -0.58677 0 0 -0.000346714 -82.064 317.704 -96.5623 0.0015 
172 1 1 -0.18336 0.00369171 -0.183316 0 0 0 -0.883124 -0.0442112 -0.368854 -8.81593e-05 3.96183e-06 -3.69786e-05 12.6503 -637.816 46.1614 0.0015 
185 1 1 -0.188348 0.010788 -0.184925 0 0 0 -0.870617 -0.00287524 -0.375415 -0.000119443 -2.87277e-05 0.000109388 -19.1337 -639.729 50.2307 0.0015 
62 1 1 -0.188139 0.0139691 -0.184531 0 0 0 -0.940316 0.0382275 -0.388662 0 0 -0.000346714 -6.66617 -673.769 -52.3405 0.0015 
74 1 1 -0.20418 -0.0506047 -0.182177 0 0 0 -0.936942 -0.0108032 -0.370315 -7.04557e-05 8.75474e-05 -7.18759e-05 22.5933 -759.267 -35.0139 0.0015 
106 1 1 -0.19004 -0.0372166 -0.18002 0 0 0 -1.00125 0.0553942 -0.436196 0 0 -0.00160516 -46.2841 -436.153 52.7438 0.0025 
112 1 1 -0.189005 -0.0336078 -0.181503 0 0 0 -0.976787 0.0693612 -0.421483 0 0 -0.000346714 -180.379 -648.677 310.902 0.0015 
243 1 1 -0.182543 -0.0292938 -0.179806 0 0 0 -0.900463 0.0547239 -0.378713 4.73055e-06 0.000155295 -3.87848e-05 -127.47 -584.115 110.063 0.0015 
15 1 1 -0.190847 -0.013051 -0.181714 0 0 0 -0.751115 -0.0502089 -0.412268 3.87065e-05 -7.46621e-05 -0.00113804 9.92471 383.751 23.3805 0.0025 
65 1 1 -0.182578 -0.00748021 -0.181717 0 0 0 -0.797286 0.0535446 -0.342622 -0.000561488 1.84554e-05 0.000129042 19.1441 -348.867 -99.015 0.0025 
131 1 1 -0.177391 -0.00810224 -0.179519 0 0 0 -0.880488 0.058353 -0.363369 -0.000374227 1.27352e-05 -0.000228014 -23.341 -381.24 -4.66528 0.0025 
95 1 1 -0.17715 -0.0040367 -0.180571 0 0 0 -0.782691 0.0181213 -0.326177 -0.00011682 5.66721e-07 -0.000109605 -37.4893 -564.857 58.3132 0.0015 
127 1 1 -0.172491 -0.0070017 -0.178508 0 0 0 -0.839852 0.00172536 -0.337702 0 0 -0.000346714 112.246 -493.5 -89.9559 0.0015 
167 1 1 -0.173445 0.00216911 -0.178055 0 0 0 -0.628834 0.0114431 -0.262394 6.59571e-05 -0.000177131 -0.000180648 1.79281 -250.699 2.49468 0.0025 
158 1 1 -0.184831 0.0101315 -0.182419 0 0 0 -0.942619 0.00505487 -0.394236 -0.00033834 -7.66099e-05 -0.000257946 12.7402 -407.18 -35.6939 0.0025 
151 1 1 -0.178817 0.00968237 -0.180915 0 0 0 -0.786061 -0.10032 -0.376635 0 0 -0.000346714 139.637 -528.695 -180.266 0.0015 
68 1 1 -0.180894 0.01377 -0.180451 0 0 0 -0.92518 -0.0670107 -0.388182 -0.000511317 -9.20195e-05 1.74922e-05 42.1829 -399.397 -31.5662 0.0025 
94 1 1 -0.199618 0.0433972 -0.181739 0 0 0 -0.937664 -0.211714 -0.448929 -0.000336428 -0.000284869 -0.000303215 133.548 -392.204 -93.9823 0.0025 
121 1 1 -0.238356 -0.0772925 -0.177198 0 0 0 -0.916534 0.0639118 -0.324351 0 0 -0.000346714 -61.3366 -922.175 14.0223 0.0015 
187 1 1 -0.189093 -0.00705209 -0.175943 0 0 0 -1.07268 0.00916889 -0.348178 0 0 -0.000346714 -9.05919 216.14 -97.7141 0.0015 
150 1 1 -0.170481 -0.00901966 -0.17707 0 0 0 -0.874549 -0.0587072 -0.247309 0 0 -0.000346714 30.8825 -498.354 234.981 0.0015 
101 1 1 -0.170151 -0.00468129 -0.177666 0 0 0 -0.750586 -0.0211937 -0.308755 2.64272e-05 8.96738e-06 1.41804e-05 -7.22289 0.168308 12.8374 0.0015 
157 1 1 -0.167353 -0.00580963 -0.174631 0 0 0 -0.790891 -0.103172 -0.288169 0 0 -0.00160516 46.1309 -278.248 15.2791 0.0025 
90 1 1 -0.173886 -0.00320947 -0.178144 0 0 0 -0.754114 -0.0422134 -0.307813 2.99122e-05 -8.10964e-05 -0.00100902 51.4588 -278.322 -36.6321 0.0025 
73 1 1 -0.167293 -0.00167545 -0.176533 0 0 0 -0.577131 0.0105436 -0.225102 0.000234225 -0.000131497 -0.000617194 12.34 -380.566 46.307 0.0015 
208 1 1 -0.169238 0.00508047 -0.176244 0 0 0 -0.713191 0.0128843 -0.32034 0 0 -0.00160516 -13.1053 -304.233 17.7197 0.0025 
175 1 1 -0.174069 0.0164646 -0.178426 0 0 0 -0.880386 0.169665 -0.313994 3.064e-05 1.52707e-06 0.000146689 -126.543 -476.674 -58.7601 0.0015 
92 1 1 -0.177315 0.0283671 -0.176698 0 0 0 -0.859234 -0.0850549 -0.371317 -0.000400861 -0.000193094 -0.000172759 57.7953 -368.484 -49.3304 0.0025 
67 1 1 -0.180322 0.0353472 -0.176534 0 0 0 -0.807262 -0.0234566 -0.341088 -0.000370915 -0.000291822 -0.000248147 23.8327 -354.648 -32.0163 0.0025 
130 1 1 -0.186478 0.0404006 -0.177377 0 0 0 -0.903309 -0.136478 -0.415312 6.31483e-06 1.56624e-05 -0.00136609 99.0599 -378.054 -91.5156 0.0025 
199 1 1 -0.191732 0.0444257 -0.1768 0 0 0 -0.848784 -0.0524485 -0.419483 0 0 -0.000346714 205.047 -136.503 -23.2157 0.0015 
173 1 1 -0.189212 0.0440747 -0.178403 0 0 0 -0.784359 -0.0372142 -0.337475 -2.06546e-05 -1.63234e-05 -0.000145524 70.0748 -558.471 -101.332 0.0015 
233 1 1 -0.175261 -0.0297334 -0.174631 0 0 0 -0.9122 -0.0364492 -0.372759 0 0 -0.00160516 -11.8837 -363.281 93.5739 0.0025 
198 1 1 -0.16547 -0.0267681 -0.173323 0 0 0 -0.80216 -0.217131 -0.250926 0 0 -0.000346714 174.456 -578.523 -30.3179 0.0015 
159 1 1 -0.193571 -0.0217321 -0.173311 0 0 0 -0.890104 -0.18361 -0.555158 0 0 -0.000346714 52.9769 -92.1889 -42.178 0.0015 
183 1 1 -0.163536 -0.0190313 -0.172687 0 0 0 -0.619952 -0.0294381 -0.260517 7.17499e-05 -1.47479e-05 3.33125e-05 31.0885 -276.212 -42.0236 0.0025 
193 1 1 -0.164267 -0.0122163 -0.173711 0 0 0 -0.83831 0.0863234 -0.354039 -0.00115407 0.000258086 0.00125959 -36.2163 -366.656 -4.70052 0.0025 
197 1 1 -0.170966 -0.00261833 -0.174994 0 0 0 -0.89566 -0.0448922 -0.4991 0 0 -0.000346714 175.065 342.01 -93.0549 0.0015 
153 1 1 -0.172133 0.0018329 -0.172236 0 0 0 -0.939689 0.0517124 -0.298835 0 0 -0.000346714 -42.7861 -289.187 104.93 0.0015 
132 1 1 -0.159552 0.000624394 -0.172144 0 0 0 -0.671267 -0.0858056 -0.308093 -0.00537007 0.00254747 0.0192307 -28.414 -226.341 -11.1001 0.0025 
123 1 1 -0.161984 0.0057626 -0.174275 0 0 0 -0.691897 -0.00837507 -0.299473 -9.01542e-05 3.86124e-07 -3.93137e-05 29.2482 -502.985 -53.5075 0.0015 
189 1 1 -0.157641 0.0101878 -0.172156 0 0 0 -0.701103 -0.0644124 -0.259743 -0.00508222 -0.000186532 0.00934458 35.6164 -515.751 1.68797 0.0015 
148 1 1 -0.161741 0.018125 -0.173116 0 0 0 -0.969415 -0.0921375 -0.386258 0 0 -0.000346714 15.1424 -703.734 117.752 0.0015 
136 1 1 -0.16794 0.0297984 -0.173623 0 0 0 -0.935797 -0.0258364 -0.399675 -8.17456e-05 -3.81137e-05 -4.81796e-05 80.0062 -660.087 -144.683 0.0015 
204 1 1 -0.192414 0.0359117 -0.174597 0 0 0 -0.965384 0.198399 -0.739115 0 0 -0.000346714 -335.15 193.462 -73.885 0.0015 
161 1 1 -0.17061 0.0314673 -0.174415 0 0 0 -0.81681 -0.0488401 -0.345598 -1.32977e-05 -4.03602e-06 -0.000229554 43.4262 -594.958 -18.8734 0.0015 
89 1 1 -0.190765 0.0575407 -0.173617 0 0 0 -0.856099 -0.0530707 -0.358893 -7.09239e-05 -8.38872e-05 -6.59836e-05 75.1092 -627.464 -86.3778 0.0015 
177 1 1 -0.161985 -0.0325142 -0.170603 0 0 0 -0.77862 0.0151542 -0.342749 0 0 -0.000346714 -7.70061 -571.1 -7.83817 0.0015 
211 1 1 -0.153434 -0.0196785 -0.169439 0 0 0 -0.726902 -0.220033 -0.273632 -8.62337e-05 2.52695e-05 -3.87706e-05 138.576 -521.649 51.3407 0.0015 
225 1 1 -0.161397 -0.0149831 -0.171656 0 0 0 -0.865764 -0.12966 -0.342549 0 0 -0.000346714 277.157 420.776 4.60082 0.0015 
205 1 1 -0.148884 -0.016314 -0.167966 0 0 0 -0.799203 -0.0206489 -0.338111 -0.000187886 -5.257e-05 0.00085877 60.3858 -593.694 -107.579 0.0015 
191 1 1 -0.153433 -0.00957292 -0.170428 0 0 0 -0.942504 0.0563621 -0.417114 0 0 -0.000346714 -70.9089 -677.555 72.6097 0.0015 
59 1 1 -0.149909 -0.00609651 -0.169116 0 0 0 -0.737142 -0.0299661 -0.315085 0 0 -0.000346714 63.3822 -537.862 -99.509 0.0015 
144 1 1 -0.155083 -0.000860714 -0.170071 0 0 0 -0.619371 -0.0309261 -0.285526 0 0 -0.00160516 -7.64881 -238.562 75.7567 0.0025 
119 1 1 -0.156701 0.00448965 -0.170855 0 0 0 -0.694287 -0.0266532 -0.208232 0.0038638 0.00614628 0.00478032 9.76404 -280.407 -45.924 0.0025 
202 1 1 -0.155229 0.0100841 -0.169625 0 0 0 -0.695492 -0.0342474 -0.314986 0 0 -0.000346714 18.4442 90.9075 53.4504 0.0015 
213 1 1 -0.159219 0.00922705 -0.169738 0 0 0 -0.930993 0.0414701 -0.471657 0 0 -0.000346714 -145.551 262.504 3.31047 0.0015 
178 1 1 -0.148795 0.00839382 -0.168565 0 0 0 -0.627084 0.0590875 -0.270272 -9.02736e-05 -5.09749e-06 -3.92384e-05 -25.5205 -454.983 -40.2567 0.0015 
196 1 1 -0.175704 0.0150792 -0.173192 0 0 0 -1.0503 0.185083 -0.771411 0 0 -0.00160516 -76.5128 12.144 1.21368 0.0025 
276 1 1 -0.148474 0.0140222 -0.167892 0 0 0 -0.707949 0.108398 -0.276942 -8.55481e-05 -2.1941e-05 -3.66789e-05 -135.471 -528.76 139.301 0.0015 
210 1 1 -0.159587 0.0136951 -0.171546 0 0 0 -0.981331 -0.191802 -0.417595 8.73533e-05 1.47706e-06 -0.00135303 111.369 -419.293 -68.8651 0.0025 
269 1 1 -0.160522 0.0204863 -0.171689 0 0 0 -1.12006 -0.0728665 -0.218067 0 0 -0.000346714 101.811 -666.703 -297.123 0.0015 
143 1 1 -0.158324 -0.0345391 -0.167565 0 0 0 -0.827737 -0.0171222 -0.322533 0 0 -0.00160516 -42.1726 -333.78 128.216 0.0025 
221 1 1 -0.152755 -0.0296175 -0.166425 0 0 0 -0.759713 -0.00737543 -0.291069 -0.000545661 0.000319067 -0.000187438 9.91761 -335.94 -15.4406 0.0025 
169 1 1 -0.193849 -0.00517081 -0.169898 0 0 0 -0.840969 -0.00189137 -0.758408 0 0 -0.00160516 -36.2028 196.873 12.8413 0.0025 
182 1 1 -0.165265 -0.00383338 -0.17017 0 0 0 -0.948885 -0.0175628 -0.795843 0 0 -0.00160516 47.3578 268.415 4.57205 0.0025 
168 1 1 -0.145634 -0.00517564 -0.166299 0 0 0 -0.653369 -0.00953121 -0.27096 -0.000258301 3.23031e-05 -0.000524929 -22.1055 -280.285 63.1966 0.0025 
155 1 1 -0.147315 0.00343267 -0.166957 0 0 0 -0.653282 -0.00580319 -0.283609 -0.000461431 -2.6244e-05 -7.26605e-05 -9.33818 -285.827 27.406 0.0025 
180 1 1 -0.142814 0.00171823 -0.165092 0 0 0 -0.649038 -0.0209278 -0.267519 -0.000401672 -3.72413e-05 -0.000169134 41.2541 -278.079 -78.3303 0.0025 
190 1 1 -0.162467 0.00942948 -0.167647 0 0 0 -0.910911 0.077461 -0.531278 0 0 -0.000346714 44.9778 -185.516 73.4766 0.0015 
201 1 1 -0.139735 0.00743898 -0.164688 0 0 0 -0.825396 0.0329692 -0.337975 -8.58787e-05 -7.97251e-06 -3.82091e-05 -13.5883 -594.658 -24.8233 0.0015 
192 1 1 -0.148581 0.0170076 -0.167596 0 0 0 -0.766322 0.111311 -0.300107 0.000342404 0.00010138 -0.00114165 -44.6383 -544.865 -88.137 0.0015 
212 1 1 -0.148633 0.0201041 -0.167251 0 0 0 -0.802747 0.163917 -0.44687 0 0 -0.000346714 -95.2865 -435.418 -249.212 0.0015 
256 1 1 -0.162058 -0.0505622 -0.164555 0 0 0 -1.00885 -0.0633308 -0.508116 0 0 -0.000346714 82.8942 -718.712 -6.82692 0.0015 
214 1 1 -0.145079 -0.0316845 -0.163887 0 0 0 -1.01174 -0.0394572 -0.4188 -8.51549e-05 4.55028e-05 -4.61763e-05 44.0698 -756.315 -35.2075 0.0015 
181 1 1 -0.140504 -0.0223149 -0.162591 0 0 0 -0.749606 0.106115 -0.335117 -0.000405859 0.000140337 -0.000193668 -78.4679 -318.141 74.7817 0.0025 
218 1 1 -0.136751 -0.0204333 -0.162363 0 0 0 -0.803031 -0.108155 -0.326309 -8.76794e-05 3.0317e-05 -4.18473e-05 48.0076 -576.813 73.0407 0.0015 
126 1 1 -0.138792 -0.0161275 -0.163704 0 0 0 -0.728497 0.0951933 -0.310468 -8.68497e-05 1.96329e-05 -3.77728e-05 -149.856 -509.585 195.385 0.0015 
206 1 1 -0.141326 -0.0126197 -0.164018 0 0 0 -0.788441 0.0851372 -0.355099 0.00029236 -0.000103746 -0.000319829 -47.0624 -340.564 24.232 0.0025 
232 1 1 -0.135695 -0.00654329 -0.162027 0 0 0 -0.623165 -0.0541289 -0.25749 -0.000405043 2.27496e-05 -0.000177182 24.1505 -270.204 -1.63519 0.0025 
216 1 1 -0.134811 -3.48354e-05 -0.162931 0 0 0 -0.696065 0.0120229 -0.299032 -0.000106036 7.69327e-06 7.09049e-06 -6.25747 -505.645 -5.80603 0.0015 
228 1 1 -0.134907 0.00860524 -0.162647 0 0 0 -0.740821 0.061572 -0.318175 -9.01927e-05 -1.05895e-05 -3.97283e-05 32.3631 -530.138 -177.94 0.0015 
224 1 1 -0.139547 0.0149805 -0.164138 0 0 0 -0.805056 0.131984 -0.335375 0.000255342 -0.000114399 0.00323664 -92.8065 -488.675 -39.0308 0.0015 
253 1 1 -0.136208 0.013764 -0.16284 0 0 0 -0.836235 0.192132 -0.380176 0 0 -0.000346714 -271.044 18.8146 -217.63 0.0015 
184 1 1 -0.150525 0.0429478 -0.162993 0 0 0 -0.918564 0.00256257 -0.324223 0 0 -0.000346714 11.2798 -659.402 -54.8788 0.0015 
188 1 1 -0.131404 -0.0183762 -0.160388 0 0 0 -0.771091 -0.00401917 -0.327429 -0.000144743 4.93225e-05 5.62291e-05 11.6555 -567.28 -20.3849 0.0015 
226 1 1 -0.128445 -0.015927 -0.15944 0 0 0 -0.616084 -0.0478117 -0.252575 -0.000274955 6.44775e-05 0.000465454 22.4261 -444.21 29.077 0.0015 
145 1 1 -0.132702 -0.0143048 -0.160268 0 0 0 -0.72407 -0.126296 -0.287106 -0.000184347 3.43034e-05 -0.000715557 59.2267 -315.577 -10.3054 0.0025 
207 1 1 -0.135832 -0.00811097 -0.157122 0 0 0 -0.660668 -0.105358 -0.324755 0 0 -0.00160516 1.98918 218.776 57.3295 0.0025 
147 1 1 -0.122228 -0.00955316 -0.157234 0 0 0 -0.740141 -0.0185794 -0.333368 0 0 -0.000346714 -16.1151 -423.638 4.35346 0.0015 
109 1 1 -0.129191 -0.00721565 -0.16039 0 0 0 -0.762859 -0.0499228 -0.315943 -0.000102896 5.91539e-06 8.31366e-08 23.7657 -550.536 29.6041 0.0015 
223 1 1 -0.125212 -0.00643223 -0.158755 0 0 0 -0.618857 -0.0524316 -0.268369 -9.35743e-05 0.000490428 0.000939698 -113.09 -297.391 -92.5639 0.0015 
124 1 1 -0.132229 -0.000250587 -0.157744 0 0 0 -0.781889 -0.137019 -0.36784 0 0 -0.000346714 -214.45 116.067 -114.897 0.0015 
217 1 1 -0.129662 0.00348116 -0.160287 0 0 0 -0.769978 0.0527265 -0.303833 0 0 -0.000346714 -58.387 -536.473 39.7367 0.0015 
266 1 1 -0.128385 0.000391184 -0.159059 0 0 0 -0.637743 -0.0749005 -0.43122 0 0 -0.000346714 226.462 -102.523 148.267 0.0015 
268 1 1 -0.125011 0.00466735 -0.157775 0 0 0 -0.88971 0.0911156 -0.389097 0 0 -0.000346714 17.7387 -53.8314 -72.1943 0.0015 
244 1 1 -0.131575 0.0127374 -0.159902 0 0 0 -0.80472 0.00848893 -0.348545 -0.000390648 -4.57868e-05 -0.000244605 1.80927 -350.829 -12.7244 0.0025 
245 1 1 -0.128649 0.0244015 -0.157208 0 0 0 -0.598122 0.257109 -0.206866 -0.000433903 -0.000150058 -9.24907e-05 -108.576 -259.484 -8.6171 0.0025 
9 1 1 -0.153351 0.0550694 -0.159918 0 0 0 -0.676818 -0.291712 -0.397893 -7.37829e-05 -7.93476e-05 -6.38907e-05 224.505 -525.633 3.47927 0.0015 
179 1 1 -0.203103 -0.0877967 -0.155042 0 0 0 -0.905148 0.0487554 -0.302349 0 0 -0.000346714 -112.447 -677.577 238.414 0.0015 
194 1 1 -0.175719 -0.0785502 -0.153784 0 0 0 -0.868925 -0.0291123 -0.277004 -0.00168977 0.00565985 0.00631009 -51.8627 -307.219 194.005 0.0025 
195 1 1 -0.119062 -0.00853713 -0.154704 0 0 0 -0.723372 -0.0124223 -0.305447 0 0 -0.00160516 -15.2711 -286.217 55.2476 0.0025 
251 1 1 -0.119188 -0.00443283 -0.156261 0 0 0 -0.715427 -0.00221392 -0.300748 -8.84461e-05 2.50109e-08 -3.71808e-05 -20.6882 -517.646 53.0243 0.0015 