ITEM: TIMESTEP
78400
ITEM: NUMBER OF ATOMS
817
ITEM: BOX BOUNDS ff ff ff
-0.5 0.1
-0.2 0.2
-0.4 0.15
ITEM: ATOMS id type type x y z ix iy iz vx vy vz fx fy fz omegax omegay omegaz radius 
1001 1 1 -0.0248978 0.00656336 0.0571123 0 0 0 -0 0 -1 0 0 0 0 0 0 0.0025 
1008 1 1 -0.027129 -0.0329542 0.0558418 0 0 0 -0 0 -1 0 0 0 0 0 0 0.0015 
1000 1 1 -0.0106881 0.00730775 0.055654 0 0 0 -0 0 -1 0 0 0 0 0 0 0.0025 
1002 1 1 -0.0173703 0.0154926 0.0561083 0 0 0 -0 0 -1 0 0 0 0 0 0 0.0015 
999 1 1 -0.00550569 -0.017409 0.0545799 0 0 0 -0 0 -1 0 0 0 0 0 0 0.0025 
1004 1 1 -0.00163069 -0.0325847 0.0534166 0 0 0 -0 0 -1 0 0 0 0 0 0 0.0015 
218 1 1 -0.482784 -0.00833813 -0.40035 0 0 0 -1.16241 0.0733094 -1.83746 0 0 -0.000346714 -40.6898 -856.813 -30.7497 0.0015 
1005 1 1 -0.0233564 0.029588 0.0503529 0 0 0 -0 0 -1 0 0 0 0 0 0 0.0015 
1006 1 1 -0.0265971 0.0312404 0.0508671 0 0 0 -0 0 -1 0 0 0 0 0 0 0.0015 
155 1 1 -0.462916 0.0066406 -0.399118 0 0 0 -1.02435 0.0338799 -1.82865 0 0 -0.00160516 1.55192 -349.204 26.4785 0.0025 
211 1 1 -0.433501 -0.0288917 -0.393555 0 0 0 -0.873726 -0.101697 -1.84778 0 0 -0.000346714 -178.623 -327.611 8.8973 0.0015 
127 1 1 -0.443201 -0.0171382 -0.39379 0 0 0 -0.831664 -0.0487669 -1.76126 0 0 -0.000346714 12.3567 -579.139 19.1742 0.0015 
9 1 1 -0.467137 0.0103191 -0.394415 0 0 0 -1.03234 0.05283 -1.77135 0 0 -0.000346714 6.86682 -694.063 -113.314 0.0015 
59 1 1 -0.442224 -0.00749759 -0.390642 0 0 0 -0.838481 0.00623968 -1.75394 0 0 -0.000346714 -35.7349 121.694 7.76013 0.0015 
206 1 1 -0.460031 0.00542807 -0.39153 0 0 0 -0.976405 0.0758532 -1.77442 0 0 -0.00160516 -17.202 -170.623 4.82597 0.0025 
228 1 1 -0.471013 0.0156869 -0.390563 0 0 0 -1.11224 0.00178354 -1.77636 0 0 -0.000346714 75.8592 -782.056 -182.758 0.0015 
305 1 1 -0.466249 0.0180718 -0.39252 0 0 0 -1.09384 -0.102151 -1.84674 0 0 -0.000346714 -1.1303 -780.799 -101.29 0.0015 
188 1 1 -0.481376 -0.012447 -0.388256 0 0 0 -1.18406 0.110762 -1.77537 0 0 -0.000346714 -65.3032 -893.373 -32.5978 0.0015 
259 1 1 -0.492101 -0.00766665 -0.387376 0 0 0 -1.22873 0.123982 -1.74239 0 0 -0.00160516 -68.6659 -469.939 35.8833 0.0025 
182 1 1 -0.444948 -0.0114091 -0.385252 0 0 0 -0.874703 0.00117447 -1.72 0 0 -0.00160516 -24.6677 -371.655 66.7302 0.0025 
276 1 1 -0.471913 0.00415858 -0.385344 0 0 0 -1.10948 -0.0420042 -1.71637 0 0 -0.000346714 27.7378 -715.581 -0.74492 0.0015 
272 1 1 -0.456641 0.0682651 -0.382903 0 0 0 -0.999806 0.285492 -1.77741 0 0 -0.00160516 9.75074 -59.5008 -143.463 0.0025 
225 1 1 -0.448028 -0.0139055 -0.375612 0 0 0 -0.962436 0.00897913 -1.67261 0 0 -0.000346714 23.763 -718.116 -73.3922 0.0015 
180 1 1 -0.466014 0.0129075 -0.376004 0 0 0 -1.07507 0.109286 -1.66194 0 0 -0.00160516 -2.30228 -398.032 -60.2754 0.0025 
216 1 1 -0.439345 -0.000575949 -0.374047 0 0 0 -0.938118 0.00973268 -1.67387 0 0 -0.000346714 -183.288 -637.657 -39.8282 0.0015 
126 1 1 -0.445457 0.00714619 -0.374114 0 0 0 -0.969099 0.0755784 -1.66559 0 0 -0.000346714 -19.0477 -663.005 -79.6916 0.0015 
253 1 1 -0.460597 0.0184984 -0.373396 0 0 0 -1.09504 -0.113846 -1.70487 0 0 -0.000346714 187.587 -742.933 -247.5 0.0015 
145 1 1 -0.448757 0.0233084 -0.372523 0 0 0 -0.961799 0.221409 -1.64736 0 0 -0.00160516 -76.3318 -385.074 -25.0555 0.0025 
168 1 1 -0.443703 -0.00142226 -0.368506 0 0 0 -0.96131 0.0275136 -1.64622 0 0 -0.00160516 -38.9396 -401.623 31.4263 0.0025 
245 1 1 -0.458656 0.00603922 -0.365409 0 0 0 -1.16725 -0.179685 -1.67065 0 0 -0.00160516 98.8841 -514.922 -43.4747 0.0025 
202 1 1 -0.451195 0.00774851 -0.362315 0 0 0 -1.04816 0.0527132 -1.58049 0 0 -0.000346714 -93.445 -717.384 28.3075 0.0015 
217 1 1 -0.442273 0.0330518 -0.362588 0 0 0 -0.979047 0.0482316 -1.61625 0 0 -0.000346714 -62.3769 -710.188 -149.895 0.0015 
287 1 1 -0.460948 0.0444201 -0.363288 0 0 0 -1.07163 0.0470492 -1.63013 0 0 -0.000346714 29.6621 -756.413 -180.337 0.0015 
232 1 1 -0.45632 -0.0152398 -0.359071 0 0 0 -1.0912 -0.00281361 -1.57106 0 0 -0.00160516 0.912803 -446.291 -12.5083 0.0025 
268 1 1 -0.450405 -0.001647 -0.358963 0 0 0 -1.11172 -0.0230348 -1.51972 0 0 -0.000346714 68.6278 -673.864 -143.096 0.0015 
156 1 1 -0.451587 0.00604983 -0.358239 0 0 0 -1.13536 -0.146372 -1.61247 0 0 -0.00160516 104.231 -482.863 -93.3553 0.0025 
296 1 1 -0.462596 0.0394023 -0.360398 0 0 0 -1.14681 0.0735282 -1.61655 0 0 -0.00160516 19.6271 -471.011 -120.325 0.0025 
315 1 1 -0.472224 0.0458031 -0.359555 0 0 0 -1.19537 -0.0474614 -1.67147 0 0 -0.000346714 141.619 -839.23 -269.993 0.0015 
215 1 1 -0.42752 0.00557365 -0.35262 0 0 0 -0.951175 -0.00526021 -1.54552 0 0 -0.000346714 81.017 -671.859 56.629 0.0015 
281 1 1 -0.414727 0.00301974 -0.348561 0 0 0 -0.884606 -0.0265414 -1.55012 0 0 -0.000346714 -242.945 -508.979 156.931 0.0015 
239 1 1 -0.42965 0.0105871 -0.347813 0 0 0 -0.961078 -0.0352204 -1.50484 0 0 -0.000346714 87.1321 -678.422 -144.801 0.0015 
147 1 1 -0.43276 -0.0140757 -0.343185 0 0 0 -1.02829 -0.0381294 -1.47422 0 0 -0.000346714 16.1649 -640.133 56.1681 0.0015 
274 1 1 -0.426266 0.00262269 -0.345519 0 0 0 -0.950556 0.000203931 -1.49489 0 0 -0.00160516 -35.2937 -287.224 55.6583 0.0025 
249 1 1 -0.420927 0.0121673 -0.345421 0 0 0 -0.928628 0.0502358 -1.51315 0 0 -0.000346714 -71.0977 -558.863 -75.5902 0.0015 
311 1 1 -0.453158 0.0428776 -0.341196 0 0 0 -1.1993 0.090386 -1.50717 0 0 -0.00160516 -20.5047 -526.685 -51.8186 0.0025 
247 1 1 -0.422914 -0.00793797 -0.33832 0 0 0 -0.932008 -0.0252074 -1.43439 0 0 -0.00160516 -1.36802 -401.64 30.0268 0.0025 
124 1 1 -0.423449 0.00733934 -0.338118 0 0 0 -0.985358 0.0571045 -1.4402 0 0 -0.000346714 5.29344 -290.979 -72.1655 0.0015 
201 1 1 -0.422238 0.0210492 -0.338564 0 0 0 -0.942955 0.11093 -1.43669 0 0 -0.000346714 -49.0519 -675.763 -65.0532 0.0015 
250 1 1 -0.441773 -0.0227866 -0.335185 0 0 0 -1.17414 0.0758322 -1.4624 0 0 -0.000346714 -86.4605 -854.852 76.913 0.0015 
109 1 1 -0.417402 -0.0107968 -0.335147 0 0 0 -0.91466 -0.0674199 -1.41037 0 0 -0.000346714 111.868 -222.572 118.383 0.0015 
235 1 1 -0.420559 0.000336086 -0.334399 0 0 0 -1.00864 -0.0693927 -1.49945 0 0 -0.000346714 -152.029 -399.94 40.2951 0.0015 
154 1 1 -0.423376 0.00601481 -0.332323 0 0 0 -1.01188 -0.0476029 -1.40129 0 0 -0.000346714 70.4283 -702.067 -115.19 0.0015 
160 1 1 -0.415179 0.00520203 -0.332772 0 0 0 -0.939044 -0.00159742 -1.40458 0 0 -0.000346714 7.64473 -602.03 -83.6384 0.0015 
195 1 1 -0.421341 -0.0105525 -0.33057 0 0 0 -0.950155 -0.00245124 -1.37698 0 0 -0.00160516 -31.7349 -403.29 79.3726 0.0025 
266 1 1 -0.414234 -0.011516 -0.330869 0 0 0 -0.905617 -0.0577355 -1.38115 0 0 -0.000346714 38.2168 -563.275 170.727 0.0015 
369 1 1 -0.425383 0.0149247 -0.329788 0 0 0 -0.97837 0.0760865 -1.35942 0 0 -0.000346714 -49.8506 -521.834 -142.143 0.0015 
223 1 1 -0.421116 -0.00583595 -0.326036 0 0 0 -0.96782 -0.0410256 -1.33171 0 0 -0.000346714 -14.4538 -65.868 -23.1529 0.0015 
134 1 1 -0.420567 0.00320817 -0.326492 0 0 0 -1.07764 -0.0198744 -1.30713 0 0 -0.000346714 162.244 -619.846 -30.5923 0.0015 
118 1 1 -0.430406 0.0115152 -0.327721 0 0 0 -1.03421 0.0750674 -1.35377 0 0 -0.00160516 -67.2787 -209.567 -20.9341 0.0025 
286 1 1 -0.427789 0.00202489 -0.322019 0 0 0 -1.21349 -0.123161 -1.36811 0 0 -0.00160516 61.1949 -526.834 -17.8641 0.0025 
251 1 1 -0.414752 0.00277059 -0.322876 0 0 0 -0.934641 0.0370445 -1.31142 0 0 -0.000346714 -45.3533 -548.355 12.8843 0.0015 
261 1 1 -0.434686 -0.0196616 -0.32133 0 0 0 -1.2512 0.216315 -1.41059 0 0 -0.000346714 -219.487 -908.675 154.103 0.0015 
252 1 1 -0.406971 -0.00438903 -0.320769 0 0 0 -0.966088 -0.253625 -1.46053 0 0 -0.000346714 -163.922 -529.897 -271.472 0.0015 
222 1 1 -0.426955 0.00962188 -0.319614 0 0 0 -1.23249 -0.0927185 -1.363 0 0 -0.00160516 99.848 -516.788 -138.809 0.0025 
226 1 1 -0.41521 -0.0155243 -0.317277 0 0 0 -1.04074 0.0779308 -1.31051 0 0 -0.000346714 -50.6944 -756.811 -10.2526 0.0015 
271 1 1 -0.413861 0.00610519 -0.317321 0 0 0 -1.05338 0.020287 -1.31234 0 0 -0.00160516 -14.5474 -428.222 3.29529 0.0025 
347 1 1 -0.423738 0.00899883 -0.315455 0 0 0 -1.25149 -0.0653268 -1.32956 0 0 -0.00160516 39.0311 -548.399 12.5517 0.0025 
295 1 1 -0.412943 -0.0177858 -0.311486 0 0 0 -1.06351 0.0795044 -1.26874 0 0 -0.000346714 -112.987 -745.537 141.606 0.0015 
209 1 1 -0.407118 -0.00968336 -0.313923 0 0 0 -1.01483 -0.0174525 -1.3104 0 0 -0.00160516 98.5795 -406.85 75.5558 0.0025 
299 1 1 -0.411276 -0.000452182 -0.313078 0 0 0 -1.01317 -0.00117368 -1.2496 0 0 -0.00160516 -65.3735 -59.9917 -34.7802 0.0025 
279 1 1 -0.399006 -0.00107574 -0.312274 0 0 0 -0.94014 -0.0255148 -1.26724 0 0 -0.000346714 -1.3844 -567.547 17.515 0.0015 
306 1 1 -0.392775 -0.0160427 -0.310629 0 0 0 -0.871024 0.118056 -1.37711 0 0 -0.000346714 94.844 -482.578 110.526 0.0015 
282 1 1 -0.396137 -0.00952507 -0.307228 0 0 0 -0.916104 -0.000669075 -1.21849 0 0 -0.000346714 155.515 -430.726 136.919 0.0015 
278 1 1 -0.394967 -0.00654822 -0.308917 0 0 0 -0.916566 0.0058572 -1.24362 0 0 -0.000346714 -189.381 -627.073 -31.7332 0.0015 
348 1 1 -0.419473 0.00164628 -0.309321 0 0 0 -1.27169 -0.17924 -1.26686 0 0 -0.00160516 71.4792 -535.908 -7.71366 0.0025 
86 1 1 -0.395021 0.00312222 -0.309476 0 0 0 -0.920224 0.0337641 -1.25222 0 0 -0.000346714 123.484 -563.73 199.571 0.0015 
238 1 1 -0.414329 -0.0287267 -0.305005 0 0 0 -1.10168 -0.0112723 -1.21079 0 0 -0.000346714 -29.0566 -782.247 111.447 0.0015 
237 1 1 -0.40947 -0.0236439 -0.303711 0 0 0 -1.11058 0.134415 -1.31143 0 0 -0.000346714 -45.5223 -775.812 54.2523 0.0015 
176 1 1 -0.40325 -0.0199691 -0.303562 0 0 0 -0.996804 0.0387971 -1.19001 0 0 -0.000346714 -17.5264 -731.744 -22.2109 0.0015 
207 1 1 -0.410156 -0.0150615 -0.303595 0 0 0 -1.07882 -0.0285322 -1.16281 0 0 -0.00160516 -16.2793 -407.085 136.478 0.0025 
290 1 1 -0.399645 0.00390156 -0.306352 0 0 0 -0.952515 -0.000298131 -1.19976 0 0 -0.000346714 -18.9022 -634.161 -97.4314 0.0015 
236 1 1 -0.392201 -0.00873488 -0.302443 0 0 0 -0.89147 0.0898722 -1.17369 0 0 -0.000346714 168.762 -139.541 125.842 0.0015 
303 1 1 -0.391534 -0.00812401 -0.299463 0 0 0 -0.932948 -0.0197277 -1.14662 0 0 -0.000346714 96.2072 -653.206 -27.4599 0.0015 
170 1 1 -0.404945 -0.00270496 -0.299703 0 0 0 -1.07346 0.000297935 -1.13943 0 0 -0.00160516 -4.82873 -433.055 24.9808 0.0025 
277 1 1 -0.414562 -0.0211737 -0.296719 0 0 0 -1.28296 0.258399 -1.17187 0 0 -0.000346714 -265.187 -765.948 250.678 0.0015 
390 1 1 -0.404641 -0.0152948 -0.297684 0 0 0 -1.30195 0.387075 -1.32654 0 0 -0.000346714 -266.547 -1023.17 -62.2383 0.0015 
257 1 1 -0.408502 -0.0128574 -0.298945 0 0 0 -1.11278 0.0651872 -1.16671 0 0 -0.00160516 -53.8169 -357.23 75.6582 0.0025 
350 1 1 -0.402372 -0.00715332 -0.297222 0 0 0 -1.1323 0.177802 -1.17258 0 0 -0.00160516 -104.978 -483.069 67.2552 0.0025 
323 1 1 -0.397554 0.00968199 -0.298244 0 0 0 -1.02998 0.0131417 -1.14996 0 0 -0.00160516 -4.88159 -448.51 -2.41291 0.0025 
275 1 1 -0.393962 -0.00575454 -0.294609 0 0 0 -1.08071 0.107591 -1.1302 0 0 -0.000346714 -101.324 -786.506 49.8113 0.0015 
220 1 1 -0.394852 0.0144863 -0.294984 0 0 0 -1.04407 -0.0275066 -1.19249 0 0 -0.00160516 -4.63245 -379.002 -101.609 0.0025 
264 1 1 -0.402934 0.0241832 -0.294816 0 0 0 -1.19427 0.0406466 -1.14938 0 0 -0.000346714 101.853 -817.084 -311.517 0.0015 
291 1 1 -0.413301 -0.0125796 -0.290855 0 0 0 -1.29096 0.221328 -1.03149 0 0 -0.000346714 -197.966 -656.204 251.766 0.0015 
242 1 1 -0.403739 -0.00701776 -0.291075 0 0 0 -1.04064 0.104259 -1.00269 0 0 -0.000346714 -75.309 -591.385 67.6381 0.0015 
125 1 1 -0.39191 -0.00209162 -0.290714 0 0 0 -1.0767 0.0633814 -1.07598 0 0 -0.000346714 -44.9976 -776.377 -1.41193 0.0015 
240 1 1 -0.392017 -0.0060315 -0.286312 0 0 0 -1.20438 0.177482 -1.07415 0 0 -0.000346714 -117.81 -878.802 -24.1288 0.0015 
327 1 1 -0.386911 0.00322028 -0.287165 0 0 0 -1.04841 0.119123 -1.03865 0 0 -0.000346714 -74.6471 -759.05 -26.7064 0.0015 
230 1 1 -0.390202 0.00986443 -0.287921 0 0 0 -1.13289 -0.0678747 -1.0762 0 0 -0.000346714 67.8075 -824.467 -43.4022 0.0015 
248 1 1 -0.378473 0.00562852 -0.28392 0 0 0 -0.950919 0.180702 -1.03126 0 0 -0.000346714 -110.923 -361.481 194.746 0.0015 
343 1 1 -0.380376 -0.00618267 -0.279175 0 0 0 -1.08991 0.0222555 -0.966938 0 0 -0.000346714 -31.4121 -783.452 37.8496 0.0015 
337 1 1 -0.399529 0.0153903 -0.280193 0 0 0 -1.25504 -0.0756442 -0.803938 0 0 -0.000346714 -9.93597 -637.522 -306.722 0.0015 
356 1 1 -0.382622 0.0174043 -0.27869 0 0 0 -1.1626 -0.0126764 -0.995735 0 0 -0.000346714 36.4979 -841.994 -65.4061 0.0015 
241 1 1 -0.383802 0.020785 -0.281084 0 0 0 -1.07831 -0.00936219 -1.00716 0 0 -0.000346714 -15.6061 -802.971 51.4179 0.0015 
142 1 1 -0.37628 -0.0093235 -0.276624 0 0 0 -1.04583 0.00611226 -0.983868 0 0 -0.00160516 -55.8784 -433.06 -27.5699 0.0025 
302 1 1 -0.375205 0.00933356 -0.277158 0 0 0 -1.01807 0.0334354 -0.939809 0 0 -0.000346714 -54.6361 -743.275 70.2522 0.0015 
313 1 1 -0.373091 0.0126811 -0.274863 0 0 0 -1.06304 -0.0430883 -0.955244 0 0 -0.000346714 -30.2268 -752.149 23.2262 0.0015 
393 1 1 -0.396747 -0.0487959 -0.272556 0 0 0 -1.31593 0.0442641 -1.07934 0 0 -0.000346714 -136.758 -884.306 309.158 0.0015 
146 1 1 -0.36831 -0.019204 -0.270894 0 0 0 -0.895098 0.127603 -0.877291 0 0 -0.000346714 -115.447 -643.49 55.929 0.0015 
227 1 1 -0.369022 -0.0110999 -0.271626 0 0 0 -0.979694 0.0386089 -0.889838 0 0 -0.000346714 -111.597 -695.685 62.2439 0.0015 
406 1 1 -0.370698 -0.00724846 -0.272246 0 0 0 -1.05576 0.0796117 -0.951481 0 0 -0.000346714 185.75 -497.727 -5.45739 0.0015 
297 1 1 -0.374933 -0.00438701 -0.273268 0 0 0 -1.07118 0.025485 -0.878967 0 0 -0.00160516 12.5466 -434.091 -11.8533 0.0025 
162 1 1 -0.367969 -0.00183657 -0.273696 0 0 0 -0.998759 0.0373586 -0.962373 0 0 -0.000346714 -127.94 -589.048 120.159 0.0015 
381 1 1 -0.364311 -0.00319562 -0.270671 0 0 0 -1.07079 -0.0241011 -0.926173 0 0 -0.000346714 -70.2283 166.492 -70.6154 0.0015 
254 1 1 -0.370161 0.00355179 -0.273661 0 0 0 -0.990815 0.0106039 -0.895381 0 0 -0.000346714 9.51715 -716.54 -40.5685 0.0015 
316 1 1 -0.373344 0.0155664 -0.271103 0 0 0 -1.11994 -0.0180026 -0.88516 0 0 -0.000346714 64.7908 -774.002 -147.916 0.0015 
361 1 1 -0.386386 0.0336 -0.273834 0 0 0 -1.15682 -0.12469 -1.02384 0 0 -0.00160516 53.1964 -560.58 13.1249 0.0025 
423 1 1 -0.379339 -0.0313813 -0.26865 0 0 0 -1.12441 0.179185 -0.940793 0 0 -0.000346714 -221.768 -755.597 243.854 0.0015 
384 1 1 -0.365857 -0.0133392 -0.268111 0 0 0 -0.965859 0.0791716 -0.840791 0 0 -0.000346714 -107.676 -717.006 -0.409174 0.0015 
234 1 1 -0.367494 -0.00873094 -0.267293 0 0 0 -1.04557 0.103413 -0.82747 0 0 -0.00160516 -39.9827 -425.556 30.5363 0.0025 
342 1 1 -0.366046 -0.00518019 -0.268777 0 0 0 -0.99876 0.0915109 -0.854414 0 0 -0.000346714 -168.135 -728.833 135.258 0.0015 
263 1 1 -0.36737 -0.00220602 -0.266787 0 0 0 -1.10003 0.0495227 -0.768882 0 0 -0.000346714 40.1686 -693.478 -153.089 0.0015 
318 1 1 -0.356219 -0.00310858 -0.268501 0 0 0 -0.924629 -0.006537 -0.905151 0 0 -0.000346714 42.9014 -204.632 91.2436 0.0015 
284 1 1 -0.367448 0.000387652 -0.269897 0 0 0 -1.00293 -0.0208594 -0.866276 0 0 -0.00160516 22.0481 -427.708 -15.5124 0.0025 
367 1 1 -0.368048 -0.0201572 -0.266523 0 0 0 -1.07867 0.23673 -0.898059 0 0 -0.000346714 -237.907 -748.841 165.515 0.0015 
292 1 1 -0.361717 -0.0063972 -0.264065 0 0 0 -1.09081 0.00665254 -0.798271 0 0 -0.000346714 18.9016 -790.098 -57.2001 0.0015 
308 1 1 -0.361287 0.000284628 -0.263034 0 0 0 -1.01831 -0.0150187 -0.789373 0 0 -0.00160516 10.6311 -370.246 2.07081 0.0025 
353 1 1 -0.355281 0.000258555 -0.263376 0 0 0 -0.987403 0.00505564 -0.886755 0 0 -0.000346714 -164.924 -594.2 10.7794 0.0015 
374 1 1 -0.35851 0.00495952 -0.26568 0 0 0 -0.856727 -0.0583314 -0.813333 0 0 -0.00160516 0.0871528 -147.447 -31.3329 0.0025 
294 1 1 -0.360982 -0.0182448 -0.261793 0 0 0 -1.07269 0.0683177 -0.788672 0 0 -0.000346714 -27.3602 -793.48 -54.3081 0.0015 
231 1 1 -0.357873 -0.0120296 -0.260851 0 0 0 -1.00743 0.0439715 -0.797503 0 0 -0.00160516 -90.9023 -417.055 46.7957 0.0025 
336 1 1 -0.356405 -0.00731787 -0.259288 0 0 0 -1.07474 0.0715256 -0.682312 0 0 -0.00160516 -42.4465 -400.526 8.69038 0.0025 
285 1 1 -0.357237 -0.00257377 -0.261329 0 0 0 -1.04119 0.0677286 -0.828592 0 0 -0.00160516 21.0786 -404.34 47.4256 0.0025 
255 1 1 -0.354846 0.00575527 -0.26225 0 0 0 -0.857492 0.0134788 -0.724527 0 0 -0.000346714 -32.4689 -607.15 88.1325 0.0015 
246 1 1 -0.357841 0.0103353 -0.26119 0 0 0 -0.952532 0.0291249 -0.734246 0 0 -0.00160516 -22.868 -403.019 8.07513 0.0025 
331 1 1 -0.35134 0.00893788 -0.259479 0 0 0 -0.950165 -0.00661328 -0.755771 0 0 -0.000346714 45.1933 -595.402 -58.8156 0.0015 
320 1 1 -0.35674 0.0168073 -0.262461 0 0 0 -0.980725 0.0957338 -0.779593 0 0 -0.000346714 -130.611 -741.905 96.6361 0.0015 
524 1 1 -0.359935 0.0176416 -0.261309 0 0 0 -1.13433 -0.0985662 -0.814803 0 0 -0.000346714 183.127 -782.884 -261.246 0.0015 
328 1 1 -0.363342 0.0259277 -0.261208 0 0 0 -1.10912 -0.330733 -0.902857 0 0 -0.000346714 330.172 -771.887 -194.782 0.0015 
61 1 1 -0.351513 -0.00696223 -0.256448 0 0 0 -1.03921 -0.0496302 -0.735168 0 0 -0.000346714 -136.919 -519.493 -43.1392 0.0015 
229 1 1 -0.349136 -0.00116262 -0.257005 0 0 0 -0.989994 -0.0373241 -0.684974 0 0 -0.000346714 33.3345 -714.915 -4.44825 0.0015 
399 1 1 -0.356396 0.00245612 -0.25867 0 0 0 -1.19817 -0.0329601 -0.756492 0 0 -0.00160516 20.5402 -497.571 -10.3015 0.0025 
330 1 1 -0.349356 0.00870796 -0.255664 0 0 0 -0.981036 0.000517776 -0.635845 0 0 -0.000346714 -11.5269 -679.338 28.067 0.0015 
301 1 1 -0.357627 0.0295142 -0.256875 0 0 0 -1.06247 0.0736182 -0.721755 0 0 -0.000346714 35.6289 -726.739 -223.249 0.0015 
141 1 1 -0.351346 -0.023619 -0.254325 0 0 0 -1.06731 -0.0409471 -0.682601 0 0 -0.000346714 82.8422 -806.273 -125.39 0.0015 
386 1 1 -0.348504 -0.00465415 -0.25449 0 0 0 -1.02871 -0.0505557 -0.651106 0 0 -0.00160516 25.5915 -413.001 -16.5909 0.0025 
357 1 1 -0.343187 -0.0066149 -0.252687 0 0 0 -0.914533 0.000287701 -0.596345 0 0 -0.000346714 -16.9359 -656.863 41.1165 0.0015 
366 1 1 -0.344688 0.00750451 -0.255371 0 0 0 -1.01022 -0.0671947 -0.755978 0 0 -0.000346714 53.2509 -616.885 -75.1294 0.0015 
365 1 1 -0.348292 0.012286 -0.256237 0 0 0 -1.02746 0.0205339 -0.865307 0 0 -0.000346714 -72.0759 -569.245 -49.7021 0.0015 
283 1 1 -0.346709 0.0128879 -0.25226 0 0 0 -1.17312 -0.0869686 -0.671424 0 0 -0.00160516 46.939 -490.206 -24.9897 0.0025 
368 1 1 -0.36097 -0.0456848 -0.249184 0 0 0 -1.139 0.0851428 -0.753274 0 0 -0.000346714 -52.1039 -909.765 -27.9697 0.0015 
402 1 1 -0.344878 -0.0180537 -0.25062 0 0 0 -0.963148 -0.0175427 -0.600622 0 0 -0.00160516 -10.0982 -412.656 45.3525 0.0025 
317 1 1 -0.339738 -0.0164608 -0.248596 0 0 0 -1.12332 0.0278308 -0.581539 0 0 -0.000346714 9.13407 -813.141 -17.8477 0.0015 
280 1 1 -0.340525 -0.0135595 -0.249323 0 0 0 -1.01694 0.097405 -0.568346 0 0 -0.000346714 -29.7641 -662.596 145.892 0.0015 
307 1 1 -0.341279 -0.0107567 -0.251573 0 0 0 -1.03739 0.074604 -0.671476 0 0 -0.000346714 54.3972 -740.772 90.438 0.0015 
319 1 1 -0.338086 -0.00963939 -0.24908 0 0 0 -0.993003 -0.0183283 -0.557718 0 0 -0.000346714 0.828004 -713.986 30.6998 0.0015 
391 1 1 -0.338945 -0.00681906 -0.250227 0 0 0 -0.873022 0.00763356 -0.546066 0 0 -0.000346714 14.4072 -625.247 -52.8278 0.0015 
304 1 1 -0.336456 -0.00571421 -0.248716 0 0 0 -0.884728 0.0255853 -0.51964 0 0 -0.000346714 -49.2889 -633.526 75.2307 0.0015 
429 1 1 -0.341293 0.00485517 -0.251061 0 0 0 -1.25346 -0.435862 -0.717259 0 0 -0.000346714 319.294 -905.502 -8.52074 0.0015 
354 1 1 -0.335286 0.00704756 -0.247982 0 0 0 -0.99223 -0.0744679 -0.61931 -0.000997504 -0.00402829 -0.00713492 -10.4729 -663.036 0.294748 0.0015 
314 1 1 -0.330947 -0.0146177 -0.244576 0 0 0 -1.09881 0.035528 -0.514223 0 0 -0.000346714 -46.0527 -785.102 57.2213 0.0015 
267 1 1 -0.333384 -0.0131794 -0.246152 0 0 0 -0.977295 0.0564951 -0.504614 0 0 -0.000346714 -80.7607 -690.817 101.999 0.0015 
288 1 1 -0.332596 -0.00865375 -0.246127 0 0 0 -1.0221 0.0858971 -0.514459 0 0 -0.000346714 -72.0725 -734.108 25.3543 0.0015 
273 1 1 -0.334795 0.00295774 -0.246742 0 0 0 -1.0643 0.0890685 -0.560265 0 0 -0.00160516 -35.4786 -463.211 -8.37351 0.0025 
335 1 1 -0.333191 0.00930104 -0.245449 0 0 0 -1.09029 -0.0582897 -0.547447 0.000997504 0.00402829 0.00518305 14.9436 -471.1 22.8924 0.0025 
388 1 1 -0.353227 -0.0453594 -0.243873 0 0 0 -1.02226 0.0213855 -0.622826 0 0 -0.00160516 -54.5804 -419.683 125.789 0.0025 
333 1 1 -0.332397 -0.0266664 -0.241356 0 0 0 -1.13547 0.118197 -0.532281 0 0 -0.00160516 -76.4591 -484.994 67.3674 0.0025 
334 1 1 -0.330292 -0.00450292 -0.24421 0 0 0 -1.02501 0.103027 -0.497546 0 0 -0.00160516 -58.9995 -441.514 34.8504 0.0025 
300 1 1 -0.323978 3.98518e-05 -0.242753 0 0 0 -0.899221 0.107675 -0.394091 0 0 -0.000346714 -101.819 -644.892 57.3879 0.0015 
377 1 1 -0.326571 0.00100815 -0.243928 0 0 0 -0.883831 0.128201 -0.417681 0 0 -0.000346714 -30.7394 -370.302 -16.1261 0.0015 
345 1 1 -0.32609 0.0051394 -0.243399 0 0 0 -1.03116 -0.0677288 -0.478765 0 0 -0.000346714 122.754 -737.432 -171.645 0.0015 
532 1 1 -0.334377 0.0210809 -0.243929 0 0 0 -1.36195 -0.233836 -0.696524 0 0 -0.00160516 127.35 -589.89 -57.2917 0.0025 
457 1 1 -0.32889 0.0223054 -0.242255 0 0 0 -1.34465 -0.167901 -0.638666 0 0 -0.000346714 184.897 -960.064 -145.846 0.0015 
527 1 1 -0.319344 -0.0185666 -0.238964 0 0 0 -0.929025 0.056146 -0.387502 0 0 -0.000346714 -38.13 -318.792 202.833 0.0015 
414 1 1 -0.322669 -0.01483 -0.239919 0 0 0 -1.05022 0.0133383 -0.422192 0 0 -0.00160516 5.37353 -463.753 -27.1264 0.0025 
459 1 1 -0.313871 -0.0148853 -0.237211 0 0 0 -0.87208 0.109919 -0.395272 0 0 -0.000346714 -123.819 -617.522 107.992 0.0015 
421 1 1 -0.31577 -0.00878815 -0.238852 0 0 0 -0.89564 0.031098 -0.356923 0 0 -0.000346714 -42.5572 -639.208 51.0515 0.0015 
363 1 1 -0.31222 -0.00802112 -0.237443 0 0 0 -0.930662 0.137333 -0.402982 0 0 -0.000346714 -131.66 -662.132 80.7855 0.0015 
397 1 1 -0.31442 -0.0052984 -0.238534 0 0 0 -0.954632 0.142221 -0.401202 -0.000733347 0.000123695 0.00123235 -107.656 -688.702 11.4222 0.0015 
408 1 1 -0.310125 -0.000742635 -0.23687 0 0 0 -0.709541 0.00353547 -0.292316 0 0 -0.000346714 -113.836 -319.203 59.107 0.0015 
424 1 1 -0.31439 0.000373924 -0.237605 0 0 0 -0.75713 0.00372408 -0.318421 -0.000330331 -4.88822e-05 -0.000370729 10.8751 -327.46 -29.6799 0.0025 
379 1 1 -0.310891 0.00293219 -0.237072 0 0 0 -0.990257 0.0765716 -0.419736 -0.00116686 0.000204146 0.0123896 6.53527 -489.669 -216.07 0.0015 
449 1 1 -0.317486 0.0188906 -0.238056 0 0 0 -0.97628 0.0728314 -0.394416 -8.75907e-05 -4.20071e-05 -3.28071e-05 40.2269 -673.545 -223.996 0.0015 
441 1 1 -0.342392 0.0397539 -0.241206 0 0 0 -1.1614 -0.108414 -0.640914 0 0 -0.00160516 60.9912 -541.855 -26.4465 0.0025 
434 1 1 -0.319883 -0.0326401 -0.235468 0 0 0 -1.18416 -0.000210754 -0.44984 0 0 -0.000346714 -45.2823 -836.72 132.645 0.0015 
439 1 1 -0.317761 -0.0217325 -0.236643 0 0 0 -0.995379 0.0934445 -0.450184 -0.00339153 0.00108095 0.0121212 -49.2056 -436.513 17.106 0.0025 
488 1 1 -0.309584 -0.0173796 -0.235106 0 0 0 -0.934513 0.103496 -0.401231 0.000123714 -4.23393e-05 0.000994827 -126.035 -658.382 128.417 0.0015 
454 1 1 -0.311572 -0.0112082 -0.236744 0 0 0 -1.03646 0.0729811 -0.430313 0 0 -0.000346714 -173.064 -693.225 285.33 0.0015 
419 1 1 -0.30876 -0.0107281 -0.235638 0 0 0 -1.01298 -0.0120088 -0.427265 0 0 -0.000346714 24.1083 -712.679 -31.9002 0.0015 
407 1 1 -0.311905 -0.00478828 -0.236983 0 0 0 -0.928217 0.163929 -0.450472 0.000123333 3.56361e-05 -0.000145088 -135.632 -490.562 -153.664 0.0015 
340 1 1 -0.306227 -0.0064283 -0.235038 0 0 0 -1.04282 -0.0409597 -0.438258 -8.86903e-05 7.47442e-06 -3.71619e-05 35.9158 -755.818 -14.8226 0.0015 
467 1 1 -0.307757 -0.00299127 -0.235805 0 0 0 -0.774627 0.105325 -0.330358 2.29265e-05 2.35422e-05 1.08047e-05 -117.334 -338.868 51.2065 0.0015 
326 1 1 -0.308171 0.00309082 -0.235862 0 0 0 -0.956423 0.0218531 -0.274584 0.00210411 -0.000150431 0.00215573 -12.8972 -599.111 -64.3565 0.0015 
298 1 1 -0.312179 0.0067807 -0.236267 0 0 0 -1.05446 0.0498177 -0.44466 -4.83732e-05 -1.42172e-05 -0.00059451 -12.4452 -457.394 -21.7836 0.0025 
322 1 1 -0.306479 0.00739008 -0.23383 0 0 0 -1.02972 -0.0681229 -0.43785 -0.000682612 -0.0001007 0.000386509 12.6024 -450.742 40.4668 0.0025 
352 1 1 -0.312289 0.013838 -0.236869 0 0 0 -1.07749 -0.0420818 -0.459305 -7.90871e-05 -3.75653e-05 -5.25145e-05 83.4181 -767.14 -125.409 0.0015 
389 1 1 -0.309506 0.0114553 -0.23485 0 0 0 -1.11357 -0.10315 -0.476577 -0.000413109 -6.20931e-05 -0.000166771 84.357 -478.736 -93.4939 0.0025 
329 1 1 -0.312875 0.0187279 -0.236162 0 0 0 -1.10613 -0.0496449 -0.471457 -8.81213e-05 -4.11453e-05 -3.63076e-05 60.0286 -801.334 -56.4504 0.0015 
360 1 1 -0.337168 0.0442498 -0.237432 0 0 0 -1.00422 -0.634138 -0.989624 0 0 -0.00160516 350.348 -427.785 -113.242 0.0025 
395 1 1 -0.310375 -0.0306299 -0.232187 0 0 0 -1.10704 0.0209595 -0.477962 0 0 -0.000346714 -52.2911 -787.424 113.021 0.0015 
260 1 1 -0.316995 -0.0182462 -0.232633 0 0 0 -0.998951 -0.00735457 -0.477926 0 0 -0.00160516 52.7094 -108.427 33.845 0.0025 
436 1 1 -0.302327 -0.0120804 -0.232871 0 0 0 -1.04487 0.0701973 -0.447206 -8.583e-05 2.23291e-05 -4.37695e-05 -34.9655 -764.124 -38.2424 0.0015 
398 1 1 -0.299266 -0.00643179 -0.231018 0 0 0 -1.04301 0.159168 -0.44532 -0.000407539 3.36457e-05 -0.000180658 -89.35 -451.675 47.8277 0.0025 
349 1 1 -0.298255 -0.0010689 -0.230782 0 0 0 -0.964543 0.062735 -0.386173 -7.77307e-05 0.000160822 -0.00265744 -43.8081 -415.343 39.1649 0.0025 
373 1 1 -0.301708 0.00272564 -0.232112 0 0 0 -1.05859 0.0190421 -0.44552 -0.000477634 -6.62845e-05 -1.50355e-05 -6.78339 -460.501 -3.55194 0.0025 
370 1 1 -0.305173 0.0145012 -0.23377 0 0 0 -1.14679 -0.163934 -0.510311 -8.48635e-05 -3.95733e-05 -4.40125e-05 75.8255 -862.836 106.784 0.0015 
270 1 1 -0.293143 -0.018541 -0.227016 0 0 0 -0.837981 0.329311 -0.411865 -0.000393854 0.000177673 -0.000201604 -218.408 -335.825 175.868 0.0025 
405 1 1 -0.288175 -0.0102363 -0.227099 0 0 0 -0.733795 -0.0660891 -0.391739 0 0 -0.000346714 9.36406 -522.092 -122.156 0.0015 
394 1 1 -0.293931 -0.00866036 -0.229715 0 0 0 -0.985185 0.0341642 -0.4182 -8.76383e-05 2.26612e-05 -3.92937e-05 -9.34664 -720.506 -36.8419 0.0015 
325 1 1 -0.292965 0.0095586 -0.229072 0 0 0 -1.02981 -4.27088e-06 -0.412103 0 0 -0.000346714 -15.4855 -667.971 -26.1443 0.0015 
351 1 1 -0.29036 0.01042 -0.227827 0 0 0 -0.982558 -0.139135 -0.330674 0 0 -0.000346714 162.714 -624.349 -215.13 0.0015 
375 1 1 -0.296003 0.0218525 -0.227414 0 0 0 -1.0662 -0.019226 -0.447106 -0.00013758 -0.000188941 -0.00144463 13.0569 -466.256 -13.3776 0.0025 
324 1 1 -0.307641 0.0355716 -0.228275 0 0 0 -1.09726 -0.583265 -0.637601 0 0 -0.00160516 297.085 -460.749 -92.5532 0.0025 
358 1 1 -0.289891 -0.0217383 -0.226154 0 0 0 -1.07475 0.182017 -0.483125 -7.81338e-05 3.51836e-05 -5.83702e-05 -148.878 -781.563 36.7348 0.0015 
452 1 1 -0.288332 -0.0138944 -0.225398 0 0 0 -1.14666 0.0443805 -0.404554 0 0 -0.00160516 -27.5923 -452.594 75.6961 0.0025 
451 1 1 -0.28826 -0.00628943 -0.226367 0 0 0 -0.949394 0.00157889 -0.387075 0 0 -0.00160516 -4.94685 -392.022 29.4357 0.0025 
378 1 1 -0.279858 -0.00227309 -0.224002 0 0 0 -0.894882 -0.0288293 -0.411511 0 0 -0.000346714 -12.8307 -632.844 82.5264 0.0015 
396 1 1 -0.284323 0.00129215 -0.225958 0 0 0 -0.979951 0.173131 -0.401834 -8.63582e-05 -1.30757e-05 -4.3116e-05 -185.269 -719.629 141.737 0.0015 
385 1 1 -0.293741 0.0259758 -0.225722 0 0 0 -1.07087 -0.0190396 -0.439179 -0.000132061 0.00021087 -0.000338095 11.0515 -468.223 -6.80597 0.0025 
487 1 1 -0.281258 -0.0321538 -0.219957 0 0 0 -1.06605 0.26503 -0.49975 0 0 -0.000346714 -263.787 -738.212 174.351 0.0015 
420 1 1 -0.281479 -0.0259597 -0.221784 0 0 0 -1.0342 0.0821789 -0.446661 -1.30179e-05 2.2987e-06 -0.000241783 -123.25 -727.291 151.83 0.0015 
401 1 1 -0.279848 -0.0200891 -0.221177 0 0 0 -1.05843 0.140156 -0.468938 -0.000481259 0.000220256 2.57451e-05 -102.907 -447.659 98.5146 0.0025 
426 1 1 -0.275141 -0.01268 -0.220291 0 0 0 -0.931689 0.0578412 -0.396807 -0.000425567 0.000112014 -8.3998e-05 -36.4403 -403.506 26.73 0.0025 
438 1 1 -0.294355 -0.00473975 -0.221895 0 0 0 -1.12645 -0.0532757 -0.561794 0 0 -0.00160516 13.079 119.769 -28.1715 0.0025 
447 1 1 -0.270453 -0.00483969 -0.220007 0 0 0 -0.863224 -0.00074413 -0.36589 -8.3594e-05 7.6193e-06 -5.15074e-05 46.3646 -629.964 -108.064 0.0015 
362 1 1 -0.27555 -0.000632149 -0.22121 0 0 0 -0.936234 0.0104314 -0.393426 -0.000407347 3.23311e-05 -0.000175554 3.68411 -407.304 -19.5666 0.0025 
359 1 1 -0.276941 0.0198875 -0.219855 0 0 0 -0.985659 0.00772373 -0.402394 -0.000450021 -0.000183648 -4.49255e-06 -0.285759 -429.971 -7.39349 0.0025 
502 1 1 -0.280824 0.0229884 -0.220938 0 0 0 -1.07397 -0.0769858 -0.451406 -0.000379982 -0.000151728 -0.000205155 57.7279 -460.062 -58.8852 0.0025 
382 1 1 -0.281897 -0.0406751 -0.217055 0 0 0 -0.817357 -0.135681 -0.273877 0 0 -0.000346714 -16.9314 -499.363 311.153 0.0015 
448 1 1 -0.2838 -0.0339446 -0.218605 0 0 0 -1.03312 0.00932881 -0.545608 0 0 -0.000346714 -15.5771 -277.828 38.6416 0.0015 
409 1 1 -0.266592 -0.0220929 -0.216424 0 0 0 -0.956366 0.189574 -0.56921 -0.0134344 0.0156799 0.0275265 103.602 -628.866 299.614 0.0015 
490 1 1 -0.271596 -0.0184144 -0.21806 0 0 0 -0.911953 0.0765049 -0.393703 -0.000322475 0.000147686 -0.000312066 -28.2168 -403.636 -13.2494 0.0025 
458 1 1 -0.262881 -0.015992 -0.215847 0 0 0 -0.739359 0.0392718 -0.317017 -8.77301e-05 2.47823e-05 -3.99069e-05 -60.8877 -529.468 76.4147 0.0015 
435 1 1 -0.267818 -0.00765019 -0.218339 0 0 0 -0.886754 0.0686398 -0.444765 0 0 -0.000346714 80.9708 -297.459 173.654 0.0015 
383 1 1 -0.260794 -0.00701149 -0.215838 0 0 0 -0.773608 -0.0298467 -0.326664 -8.90331e-05 9.28041e-06 -3.76681e-05 51.0432 -563.999 -69.3479 0.0015 
321 1 1 -0.267936 -0.00250152 -0.217947 0 0 0 -0.850131 -0.0155307 -0.359927 -0.000502831 4.6357e-05 2.14373e-05 5.13786 -369.798 3.80911 0.0025 
312 1 1 -0.2696 0.00235135 -0.218604 0 0 0 -0.860784 -0.0380455 -0.366851 -0.000611306 -7.40683e-05 0.000176202 32.2218 -372.903 -36.8515 0.0025 