ITEM: TIMESTEP
19400
ITEM: NUMBER OF ATOMS
256
ITEM: BOX BOUNDS ff ff ff
-0.5 0.1
-0.2 0.2
-0.4 0.15
ITEM: ATOMS id type type x y z ix iy iz vx vy vz fx fy fz omegax omegay omegaz radius 
38 1 1 -0.0963622 0.0457748 -0.14007 0 0 0 -1.2116 0.498791 -0.319721 0 0 -0.000346714 -301.904 -828.659 -195.03 0.0015 
30 1 1 -0.0779926 -0.0102439 -0.13702 0 0 0 -0.916545 0.219637 -0.388705 0 0 -0.00160516 -71.4821 -352.715 -25.0937 0.0025 
4 1 1 -0.0792734 -0.00325788 -0.138395 0 0 0 -0.746626 -0.268084 -0.298954 -0.00074394 3.80667e-05 -2.42511e-05 110.432 -324.179 15.2171 0.0025 
31 1 1 -0.0745449 -0.00166955 -0.136782 0 0 0 -0.829408 0.22026 -0.428973 0 0 -0.000346714 -65.6062 -574.641 -212.59 0.0015 
5 1 1 -0.0731762 0.0158034 -0.135819 0 0 0 -0.804189 0.0778626 -0.31391 0 0 -0.000346714 -48.8818 -562.966 -28.6353 0.0015 
36 1 1 -0.0741217 -0.030376 -0.134508 0 0 0 -0.864639 -0.0341598 -0.291933 0 0 -0.000346714 -23.8412 -591.739 136.862 0.0015 
8 1 1 -0.0683508 -0.00945318 -0.134309 0 0 0 -0.809413 0.212428 -0.627753 0 0 -0.000346714 -142.629 -517.4 12.32 0.0015 
50 1 1 -0.0601455 -0.0041875 -0.131331 0 0 0 -0.650238 -0.131178 -0.269417 -8.85407e-05 9.30574e-06 -3.85275e-05 166.195 -478.856 -167.95 0.0015 
12 1 1 -0.0732239 2.26103e-05 -0.13429 0 0 0 -0.81565 0.213 -0.50823 0 0 -0.000346714 76.6052 -432.34 -173.062 0.0015 
23 1 1 -0.0682799 0.00721902 -0.134665 0 0 0 -0.860334 -0.242891 -0.370746 -9.26476e-05 -4.79897e-06 -3.04004e-05 146.787 -625.127 68.9172 0.0015 
35 1 1 -0.0676048 0.0146935 -0.133717 0 0 0 -0.855987 -0.229926 -0.377319 0 0 -0.000346714 162.695 -608.814 3.07008 0.0015 
18 1 1 -0.0877199 0.024974 -0.133474 0 0 0 -0.761856 -0.0901797 -0.60756 0 0 -0.000346714 109.333 -325.067 83.3711 0.0015 
33 1 1 -0.0563375 -0.0133454 -0.128372 0 0 0 -0.540794 0.21486 -0.286175 0 0 -0.000346714 -83.751 -385.281 -139.55 0.0015 
3 1 1 -0.0630213 0.00744683 -0.131342 0 0 0 -0.686697 0.200913 -0.288702 -0.000489231 -3.57607e-05 6.12609e-05 -50.3643 -297.083 -87.1106 0.0025 
11 1 1 -0.0859024 0.0146789 -0.129563 0 0 0 -0.746853 -0.229155 -0.572501 0 0 -0.000346714 157.283 -192.671 339.666 0.0015 
47 1 1 -0.062214 0.0252052 -0.13015 0 0 0 -1.0713 0.0493354 -0.595394 0 0 -0.000346714 -65.5626 -524.773 71.0875 0.0015 
26 1 1 -0.0658905 -0.0151178 -0.125538 0 0 0 -0.72059 0.297164 -0.531926 0 0 -0.00160516 -105.302 -255.327 -0.0941047 0.0025 
24 1 1 -0.0746144 -0.00440695 -0.128008 0 0 0 -0.740387 0.234009 -0.591836 0 0 -0.000346714 53.5445 -226.738 38.1963 0.0015 
2 1 1 -0.0930732 -0.00215511 -0.125283 0 0 0 -0.737266 0.0484382 -0.459048 0 0 -0.00160516 -14.8336 -225.779 -6.37285e-15 0.0025 
37 1 1 -0.0586277 -0.00221443 -0.127597 0 0 0 -0.727982 0.151647 -0.571701 0 0 -0.000346714 -91.909 -438.919 -4.95487 0.0015 
51 1 1 -0.0545899 0.000724416 -0.128963 0 0 0 -0.791004 0.455157 -0.219624 0 0 -0.000346714 -303.835 -545.563 -67.1246 0.0015 
19 1 1 -0.0544137 0.00474318 -0.127669 0 0 0 -0.579489 0.194121 -0.411898 0 0 -0.000346714 -82.0058 -360.959 6.27673 0.0015 
16 1 1 -0.0518136 0.0143747 -0.126118 0 0 0 -0.784916 0.00503239 -0.291791 0 0 -0.00160516 16.4505 -310.676 -76.0892 0.0025 
43 1 1 -0.0499034 0.02643 -0.12427 0 0 0 -0.55734 0.0852597 -0.119293 0 0 -0.000346714 28.4668 -327.496 -254.448 0.0015 
28 1 1 -0.0491375 -0.0277275 -0.123507 0 0 0 -0.607601 0.105605 -0.271545 -0.000387462 0.000176512 -0.000237948 -53.1862 -264.166 16.3037 0.0025 
1 1 1 -0.0438537 -0.0129882 -0.122596 0 0 0 -0.434069 -0.0327364 -0.258914 0 0 -0.00160516 -28.6326 -159.481 109.781 0.0025 
21 1 1 -0.0832662 -0.00734299 -0.123279 0 0 0 -0.738535 0.109544 -0.443906 0 0 -0.000346714 -128.412 -337.666 -66.8896 0.0015 
10 1 1 -0.0819826 -0.00488345 -0.121764 0 0 0 -0.742753 0.118605 -0.370195 0 0 -0.000346714 -59.56 -321.558 -66.8896 0.0015 
72 1 1 -0.0654056 -0.00183558 -0.125052 0 0 0 -1.03713 -0.876745 -0.816114 0 0 -0.000346714 244.277 60.682 196.704 0.0015 
60 1 1 -0.046157 0.00053911 -0.123397 0 0 0 -0.586727 -0.0402966 -0.527401 0 0 -0.000346714 74.9332 -186.201 -57.4149 0.0015 
39 1 1 -0.0421683 0.000541082 -0.12273 0 0 0 -0.577425 -0.0412862 -0.242231 0 0 -0.00160516 23.5542 -243.695 -12.8006 0.0025 
44 1 1 -0.0404814 0.00560146 -0.122945 0 0 0 -0.510354 -0.0596329 -0.218015 0 0 -0.000346714 -6.47385 -198.377 9.17233 0.0015 
29 1 1 -0.0456258 0.00779708 -0.123921 0 0 0 -0.487306 0.0330518 -0.162953 -0.00213165 -0.00263797 -0.000344975 24.2643 -205.893 -82.1032 0.0025 
75 1 1 -0.0452298 0.0112047 -0.121646 0 0 0 -0.876601 0.161005 -0.0665788 0 0 -0.000346714 -6.95269 -344.761 118.502 0.0015 
45 1 1 -0.0491831 0.0147561 -0.120603 0 0 0 -0.806305 -0.42317 0.674521 0 0 -0.000346714 389.887 -152.585 -138.964 0.0015 
88 1 1 -0.0396229 0.0144235 -0.121227 0 0 0 -0.740776 0.122296 -0.413023 0 0 -0.000346714 199.539 -139.284 245.221 0.0015 
34 1 1 -0.0393446 0.0229211 -0.120489 0 0 0 -0.709167 0.38484 -0.0794426 0 0 -0.000346714 -163.532 -428.411 -311.04 0.0015 
52 1 1 -0.0606433 -0.0200703 -0.118878 0 0 0 -0.806873 -0.212866 0.0271251 0 0 -0.00160516 247.613 132.787 117.952 0.0025 
63 1 1 -0.0350338 -0.0151146 -0.117849 0 0 0 -0.419157 -0.0887774 -0.047734 0 0 -0.000346714 77.9991 -244.432 -0.376575 0.0015 
71 1 1 -0.0455826 -0.00642848 -0.119231 0 0 0 -1.09074 0.259136 -0.359773 0 0 -0.000346714 -163.435 -699.586 -17.6561 0.0015 
20 1 1 -0.0800383 -0.00187878 -0.120654 0 0 0 -0.740645 0.020497 -0.338801 0 0 -0.000346714 -55.6409 -360.561 -10.6104 0.0015 
78 1 1 -0.0455822 -0.0020736 -0.118952 0 0 0 -0.643754 0.250415 -0.0064058 0 0 -0.00160516 -86.5528 -216.904 -44.3712 0.0025 
17 1 1 -0.0789749 0.00128682 -0.121 0 0 0 -0.750204 0.0492702 -0.38809 0 0 -0.000346714 -41.8835 -370.436 -10.6104 0.0015 
32 1 1 -0.0734457 0.00213672 -0.118669 0 0 0 -0.756912 0.0215037 -0.291377 0 0 -0.000346714 -11.0748 -389.824 7.37302e-16 0.0015 
65 1 1 -0.0386253 -0.000110679 -0.119251 0 0 0 -0.506032 -0.181795 -0.332911 0 0 -0.00160516 73.2714 242.048 44.0693 0.0025 
6 1 1 -0.0809312 0.00549716 -0.121313 0 0 0 -0.729676 -0.109972 -0.424918 0 0 -0.000346714 55.6535 -369.268 6.21219e-14 0.0015 
27 1 1 -0.0376602 0.00619068 -0.120116 0 0 0 -0.538814 -0.146735 -0.139011 0 0 -0.00160516 66.6411 -188.707 -22.8669 0.0025 
91 1 1 -0.0327235 0.00409943 -0.115596 0 0 0 -0.545022 -0.292433 0.205286 0 0 -0.00160516 147.064 -153.598 -74.1367 0.0025 
74 1 1 -0.0334297 0.00804233 -0.119478 0 0 0 -0.673794 -0.452264 -0.253908 0 0 -0.000346714 217.912 -361.361 -98.8471 0.0015 
84 1 1 -0.044105 0.00935061 -0.118858 0 0 0 -0.844809 -0.302909 -0.322078 0 0 -0.000346714 -22.2193 217.009 94.661 0.0015 
92 1 1 -0.0370385 0.0120591 -0.119054 0 0 0 -0.391893 0.197709 -0.489194 0 0 -0.00160516 -122.284 185.163 -49.2104 0.0025 
68 1 1 -0.0303579 0.0134137 -0.116422 0 0 0 -0.378169 0.0416444 0.0346326 0 0 -0.00160516 -35.9708 -131.814 29.8474 0.0025 
98 1 1 -0.0348601 0.0165203 -0.116086 0 0 0 -0.591527 -0.13881 0.133542 0 0 -0.000346714 70.2628 -305.698 33.5383 0.0015 
54 1 1 -0.0353827 0.0220623 -0.118515 0 0 0 -0.613841 -0.111768 -0.255785 0 0 -0.00160516 47.7257 -263.565 -0.884598 0.0025 
42 1 1 -0.0498011 0.0294185 -0.120226 0 0 0 -0.584463 0.124729 -0.548822 0 0 -0.00160516 118.328 -246.781 4.22467 0.0025 
70 1 1 -0.035326 0.0307881 -0.118306 0 0 0 -0.532512 -0.0260442 -0.224587 -8.97892e-05 -3.71264e-05 -2.50467e-05 54.3099 -374.617 -85.3925 0.0015 
9 1 1 -0.0464654 0.0487162 -0.118804 0 0 0 -0.154608 0.319717 0.0243699 0 0 -0.000346714 -240.824 -115.883 9.72321 0.0015 
7 1 1 -0.0646491 -0.0623125 -0.117514 0 0 0 -0.714072 -0.386294 -0.629271 0 0 -0.000346714 377.106 230.021 159.168 0.0015 
41 1 1 -0.0605069 -0.0239227 -0.115372 0 0 0 -0.704419 0.235499 -0.249782 0 0 -0.00160516 -92.2038 -218.304 -1.90708 0.0025 
66 1 1 -0.0231447 -0.0169213 -0.113688 0 0 0 -0.411137 0.252163 -0.117879 0 0 -0.00160516 -80.0787 -145.334 -33.0213 0.0025 
15 1 1 -0.026827 -0.0141308 -0.11561 0 0 0 -0.285885 0.188969 -0.223886 0.195226 -0.0840841 -0.122258 -37.2854 -121.566 33.8507 0.0025 
48 1 1 -0.0692816 -0.0117921 -0.114071 0 0 0 -0.926663 0.481481 -0.291297 0 0 -0.000346714 27.3203 136.186 -30.5113 0.0015 
76 1 1 -0.0401351 -0.00315094 -0.116125 0 0 0 -0.924273 -0.176835 -0.281771 0 0 -0.000346714 -173.608 -707.796 -71.5395 0.0015 
49 1 1 -0.05854 0.00179379 -0.116609 0 0 0 -0.55464 -0.0743018 -0.476617 0 0 -0.000346714 -3.44496 463.931 -9.78414 0.0015 
25 1 1 -0.0493143 0.00567801 -0.117712 0 0 0 -0.419727 -0.0188315 -0.497873 0 0 -0.000346714 94.6125 -408.957 4.03732 0.0015 
89 1 1 -0.0289716 0.00947411 -0.114315 0 0 0 -0.622646 0.910033 -0.0434551 0 0 -0.000346714 -544.475 -361.772 -279.763 0.0015 
85 1 1 -0.0543624 0.0187767 -0.115994 0 0 0 -1.70626 -0.770248 -0.109329 0 0 -0.000346714 -992.473 989.332 -382.051 0.0015 
62 1 1 -0.0248982 0.0210188 -0.115366 0 0 0 -0.374127 -0.0402109 -0.160331 -8.69491e-05 -2.83077e-05 -3.7679e-05 -56.7414 -300.179 207.692 0.0015 
94 1 1 -0.0368471 0.0360285 -0.116489 0 0 0 -0.334834 0.475814 -0.432043 0 0 -0.00160516 46.7302 -9.37428 -5.26012 0.0025 
79 1 1 -0.0377028 -0.036564 -0.110355 0 0 0 -0.881514 -0.192444 -0.144174 0 0 -0.00160516 73.1144 -310.468 92.8732 0.0025 
102 1 1 -0.0372871 -0.0272713 -0.112218 0 0 0 -0.730519 0.300783 0.101178 0 0 -0.000346714 -155.835 -378.48 -1.58522e-13 0.0015 
97 1 1 -0.0276998 -0.0303382 -0.109239 0 0 0 -0.703963 0.289634 0.162453 0 0 -0.000346714 -148.318 -360.491 6.00689e-14 0.0015 
115 1 1 -0.0187698 -0.025318 -0.110188 0 0 0 -0.704941 0.290036 0.234267 0 0 -0.000346714 -148.193 -360.188 1.16897e-14 0.0015 
59 1 1 -0.0165472 -0.015344 -0.111323 0 0 0 -0.403737 0.0452109 -0.183247 0 0 -0.000346714 -28.9945 -260.279 4.10075 0.0015 
56 1 1 -0.05202 -0.0106689 -0.110805 0 0 0 -0.718805 0.16698 -0.111285 0 0 -0.000346714 -85.5854 -368.423 1.07912e-13 0.0015 
22 1 1 -0.062816 -0.00977091 -0.113813 0 0 0 -0.721152 0.128851 -0.437962 0 0 -0.000346714 -65.0767 -364.221 8.43618e-14 0.0015 
73 1 1 -0.0148243 -0.00525683 -0.111888 0 0 0 -0.648824 -0.260629 -0.134258 0 0 -0.000346714 146.554 -430.607 94.1338 0.0015 
95 1 1 -0.0246259 -0.0010967 -0.111629 0 0 0 -0.13772 0.320281 -0.314092 0 0 -0.000346714 438.484 -922.421 175.56 0.0015 
114 1 1 -0.0143407 -0.00138372 -0.111919 0 0 0 -0.624653 0.304337 -0.0695879 0 0 -0.000346714 -197.273 -400.896 -58.6946 0.0015 
57 1 1 -0.0496342 0.00530489 -0.110777 0 0 0 -0.744631 -0.134496 -0.136653 0 0 -0.000346714 69.7203 -386.005 -6.26036e-14 0.0015 
14 1 1 -0.0594042 0.00651524 -0.113161 0 0 0 -0.732633 -0.171112 -0.443781 0 0 -0.00160516 53.1334 -227.496 5.06761e-14 0.0025 
87 1 1 -0.0334807 0.00843141 -0.11178 0 0 0 -0.752938 -0.135996 0.129312 0 0 -0.000346714 69.2573 -383.441 -4.34912e-14 0.0015 
13 1 1 -0.0214242 0.0149681 -0.112872 0 0 0 -0.597749 0.225088 -0.0293178 0 0 -0.00160516 -90.1835 -225.562 -66.9723 0.0025 
77 1 1 -0.0211754 0.0197936 -0.110338 0 0 0 -0.612408 0.0961227 -0.0269333 0 0 -0.00160516 -44.2773 -223.615 23.6322 0.0025 
96 1 1 -0.0216985 0.025359 -0.109211 0 0 0 -0.723985 -0.263077 0.181375 0 0 -0.000346714 134.882 -371.195 -5.73037e-14 0.0015 
82 1 1 -0.0231505 0.0326439 -0.112032 0 0 0 -0.603435 0.12284 -0.283259 0 0 -0.000346714 201.247 -317.756 298.547 0.0015 
86 1 1 -0.0289609 0.0369942 -0.111822 0 0 0 0.106868 0.382353 0.0693287 0 0 -0.000346714 143.893 -268.571 -191.358 0.0015 
80 1 1 -0.0274377 -0.0235739 -0.106235 0 0 0 -0.699633 0.287853 0.100845 0 0 -0.00160516 -89.5563 -217.669 2.17489e-14 0.0025 
101 1 1 -0.014101 -0.0173566 -0.106058 0 0 0 -0.716643 0.128045 0.20176 0 0 -0.000346714 -65.141 -364.58 1.62146e-13 0.0015 
55 1 1 -0.0463946 -0.0133992 -0.109402 0 0 0 -0.724818 0.29843 -0.130683 0 0 -0.00160516 -92.8876 -225.641 -0.0301518 0.0025 
53 1 1 -0.029962 -0.0149401 -0.111891 0 0 0 -0.369843 0.127983 -0.900072 -0.195226 0.0840841 0.119048 -51.2903 -144.214 51.6815 0.0025 
100 1 1 -0.0205125 -0.0156578 -0.106565 0 0 0 -0.545628 0.299179 0.314068 0 0 -0.000346714 -83.693 -241.301 -136.514 0.0015 
46 1 1 -0.0463618 -0.00818543 -0.107523 0 0 0 -0.717848 0.128261 -0.195343 0 0 -0.000346714 -65.8418 -368.503 1.62458e-14 0.0015 
107 1 1 -0.0277018 -0.00460828 -0.116165 0 0 0 -0.126709 -0.0671627 -1.95915 0 0 -0.00160516 57.8827 -72.144 22.9246 0.0025 
83 1 1 -0.0217206 -0.00551727 -0.106894 0 0 0 -0.62625 0.159735 -0.0395106 0 0 -0.000346714 -80.7065 -336.668 -48.6138 0.0015 
81 1 1 -0.0315151 0.0019197 -0.108032 0 0 0 -0.748691 -0.016841 0.0495448 0 0 -0.000346714 8.58772 -381.78 -1.52841e-14 0.0015 
110 1 1 -0.0147994 0.00196722 -0.112071 0 0 0 -0.746557 0.473816 0.0786308 0 0 -0.000346714 -306.714 -436.92 -100.641 0.0015 
103 1 1 -0.0103035 0.00389035 -0.108135 0 0 0 -0.737607 0.0117375 0.0554018 0 0 -0.00160516 -4.52987 -260.556 -5.79412 0.0025 
90 1 1 -0.0209174 0.0098172 -0.110791 0 0 0 -0.508721 -0.345159 -0.437634 0 0 -0.00160516 385.221 202.431 137.829 0.0025 
93 1 1 -0.02781 0.0169039 -0.11188 0 0 0 -0.10029 0.0845563 -0.810728 0 0 -0.00160516 -101.969 93.1234 -13.5643 0.0025 
58 1 1 -0.0328769 0.0239313 -0.107659 0 0 0 -0.54179 -0.119024 -0.291799 0 0 -0.000346714 207.663 -424.231 -92.2129 0.0015 
61 1 1 -0.0117824 0.0340094 -0.105446 0 0 0 -0.0258085 0.351569 0.0824993 0 0 -0.000346714 -358.746 130.139 123.305 0.0015 
106 1 1 -0.00470491 -0.0199184 -0.104803 0 0 0 -0.620376 0.172778 0.0019358 0 0 -0.00160516 -63.7061 -218.109 5.21217 0.0025 
113 1 1 -0.038327 -0.0172771 -0.105552 0 0 0 -1.00478 -0.0874557 -0.468173 0 0 -0.000346714 226.102 83.844 139.827 0.0015 
111 1 1 -0.0331058 -0.0146314 -0.108694 0 0 0 -0.830994 0.139282 -0.916952 0 0 -0.000346714 99.4908 41.8667 66.3958 0.0015 
105 1 1 -0.00712308 -0.0105502 -0.104697 0 0 0 -0.731469 0.106002 0.223261 0 0 -0.00160516 -32.6592 -225.365 -1.52704e-14 0.0025 
40 1 1 -0.0420404 -0.0070359 -0.1062 0 0 0 -0.713952 0.262107 -0.302026 0 0 -0.00160516 -81.4948 -221.983 -4.47958e-14 0.0025 
69 1 1 -0.0268351 -0.000761746 -0.102923 0 0 0 -0.721155 -0.0267903 -0.0191321 0 0 -0.000346714 13.5753 -365.427 2.76259e-15 0.0015 
112 1 1 -0.0108661 -0.00253801 -0.110651 0 0 0 -0.0187514 -0.137634 0.176984 -0.0771267 0.00147495 0.129193 80.6137 -173.571 -23.0445 0.0015 
64 1 1 -0.0326926 0.0067554 -0.103379 0 0 0 -0.717929 -0.0266705 -0.104288 0 0 -0.000346714 13.6638 -367.81 1.29697e-14 0.0015 
67 1 1 -0.0144929 0.00273884 -0.104501 0 0 0 -0.198361 -0.491415 -0.0756245 0 0 -0.00160516 170.137 -32.7556 74.8826 0.0025 
104 1 1 -0.0191917 0.00440455 -0.109972 0 0 0 0.0394317 -0.913758 -1.26292 0 0 -0.00160516 -2.74716 -8.45923 -8.45422 0.0025 
109 1 1 -0.00295612 0.0141923 -0.104461 0 0 0 -0.707383 -0.18175 0.244019 0 0 -0.000346714 92.6606 -360.642 1.03599e-14 0.0015 
99 1 1 -0.0135378 0.0219578 -0.103943 0 0 0 -0.732365 -0.171049 0.141938 0 0 -0.000346714 87.9167 -376.425 1.7442e-13 0.0015 
108 1 1 -0.0322225 0.032442 -0.108442 0 0 0 0 0 -2.02696 0 0 -0.000346714 0 0 0 0.0015 
123 1 1 -0.0125841 -0.0111545 -0.0998712 0 0 0 0 0 -1.98507 0 0 -0.000346714 0 0 0 0.0015 
120 1 1 -0.0125785 -0.0210623 -0.0966303 0 0 0 0 0 -1.96898 0 0 -0.00160516 0 0 0 0.0025 
125 1 1 -0.00679321 -0.00388229 -0.0983316 0 0 0 0 0 -1.97742 0 0 -0.000346714 0 0 0 0.0015 
122 1 1 -0.0191843 -0.0162196 -0.0946088 0 0 0 0 0 -1.95888 0 0 -0.000346714 0 0 0 0.0015 
117 1 1 -0.0143544 -0.00143019 -0.0953532 0 0 0 0 0 -1.96261 0 0 -0.00160516 0 0 0 0.0025 
126 1 1 -0.0148309 -0.0333609 -0.0912175 0 0 0 0 0 -1.94181 0 0 -0.000346714 0 0 0 0.0015 
127 1 1 -0.0227292 -0.0112057 -0.0888325 0 0 0 0 0 -1.92974 0 0 -0.000346714 0 0 0 0.0015 
121 1 1 -0.0290047 0.00352617 -0.0915451 0 0 0 0 0 -1.94348 0 0 -0.000346714 0 0 0 0.0015 
116 1 1 -0.0158354 0.0147935 -0.0897386 0 0 0 0 0 -1.93435 0 0 -0.00160516 0 0 0 0.0025 
128 1 1 -0.0208061 0.000145103 -0.0887768 0 0 0 0 0 -1.92945 0 0 -0.000346714 0 0 0 0.0015 
124 1 1 -0.0114065 0.0295451 -0.0881623 0 0 0 0 0 -1.92631 0 0 -0.000346714 0 0 0 0.0015 
138 1 1 -0.0188235 -0.0335238 -0.083906 0 0 0 0 0 -1.90453 0 0 -0.000346714 0 0 0 0.0015 
118 1 1 -0.00193271 -0.0127941 -0.0830702 0 0 0 0 0 -1.90021 0 0 -0.00160516 0 0 0 0.0025 
119 1 1 -0.00304704 0.0316877 -0.0843423 0 0 0 0 0 -1.90679 0 0 -0.00160516 0 0 0 0.0025 
132 1 1 -0.010147 0.00134815 -0.0781206 0 0 0 0 0 -1.87451 0 0 -0.00160516 0 0 0 0.0025 
139 1 1 -0.00401145 0.0125644 -0.0797607 0 0 0 0 0 -1.88305 0 0 -0.000346714 0 0 0 0.0015 
133 1 1 -0.0167258 0.0295222 -0.0797936 0 0 0 0 0 -1.88324 0 0 -0.000346714 0 0 0 0.0015 
131 1 1 -0.0142543 -0.0235946 -0.0768494 0 0 0 0 0 -1.86784 0 0 -0.00160516 0 0 0 0.0025 
130 1 1 -0.0316516 0.0258079 -0.0750085 0 0 0 0 0 -1.85813 0 0 -0.00160516 0 0 0 0.0025 
140 1 1 -0.0309894 0.0333632 -0.0753054 0 0 0 0 0 -1.8597 0 0 -0.000346714 0 0 0 0.0015 
137 1 1 -0.0331578 -0.0315972 -0.0721175 0 0 0 0 0 -1.84283 0 0 -0.000346714 0 0 0 0.0015 
136 1 1 -0.0156127 0.0122027 -0.0720837 0 0 0 0 0 -1.84263 0 0 -0.000346714 0 0 0 0.0015 
129 1 1 -0.0150343 -0.00254225 -0.0677587 0 0 0 0 0 -1.81948 0 0 -0.00160516 0 0 0 0.0025 
141 1 1 -0.00445669 0.0136763 -0.0684544 0 0 0 0 0 -1.82321 0 0 -0.000346714 0 0 0 0.0015 
134 1 1 -0.021642 0.0141125 -0.0693087 0 0 0 0 0 -1.82782 0 0 -0.000346714 0 0 0 0.0015 
135 1 1 -0.00584464 0.0229092 -0.0699495 0 0 0 0 0 -1.83125 0 0 -0.000346714 0 0 0 0.0015 
149 1 1 -0.0237179 -0.0143876 -0.0656042 0 0 0 0 0 -1.8078 0 0 -0.000346714 0 0 0 0.0015 
153 1 1 -0.00430721 -0.0251385 -0.0611128 0 0 0 0 0 -1.78328 0 0 -0.000346714 0 0 0 0.0015 
143 1 1 -0.0076982 0.0115519 -0.0610217 0 0 0 0 0 -1.78279 0 0 -0.00160516 0 0 0 0.0025 
146 1 1 -0.0337656 -0.0129184 -0.0585558 0 0 0 0 0 -1.76915 0 0 -0.000346714 0 0 0 0.0015 
152 1 1 -0.0189158 0.00679958 -0.0589119 0 0 0 0 0 -1.77112 0 0 -0.000346714 0 0 0 0.0015 
148 1 1 -0.00630817 0.0207644 -0.0588942 0 0 0 0 0 -1.77102 0 0 -0.000346714 0 0 0 0.0015 
151 1 1 -0.00353112 0.0264703 -0.0594935 0 0 0 0 0 -1.77435 0 0 -0.000346714 0 0 0 0.0015 
142 1 1 -0.00618246 -0.0245765 -0.0543772 0 0 0 0 0 -1.74581 0 0 -0.00160516 0 0 0 0.0025 
144 1 1 -0.0192798 0.00186917 -0.0537816 0 0 0 0 0 -1.74247 0 0 -0.00160516 0 0 0 0.0025 
150 1 1 -0.00623706 -0.0058896 -0.0494955 0 0 0 0 0 -1.71814 0 0 -0.000346714 0 0 0 0.0015 
147 1 1 -0.0152079 -0.0157693 -0.0492188 0 0 0 0 0 -1.71657 0 0 -0.000346714 0 0 0 0.0015 
154 1 1 -0.00679915 -0.012878 -0.0488945 0 0 0 0 0 -1.71471 0 0 -0.000346714 0 0 0 0.0015 
145 1 1 -0.00240788 0.00422687 -0.0472815 0 0 0 0 0 -1.70549 0 0 -0.00160516 0 0 0 0.0025 
155 1 1 -0.0214963 -0.0266191 -0.0456623 0 0 0 0 0 -1.69617 0 0 -0.00160516 0 0 0 0.0025 
163 1 1 -0.0251386 0.0339743 -0.0446687 0 0 0 0 0 -1.69038 0 0 -0.000346714 0 0 0 0.0015 
165 1 1 -0.0326006 -0.0344541 -0.0386925 0 0 0 0 0 -1.65536 0 0 -0.000346714 0 0 0 0.0015 
160 1 1 -0.023692 -0.0114622 -0.0408055 0 0 0 0 0 -1.66782 0 0 -0.000346714 0 0 0 0.0015 
159 1 1 -0.0229207 0.0293808 -0.0396732 0 0 0 0 0 -1.66114 0 0 -0.000346714 0 0 0 0.0015 
158 1 1 -0.0239437 -0.00737998 -0.0358307 0 0 0 0 0 -1.63829 0 0 -0.00160516 0 0 0 0.0025 
157 1 1 -0.00372425 -0.00768845 -0.0378559 0 0 0 0 0 -1.65035 0 0 -0.00160516 0 0 0 0.0025 
162 1 1 -0.00596878 0.00110293 -0.0354068 0 0 0 0 0 -1.63574 0 0 -0.000346714 0 0 0 0.0015 
161 1 1 -0.0310811 0.0209557 -0.0366346 0 0 0 0 0 -1.64309 0 0 -0.000346714 0 0 0 0.0015 
164 1 1 -0.0186593 0.0101406 -0.0316666 0 0 0 0 0 -1.61317 0 0 -0.000346714 0 0 0 0.0015 
166 1 1 -0.0334498 0.0192376 -0.0334627 0 0 0 0 0 -1.62406 0 0 -0.000346714 0 0 0 0.0015 
156 1 1 -0.0192512 0.0203811 -0.032101 0 0 0 0 0 -1.61582 0 0 -0.00160516 0 0 0 0.0025 
172 1 1 -0.0233162 -0.0257488 -0.0288417 0 0 0 0 0 -1.59591 0 0 -0.000346714 0 0 0 0.0015 
175 1 1 -0.00243205 -0.0275788 -0.0294151 0 0 0 0 0 -1.59944 0 0 -0.000346714 0 0 0 0.0015 
176 1 1 -0.0260626 -0.0145959 -0.0305717 0 0 0 0 0 -1.6065 0 0 -0.000346714 0 0 0 0.0015 
173 1 1 -0.0280772 0.00199937 -0.0313621 0 0 0 0 0 -1.61131 0 0 -0.000346714 0 0 0 0.0015 
171 1 1 -0.0180071 -0.0127461 -0.0246322 0 0 0 0 0 -1.56981 0 0 -0.000346714 0 0 0 0.0015 
178 1 1 -0.0228627 0.00282045 -0.0262086 0 0 0 0 0 -1.57962 0 0 -0.000346714 0 0 0 0.0015 
168 1 1 -0.0175477 0.0137467 -0.0275278 0 0 0 0 0 -1.58777 0 0 -0.00160516 0 0 0 0.0025 
170 1 1 -0.000114354 0.021065 -0.0270021 0 0 0 0 0 -1.58453 0 0 -0.00160516 0 0 0 0.0025 
179 1 1 -0.0322154 -0.0246784 -0.0217166 0 0 0 0 0 -1.55147 0 0 -0.000346714 0 0 0 0.0015 
167 1 1 -0.0273571 -0.0103215 -0.0211561 0 0 0 0 0 -1.54794 0 0 -0.00160516 0 0 0 0.0025 
177 1 1 -0.01426 -0.0150654 -0.0205735 0 0 0 0 0 -1.54421 0 0 -0.000346714 0 0 0 0.0015 
174 1 1 -0.0341304 -0.00318577 -0.0193869 0 0 0 0 0 -1.53666 0 0 -0.000346714 0 0 0 0.0015 
169 1 1 -0.0234861 -0.0194352 -0.0147752 0 0 0 0 0 -1.50693 0 0 -0.00160516 0 0 0 0.0025 
192 1 1 -0.00264988 -0.0095541 -0.0140225 0 0 0 0 0 -1.50203 0 0 -0.000346714 0 0 0 0.0015 
185 1 1 -0.0184157 0.00363086 -0.0145065 0 0 0 0 0 -1.50517 0 0 -0.000346714 0 0 0 0.0015 
182 1 1 -0.00169906 -0.0346379 -0.0125649 0 0 0 0 0 -1.49251 0 0 -0.00160516 0 0 0 0.0025 
186 1 1 -0.0106048 -0.00789334 -0.0113499 0 0 0 0 0 -1.48447 0 0 -0.000346714 0 0 0 0.0015 
191 1 1 -0.0200733 -0.00130471 -0.0135421 0 0 0 0 0 -1.49889 0 0 -0.000346714 0 0 0 0.0015 
180 1 1 -0.0258257 0.0147617 -0.0116497 0 0 0 0 0 -1.48643 0 0 -0.00160516 0 0 0 0.0025 
184 1 1 -0.00526421 0.027503 -0.0115731 0 0 0 0 0 -1.48594 0 0 -0.000346714 0 0 0 0.0015 
181 1 1 -0.0264666 -0.025466 -0.00729 0 0 0 0 0 -1.45739 0 0 -0.00160516 0 0 0 0.0025 
190 1 1 -0.00998901 0.00893206 -0.0071999 0 0 0 0 0 -1.4568 0 0 -0.000346714 0 0 0 0.0015 
183 1 1 -0.0107488 0.0329346 -0.00912057 0 0 0 0 0 -1.46965 0 0 -0.00160516 0 0 0 0.0025 
188 1 1 -0.0196577 -0.024903 -0.00425925 0 0 0 0 0 -1.43689 0 0 -0.000346714 0 0 0 0.0015 
187 1 1 -0.0249489 0.0269151 -0.00356272 0 0 0 0 0 -1.43208 0 0 -0.000346714 0 0 0 0.0015 
200 1 1 -0.0201644 -0.0275601 -0.00121453 0 0 0 0 0 -1.41589 0 0 -0.000346714 0 0 0 0.0015 
195 1 1 -0.00018665 -0.0192075 0.000491923 0 0 0 0 0 -1.40402 0 0 -0.00160516 0 0 0 0.0025 
204 1 1 -0.0121862 -0.00588198 -0.00029194 0 0 0 0 0 -1.40952 0 0 -0.000346714 0 0 0 0.0015 
198 1 1 -0.0278654 0.00172744 0.000407481 0 0 0 0 0 -1.40461 0 0 -0.000346714 0 0 0 0.0015 
189 1 1 -0.0134549 0.0182926 -0.00181792 0 0 0 0 0 -1.42011 0 0 -0.000346714 0 0 0 0.0015 
196 1 1 -0.0173269 -0.0294256 0.00346161 0 0 0 0 0 -1.38313 0 0 -0.00160516 0 0 0 0.0025 
205 1 1 -0.00546888 -0.024539 0.0036274 0 0 0 0 0 -1.38195 0 0 -0.000346714 0 0 0 0.0015 
203 1 1 -0.0317899 0.0348276 0.00441081 0 0 0 0 0 -1.37636 0 0 -0.000346714 0 0 0 0.0015 
193 1 1 -0.0232114 -0.0230043 0.00544465 0 0 0 0 0 -1.369 0 0 -0.00160516 0 0 0 0.0025 
201 1 1 -0.00148336 -0.00863773 0.00717856 0 0 0 0 0 -1.35654 0 0 -0.000346714 0 0 0 0.0015 
197 1 1 -0.0244014 0.0243576 0.00475809 0 0 0 0 0 -1.37391 0 0 -0.000346714 0 0 0 0.0015 
194 1 1 -0.0299737 -0.0249092 0.0099404 0 0 0 0 0 -1.33643 0 0 -0.00160516 0 0 0 0.0025 
199 1 1 -0.0209901 0.00167617 0.00959792 0 0 0 0 0 -1.33889 0 0 -0.000346714 0 0 0 0.0015 
202 1 1 -0.00237574 0.0349629 0.00849123 0 0 0 0 0 -1.34703 0 0 -0.000346714 0 0 0 0.0015 
212 1 1 -0.0118483 0.00949823 0.0140446 0 0 0 0 0 -1.30592 0 0 -0.000346714 0 0 0 0.0015 
209 1 1 -0.00795 0.0273623 0.0147977 0 0 0 0 0 -1.30024 0 0 -0.00160516 0 0 0 0.0025 
215 1 1 -0.0133438 0.0300767 0.0135918 0 0 0 0 0 -1.30936 0 0 -0.000346714 0 0 0 0.0015 
216 1 1 -0.00916175 0.0316192 0.0138261 0 0 0 0 0 -1.30759 0 0 -0.000346714 0 0 0 0.0015 
218 1 1 -0.0116971 -0.0149443 0.01764 0 0 0 0 0 -1.27865 0 0 -0.000346714 0 0 0 0.0015 
217 1 1 -0.00525173 0.0148756 0.0155819 0 0 0 0 0 -1.29435 0 0 -0.000346714 0 0 0 0.0015 
211 1 1 -0.0325497 0.0284222 0.0188884 0 0 0 0 0 -1.26904 0 0 -0.000346714 0 0 0 0.0015 
206 1 1 -0.0315415 -0.0266248 0.0210268 0 0 0 0 0 -1.25236 0 0 -0.00160516 0 0 0 0.0025 
207 1 1 -0.014731 -0.00384992 0.0197566 0 0 0 0 0 -1.26227 0 0 -0.00160516 0 0 0 0.0025 
208 1 1 -0.0313425 0.0167345 0.0213313 0 0 0 0 0 -1.25001 0 0 -0.00160516 0 0 0 0.0025 
210 1 1 -0.0220067 0.0311963 0.0213184 0 0 0 0 0 -1.25011 0 0 -0.00160516 0 0 0 0.0025 
214 1 1 -0.000147874 -0.0328927 0.0235619 0 0 0 0 0 -1.23235 0 0 -0.000346714 0 0 0 0.0015 
213 1 1 -0.0258692 -0.0150214 0.0231437 0 0 0 0 0 -1.23569 0 0 -0.000346714 0 0 0 0.0015 
226 1 1 -0.0256746 -0.0295973 0.0282745 0 0 0 0 0 -1.19429 0 0 -0.000346714 0 0 0 0.0015 
219 1 1 -0.0126988 -0.0187384 0.0273573 0 0 0 0 0 -1.20174 0 0 -0.00160516 0 0 0 0.0025 
228 1 1 -0.0186146 -0.0100891 0.028175 0 0 0 0 0 -1.19507 0 0 -0.000346714 0 0 0 0.0015 
223 1 1 -0.0141421 0.000627184 0.0267813 0 0 0 0 0 -1.20645 0 0 -0.000346714 0 0 0 0.0015 
229 1 1 -0.0206785 0.0145985 0.0291966 0 0 0 0 0 -1.18664 0 0 -0.000346714 0 0 0 0.0015 
227 1 1 -0.0125397 -0.025785 0.0306194 0 0 0 0 0 -1.17486 0 0 -0.000346714 0 0 0 0.0015 
224 1 1 -0.0104339 -0.00964248 0.0299127 0 0 0 0 0 -1.18075 0 0 -0.000346714 0 0 0 0.0015 
230 1 1 -0.0158011 0.0337207 0.0309958 0 0 0 0 0 -1.17172 0 0 -0.000346714 0 0 0 0.0015 
225 1 1 -0.0349321 -0.00790873 0.0355283 0 0 0 0 0 -1.13307 0 0 -0.000346714 0 0 0 0.0015 
221 1 1 -0.03004 0.0154412 0.036713 0 0 0 0 0 -1.12277 0 0 -0.00160516 0 0 0 0.0025 
240 1 1 -0.0114835 -0.0265679 0.0372403 0 0 0 0 0 -1.11816 0 0 -0.000346714 0 0 0 0.0015 
239 1 1 -0.004822 -0.0263713 0.0393933 0 0 0 0 0 -1.09913 0 0 -0.000346714 0 0 0 0.0015 
231 1 1 -0.0172445 0.00368684 0.0383492 0 0 0 0 0 -1.10845 0 0 -0.00160516 0 0 0 0.0025 
232 1 1 -0.0305153 0.021925 0.0396913 0 0 0 0 0 -1.09648 0 0 -0.00160516 0 0 0 0.0025 
220 1 1 -0.0245784 0.0311922 0.0373418 0 0 0 0 0 -1.11728 0 0 -0.00160516 0 0 0 0.0025 
222 1 1 -0.00133775 0.0319388 0.0378217 0 0 0 0 0 -1.11306 0 0 -0.00160516 0 0 0 0.0025 
236 1 1 -0.011765 -0.0317196 0.0422571 0 0 0 0 0 -1.07323 0 0 -0.000346714 0 0 0 0.0015 
238 1 1 -0.00523715 -0.00399455 0.0428178 0 0 0 0 0 -1.06813 0 0 -0.000346714 0 0 0 0.0015 
235 1 1 -0.00913613 0.0130219 0.0440475 0 0 0 0 0 -1.05675 0 0 -0.000346714 0 0 0 0.0015 
243 1 1 -0.0312596 -0.0342874 0.0474072 0 0 0 0 0 -1.02516 0 0 -0.000346714 0 0 0 0.0015 
237 1 1 -0.0276781 -0.0346784 0.0456089 0 0 0 0 0 -1.04223 0 0 -0.000346714 0 0 0 0.0015 
234 1 1 -0.00624641 -0.0254844 0.0453761 0 0 0 0 0 -1.04439 0 0 -0.00160516 0 0 0 0.0025 
233 1 1 -0.0140583 -0.0235405 0.0474542 0 0 0 0 0 -1.02467 0 0 -0.00160516 0 0 0 0.0025 
242 1 1 -0.024936 0.00943572 0.0447365 0 0 0 0 0 -1.05037 0 0 -0.000346714 0 0 0 0.0015 
241 1 1 -0.0178674 0.023228 0.0451574 0 0 0 0 0 -1.04645 0 0 -0.000346714 0 0 0 0.0015 
256 1 1 -0.0202693 -0.0311084 0.0503939 0 0 0 -0 0 -1 0 0 0 0 0 0 0.0015 
247 1 1 -0.00778825 -0.017605 0.0487085 0 0 0 0 0 -1.01261 0 0 -0.00160516 0 0 0 0.0025 
248 1 1 -0.00508252 -0.00729713 0.0499412 0 0 0 0 0 -1.00054 0 0 -0.000346714 0 0 0 0.0015 
252 1 1 -0.0171169 0.0130299 0.0514011 0 0 0 -0 0 -1 0 0 0 0 0 0 0.0015 
249 1 1 -0.000908632 0.0183203 0.0489922 0 0 0 0 0 -1.00986 0 0 -0.000346714 0 0 0 0.0015 
255 1 1 -0.0103972 0.0260911 0.0482566 0 0 0 0 0 -1.01692 0 0 -0.000346714 0 0 0 0.0015 
254 1 1 -0.0334625 0.0326024 0.049368 0 0 0 0 0 -1.00623 0 0 -0.000346714 0 0 0 0.0015 
253 1 1 -0.0330193 -0.0287184 0.0544156 0 0 0 -0 0 -1 0 0 0 0 0 0 0.0015 
251 1 1 -0.0322818 -0.0136491 0.0516633 0 0 0 -0 0 -1 0 0 0 0 0 0 0.0015 
250 1 1 -0.0242205 -0.0101411 0.0517043 0 0 0 -0 0 -1 0 0 0 0 0 0 0.0015 
246 1 1 -0.00133703 0.00391048 0.0525655 0 0 0 -0 0 -1 0 0 0 0 0 0 0.0025 
244 1 1 -0.0304516 0.017575 0.0529353 0 0 0 -0 0 -1 0 0 0 0 0 0 0.0025 
245 1 1 -0.0327952 0.00273344 0.0552664 0 0 0 -0 0 -1 0 0 0 0 0 0 0.0025 
