ITEM: TIMESTEP
97800
ITEM: NUMBER OF ATOMS
827
ITEM: BOX BOUNDS ff ff ff
-0.5 0.1
-0.2 0.2
-0.4 0.15
ITEM: ATOMS id type type x y z ix iy iz vx vy vz fx fy fz omegax omegay omegaz radius 
1244 1 1 -0.0159951 0.0220083 0.052723 0 0 0 -0 0 -1 0 0 0 0 0 0 0.0015 
1247 1 1 -0.0120602 -0.019438 0.0519381 0 0 0 -0 0 -1 0 0 0 0 0 0 0.0015 
1239 1 1 -0.000436567 0.0244758 0.050005 0 0 0 0 0 -1 0 0 0 0 0 0 0.0025 
1240 1 1 -0.0240171 0.0199242 0.0493368 0 0 0 0 0 -1.00652 0 0 -0.00160516 0 0 0 0.0025 
1242 1 1 -0.0278912 0.0159531 0.0476211 0 0 0 0 0 -1.0231 0 0 -0.000346714 0 0 0 0.0015 
1224 1 1 -0.0155757 0.0223015 0.0437451 0 0 0 0 0 -1.0596 0 0 -0.00160516 0 0 0 0.0025 
1245 1 1 -0.0204981 0.0111983 0.0468361 0 0 0 0 0 -1.03056 0 0 -0.000346714 0 0 0 0.0015 
1248 1 1 -0.0151839 0.00981992 0.0441312 0 0 0 0 0 -1.05597 0 0 -0.000346714 0 0 0 0.0015 
1238 1 1 -0.0345628 0.00701978 0.0466189 0 0 0 0 0 -1.03262 0 0 -0.00160516 0 0 0 0.0025 
376 1 1 -0.460399 -0.0207202 -0.399447 0 0 0 -0.968354 -0.00916958 -1.83199 0 0 -0.00160516 -73.0757 -386.433 129.158 0.0025 
341 1 1 -0.476353 -0.00620527 -0.394434 0 0 0 -1.15829 -0.128014 -1.80329 0 0 -0.000346714 128.633 -835.226 -83.5223 0.0015 
490 1 1 -0.461589 -0.00160621 -0.394278 0 0 0 -0.974905 0.0616022 -1.77022 0 0 -0.00160516 34.2272 -370.674 39.8972 0.0025 
520 1 1 -0.470519 -0.00917608 -0.393101 0 0 0 -0.965382 0.114037 -2.10485 0 0 -0.000346714 28.6823 -488.464 497.425 0.0015 
447 1 1 -0.451666 -0.0234265 -0.385876 0 0 0 -0.937615 -0.129012 -1.72179 0 0 -0.000346714 175.924 -687.631 -192.249 0.0015 
582 1 1 -0.472223 -0.00862913 -0.38809 0 0 0 -1.275 0.441528 -1.71511 0 0 -0.000346714 -393.176 -614.594 470.634 0.0015 
431 1 1 -0.478411 -0.0250495 -0.384344 0 0 0 -1.11995 -0.0136157 -1.72006 0 0 -0.000346714 52.9599 -800.177 16.3919 0.0015 
338 1 1 -0.461555 -0.00707936 -0.382282 0 0 0 -1.06441 -0.0319849 -1.71505 0 0 -0.000346714 30.4368 -768.469 -17.4568 0.0015 
413 1 1 -0.465046 0.000422746 -0.385396 0 0 0 -1.10895 -0.125857 -1.76553 0 0 -0.00160516 65.9759 -490.128 -24.1573 0.0025 
461 1 1 -0.461998 0.0124068 -0.383153 0 0 0 -1.06785 -0.0566849 -1.73678 0 0 -0.000346714 92.089 -753.633 -104.649 0.0015 
562 1 1 -0.463946 0.037446 -0.385703 0 0 0 -1.05938 -0.0898955 -1.84515 0 0 -0.000346714 245.656 -418.441 -640.66 0.0015 
382 1 1 -0.45944 -0.0432534 -0.381259 0 0 0 -0.929824 0.00608847 -1.73796 0 0 -0.000346714 -116.408 -574.73 306.893 0.0015 
321 1 1 -0.452219 -0.0192684 -0.380935 0 0 0 -0.966499 -0.101784 -1.70324 0 0 -0.00160516 32.5147 -416.683 28.5463 0.0025 
383 1 1 -0.438957 0.000586562 -0.375366 0 0 0 -0.934502 0.0208299 -1.70972 0 0 -0.000346714 -93.2888 -613.786 -145.444 0.0015 
486 1 1 -0.456982 0.0171284 -0.376003 0 0 0 -0.954917 -0.0699079 -1.66879 0 0 -0.000346714 11.0916 -685.815 28.3944 0.0015 
435 1 1 -0.441368 -0.0103251 -0.37366 0 0 0 -0.910748 -0.0178058 -1.65185 0 0 -0.000346714 -25.8779 -650.704 94.5965 0.0015 
477 1 1 -0.451447 0.00823396 -0.371752 0 0 0 -1.02028 0.0714041 -1.65452 0 0 -0.00160516 -24.404 -441.806 -15.0766 0.0025 
440 1 1 -0.443501 0.00680986 -0.368462 0 0 0 -1.00133 0.0557551 -1.65676 0 0 -0.00160516 66.9554 -431.482 27.8668 0.0025 
425 1 1 -0.439698 -0.00781489 -0.365621 0 0 0 -0.942918 -0.00216131 -1.62341 0 0 -0.00160516 -52.872 -392.452 53.4967 0.0025 
346 1 1 -0.437908 0.00608756 -0.360944 0 0 0 -0.956178 -0.0283006 -1.59039 0 0 -0.00160516 14.4138 -416.262 -5.14502 0.0025 
355 1 1 -0.42785 0.00347663 -0.364698 0 0 0 -1.00476 -0.232056 -1.78303 0 0 -0.000346714 -181.852 -560.955 -337.993 0.0015 
372 1 1 -0.443438 -0.0428131 -0.35888 0 0 0 -0.904791 -0.310049 -1.57369 0 0 -0.00160516 94.6304 -303.763 -191.052 0.0025 
428 1 1 -0.41016 -0.0180603 -0.359406 0 0 0 -0.768307 -0.0363134 -1.62725 0 0 -0.000346714 -64.6753 247.909 -68.8501 0.0015 
387 1 1 -0.441185 -0.00478729 -0.358037 0 0 0 -1.02443 -0.0211637 -1.60428 0 0 -0.00160516 31.6258 -422.115 10.476 0.0025 
412 1 1 -0.432759 0.0264114 -0.356747 0 0 0 -0.94313 0.0583147 -1.58276 0 0 -0.00160516 10.0061 -386.136 -98.4435 0.0025 
458 1 1 -0.420337 -0.00681198 -0.353509 0 0 0 -0.818391 0.0357928 -1.52856 0 0 -0.000346714 -80.0544 -480.56 -32.9543 0.0015 
515 1 1 -0.451209 -5.18825e-05 -0.354088 0 0 0 -1.08657 0.0358743 -1.52007 0 0 -0.00160516 -25.0595 -414.148 46.3559 0.0025 
430 1 1 -0.418823 -0.00307727 -0.355853 0 0 0 -0.816883 0.0505891 -1.55803 0 0 -0.000346714 -205.742 -530.129 1.4084 0.0015 
498 1 1 -0.436652 -0.0151822 -0.349738 0 0 0 -0.989632 0.101584 -1.53044 0 0 -0.000346714 -164.053 -660.091 233.81 0.0015 
403 1 1 -0.439926 -0.00184203 -0.350376 0 0 0 -1.04284 -0.0238046 -1.48575 0 0 -0.000346714 -6.89625 -714.321 -26.0026 0.0015 
575 1 1 -0.431292 0.0141172 -0.348743 0 0 0 -0.966114 -0.0259392 -1.51345 0 0 -0.000346714 82.1407 -681.046 -149.466 0.0015 
309 1 1 -0.437161 -0.0045206 -0.347043 0 0 0 -0.983434 0.0380191 -1.49247 0 0 -0.00160516 -41.3523 -145.265 97.5055 0.0025 
456 1 1 -0.431438 0.0028912 -0.3452 0 0 0 -1.00669 0.0304268 -1.48955 0 0 -0.000346714 33.7012 -715.27 -162.521 0.0015 
344 1 1 -0.432582 -0.00293877 -0.344687 0 0 0 -1.01532 0.0190346 -1.48069 0 0 -0.000346714 -63.4874 -709.449 86.9715 0.0015 
481 1 1 -0.439531 0.00347856 -0.343123 0 0 0 -1.1291 0.0184407 -1.47017 0 0 -0.000346714 -167.953 -583.643 -23.6901 0.0015 
514 1 1 -0.434932 0.00520114 -0.344 0 0 0 -0.994182 -0.00907169 -1.47013 0 0 -0.000346714 48.3873 -696.677 -90.5783 0.0015 
476 1 1 -0.42917 0.00513092 -0.341997 0 0 0 -0.946235 -0.0315868 -1.48778 0 0 -0.00160516 6.23634 -382.076 -47.2707 0.0025 
522 1 1 -0.446275 -0.0265724 -0.341282 0 0 0 -1.21279 0.0954533 -1.54184 0 0 -0.000346714 -142.011 -839.653 201.697 0.0015 
494 1 1 -0.42228 -0.0056095 -0.341247 0 0 0 -0.945815 -0.0217445 -1.46812 0 0 -0.000346714 -76.9005 -498.746 -149.344 0.0015 
610 1 1 -0.408365 -0.00366158 -0.337586 0 0 0 -0.794911 -0.114655 -1.4187 0 0 -0.000346714 37.5852 -133.426 52.5814 0.0015 
450 1 1 -0.43133 0.00911711 -0.339431 0 0 0 -1.158 -0.0431483 -1.4992 0 0 -0.00160516 3.58396 -405.183 -36.9754 0.0025 
186 1 1 -0.432722 0.0142985 -0.339867 0 0 0 -1.06433 -0.0483893 -1.47165 0 0 -0.000346714 56.1084 -742.226 -63.2741 0.0015 
409 1 1 -0.404772 -0.0258835 -0.336964 0 0 0 -0.710079 -0.0595428 -1.40395 0 0 -0.000346714 -31.6313 -482.381 185.66 0.0015 
543 1 1 -0.420022 -0.00872632 -0.335067 0 0 0 -0.928366 -0.0074786 -1.41755 0 0 -0.00160516 64.4467 -41.4607 24.4674 0.0025 
501 1 1 -0.441534 -0.00104854 -0.337255 0 0 0 -1.18958 -0.0259072 -1.513 0 0 -0.000346714 1.92946 -48.8122 -24.1478 0.0015 
625 1 1 -0.441963 -0.0197799 -0.334152 0 0 0 -1.19903 0.118872 -1.46517 0 0 -0.000346714 -147.704 -847.71 152.212 0.0015 
503 1 1 -0.424135 -0.0171748 -0.332725 0 0 0 -0.988484 -0.0395338 -1.40943 0 0 -0.00160516 11.2401 -424.83 47.5859 0.0025 
332 1 1 -0.420239 4.82184e-05 -0.332698 0 0 0 -1.01143 0.134721 -1.43567 0 0 -0.000346714 -21.3852 -720.392 64.0636 0.0015 
471 1 1 -0.431349 -0.021445 -0.328076 0 0 0 -1.11797 -0.0502311 -1.35631 0 0 -0.000346714 -14.6464 -737.92 119.906 0.0015 
548 1 1 -0.437227 -0.00870398 -0.328139 0 0 0 -1.23852 0.157793 -1.41343 0 0 -0.000346714 -77.6323 -915.102 -87.7637 0.0015 
464 1 1 -0.434997 -0.0035301 -0.328241 0 0 0 -1.20458 0.132445 -1.40422 0 0 -0.00160516 -76.2581 -504.949 49.3279 0.0025 
468 1 1 -0.424182 -0.0016526 -0.327066 0 0 0 -1.01189 0.0512195 -1.3585 0 0 -0.000346714 -46.9716 -631.525 34.5781 0.0015 
500 1 1 -0.435018 -0.0087238 -0.322979 0 0 0 -1.04789 0.0518096 -1.26909 0 0 -0.000346714 -64.5116 -608.263 -11.2878 0.0015 
404 1 1 -0.416988 -0.0095058 -0.323817 0 0 0 -1.0009 -0.0173348 -1.33366 0 0 -0.000346714 10.6967 -721.378 4.93078 0.0015 
392 1 1 -0.405751 -0.00936578 -0.323319 0 0 0 -0.870846 -0.127246 -1.32 0 0 -0.000346714 110.468 -630.007 -41.881 0.0015 
479 1 1 -0.42153 -0.00391825 -0.324906 0 0 0 -1.04263 -0.00604474 -1.34384 0 0 -0.00160516 7.50782 -448.503 -8.94825 0.0025 
364 1 1 -0.402895 -0.00384749 -0.323251 0 0 0 -0.869998 -0.0707019 -1.33417 0 0 -0.000346714 58.1656 -573.655 -20.3274 0.0015 
483 1 1 -0.444728 0.000819706 -0.323501 0 0 0 -1.21809 -0.29344 -1.30349 0 0 -0.000346714 143.615 -643.505 -260.317 0.0015 
595 1 1 -0.430156 0.0171608 -0.324187 0 0 0 -1.19325 -0.168008 -1.41353 0 0 -0.000346714 140.706 -890.276 -35.1252 0.0015 
538 1 1 -0.390896 -0.000146408 -0.321469 0 0 0 -0.678602 -0.0657083 -1.28559 0 0 -0.000346714 57.2682 -477.303 -27.3687 0.0015 
453 1 1 -0.40886 0.00523233 -0.32051 0 0 0 -0.925526 -0.0277776 -1.31483 0 0 -0.00160516 12.1421 -387.215 -9.69616 0.0025 
564 1 1 -0.414834 0.019578 -0.319728 0 0 0 -1.00376 0.0889197 -1.32513 0 0 -0.000346714 -288.652 143.706 -171.373 0.0015 
511 1 1 -0.403463 0.0187833 -0.322814 0 0 0 -0.965111 -0.0587477 -1.46473 0 0 -0.000346714 -135.731 -417.331 -184.459 0.0015 
508 1 1 -0.430244 -0.0200887 -0.319206 0 0 0 -1.21377 0.104884 -1.35464 0 0 -0.000346714 -89.0893 -892.783 37.5587 0.0015 
437 1 1 -0.413176 -0.0139449 -0.316002 0 0 0 -1.01737 -0.0965789 -1.28196 0 0 -0.00160516 27.3189 -438.166 35.6543 0.0025 
560 1 1 -0.388449 0.00164454 -0.316083 0 0 0 -0.759473 0.0253361 -1.29358 0 0 -0.000346714 60.5115 -122.495 33.5742 0.0015 
519 1 1 -0.405445 0.00894324 -0.315975 0 0 0 -0.929021 -0.00105651 -1.27156 0 0 -0.000346714 -6.00766 -642.737 -91.4693 0.0015 
380 1 1 -0.410667 0.0131163 -0.317448 0 0 0 -0.989533 0.0122794 -1.29142 0 0 -0.000346714 -25.8166 -667.531 -20.071 0.0015 
546 1 1 -0.428136 0.0146131 -0.315078 0 0 0 -1.07086 -0.0893055 -1.20491 0 0 -0.000346714 -18.5611 -613.624 -248.205 0.0015 
530 1 1 -0.43236 0.0445782 -0.319226 0 0 0 -1.05335 -0.112137 -1.4382 0 0 -0.00160516 94.429 -482.257 -94.3006 0.0025 
510 1 1 -0.380947 0.0040909 -0.315614 0 0 0 -0.713332 -0.224122 -1.44949 0 0 -0.000346714 -99.7704 -389.161 -430.887 0.0015 
466 1 1 -0.407735 0.0124054 -0.312374 0 0 0 -0.992795 0.00378608 -1.26085 0 0 -0.00160516 9.46458 -430.672 -26.1576 0.0025 
583 1 1 -0.420787 0.0229078 -0.313875 0 0 0 -1.14863 -0.179534 -1.34672 0 0 -0.000346714 144.955 -860.765 -24.38 0.0015 
509 1 1 -0.40847 -0.0230704 -0.308608 0 0 0 -1.02111 -0.0515175 -1.22573 0 0 -0.000346714 24.1742 -733.074 38.7757 0.0015 
540 1 1 -0.399633 -0.00819576 -0.307985 0 0 0 -0.905929 0.0232747 -1.21151 0 0 -0.00160516 -22.7325 -376.074 41.6289 0.0025 
553 1 1 -0.39613 -0.00419935 -0.309378 0 0 0 -0.888491 -0.0294692 -1.25276 0 0 -0.00160516 -13.3761 -184.023 26.8056 0.0025 
539 1 1 -0.389407 -0.00102628 -0.308936 0 0 0 -0.97321 0.0448791 -1.31977 0 0 -0.000346714 -52.671 -322.833 -176.084 0.0015 
460 1 1 -0.391067 0.00425111 -0.307753 0 0 0 -0.829201 -0.00339251 -1.20316 0 0 -0.000346714 53.5876 -497.951 35.7279 0.0015 
485 1 1 -0.398354 0.0104393 -0.308858 0 0 0 -0.938132 0.0101532 -1.25545 0 0 -0.000346714 -56.2946 -600.039 -77.0525 0.0015 
545 1 1 -0.401669 0.0138212 -0.309252 0 0 0 -0.937516 -0.0323264 -1.22707 0 0 -0.000346714 85.9919 -660.636 -147.106 0.0015 
470 1 1 -0.39403 0.0180999 -0.308199 0 0 0 -0.909957 0.0177607 -1.24712 0 0 -0.000346714 48.2428 -441.472 -48.5628 0.0015 
444 1 1 -0.404101 -0.0186882 -0.307605 0 0 0 -0.965251 -0.0344342 -1.20532 0 0 -0.000346714 28.4453 -705.178 -4.91761 0.0015 
446 1 1 -0.395729 -0.0153516 -0.307342 0 0 0 -0.945511 -0.00407781 -1.26711 0 0 -0.000346714 -27.6195 -498.1 177.241 0.0015 
516 1 1 -0.395968 -0.0112512 -0.304456 0 0 0 -0.912526 0.0013639 -1.19706 0 0 -0.00160516 17.6761 -312.323 46.9575 0.0025 
497 1 1 -0.396179 -0.00729662 -0.305233 0 0 0 -0.91315 0.00159705 -1.1986 0 0 -0.000346714 -1.38313 -613.962 34.1168 0.0015 
472 1 1 -0.39265 -0.00746394 -0.304638 0 0 0 -0.877753 -0.0575088 -1.17438 0 0 -0.000346714 -118.711 -412.587 -51.9728 0.0015 
505 1 1 -0.39053 0.00795614 -0.306081 0 0 0 -0.903713 -0.009677 -1.26755 0 0 -0.00160516 -70.9498 -260.397 -35.1092 0.0025 
475 1 1 -0.398875 0.0135628 -0.30766 0 0 0 -0.946994 -0.0200628 -1.23384 0 0 -0.000346714 50.1846 -629.783 39.7158 0.0015 
506 1 1 -0.395724 0.0114622 -0.304077 0 0 0 -0.923586 -0.0119317 -1.16122 0 0 -0.000346714 11.789 -507.02 -30.0873 0.0015 
534 1 1 -0.409223 0.0241217 -0.305163 0 0 0 -1.10336 -0.0785241 -1.25333 0 0 -0.000346714 66.0528 -750.069 -209.445 0.0015 
529 1 1 -0.407079 -0.0173674 -0.303498 0 0 0 -1.06732 0.038721 -1.20548 0 0 -0.00160516 -32.6898 -456.477 38.2129 0.0025 
484 1 1 -0.394702 -0.00117116 -0.303686 0 0 0 -0.906387 -0.0473095 -1.17767 -0.000312588 -0.000367813 -0.000494114 31.3593 -437.821 49.8407 0.0015 
568 1 1 -0.405669 0.00284413 -0.303186 0 0 0 -1.05653 0.0641904 -1.23246 0 0 -0.00160516 -73.7303 -140.862 49.7518 0.0025 
594 1 1 -0.393845 0.00225912 -0.301821 0 0 0 -0.968029 -0.0226287 -1.19271 0.000312588 0.000367813 -0.00145776 -13.4159 460.836 -19.3314 0.0025 
496 1 1 -0.397585 0.015212 -0.301695 0 0 0 -0.992789 0.0338566 -1.19169 0 0 -0.000346714 8.08891 54.8491 46.9728 0.0015 
493 1 1 -0.411574 0.0189633 -0.302937 0 0 0 -1.12139 -0.087067 -1.20259 0 0 -0.00160516 42.9942 -472.278 -29.3615 0.0025 
561 1 1 -0.401184 -0.0206579 -0.299769 0 0 0 -1.04191 -0.0138427 -1.16205 0 0 -0.000346714 -35.1529 -712.929 110.468 0.0015 
416 1 1 -0.395346 -0.00405246 -0.297274 0 0 0 -1.00671 -0.0561609 -1.11439 0 0 -0.000346714 9.08693 -700.611 51.5916 0.0015 
432 1 1 -0.402803 0.00193598 -0.299471 0 0 0 -1.07879 -0.240142 -1.19615 0 0 -0.000346714 59.3084 -495.738 70.116 0.0015 
528 1 1 -0.412226 0.00679008 -0.298999 0 0 0 -1.27824 -0.216542 -1.1962 0 0 -0.00160516 157.554 -503.72 -65.3646 0.0025 
623 1 1 -0.391597 0.015512 -0.296935 0 0 0 -0.978815 -0.0235671 -1.16457 0 0 -0.000346714 77.6996 -398.914 -54.8028 0.0015 
422 1 1 -0.400366 0.0287958 -0.297414 0 0 0 -1.04757 0.0531537 -1.15058 0 0 -0.000346714 -74.7391 -786.46 82.2933 0.0015 
482 1 1 -0.38968 -0.0251676 -0.296264 0 0 0 -0.962647 -0.161678 -1.15353 0 0 -0.000346714 182.541 -586.036 103.655 0.0015 
492 1 1 -0.396375 -0.00893736 -0.293568 0 0 0 -1.07618 -0.0144346 -1.13329 0 0 -0.00160516 8.85045 -389.047 14.9486 0.0025 
473 1 1 -0.399716 -0.0068553 -0.294775 0 0 0 -1.03011 -0.0855862 -1.07047 0 0 -0.000346714 -20.2064 -551.482 24.2654 0.0015 
443 1 1 -0.381988 -0.0058712 -0.294623 0 0 0 -0.781489 0.0138561 -1.06878 0 0 -0.000346714 -22.7166 -389.378 -31.0628 0.0015 
455 1 1 -0.380298 0.0070201 -0.293719 0 0 0 -0.820552 -0.0357062 -1.08868 0 0 -0.000346714 11.3852 -521.431 -32.7636 0.0015 
531 1 1 -0.396628 0.0134809 -0.295977 0 0 0 -1.03734 0.00242891 -1.13149 0 0 -0.00160516 -46.1424 -291.609 -63.7058 0.0025 
415 1 1 -0.401705 -0.0144695 -0.291218 0 0 0 -1.08422 0.0209786 -1.02599 0 0 -0.000346714 -23.7506 -654.773 121.337 0.0015 
469 1 1 -0.396293 0.00013246 -0.289452 0 0 0 -0.943965 -0.0371211 -1.01567 0 0 -0.000346714 -98.2679 -269.498 -120.976 0.0015 
478 1 1 -0.385151 0.000477831 -0.290687 0 0 0 -1.04661 -0.04786 -1.18793 0 0 -0.00160516 -15.0048 -408.357 -19.0425 0.0025 
400 1 1 -0.395217 0.00473984 -0.292455 0 0 0 -1.04941 0.0632574 -1.09553 0 0 -0.00160516 -60.5061 -430.755 -52.5182 0.0025 
418 1 1 -0.390822 0.00541923 -0.292024 0 0 0 -1.00879 0.00993428 -1.06867 0 0 -0.000346714 -3.14977 -721.723 -19.9891 0.0015 
635 1 1 -0.381524 0.00507089 -0.290309 0 0 0 -1.06366 -0.0126987 -1.14666 0 0 -0.000346714 107.228 -500.771 113.493 0.0015 
526 1 1 -0.392903 0.0110898 -0.291013 0 0 0 -1.10445 -0.107788 -1.10769 0 0 -0.000346714 131.631 -787.721 -124.278 0.0015 
489 1 1 -0.396144 0.0138517 -0.290383 0 0 0 -1.0929 -0.0901124 -1.10749 0 0 -0.00160516 29.3352 -376.018 -99.5181 0.0025 
590 1 1 -0.397336 -0.0205547 -0.288442 0 0 0 -1.17589 -0.102399 -1.05617 0 0 -0.000346714 88.5754 -858.324 -28.8445 0.0015 
517 1 1 -0.394284 -0.0109242 -0.286733 0 0 0 -1.18499 0.11256 -1.08038 0 0 -0.00160516 -44.7463 -518.45 -9.16818 0.0025 
581 1 1 -0.394271 -0.00476226 -0.288127 0 0 0 -1.09266 -0.0104414 -1.04261 0 0 -0.00160516 -9.70984 -448.518 31.3854 0.0025 
552 1 1 -0.392058 0.00709689 -0.286936 0 0 0 -1.02997 -0.106434 -1.02986 0 0 -0.00160516 47.3817 -356.78 17.4246 0.0025 
596 1 1 -0.388036 0.0167164 -0.288933 0 0 0 -1.06591 -0.0251093 -1.12087 0 0 -0.000346714 166.314 -732.922 -35.1579 0.0015 
597 1 1 -0.392154 0.0172009 -0.287128 0 0 0 -1.07253 -0.0694916 -1.03574 0 0 -0.000346714 25.0161 -734.716 -31.0606 0.0015 
507 1 1 -0.385659 -0.0208206 -0.282865 0 0 0 -1.12992 -0.175639 -1.01498 0 0 -0.000346714 47.7868 -819.478 154.463 0.0015 
574 1 1 -0.383678 0.0083565 -0.284251 0 0 0 -1.08333 -0.00352607 -1.03313 0 0 -0.000346714 104.06 -752.952 -102.079 0.0015 
688 1 1 -0.410778 0.0120826 -0.283514 0 0 0 -1.2431 0.154214 -0.937447 0 0 -0.000346714 -174.398 -642.826 -240.235 0.0015 
619 1 1 -0.382789 0.0148024 -0.283643 0 0 0 -0.964323 0.0211212 -0.997077 0 0 -0.00160516 -37.932 -431.006 73.4627 0.0025 
655 1 1 -0.381912 -0.0156719 -0.278024 0 0 0 -1.10031 0.0148048 -0.964204 0 0 -0.00160516 -40.7204 -456.089 88.0002 0.0025 
544 1 1 -0.383741 -0.0137512 -0.28121 0 0 0 -1.11812 -0.0742991 -1.06206 0 0 -0.000346714 120.932 -750.312 13.8787 0.0015 
643 1 1 -0.39875 -0.0122992 -0.281358 0 0 0 -1.36905 -0.273226 -1.05512 0 0 -0.00160516 156.617 -23.2277 112.737 0.0025 
632 1 1 -0.392791 -0.00207909 -0.281625 0 0 0 -1.28442 -0.180507 -1.05561 0 0 -0.00160516 79.6354 294.497 -1.43877 0.0025 
572 1 1 -0.375481 0.00468688 -0.279479 0 0 0 -0.973898 -0.274584 -0.992363 0 0 -0.000346714 341.306 -652.008 -327.267 0.0015 
692 1 1 -0.38165 -0.0242883 -0.277371 0 0 0 -1.19655 0.279236 -1.11322 0 0 -0.000346714 -325.591 -786.352 302.239 0.0015 
627 1 1 -0.373727 -0.00418272 -0.276015 0 0 0 -1.04934 -0.102819 -0.93457 0 0 -0.000346714 109.886 -756.266 -82.3642 0.0015 
499 1 1 -0.371593 -0.00199141 -0.274264 0 0 0 -1.03554 -0.127409 -0.915702 0 0 -0.000346714 90.8386 -751.771 3.72947 0.0015 
547 1 1 -0.361912 0.00699698 -0.274947 0 0 0 -0.814253 -0.0160368 -0.92911 0 0 -0.000346714 -297.231 -501.749 73.0174 0.0015 
474 1 1 -0.365712 0.0136082 -0.276559 0 0 0 -0.914035 0.0525483 -0.998012 0 0 -0.000346714 39.6005 -295.729 -290.498 0.0015 
537 1 1 -0.369371 -0.00463712 -0.27253 0 0 0 -1.03572 -0.137175 -0.895861 0 0 -0.000346714 124.822 -747.881 -58.9414 0.0015 
433 1 1 -0.362644 0.00393401 -0.272067 0 0 0 -0.911591 -0.111532 -0.910431 0 0 -0.000346714 200.832 -502.414 -56.6582 0.0015 
605 1 1 -0.37333 -0.0180873 -0.269595 0 0 0 -1.21331 0.218857 -0.979086 0 0 -0.00160516 -108.387 -546.635 26.6645 0.0025 
417 1 1 -0.363111 0.00217529 -0.266758 0 0 0 -0.986023 -0.124981 -0.815547 0 0 -0.000346714 201.72 -538.296 -114.993 0.0015 
550 1 1 -0.359309 0.00438501 -0.266151 0 0 0 -0.952818 -0.0309636 -0.82456 0 0 -0.000346714 106.881 -604.691 146.899 0.0015 
525 1 1 -0.364212 0.00624696 -0.267793 0 0 0 -0.944229 -0.138791 -0.80926 0 0 -0.000346714 56.2525 -493.994 53.3761 0.0015 
495 1 1 -0.364686 0.0204549 -0.270367 0 0 0 -0.823643 -0.0159741 -1.034 0 0 -0.000346714 -82.3595 -490.08 -98.8562 0.0015 
624 1 1 -0.366362 -0.0142418 -0.26605 0 0 0 -1.10793 0.0747657 -0.839858 0 0 -0.000346714 -133.615 -768.781 198.845 0.0015 
536 1 1 -0.363153 -0.00172693 -0.264303 0 0 0 -1.09744 -0.126268 -0.783591 0 0 -0.000346714 188.679 -764.845 -147.719 0.0015 
615 1 1 -0.357662 0.00863535 -0.263734 0 0 0 -1.02572 -0.0780875 -0.825119 0 0 -0.000346714 -20.3954 -725.749 -56.9523 0.0015 
563 1 1 -0.360891 0.00926492 -0.264498 0 0 0 -1.05364 -0.104806 -0.875857 0 0 -0.000346714 -13.1238 -567.214 -7.8372 0.0015 
592 1 1 -0.36626 0.0124338 -0.265111 0 0 0 -1.08215 -0.0135944 -0.828412 0 0 -0.00160516 -15.8308 -370.427 -20.3929 0.0025 
442 1 1 -0.362934 0.0157864 -0.263072 0 0 0 -1.065 0.0212521 -0.744695 0 0 -0.000346714 -66.9242 -730.332 8.08138 0.0015 
427 1 1 -0.387915 0.0193352 -0.263233 0 0 0 -1.13748 0.05408 -0.852159 0 0 -0.00160516 -176.871 -8.04794 -112.527 0.0025 
626 1 1 -0.370831 0.0183675 -0.265003 0 0 0 -1.37348 -0.312966 -0.796571 0 0 -0.000346714 379.113 -589.011 -439.482 0.0015 
518 1 1 -0.361501 -0.00594466 -0.26073 0 0 0 -1.29201 0.126169 -0.821015 0 0 -0.00160516 -55.7519 -555.659 4.01594 0.0025 
462 1 1 -0.353958 -0.00369398 -0.258882 0 0 0 -1.05006 -0.0275175 -0.689309 0 0 -0.000346714 24.5955 -755.101 32.4429 0.0015 
556 1 1 -0.354192 0.000429073 -0.259169 0 0 0 -1.03554 -0.00630287 -0.749884 0 0 -0.00160516 40.7766 -446.051 -54.678 0.0025 
656 1 1 -0.357467 0.0052756 -0.260668 0 0 0 -1.08187 -0.0208242 -0.777295 0 0 -0.00160516 -4.63847 -473.381 31.3243 0.0025 
606 1 1 -0.360877 0.0130704 -0.260871 0 0 0 -1.17075 -0.0358113 -0.787196 0 0 -0.00160516 40.3683 -485.249 -77.7652 0.0025 
612 1 1 -0.351139 -0.012324 -0.255433 0 0 0 -1.23786 0.33606 -0.783723 0 0 -0.000346714 -358.355 -849.502 280.317 0.0015 
601 1 1 -0.348094 0.00474283 -0.255944 0 0 0 -1.00575 0.0164863 -0.678305 0 0 -0.000346714 -34.973 -733.235 53.1942 0.0015 
667 1 1 -0.354651 0.00914407 -0.258388 0 0 0 -1.08414 -0.021722 -0.751177 0 0 -0.00160516 11.181 -472.107 -4.33677 0.0025 
634 1 1 -0.346932 0.00772028 -0.255653 0 0 0 -1.02235 0.02448 -0.722446 0 0 -0.000346714 32.8948 -641.342 -94.9991 0.0015 
541 1 1 -0.345424 -0.00142341 -0.252713 0 0 0 -1.02003 0.00130947 -0.633621 0 0 -0.00160516 2.84008 -441.321 -8.12709 0.0025 
521 1 1 -0.344729 0.00742957 -0.252581 0 0 0 -1.05269 0.0169367 -0.602808 0 0 -0.000346714 10.8753 -724.759 -61.1923 0.0015 
570 1 1 -0.336284 -0.0175065 -0.246844 0 0 0 -1.04786 -0.0779636 -0.538649 0 0 -0.000346714 63.237 -760.846 -9.51344 0.0015 
504 1 1 -0.337038 -0.00801181 -0.24748 0 0 0 -0.999218 0.0380312 -0.550778 0 0 -0.00160516 -20.5155 -431.993 10.0323 0.0025 
576 1 1 -0.334032 0.00039325 -0.247709 0 0 0 -0.999294 0.0268494 -0.540176 0 0 -0.000346714 2.8577 -721.962 -52.5586 0.0015 
480 1 1 -0.33596 0.00390594 -0.247377 0 0 0 -1.01605 0.0206287 -0.560259 0 0 -0.00160516 -12.0001 -443.141 6.48452 0.0025 
566 1 1 -0.33968 0.010733 -0.248905 0 0 0 -1.06735 0.0536032 -0.606088 0 0 -0.00160516 -11.4965 -463.171 -28.0103 0.0025 
588 1 1 -0.335102 0.0103387 -0.24767 0 0 0 -1.04584 0.121361 -0.566538 0 0 -0.000346714 -84.9477 -751.939 -9.85606 0.0015 
675 1 1 -0.330623 -0.0214986 -0.243105 0 0 0 -1.16595 -0.000382489 -0.529057 0 0 -0.000346714 -12.0603 -844.888 32.0605 0.0015 
558 1 1 -0.32818 -0.0142147 -0.243417 0 0 0 -1.04764 0.0425628 -0.471909 0 0 -0.000346714 -20.9742 -755.815 -12.6301 0.0015 
707 1 1 -0.331377 -0.0115878 -0.244414 0 0 0 -0.988632 0.193221 -0.519406 0 0 -0.00160516 -87.8795 -419.874 19.18 0.0025 
639 1 1 -0.325516 -0.0105814 -0.242739 0 0 0 -1.06266 0.0234046 -0.470815 0 0 -0.000346714 13.4349 -765.515 -73.6839 0.0015 
523 1 1 -0.323675 -0.0076146 -0.242134 0 0 0 -0.873708 0.0172844 -0.372169 0 0 -0.000346714 -34.7985 -626.629 54.5825 0.0015 
542 1 1 -0.331178 0.00169014 -0.244996 0 0 0 -1.00718 0.0288958 -0.511251 0 0 -0.00160516 -7.73265 -438.13 -11.7121 0.0025 
653 1 1 -0.328038 0.00573663 -0.244297 0 0 0 -0.965491 0.018947 -0.467607 0 0 -0.000346714 -11.6278 -700.35 -5.45414 0.0015 
445 1 1 -0.325131 0.00367866 -0.243052 0 0 0 -1.07671 -0.0437788 -0.486217 0 0 -0.000346714 65.8186 -776.224 -79.8323 0.0015 
573 1 1 -0.325939 0.00951134 -0.243054 0 0 0 -0.931279 0.0847454 -0.42591 0 0 -0.000346714 -54.0157 -673.938 -18.2314 0.0015 
637 1 1 -0.326762 0.0140309 -0.242974 0 0 0 -1.06222 -0.0472548 -0.495299 0 0 -0.000346714 32.3145 -781.945 4.45061 0.0015 
598 1 1 -0.317723 -0.00614699 -0.239809 0 0 0 -0.836326 0.00153898 -0.337198 -8.41133e-05 1.30841e-05 -3.96561e-05 -16.6012 -600.057 38.4359 0.0015 
602 1 1 -0.32149 -5.84791e-05 -0.241705 0 0 0 -1.01129 0.119016 -0.431143 -8.86088e-05 7.46234e-06 -3.76782e-05 -75.6659 -733.471 -24.9903 0.0015 
714 1 1 -0.314944 0.00294318 -0.23876 0 0 0 -1.01363 0.062957 -0.423187 -8.95302e-05 -1.34347e-05 -3.65865e-05 -125.715 -747.007 189.942 0.0015 
584 1 1 -0.319316 0.00579601 -0.240422 0 0 0 -1.06412 0.0451692 -0.445684 -8.88609e-05 -1.33869e-05 -3.65989e-05 -29.6689 -771.12 -7.31182 0.0015 
646 1 1 -0.32035 0.0126829 -0.239337 0 0 0 -1.05402 -0.0995069 -0.450649 -0.000323685 -4.77451e-05 -0.000357018 37.033 -459.495 14.882 0.0025 
660 1 1 -0.325625 0.0189966 -0.241483 0 0 0 -0.979626 -0.0622294 -0.451181 0 0 -0.000346714 1.84439 -703.28 6.23903 0.0015 
672 1 1 -0.328711 0.0228596 -0.240738 0 0 0 -1.17149 -0.0261109 -0.506489 0 0 -0.000346714 2.29853 -828.32 -170.353 0.0015 
649 1 1 -0.337409 0.0363879 -0.241798 0 0 0 -1.16768 -0.361038 -0.738695 0 0 -0.000346714 330.641 -871.245 -112.536 0.0015 
638 1 1 -0.316568 -0.022453 -0.236984 0 0 0 -1.06432 -0.127883 -0.407968 0 0 -0.000346714 -8.9641 -707.97 272.098 0.0015 
587 1 1 -0.313536 -0.00660202 -0.238092 0 0 0 -0.940843 0.00953798 -0.377221 4.08451e-05 -8.39889e-06 -0.000392661 -24.5081 -673.912 44.1253 0.0015 
603 1 1 -0.312458 -0.00259656 -0.237802 0 0 0 -1.09023 -0.0718172 -0.457628 -9.16878e-05 7.67796e-06 -3.17322e-05 23.1789 -787.336 68.3358 0.0015 
533 1 1 -0.307212 0.00120789 -0.235612 0 0 0 -1.04961 -0.0321858 -0.444422 -8.83296e-05 -1.31785e-05 -3.80017e-05 23.3708 -761.022 -0.0811069 0.0015 
735 1 1 -0.319856 0.0180137 -0.237853 0 0 0 -1.06577 0.0473431 -0.321123 0 0 -0.00160516 -75.8486 -215.022 -82.9674 0.0025 
654 1 1 -0.31684 0.0206808 -0.237363 0 0 0 -0.904832 -0.0480526 -0.350291 0 0 -0.000346714 -9.48718 -629.98 26.3757 0.0015 
629 1 1 -0.327089 0.0291685 -0.238431 0 0 0 -0.984295 -0.0527283 -0.447486 0 0 -0.00160516 84.7777 -396.084 -147.514 0.0025 
666 1 1 -0.313612 -0.0235905 -0.23546 0 0 0 -1.11654 0.00536443 -0.441355 0 0 -0.000346714 -32.1725 -796.921 82.8214 0.0015 
559 1 1 -0.303067 -0.0125608 -0.233129 0 0 0 -1.08695 0.0437606 -0.462062 -8.7155e-05 2.27344e-05 -3.98335e-05 -35.3199 -789.646 8.29782 0.0015 
535 1 1 -0.30194 -0.0019684 -0.233386 0 0 0 -1.06912 -0.0229503 -0.450549 -8.76231e-05 7.23286e-06 -3.96379e-05 29.2706 -775.501 -29.9559 0.0015 
593 1 1 -0.309301 0.00462246 -0.235193 0 0 0 -1.08498 -0.045783 -0.460166 -0.000407311 -6.07384e-05 -0.000180454 30.9816 -470.45 -26.2421 0.0025 
611 1 1 -0.30213 0.00365978 -0.233316 0 0 0 -1.06191 -0.110044 -0.455037 -0.000106017 -1.68242e-05 1.15897e-05 95.4775 -767.751 -37.1592 0.0015 
633 1 1 -0.309433 0.0181521 -0.234837 0 0 0 -1.06393 -0.131178 -0.469366 -8.53185e-05 -3.97778e-05 -4.30751e-05 161.101 -751.022 -155.28 0.0015 
685 1 1 -0.308492 0.0244303 -0.233223 0 0 0 -0.928511 -0.00961729 -0.389457 -8.52534e-05 -3.97721e-05 -4.3343e-05 10.2687 -680.376 -7.68056 0.0015 
621 1 1 -0.318224 0.0408234 -0.231572 0 0 0 -0.970254 0.0197755 -0.363456 -4.72299e-05 -6.25016e-05 -0.000124231 49.751 -682.858 -170.25 0.0015 
716 1 1 -0.317327 -0.03943 -0.231658 0 0 0 -1.2358 0.283316 -0.607766 0 0 -0.000346714 -264.249 -897.242 124.834 0.0015 
555 1 1 -0.300676 -0.0076868 -0.231568 0 0 0 -1.11065 0.0617259 -0.471991 -0.000568645 4.93794e-05 -0.000222212 -27.6457 -482.078 2.02397 0.0025 
554 1 1 -0.295368 -0.0102247 -0.229061 0 0 0 -1.0732 -0.0540151 -0.445629 -0.000404637 0.000104587 -0.00018469 0.549722 -462.451 54.7304 0.0025 
745 1 1 -0.293993 0.00331018 -0.228115 0 0 0 -1.00589 0.0414909 -0.328419 0 0 -0.00160516 -124.464 48.6506 -69.4583 0.0025 
730 1 1 -0.296875 0.00422096 -0.230953 0 0 0 -1.00058 0.0841872 -0.394395 0 0 -0.000346714 33.3985 -342.207 -69.8862 0.0015 
549 1 1 -0.293129 0.00769726 -0.22926 0 0 0 -0.939856 0.0776789 -0.387568 0 0 -0.000346714 -53.6184 -674.329 49.1053 0.0015 
607 1 1 -0.296796 0.0111298 -0.229507 0 0 0 -1.04752 -0.015233 -0.443367 -0.000408855 -6.21277e-05 -0.000177724 25.566 -453.092 -44.8362 0.0025 
614 1 1 -0.292907 0.0136416 -0.228788 0 0 0 -1.01512 -0.047747 -0.431341 -8.77839e-05 -1.3114e-05 -4.69681e-05 32.0963 -736.573 5.96263 0.0015 
585 1 1 -0.299238 0.0217893 -0.229875 0 0 0 -1.02789 -0.0358628 -0.435362 -9.2294e-05 -4.30159e-05 -2.80624e-05 36.2041 -750.09 -23.6934 0.0015 
571 1 1 -0.295248 0.0220357 -0.228163 0 0 0 -0.944556 -0.0901862 -0.406392 5.5519e-05 3.44546e-05 -0.000480313 141.276 -656.634 -181.587 0.0015 
567 1 1 -0.299631 -0.0328808 -0.226087 0 0 0 -1.06836 0.0770739 -0.444059 -0.00679736 0.00708586 0.0200892 -67.3386 -464.158 72.7572 0.0025 
705 1 1 -0.29196 -0.0146139 -0.228236 0 0 0 -1.04879 0.110748 -0.452743 -8.32846e-05 2.17127e-05 -4.94048e-05 -139.071 -747.365 139.338 0.0015 
513 1 1 -0.286943 -0.0083653 -0.226807 0 0 0 -1.06003 0.499501 -0.5 -8.76333e-05 2.25032e-05 -3.93071e-05 -403.447 -760.573 95.5193 0.0015 
630 1 1 -0.286977 -0.000422941 -0.22604 0 0 0 -1.00263 -0.048253 -0.421326 -0.00045249 3.77179e-05 -6.58431e-05 6.1114 -434.625 35.2402 0.0025 
616 1 1 -0.282813 -0.00150351 -0.22533 0 0 0 -0.966968 -0.0015637 -0.408175 -8.8598e-05 7.02372e-06 -3.76905e-05 -17.745 -698.942 44.7157 0.0015 
580 1 1 -0.289463 0.0074278 -0.226647 0 0 0 -0.929797 0.0968771 -0.387416 -0.000325715 -5.22802e-05 -0.00031298 -21.4161 -401.649 -49.0687 0.0025 
682 1 1 -0.299915 0.0335619 -0.225908 0 0 0 -0.878079 -0.00333082 -0.340995 -0.00099316 -0.000866284 0.00115651 23.1845 -376.408 -56.4615 0.0025 
812 1 1 -0.313773 0.0439021 -0.228306 0 0 0 -1.3933 -0.101755 -0.554727 -0.000921584 -0.00111617 0.00124971 158.76 -990.212 -218.121 0.0015 
704 1 1 -0.281631 -0.00700189 -0.224646 0 0 0 -0.974852 0.377106 -0.424465 -0.00020357 1.46935e-05 0.000185943 -195.459 -713.219 -184.485 0.0015 
687 1 1 -0.273334 -0.00696605 -0.22111 0 0 0 -0.942231 0.0865945 -0.36368 0 0 -0.000346714 -52.936 -501.652 13.2946 0.0015 
684 1 1 -0.275609 -0.00453167 -0.22152 0 0 0 -0.858083 0.00565883 -0.418001 0 0 -0.000346714 19.3226 -545.874 80.2594 0.0015 
715 1 1 -0.277778 -0.0029801 -0.223155 0 0 0 -0.90559 -0.0778399 -0.379509 -2.43089e-05 -0.000101538 -2.55808e-05 115.658 -581.84 62.5583 0.0015 
835 1 1 -0.299979 0.00203063 -0.22307 0 0 0 -1.3685 -0.165097 -0.597368 0 0 -0.00160516 95.4594 -22.0061 82.8741 0.0025 
589 1 1 -0.279703 0.000110913 -0.224071 0 0 0 -0.959292 -0.0348653 -0.403801 -9.03436e-05 7.15294e-06 -3.41106e-05 17.7191 -694.283 17.852 0.0015 
410 1 1 -0.27802 0.00318486 -0.22318 0 0 0 -0.900924 -0.00096696 -0.373695 0.0018697 -0.00074481 -0.000646004 38.1112 -630.624 -67.6174 0.0015 
618 1 1 -0.2755 0.000782848 -0.221149 0 0 0 -0.902088 -0.00982822 -0.402178 0 0 -0.00160516 -0.334595 -380.025 14.5162 0.0025 
604 1 1 -0.285494 0.0112743 -0.224667 0 0 0 -0.963784 -0.00476247 -0.377496 0 0 -0.00160516 -14.6401 -414.042 38.2138 0.0025 