ITEM: TIMESTEP
21800
ITEM: NUMBER OF ATOMS
282
ITEM: BOX BOUNDS ff ff ff
-0.5 0.1
-0.2 0.2
-0.4 0.15
ITEM: ATOMS id type type x y z ix iy iz vx vy vz fx fy fz omegax omegay omegaz radius 
18 1 1 -0.106234 0.0224813 -0.148844 0 0 0 -0.8336 -0.182338 -0.270664 0 0 -0.000346714 103.268 -579.915 41.5705 0.0015 
38 1 1 -0.125945 0.0571892 -0.148085 0 0 0 -1.26714 0.435391 -0.308321 6.50919e-06 5.89879e-05 -0.000513125 -258.933 -892.566 -201.534 0.0015 
30 1 1 -0.100155 -0.0115495 -0.146702 0 0 0 -0.925274 -0.0696889 -0.368914 0 0 -0.00160516 14.1971 -396.143 41.5536 0.0025 
4 1 1 -0.0982499 -0.00479771 -0.146352 0 0 0 -0.816921 -0.0513452 -0.341789 -0.000386785 5.38885e-05 -0.00029191 19.7031 -355.166 6.36759 0.0025 
31 1 1 -0.0954843 0.00341268 -0.146239 0 0 0 -0.906988 0.208992 -0.383265 -8.54893e-05 -1.8133e-06 -4.59336e-05 -60.955 -655.342 -213.106 0.0015 
12 1 1 -0.0922828 0.00613389 -0.144708 0 0 0 -0.756834 0.240299 -0.311839 0 0 -0.000346714 -74.0645 -531.817 -238.958 0.0015 
5 1 1 -0.0929113 0.0175906 -0.144268 0 0 0 -0.850977 0.0689354 -0.356829 -2.35575e-05 -3.78093e-06 -0.00016473 -37.9825 -615.854 -28.4332 0.0015 
36 1 1 -0.0951254 -0.0310746 -0.143172 0 0 0 -0.902288 -0.0159213 -0.369433 -8.10459e-05 3.82487e-05 -6.31913e-05 -44.836 -634.744 136.797 0.0015 
72 1 1 -0.0898714 -0.0181486 -0.141987 0 0 0 -0.95347 -0.505283 -0.250326 0 0 -0.000346714 152.131 -611.253 526.705 0.0015 
8 1 1 -0.0896363 -0.00422578 -0.143812 0 0 0 -0.908837 0.220624 -0.416485 0 0 -0.000346714 -163.61 -652.863 10.1515 0.0015 
24 1 1 -0.0923797 0.00118973 -0.145003 0 0 0 -0.71589 0.0959415 -0.382783 -0.0241763 -0.00424895 0.0716166 -104.849 -618.859 -66.3789 0.0015 
23 1 1 -0.0896686 0.00136415 -0.143788 0 0 0 -0.854148 -0.219941 -0.312307 0.0160708 0.00307547 0.0192031 152.706 -587.341 37.6771 0.0015 
11 1 1 -0.103827 0.00917921 -0.146128 0 0 0 -0.746853 -0.229155 -0.807941 0 0 -0.000346714 157.283 -192.671 339.666 0.0015 
35 1 1 -0.0887263 0.00905399 -0.143216 0 0 0 -0.912065 -0.241645 -0.39809 -6.13254e-05 -1.20992e-05 -0.000140894 173.768 -660.856 3.12498 0.0015 
26 1 1 -0.083303 -0.00878979 -0.139624 0 0 0 -0.81897 0.262088 -0.254398 0 0 -0.00160516 -127.755 -335.758 38.0319 0.0025 
50 1 1 -0.0764722 -0.00725693 -0.138091 0 0 0 -0.709924 -0.124338 -0.295185 -8.88658e-05 1.03757e-05 -3.82258e-05 161.44 -523.28 -167.85 0.0015 
2 1 1 -0.110768 -0.000992591 -0.139126 0 0 0 -0.737266 0.0484382 -0.694488 0 0 -0.00160516 -14.8336 -225.779 -6.37285e-15 0.0025 
37 1 1 -0.0774405 0.00124131 -0.138131 0 0 0 -0.826222 0.138376 -0.371265 0 0 -0.000346714 -97.5836 -571.257 -10.2626 0.0015 
51 1 1 -0.0736429 0.0100778 -0.136804 0 0 0 -0.821175 0.406076 -0.309291 0 0 -0.000346714 -249.909 -583.729 -107.902 0.0015 
3 1 1 -0.0803534 0.0121663 -0.138347 0 0 0 -0.755261 0.190376 -0.298676 -0.000408568 -8.65498e-05 -0.000170245 -46.6028 -321.055 -86.7923 0.0025 
47 1 1 -0.0871887 0.0257225 -0.140741 0 0 0 -1.0598 0.0105615 -0.448095 -6.27209e-05 -2.69269e-05 -2.25004e-05 -25.7986 -782.923 43.4274 0.0015 
33 1 1 -0.0700554 -0.00817296 -0.135323 0 0 0 -0.607718 0.217686 -0.266354 -0.000102551 1.08249e-05 4.77867e-06 -97.7789 -447.036 -142.543 0.0015 
21 1 1 -0.100991 -0.00471394 -0.136758 0 0 0 -0.738535 0.109544 -0.679346 0 0 -0.000346714 -128.412 -337.666 -66.8896 0.0015 
19 1 1 -0.0690479 0.011055 -0.134783 0 0 0 -0.601095 0.104379 -0.186488 0.00463576 -0.0158308 0.00402135 -33.9079 -404.183 -26.3239 0.0015 
16 1 1 -0.0708995 0.014516 -0.134161 0 0 0 -0.824823 0.0340706 -0.356991 -0.00557066 0.0132875 -0.00150204 42.4669 -344.342 -67.3755 0.0025 
28 1 1 -0.0644395 -0.024912 -0.130324 0 0 0 -0.668421 0.126855 -0.294479 -0.000403429 0.000112344 -0.000181893 -62.217 -289.807 16.3807 0.0025 
10 1 1 -0.0998395 -0.00218239 -0.133718 0 0 0 -0.745831 0.104058 -0.630092 0 0 -0.000346714 -69.1963 -297.382 -80.0457 0.0015 
20 1 1 -0.0977828 -0.0012414 -0.131366 0 0 0 -0.737567 0.0350436 -0.549784 0 0 -0.000346714 -65.2772 -336.385 -23.7665 0.0015 
60 1 1 -0.0607553 -0.000735852 -0.131497 0 0 0 -0.617963 -0.0581696 -0.333683 0 0 -0.000346714 69.549 -420.227 -67.5545 0.0015 
17 1 1 -0.0967936 0.00162067 -0.132293 0 0 0 -0.734922 -0.0206786 -0.553754 0 0 -0.000346714 18.9149 -310.334 36.2378 0.0015 
25 1 1 -0.0637327 0.00157889 -0.132846 0 0 0 -0.671272 -0.229814 -0.754023 0 0 -0.000346714 78.5295 -387.218 -25.0826 0.0015 
6 1 1 -0.0986296 0.00370647 -0.135182 0 0 0 -0.744958 -0.0400228 -0.730134 0 0 -0.000346714 116.452 -309.166 46.8482 0.0015 
29 1 1 -0.0577118 0.00833164 -0.129075 0 0 0 -0.531988 0.0165514 -0.229112 -0.000416632 -3.22261e-05 -0.000181061 28.1323 -229.323 -81.888 0.0025 
88 1 1 -0.0568633 0.015241 -0.129344 0 0 0 -0.700704 -0.0326335 -0.294546 1.01524e-05 -0.000100924 -4.49385e-06 17.9155 -427.916 139.379 0.0015 
43 1 1 -0.0632377 0.0273041 -0.129884 0 0 0 -0.583684 0.0178115 -0.266912 0 0 -0.000346714 80.272 -354.437 -194.793 0.0015 
42 1 1 -0.0656319 0.0310722 -0.129269 0 0 0 -0.706535 0.0234909 -0.313084 0 0 -0.00160516 18.8206 -289.219 -36.7508 0.0025 
1 1 1 -0.0557335 -0.0136835 -0.127827 0 0 0 -0.577093 -0.0248248 -0.253787 0 0 -0.00160516 -34.0493 -237.769 108.773 0.0025 
71 1 1 -0.0702917 -0.00123192 -0.130635 0 0 0 -0.749224 0.0213593 -0.584018 0 0 -0.000346714 -111.41 -624.533 -14.8452 0.0015 
39 1 1 -0.0566357 -0.000517928 -0.128846 0 0 0 -0.63193 -0.0462326 -0.266756 -0.000413157 -2.3901e-05 -0.00016604 25.5508 -274.153 -13.0105 0.0025 
65 1 1 -0.0498718 -0.0044337 -0.125819 0 0 0 -0.434015 -0.178634 -0.230719 0 0 -0.00160516 65.6005 43.4558 47.5642 0.0025 
32 1 1 -0.0916116 0.00265281 -0.128488 0 0 0 -0.756912 0.0215037 -0.526817 0 0 -0.000346714 -11.0748 -389.824 7.37302e-16 0.0015 
49 1 1 -0.07332 0.00103324 -0.130928 0 0 0 -0.896151 0.163475 -0.723253 0 0 -0.000346714 48.5802 538.984 -6.97324 0.0015 
84 1 1 -0.060839 0.00599614 -0.127123 0 0 0 -0.64557 -0.0748796 -0.410991 0 0 -0.000346714 36.2499 262.927 92.7264 0.0015 
44 1 1 -0.0532874 0.0045394 -0.128379 0 0 0 -0.53677 -0.0266384 -0.232543 1.60763e-05 -5.35199e-05 1.98022e-05 16.0297 -351.173 35.0193 0.0015 
27 1 1 -0.0512284 0.00235246 -0.125677 0 0 0 -0.565283 -0.169528 -0.316101 0 0 -0.00160516 59.3673 -108.011 -18.857 0.0025 
75 1 1 -0.0662682 0.0150688 -0.126069 0 0 0 -0.876601 0.161005 -0.302019 0 0 -0.000346714 -6.95269 -344.761 118.502 0.0015 
7 1 1 -0.0801816 -0.0694819 -0.123167 0 0 0 -0.619036 -0.260006 -0.129708 0 0 -0.000346714 126.408 -322.742 286.533 0.0015 
52 1 1 -0.0801446 -0.0183925 -0.125155 0 0 0 -0.812789 0.0768082 -0.384196 0 0 -0.00160516 180.623 136.053 124.935 0.0025 
63 1 1 -0.0461199 -0.0175675 -0.123975 0 0 0 -0.485696 -0.0323985 -0.145253 0 0 -0.000346714 1.57595 -313.289 70.2679 0.0015 
111 1 1 -0.0552899 -0.0130831 -0.122371 0 0 0 -0.731541 0.0594779 -0.0106234 0 0 -0.000346714 30.7175 221.295 -96.1964 0.0015 
22 1 1 -0.0801236 -0.00667849 -0.127149 0 0 0 -0.721152 0.128851 -0.673402 0 0 -0.000346714 -65.0767 -364.221 8.43618e-14 0.0015 
48 1 1 -0.0915215 -0.000236522 -0.123888 0 0 0 -0.926663 0.481481 -0.526737 0 0 -0.000346714 27.3203 136.186 -30.5113 0.0015 
76 1 1 -0.0623177 -0.00739498 -0.125713 0 0 0 -0.924273 -0.176835 -0.517211 0 0 -0.000346714 -173.608 -707.796 -71.5395 0.0015 
78 1 1 -0.0610323 0.00393636 -0.121931 0 0 0 -0.643754 0.250415 -0.241846 0 0 -0.00160516 -86.5528 -216.904 -44.3712 0.0025 
74 1 1 -0.0453256 -0.00162394 -0.124615 0 0 0 -0.470969 -0.39589 -0.309755 0 0 -0.000346714 153.694 -100.042 -107.918 0.0015 
14 1 1 -0.0769874 0.00240855 -0.126637 0 0 0 -0.732633 -0.171112 -0.679221 0 0 -0.00160516 53.1334 -227.496 5.06761e-14 0.0025 
92 1 1 -0.0445197 0.0171874 -0.122897 0 0 0 -0.330802 0.200676 -0.0910591 0.00129703 0.000519282 -0.00537781 -63.8387 -133.725 -59.0839 0.0025 
54 1 1 -0.0506687 0.0192377 -0.125296 0 0 0 -0.665805 -0.12505 -0.296597 -0.000408936 -0.000102742 -0.000184786 55.006 -290.941 -0.812424 0.0025 
34 1 1 -0.0563646 0.0321572 -0.125221 0 0 0 -0.709167 0.38484 -0.314883 0 0 -0.000346714 -163.532 -428.411 -311.04 0.0015 
70 1 1 -0.0487722 0.0299026 -0.124122 0 0 0 -0.589361 -0.0481596 -0.257583 -8.69448e-05 -3.36545e-05 -4.23535e-05 71.4144 -417.789 -85.2865 0.0015 
41 1 1 -0.0772766 -0.0250572 -0.120089 0 0 0 -0.698503 -0.0541749 -0.309341 0 0 -0.00160516 -159.194 -215.037 5.0754 0.0025 
53 1 1 -0.0478967 -0.0118257 -0.123481 0 0 0 -0.74296 0.13761 -0.565954 0 0 -0.00160516 -26.2411 -144.015 80.0155 0.0025 
15 1 1 -0.0348775 -0.00985403 -0.119155 0 0 0 -0.447262 0.158474 -0.31898 0 0 -0.00160516 -71.7659 -91.5589 -16.9262 0.0025 
73 1 1 -0.0294413 -0.00700473 -0.118215 0 0 0 -0.554365 0.160707 -0.221709 0 0 -0.000346714 -119.563 -390.865 8.59517 0.0015 
121 1 1 -0.0422737 -0.00615389 -0.122805 0 0 0 -1.09344 -0.69418 -0.309473 0 0 -0.000346714 466.725 -742.327 92.5284 0.0015 
95 1 1 -0.0339503 -0.00268129 -0.12007 0 0 0 -0.546222 -0.367863 -0.275403 0 0 -0.000346714 268.711 -429.876 50.7326 0.0015 
85 1 1 -0.0953126 0.000290769 -0.121444 0 0 0 -1.70626 -0.770248 -0.344769 0 0 -0.000346714 -992.473 989.332 -382.051 0.0015 
90 1 1 -0.0303284 0.00244249 -0.117712 0 0 0 -0.297239 -0.292354 -0.113796 0.00051554 1.68673e-06 -0.00270608 125.395 -127.36 5.15294 0.0025 
68 1 1 -0.0398386 0.0165546 -0.120985 0 0 0 -0.334077 0.0931679 -0.135517 0 0 -0.00160516 -37.8598 -130.623 -1.07898 0.0025 
93 1 1 -0.0349581 0.0168035 -0.118762 0 0 0 -0.413437 -0.230164 -0.11613 0 0 -0.00160516 70.1586 -169.249 64.7467 0.0025 
62 1 1 -0.034519 0.0221375 -0.1191 0 0 0 -0.363095 -0.197913 -0.0831135 0 0 -0.000346714 94.0857 -249.313 87.7484 0.0015 
82 1 1 -0.037726 0.0333223 -0.118881 0 0 0 -0.606076 -0.0709328 -0.267726 -0.000120478 -3.99262e-05 -2.69094e-05 -22.5659 -472.823 175.869 0.0015 
94 1 1 -0.0460681 0.0419175 -0.11922 0 0 0 -0.387989 0.234357 -0.208463 0 0 -0.00160516 -77.2948 -134.657 -85.5277 0.0025 
9 1 1 -0.0508541 0.055856 -0.118397 0 0 0 -0.211148 0.273062 0.00725627 -8.38062e-05 -6.99914e-05 -4.52159e-05 -209.777 -162.38 7.43542 0.0015 
79 1 1 -0.0588591 -0.0411826 -0.11664 0 0 0 -0.881514 -0.192444 -0.379614 0 0 -0.00160516 73.1144 -310.468 92.8732 0.0025 
113 1 1 -0.0624419 -0.019376 -0.119613 0 0 0 -1.00478 -0.0874557 -0.703613 0 0 -0.000346714 226.102 83.844 139.827 0.0015 
66 1 1 -0.0319905 -0.0141547 -0.117082 0 0 0 -0.446481 0.0192778 -0.360841 0 0 -0.00160516 -16.2164 -6.91685 -7.54093 0.0025 
59 1 1 -0.0269012 -0.0146884 -0.116634 0 0 0 -0.465818 0.00915163 -0.237547 0 0 -0.000346714 -17.5574 -317.948 18.6062 0.0015 
127 1 1 -0.030901 -0.0103964 -0.11796 0 0 0 -0.469787 0.0469983 -0.480254 0 0 -0.000346714 36.8524 270.385 -22.714 0.0015 
123 1 1 -0.0270457 -0.0105942 -0.115633 0 0 0 -0.584849 0.134678 -0.160887 0 0 -0.000346714 -58.3033 -380.744 -71.9198 0.0015 
56 1 1 -0.0692713 -0.00666141 -0.116301 0 0 0 -0.718805 0.16698 -0.346725 0 0 -0.000346714 -85.5854 -368.423 1.07912e-13 0.0015 
107 1 1 -0.0470961 -0.00713662 -0.115127 0 0 0 -0.774177 -0.197611 -0.107916 0 0 -0.00160516 -26.4565 -264.988 -43.8101 0.0025 
104 1 1 -0.0317201 -0.00882133 -0.114355 0 0 0 -0.568814 -0.480052 -0.186239 0 0 -0.00160516 182.93 -133.349 129.036 0.0025 
91 1 1 -0.0462021 -0.00213759 -0.112941 0 0 0 -0.607604 -0.167459 0.057285 0 0 -0.00160516 91.4855 -142.089 -130.958 0.0025 
114 1 1 -0.0283951 -0.00196954 -0.11509 0 0 0 -0.656746 -0.0450905 -0.109257 0 0 -0.000346714 54.0454 -421.502 30.511 0.0015 
57 1 1 -0.0675053 0.00207699 -0.116882 0 0 0 -0.744631 -0.134496 -0.372093 0 0 -0.000346714 69.7203 -386.005 -6.26036e-14 0.0015 
98 1 1 -0.0490568 0.0131889 -0.115707 0 0 0 -0.591527 -0.13881 -0.101898 0 0 -0.000346714 70.2628 -305.698 33.5383 0.0015 
58 1 1 -0.0458798 0.0210748 -0.117487 0 0 0 -0.54179 -0.119024 -0.527239 0 0 -0.000346714 207.663 -424.231 -92.2129 0.0015 
108 1 1 -0.0459077 0.025914 -0.116142 0 0 0 -0.690242 -0.328967 -0.0582856 0 0 -0.000346714 185.692 -394.795 28.3963 0.0015 
138 1 1 -0.0300941 -0.0352059 -0.11346 0 0 0 -0.996472 -0.104532 -0.216557 0 0 -0.000346714 42.3857 -637.087 149.544 0.0015 
126 1 1 -0.0196167 -0.0275938 -0.111237 0 0 0 -0.342877 0.386226 -0.147472 0 0 -0.000346714 -249.371 -223.108 -40.3557 0.0015 
102 1 1 -0.0548195 -0.0200525 -0.112615 0 0 0 -0.730519 0.300783 -0.134262 0 0 -0.000346714 -155.835 -378.48 -1.58522e-13 0.0015 
101 1 1 -0.0230922 -0.0134956 -0.114053 0 0 0 -0.174687 0.427328 -1.27841 0 0 -0.000346714 65.6693 -226.298 -24.4515 0.0015 
122 1 1 -0.0277411 -0.0099653 -0.109568 0 0 0 -0.257165 0.356864 -0.059113 0 0 -0.000346714 -144.555 -7.34691 20.2362 0.0015 
55 1 1 -0.0635122 -0.00692819 -0.115344 0 0 0 -0.706771 0.253408 -0.364832 0 0 -0.00160516 -76.8102 -219.699 -17.9608 0.0025 
117 1 1 -0.0186705 -0.0104279 -0.110778 0 0 0 -0.401438 -0.22826 0.00238257 0 0 -0.00160516 48.4935 -126.468 135.593 0.0025 
46 1 1 -0.0648772 -0.00190681 -0.115129 0 0 0 -0.8014 0.336696 -0.436761 0 0 -0.000346714 57.9112 -322.772 -138.011 0.0015 
112 1 1 -0.0168727 -0.00495498 -0.1131 0 0 0 -0.643795 -0.191719 0.115163 -0.0126447 -0.00918305 0.0114258 153.681 -399.629 54.7545 0.0015 
40 1 1 -0.0591753 -0.000745336 -0.116274 0 0 0 -0.713952 0.262107 -0.537466 0 0 -0.00160516 -81.4948 -221.983 -4.47958e-14 0.0025 
128 1 1 -0.0326854 -0.00343733 -0.112155 0 0 0 -0.781943 -0.190592 -0.292366 0 0 -0.000346714 -492.37 36.2383 -159.473 0.0015 
67 1 1 -0.0292194 0.00392153 -0.109815 0 0 0 -0.715008 0.266425 0.0422741 0 0 -0.00160516 -129.309 260.788 3.75851 0.0025 
110 1 1 -0.0185671 0.0032652 -0.113222 0 0 0 -0.163223 0.0511769 -0.147613 0 0 -0.000346714 -91.7454 -23.9077 189.228 0.0015 
132 1 1 -0.0143323 0.00315913 -0.109893 0 0 0 -0.301718 0.502491 -0.422516 0 0 -0.00160516 176.021 -266.617 85.8662 0.0025 
87 1 1 -0.0515512 0.0051675 -0.111502 0 0 0 -0.752938 -0.135996 -0.106128 0 0 -0.000346714 69.2573 -383.441 -4.34912e-14 0.0015 
45 1 1 -0.0685344 0.00460007 -0.10724 0 0 0 -0.806305 -0.42317 0.439081 0 0 -0.000346714 389.887 -152.585 -138.964 0.0015 
103 1 1 -0.022413 0.0105184 -0.114012 0 0 0 -0.503315 0.0848828 -0.170362 0 0 -0.00160516 -15.6435 -208.33 -53.0462 0.0025 
13 1 1 -0.0332796 0.0168642 -0.111161 0 0 0 -0.465096 0.0401318 0.0209489 0 0 -0.00160516 -56.5 -40.2411 -43.7451 0.0025 
116 1 1 -0.0256037 0.013703 -0.111296 0 0 0 -0.839044 0.0889513 -0.42894 0 0 -0.00160516 101.831 -64.3633 17.5931 0.0025 
77 1 1 -0.0363604 0.020978 -0.115454 0 0 0 -0.774182 -0.0820079 -0.0383499 0 0 -0.00160516 -117.955 -11.1572 -67.4083 0.0025 
133 1 1 -0.0254983 0.0292821 -0.111497 0 0 0 -1.0239 -0.059219 -0.0601059 0 0 -0.000346714 30.9916 -623.783 -74.7418 0.0015 
86 1 1 -0.0278635 0.0450223 -0.111898 0 0 0 -0.135864 0.192474 0.0138463 0 0 -0.000346714 -63.8768 -24.7121 -214.306 0.0015 
97 1 1 -0.0445949 -0.023387 -0.108166 0 0 0 -0.703963 0.289634 -0.0729871 0 0 -0.000346714 -148.318 -360.491 6.00689e-14 0.0015 
131 1 1 -0.0193369 -0.0217287 -0.108246 0 0 0 -0.722867 0.26538 0.185004 0 0 -0.00160516 -82.419 -224.501 8.47514e-14 0.0025 
80 1 1 -0.0442289 -0.0166654 -0.10664 0 0 0 -0.699633 0.287853 -0.134595 0 0 -0.00160516 -89.5563 -217.669 2.17489e-14 0.0025 
115 1 1 -0.0356884 -0.0183571 -0.10739 0 0 0 -0.704941 0.290036 -0.0011731 0 0 -0.000346714 -148.193 -360.188 1.16897e-14 0.0015 
120 1 1 -0.0244187 -0.0196565 -0.105735 0 0 0 -0.666462 0.0703805 0.120932 0 0 -0.00160516 -56.3143 -234.039 -15.7448 0.0025 
106 1 1 -0.0193541 -0.0162033 -0.107694 0 0 0 -0.53545 0.0212734 -0.27191 0 0 -0.00160516 4.07107 -166.56 -47.7722 0.0025 
125 1 1 -0.0149257 -0.00911256 -0.111561 0 0 0 -0.645161 -0.320573 0.204379 0 0 -0.000346714 205.2 -339.87 109.203 0.0015 
83 1 1 -0.0367506 -0.00168364 -0.110667 0 0 0 -0.62625 0.159735 -0.274951 0 0 -0.000346714 -80.7065 -336.668 -48.6138 0.0015 
81 1 1 -0.0494837 0.00151551 -0.109668 0 0 0 -0.748691 -0.016841 -0.185895 0 0 -0.000346714 8.58772 -381.78 -1.52841e-14 0.0015 
64 1 1 -0.0499229 0.00611531 -0.108707 0 0 0 -0.717929 -0.0266705 -0.339728 0 0 -0.000346714 13.6638 -367.81 1.29697e-14 0.0015 
139 1 1 -0.011136 0.0108422 -0.109344 0 0 0 -0.959741 -0.207873 -1.62487 0 0 -0.000346714 -81.7897 427.888 12.2771 0.0015 
89 1 1 -0.0423277 0.0166355 -0.104495 0 0 0 -0.5528 0.273197 0.313872 0 0 -0.000346714 -314.22 -140.985 -64.0011 0.0015 
96 1 1 -0.0411105 0.0213112 -0.107181 0 0 0 -0.845457 -0.12801 -0.0242465 0 0 -0.000346714 246.884 -254.322 -70.0386 0.0015 
130 1 1 -0.0324985 0.0286274 -0.11622 0 0 0 -0.498483 0.158641 0.264256 0.0148617 -0.0492879 -0.0129746 -92.1839 -135.7 -71.7258 0.0025 
124 1 1 -0.0164678 0.0250386 -0.109096 0 0 0 -0.249718 -0.355936 -0.181343 0 0 -0.000346714 -13.3708 -736.021 -114.033 0.0015 
140 1 1 -0.0331962 0.0324441 -0.115548 0 0 0 -0.679737 0.218337 0.236974 -0.0148617 0.0492879 0.0110228 283.734 -395.034 217.132 0.0015 
137 1 1 -0.0337386 -0.0313381 -0.11718 0 0 0 -0.71424 0.318693 0.246407 0 0 -0.000346714 -165.637 -371.218 1.31049e-13 0.0015 
100 1 1 -0.0341601 -0.00961607 -0.103943 0 0 0 -0.579227 0.229689 -0.0494479 0 0 -0.000346714 -212.708 -114.821 -170.59 0.0015 
105 1 1 -0.019701 -0.0127197 -0.103885 0 0 0 -0.533104 -0.0758272 -0.0566881 0 0 -0.00160516 -102.73 -327.743 -59.7599 0.0025 
118 1 1 -0.0110137 -0.0114781 -0.102803 0 0 0 -0.730189 0.105817 0.158952 0 0 -0.00160516 -32.7933 -226.29 -7.92876e-15 0.0025 
69 1 1 -0.0441429 -0.00140471 -0.106207 0 0 0 -0.721155 -0.0267903 -0.254572 0 0 -0.000346714 13.5753 -365.427 2.76259e-15 0.0015 
109 1 1 -0.0125693 0.00832582 -0.108093 0 0 0 0.0880925 -0.345364 -0.709327 0 0 -0.000346714 -34.5104 -527.191 -97.3698 0.0015 
99 1 1 -0.0311145 0.0178526 -0.103362 0 0 0 -0.732365 -0.171049 -0.0935023 0 0 -0.000346714 87.9167 -376.425 1.7442e-13 0.0015 
119 1 1 -0.0129742 0.0271437 -0.10172 0 0 0 -0.712381 -0.32608 0.0858263 0 0 -0.00160516 102.404 -223.72 9.36145e-14 0.0025 
61 1 1 -0.0124018 0.0424471 -0.106291 0 0 0 -0.0258085 0.351569 -0.152941 0 0 -0.000346714 -358.746 130.139 123.305 0.0015 
136 1 1 -0.0211724 0.0128625 -0.108332 0 0 0 -0.386713 -0.022828 -0.444619 0 0 -0.000346714 -148.218 303.168 9.8618 0.0015 
141 1 1 -0.00627694 0.0138003 -0.10816 0 0 0 -0.40548 0.115261 -0.13835 0.0680709 0.0312431 -0.148743 230.577 -338.41 54.4079 0.0015 
134 1 1 -0.0236421 0.0149823 -0.103758 0 0 0 -0.378435 0.170477 0.293129 0 0 -0.000346714 -203.412 441.886 -62.7026 0.0015 
135 1 1 -0.00921427 0.0221222 -0.10611 0 0 0 -0.732486 -0.171077 0.219212 0 0 -0.000346714 88.3809 -378.412 1.11828e-13 0.0015 
149 1 1 -0.0239507 -0.0144479 -0.11119 0 0 0 -0.40407 -0.138085 -0.908288 0 0 -0.000346714 216.449 145.693 91.1273 0.0015 
129 1 1 -0.017473 -0.00335767 -0.109411 0 0 0 -0.586829 -0.280041 -0.850974 0 0 -0.00160516 80.1858 -7.7928 51.2193 0.0025 
153 1 1 -0.00443239 -0.0250926 -0.10624 0 0 0 -0.768091 0.281982 0.417942 -0.00102466 0.000376173 0.000537015 -147.399 -401.5 2.00498e-14 0.0015 
152 1 1 -0.0189158 0.00679958 -0.104244 0 0 0 0 0 -2.00656 0 0 -0.000346714 0 0 0 0.0015 
143 1 1 -0.00782476 0.011367 -0.105478 0 0 0 -0.152059 -0.146339 -1.21581 -0.0724181 -0.036485 0.154312 55.1904 102.892 40.9053 0.0025 
148 1 1 -0.00630817 0.0207644 -0.104224 0 0 0 0 0 -2.00646 0 0 -0.000346714 0 0 0 0.0015 
151 1 1 -0.00353112 0.0264703 -0.104903 0 0 0 0 0 -2.00979 0 0 -0.000346714 0 0 0 0.0015 
146 1 1 -0.0337656 -0.0129184 -0.103841 0 0 0 0 0 -2.00459 0 0 -0.000346714 0 0 0 0.0015 
142 1 1 -0.00618246 -0.0245765 -0.0991018 0 0 0 0 0 -1.98125 0 0 -0.00160516 0 0 0 0.0025 
144 1 1 -0.0192798 0.00186917 -0.0984262 0 0 0 0 0 -1.97791 0 0 -0.00160516 0 0 0 0.0025 
147 1 1 -0.0152079 -0.0157693 -0.0932418 0 0 0 0 0 -1.95201 0 0 -0.000346714 0 0 0 0.0015 
150 1 1 -0.00623706 -0.0058896 -0.0935561 0 0 0 0 0 -1.95358 0 0 -0.000346714 0 0 0 0.0015 
154 1 1 -0.00679915 -0.012878 -0.0928727 0 0 0 0 0 -1.95015 0 0 -0.000346714 0 0 0 0.0015 
145 1 1 -0.00240788 0.00422687 -0.0910385 0 0 0 0 0 -1.94093 0 0 -0.00160516 0 0 0 0.0025 
155 1 1 -0.0214963 -0.0266191 -0.0891955 0 0 0 0 0 -1.93161 0 0 -0.00160516 0 0 0 0.0025 
163 1 1 -0.0251386 0.0339743 -0.0880631 0 0 0 0 0 -1.92582 0 0 -0.000346714 0 0 0 0.0015 
160 1 1 -0.023692 -0.0114622 -0.0836584 0 0 0 0 0 -1.90326 0 0 -0.000346714 0 0 0 0.0015 
159 1 1 -0.0229207 0.0293808 -0.0823659 0 0 0 0 0 -1.89658 0 0 -0.000346714 0 0 0 0.0015 
165 1 1 -0.0326006 -0.0344541 -0.0812464 0 0 0 0 0 -1.8908 0 0 -0.000346714 0 0 0 0.0015 
157 1 1 -0.00372425 -0.00768845 -0.0802897 0 0 0 0 0 -1.88579 0 0 -0.00160516 0 0 0 0.0025 
161 1 1 -0.0310811 0.0209557 -0.0788941 0 0 0 0 0 -1.87853 0 0 -0.000346714 0 0 0 0.0015 
158 1 1 -0.0239437 -0.00737998 -0.0779749 0 0 0 0 0 -1.87373 0 0 -0.00160516 0 0 0 0.0025 
162 1 1 -0.00596878 0.00110293 -0.0774898 0 0 0 0 0 -1.87118 0 0 -0.000346714 0 0 0 0.0015 
166 1 1 -0.0334498 0.0192376 -0.0752655 0 0 0 0 0 -1.8595 0 0 -0.000346714 0 0 0 0.0015 
176 1 1 -0.0260626 -0.0145959 -0.0719531 0 0 0 0 0 -1.84194 0 0 -0.000346714 0 0 0 0.0015 
173 1 1 -0.0280772 0.00199937 -0.0728588 0 0 0 0 0 -1.84675 0 0 -0.000346714 0 0 0 0.0015 
164 1 1 -0.0186593 0.0101406 -0.073208 0 0 0 0 0 -1.84861 0 0 -0.000346714 0 0 0 0.0015 
156 1 1 -0.0192512 0.0203811 -0.0737061 0 0 0 0 0 -1.85126 0 0 -0.00160516 0 0 0 0.0025 
172 1 1 -0.0233162 -0.0257488 -0.0699688 0 0 0 0 0 -1.83135 0 0 -0.000346714 0 0 0 0.0015 
175 1 1 -0.00243205 -0.0275788 -0.0706269 0 0 0 0 0 -1.83488 0 0 -0.000346714 0 0 0 0.0015 
168 1 1 -0.0175477 0.0137467 -0.0684595 0 0 0 0 0 -1.82321 0 0 -0.00160516 0 0 0 0.0025 
170 1 1 -0.000114354 0.021065 -0.0678561 0 0 0 0 0 -1.81997 0 0 -0.00160516 0 0 0 0.0025 
171 1 1 -0.0180071 -0.0127461 -0.065133 0 0 0 0 0 -1.80525 0 0 -0.000346714 0 0 0 0.0015 
178 1 1 -0.0228627 0.00282045 -0.0669449 0 0 0 0 0 -1.81506 0 0 -0.000346714 0 0 0 0.0015 
179 1 1 -0.0322154 -0.0246784 -0.0617771 0 0 0 0 0 -1.78691 0 0 -0.000346714 0 0 0 0.0015 
177 1 1 -0.01426 -0.0150654 -0.0604598 0 0 0 0 0 -1.77965 0 0 -0.000346714 0 0 0 0.0015 
167 1 1 -0.0273571 -0.0103215 -0.0611319 0 0 0 0 0 -1.78338 0 0 -0.00160516 0 0 0 0.0025 
174 1 1 -0.0341304 -0.00318577 -0.059092 0 0 0 0 0 -1.7721 0 0 -0.000346714 0 0 0 0.0015 
169 1 1 -0.0234861 -0.0194352 -0.0537668 0 0 0 0 0 -1.74237 0 0 -0.00160516 0 0 0 0.0025 
192 1 1 -0.00264988 -0.0095541 -0.0528964 0 0 0 0 0 -1.73747 0 0 -0.000346714 0 0 0 0.0015 
185 1 1 -0.0184157 0.00363086 -0.0534558 0 0 0 0 0 -1.74061 0 0 -0.000346714 0 0 0 0.0015 
182 1 1 -0.00169906 -0.0346379 -0.0512104 0 0 0 0 0 -1.72795 0 0 -0.00160516 0 0 0 0.0025 
186 1 1 -0.0106048 -0.00789334 -0.0498024 0 0 0 0 0 -1.71991 0 0 -0.000346714 0 0 0 0.0015 
191 1 1 -0.0200733 -0.00130471 -0.0523407 0 0 0 0 0 -1.73433 0 0 -0.000346714 0 0 0 0.0015 
180 1 1 -0.0258257 0.0147617 -0.0501493 0 0 0 0 0 -1.72187 0 0 -0.00160516 0 0 0 0.0025 
184 1 1 -0.00526421 0.027503 -0.0500609 0 0 0 0 0 -1.72138 0 0 -0.000346714 0 0 0 0.0015 
183 1 1 -0.0107488 0.0329346 -0.0472175 0 0 0 0 0 -1.70509 0 0 -0.00160516 0 0 0 0.0025 
181 1 1 -0.0264666 -0.025466 -0.0450927 0 0 0 0 0 -1.69283 0 0 -0.00160516 0 0 0 0.0025 
190 1 1 -0.00998901 0.00893206 -0.0449884 0 0 0 0 0 -1.69224 0 0 -0.000346714 0 0 0 0.0015 
188 1 1 -0.0196577 -0.024903 -0.0415698 0 0 0 0 0 -1.67233 0 0 -0.000346714 0 0 0 0.0015 
189 1 1 -0.0134549 0.0182926 -0.0387259 0 0 0 0 0 -1.65555 0 0 -0.000346714 0 0 0 0.0015 
187 1 1 -0.0249489 0.0269151 -0.040758 0 0 0 0 0 -1.66752 0 0 -0.000346714 0 0 0 0.0015 
200 1 1 -0.0201644 -0.0275601 -0.0380213 0 0 0 0 0 -1.65133 0 0 -0.000346714 0 0 0 0.0015 
195 1 1 -0.00018665 -0.0192075 -0.03603 0 0 0 0 0 -1.63946 0 0 -0.00160516 0 0 0 0.0025 
204 1 1 -0.0121862 -0.00588198 -0.0369457 0 0 0 0 0 -1.64496 0 0 -0.000346714 0 0 0 0.0015 
198 1 1 -0.0278654 0.00172744 -0.0361285 0 0 0 0 0 -1.64005 0 0 -0.000346714 0 0 0 0.0015 
196 1 1 -0.0173269 -0.0294256 -0.0325588 0 0 0 0 0 -1.61857 0 0 -0.00160516 0 0 0 0.0025 
205 1 1 -0.00546888 -0.024539 -0.0323647 0 0 0 0 0 -1.61739 0 0 -0.000346714 0 0 0 0.0015 
197 1 1 -0.0244014 0.0243576 -0.031041 0 0 0 0 0 -1.60935 0 0 -0.000346714 0 0 0 0.0015 
203 1 1 -0.0317899 0.0348276 -0.0314471 0 0 0 0 0 -1.6118 0 0 -0.000346714 0 0 0 0.0015 
193 1 1 -0.0232114 -0.0230043 -0.0302367 0 0 0 0 0 -1.60444 0 0 -0.00160516 0 0 0 0.0025 
201 1 1 -0.00148336 -0.00863773 -0.0282038 0 0 0 0 0 -1.59198 0 0 -0.000346714 0 0 0 0.0015 
194 1 1 -0.0299737 -0.0249092 -0.0249593 0 0 0 0 0 -1.57187 0 0 -0.00160516 0 0 0 0.0025 
199 1 1 -0.0209901 0.00167617 -0.0253606 0 0 0 0 0 -1.57433 0 0 -0.000346714 0 0 0 0.0015 
202 1 1 -0.00237574 0.0349629 -0.0266627 0 0 0 0 0 -1.58247 0 0 -0.000346714 0 0 0 0.0015 
212 1 1 -0.0118483 0.00949823 -0.0201229 0 0 0 0 0 -1.54136 0 0 -0.000346714 0 0 0 0.0015 
215 1 1 -0.0133438 0.0300767 -0.0206581 0 0 0 0 0 -1.5448 0 0 -0.000346714 0 0 0 0.0015 
216 1 1 -0.00916175 0.0316192 -0.0203814 0 0 0 0 0 -1.54303 0 0 -0.000346714 0 0 0 0.0015 
217 1 1 -0.00525173 0.0148756 -0.0183077 0 0 0 0 0 -1.52979 0 0 -0.000346714 0 0 0 0.0015 
209 1 1 -0.00795 0.0273623 -0.0192332 0 0 0 0 0 -1.53568 0 0 -0.00160516 0 0 0 0.0025 
218 1 1 -0.0116971 -0.0149443 -0.0158729 0 0 0 0 0 -1.51409 0 0 -0.000346714 0 0 0 0.0015 
207 1 1 -0.014731 -0.00384992 -0.0133631 0 0 0 0 0 -1.49771 0 0 -0.00160516 0 0 0 0.0025 
211 1 1 -0.0325497 0.0284222 -0.0143938 0 0 0 0 0 -1.50448 0 0 -0.000346714 0 0 0 0.0015 
214 1 1 -0.000147874 -0.0328927 -0.00883975 0 0 0 0 0 -1.46779 0 0 -0.000346714 0 0 0 0.0015 
206 1 1 -0.0315415 -0.0266248 -0.0118552 0 0 0 0 0 -1.4878 0 0 -0.00160516 0 0 0 0.0025 
213 1 1 -0.0258692 -0.0150214 -0.00933804 0 0 0 0 0 -1.47113 0 0 -0.000346714 0 0 0 0.0015 
208 1 1 -0.0313425 0.0167345 -0.0114941 0 0 0 0 0 -1.48545 0 0 -0.00160516 0 0 0 0.0025 
210 1 1 -0.0220067 0.0311963 -0.0115094 0 0 0 0 0 -1.48555 0 0 -0.00160516 0 0 0 0.0025 
223 1 1 -0.0141421 0.000627184 -0.00499881 0 0 0 0 0 -1.44189 0 0 -0.000346714 0 0 0 0.0015 
226 1 1 -0.0256746 -0.0295973 -0.00321365 0 0 0 0 0 -1.42973 0 0 -0.000346714 0 0 0 0.0015 
219 1 1 -0.0126988 -0.0187384 -0.00430982 0 0 0 0 0 -1.43718 0 0 -0.00160516 0 0 0 0.0025 
228 1 1 -0.0186146 -0.0100891 -0.00333203 0 0 0 0 0 -1.43051 0 0 -0.000346714 0 0 0 0.0015 
224 1 1 -0.0104339 -0.00964248 -0.00125053 0 0 0 0 0 -1.41619 0 0 -0.000346714 0 0 0 0.0015 
229 1 1 -0.0206785 0.0145985 -0.00210794 0 0 0 0 0 -1.42208 0 0 -0.000346714 0 0 0 0.0015 
227 1 1 -0.0125397 -0.025785 -0.000402614 0 0 0 0 0 -1.4103 0 0 -0.000346714 0 0 0 0.0015 
230 1 1 -0.0158011 0.0337207 4.91123e-05 0 0 0 0 0 -1.40716 0 0 -0.000346714 0 0 0 0.0015 
225 1 1 -0.0349321 -0.00790873 0.00550926 0 0 0 0 0 -1.36851 0 0 -0.000346714 0 0 0 0.0015 
240 1 1 -0.0114835 -0.0265679 0.00757916 0 0 0 0 0 -1.3536 0 0 -0.000346714 0 0 0 0.0015 
231 1 1 -0.0172445 0.00368684 0.00892108 0 0 0 0 0 -1.34389 0 0 -0.00160516 0 0 0 0.0025 
221 1 1 -0.03004 0.0154412 0.0069412 0 0 0 0 0 -1.35821 0 0 -0.00160516 0 0 0 0.0025 
220 1 1 -0.0245784 0.0311922 0.00770187 0 0 0 0 0 -1.35272 0 0 -0.00160516 0 0 0 0.0025 
222 1 1 -0.00133775 0.0319388 0.00828296 0 0 0 0 0 -1.3485 0 0 -0.00160516 0 0 0 0.0025 
236 1 1 -0.011765 -0.0317196 0.0136742 0 0 0 0 0 -1.30867 0 0 -0.000346714 0 0 0 0.0015 
239 1 1 -0.004822 -0.0263713 0.0101889 0 0 0 0 0 -1.33457 0 0 -0.000346714 0 0 0 0.0015 
232 1 1 -0.0305153 0.021925 0.0105505 0 0 0 0 0 -1.33192 0 0 -0.00160516 0 0 0 0.0025 
238 1 1 -0.00523715 -0.00399455 0.0143574 0 0 0 0 0 -1.30357 0 0 -0.000346714 0 0 0 0.0015 
242 1 1 -0.024936 0.00943572 0.0167023 0 0 0 0 0 -1.28581 0 0 -0.000346714 0 0 0 0.0015 
235 1 1 -0.00913613 0.0130219 0.0158602 0 0 0 0 0 -1.29219 0 0 -0.000346714 0 0 0 0.0015 
241 1 1 -0.0178674 0.023228 0.0172173 0 0 0 0 0 -1.28189 0 0 -0.000346714 0 0 0 0.0015 
243 1 1 -0.0312596 -0.0342874 0.019978 0 0 0 0 0 -1.2606 0 0 -0.000346714 0 0 0 0.0015 
237 1 1 -0.0276781 -0.0346784 0.01777 0 0 0 0 0 -1.27767 0 0 -0.000346714 0 0 0 0.0015 
234 1 1 -0.00624641 -0.0254844 0.0174855 0 0 0 0 0 -1.27983 0 0 -0.00160516 0 0 0 0.0025 
233 1 1 -0.0140583 -0.0235405 0.0200368 0 0 0 0 0 -1.26011 0 0 -0.00160516 0 0 0 0.0025 
255 1 1 -0.0103972 0.0260911 0.0210252 0 0 0 0 0 -1.25236 0 0 -0.000346714 0 0 0 0.0015 
256 1 1 -0.0202693 -0.0311084 0.0236608 0 0 0 0 0 -1.23157 0 0 -0.000346714 0 0 0 0.0015 
247 1 1 -0.00778825 -0.017605 0.0215807 0 0 0 0 0 -1.24805 0 0 -0.00160516 0 0 0 0.0025 
248 1 1 -0.00508252 -0.00729713 0.023103 0 0 0 0 0 -1.23598 0 0 -0.000346714 0 0 0 0.0015 
252 1 1 -0.0171169 0.0130299 0.0248969 0 0 0 0 0 -1.22166 0 0 -0.000346714 0 0 0 0.0015 
249 1 1 -0.000908632 0.0183203 0.0219303 0 0 0 0 0 -1.2453 0 0 -0.000346714 0 0 0 0.0015 
254 1 1 -0.0334625 0.0326024 0.0223932 0 0 0 0 0 -1.24167 0 0 -0.000346714 0 0 0 0.0015 
253 1 1 -0.0330193 -0.0287184 0.0285341 0 0 0 0 0 -1.19213 0 0 -0.000346714 0 0 0 0.0015 
251 1 1 -0.0322818 -0.0136491 0.0252164 0 0 0 0 0 -1.21911 0 0 -0.000346714 0 0 0 0.0015 
250 1 1 -0.0242205 -0.0101411 0.0252662 0 0 0 0 0 -1.21871 0 0 -0.000346714 0 0 0 0.0015 
246 1 1 -0.00133703 0.00391048 0.0263118 0 0 0 0 0 -1.21028 0 0 -0.00160516 0 0 0 0.0025 
244 1 1 -0.0304516 0.017575 0.0267588 0 0 0 0 0 -1.20665 0 0 -0.00160516 0 0 0 0.0025 
245 1 1 -0.0327952 0.00273344 0.0295447 0 0 0 0 0 -1.18379 0 0 -0.00160516 0 0 0 0.0025 
265 1 1 -0.0282211 -0.0123493 0.0328298 0 0 0 0 0 -1.15622 0 0 -0.000346714 0 0 0 0.0015 
267 1 1 -0.0169822 0.00918438 0.0343438 0 0 0 0 0 -1.14328 0 0 -0.000346714 0 0 0 0.0015 
264 1 1 -0.0266383 0.0211746 0.0358639 0 0 0 0 0 -1.13023 0 0 -0.000346714 0 0 0 0.0015 
269 1 1 -0.0323156 0.0257586 0.0338069 0 0 0 0 0 -1.14789 0 0 -0.000346714 0 0 0 0.0015 
262 1 1 -0.0242312 -0.0119118 0.0374122 0 0 0 0 0 -1.11669 0 0 -0.000346714 0 0 0 0.0015 
257 1 1 -0.016367 0.0234551 0.0386315 0 0 0 0 0 -1.1059 0 0 -0.00160516 0 0 0 0.0025 
258 1 1 -0.000691472 -0.0346461 0.0404838 0 0 0 0 0 -1.08932 0 0 -0.00160516 0 0 0 0.0025 
266 1 1 -0.0319423 -0.0207084 0.041368 0 0 0 0 0 -1.08137 0 0 -0.000346714 0 0 0 0.0015 
268 1 1 -0.0332043 -0.0119457 0.0408592 0 0 0 0 0 -1.08598 0 0 -0.000346714 0 0 0 0.0015 
261 1 1 -0.0084722 -0.0123243 0.0399779 0 0 0 0 0 -1.09393 0 0 -0.000346714 0 0 0 0.0015 
259 1 1 -0.0181876 -0.00799419 0.0404875 0 0 0 0 0 -1.08932 0 0 -0.00160516 0 0 0 0.0025 
263 1 1 -0.0266867 0.00969496 0.041707 0 0 0 0 0 -1.07833 0 0 -0.000346714 0 0 0 0.0015 