ITEM: TIMESTEP
76200
ITEM: NUMBER OF ATOMS
821
ITEM: BOX BOUNDS ff ff ff
-0.5 0.1
-0.2 0.2
-0.4 0.15
ITEM: ATOMS id type type x y z ix iy iz vx vy vz fx fy fz omegax omegay omegaz radius 
982 1 1 -0.0225839 -0.00107854 0.0583974 0 0 0 -0 0 -1 0 0 0 0 0 0 0.0015 
974 1 1 -0.00479372 -0.00849652 0.0593136 0 0 0 -0 0 -1 0 0 0 0 0 0 0.0025 
221 1 1 -0.486118 -0.0178686 -0.396705 0 0 0 -1.19685 0.0788713 -1.84397 0 0 -0.00160516 46.1343 -420.092 62.5528 0.0025 
15 1 1 -0.456976 -0.00935852 -0.396233 0 0 0 -1.00466 0.0302447 -1.82811 0 0 -0.00160516 -52.1407 -288.095 58.0442 0.0025 
167 1 1 -0.458614 -0.00395037 -0.389956 0 0 0 -0.984101 -0.00310899 -1.75666 0 0 -0.00160516 3.00523 -426.073 -3.53896 0.0025 
123 1 1 -0.463979 0.00774579 -0.390075 0 0 0 -1.05613 0.0224199 -1.76369 0 0 -0.000346714 3.88147 -763.446 -47.503 0.0015 
224 1 1 -0.480912 0.0135059 -0.390222 0 0 0 -1.21595 -0.0697075 -1.79647 0 0 -0.000346714 69.4761 -885.323 -44.1922 0.0015 
200 1 1 -0.42848 -0.0340118 -0.385283 0 0 0 -0.763939 -0.0851092 -1.77693 0 0 -0.000346714 -272.422 -116.611 -16.6336 0.0015 
205 1 1 -0.460675 -0.0179264 -0.385932 0 0 0 -1.0625 -0.0173898 -1.77457 0 0 -0.000346714 -10.5004 -705.017 -133.94 0.0015 
73 1 1 -0.446386 0.00244861 -0.382561 0 0 0 -0.973773 0.0164436 -1.73213 0 0 -0.000346714 -25.3215 -617.309 8.82711 0.0015 
219 1 1 -0.46234 -0.00898472 -0.380546 0 0 0 -1.11082 0.0553876 -1.73582 0 0 -0.00160516 -57.456 -407.681 66.7014 0.0025 
213 1 1 -0.441927 -0.00247253 -0.381008 0 0 0 -0.923552 -0.00290206 -1.70952 0 0 -0.000346714 12.4447 -326.308 43.9774 0.0015 
192 1 1 -0.456496 0.010913 -0.379568 0 0 0 -0.900325 -0.0426275 -1.70333 0 0 -0.000346714 -46.4395 -449.048 -130.891 0.0015 
208 1 1 -0.459813 0.0166944 -0.382286 0 0 0 -1.04016 0.013282 -1.72668 0 0 -0.00160516 4.40502 -454.321 -25.219 0.0025 
119 1 1 -0.463274 0.00411403 -0.37861 0 0 0 -1.11678 -0.00630556 -1.71208 0 0 -0.00160516 -1.58639 -487.378 9.75291 0.0025 
244 1 1 -0.46738 0.015092 -0.375343 0 0 0 -1.17365 0.0161611 -1.6871 0 0 -0.00160516 24.4282 -488.323 -76.4254 0.0025 
101 1 1 -0.417999 -0.0136221 -0.372939 0 0 0 -0.756817 -0.0902203 -1.72133 0 0 -0.000346714 -28.3705 -280.433 -43.8822 0.0015 
183 1 1 -0.454163 0.00507018 -0.373543 0 0 0 -1.01851 0.140764 -1.66581 0 0 -0.00160516 -26.3056 -327.74 -9.61479 0.0025 
132 1 1 -0.445263 0.00883647 -0.374531 0 0 0 -0.990237 0.0675224 -1.68577 0 0 -0.00160516 14.8907 -289.595 2.05263 0.0025 
293 1 1 -0.479134 0.0231599 -0.374168 0 0 0 -1.28315 -0.110707 -1.73804 0 0 -0.000346714 82.9603 -969.846 -0.631742 0.0015 
262 1 1 -0.48198 0.0437136 -0.372468 0 0 0 -1.28094 0.124041 -1.69101 0 0 -0.000346714 -57.362 -937.353 -91.2237 0.0015 
193 1 1 -0.43217 -0.0312467 -0.369192 0 0 0 -0.852717 -0.0765502 -1.675 0 0 -0.00160516 -19.0268 -313.611 44.2248 0.0025 
157 1 1 -0.435412 -0.014653 -0.365476 0 0 0 -0.847013 0.0631745 -1.59916 0 0 -0.00160516 -15.3931 -351.929 -8.20579 0.0025 
189 1 1 -0.445981 -0.0111545 -0.366077 0 0 0 -0.974528 -0.0587685 -1.60309 0 0 -0.000346714 106.442 -651.39 -29.6752 0.0015 
197 1 1 -0.422612 -0.00809597 -0.366185 0 0 0 -0.781164 -0.00802137 -1.6011 0 0 -0.000346714 17.1181 -481.313 -11.8934 0.0015 
191 1 1 -0.446244 -0.000703003 -0.367522 0 0 0 -1.00926 0.01231 -1.64238 0 0 -0.000346714 -143.128 -351.733 81.2902 0.0015 
144 1 1 -0.440148 0.00212713 -0.368005 0 0 0 -0.983795 0.0215203 -1.65103 0 0 -0.00160516 -59.7677 -370.271 50.4024 0.0025 
178 1 1 -0.426192 0.00966575 -0.365331 0 0 0 -0.875148 0.0330808 -1.64693 0 0 -0.000346714 -54.1508 -599.63 39.6465 0.0015 
218 1 1 -0.457211 -0.00995094 -0.3623 0 0 0 -1.16241 0.0733094 -1.62164 0 0 -0.000346714 -40.6898 -856.813 -30.7497 0.0015 
181 1 1 -0.430726 -0.00036306 -0.364221 0 0 0 -0.948338 0.0556168 -1.6437 0 0 -0.00160516 -147.893 -232.712 -9.95269 0.0025 
155 1 1 -0.440381 0.00589524 -0.361261 0 0 0 -1.02435 0.0338799 -1.61283 0 0 -0.00160516 1.55192 -349.204 26.4785 0.0025 
258 1 1 -0.447987 0.037287 -0.362325 0 0 0 -1.16534 0.062507 -1.75723 0 0 -0.00160516 -11.6734 176.405 -22.5778 0.0025 
9 1 1 -0.444425 0.00915688 -0.357819 0 0 0 -1.03234 0.05283 -1.55553 0 0 -0.000346714 6.86682 -694.063 -113.314 0.0015 
211 1 1 -0.414279 -0.0266543 -0.355278 0 0 0 -0.873726 -0.101697 -1.63196 0 0 -0.000346714 -178.623 -327.611 8.8973 0.0015 
127 1 1 -0.424905 -0.0160653 -0.357416 0 0 0 -0.831664 -0.0487669 -1.54544 0 0 -0.000346714 12.3567 -579.139 19.1742 0.0015 
59 1 1 -0.423777 -0.00763486 -0.354429 0 0 0 -0.838481 0.00623968 -1.53812 0 0 -0.000346714 -35.7349 121.694 7.76013 0.0015 
977 1 1 -0.0306976 -0.0200391 0.0604543 0 0 0 -0 0 -1 0 0 0 0 0 0 0.0025 
206 1 1 -0.438551 0.0037593 -0.354867 0 0 0 -0.976405 0.0758532 -1.5586 0 0 -0.00160516 -17.202 -170.623 4.82597 0.0025 
305 1 1 -0.442185 0.0203191 -0.354265 0 0 0 -1.09384 -0.102151 -1.63092 0 0 -0.000346714 -1.1303 -780.799 -101.29 0.0015 
188 1 1 -0.455326 -0.0148837 -0.351572 0 0 0 -1.18406 0.110762 -1.55955 0 0 -0.000346714 -65.3032 -893.373 -32.5978 0.0015 
259 1 1 -0.465069 -0.0103942 -0.351417 0 0 0 -1.22873 0.123982 -1.52657 0 0 -0.00160516 -68.6659 -469.939 35.8833 0.0025 
228 1 1 -0.446544 0.0156477 -0.353857 0 0 0 -1.11224 0.00178354 -1.56054 0 0 -0.000346714 75.8592 -782.056 -182.758 0.0015 
182 1 1 -0.425704 -0.011435 -0.349786 0 0 0 -0.874703 0.00117447 -1.50418 0 0 -0.00160516 -24.6677 -371.655 66.7302 0.0025 
276 1 1 -0.447505 0.00508267 -0.349958 0 0 0 -1.10948 -0.0420042 -1.50055 0 0 -0.000346714 27.7378 -715.581 -0.74492 0.0015 
272 1 1 -0.434645 0.0619843 -0.346174 0 0 0 -0.999806 0.285492 -1.56159 0 0 -0.00160516 9.75074 -59.5008 -143.463 0.0025 
225 1 1 -0.426855 -0.0141031 -0.341189 0 0 0 -0.962436 0.00897913 -1.45679 0 0 -0.000346714 23.763 -718.116 -73.3922 0.0015 
126 1 1 -0.424136 0.00548347 -0.339845 0 0 0 -0.969099 0.0755784 -1.44977 0 0 -0.000346714 -19.0477 -663.005 -79.6916 0.0015 
180 1 1 -0.442363 0.0105032 -0.341815 0 0 0 -1.07507 0.109286 -1.44612 0 0 -0.00160516 -2.30228 -398.032 -60.2754 0.0025 
216 1 1 -0.418707 -0.000790068 -0.339596 0 0 0 -0.938118 0.00973268 -1.45805 0 0 -0.000346714 -183.288 -637.657 -39.8282 0.0015 
145 1 1 -0.427598 0.0184374 -0.338655 0 0 0 -0.961799 0.221409 -1.43154 0 0 -0.00160516 -76.3318 -385.074 -25.0555 0.0025 
253 1 1 -0.436506 0.0210031 -0.338263 0 0 0 -1.09504 -0.113846 -1.48905 0 0 -0.000346714 187.587 -742.933 -247.5 0.0015 
168 1 1 -0.422554 -0.00202756 -0.334663 0 0 0 -0.96131 0.0275136 -1.4304 0 0 -0.00160516 -38.9396 -401.623 31.4263 0.0025 
202 1 1 -0.428136 0.00658882 -0.329918 0 0 0 -1.04816 0.0527132 -1.36467 0 0 -0.000346714 -93.445 -717.384 28.3075 0.0015 
245 1 1 -0.432976 0.00999229 -0.331028 0 0 0 -1.16725 -0.179685 -1.45483 0 0 -0.00160516 98.8841 -514.922 -43.4747 0.0025 
217 1 1 -0.420734 0.0319907 -0.329405 0 0 0 -0.979047 0.0482316 -1.40043 0 0 -0.000346714 -62.3769 -710.188 -149.895 0.0015 
287 1 1 -0.437372 0.043385 -0.329799 0 0 0 -1.07163 0.0470492 -1.41431 0 0 -0.000346714 29.6621 -756.413 -180.337 0.0015 
232 1 1 -0.432314 -0.0151779 -0.326882 0 0 0 -1.0912 -0.00281361 -1.35524 0 0 -0.00160516 0.912803 -446.291 -12.5083 0.0025 
268 1 1 -0.425947 -0.00114024 -0.327903 0 0 0 -1.11172 -0.0230348 -1.3039 0 0 -0.000346714 68.6278 -673.864 -143.096 0.0015 
296 1 1 -0.437366 0.0377847 -0.327208 0 0 0 -1.14681 0.0735282 -1.40073 0 0 -0.00160516 19.6271 -471.011 -120.325 0.0025 
156 1 1 -0.426609 0.00927002 -0.325139 0 0 0 -1.13536 -0.146372 -1.39665 0 0 -0.00160516 104.231 -482.863 -93.3553 0.0025 
315 1 1 -0.445926 0.0468473 -0.325157 0 0 0 -1.19537 -0.0474614 -1.45565 0 0 -0.000346714 141.619 -839.23 -269.993 0.0015 
215 1 1 -0.406594 0.00568937 -0.320992 0 0 0 -0.951175 -0.00526021 -1.3297 0 0 -0.000346714 81.017 -671.859 56.629 0.0015 
274 1 1 -0.405353 0.0026182 -0.315005 0 0 0 -0.950556 0.000203931 -1.27907 0 0 -0.00160516 -35.2937 -287.224 55.6583 0.0025 
281 1 1 -0.395265 0.00360365 -0.316833 0 0 0 -0.884606 -0.0265414 -1.3343 0 0 -0.000346714 -242.945 -508.979 156.931 0.0015 
239 1 1 -0.408506 0.011362 -0.31708 0 0 0 -0.961078 -0.0352204 -1.28902 0 0 -0.000346714 87.1321 -678.422 -144.801 0.0015 
147 1 1 -0.410137 -0.0132368 -0.313127 0 0 0 -1.02829 -0.0381294 -1.2584 0 0 -0.000346714 16.1649 -640.133 56.1681 0.0015 
249 1 1 -0.400497 0.0110621 -0.314506 0 0 0 -0.928628 0.0502358 -1.29733 0 0 -0.000346714 -71.0977 -558.863 -75.5902 0.0015 
247 1 1 -0.40241 -0.00738341 -0.309138 0 0 0 -0.932008 -0.0252074 -1.21857 0 0 -0.00160516 -1.36802 -401.64 30.0268 0.0025 
124 1 1 -0.401771 0.00608304 -0.308807 0 0 0 -0.985358 0.0571045 -1.22438 0 0 -0.000346714 5.29344 -290.979 -72.1655 0.0015 
201 1 1 -0.401493 0.0186087 -0.309331 0 0 0 -0.942955 0.11093 -1.22087 0 0 -0.000346714 -49.0519 -675.763 -65.0532 0.0015 
311 1 1 -0.426773 0.0408891 -0.310412 0 0 0 -1.1993 0.090386 -1.29135 0 0 -0.00160516 -20.5047 -526.685 -51.8186 0.0025 
250 1 1 -0.415942 -0.0244549 -0.305386 0 0 0 -1.17414 0.0758322 -1.24658 0 0 -0.000346714 -86.4605 -854.852 76.913 0.0015 
109 1 1 -0.39728 -0.00931355 -0.306493 0 0 0 -0.91466 -0.0674199 -1.19455 0 0 -0.000346714 111.868 -222.572 118.383 0.0015 
195 1 1 -0.400437 -0.0104986 -0.30265 0 0 0 -0.950155 -0.00245124 -1.16116 0 0 -0.00160516 -31.7349 -403.29 79.3726 0.0025 
266 1 1 -0.394311 -0.0102459 -0.302858 0 0 0 -0.905617 -0.0577355 -1.16533 0 0 -0.000346714 38.2168 -563.275 170.727 0.0015 
235 1 1 -0.398369 0.00186273 -0.303785 0 0 0 -1.00864 -0.0693927 -1.28363 0 0 -0.000346714 -152.029 -399.94 40.2951 0.0015 
160 1 1 -0.39452 0.00523717 -0.304245 0 0 0 -0.939044 -0.00159742 -1.18876 0 0 -0.000346714 7.64473 -602.03 -83.6384 0.0015 
154 1 1 -0.401115 0.00706207 -0.303869 0 0 0 -1.01188 -0.0476029 -1.18547 0 0 -0.000346714 70.4283 -702.067 -115.19 0.0015 
369 1 1 -0.403859 0.0132508 -0.302255 0 0 0 -0.97837 0.0760865 -1.1436 0 0 -0.000346714 -49.8506 -521.834 -142.143 0.0015 
223 1 1 -0.399824 -0.00493339 -0.299112 0 0 0 -0.96782 -0.0410256 -1.11589 0 0 -0.000346714 -14.4538 -65.868 -23.1529 0.0015 
134 1 1 -0.396859 0.00364541 -0.300109 0 0 0 -1.07764 -0.0198744 -1.09131 0 0 -0.000346714 162.244 -619.846 -30.5923 0.0015 
118 1 1 -0.407653 0.0098637 -0.300312 0 0 0 -1.03421 0.0750674 -1.13795 0 0 -0.00160516 -67.2787 -209.567 -20.9341 0.0025 
251 1 1 -0.39419 0.00195561 -0.296399 0 0 0 -0.934641 0.0370445 -1.0956 0 0 -0.000346714 -45.3533 -548.355 12.8843 0.0015 
286 1 1 -0.401092 0.00473443 -0.294295 0 0 0 -1.21349 -0.123161 -1.15229 0 0 -0.00160516 61.1949 -526.834 -17.8641 0.0025 
261 1 1 -0.407159 -0.0244205 -0.292671 0 0 0 -1.2512 0.216315 -1.19477 0 0 -0.000346714 -219.487 -908.675 154.103 0.0015 
226 1 1 -0.392313 -0.0172388 -0.290819 0 0 0 -1.04074 0.0779308 -1.09469 0 0 -0.000346714 -50.6944 -756.811 -10.2526 0.0015 
252 1 1 -0.385717 0.00119071 -0.291011 0 0 0 -0.966088 -0.253625 -1.24471 0 0 -0.000346714 -163.922 -529.897 -271.472 0.0015 
271 1 1 -0.390686 0.00565888 -0.290824 0 0 0 -1.05338 0.020287 -1.09652 0 0 -0.00160516 -14.5474 -428.222 3.29529 0.0025 
222 1 1 -0.39984 0.0116617 -0.292001 0 0 0 -1.23249 -0.0927185 -1.14718 0 0 -0.00160516 99.848 -516.788 -138.809 0.0025 
209 1 1 -0.384791 -0.00929941 -0.287468 0 0 0 -1.01483 -0.0174525 -1.09458 0 0 -0.00160516 98.5795 -406.85 75.5558 0.0025 
299 1 1 -0.388987 -0.000426361 -0.287961 0 0 0 -1.01317 -0.00117368 -1.03378 0 0 -0.00160516 -65.3735 -59.9917 -34.7802 0.0025 
279 1 1 -0.378323 -0.000514414 -0.286769 0 0 0 -0.94014 -0.0255148 -1.05142 0 0 -0.000346714 -1.3844 -567.547 17.515 0.0015 
347 1 1 -0.396206 0.010436 -0.288579 0 0 0 -1.25149 -0.0653268 -1.11374 0 0 -0.00160516 39.0311 -548.399 12.5517 0.0025 
295 1 1 -0.389546 -0.0195349 -0.285948 0 0 0 -1.06351 0.0795044 -1.05292 0 0 -0.000346714 -112.987 -745.537 141.606 0.0015 
278 1 1 -0.374803 -0.00667708 -0.283932 0 0 0 -0.916566 0.0058572 -1.0278 0 0 -0.000346714 -189.381 -627.073 -31.7332 0.0015 
86 1 1 -0.374776 0.00237941 -0.284301 0 0 0 -0.920224 0.0337641 -1.0364 0 0 -0.000346714 123.484 -563.73 199.571 0.0015 
348 1 1 -0.391496 0.00558957 -0.283825 0 0 0 -1.27169 -0.17924 -1.05104 0 0 -0.00160516 71.4792 -535.908 -7.71366 0.0025 
238 1 1 -0.390092 -0.0284787 -0.280742 0 0 0 -1.10168 -0.0112723 -0.994967 0 0 -0.000346714 -29.0566 -782.247 111.447 0.0015 
176 1 1 -0.38132 -0.0208226 -0.279756 0 0 0 -0.996804 0.0387971 -0.974187 0 0 -0.000346714 -17.5264 -731.744 -22.2109 0.0015 
306 1 1 -0.373612 -0.0186399 -0.282707 0 0 0 -0.871024 0.118056 -1.16129 0 0 -0.000346714 94.844 -482.578 110.526 0.0015 
207 1 1 -0.386422 -0.0144338 -0.280387 0 0 0 -1.07882 -0.0285322 -0.946986 0 0 -0.00160516 -16.2793 -407.085 136.478 0.0025 
282 1 1 -0.375983 -0.00951035 -0.282795 0 0 0 -0.916104 -0.000669075 -1.00267 0 0 -0.000346714 155.515 -430.726 136.919 0.0015 
290 1 1 -0.37869 0.00390812 -0.282331 0 0 0 -0.952515 -0.000298131 -0.983944 0 0 -0.000346714 -18.9022 -634.161 -97.4314 0.0015 
237 1 1 -0.385037 -0.0266011 -0.277234 0 0 0 -1.11058 0.134415 -1.09561 0 0 -0.000346714 -45.5223 -775.812 54.2523 0.0015 
236 1 1 -0.372589 -0.0107121 -0.278996 0 0 0 -0.89147 0.0898722 -0.957874 0 0 -0.000346714 168.762 -139.541 125.842 0.0015 
303 1 1 -0.371009 -0.00769 -0.276612 0 0 0 -0.932948 -0.0197277 -0.930799 0 0 -0.000346714 96.2072 -653.206 -27.4599 0.0015 
170 1 1 -0.381329 -0.00271151 -0.27701 0 0 0 -1.07346 0.000297935 -0.923607 0 0 -0.00160516 -4.82873 -433.055 24.9808 0.0025 
277 1 1 -0.386337 -0.0268585 -0.273312 0 0 0 -1.28296 0.258399 -0.956054 0 0 -0.000346714 -265.187 -765.948 250.678 0.0015 
257 1 1 -0.384021 -0.0142916 -0.275652 0 0 0 -1.11278 0.0651872 -0.950885 0 0 -0.00160516 -53.8169 -357.23 75.6582 0.0025 
350 1 1 -0.377462 -0.011065 -0.273799 0 0 0 -1.1323 0.177802 -0.95676 0 0 -0.00160516 -104.978 -483.069 67.2552 0.0025 
323 1 1 -0.374895 0.00939288 -0.275319 0 0 0 -1.02998 0.0131417 -0.934138 0 0 -0.00160516 -4.88159 -448.51 -2.41291 0.0025 
390 1 1 -0.375998 -0.0238104 -0.270874 0 0 0 -1.30195 0.387075 -1.11072 0 0 -0.000346714 -266.547 -1023.17 -62.2383 0.0015 
291 1 1 -0.3849 -0.0174488 -0.270537 0 0 0 -1.29096 0.221328 -0.815673 0 0 -0.000346714 -197.966 -656.204 251.766 0.0015 
242 1 1 -0.380845 -0.00931147 -0.27139 0 0 0 -1.04064 0.104259 -0.78687 0 0 -0.000346714 -75.309 -591.385 67.6381 0.0015 
275 1 1 -0.370186 -0.00812153 -0.272119 0 0 0 -1.08071 0.107591 -0.91438 0 0 -0.000346714 -101.324 -786.506 49.8113 0.0015 
125 1 1 -0.368223 -0.00348601 -0.269416 0 0 0 -1.0767 0.0633814 -0.86016 0 0 -0.000346714 -44.9976 -776.377 -1.41193 0.0015 
220 1 1 -0.371882 0.0150915 -0.271123 0 0 0 -1.04407 -0.0275066 -0.976672 0 0 -0.00160516 -4.63245 -379.002 -101.609 0.0025 
264 1 1 -0.37666 0.023289 -0.271903 0 0 0 -1.19427 0.0406466 -0.933562 0 0 -0.000346714 101.853 -817.084 -311.517 0.0015 
327 1 1 -0.363846 0.00059957 -0.266689 0 0 0 -1.04841 0.119123 -0.822826 0 0 -0.000346714 -74.6471 -759.05 -26.7064 0.0015 
230 1 1 -0.365278 0.0113577 -0.266619 0 0 0 -1.13289 -0.0678747 -0.860382 0 0 -0.000346714 67.8075 -824.467 -43.4022 0.0015 
337 1 1 -0.371918 0.0170545 -0.264881 0 0 0 -1.25504 -0.0756442 -0.588118 0 0 -0.000346714 -9.93597 -637.522 -306.722 0.0015 
240 1 1 -0.365521 -0.00993611 -0.265055 0 0 0 -1.20438 0.177482 -0.858326 0 0 -0.000346714 -117.81 -878.802 -24.1288 0.0015 
248 1 1 -0.357553 0.00165307 -0.263607 0 0 0 -0.950919 0.180702 -0.81544 0 0 -0.000346714 -110.923 -361.481 194.746 0.0015 
343 1 1 -0.356398 -0.00667229 -0.260276 0 0 0 -1.08991 0.0222555 -0.751118 0 0 -0.000346714 -31.4121 -783.452 37.8496 0.0015 
302 1 1 -0.352807 0.00859798 -0.258856 0 0 0 -1.01807 0.0334354 -0.723989 0 0 -0.000346714 -54.6361 -743.275 70.2522 0.0015 
241 1 1 -0.36008 0.020991 -0.2613 0 0 0 -1.07831 -0.00936219 -0.791338 0 0 -0.000346714 -15.6061 -802.971 51.4179 0.0015 
356 1 1 -0.357045 0.0176832 -0.259158 0 0 0 -1.1626 -0.0126764 -0.779915 0 0 -0.000346714 36.4979 -841.994 -65.4061 0.0015 
227 1 1 -0.347468 -0.0119493 -0.254424 0 0 0 -0.979694 0.0386089 -0.674018 0 0 -0.000346714 -111.597 -695.685 62.2439 0.0015 
142 1 1 -0.353272 -0.00945797 -0.257353 0 0 0 -1.04583 0.00611226 -0.768048 0 0 -0.00160516 -55.8784 -433.06 -27.5699 0.0025 
297 1 1 -0.351367 -0.00494768 -0.256305 0 0 0 -1.07118 0.025485 -0.663147 0 0 -0.00160516 12.5466 -434.091 -11.8533 0.0025 
162 1 1 -0.345774 -0.00309637 -0.255254 0 0 0 -1.02206 0.0837683 -0.708795 0 0 -0.000346714 -129.435 -623.345 161.197 0.0015 
254 1 1 -0.348363 0.0033185 -0.256337 0 0 0 -0.990815 0.0106039 -0.679561 0 0 -0.000346714 9.51715 -716.54 -40.5685 0.0015 
313 1 1 -0.349704 0.0136291 -0.256222 0 0 0 -1.06304 -0.0430883 -0.739424 0 0 -0.000346714 -30.2268 -752.149 23.2262 0.0015 
393 1 1 -0.367797 -0.0497697 -0.251184 0 0 0 -1.31593 0.0442641 -0.863519 0 0 -0.000346714 -136.758 -884.306 309.158 0.0015 
146 1 1 -0.348617 -0.0220113 -0.253968 0 0 0 -0.895098 0.127603 -0.661471 0 0 -0.000346714 -115.447 -643.49 55.929 0.0015 
384 1 1 -0.344608 -0.0150809 -0.251988 0 0 0 -0.965859 0.0791716 -0.624971 0 0 -0.000346714 -107.676 -717.006 -0.409174 0.0015 
234 1 1 -0.344564 -0.0110866 -0.251468 0 0 0 -1.03975 0.109866 -0.611167 0 0 -0.00160516 -37.559 -427.469 26.818 0.0025 
406 1 1 -0.347472 -0.00899991 -0.253688 0 0 0 -1.05576 0.0796117 -0.735661 0 0 -0.000346714 185.75 -497.727 -5.45739 0.0015 
342 1 1 -0.343736 -0.00682038 -0.252326 0 0 0 -1.02573 0.0616374 -0.640831 0 0 -0.000346714 -149.445 -743.584 106.583 0.0015 
263 1 1 -0.343539 -0.0038808 -0.251707 0 0 0 -1.08053 0.080567 -0.581619 0 0 -0.000346714 42.9234 -720.863 -180.819 0.0015 
381 1 1 -0.340753 -0.00266539 -0.252669 0 0 0 -1.07079 -0.0241011 -0.710353 0 0 -0.000346714 -70.2283 166.492 -70.6154 0.0015 
318 1 1 -0.335877 -0.00296477 -0.250961 0 0 0 -0.924629 -0.006537 -0.689331 0 0 -0.000346714 42.9014 -204.632 91.2436 0.0015 
284 1 1 -0.345352 0.00106757 -0.253252 0 0 0 -1.00211 -0.0375895 -0.652443 0 0 -0.00160516 22.2115 -435.709 -13.7852 0.0025 
316 1 1 -0.348705 0.0159624 -0.254003 0 0 0 -1.11994 -0.0180026 -0.66934 0 0 -0.000346714 64.7908 -774.002 -147.916 0.0015 
361 1 1 -0.360936 0.0363432 -0.253683 0 0 0 -1.15682 -0.12469 -0.808024 0 0 -0.00160516 53.1964 -560.58 13.1249 0.0025 
423 1 1 -0.354602 -0.0353234 -0.250327 0 0 0 -1.12441 0.179185 -0.724973 0 0 -0.000346714 -221.768 -755.597 243.854 0.0015 
367 1 1 -0.344317 -0.0253652 -0.24914 0 0 0 -1.07867 0.23673 -0.682239 0 0 -0.000346714 -237.907 -748.841 165.515 0.0015 
292 1 1 -0.337719 -0.00654355 -0.248877 0 0 0 -1.09081 0.00665254 -0.582451 0 0 -0.000346714 18.9016 -790.098 -57.2001 0.0015 
308 1 1 -0.338885 0.000615039 -0.248042 0 0 0 -1.01831 -0.0150187 -0.573553 0 0 -0.00160516 10.6311 -370.246 2.07081 0.0025 
374 1 1 -0.339662 0.00624281 -0.250161 0 0 0 -0.856727 -0.0583314 -0.597513 0 0 -0.00160516 0.0871528 -147.447 -31.3329 0.0025 
255 1 1 -0.335981 0.00545874 -0.248684 0 0 0 -0.857492 0.0134788 -0.508707 0 0 -0.000346714 -32.4689 -607.15 88.1325 0.0015 
246 1 1 -0.336886 0.00969455 -0.247411 0 0 0 -0.952532 0.0291249 -0.518426 0 0 -0.00160516 -22.868 -403.019 8.07513 0.0025 
320 1 1 -0.335165 0.0147011 -0.247684 0 0 0 -0.980725 0.0957338 -0.563773 0 0 -0.000346714 -130.611 -741.905 96.6361 0.0015 
294 1 1 -0.337383 -0.0197478 -0.246816 0 0 0 -1.07269 0.0683177 -0.572852 0 0 -0.000346714 -27.3602 -793.48 -54.3081 0.0015 
231 1 1 -0.335684 -0.0138188 -0.246156 0 0 0 -1.00902 0.0981406 -0.550361 0 0 -0.00160516 -71.1398 -429.371 69.0448 0.0025 
336 1 1 -0.332957 -0.00915962 -0.245287 0 0 0 -1.06201 0.089456 -0.556481 0 0 -0.00160516 -63.1755 -428.029 4.64457 0.0025 
61 1 1 -0.32952 -0.00700054 -0.244551 0 0 0 -0.980779 0.0262165 -0.39182 0 0 -0.000346714 -57.1297 -642.019 -6.85315 0.0015 
285 1 1 -0.334334 -0.00314164 -0.246381 0 0 0 -1.0396 0.00962711 -0.549968 0 0 -0.00160516 -11.4505 -425.299 16.615 0.0025 
229 1 1 -0.327356 -0.000341495 -0.24431 0 0 0 -0.989994 -0.0373241 -0.469154 0 0 -0.000346714 33.3345 -714.915 -4.44825 0.0015 
353 1 1 -0.332692 0.000486046 -0.246905 0 0 0 -1.05791 0.0268209 -0.541998 0 0 -0.000346714 -46.5148 -770.74 57.5915 0.0015 
399 1 1 -0.33005 0.00327595 -0.244239 0 0 0 -1.19567 -0.0516594 -0.572659 0 0 -0.00160516 27.9409 -514.71 0.295695 0.0025 
331 1 1 -0.330509 0.00910215 -0.245351 0 0 0 -0.911546 -0.0163675 -0.476119 0 0 -0.000346714 39.6122 -657.463 -64.9009 0.0015 
330 1 1 -0.3277 0.00867779 -0.243925 0 0 0 -1.01966 0.010272 -0.483857 0 0 -0.000346714 -17.108 -741.4 21.9816 0.0015 
524 1 1 -0.33498 0.01981 -0.245758 0 0 0 -1.13433 -0.0985662 -0.598983 0 0 -0.000346714 183.127 -782.884 -261.246 0.0015 
301 1 1 -0.334253 0.0278946 -0.243371 0 0 0 -1.06247 0.0736182 -0.505935 0 0 -0.000346714 35.6289 -726.739 -223.249 0.0015 
328 1 1 -0.338942 0.0332038 -0.243719 0 0 0 -1.10912 -0.330733 -0.687037 0 0 -0.000346714 330.172 -771.887 -194.782 0.0015 
141 1 1 -0.327865 -0.0227181 -0.241682 0 0 0 -1.06731 -0.0409471 -0.466781 0 0 -0.000346714 82.8422 -806.273 -125.39 0.0015 
402 1 1 -0.323688 -0.0176677 -0.23978 0 0 0 -0.963148 -0.0175427 -0.384802 0 0 -0.00160516 -10.0982 -412.656 45.3525 0.0025 
357 1 1 -0.323067 -0.00662123 -0.241941 0 0 0 -0.914533 0.000287701 -0.380525 0 0 -0.000346714 -16.9359 -656.863 41.1165 0.0015 
391 1 1 -0.319745 -0.00698977 -0.240572 0 0 0 -0.873414 0.00691001 -0.352588 2.86505e-05 2.8859e-05 6.12633e-06 15.0187 -607.923 -53.8802 0.0015 
386 1 1 -0.325685 -0.0032978 -0.242128 0 0 0 -1.04133 -0.0669386 -0.462832 0 0 -0.00160516 35.9486 -428.906 -11.8807 0.0025 
366 1 1 -0.322463 0.00898279 -0.241114 0 0 0 -1.01022 -0.0671947 -0.540158 0 0 -0.000346714 53.2509 -616.885 -75.1294 0.0015 
365 1 1 -0.325599 0.0110586 -0.242793 0 0 0 -1.03247 0.0650835 -0.464598 0 0 -0.000346714 -45.0605 -748.934 -5.78052 0.0015 
317 1 1 -0.314975 -0.0174776 -0.237325 0 0 0 -1.10847 0.0411737 -0.488046 0 0 -0.000346714 -17.0467 -809.723 -26.9843 0.0015 
280 1 1 -0.31848 -0.015888 -0.239149 0 0 0 -0.971292 0.134813 -0.43073 -0.00228403 0.000951827 0.00380361 -135.412 -700.77 84.2166 0.0015 
267 1 1 -0.312157 -0.0143108 -0.236561 0 0 0 -0.945021 0.0438482 -0.396315 0 0 -0.000346714 -73.4501 -671.171 102.454 0.0015 
307 1 1 -0.318282 -0.011758 -0.239609 0 0 0 -1.0347 -0.00169076 -0.484712 0 0 -0.000346714 -13.0827 -745.147 36.3533 0.0015 
288 1 1 -0.310344 -0.0105078 -0.236347 0 0 0 -0.991343 0.0809914 -0.407361 -6.63904e-05 2.24741e-05 -8.12383e-05 -68.7609 -714.285 25.3438 0.0015 
319 1 1 -0.316277 -0.00923023 -0.239035 0 0 0 -0.984598 -0.0196242 -0.379026 6.08993e-05 -1.91211e-05 -0.000657083 2.42823 -703.972 30.7134 0.0015 
304 1 1 -0.317006 -0.00626691 -0.239513 0 0 0 -0.877085 0.0225708 -0.352705 -6.18496e-05 8.38339e-06 -0.000135177 -46.6552 -626.46 75.6638 0.0015 
273 1 1 -0.311501 0.000977599 -0.236349 0 0 0 -1.03991 0.0929893 -0.431814 -0.000448223 -6.7184e-05 -7.67684e-05 -36.9677 -451.895 -8.27505 0.0025 
354 1 1 -0.313779 0.00775376 -0.237966 0 0 0 -0.960803 -0.0291837 -0.406202 -8.78757e-05 -1.31118e-05 -3.91475e-05 9.70219 -698.192 27.2094 0.0015 
283 1 1 -0.32092 0.0149675 -0.23916 0 0 0 -1.16914 -0.0948991 -0.50756 -0.000396714 -0.000185221 -0.000198311 49.857 -511.716 -19.1677 0.0025 
429 1 1 -0.313811 0.0144238 -0.237391 0 0 0 -1.22087 -0.427702 -0.594693 -8.89169e-05 -4.17321e-05 -2.53716e-05 317.597 -895.48 -7.95627 0.0015 
368 1 1 -0.335912 -0.047558 -0.234986 0 0 0 -1.139 0.0851428 -0.537454 0 0 -0.000346714 -52.1039 -909.765 -27.9697 0.0015 
314 1 1 -0.307122 -0.0152272 -0.234415 0 0 0 -1.0628 0.0187399 -0.427523 -8.15171e-05 2.77552e-05 -4.39028e-05 -36.3969 -761.78 57.094 0.0015 
334 1 1 -0.308008 -0.00673162 -0.234695 0 0 0 -0.984955 0.0975895 -0.418779 -0.00040991 3.45282e-05 -0.000173637 -57.1363 -426.878 34.9063 0.0025 
377 1 1 -0.307194 -0.0019225 -0.235606 0 0 0 -0.858624 0.138199 -0.367283 1.90634e-05 -2.42025e-05 8.88676e-06 -11.013 -257.094 -3.08514 0.0015 
300 1 1 -0.304445 -0.00235178 -0.23443 0 0 0 -0.903008 0.112927 -0.38514 -8.86575e-05 7.31169e-06 -3.75753e-05 -107.336 -652.023 60.4825 0.0015 
345 1 1 -0.3038 0.00657882 -0.233836 0 0 0 -0.986445 -0.0614662 -0.42026 -8.82019e-05 -1.32534e-05 -3.85825e-05 117.155 -704.496 -171.952 0.0015 
335 1 1 -0.309325 0.0107519 -0.234818 0 0 0 -1.06302 -0.0626253 -0.452246 -0.000467793 -6.61141e-05 -2.99413e-05 16.092 -464.27 26.4942 0.0025 
388 1 1 -0.330737 -0.0458299 -0.232545 0 0 0 -1.02226 0.0213855 -0.407006 0 0 -0.00160516 -54.5804 -419.683 125.789 0.0025 
333 1 1 -0.307782 -0.028933 -0.230636 0 0 0 -1.10113 0.0878968 -0.450779 -0.000288003 0.000185033 -0.000503242 -64.7719 -469.579 66.9256 0.0025 
527 1 1 -0.298319 -0.0197497 -0.229476 0 0 0 -0.995949 0.0455149 -0.573398 0 0 -0.000346714 62.8695 36.1484 176.853 0.0015 
414 1 1 -0.300201 -0.01486 -0.230584 0 0 0 -0.994034 -0.00789642 -0.416761 -0.000405019 0.000105592 -0.000181959 14.9978 -436.804 -27.4959 0.0025 
459 1 1 -0.295136 -0.0171384 -0.229161 0 0 0 -0.819295 0.0880392 -0.389112 0 0 -0.000346714 -104.661 -568.951 108.103 0.0015 
421 1 1 -0.296783 -0.0092792 -0.230847 0 0 0 -0.808989 0.0237106 -0.342935 -8.76153e-05 2.26564e-05 -3.93266e-05 -32.4718 -584.418 36.1947 0.0015 
397 1 1 -0.293691 -0.00812084 -0.229672 0 0 0 -0.977625 0.0822564 -0.420254 -8.61811e-05 2.25292e-05 -3.6875e-05 -68.262 -708.789 20.072 0.0015 
408 1 1 -0.29215 -0.00137271 -0.229275 0 0 0 -1.0185 0.124266 -0.434186 -3.1333e-05 0.000134793 -1.90001e-05 -120.507 -716.911 6.31348 0.0015 
424 1 1 -0.298221 0.000175476 -0.230512 0 0 0 -0.699779 0.00761353 -0.26612 0 0 -0.00160516 6.43346 -281.418 -24.1412 0.0025 
449 1 1 -0.296584 0.0170212 -0.229697 0 0 0 -0.923762 0.097258 -0.3661 -8.50967e-05 -3.97537e-05 -4.3359e-05 21.9734 -634.618 -224.038 0.0015 
532 1 1 -0.304629 0.0261247 -0.230183 0 0 0 -1.32694 -0.217452 -0.604635 -0.00032386 -0.000175532 0.00202018 120.335 -574.828 -57.288 0.0025 
439 1 1 -0.296338 -0.0235173 -0.227291 0 0 0 -0.955068 0.0696534 -0.391365 -0.000328961 0.000180708 -0.000300796 -37.3097 -415.39 17.1172 0.0025 
488 1 1 -0.289611 -0.0194102 -0.226476 0 0 0 -0.8795 0.0789141 -0.382215 -8.35897e-05 3.81065e-05 -4.44993e-05 -111.412 -621.136 128.14 0.0015 
363 1 1 -0.292297 -0.0108347 -0.22879 0 0 0 -0.876654 0.170696 -0.387394 -8.74717e-05 2.26192e-05 -3.96496e-05 -174.754 -624.478 120.298 0.0015 
454 1 1 -0.289916 -0.0128074 -0.227574 0 0 0 -0.946677 0.0677799 -0.405591 -8.88908e-05 2.28945e-05 -3.75905e-05 -172.356 -656.659 292.513 0.0015 
407 1 1 -0.29094 -0.00812773 -0.228186 0 0 0 -0.976606 0.035013 -0.44537 0 0 -0.000346714 -28.7116 -642.281 -3.87579 0.0015 
419 1 1 -0.285918 -0.00980032 -0.22622 0 0 0 -1.0234 -0.0555455 -0.423835 -9.8122e-05 2.55746e-05 -1.65347e-05 43.6876 -745.021 -7.85016 0.0015 
467 1 1 -0.290563 -0.00499247 -0.228481 0 0 0 -0.786963 0.037466 -0.333514 2.05339e-05 4.22027e-05 9.80231e-06 -144.715 -163.225 67.2148 0.0015 
379 1 1 -0.290754 0.00131351 -0.228645 0 0 0 -0.980058 0.0903063 -0.457299 0 0 -0.000346714 -75.553 -680.27 -62.5037 0.0015 
326 1 1 -0.284578 0.00215191 -0.22601 0 0 0 -1.04665 0.0470464 -0.438074 -8.8123e-05 -1.34157e-05 -3.83862e-05 9.99687 -752.203 -104.667 0.0015 
298 1 1 -0.289431 0.00638666 -0.226701 0 0 0 -1.0011 -0.0105479 -0.423777 -0.000426612 -6.50721e-05 -0.000120863 -4.03245 -437.13 20.4415 0.0025 
352 1 1 -0.289156 0.0144975 -0.227091 0 0 0 -1.02463 -0.0173697 -0.433041 1.29555e-05 4.81525e-06 -0.00017867 64.9905 -727.499 -125.38 0.0015 
329 1 1 -0.289107 0.0195545 -0.226121 0 0 0 -1.0575 -0.0267348 -0.434832 -9.52232e-05 -4.09142e-05 -3.90675e-05 42.3196 -762.235 -56.2455 0.0015 
457 1 1 -0.299667 0.025833 -0.229262 0 0 0 -1.30558 -0.149754 -0.568314 0 0 -0.000346714 169.518 -927.41 -145.914 0.0015 
441 1 1 -0.316894 0.0420524 -0.229234 0 0 0 -1.15053 -0.089308 -0.482591 1.36962e-05 -8.89226e-07 -0.000789612 51.906 -532.691 -25.024 0.0025 
434 1 1 -0.294546 -0.0320041 -0.225241 0 0 0 -1.12637 -0.0547245 -0.455232 0 0 -0.000346714 -10.1598 -797.421 132.16 0.0015 
395 1 1 -0.286434 -0.0306622 -0.22245 0 0 0 -1.07008 -0.0160247 -0.406286 -0.000159686 0.000122293 7.61436e-05 -31.1307 -761.262 111.767 0.0015 
260 1 1 -0.295018 -0.0180844 -0.224492 0 0 0 -0.998951 -0.00735457 -0.262106 0 0 -0.00160516 52.7094 -108.427 33.845 0.0025 
436 1 1 -0.279937 -0.0134693 -0.223307 0 0 0 -0.990377 0.0560511 -0.422864 -9.00123e-05 2.32033e-05 -3.24355e-05 -24.6756 -724.401 -38.2487 0.0015 
340 1 1 -0.283892 -0.0054768 -0.22565 0 0 0 -0.987681 -0.0455022 -0.414959 -8.84988e-05 7.15943e-06 -3.75708e-05 39.206 -715.84 -14.8234 0.0015 
373 1 1 -0.279082 0.00230269 -0.222599 0 0 0 -0.987213 0.00365587 -0.418646 -0.000410544 -7.15683e-05 4.17225e-05 -3.73053 -430.312 5.29941 0.0025 
322 1 1 -0.284128 0.00809206 -0.224354 0 0 0 -0.996883 0.00108588 -0.422422 -0.000388447 -7.28027e-05 -4.38253e-05 -9.88789 -435.538 22.5697 0.0025 
389 1 1 -0.285607 0.0137869 -0.224627 0 0 0 -1.05582 -0.109892 -0.470668 0.000265304 -0.000819557 0.00424668 90.6857 -448.615 -98.9525 0.0025 
370 1 1 -0.280523 0.017838 -0.222817 0 0 0 -1.09024 -0.137733 -0.506464 0 0 -0.000346714 55.0182 -814.533 107.266 0.0015 
398 1 1 -0.27695 -0.00984167 -0.221299 0 0 0 -0.988778 0.149264 -0.438657 0 0 -0.00160516 -83.7781 -420.589 47.8892 0.0025 
394 1 1 -0.272854 -0.00925776 -0.22079 0 0 0 -0.931718 0.0202997 -0.391276 -0.000108429 2.73153e-05 -2.90569e-06 0.720479 -680.883 -36.9006 0.0015 
405 1 1 -0.268631 -0.0093122 -0.219013 0 0 0 -0.872713 -0.0756332 -0.355023 0 0 -0.000346714 66.48 -634.172 -26.8015 0.0015 
349 1 1 -0.277245 -0.00342995 -0.22183 0 0 0 -0.95622 0.174293 -0.41041 -0.00031795 2.78222e-05 -0.000297426 -85.9058 -414.918 23.9958 0.0025 
325 1 1 -0.272337 0.00911488 -0.220499 0 0 0 -0.906625 0.0249791 -0.378291 -0.000326274 -4.73131e-05 0.000584043 -2.73666 -654.219 -36.6637 0.0015 
270 1 1 -0.275291 -0.0255224 -0.218248 0 0 0 -0.784463 0.303205 -0.399611 -0.000279176 0.000773773 0.00382734 -207.414 -307.261 175.269 0.0025 
358 1 1 -0.266833 -0.0254776 -0.215816 0 0 0 -1.02351 0.158416 -0.45254 -0.000286066 0.000136738 0.000532976 -131.386 -742.107 36.5143 0.0015 
451 1 1 -0.268389 -0.00521406 -0.21803 0 0 0 -0.923101 -0.0510846 -0.443145 0.0234481 -0.00118762 0.0142022 0.629611 -287.319 64.3545 0.0025 