ITEM: TIMESTEP
39600
ITEM: NUMBER OF ATOMS
514
ITEM: BOX BOUNDS ff ff ff
-0.5 0.1
-0.2 0.2
-0.4 0.15
ITEM: ATOMS id type type x y z ix iy iz vx vy vz fx fy fz omegax omegay omegaz radius 
85 1 1 -0.356207 -0.0423331 -0.248662 0 0 0 -1.13812 0.392769 -0.919558 0 0 -0.000346714 -590.532 -294.61 698.542 0.0015 
47 1 1 -0.314582 0.0121048 -0.238031 0 0 0 -1.50132 -0.158069 -0.641807 -9.21992e-05 -1.3768e-05 -2.94879e-05 97.4582 -1090.89 40.6958 0.0015 
30 1 1 -0.302974 -0.0152618 -0.23167 0 0 0 -1.36966 0.0415803 -0.543192 -9.81205e-05 -1.33095e-05 -0.00143962 -34.0553 -588.318 41.2792 0.0025 
36 1 1 -0.292751 -0.0163998 -0.228354 0 0 0 -1.28642 0.092008 -0.554422 -8.68766e-05 3.9321e-05 -3.85127e-05 -85.2831 -935.763 42.5776 0.0015 
11 1 1 -0.292988 -0.0130231 -0.228843 0 0 0 -1.32208 0.102904 -0.567834 -0.000130445 3.60271e-05 8.46332e-05 -124 -949.005 116.808 0.0015 
2 1 1 -0.286719 0.00784749 -0.225462 0 0 0 -1.21978 0.0308944 -0.511357 -0.000353772 -5.15374e-05 -0.000339288 -17.1648 -531.208 8.78166 0.0025 
31 1 1 -0.29875 0.0296043 -0.227862 0 0 0 -1.3594 0.0332405 -0.558116 -0.000133608 -9.99357e-05 1.82496e-05 62.9474 -958.299 -210.359 0.0015 
4 1 1 -0.275683 -0.00989676 -0.220817 0 0 0 -1.21302 0.0130014 -0.508826 -0.000389627 0.000100793 -0.000207208 0.857747 -530.601 -15.6134 0.0025 
21 1 1 -0.265609 -0.00674239 -0.217881 0 0 0 -1.09391 -0.0110695 -0.459328 -0.000101014 9.77505e-06 6.07324e-06 59.4169 -796.737 -122.549 0.0015 
18 1 1 -0.27422 0.015739 -0.220507 0 0 0 -1.11009 0.0427064 -0.446621 -7.45474e-05 -2.96896e-05 -6.29734e-05 -69.6335 -824.087 94.2911 0.0015 
17 1 1 -0.277177 0.0253586 -0.220154 0 0 0 -1.1627 0.0695156 -0.463612 -8.266e-05 -3.25689e-05 -4.69287e-05 22.05 -818.244 -177.986 0.0015 
5 1 1 -0.271623 0.0259235 -0.21764 0 0 0 -1.07954 0.0585964 -0.444676 0 0 -0.000346714 -20.9407 -784.89 -57.8684 0.0015 
12 1 1 -0.275938 0.032949 -0.217366 0 0 0 -1.25533 0.0346067 -0.500276 0 0 -0.000346714 76.1253 -862.15 -251.754 0.0015 
38 1 1 -0.364496 0.0666661 -0.221431 0 0 0 -1.28232 -0.252842 -0.817007 0 0 -0.000346714 353.317 -1209.87 -459.629 0.0015 
20 1 1 -0.260113 0.0122533 -0.21516 0 0 0 -1.1019 0.0892734 -0.452278 -8.70932e-05 -3.13637e-05 -4.1577e-05 -54.0724 -801.744 -26.5145 0.0015 
24 1 1 -0.264832 0.0247998 -0.215157 0 0 0 -1.17004 0.0828112 -0.463855 -8.00836e-05 -5.16703e-05 -6.08132e-05 -28.0757 -849.818 -81.0098 0.0015 
8 1 1 -0.253251 0.00289144 -0.212747 0 0 0 -1.11589 -0.0115606 -0.475029 -8.58664e-05 -8.2753e-06 -4.97408e-05 61.6702 -804.205 -125.251 0.0015 
22 1 1 -0.250778 0.000689182 -0.211787 0 0 0 -1.10689 -0.0126191 -0.4722 -8.92391e-05 -9.04841e-06 -2.37473e-05 0.801136 -803.935 19.6795 0.0015 
6 1 1 -0.254579 0.00626043 -0.213161 0 0 0 -1.11208 0.0096834 -0.464551 -4.03442e-05 -2.96952e-06 -0.000159597 -47.2354 -808.709 96.0473 0.0015 
71 1 1 -0.251041 0.00755716 -0.211612 0 0 0 -1.06281 0.0464141 -0.456597 7.91116e-05 -4.98286e-06 2.6178e-05 -35.908 -769.548 5.42702 0.0015 
32 1 1 -0.251395 0.0108444 -0.211624 0 0 0 -1.09775 0.0487413 -0.462052 0 0 -0.000346714 -21.3928 -792.761 -33.2345 0.0015 
26 1 1 -0.262873 0.0311337 -0.211476 0 0 0 -1.2225 0.131717 -0.474476 0 0 -0.00160516 -72.6566 -553.825 32.7224 0.0025 
23 1 1 -0.248405 -0.0150988 -0.209663 0 0 0 -1.09538 0.010336 -0.443346 0 0 -0.000346714 8.16058 -721.233 36.3018 0.0015 
14 1 1 -0.245617 -0.0167189 -0.207126 0 0 0 -1.12569 -0.104235 -0.423028 0 0 -0.00160516 43.6255 -461.022 14.452 0.0025 
35 1 1 -0.246372 -0.0126386 -0.209255 0 0 0 -1.08053 -0.0162369 -0.440008 0 0 -0.000346714 -27.1461 -765.378 100.269 0.0015 
10 1 1 -0.239893 -0.00428006 -0.20715 0 0 0 -0.918883 -0.0386424 -0.380539 0 0 -0.000346714 -4.64915 -659.583 78.2418 0.0015 
57 1 1 -0.242798 0.00196182 -0.208363 0 0 0 -1.08321 0.12466 -0.552593 0.00604091 0.00511933 0.015057 -135.649 -755.284 40.1354 0.0015 
16 1 1 -0.24456 0.016866 -0.206817 0 0 0 -1.19005 -0.041832 -0.50441 0.000169604 6.56996e-05 -0.00186099 58.3091 -506.847 -95.2036 0.0025 
37 1 1 -0.251268 0.0267679 -0.208982 0 0 0 -1.15267 0.0841652 -0.456215 -7.39131e-05 -4.15713e-05 -0.000100205 -48.5144 -848.47 -34.6926 0.0015 
3 1 1 -0.255009 0.0319985 -0.208022 0 0 0 -1.19417 0.00317185 -0.496307 -0.0005962 -0.000380626 0.000186479 33.4677 -511.197 -83.7401 0.0025 
72 1 1 -0.301985 -0.0694991 -0.204065 0 0 0 -1.37319 0.0582184 -0.457414 0 0 -0.000346714 -171.533 -811.536 521.343 0.0015 
76 1 1 -0.232602 -0.00283821 -0.204161 0 0 0 -1.02892 0.102295 -0.434911 -8.7091e-05 1.62683e-05 -3.78135e-05 -79.333 -743.973 12.6994 0.0015 
75 1 1 -0.240655 0.0215998 -0.205617 0 0 0 -1.17784 -0.0743385 -0.497771 -9.11082e-05 -3.16126e-05 -2.44991e-05 34.4463 -864.285 47.6186 0.0015 
48 1 1 -0.260342 0.047624 -0.205638 0 0 0 -1.10175 0.0584606 -0.410012 -7.40029e-05 -7.57336e-05 -5.95729e-05 29.3122 -767.567 -188.208 0.0015 
51 1 1 -0.257459 0.0478898 -0.204397 0 0 0 -1.23362 0.0485145 -0.465927 -7.16099e-05 -7.33534e-05 -6.50047e-05 37.4246 -867.991 -189.47 0.0015 
52 1 1 -0.228364 -0.0177609 -0.200068 0 0 0 -1.00272 0.027859 -0.432777 -0.000536935 0.000116479 0.000138241 -36.4805 -433.242 56.6729 0.0025 
113 1 1 -0.225545 -0.010205 -0.200633 0 0 0 -1.05233 0.158695 -0.462465 9.3599e-06 -4.06446e-06 -0.000294603 -188.52 -749.697 171.048 0.0015 
56 1 1 -0.22213 0.00663226 -0.199507 0 0 0 -1.04407 -0.0314777 -0.43495 -8.79354e-05 -4.20805e-06 -3.64023e-05 0.856933 -755.444 52.6137 0.0015 
42 1 1 -0.228931 0.0167021 -0.200291 0 0 0 -1.13575 -0.173445 -0.492068 -0.000373764 -0.000115887 -0.000270972 93.0388 -490.018 -42.0096 0.0025 
79 1 1 -0.246989 -0.0465806 -0.199477 0 0 0 -1.25245 0.181645 -0.539502 -0.000453911 0.0007425 8.3264e-05 -120.631 -533.893 99.4411 0.0025 
138 1 1 -0.232931 -0.0338908 -0.199652 0 0 0 -1.33706 0.156168 -0.585686 -7.73346e-05 6.7173e-05 -5.3354e-05 -179.366 -954.482 154.969 0.0015 
41 1 1 -0.22281 -0.0226719 -0.196814 0 0 0 -0.958861 0.029094 -0.414922 0 0 -0.00160516 -42.4245 -406.839 72.6076 0.0025 
50 1 1 -0.221464 -0.0106375 -0.198843 0 0 0 -0.993706 0.044137 -0.418505 0 0 -0.000346714 -0.23555 -726.764 -76.1359 0.0015 
28 1 1 -0.220846 -0.00440084 -0.198072 0 0 0 -1.05078 0.148994 -0.44905 -0.000402834 8.86515e-05 -0.000174209 -85.7172 -452.32 50.5001 0.0025 
96 1 1 -0.219244 0.00886004 -0.198263 0 0 0 -1.06773 -0.0227807 -0.439367 9.34317e-06 2.30446e-06 -0.000209757 125.286 -662.853 -281.508 0.0015 
49 1 1 -0.220891 0.0133949 -0.198423 0 0 0 -1.02006 -0.000588419 -0.43528 -8.35564e-05 -2.36175e-05 -5.51841e-05 50.4134 -730.06 -117.141 0.0015 
55 1 1 -0.222587 0.0232116 -0.196763 0 0 0 -1.07914 0.106716 -0.434841 0 0 -0.00160516 -49.3579 -479.097 2.76277 0.0025 
60 1 1 -0.207327 -0.0103813 -0.192947 0 0 0 -1.01856 -0.0292024 -0.418967 0 0 -0.000346714 45.8582 -744.672 -59.2403 0.0015 
25 1 1 -0.209674 -0.00237295 -0.194367 0 0 0 -0.99498 0.078395 -0.42489 0 0 -0.000346714 -104.322 -721.087 110.979 0.0015 
19 1 1 -0.207961 0.0124063 -0.19308 0 0 0 -0.995618 -0.042131 -0.430135 -9.01445e-05 -2.29126e-05 -3.54562e-05 39.3152 -723.611 -20.1166 0.0015 
46 1 1 -0.215395 0.0214214 -0.195145 0 0 0 -1.03701 0.0432347 -0.423644 -8.64406e-05 -2.43231e-05 -3.84356e-05 -6.40065 -745.749 -60.439 0.0015 
78 1 1 -0.218408 0.0323237 -0.192886 0 0 0 -1.09523 0.0417643 -0.439283 -0.000302166 -0.000194718 -0.000240372 0.238048 -474.169 -45.3287 0.0025 
107 1 1 -0.207292 -0.023273 -0.190312 0 0 0 -1.10574 0.0315173 -0.458387 0 0 -0.00160516 -12.708 -489.215 -2.53909 0.0025 
87 1 1 -0.204419 -0.0199076 -0.190741 0 0 0 -0.867286 -0.0895546 -0.360572 2.16609e-05 3.31681e-05 5.29809e-06 37.3317 -347.184 70.4612 0.0015 
111 1 1 -0.199049 -0.0130305 -0.189244 0 0 0 -0.981575 0.00184397 -0.401666 -3.22004e-05 2.54264e-06 -0.00023471 -36.5853 -701.798 85.9173 0.0015 
39 1 1 -0.204331 -0.00826776 -0.190844 0 0 0 -1.0114 -0.0144597 -0.416893 -0.000399902 0.000101406 -0.000180125 14.4778 -442.267 -19.7812 0.0025 
81 1 1 -0.203197 -0.000278884 -0.191648 0 0 0 -0.851707 0.0708681 -0.365246 2.07381e-05 7.42553e-06 8.63885e-06 -41.5701 -471.628 -39.1536 0.0015 
40 1 1 -0.210025 0.0287682 -0.1902 0 0 0 -1.04422 0.0794134 -0.419351 0 0 -0.00160516 -48.0414 -469.101 28.7129 0.0025 
102 1 1 -0.204623 0.0295321 -0.188926 0 0 0 -1.0383 0.188893 -0.381096 -0.000130165 -6.8868e-05 4.69416e-05 -105.828 -745.542 -81.2182 0.0015 
1 1 1 -0.19635 -0.0149214 -0.186783 0 0 0 -0.966789 0.00636194 -0.427864 0.00046619 -0.000394059 0.000688844 -49.6903 -408.049 112.76 0.0025 
33 1 1 -0.190984 0.00907964 -0.186214 0 0 0 -0.884374 0.0155763 -0.376919 -8.65945e-05 -1.90829e-05 -4.48377e-05 26.3475 -635.709 -88.0924 0.0015 
69 1 1 -0.197612 0.0117946 -0.187989 0 0 0 -0.867602 0.17443 -0.373346 0 0 -0.000346714 -100.1 -556.501 -101.774 0.0015 
99 1 1 -0.195956 0.0221531 -0.186873 0 0 0 -0.862785 -0.0294979 -0.371763 2.22005e-05 -4.30982e-05 3.43854e-06 -12.8412 -201.059 -42.4305 0.0015 
43 1 1 -0.19925 0.0308406 -0.186422 0 0 0 -0.887071 0.19461 -0.334655 2.29076e-05 -4.21968e-05 2.62696e-05 -81.8238 -316.241 -245.805 0.0015 
174 1 1 -0.21059 -0.0513581 -0.184344 0 0 0 -1.22107 -0.222451 -0.36939 -0.00012641 0.000160306 1.64459e-06 51.9416 -809.708 315.507 0.0015 
53 1 1 -0.188298 0.000622205 -0.184291 0 0 0 -0.880921 -5.99136e-06 -0.378 -0.00156134 0.000115088 0.00263667 -6.44442 -383.374 15.1387 0.0025 
29 1 1 -0.189586 0.00549545 -0.184861 0 0 0 -0.915321 -0.0150371 -0.383789 -0.000237509 -0.000113697 0.00241435 21.6203 -397.55 -36.5215 0.0025 
88 1 1 -0.183508 0.00866109 -0.183085 0 0 0 -0.895167 -0.0772775 -0.377787 -3.54466e-05 -6.49615e-06 -0.000200235 60.7912 -647.456 -11.7512 0.0015 
70 1 1 -0.189267 0.011037 -0.184336 0 0 0 -0.866658 -0.0238771 -0.451008 0 0 -0.000346714 -35.0899 -552.753 -93.1963 0.0015 
64 1 1 -0.185704 0.0191214 -0.183033 0 0 0 -0.788805 0.180601 -0.220955 0 0 -0.000346714 -53.7685 -470.702 -173.697 0.0015 
34 1 1 -0.224533 0.0651886 -0.182277 0 0 0 -1.12259 -0.0663357 -0.453396 -0.000551901 -0.00117418 0.00118367 173.525 -745.967 -315.241 0.0015 
27 1 1 -0.179926 -0.0212972 -0.179192 0 0 0 -0.94497 -0.0811994 -0.384802 0 0 -0.00160516 40.0639 -409.473 -10.4285 0.0025 
98 1 1 -0.171971 -0.00999991 -0.17824 0 0 0 -0.876446 -0.109443 -0.365348 -8.83191e-05 1.73426e-05 -4.07035e-05 55.1162 -632.818 57.3462 0.0015 
108 1 1 -0.172389 0.00314744 -0.178557 0 0 0 -0.834491 0.0513628 -0.349659 0 0 -0.000346714 16.4642 -589.26 -125.838 0.0015 
44 1 1 -0.174712 0.00513338 -0.179637 0 0 0 -0.824986 0.00136356 -0.306635 0 0 -0.000346714 9.8926 -584.441 -31.5865 0.0015 
80 1 1 -0.176089 0.0109365 -0.178657 0 0 0 -0.722966 0.127122 -0.29652 -0.000418512 -8.40489e-05 -0.000160441 -40.425 -312.421 -35.3725 0.0025 
58 1 1 -0.178161 0.0146833 -0.180306 0 0 0 -0.851703 -0.0433478 -0.36572 -8.78158e-05 -1.76027e-05 -4.05742e-05 86.3786 -608.19 -129.08 0.0015 
82 1 1 -0.179043 0.0197367 -0.180226 0 0 0 -0.921715 0.0392635 -0.380826 -8.5671e-05 -1.81514e-05 -4.61055e-05 -112.571 -686.515 201.499 0.0015 
7 1 1 -0.217909 -0.0678782 -0.177945 0 0 0 -0.916813 0.297213 -0.523506 -5.78762e-06 4.00945e-06 -0.000315124 -349.437 -576.435 284.874 0.0015 
45 1 1 -0.212647 -0.0664705 -0.174342 0 0 0 -0.88159 0.0868543 -0.098323 0 0 -0.000346714 38.1207 -633.678 42.0881 0.0015 
114 1 1 -0.174157 -0.0325536 -0.17565 0 0 0 -1.00133 -0.06331 -0.418532 0 0 -0.000346714 -18.5894 -687.118 175.955 0.0015 
165 1 1 -0.178448 -0.0274889 -0.177691 0 0 0 -0.82847 -0.0879199 -0.354544 0 0 -0.000346714 61.7955 -517.884 64.5504 0.0015 
122 1 1 -0.167913 -0.0182393 -0.175733 0 0 0 -0.751936 -0.136855 -0.26943 -0.000152506 6.05789e-05 -4.68294e-05 105.173 -547.067 -12.0557 0.0015 
84 1 1 -0.169881 -0.013457 -0.177056 0 0 0 -0.765983 -0.116037 -0.318079 -5.05949e-05 1.03444e-05 -0.000116123 59.2662 -552.311 58.7784 0.0015 
63 1 1 -0.167113 -0.0132271 -0.175894 0 0 0 -0.901032 0.0847162 -0.380179 -8.71776e-05 1.60297e-05 -3.73892e-05 -90.6125 -646.876 70.6087 0.0015 
97 1 1 -0.163404 -0.0100186 -0.174601 0 0 0 -0.798297 0.033041 -0.333626 -8.7409e-05 1.60721e-05 -3.68708e-05 3.47009 -582.928 -66.034 0.0015 
104 1 1 -0.166791 -0.00598425 -0.175184 0 0 0 -0.875798 0.0251941 -0.361439 -0.000155475 6.88847e-06 -0.00072624 -30.9272 -378.346 48.6409 0.0025 
129 1 1 -0.182431 0.00604877 -0.176816 0 0 0 -1.09949 0.172798 -0.61091 0 0 -0.00160516 107.201 168.895 14.0063 0.0025 
152 1 1 -0.173587 0.00568759 -0.176888 0 0 0 -1.02462 0.069023 -0.173164 0 0 -0.000346714 -51.5387 -313.555 -58.3812 0.0015 
54 1 1 -0.169704 0.0104446 -0.176006 0 0 0 -0.636313 0.0357324 -0.262668 -0.000436038 -8.59127e-05 -0.000103071 -4.67335 -274.682 -26.0411 0.0025 
115 1 1 -0.181947 0.0115285 -0.177278 0 0 0 -1.08192 0.0327145 -0.57324 0 0 -0.000346714 80.5194 -117.211 96.8533 0.0015 
77 1 1 -0.174638 0.0158625 -0.17762 0 0 0 -0.868375 0.0543709 -0.361178 0.00221521 -4.32452e-05 -0.00595792 -24.4553 -378.342 1.04928 0.0025 
137 1 1 -0.172213 0.0212847 -0.177072 0 0 0 -0.966812 0.228743 -0.36314 -8.6787e-05 -3.98139e-05 -4.20867e-05 -157.872 -706.116 -24.4772 0.0015 
83 1 1 -0.165574 0.0186478 -0.174694 0 0 0 -0.823738 0.041503 -0.340418 -8.72731e-05 -1.72356e-05 -3.72187e-05 -41.1586 -599.267 26.5525 0.0015 
139 1 1 -0.17055 0.0280317 -0.175065 0 0 0 -0.861588 0.107698 -0.342252 -8.59144e-05 -3.94769e-05 -4.36878e-05 -110.882 -648.051 75.2103 0.0015 
171 1 1 -0.172164 -0.0347552 -0.174074 0 0 0 -1.00931 0.0478392 -0.582852 0 0 -0.000346714 47.7889 -733.208 -147.982 0.0015 
120 1 1 -0.185933 -0.00154938 -0.175921 0 0 0 -1.14649 0.0165933 -0.681637 0 0 -0.00160516 3.6808 -104.303 -67.8123 0.0025 
91 1 1 -0.161003 0.00219707 -0.172758 0 0 0 -0.852518 0.00581447 -0.366052 -0.000764387 1.01419e-06 0.000192653 17.454 -371.821 -46.1764 0.0025 
116 1 1 -0.159166 0.00729556 -0.171925 0 0 0 -0.775539 0.0171311 -0.312026 0 0 -0.00160516 -14.2483 -336.64 16.0075 0.0025 
105 1 1 -0.160565 -0.0269746 -0.170084 0 0 0 -1.01153 -0.0464165 -0.395359 0 0 -0.00160516 27.627 -447.511 -17.2446 0.0025 
66 1 1 -0.152294 -0.0213661 -0.167678 0 0 0 -0.818722 -0.0397641 -0.333863 -0.000433509 0.000128942 -7.81259e-05 -5.50663 -350.209 55.2212 0.0025 
128 1 1 -0.153269 -0.0129079 -0.170166 0 0 0 -0.796911 0.0603365 -0.333579 0 0 -0.000346714 -43.1974 -575.241 -0.681636 0.0015 
93 1 1 -0.151015 -0.00605089 -0.16851 0 0 0 -0.71079 -0.0855329 -0.303761 -0.000686551 0.000104885 0.00105769 29.1394 -310.139 18.6641 0.0025 
166 1 1 -0.153619 -0.000384406 -0.17076 0 0 0 -0.848271 -0.0819444 -0.34995 -8.53954e-05 -2.50897e-06 -4.08768e-05 75.9137 -611.363 -40.8451 0.0015 
133 1 1 -0.1667 0.00418737 -0.172631 0 0 0 -1.29168 -0.222154 -0.756667 0 0 -0.000346714 192.631 133.004 2.86758 0.0015 
103 1 1 -0.154639 0.00507081 -0.170019 0 0 0 -0.943646 -0.0116196 -0.381265 0 0 -0.00160516 1.75016 -405.642 7.7616 0.0025 
100 1 1 -0.149424 0.00828682 -0.16884 0 0 0 -0.765351 -0.0880681 -0.333783 -9.02662e-05 -5.09697e-06 -3.92548e-05 82.9533 -555.436 -43.6577 0.0015 
185 1 1 -0.146282 0.00936273 -0.167453 0 0 0 -0.741409 0.0481945 -0.318753 -0.000166418 -8.92367e-06 6.22147e-05 -60.5059 -540.538 58.7129 0.0015 
13 1 1 -0.154098 0.0113795 -0.169448 0 0 0 -0.730491 -0.0741167 -0.335743 0 0 -0.00160516 49.7484 -312.653 -42.5484 0.0025 
135 1 1 -0.153476 0.0197266 -0.169444 0 0 0 -0.855108 0.0353794 -0.365723 -9.74104e-05 -2.15268e-05 -3.77134e-05 16.6725 -614.101 -98.3154 0.0015 
140 1 1 -0.170715 0.0478011 -0.169676 0 0 0 -0.923174 -0.23067 -0.446257 -7.89501e-05 -6.2616e-05 -5.18862e-05 173.781 -692.032 -1.79094 0.0015 
74 1 1 -0.157751 -0.04697 -0.164762 0 0 0 -0.845896 -0.122033 -0.293507 0 0 -0.000346714 112.364 -645.496 -50.0133 0.0015 
65 1 1 -0.144927 -0.0101306 -0.16576 0 0 0 -0.652655 0.0451546 -0.272964 -0.000390882 4.65749e-05 -0.000212402 24.0821 -288.351 -105.178 0.0025 
95 1 1 -0.141467 -0.00661664 -0.165579 0 0 0 -0.599848 0.0591827 -0.256672 -0.00023954 3.89016e-05 0.000245603 -80.1626 -431.138 88.5497 0.0015 
163 1 1 -0.141374 -0.00203927 -0.165679 0 0 0 -0.697839 -0.00825157 -0.298486 -8.94915e-05 6.38351e-06 -3.85303e-05 59.509 -510.345 -125.019 0.0015 
164 1 1 -0.151903 0.000553463 -0.167463 0 0 0 -1.19376 0.0306965 -0.742332 0 0 -0.000346714 41.7044 52.1454 -131.335 0.0015 
167 1 1 -0.141475 0.00190008 -0.164534 0 0 0 -0.581614 -0.00174805 -0.239093 0.000116546 -0.000161037 4.15602e-05 22.2598 -30.1841 34.4498 0.0025 
110 1 1 -0.152814 0.00452262 -0.16591 0 0 0 -0.987906 -0.0551649 -0.377405 0 0 -0.000346714 40.23 473.959 -13.9929 0.0015 
172 1 1 -0.140961 0.0059729 -0.165248 0 0 0 -0.763836 -0.0487992 -0.315687 2.97587e-06 7.32282e-05 3.74716e-06 -2.08876 -523.712 42.8426 0.0015 
62 1 1 -0.141345 0.0150643 -0.164861 0 0 0 -0.842486 -0.0265466 -0.348848 -0.000181259 -5.27528e-05 0.000199191 25.7937 -609.77 -15.3586 0.0015 
121 1 1 -0.191004 -0.0750876 -0.162981 0 0 0 -0.886461 -0.138853 -0.226386 0 0 -0.000346714 138.239 -801.142 -40.0709 0.0015 
149 1 1 -0.147242 -0.0402774 -0.162584 0 0 0 -0.92442 -0.0433906 -0.347304 -0.000149651 9.2281e-05 -7.67429e-06 -39.7762 -632.908 184.4 0.0015 
112 1 1 -0.140127 -0.0343705 -0.161187 0 0 0 -0.87656 -0.0272573 -0.363532 -8.76748e-05 4.4872e-05 -5.39367e-05 -102.222 -582.705 289.811 0.0015 
117 1 1 -0.139793 -0.024308 -0.161973 0 0 0 -1.04645 -0.113708 -0.404677 -2.61097e-05 0.000680328 -0.000217005 -45.4687 -375.84 71.9018 0.0025 
15 1 1 -0.151719 -0.0119799 -0.164606 0 0 0 -0.769425 -0.0335983 -0.545828 0 0 -0.00160516 -14.4016 140.45 43.327 0.0025 
131 1 1 -0.135327 -0.0108271 -0.161673 0 0 0 -0.73382 0.0468273 -0.329591 0 0 -0.00160516 -12.5165 -319.102 -17.5178 0.0025 
127 1 1 -0.133352 -0.0073071 -0.162116 0 0 0 -0.794343 0.0324458 -0.330791 -8.66705e-05 4.90993e-06 -3.93176e-05 -25.4437 -573.77 4.82054 0.0015 
90 1 1 -0.134477 -0.00149326 -0.161655 0 0 0 -0.726343 -0.0103415 -0.318057 0.000223408 8.54702e-06 6.36214e-05 6.12764 -315.93 -3.83589 0.0025 
73 1 1 -0.135135 0.00430126 -0.162869 0 0 0 -0.738757 -0.139012 -0.272631 0 0 -0.000346714 114.053 -520.207 -35.0537 0.0015 
123 1 1 -0.129302 0.00607424 -0.160343 0 0 0 -0.56103 -0.000112606 -0.251058 0 0 -0.000346714 22.914 -403.063 -53.6118 0.0015 
158 1 1 -0.139191 0.00919336 -0.163221 0 0 0 -0.817094 0.0267284 -0.384693 0 0 -0.00160516 -0.432438 -328.961 -36.847 0.0025 
151 1 1 -0.134902 0.00706546 -0.161488 0 0 0 -0.875286 0.0229781 -0.378303 0 0 -0.000346714 -288.823 -239.477 -278.111 0.0015 
208 1 1 -0.133068 0.0109507 -0.160528 0 0 0 -0.708861 -0.21803 -0.320206 0 0 -0.00160516 93.3062 -211.239 54.3481 0.0025 
68 1 1 -0.136514 0.0173705 -0.16139 0 0 0 -0.791262 -0.0585189 -0.335006 0 0 -0.00160516 33.5166 -339.25 -21.8259 0.0025 
67 1 1 -0.141455 0.0341983 -0.160559 0 0 0 -0.684125 0.0629204 -0.288057 0 0 -0.00160516 -15.5664 -295.041 -30.747 0.0025 
173 1 1 -0.145083 0.0418874 -0.161093 0 0 0 -0.867361 0.0916022 -0.265554 0 0 -0.000346714 -55.2444 -577.081 -66.5685 0.0015 
199 1 1 -0.147802 0.0411196 -0.162228 0 0 0 -0.995341 0.295403 -0.262451 0 0 -0.000346714 -230.525 -517.528 -203.372 0.0015 
106 1 1 -0.140832 -0.0380892 -0.159532 0 0 0 -0.885984 -0.0250289 -0.356037 -0.000360973 0.000264501 -0.000362594 -8.15054 -384.568 47.4653 0.0025 
243 1 1 -0.135227 -0.0221321 -0.159067 0 0 0 -0.91126 -0.198499 -0.230002 0 0 -0.000346714 -411.693 -335.621 -56.366 0.0015 
183 1 1 -0.131302 -0.0167556 -0.159456 0 0 0 -0.627763 -0.0642236 -0.299257 0.0525576 -0.00402482 0.025195 74.3658 -17.5525 -63.4835 0.0025 
193 1 1 -0.125057 -0.0152121 -0.156716 0 0 0 -0.717171 0.023859 -0.324795 0 0 -0.00160516 -13.1121 -299.492 11.2977 0.0025 
159 1 1 -0.147286 -0.0121844 -0.157706 0 0 0 -0.890104 -0.18361 -0.0450378 0 0 -0.000346714 52.9769 -92.1889 -42.178 0.0015 
101 1 1 -0.126835 -0.00906718 -0.159267 0 0 0 -0.816586 0.103029 -0.363626 -0.000880809 -4.28064e-05 0.000860942 -42.2507 -585.552 -97.055 0.0015 
157 1 1 -0.12396 -0.0073888 -0.157062 0 0 0 -0.816945 0.073871 -0.337981 0.000986908 0.000886375 0.000595347 -12.8408 -356.017 -45.0152 0.0025 
153 1 1 -0.130768 -0.0015882 -0.157909 0 0 0 -0.719245 0.0659608 -0.130168 0 0 -0.000346714 -62.7238 -375.107 92.9789 0.0015 
203 1 1 -0.148695 -0.000928136 -0.163819 0 0 0 -1.00175 -0.236512 -0.977904 0 0 -0.000346714 231.67 -102.93 -70.3228 0.0015 
132 1 1 -0.129158 0.00177543 -0.159461 0 0 0 -0.598434 -0.0312748 -0.250146 0.000752082 7.46752e-05 0.00103353 -21.7429 -20.6776 -4.62699 0.0025 
178 1 1 -0.118911 0.0048605 -0.156083 0 0 0 -0.425458 0.00908436 -0.186409 0 0 -0.000346714 23.9027 -297.76 -70.6971 0.0015 
189 1 1 -0.123596 0.0126916 -0.157555 0 0 0 -0.562593 -0.0871016 -0.236332 -8.71204e-05 -1.3703e-05 -3.51192e-05 84.4871 -402.916 -52.6274 0.0015 
92 1 1 -0.135898 0.0312409 -0.158953 0 0 0 -0.737405 -0.0257477 -0.302274 -0.000378832 -0.000212386 -0.000194779 31.2036 -313.881 -49.3774 0.0025 
161 1 1 -0.131429 0.0324459 -0.157988 0 0 0 -0.692166 0.0126023 -0.280868 -0.000542198 -0.000145056 0.000910889 -1.2785 -505.501 -19.0234 0.0015 
130 1 1 -0.142466 0.0451509 -0.157985 0 0 0 -0.791466 -0.0483043 -0.327588 -9.38551e-05 -7.41583e-05 -0.000889958 57.7726 -325.822 -91.6646 0.0025 
94 1 1 -0.154118 0.052099 -0.160351 0 0 0 -0.798341 -0.128755 -0.376309 -0.000341689 -0.000367416 -0.000295645 94.335 -333.918 -85.881 0.0025 
89 1 1 -0.148963 0.0571447 -0.157121 0 0 0 -0.763976 0.0530864 -0.240652 0 0 -0.000346714 -23.9936 -538.849 -85.7011 0.0015 
177 1 1 -0.124518 -0.0316604 -0.155282 0 0 0 -0.65755 -0.0503055 -0.264758 -8.11539e-05 4.06604e-05 -3.64045e-05 40.0342 -486.67 -7.3595 0.0015 
198 1 1 -0.122507 -0.0218584 -0.156145 0 0 0 -0.838115 -0.000829864 -0.352946 -8.70628e-05 2.89596e-05 -4.06289e-05 20.7292 -618.33 -47.7763 0.0015 
150 1 1 -0.121699 -0.0110023 -0.156941 0 0 0 -0.885167 0.0373858 -0.37374 -7.81576e-05 1.28081e-05 -6.38988e-05 -120.005 -626.117 221.468 0.0015 
197 1 1 -0.123151 -0.00502031 -0.153849 0 0 0 -0.927056 0.0779742 -0.240952 0 0 -0.000346714 -5.61321 348.521 -104.595 0.0015 
59 1 1 -0.116355 -0.00426337 -0.154941 0 0 0 -0.480228 -0.040742 -0.260477 0 0 -0.000346714 84.8369 -328.339 -131.151 0.0015 
187 1 1 -0.133385 -0.00320944 -0.153838 0 0 0 -1.07012 -0.142016 -0.443687 0 0 -0.000346714 129.443 63.5394 -60.436 0.0015 
144 1 1 -0.120831 -0.00027182 -0.155887 0 0 0 -0.615482 -0.00739517 -0.26353 -0.000389808 4.03339e-06 -0.000236817 -32.4565 -267.638 83.2781 0.0025 
155 1 1 -0.11593 0.00339522 -0.15381 0 0 0 -0.610378 0.101882 -0.256897 -0.000387407 -3.3268e-07 -0.000210747 -33.8997 -265.075 -24.5915 0.0025 
190 1 1 -0.119928 0.00660332 -0.152214 0 0 0 -0.875815 0.0930227 0.113073 0 0 -0.000346714 -145.792 -229.42 -108.788 0.0015 
119 1 1 -0.119738 0.0109569 -0.155008 0 0 0 -0.694478 -0.103363 -0.288069 0.000212618 0.00014741 0.0017624 65.1598 -288.166 -55.0174 0.0025 
202 1 1 -0.116136 0.0121319 -0.153027 0 0 0 -0.760155 -0.0567997 -0.126383 0 0 -0.000346714 15.5486 -179.604 97.7702 0.0015 
148 1 1 -0.116778 0.0209037 -0.153864 0 0 0 -0.78496 -0.0361288 -0.333083 -8.62934e-05 -3.1471e-05 -4.08021e-05 -24.9221 -591.619 122.904 0.0015 
136 1 1 -0.122314 0.0296601 -0.154865 0 0 0 -0.817182 0.035246 -0.326338 -2.96451e-05 -1.80634e-05 -0.000167154 33.2981 -568.749 -144.721 0.0015 
143 1 1 -0.118286 -0.0311003 -0.151716 0 0 0 -0.668011 -0.0282965 -0.273096 -0.000392231 0.000199917 -0.000207384 -40.8179 -268.164 127.628 0.0025 
221 1 1 -0.115597 -0.0267319 -0.151345 0 0 0 -0.781814 -0.370957 -0.369865 0 0 -0.00160516 146.767 -318.219 50.9999 0.0025 
205 1 1 -0.110126 -0.0145496 -0.151642 0 0 0 -0.718947 -0.041535 -0.244847 0 0 -0.000346714 82.3866 -449.266 -109.947 0.0015 
191 1 1 -0.108196 -0.0109805 -0.151255 0 0 0 -0.781202 -0.0139586 -0.326894 -8.72522e-05 1.3583e-05 -3.95065e-05 -34.5689 -559.156 106.489 0.0015 
211 1 1 -0.11831 -0.00690686 -0.152393 0 0 0 -0.662297 -0.300884 -0.560437 0 0 -0.000346714 118.503 -107.282 9.68922 0.0015 
168 1 1 -0.110614 -0.00367624 -0.150942 0 0 0 -0.761527 -0.104006 -0.532916 0 0 -0.00160516 -72.1759 -136.575 37.4752 0.0025 
180 1 1 -0.110499 0.00180335 -0.151498 0 0 0 -0.579667 0.00754093 -0.23136 0 0 -0.00160516 32.8571 -248.109 -85.1517 0.0025 
192 1 1 -0.113289 0.0111593 -0.152535 0 0 0 -0.603943 0.141373 -0.22295 0 0 -0.000346714 -83.5583 -359.755 -28.299 0.0015 
276 1 1 -0.109002 0.0093585 -0.151286 0 0 0 -1.08287 -0.221798 -0.503926 0 0 -0.000346714 154.191 -513.08 55.4862 0.0015 
204 1 1 -0.142214 0.025595 -0.149426 0 0 0 -0.965384 0.198399 -0.228995 0 0 -0.000346714 -335.15 193.462 -73.885 0.0015 
210 1 1 -0.11112 0.0223175 -0.150196 0 0 0 -0.882462 -0.138369 -0.389283 -0.000419744 -0.00015296 -0.00014544 90.5585 -375.612 -71.7685 0.0025 
181 1 1 -0.104768 -0.0267475 -0.146957 0 0 0 -0.623933 0.0645182 -0.269177 -0.000398129 0.000127222 -0.000191179 -59.5055 -262.702 74.9692 0.0025 
126 1 1 -0.102528 -0.022265 -0.147709 0 0 0 -0.645798 0.112808 -0.28472 -8.66791e-05 2.76881e-05 -4.00003e-05 -175.749 -440.432 224.13 0.0015 
206 1 1 -0.103044 -0.016841 -0.147558 0 0 0 -0.730981 0.120058 -0.321476 -0.000446323 0.000143246 -6.91838e-05 -67.5391 -314.773 36.0037 0.0025 
218 1 1 -0.0983373 -0.0137463 -0.146905 0 0 0 -0.671487 -0.144123 -0.287339 0 0 -0.000346714 75.0492 -475.006 73.0515 0.0015 
145 1 1 -0.0986897 -0.00700761 -0.1464 0 0 0 -0.587931 -0.151406 -0.239372 -0.000332051 4.9349e-05 -0.000356684 70.1765 -256.568 -9.95265 0.0025 
232 1 1 -0.105686 -0.00320649 -0.14944 0 0 0 -0.629003 -0.0758852 -0.67375 0 0 -0.00160516 47.071 137.668 -10.7453 0.0025 
216 1 1 -0.101856 -0.000586278 -0.148843 0 0 0 -0.589974 0.0103618 -0.19016 0 0 -0.000346714 -5.4494 -407.551 -5.93449 0.0015 
175 1 1 -0.124107 0.00783514 -0.150447 0 0 0 -1.0036 0.165109 -0.521292 0 0 -0.000346714 -237.833 175.776 -43.6529 0.0015 
196 1 1 -0.121333 0.00556343 -0.145989 0 0 0 -1.0178 0.170216 -0.308428 0 0 -0.00160516 -93.486 16.3306 -11.465 0.0025 
201 1 1 -0.100415 0.00512875 -0.147196 0 0 0 -0.703789 0.0561987 -0.253854 0 0 -0.000346714 -8.91836 -462.994 -27.3379 0.0015 
228 1 1 -0.0958677 0.00549718 -0.146368 0 0 0 -0.75496 0.0766095 -0.325984 0 0 -0.000346714 25.0152 -540.596 -189.907 0.0015 
245 1 1 -0.101155 0.00995388 -0.147151 0 0 0 -0.449635 0.304704 -0.276668 0 0 -0.00160516 -121.548 -164.221 4.29425 0.0025 
212 1 1 -0.105817 0.0161356 -0.149842 0 0 0 -0.849173 0.00337766 -0.357135 0 0 -0.000346714 86.5503 -597.166 -213.614 0.0015 
179 1 1 -0.156953 -0.0848456 -0.143425 0 0 0 -0.861203 -0.162793 -0.153158 -6.47522e-05 0.000159029 -0.000111127 75.3629 -603.988 217.077 0.0015 
194 1 1 -0.13281 -0.0721496 -0.142094 0 0 0 -0.778062 -0.209642 -0.168306 -0.000289311 0.000457372 -0.000369369 29.2352 -265.009 194.942 0.0025 
214 1 1 -0.0954528 -0.0280168 -0.143297 0 0 0 -0.914578 -0.0936322 -0.446495 0 0 -0.000346714 135.81 -564.594 -37.5581 0.0015 
188 1 1 -0.0926151 -0.0210374 -0.143698 0 0 0 -0.707277 0.126606 -0.317848 1.66555e-05 -2.73558e-06 -0.000303272 -45.3534 -529.026 -110.636 0.0015 
226 1 1 -0.0964555 -0.0146951 -0.144562 0 0 0 -0.608537 -0.0556843 -0.241477 0 0 -0.000346714 25.124 -301.121 -34.3927 0.0015 
147 1 1 -0.0919397 -0.0109938 -0.144405 0 0 0 -0.50893 0.0215625 -0.214292 0 0 -0.000346714 -50.1037 -350.216 51.2859 0.0015 
223 1 1 -0.0916963 -0.00768009 -0.142729 0 0 0 -0.633895 0.0762256 -0.162108 0 0 -0.000346714 -113.898 -356.6 -49.046 0.0015 
169 1 1 -0.150118 -0.00507246 -0.143724 0 0 0 -0.840969 -0.00189137 -0.248288 0 0 -0.00160516 -36.2028 196.873 12.8413 0.0025 
109 1 1 -0.0930882 -0.00397667 -0.145295 0 0 0 -0.62445 -0.0748995 -0.26282 -8.82944e-05 -2.56338e-06 -3.70638e-05 43.8608 -451.999 24.601 0.0015 
124 1 1 -0.10521 0.00133875 -0.143573 0 0 0 -0.47733 -0.013153 -0.0434308 0 0 -0.000346714 -174.468 262.879 48.2984 0.0015 
244 1 1 -0.0918377 0.01317 -0.143094 0 0 0 -0.711909 -0.0118528 -0.299131 -0.000475283 -9.45152e-05 2.94282e-06 -0.722154 -311.037 14.1153 0.0025 
233 1 1 -0.121613 -0.0209 -0.14113 0 0 0 -1.0814 -0.225602 -0.609152 0 0 -0.00160516 -38.5355 75.952 -11.6802 0.0025 
225 1 1 -0.105835 -0.011513 -0.142104 0 0 0 -0.68806 -0.263028 -0.658691 0 0 -0.000346714 -258.462 -68.373 186.58 0.0015 
251 1 1 -0.0848826 -0.0044417 -0.141713 0 0 0 -0.601219 -0.0150377 -0.228463 0 0 -0.000346714 3.17654 -391.46 70.467 0.0015 
195 1 1 -0.0818281 -0.00651655 -0.1393 0 0 0 -0.702436 -0.0158018 -0.293704 -0.000471864 5.9707e-05 -1.44536e-05 -17.9662 -302.17 59.2697 0.0025 
182 1 1 -0.115923 -0.00292012 -0.142049 0 0 0 -0.948885 -0.0175628 -0.285723 0 0 -0.00160516 47.3578 268.415 4.57205 0.0025 
207 1 1 -0.102895 -0.00351833 -0.144179 0 0 0 -0.700782 -0.0474338 -0.687695 0 0 -0.00160516 -10.2815 -101.265 34.2183 0.0025 
118 1 1 -0.0884476 -0.00260157 -0.142249 0 0 0 -0.631959 -0.0205924 -0.264431 4.03809e-05 -0.000118818 -0.000782022 7.20436 -267.62 9.36715 0.0025 
217 1 1 -0.0889248 0.00302828 -0.140691 0 0 0 -0.757957 3.09338e-05 -0.410887 0 0 -0.000346714 26.4178 -406.955 -73.7642 0.0015 
242 1 1 -0.0841564 -3.67158e-05 -0.141501 0 0 0 -0.596169 -0.0220902 -0.250553 -0.00010467 -3.09139e-06 2.74339e-06 -7.35803 -432.026 55.651 0.0015 
224 1 1 -0.0943211 0.00835575 -0.143581 0 0 0 -0.924737 0.00896411 -0.589804 0 0 -0.000346714 1.58098 -193.09 97.1135 0.0015 
160 1 1 -0.0829645 0.0103611 -0.140683 0 0 0 -0.521036 0.0259578 -0.215419 -8.74894e-05 -1.85684e-05 -3.82053e-05 21.7655 -369.304 -97.1452 0.0015 
215 1 1 -0.08657 0.0167356 -0.141581 0 0 0 -0.579997 0.00590662 -0.387855 0 0 -0.000346714 -108.033 -312.843 -47.1002 0.0015 
235 1 1 -0.0815087 0.0175199 -0.139466 0 0 0 -0.607058 -0.0712117 -0.236235 -0.00251005 -0.000376113 0.00575271 -17.9488 -462.838 123.759 0.0015 
134 1 1 -0.0890728 0.0404607 -0.138518 0 0 0 -0.420959 0.0562761 -0.160766 -6.86031e-05 -3.91361e-05 -8.56089e-05 4.16536 -284.623 -110.467 0.0015 
9 1 1 -0.120986 0.0671878 -0.141694 0 0 0 -0.560493 -0.167865 -0.307959 -6.40852e-05 -9.58379e-05 -7.87073e-05 135.36 -452.966 0.546831 0.0015 
219 1 1 -0.0844324 -0.0340645 -0.136997 0 0 0 -0.714523 -0.0526188 -0.285799 -0.000391347 0.000188593 -0.00020226 -11.2285 -298.283 82.9897 0.0025 
176 1 1 -0.0744356 -0.0139696 -0.136893 0 0 0 -0.569929 0.0511302 -0.245753 -6.70553e-05 5.20187e-06 -6.41292e-05 2.04717 -418.236 -92.1697 0.0015 