ITEM: TIMESTEP
14000
ITEM: NUMBER OF ATOMS
179
ITEM: BOX BOUNDS ff ff ff
-0.5 0.1
-0.2 0.2
-0.4 0.15
ITEM: ATOMS id type type x y z ix iy iz vx vy vz fx fy fz omegax omegay omegaz radius 
21 1 1 -0.0428028 -0.0167322 -0.116571 0 0 0 -0.750346 0.180126 0.145957 0 0 -0.000346714 -93.3386 -388.818 -8.97324e-15 0.0015 
20 1 1 -0.0402502 -0.00402616 -0.117619 0 0 0 -0.735117 0.048297 0.216508 0 0 -0.000346714 -24.7329 -376.454 2.87063e-14 0.0015 
4 1 1 -0.0426053 0.0123473 -0.12058 0 0 0 -0.641407 -0.372694 -0.401024 0 0 -0.00160516 1.45592 -174.382 -27.7536 0.0025 
10 1 1 -0.0424564 -0.00781427 -0.113117 0 0 0 -0.730942 0.0480227 0.0994223 0 0 -0.000346714 -24.4869 -372.71 -5.48927e-14 0.0015 
2 1 1 -0.0532608 -0.00477077 -0.114798 0 0 0 -0.737266 0.0484382 0.0706924 0 0 -0.00160516 -14.8336 -225.779 -6.37285e-15 0.0025 
17 1 1 -0.0382571 -0.00033323 -0.113388 0 0 0 -0.755732 0.0214702 0.116081 0 0 -0.000346714 -10.9755 -386.329 2.70716e-15 0.0015 
12 1 1 -0.0305387 -0.00326157 -0.117024 0 0 0 -0.765248 -0.0892293 -0.130199 0 0 -0.000346714 91.1675 -518.11 10.2559 0.0015 
6 1 1 -0.0415287 0.0114356 -0.11267 0 0 0 -0.729676 -0.109972 0.104822 0 0 -0.000346714 55.6535 -369.268 6.21219e-14 0.0015 
18 1 1 -0.0465797 0.0298437 -0.114969 0 0 0 -0.761856 -0.0901797 -0.07782 0 0 -0.000346714 109.333 -325.067 83.3711 0.0015 
1 1 1 -0.0200797 -0.0192422 -0.112363 0 0 0 -0.487195 0.297087 -0.238953 0 0 -0.00160516 -117.26 -212.062 -27.6833 0.0025 
24 1 1 -0.0346335 -0.0170435 -0.110352 0 0 0 -0.740387 0.234009 -0.0620961 0 0 -0.000346714 53.5445 -226.738 38.1963 0.0015 
19 1 1 -0.0248559 -0.00440267 -0.109039 0 0 0 -0.747665 0.00118421 -0.0262888 0 0 -0.000346714 3.2142 -416.132 -16.8128 0.0015 
29 1 1 -0.0241906 0.001787 -0.115007 0 0 0 -0.102909 0.329167 0.00915795 0 0 -0.00160516 -204.049 347.277 -93.0298 0.0025 
5 1 1 -0.0328386 0.0107521 -0.119117 0 0 0 -0.739681 0.0955725 -0.0787017 0 0 -0.000346714 -64.7239 -473.802 -26.7444 0.0015 
16 1 1 -0.0183713 0.00916377 -0.112424 0 0 0 -0.632352 -0.0983105 -0.268424 -0.000373495 -7.69345e-05 -0.000215008 57.3182 -271.514 -35.6432 0.0025 
23 1 1 -0.0252774 0.02017 -0.114443 0 0 0 -0.770949 -0.238651 -0.221173 0 0 -0.000346714 136.334 -512.554 67.7459 0.0015 
11 1 1 -0.0455723 0.0270533 -0.112951 0 0 0 -0.746853 -0.229155 -0.0427605 0 0 -0.000346714 157.283 -192.671 339.666 0.0015 
9 1 1 -0.0347946 0.0315334 -0.112004 0 0 0 -0.271633 0.311388 -0.141845 0 0 -0.000346714 -498.293 489.454 44.1913 0.0015 
8 1 1 -0.0246425 -0.0209243 -0.114713 0 0 0 -0.809413 0.212428 -0.0980131 0 0 -0.000346714 -142.629 -517.4 12.32 0.0015 
22 1 1 -0.0238738 -0.0167289 -0.104466 0 0 0 -0.721152 0.128851 0.091778 0 0 -0.000346714 -65.0767 -364.221 8.43618e-14 0.0015 
37 1 1 -0.0193167 -0.0104034 -0.111028 0 0 0 -0.727982 0.151647 -0.0419614 0 0 -0.000346714 -91.909 -438.919 -4.95487 0.0015 
32 1 1 -0.0325725 0.000975518 -0.117238 0 0 0 -0.756912 0.0215037 0.238363 0 0 -0.000346714 -11.0748 -389.824 7.37302e-16 0.0015 
3 1 1 -0.0290478 0.00572141 -0.108375 0 0 0 -0.5769 -0.136102 -0.084803 0 0 -0.00160516 -54.9621 -280.54 -28.5973 0.0025 
38 1 1 -0.0348363 0.0158433 -0.119352 0 0 0 -1.13531 0.557518 -0.138334 0 0 -0.000346714 -340.631 -726.294 -186.258 0.0015 
25 1 1 -0.0250337 0.00739957 -0.105329 0 0 0 -0.712017 -0.14627 0.0684923 0 0 -0.000346714 75.024 -365.204 2.19495e-14 0.0015 
34 1 1 -0.0180068 0.0223 -0.111109 0 0 0 -0.117574 -0.0191284 0.178871 0 0 -0.000346714 -12.1264 -12.3597 28.203 0.0015 
35 1 1 -0.0226216 0.0259658 -0.107265 0 0 0 -0.724691 -0.263333 0.146463 0 0 -0.000346714 134.406 -369.885 5.85273e-14 0.0015 
26 1 1 -0.0269786 -0.0311647 -0.111117 0 0 0 -0.72059 0.297164 -0.0021862 0 0 -0.00160516 -105.302 -255.327 -0.0941047 0.0025 
28 1 1 -0.0195295 -0.0318584 -0.110341 0 0 0 -0.457973 0.00264528 -0.311099 -0.0397122 0.094666 0.127597 -5.99367 -218.213 25.6397 0.0025 
36 1 1 -0.0310003 -0.0266162 -0.113587 0 0 0 -0.723767 -0.147522 -1.03031 0 0 -0.000346714 166.783 -7.57041 106.264 0.0015 
27 1 1 -0.00770717 0.00752646 -0.103954 0 0 0 -0.582489 0.0421349 0.0364595 0 0 -0.00160516 -14.6422 -185.987 -24.1692 0.0025 
13 1 1 -0.0109535 0.0122189 -0.108984 0 0 0 -0.0974282 0.0739958 0.0694711 0 0 -0.00160516 -27.7796 -19.2631 -21.4538 0.0025 
14 1 1 -0.019842 0.0157553 -0.1035 0 0 0 -0.732633 -0.171112 0.0859592 0 0 -0.00160516 53.1334 -227.496 5.06761e-14 0.0025 
33 1 1 -0.0235514 -0.0266821 -0.111882 0 0 0 -0.730053 0.300591 0.209083 0 0 -0.000346714 -154.437 -375.085 -1.92508e-13 0.0015 
15 1 1 -0.0103422 -0.0259576 -0.106402 0 0 0 0.197424 0.199692 -0.59867 0 0 -0.00160516 7.29266 -312.875 32.4147 0.0025 
7 1 1 -0.0260892 -0.0414526 -0.0978361 0 0 0 -0.714072 -0.386294 -0.0995313 0 0 -0.000346714 377.106 230.021 159.168 0.0015 
30 1 1 -0.0234266 -0.0266897 -0.107577 0 0 0 -1.05478 0.414737 -0.693559 0 0 -0.00160516 -18.1396 -126.094 -5.01755 0.0025 
31 1 1 -0.0296796 -0.0203729 -0.116856 0 0 0 0.0237716 -0.0675381 -1.90838 0 0 -0.000346714 138.884 140.625 38.1963 0.0015 
45 1 1 -0.0110906 0.0291323 -0.107506 0 0 0 -0.701351 -0.269297 0.247607 0 0 -0.000346714 139.494 -363.296 8.48337e-14 0.0015 
40 1 1 -0.00348698 -0.0211897 -0.104194 0 0 0 -0.713952 0.262107 0.227714 0 0 -0.00160516 -81.4948 -221.983 -4.47958e-14 0.0025 
39 1 1 -0.0159102 0.00235532 -0.11069 0 0 0 0 0 -2.03785 0 0 -0.00160516 0 0 0 0.0025 
44 1 1 -0.022228 0.00485213 -0.109986 0 0 0 0 0 -2.03442 0 0 -0.000346714 0 0 0 0.0015 
48 1 1 -0.022804 -0.0315502 -0.100703 0 0 0 0 0 -1.98919 0 0 -0.000346714 0 0 0 0.0015 
46 1 1 -0.0105626 -0.0145818 -0.10176 0 0 0 0 0 -1.99439 0 0 -0.000346714 0 0 0 0.0015 
50 1 1 -0.0279742 -1.04943e-05 -0.10344 0 0 0 0 0 -2.00263 0 0 -0.000346714 0 0 0 0.0015 
47 1 1 -0.0218847 0.0256262 -0.103061 0 0 0 0 0 -2.00077 0 0 -0.000346714 0 0 0 0.0015 
42 1 1 -0.0160508 0.0304724 -0.102421 0 0 0 0 0 -1.99763 0 0 -0.00160516 0 0 0 0.0025 
51 1 1 -0.0175025 -0.0121213 -0.0994714 0 0 0 0 0 -1.98311 0 0 -0.000346714 0 0 0 0.0015 
49 1 1 -0.0312011 0.00531382 -0.0971203 0 0 0 0 0 -1.97144 0 0 -0.000346714 0 0 0 0.0015 
43 1 1 -0.0196938 0.0042356 -0.0969607 0 0 0 0 0 -1.97065 0 0 -0.000346714 0 0 0 0.0015 
41 1 1 -0.0294843 -0.0347245 -0.0943492 0 0 0 0 0 -1.9576 0 0 -0.00160516 0 0 0 0.0025 
52 1 1 -0.0302313 -0.00571197 -0.0936072 0 0 0 0 0 -1.95388 0 0 -0.00160516 0 0 0 0.0025 
54 1 1 -0.0046838 0.0252416 -0.0932748 0 0 0 0 0 -1.95221 0 0 -0.00160516 0 0 0 0.0025 
56 1 1 -0.0221544 -0.0176068 -0.0898961 0 0 0 0 0 -1.93514 0 0 -0.000346714 0 0 0 0.0015 
62 1 1 -0.0131635 0.0258143 -0.0905381 0 0 0 0 0 -1.93838 0 0 -0.000346714 0 0 0 0.0015 
58 1 1 -0.00481478 0.0323336 -0.0928251 0 0 0 0 0 -1.94995 0 0 -0.000346714 0 0 0 0.0015 
53 1 1 -0.00163565 -0.0222313 -0.0886597 0 0 0 0 0 -1.92886 0 0 -0.00160516 0 0 0 0.0025 
59 1 1 -0.00206763 -0.0165007 -0.0866188 0 0 0 0 0 -1.91846 0 0 -0.000346714 0 0 0 0.0015 
60 1 1 -0.0250204 0.00245318 -0.0866034 0 0 0 0 0 -1.91836 0 0 -0.000346714 0 0 0 0.0015 
57 1 1 -0.0185443 0.0109203 -0.0893203 0 0 0 0 0 -1.9322 0 0 -0.000346714 0 0 0 0.0015 
55 1 1 -0.0188291 -0.0247488 -0.0803257 0 0 0 0 0 -1.88599 0 0 -0.00160516 0 0 0 0.0025 
63 1 1 -0.0205837 -0.0117427 -0.0804214 0 0 0 0 0 -1.88648 0 0 -0.000346714 0 0 0 0.0015 
64 1 1 -0.00322644 0.00785004 -0.0820809 0 0 0 0 0 -1.89511 0 0 -0.000346714 0 0 0 0.0015 
73 1 1 -0.00317446 -0.00307391 -0.0752097 0 0 0 0 0 -1.85921 0 0 -0.000346714 0 0 0 0.0015 
61 1 1 -0.0136213 0.0102173 -0.0783652 0 0 0 0 0 -1.87579 0 0 -0.000346714 0 0 0 0.0015 
68 1 1 -0.0183282 0.020832 -0.0739293 0 0 0 0 0 -1.85244 0 0 -0.00160516 0 0 0 0.0025 
67 1 1 -0.0086291 0.0212435 -0.0719915 0 0 0 0 0 -1.84214 0 0 -0.00160516 0 0 0 0.0025 
69 1 1 -0.00331379 0.000112052 -0.0666037 0 0 0 0 0 -1.8132 0 0 -0.000346714 0 0 0 0.0015 
74 1 1 -0.0313469 0.00594264 -0.0648664 0 0 0 0 0 -1.80378 0 0 -0.000346714 0 0 0 0.0015 
70 1 1 -0.0161255 0.0259916 -0.0667094 0 0 0 0 0 -1.81379 0 0 -0.000346714 0 0 0 0.0015 
66 1 1 -0.0113639 -0.028821 -0.0601732 0 0 0 0 0 -1.77808 0 0 -0.00160516 0 0 0 0.0025 
71 1 1 -0.0132118 -0.0142448 -0.0609574 0 0 0 0 0 -1.7824 0 0 -0.000346714 0 0 0 0.0015 
76 1 1 -0.0101315 -0.00307891 -0.0631339 0 0 0 0 0 -1.79436 0 0 -0.000346714 0 0 0 0.0015 
65 1 1 -0.021885 0.00637934 -0.0618433 0 0 0 0 0 -1.7873 0 0 -0.00160516 0 0 0 0.0025 
72 1 1 -0.0339596 0.0247152 -0.0599805 0 0 0 0 0 -1.777 0 0 -0.000346714 0 0 0 0.0015 
75 1 1 -0.0222205 0.0252752 -0.0613968 0 0 0 0 0 -1.78485 0 0 -0.000346714 0 0 0 0.0015 
79 1 1 -0.016039 -0.0311912 -0.0527931 0 0 0 0 0 -1.73688 0 0 -0.00160516 0 0 0 0.0025 
81 1 1 -0.0138041 0.00231809 -0.054529 0 0 0 0 0 -1.74669 0 0 -0.000346714 0 0 0 0.0015 
88 1 1 -0.0246928 0.0149576 -0.056176 0 0 0 0 0 -1.75591 0 0 -0.000346714 0 0 0 0.0015 
77 1 1 -0.00512449 0.0194276 -0.0551607 0 0 0 0 0 -1.75022 0 0 -0.00160516 0 0 0 0.0025 
78 1 1 -0.0338446 -0.00790771 -0.0514585 0 0 0 0 0 -1.72932 0 0 -0.00160516 0 0 0 0.0025 
83 1 1 -0.006758 -0.00933802 -0.0522016 0 0 0 0 0 -1.73354 0 0 -0.000346714 0 0 0 0.0015 
85 1 1 -0.0261342 0.0289343 -0.0500116 0 0 0 0 0 -1.72108 0 0 -0.000346714 0 0 0 0.0015 
89 1 1 -0.0166674 -0.0133665 -0.0472362 0 0 0 0 0 -1.70519 0 0 -0.000346714 0 0 0 0.0015 
84 1 1 -0.0307162 0.0123479 -0.0485493 0 0 0 0 0 -1.71275 0 0 -0.000346714 0 0 0 0.0015 
80 1 1 -0.0153514 -0.0285466 -0.0415725 0 0 0 0 0 -1.67233 0 0 -0.00160516 0 0 0 0.0025 
87 1 1 -0.0216846 0.010562 -0.0433883 0 0 0 0 0 -1.68292 0 0 -0.000346714 0 0 0 0.0015 
82 1 1 -0.011833 0.030812 -0.0431207 0 0 0 0 0 -1.68135 0 0 -0.000346714 0 0 0 0.0015 
86 1 1 -0.0266174 0.0340944 -0.0416218 0 0 0 0 0 -1.67262 0 0 -0.000346714 0 0 0 0.0015 
102 1 1 -0.0267621 -0.0316048 -0.0410249 0 0 0 0 0 -1.66909 0 0 -0.000346714 0 0 0 0.0015 
100 1 1 -0.0135716 -0.0190259 -0.0342983 0 0 0 0 0 -1.62907 0 0 -0.000346714 0 0 0 0.0015 
95 1 1 -0.016986 -0.00213434 -0.037475 0 0 0 0 0 -1.6481 0 0 -0.000346714 0 0 0 0.0015 
98 1 1 -0.0294235 0.0177987 -0.0348343 0 0 0 0 0 -1.6323 0 0 -0.000346714 0 0 0 0.0015 
94 1 1 -0.0329725 0.0296342 -0.0360137 0 0 0 0 0 -1.63937 0 0 -0.00160516 0 0 0 0.0025 
97 1 1 -0.020149 -0.0334448 -0.0324466 0 0 0 0 0 -1.61788 0 0 -0.000346714 0 0 0 0.0015 
91 1 1 -0.0292811 0.00645928 -0.0316976 0 0 0 0 0 -1.61337 0 0 -0.00160516 0 0 0 0.0025 
92 1 1 -0.0333375 0.0110949 -0.0322691 0 0 0 0 0 -1.6168 0 0 -0.00160516 0 0 0 0.0025 
90 1 1 -0.0143727 0.015853 -0.0304152 0 0 0 0 0 -1.60552 0 0 -0.00160516 0 0 0 0.0025 
99 1 1 -0.00439906 0.0240922 -0.0312465 0 0 0 0 0 -1.61062 0 0 -0.000346714 0 0 0 0.0015 
101 1 1 -0.00739645 -0.0185545 -0.02775 0 0 0 0 0 -1.58914 0 0 -0.000346714 0 0 0 0.0015 
93 1 1 -0.0265909 0.0159092 -0.0275076 0 0 0 0 0 -1.58767 0 0 -0.00160516 0 0 0 0.0025 
96 1 1 -0.0159897 0.0274334 -0.0274279 0 0 0 0 0 -1.58718 0 0 -0.000346714 0 0 0 0.0015 
113 1 1 -0.0275469 -0.0163611 -0.0241117 0 0 0 0 0 -1.56658 0 0 -0.000346714 0 0 0 0.0015 
114 1 1 -0.0102956 -0.00169209 -0.0245204 0 0 0 0 0 -1.56913 0 0 -0.000346714 0 0 0 0.0015 
115 1 1 -0.0161861 -0.026381 -0.0209433 0 0 0 0 0 -1.54656 0 0 -0.000346714 0 0 0 0.0015 
105 1 1 -0.00301846 -0.0111451 -0.0201815 0 0 0 0 0 -1.54176 0 0 -0.00160516 0 0 0 0.0025 
107 1 1 -0.0273253 -0.00441029 -0.0192482 0 0 0 0 0 -1.53577 0 0 -0.00160516 0 0 0 0.0025 
106 1 1 -0.00205293 -0.0206571 -0.0171546 0 0 0 0 0 -1.52233 0 0 -0.00160516 0 0 0 0.0025 
112 1 1 -0.0112712 -0.00229192 -0.0171775 0 0 0 0 0 -1.52253 0 0 -0.000346714 0 0 0 0.0015 
110 1 1 -0.0135333 0.000602269 -0.0181923 0 0 0 0 0 -1.529 0 0 -0.000346714 0 0 0 0.0015 
103 1 1 -0.00791609 0.00384723 -0.0181866 0 0 0 0 0 -1.529 0 0 -0.00160516 0 0 0 0.0025 
104 1 1 -0.0192779 0.00722911 -0.0162825 0 0 0 0 0 -1.51674 0 0 -0.00160516 0 0 0 0.0025 
109 1 1 -2.29018e-06 0.0149512 -0.0175191 0 0 0 0 0 -1.52469 0 0 -0.000346714 0 0 0 0.0015 
111 1 1 -0.0318002 -0.0148599 -0.0147725 0 0 0 0 0 -1.50693 0 0 -0.000346714 0 0 0 0.0015 
108 1 1 -0.0322225 0.032442 -0.0132896 0 0 0 0 0 -1.49722 0 0 -0.000346714 0 0 0 0.0015 
120 1 1 -0.0125785 -0.0210623 -0.00460823 0 0 0 0 0 -1.43924 0 0 -0.00160516 0 0 0 0.0025 
123 1 1 -0.0125841 -0.0111545 -0.00698032 0 0 0 0 0 -1.45533 0 0 -0.000346714 0 0 0 0.0015 
125 1 1 -0.00679321 -0.00388229 -0.00585394 0 0 0 0 0 -1.44768 0 0 -0.000346714 0 0 0 0.0015 
126 1 1 -0.0148309 -0.0333609 -0.000662793 0 0 0 0 0 -1.41207 0 0 -0.000346714 0 0 0 0.0015 
122 1 1 -0.0191843 -0.0162196 -0.00313235 0 0 0 0 0 -1.42914 0 0 -0.000346714 0 0 0 0.0015 
117 1 1 -0.0143544 -0.00143019 -0.00367546 0 0 0 0 0 -1.43287 0 0 -0.00160516 0 0 0 0.0025 
121 1 1 -0.0290047 0.00352617 -0.000900356 0 0 0 0 0 -1.41374 0 0 -0.000346714 0 0 0 0.0015 
127 1 1 -0.0227292 -0.0112057 0.00107064 0 0 0 0 0 -1.4 0 0 -0.000346714 0 0 0 0.0015 
128 1 1 -0.0208061 0.000145103 0.00111042 0 0 0 0 0 -1.39971 0 0 -0.000346714 0 0 0 0.0015 
116 1 1 -0.0158354 0.0147935 0.000413456 0 0 0 0 0 -1.40461 0 0 -0.00160516 0 0 0 0.0025 
124 1 1 -0.0114065 0.0295451 0.00155544 0 0 0 0 0 -1.39657 0 0 -0.000346714 0 0 0 0.0015 
138 1 1 -0.0188235 -0.0335238 0.0046357 0 0 0 0 0 -1.37479 0 0 -0.000346714 0 0 0 0.0015 
118 1 1 -0.00193271 -0.0127941 0.00523838 0 0 0 0 0 -1.37047 0 0 -0.00160516 0 0 0 0.0025 
119 1 1 -0.00304704 0.0316877 0.00432119 0 0 0 0 0 -1.37705 0 0 -0.00160516 0 0 0 0.0025 
131 1 1 -0.0142543 -0.0235946 0.00971111 0 0 0 0 0 -1.3381 0 0 -0.00160516 0 0 0 0.0025 
132 1 1 -0.010147 0.00134815 0.00880006 0 0 0 0 0 -1.34477 0 0 -0.00160516 0 0 0 0.0025 
139 1 1 -0.00401145 0.0125644 0.00762089 0 0 0 0 0 -1.35331 0 0 -0.000346714 0 0 0 0.0015 
130 1 1 -0.0316516 0.0258079 0.0110276 0 0 0 0 0 -1.32839 0 0 -0.00160516 0 0 0 0.0025 
133 1 1 -0.0167258 0.0295222 0.00759855 0 0 0 0 0 -1.3535 0 0 -0.000346714 0 0 0 0.0015 
140 1 1 -0.0309894 0.0333632 0.0108153 0 0 0 0 0 -1.32996 0 0 -0.000346714 0 0 0 0.0015 
137 1 1 -0.0331578 -0.0315972 0.0130922 0 0 0 0 0 -1.31309 0 0 -0.000346714 0 0 0 0.0015 
136 1 1 -0.0156127 0.0122027 0.0131154 0 0 0 0 0 -1.31289 0 0 -0.000346714 0 0 0 0.0015 
135 1 1 -0.00584464 0.0229092 0.014635 0 0 0 0 0 -1.30151 0 0 -0.000346714 0 0 0 0.0015 
149 1 1 -0.0237179 -0.0143876 0.0177143 0 0 0 0 0 -1.27806 0 0 -0.000346714 0 0 0 0.0015 
129 1 1 -0.0150343 -0.00254225 0.0161901 0 0 0 0 0 -1.28974 0 0 -0.00160516 0 0 0 0.0025 
141 1 1 -0.00445669 0.0136763 0.0156958 0 0 0 0 0 -1.29347 0 0 -0.000346714 0 0 0 0.0015 
134 1 1 -0.021642 0.0141125 0.0150905 0 0 0 0 0 -1.29808 0 0 -0.000346714 0 0 0 0.0015 
153 1 1 -0.00430721 -0.0251385 0.0208813 0 0 0 0 0 -1.25354 0 0 -0.000346714 0 0 0 0.0015 
152 1 1 -0.0189158 0.00679958 0.0224253 0 0 0 0 0 -1.24138 0 0 -0.000346714 0 0 0 0.0015 
143 1 1 -0.0076982 0.0115519 0.0209459 0 0 0 0 0 -1.25305 0 0 -0.00160516 0 0 0 0.0025 
148 1 1 -0.00630817 0.0207644 0.0224377 0 0 0 0 0 -1.24128 0 0 -0.000346714 0 0 0 0.0015 
151 1 1 -0.00353112 0.0264703 0.0220186 0 0 0 0 0 -1.24461 0 0 -0.000346714 0 0 0 0.0015 
142 1 1 -0.00618246 -0.0245765 0.0255933 0 0 0 0 0 -1.21607 0 0 -0.00160516 0 0 0 0.0025 
146 1 1 -0.0337656 -0.0129184 0.0226755 0 0 0 0 0 -1.23941 0 0 -0.000346714 0 0 0 0.0015 
144 1 1 -0.0192798 0.00186917 0.0260088 0 0 0 0 0 -1.21273 0 0 -0.00160516 0 0 0 0.0025 
147 1 1 -0.0152079 -0.0157693 0.029173 0 0 0 0 0 -1.18683 0 0 -0.000346714 0 0 0 0.0015 
154 1 1 -0.00679915 -0.012878 0.0293967 0 0 0 0 0 -1.18497 0 0 -0.000346714 0 0 0 0.0015 
150 1 1 -0.00623706 -0.0058896 0.0289812 0 0 0 0 0 -1.1884 0 0 -0.000346714 0 0 0 0.0015 
155 1 1 -0.0214963 -0.0266191 0.0316278 0 0 0 0 0 -1.16643 0 0 -0.00160516 0 0 0 0.0025 
145 1 1 -0.00240788 0.00422687 0.0305118 0 0 0 0 0 -1.17575 0 0 -0.00160516 0 0 0 0.0025 
163 1 1 -0.0251386 0.0339743 0.0323088 0 0 0 0 0 -1.16064 0 0 -0.000346714 0 0 0 0.0015 
165 1 1 -0.0326006 -0.0344541 0.0363938 0 0 0 0 0 -1.12562 0 0 -0.000346714 0 0 0 0.0015 
160 1 1 -0.023692 -0.0114622 0.0349535 0 0 0 0 0 -1.13808 0 0 -0.000346714 0 0 0 0.0015 
157 1 1 -0.00372425 -0.00768845 0.0369602 0 0 0 0 0 -1.12061 0 0 -0.00160516 0 0 0 0.0025 
159 1 1 -0.0229207 0.0293808 0.0357257 0 0 0 0 0 -1.1314 0 0 -0.000346714 0 0 0 0.0015 
158 1 1 -0.0239437 -0.00737998 0.0383339 0 0 0 0 0 -1.10855 0 0 -0.00160516 0 0 0 0.0025 
173 1 1 -0.0280772 0.00199937 0.0413457 0 0 0 0 0 -1.08157 0 0 -0.000346714 0 0 0 0.0015 
162 1 1 -0.00596878 0.00110293 0.03862 0 0 0 0 0 -1.106 0 0 -0.000346714 0 0 0 0.0015 
164 1 1 -0.0186593 0.0101406 0.0411419 0 0 0 0 0 -1.08343 0 0 -0.000346714 0 0 0 0.0015 
166 1 1 -0.0334498 0.0192376 0.0399337 0 0 0 0 0 -1.09432 0 0 -0.000346714 0 0 0 0.0015 
161 1 1 -0.0310811 0.0209557 0.0377896 0 0 0 0 0 -1.11335 0 0 -0.000346714 0 0 0 0.0015 
156 1 1 -0.0192512 0.0203811 0.0408504 0 0 0 0 0 -1.08608 0 0 -0.00160516 0 0 0 0.0025 
172 1 1 -0.0233162 -0.0257488 0.0430343 0 0 0 0 0 -1.06617 0 0 -0.000346714 0 0 0 0.0015 
175 1 1 -0.00243205 -0.0275788 0.0426517 0 0 0 0 0 -1.0697 0 0 -0.000346714 0 0 0 0.0015 
176 1 1 -0.0260626 -0.0145959 0.0418765 0 0 0 0 0 -1.07676 0 0 -0.000346714 0 0 0 0.0015 
178 1 1 -0.0228627 0.00282045 0.0447881 0 0 0 0 0 -1.04988 0 0 -0.000346714 0 0 0 0.0015 
168 1 1 -0.0175477 0.0137467 0.0439086 0 0 0 0 0 -1.05803 0 0 -0.00160516 0 0 0 0.0025 
170 1 1 -0.000114354 0.021065 0.0442594 0 0 0 0 0 -1.05479 0 0 -0.00160516 0 0 0 0.0025 
179 1 1 -0.0322154 -0.0246784 0.0477597 0 0 0 0 0 -1.02173 0 0 -0.000346714 0 0 0 0.0015 
177 1 1 -0.01426 -0.0150654 0.0485109 0 0 0 0 0 -1.01447 0 0 -0.000346714 0 0 0 0.0015 
171 1 1 -0.0180071 -0.0127461 0.0458348 0 0 0 0 0 -1.04007 0 0 -0.000346714 0 0 0 0.0015 
167 1 1 -0.0273571 -0.0103215 0.0481296 0 0 0 0 0 -1.0182 0 0 -0.00160516 0 0 0 0.0025 
169 1 1 -0.0234861 -0.0194352 0.0523227 0 0 0 -0 0 -1 0 0 0 0 0 0 0.0025 
174 1 1 -0.0341304 -0.00318577 0.0492895 0 0 0 0 0 -1.00692 0 0 -0.000346714 0 0 0 0.0015 
