ITEM: TIMESTEP
69200
ITEM: NUMBER OF ATOMS
797
ITEM: BOX BOUNDS ff ff ff
-0.5 0.1
-0.2 0.2
-0.4 0.15
ITEM: ATOMS id type type x y z ix iy iz vx vy vz fx fy fz omegax omegay omegaz radius 
891 1 1 -0.034281 0.0210612 0.0581859 0 0 0 -0 0 -1 0 0 0 0 0 0 0.0015 
885 1 1 -0.0080272 0.0132344 0.0570411 0 0 0 -0 0 -1 0 0 0 0 0 0 0.0025 
886 1 1 -0.0343098 0.0280673 0.0594819 0 0 0 -0 0 -1 0 0 0 0 0 0 0.0025 
80 1 1 -0.47742 0.0144676 -0.397833 0 0 0 -1.12165 -0.029336 -1.82654 0 0 -0.00160516 25.5936 -489.149 -30.692 0.0025 
164 1 1 -0.451403 -0.0337969 -0.395536 0 0 0 -0.89004 -0.162454 -1.77412 0 0 -0.000346714 163.798 49.1603 -85.2408 0.0015 
166 1 1 -0.483159 -0.00345563 -0.393731 0 0 0 -1.19907 0.00578169 -1.79062 0 0 -0.000346714 0.512656 -855.694 -8.72509 0.0015 
63 1 1 -0.472173 0.00595263 -0.394993 0 0 0 -1.10933 0.035983 -1.79526 0 0 -0.000346714 9.74113 -799.623 -84.2586 0.0015 
149 1 1 -0.483548 -0.0193771 -0.391129 0 0 0 -1.20059 0.0745144 -1.80252 0 0 -0.000346714 -89.3031 -861.97 98.2465 0.0015 
74 1 1 -0.480419 -0.00184259 -0.386771 0 0 0 -1.19736 0.266259 -1.79673 0 0 -0.000346714 -179.356 -904.898 -38.5655 0.0015 
83 1 1 -0.469383 0.0246237 -0.387048 0 0 0 -1.10116 0.00492353 -1.76295 0 0 -0.000346714 -12.1613 -813.412 18.5196 0.0015 
66 1 1 -0.487436 -0.00242168 -0.384082 0 0 0 -1.28537 0.0777282 -1.74445 0 0 -0.00160516 87.1001 -437.028 198.78 0.0025 
116 1 1 -0.47073 -0.0119025 -0.378908 0 0 0 -1.17487 -0.0751396 -1.71275 0 0 -0.00160516 38.9938 -497.86 4.88896 0.0025 
133 1 1 -0.448368 -0.0455124 -0.375751 0 0 0 -0.88396 -0.0592736 -1.68657 0 0 -0.000346714 -9.68419 -615.26 140.855 0.0015 
62 1 1 -0.470744 0.00623079 -0.376367 0 0 0 -1.22943 -0.0560851 -1.71155 0 0 -0.000346714 58.0721 -895.93 -40.99 0.0015 
179 1 1 -0.450847 0.00974486 -0.378329 0 0 0 -1.07154 0.538975 -1.86552 0 0 -0.000346714 -521.433 -757.262 213.055 0.0015 
100 1 1 -0.468716 -0.0191142 -0.371871 0 0 0 -1.21133 -0.0835917 -1.67168 0 0 -0.000346714 77.6811 -875.877 -41.6933 0.0015 
106 1 1 -0.488876 -0.00692952 -0.372766 0 0 0 -1.30373 0.0810737 -1.64911 0 0 -0.00160516 -21.3255 -529.621 87.5652 0.0025 
185 1 1 -0.459363 -0.00615818 -0.372899 0 0 0 -1.13494 -0.0682258 -1.69381 0 0 -0.000346714 38.1454 -732.308 86.7896 0.0015 
94 1 1 -0.476067 -0.00984459 -0.369712 0 0 0 -1.17995 -0.0823339 -1.58862 0 0 -0.00160516 23.4741 -455.182 -153.871 0.0025 
128 1 1 -0.460458 -0.00858316 -0.369149 0 0 0 -1.14817 -0.0638436 -1.63667 0 0 -0.000346714 11.9702 -723.931 26.743 0.0015 
203 1 1 -0.451134 -0.0174427 -0.368131 0 0 0 -1.02773 -0.162521 -1.68249 0 0 -0.000346714 -32.8074 -744.114 -97.5735 0.0015 
54 1 1 -0.454371 0.00305484 -0.367416 0 0 0 -1.09805 -0.0500744 -1.6461 0 0 -0.00160516 39.2195 -475.791 -40.5462 0.0025 
158 1 1 -0.46201 -0.0095826 -0.364231 0 0 0 -1.18623 -0.0522831 -1.66176 0 0 -0.00160516 10.2226 -483.236 40.6446 0.0025 
89 1 1 -0.449513 -0.00887459 -0.36201 0 0 0 -1.13108 -0.342886 -1.65954 0 0 -0.000346714 292.773 -820.8 -86.9371 0.0015 
93 1 1 -0.463389 -0.0142892 -0.359508 0 0 0 -1.24383 -0.0567742 -1.56567 0 0 -0.00160516 -15.2321 -486.66 91.1171 0.0025 
112 1 1 -0.458693 -0.0150851 -0.361054 0 0 0 -1.25116 0.0177169 -1.72723 0 0 -0.000346714 57.3328 -558.85 385.875 0.0015 
13 1 1 -0.453283 -0.0122475 -0.360067 0 0 0 -1.1304 -0.0348486 -1.61499 0 0 -0.00160516 74.1335 -492.073 -31.9773 0.0025 
269 1 1 -0.460625 0.00854811 -0.359932 0 0 0 -1.28197 -0.00784036 -1.628 0 0 -0.000346714 126.428 -909.389 -185.444 0.0015 
130 1 1 -0.460309 -0.00451128 -0.354984 0 0 0 -1.19787 -0.129305 -1.5623 0 0 -0.00160516 64.5069 -519.33 -75.6691 0.0025 
243 1 1 -0.45456 0.0143608 -0.355877 0 0 0 -1.20826 0.213882 -1.58221 0 0 -0.000346714 -205.047 -857.591 128.246 0.0015 
159 1 1 -0.44263 -0.00454409 -0.350862 0 0 0 -1.09726 0.144829 -1.55879 0 0 -0.000346714 -70.3077 -799.299 -45.3437 0.0015 
256 1 1 -0.456266 -0.0113094 -0.347905 0 0 0 -1.235 0.159882 -1.42563 0 0 -0.000346714 -70.7916 -791.862 62.1996 0.0015 
68 1 1 -0.448136 0.0015089 -0.350413 0 0 0 -1.1539 -0.0331372 -1.54193 0 0 -0.00160516 15.0556 -483.325 -36.6526 0.0025 
199 1 1 -0.428501 0.00878143 -0.349235 0 0 0 -1.08435 -0.061576 -1.59061 0 0 -0.000346714 403.501 -676.786 42.8433 0.0015 
196 1 1 -0.453208 0.0222472 -0.349241 0 0 0 -1.21401 -0.0146728 -1.56046 0 0 -0.00160516 17.0199 -530.87 -25.7927 0.0025 
233 1 1 -0.452611 -0.00527281 -0.344835 0 0 0 -1.23505 0.160675 -1.52504 0 0 -0.00160516 -106.123 -516.404 94.0733 0.0025 
190 1 1 -0.442536 0.0186502 -0.345223 0 0 0 -1.13495 0.0081687 -1.51018 0 0 -0.000346714 -12.7155 -837.309 14.3686 0.0015 
173 1 1 -0.427796 0.00532773 -0.340593 0 0 0 -1.09788 -0.151981 -1.53036 0 0 -0.000346714 272.386 -707.869 -24.3477 0.0015 
110 1 1 -0.422392 -0.0174915 -0.337527 0 0 0 -0.938657 -0.136414 -1.42023 0 0 -0.000346714 17.4258 -542.259 -2.09917 0.0015 
169 1 1 -0.421583 0.00369879 -0.334139 0 0 0 -0.993969 -0.0523926 -1.47649 0 0 -0.00160516 -74.29 -423.412 -21.6146 0.0025 
289 1 1 -0.41519 0.0177604 -0.335604 0 0 0 -1.01351 -0.0734463 -1.51445 0 0 -0.000346714 -9.09044 -543.624 102.941 0.0015 
194 1 1 -0.425758 0.000666267 -0.328448 0 0 0 -1.10952 0.496096 -1.51651 0 0 -0.00160516 -298.467 -421.307 192.778 0.0025 
65 1 1 -0.418267 -0.00817725 -0.322062 0 0 0 -1.02736 -0.0275412 -1.33015 0 0 -0.00160516 36.4644 -448.4 -58.5931 0.0025 
184 1 1 -0.43071 0.000544651 -0.322804 0 0 0 -1.27399 -0.271361 -1.37152 0 0 -0.000346714 213.733 -888.409 -42.4456 0.0015 
163 1 1 -0.414051 0.00280949 -0.324523 0 0 0 -1.01231 0.0128169 -1.35584 0 0 -0.000346714 31.6847 -707.681 7.95581 0.0015 
67 1 1 -0.429084 0.00946688 -0.325056 0 0 0 -1.15993 -0.025382 -1.33913 0 0 -0.00160516 75.5539 -398.094 -46.3078 0.0025 
204 1 1 -0.41939 0.0201441 -0.324538 0 0 0 -0.99054 -0.185185 -1.39957 0 0 -0.000346714 209.691 -691.083 -169.486 0.0015 
150 1 1 -0.422106 -0.0297815 -0.320404 0 0 0 -1.1301 -0.0472229 -1.35801 0 0 -0.000346714 -99.481 -786.221 286.276 0.0015 
187 1 1 -0.422133 -0.00246352 -0.3198 0 0 0 -1.03602 -0.166614 -1.29489 0 0 -0.000346714 -94.216 -487.749 108.677 0.0015 
151 1 1 -0.421438 0.00511336 -0.321656 0 0 0 -1.09504 0.00521485 -1.32759 0 0 -0.000346714 -73.6914 -748.728 -85.419 0.0015 
131 1 1 -0.416982 -0.000543698 -0.317097 0 0 0 -1.06047 0.0127585 -1.29202 0 0 -0.00160516 -21.5098 -451.351 42.9886 0.0025 
95 1 1 -0.411955 0.00686742 -0.317839 0 0 0 -1.01777 0.0447613 -1.29457 0 0 -0.000346714 -79.8216 -745.486 109.778 0.0015 
143 1 1 -0.420391 -0.00238636 -0.313534 0 0 0 -1.20098 0.209653 -1.31476 0 0 -0.00160516 -144.076 -500.166 126.817 0.0025 
90 1 1 -0.410619 -0.00132508 -0.314406 0 0 0 -1.04056 0.00988612 -1.2842 0 0 -0.00160516 10.5195 -430.119 -30.2997 0.0025 
148 1 1 -0.402313 0.00725984 -0.314064 0 0 0 -0.891873 -0.0193385 -1.31267 0 0 -0.000346714 289.653 -341.242 14.0345 0.0015 
177 1 1 -0.412663 -0.00647729 -0.309064 0 0 0 -1.14715 0.132664 -1.2575 0 0 -0.000346714 -58.4485 -848.324 -95.2034 0.0015 
136 1 1 -0.416743 0.00381962 -0.310022 0 0 0 -1.0506 -0.0410702 -1.20879 0 0 -0.000346714 -18.4602 -729.004 -118.572 0.0015 
172 1 1 -0.390034 0.0153922 -0.309317 0 0 0 -0.764985 0.0184259 -1.20666 0 0 -0.000346714 -36.3449 -204.036 -265.701 0.0015 
161 1 1 -0.395696 0.00358384 -0.306555 0 0 0 -0.97153 -0.167016 -1.31945 0 0 -0.000346714 -239.173 -98.2788 84.1176 0.0015 
214 1 1 -0.410416 -0.0303098 -0.302541 0 0 0 -1.18569 0.111194 -1.28568 0 0 -0.000346714 -83.0994 -915.365 -4.93271 0.0015 
175 1 1 -0.4067 -0.00408974 -0.301826 0 0 0 -1.02761 -0.216481 -1.08284 0 0 -0.000346714 187.482 -634.926 88.5663 0.0015 
210 1 1 -0.406653 0.0163428 -0.302716 0 0 0 -1.11113 -0.00942351 -1.20734 0 0 -0.00160516 37.4291 -475.028 -78.8357 0.0025 
198 1 1 -0.415179 -0.0306361 -0.300486 0 0 0 -1.13758 0.116921 -1.21872 0 0 -0.000346714 -80.478 -897.555 -10.3047 0.0015 
153 1 1 -0.395999 -0.00471875 -0.297599 0 0 0 -1.01583 -0.0284624 -1.12393 0 0 -0.000346714 -45.0149 -722.203 160.275 0.0015 
212 1 1 -0.408879 0.0284628 -0.296885 0 0 0 -1.21134 -0.064005 -1.19882 0 0 -0.000346714 143.661 -835.886 -232.941 0.0015 
221 1 1 -0.402338 -0.0233896 -0.291662 0 0 0 -1.19685 0.0788713 -1.15727 0 0 -0.00160516 46.1343 -420.092 62.5528 0.0025 
15 1 1 -0.38665 -0.0114756 -0.2923 0 0 0 -1.00466 0.0302447 -1.14141 0 0 -0.00160516 -52.1407 -288.095 58.0442 0.0025 
167 1 1 -0.389727 -0.00373274 -0.291024 0 0 0 -0.984101 -0.00310899 -1.06996 0 0 -0.00160516 3.00523 -426.073 -3.53896 0.0025 
123 1 1 -0.39005 0.0061764 -0.290651 0 0 0 -1.05613 0.0224199 -1.07699 0 0 -0.000346714 3.88147 -763.446 -47.503 0.0015 
192 1 1 -0.392022 0.0129905 -0.286601 0 0 0 -0.95046 -0.0112632 -0.939425 0 0 -0.000346714 -36.2216 -534.449 -89.5178 0.0015 
224 1 1 -0.395795 0.0183854 -0.288504 0 0 0 -1.21595 -0.0697075 -1.10977 0 0 -0.000346714 69.4761 -885.323 -44.1922 0.0015 
200 1 1 -0.375004 -0.0280541 -0.284933 0 0 0 -0.763939 -0.0851092 -1.09023 0 0 -0.000346714 -272.422 -116.611 -16.6336 0.0015 
205 1 1 -0.3863 -0.0167091 -0.285746 0 0 0 -1.0625 -0.0173898 -1.08787 0 0 -0.000346714 -10.5004 -705.017 -133.94 0.0015 
219 1 1 -0.384582 -0.0128619 -0.283073 0 0 0 -1.11082 0.0553876 -1.04912 0 0 -0.00160516 -57.456 -407.681 66.7014 0.0025 
213 1 1 -0.377278 -0.00226939 -0.285376 0 0 0 -0.923552 -0.00290206 -1.02282 0 0 -0.000346714 12.4447 -326.308 43.9774 0.0015 
73 1 1 -0.378221 0.00129756 -0.285346 0 0 0 -0.973773 0.0164436 -1.04543 0 0 -0.000346714 -25.3215 -617.309 8.82711 0.0015 
208 1 1 -0.387002 0.0157646 -0.285453 0 0 0 -1.04016 0.013282 -1.03998 0 0 -0.00160516 4.40502 -454.321 -25.219 0.0025 
265 1 1 -0.396053 0.0422476 -0.287149 0 0 0 -0.987278 -0.431775 -1.49649 0 0 -0.000346714 641.773 -429.402 -512.99 0.0015 
183 1 1 -0.382867 -0.00478332 -0.280971 0 0 0 -1.01851 0.140764 -0.979108 0 0 -0.00160516 -26.3056 -327.74 -9.61479 0.0025 
119 1 1 -0.385099 0.00455542 -0.282799 0 0 0 -1.11678 -0.00630556 -1.02538 0 0 -0.00160516 -1.58639 -487.378 9.75291 0.0025 
132 1 1 -0.375946 0.0041099 -0.280562 0 0 0 -0.990237 0.0675224 -0.999067 0 0 -0.00160516 14.8907 -289.595 2.05263 0.0025 
244 1 1 -0.385538 0.0141565 -0.280799 0 0 0 -1.16282 0.00938645 -1.01707 0 0 -0.00160516 25.7538 -499.402 -71.0578 0.0025 
193 1 1 -0.37248 -0.0258882 -0.275976 0 0 0 -0.852717 -0.0765502 -0.988295 0 0 -0.00160516 -19.0268 -313.611 44.2248 0.0025 
157 1 1 -0.376121 -0.0190752 -0.27757 0 0 0 -0.847013 0.0631745 -0.912456 0 0 -0.00160516 -15.3931 -351.929 -8.20579 0.0025 
197 1 1 -0.36793 -0.00753447 -0.278142 0 0 0 -0.781164 -0.00802137 -0.914399 0 0 -0.000346714 17.1181 -481.313 -11.8934 0.0015 
101 1 1 -0.365022 -0.00730672 -0.276481 0 0 0 -0.756817 -0.0902203 -1.03463 0 0 -0.000346714 -28.3705 -280.433 -43.8822 0.0015 
189 1 1 -0.377764 -0.00704067 -0.277895 0 0 0 -0.974528 -0.0587685 -0.916394 0 0 -0.000346714 106.442 -651.39 -29.6752 0.0015 
191 1 1 -0.375596 -0.0015647 -0.27659 0 0 0 -1.00926 0.01231 -0.955682 0 0 -0.000346714 -143.128 -351.733 81.2902 0.0015 
144 1 1 -0.371283 0.000620708 -0.276467 0 0 0 -0.983795 0.0215203 -0.96433 0 0 -0.00160516 -59.7677 -370.271 50.4024 0.0025 
293 1 1 -0.389313 0.0309094 -0.27654 0 0 0 -1.28315 -0.110707 -1.05134 0 0 -0.000346714 82.9603 -969.846 -0.631742 0.0015 
262 1 1 -0.392314 0.0350307 -0.278132 0 0 0 -1.28094 0.124041 -1.00431 0 0 -0.000346714 -57.362 -937.353 -91.2237 0.0015 
218 1 1 -0.375842 -0.0150826 -0.27282 0 0 0 -1.16241 0.0733094 -0.934941 0 0 -0.000346714 -40.6898 -856.813 -30.7497 0.0015 
127 1 1 -0.366688 -0.0126516 -0.27327 0 0 0 -0.831664 -0.0487669 -0.858737 0 0 -0.000346714 12.3567 -579.139 19.1742 0.0015 
181 1 1 -0.364342 -0.00425623 -0.273196 0 0 0 -0.948338 0.0556168 -0.957 0 0 -0.00160516 -147.893 -232.712 -9.95269 0.0025 
155 1 1 -0.368676 0.00352364 -0.272398 0 0 0 -1.02435 0.0338799 -0.926128 0 0 -0.00160516 1.55192 -349.204 26.4785 0.0025 
9 1 1 -0.372161 0.00545878 -0.272966 0 0 0 -1.03234 0.05283 -0.868833 0 0 -0.000346714 6.86682 -694.063 -113.314 0.0015 
178 1 1 -0.364931 0.00735009 -0.274081 0 0 0 -0.875148 0.0330808 -0.960231 0 0 -0.000346714 -54.1508 -599.63 39.6465 0.0015 
259 1 1 -0.379058 -0.019073 -0.268591 0 0 0 -1.22873 0.123982 -0.839875 0 0 -0.00160516 -68.6659 -469.939 35.8833 0.0025 
182 1 1 -0.364475 -0.0115172 -0.268528 0 0 0 -0.874703 0.00117447 -0.817483 0 0 -0.00160516 -24.6677 -371.655 66.7302 0.0025 
59 1 1 -0.365084 -0.00807164 -0.270795 0 0 0 -0.838481 0.00623968 -0.851421 0 0 -0.000346714 -35.7349 121.694 7.76013 0.0015 
206 1 1 -0.370202 -0.00155042 -0.269799 0 0 0 -0.976405 0.0758532 -0.871896 0 0 -0.00160516 -17.202 -170.623 4.82597 0.0025 
92 1 1 -0.425235 0.00347356 -0.270173 0 0 0 -1.09837 -0.0974242 -0.865784 0 0 -0.00160516 13.3064 -107.421 -112.37 0.0025 
276 1 1 -0.369841 0.00802297 -0.268954 0 0 0 -1.10948 -0.0420042 -0.81385 0 0 -0.000346714 27.7378 -715.581 -0.74492 0.0015 
228 1 1 -0.368687 0.0155228 -0.268654 0 0 0 -1.11224 0.00178354 -0.87384 0 0 -0.000346714 75.8592 -782.056 -182.758 0.0015 
188 1 1 -0.372442 -0.022637 -0.266438 0 0 0 -1.18406 0.110762 -0.87285 0 0 -0.000346714 -65.3032 -893.373 -32.5978 0.0015 
211 1 1 -0.353118 -0.0195356 -0.265075 0 0 0 -0.873726 -0.101697 -0.94526 0 0 -0.000346714 -178.623 -327.611 8.8973 0.0015 
225 1 1 -0.359484 -0.0147316 -0.263248 0 0 0 -0.962436 0.00897913 -0.770088 0 0 -0.000346714 23.763 -718.116 -73.3922 0.0015 
216 1 1 -0.353038 -0.00147136 -0.261567 0 0 0 -0.938118 0.00973268 -0.771347 0 0 -0.000346714 -183.288 -637.657 -39.8282 0.0015 
180 1 1 -0.367108 0.00285317 -0.264621 0 0 0 -1.07507 0.109286 -0.759424 0 0 -0.00160516 -2.30228 -398.032 -60.2754 0.0025 
145 1 1 -0.360272 0.00293873 -0.262482 0 0 0 -0.961799 0.221409 -0.744844 0 0 -0.00160516 -76.3318 -385.074 -25.0555 0.0025 
126 1 1 -0.3563 0.000192978 -0.262395 0 0 0 -0.969099 0.0755784 -0.763071 0 0 -0.000346714 -19.0477 -663.005 -79.6916 0.0015 
305 1 1 -0.365616 0.0274696 -0.264135 0 0 0 -1.09384 -0.102151 -0.944222 0 0 -0.000346714 -1.1303 -780.799 -101.29 0.0015 
258 1 1 -0.366414 0.0329115 -0.263353 0 0 0 -1.16534 0.062507 -1.07053 0 0 -0.00160516 -11.6734 176.405 -22.5778 0.0025 
168 1 1 -0.354887 -0.00446027 -0.259395 0 0 0 -0.970647 0.0401124 -0.723184 0 0 -0.00160516 -36.0981 -414.182 40.4275 0.0025 
202 1 1 -0.354765 0.00289889 -0.258426 0 0 0 -1.04816 0.0527132 -0.677971 0 0 -0.000346714 -93.445 -717.384 28.3075 0.0015 
253 1 1 -0.359853 0.0289723 -0.258064 0 0 0 -1.09504 -0.113846 -0.802354 0 0 -0.000346714 187.587 -742.933 -247.5 0.0015 
272 1 1 -0.364659 0.0419998 -0.260898 0 0 0 -0.999806 0.285492 -0.874888 0 0 -0.00160516 9.75074 -59.5008 -143.463 0.0025 
232 1 1 -0.35593 -0.014981 -0.25605 0 0 0 -1.0912 -0.00281361 -0.668535 0 0 -0.00160516 0.912803 -446.291 -12.5083 0.0025 
268 1 1 -0.349867 0.00281829 -0.256845 0 0 0 -1.06849 -0.0813625 -0.712166 0 0 -0.000346714 90.5287 -770.654 -73.7222 0.0015 
217 1 1 -0.3522 0.0286145 -0.25541 0 0 0 -0.979047 0.0482316 -0.713725 0 0 -0.000346714 -62.3769 -710.188 -149.895 0.0015 
287 1 1 -0.362357 0.0400916 -0.254832 0 0 0 -1.07163 0.0470492 -0.72761 0 0 -0.000346714 29.6621 -756.413 -180.337 0.0015 
215 1 1 -0.340012 0.00605759 -0.251948 0 0 0 -0.951175 -0.00526021 -0.642998 0 0 -0.000346714 81.017 -671.859 56.629 0.0015 
239 1 1 -0.341231 0.0138274 -0.250884 0 0 0 -0.961078 -0.0352204 -0.602317 0 0 -0.000346714 87.1321 -678.422 -144.801 0.0015 
156 1 1 -0.347134 0.0195161 -0.251407 0 0 0 -1.13536 -0.146372 -0.709952 0 0 -0.00160516 104.231 -482.863 -93.3553 0.0025 
245 1 1 -0.351269 0.0225702 -0.253224 0 0 0 -1.16725 -0.179685 -0.768135 0 0 -0.00160516 98.8841 -514.922 -43.4747 0.0025 
296 1 1 -0.357089 0.0326377 -0.253191 0 0 0 -1.14681 0.0735282 -0.714033 0 0 -0.00160516 19.6271 -471.011 -120.325 0.0025 
147 1 1 -0.338157 -0.0105678 -0.249073 0 0 0 -1.02829 -0.0381294 -0.571695 0 0 -0.000346714 16.1649 -640.133 56.1681 0.0015 
247 1 1 -0.337169 -0.00561889 -0.247872 0 0 0 -0.932008 -0.0252074 -0.531875 0 0 -0.00160516 -1.36802 -401.64 30.0268 0.0025 
109 1 1 -0.333253 -0.00459416 -0.246909 0 0 0 -0.91466 -0.0674199 -0.507853 0 0 -0.000346714 111.868 -222.572 118.383 0.0015 
274 1 1 -0.338814 0.00260392 -0.249505 0 0 0 -0.950556 0.000203931 -0.592369 0 0 -0.00160516 -35.2937 -287.224 55.6583 0.0025 
124 1 1 -0.333697 0.00130806 -0.247442 0 0 0 -0.910503 0.123455 -0.497299 0 0 -0.000346714 29.1477 -401.41 -102.923 0.0015 
281 1 1 -0.332644 0.00599955 -0.247806 0 0 0 -0.938499 -0.0681349 -0.621361 0 0 -0.000346714 -235.908 -550.485 105.887 0.0015 
249 1 1 -0.335479 0.00734816 -0.248164 0 0 0 -0.931113 0.087152 -0.528992 0 0 -0.000346714 -35.4349 -630.258 -42.2518 0.0015 
201 1 1 -0.335487 0.0108481 -0.247913 0 0 0 -0.942105 0.10875 -0.52997 0 0 -0.000346714 -50.6198 -679.52 -66.7134 0.0015 
195 1 1 -0.333926 -0.010327 -0.245403 0 0 0 -0.950155 -0.00245124 -0.474462 0 0 -0.00160516 -31.7349 -403.29 79.3726 0.0025 
266 1 1 -0.330918 -0.00620438 -0.245319 0 0 0 -0.905617 -0.0577355 -0.478632 0 0 -0.000346714 38.2168 -563.275 170.727 0.0015 
223 1 1 -0.332076 -0.0020616 -0.245035 0 0 0 -0.96782 -0.0410256 -0.42919 0 0 -0.000346714 -14.4538 -65.868 -23.1529 0.0015 
251 1 1 -0.328765 -0.000637503 -0.243742 0 0 0 -0.934641 0.0370445 -0.4089 0 0 -0.000346714 -45.3533 -548.355 12.8843 0.0015 
118 1 1 -0.335709 0.00429648 -0.244593 0 0 0 -1.01708 0.0869628 -0.454975 0 0 -0.00160516 -65.355 -215.565 -31.2235 0.0025 
235 1 1 -0.330867 0.0037953 -0.24587 0 0 0 -0.960625 -0.0275456 -0.501055 0 0 -0.000346714 -66.259 -630.225 95.1363 0.0015 
160 1 1 -0.328612 0.00552595 -0.244838 0 0 0 -0.95425 -0.0168884 -0.52165 0 0 -0.000346714 21.6491 -621.308 -79.4513 0.0015 
369 1 1 -0.3333 0.00956454 -0.246244 0 0 0 -1.05605 -0.0137203 -0.525482 0 0 -0.000346714 -0.928828 -643.216 -189.773 0.0015 
154 1 1 -0.330283 0.0103943 -0.24492 0 0 0 -1.01188 -0.0476029 -0.498773 0 0 -0.000346714 70.4283 -702.067 -115.19 0.0015 
311 1 1 -0.342822 0.0345621 -0.244051 0 0 0 -1.1993 0.090386 -0.604654 0 0 -0.00160516 -20.5047 -526.685 -51.8186 0.0025 
315 1 1 -0.36225 0.0501696 -0.247296 0 0 0 -1.19537 -0.0474614 -0.768953 0 0 -0.000346714 141.619 -839.23 -269.993 0.0015 
250 1 1 -0.333752 -0.0297632 -0.24216 0 0 0 -1.17414 0.0758322 -0.559878 0 0 -0.000346714 -86.4605 -854.852 76.913 0.0015 
226 1 1 -0.319461 -0.0226942 -0.238227 0 0 0 -1.03871 0.0769403 -0.408678 -0.00125871 0.00069025 0.00223117 -51.9984 -759.489 -10.253 0.0015 
282 1 1 -0.311491 -0.0110594 -0.236733 0 0 0 -0.9187 0.0354734 -0.38021 0 0 -0.000346714 -59.8219 -654.685 83.9917 0.0015 
209 1 1 -0.313088 -0.00497685 -0.2369 0 0 0 -1.0005 -0.132475 -0.417721 -0.00042496 3.60437e-05 -0.000146093 47.8901 -434.168 22.9753 0.0025 
299 1 1 -0.318164 -0.000783315 -0.239198 0 0 0 -1.01831 0.0168981 -0.417683 0.000170062 0.000389721 0.00142623 -89.8074 -25.0021 -44.8917 0.0025 
279 1 1 -0.313214 0.00128215 -0.238136 0 0 0 -0.863624 0.0145727 -0.363043 -8.94747e-05 -1.34336e-05 -3.63422e-05 -17.9855 -627.306 17.5948 0.0015 
86 1 1 -0.308797 0.0026765 -0.236187 0 0 0 -0.978876 -0.0931297 -0.41844 -8.83321e-05 -1.31784e-05 -3.80113e-05 33.5525 -714.81 80.6 0.0015 
271 1 1 -0.317205 0.00408891 -0.23854 0 0 0 -1.01977 0.0697278 -0.415293 0 0 -0.00160516 0.778674 -447.401 -13.237 0.0025 
290 1 1 -0.312009 0.00395883 -0.23746 0 0 0 -0.974105 -0.121304 -0.41762 -8.34851e-05 -1.24864e-05 -4.87155e-05 109.515 -702.889 -51.2817 0.0015 
134 1 1 -0.318187 0.00856772 -0.23977 0 0 0 -1.14823 -0.183991 -0.494847 -8.82318e-05 -1.31785e-05 -3.79216e-05 179.516 -825.467 -109.628 0.0015 
252 1 1 -0.313128 0.00921839 -0.2376 0 0 0 -1.164 -0.0985936 -0.496204 -8.91382e-05 -1.33503e-05 -3.40154e-05 108.556 -838.27 -88.102 0.0015 
286 1 1 -0.316206 0.0133429 -0.237505 0 0 0 -1.19406 -0.117703 -0.52235 -0.000384366 -0.00017886 -0.000231533 59.2573 -522.984 -17.6263 0.0025 
295 1 1 -0.315101 -0.0251353 -0.235709 0 0 0 -1.06491 0.0873372 -0.48006 0 0 -0.000346714 -61.0815 -672.754 145.591 0.0015 
238 1 1 -0.313143 -0.0275305 -0.234219 0 0 0 -1.0815 -0.0303603 -0.419956 0 0 -0.000346714 -1.16449 -748.558 110.729 0.0015 
176 1 1 -0.311774 -0.0234334 -0.234817 0 0 0 -0.965334 0.0247297 -0.382843 -0.000252076 0.000185271 0.000317266 -10.5497 -721.003 -21.9642 0.0015 
306 1 1 -0.30897 -0.0234032 -0.233737 0 0 0 -0.962669 0.0949252 -0.412401 -0.000412597 0.000414257 0.00104398 -112.726 -684.992 105.192 0.0015 
236 1 1 -0.308767 -0.0174221 -0.234764 0 0 0 -1.16582 0.132765 -0.474798 0 0 -0.000346714 -123.461 -830.246 71.8827 0.0015 
207 1 1 -0.312213 -0.0150196 -0.2354 0 0 0 -0.964538 0.0226545 -0.399279 0 0 -0.00160516 -51.7669 -405.999 101.592 0.0025 
242 1 1 -0.30818 -0.0128292 -0.235165 0 0 0 -1.07491 0.0349829 -0.434842 -7.14496e-05 2.47012e-05 -6.30589e-05 -68.5603 -763.603 108.066 0.0015 
278 1 1 -0.309184 -0.00847249 -0.236151 0 0 0 -0.94683 0.104344 -0.40973 -8.75956e-05 2.28183e-05 -3.93464e-05 -118.497 -677.541 101.283 0.0015 
303 1 1 -0.304894 -0.00766953 -0.234433 0 0 0 -1.0714 0.228912 -0.46882 -0.000375433 3.55735e-05 0.000864909 -180.179 -776.222 33.6196 0.0015 
170 1 1 -0.307007 -0.00271397 -0.234415 0 0 0 -0.990317 -0.0218041 -0.417109 -0.000458227 4.22279e-05 -6.24448e-05 -10.5586 -428.821 47.5012 0.0025 
347 1 1 -0.309181 0.0162168 -0.23401 0 0 0 -1.21236 -0.0924363 -0.523747 -0.000393243 -0.000183278 -0.000203774 30.2994 -539.104 25.008 0.0025 
222 1 1 -0.313628 0.0181258 -0.235495 0 0 0 -1.21518 -0.0850903 -0.523982 -0.000399834 -0.00018745 -0.000181123 95.5432 -508.517 -139.011 0.0025 
261 1 1 -0.319662 -0.0394237 -0.232701 0 0 0 -1.22921 0.182421 -0.605875 0 0 -0.000346714 -199.817 -887.417 151.562 0.0015 
257 1 1 -0.30604 -0.0195169 -0.232099 0 0 0 -1.14934 0.116608 -0.527085 0 0 -0.00160516 -86.2881 -486.074 87.5961 0.0025 
275 1 1 -0.295106 -0.0154987 -0.229458 0 0 0 -1.04425 0.102409 -0.450985 0 0 -0.000346714 -66.6953 -702.492 54.3524 0.0015 
125 1 1 -0.293845 -0.00779598 -0.229769 0 0 0 -1.00445 0.0553345 -0.424878 -9.3074e-05 7.92363e-06 -2.59814e-05 -39.5012 -727.428 -1.34373 0.0015 
323 1 1 -0.303236 0.0084037 -0.232397 0 0 0 -0.982844 0.0203639 -0.413531 -0.000403062 -6.05095e-05 -0.000191323 -7.87248 -427.609 -2.34835 0.0025 
348 1 1 -0.303063 0.0192572 -0.230866 0 0 0 -1.22834 -0.188941 -0.549424 -0.000404812 -0.000188499 -0.000183391 80.2416 -542.754 7.24112 0.0025 
237 1 1 -0.30451 -0.033648 -0.22876 0 0 0 -1.1233 0.0687789 -0.47102 0 0 -0.000346714 -48.9959 -841.147 4.63853 0.0015 
350 1 1 -0.298872 -0.0231526 -0.228368 0 0 0 -1.08236 0.15039 -0.458749 -0.00038209 0.000208875 -0.000182388 -92.6832 -460.332 67.7647 0.0025 
248 1 1 -0.291519 -0.0141439 -0.227144 0 0 0 -0.912132 0.409469 -0.376992 0 0 -0.000346714 -271.511 -537.449 6.91329 0.0015 
327 1 1 -0.291156 -0.00664506 -0.228675 0 0 0 -0.999391 0.0369128 -0.422764 -8.70763e-05 7.17473e-06 -3.97167e-05 21.6117 -727.818 -114.655 0.0015 
220 1 1 -0.299519 0.0151944 -0.227022 0 0 0 -1.03583 0.032313 -0.852425 0 0 -0.00160516 -52.6472 -170.81 -81.6725 0.0025 
230 1 1 -0.287176 0.0155391 -0.226083 0 0 0 -1.05513 -0.031267 -0.451731 -0.000798248 -0.000269251 0.00191364 41.5826 -767.008 -43.1466 0.0015 
264 1 1 -0.293798 0.0201129 -0.227932 0 0 0 -1.13572 0.0675164 -0.459175 0 0 -0.000346714 79.9796 -771.699 -311.833 0.0015 
291 1 1 -0.298644 -0.0370086 -0.225264 0 0 0 -1.15763 0.293125 -0.561093 0 0 -0.000346714 -260.148 -822.337 120.634 0.0015 
146 1 1 -0.288262 -0.0294969 -0.223507 0 0 0 -0.799018 0.0651521 -0.324828 -0.000129309 9.52274e-05 -1.94682e-05 -69.2314 -576.485 55.15 0.0015 
240 1 1 -0.282825 -0.0216532 -0.223224 0 0 0 -1.11378 0.137736 -0.49017 -9.39343e-05 4.2528e-05 -2.53632e-05 -90.9332 -821.535 -24.2177 0.0015 
227 1 1 -0.279969 -0.0161924 -0.223025 0 0 0 -0.958972 0.108986 -0.41473 -8.23832e-05 2.12581e-05 -5.23104e-05 -123.534 -685.802 105.415 0.0015 
142 1 1 -0.28275 -0.0130752 -0.223445 0 0 0 -0.929848 0.0304432 -0.393831 -0.000411295 0.000106458 -0.000177914 -9.04539 -406.836 -10.0727 0.0025 
406 1 1 -0.278363 -0.0132726 -0.222667 0 0 0 -0.935546 0.108977 -0.405079 -9.06562e-05 2.30888e-05 -3.82961e-05 -71.7808 -682.21 -17.7056 0.0015 
343 1 1 -0.282096 -0.00797269 -0.224808 0 0 0 -0.988257 0.0100466 -0.417094 -8.83853e-05 7.14756e-06 -3.78509e-05 -22.9624 -714.483 37.1973 0.0015 
297 1 1 -0.27922 -0.00114241 -0.222603 0 0 0 -0.970878 -0.0712341 -0.363186 0 0 -0.00160516 35.0609 -395.506 9.90746 0.0025 
254 1 1 -0.281205 0.00181454 -0.224565 0 0 0 -0.868177 0.0792644 -0.340538 0 0 -0.000346714 13.8578 -546.882 4.23836 0.0015 
302 1 1 -0.283503 0.00594948 -0.225314 0 0 0 -0.91903 0.0486862 -0.384327 -9.40523e-05 -1.44589e-05 -2.27492e-05 -65.0008 -670.957 70.4882 0.0015 
374 1 1 -0.279732 0.00896688 -0.222478 0 0 0 -0.878858 -0.0306391 -0.364513 0.000117289 -3.18234e-05 3.70428e-05 -7.46712 58.674 -20.6159 0.0025 
313 1 1 -0.278166 0.0139193 -0.22252 0 0 0 -0.945396 0.034288 -0.398022 -7.79359e-05 -3.21542e-05 -6.85837e-05 -41.6994 -701.985 38.4525 0.0015 
241 1 1 -0.286058 0.0209365 -0.224624 0 0 0 -1.00009 0.0285179 -0.39398 -0.000249838 -0.000144228 0.000231632 -42.6764 -739.625 52.4481 0.0015 
277 1 1 -0.300352 -0.0460869 -0.221894 0 0 0 -1.17998 0.220498 -0.587468 0 0 -0.000346714 -242.696 -821.917 198.633 0.0015 
384 1 1 -0.276124 -0.0267893 -0.219356 0 0 0 -0.90319 0.125072 -0.401733 -7.66612e-05 4.66278e-05 -0.000102486 -133.254 -643.771 99.3634 0.0015 
234 1 1 -0.274806 -0.0174676 -0.21957 0 0 0 -0.917182 0.0623871 -0.392152 -0.000398537 0.000179969 -0.000184843 -39.215 -398.064 28.3876 0.0025 
162 1 1 -0.275158 -0.0103597 -0.221635 0 0 0 -0.95798 0.103962 -0.411881 -8.71284e-05 2.24665e-05 -3.90462e-05 -146.181 -677.832 168.91 0.0015 
342 1 1 -0.272079 -0.0136858 -0.219986 0 0 0 -0.957923 0.0553344 -0.411145 -8.82926e-05 2.37876e-05 -3.84646e-05 -110.393 -678.596 165.877 0.0015 
263 1 1 -0.272505 -0.00826581 -0.220745 0 0 0 -0.929946 0.101137 -0.398222 -8.84604e-05 8.11107e-06 -3.94171e-05 -32.7714 -677.889 -95.6287 0.0015 
318 1 1 -0.269847 -0.00675 -0.219676 0 0 0 -0.899655 0.0800462 -0.384537 -8.89312e-05 8.15134e-06 -3.8693e-05 -88.052 -649.456 70.8027 0.0015 
381 1 1 -0.27409 0.000839087 -0.218857 0 0 0 -0.928681 -0.0546384 -0.384486 0 0 -0.000346714 107.162 419.22 139.478 0.0015 
284 1 1 -0.276868 0.00344792 -0.221608 0 0 0 -0.959596 -0.0329801 -0.39699 -0.000168001 -2.12125e-05 -0.000778586 18.367 -415.263 -9.92793 0.0025 
255 1 1 -0.275738 0.00778929 -0.221977 0 0 0 -0.850389 -0.0408578 -0.358214 5.09843e-05 -7.32654e-05 0.000370375 57.169 -287.786 39.5425 0.0015 
246 1 1 -0.272801 0.00792309 -0.219001 0 0 0 -0.878654 0.0354009 -0.34058 0 0 -0.00160516 -17.2398 -338.072 12.8674 0.0025 
356 1 1 -0.277607 0.0176577 -0.221596 0 0 0 -1.06443 0.0325419 -0.447992 0 0 -0.000346714 2.6997 -766.53 -65.1488 0.0015 
316 1 1 -0.272373 0.0176423 -0.219444 0 0 0 -1.02023 0.00336203 -0.415742 -9.66275e-05 -3.73591e-05 -2.20602e-05 51.9786 -721.653 -133.356 0.0015 
337 1 1 -0.281995 0.0290331 -0.221102 0 0 0 -1.23056 -0.150868 -0.566539 -0.000128778 -0.000100755 0.00012486 221.202 -849.008 -254.09 0.0015 
294 1 1 -0.266324 -0.0224848 -0.216171 0 0 0 -0.935366 0.000434314 -0.387799 0 0 -0.000346714 24.0904 -693.114 -55.0069 0.0015 
231 1 1 -0.269145 -0.0189802 -0.216938 0 0 0 -0.866597 0.036639 -0.37197 -0.000534871 0.000256158 0.000173937 -45.4954 -368.955 69.618 0.0025 
336 1 1 -0.265012 -0.0156752 -0.215695 0 0 0 -0.866541 0.0736221 -0.373856 -0.00111601 0.000196984 0.00134218 -35.8943 -377.401 8.98458 0.0025 
357 1 1 -0.262087 -0.0124048 -0.215915 0 0 0 -0.824901 0.144011 -0.342947 0 0 -0.000346714 -56.5591 -435.456 135.865 0.0015 
292 1 1 -0.265442 -0.00657879 -0.217817 0 0 0 -0.94751 -0.00713978 -0.397419 -0.000105876 9.83282e-06 3.44935e-06 29.1448 -688.125 -57.1441 0.0015 
285 1 1 -0.262736 -0.00413538 -0.215693 0 0 0 -0.95264 0.00902843 -0.400472 -0.000281821 2.60421e-05 -0.000453051 -11.1924 -413.094 17.3213 0.0025 
353 1 1 -0.262134 -0.000260197 -0.216652 0 0 0 -0.921212 0.00899955 -0.391218 -8.97849e-05 -9.89338e-06 -3.68424e-05 -29.579 -670.855 54.214 0.0015 
61 1 1 -0.25925 -0.0019054 -0.215349 0 0 0 -0.896233 -0.0880907 -0.36366 0 0 -0.000346714 61.1808 -640.456 7.11657 0.0015 
308 1 1 -0.268704 0.00118677 -0.218284 0 0 0 -0.941239 0.00242112 -0.403332 -0.000741629 -9.65469e-05 0.000809984 0.114218 -410.847 -2.47658 0.0025 
229 1 1 -0.258983 0.00167181 -0.215222 0 0 0 -0.895938 -0.0248032 -0.38073 -6.83967e-05 -7.11937e-06 -0.000103957 13.835 -650.011 9.6742 0.0015 
365 1 1 -0.259323 0.00687976 -0.215119 0 0 0 -0.832102 0.044466 -0.350209 0 0 -0.000346714 -31.9886 -602.046 -0.670347 0.0015 
330 1 1 -0.261429 0.00953341 -0.215893 0 0 0 -0.855395 -0.0204806 -0.367526 -0.000155948 -1.84499e-05 0.000247099 20.0708 -621.498 -11.8816 0.0015 
331 1 1 -0.266696 0.0111697 -0.21802 0 0 0 -0.997399 -0.0781414 -0.42132 -8.89653e-05 -1.04774e-05 -3.51999e-05 81.7345 -718.991 -60.1413 0.0015 
320 1 1 -0.264209 0.013647 -0.216668 0 0 0 -0.96575 -0.0113562 -0.40908 -6.8598e-05 -2.49713e-05 -9.3178e-05 -43.3375 -725.717 122.039 0.0015 
301 1 1 -0.264932 0.020734 -0.215856 0 0 0 -0.896503 0.13114 -0.351911 -8.60913e-05 -3.20485e-05 -4.01883e-05 2.33131 -617.546 -236.068 0.0015 
390 1 1 -0.285741 -0.0499864 -0.214204 0 0 0 -1.2256 0.312475 -0.655473 0 0 -0.000346714 -223.057 -1009.84 -51.9399 0.0015 
423 1 1 -0.278283 -0.0447083 -0.213752 0 0 0 -1.02727 0.0545894 -0.452886 0 0 -0.000346714 -122.702 -676.694 243.802 0.0015 
367 1 1 -0.271843 -0.0394428 -0.21364 0 0 0 -0.965792 0.13985 -0.437606 0 0 -0.000346714 -165.382 -664.767 165.005 0.0015 
280 1 1 -0.256193 -0.0229576 -0.211774 0 0 0 -0.811151 0.0649304 -0.33392 -7.64882e-05 4.39796e-05 -5.04579e-05 -80.9336 -574.967 84.7973 0.0015 
141 1 1 -0.257929 -0.0180205 -0.213508 0 0 0 -0.985418 -0.0192906 -0.413353 0 0 -0.000346714 57.5697 -727.414 -101.732 0.0015 
402 1 1 -0.260221 -0.0145403 -0.213062 0 0 0 -0.934542 -0.0658687 -0.373071 0 0 -0.00160516 41.4068 -296.537 61.5389 0.0025 
307 1 1 -0.251348 -0.0104516 -0.21166 0 0 0 -0.861928 -0.0253068 -0.357377 2.69116e-05 7.74252e-05 5.76309e-05 -28.6611 -583.959 95.998 0.0015 
391 1 1 -0.257622 -0.00545828 -0.214562 0 0 0 -0.894256 -0.0608327 -0.375915 4.88052e-06 9.53778e-05 1.30884e-05 -111.049 -331.754 -93.3781 0.0015 