ITEM: TIMESTEP
55800
ITEM: NUMBER OF ATOMS
709
ITEM: BOX BOUNDS ff ff ff
-0.5 0.1
-0.2 0.2
-0.4 0.15
ITEM: ATOMS id type type x y z ix iy iz vx vy vz fx fy fz omegax omegay omegaz radius 
706 1 1 -0.0116623 0.031495 0.0516173 0 0 0 -0 0 -1 0 0 0 0 0 0 0.0025 
4 1 1 -0.486465 -0.00435 -0.383662 0 0 0 -1.31354 0.0369665 -1.75938 0 0 -0.00160516 -9.29632 -567.073 -15.9392 0.0025 
12 1 1 -0.491136 0.0289655 -0.382521 0 0 0 -1.33776 -0.03241 -1.77802 0 0 -0.000346714 127.202 -925.05 -251.424 0.0015 
17 1 1 -0.478555 0.0290913 -0.37622 0 0 0 -1.25378 0.0156372 -1.71818 0 0 -0.000346714 60.9242 -886.665 -178.752 0.0015 
18 1 1 -0.467264 0.0162371 -0.372155 0 0 0 -1.20449 -0.00308704 -1.68411 0 0 -0.000346714 -37.6135 -903.718 92.424 0.0015 
21 1 1 -0.460179 -0.00690994 -0.360115 0 0 0 -1.22066 0.000988222 -1.60327 0 0 -0.000346714 49.6369 -887.668 -122.725 0.0015 
5 1 1 -0.465453 0.0239367 -0.362891 0 0 0 -1.22063 -0.0258608 -1.63726 0 0 -0.000346714 40.8132 -862.41 -69.636 0.0015 
24 1 1 -0.463086 0.0293289 -0.357691 0 0 0 -1.22383 0.0186497 -1.60303 0 0 -0.000346714 14.4092 -872.264 -80.6741 0.0015 
26 1 1 -0.475486 0.0402381 -0.357876 0 0 0 -1.32747 0.0425561 -1.63648 0 0 -0.00160516 -32.6902 -612.822 29.8485 0.0025 
3 1 1 -0.465205 0.0196348 -0.3541 0 0 0 -1.31764 -0.0929644 -1.6185 0 0 -0.00160516 76.4224 -569.127 -84.3997 0.0025 
20 1 1 -0.456209 0.0189955 -0.354039 0 0 0 -1.23169 0.0317857 -1.57554 0 0 -0.000346714 -11.9006 -900.031 -28.6026 0.0015 
79 1 1 -0.466049 -0.00109691 -0.353087 0 0 0 -1.378 0.30525 -1.64152 0 0 -0.00160516 -176.122 -587.899 99.1921 0.0025 
8 1 1 -0.453462 -0.0016075 -0.350941 0 0 0 -1.26137 -0.0314132 -1.55827 0 0 -0.000346714 76.1638 -907.335 -125.055 0.0015 
6 1 1 -0.453297 0.00521027 -0.351023 0 0 0 -1.25132 -0.010251 -1.55826 0 0 -0.000346714 -33.5802 -913.941 95.5313 0.0015 
22 1 1 -0.450827 -0.00153206 -0.345373 0 0 0 -1.26492 -0.0120562 -1.51547 0 0 -0.000346714 1.49463 -913.023 19.2065 0.0015 
32 1 1 -0.454531 0.012283 -0.348619 0 0 0 -1.29113 -0.0028421 -1.55073 0 0 -0.000346714 20.8681 -933.198 -44.7153 0.0015 
16 1 1 -0.451869 0.0115059 -0.344314 0 0 0 -1.29763 -0.0177613 -1.5344 0 0 -0.00160516 57.8637 -529.809 -129.785 0.0025 
37 1 1 -0.455646 0.0266841 -0.3443 0 0 0 -1.28576 -0.0207153 -1.53664 0 0 -0.000346714 30.0417 -959.45 -37.3227 0.0015 
71 1 1 -0.436378 0.00288334 -0.340555 0 0 0 -1.14829 -0.0635083 -1.48471 0 0 -0.000346714 72.3421 -824.369 -110.69 0.0015 
48 1 1 -0.457613 0.0371853 -0.341649 0 0 0 -1.23544 -0.0884536 -1.55614 0 0 -0.000346714 151.646 -872.326 -212.38 0.0015 
23 1 1 -0.443251 -0.00959287 -0.334856 0 0 0 -1.23895 0.0445033 -1.4398 0 0 -0.000346714 -47.7125 -887.95 34.9517 0.0015 
75 1 1 -0.444978 0.00274473 -0.337757 0 0 0 -1.26362 -0.123618 -1.47231 0 0 -0.000346714 63.747 -912.826 47.474 0.0015 
57 1 1 -0.44201 0.0208147 -0.335382 0 0 0 -1.26408 0.111304 -1.45696 0 0 -0.000346714 -100.896 -920.057 46.3585 0.0015 
51 1 1 -0.451859 0.0398816 -0.335285 0 0 0 -1.21526 -0.0745945 -1.51484 0 0 -0.000346714 131.495 -873.56 -184.238 0.0015 
138 1 1 -0.446383 -0.0356234 -0.33069 0 0 0 -1.28577 -0.0975923 -1.44628 0 0 -0.000346714 175.539 -861.909 106.915 0.0015 
14 1 1 -0.447177 -0.0223296 -0.333948 0 0 0 -1.28167 -0.0139118 -1.45662 0 0 -0.00160516 8.61766 -562.419 -4.83414 0.0025 
35 1 1 -0.440368 -0.00753218 -0.332515 0 0 0 -1.23142 0.0450788 -1.42173 0 0 -0.000346714 -69.7978 -876.085 94.5709 0.0015 
42 1 1 -0.437092 -0.0152587 -0.326931 0 0 0 -1.33211 -0.2013 -1.42185 0 0 -0.00160516 109.87 -576.939 -51.5609 0.0025 
10 1 1 -0.411781 -0.00616875 -0.314905 0 0 0 -1.08588 0.0255981 -1.34419 0 0 -0.000346714 8.62949 -715.818 131.799 0.0015 
113 1 1 -0.420925 0.0171606 -0.312952 0 0 0 -1.25852 0.167329 -1.29244 0 0 -0.000346714 -194.603 -924.024 170.121 0.0015 
76 1 1 -0.409109 -0.0110686 -0.307886 0 0 0 -1.09231 -0.13439 -1.21857 0 0 -0.000346714 92.8442 -788.275 14.2557 0.0015 
56 1 1 -0.415448 0.0102403 -0.308231 0 0 0 -1.24774 0.0347759 -1.25921 0 0 -0.000346714 -69.6708 -911.978 103.154 0.0015 
55 1 1 -0.421338 0.0225832 -0.309 0 0 0 -1.2534 -0.0834902 -1.28958 0 0 -0.00160516 19.7338 -540.88 -1.90988 0.0025 
52 1 1 -0.417027 -0.00590546 -0.306828 0 0 0 -1.22838 0.0816529 -1.2323 0 0 -0.00160516 -60.2016 -512.405 63.3718 0.0025 
28 1 1 -0.413912 0.0057127 -0.3063 0 0 0 -1.24819 0.014326 -1.25807 0 0 -0.00160516 -59.8863 -541.768 76.586 0.0025 
34 1 1 -0.425252 0.0243821 -0.309428 0 0 0 -1.41482 -0.192511 -1.50057 0 0 -0.000346714 493.877 -684.048 -258.406 0.0015 
50 1 1 -0.409467 -0.000122365 -0.302147 0 0 0 -1.22769 0.0717969 -1.19942 0 0 -0.000346714 -20.5329 -889.797 -76.0856 0.0015 
49 1 1 -0.411102 0.0100251 -0.302776 0 0 0 -1.21594 0.0273208 -1.17916 0 0 -0.000346714 -2.95137 -858.897 -124.859 0.0015 
96 1 1 -0.407118 0.0089586 -0.302113 0 0 0 -1.19581 0.0233573 -1.20128 0 0 -0.000346714 98.111 -850.536 -269.484 0.0015 
78 1 1 -0.418372 0.0240268 -0.3022 0 0 0 -1.28145 -0.0805766 -1.24695 0 0 -0.00160516 53.9726 -553.987 -53.888 0.0025 
41 1 1 -0.407101 -0.00520738 -0.298363 0 0 0 -1.21901 0.141039 -1.18401 0 0 -0.00160516 -90.0438 -515.039 74.5683 0.0025 
46 1 1 -0.409084 0.0186287 -0.299441 0 0 0 -1.25892 -0.0445232 -1.20733 0 0 -0.000346714 58.0925 -913.663 -61.0714 0.0015 
174 1 1 -0.428509 -0.0433089 -0.294531 0 0 0 -1.38865 0.146671 -1.28014 0 0 -0.000346714 -250.031 -903.892 387.194 0.0015 
107 1 1 -0.40102 -0.00777614 -0.294287 0 0 0 -1.20273 0.108717 -1.164 0 0 -0.00160516 -56.9293 -506.666 -9.08631 0.0025 
25 1 1 -0.399182 0.00573028 -0.29293 0 0 0 -1.24851 0.0261982 -1.13258 0 0 -0.000346714 -60.0562 -912.014 95.3081 0.0015 
19 1 1 -0.395019 0.00644059 -0.293015 0 0 0 -1.20978 0.000488063 -1.15036 0 0 -0.000346714 5.80892 -834.78 -69.1373 0.0015 
40 1 1 -0.404074 0.0242817 -0.291089 0 0 0 -1.26232 -0.0794454 -1.16256 0 0 -0.00160516 24.5492 -581.951 25.5622 0.0025 
60 1 1 -0.398582 -0.00635769 -0.287698 0 0 0 -1.2223 0.0893583 -1.01045 0 0 -0.000346714 -56.6924 -815.658 -85.2318 0.0015 
39 1 1 -0.391172 -0.00275962 -0.284355 0 0 0 -1.21561 0.0585228 -1.05052 0 0 -0.00160516 -19.8868 -526.821 -12.8098 0.0025 
111 1 1 -0.386728 -0.00559664 -0.281323 0 0 0 -1.25302 0.0696824 -1.02737 0 0 -0.000346714 -85.679 -900.298 85.1638 0.0015 
102 1 1 -0.397537 0.0380908 -0.279607 0 0 0 -1.25929 -0.0282837 -1.06099 0 0 -0.000346714 57.9866 -954.03 -94.2035 0.0015 
7 1 1 -0.374577 -0.012815 -0.276724 0 0 0 -1.01188 0.396983 -1.03881 0 0 -0.000346714 -433.814 -624.856 371.752 0.0015 
1 1 1 -0.383446 -0.00594743 -0.276695 0 0 0 -1.25756 0.0823184 -0.986533 0 0 -0.00160516 -80.3433 -534.057 111.987 0.0025 
120 1 1 -0.415538 -0.0154477 -0.27418 0 0 0 -1.46795 -0.0787227 -1.0667 0 0 -0.00160516 68.5391 360.736 -3.49879 0.0025 
129 1 1 -0.370426 0.0102256 -0.27043 0 0 0 -1.0715 -0.0529995 -0.894209 0 0 -0.00160516 59.257 -278.556 -70.1664 0.0025 
29 1 1 -0.368105 0.000245256 -0.267326 0 0 0 -1.2138 -0.0533211 -0.887528 0 0 -0.00160516 37.3982 -526.679 -33.1236 0.0025 
81 1 1 -0.365544 0.0095352 -0.266867 0 0 0 -1.13802 0.0508109 -0.852256 0 0 -0.000346714 -22.8756 -823.707 -33.2889 0.0015 
114 1 1 -0.366215 -0.0216819 -0.265087 0 0 0 -1.29154 0.138004 -0.951581 0 0 -0.000346714 -177.256 -902.318 191.707 0.0015 
87 1 1 -0.361931 -0.0183513 -0.2658 0 0 0 -1.14688 0.112103 -0.934684 0 0 -0.000346714 -95.6221 -653.381 131.349 0.0015 
33 1 1 -0.36208 0.00553998 -0.265463 0 0 0 -1.12847 -0.0441989 -0.853882 0 0 -0.000346714 20.3045 -790.454 -101.48 0.0015 
70 1 1 -0.362761 0.00916741 -0.263479 0 0 0 -1.1916 -0.010934 -0.81243 0 0 -0.000346714 30.1272 -846.192 -96.9348 0.0015 
82 1 1 -0.358172 0.0163049 -0.25968 0 0 0 -1.23143 -0.0741231 -0.813237 0 0 -0.000346714 -29.9445 -944.1 197.417 0.0015 
69 1 1 -0.366255 0.0294855 -0.262021 0 0 0 -1.15688 0.0501623 -0.815341 0 0 -0.000346714 4.34776 -838.832 -104.978 0.0015 
45 1 1 -0.366228 -0.0333442 -0.259695 0 0 0 -1.03471 0.341643 -0.914688 0 0 -0.000346714 -276.055 -792.101 37.7484 0.0015 
27 1 1 -0.361517 -0.0205995 -0.257957 0 0 0 -1.22138 0.0677168 -0.779072 0 0 -0.00160516 -2.99417 -474.149 -2.65371 0.0025 
171 1 1 -0.357103 -0.0217815 -0.25855 0 0 0 -1.19072 0.0900565 -0.820403 0 0 -0.000346714 -20.8638 -869.319 -74.2511 0.0015 
152 1 1 -0.350624 0.00351928 -0.25673 0 0 0 -1.16893 -0.0586856 -0.737731 0 0 -0.000346714 1.19702 -854.343 96.3749 0.0015 
105 1 1 -0.353859 -0.0185011 -0.25419 0 0 0 -1.33838 0.132325 -0.782478 0 0 -0.00160516 -51.181 -589.493 -14.4579 0.0025 
98 1 1 -0.346311 -0.0182326 -0.25166 0 0 0 -1.23145 0.00742095 -0.68437 0 0 -0.000346714 -28.5849 -890.559 58.3764 0.0015 
53 1 1 -0.346099 0.00313843 -0.252995 0 0 0 -1.13425 0.00110134 -0.685811 0 0 -0.00160516 -16.8268 -496.557 37.4088 0.0025 
99 1 1 -0.344389 0.00891944 -0.253518 0 0 0 -1.08037 -0.0661912 -0.782789 0 0 -0.000346714 169.819 -626.796 -14.1058 0.0015 
44 1 1 -0.342535 0.00753781 -0.251056 0 0 0 -1.16163 -0.0650147 -0.548821 0 0 -0.000346714 55.0474 -741.588 28.6765 0.0015 
43 1 1 -0.359365 0.0404994 -0.253929 0 0 0 -1.17401 -0.00652347 -0.843026 0 0 -0.000346714 218.147 -602.343 -229.085 0.0015 
164 1 1 -0.332137 -0.0120282 -0.245878 0 0 0 -0.89004 -0.162454 -0.459583 0 0 -0.000346714 163.798 49.1603 -85.2408 0.0015 
104 1 1 -0.340784 0.000159058 -0.249519 0 0 0 -1.2476 0.0536797 -0.652557 0 0 -0.00160516 -43.105 -536.888 47.8404 0.0025 
108 1 1 -0.335475 0.00405224 -0.24801 0 0 0 -1.17115 -0.0186925 -0.609177 0 0 -0.000346714 53.0665 -843.9 -92.6534 0.0015 
77 1 1 -0.340011 0.014534 -0.248334 0 0 0 -1.15269 -0.154881 -0.659671 0 0 -0.00160516 53.5331 -515.472 33.6965 0.0025 
140 1 1 -0.342738 0.0177818 -0.250256 0 0 0 -1.17201 -0.157875 -0.688062 0 0 -0.000346714 100.145 -868.861 36.5402 0.0015 
137 1 1 -0.356823 0.037958 -0.249139 0 0 0 -1.1782 -0.0649507 -0.643348 0 0 -0.000346714 60.2564 -867.776 -0.874001 0.0015 
165 1 1 -0.339413 -0.0243056 -0.247024 0 0 0 -1.14294 0.121721 -0.633536 0 0 -0.000346714 -118.131 -839.428 72.9318 0.0015 
84 1 1 -0.330291 -0.0206311 -0.243122 0 0 0 -1.17231 0.0404053 -0.536536 0 0 -0.000346714 -56.6149 -842.322 68.5345 0.0015 
97 1 1 -0.325203 -0.00370574 -0.24302 0 0 0 -1.1773 -0.00659504 -0.502925 0 0 -0.000346714 12.6647 -850.067 -18.75 0.0015 
91 1 1 -0.332864 0.00523638 -0.245193 0 0 0 -1.25865 8.78585e-05 -0.580482 0 0 -0.00160516 30.0844 -526.381 -59.553 0.0025 
58 1 1 -0.331758 0.00909711 -0.247224 0 0 0 -0.94902 0.0198305 -0.678156 0 0 -0.000346714 155.641 -677.146 71.2123 0.0015 
115 1 1 -0.332575 0.0120711 -0.245982 0 0 0 -1.05783 0.0237803 -0.519314 0 0 -0.000346714 54.4753 -711.091 -123.131 0.0015 
88 1 1 -0.332412 0.0166436 -0.245192 0 0 0 -1.03177 -0.0126335 -0.528421 0 0 -0.000346714 13.715 -756.334 -11.7799 0.0015 
64 1 1 -0.341062 0.0305757 -0.245808 0 0 0 -1.13601 -0.0425118 -0.622805 0 0 -0.000346714 126.092 -780.116 -229.565 0.0015 
139 1 1 -0.33855 0.0272223 -0.245665 0 0 0 -1.14571 -0.123245 -0.63484 0 0 -0.000346714 62.6153 -891.181 71.8998 0.0015 
122 1 1 -0.327893 -0.0229433 -0.241587 0 0 0 -1.22551 0.109821 -0.541879 0 0 -0.000346714 -103.183 -884.077 62.6917 0.0015 
166 1 1 -0.322472 -0.00423348 -0.241846 0 0 0 -1.2127 0.00954548 -0.49486 0 0 -0.000346714 -2.37997 -874.943 -10.4776 0.0015 
103 1 1 -0.318887 -0.00491477 -0.239277 0 0 0 -1.19833 -0.0479104 -0.483484 -0.000221755 4.07531e-05 -0.000278681 15.9747 -517.574 11.5602 0.0025 
63 1 1 -0.323523 0.0011309 -0.242503 0 0 0 -1.10933 0.035983 -0.480718 0 0 -0.000346714 9.74113 -799.623 -84.2586 0.0015 
135 1 1 -0.324765 0.0133887 -0.242197 0 0 0 -1.2473 -0.113646 -0.564581 0 0 -0.000346714 124.573 -897.878 -97.7638 0.0015 
80 1 1 -0.327118 0.0183986 -0.241151 0 0 0 -1.12165 -0.029336 -0.511998 0 0 -0.00160516 25.5936 -489.149 -30.692 0.0025 
133 1 1 -0.329917 -0.0375697 -0.237826 0 0 0 -0.88396 -0.0592736 -0.372027 0 0 -0.000346714 -9.68419 -615.26 140.855 0.0015 
149 1 1 -0.322669 -0.029362 -0.237665 0 0 0 -1.20059 0.0745144 -0.487981 0 0 -0.000346714 -89.3031 -861.97 98.2465 0.0015 
117 1 1 -0.324723 -0.024644 -0.238905 0 0 0 -1.22159 0.0831463 -0.596906 0 0 -0.00160516 -71.1163 -523.309 82.5065 0.0025 
66 1 1 -0.316899 -0.0146777 -0.237432 0 0 0 -1.20493 0.12629 -0.547001 0 0 -0.00160516 -75.7599 -517.498 51.0569 0.0025 
128 1 1 -0.310073 -0.00522227 -0.236702 0 0 0 -1.17335 0.0689904 -0.497197 -8.85475e-05 7.45906e-06 -3.75614e-05 -33.0189 -851.258 -40.1968 0.0015 
116 1 1 -0.313479 -0.00175489 -0.23718 0 0 0 -1.1363 -0.0885662 -0.476549 -0.000430068 3.63392e-05 -0.000128526 36.5124 -493.84 4.7153 0.0025 
94 1 1 -0.316866 0.0101544 -0.23803 0 0 0 -1.20575 -0.370051 -0.530446 -0.000413956 -6.26255e-05 -0.000180643 200.644 -518.584 -94.2328 0.0025 
83 1 1 -0.321829 0.0239628 -0.238881 0 0 0 -1.09897 0.00644371 -0.457874 -5.6909e-05 -3.37608e-05 -0.000104512 -12.6566 -810.863 18.8353 0.0015 
121 1 1 -0.347342 -0.0505176 -0.237326 0 0 0 -1.07616 0.412799 -0.790453 0 0 -0.000346714 -331.159 -939.075 -28.2489 0.0015 
74 1 1 -0.32012 -0.0374173 -0.233692 0 0 0 -1.15753 0.238381 -0.588796 0 0 -0.000346714 -167.03 -903.174 -34.411 0.0015 
106 1 1 -0.314794 -0.0221705 -0.235215 0 0 0 -1.26498 0.223768 -0.554573 0 0 -0.00160516 -118.197 -543.483 54.2865 0.0025 
100 1 1 -0.306641 -0.00787777 -0.235146 0 0 0 -1.17259 -0.0911044 -0.483951 -5.88044e-05 1.71033e-05 -8.3252e-05 83.5614 -857.347 -41.2461 0.0015 
203 1 1 -0.303508 -0.00937422 -0.233664 0 0 0 -1.11883 0.0100141 -0.471755 -8.81654e-05 2.29755e-05 -3.79565e-05 -55.6687 -801.141 115.02 0.0015 
13 1 1 -0.301545 -0.00342915 -0.232084 0 0 0 -1.08814 -0.0932801 -0.456219 -0.000423612 3.52105e-05 -0.000137962 60.124 -474.681 -46.369 0.0025 
54 1 1 -0.307463 0.00971095 -0.234097 0 0 0 -1.068 -0.0406739 -0.453649 4.09987e-05 -0.000175338 -0.000731283 38.13 -454.575 -41.9709 0.0025 
185 1 1 -0.304063 0.00752115 -0.233766 0 0 0 -1.07884 -0.113561 -0.423867 0 0 -0.000346714 96.9904 -727.991 40.7957 0.0015 
62 1 1 -0.306137 0.0137484 -0.234319 0 0 0 -1.2066 -0.0540271 -0.513882 -8.53111e-05 -3.9775e-05 -4.30878e-05 61.6964 -875.719 -52.7952 0.0015 
112 1 1 -0.300649 -0.0260139 -0.229533 0 0 0 -1.10092 0.12959 -0.470559 0 0 -0.000346714 -180.03 -752.784 222.386 0.0015 
93 1 1 -0.302999 -0.0145528 -0.231782 0 0 0 -1.14443 0.000917983 -0.451454 -0.00163958 0.000573165 0.00288361 -14.5542 -492.347 35.9286 0.0025 
243 1 1 -0.29351 -0.0140978 -0.228944 0 0 0 -1.14064 0.196458 -0.500752 -8.90299e-05 2.32175e-05 -3.5516e-05 -196.568 -815.45 127.833 0.0015 
110 1 1 -0.296077 0.00242026 -0.230724 0 0 0 -0.967432 -0.233521 -0.377961 0 0 -0.000346714 -114.127 -323.735 -66.2855 0.0015 
187 1 1 -0.288929 0.00481026 -0.227675 0 0 0 -0.838105 0.232859 -0.3389 1.71689e-05 2.18456e-05 7.83521e-06 -182.531 -450.719 -71.9838 0.0015 
68 1 1 -0.294334 0.00549515 -0.228521 0 0 0 -1.11983 -0.0166148 -0.38078 0 0 -0.00160516 7.36022 -441.73 -53.7089 0.0025 
158 1 1 -0.300095 0.00671318 -0.231178 0 0 0 -1.18147 -0.0513361 -0.501898 -0.000354114 -5.26067e-05 -0.000316446 36.6043 -512.032 -33.7903 0.0025 
130 1 1 -0.300002 0.0156943 -0.230282 0 0 0 -1.16326 -0.295252 -0.542497 -0.000328472 -0.000143694 -0.000382761 168.211 -494.77 -91.3745 0.0025 
159 1 1 -0.295855 -0.0229718 -0.228313 0 0 0 -1.04869 0.104294 -0.435902 -8.6233e-05 4.79236e-05 -2.42212e-05 -54.0301 -779.124 -56.5475 0.0015 
169 1 1 -0.285318 0.00240225 -0.225221 0 0 0 -0.937867 0.0787483 -0.390215 -0.000411285 -6.26693e-05 -0.000169385 -52.3635 -410.87 42.942 0.0025 
163 1 1 -0.281202 0.000682608 -0.224682 0 0 0 -0.90024 0.00413508 -0.379126 1.52318e-05 2.96589e-05 8.53677e-06 4.25963 -601.983 -56.2591 0.0015 
172 1 1 -0.283253 0.012206 -0.224829 0 0 0 -0.906265 0.212273 -0.362069 -8.70799e-05 -1.19615e-05 -3.66294e-05 -185.461 -659.276 77.6936 0.0015 
269 1 1 -0.289052 0.0117583 -0.227281 0 0 0 -1.27789 -0.103675 -0.544719 -8.3802e-05 -1.21687e-05 -8.68507e-05 195.779 -908.141 -285.708 0.0015 
190 1 1 -0.291291 0.0171206 -0.227469 0 0 0 -1.09361 0.0364654 -0.449875 0 0 -0.000346714 -44.8203 -739.399 20.0588 0.0015 
196 1 1 -0.291361 0.0238119 -0.225155 0 0 0 -1.15456 0.0138654 -0.467247 -0.000297481 -0.000130171 -0.000441605 4.21487 -501.514 -25.4197 0.0025 
233 1 1 -0.288527 -0.0261906 -0.223508 0 0 0 -1.15952 0.119207 -0.483644 -0.00323096 0.00265024 0.00776544 -89.2915 -489.91 92.999 0.0025 
65 1 1 -0.282783 -0.00424131 -0.224141 0 0 0 -0.921996 -0.0378927 -0.387303 -0.000400492 3.30418e-05 -0.000178754 41.1884 -402.676 -58.6069 0.0025 
131 1 1 -0.278294 -0.00277926 -0.222296 0 0 0 -0.941067 0.0440618 -0.398803 -0.000469754 8.38165e-05 -5.15263e-05 -30.1101 -408.336 26.3493 0.0025 
151 1 1 -0.27927 0.00282617 -0.223731 0 0 0 -0.933632 0.0422596 -0.390343 -0.000136585 -2.03143e-05 5.44373e-05 27.0846 -668.282 -137.01 0.0015 
95 1 1 -0.277043 0.00097024 -0.222909 0 0 0 -0.949052 0.0490509 -0.399977 2.66663e-05 -1.55652e-05 -0.000136282 -83.4635 -694.32 112.143 0.0015 
148 1 1 -0.282178 0.0050223 -0.224816 0 0 0 -1.23135 -0.142536 -0.529388 -0.000232587 -3.59127e-05 0.000302061 54.4395 -901.905 116.609 0.0015 
199 1 1 -0.284721 0.0243508 -0.223443 0 0 0 -0.995532 -0.230285 -0.469644 -0.000382553 -0.000270194 0.00160811 218.898 -708.332 -119.349 0.0015 
89 1 1 -0.297174 0.0371737 -0.2247 0 0 0 -1.09867 -0.307856 -0.550553 0 0 -0.000346714 265.521 -795.363 -87.1495 0.0015 
150 1 1 -0.272262 -0.0226276 -0.218637 0 0 0 -1.03531 -0.0962483 -0.416818 -0.000115203 5.73898e-05 4.58374e-05 -51.1915 -704.91 290.196 0.0015 
90 1 1 -0.27052 -0.00284832 -0.219026 0 0 0 -1.00483 0.0102987 -0.419994 -0.000545743 7.89802e-05 0.000280662 8.73204 -437.134 -31.7068 0.0025 
153 1 1 -0.265003 -0.000265008 -0.217872 0 0 0 -0.7555 -0.079182 -0.32492 -8.89755e-05 -9.81477e-06 -3.83031e-05 -15.7088 -556.164 172.061 0.0015 
92 1 1 -0.280079 0.0189751 -0.221314 0 0 0 -1.00163 -0.19266 -0.465132 0 0 -0.00160516 111.348 -427.92 -64.5495 0.0025 
136 1 1 -0.275893 0.0170793 -0.220974 0 0 0 -1.10458 -0.169568 -0.485691 0 0 -0.000346714 175.538 -785.102 -124.883 0.0015 
161 1 1 -0.276169 0.0202632 -0.220476 0 0 0 -0.987528 -0.139582 -0.448739 0 0 -0.000346714 96.7471 -671.432 -20.39 0.0015 
67 1 1 -0.281481 0.0237785 -0.221079 0 0 0 -0.996757 -0.188188 -0.438947 9.94572e-05 4.57753e-05 0.000601947 86.4358 -429.715 -13.9832 0.0025 
289 1 1 -0.279019 0.0272069 -0.220206 0 0 0 -1.17596 0.103834 -0.440323 0 0 -0.000346714 -138.488 -796.725 3.94382 0.0015 
173 1 1 -0.281933 0.0294677 -0.220946 0 0 0 -0.940514 -0.222409 -0.463591 -8.53734e-05 -6.12935e-05 -4.15398e-05 202.013 -681.59 -82.8176 0.0015 
204 1 1 -0.288398 0.0430656 -0.218611 0 0 0 -0.907144 -0.0891568 -0.408104 0 0 -0.000346714 134.378 -628.047 -169.131 0.0015 
256 1 1 -0.28589 -0.0419393 -0.218093 0 0 0 -1.24253 0.203863 -0.584544 0 0 -0.000346714 -151.808 -938.598 4.00978 0.0015 
15 1 1 -0.264896 -0.0149776 -0.215726 0 0 0 -0.792432 0.0041336 -0.329923 -0.000132876 0.000307738 0.000117319 -0.436307 -240.103 67.8089 0.0025 
127 1 1 -0.258466 -0.0114698 -0.21442 0 0 0 -0.736682 0.00729986 -0.303346 0 0 -0.000346714 -21.9305 -393.076 -45.5321 0.0015 
101 1 1 -0.261164 -0.00887602 -0.215913 0 0 0 -0.792691 0.0330636 -0.337532 -8.90611e-05 9.28351e-06 -3.76665e-05 -75.7554 -569.371 122.135 0.0015 
167 1 1 -0.261541 -0.00166458 -0.215287 0 0 0 -0.949155 -0.0449463 -0.396355 -0.000410888 3.73734e-05 -0.000178127 13.8872 -411.755 13.442 0.0025 
213 1 1 -0.256772 0.000917521 -0.214084 0 0 0 -0.845715 -0.0117687 -0.359041 0 0 -0.000346714 -7.59364 174.936 6.38198 0.0015 
210 1 1 -0.26171 0.0157199 -0.214203 0 0 0 -1.00693 0.05749 -0.407687 -0.000396608 -0.000138879 -0.000238687 8.95409 -427.963 -82.3888 0.0025 
175 1 1 -0.265062 0.0168973 -0.216514 0 0 0 -0.94011 -0.100107 -0.419278 8.2104e-05 -9.28853e-06 9.69386e-05 45.3589 -697.148 66.1511 0.0015 
179 1 1 -0.307714 -0.0615459 -0.214392 0 0 0 -1.01279 0.423598 -0.781979 0 0 -0.000346714 -444.999 -735.092 221.74 0.0015 
143 1 1 -0.26287 -0.0285119 -0.212139 0 0 0 -1.07466 0.128594 -0.496511 0 0 -0.00160516 -105.056 -440.777 127.454 0.0025 
177 1 1 -0.262123 -0.0227316 -0.21428 0 0 0 -1.03383 0.152354 -0.490065 0 0 -0.000346714 -108.857 -758.465 -6.63017 0.0015 
193 1 1 -0.257159 -0.0194312 -0.211409 0 0 0 -0.844312 -0.09566 -0.399826 0 0 -0.00160516 34.4809 -326.255 41.965 0.0025 
157 1 1 -0.261836 -0.0178646 -0.21303 0 0 0 -0.853894 -0.101764 -0.370957 0.000254406 -0.000371254 -0.000888111 139.148 -122.34 41.3475 0.0025 
205 1 1 -0.251762 -0.0144569 -0.211269 0 0 0 -1.05977 0.0502954 -0.481726 0 0 -0.000346714 7.77852 -784.389 -110.572 0.0015 
197 1 1 -0.265532 -0.00894499 -0.213611 0 0 0 -0.813839 0.116965 -0.486256 0 0 -0.000346714 42.3068 261.714 93.1393 0.0015 
182 1 1 -0.255275 -0.0105639 -0.211925 0 0 0 -0.710075 -0.0250927 -0.256879 0 0 -0.00160516 9.81621 -98.9964 49.3397 0.0025 
191 1 1 -0.252365 -0.00294659 -0.212359 0 0 0 -0.780195 -0.0228294 -0.328874 0 0 -0.000346714 -52.0577 -482.728 176.771 0.0015 
73 1 1 -0.253154 0.000190816 -0.212818 0 0 0 -0.859204 0.00114575 -0.365528 -8.90447e-05 -8.7051e-06 -3.81898e-05 -9.79436 -624.153 21.0668 0.0015 
123 1 1 -0.253536 0.00320033 -0.212856 0 0 0 -0.967838 -0.0319459 -0.41318 -8.99609e-05 -8.81122e-06 -3.52007e-05 45.6202 -699.904 -52.7517 0.0015 
189 1 1 -0.248977 0.00140359 -0.210992 0 0 0 -0.966617 -0.0919887 -0.415041 -0.000242362 -2.37724e-05 0.000233368 65.7265 -702.34 2.59734 0.0015 
208 1 1 -0.253917 0.0112645 -0.211581 0 0 0 -0.864147 0.0837886 -0.356949 -0.000348505 -3.40155e-05 -0.000352989 -26.5162 -374.074 -23.6395 0.0025 
184 1 1 -0.263313 0.0335929 -0.212098 0 0 0 -1.15164 -0.182824 -0.527619 0 0 -0.000346714 158.282 -840.022 -55.5261 0.0015 
198 1 1 -0.265829 -0.0418908 -0.21028 0 0 0 -1.01986 -0.0429176 -0.453127 0 0 -0.000346714 43.3707 -775.282 -22.0026 0.0015 
221 1 1 -0.252305 -0.0263402 -0.208386 0 0 0 -1.0495 0.0956904 -0.423425 0.000367793 -0.000274586 -0.00253055 -51.8179 -453.338 27.4496 0.0025 
183 1 1 -0.249036 -0.0183358 -0.208423 0 0 0 -0.908855 0.0525211 -0.398776 0 0 -0.00160516 -15.8353 -397.677 -16.9682 0.0025 
59 1 1 -0.246149 -0.0077773 -0.209605 0 0 0 -1.01257 0.00609854 -0.425745 3.52533e-05 2.59898e-05 -0.00038398 36.9356 -737.908 -97.8144 0.0015 
132 1 1 -0.24488 -0.00357054 -0.208196 0 0 0 -0.913031 -0.0318677 -0.381419 -0.000428322 5.0126e-05 -0.000126946 9.69702 -396.267 9.89372 0.0025 
119 1 1 -0.242791 0.0056009 -0.207137 0 0 0 -0.912679 0.0141221 -0.387619 -0.000365328 -3.08332e-05 -0.000290221 11.6778 -395.676 -41.902 0.0025 
192 1 1 -0.248391 0.0214507 -0.20886 0 0 0 -1.0536 -0.0573927 -0.446965 -0.000203542 -7.55206e-05 0.000262602 93.8233 -749.428 -125.571 0.0015 
214 1 1 -0.254483 -0.0417062 -0.205718 0 0 0 -1.08331 -0.0170405 -0.411193 -0.00146088 0.00136905 0.00397313 10.2485 -825.043 -10.9398 0.0015 
211 1 1 -0.236347 -0.0210509 -0.203846 0 0 0 -0.839428 0.102039 -0.388496 0 0 -0.000346714 -181.714 -565.227 253.317 0.0015 
225 1 1 -0.23936 -0.0145278 -0.20612 0 0 0 -0.878561 -0.142854 -0.395058 0 0 -0.000346714 -29.3858 -141.472 22.7747 0.0015 
181 1 1 -0.236413 -0.0129105 -0.203549 0 0 0 -0.899997 0.0135808 -0.379807 0 0 -0.00160516 -36.6716 -339.216 87.2129 0.0025 
206 1 1 -0.239985 -0.00870769 -0.204721 0 0 0 -0.985144 0.013844 -0.42564 0 0 -0.00160516 -19.7547 -352.214 2.81544 0.0025 
126 1 1 -0.236078 -0.00732109 -0.204398 0 0 0 -0.976205 0.101991 -0.494903 0 0 -0.000346714 -335.808 -339.441 -48.1145 0.0015 
144 1 1 -0.239079 -0.00377001 -0.205761 0 0 0 -0.932074 0.0148846 -0.394837 -0.00280357 0.000340879 0.00604815 -33.5779 -404.605 64.656 0.0025 
155 1 1 -0.234083 0.000776944 -0.203638 0 0 0 -0.920864 -0.0445171 -0.394573 0.000462359 -0.000178682 -0.00228909 8.26527 -401.536 25.9424 0.0025 
178 1 1 -0.236716 0.0114136 -0.205387 0 0 0 -0.976432 -0.0479411 -0.421936 -8.63238e-05 -2.73755e-05 -4.4676e-05 71.2431 -701.74 -85.1367 0.0015 
9 1 1 -0.243148 0.0186723 -0.207064 0 0 0 -0.910367 -0.244105 -0.408523 1.08876e-05 -3.88113e-05 -0.00018566 254.617 -570.129 -135.624 0.0015 
276 1 1 -0.237011 0.0192877 -0.204444 0 0 0 -0.791087 -0.10825 -0.329244 -0.000570262 -0.000176267 0.000406076 23.6355 -594.077 132.147 0.0015 
224 1 1 -0.239341 0.024643 -0.204561 0 0 0 -1.03792 0.0208041 -0.430689 -1.21441e-06 2.76514e-06 -0.00026889 2.40756 -759.126 -43.9722 0.0015 
212 1 1 -0.251115 0.0334026 -0.207144 0 0 0 -1.06696 0.0453469 -0.421476 -8.13381e-05 -5.26972e-05 -4.74083e-05 61.3336 -729.138 -233.713 0.0015 
194 1 1 -0.279389 -0.0619786 -0.203065 0 0 0 -1.02335 0.342384 -0.588963 -0.000123854 4.59006e-05 -0.00133705 -239.793 -385.394 193.23 0.0025 
168 1 1 -0.232613 -0.00416086 -0.20298 0 0 0 -0.849601 -0.045505 -0.349019 8.46123e-05 -9.36688e-05 1.30727e-05 40.4004 -288.217 9.8924 0.0025 
247 1 1 -0.227586 -0.00531922 -0.200804 0 0 0 -0.785609 -0.0174239 -0.327284 0.000159605 0.000105475 0.000656606 19.4598 35.1341 9.47189 0.0025 
180 1 1 -0.229123 0.000491943 -0.201521 0 0 0 -0.936911 -0.00940639 -0.401543 -0.0004446 -2.60654e-05 -0.000103516 24.6148 -406.926 -47.9167 0.0025 
216 1 1 -0.223874 0.00121967 -0.200341 0 0 0 -0.884344 0.0162093 -0.371701 9.34426e-05 4.83894e-06 -0.000563357 -13.7484 -640.032 4.36413 0.0015 
202 1 1 -0.229224 0.00590634 -0.202515 0 0 0 -0.775181 -0.0288754 -0.332484 -9.01608e-05 -5.25123e-06 -3.89711e-05 -27.5002 -565.404 113.174 0.0015 
201 1 1 -0.225873 0.00413102 -0.201125 0 0 0 -0.689999 -0.0170062 -0.298261 -9.27381e-06 0.0001217 0.000152678 -152.628 -334.298 81.0607 0.0015 
217 1 1 -0.225917 0.00793943 -0.200433 0 0 0 -0.877879 0.131834 -0.358265 0 0 -0.000346714 -319.488 -393.29 -113.062 0.0015 
228 1 1 -0.230122 0.0107871 -0.202636 0 0 0 -0.87599 0.0751506 -0.48192 0 0 -0.000346714 -42.7906 -552.098 -196.471 0.0015 
239 1 1 -0.223882 0.0104945 -0.199975 0 0 0 -0.806708 0.128063 -0.37989 0 0 -0.000346714 79.9853 -25.2719 -42.9353 0.0015 
244 1 1 -0.234968 0.0144342 -0.203125 0 0 0 -1.02562 0.00766452 -0.435422 0 0 -0.00160516 18.7578 -439.219 -54.2292 0.0025 
262 1 1 -0.227863 0.0184931 -0.200704 0 0 0 -1.10081 0.0474002 -0.449473 -9.13482e-05 -2.86669e-05 -2.77962e-05 -27.8156 -798.311 -16.0619 0.0015 
287 1 1 -0.230762 0.0246909 -0.20096 0 0 0 -0.899967 0.187409 -0.333426 1.66018e-05 -2.64417e-05 7.71599e-07 -174.577 -380.51 -106.555 0.0015 
188 1 1 -0.223978 -0.0297646 -0.196883 0 0 0 -0.96444 -0.04326 -0.404185 -0.000351783 0.000237675 0.00104362 46.648 -724.427 -37.0234 0.0015 
219 1 1 -0.231334 -0.0260269 -0.199659 0 0 0 -1.09908 0.155235 -0.482101 -0.000208074 4.51722e-05 -0.000665689 -102.283 -466.823 83.3782 0.0025 
259 1 1 -0.225481 -0.0254369 -0.197359 0 0 0 -1.00107 -0.0438873 -0.410165 -0.000986719 0.000466434 0.000411686 -5.23692 -431.149 58.7367 0.0025 
218 1 1 -0.228233 -0.0235118 -0.199998 0 0 0 -0.976542 0.0368098 -0.408058 -0.000121047 3.55036e-05 1.94864e-05 -46.1354 -707.172 47.3823 0.0015 
145 1 1 -0.225732 -0.0174636 -0.198969 0 0 0 -0.973465 0.0406094 -0.416061 -0.000305914 5.1829e-05 -0.000689165 -5.61708 -427.153 -27.9704 0.0025 
232 1 1 -0.220851 -0.00965321 -0.197595 0 0 0 -0.914187 -0.00292916 -0.378593 -0.000402901 8.86828e-05 -0.000173686 1.44045 -397.565 -0.40277 0.0025 
268 1 1 -0.218522 0.0106835 -0.197743 0 0 0 -0.936215 0.0213545 -0.39686 -8.98202e-05 -2.55024e-05 -4.01744e-05 27.7706 -670.807 -101.599 0.0015 
109 1 1 -0.210997 -0.010094 -0.194549 0 0 0 -0.814306 0.04899 -0.354785 -0.000104208 2.63159e-05 1.19245e-05 -65.9187 -586.53 70.3738 0.0015 
266 1 1 -0.208188 -0.00756618 -0.193581 0 0 0 -0.806723 0.0229385 -0.330006 0 0 -0.000346714 -9.40218 -525.408 173.971 0.0015 
147 1 1 -0.211478 -0.00575139 -0.195064 0 0 0 -0.864993 0.0412645 -0.348377 0 0 -0.000346714 1.13038 -623.355 -19.2087 0.0015 
124 1 1 -0.211448 -0.00271232 -0.195133 0 0 0 -0.794857 0.0589507 -0.349369 0 0 -0.000346714 14.6163 -566.411 -26.6202 0.0015 
249 1 1 -0.208469 0.00500386 -0.193812 0 0 0 -0.907247 -0.00974893 -0.377371 -8.78443e-05 -1.39303e-06 -3.63544e-05 14.2107 -655.294 -17.2356 0.0015 
281 1 1 -0.210494 0.0154151 -0.193666 0 0 0 -0.712576 -0.0472848 -0.175213 0 0 -0.000346714 -7.48091 -496.401 76.0775 0.0015 
215 1 1 -0.212945 0.0186265 -0.194457 0 0 0 -0.912044 -0.0655766 -0.384662 -8.64273e-05 -2.43352e-05 -3.81621e-05 87.7274 -650.783 -97.0618 0.0015 
305 1 1 -0.217514 0.0244925 -0.195293 0 0 0 -1.08765 0.154271 -0.403344 0 0 -0.000346714 -151.008 -668.242 -38.8225 0.0015 
253 1 1 -0.224623 0.0355521 -0.195761 0 0 0 -0.859995 0.0235656 -0.350906 0 0 -0.000346714 19.3375 -575.4 -267.147 0.0015 
293 1 1 -0.225237 0.0385569 -0.195066 0 0 0 -1.10512 0.0855835 -0.422903 -0.000124622 -0.00045356 9.7324e-05 -17.3635 -829.624 16.247 0.0015 
226 1 1 -0.203927 -0.0210257 -0.190398 0 0 0 -0.663112 -0.0970104 -0.272309 -8.85142e-05 2.44859e-05 -4.07576e-05 88.8674 -488.949 -42.2165 0.0015 
207 1 1 -0.206444 -0.0161243 -0.190893 0 0 0 -0.616216 -0.0292519 -0.251825 -0.00030121 3.56501e-05 -0.000157843 -24.0673 -259.472 89.8847 0.0025 
195 1 1 -0.207187 -0.0107344 -0.191306 0 0 0 -0.857256 -0.00606812 -0.310427 0 0 -0.00160516 -37.4253 -326.697 55.1825 0.0025 
278 1 1 -0.199541 -0.0128633 -0.189465 0 0 0 -0.701605 -0.0265454 -0.287949 3.01412e-05 3.04075e-05 6.84114e-05 -22.4733 -418.111 107.091 0.0015 
223 1 1 -0.205306 -0.0046971 -0.192544 0 0 0 -0.852498 0.00651017 -0.365469 -8.96592e-05 3.68808e-07 -3.84313e-05 14.1934 -618.756 -44.1297 0.0015 
118 1 1 -0.206461 -0.000644174 -0.191932 0 0 0 -0.844879 0.00777431 -0.352266 -0.000178651 -1.24877e-06 -0.000663002 -13.9297 -366.406 25.3873 0.0025 
251 1 1 -0.200204 -0.00301943 -0.19036 0 0 0 -0.812728 0.0100008 -0.348443 -9.09175e-05 3.73383e-07 -3.54073e-05 -9.9061 -589.814 6.17741 0.0015 
274 1 1 -0.211695 0.00165963 -0.192402 0 0 0 -0.993296 -0.130554 -0.619225 0 0 -0.00160516 32.904 252.138 88.0685 0.0025 
235 1 1 -0.202597 0.00321141 -0.19138 0 0 0 -0.831074 0.0316098 -0.344829 5.06211e-06 2.05348e-06 -0.00026906 -79.9734 -600.77 137.299 0.0015 
279 1 1 -0.20292 0.00769666 -0.190728 0 0 0 -0.704943 -0.092834 -0.354208 0 0 -0.000346714 47.7846 -392.324 -126.751 0.0015 
258 1 1 -0.210548 0.014858 -0.18947 0 0 0 -1.16328 0.149078 0.0803167 0 0 -0.00160516 -87.506 120.216 -42.4668 0.0025 