ITEM: TIMESTEP
50200
ITEM: NUMBER OF ATOMS
652
ITEM: BOX BOUNDS ff ff ff
-0.5 0.1
-0.2 0.2
-0.4 0.15
ITEM: ATOMS id type type x y z ix iy iz vx vy vz fx fy fz omegax omegay omegaz radius 
647 1 1 -0.0160217 0.00701973 0.0571683 0 0 0 -0 0 -1 0 0 0 0 0 0 0.0015 
644 1 1 -0.0212333 0.0212522 0.0587389 0 0 0 -0 0 -1 0 0 0 0 0 0 0.0025 
47 1 1 -0.474916 -0.00484144 -0.356839 0 0 0 -1.51283 -0.159914 -1.63981 0 0 -0.000346714 98.6681 -1100.17 40.6157 0.0015 
30 1 1 -0.44986 -0.00982494 -0.334873 0 0 0 -1.38706 0.0524024 -1.48468 0 0 -0.00160516 -39.2856 -605.929 42.5201 0.0025 
36 1 1 -0.433165 -0.00516423 -0.327775 0 0 0 -1.32658 0.106776 -1.44825 0 0 -0.000346714 -96.2795 -964.526 43.0852 0.0015 
31 1 1 -0.447241 0.0294162 -0.326187 0 0 0 -1.40414 -0.00459657 -1.43482 0 0 -0.000346714 89.1678 -989.387 -210.392 0.0015 
11 1 1 -0.439458 -0.000521219 -0.32269 0 0 0 -1.3897 0.119676 -1.37815 0 0 -0.000346714 -132.585 -988.781 116.991 0.0015 
2 1 1 -0.422434 0.0101357 -0.312171 0 0 0 -1.28962 0.020121 -1.30496 0 0 -0.00160516 -12.7174 -562.33 8.67378 0.0025 
4 1 1 -0.412907 -0.00642012 -0.300519 0 0 0 -1.31354 0.0369665 -1.21002 0 0 -0.00160516 -9.29632 -567.073 -15.9392 0.0025 
12 1 1 -0.416221 0.0307805 -0.298334 0 0 0 -1.33776 -0.03241 -1.22866 0 0 -0.000346714 127.202 -925.05 -251.424 0.0015 
72 1 1 -0.448453 -0.0553664 -0.295727 0 0 0 -1.3828 0.142112 -1.37164 0 0 -0.000346714 -248.697 -830.908 528.372 0.0015 
17 1 1 -0.408343 0.0282156 -0.295383 0 0 0 -1.25378 0.0156372 -1.16882 0 0 -0.000346714 60.9242 -886.665 -178.752 0.0015 
18 1 1 -0.399813 0.01641 -0.293227 0 0 0 -1.20449 -0.00308704 -1.13475 0 0 -0.000346714 -37.6135 -903.718 92.424 0.0015 
5 1 1 -0.397098 0.0253849 -0.286586 0 0 0 -1.22063 -0.0258608 -1.0879 0 0 -0.000346714 40.8132 -862.41 -69.636 0.0015 
21 1 1 -0.391822 -0.00696528 -0.285714 0 0 0 -1.22066 0.000988222 -1.05391 0 0 -0.000346714 49.6369 -887.668 -122.725 0.0015 
24 1 1 -0.394552 0.0282845 -0.283303 0 0 0 -1.22383 0.0186497 -1.05367 0 0 -0.000346714 14.4092 -872.264 -80.6741 0.0015 
20 1 1 -0.387234 0.0172155 -0.281191 0 0 0 -1.23169 0.0317857 -1.02618 0 0 -0.000346714 -11.9006 -900.031 -28.6026 0.0015 
26 1 1 -0.401147 0.037855 -0.281616 0 0 0 -1.32747 0.0425561 -1.08712 0 0 -0.00160516 -32.6902 -612.822 29.8485 0.0025 
79 1 1 -0.388881 -0.0181909 -0.276544 0 0 0 -1.378 0.30525 -1.09216 0 0 -0.00160516 -176.122 -587.899 99.1921 0.0025 
22 1 1 -0.379991 -0.000856912 -0.275888 0 0 0 -1.26492 -0.0120562 -0.966115 0 0 -0.000346714 1.49463 -913.023 19.2065 0.0015 
8 1 1 -0.382826 0.00015164 -0.279061 0 0 0 -1.26137 -0.0314132 -1.00891 0 0 -0.000346714 76.1638 -907.335 -125.055 0.0015 
6 1 1 -0.383223 0.00578433 -0.279142 0 0 0 -1.25132 -0.010251 -1.0089 0 0 -0.000346714 -33.5802 -913.941 95.5313 0.0015 
32 1 1 -0.382228 0.0124422 -0.277161 0 0 0 -1.29113 -0.0028421 -1.00137 0 0 -0.000346714 20.8681 -933.198 -44.7153 0.0015 
3 1 1 -0.391417 0.0248408 -0.278847 0 0 0 -1.31764 -0.0929644 -1.06914 0 0 -0.00160516 76.4224 -569.127 -84.3997 0.0025 
71 1 1 -0.372074 0.0064398 -0.272794 0 0 0 -1.14829 -0.0635083 -0.935349 0 0 -0.000346714 72.3421 -824.369 -110.69 0.0015 
16 1 1 -0.379202 0.0125005 -0.27377 0 0 0 -1.29763 -0.0177613 -0.98504 0 0 -0.00160516 57.8637 -529.809 -129.785 0.0025 
37 1 1 -0.383643 0.0278441 -0.273631 0 0 0 -1.28576 -0.0207153 -0.987275 0 0 -0.000346714 30.0417 -959.45 -37.3227 0.0015 
23 1 1 -0.37387 -0.0120851 -0.269609 0 0 0 -1.23895 0.0445033 -0.890442 0 0 -0.000346714 -47.7125 -887.95 34.9517 0.0015 
75 1 1 -0.374215 0.00966736 -0.27069 0 0 0 -1.26362 -0.123618 -0.922951 0 0 -0.000346714 63.747 -912.826 47.474 0.0015 
57 1 1 -0.371221 0.0145817 -0.269174 0 0 0 -1.26408 0.111304 -0.907601 0 0 -0.000346714 -100.896 -920.057 46.3585 0.0015 
48 1 1 -0.388429 0.0421387 -0.269888 0 0 0 -1.23544 -0.0884536 -1.00678 0 0 -0.000346714 151.646 -872.326 -212.38 0.0015 
14 1 1 -0.375404 -0.0215505 -0.26776 0 0 0 -1.28167 -0.0139118 -0.907261 0 0 -0.00160516 8.61766 -562.419 -4.83414 0.0025 
35 1 1 -0.371408 -0.0100566 -0.26828 0 0 0 -1.23142 0.0450788 -0.872375 0 0 -0.000346714 -69.7978 -876.085 94.5709 0.0015 
51 1 1 -0.383804 0.0440589 -0.265836 0 0 0 -1.21526 -0.0745945 -0.965482 0 0 -0.000346714 131.495 -873.56 -184.238 0.0015 
138 1 1 -0.37438 -0.0301583 -0.26508 0 0 0 -1.28577 -0.0975923 -0.89692 0 0 -0.000346714 175.539 -861.909 106.915 0.0015 
42 1 1 -0.362494 -0.00398593 -0.26269 0 0 0 -1.33211 -0.2013 -0.872492 0 0 -0.00160516 109.87 -576.939 -51.5609 0.0025 
10 1 1 -0.350501 -0.00707394 -0.256141 0 0 0 -1.12458 -0.0179599 -0.70185 0 0 -0.000346714 -18.9114 -805.802 78.2241 0.0015 
76 1 1 -0.34794 -0.00354271 -0.255028 0 0 0 -1.09231 -0.13439 -0.669208 0 0 -0.000346714 92.8442 -788.275 14.2557 0.0015 
113 1 1 -0.350448 0.00779013 -0.255957 0 0 0 -1.25852 0.167329 -0.743082 0 0 -0.000346714 -194.603 -924.024 170.121 0.0015 
52 1 1 -0.348339 -0.0105921 -0.252958 0 0 0 -1.22002 0.0910614 -0.703023 0 0 -0.00160516 -63.7748 -524.08 56.4208 0.0025 
28 1 1 -0.344078 0.00470039 -0.251384 0 0 0 -1.24264 0.0323064 -0.695587 0 0 -0.00160516 -47.7562 -546.262 77.6054 0.0025 
56 1 1 -0.345575 0.00829289 -0.253097 0 0 0 -1.24774 0.0347759 -0.709852 0 0 -0.000346714 -69.6708 -911.978 103.154 0.0015 
49 1 1 -0.342709 0.00946755 -0.251414 0 0 0 -1.24165 -0.0559218 -0.690535 0 0 -0.000346714 90.5351 -893.534 -117.003 0.0015 
55 1 1 -0.349613 0.0257323 -0.251036 0 0 0 -1.28302 -0.0540228 -0.76202 0 0 -0.00160516 4.0714 -561.937 -9.01532 0.0025 
41 1 1 -0.338836 -0.0131055 -0.247441 0 0 0 -1.21901 0.141039 -0.634647 0 0 -0.00160516 -90.0438 -515.039 74.5683 0.0025 
50 1 1 -0.340717 -0.00414299 -0.250361 0 0 0 -1.22769 0.0717969 -0.650065 0 0 -0.000346714 -20.5329 -889.797 -76.0856 0.0015 
96 1 1 -0.340152 0.0076506 -0.250224 0 0 0 -1.19581 0.0233573 -0.651921 0 0 -0.000346714 98.111 -850.536 -269.484 0.0015 
46 1 1 -0.338585 0.021122 -0.247212 0 0 0 -1.25892 -0.0445232 -0.657974 0 0 -0.000346714 58.0925 -913.663 -61.0714 0.0015 
78 1 1 -0.346611 0.0285391 -0.247753 0 0 0 -1.28145 -0.0805766 -0.697592 0 0 -0.00160516 53.9726 -553.987 -53.888 0.0025 
107 1 1 -0.333924 -0.0141322 -0.244983 0 0 0 -1.19113 0.120812 -0.592175 0 0 -0.00160516 -49.494 -520.041 -5.73384 0.0025 
60 1 1 -0.328944 -0.0101216 -0.244188 0 0 0 -1.27604 0.0333653 -0.565105 0 0 -0.000346714 0.59925 -918.716 -59.4001 0.0015 
25 1 1 -0.329266 0.00426319 -0.244888 0 0 0 -1.24851 0.0261982 -0.58322 0 0 -0.000346714 -60.0562 -912.014 95.3081 0.0015 
19 1 1 -0.327271 0.00641326 -0.243977 0 0 0 -1.20978 0.000488063 -0.601 0 0 -0.000346714 5.80892 -834.78 -69.1373 0.0015 
34 1 1 -0.353123 0.042229 -0.246008 0 0 0 -1.27769 -0.328934 -0.850286 0 0 -0.000346714 373.273 -846.183 -313.119 0.0015 
39 1 1 -0.323098 -0.00603689 -0.240908 0 0 0 -1.21561 0.0585228 -0.501162 0 0 -0.00160516 -19.8868 -526.821 -12.8098 0.0025 
40 1 1 -0.333384 0.0287306 -0.241367 0 0 0 -1.26232 -0.0794454 -0.613205 0 0 -0.00160516 24.5492 -581.951 25.5622 0.0025 
174 1 1 -0.350745 -0.0515225 -0.238225 0 0 0 -1.38865 0.146671 -0.730784 0 0 -0.000346714 -250.031 -903.892 387.194 0.0015 
1 1 1 -0.31314 -0.0105329 -0.2364 0 0 0 -1.23429 0.077322 -0.525958 0 0 -0.00160516 -79.8006 -522.482 111.478 0.0025 
111 1 1 -0.316568 -0.00949853 -0.239101 0 0 0 -1.23386 0.0667317 -0.552729 0 0 -0.000346714 -82.9989 -883.664 85.2187 0.0015 
7 1 1 -0.317912 -0.0350463 -0.233934 0 0 0 -1.014 0.399319 -0.48022 -7.4508e-05 -3.73634e-05 -0.00122725 -434.998 -626.978 372.018 0.0015 
81 1 1 -0.302118 0.00665092 -0.233127 0 0 0 -1.12269 0.0494761 -0.486599 -0.00163527 -0.000279406 0.00279817 -41.3612 -735.067 -35.393 0.0015 
129 1 1 -0.31032 0.0131478 -0.235082 0 0 0 -1.08472 -0.043458 -0.460883 0.000122225 -0.000288183 9.45603e-06 59.7182 -221.72 -65.5565 0.0025 
102 1 1 -0.327017 0.0396747 -0.235573 0 0 0 -1.25929 -0.0282837 -0.511632 0 0 -0.000346714 57.9866 -954.03 -94.2035 0.0015 
87 1 1 -0.299996 -0.0231714 -0.229901 0 0 0 -1.02283 0.0330056 -0.410052 -8.10733e-05 4.44536e-05 -4.16727e-05 -62.4559 -726.913 97.2782 0.0015 
120 1 1 -0.333333 -0.0110392 -0.229827 0 0 0 -1.46795 -0.0787227 -0.51734 0 0 -0.00160516 68.5391 360.736 -3.49879 0.0025 
29 1 1 -0.300528 0.0031733 -0.231585 0 0 0 -1.16889 -0.0466698 -0.496646 -0.000424653 -6.45448e-05 -0.000129929 34.3194 -506.689 -33.1625 0.0025 
33 1 1 -0.299457 0.00731858 -0.231946 0 0 0 -1.09391 -0.0161666 -0.421569 0.00192096 0.000552133 0.00202049 47.323 -764.099 -94.831 0.0015 
70 1 1 -0.296444 0.0103414 -0.230493 0 0 0 -1.14398 -0.0277015 -0.484253 -0.000114935 -1.89837e-05 3.64519e-05 58.1201 -823.89 -90.2139 0.0015 
69 1 1 -0.301885 0.0263104 -0.230099 0 0 0 -1.1117 0.0871773 -0.44661 -6.67156e-05 -2.9688e-05 -9.6635e-05 -21.486 -796.354 -102.048 0.0015 
114 1 1 -0.294218 -0.029196 -0.225952 0 0 0 -1.25155 0.112486 -0.550723 0 0 -0.000346714 -158.349 -872.107 192.517 0.0015 
27 1 1 -0.293118 -0.0240471 -0.225905 0 0 0 -1.20087 0.0377111 -0.48036 9.19227e-05 -5.57723e-05 -0.00153534 -12.9011 -528.02 -8.50867 0.0025 
152 1 1 -0.286387 0.00661174 -0.226487 0 0 0 -1.09076 -0.0466025 -0.462594 -8.54427e-05 -1.29599e-05 -4.58364e-05 -6.9222 -797.068 96.5988 0.0015 
99 1 1 -0.287314 0.0156355 -0.226123 0 0 0 -0.958008 -0.104649 -0.412738 -0.000694296 -0.000324595 0.00158246 104.132 -689.089 -66.7923 0.0015 
82 1 1 -0.29006 0.0200276 -0.226422 0 0 0 -1.1725 -0.0438874 -0.485569 -5.17642e-05 -2.23574e-05 -0.000123214 -49.2098 -893.725 199.25 0.0015 
171 1 1 -0.289126 -0.0279021 -0.224308 0 0 0 -1.24266 0.136818 -0.492924 0 0 -0.000346714 -59.1663 -944.535 -94.7387 0.0015 
98 1 1 -0.279027 -0.0178833 -0.222345 0 0 0 -1.13955 -0.0338856 -0.469168 -0.000102201 4.52046e-05 -1.17127e-05 0.706835 -825.096 57.9181 0.0015 
164 1 1 -0.280824 -0.0024038 -0.224307 0 0 0 -0.996697 -0.188432 -0.616277 0 0 -0.000346714 175.653 663.112 -110.134 0.0015 
53 1 1 -0.284079 0.00283621 -0.224671 0 0 0 -1.04773 0.0145592 -0.440631 -0.000425446 -6.48211e-05 -0.000137544 -22.1768 -458.344 37.5921 0.0025 
44 1 1 -0.277437 0.00751541 -0.222694 0 0 0 -1.10555 0.0146264 -0.455724 -8.53761e-05 -1.18749e-05 -3.70177e-05 -0.75667 -797.559 -23.7532 0.0015 
115 1 1 -0.279159 0.0140776 -0.222916 0 0 0 -0.874357 -0.030644 -0.379702 -8.90824e-05 -3.7641e-05 -3.74845e-05 33.6672 -638.304 -25.9856 0.0015 
43 1 1 -0.297404 0.0423924 -0.222594 0 0 0 -1.03841 -0.0170236 -0.391443 -0.000117135 -9.43931e-05 -7.55616e-05 113.08 -680.591 -270.672 0.0015 
45 1 1 -0.308855 -0.0517542 -0.221989 0 0 0 -0.995664 0.282636 -0.525829 0 0 -0.000346714 -230.866 -768.488 38.0598 0.0015 
133 1 1 -0.281661 -0.0314638 -0.220369 0 0 0 -0.898534 -0.167074 -0.308557 0.000741491 0.00197907 0.00831584 93.8808 -314.561 76.507 0.0015 
165 1 1 -0.277237 -0.0297124 -0.219004 0 0 0 -1.05238 0.0569526 -0.447265 0 0 -0.000346714 -68.853 -759.745 70.2464 0.0015 
105 1 1 -0.280364 -0.0251144 -0.220442 0 0 0 -1.2494 0.0852053 -0.539909 -0.000405768 0.000263378 -0.000175804 -32.1047 -562.29 -14.8578 0.0025 
104 1 1 -0.273336 -0.002618 -0.220214 0 0 0 -1.13773 0.0440244 -0.479849 -0.000471351 3.7779e-05 1.01641e-05 -39.2791 -492.724 47.9852 0.0025 
108 1 1 -0.27232 0.00474216 -0.220721 0 0 0 -1.05932 -0.00227254 -0.450402 -0.000101743 -1.24779e-05 -1.06581e-05 41.0701 -763.869 -92.733 0.0015 
58 1 1 -0.274687 0.0109019 -0.221367 0 0 0 -0.973519 -0.0255765 -0.402703 -8.80218e-05 -1.17545e-05 -4.46536e-05 21.6803 -702.892 -7.8045 0.0015 
88 1 1 -0.277216 0.0161354 -0.221717 0 0 0 -0.914779 0.0406772 -0.389617 -0.000226094 -0.000125685 0.0008499 -23.9063 -673.57 -11.6608 0.0015 
77 1 1 -0.277384 0.0222473 -0.219653 0 0 0 -1.06353 -0.107787 -0.451811 -0.00041149 -0.00016304 -0.000149489 33.3898 -470.49 33.6241 0.0025 
140 1 1 -0.278844 0.0258146 -0.220739 0 0 0 -1.06629 -0.116553 -0.484386 -8.07849e-05 -5.67112e-05 -5.99963e-05 72.8672 -811.207 34.6845 0.0015 
64 1 1 -0.279629 0.0313904 -0.219397 0 0 0 -1.0228 0.0364274 -0.42186 -0.000116305 -9.05378e-05 3.82005e-05 65.0217 -703.93 -217.31 0.0015 
137 1 1 -0.288339 0.0379679 -0.220921 0 0 0 -1.22038 0.0747244 -0.463207 -7.9583e-05 -6.05594e-05 -5.02583e-05 -45.1468 -902.721 -26.739 0.0015 
84 1 1 -0.267764 -0.021258 -0.217007 0 0 0 -1.0501 -0.0211477 -0.435411 0 0 -0.000346714 -11.4427 -753.581 68.7202 0.0015 
97 1 1 -0.2624 -0.00419541 -0.216633 0 0 0 -1.08259 0.0727499 -0.458013 -9.53699e-05 8.88634e-06 -2.5717e-06 -29.9017 -785.929 -54.2837 0.0015 
166 1 1 -0.259277 -0.00462783 -0.215301 0 0 0 -1.04176 0.00794064 -0.442037 -0.000139693 1.46387e-05 6.78419e-05 -2.52389 -755.935 -7.6515 0.0015 
63 1 1 -0.265249 -0.00093197 -0.217928 0 0 0 -0.964203 0.00455468 -0.414624 0 0 -0.000346714 11.9867 -693.128 -98.3426 0.0015 
91 1 1 -0.265787 0.00304027 -0.216921 0 0 0 -1.13499 0.0566382 -0.490696 0 0 -0.00160516 12.8168 -472.006 -79.4166 0.0025 
80 1 1 -0.267519 0.0185393 -0.2162 0 0 0 -0.995603 0.0271602 -0.415979 -0.000813853 -0.00029809 0.000513525 0.993163 -432.781 -30.448 0.0025 
83 1 1 -0.263944 0.0219002 -0.215266 0 0 0 -0.96714 0.0654545 -0.39138 -8.54774e-05 -3.18081e-05 -4.16654e-05 -55.9104 -708.587 19.6546 0.0015 
139 1 1 -0.275191 0.0321996 -0.217276 0 0 0 -1.10739 -0.0380624 -0.461342 0 0 -0.000346714 -2.69113 -845.779 72.1244 0.0015 
122 1 1 -0.261637 -0.0270804 -0.212797 0 0 0 -1.18594 0.0451291 -0.472573 0 0 -0.000346714 -16.8335 -658.895 37.3445 0.0015 
103 1 1 -0.255456 -0.00163787 -0.21273 0 0 0 -1.07644 -0.068956 -0.448375 -0.00042369 4.33982e-05 -0.00015868 24.0885 -467.035 14.0085 0.0025 
116 1 1 -0.253859 0.00320958 -0.211908 0 0 0 -0.993046 -0.082164 -0.42629 -0.000453736 -4.44218e-05 -6.74907e-05 33.7579 -432.591 4.74564 0.0025 
135 1 1 -0.258372 0.0181782 -0.213522 0 0 0 -1.1168 -0.056928 -0.481039 -9.30859e-05 -3.38875e-05 -2.42569e-05 82.9723 -801.867 -97.7299 0.0015 
149 1 1 -0.257138 -0.0351086 -0.209146 0 0 0 -1.16343 0.158858 -0.483864 0 0 -0.000346714 -184.597 -804.636 184.636 0.0015 
117 1 1 -0.258375 -0.0274069 -0.209953 0 0 0 -1.15731 0.0152126 -0.418012 0 0 -0.00160516 -32.4378 -429.161 90.648 0.0025 
66 1 1 -0.252853 -0.0202921 -0.209767 0 0 0 -1.07096 0.0641825 -0.491665 0 0 -0.00160516 -48.0491 -457.639 51.0159 0.0025 
128 1 1 -0.24832 -0.00875149 -0.210478 0 0 0 -1.03169 0.0562817 -0.43979 -7.4934e-05 8.63612e-06 -7.56144e-05 -23.7446 -750.059 -40.2327 0.0015 
203 1 1 -0.244774 -0.00897785 -0.208972 0 0 0 -0.980541 -0.0196543 -0.40331 -0.000182221 -5.66004e-07 6.52725e-05 -33.9171 -703.213 115.572 0.0015 
100 1 1 -0.244855 -0.00236736 -0.209328 0 0 0 -1.03403 -0.104924 -0.428761 -8.25691e-05 9.8487e-06 -4.67332e-05 93.6184 -750.777 -42.0937 0.0015 
110 1 1 -0.247412 0.00402992 -0.21022 0 0 0 -0.897933 -0.0111426 -0.376308 2.39476e-05 -6.93097e-06 9.3246e-06 -24.2358 104.878 22.5133 0.0015 
54 1 1 -0.252163 0.0116443 -0.210798 0 0 0 -0.916196 -0.0233141 -0.390471 -0.000314232 -9.7235e-05 -0.000343852 26.2724 -395.979 -38.1967 0.0025 
106 1 1 -0.247833 -0.0320854 -0.20494 0 0 0 -1.13608 0.138429 -0.492957 0 0 -0.00160516 -82.3825 -488.879 54.2202 0.0025 
93 1 1 -0.24327 -0.0134062 -0.206819 0 0 0 -1.00935 -0.0365306 -0.385021 0.000438354 -0.000218047 -0.00270113 2.30436 -431.862 35.9348 0.0025 
187 1 1 -0.24068 -0.00616688 -0.206987 0 0 0 -0.896254 0.138137 -0.400641 0 0 -0.000346714 -325.016 32.8499 -134.467 0.0015 
169 1 1 -0.237642 -0.00234517 -0.204911 0 0 0 -0.720724 0.0900348 -0.384378 0 0 -0.00160516 -54.4002 -292.804 45.5708 0.0025 
13 1 1 -0.244526 0.00199577 -0.208007 0 0 0 -0.947519 -0.0942373 -0.406483 -0.000408965 -3.48515e-05 -0.000187917 60.8259 -410.719 -46.558 0.0025 
172 1 1 -0.234593 0.00129523 -0.204912 0 0 0 -1.01745 -0.0469712 -0.424678 1.04378e-05 2.01329e-06 -0.00028515 14.6562 -736.415 46.1823 0.0015 
185 1 1 -0.241289 0.00984797 -0.207428 0 0 0 -1.05492 -0.030791 -0.450539 0 0 -0.000346714 5.69991 -765.323 38.8278 0.0015 
158 1 1 -0.237762 0.00907465 -0.204898 0 0 0 -1.04481 -0.0348263 -0.436511 -0.000403902 -3.16691e-05 -0.000177643 29.2341 -452.186 -33.8947 0.0025 
62 1 1 -0.242385 0.0151225 -0.207253 0 0 0 -1.07356 0.000526792 -0.443619 -7.60304e-05 -2.5713e-05 -6.66178e-05 21.2263 -774.016 -52.3213 0.0015 
94 1 1 -0.253497 0.0293284 -0.20811 0 0 0 -1.05916 -0.304056 -0.523304 -0.000666165 -0.000430841 0.000361793 175.153 -448.282 -93.9684 0.0025 
74 1 1 -0.258031 -0.0477172 -0.20477 0 0 0 -1.03768 0.0987975 -0.531861 0 0 -0.000346714 -61.836 -814.198 -36.6412 0.0015 
112 1 1 -0.242771 -0.0307153 -0.204323 0 0 0 -0.952864 0.0171711 -0.481755 0 0 -0.000346714 -124.64 -643.29 217.235 0.0015 
159 1 1 -0.241458 -0.0269022 -0.204035 0 0 0 -0.882209 0.0411431 -0.440945 0 0 -0.000346714 26.3858 -688.142 -43.0232 0.0015 
243 1 1 -0.233463 -0.0236289 -0.202115 0 0 0 -1.00743 0.140666 -0.440764 -8.40903e-05 4.16472e-05 -4.2251e-05 -155.415 -712.829 127.729 0.0015 
65 1 1 -0.230372 -0.00441673 -0.20203 0 0 0 -0.954935 0.0641063 -0.401339 -0.000417052 7.80635e-05 -0.000138611 7.06963 -421.471 -84.1661 0.0025 
163 1 1 -0.227841 -0.000868089 -0.202092 0 0 0 -0.91482 0.0477157 -0.390535 -8.69861e-05 -5.09769e-06 -4.33539e-05 -5.25735 -662.238 -68.6027 0.0015 
68 1 1 -0.23312 0.010067 -0.202936 0 0 0 -1.028 -0.0797892 -0.424417 -0.00119449 -5.05343e-05 0.00201851 48.4095 -444.855 -33.8951 0.0025 
130 1 1 -0.238623 0.0304558 -0.201649 0 0 0 -1.02886 -0.225848 -0.484021 0 0 -0.00160516 137.338 -433.277 -91.489 0.0025 
121 1 1 -0.289828 -0.069411 -0.201059 0 0 0 -0.965634 0.245762 -0.519216 0 0 -0.000346714 -247.752 -967.327 22.3058 0.0015 
15 1 1 -0.227187 -0.014465 -0.199862 0 0 0 -0.609734 -0.00424055 -0.260652 9.8572e-05 9.20388e-05 4.97304e-05 -9.58917 -3.93005 54.1127 0.0025 
131 1 1 -0.225352 -0.0055462 -0.19986 0 0 0 -0.946619 0.0567313 -0.390313 -0.000272615 4.10105e-05 -0.000862989 -28.1254 -409.664 8.86124 0.0025 
95 1 1 -0.22346 -0.00136435 -0.200226 0 0 0 -0.92276 0.0526891 -0.394988 0 0 -0.000346714 -72.7167 -670.037 80.1374 0.0015 
151 1 1 -0.225133 0.00419405 -0.200643 0 0 0 -0.94334 -0.0706633 -0.418184 0 0 -0.000346714 105.284 -665.221 -132.85 0.0015 
153 1 1 -0.221888 0.00363259 -0.199456 0 0 0 -0.834752 -0.0532652 -0.487634 0 0 -0.000346714 -11.7887 24.5419 192.066 0.0015 
190 1 1 -0.226918 0.0133884 -0.200856 0 0 0 -1.19211 0.0934567 -0.439995 0 0 -0.000346714 -89.0077 -248.513 80.2821 0.0015 
196 1 1 -0.230576 0.0214749 -0.200351 0 0 0 -1.0178 0.0661614 -0.412642 -0.000422397 -0.000132431 -0.00013098 -18.4362 -440.844 -25.2092 0.0025 
92 1 1 -0.226208 0.0237002 -0.198018 0 0 0 -0.908416 -0.0289425 -0.448686 0 0 -0.00160516 28.0619 -352.594 -80.7644 0.0025 
199 1 1 -0.234514 0.036754 -0.19951 0 0 0 -0.783057 -0.224832 -0.36299 -0.000248286 -6.26941e-05 -4.12883e-05 227.165 -538.923 -153.945 0.0015 
173 1 1 -0.23264 0.03954 -0.197705 0 0 0 -0.812093 -0.126801 -0.382528 -0.00010325 -9.82791e-05 1.29135e-05 131.177 -589.456 -82.806 0.0015 
204 1 1 -0.239384 0.0435615 -0.19886 0 0 0 -0.852038 0.090601 -0.325964 0 0 -0.000346714 3.92916 -563.827 -202.529 0.0015 
233 1 1 -0.227305 -0.0301441 -0.197101 0 0 0 -1.02521 0.0260878 -0.440941 -0.000162594 8.59536e-05 -0.000685366 -51.2129 -434.111 93.4874 0.0025 
150 1 1 -0.21808 -0.0155757 -0.196989 0 0 0 -0.891235 -0.152099 -0.36342 4.5066e-05 -6.4177e-06 -0.000175899 -11.4905 -616.258 294.388 0.0015 
127 1 1 -0.216785 -0.0107926 -0.196883 0 0 0 -0.853105 -0.0815868 -0.370485 0 0 -0.000346714 96.4049 -619.362 -85.9242 0.0015 
197 1 1 -0.215986 -0.00967299 -0.193928 0 0 0 -0.93554 -0.107845 -0.270969 0 0 -0.000346714 -51.0393 291.311 53.0032 0.0015 
101 1 1 -0.216308 -0.00777435 -0.196968 0 0 0 -0.858826 -0.0709817 -0.349224 1.85893e-05 -8.56813e-06 -2.5413e-05 108.25 -307.209 53.696 0.0015 
182 1 1 -0.211829 -0.00679821 -0.194088 0 0 0 -0.814426 -0.0782576 -0.295647 0 0 -0.00160516 36.8742 95.3862 58.3656 0.0025 
90 1 1 -0.21825 -0.00304471 -0.196968 0 0 0 -0.862689 -0.000775722 -0.369653 -0.000414059 -1.12389e-05 -0.000179774 14.0779 -375.343 -32.067 0.0025 
167 1 1 -0.212454 0.000793091 -0.194441 0 0 0 -0.80475 -0.0403861 -0.345868 -0.000653262 -1.81706e-05 0.000344291 11.7753 -350.908 13.5891 0.0025 
148 1 1 -0.217066 0.0125049 -0.196895 0 0 0 -1.08487 -0.119466 -0.483927 0 0 -0.000346714 36.7569 -803.172 117.126 0.0015 
269 1 1 -0.221006 0.0165515 -0.197768 0 0 0 -1.12006 -0.0728665 -0.747807 0 0 -0.000346714 101.811 -666.703 -297.123 0.0015 
175 1 1 -0.216001 0.0212268 -0.195418 0 0 0 -0.805304 -0.0634781 -0.366518 0.000285187 0.0024576 0.00213708 -3.66831 -588.233 61.0098 0.0015 
136 1 1 -0.217523 0.0242548 -0.195511 0 0 0 -0.98521 -0.0646144 -0.430994 -5.99862e-05 -0.000225442 -4.53546e-05 129.64 -687.257 -127.767 0.0015 
161 1 1 -0.219172 0.0276866 -0.195395 0 0 0 -0.962862 -0.104769 -0.419225 -0.000102278 -6.34751e-05 4.05346e-05 89.6804 -703.504 -29.6223 0.0015 
67 1 1 -0.227539 0.0320782 -0.196705 0 0 0 -0.931463 -0.0924121 -0.424671 0.000129389 -3.71393e-05 0.00157248 54.816 -406.887 -31.9529 0.0025 
89 1 1 -0.239617 0.0510212 -0.195895 0 0 0 -0.948457 -0.186124 -0.477654 -9.04219e-05 -0.000130393 -1.88391e-05 186.118 -716.037 -90.3422 0.0015 
193 1 1 -0.208172 -0.0150359 -0.191725 0 0 0 -0.83809 -0.0837038 -0.346074 0 0 -0.00160516 21.8747 -360.846 35.3109 0.0025 
157 1 1 -0.211957 -0.0121866 -0.193651 0 0 0 -0.857105 -0.113429 -0.355117 -0.000196936 4.6935e-05 -0.000648484 25.9758 -369.002 55.2259 0.0025 
191 1 1 -0.207918 -0.00607537 -0.193535 0 0 0 -0.766837 0.138057 -0.160533 0 0 -0.000346714 -138.989 -354.085 36.2612 0.0015 
73 1 1 -0.207829 0.000484448 -0.193543 0 0 0 -0.745609 0.00673358 -0.312996 0 0 -0.000346714 20.1661 -531.514 -60.2892 0.0015 
208 1 1 -0.209149 0.00652241 -0.193004 0 0 0 -0.768387 0.0499378 -0.319244 -6.24358e-05 0.000484477 -3.32479e-05 -70.498 -266.194 -39.9653 0.0025 
123 1 1 -0.203175 0.00470795 -0.191612 0 0 0 -0.830987 -0.0240868 -0.345412 -7.80889e-05 -1.26175e-06 -6.36654e-05 39.4327 -599.855 -52.9814 0.0015 
210 1 1 -0.209243 0.011263 -0.191418 0 0 0 -0.884838 0.0873692 -0.436705 -6.88514e-08 4.99325e-07 -0.00160522 -34.7405 -317.046 -86.503 0.0025 
289 1 1 -0.210251 0.0230675 -0.192654 0 0 0 -1.1725 0.106968 -0.471806 0 0 -0.000346714 -81.4821 -857.668 -7.80457 0.0015 
256 1 1 -0.219749 -0.0498357 -0.18864 0 0 0 -1.13163 0.077259 -0.475864 -7.60102e-05 6.98349e-05 -5.54848e-05 -58.6624 -856.722 0.408469 0.0015 
198 1 1 -0.211452 -0.0368793 -0.190005 0 0 0 -0.909316 -0.152963 -0.350796 -6.78133e-05 4.16485e-05 -5.30214e-05 124.628 -680.502 -27.443 0.0015 
143 1 1 -0.206135 -0.0335877 -0.187434 0 0 0 -0.948857 0.0537701 -0.398482 -0.0003812 0.00021875 -0.00020924 -75.7225 -389.693 127.724 0.0025 
177 1 1 -0.207576 -0.0296222 -0.190051 0 0 0 -0.906278 0.0886462 -0.397845 0 0 -0.000346714 -62.1593 -669.149 -7.2652 0.0015 
183 1 1 -0.201795 -0.019846 -0.188534 0 0 0 -0.773311 0.00341238 -0.331325 -0.000407694 0.000112678 -0.00019463 5.91741 -340.741 -17.3146 0.0025 
205 1 1 -0.195726 -0.0163727 -0.187439 0 0 0 -0.926838 0.0163086 -0.411222 0.000148265 0.000102168 0.000651601 32.8592 -687.307 -106.886 0.0015 
225 1 1 -0.200733 -0.013706 -0.189869 0 0 0 -0.660144 0.0402301 -0.278217 1.31143e-05 5.31609e-06 -0.000151643 -2.48674 83.495 128.093 0.0015 
59 1 1 -0.193451 -0.00738938 -0.187461 0 0 0 -0.878224 -0.0213527 -0.360234 -0.000183427 3.01467e-05 0.000214799 56.2277 -634.097 -98.9471 0.0015 
132 1 1 -0.197773 -0.00155799 -0.188235 0 0 0 -0.768761 -0.0358599 -0.3313 -0.000631962 2.98359e-06 0.000369245 11.3593 -335.256 9.93667 0.0025 
213 1 1 -0.207872 0.00210654 -0.190265 0 0 0 -0.807625 -0.106978 -0.483266 0 0 -0.000346714 54.792 449.418 40.4744 0.0015 
189 1 1 -0.198613 0.00630395 -0.189697 0 0 0 -0.831186 -0.0851359 -0.346691 -0.000130271 2.99711e-06 9.24441e-05 60.4376 -601.053 2.53392 0.0015 
119 1 1 -0.195511 0.0045977 -0.187315 0 0 0 -0.775077 0.0195204 -0.322371 -0.000405829 6.54232e-06 -0.000169857 9.05126 -336.294 -42.1255 0.0025 
214 1 1 -0.197379 -0.0374327 -0.184078 0 0 0 -0.962552 -0.133539 -0.360229 -8.7636e-05 5.03279e-05 -3.27281e-05 104.592 -712.679 -15.2936 0.0015 
221 1 1 -0.197816 -0.0293095 -0.185049 0 0 0 -0.909323 0.0178202 -0.373637 -0.000352393 0.000200337 -0.000287811 -19.1294 -395.48 27.7403 0.0025 
211 1 1 -0.192661 -0.0250589 -0.185047 0 0 0 -0.712813 0.0334319 -0.306716 -0.000329609 0.000257091 0.000531007 -130.181 -468.227 253.316 0.0015 
144 1 1 -0.191481 -0.00285437 -0.18559 0 0 0 -0.743475 -0.0351269 -0.304723 -0.000256386 -3.04914e-05 -0.000720355 -15.0232 -321.229 72.8175 0.0025 
155 1 1 -0.186417 0.00308619 -0.183523 0 0 0 -0.790374 -0.00475019 -0.338739 -0.000545872 1.9431e-05 9.26852e-05 -9.68784 -343.938 27.4087 0.0025 
202 1 1 -0.189204 0.00747357 -0.185604 0 0 0 -0.587175 -0.0658265 -0.257457 2.09479e-05 -1.8025e-05 7.17678e-06 33.0337 -329.627 19.7484 0.0015 
201 1 1 -0.186077 0.00752079 -0.184243 0 0 0 -0.854662 -0.0648166 -0.347075 0 0 -0.000346714 51.6259 -612.288 -14.0766 0.0015 
178 1 1 -0.187179 0.01118 -0.18439 0 0 0 -0.794123 0.0448585 -0.327327 -8.74822e-05 -1.88417e-05 -3.80051e-05 -7.71731 -570.581 -59.4724 0.0015 
276 1 1 -0.19023 0.0190827 -0.184953 0 0 0 -0.840589 0.0796309 -0.343595 -8.7386e-05 -1.88256e-05 -3.81557e-05 -115.705 -622.113 138.888 0.0015 
192 1 1 -0.193412 0.0219602 -0.185837 0 0 0 -0.895219 0.0640187 -0.369025 -0.000146824 -8.3923e-05 0.000281541 -9.0823 -643.605 -88.3317 0.0015 
212 1 1 -0.195215 0.0285466 -0.185199 0 0 0 -0.929183 0.125071 -0.360932 7.75396e-05 5.56586e-05 -0.000522019 5.99967 -634.294 -234.124 0.0015 
184 1 1 -0.202553 0.0411365 -0.184822 0 0 0 -1.02021 -0.0808634 -0.45027 0 0 -0.000346714 82.887 -751.906 -55.8956 0.0015 
181 1 1 -0.185164 -0.0155486 -0.182049 0 0 0 -0.892916 0.146145 -0.385938 -0.000388446 0.000110519 -0.000213174 -94.7318 -380.056 75.2386 0.0025 
206 1 1 -0.186646 -0.00994851 -0.183327 0 0 0 -0.889932 0.0157246 -0.369341 -0.000406123 0.000117134 -0.000161775 -8.40825 -387.289 3.76688 0.0025 
126 1 1 -0.181649 -0.0102189 -0.182318 0 0 0 -0.864052 0.124901 -0.370338 -4.72656e-05 1.29459e-05 -0.000144728 -170.746 -603.722 194.233 0.0015 
168 1 1 -0.185308 -0.00469792 -0.182929 0 0 0 -0.812737 0.0224071 -0.34909 -0.000396985 1.39717e-05 -0.000208448 -20.2113 -353.673 24.3689 0.0025 
180 1 1 -0.181291 0.000520054 -0.181308 0 0 0 -0.779686 -0.021158 -0.325993 -0.000408186 1.83483e-05 -0.000170715 41.8568 -339.868 -78.0532 0.0025 
216 1 1 -0.17617 0.000433694 -0.180245 0 0 0 -0.833045 0.00865102 -0.348807 -8.3986e-05 3.76256e-06 -4.7615e-05 -3.85009 -602.542 -5.74559 0.0015 
228 1 1 -0.179288 0.00968561 -0.181211 0 0 0 -0.892 -0.014259 -0.380351 -8.86156e-05 -1.77509e-05 -3.91082e-05 94.5596 -631.608 -198.083 0.0015 
224 1 1 -0.184917 0.0213491 -0.182395 0 0 0 -0.904685 0.0940978 -0.361791 -8.57165e-05 -4.11754e-05 -4.40454e-05 -51.1003 -657.269 -43.1692 0.0015 
9 1 1 -0.193579 0.0361017 -0.182875 0 0 0 -0.805793 -0.400942 -0.466397 -7.95865e-05 -6.46889e-05 -5.44612e-05 301.128 -609.931 4.07277 0.0015 
179 1 1 -0.252776 -0.0803549 -0.177838 0 0 0 -0.944491 0.235719 -0.531743 -2.95859e-05 0.000140147 -0.000134108 -312.733 -714.326 238.692 0.0015 
188 1 1 -0.173374 -0.0254092 -0.176861 0 0 0 -0.830451 -0.1193 -0.363513 0 0 -0.000346714 102.73 -609.938 -39.402 0.0015 
218 1 1 -0.177337 -0.0223972 -0.179104 0 0 0 -0.838273 -0.0503687 -0.331017 -0.000610656 0.000205007 0.00140261 22.1354 -602.044 34.5621 0.0015 
145 1 1 -0.17507 -0.0187602 -0.177536 0 0 0 -0.850771 0.0098389 -0.341846 2.05397e-06 -3.17013e-05 -0.00137752 18.2736 -355.782 -27.3825 0.0025 
207 1 1 -0.172217 -0.0142615 -0.176746 0 0 0 -0.629328 -0.0565682 -0.310085 0 0 -0.00160516 -8.7079 26.6854 64.4271 0.0025 
232 1 1 -0.173559 -0.0085965 -0.177936 0 0 0 -0.778322 -0.0300034 -0.317416 -0.000430106 4.00921e-05 0.000235727 13.2193 -336.275 -0.715741 0.0025 
109 1 1 -0.168311 -0.0106134 -0.176624 0 0 0 -0.722261 -0.0658907 -0.30399 -8.51887e-05 1.75966e-05 -3.45262e-05 36.4613 -523.421 26.7244 0.0015 
124 1 1 -0.171534 -0.00393777 -0.178246 0 0 0 -0.658897 0.0146888 -0.271424 2.40128e-05 3.24718e-05 9.35146e-06 -14.844 -437.063 -7.72345 0.0015 
217 1 1 -0.17412 0.00613118 -0.179317 0 0 0 -0.888512 0.0419137 -0.374049 -8.90909e-05 -1.78076e-05 -3.86317e-05 -47.2741 -649.297 39.5281 0.0015 
268 1 1 -0.169974 0.00853157 -0.17736 0 0 0 -0.798447 0.0531209 -0.329053 -0.000100137 -1.99433e-05 -6.30481e-06 4.02835 -570.477 -101.889 0.0015 
244 1 1 -0.178755 0.0138323 -0.179543 0 0 0 -0.95928 0.0439222 -0.406707 8.56549e-05 -0.000326292 5.37331e-05 -1.34598 -401.179 -30.9108 0.0025 
239 1 1 -0.174713 0.0104803 -0.178156 0 0 0 -0.885969 -0.0813693 -0.406747 0 0 -0.000346714 385.962 269.311 102.523 0.0015 
262 1 1 -0.170152 0.0147687 -0.176922 0 0 0 -0.961839 0.0823807 -0.394592 -8.73859e-05 -1.71472e-05 -3.85845e-05 -53.0701 -695.86 -15.9205 0.0015 
253 1 1 -0.178625 0.0253238 -0.178941 0 0 0 -0.757695 0.220921 -0.273126 0 0 -0.000346714 -78.2166 -501.449 -216.18 0.0015 
219 1 1 -0.17362 -0.0327102 -0.174375 0 0 0 -0.958519 0.0796862 -0.454165 0 0 -0.00160516 -66.3041 -400.333 82.8136 0.0025 
259 1 1 -0.171677 -0.0216854 -0.175227 0 0 0 -0.93845 -0.0717149 -0.321328 0 0 -0.00160516 25.3249 -361.138 56.3826 0.0025 
226 1 1 -0.165283 -0.0176384 -0.174705 0 0 0 -0.747004 -0.0134829 -0.31678 -8.80783e-05 2.66873e-05 -4.10137e-05 -2.62908 -541.7 29.2556 0.0015 
147 1 1 -0.16403 -0.00947374 -0.174902 0 0 0 -0.843032 0.0113459 -0.350538 -8.67851e-05 1.5965e-05 -3.81114e-05 -14.7052 -609.082 15.6507 0.0015 
266 1 1 -0.16449 -0.00519851 -0.17533 0 0 0 -0.717781 -0.106238 -0.289908 -0.000155664 -2.52097e-05 0.000166965 17.2133 -514.872 145.253 0.0015 
223 1 1 -0.161168 -0.00538374 -0.173926 0 0 0 -0.739427 0.0411398 -0.30343 -7.41001e-05 -2.05569e-06 -7.03067e-05 -21.9077 -533.019 -18.8825 0.0015 
118 1 1 -0.161828 -0.00131111 -0.173107 0 0 0 -0.721319 0.0205965 -0.31724 -0.000631611 6.67521e-07 0.00106887 -6.93733 -315.94 -4.74811 0.0025 
249 1 1 -0.161481 0.0054245 -0.174057 0 0 0 -0.800732 -0.0187381 -0.334212 0.000291213 9.72955e-05 -0.000624164 -31.6096 -494.15 -28.3479 0.0015 
279 1 1 -0.159758 0.00882163 -0.173122 0 0 0 -0.754276 -0.0150244 -0.386769 -0.00111148 0.00264364 0.00545791 -15.3985 -554.353 -3.06872 0.0015 