ITEM: TIMESTEP
60200
ITEM: NUMBER OF ATOMS
746
ITEM: BOX BOUNDS ff ff ff
-0.5 0.1
-0.2 0.2
-0.4 0.15
ITEM: ATOMS id type type x y z ix iy iz vx vy vz fx fy fz omegax omegay omegaz radius 
42 1 1 -0.495705 -0.0241159 -0.398989 0 0 0 -1.33211 -0.2013 -1.85349 0 0 -0.00160516 109.87 -576.939 -51.5609 0.0025 
10 1 1 -0.45956 -0.00504244 -0.383546 0 0 0 -1.08588 0.0255981 -1.77583 0 0 -0.000346714 8.62949 -715.818 131.799 0.0015 
34 1 1 -0.487504 0.0159116 -0.384949 0 0 0 -1.41482 -0.192511 -1.93221 0 0 -0.000346714 493.877 -684.048 -258.406 0.0015 
113 1 1 -0.4763 0.0245231 -0.379315 0 0 0 -1.25852 0.167329 -1.72408 0 0 -0.000346714 -194.603 -924.024 170.121 0.0015 
56 1 1 -0.470349 0.0117705 -0.373132 0 0 0 -1.24774 0.0347759 -1.69085 0 0 -0.000346714 -69.6708 -911.978 103.154 0.0015 
55 1 1 -0.476487 0.0189096 -0.375238 0 0 0 -1.2534 -0.0834902 -1.72122 0 0 -0.00160516 19.7338 -540.88 -1.90988 0.0025 
76 1 1 -0.457171 -0.0169817 -0.370999 0 0 0 -1.09231 -0.13439 -1.65021 0 0 -0.000346714 92.8442 -788.275 14.2557 0.0015 
52 1 1 -0.471075 -0.00231273 -0.370546 0 0 0 -1.22838 0.0816529 -1.66394 0 0 -0.00160516 -60.2016 -512.405 63.3718 0.0025 
28 1 1 -0.468833 0.00634304 -0.371151 0 0 0 -1.24819 0.014326 -1.68971 0 0 -0.00160516 -59.8863 -541.768 76.586 0.0025 
78 1 1 -0.474756 0.0204815 -0.366562 0 0 0 -1.28145 -0.0805766 -1.67859 0 0 -0.00160516 53.9726 -553.987 -53.888 0.0025 
50 1 1 -0.463485 0.0030367 -0.364418 0 0 0 -1.22769 0.0717969 -1.63106 0 0 -0.000346714 -20.5329 -889.797 -76.0856 0.0015 
96 1 1 -0.459733 0.00998632 -0.364466 0 0 0 -1.19581 0.0233573 -1.63292 0 0 -0.000346714 98.111 -850.536 -269.484 0.0015 
49 1 1 -0.464603 0.0112272 -0.364155 0 0 0 -1.21594 0.0273208 -1.6108 0 0 -0.000346714 -2.95137 -858.897 -124.859 0.0015 
46 1 1 -0.464477 0.0166697 -0.362059 0 0 0 -1.25892 -0.0445232 -1.63897 0 0 -0.000346714 58.0925 -913.663 -61.0714 0.0015 
174 1 1 -0.48961 -0.0368554 -0.360353 0 0 0 -1.38865 0.146671 -1.71178 0 0 -0.000346714 -250.031 -903.892 387.194 0.0015 
41 1 1 -0.460737 0.000998327 -0.359956 0 0 0 -1.21901 0.141039 -1.61565 0 0 -0.00160516 -90.0438 -515.039 74.5683 0.0025 
107 1 1 -0.45394 -0.00299259 -0.354999 0 0 0 -1.20273 0.108717 -1.59564 0 0 -0.00160516 -56.9293 -506.666 -9.08631 0.0025 
25 1 1 -0.454116 0.006883 -0.35226 0 0 0 -1.24851 0.0261982 -1.56422 0 0 -0.000346714 -60.0562 -912.014 95.3081 0.0015 
19 1 1 -0.44825 0.00646207 -0.353127 0 0 0 -1.20978 0.000488063 -1.582 0 0 -0.000346714 5.80892 -834.78 -69.1373 0.0015 
40 1 1 -0.459616 0.0207861 -0.351738 0 0 0 -1.26232 -0.0794454 -1.5942 0 0 -0.00160516 24.5492 -581.951 25.5622 0.0025 
60 1 1 -0.452363 -0.00242593 -0.341653 0 0 0 -1.2223 0.0893583 -1.44209 0 0 -0.000346714 -56.6924 -815.658 -85.2318 0.0015 
39 1 1 -0.444659 -0.000184613 -0.340074 0 0 0 -1.21561 0.0585228 -1.48216 0 0 -0.00160516 -19.8868 -526.821 -12.8098 0.0025 
111 1 1 -0.441861 -0.00253061 -0.336023 0 0 0 -1.25302 0.0696824 -1.45901 0 0 -0.000346714 -85.679 -900.298 85.1638 0.0015 
102 1 1 -0.452946 0.0368464 -0.335786 0 0 0 -1.25929 -0.0282837 -1.49263 0 0 -0.000346714 57.9866 -954.03 -94.2035 0.0015 
120 1 1 -0.480128 -0.0189115 -0.330611 0 0 0 -1.46795 -0.0787227 -1.49834 0 0 -0.00160516 68.5391 360.736 -3.49879 0.0025 
1 1 1 -0.438778 -0.00232542 -0.329599 0 0 0 -1.25756 0.0823184 -1.41817 0 0 -0.00160516 -80.3433 -534.057 111.987 0.0025 
7 1 1 -0.4191 0.00465222 -0.331928 0 0 0 -1.01188 0.396983 -1.47045 0 0 -0.000346714 -433.814 -624.856 371.752 0.0015 
129 1 1 -0.417572 0.00789366 -0.319272 0 0 0 -1.0715 -0.0529995 -1.32585 0 0 -0.00160516 59.257 -278.556 -70.1664 0.0025 
114 1 1 -0.423043 -0.0156097 -0.316453 0 0 0 -1.29154 0.138004 -1.38322 0 0 -0.000346714 -177.256 -902.318 191.707 0.0015 
87 1 1 -0.412394 -0.0134188 -0.316422 0 0 0 -1.14688 0.112103 -1.36632 0 0 -0.000346714 -95.6221 -653.381 131.349 0.0015 
29 1 1 -0.421512 -0.00210087 -0.315873 0 0 0 -1.2138 -0.0533211 -1.31917 0 0 -0.00160516 37.3982 -526.679 -33.1236 0.0025 
33 1 1 -0.411733 0.00359523 -0.31253 0 0 0 -1.12847 -0.0441989 -1.28552 0 0 -0.000346714 20.3045 -790.454 -101.48 0.0015 
81 1 1 -0.415616 0.0117709 -0.313863 0 0 0 -1.13802 0.0508109 -1.2839 0 0 -0.000346714 -22.8756 -823.707 -33.2889 0.0015 
45 1 1 -0.411755 -0.0183119 -0.309438 0 0 0 -1.03471 0.341643 -1.34633 0 0 -0.000346714 -276.055 -792.101 37.7484 0.0015 
70 1 1 -0.415191 0.00868631 -0.308722 0 0 0 -1.1916 -0.010934 -1.24407 0 0 -0.000346714 30.1272 -846.192 -96.9348 0.0015 
82 1 1 -0.412355 0.0130435 -0.304959 0 0 0 -1.23143 -0.0741231 -1.24488 0 0 -0.000346714 -29.9445 -944.1 197.417 0.0015 
69 1 1 -0.417158 0.0316926 -0.307392 0 0 0 -1.15688 0.0501623 -1.24698 0 0 -0.000346714 4.34776 -838.832 -104.978 0.0015 
27 1 1 -0.415258 -0.0176199 -0.301732 0 0 0 -1.22138 0.0677168 -1.21071 0 0 -0.00160516 -2.99417 -474.149 -2.65371 0.0025 
171 1 1 -0.409494 -0.017819 -0.304144 0 0 0 -1.19072 0.0900565 -1.25204 0 0 -0.000346714 -20.8638 -869.319 -74.2511 0.0015 
105 1 1 -0.412748 -0.0126788 -0.298115 0 0 0 -1.33838 0.132325 -1.21412 0 0 -0.00160516 -51.181 -589.493 -14.4579 0.0025 
152 1 1 -0.402057 0.000937115 -0.298686 0 0 0 -1.16893 -0.0586856 -1.16937 0 0 -0.000346714 1.19702 -854.343 96.3749 0.0015 
99 1 1 -0.391925 0.00600702 -0.297456 0 0 0 -1.08037 -0.0661912 -1.21443 0 0 -0.000346714 169.819 -626.796 -14.1058 0.0015 
43 1 1 -0.411022 0.0402124 -0.300518 0 0 0 -1.17401 -0.00652347 -1.27467 0 0 -0.000346714 218.147 -602.343 -229.085 0.0015 
98 1 1 -0.400495 -0.0179061 -0.291269 0 0 0 -1.23145 0.00742095 -1.11601 0 0 -0.000346714 -28.5849 -890.559 58.3764 0.0015 
53 1 1 -0.395978 0.00321171 -0.292798 0 0 0 -1.1316 0.00335432 -1.12946 0 0 -0.00160516 -15.9023 -490.348 38.7695 0.0025 
104 1 1 -0.395706 0.00249614 -0.287596 0 0 0 -1.25025 0.0514267 -1.07219 0 0 -0.00160516 -42.1805 -530.679 49.2011 0.0025 
77 1 1 -0.39073 0.00771921 -0.286856 0 0 0 -1.15269 -0.154881 -1.09131 0 0 -0.00160516 53.5331 -515.472 33.6965 0.0025 
140 1 1 -0.394306 0.0108353 -0.290027 0 0 0 -1.17201 -0.157875 -1.1197 0 0 -0.000346714 100.145 -868.861 36.5402 0.0015 
137 1 1 -0.408664 0.0351001 -0.286943 0 0 0 -1.1782 -0.0649507 -1.07499 0 0 -0.000346714 60.2564 -867.776 -0.874001 0.0015 
165 1 1 -0.389702 -0.0189499 -0.284396 0 0 0 -1.14294 0.121721 -1.06518 0 0 -0.000346714 -118.131 -839.428 72.9318 0.0015 
108 1 1 -0.387298 0.00293699 -0.285776 0 0 0 -1.1779 -0.0254728 -1.07483 0 0 -0.000346714 44.0659 -815.948 -96.4661 0.0015 
44 1 1 -0.393647 0.00467716 -0.284701 0 0 0 -1.16163 -0.0650147 -0.980461 0 0 -0.000346714 55.0474 -741.588 28.6765 0.0015 
58 1 1 -0.373515 0.00996965 -0.286559 0 0 0 -0.94902 0.0198305 -1.1098 0 0 -0.000346714 155.641 -677.146 71.2123 0.0015 
139 1 1 -0.388961 0.0217995 -0.283094 0 0 0 -1.14571 -0.123245 -1.06648 0 0 -0.000346714 62.6153 -891.181 71.8998 0.0015 
121 1 1 -0.394694 -0.0323545 -0.281602 0 0 0 -1.07616 0.412799 -1.22209 0 0 -0.000346714 -331.159 -939.075 -28.2489 0.0015 
91 1 1 -0.388182 0.00530348 -0.279914 0 0 0 -1.2572 0.00155239 -1.00478 0 0 -0.00160516 28.9173 -522.756 -60.0474 0.0025 
64 1 1 -0.391046 0.0287052 -0.282708 0 0 0 -1.13601 -0.0425118 -1.05445 0 0 -0.000346714 126.092 -780.116 -229.565 0.0015 
84 1 1 -0.382458 -0.0179482 -0.277945 0 0 0 -1.18881 0.0659689 -1.01679 0 0 -0.000346714 -31.4453 -803.539 80.3585 0.0015 
135 1 1 -0.379646 0.0083883 -0.276534 0 0 0 -1.2473 -0.113646 -0.996221 0 0 -0.000346714 124.573 -897.878 -97.7638 0.0015 
115 1 1 -0.37912 0.0131174 -0.278328 0 0 0 -1.05783 0.0237803 -0.950954 0 0 -0.000346714 54.4753 -711.091 -123.131 0.0015 
88 1 1 -0.37781 0.0160877 -0.277938 0 0 0 -1.03177 -0.0126335 -0.960061 0 0 -0.000346714 13.715 -756.334 -11.7799 0.0015 
117 1 1 -0.378282 -0.0211157 -0.274362 0 0 0 -1.21502 0.0786648 -1.01809 0 0 -0.00160516 -67.7865 -517.688 82.8251 0.0025 
122 1 1 -0.382115 -0.0184134 -0.27461 0 0 0 -1.23943 0.105005 -0.973311 0 0 -0.000346714 -52.3441 -801.964 76.9716 0.0015 
164 1 1 -0.371299 -0.0191761 -0.275596 0 0 0 -0.89004 -0.162454 -0.891223 0 0 -0.000346714 163.798 49.1603 -85.2408 0.0015 
103 1 1 -0.371415 -0.00756527 -0.274181 0 0 0 -1.17177 -0.12019 -1.27286 0 0 -0.00160516 -97.0685 -383.117 65.5816 0.0025 
97 1 1 -0.377593 -0.00383342 -0.275455 0 0 0 -1.19092 -0.00283125 -0.953342 0 0 -0.000346714 15.5574 -830.818 -16.9975 0.0015 
166 1 1 -0.375242 -0.00397598 -0.272306 0 0 0 -1.19907 0.00578169 -0.907722 0 0 -0.000346714 0.512656 -855.694 -8.72509 0.0015 
63 1 1 -0.372334 0.00271416 -0.273151 0 0 0 -1.10933 0.035983 -0.912358 0 0 -0.000346714 9.74113 -799.623 -84.2586 0.0015 
80 1 1 -0.376471 0.0171079 -0.273175 0 0 0 -1.12165 -0.029336 -0.943638 0 0 -0.00160516 25.5936 -489.149 -30.692 0.0025 
149 1 1 -0.375495 -0.0260834 -0.268632 0 0 0 -1.20059 0.0745144 -0.919621 0 0 -0.000346714 -89.3031 -861.97 98.2465 0.0015 
66 1 1 -0.371753 -0.00941722 -0.266811 0 0 0 -1.28537 0.0777282 -0.861553 0 0 -0.00160516 87.1001 -437.028 198.78 0.0025 
94 1 1 -0.369872 -0.00243453 -0.266467 0 0 0 -1.17995 -0.0823339 -0.705718 0 0 -0.00160516 23.4741 -455.182 -153.871 0.0025 
83 1 1 -0.370279 0.0241806 -0.268113 0 0 0 -1.10116 0.00492353 -0.880048 0 0 -0.000346714 -12.1613 -813.412 18.5196 0.0015 
133 1 1 -0.368812 -0.0401778 -0.263691 0 0 0 -0.88396 -0.0592736 -0.803667 0 0 -0.000346714 -9.68419 -615.26 140.855 0.0015 
74 1 1 -0.372657 -0.0258059 -0.264796 0 0 0 -1.19736 0.266259 -0.913831 0 0 -0.000346714 -179.356 -904.898 -38.5655 0.0015 
106 1 1 -0.371541 -0.0142261 -0.264076 0 0 0 -1.30373 0.0810737 -0.766212 0 0 -0.00160516 -21.3255 -529.621 87.5652 0.0025 
116 1 1 -0.364991 -0.00513996 -0.264491 0 0 0 -1.17487 -0.0751396 -0.829845 0 0 -0.00160516 38.9938 -497.86 4.88896 0.0025 
128 1 1 -0.359214 -0.00525079 -0.26143 0 0 0 -1.10458 -0.0135245 -0.756882 0 0 -0.000346714 45.1345 -755.649 -21.3679 0.0015 
62 1 1 -0.360095 0.0112785 -0.262058 0 0 0 -1.22943 -0.0560851 -0.828645 0 0 -0.000346714 58.0721 -895.93 -40.99 0.0015 
100 1 1 -0.359696 -0.011591 -0.261151 0 0 0 -1.21133 -0.0835917 -0.788776 0 0 -0.000346714 77.6811 -875.877 -41.6933 0.0015 
203 1 1 -0.354371 -0.00853733 -0.258209 0 0 0 -1.16423 0.0206185 -0.742844 0 0 -0.000346714 -61.5607 -831.537 115.051 0.0015 
185 1 1 -0.355127 0.00239569 -0.260335 0 0 0 -1.17854 -0.118545 -0.807803 0 0 -0.000346714 71.3097 -764.026 38.6786 0.0015 
54 1 1 -0.355547 0.00756153 -0.258998 0 0 0 -1.09805 -0.0500744 -0.763198 0 0 -0.00160516 39.2195 -475.791 -40.5462 0.0025 
93 1 1 -0.354783 -0.0138902 -0.255924 0 0 0 -1.18885 0.0208314 -0.722379 0 0 -0.00160516 -21.8668 -510.094 36.0523 0.0025 
13 1 1 -0.35122 -0.00735003 -0.255359 0 0 0 -1.14026 -0.0876622 -0.704718 0 0 -0.00160516 57.3599 -496.435 -46.4329 0.0025 
158 1 1 -0.352833 0.00106941 -0.256425 0 0 0 -1.21172 -0.169447 -0.75151 0 0 -0.00160516 -0.14648 -518.024 13.1939 0.0025 
112 1 1 -0.350593 -0.0193986 -0.254036 0 0 0 -1.14788 0.157535 -0.722355 0 0 -0.000346714 -200.626 -788.872 222.316 0.0015 
243 1 1 -0.345816 -0.00488867 -0.253209 0 0 0 -1.20826 0.213882 -0.699307 0 0 -0.000346714 -205.047 -857.591 128.246 0.0015 
68 1 1 -0.344284 0.00449124 -0.25137 0 0 0 -1.1539 -0.0331372 -0.659034 0 0 -0.00160516 15.0556 -483.325 -36.6526 0.0025 
130 1 1 -0.352501 0.00712614 -0.254108 0 0 0 -1.19787 -0.129305 -0.679396 0 0 -0.00160516 64.5069 -519.33 -75.6691 0.0025 
269 1 1 -0.34584 0.00899122 -0.253469 0 0 0 -1.26465 -0.000171214 -0.735613 0 0 -0.000346714 134.225 -926.731 -186.097 0.0015 
89 1 1 -0.347123 0.0222477 -0.252056 0 0 0 -1.1484 -0.350555 -0.786124 0 0 -0.000346714 300.57 -838.142 -87.59 0.0015 
179 1 1 -0.354409 -0.0387629 -0.250163 0 0 0 -1.07154 0.538975 -0.982617 0 0 -0.000346714 -521.433 -757.262 213.055 0.0015 
159 1 1 -0.343726 -0.017449 -0.250633 0 0 0 -1.1079 0.135586 -0.652242 0 0 -0.000346714 -76.0065 -819.383 -55.7588 0.0015 
233 1 1 -0.34149 -0.0197616 -0.247241 0 0 0 -1.23275 0.162672 -0.647246 0 0 -0.00160516 -106.862 -519.008 92.7229 0.0025 
110 1 1 -0.337913 -0.00521424 -0.249437 0 0 0 -0.938657 -0.136414 -0.53733 0 0 -0.000346714 17.4258 -542.259 -2.09917 0.0015 
190 1 1 -0.340391 0.017915 -0.249038 0 0 0 -1.13495 0.0081687 -0.627277 0 0 -0.000346714 -12.7155 -837.309 14.3686 0.0015 
196 1 1 -0.343947 0.0235677 -0.24853 0 0 0 -1.21401 -0.0146728 -0.677564 0 0 -0.00160516 17.0199 -530.87 -25.7927 0.0025 
256 1 1 -0.342127 -0.0311328 -0.246415 0 0 0 -1.29264 0.264572 -0.7914 0 0 -0.000346714 -199.626 -988.315 9.896 0.0015 
169 1 1 -0.329985 0.00454315 -0.244186 0 0 0 -1.04837 0.0460929 -0.512189 0 0 -0.00160516 -39.8266 -459.556 45.0987 0.0025 
187 1 1 -0.329124 0.0115555 -0.243624 0 0 0 -1.01805 -0.0911627 -0.363183 0 0 -0.000346714 -13.4249 -512.621 117.498 0.0015 
199 1 1 -0.33091 0.0143233 -0.245811 0 0 0 -1.08435 -0.061576 -0.707708 0 0 -0.000346714 403.501 -676.786 42.8433 0.0015 
65 1 1 -0.325805 -0.00569855 -0.242079 0 0 0 -1.02736 -0.0275412 -0.447252 0 0 -0.00160516 36.4644 -448.4 -58.5931 0.0025 
131 1 1 -0.32154 -0.00169177 -0.240546 0 0 0 -1.0599 0.0126443 -0.409563 -2.11495e-05 -0.00118317 -0.000504241 -21.9296 -451.746 42.5529 0.0025 
163 1 1 -0.322939 0.00164933 -0.242225 0 0 0 -1.01581 0.0157176 -0.472296 2.11495e-05 0.00118317 -0.00144763 25.615 -711.036 5.8534 0.0015 
95 1 1 -0.320357 0.00283776 -0.241048 0 0 0 -1.01438 0.0457444 -0.424609 -7.72398e-05 -1.15512e-05 -6.4112e-05 -79.5787 -742.435 110.098 0.0015 
151 1 1 -0.322886 0.00464977 -0.241906 0 0 0 -1.09417 0.00284283 -0.443292 0 0 -0.000346714 -76.5234 -749.034 -84.1612 0.0015 
136 1 1 -0.322189 0.00751594 -0.240962 0 0 0 -1.0506 -0.0410702 -0.325886 0 0 -0.000346714 -18.4602 -729.004 -118.572 0.0015 
148 1 1 -0.325301 0.0116367 -0.242454 0 0 0 -0.984124 0.178056 -0.418919 0 0 -0.000346714 -149.711 -702.913 43.181 0.0015 
172 1 1 -0.321185 0.0137339 -0.240449 0 0 0 -0.764985 0.0184259 -0.323758 0 0 -0.000346714 -36.3449 -204.036 -265.701 0.0015 
67 1 1 -0.326864 0.0161262 -0.241491 0 0 0 -1.06999 -0.182503 -0.521025 0 0 -0.00160516 73.8984 -475.23 14.7248 0.0025 
173 1 1 -0.328987 0.0194053 -0.242919 0 0 0 -1.09745 -0.254056 -0.563646 0 0 -0.000346714 236.168 -784.017 -116.805 0.0015 
150 1 1 -0.320373 -0.0255528 -0.237832 0 0 0 -1.13872 -0.0397864 -0.506043 0 0 -0.000346714 -79.6459 -756.823 289.395 0.0015 
90 1 1 -0.316968 -0.00221483 -0.238559 0 0 0 -1.04056 0.00988612 -0.401297 0 0 -0.00160516 10.5195 -430.119 -30.2997 0.0025 
175 1 1 -0.310555 0.0119234 -0.236347 0 0 0 -1.09535 -0.127684 -0.469403 -8.99975e-05 -1.37071e-05 -3.85123e-05 65.5634 -798.167 64.0808 0.0015 
161 1 1 -0.318191 0.014329 -0.23767 0 0 0 -0.712641 -0.0552957 -0.172518 0 0 -0.000346714 -59.8555 -428.326 48.3612 0.0015 
289 1 1 -0.323974 0.0243705 -0.239034 0 0 0 -1.01351 -0.0734463 -0.631552 0 0 -0.000346714 -9.09044 -543.624 102.941 0.0015 
184 1 1 -0.316232 0.0240081 -0.236536 0 0 0 -1.25945 -0.24974 -0.574379 -8.57101e-05 -3.99664e-05 -4.1968e-05 206.951 -913.918 -56.412 0.0015 
204 1 1 -0.330241 0.0368108 -0.238308 0 0 0 -0.99054 -0.185185 -0.516665 0 0 -0.000346714 209.691 -691.083 -169.486 0.0015 
143 1 1 -0.312409 -0.0212235 -0.23459 0 0 0 -1.17399 0.195597 -0.529094 0.01038 -0.00711336 -0.0255844 -140.737 -488.985 125.614 0.0025 
177 1 1 -0.309464 -0.018274 -0.234928 0 0 0 -1.14117 0.116154 -0.457948 0 0 -0.000346714 -44.3967 -834.696 -95.249 0.0015 
153 1 1 -0.305038 -0.00209754 -0.234689 0 0 0 -0.965525 -0.0342508 -0.40641 -8.87502e-05 7.32062e-06 -3.73266e-05 -42.813 -693.84 160.188 0.0015 
92 1 1 -0.326382 0.0122417 -0.231983 0 0 0 -1.09837 -0.0974242 0.0171159 0 0 -0.00160516 13.3064 -107.421 -112.37 0.0025 
210 1 1 -0.306895 0.017077 -0.232889 0 0 0 -1.07699 0.00650385 -0.448052 -0.000396553 -0.000184994 -0.00019496 30.0315 -459.256 -78.8533 0.0025 
194 1 1 -0.325901 -0.0439823 -0.231692 0 0 0 -1.10952 0.496096 -0.633607 0 0 -0.00160516 -298.467 -421.307 192.778 0.0025 
198 1 1 -0.312979 -0.0407798 -0.229414 0 0 0 -1.12046 0.0805646 -0.44404 0 0 -0.000346714 -52.6078 -866.82 -16.222 0.0015 
157 1 1 -0.299755 -0.0198947 -0.22942 0 0 0 -0.857315 -0.0309122 -0.330054 8.97007e-05 3.35166e-05 -1.64622e-05 55.8901 -237.762 30.1668 0.0025 
15 1 1 -0.300226 -0.0143888 -0.230646 0 0 0 -0.841299 0.0226041 -0.355931 -0.000405157 0.000105624 -0.000181715 -38.2284 -359.744 67.5125 0.0025 
197 1 1 -0.298966 -0.0074306 -0.231941 0 0 0 -0.736917 -0.00889951 -0.310425 2.16541e-05 3.39894e-05 6.48059e-06 -20.2217 -297.274 -29.1113 0.0015 
101 1 1 -0.296234 -0.00755403 -0.229834 0 0 0 -0.739812 0.0157846 -0.32966 0 0 -0.000346714 -32.2479 -419.431 117.725 0.0015 
167 1 1 -0.30181 -0.00337345 -0.232199 0 0 0 -0.925471 -0.00933901 -0.390038 -0.000435952 3.56017e-05 -0.000132149 5.54694 -402.421 -3.51196 0.0025 
213 1 1 -0.295268 -0.00103211 -0.230603 0 0 0 -0.891202 -0.0388202 -0.374908 2.24877e-05 2.50162e-05 8.63269e-06 -27.3555 -173.477 17.243 0.0015 
73 1 1 -0.292409 7.21482e-05 -0.229433 0 0 0 -0.896751 -0.00312078 -0.378469 -8.86255e-05 7.16348e-06 -3.76268e-05 -5.42556 -648.965 18.2066 0.0015 
123 1 1 -0.295799 0.00403856 -0.230621 0 0 0 -0.992873 0.0319012 -0.416428 -8.82821e-05 -1.32774e-05 -3.81838e-05 -3.10809 -716.89 -47.5081 0.0015 
192 1 1 -0.297085 0.0180402 -0.229708 0 0 0 -1.15879 -0.0994304 -0.502156 -8.71019e-05 -4.02708e-05 -4.26035e-05 125.212 -826.363 -125.314 0.0015 
214 1 1 -0.30381 -0.0401911 -0.226095 0 0 0 -1.15091 0.0755959 -0.539255 0 0 -0.000346714 -50.5797 -889.887 -3.50075 0.0015 
221 1 1 -0.298114 -0.0268289 -0.227271 0 0 0 -1.06333 -0.0531329 -0.403147 0 0 -0.00160516 -0.0749283 -451.998 61.0829 0.0025 
193 1 1 -0.295136 -0.021334 -0.22729 0 0 0 -0.867862 -0.0466443 -0.324103 -4.6309e-06 -1.54752e-05 -0.00147637 -4.3094 -365.816 64.5604 0.0025 
205 1 1 -0.293983 -0.017618 -0.228638 0 0 0 -0.954351 -0.00486128 -0.397469 -8.28335e-05 3.72947e-05 -4.93252e-05 50.2632 -721.192 -111.844 0.0015 
183 1 1 -0.290354 -0.0158196 -0.226342 0 0 0 -0.97257 0.065173 -0.415735 -0.000428467 0.000112025 -0.000128015 -28.212 -424.504 -0.555185 0.0025 
182 1 1 -0.28832 -0.0110838 -0.226002 0 0 0 -0.795902 -0.0486667 -0.329145 0.000102259 0.000237183 -6.39203e-05 -31.839 -216.658 82.1851 0.0025 
127 1 1 -0.291841 -0.00996556 -0.228693 0 0 0 -0.804123 0.0516004 -0.343922 -8.74971e-05 2.26261e-05 -3.95838e-05 -30.4022 -586.659 -16.9362 0.0015 
59 1 1 -0.286958 -0.00713124 -0.226744 0 0 0 -0.977812 0.0590157 -0.360287 0 0 -0.000346714 -11.8298 -230.585 11.6487 0.0015 
191 1 1 -0.289119 -0.00485201 -0.227876 0 0 0 -0.909393 -0.0937647 -0.380683 5.27122e-06 -5.99926e-05 -1.4235e-05 63.1047 -544.254 157.662 0.0015 
189 1 1 -0.290121 -0.00179089 -0.228404 0 0 0 -0.933893 -0.0530034 -0.392464 -8.83337e-05 7.1505e-06 -3.80084e-05 58.663 -678.131 -48.0124 0.0015 
208 1 1 -0.294315 0.0141231 -0.228218 0 0 0 -0.973479 0.0448637 -0.396902 -0.000456551 -0.000212387 -6.76481e-05 -9.33142 -424.089 -25.0497 0.0025 
212 1 1 -0.300286 0.0338616 -0.227071 0 0 0 -1.17216 -0.0308836 -0.471906 0 0 -0.000346714 114.146 -800.955 -232.948 0.0015 
206 1 1 -0.283841 -0.00767795 -0.224078 0 0 0 -0.961569 0.0188641 -0.286108 0 0 -0.00160516 -5.26823 -356.912 10.0876 0.0025 
132 1 1 -0.286859 -0.00310543 -0.22457 0 0 0 -0.990607 0.117546 -0.370021 0 0 -0.00160516 -69.3199 -211.951 -67.842 0.0025 
144 1 1 -0.281795 -0.00244197 -0.22373 0 0 0 -0.939075 0.0571854 -0.442336 0 0 -0.00160516 -50.0793 -378.985 51.7378 0.0025 
119 1 1 -0.285708 0.00558325 -0.225182 0 0 0 -1.0427 -0.0233271 -0.441242 -0.00039738 -5.52899e-05 -0.000157914 13.4706 -453.224 -7.90613 0.0025 
9 1 1 -0.283516 0.0095237 -0.225034 0 0 0 -0.937761 -0.138198 -0.368573 0 0 -0.000346714 -25.0869 -569.929 -59.8167 0.0015 
178 1 1 -0.280908 0.00846988 -0.22362 0 0 0 -0.929435 -0.115082 -0.385408 0 0 -0.000346714 61.3372 -568.618 -95.6197 0.0015 
244 1 1 -0.282231 0.0128963 -0.223107 0 0 0 -1.10828 0.0223387 -0.391877 0 0 -0.00160516 6.53133 -450.445 -74.1264 0.0025 
224 1 1 -0.287395 0.0241656 -0.224564 0 0 0 -1.1485 -0.0377258 -0.478599 0 0 -0.000346714 44.7151 -829.566 -43.7222 0.0015 
219 1 1 -0.282018 -0.0191113 -0.222266 0 0 0 -1.20646 0.134134 -0.528657 -0.000364184 0.000161932 -0.000286544 -100.194 -512.574 98.5891 0.0025 
218 1 1 -0.273421 -0.0208497 -0.219458 0 0 0 -1.07953 0.0857912 -0.464329 -4.11165e-05 1.83959e-05 -0.000140383 -82.6894 -782.062 47.7479 0.0015 
225 1 1 -0.276098 -0.0156692 -0.221454 0 0 0 -0.843672 0.0378608 -0.349105 0 0 -0.000346714 31.7643 -523.812 -60.835 0.0015 
211 1 1 -0.273593 -0.0168444 -0.220258 0 0 0 -0.903505 -0.122161 -0.320972 0 0 -0.000346714 -149.111 -208.332 126.073 0.0015 
181 1 1 -0.277361 -0.0115988 -0.221337 0 0 0 -0.986173 0.0561242 -0.421143 -0.000222878 5.8292e-05 -0.000595522 -54.8186 -422.2 72.3048 0.0025 
126 1 1 -0.274477 -0.00493644 -0.221699 0 0 0 -0.810383 0.00464316 -0.340143 -3.31865e-05 0.0001284 -4.56063e-05 20.9703 -573.432 -117.414 0.0015 
168 1 1 -0.270317 -0.00648842 -0.218801 0 0 0 -0.903709 -0.0495636 -0.381374 -0.000391272 3.6028e-05 -0.000216114 18.7959 -392.926 6.52287 0.0025 
155 1 1 -0.27722 -0.00035901 -0.221923 0 0 0 -1.03443 0.0212374 -0.436595 -0.000240124 1.71732e-05 -0.000520188 -6.39723 -449.653 -6.66819 0.0025 
180 1 1 -0.272608 -0.000108447 -0.219992 0 0 0 -1.03648 -0.0172354 -0.43441 -0.000301916 2.37799e-05 -0.000386977 27.4581 -451.629 -47.5529 0.0025 
228 1 1 -0.271423 0.0140621 -0.219636 0 0 0 -0.99891 0.0523055 -0.395661 -2.91212e-05 -2.89889e-06 -0.000232542 36.3934 -697.17 -183.315 0.0015 
276 1 1 -0.275747 0.0163468 -0.221039 0 0 0 -0.945113 -0.0828716 -0.411856 0 0 -0.000346714 24.7263 -704.978 83.503 0.0015 
262 1 1 -0.27577 0.0219097 -0.220039 0 0 0 -1.2381 0.297932 -0.950411 0 0 -0.000346714 1.40873 -295.686 64.7813 0.0015 
188 1 1 -0.268904 -0.03019 -0.215321 0 0 0 -1.07057 0.0268231 -0.436176 0 0 -0.000346714 -2.73617 -802.525 -35.0761 0.0015 
259 1 1 -0.271854 -0.026087 -0.21669 0 0 0 -1.10611 0.0155694 -0.456492 -0.000811241 0.000590021 0.00110557 -31.1033 -478.422 58.8694 0.0025 
145 1 1 -0.270837 -0.0149062 -0.218087 0 0 0 -1.00788 0.145651 -0.31388 0 0 -0.00160516 -47.4724 -391.386 -54.6262 0.0025 
247 1 1 -0.261639 -0.00471617 -0.215212 0 0 0 -0.765757 0.0342754 -0.322313 0.000130996 -0.000280435 0.00119621 29.344 -184.99 12.0044 0.0025 
216 1 1 -0.263677 -0.000538287 -0.217309 0 0 0 -0.958367 -0.0520374 -0.397917 -4.0628e-05 2.0526e-06 -0.000203974 43.5794 -693.54 -13.9263 0.0015 
202 1 1 -0.265791 0.00443764 -0.217973 0 0 0 -0.886038 -0.0389175 -0.373057 -9.53677e-05 -1.14181e-05 -1.5915e-05 -19.2177 -647.019 113.243 0.0015 
217 1 1 -0.264376 0.0163006 -0.216319 0 0 0 -0.895929 0.21256 -0.349628 -1.45875e-06 -2.91628e-05 0.000155516 -132.003 -647.324 -54.9318 0.0015 
272 1 1 -0.272823 0.0205216 -0.217608 0 0 0 -1.18944 0.334144 -0.762591 0 0 -0.00160516 -176.692 200.087 -133.76 0.0025 
287 1 1 -0.269602 0.0323603 -0.214992 0 0 0 -0.909045 0.147837 -0.322726 -8.33294e-05 -5.8607e-05 -3.77993e-05 -59.0351 -639.397 -126.571 0.0015 
200 1 1 -0.296545 -0.054441 -0.215615 0 0 0 -1.01999 0.6254 -0.784114 0 0 -0.000346714 -609.717 -650.833 290.828 0.0015 
232 1 1 -0.261979 -0.011133 -0.21494 0 0 0 -0.945285 -0.0804247 -0.387612 -0.000191352 5.67698e-05 -0.000575028 33.8556 -412.076 2.75783 0.0025 
147 1 1 -0.251689 -0.00608054 -0.212038 0 0 0 -0.972581 -0.00247148 -0.41008 -0.000298413 2.71116e-06 0.00041715 14.2141 -705.833 -29.7795 0.0015 
274 1 1 -0.25558 0.000507797 -0.212751 0 0 0 -0.959192 -0.0157024 -0.40451 0.00015396 -5.32607e-05 0.000683081 -30.0792 -58.1518 60.7819 0.0025 
201 1 1 -0.257281 0.00574093 -0.214315 0 0 0 -0.756898 0.0379164 -0.315107 -8.81225e-05 -9.26978e-06 -3.72365e-05 -58.1679 -550.984 73.4176 0.0015 
268 1 1 -0.258734 0.00941203 -0.214761 0 0 0 -0.910903 -0.0594666 -0.383813 -8.49777e-05 -8.93563e-06 -4.50843e-05 73.9874 -655.919 -73.9596 0.0015 
239 1 1 -0.259469 0.0142611 -0.214582 0 0 0 -0.808854 0.0486253 -0.334569 2.34766e-05 -6.5427e-05 -6.23896e-08 38.0433 -403.865 -114.569 0.0015 
215 1 1 -0.25536 0.0150421 -0.212726 0 0 0 -1.01641 -0.0990006 -0.444212 -7.21153e-05 -2.52006e-05 -8.46799e-05 113.238 -728.342 -96.7618 0.0015 
296 1 1 -0.259062 0.0235379 -0.211851 0 0 0 -0.980062 0.16963 -0.408639 0 0 -0.00160516 -31.628 -406.879 -107.882 0.0025 
305 1 1 -0.26578 0.030687 -0.213931 0 0 0 -1.13944 0.11112 -0.438657 -0.000482119 -0.000181743 0.00109756 -63.3663 -836.263 -44.5173 0.0015 
253 1 1 -0.264888 0.0363228 -0.212002 0 0 0 -0.967468 -0.0152357 -0.395038 -0.000438838 -0.000328789 0.000997944 111.685 -650.177 -248.968 0.0015 
293 1 1 -0.275624 0.0393658 -0.215206 0 0 0 -1.18507 -0.0278962 -0.498674 -0.000129251 -0.000138592 4.33196e-05 23.3974 -921.097 -3.83594 0.0015 
195 1 1 -0.245727 -0.0112268 -0.208134 0 0 0 -0.926319 0.0012167 -0.379569 -0.00437534 0.00173361 0.00921268 -28.5533 -393.729 69.6381 0.0025 
109 1 1 -0.2491 -0.00770397 -0.210861 0 0 0 -0.907063 0.0459255 -0.387019 -9.1652e-05 1.07262e-05 -2.85321e-05 -66.4927 -654.026 78.2606 0.0015 
266 1 1 -0.244966 -0.00681644 -0.209156 0 0 0 -0.887952 0.0196002 -0.373539 -7.6811e-05 9.02428e-06 -6.111e-05 -92.4466 -633.764 186.562 0.0015 
223 1 1 -0.244047 -0.00395801 -0.208911 0 0 0 -0.893584 0.0204037 -0.375827 -8.42337e-05 9.85268e-06 -4.60433e-05 30.9459 -652.339 -108.998 0.0015 
124 1 1 -0.249042 -0.00190052 -0.21111 0 0 0 -0.910784 0.0353688 -0.383611 -9.43505e-05 9.8161e-06 -2.695e-05 -25.0561 -659.421 -1.30054 0.0015 
118 1 1 -0.246058 -0.000237803 -0.208736 0 0 0 -0.959795 0.00991106 -0.402013 -0.000569801 -8.6162e-05 0.000362044 -10.8125 -417.339 15.8794 0.0025 
249 1 1 -0.250731 0.0044592 -0.21161 0 0 0 -1.01423 -0.0164865 -0.430239 -0.000102416 -9.25498e-06 -5.98757e-05 19.2176 -734.596 -17.1857 0.0015 
281 1 1 -0.24651 0.0124553 -0.209353 0 0 0 -0.894849 -0.0654078 -0.408041 0 0 -0.000346714 48.4774 -577.997 58.0898 0.0015 
369 1 1 -0.246484 0.0186762 -0.208461 0 0 0 -0.856152 -0.0837945 -0.373579 -9.84167e-05 -3.31761e-05 -3.19985e-05 144.702 -596.58 -197.461 0.0015 
282 1 1 -0.236047 -0.00726556 -0.205256 0 0 0 -0.734749 -0.0815548 -0.311895 0 0 -0.000346714 59.2297 -532.765 1.12277 0.0015 
251 1 1 -0.238443 -0.00262033 -0.206625 0 0 0 -0.926309 0.010051 -0.388626 8.69991e-06 -1.7826e-06 -0.000265361 -9.80679 -669.855 6.12833 0.0015 
235 1 1 -0.241472 0.00450876 -0.207701 0 0 0 -0.935809 0.0258928 -0.397509 -8.8517e-05 -7.69325e-06 -3.46002e-05 -76.9392 -683.745 136.713 0.0015 
279 1 1 -0.23517 0.00456421 -0.205047 0 0 0 -0.784101 -0.0693742 -0.328987 -8.68271e-05 -6.81253e-06 -3.95929e-05 95.5515 -563.289 -108.942 0.0015 
160 1 1 -0.243827 0.0114402 -0.207965 0 0 0 -0.884751 -0.0629155 -0.341562 0 0 -0.000346714 79.7874 -563.599 -33.3354 0.0015 
154 1 1 -0.242919 0.0147451 -0.207528 0 0 0 -0.869371 -0.0182055 -0.36566 3.64199e-05 1.5071e-05 -0.000434749 63.475 -616.452 -119.547 0.0015 
311 1 1 -0.241303 0.021234 -0.204818 0 0 0 -1.03062 0.214969 -0.377288 0 0 -0.00160516 -75.3478 -438.678 -48.9269 0.0025 
156 1 1 -0.249096 0.0274182 -0.20679 0 0 0 -1.03506 0.0387036 -0.411674 -0.000357486 -0.000244912 -0.000184575 13.7976 -440.471 -75.9733 0.0025 
245 1 1 -0.251739 0.0353356 -0.20578 0 0 0 -0.989171 -0.0928439 -0.426279 -0.000376847 -0.000244339 -0.000217545 40.1826 -440.627 2.72943 0.0025 
250 1 1 -0.235651 -0.0303641 -0.201676 0 0 0 -0.981537 -0.072278 -0.414932 -5.89784e-05 2.48852e-05 -0.000154884 20.5018 -711.371 75.7519 0.0015 
226 1 1 -0.236454 -0.0240763 -0.203283 0 0 0 -0.803381 -0.0415036 -0.346953 0 0 -0.000346714 37.1344 -592.851 -13.3111 0.0015 
295 1 1 -0.233815 -0.024083 -0.201585 0 0 0 -0.814443 -0.074876 -0.366316 0 0 -0.000346714 8.50834 -493.673 103.286 0.0015 
207 1 1 -0.235854 -0.0169049 -0.203348 0 0 0 -0.728395 -0.00314372 -0.301681 -0.0033288 0.00141312 0.0059597 -34.3759 -304.463 89.4062 0.0025 
278 1 1 -0.231492 -0.0135161 -0.202873 0 0 0 -0.779598 -0.00230979 -0.320435 -0.000130714 1.23534e-05 2.49623e-05 -44.4272 -555.326 111.549 0.0015 
209 1 1 -0.228533 0.0063169 -0.201081 0 0 0 -0.860707 -0.0711063 -0.388732 0.00114516 -0.00026283 -0.000600378 39.1825 -344.623 -7.82009 0.0025 
271 1 1 -0.233035 0.00734848 -0.202985 0 0 0 -0.849994 -0.0223858 -0.356136 -0.00194507 0.000589985 -0.00167568 18.1412 -304.639 -16.9191 0.0025 
86 1 1 -0.228856 0.011143 -0.202073 0 0 0 -0.937572 -0.295314 -0.435266 0 0 -0.000346714 246.771 -671.816 -76.8804 0.0015 
315 1 1 -0.257319 0.048674 -0.203758 0 0 0 -1.06967 0.175783 -0.543922 0 0 -0.000346714 -76.2062 -670.753 -256.741 0.0015 
306 1 1 -0.230771 -0.0259386 -0.200545 0 0 0 -0.832825 -0.00521977 -0.339869 -8.06086e-05 4.01703e-05 -4.82762e-05 -39.9546 -589.023 106.954 0.0015 
176 1 1 -0.227733 -0.0189168 -0.200726 0 0 0 -0.955975 -0.0363013 -0.384795 -0.000165653 8.52876e-05 0.000140166 17.9167 -697.549 20.5784 0.0015 
242 1 1 -0.22207 -0.0130287 -0.198883 0 0 0 -0.844023 -0.0265653 -0.358846 0 0 -0.000346714 -25.8668 -601.384 108.764 0.0015 
170 1 1 -0.225812 -0.00247823 -0.200177 0 0 0 -0.826392 0.0399665 -0.351944 -0.000280394 -1.51398e-05 -0.000501828 -33.6974 -360.669 38.0237 0.0025 
254 1 1 -0.219773 0.000440231 -0.19865 0 0 0 -0.566103 0.0285281 -0.235956 -9.95519e-05 -4.07858e-06 7.74272e-06 -1.60989 -408.423 -45.6233 0.0015 
323 1 1 -0.22431 0.00532558 -0.198608 0 0 0 -0.831492 0.04655 -0.379864 0.000969748 -0.000414343 -8.31888e-05 -27.9271 -297.692 -6.96988 0.0025 
290 1 1 -0.224449 0.017311 -0.199443 0 0 0 -0.896855 -0.134186 -0.389996 -3.70539e-05 -1.23658e-05 -0.000131385 118.871 -645.479 -51.3376 0.0015 
134 1 1 -0.224956 0.02262 -0.198962 0 0 0 -0.927105 -0.120568 -0.403961 0 0 -0.000346714 132.53 -657.999 -109.689 0.0015 
303 1 1 -0.218752 -0.0253189 -0.195657 0 0 0 -0.836049 0.145222 -0.469624 0 0 -0.000346714 -108.62 -574.848 32.0179 0.0015 
236 1 1 -0.21502 -0.0241896 -0.194389 0 0 0 -0.917693 0.0094826 -0.376524 -8.17886e-05 4.37689e-05 -4.63309e-05 -32.8298 -660.617 63.3733 0.0015 
275 1 1 -0.215588 -0.0157984 -0.195919 0 0 0 -0.763699 -0.0361945 -0.323117 -8.87854e-05 2.16343e-05 -4.01492e-05 27.245 -556.854 -2.01776 0.0015 
125 1 1 -0.213853 -0.0106988 -0.195684 0 0 0 -0.768191 0.0153071 -0.32042 -0.000109309 2.47044e-05 2.37043e-05 -6.41403 -557.898 -11.4071 0.0015 