ITEM: TIMESTEP
57600
ITEM: NUMBER OF ATOMS
730
ITEM: BOX BOUNDS ff ff ff
-0.5 0.1
-0.2 0.2
-0.4 0.15
ITEM: ATOMS id type type x y z ix iy iz vx vy vz fx fy fz omegax omegay omegaz radius 
733 1 1 -0.00362169 0.0277239 0.0549252 0 0 0 -0 0 -1 0 0 0 0 0 0 0.0025 
735 1 1 -0.0289047 0.0220934 0.0554679 0 0 0 -0 0 -1 0 0 0 0 0 0 0.0025 
5 1 1 -0.487425 0.0234712 -0.39395 0 0 0 -1.22063 -0.0258608 -1.81384 0 0 -0.000346714 40.8132 -862.41 -69.636 0.0015 
21 1 1 -0.482151 -0.00689215 -0.390563 0 0 0 -1.22066 0.000988222 -1.77985 0 0 -0.000346714 49.6369 -887.668 -122.725 0.0015 
24 1 1 -0.485115 0.0296646 -0.388135 0 0 0 -1.22383 0.0186497 -1.77961 0 0 -0.000346714 14.4092 -872.264 -80.6741 0.0015 
26 1 1 -0.49938 0.0410041 -0.388922 0 0 0 -1.32747 0.0425561 -1.81306 0 0 -0.00160516 -32.6902 -612.822 29.8485 0.0025 
79 1 1 -0.490853 0.00439759 -0.384223 0 0 0 -1.378 0.30525 -1.8181 0 0 -0.00160516 -176.122 -587.899 99.1921 0.0025 
3 1 1 -0.488922 0.0179614 -0.384822 0 0 0 -1.31764 -0.0929644 -1.79508 0 0 -0.00160516 76.4224 -569.127 -84.3997 0.0025 
20 1 1 -0.478379 0.0195676 -0.383988 0 0 0 -1.23169 0.0317857 -1.75212 0 0 -0.000346714 -11.9006 -900.031 -28.6026 0.0015 
8 1 1 -0.476167 -0.00217294 -0.380579 0 0 0 -1.26137 -0.0314132 -1.73485 0 0 -0.000346714 76.1638 -907.335 -125.055 0.0015 
6 1 1 -0.475821 0.00502575 -0.380661 0 0 0 -1.25132 -0.010251 -1.73484 0 0 -0.000346714 -33.5802 -913.941 95.5313 0.0015 
32 1 1 -0.477771 0.0122319 -0.378121 0 0 0 -1.29113 -0.0028421 -1.72731 0 0 -0.000346714 20.8681 -933.198 -44.7153 0.0015 
22 1 1 -0.473596 -0.00174907 -0.37424 0 0 0 -1.26492 -0.0120562 -1.69205 0 0 -0.000346714 1.49463 -913.023 19.2065 0.0015 
16 1 1 -0.475227 0.0111862 -0.373522 0 0 0 -1.29763 -0.0177613 -1.71098 0 0 -0.00160516 57.8637 -529.809 -129.785 0.0025 
37 1 1 -0.47879 0.0263112 -0.373549 0 0 0 -1.28576 -0.0207153 -1.71322 0 0 -0.000346714 30.0417 -959.45 -37.3227 0.0015 
71 1 1 -0.457047 0.00174019 -0.368869 0 0 0 -1.14829 -0.0635083 -1.66129 0 0 -0.000346714 72.3421 -824.369 -110.69 0.0015 
48 1 1 -0.479851 0.0355932 -0.371249 0 0 0 -1.23544 -0.0884536 -1.73272 0 0 -0.000346714 151.646 -872.326 -212.38 0.0015 
75 1 1 -0.467723 0.000519601 -0.365848 0 0 0 -1.26362 -0.123618 -1.64889 0 0 -0.000346714 63.747 -912.826 47.474 0.0015 
14 1 1 -0.470247 -0.02258 -0.361757 0 0 0 -1.28167 -0.0139118 -1.6332 0 0 -0.00160516 8.61766 -562.419 -4.83414 0.0025 
23 1 1 -0.465552 -0.00879181 -0.362362 0 0 0 -1.23895 0.0445033 -1.61638 0 0 -0.000346714 -47.7125 -887.95 34.9517 0.0015 
57 1 1 -0.464763 0.0228182 -0.363196 0 0 0 -1.26408 0.111304 -1.63354 0 0 -0.000346714 -100.896 -920.057 46.3585 0.0015 
51 1 1 -0.473733 0.0385389 -0.364142 0 0 0 -1.21526 -0.0745945 -1.69142 0 0 -0.000346714 131.495 -873.56 -184.238 0.0015 
138 1 1 -0.469527 -0.0373801 -0.358312 0 0 0 -1.28577 -0.0975923 -1.62286 0 0 -0.000346714 175.539 -861.909 106.915 0.0015 
35 1 1 -0.462534 -0.00672076 -0.359696 0 0 0 -1.23142 0.0450788 -1.59831 0 0 -0.000346714 -69.7978 -876.085 94.5709 0.0015 
42 1 1 -0.46107 -0.0188821 -0.354114 0 0 0 -1.33211 -0.2013 -1.59843 0 0 -0.00160516 109.87 -576.939 -51.5609 0.0025 
10 1 1 -0.431327 -0.00570799 -0.34069 0 0 0 -1.08588 0.0255981 -1.52077 0 0 -0.000346714 8.62949 -715.818 131.799 0.0015 
113 1 1 -0.443579 0.0201725 -0.337805 0 0 0 -1.25852 0.167329 -1.46902 0 0 -0.000346714 -194.603 -924.024 170.121 0.0015 
34 1 1 -0.450718 0.0209169 -0.338027 0 0 0 -1.41482 -0.192511 -1.67715 0 0 -0.000346714 493.877 -684.048 -258.406 0.0015 
76 1 1 -0.428771 -0.0134876 -0.331409 0 0 0 -1.09231 -0.13439 -1.39515 0 0 -0.000346714 92.8442 -788.275 14.2557 0.0015 
56 1 1 -0.437908 0.0108663 -0.332486 0 0 0 -1.24774 0.0347759 -1.43579 0 0 -0.000346714 -69.6708 -911.978 103.154 0.0015 
55 1 1 -0.443899 0.0210803 -0.333802 0 0 0 -1.2534 -0.0834902 -1.46616 0 0 -0.00160516 19.7338 -540.88 -1.90988 0.0025 
52 1 1 -0.439137 -0.00443571 -0.330599 0 0 0 -1.22838 0.0816529 -1.40888 0 0 -0.00160516 -60.2016 -512.405 63.3718 0.0025 
28 1 1 -0.43638 0.00597057 -0.330534 0 0 0 -1.24819 0.014326 -1.43465 0 0 -0.00160516 -59.8863 -541.768 76.586 0.0025 
50 1 1 -0.431566 0.00116998 -0.325326 0 0 0 -1.22769 0.0717969 -1.376 0 0 -0.000346714 -20.5329 -889.797 -76.0856 0.0015 
49 1 1 -0.432989 0.0105168 -0.32559 0 0 0 -1.21594 0.0273208 -1.35574 0 0 -0.000346714 -2.95137 -858.897 -124.859 0.0015 
96 1 1 -0.428642 0.00937903 -0.325326 0 0 0 -1.19581 0.0233573 -1.37786 0 0 -0.000346714 98.111 -850.536 -269.484 0.0015 
78 1 1 -0.441438 0.0225765 -0.326234 0 0 0 -1.28145 -0.0805766 -1.42353 0 0 -0.00160516 53.9726 -553.987 -53.888 0.0025 
41 1 1 -0.429043 -0.00266868 -0.321265 0 0 0 -1.21901 0.141039 -1.36059 0 0 -0.00160516 -90.0438 -515.039 74.5683 0.0025 
46 1 1 -0.431745 0.0178273 -0.322762 0 0 0 -1.25892 -0.0445232 -1.38391 0 0 -0.000346714 58.0925 -913.663 -61.0714 0.0015 
174 1 1 -0.453505 -0.0406689 -0.319163 0 0 0 -1.38865 0.146671 -1.45672 0 0 -0.000346714 -250.031 -903.892 387.194 0.0015 
107 1 1 -0.422669 -0.00581923 -0.316828 0 0 0 -1.20273 0.108717 -1.34058 0 0 -0.00160516 -56.9293 -506.666 -9.08631 0.0025 
25 1 1 -0.421655 0.00620185 -0.314906 0 0 0 -1.24851 0.0261982 -1.30916 0 0 -0.000346714 -60.0562 -912.014 95.3081 0.0015 
19 1 1 -0.416795 0.00644938 -0.315311 0 0 0 -1.20978 0.000488063 -1.32694 0 0 -0.000346714 5.80892 -834.78 -69.1373 0.0015 
40 1 1 -0.426796 0.0228517 -0.313604 0 0 0 -1.26232 -0.0794454 -1.33914 0 0 -0.00160516 24.5492 -581.951 25.5622 0.0025 
60 1 1 -0.420584 -0.00474924 -0.307475 0 0 0 -1.2223 0.0893583 -1.18703 0 0 -0.000346714 -56.6924 -815.658 -85.2318 0.0015 
39 1 1 -0.413053 -0.00170621 -0.304854 0 0 0 -1.21561 0.0585228 -1.2271 0 0 -0.00160516 -19.8868 -526.821 -12.8098 0.0025 
111 1 1 -0.409282 -0.00434235 -0.301405 0 0 0 -1.25302 0.0696824 -1.20395 0 0 -0.000346714 -85.679 -900.298 85.1638 0.0015 
102 1 1 -0.420205 0.0375817 -0.300294 0 0 0 -1.25929 -0.0282837 -1.23757 0 0 -0.000346714 57.9866 -954.03 -94.2035 0.0015 
7 1 1 -0.392791 -0.00566933 -0.297012 0 0 0 -1.01188 0.396983 -1.21539 0 0 -0.000346714 -433.814 -624.856 371.752 0.0015 
1 1 1 -0.406082 -0.0044657 -0.296042 0 0 0 -1.25756 0.0823184 -1.16311 0 0 -0.00160516 -80.3433 -534.057 111.987 0.0025 
120 1 1 -0.441961 -0.0168647 -0.29497 0 0 0 -1.46795 -0.0787227 -1.24328 0 0 -0.00160516 68.5391 360.736 -3.49879 0.0025 
129 1 1 -0.389713 0.00927165 -0.288115 0 0 0 -1.0715 -0.0529995 -1.07079 0 0 -0.00160516 59.257 -278.556 -70.1664 0.0025 
87 1 1 -0.382575 -0.0163335 -0.284213 0 0 0 -1.14688 0.112103 -1.11126 0 0 -0.000346714 -95.6221 -653.381 131.349 0.0015 
29 1 1 -0.389953 -0.000714525 -0.284891 0 0 0 -1.2138 -0.0533211 -1.06411 0 0 -0.00160516 37.3982 -526.679 -33.1236 0.0025 
81 1 1 -0.386028 0.0104498 -0.283797 0 0 0 -1.13802 0.0508109 -1.02884 0 0 -0.000346714 -22.8756 -823.707 -33.2889 0.0015 
114 1 1 -0.389463 -0.0191978 -0.283805 0 0 0 -1.29154 0.138004 -1.12816 0 0 -0.000346714 -177.256 -902.318 191.707 0.0015 
33 1 1 -0.382393 0.0047444 -0.282422 0 0 0 -1.12847 -0.0441989 -1.03046 0 0 -0.000346714 20.3045 -790.454 -101.48 0.0015 
70 1 1 -0.38421 0.00897059 -0.279692 0 0 0 -1.1916 -0.010934 -0.98901 0 0 -0.000346714 30.1272 -846.192 -96.9348 0.0015 
45 1 1 -0.384852 -0.0271946 -0.277749 0 0 0 -1.03471 0.341643 -1.09127 0 0 -0.000346714 -276.055 -792.101 37.7484 0.0015 
69 1 1 -0.387079 0.0303884 -0.278286 0 0 0 -1.15688 0.0501623 -0.991921 0 0 -0.000346714 4.34776 -838.832 -104.978 0.0015 
27 1 1 -0.383502 -0.0193806 -0.273569 0 0 0 -1.22138 0.0677168 -0.955652 0 0 -0.00160516 -2.99417 -474.149 -2.65371 0.0025 
171 1 1 -0.378536 -0.0201605 -0.274907 0 0 0 -1.19072 0.0900565 -0.996983 0 0 -0.000346714 -20.8638 -869.319 -74.2511 0.0015 
82 1 1 -0.380338 0.0149707 -0.275908 0 0 0 -1.23143 -0.0741231 -0.989817 0 0 -0.000346714 -29.9445 -944.1 197.417 0.0015 
105 1 1 -0.37795 -0.0161192 -0.269864 0 0 0 -1.33838 0.132325 -0.959058 0 0 -0.00160516 -51.181 -589.493 -14.4579 0.0025 
152 1 1 -0.371665 0.00246294 -0.271598 0 0 0 -1.16893 -0.0586856 -0.914311 0 0 -0.000346714 1.19702 -854.343 96.3749 0.0015 
99 1 1 -0.363836 0.00772799 -0.269197 0 0 0 -1.08037 -0.0661912 -0.959369 0 0 -0.000346714 169.819 -626.796 -14.1058 0.0015 
43 1 1 -0.380497 0.040382 -0.270692 0 0 0 -1.17401 -0.00652347 -1.01961 0 0 -0.000346714 218.147 -602.343 -229.085 0.0015 
98 1 1 -0.368477 -0.018099 -0.265568 0 0 0 -1.23145 0.00742095 -0.86095 0 0 -0.000346714 -28.5849 -890.559 58.3764 0.0015 
53 1 1 -0.366516 0.00315825 -0.266929 0 0 0 -1.13425 0.00110134 -0.862391 0 0 -0.00160516 -16.8268 -496.557 37.4088 0.0025 
104 1 1 -0.363241 0.00112529 -0.262855 0 0 0 -1.2476 0.0536797 -0.829137 0 0 -0.00160516 -43.105 -536.888 47.8404 0.0025 
44 1 1 -0.363444 0.00636754 -0.262524 0 0 0 -1.16163 -0.0650147 -0.725401 0 0 -0.000346714 55.0474 -741.588 28.6765 0.0015 
108 1 1 -0.356673 0.00359929 -0.261146 0 0 0 -1.1779 -0.0254728 -0.819772 0 0 -0.000346714 44.0659 -815.948 -96.4661 0.0015 
77 1 1 -0.36076 0.0117461 -0.261798 0 0 0 -1.15269 -0.154881 -0.836251 0 0 -0.00160516 53.5331 -515.472 33.6965 0.0025 
140 1 1 -0.363834 0.01494 -0.26423 0 0 0 -1.17201 -0.157875 -0.864642 0 0 -0.000346714 100.145 -868.861 36.5402 0.0015 
137 1 1 -0.37803 0.0367888 -0.262309 0 0 0 -1.1782 -0.0649507 -0.819928 0 0 -0.000346714 60.2564 -867.776 -0.874001 0.0015 
165 1 1 -0.359986 -0.0221147 -0.260017 0 0 0 -1.14294 0.121721 -0.810116 0 0 -0.000346714 -118.131 -839.428 72.9318 0.0015 
58 1 1 -0.348841 0.00945406 -0.26102 0 0 0 -0.94902 0.0198305 -0.854736 0 0 -0.000346714 155.641 -677.146 71.2123 0.0015 
115 1 1 -0.351616 0.0124991 -0.256919 0 0 0 -1.05783 0.0237803 -0.695894 0 0 -0.000346714 54.4753 -711.091 -123.131 0.0015 
139 1 1 -0.359172 0.0250039 -0.258682 0 0 0 -1.14571 -0.123245 -0.81142 0 0 -0.000346714 62.6153 -891.181 71.8998 0.0015 
64 1 1 -0.36151 0.0298105 -0.258608 0 0 0 -1.13601 -0.0425118 -0.799385 0 0 -0.000346714 126.092 -780.116 -229.565 0.0015 
84 1 1 -0.351548 -0.0196634 -0.254824 0 0 0 -1.18881 0.0659689 -0.761732 0 0 -0.000346714 -31.4453 -803.539 80.3585 0.0015 
164 1 1 -0.348158 -0.0149523 -0.25574 0 0 0 -0.89004 -0.162454 -0.636163 0 0 -0.000346714 163.798 49.1603 -85.2408 0.0015 
97 1 1 -0.346629 -0.00375981 -0.253984 0 0 0 -1.19092 -0.00283125 -0.698282 0 0 -0.000346714 15.5574 -830.818 -16.9975 0.0015 
91 1 1 -0.355495 0.00526312 -0.257106 0 0 0 -1.2572 0.00155239 -0.749715 0 0 -0.00160516 28.9173 -522.756 -60.0474 0.0025 
135 1 1 -0.347217 0.0113431 -0.253948 0 0 0 -1.2473 -0.113646 -0.741161 0 0 -0.000346714 124.573 -897.878 -97.7638 0.0015 
88 1 1 -0.350984 0.0164162 -0.256293 0 0 0 -1.03177 -0.0126335 -0.705001 0 0 -0.000346714 13.715 -756.334 -11.7799 0.0015 
121 1 1 -0.366713 -0.0430873 -0.253143 0 0 0 -1.07616 0.412799 -0.967033 0 0 -0.000346714 -331.159 -939.075 -28.2489 0.0015 
122 1 1 -0.34989 -0.0211436 -0.252619 0 0 0 -1.23943 0.105005 -0.718251 0 0 -0.000346714 -52.3441 -801.964 76.9716 0.0015 
117 1 1 -0.346691 -0.023161 -0.251207 0 0 0 -1.21502 0.0786648 -0.76303 0 0 -0.00160516 -67.7865 -517.688 82.8251 0.0025 
166 1 1 -0.344066 -0.0041263 -0.252021 0 0 0 -1.19907 0.00578169 -0.652662 0 0 -0.000346714 0.512656 -855.694 -8.72509 0.0015 
63 1 1 -0.343491 0.0017786 -0.252745 0 0 0 -1.10933 0.035983 -0.657298 0 0 -0.000346714 9.74113 -799.623 -84.2586 0.0015 
80 1 1 -0.347308 0.0178706 -0.251956 0 0 0 -1.12165 -0.029336 -0.688578 0 0 -0.00160516 25.5936 -489.149 -30.692 0.0025 
133 1 1 -0.345829 -0.0386366 -0.246111 0 0 0 -0.88396 -0.0592736 -0.548607 0 0 -0.000346714 -9.68419 -615.26 140.855 0.0015 
149 1 1 -0.34428 -0.0280208 -0.248038 0 0 0 -1.20059 0.0745144 -0.664561 0 0 -0.000346714 -89.3031 -861.97 98.2465 0.0015 
66 1 1 -0.33898 -0.0122081 -0.247489 0 0 0 -1.23316 0.140414 -0.62533 0 0 -0.00160516 -80.1949 -527.156 51.167 0.0025 
103 1 1 -0.340576 -0.0057559 -0.249123 0 0 0 -1.20539 -0.0466386 -0.633524 0 0 -0.00160516 15.6084 -520.837 11.6228 0.0025 
116 1 1 -0.334445 -0.00318633 -0.246231 0 0 0 -1.17487 -0.0751396 -0.574785 0 0 -0.00160516 38.9938 -497.86 4.88896 0.0025 
94 1 1 -0.338731 0.00348108 -0.248574 0 0 0 -1.21587 -0.37069 -0.669478 0 0 -0.00160516 202.221 -523.701 -93.8591 0.0025 
83 1 1 -0.341649 0.0240526 -0.248548 0 0 0 -1.10116 0.00492353 -0.624988 0 0 -0.000346714 -12.1613 -813.412 18.5196 0.0015 
74 1 1 -0.341525 -0.0327286 -0.244352 0 0 0 -1.19736 0.266259 -0.658771 0 0 -0.000346714 -179.356 -904.898 -38.5655 0.0015 
106 1 1 -0.337834 -0.0180235 -0.245847 0 0 0 -1.2864 0.233192 -0.657773 0 0 -0.00160516 -122.551 -550.548 53.9226 0.0025 
100 1 1 -0.328202 -0.00941758 -0.243959 0 0 0 -1.21133 -0.0835917 -0.533716 0 0 -0.000346714 77.6811 -875.877 -41.6933 0.0015 
203 1 1 -0.324101 -0.00907341 -0.242211 0 0 0 -1.16423 0.0206185 -0.487784 0 0 -0.000346714 -61.5607 -831.537 115.051 0.0015 
128 1 1 -0.330495 -0.00489915 -0.245067 0 0 0 -1.10458 -0.0135245 -0.501822 0 0 -0.000346714 45.1345 -755.649 -21.3679 0.0015 
185 1 1 -0.324484 0.00547783 -0.242648 0 0 0 -1.1782 -0.118437 -0.54704 -0.000786373 -1.85551e-05 -0.00198396 71.1853 -771.194 38.8002 0.0015 
54 1 1 -0.326998 0.00886347 -0.24247 0 0 0 -1.09805 -0.0500744 -0.508138 0 0 -0.00160516 39.2195 -475.791 -40.5462 0.0025 
62 1 1 -0.32813 0.0127367 -0.243829 0 0 0 -1.22943 -0.0560851 -0.573585 0 0 -0.000346714 58.0721 -895.93 -40.99 0.0015 
112 1 1 -0.320749 -0.0234945 -0.23857 0 0 0 -1.14788 0.157535 -0.467295 0 0 -0.000346714 -200.626 -788.872 222.316 0.0015 
93 1 1 -0.323872 -0.0144318 -0.240458 0 0 0 -1.18885 0.0208314 -0.467319 0 0 -0.00160516 -21.8668 -510.094 36.0523 0.0025 
13 1 1 -0.321573 -0.00507038 -0.240352 0 0 0 -1.13984 -0.0882858 -0.453259 -0.000327537 4.84002e-05 -0.000362593 56.9965 -495.58 -46.6535 0.0025 
110 1 1 -0.313416 -0.00146818 -0.238245 0 0 0 -0.952866 -0.176492 -0.397444 -1.64928e-07 2.36859e-05 -0.000264745 -35.2385 -447.56 -28.6482 0.0015 
158 1 1 -0.321328 0.00547504 -0.240201 0 0 0 -1.2118 -0.16947 -0.497682 0.000786373 1.85551e-05 3.2087e-05 -0.162605 -518.954 13.2097 0.0025 
130 1 1 -0.321356 0.0104881 -0.239759 0 0 0 -1.19787 -0.129305 -0.424336 0 0 -0.00160516 64.5069 -519.33 -75.6691 0.0025 
159 1 1 -0.314977 -0.0209436 -0.236773 0 0 0 -1.09168 0.127235 -0.461296 0 0 -0.000346714 -69.8386 -805.38 -56.0355 0.0015 
243 1 1 -0.314482 -0.0104346 -0.238063 0 0 0 -1.18344 0.209164 -0.533573 0 0 -0.000346714 -203.662 -840.363 127.721 0.0015 
68 1 1 -0.314491 0.00519609 -0.236965 0 0 0 -1.11983 -0.0166148 -0.55736 0 0 -0.00160516 7.36022 -441.73 -53.7089 0.0025 
269 1 1 -0.312452 0.00983129 -0.237277 0 0 0 -1.32298 -0.110626 -0.563638 -8.03447e-05 -1.19713e-05 -5.93325e-05 200.482 -940.992 -285.811 0.0015 
190 1 1 -0.311006 0.0176405 -0.235593 0 0 0 -1.11089 0.0198997 -0.459574 -8.52368e-05 -3.97389e-05 -4.3266e-05 -20.7405 -818.565 14.6902 0.0015 
233 1 1 -0.309693 -0.0238679 -0.232789 0 0 0 -1.18524 0.134422 -0.553382 -0.00270333 0.00219805 0.0211364 -98.7942 -504.524 92.8186 0.0025 
65 1 1 -0.299782 -0.0048905 -0.231289 0 0 0 -0.967052 -0.0341937 -0.406878 -0.000385479 3.82095e-05 -0.000256543 39.623 -422.16 -58.5972 0.0025 
169 1 1 -0.303148 0.00327092 -0.232684 0 0 0 -1.00257 0.0535188 -0.418978 -0.00041826 -6.41156e-05 -0.000157612 -42.3932 -439.07 45.3307 0.0025 
163 1 1 -0.297588 0.000870954 -0.231568 0 0 0 -0.951981 0.0552387 -0.386757 0 0 -0.000346714 2.96158 -654.589 -18.692 0.0015 
151 1 1 -0.296508 0.00362928 -0.230946 0 0 0 -0.97857 0.043585 -0.409665 -8.83283e-05 -1.32894e-05 -3.79835e-05 26.9299 -700.727 -138.88 0.0015 
187 1 1 -0.303933 0.00909276 -0.233732 0 0 0 -0.828792 0.242193 -0.334458 1.96476e-05 1.21464e-05 9.23352e-06 -150.6 -581.99 -66.8583 0.0015 
172 1 1 -0.300649 0.0135737 -0.231778 0 0 0 -1.0447 -0.132636 -0.445732 0 0 -0.000346714 -45.0683 -538.133 -153.946 0.0015 
196 1 1 -0.312472 0.0239035 -0.233888 0 0 0 -1.19328 -0.0045778 -0.498843 -0.000360025 -0.000169836 -0.000293028 12.7037 -520.859 -25.6335 0.0025 
199 1 1 -0.303109 0.0199894 -0.231841 0 0 0 -1.04081 -0.250992 -0.483373 -8.49623e-05 -3.96767e-05 -4.33453e-05 234.118 -741.117 -119.287 0.0015 
89 1 1 -0.3173 0.0313315 -0.234796 0 0 0 -1.13504 -0.339197 -0.580541 -7.98318e-05 -6.75e-05 -5.21774e-05 292.31 -828.282 -87.5579 0.0015 
256 1 1 -0.308576 -0.0379206 -0.228846 0 0 0 -1.27764 0.240435 -0.621395 0 0 -0.000346714 -180.36 -964.885 6.60925 0.0015 
131 1 1 -0.29563 -0.0020196 -0.229598 0 0 0 -0.973663 0.0120623 -0.392057 0 0 -0.00160516 -17.9045 -409.086 39.2326 0.0025 
95 1 1 -0.294274 0.00175872 -0.230123 0 0 0 -0.977573 0.0433144 -0.409242 -8.83388e-05 -1.32224e-05 -3.82671e-05 -80.1197 -716.134 115.581 0.0015 
148 1 1 -0.299866 0.00756072 -0.230521 0 0 0 -0.976564 0.148112 -0.397491 0 0 -0.000346714 -217.854 -564.345 23.2115 0.0015 
92 1 1 -0.298528 0.0156053 -0.228717 0 0 0 -1.03508 -0.177591 -0.358288 0 0 -0.00160516 69.936 -363.905 -70.0085 0.0025 
136 1 1 -0.294815 0.0132129 -0.229603 0 0 0 -1.02796 -0.248021 -0.449325 0 0 -0.000346714 224.619 -733.615 -107.495 0.0015 
161 1 1 -0.294083 0.0176506 -0.228532 0 0 0 -1.01454 -0.154358 -0.452127 -5.28645e-05 -2.33517e-05 -0.000127411 122.39 -740.264 -22.0623 0.0015 
67 1 1 -0.299618 0.0205916 -0.229168 0 0 0 -1.01759 -0.15749 -0.455072 -0.000314476 -0.000156999 -0.000354765 63.171 -451.241 14.9356 0.0025 
173 1 1 -0.30094 0.0257868 -0.229792 0 0 0 -1.05388 -0.23384 -0.47369 0 0 -0.000346714 218.123 -745.72 -116.89 0.0015 
179 1 1 -0.326549 -0.0527762 -0.22793 0 0 0 -1.07154 0.538975 -0.727557 0 0 -0.000346714 -521.433 -757.262 213.055 0.0015 
150 1 1 -0.291313 -0.0241656 -0.226266 0 0 0 -1.09289 -0.0679631 -0.406344 5.57756e-05 -5.58661e-05 -0.000519366 -63.3254 -734.335 290.477 0.0015 
90 1 1 -0.288988 -0.00263027 -0.226813 0 0 0 -1.04816 0.0139124 -0.443155 -0.000400885 3.17954e-05 -0.000187868 7.31172 -456.75 -31.6461 0.0025 
153 1 1 -0.280973 -0.000999394 -0.224569 0 0 0 -0.901265 -0.0439183 -0.380041 1.57056e-05 -3.34102e-05 -8.42195e-06 -22.521 -604.03 161.603 0.0015 
175 1 1 -0.283033 0.0150647 -0.224396 0 0 0 -1.01887 -0.108946 -0.455484 -9.1996e-05 -3.86805e-05 -3.28272e-05 52.7246 -760.732 64.0275 0.0015 
289 1 1 -0.297623 0.0262801 -0.22593 0 0 0 -1.01351 -0.0734463 -0.376492 0 0 -0.000346714 -9.09044 -543.624 102.941 0.0015 
204 1 1 -0.305043 0.0410754 -0.226236 0 0 0 -0.936314 -0.125964 -0.450585 -0.000197027 -0.000362201 0.00152908 172.839 -661.68 -170.035 0.0015 
143 1 1 -0.282619 -0.0258738 -0.221178 0 0 0 -1.10435 0.151922 -0.518333 -0.00367509 0.00250634 0.0177234 -125.216 -466.796 126.553 0.0025 
177 1 1 -0.281025 -0.0208564 -0.222622 0 0 0 -1.06203 0.0847766 -0.459465 -9.49019e-05 4.2824e-05 -2.00201e-05 -22.9557 -796.773 -94.0018 0.0015 
15 1 1 -0.279156 -0.0147752 -0.22175 0 0 0 -0.790485 0.0131546 -0.333636 3.09399e-05 -0.000179473 8.51055e-05 -23.6196 -316.661 68.9582 0.0025 
127 1 1 -0.271756 -0.0110918 -0.220132 0 0 0 -0.748426 0.0346253 -0.318794 9.52403e-06 1.42682e-05 -0.000210772 -18.3097 -524.172 -18.6138 0.0015 
197 1 1 -0.280181 -0.00683962 -0.223953 0 0 0 -0.813839 0.116965 -0.662836 0 0 -0.000346714 42.3068 261.714 93.1393 0.0015 
101 1 1 -0.275853 -0.00823426 -0.222155 0 0 0 -0.840854 0.039769 -0.355978 -8.68524e-05 2.24005e-05 -3.96233e-05 -79.7659 -597.829 121.63 0.0015 
167 1 1 -0.278074 -0.00286988 -0.221999 0 0 0 -0.911336 -0.0716617 -0.440428 0 0 -0.00160516 32.623 -362.847 18.6231 0.0025 
213 1 1 -0.271908 0.000229745 -0.220784 0 0 0 -0.887269 -0.0607294 -0.362698 1.33447e-05 3.04002e-06 -0.000116055 -46.263 4.63334 2.56186 0.0015 
210 1 1 -0.279721 0.0165255 -0.221617 0 0 0 -1.01161 0.0361196 -0.422611 -0.000414158 -0.000152822 -0.0004435 17.5279 -431.715 -78.8807 0.0025 
184 1 1 -0.28441 0.0300388 -0.221779 0 0 0 -1.19565 -0.214948 -0.53929 0 0 -0.000346714 181.541 -873.725 -55.7755 0.0015 
198 1 1 -0.284661 -0.0419454 -0.217643 0 0 0 -1.06325 0.0108297 -0.44341 0 0 -0.000346714 2.92284 -812.733 -19.9955 0.0015 
157 1 1 -0.277167 -0.0190748 -0.220146 0 0 0 -0.849061 -0.0527295 -0.440608 0 0 -0.00160516 129.621 -78.8691 15.355 0.0025 
193 1 1 -0.272778 -0.0206199 -0.218096 0 0 0 -0.917959 0.0135018 -0.377527 0 0 -0.00160516 37.6333 -359.422 57.6121 0.0025 
205 1 1 -0.268817 -0.0160655 -0.218327 0 0 0 -0.914322 -0.153145 -0.369242 0 0 -0.000346714 213.155 -689.143 -237.857 0.0015 
182 1 1 -0.268367 -0.0104464 -0.217696 0 0 0 -0.716072 0.0181029 -0.304569 6.07801e-05 -5.36861e-06 -0.000428408 21.5318 -132.368 33.111 0.0025 
59 1 1 -0.264762 -0.00762383 -0.217493 0 0 0 -1.05832 0.0106693 -0.445032 -0.00027326 7.40485e-06 0.000400965 33.0285 -769.65 -97.9108 0.0015 
191 1 1 -0.266393 -0.00335056 -0.218343 0 0 0 -0.794448 -0.0211244 -0.337483 -6.42165e-05 1.06279e-05 -6.25749e-05 -59.8837 -569.3 177.066 0.0015 
123 1 1 -0.270801 0.00313975 -0.219954 0 0 0 -0.935836 0.0292333 -0.412762 0 0 -0.000346714 -30.7881 -643.122 -54.5336 0.0015 
73 1 1 -0.269163 0.000132424 -0.219576 0 0 0 -0.880914 -0.0102649 -0.342037 -0.00277257 0.000472927 -0.00372962 3.8969 -573.001 16.6165 0.0015 
189 1 1 -0.266452 -0.000284528 -0.218372 0 0 0 -0.929131 -0.094668 -0.393624 0.00277257 -0.000472927 0.0030362 70.3389 -642.896 -0.334459 0.0015 
208 1 1 -0.269871 0.0126472 -0.218123 0 0 0 -0.908453 0.0686197 -0.373008 -0.000405851 -0.000151927 -0.000185069 -19.9363 -395.127 -24.1313 0.0025 
214 1 1 -0.274242 -0.0416262 -0.213623 0 0 0 -1.11143 0.0289793 -0.449769 0 0 -0.000346714 -12.9509 -858.027 -4.12165 0.0015 
221 1 1 -0.271211 -0.025144 -0.21626 0 0 0 -1.03077 -0.0662042 -0.331303 0 0 -0.00160516 33.5337 -412.768 63.5713 0.0025 
183 1 1 -0.265767 -0.0172667 -0.215824 0 0 0 -0.954976 0.066819 -0.411447 -0.000405285 0.000114646 -0.000183756 -22.1472 -419.483 -16.7272 0.0025 
132 1 1 -0.261707 -0.00410204 -0.215263 0 0 0 -0.95868 -0.0271791 -0.399008 -0.000323745 3.10141e-05 -0.000454436 7.6693 -415.741 9.93424 0.0025 
119 1 1 -0.259651 0.00581219 -0.214222 0 0 0 -0.958212 0.00961634 -0.40681 0 0 -0.00160516 13.4345 -414.216 -41.8924 0.0025 
9 1 1 -0.259459 0.0140413 -0.214611 0 0 0 -0.921722 -0.265879 -0.430164 -8.69253e-05 -3.13e-05 -4.20897e-05 256.547 -651.65 -146.93 0.0015 
192 1 1 -0.267741 0.0202796 -0.217113 0 0 0 -1.09414 -0.0719901 -0.473894 -0.00027914 -0.00011118 0.000328905 106.218 -782.353 -125.403 0.0015 
212 1 1 -0.270688 0.0339761 -0.214976 0 0 0 -1.11078 0.0158019 -0.440131 -8.12185e-05 -5.63628e-05 -4.62501e-05 81.7377 -759.214 -233.536 0.0015 
194 1 1 -0.298012 -0.0553738 -0.214267 0 0 0 -1.05091 0.399458 -0.647473 0 0 -0.00160516 -260.597 -394.305 193.015 0.0025 
211 1 1 -0.251891 -0.0189909 -0.210735 0 0 0 -0.873643 0.118974 -0.432995 0 0 -0.000346714 -188.387 -594.997 255.265 0.0015 
225 1 1 -0.254612 -0.0164978 -0.212305 0 0 0 -0.828311 -0.0884987 -0.329651 4.5142e-06 1.08798e-05 -0.000281521 0.23094 -369.753 67.8233 0.0015 
181 1 1 -0.252717 -0.0125657 -0.210755 0 0 0 -0.914071 0.0259244 -0.410246 0 0 -0.00160516 -45.37 -379.739 89.7979 0.0025 
206 1 1 -0.257711 -0.00841304 -0.213345 0 0 0 -0.986764 0.0271694 -0.410267 0 0 -0.00160516 -15.0273 -424.357 8.39346 0.0025 
126 1 1 -0.252765 -0.00565708 -0.212503 0 0 0 -0.879882 0.101283 -0.372628 0 0 -0.000346714 -163.203 -445.497 -3.54928 0.0015 
144 1 1 -0.256369 -0.00341528 -0.213036 0 0 0 -0.984282 0.0226715 -0.415685 -0.00011836 -3.67625e-05 -0.00105135 -35.408 -424.955 60.5254 0.0025 
155 1 1 -0.251079 -5.78074e-05 -0.21086 0 0 0 -0.96573 -0.0483923 -0.412833 -0.000282832 -2.76308e-05 -0.000465422 10.0333 -421.389 25.9152 0.0025 
178 1 1 -0.254722 0.0104501 -0.213036 0 0 0 -1.02359 -0.0565723 -0.430752 -0.000102279 -1.07315e-05 -8.192e-06 76.5533 -737.027 -85.0891 0.0015 
244 1 1 -0.253783 0.0140695 -0.211112 0 0 0 -1.06345 -0.043046 -0.457057 -0.000133438 -4.60415e-05 -0.000728602 39.5483 -459.044 -48.8916 0.0025 
276 1 1 -0.251733 0.0182574 -0.210722 0 0 0 -0.844777 -0.0269606 -0.354563 -6.79834e-05 -2.38738e-05 -8.62713e-05 -23.1939 -631.077 103.071 0.0015 
224 1 1 -0.258406 0.0247761 -0.212485 0 0 0 -1.08074 -0.00654858 -0.451649 0 0 -0.000346714 22.5151 -791.194 -44.1841 0.0015 
219 1 1 -0.251464 -0.0230791 -0.208674 0 0 0 -1.14258 0.17442 -0.511739 0 0 -0.00160516 -108.112 -482.058 83.7534 0.0025 
218 1 1 -0.246166 -0.0226862 -0.207675 0 0 0 -1.02381 0.0567536 -0.422104 0 0 -0.000346714 -60.2138 -736.199 47.2525 0.0015 
145 1 1 -0.243681 -0.0166236 -0.206503 0 0 0 -1.02231 0.054835 -0.415402 -0.000388308 0.000144878 -0.000179183 -12.67 -448.905 -28.049 0.0025 
168 1 1 -0.24765 -0.00511964 -0.209288 0 0 0 -0.838294 -0.0561214 -0.354053 -0.000463416 5.5504e-05 1.41377e-05 21.6454 -364.789 6.48024 0.0025 
247 1 1 -0.241565 -0.00556638 -0.206708 0 0 0 -0.763421 -0.0107431 -0.315354 4.99519e-05 1.43545e-05 -0.000849435 13.326 -58.1344 13.3953 0.0025 
180 1 1 -0.246421 0.000289852 -0.208868 0 0 0 -0.985939 -0.0134792 -0.412277 -0.000472687 -3.09779e-05 3.94427e-05 25.8984 -426.178 -47.952 0.0025 
216 1 1 -0.239685 0.00075085 -0.207077 0 0 0 -0.889852 -0.0465409 -0.380185 -8.78719e-05 -7.46963e-06 -4.26276e-05 39.7237 -644.857 -14.0338 0.0015 
202 1 1 -0.24361 0.00535933 -0.208578 0 0 0 -0.82201 -0.0321747 -0.344723 -0.000138666 -2.77833e-05 9.31285e-05 -24.0212 -599.118 113.416 0.0015 
201 1 1 -0.238464 0.00467261 -0.206416 0 0 0 -0.696531 0.043992 -0.288822 2.44962e-05 -4.2944e-06 1.00001e-05 -62.8849 -495.943 73.6984 0.0015 
217 1 1 -0.241663 0.0106711 -0.207526 0 0 0 -0.868243 0.191975 -0.377117 0 0 -0.000346714 -219.437 -508.766 -75.1434 0.0015 
228 1 1 -0.246437 0.0123253 -0.209372 0 0 0 -0.928148 0.0785796 -0.381176 -8.38292e-05 -2.90231e-05 -4.90083e-05 20.0951 -651.449 -183.232 0.0015 
239 1 1 -0.238062 0.0122658 -0.205824 0 0 0 -0.840936 0.107062 -0.336898 0 0 -0.000346714 69.0328 -190.632 -69.8997 0.0015 
262 1 1 -0.248045 0.0192227 -0.209041 0 0 0 -1.14104 0.0334765 -0.477362 -5.38447e-05 -1.74482e-05 -0.000123364 -17.5895 -831.225 -16.4025 0.0015 
287 1 1 -0.2467 0.0279929 -0.206774 0 0 0 -0.874492 0.178551 -0.307948 5.96267e-06 -7.83277e-06 -0.00022612 -110.684 -544.166 -122.145 0.0015 
188 1 1 -0.241815 -0.0302972 -0.204195 0 0 0 -1.01689 -0.0116234 -0.395032 0 0 -0.000346714 25.9957 -758.406 -36.69 0.0015 
259 1 1 -0.243869 -0.026049 -0.20505 0 0 0 -1.03746 -0.0262344 -0.451256 -0.000614224 0.000292978 0.000249035 -14.2432 -449.736 58.7137 0.0025 
232 1 1 -0.237672 -0.0096308 -0.204692 0 0 0 -0.951079 0.00465006 -0.422994 0 0 -0.00160516 -1.61324 -414.203 -0.260705 0.0025 
268 1 1 -0.235568 0.0108053 -0.204796 0 0 0 -0.886055 -0.0499704 -0.31696 0 0 -0.000346714 76.7552 -573.23 -69.497 0.0015 
305 1 1 -0.236953 0.027274 -0.202875 0 0 0 -1.07799 0.151645 -0.415028 0 0 -0.000346714 -94.6444 -785.48 -43.8789 0.0015 
109 1 1 -0.22611 -0.00910819 -0.200975 0 0 0 -0.859239 0.0588643 -0.372735 -8.65707e-05 1.80299e-05 -5.13041e-05 -72.96 -619.114 70.3774 0.0015 
266 1 1 -0.222731 -0.00721947 -0.199693 0 0 0 -0.813798 0.0283581 -0.355913 0 0 -0.000346714 -96.6783 -572.773 182.964 0.0015 
147 1 1 -0.227339 -0.00580069 -0.201747 0 0 0 -0.903879 -0.0196081 -0.373685 -8.98996e-05 1.69018e-05 -2.94775e-05 26.7222 -656.802 -30.1985 0.0015 
223 1 1 -0.221252 -0.00458897 -0.199307 0 0 0 -0.912313 0.00785538 -0.378837 -8.57439e-05 1.89072e-05 -3.98466e-05 11.4407 -664.823 -41.3466 0.0015 
124 1 1 -0.226251 -0.00265302 -0.201329 0 0 0 -0.831947 -0.005886 -0.403742 0 0 -0.000346714 -80.6729 -601.986 -26.0899 0.0015 
274 1 1 -0.230033 0.000856395 -0.201768 0 0 0 -1.00587 -0.011393 -0.442415 0 0 -0.00160516 -36.1282 98.0673 64.1299 0.0025 
249 1 1 -0.225187 0.00481622 -0.200815 0 0 0 -0.952035 -0.0114765 -0.396274 -8.77487e-05 -4.19994e-06 -3.66483e-05 15.4485 -687.553 -17.2024 0.0015 
296 1 1 -0.234321 0.0188664 -0.201362 0 0 0 -0.940324 0.183677 -0.326734 0 0 -0.00160516 -42.313 -377.534 -107.954 0.0025 
215 1 1 -0.229735 0.0173395 -0.201628 0 0 0 -0.955937 -0.0786305 -0.405889 -8.64214e-05 -2.71228e-05 -3.89346e-05 97.301 -682.445 -96.9536 0.0015 
253 1 1 -0.240545 0.0361784 -0.202108 0 0 0 -0.904284 0.0261147 -0.368516 0 0 -0.000346714 82.2801 -605.86 -249.136 0.0015 
293 1 1 -0.24538 0.0393978 -0.202946 0 0 0 -1.13359 0.0287089 -0.454732 -0.000356289 -0.000372344 0.000739709 -20.1714 -873.207 -1.29235 0.0015 
226 1 1 -0.21629 -0.0225969 -0.195254 0 0 0 -0.708745 -0.0755677 -0.2727 -8.32022e-05 4.44463e-05 -4.36448e-05 72.121 -529.727 -40.6497 0.0015 
207 1 1 -0.217895 -0.0165773 -0.195735 0 0 0 -0.658463 -0.0198256 -0.279779 -0.000410902 0.000100121 -0.000186093 -29.6297 -278.692 89.4824 0.0025 
195 1 1 -0.222683 -0.0110168 -0.198255 0 0 0 -0.849391 -0.0219436 -0.431682 0.00181654 0.00357739 0.0285108 -24.8636 -344.793 67.3434 0.0025 
282 1 1 -0.217464 -0.00503536 -0.197632 0 0 0 -0.716786 -0.0862155 -0.287016 0 0 -0.000346714 80.736 -413.989 0.0820447 0.0015 
118 1 1 -0.222035 -0.000515327 -0.198528 0 0 0 -0.889526 0.00644512 -0.371571 -0.000272718 -1.28665e-05 -0.000393782 -13.3399 -386.34 25.3774 0.0025 
251 1 1 -0.215257 -0.00284208 -0.196769 0 0 0 -0.858053 0.00938646 -0.367556 -8.93633e-05 -2.42659e-06 -3.89127e-05 -9.45701 -622.769 6.17344 0.0015 
235 1 1 -0.217928 0.00376942 -0.197815 0 0 0 -0.874502 0.030542 -0.364762 -4.25641e-05 -1.87913e-06 -0.000109263 -79.1204 -634.771 137.24 0.0015 
279 1 1 -0.21565 0.00630924 -0.196816 0 0 0 -0.722577 -0.0658181 -0.292787 0 0 -0.000346714 92.7896 -517.075 -109.067 0.0015 
272 1 1 -0.240836 0.0108125 -0.198659 0 0 0 -1.23174 0.374955 -0.605012 0 0 -0.00160516 -188.588 152.755 -148.514 0.0025 
160 1 1 -0.219149 0.0115815 -0.197901 0 0 0 -0.950311 0.0297692 -0.401784 -9.56923e-05 -2.70841e-05 -2.83673e-05 -10.6171 -690.344 -26.0679 0.0015 
281 1 1 -0.224196 0.014399 -0.199154 0 0 0 -0.891419 -0.0809723 -0.50454 0 0 -0.000346714 -49.2899 -281.986 77.6472 0.0015 
154 1 1 -0.221002 0.0152116 -0.19799 0 0 0 -0.829472 -0.029435 -0.329036 0 0 -0.000346714 36.1289 -509.664 -74.7753 0.0015 
369 1 1 -0.224143 0.0209785 -0.198841 0 0 0 -0.869314 -0.097188 -0.371929 1.0336e-05 1.67785e-05 -6.21214e-05 71.3211 -416.003 -203.199 0.0015 
156 1 1 -0.223042 0.0258824 -0.19633 0 0 0 -0.973431 0.0760352 -0.363696 -0.00647646 -0.00407481 0.00599552 0.350855 -418.883 -76.0676 0.0025 