ITEM: TIMESTEP
89000
ITEM: NUMBER OF ATOMS
820
ITEM: BOX BOUNDS ff ff ff
-0.5 0.1
-0.2 0.2
-0.4 0.15
ITEM: ATOMS id type type x y z ix iy iz vx vy vz fx fy fz omegax omegay omegaz radius 
1131 1 1 -0.000330328 0.0145139 0.0496359 0 0 0 0 0 -1.00358 0 0 -0.000346714 0 0 0 0.0015 
1125 1 1 -0.0259778 -0.00286041 0.0521028 0 0 0 -0 0 -1 0 0 0 0 0 0 0.0025 
1135 1 1 -0.00262037 0.021756 0.0488163 0 0 0 0 0 -1.01153 0 0 -0.000346714 0 0 0 0.0015 
1126 1 1 -0.0337055 0.00352844 0.0483004 0 0 0 0 0 -1.01653 0 0 -0.00160516 0 0 0 0.0025 
1134 1 1 -0.0284116 -0.0310219 0.0504038 0 0 0 -0 0 -1 0 0 0 0 0 0 0.0015 
1124 1 1 -0.00444667 -0.00640165 0.0484941 0 0 0 0 0 -1.01467 0 0 -0.00160516 0 0 0 0.0025 
1127 1 1 -0.000998203 -0.0288364 0.0455585 0 0 0 0 0 -1.04262 0 0 -0.00160516 0 0 0 0.0025 
1132 1 1 -0.00742361 0.0337546 0.0440316 0 0 0 0 0 -1.05695 0 0 -0.000346714 0 0 0 0.0015 
294 1 1 -0.474688 -0.0110031 -0.400505 0 0 0 -1.07269 0.0683177 -1.82853 0 0 -0.000346714 -27.3602 -793.48 -54.3081 0.0015 
231 1 1 -0.46466 -0.00736866 -0.400499 0 0 0 -1.00743 0.0439715 -1.83736 0 0 -0.00160516 -90.9023 -417.055 46.7957 0.0025 
1129 1 1 -0.0270802 0.0132854 0.0449948 0 0 0 0 0 -1.04792 0 0 -0.000346714 0 0 0 0.0015 
1111 1 1 -0.0127275 0.0182982 0.0416917 0 0 0 0 0 -1.07843 0 0 -0.00160516 0 0 0 0.0025 
1130 1 1 -0.0326575 0.0174779 0.0421412 0 0 0 0 0 -1.07431 0 0 -0.000346714 0 0 0 0.0015 
1128 1 1 -0.0115304 0.00686619 0.045018 0 0 0 0 0 -1.04773 0 0 -0.00160516 0 0 0 0.0025 
1133 1 1 -0.0287943 0.00678738 0.041838 0 0 0 0 0 -1.07706 0 0 -0.000346714 0 0 0 0.0015 
320 1 1 -0.460697 0.0269551 -0.40021 0 0 0 -0.980725 0.0957338 -1.81945 0 0 -0.000346714 -130.611 -741.905 96.6361 0.0015 
285 1 1 -0.46493 0.00216437 -0.399642 0 0 0 -1.0151 0.0439018 -1.82324 0 0 -0.00160516 36.7957 -376.608 52.9537 0.0025 
360 1 1 -0.443616 -0.0229688 -0.397445 0 0 0 -1.00422 -0.634138 -2.02948 0 0 -0.00160516 350.348 -427.785 -113.242 0.0025 
399 1 1 -0.483402 -0.00103764 -0.393971 0 0 0 -1.19817 -0.0329601 -1.79635 0 0 -0.00160516 20.5402 -497.571 -10.3015 0.0025 
255 1 1 -0.444558 0.00569863 -0.395407 0 0 0 -0.840776 -0.0075303 -1.782 0 0 -0.000346714 -37.2087 -589.374 62.4241 0.0015 
331 1 1 -0.453239 0.00972227 -0.393458 0 0 0 -0.966881 0.0143958 -1.77802 0 0 -0.000346714 40.4535 -577.626 -84.5239 0.0015 
246 1 1 -0.45881 0.0134225 -0.394133 0 0 0 -0.952532 0.0291249 -1.77411 0 0 -0.00160516 -22.868 -403.019 8.07513 0.0025 
61 1 1 -0.46182 -0.0122909 -0.390215 0 0 0 -1.04383 -0.0517208 -1.79738 0 0 -0.000346714 -137.024 -500.507 -44.8776 0.0015 
366 1 1 -0.451771 0.000381862 -0.390618 0 0 0 -1.01022 -0.0671947 -1.79584 0 0 -0.000346714 53.2509 -616.885 -75.1294 0.0015 
386 1 1 -0.459324 -0.0131288 -0.386755 0 0 0 -1.04869 -0.0864305 -1.78237 0 0 -0.00160516 -0.192755 -355.217 -32.0282 0.0025 
336 1 1 -0.470328 0.000263849 -0.386726 0 0 0 -1.07474 0.0715256 -1.72217 0 0 -0.00160516 -42.4465 -400.526 8.69038 0.0025 
301 1 1 -0.470249 0.0373177 -0.388494 0 0 0 -1.06247 0.0736182 -1.76161 0 0 -0.000346714 35.6289 -726.739 -223.249 0.0015 
368 1 1 -0.481704 -0.0366597 -0.384143 0 0 0 -1.139 0.0851428 -1.79313 0 0 -0.000346714 -52.1039 -909.765 -27.9697 0.0015 
141 1 1 -0.464481 -0.0279593 -0.381793 0 0 0 -1.06731 -0.0409471 -1.72246 0 0 -0.000346714 82.8422 -806.273 -125.39 0.0015 
229 1 1 -0.454076 -0.00511898 -0.384725 0 0 0 -0.989994 -0.0373241 -1.72483 0 0 -0.000346714 33.3345 -714.915 -4.44825 0.0015 
330 1 1 -0.448436 0.00481531 -0.381677 0 0 0 -0.926423 -0.0433874 -1.71463 0 0 -0.000346714 -4.7065 -622.086 -26.8567 0.0015 
307 1 1 -0.448131 -0.00709456 -0.377783 0 0 0 -1.00298 0.0276664 -1.71047 0 0 -0.000346714 57.237 -739.71 33.304 0.0015 
283 1 1 -0.47212 0.00452185 -0.377788 0 0 0 -1.18492 -0.0774851 -1.70287 0 0 -0.00160516 47.8238 -482.779 -32.1141 0.0025 
354 1 1 -0.431524 0.0121674 -0.378329 0 0 0 -0.906089 0.0511845 -1.75112 0 0 -0.000346714 7.59219 -581.922 134.497 0.0015 
532 1 1 -0.478744 -0.00370572 -0.372873 0 0 0 -1.36195 -0.233836 -1.73638 0 0 -0.00160516 127.35 -589.89 -57.2917 0.0025 
357 1 1 -0.443239 -0.00233848 -0.37109 0 0 0 -0.948937 0.0472253 -1.63707 0 0 -0.000346714 -14.0961 -655.801 -16.0175 0.0015 
402 1 1 -0.447013 -0.0203849 -0.370151 0 0 0 -0.963623 -0.022999 -1.6492 0 0 -0.00160516 -12.237 -408.569 42.899 0.0025 
388 1 1 -0.461586 -0.0430926 -0.365006 0 0 0 -1.02226 0.0213855 -1.66269 0 0 -0.00160516 -54.5804 -419.683 125.789 0.0025 
319 1 1 -0.443345 -0.0115822 -0.363311 0 0 0 -0.993003 -0.0183283 -1.59758 0 0 -0.000346714 0.828004 -713.986 30.6998 0.0015 
280 1 1 -0.44832 -0.0032346 -0.36468 0 0 0 -1.01694 0.097405 -1.60821 0 0 -0.000346714 -29.7641 -662.596 145.892 0.0015 
391 1 1 -0.431485 -0.00600991 -0.363223 0 0 0 -0.873022 0.00763356 -1.58593 0 0 -0.000346714 14.4072 -625.247 -52.8278 0.0015 
273 1 1 -0.448008 0.00327839 -0.364055 0 0 0 -1.06617 -0.00692133 -1.63307 0 0 -0.00160516 -57.5985 -437.382 -23.1646 0.0025 
457 1 1 -0.471423 0.00450794 -0.365066 0 0 0 -1.34465 -0.167901 -1.67853 0 0 -0.000346714 184.897 -960.064 -145.846 0.0015 
441 1 1 -0.465501 0.028262 -0.364256 0 0 0 -1.1614 -0.108414 -1.68077 0 0 -0.00160516 60.9912 -541.855 -26.4465 0.0025 
317 1 1 -0.458618 -0.0113269 -0.361865 0 0 0 -1.12112 0.0530913 -1.58106 0 0 -0.000346714 -7.35626 -781.634 -36.7645 0.0015 
267 1 1 -0.439022 -0.0051069 -0.35995 0 0 0 -0.99715 0.0767359 -1.59497 0 0 -0.000346714 -55.9497 -649.947 108.712 0.0015 
304 1 1 -0.429764 -0.00272168 -0.359607 0 0 0 -0.878616 0.029203 -1.56849 0 0 -0.000346714 -48.6808 -624.488 79.2606 0.0015 
333 1 1 -0.452757 -0.0141375 -0.35289 0 0 0 -1.13547 0.118197 -1.57214 0 0 -0.00160516 -76.4591 -484.994 67.3674 0.0025 
288 1 1 -0.441411 0.000170854 -0.355075 0 0 0 -1.02821 0.0822793 -1.54533 0 0 -0.000346714 -71.4643 -725.07 29.3843 0.0015 
334 1 1 -0.438943 0.00641794 -0.352063 0 0 0 -1.02501 0.103027 -1.53741 0 0 -0.00160516 -58.9995 -441.514 34.8504 0.0025 
335 1 1 -0.450294 0.00943203 -0.353708 0 0 0 -1.10702 0.0105592 -1.5345 0 0 -0.00160516 -12.0329 -449.999 -12.4168 0.0025 
314 1 1 -0.445376 -0.0129358 -0.349 0 0 0 -1.07896 0.0152871 -1.50359 0 0 -0.000346714 -21.2417 -744.232 63.9338 0.0015 
345 1 1 -0.43157 0.0100547 -0.349418 0 0 0 -0.992938 0.0533018 -1.5202 0 0 -0.000346714 135.945 -740.577 -81.4948 0.0015 
429 1 1 -0.465787 -0.0268537 -0.343812 0 0 0 -1.15633 -0.267684 -1.31159 0 0 -0.000346714 121.174 -480.207 -125.464 0.0015 
298 1 1 -0.428032 -0.00939546 -0.347565 0 0 0 -1.08993 -0.231893 -1.62924 0 0 -0.00160516 -37.4488 -342.974 -135.17 0.0025 
389 1 1 -0.421898 -0.00233647 -0.344654 0 0 0 -1.02937 -0.181693 -1.6362 0 0 -0.00160516 -170.374 -282.199 -107.937 0.0025 
377 1 1 -0.424082 0.00250295 -0.343158 0 0 0 -0.922056 0.0071705 -1.45597 0 0 -0.000346714 -17.5486 -373.446 74.0245 0.0015 
379 1 1 -0.407877 0.0057826 -0.344602 0 0 0 -0.915902 0.0127206 -1.56284 0 0 -0.000346714 -170.313 -242.254 -270.096 0.0015 
300 1 1 -0.418654 0.0125483 -0.344422 0 0 0 -0.887659 0.127403 -1.52016 0 0 -0.000346714 -53.5309 -564.771 82.336 0.0015 
465 1 1 -0.442218 0.0215776 -0.342865 0 0 0 -1.26277 0.172181 -1.64843 0 0 -0.00160516 29.7715 220.971 19.0912 0.0025 
414 1 1 -0.433964 -0.0134225 -0.339766 0 0 0 -1.04996 0.0132779 -1.46189 0 0 -0.00160516 5.28957 -464.051 -27.1016 0.0025 
326 1 1 -0.393645 0.00534942 -0.3386 0 0 0 -0.776952 0.0334873 -1.52508 0 0 -0.000346714 -99.7691 -171.646 -91.4587 0.0015 
352 1 1 -0.42883 0.0109432 -0.340292 0 0 0 -1.1009 -0.0148508 -1.52987 0 0 -0.000346714 120.837 -697.109 -95.8744 0.0015 
434 1 1 -0.445966 -0.0320718 -0.334898 0 0 0 -1.18965 0.0055621 -1.45688 0 0 -0.000346714 -53.1996 -846.882 133.107 0.0015 
421 1 1 -0.416272 -0.00229554 -0.334904 0 0 0 -0.955197 0.0660324 -1.43802 0 0 -0.000346714 29.3133 -567.249 45.1051 0.0015 
329 1 1 -0.432193 0.0124791 -0.333742 0 0 0 -1.12647 -0.0593523 -1.43746 0 0 -0.000346714 67.128 -817.149 -56.5775 0.0015 
459 1 1 -0.411717 -0.0119475 -0.33023 0 0 0 -0.93126 0.00779211 -1.40871 0 0 -0.000346714 -156.274 -529.42 37.0157 0.0015 
397 1 1 -0.417796 0.00827515 -0.332003 0 0 0 -0.974656 0.0603175 -1.52577 0 0 -0.000346714 -169.022 -557.55 -66.8591 0.0015 
449 1 1 -0.422283 0.0260268 -0.33022 0 0 0 -0.988955 0.0671938 -1.38825 0 0 -0.000346714 45.2831 -683.385 -223.787 0.0015 
527 1 1 -0.415161 -0.00495135 -0.328754 0 0 0 -0.903187 0.130506 -1.36559 0 0 -0.000346714 -16.6517 -388.207 255.72 0.0015 
363 1 1 -0.412963 0.00273637 -0.327422 0 0 0 -0.950669 0.0962299 -1.36815 0 0 -0.000346714 -164.879 -661.874 41.2521 0.0015 
324 1 1 -0.415543 0.00816235 -0.326149 0 0 0 -0.97117 -0.0477811 -1.36939 0 0 -0.00160516 121.693 -360.47 -0.475468 0.0025 
395 1 1 -0.430663 -0.0259983 -0.324978 0 0 0 -1.1364 0.0451382 -1.38812 0 0 -0.000346714 -77.3425 -815.597 112.538 0.0015 
439 1 1 -0.41832 -0.0161177 -0.325079 0 0 0 -0.946617 0.0515573 -1.35076 0 0 -0.00160516 -15.5989 -413.069 -13.302 0.0025 
454 1 1 -0.418652 -0.00526649 -0.326666 0 0 0 -0.94265 -0.0758133 -1.56332 0 0 -0.000346714 26.3401 -366.141 7.3823 0.0015 
260 1 1 -0.430972 -0.00688057 -0.320579 0 0 0 -1.07794 0.111265 -1.34363 0 0 -0.00160516 32.4811 -22.1708 -34.201 0.0025 
488 1 1 -0.409905 -0.0075213 -0.319469 0 0 0 -0.89416 0.0337368 -1.3504 0 0 -0.000346714 -92.6425 -588.522 63.9031 0.0015 
340 1 1 -0.416628 -0.00605751 -0.319174 0 0 0 -0.965013 -0.0379439 -1.20111 0 0 -0.000346714 57.2291 -567.732 64.5296 0.0015 
322 1 1 -0.422536 -0.00269317 -0.319516 0 0 0 -1.14149 -0.132156 -1.27832 0 0 -0.00160516 55.6327 -329.122 56.9241 0.0025 
424 1 1 -0.402794 0.00132005 -0.320638 0 0 0 -0.845985 0.00787591 -1.30657 0 0 -0.00160516 8.55762 -314.904 -27.8941 0.0025 
408 1 1 -0.397958 0.00399623 -0.320365 0 0 0 -0.832322 0.050054 -1.30254 0 0 -0.000346714 122.92 -153.145 160.056 0.0015 
438 1 1 -0.409942 -0.0142373 -0.316123 0 0 0 -1.08089 -0.0993998 -1.35577 0 0 -0.00160516 92.7292 229.409 -25.7589 0.0025 
419 1 1 -0.420004 -0.00845484 -0.31742 0 0 0 -1.06393 0.0282207 -1.27777 0 0 -0.000346714 -81.2707 -591.094 -37.8237 0.0015 
436 1 1 -0.417526 -0.00414475 -0.315919 0 0 0 -1.08376 0.0689671 -1.26322 0 0 -0.000346714 -32.6714 -750.087 -30.8168 0.0015 
407 1 1 -0.412015 -0.00594501 -0.316239 0 0 0 -1.05644 0.00972287 -1.28066 0 0 -0.000346714 75.7298 -221.859 -169.459 0.0015 
370 1 1 -0.415114 0.0158153 -0.315477 0 0 0 -1.02142 0.0692784 -1.2546 0 0 -0.000346714 -138.426 -666.057 75.7744 0.0015 
396 1 1 -0.37685 -0.0064809 -0.313641 0 0 0 -0.740971 -0.265442 -1.42908 0 0 -0.000346714 -82.6055 -405.42 -280.01 0.0015 
373 1 1 -0.417342 0.00658209 -0.312847 0 0 0 -1.09096 0.0426217 -1.24897 0 0 -0.00160516 76.8342 -384.686 30.3288 0.0025 
398 1 1 -0.407593 0.000124493 -0.308041 0 0 0 -0.986799 0.0696131 -1.22754 0 0 -0.00160516 40.6904 -240.422 63.309 0.0025 
467 1 1 -0.409856 0.00961916 -0.30831 0 0 0 -1.03237 0.116529 -1.20677 0 0 -0.000346714 222.266 152.253 158.75 0.0015 
349 1 1 -0.403756 0.0102533 -0.306692 0 0 0 -0.999369 0.0959709 -1.21638 0 0 -0.00160516 -80.294 -411.464 1.60022 0.0025 
375 1 1 -0.414432 0.0172653 -0.310189 0 0 0 -1.12404 -0.0465544 -1.27612 0 0 -0.00160516 25.8437 -493.558 -13.5053 0.0025 
358 1 1 -0.411033 -0.0039982 -0.30535 0 0 0 -1.22918 0.0417769 -1.14338 0 0 -0.000346714 -85.219 -760.349 176.267 0.0015 
385 1 1 -0.412739 0.0213813 -0.306846 0 0 0 -1.13059 -0.0472145 -1.25613 0 0 -0.00160516 23.4442 -497.35 -7.44448 0.0025 
487 1 1 -0.400041 -0.0119368 -0.299839 0 0 0 -1.12876 0.17049 -1.23091 0 0 -0.000346714 -131.937 -784.677 176.966 0.0015 
394 1 1 -0.393564 -0.0116474 -0.299629 0 0 0 -0.918513 -0.0482055 -1.1292 0 0 -0.000346714 46.8051 -663.725 -27.3602 0.0015 
351 1 1 -0.396653 -0.00400289 -0.300499 0 0 0 -1.00934 -0.135556 -1.15995 0 0 -0.000346714 188.468 -719.05 -210.205 0.0015 
325 1 1 -0.403746 0.0158197 -0.30072 0 0 0 -1.03625 0.14124 -1.08994 0 0 -0.000346714 -146.725 -693.762 -75.3541 0.0015 
420 1 1 -0.400831 -0.00802686 -0.296419 0 0 0 -1.14635 0.186826 -1.16447 0 0 -0.000346714 -160.782 -820.402 90.5281 0.0015 
270 1 1 -0.391653 -0.000905899 -0.296613 0 0 0 -0.938052 -0.120335 -1.14104 0 0 -0.00160516 -178.216 -401.481 136.268 0.0025 
411 1 1 -0.394107 0.0074245 -0.297453 0 0 0 -1.02407 0.0361221 -1.17242 0 0 -0.00160516 261.865 -379.152 -84.6512 0.0025 
452 1 1 -0.412018 0.0151981 -0.29741 0 0 0 -1.17822 0.277214 -1.18763 0 0 -0.00160516 -130.632 -255.963 -44.0763 0.0025 
401 1 1 -0.395916 -0.00778781 -0.294578 0 0 0 -0.943604 -0.0983616 -1.14017 0 0 -0.00160516 -17.0172 -408.186 -34.8064 0.0025 
502 1 1 -0.407583 -0.00298556 -0.291905 0 0 0 -1.40108 -0.0818641 -1.10277 0 0 -0.00160516 238.535 -326.475 -89.8471 0.0025 
586 1 1 -0.416424 -0.0389931 -0.290097 0 0 0 -1.41782 0.184569 -1.27436 0 0 -0.000346714 -190.113 -1073.73 141.902 0.0015 
310 1 1 -0.392358 -0.022178 -0.2927 0 0 0 -1.18559 -0.0558241 -1.26144 0 0 -0.00160516 113.828 -12.6101 -32.4609 0.0025 
451 1 1 -0.387077 0.000879089 -0.290769 0 0 0 -0.934964 0.0803175 -1.06296 0 0 -0.00160516 -59.8257 -400.9 60.4403 0.0025 
448 1 1 -0.387212 -0.0246752 -0.284706 0 0 0 -0.974184 0.104446 -1.04596 0 0 -0.000346714 -126.107 -689.353 123.306 0.0015 
378 1 1 -0.384664 -0.00343339 -0.287024 0 0 0 -1.01153 0.0068187 -1.04612 0 0 -0.000346714 -8.86105 -705.24 102.346 0.0015 
405 1 1 -0.381881 -0.00218603 -0.283172 0 0 0 -0.967398 0.0482419 -0.97546 0 0 -0.000346714 107.443 -409.719 87.5103 0.0015 
362 1 1 -0.38446 0.00135607 -0.284519 0 0 0 -1.05341 0.0348091 -1.03801 0 0 -0.00160516 11.4626 -453.343 -13.1632 0.0025 
359 1 1 -0.390601 0.0159401 -0.286832 0 0 0 -1.09523 -0.0489319 -1.07368 0 0 -0.00160516 21.1635 -483.502 -0.102713 0.0025 
371 1 1 -0.389529 0.0244492 -0.284922 0 0 0 -1.1025 0.0105222 -1.05036 0 0 -0.000346714 40.6308 -788.194 -115.127 0.0015 
551 1 1 -0.390695 -0.0340497 -0.281909 0 0 0 -1.14734 0.0444999 -1.08287 0 0 -0.000346714 -98.7665 -793.386 191.721 0.0015 
426 1 1 -0.38566 -0.00703118 -0.280719 0 0 0 -1.14216 -0.00621072 -1.0299 0 0 -0.00160516 -57.6083 -262.903 26.3945 0.0025 
376 1 1 -0.375184 -0.0199132 -0.276216 0 0 0 -0.968354 -0.00916958 -0.968711 0 0 -0.00160516 -73.0757 -386.433 129.158 0.0025 
490 1 1 -0.375797 -0.0070272 -0.276483 0 0 0 -0.974905 0.0616022 -0.906944 0 0 -0.00160516 34.2272 -370.674 39.8972 0.0025 
312 1 1 -0.379404 -0.00205104 -0.278561 0 0 0 -1.06555 0.0697171 -0.977296 0 0 -0.00160516 -15.0392 -321.255 5.38346 0.0025 
339 1 1 -0.379811 0.0109484 -0.27961 0 0 0 -1.07899 -0.0757214 -0.98898 0 0 -0.000346714 63.6763 -789.483 -20.0104 0.0015 
491 1 1 -0.396043 0.026514 -0.280483 0 0 0 -1.32273 0.0150375 -1.08788 0 0 -0.00160516 -50.1929 210.041 -56.7704 0.0025 
512 1 1 -0.400054 0.052327 -0.278965 0 0 0 -1.06834 0.0407855 -1.0458 0 0 -0.000346714 2.51002 -469.227 -326.479 0.0015 
520 1 1 -0.374694 -0.0149967 -0.272632 0 0 0 -1.09883 0.0622578 -0.91279 0 0 -0.000346714 -193.299 -729.49 370.127 0.0015 
463 1 1 -0.383605 -0.0137462 -0.276309 0 0 0 -1.18519 0.0267423 -1.00744 0 0 -0.00160516 75.3633 -157.222 -36.2256 0.0025 
447 1 1 -0.369156 -0.0120735 -0.272342 0 0 0 -0.937615 -0.129012 -0.858509 0 0 -0.000346714 175.924 -687.631 -192.249 0.0015 
341 1 1 -0.374423 0.00505998 -0.273729 0 0 0 -1.15829 -0.128014 -0.940014 0 0 -0.000346714 128.633 -835.226 -83.5223 0.0015 
431 1 1 -0.379855 -0.0238513 -0.270962 0 0 0 -1.11995 -0.0136157 -0.856785 0 0 -0.000346714 52.9599 -800.177 16.3919 0.0015 
321 1 1 -0.367167 -0.0103114 -0.269034 0 0 0 -0.966499 -0.101784 -0.839959 0 0 -0.00160516 32.5147 -416.683 28.5463 0.0025 
338 1 1 -0.367887 -0.00426468 -0.269343 0 0 0 -1.06441 -0.0319849 -0.851766 0 0 -0.000346714 30.4368 -768.469 -17.4568 0.0015 
461 1 1 -0.368027 0.0173951 -0.268301 0 0 0 -1.06785 -0.0566849 -0.873501 0 0 -0.000346714 92.089 -753.633 -104.649 0.0015 
382 1 1 -0.377616 -0.0437892 -0.266303 0 0 0 -0.929824 0.00608847 -0.874677 0 0 -0.000346714 -116.408 -574.73 306.893 0.0015 
435 1 1 -0.361222 -0.00875818 -0.266281 0 0 0 -0.910748 -0.0178058 -0.788575 0 0 -0.000346714 -25.8779 -650.704 94.5965 0.0015 
477 1 1 -0.361662 0.0019504 -0.264139 0 0 0 -1.02028 0.0714041 -0.791238 0 0 -0.00160516 -24.404 -441.806 -15.0766 0.0025 
413 1 1 -0.367458 0.0114981 -0.268013 0 0 0 -1.10895 -0.125857 -0.902252 0 0 -0.00160516 65.9759 -490.128 -24.1573 0.0025 
486 1 1 -0.372949 0.0232803 -0.267134 0 0 0 -0.954917 -0.0699079 -0.805509 0 0 -0.000346714 11.0916 -685.815 28.3944 0.0015 
425 1 1 -0.356721 -0.00762469 -0.260745 0 0 0 -0.942918 -0.00216131 -0.760132 0 0 -0.00160516 -52.872 -392.452 53.4967 0.0025 
383 1 1 -0.356721 -0.00124647 -0.262894 0 0 0 -0.934502 0.0208299 -0.846443 0 0 -0.000346714 -93.2888 -613.786 -145.444 0.0015 
440 1 1 -0.355384 0.00190341 -0.260652 0 0 0 -1.00133 0.0557551 -0.793483 0 0 -0.00160516 66.9554 -431.482 27.8668 0.0025 
372 1 1 -0.363817 -0.0155287 -0.25838 0 0 0 -0.904791 -0.310049 -0.710413 0 0 -0.00160516 94.6304 -303.763 -191.052 0.0025 
458 1 1 -0.348638 -0.0103295 -0.257254 0 0 0 -0.795243 0.0625079 -0.645411 0 0 -0.000346714 -48.6439 -498.049 -46.0356 0.0015 
430 1 1 -0.346618 -0.00716135 -0.256456 0 0 0 -0.840031 0.0238739 -0.714619 0 0 -0.000346714 -174.332 -547.618 -11.6729 0.0015 
515 1 1 -0.355591 -0.00320882 -0.258306 0 0 0 -1.08657 0.0358743 -0.656788 0 0 -0.00160516 -25.0595 -414.148 46.3559 0.0025 
387 1 1 -0.350835 -0.00275993 -0.255847 0 0 0 -1.04722 -0.054021 -0.682871 0 0 -0.00160516 30.189 -453.14 -16.0683 0.0025 
346 1 1 -0.353764 0.00857801 -0.258974 0 0 0 -0.956178 -0.0283006 -0.727108 0 0 -0.00160516 14.4138 -416.262 -5.14502 0.0025 
562 1 1 -0.37072 0.0453568 -0.261314 0 0 0 -1.05938 -0.0898955 -0.981867 0 0 -0.000346714 245.656 -418.441 -640.66 0.0015 
498 1 1 -0.349564 -0.0241216 -0.253043 0 0 0 -0.989632 0.101584 -0.667161 0 0 -0.000346714 -164.053 -660.091 233.81 0.0015 
409 1 1 -0.342285 -0.0206438 -0.2514 0 0 0 -0.710079 -0.0595428 -0.540672 0 0 -0.000346714 -31.6313 -482.381 185.66 0.0015 
428 1 1 -0.342549 -0.0148647 -0.254192 0 0 0 -0.768307 -0.0363134 -0.763969 0 0 -0.000346714 -64.6753 247.909 -68.8501 0.0015 
309 1 1 -0.350947 -0.00841178 -0.253157 0 0 0 -0.956648 0.0826793 -0.672771 0 0 -0.00160516 -50.9336 -169.027 67.3025 0.0025 
481 1 1 -0.347326 -0.00375879 -0.253999 0 0 0 -1.02065 0.103539 -0.572552 0 0 -0.000346714 -82.1485 -667.591 -86.9151 0.0015 
344 1 1 -0.343234 -0.00461381 -0.252371 0 0 0 -1.01532 0.0190346 -0.617406 0 0 -0.000346714 -63.4874 -709.449 86.9715 0.0015 
456 1 1 -0.342973 9.85245e-05 -0.252478 0 0 0 -1.00079 0.0358887 -0.608577 0 0 -0.000346714 39.5252 -730.1 -159.876 0.0015 
403 1 1 -0.347562 0.00201454 -0.255442 0 0 0 -1.0613 -0.0784475 -0.689821 0 0 -0.000346714 55.8899 -770.312 2.20259 0.0015 
575 1 1 -0.346274 0.0163998 -0.253544 0 0 0 -0.966114 -0.0259392 -0.650166 0 0 -0.000346714 82.1407 -681.046 -149.466 0.0015 
412 1 1 -0.349763 0.0212797 -0.255449 0 0 0 -0.94313 0.0583147 -0.719477 0 0 -0.00160516 10.0061 -386.136 -98.4435 0.0025 
500 1 1 -0.342804 -0.013283 -0.249284 0 0 0 -1.04789 0.0518096 -0.405811 0 0 -0.000346714 -64.5116 -608.263 -11.2878 0.0015 
543 1 1 -0.338352 -0.00818759 -0.248394 0 0 0 -0.925096 0.0073089 -0.543518 0 0 -0.00160516 74.4556 -44.7165 25.9076 0.0025 
468 1 1 -0.336352 -0.00408012 -0.248425 0 0 0 -1.02715 -0.0291585 -0.550592 0 0 -0.000346714 8.53744 -738.604 30.9843 0.0015 
494 1 1 -0.33914 -0.00365682 -0.2503 0 0 0 -0.927996 -0.0291946 -0.554901 0 0 -0.000346714 -80.7921 -542.902 -154.55 0.0015 
476 1 1 -0.33974 0.00143556 -0.249901 0 0 0 -1.02086 0.0449741 -0.617233 0 0 -0.00160516 -24.6828 -419.658 -6.88415 0.0025 
538 1 1 -0.331179 0.00563592 -0.246322 0 0 0 -0.678602 -0.0657083 -0.422305 0 0 -0.000346714 57.2682 -477.303 -27.3687 0.0015 
610 1 1 -0.338413 0.00642804 -0.250725 0 0 0 -0.794911 -0.114655 -0.55542 0 0 -0.000346714 37.5852 -133.426 52.5814 0.0015 
514 1 1 -0.340288 0.011614 -0.250346 0 0 0 -1.10262 -0.0941703 -0.641194 0 0 -0.000346714 134.192 -780.626 -153.803 0.0015 
186 1 1 -0.339061 0.0185568 -0.248346 0 0 0 -1.06433 -0.0483893 -0.608372 0 0 -0.000346714 56.1084 -742.226 -63.2741 0.0015 
471 1 1 -0.334381 -0.0192437 -0.245393 0 0 0 -1.07101 0.0235827 -0.536681 0 0 -0.000346714 -32.7007 -773.872 39.7482 0.0015 
503 1 1 -0.336843 -0.0132166 -0.246963 0 0 0 -0.998626 -0.0554776 -0.536718 0 0 -0.00160516 8.89757 -429.495 37.1854 0.0025 
332 1 1 -0.330494 -0.0109876 -0.244988 0 0 0 -1.07296 0.0663427 -0.518556 0 0 -0.000346714 -38.8973 -771.599 -20.9731 0.0015 
404 1 1 -0.328909 -0.00798034 -0.244439 0 0 0 -1.0009 -0.0173348 -0.470382 0 0 -0.000346714 10.6967 -721.378 4.93078 0.0015 
479 1 1 -0.329469 -0.00372462 -0.243857 0 0 0 -1.04645 -0.00186137 -0.490138 0 0 -0.00160516 5.20515 -453.409 -10.1791 0.0025 
392 1 1 -0.329117 0.00183183 -0.245143 0 0 0 -0.870846 -0.127246 -0.456723 0 0 -0.000346714 110.468 -630.007 -41.881 0.0015 
364 1 1 -0.326335 0.00237428 -0.243828 0 0 0 -0.869998 -0.0707019 -0.470893 0 0 -0.000346714 58.1656 -573.655 -20.3274 0.0015 
450 1 1 -0.335839 0.0187424 -0.245371 0 0 0 -1.05905 -0.0592101 -0.572634 0 0 -0.00160516 21.9102 -469.002 9.19315 0.0025 
355 1 1 -0.339083 0.0228296 -0.247414 0 0 0 -1.07197 -0.023818 -0.599549 0 0 -0.000346714 83.0154 -757.751 -155.336 0.0015 
582 1 1 -0.370895 -0.0516983 -0.24837 0 0 0 -1.14156 0.493307 -1.18061 0 0 -0.000346714 -615.157 -855.62 343.336 0.0015 
522 1 1 -0.33955 -0.0349723 -0.243584 0 0 0 -1.21279 0.0954533 -0.678564 0 0 -0.000346714 -142.011 -839.653 201.697 0.0015 
625 1 1 -0.336448 -0.0302406 -0.243202 0 0 0 -1.19903 0.118872 -0.601892 0 0 -0.000346714 -147.704 -847.71 152.212 0.0015 
548 1 1 -0.328237 -0.0225897 -0.241741 0 0 0 -1.23852 0.157793 -0.550151 0 0 -0.000346714 -77.6323 -915.102 -87.7637 0.0015 
464 1 1 -0.329153 -0.0153623 -0.242515 0 0 0 -1.19129 0.147215 -0.552573 0 0 -0.00160516 -78.5303 -511.593 38.2941 0.0025 
444 1 1 -0.319169 -0.0156507 -0.239472 0 0 0 -0.955716 -0.0398501 -0.370832 -0.00128219 0.000665129 0.00300952 28.6768 -702.445 -5.38694 0.0015 
540 1 1 -0.31997 -0.010227 -0.239381 0 0 0 -0.881192 0.0169342 -0.359485 0.000147379 -6.17533e-05 0.000434954 -23.7437 -374.532 42.6172 0.0025 
437 1 1 -0.323647 -0.00544598 -0.241174 0 0 0 -1.01737 -0.0965789 -0.41868 0 0 -0.00160516 27.3189 -438.166 35.6543 0.0025 
497 1 1 -0.317053 -0.00701734 -0.239485 0 0 0 -0.883003 -0.00800717 -0.355455 -8.35918e-05 1.30254e-05 -4.02781e-05 -1.27093 -635.009 17.4638 0.0015 
560 1 1 -0.321713 -0.000150897 -0.241796 0 0 0 -0.758978 -0.0104789 -0.316468 0.000157421 8.24429e-05 0.00107932 1.28892 -217.051 4.76847 0.0015 
501 1 1 -0.336851 0.00123129 -0.242095 0 0 0 -1.18958 -0.0259072 -0.64972 0 0 -0.000346714 1.92946 -48.8122 -24.1478 0.0015 
484 1 1 -0.316476 0.00228479 -0.239447 0 0 0 -0.76982 -0.00968417 -0.325109 -8.77543e-05 -1.32109e-05 -3.91858e-05 -1.94152 -559.534 21.2656 0.0015 
460 1 1 -0.318197 0.00477002 -0.240015 0 0 0 -0.817146 -0.0363081 -0.34673 2.30709e-05 -1.25658e-05 9.45722e-06 9.28082 -487.577 29.9548 0.0015 
453 1 1 -0.327413 0.00767676 -0.242789 0 0 0 -0.925526 -0.0277776 -0.451551 0 0 -0.00160516 12.1421 -387.215 -9.69616 0.0025 
519 1 1 -0.323691 0.00903622 -0.242063 0 0 0 -0.929021 -0.00105651 -0.408277 0 0 -0.000346714 -6.00766 -642.737 -91.4693 0.0015 
485 1 1 -0.317026 0.00764707 -0.239345 0 0 0 -0.902622 0.0515636 -0.362596 -0.00102267 -0.000329112 0.000782856 -11.006 -653.271 -58.1234 0.0015 
564 1 1 -0.326503 0.011753 -0.241101 0 0 0 -1.00376 0.0889197 -0.461849 0 0 -0.000346714 -288.652 143.706 -171.373 0.0015 
380 1 1 -0.323588 0.0120357 -0.241787 0 0 0 -0.989533 0.0122794 -0.42814 0 0 -0.000346714 -25.8166 -667.531 -20.071 0.0015 
546 1 1 -0.332612 0.0255814 -0.243273 0 0 0 -1.18936 -0.374855 -0.685957 0 0 -0.000346714 365.82 -830.105 -201.119 0.0015 
483 1 1 -0.337883 0.0277104 -0.245141 0 0 0 -1.15088 -0.501679 -0.760409 0 0 -0.000346714 408.482 -840.301 -77.6598 0.0015 
508 1 1 -0.323432 -0.0293185 -0.237983 0 0 0 -1.21377 0.104884 -0.491356 0 0 -0.000346714 -89.0893 -892.783 37.5587 0.0015 
509 1 1 -0.318633 -0.0185282 -0.238643 0 0 0 -1.00605 -0.058117 -0.442668 0 0 -0.000346714 37.7423 -707.471 39.2154 0.0015 
446 1 1 -0.313329 -0.0151886 -0.236929 0 0 0 -0.989147 0.0755005 -0.428834 0 0 -0.000346714 -158.265 -682.467 253.011 0.0015 
516 1 1 -0.315799 -0.0115791 -0.236871 0 0 0 -0.919376 -0.0021707 -0.374451 0 0 -0.00160516 -6.71652 -350.747 52.3417 0.0025 
443 1 1 -0.313145 -0.00701204 -0.237909 0 0 0 -0.792313 -0.000273528 -0.320718 1.25277e-05 2.08312e-05 -0.000185014 -33.3326 -301.139 -40.9002 0.0015 
472 1 1 -0.313061 -0.00342712 -0.238027 0 0 0 -0.903461 0.0408992 -0.382848 -8.76492e-05 7.38168e-06 -3.97861e-05 -35.33 -653.986 13.5088 0.0015 
553 1 1 -0.317403 -0.00201653 -0.238827 0 0 0 -0.923187 -0.0162327 -0.389138 0.000101298 0.000147737 3.61653e-05 -31.2138 -224.212 29.2721 0.0025 
469 1 1 -0.312327 0.00246603 -0.237687 0 0 0 -1.04772 -0.0455497 -0.443908 -8.54693e-05 -1.2827e-05 -4.28814e-05 88.9863 -751.137 -132.969 0.0015 
473 1 1 -0.308932 0.00122806 -0.236378 0 0 0 -1.02228 -0.108905 -0.442966 -0.00563965 -0.00230665 0.011314 55.1326 -766.475 104.625 0.0015 
505 1 1 -0.311439 0.00803576 -0.235881 0 0 0 -0.869442 0.0640805 -0.360195 0.000119044 0.000100337 0.000603663 -49.6285 -270.12 -10.2622 0.0025 
466 1 1 -0.320374 0.0120716 -0.239384 0 0 0 -0.98785 0.0045308 -0.416535 -0.00012685 -2.0656e-05 -0.000733287 9.05432 -427.99 -26.1623 0.0025 
506 1 1 -0.312783 0.0136723 -0.237106 0 0 0 -0.955551 -0.032783 -0.390339 0 0 -0.000346714 5.87526 -650.421 -28.3156 0.0015 
496 1 1 -0.311156 0.0120369 -0.235142 0 0 0 -0.895013 0.0686833 -0.349101 0 0 -0.000346714 5.9061 -287.993 3.00691 0.0015 
545 1 1 -0.319181 0.01666 -0.239201 0 0 0 -0.929273 -0.0286192 -0.394318 -8.43242e-05 -3.998e-05 -4.07807e-05 82.5915 -653.892 -147.22 0.0015 
475 1 1 -0.316338 0.0161624 -0.238109 0 0 0 -0.91715 -0.0384801 -0.394363 -0.000378486 -0.000150772 -0.000426334 3.81696 -624.474 39.1767 0.0015 
470 1 1 -0.313923 0.0165476 -0.236378 0 0 0 -0.922005 0.0145248 -0.406355 0.000426373 7.73108e-05 0.00046293 52.0032 -460.677 -47.8 0.0015 
511 1 1 -0.31888 0.0211873 -0.237913 0 0 0 -0.93682 0.0576295 -0.549615 0 0 -0.000346714 -107.945 -538.946 -91.5258 0.0015 
595 1 1 -0.32515 0.0319455 -0.237781 0 0 0 -1.19325 -0.168008 -0.550252 0 0 -0.000346714 140.706 -890.276 -35.1252 0.0015 
529 1 1 -0.313315 -0.0207431 -0.235069 0 0 0 -1.04309 0.0326815 -0.403957 -0.000815243 0.00041903 0.000322652 -28.1563 -447.702 37.3405 0.0025 
561 1 1 -0.308984 -0.0191716 -0.234632 0 0 0 -1.08964 -0.048256 -0.420337 -0.00210294 0.000736947 0.00439087 -15.5203 -778.5 123.341 0.0015 
415 1 1 -0.305657 -0.0162212 -0.233694 0 0 0 -1.08057 0.00693748 -0.432178 -7.22146e-05 2.31047e-05 -8.02637e-05 -56.7583 -764.538 129.594 0.0015 
539 1 1 -0.304617 -0.00650014 -0.234379 0 0 0 -0.827718 0.198641 -0.699899 -0.0113492 0.000550973 0.0335081 122.716 -170.251 -25.3017 0.0015 
482 1 1 -0.304967 -0.01094 -0.232738 0 0 0 -0.962647 -0.161678 -0.290245 0 0 -0.000346714 182.541 -586.036 103.655 0.0015 
416 1 1 -0.306122 0.000972336 -0.235167 0 0 0 -0.979384 0.0521851 -0.409517 -8.83305e-05 -1.31787e-05 -3.80043e-05 -7.87711 -705.641 -71.0817 0.0015 
594 1 1 -0.308586 0.00426332 -0.233857 0 0 0 -0.933151 -0.113355 -0.460218 -0.00522932 0.0162399 0.0298737 9.49208 513.003 -31.668 0.0025 
432 1 1 -0.311156 0.010913 -0.231818 0 0 0 -0.996051 0.0337335 -0.34657 0 0 -0.000346714 12.6181 -511.354 -128.765 0.0015 
455 1 1 -0.307436 0.0105414 -0.235119 0 0 0 -0.951746 -0.114234 -0.408962 -8.8512e-05 -1.33003e-05 -3.78702e-05 87.8716 -689.483 -11.9056 0.0015 
510 1 1 -0.310542 0.0152009 -0.235807 0 0 0 -0.979642 0.00278606 -0.343652 0 0 -0.000346714 42.1854 -632.23 -180.167 0.0015 
531 1 1 -0.306171 0.014607 -0.233067 0 0 0 -0.976461 -0.0497495 -0.417021 -0.000391809 -0.000182563 -0.000207402 34.7044 -424.325 -30.6422 0.0025 
623 1 1 -0.305219 0.0189246 -0.232929 0 0 0 -0.82978 -0.0434081 -0.354525 2.61637e-05 -6.91152e-05 -5.03592e-06 73.6232 -533.709 -86.6484 0.0015 
422 1 1 -0.308417 0.0239967 -0.233277 0 0 0 -1.01371 0.0696841 -0.40958 -8.52579e-05 -3.97744e-05 -4.33317e-05 -85.7282 -760.562 82.7795 0.0015 
493 1 1 -0.312908 0.0271772 -0.233305 0 0 0 -1.09567 -0.084954 -0.475868 -0.000217078 -0.000200031 -0.000661984 49.3615 -487.931 -26.7532 0.0025 
492 1 1 -0.301802 -0.00793869 -0.232 0 0 0 -1.11863 0.0349157 -0.397852 0.0129423 -0.0112659 0.0307703 -11.8413 -456.81 4.64728 0.0025 
590 1 1 -0.294845 -0.0111072 -0.229833 0 0 0 -1.10481 -0.129312 -0.450745 -8.76418e-05 2.26618e-05 -3.92813e-05 106.387 -806.692 -29.3356 0.0015 
568 1 1 -0.314673 -0.00339482 -0.231455 0 0 0 -0.978965 0.0826782 -0.428989 0 0 -0.00160516 -53.6501 -221.898 58.7413 0.0025 
400 1 1 -0.30262 -0.00103794 -0.232622 0 0 0 -1.05852 0.0121601 -0.446784 -0.000362774 2.96548e-05 -0.000305848 3.63355 -460.795 -21.1119 0.0025 
581 1 1 -0.298115 -0.00349555 -0.230635 0 0 0 -1.06238 -0.0247047 -0.447154 -0.00041499 3.429e-05 -0.000160652 -2.83297 -460.653 32.1821 0.0025 
688 1 1 -0.302335 0.00268628 -0.230646 0 0 0 -1.2368 0.037017 -0.320972 0 0 -0.000346714 -61.5829 -754.527 -117.773 0.0015 
418 1 1 -0.299647 0.00576117 -0.232134 0 0 0 -0.998335 -0.00102043 -0.421649 -7.88849e-05 -1.18685e-05 -4.43064e-05 10.409 -722.571 -22.9023 0.0015 
619 1 1 -0.297591 0.0109721 -0.229063 0 0 0 -1.00977 0.162194 -0.408651 0 0 -0.00160516 -98.6308 -418.639 55.9365 0.0025 
552 1 1 -0.300054 0.0161734 -0.23021 0 0 0 -1.06838 -0.0692574 -0.459088 -0.000342832 -0.000167537 -0.000339562 29.5337 -471.238 2.31734 0.0025 
534 1 1 -0.312089 0.0311558 -0.232731 0 0 0 -1.15186 -0.238415 -0.550213 -7.38454e-05 -6.2013e-05 -6.87415e-05 277.323 -788.134 -239.057 0.0015 
583 1 1 -0.319732 0.0386833 -0.233252 0 0 0 -1.1381 -0.170154 -0.52333 -8.21003e-05 -6.90148e-05 -4.90797e-05 138.524 -852.483 -24.1108 0.0015 
530 1 1 -0.339665 0.0544463 -0.230648 0 0 0 -1.05335 -0.112137 -0.574919 0 0 -0.00160516 94.429 -482.257 -94.3006 0.0025 
507 1 1 -0.286092 -0.00661173 -0.22507 0 0 0 -1.13429 -0.136295 -0.355144 0 0 -0.000346714 128.439 -694.979 177.008 0.0015 
544 1 1 -0.286364 -0.00327499 -0.226705 0 0 0 -1.05037 -0.0691677 -0.473967 0 0 -0.000346714 203.78 -697.158 14.2477 0.0015 