ITEM: TIMESTEP
39400
ITEM: NUMBER OF ATOMS
514
ITEM: BOX BOUNDS ff ff ff
-0.5 0.1
-0.2 0.2
-0.4 0.15
ITEM: ATOMS id type type x y z ix iy iz vx vy vz fx fy fz omegax omegay omegaz radius 
85 1 1 -0.353931 -0.0431187 -0.246843 0 0 0 -1.13812 0.392769 -0.899938 0 0 -0.000346714 -590.532 -294.61 698.542 0.0015 
47 1 1 -0.311585 0.0124202 -0.236749 0 0 0 -1.49651 -0.157348 -0.639148 -0.00010133 -1.53918e-05 -1.69346e-05 96.9289 -1087.33 40.6969 0.0015 
30 1 1 -0.300252 -0.015339 -0.230553 0 0 0 -1.35285 0.0359996 -0.572317 -0.000405708 0.00010577 -0.000180446 -33.0824 -585.849 41.3498 0.0025 
36 1 1 -0.290183 -0.0165816 -0.227247 0 0 0 -1.28153 0.0898115 -0.552038 -0.000101061 4.59255e-05 -4.86013e-06 -83.6937 -932.264 42.5822 0.0015 
11 1 1 -0.290348 -0.0132278 -0.227712 0 0 0 -1.31535 0.101195 -0.56736 -0.000339192 9.42619e-05 0.000761586 -123.426 -946.973 116.828 0.0015 
2 1 1 -0.284285 0.00778481 -0.22444 0 0 0 -1.2135 0.0318818 -0.512285 -0.000411361 -7.54537e-05 6.18141e-05 -17.4687 -529.023 8.79378 0.0025 
31 1 1 -0.296036 0.0295338 -0.226746 0 0 0 -1.35699 0.0351425 -0.550314 5.25101e-05 7.44858e-05 -0.000499778 60.0481 -954.57 -210.353 0.0015 
4 1 1 -0.273261 -0.00992155 -0.219802 0 0 0 -1.20808 0.0117391 -0.506476 -0.000471956 0.000121662 -3.06057e-05 1.40776 -528.503 -15.6095 0.0025 
21 1 1 -0.263425 -0.00671981 -0.216966 0 0 0 -1.08812 -0.0115496 -0.459077 -0.000385977 -5.05339e-05 0.000431138 59.8272 -793.135 -122.516 0.0015 
18 1 1 -0.272005 0.0156516 -0.219615 0 0 0 -1.10484 0.0448347 -0.445705 -4.43555e-05 -2.00744e-05 -9.91259e-05 -71.0161 -820.435 94.3188 0.0015 
17 1 1 -0.274856 0.0252176 -0.219229 0 0 0 -1.158 0.0713943 -0.461197 -6.1145e-05 -2.33538e-05 -0.000104409 20.6577 -814.689 -177.978 0.0015 
5 1 1 -0.269464 0.0258063 -0.21677 0 0 0 -1.07954 0.0585964 -0.425056 0 0 -0.000346714 -20.9407 -784.89 -57.8684 0.0015 
12 1 1 -0.273428 0.0328796 -0.216379 0 0 0 -1.25284 0.0361198 -0.491422 -8.01181e-05 -5.59761e-05 -4.69317e-05 74.0177 -859.547 -251.88 0.0015 
38 1 1 -0.361931 0.0671718 -0.219816 0 0 0 -1.28232 -0.252842 -0.797387 0 0 -0.000346714 353.317 -1209.87 -459.629 0.0015 
20 1 1 -0.257914 0.012073 -0.214258 0 0 0 -1.09697 0.0910481 -0.449924 -8.7156e-05 -3.13879e-05 -4.14259e-05 -55.3702 -798.141 -26.5145 0.0015 
24 1 1 -0.262497 0.0246308 -0.214231 0 0 0 -1.16586 0.0856586 -0.460289 -2.83542e-05 -1.21346e-05 -0.000212157 -30.4185 -846.085 -80.9574 0.0015 
8 1 1 -0.251024 0.00291404 -0.211799 0 0 0 -1.11118 -0.011101 -0.472317 -3.56815e-05 -2.41077e-06 -0.000171557 61.2974 -800.394 -125.251 0.0015 
22 1 1 -0.248569 0.00071399 -0.210846 0 0 0 -1.10031 -0.0119926 -0.473319 -9.33973e-05 -1.90849e-05 0.000374693 0.43998 -800.496 19.6688 0.0015 
6 1 1 -0.252362 0.00624045 -0.212229 0 0 0 -1.10458 0.0101486 -0.468882 -3.76023e-05 -3.85282e-06 -0.000161678 -48.1572 -804.862 95.8408 0.0015 
71 1 1 -0.248916 0.00746428 -0.210716 0 0 0 -1.06146 0.0465539 -0.442474 -8.72335e-05 -8.07191e-06 -3.88191e-05 -35.9697 -768.219 5.46259 0.0015 
32 1 1 -0.249203 0.0107467 -0.210709 0 0 0 -1.09387 0.0490886 -0.455932 -8.82999e-05 -8.1655e-06 -3.65616e-05 -21.6115 -790.176 -33.2254 0.0015 
26 1 1 -0.260429 0.0308694 -0.210544 0 0 0 -1.22044 0.133513 -0.462523 -0.000419436 -0.000289311 -7.82642e-05 -72.8522 -553.02 32.9269 0.0025 
23 1 1 -0.246215 -0.0151194 -0.208796 0 0 0 -1.09538 0.010336 -0.423726 0 0 -0.000346714 8.16058 -721.233 36.3018 0.0015 
14 1 1 -0.243366 -0.0165105 -0.2063 0 0 0 -1.12569 -0.104235 -0.403408 0 0 -0.00160516 43.6255 -461.022 14.452 0.0025 
35 1 1 -0.244211 -0.0126061 -0.208395 0 0 0 -1.08053 -0.0162369 -0.420388 0 0 -0.000346714 -27.1461 -765.378 100.269 0.0015 
10 1 1 -0.238067 -0.00420138 -0.206373 0 0 0 -0.906154 -0.0402663 -0.404431 0 0 -0.000346714 -3.86688 -651.115 78.1546 0.0015 
57 1 1 -0.24061 0.00172939 -0.207232 0 0 0 -1.09396 0.116082 -0.556341 0 0 -0.000346714 -150.077 -723.611 35.1446 0.0015 
16 1 1 -0.242181 0.0169499 -0.20582 0 0 0 -1.18683 -0.0410718 -0.497364 -0.000493862 -0.000174097 8.17656e-05 57.4213 -505.147 -95.339 0.0025 
37 1 1 -0.248969 0.0265954 -0.208067 0 0 0 -1.14859 0.0869794 -0.453366 0 0 -0.000346714 -51.0422 -844.121 -34.5773 0.0015 
3 1 1 -0.252626 0.031988 -0.207027 0 0 0 -1.19006 0.00598272 -0.493908 8.7589e-05 7.40666e-05 -0.00151166 31.8399 -508.454 -83.6812 0.0025 
72 1 1 -0.299239 -0.0696156 -0.20317 0 0 0 -1.37319 0.0582184 -0.437794 0 0 -0.000346714 -171.533 -811.536 521.343 0.0015 
76 1 1 -0.230549 -0.00304188 -0.203293 0 0 0 -1.024 0.101374 -0.432778 -8.56536e-05 1.5991e-05 -4.14191e-05 -78.665 -740.396 12.6993 0.0015 
75 1 1 -0.238304 0.0217469 -0.204624 0 0 0 -1.1728 -0.0726244 -0.495634 -0.000143059 -5.00254e-05 8.95378e-05 33.2692 -860.937 47.6077 0.0015 
48 1 1 -0.258143 0.0475028 -0.204822 0 0 0 -1.09757 0.0627404 -0.406628 -7.37857e-05 -7.54276e-05 -6.03663e-05 26.032 -764.363 -188.208 0.0015 
51 1 1 -0.254996 0.0477884 -0.203468 0 0 0 -1.22933 0.0529333 -0.462885 -6.55096e-05 -6.95784e-05 -7.10053e-05 34.1464 -864.754 -189.457 0.0015 
52 1 1 -0.226363 -0.0178157 -0.199206 0 0 0 -0.99971 0.0272302 -0.426254 -0.000149462 2.14623e-05 -0.000976548 -35.9718 -430.861 56.6753 0.0025 
113 1 1 -0.223449 -0.0105211 -0.199699 0 0 0 -1.04609 0.158136 -0.469075 0 0 -0.000346714 -185.754 -742.097 171.545 0.0015 
56 1 1 -0.220047 0.00669497 -0.198639 0 0 0 -1.03913 -0.0312412 -0.432819 -8.67945e-05 -4.14677e-06 -4.03005e-05 0.685079 -751.853 52.6137 0.0015 
42 1 1 -0.226666 0.0170472 -0.199307 0 0 0 -1.13001 -0.171632 -0.492058 -0.000362212 -0.000118811 -0.000139096 92.3653 -487.838 -42.0051 0.0025 
79 1 1 -0.244489 -0.0469385 -0.198397 0 0 0 -1.24832 0.177174 -0.536429 -0.00044702 0.000492191 -0.000215914 -118.205 -532.28 99.6123 0.0025 
138 1 1 -0.230261 -0.0341993 -0.198483 0 0 0 -1.33272 0.1524 -0.582578 -7.69229e-05 6.64266e-05 -5.61117e-05 -176.507 -951.195 154.97 0.0015 
41 1 1 -0.220893 -0.0227302 -0.196004 0 0 0 -0.958476 0.0288905 -0.396727 -0.00282858 0.00159168 0.00611938 -42.3282 -406.79 72.6371 0.0025 
50 1 1 -0.21948 -0.0107249 -0.198013 0 0 0 -0.989432 0.0431198 -0.413968 -8.7253e-05 1.91997e-05 -3.71374e-05 0.330409 -723.876 -76.1892 0.0015 
28 1 1 -0.218749 -0.00469775 -0.197176 0 0 0 -1.04586 0.147911 -0.446918 -0.000400714 8.81901e-05 -0.000178758 -85.2461 -450.179 50.5 0.0025 
96 1 1 -0.217102 0.00890665 -0.197353 0 0 0 -1.07368 -0.0234668 -0.459347 0 0 -0.000346714 122.038 -628.362 -281.404 0.0015 
49 1 1 -0.218856 0.0133945 -0.197554 0 0 0 -1.01532 0.00078315 -0.432619 -3.07925e-05 -7.56903e-06 -0.000177499 49.3425 -726.251 -117.132 0.0015 
55 1 1 -0.220429 0.0229979 -0.195914 0 0 0 -1.08138 0.107707 -0.412097 0.000244407 -9.88766e-05 -0.00199038 -47.7862 -478.262 3.6265 0.0025 
60 1 1 -0.205295 -0.0103216 -0.192112 0 0 0 -1.01379 -0.0304792 -0.416215 -8.67194e-05 2.20036e-05 -3.79798e-05 46.6321 -741.456 -59.2867 0.0015 
25 1 1 -0.207684 -0.00253047 -0.193535 0 0 0 -0.993233 0.079016 -0.413377 -0.000139673 -2.77156e-06 9.14197e-05 -103.412 -718.706 111.401 0.0015 
19 1 1 -0.205975 0.0124893 -0.192222 0 0 0 -0.990499 -0.0408385 -0.428019 -0.000109834 -2.81607e-05 1.1011e-05 38.3979 -720.011 -20.119 0.0015 
46 1 1 -0.213326 0.0213335 -0.1943 0 0 0 -1.03211 0.044611 -0.421468 -8.68927e-05 -2.44614e-05 -3.72891e-05 -7.39916 -742.201 -60.4391 0.0015 
78 1 1 -0.216219 0.0322394 -0.192018 0 0 0 -1.09307 0.0428455 -0.429233 -0.000901978 -0.000534222 0.000817384 -0.824918 -472.595 -45.3911 0.0025 
107 1 1 -0.205084 -0.0233334 -0.1894 0 0 0 -1.10126 0.0288381 -0.454868 -0.00036838 0.000213051 -0.000227516 -11.7221 -487.513 -2.56985 0.0025 
87 1 1 -0.202684 -0.0197266 -0.19002 0 0 0 -0.868513 -0.0914521 -0.360873 2.16823e-05 3.3858e-05 5.03229e-06 38.0336 -332.336 69.0037 0.0015 
111 1 1 -0.197099 -0.0130307 -0.188422 0 0 0 -0.971731 -0.000819626 -0.412021 -1.02899e-05 -1.67935e-06 -0.00027898 -35.7807 -697.821 85.8149 0.0015 
39 1 1 -0.202313 -0.00823759 -0.190012 0 0 0 -1.00647 -0.0157111 -0.414802 -0.000401965 0.000102233 -0.000171292 15.0189 -440.134 -19.7813 0.0025 
81 1 1 -0.201492 -0.000420195 -0.190917 0 0 0 -0.852883 0.0704398 -0.365775 2.07633e-05 7.69339e-06 9.24057e-06 -42.1715 -456.604 -39.4379 0.0015 
40 1 1 -0.207935 0.028608 -0.18938 0 0 0 -1.04381 0.0812032 -0.407054 -0.000330561 -0.000174202 -0.00035414 -47.8347 -466.905 29.3275 0.0025 
102 1 1 -0.202551 0.0291518 -0.188166 0 0 0 -1.03599 0.190074 -0.372493 -6.43251e-05 -1.98044e-05 -0.000210418 -107.72 -742.247 -81.2619 0.0015 
1 1 1 -0.194416 -0.0149344 -0.185946 0 0 0 -0.966948 0.00649343 -0.408965 0 0 -0.00160516 -49.4921 -407.622 112.794 0.0025 
33 1 1 -0.189221 0.00904737 -0.185462 0 0 0 -0.87925 0.0167089 -0.374922 -7.97089e-05 -1.78533e-05 -5.54141e-05 25.5403 -632.022 -88.0902 0.0015 
69 1 1 -0.195876 0.0114458 -0.187262 0 0 0 -0.867602 0.17443 -0.353726 0 0 -0.000346714 -100.1 -556.501 -101.774 0.0015 
99 1 1 -0.194229 0.0222096 -0.18613 0 0 0 -0.86398 -0.0271679 -0.370943 1.87903e-05 -3.68133e-05 -5.19052e-05 -15.3514 -187.269 -40.5619 0.0015 
43 1 1 -0.197475 0.0304492 -0.185753 0 0 0 -0.888257 0.196811 -0.334271 3.18018e-05 -5.93719e-05 0.000166768 -84.6684 -302.186 -244.022 0.0015 
174 1 1 -0.208152 -0.0509073 -0.183606 0 0 0 -1.21873 -0.225447 -0.361839 4.0688e-05 -0.000140649 -0.000501378 56.5176 -806.274 315.543 0.0015 
53 1 1 -0.186539 0.000622291 -0.183541 0 0 0 -0.876462 -0.000141059 -0.372482 -0.00121508 4.90744e-05 0.000755673 -6.4442 -382.024 15.1222 0.0025 
29 1 1 -0.187763 0.00552465 -0.184082 0 0 0 -0.908319 -0.0139398 -0.39077 -0.00048381 -0.000108887 1.27108e-05 21.8025 -393.676 -36.634 0.0025 
88 1 1 -0.181727 0.00881373 -0.182322 0 0 0 -0.886993 -0.0755588 -0.383443 -8.85827e-05 -1.77449e-05 -3.91701e-05 59.9415 -643.83 -11.7896 0.0015 
70 1 1 -0.187533 0.0110847 -0.183454 0 0 0 -0.866658 -0.0238771 -0.431388 0 0 -0.000346714 -35.0899 -552.753 -93.1963 0.0015 
64 1 1 -0.183989 0.0186666 -0.182047 0 0 0 -0.897397 0.257541 -0.66834 0 0 -0.000346714 -0.602871 -9.19842 -110.027 0.0015 
34 1 1 -0.222293 0.0653034 -0.181332 0 0 0 -1.11998 -0.0567401 -0.467167 0 0 -0.000346714 152.323 -734.748 -313.755 0.0015 
27 1 1 -0.178036 -0.0211348 -0.178442 0 0 0 -0.94497 -0.0811994 -0.365182 0 0 -0.00160516 40.0639 -409.473 -10.4285 0.0025 
98 1 1 -0.170224 -0.00978003 -0.177511 0 0 0 -0.871375 -0.110439 -0.36321 -8.75091e-05 1.73359e-05 -4.07311e-05 55.834 -629.152 57.3454 0.0015 
108 1 1 -0.17072 0.00304471 -0.177877 0 0 0 -0.834491 0.0513628 -0.330039 0 0 -0.000346714 16.4642 -589.26 -125.838 0.0015 
44 1 1 -0.173066 0.00509924 -0.178957 0 0 0 -0.835301 0.0367454 -0.351781 -9.43836e-05 -1.87877e-05 -2.82391e-05 -26.5274 -607.206 -0.454712 0.0015 
80 1 1 -0.174648 0.0106812 -0.178067 0 0 0 -0.718078 0.128102 -0.294036 -0.00039087 -7.71718e-05 -0.000234098 -40.8647 -310.224 -35.3723 0.0025 
58 1 1 -0.176462 0.014769 -0.179577 0 0 0 -0.846622 -0.0423294 -0.363668 -8.85328e-05 -1.78665e-05 -3.59377e-05 85.649 -604.544 -129.079 0.0015 
82 1 1 -0.177205 0.019657 -0.179466 0 0 0 -0.917167 0.0402314 -0.377882 -3.93202e-05 -5.39982e-06 -0.000168564 -113.385 -682.821 201.491 0.0015 
7 1 1 -0.216085 -0.0684545 -0.176878 0 0 0 -0.909364 0.283622 -0.536445 0 0 -0.000346714 -338.701 -570.574 285.067 0.0015 
45 1 1 -0.210883 -0.0666442 -0.174165 0 0 0 -0.88159 0.0868543 -0.078703 0 0 -0.000346714 38.1207 -633.678 42.0881 0.0015 
114 1 1 -0.172155 -0.032427 -0.174832 0 0 0 -1.00133 -0.06331 -0.398912 0 0 -0.000346714 -18.5894 -687.118 175.955 0.0015 
165 1 1 -0.176791 -0.0273131 -0.177001 0 0 0 -0.82847 -0.0879199 -0.334924 0 0 -0.000346714 61.7955 -517.884 64.5504 0.0015 
122 1 1 -0.166429 -0.0179583 -0.175152 0 0 0 -0.737624 -0.141888 -0.296191 -8.80824e-05 2.66884e-05 -4.10065e-05 108.617 -540.148 -11.7439 0.0015 
84 1 1 -0.168354 -0.013224 -0.176421 0 0 0 -0.760321 -0.117174 -0.321829 0 0 -0.000346714 60.5236 -545.708 58.7619 0.0015 
63 1 1 -0.165316 -0.0133957 -0.175136 0 0 0 -0.896098 0.083809 -0.378065 -8.72013e-05 1.60348e-05 -3.73066e-05 -89.9558 -643.304 70.6087 0.0015 
97 1 1 -0.161812 -0.0100838 -0.173936 0 0 0 -0.793373 0.0321358 -0.331484 -8.81103e-05 1.61847e-05 -3.57271e-05 4.12663 -579.358 -66.0339 0.0015 
104 1 1 -0.165043 -0.00603459 -0.174469 0 0 0 -0.869334 0.025145 -0.361663 -0.00149229 5.37354e-05 0.00287494 -30.715 -376.772 48.7061 0.0025 
129 1 1 -0.180232 0.00570317 -0.175614 0 0 0 -1.09949 0.172798 -0.59129 0 0 -0.00160516 107.201 168.895 14.0063 0.0025 
152 1 1 -0.171551 0.00558436 -0.176305 0 0 0 -1.00855 0.0271957 -0.454905 0 0 -0.000346714 -30.782 -564.118 -22.3427 0.0015 
54 1 1 -0.168436 0.0103721 -0.175482 0 0 0 -0.631649 0.0366538 -0.259955 -0.000311052 -5.9748e-05 -0.000408958 -5.10163 -272.482 -26.0394 0.0025 
115 1 1 -0.179784 0.0114631 -0.176151 0 0 0 -1.08192 0.0327145 -0.55362 0 0 -0.000346714 80.5194 -117.211 96.8533 0.0015 
77 1 1 -0.172904 0.0157527 -0.176905 0 0 0 -0.86463 0.055406 -0.356273 -0.000402168 -7.90917e-05 -0.000181559 -24.5921 -376.203 1.17704 0.0025 
137 1 1 -0.170284 0.020825 -0.176348 0 0 0 -0.962024 0.230939 -0.360485 -8.65976e-05 -3.90279e-05 -4.5974e-05 -159.517 -702.547 -24.4794 0.0015 
83 1 1 -0.163932 0.0185639 -0.174015 0 0 0 -0.81862 0.0425084 -0.33863 -9.97402e-05 -2.0127e-05 -2.514e-06 -41.8601 -595.706 26.552 0.0015 
139 1 1 -0.168831 0.027814 -0.174383 0 0 0 -0.856726 0.109931 -0.339777 -8.64522e-05 -3.97395e-05 -4.23964e-05 -112.523 -644.48 75.2101 0.0015 
171 1 1 -0.170146 -0.0348509 -0.172928 0 0 0 -1.00931 0.0478392 -0.563232 0 0 -0.000346714 47.7889 -733.208 -147.982 0.0015 
120 1 1 -0.18364 -0.00158257 -0.174577 0 0 0 -1.14649 0.0165933 -0.662017 0 0 -0.00160516 3.6808 -104.303 -67.8123 0.0025 
91 1 1 -0.159307 0.0021855 -0.172014 0 0 0 -0.846677 0.0057443 -0.370987 0 0 -0.00160516 17.4313 -367.43 -46.1944 0.0025 
116 1 1 -0.157624 0.00725961 -0.171299 0 0 0 -0.759814 0.0204613 -0.353189 0.00159475 9.13904e-05 0.0113109 -15.9318 -328.136 16.3446 0.0025 
105 1 1 -0.158545 -0.0268793 -0.1693 0 0 0 -1.00713 -0.0491744 -0.391974 -0.000116275 7.21249e-05 -0.00054431 28.3053 -445.943 -17.3805 0.0025 
66 1 1 -0.150661 -0.0212853 -0.167014 0 0 0 -0.814633 -0.0409448 -0.329677 -0.000372933 9.1904e-05 -0.000346476 -4.87607 -348.11 55.2278 0.0025 
128 1 1 -0.151683 -0.0130276 -0.169496 0 0 0 -0.786643 0.0590448 -0.342073 -8.86783e-05 2.10381e-05 -4.00194e-05 -42.7244 -573.127 -0.676351 0.0015 
93 1 1 -0.149595 -0.00587961 -0.167908 0 0 0 -0.710452 -0.085631 -0.292464 0.000322986 -3.12204e-05 -0.00216651 29.4845 -307.181 18.6433 0.0025 
166 1 1 -0.151927 -0.000220663 -0.170062 0 0 0 -0.843408 -0.0818036 -0.347824 -6.85271e-05 -2.05908e-06 -8.1636e-05 75.8073 -607.766 -40.8458 0.0015 
133 1 1 -0.164116 0.00463168 -0.171137 0 0 0 -1.29168 -0.222154 -0.737047 0 0 -0.000346714 192.631 133.004 2.86758 0.0015 
103 1 1 -0.152753 0.005094 -0.169277 0 0 0 -0.931798 -0.0112024 -0.379163 -0.00756173 -0.000241591 0.0157009 1.94104 -409.92 7.78883 0.0025 
100 1 1 -0.147898 0.00846267 -0.168175 0 0 0 -0.760242 -0.0877796 -0.331564 -9.02639e-05 -5.0965e-06 -3.92378e-05 82.7436 -551.722 -43.6577 0.0015 
185 1 1 -0.144805 0.00926598 -0.166813 0 0 0 -0.738172 0.0483924 -0.313093 9.50491e-05 7.23745e-06 -0.000530522 -60.7254 -536.241 58.7229 0.0015 
13 1 1 -0.152637 0.0115277 -0.168796 0 0 0 -0.730491 -0.0741167 -0.316123 0 0 -0.00160516 49.7484 -312.653 -42.5484 0.0025 
135 1 1 -0.151771 0.0196545 -0.168713 0 0 0 -0.851567 0.0362008 -0.360291 5.65805e-05 1.84205e-05 -0.000416276 15.7606 -610.142 -98.3138 0.0015 
140 1 1 -0.168873 0.0482589 -0.168787 0 0 0 -0.918706 -0.227127 -0.443322 -7.89807e-05 -6.26433e-05 -5.17948e-05 171.123 -688.68 -1.79095 0.0015 
74 1 1 -0.156059 -0.0467263 -0.164195 0 0 0 -0.845861 -0.122073 -0.273167 -0.000436197 0.000483379 0.000696872 111.959 -645.961 -50.0195 0.0015 
65 1 1 -0.143627 -0.0102203 -0.165215 0 0 0 -0.64731 0.0445114 -0.271868 -0.00040142 4.86847e-05 -0.000138484 24.3369 -286.189 -105.18 0.0025 
95 1 1 -0.140274 -0.00673397 -0.165065 0 0 0 -0.593701 0.0584687 -0.255932 -8.88033e-05 6.33544e-06 -4.01905e-05 -80.3033 -428.233 88.4485 0.0015 
163 1 1 -0.139984 -0.00202241 -0.165084 0 0 0 -0.692774 -0.00861287 -0.296308 -8.94535e-05 6.38104e-06 -3.86023e-05 59.7713 -506.668 -125.019 0.0015 
164 1 1 -0.149515 0.00049207 -0.165998 0 0 0 -1.19376 0.0306965 -0.722712 0 0 -0.000346714 41.7044 52.1454 -131.335 0.0015 
167 1 1 -0.14031 0.0019016 -0.164055 0 0 0 -0.583038 0.000234404 -0.239605 0.000116327 -0.00016334 4.21903e-05 23.3822 -21.2276 35.2525 0.0025 
110 1 1 -0.150838 0.00463295 -0.165174 0 0 0 -0.987906 -0.0551649 -0.357785 0 0 -0.000346714 40.23 473.959 -13.9929 0.0015 
172 1 1 -0.139434 0.00607484 -0.164616 0 0 0 -0.763871 -0.0530539 -0.315374 -1.49376e-06 7.0323e-05 -4.28419e-05 -9.77321 -511.441 40.1522 0.0015 
62 1 1 -0.139662 0.0151169 -0.16417 0 0 0 -0.841186 -0.0261795 -0.338486 -0.000347116 -0.000110285 0.000672059 24.7426 -605.961 -15.3552 0.0015 
121 1 1 -0.189232 -0.0748099 -0.162548 0 0 0 -0.886461 -0.138853 -0.206766 0 0 -0.000346714 138.239 -801.142 -40.0709 0.0015 
149 1 1 -0.1454 -0.0401856 -0.161879 0 0 0 -0.920253 -0.0463172 -0.347575 0 0 -0.000346714 -36.2554 -627.448 184.335 0.0015 
112 1 1 -0.138379 -0.0343129 -0.16046 0 0 0 -0.873 -0.0292871 -0.358408 4.46298e-05 -2.37726e-05 -0.000416665 -100.352 -578.846 289.73 0.0015 
117 1 1 -0.137699 -0.0240563 -0.161138 0 0 0 -1.04957 -0.138047 -0.427004 -6.18129e-05 0.000690474 -0.000165304 -61.3496 -357.193 62.2361 0.0025 
15 1 1 -0.150181 -0.0119127 -0.163534 0 0 0 -0.769425 -0.0335983 -0.526208 0 0 -0.00160516 -14.4016 140.45 43.327 0.0025 
131 1 1 -0.13386 -0.0109208 -0.161033 0 0 0 -0.73382 0.0468273 -0.309971 0 0 -0.00160516 -12.5165 -319.102 -17.5178 0.0025 
127 1 1 -0.131769 -0.00737171 -0.161457 0 0 0 -0.789403 0.0321657 -0.328702 -7.81566e-05 4.42456e-06 -5.9243e-05 -25.2396 -570.165 4.82046 0.0015 
90 1 1 -0.133024 -0.00147256 -0.161036 0 0 0 -0.727547 -0.0103995 -0.298339 -0.000665731 5.32916e-05 0.000480718 6.0695 -314.865 -3.89303 0.0025 
73 1 1 -0.133677 0.00457848 -0.162309 0 0 0 -0.693483 -0.00794355 -0.304364 0.022835 -0.0402701 -0.00962846 -10.0475 -492.369 -36.5948 0.0015 
123 1 1 -0.12818 0.00607458 -0.159861 0 0 0 -0.561956 -0.000465642 -0.230476 -8.66016e-05 -1.36214e-05 -3.63948e-05 22.3972 -402.378 -53.7968 0.0015 
158 1 1 -0.137557 0.0091399 -0.162471 0 0 0 -0.817094 0.0267284 -0.365073 0 0 -0.00160516 -0.432438 -328.961 -36.847 0.0025 
151 1 1 -0.133148 0.00704191 -0.160723 0 0 0 -0.876243 -0.207534 -0.535833 -0.0224894 0.0432916 0.0116537 -247.287 -287.582 -214.475 0.0015 
208 1 1 -0.13165 0.0113868 -0.159907 0 0 0 -0.708861 -0.21803 -0.300586 0 0 -0.00160516 93.3062 -211.239 54.3481 0.0025 
68 1 1 -0.134932 0.0174875 -0.16074 0 0 0 -0.791411 -0.0585765 -0.31502 0.00065035 0.000254575 -0.00323457 33.5112 -339.25 -21.8281 0.0025 
67 1 1 -0.140087 0.0340725 -0.160002 0 0 0 -0.684301 0.0628426 -0.268018 0.000550045 0.000235868 -0.00294062 -15.5571 -295.044 -30.7438 0.0025 
173 1 1 -0.143314 0.0417272 -0.160515 0 0 0 -0.919484 0.0583205 -0.344127 -7.81919e-05 -6.24936e-05 -4.89134e-05 -24.8714 -671.982 -47.4176 0.0015 
199 1 1 -0.145845 0.0405063 -0.161788 0 0 0 -0.945849 0.328358 -0.149096 0 0 -0.000346714 -197.579 -618.958 -185.261 0.0015 
106 1 1 -0.139065 -0.0380352 -0.158821 0 0 0 -0.882158 -0.0289608 -0.355563 0.000119044 0.000372558 3.62142e-05 -6.15037 -380.984 47.1006 0.0025 
243 1 1 -0.133405 -0.0217351 -0.158627 0 0 0 -0.91126 -0.198499 -0.210382 0 0 -0.000346714 -411.693 -335.621 -56.366 0.0015 
183 1 1 -0.130043 -0.0166274 -0.158876 0 0 0 -0.629369 -0.0641006 -0.280456 0 0 -0.00160516 74.5495 -15.7621 -63.575 0.0025 
193 1 1 -0.123623 -0.0152598 -0.156086 0 0 0 -0.717171 0.023859 -0.305175 0 0 -0.00160516 -13.1121 -299.492 11.2977 0.0025 
159 1 1 -0.145505 -0.0118172 -0.157636 0 0 0 -0.890104 -0.18361 -0.0254178 0 0 -0.000346714 52.9769 -92.1889 -42.178 0.0015 
101 1 1 -0.12523 -0.00928479 -0.158559 0 0 0 -0.797887 0.109896 -0.349098 -7.43783e-05 1.27811e-05 -7.90048e-05 -38.511 -587.235 -96.6855 0.0015 
157 1 1 -0.122333 -0.00753421 -0.156364 0 0 0 -0.799611 0.100026 -0.342849 -0.000428798 7.08623e-05 -0.000108472 -25.0375 -350.955 -44.056 0.0025 
153 1 1 -0.12933 -0.00172012 -0.157668 0 0 0 -0.719245 0.0659608 -0.110548 0 0 -0.000346714 -62.7238 -375.107 92.9789 0.0015 
203 1 1 -0.146691 -0.000455112 -0.161882 0 0 0 -1.00175 -0.236512 -0.958284 0 0 -0.000346714 231.67 -102.93 -70.3228 0.0015 
132 1 1 -0.127958 0.00183897 -0.15895 0 0 0 -0.600715 -0.0324125 -0.257208 9.03964e-05 0.000111484 4.02798e-05 -23.5101 -8.27476 -5.02423 0.0025 
178 1 1 -0.11806 0.00484233 -0.155729 0 0 0 -0.425458 0.00908436 -0.166789 0 0 -0.000346714 23.9027 -297.76 -70.6971 0.0015 
189 1 1 -0.122476 0.012865 -0.157084 0 0 0 -0.557699 -0.0863318 -0.234246 -8.99703e-05 -1.41512e-05 -2.89204e-05 83.9313 -399.383 -52.6274 0.0015 
92 1 1 -0.134427 0.0312899 -0.158351 0 0 0 -0.732982 -0.0232936 -0.299205 -0.000419438 -0.000231176 -0.000130738 30.0632 -311.859 -49.3823 0.0025 
161 1 1 -0.130053 0.0324172 -0.157422 0 0 0 -0.687294 0.0148861 -0.278281 -6.58881e-05 -2.91232e-05 -0.000183167 -3.68912 -502.411 -19.2535 0.0015 
130 1 1 -0.140886 0.0452456 -0.157338 0 0 0 -0.785364 -0.0436132 -0.328652 -0.00159266 -0.00138741 0.00317993 56.1522 -323.992 -91.7277 0.0025 
94 1 1 -0.152526 0.052352 -0.159602 0 0 0 -0.794163 -0.124262 -0.372701 -0.000340488 -0.000366222 -0.000297979 92.2483 -331.978 -85.8808 0.0025 
89 1 1 -0.147435 0.0570385 -0.156659 0 0 0 -0.763976 0.0530864 -0.221032 0 0 -0.000346714 -23.9936 -538.849 -85.7011 0.0015 
177 1 1 -0.123205 -0.031558 -0.154759 0 0 0 -0.654118 -0.0523177 -0.259271 -8.3779e-05 4.35689e-05 -4.50028e-05 41.6054 -482.997 -7.50197 0.0015 
198 1 1 -0.120835 -0.0218551 -0.155442 0 0 0 -0.833149 -0.00248008 -0.350717 -8.97212e-05 2.99791e-05 -3.3219e-05 21.9237 -614.737 -47.7762 0.0015 
150 1 1 -0.119934 -0.0110762 -0.156195 0 0 0 -0.880275 0.0365651 -0.371714 -1.28608e-05 2.24137e-06 -0.000211899 -119.389 -622.3 221.461 0.0015 
197 1 1 -0.121283 -0.00512141 -0.15331 0 0 0 -0.969269 -0.1474 -0.497051 0 0 -0.000346714 -18.4259 286.559 -51.4104 0.0015 
59 1 1 -0.115394 -0.00418188 -0.15444 0 0 0 -0.480228 -0.040742 -0.240857 0 0 -0.000346714 84.8369 -328.339 -131.151 0.0015 
187 1 1 -0.131244 -0.00292541 -0.152971 0 0 0 -1.07012 -0.142016 -0.424067 0 0 -0.000346714 129.443 63.5394 -60.436 0.0015 
144 1 1 -0.119605 -0.000256975 -0.155362 0 0 0 -0.610043 -0.00740515 -0.262054 -0.000483112 -2.32145e-05 -2.01032e-05 -32.3927 -265.494 83.296 0.0025 
155 1 1 -0.114714 0.00319146 -0.153299 0 0 0 -0.605597 0.101869 -0.254112 -0.000539345 7.41843e-07 0.000126282 -33.91 -262.96 -24.5961 0.0025 
190 1 1 -0.118176 0.00641727 -0.15246 0 0 0 -0.875815 0.0930227 0.132693 0 0 -0.000346714 -145.792 -229.42 -108.788 0.0015 
119 1 1 -0.118344 0.0111662 -0.154406 0 0 0 -0.698985 -0.105413 -0.299861 0 0 -0.00160516 61.3982 -272.121 -55.525 0.0025 
202 1 1 -0.114656 0.0122747 -0.152847 0 0 0 -0.699726 -0.100199 -0.0284847 0 0 -0.000346714 -23.0763 -273.524 75.718 0.0015 
148 1 1 -0.115213 0.0209742 -0.1532 0 0 0 -0.780076 -0.0343479 -0.330774 -8.62937e-05 -3.14711e-05 -4.08017e-05 -26.2219 -588.055 122.904 0.0015 
136 1 1 -0.12069 0.0295842 -0.154204 0 0 0 -0.806839 0.0399954 -0.333382 -8.68325e-05 -3.08905e-05 -4.11343e-05 31.9361 -567.614 -145.387 0.0015 
143 1 1 -0.116955 -0.0310413 -0.151173 0 0 0 -0.663209 -0.0307441 -0.27058 -0.000393294 0.000200516 -0.000204574 -39.7368 -266.043 127.628 0.0025 
221 1 1 -0.114033 -0.02599 -0.150625 0 0 0 -0.781814 -0.370957 -0.350245 0 0 -0.00160516 146.767 -318.219 50.9999 0.0025 
205 1 1 -0.108688 -0.0144665 -0.151172 0 0 0 -0.718947 -0.041535 -0.225227 0 0 -0.000346714 82.3866 -449.266 -109.947 0.0015 
191 1 1 -0.106639 -0.0109518 -0.150603 0 0 0 -0.776189 -0.0147393 -0.324847 -8.50684e-05 1.32733e-05 -4.2657e-05 -34.0059 -555.537 106.489 0.0015 
211 1 1 -0.116985 -0.00630509 -0.151292 0 0 0 -0.662297 -0.300884 -0.540817 0 0 -0.000346714 118.503 -107.282 9.68922 0.0015 
168 1 1 -0.109091 -0.00346823 -0.149896 0 0 0 -0.761527 -0.104006 -0.513296 0 0 -0.00160516 -72.1759 -136.575 37.4752 0.0025 
180 1 1 -0.10935 0.00178825 -0.15104 0 0 0 -0.550519 0.00774801 -0.291727 0.000646114 -0.000118806 0.0302811 32.8548 -243.693 -85.1411 0.0025 
192 1 1 -0.112041 0.0108474 -0.152055 0 0 0 -0.664372 0.184772 -0.281609 0 0 -0.000346714 -122.183 -453.674 -50.3512 0.0015 
276 1 1 -0.106836 0.00980209 -0.150297 0 0 0 -1.08287 -0.221798 -0.484306 0 0 -0.000346714 154.191 -513.08 55.4862 0.0015 
204 1 1 -0.140283 0.0251982 -0.148988 0 0 0 -0.965384 0.198399 -0.209375 0 0 -0.000346714 -335.15 193.462 -73.885 0.0015 
210 1 1 -0.10936 0.0225924 -0.149419 0 0 0 -0.877659 -0.13661 -0.386906 -0.000323847 -0.000118011 -0.000371112 89.7683 -373.426 -71.7656 0.0025 
181 1 1 -0.103525 -0.026875 -0.146421 0 0 0 -0.619038 0.0629558 -0.266868 -0.000418661 0.000133661 -0.000147339 -58.8221 -260.566 74.9696 0.0025 
126 1 1 -0.101241 -0.022489 -0.147142 0 0 0 -0.64089 0.11124 -0.282466 -8.65305e-05 2.76427e-05 -4.02772e-05 -174.607 -436.857 224.13 0.0015 
206 1 1 -0.101587 -0.0170796 -0.146917 0 0 0 -0.725041 0.118057 -0.321845 -0.000405021 0.00012529 -0.000187655 -66.8896 -312.652 36.0018 0.0025 
218 1 1 -0.0969943 -0.0134581 -0.14635 0 0 0 -0.671487 -0.144123 -0.267719 0 0 -0.000346714 75.0492 -475.006 73.0515 0.0015 
145 1 1 -0.0975195 -0.00670405 -0.145923 0 0 0 -0.581282 -0.152176 -0.239645 -0.000552908 5.72751e-05 0.000237534 70.6142 -254.925 -9.86995 0.0025 
232 1 1 -0.104428 -0.00305472 -0.148112 0 0 0 -0.629003 -0.0758852 -0.65413 0 0 -0.00160516 47.071 137.668 -10.7453 0.0025 
216 1 1 -0.100675 -0.000607108 -0.148487 0 0 0 -0.585334 0.0119931 -0.163487 -0.00656919 -0.000597927 0.0105462 -2.89684 -419.157 -4.93095 0.0015 
175 1 1 -0.122099 0.00750492 -0.149424 0 0 0 -1.0036 0.165109 -0.501672 0 0 -0.000346714 -237.833 175.776 -43.6529 0.0015 
196 1 1 -0.119297 0.005223 -0.145392 0 0 0 -1.0178 0.170216 -0.288808 0 0 -0.00160516 -93.486 16.3306 -11.465 0.0025 
201 1 1 -0.099007 0.00501635 -0.146708 0 0 0 -0.703789 0.0561987 -0.234234 0 0 -0.000346714 -8.91836 -462.994 -27.3379 0.0015 
228 1 1 -0.0943578 0.00534396 -0.145735 0 0 0 -0.75496 0.0766095 -0.306364 0 0 -0.000346714 25.0152 -540.596 -189.907 0.0015 
245 1 1 -0.100256 0.00934447 -0.146617 0 0 0 -0.449635 0.304704 -0.257048 0 0 -0.00160516 -121.548 -164.221 4.29425 0.0025 
212 1 1 -0.104123 0.0161282 -0.149138 0 0 0 -0.837095 0.00584692 -0.382684 0.000352038 -1.82442e-05 0.00249213 85.1195 -586.721 -213.425 0.0015 
179 1 1 -0.155233 -0.0845135 -0.143124 0 0 0 -0.859618 -0.166861 -0.144023 -2.5476e-06 1.52466e-06 -0.000341413 81.843 -601.499 217.09 0.0015 
194 1 1 -0.131257 -0.071725 -0.141763 0 0 0 -0.774659 -0.214968 -0.163341 -0.000302173 0.000468044 -0.000358883 31.9524 -263.295 194.95 0.0025 
214 1 1 -0.0936237 -0.0278296 -0.142424 0 0 0 -0.914578 -0.0936322 -0.426875 0 0 -0.000346714 135.81 -564.594 -37.5581 0.0015 
188 1 1 -0.0912021 -0.0212897 -0.143074 0 0 0 -0.704287 0.125418 -0.309525 -8.67617e-05 2.64322e-05 -3.94584e-05 -45.0378 -526.519 -110.865 0.0015 
226 1 1 -0.0952384 -0.0145837 -0.144099 0 0 0 -0.608537 -0.0556843 -0.221857 0 0 -0.000346714 25.124 -301.121 -34.3927 0.0015 
147 1 1 -0.0909199 -0.011026 -0.143976 0 0 0 -0.5124 -0.00822135 -0.252678 0 0 -0.000346714 -90.4781 -307.665 31.8525 0.0015 
223 1 1 -0.0904285 -0.00783254 -0.142424 0 0 0 -0.633895 0.0762256 -0.142488 0 0 -0.000346714 -113.898 -356.6 -49.046 0.0015 
169 1 1 -0.148437 -0.00506868 -0.143247 0 0 0 -0.840969 -0.00189137 -0.228668 0 0 -0.00160516 -36.2028 196.873 12.8413 0.0025 
109 1 1 -0.0918443 -0.00382702 -0.144772 0 0 0 -0.619454 -0.0747544 -0.260722 -8.82944e-05 -2.56338e-06 -3.70637e-05 43.7559 -448.385 24.601 0.0015 
124 1 1 -0.104256 0.00136506 -0.143505 0 0 0 -0.47733 -0.013153 -0.0238108 0 0 -0.000346714 -174.468 262.879 48.2984 0.0015 
244 1 1 -0.0904185 0.0131928 -0.142499 0 0 0 -0.707998 -0.0110908 -0.294564 -0.000255433 -5.47556e-05 -0.000613034 -1.15663 -308.846 14.1133 0.0025 
233 1 1 -0.11945 -0.0204488 -0.139931 0 0 0 -1.0814 -0.225602 -0.589532 0 0 -0.00160516 -38.5355 75.952 -11.6802 0.0025 
225 1 1 -0.104459 -0.010987 -0.140806 0 0 0 -0.68806 -0.263028 -0.639071 0 0 -0.000346714 -258.462 -68.373 186.58 0.0015 
251 1 1 -0.0836822 -0.00441048 -0.141274 0 0 0 -0.606261 -0.0130373 -0.222059 0.00559436 -0.00276318 0.00370094 -6.63761 -409.85 71.4443 0.0015 
195 1 1 -0.080428 -0.00648432 -0.138715 0 0 0 -0.698243 -0.0163429 -0.289817 -0.00024965 2.32046e-05 -0.000605356 -17.7001 -299.964 59.2647 0.0025 
182 1 1 -0.114025 -0.00288499 -0.141497 0 0 0 -0.948885 -0.0175628 -0.266103 0 0 -0.00160516 47.3578 268.415 4.57205 0.0025 
207 1 1 -0.101494 -0.00342346 -0.142823 0 0 0 -0.700782 -0.0474338 -0.668075 0 0 -0.00160516 -10.2815 -101.265 34.2183 0.0025 
118 1 1 -0.0871825 -0.00256389 -0.141721 0 0 0 -0.631988 -0.0158359 -0.271052 -0.00544614 0.0019701 -0.00143405 10.383 -257.737 11.5109 0.0025 
217 1 1 -0.0874089 0.00302821 -0.139888 0 0 0 -0.757957 3.09338e-05 -0.391267 0 0 -0.000346714 26.4178 -406.955 -73.7642 0.0015 
242 1 1 -0.0829685 7.3105e-06 -0.141003 0 0 0 -0.591496 -0.0218464 -0.247875 -0.00019028 -5.10726e-06 0.000236585 -7.30044 -428.288 55.7207 0.0015 
224 1 1 -0.0924716 0.00833782 -0.142421 0 0 0 -0.924737 0.00896411 -0.570184 0 0 -0.000346714 1.58098 -193.09 97.1135 0.0015 
160 1 1 -0.0819274 0.0103082 -0.140254 0 0 0 -0.516085 0.0270085 -0.213257 -8.74894e-05 -1.85684e-05 -3.82053e-05 21.0034 -365.714 -97.1452 0.0015 
215 1 1 -0.08541 0.0167238 -0.140825 0 0 0 -0.579997 0.00590662 -0.368235 0 0 -0.000346714 -108.033 -312.843 -47.1002 0.0015 
235 1 1 -0.0802886 0.0175519 -0.138767 0 0 0 -0.611926 -0.00799412 -0.354236 0 0 -0.000346714 60.9046 -366.374 165.283 0.0015 
134 1 1 -0.0882365 0.0403449 -0.138197 0 0 0 -0.416654 0.0588026 -0.15776 1.23063e-05 9.16781e-06 -0.000358698 1.89697 -280.714 -110.46 0.0015 
9 1 1 -0.119869 0.0675181 -0.141082 0 0 0 -0.556867 -0.162441 -0.303506 -6.40852e-05 -9.58379e-05 -7.87073e-05 130.98 -450.037 0.546831 0.0015 