# vtk DataFile Version 2.0
Generated by lpp.py
ASCII
DATASET POLYDATA
POINTS 353 float
0.201429 0.185487 1.57582
0.321956 0.17736 1.58558
0.46466 0.182109 1.58307
0.548944 0.192031 1.57825
0.608182 0.188806 1.57713
0.75132 0.188142 1.57687
0.933853 0.190412 1.57684
0.870568 0.198349 1.57686
0.354925 0.254399 1.5759
0.485504 0.2642 1.57492
0.644195 0.236662 1.57772
0.797122 0.241627 1.58008
0.899888 0.262457 1.57685
0.958903 0.251103 1.57847
0.0877213 0.296105 1.58306
0.234411 0.279434 1.5787
0.299321 0.274782 1.57685
0.596551 0.282715 1.58007
0.16641 0.322042 1.57235
0.376979 0.312013 1.57953
0.517693 0.322726 1.59782
0.822581 0.32675 1.57686
0.24216 0.355658 1.57984
0.32372 0.345603 1.57872
0.472455 0.355744 1.57914
0.55042 0.370086 1.57502
0.678697 0.351695 1.57686
0.396928 0.392855 1.57715
0.73858 0.400712 1.57772
0.817189 0.40177 1.57693
0.171516 0.427956 1.58166
0.265557 0.413517 1.58115
0.332288 0.41577 1.57577
0.442397 0.438152 1.5763
0.516461 0.419394 1.57613
0.600282 0.438156 1.57671
1.02594 0.43983 1.57686
0.227275 0.460754 1.5758
0.387988 0.463501 1.57737
0.65288 0.476384 1.57781
0.513698 0.488264 1.57751
0.595477 0.510718 1.58438
0.8563 0.485514 1.57692
0.914623 0.512526 1.57892
0.0150897 0.527991 1.5768
0.170124 0.525994 1.57351
0.228436 0.525038 1.57484
0.390378 0.544308 1.57783
1.07117 0.520402 1.57686
0.440235 0.568028 1.60437
0.509552 0.557379 1.57683
0.562079 0.580844 1.59094
0.643153 0.556049 1.57678
0.705525 0.566 1.57647
0.864878 0.574646 1.58384
0.484432 0.142474 1.62723
0.625628 0.127765 1.63552
0.831459 0.159357 1.60355
0.656705 0.172672 1.6087
0.277258 0.217685 1.60772
0.470373 0.227856 1.62814
0.577785 0.235302 1.61405
0.150252 0.249805 1.603
0.205965 0.229705 1.61058
0.519568 0.269112 1.6208
0.668769 0.261189 1.63187
0.730588 0.260586 1.61649
0.409954 0.264781 1.59253
0.283078 0.309819 1.62289
0.453845 0.444449 1.63309
0.517791 0.441788 1.63094
0.264802 0.467755 1.62134
0.324473 0.452188 1.62156
0.387323 0.446928 1.6356
0.354774 0.518361 1.62434
0.484666 0.513082 1.62629
0.290279 0.537891 1.60273
0.671272 0.545633 1.62781
0.76175 0.561037 1.59599
0.349993 0.193266 1.65374
0.756678 0.209214 1.6513
0.412167 0.237531 1.64477
0.224852 0.280569 1.64147
0.332358 0.266407 1.63116
0.405794 0.297884 1.64539
0.582131 0.28597 1.64369
0.474479 0.307149 1.64261
0.390527 0.362242 1.62934
0.452739 0.366233 1.63925
0.544246 0.363012 1.63279
0.170699 0.378039 1.65954
0.226907 0.390133 1.63378
0.300159 0.380828 1.63813
0.838751 0.36934 1.63224
0.134066 0.451091 1.63242
0.587747 0.452531 1.64105
0.874191 0.448071 1.64062
0.151494 0.513842 1.62663
0.772521 0.495415 1.64336
0.561121 0.536962 1.66094
0.178451 0.227244 1.65936
0.526672 0.252292 1.67524
0.342731 0.307799 1.67253
0.220669 0.353046 1.68128
0.499812 0.38651 1.66763
0.639867 0.385626 1.69929
0.167092 0.484975 1.67619
0.251639 0.458963 1.67904
0.47807 0.474896 1.67521
0.597359 0.44764 1.70043
0.40052 0.489578 1.67643
0.0997663 0.519616 1.65546
0.319068 0.542855 1.67517
0.534257 0.66253 1.67739
0.150682 0.290471 1.68323
0.116944 0.37164 1.68189
0.429922 0.3736 1.6945
0.463335 0.690287 1.7204
0.117057 0.232547 1.73066
0.294692 0.330306 1.75072
0.414233 0.306803 1.74955
0.367693 0.467546 1.72659
0.498075 0.538802 1.74895
0.33461 0.249494 1.77397
0.258494 0.28056 1.77188
0.46021 0.268154 1.75813
0.209546 0.484752 1.77244
0.313052 0.494322 1.75229
0.446997 0.50849 1.78127
0.387237 0.525686 1.7742
0.199862 0.243713 1.80099
0.169236 0.376906 1.81806
0.320208 0.403691 1.78918
0.491591 0.428372 1.82054
0.113325 0.448918 1.79418
0.375347 0.345395 1.8294
0.261069 0.440732 1.83217
0.417913 0.266516 1.89218
0.47999 0.300848 1.8696
0.103577 0.34242 1.87942
0.230407 0.340128 1.87501
0.380254 0.404128 1.88686
0.441781 0.458388 1.88217
0.131272 0.513706 1.87671
0.254698 0.262308 1.9088
0.121033 0.279919 1.90806
0.187546 0.294736 1.92066
0.287678 0.358468 1.90681
0.227036 0.399722 1.90229
0.448915 0.39365 1.90108
0.35506 0.52072 1.91761
0.365118 0.235733 1.95066
0.378219 0.307765 1.93896
0.360498 0.363939 1.96126
0.10427 0.421706 1.95786
0.200976 0.455034 1.9494
0.317689 0.454971 1.9692
0.491668 0.49724 1.96637
0.208645 0.523817 1.94089
0.29951 0.265646 1.99593
0.26261 0.317421 1.99574
0.121236 0.342722 1.99625
0.234882 0.370686 1.99188
0.124302 0.506318 2.00139
0.387139 0.48601 1.98986
0.136955 0.241756 2.01822
0.478513 0.241448 2.01352
0.200031 0.295208 2.01476
0.352336 0.290052 2.02294
0.43656 0.349215 2.01451
0.18594 0.400862 2.02438
0.288982 0.398489 2.01697
0.485376 0.385518 2.0347
0.41824 0.41741 2.01774
0.106832 0.451129 2.03779
0.250123 0.467148 2.01013
0.485548 0.450278 2.02436
0.302009 0.506095 2.02229
0.136852 0.289242 2.07089
0.416409 0.288456 2.07219
0.473517 0.305435 2.0477
0.195772 0.344168 2.06007
0.269256 0.359202 2.07803
0.218921 0.397847 2.07827
0.323211 0.457255 2.0559
0.428381 0.4467 2.07453
0.398493 0.508779 2.06612
0.180109 0.517525 2.05459
0.260718 0.244031 2.09899
0.211371 0.280829 2.08449
0.305852 0.287522 2.09499
0.499385 0.279499 2.10065
0.373442 0.329195 2.10217
0.102791 0.340368 2.10265
0.485374 0.358108 2.09098
0.349719 0.399621 2.08492
0.422187 0.378047 2.09422
0.169637 0.459874 2.09203
0.245914 0.511668 2.08371
0.466202 0.49757 2.08112
0.103225 0.518985 2.09486
0.174537 0.231131 2.12705
0.346739 0.243699 2.12339
0.411604 0.238101 2.11847
0.469838 0.243492 2.14354
0.108104 0.281799 2.12625
0.157239 0.333515 2.12883
0.189941 0.428545 2.14494
0.478405 0.411198 2.12488
0.267329 0.456169 2.14542
0.370548 0.454286 2.12699
0.43276 0.446836 2.1446
0.209404 0.487055 2.1318
0.341446 0.508108 2.14034
0.144959 0.253084 2.1799
0.283642 0.234209 2.16096
0.225054 0.287898 2.16782
0.353756 0.288308 2.1821
0.268169 0.352895 2.16098
0.478946 0.338932 2.16164
0.33513 0.393755 2.17779
0.121741 0.410905 2.15674
0.496878 0.474265 2.16193
0.122063 0.498448 2.15566
0.287754 0.512498 2.18063
0.429885 0.51089 2.15308
0.222298 0.231508 2.19943
0.419349 0.297497 2.19155
0.107864 0.308056 2.1937
0.32031 0.335135 2.2067
0.216531 0.381594 2.19634
0.434422 0.399982 2.18934
0.177321 0.473873 2.1923
0.3755 0.471214 2.18858
0.230707 0.52291 2.21918
0.482317 0.228242 2.22854
0.100828 0.246005 2.24484
0.386528 0.235346 2.22474
0.17305 0.29572 2.22163
0.280967 0.269166 2.22746
0.470734 0.315695 2.23592
0.383297 0.361785 2.24306
0.142292 0.405308 2.23272
0.289149 0.393948 2.22364
0.495324 0.379459 2.24665
0.238696 0.425254 2.25413
0.10269 0.478868 2.23007
0.265427 0.473439 2.22144
0.338206 0.47604 2.24542
0.405771 0.451899 2.24402
0.487332 0.44601 2.22319
0.477819 0.52568 2.241
0.410316 0.229607 2.28717
0.227735 0.245208 2.27361
0.334084 0.267131 2.25623
0.479511 0.263195 2.2825
0.283481 0.328862 2.27466
0.383935 0.304407 2.26118
0.104364 0.371175 2.26875
0.189473 0.369831 2.26465
0.433942 0.344323 2.27524
0.124882 0.444445 2.27537
0.292698 0.428673 2.28157
0.367427 0.412219 2.27779
0.387806 0.497135 2.28601
0.10683 0.52412 2.29027
0.307197 0.231054 2.30934
0.112238 0.243444 2.31138
0.338106 0.302046 2.31158
0.144627 0.329159 2.31743
0.488965 0.329122 2.30107
0.388723 0.350133 2.32272
0.26384 0.382845 2.31039
0.336562 0.447813 2.3253
0.436973 0.45447 2.2986
0.498994 0.449521 2.29904
0.197767 0.505506 2.30969
0.498691 0.522189 2.30147
0.498503 0.253983 2.34572
0.196779 0.286134 2.32798
0.432796 0.302258 2.35979
0.322732 0.35929 2.34017
0.179678 0.383211 2.33608
0.404531 0.416433 2.33679
0.180002 0.445959 2.33427
0.230608 0.478968 2.35273
0.133145 0.50156 2.3451
0.316599 0.507618 2.32974
0.4192 0.521596 2.33807
0.196226 0.26238 2.39567
0.299287 0.247375 2.36679
0.442411 0.236129 2.36895
0.126939 0.284236 2.37643
0.187834 0.32549 2.38014
0.256147 0.321804 2.39011
0.345572 0.308923 2.37327
0.476186 0.343657 2.36982
0.110703 0.374435 2.39211
0.499396 0.409304 2.36395
0.282511 0.427246 2.38226
0.180798 0.510604 2.38163
0.383426 0.485675 2.3755
0.271982 0.260644 2.4308
0.356376 0.254196 2.3977
0.321856 0.294278 2.42913
0.44222 0.295647 2.42067
0.346145 0.350757 2.42426
0.415762 0.389621 2.39827
0.475094 0.383761 2.41966
0.214879 0.429082 2.40971
0.107302 0.455042 2.39596
0.466199 0.451954 2.42462
0.236464 0.494005 2.42237
0.430217 0.500721 2.42499
0.49838 0.508374 2.40212
0.339305 0.526873 2.41754
0.103324 0.228818 2.45871
0.161403 0.258279 2.45827
0.363615 0.240431 2.46399
0.425069 0.242959 2.46512
0.499192 0.246026 2.46267
0.125428 0.344451 2.44441
0.189012 0.364304 2.45306
0.415188 0.353574 2.44906
0.282424 0.374546 2.43858
0.115455 0.44409 2.4545
0.323589 0.424937 2.4471
0.40415 0.414672 2.46454
0.104255 0.515661 2.43241
0.370433 0.49856 2.46148
0.257372 0.298287 2.49437
0.31493 0.348737 2.48385
0.484684 0.362834 2.49124
0.125062 0.39201 2.49589
0.158807 0.499296 2.47065
0.264146 0.523422 2.46795
0.220666 0.238837 2.50734
0.393674 0.233628 2.52132
0.17717 0.298235 2.5192
0.314466 0.284399 2.51272
0.492483 0.279077 2.5144
0.417494 0.317622 2.51147
0.107591 0.339963 2.52367
0.217234 0.387064 2.50563
0.385775 0.387923 2.52657
0.449749 0.403068 2.51884
0.139724 0.459766 2.52164
0.263093 0.452487 2.51205
0.417911 0.469013 2.50692
0.486571 0.452792 2.51556
0.220758 0.508511 2.51861
0.312076 0.491969 2.5176
0.490194 0.521396 2.52111
VERTICES 353 706
1 0
1 1
1 2
1 3
1 4
1 5
1 6
1 7
1 8
1 9
1 10
1 11
1 12
1 13
1 14
1 15
1 16
1 17
1 18
1 19
1 20
1 21
1 22
1 23
1 24
1 25
1 26
1 27
1 28
1 29
1 30
1 31
1 32
1 33
1 34
1 35
1 36
1 37
1 38
1 39
1 40
1 41
1 42
1 43
1 44
1 45
1 46
1 47
1 48
1 49
1 50
1 51
1 52
1 53
1 54
1 55
1 56
1 57
1 58
1 59
1 60
1 61
1 62
1 63
1 64
1 65
1 66
1 67
1 68
1 69
1 70
1 71
1 72
1 73
1 74
1 75
1 76
1 77
1 78
1 79
1 80
1 81
1 82
1 83
1 84
1 85
1 86
1 87
1 88
1 89
1 90
1 91
1 92
1 93
1 94
1 95
1 96
1 97
1 98
1 99
1 100
1 101
1 102
1 103
1 104
1 105
1 106
1 107
1 108
1 109
1 110
1 111
1 112
1 113
1 114
1 115
1 116
1 117
1 118
1 119
1 120
1 121
1 122
1 123
1 124
1 125
1 126
1 127
1 128
1 129
1 130
1 131
1 132
1 133
1 134
1 135
1 136
1 137
1 138
1 139
1 140
1 141
1 142
1 143
1 144
1 145
1 146
1 147
1 148
1 149
1 150
1 151
1 152
1 153
1 154
1 155
1 156
1 157
1 158
1 159
1 160
1 161
1 162
1 163
1 164
1 165
1 166
1 167
1 168
1 169
1 170
1 171
1 172
1 173
1 174
1 175
1 176
1 177
1 178
1 179
1 180
1 181
1 182
1 183
1 184
1 185
1 186
1 187
1 188
1 189
1 190
1 191
1 192
1 193
1 194
1 195
1 196
1 197
1 198
1 199
1 200
1 201
1 202
1 203
1 204
1 205
1 206
1 207
1 208
1 209
1 210
1 211
1 212
1 213
1 214
1 215
1 216
1 217
1 218
1 219
1 220
1 221
1 222
1 223
1 224
1 225
1 226
1 227
1 228
1 229
1 230
1 231
1 232
1 233
1 234
1 235
1 236
1 237
1 238
1 239
1 240
1 241
1 242
1 243
1 244
1 245
1 246
1 247
1 248
1 249
1 250
1 251
1 252
1 253
1 254
1 255
1 256
1 257
1 258
1 259
1 260
1 261
1 262
1 263
1 264
1 265
1 266
1 267
1 268
1 269
1 270
1 271
1 272
1 273
1 274
1 275
1 276
1 277
1 278
1 279
1 280
1 281
1 282
1 283
1 284
1 285
1 286
1 287
1 288
1 289
1 290
1 291
1 292
1 293
1 294
1 295
1 296
1 297
1 298
1 299
1 300
1 301
1 302
1 303
1 304
1 305
1 306
1 307
1 308
1 309
1 310
1 311
1 312
1 313
1 314
1 315
1 316
1 317
1 318
1 319
1 320
1 321
1 322
1 323
1 324
1 325
1 326
1 327
1 328
1 329
1 330
1 331
1 332
1 333
1 334
1 335
1 336
1 337
1 338
1 339
1 340
1 341
1 342
1 343
1 344
1 345
1 346
1 347
1 348
1 349
1 350
1 351
1 352
POINT_DATA 353
VECTORS i float
0.0 0.0 0.0
0.0 0.0 0.0
0.0 0.0 0.0
0.0 0.0 0.0
0.0 0.0 0.0
0.0 0.0 0.0
0.0 0.0 0.0
0.0 0.0 0.0
0.0 0.0 0.0
0.0 0.0 0.0
0.0 0.0 0.0
0.0 0.0 0.0
0.0 0.0 0.0
0.0 0.0 0.0
0.0 0.0 0.0
0.0 0.0 0.0
0.0 0.0 0.0
0.0 0.0 0.0
0.0 0.0 0.0
0.0 0.0 0.0
0.0 0.0 0.0
0.0 0.0 0.0
0.0 0.0 0.0
0.0 0.0 0.0
0.0 0.0 0.0
0.0 0.0 0.0
0.0 0.0 0.0
0.0 0.0 0.0
0.0 0.0 0.0
0.0 0.0 0.0
0.0 0.0 0.0
0.0 0.0 0.0
0.0 0.0 0.0
0.0 0.0 0.0
0.0 0.0 0.0
0.0 0.0 0.0
0.0 0.0 0.0
0.0 0.0 0.0
0.0 0.0 0.0
0.0 0.0 0.0
0.0 0.0 0.0
0.0 0.0 0.0
0.0 0.0 0.0
0.0 0.0 0.0
0.0 0.0 0.0
0.0 0.0 0.0
0.0 0.0 0.0
0.0 0.0 0.0
0.0 0.0 0.0
0.0 0.0 0.0
0.0 0.0 0.0
0.0 0.0 0.0
0.0 0.0 0.0
0.0 0.0 0.0
0.0 0.0 0.0
0.0 0.0 0.0
0.0 0.0 0.0
0.0 0.0 0.0
0.0 0.0 0.0
0.0 0.0 0.0
0.0 0.0 0.0
0.0 0.0 0.0
0.0 0.0 0.0
0.0 0.0 0.0
0.0 0.0 0.0
0.0 0.0 0.0
0.0 0.0 0.0
0.0 0.0 0.0
0.0 0.0 0.0
0.0 0.0 0.0
0.0 0.0 0.0
0.0 0.0 0.0
0.0 0.0 0.0
0.0 0.0 0.0
0.0 0.0 0.0
0.0 0.0 0.0
0.0 0.0 0.0
0.0 0.0 0.0
0.0 0.0 0.0
0.0 0.0 0.0
0.0 0.0 0.0
0.0 0.0 0.0
0.0 0.0 0.0
0.0 0.0 0.0
0.0 0.0 0.0
0.0 0.0 0.0
0.0 0.0 0.0
0.0 0.0 0.0
0.0 0.0 0.0
0.0 0.0 0.0
0.0 0.0 0.0
0.0 0.0 0.0
0.0 0.0 0.0
0.0 0.0 0.0
0.0 0.0 0.0
0.0 0.0 0.0
0.0 0.0 0.0
0.0 0.0 0.0
0.0 0.0 0.0
0.0 0.0 0.0
0.0 0.0 0.0
0.0 0.0 0.0
0.0 0.0 0.0
0.0 0.0 0.0
0.0 0.0 0.0
0.0 0.0 0.0
0.0 0.0 0.0
0.0 0.0 0.0
0.0 0.0 0.0
0.0 0.0 0.0
0.0 0.0 0.0
0.0 0.0 0.0
0.0 0.0 0.0
0.0 0.0 0.0
0.0 0.0 0.0
0.0 0.0 0.0
0.0 0.0 0.0
0.0 0.0 0.0
0.0 0.0 0.0
0.0 0.0 0.0
0.0 0.0 0.0
0.0 0.0 0.0
0.0 0.0 0.0
0.0 0.0 0.0
0.0 0.0 0.0
0.0 0.0 0.0
0.0 0.0 0.0
0.0 0.0 0.0
0.0 0.0 0.0
0.0 0.0 0.0
0.0 0.0 0.0
0.0 0.0 0.0
0.0 0.0 0.0
0.0 0.0 0.0
0.0 0.0 0.0
0.0 0.0 0.0
0.0 0.0 0.0
0.0 0.0 0.0
0.0 0.0 0.0
0.0 0.0 0.0
0.0 0.0 0.0
0.0 0.0 0.0
0.0 0.0 0.0
0.0 0.0 0.0
0.0 0.0 0.0
0.0 0.0 0.0
0.0 0.0 0.0
0.0 0.0 0.0
0.0 0.0 0.0
0.0 0.0 0.0
0.0 0.0 0.0
0.0 0.0 0.0
0.0 0.0 0.0
0.0 0.0 0.0
0.0 0.0 0.0
0.0 0.0 0.0
0.0 0.0 0.0
0.0 0.0 0.0
0.0 0.0 0.0
0.0 0.0 0.0
0.0 0.0 0.0
0.0 0.0 0.0
0.0 0.0 0.0
0.0 0.0 0.0
0.0 0.0 0.0
0.0 0.0 0.0
0.0 0.0 0.0
0.0 0.0 0.0
0.0 0.0 0.0
0.0 0.0 0.0
0.0 0.0 0.0
0.0 0.0 0.0
0.0 0.0 0.0
0.0 0.0 0.0
0.0 0.0 0.0
0.0 0.0 0.0
0.0 0.0 0.0
0.0 0.0 0.0
0.0 0.0 0.0
0.0 0.0 0.0
0.0 0.0 0.0
0.0 0.0 0.0
0.0 0.0 0.0
0.0 0.0 0.0
0.0 0.0 0.0
0.0 0.0 0.0
0.0 0.0 0.0
0.0 0.0 0.0
0.0 0.0 0.0
0.0 0.0 0.0
0.0 0.0 0.0
0.0 0.0 0.0
0.0 0.0 0.0
0.0 0.0 0.0
0.0 0.0 0.0
0.0 0.0 0.0
0.0 0.0 0.0
0.0 0.0 0.0
0.0 0.0 0.0
0.0 0.0 0.0
0.0 0.0 0.0
0.0 0.0 0.0
0.0 0.0 0.0
0.0 0.0 0.0
0.0 0.0 0.0
0.0 0.0 0.0
0.0 0.0 0.0
0.0 0.0 0.0
0.0 0.0 0.0
0.0 0.0 0.0
0.0 0.0 0.0
0.0 0.0 0.0
0.0 0.0 0.0
0.0 0.0 0.0
0.0 0.0 0.0
0.0 0.0 0.0
0.0 0.0 0.0
0.0 0.0 0.0
0.0 0.0 0.0
0.0 0.0 0.0
0.0 0.0 0.0
0.0 0.0 0.0
0.0 0.0 0.0
0.0 0.0 0.0
0.0 0.0 0.0
0.0 0.0 0.0
0.0 0.0 0.0
0.0 0.0 0.0
0.0 0.0 0.0
0.0 0.0 0.0
0.0 0.0 0.0
0.0 0.0 0.0
0.0 0.0 0.0
0.0 0.0 0.0
0.0 0.0 0.0
0.0 0.0 0.0
0.0 0.0 0.0
0.0 0.0 0.0
0.0 0.0 0.0
0.0 0.0 0.0
0.0 0.0 0.0
0.0 0.0 0.0
0.0 0.0 0.0
0.0 0.0 0.0
0.0 0.0 0.0
0.0 0.0 0.0
0.0 0.0 0.0
0.0 0.0 0.0
0.0 0.0 0.0
0.0 0.0 0.0
0.0 0.0 0.0
0.0 0.0 0.0
0.0 0.0 0.0
0.0 0.0 0.0
0.0 0.0 0.0
0.0 0.0 0.0
0.0 0.0 0.0
0.0 0.0 0.0
0.0 0.0 0.0
0.0 0.0 0.0
0.0 0.0 0.0
0.0 0.0 0.0
0.0 0.0 0.0
0.0 0.0 0.0
0.0 0.0 0.0
0.0 0.0 0.0
0.0 0.0 0.0
0.0 0.0 0.0
0.0 0.0 0.0
0.0 0.0 0.0
0.0 0.0 0.0
0.0 0.0 0.0
0.0 0.0 0.0
0.0 0.0 0.0
0.0 0.0 0.0
0.0 0.0 0.0
0.0 0.0 0.0
0.0 0.0 0.0
0.0 0.0 0.0
0.0 0.0 0.0
0.0 0.0 0.0
0.0 0.0 0.0
0.0 0.0 0.0
0.0 0.0 0.0
0.0 0.0 0.0
0.0 0.0 0.0
0.0 0.0 0.0
0.0 0.0 0.0
0.0 0.0 0.0
0.0 0.0 0.0
0.0 0.0 0.0
0.0 0.0 0.0
0.0 0.0 0.0
0.0 0.0 0.0
0.0 0.0 0.0
0.0 0.0 0.0
0.0 0.0 0.0
0.0 0.0 0.0
0.0 0.0 0.0
0.0 0.0 0.0
0.0 0.0 0.0
0.0 0.0 0.0
0.0 0.0 0.0
0.0 0.0 0.0
0.0 0.0 0.0
0.0 0.0 0.0
0.0 0.0 0.0
0.0 0.0 0.0
0.0 0.0 0.0
0.0 0.0 0.0
0.0 0.0 0.0
0.0 0.0 0.0
0.0 0.0 0.0
0.0 0.0 0.0
0.0 0.0 0.0
0.0 0.0 0.0
0.0 0.0 0.0
0.0 0.0 0.0
0.0 0.0 0.0
0.0 0.0 0.0
0.0 0.0 0.0
0.0 0.0 0.0
0.0 0.0 0.0
0.0 0.0 0.0
0.0 0.0 0.0
0.0 0.0 0.0
0.0 0.0 0.0
0.0 0.0 0.0
0.0 0.0 0.0
0.0 0.0 0.0
0.0 0.0 0.0
0.0 0.0 0.0
0.0 0.0 0.0
0.0 0.0 0.0
0.0 0.0 0.0
0.0 0.0 0.0
0.0 0.0 0.0
0.0 0.0 0.0
0.0 0.0 0.0
0.0 0.0 0.0
0.0 0.0 0.0
0.0 0.0 0.0
0.0 0.0 0.0
0.0 0.0 0.0
0.0 0.0 0.0
0.0 0.0 0.0
0.0 0.0 0.0
0.0 0.0 0.0
0.0 0.0 0.0
0.0 0.0 0.0
0.0 0.0 0.0
0.0 0.0 0.0
0.0 0.0 0.0
VECTORS f float
25.455 15.1754 -3.32683
1.43035e-05 1.00649 -0.972969
0.0 0.0 -2.77371
-11.2179 -0.0898216 -8.06538
10.5489 -0.922374 1.90198
-0.00593674 0.000369543 -0.18644
-0.00706346 -0.00101144 0.31957
-0.00300057 -0.000524405 -0.0411425
110.387 9.30798 98.746
11.6245 -0.875218 9.63307
0.668995 1.0122 -2.15774
0.0 0.0 -2.77371
0.151991 -0.0228718 -2.46631
0.0 0.0 -2.77371
0.0 0.0 -2.77371
0.0 0.0 -2.77371
-2.3311 0.823143 -5.75625
0.0 0.0 -2.77371
-28.7904 -0.727258 184.151
14.397 -0.474893 -2.44032
-25.2953 -10.5547 -9.00715
-0.000148256 -9.04424e-06 -0.00459742
0.0 0.0 -2.77371
0.0 0.0 -2.77371
-10.9948 22.544 -14.113
5.68659 9.05009 40.1578
-0.00160763 0.000161374 0.0286953
0.0 0.0 -2.77371
0.0 0.0 -2.77371
-0.0456771 0.00302385 -1.47476
0.0 0.0 -2.77371
0.0 0.0 -2.77371
2.9686 5.6045 8.7993
-12.7174 -12.7757 -32.786
-0.952914 -3.15286 -4.54278
-0.0771158 0.000213838 1.55834
5.74423e-06 -5.57069e-07 -9.5071e-05
-2.08862 0.0757272 14.1702
0.0 0.0 -2.77371
0.0 0.0 -2.77371
0.0 0.0 -2.77371
0.0 0.0 -2.77371
1.07509 0.420209 -0.465118
0.0 0.0 -2.77371
1.86471 0.0803746 0.959165
98.8686 -3.14342 73.3027
70.9882 -3.33608 149.499
0.0 0.0 -2.77371
3.26601e-07 -1.36468e-08 -1.21657e-05
0.0 0.0 -2.77371
4.29953 0.47035 7.6623
1.50812 0.682661 -1.36774
6.24036 0.939863 -18.5518
0.525195 0.567227 2.43802
0.0176143 -1.30262 1.1339
0.0 0.0 -2.77371
0.0 0.0 -2.77371
-0.0204089 1.16642 -1.10875
0.0 0.0 -2.77371
0.0 0.0 -2.77371
0.0 0.0 -2.77371
-9.66801 -19.6899 -7.58732
0.0358143 -0.00269719 -2.7829
44.8588 40.2933 27.7721
25.2961 -5.11011 22.8283
0.0 0.0 -2.77371
0.0 0.0 -2.77371
3.30074 11.5123 10.6395
0.0 0.0 -2.77371
1.33662 -13.4504 -8.14336
0.905106 3.69021 7.99333
2.61961 2.44005 8.246
-1.07612 0.743967 -1.09765
0.0 0.0 -2.77371
0.0 0.0 -2.77371
0.0 0.0 -2.77371
0.0 0.0 -2.77371
1.00402 -2.75759 22.3003
0.978621 -0.200823 -1.77194
0.0 0.0 -2.77371
0.0 0.0 -2.77371
3.49447 -2.27349 3.4783
0.0 0.0 -2.77371
0.827421 -3.04357 -9.60678
0.0 0.0 -2.77371
9.66801 19.6899 2.03989
0.0 0.0 -2.77371
0.0 0.0 -2.77371
-0.582915 -0.23769 -2.80044
10.6996 11.1696 29.6151
19.4731 -7.08859 0.886978
0.0 0.0 -2.77371
0.0 0.0 -2.77371
0.0 0.0 -2.77371
0.0 0.0 -2.77371
0.0 0.0 -2.77371
0.0 0.0 -2.77371
-30.6566 3.73826 50.2912
0.0 0.0 -2.77371
0.0 0.0 -2.77371
-54.1567 34.5378 83.3934
9.59517 -17.7502 49.3087
-0.827421 3.04357 4.05936
-6.36768 4.8614 -7.80583
0.582915 0.23769 -2.74699
0.0 0.0 -2.77371
3.59316 -11.1829 4.27697
0.381981 0.156988 -0.717163
8.93059 22.0003 25.8046
0.0 0.0 -2.77371
0.0 0.0 -2.77371
0.506508 -0.140302 -2.80918
0.0 0.0 -2.77371
0.0 0.0 -2.77371
0.0 0.0 -2.77371
-13.1054 2.22719 -1.40229
0.0 0.0 -2.77371
0.0 0.0 -2.77371
0.0 0.0 -2.77371
0.0 0.0 -2.77371
0.0 0.0 -2.77371
0.0 0.0 -2.77371
0.0 0.0 -2.77371
0.0 0.0 -2.77371
0.0 0.0 -2.77371
0.0 0.0 -2.77371
0.0 0.0 -2.77371
0.0 0.0 -2.77371
0.0 0.0 -2.77371
0.0 0.0 -2.77371
0.0 0.0 -2.77371
0.0 0.0 -2.77371
0.0 0.0 -2.77371
0.0 0.0 -2.77371
0.0 0.0 -2.77371
0.0 0.0 -2.77371
0.0 0.0 -2.77371
0.0 0.0 -2.77371
0.0 0.0 -2.77371
0.0 0.0 -2.77371
0.0 0.0 -2.77371
0.0 0.0 -2.77371
0.0 0.0 -2.77371
0.0 0.0 -2.77371
0.0 0.0 -2.77371
0.0 0.0 -2.77371
0.0 0.0 -2.77371
0.0 0.0 -2.77371
0.0 0.0 -2.77371
0.0 0.0 -2.77371
0.0 0.0 -2.77371
0.0 0.0 -2.77371
0.0 0.0 -2.77371
0.0 0.0 -2.77371
0.0 0.0 -2.77371
0.0 0.0 -2.77371
0.0 0.0 -2.77371
0.0 0.0 -2.77371
0.0 0.0 -2.77371
0.0 0.0 -2.77371
0.0 0.0 -2.77371
0.0 0.0 -2.77371
0.0 0.0 -2.77371
0.0 0.0 -2.77371
0.0 0.0 -2.77371
0.0 0.0 -2.77371
0.0 0.0 -2.77371
0.0 0.0 -2.77371
0.0 0.0 -2.77371
0.0 0.0 -2.77371
0.0 0.0 -2.77371
0.0 0.0 -2.77371
0.0 0.0 -2.77371
0.0 0.0 -2.77371
0.0 0.0 -2.77371
0.0 0.0 -2.77371
0.0 0.0 -2.77371
0.0 0.0 -2.77371
0.0 0.0 0.0
0.0 0.0 0.0
0.0 0.0 0.0
0.0 0.0 0.0
0.0 0.0 0.0
0.0 0.0 0.0
0.0 0.0 0.0
0.0 0.0 0.0
0.0 0.0 0.0
0.0 0.0 0.0
0.0 0.0 0.0
0.0 0.0 0.0
0.0 0.0 0.0
0.0 0.0 0.0
0.0 0.0 0.0
0.0 0.0 0.0
0.0 0.0 0.0
0.0 0.0 0.0
0.0 0.0 0.0
0.0 0.0 0.0
0.0 0.0 0.0
0.0 0.0 0.0
0.0 0.0 0.0
0.0 0.0 0.0
0.0 0.0 0.0
0.0 0.0 0.0
0.0 0.0 0.0
0.0 0.0 0.0
0.0 0.0 0.0
0.0 0.0 0.0
0.0 0.0 0.0
0.0 0.0 0.0
0.0 0.0 0.0
0.0 0.0 0.0
0.0 0.0 0.0
0.0 0.0 0.0
0.0 0.0 0.0
0.0 0.0 0.0
0.0 0.0 0.0
0.0 0.0 0.0
0.0 0.0 0.0
0.0 0.0 0.0
0.0 0.0 0.0
0.0 0.0 0.0
0.0 0.0 0.0
0.0 0.0 0.0
0.0 0.0 0.0
0.0 0.0 0.0
0.0 0.0 0.0
0.0 0.0 0.0
0.0 0.0 0.0
0.0 0.0 0.0
0.0 0.0 0.0
0.0 0.0 0.0
0.0 0.0 0.0
0.0 0.0 0.0
0.0 0.0 0.0
0.0 0.0 0.0
0.0 0.0 0.0
0.0 0.0 0.0
0.0 0.0 0.0
0.0 0.0 0.0
0.0 0.0 0.0
0.0 0.0 0.0
0.0 0.0 0.0
0.0 0.0 0.0
0.0 0.0 0.0
0.0 0.0 0.0
0.0 0.0 0.0
0.0 0.0 0.0
0.0 0.0 0.0
0.0 0.0 0.0
0.0 0.0 0.0
0.0 0.0 0.0
0.0 0.0 0.0
0.0 0.0 0.0
0.0 0.0 0.0
0.0 0.0 0.0
0.0 0.0 0.0
0.0 0.0 0.0
0.0 0.0 0.0
0.0 0.0 0.0
0.0 0.0 0.0
0.0 0.0 0.0
0.0 0.0 0.0
0.0 0.0 0.0
0.0 0.0 0.0
0.0 0.0 0.0
0.0 0.0 0.0
0.0 0.0 0.0
0.0 0.0 0.0
0.0 0.0 0.0
0.0 0.0 0.0
0.0 0.0 0.0
0.0 0.0 0.0
0.0 0.0 0.0
0.0 0.0 0.0
0.0 0.0 0.0
0.0 0.0 0.0
0.0 0.0 0.0
0.0 0.0 0.0
0.0 0.0 0.0
0.0 0.0 0.0
0.0 0.0 0.0
0.0 0.0 0.0
0.0 0.0 0.0
0.0 0.0 0.0
0.0 0.0 0.0
0.0 0.0 0.0
0.0 0.0 0.0
0.0 0.0 0.0
0.0 0.0 0.0
0.0 0.0 0.0
0.0 0.0 0.0
0.0 0.0 0.0
0.0 0.0 0.0
0.0 0.0 0.0
0.0 0.0 0.0
0.0 0.0 0.0
0.0 0.0 0.0
0.0 0.0 0.0
0.0 0.0 0.0
0.0 0.0 0.0
0.0 0.0 0.0
0.0 0.0 0.0
0.0 0.0 0.0
0.0 0.0 0.0
0.0 0.0 0.0
0.0 0.0 0.0
0.0 0.0 0.0
0.0 0.0 0.0
0.0 0.0 0.0
0.0 0.0 0.0
0.0 0.0 0.0
0.0 0.0 0.0
0.0 0.0 0.0
0.0 0.0 0.0
0.0 0.0 0.0
0.0 0.0 0.0
0.0 0.0 0.0
0.0 0.0 0.0
0.0 0.0 0.0
0.0 0.0 0.0
0.0 0.0 0.0
0.0 0.0 0.0
0.0 0.0 0.0
0.0 0.0 0.0
0.0 0.0 0.0
0.0 0.0 0.0
0.0 0.0 0.0
0.0 0.0 0.0
0.0 0.0 0.0
0.0 0.0 0.0
0.0 0.0 0.0
0.0 0.0 0.0
0.0 0.0 0.0
0.0 0.0 0.0
0.0 0.0 0.0
0.0 0.0 0.0
0.0 0.0 0.0
0.0 0.0 0.0
0.0 0.0 0.0
0.0 0.0 0.0
0.0 0.0 0.0
0.0 0.0 0.0
0.0 0.0 0.0
0.0 0.0 0.0
0.0 0.0 0.0
0.0 0.0 0.0
0.0 0.0 0.0
0.0 0.0 0.0
0.0 0.0 0.0
0.0 0.0 0.0
0.0 0.0 0.0
0.0 0.0 0.0
VECTORS omega float
-15.1179 -91.3553 24.6667
-3.3444 -114.521 18.3316
13.8815 -75.9101 26.6028
7.02544 -57.4596 4.34162
0.731583 -65.8014 13.5068
-0.29133 -66.5851 32.0424
8.8083 -61.4957 5.0065
1.87695 -57.1264 -1.49957
10.8734 -43.9745 -1.80667
-4.03134 -65.3333 17.1047
-0.511899 -73.8092 1.63526
0.719856 -48.5527 -17.508
9.31623 -54.8477 5.29141
14.0918 -51.1222 10.9303
22.9007 -127.374 12.8159
1.24704 -105.252 -11.0885
3.36791 -71.667 -1.69564
4.82443 -75.0217 -15.6627
-2.4882 -139.725 -2.94639
26.4266 56.6349 -18.2362
-3.00267 67.1668 -13.8593
2.91796 -47.8395 -12.8858
-12.6874 -86.7491 12.4272
2.20931 -69.0797 1.21855
0.436584 -68.9992 0.657927
6.82162 -66.1065 -6.87672
-7.05118 -70.2329 16.1048
-0.0285747 -78.7163 9.99287
1.95403 -71.8872 -1.0062
-4.40379 -65.8913 -3.69294
-7.81984 -93.5988 1.83278
10.4584 -85.1972 1.49277
-11.6572 -54.7822 18.0653
4.82718 -76.8044 -7.28119
-1.45376 -59.6106 -10.3839
-2.0098 -70.242 -3.59891
-4.91954 -50.7279 2.52464
0.959675 -90.9952 -9.41608
-3.13304 -72.0219 15.4763
5.964 -57.7498 -9.82024
-14.5427 -62.0915 -4.80583
-5.77612 -69.1465 7.07029
-15.033 -34.0621 1.27705
-16.9027 -38.5007 1.23093
-4.63144 -103.558 -2.54792
-9.42802 -82.6146 2.2938
-0.841132 50.3187 -13.4974
-4.21445 -70.7236 9.97026
-1.81727 -43.4917 1.90422
-18.5831 24.7165 2.87002
-21.0906 -10.1183 -7.31254
-5.92167 -71.9428 -15.85
-11.634 -61.4954 5.86844
6.57289 -79.8392 -20.9646
-8.4884 -63.5512 -18.8516
25.9695 -61.421 43.4653
9.03606 -33.5197 53.9316
-5.85917 -77.8107 17.5788
12.4761 59.7919 -38.8502
-3.54794 13.6044 10.2655
-22.6082 67.5185 -9.21001
-35.2113 37.0359 -6.26634
13.7301 -77.8801 -9.09672
4.36571 32.083 -29.3196
-9.69576 50.2108 -17.4777
-3.17115 44.4381 -17.4183
-9.91324 -2.80651 4.2822
-27.1953 25.1037 -0.386228
5.77411 26.8265 0.681633
-4.65548 41.1157 0.122693
-7.17202 7.55806 -17.056
-49.0743 38.325 4.96563
-10.4382 -9.18214 -17.8494
11.1869 24.4672 28.7152
-12.5433 25.1937 -27.755
8.06478 -1.24958 -11.9916
7.31265 -7.30862 24.765
5.05978 -64.1484 -1.79142
-10.9538 92.8438 24.4328
14.8189 86.3542 -9.00983
12.6524 -7.70905 7.89108
19.6082 -31.0384 -17.9816
-13.3133 -37.6179 -15.4349
-4.99471 20.0703 19.8005
-7.1791 -13.001 0.127012
18.6411 51.4829 -0.924063
8.08546 -61.031 -9.40259
35.715 -12.6396 2.58646
-9.30283 52.7432 -14.7869
-5.82122 17.0793 5.45405
56.2614 -7.73547 -7.51193
-34.8051 69.3276 -4.97865
-70.6444 6.58851 -9.35924
-9.19163 -33.8691 1.4826
-13.4251 40.9848 -3.14375
19.2764 17.9606 11.7131
5.11574 -46.1421 -14.4888
10.8194 9.38934 10.0812
22.5055 -34.5335 1.0618
-2.30868 41.6076 -2.10946
4.00221 -64.7879 -0.566289
23.5425 -48.0087 -18.9758
-21.7739 -24.9274 7.27573
-3.80286 14.6567 16.3105
-34.0818 -28.7601 14.7346
2.53187 -39.5822 20.3081
2.03358 9.13934 7.53582
33.2326 -42.522 26.7584
-16.3699 -38.189 35.3153
-3.63339 -32.3971 -2.33411
1.3734 59.3653 5.97652
-7.11485 -42.5642 -0.674326
8.63669 -47.7736 16.8865
-24.3519 -8.36701 -33.883
0.0 0.0 0.0
-3.67683 -25.3836 -13.0524
0.0 0.0 0.0
-37.5588 -64.8153 28.7954
0.0 0.0 0.0
0.0 0.0 0.0
0.0 0.0 0.0
0.0 0.0 0.0
-10.514 -23.1079 9.30669
0.0 0.0 0.0
0.0 0.0 0.0
0.0 0.0 0.0
0.0 0.0 0.0
0.0 0.0 0.0
0.0 0.0 0.0
0.0 0.0 0.0
0.0 0.0 0.0
0.0 0.0 0.0
0.0 0.0 0.0
0.0 0.0 0.0
0.0 0.0 0.0
0.0 0.0 0.0
0.0 0.0 0.0
0.0 0.0 0.0
0.0 0.0 0.0
0.0 0.0 0.0
0.0 0.0 0.0
0.0 0.0 0.0
0.0 0.0 0.0
0.0 0.0 0.0
0.0 0.0 0.0
0.0 0.0 0.0
0.0 0.0 0.0
0.0 0.0 0.0
0.0 0.0 0.0
0.0 0.0 0.0
0.0 0.0 0.0
0.0 0.0 0.0
0.0 0.0 0.0
0.0 0.0 0.0
0.0 0.0 0.0
0.0 0.0 0.0
0.0 0.0 0.0
0.0 0.0 0.0
0.0 0.0 0.0
0.0 0.0 0.0
0.0 0.0 0.0
0.0 0.0 0.0
0.0 0.0 0.0
0.0 0.0 0.0
0.0 0.0 0.0
0.0 0.0 0.0
0.0 0.0 0.0
0.0 0.0 0.0
0.0 0.0 0.0
0.0 0.0 0.0
0.0 0.0 0.0
0.0 0.0 0.0
0.0 0.0 0.0
0.0 0.0 0.0
0.0 0.0 0.0
0.0 0.0 0.0
0.0 0.0 0.0
0.0 0.0 0.0
0.0 0.0 0.0
0.0 0.0 0.0
0.0 0.0 0.0
0.0 0.0 0.0
0.0 0.0 0.0
0.0 0.0 0.0
0.0 0.0 0.0
0.0 0.0 0.0
0.0 0.0 0.0
0.0 0.0 0.0
0.0 0.0 0.0
0.0 0.0 0.0
0.0 0.0 0.0
0.0 0.0 0.0
0.0 0.0 0.0
0.0 0.0 0.0
0.0 0.0 0.0
0.0 0.0 0.0
0.0 0.0 0.0
0.0 0.0 0.0
0.0 0.0 0.0
0.0 0.0 0.0
0.0 0.0 0.0
0.0 0.0 0.0
0.0 0.0 0.0
0.0 0.0 0.0
0.0 0.0 0.0
0.0 0.0 0.0
0.0 0.0 0.0
0.0 0.0 0.0
0.0 0.0 0.0
0.0 0.0 0.0
0.0 0.0 0.0
0.0 0.0 0.0
0.0 0.0 0.0
0.0 0.0 0.0
0.0 0.0 0.0
0.0 0.0 0.0
0.0 0.0 0.0
0.0 0.0 0.0
0.0 0.0 0.0
0.0 0.0 0.0
0.0 0.0 0.0
0.0 0.0 0.0
0.0 0.0 0.0
0.0 0.0 0.0
0.0 0.0 0.0
0.0 0.0 0.0
0.0 0.0 0.0
0.0 0.0 0.0
0.0 0.0 0.0
0.0 0.0 0.0
0.0 0.0 0.0
0.0 0.0 0.0
0.0 0.0 0.0
0.0 0.0 0.0
0.0 0.0 0.0
0.0 0.0 0.0
0.0 0.0 0.0
0.0 0.0 0.0
0.0 0.0 0.0
0.0 0.0 0.0
0.0 0.0 0.0
0.0 0.0 0.0
0.0 0.0 0.0
0.0 0.0 0.0
0.0 0.0 0.0
0.0 0.0 0.0
0.0 0.0 0.0
0.0 0.0 0.0
0.0 0.0 0.0
0.0 0.0 0.0
0.0 0.0 0.0
0.0 0.0 0.0
0.0 0.0 0.0
0.0 0.0 0.0
0.0 0.0 0.0
0.0 0.0 0.0
0.0 0.0 0.0
0.0 0.0 0.0
0.0 0.0 0.0
0.0 0.0 0.0
0.0 0.0 0.0
0.0 0.0 0.0
0.0 0.0 0.0
0.0 0.0 0.0
0.0 0.0 0.0
0.0 0.0 0.0
0.0 0.0 0.0
0.0 0.0 0.0
0.0 0.0 0.0
0.0 0.0 0.0
0.0 0.0 0.0
0.0 0.0 0.0
0.0 0.0 0.0
0.0 0.0 0.0
0.0 0.0 0.0
0.0 0.0 0.0
0.0 0.0 0.0
0.0 0.0 0.0
0.0 0.0 0.0
0.0 0.0 0.0
0.0 0.0 0.0
0.0 0.0 0.0
0.0 0.0 0.0
0.0 0.0 0.0
0.0 0.0 0.0
0.0 0.0 0.0
0.0 0.0 0.0
0.0 0.0 0.0
0.0 0.0 0.0
0.0 0.0 0.0
0.0 0.0 0.0
0.0 0.0 0.0
0.0 0.0 0.0
0.0 0.0 0.0
0.0 0.0 0.0
0.0 0.0 0.0
0.0 0.0 0.0
0.0 0.0 0.0
0.0 0.0 0.0
0.0 0.0 0.0
0.0 0.0 0.0
0.0 0.0 0.0
0.0 0.0 0.0
0.0 0.0 0.0
0.0 0.0 0.0
0.0 0.0 0.0
0.0 0.0 0.0
0.0 0.0 0.0
0.0 0.0 0.0
0.0 0.0 0.0
0.0 0.0 0.0
0.0 0.0 0.0
0.0 0.0 0.0
0.0 0.0 0.0
0.0 0.0 0.0
0.0 0.0 0.0
0.0 0.0 0.0
0.0 0.0 0.0
0.0 0.0 0.0
0.0 0.0 0.0
0.0 0.0 0.0
0.0 0.0 0.0
0.0 0.0 0.0
0.0 0.0 0.0
0.0 0.0 0.0
0.0 0.0 0.0
0.0 0.0 0.0
0.0 0.0 0.0
0.0 0.0 0.0
0.0 0.0 0.0
0.0 0.0 0.0
0.0 0.0 0.0
0.0 0.0 0.0
0.0 0.0 0.0
0.0 0.0 0.0
0.0 0.0 0.0
0.0 0.0 0.0
0.0 0.0 0.0
0.0 0.0 0.0
0.0 0.0 0.0
0.0 0.0 0.0
0.0 0.0 0.0
0.0 0.0 0.0
0.0 0.0 0.0
0.0 0.0 0.0
0.0 0.0 0.0
0.0 0.0 0.0
0.0 0.0 0.0
0.0 0.0 0.0
0.0 0.0 0.0
0.0 0.0 0.0
0.0 0.0 0.0
0.0 0.0 0.0
VECTORS v float
1.40695 0.0986319 -0.602791
1.19102 0.0706896 -0.0706558
1.83633 -0.149445 0.33589
1.95616 -0.19125 -0.0232656
1.89475 -0.103722 0.0508903
2.01021 0.00869985 0.00123102
2.16385 -0.262999 0.00196084
2.2932 -0.0560554 0.000672894
1.24416 -0.537711 -1.32299
2.12259 0.124384 -0.0606413
1.74369 -0.0274116 -0.0530581
2.554 -0.0238527 -0.0346118
2.2862 -0.266832 0.0581872
2.33798 -0.353833 0.0784442
0.291221 -0.680564 0.270043
0.856913 -0.0375429 0.085993
1.23742 0.0117824 0.0958252
1.75997 -0.138887 0.115762
1.2833 0.0899474 0.537191
0.824569 0.167474 -0.508839
1.45244 0.263033 0.0110724
2.57067 -0.0871819 4.34404e-05
1.18308 -0.173877 -0.25937
1.309 0.128057 0.047285
1.68253 0.209873 0.141081
2.12946 -0.345555 0.0251551
1.90177 0.210656 0.000384775
1.6411 -0.000196133 0.0466799
1.85037 -0.0583155 -0.0157044
2.02819 0.131785 0.0082551
1.21534 0.235418 0.113822
1.33491 -0.184927 0.32875
2.4307 0.181473 0.320574
1.75584 -0.0975675 0.381554
2.28426 -0.0237847 0.178923
1.90962 0.0598463 0.0283664
2.48437 0.146984 -1.86701e-06
1.46417 -0.132717 0.0608291
1.8574 0.0781487 0.334942
2.01259 -0.0559244 -0.230593
2.1445 0.438819 0.192512
1.92988 0.177654 -0.0012787
2.73081 0.351751 -0.0113954
2.65834 0.443252 -0.234067
0.198703 0.107591 0.00465332
1.8198 0.393125 0.207654
2.73415 0.144255 -0.911916
1.88308 0.123935 0.144776
2.70057 0.0542955 -1.30061e-07
1.68591 0.845877 0.468404
1.84054 0.260284 -0.182601
2.08917 0.0763615 0.242219
2.04568 0.376312 -0.104162
1.62508 -0.203289 0.0956445
2.2541 0.178825 0.11323
1.4513 -0.408815 0.609669
2.12426 -0.198122 0.261672
1.98522 0.123326 -0.112747
1.91819 -0.0557613 -0.102211
0.798448 -0.482146 -2.15482
1.34998 0.405807 0.449357
1.79777 0.157974 -0.0920024
-0.00706898 0.00956819 -0.195928
0.237137 0.0876184 -1.06261
1.71364 0.344609 0.343917
1.45885 -0.271908 0.387744
1.58011 -0.427706 -0.545738
1.47589 -0.486516 -1.72294
0.191111 -0.132525 0.0402753
0.776968 -0.0242645 0.835593
1.00326 0.227489 0.0960602
0.693039 0.74955 0.358748
0.893795 0.856988 -0.0186269
0.849093 -0.200966 0.727623
0.768115 0.560454 -0.0447791
0.626935 0.860659 -0.159667
0.610084 0.75276 -0.586346
1.76483 0.270827 -0.312409
1.92064 -0.0119059 -0.587853
0.131297 -0.968728 0.381571
0.916048 -0.499191 0.456611
0.611049 -0.564289 -1.4229
-0.447658 -0.393891 -0.68587
0.291586 -0.702331 -0.997036
0.119125 -0.394096 -1.79522
1.51653 -0.138258 0.434329
0.737247 -0.0691606 -0.464192
0.0809751 0.255903 -1.16409
-0.241443 -0.31226 -0.153752
0.881706 -0.240672 -0.0577796
0.20488 -0.0233451 -1.63037
-0.0805255 -0.00978252 -0.544497
0.692933 0.491861 -0.917975
2.12519 -0.562156 -1.06411
-0.867614 -0.142665 -0.8646
1.57707 0.235329 -0.00670537
1.39052 0.105394 -0.711927
-0.0931755 0.258568 -0.611923
0.951202 0.257721 -0.0855856
1.00148 0.486965 0.464405
-0.266773 -0.0343773 -0.786248
1.66892 -0.174636 0.441683
-0.271909 0.0693775 -1.61752
0.777133 -0.628068 -2.19949