# vtk DataFile Version 2.0
Generated by lpp.py
ASCII
DATASET POLYDATA
POINTS 351 float
2.25648 0.425311 1.5523
2.21363 0.48454 1.55607
2.30221 0.480698 1.53643
2.25271 0.548482 1.55022
2.36753 0.537148 1.55315
0.251474 0.175018 1.58803
0.389512 0.193801 1.57815
0.49688 0.177679 1.58543
0.74555 0.198632 1.57725
0.799085 0.18367 1.6008
0.954054 0.184492 1.57835
1.1623 0.192398 1.57667
1.2275 0.192538 1.57686
1.44105 0.187873 1.57659
1.61365 0.187365 1.57686
1.67726 0.178199 1.58474
1.92756 0.187478 1.577
2.06163 0.196696 1.57476
2.14636 0.169675 1.58208
0.107592 0.220968 1.58376
0.224524 0.226443 1.57407
0.329721 0.203657 1.57699
0.654358 0.204993 1.57947
1.01254 0.197041 1.57691
1.394 0.226526 1.57687
1.48334 0.230523 1.57685
1.71421 0.229988 1.57686
2.11646 0.224432 1.56945
0.176454 0.261403 1.57548
0.590211 0.240512 1.57754
0.719607 0.252211 1.57638
0.803722 0.241809 1.57663
0.914235 0.240702 1.57675
1.05634 0.237595 1.58087
1.11864 0.257358 1.57641
1.20703 0.252232 1.57686
1.27334 0.234407 1.57686
1.53654 0.262021 1.57696
1.59444 0.246035 1.57881
1.89248 0.2442 1.57686
0.26485 0.281501 1.57468
0.319402 0.27967 1.59513
0.430455 0.290358 1.57707
0.492904 0.287252 1.57706
0.552698 0.303197 1.57994
0.629056 0.286175 1.57931
0.847755 0.281243 1.5769
0.99015 0.283199 1.57686
1.0491 0.296875 1.57664
1.26149 0.294439 1.57686
1.31902 0.277353 1.57686
1.41788 0.28316 1.57687
1.81838 0.269157 1.57686
1.95356 0.285543 1.57686
2.07815 0.274506 1.5736
0.164228 0.32319 1.57603
0.385297 0.333055 1.57653
0.913263 0.305094 1.58553
1.3649 0.320213 1.57687
1.57613 0.306658 1.57694
1.73511 0.324864 1.57682
1.79609 0.329494 1.5766
0.310546 0.351307 1.57793
0.451876 0.361461 1.5767
0.512994 0.371476 1.57704
0.573352 0.36871 1.58119
0.770318 0.342605 1.57686
1.00911 0.342994 1.57685
1.07136 0.352477 1.5769
1.2069 0.350776 1.57673
1.30433 0.34164 1.57686
1.42069 0.344686 1.57667
1.62216 0.351058 1.57688
1.85192 0.350117 1.57711
1.9582 0.361188 1.57686
0.00898003 0.396568 1.57683
0.145409 0.405953 1.57709
0.730695 0.405761 1.57681
0.871525 0.389821 1.57687
1.12072 0.394623 1.57673
1.26194 0.384334 1.57687
1.34963 0.382623 1.57686
1.49621 0.407664 1.57646
1.66613 0.390114 1.5919
1.74493 0.383697 1.57665
1.88622 0.39909 1.57691
0.206187 0.422638 1.57501
0.3631 0.440501 1.57719
0.437139 0.419631 1.57768
0.808748 0.444853 1.57686
0.995412 0.428091 1.57684
1.05798 0.44212 1.57696
1.15669 0.44167 1.57706
1.38626 0.430064 1.57699
1.5608 0.416016 1.57719
1.64366 0.443847 1.57658
1.70735 0.433588 1.57688
1.77878 0.432804 1.57698
1.83724 0.444665 1.57694
1.97691 0.42136 1.57687
0.106504 0.461422 1.57491
0.48832 0.454375 1.57938
0.547761 0.457397 1.57676
0.685941 0.470882 1.57682
0.880059 0.45268 1.57686
1.21027 0.457874 1.59654
1.26598 0.447563 1.57702
1.34417 0.472388 1.57652
1.44665 0.463162 1.57686
1.5149 0.464033 1.57736
1.90321 0.465298 1.57689
0.401993 0.485784 1.58103
0.600531 0.512268 1.57737
0.741284 0.487407 1.59257
0.808123 0.511609 1.57705
0.897755 0.51513 1.57723
0.983822 0.487211 1.57688
1.16173 0.501521 1.57648
1.25333 0.509512 1.57686
1.39644 0.501104 1.57756
1.6161 0.500807 1.57686
1.67823 0.508524 1.57685
1.75097 0.490369 1.57686
0.123331 0.521558 1.58173
0.179479 0.539685 1.57846
0.257543 0.553526 1.58319
0.497171 0.521577 1.57287
0.967893 0.546441 1.58624
1.03597 0.517326 1.57668
1.20295 0.549477 1.57693
1.45135 0.539149 1.5768
1.53163 0.525302 1.57686
1.88192 0.521885 1.57686
2.13697 0.541613 1.5675
0.363424 0.569119 1.57866
0.450378 0.569428 1.57586
0.513053 0.577752 1.58699
0.615937 0.570642 1.57976
0.699115 0.557571 1.57683
0.750936 0.582996 1.59289
0.811659 0.571814 1.5852
0.883705 0.572196 1.5804
1.07511 0.564286 1.57703
1.14034 0.559528 1.57694
1.24689 0.585476 1.59637
1.29659 0.558522 1.57683
1.39022 0.56058 1.5769
1.62382 0.567433 1.57684
1.71884 0.553637 1.57687
1.82635 0.565563 1.57599
0.13578 0.140295 1.62508
0.379583 0.128627 1.63401
0.632586 0.144632 1.62493
0.800934 0.132333 1.63329
0.950921 0.130452 1.63251
1.01292 0.137299 1.62565
1.0859 0.131398 1.63093
1.13801 0.153948 1.61476
1.37971 0.151748 1.6112
0.543283 0.18462 1.62762
0.695654 0.16835 1.62532
0.857562 0.187449 1.62256
1.07872 0.191059 1.63527
0.158398 0.21956 1.61301
0.475018 0.232825 1.59526
0.265529 0.228291 1.61365
0.3792 0.24808 1.60701
0.609411 0.251556 1.63793
0.460068 0.289143 1.62812
0.527759 0.264732 1.62311
0.166072 0.303984 1.63554
0.245637 0.319838 1.62004
0.365278 0.336128 1.63181
0.668277 0.304785 1.622
0.792642 0.325129 1.63127
1.21058 0.304004 1.61393
0.0444588 0.35777 1.60746
0.13155 0.359353 1.62213
0.197945 0.366179 1.59453
0.691268 0.362979 1.62955
1.54859 0.363458 1.60498
0.253308 0.408089 1.60381
0.307837 0.390598 1.6252
0.393895 0.388811 1.62998
1.19397 0.400319 1.60758
1.42979 0.403189 1.60598
0.344579 0.4371 1.63222
0.516309 0.424574 1.62145
0.678422 0.422765 1.63338
1.60935 0.43378 1.62422
0.187612 0.451884 1.62289
0.295173 0.475971 1.6184
0.569912 0.478769 1.62768
1.55357 0.455235 1.62197
0.236259 0.485768 1.61702
0.517226 0.513215 1.62384
0.43689 0.525491 1.60994
0.728897 0.537906 1.62705
1.08926 0.514048 1.6079
1.16048 0.536783 1.62922
1.34468 0.529077 1.60005
0.273088 0.613729 1.62465
0.581303 0.604917 1.61581
0.797482 0.62109 1.63027
1.0073 0.594923 1.60409
1.07492 0.609499 1.61864
1.16922 0.599651 1.61086
1.30951 0.613324 1.62266
1.48595 0.592729 1.60228
0.702672 0.622101 1.63337
0.548964 0.123349 1.64056
1.47516 0.0993418 1.66351
0.199893 0.145503 1.66533
0.319903 0.181353 1.64284
0.47084 0.173726 1.66744
0.213491 0.221023 1.64159
0.448607 0.231366 1.64895
0.740551 0.262324 1.65844
0.343478 0.281747 1.6494
0.312937 0.341927 1.65652
0.40815 0.30138 1.65677
1.04308 0.305592 1.63533
0.0852175 0.357223 1.66441
0.250193 0.371221 1.64693
0.437939 0.348824 1.63494
0.513231 0.361732 1.66076
0.830257 0.371985 1.63087
0.171764 0.386128 1.67129
0.624767 0.374539 1.63737
1.49948 0.40894 1.6437
0.133015 0.430885 1.63333
0.258052 0.438922 1.65944
0.458148 0.420566 1.64522
0.58562 0.420361 1.63425
0.996045 0.426604 1.63948
0.782561 0.478864 1.65163
1.42259 0.473944 1.6408
0.35039 0.494094 1.65101
0.411777 0.506142 1.66231
0.46375 0.485034 1.64182
0.104272 0.524819 1.63709
0.34031 0.551974 1.64006
0.564693 0.540543 1.65419
0.621291 0.564805 1.64067
0.806139 0.559311 1.64897
0.960876 0.571727 1.64211
0.487065 0.593216 1.64245
0.372954 0.628457 1.63766
0.441476 0.633267 1.64236
0.394898 0.213316 1.68686
0.503923 0.231652 1.67327
0.269533 0.288095 1.67537
0.466809 0.318521 1.68288
0.704345 0.308673 1.66877
0.41256 0.368419 1.68372
0.66195 0.3403 1.6978
0.557137 0.409328 1.68646
0.328726 0.4421 1.68721
0.383312 0.419726 1.67855
0.433325 0.445661 1.69369
0.502186 0.461618 1.6799
0.501516 0.523263 1.67828
0.644269 0.634388 1.67395
0.41236 0.693864 1.70295
0.307197 0.231054 1.68641
0.112238 0.243444 1.69219
0.336745 0.303108 1.70658
0.144627 0.329159 1.70909
0.52772 0.315469 1.69337
0.265746 0.382901 1.70158
0.0278359 0.434597 1.72602
0.197767 0.505506 1.68738
0.326308 0.555142 1.71904
0.758174 0.615672 1.70717
0.196779 0.286134 1.73768
0.386631 0.34802 1.73268
0.340577 0.449717 1.7442
0.31805 0.503568 1.74891
0.498503 0.253983 1.78331
0.322732 0.35929 1.76935
0.179678 0.383211 1.7589
0.404531 0.416433 1.76073
0.180002 0.445959 1.75422
0.133145 0.50156 1.78175
0.4192 0.521596 1.76399
0.432796 0.302258 1.81729
0.230608 0.478968 1.80047
0.299287 0.247375 1.8335
0.442411 0.236129 1.83839
0.126939 0.284236 1.85499
0.345572 0.308923 1.84805
0.476186 0.343657 1.84035
0.499396 0.409304 1.82698
0.383426 0.485675 1.85296
0.196226 0.26238 1.89521
0.187834 0.32549 1.86303
0.256147 0.321804 1.88396
0.110703 0.374435 1.88804
0.282511 0.427246 1.86757
0.107302 0.455042 1.89578
0.180798 0.510604 1.86623
0.356376 0.254196 1.89922
0.415762 0.389621 1.90036
0.214879 0.429082 1.92225
0.49838 0.508374 1.90785
0.271982 0.260644 1.95922
0.321856 0.294278 1.95647
0.44222 0.295647 1.94201
0.346145 0.350757 1.94822
0.475094 0.383761 1.94023
0.466199 0.451954 1.94885
0.104255 0.515661 1.96188
0.236464 0.494005 1.94498
0.430217 0.500721 1.94948
0.339305 0.526873 1.93649
0.103324 0.228818 2.00148
0.161403 0.258279 2.00087
0.499192 0.246026 2.00686
0.125428 0.344451 1.98079
0.189012 0.364304 1.99355
0.415188 0.353574 1.98774
0.282424 0.374546 1.97178
0.115455 0.44409 1.9956
0.323589 0.424937 1.98484
0.370433 0.49856 2.00525
0.363615 0.240431 2.00861
0.425069 0.242959 2.01011
0.257372 0.298287 2.04434
0.31493 0.348737 2.03298
0.484684 0.362834 2.04107
0.40415 0.414672 2.00933
0.158807 0.499296 2.01722
0.264146 0.523422 2.01377
0.220666 0.238837 2.05734
0.393674 0.233628 2.07132
0.17717 0.298235 2.0692
0.314466 0.284399 2.06272
0.492483 0.279077 2.0644
0.417494 0.317622 2.06147
0.107591 0.339963 2.07367
0.125062 0.39201 2.04588
0.217234 0.387064 2.05563
0.385775 0.387923 2.07657
0.449749 0.403068 2.06884
0.139724 0.459766 2.07164
0.263093 0.452487 2.06205
0.417911 0.469013 2.05692
0.486571 0.452792 2.06556
0.220758 0.508511 2.06861
0.312076 0.491969 2.0676
0.490194 0.521396 2.07111
VERTICES 351 702
1 0
1 1
1 2
1 3
1 4
1 5
1 6
1 7
1 8
1 9
1 10
1 11
1 12
1 13
1 14
1 15
1 16
1 17
1 18
1 19
1 20
1 21
1 22
1 23
1 24
1 25
1 26
1 27
1 28
1 29
1 30
1 31
1 32
1 33
1 34
1 35
1 36
1 37
1 38
1 39
1 40
1 41
1 42
1 43
1 44
1 45
1 46
1 47
1 48
1 49
1 50
1 51
1 52
1 53
1 54
1 55
1 56
1 57
1 58
1 59
1 60
1 61
1 62
1 63
1 64
1 65
1 66
1 67
1 68
1 69
1 70
1 71
1 72
1 73
1 74
1 75
1 76
1 77
1 78
1 79
1 80
1 81
1 82
1 83
1 84
1 85
1 86
1 87
1 88
1 89
1 90
1 91
1 92
1 93
1 94
1 95
1 96
1 97
1 98
1 99
1 100
1 101
1 102
1 103
1 104
1 105
1 106
1 107
1 108
1 109
1 110
1 111
1 112
1 113
1 114
1 115
1 116
1 117
1 118
1 119
1 120
1 121
1 122
1 123
1 124
1 125
1 126
1 127
1 128
1 129
1 130
1 131
1 132
1 133
1 134
1 135
1 136
1 137
1 138
1 139
1 140
1 141
1 142
1 143
1 144
1 145
1 146
1 147
1 148
1 149
1 150
1 151
1 152
1 153
1 154
1 155
1 156
1 157
1 158
1 159
1 160
1 161
1 162
1 163
1 164
1 165
1 166
1 167
1 168
1 169
1 170
1 171
1 172
1 173
1 174
1 175
1 176
1 177
1 178
1 179
1 180
1 181
1 182
1 183
1 184
1 185
1 186
1 187
1 188
1 189
1 190
1 191
1 192
1 193
1 194
1 195
1 196
1 197
1 198
1 199
1 200
1 201
1 202
1 203
1 204
1 205
1 206
1 207
1 208
1 209
1 210
1 211
1 212
1 213
1 214
1 215
1 216
1 217
1 218
1 219
1 220
1 221
1 222
1 223
1 224
1 225
1 226
1 227
1 228
1 229
1 230
1 231
1 232
1 233
1 234
1 235
1 236
1 237
1 238
1 239
1 240
1 241
1 242
1 243
1 244
1 245
1 246
1 247
1 248
1 249
1 250
1 251
1 252
1 253
1 254
1 255
1 256
1 257
1 258
1 259
1 260
1 261
1 262
1 263
1 264
1 265
1 266
1 267
1 268
1 269
1 270
1 271
1 272
1 273
1 274
1 275
1 276
1 277
1 278
1 279
1 280
1 281
1 282
1 283
1 284
1 285
1 286
1 287
1 288
1 289
1 290
1 291
1 292
1 293
1 294
1 295
1 296
1 297
1 298
1 299
1 300
1 301
1 302
1 303
1 304
1 305
1 306
1 307
1 308
1 309
1 310
1 311
1 312
1 313
1 314
1 315
1 316
1 317
1 318
1 319
1 320
1 321
1 322
1 323
1 324
1 325
1 326
1 327
1 328
1 329
1 330
1 331
1 332
1 333
1 334
1 335
1 336
1 337
1 338
1 339
1 340
1 341
1 342
1 343
1 344
1 345
1 346
1 347
1 348
1 349
1 350
POINT_DATA 351
VECTORS i float
0.0 0.0 0.0
0.0 0.0 0.0
0.0 0.0 0.0
0.0 0.0 0.0
0.0 0.0 0.0
0.0 0.0 0.0
0.0 0.0 0.0
0.0 0.0 0.0
0.0 0.0 0.0
0.0 0.0 0.0
0.0 0.0 0.0
0.0 0.0 0.0
0.0 0.0 0.0
0.0 0.0 0.0
0.0 0.0 0.0
0.0 0.0 0.0
0.0 0.0 0.0
0.0 0.0 0.0
0.0 0.0 0.0
0.0 0.0 0.0
0.0 0.0 0.0
0.0 0.0 0.0
0.0 0.0 0.0
0.0 0.0 0.0
0.0 0.0 0.0
0.0 0.0 0.0
0.0 0.0 0.0
0.0 0.0 0.0
0.0 0.0 0.0
0.0 0.0 0.0
0.0 0.0 0.0
0.0 0.0 0.0
0.0 0.0 0.0
0.0 0.0 0.0
0.0 0.0 0.0
0.0 0.0 0.0
0.0 0.0 0.0
0.0 0.0 0.0
0.0 0.0 0.0
0.0 0.0 0.0
0.0 0.0 0.0
0.0 0.0 0.0
0.0 0.0 0.0
0.0 0.0 0.0
0.0 0.0 0.0
0.0 0.0 0.0
0.0 0.0 0.0
0.0 0.0 0.0
0.0 0.0 0.0
0.0 0.0 0.0
0.0 0.0 0.0
0.0 0.0 0.0
0.0 0.0 0.0
0.0 0.0 0.0
0.0 0.0 0.0
0.0 0.0 0.0
0.0 0.0 0.0
0.0 0.0 0.0
0.0 0.0 0.0
0.0 0.0 0.0
0.0 0.0 0.0
0.0 0.0 0.0
0.0 0.0 0.0
0.0 0.0 0.0
0.0 0.0 0.0
0.0 0.0 0.0
0.0 0.0 0.0
0.0 0.0 0.0
0.0 0.0 0.0
0.0 0.0 0.0
0.0 0.0 0.0
0.0 0.0 0.0
0.0 0.0 0.0
0.0 0.0 0.0
0.0 0.0 0.0
0.0 0.0 0.0
0.0 0.0 0.0
0.0 0.0 0.0
0.0 0.0 0.0
0.0 0.0 0.0
0.0 0.0 0.0
0.0 0.0 0.0
0.0 0.0 0.0
0.0 0.0 0.0
0.0 0.0 0.0
0.0 0.0 0.0
0.0 0.0 0.0
0.0 0.0 0.0
0.0 0.0 0.0
0.0 0.0 0.0
0.0 0.0 0.0
0.0 0.0 0.0
0.0 0.0 0.0
0.0 0.0 0.0
0.0 0.0 0.0
0.0 0.0 0.0
0.0 0.0 0.0
0.0 0.0 0.0
0.0 0.0 0.0
0.0 0.0 0.0
0.0 0.0 0.0
0.0 0.0 0.0
0.0 0.0 0.0
0.0 0.0 0.0
0.0 0.0 0.0
0.0 0.0 0.0
0.0 0.0 0.0
0.0 0.0 0.0
0.0 0.0 0.0
0.0 0.0 0.0
0.0 0.0 0.0
0.0 0.0 0.0
0.0 0.0 0.0
0.0 0.0 0.0
0.0 0.0 0.0
0.0 0.0 0.0
0.0 0.0 0.0
0.0 0.0 0.0
0.0 0.0 0.0
0.0 0.0 0.0
0.0 0.0 0.0
0.0 0.0 0.0
0.0 0.0 0.0
0.0 0.0 0.0
0.0 0.0 0.0
0.0 0.0 0.0
0.0 0.0 0.0
0.0 0.0 0.0
0.0 0.0 0.0
0.0 0.0 0.0
0.0 0.0 0.0
0.0 0.0 0.0
0.0 0.0 0.0
0.0 0.0 0.0
0.0 0.0 0.0
0.0 0.0 0.0
0.0 0.0 0.0
0.0 0.0 0.0
0.0 0.0 0.0
0.0 0.0 0.0
0.0 0.0 0.0
0.0 0.0 0.0
0.0 0.0 0.0
0.0 0.0 0.0
0.0 0.0 0.0
0.0 0.0 0.0
0.0 0.0 0.0
0.0 0.0 0.0
0.0 0.0 0.0
0.0 0.0 0.0
0.0 0.0 0.0
0.0 0.0 0.0
0.0 0.0 0.0
0.0 0.0 0.0
0.0 0.0 0.0
0.0 0.0 0.0
0.0 0.0 0.0
0.0 0.0 0.0
0.0 0.0 0.0
0.0 0.0 0.0
0.0 0.0 0.0
0.0 0.0 0.0
0.0 0.0 0.0
0.0 0.0 0.0
0.0 0.0 0.0
0.0 0.0 0.0
0.0 0.0 0.0
0.0 0.0 0.0
0.0 0.0 0.0
0.0 0.0 0.0
0.0 0.0 0.0
0.0 0.0 0.0
0.0 0.0 0.0
0.0 0.0 0.0
0.0 0.0 0.0
0.0 0.0 0.0
0.0 0.0 0.0
0.0 0.0 0.0
0.0 0.0 0.0
0.0 0.0 0.0
0.0 0.0 0.0
0.0 0.0 0.0
0.0 0.0 0.0
0.0 0.0 0.0
0.0 0.0 0.0
0.0 0.0 0.0
0.0 0.0 0.0
0.0 0.0 0.0
0.0 0.0 0.0
0.0 0.0 0.0
0.0 0.0 0.0
0.0 0.0 0.0
0.0 0.0 0.0
0.0 0.0 0.0
0.0 0.0 0.0
0.0 0.0 0.0
0.0 0.0 0.0
0.0 0.0 0.0
0.0 0.0 0.0
0.0 0.0 0.0
0.0 0.0 0.0
0.0 0.0 0.0
0.0 0.0 0.0
0.0 0.0 0.0
0.0 0.0 0.0
0.0 0.0 0.0
0.0 0.0 0.0
0.0 0.0 0.0
0.0 0.0 0.0
0.0 0.0 0.0
0.0 0.0 0.0
0.0 0.0 0.0
0.0 0.0 0.0
0.0 0.0 0.0
0.0 0.0 0.0
0.0 0.0 0.0
0.0 0.0 0.0
0.0 0.0 0.0
0.0 0.0 0.0
0.0 0.0 0.0
0.0 0.0 0.0
0.0 0.0 0.0
0.0 0.0 0.0
0.0 0.0 0.0
0.0 0.0 0.0
0.0 0.0 0.0
0.0 0.0 0.0
0.0 0.0 0.0
0.0 0.0 0.0
0.0 0.0 0.0
0.0 0.0 0.0
0.0 0.0 0.0
0.0 0.0 0.0
0.0 0.0 0.0
0.0 0.0 0.0
0.0 0.0 0.0
0.0 0.0 0.0
0.0 0.0 0.0
0.0 0.0 0.0
0.0 0.0 0.0
0.0 0.0 0.0
0.0 0.0 0.0
0.0 0.0 0.0
0.0 0.0 0.0
0.0 0.0 0.0
0.0 0.0 0.0
0.0 0.0 0.0
0.0 0.0 0.0
0.0 0.0 0.0
0.0 0.0 0.0
0.0 0.0 0.0
0.0 0.0 0.0
0.0 0.0 0.0
0.0 0.0 0.0
0.0 0.0 0.0
0.0 0.0 0.0
0.0 0.0 0.0
0.0 0.0 0.0
0.0 0.0 0.0
0.0 0.0 0.0
0.0 0.0 0.0
0.0 0.0 0.0
0.0 0.0 0.0
0.0 0.0 0.0
0.0 0.0 0.0
0.0 0.0 0.0
0.0 0.0 0.0
0.0 0.0 0.0
0.0 0.0 0.0
0.0 0.0 0.0
0.0 0.0 0.0
0.0 0.0 0.0
0.0 0.0 0.0
0.0 0.0 0.0
0.0 0.0 0.0
0.0 0.0 0.0
0.0 0.0 0.0
0.0 0.0 0.0
0.0 0.0 0.0
0.0 0.0 0.0
0.0 0.0 0.0
0.0 0.0 0.0
0.0 0.0 0.0
0.0 0.0 0.0
0.0 0.0 0.0
0.0 0.0 0.0
0.0 0.0 0.0
0.0 0.0 0.0
0.0 0.0 0.0
0.0 0.0 0.0
0.0 0.0 0.0
0.0 0.0 0.0
0.0 0.0 0.0
0.0 0.0 0.0
0.0 0.0 0.0
0.0 0.0 0.0
0.0 0.0 0.0
0.0 0.0 0.0
0.0 0.0 0.0
0.0 0.0 0.0
0.0 0.0 0.0
0.0 0.0 0.0
0.0 0.0 0.0
0.0 0.0 0.0
0.0 0.0 0.0
0.0 0.0 0.0
0.0 0.0 0.0
0.0 0.0 0.0
0.0 0.0 0.0
0.0 0.0 0.0
0.0 0.0 0.0
0.0 0.0 0.0
0.0 0.0 0.0
0.0 0.0 0.0
0.0 0.0 0.0
0.0 0.0 0.0
0.0 0.0 0.0
0.0 0.0 0.0
0.0 0.0 0.0
0.0 0.0 0.0
0.0 0.0 0.0
0.0 0.0 0.0
0.0 0.0 0.0
0.0 0.0 0.0
0.0 0.0 0.0
0.0 0.0 0.0
0.0 0.0 0.0
0.0 0.0 0.0
0.0 0.0 0.0
0.0 0.0 0.0
0.0 0.0 0.0
0.0 0.0 0.0
0.0 0.0 0.0
0.0 0.0 0.0
0.0 0.0 0.0
0.0 0.0 0.0
0.0 0.0 0.0
0.0 0.0 0.0
0.0 0.0 0.0
0.0 0.0 0.0
0.0 0.0 0.0
0.0 0.0 0.0
0.0 0.0 0.0
0.0 0.0 0.0
0.0 0.0 0.0
0.0 0.0 0.0
0.0 0.0 0.0
0.0 0.0 0.0
0.0 0.0 0.0
0.0 0.0 0.0
0.0 0.0 0.0
VECTORS f float
0.0 0.0 -2.77371
0.0 0.0 -2.77371
0.0 0.0 -2.77371
0.0 0.0 -2.77371
0.0 0.0 -2.77371
1.82906 -6.48595 3.25558
0.0 0.0 -2.77371
-1.14895 -1.40828 -5.19553
2.54151 -4.16807 -0.299891
0.0 0.0 -2.77371
0.546022 0.898635 -0.919688
4.9514 2.48719 -3.20195
5.40945e-05 -2.05289e-06 0.0495245
-1.33964 -0.119384 2.30411
0.000511151 -1.64295e-05 -0.018595
0.00138975 1.0064 -0.970423
-0.022445 -0.101736 -2.29155
0.0 0.0 -2.77371
0.0 0.0 -2.77371
-44.0928 1.18604 -69.3978
4.60293 3.87923 65.3301
0.0211885 -0.0171263 -2.8282
0.0 0.0 -2.77371
0.829188 0.612418 -0.947375
0.0345598 0.00363456 -0.126089
1.36682 0.559083 0.179783
-1.36457e-09 1.60924e-10 -1.22207e-08
0.0 0.0 -2.77371
-5.12741 -2.70767 20.8923
0.796405 1.06891 -3.38489
-2.65522 2.8114 1.8043
-6.97858 -5.3897 1.35035
2.7108 0.478839 2.73182
-0.0721067 0.797259 -2.41893
-0.324664 -0.223227 10.7473
0.000139345 -1.85768e-06 0.00447132
-0.000126046 5.42655e-06 0.00350648
-0.276178 -1.63372 -1.90364
0.0 0.0 -2.77371
0.00158375 0.00010927 0.127241
15.0422 0.171682 43.3473
-71.1256 -5.99198 -28.845
-4.35497 15.6292 -35.2092
-0.459388 -0.880773 -4.76047
0.0 0.0 -2.77371
-0.796405 -1.06891 -2.16254
10.5747 11.0261 2.1154
2.774e-06 6.59238e-08 0.000238701
0.169608 0.329466 -0.468654
-0.00380518 3.16376e-05 -0.0958393
-0.000212662 3.41132e-05 -0.0163072
0.01296 -8.11669e-05 0.110741
1.25503e-06 -7.57573e-08 9.38303e-05
1.04328e-08 -3.79515e-09 -5.61991e-07
0.0 0.0 -2.77371
-11.6059 -15.9889 16.4923
14.9846 -5.02307 -8.74359
0.0 0.0 -2.77371
0.0511454 0.00338653 0.414681
1.34496 1.91663 -0.711616
0.990759 -3.9653 -0.805963
0.42785 0.145413 3.13103
0.0 0.0 -2.77371
6.54092 2.33879 14.393
0.475734 0.116562 -1.7941
0.0 0.0 -2.77371
-0.00154755 4.86098e-05 -0.00484005
-0.00755374 0.00178143 0.0919087
0.150841 0.487414 -0.616807
-0.0663045 -0.0818918 0.0792878
-0.15788 -0.0877777 0.374404
0.546097 0.12749 5.79424
0.0175722 0.00436535 -0.0603664
2.97021 0.977535 -0.921386
-0.0015422 0.000233128 0.0605432
1.99125 -0.677466 1.43297
0.103213 0.0212834 -2.56294
0.0362146 -0.000532454 1.16239
-0.00896437 0.000489732 -0.173402
-4.2271 -3.66008 -4.25693
-0.0360755 0.026277 -0.337497
1.14656 1.56148 0.185488
0.740503 2.39751 7.23622
0.0 0.0 -2.77371
-2.61274 4.34218 0.825822
-1.14118 -1.05435 0.738489
-2.27608 24.6167 -7.97022
38.4126 6.84832 -42.8387
0.0 0.0 -2.77371
0.00134549 -6.41771e-05 0.00821831
-0.0228843 0.0101417 0.00798753
0.042052 0.00175151 -0.82461
-3.85263 -0.611671 -2.07679
5.1487 6.85796 -15.3292
-0.133878 1.15831 -1.77036
-0.320806 -0.0280913 1.81103
0.00137145 -0.000113679 -0.230629
-0.992924 4.03541 -0.905619
4.23248 0.844649 -0.0381329
0.00171484 -0.000355335 -0.0248276
10.0381 -1.91565 17.6648
-9.5395 12.4379 -20.3479
-3.32356 -0.939649 -4.92202
-0.312276 -0.120764 0.492845
-0.00077209 7.29242e-05 0.00514106
7.38675 4.58187 -2.74331
1.06177 0.153274 -2.74175
0.24716 3.553 2.6852
-1.684e-05 -1.25708e-06 -0.00281472
-0.562894 2.32533 -3.6893
-0.00222035 -0.000551787 -0.50696
2.77092 2.68587 -4.3633
0.0 0.0 -2.77371
0.57297 0.194333 -2.2335
-0.230215 0.678608 -1.59762
0.489339 -19.5012 1.71796
-0.0204981 -0.056347 -0.447479
-2.02642 -1.01039 3.81475
-0.000976472 -0.000546242 0.0110935
-1.11833 -4.38527 -1.87438
0.000768662 0.000121019 0.112306
0.0516018 0.0057546 1.04524
0.00309884 0.00277418 0.119206
-16.1143 -0.845502 10.7594
9.83155 2.71756 1.61587
0.0 0.0 -2.77371
-7.60761 -6.65098 66.3846
0.0 0.0 -2.77371
0.978128 0.319667 6.91094
-0.559449 -0.349976 -3.96548
0.00419733 0.000412396 1.16527
8.99053e-05 7.74938e-06 0.00331369
-0.000877047 -3.38959e-05 -0.00490527
0.0 0.0 -2.77371
0.0 0.0 -2.77371
10.4814 -1.26166 7.18965
-0.527987 -1.28334 -2.11283
-0.237297 -1.12047 0.53656
1.46234 0.045895 0.382104
0.219317 0.163268 -2.54029
0.0 0.0 -2.77371
4.07926 -8.21604 4.78409
0.034022 0.0633002 -1.06115
0.0818265 -0.160331 -0.584526
-0.723276 0.389261 -2.88175
0.677369 -0.39633 0.0283895
1.13117 3.90745 -1.9194
-0.272244 0.223977 0.499259
-0.0017233 0.0144051 -0.311104
0.573943 0.497891 22.7851
0.0 0.0 -2.77371
-3.8589 -12.6747 -13.8616
0.0 0.0 -2.77371
0.0 0.0 -2.77371
0.0092892 0.903326 -1.04849
0.540789 0.805899 -0.818385
-4.72203 -2.58869 0.729452
1.16745 1.12027 6.69924
0.00117408 0.98346 -0.991613
0.0 0.0 -2.77371
0.0 0.0 -2.77371
0.0 0.0 -2.77371
0.0 0.0 -2.77371
44.1138 -1.35589 63.9491
-2.08072 0.342801 3.64381
27.5207 1.16097 61.4381
0.0 0.0 -2.77371
0.0 0.0 -2.77371
8.869 -15.1749 35.579
0.0 0.0 -2.77371
0.0 0.0 -2.77371
-2.79141 -36.5772 -12.5424
-1.8284 6.93686 -14.7794
-35.4668 -7.89798 -20.5617
0.0 0.0 -2.77371
0.0704766 -0.259239 -2.21797
0.0 0.0 -2.77371
0.0 0.0 -2.77371
25.5333 31.9269 20.2919
0.0 0.0 -2.77371
0.0 0.0 -2.77371
29.7783 16.0243 8.06549
-4.48971 33.425 -71.3577
7.95028 -20.1387 -28.5522
-0.22491 0.893212 -1.32035
17.7877 -18.192 27.8179
-29.1963 -9.28942 -2.98427
11.6587 -12.4181 13.6266
0.0 0.0 -2.77371
-1.09337 -0.237142 0.583483
-0.185945 10.1712 -2.08686
1.12831 0.299431 -2.97179
-0.358247 0.051849 -5.87956
1.80828 -0.325129 -1.05321
-2.06398 -0.581399 -1.25519
26.6092 -9.03207 100.583
-19.2053 -40.3533 30.5779
0.0 0.0 -2.77371
0.0 0.0 -2.77371
0.0 0.0 -2.77371
0.0 0.0 -2.77371
0.0 0.0 -2.77371
0.0 0.0 -2.77371
-0.000961244 -0.966731 -1.00933
-0.00922937 -0.919044 -1.05593
1.86187 -2.4512 0.112703
0.167662 0.403912 -2.02914
0.310462 -0.380698 -2.11426
0.0 0.0 -2.77371
0.0 0.0 -2.77371
0.0 0.0 -2.77371
0.0935168 0.15057 -2.39244
0.0 0.0 -2.77371
0.0 0.0 -2.77371
0.0 0.0 -2.77371
6.21939 0.68693 -2.9357
2.08072 -0.342801 -9.19124
0.111092 -0.144877 -2.90894
88.4907 5.29397 41.9995
-15.7401 -44.743 74.8475
0.0 0.0 -2.77371
-0.241235 -0.0765957 0.787784
0.0 0.0 -2.77371
18.5781 -19.6601 53.4905
27.6399 0.359038 -49.9507
4.06683 20.5067 -28.0345
0.0 0.0 -2.77371
0.0 0.0 -2.77371
0.0 0.0 -2.77371
0.0 0.0 -2.77371
-7.7468 -0.821703 2.25032
0.0 0.0 -2.77371
7.3513 8.76654 2.2994
0.0 0.0 -2.77371
0.0 0.0 -2.77371
0.0 0.0 -2.77371
0.0 0.0 -2.77371
-0.59796 4.44175 -4.19034
1.50837 -1.5817 -3.06724
3.89716 -27.5083 19.0359
6.28275 -1.87206 -20.6964
0.59796 -4.44175 -1.35709
0.0 0.0 -2.77371
0.0 0.0 -2.77371
0.0 0.0 -2.77371
0.0 0.0 -2.77371
0.0 0.0 -2.77371
0.00708347 -0.810272 -1.13176
7.10193 -10.9238 6.62116
0.0 0.0 -2.77371
0.0 0.0 -2.77371
0.0 0.0 -2.77371
0.0 0.0 -2.77371
35.3557 8.04286 15.1495
-28.8808 -14.5453 53.1765
0.0 0.0 -2.77371
0.0 0.0 -2.77371
-13.9183 1.57342 39.2764
-2.39252 15.2887 28.7511
-0.433216 1.09706 -4.92828
1.39649 -1.06342 -2.33013
5.92946 -2.06288 38.1096
0.0 0.0 -2.77371
1.31391 -1.64068 -0.465681
0.0 0.0 -2.77371
0.0 0.0 -2.77371
0.0 0.0 -2.77371
0.0 0.0 -2.77371
-4.06683 -20.5067 22.4871
0.491652 -2.57086 10.2138
0.0 0.0 -2.77371
0.0 0.0 -2.77371
0.0 0.0 -2.77371
0.0 0.0 -2.77371
0.0 0.0 -2.77371
1.45138 12.3763 -11.0258
5.95584 -45.1542 -22.0974
-6.54521 48.0327 21.9599
0.0 0.0 -2.77371
0.0 0.0 -2.77371
0.0 0.0 -2.77371
0.0 0.0 -2.77371
0.0 0.0 -2.77371
0.0 0.0 -2.77371
0.0 0.0 -2.77371
0.0 0.0 -2.77371
0.0 0.0 -2.77371
0.0 0.0 -2.77371
0.0 0.0 -2.77371
0.0 0.0 -2.77371
0.0 0.0 -2.77371
0.0 0.0 -2.77371
0.0 0.0 -2.77371
0.0 0.0 -2.77371
0.0 0.0 -2.77371
0.0 0.0 -2.77371
0.0 0.0 -2.77371
0.0 0.0 -2.77371
0.0 0.0 -2.77371
0.0 0.0 -2.77371
0.0 0.0 -2.77371
0.0 0.0 -2.77371
0.0 0.0 -2.77371
0.0 0.0 -2.77371
0.0 0.0 -2.77371
0.0 0.0 -2.77371
0.0 0.0 -2.77371
0.0 0.0 -2.77371
0.0 0.0 -2.77371
0.0 0.0 -2.77371
0.0 0.0 -2.77371
0.0 0.0 -2.77371
0.0 0.0 -2.77371
0.0 0.0 -2.77371
0.0 0.0 -2.77371
0.0 0.0 -2.77371
0.0 0.0 -2.77371
0.0 0.0 -2.77371
0.0 0.0 -2.77371
0.0 0.0 -2.77371
0.0 0.0 -2.77371
0.0 0.0 -2.77371
0.0 0.0 -2.77371
0.0 0.0 -2.77371
0.0 0.0 -2.77371
0.0 0.0 -2.77371
0.0 0.0 -2.77371
0.0 0.0 -2.77371
0.0 0.0 -2.77371
0.0 0.0 -2.77371
0.0 0.0 -2.77371
0.0 0.0 -2.77371
0.0 0.0 -2.77371
0.0 0.0 0.0
0.0 0.0 0.0
0.0 0.0 0.0
0.0 0.0 0.0
0.0 0.0 0.0
0.0 0.0 0.0
0.0 0.0 0.0
0.0 0.0 -2.77371
0.0 0.0 0.0
0.0 0.0 0.0
0.0 0.0 0.0
0.0 0.0 0.0
0.0 0.0 0.0
0.0 0.0 0.0
0.0 0.0 0.0
0.0 0.0 0.0
0.0 0.0 0.0
0.0 0.0 0.0
VECTORS omega float
12.707 -26.5302 1.8725
6.41196 -26.3847 -3.05696
17.1715 -3.71934 10.6634
4.56748 -20.9404 -22.7402
-1.2666 -12.4742 6.51084
8.61191 -80.3071 42.2967
0.184836 -77.2034 21.0816
-14.952 -81.0981 18.9503
1.47817 -54.8827 35.2746
22.0946 45.0484 -21.7364
-6.54043 -37.5929 36.2146
-8.32054 -39.9095 25.4816
-1.21091 -44.3775 3.34322
-7.98748 -33.2095 28.0274
-0.75786 -51.833 2.75206
-16.7876 -14.4306 49.0804
5.49186 -43.1857 -2.12658
-4.43619 -43.4705 13.4293
2.07324 -32.5155 15.9314
21.0591 -91.1004 -1.60937
17.7603 -101.449 -17.0024
22.5616 -90.8572 -4.34636
2.8201 -62.3279 -0.474003
-6.5934 -40.4615 4.16177
-1.98116 -39.9589 -12.5529
-23.7569 -29.571 -4.79764
-5.62552 -47.7156 12.0898
3.14106 -41.7856 6.64102
15.3534 -93.7027 8.47119
1.39757 -62.6098 -7.99748
-1.16142 -78.6302 -10.5896
-17.2678 -51.176 -2.31911
-5.66492 38.158 6.0868
-6.45382 -18.1688 5.08802
-4.11353 -50.9502 -2.96358
-0.6781 -50.8642 -10.1374
-1.92946 -46.8138 7.2383
-22.6263 -15.7162 -6.67337
1.95805 -30.4567 0.309284
-7.22582 -36.3573 6.40676
8.449 -94.3348 -7.64626
1.35128 76.7345 3.91391
1.22104 -68.385 20.3138
-5.86304 -74.988 -21.9193
-27.9379 54.2767 7.28965
-0.930165 -66.8267 -1.77415
-7.919 -54.7685 -10.6342
1.22844 -51.6915 7.25046
-0.724444 -57.0806 3.72135
1.11554 -46.431 8.79293
-7.85558 -49.4842 -1.59826
-4.80886 -42.7826 11.5227
-2.02005 -33.7167 -0.659354
-11.8635 -32.6119 -4.39747
0.365994 -40.1907 -11.0215
-14.4347 -72.6682 16.556
-17.3617 -59.1836 -14.0978
32.1286 -39.4267 -16.4069
-5.58297 -45.7112 -1.36705
-7.42411 -27.2447 1.47441
-4.31664 -27.3159 7.37321
-9.43166 -22.4423 -0.879591
26.209 -55.8045 7.58539
-9.65483 -63.1934 -8.64896
-6.45603 -63.7694 10.4323
-2.01198 -69.2328 1.0634
-2.01193 -64.0514 -27.4781
-2.10574 -56.2945 14.3313
-0.983935 -59.1405 1.54511
3.297 -50.2435 -8.66566
-4.57574 -45.2428 -3.15829
-6.87437 -44.1401 -2.939
-5.26005 -36.4098 -7.94267
-22.7466 -12.0958 5.22318
-6.99551 -48.3856 -14.3916
-16.473 -113.93 -3.90733
-1.55088 -85.019 16.4263
-0.87646 -55.3472 -14.429
-3.48511 -60.441 -5.27068
-28.5294 14.4774 3.77438
0.827946 -52.286 8.412
-8.44502 -46.2579 3.72196
-5.07795 -41.3616 8.1103
-6.44957 -22.9676 7.90468
-0.911469 -36.4797 3.31216
-24.1105 -45.8617 16.3402
0.823441 -56.1771 2.78697
-10.0473 -58.7017 7.84296
1.95467 -53.8517 1.69342
-2.77673 -58.2072 8.53798
4.15145 -50.525 2.23641
1.4617 -47.2382 4.12905
-3.03891 -46.7131 -3.21257
-0.300609 -22.6668 -2.71907
-3.46659 -40.1957 -0.0370126
2.11883 -38.7739 2.11534
1.41516 -42.7175 -2.63995
1.14128 -32.4907 10.5994
-4.64925 -39.9022 -3.97392
-7.65745 -39.5157 5.42039
7.18187 -87.549 16.0613
-8.40661 -53.364 0.450332
0.376387 -64.2695 -3.47307
-4.97696 -47.0068 11.9857
-5.36503 -55.4294 -1.08152
2.16451 50.2058 -2.92682
0.334756 -49.5028 1.00729
7.40732 -5.09435 3.19381
3.55877 -47.6474 3.47607
-6.79468 -47.0582 1.63245
0.182744 -35.5479 12.9165
-28.7315 62.541 3.30756
-13.5505 -67.936 21.6867
0.545375 16.9962 -12.7626
6.80559 -58.3692 16.4562
6.21085 -56.1353 -5.14677
4.16754 -54.7206 1.4449
1.84184 -52.0939 10.6965
-2.45678 -62.7052 7.19994
-0.417002 -40.2117 6.00172
5.70678 -38.0744 18.0977
-0.688167 -36.3299 4.29307
4.04462 -45.0318 -1.25075
-15.483 -54.0971 11.4007
-3.40694 -89.9362 -11.8089
-24.5738 -104.765 -23.5008
-5.41589 -55.3709 3.94426
-13.6068 30.5607 5.01141
-4.12314 -57.8944 -2.86317
4.20561 -50.5487 -13.3702
1.36055 -47.3416 1.92214
4.39127 -44.497 -21.1438
0.961025 -39.6343 -13.81
1.9812 -32.9576 12.1837
-13.3909 -92.6961 8.14983
-19.961 -76.7468 -17.2894
-15.2969 -82.8722 -16.231
-1.58513 -58.5481 -27.8618
-20.7103 -15.768 -18.4919
-4.62417 -60.3551 1.34501
-0.808079 -50.8193 -31.0661
14.8421 -92.2145 2.02919
3.13376 -50.944 -6.75326
-0.979929 -52.3366 -7.60831
-3.20228 40.1946 9.12046
5.01967 -48.4564 -14.519
5.9634 -51.4023 -6.03349
1.04478 -47.9208 -20.2109
-3.59598 -37.3017 -8.80091
14.4897 -58.4237 -19.827
12.6544 19.7829 37.7147
-0.394296 -28.5188 89.8015
8.22047 -4.01146 39.8485
-7.17564 -66.6508 35.4117
0.596066 -51.2283 33.0748
23.2248 -28.9395 30.6851
-6.08949 -13.0878 28.1086
-24.5235 -13.5001 14.4652
-21.3931 -57.3724 22.0783
-4.38376 58.141 -49.0994
18.2753 55.839 -7.49004
-45.6385 20.619 -21.0797
7.9236 34.6557 -12.0669
-14.4116 12.7019 0.319588
18.8483 12.9661 7.20877
-28.4825 72.8399 3.33838
-7.01648 33.106 -3.99082
-25.8126 27.008 -12.1631
20.5279 31.2266 3.49368
30.1232 -8.95058 -0.145565
-13.1799 31.1699 1.87649
-21.394 27.5465 6.33556
21.2196 -19.1134 1.76135
12.807 68.2 15.2404
8.09234 44.5935 8.36245
10.9474 40.631 5.0676
8.65268 81.5653 -4.79017
-15.7348 37.0012 8.75466
-30.2538 31.6865 9.68386
-0.253562 3.40429 8.942
7.20657 14.7094 0.995693
24.2281 55.9465 5.29496
-20.0065 -12.5943 -5.58806
5.5909 -8.0281 -11.3608
-4.02634 41.8887 7.5603
-29.16 22.9652 -9.64732
-8.23804 -4.67604 15.4141
3.1449 25.3119 -6.99474
24.3407 -21.8966 -17.3875
10.1149 22.1526 -12.6575
-4.06081 -16.2573 -2.47683
-35.8141 2.4774 -14.9223
-10.6328 46.3008 -0.061271
1.104 36.5167 16.0424
37.1379 23.2734 13.3781
14.9802 29.3805 -5.19839
34.1394 -34.4475 20.9956
-11.4771 -13.4891 21.8353
1.54113 72.745 -8.45429
7.28743 45.6297 6.48312
8.61632 56.3207 9.61217
-38.8488 -20.677 -71.1717
2.92674 -74.3 -30.2119
2.99627 -86.5806 -14.6278
11.203 -41.9824 -28.0118
-2.45843 3.19537 -51.8399
-11.4488 -36.9069 -31.2614
-9.91901 -29.1891 -28.7671
1.44409 -20.9569 -44.7673
-4.7098 -29.8427 -53.0676
12.941 -27.3913 52.2359
3.76709 -14.6942 27.6311
36.9256 34.3949 -30.8566
-19.7068 -36.3181 -2.30501
-15.1298 34.1286 -12.7813
41.4791 -14.7694 -12.619
-2.47503 -27.6532 8.88293
-10.9731 50.5429 1.99087
2.6954 -20.421 -0.784827
6.34223 -1.58944 -11.259
20.2048 9.17445 -10.8065
0.512048 54.7161 -2.80674
-15.1759 -65.5685 -7.44293
10.3913 -48.4972 -38.8838
-0.885642 3.47565 4.68678
40.144 -17.0161 0.815189
37.6938 36.0316 9.70568
-8.33691 -35.3906 -2.12287
-5.03261 83.7188 4.266
12.9853 28.6767 14.144
-0.147442 -14.7226 14.7619
-17.3072 -32.4382 46.062
-6.59986 -40.6136 6.77969
-5.22892 -22.7586 3.3997
3.29131 36.5695 -10.5942
39.3928 40.5261 -20.3942
13.1289 31.0248 4.82269
-13.3811 5.14416 -13.9287
-4.27466 17.1004 0.692746
25.9947 -0.649021 -5.6891
5.45228 14.0154 0.467014
19.5192 42.2223 15.9662
-20.5558 -11.5401 14.463
31.9036 44.556 38.8862
-25.2078 28.813 17.4843
6.2891 -4.65181 49.5269
-0.553852 38.5623 6.85287
0.461848 -75.7654 -49.381
-16.2127 -25.7696 -31.5074
0.692165 -6.69309 -4.55796
-9.44745 19.6166 -18.3192
30.2664 -17.679 -14.1823
24.6485 23.1067 5.34787
-2.70093 -38.4604 8.66921
5.62579 -9.50521 -24.4024
-4.73075 -80.5409 -21.3222
-48.7066 8.16089 39.0132
1.91248 5.40245 -9.8453
-5.91428 -9.02997 3.38
13.3228 12.7997 -1.28909
-10.4115 -7.09236 21.089
-24.817 -78.2232 8.19394
21.6242 -2.86575 38.2443
-8.91359 -0.474979 -44.8042
0.0 0.0 0.0
0.0 0.0 0.0