# vtk DataFile Version 2.0
Generated by lpp.py
ASCII
DATASET POLYDATA
POINTS 353 float
0.327158 0.181631 1.57948
0.402288 0.183424 1.57881
0.611549 0.173943 1.58893
0.716645 0.182196 1.58055
0.776393 0.188034 1.57675
0.834649 0.167326 1.59649
0.913812 0.187662 1.57727
0.990226 0.180141 1.5828
1.05373 0.193011 1.57692
1.11455 0.185143 1.57778
0.0393991 0.198293 1.57972
0.255912 0.221847 1.58855
0.473329 0.209025 1.58817
0.113648 0.261233 1.57655
0.194926 0.230247 1.5769
0.322222 0.24037 1.57858
0.419198 0.249168 1.57671
0.608883 0.254433 1.57747
0.66693 0.263046 1.5947
0.803119 0.241504 1.57678
0.875189 0.233533 1.57952
1.00138 0.239759 1.57685
1.08602 0.244107 1.5768
1.15229 0.233334 1.57678
0.756097 0.27896 1.57697
0.151636 0.314227 1.57731
0.508442 0.312421 1.57676
1.03967 0.299975 1.57711
0.117876 0.374025 1.58344
0.193472 0.371634 1.57594
0.244572 0.34422 1.58121
0.343569 0.346151 1.57634
0.447888 0.34401 1.57647
0.598397 0.356726 1.57932
0.734621 0.359847 1.57692
0.830835 0.368548 1.57686
0.273268 0.409255 1.57856
0.414177 0.398401 1.5754
0.559171 0.403489 1.57692
0.886657 0.396046 1.57686
0.113767 0.442227 1.58089
0.497636 0.409366 1.57695
0.695002 0.41722 1.57686
0.754046 0.443234 1.57672
0.979379 0.411288 1.57642
0.254885 0.466692 1.57685
0.351825 0.455479 1.5745
0.547789 0.469263 1.57825
0.60548 0.448535 1.57729
0.819786 0.469207 1.57623
0.997269 0.476022 1.58431
1.22469 0.451588 1.57686
0.195983 0.501157 1.5751
0.410798 0.47909 1.57511
0.474071 0.496842 1.57453
0.682823 0.509031 1.57873
1.08005 0.515702 1.57686
0.0434446 0.538304 1.58426
0.145547 0.545524 1.57946
0.388634 0.539652 1.57735
0.749971 0.524865 1.57681
1.13135 0.549282 1.57687
1.28722 0.524746 1.57686
0.312301 0.563605 1.5774
0.465177 0.554936 1.57999
0.539352 0.561309 1.57796
0.687164 0.569247 1.57873
0.741796 0.587419 1.59692
0.820011 0.567593 1.57707
0.876305 0.566592 1.59871
0.990635 0.562006 1.57674
1.04638 0.576275 1.58584
0.458971 0.154712 1.60704
0.516408 0.164885 1.62589
0.124342 0.221622 1.62193
0.388061 0.198846 1.63973
0.419963 0.254315 1.63666
0.513854 0.264661 1.61931
0.72153 0.237285 1.60313
0.235594 0.29492 1.6184
0.302736 0.298234 1.6165
0.563337 0.301557 1.59673
0.374929 0.314154 1.61542
0.636813 0.316301 1.6067
0.28982 0.36202 1.61662
0.516622 0.350007 1.62863
1.00836 0.374986 1.6136
0.161589 0.376713 1.62614
0.429237 0.376444 1.62698
0.445088 0.437837 1.62116
0.123715 0.454156 1.64388
0.3742 0.450816 1.62736
0.504109 0.457216 1.62307
0.618215 0.466994 1.6344
0.713102 0.470694 1.61057
0.104613 0.514342 1.62727
0.291221 0.510271 1.59878
0.848868 0.504762 1.61169
0.344691 0.533165 1.61622
0.416933 0.542456 1.63203
0.567941 0.564031 1.63108
0.428603 0.604725 1.61406
0.595472 0.618602 1.6298
0.360497 0.115768 1.65287
0.602206 0.112382 1.65097
0.796076 0.121277 1.64166
0.829962 0.169279 1.65644
0.209058 0.240513 1.63851
0.267276 0.257062 1.66906
0.332091 0.251142 1.63582
0.580882 0.250026 1.63535
0.786276 0.240531 1.63415
0.656236 0.283277 1.65394
0.732807 0.283092 1.63974
0.439435 0.321805 1.64221
0.389776 0.344713 1.66683
0.650806 0.376755 1.63428
0.362915 0.395775 1.64378
0.483452 0.392017 1.65447
0.559495 0.411613 1.64436
0.257878 0.432454 1.63631
0.193864 0.484664 1.62873
0.269181 0.499838 1.65312
0.470584 0.510585 1.64025
0.654229 0.574491 1.64575
0.808313 0.557524 1.63973
0.332479 0.620033 1.62771
0.482987 0.299418 1.67324
0.230407 0.340128 1.67626
0.320959 0.362593 1.67588
0.811285 0.389238 1.69313
0.313596 0.431776 1.67564
0.531225 0.435029 1.69619
0.68898 0.445049 1.67713
0.567017 0.527844 1.68111
0.598902 0.583785 1.68719
0.664492 0.673791 1.68296
0.668097 0.22927 1.71135
0.417913 0.266516 1.7
0.103577 0.34242 1.68233
0.227036 0.399722 1.7141
0.380951 0.4042 1.69539
0.448915 0.39365 1.71242
0.441781 0.458388 1.68613
0.131353 0.513692 1.67866
0.550998 0.76422 1.73446
0.25462 0.262002 1.72399
0.121033 0.279919 1.7222
0.187546 0.294736 1.74002
0.28744 0.358439 1.7214
0.35506 0.52072 1.73568
0.365118 0.235733 1.78321
0.378219 0.307765 1.76621
0.200976 0.455034 1.78137
0.208645 0.523817 1.76901
0.360498 0.363939 1.7988
0.10427 0.421706 1.79378
0.317689 0.454971 1.8106
0.491668 0.49724 1.80638
0.29951 0.265646 1.85128
0.26261 0.317421 1.85099
0.121236 0.342722 1.85178
0.234882 0.370686 1.84501
0.124302 0.506318 1.85981
0.387139 0.48601 1.8419
0.136955 0.241756 1.88669
0.478513 0.241448 1.87909
0.200031 0.295208 1.88108
0.352336 0.290052 1.89441
0.43656 0.349215 1.88069
0.288982 0.398489 1.88466
0.41824 0.41741 1.88591
0.250123 0.467148 1.87365
0.302009 0.506095 1.89334
0.18594 0.400862 1.89678
0.485376 0.385518 1.9141
0.106832 0.451129 1.9194
0.485548 0.450278 1.89675
0.473517 0.305435 1.93677
0.195772 0.344168 1.95803
0.323211 0.457255 1.95103
0.398493 0.508779 1.96788
0.180109 0.517525 1.9488
0.136852 0.289242 1.97539
0.211371 0.280829 1.99558
0.416409 0.288456 1.9774
0.269256 0.359202 1.98621
0.485374 0.358108 2.00458
0.218921 0.397847 1.98658
0.349719 0.399621 1.99619
0.169637 0.459874 2.006
0.428381 0.4467 1.98098
0.245914 0.511668 1.99447
0.466202 0.49757 1.99075
0.260718 0.244031 2.01511
0.346739 0.243699 2.04332
0.411604 0.238101 2.03811
0.305852 0.287522 2.00993
0.499385 0.279499 2.01722
0.373442 0.329195 2.01912
0.102791 0.340368 2.01972
0.422187 0.378047 2.00892
0.478405 0.411198 2.04486
0.103225 0.518985 2.00976
0.174537 0.231131 2.04705
0.469838 0.243492 2.06354
0.108104 0.281799 2.04624
0.157239 0.333515 2.04883
0.121741 0.410905 2.07674
0.189941 0.428545 2.06494
0.267329 0.456169 2.06542
0.370548 0.454286 2.04699
0.43276 0.446836 2.0646
0.122063 0.498448 2.07566
0.209404 0.487055 2.0518
0.341446 0.508108 2.06034
0.429885 0.51089 2.07308
0.144959 0.253084 2.0999
0.283642 0.234209 2.08096
0.225054 0.287898 2.08782
0.353756 0.288308 2.1021
0.419349 0.297497 2.11155
0.107864 0.308056 2.1137
0.268169 0.352895 2.08098
0.478946 0.338932 2.08164
0.33513 0.393755 2.09779
0.434422 0.399982 2.10934
0.177321 0.473873 2.1123
0.3755 0.471214 2.10858
0.496878 0.474265 2.08193
0.287754 0.512498 2.10063
0.222298 0.231508 2.11943
0.482317 0.228242 2.14854
0.386528 0.235346 2.14474
0.17305 0.29572 2.14163
0.280967 0.269166 2.14746
0.32031 0.335135 2.1267
0.216531 0.381594 2.11634
0.289149 0.393948 2.14364
0.10269 0.478868 2.15007
0.265427 0.473439 2.14144
0.487332 0.44601 2.14319
0.230707 0.52291 2.13918
0.100828 0.246005 2.16484
0.334084 0.267131 2.17623
0.383935 0.304407 2.18118
0.470734 0.315695 2.15592
0.189473 0.369831 2.18465
0.383297 0.361785 2.16306
0.142292 0.405308 2.15272
0.495324 0.379459 2.16665
0.238696 0.425254 2.17413
0.338206 0.47604 2.16542
0.405771 0.451899 2.16402
0.477819 0.52568 2.161
0.410316 0.229607 2.20717
0.227735 0.245208 2.19361
0.479511 0.263195 2.2025
0.283481 0.328862 2.19466
0.104364 0.371175 2.18875
0.433942 0.344323 2.19524
0.124882 0.444445 2.19537
0.292698 0.428673 2.20157
0.367427 0.412219 2.19779
0.436973 0.45447 2.2186
0.498994 0.449521 2.21904
0.387806 0.497135 2.20601
0.10683 0.52412 2.21027
0.307197 0.231054 2.22934
0.112238 0.243444 2.23138
0.196779 0.286134 2.24798
0.338106 0.302046 2.23158
0.144627 0.329159 2.23743
0.488965 0.329122 2.22107
0.388723 0.350133 2.24272
0.26384 0.382845 2.23039
0.180002 0.445959 2.25427
0.336562 0.447813 2.2453
0.197767 0.505506 2.22969
0.316599 0.507618 2.24974
0.498691 0.522189 2.22147
0.299287 0.247375 2.28679
0.442411 0.236129 2.28895
0.498503 0.253983 2.26572
0.432796 0.302258 2.27979
0.322732 0.35929 2.26017
0.476186 0.343657 2.28982
0.179678 0.383211 2.25608
0.499396 0.409304 2.28395
0.404531 0.416433 2.25679
0.230608 0.478968 2.27273
0.133145 0.50156 2.2651
0.4192 0.521596 2.25807
0.196226 0.26238 2.31567
0.356376 0.254196 2.3177
0.126939 0.284236 2.29643
0.187834 0.32549 2.30014
0.256147 0.321804 2.31011
0.345572 0.308923 2.29327
0.110703 0.374435 2.31211
0.415762 0.389621 2.31827
0.282511 0.427246 2.30226
0.107302 0.455042 2.31596
0.180798 0.510604 2.30163
0.383426 0.485675 2.2955
0.49838 0.508374 2.32212
0.271982 0.260644 2.3508
0.321856 0.294278 2.34913
0.44222 0.295647 2.34067
0.346145 0.350757 2.34426
0.282424 0.374546 2.35858
0.475094 0.383761 2.33966
0.214879 0.429082 2.32971
0.466199 0.451954 2.34462
0.104255 0.515661 2.35241
0.236464 0.494005 2.34237
0.430217 0.500721 2.34499
0.339305 0.526873 2.33754
0.103324 0.228818 2.37871
0.161403 0.258279 2.37827
0.363615 0.240431 2.38399
0.425069 0.242959 2.38512
0.499192 0.246026 2.38267
0.125428 0.344451 2.36441
0.189012 0.364304 2.37306
0.415188 0.353574 2.36906
0.115455 0.44409 2.3745
0.323589 0.424937 2.3671
0.40415 0.414672 2.38454
0.158807 0.499296 2.39065
0.370433 0.49856 2.38148
0.264146 0.523422 2.38795
0.220666 0.238837 2.42734
0.257372 0.298287 2.41437
0.31493 0.348737 2.40385
0.484684 0.362834 2.41124
0.125062 0.39201 2.41589
0.217234 0.387064 2.42563
0.417911 0.469013 2.42692
0.393674 0.233628 2.44132
0.17717 0.298235 2.4392
0.314466 0.284399 2.43272
0.492483 0.279077 2.4344
0.417494 0.317622 2.43147
0.107591 0.339963 2.44367
0.385775 0.387923 2.44657
0.449749 0.403068 2.43884
0.139724 0.459766 2.44164
0.263093 0.452487 2.43205
0.486571 0.452792 2.43556
0.220758 0.508511 2.43861
0.312076 0.491969 2.4376
0.490194 0.521396 2.44111
VERTICES 353 706
1 0
1 1
1 2
1 3
1 4
1 5
1 6
1 7
1 8
1 9
1 10
1 11
1 12
1 13
1 14
1 15
1 16
1 17
1 18
1 19
1 20
1 21
1 22
1 23
1 24
1 25
1 26
1 27
1 28
1 29
1 30
1 31
1 32
1 33
1 34
1 35
1 36
1 37
1 38
1 39
1 40
1 41
1 42
1 43
1 44
1 45
1 46
1 47
1 48
1 49
1 50
1 51
1 52
1 53
1 54
1 55
1 56
1 57
1 58
1 59
1 60
1 61
1 62
1 63
1 64
1 65
1 66
1 67
1 68
1 69
1 70
1 71
1 72
1 73
1 74
1 75
1 76
1 77
1 78
1 79
1 80
1 81
1 82
1 83
1 84
1 85
1 86
1 87
1 88
1 89
1 90
1 91
1 92
1 93
1 94
1 95
1 96
1 97
1 98
1 99
1 100
1 101
1 102
1 103
1 104
1 105
1 106
1 107
1 108
1 109
1 110
1 111
1 112
1 113
1 114
1 115
1 116
1 117
1 118
1 119
1 120
1 121
1 122
1 123
1 124
1 125
1 126
1 127
1 128
1 129
1 130
1 131
1 132
1 133
1 134
1 135
1 136
1 137
1 138
1 139
1 140
1 141
1 142
1 143
1 144
1 145
1 146
1 147
1 148
1 149
1 150
1 151
1 152
1 153
1 154
1 155
1 156
1 157
1 158
1 159
1 160
1 161
1 162
1 163
1 164
1 165
1 166
1 167
1 168
1 169
1 170
1 171
1 172
1 173
1 174
1 175
1 176
1 177
1 178
1 179
1 180
1 181
1 182
1 183
1 184
1 185
1 186
1 187
1 188
1 189
1 190
1 191
1 192
1 193
1 194
1 195
1 196
1 197
1 198
1 199
1 200
1 201
1 202
1 203
1 204
1 205
1 206
1 207
1 208
1 209
1 210
1 211
1 212
1 213
1 214
1 215
1 216
1 217
1 218
1 219
1 220
1 221
1 222
1 223
1 224
1 225
1 226
1 227
1 228
1 229
1 230
1 231
1 232
1 233
1 234
1 235
1 236
1 237
1 238
1 239
1 240
1 241
1 242
1 243
1 244
1 245
1 246
1 247
1 248
1 249
1 250
1 251
1 252
1 253
1 254
1 255
1 256
1 257
1 258
1 259
1 260
1 261
1 262
1 263
1 264
1 265
1 266
1 267
1 268
1 269
1 270
1 271
1 272
1 273
1 274
1 275
1 276
1 277
1 278
1 279
1 280
1 281
1 282
1 283
1 284
1 285
1 286
1 287
1 288
1 289
1 290
1 291
1 292
1 293
1 294
1 295
1 296
1 297
1 298
1 299
1 300
1 301
1 302
1 303
1 304
1 305
1 306
1 307
1 308
1 309
1 310
1 311
1 312
1 313
1 314
1 315
1 316
1 317
1 318
1 319
1 320
1 321
1 322
1 323
1 324
1 325
1 326
1 327
1 328
1 329
1 330
1 331
1 332
1 333
1 334
1 335
1 336
1 337
1 338
1 339
1 340
1 341
1 342
1 343
1 344
1 345
1 346
1 347
1 348
1 349
1 350
1 351
1 352
POINT_DATA 353
VECTORS i float
0.0 0.0 0.0
0.0 0.0 0.0
0.0 0.0 0.0
0.0 0.0 0.0
0.0 0.0 0.0
0.0 0.0 0.0
0.0 0.0 0.0
0.0 0.0 0.0
0.0 0.0 0.0
0.0 0.0 0.0
0.0 0.0 0.0
0.0 0.0 0.0
0.0 0.0 0.0
0.0 0.0 0.0
0.0 0.0 0.0
0.0 0.0 0.0
0.0 0.0 0.0
0.0 0.0 0.0
0.0 0.0 0.0
0.0 0.0 0.0
0.0 0.0 0.0
0.0 0.0 0.0
0.0 0.0 0.0
0.0 0.0 0.0
0.0 0.0 0.0
0.0 0.0 0.0
0.0 0.0 0.0
0.0 0.0 0.0
0.0 0.0 0.0
0.0 0.0 0.0
0.0 0.0 0.0
0.0 0.0 0.0
0.0 0.0 0.0
0.0 0.0 0.0
0.0 0.0 0.0
0.0 0.0 0.0
0.0 0.0 0.0
0.0 0.0 0.0
0.0 0.0 0.0
0.0 0.0 0.0
0.0 0.0 0.0
0.0 0.0 0.0
0.0 0.0 0.0
0.0 0.0 0.0
0.0 0.0 0.0
0.0 0.0 0.0
0.0 0.0 0.0
0.0 0.0 0.0
0.0 0.0 0.0
0.0 0.0 0.0
0.0 0.0 0.0
0.0 0.0 0.0
0.0 0.0 0.0
0.0 0.0 0.0
0.0 0.0 0.0
0.0 0.0 0.0
0.0 0.0 0.0
0.0 0.0 0.0
0.0 0.0 0.0
0.0 0.0 0.0
0.0 0.0 0.0
0.0 0.0 0.0
0.0 0.0 0.0
0.0 0.0 0.0
0.0 0.0 0.0
0.0 0.0 0.0
0.0 0.0 0.0
0.0 0.0 0.0
0.0 0.0 0.0
0.0 0.0 0.0
0.0 0.0 0.0
0.0 0.0 0.0
0.0 0.0 0.0
0.0 0.0 0.0
0.0 0.0 0.0
0.0 0.0 0.0
0.0 0.0 0.0
0.0 0.0 0.0
0.0 0.0 0.0
0.0 0.0 0.0
0.0 0.0 0.0
0.0 0.0 0.0
0.0 0.0 0.0
0.0 0.0 0.0
0.0 0.0 0.0
0.0 0.0 0.0
0.0 0.0 0.0
0.0 0.0 0.0
0.0 0.0 0.0
0.0 0.0 0.0
0.0 0.0 0.0
0.0 0.0 0.0
0.0 0.0 0.0
0.0 0.0 0.0
0.0 0.0 0.0
0.0 0.0 0.0
0.0 0.0 0.0
0.0 0.0 0.0
0.0 0.0 0.0
0.0 0.0 0.0
0.0 0.0 0.0
0.0 0.0 0.0
0.0 0.0 0.0
0.0 0.0 0.0
0.0 0.0 0.0
0.0 0.0 0.0
0.0 0.0 0.0
0.0 0.0 0.0
0.0 0.0 0.0
0.0 0.0 0.0
0.0 0.0 0.0
0.0 0.0 0.0
0.0 0.0 0.0
0.0 0.0 0.0
0.0 0.0 0.0
0.0 0.0 0.0
0.0 0.0 0.0
0.0 0.0 0.0
0.0 0.0 0.0
0.0 0.0 0.0
0.0 0.0 0.0
0.0 0.0 0.0
0.0 0.0 0.0
0.0 0.0 0.0
0.0 0.0 0.0
0.0 0.0 0.0
0.0 0.0 0.0
0.0 0.0 0.0
0.0 0.0 0.0
0.0 0.0 0.0
0.0 0.0 0.0
0.0 0.0 0.0
0.0 0.0 0.0
0.0 0.0 0.0
0.0 0.0 0.0
0.0 0.0 0.0
0.0 0.0 0.0
0.0 0.0 0.0
0.0 0.0 0.0
0.0 0.0 0.0
0.0 0.0 0.0
0.0 0.0 0.0
0.0 0.0 0.0
0.0 0.0 0.0
0.0 0.0 0.0
0.0 0.0 0.0
0.0 0.0 0.0
0.0 0.0 0.0
0.0 0.0 0.0
0.0 0.0 0.0
0.0 0.0 0.0
0.0 0.0 0.0
0.0 0.0 0.0
0.0 0.0 0.0
0.0 0.0 0.0
0.0 0.0 0.0
0.0 0.0 0.0
0.0 0.0 0.0
0.0 0.0 0.0
0.0 0.0 0.0
0.0 0.0 0.0
0.0 0.0 0.0
0.0 0.0 0.0
0.0 0.0 0.0
0.0 0.0 0.0
0.0 0.0 0.0
0.0 0.0 0.0
0.0 0.0 0.0
0.0 0.0 0.0
0.0 0.0 0.0
0.0 0.0 0.0
0.0 0.0 0.0
0.0 0.0 0.0
0.0 0.0 0.0
0.0 0.0 0.0
0.0 0.0 0.0
0.0 0.0 0.0
0.0 0.0 0.0
0.0 0.0 0.0
0.0 0.0 0.0
0.0 0.0 0.0
0.0 0.0 0.0
0.0 0.0 0.0
0.0 0.0 0.0
0.0 0.0 0.0
0.0 0.0 0.0
0.0 0.0 0.0
0.0 0.0 0.0
0.0 0.0 0.0
0.0 0.0 0.0
0.0 0.0 0.0
0.0 0.0 0.0
0.0 0.0 0.0
0.0 0.0 0.0
0.0 0.0 0.0
0.0 0.0 0.0
0.0 0.0 0.0
0.0 0.0 0.0
0.0 0.0 0.0
0.0 0.0 0.0
0.0 0.0 0.0
0.0 0.0 0.0
0.0 0.0 0.0
0.0 0.0 0.0
0.0 0.0 0.0
0.0 0.0 0.0
0.0 0.0 0.0
0.0 0.0 0.0
0.0 0.0 0.0
0.0 0.0 0.0
0.0 0.0 0.0
0.0 0.0 0.0
0.0 0.0 0.0
0.0 0.0 0.0
0.0 0.0 0.0
0.0 0.0 0.0
0.0 0.0 0.0
0.0 0.0 0.0
0.0 0.0 0.0
0.0 0.0 0.0
0.0 0.0 0.0
0.0 0.0 0.0
0.0 0.0 0.0
0.0 0.0 0.0
0.0 0.0 0.0
0.0 0.0 0.0
0.0 0.0 0.0
0.0 0.0 0.0
0.0 0.0 0.0
0.0 0.0 0.0
0.0 0.0 0.0
0.0 0.0 0.0
0.0 0.0 0.0
0.0 0.0 0.0
0.0 0.0 0.0
0.0 0.0 0.0
0.0 0.0 0.0
0.0 0.0 0.0
0.0 0.0 0.0
0.0 0.0 0.0
0.0 0.0 0.0
0.0 0.0 0.0
0.0 0.0 0.0
0.0 0.0 0.0
0.0 0.0 0.0
0.0 0.0 0.0
0.0 0.0 0.0
0.0 0.0 0.0
0.0 0.0 0.0
0.0 0.0 0.0
0.0 0.0 0.0
0.0 0.0 0.0
0.0 0.0 0.0
0.0 0.0 0.0
0.0 0.0 0.0
0.0 0.0 0.0
0.0 0.0 0.0
0.0 0.0 0.0
0.0 0.0 0.0
0.0 0.0 0.0
0.0 0.0 0.0
0.0 0.0 0.0
0.0 0.0 0.0
0.0 0.0 0.0
0.0 0.0 0.0
0.0 0.0 0.0
0.0 0.0 0.0
0.0 0.0 0.0
0.0 0.0 0.0
0.0 0.0 0.0
0.0 0.0 0.0
0.0 0.0 0.0
0.0 0.0 0.0
0.0 0.0 0.0
0.0 0.0 0.0
0.0 0.0 0.0
0.0 0.0 0.0
0.0 0.0 0.0
0.0 0.0 0.0
0.0 0.0 0.0
0.0 0.0 0.0
0.0 0.0 0.0
0.0 0.0 0.0
0.0 0.0 0.0
0.0 0.0 0.0
0.0 0.0 0.0
0.0 0.0 0.0
0.0 0.0 0.0
0.0 0.0 0.0
0.0 0.0 0.0
0.0 0.0 0.0
0.0 0.0 0.0
0.0 0.0 0.0
0.0 0.0 0.0
0.0 0.0 0.0
0.0 0.0 0.0
0.0 0.0 0.0
0.0 0.0 0.0
0.0 0.0 0.0
0.0 0.0 0.0
0.0 0.0 0.0
0.0 0.0 0.0
0.0 0.0 0.0
0.0 0.0 0.0
0.0 0.0 0.0
0.0 0.0 0.0
0.0 0.0 0.0
0.0 0.0 0.0
0.0 0.0 0.0
0.0 0.0 0.0
0.0 0.0 0.0
0.0 0.0 0.0
0.0 0.0 0.0
0.0 0.0 0.0
0.0 0.0 0.0
0.0 0.0 0.0
0.0 0.0 0.0
0.0 0.0 0.0
0.0 0.0 0.0
0.0 0.0 0.0
0.0 0.0 0.0
0.0 0.0 0.0
0.0 0.0 0.0
0.0 0.0 0.0
0.0 0.0 0.0
0.0 0.0 0.0
0.0 0.0 0.0
0.0 0.0 0.0
0.0 0.0 0.0
0.0 0.0 0.0
0.0 0.0 0.0
0.0 0.0 0.0
0.0 0.0 0.0
0.0 0.0 0.0
0.0 0.0 0.0
0.0 0.0 0.0
0.0 0.0 0.0
0.0 0.0 0.0
0.0 0.0 0.0
0.0 0.0 0.0
0.0 0.0 0.0
0.0 0.0 0.0
0.0 0.0 0.0
0.0 0.0 0.0
0.0 0.0 0.0
0.0 0.0 0.0
0.0 0.0 0.0
0.0 0.0 0.0
0.0 0.0 0.0
0.0 0.0 0.0
0.0 0.0 0.0
0.0 0.0 0.0
0.0 0.0 0.0
VECTORS f float
1.03157 10.4304 8.45781
-3.03787 4.14531 1.59451
0.0899494 1.63105 -0.112709
1.35418 -0.199915 -0.570491
0.0590759 -0.00300598 1.27707
0.0 0.0 -2.77371
0.0 0.0 -2.77371
2.3137e-05 0.989694 -0.98792
-0.00391137 0.000390101 -0.899356
0.0934955 1.0647 0.412135
0.0 0.0 -2.77371
0.0 0.0 -2.77371
1.20131 5.9426 -1.94432
22.0966 -15.0465 28.8186
1.50704 -0.102759 0.24737
57.4705 -3.36648 -64.5427
-0.722175 -0.11875 -1.27313
0.0 0.0 -2.77371
0.0 0.0 -2.77371
0.217229 0.330911 -0.205432
0.0 0.0 -2.77371
0.00293008 4.69008e-05 0.154627
-0.00464168 -0.100345 1.79537
2.49587 0.814875 5.99165
-0.123672 -0.0263652 -1.95698
0.0 0.0 -2.77371
-7.36098 1.6736 -11.2533
-0.0996263 -0.226826 0.130818
0.0 0.0 -2.77371
-28.7529 14.174 -14.4596
27.7931 -15.5857 16.9357
-0.279654 -0.896703 -1.56467
-0.884842 -1.39302 5.58654
0.0 0.0 -2.77371
0.0776056 0.00539978 0.267348
-1.13045e-06 1.13493e-07 6.37789e-05
0.0 0.0 -2.77371
-7.38665 33.6312 -1.28663
0.897269 -0.905863 -0.22367
-0.00170862 -4.63777e-05 -0.0206674
0.0 0.0 -2.77371
0.0588823 0.00386791 -0.70378
0.00410423 6.45163e-05 0.0254857
2.08699 -0.634265 0.98945
0.155287 2.08238 2.88211
0.349188 -1.50772 0.321542
-8.14875 12.4432 13.6548
0.0 0.0 -2.77371
0.0 0.0 -2.77371
7.0176 4.01376 -19.2645
0.0 0.0 -2.77371
5.31109e-09 -5.15064e-10 -2.33116e-07
4.13596 10.0201 -56.2841
28.1293 -3.07275 53.8196
60.8399 -6.41306 123.27
-16.502 20.0951 -17.2292
2.85334e-05 -9.12576e-06 -0.00123157
0.0 0.0 -2.77371
0.0 0.0 -2.77371
11.9402 -6.13587 -14.5872
-0.0943008 0.00803275 -0.110299
-0.000863913 0.000309581 -0.0670278
1.7013e-10 -7.11186e-12 -2.58876e-08
-22.6006 11.8652 -94.2655
0.411557 9.79288 -6.12838
0.0 0.0 -2.77371
0.0 0.0 -2.77371
0.0 0.0 -2.77371
-3.33859 0.275195 0.989842
0.0 0.0 -2.77371
-17.4837 -5.26715 13.8107
31.2786 7.6035 8.62458
0.859099 10.1799 2.036
0.0 0.0 -2.77371
0.0 0.0 -2.77371
0.0 0.0 -2.77371
0.0 0.0 -2.77371
0.0 0.0 -2.77371
-8.25021 -4.30786 -9.1595
0.0 0.0 -2.77371
-14.9907 20.8595 -28.9837
15.9541 -3.39309 14.231
0.799336 -0.149807 -1.64587
0.0 0.0 -2.77371
0.0 0.0 -2.77371
4.29488 -9.512 -15.233
1.2703 -3.40652 4.32059
1.97043 0.904981 -13.0583
-11.1112 25.5231 14.2261
0.0 0.0 -2.77371
0.0 0.0 -2.77371
11.7852 10.9275 20.4618
0.0 0.0 -2.77371
0.0 0.0 -2.77371
14.3764 -19.5928 12.2828
-124.196 19.32 -124.476
1.0342 1.93729 -5.16555
17.141 22.9681 56.4814
10.6604 -5.72936 100.532
0.0 0.0 -2.77371
0.0 0.0 -2.77371
1.05119 -2.214 -1.48531
0.0 0.0 -2.77371
0.0 0.0 -2.77371
0.0 0.0 -2.77371
0.000240884 1.00743 -0.971886
0.0 0.0 -2.77371
0.0 0.0 -2.77371
25.0504 17.0981 -147.186
-44.474 -6.00167 93.0834
0.0 0.0 -2.77371
-0.0146939 0.164343 -2.35995
0.0 0.0 -2.77371
7.26585 6.78584 4.28871
7.89245 -41.1478 22.8086
0.110118 -0.0870978 -2.93271
0.0 0.0 -2.77371
-45.4227 -33.0034 -118.102
-4.29488 9.512 9.68555
0.0 0.0 -2.77371
0.0 0.0 -2.77371
-3.06556 -30.9696 125.57
-1.0342 -1.93729 -0.381878
0.0 0.0 -2.77371
0.0 0.0 -2.77371
0.0 0.0 -2.77371
53.1259 -78.2314 69.6985
15.0551 -19.1452 5.00954
0.0 0.0 -2.77371
59.1806 6.60884 -109.002
0.0 0.0 -2.77371
0.0 0.0 -2.77371
0.0 0.0 -2.77371
0.0 0.0 -2.77371
0.0 0.0 -2.77371
0.0 0.0 -2.77371
0.636819 -0.790967 -1.27996
0.0 0.0 -2.77371
0.0 0.0 -2.77371
0.0 0.0 -2.77371
0.0 0.0 -2.77371
44.721 11.0481 131.982
0.0 0.0 -2.77371
0.0 0.0 -2.77371
124.196 -19.32 118.929
0.0 0.0 -2.77371
-25.0504 -17.0981 141.638
0.0 0.0 -2.77371
0.0 0.0 -2.77371
-59.1806 -6.60884 103.455
0.0 0.0 -2.77371
0.0 0.0 -2.77371
0.0 0.0 -2.77371
0.0 0.0 -2.77371
0.0 0.0 -2.77371
0.0 0.0 -2.77371
0.0 0.0 -2.77371
0.0 0.0 -2.77371
0.0 0.0 -2.77371
0.0 0.0 -2.77371
0.0 0.0 -2.77371
0.0 0.0 -2.77371
0.0 0.0 -2.77371
0.0 0.0 -2.77371
0.0 0.0 -2.77371
0.0 0.0 -2.77371
0.0 0.0 -2.77371
0.0 0.0 -2.77371
0.0 0.0 -2.77371
0.0 0.0 -2.77371
0.0 0.0 -2.77371
0.0 0.0 -2.77371
0.0 0.0 -2.77371
0.0 0.0 -2.77371
0.0 0.0 -2.77371
0.0 0.0 -2.77371
0.0 0.0 -2.77371
0.0 0.0 -2.77371
0.0 0.0 -2.77371
0.0 0.0 -2.77371
0.0 0.0 -2.77371
0.0 0.0 -2.77371
0.0 0.0 -2.77371
0.0 0.0 -2.77371
0.0 0.0 -2.77371
0.0 0.0 -2.77371
0.0 0.0 -2.77371
0.0 0.0 -2.77371
0.0 0.0 -2.77371
0.0 0.0 -2.77371
0.0 0.0 -2.77371
0.0 0.0 -2.77371
0.0 0.0 -2.77371
0.0 0.0 -2.77371
0.0 0.0 -2.77371
0.0 0.0 -2.77371
0.0 0.0 -2.77371
0.0 0.0 -2.77371
0.0 0.0 -2.77371
0.0 0.0 -2.77371
0.0 0.0 -2.77371
0.0 0.0 -2.77371
0.0 0.0 -2.77371
0.0 0.0 -2.77371
0.0 0.0 -2.77371
0.0 0.0 0.0
0.0 0.0 -2.77371
0.0 0.0 0.0
0.0 0.0 0.0
0.0 0.0 0.0
0.0 0.0 0.0
0.0 0.0 -2.77371
0.0 0.0 0.0
0.0 0.0 0.0
0.0 0.0 0.0
0.0 0.0 0.0
0.0 0.0 0.0
0.0 0.0 0.0
0.0 0.0 0.0
0.0 0.0 0.0
0.0 0.0 0.0
0.0 0.0 0.0
0.0 0.0 0.0
0.0 0.0 0.0
0.0 0.0 0.0
0.0 0.0 0.0
0.0 0.0 0.0
0.0 0.0 0.0
0.0 0.0 0.0
0.0 0.0 0.0
0.0 0.0 0.0
0.0 0.0 0.0
0.0 0.0 0.0
0.0 0.0 0.0
0.0 0.0 0.0
0.0 0.0 0.0
0.0 0.0 0.0
0.0 0.0 0.0
0.0 0.0 0.0
0.0 0.0 0.0
0.0 0.0 0.0
0.0 0.0 0.0
0.0 0.0 0.0
0.0 0.0 0.0
0.0 0.0 0.0
0.0 0.0 0.0
0.0 0.0 0.0
0.0 0.0 0.0
0.0 0.0 0.0
0.0 0.0 0.0
0.0 0.0 0.0
0.0 0.0 0.0
0.0 0.0 0.0
0.0 0.0 0.0
0.0 0.0 0.0
0.0 0.0 0.0
0.0 0.0 0.0
0.0 0.0 0.0
0.0 0.0 0.0
0.0 0.0 0.0
0.0 0.0 0.0
0.0 0.0 0.0
0.0 0.0 0.0
0.0 0.0 0.0
0.0 0.0 0.0
0.0 0.0 0.0
0.0 0.0 0.0
0.0 0.0 0.0
0.0 0.0 0.0
0.0 0.0 0.0
0.0 0.0 0.0
0.0 0.0 0.0
0.0 0.0 0.0
0.0 0.0 0.0
0.0 0.0 0.0
0.0 0.0 0.0
0.0 0.0 0.0
0.0 0.0 0.0
0.0 0.0 0.0
0.0 0.0 0.0
0.0 0.0 0.0
0.0 0.0 0.0
0.0 0.0 0.0
0.0 0.0 0.0
0.0 0.0 0.0
0.0 0.0 0.0
0.0 0.0 0.0
0.0 0.0 0.0
0.0 0.0 0.0
0.0 0.0 0.0
0.0 0.0 0.0
0.0 0.0 0.0
0.0 0.0 0.0
0.0 0.0 0.0
0.0 0.0 0.0
0.0 0.0 0.0
0.0 0.0 0.0
0.0 0.0 0.0
0.0 0.0 0.0
0.0 0.0 0.0
0.0 0.0 0.0
0.0 0.0 0.0
0.0 0.0 0.0
0.0 0.0 0.0
0.0 0.0 0.0
0.0 0.0 0.0
0.0 0.0 0.0
0.0 0.0 0.0
0.0 0.0 0.0
0.0 0.0 0.0
0.0 0.0 0.0
0.0 0.0 0.0
0.0 0.0 0.0
0.0 0.0 0.0
0.0 0.0 0.0
0.0 0.0 0.0
0.0 0.0 0.0
0.0 0.0 0.0
0.0 0.0 0.0
0.0 0.0 0.0
0.0 0.0 0.0
0.0 0.0 0.0
0.0 0.0 0.0
0.0 0.0 0.0
0.0 0.0 0.0
0.0 0.0 0.0
0.0 0.0 0.0
0.0 0.0 0.0
0.0 0.0 0.0
0.0 0.0 0.0
0.0 0.0 0.0
0.0 0.0 0.0
0.0 0.0 0.0
0.0 0.0 0.0
0.0 0.0 0.0
0.0 0.0 0.0
0.0 0.0 0.0
0.0 0.0 0.0
0.0 0.0 0.0
0.0 0.0 0.0
0.0 0.0 0.0
0.0 0.0 0.0
0.0 0.0 0.0
0.0 0.0 0.0
0.0 0.0 0.0
0.0 0.0 0.0
0.0 0.0 0.0
0.0 0.0 0.0
0.0 0.0 0.0
0.0 0.0 0.0
0.0 0.0 0.0
0.0 0.0 0.0
0.0 0.0 0.0
VECTORS omega float
6.40083 -76.9172 42.0311
12.2415 -88.1904 12.1278
-1.42246 -75.8968 26.5894
3.24082 -72.2388 8.16059
2.25178 -59.2308 15.7464
6.52143 42.9333 -4.19797
6.9298 -59.5667 26.3043
-18.8931 -77.7739 17.542
3.1507 -57.4874 -2.48067
-4.70317 -66.8145 14.3092
16.1418 -7.25474 0.470599
-26.6579 57.7721 24.0087
-5.5552 -79.0155 18.299
5.94769 -113.98 17.7039
11.5583 -92.5836 -27.3734
2.02207 -80.8945 -31.1547
12.733 -79.3072 -7.32215
-1.76029 -23.8667 0.501356
-15.9498 -1.70656 2.23724
0.21025 -57.8741 -1.82034
15.7303 -50.8947 -1.4559
0.77587 -48.4479 -17.508
3.43311 -53.7383 4.31031
-0.499314 -48.5919 4.2775
-2.53717 -57.0224 13.423
-8.76427 25.8515 -2.60726
0.536539 -72.0144 6.43698
13.6604 -42.8271 -22.4362
41.7624 -89.4904 -8.69238
13.7727 -75.5153 -7.58159
-2.15395 -68.326 17.6067
11.2165 -96.1747 -11.616
4.87754 -62.209 -1.64416
12.4661 -69.3081 6.05725
3.93309 -56.4712 -7.19384
-7.0508 -70.2292 16.1048
8.22332 -20.8516 -11.2331
-11.7333 -61.729 7.47083
10.062 -48.4155 -7.19402
1.95244 -71.93 -1.0062
2.64177 -97.1876 -5.72934
5.89993 -65.2456 6.17372
0.927276 -59.2372 -9.34871
-2.74921 -65.3088 -9.33507
-4.42253 -65.1043 0.257102
-12.8966 -98.9436 -2.23564
-11.5584 -76.4847 4.92773
-2.06517 -55.9603 14.4084
-6.87116 -44.0705 -4.19448
-5.31035 -56.3321 -10.7299
-36.7032 -20.3755 -14.5382
-4.91954 -50.7279 2.52464
2.54187 -77.3393 11.5553
18.1818 -10.6689 14.0392
-1.80887 -83.576 5.83514
9.45754 -56.4344 9.92683
-12.71 -40.0602 1.27705
-4.6283 -121.31 -1.15586
-5.22175 -94.0323 7.67041
-10.0263 -89.4442 11.1053
-5.90379 -69.3249 7.07029
-15.4293 -43.059 1.23093
-1.81727 -43.4917 1.90422
-7.67984 -70.9105 -5.97393
22.0206 -59.3157 -39.3164
-16.5133 -66.7383 23.0695
-0.337128 -47.8633 -23.969
-5.65705 -55.2442 -15.1489
5.24055 -57.4417 -16.0757
0.841324 -17.9435 -10.5142
-7.90868 25.4861 22.675
-0.709641 -44.863 -20.8416
12.2787 -67.1508 41.257
32.0015 65.7086 -20.9555
12.2383 31.7037 1.65491
3.26183 36.595 16.2536
-17.9101 29.116 3.0593
9.94472 42.9635 -5.97854
-13.1333 34.6785 -15.2945
37.6634 0.517244 19.3665
-20.4601 16.9443 -4.77148
5.26147 -44.8826 1.91393
14.1257 65.5495 29.5823
10.8623 51.6916 21.5974
-5.29871 24.8828 -16.4264
9.2196 45.6769 4.74656
-29.8898 -5.64776 -4.06837
-12.0659 7.04383 -1.61017
17.7593 22.2265 -21.8715
3.95341 14.3148 20.1896
-15.6322 76.0026 -2.58559
17.475 34.519 -8.67349
11.8353 2.66796 -25.4675
-7.84248 10.9038 -16.3049
21.2536 26.995 7.05749
11.8145 75.9962 1.57611
1.49811 -5.81432 -16.0132
0.395994 -14.2039 2.87236
-7.02581 29.4332 -2.7119
10.2313 73.4476 -9.29811
19.2621 51.936 -4.08119
-7.92547 -46.1155 -31.471
-18.35 -17.8504 -41.8105
14.8189 86.3542 -9.00983
12.1325 -66.9099 48.9541
-2.8874 -33.9701 54.382
12.6524 -7.70905 7.89108
-22.2657 -25.07 -3.64434
11.4411 -15.0996 5.26902
-10.7928 -19.128 -3.89596
-25.4584 66.9368 -7.66164
4.33176 36.2 -16.2524
-14.5187 38.9215 -23.5491
23.6837 26.4358 11.7297
25.6329 3.32333 -11.5858
-13.1948 -34.2673 22.5864
0.185123 1.62408 24.3332
-8.44054 8.15183 -0.126636
-19.6962 -22.9435 5.46718
-9.33765 15.53 9.58754
15.1634 -19.6164 7.58091
15.1246 9.56958 -4.31027
18.6389 -0.95259 2.97164
13.6249 -8.18413 -13.2656
1.20506 24.3604 1.06681
9.777 -19.4595 6.08159
6.08772 -71.1098 -6.44964
5.58222 21.5986 6.34926
0.0 0.0 0.0
19.4947 -32.6186 -1.77564
2.53187 -39.5822 20.3081
-3.88329 -43.7827 17.7125
-4.09058 2.01885 -18.2793
-3.63339 -32.3971 -2.33411
-11.9718 -52.9156 14.9934
-12.8435 -26.5506 -4.74953
-12.5833 -26.4735 -51.9895
24.8783 -51.7265 -20.343
0.0 0.0 0.0
0.0 0.0 0.0
0.0 0.0 0.0
-14.9448 9.46267 3.67774
0.0 0.0 0.0
0.0 0.0 0.0
-2.90099 -10.1454 1.35431
-31.9594 -99.8791 8.01116
-28.2291 -6.75931 -5.61158
0.0 0.0 0.0
0.0 0.0 0.0
2.48951 -22.3981 0.00806596
0.0 0.0 0.0
0.0 0.0 0.0
0.0 0.0 0.0
0.0 0.0 0.0
0.0 0.0 0.0
0.0 0.0 0.0
0.0 0.0 0.0
0.0 0.0 0.0
0.0 0.0 0.0
0.0 0.0 0.0
0.0 0.0 0.0
0.0 0.0 0.0
0.0 0.0 0.0
0.0 0.0 0.0
0.0 0.0 0.0
0.0 0.0 0.0
0.0 0.0 0.0
0.0 0.0 0.0
0.0 0.0 0.0
0.0 0.0 0.0
0.0 0.0 0.0
0.0 0.0 0.0
0.0 0.0 0.0
0.0 0.0 0.0
0.0 0.0 0.0
0.0 0.0 0.0
0.0 0.0 0.0
0.0 0.0 0.0
0.0 0.0 0.0
0.0 0.0 0.0
0.0 0.0 0.0
0.0 0.0 0.0
0.0 0.0 0.0
0.0 0.0 0.0
0.0 0.0 0.0
0.0 0.0 0.0
0.0 0.0 0.0
0.0 0.0 0.0
0.0 0.0 0.0
0.0 0.0 0.0
0.0 0.0 0.0
0.0 0.0 0.0
0.0 0.0 0.0
0.0 0.0 0.0
0.0 0.0 0.0
0.0 0.0 0.0
0.0 0.0 0.0
0.0 0.0 0.0
0.0 0.0 0.0
0.0 0.0 0.0
0.0 0.0 0.0
0.0 0.0 0.0
0.0 0.0 0.0
0.0 0.0 0.0
0.0 0.0 0.0
0.0 0.0 0.0
0.0 0.0 0.0
0.0 0.0 0.0
0.0 0.0 0.0
0.0 0.0 0.0
0.0 0.0 0.0
0.0 0.0 0.0
0.0 0.0 0.0
0.0 0.0 0.0
0.0 0.0 0.0
0.0 0.0 0.0
0.0 0.0 0.0
0.0 0.0 0.0
0.0 0.0 0.0
0.0 0.0 0.0
0.0 0.0 0.0
0.0 0.0 0.0
0.0 0.0 0.0
0.0 0.0 0.0
0.0 0.0 0.0
0.0 0.0 0.0
0.0 0.0 0.0
0.0 0.0 0.0
0.0 0.0 0.0
0.0 0.0 0.0
0.0 0.0 0.0
0.0 0.0 0.0
0.0 0.0 0.0
0.0 0.0 0.0
0.0 0.0 0.0
0.0 0.0 0.0
0.0 0.0 0.0
0.0 0.0 0.0
0.0 0.0 0.0
0.0 0.0 0.0
0.0 0.0 0.0
0.0 0.0 0.0
0.0 0.0 0.0
0.0 0.0 0.0
0.0 0.0 0.0
0.0 0.0 0.0
0.0 0.0 0.0
0.0 0.0 0.0
0.0 0.0 0.0
0.0 0.0 0.0
0.0 0.0 0.0
0.0 0.0 0.0
0.0 0.0 0.0
0.0 0.0 0.0
0.0 0.0 0.0
0.0 0.0 0.0
0.0 0.0 0.0
0.0 0.0 0.0
0.0 0.0 0.0
0.0 0.0 0.0
0.0 0.0 0.0
0.0 0.0 0.0
0.0 0.0 0.0
0.0 0.0 0.0
0.0 0.0 0.0
0.0 0.0 0.0
0.0 0.0 0.0
0.0 0.0 0.0
0.0 0.0 0.0
0.0 0.0 0.0
0.0 0.0 0.0
0.0 0.0 0.0
0.0 0.0 0.0
0.0 0.0 0.0
0.0 0.0 0.0
0.0 0.0 0.0
0.0 0.0 0.0
0.0 0.0 0.0
0.0 0.0 0.0
0.0 0.0 0.0
0.0 0.0 0.0
0.0 0.0 0.0
0.0 0.0 0.0
0.0 0.0 0.0
0.0 0.0 0.0
0.0 0.0 0.0
0.0 0.0 0.0
0.0 0.0 0.0
0.0 0.0 0.0
0.0 0.0 0.0
0.0 0.0 0.0
0.0 0.0 0.0
0.0 0.0 0.0
0.0 0.0 0.0
0.0 0.0 0.0
0.0 0.0 0.0
0.0 0.0 0.0
0.0 0.0 0.0
0.0 0.0 0.0
0.0 0.0 0.0
0.0 0.0 0.0
0.0 0.0 0.0
0.0 0.0 0.0
0.0 0.0 0.0
0.0 0.0 0.0
0.0 0.0 0.0
0.0 0.0 0.0
0.0 0.0 0.0
0.0 0.0 0.0
0.0 0.0 0.0
0.0 0.0 0.0
0.0 0.0 0.0
0.0 0.0 0.0
0.0 0.0 0.0
0.0 0.0 0.0
0.0 0.0 0.0
0.0 0.0 0.0
0.0 0.0 0.0
0.0 0.0 0.0
0.0 0.0 0.0
0.0 0.0 0.0
0.0 0.0 0.0
0.0 0.0 0.0
0.0 0.0 0.0
0.0 0.0 0.0
0.0 0.0 0.0
0.0 0.0 0.0
0.0 0.0 0.0
0.0 0.0 0.0
0.0 0.0 0.0
0.0 0.0 0.0
0.0 0.0 0.0
0.0 0.0 0.0
0.0 0.0 0.0
0.0 0.0 0.0
0.0 0.0 0.0
0.0 0.0 0.0
0.0 0.0 0.0
0.0 0.0 0.0
0.0 0.0 0.0
0.0 0.0 0.0
0.0 0.0 0.0
0.0 0.0 0.0
0.0 0.0 0.0
0.0 0.0 0.0
0.0 0.0 0.0
0.0 0.0 0.0
0.0 0.0 0.0
0.0 0.0 0.0
0.0 0.0 0.0
0.0 0.0 0.0
0.0 0.0 0.0
0.0 0.0 0.0
VECTORS v float
1.55024 0.0522061 0.200443
1.97995 -0.180574 0.353986
1.83613 0.0148898 -0.0235423
2.30283 -0.0577605 0.0786003
2.24571 -0.041415 0.0107827
2.52208 0.13542 -0.210943
2.20022 -0.123287 0.00904602
1.9846 0.39948 -0.399486
2.27865 -0.0963691 -0.000900736
2.28288 0.095946 -0.122549
-1.369 -0.939073 -1.2684
1.2857 -0.543826 -0.729218
1.58681 -0.0165748 0.327766
0.343837 0.00163063 -0.395986
0.924296 -0.324636 -0.0197448
1.31609 0.180137 -0.0174639
1.64412 -0.378773 0.0840157
2.18708 -0.069356 0.032707
2.21271 0.0751581 0.359789
2.27234 -0.00723336 0.0331478
2.07424 -0.100421 -0.041599
2.55275 -0.0231769 -0.000768423
2.40079 -0.0963338 -0.0159996
2.54083 0.0127945 -0.0934068
2.29112 0.0785576 0.00771608
0.841568 0.100499 0.115191
1.69631 0.0159784 -0.0785889
2.7262 -0.384766 -0.270442
0.350137 0.510449 -0.0578226
1.14004 -0.0844673 0.464339
1.3367 0.0488865 0.433087
1.26378 -0.400051 0.218185
2.18034 -0.106725 0.0588703
1.83048 -0.217202 0.115078
2.30983 -0.11773 -0.0280813
1.90172 0.210661 3.18967e-07
1.40839 0.648487 0.0819061
2.32548 0.204878 -0.00962332
2.05713 0.198816 -0.014764
1.85089 -0.0583344 0.000349076
1.14165 -0.064864 0.549124
2.04629 -0.177002 -0.0174068
2.23006 -0.0277059 -0.00105153
2.04879 0.0921671 0.0217065
2.08601 0.110147 0.00495441
1.00834 0.541044 -0.00161992
1.87081 0.32238 0.458695
2.31765 0.0629052 0.180363
2.58549 0.207503 0.0283406
2.11432 -0.09212 -0.383132
1.73934 0.676555 -0.559517
2.48437 0.146984 -1.88102e-09
1.77932 0.0647968 -0.125372
1.39658 -0.276617 0.106388
1.88227 0.0885579 -0.341321
1.81675 0.179935 -0.395573
2.80309 0.379744 -1.24629e-05
0.434863 0.133027 0.00341796
0.807472 0.247128 0.270893
1.48229 0.399395 0.183292
1.9321 0.176105 0.0221664
2.71339 0.461028 0.00024211
2.70057 0.0542955 -8.85549e-11
1.70435 0.416393 -0.0132154
2.12531 0.258165 0.0556422
1.75688 0.374032 -0.222462
2.49576 -0.0569444 -0.0806849
2.48159 0.0700564 0.00193159
2.41577 -0.168518 -0.132908
2.41472 0.204504 0.088652
2.84458 -0.093029 -0.458917
2.79708 0.0415878 0.148959
1.73102 -0.184527 0.376733
1.99537 -0.697262 0.324202
-0.925329 -0.534714 -0.0752549
0.584548 -0.907667 0.462635
0.168347 -0.240016 0.208807
1.12556 -0.122087 -1.08707
2.28664 -0.00813807 -0.0665742
0.385314 0.340961 -0.0885853