# vtk DataFile Version 2.0
Generated by lpp.py
ASCII
DATASET POLYDATA
POINTS 527 float
2.57002 0.440428 1.43378
2.51317 0.395029 1.46493
2.47052 0.46903 1.47357
2.52249 0.536314 1.46097
2.639 0.536203 1.45972
2.38438 0.165843 1.51707
2.33658 0.217417 1.50752
2.37814 0.537696 1.50182
2.27763 0.208271 1.52711
2.30202 0.272845 1.52193
2.19565 0.313829 1.55744
2.16687 0.377821 1.5605
2.2025 0.43976 1.553
0.176728 0.17893 1.584
0.236176 0.175451 1.58644
0.318453 0.190195 1.57691
0.474366 0.183377 1.57891
0.538662 0.178193 1.58485
0.660902 0.179093 1.58382
1.17518 0.184831 1.5776
1.23321 0.196568 1.57631
1.45282 0.191363 1.57684
1.56521 0.199871 1.57799
1.8169 0.186726 1.57688
2.15215 0.184917 1.5651
0.262704 0.227685 1.57708
0.618879 0.2222 1.57889
0.749516 0.226638 1.57686
0.826225 0.199926 1.57689
0.913015 0.206251 1.57687
0.969754 0.209529 1.59652
1.07491 0.221928 1.57683
1.13548 0.229264 1.57676
1.3932 0.205018 1.57682
1.61838 0.231252 1.57686
1.68543 0.207272 1.57686
1.90484 0.200594 1.57685
0.104538 0.269916 1.58227
0.178435 0.259941 1.57531
0.315617 0.254964 1.5796
0.378849 0.245739 1.57741
0.495659 0.238922 1.5786
0.854508 0.253211 1.57686
1.26698 0.245689 1.57738
1.32171 0.268777 1.57703
1.41769 0.257565 1.59406
1.48994 0.238347 1.57689
1.82854 0.247005 1.57686
1.92461 0.264596 1.57686
2.12562 0.261535 1.56854
0.24425 0.293664 1.57751
0.575631 0.287534 1.57687
0.798642 0.275993 1.57684
0.98793 0.271793 1.57686
1.04508 0.304118 1.57687
1.12211 0.288161 1.57679
1.18307 0.278937 1.57686
1.24207 0.300473 1.57679
1.46634 0.29409 1.57687
1.53338 0.292363 1.57687
1.63561 0.294671 1.57686
1.71259 0.27909 1.57686
1.77412 0.283568 1.57686
2.0578 0.273982 1.57536
0.487567 0.324521 1.57515
0.671525 0.309169 1.57711
0.751632 0.313019 1.57685
1.57641 0.334287 1.57685
1.82157 0.324096 1.57686
1.98796 0.322307 1.57686
0.143479 0.347812 1.57723
0.31002 0.354493 1.57526
0.565442 0.353774 1.57686
0.621219 0.374862 1.58324
0.849307 0.369457 1.57569
0.939981 0.350965 1.57832
1.19431 0.347905 1.57687
1.25321 0.36038 1.57685
1.40916 0.354572 1.5767
1.51649 0.35258 1.57686
1.63748 0.361914 1.57686
1.7446 0.355566 1.5782
1.87009 0.361132 1.57681
2.0531 0.347603 1.57541
2.10841 0.367796 1.56931
0.0206609 0.380551 1.58228
0.0941775 0.402764 1.58
0.239744 0.409802 1.5805
0.38559 0.380464 1.57446
0.442498 0.389918 1.58286
0.680822 0.386926 1.57665
0.739129 0.375099 1.5773
0.918513 0.407854 1.57686
1.04465 0.394244 1.57686
1.32905 0.393119 1.57686
1.46132 0.385233 1.57701
1.55785 0.39834 1.57688
1.91577 0.39376 1.59612
1.97722 0.391775 1.57686
0.0302076 0.447265 1.57687
0.514391 0.436427 1.57967
0.617016 0.43513 1.57779
0.996279 0.439639 1.57687
1.19238 0.420198 1.57685
1.26488 0.438622 1.57686
1.61678 0.425103 1.57685
1.72584 0.412489 1.57682
1.78499 0.423267 1.578
1.87985 0.439088 1.57687
1.94414 0.442357 1.57658
2.01403 0.441349 1.57682
2.12735 0.426144 1.56997
0.203674 0.467815 1.58035
0.29121 0.451734 1.57476
0.414386 0.462149 1.57675
0.670063 0.481598 1.5763
0.735947 0.463041 1.57693
0.885522 0.481038 1.57687
1.07456 0.450825 1.57665
1.17253 0.47824 1.57686
1.3548 0.447212 1.57683
1.4139 0.455341 1.58007
1.47403 0.446029 1.57687
1.56619 0.458469 1.57616
1.66294 0.46537 1.5769
1.72248 0.476043 1.57669
2.07088 0.46128 1.57452
0.277662 0.508397 1.60193
0.347897 0.501215 1.57701
0.450305 0.515494 1.58673
0.527929 0.497333 1.57798
0.953046 0.508168 1.57673
1.01456 0.50165 1.57876
1.30562 0.488259 1.57851
1.36128 0.506709 1.577
1.44677 0.505077 1.57675
1.55221 0.513402 1.59529
1.61174 0.497628 1.5767
1.84099 0.489695 1.57687
1.91139 0.510158 1.57686
1.97049 0.496164 1.57601
2.14295 0.48499 1.58146
0.112729 0.536303 1.57646
0.232404 0.532232 1.57605
0.39272 0.536493 1.59378
0.693947 0.534135 1.59066
0.758742 0.522096 1.57608
1.22739 0.521469 1.57745
1.40243 0.549562 1.57683
1.50273 0.541354 1.57679
1.6572 0.536018 1.57719
1.75288 0.527722 1.57685
2.01462 0.535677 1.58003
2.10856 0.53686 1.56975
0.280373 0.572281 1.58128
0.339018 0.562256 1.58563
0.491062 0.560148 1.57702
0.614385 0.586552 1.59573
0.800179 0.570327 1.57955
0.912219 0.566118 1.57673
0.964789 0.586865 1.59621
1.02278 0.565657 1.57696
1.08163 0.55413 1.5763
1.17849 0.557032 1.57689
1.23119 0.58733 1.59907
1.27724 0.556596 1.57642
1.33643 0.561468 1.57699
1.4551 0.576339 1.58552
1.59166 0.55444 1.57682
1.69875 0.57834 1.58749
1.82959 0.564993 1.57686
1.94965 0.562214 1.57686
0.189957 0.129424 1.63383
0.345085 0.148373 1.61454
0.485881 0.136949 1.62589
0.788061 0.161352 1.60083
0.884937 0.131137 1.63488
0.959344 0.147233 1.6157
1.12828 0.140628 1.62231
1.20344 0.142275 1.62067
1.29943 0.143967 1.6189
0.590708 0.172819 1.61323
1.3355 0.191122 1.60119
0.483228 0.21095 1.63355
1.26317 0.20779 1.6258
0.441282 0.259276 1.60777
0.549674 0.262997 1.62568
0.667515 0.250859 1.61741
0.209534 0.263491 1.62574
0.621425 0.298958 1.62983
0.813329 0.285592 1.63471
0.939012 0.292212 1.61048
0.053509 0.329115 1.61541
0.277199 0.314481 1.62347
0.360889 0.30961 1.59193
0.430741 0.319054 1.61965
0.505255 0.301525 1.62554
1.22272 0.310142 1.63253
1.39965 0.311275 1.61681
0.12178 0.360072 1.63357
0.228159 0.348729 1.62639
0.784319 0.371018 1.61567
0.995743 0.374266 1.60717
0.156182 0.407381 1.59384
0.524256 0.407714 1.63678
1.39064 0.404984 1.60254
0.21775 0.436832 1.63423
0.328402 0.419043 1.60775
0.417861 0.440867 1.63165
0.720149 0.418046 1.61514
0.838061 0.430405 1.60083
1.13993 0.419081 1.62916
1.82453 0.426521 1.62252
0.363365 0.467774 1.62419
0.571247 0.458678 1.61812
0.931349 0.456533 1.62128
1.59545 0.461785 1.62738
1.76136 0.467642 1.62244
0.105648 0.485544 1.6131
0.723682 0.492695 1.6277
1.08934 0.501853 1.6031
0.776214 0.532447 1.63165
0.881511 0.523009 1.62352
1.33878 0.529296 1.62757
0.551208 0.555106 1.60571
1.11298 0.585762 1.61496
0.363839 0.604007 1.62428
0.481181 0.616474 1.62565
0.685182 0.596076 1.6038
0.7461 0.591136 1.60094
0.862285 0.614091 1.6233
1.30017 0.600667 1.60986
1.3667 0.600599 1.61003
1.51396 0.610589 1.61976
0.734879 0.117378 1.64557
1.71803 0.111681 1.65126
0.371701 0.156265 1.66816
0.540689 0.143191 1.64685
0.161194 0.185653 1.65728
0.279158 0.178678 1.6484
0.437545 0.172025 1.64526
0.396132 0.213948 1.63594
0.5423 0.201971 1.65209
0.701588 0.200634 1.64218
0.878926 0.239138 1.63123
0.328477 0.283569 1.63499
0.388508 0.273724 1.64275
0.864013 0.298534 1.66669
0.345714 0.35421 1.63864
0.456305 0.369009 1.64806
0.537608 0.347142 1.64249
0.596451 0.352334 1.63934
0.180926 0.376786 1.64679
0.270197 0.389405 1.63871
0.63052 0.403836 1.64462
0.694748 0.420264 1.67086
1.63333 0.410768 1.63763
1.70335 0.419269 1.63388
0.28015 0.453199 1.63155
0.471969 0.463617 1.62435
0.610577 0.454554 1.67266
0.32553 0.515146 1.63373
0.195372 0.528852 1.62124
0.417536 0.550413 1.64426
0.711398 0.560155 1.6421
0.93024 0.557671 1.64626
0.578191 0.588354 1.6459
0.542297 0.644169 1.65309
0.786903 0.619265 1.63571
0.954395 0.629525 1.64155
0.226525 0.0871715 1.67845
0.315431 0.231064 1.67806
0.438927 0.236175 1.6687
0.126939 0.284236 1.64888
0.447975 0.294651 1.67752
0.710262 0.27049 1.67227
0.189433 0.31747 1.66777
0.338435 0.306457 1.69079
0.400867 0.332787 1.67591
0.496019 0.330482 1.6821
0.566847 0.302662 1.67375
0.809913 0.329575 1.67669
0.513801 0.398068 1.69748
0.205113 0.440213 1.69902
0.286337 0.430004 1.68538
0.362593 0.431254 1.6711
0.443564 0.419336 1.67923
0.179123 0.508273 1.67765
0.270051 0.516448 1.66702
0.388117 0.512535 1.67806
0.650195 0.506554 1.68288
0.387207 0.593524 1.67836
0.89863 0.618601 1.67234
0.401406 0.653012 1.67231
0.54307 0.692816 1.70196
0.196226 0.26238 1.70421
0.356804 0.254126 1.71097
0.256147 0.321804 1.6886
0.110703 0.374435 1.69425
0.414972 0.38672 1.7192
0.107302 0.455042 1.70501
0.537861 0.543642 1.70205
0.214647 0.428576 1.75823
0.49559 0.507359 1.72546
0.44222 0.295647 1.77063
0.346145 0.350757 1.77965
0.475094 0.383761 1.76805
0.466199 0.451954 1.78057
0.236464 0.494005 1.77493
0.430217 0.500721 1.7815
0.339305 0.526873 1.76265
0.271982 0.260644 1.79579
0.321856 0.294278 1.79173
0.282424 0.374546 1.81446
0.104255 0.515661 1.79972
0.103324 0.228818 1.85996
0.161403 0.258279 1.859
0.125428 0.344451 1.82805
0.189012 0.364304 1.84759
0.415188 0.353574 1.83864
0.115455 0.44409 1.85077
0.323589 0.424937 1.8342
0.363615 0.240431 1.87123
0.425069 0.242959 1.87361
0.499192 0.246026 1.86844
0.40415 0.414672 1.87237
0.158807 0.499296 1.88507
0.370433 0.49856 1.86589
0.264146 0.523422 1.87949
0.257372 0.298287 1.9308
0.31493 0.348737 1.91118
0.484684 0.362834 1.92507
0.125062 0.39201 1.93353
0.220666 0.238837 1.95347
0.314466 0.284399 1.96239
0.492483 0.279077 1.96511
0.417494 0.317622 1.96033
0.217234 0.387064 1.95058
0.263093 0.452487 1.96129
0.417911 0.469013 1.95276
0.486571 0.452792 1.96698
0.312076 0.491969 1.97023
0.393674 0.233628 1.97605
0.17717 0.298235 1.97275
0.107591 0.339963 1.97966
0.385775 0.387923 1.98404
0.449749 0.403068 1.97219
0.345938 0.437655 1.9935
0.139724 0.459766 1.97654
0.220758 0.508511 1.97183
0.490194 0.521396 1.97573
0.293957 0.252051 2.03688
0.480794 0.235256 2.044
0.112395 0.298661 2.04503
0.313064 0.354671 2.0186
0.494465 0.353653 2.01683
0.177639 0.41728 2.02063
0.25883 0.414412 2.0405
0.188867 0.511362 2.04221
0.352584 0.510062 2.03343
0.286065 0.525163 2.03102
0.420914 0.522237 2.01865
0.130146 0.239366 2.04739
0.215119 0.259008 2.05422
0.396036 0.28089 2.05076
0.461831 0.299793 2.05245
0.260232 0.32538 2.06072
0.184207 0.342437 2.0652
0.413738 0.375309 2.08012
0.469219 0.429721 2.05597
0.312883 0.472231 2.06355
0.425503 0.471227 2.05617
0.107222 0.481912 2.07361
0.481601 0.499619 2.04711
0.32799 0.229202 2.11355
0.405689 0.228633 2.09064
0.167912 0.238386 2.10466
0.231382 0.240563 2.11299
0.317332 0.30781 2.09804
0.134053 0.366007 2.08991
0.489016 0.368217 2.09079
0.153204 0.432626 2.08854
0.222179 0.424446 2.10719
0.239416 0.495022 2.10556
0.498927 0.504545 2.10488
0.360463 0.523492 2.11545
0.109866 0.233818 2.12844
0.498812 0.248514 2.13893
0.113197 0.294489 2.11951
0.194033 0.278126 2.14518
0.265839 0.285868 2.1468
0.469257 0.29946 2.12185
0.194635 0.336418 2.12946
0.405808 0.316699 2.12707
0.306002 0.430402 2.1174
0.379233 0.434328 2.12583
0.487806 0.414883 2.14581
0.188866 0.448878 2.15084
0.150905 0.499656 2.14471
0.297107 0.507647 2.12842
0.452328 0.508491 2.14873
0.325604 0.248234 2.17541
0.391248 0.260634 2.15374
0.464139 0.288262 2.1835
0.240166 0.328846 2.18071
0.354308 0.337534 2.16063
0.291855 0.372275 2.15768
0.489514 0.352564 2.15129
0.142017 0.392074 2.16392
0.112907 0.457318 2.17655
0.306813 0.454906 2.18191
0.232349 0.51961 2.1855
0.228203 0.227346 2.19755
0.121163 0.235465 2.18938
0.182449 0.265752 2.21745
0.371199 0.250575 2.21872
0.109346 0.315959 2.20037
0.368802 0.320326 2.22015
0.198909 0.373142 2.21127
0.435393 0.34359 2.21127
0.263606 0.399014 2.2051
0.442633 0.401674 2.18786
0.224919 0.462043 2.21083
0.480028 0.469573 2.21511
0.370146 0.482381 2.21259
0.325501 0.521381 2.18998
0.477175 0.232241 2.23463
0.310551 0.275965 2.23166
0.202651 0.326782 2.24942
0.287412 0.337623 2.22316
0.384965 0.379016 2.255
0.151029 0.419157 2.22396
0.333275 0.414894 2.23173
0.470694 0.421347 2.25073
0.143314 0.508824 2.22199
0.158331 0.259584 2.27919
0.379968 0.260616 2.2778
0.419779 0.314987 2.26386
0.478207 0.314376 2.28397
0.102309 0.339997 2.26882
0.261557 0.393625 2.27365
0.496133 0.384099 2.29079
0.108153 0.438732 2.28855
0.41429 0.434596 2.28731
0.178059 0.478415 2.27491
0.487334 0.474096 2.27584
0.297583 0.511466 2.26592
0.419317 0.494483 2.2771
0.226804 0.518091 2.28666
0.287182 0.241461 2.30538
0.437539 0.252688 2.30571
0.313165 0.295281 2.31233
0.146413 0.330961 2.30865
0.23496 0.304512 2.30559
0.189373 0.382597 2.29159
0.444299 0.395894 2.3232
0.167616 0.430974 2.32451
0.318306 0.424417 2.29625
0.353581 0.483281 2.29649
0.281519 0.521738 2.32447
0.345706 0.244188 2.33848
0.119434 0.281797 2.33643
0.183368 0.299923 2.34745
0.413519 0.31622 2.33723
0.361163 0.357044 2.32824
0.114178 0.389821 2.34746
0.20118 0.391877 2.35642
0.261164 0.39533 2.36092
0.393917 0.429411 2.34729
0.489664 0.438439 2.33411
0.250241 0.450955 2.32964
0.105798 0.50424 2.33445
0.187915 0.515186 2.35538
0.32526 0.484758 2.35005
0.4524 0.512277 2.34886
0.1932 0.229789 2.38297
0.422137 0.237787 2.37647
0.372856 0.301203 2.38603
0.4644 0.282902 2.36546
0.306584 0.303573 2.39311
0.15454 0.359333 2.3812
0.330347 0.403499 2.38088
0.485995 0.385829 2.38292
0.398538 0.477915 2.39576
0.337046 0.231264 2.39864
0.10177 0.254991 2.41716
0.497694 0.256246 2.41034
0.248456 0.285804 2.41542
0.488964 0.318078 2.41029
0.244928 0.34739 2.42499
0.387775 0.408365 2.41781
0.244813 0.43345 2.41185
0.145536 0.471864 2.39705
0.322092 0.457941 2.42624
0.493497 0.449079 2.40063
0.239296 0.494007 2.423
0.308508 0.519363 2.41446
0.200715 0.243234 2.46381
0.271532 0.23235 2.4628
0.389977 0.239061 2.44499
0.465941 0.232795 2.45673
0.150783 0.312529 2.44024
0.430203 0.322942 2.43658
0.359187 0.345598 2.43339
0.206866 0.39261 2.43625
0.462123 0.378122 2.46228
0.114653 0.416417 2.44766
0.100279 0.478463 2.4425
0.195028 0.474388 2.46054
0.496548 0.513622 2.43741
0.119764 0.23589 2.47451
0.340901 0.251487 2.48902
0.252209 0.30257 2.49485
0.399979 0.29937 2.48706
0.334843 0.328269 2.49319
0.493176 0.31314 2.49199
0.145549 0.370736 2.48487
0.203386 0.34301 2.48212
0.402076 0.364491 2.49095
0.253008 0.38524 2.47529
0.32123 0.387645 2.46716
0.388515 0.434845 2.48435
0.489023 0.459055 2.47218
0.1312 0.50645 2.49577
0.277161 0.482116 2.49173
0.348799 0.506378 2.48849
0.434645 0.505695 2.47274
VERTICES 527 1054
1 0
1 1
1 2
1 3
1 4
1 5
1 6
1 7
1 8
1 9
1 10
1 11
1 12
1 13
1 14
1 15
1 16
1 17
1 18
1 19
1 20
1 21
1 22
1 23
1 24
1 25
1 26
1 27
1 28
1 29
1 30
1 31
1 32
1 33
1 34
1 35
1 36
1 37
1 38
1 39
1 40
1 41
1 42
1 43
1 44
1 45
1 46
1 47
1 48
1 49
1 50
1 51
1 52
1 53
1 54
1 55
1 56
1 57
1 58
1 59
1 60
1 61
1 62
1 63
1 64
1 65
1 66
1 67
1 68
1 69
1 70
1 71
1 72
1 73
1 74
1 75
1 76
1 77
1 78
1 79
1 80
1 81
1 82
1 83
1 84
1 85
1 86
1 87
1 88
1 89
1 90
1 91
1 92
1 93
1 94
1 95
1 96
1 97
1 98
1 99
1 100
1 101
1 102
1 103
1 104
1 105
1 106
1 107
1 108
1 109
1 110
1 111
1 112
1 113
1 114
1 115
1 116
1 117
1 118
1 119
1 120
1 121
1 122
1 123
1 124
1 125
1 126
1 127
1 128
1 129
1 130
1 131
1 132
1 133
1 134
1 135
1 136
1 137
1 138
1 139
1 140
1 141
1 142
1 143
1 144
1 145
1 146
1 147
1 148
1 149
1 150
1 151
1 152
1 153
1 154
1 155
1 156
1 157
1 158
1 159
1 160
1 161
1 162
1 163
1 164
1 165
1 166
1 167
1 168
1 169
1 170
1 171
1 172
1 173
1 174
1 175
1 176
1 177
1 178
1 179
1 180
1 181
1 182
1 183
1 184
1 185
1 186
1 187
1 188
1 189
1 190
1 191
1 192
1 193
1 194
1 195
1 196
1 197
1 198
1 199
1 200
1 201
1 202
1 203
1 204
1 205
1 206
1 207
1 208
1 209
1 210
1 211
1 212
1 213
1 214
1 215
1 216
1 217
1 218
1 219
1 220
1 221
1 222
1 223
1 224
1 225
1 226
1 227
1 228
1 229
1 230
1 231
1 232
1 233
1 234
1 235
1 236
1 237
1 238
1 239
1 240
1 241
1 242
1 243
1 244
1 245
1 246
1 247
1 248
1 249
1 250
1 251
1 252
1 253
1 254
1 255
1 256
1 257
1 258
1 259
1 260
1 261
1 262
1 263
1 264
1 265
1 266
1 267
1 268
1 269
1 270
1 271
1 272
1 273
1 274
1 275
1 276
1 277
1 278
1 279
1 280
1 281
1 282
1 283
1 284
1 285
1 286
1 287
1 288
1 289
1 290
1 291
1 292
1 293
1 294
1 295
1 296
1 297
1 298
1 299
1 300
1 301
1 302
1 303
1 304
1 305
1 306
1 307
1 308
1 309
1 310
1 311
1 312
1 313
1 314
1 315
1 316
1 317
1 318
1 319
1 320
1 321
1 322
1 323
1 324
1 325
1 326
1 327
1 328
1 329
1 330
1 331
1 332
1 333
1 334
1 335
1 336
1 337
1 338
1 339
1 340
1 341
1 342
1 343
1 344
1 345
1 346
1 347
1 348
1 349
1 350
1 351
1 352
1 353
1 354
1 355
1 356
1 357
1 358
1 359
1 360
1 361
1 362
1 363
1 364
1 365
1 366
1 367
1 368
1 369
1 370
1 371
1 372
1 373
1 374
1 375
1 376
1 377
1 378
1 379
1 380
1 381
1 382
1 383
1 384
1 385
1 386
1 387
1 388
1 389
1 390
1 391
1 392
1 393
1 394
1 395
1 396
1 397
1 398
1 399
1 400
1 401
1 402
1 403
1 404
1 405
1 406
1 407
1 408
1 409
1 410
1 411
1 412
1 413
1 414
1 415
1 416
1 417
1 418
1 419
1 420
1 421
1 422
1 423
1 424
1 425
1 426
1 427
1 428
1 429
1 430
1 431
1 432
1 433
1 434
1 435
1 436
1 437
1 438
1 439
1 440
1 441
1 442
1 443
1 444
1 445
1 446
1 447
1 448
1 449
1 450
1 451
1 452
1 453
1 454
1 455
1 456
1 457
1 458
1 459
1 460
1 461
1 462
1 463
1 464
1 465
1 466
1 467
1 468
1 469
1 470
1 471
1 472
1 473
1 474
1 475
1 476
1 477
1 478
1 479
1 480
1 481
1 482
1 483
1 484
1 485
1 486
1 487
1 488
1 489
1 490
1 491
1 492
1 493
1 494
1 495
1 496
1 497
1 498
1 499
1 500
1 501
1 502
1 503
1 504
1 505
1 506
1 507
1 508
1 509
1 510
1 511
1 512
1 513
1 514
1 515
1 516
1 517
1 518
1 519
1 520
1 521
1 522
1 523
1 524
1 525
1 526
POINT_DATA 527
VECTORS i float
0.0 0.0 0.0
0.0 0.0 0.0
0.0 0.0 0.0
0.0 0.0 0.0
0.0 0.0 0.0
0.0 0.0 0.0
0.0 0.0 0.0
0.0 0.0 0.0
0.0 0.0 0.0
0.0 0.0 0.0
0.0 0.0 0.0
0.0 0.0 0.0
0.0 0.0 0.0
0.0 0.0 0.0
0.0 0.0 0.0
0.0 0.0 0.0
0.0 0.0 0.0
0.0 0.0 0.0
0.0 0.0 0.0
0.0 0.0 0.0
0.0 0.0 0.0
0.0 0.0 0.0
0.0 0.0 0.0
0.0 0.0 0.0
0.0 0.0 0.0
0.0 0.0 0.0
0.0 0.0 0.0
0.0 0.0 0.0
0.0 0.0 0.0
0.0 0.0 0.0
0.0 0.0 0.0
0.0 0.0 0.0
0.0 0.0 0.0
0.0 0.0 0.0
0.0 0.0 0.0
0.0 0.0 0.0
0.0 0.0 0.0
0.0 0.0 0.0
0.0 0.0 0.0
0.0 0.0 0.0
0.0 0.0 0.0
0.0 0.0 0.0
0.0 0.0 0.0
0.0 0.0 0.0
0.0 0.0 0.0
0.0 0.0 0.0
0.0 0.0 0.0
0.0 0.0 0.0
0.0 0.0 0.0
0.0 0.0 0.0
0.0 0.0 0.0
0.0 0.0 0.0
0.0 0.0 0.0
0.0 0.0 0.0
0.0 0.0 0.0
0.0 0.0 0.0
0.0 0.0 0.0
0.0 0.0 0.0
0.0 0.0 0.0
0.0 0.0 0.0
0.0 0.0 0.0
0.0 0.0 0.0
0.0 0.0 0.0
0.0 0.0 0.0
0.0 0.0 0.0
0.0 0.0 0.0
0.0 0.0 0.0
0.0 0.0 0.0
0.0 0.0 0.0
0.0 0.0 0.0
0.0 0.0 0.0
0.0 0.0 0.0
0.0 0.0 0.0
0.0 0.0 0.0
0.0 0.0 0.0
0.0 0.0 0.0
0.0 0.0 0.0
0.0 0.0 0.0
0.0 0.0 0.0
0.0 0.0 0.0
0.0 0.0 0.0
0.0 0.0 0.0
0.0 0.0 0.0
0.0 0.0 0.0
0.0 0.0 0.0
0.0 0.0 0.0
0.0 0.0 0.0
0.0 0.0 0.0
0.0 0.0 0.0
0.0 0.0 0.0
0.0 0.0 0.0
0.0 0.0 0.0
0.0 0.0 0.0
0.0 0.0 0.0
0.0 0.0 0.0
0.0 0.0 0.0
0.0 0.0 0.0
0.0 0.0 0.0
0.0 0.0 0.0
0.0 0.0 0.0
0.0 0.0 0.0
0.0 0.0 0.0
0.0 0.0 0.0
0.0 0.0 0.0
0.0 0.0 0.0
0.0 0.0 0.0
0.0 0.0 0.0
0.0 0.0 0.0
0.0 0.0 0.0
0.0 0.0 0.0
0.0 0.0 0.0
0.0 0.0 0.0
0.0 0.0 0.0
0.0 0.0 0.0
0.0 0.0 0.0
0.0 0.0 0.0
0.0 0.0 0.0
0.0 0.0 0.0
0.0 0.0 0.0
0.0 0.0 0.0
0.0 0.0 0.0
0.0 0.0 0.0
0.0 0.0 0.0
0.0 0.0 0.0
0.0 0.0 0.0
0.0 0.0 0.0
0.0 0.0 0.0
0.0 0.0 0.0
0.0 0.0 0.0
0.0 0.0 0.0
0.0 0.0 0.0
0.0 0.0 0.0
0.0 0.0 0.0
0.0 0.0 0.0
0.0 0.0 0.0
0.0 0.0 0.0
0.0 0.0 0.0
0.0 0.0 0.0
0.0 0.0 0.0
0.0 0.0 0.0
0.0 0.0 0.0
0.0 0.0 0.0
0.0 0.0 0.0
0.0 0.0 0.0
0.0 0.0 0.0
0.0 0.0 0.0
0.0 0.0 0.0
0.0 0.0 0.0
0.0 0.0 0.0
0.0 0.0 0.0
0.0 0.0 0.0
0.0 0.0 0.0
0.0 0.0 0.0
0.0 0.0 0.0
0.0 0.0 0.0
0.0 0.0 0.0
0.0 0.0 0.0
0.0 0.0 0.0
0.0 0.0 0.0
0.0 0.0 0.0
0.0 0.0 0.0
0.0 0.0 0.0
0.0 0.0 0.0
0.0 0.0 0.0
0.0 0.0 0.0
0.0 0.0 0.0
0.0 0.0 0.0
0.0 0.0 0.0
0.0 0.0 0.0
0.0 0.0 0.0
0.0 0.0 0.0
0.0 0.0 0.0
0.0 0.0 0.0
0.0 0.0 0.0
0.0 0.0 0.0
0.0 0.0 0.0
0.0 0.0 0.0
0.0 0.0 0.0
0.0 0.0 0.0
0.0 0.0 0.0
0.0 0.0 0.0
0.0 0.0 0.0
0.0 0.0 0.0
0.0 0.0 0.0
0.0 0.0 0.0
0.0 0.0 0.0
0.0 0.0 0.0
0.0 0.0 0.0
0.0 0.0 0.0
0.0 0.0 0.0
0.0 0.0 0.0
0.0 0.0 0.0
0.0 0.0 0.0
0.0 0.0 0.0
0.0 0.0 0.0
0.0 0.0 0.0
0.0 0.0 0.0
0.0 0.0 0.0
0.0 0.0 0.0
0.0 0.0 0.0
0.0 0.0 0.0
0.0 0.0 0.0
0.0 0.0 0.0
0.0 0.0 0.0
0.0 0.0 0.0
0.0 0.0 0.0
0.0 0.0 0.0
0.0 0.0 0.0
0.0 0.0 0.0
0.0 0.0 0.0
0.0 0.0 0.0
0.0 0.0 0.0
0.0 0.0 0.0
0.0 0.0 0.0
0.0 0.0 0.0
0.0 0.0 0.0
0.0 0.0 0.0
0.0 0.0 0.0
0.0 0.0 0.0
0.0 0.0 0.0
0.0 0.0 0.0
0.0 0.0 0.0
0.0 0.0 0.0
0.0 0.0 0.0
0.0 0.0 0.0
0.0 0.0 0.0
0.0 0.0 0.0
0.0 0.0 0.0
0.0 0.0 0.0
0.0 0.0 0.0
0.0 0.0 0.0
0.0 0.0 0.0
0.0 0.0 0.0
0.0 0.0 0.0
0.0 0.0 0.0
0.0 0.0 0.0
0.0 0.0 0.0
0.0 0.0 0.0
0.0 0.0 0.0
0.0 0.0 0.0
0.0 0.0 0.0
0.0 0.0 0.0
0.0 0.0 0.0
0.0 0.0 0.0
0.0 0.0 0.0
0.0 0.0 0.0
0.0 0.0 0.0
0.0 0.0 0.0
0.0 0.0 0.0
0.0 0.0 0.0
0.0 0.0 0.0
0.0 0.0 0.0
0.0 0.0 0.0
0.0 0.0 0.0
0.0 0.0 0.0
0.0 0.0 0.0
0.0 0.0 0.0
0.0 0.0 0.0
0.0 0.0 0.0
0.0 0.0 0.0
0.0 0.0 0.0
0.0 0.0 0.0
0.0 0.0 0.0
0.0 0.0 0.0
0.0 0.0 0.0
0.0 0.0 0.0
0.0 0.0 0.0
0.0 0.0 0.0
0.0 0.0 0.0
0.0 0.0 0.0
0.0 0.0 0.0
0.0 0.0 0.0
0.0 0.0 0.0
0.0 0.0 0.0
0.0 0.0 0.0
0.0 0.0 0.0
0.0 0.0 0.0
0.0 0.0 0.0
0.0 0.0 0.0
0.0 0.0 0.0
0.0 0.0 0.0
0.0 0.0 0.0
0.0 0.0 0.0
0.0 0.0 0.0
0.0 0.0 0.0
0.0 0.0 0.0
0.0 0.0 0.0
0.0 0.0 0.0
0.0 0.0 0.0
0.0 0.0 0.0
0.0 0.0 0.0
0.0 0.0 0.0
0.0 0.0 0.0
0.0 0.0 0.0
0.0 0.0 0.0
0.0 0.0 0.0
0.0 0.0 0.0
0.0 0.0 0.0
0.0 0.0 0.0
0.0 0.0 0.0
0.0 0.0 0.0
0.0 0.0 0.0
0.0 0.0 0.0
0.0 0.0 0.0
0.0 0.0 0.0
0.0 0.0 0.0
0.0 0.0 0.0
0.0 0.0 0.0
0.0 0.0 0.0
0.0 0.0 0.0
0.0 0.0 0.0
0.0 0.0 0.0
0.0 0.0 0.0
0.0 0.0 0.0
0.0 0.0 0.0
0.0 0.0 0.0
0.0 0.0 0.0
0.0 0.0 0.0
0.0 0.0 0.0
0.0 0.0 0.0
0.0 0.0 0.0
0.0 0.0 0.0
0.0 0.0 0.0
0.0 0.0 0.0
0.0 0.0 0.0
0.0 0.0 0.0
0.0 0.0 0.0
0.0 0.0 0.0
0.0 0.0 0.0
0.0 0.0 0.0
0.0 0.0 0.0
0.0 0.0 0.0
0.0 0.0 0.0
0.0 0.0 0.0
0.0 0.0 0.0
0.0 0.0 0.0
0.0 0.0 0.0
0.0 0.0 0.0
0.0 0.0 0.0
0.0 0.0 0.0
0.0 0.0 0.0
0.0 0.0 0.0
0.0 0.0 0.0
0.0 0.0 0.0
0.0 0.0 0.0
0.0 0.0 0.0
0.0 0.0 0.0
0.0 0.0 0.0
0.0 0.0 0.0
0.0 0.0 0.0
0.0 0.0 0.0
0.0 0.0 0.0
0.0 0.0 0.0
0.0 0.0 0.0
0.0 0.0 0.0
0.0 0.0 0.0
0.0 0.0 0.0
0.0 0.0 0.0
0.0 0.0 0.0
0.0 0.0 0.0
0.0 0.0 0.0
0.0 0.0 0.0
0.0 0.0 0.0
0.0 0.0 0.0
0.0 0.0 0.0
0.0 0.0 0.0
0.0 0.0 0.0
0.0 0.0 0.0
0.0 0.0 0.0
0.0 0.0 0.0
0.0 0.0 0.0
0.0 0.0 0.0
0.0 0.0 0.0
0.0 0.0 0.0
0.0 0.0 0.0
0.0 0.0 0.0
0.0 0.0 0.0
0.0 0.0 0.0
0.0 0.0 0.0
0.0 0.0 0.0
0.0 0.0 0.0
0.0 0.0 0.0
0.0 0.0 0.0
0.0 0.0 0.0
0.0 0.0 0.0
0.0 0.0 0.0
0.0 0.0 0.0
0.0 0.0 0.0
0.0 0.0 0.0
0.0 0.0 0.0
0.0 0.0 0.0
0.0 0.0 0.0
0.0 0.0 0.0
0.0 0.0 0.0
0.0 0.0 0.0
0.0 0.0 0.0
0.0 0.0 0.0
0.0 0.0 0.0
0.0 0.0 0.0
0.0 0.0 0.0
0.0 0.0 0.0
0.0 0.0 0.0
0.0 0.0 0.0
0.0 0.0 0.0
0.0 0.0 0.0
0.0 0.0 0.0
0.0 0.0 0.0
0.0 0.0 0.0
0.0 0.0 0.0
0.0 0.0 0.0
0.0 0.0 0.0
0.0 0.0 0.0
0.0 0.0 0.0
0.0 0.0 0.0
0.0 0.0 0.0
0.0 0.0 0.0
0.0 0.0 0.0
0.0 0.0 0.0
0.0 0.0 0.0
0.0 0.0 0.0
0.0 0.0 0.0
0.0 0.0 0.0
0.0 0.0 0.0
0.0 0.0 0.0
0.0 0.0 0.0
0.0 0.0 0.0
0.0 0.0 0.0
0.0 0.0 0.0
0.0 0.0 0.0
0.0 0.0 0.0
0.0 0.0 0.0
0.0 0.0 0.0
0.0 0.0 0.0
0.0 0.0 0.0
0.0 0.0 0.0
0.0 0.0 0.0
0.0 0.0 0.0
0.0 0.0 0.0
0.0 0.0 0.0
0.0 0.0 0.0
0.0 0.0 0.0
0.0 0.0 0.0
0.0 0.0 0.0
0.0 0.0 0.0
0.0 0.0 0.0
0.0 0.0 0.0
0.0 0.0 0.0
0.0 0.0 0.0
0.0 0.0 0.0
0.0 0.0 0.0
0.0 0.0 0.0
0.0 0.0 0.0
0.0 0.0 0.0
0.0 0.0 0.0
0.0 0.0 0.0
0.0 0.0 0.0
0.0 0.0 0.0
0.0 0.0 0.0
0.0 0.0 0.0
0.0 0.0 0.0
0.0 0.0 0.0
0.0 0.0 0.0
0.0 0.0 0.0
0.0 0.0 0.0
0.0 0.0 0.0
0.0 0.0 0.0
0.0 0.0 0.0
0.0 0.0 0.0
0.0 0.0 0.0
0.0 0.0 0.0
0.0 0.0 0.0
0.0 0.0 0.0
0.0 0.0 0.0
0.0 0.0 0.0
0.0 0.0 0.0
0.0 0.0 0.0
0.0 0.0 0.0
0.0 0.0 0.0
0.0 0.0 0.0
0.0 0.0 0.0
0.0 0.0 0.0
0.0 0.0 0.0
0.0 0.0 0.0
0.0 0.0 0.0
0.0 0.0 0.0
0.0 0.0 0.0
0.0 0.0 0.0
0.0 0.0 0.0
0.0 0.0 0.0
0.0 0.0 0.0
0.0 0.0 0.0
0.0 0.0 0.0
0.0 0.0 0.0
0.0 0.0 0.0
0.0 0.0 0.0
0.0 0.0 0.0
0.0 0.0 0.0
0.0 0.0 0.0
0.0 0.0 0.0
0.0 0.0 0.0
0.0 0.0 0.0
0.0 0.0 0.0
0.0 0.0 0.0
0.0 0.0 0.0
0.0 0.0 0.0
0.0 0.0 0.0
0.0 0.0 0.0
0.0 0.0 0.0
0.0 0.0 0.0
0.0 0.0 0.0
0.0 0.0 0.0
0.0 0.0 0.0
0.0 0.0 0.0
0.0 0.0 0.0
0.0 0.0 0.0
0.0 0.0 0.0
0.0 0.0 0.0
0.0 0.0 0.0
0.0 0.0 0.0
0.0 0.0 0.0
0.0 0.0 0.0
0.0 0.0 0.0
0.0 0.0 0.0
0.0 0.0 0.0
0.0 0.0 0.0
0.0 0.0 0.0
0.0 0.0 0.0
VECTORS f float
0.0 0.0 -2.77371
0.0 0.0 -2.77371
0.0 0.0 -2.77371
0.0 0.0 -2.77371
0.0 0.0 -2.77371
0.0 0.0 -2.77371
0.0 0.0 -2.77371
0.0 0.0 -2.77371
0.0 0.0 -2.77371
0.0 0.0 -2.77371
0.0 0.0 -2.77371
-0.501466 -0.173625 -2.42143
0.0 0.0 -2.77371
0.338257 -0.169339 -2.96909
2.48266 10.8894 2.49354
0.0960948 0.0147952 -0.0142691
-0.0703898 2.23452 0.824835
-2.04669 -10.7541 -47.8408
0.612302 0.925281 -0.508902
0.154905 0.365283 -0.0181215
7.18056 2.85991 8.13483
0.18496 0.287399 -0.0652933
0.0 0.0 -2.77371
-0.0236159 -0.0087899 -0.227845
0.0 0.0 -2.77371
1.88561 5.27494 -1.75036
0.0 0.0 -2.77371
-0.00334864 -0.000280993 -0.00918224
2.91711 5.13267 -0.18683
-0.00411585 0.000190147 -0.207126
0.0 0.0 -2.77371
2.63318 0.915289 2.80172
-2.38534 2.15382 1.18159
-0.0530741 -0.0508618 0.742251
-3.35502e-07 1.65838e-08 -0.000249358
-9.99738e-05 2.56328e-05 0.00720186
0.0141859 -0.00151679 0.335279
0.0 0.0 -2.77371
5.07333 0.810974 35.4875
0.39406 0.206494 -2.52724
0.0 0.0 -2.77371
0.197339 2.84359 -1.71311
-0.000137373 6.97253e-07 0.0157652
-2.70377 1.64961 -3.64174
7.83847 3.09106 0.104147
0.0 0.0 -2.77371
0.450745 0.565154 -0.4702
-0.00197185 2.91049e-05 0.035869
-0.00296057 0.000964221 -0.031268
0.0 0.0 -2.77371
0.0 0.0 -2.77371
1.05028 -1.28618 0.547345
1.36334 -0.976544 0.612935
0.000841213 -0.000188362 0.00953782
0.00494447 -0.000958549 -0.0594682
-2.90714 -2.05674 4.34855
-0.000439274 -1.51507e-05 -0.0140172
0.000404189 -0.0252603 -0.515993
0.0124014 -0.00706467 0.0341063
-0.0277488 -0.0179524 -0.298402
1.89008e-05 -2.12732e-06 4.04444e-05
8.0845e-06 -2.93237e-06 0.000281758
-0.0732691 -0.0705516 0.0162197
0.0 0.0 -2.77371
-20.0652 -4.52436 -1.34646
0.0 0.0 -2.77371
0.266084 0.564362 -0.348124
0.0338364 0.0190916 0.349883
1.06366 0.942118 0.0680822
0.000146064 5.99879e-06 -1.61247e-05
0.0 0.0 -2.77371
59.9378 -12.7566 119.787
-0.140195 0.0727908 0.103082
0.108739 0.0278427 -2.70358
43.931 1.92404 85.1724
0.0 0.0 -2.77371
0.0143042 0.00103446 -0.0303865
-0.0195004 -0.00197525 0.0511874
0.471107 0.1334 0.317098
3.66351e-05 -3.71841e-06 0.00040873
0.000241537 -4.02676e-05 0.00763483
0.0147155 0.966383 -2.47052
-1.82178 -1.18409 -1.49841
-10.7791 -4.59546 -7.15239
11.2805 4.76908 1.25268
0.0 0.0 -2.77371
0.0 0.0 -2.77371
0.0 0.0 -2.77371
-2.00941 0.393505 55.8906
47.281 7.83015 30.5868
-1.94773 0.712063 0.373388
-1.14924 -0.57101 -3.2302
6.73472e-05 -1.06648e-06 0.00170093
-0.00146499 -0.00116874 -0.0198002
0.761314 0.211473 -0.537112
1.54226 0.90623 0.740084
-0.00114745 -0.000315044 -0.289786
4.50836 4.00871 1.03618
-0.000210726 2.33277e-05 -0.00396824
-0.00908924 0.00138892 -0.195583
0.0 0.0 -2.77371
0.0 0.0 -2.77371
-0.00546981 -0.00168238 -0.123099
0.0384976 0.00303974 0.724703
4.88349e-05 1.51021e-06 -0.00213011
1.31352 0.541327 0.0676725
1.73796 -1.56776 0.629057
-3.704 -0.357983 -4.25702
-0.00746503 0.00601507 -0.235635
2.57736 2.0318 1.49463
0.0 0.0 -2.77371
0.0 0.0 -2.77371
0.0 0.0 -2.77371
-15.8376 9.7027 54.7779
-13.6426 5.34116 -20.0589
1.24621 2.86794 5.84678
-0.0129421 -0.0438634 -1.29849
0.0113821 0.00151617 -0.0822105
3.12884 -6.13696 1.43047
-0.00031832 -2.17732e-05 0.00235346
0.11274 -0.244451 0.712547
0.676342 -1.18117 -0.731475
0.00401068 0.000468629 0.00880821
0.364844 -0.404042 9.4951
1.28953 0.329009 -0.112026
2.14597 0.605633 2.18799
0.0 0.0 -2.77371
45.7154 -19.2901 16.8515
42.3945 -16.3193 -66.2888
0.0 0.0 -2.77371
0.0 0.0 -2.77371
2.56164 -0.200106 2.36518
0.0 0.0 -2.77371
-23.1736 -2.51618 -12.3378
14.3684 -4.43926 -2.1448
0.303575 0.198105 1.66183
-0.248248 -0.0113661 -0.648601
-1.05499 -1.2578 1.87331
0.000787869 -8.5973e-05 -0.0781006
7.20816e-05 -1.35674e-06 0.00124417
1.29965 0.563852 21.7825
0.0 0.0 -2.77371
-3.84575 2.29998 -9.93425
13.0671 27.0158 -18.8116
-26.3371 -7.52356 -43.8214
0.914333 1.85412 -1.00847
-3.26204 -0.0566602 4.75382
0.0 0.0 -2.77371
6.88558 8.14452 2.90278
0.145956 -0.11366 0.0433366
3.81869 3.65681 -0.101358
0.431644 0.159201 1.31418
6.46873 5.67229 2.28327
0.0 0.0 -2.77371
0.462108 1.50365 -4.06694
0.375754 -0.121575 -2.54954
-0.0920712 -0.00868027 -1.74067
0.443172 -0.776084 -0.740628
0.012357 -0.722633 -1.19
-0.563868 0.00625809 1.19083
1.28362 -0.202228 -1.36264
2.03543 -0.312094 -4.88157
1.65803 1.31895 4.25097
1.51223 -0.690917 0.55147
-1.01991 0.646084 -2.86419
2.08229 -1.54767 6.71939
-6.3389 -0.689689 -4.91124
2.22401 1.02757 1.20655
0.157423 -0.00607655 0.00467018
0.253063 -0.857444 -0.278686
6.48922e-05 1.38536e-06 0.000968467
-1.77243e-05 1.70459e-06 -0.000425668
0.0 0.0 -2.77371
0.0648458 1.34594 -0.557193
-24.6659 -15.3041 -22.0123
3.22664 7.1819 5.16733
0.0 0.0 -2.77371
0.00137586 1.05334 -0.931019
-1.88422e-05 0.988434 -0.989101
0.187432 0.706191 -0.706276
-0.209502 1.27415 0.264889
6.43578 10.5618 47.9892
0.0 0.0 -2.77371
0.0 0.0 -2.77371
5.90955 2.8042 10.2799
0.0 0.0 -2.77371
15.9674 -22.3792 -2.01816
0.0 0.0 -2.77371
1.27311 0.0117359 10.9595
4.74705 -3.7532 -4.35045
0.0 0.0 -2.77371
0.0 0.0 -2.77371
0.0 0.0 -2.77371
-0.671216 0.283559 -3.05359
-0.63861 -0.931433 -2.29035
0.0 0.0 -2.77371
-14.5013 -3.59828 2.62402
-0.21704 0.104436 -1.56701
-0.0221681 -1.48177 -1.73142
0.0 0.0 -2.77371
21.0376 -4.93482 -21.1885
5.90759 -0.338745 0.170793
0.0 0.0 -2.77371
0.0 0.0 -2.77371
0.0 0.0 -2.77371
-1.06051 2.45632 -0.118915
0.0 0.0 -2.77371
18.4766 -6.61718 2.71164
-1.96745 -1.8967 -4.51307
0.0 0.0 -2.77371
0.0 0.0 -2.77371
0.0 0.0 -2.77371
3.704 0.357983 -1.29041
-52.1247 9.45077 46.3176
0.0 0.0 -2.77371
0.0 0.0 -2.77371
4.24877 0.0738561 9.18368
0.0 0.0 -2.77371
0.0 0.0 -2.77371
0.0 0.0 -2.77371
-3.30294 1.09693 1.45443
2.7354 0.940019 6.30636
0.0 0.0 -2.77371
9.19671 -0.560525 -1.79452
-12.1197 -13.1968 -23.1491
5.47096 9.7893 7.50728
-2.35686 1.03052 -4.79021
-5.43045e-05 -0.988407 -0.98915
20.6045 -10.1848 7.03231
0.0 0.0 -2.77371
-0.137883 -0.932108 0.00203951
1.73616 0.730368 1.36077
2.15706 1.93876 1.45488
-0.000142415 -0.987352 -0.991365
0.00486919 1.00057 -0.973385
3.49946e-05 0.996447 -0.982617
0.0 0.0 -2.77371
21.4313 6.85638 13.5236
0.0 0.0 -2.77371
0.0 0.0 -2.77371
-4.01861 2.27286 -5.55471
-14.8581 -16.0062 -7.11448
3.94248 9.36189 1.30427
0.0 0.0 -2.77371
0.0 0.0 -2.77371
0.63861 0.931433 -3.25708
0.0 0.0 -2.77371
0.0 0.0 -2.77371
0.0 0.0 -2.77371
0.0 0.0 -2.77371
5.26657 28.8295 23.3209
8.03806 -1.2676 -2.65363
-19.5921 4.89509 16.0269
-0.774319 -0.243821 -2.87961
0.0 0.0 -2.77371
0.0 0.0 -2.77371
0.0 0.0 -2.77371
0.0 0.0 -2.77371
-5.08525 0.783079 19.6735
7.96184 10.6265 -11.7066
0.0 0.0 -2.77371
17.8317 -2.90506 5.28867
-58.5364 -11.8133 24.3428
45.5503 29.0979 33.8729
-0.00616085 -18.1874 17.3973
0.0 0.0 -2.77371
12.1197 13.1968 17.6016
1.51624 -2.18647 -0.668531
0.0 0.0 -2.77371
0.0 0.0 -2.77371
0.0 0.0 -2.77371
-44.2465 -19.4565 -42.0856
17.0079 11.0761 3.47607
0.0 0.0 -2.77371
1.86876 2.65721 -1.90173
0.0 0.0 -2.77371
0.0 0.0 -2.77371
-7.75542 15.8378 -21.0202
0.0 0.0 -2.77371
-0.834565 -0.871337 -0.300575
0.0 0.0 -2.77371
0.0 0.0 -2.77371
0.0 0.0 -2.77371
0.0 0.0 -2.77371
-0.29584 -2.13211 13.2876
0.0542409 -0.219469 -1.70181
-2.31909 -17.3658 31.9165