# vtk DataFile Version 2.0
Generated by lpp.py
ASCII
DATASET POLYDATA
POINTS 351 float
2.20178 0.4958 1.55874
0.209453 0.180697 1.58328
0.348344 0.191032 1.57684
0.439163 0.170587 1.58996
0.686098 0.191597 1.57664
0.739491 0.173639 1.5961
0.879714 0.181552 1.58137
0.937581 0.196545 1.57689
1.08267 0.188083 1.57688
1.14728 0.191452 1.57684
1.35219 0.181857 1.58107
1.54011 0.186685 1.57688
1.59755 0.169128 1.59382
1.84648 0.191905 1.57855
1.98063 0.192383 1.57687
2.0571 0.171112 1.59027
0.291194 0.223658 1.57921
0.590133 0.207506 1.57599
0.733006 0.229922 1.57678
1.1953 0.232678 1.57686
1.31038 0.224813 1.57695
1.40114 0.215907 1.57674
1.63698 0.224946 1.57686
2.03391 0.227062 1.57649
0.186969 0.237987 1.57706
0.529692 0.244645 1.57664
0.668227 0.250971 1.58145
0.837916 0.249379 1.57614
0.983653 0.238279 1.57688
1.04409 0.253708 1.57948
1.13262 0.251624 1.57686
1.44903 0.251665 1.57902
1.5096 0.246332 1.57686
1.7286 0.267346 1.57686
1.80503 0.237746 1.57686
0.141146 0.276462 1.57742
0.225381 0.28869 1.57577
0.379175 0.292553 1.57697
0.437925 0.279326 1.57817
0.570642 0.288251 1.57707
0.782998 0.279321 1.57743
0.916482 0.2843 1.57686
0.980461 0.2977 1.57674
1.18311 0.295439 1.57684
1.24337 0.270312 1.57687
1.33626 0.278984 1.57703
1.48161 0.302117 1.57687
1.86279 0.27491 1.57686
1.99421 0.275121 1.57686
0.124504 0.333566 1.57517
0.329461 0.328608 1.57688
0.837107 0.309878 1.5826
1.22595 0.337475 1.57694
1.28589 0.315237 1.57687
1.34088 0.338791 1.57731
1.63999 0.321966 1.57676
1.69954 0.322024 1.57665
1.75718 0.337555 1.57805
0.00710434 0.376353 1.57724
0.2456 0.367959 1.57648
0.394546 0.353596 1.57667
0.46318 0.370042 1.57699
0.525693 0.365601 1.58061
0.707728 0.340802 1.57685
0.939553 0.341103 1.57671
1.00481 0.35261 1.577
1.13177 0.353644 1.57682
1.53494 0.346491 1.57714
1.80897 0.378841 1.57686
1.88157 0.354919 1.57681
0.121286 0.409359 1.57879
0.660241 0.404979 1.57684
0.80571 0.386695 1.57684
1.04934 0.392767 1.58523
1.18874 0.385177 1.57686
1.2719 0.376157 1.57683
1.41479 0.405306 1.57669
1.57802 0.387841 1.58716
1.65828 0.384047 1.57852
0.181971 0.426347 1.5749
0.372155 0.411886 1.577
0.423942 0.447371 1.58036
0.740921 0.442364 1.57688
0.920737 0.431357 1.57682
0.980666 0.443456 1.57806
1.30458 0.426288 1.5796
1.47614 0.414997 1.57676
1.56076 0.444572 1.57685
1.62566 0.434834 1.577
1.69206 0.436122 1.57825
1.75494 0.440856 1.57686
1.89233 0.414494 1.5769
2.16022 0.436666 1.56888
0.322385 0.443444 1.57589
0.368174 0.479325 1.5876
0.491365 0.453708 1.57758
0.608503 0.466484 1.57658
0.809741 0.447871 1.57685
1.08368 0.445376 1.57653
1.19225 0.447426 1.57691
1.26392 0.470039 1.57679
1.36936 0.466352 1.57686
1.44272 0.467685 1.57686
1.8151 0.465459 1.57711
0.0971749 0.516239 1.58365
0.428712 0.515082 1.57705
0.542638 0.509622 1.57867
0.662209 0.482302 1.59712
0.830829 0.509909 1.57686
0.91276 0.490866 1.5765
0.967873 0.513489 1.57758
1.08995 0.504249 1.58048
1.18953 0.507287 1.5768
1.32102 0.505138 1.57688
1.53022 0.505921 1.57683
1.59092 0.507998 1.57723
1.67132 0.494033 1.57687
2.1173 0.490356 1.57082
0.162329 0.544059 1.57685
0.229973 0.53313 1.5784
0.31817 0.553549 1.58215
0.624604 0.542566 1.57673
0.740337 0.517682 1.57692
1.37366 0.540349 1.5765
1.45152 0.529238 1.57686
1.63253 0.550668 1.57706
1.79745 0.522746 1.57684
2.04653 0.543081 1.57595
2.26573 0.537502 1.572
0.391664 0.563459 1.58461
0.453399 0.569809 1.57789
0.551227 0.568815 1.57742
0.669836 0.579651 1.58873
0.743061 0.577051 1.5849
0.820093 0.57919 1.58836
1.00127 0.567464 1.5768
1.06724 0.559041 1.57625
1.12657 0.553484 1.57708
1.22144 0.562216 1.57654
1.31713 0.565247 1.57698
1.54672 0.567621 1.57689
1.75822 0.577485 1.58666
2.15154 0.553045 1.5675
0.130126 0.152742 1.62705
0.482247 0.128486 1.63433
0.577638 0.140817 1.62364
0.884401 0.132452 1.63068
0.944222 0.140011 1.62295
1.06499 0.143877 1.61965
1.31011 0.139762 1.6232
0.632632 0.189935 1.61384
0.446722 0.226567 1.60516
1.00983 0.196099 1.63213
0.0958165 0.239082 1.59396
0.164062 0.23031 1.63279
0.267653 0.24721 1.62929
0.575526 0.24493 1.62267
0.317625 0.29217 1.62295
0.499273 0.298397 1.60644
0.0525066 0.342957 1.61219
0.241078 0.317456 1.62466
0.613409 0.308128 1.61432
1.14364 0.314512 1.62067
0.205985 0.366074 1.62264
0.428363 0.348124 1.62316
0.57569 0.37271 1.63429
1.47437 0.358329 1.61068
0.131798 0.367951 1.62
0.381845 0.383725 1.62766
0.48395 0.40823 1.61588
1.12167 0.403939 1.60758
1.36395 0.384348 1.61224
0.232348 0.419722 1.60226
0.342479 0.430265 1.62926
0.618513 0.42372 1.63146
1.53914 0.438639 1.63299
0.115875 0.459278 1.60943
0.174154 0.454503 1.62683
0.237818 0.479418 1.60622
0.292365 0.467469 1.62827
1.13602 0.46177 1.60028
1.47922 0.454256 1.6225
0.405208 0.502319 1.62891
0.469966 0.506415 1.62111
0.526903 0.483302 1.63201
0.908984 0.546054 1.59902
1.01533 0.522844 1.61407
1.09375 0.541304 1.62704
1.26885 0.542543 1.60692
0.250001 0.576504 1.61614
0.411266 0.617426 1.6281
0.527282 0.606483 1.61792
0.741685 0.621413 1.6306
0.931709 0.600527 1.60964
0.993029 0.60902 1.61836
1.09756 0.598348 1.60905
1.17425 0.590518 1.59936
1.23688 0.608325 1.61906
1.40772 0.594306 1.60405
1.38728 0.0999216 1.6661
0.743813 0.127486 1.63456
1.01028 0.133693 1.63833
0.198878 0.169981 1.65012
0.360157 0.153395 1.64784
0.444646 0.182773 1.66931
0.781479 0.173273 1.6404
0.494705 0.195338 1.62796
0.368679 0.255101 1.63015
0.691155 0.265496 1.64877
0.438344 0.293859 1.63994
0.173877 0.308625 1.63379
0.360639 0.330402 1.64584
0.736331 0.329639 1.63585
0.976241 0.306559 1.63569
0.635888 0.3628 1.63412
0.293977 0.397988 1.64465
0.4896 0.375136 1.66498
0.780076 0.380385 1.63917
1.42719 0.404411 1.6421
0.246653 0.432117 1.65699
0.435328 0.417703 1.64886
0.534876 0.419152 1.64306
0.941763 0.427291 1.65805
0.336604 0.479728 1.66813
0.731263 0.482928 1.65679
1.364 0.484382 1.64597
0.3394 0.542713 1.64048
0.669121 0.529436 1.63368
0.471053 0.581244 1.64274
0.575228 0.573291 1.64016
0.760132 0.559414 1.63673
0.901463 0.570731 1.65274
0.648727 0.611481 1.63631
0.332378 0.62711 1.63655
0.318964 0.199029 1.67703
0.220689 0.236454 1.68584
0.429816 0.242987 1.66624
0.257429 0.287903 1.67248
0.335835 0.286603 1.6777
0.491545 0.28038 1.66324
0.397517 0.306993 1.68686
0.664656 0.323898 1.67469
0.10236 0.367191 1.67058
0.17556 0.372691 1.6756
0.24172 0.365572 1.66945
0.407079 0.36791 1.67874
0.606464 0.344322 1.68953
0.124882 0.444445 1.67505
0.439906 0.474454 1.66785
0.517971 0.531311 1.66712
0.609624 0.620419 1.68962
0.408748 0.227842 1.71972
0.487439 0.249748 1.71842
0.294104 0.330329 1.69615
0.448321 0.337881 1.70805
0.522162 0.40654 1.70459
0.0461742 0.42475 1.71218
0.292518 0.429151 1.69374
0.367426 0.412254 1.68204
0.387806 0.497135 1.70513
0.310144 0.556659 1.71685
0.715763 0.609902 1.71604
0.367946 0.698174 1.70671
0.489561 0.328877 1.74622
0.436973 0.45447 1.73933
0.498994 0.449521 1.7405
0.10683 0.52412 1.71689
0.498691 0.522189 1.7469
0.307197 0.231054 1.76726
0.112238 0.243444 1.77243
0.338106 0.302046 1.77292
0.26384 0.382845 1.76993
0.197767 0.505506 1.76813
0.196779 0.286134 1.81304
0.144627 0.329159 1.78755
0.388723 0.350133 1.80047
0.336562 0.447813 1.80667
0.316599 0.507618 1.81718
0.498503 0.253983 1.85345
0.322732 0.35929 1.84112
0.179678 0.383211 1.83188
0.404531 0.416433 1.83349
0.180002 0.445959 1.82772
0.133145 0.50156 1.85207
0.4192 0.521596 1.83638
0.432796 0.302258 1.88329
0.499396 0.409304 1.89175
0.230608 0.478968 1.86855
0.299287 0.247375 1.89743
0.442411 0.236129 1.90169
0.126939 0.284236 1.91609
0.187834 0.32549 1.92304
0.345572 0.308923 1.91008
0.476186 0.343657 1.90339
0.282511 0.427246 1.92695
0.180798 0.510604 1.9258
0.383426 0.485675 1.91434
0.196226 0.26238 1.95064
0.356376 0.254196 1.95406
0.256147 0.321804 1.94103
0.110703 0.374435 1.94453
0.415762 0.389621 1.95503
0.107302 0.455042 1.95113
0.49838 0.508374 1.9614
0.271982 0.260644 2.00433
0.321856 0.294278 2.00206
0.44222 0.295647 1.99009
0.346145 0.350757 1.99525
0.475094 0.383761 1.98861
0.214879 0.429082 1.97355
0.466199 0.451954 1.99576
0.104255 0.515661 2.00651
0.236464 0.494005 1.99256
0.430217 0.500721 1.99629
0.339305 0.526873 1.98549
0.103324 0.228818 2.03837
0.161403 0.258279 2.03788
0.363615 0.240431 2.04394
0.499192 0.246026 2.04258
0.125428 0.344451 2.02189
0.189012 0.364304 2.0321
0.415188 0.353574 2.02746
0.282424 0.374546 2.01459
0.115455 0.44409 2.03372
0.323589 0.424937 2.02514
0.40415 0.414672 2.0445
0.370433 0.49856 2.04132
0.425069 0.242959 2.0451
0.257372 0.298287 2.07437
0.31493 0.348737 2.06385
0.484684 0.362834 2.07124
0.125062 0.39201 2.07589
0.158807 0.499296 2.05065
0.264146 0.523422 2.04795
0.220666 0.238837 2.08734
0.393674 0.233628 2.10132
0.17717 0.298235 2.0992
0.314466 0.284399 2.09272
0.492483 0.279077 2.0944
0.417494 0.317622 2.09147
0.107591 0.339963 2.10367
0.217234 0.387064 2.08563
0.385775 0.387923 2.10657
0.449749 0.403068 2.09884
0.139724 0.459766 2.10164
0.263093 0.452487 2.09205
0.417911 0.469013 2.08692
0.486571 0.452792 2.09556
0.220758 0.508511 2.09861
0.312076 0.491969 2.0976
0.490194 0.521396 2.10111
VERTICES 351 702
1 0
1 1
1 2
1 3
1 4
1 5
1 6
1 7
1 8
1 9
1 10
1 11
1 12
1 13
1 14
1 15
1 16
1 17
1 18
1 19
1 20
1 21
1 22
1 23
1 24
1 25
1 26
1 27
1 28
1 29
1 30
1 31
1 32
1 33
1 34
1 35
1 36
1 37
1 38
1 39
1 40
1 41
1 42
1 43
1 44
1 45
1 46
1 47
1 48
1 49
1 50
1 51
1 52
1 53
1 54
1 55
1 56
1 57
1 58
1 59
1 60
1 61
1 62
1 63
1 64
1 65
1 66
1 67
1 68
1 69
1 70
1 71
1 72
1 73
1 74
1 75
1 76
1 77
1 78
1 79
1 80
1 81
1 82
1 83
1 84
1 85
1 86
1 87
1 88
1 89
1 90
1 91
1 92
1 93
1 94
1 95
1 96
1 97
1 98
1 99
1 100
1 101
1 102
1 103
1 104
1 105
1 106
1 107
1 108
1 109
1 110
1 111
1 112
1 113
1 114
1 115
1 116
1 117
1 118
1 119
1 120
1 121
1 122
1 123
1 124
1 125
1 126
1 127
1 128
1 129
1 130
1 131
1 132
1 133
1 134
1 135
1 136
1 137
1 138
1 139
1 140
1 141
1 142
1 143
1 144
1 145
1 146
1 147
1 148
1 149
1 150
1 151
1 152
1 153
1 154
1 155
1 156
1 157
1 158
1 159
1 160
1 161
1 162
1 163
1 164
1 165
1 166
1 167
1 168
1 169
1 170
1 171
1 172
1 173
1 174
1 175
1 176
1 177
1 178
1 179
1 180
1 181
1 182
1 183
1 184
1 185
1 186
1 187
1 188
1 189
1 190
1 191
1 192
1 193
1 194
1 195
1 196
1 197
1 198
1 199
1 200
1 201
1 202
1 203
1 204
1 205
1 206
1 207
1 208
1 209
1 210
1 211
1 212
1 213
1 214
1 215
1 216
1 217
1 218
1 219
1 220
1 221
1 222
1 223
1 224
1 225
1 226
1 227
1 228
1 229
1 230
1 231
1 232
1 233
1 234
1 235
1 236
1 237
1 238
1 239
1 240
1 241
1 242
1 243
1 244
1 245
1 246
1 247
1 248
1 249
1 250
1 251
1 252
1 253
1 254
1 255
1 256
1 257
1 258
1 259
1 260
1 261
1 262
1 263
1 264
1 265
1 266
1 267
1 268
1 269
1 270
1 271
1 272
1 273
1 274
1 275
1 276
1 277
1 278
1 279
1 280
1 281
1 282
1 283
1 284
1 285
1 286
1 287
1 288
1 289
1 290
1 291
1 292
1 293
1 294
1 295
1 296
1 297
1 298
1 299
1 300
1 301
1 302
1 303
1 304
1 305
1 306
1 307
1 308
1 309
1 310
1 311
1 312
1 313
1 314
1 315
1 316
1 317
1 318
1 319
1 320
1 321
1 322
1 323
1 324
1 325
1 326
1 327
1 328
1 329
1 330
1 331
1 332
1 333
1 334
1 335
1 336
1 337
1 338
1 339
1 340
1 341
1 342
1 343
1 344
1 345
1 346
1 347
1 348
1 349
1 350
POINT_DATA 351
VECTORS i float
0.0 0.0 0.0
0.0 0.0 0.0
0.0 0.0 0.0
0.0 0.0 0.0
0.0 0.0 0.0
0.0 0.0 0.0
0.0 0.0 0.0
0.0 0.0 0.0
0.0 0.0 0.0
0.0 0.0 0.0
0.0 0.0 0.0
0.0 0.0 0.0
0.0 0.0 0.0
0.0 0.0 0.0
0.0 0.0 0.0
0.0 0.0 0.0
0.0 0.0 0.0
0.0 0.0 0.0
0.0 0.0 0.0
0.0 0.0 0.0
0.0 0.0 0.0
0.0 0.0 0.0
0.0 0.0 0.0
0.0 0.0 0.0
0.0 0.0 0.0
0.0 0.0 0.0
0.0 0.0 0.0
0.0 0.0 0.0
0.0 0.0 0.0
0.0 0.0 0.0
0.0 0.0 0.0
0.0 0.0 0.0
0.0 0.0 0.0
0.0 0.0 0.0
0.0 0.0 0.0
0.0 0.0 0.0
0.0 0.0 0.0
0.0 0.0 0.0
0.0 0.0 0.0
0.0 0.0 0.0
0.0 0.0 0.0
0.0 0.0 0.0
0.0 0.0 0.0
0.0 0.0 0.0
0.0 0.0 0.0
0.0 0.0 0.0
0.0 0.0 0.0
0.0 0.0 0.0
0.0 0.0 0.0
0.0 0.0 0.0
0.0 0.0 0.0
0.0 0.0 0.0
0.0 0.0 0.0
0.0 0.0 0.0
0.0 0.0 0.0
0.0 0.0 0.0
0.0 0.0 0.0
0.0 0.0 0.0
0.0 0.0 0.0
0.0 0.0 0.0
0.0 0.0 0.0
0.0 0.0 0.0
0.0 0.0 0.0
0.0 0.0 0.0
0.0 0.0 0.0
0.0 0.0 0.0
0.0 0.0 0.0
0.0 0.0 0.0
0.0 0.0 0.0
0.0 0.0 0.0
0.0 0.0 0.0
0.0 0.0 0.0
0.0 0.0 0.0
0.0 0.0 0.0
0.0 0.0 0.0
0.0 0.0 0.0
0.0 0.0 0.0
0.0 0.0 0.0
0.0 0.0 0.0
0.0 0.0 0.0
0.0 0.0 0.0
0.0 0.0 0.0
0.0 0.0 0.0
0.0 0.0 0.0
0.0 0.0 0.0
0.0 0.0 0.0
0.0 0.0 0.0
0.0 0.0 0.0
0.0 0.0 0.0
0.0 0.0 0.0
0.0 0.0 0.0
0.0 0.0 0.0
0.0 0.0 0.0
0.0 0.0 0.0
0.0 0.0 0.0
0.0 0.0 0.0
0.0 0.0 0.0
0.0 0.0 0.0
0.0 0.0 0.0
0.0 0.0 0.0
0.0 0.0 0.0
0.0 0.0 0.0
0.0 0.0 0.0
0.0 0.0 0.0
0.0 0.0 0.0
0.0 0.0 0.0
0.0 0.0 0.0
0.0 0.0 0.0
0.0 0.0 0.0
0.0 0.0 0.0
0.0 0.0 0.0
0.0 0.0 0.0
0.0 0.0 0.0
0.0 0.0 0.0
0.0 0.0 0.0
0.0 0.0 0.0
0.0 0.0 0.0
0.0 0.0 0.0
0.0 0.0 0.0
0.0 0.0 0.0
0.0 0.0 0.0
0.0 0.0 0.0
0.0 0.0 0.0
0.0 0.0 0.0
0.0 0.0 0.0
0.0 0.0 0.0
0.0 0.0 0.0
0.0 0.0 0.0
0.0 0.0 0.0
0.0 0.0 0.0
0.0 0.0 0.0
0.0 0.0 0.0
0.0 0.0 0.0
0.0 0.0 0.0
0.0 0.0 0.0
0.0 0.0 0.0
0.0 0.0 0.0
0.0 0.0 0.0
0.0 0.0 0.0
0.0 0.0 0.0
0.0 0.0 0.0
0.0 0.0 0.0
0.0 0.0 0.0
0.0 0.0 0.0
0.0 0.0 0.0
0.0 0.0 0.0
0.0 0.0 0.0
0.0 0.0 0.0
0.0 0.0 0.0
0.0 0.0 0.0
0.0 0.0 0.0
0.0 0.0 0.0
0.0 0.0 0.0
0.0 0.0 0.0
0.0 0.0 0.0
0.0 0.0 0.0
0.0 0.0 0.0
0.0 0.0 0.0
0.0 0.0 0.0
0.0 0.0 0.0
0.0 0.0 0.0
0.0 0.0 0.0
0.0 0.0 0.0
0.0 0.0 0.0
0.0 0.0 0.0
0.0 0.0 0.0
0.0 0.0 0.0
0.0 0.0 0.0
0.0 0.0 0.0
0.0 0.0 0.0
0.0 0.0 0.0
0.0 0.0 0.0
0.0 0.0 0.0
0.0 0.0 0.0
0.0 0.0 0.0
0.0 0.0 0.0
0.0 0.0 0.0
0.0 0.0 0.0
0.0 0.0 0.0
0.0 0.0 0.0
0.0 0.0 0.0
0.0 0.0 0.0
0.0 0.0 0.0
0.0 0.0 0.0
0.0 0.0 0.0
0.0 0.0 0.0
0.0 0.0 0.0
0.0 0.0 0.0
0.0 0.0 0.0
0.0 0.0 0.0
0.0 0.0 0.0
0.0 0.0 0.0
0.0 0.0 0.0
0.0 0.0 0.0
0.0 0.0 0.0
0.0 0.0 0.0
0.0 0.0 0.0
0.0 0.0 0.0
0.0 0.0 0.0
0.0 0.0 0.0
0.0 0.0 0.0
0.0 0.0 0.0
0.0 0.0 0.0
0.0 0.0 0.0
0.0 0.0 0.0
0.0 0.0 0.0
0.0 0.0 0.0
0.0 0.0 0.0
0.0 0.0 0.0
0.0 0.0 0.0
0.0 0.0 0.0
0.0 0.0 0.0
0.0 0.0 0.0
0.0 0.0 0.0
0.0 0.0 0.0
0.0 0.0 0.0
0.0 0.0 0.0
0.0 0.0 0.0
0.0 0.0 0.0
0.0 0.0 0.0
0.0 0.0 0.0
0.0 0.0 0.0
0.0 0.0 0.0
0.0 0.0 0.0
0.0 0.0 0.0
0.0 0.0 0.0
0.0 0.0 0.0
0.0 0.0 0.0
0.0 0.0 0.0
0.0 0.0 0.0
0.0 0.0 0.0
0.0 0.0 0.0
0.0 0.0 0.0
0.0 0.0 0.0
0.0 0.0 0.0
0.0 0.0 0.0
0.0 0.0 0.0
0.0 0.0 0.0
0.0 0.0 0.0
0.0 0.0 0.0
0.0 0.0 0.0
0.0 0.0 0.0
0.0 0.0 0.0
0.0 0.0 0.0
0.0 0.0 0.0
0.0 0.0 0.0
0.0 0.0 0.0
0.0 0.0 0.0
0.0 0.0 0.0
0.0 0.0 0.0
0.0 0.0 0.0
0.0 0.0 0.0
0.0 0.0 0.0
0.0 0.0 0.0
0.0 0.0 0.0
0.0 0.0 0.0
0.0 0.0 0.0
0.0 0.0 0.0
0.0 0.0 0.0
0.0 0.0 0.0
0.0 0.0 0.0
0.0 0.0 0.0
0.0 0.0 0.0
0.0 0.0 0.0
0.0 0.0 0.0
0.0 0.0 0.0
0.0 0.0 0.0
0.0 0.0 0.0
0.0 0.0 0.0
0.0 0.0 0.0
0.0 0.0 0.0
0.0 0.0 0.0
0.0 0.0 0.0
0.0 0.0 0.0
0.0 0.0 0.0
0.0 0.0 0.0
0.0 0.0 0.0
0.0 0.0 0.0
0.0 0.0 0.0
0.0 0.0 0.0
0.0 0.0 0.0
0.0 0.0 0.0
0.0 0.0 0.0
0.0 0.0 0.0
0.0 0.0 0.0
0.0 0.0 0.0
0.0 0.0 0.0
0.0 0.0 0.0
0.0 0.0 0.0
0.0 0.0 0.0
0.0 0.0 0.0
0.0 0.0 0.0
0.0 0.0 0.0
0.0 0.0 0.0
0.0 0.0 0.0
0.0 0.0 0.0
0.0 0.0 0.0
0.0 0.0 0.0
0.0 0.0 0.0
0.0 0.0 0.0
0.0 0.0 0.0
0.0 0.0 0.0
0.0 0.0 0.0
0.0 0.0 0.0
0.0 0.0 0.0
0.0 0.0 0.0
0.0 0.0 0.0
0.0 0.0 0.0
0.0 0.0 0.0
0.0 0.0 0.0
0.0 0.0 0.0
0.0 0.0 0.0
0.0 0.0 0.0
0.0 0.0 0.0
0.0 0.0 0.0
0.0 0.0 0.0
0.0 0.0 0.0
0.0 0.0 0.0
0.0 0.0 0.0
0.0 0.0 0.0
0.0 0.0 0.0
0.0 0.0 0.0
0.0 0.0 0.0
0.0 0.0 0.0
0.0 0.0 0.0
0.0 0.0 0.0
0.0 0.0 0.0
0.0 0.0 0.0
0.0 0.0 0.0
0.0 0.0 0.0
0.0 0.0 0.0
0.0 0.0 0.0
0.0 0.0 0.0
0.0 0.0 0.0
0.0 0.0 0.0
0.0 0.0 0.0
0.0 0.0 0.0
0.0 0.0 0.0
0.0 0.0 0.0
0.0 0.0 0.0
0.0 0.0 0.0
0.0 0.0 0.0
0.0 0.0 0.0
0.0 0.0 0.0
0.0 0.0 0.0
0.0 0.0 0.0
0.0 0.0 0.0
0.0 0.0 0.0
0.0 0.0 0.0
0.0 0.0 0.0
0.0 0.0 0.0
VECTORS f float
0.0 0.0 -2.77371
0.0 0.0 -2.77371
-0.052339 0.00260322 -0.00228328
-1.47776 8.34789 18.2942
0.847209 -0.746317 0.783111
0.947851 0.530284 -1.72129
0.220161 0.692463 -0.730201
0.113869 0.0374082 -0.025974
-0.012331 0.0015428 -0.438347
0.0150277 0.000290852 0.573238
0.625165 0.559885 -0.337614
0.0285356 0.0021494 -0.296971
0.0153502 1.10396 -0.85946
0.0 0.0 -2.77371
-0.0034417 0.000384228 -0.209588
0.0 0.0 -2.77371
0.0 0.0 -2.77371
-0.323633 -0.101822 5.04606
0.412215 -0.555669 1.0287
0.000156765 -0.000177848 0.0620852
0.573469 0.0651803 -1.61939
2.7603 2.82114 2.1804
-1.20645e-08 1.42236e-09 8.28931e-08
0.0 0.0 -2.77371
5.24798 -5.18347 0.777181
2.88319 1.74393 1.44691
0.0 0.0 -2.77371
12.1123 2.14086 21.8265
-0.286154 -1.88091 -1.91233
0.0 0.0 -2.77371
0.00242429 -3.23151e-05 0.0302382
0.114718 0.0543313 -2.71073
1.21534e-06 -1.37604e-08 5.44671e-06
3.06525e-05 -3.02718e-06 0.000795024
0.943987 -0.59954 0.908367
-7.19308 -7.16094 -3.90075
-12.1157 7.20146 -12.716
1.86426 0.48883 1.08085
5.0574 7.80591 -0.131262
18.0161 9.87942 10.6632
0.0 0.0 -2.77371
0.000103532 2.46104e-06 0.00234521
0.349681 -2.61813 0.517681
-0.237727 -0.178293 -0.483771
-0.00715241 0.000792794 -0.154911
0.212727 1.08971 -0.879533
-0.0731755 -1.90191 2.6412
-6.98969e-08 2.5427e-08 -9.03251e-06
0.000230598 3.43999e-06 0.00878239
29.3319 11.628 20.5313
-4.96325 -5.59461 -32.6115
0.0 0.0 -2.77371
0.824683 0.714855 -0.590944
-2.74634 -1.02432 -1.73352
5.30393 1.82045 0.0123716
-2.46754 -0.208377 0.476539
5.93823 0.33458 1.86655
0.625075 0.13392 -2.43735
0.0 0.0 -2.77371
-3.64165 -2.09907 -6.25646
-15.6548 40.074 -62.5044
-7.15378 -16.9091 -17.0766
0.0 0.0 -2.77371
-0.0116137 0.000366273 0.134469
0.00666889 -0.171376 1.08155
-0.333082 -0.185084 -2.40186
0.00495402 0.0190239 -0.115981
0.0 0.0 -2.77371
2.93381e-08 -1.25941e-08 5.23829e-07
-0.184017 0.023529 1.01755
7.4185 -22.6937 -18.4202
0.656258 -0.261027 8.47681
-0.13074 0.020068 -0.969335
0.0 0.0 -2.77371
-0.00816952 -0.00169758 -0.0130738
1.33604 1.67951 2.78584
-0.0278537 -0.0422439 4.03127
0.0 0.0 -2.77371
0.0 0.0 -2.77371
6.3682 -1.17793 9.59885
93.9173 19.0774 16.2938
0.0 0.0 -2.77371
0.0108562 -0.00052886 -0.0868776
-0.169851 -0.0678931 1.08882
0.0 0.0 -2.77371
1.15297 -0.22366 -1.60862
-0.53657 -0.246192 -1.593
-0.0401849 0.398089 0.0435043
0.0518422 -0.13932 -2.47641
0.0 0.0 -2.77371
2.61764e-05 -2.5691e-06 -0.0196503
-0.00359423 -0.000466066 -0.605735
0.0 0.0 -2.77371
17.9427 14.777 0.788907
1.33939 1.69371 -3.21309
0.172349 0.895799 -2.98785
3.14778 0.37961 5.53307
-0.00264446 0.00242376 0.170755
-0.222143 -2.81096 1.34526
-0.0179012 -0.492771 -1.14212
1.0549 0.152156 0.523147
-0.00104419 -7.74619e-05 -0.0298318
4.42257 1.04194 -6.29209
-0.0202438 0.0448886 -2.75034
0.0 0.0 -2.77371
20.8182 4.11275 -23.1427
-0.751199 -2.21591 -3.78349
1.96689 0.878392 -0.546268
-0.000125771 1.49218e-05 0.000804747
2.42674 0.201934 1.98135
0.500176 0.179647 -2.49713
1.9655 0.124514 3.28046
-0.0449018 0.109763 0.461909
-0.0261165 -0.0129804 -0.498861
0.0924342 0.00614395 1.1536
-1.45671 -1.2072 -3.6862
0.325162 -1.71821 0.723706
0.0 0.0 -2.77371
-0.0200998 -0.00105634 0.0814046
0.0 0.0 -2.77371
0.0 0.0 -2.77371
1.48509 -1.15738 1.32339
-0.0331994 1.21751 -0.387724
2.71242 0.806375 14.9357
0.00262301 0.0015339 0.0223314
1.53028 1.3993 -2.27264
0.00246005 0.0144951 0.0939475
0.0 0.0 -2.77371
0.0 0.0 -2.77371
0.0 0.0 -2.77371
-3.80438 -10.1048 8.06114
0.731133 -4.55409 5.68365
0.969134 -0.670083 2.16774
-4.41218 -2.13299 -15.9067
-0.000305626 -0.987872 -0.989941
7.40382 -23.6563 -13.3909
-6.72478 4.98296 -1.6332
2.64513 -0.368484 -1.86089
-0.455836 -2.24759 -0.175299
-0.0957873 -0.0156974 -1.83371
0.0286365 -1.18762 0.713146
1.24962e-06 -0.988771 -0.988773
0.0 0.0 -2.77371
0.0 0.0 -2.77371
-0.0760159 1.82863 -0.790671
0.0 0.0 -2.77371
-0.232865 0.319038 -2.05133
0.610321 0.808915 -1.01326
11.6886 7.89583 -4.04277
0.00874294 0.889387 -1.05912
-4.76989 1.73005 -4.2587
-3.74661 12.5448 1.2415
0.0 0.0 -2.77371
0.0 0.0 -2.77371
0.0 0.0 -2.77371
0.0 0.0 -2.77371
0.0 0.0 -2.77371
0.671046 12.586 2.61032
0.0 0.0 -2.77371
0.0 0.0 -2.77371
-22.6211 2.12234 -53.7523
0.0 0.0 -2.77371
0.0409774 -0.0327128 -2.6074
-11.2356 2.12647 -13.0833
17.6134 -6.03192 36.4083
0.0 0.0 -2.77371
0.0 0.0 -2.77371
2.87441 48.5193 58.6829
-4.48452 9.09612 6.21533
7.09304 7.17997 10.2624
-0.161097 0.66281 -1.70433
0.0 0.0 -2.77371
-0.654771 -8.52853 -4.22508
-4.47133 -13.4373 37.07
0.0 0.0 -2.77371
0.0 0.0 -2.77371
-3.96339 7.41786 8.24997
-4.80741 3.88991 3.26242
0.0 0.0 -2.77371
0.0 0.0 -2.77371
0.939 -0.115149 -1.97108
-4.10536 -1.10504 3.7079
-35.8058 4.78524 -0.65025
0.0 0.0 -2.77371
0.0 0.0 -2.77371
0.201626 0.109991 -1.74378
0.346843 -2.88052 -2.83196
7.2097 -1.32689 2.19874
1.58832 -0.678915 -2.22969
0.0 0.0 -2.77371
0.0 0.0 -2.77371
0.0 0.0 -2.77371
0.012318 -0.798591 -1.18372
-0.241722 -1.38835 -2.11479
-7.26013 25.6684 15.4959
1.45212 1.72995 1.42736
0.785025 -1.18155 2.09436
0.0 0.0 -2.77371
0.0 0.0 -2.77371
0.0 0.0 -2.77371
-2.37245 2.63463 1.79286
-11.6886 -7.89583 -1.50465
0.0 0.0 -2.77371
0.0 0.0 -2.77371
0.0 0.0 -2.77371
-0.0759744 -1.90019 -4.67775
0.0 0.0 -2.77371
0.0 0.0 -2.77371
0.0 0.0 -2.77371
28.4009 -24.5634 19.7501
0.0 0.0 -2.77371
5.79551 5.28156 -15.0168
0.0 0.0 -2.77371
1.00316 0.266987 -0.357575
0.0 0.0 -2.77371
-11.8342 -14.943 -24.9772
-0.371646 5.31523 -5.77359
0.0 0.0 -2.77371
0.0 0.0 -2.77371
4.10681 -11.7117 -140.431
-2.7883 2.42356 -0.881518
3.05224 1.10262 -0.20302
0.0 0.0 -2.77371
0.0 0.0 -2.77371
0.0 0.0 -2.77371
0.0 0.0 -2.77371
0.0 0.0 -2.77371
0.0 0.0 -2.77371
0.0 0.0 -2.77371
0.0 0.0 -2.77371
18.6392 -29.5773 62.7646
-0.0281497 1.79668 -2.03147
0.0 0.0 -2.77371
0.0105918 0.293113 -2.32163
0.0 0.0 -2.77371
0.0 0.0 -2.77371
-3.06936 -14.8551 3.50942
27.1245 -4.95643 64.4366
-2.20793 -12.7589 28.3276
5.70955 -3.29239 -5.12188
-0.584719 0.367115 -4.54923
0.0 0.0 -2.77371
-3.08758 5.07384 11.6465
0.0 0.0 -2.77371
16.0853 -3.22813 16.3083
-18.166 2.79879 -28.9237
0.0 0.0 -2.77371
0.0 0.0 -2.77371
15.4627 -9.747 11.3098
0.0 0.0 -2.77371
0.0 0.0 -2.77371
-2.67225 -4.98369 2.34481
0.0 0.0 -2.77371
0.0 0.0 -2.77371
-70.0774 21.4222 -51.8311
0.0 0.0 -2.77371
0.0 0.0 -2.77371
37.8756 30.645 192.99
-4.5981 7.00688 1.77091
0.0 0.0 -2.77371
0.0 0.0 -2.77371
0.0 0.0 -2.77371
5.17558 -6.66199 5.59637
93.6308 -29.9345 72.1341
0.0 0.0 -2.77371
0.0 0.0 -2.77371
0.0 0.0 -2.77371
0.0 0.0 -2.77371
0.0 0.0 -2.77371
0.0 0.0 -2.77371
0.0 0.0 -2.77371
0.0 0.0 -2.77371
0.0 0.0 -2.77371
0.0 0.0 -2.77371
0.0 0.0 -2.77371
0.0 0.0 -2.77371
0.0 0.0 -2.77371
0.0 0.0 -2.77371
0.0 0.0 -2.77371
0.0 0.0 -2.77371
0.0 0.0 -2.77371
0.0 0.0 -2.77371
0.0 0.0 -2.77371
0.0 0.0 -2.77371
0.0 0.0 -2.77371
0.0 0.0 -2.77371
0.0 0.0 -2.77371
0.0 0.0 -2.77371
0.0 0.0 -2.77371
0.0 0.0 -2.77371
0.0 0.0 -2.77371
0.0 0.0 -2.77371
0.0 0.0 -2.77371
0.0 0.0 -2.77371
0.0 0.0 -2.77371
0.0 0.0 -2.77371
0.0 0.0 -2.77371
0.0 0.0 -2.77371
0.0 0.0 -2.77371
0.0 0.0 -2.77371
0.0 0.0 -2.77371
0.0 0.0 -2.77371
0.0 0.0 -2.77371
0.0 0.0 -2.77371
0.0 0.0 -2.77371
0.0 0.0 -2.77371
0.0 0.0 -2.77371
0.0 0.0 -2.77371
0.0 0.0 -2.77371
0.0 0.0 -2.77371
0.0 0.0 -2.77371
0.0 0.0 -2.77371
0.0 0.0 -2.77371
0.0 0.0 -2.77371
0.0 0.0 -2.77371
0.0 0.0 -2.77371
0.0 0.0 -2.77371
0.0 0.0 -2.77371
0.0 0.0 -2.77371
0.0 0.0 -2.77371
0.0 0.0 -2.77371
0.0 0.0 -2.77371
0.0 0.0 -2.77371
0.0 0.0 -2.77371
0.0 0.0 -2.77371
0.0 0.0 -2.77371
0.0 0.0 -2.77371
0.0 0.0 -2.77371
0.0 0.0 0.0
0.0 0.0 0.0
0.0 0.0 0.0
0.0 0.0 0.0
0.0 0.0 0.0
0.0 0.0 0.0
0.0 0.0 0.0
0.0 0.0 0.0
0.0 0.0 0.0
0.0 0.0 0.0
0.0 0.0 0.0
0.0 0.0 0.0
0.0 0.0 0.0
0.0 0.0 0.0
0.0 0.0 0.0
0.0 0.0 0.0
0.0 0.0 0.0
0.0 0.0 0.0
0.0 0.0 0.0
0.0 0.0 0.0
0.0 0.0 0.0
0.0 0.0 0.0
0.0 0.0 0.0
VECTORS omega float
17.1715 -3.71934 10.6634
15.9886 -81.2531 41.0724
-4.7114 -92.2694 19.8958
1.60691 -102.717 9.40773
-11.5433 -61.344 48.1245
26.9122 41.1891 -38.0823
0.85548 -36.3638 32.7086
-3.83032 -50.0406 17.5344
-1.59233 -48.1366 18.834
-1.21155 -44.3912 3.34322
-7.27486 -17.072 29.6856
-0.742649 -51.87 2.75206
-11.8486 -14.4279 49.0777
8.97958 -42.1698 -2.12658
-4.72501 -43.5253 13.4518
2.07324 -32.5155 15.9314
26.1001 -87.5721 -5.53221
1.46867 -66.6645 -0.542707
-11.5964 -56.4935 -9.76673
-1.92974 -46.8162 7.2383
-2.60196 -34.4511 -12.5529
-23.4531 -26.0829 -3.48225
-5.62552 -47.7156 12.0898
3.14106 -41.7856 6.64102
11.2349 -95.4206 -24.0234
4.50396 -64.2761 -13.6887
4.11745 -71.7898 4.9714
-8.60363 54.7907 6.0868
-4.69567 -35.9266 6.37343
-6.67955 -44.2001 -2.96358
-0.678094 -50.8637 -10.1374
-31.6721 -19.3801 -8.57868
-0.58241 -51.4397 2.31498
-2.02004 -33.7167 -0.659354
-7.43587 -36.6557 6.40676
10.3467 -85.3633 -4.59173
12.5822 -84.5627 -15.0998
-1.06342 -78.5321 18.1842
-3.71303 -79.149 -26.2669
-12.9846 -47.7299 4.06308
-1.99734 -56.3577 -12.2301
1.22844 -51.6915 7.25046
7.49547 -58.278 -5.28298
1.23543 -46.5735 8.79293
-7.85526 -49.4821 -1.59826
-8.68206 -41.8743 11.5348
-4.85874 -28.5272 4.07815
-11.8635 -32.6119 -4.39747
0.60034 -40.2447 -11.0398
-10.5019 -77.3164 -16.8528
4.92188 -75.0899 -11.0254
32.1286 -39.4267 -16.4069
-11.2848 -40.3135 -3.285
-6.78396 -42.3458 -1.978
-4.80673 -48.602 -3.53783
-3.36461 -26.2417 9.80633
-9.7846 -20.1409 -0.610454
-16.7076 -24.1985 2.34766
-8.12138 -89.1312 -3.90733
12.2515 -67.1489 28.3321
-8.83797 -61.6265 -14.9168
-18.97 -65.8363 14.7518
-3.36299 -90.8159 2.85166
-2.01252 -64.0702 -27.4781
-2.19015 -56.4164 14.4808
2.73659 -60.9253 1.07433
3.15582 -50.0771 -8.39333
-8.47454 -33.5913 -7.94267
-21.1807 -49.3404 13.4693
-7.03892 -48.4953 -14.3916
-2.08669 -89.057 11.8885
-0.780678 -55.0465 -14.429
-3.46555 -60.4649 -5.27068
-31.7249 53.0993 -4.59028
1.11051 -52.1096 8.2853
-18.4893 -39.4198 4.38437
-3.60479 -43.3638 13.1731
-6.44957 -22.9676 7.90468
3.57804 -34.3872 6.71094
9.13384 -102.437 -20.7844
-22.4538 0.408315 -4.00532
0.999315 11.7831 5.97769
-2.77601 -58.1921 8.53798
0.491083 -51.0031 1.63328
1.16373 -43.9314 4.12905
-3.34713 -38.7254 -8.06449
0.265188 -37.6118 -1.6261
-0.523928 -42.2477 -1.14485
2.53179 -42.2468 -2.63995
5.13583 -35.0927 11.7882
-4.21727 -42.2315 -4.0245
-7.59856 -39.4969 5.42039
12.707 -26.5302 1.8725
16.634 -44.0257 -2.20629
-23.4576 53.3619 10.8314
-8.01719 -75.8809 7.07916
-7.63116 -37.8184 12.6603
-5.36709 -55.4416 -1.08152
3.34921 -51.4702 -11.5591
-3.14442 -57.8077 -1.69434
17.953 0.716672 5.61314
3.55872 -47.6468 3.47607
5.81172 -54.5436 7.64228
0.200274 -35.4758 12.8943
-9.67489 -101.869 8.20145
-14.4759 -53.2291 0.430308
-8.72125 -68.7036 22.6963
1.88125 11.6377 -12.088
-7.06481 -59.5456 -6.10355
4.73949 -55.4719 0.533413
-7.17637 -52.3319 0.529458
-4.62652 -41.1837 12.0288
-2.50692 -62.7555 7.265
5.75276 -51.4196 7.96378
5.7083 -38.0555 18.0977
-5.2932 -27.1743 3.86829
4.64209 -44.8828 -1.25075
6.41196 -26.3847 -3.05696
7.17059 -122.068 -14.5411
-24.5738 -104.765 -23.5008
-17.5298 -77.0239 12.5746
-20.8843 -3.77286 -17.7849
1.55572 -56.9783 13.1269
1.49605 -47.7849 1.92214
4.39079 -44.4964 -21.1438
-3.02629 -38.4028 -9.22569
0.755028 -39.7028 -13.8322
1.9812 -32.9576 12.1837
-1.2666 -12.4742 6.51084
-0.344008 -93.6558 -14.3196
-11.4523 -92.1825 -17.8377
-5.53631 -67.9795 -26.2924
-10.452 -64.6356 -0.89578
7.96866 -48.6691 -30.2447
9.301 -92.6916 4.11109
0.037636 -54.3764 -11.018
4.38425 -47.8347 -6.6128
4.6703 -46.8363 -20.354
2.99913 -51.5623 -15.7829
4.50691 -53.3477 -12.3312
-1.69113 -47.1755 -22.779
16.06 -62.4158 -19.1295
4.56748 -20.9404 -22.7402
15.65 73.8841 -16.3864
7.29063 -20.5182 71.4748
8.22047 -4.01146 39.8485
6.47056 -51.5958 33.4424
30.0891 -25.1471 26.8927
-8.2158 -37.6427 26.9983
-16.4252 -57.3615 22.0674
18.2061 55.5269 -7.55874
1.00091 41.3385 5.99281
32.3275 34.7858 3.02689
21.2839 -19.1186 -1.57887
-54.7225 -31.9567 12.6321
-22.1787 31.8899 5.01469
-17.4396 -18.2284 -15.845
-6.3497 3.07443 3.64448
-13.6028 1.96842 10.9214
8.65268 81.5653 -4.79017
-25.617 31.4406 1.99634
15.2796 51.5714 10.686
6.48812 40.0666 5.31906
-16.7402 2.95834 -2.68274
11.7377 13.9129 5.74182
6.50665 93.1352 2.97254
-30.042 20.3178 2.50064
4.92499 40.7977 0.934461
-2.87712 -14.1418 -25.4826
-0.560981 31.3386 -1.76736
1.9604 43.2797 7.58117
-33.1167 11.7902 -14.1665
-18.5557 93.8945 16.3446
-14.078 -14.0793 29.8499
24.3407 -21.8966 -17.3875
7.13124 30.8044 -13.7245
42.9839 52.6195 19.0493
-22.7964 -43.8222 1.19517
38.9916 25.6866 26.277
-19.6762 7.38092 -12.394
5.83724 48.7266 -6.14495
8.5445 38.8981 16.0886
9.30841 -8.28935 0.968159
11.1203 74.5146 -5.40725
2.03642 22.9924 3.38835
-13.9076 30.7095 4.92495
2.17801 76.9876 -9.91724
4.62661 45.1693 7.52732
2.57374 63.6354 5.21038
-47.5689 52.3529 1.85826
-18.2716 30.2317 14.2511
3.09558 -71.7547 -28.7293
-1.9937 -86.5547 -14.6019
5.63372 -41.7733 -27.9319
3.71887 8.62272 -45.8375
-10.1658 -38.3317 -31.0698
11.0929 24.7815 4.94043
-13.4087 -19.4784 -19.0564
-21.2088 -18.5111 -42.3216
16.1887 -7.48733 20.4242
-7.29344 -56.5545 51.8256
5.23008 8.45708 25.4516
36.9256 34.3949 -30.8566
-19.158 38.2433 23.0394
-14.7352 33.59 -17.5815
-25.5091 58.968 -43.2182
-2.18644 -14.4113 10.2327
-7.01648 33.106 -3.99082
-3.73428 57.4177 -4.47262
20.6558 4.08782 14.5634
-5.48675 -2.81957 -8.1561
11.137 1.60261 8.36006
-0.0479203 51.1315 19.2426
-2.69211 59.5761 -3.80136
-4.21443 10.4396 -4.92057
-20.4261 -13.0128 -1.82474
24.8573 -32.3678 -13.8357
29.5536 42.5696 20.5858
12.9853 28.6767 14.144
-1.8764 -73.0791 6.32699
-14.2087 -40.4309 2.74783
-13.9613 -8.40878 -23.1231
3.29131 36.5695 -10.5942
1.39367 -1.46885 3.46134
39.3928 40.5261 -20.3942
13.1289 31.0248 4.82269
19.5216 55.9767 10.2736
-22.3368 -12.8148 21.7154
-1.8977 32.8468 -14.1091
30.3487 14.419 -2.11543
-19.3332 23.4381 13.3381
5.74572 -4.63816 49.445
-6.14402 19.978 -3.24692
-5.2056 -75.6387 -49.2542
-19.7068 -36.3181 -2.30501
34.7044 -21.7993 3.97756
-11.2859 -40.6606 11.0141
8.35534 -18.3196 -7.00369
-20.0775 10.016 -8.61654
23.2665 13.3106 -0.730432
-4.87379 10.8279 -9.45384
1.53747 -21.4305 3.66726
-23.4771 -59.6845 -13.1864
-13.223 -45.5701 4.03674
4.73909 1.3979 8.54498
-13.0224 10.7856 -24.3146
-4.73075 -80.5409 -21.3222
0.0 0.0 0.0
-13.8343 21.1666 -10.8622
-17.109 -6.57654 6.76146
21.6242 -2.86575 38.2443
8.39057 -5.95856 -0.521756
-13.8003 -23.0669 -8.14548
-4.1937 40.1641 -12.4819
23.359 39.4085 9.16918
-57.4987 35.4736 19.5662
18.8002 79.424 35.4142
-2.41422 14.5301 -3.07043
-3.71298 -3.54446 1.60652
0.0 0.0 0.0
5.86647 44.3142 14.2291
9.59834 70.3093 5.44313
-11.4785 5.73924 -38.59
-8.00986 -10.281 5.95498
0.0 0.0 0.0
0.0 0.0 0.0
0.0 0.0 0.0
0.0 0.0 0.0
0.0 0.0 0.0
0.0 0.0 0.0
0.0 0.0 0.0
0.0 0.0 0.0
0.0 0.0 0.0
0.0 0.0 0.0
0.0 0.0 0.0
0.0 0.0 0.0
0.0 0.0 0.0
0.0 0.0 0.0
0.0 0.0 0.0
0.0 0.0 0.0
0.0 0.0 0.0
0.0 0.0 0.0
0.0 0.0 0.0
0.0 0.0 0.0
0.0 0.0 0.0
0.0 0.0 0.0
0.0 0.0 0.0