# vtk DataFile Version 2.0
Generated by lpp.py
ASCII
DATASET POLYDATA
POINTS 528 float
2.38483 0.41017 1.51646
2.43612 0.460563 1.49296
2.3876 0.542398 1.51345
2.50326 0.536676 1.51428
2.26537 0.167759 1.55743
2.16963 0.202483 1.55878
2.22652 0.220924 1.54633
2.19008 0.273676 1.55561
2.34208 0.476785 1.52266
2.25755 0.539654 1.54251
0.302111 0.161812 1.6
0.391255 0.18247 1.58054
0.457237 0.188822 1.57527
0.576447 0.188804 1.57505
1.05908 0.188357 1.57674
1.11862 0.196431 1.57681
1.33475 0.193974 1.57694
1.47251 0.172639 1.5903
1.56326 0.197575 1.57688
1.71381 0.185764 1.57704
1.78851 0.190908 1.5773
2.03915 0.185197 1.57722
0.134078 0.196722 1.57755
0.269837 0.207355 1.57808
0.739931 0.20166 1.57702
0.828275 0.20262 1.57657
0.966131 0.203969 1.58754
1.27575 0.202338 1.57628
1.50619 0.228889 1.57686
0.21843 0.24497 1.57689
0.347037 0.258551 1.59013
0.418904 0.239642 1.57919
0.527043 0.230531 1.57661
0.669822 0.233401 1.57689
0.78706 0.25273 1.57689
0.895641 0.256626 1.57687
1.01793 0.232835 1.57693
1.15995 0.239279 1.5841
1.22005 0.263026 1.57688
1.30706 0.252175 1.58078
1.37806 0.235271 1.57686
1.59748 0.254606 1.57686
1.71154 0.24637 1.57697
1.81838 0.243822 1.57687
2.00904 0.252838 1.57686
0.289986 0.265359 1.57652
0.499384 0.290918 1.57824
0.576355 0.30118 1.57618
0.707876 0.283308 1.57649
0.94623 0.292448 1.57671
1.01495 0.298311 1.57614
1.08679 0.281139 1.57685
1.14502 0.297521 1.57665
1.36427 0.293851 1.57687
1.4259 0.285037 1.57688
1.52675 0.288916 1.57686
1.65578 0.274039 1.57687
1.93808 0.271571 1.57686
2.0746 0.299695 1.57429
0.207281 0.303844 1.57775
0.394743 0.333369 1.57735
0.65724 0.314605 1.57631
1.47026 0.326884 1.57686
1.69969 0.314842 1.57696
1.86159 0.323723 1.57686
1.92508 0.338999 1.57671
0.474869 0.345582 1.57691
0.53126 0.367557 1.57464
0.655441 0.373939 1.5761
0.856099 0.345179 1.57552
1.10185 0.345509 1.57686
1.16146 0.355819 1.57686
1.30696 0.348119 1.57676
1.41041 0.347109 1.57686
1.5291 0.353306 1.57687
1.74316 0.356135 1.57757
1.98089 0.360249 1.57695
2.0604 0.369457 1.57469
0.189117 0.405201 1.57439
0.590433 0.377903 1.57691
0.824606 0.406808 1.57686
0.958938 0.393409 1.57665
1.22183 0.392562 1.57691
1.35943 0.383356 1.57686
1.45384 0.391799 1.57646
1.60739 0.408879 1.57582
1.78734 0.393079 1.5942
1.86069 0.387071 1.57686
0.0186038 0.422683 1.5766
0.243073 0.440387 1.57544
0.437393 0.433445 1.57775
0.532706 0.427121 1.5754
1.09384 0.424454 1.57799
1.16143 0.440371 1.57686
1.25736 0.44264 1.57645
1.49981 0.42997 1.57612
1.67079 0.418641 1.57767
1.7587 0.442317 1.57675
1.8235 0.437913 1.57662
1.89543 0.436452 1.57687
2.00314 0.41609 1.57689
2.0897 0.430554 1.57252
0.150494 0.461446 1.57233
0.574901 0.470519 1.57695
0.635061 0.460716 1.57607
0.787737 0.476299 1.57665
0.900555 0.445685 1.57672
0.974089 0.451092 1.57752
1.31286 0.458972 1.59176
1.36957 0.447025 1.57679
1.4524 0.466215 1.57669
1.55163 0.459975 1.57732
1.61317 0.468656 1.57672
1.95313 0.452673 1.5769
2.02195 0.47316 1.5819
0.250703 0.496087 1.59276
0.310189 0.487577 1.58636
0.45801 0.491758 1.57423
0.844721 0.493733 1.57635
0.903091 0.505096 1.57621
0.992517 0.506094 1.59093
1.07821 0.482602 1.57687
1.18889 0.500397 1.58856
1.26146 0.502468 1.57668
1.34602 0.506324 1.57842
1.5037 0.497387 1.57682
1.7298 0.494555 1.5767
1.79481 0.509341 1.57686
1.85744 0.485908 1.57716
0.0802051 0.528668 1.57771
0.173938 0.524996 1.57519
0.228889 0.550472 1.578
0.479888 0.549173 1.5986
0.596303 0.525163 1.58868
0.678488 0.517947 1.57685
1.0674 0.548893 1.57586
1.12728 0.522445 1.57687
1.30104 0.547134 1.57719
1.44637 0.521936 1.59727
1.55485 0.537525 1.57686
1.64029 0.523372 1.57685
1.91586 0.546635 1.57683
1.99482 0.526942 1.577
0.296013 0.574654 1.58467
0.429 0.572291 1.57952
0.534005 0.583642 1.59282
0.706471 0.572363 1.58183
0.803299 0.568286 1.57743
0.858447 0.584226 1.59331
0.912968 0.562966 1.58275
0.97258 0.561254 1.5798
1.11055 0.58425 1.59488
1.17407 0.560505 1.57685
1.23766 0.560519 1.57694
1.35001 0.582634 1.59173
1.39901 0.551899 1.57689
1.49028 0.556981 1.57678
1.72671 0.566213 1.57686
1.83424 0.557925 1.57686
1.59037 0.586629 1.59578
0.164029 0.136832 1.63105
0.705926 0.149719 1.61299
0.779661 0.139578 1.62687
0.880593 0.13622 1.62689
1.0396 0.132737 1.6302
1.10714 0.137675 1.62527
1.19221 0.137228 1.62574
0.342127 0.175033 1.64165
0.881676 0.19742 1.60247
1.23983 0.170427 1.61086
0.157113 0.197107 1.63306
0.215419 0.192928 1.60945
0.461275 0.2194 1.6254
0.104315 0.250903 1.59519
0.583404 0.240057 1.59961
0.157775 0.275019 1.60206
0.734539 0.296995 1.62755
1.30207 0.301499 1.61287
0.252911 0.300118 1.61786
0.865691 0.309309 1.62567
1.13346 0.306717 1.63442
0.0349915 0.370619 1.60075
0.119237 0.352524 1.59383
0.2207 0.368577 1.60557
0.275937 0.358642 1.62177
0.479585 0.355662 1.63879
0.548381 0.355981 1.62858
0.693548 0.372396 1.62385
0.770073 0.366794 1.6106
0.90034 0.36861 1.6054
1.6464 0.359655 1.59929
0.351116 0.384054 1.60917
0.412788 0.382992 1.6056
1.28989 0.399551 1.60092
1.53939 0.4089 1.62436
0.116739 0.41273 1.61292
0.289437 0.422292 1.60706
0.48665 0.418848 1.62642
0.571586 0.422463 1.61787
0.647519 0.417936 1.61548
0.758289 0.426002 1.62469
1.71189 0.428817 1.6216
0.189132 0.453634 1.61081
0.357284 0.450915 1.58984
0.503451 0.470614 1.60278
1.50361 0.462866 1.62537
1.65103 0.460554 1.6222
0.182465 0.514879 1.63189
0.36929 0.512682 1.62222
0.431806 0.508609 1.62327
0.64617 0.484317 1.63435
0.80582 0.532722 1.62608
1.25031 0.530492 1.62828
0.343344 0.581053 1.62267
1.03598 0.574846 1.62391
0.597967 0.591204 1.60023
0.656947 0.597525 1.61021
0.789759 0.619979 1.63143
0.874712 0.622514 1.63679
1.18738 0.607798 1.61697
1.26695 0.601432 1.61061
1.41106 0.614269 1.62344
0.641965 0.117836 1.64516
1.59634 0.103298 1.65966
0.440869 0.140253 1.63668
0.40122 0.191545 1.64464
0.505813 0.160419 1.65167
0.622435 0.192627 1.64275
0.282217 0.208326 1.64239
0.347209 0.234183 1.64437
0.537819 0.206583 1.62806
1.16702 0.202647 1.63356
0.659836 0.261023 1.66295
0.809636 0.250767 1.65265
0.20638 0.283054 1.64783
0.395172 0.269911 1.63321
0.448042 0.300149 1.65845
0.50214 0.277041 1.63603
0.575728 0.286133 1.63319
0.777898 0.301022 1.66725
0.322419 0.326098 1.63852
0.395541 0.329058 1.63597
0.0658008 0.344029 1.64548
0.137491 0.346445 1.65708
0.175481 0.398417 1.63129
0.260984 0.444021 1.65631
0.390813 0.433334 1.63995
0.609289 0.416102 1.66289
1.0682 0.423103 1.63713
1.59826 0.414738 1.6337
0.338594 0.455219 1.65828
0.537279 0.464016 1.65273
0.851382 0.473201 1.63135
0.585636 0.508275 1.66238
0.638291 0.549744 1.64973
0.698735 0.549297 1.63693
0.86819 0.558491 1.65546
0.524821 0.598202 1.65102
0.337247 0.633371 1.65633
0.427067 0.625271 1.63444
0.490753 0.646623 1.65702
0.70286 0.639827 1.65107
0.201247 0.112865 1.67188
0.286102 0.287756 1.66722
0.345382 0.284267 1.67424
0.384474 0.329574 1.69418
0.52031 0.30687 1.68488
0.735932 0.334938 1.6951
0.329672 0.357033 1.68972
0.431994 0.371378 1.67229
0.179363 0.380744 1.69356
0.266878 0.389039 1.67797
0.18442 0.452062 1.6677
0.45249 0.454127 1.66773
0.133145 0.50156 1.67425
0.320999 0.502975 1.69067
0.419966 0.527278 1.67666
0.518248 0.532878 1.69955
0.345662 0.574599 1.68239
0.817809 0.622412 1.68383
0.476001 0.688406 1.69697
0.503791 0.238146 1.69371
0.432802 0.302258 1.71558
0.00338489 0.447726 1.73075
0.363919 0.444467 1.72374
0.412402 0.419807 1.70099
0.230608 0.478968 1.69597
0.299287 0.247375 1.73451
0.442411 0.236129 1.74026
0.345572 0.308923 1.75161
0.476186 0.343657 1.74255
0.499396 0.409304 1.72688
0.126939 0.284236 1.75978
0.187834 0.32549 1.76929
0.282511 0.427246 1.77465
0.180798 0.510604 1.77307
0.383391 0.486171 1.75827
0.196226 0.26238 1.80755
0.356376 0.254196 1.81236
0.256147 0.321804 1.79413
0.110703 0.374435 1.79899
0.415762 0.389621 1.81373
0.107302 0.455042 1.80825
0.49838 0.508374 1.82273
0.214879 0.429082 1.84011
0.339305 0.526873 1.85742
0.271982 0.260644 1.88535
0.321856 0.294278 1.88194
0.44222 0.295647 1.86417
0.346145 0.350757 1.87178
0.475094 0.383761 1.86199
0.466199 0.451954 1.87255
0.104255 0.515661 1.88865
0.236464 0.494005 1.8678
0.430217 0.500721 1.87334
0.125428 0.344451 1.91227
0.189012 0.364304 1.92842
0.415188 0.353574 1.92104
0.282424 0.374546 1.90097
0.115455 0.44409 1.93103
0.323589 0.424937 1.91737
0.103324 0.228818 1.93857
0.161403 0.258279 1.93778
0.363615 0.240431 1.94777
0.425069 0.242959 1.94971
0.499192 0.246026 1.9455
0.40415 0.414672 1.9487
0.158807 0.499296 1.95899
0.370433 0.49856 1.94342
0.264146 0.523422 1.95448
0.257372 0.298287 1.99542
0.31493 0.348737 1.97993
0.484684 0.362834 1.99092
0.125062 0.39201 1.99755
0.220666 0.238837 2.013
0.393674 0.233628 2.03009
0.17717 0.298235 2.02763
0.314466 0.284399 2.01981
0.492483 0.279077 2.02187
0.417494 0.317622 2.01824
0.107591 0.339963 2.03278
0.217234 0.387064 2.01077
0.385775 0.387923 2.03603
0.449749 0.403068 2.02721
0.345938 0.437655 2.04295
0.139724 0.459766 2.03046
0.263093 0.452487 2.01897
0.417911 0.469013 2.01245
0.486571 0.452792 2.02328
0.220758 0.508511 2.02693
0.312076 0.491969 2.02573
0.490194 0.521396 2.02986
0.293957 0.252051 2.07734
0.313064 0.354671 2.06175
0.494465 0.353653 2.06034
0.177639 0.41728 2.06339
0.25883 0.414412 2.0807
0.352584 0.510062 2.07424
0.286065 0.525163 2.07213
0.420914 0.522237 2.06179
0.130146 0.239366 2.08739
0.215119 0.259008 2.09422
0.480794 0.235256 2.08404
0.112395 0.298661 2.08505
0.396036 0.28089 2.09076
0.461831 0.299793 2.09245
0.260232 0.32538 2.10072
0.184207 0.342437 2.1052
0.469219 0.429721 2.09597
0.312883 0.472231 2.10355
0.425503 0.471227 2.09617
0.107222 0.481912 2.11361
0.188867 0.511362 2.08232
0.481601 0.499619 2.08711
0.405689 0.228633 2.13064
0.167912 0.238386 2.14466
0.317332 0.30781 2.13804
0.134053 0.366007 2.12991
0.489016 0.368217 2.13079
0.413738 0.375309 2.12012
0.153204 0.432626 2.12854
0.222179 0.424446 2.14719
0.239416 0.495022 2.14556
0.498927 0.504545 2.14488
0.32799 0.229202 2.15355
0.109866 0.233818 2.16844
0.231382 0.240563 2.15299
0.498812 0.248514 2.17893
0.113197 0.294489 2.15951
0.194033 0.278126 2.18518
0.469257 0.29946 2.16185
0.194635 0.336418 2.16946
0.405808 0.316699 2.16707
0.306002 0.430402 2.1574
0.379233 0.434328 2.16583
0.487806 0.414883 2.18581
0.150905 0.499656 2.18471
0.297107 0.507647 2.16842
0.360463 0.523492 2.15545
0.325604 0.248234 2.21541
0.391248 0.260634 2.19374
0.265839 0.285868 2.1868
0.240166 0.328846 2.22071
0.354308 0.337534 2.20063
0.291855 0.372275 2.19768
0.489514 0.352564 2.19129
0.142017 0.392074 2.20392
0.112907 0.457318 2.21655
0.188866 0.448878 2.19084
0.452328 0.508491 2.18873
0.228203 0.227346 2.23755
0.121163 0.235465 2.22938
0.464139 0.288262 2.2235
0.109346 0.315959 2.24037
0.198909 0.373142 2.25127
0.435393 0.34359 2.25127
0.263606 0.399014 2.2451
0.442633 0.401674 2.22786
0.224919 0.462043 2.25083
0.306813 0.454906 2.22191
0.480028 0.469573 2.25511
0.370146 0.482381 2.25259
0.232349 0.51961 2.2255
0.325501 0.521381 2.22998
0.477175 0.232241 2.27463
0.182449 0.265752 2.25745
0.371199 0.250575 2.25872
0.310551 0.275965 2.27166
0.202651 0.326782 2.28942
0.287412 0.337623 2.26316
0.368802 0.320326 2.26015
0.151029 0.419157 2.26396
0.333275 0.414894 2.27173
0.470694 0.421347 2.29073
0.143314 0.508824 2.26199
0.158331 0.259584 2.31919
0.379968 0.260616 2.3178
0.419779 0.314987 2.30386
0.478207 0.314376 2.32397
0.102309 0.339997 2.30882
0.261557 0.393625 2.31365
0.384965 0.379016 2.295
0.178059 0.478415 2.31491
0.487334 0.474096 2.31584
0.297583 0.511466 2.30592
0.419317 0.494483 2.3171
0.287182 0.241461 2.34538
0.437539 0.252688 2.34571
0.313165 0.295281 2.35233
0.146413 0.330961 2.34865
0.23496 0.304512 2.34559
0.189373 0.382597 2.33159
0.496133 0.384099 2.33079
0.108153 0.438732 2.32855
0.318306 0.424417 2.33625
0.41429 0.434596 2.32731
0.353581 0.483281 2.33649
0.226804 0.518091 2.32666
0.345706 0.244188 2.37848
0.119434 0.281797 2.37643
0.183368 0.299923 2.38745
0.413519 0.31622 2.37723
0.361163 0.357044 2.36824
0.114178 0.389821 2.38746
0.444299 0.395894 2.3632
0.167616 0.430974 2.36451
0.393917 0.429411 2.38729
0.489664 0.438439 2.37411
0.250241 0.450955 2.36964
0.105798 0.50424 2.37445
0.187915 0.515186 2.39538
0.32526 0.484758 2.39005
0.4524 0.512277 2.38886
0.281519 0.521738 2.36447
0.1932 0.229789 2.42297
0.422137 0.237787 2.41647
0.372856 0.301203 2.42603
0.4644 0.282902 2.40546
0.15454 0.359333 2.4212
0.20118 0.391877 2.39642
0.261164 0.39533 2.40092
0.330347 0.403499 2.42088
0.485995 0.385829 2.42292
0.337046 0.231264 2.43864
0.10177 0.254991 2.45716
0.497694 0.256246 2.45034
0.248456 0.285804 2.45542
0.306584 0.303573 2.43311
0.488964 0.318078 2.45029
0.244928 0.34739 2.46499
0.387775 0.408365 2.45781
0.244813 0.43345 2.45185
0.145536 0.471864 2.43705
0.398538 0.477915 2.43576
0.493497 0.449079 2.44063
0.239296 0.494007 2.463
0.308508 0.519363 2.45446
0.389977 0.239061 2.48499
0.465941 0.232795 2.49673
0.150783 0.312529 2.48024
0.430203 0.322942 2.47658
0.359187 0.345598 2.47339
0.206866 0.39261 2.47625
0.114653 0.416417 2.48766
0.100279 0.478463 2.4825
0.195028 0.474388 2.50054
0.322092 0.457941 2.46624
0.496548 0.513622 2.47741
0.119764 0.23589 2.51451
0.200715 0.243234 2.50381
0.271532 0.23235 2.5028
0.340901 0.251487 2.52902
0.252209 0.30257 2.53485
0.399979 0.29937 2.52706
0.334843 0.328269 2.53319
0.493176 0.31314 2.53199
0.145549 0.370736 2.52487
0.203386 0.34301 2.52212
0.402076 0.364491 2.53095
0.253008 0.38524 2.51529
0.32123 0.387645 2.50716
0.462123 0.378122 2.50228
0.388515 0.434845 2.52435
0.489023 0.459055 2.51218
0.1312 0.50645 2.53577
0.277161 0.482116 2.53173
0.348799 0.506378 2.52849
0.434645 0.505695 2.51274
VERTICES 528 1056
1 0
1 1
1 2
1 3
1 4
1 5
1 6
1 7
1 8
1 9
1 10
1 11
1 12
1 13
1 14
1 15
1 16
1 17
1 18
1 19
1 20
1 21
1 22
1 23
1 24
1 25
1 26
1 27
1 28
1 29
1 30
1 31
1 32
1 33
1 34
1 35
1 36
1 37
1 38
1 39
1 40
1 41
1 42
1 43
1 44
1 45
1 46
1 47
1 48
1 49
1 50
1 51
1 52
1 53
1 54
1 55
1 56
1 57
1 58
1 59
1 60
1 61
1 62
1 63
1 64
1 65
1 66
1 67
1 68
1 69
1 70
1 71
1 72
1 73
1 74
1 75
1 76
1 77
1 78
1 79
1 80
1 81
1 82
1 83
1 84
1 85
1 86
1 87
1 88
1 89
1 90
1 91
1 92
1 93
1 94
1 95
1 96
1 97
1 98
1 99
1 100
1 101
1 102
1 103
1 104
1 105
1 106
1 107
1 108
1 109
1 110
1 111
1 112
1 113
1 114
1 115
1 116
1 117
1 118
1 119
1 120
1 121
1 122
1 123
1 124
1 125
1 126
1 127
1 128
1 129
1 130
1 131
1 132
1 133
1 134
1 135
1 136
1 137
1 138
1 139
1 140
1 141
1 142
1 143
1 144
1 145
1 146
1 147
1 148
1 149
1 150
1 151
1 152
1 153
1 154
1 155
1 156
1 157
1 158
1 159
1 160
1 161
1 162
1 163
1 164
1 165
1 166
1 167
1 168
1 169
1 170
1 171
1 172
1 173
1 174
1 175
1 176
1 177
1 178
1 179
1 180
1 181
1 182
1 183
1 184
1 185
1 186
1 187
1 188
1 189
1 190
1 191
1 192
1 193
1 194
1 195
1 196
1 197
1 198
1 199
1 200
1 201
1 202
1 203
1 204
1 205
1 206
1 207
1 208
1 209
1 210
1 211
1 212
1 213
1 214
1 215
1 216
1 217
1 218
1 219
1 220
1 221
1 222
1 223
1 224
1 225
1 226
1 227
1 228
1 229
1 230
1 231
1 232
1 233
1 234
1 235
1 236
1 237
1 238
1 239
1 240
1 241
1 242
1 243
1 244
1 245
1 246
1 247
1 248
1 249
1 250
1 251
1 252
1 253
1 254
1 255
1 256
1 257
1 258
1 259
1 260
1 261
1 262
1 263
1 264
1 265
1 266
1 267
1 268
1 269
1 270
1 271
1 272
1 273
1 274
1 275
1 276
1 277
1 278
1 279
1 280
1 281
1 282
1 283
1 284
1 285
1 286
1 287
1 288
1 289
1 290
1 291
1 292
1 293
1 294
1 295
1 296
1 297
1 298
1 299
1 300
1 301
1 302
1 303
1 304
1 305
1 306
1 307
1 308
1 309
1 310
1 311
1 312
1 313
1 314
1 315
1 316
1 317
1 318
1 319
1 320
1 321
1 322
1 323
1 324
1 325
1 326
1 327
1 328
1 329
1 330
1 331
1 332
1 333
1 334
1 335
1 336
1 337
1 338
1 339
1 340
1 341
1 342
1 343
1 344
1 345
1 346
1 347
1 348
1 349
1 350
1 351
1 352
1 353
1 354
1 355
1 356
1 357
1 358
1 359
1 360
1 361
1 362
1 363
1 364
1 365
1 366
1 367
1 368
1 369
1 370
1 371
1 372
1 373
1 374
1 375
1 376
1 377
1 378
1 379
1 380
1 381
1 382
1 383
1 384
1 385
1 386
1 387
1 388
1 389
1 390
1 391
1 392
1 393
1 394
1 395
1 396
1 397
1 398
1 399
1 400
1 401
1 402
1 403
1 404
1 405
1 406
1 407
1 408
1 409
1 410
1 411
1 412
1 413
1 414
1 415
1 416
1 417
1 418
1 419
1 420
1 421
1 422
1 423
1 424
1 425
1 426
1 427
1 428
1 429
1 430
1 431
1 432
1 433
1 434
1 435
1 436
1 437
1 438
1 439
1 440
1 441
1 442
1 443
1 444
1 445
1 446
1 447
1 448
1 449
1 450
1 451
1 452
1 453
1 454
1 455
1 456
1 457
1 458
1 459
1 460
1 461
1 462
1 463
1 464
1 465
1 466
1 467
1 468
1 469
1 470
1 471
1 472
1 473
1 474
1 475
1 476
1 477
1 478
1 479
1 480
1 481
1 482
1 483
1 484
1 485
1 486
1 487
1 488
1 489
1 490
1 491
1 492
1 493
1 494
1 495
1 496
1 497
1 498
1 499
1 500
1 501
1 502
1 503
1 504
1 505
1 506
1 507
1 508
1 509
1 510
1 511
1 512
1 513
1 514
1 515
1 516
1 517
1 518
1 519
1 520
1 521
1 522
1 523
1 524
1 525
1 526
1 527
POINT_DATA 528
VECTORS i float
0.0 0.0 0.0
0.0 0.0 0.0
0.0 0.0 0.0
0.0 0.0 0.0
0.0 0.0 0.0
0.0 0.0 0.0
0.0 0.0 0.0
0.0 0.0 0.0
0.0 0.0 0.0
0.0 0.0 0.0
0.0 0.0 0.0
0.0 0.0 0.0
0.0 0.0 0.0
0.0 0.0 0.0
0.0 0.0 0.0
0.0 0.0 0.0
0.0 0.0 0.0
0.0 0.0 0.0
0.0 0.0 0.0
0.0 0.0 0.0
0.0 0.0 0.0
0.0 0.0 0.0
0.0 0.0 0.0
0.0 0.0 0.0
0.0 0.0 0.0
0.0 0.0 0.0
0.0 0.0 0.0
0.0 0.0 0.0
0.0 0.0 0.0
0.0 0.0 0.0
0.0 0.0 0.0
0.0 0.0 0.0
0.0 0.0 0.0
0.0 0.0 0.0
0.0 0.0 0.0
0.0 0.0 0.0
0.0 0.0 0.0
0.0 0.0 0.0
0.0 0.0 0.0
0.0 0.0 0.0
0.0 0.0 0.0
0.0 0.0 0.0
0.0 0.0 0.0
0.0 0.0 0.0
0.0 0.0 0.0
0.0 0.0 0.0
0.0 0.0 0.0
0.0 0.0 0.0
0.0 0.0 0.0
0.0 0.0 0.0
0.0 0.0 0.0
0.0 0.0 0.0
0.0 0.0 0.0
0.0 0.0 0.0
0.0 0.0 0.0
0.0 0.0 0.0
0.0 0.0 0.0
0.0 0.0 0.0
0.0 0.0 0.0
0.0 0.0 0.0
0.0 0.0 0.0
0.0 0.0 0.0
0.0 0.0 0.0
0.0 0.0 0.0
0.0 0.0 0.0
0.0 0.0 0.0
0.0 0.0 0.0
0.0 0.0 0.0
0.0 0.0 0.0
0.0 0.0 0.0
0.0 0.0 0.0
0.0 0.0 0.0
0.0 0.0 0.0
0.0 0.0 0.0
0.0 0.0 0.0
0.0 0.0 0.0
0.0 0.0 0.0
0.0 0.0 0.0
0.0 0.0 0.0
0.0 0.0 0.0
0.0 0.0 0.0
0.0 0.0 0.0
0.0 0.0 0.0
0.0 0.0 0.0
0.0 0.0 0.0
0.0 0.0 0.0
0.0 0.0 0.0
0.0 0.0 0.0
0.0 0.0 0.0
0.0 0.0 0.0
0.0 0.0 0.0
0.0 0.0 0.0
0.0 0.0 0.0
0.0 0.0 0.0
0.0 0.0 0.0
0.0 0.0 0.0
0.0 0.0 0.0
0.0 0.0 0.0
0.0 0.0 0.0
0.0 0.0 0.0
0.0 0.0 0.0
0.0 0.0 0.0
0.0 0.0 0.0
0.0 0.0 0.0
0.0 0.0 0.0
0.0 0.0 0.0
0.0 0.0 0.0
0.0 0.0 0.0
0.0 0.0 0.0
0.0 0.0 0.0
0.0 0.0 0.0
0.0 0.0 0.0
0.0 0.0 0.0
0.0 0.0 0.0
0.0 0.0 0.0
0.0 0.0 0.0
0.0 0.0 0.0
0.0 0.0 0.0
0.0 0.0 0.0
0.0 0.0 0.0
0.0 0.0 0.0
0.0 0.0 0.0
0.0 0.0 0.0
0.0 0.0 0.0
0.0 0.0 0.0
0.0 0.0 0.0
0.0 0.0 0.0
0.0 0.0 0.0
0.0 0.0 0.0
0.0 0.0 0.0
0.0 0.0 0.0
0.0 0.0 0.0
0.0 0.0 0.0
0.0 0.0 0.0
0.0 0.0 0.0
0.0 0.0 0.0
0.0 0.0 0.0
0.0 0.0 0.0
0.0 0.0 0.0
0.0 0.0 0.0
0.0 0.0 0.0
0.0 0.0 0.0
0.0 0.0 0.0
0.0 0.0 0.0
0.0 0.0 0.0
0.0 0.0 0.0
0.0 0.0 0.0
0.0 0.0 0.0
0.0 0.0 0.0
0.0 0.0 0.0
0.0 0.0 0.0
0.0 0.0 0.0
0.0 0.0 0.0
0.0 0.0 0.0
0.0 0.0 0.0
0.0 0.0 0.0
0.0 0.0 0.0
0.0 0.0 0.0
0.0 0.0 0.0
0.0 0.0 0.0
0.0 0.0 0.0
0.0 0.0 0.0
0.0 0.0 0.0
0.0 0.0 0.0
0.0 0.0 0.0
0.0 0.0 0.0
0.0 0.0 0.0
0.0 0.0 0.0
0.0 0.0 0.0
0.0 0.0 0.0
0.0 0.0 0.0
0.0 0.0 0.0
0.0 0.0 0.0
0.0 0.0 0.0
0.0 0.0 0.0
0.0 0.0 0.0
0.0 0.0 0.0
0.0 0.0 0.0
0.0 0.0 0.0
0.0 0.0 0.0
0.0 0.0 0.0
0.0 0.0 0.0
0.0 0.0 0.0
0.0 0.0 0.0
0.0 0.0 0.0
0.0 0.0 0.0
0.0 0.0 0.0
0.0 0.0 0.0
0.0 0.0 0.0
0.0 0.0 0.0
0.0 0.0 0.0
0.0 0.0 0.0
0.0 0.0 0.0
0.0 0.0 0.0
0.0 0.0 0.0
0.0 0.0 0.0
0.0 0.0 0.0
0.0 0.0 0.0
0.0 0.0 0.0
0.0 0.0 0.0
0.0 0.0 0.0
0.0 0.0 0.0
0.0 0.0 0.0
0.0 0.0 0.0
0.0 0.0 0.0
0.0 0.0 0.0
0.0 0.0 0.0
0.0 0.0 0.0
0.0 0.0 0.0
0.0 0.0 0.0
0.0 0.0 0.0
0.0 0.0 0.0
0.0 0.0 0.0
0.0 0.0 0.0
0.0 0.0 0.0
0.0 0.0 0.0
0.0 0.0 0.0
0.0 0.0 0.0
0.0 0.0 0.0
0.0 0.0 0.0
0.0 0.0 0.0
0.0 0.0 0.0
0.0 0.0 0.0
0.0 0.0 0.0
0.0 0.0 0.0
0.0 0.0 0.0
0.0 0.0 0.0
0.0 0.0 0.0
0.0 0.0 0.0
0.0 0.0 0.0
0.0 0.0 0.0
0.0 0.0 0.0
0.0 0.0 0.0
0.0 0.0 0.0
0.0 0.0 0.0
0.0 0.0 0.0
0.0 0.0 0.0
0.0 0.0 0.0
0.0 0.0 0.0
0.0 0.0 0.0
0.0 0.0 0.0
0.0 0.0 0.0
0.0 0.0 0.0
0.0 0.0 0.0
0.0 0.0 0.0
0.0 0.0 0.0
0.0 0.0 0.0
0.0 0.0 0.0
0.0 0.0 0.0
0.0 0.0 0.0
0.0 0.0 0.0
0.0 0.0 0.0
0.0 0.0 0.0
0.0 0.0 0.0
0.0 0.0 0.0
0.0 0.0 0.0
0.0 0.0 0.0
0.0 0.0 0.0
0.0 0.0 0.0
0.0 0.0 0.0
0.0 0.0 0.0
0.0 0.0 0.0
0.0 0.0 0.0
0.0 0.0 0.0
0.0 0.0 0.0
0.0 0.0 0.0
0.0 0.0 0.0
0.0 0.0 0.0
0.0 0.0 0.0
0.0 0.0 0.0
0.0 0.0 0.0
0.0 0.0 0.0
0.0 0.0 0.0
0.0 0.0 0.0
0.0 0.0 0.0
0.0 0.0 0.0
0.0 0.0 0.0
0.0 0.0 0.0
0.0 0.0 0.0
0.0 0.0 0.0
0.0 0.0 0.0
0.0 0.0 0.0
0.0 0.0 0.0
0.0 0.0 0.0
0.0 0.0 0.0
0.0 0.0 0.0
0.0 0.0 0.0
0.0 0.0 0.0
0.0 0.0 0.0
0.0 0.0 0.0
0.0 0.0 0.0
0.0 0.0 0.0
0.0 0.0 0.0
0.0 0.0 0.0
0.0 0.0 0.0
0.0 0.0 0.0
0.0 0.0 0.0
0.0 0.0 0.0
0.0 0.0 0.0
0.0 0.0 0.0
0.0 0.0 0.0
0.0 0.0 0.0
0.0 0.0 0.0
0.0 0.0 0.0
0.0 0.0 0.0
0.0 0.0 0.0
0.0 0.0 0.0
0.0 0.0 0.0
0.0 0.0 0.0
0.0 0.0 0.0
0.0 0.0 0.0
0.0 0.0 0.0
0.0 0.0 0.0
0.0 0.0 0.0
0.0 0.0 0.0
0.0 0.0 0.0
0.0 0.0 0.0
0.0 0.0 0.0
0.0 0.0 0.0
0.0 0.0 0.0
0.0 0.0 0.0
0.0 0.0 0.0
0.0 0.0 0.0
0.0 0.0 0.0
0.0 0.0 0.0
0.0 0.0 0.0
0.0 0.0 0.0
0.0 0.0 0.0
0.0 0.0 0.0
0.0 0.0 0.0
0.0 0.0 0.0
0.0 0.0 0.0
0.0 0.0 0.0
0.0 0.0 0.0
0.0 0.0 0.0
0.0 0.0 0.0
0.0 0.0 0.0
0.0 0.0 0.0
0.0 0.0 0.0
0.0 0.0 0.0
0.0 0.0 0.0
0.0 0.0 0.0
0.0 0.0 0.0
0.0 0.0 0.0
0.0 0.0 0.0
0.0 0.0 0.0
0.0 0.0 0.0
0.0 0.0 0.0
0.0 0.0 0.0
0.0 0.0 0.0
0.0 0.0 0.0
0.0 0.0 0.0
0.0 0.0 0.0
0.0 0.0 0.0
0.0 0.0 0.0
0.0 0.0 0.0
0.0 0.0 0.0
0.0 0.0 0.0
0.0 0.0 0.0
0.0 0.0 0.0
0.0 0.0 0.0
0.0 0.0 0.0
0.0 0.0 0.0
0.0 0.0 0.0
0.0 0.0 0.0
0.0 0.0 0.0
0.0 0.0 0.0
0.0 0.0 0.0
0.0 0.0 0.0
0.0 0.0 0.0
0.0 0.0 0.0
0.0 0.0 0.0
0.0 0.0 0.0
0.0 0.0 0.0
0.0 0.0 0.0
0.0 0.0 0.0
0.0 0.0 0.0
0.0 0.0 0.0
0.0 0.0 0.0
0.0 0.0 0.0
0.0 0.0 0.0
0.0 0.0 0.0
0.0 0.0 0.0
0.0 0.0 0.0
0.0 0.0 0.0
0.0 0.0 0.0
0.0 0.0 0.0
0.0 0.0 0.0
0.0 0.0 0.0
0.0 0.0 0.0
0.0 0.0 0.0
0.0 0.0 0.0
0.0 0.0 0.0
0.0 0.0 0.0
0.0 0.0 0.0
0.0 0.0 0.0
0.0 0.0 0.0
0.0 0.0 0.0
0.0 0.0 0.0
0.0 0.0 0.0
0.0 0.0 0.0
0.0 0.0 0.0
0.0 0.0 0.0
0.0 0.0 0.0
0.0 0.0 0.0
0.0 0.0 0.0
0.0 0.0 0.0
0.0 0.0 0.0
0.0 0.0 0.0
0.0 0.0 0.0
0.0 0.0 0.0
0.0 0.0 0.0
0.0 0.0 0.0
0.0 0.0 0.0
0.0 0.0 0.0
0.0 0.0 0.0
0.0 0.0 0.0
0.0 0.0 0.0
0.0 0.0 0.0
0.0 0.0 0.0
0.0 0.0 0.0
0.0 0.0 0.0
0.0 0.0 0.0
0.0 0.0 0.0
0.0 0.0 0.0
0.0 0.0 0.0
0.0 0.0 0.0
0.0 0.0 0.0
0.0 0.0 0.0
0.0 0.0 0.0
0.0 0.0 0.0
0.0 0.0 0.0
0.0 0.0 0.0
0.0 0.0 0.0
0.0 0.0 0.0
0.0 0.0 0.0
0.0 0.0 0.0
0.0 0.0 0.0
0.0 0.0 0.0
0.0 0.0 0.0
0.0 0.0 0.0
0.0 0.0 0.0
0.0 0.0 0.0
0.0 0.0 0.0
0.0 0.0 0.0
0.0 0.0 0.0
0.0 0.0 0.0
0.0 0.0 0.0
0.0 0.0 0.0
0.0 0.0 0.0
0.0 0.0 0.0
0.0 0.0 0.0
0.0 0.0 0.0
0.0 0.0 0.0
0.0 0.0 0.0
0.0 0.0 0.0
0.0 0.0 0.0
0.0 0.0 0.0
0.0 0.0 0.0
0.0 0.0 0.0
0.0 0.0 0.0
0.0 0.0 0.0
0.0 0.0 0.0
0.0 0.0 0.0
0.0 0.0 0.0
0.0 0.0 0.0
0.0 0.0 0.0
0.0 0.0 0.0
0.0 0.0 0.0
0.0 0.0 0.0
0.0 0.0 0.0
0.0 0.0 0.0
0.0 0.0 0.0
0.0 0.0 0.0
0.0 0.0 0.0
0.0 0.0 0.0
0.0 0.0 0.0
0.0 0.0 0.0
0.0 0.0 0.0
0.0 0.0 0.0
0.0 0.0 0.0
0.0 0.0 0.0
0.0 0.0 0.0
0.0 0.0 0.0
0.0 0.0 0.0
0.0 0.0 0.0
0.0 0.0 0.0
0.0 0.0 0.0
0.0 0.0 0.0
0.0 0.0 0.0
0.0 0.0 0.0
0.0 0.0 0.0
0.0 0.0 0.0
0.0 0.0 0.0
0.0 0.0 0.0
0.0 0.0 0.0
0.0 0.0 0.0
0.0 0.0 0.0
0.0 0.0 0.0
0.0 0.0 0.0
0.0 0.0 0.0
0.0 0.0 0.0
0.0 0.0 0.0
0.0 0.0 0.0
0.0 0.0 0.0
0.0 0.0 0.0
0.0 0.0 0.0
0.0 0.0 0.0
0.0 0.0 0.0
0.0 0.0 0.0
0.0 0.0 0.0
0.0 0.0 0.0
0.0 0.0 0.0
0.0 0.0 0.0
0.0 0.0 0.0
0.0 0.0 0.0
0.0 0.0 0.0
0.0 0.0 0.0
0.0 0.0 0.0
0.0 0.0 0.0
0.0 0.0 0.0
0.0 0.0 0.0
0.0 0.0 0.0
0.0 0.0 0.0
0.0 0.0 0.0
0.0 0.0 0.0
0.0 0.0 0.0
0.0 0.0 0.0
VECTORS f float
0.0 0.0 -2.77371
0.0 0.0 -2.77371
0.0 0.0 -2.77371
0.0 0.0 -2.77371
0.0 0.0 -2.77371
0.0 0.0 -2.77371
0.0 0.0 -2.77371
0.0 0.0 -2.77371
0.0 0.0 -2.77371
0.0 0.0 -2.77371
1.28261 0.946179 -0.673121
-0.952135 -2.73049 -4.8587
-4.83606 -3.18203 21.5595
1.59381 -14.744 16.1252
2.19333 0.232222 1.63747
1.78163 1.35158 0.944566
4.28279 -1.81827 -0.433592
-1.88747e-05 0.989522 -0.988138
0.00359022 -0.000851256 -0.149258
1.42739 2.09399 -0.741482
0.0 0.0 -2.77371
0.0 0.0 -2.77371
0.0 0.0 -2.77371
0.206913 -0.234794 -2.7981
-0.00511339 -0.000192419 -1.60468
-0.128584 0.00138703 3.21174
0.0 0.0 -2.77371
2.03805 -1.46269 -3.80604
-2.86932e-05 1.66342e-06 0.00572059
3.43027 -0.486203 6.62624
6.19552 -3.32567 14.2065
0.0 0.0 -2.77371
1.895 17.7428 -34.4939
0.0985909 0.0242472 0.368401
0.00729877 -7.02585e-05 -0.343609
-0.0193204 0.00473694 -0.282645
0.639781 -0.00535721 -1.49411
-0.228155 -0.229021 -2.65876
-0.00515116 0.000494118 -0.370782
4.48434 1.08417 3.7652
3.14586 3.18053 1.19911
0.0190591 0.007934 -0.00717012
0.0237935 -0.000394954 -0.620819
0.701568 -1.71765 0.937095
0.0 0.0 -2.77371
-1.89225 2.1902 5.40877
-0.549945 2.38467 -2.98556
13.5084 -24.3015 48.2782
-2.46254 -0.771081 0.529756
-0.238262 -0.136383 0.578134
5.55182 -14.4571 28.1992
0.00818503 0.00018784 0.360702
0.0650001 -0.063076 0.530675
-0.00908036 -0.00772108 -0.225776
0.00270536 -0.000450155 -0.316021
-0.000484309 5.49277e-05 -0.00283417
1.3868 1.27579 -0.963587
-6.7163e-08 4.02369e-09 -3.73999e-06
0.0 0.0 -2.77371
-0.108094 -2.12945 -3.71708
-2.3689 4.51262 -60.1848
3.20021 -2.17929 12.9929
-0.00130739 0.000160448 -0.0132908
0.759906 0.800696 -1.28448
-0.00461228 -0.00232848 -0.0227663
0.861713 0.243913 1.98127
1.54855 -3.26459 -0.7074
-4.23276 -9.03331 56.4564
-2.65095 1.45955 5.80534
11.9914 2.11737 29.1896
0.000191392 -7.04558e-06 -0.00466893
-0.00829933 -0.000872654 -0.0011775
1.745 3.99988 -2.25209
-0.000890769 8.12159e-05 -0.0128291
-0.00480904 0.000822846 -0.196561
0.179833 -0.615039 -1.97238
1.17809 0.789297 -1.16368
0.0 0.0 -2.77371
-9.9835 -3.25561 25.1676
0.657115 0.0423444 -1.45676
-0.00137461 2.17707e-05 -0.0439416
-0.11301 0.451537 2.03394
0.975647 0.461476 -0.615151
0.000633857 1.31477e-05 0.0126415
6.8455 5.69474 5.16025
-2.69052 -1.65146 14.2357
-0.367769 -2.55839 -1.21496
0.016968 0.0183936 0.115362
0.427174 -0.486443 3.73093
1.43577 20.0467 17.6907
0.0 0.0 -2.77371
8.93771 -2.56257 27.2965
0.0 0.0 -2.77371
-0.00168115 -5.18773e-05 0.0441772
-1.66661 0.646202 1.25725
3.17076 0.179625 15.4523
0.0 0.0 -2.77371
0.981625 -0.833607 0.513067
-10.3543 -14.5832 -0.935383
-0.300942 -0.0787351 -0.15078
0.163697 0.155385 -0.0951098
0.0 0.0 -2.77371
-16.2729 3.30275 66.4766
2.0861 -5.05993 -1.16428
2.92835 -1.78917 9.00554
1.06767 0.354347 0.698542
0.0380685 -0.870303 1.88388
2.13546 -5.75293 -3.25961
-3.14656 -6.11767 0.934801
-0.108249 -0.101755 1.0166
1.71935 0.0338589 0.369415
4.08939 2.57912 -0.243289
0.114165 0.13811 -0.360561
0.330977 0.0882274 0.380569
0.0 0.0 -2.77371
2.93438 11.9418 8.77115
-15.5735 -3.58455 -27.8159
-13.3965 -6.03173 9.88447
4.24981 8.32029 18.2511
4.44736 2.67277 8.31786
-1.29063 7.50157 -0.987007
0.0111543 -0.00820144 -0.0294362
0.0 0.0 -2.77371
0.119239 0.200068 -0.0585477
4.69582 6.44365 -4.70719
-2.9773 6.56052 -3.79104
0.552579 -1.06269 1.45693
-0.00168826 3.22289e-05 -0.0369456
14.7443 20.5148 10.1469
0.0 0.0 -2.77371
-12.2298 5.70904 0.572916
0.0 0.0 -2.77371
9.99031 -9.50516 8.65883
-0.500631 5.25506 -1.18829
-0.00693993 0.021878 0.0777894
7.13295 4.92723 21.5902
-0.00988974 0.00076169 -0.231378
1.25451 1.31975 -1.84643
0.0539575 0.430739 0.478226
-0.000410656 -1.1779e-05 -0.0465736
0.16185 0.534914 2.01076
-0.0977438 -0.0260671 -0.618637
0.0968505 -0.35006 -2.04729
0.0 0.0 -2.77371
17.2584 -29.0858 24.274
0.543923 -0.673616 -1.51783
0.0 0.0 -2.77371
-1.58473 0.608124 -3.95256
1.42765 -0.107063 -0.986131
2.65204 5.19324 0.700751
-1.12452 1.94824 -1.57171
5.24082 4.88491 4.44638
-0.00422917 -0.000252846 0.0588916
0.0177224 -0.0252445 -0.880839
-0.444359 -0.0215286 -1.81417
-0.340965 0.156858 -0.919881
0.366634 -0.021639 -0.0747291
-0.00149407 -3.2077e-05 -0.0279365
0.000399857 -3.7437e-05 0.0117535
-0.00167382 -1.13019 -0.867974
0.0 0.0 -2.77371
6.49905 7.96182 10.2498
0.0 0.0 -2.77371
-0.0791112 0.322097 -1.82731
1.17574e-05 0.995809 -0.98248
0.367087 0.744189 -0.742691
3.42567 -12.2723 -3.78839
0.405973 -12.6348 -3.99715
1.99862 -0.186034 -0.173216
-10.1456 7.56583 7.01785
0.0 0.0 -2.77371
0.0 0.0 -2.77371
0.587971 3.11264 5.55546
-24.3997 -26.2408 1.64937
9.78419 -2.8125 29.691
24.3997 26.2408 -7.1968
-5.87924 -1.7198 -4.22926
1.18844 -0.578007 1.98846
30.9089 16.6332 -57.0596
0.0 0.0 -2.77371
-0.396395 0.321136 0.644637
0.483366 -1.4869 -0.881728
0.0 0.0 -2.77371
-3.59537 0.90171 5.21426
16.9375 -6.75627 7.23923
0.0 0.0 -2.77371
9.37277 -4.73091 42.0393
0.0 0.0 -2.77371
0.0 0.0 -2.77371
14.836 11.7726 25.6829
0.0 0.0 -2.77371
0.0 0.0 -2.77371
4.67538 6.77712 23.2766
2.22341 5.46682 8.79392
3.98829 0.641412 0.090937
0.0 0.0 -2.77371
10.2499 -11.4862 15.5793
2.39103 -16.8076 1.33322
0.493682 -4.70093 22.8366
0.925377 -2.66692 11.4423
0.0 0.0 -2.77371
0.0 0.0 -2.77371
46.2474 -8.65532 81.7638
15.5735 3.58455 22.2685
18.4064 9.61977 51.0532
3.37233 -2.21895 12.7096
0.334491 -0.147074 -1.33662
6.40875 -5.3701 19.51
0.0 0.0 -2.77371
3.66905 -4.01194 -5.33501
0.0 0.0 -2.77371
0.0 0.0 -2.77371
-0.46149 0.056814 -1.48178
0.0 0.0 -2.77371
0.0 0.0 -2.77371
6.61028 -8.12203 9.89511
0.0 0.0 -2.77371
4.38316 -0.97938 1.20485
0.0 0.0 -2.77371
-0.00536667 -0.97179 -1.00952
0.0272244 -0.859011 -0.197545
0.179074 -0.733829 -0.616948
-0.0673945 0.203496 -2.18655
0.0387545 0.654029 -0.813927
0.0 0.0 -2.77371
0.0 0.0 -2.77371
0.0 0.0 -2.77371
0.0 0.0 -2.77371
0.0 0.0 -2.77371
-10.5662 -48.8178 -13.4964
9.94593 -22.7701 54.6743
0.0 0.0 -2.77371
0.0 0.0 -2.77371
0.0 0.0 -2.77371
-30.9089 -16.6332 51.5122
4.68458 -16.4773 2.97881
-39.3012 -12.6774 -115.65
-0.509179 -0.557015 -1.59219
-6.06963 48.2619 16.7034
13.6729 1.87886 10.4919
-0.803026 1.28236 -6.76955
-14.0096 6.633 25.1425
0.0 0.0 -2.77371
0.0 0.0 -2.77371
5.5579 -12.2725 45.7982
-8.68964 15.1872 -16.7
5.45522 -6.45116 -4.68439
23.4676 -0.448106 16.6102
0.0 0.0 -2.77371
-3.33066 0.610278 11.2639
-5.45522 6.45116 -0.863033
0.0 0.0 -2.77371
9.74015 -7.41024 10.9451
0.0 0.0 -2.77371
0.0 0.0 -2.77371
0.0 0.0 -2.77371
0.0 0.0 -2.77371
-1.54499 2.43149 -0.98587
0.0 0.0 -2.77371
0.000520529 -0.999118 -0.979121
0.714052 -3.26927 0.681708
0.0 0.0 -2.77371
0.0 0.0 -2.77371
2.6059 0.0208497 -3.69911
24.9804 60.2332 14.9796
-0.474081 12.3851 -100.056
0.0 0.0 -2.77371
0.0 0.0 -2.77371
0.0 0.0 -2.77371
3.84764 -3.07848 -4.98685
0.0 0.0 -2.77371
8.68964 -15.1872 11.1526
27.7037 -7.71656 67.3823
0.0 0.0 -2.77371
0.0 0.0 -2.77371
0.0 0.0 -2.77371
-10.2879 14.3083 34.1212
0.0 0.0 -2.77371
0.0 0.0 -2.77371
-4.38316 0.97938 -6.75228
2.09532 -2.56549 -6.38559
0.0 0.0 -2.77371
46.7938 -1.15309 205.076
0.0 0.0 -2.77371
-21.8169 -40.7153 -40.6339