# vtk DataFile Version 2.0
Generated by lpp.py
ASCII
DATASET POLYDATA
POINTS 176 float
0.20584 0.187882 1.5764
0.34497 0.161041 1.60187
0.416173 0.18259 1.57789
0.551843 0.186472 1.57656
0.620018 0.161969 1.60055
0.137818 0.22463 1.5746
0.664171 0.223427 1.576
0.192158 0.26306 1.57555
0.259205 0.239057 1.57661
0.360764 0.222007 1.58383
0.484334 0.252183 1.57686
0.568258 0.262111 1.57686
0.335469 0.279791 1.57699
0.429008 0.280018 1.58126
0.66113 0.287161 1.57682
0.759918 0.285205 1.57685
0.488731 0.330666 1.57595
0.566958 0.33503 1.57747
0.128155 0.366752 1.58832
0.195061 0.342389 1.58617
0.289849 0.35285 1.59437
0.389483 0.363352 1.57669
0.250703 0.399714 1.57588
0.334484 0.39221 1.57945
0.557405 0.405077 1.58852
0.616917 0.387818 1.58966
0.393868 0.429938 1.57701
0.7775 0.425131 1.57684
0.111683 0.458725 1.57744
0.239304 0.459695 1.5783
0.472787 0.469974 1.57532
0.610353 0.451463 1.5774
0.675902 0.477112 1.57729
0.2106 0.514994 1.57597
0.399772 0.489035 1.58463
0.801113 0.514973 1.57686
0.0277904 0.518605 1.57993
0.289693 0.517632 1.58443
0.458502 0.531506 1.57659
0.643225 0.536874 1.57681
0.392729 0.576672 1.58682
0.533721 0.575374 1.58451
0.436894 0.139452 1.6228
0.297188 0.203824 1.60664
0.437542 0.205239 1.62759
0.528226 0.220988 1.6191
0.731834 0.214521 1.59546
0.667066 0.241915 1.63216
0.524277 0.311496 1.61844
0.584818 0.300655 1.62262
0.416984 0.339746 1.6232
0.375341 0.396246 1.62465
0.168299 0.421092 1.59825
0.21623 0.44371 1.63342
0.344915 0.444446 1.60909
0.426627 0.426797 1.63268
0.28664 0.459522 1.61883
0.485513 0.458392 1.63083
0.227544 0.501379 1.63073
0.325755 0.51049 1.64496
0.502644 0.516794 1.61417
0.583385 0.552429 1.61973
0.339485 0.254349 1.63942
0.159046 0.289728 1.64258
0.185667 0.376973 1.64988
0.466658 0.379203 1.63859
0.735139 0.437532 1.66277
0.679723 0.478891 1.63814
0.417934 0.505555 1.65322
0.435367 0.589187 1.65244
0.242402 0.317698 1.67942
0.421194 0.321564 1.68151
0.143432 0.349744 1.67679
0.307068 0.356101 1.66844
0.373853 0.370528 1.67909
0.280975 0.425864 1.67036
0.626232 0.425555 1.6896
0.498657 0.455681 1.69742
0.394247 0.565605 1.69062
0.112056 0.26459 1.68173
0.228049 0.384522 1.70795
0.179788 0.4242 1.70323
0.10161 0.511094 1.70106
0.190793 0.498184 1.70042
0.421538 0.499464 1.71066
0.218269 0.254539 1.71823
0.43763 0.245516 1.73382
0.235855 0.316318 1.74435
0.497086 0.400324 1.72158
0.108382 0.420889 1.7261
0.486742 0.509906 1.7381
0.377994 0.24098 1.755
0.368613 0.311971 1.75414
0.486179 0.312628 1.75613
0.438372 0.392123 1.79926
0.353388 0.44487 1.80727
0.307792 0.495572 1.80998
0.254767 0.230824 1.84881
0.290891 0.301706 1.82412
0.181029 0.318367 1.82795
0.41904 0.310566 1.83375
0.278223 0.363632 1.83538
0.155769 0.403018 1.84118
0.240863 0.437556 1.85727
0.419456 0.449551 1.8285
0.218974 0.524143 1.84058
0.408343 0.240904 1.88674
0.495956 0.249499 1.86753
0.355542 0.30862 1.89348
0.476719 0.464357 1.88168
0.105277 0.51875 1.89492
0.423627 0.520356 1.88469
0.178322 0.227864 1.90049
0.150682 0.290471 1.91947
0.118071 0.372478 1.91741
0.216306 0.357237 1.91534
0.429922 0.3736 1.92684
0.499251 0.382901 1.89614
0.161462 0.479607 1.90222
0.117057 0.232547 1.9501
0.46021 0.268154 1.96734
0.294692 0.330306 1.96273
0.414233 0.306803 1.96199
0.367693 0.467546 1.94751
0.313052 0.494322 1.96371
0.199862 0.243713 1.99337
0.33461 0.249494 1.97709
0.258494 0.28056 1.97581
0.169236 0.376906 2.0034
0.320208 0.403691 1.98631
0.491591 0.428372 2.00484
0.113325 0.448918 1.98931
0.209546 0.484752 1.97615
0.446997 0.50849 1.98153
0.387237 0.525686 1.97723
0.417913 0.266516 2.04412
0.47999 0.300848 2.03227
0.103577 0.34242 2.03749
0.230407 0.340128 2.03516
0.375347 0.345395 2.00995
0.380254 0.404128 2.04138
0.261069 0.440732 2.01153
0.441781 0.458388 2.03894
0.131272 0.513706 2.03606
0.254698 0.262308 2.0526
0.365118 0.235733 2.07568
0.121033 0.279919 2.05222
0.187546 0.294736 2.05886
0.378219 0.307765 2.06893
0.287678 0.358468 2.05158
0.227036 0.399722 2.04926
0.448915 0.39365 2.04864
0.10427 0.421706 2.07997
0.200976 0.455034 2.07494
0.208645 0.523817 2.07003
0.35506 0.52072 2.05723
0.29951 0.265646 2.10473
0.26261 0.317421 2.10461
0.121236 0.342722 2.10496
0.234882 0.370686 2.1019
0.360498 0.363939 2.08203
0.250123 0.467148 2.11514
0.317689 0.454971 2.08695
0.124302 0.506318 2.10864
0.387139 0.48601 2.10051
0.491668 0.49724 2.08518
0.136955 0.241756 2.12145
0.478513 0.241448 2.11775
0.200031 0.295208 2.11871
0.352336 0.290052 2.12528
0.43656 0.349215 2.11852
0.18594 0.400862 2.12647
0.288982 0.398489 2.12045
0.41824 0.41741 2.12107
0.485548 0.450278 2.12645
0.302009 0.506095 2.12474
VERTICES 176 352
1 0
1 1
1 2
1 3
1 4
1 5
1 6
1 7
1 8
1 9
1 10
1 11
1 12
1 13
1 14
1 15
1 16
1 17
1 18
1 19
1 20
1 21
1 22
1 23
1 24
1 25
1 26
1 27
1 28
1 29
1 30
1 31
1 32
1 33
1 34
1 35
1 36
1 37
1 38
1 39
1 40
1 41
1 42
1 43
1 44
1 45
1 46
1 47
1 48
1 49
1 50
1 51
1 52
1 53
1 54
1 55
1 56
1 57
1 58
1 59
1 60
1 61
1 62
1 63
1 64
1 65
1 66
1 67
1 68
1 69
1 70
1 71
1 72
1 73
1 74
1 75
1 76
1 77
1 78
1 79
1 80
1 81
1 82
1 83
1 84
1 85
1 86
1 87
1 88
1 89
1 90
1 91
1 92
1 93
1 94
1 95
1 96
1 97
1 98
1 99
1 100
1 101
1 102
1 103
1 104
1 105
1 106
1 107
1 108
1 109
1 110
1 111
1 112
1 113
1 114
1 115
1 116
1 117
1 118
1 119
1 120
1 121
1 122
1 123
1 124
1 125
1 126
1 127
1 128
1 129
1 130
1 131
1 132
1 133
1 134
1 135
1 136
1 137
1 138
1 139
1 140
1 141
1 142
1 143
1 144
1 145
1 146
1 147
1 148
1 149
1 150
1 151
1 152
1 153
1 154
1 155
1 156
1 157
1 158
1 159
1 160
1 161
1 162
1 163
1 164
1 165
1 166
1 167
1 168
1 169
1 170
1 171
1 172
1 173
1 174
1 175
POINT_DATA 176
VECTORS i float
0.0 0.0 0.0
0.0 0.0 0.0
0.0 0.0 0.0
0.0 0.0 0.0
0.0 0.0 0.0
0.0 0.0 0.0
0.0 0.0 0.0
0.0 0.0 0.0
0.0 0.0 0.0
0.0 0.0 0.0
0.0 0.0 0.0
0.0 0.0 0.0
0.0 0.0 0.0
0.0 0.0 0.0
0.0 0.0 0.0
0.0 0.0 0.0
0.0 0.0 0.0
0.0 0.0 0.0
0.0 0.0 0.0
0.0 0.0 0.0
0.0 0.0 0.0
0.0 0.0 0.0
0.0 0.0 0.0
0.0 0.0 0.0
0.0 0.0 0.0
0.0 0.0 0.0
0.0 0.0 0.0
0.0 0.0 0.0
0.0 0.0 0.0
0.0 0.0 0.0
0.0 0.0 0.0
0.0 0.0 0.0
0.0 0.0 0.0
0.0 0.0 0.0
0.0 0.0 0.0
0.0 0.0 0.0
0.0 0.0 0.0
0.0 0.0 0.0
0.0 0.0 0.0
0.0 0.0 0.0
0.0 0.0 0.0
0.0 0.0 0.0
0.0 0.0 0.0
0.0 0.0 0.0
0.0 0.0 0.0
0.0 0.0 0.0
0.0 0.0 0.0
0.0 0.0 0.0
0.0 0.0 0.0
0.0 0.0 0.0
0.0 0.0 0.0
0.0 0.0 0.0
0.0 0.0 0.0
0.0 0.0 0.0
0.0 0.0 0.0
0.0 0.0 0.0
0.0 0.0 0.0
0.0 0.0 0.0
0.0 0.0 0.0
0.0 0.0 0.0
0.0 0.0 0.0
0.0 0.0 0.0
0.0 0.0 0.0
0.0 0.0 0.0
0.0 0.0 0.0
0.0 0.0 0.0
0.0 0.0 0.0
0.0 0.0 0.0
0.0 0.0 0.0
0.0 0.0 0.0
0.0 0.0 0.0
0.0 0.0 0.0
0.0 0.0 0.0
0.0 0.0 0.0
0.0 0.0 0.0
0.0 0.0 0.0
0.0 0.0 0.0
0.0 0.0 0.0
0.0 0.0 0.0
0.0 0.0 0.0
0.0 0.0 0.0
0.0 0.0 0.0
0.0 0.0 0.0
0.0 0.0 0.0
0.0 0.0 0.0
0.0 0.0 0.0
0.0 0.0 0.0
0.0 0.0 0.0
0.0 0.0 0.0
0.0 0.0 0.0
0.0 0.0 0.0
0.0 0.0 0.0
0.0 0.0 0.0
0.0 0.0 0.0
0.0 0.0 0.0
0.0 0.0 0.0
0.0 0.0 0.0
0.0 0.0 0.0
0.0 0.0 0.0
0.0 0.0 0.0
0.0 0.0 0.0
0.0 0.0 0.0
0.0 0.0 0.0
0.0 0.0 0.0
0.0 0.0 0.0
0.0 0.0 0.0
0.0 0.0 0.0
0.0 0.0 0.0
0.0 0.0 0.0
0.0 0.0 0.0
0.0 0.0 0.0
0.0 0.0 0.0
0.0 0.0 0.0
0.0 0.0 0.0
0.0 0.0 0.0
0.0 0.0 0.0
0.0 0.0 0.0
0.0 0.0 0.0
0.0 0.0 0.0
0.0 0.0 0.0
0.0 0.0 0.0
0.0 0.0 0.0
0.0 0.0 0.0
0.0 0.0 0.0
0.0 0.0 0.0
0.0 0.0 0.0
0.0 0.0 0.0
0.0 0.0 0.0
0.0 0.0 0.0
0.0 0.0 0.0
0.0 0.0 0.0
0.0 0.0 0.0
0.0 0.0 0.0
0.0 0.0 0.0
0.0 0.0 0.0
0.0 0.0 0.0
0.0 0.0 0.0
0.0 0.0 0.0
0.0 0.0 0.0
0.0 0.0 0.0
0.0 0.0 0.0
0.0 0.0 0.0
0.0 0.0 0.0
0.0 0.0 0.0
0.0 0.0 0.0
0.0 0.0 0.0
0.0 0.0 0.0
0.0 0.0 0.0
0.0 0.0 0.0
0.0 0.0 0.0
0.0 0.0 0.0
0.0 0.0 0.0
0.0 0.0 0.0
0.0 0.0 0.0
0.0 0.0 0.0
0.0 0.0 0.0
0.0 0.0 0.0
0.0 0.0 0.0
0.0 0.0 0.0
0.0 0.0 0.0
0.0 0.0 0.0
0.0 0.0 0.0
0.0 0.0 0.0
0.0 0.0 0.0
0.0 0.0 0.0
0.0 0.0 0.0
0.0 0.0 0.0
0.0 0.0 0.0
0.0 0.0 0.0
0.0 0.0 0.0
0.0 0.0 0.0
0.0 0.0 0.0
0.0 0.0 0.0
0.0 0.0 0.0
0.0 0.0 0.0
0.0 0.0 0.0
VECTORS f float
5.68399 3.20333 10.2753
-0.009245 1.27809 -0.795104
-2.51901 5.2694 3.06243
-0.462726 -1.5153 4.76308
0.120299 0.413031 -1.57085
-1.10113 0.0337372 -0.570414
4.59748 0.385192 9.78789
-15.3251 1.27959 -3.02935
9.85226 -4.71111 12.1413
0.0 0.0 -2.77371
5.17331e-05 2.30242e-05 -0.0107962
-0.00657587 0.000654588 0.0517008
0.0192909 -0.0297839 -2.70274
0.0 0.0 -2.77371
-0.384824 0.00758797 0.846692
-0.00495911 -0.000817534 0.174428
10.4237 3.88093 13.3311
0.181305 1.23344 -6.17085
0.0 0.0 -2.77371
0.0 0.0 -2.77371
0.0 0.0 -2.77371
-3.18118 0.895809 -7.5541
32.1616 -21.3106 65.772
0.0 0.0 -2.77371
0.0 0.0 -2.77371
0.0 0.0 -2.77371
1.48135 1.54936 -9.91425
0.0157548 -0.00155913 0.598224
0.0 0.0 -2.77371
0.0 0.0 -2.77371
-12.4267 -0.933509 0.944697
0.0 0.0 -2.77371
0.0 0.0 -2.77371
-1.13816 2.53652 -5.60125
-0.251547 -1.43791 -2.27332
0.00156066 -6.52547e-05 0.052445
0.0 0.0 -2.77371
0.0 0.0 -2.77371
2.49816 -0.519369 -2.17494
-2.66429 -0.388245 -13.039
0.0 0.0 -2.77371
-0.803952 -2.05519 3.05689
3.98892 -5.47504 -8.60329
-3.0214 5.60189 -3.91137
0.137799 5.58236 3.44314
-0.622845 1.14655 -2.31498
0.0 0.0 -2.77371
-3.67949 0.987135 6.84264
5.34406 -9.18754 22.9119
-0.181305 -1.23344 0.623425
3.92498 -0.961736 4.30497
6.31746 -12.2385 -10.1908
0.0 0.0 -2.77371
-1.33077 -19.0411 7.50722
-6.33871 11.2381 -0.231012
0.0 0.0 -2.77371
0.0 0.0 -2.77371
11.6602 -4.17132 27.5437
2.46331 16.5087 -10.2132
0.0 0.0 -2.77371
-2.50148 0.518244 -3.36547
0.0 0.0 -2.77371
0.0 0.0 -2.77371
0.0 0.0 -2.77371
36.4466 18.6731 -60.0022
0.0 0.0 -2.77371
0.0 0.0 -2.77371
0.0 0.0 -2.77371
-120.834 -9.96783 -204.144
0.0 0.0 -2.77371
0.0 0.0 -2.77371
0.0 0.0 -2.77371
-36.4466 -18.6731 54.4548
0.0 0.0 -2.77371
0.0 0.0 -2.77371
0.0 0.0 -2.77371
0.0 0.0 -2.77371
0.0 0.0 -2.77371
0.0 0.0 -2.77371
0.0 0.0 -2.77371
0.0 0.0 -2.77371
0.0 0.0 -2.77371
0.0 0.0 -2.77371
0.0 0.0 -2.77371
120.834 9.96783 198.597
0.0 0.0 -2.77371
0.0 0.0 -2.77371
0.0 0.0 -2.77371
0.0 0.0 -2.77371
0.0 0.0 -2.77371
0.0 0.0 -2.77371
0.0 0.0 -2.77371
0.0 0.0 -2.77371
0.0 0.0 -2.77371
0.0 0.0 -2.77371
0.0 0.0 -2.77371
0.0 0.0 -2.77371
0.0 0.0 -2.77371
0.0 0.0 -2.77371
0.0 0.0 -2.77371
0.0 0.0 -2.77371
0.0 0.0 -2.77371
0.0 0.0 -2.77371
0.0 0.0 -2.77371
0.0 0.0 -2.77371
0.0 0.0 -2.77371
0.0 0.0 -2.77371
0.0 0.0 -2.77371
0.0 0.0 -2.77371
0.0 0.0 -2.77371
0.0 0.0 -2.77371
0.0 0.0 -2.77371
0.0 0.0 -2.77371
0.0 0.0 -2.77371
0.0 0.0 -2.77371
0.0 0.0 -2.77371
0.0 0.0 -2.77371
0.0 0.0 -2.77371
0.0 0.0 -2.77371
0.0 0.0 -2.77371
0.0 0.0 -2.77371
0.0 0.0 -2.77371
0.0 0.0 -2.77371
0.0 0.0 -2.77371
0.0 0.0 -2.77371
0.0 0.0 -2.77371
0.0 0.0 -2.77371
0.0 0.0 -2.77371
0.0 0.0 -2.77371
0.0 0.0 -2.77371
0.0 0.0 -2.77371
0.0 0.0 -2.77371
0.0 0.0 -2.77371
0.0 0.0 -2.77371
0.0 0.0 -2.77371
0.0 0.0 -2.77371
0.0 0.0 -2.77371
0.0 0.0 -2.77371
0.0 0.0 -2.77371
0.0 0.0 -2.77371
0.0 0.0 -2.77371
0.0 0.0 -2.77371
0.0 0.0 -2.77371
0.0 0.0 -2.77371
0.0 0.0 0.0
0.0 0.0 0.0
0.0 0.0 0.0
0.0 0.0 0.0
0.0 0.0 0.0
0.0 0.0 0.0
0.0 0.0 0.0
0.0 0.0 0.0
0.0 0.0 0.0
0.0 0.0 0.0
0.0 0.0 0.0
0.0 0.0 0.0
0.0 0.0 0.0
0.0 0.0 0.0
0.0 0.0 0.0
0.0 0.0 0.0
0.0 0.0 0.0
0.0 0.0 0.0
0.0 0.0 0.0
0.0 0.0 0.0
0.0 0.0 0.0
0.0 0.0 0.0
0.0 0.0 0.0
0.0 0.0 0.0
0.0 0.0 0.0
0.0 0.0 0.0
0.0 0.0 0.0
0.0 0.0 0.0
0.0 0.0 0.0
0.0 0.0 0.0
0.0 0.0 0.0
0.0 0.0 0.0
VECTORS omega float
11.2005 -95.3598 -2.34804
10.3022 -97.9777 19.1892
-4.62714 -84.4299 32.5592
-1.24692 -69.0218 36.0256
9.38559 -85.1582 2.64441
9.17749 -119.697 1.97972
15.907 -67.6236 -15.5884
-1.18375 -104.068 -1.45034
-19.39 -25.825 10.3819
0.604901 30.7533 -6.43798
4.28762 -88.4049 2.8083
9.24721 -73.9204 -8.18085
13.2096 -88.601 -8.9809
-0.38063 14.0738 -17.4473
8.20696 -53.5784 10.1393
11.3607 -68.9135 15.7782
-5.33437 -74.3213 11.8011
7.4256 -30.211 -13.2227
-4.0477 -99.9078 10.6163
9.54566 -91.7733 -15.5461
-34.0147 -42.3082 17.6092
-1.18975 -83.0211 -4.07294
12.6507 -80.2493 10.2751
-64.6959 -29.6836 -0.220211
3.59332 -67.4754 -1.0062
-3.0089 -61.1344 -3.69294
-2.95278 -55.7187 -11.2398
-4.9217 -50.7502 2.52464
0.0 -95.0107 0.0
-2.35501 -94.17 28.9364
-11.0144 -79.5434 0.237132
-57.6701 63.269 8.83672
-7.84775 -73.6977 1.90981
-8.44424 -91.3389 2.837
2.30911 -76.2196 6.15045
-1.81732 -43.493 1.90422
-9.03958 3.93543 -2.54792
-2.94295 -83.8816 5.01132
-2.03485 -75.6979 11.9353
-15.5396 -60.9307 -14.7917
-13.9751 -95.3434 -14.4722
-5.87539 -85.0127 -23.2372
12.4622 -2.24495 61.795
7.72534 22.529 8.64492
9.56955 60.7981 -32.6675
-5.04076 40.0951 -2.54119
7.50631 -87.184 -1.17518
10.6447 -54.3359 -1.28341
26.4015 13.227 -35.2384
7.96065 -12.8588 6.32574
13.4632 70.6141 11.5145
-7.38999 11.9481 -27.675
-17.4815 -44.6981 5.51711
10.4617 14.4027 -11.8272
-4.81258 -9.38517 3.6981
23.3585 10.5612 9.00073
15.0976 73.1923 -9.11715
41.5462 47.3897 26.972
27.0372 46.9338 -1.47312
10.0043 69.7994 3.39946
-6.70609 -59.0418 -13.0602
-8.73866 86.2353 17.7017
-14.2509 -10.6946 22.7074
11.4776 -14.6289 -2.14841
4.72968 -12.933 -3.88744
8.72168 -0.901996 1.22298
5.11574 -46.1421 -14.4888
17.0508 -62.7073 7.75373
-7.88363 44.9263 0.212334
-27.7984 40.0863 14.5704
75.7292 30.3705 -3.85868
-17.4805 -87.692 7.53021
37.1581 -49.6101 7.19391
23.8995 1.99988 -11.7757
28.9206 -12.7364 -2.79932
29.3473 61.2809 -17.6737
-9.19163 -33.8691 1.4826
-15.7547 -31.2511 1.15195
-37.5588 -64.8153 28.7954
0.0 0.0 0.0
0.0 0.0 0.0
0.0 0.0 0.0
0.0 0.0 0.0
0.0 0.0 0.0
4.41526 -15.3553 -1.89479
0.0 0.0 0.0
0.0 0.0 0.0
0.0 0.0 0.0
0.0 0.0 0.0
0.0 0.0 0.0
0.0 0.0 0.0
0.0 0.0 0.0
0.0 0.0 0.0
0.0 0.0 0.0
0.0 0.0 0.0
0.0 0.0 0.0
0.0 0.0 0.0
0.0 0.0 0.0
0.0 0.0 0.0
0.0 0.0 0.0
0.0 0.0 0.0
0.0 0.0 0.0
0.0 0.0 0.0
0.0 0.0 0.0
0.0 0.0 0.0
0.0 0.0 0.0
0.0 0.0 0.0
0.0 0.0 0.0
0.0 0.0 0.0
0.0 0.0 0.0
0.0 0.0 0.0
0.0 0.0 0.0
0.0 0.0 0.0
0.0 0.0 0.0
0.0 0.0 0.0
0.0 0.0 0.0
0.0 0.0 0.0
0.0 0.0 0.0
0.0 0.0 0.0
0.0 0.0 0.0
0.0 0.0 0.0
0.0 0.0 0.0
0.0 0.0 0.0
0.0 0.0 0.0
0.0 0.0 0.0
0.0 0.0 0.0
0.0 0.0 0.0
0.0 0.0 0.0
0.0 0.0 0.0
0.0 0.0 0.0
0.0 0.0 0.0
0.0 0.0 0.0
0.0 0.0 0.0
0.0 0.0 0.0
0.0 0.0 0.0
0.0 0.0 0.0
0.0 0.0 0.0
0.0 0.0 0.0
0.0 0.0 0.0
0.0 0.0 0.0
0.0 0.0 0.0
0.0 0.0 0.0
0.0 0.0 0.0
0.0 0.0 0.0
0.0 0.0 0.0
0.0 0.0 0.0
0.0 0.0 0.0
0.0 0.0 0.0
0.0 0.0 0.0
0.0 0.0 0.0
0.0 0.0 0.0
0.0 0.0 0.0
0.0 0.0 0.0
0.0 0.0 0.0
0.0 0.0 0.0
0.0 0.0 0.0
0.0 0.0 0.0
0.0 0.0 0.0
0.0 0.0 0.0
0.0 0.0 0.0
0.0 0.0 0.0
0.0 0.0 0.0
0.0 0.0 0.0
0.0 0.0 0.0
0.0 0.0 0.0
0.0 0.0 0.0
0.0 0.0 0.0
0.0 0.0 0.0
0.0 0.0 0.0
0.0 0.0 0.0
0.0 0.0 0.0
0.0 0.0 0.0
0.0 0.0 0.0
0.0 0.0 0.0
0.0 0.0 0.0
0.0 0.0 0.0
VECTORS v float
0.855112 -0.5107 0.00886992
1.52417 -0.218914 0.218788
1.6955 0.465452 0.379315
2.00722 0.0305721 0.0194213
2.21918 -0.101901 0.280478
0.918727 -0.270959 1.0932
2.04339 -0.447178 0.067059
1.20946 0.0136862 0.623139
0.952042 0.279605 -0.108603
0.677673 -1.07229 -1.17514
1.35863 -0.128106 6.54815e-07
1.79183 -0.276269 0.000926231
1.15835 -0.104204 0.0216715
0.86344 -0.0512932 -1.62023
2.4128 -0.245089 -0.00131005
1.94179 -0.339306 0.00124651
1.81772 0.169923 -0.196125
2.33951 -0.0169055 -0.166481
1.04933 0.119499 0.744221
1.29627 -0.2548 0.644665
1.3299 0.249144 0.117685
1.43096 0.181349 0.168714
1.47927 -0.275812 -0.552677
1.42313 0.205743 -0.293133
1.79681 -0.0384582 0.208346
1.97047 0.148686 -0.0426714
2.30688 0.0976306 0.203853
2.48464 0.146958 -0.00392427
1.19591 0.0 0.928086
1.2451 0.0726143 0.330275
1.74744 0.318657 0.278862
1.73703 0.257554 -0.601099
1.79572 0.235931 -0.0234846
1.38781 0.203971 0.418342
2.00505 0.198721 0.371401
2.70059 0.0542948 -0.000501184
-1.11324 0.0538098 -0.934359
1.57253 0.0797756 0.784506
1.78995 0.0493337 0.155813
2.20199 0.463852 0.294248
1.67538 0.213732 0.125979
1.73376 0.107506 0.00736003
1.79083 -0.0463562 0.551028
0.856871 -1.28447 -1.25201
1.16924 0.709658 1.00871
0.803248 -0.25203 -0.322246
1.34063 -0.122853 -0.754079
0.929284 -0.204745 0.118502
1.48793 -0.607977 -0.227863
1.46229 -0.572309 -0.138871
1.33478 -0.179374 0.347477
0.640906 0.136718 0.248514
0.0955188 -0.3399 -0.487503
0.0173987 -0.197495 0.351327
1.21034 0.252861 -0.751057
0.691093 -0.396092 0.0597868
1.21644 0.312161 1.2695
0.841807 -0.382028 0.557915
0.219113 -0.174469 1.08759
1.69768 -0.0216894 2.04596
1.43144 0.311484 0.910439
1.77223 0.0960884 0.240938
0.388056 0.0820215 -1.24694
0.0547806 -0.330442 -1.26757
0.670107 0.708192 0.228544
-0.27878 -0.471281 0.107685
1.39052 0.105394 0.269073
1.02382 -0.0203263 -0.28338
1.39032 0.105765 0.878689
0.663295 1.04463 0.405854
0.378455 0.1097 0.832212
0.838457 -0.173836 -0.00182253
-0.502042 -0.193326 -1.6368
0.444979 -0.492214 -2.21923
0.230771 -0.506667 0.220309
0.214639 0.968751 -0.4202
2.12519 -0.562156 -0.0831071
0.623836 -0.22428 -0.769219
0.690883 1.24682 0.788265
0.0 0.0 -2.85806
0.0 0.0 -2.76663
0.0 0.0 -2.78331
0.0 0.0 -2.79096
0.0 0.0 -2.79322
0.210552 0.021915 -2.44436
0.0 0.0 -2.72994
0.0 0.0 -2.67334
0.0 0.0 -2.6344
0.0 0.0 -2.71788
0.0 0.0 -2.7015
0.0 0.0 -2.65755
0.0 0.0 -2.59447
0.0 0.0 -2.59771
0.0 0.0 -2.59015
0.0 0.0 -2.42132
0.0 0.0 -2.38865
0.0 0.0 -2.37747
0.0 0.0 -2.21149
0.0 0.0 -2.31841
0.0 0.0 -2.30213
0.0 0.0 -2.27731
0.0 0.0 -2.27025
0.0 0.0 -2.24504
0.0 0.0 -2.17362
0.0 0.0 -2.29978
0.0 0.0 -2.24768
0.0 0.0 -2.03628
0.0 0.0 -2.12683
0.0 0.0 -2.00351
0.0 0.0 -2.06051
0.0 0.0 -1.99645
0.0 0.0 -2.04609
0.0 0.0 -1.96888
0.0 0.0 -1.87196
0.0 0.0 -1.88275
0.0 0.0 -1.89345
0.0 0.0 -1.83292
0.0 0.0 -1.99047
0.0 0.0 -1.96025
0.0 0.0 -1.70392
0.0 0.0 -1.6016
0.0 0.0 -1.62956
0.0 0.0 -1.63397
0.0 0.0 -1.71873
0.0 0.0 -1.62367
0.0 0.0 -1.43326
0.0 0.0 -1.54068
0.0 0.0 -1.54882
0.0 0.0 -1.36292
0.0 0.0 -1.48084
0.0 0.0 -1.35252
0.0 0.0 -1.46082
0.0 0.0 -1.54666
0.0 0.0 -1.51213
0.0 0.0 -1.5398
0.0 0.0 -1.02889
0.0 0.0 -1.13621
0.0 0.0 -1.0902
0.0 0.0 -1.111
0.0 0.0 -1.31495
0.0 0.0 -1.05469
0.0 0.0 -1.30308
0.0 0.0 -1.07716
0.0 0.0 -1.10305
-0 -0 -1.0
-0 -0 -1.0
-0 -0 -1.0
-0 -0 -1.0
-0 -0 -1.0
-0 -0 -1.0
-0 -0 -1.0
-0 -0 -1.0
-0 -0 -1.0
-0 -0 -1.0
-0 -0 -1.0
-0 -0 -1.0
-0 -0 -1.0
-0 -0 -1.0
-0 -0 -1.0
-0 -0 -1.0
-0 -0 -1.0
-0 -0 -1.0
-0 -0 -1.0
-0 -0 -1.0
-0 -0 -1.0
-0 -0 -1.0
-0 -0 -1.0
-0 -0 -1.0
-0 -0 -1.0
-0 -0 -1.0
-0 -0 -1.0
-0 -0 -1.0
-0 -0 -1.0
-0 -0 -1.0
-0 -0 -1.0
-0 -0 -1.0
SCALARS radius float 1
LOOKUP_TABLE default
0.03
0.03
0.03
0.03
0.03
0.03
0.03
0.03
0.03
0.03
0.03
0.03
0.03
0.03
0.03
0.03
0.03
0.03
0.03
0.03
0.03
0.03
0.03
0.03
0.03
0.03
0.03
0.03
0.03
0.03
0.03
0.03
0.03
0.03
0.03
0.03
0.03
0.03
0.03
0.03
0.03
0.03
0.03
0.03
0.03
0.03
0.03
0.03
0.03
0.03
0.03
0.03
0.03
0.03
0.03
0.03
0.03
0.03
0.03
0.03
0.03
0.03
0.03
0.03
0.03
0.03
0.03
0.03
0.03
0.03
0.03
0.03
0.03
0.03
0.03
0.03
0.03
0.03
0.03
0.03
0.03
0.03
0.03
0.03
0.03
0.03
0.03
0.03
0.03
0.03
0.03
0.03
0.03
0.03
0.03
0.03
0.03
0.03
0.03
0.03
0.03
0.03
0.03
0.03
0.03
0.03
0.03
0.03
0.03
0.03
0.03
0.03
0.03
0.03
0.03
0.03
0.03
0.03
0.03
0.03
0.03
0.03
0.03
0.03
0.03
0.03
0.03
0.03
0.03
0.03
0.03
0.03
0.03
0.03
0.03
0.03
0.03
0.03
0.03
0.03
0.03
0.03
0.03
0.03
0.03
0.03
0.03
0.03
0.03
0.03
0.03
0.03
0.03
0.03
0.03
0.03
0.03
0.03
0.03
0.03
0.03
0.03
0.03
0.03
0.03
0.03
0.03
0.03
0.03
0.03
0.03
0.03
0.03
0.03
0.03
0.03
SCALARS type float 1
LOOKUP_TABLE default
1.0
1.0
1.0
1.0
1.0
1.0
1.0
1.0
1.0
1.0
1.0
1.0
1.0
1.0
1.0
1.0
1.0
1.0
1.0
1.0
1.0
1.0
1.0
1.0
1.0
1.0
1.0
1.0
1.0
1.0
1.0
1.0
1.0
1.0
1.0
1.0
1.0
1.0
1.0
1.0
1.0
1.0
1.0
1.0
1.0
1.0
1.0
1.0
1.0
1.0
1.0
1.0
1.0
1.0
1.0
1.0
1.0
1.0
1.0
1.0
1.0
1.0
1.0
1.0
1.0
1.0
1.0
1.0
1.0
1.0
1.0
1.0
1.0
1.0
1.0
1.0
1.0
1.0
1.0
1.0
1.0
1.0
1.0
1.0
1.0
1.0
1.0
1.0
1.0
1.0
1.0
1.0
1.0
1.0
1.0
1.0
1.0
1.0
1.0
1.0
1.0
1.0
1.0
1.0
1.0
1.0
1.0
1.0
1.0
1.0
1.0
1.0
1.0
1.0
1.0
1.0
1.0
1.0
1.0
1.0
1.0
1.0
1.0
1.0
1.0
1.0
1.0
1.0
1.0
1.0
1.0
1.0
1.0
1.0
1.0
1.0
1.0
1.0
1.0
1.0
1.0
1.0
1.0
1.0
1.0
1.0
1.0
1.0
1.0
1.0
1.0
1.0
1.0
1.0
1.0
1.0
1.0
1.0
1.0
1.0
1.0
1.0
1.0
1.0
1.0
1.0
1.0
1.0
1.0
1.0
1.0
1.0
1.0
1.0
1.0
1.0
SCALARS id float 1
LOOKUP_TABLE default
128.0
108.0
123.0
137.0
94.0
148.0
105.0
15.0
146.0
81.0
49.0
129.0
79.0
127.0
145.0
92.0
29.0
104.0
31.0
5.0
99.0
76.0
71.0
149.0
144.0
112.0
41.0
138.0
118.0
61.0
21.0
24.0
16.0
51.0
166.0
18.0
17.0
97.0
85.0
151.0
66.0
167.0
171.0
73.0
32.0
1.0
100.0
42.0
19.0
45.0
47.0
133.0
80.0
83.0
4.0
44.0
12.0
131.0
164.0
107.0
98.0
53.0
64.0
116.0
57.0
93.0
82.0
152.0
2.0
174.0
72.0
55.0
70.0
23.0
26.0
91.0
130.0
68.0
125.0
60.0
157.0
28.0
77.0
75.0
67.0
46.0
10.0
102.0
173.0
176.0
110.0
140.0
155.0
136.0
63.0
30.0
52.0
22.0
135.0
156.0
35.0
25.0
165.0
101.0
163.0
143.0
40.0
120.0
8.0
134.0
162.0
159.0
86.0
13.0
58.0
78.0
109.0
113.0
33.0
139.0
43.0
121.0
153.0
87.0
37.0
158.0
69.0
117.0
38.0
147.0
170.0
150.0
115.0
119.0
168.0
7.0
48.0
3.0
50.0
27.0
103.0
90.0
11.0
111.0
114.0
141.0
14.0
62.0
169.0
54.0
95.0
65.0
74.0
56.0
154.0
161.0
126.0
36.0
142.0
175.0
59.0
9.0
6.0
84.0
39.0
96.0
132.0
89.0
124.0
106.0
122.0
20.0
172.0
34.0
88.0
160.0
SCALARS Temp float 1
LOOKUP_TABLE default
308.327
314.654
323.283
319.483
309.151
303.11
322.189
302.904
303.698
300.408
325.294
323.813
313.226
300.154
309.351
315.591
322.279
310.174
303.912
306.766
316.058
317.361
304.402
312.044
309.982
318.347
323.77
312.637
303.946
314.238
321.569
300.325
310.253
314.433
321.33
318.127
300.037
306.648
324.488
303.26
322.285
319.934
303.142
300.016
300.237
300.307
303.947
304.059
300.182
300.216
300.296
300.747
303.923
300.149
300.302
300.221
300.388
300.742
300.156
300.048
317.668
304.139
300.003
300.001
300.074
300.097
303.961
303.973
300.62
300.259
300.225
300.002
300.0
300.002
300.008
300.278
300.005
300.004
300.009
300.0
300.0
300.0
300.0
300.0
300.0
300.0
300.0
300.0
300.0
300.0
300.0
300.0
300.0
300.0
300.0
300.0
300.0
300.0
300.0
300.0
300.0
300.0
300.0
300.0
300.0
300.0
300.0
300.0
300.0
300.0
300.0
300.0
300.0
300.0
300.0
300.0
300.0
300.0
300.0
300.0
300.0
300.0
300.0
300.0
300.0
300.0
300.0
300.0
300.0
300.0
300.0
300.0
300.0
300.0
300.0
300.0
300.0
300.0
300.0
300.0
300.0
300.0
300.0
300.0
300.0
300.0
300.0
300.0
300.0
300.0
300.0
300.0
300.0
300.0
300.0
300.0
300.0
300.0
300.0
300.0
300.0
300.0
300.0
300.0
300.0
300.0
300.0
300.0
300.0
300.0
300.0
300.0
300.0
300.0
300.0
300.0

