# vtk DataFile Version 2.0
Generated by lpp.py
ASCII
DATASET POLYDATA
POINTS 176 float
0.26879 0.176412 1.58748
0.459707 0.181734 1.58121
0.523024 0.181604 1.59261
0.167108 0.218684 1.58577
0.346288 0.215167 1.57768
0.41661 0.258635 1.57689
0.579194 0.248715 1.57689
0.279763 0.283385 1.58925
0.479781 0.275355 1.57688
0.215642 0.331594 1.5733
0.40927 0.329629 1.57609
0.466715 0.337216 1.58652
0.54494 0.300346 1.5778
0.662852 0.302174 1.57707
0.264419 0.376038 1.58204
0.321744 0.351326 1.57482
0.195622 0.391321 1.58568
0.519952 0.379428 1.58146
0.13846 0.43018 1.58916
0.298265 0.426485 1.57875
0.468235 0.409138 1.57851
0.523502 0.438585 1.59519
0.653309 0.417786 1.57754
0.204896 0.453705 1.59002
0.318637 0.482498 1.57708
0.383117 0.459242 1.57779
0.580838 0.462927 1.58388
0.176492 0.50874 1.58562
0.445164 0.502684 1.58774
0.666082 0.512258 1.57669
0.3713 0.532112 1.5767
0.497833 0.543965 1.59923
0.311514 0.559565 1.57686
0.44709 0.567562 1.57707
0.384144 0.184485 1.61721
0.664803 0.220663 1.6209
0.188185 0.263328 1.62378
0.237015 0.233381 1.60409
0.344848 0.259819 1.61681
0.485355 0.239691 1.62475
0.158663 0.336686 1.61849
0.223527 0.312082 1.62549
0.359857 0.334736 1.61585
0.511067 0.327253 1.62473
0.343512 0.411978 1.61079
0.665613 0.432262 1.63705
0.253722 0.448494 1.61891
0.0834526 0.515915 1.61439
0.232299 0.505528 1.60167
0.409696 0.543001 1.62125
0.553855 0.522117 1.60721
0.611129 0.25427 1.64221
0.391925 0.276516 1.64935
0.452799 0.331883 1.64557
0.256453 0.393411 1.65639
0.459601 0.469408 1.64593
0.628532 0.479908 1.64005
0.358809 0.506827 1.63804
0.409561 0.233911 1.69167
0.251129 0.275106 1.66052
0.156307 0.30625 1.6937
0.383397 0.328838 1.67699
0.10471 0.363257 1.66084
0.478047 0.398941 1.65166
0.400035 0.441344 1.65988
0.28849 0.447306 1.66813
0.519973 0.453663 1.68149
0.306489 0.506784 1.66856
0.137853 0.229319 1.70178
0.185895 0.369748 1.69619
0.100655 0.458725 1.70061
0.226898 0.506806 1.69515
0.369388 0.526215 1.71327
0.329189 0.252757 1.7398
0.218563 0.442358 1.71986
0.368876 0.379155 1.77172
0.47867 0.463 1.76685
0.112056 0.26459 1.81238
0.144122 0.349922 1.80635
0.298609 0.364728 1.78986
0.218269 0.254539 1.84246
0.43763 0.245516 1.85522
0.228049 0.384522 1.83402
0.497086 0.400324 1.84521
0.108382 0.420889 1.84891
0.179788 0.4242 1.83014
0.10161 0.511094 1.82834
0.190793 0.498184 1.82782
0.421483 0.499457 1.83618
0.486742 0.509906 1.85872
0.377994 0.24098 1.87246
0.235855 0.316318 1.86381
0.368613 0.311971 1.87176
0.486179 0.312628 1.87337
0.290891 0.301706 1.92777
0.181029 0.318367 1.93079
0.438372 0.392123 1.90806
0.353388 0.44487 1.91444
0.419456 0.449551 1.93123
0.307792 0.495572 1.91659
0.254767 0.230824 1.94712
0.495956 0.249499 1.9616
0.41904 0.310566 1.93535
0.278223 0.363632 1.93663
0.155769 0.403018 1.94117
0.240863 0.437556 1.95369
0.218974 0.524143 1.9407
0.178322 0.227864 1.98667
0.408343 0.240904 1.97629
0.150682 0.290471 2.00081
0.355542 0.30862 1.9814
0.118071 0.372478 1.99928
0.216306 0.357237 1.99775
0.429922 0.3736 2.00622
0.499251 0.382901 1.9834
0.161462 0.479607 1.98797
0.476719 0.464357 1.97244
0.105277 0.51875 1.98248
0.423627 0.520356 1.97473
0.117057 0.232547 2.02303
0.33461 0.249494 2.04186
0.258494 0.28056 2.04099
0.46021 0.268154 2.03516
0.294692 0.330306 2.03194
0.414233 0.306803 2.03143
0.367693 0.467546 2.02119
0.209546 0.484752 2.04122
0.313052 0.494322 2.03263
0.446997 0.50849 2.04488
0.387237 0.525686 2.04196
0.199862 0.243713 2.05294
0.375347 0.345395 2.065
0.169236 0.376906 2.06011
0.320208 0.403691 2.04809
0.261069 0.440732 2.06621
0.491591 0.428372 2.06117
0.113325 0.448918 2.05014
0.254698 0.262308 2.1026
0.417913 0.266516 2.09416
0.121033 0.279919 2.10222
0.187546 0.294736 2.10886
0.47999 0.300848 2.08322
0.103577 0.34242 2.08791
0.230407 0.340128 2.08579
0.287678 0.358468 2.10158
0.227036 0.399722 2.09926
0.380254 0.404128 2.09153
0.448915 0.39365 2.09864
0.441781 0.458388 2.08924
0.131272 0.513706 2.08661
0.35506 0.52072 2.10723
0.365118 0.235733 2.12568
0.378219 0.307765 2.11893
0.360498 0.363939 2.13203
0.10427 0.421706 2.12997
0.200976 0.455034 2.12494
0.317689 0.454971 2.13695
0.387139 0.48601 2.15051
0.491668 0.49724 2.13518
0.208645 0.523817 2.12003
0.136955 0.241756 2.17145
0.29951 0.265646 2.15473
0.478513 0.241448 2.16775
0.200031 0.295208 2.16871
0.352336 0.290052 2.17528
0.26261 0.317421 2.15461
0.121236 0.342722 2.15496
0.234882 0.370686 2.1519
0.43656 0.349215 2.16852
0.18594 0.400862 2.17647
0.288982 0.398489 2.17045
0.41824 0.41741 2.17107
0.250123 0.467148 2.16514
0.485548 0.450278 2.17645
0.124302 0.506318 2.15864
0.302009 0.506095 2.17474
VERTICES 176 352
1 0
1 1
1 2
1 3
1 4
1 5
1 6
1 7
1 8
1 9
1 10
1 11
1 12
1 13
1 14
1 15
1 16
1 17
1 18
1 19
1 20
1 21
1 22
1 23
1 24
1 25
1 26
1 27
1 28
1 29
1 30
1 31
1 32
1 33
1 34
1 35
1 36
1 37
1 38
1 39
1 40
1 41
1 42
1 43
1 44
1 45
1 46
1 47
1 48
1 49
1 50
1 51
1 52
1 53
1 54
1 55
1 56
1 57
1 58
1 59
1 60
1 61
1 62
1 63
1 64
1 65
1 66
1 67
1 68
1 69
1 70
1 71
1 72
1 73
1 74
1 75
1 76
1 77
1 78
1 79
1 80
1 81
1 82
1 83
1 84
1 85
1 86
1 87
1 88
1 89
1 90
1 91
1 92
1 93
1 94
1 95
1 96
1 97
1 98
1 99
1 100
1 101
1 102
1 103
1 104
1 105
1 106
1 107
1 108
1 109
1 110
1 111
1 112
1 113
1 114
1 115
1 116
1 117
1 118
1 119
1 120
1 121
1 122
1 123
1 124
1 125
1 126
1 127
1 128
1 129
1 130
1 131
1 132
1 133
1 134
1 135
1 136
1 137
1 138
1 139
1 140
1 141
1 142
1 143
1 144
1 145
1 146
1 147
1 148
1 149
1 150
1 151
1 152
1 153
1 154
1 155
1 156
1 157
1 158
1 159
1 160
1 161
1 162
1 163
1 164
1 165
1 166
1 167
1 168
1 169
1 170
1 171
1 172
1 173
1 174
1 175
POINT_DATA 176
VECTORS i float
0.0 0.0 0.0
0.0 0.0 0.0
0.0 0.0 0.0
0.0 0.0 0.0
0.0 0.0 0.0
0.0 0.0 0.0
0.0 0.0 0.0
0.0 0.0 0.0
0.0 0.0 0.0
0.0 0.0 0.0
0.0 0.0 0.0
0.0 0.0 0.0
0.0 0.0 0.0
0.0 0.0 0.0
0.0 0.0 0.0
0.0 0.0 0.0
0.0 0.0 0.0
0.0 0.0 0.0
0.0 0.0 0.0
0.0 0.0 0.0
0.0 0.0 0.0
0.0 0.0 0.0
0.0 0.0 0.0
0.0 0.0 0.0
0.0 0.0 0.0
0.0 0.0 0.0
0.0 0.0 0.0
0.0 0.0 0.0
0.0 0.0 0.0
0.0 0.0 0.0
0.0 0.0 0.0
0.0 0.0 0.0
0.0 0.0 0.0
0.0 0.0 0.0
0.0 0.0 0.0
0.0 0.0 0.0
0.0 0.0 0.0
0.0 0.0 0.0
0.0 0.0 0.0
0.0 0.0 0.0
0.0 0.0 0.0
0.0 0.0 0.0
0.0 0.0 0.0
0.0 0.0 0.0
0.0 0.0 0.0
0.0 0.0 0.0
0.0 0.0 0.0
0.0 0.0 0.0
0.0 0.0 0.0
0.0 0.0 0.0
0.0 0.0 0.0
0.0 0.0 0.0
0.0 0.0 0.0
0.0 0.0 0.0
0.0 0.0 0.0
0.0 0.0 0.0
0.0 0.0 0.0
0.0 0.0 0.0
0.0 0.0 0.0
0.0 0.0 0.0
0.0 0.0 0.0
0.0 0.0 0.0
0.0 0.0 0.0
0.0 0.0 0.0
0.0 0.0 0.0
0.0 0.0 0.0
0.0 0.0 0.0
0.0 0.0 0.0
0.0 0.0 0.0
0.0 0.0 0.0
0.0 0.0 0.0
0.0 0.0 0.0
0.0 0.0 0.0
0.0 0.0 0.0
0.0 0.0 0.0
0.0 0.0 0.0
0.0 0.0 0.0
0.0 0.0 0.0
0.0 0.0 0.0
0.0 0.0 0.0
0.0 0.0 0.0
0.0 0.0 0.0
0.0 0.0 0.0
0.0 0.0 0.0
0.0 0.0 0.0
0.0 0.0 0.0
0.0 0.0 0.0
0.0 0.0 0.0
0.0 0.0 0.0
0.0 0.0 0.0
0.0 0.0 0.0
0.0 0.0 0.0
0.0 0.0 0.0
0.0 0.0 0.0
0.0 0.0 0.0
0.0 0.0 0.0
0.0 0.0 0.0
0.0 0.0 0.0
0.0 0.0 0.0
0.0 0.0 0.0
0.0 0.0 0.0
0.0 0.0 0.0
0.0 0.0 0.0
0.0 0.0 0.0
0.0 0.0 0.0
0.0 0.0 0.0
0.0 0.0 0.0
0.0 0.0 0.0
0.0 0.0 0.0
0.0 0.0 0.0
0.0 0.0 0.0
0.0 0.0 0.0
0.0 0.0 0.0
0.0 0.0 0.0
0.0 0.0 0.0
0.0 0.0 0.0
0.0 0.0 0.0
0.0 0.0 0.0
0.0 0.0 0.0
0.0 0.0 0.0
0.0 0.0 0.0
0.0 0.0 0.0
0.0 0.0 0.0
0.0 0.0 0.0
0.0 0.0 0.0
0.0 0.0 0.0
0.0 0.0 0.0
0.0 0.0 0.0
0.0 0.0 0.0
0.0 0.0 0.0
0.0 0.0 0.0
0.0 0.0 0.0
0.0 0.0 0.0
0.0 0.0 0.0
0.0 0.0 0.0
0.0 0.0 0.0
0.0 0.0 0.0
0.0 0.0 0.0
0.0 0.0 0.0
0.0 0.0 0.0
0.0 0.0 0.0
0.0 0.0 0.0
0.0 0.0 0.0
0.0 0.0 0.0
0.0 0.0 0.0
0.0 0.0 0.0
0.0 0.0 0.0
0.0 0.0 0.0
0.0 0.0 0.0
0.0 0.0 0.0
0.0 0.0 0.0
0.0 0.0 0.0
0.0 0.0 0.0
0.0 0.0 0.0
0.0 0.0 0.0
0.0 0.0 0.0
0.0 0.0 0.0
0.0 0.0 0.0
0.0 0.0 0.0
0.0 0.0 0.0
0.0 0.0 0.0
0.0 0.0 0.0
0.0 0.0 0.0
0.0 0.0 0.0
0.0 0.0 0.0
0.0 0.0 0.0
0.0 0.0 0.0
0.0 0.0 0.0
0.0 0.0 0.0
0.0 0.0 0.0
0.0 0.0 0.0
0.0 0.0 0.0
0.0 0.0 0.0
0.0 0.0 0.0
0.0 0.0 0.0
0.0 0.0 0.0
VECTORS f float
0.0 0.0 -2.77371
1.55253 1.93421 -0.0226065
0.0 0.0 -2.77371
0.0 0.0 -2.77371
-0.291763 -0.762258 -3.11617
1.27118 0.283269 -0.168999
-0.675373 0.982185 -0.389753
0.0 0.0 -2.77371
0.548492 -0.961677 -2.55017
-14.5407 11.0136 29.4876
1.06894 0.942016 14.9433
8.89868 0.243445 5.15746
0.0 0.0 -2.77371
-0.21537 -0.0355347 -4.48411
0.0 0.0 -2.77371
-6.21526 2.3802 34.3026
0.0 0.0 -2.77371
-0.043418 0.0171082 -2.75444
0.0 0.0 -2.77371
-35.8522 8.81982 -65.0657
0.043418 -0.0171082 -2.79299
0.0 0.0 -2.77371
0.0 0.0 -2.77371
-88.6326 21.9705 -113.346
3.20517 2.83075 -2.81477
0.0 0.0 -2.77371
0.0 0.0 -2.77371
-21.2901 2.09542 1.46016
0.0 0.0 -2.77371
-0.00146334 0.00979221 2.70091
17.0827 -20.1414 -45.8922
0.0 0.0 -2.77371
-0.138327 0.0336482 -1.10507
0.0888486 -0.0568992 -2.98472
0.0 0.0 -2.77371
0.0 0.0 -2.77371
0.0 0.0 -2.77371
0.0 0.0 -2.77371
12.3752 2.49246 3.01923
-0.40609 0.889424 -3.31662
0.0 0.0 -2.77371
4.08233 -1.04998 55.2719
1.98123 -1.07421 3.80252
3.30501 0.2027 -1.73187
32.889 -11.753 59.0337
0.0 0.0 -2.77371
102.928 -14.6565 117.417
0.0 0.0 -2.77371
6.99452 -9.40935 -16.6258
-15.3917 20.235 46.5327
0.0 0.0 -2.77371
0.0 0.0 -2.77371
-13.4709 -7.86942 -9.42849
0.0 0.0 -2.77371
0.0 0.0 -2.77371
0.0 0.0 -2.77371
0.0 0.0 -2.77371
0.0 0.0 -2.77371
0.0 0.0 -2.77371
9.14288 -22.6204 19.0034
0.0 0.0 -2.77371
1.38746 6.13921 -1.56942
0.0 0.0 -2.77371
0.0 0.0 -2.77371
0.0 0.0 -2.77371
0.0 0.0 -2.77371
0.0 0.0 -2.77371
0.0 0.0 -2.77371
0.0 0.0 -2.77371
0.0 0.0 -2.77371
0.0 0.0 -2.77371
0.0 0.0 -2.77371
0.0 0.0 -2.77371
0.0 0.0 -2.77371
0.0 0.0 -2.77371
0.0 0.0 -2.77371
0.0 0.0 -2.77371
0.0 0.0 -2.77371
0.0 0.0 -2.77371
0.0 0.0 -2.77371
0.0 0.0 -2.77371
0.0 0.0 -2.77371
0.0 0.0 -2.77371
0.0 0.0 -2.77371
0.0 0.0 -2.77371
0.0 0.0 -2.77371
0.0 0.0 -2.77371
0.0 0.0 -2.77371
0.0 0.0 -2.77371
0.0 0.0 -2.77371
0.0 0.0 -2.77371
0.0 0.0 -2.77371
0.0 0.0 -2.77371
0.0 0.0 -2.77371
0.0 0.0 -2.77371
0.0 0.0 -2.77371
0.0 0.0 -2.77371
0.0 0.0 -2.77371
0.0 0.0 -2.77371
0.0 0.0 -2.77371
0.0 0.0 -2.77371
0.0 0.0 -2.77371
0.0 0.0 -2.77371
0.0 0.0 -2.77371
0.0 0.0 -2.77371
0.0 0.0 -2.77371
0.0 0.0 -2.77371
0.0 0.0 -2.77371
0.0 0.0 -2.77371
0.0 0.0 -2.77371
0.0 0.0 -2.77371
0.0 0.0 -2.77371
0.0 0.0 -2.77371
0.0 0.0 -2.77371
0.0 0.0 -2.77371
0.0 0.0 -2.77371
0.0 0.0 -2.77371
0.0 0.0 -2.77371
0.0 0.0 -2.77371
0.0 0.0 -2.77371
0.0 0.0 -2.77371
0.0 0.0 -2.77371
0.0 0.0 -2.77371
0.0 0.0 -2.77371
0.0 0.0 -2.77371
0.0 0.0 -2.77371
0.0 0.0 -2.77371
0.0 0.0 -2.77371
0.0 0.0 -2.77371
0.0 0.0 -2.77371
0.0 0.0 0.0
0.0 0.0 0.0
0.0 0.0 0.0
0.0 0.0 0.0
0.0 0.0 0.0
0.0 0.0 0.0
0.0 0.0 0.0
0.0 0.0 0.0
0.0 0.0 0.0
0.0 0.0 0.0
0.0 0.0 0.0
0.0 0.0 0.0
0.0 0.0 0.0
0.0 0.0 0.0
0.0 0.0 0.0
0.0 0.0 0.0
0.0 0.0 0.0
0.0 0.0 0.0
0.0 0.0 0.0
0.0 0.0 0.0
0.0 0.0 0.0
0.0 0.0 0.0
0.0 0.0 0.0
0.0 0.0 0.0
0.0 0.0 0.0
0.0 0.0 0.0
0.0 0.0 0.0
0.0 0.0 0.0
0.0 0.0 0.0
0.0 0.0 0.0
0.0 0.0 0.0
0.0 0.0 0.0
0.0 0.0 0.0
0.0 0.0 0.0
0.0 0.0 0.0
0.0 0.0 0.0
0.0 0.0 0.0
0.0 0.0 0.0
0.0 0.0 0.0
0.0 0.0 0.0
0.0 0.0 0.0
0.0 0.0 0.0
0.0 0.0 0.0
0.0 0.0 0.0
0.0 0.0 0.0
0.0 0.0 0.0
VECTORS omega float
20.5463 -97.8943 19.1057
3.78291 -57.5009 29.8197
14.4056 -66.4293 -16.0845
-28.229 -62.8407 -4.5899
25.9754 -89.2114 -2.89858
3.37834 -84.297 2.8083
6.9657 -86.7025 -4.23888
4.59683 -87.1898 0.853796
12.2576 -67.803 -8.27197
-42.3757 -87.5846 26.1363
-2.37358 -60.5412 2.03002
5.39412 9.50169 -14.593
2.25149 -36.5385 15.9316
11.3461 -68.8248 15.7782
-35.4201 -73.7418 13.6196
-11.4351 -98.437 0.724045
0.0 -95.0197 0.0
-5.92215 -68.2802 -5.02794
0.0 -95.0149 0.0
0.792547 -28.3293 -9.95683
13.5529 -68.667 -3.56419
-57.6701 63.269 8.83672
-4.9358 -50.5723 2.52464
-13.4869 -52.1158 2.53848
1.3497 -66.1707 -8.57022
0.884504 -19.0694 12.9428
-0.461936 -89.7109 1.90981
12.1137 -55.8685 2.47688
-6.05198 -101.648 -8.36966
-1.82971 -43.6208 1.90422
-6.32543 -82.8245 8.03616
-8.75732 65.9831 -1.86834
-20.5721 -84.5138 -1.00173
-7.49474 -67.1082 -4.91992
17.2149 48.5577 5.92266
7.50631 -87.184 -1.17518
-6.81679 1.03471 -3.43007
-45.8001 19.3073 22.5233
-42.4215 8.356 1.55692
-11.5262 37.3853 -3.05584
7.62735 23.0071 -20.7396
76.6305 29.977 -4.2538
32.5811 92.411 17.4564
2.40164 -17.2506 4.2135
16.7406 -25.0517 0.700501
5.11574 -46.1421 -14.4888
-2.28114 61.5449 2.81882
-9.03958 3.93543 -2.54792
11.2939 51.0921 15.5937
-19.1147 -6.22123 26.5516
-32.4385 -19.2366 -14.7917
22.239 -78.6866 4.27378
2.2694 17.9278 -2.57827
26.465 -10.423 -45.2314
5.44778 59.281 -5.89792
39.5518 73.4397 31.8912
17.0508 -62.7073 7.75373
22.0984 -2.92727 -0.763138
16.6655 -4.12374 -7.08789
5.10849 8.3432 2.00356
11.4776 -14.6289 -2.14841
-11.1067 -45.5851 8.15236
0.0 0.0 0.0
0.0 0.0 0.0
0.0 0.0 0.0
9.56927 2.12467 -4.6633
-9.19163 -33.8691 1.4826
-8.01083 -46.8559 -9.02363
0.0 0.0 0.0
0.0 0.0 0.0
0.0 0.0 0.0
0.0 0.0 0.0
0.0 0.0 0.0
0.0 0.0 0.0
0.0 0.0 0.0
0.0 0.0 0.0
0.0 0.0 0.0
0.0 0.0 0.0
0.0 0.0 0.0
0.0 0.0 0.0
0.0 0.0 0.0
0.0 0.0 0.0
0.0 0.0 0.0
0.0 0.0 0.0
0.0 0.0 0.0
0.0 0.0 0.0
0.0 0.0 0.0
0.0 0.0 0.0
0.0 0.0 0.0
0.0 0.0 0.0
0.0 0.0 0.0
0.0 0.0 0.0
0.0 0.0 0.0
0.0 0.0 0.0
0.0 0.0 0.0
0.0 0.0 0.0
0.0 0.0 0.0
0.0 0.0 0.0
0.0 0.0 0.0
0.0 0.0 0.0
0.0 0.0 0.0
0.0 0.0 0.0
0.0 0.0 0.0
0.0 0.0 0.0
0.0 0.0 0.0
0.0 0.0 0.0
0.0 0.0 0.0
0.0 0.0 0.0
0.0 0.0 0.0
0.0 0.0 0.0
0.0 0.0 0.0
0.0 0.0 0.0
0.0 0.0 0.0
0.0 0.0 0.0
0.0 0.0 0.0
0.0 0.0 0.0
0.0 0.0 0.0
0.0 0.0 0.0
0.0 0.0 0.0
0.0 0.0 0.0
0.0 0.0 0.0
0.0 0.0 0.0
0.0 0.0 0.0
0.0 0.0 0.0
0.0 0.0 0.0
0.0 0.0 0.0
0.0 0.0 0.0
0.0 0.0 0.0
0.0 0.0 0.0
0.0 0.0 0.0
0.0 0.0 0.0
0.0 0.0 0.0
0.0 0.0 0.0
0.0 0.0 0.0
0.0 0.0 0.0
0.0 0.0 0.0
0.0 0.0 0.0
0.0 0.0 0.0
0.0 0.0 0.0
0.0 0.0 0.0
0.0 0.0 0.0
0.0 0.0 0.0
0.0 0.0 0.0
0.0 0.0 0.0
0.0 0.0 0.0
0.0 0.0 0.0
0.0 0.0 0.0
0.0 0.0 0.0
0.0 0.0 0.0
0.0 0.0 0.0
0.0 0.0 0.0
0.0 0.0 0.0
0.0 0.0 0.0
0.0 0.0 0.0
0.0 0.0 0.0
0.0 0.0 0.0
0.0 0.0 0.0
0.0 0.0 0.0
0.0 0.0 0.0
0.0 0.0 0.0
0.0 0.0 0.0
0.0 0.0 0.0
0.0 0.0 0.0
0.0 0.0 0.0
0.0 0.0 0.0
0.0 0.0 0.0
0.0 0.0 0.0
0.0 0.0 0.0
0.0 0.0 0.0
0.0 0.0 0.0
0.0 0.0 0.0
0.0 0.0 0.0
0.0 0.0 0.0
0.0 0.0 0.0
0.0 0.0 0.0
0.0 0.0 0.0
VECTORS v float
1.52274 -0.367647 0.386124
1.74929 0.0054759 -0.0505645
1.89821 -0.430609 0.356192
0.501671 -1.00231 -1.10925
1.25016 -0.865329 -0.194141
1.30913 -0.139063 -0.00745633
1.5977 -0.483714 -0.00195757
1.41243 -0.134363 0.00436563
1.71399 -0.234469 0.064027
1.60624 1.14715 0.646662
1.44005 -0.0109187 -0.0485952
1.60032 -0.0770214 -0.0580843
2.29552 -0.338293 0.07347
1.94072 -0.339483 0.0654378
1.30008 0.207862 0.0179708
1.44467 0.215606 0.447546
1.19607 0.0 0.836705
1.89586 0.197181 0.338537
1.19598 0.0 0.794451
1.17382 0.297188 -0.810475
1.53725 -0.28589 -0.0413913
1.73703 0.257554 -0.110599
2.48249 0.146789 0.0628944
0.713221 -0.269126 -0.158206
1.10848 0.344118 0.0240138
1.67091 0.322287 0.146907
1.98951 0.325374 -0.127245
0.410587 0.0595046 -0.300661
1.05153 0.21506 0.537855
2.70213 0.0541453 0.0131992
1.49511 0.186083 -0.00573154
1.42171 0.542946 0.267547
1.47603 0.614407 0.0257174
1.42801 0.583261 0.0126426
0.969134 -0.982052 0.317762
1.34063 -0.122853 -0.263579
-0.184122 -0.0786002 -0.712521
0.0757699 -0.0300421 -0.78478
-0.310439 -0.439996 -0.424837
0.864941 -0.389766 0.129507
0.0340607 0.441697 -1.66041
0.348582 0.178398 1.12755
1.78859 0.00730224 0.915406
1.45535 -0.531517 0.207683
0.665516 -0.311616 -0.0747622
1.39052 0.105394 0.759573
-0.254783 0.248284 -0.965934
-1.11324 0.0538098 -0.443859
0.762834 0.333161 0.25033
0.13325 0.553915 -0.478368
1.69168 0.257218 -0.554918
1.14574 -0.250847 -0.0305099
0.588002 0.304277 -1.08313
1.51188 -0.35408 -0.671343
0.659618 0.476537 0.800663
0.760601 -0.328327 0.972325
1.02382 -0.0203263 0.20712
0.810768 -0.166792 -0.846416
0.468789 -0.767684 -1.48776
1.16053 -1.47261 -0.671541
0.0547806 -0.330442 -0.77707
-0.270655 0.0803535 -1.26527
0.0 0.0 -2.92889
0.0 0.0 -2.9595
0.0 0.0 -2.93213
0.70876 0.125246 -1.54807
2.12519 -0.562156 0.407393
-0.517272 -0.15006 -1.74406
0.0 0.0 -2.78841
0.0 0.0 -2.80803
0.0 0.0 -2.79253
0.0 0.0 -2.81166
0.0 0.0 -2.7477
0.0 0.0 -2.65127
0.0 0.0 -2.72406
0.0 0.0 -2.53041
0.0 0.0 -2.54924
0.0 0.0 -2.36756
0.0 0.0 -2.39238
0.0 0.0 -2.45909
0.0 0.0 -2.23944
0.0 0.0 -2.18284
0.0 0.0 -2.27613
0.0 0.0 -2.22738
0.0 0.0 -2.211
0.0 0.0 -2.29281
0.0 0.0 -2.30046
0.0 0.0 -2.30272
0.0 0.0 -2.26681
0.0 0.0 -2.16705
0.0 0.0 -2.10397
0.0 0.0 -2.1439
0.0 0.0 -2.10721
0.0 0.0 -2.09965
0.0 0.0 -1.82791
0.0 0.0 -1.81163
0.0 0.0 -1.93082
0.0 0.0 -1.89815
0.0 0.0 -1.80928
0.0 0.0 -1.88697
0.0 0.0 -1.72099
0.0 0.0 -1.63633
0.0 0.0 -1.78681
0.0 0.0 -1.77975
0.0 0.0 -1.75454
0.0 0.0 -1.68312
0.0 0.0 -1.75718
0.0 0.0 -1.47838
0.0 0.0 -1.54578
0.0 0.0 -1.38146
0.0 0.0 -1.51301
0.0 0.0 -1.39225
0.0 0.0 -1.40295
0.0 0.0 -1.34242
0.0 0.0 -1.49997
0.0 0.0 -1.46975
0.0 0.0 -1.57001
0.0 0.0 -1.50595
0.0 0.0 -1.55559
0.0 0.0 -1.21342
0.0 0.0 -1.05018
0.0 0.0 -1.05832
0.0 0.0 -1.1111
0.0 0.0 -1.13906
0.0 0.0 -1.14347
0.0 0.0 -1.22823
0.0 0.0 -1.05616
0.0 0.0 -1.13317
0.0 0.0 -1.02163
0.0 0.0 -1.0493
-0 -0 -1.0
-0 -0 -1.0
-0 -0 -1.0
-0 -0 -1.0
-0 -0 -1.0
-0 -0 -1.0
-0 -0 -1.0
-0 -0 -1.0
-0 -0 -1.0
-0 -0 -1.0
-0 -0 -1.0
-0 -0 -1.0
-0 -0 -1.0
-0 -0 -1.0
-0 -0 -1.0
-0 -0 -1.0
-0 -0 -1.0
-0 -0 -1.0
-0 -0 -1.0
-0 -0 -1.0
-0 -0 -1.0
-0 -0 -1.0
-0 -0 -1.0
-0 -0 -1.0
-0 -0 -1.0
-0 -0 -1.0
-0 -0 -1.0
-0 -0 -1.0
-0 -0 -1.0
-0 -0 -1.0
-0 -0 -1.0
-0 -0 -1.0
-0 -0 -1.0
-0 -0 -1.0
-0 -0 -1.0
-0 -0 -1.0
-0 -0 -1.0
-0 -0 -1.0
-0 -0 -1.0
-0 -0 -1.0
-0 -0 -1.0
-0 -0 -1.0
-0 -0 -1.0
-0 -0 -1.0
-0 -0 -1.0
-0 -0 -1.0
SCALARS radius float 1
LOOKUP_TABLE default
0.03
0.03
0.03
0.03
0.03
0.03
0.03
0.03
0.03
0.03
0.03
0.03
0.03
0.03
0.03
0.03
0.03
0.03
0.03
0.03
0.03
0.03
0.03
0.03
0.03
0.03
0.03
0.03
0.03
0.03
0.03
0.03
0.03
0.03
0.03
0.03
0.03
0.03
0.03
0.03
0.03
0.03
0.03
0.03
0.03
0.03
0.03
0.03
0.03
0.03
0.03
0.03
0.03
0.03
0.03
0.03
0.03
0.03
0.03
0.03
0.03
0.03
0.03
0.03
0.03
0.03
0.03
0.03
0.03
0.03
0.03
0.03
0.03
0.03
0.03
0.03
0.03
0.03
0.03
0.03
0.03
0.03
0.03
0.03
0.03
0.03
0.03
0.03
0.03
0.03
0.03
0.03
0.03
0.03
0.03
0.03
0.03
0.03
0.03
0.03
0.03
0.03
0.03
0.03
0.03
0.03
0.03
0.03
0.03
0.03
0.03
0.03
0.03
0.03
0.03
0.03
0.03
0.03
0.03
0.03
0.03
0.03
0.03
0.03
0.03
0.03
0.03
0.03
0.03
0.03
0.03
0.03
0.03
0.03
0.03
0.03
0.03
0.03
0.03
0.03
0.03
0.03
0.03
0.03
0.03
0.03
0.03
0.03
0.03
0.03
0.03
0.03
0.03
0.03
0.03
0.03
0.03
0.03
0.03
0.03
0.03
0.03
0.03
0.03
0.03
0.03
0.03
0.03
0.03
0.03
0.03
0.03
0.03
0.03
0.03
0.03
SCALARS type float 1
LOOKUP_TABLE default
1.0
1.0
1.0
1.0
1.0
1.0
1.0
1.0
1.0
1.0
1.0
1.0
1.0
1.0
1.0
1.0
1.0
1.0
1.0
1.0
1.0
1.0
1.0
1.0
1.0
1.0
1.0
1.0
1.0
1.0
1.0
1.0
1.0
1.0
1.0
1.0
1.0
1.0
1.0
1.0
1.0
1.0
1.0
1.0
1.0
1.0
1.0
1.0
1.0
1.0
1.0
1.0
1.0
1.0
1.0
1.0
1.0
1.0
1.0
1.0
1.0
1.0
1.0
1.0
1.0
1.0
1.0
1.0
1.0
1.0
1.0
1.0
1.0
1.0
1.0
1.0
1.0
1.0
1.0
1.0
1.0
1.0
1.0
1.0
1.0
1.0
1.0
1.0
1.0
1.0
1.0
1.0
1.0
1.0
1.0
1.0
1.0
1.0
1.0
1.0
1.0
1.0
1.0
1.0
1.0
1.0
1.0
1.0
1.0
1.0
1.0
1.0
1.0
1.0
1.0
1.0
1.0
1.0
1.0
1.0
1.0
1.0
1.0
1.0
1.0
1.0
1.0
1.0
1.0
1.0
1.0
1.0
1.0
1.0
1.0
1.0
1.0
1.0
1.0
1.0
1.0
1.0
1.0
1.0
1.0
1.0
1.0
1.0
1.0
1.0
1.0
1.0
1.0
1.0
1.0
1.0
1.0
1.0
1.0
1.0
1.0
1.0
1.0
1.0
1.0
1.0
1.0
1.0
1.0
1.0
1.0
1.0
1.0
1.0
1.0
1.0
SCALARS id float 1
LOOKUP_TABLE default
108.0
137.0
94.0
128.0
123.0
49.0
105.0
79.0
129.0
99.0
29.0
104.0
145.0
92.0
149.0
76.0
71.0
112.0
80.0
41.0
144.0
24.0
138.0
61.0
166.0
21.0
16.0
51.0
98.0
18.0
85.0
53.0
66.0
167.0
171.0
100.0
15.0
146.0
81.0
1.0
5.0
72.0
47.0
45.0
133.0
82.0
12.0
17.0
97.0
174.0
151.0
42.0
127.0
19.0
91.0
131.0
152.0
2.0
32.0
73.0
116.0
55.0
31.0
93.0
44.0
4.0
130.0
107.0
148.0
57.0
118.0
164.0
125.0
64.0
83.0
26.0
68.0
60.0
70.0
23.0
46.0
10.0
157.0
173.0
176.0
28.0
77.0
75.0
67.0
110.0
140.0
102.0
155.0
136.0
135.0
156.0
63.0
30.0
163.0
52.0
22.0
120.0
35.0
25.0
165.0
101.0
143.0
86.0
40.0
13.0
8.0
58.0
78.0
109.0
113.0
33.0
134.0
162.0
159.0
139.0
69.0
117.0
43.0
121.0
153.0
87.0
115.0
37.0
119.0
168.0
158.0
27.0
38.0
147.0
90.0
170.0
150.0
114.0
7.0
14.0
62.0
48.0
3.0
50.0
54.0
95.0
103.0
65.0
11.0
111.0
161.0
141.0
169.0
59.0
74.0
56.0
6.0
39.0
96.0
154.0
132.0
126.0
89.0
124.0
106.0
36.0
142.0
175.0
122.0
20.0
172.0
34.0
9.0
88.0
84.0
160.0
SCALARS Temp float 1
LOOKUP_TABLE default
310.081
312.03
306.978
303.914
312.978
318.616
315.145
307.423
317.65
314.412
315.981
307.213
304.494
310.36
311.953
306.166
303.946
318.393
303.946
313.659
305.022
300.325
308.047
303.926
313.654
314.25
307.325
306.13
317.672
311.269
314.16
304.018
317.684
314.891
300.245
303.947
300.033
300.079
300.296
300.249
300.127
300.164
300.043
300.181
300.106
303.961
300.138
300.037
300.281
300.097
300.11
303.946
300.154
300.06
300.279
300.464
303.973
300.193
300.001
300.001
300.001
300.001
300.0
300.0
300.0
300.001
300.005
300.001
300.0
300.0
300.0
300.0
300.0
300.0
300.0
300.0
300.0
300.0
300.0
300.0
300.0
300.0
300.0
300.0
300.0
300.0
300.0
300.0
300.0
300.0
300.0
300.0
300.0
300.0
300.0
300.0
300.0
300.0
300.0
300.0
300.0
300.0
300.0
300.0
300.0
300.0
300.0
300.0
300.0
300.0
300.0
300.0
300.0
300.0
300.0
300.0
300.0
300.0
300.0
300.0
300.0
300.0
300.0
300.0
300.0
300.0
300.0
300.0
300.0
300.0
300.0
300.0
300.0
300.0
300.0
300.0
300.0
300.0
300.0
300.0
300.0
300.0
300.0
300.0
300.0
300.0
300.0
300.0
300.0
300.0
300.0
300.0
300.0
300.0
300.0
300.0
300.0
300.0
300.0
300.0
300.0
300.0
300.0
300.0
300.0
300.0
300.0
300.0
300.0
300.0
300.0
300.0
300.0
300.0
300.0
300.0

