# vtk DataFile Version 2.0
Generated by lpp.py
ASCII
DATASET POLYDATA
POINTS 527 float
2.67045 0.425327 1.3791
2.7408 0.535849 1.4085
2.60943 0.383674 1.41598
2.56686 0.463214 1.42644
2.62366 0.531751 1.41132
2.47364 0.164406 1.47651
2.41913 0.214786 1.4681
2.46858 0.536227 1.461
2.35863 0.212612 1.49305
2.38596 0.272222 1.48637
2.23689 0.184707 1.5457
2.21305 0.268058 1.55201
2.28644 0.324429 1.53451
2.19902 0.375856 1.55114
2.2582 0.384492 1.54494
2.22064 0.43377 1.55454
2.2871 0.446664 1.52806
2.19388 0.544261 1.55403
0.212616 0.174519 1.58822
0.27212 0.176538 1.58721
0.360053 0.182603 1.58091
0.537423 0.188224 1.57699
0.602404 0.17974 1.58284
0.727737 0.174199 1.58874
0.849647 0.168559 1.5945
1.265 0.185983 1.57699
1.54389 0.189761 1.57686
1.89347 0.187433 1.57686
0.687386 0.216706 1.57689
0.809284 0.221565 1.57686
0.892177 0.207848 1.577
0.976574 0.208936 1.57687
1.03597 0.218672 1.58202
1.22325 0.2288 1.57669
1.32487 0.200072 1.57686
1.40727 0.207713 1.58413
1.48331 0.207319 1.5767
1.63453 0.222026 1.57661
1.77705 0.214545 1.57686
1.99198 0.207791 1.57686
0.225353 0.244421 1.57961
0.294798 0.231348 1.5787
0.364144 0.252095 1.5751
0.424005 0.233787 1.57498
0.479065 0.253028 1.5821
0.55843 0.244182 1.58176
0.925001 0.258983 1.57696
1.1603 0.236986 1.57685
1.3531 0.254212 1.57685
1.49904 0.261979 1.595
1.57565 0.241397 1.57687
1.70252 0.233024 1.57686
1.91629 0.247481 1.57686
0.126891 0.279636 1.58008
0.282675 0.290449 1.57776
0.638029 0.281265 1.57595
0.865573 0.268901 1.57688
0.994003 0.279389 1.58878
1.05715 0.283169 1.57686
1.20116 0.284621 1.57693
1.26103 0.276522 1.57736
1.31525 0.303483 1.57672
1.4092 0.277762 1.5781
1.54517 0.29566 1.57688
1.61381 0.297723 1.57686
1.71726 0.298988 1.57686
1.79893 0.297453 1.57686
1.86401 0.29179 1.57686
2.00426 0.280206 1.57687
2.1476 0.275788 1.56578
0.0442902 0.31793 1.58256
0.407728 0.303135 1.57441
0.554358 0.317105 1.57691
0.742856 0.316686 1.57685
0.820678 0.314912 1.57695
1.11922 0.312871 1.57686
1.91339 0.332121 1.57675
2.08275 0.321296 1.57388
0.189617 0.344959 1.574
0.362954 0.348421 1.57915
0.634263 0.358644 1.57636
0.927055 0.372261 1.58088
1.0029 0.350906 1.57693
1.26352 0.349646 1.57686
1.32267 0.363953 1.57686
1.48745 0.356498 1.57654
1.5948 0.35549 1.57675
1.65684 0.340557 1.5769
1.72011 0.364438 1.57821
1.83488 0.35039 1.57862
1.96405 0.363525 1.57713
2.14258 0.351226 1.56311
0.02393 0.385571 1.57848
0.097564 0.403668 1.57749
0.422662 0.383159 1.57987
0.499664 0.404227 1.57806
0.689458 0.380448 1.5807
0.748083 0.391955 1.57655
0.806308 0.375905 1.57688
0.987789 0.410148 1.57758
1.11137 0.395866 1.57835
1.41234 0.392579 1.57689
1.54184 0.388036 1.57685
1.63776 0.397053 1.57806
2.01268 0.39273 1.59575
2.06922 0.394774 1.57591
0.163769 0.420467 1.57585
0.283025 0.413484 1.57806
0.569956 0.446043 1.58569
0.679344 0.441142 1.57694
0.899308 0.432984 1.57493
1.06738 0.436341 1.57663
1.26629 0.416987 1.57686
1.34247 0.437311 1.57686
1.70521 0.422574 1.57679
1.81457 0.415136 1.57652
1.87301 0.427651 1.57703
1.97083 0.436414 1.57686
2.03526 0.446001 1.57625
2.10299 0.44507 1.57156
0.0326823 0.463149 1.5756
0.0910996 0.470565 1.58152
0.243194 0.472975 1.57636
0.344223 0.457976 1.57693
0.461569 0.472819 1.57827
0.811434 0.462895 1.57687
1.1523 0.447746 1.57684
1.24327 0.474968 1.57686
1.43422 0.448521 1.58033
1.4955 0.453987 1.57687
1.55509 0.446526 1.5783
1.65233 0.455003 1.57731
1.74864 0.47106 1.57686
1.80874 0.481936 1.57689
2.1592 0.467727 1.56366
0.400864 0.50547 1.57871
0.580719 0.50398 1.57618
0.741149 0.48721 1.57648
0.96493 0.482404 1.57704
1.0389 0.51878 1.57685
1.10004 0.499403 1.57703
1.38723 0.486199 1.57694
1.44704 0.506454 1.57899
1.52497 0.506493 1.57688
1.6335 0.509193 1.59424
1.69453 0.497438 1.57686
1.92438 0.486045 1.57686
1.99822 0.510953 1.5769
2.05879 0.508087 1.57766
2.2337 0.493863 1.57082
0.13775 0.54557 1.57596
0.196137 0.544545 1.58662
0.266125 0.55231 1.57773
0.438529 0.554173 1.57852
0.490776 0.525001 1.57809
0.766143 0.54064 1.58171
0.822618 0.522006 1.57649
1.17179 0.549724 1.57677
1.308 0.518989 1.57687
1.58124 0.532369 1.57691
1.73707 0.539557 1.57685
1.83962 0.533762 1.57685
2.10634 0.544278 1.58367
0.31403 0.585948 1.59567
0.370906 0.57065 1.58016
0.542675 0.556302 1.58033
0.6 0.557153 1.59454
0.6765 0.585735 1.59491
0.816338 0.579162 1.58832
0.873868 0.5636 1.57687
0.99364 0.563855 1.576
1.04961 0.5854 1.59459
1.11433 0.56833 1.57752
1.26323 0.562711 1.57686
1.36043 0.549307 1.57685
1.41942 0.558914 1.57661
1.48151 0.557828 1.5768
1.53925 0.574362 1.58332
1.66891 0.554278 1.57686
1.78606 0.573509 1.58269
1.90676 0.564079 1.57686
2.03621 0.565404 1.57632
1.3193 0.588263 1.59763
0.214461 0.129957 1.63302
0.377285 0.140835 1.62184
0.521254 0.138881 1.62284
0.649363 0.154261 1.61255
1.01841 0.15919 1.60375
1.19478 0.150219 1.61272
1.27911 0.145873 1.61917
1.38048 0.152422 1.61051
0.416852 0.192419 1.61734
1.34887 0.210451 1.63142
0.223992 0.242611 1.64355
0.605336 0.249224 1.6199
0.728358 0.256543 1.62246
0.944416 0.231214 1.62844
0.130862 0.299181 1.64132
0.187672 0.298754 1.61712
0.358842 0.286587 1.6205
0.424141 0.269975 1.62085
0.54517 0.280471 1.62607
0.663915 0.304543 1.62359
0.877883 0.274685 1.63514
0.304288 0.32931 1.61833
0.458958 0.316704 1.59643
1.28807 0.313902 1.62887
1.4726 0.313353 1.61505
0.115118 0.348194 1.59723
0.236214 0.344686 1.60533
0.478498 0.36417 1.62396
0.859529 0.368353 1.60341
0.172409 0.384791 1.62242
0.279705 0.381966 1.63167
0.360193 0.403072 1.60054
1.06266 0.373932 1.60688
1.46966 0.40655 1.60342
0.230712 0.425632 1.61198
0.780626 0.422756 1.6155
1.19372 0.416065 1.61288
1.78118 0.422239 1.62542
1.91592 0.425364 1.61874
0.286461 0.450165 1.62316
0.383439 0.461341 1.62374
0.442316 0.452329 1.63072
0.5108 0.475432 1.61314
0.621488 0.450117 1.6219
0.994097 0.45067 1.62244
1.6697 0.462683 1.6353
1.85014 0.473084 1.61926
0.291585 0.508543 1.6119
0.784363 0.498305 1.61974
1.15733 0.497591 1.61177
0.352798 0.524158 1.61551
0.933313 0.519219 1.61563
1.4078 0.526443 1.62545
0.462683 0.576898 1.62955
0.389582 0.616081 1.62403
0.521767 0.606205 1.61538
0.760931 0.595337 1.604
0.855223 0.606164 1.62737
0.9169 0.606116 1.61529
1.17916 0.603827 1.6166
1.38621 0.598133 1.60702
1.44537 0.602024 1.6114
1.59114 0.60421 1.61338
0.804569 0.120707 1.64224
1.8093 0.121621 1.64132
0.278266 0.150819 1.64203
0.460853 0.151967 1.63882
0.576087 0.128306 1.64221
0.967613 0.128008 1.63442
0.164255 0.177063 1.66514
0.509947 0.19087 1.64947
0.583817 0.191498 1.63851
0.320408 0.214225 1.62842
0.760952 0.206639 1.63145
0.442428 0.238291 1.66838
0.469293 0.295983 1.64988
0.600893 0.288517 1.66672
0.928965 0.296862 1.65647
0.255458 0.331446 1.65751
0.415912 0.328351 1.64792
0.863614 0.328561 1.65841
0.363909 0.357021 1.63746
0.578032 0.341098 1.64324
0.635522 0.355452 1.63573
0.103034 0.387223 1.65285
0.563766 0.402484 1.66282
0.683021 0.393605 1.65401
0.379244 0.411909 1.65835
1.7038 0.412169 1.63728
0.113963 0.449912 1.63287
0.172753 0.499523 1.63195
0.305614 0.549857 1.65113
0.408897 0.526299 1.63914
0.835254 0.524211 1.63812
0.62335 0.586208 1.64237
0.769079 0.558642 1.65883
0.977599 0.557857 1.63264
0.960563 0.613659 1.65764
0.585591 0.636347 1.6455
1.01515 0.631943 1.64146
0.260425 0.0807296 1.68757
0.394395 0.141495 1.67905
0.192841 0.263119 1.69283
0.379412 0.251392 1.66396
0.755284 0.281561 1.67202
0.340671 0.313234 1.66721
0.523794 0.31502 1.67647
0.410667 0.375568 1.68928
0.214967 0.433138 1.67833
0.299211 0.424903 1.67818
0.483405 0.415054 1.66166
0.760004 0.424175 1.67139
0.665829 0.447797 1.68282
0.484316 0.501412 1.6568
0.698614 0.505263 1.68795
0.562428 0.557589 1.68136
0.414689 0.609761 1.67706
0.45002 0.66746 1.67556
0.596613 0.68976 1.69893
0.320379 0.293388 1.71662
0.441639 0.294945 1.70215
0.344859 0.354106 1.70854
0.465841 0.379363 1.70834
0.54559 0.384204 1.71649
0.466494 0.452493 1.70324
0.236464 0.494005 1.69498
0.430217 0.500721 1.70231
0.346317 0.528188 1.68831
0.271806 0.260491 1.71856
0.282424 0.374546 1.73928
0.217136 0.423243 1.7487
0.104255 0.515661 1.72272
0.125428 0.344451 1.75458
0.189012 0.364304 1.77667
0.415188 0.353574 1.76654
0.115455 0.44409 1.78027
0.323589 0.424937 1.76153
0.103324 0.228818 1.7907
0.161403 0.258279 1.78961
0.363615 0.240431 1.80353
0.425069 0.242959 1.80624
0.499192 0.246026 1.80035
0.40415 0.414672 1.80483
0.158807 0.499296 1.81932
0.370433 0.49856 1.79744
0.264146 0.523422 1.81295
0.31493 0.348737 1.84932
0.257372 0.298287 1.87204
0.484684 0.362834 1.86539
0.125062 0.39201 1.87521
0.217234 0.387064 1.89513
0.417911 0.469013 1.89769
0.220666 0.238837 1.89852
0.393674 0.233628 1.92521
0.17717 0.298235 1.9213
0.314466 0.284399 1.90903
0.492483 0.279077 1.91225
0.417494 0.317622 1.90659
0.107591 0.339963 1.92952
0.449749 0.403068 1.92063
0.139724 0.459766 1.9258
0.263093 0.452487 1.90773
0.486571 0.452792 1.91445
0.220758 0.508511 1.9202
0.312076 0.491969 1.9183
0.490194 0.521396 1.92484
0.385775 0.387923 1.93476
0.345938 0.437655 1.94611
0.293957 0.252051 1.99959
0.480794 0.235256 2.00868
0.313064 0.354671 1.97672
0.494465 0.353653 1.97454
0.177639 0.41728 1.97924
0.25883 0.414412 2.0042
0.188867 0.511362 2.00639
0.352584 0.510062 1.99523
0.286065 0.525163 1.9922
0.420914 0.522237 1.97679
0.130146 0.239366 2.01306
0.215119 0.259008 2.02166
0.112395 0.298661 2.01001
0.396036 0.28089 2.01735
0.461831 0.299793 2.01947
0.260232 0.32538 2.0294
0.184207 0.342437 2.03451
0.469219 0.429721 2.02378
0.312883 0.472231 2.03265
0.425503 0.471227 2.02402
0.107222 0.481912 2.04355
0.481601 0.499619 2.0127
0.405689 0.228633 2.06064
0.167912 0.238386 2.07466
0.317332 0.30781 2.06804
0.134053 0.366007 2.05991
0.489016 0.368217 2.06079
0.413738 0.375309 2.05012
0.153204 0.432626 2.05854
0.222179 0.424446 2.07719
0.239416 0.495022 2.07556
0.498927 0.504545 2.07488
0.32799 0.229202 2.08355
0.109866 0.233818 2.09844
0.231382 0.240563 2.08299
0.498812 0.248514 2.10893
0.113197 0.294489 2.08951
0.194033 0.278126 2.11518
0.469257 0.29946 2.09185
0.194635 0.336418 2.09946
0.405808 0.316699 2.09707
0.306002 0.430402 2.0874
0.379233 0.434328 2.09583
0.487806 0.414883 2.11581
0.150905 0.499656 2.11471
0.297107 0.507647 2.09842
0.360463 0.523492 2.08545
0.325604 0.248234 2.14541
0.391248 0.260634 2.12374
0.265839 0.285868 2.1168
0.240166 0.328846 2.15071
0.354308 0.337534 2.13063
0.291855 0.372275 2.12768
0.489514 0.352564 2.12129
0.142017 0.392074 2.13392
0.112907 0.457318 2.14655
0.188866 0.448878 2.12084
0.452328 0.508491 2.11873
0.228203 0.227346 2.16755
0.121163 0.235465 2.15938
0.464139 0.288262 2.1535
0.109346 0.315959 2.17037
0.198909 0.373142 2.18127
0.435393 0.34359 2.18127
0.263606 0.399014 2.1751
0.442633 0.401674 2.15786
0.224919 0.462043 2.18083
0.306813 0.454906 2.15191
0.480028 0.469573 2.18511
0.370146 0.482381 2.18259
0.232349 0.51961 2.1555
0.325501 0.521381 2.15998
0.477175 0.232241 2.20463
0.182449 0.265752 2.18745
0.371199 0.250575 2.18872
0.310551 0.275965 2.20166
0.202651 0.326782 2.21942
0.287412 0.337623 2.19316
0.368802 0.320326 2.19015
0.151029 0.419157 2.19396
0.333275 0.414894 2.20173
0.470694 0.421347 2.22073
0.143314 0.508824 2.19199
0.158331 0.259584 2.24919
0.379968 0.260616 2.2478
0.419779 0.314987 2.23386
0.478207 0.314376 2.25397
0.102309 0.339997 2.23882
0.261557 0.393625 2.24365
0.384965 0.379016 2.225
0.178059 0.478415 2.24491
0.487334 0.474096 2.24584
0.297583 0.511466 2.23592
0.419317 0.494483 2.2471
0.287182 0.241461 2.27538
0.437539 0.252688 2.27571
0.313165 0.295281 2.28233
0.146413 0.330961 2.27865
0.23496 0.304512 2.27559
0.189373 0.382597 2.26159
0.496133 0.384099 2.26079
0.108153 0.438732 2.25855
0.318306 0.424417 2.26625
0.41429 0.434596 2.25731
0.353581 0.483281 2.26649
0.226804 0.518091 2.25666
0.345706 0.244188 2.30848
0.119434 0.281797 2.30643
0.183368 0.299923 2.31745
0.413519 0.31622 2.30723
0.361163 0.357044 2.29824
0.114178 0.389821 2.31746
0.444299 0.395894 2.2932
0.167616 0.430974 2.29451
0.393917 0.429411 2.31729
0.489664 0.438439 2.30411
0.250241 0.450955 2.29964
0.105798 0.50424 2.30445
0.187915 0.515186 2.32538
0.32526 0.484758 2.32005
0.4524 0.512277 2.31886
0.281519 0.521738 2.29447
0.1932 0.229789 2.35297
0.422137 0.237787 2.34647
0.372856 0.301203 2.35603
0.4644 0.282902 2.33546
0.15454 0.359333 2.3512
0.20118 0.391877 2.32642
0.261164 0.39533 2.33092
0.330347 0.403499 2.35088
0.485995 0.385829 2.35292
0.337046 0.231264 2.36864
0.10177 0.254991 2.38716
0.497694 0.256246 2.38034
0.248456 0.285804 2.38542
0.306584 0.303573 2.36311
0.488964 0.318078 2.38029
0.244928 0.34739 2.39499
0.387775 0.408365 2.38781
0.244813 0.43345 2.38185
0.145536 0.471864 2.36705
0.322092 0.457941 2.39624
0.398538 0.477915 2.36576
0.493497 0.449079 2.37063
0.239296 0.494007 2.393
0.308508 0.519363 2.38446
0.389977 0.239061 2.41499
0.465941 0.232795 2.42673
0.150783 0.312529 2.41024
0.430203 0.322942 2.40658
0.359187 0.345598 2.40339
0.206866 0.39261 2.40625
0.114653 0.416417 2.41766
0.100279 0.478463 2.4125
0.195028 0.474388 2.43054
0.496548 0.513622 2.40741
0.119764 0.23589 2.44451
0.200715 0.243234 2.43381
0.271532 0.23235 2.4328
0.340901 0.251487 2.45902
0.252209 0.30257 2.46485
0.399979 0.29937 2.45706
0.334843 0.328269 2.46319
0.493176 0.31314 2.46199
0.145549 0.370736 2.45487
0.203386 0.34301 2.45212
0.402076 0.364491 2.46095
0.253008 0.38524 2.44529
0.32123 0.387645 2.43716
0.462123 0.378122 2.43228
0.388515 0.434845 2.45435
0.489023 0.459055 2.44218
0.1312 0.50645 2.46577
0.277161 0.482116 2.46173
0.348799 0.506378 2.45849
0.434645 0.505695 2.44274
VERTICES 527 1054
1 0
1 1
1 2
1 3
1 4
1 5
1 6
1 7
1 8
1 9
1 10
1 11
1 12
1 13
1 14
1 15
1 16
1 17
1 18
1 19
1 20
1 21
1 22
1 23
1 24
1 25
1 26
1 27
1 28
1 29
1 30
1 31
1 32
1 33
1 34
1 35
1 36
1 37
1 38
1 39
1 40
1 41
1 42
1 43
1 44
1 45
1 46
1 47
1 48
1 49
1 50
1 51
1 52
1 53
1 54
1 55
1 56
1 57
1 58
1 59
1 60
1 61
1 62
1 63
1 64
1 65
1 66
1 67
1 68
1 69
1 70
1 71
1 72
1 73
1 74
1 75
1 76
1 77
1 78
1 79
1 80
1 81
1 82
1 83
1 84
1 85
1 86
1 87
1 88
1 89
1 90
1 91
1 92
1 93
1 94
1 95
1 96
1 97
1 98
1 99
1 100
1 101
1 102
1 103
1 104
1 105
1 106
1 107
1 108
1 109
1 110
1 111
1 112
1 113
1 114
1 115
1 116
1 117
1 118
1 119
1 120
1 121
1 122
1 123
1 124
1 125
1 126
1 127
1 128
1 129
1 130
1 131
1 132
1 133
1 134
1 135
1 136
1 137
1 138
1 139
1 140
1 141
1 142
1 143
1 144
1 145
1 146
1 147
1 148
1 149
1 150
1 151
1 152
1 153
1 154
1 155
1 156
1 157
1 158
1 159
1 160
1 161
1 162
1 163
1 164
1 165
1 166
1 167
1 168
1 169
1 170
1 171
1 172
1 173
1 174
1 175
1 176
1 177
1 178
1 179
1 180
1 181
1 182
1 183
1 184
1 185
1 186
1 187
1 188
1 189
1 190
1 191
1 192
1 193
1 194
1 195
1 196
1 197
1 198
1 199
1 200
1 201
1 202
1 203
1 204
1 205
1 206
1 207
1 208
1 209
1 210
1 211
1 212
1 213
1 214
1 215
1 216
1 217
1 218
1 219
1 220
1 221
1 222
1 223
1 224
1 225
1 226
1 227
1 228
1 229
1 230
1 231
1 232
1 233
1 234
1 235
1 236
1 237
1 238
1 239
1 240
1 241
1 242
1 243
1 244
1 245
1 246
1 247
1 248
1 249
1 250
1 251
1 252
1 253
1 254
1 255
1 256
1 257
1 258
1 259
1 260
1 261
1 262
1 263
1 264
1 265
1 266
1 267
1 268
1 269
1 270
1 271
1 272
1 273
1 274
1 275
1 276
1 277
1 278
1 279
1 280
1 281
1 282
1 283
1 284
1 285
1 286
1 287
1 288
1 289
1 290
1 291
1 292
1 293
1 294
1 295
1 296
1 297
1 298
1 299
1 300
1 301
1 302
1 303
1 304
1 305
1 306
1 307
1 308
1 309
1 310
1 311
1 312
1 313
1 314
1 315
1 316
1 317
1 318
1 319
1 320
1 321
1 322
1 323
1 324
1 325
1 326
1 327
1 328
1 329
1 330
1 331
1 332
1 333
1 334
1 335
1 336
1 337
1 338
1 339
1 340
1 341
1 342
1 343
1 344
1 345
1 346
1 347
1 348
1 349
1 350
1 351
1 352
1 353
1 354
1 355
1 356
1 357
1 358
1 359
1 360
1 361
1 362
1 363
1 364
1 365
1 366
1 367
1 368
1 369
1 370
1 371
1 372
1 373
1 374
1 375
1 376
1 377
1 378
1 379
1 380
1 381
1 382
1 383
1 384
1 385
1 386
1 387
1 388
1 389
1 390
1 391
1 392
1 393
1 394
1 395
1 396
1 397
1 398
1 399
1 400
1 401
1 402
1 403
1 404
1 405
1 406
1 407
1 408
1 409
1 410
1 411
1 412
1 413
1 414
1 415
1 416
1 417
1 418
1 419
1 420
1 421
1 422
1 423
1 424
1 425
1 426
1 427
1 428
1 429
1 430
1 431
1 432
1 433
1 434
1 435
1 436
1 437
1 438
1 439
1 440
1 441
1 442
1 443
1 444
1 445
1 446
1 447
1 448
1 449
1 450
1 451
1 452
1 453
1 454
1 455
1 456
1 457
1 458
1 459
1 460
1 461
1 462
1 463
1 464
1 465
1 466
1 467
1 468
1 469
1 470
1 471
1 472
1 473
1 474
1 475
1 476
1 477
1 478
1 479
1 480
1 481
1 482
1 483
1 484
1 485
1 486
1 487
1 488
1 489
1 490
1 491
1 492
1 493
1 494
1 495
1 496
1 497
1 498
1 499
1 500
1 501
1 502
1 503
1 504
1 505
1 506
1 507
1 508
1 509
1 510
1 511
1 512
1 513
1 514
1 515
1 516
1 517
1 518
1 519
1 520
1 521
1 522
1 523
1 524
1 525
1 526
POINT_DATA 527
VECTORS i float
0.0 0.0 0.0
0.0 0.0 0.0
0.0 0.0 0.0
0.0 0.0 0.0
0.0 0.0 0.0
0.0 0.0 0.0
0.0 0.0 0.0
0.0 0.0 0.0
0.0 0.0 0.0
0.0 0.0 0.0
0.0 0.0 0.0
0.0 0.0 0.0
0.0 0.0 0.0
0.0 0.0 0.0
0.0 0.0 0.0
0.0 0.0 0.0
0.0 0.0 0.0
0.0 0.0 0.0
0.0 0.0 0.0
0.0 0.0 0.0
0.0 0.0 0.0
0.0 0.0 0.0
0.0 0.0 0.0
0.0 0.0 0.0
0.0 0.0 0.0
0.0 0.0 0.0
0.0 0.0 0.0
0.0 0.0 0.0
0.0 0.0 0.0
0.0 0.0 0.0
0.0 0.0 0.0
0.0 0.0 0.0
0.0 0.0 0.0
0.0 0.0 0.0
0.0 0.0 0.0
0.0 0.0 0.0
0.0 0.0 0.0
0.0 0.0 0.0
0.0 0.0 0.0
0.0 0.0 0.0
0.0 0.0 0.0
0.0 0.0 0.0
0.0 0.0 0.0
0.0 0.0 0.0
0.0 0.0 0.0
0.0 0.0 0.0
0.0 0.0 0.0
0.0 0.0 0.0
0.0 0.0 0.0
0.0 0.0 0.0
0.0 0.0 0.0
0.0 0.0 0.0
0.0 0.0 0.0
0.0 0.0 0.0
0.0 0.0 0.0
0.0 0.0 0.0
0.0 0.0 0.0
0.0 0.0 0.0
0.0 0.0 0.0
0.0 0.0 0.0
0.0 0.0 0.0
0.0 0.0 0.0
0.0 0.0 0.0
0.0 0.0 0.0
0.0 0.0 0.0
0.0 0.0 0.0
0.0 0.0 0.0
0.0 0.0 0.0
0.0 0.0 0.0
0.0 0.0 0.0
0.0 0.0 0.0
0.0 0.0 0.0
0.0 0.0 0.0
0.0 0.0 0.0
0.0 0.0 0.0
0.0 0.0 0.0
0.0 0.0 0.0
0.0 0.0 0.0
0.0 0.0 0.0
0.0 0.0 0.0
0.0 0.0 0.0
0.0 0.0 0.0
0.0 0.0 0.0
0.0 0.0 0.0
0.0 0.0 0.0
0.0 0.0 0.0
0.0 0.0 0.0
0.0 0.0 0.0
0.0 0.0 0.0
0.0 0.0 0.0
0.0 0.0 0.0
0.0 0.0 0.0
0.0 0.0 0.0
0.0 0.0 0.0
0.0 0.0 0.0
0.0 0.0 0.0
0.0 0.0 0.0
0.0 0.0 0.0
0.0 0.0 0.0
0.0 0.0 0.0
0.0 0.0 0.0
0.0 0.0 0.0
0.0 0.0 0.0
0.0 0.0 0.0
0.0 0.0 0.0
0.0 0.0 0.0
0.0 0.0 0.0
0.0 0.0 0.0
0.0 0.0 0.0
0.0 0.0 0.0
0.0 0.0 0.0
0.0 0.0 0.0
0.0 0.0 0.0
0.0 0.0 0.0
0.0 0.0 0.0
0.0 0.0 0.0
0.0 0.0 0.0
0.0 0.0 0.0
0.0 0.0 0.0
0.0 0.0 0.0
0.0 0.0 0.0
0.0 0.0 0.0
0.0 0.0 0.0
0.0 0.0 0.0
0.0 0.0 0.0
0.0 0.0 0.0
0.0 0.0 0.0
0.0 0.0 0.0
0.0 0.0 0.0
0.0 0.0 0.0
0.0 0.0 0.0
0.0 0.0 0.0
0.0 0.0 0.0
0.0 0.0 0.0
0.0 0.0 0.0
0.0 0.0 0.0
0.0 0.0 0.0
0.0 0.0 0.0
0.0 0.0 0.0
0.0 0.0 0.0
0.0 0.0 0.0
0.0 0.0 0.0
0.0 0.0 0.0
0.0 0.0 0.0
0.0 0.0 0.0
0.0 0.0 0.0
0.0 0.0 0.0
0.0 0.0 0.0
0.0 0.0 0.0
0.0 0.0 0.0
0.0 0.0 0.0
0.0 0.0 0.0
0.0 0.0 0.0
0.0 0.0 0.0
0.0 0.0 0.0
0.0 0.0 0.0
0.0 0.0 0.0
0.0 0.0 0.0
0.0 0.0 0.0
0.0 0.0 0.0
0.0 0.0 0.0
0.0 0.0 0.0
0.0 0.0 0.0
0.0 0.0 0.0
0.0 0.0 0.0
0.0 0.0 0.0
0.0 0.0 0.0
0.0 0.0 0.0
0.0 0.0 0.0
0.0 0.0 0.0
0.0 0.0 0.0
0.0 0.0 0.0
0.0 0.0 0.0
0.0 0.0 0.0
0.0 0.0 0.0
0.0 0.0 0.0
0.0 0.0 0.0
0.0 0.0 0.0
0.0 0.0 0.0
0.0 0.0 0.0
0.0 0.0 0.0
0.0 0.0 0.0
0.0 0.0 0.0
0.0 0.0 0.0
0.0 0.0 0.0
0.0 0.0 0.0
0.0 0.0 0.0
0.0 0.0 0.0
0.0 0.0 0.0
0.0 0.0 0.0
0.0 0.0 0.0
0.0 0.0 0.0
0.0 0.0 0.0
0.0 0.0 0.0
0.0 0.0 0.0
0.0 0.0 0.0
0.0 0.0 0.0
0.0 0.0 0.0
0.0 0.0 0.0
0.0 0.0 0.0
0.0 0.0 0.0
0.0 0.0 0.0
0.0 0.0 0.0
0.0 0.0 0.0
0.0 0.0 0.0
0.0 0.0 0.0
0.0 0.0 0.0
0.0 0.0 0.0
0.0 0.0 0.0
0.0 0.0 0.0
0.0 0.0 0.0
0.0 0.0 0.0
0.0 0.0 0.0
0.0 0.0 0.0
0.0 0.0 0.0
0.0 0.0 0.0
0.0 0.0 0.0
0.0 0.0 0.0
0.0 0.0 0.0
0.0 0.0 0.0
0.0 0.0 0.0
0.0 0.0 0.0
0.0 0.0 0.0
0.0 0.0 0.0
0.0 0.0 0.0
0.0 0.0 0.0
0.0 0.0 0.0
0.0 0.0 0.0
0.0 0.0 0.0
0.0 0.0 0.0
0.0 0.0 0.0
0.0 0.0 0.0
0.0 0.0 0.0
0.0 0.0 0.0
0.0 0.0 0.0
0.0 0.0 0.0
0.0 0.0 0.0
0.0 0.0 0.0
0.0 0.0 0.0
0.0 0.0 0.0
0.0 0.0 0.0
0.0 0.0 0.0
0.0 0.0 0.0
0.0 0.0 0.0
0.0 0.0 0.0
0.0 0.0 0.0
0.0 0.0 0.0
0.0 0.0 0.0
0.0 0.0 0.0
0.0 0.0 0.0
0.0 0.0 0.0
0.0 0.0 0.0
0.0 0.0 0.0
0.0 0.0 0.0
0.0 0.0 0.0
0.0 0.0 0.0
0.0 0.0 0.0
0.0 0.0 0.0
0.0 0.0 0.0
0.0 0.0 0.0
0.0 0.0 0.0
0.0 0.0 0.0
0.0 0.0 0.0
0.0 0.0 0.0
0.0 0.0 0.0
0.0 0.0 0.0
0.0 0.0 0.0
0.0 0.0 0.0
0.0 0.0 0.0
0.0 0.0 0.0
0.0 0.0 0.0
0.0 0.0 0.0
0.0 0.0 0.0
0.0 0.0 0.0
0.0 0.0 0.0
0.0 0.0 0.0
0.0 0.0 0.0
0.0 0.0 0.0
0.0 0.0 0.0
0.0 0.0 0.0
0.0 0.0 0.0
0.0 0.0 0.0
0.0 0.0 0.0
0.0 0.0 0.0
0.0 0.0 0.0
0.0 0.0 0.0
0.0 0.0 0.0
0.0 0.0 0.0
0.0 0.0 0.0
0.0 0.0 0.0
0.0 0.0 0.0
0.0 0.0 0.0
0.0 0.0 0.0
0.0 0.0 0.0
0.0 0.0 0.0
0.0 0.0 0.0
0.0 0.0 0.0
0.0 0.0 0.0
0.0 0.0 0.0
0.0 0.0 0.0
0.0 0.0 0.0
0.0 0.0 0.0
0.0 0.0 0.0
0.0 0.0 0.0
0.0 0.0 0.0
0.0 0.0 0.0
0.0 0.0 0.0
0.0 0.0 0.0
0.0 0.0 0.0
0.0 0.0 0.0
0.0 0.0 0.0
0.0 0.0 0.0
0.0 0.0 0.0
0.0 0.0 0.0
0.0 0.0 0.0
0.0 0.0 0.0
0.0 0.0 0.0
0.0 0.0 0.0
0.0 0.0 0.0
0.0 0.0 0.0
0.0 0.0 0.0
0.0 0.0 0.0
0.0 0.0 0.0
0.0 0.0 0.0
0.0 0.0 0.0
0.0 0.0 0.0
0.0 0.0 0.0
0.0 0.0 0.0
0.0 0.0 0.0
0.0 0.0 0.0
0.0 0.0 0.0
0.0 0.0 0.0
0.0 0.0 0.0
0.0 0.0 0.0
0.0 0.0 0.0
0.0 0.0 0.0
0.0 0.0 0.0
0.0 0.0 0.0
0.0 0.0 0.0
0.0 0.0 0.0
0.0 0.0 0.0
0.0 0.0 0.0
0.0 0.0 0.0
0.0 0.0 0.0
0.0 0.0 0.0
0.0 0.0 0.0
0.0 0.0 0.0
0.0 0.0 0.0
0.0 0.0 0.0
0.0 0.0 0.0
0.0 0.0 0.0
0.0 0.0 0.0
0.0 0.0 0.0
0.0 0.0 0.0
0.0 0.0 0.0
0.0 0.0 0.0
0.0 0.0 0.0
0.0 0.0 0.0
0.0 0.0 0.0
0.0 0.0 0.0
0.0 0.0 0.0
0.0 0.0 0.0
0.0 0.0 0.0
0.0 0.0 0.0
0.0 0.0 0.0
0.0 0.0 0.0
0.0 0.0 0.0
0.0 0.0 0.0
0.0 0.0 0.0
0.0 0.0 0.0
0.0 0.0 0.0
0.0 0.0 0.0
0.0 0.0 0.0
0.0 0.0 0.0
0.0 0.0 0.0
0.0 0.0 0.0
0.0 0.0 0.0
0.0 0.0 0.0
0.0 0.0 0.0
0.0 0.0 0.0
0.0 0.0 0.0
0.0 0.0 0.0
0.0 0.0 0.0
0.0 0.0 0.0
0.0 0.0 0.0
0.0 0.0 0.0
0.0 0.0 0.0
0.0 0.0 0.0
0.0 0.0 0.0
0.0 0.0 0.0
0.0 0.0 0.0
0.0 0.0 0.0
0.0 0.0 0.0
0.0 0.0 0.0
0.0 0.0 0.0
0.0 0.0 0.0
0.0 0.0 0.0
0.0 0.0 0.0
0.0 0.0 0.0
0.0 0.0 0.0
0.0 0.0 0.0
0.0 0.0 0.0
0.0 0.0 0.0
0.0 0.0 0.0
0.0 0.0 0.0
0.0 0.0 0.0
0.0 0.0 0.0
0.0 0.0 0.0
0.0 0.0 0.0
0.0 0.0 0.0
0.0 0.0 0.0
0.0 0.0 0.0
0.0 0.0 0.0
0.0 0.0 0.0
0.0 0.0 0.0
0.0 0.0 0.0
0.0 0.0 0.0
0.0 0.0 0.0
0.0 0.0 0.0
0.0 0.0 0.0
0.0 0.0 0.0
0.0 0.0 0.0
0.0 0.0 0.0
0.0 0.0 0.0
0.0 0.0 0.0
0.0 0.0 0.0
0.0 0.0 0.0
0.0 0.0 0.0
0.0 0.0 0.0
0.0 0.0 0.0
0.0 0.0 0.0
0.0 0.0 0.0
0.0 0.0 0.0
0.0 0.0 0.0
0.0 0.0 0.0
0.0 0.0 0.0
0.0 0.0 0.0
0.0 0.0 0.0
0.0 0.0 0.0
0.0 0.0 0.0
0.0 0.0 0.0
0.0 0.0 0.0
0.0 0.0 0.0
0.0 0.0 0.0
0.0 0.0 0.0
0.0 0.0 0.0
0.0 0.0 0.0
0.0 0.0 0.0
0.0 0.0 0.0
0.0 0.0 0.0
0.0 0.0 0.0
0.0 0.0 0.0
0.0 0.0 0.0
0.0 0.0 0.0
0.0 0.0 0.0
0.0 0.0 0.0
0.0 0.0 0.0
0.0 0.0 0.0
0.0 0.0 0.0
0.0 0.0 0.0
0.0 0.0 0.0
0.0 0.0 0.0
0.0 0.0 0.0
0.0 0.0 0.0
0.0 0.0 0.0
0.0 0.0 0.0
0.0 0.0 0.0
0.0 0.0 0.0
0.0 0.0 0.0
0.0 0.0 0.0
0.0 0.0 0.0
0.0 0.0 0.0
0.0 0.0 0.0
0.0 0.0 0.0
0.0 0.0 0.0
0.0 0.0 0.0
0.0 0.0 0.0
0.0 0.0 0.0
0.0 0.0 0.0
0.0 0.0 0.0
0.0 0.0 0.0
0.0 0.0 0.0
0.0 0.0 0.0
0.0 0.0 0.0
0.0 0.0 0.0
0.0 0.0 0.0
0.0 0.0 0.0
0.0 0.0 0.0
0.0 0.0 0.0
0.0 0.0 0.0
0.0 0.0 0.0
0.0 0.0 0.0
0.0 0.0 0.0
0.0 0.0 0.0
0.0 0.0 0.0
0.0 0.0 0.0
0.0 0.0 0.0
0.0 0.0 0.0
0.0 0.0 0.0
0.0 0.0 0.0
0.0 0.0 0.0
0.0 0.0 0.0
0.0 0.0 0.0
0.0 0.0 0.0
0.0 0.0 0.0
0.0 0.0 0.0
0.0 0.0 0.0
0.0 0.0 0.0
0.0 0.0 0.0
0.0 0.0 0.0
0.0 0.0 0.0
0.0 0.0 0.0
0.0 0.0 0.0
0.0 0.0 0.0
0.0 0.0 0.0
0.0 0.0 0.0
0.0 0.0 0.0
0.0 0.0 0.0
0.0 0.0 0.0
0.0 0.0 0.0
0.0 0.0 0.0
0.0 0.0 0.0
0.0 0.0 0.0
0.0 0.0 0.0
0.0 0.0 0.0
0.0 0.0 0.0
0.0 0.0 0.0
VECTORS f float
0.0 0.0 -2.77371
0.0 0.0 -2.77371
0.0 0.0 -2.77371
0.0 0.0 -2.77371
0.0 0.0 -2.77371
0.0 0.0 -2.77371
0.0 0.0 -2.77371
0.0 0.0 -2.77371
0.0 0.0 -2.77371
0.0 0.0 -2.77371
0.0 0.0 -2.77371
0.0 0.0 -2.77371
0.0 0.0 -2.77371
0.0 0.0 -2.77371
0.0 0.0 -2.77371
0.0 0.0 -2.77371
0.0 0.0 -2.77371
0.0 0.0 -2.77371
-1.14178 2.37055 -0.0114832
8.98027 -12.3276 -27.6641
0.0 0.0 -2.77371
-1.61284 -2.30626 -6.32523
-1.64995 -2.50407 -2.4176
0.599123 0.400483 -0.344761
0.417721 0.827512 -2.26175
0.404642 -0.996789 -0.149325
-0.000177182 -0.000626588 0.0173483
0.000759052 -7.66784e-06 -0.00935522
-0.404013 0.344847 -2.7081
-0.000281164 -2.36798e-05 -0.00362523
0.509709 0.950059 -0.617405
-0.000201621 -0.000590912 -0.129306
0.0 0.0 -2.77371
2.25638 -1.10952 1.76821
0.152906 0.07459 1.02388
0.0 0.0 -2.77371
0.0587189 0.175044 2.17677
0.253887 -0.103818 9.14644
-2.26217e-05 5.7989e-06 0.000135934
0.000371037 -8.25862e-05 0.0357431
0.0 0.0 -2.77371
-10.2478 4.84677 -90.3593
14.3842 -24.1903 -2.702
6.2413 14.8877 21.7568
6.16543 2.14369 1.55078
2.17858 -28.0379 -16.1232
1.27028 -0.276374 -0.173723
0.0135931 0.00113034 0.324304
1.9734 0.699599 1.41377
0.108891 0.342445 -2.44246
-0.000921008 0.00127078 -0.0881096
5.45406e-07 -2.69566e-08 -1.22558e-05
-0.000259023 3.82443e-06 -0.00179356
0.0 0.0 -2.77371
0.0 0.0 -2.77371
-2.65356 -3.15537 3.78553
-1.54587 -0.157814 -2.73746
0.0 0.0 -2.77371
4.81857e-05 -1.07936e-05 0.00140028
-0.0891835 0.0173218 -0.637495
0.0 0.0 -2.77371
0.0987302 0.0275158 0.223239
0.0 0.0 -2.77371
-0.00885697 -0.0768973 0.383343
-5.19538e-05 3.26979e-05 -0.0271026
1.68723e-06 -1.89906e-07 3.02523e-05
4.81177e-09 -3.78306e-09 2.44118e-05
0.000117809 6.1832e-05 0.00222627
0.0 0.0 -2.77371
0.0 0.0 -2.77371
0.0 0.0 -2.77371
-5.89672 -6.91846 21.0376
0.0130483 -0.0492439 -0.797507
0.0385437 -0.00667789 0.700071
0.88049 -0.325355 -0.896354
0.00065198 -0.000124433 0.00351634
-0.0329829 0.0212578 1.22994
0.0 0.0 -2.77371
-3.62336 5.70629 33.6054
-0.489473 -11.8259 -21.8551
1.52251 -0.939713 7.42177
0.0 0.0 -2.77371
-0.013411 -0.0225068 -1.11573
0.000746122 -2.6824e-05 0.00641657
-0.000811487 6.02623e-05 -0.00546753
0.233122 -0.00730008 3.00117
0.976973 1.0348 -0.361847
3.12177 -10.6186 2.76288
0.0 0.0 -2.77371
0.0 0.0 -2.77371
1.63936 0.959249 -1.28513
0.0 0.0 -2.77371
0.0 0.0 -2.77371
0.0 0.0 -2.77371
0.0 0.0 -2.77371
0.0 0.0 -2.77371
5.44777 1.58676 0.719402
3.60842 1.36799 1.50612
0.0905825 0.0106009 -0.476155
0.0 0.0 -2.77371
-0.547738 0.428659 -2.4561
0.804676 0.697607 -0.643774
0.127041 -0.0668326 -0.494548
-3.15586 9.16238 -9.10535
1.52998 0.431634 -3.35596
-0.869954 0.0348179 -2.30587
9.47981 -5.08825 15.8475
-3.22887 -25.7598 -27.423
-1.34856 -1.76002 -2.37203
0.0432375 -0.00455732 -0.592122
-2.89418 2.09039 65.113
2.1832 -2.05478 1.52127
0.00107685 7.47652e-05 0.0763714
1.04524e-05 3.23237e-07 -3.38321e-05
0.0924105 -0.536145 -1.68561
-0.0799475 0.00932947 2.88614
0.899068 0.224035 -2.44778
0.000183087 1.10753e-05 -0.0167766
0.0 0.0 -2.77371
0.0 0.0 -2.77371
11.5993 1.93668 -1.27304
-15.6083 -6.01714 11.4292
-0.280296 0.171005 14.8294
0.194813 -0.358001 -1.95856
-0.0797274 -0.434457 -4.72864
0.00216293 4.16772e-05 -0.0912658
0.00952563 -0.00315372 0.495768
-3.75811e-05 -2.49564e-06 -0.000261073
-0.913948 -3.27494 -2.10852
0.849826 -0.038428 -1.07232
-0.202577 -0.348566 -2.63533
0.194168 0.372915 -1.57845
1.36831 0.348687 0.050362
-0.0776025 -0.0324486 -1.10088
0.0 0.0 -2.77371
0.0 0.0 -2.77371
1.10474 1.015 10.1306
-2.49838 -3.59463 3.28749
-0.0230805 0.0090449 -2.14232
-0.00721225 0.00188605 0.0877651
-0.0250145 -0.00173614 -2.25814
0.542617 -0.223312 -1.60017
2.69471 -2.03134 -0.442609
0.114475 0.0221094 0.976438
0.777276 -0.0762067 -1.91033
0.634136 0.514354 0.0390236
0.000252442 2.5299e-05 -0.00257044
0.0364038 -0.00564141 -0.518722
0.0 0.0 -2.77371
0.0 0.0 -2.77371
-2.26139 -0.0165038 -0.108416
5.75441 -0.0644092 1.54891
0.0 0.0 -2.77371
0.529942 -0.571103 -3.06246
0.0850301 2.29764 -1.64204
-0.744642 0.466451 1.16587
6.09669 -17.9255 2.49763
0.00711937 0.00363923 1.84122
0.0588809 0.0041568 0.56706
0.649813 -0.631702 -1.13187
0.534181 0.705549 -0.266158
0.00117301 0.00111249 0.138425
0.0 0.0 -2.77371
0.0 0.0 -2.77371
0.0 0.0 -2.77371
-8.58323 2.82987 -8.89015
8.58173 -1.46888 4.40584
0.105774 -0.698758 -0.693593
3.815 21.1699 15.347
-0.196791 0.0218196 -2.37772
2.68107 2.32241 9.86031
0.851033 -1.06172 -1.27369
0.336801 -0.41713 -1.99582
0.0189949 -0.00736072 0.125554
-0.295669 -0.120014 0.352862
1.46361 4.676 0.359076
1.44886 0.904957 0.6428
0.834492 -1.2716 -0.564884
-0.251873 0.0452806 -0.919567
-0.0138025 -1.03076 -1.06181
3.45798e-06 7.38254e-08 0.000132646
0.0 0.0 -2.77371
-0.0271501 -0.210653 -2.14527
0.836906 1.04622 -1.30954
0.00781372 1.55012 -0.157764
3.14057 15.6629 11.3069
0.0 0.0 -2.77371
-1.95647e-05 0.994889 -0.98334
-1.22526e-06 0.988735 -0.988808
0.0337882 -0.0810032 -2.74461
9.92997e-05 1.06407 -0.92323
-0.100138 0.492884 -4.12502
0.0 0.0 -2.77371
0.0 0.0 -2.77371
0.0 0.0 -2.77371
0.0 0.0 -2.77371
0.0 0.0 -2.77371
0.0 0.0 -2.77371
0.0 0.0 -2.77371
17.7674 -1.43215 -6.74918
11.4318 2.0114 39.563
-1.68755 29.8925 11.7087
3.46537 1.93787 3.67805
-2.44496 -2.26491 -5.84176
3.53961 8.91745 -1.27031
-0.773914 -8.9592 27.6604
-0.632654 0.19079 -0.543247
-0.147883 -0.516394 -1.06775
0.0 0.0 -2.77371
9.61449 10.3262 16.4584
36.919 34.3728 10.4339
0.109308 -0.0340786 -2.62773
-0.351346 -0.855896 0.391467
-3.53961 -8.91745 -4.27712
-9.51205 55.6794 -12.1193
0.0 0.0 -2.77371
-0.432236 -0.982473 1.25676
0.0 0.0 -2.77371
2.08061 1.89375 3.39403
0.0 0.0 -2.77371
-1.09299 0.0558676 0.313201
-0.0150031 0.00234643 -2.81674
1.70856 15.9544 19.1397
0.476486 -0.0297748 -2.46581
-1.01173 -1.2623 -1.96961
2.57291 -20.1253 -55.0044
0.0 0.0 -2.77371
0.0 0.0 -2.77371
0.0 0.0 -2.77371
0.0565868 0.0270946 -2.66902
-7.20473 3.69381 -14.3782
-6.84056 -6.40686 23.3916
0.0 0.0 -2.77371
0.0 0.0 -2.77371
0.0 0.0 -2.77371
0.108106 0.0708224 -2.89489
0.0 0.0 -2.77371
5.48155 -4.44375 1.68138
-4.60681e-06 -0.988727 -0.988819
-4.0909 3.90085 -1.19008
0.0 0.0 -2.77371
0.0117023 -1.06796 -0.906811
0.0 0.0 -2.77371
-4.8318 -0.985326 -1.33797
7.20223 -1.62963 -1.48845
-1.56063e-05 -0.988515 -0.989029
0.000516545 0.991724 -0.985467
-7.2612e-06 0.989436 -0.9882
0.0 0.0 -2.77371
0.0 0.0 -2.77371
13.7184 2.5313 8.17781
3.93732 4.83593 4.80091
0.0 0.0 -2.77371
-1.32928 1.57416 -2.04245
1.79717 1.76645 -4.36398
4.79989 8.0643 111.341
0.0 0.0 -2.77371
0.602543 -0.174435 -1.02657
6.86772 -7.54032 16.1775
0.0 0.0 -2.77371
3.19335 2.44707 1.2342
66.5528 -19.2732 86.8475
0.0 0.0 -2.77371
0.0 0.0 -2.77371
24.3083 -3.48559 -6.40252
-3.85295 -0.901874 -0.127243
1.44246 3.17463 0.105429
0.0 0.0 -2.77371
-3.02915 -0.178194 -2.81182
0.0 0.0 -2.77371
-48.0869 41.9042 -32.6136
0.0 0.0 -2.77371
6.48336 4.43875 -13.4772
0.0 0.0 -2.77371
20.7484 -1.80784 19.5751
0.0 0.0 -2.77371
8.45351 5.30574 -27.6457
0.0 0.0 -2.77371
0.0 0.0 -2.77371
-2.48868 -1.34472 6.40645
-3.95444 0.0806567 0.0591099
0.955851 -1.20267 -1.13667
3.95444 -0.0806567 -5.60653
0.0 0.0 -2.77371
0.393455 1.13118 -0.529403