# vtk DataFile Version 2.0
Generated by lpp.py
ASCII
DATASET POLYDATA
POINTS 176 float
0.500519 0.228152 1.57991
0.191044 0.244862 1.57194
0.110385 0.280954 1.57278
0.380817 0.280425 1.57349
0.319279 0.311483 1.57851
0.142759 0.357164 1.58136
0.150668 0.416779 1.57185
0.252389 0.415411 1.57967
0.505766 0.429958 1.57745
0.147649 0.503077 1.57261
0.211991 0.513597 1.57202
0.477114 0.484878 1.57455
0.261488 0.255288 1.59856
0.460616 0.284913 1.59419
0.378919 0.367173 1.59633
0.414339 0.44413 1.58767
0.292759 0.465497 1.57443
0.4417 0.342212 1.631
0.293244 0.409688 1.64277
0.221691 0.336081 1.6756
0.202452 0.459991 1.65146
0.298512 0.526526 1.67335
0.358392 0.516981 1.66666
0.315693 0.229965 1.70568
0.110316 0.328441 1.71395
0.326726 0.362322 1.69964
0.48133 0.381744 1.69753
0.427577 0.512648 1.69916
0.407624 0.228484 1.72033
0.389576 0.300711 1.72912
0.217643 0.395379 1.73395
0.184928 0.234672 1.76869
0.295884 0.285163 1.77425
0.443269 0.320522 1.78512
0.383972 0.46156 1.76997
0.246175 0.495534 1.76489
0.17066 0.517967 1.76734
0.119354 0.228593 1.81339
0.160428 0.3182 1.79969
0.27192 0.349064 1.82003
0.320995 0.419007 1.82277
0.44361 0.420007 1.80132
0.486907 0.489071 1.8024
0.337972 0.524085 1.81461
0.250314 0.231914 1.8366
0.354173 0.228377 1.82936
0.44893 0.24186 1.8432
0.379347 0.368828 1.82505
0.242338 0.433913 1.8406
0.174746 0.456274 1.85903
0.219922 0.334748 1.89536
0.485944 0.343638 1.88704
0.173434 0.391321 1.87346
0.111154 0.43018 1.86439
0.119943 0.514428 1.87631
0.405158 0.517371 1.87191
0.188775 0.261917 1.9229
0.334819 0.324289 1.90124
0.457584 0.468554 1.90903
0.403959 0.242371 1.9669
0.244548 0.285112 1.95009
0.154593 0.314223 1.94562
0.388697 0.32831 1.94924
0.10471 0.363257 1.9587
0.478047 0.398941 1.9535
0.400035 0.441344 1.95816
0.283869 0.446206 1.95751
0.309578 0.507986 1.95826
0.137853 0.229319 1.98138
0.329189 0.252757 2.00157
0.185895 0.369748 1.97834
0.218563 0.442358 1.99109
0.100655 0.458725 1.98075
0.226898 0.506806 1.97777
0.369388 0.526215 1.98758
0.112056 0.26459 2.03726
0.144122 0.349922 2.03447
0.298609 0.364728 2.02665
0.368876 0.379155 2.01778
0.179788 0.4242 2.04531
0.47867 0.463 2.01535
0.10161 0.511094 2.04451
0.190793 0.498184 2.04428
0.218269 0.254539 2.05076
0.377994 0.24098 2.06458
0.43763 0.245516 2.05653
0.235855 0.316318 2.0605
0.368613 0.311971 2.06424
0.486179 0.312628 2.06501
0.228049 0.384522 2.04702
0.497086 0.400324 2.05199
0.108382 0.420889 2.05366
0.421483 0.499457 2.04798
0.486742 0.509906 2.05814
0.254767 0.230824 2.10361
0.495956 0.249499 2.11224
0.290891 0.301706 2.09271
0.181029 0.318367 2.09437
0.41904 0.310566 2.09691
0.278223 0.363632 2.09762
0.155769 0.403018 2.10019
0.438372 0.392123 2.08222
0.240863 0.437556 2.10747
0.353388 0.44487 2.08555
0.419456 0.449551 2.09461
0.307792 0.495572 2.08669
0.218974 0.524143 2.09992
0.178322 0.227864 2.12834
0.408343 0.240904 2.12147
0.150682 0.290471 2.13822
0.355542 0.30862 2.12481
0.118071 0.372478 2.13713
0.216306 0.357237 2.13603
0.429922 0.3736 2.1422
0.499251 0.382901 2.12614
0.161462 0.479607 2.12922
0.476719 0.464357 2.119
0.105277 0.51875 2.12553
0.423627 0.520356 2.12047
0.117057 0.232547 2.15535
0.199862 0.243713 2.18294
0.33461 0.249494 2.17199
0.258494 0.28056 2.17116
0.46021 0.268154 2.16579
0.294692 0.330306 2.16293
0.414233 0.306803 2.16248
0.320208 0.403691 2.17809
0.113325 0.448918 2.18014
0.367693 0.467546 2.15384
0.209546 0.484752 2.17139
0.313052 0.494322 2.16354
0.446997 0.50849 2.1749
0.387237 0.525686 2.17208
0.47999 0.300848 2.21322
0.103577 0.34242 2.21791
0.230407 0.340128 2.21579
0.375347 0.345395 2.195
0.169236 0.376906 2.19011
0.261069 0.440732 2.19621
0.491591 0.428372 2.19117
0.441781 0.458388 2.21924
0.131272 0.513706 2.21661
0.254698 0.262308 2.2326
0.365118 0.235733 2.25568
0.417913 0.266516 2.22416
0.121033 0.279919 2.23222
0.187546 0.294736 2.23886
0.378219 0.307765 2.24893
0.287678 0.358468 2.23158
0.227036 0.399722 2.22926
0.380254 0.404128 2.22153
0.448915 0.39365 2.22864
0.200976 0.455034 2.25494
0.208645 0.523817 2.25003
0.35506 0.52072 2.23723
0.29951 0.265646 2.28473
0.26261 0.317421 2.28461
0.121236 0.342722 2.28496
0.234882 0.370686 2.2819
0.360498 0.363939 2.26203
0.10427 0.421706 2.25997
0.317689 0.454971 2.26695
0.124302 0.506318 2.28864
0.387139 0.48601 2.28051
0.491668 0.49724 2.26518
0.136955 0.241756 2.30145
0.478513 0.241448 2.29775
0.200031 0.295208 2.29871
0.352336 0.290052 2.30528
0.43656 0.349215 2.29852
0.18594 0.400862 2.30647
0.288982 0.398489 2.30045
0.41824 0.41741 2.30107
0.250123 0.467148 2.29514
0.485548 0.450278 2.30645
0.302009 0.506095 2.30474
VERTICES 176 352
1 0
1 1
1 2
1 3
1 4
1 5
1 6
1 7
1 8
1 9
1 10
1 11
1 12
1 13
1 14
1 15
1 16
1 17
1 18
1 19
1 20
1 21
1 22
1 23
1 24
1 25
1 26
1 27
1 28
1 29
1 30
1 31
1 32
1 33
1 34
1 35
1 36
1 37
1 38
1 39
1 40
1 41
1 42
1 43
1 44
1 45
1 46
1 47
1 48
1 49
1 50
1 51
1 52
1 53
1 54
1 55
1 56
1 57
1 58
1 59
1 60
1 61
1 62
1 63
1 64
1 65
1 66
1 67
1 68
1 69
1 70
1 71
1 72
1 73
1 74
1 75
1 76
1 77
1 78
1 79
1 80
1 81
1 82
1 83
1 84
1 85
1 86
1 87
1 88
1 89
1 90
1 91
1 92
1 93
1 94
1 95
1 96
1 97
1 98
1 99
1 100
1 101
1 102
1 103
1 104
1 105
1 106
1 107
1 108
1 109
1 110
1 111
1 112
1 113
1 114
1 115
1 116
1 117
1 118
1 119
1 120
1 121
1 122
1 123
1 124
1 125
1 126
1 127
1 128
1 129
1 130
1 131
1 132
1 133
1 134
1 135
1 136
1 137
1 138
1 139
1 140
1 141
1 142
1 143
1 144
1 145
1 146
1 147
1 148
1 149
1 150
1 151
1 152
1 153
1 154
1 155
1 156
1 157
1 158
1 159
1 160
1 161
1 162
1 163
1 164
1 165
1 166
1 167
1 168
1 169
1 170
1 171
1 172
1 173
1 174
1 175
POINT_DATA 176
VECTORS i float
0.0 0.0 0.0
0.0 0.0 0.0
0.0 0.0 0.0
0.0 0.0 0.0
0.0 0.0 0.0
0.0 0.0 0.0
0.0 0.0 0.0
0.0 0.0 0.0
0.0 0.0 0.0
0.0 0.0 0.0
0.0 0.0 0.0
0.0 0.0 0.0
0.0 0.0 0.0
0.0 0.0 0.0
0.0 0.0 0.0
0.0 0.0 0.0
0.0 0.0 0.0
0.0 0.0 0.0
0.0 0.0 0.0
0.0 0.0 0.0
0.0 0.0 0.0
0.0 0.0 0.0
0.0 0.0 0.0
0.0 0.0 0.0
0.0 0.0 0.0
0.0 0.0 0.0
0.0 0.0 0.0
0.0 0.0 0.0
0.0 0.0 0.0
0.0 0.0 0.0
0.0 0.0 0.0
0.0 0.0 0.0
0.0 0.0 0.0
0.0 0.0 0.0
0.0 0.0 0.0
0.0 0.0 0.0
0.0 0.0 0.0
0.0 0.0 0.0
0.0 0.0 0.0
0.0 0.0 0.0
0.0 0.0 0.0
0.0 0.0 0.0
0.0 0.0 0.0
0.0 0.0 0.0
0.0 0.0 0.0
0.0 0.0 0.0
0.0 0.0 0.0
0.0 0.0 0.0
0.0 0.0 0.0
0.0 0.0 0.0
0.0 0.0 0.0
0.0 0.0 0.0
0.0 0.0 0.0
0.0 0.0 0.0
0.0 0.0 0.0
0.0 0.0 0.0
0.0 0.0 0.0
0.0 0.0 0.0
0.0 0.0 0.0
0.0 0.0 0.0
0.0 0.0 0.0
0.0 0.0 0.0
0.0 0.0 0.0
0.0 0.0 0.0
0.0 0.0 0.0
0.0 0.0 0.0
0.0 0.0 0.0
0.0 0.0 0.0
0.0 0.0 0.0
0.0 0.0 0.0
0.0 0.0 0.0
0.0 0.0 0.0
0.0 0.0 0.0
0.0 0.0 0.0
0.0 0.0 0.0
0.0 0.0 0.0
0.0 0.0 0.0
0.0 0.0 0.0
0.0 0.0 0.0
0.0 0.0 0.0
0.0 0.0 0.0
0.0 0.0 0.0
0.0 0.0 0.0
0.0 0.0 0.0
0.0 0.0 0.0
0.0 0.0 0.0
0.0 0.0 0.0
0.0 0.0 0.0
0.0 0.0 0.0
0.0 0.0 0.0
0.0 0.0 0.0
0.0 0.0 0.0
0.0 0.0 0.0
0.0 0.0 0.0
0.0 0.0 0.0
0.0 0.0 0.0
0.0 0.0 0.0
0.0 0.0 0.0
0.0 0.0 0.0
0.0 0.0 0.0
0.0 0.0 0.0
0.0 0.0 0.0
0.0 0.0 0.0
0.0 0.0 0.0
0.0 0.0 0.0
0.0 0.0 0.0
0.0 0.0 0.0
0.0 0.0 0.0
0.0 0.0 0.0
0.0 0.0 0.0
0.0 0.0 0.0
0.0 0.0 0.0
0.0 0.0 0.0
0.0 0.0 0.0
0.0 0.0 0.0
0.0 0.0 0.0
0.0 0.0 0.0
0.0 0.0 0.0
0.0 0.0 0.0
0.0 0.0 0.0
0.0 0.0 0.0
0.0 0.0 0.0
0.0 0.0 0.0
0.0 0.0 0.0
0.0 0.0 0.0
0.0 0.0 0.0
0.0 0.0 0.0
0.0 0.0 0.0
0.0 0.0 0.0
0.0 0.0 0.0
0.0 0.0 0.0
0.0 0.0 0.0
0.0 0.0 0.0
0.0 0.0 0.0
0.0 0.0 0.0
0.0 0.0 0.0
0.0 0.0 0.0
0.0 0.0 0.0
0.0 0.0 0.0
0.0 0.0 0.0
0.0 0.0 0.0
0.0 0.0 0.0
0.0 0.0 0.0
0.0 0.0 0.0
0.0 0.0 0.0
0.0 0.0 0.0
0.0 0.0 0.0
0.0 0.0 0.0
0.0 0.0 0.0
0.0 0.0 0.0
0.0 0.0 0.0
0.0 0.0 0.0
0.0 0.0 0.0
0.0 0.0 0.0
0.0 0.0 0.0
0.0 0.0 0.0
0.0 0.0 0.0
0.0 0.0 0.0
0.0 0.0 0.0
0.0 0.0 0.0
0.0 0.0 0.0
0.0 0.0 0.0
0.0 0.0 0.0
0.0 0.0 0.0
0.0 0.0 0.0
0.0 0.0 0.0
0.0 0.0 0.0
0.0 0.0 0.0
0.0 0.0 0.0
0.0 0.0 0.0
0.0 0.0 0.0
0.0 0.0 0.0
0.0 0.0 0.0
0.0 0.0 0.0
0.0 0.0 0.0
0.0 0.0 0.0
VECTORS f float
0.0 0.0 -2.77371
-19.5897 0.0 228.767
160.615 0.0 340.815
-46.3171 0.0 47.2023
0.0 0.0 -2.77371
0.0 0.0 -2.77371
7.69576 0.0 268.259
0.0 0.0 -2.77371
0.0 0.0 -2.77371
146.877 0.0 340.716
-28.7818 0.0 207.976
-27.9288 0.0 -11.6748
0.0 0.0 -2.77371
0.0 0.0 -2.77371
0.0 0.0 -2.77371
0.0 0.0 -2.77371
229.337 0.0 298.777
0.0 0.0 -2.77371
0.0 0.0 -2.77371
0.0 0.0 -2.77371
0.0 0.0 -2.77371
0.0 0.0 -2.77371
0.0 0.0 -2.77371
0.0 0.0 -2.77371
0.0 0.0 -2.77371
0.0 0.0 -2.77371
0.0 0.0 -2.77371
0.0 0.0 -2.77371
0.0 0.0 -2.77371
0.0 0.0 -2.77371
0.0 0.0 -2.77371
0.0 0.0 -2.77371
0.0 0.0 -2.77371
0.0 0.0 -2.77371
0.0 0.0 -2.77371
0.0 0.0 -2.77371
0.0 0.0 -2.77371
0.0 0.0 -2.77371
0.0 0.0 -2.77371
0.0 0.0 -2.77371
0.0 0.0 -2.77371
0.0 0.0 -2.77371
0.0 0.0 -2.77371
0.0 0.0 -2.77371
0.0 0.0 -2.77371
0.0 0.0 -2.77371
0.0 0.0 -2.77371
0.0 0.0 -2.77371
0.0 0.0 -2.77371
0.0 0.0 -2.77371
0.0 0.0 -2.77371
0.0 0.0 -2.77371
0.0 0.0 -2.77371
0.0 0.0 -2.77371
0.0 0.0 -2.77371
0.0 0.0 -2.77371
0.0 0.0 -2.77371
0.0 0.0 -2.77371
0.0 0.0 -2.77371
0.0 0.0 -2.77371
0.0 0.0 -2.77371
0.0 0.0 -2.77371
0.0 0.0 -2.77371
0.0 0.0 -2.77371
0.0 0.0 -2.77371
0.0 0.0 -2.77371
0.0 0.0 -2.77371
0.0 0.0 -2.77371
0.0 0.0 -2.77371
0.0 0.0 -2.77371
0.0 0.0 -2.77371
0.0 0.0 -2.77371
0.0 0.0 -2.77371
0.0 0.0 -2.77371
0.0 0.0 -2.77371
0.0 0.0 -2.77371
0.0 0.0 -2.77371
0.0 0.0 -2.77371
0.0 0.0 -2.77371
0.0 0.0 -2.77371
0.0 0.0 -2.77371
0.0 0.0 -2.77371
0.0 0.0 -2.77371
0.0 0.0 0.0
0.0 0.0 0.0
0.0 0.0 0.0
0.0 0.0 0.0
0.0 0.0 0.0
0.0 0.0 0.0
0.0 0.0 -2.77371
0.0 0.0 0.0
0.0 0.0 0.0
0.0 0.0 0.0
0.0 0.0 0.0
0.0 0.0 0.0
0.0 0.0 0.0
0.0 0.0 0.0
0.0 0.0 0.0
0.0 0.0 0.0
0.0 0.0 0.0
0.0 0.0 0.0
0.0 0.0 0.0
0.0 0.0 0.0
0.0 0.0 0.0
0.0 0.0 0.0
0.0 0.0 0.0
0.0 0.0 0.0
0.0 0.0 0.0
0.0 0.0 0.0
0.0 0.0 0.0
0.0 0.0 0.0
0.0 0.0 0.0
0.0 0.0 0.0
0.0 0.0 0.0
0.0 0.0 0.0
0.0 0.0 0.0
0.0 0.0 0.0
0.0 0.0 0.0
0.0 0.0 0.0
0.0 0.0 0.0
0.0 0.0 0.0
0.0 0.0 0.0
0.0 0.0 0.0
0.0 0.0 0.0
0.0 0.0 0.0
0.0 0.0 0.0
0.0 0.0 0.0
0.0 0.0 0.0
0.0 0.0 0.0
0.0 0.0 0.0
0.0 0.0 0.0
0.0 0.0 0.0
0.0 0.0 0.0
0.0 0.0 0.0
0.0 0.0 0.0
0.0 0.0 0.0
0.0 0.0 0.0
0.0 0.0 0.0
0.0 0.0 0.0
0.0 0.0 0.0
0.0 0.0 0.0
0.0 0.0 0.0
0.0 0.0 0.0
0.0 0.0 0.0
0.0 0.0 0.0
0.0 0.0 0.0
0.0 0.0 0.0
0.0 0.0 0.0
0.0 0.0 0.0
0.0 0.0 0.0
0.0 0.0 0.0
0.0 0.0 0.0
0.0 0.0 0.0
0.0 0.0 0.0
0.0 0.0 0.0
0.0 0.0 0.0
0.0 0.0 0.0
0.0 0.0 0.0
0.0 0.0 0.0
0.0 0.0 0.0
0.0 0.0 0.0
0.0 0.0 0.0
0.0 0.0 0.0
0.0 0.0 0.0
0.0 0.0 0.0
0.0 0.0 0.0
0.0 0.0 0.0
0.0 0.0 0.0
0.0 0.0 0.0
0.0 0.0 0.0
0.0 0.0 0.0
0.0 0.0 0.0
0.0 0.0 0.0
0.0 0.0 0.0
0.0 0.0 0.0
0.0 0.0 0.0
VECTORS omega float
0.0 -94.9935 0.0
0.0 -132.132 0.0
0.0 -102.253 0.0
0.0 -111.71 0.0
0.0 -95.0147 0.0
0.0 -95.0136 0.0
0.0 -132.784 0.0
0.0 -95.0009 0.0
0.0 -95.0016 0.0
0.0 -107.287 0.0
0.0 -130.911 0.0
0.0 -105.836 0.0
0.0 0.0 0.0
0.0 0.0 0.0
0.0 0.0 0.0
0.0 0.0 0.0
0.0 -55.9218 0.0
0.0 0.0 0.0
0.0 0.0 0.0
0.0 0.0 0.0
0.0 0.0 0.0
0.0 0.0 0.0
0.0 0.0 0.0
0.0 0.0 0.0
0.0 0.0 0.0
0.0 0.0 0.0
0.0 0.0 0.0
0.0 0.0 0.0
0.0 0.0 0.0
0.0 0.0 0.0
0.0 0.0 0.0
0.0 0.0 0.0
0.0 0.0 0.0
0.0 0.0 0.0
0.0 0.0 0.0
0.0 0.0 0.0
0.0 0.0 0.0
0.0 0.0 0.0
0.0 0.0 0.0
0.0 0.0 0.0
0.0 0.0 0.0
0.0 0.0 0.0
0.0 0.0 0.0
0.0 0.0 0.0
0.0 0.0 0.0
0.0 0.0 0.0
0.0 0.0 0.0
0.0 0.0 0.0
0.0 0.0 0.0
0.0 0.0 0.0
0.0 0.0 0.0
0.0 0.0 0.0
0.0 0.0 0.0
0.0 0.0 0.0
0.0 0.0 0.0
0.0 0.0 0.0
0.0 0.0 0.0
0.0 0.0 0.0
0.0 0.0 0.0
0.0 0.0 0.0
0.0 0.0 0.0
0.0 0.0 0.0
0.0 0.0 0.0
0.0 0.0 0.0
0.0 0.0 0.0
0.0 0.0 0.0
0.0 0.0 0.0
0.0 0.0 0.0
0.0 0.0 0.0
0.0 0.0 0.0
0.0 0.0 0.0
0.0 0.0 0.0
0.0 0.0 0.0
0.0 0.0 0.0
0.0 0.0 0.0
0.0 0.0 0.0
0.0 0.0 0.0
0.0 0.0 0.0
0.0 0.0 0.0
0.0 0.0 0.0
0.0 0.0 0.0
0.0 0.0 0.0
0.0 0.0 0.0
0.0 0.0 0.0
0.0 0.0 0.0
0.0 0.0 0.0
0.0 0.0 0.0
0.0 0.0 0.0
0.0 0.0 0.0
0.0 0.0 0.0
0.0 0.0 0.0
0.0 0.0 0.0
0.0 0.0 0.0
0.0 0.0 0.0
0.0 0.0 0.0
0.0 0.0 0.0
0.0 0.0 0.0
0.0 0.0 0.0
0.0 0.0 0.0
0.0 0.0 0.0
0.0 0.0 0.0
0.0 0.0 0.0
0.0 0.0 0.0
0.0 0.0 0.0
0.0 0.0 0.0
0.0 0.0 0.0
0.0 0.0 0.0
0.0 0.0 0.0
0.0 0.0 0.0
0.0 0.0 0.0
0.0 0.0 0.0
0.0 0.0 0.0
0.0 0.0 0.0
0.0 0.0 0.0
0.0 0.0 0.0
0.0 0.0 0.0
0.0 0.0 0.0
0.0 0.0 0.0
0.0 0.0 0.0
0.0 0.0 0.0
0.0 0.0 0.0
0.0 0.0 0.0
0.0 0.0 0.0
0.0 0.0 0.0
0.0 0.0 0.0
0.0 0.0 0.0
0.0 0.0 0.0
0.0 0.0 0.0
0.0 0.0 0.0
0.0 0.0 0.0
0.0 0.0 0.0
0.0 0.0 0.0
0.0 0.0 0.0
0.0 0.0 0.0
0.0 0.0 0.0
0.0 0.0 0.0
0.0 0.0 0.0
0.0 0.0 0.0
0.0 0.0 0.0
0.0 0.0 0.0
0.0 0.0 0.0
0.0 0.0 0.0
0.0 0.0 0.0
0.0 0.0 0.0
0.0 0.0 0.0
0.0 0.0 0.0
0.0 0.0 0.0
0.0 0.0 0.0
0.0 0.0 0.0
0.0 0.0 0.0
0.0 0.0 0.0
0.0 0.0 0.0
0.0 0.0 0.0
0.0 0.0 0.0
0.0 0.0 0.0
0.0 0.0 0.0
0.0 0.0 0.0
0.0 0.0 0.0
0.0 0.0 0.0
0.0 0.0 0.0
0.0 0.0 0.0
0.0 0.0 0.0
0.0 0.0 0.0
0.0 0.0 0.0
0.0 0.0 0.0
0.0 0.0 0.0
0.0 0.0 0.0
0.0 0.0 0.0
0.0 0.0 0.0
0.0 0.0 0.0
0.0 0.0 0.0
0.0 0.0 0.0
0.0 0.0 0.0
0.0 0.0 0.0
0.0 0.0 0.0
0.0 0.0 0.0
VECTORS v float
1.19606 0.0 0.901824
1.6684 0.0 0.390488
1.27902 0.0 -1.47675
1.40375 0.0 1.21265
1.19594 0.0 0.916607
1.19593 0.0 0.885634
1.67725 0.0 0.0550678
1.19619 0.0 0.904541
1.1962 0.0 0.928292
1.34422 0.0 -1.3326
1.65269 0.0 0.537068
1.32956 0.0 1.25967
0.0 0.0 -3.13058
0.0 0.0 -3.14422
0.0 0.0 -3.13755
0.0 0.0 -3.16453
0.688266 0.0 -2.44238
0.0 0.0 -3.02719
0.0 0.0 -2.98883
0.0 0.0 -2.87906
0.0 0.0 -2.96019
0.0 0.0 -2.88671
0.0 0.0 -2.90937
0.0 0.0 -2.77468
0.0 0.0 -2.74525
0.0 0.0 -2.79597
0.0 0.0 -2.80332
0.0 0.0 -2.79763
0.0 0.0 -2.72239
0.0 0.0 -2.69051
0.0 0.0 -2.67285
0.0 0.0 -2.54218
0.0 0.0 -2.5206
0.0 0.0 -2.47793
0.0 0.0 -2.53718
0.0 0.0 -2.5568
0.0 0.0 -2.54738
0.0 0.0 -2.36334
0.0 0.0 -2.41956
0.0 0.0 -2.33568
0.0 0.0 -2.3241
0.0 0.0 -2.41298
0.0 0.0 -2.40857
0.0 0.0 -2.35834
0.0 0.0 -2.26495
0.0 0.0 -2.29615
0.0 0.0 -2.23621
0.0 0.0 -2.31449
0.0 0.0 -2.24759
0.0 0.0 -2.16567
0.0 0.0 -1.99429
0.0 0.0 -2.03481
0.0 0.0 -2.09926
0.0 0.0 -2.14125
0.0 0.0 -2.08592
0.0 0.0 -2.10652
0.0 0.0 -1.85391
0.0 0.0 -1.96516
0.0 0.0 -1.92592
0.0 0.0 -1.60425
0.0 0.0 -1.70392
0.0 0.0 -1.72952
0.0 0.0 -1.70882
0.0 0.0 -1.65359
0.0 0.0 -1.6842
0.0 0.0 -1.65683
0.0 0.0 -1.66065
0.0 0.0 -1.65624
0.0 0.0 -1.51311
0.0 0.0 -1.37597
0.0 0.0 -1.53273
0.0 0.0 -1.44876
0.0 0.0 -1.51723
0.0 0.0 -1.53636
0.0 0.0 -1.4724
0.0 0.0 -1.09226
0.0 0.0 -1.11708
0.0 0.0 -1.18379
0.0 0.0 -1.25511
0.0 0.0 -1.01751
0.0 0.0 -1.27394
0.0 0.0 -1.02516
0.0 0.0 -1.02742
-0 -0 -1.0
-0 -0 -1.0
-0 -0 -1.0
-0 -0 -1.0
-0 -0 -1.0
-0 -0 -1.0
0.0 0.0 -1.00083
-0 -0 -1.0
-0 -0 -1.0
-0 -0 -1.0
-0 -0 -1.0
-0 -0 -1.0
-0 -0 -1.0
-0 -0 -1.0
-0 -0 -1.0
-0 -0 -1.0
-0 -0 -1.0
-0 -0 -1.0
-0 -0 -1.0
-0 -0 -1.0
-0 -0 -1.0
-0 -0 -1.0
-0 -0 -1.0
-0 -0 -1.0
-0 -0 -1.0
-0 -0 -1.0
-0 -0 -1.0
-0 -0 -1.0
-0 -0 -1.0
-0 -0 -1.0
-0 -0 -1.0
-0 -0 -1.0
-0 -0 -1.0
-0 -0 -1.0
-0 -0 -1.0
-0 -0 -1.0
-0 -0 -1.0
-0 -0 -1.0
-0 -0 -1.0
-0 -0 -1.0
-0 -0 -1.0
-0 -0 -1.0
-0 -0 -1.0
-0 -0 -1.0
-0 -0 -1.0
-0 -0 -1.0
-0 -0 -1.0
-0 -0 -1.0
-0 -0 -1.0
-0 -0 -1.0
-0 -0 -1.0
-0 -0 -1.0
-0 -0 -1.0
-0 -0 -1.0
-0 -0 -1.0
-0 -0 -1.0
-0 -0 -1.0
-0 -0 -1.0
-0 -0 -1.0
-0 -0 -1.0
-0 -0 -1.0
-0 -0 -1.0
-0 -0 -1.0
-0 -0 -1.0
-0 -0 -1.0
-0 -0 -1.0
-0 -0 -1.0
-0 -0 -1.0
-0 -0 -1.0
-0 -0 -1.0
-0 -0 -1.0
-0 -0 -1.0
-0 -0 -1.0
-0 -0 -1.0
-0 -0 -1.0
-0 -0 -1.0
-0 -0 -1.0
-0 -0 -1.0
-0 -0 -1.0
-0 -0 -1.0
-0 -0 -1.0
-0 -0 -1.0
-0 -0 -1.0
-0 -0 -1.0
-0 -0 -1.0
-0 -0 -1.0
-0 -0 -1.0
-0 -0 -1.0
-0 -0 -1.0
-0 -0 -1.0
-0 -0 -1.0
-0 -0 -1.0
-0 -0 -1.0
SCALARS radius float 1
LOOKUP_TABLE default
0.03
0.03
0.03
0.03
0.03
0.03
0.03
0.03
0.03
0.03
0.03
0.03
0.03
0.03
0.03
0.03
0.03
0.03
0.03
0.03
0.03
0.03
0.03
0.03
0.03
0.03
0.03
0.03
0.03
0.03
0.03
0.03
0.03
0.03
0.03
0.03
0.03
0.03
0.03
0.03
0.03
0.03
0.03
0.03
0.03
0.03
0.03
0.03
0.03
0.03
0.03
0.03
0.03
0.03
0.03
0.03
0.03
0.03
0.03
0.03
0.03
0.03
0.03
0.03
0.03
0.03
0.03
0.03
0.03
0.03
0.03
0.03
0.03
0.03
0.03
0.03
0.03
0.03
0.03
0.03
0.03
0.03
0.03
0.03
0.03
0.03
0.03
0.03
0.03
0.03
0.03
0.03
0.03
0.03
0.03
0.03
0.03
0.03
0.03
0.03
0.03
0.03
0.03
0.03
0.03
0.03
0.03
0.03
0.03
0.03
0.03
0.03
0.03
0.03
0.03
0.03
0.03
0.03
0.03
0.03
0.03
0.03
0.03
0.03
0.03
0.03
0.03
0.03
0.03
0.03
0.03
0.03
0.03
0.03
0.03
0.03
0.03
0.03
0.03
0.03
0.03
0.03
0.03
0.03
0.03
0.03
0.03
0.03
0.03
0.03
0.03
0.03
0.03
0.03
0.03
0.03
0.03
0.03
0.03
0.03
0.03
0.03
0.03
0.03
0.03
0.03
0.03
0.03
0.03
0.03
0.03
0.03
0.03
0.03
0.03
0.03
SCALARS type float 1
LOOKUP_TABLE default
1.0
1.0
1.0
1.0
1.0
1.0
1.0
1.0
1.0
1.0
1.0
1.0
1.0
1.0
1.0
1.0
1.0
1.0
1.0
1.0
1.0
1.0
1.0
1.0
1.0
1.0
1.0
1.0
1.0
1.0
1.0
1.0
1.0
1.0
1.0
1.0
1.0
1.0
1.0
1.0
1.0
1.0
1.0
1.0
1.0
1.0
1.0
1.0
1.0
1.0
1.0
1.0
1.0
1.0
1.0
1.0
1.0
1.0
1.0
1.0
1.0
1.0
1.0
1.0
1.0
1.0
1.0
1.0
1.0
1.0
1.0
1.0
1.0
1.0
1.0
1.0
1.0
1.0
1.0
1.0
1.0
1.0
1.0
1.0
1.0
1.0
1.0
1.0
1.0
1.0
1.0
1.0
1.0
1.0
1.0
1.0
1.0
1.0
1.0
1.0
1.0
1.0
1.0
1.0
1.0
1.0
1.0
1.0
1.0
1.0
1.0
1.0
1.0
1.0
1.0
1.0
1.0
1.0
1.0
1.0
1.0
1.0
1.0
1.0
1.0
1.0
1.0
1.0
1.0
1.0
1.0
1.0
1.0
1.0
1.0
1.0
1.0
1.0
1.0
1.0
1.0
1.0
1.0
1.0
1.0
1.0
1.0
1.0
1.0
1.0
1.0
1.0
1.0
1.0
1.0
1.0
1.0
1.0
1.0
1.0
1.0
1.0
1.0
1.0
1.0
1.0
1.0
1.0
1.0
1.0
1.0
1.0
1.0
1.0
1.0
1.0
SCALARS id float 1
LOOKUP_TABLE default
100.0
123.0
79.0
105.0
129.0
149.0
41.0
21.0
82.0
66.0
85.0
152.0
49.0
42.0
112.0
16.0
98.0
92.0
144.0
29.0
166.0
167.0
53.0
137.0
99.0
104.0
138.0
18.0
94.0
127.0
91.0
108.0
81.0
145.0
131.0
97.0
51.0
128.0
5.0
76.0
133.0
24.0
151.0
2.0
146.0
171.0
1.0
19.0
12.0
61.0
72.0
45.0
71.0
80.0
17.0
174.0
15.0
47.0
130.0
32.0
73.0
116.0
55.0
31.0
93.0
44.0
4.0
107.0
148.0
64.0
57.0
83.0
118.0
164.0
125.0
60.0
70.0
23.0
26.0
28.0
68.0
77.0
75.0
46.0
140.0
10.0
102.0
155.0
136.0
157.0
173.0
176.0
67.0
110.0
22.0
120.0
135.0
156.0
35.0
25.0
165.0
63.0
101.0
30.0
163.0
52.0
143.0
86.0
40.0
13.0
8.0
58.0
78.0
109.0
113.0
33.0
134.0
162.0
159.0
139.0
158.0
69.0
117.0
43.0
121.0
153.0
147.0
150.0
87.0
115.0
37.0
119.0
168.0
48.0
3.0
50.0
27.0
38.0
90.0
170.0
11.0
111.0
114.0
141.0
7.0
14.0
62.0
169.0
54.0
95.0
103.0
65.0
56.0
154.0
161.0
126.0
36.0
142.0
175.0
59.0
74.0
6.0
84.0
39.0
96.0
132.0
89.0
124.0
106.0
122.0
20.0
172.0
34.0
9.0
88.0
160.0
SCALARS Temp float 1
LOOKUP_TABLE default
303.947
301.836
300.747
302.856
303.946
303.946
301.595
303.947
303.947
300.818
301.955
303.274
300.0
300.0
300.0
300.0
300.302
300.0
300.0
300.0
300.0
300.0
300.0
300.0
300.0
300.0
300.0
300.0
300.0
300.0
300.0
300.0
300.0
300.0
300.0
300.0
300.0
300.0
300.0
300.0
300.0
300.0
300.0
300.0
300.0
300.0
300.0
300.0
300.0
300.0
300.0
300.0
300.0
300.0
300.0
300.0
300.0
300.0
300.0
300.0
300.0
300.0
300.0
300.0
300.0
300.0
300.0
300.0
300.0
300.0
300.0
300.0
300.0
300.0
300.0
300.0
300.0
300.0
300.0
300.0
300.0
300.0
300.0
300.0
300.0
300.0
300.0
300.0
300.0
300.0
300.0
300.0
300.0
300.0
300.0
300.0
300.0
300.0
300.0
300.0
300.0
300.0
300.0
300.0
300.0
300.0
300.0
300.0
300.0
300.0
300.0
300.0
300.0
300.0
300.0
300.0
300.0
300.0
300.0
300.0
300.0
300.0
300.0
300.0
300.0
300.0
300.0
300.0
300.0
300.0
300.0
300.0
300.0
300.0
300.0
300.0
300.0
300.0
300.0
300.0
300.0
300.0
300.0
300.0
300.0
300.0
300.0
300.0
300.0
300.0
300.0
300.0
300.0
300.0
300.0
300.0
300.0
300.0
300.0
300.0
300.0
300.0
300.0
300.0
300.0
300.0
300.0
300.0
300.0
300.0
300.0
300.0
300.0
300.0
300.0
300.0

