# vtk DataFile Version 2.0
Generated by lpp.py
ASCII
DATASET POLYDATA
POINTS 176 float
0.389069 0.18458 1.57729
0.125592 0.228593 1.5732
0.211744 0.200213 1.57955
0.452006 0.200068 1.57693
0.294101 0.234913 1.57385
0.367291 0.264852 1.57605
0.223265 0.288759 1.58122
0.423754 0.278861 1.58362
0.513112 0.271255 1.57644
0.157901 0.325317 1.57778
0.33942 0.331066 1.57617
0.475777 0.317657 1.58358
0.585062 0.315772 1.58316
0.208087 0.360016 1.57626
0.397273 0.342907 1.57889
0.450669 0.372504 1.57888
0.563054 0.410495 1.57957
0.245057 0.421604 1.5849
0.33651 0.443369 1.58991
0.282203 0.468357 1.57902
0.511884 0.45477 1.57975
0.138561 0.512464 1.58071
0.398603 0.488805 1.57784
0.448115 0.518636 1.59454
0.558233 0.510075 1.57663
0.252442 0.535005 1.57623
0.311241 0.524404 1.5759
0.381786 0.549203 1.58149
0.355793 0.219474 1.613
0.611177 0.225578 1.6236
0.449555 0.248211 1.62318
0.565299 0.264304 1.63559
0.317516 0.271633 1.61357
0.156823 0.324263 1.64377
0.298168 0.340953 1.61916
0.400879 0.348571 1.63903
0.398328 0.417368 1.59008
0.461936 0.4287 1.60185
0.613424 0.429958 1.62127
0.42795 0.470667 1.62579
0.238232 0.496143 1.61998
0.497572 0.5079 1.6242
0.584743 0.484456 1.62244
0.341672 0.518137 1.62588
0.23823 0.228764 1.62396
0.390513 0.291906 1.65072
0.233362 0.375384 1.6316
0.111154 0.43018 1.63194
0.251888 0.441486 1.64257
0.33219 0.417959 1.64703
0.174746 0.456274 1.62439
0.219922 0.334748 1.67614
0.485944 0.343638 1.66418
0.173434 0.391321 1.6448
0.119943 0.514428 1.64885
0.405233 0.519712 1.64684
0.334819 0.324289 1.68465
0.457584 0.468554 1.69596
0.188775 0.261917 1.71631
0.403959 0.242371 1.78279
0.244548 0.285112 1.75701
0.154593 0.314223 1.75023
0.388697 0.32831 1.75572
0.10471 0.363257 1.77015
0.478047 0.398941 1.76219
0.400035 0.441344 1.76931
0.283869 0.446206 1.76832
0.309578 0.507986 1.76947
0.137853 0.229319 1.80547
0.185895 0.369748 1.80066
0.218563 0.442358 1.82098
0.100655 0.458725 1.80447
0.226898 0.506806 1.79976
0.369388 0.526215 1.81533
0.329189 0.252757 1.83801
0.144122 0.349922 1.8942
0.298609 0.364728 1.88038
0.368876 0.379155 1.86509
0.47867 0.463 1.86097
0.112056 0.26459 1.89923
0.218269 0.254539 1.92419
0.228049 0.384522 1.91721
0.497086 0.400324 1.92646
0.108382 0.420889 1.9295
0.179788 0.4242 1.914
0.10161 0.511094 1.91251
0.190793 0.498184 1.91208
0.421483 0.499457 1.91901
0.377994 0.24098 1.94877
0.43763 0.245516 1.93469
0.235855 0.316318 1.94171
0.368613 0.311971 1.9482
0.486179 0.312628 1.94951
0.486742 0.509906 1.93755
0.290891 0.301706 1.99304
0.181029 0.318367 1.99541
0.41904 0.310566 1.99898
0.278223 0.363632 1.99998
0.155769 0.403018 2.00351
0.438372 0.392123 1.97745
0.353388 0.44487 1.98252
0.419456 0.449551 1.99575
0.307792 0.495572 1.98422
0.218974 0.524143 2.00314
0.178322 0.227864 2.03796
0.254767 0.230824 2.00811
0.408343 0.240904 2.03028
0.495956 0.249499 2.01921
0.355542 0.30862 2.03407
0.499251 0.382901 2.03555
0.240863 0.437556 2.01316
0.161462 0.479607 2.03891
0.476719 0.464357 2.0274
0.105277 0.51875 2.03487
0.423627 0.520356 2.02911
0.117057 0.232547 2.06535
0.150682 0.290471 2.04822
0.46021 0.268154 2.07579
0.294692 0.330306 2.07293
0.414233 0.306803 2.07248
0.118071 0.372478 2.04713
0.216306 0.357237 2.04602
0.429922 0.3736 2.0522
0.367693 0.467546 2.06384
0.313052 0.494322 2.07354
0.199862 0.243713 2.09294
0.33461 0.249494 2.08199
0.258494 0.28056 2.08116
0.375347 0.345395 2.105
0.169236 0.376906 2.10011
0.320208 0.403691 2.08809
0.261069 0.440732 2.10621
0.491591 0.428372 2.10117
0.113325 0.448918 2.09014
0.209546 0.484752 2.08139
0.446997 0.50849 2.0849
0.387237 0.525686 2.08208
0.254698 0.262308 2.1426
0.417913 0.266516 2.13416
0.121033 0.279919 2.14222
0.187546 0.294736 2.14886
0.47999 0.300848 2.12322
0.103577 0.34242 2.12791
0.230407 0.340128 2.12579
0.287678 0.358468 2.14158
0.227036 0.399722 2.13926
0.380254 0.404128 2.13153
0.448915 0.39365 2.13864
0.441781 0.458388 2.12924
0.131272 0.513706 2.12661
0.35506 0.52072 2.14723
0.365118 0.235733 2.16568
0.378219 0.307765 2.15893
0.360498 0.363939 2.17203
0.10427 0.421706 2.16997
0.200976 0.455034 2.16494
0.317689 0.454971 2.17695
0.491668 0.49724 2.17518
0.208645 0.523817 2.16003
0.136955 0.241756 2.21145
0.29951 0.265646 2.19473
0.478513 0.241448 2.20775
0.200031 0.295208 2.20871
0.352336 0.290052 2.21528
0.26261 0.317421 2.19461
0.121236 0.342722 2.19496
0.234882 0.370686 2.1919
0.43656 0.349215 2.20852
0.18594 0.400862 2.21647
0.288982 0.398489 2.21045
0.41824 0.41741 2.21107
0.250123 0.467148 2.20514
0.485548 0.450278 2.21645
0.124302 0.506318 2.19864
0.302009 0.506095 2.21474
0.387139 0.48601 2.19051
VERTICES 176 352
1 0
1 1
1 2
1 3
1 4
1 5
1 6
1 7
1 8
1 9
1 10
1 11
1 12
1 13
1 14
1 15
1 16
1 17
1 18
1 19
1 20
1 21
1 22
1 23
1 24
1 25
1 26
1 27
1 28
1 29
1 30
1 31
1 32
1 33
1 34
1 35
1 36
1 37
1 38
1 39
1 40
1 41
1 42
1 43
1 44
1 45
1 46
1 47
1 48
1 49
1 50
1 51
1 52
1 53
1 54
1 55
1 56
1 57
1 58
1 59
1 60
1 61
1 62
1 63
1 64
1 65
1 66
1 67
1 68
1 69
1 70
1 71
1 72
1 73
1 74
1 75
1 76
1 77
1 78
1 79
1 80
1 81
1 82
1 83
1 84
1 85
1 86
1 87
1 88
1 89
1 90
1 91
1 92
1 93
1 94
1 95
1 96
1 97
1 98
1 99
1 100
1 101
1 102
1 103
1 104
1 105
1 106
1 107
1 108
1 109
1 110
1 111
1 112
1 113
1 114
1 115
1 116
1 117
1 118
1 119
1 120
1 121
1 122
1 123
1 124
1 125
1 126
1 127
1 128
1 129
1 130
1 131
1 132
1 133
1 134
1 135
1 136
1 137
1 138
1 139
1 140
1 141
1 142
1 143
1 144
1 145
1 146
1 147
1 148
1 149
1 150
1 151
1 152
1 153
1 154
1 155
1 156
1 157
1 158
1 159
1 160
1 161
1 162
1 163
1 164
1 165
1 166
1 167
1 168
1 169
1 170
1 171
1 172
1 173
1 174
1 175
POINT_DATA 176
VECTORS i float
0.0 0.0 0.0
0.0 0.0 0.0
0.0 0.0 0.0
0.0 0.0 0.0
0.0 0.0 0.0
0.0 0.0 0.0
0.0 0.0 0.0
0.0 0.0 0.0
0.0 0.0 0.0
0.0 0.0 0.0
0.0 0.0 0.0
0.0 0.0 0.0
0.0 0.0 0.0
0.0 0.0 0.0
0.0 0.0 0.0
0.0 0.0 0.0
0.0 0.0 0.0
0.0 0.0 0.0
0.0 0.0 0.0
0.0 0.0 0.0
0.0 0.0 0.0
0.0 0.0 0.0
0.0 0.0 0.0
0.0 0.0 0.0
0.0 0.0 0.0
0.0 0.0 0.0
0.0 0.0 0.0
0.0 0.0 0.0
0.0 0.0 0.0
0.0 0.0 0.0
0.0 0.0 0.0
0.0 0.0 0.0
0.0 0.0 0.0
0.0 0.0 0.0
0.0 0.0 0.0
0.0 0.0 0.0
0.0 0.0 0.0
0.0 0.0 0.0
0.0 0.0 0.0
0.0 0.0 0.0
0.0 0.0 0.0
0.0 0.0 0.0
0.0 0.0 0.0
0.0 0.0 0.0
0.0 0.0 0.0
0.0 0.0 0.0
0.0 0.0 0.0
0.0 0.0 0.0
0.0 0.0 0.0
0.0 0.0 0.0
0.0 0.0 0.0
0.0 0.0 0.0
0.0 0.0 0.0
0.0 0.0 0.0
0.0 0.0 0.0
0.0 0.0 0.0
0.0 0.0 0.0
0.0 0.0 0.0
0.0 0.0 0.0
0.0 0.0 0.0
0.0 0.0 0.0
0.0 0.0 0.0
0.0 0.0 0.0
0.0 0.0 0.0
0.0 0.0 0.0
0.0 0.0 0.0
0.0 0.0 0.0
0.0 0.0 0.0
0.0 0.0 0.0
0.0 0.0 0.0
0.0 0.0 0.0
0.0 0.0 0.0
0.0 0.0 0.0
0.0 0.0 0.0
0.0 0.0 0.0
0.0 0.0 0.0
0.0 0.0 0.0
0.0 0.0 0.0
0.0 0.0 0.0
0.0 0.0 0.0
0.0 0.0 0.0
0.0 0.0 0.0
0.0 0.0 0.0
0.0 0.0 0.0
0.0 0.0 0.0
0.0 0.0 0.0
0.0 0.0 0.0
0.0 0.0 0.0
0.0 0.0 0.0
0.0 0.0 0.0
0.0 0.0 0.0
0.0 0.0 0.0
0.0 0.0 0.0
0.0 0.0 0.0
0.0 0.0 0.0
0.0 0.0 0.0
0.0 0.0 0.0
0.0 0.0 0.0
0.0 0.0 0.0
0.0 0.0 0.0
0.0 0.0 0.0
0.0 0.0 0.0
0.0 0.0 0.0
0.0 0.0 0.0
0.0 0.0 0.0
0.0 0.0 0.0
0.0 0.0 0.0
0.0 0.0 0.0
0.0 0.0 0.0
0.0 0.0 0.0
0.0 0.0 0.0
0.0 0.0 0.0
0.0 0.0 0.0
0.0 0.0 0.0
0.0 0.0 0.0
0.0 0.0 0.0
0.0 0.0 0.0
0.0 0.0 0.0
0.0 0.0 0.0
0.0 0.0 0.0
0.0 0.0 0.0
0.0 0.0 0.0
0.0 0.0 0.0
0.0 0.0 0.0
0.0 0.0 0.0
0.0 0.0 0.0
0.0 0.0 0.0
0.0 0.0 0.0
0.0 0.0 0.0
0.0 0.0 0.0
0.0 0.0 0.0
0.0 0.0 0.0
0.0 0.0 0.0
0.0 0.0 0.0
0.0 0.0 0.0
0.0 0.0 0.0
0.0 0.0 0.0
0.0 0.0 0.0
0.0 0.0 0.0
0.0 0.0 0.0
0.0 0.0 0.0
0.0 0.0 0.0
0.0 0.0 0.0
0.0 0.0 0.0
0.0 0.0 0.0
0.0 0.0 0.0
0.0 0.0 0.0
0.0 0.0 0.0
0.0 0.0 0.0
0.0 0.0 0.0
0.0 0.0 0.0
0.0 0.0 0.0
0.0 0.0 0.0
0.0 0.0 0.0
0.0 0.0 0.0
0.0 0.0 0.0
0.0 0.0 0.0
0.0 0.0 0.0
0.0 0.0 0.0
0.0 0.0 0.0
0.0 0.0 0.0
0.0 0.0 0.0
0.0 0.0 0.0
0.0 0.0 0.0
0.0 0.0 0.0
0.0 0.0 0.0
0.0 0.0 0.0
0.0 0.0 0.0
0.0 0.0 0.0
0.0 0.0 0.0
0.0 0.0 0.0
0.0 0.0 0.0
0.0 0.0 0.0
0.0 0.0 0.0
0.0 0.0 0.0
0.0 0.0 0.0
VECTORS f float
2.06249 9.1463 6.86073
-48.8988 0.0 68.6317
-21.172 34.3583 -137.462
20.9761 57.2372 51.2793
21.7364 -32.4645 55.36
-17.8693 -2.28454 -17.3417
0.0 0.0 -2.77371
-53.8666 72.4451 -112.432
-3.76921 5.13035 2.59548
0.0 0.0 -2.77371
-3.74075 -0.136368 1.39277
2.05316 -2.51056 -1.8793
0.0 0.0 -2.77371
3.49289 -0.948812 4.46521
7.95116 0.76526 1.57405
0.0 0.0 -2.77371
0.0 0.0 -2.77371
0.0 0.0 -2.77371
0.0 0.0 -2.77371
0.0 0.0 -2.77371
0.0 0.0 -2.77371
0.0 0.0 -2.77371
-8.71613 -2.5611 -29.2048
-56.7749 26.7184 -19.4383
9.12046 0.575642 3.40552
0.318928 0.53457 3.78592
1.83466 3.49568 -21.024
0.0 0.0 -2.77371
-1.12547 -1.45389 0.458431
0.0 0.0 -2.77371
73.9354 -68.0829 120.705
0.0 0.0 -2.77371
-14.7807 38.4346 60.9619
0.0 0.0 -2.77371
0.0 0.0 -2.77371
-0.0976053 11.5195 -11.193
0.0 0.0 -2.77371
17.2262 -27.505 -1.76238
0.0 0.0 -2.77371
-1.97765 22.441 12.7972
0.0 0.0 -2.77371
56.7749 -26.7184 13.8908
0.406842 -6.19175 13.1658
3.23224 -4.19451 37.2275
21.172 -34.3583 131.914
0.0976053 -11.5195 5.6456
0.0 0.0 -2.77371
0.0 0.0 -2.77371
0.0 0.0 -2.77371
0.0 0.0 -2.77371
0.0 0.0 -2.77371
0.0 0.0 -2.77371
0.0 0.0 -2.77371
0.0 0.0 -2.77371
0.0 0.0 -2.77371
-6.53238 7.62517 7.07512
0.0 0.0 -2.77371
0.0 0.0 -2.77371
0.0 0.0 -2.77371
0.0 0.0 -2.77371
0.0 0.0 -2.77371
0.0 0.0 -2.77371
0.0 0.0 -2.77371
0.0 0.0 -2.77371
0.0 0.0 -2.77371
0.0 0.0 -2.77371
0.0 0.0 -2.77371
0.0 0.0 -2.77371
0.0 0.0 -2.77371
0.0 0.0 -2.77371
0.0 0.0 -2.77371
0.0 0.0 -2.77371
0.0 0.0 -2.77371
0.0 0.0 -2.77371
0.0 0.0 -2.77371
0.0 0.0 -2.77371
0.0 0.0 -2.77371
0.0 0.0 -2.77371
0.0 0.0 -2.77371
0.0 0.0 -2.77371
0.0 0.0 -2.77371
0.0 0.0 -2.77371
0.0 0.0 -2.77371
0.0 0.0 -2.77371
0.0 0.0 -2.77371
0.0 0.0 -2.77371
0.0 0.0 -2.77371
0.0 0.0 -2.77371
0.0 0.0 -2.77371
0.0 0.0 -2.77371
0.0 0.0 -2.77371
0.0 0.0 -2.77371
0.0 0.0 -2.77371
0.0 0.0 -2.77371
0.0 0.0 -2.77371
0.0 0.0 -2.77371
0.0 0.0 -2.77371
0.0 0.0 -2.77371
0.0 0.0 -2.77371
0.0 0.0 -2.77371
0.0 0.0 -2.77371
0.0 0.0 -2.77371
0.0 0.0 -2.77371
0.0 0.0 -2.77371
0.0 0.0 -2.77371
0.0 0.0 -2.77371
0.0 0.0 -2.77371
0.0 0.0 -2.77371
0.0 0.0 -2.77371
0.0 0.0 -2.77371
0.0 0.0 -2.77371
0.0 0.0 -2.77371
0.0 0.0 -2.77371
0.0 0.0 -2.77371
0.0 0.0 -2.77371
0.0 0.0 0.0
0.0 0.0 0.0
0.0 0.0 0.0
0.0 0.0 0.0
0.0 0.0 0.0
0.0 0.0 0.0
0.0 0.0 -2.77371
0.0 0.0 0.0
0.0 0.0 0.0
0.0 0.0 0.0
0.0 0.0 0.0
0.0 0.0 0.0
0.0 0.0 0.0
0.0 0.0 0.0
0.0 0.0 0.0
0.0 0.0 0.0
0.0 0.0 0.0
0.0 0.0 0.0
0.0 0.0 0.0
0.0 0.0 0.0
0.0 0.0 0.0
0.0 0.0 0.0
0.0 0.0 0.0
0.0 0.0 0.0
0.0 0.0 0.0
0.0 0.0 0.0
0.0 0.0 0.0
0.0 0.0 0.0
0.0 0.0 0.0
0.0 0.0 0.0
0.0 0.0 0.0
0.0 0.0 0.0
0.0 0.0 0.0
0.0 0.0 0.0
0.0 0.0 0.0
0.0 0.0 0.0
0.0 0.0 0.0
0.0 0.0 0.0
0.0 0.0 0.0
0.0 0.0 0.0
0.0 0.0 0.0
0.0 0.0 0.0
0.0 0.0 0.0
0.0 0.0 0.0
0.0 0.0 0.0
0.0 0.0 0.0
0.0 0.0 0.0
0.0 0.0 0.0
0.0 0.0 0.0
0.0 0.0 0.0
0.0 0.0 0.0
0.0 0.0 0.0
0.0 0.0 0.0
0.0 0.0 0.0
0.0 0.0 0.0
0.0 0.0 0.0
0.0 0.0 0.0
0.0 0.0 0.0
0.0 0.0 0.0
0.0 0.0 0.0
0.0 0.0 0.0
VECTORS omega float
12.3148 -75.7785 18.14
0.0 -114.873 0.0
21.2921 -79.573 1.79217
-16.4649 -79.1683 -13.2773
9.10434 -89.434 3.91417
3.30916 -83.5188 -0.202226
4.59683 -87.1898 0.853796
25.2965 -45.2755 -2.45837
-4.72323 -94.6515 -4.23936
-5.34938 -80.6404 4.58135
0.620392 -66.0363 -5.82127
28.3119 54.3815 17.4448
11.2489 -69.1239 15.7782
0.777615 -34.8858 1.79763
6.23755 -62.6334 -27.5998
10.6961 -95.272 -21.9407
-18.7762 -54.8839 15.1098
5.09631 -102.228 -6.79771
1.7046 45.6944 13.8895
11.2511 -49.2698 -11.5898
-1.23869 -88.0959 3.11559
9.34202 -15.6273 1.86365
-15.4358 -76.8435 -5.24353
4.82582 27.6908 -22.9385
2.99383 -38.2057 -0.206961
-22.037 -88.0697 -0.886686
-5.13006 -81.3557 8.469
-11.1787 -77.8944 -2.14642
-4.62087 -5.69517 4.64876
7.50631 -87.184 -1.17518
-12.1357 29.354 -9.21996
22.239 -78.6866 4.27378
-22.9951 29.6834 -8.71139
-3.85024 37.6361 -18.5912
-1.80788 -0.56761 -0.0151127
12.2056 29.2569 -43.6646
25.2884 1.07695 -5.92711
-55.8906 54.3403 8.41058
0.0 -95.0016 0.0
-15.2299 34.4059 40.0363
30.7194 6.15548 9.34201
-33.7728 -10.3072 -8.95429
6.64597 -73.6196 7.54617
30.0735 39.3942 1.06063
-2.92957 13.7649 5.37311
-3.33423 62.2944 -5.11516
16.5515 69.6092 -0.17156
0.0 0.0 0.0
-9.48252 -0.253803 13.0769
-7.16017 -68.7873 0.132705
0.0 0.0 0.0
0.0 0.0 0.0
0.0 0.0 0.0
0.0 0.0 0.0
0.0 0.0 0.0
-58.6632 -32.8083 17.8539
0.0 0.0 0.0
0.0 0.0 0.0
0.0 0.0 0.0
0.0 0.0 0.0
0.0 0.0 0.0
0.0 0.0 0.0
0.0 0.0 0.0
0.0 0.0 0.0
0.0 0.0 0.0
0.0 0.0 0.0
0.0 0.0 0.0
0.0 0.0 0.0
0.0 0.0 0.0
0.0 0.0 0.0
0.0 0.0 0.0
0.0 0.0 0.0
0.0 0.0 0.0
0.0 0.0 0.0
0.0 0.0 0.0
0.0 0.0 0.0
0.0 0.0 0.0
0.0 0.0 0.0
0.0 0.0 0.0
0.0 0.0 0.0
0.0 0.0 0.0
0.0 0.0 0.0
0.0 0.0 0.0
0.0 0.0 0.0
0.0 0.0 0.0
0.0 0.0 0.0
0.0 0.0 0.0
0.0 0.0 0.0
0.0 0.0 0.0
0.0 0.0 0.0
0.0 0.0 0.0
0.0 0.0 0.0
0.0 0.0 0.0
0.0 0.0 0.0
0.0 0.0 0.0
0.0 0.0 0.0
0.0 0.0 0.0
0.0 0.0 0.0
0.0 0.0 0.0
0.0 0.0 0.0
0.0 0.0 0.0
0.0 0.0 0.0
0.0 0.0 0.0
0.0 0.0 0.0
0.0 0.0 0.0
0.0 0.0 0.0
0.0 0.0 0.0
0.0 0.0 0.0
0.0 0.0 0.0
0.0 0.0 0.0
0.0 0.0 0.0
0.0 0.0 0.0
0.0 0.0 0.0
0.0 0.0 0.0
0.0 0.0 0.0
0.0 0.0 0.0
0.0 0.0 0.0
0.0 0.0 0.0
0.0 0.0 0.0
0.0 0.0 0.0
0.0 0.0 0.0
0.0 0.0 0.0
0.0 0.0 0.0
0.0 0.0 0.0
0.0 0.0 0.0
0.0 0.0 0.0
0.0 0.0 0.0
0.0 0.0 0.0
0.0 0.0 0.0
0.0 0.0 0.0
0.0 0.0 0.0
0.0 0.0 0.0
0.0 0.0 0.0
0.0 0.0 0.0
0.0 0.0 0.0
0.0 0.0 0.0
0.0 0.0 0.0
0.0 0.0 0.0
0.0 0.0 0.0
0.0 0.0 0.0
0.0 0.0 0.0
0.0 0.0 0.0
0.0 0.0 0.0
0.0 0.0 0.0
0.0 0.0 0.0
0.0 0.0 0.0
0.0 0.0 0.0
0.0 0.0 0.0
0.0 0.0 0.0
0.0 0.0 0.0
0.0 0.0 0.0
0.0 0.0 0.0
0.0 0.0 0.0
0.0 0.0 0.0
0.0 0.0 0.0
0.0 0.0 0.0
0.0 0.0 0.0
0.0 0.0 0.0
0.0 0.0 0.0
0.0 0.0 0.0
0.0 0.0 0.0
0.0 0.0 0.0
0.0 0.0 0.0
0.0 0.0 0.0
0.0 0.0 0.0
0.0 0.0 0.0
0.0 0.0 0.0
0.0 0.0 0.0
0.0 0.0 0.0
0.0 0.0 0.0
0.0 0.0 0.0
0.0 0.0 0.0
0.0 0.0 0.0
0.0 0.0 0.0
0.0 0.0 0.0
0.0 0.0 0.0
VECTORS v float
2.08947 -0.173315 0.353243
1.44425 0.0 1.16361
1.4802 -0.854665 0.428702
1.06377 -1.05765 -1.24954
1.59934 -0.166924 0.151012
1.41292 -0.113446 0.34435
1.41243 -0.134363 0.396766
1.49125 0.133341 -0.175298
1.69411 -0.62534 0.104701
1.32554 -0.02929 0.105574
1.98747 -0.0158152 0.192046
1.09627 -0.775964 -0.134949
1.94428 -0.340667 -0.109936
1.46494 0.385434 0.17072
2.16008 -0.261092 0.725779
1.21435 -0.343265 0.415095
2.06129 0.230521 0.005913
0.826622 0.2881 -0.370497
0.915154 0.329343 0.0410674
0.832447 0.381985 0.0199403
1.38333 0.0381862 0.43053
-0.81026 -0.144256 -1.30459
1.54202 0.625852 0.0437663
1.25564 0.514005 -0.0479584
2.5531 0.0946097 -0.271472
1.49387 0.602771 0.179092
1.57588 0.158369 0.145541
1.68242 0.325941 0.403457
0.0961372 -0.636917 -0.701139
1.34063 -0.122853 0.128821
0.464424 0.353032 -0.47118
1.14574 -0.250847 0.36189
0.724456 -0.613222 -0.5891
0.0888413 0.111255 0.959745
0.452074 0.195407 -0.971081
1.14021 -0.467996 1.02718
1.66543 0.0953366 -1.31082
1.1115 0.419307 -0.353635
1.1962 0.0 0.0453919
1.36657 0.101213 -0.387326
-0.222075 0.21807 -0.358299
0.553498 0.473758 -0.618077
1.18209 -0.17081 0.56297
0.43252 -0.282763 0.308157
-0.510384 -0.197278 -1.61458
0.0334077 -0.57255 0.673788
-0.0934041 -0.474488 -0.445611
0.0 0.0 -3.02415
0.45151 -0.108046 -0.802635
0.283283 -0.0304377 -1.24848
0.0 0.0 -3.04857
0.0 0.0 -2.87719
0.0 0.0 -2.91771
0.0 0.0 -2.98216
0.0 0.0 -2.96882
-0.0645805 0.840295 -1.65317
0.0 0.0 -2.84806
0.0 0.0 -2.80882
0.0 0.0 -2.73681
0.0 0.0 -2.48715
0.0 0.0 -2.58682
0.0 0.0 -2.61242
0.0 0.0 -2.59172
0.0 0.0 -2.53649
0.0 0.0 -2.5671
0.0 0.0 -2.53973
0.0 0.0 -2.54355
0.0 0.0 -2.53914
0.0 0.0 -2.39601
0.0 0.0 -2.41563
0.0 0.0 -2.33166
0.0 0.0 -2.40013
0.0 0.0 -2.41926
0.0 0.0 -2.3553
0.0 0.0 -2.25887
0.0 0.0 -1.99998
0.0 0.0 -2.06669
0.0 0.0 -2.13801
0.0 0.0 -2.15684
0.0 0.0 -1.97516
0.0 0.0 -1.84704
0.0 0.0 -1.88373
0.0 0.0 -1.83498
0.0 0.0 -1.8186
0.0 0.0 -1.90041
0.0 0.0 -1.90806
0.0 0.0 -1.91032
0.0 0.0 -1.87441
0.0 0.0 -1.71157
0.0 0.0 -1.79044
0.0 0.0 -1.7515
0.0 0.0 -1.71481
0.0 0.0 -1.70725
0.0 0.0 -1.77465
0.0 0.0 -1.43551
0.0 0.0 -1.41923
0.0 0.0 -1.39441
0.0 0.0 -1.38735
0.0 0.0 -1.36214
0.0 0.0 -1.53842
0.0 0.0 -1.50575
0.0 0.0 -1.41688
0.0 0.0 -1.49457
0.0 0.0 -1.36478
0.0 0.0 -1.08598
0.0 0.0 -1.32859
0.0 0.0 -1.15338
0.0 0.0 -1.24393
0.0 0.0 -1.12061
0.0 0.0 -1.10757
0.0 0.0 -1.29072
0.0 0.0 -1.07735
0.0 0.0 -1.17761
0.0 0.0 -1.11355
0.0 0.0 -1.16319
-0 -0 -1.0
-0 -0 -1.0
-0 -0 -1.0
-0 -0 -1.0
-0 -0 -1.0
-0 -0 -1.0
0.0 0.0 -1.01055
-0 -0 -1.0
-0 -0 -1.0
-0 -0 -1.0
-0 -0 -1.0
-0 -0 -1.0
-0 -0 -1.0
-0 -0 -1.0
-0 -0 -1.0
-0 -0 -1.0
-0 -0 -1.0
-0 -0 -1.0
-0 -0 -1.0
-0 -0 -1.0
-0 -0 -1.0
-0 -0 -1.0
-0 -0 -1.0
-0 -0 -1.0
-0 -0 -1.0
-0 -0 -1.0
-0 -0 -1.0
-0 -0 -1.0
-0 -0 -1.0
-0 -0 -1.0
-0 -0 -1.0
-0 -0 -1.0
-0 -0 -1.0
-0 -0 -1.0
-0 -0 -1.0
-0 -0 -1.0
-0 -0 -1.0
-0 -0 -1.0
-0 -0 -1.0
-0 -0 -1.0
-0 -0 -1.0
-0 -0 -1.0
-0 -0 -1.0
-0 -0 -1.0
-0 -0 -1.0
-0 -0 -1.0
-0 -0 -1.0
-0 -0 -1.0
-0 -0 -1.0
-0 -0 -1.0
-0 -0 -1.0
-0 -0 -1.0
-0 -0 -1.0
-0 -0 -1.0
-0 -0 -1.0
-0 -0 -1.0
-0 -0 -1.0
-0 -0 -1.0
-0 -0 -1.0
-0 -0 -1.0
-0 -0 -1.0
SCALARS radius float 1
LOOKUP_TABLE default
0.03
0.03
0.03
0.03
0.03
0.03
0.03
0.03
0.03
0.03
0.03
0.03
0.03
0.03
0.03
0.03
0.03
0.03
0.03
0.03
0.03
0.03
0.03
0.03
0.03
0.03
0.03
0.03
0.03
0.03
0.03
0.03
0.03
0.03
0.03
0.03
0.03
0.03
0.03
0.03
0.03
0.03
0.03
0.03
0.03
0.03
0.03
0.03
0.03
0.03
0.03
0.03
0.03
0.03
0.03
0.03
0.03
0.03
0.03
0.03
0.03
0.03
0.03
0.03
0.03
0.03
0.03
0.03
0.03
0.03
0.03
0.03
0.03
0.03
0.03
0.03
0.03
0.03
0.03
0.03
0.03
0.03
0.03
0.03
0.03
0.03
0.03
0.03
0.03
0.03
0.03
0.03
0.03
0.03
0.03
0.03
0.03
0.03
0.03
0.03
0.03
0.03
0.03
0.03
0.03
0.03
0.03
0.03
0.03
0.03
0.03
0.03
0.03
0.03
0.03
0.03
0.03
0.03
0.03
0.03
0.03
0.03
0.03
0.03
0.03
0.03
0.03
0.03
0.03
0.03
0.03
0.03
0.03
0.03
0.03
0.03
0.03
0.03
0.03
0.03
0.03
0.03
0.03
0.03
0.03
0.03
0.03
0.03
0.03
0.03
0.03
0.03
0.03
0.03
0.03
0.03
0.03
0.03
0.03
0.03
0.03
0.03
0.03
0.03
0.03
0.03
0.03
0.03
0.03
0.03
0.03
0.03
0.03
0.03
0.03
0.03
SCALARS type float 1
LOOKUP_TABLE default
1.0
1.0
1.0
1.0
1.0
1.0
1.0
1.0
1.0
1.0
1.0
1.0
1.0
1.0
1.0
1.0
1.0
1.0
1.0
1.0
1.0
1.0
1.0
1.0
1.0
1.0
1.0
1.0
1.0
1.0
1.0
1.0
1.0
1.0
1.0
1.0
1.0
1.0
1.0
1.0
1.0
1.0
1.0
1.0
1.0
1.0
1.0
1.0
1.0
1.0
1.0
1.0
1.0
1.0
1.0
1.0
1.0
1.0
1.0
1.0
1.0
1.0
1.0
1.0
1.0
1.0
1.0
1.0
1.0
1.0
1.0
1.0
1.0
1.0
1.0
1.0
1.0
1.0
1.0
1.0
1.0
1.0
1.0
1.0
1.0
1.0
1.0
1.0
1.0
1.0
1.0
1.0
1.0
1.0
1.0
1.0
1.0
1.0
1.0
1.0
1.0
1.0
1.0
1.0
1.0
1.0
1.0
1.0
1.0
1.0
1.0
1.0
1.0
1.0
1.0
1.0
1.0
1.0
1.0
1.0
1.0
1.0
1.0
1.0
1.0
1.0
1.0
1.0
1.0
1.0
1.0
1.0
1.0
1.0
1.0
1.0
1.0
1.0
1.0
1.0
1.0
1.0
1.0
1.0
1.0
1.0
1.0
1.0
1.0
1.0
1.0
1.0
1.0
1.0
1.0
1.0
1.0
1.0
1.0
1.0
1.0
1.0
1.0
1.0
1.0
1.0
1.0
1.0
1.0
1.0
1.0
1.0
1.0
1.0
1.0
1.0
SCALARS id float 1
LOOKUP_TABLE default
137.0
128.0
108.0
94.0
123.0
49.0
79.0
129.0
105.0
99.0
29.0
145.0
92.0
149.0
104.0
112.0
138.0
41.0
21.0
166.0
16.0
51.0
98.0
53.0
18.0
66.0
85.0
167.0
171.0
100.0
1.0
42.0
81.0
5.0
76.0
19.0
144.0
24.0
82.0
131.0
97.0
151.0
152.0
2.0
146.0
127.0
91.0
80.0
12.0
133.0
61.0
72.0
45.0
71.0
17.0
174.0
47.0
130.0
15.0
32.0
73.0
116.0
55.0
31.0
93.0
44.0
4.0
107.0
148.0
57.0
83.0
118.0
164.0
125.0
64.0
70.0
23.0
26.0
68.0
60.0
46.0
157.0
173.0
176.0
28.0
77.0
75.0
67.0
140.0
10.0
102.0
155.0
136.0
110.0
135.0
156.0
35.0
25.0
165.0
63.0
30.0
163.0
52.0
143.0
86.0
22.0
40.0
120.0
8.0
113.0
101.0
33.0
134.0
162.0
159.0
139.0
13.0
43.0
121.0
153.0
58.0
78.0
109.0
87.0
37.0
158.0
69.0
117.0
27.0
38.0
147.0
90.0
170.0
150.0
115.0
119.0
168.0
114.0
7.0
14.0
62.0
48.0
3.0
50.0
54.0
95.0
103.0
65.0
11.0
111.0
161.0
141.0
169.0
59.0
74.0
56.0
6.0
96.0
154.0
132.0
126.0
89.0
124.0
106.0
36.0
142.0
175.0
122.0
20.0
172.0
34.0
9.0
88.0
84.0
160.0
39.0
SCALARS Temp float 1
LOOKUP_TABLE default
307.339
302.726
303.738
303.859
305.609
314.01
307.423
311.548
310.604
309.347
309.63
300.27
307.46
305.919
307.081
315.333
303.511
309.545
311.264
310.769
307.4
300.07
310.659
303.905
307.017
314.409
309.847
308.576
300.12
303.947
300.05
303.946
300.147
300.128
300.054
300.06
300.363
300.22
303.947
300.158
300.242
300.053
303.956
300.125
300.028
300.155
300.15
300.0
300.002
300.001
300.0
300.0
300.0
300.0
300.0
300.001
300.0
300.0
300.0
300.0
300.0
300.0
300.0
300.0
300.0
300.0
300.0
300.0
300.0
300.0
300.0
300.0
300.0
300.0
300.0
300.0
300.0
300.0
300.0
300.0
300.0
300.0
300.0
300.0
300.0
300.0
300.0
300.0
300.0
300.0
300.0
300.0
300.0
300.0
300.0
300.0
300.0
300.0
300.0
300.0
300.0
300.0
300.0
300.0
300.0
300.0
300.0
300.0
300.0
300.0
300.0
300.0
300.0
300.0
300.0
300.0
300.0
300.0
300.0
300.0
300.0
300.0
300.0
300.0
300.0
300.0
300.0
300.0
300.0
300.0
300.0
300.0
300.0
300.0
300.0
300.0
300.0
300.0
300.0
300.0
300.0
300.0
300.0
300.0
300.0
300.0
300.0
300.0
300.0
300.0
300.0
300.0
300.0
300.0
300.0
300.0
300.0
300.0
300.0
300.0
300.0
300.0
300.0
300.0
300.0
300.0
300.0
300.0
300.0
300.0
300.0
300.0
300.0
300.0
300.0
300.0

