# vtk DataFile Version 2.0
Generated by lpp.py
ASCII
DATASET POLYDATA
POINTS 353 float
0.217317 0.187109 1.57568
0.333909 0.178238 1.58473
0.483023 0.180614 1.58594
0.5676 0.190106 1.5771
0.627472 0.187907 1.57704
0.771423 0.188229 1.57686
0.95549 0.187781 1.57687
0.8935 0.197788 1.57686
0.370682 0.249418 1.57688
0.429578 0.261493 1.5794
0.50659 0.264713 1.57685
0.661889 0.236784 1.57695
0.822662 0.241389 1.57924
0.922773 0.259785 1.57698
0.982283 0.247564 1.57877
0.0906335 0.289299 1.58527
0.24298 0.279058 1.57907
0.31218 0.273499 1.5746
0.614599 0.281488 1.58039
0.175736 0.322895 1.58153
0.387225 0.313205 1.57574
0.530126 0.323296 1.59777
0.848297 0.325872 1.57685
0.254002 0.353946 1.57678
0.33681 0.346884 1.5787
0.486951 0.359473 1.57746
0.573047 0.368272 1.57738
0.697715 0.353802 1.57686
0.414469 0.39591 1.57623
0.757084 0.400129 1.57708
0.837473 0.403088 1.57686
0.183669 0.430311 1.58231
0.278935 0.411657 1.58384
0.356381 0.418066 1.57845
0.459689 0.436898 1.5787
0.538902 0.419136 1.57729
0.619359 0.438755 1.57693
1.05078 0.441299 1.57686
0.24195 0.459431 1.57668
0.406463 0.46432 1.58016
0.673547 0.475581 1.57638
0.535143 0.492653 1.57894
0.614776 0.512495 1.58388
0.88385 0.489126 1.57683
0.941317 0.516993 1.57637
0.0173411 0.529078 1.57688
0.189296 0.529963 1.57774
0.254815 0.525175 1.57586
0.409208 0.545547 1.57879
1.09818 0.520945 1.57686
0.529214 0.560263 1.57673
0.582828 0.581547 1.59293
0.664827 0.559714 1.57552
0.722898 0.564135 1.57794
0.78101 0.560905 1.58967
0.887436 0.576102 1.58518
0.498945 0.138385 1.63284
0.851305 0.160757 1.60221
0.676209 0.171604 1.6075
0.207292 0.23428 1.60819
0.285203 0.212864 1.58565
0.483873 0.231914 1.63214
0.150294 0.249999 1.60041
0.336248 0.259533 1.62497
0.594767 0.23584 1.61285
0.683358 0.25847 1.63526
0.746389 0.256309 1.61054
0.539119 0.271369 1.62678
0.284989 0.308494 1.6228
0.390251 0.361801 1.61945
0.55529 0.362607 1.63509
0.859994 0.363725 1.62112
0.225589 0.390726 1.62228
0.462043 0.444048 1.64126
0.528064 0.44424 1.63187
0.12539 0.449664 1.62328
0.271955 0.475633 1.62563
0.333502 0.460592 1.62054
0.149727 0.517403 1.62279
0.490935 0.521688 1.62421
0.303281 0.54658 1.60041
0.362455 0.523966 1.6234
0.689024 0.547887 1.62834
0.457094 0.576486 1.60857
0.646871 0.125784 1.63764
0.351306 0.183579 1.65706
0.172402 0.229307 1.65621
0.765839 0.204222 1.65538
0.418419 0.231804 1.63033
0.223725 0.282396 1.63645
0.407054 0.293934 1.62704
0.597844 0.285467 1.64768
0.481851 0.306457 1.63748
0.452668 0.362224 1.62493
0.172251 0.377489 1.64389
0.307059 0.385757 1.62856
0.504303 0.391004 1.66018
0.392431 0.440487 1.635
0.603518 0.454884 1.64049
0.888097 0.449125 1.63302
0.782033 0.497992 1.64201
0.0905882 0.520815 1.63853
0.571136 0.541832 1.66509
0.544197 0.249474 1.68271
0.150682 0.290471 1.65421
0.340264 0.308899 1.65697
0.112467 0.369567 1.65799
0.229396 0.34617 1.66355
0.428133 0.375076 1.67936
0.661294 0.386078 1.70195
0.25547 0.467159 1.68222
0.48479 0.485734 1.6851
0.608811 0.447316 1.70095
0.173258 0.488049 1.66942
0.404316 0.491161 1.66537
0.320718 0.552515 1.67266
0.549267 0.665042 1.67967
0.117057 0.232547 1.70332
0.367186 0.466568 1.70441
0.470244 0.702755 1.71798
0.33461 0.249494 1.74826
0.258494 0.28056 1.74609
0.46021 0.268154 1.73181
0.294692 0.330306 1.72412
0.414233 0.306803 1.72291
0.209546 0.484752 1.74667
0.313052 0.494322 1.72576
0.387237 0.525686 1.7485
0.512131 0.542371 1.7406
0.199862 0.243713 1.77636
0.320208 0.403691 1.76407
0.113325 0.448918 1.76927
0.446997 0.50849 1.75585
0.375347 0.345395 1.80595
0.169236 0.376906 1.79413
0.261069 0.440732 1.80884
0.491591 0.428372 1.79671
0.47999 0.300848 1.84794
0.103577 0.34242 1.85822
0.230407 0.340128 1.8536
0.441781 0.458388 1.8611
0.131272 0.513706 1.85538
0.254698 0.262308 1.88903
0.417913 0.266516 1.87159
0.121033 0.279919 1.88826
0.287678 0.358468 1.88695
0.227036 0.399722 1.8822
0.380254 0.404128 1.86601
0.448915 0.39365 1.88093
0.365118 0.235733 1.93316
0.187546 0.294736 1.90151
0.378219 0.307765 1.9208
0.200976 0.455034 1.93183
0.208645 0.523817 1.92284
0.35506 0.52072 1.8983
0.360498 0.363939 1.94439
0.10427 0.421706 1.94079
0.317689 0.454971 1.95281
0.491668 0.49724 1.94981
0.136955 0.241756 2.00521
0.29951 0.265646 1.98128
0.478513 0.241448 2.00015
0.200031 0.295208 2.00148
0.26261 0.317421 1.98108
0.121236 0.342722 1.98162
0.234882 0.370686 1.97696
0.43656 0.349215 2.00122
0.288982 0.398489 2.00386
0.41824 0.41741 2.00469
0.250123 0.467148 1.9965
0.124302 0.506318 1.98712
0.387139 0.48601 1.9748
0.352336 0.290052 2.01031
0.473517 0.305435 2.03726
0.18594 0.400862 2.01186
0.485376 0.385518 2.02306
0.106832 0.451129 2.02643
0.323211 0.457255 2.04589
0.485548 0.450278 2.01184
0.302009 0.506095 2.0096
0.180109 0.517525 2.04456
0.136852 0.289242 2.06089
0.211371 0.280829 2.07449
0.416409 0.288456 2.06219
0.195772 0.344168 2.05007
0.269256 0.359202 2.06803
0.485374 0.358108 2.08098
0.218921 0.397847 2.06827
0.349719 0.399621 2.07492
0.428381 0.4467 2.06453
0.245914 0.511668 2.07371
0.398493 0.508779 2.05612
0.466202 0.49757 2.07112
0.260718 0.244031 2.08899
0.346739 0.243699 2.11339
0.411604 0.238101 2.10847
0.305852 0.287522 2.08499
0.499385 0.279499 2.09065
0.373442 0.329195 2.09217
0.102791 0.340368 2.09265
0.422187 0.378047 2.08422
0.478405 0.411198 2.11488
0.169637 0.459874 2.08203
0.103225 0.518985 2.08486
0.174537 0.231131 2.11705
0.283642 0.234209 2.15096
0.469838 0.243492 2.13354
0.108104 0.281799 2.11625
0.157239 0.333515 2.11883
0.268169 0.352895 2.15098
0.121741 0.410905 2.14674
0.189941 0.428545 2.13494
0.267329 0.456169 2.13542
0.370548 0.454286 2.11699
0.43276 0.446836 2.1346
0.122063 0.498448 2.14566
0.209404 0.487055 2.1218
0.341446 0.508108 2.13034
0.429885 0.51089 2.14308
0.144959 0.253084 2.1699
0.225054 0.287898 2.15782
0.353756 0.288308 2.1721
0.419349 0.297497 2.18155
0.107864 0.308056 2.1837
0.478946 0.338932 2.15164
0.33513 0.393755 2.16779
0.434422 0.399982 2.17934
0.177321 0.473873 2.1823
0.3755 0.471214 2.17858
0.496878 0.474265 2.15193
0.287754 0.512498 2.17063
0.222298 0.231508 2.18943
0.482317 0.228242 2.21854
0.386528 0.235346 2.21474
0.17305 0.29572 2.21163
0.280967 0.269166 2.21746
0.32031 0.335135 2.1967
0.216531 0.381594 2.18634
0.289149 0.393948 2.21364
0.10269 0.478868 2.22007
0.265427 0.473439 2.21144
0.487332 0.44601 2.21319
0.230707 0.52291 2.20918
0.100828 0.246005 2.23484
0.334084 0.267131 2.24623
0.383935 0.304407 2.25118
0.470734 0.315695 2.22592
0.189473 0.369831 2.25465
0.383297 0.361785 2.23306
0.142292 0.405308 2.22272
0.495324 0.379459 2.23665
0.238696 0.425254 2.24413
0.338206 0.47604 2.23542
0.405771 0.451899 2.23402
0.477819 0.52568 2.231
0.410316 0.229607 2.27717
0.227735 0.245208 2.26361
0.479511 0.263195 2.2725
0.283481 0.328862 2.26466
0.488965 0.329122 2.29107
0.104364 0.371175 2.25875
0.433942 0.344323 2.26524
0.124882 0.444445 2.26537
0.292698 0.428673 2.27157
0.367427 0.412219 2.26779
0.436973 0.45447 2.2886
0.498994 0.449521 2.28904
0.387806 0.497135 2.27601
0.10683 0.52412 2.28027
0.307197 0.231054 2.29934
0.112238 0.243444 2.30138
0.196779 0.286134 2.31798
0.338106 0.302046 2.30158
0.144627 0.329159 2.30743
0.388723 0.350133 2.31272
0.26384 0.382845 2.30039
0.180002 0.445959 2.32427
0.336562 0.447813 2.3153
0.197767 0.505506 2.29969
0.316599 0.507618 2.31974
0.498691 0.522189 2.29147
0.299287 0.247375 2.35679
0.442411 0.236129 2.35895
0.498503 0.253983 2.33572
0.432796 0.302258 2.34979
0.322732 0.35929 2.33017
0.476186 0.343657 2.35982
0.179678 0.383211 2.32608
0.499396 0.409304 2.35395
0.404531 0.416433 2.32679
0.230608 0.478968 2.34273
0.133145 0.50156 2.3351
0.4192 0.521596 2.32807
0.196226 0.26238 2.38567
0.356376 0.254196 2.3877
0.126939 0.284236 2.36643
0.187834 0.32549 2.37014
0.256147 0.321804 2.38011
0.345572 0.308923 2.36327
0.110703 0.374435 2.38211
0.415762 0.389621 2.38827
0.282511 0.427246 2.37226
0.107302 0.455042 2.38596
0.180798 0.510604 2.37163
0.383426 0.485675 2.3655
0.49838 0.508374 2.39212
0.271982 0.260644 2.4208
0.321856 0.294278 2.41913
0.44222 0.295647 2.41067
0.346145 0.350757 2.41426
0.282424 0.374546 2.42858
0.475094 0.383761 2.40966
0.214879 0.429082 2.39971
0.466199 0.451954 2.41462
0.104255 0.515661 2.42241
0.236464 0.494005 2.41237
0.430217 0.500721 2.41499
0.339305 0.526873 2.40754
0.103324 0.228818 2.44871
0.161403 0.258279 2.44827
0.363615 0.240431 2.45399
0.425069 0.242959 2.45512
0.499192 0.246026 2.45267
0.125428 0.344451 2.43441
0.189012 0.364304 2.44306
0.415188 0.353574 2.43906
0.115455 0.44409 2.4445
0.323589 0.424937 2.4371
0.40415 0.414672 2.45454
0.158807 0.499296 2.46065
0.370433 0.49856 2.45148
0.264146 0.523422 2.45795
0.220666 0.238837 2.49734
0.257372 0.298287 2.48437
0.31493 0.348737 2.47385
0.484684 0.362834 2.48124
0.125062 0.39201 2.48589
0.217234 0.387064 2.49563
0.417911 0.469013 2.49692
0.393674 0.233628 2.51132
0.17717 0.298235 2.5092
0.314466 0.284399 2.50272
0.492483 0.279077 2.5044
0.417494 0.317622 2.50147
0.107591 0.339963 2.51367
0.385775 0.387923 2.51657
0.449749 0.403068 2.50884
0.139724 0.459766 2.51164
0.263093 0.452487 2.50205
0.486571 0.452792 2.50556
0.220758 0.508511 2.50861
0.312076 0.491969 2.5076
0.490194 0.521396 2.51111
VERTICES 353 706
1 0
1 1
1 2
1 3
1 4
1 5
1 6
1 7
1 8
1 9
1 10
1 11
1 12
1 13
1 14
1 15
1 16
1 17
1 18
1 19
1 20
1 21
1 22
1 23
1 24
1 25
1 26
1 27
1 28
1 29
1 30
1 31
1 32
1 33
1 34
1 35
1 36
1 37
1 38
1 39
1 40
1 41
1 42
1 43
1 44
1 45
1 46
1 47
1 48
1 49
1 50
1 51
1 52
1 53
1 54
1 55
1 56
1 57
1 58
1 59
1 60
1 61
1 62
1 63
1 64
1 65
1 66
1 67
1 68
1 69
1 70
1 71
1 72
1 73
1 74
1 75
1 76
1 77
1 78
1 79
1 80
1 81
1 82
1 83
1 84
1 85
1 86
1 87
1 88
1 89
1 90
1 91
1 92
1 93
1 94
1 95
1 96
1 97
1 98
1 99
1 100
1 101
1 102
1 103
1 104
1 105
1 106
1 107
1 108
1 109
1 110
1 111
1 112
1 113
1 114
1 115
1 116
1 117
1 118
1 119
1 120
1 121
1 122
1 123
1 124
1 125
1 126
1 127
1 128
1 129
1 130
1 131
1 132
1 133
1 134
1 135
1 136
1 137
1 138
1 139
1 140
1 141
1 142
1 143
1 144
1 145
1 146
1 147
1 148
1 149
1 150
1 151
1 152
1 153
1 154
1 155
1 156
1 157
1 158
1 159
1 160
1 161
1 162
1 163
1 164
1 165
1 166
1 167
1 168
1 169
1 170
1 171
1 172
1 173
1 174
1 175
1 176
1 177
1 178
1 179
1 180
1 181
1 182
1 183
1 184
1 185
1 186
1 187
1 188
1 189
1 190
1 191
1 192
1 193
1 194
1 195
1 196
1 197
1 198
1 199
1 200
1 201
1 202
1 203
1 204
1 205
1 206
1 207
1 208
1 209
1 210
1 211
1 212
1 213
1 214
1 215
1 216
1 217
1 218
1 219
1 220
1 221
1 222
1 223
1 224
1 225
1 226
1 227
1 228
1 229
1 230
1 231
1 232
1 233
1 234
1 235
1 236
1 237
1 238
1 239
1 240
1 241
1 242
1 243
1 244
1 245
1 246
1 247
1 248
1 249
1 250
1 251
1 252
1 253
1 254
1 255
1 256
1 257
1 258
1 259
1 260
1 261
1 262
1 263
1 264
1 265
1 266
1 267
1 268
1 269
1 270
1 271
1 272
1 273
1 274
1 275
1 276
1 277
1 278
1 279
1 280
1 281
1 282
1 283
1 284
1 285
1 286
1 287
1 288
1 289
1 290
1 291
1 292
1 293
1 294
1 295
1 296
1 297
1 298
1 299
1 300
1 301
1 302
1 303
1 304
1 305
1 306
1 307
1 308
1 309
1 310
1 311
1 312
1 313
1 314
1 315
1 316
1 317
1 318
1 319
1 320
1 321
1 322
1 323
1 324
1 325
1 326
1 327
1 328
1 329
1 330
1 331
1 332
1 333
1 334
1 335
1 336
1 337
1 338
1 339
1 340
1 341
1 342
1 343
1 344
1 345
1 346
1 347
1 348
1 349
1 350
1 351
1 352
POINT_DATA 353
VECTORS i float
0.0 0.0 0.0
0.0 0.0 0.0
0.0 0.0 0.0
0.0 0.0 0.0
0.0 0.0 0.0
0.0 0.0 0.0
0.0 0.0 0.0
0.0 0.0 0.0
0.0 0.0 0.0
0.0 0.0 0.0
0.0 0.0 0.0
0.0 0.0 0.0
0.0 0.0 0.0
0.0 0.0 0.0
0.0 0.0 0.0
0.0 0.0 0.0
0.0 0.0 0.0
0.0 0.0 0.0
0.0 0.0 0.0
0.0 0.0 0.0
0.0 0.0 0.0
0.0 0.0 0.0
0.0 0.0 0.0
0.0 0.0 0.0
0.0 0.0 0.0
0.0 0.0 0.0
0.0 0.0 0.0
0.0 0.0 0.0
0.0 0.0 0.0
0.0 0.0 0.0
0.0 0.0 0.0
0.0 0.0 0.0
0.0 0.0 0.0
0.0 0.0 0.0
0.0 0.0 0.0
0.0 0.0 0.0
0.0 0.0 0.0
0.0 0.0 0.0
0.0 0.0 0.0
0.0 0.0 0.0
0.0 0.0 0.0
0.0 0.0 0.0
0.0 0.0 0.0
0.0 0.0 0.0
0.0 0.0 0.0
0.0 0.0 0.0
0.0 0.0 0.0
0.0 0.0 0.0
0.0 0.0 0.0
0.0 0.0 0.0
0.0 0.0 0.0
0.0 0.0 0.0
0.0 0.0 0.0
0.0 0.0 0.0
0.0 0.0 0.0
0.0 0.0 0.0
0.0 0.0 0.0
0.0 0.0 0.0
0.0 0.0 0.0
0.0 0.0 0.0
0.0 0.0 0.0
0.0 0.0 0.0
0.0 0.0 0.0
0.0 0.0 0.0
0.0 0.0 0.0
0.0 0.0 0.0
0.0 0.0 0.0
0.0 0.0 0.0
0.0 0.0 0.0
0.0 0.0 0.0
0.0 0.0 0.0
0.0 0.0 0.0
0.0 0.0 0.0
0.0 0.0 0.0
0.0 0.0 0.0
0.0 0.0 0.0
0.0 0.0 0.0
0.0 0.0 0.0
0.0 0.0 0.0
0.0 0.0 0.0
0.0 0.0 0.0
0.0 0.0 0.0
0.0 0.0 0.0
0.0 0.0 0.0
0.0 0.0 0.0
0.0 0.0 0.0
0.0 0.0 0.0
0.0 0.0 0.0
0.0 0.0 0.0
0.0 0.0 0.0
0.0 0.0 0.0
0.0 0.0 0.0
0.0 0.0 0.0
0.0 0.0 0.0
0.0 0.0 0.0
0.0 0.0 0.0
0.0 0.0 0.0
0.0 0.0 0.0
0.0 0.0 0.0
0.0 0.0 0.0
0.0 0.0 0.0
0.0 0.0 0.0
0.0 0.0 0.0
0.0 0.0 0.0
0.0 0.0 0.0
0.0 0.0 0.0
0.0 0.0 0.0
0.0 0.0 0.0
0.0 0.0 0.0
0.0 0.0 0.0
0.0 0.0 0.0
0.0 0.0 0.0
0.0 0.0 0.0
0.0 0.0 0.0
0.0 0.0 0.0
0.0 0.0 0.0
0.0 0.0 0.0
0.0 0.0 0.0
0.0 0.0 0.0
0.0 0.0 0.0
0.0 0.0 0.0
0.0 0.0 0.0
0.0 0.0 0.0
0.0 0.0 0.0
0.0 0.0 0.0
0.0 0.0 0.0
0.0 0.0 0.0
0.0 0.0 0.0
0.0 0.0 0.0
0.0 0.0 0.0
0.0 0.0 0.0
0.0 0.0 0.0
0.0 0.0 0.0
0.0 0.0 0.0
0.0 0.0 0.0
0.0 0.0 0.0
0.0 0.0 0.0
0.0 0.0 0.0
0.0 0.0 0.0
0.0 0.0 0.0
0.0 0.0 0.0
0.0 0.0 0.0
0.0 0.0 0.0
0.0 0.0 0.0
0.0 0.0 0.0
0.0 0.0 0.0
0.0 0.0 0.0
0.0 0.0 0.0
0.0 0.0 0.0
0.0 0.0 0.0
0.0 0.0 0.0
0.0 0.0 0.0
0.0 0.0 0.0
0.0 0.0 0.0
0.0 0.0 0.0
0.0 0.0 0.0
0.0 0.0 0.0
0.0 0.0 0.0
0.0 0.0 0.0
0.0 0.0 0.0
0.0 0.0 0.0
0.0 0.0 0.0
0.0 0.0 0.0
0.0 0.0 0.0
0.0 0.0 0.0
0.0 0.0 0.0
0.0 0.0 0.0
0.0 0.0 0.0
0.0 0.0 0.0
0.0 0.0 0.0
0.0 0.0 0.0
0.0 0.0 0.0
0.0 0.0 0.0
0.0 0.0 0.0
0.0 0.0 0.0
0.0 0.0 0.0
0.0 0.0 0.0
0.0 0.0 0.0
0.0 0.0 0.0
0.0 0.0 0.0
0.0 0.0 0.0
0.0 0.0 0.0
0.0 0.0 0.0
0.0 0.0 0.0
0.0 0.0 0.0
0.0 0.0 0.0
0.0 0.0 0.0
0.0 0.0 0.0
0.0 0.0 0.0
0.0 0.0 0.0
0.0 0.0 0.0
0.0 0.0 0.0
0.0 0.0 0.0
0.0 0.0 0.0
0.0 0.0 0.0
0.0 0.0 0.0
0.0 0.0 0.0
0.0 0.0 0.0
0.0 0.0 0.0
0.0 0.0 0.0
0.0 0.0 0.0
0.0 0.0 0.0
0.0 0.0 0.0
0.0 0.0 0.0
0.0 0.0 0.0
0.0 0.0 0.0
0.0 0.0 0.0
0.0 0.0 0.0
0.0 0.0 0.0
0.0 0.0 0.0
0.0 0.0 0.0
0.0 0.0 0.0
0.0 0.0 0.0
0.0 0.0 0.0
0.0 0.0 0.0
0.0 0.0 0.0
0.0 0.0 0.0
0.0 0.0 0.0
0.0 0.0 0.0
0.0 0.0 0.0
0.0 0.0 0.0
0.0 0.0 0.0
0.0 0.0 0.0
0.0 0.0 0.0
0.0 0.0 0.0
0.0 0.0 0.0
0.0 0.0 0.0
0.0 0.0 0.0
0.0 0.0 0.0
0.0 0.0 0.0
0.0 0.0 0.0
0.0 0.0 0.0
0.0 0.0 0.0
0.0 0.0 0.0
0.0 0.0 0.0
0.0 0.0 0.0
0.0 0.0 0.0
0.0 0.0 0.0
0.0 0.0 0.0
0.0 0.0 0.0
0.0 0.0 0.0
0.0 0.0 0.0
0.0 0.0 0.0
0.0 0.0 0.0
0.0 0.0 0.0
0.0 0.0 0.0
0.0 0.0 0.0
0.0 0.0 0.0
0.0 0.0 0.0
0.0 0.0 0.0
0.0 0.0 0.0
0.0 0.0 0.0
0.0 0.0 0.0
0.0 0.0 0.0
0.0 0.0 0.0
0.0 0.0 0.0
0.0 0.0 0.0
0.0 0.0 0.0
0.0 0.0 0.0
0.0 0.0 0.0
0.0 0.0 0.0
0.0 0.0 0.0
0.0 0.0 0.0
0.0 0.0 0.0
0.0 0.0 0.0
0.0 0.0 0.0
0.0 0.0 0.0
0.0 0.0 0.0
0.0 0.0 0.0
0.0 0.0 0.0
0.0 0.0 0.0
0.0 0.0 0.0
0.0 0.0 0.0
0.0 0.0 0.0
0.0 0.0 0.0
0.0 0.0 0.0
0.0 0.0 0.0
0.0 0.0 0.0
0.0 0.0 0.0
0.0 0.0 0.0
0.0 0.0 0.0
0.0 0.0 0.0
0.0 0.0 0.0
0.0 0.0 0.0
0.0 0.0 0.0
0.0 0.0 0.0
0.0 0.0 0.0
0.0 0.0 0.0
0.0 0.0 0.0
0.0 0.0 0.0
0.0 0.0 0.0
0.0 0.0 0.0
0.0 0.0 0.0
0.0 0.0 0.0
0.0 0.0 0.0
0.0 0.0 0.0
0.0 0.0 0.0
0.0 0.0 0.0
0.0 0.0 0.0
0.0 0.0 0.0
0.0 0.0 0.0
0.0 0.0 0.0
0.0 0.0 0.0
0.0 0.0 0.0
0.0 0.0 0.0
0.0 0.0 0.0
0.0 0.0 0.0
0.0 0.0 0.0
0.0 0.0 0.0
0.0 0.0 0.0
0.0 0.0 0.0
0.0 0.0 0.0
0.0 0.0 0.0
0.0 0.0 0.0
0.0 0.0 0.0
0.0 0.0 0.0
0.0 0.0 0.0
0.0 0.0 0.0
0.0 0.0 0.0
0.0 0.0 0.0
0.0 0.0 0.0
0.0 0.0 0.0
0.0 0.0 0.0
0.0 0.0 0.0
0.0 0.0 0.0
0.0 0.0 0.0
0.0 0.0 0.0
0.0 0.0 0.0
0.0 0.0 0.0
0.0 0.0 0.0
0.0 0.0 0.0
0.0 0.0 0.0
0.0 0.0 0.0
0.0 0.0 0.0
0.0 0.0 0.0
0.0 0.0 0.0
0.0 0.0 0.0
0.0 0.0 0.0
0.0 0.0 0.0
0.0 0.0 0.0
0.0 0.0 0.0
0.0 0.0 0.0
0.0 0.0 0.0
0.0 0.0 0.0
0.0 0.0 0.0
0.0 0.0 0.0
0.0 0.0 0.0
0.0 0.0 0.0
0.0 0.0 0.0
0.0 0.0 0.0
0.0 0.0 0.0
0.0 0.0 0.0
0.0 0.0 0.0
VECTORS f float
-2.03649 -6.95072 2.29588
1.84286 -0.240415 -0.727748
0.0 0.0 -2.77371
10.806 -0.518758 0.482095
-0.223912 0.793173 0.188467
0.00529562 -5.6705e-05 0.0483817
-0.0053483 -0.000766099 -0.177635
0.00126496 7.68431e-05 0.000919795
-11.8673 -0.344394 -18.5445
-18.2263 -6.57722 -9.38859
-1.78054 -0.0864837 -7.71819
2.18816 2.17324 2.57464
0.0 0.0 -2.77371
0.951793 -0.161834 -0.842805
0.0 0.0 -2.77371
0.0 0.0 -2.77371
0.0 0.0 -2.77371
29.9653 -19.1763 40.007
3.78395 2.58176 -6.09942
0.0 0.0 -2.77371
-28.7691 8.64712 -47.6305
-1.49905 3.93028 -1.60883
30.8291 -19.0819 -46.397
8.42526 20.3055 16.4117
0.0 0.0 -2.77371
10.0579 -12.5458 -21.718
0.0 0.0 -2.77371
-0.000418574 4.20264e-05 -0.0212656
-0.459643 -0.74362 12.2201
-0.131983 -0.00615855 0.315975
0.0474986 -0.00317152 0.429584
0.0 0.0 -2.77371
-10.8253 16.4396 -78.3464
0.0 0.0 -2.77371
0.276962 -0.120643 -2.63331
0.0 0.0 -2.77371
-0.0219694 0.000763009 -1.21754
6.87942e-07 -6.67159e-08 8.48987e-05
-0.0223466 -0.00419587 0.179379
-0.276962 0.120643 -2.91411
-1.8567 0.839552 7.77351
0.0 0.0 -2.77371
0.0 0.0 -2.77371
1.52161 0.583774 0.485797
3.72934 0.941222 19.4817
1.14232 0.0499582 -0.486886
0.0 0.0 -2.77371
23.3398 3.79198 22.7739
0.0 0.0 -2.77371
1.25651e-07 -5.25024e-09 8.2349e-06
0.0721938 -0.136576 -1.84596
0.73645 0.299776 -2.05157
-14.848 -0.914233 13.5927
17.4426 3.78399 18.9345
19.0494 -0.459294 -4.22883
-0.0807274 -1.45756 -1.03243
0.0 0.0 -2.77371
-0.000476327 0.818864 -1.12228
0.432246 -0.490012 -2.44256
3.53878 3.41298 5.71728
-1.53184 0.745902 -3.53415
0.0 0.0 -2.77371
-3.91486 2.67663 -5.1973
5.92427 -11.1452 47.5814
-3.78395 -2.58176 0.551997
0.0 0.0 -2.77371
0.0 0.0 -2.77371
-1.65092 -0.151949 -7.57526
0.0 0.0 -2.77371
0.0 0.0 -2.77371
-0.161181 -2.27089 -6.37481
-28.2623 22.1469 46.8624
8.04762 2.28959 -12.0635
0.0 0.0 -2.77371
0.0 0.0 -2.77371
0.0 0.0 -2.77371
-0.719594 -0.0545066 -5.48563
0.0 0.0 -2.77371
-2.0767 -3.51579 1.80469
0.0 0.0 -2.77371
-10.511 -0.111281 -1.62875
0.0 0.0 -2.77371
-0.212156 -0.772607 3.59552
0.0 0.0 -2.77371
0.0 0.0 -2.77371
0.0 0.0 -2.77371
1.21374 -2.04458 -4.04662
0.0 0.0 -2.77371
18.2263 6.57722 3.84117
-0.447264 10.5781 4.48231
51.198 -13.5281 87.9907
0.0 0.0 -2.77371
0.0 0.0 -2.77371
-8.3977 10.8864 18.6068
-8.04762 -2.28959 6.51605
10.8253 -16.4396 72.799
0.0 0.0 -2.77371
0.0 0.0 -2.77371
0.0 0.0 -2.77371
0.0 0.0 -2.77371
0.0 0.0 -2.77371
0.0 0.0 -2.77371
0.0 0.0 -2.77371
0.0 0.0 -2.77371
0.0 0.0 -2.77371
4.43487 8.97874 11.3374
0.0 0.0 -2.77371
0.0 0.0 -2.77371
0.0 0.0 -2.77371
0.0 0.0 -2.77371
0.419285 -0.0396515 -0.241729
0.0 0.0 -2.77371
0.0 0.0 -2.77371
2.0767 3.51579 -7.35211
-1.38284 -2.32079 5.90697
0.0 0.0 -2.77371
0.0 0.0 -2.77371
0.0 0.0 -2.77371
1.38284 2.32079 -11.4544
0.0 0.0 -2.77371
0.0 0.0 -2.77371
0.0 0.0 -2.77371
0.0 0.0 -2.77371
0.0 0.0 -2.77371
0.0 0.0 -2.77371
0.0 0.0 -2.77371
0.0 0.0 -2.77371
0.0 0.0 -2.77371
0.0 0.0 -2.77371
0.0 0.0 -2.77371
0.0 0.0 -2.77371
0.0 0.0 -2.77371
0.0 0.0 -2.77371
0.0 0.0 -2.77371
0.0 0.0 -2.77371
0.0 0.0 -2.77371
0.0 0.0 -2.77371
0.0 0.0 -2.77371
0.0 0.0 -2.77371
0.0 0.0 -2.77371
0.0 0.0 -2.77371
0.0 0.0 -2.77371
0.0 0.0 -2.77371
0.0 0.0 -2.77371
0.0 0.0 -2.77371
0.0 0.0 -2.77371
0.0 0.0 -2.77371
0.0 0.0 -2.77371
0.0 0.0 -2.77371
0.0 0.0 -2.77371
0.0 0.0 -2.77371
0.0 0.0 -2.77371
0.0 0.0 -2.77371
0.0 0.0 -2.77371
0.0 0.0 -2.77371
0.0 0.0 -2.77371
0.0 0.0 -2.77371
0.0 0.0 -2.77371
0.0 0.0 -2.77371
0.0 0.0 -2.77371
0.0 0.0 -2.77371
0.0 0.0 -2.77371
0.0 0.0 -2.77371
0.0 0.0 -2.77371
0.0 0.0 -2.77371
0.0 0.0 -2.77371
0.0 0.0 -2.77371
0.0 0.0 -2.77371
0.0 0.0 -2.77371
0.0 0.0 -2.77371
0.0 0.0 -2.77371
0.0 0.0 -2.77371
0.0 0.0 -2.77371
0.0 0.0 -2.77371
0.0 0.0 -2.77371
0.0 0.0 -2.77371
0.0 0.0 -2.77371
0.0 0.0 -2.77371
0.0 0.0 -2.77371
0.0 0.0 -2.77371
0.0 0.0 -2.77371
0.0 0.0 0.0
0.0 0.0 0.0
0.0 0.0 0.0
0.0 0.0 0.0
0.0 0.0 0.0
0.0 0.0 0.0
0.0 0.0 0.0
0.0 0.0 0.0
0.0 0.0 0.0
0.0 0.0 0.0
0.0 0.0 0.0
0.0 0.0 0.0
0.0 0.0 0.0
0.0 0.0 0.0
0.0 0.0 0.0
0.0 0.0 0.0
0.0 0.0 0.0
0.0 0.0 0.0
0.0 0.0 0.0
0.0 0.0 0.0
0.0 0.0 0.0
0.0 0.0 0.0
0.0 0.0 0.0
0.0 0.0 0.0
0.0 0.0 0.0
0.0 0.0 0.0
0.0 0.0 0.0
0.0 0.0 0.0
0.0 0.0 0.0
0.0 0.0 0.0
0.0 0.0 0.0
0.0 0.0 0.0
0.0 0.0 0.0
0.0 0.0 0.0
0.0 0.0 0.0
0.0 0.0 0.0
0.0 0.0 0.0
0.0 0.0 0.0
0.0 0.0 0.0
0.0 0.0 0.0
0.0 0.0 0.0
0.0 0.0 0.0
0.0 0.0 0.0
0.0 0.0 0.0
0.0 0.0 0.0
0.0 0.0 0.0
0.0 0.0 0.0
0.0 0.0 0.0
0.0 0.0 0.0
0.0 0.0 0.0
0.0 0.0 0.0
0.0 0.0 0.0
0.0 0.0 0.0
0.0 0.0 0.0
0.0 0.0 0.0
0.0 0.0 0.0
0.0 0.0 0.0
0.0 0.0 0.0
0.0 0.0 0.0
0.0 0.0 0.0
0.0 0.0 0.0
0.0 0.0 0.0
0.0 0.0 0.0
0.0 0.0 0.0
0.0 0.0 0.0
0.0 0.0 0.0
0.0 0.0 0.0
0.0 0.0 0.0
0.0 0.0 0.0
0.0 0.0 0.0
0.0 0.0 0.0
0.0 0.0 0.0
0.0 0.0 0.0
0.0 0.0 0.0
0.0 0.0 0.0
0.0 0.0 0.0
0.0 0.0 0.0
0.0 0.0 0.0
0.0 0.0 0.0
0.0 0.0 0.0
0.0 0.0 0.0
0.0 0.0 0.0
0.0 0.0 0.0
0.0 0.0 0.0
0.0 0.0 0.0
0.0 0.0 0.0
0.0 0.0 0.0
0.0 0.0 0.0
0.0 0.0 0.0
0.0 0.0 0.0
0.0 0.0 0.0
0.0 0.0 0.0
0.0 0.0 0.0
0.0 0.0 0.0
0.0 0.0 0.0
0.0 0.0 0.0
0.0 0.0 0.0
0.0 0.0 0.0
0.0 0.0 0.0
0.0 0.0 0.0
0.0 0.0 0.0
0.0 0.0 0.0
0.0 0.0 0.0
0.0 0.0 0.0
0.0 0.0 0.0
0.0 0.0 0.0
0.0 0.0 0.0
0.0 0.0 0.0
0.0 0.0 0.0
0.0 0.0 0.0
0.0 0.0 0.0
0.0 0.0 0.0
0.0 0.0 0.0
0.0 0.0 0.0
0.0 0.0 0.0
0.0 0.0 0.0
0.0 0.0 0.0
0.0 0.0 0.0
0.0 0.0 0.0
0.0 0.0 0.0
0.0 0.0 0.0
0.0 0.0 0.0
0.0 0.0 0.0
0.0 0.0 0.0
0.0 0.0 0.0
0.0 0.0 0.0
0.0 0.0 0.0
0.0 0.0 0.0
0.0 0.0 0.0
0.0 0.0 0.0
0.0 0.0 0.0
0.0 0.0 0.0
0.0 0.0 0.0
0.0 0.0 0.0
0.0 0.0 0.0
0.0 0.0 0.0
0.0 0.0 0.0
0.0 0.0 0.0
0.0 0.0 0.0
0.0 0.0 0.0
0.0 0.0 0.0
0.0 0.0 0.0
0.0 0.0 0.0
0.0 0.0 0.0
0.0 0.0 0.0
0.0 0.0 0.0
0.0 0.0 0.0
0.0 0.0 0.0
0.0 0.0 0.0
0.0 0.0 0.0
0.0 0.0 0.0
0.0 0.0 0.0
0.0 0.0 0.0
0.0 0.0 0.0
0.0 0.0 0.0
0.0 0.0 0.0
0.0 0.0 0.0
0.0 0.0 0.0
0.0 0.0 0.0
0.0 0.0 0.0
0.0 0.0 0.0
0.0 0.0 0.0
0.0 0.0 0.0
0.0 0.0 0.0
0.0 0.0 0.0
0.0 0.0 0.0
0.0 0.0 0.0
0.0 0.0 0.0
0.0 0.0 0.0
0.0 0.0 0.0
0.0 0.0 0.0
0.0 0.0 0.0
VECTORS omega float
8.34638 -80.8951 44.8856
-3.94406 -113.005 17.3002
13.8815 -75.9101 26.6028
7.25055 -52.8815 3.70682
-3.64485 -59.4603 17.1408
-0.291205 -66.5935 32.0424
8.80306 -61.4591 5.0065
1.87631 -57.1254 -1.49957
15.141 -85.5474 -5.45635
-35.6522 67.5646 1.43991
-0.0331454 -67.0202 13.2852
-2.62181 -72.5507 1.1571
0.719856 -48.5527 -17.508
9.1775 -55.6552 5.29141
14.0918 -51.1222 10.9303
22.9007 -127.374 12.8159
1.24704 -105.252 -11.0885
10.9728 -90.6446 -11.3677
9.12981 -71.7862 -8.58701
-2.88379 -106.312 -2.94639
22.8586 16.0628 -17.7618
3.01958 51.1147 -8.62768
1.31799 -44.2878 -15.5789
-7.62601 -88.7843 12.4272
2.20931 -69.0797 1.21855
20.7084 -72.7871 10.7814
3.58294 -56.1849 -7.19384
-7.05067 -70.2278 16.1048
-12.9533 -75.7275 9.69981
1.95362 -71.8782 -1.0062
-4.40831 -65.9587 -3.69294
-7.81984 -93.5988 1.83278
21.2853 -70.6641 3.10865
-7.76269 -53.5232 18.3254
2.92137 -75.2798 -7.31106
1.05736 -59.1805 -9.34871
-2.0026 -69.9586 -3.59891
-4.91954 -50.7279 2.52464
4.86478 -85.4647 -11.5031
-2.62229 -70.9679 15.323
2.43896 -65.8425 -9.82024
-14.5427 -62.0915 -4.80583
-5.77612 -69.1465 7.07029
-13.3968 -38.2913 1.27705
-15.234 -43.9876 1.23093
-4.45702 -107.578 -2.54792
-15.841 -74.5978 -1.67053
-9.46213 -10.8747 0.149038
-4.21445 -70.7236 9.97026
-1.81727 -43.4917 1.90422
-18.6668 -23.7086 -7.32874
-6.41903 -70.7651 -15.8662
-13.3857 -57.9413 7.63075
4.10353 -54.2344 -21.838
-11.0062 91.9301 24.4426
-5.55037 -63.682 -18.9824
25.9695 -61.421 43.4653
-7.28012 -77.7581 17.5262
9.80383 60.8729 -34.1032
-23.4348 35.0681 -8.25827
-2.39324 15.3135 9.04188
-22.6082 67.5185 -9.21001
14.4115 -74.3789 -6.04585
7.62928 49.4274 13.3869
-27.496 37.4062 5.04956
-3.17115 44.4381 -17.4183
-9.91324 -2.80651 4.2822
-17.0698 58.8747 -28.8597
5.77411 26.8265 0.681633
23.1486 -9.44889 2.29341
-2.47822 8.91826 16.93
-10.9866 -30.152 -1.21047
-1.38822 42.7009 -11.9549
-3.71384 41.6518 -1.69959
-6.98224 5.34066 -16.0673
-13.4251 40.9848 -3.14375
-47.2707 43.3579 2.44367
-9.57926 -9.27204 -17.5893
9.65234 0.947241 11.0179
8.06478 -1.24958 -11.9916
-3.94773 5.654 38.1391
-12.5433 25.1937 -27.755
10.1662 -39.3238 0.854098
-18.5831 24.7165 2.87002
9.03606 -33.5197 53.9316
14.8189 86.3542 -9.00983
25.6689 -59.2334 12.5396
12.6524 -7.70905 7.89108
20.5029 -33.0084 -18.9805
0.680201 -49.4867 -4.5131
-2.80144 -17.5089 -3.22534
22.051 48.6177 3.31618
8.08546 -61.031 -9.40259
2.99689 12.6266 -3.93193
60.3936 -19.7766 -5.10733
-59.8176 21.1216 -7.74335
-32.6674 -29.8121 13.0994
-19.0781 22.6659 38.582
19.2764 17.9606 11.7131
5.11574 -46.1421 -14.4888
22.5055 -34.5335 1.0618
-7.49735 -44.3217 -1.17025
-2.30868 41.6076 -2.10946
24.8783 -51.7265 -20.343
0.0 0.0 0.0
-36.038 -27.0288 12.7589
-3.30856 -22.1356 -11.0378
25.836 3.24234 8.88803
-4.43028 -28.8619 1.95408
2.53187 -39.5822 20.3081
36.0367 -50.2653 26.3234
-14.8614 -36.7021 33.3696
-3.63339 -32.3971 -2.33411
0.384414 18.2873 13.2052
-7.47265 15.2492 11.8348
8.63669 -47.7736 16.8865
-24.3519 -8.36701 -33.883
0.0 0.0 0.0
21.419 -42.3149 -4.0085
-37.5588 -64.8153 28.7954
0.0 0.0 0.0
0.0 0.0 0.0
0.0 0.0 0.0
0.0 0.0 0.0
0.0 0.0 0.0
0.0 0.0 0.0
0.0 0.0 0.0
0.0 0.0 0.0
-10.514 -23.1079 9.30669
0.0 0.0 0.0
0.0 0.0 0.0
0.0 0.0 0.0
0.0 0.0 0.0
0.0 0.0 0.0
0.0 0.0 0.0
0.0 0.0 0.0
0.0 0.0 0.0
0.0 0.0 0.0
0.0 0.0 0.0
0.0 0.0 0.0
0.0 0.0 0.0
0.0 0.0 0.0
0.0 0.0 0.0
0.0 0.0 0.0
0.0 0.0 0.0
0.0 0.0 0.0
0.0 0.0 0.0
0.0 0.0 0.0
0.0 0.0 0.0
0.0 0.0 0.0
0.0 0.0 0.0
0.0 0.0 0.0
0.0 0.0 0.0
0.0 0.0 0.0
0.0 0.0 0.0
0.0 0.0 0.0
0.0 0.0 0.0
0.0 0.0 0.0
0.0 0.0 0.0
0.0 0.0 0.0
0.0 0.0 0.0
0.0 0.0 0.0
0.0 0.0 0.0
0.0 0.0 0.0
0.0 0.0 0.0
0.0 0.0 0.0
0.0 0.0 0.0
0.0 0.0 0.0
0.0 0.0 0.0
0.0 0.0 0.0
0.0 0.0 0.0
0.0 0.0 0.0
0.0 0.0 0.0
0.0 0.0 0.0
0.0 0.0 0.0
0.0 0.0 0.0
0.0 0.0 0.0
0.0 0.0 0.0
0.0 0.0 0.0
0.0 0.0 0.0
0.0 0.0 0.0
0.0 0.0 0.0
0.0 0.0 0.0
0.0 0.0 0.0
0.0 0.0 0.0
0.0 0.0 0.0
0.0 0.0 0.0
0.0 0.0 0.0
0.0 0.0 0.0
0.0 0.0 0.0
0.0 0.0 0.0
0.0 0.0 0.0
0.0 0.0 0.0
0.0 0.0 0.0
0.0 0.0 0.0
0.0 0.0 0.0
0.0 0.0 0.0
0.0 0.0 0.0
0.0 0.0 0.0
0.0 0.0 0.0
0.0 0.0 0.0
0.0 0.0 0.0
0.0 0.0 0.0
0.0 0.0 0.0
0.0 0.0 0.0
0.0 0.0 0.0
0.0 0.0 0.0
0.0 0.0 0.0
0.0 0.0 0.0
0.0 0.0 0.0
0.0 0.0 0.0
0.0 0.0 0.0
0.0 0.0 0.0
0.0 0.0 0.0
0.0 0.0 0.0
0.0 0.0 0.0
0.0 0.0 0.0
0.0 0.0 0.0
0.0 0.0 0.0
0.0 0.0 0.0
0.0 0.0 0.0
0.0 0.0 0.0
0.0 0.0 0.0
0.0 0.0 0.0
0.0 0.0 0.0
0.0 0.0 0.0
0.0 0.0 0.0
0.0 0.0 0.0
0.0 0.0 0.0
0.0 0.0 0.0
0.0 0.0 0.0
0.0 0.0 0.0
0.0 0.0 0.0
0.0 0.0 0.0
0.0 0.0 0.0
0.0 0.0 0.0
0.0 0.0 0.0
0.0 0.0 0.0
0.0 0.0 0.0
0.0 0.0 0.0
0.0 0.0 0.0
0.0 0.0 0.0
0.0 0.0 0.0
0.0 0.0 0.0
0.0 0.0 0.0
0.0 0.0 0.0
0.0 0.0 0.0
0.0 0.0 0.0
0.0 0.0 0.0
0.0 0.0 0.0
0.0 0.0 0.0
0.0 0.0 0.0
0.0 0.0 0.0
0.0 0.0 0.0
0.0 0.0 0.0
0.0 0.0 0.0
0.0 0.0 0.0
0.0 0.0 0.0
0.0 0.0 0.0
0.0 0.0 0.0
0.0 0.0 0.0
0.0 0.0 0.0
0.0 0.0 0.0
0.0 0.0 0.0
0.0 0.0 0.0
0.0 0.0 0.0
0.0 0.0 0.0
0.0 0.0 0.0
0.0 0.0 0.0
0.0 0.0 0.0
0.0 0.0 0.0
0.0 0.0 0.0
0.0 0.0 0.0
0.0 0.0 0.0
0.0 0.0 0.0
0.0 0.0 0.0
0.0 0.0 0.0
0.0 0.0 0.0
0.0 0.0 0.0
0.0 0.0 0.0
0.0 0.0 0.0
0.0 0.0 0.0
0.0 0.0 0.0
0.0 0.0 0.0
0.0 0.0 0.0
0.0 0.0 0.0
0.0 0.0 0.0
0.0 0.0 0.0
0.0 0.0 0.0
0.0 0.0 0.0
0.0 0.0 0.0
0.0 0.0 0.0
0.0 0.0 0.0
0.0 0.0 0.0
0.0 0.0 0.0
0.0 0.0 0.0
0.0 0.0 0.0
0.0 0.0 0.0
0.0 0.0 0.0
0.0 0.0 0.0
0.0 0.0 0.0
0.0 0.0 0.0
0.0 0.0 0.0
0.0 0.0 0.0
0.0 0.0 0.0
0.0 0.0 0.0
0.0 0.0 0.0
0.0 0.0 0.0
0.0 0.0 0.0
0.0 0.0 0.0
0.0 0.0 0.0
0.0 0.0 0.0
0.0 0.0 0.0
0.0 0.0 0.0
0.0 0.0 0.0
0.0 0.0 0.0
0.0 0.0 0.0
0.0 0.0 0.0
0.0 0.0 0.0
0.0 0.0 0.0
0.0 0.0 0.0
0.0 0.0 0.0
0.0 0.0 0.0
0.0 0.0 0.0
0.0 0.0 0.0
0.0 0.0 0.0
0.0 0.0 0.0
0.0 0.0 0.0
0.0 0.0 0.0
0.0 0.0 0.0
0.0 0.0 0.0
0.0 0.0 0.0
0.0 0.0 0.0
0.0 0.0 0.0
0.0 0.0 0.0
0.0 0.0 0.0
0.0 0.0 0.0
0.0 0.0 0.0
0.0 0.0 0.0
0.0 0.0 0.0
0.0 0.0 0.0
0.0 0.0 0.0
0.0 0.0 0.0
0.0 0.0 0.0
0.0 0.0 0.0
0.0 0.0 0.0
0.0 0.0 0.0
0.0 0.0 0.0
0.0 0.0 0.0
0.0 0.0 0.0
0.0 0.0 0.0
0.0 0.0 0.0
0.0 0.0 0.0
VECTORS v float
1.60844 -0.0855941 0.282748
1.22517 0.0978022 -0.0841881
1.83633 -0.149445 0.23779
1.84672 -0.193293 -0.17631
1.91119 -0.0704819 -0.0865269
2.01031 0.00870135 -0.00118523
2.16341 -0.263062 0.00118489
2.29319 -0.0560632 -0.000335445
1.5706 -0.455522 0.409982
2.16306 -0.287817 -1.10873
2.04408 0.00549194 0.277011
1.7991 0.0537641 -0.0861509
2.554 -0.0238527 -0.132712
2.29591 -0.2685 -0.0217541
2.33798 -0.353833 -0.0196558
0.291221 -0.680564 0.171943
0.856913 -0.0375429 -0.012107
1.50808 -0.346228 -0.20062
1.89952 -0.0696336 -0.0986563
0.860267 0.084863 0.810723
1.188 0.0836905 -0.134193
1.19638 -0.019044 -0.017024
2.61467 -0.114027 -0.0659123
1.20758 -0.112956 -0.30645
1.309 0.128057 -0.050815
1.42604 0.214113 -0.57386
2.30635 -0.121953 0.21116
1.90171 0.210663 7.02962e-05
1.76494 0.380235 0.0624243
1.85026 -0.0583204 -0.111536
2.029 0.13173 -0.0101026
1.21534 0.235418 0.0157216
1.40222 -0.206001 -0.030864
2.40353 0.238862 0.20216
1.74122 -0.123967 0.198364
2.22937 -0.0261423 0.059091
1.9062 0.0599331 0.0019615
2.48437 0.146984 -1.20953e-07
1.49166 -0.132602 0.0705652
1.83629 0.0864927 0.223258
2.11033 -0.0984823 0.0608849
2.1445 0.438819 0.0944116
1.92988 0.177654 -0.0993787
2.78177 0.371465 -0.000220324
2.72463 0.463407 -0.129954
0.24716 0.109694 0.00355831
1.78362 0.446725 0.352807
1.92218 -0.227564 0.0770894
1.88308 0.123935 0.0466756
2.70057 0.0542955 -3.62689e-08
2.03569 0.302582 0.072725
2.07296 0.0694605 0.155529
2.10172 0.341026 0.0402099
2.09657 -0.134558 0.358811
2.00231 -0.016692 -0.679707
2.25633 0.109257 0.134777
1.4513 -0.408815 0.511569
1.98433 0.15447 -0.155514
1.98562 -0.148589 -0.141387
-0.047318 0.326077 0.0502005
0.767565 -0.477799 -2.27615
1.34998 0.405807 0.351257
-0.0270338 0.0524548 -0.341012
0.5716 -0.855563 0.128048
1.58999 -0.00118498 -0.0779098
1.45885 -0.271908 0.289644
1.58011 -0.427706 -0.643838
2.01669 0.184598 0.622723
0.191111 -0.132525 -0.0578247
-0.0405186 -0.12908 -0.933671
1.21311 0.0450901 0.244359
2.08318 -0.53296 -1.09391
-0.0106145 0.101664 -1.55813
0.828386 -0.0392923 0.772564
1.03435 0.246977 0.040033
-0.867614 -0.142665 -0.9627
0.713422 0.80692 0.385516
0.90464 0.836548 -0.157776
-0.158829 0.363611 -0.45072
0.626935 0.860659 -0.257767
2.32345 1.15336 0.356477
0.768115 0.560454 -0.142879
1.7763 0.194853 0.2818
1.68591 0.845877 0.370304
2.12426 -0.198122 0.163572
0.131297 -0.968728 0.283471
-0.745064 0.241106 -0.217399
0.916048 -0.499191 0.358511
0.638056 -0.571345 -1.48402
0.206222 1.07251 -0.0748518
0.272654 -0.419428 -1.65903
1.58475 -0.0483518 0.340355
0.737247 -0.0691606 -0.562292
0.042412 -0.241401 -1.4416
-0.00527186 -0.0945602 -1.39704
0.62562 0.512936 -0.754561
0.440338 0.448106 -0.800307
0.505564 -0.796112 -0.389268
1.57707 0.235329 -0.104805
1.39052 0.105394 -0.810027
0.951202 0.257721 -0.183686