# vtk DataFile Version 2.0
Generated by lpp.py
ASCII
DATASET POLYDATA
POINTS 176 float
0.238816 0.180961 1.58246
0.334678 0.182093 1.58308
0.467682 0.193739 1.58006
0.611378 0.187253 1.57684
0.161483 0.216508 1.59541
0.409245 0.204737 1.57959
0.721793 0.211664 1.57721
0.782327 0.208817 1.57712
0.227063 0.264031 1.58136
0.291785 0.24758 1.57681
0.528463 0.247229 1.57655
0.628905 0.252282 1.57718
0.380891 0.278251 1.57908
0.478235 0.281679 1.58009
0.733401 0.279808 1.57686
0.818166 0.275025 1.57686
0.233333 0.337563 1.59381
0.545579 0.336944 1.57763
0.642631 0.332853 1.57686
0.15535 0.361705 1.58187
0.335837 0.350789 1.57522
0.433434 0.367619 1.5761
0.290624 0.396983 1.57755
0.383013 0.39873 1.57658
0.611309 0.403923 1.59036
0.676031 0.392279 1.58396
0.180215 0.420022 1.57998
0.461328 0.433812 1.57709
0.852032 0.429541 1.57686
0.140009 0.465135 1.59414
0.276665 0.461893 1.58371
0.380351 0.458316 1.58372
0.521378 0.476456 1.57762
0.677714 0.464527 1.57808
0.459911 0.495017 1.57564
0.736245 0.484269 1.57713
0.017373 0.521149 1.57991
0.259871 0.524902 1.57699
0.340146 0.526623 1.60102
0.511065 0.535369 1.5768
0.709093 0.55077 1.58019
0.882131 0.516602 1.57686
0.443022 0.581384 1.59066
0.585541 0.57608 1.58523
0.387561 0.155195 1.60806
0.492085 0.136568 1.63332
0.686135 0.158305 1.60446
0.556788 0.209148 1.61272
0.105371 0.260265 1.59867
0.343052 0.248436 1.62397
0.69385 0.23573 1.63297
0.167374 0.28414 1.59305
0.567625 0.291911 1.61899
0.627478 0.287674 1.62645
0.437403 0.326242 1.6173
0.479883 0.370141 1.61611
0.19635 0.379847 1.6216
0.39176 0.404818 1.63545
0.226496 0.44248 1.61902
0.30744 0.480985 1.63146
0.507333 0.453045 1.63162
0.705744 0.478199 1.6318
0.24278 0.49918 1.62914
0.545371 0.5261 1.63667
0.636552 0.555312 1.62254
0.471397 0.216895 1.63428
0.21707 0.254167 1.63611
0.255652 0.328037 1.6477
0.121394 0.33861 1.63534
0.328645 0.33883 1.63752
0.247755 0.387218 1.65178
0.108382 0.420889 1.64064
0.167559 0.43237 1.6554
0.448853 0.421917 1.63772
0.776855 0.440694 1.66643
0.10161 0.511094 1.61291
0.176894 0.49354 1.65227
0.445444 0.518437 1.63056
0.455266 0.620526 1.6602
0.377994 0.24098 1.67275
0.438719 0.254418 1.6722
0.367087 0.301842 1.68054
0.436483 0.311963 1.67434
0.496597 0.311769 1.69062
0.381279 0.362013 1.67594
0.505468 0.387333 1.67344
0.299823 0.436211 1.677
0.689988 0.408691 1.68269
0.523408 0.452273 1.68935
0.376685 0.509839 1.70193
0.434797 0.494857 1.69293
0.494317 0.510794 1.66071
0.235263 0.305333 1.71925
0.414973 0.60301 1.70985
0.290891 0.301706 1.75015
0.438372 0.392123 1.7222
0.353388 0.44487 1.73119
0.307792 0.495572 1.73424
0.254767 0.230824 1.77805
0.181029 0.318367 1.75447
0.41904 0.310566 1.76102
0.278223 0.363632 1.76286
0.155769 0.403018 1.76942
0.240863 0.437556 1.78764
0.419456 0.449551 1.75509
0.218974 0.524143 1.76873
0.408343 0.240904 1.82124
0.495956 0.249499 1.79931
0.476719 0.464357 1.81545
0.423627 0.520356 1.8189
0.178322 0.227864 1.83701
0.150682 0.290471 1.8589
0.355542 0.30862 1.82896
0.118071 0.372478 1.85651
0.216306 0.357237 1.85412
0.499251 0.382901 1.83201
0.161462 0.479607 1.839
0.105277 0.51875 1.83061
0.117057 0.232547 1.89457
0.429922 0.3736 1.86744
0.367693 0.467546 1.89154
0.33461 0.249494 1.92645
0.258494 0.28056 1.92493
0.46021 0.268154 1.91488
0.294692 0.330306 1.90942
0.414233 0.306803 1.90856
0.209546 0.484752 1.92534
0.313052 0.494322 1.91059
0.446997 0.50849 1.93175
0.387237 0.525686 1.92662
0.199862 0.243713 1.94596
0.375347 0.345395 1.96609
0.169236 0.376906 1.9581
0.320208 0.403691 1.93747
0.261069 0.440732 1.96803
0.491591 0.428372 1.95985
0.113325 0.448918 1.94107
0.417913 0.266516 2.00884
0.47999 0.300848 1.99377
0.103577 0.34242 2.00037
0.230407 0.340128 1.99742
0.380254 0.404128 2.00532
0.441781 0.458388 2.00221
0.131272 0.513706 1.99856
0.254698 0.262308 2.01966
0.365118 0.235733 2.04567
0.121033 0.279919 2.01918
0.187546 0.294736 2.02723
0.378219 0.307765 2.03861
0.287678 0.358468 2.01838
0.227036 0.399722 2.01545
0.448915 0.39365 2.01466
0.200976 0.455034 2.04492
0.208645 0.523817 2.03978
0.35506 0.52072 2.02529
0.29951 0.265646 2.07473
0.26261 0.317421 2.07461
0.121236 0.342722 2.07496
0.234882 0.370686 2.0719
0.360498 0.363939 2.05203
0.10427 0.421706 2.04997
0.317689 0.454971 2.05695
0.124302 0.506318 2.07864
0.387139 0.48601 2.07051
0.491668 0.49724 2.05518
0.136955 0.241756 2.09145
0.478513 0.241448 2.08775
0.200031 0.295208 2.08871
0.352336 0.290052 2.09528
0.43656 0.349215 2.08852
0.18594 0.400862 2.09647
0.288982 0.398489 2.09045
0.41824 0.41741 2.09107
0.250123 0.467148 2.08514
0.485548 0.450278 2.09645
0.302009 0.506095 2.09474
VERTICES 176 352
1 0
1 1
1 2
1 3
1 4
1 5
1 6
1 7
1 8
1 9
1 10
1 11
1 12
1 13
1 14
1 15
1 16
1 17
1 18
1 19
1 20
1 21
1 22
1 23
1 24
1 25
1 26
1 27
1 28
1 29
1 30
1 31
1 32
1 33
1 34
1 35
1 36
1 37
1 38
1 39
1 40
1 41
1 42
1 43
1 44
1 45
1 46
1 47
1 48
1 49
1 50
1 51
1 52
1 53
1 54
1 55
1 56
1 57
1 58
1 59
1 60
1 61
1 62
1 63
1 64
1 65
1 66
1 67
1 68
1 69
1 70
1 71
1 72
1 73
1 74
1 75
1 76
1 77
1 78
1 79
1 80
1 81
1 82
1 83
1 84
1 85
1 86
1 87
1 88
1 89
1 90
1 91
1 92
1 93
1 94
1 95
1 96
1 97
1 98
1 99
1 100
1 101
1 102
1 103
1 104
1 105
1 106
1 107
1 108
1 109
1 110
1 111
1 112
1 113
1 114
1 115
1 116
1 117
1 118
1 119
1 120
1 121
1 122
1 123
1 124
1 125
1 126
1 127
1 128
1 129
1 130
1 131
1 132
1 133
1 134
1 135
1 136
1 137
1 138
1 139
1 140
1 141
1 142
1 143
1 144
1 145
1 146
1 147
1 148
1 149
1 150
1 151
1 152
1 153
1 154
1 155
1 156
1 157
1 158
1 159
1 160
1 161
1 162
1 163
1 164
1 165
1 166
1 167
1 168
1 169
1 170
1 171
1 172
1 173
1 174
1 175
POINT_DATA 176
VECTORS i float
0.0 0.0 0.0
0.0 0.0 0.0
0.0 0.0 0.0
0.0 0.0 0.0
0.0 0.0 0.0
0.0 0.0 0.0
0.0 0.0 0.0
0.0 0.0 0.0
0.0 0.0 0.0
0.0 0.0 0.0
0.0 0.0 0.0
0.0 0.0 0.0
0.0 0.0 0.0
0.0 0.0 0.0
0.0 0.0 0.0
0.0 0.0 0.0
0.0 0.0 0.0
0.0 0.0 0.0
0.0 0.0 0.0
0.0 0.0 0.0
0.0 0.0 0.0
0.0 0.0 0.0
0.0 0.0 0.0
0.0 0.0 0.0
0.0 0.0 0.0
0.0 0.0 0.0
0.0 0.0 0.0
0.0 0.0 0.0
0.0 0.0 0.0
0.0 0.0 0.0
0.0 0.0 0.0
0.0 0.0 0.0
0.0 0.0 0.0
0.0 0.0 0.0
0.0 0.0 0.0
0.0 0.0 0.0
0.0 0.0 0.0
0.0 0.0 0.0
0.0 0.0 0.0
0.0 0.0 0.0
0.0 0.0 0.0
0.0 0.0 0.0
0.0 0.0 0.0
0.0 0.0 0.0
0.0 0.0 0.0
0.0 0.0 0.0
0.0 0.0 0.0
0.0 0.0 0.0
0.0 0.0 0.0
0.0 0.0 0.0
0.0 0.0 0.0
0.0 0.0 0.0
0.0 0.0 0.0
0.0 0.0 0.0
0.0 0.0 0.0
0.0 0.0 0.0
0.0 0.0 0.0
0.0 0.0 0.0
0.0 0.0 0.0
0.0 0.0 0.0
0.0 0.0 0.0
0.0 0.0 0.0
0.0 0.0 0.0
0.0 0.0 0.0
0.0 0.0 0.0
0.0 0.0 0.0
0.0 0.0 0.0
0.0 0.0 0.0
0.0 0.0 0.0
0.0 0.0 0.0
0.0 0.0 0.0
0.0 0.0 0.0
0.0 0.0 0.0
0.0 0.0 0.0
0.0 0.0 0.0
0.0 0.0 0.0
0.0 0.0 0.0
0.0 0.0 0.0
0.0 0.0 0.0
0.0 0.0 0.0
0.0 0.0 0.0
0.0 0.0 0.0
0.0 0.0 0.0
0.0 0.0 0.0
0.0 0.0 0.0
0.0 0.0 0.0
0.0 0.0 0.0
0.0 0.0 0.0
0.0 0.0 0.0
0.0 0.0 0.0
0.0 0.0 0.0
0.0 0.0 0.0
0.0 0.0 0.0
0.0 0.0 0.0
0.0 0.0 0.0
0.0 0.0 0.0
0.0 0.0 0.0
0.0 0.0 0.0
0.0 0.0 0.0
0.0 0.0 0.0
0.0 0.0 0.0
0.0 0.0 0.0
0.0 0.0 0.0
0.0 0.0 0.0
0.0 0.0 0.0
0.0 0.0 0.0
0.0 0.0 0.0
0.0 0.0 0.0
0.0 0.0 0.0
0.0 0.0 0.0
0.0 0.0 0.0
0.0 0.0 0.0
0.0 0.0 0.0
0.0 0.0 0.0
0.0 0.0 0.0
0.0 0.0 0.0
0.0 0.0 0.0
0.0 0.0 0.0
0.0 0.0 0.0
0.0 0.0 0.0
0.0 0.0 0.0
0.0 0.0 0.0
0.0 0.0 0.0
0.0 0.0 0.0
0.0 0.0 0.0
0.0 0.0 0.0
0.0 0.0 0.0
0.0 0.0 0.0
0.0 0.0 0.0
0.0 0.0 0.0
0.0 0.0 0.0
0.0 0.0 0.0
0.0 0.0 0.0
0.0 0.0 0.0
0.0 0.0 0.0
0.0 0.0 0.0
0.0 0.0 0.0
0.0 0.0 0.0
0.0 0.0 0.0
0.0 0.0 0.0
0.0 0.0 0.0
0.0 0.0 0.0
0.0 0.0 0.0
0.0 0.0 0.0
0.0 0.0 0.0
0.0 0.0 0.0
0.0 0.0 0.0
0.0 0.0 0.0
0.0 0.0 0.0
0.0 0.0 0.0
0.0 0.0 0.0
0.0 0.0 0.0
0.0 0.0 0.0
0.0 0.0 0.0
0.0 0.0 0.0
0.0 0.0 0.0
0.0 0.0 0.0
0.0 0.0 0.0
0.0 0.0 0.0
0.0 0.0 0.0
0.0 0.0 0.0
0.0 0.0 0.0
0.0 0.0 0.0
0.0 0.0 0.0
0.0 0.0 0.0
0.0 0.0 0.0
0.0 0.0 0.0
0.0 0.0 0.0
0.0 0.0 0.0
0.0 0.0 0.0
0.0 0.0 0.0
0.0 0.0 0.0
0.0 0.0 0.0
0.0 0.0 0.0
0.0 0.0 0.0
0.0 0.0 0.0
VECTORS f float
0.0 0.0 -2.77371
0.0 0.0 -2.77371
-0.0423127 3.17906 3.61413
-0.0266525 0.000626074 0.174836
0.0 0.0 -2.77371
-1.64019 0.158872 -3.59724
0.0 0.0 -2.77371
0.0 0.0 -2.77371
1.10868 13.1683 -51.2341
1.83669 0.23507 0.929624
-0.0105561 -0.698391 -1.4218
0.0 0.0 -2.77371
0.0 0.0 -2.77371
0.0 0.0 -2.77371
-0.00161385 -0.000295454 0.0464299
-0.00113477 -0.000187073 0.00372847
3.69843 -4.35752 14.703
0.0 0.0 -2.77371
-0.000653343 0.0340307 0.852084
1.91332 0.881663 -1.31495
-11.0772 -1.36925 30.2533
8.07216 -8.15014 10.6984
0.0 0.0 -2.77371
-0.256808 0.338477 4.64629
0.0 0.0 -2.77371
0.0 0.0 -2.77371
0.0 0.0 -2.77371
0.162567 -1.53134 -3.98246
-0.000370931 3.59991e-05 0.0456396
0.0 0.0 -2.77371
0.35416 0.252804 -2.55766
0.0 0.0 -2.77371
0.0184097 -0.0989121 -2.7217
0.0 0.0 -2.77371
0.157389 -2.78788 28.5338
0.0 0.0 -2.77371
0.0 0.0 -2.77371
-0.655568 0.150724 -6.47752
0.0 0.0 -2.77371
0.0374383 -0.576599 -1.4701
0.0 0.0 -2.77371
1.47432e-05 -6.16009e-07 0.00474768
0.00327121 -0.476018 -1.34568
0.0200248 -1.37511 -0.719799
0.0 0.0 -2.77371
0.0 0.0 -2.77371
-0.0767095 1.79444 2.60633
0.0750277 -0.112445 -2.49883
0.0 0.0 -2.77371
0.0 0.0 -2.77371
0.0 0.0 -2.77371
0.0 0.0 -2.77371
0.0 0.0 -2.77371
0.0 0.0 -2.77371
2.62548 7.51287 0.736879
0.0 0.0 -2.77371
-1.91332 -0.881663 -4.23247
-1.71102 -4.66616 1.40335
-0.0785624 0.716403 -2.83491
-0.35416 -0.252804 -2.98976
0.216854 -0.203386 -1.68076
0.0 0.0 -2.77371
0.0785624 -0.716403 -2.71251
33.9582 -2.47371 -36.5256
0.0 0.0 -2.77371
1.6825 -3.33793 -8.33802
-1.10868 -13.1683 45.6867
-3.82706 8.5963 -21.9665
0.0 0.0 -2.77371
0.0 0.0 -2.77371
0.128628 -4.23878 -1.05769
0.0 0.0 -2.77371
0.0 0.0 -2.77371
0.673404 0.412842 -3.06185
0.0 0.0 -2.77371
0.0 0.0 -2.77371
0.0 0.0 -2.77371
-16.0464 6.93367 -12.0172
0.0 0.0 -2.77371
0.0 0.0 -2.77371
0.803816 -54.7702 4.63083
0.0 0.0 -2.77371
-0.860595 33.7031 14.3928
0.0 0.0 -2.77371
0.23292 5.30057 -8.40283
0.0 0.0 -2.77371
0.0 0.0 -2.77371
0.0 0.0 -2.77371
-0.216854 0.203386 -3.86666
0.0 0.0 -2.77371
0.0 0.0 -2.77371
-17.9118 -4.45996 40.2217
0.0 0.0 -2.77371
0.0 0.0 -2.77371
0.0 0.0 -2.77371
0.0 0.0 -2.77371
0.0 0.0 -2.77371
0.0 0.0 -2.77371
0.0 0.0 -2.77371
0.0 0.0 -2.77371
0.0 0.0 -2.77371
0.0 0.0 -2.77371
0.0 0.0 -2.77371
0.0 0.0 -2.77371
0.0 0.0 -2.77371
0.0 0.0 -2.77371
0.0 0.0 -2.77371
0.0 0.0 -2.77371
0.0 0.0 -2.77371
0.0 0.0 -2.77371
0.0 0.0 -2.77371
0.0 0.0 -2.77371
0.0 0.0 -2.77371
0.0 0.0 -2.77371
0.0 0.0 -2.77371
0.0 0.0 -2.77371
0.0 0.0 -2.77371
0.0 0.0 -2.77371
0.0 0.0 -2.77371
0.0 0.0 -2.77371
0.0 0.0 -2.77371
0.0 0.0 -2.77371
0.0 0.0 -2.77371
0.0 0.0 -2.77371
0.0 0.0 -2.77371
0.0 0.0 -2.77371
0.0 0.0 -2.77371
0.0 0.0 -2.77371
0.0 0.0 -2.77371
0.0 0.0 -2.77371
0.0 0.0 -2.77371
0.0 0.0 -2.77371
0.0 0.0 -2.77371
0.0 0.0 -2.77371
0.0 0.0 -2.77371
0.0 0.0 -2.77371
0.0 0.0 -2.77371
0.0 0.0 -2.77371
0.0 0.0 -2.77371
0.0 0.0 -2.77371
0.0 0.0 -2.77371
0.0 0.0 -2.77371
0.0 0.0 -2.77371
0.0 0.0 -2.77371
0.0 0.0 -2.77371
0.0 0.0 -2.77371
0.0 0.0 -2.77371
0.0 0.0 -2.77371
0.0 0.0 -2.77371
0.0 0.0 -2.77371
0.0 0.0 -2.77371
0.0 0.0 -2.77371
0.0 0.0 -2.77371
0.0 0.0 -2.77371
0.0 0.0 -2.77371
0.0 0.0 0.0
0.0 0.0 0.0
0.0 0.0 0.0
0.0 0.0 0.0
0.0 0.0 0.0
0.0 0.0 0.0
0.0 0.0 0.0
0.0 0.0 0.0
0.0 0.0 0.0
0.0 0.0 0.0
0.0 0.0 0.0
0.0 0.0 0.0
0.0 0.0 0.0
0.0 0.0 0.0
0.0 0.0 0.0
0.0 0.0 0.0
0.0 0.0 0.0
0.0 0.0 0.0
0.0 0.0 0.0
0.0 0.0 0.0
0.0 0.0 0.0
VECTORS omega float
11.5985 -112.54 16.3501
-1.43752 -35.178 66.0558
4.14161 -52.6388 22.975
-0.879361 -67.5453 35.6998
9.19029 -108.768 1.97972
5.98124 -34.5256 2.14228
12.8671 -64.0363 -10.5463
9.76235 -48.6233 5.0065
6.7207 -77.9221 2.0236
-16.6001 -42.2375 9.83247
5.25127 -82.791 2.56024
11.8895 -61.2188 -24.1647
-0.193871 -80.3764 -1.10301
10.6489 -53.6283 -17.1907
8.2049 -53.2585 10.1393
11.358 -68.8966 15.7782
-9.42324 -58.8841 -1.5371
-6.97756 -70.0755 16.1048
2.89342 -47.8777 -12.8858
-32.2129 -41.7016 6.94528
6.24444 -72.9657 15.3347
2.14438 -80.0741 -10.4283
18.376 -77.3577 8.69058
-7.08598 -62.8361 -8.56344
3.59332 -67.4754 -1.0062
-3.0089 -61.1344 -3.69294
4.23622 -1.34721 -5.0162
-2.31736 -59.7264 -5.88069
-4.91983 -50.7309 2.52464
27.2687 -67.475 -4.166
-3.01935 -93.2521 29.0954
-2.90577 -10.4564 0.212455
-4.04121 -80.0485 -9.05772
-41.0375 15.7391 8.83672
-11.1613 -67.2888 8.8027
-8.04201 -63.5678 2.00424
-5.90024 -73.6908 -2.54792
-12.436 -71.8816 12.548
-9.96857 -78.6281 10.3005
-3.97814 -76.0012 7.40604
-15.5938 -60.3904 -14.7917
-1.81728 -43.4919 1.90422
-5.33585 -95.3217 -14.4504
1.4975 -84.658 -22.8825
7.99867 -91.4259 34.8013
12.6731 -5.24697 64.797
4.03792 -83.8218 1.30801
10.8927 54.7079 -2.92332
2.69317 -9.59353 -3.17817
-1.37389 5.33586 30.5853
8.95253 -50.9918 -2.42304
14.1708 -24.2225 -5.32658
29.4647 21.0095 -22.8687
-9.82213 5.76795 -1.25529
21.3298 24.9258 4.60683
-6.26289 -9.76218 4.03043
8.06724 14.5087 -11.9837
-5.73983 21.0482 -23.168
10.6683 -5.51937 -13.0484
1.33587 40.5226 -30.7596
13.7653 39.8163 29.5403
16.8123 -45.9665 7.84816
19.5112 15.5792 3.78631
2.61505 -73.356 -4.11401
-8.73866 86.2353 17.7017
-6.38961 25.8641 -15.9028
7.37654 18.8416 3.47395
18.5804 42.0116 -0.346312
32.108 -29.8844 12.8159
17.9512 -5.09578 -12.4657
-24.8465 13.5849 5.40527
0.0 0.0 0.0
-11.6472 -27.1285 -1.53264
17.9917 0.488384 7.03406
5.11574 -46.1421 -14.4888
0.0 0.0 0.0
-6.18561 -61.3641 -9.5164
0.941051 29.9136 -13.5808
-27.7984 40.0863 14.5704
0.0 0.0 0.0
16.426 -44.1511 5.52272
16.5687 -3.96294 -1.79181
2.08783 -36.2527 -10.3524
4.00156 74.1078 3.32257
41.8988 -12.4958 -1.45996
16.1528 6.81984 -0.918326
23.2755 22.4398 -44.7643
-9.19163 -33.8691 1.4826
-10.0573 -34.2907 -0.0702058
10.0043 69.7994 3.39946
6.30564 -15.6765 -2.08881
11.729 3.57376 1.5795
-23.5956 -19.7879 -3.22434
-37.5588 -64.8153 28.7954
0.0 0.0 0.0
0.0 0.0 0.0
0.0 0.0 0.0
0.0 0.0 0.0
0.0 0.0 0.0
0.0 0.0 0.0
0.0 0.0 0.0
0.0 0.0 0.0
0.0 0.0 0.0
0.0 0.0 0.0
0.0 0.0 0.0
0.0 0.0 0.0
0.0 0.0 0.0
0.0 0.0 0.0
0.0 0.0 0.0
0.0 0.0 0.0
0.0 0.0 0.0
0.0 0.0 0.0
0.0 0.0 0.0
0.0 0.0 0.0
0.0 0.0 0.0
0.0 0.0 0.0
0.0 0.0 0.0
0.0 0.0 0.0
0.0 0.0 0.0
0.0 0.0 0.0
0.0 0.0 0.0
0.0 0.0 0.0
0.0 0.0 0.0
0.0 0.0 0.0
0.0 0.0 0.0
0.0 0.0 0.0
0.0 0.0 0.0
0.0 0.0 0.0
0.0 0.0 0.0
0.0 0.0 0.0
0.0 0.0 0.0
0.0 0.0 0.0
0.0 0.0 0.0
0.0 0.0 0.0
0.0 0.0 0.0
0.0 0.0 0.0
0.0 0.0 0.0
0.0 0.0 0.0
0.0 0.0 0.0
0.0 0.0 0.0
0.0 0.0 0.0
0.0 0.0 0.0
0.0 0.0 0.0
0.0 0.0 0.0
0.0 0.0 0.0
0.0 0.0 0.0
0.0 0.0 0.0
0.0 0.0 0.0
0.0 0.0 0.0
0.0 0.0 0.0
0.0 0.0 0.0
0.0 0.0 0.0
0.0 0.0 0.0
0.0 0.0 0.0
0.0 0.0 0.0
0.0 0.0 0.0
0.0 0.0 0.0
0.0 0.0 0.0
0.0 0.0 0.0
0.0 0.0 0.0
0.0 0.0 0.0
0.0 0.0 0.0
0.0 0.0 0.0
0.0 0.0 0.0
0.0 0.0 0.0
0.0 0.0 0.0
0.0 0.0 0.0
0.0 0.0 0.0
0.0 0.0 0.0
0.0 0.0 0.0
0.0 0.0 0.0
0.0 0.0 0.0
0.0 0.0 0.0
0.0 0.0 0.0
0.0 0.0 0.0
0.0 0.0 0.0
VECTORS v float
1.15728 -0.166789 0.12411
1.87257 0.42631 0.327981
1.98679 -0.0367865 -0.655531
1.98341 0.0262399 0.00599674
0.784315 -0.270782 0.53321
1.80883 -0.18052 -0.0299348
1.88225 -0.359068 0.074909
2.00787 -0.251458 -0.488042
1.56343 0.246482 -1.74616
1.15567 0.292895 -0.00054713
1.60399 -0.214855 0.140383
2.16455 -0.358123 0.0279045
1.60079 -0.00333441 0.178506
1.60102 0.147806 0.0434926
2.40894 -0.245113 0.000595435
1.94159 -0.33934 0.000260443
1.00957 0.237476 -1.21537
1.89987 0.211543 -0.0533324
2.57113 -0.0874777 -0.0184077
0.745149 -0.385016 -1.24027
2.21265 -0.140913 0.346618
1.61049 0.093477 -0.241318
1.26754 -0.0410186 0.0560951
1.67034 0.437299 0.00233102
1.79681 -0.0384582 -0.0859541
1.97047 0.148686 -0.336971
0.591058 0.168697 -0.836593
2.2048 0.118441 0.0539479
2.48441 0.14698 0.000160242
0.660515 0.4574 0.152707
1.2459 0.0762881 0.0175265
1.18282 0.561159 -0.952643
1.60737 0.104616 0.124403
2.31572 0.460046 -0.0266693
2.03592 0.431244 0.133395
2.09648 0.241044 -0.0205927
-0.162301 0.0922564 0.0962725
1.85449 0.371207 0.122543
1.76525 0.485117 0.326264
1.72936 0.173199 0.0517958
2.19549 0.463199 -0.034904
2.70058 0.0542954 -2.35136e-07
1.67503 0.102734 0.0898546
1.72772 -0.0232078 -0.0305603
1.32733 -0.118342 0.202685
1.84199 -0.0979599 0.201528
2.19645 -0.104001 0.0750886
1.21345 -0.662415 0.134461
-0.317404 -0.198572 -2.83441
0.0391081 -0.341599 -0.245347
0.889234 -0.20798 -0.119871
0.372185 -0.131869 -1.87983
1.35705 -0.601764 -0.0543529
1.42031 -0.368074 0.229107
0.416521 -0.474556 -0.713506
0.406629 -0.381782 -1.61119
0.353149 0.0319036 -0.812127
0.571855 0.6413 0.264688
0.505418 0.0329925 -1.01385
0.583393 0.592852 0.283254
0.702102 -0.260614 -0.0492021
0.803046 -0.0249121 -0.275961
0.619153 -0.0444341 -0.374426
1.6258 0.250563 0.293742
1.77223 0.0960884 -0.0533615
1.16748 0.272354 -0.131476
-0.443017 -0.226355 -1.09979
0.829779 -0.184658 -0.282623
-0.91941 -0.566641 -1.13231
0.860315 -0.656238 -0.648259
1.02196 0.134364 -1.43941
0.0 0.0 -2.9958
-0.648019 0.293832 -1.25444
0.866904 0.00183567 0.0674362
1.39052 0.105394 -0.0252274
0.0 0.0 -3.08526
-0.646972 -0.214742 -1.27686
0.0569917 0.546629 -1.21281
0.663295 1.04463 0.111554
0.0 0.0 -2.88877
0.191866 0.0218412 -0.855681
-0.124716 -0.81063 -2.22334
2.1429e-05 0.11179 -0.774133
0.946905 -0.105495 -1.41787
0.187425 -0.212226 -0.20519
0.568815 -0.401891 -0.930156
0.654171 0.279044 0.15984
2.12519 -0.562156 -0.377407
0.892561 -0.136507 -0.026417
1.69768 -0.0216894 1.75166
0.32222 -0.177851 -0.759961
1.04853 0.103984 -1.7222
-0.0400379 -0.391965 -0.754714
0.690883 1.24682 0.493965
0.0 0.0 -2.61271
0.0 0.0 -2.71562
0.0 0.0 -2.68295
0.0 0.0 -2.67177
0.0 0.0 -2.50579
0.0 0.0 -2.59643
0.0 0.0 -2.57161
0.0 0.0 -2.56455
0.0 0.0 -2.53934
0.0 0.0 -2.46792
0.0 0.0 -2.59408
0.0 0.0 -2.54198
0.0 0.0 -2.33058
0.0 0.0 -2.42113
0.0 0.0 -2.35481
0.0 0.0 -2.34039
0.0 0.0 -2.26318
0.0 0.0 -2.16626
0.0 0.0 -2.29781
0.0 0.0 -2.17705
0.0 0.0 -2.18775
0.0 0.0 -2.28477
0.0 0.0 -2.25455
0.0 0.0 -2.29075
0.0 0.0 -1.99822
0.0 0.0 -2.12722
0.0 0.0 -2.01303
0.0 0.0 -1.83498
0.0 0.0 -1.84312
0.0 0.0 -1.8959
0.0 0.0 -1.92386
0.0 0.0 -1.92827
0.0 0.0 -1.84096
0.0 0.0 -1.91797
0.0 0.0 -1.80643
0.0 0.0 -1.8341
0.0 0.0 -1.72756
0.0 0.0 -1.60925
0.0 0.0 -1.65722
0.0 0.0 -1.77514
0.0 0.0 -1.59738
0.0 0.0 -1.64682
0.0 0.0 -1.75512
0.0 0.0 -1.32319
0.0 0.0 -1.43051
0.0 0.0 -1.3845
0.0 0.0 -1.4053
0.0 0.0 -1.34899
0.0 0.0 -1.37146
0.0 0.0 -1.39735
0.0 0.0 -1.24039
0.0 0.0 -1.01398
0.0 0.0 -1.24412
0.0 0.0 -1.17898
0.0 0.0 -1.0802
0.0 0.0 -1.2505
0.0 0.0 -1.27326
0.0 0.0 -1.27924
0.0 0.0 -1.02124
0.0 0.0 -1.06941
0.0 0.0 -1.19497
-0 -0 -1.0
-0 -0 -1.0
-0 -0 -1.0
-0 -0 -1.0
-0 -0 -1.0
-0 -0 -1.0
-0 -0 -1.0
-0 -0 -1.0
-0 -0 -1.0
-0 -0 -1.0
-0 -0 -1.0
-0 -0 -1.0
-0 -0 -1.0
-0 -0 -1.0
-0 -0 -1.0
-0 -0 -1.0
-0 -0 -1.0
-0 -0 -1.0
-0 -0 -1.0
-0 -0 -1.0
-0 -0 -1.0
SCALARS radius float 1
LOOKUP_TABLE default
0.03
0.03
0.03
0.03
0.03
0.03
0.03
0.03
0.03
0.03
0.03
0.03
0.03
0.03
0.03
0.03
0.03
0.03
0.03
0.03
0.03
0.03
0.03
0.03
0.03
0.03
0.03
0.03
0.03
0.03
0.03
0.03
0.03
0.03
0.03
0.03
0.03
0.03
0.03
0.03
0.03
0.03
0.03
0.03
0.03
0.03
0.03
0.03
0.03
0.03
0.03
0.03
0.03
0.03
0.03
0.03
0.03
0.03
0.03
0.03
0.03
0.03
0.03
0.03
0.03
0.03
0.03
0.03
0.03
0.03
0.03
0.03
0.03
0.03
0.03
0.03
0.03
0.03
0.03
0.03
0.03
0.03
0.03
0.03
0.03
0.03
0.03
0.03
0.03
0.03
0.03
0.03
0.03
0.03
0.03
0.03
0.03
0.03
0.03
0.03
0.03
0.03
0.03
0.03
0.03
0.03
0.03
0.03
0.03
0.03
0.03
0.03
0.03
0.03
0.03
0.03
0.03
0.03
0.03
0.03
0.03
0.03
0.03
0.03
0.03
0.03
0.03
0.03
0.03
0.03
0.03
0.03
0.03
0.03
0.03
0.03
0.03
0.03
0.03
0.03
0.03
0.03
0.03
0.03
0.03
0.03
0.03
0.03
0.03
0.03
0.03
0.03
0.03
0.03
0.03
0.03
0.03
0.03
0.03
0.03
0.03
0.03
0.03
0.03
0.03
0.03
0.03
0.03
0.03
0.03
0.03
0.03
0.03
0.03
0.03
0.03
SCALARS type float 1
LOOKUP_TABLE default
1.0
1.0
1.0
1.0
1.0
1.0
1.0
1.0
1.0
1.0
1.0
1.0
1.0
1.0
1.0
1.0
1.0
1.0
1.0
1.0
1.0
1.0
1.0
1.0
1.0
1.0
1.0
1.0
1.0
1.0
1.0
1.0
1.0
1.0
1.0
1.0
1.0
1.0
1.0
1.0
1.0
1.0
1.0
1.0
1.0
1.0
1.0
1.0
1.0
1.0
1.0
1.0
1.0
1.0
1.0
1.0
1.0
1.0
1.0
1.0
1.0
1.0
1.0
1.0
1.0
1.0
1.0
1.0
1.0
1.0
1.0
1.0
1.0
1.0
1.0
1.0
1.0
1.0
1.0
1.0
1.0
1.0
1.0
1.0
1.0
1.0
1.0
1.0
1.0
1.0
1.0
1.0
1.0
1.0
1.0
1.0
1.0
1.0
1.0
1.0
1.0
1.0
1.0
1.0
1.0
1.0
1.0
1.0
1.0
1.0
1.0
1.0
1.0
1.0
1.0
1.0
1.0
1.0
1.0
1.0
1.0
1.0
1.0
1.0
1.0
1.0
1.0
1.0
1.0
1.0
1.0
1.0
1.0
1.0
1.0
1.0
1.0
1.0
1.0
1.0
1.0
1.0
1.0
1.0
1.0
1.0
1.0
1.0
1.0
1.0
1.0
1.0
1.0
1.0
1.0
1.0
1.0
1.0
1.0
1.0
1.0
1.0
1.0
1.0
1.0
1.0
1.0
1.0
1.0
1.0
1.0
1.0
1.0
1.0
1.0
1.0
SCALARS id float 1
LOOKUP_TABLE default
128.0
73.0
123.0
137.0
148.0
81.0
105.0
100.0
15.0
146.0
49.0
129.0
79.0
127.0
145.0
92.0
5.0
29.0
104.0
31.0
99.0
76.0
71.0
149.0
144.0
112.0
80.0
41.0
138.0
118.0
61.0
4.0
21.0
24.0
166.0
16.0
17.0
51.0
97.0
85.0
151.0
18.0
66.0
167.0
108.0
171.0
94.0
1.0
60.0
64.0
42.0
116.0
19.0
45.0
47.0
93.0
57.0
133.0
83.0
12.0
131.0
152.0
164.0
98.0
53.0
32.0
46.0
72.0
70.0
23.0
157.0
176.0
28.0
44.0
82.0
77.0
75.0
2.0
174.0
140.0
10.0
155.0
55.0
136.0
26.0
173.0
91.0
130.0
68.0
107.0
67.0
110.0
102.0
125.0
135.0
63.0
30.0
52.0
22.0
156.0
35.0
25.0
165.0
101.0
163.0
143.0
40.0
120.0
134.0
159.0
86.0
13.0
8.0
58.0
78.0
113.0
33.0
162.0
139.0
109.0
87.0
69.0
117.0
43.0
121.0
153.0
115.0
37.0
119.0
168.0
158.0
27.0
38.0
147.0
90.0
170.0
150.0
7.0
48.0
3.0
50.0
103.0
11.0
111.0
114.0
141.0
14.0
62.0
169.0
54.0
95.0
65.0
56.0
154.0
161.0
126.0
36.0
142.0
175.0
59.0
74.0
6.0
84.0
39.0
96.0
132.0
89.0
124.0
106.0
122.0
20.0
172.0
34.0
9.0
88.0
160.0
SCALARS Temp float 1
LOOKUP_TABLE default
312.371
303.628
323.837
323.648
303.856
303.94
326.819
304.11
303.541
308.106
329.504
328.756
317.764
303.875
313.537
319.658
306.722
325.259
314.16
303.86
317.815
318.235
310.894
317.503
309.982
318.347
303.892
327.082
316.774
303.946
314.221
300.412
326.409
303.414
322.692
313.812
303.309
317.718
306.615
327.572
303.374
322.156
325.314
323.698
319.347
303.478
310.494
300.594
300.0
300.162
304.116
300.001
300.333
300.517
300.408
300.099
300.133
300.909
300.148
300.437
301.118
304.029
300.261
317.645
304.139
300.409
300.017
300.266
300.022
300.137
300.002
300.0
300.001
300.342
303.961
300.0
300.001
300.751
300.259
300.0
300.002
300.0
300.007
300.0
300.013
300.001
300.278
300.005
300.017
300.048
300.005
300.029
300.002
300.009
300.0
300.0
300.0
300.0
300.0
300.0
300.0
300.0
300.0
300.0
300.0
300.0
300.0
300.0
300.0
300.0
300.0
300.0
300.0
300.0
300.0
300.0
300.0
300.0
300.0
300.0
300.0
300.0
300.0
300.0
300.0
300.0
300.0
300.0
300.0
300.0
300.0
300.0
300.0
300.0
300.0
300.0
300.0
300.0
300.0
300.0
300.0
300.0
300.0
300.0
300.0
300.0
300.0
300.0
300.0
300.0
300.0
300.0
300.0
300.0
300.0
300.0
300.0
300.0
300.0
300.0
300.0
300.0
300.0
300.0
300.0
300.0
300.0
300.0
300.0
300.0
300.0
300.0
300.0
300.0
300.0
300.0

