# vtk DataFile Version 2.0
Generated by lpp.py
ASCII
DATASET POLYDATA
POINTS 176 float
0.329731 0.163455 1.59955
0.398616 0.182758 1.57865
0.532471 0.185491 1.57745
0.598953 0.16438 1.59901
0.198371 0.193611 1.57793
0.184615 0.26245 1.58195
0.249398 0.235964 1.57675
0.470748 0.253464 1.57686
0.55034 0.264874 1.57687
0.645265 0.22819 1.57685
0.323953 0.280735 1.57646
0.637031 0.289613 1.57697
0.740502 0.288598 1.57688
0.471772 0.329982 1.57687
0.543663 0.33549 1.57753
0.117662 0.365557 1.58039
0.182098 0.344937 1.57923
0.27655 0.350358 1.59271
0.373846 0.362345 1.5743
0.23775 0.401277 1.58392
0.320252 0.390153 1.58189
0.539437 0.405461 1.58595
0.597212 0.386331 1.58959
0.371393 0.428694 1.57568
0.752659 0.423661 1.57694
0.226353 0.458836 1.57449
0.456651 0.467472 1.57875
0.592983 0.448887 1.58292
0.657944 0.474753 1.57704
0.197361 0.513868 1.57575
0.379937 0.487416 1.58064
0.488614 0.513356 1.60541
0.774108 0.51443 1.57687
0.0389228 0.518067 1.58878
0.273947 0.516837 1.57601
0.440646 0.531145 1.57636
0.621523 0.532406 1.57716
0.375975 0.574534 1.58507
0.516285 0.574275 1.58439
0.422364 0.144317 1.62072
0.134058 0.227054 1.58788
0.289693 0.217077 1.62009
0.519862 0.224221 1.62209
0.718428 0.215749 1.60251
0.353974 0.23275 1.5951
0.420374 0.280531 1.59697
0.405174 0.339727 1.62161
0.510052 0.316041 1.62426
0.570095 0.306087 1.62463
0.183296 0.371645 1.63696
0.369749 0.393622 1.6216
0.469446 0.383916 1.63702
0.167359 0.424496 1.60265
0.216309 0.443127 1.63088
0.419716 0.430758 1.63159
0.100655 0.458725 1.58106
0.274564 0.456335 1.60569
0.331272 0.444397 1.61669
0.308776 0.510707 1.62401
0.40198 0.504284 1.64089
0.565663 0.551468 1.61683
0.428858 0.20409 1.62567
0.335605 0.253529 1.6514
0.656934 0.244228 1.63316
0.158498 0.293033 1.65477
0.238618 0.316601 1.6706
0.721234 0.436478 1.65959
0.47752 0.461324 1.63148
0.669485 0.479095 1.64049
0.22642 0.50405 1.624
0.428714 0.578706 1.64791
0.41281 0.323303 1.68104
0.278829 0.416176 1.67408
0.371422 0.375765 1.67717
0.60498 0.431177 1.68994
0.387358 0.553172 1.68222
0.112056 0.26459 1.70982
0.144122 0.349922 1.70281
0.302618 0.361023 1.69014
0.492418 0.457924 1.70462
0.218269 0.254539 1.74504
0.228049 0.384522 1.73512
0.497086 0.400324 1.74827
0.179788 0.4242 1.73058
0.10161 0.511094 1.72848
0.190793 0.498184 1.72786
0.421483 0.499457 1.73766
0.377994 0.24098 1.78045
0.43763 0.245516 1.76006
0.235855 0.316318 1.7702
0.368613 0.311971 1.77963
0.486179 0.312628 1.78154
0.108382 0.420889 1.75263
0.486742 0.509906 1.76419
0.438372 0.392123 1.82298
0.290891 0.301706 1.84681
0.181029 0.318367 1.85048
0.41904 0.310566 1.85603
0.278223 0.363632 1.8576
0.353388 0.44487 1.83066
0.419456 0.449551 1.85101
0.307792 0.495572 1.83326
0.254767 0.230824 1.87043
0.495956 0.249499 1.8883
0.155769 0.403018 1.86314
0.240863 0.437556 1.87851
0.218974 0.524143 1.86256
0.178322 0.227864 1.91969
0.408343 0.240904 1.90661
0.355542 0.30862 1.91303
0.499251 0.382901 1.91555
0.161462 0.479607 1.92133
0.476719 0.464357 1.9018
0.105277 0.51875 1.9144
0.423627 0.520356 1.90466
0.117057 0.232547 1.96665
0.150682 0.290471 1.9377
0.118071 0.372478 1.93575
0.216306 0.357237 1.93379
0.429922 0.3736 1.94468
0.367693 0.467546 1.96421
0.199862 0.243713 2.00721
0.33461 0.249494 1.992
0.258494 0.28056 1.9908
0.46021 0.268154 1.98287
0.294692 0.330306 1.97853
0.414233 0.306803 1.97784
0.320208 0.403691 2.00063
0.113325 0.448918 2.00343
0.209546 0.484752 1.99113
0.313052 0.494322 1.97946
0.446997 0.50849 1.99616
0.387237 0.525686 1.99214
0.47999 0.300848 2.04315
0.375347 0.345395 2.02261
0.169236 0.376906 2.01654
0.261069 0.440732 2.02407
0.491591 0.428372 2.01788
0.254698 0.262308 2.0626
0.417913 0.266516 2.05416
0.121033 0.279919 2.06222
0.187546 0.294736 2.06886
0.378219 0.307765 2.07893
0.103577 0.34242 2.04791
0.230407 0.340128 2.04578
0.287678 0.358468 2.06158
0.227036 0.399722 2.05926
0.380254 0.404128 2.05153
0.448915 0.39365 2.05864
0.441781 0.458388 2.04924
0.131272 0.513706 2.0466
0.208645 0.523817 2.08003
0.35506 0.52072 2.06723
0.29951 0.265646 2.11473
0.365118 0.235733 2.08568
0.26261 0.317421 2.11461
0.121236 0.342722 2.11496
0.234882 0.370686 2.1119
0.360498 0.363939 2.09203
0.10427 0.421706 2.08997
0.200976 0.455034 2.08494
0.317689 0.454971 2.09695
0.387139 0.48601 2.11051
0.491668 0.49724 2.09518
0.136955 0.241756 2.13145
0.478513 0.241448 2.12775
0.200031 0.295208 2.12871
0.352336 0.290052 2.13528
0.43656 0.349215 2.12852
0.18594 0.400862 2.13647
0.288982 0.398489 2.13045
0.41824 0.41741 2.13107
0.250123 0.467148 2.12514
0.485548 0.450278 2.13645
0.124302 0.506318 2.11864
0.302009 0.506095 2.13474
VERTICES 176 352
1 0
1 1
1 2
1 3
1 4
1 5
1 6
1 7
1 8
1 9
1 10
1 11
1 12
1 13
1 14
1 15
1 16
1 17
1 18
1 19
1 20
1 21
1 22
1 23
1 24
1 25
1 26
1 27
1 28
1 29
1 30
1 31
1 32
1 33
1 34
1 35
1 36
1 37
1 38
1 39
1 40
1 41
1 42
1 43
1 44
1 45
1 46
1 47
1 48
1 49
1 50
1 51
1 52
1 53
1 54
1 55
1 56
1 57
1 58
1 59
1 60
1 61
1 62
1 63
1 64
1 65
1 66
1 67
1 68
1 69
1 70
1 71
1 72
1 73
1 74
1 75
1 76
1 77
1 78
1 79
1 80
1 81
1 82
1 83
1 84
1 85
1 86
1 87
1 88
1 89
1 90
1 91
1 92
1 93
1 94
1 95
1 96
1 97
1 98
1 99
1 100
1 101
1 102
1 103
1 104
1 105
1 106
1 107
1 108
1 109
1 110
1 111
1 112
1 113
1 114
1 115
1 116
1 117
1 118
1 119
1 120
1 121
1 122
1 123
1 124
1 125
1 126
1 127
1 128
1 129
1 130
1 131
1 132
1 133
1 134
1 135
1 136
1 137
1 138
1 139
1 140
1 141
1 142
1 143
1 144
1 145
1 146
1 147
1 148
1 149
1 150
1 151
1 152
1 153
1 154
1 155
1 156
1 157
1 158
1 159
1 160
1 161
1 162
1 163
1 164
1 165
1 166
1 167
1 168
1 169
1 170
1 171
1 172
1 173
1 174
1 175
POINT_DATA 176
VECTORS i float
0.0 0.0 0.0
0.0 0.0 0.0
0.0 0.0 0.0
0.0 0.0 0.0
0.0 0.0 0.0
0.0 0.0 0.0
0.0 0.0 0.0
0.0 0.0 0.0
0.0 0.0 0.0
0.0 0.0 0.0
0.0 0.0 0.0
0.0 0.0 0.0
0.0 0.0 0.0
0.0 0.0 0.0
0.0 0.0 0.0
0.0 0.0 0.0
0.0 0.0 0.0
0.0 0.0 0.0
0.0 0.0 0.0
0.0 0.0 0.0
0.0 0.0 0.0
0.0 0.0 0.0
0.0 0.0 0.0
0.0 0.0 0.0
0.0 0.0 0.0
0.0 0.0 0.0
0.0 0.0 0.0
0.0 0.0 0.0
0.0 0.0 0.0
0.0 0.0 0.0
0.0 0.0 0.0
0.0 0.0 0.0
0.0 0.0 0.0
0.0 0.0 0.0
0.0 0.0 0.0
0.0 0.0 0.0
0.0 0.0 0.0
0.0 0.0 0.0
0.0 0.0 0.0
0.0 0.0 0.0
0.0 0.0 0.0
0.0 0.0 0.0
0.0 0.0 0.0
0.0 0.0 0.0
0.0 0.0 0.0
0.0 0.0 0.0
0.0 0.0 0.0
0.0 0.0 0.0
0.0 0.0 0.0
0.0 0.0 0.0
0.0 0.0 0.0
0.0 0.0 0.0
0.0 0.0 0.0
0.0 0.0 0.0
0.0 0.0 0.0
0.0 0.0 0.0
0.0 0.0 0.0
0.0 0.0 0.0
0.0 0.0 0.0
0.0 0.0 0.0
0.0 0.0 0.0
0.0 0.0 0.0
0.0 0.0 0.0
0.0 0.0 0.0
0.0 0.0 0.0
0.0 0.0 0.0
0.0 0.0 0.0
0.0 0.0 0.0
0.0 0.0 0.0
0.0 0.0 0.0
0.0 0.0 0.0
0.0 0.0 0.0
0.0 0.0 0.0
0.0 0.0 0.0
0.0 0.0 0.0
0.0 0.0 0.0
0.0 0.0 0.0
0.0 0.0 0.0
0.0 0.0 0.0
0.0 0.0 0.0
0.0 0.0 0.0
0.0 0.0 0.0
0.0 0.0 0.0
0.0 0.0 0.0
0.0 0.0 0.0
0.0 0.0 0.0
0.0 0.0 0.0
0.0 0.0 0.0
0.0 0.0 0.0
0.0 0.0 0.0
0.0 0.0 0.0
0.0 0.0 0.0
0.0 0.0 0.0
0.0 0.0 0.0
0.0 0.0 0.0
0.0 0.0 0.0
0.0 0.0 0.0
0.0 0.0 0.0
0.0 0.0 0.0
0.0 0.0 0.0
0.0 0.0 0.0
0.0 0.0 0.0
0.0 0.0 0.0
0.0 0.0 0.0
0.0 0.0 0.0
0.0 0.0 0.0
0.0 0.0 0.0
0.0 0.0 0.0
0.0 0.0 0.0
0.0 0.0 0.0
0.0 0.0 0.0
0.0 0.0 0.0
0.0 0.0 0.0
0.0 0.0 0.0
0.0 0.0 0.0
0.0 0.0 0.0
0.0 0.0 0.0
0.0 0.0 0.0
0.0 0.0 0.0
0.0 0.0 0.0
0.0 0.0 0.0
0.0 0.0 0.0
0.0 0.0 0.0
0.0 0.0 0.0
0.0 0.0 0.0
0.0 0.0 0.0
0.0 0.0 0.0
0.0 0.0 0.0
0.0 0.0 0.0
0.0 0.0 0.0
0.0 0.0 0.0
0.0 0.0 0.0
0.0 0.0 0.0
0.0 0.0 0.0
0.0 0.0 0.0
0.0 0.0 0.0
0.0 0.0 0.0
0.0 0.0 0.0
0.0 0.0 0.0
0.0 0.0 0.0
0.0 0.0 0.0
0.0 0.0 0.0
0.0 0.0 0.0
0.0 0.0 0.0
0.0 0.0 0.0
0.0 0.0 0.0
0.0 0.0 0.0
0.0 0.0 0.0
0.0 0.0 0.0
0.0 0.0 0.0
0.0 0.0 0.0
0.0 0.0 0.0
0.0 0.0 0.0
0.0 0.0 0.0
0.0 0.0 0.0
0.0 0.0 0.0
0.0 0.0 0.0
0.0 0.0 0.0
0.0 0.0 0.0
0.0 0.0 0.0
0.0 0.0 0.0
0.0 0.0 0.0
0.0 0.0 0.0
0.0 0.0 0.0
0.0 0.0 0.0
0.0 0.0 0.0
0.0 0.0 0.0
0.0 0.0 0.0
0.0 0.0 0.0
0.0 0.0 0.0
0.0 0.0 0.0
0.0 0.0 0.0
0.0 0.0 0.0
0.0 0.0 0.0
0.0 0.0 0.0
0.0 0.0 0.0
VECTORS f float
0.121445 0.57679 -0.891923
25.8384 13.6536 -80.6552
0.287344 0.721317 -0.731999
0.0 0.0 -2.77371
0.0 0.0 -2.77371
0.0 0.0 -2.77371
3.7121 1.27479 -10.6235
-0.00268287 -0.000336761 0.0103321
0.0407216 -0.010398 0.0605015
6.14863 0.24773 -13.0074
5.70671 -8.29291 6.28848
0.952235 -0.0164918 -0.868956
0.0300659 0.0049565 -0.0209262
-0.409705 -0.0366867 -0.727073
0.0 0.0 -2.77371
0.0 0.0 -2.77371
0.0 0.0 -2.77371
0.0 0.0 -2.77371
16.5119 -16.6171 61.9013
3.00378 -7.56274 2.69199
0.0 0.0 -2.77371
0.0 0.0 -2.77371
0.0 0.0 -2.77371
-35.9892 15.4556 -8.19135
0.011798 -0.000915121 -0.937778
-1.25526 18.164 17.6595
-20.4043 11.3381 -61.5037
0.0 0.0 -2.77371
-0.18088 0.106528 -5.02615
26.6522 -9.102 -18.4609
3.16308 5.7141 -0.103819
11.4746 -3.47708 11.5952
0.000402864 -1.63256e-05 -0.108902
0.0 0.0 -2.77371
-7.06328 -0.214392 -18.7898
0.206697 3.74787 2.98853
0.0 0.0 -2.77371
0.0 0.0 -2.77371
0.0 0.0 -2.77371
0.0 0.0 -2.77371
0.0 0.0 -2.77371
0.0 0.0 -2.77371
0.0 0.0 -2.77371
0.0 0.0 -2.77371
-2.7872 4.34639 -2.01785
0.0 0.0 -2.77371
0.0 0.0 -2.77371
0.0 0.0 -2.77371
0.0 0.0 -2.77371
0.0 0.0 -2.77371
18.8335 1.94909 86.4155
0.0 0.0 -2.77371
5.37045 1.37028 4.50203
-5.78365 -1.55922 -9.51447
0.0 0.0 -2.77371
0.0 0.0 -2.77371
18.0973 -0.862723 44.0982
9.37791 1.83216 -1.19623
-10.5465 2.11117 -27.5482
0.0 0.0 -2.77371
0.0 0.0 -2.77371
-30.3584 2.96886 90.3163
0.0 0.0 -2.77371
-3.3868 1.27093 11.8699
0.0 0.0 -2.77371
0.0 0.0 -2.77371
0.0 0.0 -2.77371
20.739 -15.9492 61.3767
0.0 0.0 -2.77371
7.33343 -10.5792 91.4595
0.888614 0.00488951 -3.30361
0.0 0.0 -2.77371
0.0 0.0 -2.77371
-7.09164 -0.0842169 18.397
0.0 0.0 -2.77371
-0.888614 -0.00488951 -2.24381
0.0 0.0 -2.77371
0.0 0.0 -2.77371
0.0 0.0 -2.77371
0.0 0.0 -2.77371
0.0 0.0 -2.77371
0.0 0.0 -2.77371
0.0 0.0 -2.77371
0.0 0.0 -2.77371
0.0 0.0 -2.77371
0.0 0.0 -2.77371
0.0 0.0 -2.77371
0.0 0.0 -2.77371
0.0 0.0 -2.77371
0.0 0.0 -2.77371
0.0 0.0 -2.77371
0.0 0.0 -2.77371
0.0 0.0 -2.77371
0.0 0.0 -2.77371
0.0 0.0 -2.77371
0.0 0.0 -2.77371
0.0 0.0 -2.77371
0.0 0.0 -2.77371
0.0 0.0 -2.77371
0.0 0.0 -2.77371
0.0 0.0 -2.77371
0.0 0.0 -2.77371
0.0 0.0 -2.77371
0.0 0.0 -2.77371
0.0 0.0 -2.77371
0.0 0.0 -2.77371
0.0 0.0 -2.77371
0.0 0.0 -2.77371
0.0 0.0 -2.77371
0.0 0.0 -2.77371
0.0 0.0 -2.77371
0.0 0.0 -2.77371
0.0 0.0 -2.77371
0.0 0.0 -2.77371
0.0 0.0 -2.77371
0.0 0.0 -2.77371
0.0 0.0 -2.77371
0.0 0.0 -2.77371
0.0 0.0 -2.77371
0.0 0.0 -2.77371
0.0 0.0 -2.77371
0.0 0.0 -2.77371
0.0 0.0 -2.77371
0.0 0.0 -2.77371
0.0 0.0 -2.77371
0.0 0.0 -2.77371
0.0 0.0 -2.77371
0.0 0.0 -2.77371
0.0 0.0 -2.77371
0.0 0.0 -2.77371
0.0 0.0 -2.77371
0.0 0.0 -2.77371
0.0 0.0 -2.77371
0.0 0.0 -2.77371
0.0 0.0 -2.77371
0.0 0.0 -2.77371
0.0 0.0 -2.77371
0.0 0.0 -2.77371
0.0 0.0 0.0
0.0 0.0 0.0
0.0 0.0 0.0
0.0 0.0 0.0
0.0 0.0 0.0
0.0 0.0 0.0
0.0 0.0 -2.77371
0.0 0.0 0.0
0.0 0.0 0.0
0.0 0.0 0.0
0.0 0.0 0.0
0.0 0.0 0.0
0.0 0.0 -2.77371
0.0 0.0 0.0
0.0 0.0 0.0
0.0 0.0 0.0
0.0 0.0 0.0
0.0 0.0 0.0
0.0 0.0 0.0
0.0 0.0 0.0
0.0 0.0 0.0
0.0 0.0 0.0
0.0 0.0 0.0
0.0 0.0 0.0
0.0 0.0 0.0
0.0 0.0 0.0
0.0 0.0 0.0
0.0 0.0 0.0
0.0 0.0 0.0
0.0 0.0 0.0
0.0 0.0 0.0
0.0 0.0 0.0
0.0 0.0 0.0
0.0 0.0 0.0
0.0 0.0 0.0
0.0 0.0 0.0
0.0 0.0 0.0
0.0 0.0 0.0
VECTORS omega float
12.0338 -97.8967 19.1081
19.6957 -107.18 17.4823
-4.57873 -63.9484 36.2671
14.4056 -66.4293 -16.0845
3.34364 -81.7638 -2.34804
7.79744 -18.416 -1.45034
-38.2637 -20.5359 24.7652
4.28782 -88.4084 2.8083
9.25201 -73.8894 -8.18085
15.8534 -74.6894 -10.7956
14.9669 -87.1785 -9.00762
8.21225 -52.0192 10.1393
11.353 -68.8663 15.7782
-0.59007 -79.0893 2.74363
2.52204 -35.9423 -15.082
-4.0477 -99.9078 10.6163
9.54566 -91.7733 -15.5461
-34.0147 -42.3082 17.6092
-2.11418 -84.5669 -8.59495
21.3845 -64.381 11.4767
-64.6959 -29.6836 -0.220211
3.59332 -67.4754 -1.0062
-3.0089 -61.1344 -3.69294
2.62764 -64.0961 -18.8257
-4.91242 -50.6543 2.52464
-4.14802 -97.3897 28.5551
-19.821 -61.4552 -3.98629
-57.6701 63.269 8.83672
-7.86573 -73.743 1.90981
14.4844 -57.7019 -0.243387
6.00293 -76.1734 1.0205
-10.0297 -70.8682 -14.6262
-1.81702 -43.4858 1.90422
-9.03958 3.93543 -2.54792
-3.29969 -87.4056 5.02084
1.19532 -71.2945 8.69833
-32.4385 -19.2366 -14.7917
-13.9751 -95.3434 -14.4722
-8.84964 -85.6991 -23.9236
4.80935 49.3472 10.2027
14.6142 -19.4507 1.97972
-9.28898 17.6218 23.0281
-11.3197 37.5383 -2.96472
7.50631 -87.184 -1.17518
-0.799626 29.8943 -6.46469
-0.38063 14.0738 -17.4473
21.9404 71.799 6.87588
25.7838 -10.9807 -44.2958
3.05709 -18.5901 4.4665
-32.4284 36.6771 -11.0813
1.30847 13.9515 -29.2771
8.72168 -0.901996 1.22298
-17.836 -44.0276 5.68162
-3.87947 17.332 -3.35674
23.3585 10.5612 9.00073
0.0 0.0 0.0
16.5088 72.1023 -9.43209
-0.632788 -7.82863 -3.40583
10.0849 70.3305 3.40898
-12.2989 60.2816 2.10713
-8.73866 86.2353 17.7017
3.78227 -2.23562 -2.99861
-14.2509 -10.6946 22.7074
20.3928 -74.5781 3.50934
11.4776 -14.6289 -2.14841
75.7292 30.3705 -3.85868
5.11574 -46.1421 -14.4888
41.6294 25.0121 24.4195
17.0508 -62.7073 7.75373
5.43787 13.3797 4.00588
-28.3515 39.9042 13.7858
-17.4805 -87.692 7.53021
29.3473 61.2809 -17.6737
16.8083 -19.4312 -4.90429
-9.19163 -33.8691 1.4826
-38.1119 -64.9974 28.0109
0.0 0.0 0.0
0.0 0.0 0.0
23.8995 1.99988 -11.7757
-15.7547 -31.2511 1.15195
0.0 0.0 0.0
0.0 0.0 0.0
0.0 0.0 0.0
0.0 0.0 0.0
0.0 0.0 0.0
0.0 0.0 0.0
0.0 0.0 0.0
0.0 0.0 0.0
0.0 0.0 0.0
0.0 0.0 0.0
0.0 0.0 0.0
0.0 0.0 0.0
0.0 0.0 0.0
0.0 0.0 0.0
0.0 0.0 0.0
0.0 0.0 0.0
0.0 0.0 0.0
0.0 0.0 0.0
0.0 0.0 0.0
0.0 0.0 0.0
0.0 0.0 0.0
0.0 0.0 0.0
0.0 0.0 0.0
0.0 0.0 0.0
0.0 0.0 0.0
0.0 0.0 0.0
0.0 0.0 0.0
0.0 0.0 0.0
0.0 0.0 0.0
0.0 0.0 0.0
0.0 0.0 0.0
0.0 0.0 0.0
0.0 0.0 0.0
0.0 0.0 0.0
0.0 0.0 0.0
0.0 0.0 0.0
0.0 0.0 0.0
0.0 0.0 0.0
0.0 0.0 0.0
0.0 0.0 0.0
0.0 0.0 0.0
0.0 0.0 0.0
0.0 0.0 0.0
0.0 0.0 0.0
0.0 0.0 0.0
0.0 0.0 0.0
0.0 0.0 0.0
0.0 0.0 0.0
0.0 0.0 0.0
0.0 0.0 0.0
0.0 0.0 0.0
0.0 0.0 0.0
0.0 0.0 0.0
0.0 0.0 0.0
0.0 0.0 0.0
0.0 0.0 0.0
0.0 0.0 0.0
0.0 0.0 0.0
0.0 0.0 0.0
0.0 0.0 0.0
0.0 0.0 0.0
0.0 0.0 0.0
0.0 0.0 0.0
0.0 0.0 0.0
0.0 0.0 0.0
0.0 0.0 0.0
0.0 0.0 0.0
0.0 0.0 0.0
0.0 0.0 0.0
0.0 0.0 0.0
0.0 0.0 0.0
0.0 0.0 0.0
0.0 0.0 0.0
0.0 0.0 0.0
0.0 0.0 0.0
0.0 0.0 0.0
0.0 0.0 0.0
0.0 0.0 0.0
0.0 0.0 0.0
0.0 0.0 0.0
0.0 0.0 0.0
0.0 0.0 0.0
0.0 0.0 0.0
0.0 0.0 0.0
0.0 0.0 0.0
0.0 0.0 0.0
0.0 0.0 0.0
0.0 0.0 0.0
0.0 0.0 0.0
0.0 0.0 0.0
0.0 0.0 0.0
0.0 0.0 0.0
0.0 0.0 0.0
0.0 0.0 0.0
0.0 0.0 0.0
0.0 0.0 0.0
VECTORS v float
1.52279 -0.259673 0.24665
1.59209 -0.332333 0.552997
1.85912 0.154094 -0.151949
1.89821 -0.430609 -0.0362082
0.690837 -0.605626 -0.183098
0.1499 0.124712 -1.55695
1.08922 0.351188 0.25547
1.35867 -0.128104 0.000268198
1.79146 -0.276211 -0.00322073
1.71054 -0.508283 -0.031698
1.11422 -0.0394611 0.036705
2.39404 -0.245025 -0.0177357
1.94122 -0.3394 -0.00690415
1.65437 0.0195145 0.0130078
2.32058 -0.0540442 0.0905731
1.04933 0.119499 0.842321
1.29627 -0.2548 0.742765
1.3299 0.249144 0.215785
1.57982 0.242834 -0.293939
1.2642 -0.123393 -0.805814
1.42313 0.205743 -0.195033
1.79681 -0.0384582 0.306446
1.97047 0.148686 0.0554286
2.21575 0.102989 -0.0522747
2.48349 0.14707 -0.00687483
1.39384 0.0284073 0.299185
1.28103 -0.00147568 -1.10489
1.73703 0.257554 -0.502999
1.79626 0.235715 0.0807224
0.840537 0.307461 -0.611376
1.92357 0.0623081 0.410017
1.30477 0.433809 0.716035
2.7005 0.0542985 -0.000270127
-1.11324 0.0538098 -0.836259
1.60888 0.0769325 1.01639
1.7335 0.0130437 -0.180311
1.69168 0.257218 -0.947318
1.67538 0.213732 0.224079
1.74543 0.109047 0.0533586
0.89614 -1.09307 -0.264913
-0.334022 -0.203312 -2.72878
0.596981 -1.37842 -1.49328
0.862649 -0.386725 -0.262808
1.34063 -0.122853 -0.655979
0.694177 -1.09874 -1.08805
0.86344 -0.0512932 -1.52213
1.10865 0.119261 0.10213
1.41521 -0.392424 -0.692859
1.48123 -0.53517 -0.199725
0.168065 0.514866 1.57272
0.520009 0.228152 -0.124082
-0.27878 -0.471281 0.205785
0.0693894 -0.347585 -0.414581
0.00680908 0.127779 0.297663
0.691093 -0.396092 0.157887
0.0 0.0 -3.18493
1.14192 0.330181 1.13705
1.43818 -0.141179 -0.774496
1.71052 -0.0241501 2.17279
1.60087 0.12768 1.28975
1.77223 0.0960884 0.339038
0.536086 -0.656148 -1.67262
0.388056 0.0820215 -1.14884
1.10203 -0.262823 -0.382009
0.0547806 -0.330442 -1.16947
0.378455 0.1097 0.930312
1.39052 0.105394 0.367173
0.770589 -0.198306 -0.501991
1.02382 -0.0203263 -0.18528
-0.0732449 -0.219001 -0.357619
0.670843 1.06288 0.494323
0.838457 -0.173836 0.0962775
0.214639 0.968751 -0.3221
0.31032 -0.536236 -0.0459052
2.12519 -0.562156 0.0149929
0.683335 1.22858 0.895996
0.0 0.0 -2.75996
0.0 0.0 -2.78478
0.444979 -0.492214 -2.12113
0.623836 -0.22428 -0.671119
0.0 0.0 -2.63184
0.0 0.0 -2.66853
0.0 0.0 -2.61978
0.0 0.0 -2.68521
0.0 0.0 -2.69286
0.0 0.0 -2.69512
0.0 0.0 -2.65921
0.0 0.0 -2.49637
0.0 0.0 -2.57524
0.0 0.0 -2.5363
0.0 0.0 -2.49961
0.0 0.0 -2.49205
0.0 0.0 -2.6034
0.0 0.0 -2.55945
0.0 0.0 -2.32322
0.0 0.0 -2.22031
0.0 0.0 -2.20403
0.0 0.0 -2.17921
0.0 0.0 -2.17215
0.0 0.0 -2.29055
0.0 0.0 -2.20168
0.0 0.0 -2.27937
0.0 0.0 -2.11339
0.0 0.0 -2.02873
0.0 0.0 -2.14694
0.0 0.0 -2.07552
0.0 0.0 -2.14958
0.0 0.0 -1.87078
0.0 0.0 -1.93818
0.0 0.0 -1.90541
0.0 0.0 -1.89237
0.0 0.0 -1.86215
0.0 0.0 -1.96241
0.0 0.0 -1.89835
0.0 0.0 -1.94799
0.0 0.0 -1.60582
0.0 0.0 -1.77386
0.0 0.0 -1.78465
0.0 0.0 -1.79535
0.0 0.0 -1.73482
0.0 0.0 -1.62063
0.0 0.0 -1.33516
0.0 0.0 -1.44258
0.0 0.0 -1.45072
0.0 0.0 -1.5035
0.0 0.0 -1.53146
0.0 0.0 -1.53587
0.0 0.0 -1.38274
0.0 0.0 -1.36272
0.0 0.0 -1.44856
0.0 0.0 -1.52557
0.0 0.0 -1.41403
0.0 0.0 -1.4417
0.0 0.0 -1.03811
0.0 0.0 -1.21685
0.0 0.0 -1.26482
0.0 0.0 -1.20498
0.0 0.0 -1.25442
-0 -0 -1.0
-0 -0 -1.0
-0 -0 -1.0
-0 -0 -1.0
-0 -0 -1.0
-0 -0 -1.0
0.0 0.0 -1.0129
-0 -0 -1.0
-0 -0 -1.0
-0 -0 -1.0
-0 -0 -1.0
-0 -0 -1.0
0.0 0.0 -1.00495
-0 -0 -1.0
-0 -0 -1.0
-0 -0 -1.0
-0 -0 -1.0
-0 -0 -1.0
-0 -0 -1.0
-0 -0 -1.0
-0 -0 -1.0
-0 -0 -1.0
-0 -0 -1.0
-0 -0 -1.0
-0 -0 -1.0
-0 -0 -1.0
-0 -0 -1.0
-0 -0 -1.0
-0 -0 -1.0
-0 -0 -1.0
-0 -0 -1.0
-0 -0 -1.0
-0 -0 -1.0
-0 -0 -1.0
-0 -0 -1.0
-0 -0 -1.0
-0 -0 -1.0
-0 -0 -1.0
SCALARS radius float 1
LOOKUP_TABLE default
0.03
0.03
0.03
0.03
0.03
0.03
0.03
0.03
0.03
0.03
0.03
0.03
0.03
0.03
0.03
0.03
0.03
0.03
0.03
0.03
0.03
0.03
0.03
0.03
0.03
0.03
0.03
0.03
0.03
0.03
0.03
0.03
0.03
0.03
0.03
0.03
0.03
0.03
0.03
0.03
0.03
0.03
0.03
0.03
0.03
0.03
0.03
0.03
0.03
0.03
0.03
0.03
0.03
0.03
0.03
0.03
0.03
0.03
0.03
0.03
0.03
0.03
0.03
0.03
0.03
0.03
0.03
0.03
0.03
0.03
0.03
0.03
0.03
0.03
0.03
0.03
0.03
0.03
0.03
0.03
0.03
0.03
0.03
0.03
0.03
0.03
0.03
0.03
0.03
0.03
0.03
0.03
0.03
0.03
0.03
0.03
0.03
0.03
0.03
0.03
0.03
0.03
0.03
0.03
0.03
0.03
0.03
0.03
0.03
0.03
0.03
0.03
0.03
0.03
0.03
0.03
0.03
0.03
0.03
0.03
0.03
0.03
0.03
0.03
0.03
0.03
0.03
0.03
0.03
0.03
0.03
0.03
0.03
0.03
0.03
0.03
0.03
0.03
0.03
0.03
0.03
0.03
0.03
0.03
0.03
0.03
0.03
0.03
0.03
0.03
0.03
0.03
0.03
0.03
0.03
0.03
0.03
0.03
0.03
0.03
0.03
0.03
0.03
0.03
0.03
0.03
0.03
0.03
0.03
0.03
0.03
0.03
0.03
0.03
0.03
0.03
SCALARS type float 1
LOOKUP_TABLE default
1.0
1.0
1.0
1.0
1.0
1.0
1.0
1.0
1.0
1.0
1.0
1.0
1.0
1.0
1.0
1.0
1.0
1.0
1.0
1.0
1.0
1.0
1.0
1.0
1.0
1.0
1.0
1.0
1.0
1.0
1.0
1.0
1.0
1.0
1.0
1.0
1.0
1.0
1.0
1.0
1.0
1.0
1.0
1.0
1.0
1.0
1.0
1.0
1.0
1.0
1.0
1.0
1.0
1.0
1.0
1.0
1.0
1.0
1.0
1.0
1.0
1.0
1.0
1.0
1.0
1.0
1.0
1.0
1.0
1.0
1.0
1.0
1.0
1.0
1.0
1.0
1.0
1.0
1.0
1.0
1.0
1.0
1.0
1.0
1.0
1.0
1.0
1.0
1.0
1.0
1.0
1.0
1.0
1.0
1.0
1.0
1.0
1.0
1.0
1.0
1.0
1.0
1.0
1.0
1.0
1.0
1.0
1.0
1.0
1.0
1.0
1.0
1.0
1.0
1.0
1.0
1.0
1.0
1.0
1.0
1.0
1.0
1.0
1.0
1.0
1.0
1.0
1.0
1.0
1.0
1.0
1.0
1.0
1.0
1.0
1.0
1.0
1.0
1.0
1.0
1.0
1.0
1.0
1.0
1.0
1.0
1.0
1.0
1.0
1.0
1.0
1.0
1.0
1.0
1.0
1.0
1.0
1.0
1.0
1.0
1.0
1.0
1.0
1.0
1.0
1.0
1.0
1.0
1.0
1.0
1.0
1.0
1.0
1.0
1.0
1.0
SCALARS id float 1
LOOKUP_TABLE default
108.0
123.0
137.0
94.0
128.0
15.0
146.0
49.0
129.0
105.0
79.0
145.0
92.0
29.0
104.0
31.0
5.0
99.0
76.0
71.0
149.0
144.0
112.0
41.0
138.0
61.0
21.0
24.0
16.0
51.0
166.0
98.0
18.0
17.0
97.0
85.0
151.0
66.0
167.0
171.0
148.0
73.0
1.0
100.0
81.0
127.0
47.0
19.0
45.0
57.0
133.0
93.0
80.0
83.0
44.0
118.0
12.0
4.0
107.0
2.0
53.0
32.0
64.0
42.0
116.0
72.0
82.0
131.0
152.0
164.0
174.0
55.0
91.0
26.0
130.0
125.0
60.0
70.0
23.0
68.0
46.0
157.0
173.0
28.0
77.0
75.0
67.0
140.0
10.0
102.0
155.0
136.0
176.0
110.0
63.0
135.0
156.0
35.0
25.0
30.0
163.0
52.0
22.0
120.0
165.0
101.0
143.0
86.0
40.0
8.0
113.0
33.0
134.0
162.0
159.0
139.0
13.0
58.0
78.0
109.0
87.0
158.0
69.0
117.0
43.0
121.0
153.0
147.0
150.0
115.0
37.0
119.0
168.0
48.0
27.0
38.0
90.0
170.0
114.0
7.0
14.0
62.0
169.0
3.0
50.0
54.0
95.0
103.0
65.0
11.0
111.0
154.0
161.0
126.0
141.0
36.0
142.0
175.0
59.0
74.0
56.0
6.0
39.0
96.0
132.0
89.0
124.0
106.0
122.0
20.0
172.0
34.0
9.0
88.0
84.0
160.0
SCALARS Temp float 1
LOOKUP_TABLE default
313.437
319.282
317.06
306.978
307.209
300.033
303.11
323.973
322.474
319.944
311.617
308.0
314.211
320.687
310.197
303.912
306.766
316.058
313.992
304.01
312.044
309.982
318.347
321.344
311.326
312.361
318.441
300.325
310.205
310.423
321.324
317.66
316.779
300.037
306.427
321.915
300.11
322.285
319.697
300.244
300.0
300.001
300.25
303.947
300.403
300.154
300.228
300.099
300.193
300.074
300.518
300.097
303.924
300.13
300.221
300.0
300.331
300.19
300.047
300.62
304.139
300.002
300.003
303.949
300.001
300.225
303.961
300.55
303.973
300.031
300.26
300.002
300.278
300.004
300.005
300.009
300.0
300.0
300.002
300.004
300.0
300.0
300.0
300.0
300.0
300.0
300.0
300.0
300.0
300.0
300.0
300.0
300.0
300.0
300.0
300.0
300.0
300.0
300.0
300.0
300.0
300.0
300.0
300.0
300.0
300.0
300.0
300.0
300.0
300.0
300.0
300.0
300.0
300.0
300.0
300.0
300.0
300.0
300.0
300.0
300.0
300.0
300.0
300.0
300.0
300.0
300.0
300.0
300.0
300.0
300.0
300.0
300.0
300.0
300.0
300.0
300.0
300.0
300.0
300.0
300.0
300.0
300.0
300.0
300.0
300.0
300.0
300.0
300.0
300.0
300.0
300.0
300.0
300.0
300.0
300.0
300.0
300.0
300.0
300.0
300.0
300.0
300.0
300.0
300.0
300.0
300.0
300.0
300.0
300.0
300.0
300.0
300.0
300.0
300.0
300.0

