# vtk DataFile Version 2.0
Generated by lpp.py
ASCII
DATASET POLYDATA
POINTS 353 float
0.281058 0.183003 1.57961
0.407801 0.167578 1.60124
0.556474 0.174631 1.58787
0.649558 0.184014 1.57816
0.708996 0.188295 1.57688
0.851836 0.188577 1.57686
0.930688 0.16973 1.59321
0.985228 0.195546 1.57686
1.04603 0.183131 1.57915
0.348546 0.19771 1.57576
0.10114 0.265077 1.57448
0.165827 0.239222 1.57535
0.370924 0.26051 1.57619
0.432057 0.229987 1.578
0.540221 0.257735 1.57655
0.598727 0.262492 1.58478
0.737446 0.240765 1.57724
0.809597 0.239201 1.57694
0.924799 0.240455 1.57685
1.01511 0.248975 1.57686
1.07698 0.233699 1.57729
0.285737 0.26233 1.57767
0.690683 0.278082 1.57659
0.139697 0.308428 1.58891
0.217102 0.334836 1.57376
0.457263 0.312035 1.57651
0.957887 0.311518 1.58081
0.105391 0.362332 1.57732
0.304077 0.352727 1.57689
0.388769 0.345582 1.57629
0.548465 0.359577 1.57702
0.665301 0.363394 1.57798
0.773784 0.362228 1.57686
0.169181 0.376785 1.58729
0.236957 0.390271 1.57841
0.347775 0.396731 1.57436
0.495482 0.400925 1.57938
0.83113 0.397796 1.57685
0.918435 0.407779 1.57553
0.22527 0.448592 1.5768
0.43677 0.414551 1.57766
0.538624 0.442163 1.58364
0.628099 0.418051 1.5769
0.695644 0.441151 1.57686
0.0906902 0.443958 1.57693
0.30251 0.456762 1.57664
0.48103 0.467516 1.58061
0.7571 0.471927 1.57689
1.15016 0.447179 1.57686
0.378301 0.485725 1.59355
0.620923 0.510142 1.57659
0.99596 0.50431 1.57686
0.0303987 0.534313 1.57974
0.260641 0.547832 1.584
0.337808 0.526193 1.57607
0.484894 0.551998 1.5751
0.692045 0.519579 1.57683
1.04995 0.535451 1.57688
1.2062 0.523117 1.57686
0.613484 0.569143 1.57834
0.668964 0.585193 1.59445
0.747574 0.570069 1.57866
0.807421 0.560572 1.59504
0.894012 0.561123 1.57904
0.97764 0.578077 1.58726
0.366051 0.594683 1.60224
0.759298 0.163257 1.59844
0.0806139 0.226483 1.61325
0.366651 0.223363 1.62816
0.460029 0.189703 1.61522
0.219041 0.235537 1.6003
0.656652 0.237348 1.60356
0.227054 0.293896 1.61278
0.41857 0.264787 1.62658
0.519713 0.298459 1.61589
0.292731 0.302007 1.62235
0.348559 0.321839 1.6139
0.589277 0.318795 1.60656
0.262481 0.355055 1.61966
0.402254 0.368347 1.63431
0.482277 0.348419 1.61627
0.944431 0.369693 1.61905
0.342991 0.389305 1.63072
0.527464 0.403129 1.62752
0.573456 0.455263 1.63166
0.666601 0.464297 1.62845
0.94507 0.455637 1.59682
0.183244 0.497171 1.61683
0.289614 0.499484 1.61624
0.441146 0.491445 1.61764
0.820081 0.508301 1.62681
0.0835768 0.519957 1.61207
0.139185 0.534245 1.59163
0.405404 0.552609 1.5923
0.524981 0.548744 1.61756
0.759206 0.555141 1.63487
0.525564 0.608473 1.61806
0.556997 0.122033 1.64545
0.732119 0.121012 1.64191
0.356558 0.144829 1.66055
0.802481 0.184254 1.66187
0.156794 0.232062 1.63213
0.537949 0.246664 1.63868
0.741712 0.247594 1.639
0.262754 0.274789 1.66692
0.480167 0.268364 1.64748
0.607681 0.278233 1.64761
0.673311 0.284051 1.6496
0.421215 0.315785 1.65805
0.313631 0.352029 1.66405
0.607271 0.367494 1.63845
0.459011 0.395453 1.67258
0.420839 0.428556 1.63474
0.367755 0.457026 1.64673
0.4862 0.451181 1.64811
0.333352 0.51267 1.65314
0.38932 0.528775 1.64472
0.327316 0.591155 1.65282
0.199916 0.243764 1.66895
0.334141 0.249862 1.67241
0.614997 0.237929 1.70496
0.321404 0.410021 1.68269
0.747003 0.387884 1.7028
0.113325 0.448918 1.65983
0.654622 0.446021 1.69323
0.202382 0.484868 1.67521
0.270625 0.488286 1.67162
0.438929 0.512897 1.6727
0.528102 0.518246 1.68657
0.613507 0.56097 1.66758
0.611674 0.673072 1.68233
0.375347 0.345395 1.70234
0.169236 0.376906 1.6886
0.261076 0.440724 1.70574
0.495329 0.426132 1.70333
0.566486 0.56125 1.70497
0.515393 0.739039 1.73052
0.47999 0.300848 1.75148
0.417913 0.266516 1.77943
0.103577 0.34242 1.7636
0.230407 0.340128 1.75815
0.380254 0.404128 1.77281
0.441781 0.458388 1.767
0.131272 0.513706 1.76024
0.254698 0.262308 1.80018
0.121033 0.279919 1.79926
0.187546 0.294736 1.81512
0.287678 0.358468 1.79769
0.227036 0.399722 1.79203
0.448915 0.39365 1.79052
0.35506 0.52072 1.81126
0.365118 0.235733 1.85336
0.378219 0.307765 1.83835
0.200976 0.455034 1.85174
0.208645 0.523817 1.84082
0.360498 0.363939 1.86708
0.10427 0.421706 1.86267
0.317689 0.454971 1.87743
0.491668 0.49724 1.87374
0.29951 0.265646 1.91288
0.26261 0.317421 1.91263
0.121236 0.342722 1.91331
0.234882 0.370686 1.90745
0.250123 0.467148 1.93219
0.124302 0.506318 1.92026
0.387139 0.48601 1.90474
0.136955 0.241756 1.94337
0.478513 0.241448 1.93686
0.200031 0.295208 1.93857
0.352336 0.290052 1.94997
0.43656 0.349215 1.93823
0.18594 0.400862 1.95199
0.288982 0.398489 1.94163
0.485376 0.385518 1.96668
0.41824 0.41741 1.9427
0.106832 0.451129 1.97115
0.485548 0.450278 1.95196
0.302009 0.506095 1.94905
0.473517 0.305435 1.98573
0.195772 0.344168 2.00334
0.323211 0.457255 1.99757
0.180109 0.517525 1.99573
0.136852 0.289242 2.01752
0.211371 0.280829 2.03371
0.305852 0.287522 2.04497
0.416409 0.288456 2.01915
0.269256 0.359202 2.02624
0.485374 0.358108 2.0408
0.218921 0.397847 2.02653
0.349719 0.399621 2.03419
0.422187 0.378047 2.04418
0.169637 0.459874 2.04191
0.428381 0.4467 2.02203
0.245914 0.511668 2.03283
0.398493 0.508779 2.01141
0.466202 0.49757 2.02987
0.103225 0.518985 2.04484
0.174537 0.231131 2.07705
0.260718 0.244031 2.04899
0.346739 0.243699 2.07339
0.411604 0.238101 2.06847
0.108104 0.281799 2.07625
0.499385 0.279499 2.05065
0.157239 0.333515 2.07883
0.373442 0.329195 2.05217
0.102791 0.340368 2.05265
0.478405 0.411198 2.07488
0.370548 0.454286 2.07699
0.283642 0.234209 2.11096
0.469838 0.243492 2.09354
0.268169 0.352895 2.11098
0.478946 0.338932 2.11164
0.121741 0.410905 2.10674
0.189941 0.428545 2.09494
0.267329 0.456169 2.09542
0.43276 0.446836 2.0946
0.496878 0.474265 2.11193
0.122063 0.498448 2.10566
0.209404 0.487055 2.0818
0.341446 0.508108 2.09034
0.429885 0.51089 2.10308
0.222298 0.231508 2.14943
0.144959 0.253084 2.1299
0.225054 0.287898 2.11782
0.353756 0.288308 2.1321
0.419349 0.297497 2.14155
0.107864 0.308056 2.1437
0.216531 0.381594 2.14634
0.33513 0.393755 2.12779
0.434422 0.399982 2.13934
0.177321 0.473873 2.1423
0.3755 0.471214 2.13858
0.287754 0.512498 2.13063
0.482317 0.228242 2.17854
0.386528 0.235346 2.17474
0.17305 0.29572 2.17163
0.280967 0.269166 2.17746
0.32031 0.335135 2.1567
0.470734 0.315695 2.18592
0.142292 0.405308 2.18272
0.289149 0.393948 2.17364
0.10269 0.478868 2.18007
0.265427 0.473439 2.17144
0.487332 0.44601 2.17319
0.230707 0.52291 2.16918
0.100828 0.246005 2.19484
0.334084 0.267131 2.20623
0.383935 0.304407 2.21118
0.104364 0.371175 2.21875
0.189473 0.369831 2.21465
0.383297 0.361785 2.19306
0.495324 0.379459 2.19665
0.238696 0.425254 2.20413
0.338206 0.47604 2.19542
0.405771 0.451899 2.19402
0.477819 0.52568 2.191
0.410316 0.229607 2.23717
0.227735 0.245208 2.22361
0.479511 0.263195 2.2325
0.283481 0.328862 2.22466
0.488965 0.329122 2.25107
0.433942 0.344323 2.22524
0.124882 0.444445 2.22537
0.292698 0.428673 2.23157
0.367427 0.412219 2.22779
0.436973 0.45447 2.2486
0.498994 0.449521 2.24904
0.387806 0.497135 2.23601
0.10683 0.52412 2.24027
0.498691 0.522189 2.25147
0.307197 0.231054 2.25934
0.112238 0.243444 2.26138
0.196779 0.286134 2.27798
0.338106 0.302046 2.26158
0.144627 0.329159 2.26743
0.322732 0.35929 2.29017
0.388723 0.350133 2.27272
0.179678 0.383211 2.28608
0.26384 0.382845 2.26039
0.404531 0.416433 2.28679
0.180002 0.445959 2.28427
0.336562 0.447813 2.2753
0.197767 0.505506 2.25969
0.316599 0.507618 2.27974
0.4192 0.521596 2.28807
0.299287 0.247375 2.31679
0.442411 0.236129 2.31895
0.498503 0.253983 2.29572
0.432796 0.302258 2.30979
0.345572 0.308923 2.32327
0.476186 0.343657 2.31982
0.499396 0.409304 2.31395
0.230608 0.478968 2.30273
0.133145 0.50156 2.2951
0.383426 0.485675 2.3255
0.196226 0.26238 2.34567
0.356376 0.254196 2.3477
0.126939 0.284236 2.32643
0.187834 0.32549 2.33014
0.256147 0.321804 2.34011
0.110703 0.374435 2.34211
0.415762 0.389621 2.34827
0.214879 0.429082 2.35971
0.282511 0.427246 2.33226
0.107302 0.455042 2.34596
0.180798 0.510604 2.33163
0.49838 0.508374 2.35212
0.271982 0.260644 2.3808
0.321856 0.294278 2.37913
0.44222 0.295647 2.37067
0.125428 0.344451 2.39441
0.346145 0.350757 2.37426
0.282424 0.374546 2.38858
0.475094 0.383761 2.36966
0.466199 0.451954 2.37462
0.104255 0.515661 2.38241
0.236464 0.494005 2.37237
0.430217 0.500721 2.37499
0.339305 0.526873 2.36754
0.103324 0.228818 2.40871
0.161403 0.258279 2.40827
0.363615 0.240431 2.41399
0.425069 0.242959 2.41512
0.499192 0.246026 2.41267
0.189012 0.364304 2.40306
0.415188 0.353574 2.39906
0.115455 0.44409 2.4045
0.323589 0.424937 2.3971
0.40415 0.414672 2.41454
0.158807 0.499296 2.42065
0.370433 0.49856 2.41148
0.264146 0.523422 2.41795
0.220666 0.238837 2.45734
0.257372 0.298287 2.44437
0.314466 0.284399 2.46272
0.492483 0.279077 2.4644
0.417494 0.317622 2.46147
0.31493 0.348737 2.43385
0.484684 0.362834 2.44124
0.125062 0.39201 2.44589
0.217234 0.387064 2.45563
0.263093 0.452487 2.46205
0.417911 0.469013 2.45692
0.486571 0.452792 2.46556
0.393674 0.233628 2.47132
0.17717 0.298235 2.4692
0.107591 0.339963 2.47367
0.385775 0.387923 2.47657
0.449749 0.403068 2.46884
0.139724 0.459766 2.47164
0.220758 0.508511 2.46861
0.312076 0.491969 2.4676
0.490194 0.521396 2.47111
VERTICES 353 706
1 0
1 1
1 2
1 3
1 4
1 5
1 6
1 7
1 8
1 9
1 10
1 11
1 12
1 13
1 14
1 15
1 16
1 17
1 18
1 19
1 20
1 21
1 22
1 23
1 24
1 25
1 26
1 27
1 28
1 29
1 30
1 31
1 32
1 33
1 34
1 35
1 36
1 37
1 38
1 39
1 40
1 41
1 42
1 43
1 44
1 45
1 46
1 47
1 48
1 49
1 50
1 51
1 52
1 53
1 54
1 55
1 56
1 57
1 58
1 59
1 60
1 61
1 62
1 63
1 64
1 65
1 66
1 67
1 68
1 69
1 70
1 71
1 72
1 73
1 74
1 75
1 76
1 77
1 78
1 79
1 80
1 81
1 82
1 83
1 84
1 85
1 86
1 87
1 88
1 89
1 90
1 91
1 92
1 93
1 94
1 95
1 96
1 97
1 98
1 99
1 100
1 101
1 102
1 103
1 104
1 105
1 106
1 107
1 108
1 109
1 110
1 111
1 112
1 113
1 114
1 115
1 116
1 117
1 118
1 119
1 120
1 121
1 122
1 123
1 124
1 125
1 126
1 127
1 128
1 129
1 130
1 131
1 132
1 133
1 134
1 135
1 136
1 137
1 138
1 139
1 140
1 141
1 142
1 143
1 144
1 145
1 146
1 147
1 148
1 149
1 150
1 151
1 152
1 153
1 154
1 155
1 156
1 157
1 158
1 159
1 160
1 161
1 162
1 163
1 164
1 165
1 166
1 167
1 168
1 169
1 170
1 171
1 172
1 173
1 174
1 175
1 176
1 177
1 178
1 179
1 180
1 181
1 182
1 183
1 184
1 185
1 186
1 187
1 188
1 189
1 190
1 191
1 192
1 193
1 194
1 195
1 196
1 197
1 198
1 199
1 200
1 201
1 202
1 203
1 204
1 205
1 206
1 207
1 208
1 209
1 210
1 211
1 212
1 213
1 214
1 215
1 216
1 217
1 218
1 219
1 220
1 221
1 222
1 223
1 224
1 225
1 226
1 227
1 228
1 229
1 230
1 231
1 232
1 233
1 234
1 235
1 236
1 237
1 238
1 239
1 240
1 241
1 242
1 243
1 244
1 245
1 246
1 247
1 248
1 249
1 250
1 251
1 252
1 253
1 254
1 255
1 256
1 257
1 258
1 259
1 260
1 261
1 262
1 263
1 264
1 265
1 266
1 267
1 268
1 269
1 270
1 271
1 272
1 273
1 274
1 275
1 276
1 277
1 278
1 279
1 280
1 281
1 282
1 283
1 284
1 285
1 286
1 287
1 288
1 289
1 290
1 291
1 292
1 293
1 294
1 295
1 296
1 297
1 298
1 299
1 300
1 301
1 302
1 303
1 304
1 305
1 306
1 307
1 308
1 309
1 310
1 311
1 312
1 313
1 314
1 315
1 316
1 317
1 318
1 319
1 320
1 321
1 322
1 323
1 324
1 325
1 326
1 327
1 328
1 329
1 330
1 331
1 332
1 333
1 334
1 335
1 336
1 337
1 338
1 339
1 340
1 341
1 342
1 343
1 344
1 345
1 346
1 347
1 348
1 349
1 350
1 351
1 352
POINT_DATA 353
VECTORS i float
0.0 0.0 0.0
0.0 0.0 0.0
0.0 0.0 0.0
0.0 0.0 0.0
0.0 0.0 0.0
0.0 0.0 0.0
0.0 0.0 0.0
0.0 0.0 0.0
0.0 0.0 0.0
0.0 0.0 0.0
0.0 0.0 0.0
0.0 0.0 0.0
0.0 0.0 0.0
0.0 0.0 0.0
0.0 0.0 0.0
0.0 0.0 0.0
0.0 0.0 0.0
0.0 0.0 0.0
0.0 0.0 0.0
0.0 0.0 0.0
0.0 0.0 0.0
0.0 0.0 0.0
0.0 0.0 0.0
0.0 0.0 0.0
0.0 0.0 0.0
0.0 0.0 0.0
0.0 0.0 0.0
0.0 0.0 0.0
0.0 0.0 0.0
0.0 0.0 0.0
0.0 0.0 0.0
0.0 0.0 0.0
0.0 0.0 0.0
0.0 0.0 0.0
0.0 0.0 0.0
0.0 0.0 0.0
0.0 0.0 0.0
0.0 0.0 0.0
0.0 0.0 0.0
0.0 0.0 0.0
0.0 0.0 0.0
0.0 0.0 0.0
0.0 0.0 0.0
0.0 0.0 0.0
0.0 0.0 0.0
0.0 0.0 0.0
0.0 0.0 0.0
0.0 0.0 0.0
0.0 0.0 0.0
0.0 0.0 0.0
0.0 0.0 0.0
0.0 0.0 0.0
0.0 0.0 0.0
0.0 0.0 0.0
0.0 0.0 0.0
0.0 0.0 0.0
0.0 0.0 0.0
0.0 0.0 0.0
0.0 0.0 0.0
0.0 0.0 0.0
0.0 0.0 0.0
0.0 0.0 0.0
0.0 0.0 0.0
0.0 0.0 0.0
0.0 0.0 0.0
0.0 0.0 0.0
0.0 0.0 0.0
0.0 0.0 0.0
0.0 0.0 0.0
0.0 0.0 0.0
0.0 0.0 0.0
0.0 0.0 0.0
0.0 0.0 0.0
0.0 0.0 0.0
0.0 0.0 0.0
0.0 0.0 0.0
0.0 0.0 0.0
0.0 0.0 0.0
0.0 0.0 0.0
0.0 0.0 0.0
0.0 0.0 0.0
0.0 0.0 0.0
0.0 0.0 0.0
0.0 0.0 0.0
0.0 0.0 0.0
0.0 0.0 0.0
0.0 0.0 0.0
0.0 0.0 0.0
0.0 0.0 0.0
0.0 0.0 0.0
0.0 0.0 0.0
0.0 0.0 0.0
0.0 0.0 0.0
0.0 0.0 0.0
0.0 0.0 0.0
0.0 0.0 0.0
0.0 0.0 0.0
0.0 0.0 0.0
0.0 0.0 0.0
0.0 0.0 0.0
0.0 0.0 0.0
0.0 0.0 0.0
0.0 0.0 0.0
0.0 0.0 0.0
0.0 0.0 0.0
0.0 0.0 0.0
0.0 0.0 0.0
0.0 0.0 0.0
0.0 0.0 0.0
0.0 0.0 0.0
0.0 0.0 0.0
0.0 0.0 0.0
0.0 0.0 0.0
0.0 0.0 0.0
0.0 0.0 0.0
0.0 0.0 0.0
0.0 0.0 0.0
0.0 0.0 0.0
0.0 0.0 0.0
0.0 0.0 0.0
0.0 0.0 0.0
0.0 0.0 0.0
0.0 0.0 0.0
0.0 0.0 0.0
0.0 0.0 0.0
0.0 0.0 0.0
0.0 0.0 0.0
0.0 0.0 0.0
0.0 0.0 0.0
0.0 0.0 0.0
0.0 0.0 0.0
0.0 0.0 0.0
0.0 0.0 0.0
0.0 0.0 0.0
0.0 0.0 0.0
0.0 0.0 0.0
0.0 0.0 0.0
0.0 0.0 0.0
0.0 0.0 0.0
0.0 0.0 0.0
0.0 0.0 0.0
0.0 0.0 0.0
0.0 0.0 0.0
0.0 0.0 0.0
0.0 0.0 0.0
0.0 0.0 0.0
0.0 0.0 0.0
0.0 0.0 0.0
0.0 0.0 0.0
0.0 0.0 0.0
0.0 0.0 0.0
0.0 0.0 0.0
0.0 0.0 0.0
0.0 0.0 0.0
0.0 0.0 0.0
0.0 0.0 0.0
0.0 0.0 0.0
0.0 0.0 0.0
0.0 0.0 0.0
0.0 0.0 0.0
0.0 0.0 0.0
0.0 0.0 0.0
0.0 0.0 0.0
0.0 0.0 0.0
0.0 0.0 0.0
0.0 0.0 0.0
0.0 0.0 0.0
0.0 0.0 0.0
0.0 0.0 0.0
0.0 0.0 0.0
0.0 0.0 0.0
0.0 0.0 0.0
0.0 0.0 0.0
0.0 0.0 0.0
0.0 0.0 0.0
0.0 0.0 0.0
0.0 0.0 0.0
0.0 0.0 0.0
0.0 0.0 0.0
0.0 0.0 0.0
0.0 0.0 0.0
0.0 0.0 0.0
0.0 0.0 0.0
0.0 0.0 0.0
0.0 0.0 0.0
0.0 0.0 0.0
0.0 0.0 0.0
0.0 0.0 0.0
0.0 0.0 0.0
0.0 0.0 0.0
0.0 0.0 0.0
0.0 0.0 0.0
0.0 0.0 0.0
0.0 0.0 0.0
0.0 0.0 0.0
0.0 0.0 0.0
0.0 0.0 0.0
0.0 0.0 0.0
0.0 0.0 0.0
0.0 0.0 0.0
0.0 0.0 0.0
0.0 0.0 0.0
0.0 0.0 0.0
0.0 0.0 0.0
0.0 0.0 0.0
0.0 0.0 0.0
0.0 0.0 0.0
0.0 0.0 0.0
0.0 0.0 0.0
0.0 0.0 0.0
0.0 0.0 0.0
0.0 0.0 0.0
0.0 0.0 0.0
0.0 0.0 0.0
0.0 0.0 0.0
0.0 0.0 0.0
0.0 0.0 0.0
0.0 0.0 0.0
0.0 0.0 0.0
0.0 0.0 0.0
0.0 0.0 0.0
0.0 0.0 0.0
0.0 0.0 0.0
0.0 0.0 0.0
0.0 0.0 0.0
0.0 0.0 0.0
0.0 0.0 0.0
0.0 0.0 0.0
0.0 0.0 0.0
0.0 0.0 0.0
0.0 0.0 0.0
0.0 0.0 0.0
0.0 0.0 0.0
0.0 0.0 0.0
0.0 0.0 0.0
0.0 0.0 0.0
0.0 0.0 0.0
0.0 0.0 0.0
0.0 0.0 0.0
0.0 0.0 0.0
0.0 0.0 0.0
0.0 0.0 0.0
0.0 0.0 0.0
0.0 0.0 0.0
0.0 0.0 0.0
0.0 0.0 0.0
0.0 0.0 0.0
0.0 0.0 0.0
0.0 0.0 0.0
0.0 0.0 0.0
0.0 0.0 0.0
0.0 0.0 0.0
0.0 0.0 0.0
0.0 0.0 0.0
0.0 0.0 0.0
0.0 0.0 0.0
0.0 0.0 0.0
0.0 0.0 0.0
0.0 0.0 0.0
0.0 0.0 0.0
0.0 0.0 0.0
0.0 0.0 0.0
0.0 0.0 0.0
0.0 0.0 0.0
0.0 0.0 0.0
0.0 0.0 0.0
0.0 0.0 0.0
0.0 0.0 0.0
0.0 0.0 0.0
0.0 0.0 0.0
0.0 0.0 0.0
0.0 0.0 0.0
0.0 0.0 0.0
0.0 0.0 0.0
0.0 0.0 0.0
0.0 0.0 0.0
0.0 0.0 0.0
0.0 0.0 0.0
0.0 0.0 0.0
0.0 0.0 0.0
0.0 0.0 0.0
0.0 0.0 0.0
0.0 0.0 0.0
0.0 0.0 0.0
0.0 0.0 0.0
0.0 0.0 0.0
0.0 0.0 0.0
0.0 0.0 0.0
0.0 0.0 0.0
0.0 0.0 0.0
0.0 0.0 0.0
0.0 0.0 0.0
0.0 0.0 0.0
0.0 0.0 0.0
0.0 0.0 0.0
0.0 0.0 0.0
0.0 0.0 0.0
0.0 0.0 0.0
0.0 0.0 0.0
0.0 0.0 0.0
0.0 0.0 0.0
0.0 0.0 0.0
0.0 0.0 0.0
0.0 0.0 0.0
0.0 0.0 0.0
0.0 0.0 0.0
0.0 0.0 0.0
0.0 0.0 0.0
0.0 0.0 0.0
0.0 0.0 0.0
0.0 0.0 0.0
0.0 0.0 0.0
0.0 0.0 0.0
0.0 0.0 0.0
0.0 0.0 0.0
0.0 0.0 0.0
0.0 0.0 0.0
0.0 0.0 0.0
0.0 0.0 0.0
0.0 0.0 0.0
0.0 0.0 0.0
0.0 0.0 0.0
0.0 0.0 0.0
0.0 0.0 0.0
0.0 0.0 0.0
0.0 0.0 0.0
0.0 0.0 0.0
0.0 0.0 0.0
0.0 0.0 0.0
0.0 0.0 0.0
0.0 0.0 0.0
0.0 0.0 0.0
0.0 0.0 0.0
0.0 0.0 0.0
0.0 0.0 0.0
0.0 0.0 0.0
0.0 0.0 0.0
0.0 0.0 0.0
0.0 0.0 0.0
0.0 0.0 0.0
0.0 0.0 0.0
0.0 0.0 0.0
0.0 0.0 0.0
0.0 0.0 0.0
0.0 0.0 0.0
0.0 0.0 0.0
0.0 0.0 0.0
0.0 0.0 0.0
0.0 0.0 0.0
0.0 0.0 0.0
0.0 0.0 0.0
0.0 0.0 0.0
0.0 0.0 0.0
VECTORS f float
-2.31849 3.32344 5.06786
-42.1623 -28.5166 -43.2937
0.12951 4.6767 11.2528
0.451143 5.20169 3.45836
3.61677 -0.841607 0.514275
-0.000217888 9.50302e-07 -0.0015098
0.000435715 0.997545 -0.980425
-4.64616e-05 -1.52504e-06 0.000112983
0.772858 5.82554 1.30419
21.9946 12.9906 59.7475
-19.8788 -6.2902 25.0308
22.9273 -6.39824 0.763551
5.73645 -11.3311 30.512
0.0 0.0 -2.77371
-9.08761 -1.27122 -7.63864
10.0486 1.63686 4.14764
1.48247 2.17274 -1.09395
80.4372 24.9403 40.609
0.0737722 0.00121995 1.30749
-0.00234397 -0.000459271 0.0462229
3.39253 8.76718 1.17576
0.0 0.0 -2.77371
1.52866 -0.794003 2.83483
8.32299 9.72103 8.16155
-14.1043 15.8813 43.2851
-0.157697 0.62012 1.61133
0.0 0.0 -2.77371
0.0 0.0 -2.77371
9.99587 -1.15529 -5.03176
-2.61858 2.47392 11.0645
-0.535138 0.404905 1.45259
0.0 0.0 -2.77371
2.52602e-05 -2.53605e-06 0.000866105
0.0 0.0 -2.77371
3.66219 0.647231 5.54662
6.37041 16.7689 10.0505
-23.3228 2.64329 -60.3925
-0.0205453 -0.000558064 -0.0551529
4.95433 7.76636 25.7996
-1.2216 5.12472 -2.2107
0.0 0.0 -2.77371
-10.4662 -11.5038 3.19483
0.031526 0.000364734 -0.25192
0.00128634 -3.68086e-05 0.0547657
214.105 19.1218 54.8694
-1.30649 -0.0260532 -1.63277
0.361269 -0.286943 -2.87857
0.000461547 2.22088e-05 -0.369991
-5.32663e-08 5.16571e-09 -3.52657e-06
-8.28735 8.26042 8.48352
-1.2972 -16.8619 5.58969
2.03222e-05 0.000137278 -0.0198847
0.0 0.0 -2.77371
0.0 0.0 -2.77371
4.9467 -6.71502 -14.2652
-6.42323 -2.56012 28.1204
-0.407284 0.0351511 -4.89032
-0.0243088 0.00869015 -0.615316
-6.99108e-09 2.92112e-10 -3.30931e-07
3.8923 14.3195 -6.71561
0.426585 -2.05577 1.85839
6.74153 -4.11387 2.85582
0.0 0.0 -2.77371
0.0 0.0 -2.77371
0.000930686 -0.94765 -1.02458
-22.7862 32.8706 -8.19676
12.7565 17.274 16.1914
-1.23669 -8.7911 16.8362
0.0 0.0 -2.77371
42.1623 28.5166 37.7463
25.2569 8.75907 7.56948
-2.01276 0.642799 1.96138
13.0996 -43.7742 64.1956
0.126427 4.35269 -0.0969792
8.03605 2.67624 -9.79778
6.99753 4.73166 -3.24004
-4.5512 -4.92376 -3.72804
0.0 0.0 -2.77371
-8.22262 0.688481 0.822438
0.0 0.0 -2.77371
0.495277 0.878037 -0.223405
0.0 0.0 -2.77371
4.48017 -3.78304 41.9016
33.789 8.8605 48.8766
0.0 0.0 -2.77371
0.0 0.0 -2.77371
5.79359 9.70112 9.67158
0.0 0.0 -2.77371
-7.89811 -2.65878 -13.3213
1.83361 -3.4556 -13.1076
0.0 0.0 -2.77371
0.0 0.0 -2.77371
0.0 0.0 -2.77371
28.5703 -50.3688 13.6455
5.78225 -4.75469 14.3809
-1.7988 -2.06901 3.57858
3.09891 6.22287 -1.96931
0.0 0.0 -2.77371
0.00664267 1.17747 -0.817446
0.0 0.0 -2.77371
0.0 0.0 -2.77371
-40.4335 -10.8992 -9.90601
0.213886 1.26942 -3.384
0.0 0.0 -2.77371
0.0 0.0 -2.77371
-8.24994 -3.94566 4.86064
0.0 0.0 -2.77371
0.0 0.0 -2.77371
-0.126427 -4.35269 -5.45045
-13.139 -12.3914 23.7867
0.0 0.0 -2.77371
-65.4554 -62.5333 -76.8389
0.0 0.0 -2.77371
0.0 0.0 -2.77371
0.0 0.0 -2.77371
4.99433 1.35064 2.86217
7.36447 0.972414 1.30691
0.0 0.0 -2.77371
23.9573 7.95549 53.9048
0.0 0.0 -2.77371
0.0 0.0 -2.77371
-0.00114972 0.934034 -1.59177
0.0 0.0 -2.77371
0.0 0.0 -2.77371
0.0 0.0 -2.77371
0.0 0.0 -2.77371
-12.5452 16.8486 -52.1904
-2.59641 3.77986 3.31737
0.0 0.0 -2.77371
0.0 0.0 -2.77371
0.499827 0.954075 -3.38811
0.0 0.0 -2.77371
0.0 0.0 -2.77371
11.1441 -17.4408 48.0146
65.4554 62.5333 71.2915
0.0 0.0 -2.77371
0.0 0.0 -2.77371
0.0 0.0 -2.77371
0.0 0.0 -2.77371
0.0 0.0 -2.77371
0.0 0.0 -2.77371
0.0 0.0 -2.77371
0.0 0.0 -2.77371
0.0 0.0 -2.77371
0.0 0.0 -2.77371
0.0 0.0 -2.77371
0.0 0.0 -2.77371
0.0 0.0 -2.77371
0.0 0.0 -2.77371
0.0 0.0 -2.77371
0.0 0.0 -2.77371
0.0 0.0 -2.77371
0.0 0.0 -2.77371
0.0 0.0 -2.77371
0.0 0.0 -2.77371
0.0 0.0 -2.77371
0.0 0.0 -2.77371
0.0 0.0 -2.77371
0.0 0.0 -2.77371
0.0 0.0 -2.77371
0.0 0.0 -2.77371
0.0 0.0 -2.77371
0.0 0.0 -2.77371
0.0 0.0 -2.77371
0.0 0.0 -2.77371
0.0 0.0 -2.77371
0.0 0.0 -2.77371
0.0 0.0 -2.77371
0.0 0.0 -2.77371
0.0 0.0 -2.77371
0.0 0.0 -2.77371
0.0 0.0 -2.77371
0.0 0.0 -2.77371
0.0 0.0 -2.77371
0.0 0.0 -2.77371
0.0 0.0 -2.77371
0.0 0.0 -2.77371
0.0 0.0 -2.77371
0.0 0.0 -2.77371
0.0 0.0 -2.77371
0.0 0.0 -2.77371
0.0 0.0 -2.77371
0.0 0.0 -2.77371
0.0 0.0 -2.77371
0.0 0.0 -2.77371
0.0 0.0 -2.77371
0.0 0.0 -2.77371
0.0 0.0 -2.77371
0.0 0.0 -2.77371
0.0 0.0 -2.77371
0.0 0.0 -2.77371
0.0 0.0 -2.77371
0.0 0.0 -2.77371
0.0 0.0 -2.77371
0.0 0.0 -2.77371
0.0 0.0 -2.77371
0.0 0.0 -2.77371
0.0 0.0 0.0
0.0 0.0 0.0
0.0 0.0 0.0
0.0 0.0 0.0
0.0 0.0 0.0
0.0 0.0 0.0
0.0 0.0 0.0
0.0 0.0 0.0
0.0 0.0 0.0
0.0 0.0 0.0
0.0 0.0 0.0
0.0 0.0 0.0
0.0 0.0 0.0
0.0 0.0 0.0
0.0 0.0 0.0
0.0 0.0 0.0
0.0 0.0 0.0
0.0 0.0 0.0
0.0 0.0 0.0
0.0 0.0 0.0
0.0 0.0 0.0
0.0 0.0 0.0
0.0 0.0 0.0
0.0 0.0 0.0
0.0 0.0 0.0
0.0 0.0 0.0
0.0 0.0 0.0
0.0 0.0 0.0
0.0 0.0 0.0
0.0 0.0 0.0
0.0 0.0 0.0
0.0 0.0 0.0
0.0 0.0 0.0
0.0 0.0 0.0
0.0 0.0 0.0
0.0 0.0 0.0
0.0 0.0 0.0
0.0 0.0 0.0
0.0 0.0 0.0
0.0 0.0 0.0
0.0 0.0 0.0
0.0 0.0 0.0
0.0 0.0 0.0
0.0 0.0 0.0
0.0 0.0 0.0
0.0 0.0 0.0
0.0 0.0 0.0
0.0 0.0 0.0
0.0 0.0 0.0
0.0 0.0 0.0
0.0 0.0 0.0
0.0 0.0 0.0
0.0 0.0 0.0
0.0 0.0 0.0
0.0 0.0 0.0
0.0 0.0 0.0
0.0 0.0 0.0
0.0 0.0 0.0
0.0 0.0 0.0
0.0 0.0 0.0
0.0 0.0 0.0
0.0 0.0 0.0
0.0 0.0 0.0
0.0 0.0 0.0
0.0 0.0 0.0
0.0 0.0 0.0
0.0 0.0 0.0
0.0 0.0 0.0
0.0 0.0 0.0
0.0 0.0 0.0
0.0 0.0 0.0
0.0 0.0 0.0
0.0 0.0 0.0
0.0 0.0 0.0
0.0 0.0 0.0
0.0 0.0 0.0
0.0 0.0 0.0
0.0 0.0 0.0
0.0 0.0 0.0
0.0 0.0 0.0
0.0 0.0 0.0
0.0 0.0 0.0
0.0 0.0 0.0
0.0 0.0 0.0
0.0 0.0 0.0
0.0 0.0 0.0
0.0 0.0 0.0
0.0 0.0 0.0
0.0 0.0 0.0
0.0 0.0 0.0
0.0 0.0 0.0
0.0 0.0 0.0
0.0 0.0 0.0
0.0 0.0 0.0
0.0 0.0 0.0
0.0 0.0 0.0
0.0 0.0 0.0
0.0 0.0 0.0
0.0 0.0 0.0
0.0 0.0 0.0
0.0 0.0 0.0
0.0 0.0 0.0
0.0 0.0 0.0
0.0 0.0 0.0
0.0 0.0 0.0
0.0 0.0 0.0
0.0 0.0 0.0
0.0 0.0 0.0
0.0 0.0 0.0
0.0 0.0 0.0
0.0 0.0 0.0
0.0 0.0 0.0
0.0 0.0 0.0
0.0 0.0 0.0
0.0 0.0 0.0
0.0 0.0 0.0
0.0 0.0 0.0
0.0 0.0 0.0
0.0 0.0 0.0
0.0 0.0 0.0
0.0 0.0 0.0
0.0 0.0 0.0
0.0 0.0 0.0
0.0 0.0 0.0
0.0 0.0 0.0
0.0 0.0 0.0
0.0 0.0 0.0
0.0 0.0 0.0
0.0 0.0 0.0
0.0 0.0 0.0
0.0 0.0 0.0
0.0 0.0 0.0
0.0 0.0 0.0
0.0 0.0 0.0
0.0 0.0 0.0
0.0 0.0 0.0
0.0 0.0 0.0
0.0 0.0 0.0
0.0 0.0 0.0
0.0 0.0 0.0
0.0 0.0 0.0
0.0 0.0 0.0
0.0 0.0 0.0
0.0 0.0 0.0
0.0 0.0 0.0
0.0 0.0 0.0
0.0 0.0 0.0
0.0 0.0 0.0
0.0 0.0 0.0
0.0 0.0 0.0
0.0 0.0 0.0
0.0 0.0 0.0
0.0 0.0 0.0
0.0 0.0 0.0
0.0 0.0 0.0
0.0 0.0 0.0
VECTORS omega float
1.83949 -76.2149 39.1782
18.8797 -49.5991 10.13
5.65825 -75.8637 26.5563
3.84815 -74.444 13.6674
-2.35434 -58.1802 18.4659
-0.291226 -66.5944 32.0424
-13.9324 -77.7743 17.5424
1.8764 -57.1265 -1.49957
-0.169013 -67.3734 14.0662
21.3336 -80.3044 0.246352
0.0800435 -117.544 24.4903
6.67444 -83.4723 -20.7991
11.3058 -81.7098 -6.94532
30.7332 -90.2214 16.8257
-0.32373 -25.2428 -12.0759
-11.4274 -26.1626 18.527
-2.40336 -62.8855 0.491399
-8.94897 -5.91472 4.2822
0.775824 -48.4482 -17.508
9.04228 -56.6447 5.29141
4.67429 -50.0175 7.14002
27.3411 -91.6134 -32.2789
5.711 -70.4853 -3.53898
-39.3014 43.7688 -5.01745
-3.63721 -109.787 24.2915
1.0269 -78.2746 6.37336
13.6608 -42.8273 -22.4362
3.79305 -112.077 -11.0378
2.04666 -89.0411 9.78282
-4.80278 -76.95 10.6566
-0.677267 -83.1776 10.5107
3.58294 -56.1849 -7.19384
-7.05081 -70.2292 16.1048
44.0689 -27.832 -7.1922
-8.2239 58.1396 -3.93493
8.08116 -59.4025 6.81464
-9.62993 -28.1251 -7.14198
1.9528 -71.9433 -1.0062
-1.81018 -68.7224 -4.175
-2.59164 -95.9929 -3.04084
5.75813 -65.7108 6.08296
-11.3586 -43.0893 -5.46352
0.9262 -59.1903 -9.34871
-2.00509 -70.0479 -3.59891
-12.8175 34.186 -3.14375
4.31438 -82.3792 -11.2151
-3.22716 -64.0301 10.8451
3.04738 -63.967 -9.82024
-4.91954 -50.7279 2.52464
42.1787 60.2679 -6.55425
-10.7794 -62.3395 -2.0263
-12.7099 -40.0593 1.27705
-4.6283 -121.31 -1.15586
-15.841 -74.5978 -1.67053
-16.3521 -73.3742 -0.0967353
-10.3797 -78.1868 19.3674
-5.91297 -69.4312 7.07029
-15.427 -43.0527 1.23093
-1.81727 -43.4917 1.90422
-7.093 -38.7287 -18.9855
-7.9879 -60.7516 -15.492
-3.27558 -63.4136 -9.0161
2.79162 -39.755 -22.4137
-5.10454 16.8048 24.2268
0.905736 -63.6072 -18.9075
-12.4069 -49.8967 -32.912
7.51373 49.888 -11.1526
17.265 -4.89391 4.04405
-0.788246 43.8109 12.7064
32.2653 50.86 -7.00297
-24.9237 75.1251 10.1869
-20.2059 40.4294 -0.243443
42.9531 9.07095 28.3104
-37.4811 41.3314 -1.6133
3.51687 -50.1253 3.36325
-33.8265 8.99557 -3.96677
-37.7041 -3.05599 21.5179
10.8623 51.6916 21.5974
-40.7776 -6.75345 -4.63741
1.57543 80.884 -7.81881
14.0424 49.2112 2.90092
-37.5235 -15.7303 -8.06781
-24.9603 21.3312 -8.03129
-3.29249 -0.469568 8.43819
-7.84248 10.9038 -16.3049
19.2764 17.9606 11.7131
-32.0702 -22.6469 -14.9709
12.4703 6.35648 4.42072
-22.6356 -21.7352 -10.5325
-6.54535 16.0711 7.37373
22.5055 -34.5335 1.0618
14.7155 86.1415 0.221805
15.9943 4.11782 7.67041
27.03 10.3494 -42.1912
12.9316 52.3939 -9.16533
10.3427 -22.2203 5.28955
-18.7716 -17.5762 -47.6322
25.9695 -61.421 43.4653
2.0569 -33.9791 54.391
14.8189 86.3542 -9.00983
12.6524 -7.70905 7.89108
-4.16919 21.3174 4.64768
-25.2592 67.6923 -6.1569
-3.17115 44.4381 -17.4183
39.6702 -8.34027 10.8806
9.31433 43.8794 -5.87651
-14.5187 38.9215 -23.5491
24.589 28.7019 8.63039
1.18738 -15.3462 -9.90098
8.18915 -35.3118 -3.23346
0.185123 1.62408 24.3332
-19.3098 -11.5684 0.495863
-11.6395 20.5849 30.9538
14.4716 -46.522 -16.3346
19.1768 32.4251 -11.9117
-18.1478 28.684 -15.41
15.5323 3.89917 0.673525
8.63669 -47.7736 16.8865
-7.24404 31.2222 -1.28159
-24.2513 -39.1017 -0.622163
24.8783 -51.7265 -20.343
-7.53659 -47.2323 9.13868
2.53187 -39.5822 20.3081
0.0 0.0 0.0
-3.63339 -32.3971 -2.33411
1.12403 -16.0304 -11.4449
36.3743 -7.86832 13.7874
-1.22919 -26.4345 -0.791295
-23.9225 -45.1066 19.4331
1.20506 24.3604 1.06681
-16.9228 -21.7519 -47.2679
0.0 0.0 0.0
0.0 0.0 0.0
5.1454 -2.48299 -1.9812
-7.57684 9.14427 -21.3111
-12.8435 -26.5506 -4.74953
-31.9594 -99.8791 8.01116
0.0 0.0 0.0
0.0 0.0 0.0
0.0 0.0 0.0
0.0 0.0 0.0
0.0 0.0 0.0
0.0 0.0 0.0
0.0 0.0 0.0
0.0 0.0 0.0
0.0 0.0 0.0
0.0 0.0 0.0
0.0 0.0 0.0
0.0 0.0 0.0
0.0 0.0 0.0
0.0 0.0 0.0
0.0 0.0 0.0
0.0 0.0 0.0
0.0 0.0 0.0
0.0 0.0 0.0
0.0 0.0 0.0
0.0 0.0 0.0
0.0 0.0 0.0
0.0 0.0 0.0
0.0 0.0 0.0
0.0 0.0 0.0
0.0 0.0 0.0
0.0 0.0 0.0
0.0 0.0 0.0
0.0 0.0 0.0
0.0 0.0 0.0
0.0 0.0 0.0
0.0 0.0 0.0
0.0 0.0 0.0
0.0 0.0 0.0
0.0 0.0 0.0
0.0 0.0 0.0
0.0 0.0 0.0
0.0 0.0 0.0
0.0 0.0 0.0
0.0 0.0 0.0
0.0 0.0 0.0
0.0 0.0 0.0
0.0 0.0 0.0
0.0 0.0 0.0
0.0 0.0 0.0
0.0 0.0 0.0
0.0 0.0 0.0
0.0 0.0 0.0
0.0 0.0 0.0
0.0 0.0 0.0
0.0 0.0 0.0
0.0 0.0 0.0
0.0 0.0 0.0
0.0 0.0 0.0
0.0 0.0 0.0
0.0 0.0 0.0
0.0 0.0 0.0
0.0 0.0 0.0
0.0 0.0 0.0
0.0 0.0 0.0
0.0 0.0 0.0
0.0 0.0 0.0
0.0 0.0 0.0
0.0 0.0 0.0
0.0 0.0 0.0
0.0 0.0 0.0
0.0 0.0 0.0
0.0 0.0 0.0
0.0 0.0 0.0
0.0 0.0 0.0
0.0 0.0 0.0
0.0 0.0 0.0
0.0 0.0 0.0
0.0 0.0 0.0
0.0 0.0 0.0
0.0 0.0 0.0
0.0 0.0 0.0
0.0 0.0 0.0
0.0 0.0 0.0
0.0 0.0 0.0
0.0 0.0 0.0
0.0 0.0 0.0
0.0 0.0 0.0
0.0 0.0 0.0
0.0 0.0 0.0
0.0 0.0 0.0
0.0 0.0 0.0
0.0 0.0 0.0
0.0 0.0 0.0
0.0 0.0 0.0
0.0 0.0 0.0
0.0 0.0 0.0
0.0 0.0 0.0
0.0 0.0 0.0
0.0 0.0 0.0
0.0 0.0 0.0
0.0 0.0 0.0
0.0 0.0 0.0
0.0 0.0 0.0
0.0 0.0 0.0
0.0 0.0 0.0
0.0 0.0 0.0
0.0 0.0 0.0
0.0 0.0 0.0
0.0 0.0 0.0
0.0 0.0 0.0
0.0 0.0 0.0
0.0 0.0 0.0
0.0 0.0 0.0
0.0 0.0 0.0
0.0 0.0 0.0
0.0 0.0 0.0
0.0 0.0 0.0
0.0 0.0 0.0
0.0 0.0 0.0
0.0 0.0 0.0
0.0 0.0 0.0
0.0 0.0 0.0
0.0 0.0 0.0
0.0 0.0 0.0
0.0 0.0 0.0
0.0 0.0 0.0
0.0 0.0 0.0
0.0 0.0 0.0
0.0 0.0 0.0
0.0 0.0 0.0
0.0 0.0 0.0
0.0 0.0 0.0
0.0 0.0 0.0
0.0 0.0 0.0
0.0 0.0 0.0
0.0 0.0 0.0
0.0 0.0 0.0
0.0 0.0 0.0
0.0 0.0 0.0
0.0 0.0 0.0
0.0 0.0 0.0
0.0 0.0 0.0
0.0 0.0 0.0
0.0 0.0 0.0
0.0 0.0 0.0
0.0 0.0 0.0
0.0 0.0 0.0
0.0 0.0 0.0
0.0 0.0 0.0
0.0 0.0 0.0
0.0 0.0 0.0
0.0 0.0 0.0
0.0 0.0 0.0
0.0 0.0 0.0
0.0 0.0 0.0
0.0 0.0 0.0
0.0 0.0 0.0
0.0 0.0 0.0
0.0 0.0 0.0
0.0 0.0 0.0
0.0 0.0 0.0
0.0 0.0 0.0
0.0 0.0 0.0
0.0 0.0 0.0
0.0 0.0 0.0
0.0 0.0 0.0
0.0 0.0 0.0
0.0 0.0 0.0
0.0 0.0 0.0
0.0 0.0 0.0
0.0 0.0 0.0
0.0 0.0 0.0
0.0 0.0 0.0
0.0 0.0 0.0
0.0 0.0 0.0
0.0 0.0 0.0
0.0 0.0 0.0
0.0 0.0 0.0
0.0 0.0 0.0
0.0 0.0 0.0
0.0 0.0 0.0
0.0 0.0 0.0
0.0 0.0 0.0
0.0 0.0 0.0
0.0 0.0 0.0
0.0 0.0 0.0
0.0 0.0 0.0
0.0 0.0 0.0
0.0 0.0 0.0
0.0 0.0 0.0
0.0 0.0 0.0
0.0 0.0 0.0
0.0 0.0 0.0
0.0 0.0 0.0
0.0 0.0 0.0
0.0 0.0 0.0
0.0 0.0 0.0
0.0 0.0 0.0
0.0 0.0 0.0
0.0 0.0 0.0
0.0 0.0 0.0
0.0 0.0 0.0
0.0 0.0 0.0
0.0 0.0 0.0
0.0 0.0 0.0
0.0 0.0 0.0
0.0 0.0 0.0
0.0 0.0 0.0
0.0 0.0 0.0
0.0 0.0 0.0
0.0 0.0 0.0
0.0 0.0 0.0
0.0 0.0 0.0
0.0 0.0 0.0
0.0 0.0 0.0
0.0 0.0 0.0
0.0 0.0 0.0
0.0 0.0 0.0
0.0 0.0 0.0
0.0 0.0 0.0
0.0 0.0 0.0
VECTORS v float
1.53837 -0.0615786 0.0219311
1.85296 -0.526478 0.129092
1.83554 -0.131466 0.0035076
2.20906 -0.0722482 0.0904835
2.21315 0.00344247 -0.0110544
2.01032 0.0087011 4.9412e-05
1.9846 0.294501 -0.294625
2.2932 -0.0560621 1.28016e-05
2.28803 -0.0562121 -0.0343824
1.64725 -0.617506 -0.387576
0.665541 -0.122729 0.478586
1.11007 -0.167253 -0.135798
1.59261 -0.380473 -0.210003
1.31541 -0.878852 0.440773
2.73417 -0.183823 0.133871
2.69272 -0.143979 0.206776
2.06102 0.0879259 0.0122959
1.61747 -0.416117 -1.01637
2.55276 -0.0231775 -0.0220789
2.30781 -0.270125 0.000757101
2.45535 -0.155396 0.0583302
1.21153 -0.958965 0.123068
1.92331 -0.0529732 -0.00867277
-0.231884 0.516035 -1.17746
1.07514 0.173705 0.255102
1.70281 0.00199331 0.0649289
2.7262 -0.384762 0.023807
0.686727 -0.112412 0.7961
1.30838 -0.0591315 0.0359999
1.74098 0.0712085 0.0743485
1.52285 0.0089498 -0.105953
2.30635 -0.121953 -0.18124
1.90172 0.210661 -4.68475e-06
-0.131567 0.0749508 -1.45136
0.609068 0.590982 -0.669234
2.32141 -0.227113 0.231233
1.87117 -0.138088 -0.635161
1.85105 -0.05833 0.00436038
2.02397 0.0748995 0.0574981
0.971761 0.619539 -0.0148352
2.02444 -0.173731 0.00359904
1.88961 0.220249 -0.46533
2.22949 -0.0277189 -0.00925796
1.90728 0.0599031 -0.00022756
-0.785893 -0.135361 -1.33335
1.54766 -0.107927 0.147871
2.08194 0.00723339 -0.319565
2.08762 -0.0911049 -0.000661007
2.48437 0.146984 1.26138e-08
2.00545 -0.264216 -0.264192
2.12857 0.359748 0.117048
2.80308 0.379746 5.06129e-05
0.434863 0.133027 0.297718
1.78362 0.446725 -0.039593
1.89653 0.454232 0.375593
1.9117 0.288452 0.210355
1.93337 0.175995 0.116047
2.71332 0.461056 0.00829616
2.70057 0.0542955 2.1534e-09
2.24878 0.0793339 0.0325906
2.29617 0.120636 0.000760317
2.42614 0.0521648 0.00230458
2.1107 -0.0860276 0.250843
3.25445 0.0399836 0.0973633
2.25506 -0.0190052 -0.0194526
2.17517 0.238852 0.578565
2.40243 0.0324974 -0.0366304
-1.42307 -0.919315 -0.975977
0.973702 -0.645268 -0.0432513
1.39415 -1.10887 0.243229
0.851877 -0.17013 -0.0445732
1.41333 0.225844 -0.201368
-0.010628 -0.0543389 -0.0747903
-0.184009 -0.543466 0.583744
1.46337 0.130803 -0.493556
0.328114 -0.135102 -0.0351984
0.467173 0.23612 -0.941581
1.58454 -0.0831335 0.151967
0.685726 0.437689 -0.881546
0.0217669 1.017 0.309834
1.15558 0.0674571 0.560532
2.12965 0.216148 -0.128218
1.17465 0.182622 0.344845