# vtk DataFile Version 2.0
Generated by lpp.py
ASCII
DATASET POLYDATA
POINTS 353 float
0.265257 0.183988 1.57989
0.387689 0.171362 1.59682
0.538113 0.176131 1.58866
0.627973 0.185056 1.57759
0.687611 0.188033 1.5769
0.831732 0.18849 1.57686
0.910842 0.166961 1.59598
0.962296 0.196106 1.57686
1.02319 0.18388 1.57923
0.333522 0.204615 1.58199
0.159985 0.241191 1.57647
0.35557 0.263005 1.58021
0.418869 0.238137 1.57354
0.513361 0.260058 1.57622
0.572936 0.264198 1.58313
0.717231 0.240137 1.57699
0.793793 0.243477 1.58681
0.899282 0.240686 1.57707
0.992028 0.251677 1.57687
1.05297 0.236692 1.57686
0.0964154 0.268063 1.58036
0.273663 0.27215 1.57459
0.671938 0.2786 1.57677
0.207466 0.331138 1.58259
0.440358 0.312106 1.57575
0.930625 0.315365 1.58008
0.291458 0.353207 1.57663
0.371907 0.344904 1.57759
0.533224 0.359496 1.57768
0.642238 0.364614 1.5793
0.754766 0.360122 1.57686
0.232867 0.386966 1.5869
0.326286 0.401661 1.57734
0.474833 0.401324 1.57939
0.812618 0.398379 1.57685
0.898347 0.40704 1.57686
0.215473 0.442702 1.57673
0.41653 0.41629 1.57713
0.519809 0.440193 1.58722
0.605804 0.418328 1.57685
0.676572 0.440552 1.57687
1.12531 0.445709 1.57686
0.286455 0.457492 1.57611
0.461569 0.466898 1.58238
0.73622 0.472838 1.57682
0.599478 0.505817 1.57736
0.672672 0.517824 1.57656
0.967929 0.500513 1.57686
0.0260281 0.532982 1.57614
0.242805 0.543365 1.58391
0.318951 0.521569 1.57607
0.465714 0.549268 1.57647
1.02281 0.530842 1.57678
1.17919 0.522574 1.57686
0.591329 0.568749 1.57717
0.646212 0.584024 1.59436
0.724529 0.569286 1.57765
0.786314 0.561432 1.59204
0.861468 0.560723 1.57758
0.955089 0.578102 1.58727
0.737466 0.165266 1.60103
0.44767 0.202272 1.61493
0.212742 0.238153 1.60075
0.641932 0.235869 1.60635
0.142009 0.303288 1.60082
0.228125 0.291218 1.62112
0.420625 0.269052 1.62052
0.288913 0.303706 1.62037
0.345773 0.319689 1.62266
0.506758 0.300307 1.61915
0.573497 0.319625 1.60458
0.0992877 0.363531 1.58002
0.401398 0.361075 1.62991
0.471177 0.348472 1.61213
0.923135 0.367531 1.61984
0.170496 0.376035 1.60132
0.333602 0.390387 1.63408
0.412881 0.429337 1.63554
0.0993615 0.445384 1.58999
0.361176 0.485821 1.59908
0.559166 0.451651 1.6289
0.929812 0.452287 1.6043
0.289403 0.494933 1.62123
0.0764714 0.521847 1.60504
0.143197 0.529162 1.60259
0.394678 0.544264 1.61023
0.513503 0.543869 1.61454
0.348325 0.586861 1.60032
0.742066 0.553601 1.6337
0.504306 0.60526 1.61295
0.710801 0.12166 1.64133
0.542484 0.126121 1.64377
0.355245 0.154517 1.66115
0.79332 0.189246 1.66172
0.0937169 0.231861 1.6299
0.162115 0.232801 1.63825
0.357394 0.230215 1.6286
0.524373 0.244088 1.63826
0.727123 0.250313 1.63953
0.591496 0.276551 1.64354
0.653489 0.284371 1.65093
0.304419 0.341936 1.66327
0.255207 0.350632 1.62779
0.592681 0.364349 1.63787
0.444114 0.389272 1.66713
0.520872 0.400905 1.63509
0.483536 0.446412 1.65668
0.366902 0.459621 1.65678
0.65083 0.461944 1.63293
0.182184 0.49548 1.63335
0.431179 0.492925 1.62952
0.810569 0.505723 1.63208
0.325666 0.581495 1.65925
0.334843 0.249399 1.68277
0.597297 0.240815 1.70087
0.259382 0.279702 1.66736
0.466192 0.268113 1.65613
0.416356 0.311506 1.66078
0.725576 0.387432 1.70406
0.267498 0.48453 1.67579
0.643169 0.446344 1.69663
0.205038 0.484872 1.68929
0.328584 0.505688 1.66486
0.515959 0.51316 1.69163
0.384674 0.526363 1.66548
0.601181 0.556441 1.67167
0.594618 0.672432 1.68097
0.199862 0.243713 1.69658
0.321019 0.404591 1.68623
0.113325 0.448918 1.68866
0.438232 0.511984 1.68997
0.554301 0.553744 1.71019
0.503524 0.730645 1.72724
0.375347 0.345395 1.72972
0.169236 0.376906 1.71645
0.261069 0.440732 1.73296
0.491591 0.428372 1.71935
0.47999 0.300848 1.77707
0.230407 0.340128 1.78348
0.131272 0.513706 1.7855
0.417913 0.266516 1.80394
0.121033 0.279919 1.82298
0.103577 0.34242 1.78873
0.287678 0.358468 1.82147
0.227036 0.399722 1.81604
0.380254 0.404128 1.79758
0.448915 0.39365 1.8146
0.441781 0.458388 1.792
0.254698 0.262308 1.82386
0.187546 0.294736 1.83819
0.35506 0.52072 1.8345
0.365118 0.235733 1.87478
0.378219 0.307765 1.86043
0.360498 0.363939 1.88788
0.10427 0.421706 1.88367
0.200976 0.455034 1.87323
0.491668 0.49724 1.89422
0.208645 0.523817 1.8628
0.29951 0.265646 1.93145
0.26261 0.317421 1.93122
0.121236 0.342722 1.93186
0.234882 0.370686 1.92629
0.317689 0.454971 1.89775
0.387139 0.48601 1.92373
0.136955 0.241756 1.96031
0.478513 0.241448 1.95416
0.200031 0.295208 1.95577
0.352336 0.290052 1.96652
0.43656 0.349215 1.95545
0.18594 0.400862 1.96843
0.288982 0.398489 1.95866
0.41824 0.41741 1.95967
0.250123 0.467148 1.94974
0.485548 0.450278 1.9684
0.124302 0.506318 1.93844
0.302009 0.506095 1.96566
0.473517 0.305435 2.00008
0.485376 0.385518 1.98225
0.106832 0.451129 1.98644
0.136852 0.289242 2.0296
0.211371 0.280829 2.04446
0.416409 0.288456 2.0311
0.195772 0.344168 2.01648
0.269256 0.359202 2.03762
0.218921 0.397847 2.03789
0.349719 0.399621 2.04489
0.323211 0.457255 2.01112
0.428381 0.4467 2.03376
0.245914 0.511668 2.04365
0.398493 0.508779 2.02396
0.466202 0.49757 2.04095
0.180109 0.517525 2.00941
0.260718 0.244031 2.05899
0.411604 0.238101 2.07847
0.305852 0.287522 2.05499
0.499385 0.279499 2.06065
0.373442 0.329195 2.06217
0.102791 0.340368 2.06265
0.485374 0.358108 2.05098
0.422187 0.378047 2.05422
0.169637 0.459874 2.05203
0.103225 0.518985 2.05486
0.174537 0.231131 2.08705
0.346739 0.243699 2.08339
0.469838 0.243492 2.10354
0.108104 0.281799 2.08625
0.157239 0.333515 2.08883
0.189941 0.428545 2.10494
0.478405 0.411198 2.08488
0.267329 0.456169 2.10542
0.370548 0.454286 2.08699
0.43276 0.446836 2.1046
0.209404 0.487055 2.0918
0.341446 0.508108 2.10034
0.429885 0.51089 2.11308
0.144959 0.253084 2.1399
0.283642 0.234209 2.12096
0.225054 0.287898 2.12782
0.353756 0.288308 2.1421
0.268169 0.352895 2.12098
0.478946 0.338932 2.12164
0.33513 0.393755 2.13779
0.434422 0.399982 2.14934
0.121741 0.410905 2.11674
0.3755 0.471214 2.14858
0.496878 0.474265 2.12193
0.122063 0.498448 2.11566
0.287754 0.512498 2.14063
0.222298 0.231508 2.15943
0.386528 0.235346 2.18474
0.17305 0.29572 2.18163
0.419349 0.297497 2.15155
0.107864 0.308056 2.1537
0.32031 0.335135 2.1667
0.216531 0.381594 2.15634
0.289149 0.393948 2.18364
0.177321 0.473873 2.1523
0.265427 0.473439 2.18144
0.487332 0.44601 2.18319
0.230707 0.52291 2.17918
0.482317 0.228242 2.18854
0.100828 0.246005 2.20484
0.334084 0.267131 2.21623
0.280967 0.269166 2.18746
0.470734 0.315695 2.19592
0.383297 0.361785 2.20306
0.142292 0.405308 2.19272
0.495324 0.379459 2.20665
0.238696 0.425254 2.21413
0.10269 0.478868 2.19007
0.338206 0.47604 2.20542
0.405771 0.451899 2.20402
0.477819 0.52568 2.201
0.410316 0.229607 2.24717
0.227735 0.245208 2.23361
0.479511 0.263195 2.2425
0.283481 0.328862 2.23466
0.383935 0.304407 2.22118
0.104364 0.371175 2.22875
0.189473 0.369831 2.22465
0.433942 0.344323 2.23524
0.124882 0.444445 2.23537
0.292698 0.428673 2.24157
0.367427 0.412219 2.23779
0.387806 0.497135 2.24601
0.10683 0.52412 2.25027
0.307197 0.231054 2.26934
0.112238 0.243444 2.27138
0.196779 0.286134 2.28798
0.338106 0.302046 2.27158
0.144627 0.329159 2.27743
0.488965 0.329122 2.26107
0.388723 0.350133 2.28272
0.26384 0.382845 2.27039
0.336562 0.447813 2.2853
0.436973 0.45447 2.2586
0.498994 0.449521 2.25904
0.197767 0.505506 2.26969
0.316599 0.507618 2.28974
0.498691 0.522189 2.26147
0.498503 0.253983 2.30572
0.432796 0.302258 2.31979
0.322732 0.35929 2.30017
0.179678 0.383211 2.29608
0.499396 0.409304 2.32395
0.404531 0.416433 2.29679
0.180002 0.445959 2.29427
0.230608 0.478968 2.31273
0.133145 0.50156 2.3051
0.4192 0.521596 2.29807
0.196226 0.26238 2.35567
0.299287 0.247375 2.32679
0.356376 0.254196 2.3577
0.442411 0.236129 2.32895
0.126939 0.284236 2.33643
0.187834 0.32549 2.34014
0.256147 0.321804 2.35011
0.345572 0.308923 2.33327
0.476186 0.343657 2.32982
0.110703 0.374435 2.35211
0.415762 0.389621 2.35827
0.282511 0.427246 2.34226
0.107302 0.455042 2.35596
0.180798 0.510604 2.34163
0.383426 0.485675 2.3355
0.271982 0.260644 2.3908
0.321856 0.294278 2.38913
0.44222 0.295647 2.38067
0.346145 0.350757 2.38426
0.475094 0.383761 2.37966
0.214879 0.429082 2.36971
0.466199 0.451954 2.38462
0.104255 0.515661 2.39241
0.236464 0.494005 2.38237
0.430217 0.500721 2.38499
0.49838 0.508374 2.36212
0.339305 0.526873 2.37754
0.103324 0.228818 2.41871
0.161403 0.258279 2.41827
0.363615 0.240431 2.42399
0.425069 0.242959 2.42512
0.499192 0.246026 2.42267
0.125428 0.344451 2.40441
0.189012 0.364304 2.41306
0.415188 0.353574 2.40906
0.282424 0.374546 2.39858
0.115455 0.44409 2.4145
0.323589 0.424937 2.4071
0.40415 0.414672 2.42454
0.370433 0.49856 2.42148
0.264146 0.523422 2.42795
0.257372 0.298287 2.45437
0.31493 0.348737 2.44385
0.484684 0.362834 2.45124
0.125062 0.39201 2.45589
0.158807 0.499296 2.43065
0.220666 0.238837 2.46734
0.393674 0.233628 2.48132
0.17717 0.298235 2.4792
0.314466 0.284399 2.47272
0.492483 0.279077 2.4744
0.417494 0.317622 2.47147
0.107591 0.339963 2.48367
0.217234 0.387064 2.46563
0.385775 0.387923 2.48657
0.449749 0.403068 2.47884
0.139724 0.459766 2.48164
0.263093 0.452487 2.47205
0.417911 0.469013 2.46692
0.486571 0.452792 2.47556
0.220758 0.508511 2.47861
0.312076 0.491969 2.4776
0.490194 0.521396 2.48111
VERTICES 353 706
1 0
1 1
1 2
1 3
1 4
1 5
1 6
1 7
1 8
1 9
1 10
1 11
1 12
1 13
1 14
1 15
1 16
1 17
1 18
1 19
1 20
1 21
1 22
1 23
1 24
1 25
1 26
1 27
1 28
1 29
1 30
1 31
1 32
1 33
1 34
1 35
1 36
1 37
1 38
1 39
1 40
1 41
1 42
1 43
1 44
1 45
1 46
1 47
1 48
1 49
1 50
1 51
1 52
1 53
1 54
1 55
1 56
1 57
1 58
1 59
1 60
1 61
1 62
1 63
1 64
1 65
1 66
1 67
1 68
1 69
1 70
1 71
1 72
1 73
1 74
1 75
1 76
1 77
1 78
1 79
1 80
1 81
1 82
1 83
1 84
1 85
1 86
1 87
1 88
1 89
1 90
1 91
1 92
1 93
1 94
1 95
1 96
1 97
1 98
1 99
1 100
1 101
1 102
1 103
1 104
1 105
1 106
1 107
1 108
1 109
1 110
1 111
1 112
1 113
1 114
1 115
1 116
1 117
1 118
1 119
1 120
1 121
1 122
1 123
1 124
1 125
1 126
1 127
1 128
1 129
1 130
1 131
1 132
1 133
1 134
1 135
1 136
1 137
1 138
1 139
1 140
1 141
1 142
1 143
1 144
1 145
1 146
1 147
1 148
1 149
1 150
1 151
1 152
1 153
1 154
1 155
1 156
1 157
1 158
1 159
1 160
1 161
1 162
1 163
1 164
1 165
1 166
1 167
1 168
1 169
1 170
1 171
1 172
1 173
1 174
1 175
1 176
1 177
1 178
1 179
1 180
1 181
1 182
1 183
1 184
1 185
1 186
1 187
1 188
1 189
1 190
1 191
1 192
1 193
1 194
1 195
1 196
1 197
1 198
1 199
1 200
1 201
1 202
1 203
1 204
1 205
1 206
1 207
1 208
1 209
1 210
1 211
1 212
1 213
1 214
1 215
1 216
1 217
1 218
1 219
1 220
1 221
1 222
1 223
1 224
1 225
1 226
1 227
1 228
1 229
1 230
1 231
1 232
1 233
1 234
1 235
1 236
1 237
1 238
1 239
1 240
1 241
1 242
1 243
1 244
1 245
1 246
1 247
1 248
1 249
1 250
1 251
1 252
1 253
1 254
1 255
1 256
1 257
1 258
1 259
1 260
1 261
1 262
1 263
1 264
1 265
1 266
1 267
1 268
1 269
1 270
1 271
1 272
1 273
1 274
1 275
1 276
1 277
1 278
1 279
1 280
1 281
1 282
1 283
1 284
1 285
1 286
1 287
1 288
1 289
1 290
1 291
1 292
1 293
1 294
1 295
1 296
1 297
1 298
1 299
1 300
1 301
1 302
1 303
1 304
1 305
1 306
1 307
1 308
1 309
1 310
1 311
1 312
1 313
1 314
1 315
1 316
1 317
1 318
1 319
1 320
1 321
1 322
1 323
1 324
1 325
1 326
1 327
1 328
1 329
1 330
1 331
1 332
1 333
1 334
1 335
1 336
1 337
1 338
1 339
1 340
1 341
1 342
1 343
1 344
1 345
1 346
1 347
1 348
1 349
1 350
1 351
1 352
POINT_DATA 353
VECTORS i float
0.0 0.0 0.0
0.0 0.0 0.0
0.0 0.0 0.0
0.0 0.0 0.0
0.0 0.0 0.0
0.0 0.0 0.0
0.0 0.0 0.0
0.0 0.0 0.0
0.0 0.0 0.0
0.0 0.0 0.0
0.0 0.0 0.0
0.0 0.0 0.0
0.0 0.0 0.0
0.0 0.0 0.0
0.0 0.0 0.0
0.0 0.0 0.0
0.0 0.0 0.0
0.0 0.0 0.0
0.0 0.0 0.0
0.0 0.0 0.0
0.0 0.0 0.0
0.0 0.0 0.0
0.0 0.0 0.0
0.0 0.0 0.0
0.0 0.0 0.0
0.0 0.0 0.0
0.0 0.0 0.0
0.0 0.0 0.0
0.0 0.0 0.0
0.0 0.0 0.0
0.0 0.0 0.0
0.0 0.0 0.0
0.0 0.0 0.0
0.0 0.0 0.0
0.0 0.0 0.0
0.0 0.0 0.0
0.0 0.0 0.0
0.0 0.0 0.0
0.0 0.0 0.0
0.0 0.0 0.0
0.0 0.0 0.0
0.0 0.0 0.0
0.0 0.0 0.0
0.0 0.0 0.0
0.0 0.0 0.0
0.0 0.0 0.0
0.0 0.0 0.0
0.0 0.0 0.0
0.0 0.0 0.0
0.0 0.0 0.0
0.0 0.0 0.0
0.0 0.0 0.0
0.0 0.0 0.0
0.0 0.0 0.0
0.0 0.0 0.0
0.0 0.0 0.0
0.0 0.0 0.0
0.0 0.0 0.0
0.0 0.0 0.0
0.0 0.0 0.0
0.0 0.0 0.0
0.0 0.0 0.0
0.0 0.0 0.0
0.0 0.0 0.0
0.0 0.0 0.0
0.0 0.0 0.0
0.0 0.0 0.0
0.0 0.0 0.0
0.0 0.0 0.0
0.0 0.0 0.0
0.0 0.0 0.0
0.0 0.0 0.0
0.0 0.0 0.0
0.0 0.0 0.0
0.0 0.0 0.0
0.0 0.0 0.0
0.0 0.0 0.0
0.0 0.0 0.0
0.0 0.0 0.0
0.0 0.0 0.0
0.0 0.0 0.0
0.0 0.0 0.0
0.0 0.0 0.0
0.0 0.0 0.0
0.0 0.0 0.0
0.0 0.0 0.0
0.0 0.0 0.0
0.0 0.0 0.0
0.0 0.0 0.0
0.0 0.0 0.0
0.0 0.0 0.0
0.0 0.0 0.0
0.0 0.0 0.0
0.0 0.0 0.0
0.0 0.0 0.0
0.0 0.0 0.0
0.0 0.0 0.0
0.0 0.0 0.0
0.0 0.0 0.0
0.0 0.0 0.0
0.0 0.0 0.0
0.0 0.0 0.0
0.0 0.0 0.0
0.0 0.0 0.0
0.0 0.0 0.0
0.0 0.0 0.0
0.0 0.0 0.0
0.0 0.0 0.0
0.0 0.0 0.0
0.0 0.0 0.0
0.0 0.0 0.0
0.0 0.0 0.0
0.0 0.0 0.0
0.0 0.0 0.0
0.0 0.0 0.0
0.0 0.0 0.0
0.0 0.0 0.0
0.0 0.0 0.0
0.0 0.0 0.0
0.0 0.0 0.0
0.0 0.0 0.0
0.0 0.0 0.0
0.0 0.0 0.0
0.0 0.0 0.0
0.0 0.0 0.0
0.0 0.0 0.0
0.0 0.0 0.0
0.0 0.0 0.0
0.0 0.0 0.0
0.0 0.0 0.0
0.0 0.0 0.0
0.0 0.0 0.0
0.0 0.0 0.0
0.0 0.0 0.0
0.0 0.0 0.0
0.0 0.0 0.0
0.0 0.0 0.0
0.0 0.0 0.0
0.0 0.0 0.0
0.0 0.0 0.0
0.0 0.0 0.0
0.0 0.0 0.0
0.0 0.0 0.0
0.0 0.0 0.0
0.0 0.0 0.0
0.0 0.0 0.0
0.0 0.0 0.0
0.0 0.0 0.0
0.0 0.0 0.0
0.0 0.0 0.0
0.0 0.0 0.0
0.0 0.0 0.0
0.0 0.0 0.0
0.0 0.0 0.0
0.0 0.0 0.0
0.0 0.0 0.0
0.0 0.0 0.0
0.0 0.0 0.0
0.0 0.0 0.0
0.0 0.0 0.0
0.0 0.0 0.0
0.0 0.0 0.0
0.0 0.0 0.0
0.0 0.0 0.0
0.0 0.0 0.0
0.0 0.0 0.0
0.0 0.0 0.0
0.0 0.0 0.0
0.0 0.0 0.0
0.0 0.0 0.0
0.0 0.0 0.0
0.0 0.0 0.0
0.0 0.0 0.0
0.0 0.0 0.0
0.0 0.0 0.0
0.0 0.0 0.0
0.0 0.0 0.0
0.0 0.0 0.0
0.0 0.0 0.0
0.0 0.0 0.0
0.0 0.0 0.0
0.0 0.0 0.0
0.0 0.0 0.0
0.0 0.0 0.0
0.0 0.0 0.0
0.0 0.0 0.0
0.0 0.0 0.0
0.0 0.0 0.0
0.0 0.0 0.0
0.0 0.0 0.0
0.0 0.0 0.0
0.0 0.0 0.0
0.0 0.0 0.0
0.0 0.0 0.0
0.0 0.0 0.0
0.0 0.0 0.0
0.0 0.0 0.0
0.0 0.0 0.0
0.0 0.0 0.0
0.0 0.0 0.0
0.0 0.0 0.0
0.0 0.0 0.0
0.0 0.0 0.0
0.0 0.0 0.0
0.0 0.0 0.0
0.0 0.0 0.0
0.0 0.0 0.0
0.0 0.0 0.0
0.0 0.0 0.0
0.0 0.0 0.0
0.0 0.0 0.0
0.0 0.0 0.0
0.0 0.0 0.0
0.0 0.0 0.0
0.0 0.0 0.0
0.0 0.0 0.0
0.0 0.0 0.0
0.0 0.0 0.0
0.0 0.0 0.0
0.0 0.0 0.0
0.0 0.0 0.0
0.0 0.0 0.0
0.0 0.0 0.0
0.0 0.0 0.0
0.0 0.0 0.0
0.0 0.0 0.0
0.0 0.0 0.0
0.0 0.0 0.0
0.0 0.0 0.0
0.0 0.0 0.0
0.0 0.0 0.0
0.0 0.0 0.0
0.0 0.0 0.0
0.0 0.0 0.0
0.0 0.0 0.0
0.0 0.0 0.0
0.0 0.0 0.0
0.0 0.0 0.0
0.0 0.0 0.0
0.0 0.0 0.0
0.0 0.0 0.0
0.0 0.0 0.0
0.0 0.0 0.0
0.0 0.0 0.0
0.0 0.0 0.0
0.0 0.0 0.0
0.0 0.0 0.0
0.0 0.0 0.0
0.0 0.0 0.0
0.0 0.0 0.0
0.0 0.0 0.0
0.0 0.0 0.0
0.0 0.0 0.0
0.0 0.0 0.0
0.0 0.0 0.0
0.0 0.0 0.0
0.0 0.0 0.0
0.0 0.0 0.0
0.0 0.0 0.0
0.0 0.0 0.0
0.0 0.0 0.0
0.0 0.0 0.0
0.0 0.0 0.0
0.0 0.0 0.0
0.0 0.0 0.0
0.0 0.0 0.0
0.0 0.0 0.0
0.0 0.0 0.0
0.0 0.0 0.0
0.0 0.0 0.0
0.0 0.0 0.0
0.0 0.0 0.0
0.0 0.0 0.0
0.0 0.0 0.0
0.0 0.0 0.0
0.0 0.0 0.0
0.0 0.0 0.0
0.0 0.0 0.0
0.0 0.0 0.0
0.0 0.0 0.0
0.0 0.0 0.0
0.0 0.0 0.0
0.0 0.0 0.0
0.0 0.0 0.0
0.0 0.0 0.0
0.0 0.0 0.0
0.0 0.0 0.0
0.0 0.0 0.0
0.0 0.0 0.0
0.0 0.0 0.0
0.0 0.0 0.0
0.0 0.0 0.0
0.0 0.0 0.0
0.0 0.0 0.0
0.0 0.0 0.0
0.0 0.0 0.0
0.0 0.0 0.0
0.0 0.0 0.0
0.0 0.0 0.0
0.0 0.0 0.0
0.0 0.0 0.0
0.0 0.0 0.0
0.0 0.0 0.0
0.0 0.0 0.0
0.0 0.0 0.0
0.0 0.0 0.0
0.0 0.0 0.0
0.0 0.0 0.0
0.0 0.0 0.0
0.0 0.0 0.0
0.0 0.0 0.0
0.0 0.0 0.0
0.0 0.0 0.0
0.0 0.0 0.0
0.0 0.0 0.0
0.0 0.0 0.0
0.0 0.0 0.0
0.0 0.0 0.0
0.0 0.0 0.0
0.0 0.0 0.0
0.0 0.0 0.0
0.0 0.0 0.0
0.0 0.0 0.0
0.0 0.0 0.0
0.0 0.0 0.0
0.0 0.0 0.0
0.0 0.0 0.0
0.0 0.0 0.0
0.0 0.0 0.0
0.0 0.0 0.0
0.0 0.0 0.0
0.0 0.0 0.0
0.0 0.0 0.0
0.0 0.0 0.0
0.0 0.0 0.0
0.0 0.0 0.0
0.0 0.0 0.0
0.0 0.0 0.0
0.0 0.0 0.0
0.0 0.0 0.0
0.0 0.0 0.0
0.0 0.0 0.0
0.0 0.0 0.0
0.0 0.0 0.0
0.0 0.0 0.0
0.0 0.0 0.0
0.0 0.0 0.0
0.0 0.0 0.0
0.0 0.0 0.0
0.0 0.0 0.0
0.0 0.0 0.0
0.0 0.0 0.0
0.0 0.0 0.0
VECTORS f float
0.0 0.0 -2.77371
0.0 0.0 -2.77371
0.0 0.0 -2.77371
-1.08644 1.76284 -1.02222
2.46248 0.0361 -1.18183
0.000311939 -1.33652e-06 0.00736338
0.000688849 0.974812 -1.00043
0.000113465 3.71077e-06 0.00142874
-0.169133 0.426618 -1.56541
-10.1047 -38.6451 -81.2235
-16.3653 -2.77681 -16.8979
-7.26411 15.6063 -12.3369
-7.77258 -6.64291 47.7012
11.2473 -6.22592 19.0442
0.602858 -1.54205 -4.16548
6.42136 -5.36813 1.79579
0.0 0.0 -2.77371
-0.00843281 -0.000324666 -2.70399
0.00731929 0.00208393 0.0458593
-0.223606 0.0427417 -2.3184
0.0 0.0 -2.77371
0.0424904 -12.8606 20.4568
-5.17983 4.9593 -4.26067
-24.3502 12.1022 -24.8834
13.5533 14.8928 37.4742
0.0 0.0 -2.77371
2.06744 2.99469 5.87415
51.4224 28.4943 -43.7514
0.0 0.0 -2.77371
0.0 0.0 -2.77371
4.6797e-05 -4.69829e-06 -0.00138376
-4.0167 4.32113 -2.9514
18.936 -7.33172 -86.6434
-1.11512 -0.817899 -3.69703
0.0430869 0.00117388 0.577319
0.00250227 -0.00016724 0.0635316
-0.520671 1.01473 -0.18354
0.0437054 0.0380664 -2.67199
-25.2991 -4.55664 -51.2735
-0.0920795 -0.00141285 -0.962605
0.00356055 -0.000102049 -0.0786487
-1.84104e-07 1.78542e-08 4.85979e-06
2.15761 4.88325 14.9754
0.0 0.0 -2.77371
-0.0445317 -0.00210993 0.273335
0.0 0.0 -2.77371
0.602208 -0.217697 22.3059
-0.00337224 -0.000633766 0.0250036
-0.693935 -0.105677 -13.7452
0.0 0.0 -2.77371
-15.9287 31.492 -40.2024
0.188473 -0.0196377 8.62762
0.0238307 -0.00827669 1.74689
-8.83737e-09 3.69258e-10 5.72402e-07
1.72943 -8.85721 4.39738
4.77773 0.770646 1.70572
6.36579 -8.2281 7.43318
0.0 0.0 -2.77371
0.0 0.0 -2.77371
-0.0079899 -0.989531 -0.995694
0.503493 -0.37576 -2.06319
0.0 0.0 -2.77371
5.08172 -19.462 5.52021
0.0 0.0 -2.77371
0.0 0.0 -2.77371
5.69008 12.4693 9.79138
10.5725 -2.04985 69.6484
-7.12266 -4.01744 35.5568
-18.3769 -22.7001 22.9761
6.08403 10.3423 11.0352
-1.4767 -8.80355 -8.85423
0.0 0.0 -2.77371
0.0 0.0 -2.77371
0.452994 0.737347 -1.04646
0.0 0.0 -2.77371
0.0 0.0 -2.77371
16.4463 -12.4513 -43.4954
11.5196 -9.71014 -12.1443
0.0 0.0 -2.77371
9.98331 -31.7252 45.1066
26.4142 5.37454 46.6494
0.0 0.0 -2.77371
9.73879 8.90505 15.6701
-4.83198 1.01779 -3.00364
0.0 0.0 -2.77371
-38.4122 -23.5111 -94.4061
0.0 0.0 -2.77371
0.0 0.0 -2.77371
0.0 0.0 -2.77371
31.0067 -47.1959 38.521
0.0158781 0.744123 -1.18648
0.0 0.0 -2.77371
0.0 0.0 -2.77371
0.0 0.0 -2.77371
0.0 0.0 -2.77371
0.0 0.0 -2.77371
17.3688 23.0388 85.2393
0.0 0.0 -2.77371
0.0 0.0 -2.77371
0.0 0.0 -2.77371
0.0 0.0 -2.77371
-1.51479 -6.60259 -4.35255
-17.5148 13.3565 2.67457
0.87384 10.3456 4.69857
-2.65879 4.44213 -4.7969
0.0 0.0 -2.77371
0.0 0.0 -2.77371
-8.90455 5.22995 8.51835
0.0 0.0 -2.77371
0.0 0.0 -2.77371
0.0 0.0 -2.77371
0.0 0.0 -2.77371
0.0 0.0 -2.77371
0.0 0.0 -2.77371
0.0 0.0 -2.77371
37.2143 -3.06037 27.2151
8.78504 5.5185 9.70649
-12.9517 33.6558 10.4
0.0 0.0 -2.77371
-5.91329 -2.22707 2.45571
0.0 0.0 -2.77371
0.0 0.0 -2.77371
-43.3663 0.761199 -27.1145
-5.28234 -15.7451 -13.5206
80.0024 25.1047 109.14
0.0 0.0 -2.77371
7.4333 -9.23452 10.5536
0.0 0.0 -2.77371
-34.9884 20.6033 122.25
0.0 0.0 -2.77371
0.0 0.0 -2.77371
5.28234 15.7451 7.97322
0.0 0.0 -2.77371
0.0 0.0 -2.77371
0.0 0.0 -2.77371
0.0 0.0 -2.77371
0.0 0.0 -2.77371
0.0 0.0 -2.77371
0.0 0.0 -2.77371
0.0 0.0 -2.77371
0.0 0.0 -2.77371
0.0 0.0 -2.77371
0.0 0.0 -2.77371
0.0 0.0 -2.77371
0.0 0.0 -2.77371
0.0 0.0 -2.77371
0.0 0.0 -2.77371
0.0 0.0 -2.77371
0.0 0.0 -2.77371
0.0 0.0 -2.77371
0.0 0.0 -2.77371
0.0 0.0 -2.77371
0.0 0.0 -2.77371
0.0 0.0 -2.77371
0.0 0.0 -2.77371
0.0 0.0 -2.77371
0.0 0.0 -2.77371
0.0 0.0 -2.77371
0.0 0.0 -2.77371
0.0 0.0 -2.77371
0.0 0.0 -2.77371
0.0 0.0 -2.77371
0.0 0.0 -2.77371
0.0 0.0 -2.77371
0.0 0.0 -2.77371
0.0 0.0 -2.77371
0.0 0.0 -2.77371
0.0 0.0 -2.77371
0.0 0.0 -2.77371
0.0 0.0 -2.77371
0.0 0.0 -2.77371
0.0 0.0 -2.77371
0.0 0.0 -2.77371
0.0 0.0 -2.77371
0.0 0.0 -2.77371
0.0 0.0 -2.77371
0.0 0.0 -2.77371
0.0 0.0 -2.77371
0.0 0.0 -2.77371
0.0 0.0 -2.77371
0.0 0.0 -2.77371
0.0 0.0 -2.77371
0.0 0.0 -2.77371
0.0 0.0 -2.77371
0.0 0.0 -2.77371
0.0 0.0 -2.77371
0.0 0.0 -2.77371
0.0 0.0 -2.77371
0.0 0.0 -2.77371
0.0 0.0 -2.77371
0.0 0.0 -2.77371
0.0 0.0 -2.77371
0.0 0.0 0.0
0.0 0.0 0.0
0.0 0.0 0.0
0.0 0.0 0.0
0.0 0.0 0.0
0.0 0.0 0.0
0.0 0.0 0.0
0.0 0.0 0.0
0.0 0.0 0.0
0.0 0.0 0.0
0.0 0.0 0.0
0.0 0.0 0.0
0.0 0.0 0.0
0.0 0.0 0.0
0.0 0.0 0.0
0.0 0.0 0.0
0.0 0.0 0.0
0.0 0.0 0.0
0.0 0.0 0.0
0.0 0.0 0.0
0.0 0.0 0.0
0.0 0.0 0.0
0.0 0.0 0.0
0.0 0.0 0.0
0.0 0.0 0.0
0.0 0.0 0.0
0.0 0.0 0.0
0.0 0.0 0.0
0.0 0.0 0.0
0.0 0.0 0.0
0.0 0.0 0.0
0.0 0.0 0.0
0.0 0.0 0.0
0.0 0.0 0.0
0.0 0.0 0.0
0.0 0.0 0.0
0.0 0.0 0.0
0.0 0.0 0.0
0.0 0.0 0.0
0.0 0.0 0.0
0.0 0.0 0.0
0.0 0.0 0.0
0.0 0.0 0.0
0.0 0.0 0.0
0.0 0.0 0.0
0.0 0.0 0.0
0.0 0.0 0.0
0.0 0.0 0.0
0.0 0.0 0.0
0.0 0.0 0.0
0.0 0.0 0.0
0.0 0.0 0.0
0.0 0.0 0.0
0.0 0.0 0.0
0.0 0.0 0.0
0.0 0.0 0.0
0.0 0.0 0.0
0.0 0.0 0.0
0.0 0.0 0.0
0.0 0.0 0.0
0.0 0.0 0.0
0.0 0.0 0.0
0.0 0.0 0.0
0.0 0.0 0.0
0.0 0.0 0.0
0.0 0.0 0.0
0.0 0.0 0.0
0.0 0.0 0.0
0.0 0.0 0.0
0.0 0.0 0.0
0.0 0.0 0.0
0.0 0.0 0.0
0.0 0.0 0.0
0.0 0.0 0.0
0.0 0.0 0.0
0.0 0.0 0.0
0.0 0.0 0.0
0.0 0.0 0.0
0.0 0.0 0.0
0.0 0.0 0.0
0.0 0.0 0.0
0.0 0.0 0.0
0.0 0.0 0.0
0.0 0.0 0.0
0.0 0.0 0.0
0.0 0.0 0.0
0.0 0.0 0.0
0.0 0.0 0.0
0.0 0.0 0.0
0.0 0.0 0.0
0.0 0.0 0.0
0.0 0.0 0.0
0.0 0.0 0.0
0.0 0.0 0.0
0.0 0.0 0.0
0.0 0.0 0.0
0.0 0.0 0.0
0.0 0.0 0.0
0.0 0.0 0.0
0.0 0.0 0.0
0.0 0.0 0.0
0.0 0.0 0.0
0.0 0.0 0.0
0.0 0.0 0.0
0.0 0.0 0.0
0.0 0.0 0.0
0.0 0.0 0.0
0.0 0.0 0.0
0.0 0.0 0.0
0.0 0.0 0.0
0.0 0.0 0.0
0.0 0.0 0.0
0.0 0.0 0.0
0.0 0.0 0.0
0.0 0.0 0.0
0.0 0.0 0.0
0.0 0.0 0.0
0.0 0.0 0.0
0.0 0.0 0.0
0.0 0.0 0.0
0.0 0.0 0.0
0.0 0.0 0.0
0.0 0.0 0.0
0.0 0.0 0.0
0.0 0.0 0.0
0.0 0.0 0.0
0.0 0.0 0.0
0.0 0.0 0.0
0.0 0.0 0.0
0.0 0.0 0.0
0.0 0.0 0.0
0.0 0.0 0.0
0.0 0.0 0.0
0.0 0.0 0.0
0.0 0.0 0.0
0.0 0.0 0.0
0.0 0.0 0.0
0.0 0.0 0.0
0.0 0.0 0.0
0.0 0.0 0.0
0.0 0.0 0.0
0.0 0.0 0.0
0.0 0.0 0.0
0.0 0.0 0.0
0.0 0.0 0.0
0.0 0.0 0.0
0.0 0.0 0.0
0.0 0.0 0.0
0.0 0.0 0.0
0.0 0.0 0.0
0.0 0.0 0.0
0.0 0.0 0.0
0.0 0.0 0.0
0.0 0.0 0.0
0.0 0.0 0.0
0.0 0.0 0.0
0.0 0.0 0.0
0.0 0.0 0.0
0.0 0.0 0.0
0.0 0.0 0.0
0.0 0.0 0.0
VECTORS omega float
6.91836 -79.7322 42.6955
24.8741 -67.4934 16.6195
13.8815 -75.9101 26.6028
4.12855 -73.5763 12.6932
-1.1439 -64.2009 20.2439
-0.291227 -66.5947 32.0424
-12.2764 -77.7723 17.5404
1.8764 -57.1264 -1.49957
4.26745 -68.0451 13.5785
9.02726 -65.8735 2.80225
10.2412 -80.8753 -9.79649
31.4375 -74.2802 -5.80207
27.3778 -96.0057 18.6606
-5.47854 0.29014 -9.62453
-9.79388 -34.621 20.3478
-2.12293 -67.4206 0.949449
-9.91324 -2.80651 4.2822
0.774157 -48.3297 -17.508
9.04016 -56.6357 5.29141
12.5455 -54.2754 10.9303
4.68544 -96.3203 17.7685
37.2673 -100.456 -30.0675
6.6827 -67.8358 -6.48555
12.7486 -84.0331 8.29531
-4.77771 -74.335 7.4617
13.6608 -42.8273 -22.4362
1.95539 -92.1316 9.76821
10.7012 -81.0038 11.8712
-0.754212 -83.2876 10.5107
3.58294 -56.1849 -7.19384
-7.05079 -70.229 16.1048
11.7696 51.3301 -16.669
23.6648 -59.0494 5.45589
-2.66237 -56.7654 -7.9963
1.95279 -71.943 -1.0062
-4.40899 -65.9689 -3.69294
-1.32689 -95.0923 -2.40519
5.78317 -65.8566 6.11912
-17.4099 -45.6269 -6.51224
0.931442 -59.2629 -9.34871
-2.00472 -70.035 -3.59891
-4.91954 -50.7279 2.52464
0.691196 -81.0817 -15.2614
-2.53587 -70.8048 15.3018
3.0513 -64.0522 -9.82024
-14.5427 -62.0915 -4.80583
-5.86131 -69.2564 7.07029
-12.7095 -40.0652 1.27705
-6.27842 -131.036 -1.24373
-15.841 -74.5978 -1.67053
0.665679 -62.118 -10.5974
-4.17306 -71.2001 9.97026
-15.4539 -43.1272 1.23093
-1.81727 -43.4917 1.90422
-13.6519 -38.0636 -18.1594
-8.90132 -63.0408 -15.3916
-8.74706 -70.7773 -5.67887
2.79162 -39.755 -22.4137
-5.10454 16.8048 24.2268
-0.750531 -63.6156 -18.916
9.00771 66.1545 -29.292
38.2597 32.9658 -0.513453
-21.3328 71.3723 16.7561
-26.8175 38.0504 6.38015
-35.4738 40.2884 -4.86258
25.6756 -1.02172 15.2383
-40.5233 34.7909 1.63124
-67.4072 49.5 -1.07696
-34.319 3.20648 20.5741
17.9056 -57.2173 -2.39541
12.6191 49.743 24.2417
-3.30856 -22.1356 -11.0378
-12.2652 85.7668 5.76523
26.4869 38.4824 3.98926
-37.5235 -15.7303 -8.06781
44.0689 -27.832 -7.1922
-24.9651 13.3302 8.0361
-9.60244 23.6267 31.3497
-13.4251 40.9848 -3.14375
7.64642 14.4566 -17.0549
-11.0705 15.4739 -14.8996
5.11574 -46.1421 -14.4888
-25.6474 -3.51606 -11.5468
14.042 82.951 0.133936
15.9943 4.11782 7.67041
4.79578 13.1609 -48.5103
16.0602 0.43202 -21.3419
-1.22852 2.59096 21.1672
10.6213 -37.0302 1.1806
-14.153 7.84094 -25.0374
3.74048 -33.94 54.3519
25.9695 -61.421 43.4653
14.8189 86.3542 -9.00983
12.6524 -7.70905 7.89108
-2.37029 -7.06136 -2.83258
12.1797 -53.1788 0.934172
4.92433 42.3547 16.4056
-22.6082 67.5185 -9.21001
-3.17115 44.4381 -17.4183
-14.5187 38.9215 -23.5491
24.589 28.7019 8.63039
6.0968 -21.5594 11.7941
-45.4993 -12.0545 3.40298
0.78733 -0.151741 26.4291
-4.57776 -42.5846 13.7851
-17.0802 -17.2315 10.9748
11.8733 54.2323 -3.82413
16.6319 -43.2696 -16.0405
19.2764 17.9606 11.7131
12.4703 6.35648 4.42072
-2.55227 19.2626 8.17273
22.5055 -34.5335 1.0618
8.63669 -47.7736 16.8865
-24.2513 -39.1017 -0.622163
24.8783 -51.7265 -20.343
4.30328 33.1744 4.07943
13.8957 36.1281 -12.0665
-25.6976 -14.319 7.39824
2.53187 -39.5822 20.3081
33.8095 -17.6543 14.3503
-3.63339 -32.3971 -2.33411
1.12403 -16.0304 -11.4449
-23.4651 34.051 -23.7434
-22.6217 -47.8251 22.827
7.28812 -11.5781 -1.19774
-2.30868 41.6076 -2.10946
-20.1854 -16.0852 -41.6012
0.0 0.0 0.0
0.473223 -51.2177 12.1033
0.0 0.0 0.0
-4.1182 -25.6295 2.99106
-15.0564 -12.022 -4.53182
-31.9594 -99.8791 8.01116
0.0 0.0 0.0
0.0 0.0 0.0
0.0 0.0 0.0
0.0 0.0 0.0
0.0 0.0 0.0
0.0 0.0 0.0
0.0 0.0 0.0
0.0 0.0 0.0
0.0 0.0 0.0
0.0 0.0 0.0
0.0 0.0 0.0
0.0 0.0 0.0
0.0 0.0 0.0
0.0 0.0 0.0
0.0 0.0 0.0
0.0 0.0 0.0
0.0 0.0 0.0
0.0 0.0 0.0
0.0 0.0 0.0
0.0 0.0 0.0
0.0 0.0 0.0
0.0 0.0 0.0
0.0 0.0 0.0
0.0 0.0 0.0
0.0 0.0 0.0
0.0 0.0 0.0
0.0 0.0 0.0
0.0 0.0 0.0
0.0 0.0 0.0
0.0 0.0 0.0
0.0 0.0 0.0
0.0 0.0 0.0
0.0 0.0 0.0
0.0 0.0 0.0
0.0 0.0 0.0
0.0 0.0 0.0
0.0 0.0 0.0
0.0 0.0 0.0
0.0 0.0 0.0
0.0 0.0 0.0
0.0 0.0 0.0
0.0 0.0 0.0
0.0 0.0 0.0
0.0 0.0 0.0
0.0 0.0 0.0
0.0 0.0 0.0
0.0 0.0 0.0
0.0 0.0 0.0
0.0 0.0 0.0
0.0 0.0 0.0
0.0 0.0 0.0
0.0 0.0 0.0
0.0 0.0 0.0
0.0 0.0 0.0
0.0 0.0 0.0
0.0 0.0 0.0
0.0 0.0 0.0
0.0 0.0 0.0
0.0 0.0 0.0
0.0 0.0 0.0
0.0 0.0 0.0
0.0 0.0 0.0
0.0 0.0 0.0
0.0 0.0 0.0
0.0 0.0 0.0
0.0 0.0 0.0
0.0 0.0 0.0
0.0 0.0 0.0
0.0 0.0 0.0
0.0 0.0 0.0
0.0 0.0 0.0
0.0 0.0 0.0
0.0 0.0 0.0
0.0 0.0 0.0
0.0 0.0 0.0
0.0 0.0 0.0
0.0 0.0 0.0
0.0 0.0 0.0
0.0 0.0 0.0
0.0 0.0 0.0
0.0 0.0 0.0
0.0 0.0 0.0
0.0 0.0 0.0
0.0 0.0 0.0
0.0 0.0 0.0
0.0 0.0 0.0
0.0 0.0 0.0
0.0 0.0 0.0
0.0 0.0 0.0
0.0 0.0 0.0
0.0 0.0 0.0
0.0 0.0 0.0
0.0 0.0 0.0
0.0 0.0 0.0
0.0 0.0 0.0
0.0 0.0 0.0
0.0 0.0 0.0
0.0 0.0 0.0
0.0 0.0 0.0
0.0 0.0 0.0
0.0 0.0 0.0
0.0 0.0 0.0
0.0 0.0 0.0
0.0 0.0 0.0
0.0 0.0 0.0
0.0 0.0 0.0
0.0 0.0 0.0
0.0 0.0 0.0
0.0 0.0 0.0
0.0 0.0 0.0
0.0 0.0 0.0
0.0 0.0 0.0
0.0 0.0 0.0
0.0 0.0 0.0
0.0 0.0 0.0
0.0 0.0 0.0
0.0 0.0 0.0
0.0 0.0 0.0
0.0 0.0 0.0
0.0 0.0 0.0
0.0 0.0 0.0
0.0 0.0 0.0
0.0 0.0 0.0
0.0 0.0 0.0
0.0 0.0 0.0
0.0 0.0 0.0
0.0 0.0 0.0
0.0 0.0 0.0
0.0 0.0 0.0
0.0 0.0 0.0
0.0 0.0 0.0
0.0 0.0 0.0
0.0 0.0 0.0
0.0 0.0 0.0
0.0 0.0 0.0
0.0 0.0 0.0
0.0 0.0 0.0
0.0 0.0 0.0
0.0 0.0 0.0
0.0 0.0 0.0
0.0 0.0 0.0
0.0 0.0 0.0
0.0 0.0 0.0
0.0 0.0 0.0
0.0 0.0 0.0
0.0 0.0 0.0
0.0 0.0 0.0
0.0 0.0 0.0
0.0 0.0 0.0
0.0 0.0 0.0
0.0 0.0 0.0
0.0 0.0 0.0
0.0 0.0 0.0
0.0 0.0 0.0
0.0 0.0 0.0
0.0 0.0 0.0
0.0 0.0 0.0
0.0 0.0 0.0
0.0 0.0 0.0
0.0 0.0 0.0
0.0 0.0 0.0
0.0 0.0 0.0
0.0 0.0 0.0
0.0 0.0 0.0
0.0 0.0 0.0
0.0 0.0 0.0
0.0 0.0 0.0
0.0 0.0 0.0
0.0 0.0 0.0
0.0 0.0 0.0
0.0 0.0 0.0
0.0 0.0 0.0
0.0 0.0 0.0
0.0 0.0 0.0
0.0 0.0 0.0
0.0 0.0 0.0
0.0 0.0 0.0
0.0 0.0 0.0
0.0 0.0 0.0
0.0 0.0 0.0
0.0 0.0 0.0
0.0 0.0 0.0
0.0 0.0 0.0
0.0 0.0 0.0
0.0 0.0 0.0
0.0 0.0 0.0
0.0 0.0 0.0
0.0 0.0 0.0
0.0 0.0 0.0
0.0 0.0 0.0
0.0 0.0 0.0
0.0 0.0 0.0
0.0 0.0 0.0
0.0 0.0 0.0
0.0 0.0 0.0
0.0 0.0 0.0
0.0 0.0 0.0
0.0 0.0 0.0
0.0 0.0 0.0
0.0 0.0 0.0
0.0 0.0 0.0
0.0 0.0 0.0
0.0 0.0 0.0
0.0 0.0 0.0
0.0 0.0 0.0
0.0 0.0 0.0
0.0 0.0 0.0
0.0 0.0 0.0
0.0 0.0 0.0
0.0 0.0 0.0
0.0 0.0 0.0
0.0 0.0 0.0
0.0 0.0 0.0
0.0 0.0 0.0
0.0 0.0 0.0
0.0 0.0 0.0
0.0 0.0 0.0
0.0 0.0 0.0
0.0 0.0 0.0
0.0 0.0 0.0
VECTORS v float
1.59828 -0.10669 -0.0116167
2.02239 -0.365306 0.51627
1.83633 -0.149445 -0.0565097
2.09482 -0.0325556 0.0907933
2.07566 0.035514 0.0197263
2.01033 0.00870109 -6.51409e-05
1.98457 0.259483 -0.259738
2.2932 -0.0560621 -2.94478e-05
2.28594 -0.0622705 0.032917
1.70452 -0.368631 -0.0230813
0.379926 -0.18518 -0.0528158
1.55086 -0.269907 -0.451641
1.29893 -0.667935 0.0614883
2.43665 -0.236746 -0.26237
2.54886 -0.188754 0.19222
1.94978 0.0869235 0.0253251
1.58011 -0.427706 -0.938138
2.55133 -0.0231976 0.00323164
2.3077 -0.27015 -0.00273009
2.37597 -0.372455 0.0515108
-0.0284179 -0.762041 -0.759274
1.21095 -0.934504 0.546517
1.86091 -0.0843352 0.0355818
1.13685 0.529699 -1.0916
1.62154 -0.0662366 -0.0810521
2.7262 -0.384762 0.121907
1.24392 -0.0612594 -0.0303413
1.38939 -0.137465 0.0665172
1.52417 0.00802574 -0.0166908
2.30635 -0.121953 -0.0831403
1.90172 0.210661 -1.18692e-05
0.197856 0.0152656 -0.975213
1.91792 -0.45514 -0.151022
2.20877 0.064295 0.22608
1.85105 -0.0583302 -0.00801201
2.02912 0.131722 -0.000520882
0.97335 0.612598 -0.00237415
2.02279 -0.174368 0.100266
2.03059 0.203136 -0.0341857
2.23037 -0.0276558 0.0243488
1.90712 0.0599075 -0.000891915
2.48437 0.146984 6.17691e-08
1.65062 -0.0524919 -0.227017
1.83713 0.0857331 -0.0732871
2.08865 -0.0910577 0.0108174
2.1445 0.438819 -0.199888
1.93121 0.176626 -0.285555
2.80315 0.37975 0.000391281
0.449869 0.134443 0.517578
1.78362 0.446725 0.058507
2.26925 -0.0433194 0.209261
1.88884 0.124433 0.00271685
2.71421 0.460732 -0.00310191
2.70057 0.0542955 3.77893e-09
2.20447 0.109802 0.113314
2.22725 0.109746 0.0120368
2.19203 0.117862 0.172338
2.1107 -0.0860276 0.348943
3.25445 0.0399836 0.195463
2.2552 0.0142271 0.0172168
2.08651 -0.256618 -0.30059
1.22472 -1.27004 0.0522507
0.542996 -0.165795 -0.0104844
1.57122 0.00297281 -0.36454
-0.231116 0.514011 -1.14378
-0.389646 0.276834 -1.35868
-0.285977 -0.308418 0.213909
0.581663 -0.208782 1.04126
-0.0208007 0.321695 -0.979924
1.21249 -0.489216 -0.414267
1.56547 -0.0471724 0.265423
-0.439324 -0.20118 -2.74627
0.549297 -0.0266669 1.19515
1.05737 -0.0874464 0.250249
2.12965 0.216148 -0.0301176
-0.131567 0.0749508 -1.35326
0.65841 -0.34862 -0.964058
0.776964 -0.0623351 0.011803
-0.867614 -0.142665 -1.257
0.928607 0.868956 -1.53801
1.13783 0.255642 0.0349507
1.39052 0.105394 -1.10433
0.156447 0.431543 -0.434809
0.767913 -0.200878 0.745705
-0.401116 0.50831 -1.04674
1.05622 0.69562 -0.853568
0.83062 0.649706 -0.416161
1.17913 1.49081 -0.263131