# vtk DataFile Version 2.0
Generated by lpp.py
ASCII
DATASET POLYDATA
POINTS 351 float
0.153739 0.18538 1.57687
0.284065 0.184534 1.58129
0.348636 0.179707 1.58225
0.587216 0.178343 1.5841
0.754269 0.181263 1.58185
0.813847 0.192252 1.57596
0.954524 0.186406 1.57662
1.014 0.189505 1.57742
1.20903 0.171346 1.59164
1.41653 0.186459 1.57678
1.72075 0.194235 1.57686
1.84553 0.185385 1.57756
1.90845 0.174831 1.58815
0.483857 0.206511 1.57683
0.624673 0.224632 1.57685
0.860892 0.229104 1.57702
1.06514 0.229768 1.57647
1.17629 0.220975 1.57685
1.26561 0.203394 1.57685
1.50826 0.216542 1.57686
1.65728 0.22622 1.57686
0.136999 0.245345 1.58118
0.226989 0.238451 1.57479
0.435014 0.250184 1.578
0.5732 0.256631 1.57689
0.931696 0.249995 1.57688
1.0086 0.250611 1.57673
1.11799 0.258824 1.57735
1.31238 0.242693 1.57686
1.38645 0.245462 1.57686
1.57898 0.264323 1.57686
1.71151 0.257187 1.57686
1.89639 0.231259 1.57644
0.298918 0.291529 1.57659
0.356896 0.277775 1.58046
0.476666 0.298918 1.57678
0.671422 0.277417 1.57816
0.793703 0.286135 1.57685
0.874176 0.300231 1.57673
1.05059 0.296366 1.57684
1.20293 0.274602 1.57711
1.85433 0.276018 1.57683
0.0153245 0.338839 1.57694
0.0659677 0.318177 1.60042
0.603389 0.337799 1.57741
1.09878 0.331877 1.57685
1.15338 0.307608 1.57669
1.33024 0.307296 1.57686
1.38807 0.336819 1.57694
1.47985 0.31677 1.57684
1.53925 0.30924 1.57688
1.61568 0.317949 1.57686
1.75169 0.339229 1.57686
0.232477 0.340181 1.57383
0.319921 0.347285 1.58448
0.457003 0.360964 1.57691
0.821617 0.339485 1.57686
0.895291 0.35741 1.57688
1.0089 0.358182 1.57749
1.15166 0.370695 1.57687
1.21898 0.339527 1.57686
1.51957 0.372919 1.57686
1.68267 0.3472 1.57686
0.0887816 0.400875 1.58534
0.173725 0.378218 1.58051
0.372017 0.380672 1.58376
0.543184 0.403609 1.57547
0.695631 0.378914 1.57613
1.06644 0.386168 1.57686
1.27997 0.401755 1.57636
1.44199 0.385103 1.57686
1.75325 0.404846 1.57686
0.149708 0.433562 1.57696
0.258917 0.445928 1.57666
0.319286 0.414534 1.57706
0.411909 0.444656 1.57883
0.627844 0.438235 1.57699
0.69302 0.440482 1.57686
0.795805 0.431448 1.577
1.07922 0.445004 1.57711
1.18025 0.424947 1.57676
1.33745 0.417681 1.57968
1.48916 0.439062 1.57671
1.54841 0.431008 1.57706
1.61803 0.434557 1.57692
0.307091 0.472123 1.60002
0.480236 0.451065 1.57606
0.860763 0.447967 1.57684
0.958918 0.451063 1.57613
1.13636 0.465856 1.57894
1.24054 0.471675 1.57698
1.32458 0.476085 1.57676
1.42533 0.446452 1.57689
1.67005 0.465509 1.58112
1.99979 0.455592 1.57688
0.192709 0.510179 1.5845
0.444555 0.501356 1.57911
0.508283 0.512464 1.57707
0.626895 0.515146 1.58023
0.719783 0.499355 1.57686
0.790473 0.490922 1.57663
0.864434 0.508972 1.57655
0.971745 0.509305 1.57748
1.08347 0.504383 1.57825
1.19657 0.512264 1.57683
1.38564 0.51367 1.57624
1.45249 0.506097 1.57686
1.53995 0.502298 1.57686
1.95675 0.50004 1.57685
0.364749 0.545899 1.57575
1.24956 0.541695 1.58061
1.31822 0.536331 1.57688
1.65671 0.524524 1.57684
1.89582 0.545633 1.57686
2.0344 0.520969 1.5763
2.09606 0.538092 1.58379
0.144897 0.554756 1.57685
0.304287 0.57179 1.58138
0.451117 0.563409 1.57687
0.542577 0.560496 1.57758
0.623337 0.575788 1.58489
0.713743 0.584643 1.59384
0.883031 0.567218 1.57633
0.941664 0.560684 1.57713
1.00671 0.559754 1.57678
1.09605 0.563255 1.57678
1.19546 0.572053 1.58132
1.41769 0.564949 1.57686
1.49598 0.552005 1.57686
1.98292 0.560623 1.57686
0.380304 0.140532 1.62153
0.640376 0.160214 1.60278
0.776185 0.142235 1.62363
0.834826 0.150764 1.61193
0.967023 0.144456 1.61874
1.46469 0.160689 1.60207
0.143234 0.195583 1.63423
0.745219 0.241014 1.6014
0.186605 0.296969 1.61738
0.264713 0.270075 1.62403
0.45111 0.303089 1.63094
0.613541 0.270277 1.62209
0.247153 0.330003 1.6284
0.641444 0.333089 1.62559
0.867318 0.310304 1.63517
1.03276 0.327854 1.62508
1.35013 0.337717 1.62418
0.120781 0.35458 1.6038
0.501669 0.367331 1.61394
0.740013 0.337096 1.59606
1.26096 0.362578 1.62722
0.570263 0.382911 1.62353
0.697534 0.398507 1.63193
0.942652 0.395742 1.59978
0.202314 0.425178 1.6069
0.364565 0.439502 1.62115
0.513586 0.433095 1.62094
0.999617 0.415565 1.59797
0.548699 0.478126 1.60422
1.00984 0.473947 1.60736
1.35654 0.454593 1.62255
0.0876967 0.504703 1.59822
0.226412 0.480721 1.62447
0.372271 0.496625 1.60781
1.26634 0.50178 1.63497
0.263463 0.529101 1.60634
0.80588 0.536599 1.61138
0.901773 0.52469 1.62173
0.992671 0.548515 1.6338
1.16183 0.553014 1.6273
0.267242 0.617923 1.63158
0.648317 0.617152 1.62654
0.809314 0.606148 1.615
0.991011 0.605037 1.61416
1.06346 0.601025 1.60965
1.12076 0.611044 1.62105
1.27929 0.591484 1.61009
1.64444 0.590093 1.59927
0.655011 0.118985 1.64376
0.876329 0.123239 1.6437
1.19405 0.126557 1.63599
1.24793 0.106278 1.66199
0.3994 0.186214 1.65392
0.520204 0.165326 1.63758
0.213403 0.215303 1.62703
0.342525 0.208027 1.66107
0.567488 0.216911 1.63644
0.894135 0.215712 1.63325
0.147905 0.252836 1.64779
0.411307 0.243515 1.63101
0.518839 0.247419 1.65529
0.107684 0.29133 1.63183
0.353674 0.265712 1.6455
0.539873 0.300355 1.63766
0.310301 0.310278 1.64293
0.421194 0.353878 1.64124
0.599924 0.349436 1.66861
0.0767379 0.408338 1.66949
0.205499 0.378923 1.64451
0.351 0.375314 1.65355
0.454328 0.402896 1.6519
1.31162 0.396263 1.63294
0.322439 0.427456 1.66139
0.851291 0.428438 1.66937
0.167244 0.456054 1.65785
1.42196 0.448065 1.63767
0.431774 0.496245 1.6393
0.573417 0.504685 1.65049
0.645765 0.489701 1.64577
0.332827 0.544235 1.62532
0.520456 0.545981 1.64871
0.39363 0.558424 1.635
0.580396 0.577964 1.64488
0.800908 0.569149 1.66107
0.452797 0.60956 1.63427
0.858275 0.629394 1.64408
0.714399 0.171067 1.6836
0.388138 0.23553 1.68479
0.174652 0.30002 1.67347
0.400241 0.299266 1.67894
0.343573 0.326916 1.69138
0.253419 0.349853 1.68266
0.520987 0.349338 1.66798
0.392445 0.412586 1.68657
0.4962 0.432644 1.6807
0.266411 0.47335 1.66429
0.377864 0.488894 1.66778
0.477574 0.495128 1.67544
0.232445 0.524092 1.66133
0.444062 0.547341 1.67055
0.700956 0.527675 1.67654
0.280866 0.566286 1.68299
0.551882 0.597137 1.69611
0.315563 0.229712 1.71534
0.480022 0.22512 1.6987
0.267343 0.284461 1.71099
0.472672 0.371696 1.70615
0.142292 0.405308 1.69596
0.292318 0.400849 1.70582
0.10269 0.478868 1.68849
0.645077 0.600285 1.7112
0.304858 0.694622 1.70767
0.100828 0.246005 1.72928
0.466895 0.299785 1.73702
0.383297 0.361785 1.72448
0.338206 0.47604 1.73085
0.405825 0.451952 1.72719
0.48089 0.527549 1.72688
0.334084 0.267131 1.75929
0.383935 0.304407 1.77193
0.189473 0.369831 1.78063
0.502353 0.387747 1.76784
0.238696 0.425254 1.75385
0.227735 0.245208 1.80261
0.479511 0.263195 1.82361
0.283481 0.328862 1.80514
0.104364 0.371175 1.79079
0.433942 0.344323 1.80653
0.124882 0.444445 1.80684
0.292698 0.428673 1.82145
0.367427 0.412219 1.81257
0.410316 0.229607 1.83436
0.436973 0.45447 1.85972
0.498994 0.449521 1.86067
0.387806 0.497135 1.8317
0.10683 0.52412 1.84136
0.307197 0.231054 1.88238
0.112238 0.243444 1.88656
0.338106 0.302046 1.88695
0.488965 0.329122 1.86503
0.26384 0.382845 1.88453
0.197767 0.505506 1.88308
0.498691 0.522189 1.86588
0.196779 0.286134 1.91902
0.144627 0.329159 1.8987
0.388723 0.350133 1.90903
0.179678 0.383211 1.93388
0.180002 0.445959 1.93062
0.336562 0.447813 1.91396
0.316599 0.507618 1.9223
0.498503 0.253983 1.95073
0.322732 0.35929 1.94113
0.404531 0.416433 1.93515
0.230608 0.478968 1.96239
0.133145 0.50156 1.94966
0.4192 0.521596 1.93742
0.299287 0.247375 1.98438
0.442411 0.236129 1.98758
0.126939 0.284236 1.99831
0.432796 0.302258 1.97367
0.187834 0.32549 2.00344
0.345572 0.308923 1.99385
0.476186 0.343657 1.98885
0.499396 0.409304 1.98009
0.282511 0.427246 2.0063
0.180798 0.510604 2.00546
0.383426 0.485675 1.99701
0.196226 0.26238 2.02342
0.356376 0.254196 2.02585
0.256147 0.321804 2.01654
0.110703 0.374435 2.01905
0.415762 0.389621 2.02653
0.214879 0.429082 2.03944
0.107302 0.455042 2.02377
0.49838 0.508374 2.03101
0.271982 0.260644 2.0608
0.321856 0.294278 2.05913
0.44222 0.295647 2.05067
0.125428 0.344451 2.07441
0.346145 0.350757 2.05426
0.415188 0.353574 2.07906
0.282424 0.374546 2.06858
0.475094 0.383761 2.04966
0.323589 0.424937 2.0771
0.466199 0.451954 2.05462
0.104255 0.515661 2.06241
0.236464 0.494005 2.05237
0.430217 0.500721 2.05499
0.339305 0.526873 2.04754
0.103324 0.228818 2.08871
0.161403 0.258279 2.08827
0.363615 0.240431 2.09399
0.425069 0.242959 2.09512
0.499192 0.246026 2.09267
0.189012 0.364304 2.08306
0.31493 0.348737 2.11385
0.115455 0.44409 2.0845
0.40415 0.414672 2.09454
0.158807 0.499296 2.10065
0.370433 0.49856 2.09148
0.264146 0.523422 2.09795
0.220666 0.238837 2.13734
0.17717 0.298235 2.1492
0.257372 0.298287 2.12437
0.314466 0.284399 2.14272
0.492483 0.279077 2.1444
0.417494 0.317622 2.14147
0.484684 0.362834 2.12124
0.125062 0.39201 2.12589
0.217234 0.387064 2.13563
0.449749 0.403068 2.14884
0.263093 0.452487 2.14205
0.417911 0.469013 2.13692
0.486571 0.452792 2.14556
0.220758 0.508511 2.14861
0.312076 0.491969 2.1476
0.490194 0.521396 2.15111
0.393674 0.233628 2.15132
0.107591 0.339963 2.15367
0.385775 0.387923 2.15657
0.139724 0.459766 2.15164
VERTICES 351 702
1 0
1 1
1 2
1 3
1 4
1 5
1 6
1 7
1 8
1 9
1 10
1 11
1 12
1 13
1 14
1 15
1 16
1 17
1 18
1 19
1 20
1 21
1 22
1 23
1 24
1 25
1 26
1 27
1 28
1 29
1 30
1 31
1 32
1 33
1 34
1 35
1 36
1 37
1 38
1 39
1 40
1 41
1 42
1 43
1 44
1 45
1 46
1 47
1 48
1 49
1 50
1 51
1 52
1 53
1 54
1 55
1 56
1 57
1 58
1 59
1 60
1 61
1 62
1 63
1 64
1 65
1 66
1 67
1 68
1 69
1 70
1 71
1 72
1 73
1 74
1 75
1 76
1 77
1 78
1 79
1 80
1 81
1 82
1 83
1 84
1 85
1 86
1 87
1 88
1 89
1 90
1 91
1 92
1 93
1 94
1 95
1 96
1 97
1 98
1 99
1 100
1 101
1 102
1 103
1 104
1 105
1 106
1 107
1 108
1 109
1 110
1 111
1 112
1 113
1 114
1 115
1 116
1 117
1 118
1 119
1 120
1 121
1 122
1 123
1 124
1 125
1 126
1 127
1 128
1 129
1 130
1 131
1 132
1 133
1 134
1 135
1 136
1 137
1 138
1 139
1 140
1 141
1 142
1 143
1 144
1 145
1 146
1 147
1 148
1 149
1 150
1 151
1 152
1 153
1 154
1 155
1 156
1 157
1 158
1 159
1 160
1 161
1 162
1 163
1 164
1 165
1 166
1 167
1 168
1 169
1 170
1 171
1 172
1 173
1 174
1 175
1 176
1 177
1 178
1 179
1 180
1 181
1 182
1 183
1 184
1 185
1 186
1 187
1 188
1 189
1 190
1 191
1 192
1 193
1 194
1 195
1 196
1 197
1 198
1 199
1 200
1 201
1 202
1 203
1 204
1 205
1 206
1 207
1 208
1 209
1 210
1 211
1 212
1 213
1 214
1 215
1 216
1 217
1 218
1 219
1 220
1 221
1 222
1 223
1 224
1 225
1 226
1 227
1 228
1 229
1 230
1 231
1 232
1 233
1 234
1 235
1 236
1 237
1 238
1 239
1 240
1 241
1 242
1 243
1 244
1 245
1 246
1 247
1 248
1 249
1 250
1 251
1 252
1 253
1 254
1 255
1 256
1 257
1 258
1 259
1 260
1 261
1 262
1 263
1 264
1 265
1 266
1 267
1 268
1 269
1 270
1 271
1 272
1 273
1 274
1 275
1 276
1 277
1 278
1 279
1 280
1 281
1 282
1 283
1 284
1 285
1 286
1 287
1 288
1 289
1 290
1 291
1 292
1 293
1 294
1 295
1 296
1 297
1 298
1 299
1 300
1 301
1 302
1 303
1 304
1 305
1 306
1 307
1 308
1 309
1 310
1 311
1 312
1 313
1 314
1 315
1 316
1 317
1 318
1 319
1 320
1 321
1 322
1 323
1 324
1 325
1 326
1 327
1 328
1 329
1 330
1 331
1 332
1 333
1 334
1 335
1 336
1 337
1 338
1 339
1 340
1 341
1 342
1 343
1 344
1 345
1 346
1 347
1 348
1 349
1 350
POINT_DATA 351
VECTORS i float
0.0 0.0 0.0
0.0 0.0 0.0
0.0 0.0 0.0
0.0 0.0 0.0
0.0 0.0 0.0
0.0 0.0 0.0
0.0 0.0 0.0
0.0 0.0 0.0
0.0 0.0 0.0
0.0 0.0 0.0
0.0 0.0 0.0
0.0 0.0 0.0
0.0 0.0 0.0
0.0 0.0 0.0
0.0 0.0 0.0
0.0 0.0 0.0
0.0 0.0 0.0
0.0 0.0 0.0
0.0 0.0 0.0
0.0 0.0 0.0
0.0 0.0 0.0
0.0 0.0 0.0
0.0 0.0 0.0
0.0 0.0 0.0
0.0 0.0 0.0
0.0 0.0 0.0
0.0 0.0 0.0
0.0 0.0 0.0
0.0 0.0 0.0
0.0 0.0 0.0
0.0 0.0 0.0
0.0 0.0 0.0
0.0 0.0 0.0
0.0 0.0 0.0
0.0 0.0 0.0
0.0 0.0 0.0
0.0 0.0 0.0
0.0 0.0 0.0
0.0 0.0 0.0
0.0 0.0 0.0
0.0 0.0 0.0
0.0 0.0 0.0
0.0 0.0 0.0
0.0 0.0 0.0
0.0 0.0 0.0
0.0 0.0 0.0
0.0 0.0 0.0
0.0 0.0 0.0
0.0 0.0 0.0
0.0 0.0 0.0
0.0 0.0 0.0
0.0 0.0 0.0
0.0 0.0 0.0
0.0 0.0 0.0
0.0 0.0 0.0
0.0 0.0 0.0
0.0 0.0 0.0
0.0 0.0 0.0
0.0 0.0 0.0
0.0 0.0 0.0
0.0 0.0 0.0
0.0 0.0 0.0
0.0 0.0 0.0
0.0 0.0 0.0
0.0 0.0 0.0
0.0 0.0 0.0
0.0 0.0 0.0
0.0 0.0 0.0
0.0 0.0 0.0
0.0 0.0 0.0
0.0 0.0 0.0
0.0 0.0 0.0
0.0 0.0 0.0
0.0 0.0 0.0
0.0 0.0 0.0
0.0 0.0 0.0
0.0 0.0 0.0
0.0 0.0 0.0
0.0 0.0 0.0
0.0 0.0 0.0
0.0 0.0 0.0
0.0 0.0 0.0
0.0 0.0 0.0
0.0 0.0 0.0
0.0 0.0 0.0
0.0 0.0 0.0
0.0 0.0 0.0
0.0 0.0 0.0
0.0 0.0 0.0
0.0 0.0 0.0
0.0 0.0 0.0
0.0 0.0 0.0
0.0 0.0 0.0
0.0 0.0 0.0
0.0 0.0 0.0
0.0 0.0 0.0
0.0 0.0 0.0
0.0 0.0 0.0
0.0 0.0 0.0
0.0 0.0 0.0
0.0 0.0 0.0
0.0 0.0 0.0
0.0 0.0 0.0
0.0 0.0 0.0
0.0 0.0 0.0
0.0 0.0 0.0
0.0 0.0 0.0
0.0 0.0 0.0
0.0 0.0 0.0
0.0 0.0 0.0
0.0 0.0 0.0
0.0 0.0 0.0
0.0 0.0 0.0
0.0 0.0 0.0
0.0 0.0 0.0
0.0 0.0 0.0
0.0 0.0 0.0
0.0 0.0 0.0
0.0 0.0 0.0
0.0 0.0 0.0
0.0 0.0 0.0
0.0 0.0 0.0
0.0 0.0 0.0
0.0 0.0 0.0
0.0 0.0 0.0
0.0 0.0 0.0
0.0 0.0 0.0
0.0 0.0 0.0
0.0 0.0 0.0
0.0 0.0 0.0
0.0 0.0 0.0
0.0 0.0 0.0
0.0 0.0 0.0
0.0 0.0 0.0
0.0 0.0 0.0
0.0 0.0 0.0
0.0 0.0 0.0
0.0 0.0 0.0
0.0 0.0 0.0
0.0 0.0 0.0
0.0 0.0 0.0
0.0 0.0 0.0
0.0 0.0 0.0
0.0 0.0 0.0
0.0 0.0 0.0
0.0 0.0 0.0
0.0 0.0 0.0
0.0 0.0 0.0
0.0 0.0 0.0
0.0 0.0 0.0
0.0 0.0 0.0
0.0 0.0 0.0
0.0 0.0 0.0
0.0 0.0 0.0
0.0 0.0 0.0
0.0 0.0 0.0
0.0 0.0 0.0
0.0 0.0 0.0
0.0 0.0 0.0
0.0 0.0 0.0
0.0 0.0 0.0
0.0 0.0 0.0
0.0 0.0 0.0
0.0 0.0 0.0
0.0 0.0 0.0
0.0 0.0 0.0
0.0 0.0 0.0
0.0 0.0 0.0
0.0 0.0 0.0
0.0 0.0 0.0
0.0 0.0 0.0
0.0 0.0 0.0
0.0 0.0 0.0
0.0 0.0 0.0
0.0 0.0 0.0
0.0 0.0 0.0
0.0 0.0 0.0
0.0 0.0 0.0
0.0 0.0 0.0
0.0 0.0 0.0
0.0 0.0 0.0
0.0 0.0 0.0
0.0 0.0 0.0
0.0 0.0 0.0
0.0 0.0 0.0
0.0 0.0 0.0
0.0 0.0 0.0
0.0 0.0 0.0
0.0 0.0 0.0
0.0 0.0 0.0
0.0 0.0 0.0
0.0 0.0 0.0
0.0 0.0 0.0
0.0 0.0 0.0
0.0 0.0 0.0
0.0 0.0 0.0
0.0 0.0 0.0
0.0 0.0 0.0
0.0 0.0 0.0
0.0 0.0 0.0
0.0 0.0 0.0
0.0 0.0 0.0
0.0 0.0 0.0
0.0 0.0 0.0
0.0 0.0 0.0
0.0 0.0 0.0
0.0 0.0 0.0
0.0 0.0 0.0
0.0 0.0 0.0
0.0 0.0 0.0
0.0 0.0 0.0
0.0 0.0 0.0
0.0 0.0 0.0
0.0 0.0 0.0
0.0 0.0 0.0
0.0 0.0 0.0
0.0 0.0 0.0
0.0 0.0 0.0
0.0 0.0 0.0
0.0 0.0 0.0
0.0 0.0 0.0
0.0 0.0 0.0
0.0 0.0 0.0
0.0 0.0 0.0
0.0 0.0 0.0
0.0 0.0 0.0
0.0 0.0 0.0
0.0 0.0 0.0
0.0 0.0 0.0
0.0 0.0 0.0
0.0 0.0 0.0
0.0 0.0 0.0
0.0 0.0 0.0
0.0 0.0 0.0
0.0 0.0 0.0
0.0 0.0 0.0
0.0 0.0 0.0
0.0 0.0 0.0
0.0 0.0 0.0
0.0 0.0 0.0
0.0 0.0 0.0
0.0 0.0 0.0
0.0 0.0 0.0
0.0 0.0 0.0
0.0 0.0 0.0
0.0 0.0 0.0
0.0 0.0 0.0
0.0 0.0 0.0
0.0 0.0 0.0
0.0 0.0 0.0
0.0 0.0 0.0
0.0 0.0 0.0
0.0 0.0 0.0
0.0 0.0 0.0
0.0 0.0 0.0
0.0 0.0 0.0
0.0 0.0 0.0
0.0 0.0 0.0
0.0 0.0 0.0
0.0 0.0 0.0
0.0 0.0 0.0
0.0 0.0 0.0
0.0 0.0 0.0
0.0 0.0 0.0
0.0 0.0 0.0
0.0 0.0 0.0
0.0 0.0 0.0
0.0 0.0 0.0
0.0 0.0 0.0
0.0 0.0 0.0
0.0 0.0 0.0
0.0 0.0 0.0
0.0 0.0 0.0
0.0 0.0 0.0
0.0 0.0 0.0
0.0 0.0 0.0
0.0 0.0 0.0
0.0 0.0 0.0
0.0 0.0 0.0
0.0 0.0 0.0
0.0 0.0 0.0
0.0 0.0 0.0
0.0 0.0 0.0
0.0 0.0 0.0
0.0 0.0 0.0
0.0 0.0 0.0
0.0 0.0 0.0
0.0 0.0 0.0
0.0 0.0 0.0
0.0 0.0 0.0
0.0 0.0 0.0
0.0 0.0 0.0
0.0 0.0 0.0
0.0 0.0 0.0
0.0 0.0 0.0
0.0 0.0 0.0
0.0 0.0 0.0
0.0 0.0 0.0
0.0 0.0 0.0
0.0 0.0 0.0
0.0 0.0 0.0
0.0 0.0 0.0
0.0 0.0 0.0
0.0 0.0 0.0
0.0 0.0 0.0
0.0 0.0 0.0
0.0 0.0 0.0
0.0 0.0 0.0
0.0 0.0 0.0
0.0 0.0 0.0
0.0 0.0 0.0
0.0 0.0 0.0
0.0 0.0 0.0
0.0 0.0 0.0
0.0 0.0 0.0
0.0 0.0 0.0
0.0 0.0 0.0
0.0 0.0 0.0
0.0 0.0 0.0
0.0 0.0 0.0
0.0 0.0 0.0
0.0 0.0 0.0
0.0 0.0 0.0
0.0 0.0 0.0
0.0 0.0 0.0
0.0 0.0 0.0
0.0 0.0 0.0
0.0 0.0 0.0
0.0 0.0 0.0
0.0 0.0 0.0
0.0 0.0 0.0
0.0 0.0 0.0
0.0 0.0 0.0
0.0 0.0 0.0
0.0 0.0 0.0
0.0 0.0 0.0
0.0 0.0 0.0
0.0 0.0 0.0
0.0 0.0 0.0
0.0 0.0 0.0
0.0 0.0 0.0
0.0 0.0 0.0
0.0 0.0 0.0
0.0 0.0 0.0
0.0 0.0 0.0
0.0 0.0 0.0
0.0 0.0 0.0
0.0 0.0 0.0
0.0 0.0 0.0
0.0 0.0 0.0
0.0 0.0 0.0
VECTORS f float
-0.930751 -0.152023 3.52492
0.0 0.0 -2.77371
-3.29579 5.58324 2.88994
-3.26961 5.91611 0.278933
0.0983721 0.38073 -1.65761
-7.03098 5.41458 5.21
2.03168 -0.712108 2.76389
1.24667 0.222774 -2.14435
0.0891235 0.506291 -1.27072
-0.500062 0.235753 -0.30106
3.31567e-08 -8.29611e-10 1.36661e-07
-0.00239004 0.978908 -1.00124
3.23909 -17.8429 14.1109
0.0208918 -0.0029761 0.696184
-0.128935 -0.031852 0.625675
9.83465 8.00928 7.63909
5.15412 1.71903 8.09274
1.20382 -0.700356 -0.0616461
-0.0032077 0.000124503 0.23736
-7.90375e-07 9.31827e-08 -1.22431e-05
-8.86656e-06 2.02747e-06 0.000141635
0.0 0.0 -2.77371
-12.7708 -0.436374 47.2916
0.605713 -1.22532 -8.26435
0.0579001 -0.0123484 -0.102283
0.657598 -1.01486 -0.355141
0.105954 -0.00549728 3.14117
0.0 0.0 -2.77371
1.93845e-05 -8.92801e-07 -0.00458507
4.77166e-05 -5.40252e-07 0.00129483
0.0751198 -0.0777793 0.00793696
1.03507e-05 -3.76499e-06 -0.000215014
-1.61488 9.83231 0.284986
-0.140527 0.0623791 -2.76808
0.195865 -0.0372524 -2.65779
4.46538 -0.67733 -17.194
0.0 0.0 -2.77371
-0.000736018 -0.000195686 0.132254
0.0806234 0.00234665 -0.0034318
0.709333 0.132376 -0.0370931
3.79588 -1.58091 -0.77056
-0.00737508 0.00130699 0.407792
3.70951 -1.65471 -12.8968
-12.7786 16.2799 -6.41279
0.0 0.0 -2.77371
-0.0168966 0.949638 -0.319287
1.78919 -0.759343 2.82202
3.25179 -11.9497 -15.4538
0.0339912 -0.000584775 -0.704455
0.839106 -0.129509 0.00227095
0.735717 -0.0616188 -0.00979755
8.49328e-06 -2.64391e-06 -0.000115366
-7.20769e-08 2.03702e-08 4.78055e-09
9.92748 -4.87217 74.2754
0.0 0.0 -2.77371
-1.9691 -24.3018 -40.2635
-0.000354016 0.000804418 -0.017975
-0.123606 -0.0140006 -1.70443
0.0 0.0 -2.77371
-0.000348713 3.56564e-06 -0.139303
3.3179e-06 2.83683e-07 -0.000224191
-0.000166407 4.34595e-05 -0.00468509
2.54277e-07 -1.09155e-07 3.70046e-05
1.55809 -1.37802 -2.94179
0.0 0.0 -2.77371
0.0 0.0 -2.77371
-0.171071 -0.672394 23.7802
0.658697 3.23663 10.871
0.00449199 -0.000134971 0.0412562
-0.292206 -0.804102 2.08444
-1.20658e-06 1.74406e-07 -0.000102089
-1.60658e-06 2.08079e-07 0.000110713
0.695881 -1.24072 0.0713832
-1.4139 0.186316 -10.327
0.0285775 0.00166336 -2.83096
0.0 0.0 -2.77371
1.68047 -3.24377 6.49021
-0.000466728 4.66888e-05 0.108403
0.0181689 -2.17229 -2.6063
-2.45231 -5.29305 -4.68305
-1.8505 1.7244 2.28511
-8.12662 -4.89019 -6.72328
0.586128 0.00321157 2.04822
0.313202 0.264351 -2.26521
0.0529692 0.00633798 -0.21728
-2.1585 -1.15761 -2.62457
3.15439 0.614278 7.32767
-0.0696928 -0.219186 0.0179944
-5.84712 0.206436 -0.905741
0.0 0.0 -2.77371
0.0813641 -0.0742644 -1.27947
0.37742 -0.95378 -0.0964083
0.00978232 0.000498895 -0.287586
0.0 0.0 -2.77371
-0.144396 -0.0610857 -4.21813
0.0 0.0 -2.77371
0.0 0.0 -2.77371
-10.4975 -8.35524 -4.94268
0.0 0.0 -2.77371
-0.00844475 0.00103926 -0.10133
0.883406 0.277129 0.0102229
1.26199 2.66131 3.11703
5.29124 3.18686 4.97222
2.45231 5.29305 -0.864372
-0.0941886 0.0902712 -0.676685
1.55679 1.06056 18.8396
0.000104282 -1.99021e-06 0.00581877
-1.10582e-05 -2.29621e-06 0.000196655
-0.00244104 0.00132381 0.172302
-14.6823 3.2816 28.0398
0.0 0.0 -2.77371
-0.00756626 -0.00191888 -0.330664
0.188003 -1.85621 0.957708
-9.30916e-06 -1.59127e-06 0.00741383
0.0 0.0 -2.77371
0.0 0.0 -2.77371
0.0157324 0.000925114 0.268794
13.9316 29.3867 -86.6239
-0.0142732 -0.000421456 -0.342764
8.63347 9.44882 -4.29626
-0.764191 -2.17047 3.4548
-7.07476e-05 -0.831874 -1.11088
-2.19899 -0.979484 14.9892
9.8011 1.67741 1.05145
-0.41901 -0.813541 -0.129036
-0.493716 -1.14952 0.0305978
0.0667873 -0.697747 -1.88524
2.14647e-08 -4.02e-10 6.85315e-07
-4.08041e-05 -1.09338e-06 0.00137553
-0.202455 0.0959454 -0.150148
5.69244 -0.6073 -1.80192
10.6264 3.21265 7.50458
0.0 0.0 -2.77371
5.00263 -0.639297 7.02946
-0.0572992 -0.901079 0.358514
-0.155976 -0.266864 -3.46694
2.15799 1.99115 8.57684
0.0 0.0 -2.77371
12.547 -2.01943 -70.5091
0.0 0.0 -2.77371
0.590203 -3.32268 -4.58983
0.0 0.0 -2.77371
-2.44636 -10.0771 42.0547
0.0 0.0 -2.77371
-0.210087 0.223636 -0.13201
0.0 0.0 -2.77371
-2.28472 12.4558 13.9943
-1.55809 1.37802 -2.60564
33.8642 -9.66409 54.3046
0.0 0.0 -2.77371
0.0 0.0 -2.77371
1.20321 -1.33773 8.61453
0.566454 0.0439042 8.37372
0.0 0.0 -2.77371
-0.801228 3.27104 -3.60922
-4.49544 -2.57234 -0.420902
5.26707 -7.46505 12.9336
21.7769 -21.2572 31.5739
4.37418 -4.93468 -4.9694
0.122365 0.361352 -2.39844
11.7122 7.26399 4.38547
0.0 0.0 -2.77371
-66.8215 12.9897 -74.9879
3.37672 -4.73911 4.66623
0.0 0.0 -2.77371
0.0 0.0 -2.77371
0.670533 1.95031 2.99976
0.0 0.0 -2.77371
-0.283494 -0.368793 -0.504444
0.0 0.0 -2.77371
0.0 0.0 -2.77371
-0.0110922 -0.0734549 -2.55504
2.4928 0.585913 1.37417
0.482275 -0.648227 -0.859559
0.748995 -5.42547 4.3669
4.6036 -0.231912 0.44982
0.0 0.0 -2.77371
2.33712e-05 -0.989544 -0.988055
-0.409544 -1.79676 -2.67679
4.93641 -4.38855 5.52984
2.45198 5.15275 11.3971
0.0 0.0 -2.77371
-3.53703 6.34143 -0.318502
0.0 0.0 -2.77371
2.24517 0.611565 -2.87709
-13.4565 -10.225 2.82998
0.0 0.0 -2.77371
0.0 0.0 -2.77371
18.7633 -17.9681 0.886429
-0.567174 1.65561 8.3672
4.94397 7.57027 -5.82633
-8.04345 8.96338 -0.993943
0.0 0.0 -2.77371
-4.94397 -7.57027 0.278908
0.0 0.0 -2.77371
-0.590203 3.32268 -0.957594
0.0 0.0 -2.77371
0.0 0.0 -2.77371
0.801228 -3.27104 -1.9382
-1.33716 1.32029 -1.73445
-22.5023 -20.6604 -46.9614
0.0 0.0 -2.77371
4.00969 -2.25956 -5.76229
0.0 0.0 -2.77371
0.0 0.0 -2.77371
0.0 0.0 -2.77371
-72.0737 -27.8451 -55.0149
1.96461 6.90851 2.97242
0.0 0.0 -2.77371
-6.17117 -29.9731 85.572
0.0 0.0 -2.77371
0.0 0.0 -2.77371
0.0 0.0 -2.77371
-0.767956 -0.602268 0.114227
0.0 0.0 -2.77371
0.0 0.0 -2.77371
0.0 0.0 -2.77371
14.7942 16.238 -6.03901
-12.547 2.01943 64.9617
0.0 0.0 -2.77371
0.0 0.0 -2.77371
7.44827 6.94097 33.854
0.0 0.0 -2.77371
-40.0181 -51.859 -96.8279
22.5023 20.6604 41.414
73.4177 -26.0047 50.8338
0.0 0.0 -2.77371
72.0737 27.8451 49.4675
-6.5962 13.015 15.833
0.0 0.0 -2.77371
0.0 0.0 -2.77371
0.0 0.0 -2.77371
0.0 0.0 -2.77371
0.0 0.0 -2.77371
0.0 0.0 -2.77371
0.0 0.0 -2.77371
0.0 0.0 -2.77371
0.0 0.0 -2.77371
0.0955698 0.51725 -3.27805
0.0 0.0 -2.77371
0.0 0.0 -2.77371
0.0 0.0 -2.77371
0.0 0.0 -2.77371
0.0 0.0 -2.77371
0.0 0.0 -2.77371
0.0 0.0 -2.77371
40.0181 51.859 91.2805
0.0 0.0 -2.77371
0.0 0.0 -2.77371
0.0 0.0 -2.77371
0.0 0.0 -2.77371
0.0 0.0 -2.77371
0.0 0.0 -2.77371
0.0 0.0 -2.77371
0.0 0.0 -2.77371
0.0 0.0 -2.77371
0.0 0.0 -2.77371
0.0 0.0 -2.77371
0.0 0.0 -2.77371
0.0 0.0 -2.77371
0.0 0.0 -2.77371
0.0 0.0 -2.77371
0.0 0.0 -2.77371
0.0 0.0 -2.77371
0.0 0.0 -2.77371
0.0 0.0 -2.77371
0.0 0.0 -2.77371
0.0 0.0 -2.77371
0.0 0.0 -2.77371
0.0 0.0 -2.77371
0.0 0.0 -2.77371
0.0 0.0 -2.77371
0.0 0.0 -2.77371
0.0 0.0 -2.77371
0.0 0.0 -2.77371
0.0 0.0 -2.77371
0.0 0.0 -2.77371
0.0 0.0 -2.77371
0.0 0.0 -2.77371
0.0 0.0 -2.77371
0.0 0.0 -2.77371
0.0 0.0 -2.77371
0.0 0.0 -2.77371
0.0 0.0 -2.77371
0.0 0.0 -2.77371
0.0 0.0 -2.77371
0.0 0.0 -2.77371
0.0 0.0 -2.77371
0.0 0.0 -2.77371
0.0 0.0 -2.77371
0.0 0.0 -2.77371
0.0 0.0 -2.77371
0.0 0.0 -2.77371
0.0 0.0 -2.77371
0.0 0.0 -2.77371
0.0 0.0 -2.77371
0.0 0.0 -2.77371
0.0 0.0 -2.77371
0.0 0.0 -2.77371
0.0 0.0 -2.77371
0.0 0.0 -2.77371
0.0 0.0 -2.77371
0.0 0.0 -2.77371
0.0 0.0 -2.77371
0.0 0.0 -2.77371
0.0 0.0 0.0
0.0 0.0 0.0
0.0 0.0 0.0
0.0 0.0 0.0
0.0 0.0 0.0
0.0 0.0 0.0
0.0 0.0 0.0
0.0 0.0 0.0
0.0 0.0 0.0
0.0 0.0 0.0
0.0 0.0 0.0
0.0 0.0 0.0
0.0 0.0 0.0
0.0 0.0 0.0
0.0 0.0 0.0
0.0 0.0 0.0
0.0 0.0 0.0
0.0 0.0 0.0
0.0 0.0 0.0
0.0 0.0 0.0
0.0 0.0 0.0
0.0 0.0 0.0
0.0 0.0 0.0
0.0 0.0 0.0
0.0 0.0 0.0
0.0 0.0 0.0
0.0 0.0 0.0
0.0 0.0 0.0
0.0 0.0 0.0
0.0 0.0 0.0
0.0 0.0 0.0
0.0 0.0 0.0
0.0 0.0 0.0
0.0 0.0 0.0
0.0 0.0 0.0
0.0 0.0 0.0
0.0 0.0 0.0
0.0 0.0 0.0
0.0 0.0 0.0
0.0 0.0 0.0
0.0 0.0 0.0
0.0 0.0 0.0
0.0 0.0 0.0
0.0 0.0 0.0
0.0 0.0 0.0
0.0 0.0 0.0
VECTORS omega float
7.38052 -107.282 45.0571
2.7575 -106.295 16.9162
13.7253 -106.192 1.83283
-4.13705 -51.2224 50.2589
17.2004 -35.5201 31.2867
-5.16794 -50.7408 17.5909
-0.401537 -45.5023 19.2344
-0.533821 -42.8775 3.50159
-4.4719 -17.3857 34.5114
2.79485 -52.9166 -4.02024
-1.42375 -56.9028 7.78044
-5.33934 -47.0855 12.6055
1.04718 -34.5413 16.0302
-12.4203 -74.8847 12.2934
3.15539 -65.7998 -7.69024
-7.46156 -53.5525 -15.8229
-2.99563 -44.2211 7.18334
-2.33445 -13.5877 -11.2429
-1.8556 -47.9001 25.9073
-5.62552 -47.7156 12.0898
-7.23542 -31.6382 16.3138
-3.82789 -102.812 -20.2925
-5.62387 -83.7025 -7.68454
6.49093 -67.0083 -17.7448
7.29346 -70.3514 0.0915896
-0.124253 -63.5523 -5.81042
-0.67113 -50.9265 -10.1374
-8.91108 -48.9412 -1.19935
-2.2439 -48.5048 -0.84359
-0.58241 -51.4397 2.31498
-2.07845 -33.7725 -0.64083
-11.8635 -32.6118 -4.39747
9.99965 -40.4853 6.89847
-6.00771 -69.5609 11.0909
6.41259 -72.0017 -3.97452
8.77128 -68.4055 -6.58055
-1.09719 -56.1378 -17.3524
1.22885 -51.7001 7.25046
1.39384 -63.6381 -20.3179
-3.41765 -34.1694 5.41848
-3.10965 -46.0562 10.3298
0.598159 -40.2708 -11.0398
-7.83344 -87.8617 -3.6733
7.61828 79.6084 -4.73018
-2.02631 -64.1694 -27.4781
-3.60953 -47.7116 -3.60188
0.237993 -47.3678 -1.65742
2.17027 -32.8232 10.3578
-9.0897 -33.181 -6.50566
-3.29912 -25.1073 10.3564
-8.70154 -26.3522 -3.08884
-12.8279 -41.2054 -0.699319
-12.9402 -45.787 -21.4965
5.46298 -75.6282 -4.76437
-23.3448 -88.3402 -13.3543
18.8444 -56.0616 -4.79788
-0.847169 -54.6593 15.3641
7.17306 -62.4505 -1.45096
2.37767 -54.8327 -5.34888
-3.55644 -55.8145 3.89018
4.60709 -53.8817 -1.02484
-11.1655 -42.7602 3.81202
-21.1807 -49.3404 13.4693
17.3857 -98.5819 14.8897
-15.5744 7.52062 15.4081
18.0278 -13.7171 -11.1219
-2.10702 -59.6639 -13.985
-8.29102 -60.1238 -9.67893
-1.68199 -51.3083 7.30971
-1.9639 -4.84174 13.3315
-7.15534 -49.5036 -0.0671464
-5.40983 -41.7693 -1.68449
48.1393 -88.6235 -7.69151
-1.92404 -103.819 -5.32717
-17.8285 37.1839 -8.23768
-6.29331 -80.1235 -3.43767
-0.702228 -57.0448 8.53798
-3.88732 -56.5339 -4.99873
-1.21479 -48.1389 3.69016
-5.90863 -57.6677 -5.55973
1.53772 -60.0542 -10.7175
-2.1338 -40.4251 -2.69377
4.11772 -43.3263 -5.65134
-11.7236 -37.1294 0.669139
-4.23982 -42.1501 -4.0245
-9.86731 61.068 -2.15101
5.27854 8.66808 12.1482
5.70394 -60.9118 6.23814
3.84895 -41.138 -10.1
21.7891 31.0995 3.23899
3.51728 -47.5905 3.49823
-2.27907 -51.5621 -9.42945
2.28629 -44.7263 -11.3294
-3.67901 -31.6943 12.5031
12.7016 -26.5481 1.87309
-17.9341 -95.338 22.6334
-8.00792 -65.5572 17.508
-21.6389 14.9582 -17.2569
-12.984 -63.3756 30.6412
-7.06483 -59.5458 -6.10355
-3.00754 -51.2316 -0.634661
-2.0368 -67.1426 -0.655792
6.51693 -54.3346 20.9288
-1.07895 -65.5419 7.51392
3.73938 -50.2867 3.98285
6.36715 -37.2716 22.1787
-0.915185 -47.8955 7.03729
9.73156 -46.8658 -12.2573
6.46623 -26.4263 -3.06119
-14.244 -71.6538 -9.41138
-0.721945 -56.9154 0.313911
12.1491 -48.4428 -37.3327
2.52651 -39.5462 -14.2234
1.73726 -32.9999 12.2029
17.1715 -3.71934 10.6634
-1.2666 -12.4742 6.51084
7.20341 -122.624 -15.6854
-9.51242 -97.1027 -8.02782
1.82482 -69.3473 -29.6528
-20.2131 -55.757 12.6874
-7.14987 -63.9729 -5.40563
1.00649 -92.6794 4.12326
3.64859 -50.993 -12.8765
15.932 -40.4097 -14.3245
4.68217 -55.354 -24.9216
5.52209 -53.6965 -17.1332
2.9847 -60.9459 -11.2718
-0.902351 -48.1805 -24.6067
1.13085 -42.7827 -10.9011
4.9184 -21.0525 -22.7706
16.901 -24.9304 79.3075
18.1551 23.5961 -26.4778
19.1654 -48.296 29.6599
42.5815 -20.2756 19.7089
-2.14559 -48.7194 51.745
-4.55575 -14.8695 49.5194
9.5279 75.9192 -15.4576
-36.7399 52.1372 6.61874
13.9341 -2.57673 -10.5742
32.0904 17.7947 -9.15191
-17.4257 25.2058 3.45039
19.5915 8.71939 -9.35243
1.62583 -12.6701 -4.5691
-0.0479203 51.1315 19.2426
2.79151 62.735 -3.85247
12.5975 46.1335 -1.4726
-20.6683 12.529 4.53912
42.199 -1.92206 -19.4656
13.4608 51.6737 13.7818
64.2675 0.34886 -9.53352
-18.0023 -2.25344 -2.03101
13.7863 22.6244 1.29385
31.4855 44.0323 20.0948
-21.9829 41.8924 -4.47488
10.057 0.527716 -12.1532
0.695384 18.1807 -5.82841
14.8322 -19.9775 -14.5701
1.18409 23.4028 12.5277
5.10154 -8.61762 -15.9459
14.3515 44.1061 -11.1053
7.25534 42.8673 12.0325
-10.9798 30.4883 6.81482
5.93556 56.7517 15.284
30.002 8.33432 -1.73454
13.1289 31.0248 4.82269
-54.4663 5.1234 1.99048
-10.1699 35.9708 2.34931
4.02681 62.3952 -10.8576
0.0967788 50.6887 -1.75754
-8.31205 47.6484 -1.00529
-17.8219 -70.9369 -44.5524
-3.82761 -93.7681 -5.41938
0.364722 -41.7477 -33.8036
5.46983 -52.4556 -40.2217
0.43422 41.2028 5.79612
21.0742 -51.7882 -22.4094
-21.2088 -18.5111 -42.3216
7.79065 -62.4158 -19.1296
-5.89231 -48.6135 59.4751
13.9674 -5.54367 50.7081
-6.38751 -56.9794 21.6853
35.0331 28.8311 -15.8942
-1.28335 24.2646 -13.9789
15.533 47.6505 -11.8135
45.6578 2.80306 -1.99327
-30.618 47.6436 19.9544
4.47446 5.14366 10.1404
12.2228 -15.9599 -2.93328
-19.2067 -4.84097 11.5095
-12.6844 9.68721 18.8701
-0.457795 -50.6486 11.4805
26.1039 -22.8815 -12.121
3.10252 38.6065 -4.778
19.6003 29.4958 10.358
-12.0047 19.6049 11.625
3.0019 29.2053 5.25947
4.17595 -18.3912 4.25768
18.8002 79.424 35.4142
8.7998 -1.88031 -10.4648
8.64952 -32.1244 -1.29916
-9.42832 -3.65114 1.63576
14.3488 37.9068 19.0933
-3.69478 -23.701 -1.3518
3.29131 36.5695 -10.5942
-6.13651 -69.7324 -16.7356
0.708358 31.5269 -14.5002
3.62626 17.3223 18.8105
-25.2077 -2.95814 12.4761
39.3928 40.5261 -20.3942
11.6035 17.8947 -3.43255
30.3487 14.419 -2.11543
6.33764 1.23837 12.8979
-12.2244 23.0268 -5.41951
14.4155 -4.54578 48.4572
-15.3976 -91.739 -43.2868
-12.0056 14.9585 -39.0896
-12.7795 40.4978 -19.4726
-4.25728 -29.3681 6.63127
-36.9878 -6.57301 -8.2636
-46.7161 -41.2409 21.7677
6.43279 10.4867 12.3586
-17.1265 13.0699 6.26346
-23.2763 -43.1838 5.95552
-30.5681 7.81617 16.0187
3.26142 8.8948 -12.2965
-0.219217 -15.5337 -2.63231
-17.743 5.31785 14.3567
13.9583 34.3013 1.68547
-56.3437 -14.703 21.9607
-25.7088 -22.3176 -18.9959
-18.896 16.9415 10.9234
5.86647 44.3142 14.2291
21.6242 -2.86575 38.2443
3.817 -48.9044 -7.23095
11.8778 -14.9316 -2.50997
-19.8496 -4.9936 -4.84396
18.8613 10.3901 -1.94281
0.0 0.0 0.0
-12.3397 -4.1584 0.101176
0.0 0.0 0.0
9.59834 70.3093 5.44313
-14.6984 15.9998 -28.3294
0.0 0.0 0.0
30.2807 -7.08844 1.33819
0.0 0.0 0.0
0.0 0.0 0.0
-7.21931 -1.77308 4.06323
-17.6071 -18.4391 10.802
0.0 0.0 0.0
0.0 0.0 0.0
0.0 0.0 0.0
-10.4262 8.60194 -0.139025
0.0 0.0 0.0
0.0 0.0 0.0
0.0 0.0 0.0
0.0 0.0 0.0
0.0 0.0 0.0
0.0 0.0 0.0
0.0 0.0 0.0
0.0 0.0 0.0
0.0 0.0 0.0
0.0 0.0 0.0
0.0 0.0 0.0
0.0 0.0 0.0
0.0 0.0 0.0
0.0 0.0 0.0
0.0 0.0 0.0
0.0 0.0 0.0
0.0 0.0 0.0
0.0 0.0 0.0
0.0 0.0 0.0
0.0 0.0 0.0
0.0 0.0 0.0
0.0 0.0 0.0
0.0 0.0 0.0
0.0 0.0 0.0
0.0 0.0 0.0
0.0 0.0 0.0
0.0 0.0 0.0
0.0 0.0 0.0
0.0 0.0 0.0
0.0 0.0 0.0
0.0 0.0 0.0
0.0 0.0 0.0
0.0 0.0 0.0
0.0 0.0 0.0
0.0 0.0 0.0
0.0 0.0 0.0
0.0 0.0 0.0
0.0 0.0 0.0
0.0 0.0 0.0
0.0 0.0 0.0
0.0 0.0 0.0
0.0 0.0 0.0
0.0 0.0 0.0
0.0 0.0 0.0
0.0 0.0 0.0
0.0 0.0 0.0
0.0 0.0 0.0
0.0 0.0 0.0
0.0 0.0 0.0
0.0 0.0 0.0
0.0 0.0 0.0