# vtk DataFile Version 2.0
Generated by lpp.py
ASCII
DATASET POLYDATA
POINTS 176 float
0.227244 0.182629 1.58073
0.31517 0.178898 1.58035
0.449123 0.191574 1.58212
0.591544 0.186991 1.57688
0.15364 0.219215 1.58959
0.389477 0.206729 1.57838
0.70332 0.215222 1.57592
0.762183 0.211332 1.58155
0.21466 0.263457 1.58328
0.280551 0.244692 1.57698
0.512792 0.249029 1.57654
0.60729 0.255858 1.57634
0.364883 0.278286 1.57679
0.462262 0.280176 1.5791
0.709311 0.282259 1.57687
0.79875 0.278418 1.57686
0.52658 0.334829 1.57767
0.616927 0.333727 1.57701
0.147592 0.36524 1.59364
0.220986 0.337293 1.5971
0.317774 0.352701 1.58167
0.418462 0.366273 1.5778
0.278005 0.397325 1.57637
0.365305 0.395481 1.57596
0.593341 0.404307 1.59073
0.656326 0.390792 1.58684
0.174268 0.418366 1.58808
0.439153 0.43262 1.57605
0.827189 0.428071 1.57687
0.133459 0.460481 1.59201
0.264207 0.461147 1.58294
0.505258 0.475175 1.57593
0.654557 0.459926 1.57785
0.715278 0.48186 1.5768
0.439709 0.491521 1.58017
0.855125 0.516059 1.57686
0.018996 0.520226 1.57845
0.241034 0.521288 1.57619
0.322492 0.52177 1.59727
0.493807 0.533529 1.57655
0.687138 0.546138 1.58005
0.426267 0.580303 1.58943
0.568274 0.57613 1.5854
0.374218 0.156297 1.6056
0.473665 0.137548 1.63082
0.664131 0.159531 1.60395
0.544948 0.21539 1.61181
0.342661 0.251852 1.62593
0.684957 0.23781 1.63368
0.163652 0.285459 1.61135
0.613191 0.291305 1.62362
0.433948 0.330635 1.62458
0.554083 0.29794 1.61906
0.386024 0.399493 1.63109
0.44082 0.42238 1.63626
0.301606 0.475042 1.62824
0.368537 0.452676 1.59278
0.500316 0.455497 1.63136
0.531004 0.523067 1.63041
0.61883 0.554351 1.62259
0.460073 0.216627 1.64048
0.108545 0.262251 1.62653
0.130606 0.344281 1.64612
0.320042 0.345392 1.64351
0.192014 0.380077 1.62874
0.475866 0.373987 1.63185
0.221218 0.441905 1.62853
0.76295 0.43964 1.66619
0.697713 0.478449 1.63407
0.10161 0.511094 1.64328
0.236812 0.499869 1.63254
0.359708 0.510056 1.68392
0.437785 0.513103 1.63748
0.448633 0.61008 1.65859
0.218269 0.254539 1.66167
0.438505 0.247387 1.68311
0.250163 0.326958 1.65749
0.43518 0.315663 1.68154
0.378714 0.362244 1.67956
0.238052 0.386505 1.66717
0.499732 0.391326 1.68214
0.108382 0.420889 1.67011
0.174039 0.429432 1.66746
0.293282 0.433421 1.67491
0.668736 0.414312 1.68597
0.51454 0.453687 1.68935
0.183364 0.495688 1.66455
0.408064 0.590541 1.70442
0.377994 0.24098 1.70115
0.235664 0.309252 1.7263
0.368368 0.310122 1.7022
0.48718 0.312637 1.70453
0.431575 0.496636 1.70004
0.48903 0.510149 1.68499
0.438372 0.392123 1.74887
0.290891 0.301706 1.77579
0.181029 0.318367 1.77994
0.41904 0.310566 1.78624
0.278223 0.363632 1.78802
0.353388 0.44487 1.75753
0.419456 0.449551 1.78054
0.307792 0.495572 1.76047
0.254767 0.230824 1.80262
0.495956 0.249499 1.82303
0.155769 0.403018 1.79432
0.240863 0.437556 1.81183
0.218974 0.524143 1.79366
0.178322 0.227864 1.85915
0.408343 0.240904 1.84405
0.355542 0.30862 1.85145
0.499251 0.382901 1.85437
0.161462 0.479607 1.86106
0.476719 0.464357 1.83851
0.105277 0.51875 1.85303
0.423627 0.520356 1.84181
0.150682 0.290471 1.88007
0.118071 0.372478 1.87779
0.216306 0.357237 1.87551
0.429922 0.3736 1.88822
0.117057 0.232547 1.91406
0.46021 0.268154 1.93335
0.294692 0.330306 1.92817
0.414233 0.306803 1.92735
0.367693 0.467546 1.91117
0.313052 0.494322 1.92927
0.199862 0.243713 1.96274
0.33461 0.249494 1.94431
0.258494 0.28056 1.94287
0.320208 0.403691 1.95473
0.113325 0.448918 1.95813
0.209546 0.484752 1.94326
0.446997 0.50849 1.94933
0.387237 0.525686 1.94447
0.47999 0.300848 2.00759
0.375347 0.345395 1.98169
0.169236 0.376906 1.97418
0.261069 0.440732 1.98351
0.491591 0.428372 1.97583
0.254698 0.262308 2.03157
0.417913 0.266516 2.02158
0.121033 0.279919 2.03114
0.187546 0.294736 2.03852
0.103577 0.34242 2.01373
0.230407 0.340128 2.01098
0.287678 0.358468 2.03039
0.227036 0.399722 2.02769
0.380254 0.404128 2.01832
0.448915 0.39365 2.02697
0.441781 0.458388 2.01543
0.131272 0.513706 2.01204
0.35506 0.52072 2.03675
0.365118 0.235733 2.05568
0.378219 0.307765 2.04893
0.360498 0.363939 2.06203
0.10427 0.421706 2.05997
0.200976 0.455034 2.05494
0.317689 0.454971 2.06695
0.387139 0.48601 2.08051
0.491668 0.49724 2.06518
0.208645 0.523817 2.05003
0.136955 0.241756 2.10145
0.29951 0.265646 2.08473
0.478513 0.241448 2.09775
0.200031 0.295208 2.09871
0.352336 0.290052 2.10528
0.26261 0.317421 2.08461
0.121236 0.342722 2.08496
0.234882 0.370686 2.0819
0.43656 0.349215 2.09852
0.18594 0.400862 2.10647
0.288982 0.398489 2.10045
0.41824 0.41741 2.10107
0.250123 0.467148 2.09514
0.485548 0.450278 2.10645
0.124302 0.506318 2.08864
0.302009 0.506095 2.10474
VERTICES 176 352
1 0
1 1
1 2
1 3
1 4
1 5
1 6
1 7
1 8
1 9
1 10
1 11
1 12
1 13
1 14
1 15
1 16
1 17
1 18
1 19
1 20
1 21
1 22
1 23
1 24
1 25
1 26
1 27
1 28
1 29
1 30
1 31
1 32
1 33
1 34
1 35
1 36
1 37
1 38
1 39
1 40
1 41
1 42
1 43
1 44
1 45
1 46
1 47
1 48
1 49
1 50
1 51
1 52
1 53
1 54
1 55
1 56
1 57
1 58
1 59
1 60
1 61
1 62
1 63
1 64
1 65
1 66
1 67
1 68
1 69
1 70
1 71
1 72
1 73
1 74
1 75
1 76
1 77
1 78
1 79
1 80
1 81
1 82
1 83
1 84
1 85
1 86
1 87
1 88
1 89
1 90
1 91
1 92
1 93
1 94
1 95
1 96
1 97
1 98
1 99
1 100
1 101
1 102
1 103
1 104
1 105
1 106
1 107
1 108
1 109
1 110
1 111
1 112
1 113
1 114
1 115
1 116
1 117
1 118
1 119
1 120
1 121
1 122
1 123
1 124
1 125
1 126
1 127
1 128
1 129
1 130
1 131
1 132
1 133
1 134
1 135
1 136
1 137
1 138
1 139
1 140
1 141
1 142
1 143
1 144
1 145
1 146
1 147
1 148
1 149
1 150
1 151
1 152
1 153
1 154
1 155
1 156
1 157
1 158
1 159
1 160
1 161
1 162
1 163
1 164
1 165
1 166
1 167
1 168
1 169
1 170
1 171
1 172
1 173
1 174
1 175
POINT_DATA 176
VECTORS i float
0.0 0.0 0.0
0.0 0.0 0.0
0.0 0.0 0.0
0.0 0.0 0.0
0.0 0.0 0.0
0.0 0.0 0.0
0.0 0.0 0.0
0.0 0.0 0.0
0.0 0.0 0.0
0.0 0.0 0.0
0.0 0.0 0.0
0.0 0.0 0.0
0.0 0.0 0.0
0.0 0.0 0.0
0.0 0.0 0.0
0.0 0.0 0.0
0.0 0.0 0.0
0.0 0.0 0.0
0.0 0.0 0.0
0.0 0.0 0.0
0.0 0.0 0.0
0.0 0.0 0.0
0.0 0.0 0.0
0.0 0.0 0.0
0.0 0.0 0.0
0.0 0.0 0.0
0.0 0.0 0.0
0.0 0.0 0.0
0.0 0.0 0.0
0.0 0.0 0.0
0.0 0.0 0.0
0.0 0.0 0.0
0.0 0.0 0.0
0.0 0.0 0.0
0.0 0.0 0.0
0.0 0.0 0.0
0.0 0.0 0.0
0.0 0.0 0.0
0.0 0.0 0.0
0.0 0.0 0.0
0.0 0.0 0.0
0.0 0.0 0.0
0.0 0.0 0.0
0.0 0.0 0.0
0.0 0.0 0.0
0.0 0.0 0.0
0.0 0.0 0.0
0.0 0.0 0.0
0.0 0.0 0.0
0.0 0.0 0.0
0.0 0.0 0.0
0.0 0.0 0.0
0.0 0.0 0.0
0.0 0.0 0.0
0.0 0.0 0.0
0.0 0.0 0.0
0.0 0.0 0.0
0.0 0.0 0.0
0.0 0.0 0.0
0.0 0.0 0.0
0.0 0.0 0.0
0.0 0.0 0.0
0.0 0.0 0.0
0.0 0.0 0.0
0.0 0.0 0.0
0.0 0.0 0.0
0.0 0.0 0.0
0.0 0.0 0.0
0.0 0.0 0.0
0.0 0.0 0.0
0.0 0.0 0.0
0.0 0.0 0.0
0.0 0.0 0.0
0.0 0.0 0.0
0.0 0.0 0.0
0.0 0.0 0.0
0.0 0.0 0.0
0.0 0.0 0.0
0.0 0.0 0.0
0.0 0.0 0.0
0.0 0.0 0.0
0.0 0.0 0.0
0.0 0.0 0.0
0.0 0.0 0.0
0.0 0.0 0.0
0.0 0.0 0.0
0.0 0.0 0.0
0.0 0.0 0.0
0.0 0.0 0.0
0.0 0.0 0.0
0.0 0.0 0.0
0.0 0.0 0.0
0.0 0.0 0.0
0.0 0.0 0.0
0.0 0.0 0.0
0.0 0.0 0.0
0.0 0.0 0.0
0.0 0.0 0.0
0.0 0.0 0.0
0.0 0.0 0.0
0.0 0.0 0.0
0.0 0.0 0.0
0.0 0.0 0.0
0.0 0.0 0.0
0.0 0.0 0.0
0.0 0.0 0.0
0.0 0.0 0.0
0.0 0.0 0.0
0.0 0.0 0.0
0.0 0.0 0.0
0.0 0.0 0.0
0.0 0.0 0.0
0.0 0.0 0.0
0.0 0.0 0.0
0.0 0.0 0.0
0.0 0.0 0.0
0.0 0.0 0.0
0.0 0.0 0.0
0.0 0.0 0.0
0.0 0.0 0.0
0.0 0.0 0.0
0.0 0.0 0.0
0.0 0.0 0.0
0.0 0.0 0.0
0.0 0.0 0.0
0.0 0.0 0.0
0.0 0.0 0.0
0.0 0.0 0.0
0.0 0.0 0.0
0.0 0.0 0.0
0.0 0.0 0.0
0.0 0.0 0.0
0.0 0.0 0.0
0.0 0.0 0.0
0.0 0.0 0.0
0.0 0.0 0.0
0.0 0.0 0.0
0.0 0.0 0.0
0.0 0.0 0.0
0.0 0.0 0.0
0.0 0.0 0.0
0.0 0.0 0.0
0.0 0.0 0.0
0.0 0.0 0.0
0.0 0.0 0.0
0.0 0.0 0.0
0.0 0.0 0.0
0.0 0.0 0.0
0.0 0.0 0.0
0.0 0.0 0.0
0.0 0.0 0.0
0.0 0.0 0.0
0.0 0.0 0.0
0.0 0.0 0.0
0.0 0.0 0.0
0.0 0.0 0.0
0.0 0.0 0.0
0.0 0.0 0.0
0.0 0.0 0.0
0.0 0.0 0.0
0.0 0.0 0.0
0.0 0.0 0.0
0.0 0.0 0.0
0.0 0.0 0.0
0.0 0.0 0.0
0.0 0.0 0.0
0.0 0.0 0.0
0.0 0.0 0.0
0.0 0.0 0.0
0.0 0.0 0.0
0.0 0.0 0.0
0.0 0.0 0.0
0.0 0.0 0.0
0.0 0.0 0.0
0.0 0.0 0.0
0.0 0.0 0.0
VECTORS f float
0.0 0.0 -2.77371
91.9752 123.962 134.838
0.0 0.0 -2.77371
0.0823982 -0.00408128 0.511554
0.0 0.0 -2.77371
1.16056 3.66257 -2.82519
11.1065 -0.993504 22.7895
2.34997 -0.285039 -1.30277
0.0 0.0 -2.77371
0.947227 0.122234 -0.86355
-2.66603 5.50775 5.79856
1.7315 -0.589491 1.67675
0.446721 2.21983 -13.8595
-4.57281 2.8518 -5.18414
0.00525671 0.00132443 0.0265645
0.00294602 0.000485668 0.0276628
0.0 0.0 -2.77371
0.335087 -0.184991 -2.42053
-21.3542 -10.1182 -2.54221
0.0 0.0 -2.77371
0.0 0.0 -2.77371
0.0 0.0 -2.77371
0.929106 -1.06953 0.0597612
7.37119 3.38235 6.78454
0.0 0.0 -2.77371
0.0 0.0 -2.77371
8.42401 -11.2817 0.856289
-1.93157 -0.344267 13.3688
0.00465949 -0.000452146 -0.0241617
-10.0147 9.85267 -8.6478
0.0 0.0 -2.77371
-0.892089 0.63216 4.68298
0.0 0.0 -2.77371
9.92162 0.444014 0.242334
2.73169 11.4624 3.37766
0.000315155 -1.31688e-05 -0.00453144
0.0 0.0 -2.77371
16.7031 -6.25095 34.5575
-2.31527 -5.21623 0.646596
0.417119 -1.10924 7.91506
0.0 0.0 -2.77371
-0.184483 -0.531352 -1.85961
-0.0278355 -0.40586 -1.55805
1.87104 16.5006 4.45854
0.0 0.0 -2.77371
0.0 0.0 -2.77371
15.7931 -16.0455 14.0643
0.0 0.0 -2.77371
0.0 0.0 -2.77371
0.0 0.0 -2.77371
-1.00437 1.61932 1.33871
-23.0906 10.9037 -45.2643
-0.414246 0.187555 -2.6489
-1.39224 0.428084 6.3639
3.75566 -2.43501 -2.90717
2.31527 5.21623 -6.19402
0.448714 1.63517 -1.31151
0.926345 -4.38257 3.72621
0.0 0.0 -2.77371
0.0 0.0 -2.77371
34.6027 -24.619 -21.0282
0.0 0.0 -2.77371
10.4021 -0.829063 -16.3553
0.0 0.0 -2.77371
12.5428 12.3763 12.8204
-1.88638 -1.66404 2.95073
0.0 0.0 -2.77371
0.0 0.0 -2.77371
-9.70883 -0.37049 -6.61297
0.0 0.0 -2.77371
0.0 0.0 -2.77371
0.0 0.0 -2.77371
0.0 0.0 -2.77371
0.0 0.0 -2.77371
0.0 0.0 -2.77371
-34.6027 24.619 15.4808
0.0 0.0 -2.77371
-32.4088 -6.50242 -27.4951
5.8728 26.3811 -5.14563
0.0 0.0 -2.77371
0.767052 4.50394 -6.94645
0.0 0.0 -2.77371
0.0 0.0 -2.77371
0.0 0.0 -2.77371
0.0 0.0 -2.77371
-0.279772 -0.84342 1.57583
0.0 0.0 -2.77371
0.0 0.0 -2.77371
0.0 0.0 -2.77371
0.0 0.0 -2.77371
-5.8728 -26.3811 -0.401795
55.4994 -4.40127 64.4383
0.0 0.0 -2.77371
0.0 0.0 -2.77371
0.0 0.0 -2.77371
0.0 0.0 -2.77371
0.0 0.0 -2.77371
0.0 0.0 -2.77371
0.0 0.0 -2.77371
0.0 0.0 -2.77371
0.0 0.0 -2.77371
0.0 0.0 -2.77371
0.0 0.0 -2.77371
0.0 0.0 -2.77371
0.0 0.0 -2.77371
0.0 0.0 -2.77371
0.0 0.0 -2.77371
0.0 0.0 -2.77371
0.0 0.0 -2.77371
0.0 0.0 -2.77371
0.0 0.0 -2.77371
0.0 0.0 -2.77371
0.0 0.0 -2.77371
0.0 0.0 -2.77371
0.0 0.0 -2.77371
0.0 0.0 -2.77371
0.0 0.0 -2.77371
0.0 0.0 -2.77371
0.0 0.0 -2.77371
0.0 0.0 -2.77371
0.0 0.0 -2.77371
0.0 0.0 -2.77371
0.0 0.0 -2.77371
0.0 0.0 -2.77371
0.0 0.0 -2.77371
0.0 0.0 -2.77371
0.0 0.0 -2.77371
0.0 0.0 -2.77371
0.0 0.0 -2.77371
0.0 0.0 -2.77371
0.0 0.0 -2.77371
0.0 0.0 -2.77371
0.0 0.0 -2.77371
0.0 0.0 -2.77371
0.0 0.0 -2.77371
0.0 0.0 -2.77371
0.0 0.0 -2.77371
0.0 0.0 -2.77371
0.0 0.0 -2.77371
0.0 0.0 -2.77371
0.0 0.0 -2.77371
0.0 0.0 -2.77371
0.0 0.0 -2.77371
0.0 0.0 -2.77371
0.0 0.0 -2.77371
0.0 0.0 -2.77371
0.0 0.0 -2.77371
0.0 0.0 -2.77371
0.0 0.0 -2.77371
0.0 0.0 -2.77371
0.0 0.0 -2.77371
0.0 0.0 0.0
0.0 0.0 0.0
0.0 0.0 0.0
0.0 0.0 0.0
0.0 0.0 0.0
0.0 0.0 0.0
0.0 0.0 0.0
0.0 0.0 0.0
0.0 0.0 0.0
0.0 0.0 0.0
0.0 0.0 0.0
0.0 0.0 0.0
0.0 0.0 0.0
0.0 0.0 0.0
0.0 0.0 0.0
0.0 0.0 0.0
0.0 0.0 0.0
0.0 0.0 0.0
0.0 0.0 0.0
0.0 0.0 0.0
0.0 0.0 0.0
0.0 0.0 0.0
0.0 0.0 0.0
0.0 0.0 0.0
0.0 0.0 0.0
VECTORS omega float
11.5985 -112.54 16.3501
1.26944 -25.4108 56.2886
-4.79407 -82.415 31.0341
-0.874487 -67.4768 35.6998
9.19029 -108.768 1.97972
3.52496 -52.936 4.35711
13.764 -55.8456 -10.6516
9.69801 -49.8121 4.90121
-0.655839 -96.7637 -1.45034
-17.2271 -37.3525 9.83247
15.9768 -71.6073 2.24227
12.7587 -62.8354 -23.3181
-0.632483 -80.3557 -1.10301
9.50326 -55.4363 -17.1958
8.2033 -53.2512 10.1393
11.3577 -68.895 15.7782
-6.97756 -70.0755 16.1048
3.00044 -47.6014 -12.8858
-36.636 -39.6026 12.7739
9.54566 -91.7733 -15.5461
-0.907165 -15.39 15.3347
-1.46965 -83.5442 -4.58633
20.2303 -75.8232 8.69058
-12.9498 -66.8683 -10.174
3.59332 -67.4754 -1.0062
-3.0089 -61.1344 -3.69294
2.43082 -2.84437 -5.61637
-2.57862 -60.9016 -8.35558
-4.919 -50.7224 2.52464
24.5914 -70.0885 -3.74103
-2.35501 -94.17 28.9364
-5.69307 -81.3213 -7.54827
-41.0375 15.7391 8.83672
-8.10363 -63.5926 2.00359
-19.5128 -66.6786 6.32781
-1.81725 -43.4912 1.90422
-5.90024 -73.6908 -2.54792
-12.4502 -72.002 12.548
-9.95827 -78.6394 10.2906
2.4791 -73.7237 7.90175
-15.5938 -60.3904 -14.7917
-6.4572 -95.4492 -14.5779
-0.640849 -84.561 -22.7855
9.31602 -92.0801 34.9793
12.6731 -5.24697 64.797
8.83868 -84.2112 1.69744
4.43318 48.816 -3.23623
-1.37389 5.33586 30.5853
8.95253 -50.9918 -2.42304
14.1708 -24.2225 -5.32658
-9.19025 5.03714 -0.841568
19.7477 53.6095 17.7367
29.5523 21.4915 -23.3017
-0.922006 17.6763 -22.7982
15.8344 4.44682 11.3104
2.0105 39.5934 -30.9286
-2.22812 -10.3946 -0.128362
15.9905 40.5136 30.6488
-6.59709 -58.3269 -12.9142
-8.73866 86.2353 17.7017
-15.5752 5.81121 -6.15887
2.69317 -9.59353 -3.17817
33.9375 -29.3114 13.6739
17.9512 -5.09578 -12.4657
16.2332 18.6135 -21.2888
-8.10567 -9.31086 4.74551
13.2792 -5.86345 -16.5214
5.11574 -46.1421 -14.4888
16.8132 -45.9818 7.84751
0.0 0.0 0.0
22.1221 15.2351 0.313276
10.0043 69.7994 3.39946
-5.95584 32.5393 -3.946
-27.7984 40.0863 14.5704
0.0 0.0 0.0
-22.5776 -53.9893 25.0214
52.1336 10.5826 -7.08303
-19.6633 -27.7568 6.02196
48.887 -17.4999 -4.87331
1.03762 17.4648 -2.11898
14.7179 7.59636 -0.505317
0.0 0.0 0.0
-11.6472 -27.1285 -1.53264
23.2755 22.4398 -44.7643
-9.19163 -33.8691 1.4826
-10.5085 -35.2453 0.0245703
-6.18561 -61.3641 -9.5164
-37.5588 -64.8153 28.7954
0.0 0.0 0.0
-23.5956 -19.7879 -3.22434
19.9664 -4.76343 -2.07399
5.59999 59.9045 -2.42199
6.30564 -15.6765 -2.08881
-4.38006 21.2286 2.41409
0.0 0.0 0.0
0.0 0.0 0.0
0.0 0.0 0.0
0.0 0.0 0.0
0.0 0.0 0.0
0.0 0.0 0.0
0.0 0.0 0.0
0.0 0.0 0.0
0.0 0.0 0.0
0.0 0.0 0.0
0.0 0.0 0.0
0.0 0.0 0.0
0.0 0.0 0.0
0.0 0.0 0.0
0.0 0.0 0.0
0.0 0.0 0.0
0.0 0.0 0.0
0.0 0.0 0.0
0.0 0.0 0.0
0.0 0.0 0.0
0.0 0.0 0.0
0.0 0.0 0.0
0.0 0.0 0.0
0.0 0.0 0.0
0.0 0.0 0.0
0.0 0.0 0.0
0.0 0.0 0.0
0.0 0.0 0.0
0.0 0.0 0.0
0.0 0.0 0.0
0.0 0.0 0.0
0.0 0.0 0.0
0.0 0.0 0.0
0.0 0.0 0.0
0.0 0.0 0.0
0.0 0.0 0.0
0.0 0.0 0.0
0.0 0.0 0.0
0.0 0.0 0.0
0.0 0.0 0.0
0.0 0.0 0.0
0.0 0.0 0.0
0.0 0.0 0.0
0.0 0.0 0.0
0.0 0.0 0.0
0.0 0.0 0.0
0.0 0.0 0.0
0.0 0.0 0.0
0.0 0.0 0.0
0.0 0.0 0.0
0.0 0.0 0.0
0.0 0.0 0.0
0.0 0.0 0.0
0.0 0.0 0.0
0.0 0.0 0.0
0.0 0.0 0.0
0.0 0.0 0.0
0.0 0.0 0.0
0.0 0.0 0.0
0.0 0.0 0.0
0.0 0.0 0.0
0.0 0.0 0.0
0.0 0.0 0.0
0.0 0.0 0.0
0.0 0.0 0.0
0.0 0.0 0.0
0.0 0.0 0.0
0.0 0.0 0.0
0.0 0.0 0.0
0.0 0.0 0.0
0.0 0.0 0.0
0.0 0.0 0.0
0.0 0.0 0.0
0.0 0.0 0.0
0.0 0.0 0.0
0.0 0.0 0.0
0.0 0.0 0.0
0.0 0.0 0.0
0.0 0.0 0.0
0.0 0.0 0.0
0.0 0.0 0.0
0.0 0.0 0.0
VECTORS v float
1.15728 -0.166789 0.22221
1.69225 -0.630058 -0.679214
1.64293 0.444643 0.10343
1.98259 0.0262986 -0.0171964
0.784315 -0.270782 0.63131
2.12229 -0.220116 0.284417
1.75268 -0.347757 0.0408257
2.02322 -0.251073 -0.403476
1.12042 0.0201272 0.276391
1.09682 0.285341 -0.0211296
1.48947 -0.131744 -0.239414
2.15242 -0.35768 0.111983
1.60054 -0.00861436 0.31375
1.60956 0.142725 0.167198
2.40886 -0.245133 -0.00239647
1.94157 -0.339343 -0.000635675
1.89987 0.211543 0.0447676
2.5678 -0.086192 0.00997302
0.911169 -0.261697 -1.13766
1.29627 -0.2548 0.448465
1.50673 -0.228582 -1.0452
1.45215 0.141582 -0.0415558
1.24906 -0.0186856 0.195138
1.78637 0.220319 0.0994994
1.79681 -0.0384582 0.0121459
1.97047 0.148686 -0.238871
0.578927 0.198738 -0.825092
2.2504 0.112496 0.0418689
2.48431 0.14699 -0.00146903
0.662057 0.46383 0.298367
1.2451 0.0726143 0.134075
1.62545 0.152862 0.201831
2.31572 0.460046 0.0714307
2.09642 0.240286 0.0984004
1.99871 0.2484 -0.665711
2.70057 0.0542958 -0.000117957
-0.162301 0.0922564 0.194372
1.85575 0.371087 -0.270981
1.76912 0.493986 0.418327
1.71746 0.200762 -0.0678373
2.19549 0.463199 0.063196
1.6772 0.112516 0.159099
1.72607 0.00670738 0.00123599
1.32933 -0.205468 0.2365
1.84199 -0.0979599 0.299628
2.20307 -0.125599 0.0698828
1.089 -0.516788 -0.0479926
0.0391081 -0.341599 -0.147247
0.889234 -0.20798 -0.021771
0.372185 -0.131869 -1.78173
1.44889 -0.360572 0.327824
0.550966 -0.534109 -0.270046
1.34545 -0.605838 0.0368662
0.52274 0.244056 0.71461
0.752163 -0.0849828 0.220705
0.580321 0.587658 0.368942
1.17824 0.560308 -0.863733
0.696943 -0.205205 0.0953659
1.41752 0.313696 0.713883
1.77223 0.0960884 0.0447385
1.13327 -0.199977 -1.05983
-0.317404 -0.198572 -2.73631
-0.953308 -0.57191 -0.958818
0.860315 -0.656238 -0.550159
0.635487 -0.293662 -0.485793
0.370014 -0.401026 -1.61996
0.5649 0.0908342 -0.876409
1.39052 0.105394 0.0728726
0.803218 -0.0249055 -0.177793
0.0 0.0 -2.98716
0.559671 -0.102276 -0.315663
1.69768 -0.0216894 1.84976
1.02883 0.559231 -0.475337
0.663295 1.04463 0.209654
0.0 0.0 -2.92614
0.0367024 0.857769 -1.03142
0.418493 0.501665 -1.53797
0.159267 -0.392728 -0.910655
0.35845 0.334159 -0.697697
0.742676 0.111361 -1.82269
0.605005 -0.388276 -0.731817
0.0 0.0 -2.8977
-0.648019 0.293832 -1.15634
0.654171 0.279044 0.25794
2.12519 -0.562156 -0.279307
0.879973 -0.139445 -0.0248069
-0.646972 -0.214742 -1.17876
0.690883 1.24682 0.592065
0.0 0.0 -2.79067
-0.0400379 -0.391965 -0.656614
-0.12768 -0.840826 -2.0721
0.689277 -0.0140397 -1.62726
0.32222 -0.177851 -0.661861
0.284972 0.0282487 -2.58551
0.0 0.0 -2.61752
0.0 0.0 -2.51461
0.0 0.0 -2.49833
0.0 0.0 -2.47351
0.0 0.0 -2.46645
0.0 0.0 -2.58485
0.0 0.0 -2.49598
0.0 0.0 -2.57367
0.0 0.0 -2.40769
0.0 0.0 -2.32303
0.0 0.0 -2.44124
0.0 0.0 -2.36982
0.0 0.0 -2.44388
0.0 0.0 -2.16508
0.0 0.0 -2.23248
0.0 0.0 -2.19971
0.0 0.0 -2.18667
0.0 0.0 -2.15645
0.0 0.0 -2.25671
0.0 0.0 -2.19265
0.0 0.0 -2.24229
0.0 0.0 -2.06816
0.0 0.0 -2.07895
0.0 0.0 -2.08965
0.0 0.0 -2.02912
0.0 0.0 -1.90012
0.0 0.0 -1.7978
0.0 0.0 -1.82576
0.0 0.0 -1.83017
0.0 0.0 -1.91493
0.0 0.0 -1.81987
0.0 0.0 -1.62946
0.0 0.0 -1.73688
0.0 0.0 -1.74502
0.0 0.0 -1.67704
0.0 0.0 -1.65702
0.0 0.0 -1.74286
0.0 0.0 -1.70833
0.0 0.0 -1.736
0.0 0.0 -1.33241
0.0 0.0 -1.51115
0.0 0.0 -1.55912
0.0 0.0 -1.49928
0.0 0.0 -1.54872
0.0 0.0 -1.14229
0.0 0.0 -1.22509
0.0 0.0 -1.14602
0.0 0.0 -1.08088
0.0 0.0 -1.2864
0.0 0.0 -1.3072
0.0 0.0 -1.1524
0.0 0.0 -1.17516
0.0 0.0 -1.25089
0.0 0.0 -1.18114
0.0 0.0 -1.27336
0.0 0.0 -1.29925
0.0 0.0 -1.09687
-0 -0 -1.0
-0 -0 -1.0
-0 -0 -1.0
-0 -0 -1.0
-0 -0 -1.0
-0 -0 -1.0
-0 -0 -1.0
-0 -0 -1.0
-0 -0 -1.0
-0 -0 -1.0
-0 -0 -1.0
-0 -0 -1.0
-0 -0 -1.0
-0 -0 -1.0
-0 -0 -1.0
-0 -0 -1.0
-0 -0 -1.0
-0 -0 -1.0
-0 -0 -1.0
-0 -0 -1.0
-0 -0 -1.0
-0 -0 -1.0
-0 -0 -1.0
-0 -0 -1.0
-0 -0 -1.0
SCALARS radius float 1
LOOKUP_TABLE default
0.03
0.03
0.03
0.03
0.03
0.03
0.03
0.03
0.03
0.03
0.03
0.03
0.03
0.03
0.03
0.03
0.03
0.03
0.03
0.03
0.03
0.03
0.03
0.03
0.03
0.03
0.03
0.03
0.03
0.03
0.03
0.03
0.03
0.03
0.03
0.03
0.03
0.03
0.03
0.03
0.03
0.03
0.03
0.03
0.03
0.03
0.03
0.03
0.03
0.03
0.03
0.03
0.03
0.03
0.03
0.03
0.03
0.03
0.03
0.03
0.03
0.03
0.03
0.03
0.03
0.03
0.03
0.03
0.03
0.03
0.03
0.03
0.03
0.03
0.03
0.03
0.03
0.03
0.03
0.03
0.03
0.03
0.03
0.03
0.03
0.03
0.03
0.03
0.03
0.03
0.03
0.03
0.03
0.03
0.03
0.03
0.03
0.03
0.03
0.03
0.03
0.03
0.03
0.03
0.03
0.03
0.03
0.03
0.03
0.03
0.03
0.03
0.03
0.03
0.03
0.03
0.03
0.03
0.03
0.03
0.03
0.03
0.03
0.03
0.03
0.03
0.03
0.03
0.03
0.03
0.03
0.03
0.03
0.03
0.03
0.03
0.03
0.03
0.03
0.03
0.03
0.03
0.03
0.03
0.03
0.03
0.03
0.03
0.03
0.03
0.03
0.03
0.03
0.03
0.03
0.03
0.03
0.03
0.03
0.03
0.03
0.03
0.03
0.03
0.03
0.03
0.03
0.03
0.03
0.03
0.03
0.03
0.03
0.03
0.03
0.03
SCALARS type float 1
LOOKUP_TABLE default
1.0
1.0
1.0
1.0
1.0
1.0
1.0
1.0
1.0
1.0
1.0
1.0
1.0
1.0
1.0
1.0
1.0
1.0
1.0
1.0
1.0
1.0
1.0
1.0
1.0
1.0
1.0
1.0
1.0
1.0
1.0
1.0
1.0
1.0
1.0
1.0
1.0
1.0
1.0
1.0
1.0
1.0
1.0
1.0
1.0
1.0
1.0
1.0
1.0
1.0
1.0
1.0
1.0
1.0
1.0
1.0
1.0
1.0
1.0
1.0
1.0
1.0
1.0
1.0
1.0
1.0
1.0
1.0
1.0
1.0
1.0
1.0
1.0
1.0
1.0
1.0
1.0
1.0
1.0
1.0
1.0
1.0
1.0
1.0
1.0
1.0
1.0
1.0
1.0
1.0
1.0
1.0
1.0
1.0
1.0
1.0
1.0
1.0
1.0
1.0
1.0
1.0
1.0
1.0
1.0
1.0
1.0
1.0
1.0
1.0
1.0
1.0
1.0
1.0
1.0
1.0
1.0
1.0
1.0
1.0
1.0
1.0
1.0
1.0
1.0
1.0
1.0
1.0
1.0
1.0
1.0
1.0
1.0
1.0
1.0
1.0
1.0
1.0
1.0
1.0
1.0
1.0
1.0
1.0
1.0
1.0
1.0
1.0
1.0
1.0
1.0
1.0
1.0
1.0
1.0
1.0
1.0
1.0
1.0
1.0
1.0
1.0
1.0
1.0
1.0
1.0
1.0
1.0
1.0
1.0
1.0
1.0
1.0
1.0
1.0
1.0
SCALARS id float 1
LOOKUP_TABLE default
128.0
73.0
123.0
137.0
148.0
81.0
105.0
100.0
15.0
146.0
49.0
129.0
79.0
127.0
145.0
92.0
29.0
104.0
31.0
5.0
99.0
76.0
71.0
149.0
144.0
112.0
80.0
41.0
138.0
118.0
61.0
21.0
24.0
16.0
166.0
18.0
17.0
51.0
97.0
85.0
151.0
66.0
167.0
108.0
171.0
94.0
1.0
64.0
42.0
116.0
45.0
47.0
19.0
133.0
44.0
12.0
4.0
131.0
98.0
53.0
32.0
60.0
70.0
23.0
57.0
93.0
83.0
82.0
152.0
77.0
164.0
107.0
2.0
174.0
46.0
10.0
72.0
55.0
26.0
157.0
173.0
176.0
28.0
91.0
130.0
68.0
75.0
125.0
140.0
102.0
155.0
136.0
67.0
110.0
63.0
135.0
156.0
35.0
25.0
30.0
163.0
52.0
22.0
120.0
165.0
101.0
143.0
86.0
40.0
8.0
113.0
33.0
134.0
162.0
159.0
13.0
58.0
78.0
109.0
139.0
43.0
121.0
153.0
87.0
37.0
158.0
69.0
117.0
147.0
150.0
115.0
119.0
168.0
48.0
27.0
38.0
90.0
170.0
114.0
7.0
14.0
62.0
3.0
50.0
54.0
95.0
103.0
65.0
11.0
111.0
161.0
141.0
169.0
59.0
74.0
56.0
6.0
39.0
96.0
154.0
132.0
126.0
89.0
124.0
106.0
36.0
142.0
175.0
122.0
20.0
172.0
34.0
9.0
88.0
84.0
160.0
SCALARS Temp float 1
LOOKUP_TABLE default
312.371
300.665
324.059
322.25
303.856
303.83
325.215
304.072
303.558
306.743
327.214
327.67
317.654
303.83
312.153
318.307
325.259
313.103
303.883
306.766
315.852
317.671
310.199
315.354
309.982
318.347
303.902
325.328
315.411
303.946
314.238
325.324
303.414
313.377
321.203
320.821
303.309
315.331
306.615
325.662
303.374
324.327
322.606
317.715
303.478
309.764
300.422
300.162
304.116
300.001
300.463
300.325
300.333
300.842
300.34
300.42
300.386
301.041
317.67
304.139
300.273
300.0
300.02
300.137
300.103
300.099
300.148
303.961
304.029
300.0
300.261
300.048
300.755
300.259
300.0
300.001
300.223
300.004
300.007
300.0
300.001
300.0
300.001
300.278
300.005
300.013
300.001
300.009
300.0
300.002
300.0
300.0
300.005
300.0
300.0
300.0
300.0
300.0
300.0
300.0
300.0
300.0
300.0
300.0
300.0
300.0
300.0
300.0
300.0
300.0
300.0
300.0
300.0
300.0
300.0
300.0
300.0
300.0
300.0
300.0
300.0
300.0
300.0
300.0
300.0
300.0
300.0
300.0
300.0
300.0
300.0
300.0
300.0
300.0
300.0
300.0
300.0
300.0
300.0
300.0
300.0
300.0
300.0
300.0
300.0
300.0
300.0
300.0
300.0
300.0
300.0
300.0
300.0
300.0
300.0
300.0
300.0
300.0
300.0
300.0
300.0
300.0
300.0
300.0
300.0
300.0
300.0
300.0
300.0
300.0
300.0
300.0
300.0
300.0
300.0
300.0

