# vtk DataFile Version 2.0
Generated by lpp.py
ASCII
DATASET POLYDATA
POINTS 351 float
0.161621 0.184211 1.57839
0.298064 0.185528 1.57784
0.36703 0.17782 1.58608
0.603937 0.180454 1.58245
0.7793 0.180794 1.58208
0.838486 0.192815 1.57717
0.980178 0.186381 1.57636
1.04052 0.189941 1.57765
1.2378 0.173956 1.58898
1.44097 0.1858 1.57706
1.74375 0.19466 1.57686
1.8727 0.18672 1.57662
1.9381 0.17383 1.589
0.501574 0.210131 1.57699
0.645019 0.223702 1.57687
0.884797 0.231038 1.57631
1.09131 0.23041 1.5769
1.20253 0.221989 1.57685
1.2913 0.203948 1.57687
1.534 0.218223 1.57686
1.68783 0.228381 1.57686
1.92386 0.230676 1.57673
0.145929 0.244535 1.57941
0.242558 0.238982 1.57813
0.456159 0.247926 1.57621
0.59276 0.255535 1.57474
0.952458 0.250411 1.57686
1.03341 0.250814 1.57687
1.14259 0.261 1.57666
1.33789 0.243363 1.57686
1.41108 0.245636 1.57686
1.6089 0.264933 1.57686
1.74177 0.260732 1.57686
0.315926 0.292217 1.57735
0.373911 0.276252 1.58207
0.495908 0.296382 1.57975
0.694649 0.277737 1.57832
0.818259 0.285768 1.57686
0.895181 0.299777 1.57667
1.07741 0.295996 1.57656
1.22922 0.275636 1.57708
1.8823 0.275838 1.57687
0.624267 0.338398 1.57724
0.754729 0.331227 1.58876
1.12442 0.333124 1.57682
1.1789 0.308192 1.57703
1.36029 0.305455 1.57602
1.41814 0.33954 1.57683
1.5119 0.317813 1.57684
1.5715 0.311828 1.57688
1.64337 0.321781 1.57686
0.0136446 0.346359 1.57896
0.253614 0.336912 1.57689
0.332775 0.349768 1.58699
0.472238 0.361372 1.5745
0.845285 0.339737 1.57686
0.916691 0.355364 1.57699
1.03249 0.357444 1.57702
1.17492 0.371687 1.57674
1.24288 0.33815 1.57686
1.54679 0.376255 1.57686
1.70793 0.353528 1.57686
1.77801 0.343096 1.57686
0.0930011 0.40473 1.58198
0.179034 0.375699 1.57552
0.385547 0.37744 1.57684
0.566572 0.403844 1.57767
0.718046 0.381518 1.57684
0.963314 0.39453 1.59799
1.09102 0.3865 1.57672
1.30633 0.400995 1.57597
1.4672 0.387241 1.57686
1.78077 0.406463 1.57686
0.154154 0.433542 1.57534
0.330904 0.417353 1.57684
0.427061 0.446478 1.579
0.650491 0.439044 1.57668
0.716132 0.441643 1.57686
0.821405 0.431709 1.57699
1.0244 0.412671 1.59984
1.10172 0.445052 1.57688
1.20316 0.423968 1.577
1.3645 0.417102 1.57997
1.51663 0.437761 1.57691
1.57718 0.434471 1.57684
1.64541 0.435816 1.57683
0.269363 0.446904 1.57837
0.504073 0.456032 1.57509
0.882616 0.446454 1.57688
0.984311 0.450179 1.57635
1.15996 0.466568 1.57638
1.2663 0.470606 1.57683
1.34845 0.474803 1.57687
1.45202 0.445692 1.57675
1.69888 0.46545 1.58104
2.03188 0.451807 1.57724
0.0814363 0.505932 1.5883
0.198033 0.516375 1.57884
0.465004 0.503806 1.5801
0.53085 0.518956 1.57698
0.648586 0.518338 1.57949
0.741992 0.501466 1.57686
0.815132 0.491399 1.57657
0.884546 0.509785 1.57661
0.995752 0.50836 1.57958
1.10456 0.504447 1.57761
1.22169 0.511066 1.57685
1.41536 0.512394 1.57698
1.47818 0.506371 1.57686
1.56595 0.49939 1.57686
1.98885 0.498108 1.57687
0.384087 0.549907 1.57439
1.27286 0.54167 1.58049
1.34459 0.534287 1.57689
1.68486 0.524131 1.57685
1.92596 0.545114 1.57686
2.06787 0.515935 1.57475
2.12999 0.537974 1.58339
0.14827 0.552604 1.57686
0.322185 0.573446 1.58019
0.470469 0.562929 1.57689
0.566191 0.567714 1.57649
0.648276 0.577243 1.58586
0.735012 0.584261 1.59343
0.907111 0.566314 1.57679
0.966532 0.560105 1.57782
1.03014 0.558246 1.5767
1.12019 0.561805 1.57689
1.22015 0.571184 1.58039
1.44335 0.565273 1.5769
1.5232 0.551667 1.57686
2.01665 0.559128 1.57681
1.66719 0.58827 1.59744
0.399714 0.13707 1.62491
0.658024 0.161701 1.60119
0.797688 0.140036 1.62594
0.855892 0.147934 1.61493
0.986066 0.145109 1.61836
1.49127 0.16199 1.60145
0.140541 0.186826 1.6344
0.205795 0.203853 1.62484
0.915334 0.21415 1.62294
0.416475 0.241998 1.62011
0.762224 0.244523 1.59667
0.113058 0.286443 1.61963
0.188784 0.295752 1.60361
0.27013 0.268047 1.61955
0.457503 0.302859 1.63315
0.625663 0.268183 1.62089
0.0632372 0.323206 1.60477
0.244508 0.3231 1.63497
0.660421 0.332399 1.6296
1.05499 0.325329 1.62325
1.37454 0.341019 1.62124
0.119913 0.350561 1.59852
0.513783 0.366015 1.61328
1.28083 0.366105 1.62199
0.583746 0.378627 1.62995
0.713995 0.394837 1.63511
1.33132 0.398197 1.62851
0.205368 0.42541 1.60135
0.371374 0.437439 1.61333
0.533195 0.431928 1.61901
0.227904 0.477595 1.61533
0.318392 0.474995 1.6027
0.567955 0.477791 1.6018
1.03386 0.471509 1.60674
1.38082 0.454143 1.62405
0.377919 0.498105 1.60444
0.267746 0.533994 1.59495
0.337134 0.543979 1.62855
0.827175 0.539832 1.60913
0.923362 0.525083 1.61886
1.01311 0.547315 1.63286
0.400963 0.566297 1.62658
1.18136 0.553506 1.62342
0.279941 0.620198 1.63334
0.464407 0.609315 1.62949
0.667324 0.617643 1.6268
0.833108 0.605167 1.61424
1.01151 0.603741 1.61286
1.08508 0.59867 1.60781
1.14422 0.605718 1.61722
1.30498 0.592049 1.61084
0.672324 0.120908 1.64263
0.903426 0.125518 1.64455
1.27188 0.10166 1.65939
1.21732 0.12857 1.63433
0.409337 0.185061 1.65808
0.529578 0.158436 1.63447
0.345594 0.198646 1.66157
0.580114 0.210636 1.63031
0.15383 0.245399 1.64321
0.356007 0.263727 1.64624
0.532765 0.244656 1.64586
0.552984 0.302999 1.6337
0.310771 0.304557 1.64038
0.889265 0.309541 1.63531
0.423145 0.351099 1.64229
0.532813 0.349538 1.66533
0.611504 0.345851 1.67013
0.0706252 0.41162 1.67999
0.202729 0.375912 1.6331
0.358888 0.375863 1.64652
0.456398 0.40109 1.6369
0.325358 0.426767 1.65442
0.869386 0.428208 1.66906
0.166418 0.452081 1.6524
0.279498 0.46918 1.64523
1.44574 0.445715 1.63594
0.379792 0.493471 1.66401
0.431142 0.497152 1.63451
0.592128 0.509298 1.64888
0.662864 0.488346 1.64994
1.28587 0.4983 1.63913
0.236923 0.530782 1.64713
0.53141 0.551443 1.64896
0.593987 0.584376 1.64494
0.821069 0.569415 1.66067
0.884373 0.62589 1.63913
0.727176 0.170018 1.67617
0.477792 0.222119 1.68192
0.395289 0.236899 1.68328
0.178262 0.305155 1.6644
0.412961 0.300912 1.6765
0.347581 0.324288 1.68248
0.251253 0.349926 1.68797
0.139866 0.402777 1.67011
0.398992 0.409502 1.67268
0.502012 0.429365 1.66929
0.10269 0.478868 1.65965
0.486786 0.494467 1.66008
0.448451 0.555781 1.66707
0.712738 0.534103 1.6703
0.286721 0.564361 1.69172
0.56343 0.601794 1.69678
0.317296 0.223414 1.70974
0.100828 0.246005 1.70189
0.26166 0.291052 1.69429
0.465538 0.294719 1.7189
0.387726 0.362227 1.70598
0.469437 0.375961 1.6888
0.291142 0.401049 1.69758
0.338206 0.47604 1.70351
0.409242 0.458831 1.70897
0.483901 0.529987 1.70787
0.659214 0.602209 1.71413
0.317345 0.695428 1.7093
0.33561 0.271457 1.74331
0.384104 0.304636 1.74621
0.505293 0.391343 1.75489
0.238696 0.425254 1.72737
0.227735 0.245208 1.77805
0.283481 0.328862 1.78067
0.104364 0.371175 1.76575
0.189473 0.369831 1.75518
0.433942 0.344323 1.78212
0.124882 0.444445 1.78244
0.410316 0.229607 1.81112
0.479511 0.263195 1.79991
0.292698 0.428673 1.79766
0.367427 0.412219 1.78841
0.387806 0.497135 1.80834
0.10683 0.52412 1.81843
0.488965 0.329122 1.84315
0.436973 0.45447 1.83761
0.498994 0.449521 1.8386
0.498691 0.522189 1.84405
0.307197 0.231054 1.86132
0.112238 0.243444 1.86569
0.338106 0.302046 1.8661
0.144627 0.329159 1.87843
0.388723 0.350133 1.88928
0.26384 0.382845 1.86357
0.336562 0.447813 1.89446
0.197767 0.505506 1.86205
0.196779 0.286134 1.89978
0.322732 0.35929 1.92309
0.179678 0.383211 1.91544
0.404531 0.416433 1.91678
0.180002 0.445959 1.912
0.133145 0.50156 1.9321
0.316599 0.507618 1.90324
0.4192 0.521596 1.91917
0.299287 0.247375 1.96895
0.498503 0.253983 1.93323
0.432796 0.302258 1.95755
0.499396 0.409304 1.96438
0.230608 0.478968 1.94559
0.442411 0.236129 1.97236
0.126939 0.284236 1.98383
0.187834 0.32549 1.98932
0.256147 0.321804 2.0034
0.345572 0.308923 1.97906
0.476186 0.343657 1.97372
0.110703 0.374435 2.00611
0.282511 0.427246 1.9924
0.180798 0.510604 1.99149
0.383426 0.485675 1.98244
0.196226 0.26238 2.01083
0.356376 0.254196 2.01345
0.44222 0.295647 2.04047
0.346145 0.350757 2.04422
0.415762 0.389621 2.01419
0.475094 0.383761 2.03938
0.214879 0.429082 2.02823
0.107302 0.455042 2.0112
0.466199 0.451954 2.04459
0.236464 0.494005 2.04226
0.430217 0.500721 2.04497
0.49838 0.508374 2.01905
0.339305 0.526873 2.03709
0.103324 0.228818 2.07871
0.161403 0.258279 2.07827
0.271982 0.260644 2.0508
0.321856 0.294278 2.04913
0.125428 0.344451 2.06441
0.189012 0.364304 2.07306
0.415188 0.353574 2.06906
0.282424 0.374546 2.05858
0.115455 0.44409 2.0745
0.323589 0.424937 2.0671
0.104255 0.515661 2.05241
0.363615 0.240431 2.08399
0.425069 0.242959 2.08512
0.499192 0.246026 2.08267
0.257372 0.298287 2.11437
0.31493 0.348737 2.10385
0.484684 0.362834 2.11124
0.40415 0.414672 2.08454
0.158807 0.499296 2.09065
0.370433 0.49856 2.08148
0.264146 0.523422 2.08795
0.220666 0.238837 2.12734
0.393674 0.233628 2.14132
0.17717 0.298235 2.1392
0.314466 0.284399 2.13272
0.492483 0.279077 2.1344
0.417494 0.317622 2.13147
0.107591 0.339963 2.14367
0.125062 0.39201 2.11589
0.217234 0.387064 2.12563
0.385775 0.387923 2.14657
0.449749 0.403068 2.13884
0.139724 0.459766 2.14164
0.263093 0.452487 2.13205
0.417911 0.469013 2.12692
0.486571 0.452792 2.13556
0.220758 0.508511 2.13861
0.312076 0.491969 2.1376
0.490194 0.521396 2.14111
VERTICES 351 702
1 0
1 1
1 2
1 3
1 4
1 5
1 6
1 7
1 8
1 9
1 10
1 11
1 12
1 13
1 14
1 15
1 16
1 17
1 18
1 19
1 20
1 21
1 22
1 23
1 24
1 25
1 26
1 27
1 28
1 29
1 30
1 31
1 32
1 33
1 34
1 35
1 36
1 37
1 38
1 39
1 40
1 41
1 42
1 43
1 44
1 45
1 46
1 47
1 48
1 49
1 50
1 51
1 52
1 53
1 54
1 55
1 56
1 57
1 58
1 59
1 60
1 61
1 62
1 63
1 64
1 65
1 66
1 67
1 68
1 69
1 70
1 71
1 72
1 73
1 74
1 75
1 76
1 77
1 78
1 79
1 80
1 81
1 82
1 83
1 84
1 85
1 86
1 87
1 88
1 89
1 90
1 91
1 92
1 93
1 94
1 95
1 96
1 97
1 98
1 99
1 100
1 101
1 102
1 103
1 104
1 105
1 106
1 107
1 108
1 109
1 110
1 111
1 112
1 113
1 114
1 115
1 116
1 117
1 118
1 119
1 120
1 121
1 122
1 123
1 124
1 125
1 126
1 127
1 128
1 129
1 130
1 131
1 132
1 133
1 134
1 135
1 136
1 137
1 138
1 139
1 140
1 141
1 142
1 143
1 144
1 145
1 146
1 147
1 148
1 149
1 150
1 151
1 152
1 153
1 154
1 155
1 156
1 157
1 158
1 159
1 160
1 161
1 162
1 163
1 164
1 165
1 166
1 167
1 168
1 169
1 170
1 171
1 172
1 173
1 174
1 175
1 176
1 177
1 178
1 179
1 180
1 181
1 182
1 183
1 184
1 185
1 186
1 187
1 188
1 189
1 190
1 191
1 192
1 193
1 194
1 195
1 196
1 197
1 198
1 199
1 200
1 201
1 202
1 203
1 204
1 205
1 206
1 207
1 208
1 209
1 210
1 211
1 212
1 213
1 214
1 215
1 216
1 217
1 218
1 219
1 220
1 221
1 222
1 223
1 224
1 225
1 226
1 227
1 228
1 229
1 230
1 231
1 232
1 233
1 234
1 235
1 236
1 237
1 238
1 239
1 240
1 241
1 242
1 243
1 244
1 245
1 246
1 247
1 248
1 249
1 250
1 251
1 252
1 253
1 254
1 255
1 256
1 257
1 258
1 259
1 260
1 261
1 262
1 263
1 264
1 265
1 266
1 267
1 268
1 269
1 270
1 271
1 272
1 273
1 274
1 275
1 276
1 277
1 278
1 279
1 280
1 281
1 282
1 283
1 284
1 285
1 286
1 287
1 288
1 289
1 290
1 291
1 292
1 293
1 294
1 295
1 296
1 297
1 298
1 299
1 300
1 301
1 302
1 303
1 304
1 305
1 306
1 307
1 308
1 309
1 310
1 311
1 312
1 313
1 314
1 315
1 316
1 317
1 318
1 319
1 320
1 321
1 322
1 323
1 324
1 325
1 326
1 327
1 328
1 329
1 330
1 331
1 332
1 333
1 334
1 335
1 336
1 337
1 338
1 339
1 340
1 341
1 342
1 343
1 344
1 345
1 346
1 347
1 348
1 349
1 350
POINT_DATA 351
VECTORS i float
0.0 0.0 0.0
0.0 0.0 0.0
0.0 0.0 0.0
0.0 0.0 0.0
0.0 0.0 0.0
0.0 0.0 0.0
0.0 0.0 0.0
0.0 0.0 0.0
0.0 0.0 0.0
0.0 0.0 0.0
0.0 0.0 0.0
0.0 0.0 0.0
0.0 0.0 0.0
0.0 0.0 0.0
0.0 0.0 0.0
0.0 0.0 0.0
0.0 0.0 0.0
0.0 0.0 0.0
0.0 0.0 0.0
0.0 0.0 0.0
0.0 0.0 0.0
0.0 0.0 0.0
0.0 0.0 0.0
0.0 0.0 0.0
0.0 0.0 0.0
0.0 0.0 0.0
0.0 0.0 0.0
0.0 0.0 0.0
0.0 0.0 0.0
0.0 0.0 0.0
0.0 0.0 0.0
0.0 0.0 0.0
0.0 0.0 0.0
0.0 0.0 0.0
0.0 0.0 0.0
0.0 0.0 0.0
0.0 0.0 0.0
0.0 0.0 0.0
0.0 0.0 0.0
0.0 0.0 0.0
0.0 0.0 0.0
0.0 0.0 0.0
0.0 0.0 0.0
0.0 0.0 0.0
0.0 0.0 0.0
0.0 0.0 0.0
0.0 0.0 0.0
0.0 0.0 0.0
0.0 0.0 0.0
0.0 0.0 0.0
0.0 0.0 0.0
0.0 0.0 0.0
0.0 0.0 0.0
0.0 0.0 0.0
0.0 0.0 0.0
0.0 0.0 0.0
0.0 0.0 0.0
0.0 0.0 0.0
0.0 0.0 0.0
0.0 0.0 0.0
0.0 0.0 0.0
0.0 0.0 0.0
0.0 0.0 0.0
0.0 0.0 0.0
0.0 0.0 0.0
0.0 0.0 0.0
0.0 0.0 0.0
0.0 0.0 0.0
0.0 0.0 0.0
0.0 0.0 0.0
0.0 0.0 0.0
0.0 0.0 0.0
0.0 0.0 0.0
0.0 0.0 0.0
0.0 0.0 0.0
0.0 0.0 0.0
0.0 0.0 0.0
0.0 0.0 0.0
0.0 0.0 0.0
0.0 0.0 0.0
0.0 0.0 0.0
0.0 0.0 0.0
0.0 0.0 0.0
0.0 0.0 0.0
0.0 0.0 0.0
0.0 0.0 0.0
0.0 0.0 0.0
0.0 0.0 0.0
0.0 0.0 0.0
0.0 0.0 0.0
0.0 0.0 0.0
0.0 0.0 0.0
0.0 0.0 0.0
0.0 0.0 0.0
0.0 0.0 0.0
0.0 0.0 0.0
0.0 0.0 0.0
0.0 0.0 0.0
0.0 0.0 0.0
0.0 0.0 0.0
0.0 0.0 0.0
0.0 0.0 0.0
0.0 0.0 0.0
0.0 0.0 0.0
0.0 0.0 0.0
0.0 0.0 0.0
0.0 0.0 0.0
0.0 0.0 0.0
0.0 0.0 0.0
0.0 0.0 0.0
0.0 0.0 0.0
0.0 0.0 0.0
0.0 0.0 0.0
0.0 0.0 0.0
0.0 0.0 0.0
0.0 0.0 0.0
0.0 0.0 0.0
0.0 0.0 0.0
0.0 0.0 0.0
0.0 0.0 0.0
0.0 0.0 0.0
0.0 0.0 0.0
0.0 0.0 0.0
0.0 0.0 0.0
0.0 0.0 0.0
0.0 0.0 0.0
0.0 0.0 0.0
0.0 0.0 0.0
0.0 0.0 0.0
0.0 0.0 0.0
0.0 0.0 0.0
0.0 0.0 0.0
0.0 0.0 0.0
0.0 0.0 0.0
0.0 0.0 0.0
0.0 0.0 0.0
0.0 0.0 0.0
0.0 0.0 0.0
0.0 0.0 0.0
0.0 0.0 0.0
0.0 0.0 0.0
0.0 0.0 0.0
0.0 0.0 0.0
0.0 0.0 0.0
0.0 0.0 0.0
0.0 0.0 0.0
0.0 0.0 0.0
0.0 0.0 0.0
0.0 0.0 0.0
0.0 0.0 0.0
0.0 0.0 0.0
0.0 0.0 0.0
0.0 0.0 0.0
0.0 0.0 0.0
0.0 0.0 0.0
0.0 0.0 0.0
0.0 0.0 0.0
0.0 0.0 0.0
0.0 0.0 0.0
0.0 0.0 0.0
0.0 0.0 0.0
0.0 0.0 0.0
0.0 0.0 0.0
0.0 0.0 0.0
0.0 0.0 0.0
0.0 0.0 0.0
0.0 0.0 0.0
0.0 0.0 0.0
0.0 0.0 0.0
0.0 0.0 0.0
0.0 0.0 0.0
0.0 0.0 0.0
0.0 0.0 0.0
0.0 0.0 0.0
0.0 0.0 0.0
0.0 0.0 0.0
0.0 0.0 0.0
0.0 0.0 0.0
0.0 0.0 0.0
0.0 0.0 0.0
0.0 0.0 0.0
0.0 0.0 0.0
0.0 0.0 0.0
0.0 0.0 0.0
0.0 0.0 0.0
0.0 0.0 0.0
0.0 0.0 0.0
0.0 0.0 0.0
0.0 0.0 0.0
0.0 0.0 0.0
0.0 0.0 0.0
0.0 0.0 0.0
0.0 0.0 0.0
0.0 0.0 0.0
0.0 0.0 0.0
0.0 0.0 0.0
0.0 0.0 0.0
0.0 0.0 0.0
0.0 0.0 0.0
0.0 0.0 0.0
0.0 0.0 0.0
0.0 0.0 0.0
0.0 0.0 0.0
0.0 0.0 0.0
0.0 0.0 0.0
0.0 0.0 0.0
0.0 0.0 0.0
0.0 0.0 0.0
0.0 0.0 0.0
0.0 0.0 0.0
0.0 0.0 0.0
0.0 0.0 0.0
0.0 0.0 0.0
0.0 0.0 0.0
0.0 0.0 0.0
0.0 0.0 0.0
0.0 0.0 0.0
0.0 0.0 0.0
0.0 0.0 0.0
0.0 0.0 0.0
0.0 0.0 0.0
0.0 0.0 0.0
0.0 0.0 0.0
0.0 0.0 0.0
0.0 0.0 0.0
0.0 0.0 0.0
0.0 0.0 0.0
0.0 0.0 0.0
0.0 0.0 0.0
0.0 0.0 0.0
0.0 0.0 0.0
0.0 0.0 0.0
0.0 0.0 0.0
0.0 0.0 0.0
0.0 0.0 0.0
0.0 0.0 0.0
0.0 0.0 0.0
0.0 0.0 0.0
0.0 0.0 0.0
0.0 0.0 0.0
0.0 0.0 0.0
0.0 0.0 0.0
0.0 0.0 0.0
0.0 0.0 0.0
0.0 0.0 0.0
0.0 0.0 0.0
0.0 0.0 0.0
0.0 0.0 0.0
0.0 0.0 0.0
0.0 0.0 0.0
0.0 0.0 0.0
0.0 0.0 0.0
0.0 0.0 0.0
0.0 0.0 0.0
0.0 0.0 0.0
0.0 0.0 0.0
0.0 0.0 0.0
0.0 0.0 0.0
0.0 0.0 0.0
0.0 0.0 0.0
0.0 0.0 0.0
0.0 0.0 0.0
0.0 0.0 0.0
0.0 0.0 0.0
0.0 0.0 0.0
0.0 0.0 0.0
0.0 0.0 0.0
0.0 0.0 0.0
0.0 0.0 0.0
0.0 0.0 0.0
0.0 0.0 0.0
0.0 0.0 0.0
0.0 0.0 0.0
0.0 0.0 0.0
0.0 0.0 0.0
0.0 0.0 0.0
0.0 0.0 0.0
0.0 0.0 0.0
0.0 0.0 0.0
0.0 0.0 0.0
0.0 0.0 0.0
0.0 0.0 0.0
0.0 0.0 0.0
0.0 0.0 0.0
0.0 0.0 0.0
0.0 0.0 0.0
0.0 0.0 0.0
0.0 0.0 0.0
0.0 0.0 0.0
0.0 0.0 0.0
0.0 0.0 0.0
0.0 0.0 0.0
0.0 0.0 0.0
0.0 0.0 0.0
0.0 0.0 0.0
0.0 0.0 0.0
0.0 0.0 0.0
0.0 0.0 0.0
0.0 0.0 0.0
0.0 0.0 0.0
0.0 0.0 0.0
0.0 0.0 0.0
0.0 0.0 0.0
0.0 0.0 0.0
0.0 0.0 0.0
0.0 0.0 0.0
0.0 0.0 0.0
0.0 0.0 0.0
0.0 0.0 0.0
0.0 0.0 0.0
0.0 0.0 0.0
0.0 0.0 0.0
0.0 0.0 0.0
0.0 0.0 0.0
0.0 0.0 0.0
0.0 0.0 0.0
0.0 0.0 0.0
0.0 0.0 0.0
0.0 0.0 0.0
0.0 0.0 0.0
0.0 0.0 0.0
0.0 0.0 0.0
0.0 0.0 0.0
0.0 0.0 0.0
0.0 0.0 0.0
0.0 0.0 0.0
0.0 0.0 0.0
0.0 0.0 0.0
0.0 0.0 0.0
0.0 0.0 0.0
0.0 0.0 0.0
0.0 0.0 0.0
0.0 0.0 0.0
0.0 0.0 0.0
0.0 0.0 0.0
0.0 0.0 0.0
0.0 0.0 0.0
0.0 0.0 0.0
0.0 0.0 0.0
0.0 0.0 0.0
0.0 0.0 0.0
0.0 0.0 0.0
0.0 0.0 0.0
0.0 0.0 0.0
0.0 0.0 0.0
0.0 0.0 0.0
0.0 0.0 0.0
0.0 0.0 0.0
0.0 0.0 0.0
0.0 0.0 0.0
0.0 0.0 0.0
VECTORS f float
-0.700797 1.62155 -2.00753
0.0 0.0 -2.77371
0.0 0.0 -2.77371
-0.0773663 -0.266969 -2.38947
0.240772 1.03216 0.265418
0.0 0.0 -2.77371
1.94849 2.76897 8.99029
0.0 0.0 -2.77371
0.0993783 0.765329 -0.490714
1.54839 2.21241 -0.558317
-8.11932e-09 2.03155e-10 1.58725e-07
-0.415662 0.124317 6.11171
-0.245061 2.08377 0.306443
24.8175 -22.4993 8.62678
0.291472 0.49267 -0.117374
16.5431 4.52102 -30.3768
-1.50293 -0.757154 -2.40126
1.36038 -0.245389 0.0635139
-0.00325362 0.000126051 -0.126846
3.2894e-07 -3.8781e-08 -7.97098e-07
-5.61108e-08 1.28508e-08 -0.000168477
0.191139 -1.21561 -2.84007
0.0 0.0 -2.77371
-28.2965 -28.7008 -61.8188
-18.7907 16.3446 -12.3176
-7.39128 -4.2023 39.5968
-0.173748 0.280757 0.147546
-0.0540723 0.00111782 -0.905513
1.70168 0.0655466 4.08857
7.23352e-05 -3.34655e-06 0.00218919
-3.04944e-05 3.45263e-07 -0.000226162
-0.000655719 0.000545426 -0.0195335
6.69853e-07 -2.43708e-07 0.000215091
0.0 0.0 -2.77371
0.0 0.0 -2.77371
0.0 0.0 -2.77371
0.0 0.0 -2.77371
-0.00218222 -3.67393e-05 -0.0619662
-0.465854 -0.999355 0.121874
0.689069 3.36825 2.41086
0.605128 -0.0558105 -1.25196
-0.00433054 -0.000175051 -0.222645
0.0 0.0 -2.77371
0.0 0.0 -2.77371
0.884908 0.408942 0.486009
3.4289 4.3103 -0.855089
-0.40988 0.663349 9.83624
0.00202853 -0.00186493 0.658036
-0.241549 0.0313132 0.153657
0.20977 -0.0308914 -0.137838
2.10161e-07 -6.54438e-08 0.000128899
0.0 0.0 -2.77371
-0.215995 0.864179 -18.7889
0.0 0.0 -2.77371
-16.0898 2.93038 16.7735
0.000434364 -7.45758e-05 0.00191598
2.89086 5.30992 0.511708
-0.0616314 0.0719647 0.910443
-2.78014 -4.66855 -0.17453
3.55268e-06 3.03768e-07 0.000122829
9.5539e-05 -2.4947e-05 0.000615663
-6.6186e-07 2.84121e-07 -1.45048e-05
1.18386e-08 -3.34578e-09 -5.9495e-07
0.0 0.0 -2.77371
17.853 3.40424 33.5757
85.3294 -8.20624 33.1826
0.0 0.0 -2.77371
0.0672169 0.0870709 -2.20887
0.0 0.0 -2.77371
-0.556522 -2.51572 0.721301
20.8384 7.65528 10.2884
1.9151e-06 -2.76812e-07 3.61916e-05
-1.30439e-06 1.68941e-07 -6.36877e-05
-4.02516 -8.04651 14.914
-37.9017 -19.1607 -22.2338
0.0 0.0 -2.77371
-0.416847 0.293652 -0.635653
-0.00198314 0.000135041 -0.0504109
0.0901068 -0.263791 -0.580236
-4.60424 2.89473 -8.78247
-0.03214 -1.37473 2.27295
4.96996 8.22692 0.521506
1.27519 0.800926 -0.798711
-0.0536448 0.000350805 -1.05108
-0.12433 -0.0741105 1.26651
-0.00572963 -0.00019969 0.456876
0.0 0.0 -2.77371
17.038 -3.76185 26.1037
0.00633111 0.0131439 -0.236946
1.47919 -5.22588 -4.37527
10.688 -2.99036 19.4232
0.000920158 0.02577 0.796268
0.16156 3.0683 -0.525752
1.78103 -2.31228 -2.87172
0.0 0.0 -2.77371
0.0 0.0 -2.77371
0.0 0.0 -2.77371
0.0 0.0 -2.77371
-6.60692 -11.4218 -4.30604
1.18244 -0.0528885 -0.406472
4.171 -10.381 -0.917787
0.00343958 -0.000411911 -0.00933099
-0.0681671 -0.137065 0.81361
2.2489 1.40631 1.1156
-2.47167 1.31649 -1.55269
0.449402 0.906624 -7.12683
-1.07943 -0.652915 -0.90779
-0.604136 -0.658741 -4.36136
-0.000111779 2.13574e-06 -0.00176602
-1.30142e-06 -2.70236e-07 -0.000176253
-0.0012493 -0.000464518 -0.0866062
-3.35322 1.03043 57.4039
3.16896 1.91785 -0.630157
-0.209855 -1.64104 -0.298696
-0.0546973 0.350148 -0.126705
-8.13149e-05 -4.17877e-06 -0.00341992
0.0 0.0 -2.77371
0.0 0.0 -2.77371
-0.0134327 -0.000789183 -0.0723268
-6.24748 -9.1332 6.09075
5.07217 11.0388 0.503347
31.1323 -13.7259 27.3826
-4.87815 -2.17806 0.787263
0.00539004 -1.04923 -0.931005
-0.316615 0.0577601 -3.11445
-0.361178 4.40366 -4.01633
0.0975551 -0.106299 0.429116
1.63742 2.60953 -0.312235
0.0157696 -0.7502 -0.523446
0.812482 1.25605 -0.237419
-1.32352e-05 -3.4859e-07 -0.000970191
0.0 0.0 -2.77371
-2.78992e-05 -0.988576 -0.988985
4.19883 5.09454 0.0449215
0.458272 1.2329 -1.78413
-0.890534 -0.410596 -2.94408
0.953405 0.48858 -2.45692
-0.892282 -4.91515 6.19878
0.0 0.0 -2.77371
0.968328 -0.878889 -5.22792
0.0 0.0 -2.77371
6.64817 -12.8993 57.9428
-0.812573 -0.499964 0.144513
0.0 0.0 -2.77371
0.0 0.0 -2.77371
0.0 0.0 -2.77371
-8.69617 -1.22655 49.1135
-0.670946 0.541333 -2.96914
12.641 5.35202 28.6956
0.0 0.0 -2.77371
0.338176 1.03086 4.3663
0.0 0.0 -2.77371
-0.07929 1.59267 2.8142
0.699076 1.59102 4.34829
0.0 0.0 -2.77371
18.0718 5.8741 24.9706
0.0 0.0 -2.77371
-6.25294 7.66078 -13.8676
0.0555126 -0.387534 -4.49855
1.55425 -0.788932 31.0076
5.96957 -9.51987 13.7052
41.6672 19.3321 24.2252
11.6805 -11.2992 38.1725
16.1941 22.5659 7.79219
31.6836 -9.94132 -97.9405
0.0 0.0 -2.77371
5.88564 -3.11926 5.79902
-1.19153 -1.82934 -4.2139
-0.639085 -2.60149 1.80675
0.0 0.0 -2.77371
3.55348 -9.8282 9.99133
-0.129566 0.0688384 -1.10992
2.59913 0.653954 5.32472
-0.695588 -0.671172 0.10371
12.9443 11.049 52.9737
0.0 0.0 -2.77371
0.0 0.0 -2.77371
0.0 0.0 -2.77371
0.0711756 -0.99245 0.198518
0.399927 -0.186651 -0.467247
0.33622 -0.889586 -0.732834
-0.532908 3.57661 0.187766
0.0 0.0 -2.77371
0.0 0.0 -2.77371
0.307625 -0.25115 -2.51333
0.0 0.0 -2.77371
19.2501 24.0147 31.1614
-0.208541 -0.36131 -2.90382
-2.77576 1.93117 3.57906
0.0 0.0 -2.77371
0.0 0.0 -2.77371
0.0 0.0 -2.77371
0.0 0.0 -2.77371
0.0 0.0 -2.77371
0.0 0.0 -2.77371
-0.371917 3.30066 2.09446
19.8208 5.08427 -5.11192
-0.579661 -0.260367 -0.905219
0.670946 -0.541333 -2.57828
24.712 -9.36335 33.1788
6.25294 -7.66078 8.32014
0.0 0.0 -2.77371
9.46578 -17.088 12.7641
-15.1803 -15.3936 -31.2645
-16.8837 16.7727 -20.8752
0.0 0.0 -2.77371
0.0 0.0 -2.77371
-6.45247 -1.9537 5.51375
-31.6836 9.94132 92.3931
-1.29357 1.21001 4.74135
3.49299 -10.9075 -51.7719
1.00909 -0.512424 -3.53924
0.0 0.0 -2.77371
0.0 0.0 -2.77371
0.0 0.0 -2.77371
0.0 0.0 -2.77371
0.0 0.0 -2.77371
0.0 0.0 -2.77371
0.149022 1.02646 -0.969603
0.0 0.0 -2.77371
0.0 0.0 -2.77371
0.0 0.0 -2.77371
1.49583 6.0744 -0.154791
0.0 0.0 -2.77371
0.0 0.0 -2.77371
17.1719 24.8431 6.72235
-0.338176 -1.03086 -9.91373
6.45247 1.9537 -11.0612
13.805 11.4967 22.7556
1.96763 -0.216214 -4.03986
0.0 0.0 -2.77371
-1.13808 -1.20404 -5.68301
14.3408 -24.9374 -58.6913
0.0 0.0 -2.77371
0.0 0.0 -2.77371
0.0 0.0 -2.77371
0.0 0.0 -2.77371
0.0 0.0 -2.77371
0.0 0.0 -2.77371
0.0 0.0 -2.77371
1.37525 3.89692 0.187799
16.8837 -16.7727 15.3278
0.0 0.0 -2.77371
-3.863 14.0214 42.4095
0.0 0.0 -2.77371
-13.2027 26.1414 56.0532
0.0 0.0 -2.77371
0.0 0.0 -2.77371
-20.5103 -17.7065 -6.51703
20.5103 17.7065 0.969602
0.0 0.0 -2.77371
0.0 0.0 -2.77371
0.0 0.0 -2.77371
0.0 0.0 -2.77371
0.0 0.0 -2.77371
0.0 0.0 -2.77371
0.0 0.0 -2.77371
0.0 0.0 -2.77371
0.0 0.0 -2.77371
0.0 0.0 -2.77371
0.0 0.0 -2.77371
0.0 0.0 -2.77371
0.0 0.0 -2.77371
0.0 0.0 -2.77371
0.0 0.0 -2.77371
0.0 0.0 -2.77371
0.0 0.0 -2.77371
0.0 0.0 -2.77371
0.0 0.0 -2.77371
0.0 0.0 -2.77371
0.0 0.0 -2.77371
0.0 0.0 -2.77371
0.0 0.0 -2.77371
0.0 0.0 -2.77371
0.0 0.0 -2.77371
0.0 0.0 -2.77371
0.0 0.0 -2.77371
0.0 0.0 -2.77371
0.0 0.0 -2.77371
0.0 0.0 -2.77371
0.0 0.0 -2.77371
0.0 0.0 -2.77371
0.0 0.0 -2.77371
0.0 0.0 -2.77371
0.0 0.0 -2.77371
0.0 0.0 -2.77371
0.0 0.0 -2.77371
0.0 0.0 -2.77371
0.0 0.0 -2.77371
0.0 0.0 -2.77371
0.0 0.0 -2.77371
0.0 0.0 -2.77371
0.0 0.0 -2.77371
0.0 0.0 -2.77371
0.0 0.0 -2.77371
0.0 0.0 -2.77371
0.0 0.0 -2.77371
0.0 0.0 -2.77371
0.0 0.0 -2.77371
0.0 0.0 -2.77371
0.0 0.0 -2.77371
0.0 0.0 -2.77371
0.0 0.0 -2.77371
0.0 0.0 -2.77371
0.0 0.0 -2.77371
0.0 0.0 -2.77371
0.0 0.0 -2.77371
0.0 0.0 -2.77371
0.0 0.0 -2.77371
0.0 0.0 -2.77371
0.0 0.0 -2.77371
0.0 0.0 -2.77371
0.0 0.0 0.0
0.0 0.0 0.0
0.0 0.0 0.0
0.0 0.0 0.0
0.0 0.0 0.0
0.0 0.0 0.0
0.0 0.0 0.0
0.0 0.0 0.0
0.0 0.0 0.0
0.0 0.0 0.0
0.0 0.0 0.0
0.0 0.0 0.0
0.0 0.0 0.0
0.0 0.0 0.0
0.0 0.0 0.0
0.0 0.0 0.0
0.0 0.0 0.0
0.0 0.0 0.0
0.0 0.0 0.0
0.0 0.0 0.0
0.0 0.0 0.0
0.0 0.0 0.0
0.0 0.0 0.0
0.0 0.0 0.0
0.0 0.0 0.0
0.0 0.0 0.0
0.0 0.0 0.0
0.0 0.0 0.0
0.0 0.0 0.0
0.0 0.0 0.0
0.0 0.0 0.0
0.0 0.0 0.0
0.0 0.0 0.0
0.0 0.0 0.0
0.0 0.0 0.0
0.0 0.0 0.0
0.0 0.0 0.0
0.0 0.0 0.0
0.0 0.0 0.0
VECTORS omega float
4.2345 -107.758 44.958
2.7575 -106.295 16.9162
13.782 -103.96 -0.399904
-7.39913 -53.5009 52.8382
13.8083 -35.9495 31.7161
-5.94957 -50.6485 18.3152
-1.04821 -49.0494 17.7535
-0.567536 -42.2031 3.34322
-7.13768 -17.5885 34.7142
2.62266 -54.636 -1.20646
-1.42375 -56.9028 7.78044
-4.32514 -42.6053 13.4518
5.53758 -32.5967 15.8689
-6.61533 -68.108 13.6635
2.90698 -65.6776 -8.02968
-5.17122 -41.0458 -11.4681
-2.69686 -45.6515 7.22346
-3.08258 -17.7732 -11.2245
-1.85482 -47.88 25.9073
-5.62552 -47.7156 12.0898
-7.23542 -31.6381 16.3138
1.54988 -42.3741 6.64434
-3.82789 -102.812 -20.2925
-27.2524 -61.6919 -4.61077
11.2878 -61.5775 -16.4743
5.24457 -76.152 4.93025
-1.63291 -64.547 -5.81042
-0.678671 -50.8618 -10.1374
-9.69746 -49.0104 -1.44739
-2.24391 -48.5051 -0.84359
-0.58241 -51.4397 2.31498
-2.017 -33.7149 -0.654217
-11.8635 -32.6119 -4.39747
-5.16307 -70.6378 11.0501
6.52771 -71.5467 -4.01528
8.65026 -69.0854 -6.58055
-1.09719 -56.1378 -17.3524
1.22838 -51.6896 7.25046
0.909499 -63.4968 -19.1636
-0.109482 -45.7174 8.06269
-2.8869 -44.3982 10.2401
0.600468 -40.2378 -11.0398
-2.02631 -64.1694 -27.4781
64.2675 0.34886 -9.53352
-4.62645 -48.4378 -3.49619
-3.67566 -44.1904 -1.996
7.52259 -34.7759 8.33666
-9.11205 -33.2521 -6.50566
-3.53846 -27.068 10.3231
-8.65161 -25.6375 -3.1355
-12.8279 -41.2054 -0.699319
-8.12138 -89.1312 -3.90733
10.8513 -65.923 -5.92999
-23.3448 -88.3402 -13.3543
0.211199 -90.5934 0.841538
-0.846144 -54.6601 15.3641
4.60189 -61.2108 -0.263601
2.39577 -54.8086 -5.34888
-4.91887 -55.2792 4.45261
4.60709 -53.8818 -1.02484
-11.1655 -42.7602 3.81202
-21.1807 -49.3404 13.4693
-12.9402 -45.787 -21.4965
18.8485 -97.092 16.2658
-6.33728 -40.4565 15.4081
17.2894 -21.3538 -11.1219
-1.13375 -56.236 -13.8713
-8.36869 -59.3995 -9.18525
-21.9829 41.8924 -4.47488
-1.57138 -51.8349 8.67104
-8.07706 -29.0272 14.1594
-7.15534 -49.5036 -0.0671464
-5.40983 -41.7693 -1.68449
21.8463 -75.9212 7.35862
-9.18913 12.2776 -5.27655
-6.29331 -80.1235 -3.43767
-2.82043 -58.4442 8.53798
-3.88668 -56.5248 -4.99873
-0.699084 -48.0361 3.74237
11.8667 41.3896 15.338
-5.41036 -57.5046 -3.75797
-1.09391 -54.6716 -10.1551
-2.70944 -37.3545 -0.217933
4.33854 -41.918 -5.53888
-11.5233 -37.8092 0.781606
-4.21746 -42.2615 -4.0245
-3.3009 -99.5952 -5.35004
4.85509 -3.34662 18.2766
5.06929 -60.7171 6.23814
2.47867 -52.8447 -14.5918
18.2384 18.4646 3.23899
3.51526 -47.7201 3.47607
1.65024 -52.9486 6.76171
4.01979 -43.6926 -11.0958
-3.67901 -31.6943 12.5031
12.707 -26.5302 1.8725
-10.9798 30.4883 6.81482
18.8035 -90.7944 -5.28952
-10.0312 -65.1026 22.5174
-18.5649 13.29 -15.7851
-7.22983 -62.3502 21.1685
-7.06435 -59.5418 -6.10355
-1.09185 -51.8771 -0.338221
-3.75797 -65.9137 1.09822
5.25876 -44.6272 12.4919
-8.07633 -63.6637 7.42679
3.60551 -49.1102 3.94649
4.17761 -34.6635 22.6744
-0.915181 -47.8952 7.03729
9.73156 -46.8657 -12.2573
6.46665 -26.4166 -3.06119
-11.6325 -75.6076 -11.5749
-1.80347 -55.0777 0.291783
8.1571 -46.4819 -21.6222
1.06338 -39.71 -14.2234
1.73724 -32.9995 12.2029
17.1715 -3.71934 10.6634
-1.2666 -12.4742 6.51084
7.20201 -122.6 -15.6854
-0.169794 -95.0504 -15.8648
-0.0711275 -68.2716 -24.6434
-22.2653 -60.1256 7.73378
-5.08753 -61.9916 -13.9224
2.69503 -92.6929 4.10977
2.5073 -55.6637 -11.2599
27.566 -26.0669 -14.5953
5.22326 -55.6382 -24.7333
2.86998 -52.5466 -12.7476
4.71996 -61.0199 -11.335
-1.63027 -47.6176 -24.111
1.13085 -42.7826 -10.9011
4.56748 -20.9404 -22.7402
9.44443 -62.4158 -19.1295
15.3874 -21.1305 71.7272
17.8685 21.2139 -25.008
18.3006 -45.4684 27.2693
36.7136 -20.5514 22.2514
10.7881 -47.7628 49.2243
-3.86968 -14.3791 49.0289
15.7602 73.8903 -16.3446
45.7939 1.9703 -2.34604
17.4323 6.23524 1.25865
-12.7826 4.88514 18.5393
-36.7399 52.1372 6.61874
23.7129 -23.7356 -9.99585
16.8751 4.60626 -10.5166
16.6806 24.0474 -0.458205
-19.1577 23.7268 5.42092
-2.56306 54.5205 -4.51377
8.65268 81.5653 -4.79017
2.57618 -9.79395 -4.17262
-0.0479203 51.1315 19.2426
9.78845 40.1522 1.12357
-29.5122 20.031 2.51796
43.6618 -0.432141 -18.0895
6.64405 83.9185 4.48855
-10.6846 -11.7807 -10.7278
10.7654 19.6596 0.695627
29.5555 42.5585 20.5885
12.8015 11.6423 13.444
5.76751 38.214 7.85503
6.89961 -3.68437 -2.65169
33.0443 -19.87 -11.0913
21.9557 63.6301 17.8437
-0.0969413 37.0693 4.10796
6.17913 -6.51703 -15.9204
10.7846 44.8287 -9.23644
8.63759 38.4163 16.0399
22.9881 -5.49387 -1.08955
-54.4663 5.1234 1.99048
3.22138 44.8587 18.5629
-14.6163 36.3901 3.72849
-1.09972 70.1396 -9.10361
1.69108 49.4842 -0.634536
-9.69609 33.7049 10.4878
-8.31205 47.6484 -1.00529
-17.8219 -70.9369 -44.5524
-15.3976 -91.739 -43.2868
-1.5781 -93.7575 -5.40886
3.13284 -41.5725 -34.4312
6.76023 -52.3954 -39.548
2.54574 34.9956 6.39964
20.7529 -50.4871 -21.8096
-21.2088 -18.5111 -42.3216
-7.08691 -48.9947 58.5986
15.9282 -3.28665 49.8992
21.1485 1.41674 11.5201
-9.72434 -57.4655 22.1713
-10.2372 29.4677 -18.8122
15.533 47.6505 -11.8135
-25.6916 42.5396 16.5857
4.47446 5.14366 10.1404
-22.1676 -6.69451 10.8914
2.23725 44.1383 0.287969
-0.548724 -50.7094 11.1851
27.1385 37.8541 1.66621
3.58184 2.77578 13.2567
2.40564 62.6795 -3.88547
-1.9754 29.9129 6.83318
-9.2348 -74.328 -17.3735
0.92561 -22.0925 3.5458
18.8002 79.424 35.4142
14.4585 -11.5165 -23.9481
-2.54805 -14.734 -5.44616
-23.1641 1.9307 -5.4904
-3.57633 -23.4717 -1.26311
3.29131 36.5695 -10.5942
11.5371 -71.1966 -4.15999
-2.69787 -38.3458 17.3462
3.2542 33.009 -14.2666
-36.5345 -6.30078 1.54435
0.26324 19.2308 2.53905
-24.2038 -2.74584 11.8188
39.3928 40.5261 -20.3942
13.1289 31.0248 4.82269
-54.7613 -13.5687 20.3051
30.3487 14.419 -2.11543
-12.2244 23.0268 -5.41951
14.395 -4.61303 50.1479
-12.0056 14.9585 -39.0896
-12.7795 40.4978 -19.4726
11.8778 -14.9316 -2.50997
-6.99472 -32.8831 19.8335
-34.0467 0.60998 -8.20603
-46.7161 -41.2409 21.7677
-5.18271 22.994 13.1209
-28.7511 12.4779 7.82557
17.6736 -1.46426 12.5756
-18.902 10.1007 0.50098
-5.86736 -27.5107 -19.9635
0.0 0.0 0.0
15.0721 28.8147 -0.0288128
-24.341 -20.8893 -19.2823
-18.896 16.9415 10.9234
5.86647 44.3142 14.2291
21.6242 -2.86575 38.2443
-26.2404 -32.0218 -8.75879
0.0 0.0 0.0
-19.8496 -4.9936 -4.84396
30.2807 -7.08844 1.33819
11.7528 0.154559 -8.29228
13.6916 2.4485 -4.51776
-12.1739 -3.96001 0.334259
0.177757 -0.228607 0.0861893
-13.2031 -1.61553 5.54631
-18.4741 -20.3103 12.8059
9.59834 70.3093 5.44313
-14.6984 15.9998 -28.3294
-31.4485 19.5763 -6.70322
-1.3911 2.6937 -5.17537
-10.4262 8.60194 -0.139025
0.0 0.0 0.0
0.0 0.0 0.0
0.0 0.0 0.0
0.0 0.0 0.0
0.0 0.0 0.0
0.0 0.0 0.0
0.0 0.0 0.0
0.0 0.0 0.0
0.0 0.0 0.0
0.0 0.0 0.0
0.0 0.0 0.0
0.0 0.0 0.0
0.0 0.0 0.0
0.0 0.0 0.0
0.0 0.0 0.0
0.0 0.0 0.0
0.0 0.0 0.0
0.0 0.0 0.0
0.0 0.0 0.0
0.0 0.0 0.0
0.0 0.0 0.0
0.0 0.0 0.0
0.0 0.0 0.0
0.0 0.0 0.0
0.0 0.0 0.0
0.0 0.0 0.0
0.0 0.0 0.0
0.0 0.0 0.0
0.0 0.0 0.0
0.0 0.0 0.0
0.0 0.0 0.0
0.0 0.0 0.0
0.0 0.0 0.0
0.0 0.0 0.0
0.0 0.0 0.0
0.0 0.0 0.0
0.0 0.0 0.0
0.0 0.0 0.0
0.0 0.0 0.0
0.0 0.0 0.0
0.0 0.0 0.0
0.0 0.0 0.0
0.0 0.0 0.0
0.0 0.0 0.0
0.0 0.0 0.0
0.0 0.0 0.0
0.0 0.0 0.0
0.0 0.0 0.0