# vtk DataFile Version 2.0
Generated by lpp.py
ASCII
DATASET POLYDATA
POINTS 352 float
0.064774 0.169977 1.59403
0.410409 0.170148 1.59442
0.562854 0.16454 1.59832
0.616987 0.183427 1.58033
0.835407 0.195836 1.57657
1.00245 0.192402 1.57742
1.07062 0.188027 1.57646
1.14815 0.189937 1.57678
1.32977 0.187003 1.57689
1.42325 0.171371 1.59156
0.324778 0.193856 1.59043
0.691766 0.201556 1.57682
1.2067 0.200043 1.57719
1.38562 0.215337 1.57677
0.231448 0.236711 1.57657
0.335894 0.260392 1.58079
0.398243 0.262685 1.58074
0.463726 0.260079 1.57766
0.538932 0.233853 1.57687
0.623577 0.242226 1.57741
0.739557 0.23951 1.57606
0.793462 0.231789 1.59912
0.890346 0.243089 1.57691
0.968483 0.241065 1.57661
1.0336 0.254619 1.57588
1.09235 0.243601 1.57709
1.15375 0.255237 1.57686
1.25335 0.239681 1.57719
1.4575 0.234957 1.57686
0.283312 0.294045 1.57702
0.584005 0.285571 1.57629
0.644456 0.298772 1.57588
0.74552 0.29846 1.57734
0.816094 0.283907 1.57685
0.926621 0.292412 1.57709
0.986846 0.297723 1.58205
1.30424 0.273497 1.5768
1.37337 0.2847 1.57686
0.164683 0.332002 1.57509
0.520928 0.31454 1.57861
0.696743 0.332708 1.57678
0.869219 0.313807 1.59206
1.05919 0.310678 1.57688
0.230962 0.359481 1.57775
0.361978 0.368477 1.58269
0.431338 0.351572 1.5767
0.582617 0.350797 1.57822
0.829109 0.355688 1.57686
1.01481 0.350917 1.57699
0.139683 0.404098 1.57478
0.275158 0.400819 1.58741
0.519238 0.377407 1.58012
0.664533 0.385089 1.57701
0.759732 0.385196 1.57697
1.09189 0.386651 1.57781
1.1558 0.40415 1.58907
1.28542 0.377387 1.579
0.0593971 0.41367 1.57922
0.229239 0.441688 1.57693
0.487753 0.436351 1.57665
0.687151 0.443309 1.57678
0.812879 0.413587 1.5768
0.959298 0.415777 1.57681
1.23203 0.42779 1.57686
0.360729 0.466774 1.5812
0.825864 0.47588 1.57698
0.910324 0.465605 1.57694
1.00986 0.447903 1.57707
1.08118 0.458833 1.57689
1.52281 0.469226 1.57686
0.171804 0.488559 1.57488
0.424288 0.483857 1.57633
0.543994 0.490732 1.57686
0.62477 0.507637 1.57775
0.770263 0.510609 1.577
0.941188 0.517289 1.57703
1.02101 0.507367 1.57647
0.118424 0.526213 1.59487
0.40173 0.541354 1.58175
0.854214 0.534813 1.58054
1.10535 0.547785 1.57686
1.43338 0.522474 1.57686
1.61129 0.531261 1.57686
0.0744376 0.561851 1.57637
0.179772 0.558736 1.58035
0.30671 0.575467 1.58448
0.546514 0.571854 1.58073
0.608936 0.572131 1.58415
0.721593 0.566225 1.5762
0.784661 0.569395 1.58058
0.982992 0.560831 1.57688
1.04156 0.5728 1.5833
1.18467 0.564456 1.57688
1.25737 0.569782 1.5774
1.36899 0.554273 1.57688
1.41851 0.584647 1.59389
1.47791 0.57316 1.58704
0.488385 0.159172 1.60544
0.662667 0.14359 1.61936
1.05847 0.146414 1.6174
0.181595 0.167351 1.59494
0.392434 0.218836 1.6387
0.165964 0.268261 1.5941
0.240636 0.268177 1.62588
0.0407091 0.299651 1.60682
0.299281 0.272967 1.63415
0.497982 0.274107 1.62262
0.104394 0.312573 1.59406
0.2004 0.313287 1.61652
0.295486 0.335749 1.62531
0.422289 0.307197 1.61619
0.474536 0.333504 1.61112
0.17946 0.388354 1.61921
0.449343 0.394255 1.61448
0.861806 0.393638 1.61787
1.03572 0.402379 1.63035
0.378628 0.415783 1.61245
0.500748 0.418502 1.63232
0.717399 0.413011 1.62713
0.174177 0.458492 1.63248
0.304269 0.452856 1.60179
0.432851 0.453503 1.62652
0.598191 0.468801 1.62383
0.954493 0.467232 1.61745
0.21859 0.497179 1.60699
0.453298 0.51464 1.61834
0.283552 0.520989 1.60225
0.520905 0.532537 1.62471
0.587147 0.528262 1.62422
0.656381 0.525561 1.62678
0.204854 0.572942 1.64139
0.479674 0.578663 1.6294
0.425071 0.594287 1.60419
0.671252 0.613388 1.62266
0.727438 0.590838 1.62983
0.896054 0.610243 1.6199
0.822864 0.100107 1.66409
0.440843 0.124295 1.64088
0.771835 0.12875 1.63421
0.497189 0.188901 1.65978
0.0545416 0.234402 1.64328
0.133827 0.22839 1.63059
0.449031 0.226647 1.66946
0.880497 0.194635 1.6486
0.531766 0.240922 1.66773
0.995125 0.250759 1.63852
0.35726 0.281198 1.64409
0.888355 0.305268 1.64828
0.387499 0.366615 1.64389
0.699416 0.344609 1.63617
0.257417 0.378256 1.64102
0.330946 0.392411 1.64411
0.645309 0.399323 1.65419
0.285562 0.427031 1.65862
0.373641 0.438948 1.66837
0.425352 0.409121 1.66597
0.575472 0.420653 1.65459
0.106832 0.451129 1.62408
0.500063 0.477562 1.6282
0.850082 0.454125 1.65653
0.260747 0.4868 1.64501
0.339257 0.489876 1.63943
0.682057 0.482206 1.66227
1.05997 0.496721 1.64539
0.30702 0.544111 1.65964
0.38429 0.52664 1.65186
0.744007 0.531614 1.64052
0.824464 0.527834 1.64102
0.993804 0.534609 1.66624
0.901432 0.653418 1.6626
0.774011 0.657392 1.67109
0.527845 0.0865492 1.6764
0.22195 0.300597 1.66885
0.476673 0.304469 1.66661
0.445589 0.353499 1.66871
0.502405 0.382651 1.68049
0.320374 0.462789 1.68996
0.422576 0.484958 1.67361
0.180109 0.517525 1.6728
0.554218 0.618166 1.69559
0.194801 0.346924 1.69357
0.397479 0.514143 1.7216
0.136852 0.289242 1.71858
0.416409 0.288456 1.72213
0.269256 0.359202 1.73781
0.218921 0.397847 1.73846
0.428381 0.4467 1.72845
0.466202 0.49757 1.74599
0.211371 0.280829 1.75478
0.305852 0.287522 1.7815
0.485374 0.358108 1.77142
0.349719 0.399621 1.7559
0.422187 0.378047 1.77957
0.169637 0.459874 1.77408
0.245914 0.511668 1.75275
0.103225 0.518985 1.78117
0.260718 0.244031 1.79137
0.499385 0.279499 1.79545
0.373442 0.329195 1.79913
0.102791 0.340368 1.8003
0.174537 0.231131 1.85635
0.346739 0.243699 1.84832
0.411604 0.238101 1.83731
0.108104 0.281799 1.85459
0.157239 0.333515 1.86022
0.478405 0.411198 1.85161
0.370548 0.454286 1.85622
0.469838 0.243492 1.89093
0.189941 0.428545 1.89375
0.267329 0.456169 1.89469
0.43276 0.446836 1.89307
0.209404 0.487055 1.86659
0.341446 0.508108 1.88443
0.283642 0.234209 1.92456
0.268169 0.352895 1.9246
0.478946 0.338932 1.92581
0.121741 0.410905 1.91669
0.496878 0.474265 1.92635
0.122063 0.498448 1.91465
0.429885 0.51089 1.9097
0.144959 0.253084 1.95775
0.225054 0.287898 1.93698
0.353756 0.288308 1.96137
0.33513 0.393755 1.95422
0.287754 0.512498 1.95896
0.222298 0.231508 1.98828
0.419349 0.297497 1.9764
0.107864 0.308056 1.9797
0.32031 0.335135 1.9987
0.216531 0.381594 1.9837
0.434422 0.399982 1.97297
0.177321 0.473873 1.97757
0.3755 0.471214 1.97177
0.482317 0.228242 2.02685
0.100828 0.246005 2.04482
0.386528 0.235346 2.02229
0.17305 0.29572 2.01845
0.280967 0.269166 2.02557
0.470734 0.315695 2.03531
0.383297 0.361785 2.04298
0.142292 0.405308 2.0317
0.289149 0.393948 2.02094
0.10269 0.478868 2.02865
0.265427 0.473439 2.0182
0.338206 0.47604 2.04541
0.405771 0.451899 2.04397
0.487332 0.44601 2.02039
0.230707 0.52291 2.01535
0.477819 0.52568 2.04082
0.227735 0.245208 2.07361
0.334084 0.267131 2.05623
0.283481 0.328862 2.07466
0.383935 0.304407 2.06118
0.104364 0.371175 2.06875
0.189473 0.369831 2.06465
0.433942 0.344323 2.07524
0.495324 0.379459 2.04665
0.124882 0.444445 2.07537
0.238696 0.425254 2.05413
0.367427 0.412219 2.07779
0.307197 0.231054 2.10934
0.410316 0.229607 2.08717
0.112238 0.243444 2.11138
0.479511 0.263195 2.0825
0.338106 0.302046 2.11158
0.488965 0.329122 2.10107
0.26384 0.382845 2.11039
0.292698 0.428673 2.08157
0.436973 0.45447 2.0986
0.498994 0.449521 2.09904
0.197767 0.505506 2.10969
0.387806 0.497135 2.08601
0.10683 0.52412 2.09027
0.498691 0.522189 2.10147
0.498503 0.253983 2.14572
0.196779 0.286134 2.12798
0.144627 0.329159 2.11743
0.322732 0.35929 2.14017
0.388723 0.350133 2.12272
0.179678 0.383211 2.13608
0.404531 0.416433 2.13679
0.180002 0.445959 2.13427
0.336562 0.447813 2.1253
0.133145 0.50156 2.1451
0.316599 0.507618 2.12974
0.4192 0.521596 2.13807
0.299287 0.247375 2.16679
0.442411 0.236129 2.16895
0.126939 0.284236 2.17643
0.432796 0.302258 2.15979
0.187834 0.32549 2.18014
0.345572 0.308923 2.17327
0.476186 0.343657 2.16982
0.499396 0.409304 2.16395
0.282511 0.427246 2.18226
0.230608 0.478968 2.15273
0.180798 0.510604 2.18163
0.383426 0.485675 2.1755
0.196226 0.26238 2.19567
0.356376 0.254196 2.1977
0.44222 0.295647 2.22067
0.256147 0.321804 2.19011
0.110703 0.374435 2.19211
0.415762 0.389621 2.19827
0.475094 0.383761 2.21966
0.214879 0.429082 2.20971
0.107302 0.455042 2.19596
0.49838 0.508374 2.20212
0.339305 0.526873 2.21754
0.271982 0.260644 2.2308
0.321856 0.294278 2.22913
0.125428 0.344451 2.24441
0.189012 0.364304 2.25306
0.346145 0.350757 2.22426
0.415188 0.353574 2.24906
0.282424 0.374546 2.23858
0.115455 0.44409 2.2545
0.323589 0.424937 2.2471
0.466199 0.451954 2.22462
0.104255 0.515661 2.23241
0.236464 0.494005 2.22237
0.430217 0.500721 2.22499
0.103324 0.228818 2.25871
0.161403 0.258279 2.25827
0.363615 0.240431 2.26399
0.425069 0.242959 2.26512
0.499192 0.246026 2.26267
0.31493 0.348737 2.28385
0.40415 0.414672 2.26454
0.158807 0.499296 2.27065
0.370433 0.49856 2.26148
0.264146 0.523422 2.26795
0.220666 0.238837 2.30734
0.393674 0.233628 2.32132
0.17717 0.298235 2.3192
0.257372 0.298287 2.29437
0.314466 0.284399 2.31272
0.492483 0.279077 2.3144
0.417494 0.317622 2.31147
0.107591 0.339963 2.32367
0.484684 0.362834 2.29124
0.125062 0.39201 2.29589
0.217234 0.387064 2.30563
0.449749 0.403068 2.31884
0.139724 0.459766 2.32164
0.263093 0.452487 2.31205
0.417911 0.469013 2.30692
0.486571 0.452792 2.31556
0.220758 0.508511 2.31861
0.312076 0.491969 2.3176
0.490194 0.521396 2.32111
0.385775 0.387923 2.32657
VERTICES 352 704
1 0
1 1
1 2
1 3
1 4
1 5
1 6
1 7
1 8
1 9
1 10
1 11
1 12
1 13
1 14
1 15
1 16
1 17
1 18
1 19
1 20
1 21
1 22
1 23
1 24
1 25
1 26
1 27
1 28
1 29
1 30
1 31
1 32
1 33
1 34
1 35
1 36
1 37
1 38
1 39
1 40
1 41
1 42
1 43
1 44
1 45
1 46
1 47
1 48
1 49
1 50
1 51
1 52
1 53
1 54
1 55
1 56
1 57
1 58
1 59
1 60
1 61
1 62
1 63
1 64
1 65
1 66
1 67
1 68
1 69
1 70
1 71
1 72
1 73
1 74
1 75
1 76
1 77
1 78
1 79
1 80
1 81
1 82
1 83
1 84
1 85
1 86
1 87
1 88
1 89
1 90
1 91
1 92
1 93
1 94
1 95
1 96
1 97
1 98
1 99
1 100
1 101
1 102
1 103
1 104
1 105
1 106
1 107
1 108
1 109
1 110
1 111
1 112
1 113
1 114
1 115
1 116
1 117
1 118
1 119
1 120
1 121
1 122
1 123
1 124
1 125
1 126
1 127
1 128
1 129
1 130
1 131
1 132
1 133
1 134
1 135
1 136
1 137
1 138
1 139
1 140
1 141
1 142
1 143
1 144
1 145
1 146
1 147
1 148
1 149
1 150
1 151
1 152
1 153
1 154
1 155
1 156
1 157
1 158
1 159
1 160
1 161
1 162
1 163
1 164
1 165
1 166
1 167
1 168
1 169
1 170
1 171
1 172
1 173
1 174
1 175
1 176
1 177
1 178
1 179
1 180
1 181
1 182
1 183
1 184
1 185
1 186
1 187
1 188
1 189
1 190
1 191
1 192
1 193
1 194
1 195
1 196
1 197
1 198
1 199
1 200
1 201
1 202
1 203
1 204
1 205
1 206
1 207
1 208
1 209
1 210
1 211
1 212
1 213
1 214
1 215
1 216
1 217
1 218
1 219
1 220
1 221
1 222
1 223
1 224
1 225
1 226
1 227
1 228
1 229
1 230
1 231
1 232
1 233
1 234
1 235
1 236
1 237
1 238
1 239
1 240
1 241
1 242
1 243
1 244
1 245
1 246
1 247
1 248
1 249
1 250
1 251
1 252
1 253
1 254
1 255
1 256
1 257
1 258
1 259
1 260
1 261
1 262
1 263
1 264
1 265
1 266
1 267
1 268
1 269
1 270
1 271
1 272
1 273
1 274
1 275
1 276
1 277
1 278
1 279
1 280
1 281
1 282
1 283
1 284
1 285
1 286
1 287
1 288
1 289
1 290
1 291
1 292
1 293
1 294
1 295
1 296
1 297
1 298
1 299
1 300
1 301
1 302
1 303
1 304
1 305
1 306
1 307
1 308
1 309
1 310
1 311
1 312
1 313
1 314
1 315
1 316
1 317
1 318
1 319
1 320
1 321
1 322
1 323
1 324
1 325
1 326
1 327
1 328
1 329
1 330
1 331
1 332
1 333
1 334
1 335
1 336
1 337
1 338
1 339
1 340
1 341
1 342
1 343
1 344
1 345
1 346
1 347
1 348
1 349
1 350
1 351
POINT_DATA 352
VECTORS i float
0.0 0.0 0.0
0.0 0.0 0.0
0.0 0.0 0.0
0.0 0.0 0.0
0.0 0.0 0.0
0.0 0.0 0.0
0.0 0.0 0.0
0.0 0.0 0.0
0.0 0.0 0.0
0.0 0.0 0.0
0.0 0.0 0.0
0.0 0.0 0.0
0.0 0.0 0.0
0.0 0.0 0.0
0.0 0.0 0.0
0.0 0.0 0.0
0.0 0.0 0.0
0.0 0.0 0.0
0.0 0.0 0.0
0.0 0.0 0.0
0.0 0.0 0.0
0.0 0.0 0.0
0.0 0.0 0.0
0.0 0.0 0.0
0.0 0.0 0.0
0.0 0.0 0.0
0.0 0.0 0.0
0.0 0.0 0.0
0.0 0.0 0.0
0.0 0.0 0.0
0.0 0.0 0.0
0.0 0.0 0.0
0.0 0.0 0.0
0.0 0.0 0.0
0.0 0.0 0.0
0.0 0.0 0.0
0.0 0.0 0.0
0.0 0.0 0.0
0.0 0.0 0.0
0.0 0.0 0.0
0.0 0.0 0.0
0.0 0.0 0.0
0.0 0.0 0.0
0.0 0.0 0.0
0.0 0.0 0.0
0.0 0.0 0.0
0.0 0.0 0.0
0.0 0.0 0.0
0.0 0.0 0.0
0.0 0.0 0.0
0.0 0.0 0.0
0.0 0.0 0.0
0.0 0.0 0.0
0.0 0.0 0.0
0.0 0.0 0.0
0.0 0.0 0.0
0.0 0.0 0.0
0.0 0.0 0.0
0.0 0.0 0.0
0.0 0.0 0.0
0.0 0.0 0.0
0.0 0.0 0.0
0.0 0.0 0.0
0.0 0.0 0.0
0.0 0.0 0.0
0.0 0.0 0.0
0.0 0.0 0.0
0.0 0.0 0.0
0.0 0.0 0.0
0.0 0.0 0.0
0.0 0.0 0.0
0.0 0.0 0.0
0.0 0.0 0.0
0.0 0.0 0.0
0.0 0.0 0.0
0.0 0.0 0.0
0.0 0.0 0.0
0.0 0.0 0.0
0.0 0.0 0.0
0.0 0.0 0.0
0.0 0.0 0.0
0.0 0.0 0.0
0.0 0.0 0.0
0.0 0.0 0.0
0.0 0.0 0.0
0.0 0.0 0.0
0.0 0.0 0.0
0.0 0.0 0.0
0.0 0.0 0.0
0.0 0.0 0.0
0.0 0.0 0.0
0.0 0.0 0.0
0.0 0.0 0.0
0.0 0.0 0.0
0.0 0.0 0.0
0.0 0.0 0.0
0.0 0.0 0.0
0.0 0.0 0.0
0.0 0.0 0.0
0.0 0.0 0.0
0.0 0.0 0.0
0.0 0.0 0.0
0.0 0.0 0.0
0.0 0.0 0.0
0.0 0.0 0.0
0.0 0.0 0.0
0.0 0.0 0.0
0.0 0.0 0.0
0.0 0.0 0.0
0.0 0.0 0.0
0.0 0.0 0.0
0.0 0.0 0.0
0.0 0.0 0.0
0.0 0.0 0.0
0.0 0.0 0.0
0.0 0.0 0.0
0.0 0.0 0.0
0.0 0.0 0.0
0.0 0.0 0.0
0.0 0.0 0.0
0.0 0.0 0.0
0.0 0.0 0.0
0.0 0.0 0.0
0.0 0.0 0.0
0.0 0.0 0.0
0.0 0.0 0.0
0.0 0.0 0.0
0.0 0.0 0.0
0.0 0.0 0.0
0.0 0.0 0.0
0.0 0.0 0.0
0.0 0.0 0.0
0.0 0.0 0.0
0.0 0.0 0.0
0.0 0.0 0.0
0.0 0.0 0.0
0.0 0.0 0.0
0.0 0.0 0.0
0.0 0.0 0.0
0.0 0.0 0.0
0.0 0.0 0.0
0.0 0.0 0.0
0.0 0.0 0.0
0.0 0.0 0.0
0.0 0.0 0.0
0.0 0.0 0.0
0.0 0.0 0.0
0.0 0.0 0.0
0.0 0.0 0.0
0.0 0.0 0.0
0.0 0.0 0.0
0.0 0.0 0.0
0.0 0.0 0.0
0.0 0.0 0.0
0.0 0.0 0.0
0.0 0.0 0.0
0.0 0.0 0.0
0.0 0.0 0.0
0.0 0.0 0.0
0.0 0.0 0.0
0.0 0.0 0.0
0.0 0.0 0.0
0.0 0.0 0.0
0.0 0.0 0.0
0.0 0.0 0.0
0.0 0.0 0.0
0.0 0.0 0.0
0.0 0.0 0.0
0.0 0.0 0.0
0.0 0.0 0.0
0.0 0.0 0.0
0.0 0.0 0.0
0.0 0.0 0.0
0.0 0.0 0.0
0.0 0.0 0.0
0.0 0.0 0.0
0.0 0.0 0.0
0.0 0.0 0.0
0.0 0.0 0.0
0.0 0.0 0.0
0.0 0.0 0.0
0.0 0.0 0.0
0.0 0.0 0.0
0.0 0.0 0.0
0.0 0.0 0.0
0.0 0.0 0.0
0.0 0.0 0.0
0.0 0.0 0.0
0.0 0.0 0.0
0.0 0.0 0.0
0.0 0.0 0.0
0.0 0.0 0.0
0.0 0.0 0.0
0.0 0.0 0.0
0.0 0.0 0.0
0.0 0.0 0.0
0.0 0.0 0.0
0.0 0.0 0.0
0.0 0.0 0.0
0.0 0.0 0.0
0.0 0.0 0.0
0.0 0.0 0.0
0.0 0.0 0.0
0.0 0.0 0.0
0.0 0.0 0.0
0.0 0.0 0.0
0.0 0.0 0.0
0.0 0.0 0.0
0.0 0.0 0.0
0.0 0.0 0.0
0.0 0.0 0.0
0.0 0.0 0.0
0.0 0.0 0.0
0.0 0.0 0.0
0.0 0.0 0.0
0.0 0.0 0.0
0.0 0.0 0.0
0.0 0.0 0.0
0.0 0.0 0.0
0.0 0.0 0.0
0.0 0.0 0.0
0.0 0.0 0.0
0.0 0.0 0.0
0.0 0.0 0.0
0.0 0.0 0.0
0.0 0.0 0.0
0.0 0.0 0.0
0.0 0.0 0.0
0.0 0.0 0.0
0.0 0.0 0.0
0.0 0.0 0.0
0.0 0.0 0.0
0.0 0.0 0.0
0.0 0.0 0.0
0.0 0.0 0.0
0.0 0.0 0.0
0.0 0.0 0.0
0.0 0.0 0.0
0.0 0.0 0.0
0.0 0.0 0.0
0.0 0.0 0.0
0.0 0.0 0.0
0.0 0.0 0.0
0.0 0.0 0.0
0.0 0.0 0.0
0.0 0.0 0.0
0.0 0.0 0.0
0.0 0.0 0.0
0.0 0.0 0.0
0.0 0.0 0.0
0.0 0.0 0.0
0.0 0.0 0.0
0.0 0.0 0.0
0.0 0.0 0.0
0.0 0.0 0.0
0.0 0.0 0.0
0.0 0.0 0.0
0.0 0.0 0.0
0.0 0.0 0.0
0.0 0.0 0.0
0.0 0.0 0.0
0.0 0.0 0.0
0.0 0.0 0.0
0.0 0.0 0.0
0.0 0.0 0.0
0.0 0.0 0.0
0.0 0.0 0.0
0.0 0.0 0.0
0.0 0.0 0.0
0.0 0.0 0.0
0.0 0.0 0.0
0.0 0.0 0.0
0.0 0.0 0.0
0.0 0.0 0.0
0.0 0.0 0.0
0.0 0.0 0.0
0.0 0.0 0.0
0.0 0.0 0.0
0.0 0.0 0.0
0.0 0.0 0.0
0.0 0.0 0.0
0.0 0.0 0.0
0.0 0.0 0.0
0.0 0.0 0.0
0.0 0.0 0.0
0.0 0.0 0.0
0.0 0.0 0.0
0.0 0.0 0.0
0.0 0.0 0.0
0.0 0.0 0.0
0.0 0.0 0.0
0.0 0.0 0.0
0.0 0.0 0.0
0.0 0.0 0.0
0.0 0.0 0.0
0.0 0.0 0.0
0.0 0.0 0.0
0.0 0.0 0.0
0.0 0.0 0.0
0.0 0.0 0.0
0.0 0.0 0.0
0.0 0.0 0.0
0.0 0.0 0.0
0.0 0.0 0.0
0.0 0.0 0.0
0.0 0.0 0.0
0.0 0.0 0.0
0.0 0.0 0.0
0.0 0.0 0.0
0.0 0.0 0.0
0.0 0.0 0.0
0.0 0.0 0.0
0.0 0.0 0.0
0.0 0.0 0.0
0.0 0.0 0.0
0.0 0.0 0.0
0.0 0.0 0.0
0.0 0.0 0.0
0.0 0.0 0.0
0.0 0.0 0.0
0.0 0.0 0.0
0.0 0.0 0.0
0.0 0.0 0.0
0.0 0.0 0.0
0.0 0.0 0.0
0.0 0.0 0.0
0.0 0.0 0.0
0.0 0.0 0.0
0.0 0.0 0.0
0.0 0.0 0.0
0.0 0.0 0.0
0.0 0.0 0.0
0.0 0.0 0.0
0.0 0.0 0.0
0.0 0.0 0.0
0.0 0.0 0.0
0.0 0.0 0.0
0.0 0.0 0.0
0.0 0.0 0.0
0.0 0.0 0.0
0.0 0.0 0.0
0.0 0.0 0.0
0.0 0.0 0.0
0.0 0.0 0.0
0.0 0.0 0.0
0.0 0.0 0.0
0.0 0.0 0.0
0.0 0.0 0.0
0.0 0.0 0.0
0.0 0.0 0.0
0.0 0.0 0.0
0.0 0.0 0.0
VECTORS f float
0.0 0.0 -2.77371
0.0 0.0 -2.77371
0.337583 0.501926 -2.31661
4.58862 -12.603 -2.82286
1.66109 -0.723662 1.75591
3.39376 -4.59139 0.173123
-0.367881 1.23314 1.80106
-1.79538 -1.09888 -0.679481
0.0342229 -0.000700858 -0.499722
1.06534 -0.639555 0.87212
0.0 0.0 -2.77371
-0.504064 -0.4185 -0.735215
3.76997 1.34084 -0.889226
0.400321 -0.0721176 0.378786
-0.523322 -4.43952 -25.4839
0.0 0.0 -2.77371
0.0 0.0 -2.77371
-9.84636 -22.9425 -49.9131
0.113371 0.0140667 0.780721
5.97342 -3.04124 6.65106
0.587794 -0.944651 11.5722
4.74205 -1.91294 6.53556
0.0336243 0.0206754 -0.518438
0.19314 2.70696 1.13189
-0.755374 3.06623 12.5719
14.1014 -1.01542 2.85483
-3.88874e-06 -1.44148e-07 -0.0021016
0.0 0.0 -2.77371
-2.14258e-05 1.97085e-07 -0.000236172
-0.0126814 0.00252167 -2.74785
-3.30582 6.81681 10.7046
20.7641 3.56703 39.3629
2.3834 6.77847 4.30063
0.0045177 0.000462865 0.221772
37.9941 6.48708 12.0017
0.479555 2.05523 -1.48607
-0.236412 -0.307595 1.55934
0.000250237 2.17651e-05 0.0335649
16.3106 -2.69461 11.8857
0.71149 0.3286 -0.604017
-2.09879 1.9331 -0.816492
-0.126232 0.118159 -2.62151
0.375886 -0.363373 -0.162155
0.0 0.0 -2.77371
-52.0044 -43.6445 -37.5767
-95.5444 -31.2724 -111.127
0.0 0.0 -2.77371
-0.0559025 0.024622 -0.455106
-0.0436103 0.0510272 -1.93497
63.2644 1.00692 123.771
0.0 0.0 -2.77371
0.0 0.0 -2.77371
-0.0403833 -0.130493 -2.50052
-0.147207 -0.0395809 -1.89243
0.0 0.0 -2.77371
0.0 0.0 -2.77371
0.0 0.0 -2.77371
0.0 0.0 -2.77371
-0.55395 1.19653 -0.136642
2.10061 -4.05712 -7.1633
2.93892 -0.0675964 -8.65311
-0.160361 0.0400615 0.194933
-0.0670939 -0.000483479 0.267426
0.000147241 -1.09762e-05 -0.00355898
0.0 0.0 -2.77371
0.0242763 -0.000762015 -0.979333
0.230685 0.0208414 -2.25932
-0.0984136 -0.00104561 -2.54619
-0.00372174 -0.000191801 -0.498939
-2.36748e-12 3.00471e-13 -3.85025e-13
8.66326 6.60915 30.5055
14.0073 10.5083 0.653611
0.00041443 4.25798e-05 0.0121832
0.0 0.0 -2.77371
-0.009471 0.549607 -1.67434
-0.109364 -0.0309165 -3.00101
1.56479 0.244229 10.0099
-4.17011 3.41373 -1.97119
0.0 0.0 -2.77371
0.0 0.0 -2.77371
-2.75279e-05 -2.80159e-06 2.55916e-05
-0.000147248 -1.44074e-05 0.000709046
-2.32908e-12 7.51172e-14 -4.44089e-15
0.0373531 -1.23527 -12.9198
0.0 0.0 -2.77371
-0.199639 0.276561 -3.03454
1.92642 -2.36619 0.930695
0.0 0.0 -2.77371
0.0516799 -1.07155 5.40769
0.0 0.0 -2.77371
-0.448583 -0.105196 -1.74309
0.0 0.0 -2.77371
-0.473477 0.00283549 -3.88658
4.94433 -27.735 30.3852
0.0300743 0.00899274 0.113074
1.08648 -1.35554 -0.169816
0.0 0.0 -2.77371
0.0 0.0 -2.77371
0.00343785 0.986131 -0.988077
0.07695 -1.35829 -2.26607
34.5154 48.0062 46.9015
0.0 0.0 -2.77371
0.0 0.0 -2.77371
35.97 -57.7843 -31.0158
0.0 0.0 -2.77371
6.87311 -3.65701 -10.7719
24.2852 -3.01971 18.2134
0.0 0.0 -2.77371
-26.5204 32.4014 19.9748
10.0351 -13.1903 0.382241
-24.8205 -7.37385 -12.0187
130.096 27.1725 117.017
0.0 0.0 -2.77371
-1.93896 -22.214 -21.1259
0.0 0.0 -2.77371
0.0 0.0 -2.77371
20.5821 77.4656 -1.86697
4.08828 -2.11276 -15.7936
0.0 0.0 -2.77371
0.0 0.0 -2.77371
0.0 0.0 -2.77371
-2.82451 -36.966 -22.6761
0.0 0.0 -2.77371
-0.259614 -0.0220601 -3.34601
-18.4691 3.98109 16.7752
-3.98432 -4.00684 -4.63945
10.0701 8.15134 -8.41535
3.12836 6.26986 -1.42838
0.0 0.0 -2.77371
0.0 0.0 -2.77371
0.0 0.0 -2.77371
0.0 0.0 -2.77371
0.0 0.0 -2.77371
-0.186149 -0.367145 -1.7781
0.440596 2.12796 4.90292
0.0 0.0 -2.77371
0.0 0.0 -2.77371
0.0 0.0 -2.77371
0.809341 0.993685 -1.21052
0.0 0.0 -2.77371
0.0 0.0 -2.77371
0.0 0.0 -2.77371
0.0 0.0 -2.77371
0.0 0.0 -2.77371
0.0 0.0 -2.77371
0.0 0.0 -2.77371
6.02417 1.88834 1.61236
0.0140635 0.00161467 -2.89141
31.4224 -33.8211 31.1225
0.0 0.0 -2.77371
-21.4741 -0.525564 -22.3346
9.17077 -18.384 -12.0233
0.0 0.0 -2.77371
0.655627 29.4072 22.4055
-4.06016 2.82001 -4.95912
-7.57071 14.82 12.7373
0.0 0.0 -2.77371
0.0 0.0 -2.77371
-2.36265 5.00153 0.490942
0.0 0.0 -2.77371
44.5293 -11.5821 40.7642
-15.2653 -3.68713 -9.27993
0.0 0.0 -2.77371
0.0 0.0 -2.77371
0.0 0.0 -2.77371
15.2653 3.68713 3.7325
0.0 0.0 -2.77371
0.0 0.0 -2.77371
0.0 0.0 -2.77371
-0.0455378 -0.689283 -0.708878
0.0 0.0 -2.77371
1.09383 1.39398 -0.96421
2.01718 14.2824 70.8227
10.7095 -8.48736 12.1226
-21.9028 30.4745 8.42733
0.0 0.0 -2.77371
1.61262 2.69273 -2.29848
-4.59557 27.9051 39.2075
0.0 0.0 -2.77371
0.0 0.0 -2.77371
-5.56778 9.20421 10.646
0.0 0.0 -2.77371
0.0 0.0 -2.77371
0.0 0.0 -2.77371
0.0 0.0 -2.77371
0.0 0.0 -2.77371
0.0 0.0 -2.77371
0.0 0.0 -2.77371
0.0 0.0 -2.77371
0.0 0.0 -2.77371
0.0 0.0 -2.77371
0.0 0.0 -2.77371
0.0 0.0 -2.77371
0.0 0.0 -2.77371
0.0 0.0 -2.77371
0.0 0.0 -2.77371
0.0 0.0 -2.77371
0.0 0.0 -2.77371
0.0 0.0 -2.77371
0.0 0.0 -2.77371
0.0 0.0 -2.77371
0.0 0.0 -2.77371
0.0 0.0 -2.77371
0.0 0.0 -2.77371
0.0 0.0 -2.77371
0.0 0.0 -2.77371
0.0 0.0 -2.77371
0.0 0.0 -2.77371
0.0 0.0 -2.77371
0.0 0.0 -2.77371
0.0 0.0 -2.77371
0.0 0.0 -2.77371
0.0 0.0 -2.77371
0.0 0.0 -2.77371
0.0 0.0 -2.77371
0.0 0.0 -2.77371
0.0 0.0 -2.77371
0.0 0.0 -2.77371
0.0 0.0 -2.77371
0.0 0.0 -2.77371
0.0 0.0 -2.77371
0.0 0.0 -2.77371
0.0 0.0 -2.77371
0.0 0.0 -2.77371
0.0 0.0 -2.77371
0.0 0.0 -2.77371
0.0 0.0 -2.77371
0.0 0.0 -2.77371
0.0 0.0 -2.77371
0.0 0.0 -2.77371
0.0 0.0 -2.77371
0.0 0.0 -2.77371
0.0 0.0 -2.77371
0.0 0.0 -2.77371
0.0 0.0 -2.77371
0.0 0.0 -2.77371
0.0 0.0 -2.77371
0.0 0.0 -2.77371
0.0 0.0 -2.77371
0.0 0.0 -2.77371
0.0 0.0 -2.77371
0.0 0.0 -2.77371
0.0 0.0 -2.77371
0.0 0.0 -2.77371
0.0 0.0 -2.77371
0.0 0.0 -2.77371
0.0 0.0 -2.77371
0.0 0.0 -2.77371
0.0 0.0 -2.77371
0.0 0.0 0.0
0.0 0.0 0.0
0.0 0.0 0.0
0.0 0.0 0.0
0.0 0.0 0.0
0.0 0.0 0.0
0.0 0.0 0.0
0.0 0.0 -2.77371
0.0 0.0 0.0
0.0 0.0 0.0
0.0 0.0 0.0
0.0 0.0 0.0
0.0 0.0 0.0
0.0 0.0 0.0
0.0 0.0 0.0
0.0 0.0 0.0
0.0 0.0 0.0
0.0 0.0 0.0
0.0 0.0 0.0
0.0 0.0 0.0
0.0 0.0 0.0
0.0 0.0 0.0
0.0 0.0 0.0
0.0 0.0 0.0
0.0 0.0 0.0
0.0 0.0 0.0
0.0 0.0 0.0
0.0 0.0 0.0
0.0 0.0 0.0
0.0 0.0 0.0
0.0 0.0 0.0
0.0 0.0 0.0
0.0 0.0 0.0
0.0 0.0 0.0
0.0 0.0 0.0
0.0 0.0 0.0
0.0 0.0 0.0
0.0 0.0 0.0
0.0 0.0 0.0
0.0 0.0 0.0
0.0 0.0 0.0
0.0 0.0 0.0
0.0 0.0 0.0
0.0 0.0 0.0
0.0 0.0 0.0
0.0 0.0 0.0
0.0 0.0 0.0
0.0 0.0 0.0
0.0 0.0 0.0
0.0 0.0 0.0
0.0 0.0 0.0
0.0 0.0 0.0
0.0 0.0 0.0
0.0 0.0 0.0
0.0 0.0 0.0
0.0 0.0 0.0
0.0 0.0 0.0
0.0 0.0 0.0
0.0 0.0 0.0
0.0 0.0 0.0
0.0 0.0 0.0
0.0 0.0 0.0
0.0 0.0 0.0
0.0 0.0 0.0
0.0 0.0 0.0
0.0 0.0 0.0
0.0 0.0 0.0
0.0 0.0 0.0
0.0 0.0 0.0
0.0 0.0 0.0
0.0 0.0 0.0
0.0 0.0 0.0
0.0 0.0 0.0
0.0 0.0 0.0
0.0 0.0 0.0
0.0 0.0 0.0
0.0 0.0 0.0
0.0 0.0 0.0
0.0 0.0 0.0
0.0 0.0 0.0
0.0 0.0 0.0
0.0 0.0 0.0
0.0 0.0 0.0
0.0 0.0 0.0
0.0 0.0 0.0
0.0 0.0 0.0
0.0 0.0 0.0
0.0 0.0 0.0
0.0 0.0 0.0
0.0 0.0 0.0
0.0 0.0 0.0
0.0 0.0 0.0
0.0 0.0 0.0
0.0 0.0 0.0
0.0 0.0 0.0
0.0 0.0 0.0
0.0 0.0 0.0
0.0 0.0 0.0
0.0 0.0 0.0
0.0 0.0 0.0
0.0 0.0 0.0
0.0 0.0 0.0
0.0 0.0 0.0
VECTORS omega float
7.04825 -123.856 48.9089
28.0001 -94.4988 -5.52485
2.4664 -29.4956 44.6627
-11.429 -64.2537 18.1581
1.13931 -58.807 23.3742
-0.182939 -51.1898 3.15165
-4.98098 -48.1319 12.8985
-11.459 -3.03766 17.9684
-1.41485 -56.9327 7.78044
7.63836 -46.6875 11.7866
14.1739 3.63947 23.064
-8.70302 -61.3537 7.08877
-9.24218 -36.9981 -2.74282
11.902 -43.0954 3.17812
13.7979 -91.524 -8.60863
13.3912 -86.1351 -0.772245
-10.9866 101.74 -3.56872
12.952 -66.5108 8.39467
2.29898 -74.7364 -20.9028
9.45479 -57.9706 -8.51227
0.989089 -68.9455 3.89407
-6.52159 67.6523 -9.67484
2.63015 -53.2196 2.03062
-3.54301 -31.9177 2.43431
-21.5005 -9.98 -11.034
-7.00075 -44.7754 -2.36947
-10.4525 -53.394 -3.59968
-27.7799 -36.8209 13.4693
-0.448585 -48.7674 4.2775
9.65246 -87.599 9.9567
23.9515 -65.0048 8.17407
-21.05 9.39667 2.89975
2.43993 -58.8913 -3.87044
6.70314 -61.9794 4.42674
-19.643 6.60832 -5.1726
-4.17807 20.1128 3.89308
-12.5579 -46.219 -21.4965
2.03998 -38.8701 -11.5392
5.41623 -100.917 -1.95343
-3.57045 -77.6697 -14.9908
6.2356 -61.2645 -9.31046
6.43962 49.5767 7.04503
-10.2216 -47.0359 5.32483
3.93258 -91.049 -9.90159
0.934927 -67.2078 -4.54026
18.3533 -37.5175 30.4561
-1.53686 -43.1629 -16.087
-1.46787 -66.026 -1.96866
-4.24664 -51.9853 -4.85981
-21.3967 -34.7477 -10.1225
-7.31804 101.91 5.8746
-1.76349 -58.9452 2.30106
4.94721 -64.7137 5.17464
8.23776 -55.0801 -0.577467
-3.21506 -45.1369 4.51135
-9.30591 -28.36 -2.96763
-5.46088 -41.6785 -1.68449
3.09602 -132.877 0.327914
-3.17238 -98.3935 -1.91422
-4.69265 -64.4013 -5.02319
-4.195 -40.5277 -8.96098
-3.04954 -59.4539 -12.3315
0.592956 -61.2181 -6.36157
-4.73133 -63.3212 2.64099
-16.2772 -62.0106 -12.1776
-1.48056 -56.6094 14.5569
-5.42332 -52.2108 -0.630854
-1.48044 -58.6883 -16.7189
3.19516 -61.1553 -12.6879
-4.91954 -50.7279 2.52464
-16.2887 -100.747 -2.75502
-3.09296 -88.641 32.6006
-11.1081 -76.7795 3.87984
-2.56704 -70.6972 8.98977
-2.98485 -49.8994 11.9719
-5.80876 -53.3284 4.26451
0.145234 -53.4944 8.56423
12.1519 50.0526 11.6679
-15.4684 -72.781 25.6556
1.15333 33.4946 17.3739
5.52548 -54.2925 -16.0757
3.26474 -33.1234 3.61123
-1.81727 -43.4917 1.90422
-14.4717 -133.93 1.50636
-9.63564 -96.1611 -22.5354
-12.1177 -92.0931 -2.79312
-10.3622 -65.7312 -11.9554
-4.94067 -78.4317 1.62419
-0.887646 -67.4238 -31.4311
-13.9361 -56.3847 -4.61471
0.276085 -49.7086 -25.0543
8.26116 -47.9655 -12.5107
9.67926 -41.3398 -25.1424
-19.1803 -63.8138 -20.5276
1.99653 -26.3125 23.2645
-2.75387 -3.76088 -28.1691
-1.08907 -32.4067 0.90153
17.4006 -67.277 26.6843
-4.29566 -66.0675 43.4032
-11.2732 -37.3837 50.1088
10.8495 13.5917 2.79657
-51.259 8.97984 -20.6058
-25.223 17.7096 11.1782
-10.8296 36.4444 -1.69244
-33.1778 29.923 -13.5249
-23.1914 18.0915 -5.06859
-26.0961 28.2453 5.82333
20.2258 12.9236 -1.06288
16.0886 47.904 -4.8179
30.9756 -12.6986 -26.7137
-21.7377 -50.4253 2.61208
-10.5618 18.8697 7.82718
44.8022 -7.37307 -14.0172
-1.52172 -18.229 0.344842
10.7513 62.0774 22.2106
-4.75611 9.16205 10.6761
-14.9074 23.4966 -0.68352
-18.1398 21.4827 9.8615
-17.6871 16.579 9.42101
29.479 53.0401 -9.34811
28.5549 -27.2117 38.6525
11.5712 16.2771 22.4391
-19.9889 6.26925 5.18658
14.5147 49.6785 2.56883
-13.8301 63.414 -15.1757
-2.7285 61.4397 -1.28413
25.4827 -10.0242 3.65038
38.1756 -15.6367 12.154
6.08625 42.4473 -12.5239
-15.6374 60.4612 -11.7837
-16.1432 60.9197 16.5905
-11.3114 -31.6096 -15.0414
-16.3263 -29.6465 -67.6499
1.65848 -68.9461 -39.2807
0.322253 55.1416 19.1966
10.9109 -31.1496 -43.0257
9.86181 -63.2556 31.1789
18.8795 24.5031 -9.09279
27.095 20.9121 9.7202
-12.7795 40.4978 -19.4726
-11.3934 87.1343 -32.3541
23.2961 -29.503 11.4347
8.32137 -6.08183 -0.199152
24.8783 -51.7265 -20.343
12.2228 -15.9599 -2.93328
-21.0137 6.25401 -20.7872
12.4982 2.64354 -6.55051
-10.2568 -10.3698 -27.3322
6.87149 4.27465 -20.208
-9.4086 55.4798 0.191282
-7.55835 -77.5181 -8.88553
-11.3764 33.0516 15.6889
-24.8551 33.0087 5.96927
-52.9977 -28.8143 6.47432
-0.413506 -40.9958 -3.83466
23.955 -24.2018 -1.04368
-8.96851 -16.3801 -0.121889
0.0 0.0 0.0
-29.0875 -1.13992 -14.4531
12.752 -22.5889 14.928
-19.9455 -21.7746 -22.2718
7.42712 18.1207 -15.3664
0.783348 -21.639 -26.2004
-15.4417 15.77 -8.13618
-42.9828 -33.6705 14.7818
64.186 25.9403 -2.97183
3.11585 -62.9566 -11.0421
-18.169 36.0834 -15.5665
1.33514 12.3449 23.5567
10.6278 -39.9999 -48.8521
-4.28583 -66.9224 -26.1186
9.5221 -5.64995 56.8349
-15.9578 -8.03387 15.7638
9.23001 -39.7811 11.1688
7.31121 -2.93809 -10.0039
56.0833 -22.1953 -20.7301
-12.7898 -2.33777 -30.2122
-26.5504 1.13924 9.16065
0.0 0.0 0.0
10.2313 73.4476 -9.29811
-25.9684 -16.6129 2.83834
-13.7543 -22.2514 5.65558
0.0 0.0 0.0
0.0 0.0 0.0
0.0 0.0 0.0
0.0 0.0 0.0
0.0 0.0 0.0
0.0 0.0 0.0
0.0 0.0 0.0
0.0 0.0 0.0
0.0 0.0 0.0
0.0 0.0 0.0
0.0 0.0 0.0
0.0 0.0 0.0
0.0 0.0 0.0
0.0 0.0 0.0
0.0 0.0 0.0
0.0 0.0 0.0
0.0 0.0 0.0
0.0 0.0 0.0
0.0 0.0 0.0
0.0 0.0 0.0
0.0 0.0 0.0
0.0 0.0 0.0
0.0 0.0 0.0
0.0 0.0 0.0
0.0 0.0 0.0
0.0 0.0 0.0
0.0 0.0 0.0
0.0 0.0 0.0
0.0 0.0 0.0
0.0 0.0 0.0
0.0 0.0 0.0
0.0 0.0 0.0
0.0 0.0 0.0
0.0 0.0 0.0
0.0 0.0 0.0
0.0 0.0 0.0
0.0 0.0 0.0
0.0 0.0 0.0
0.0 0.0 0.0
0.0 0.0 0.0
0.0 0.0 0.0
0.0 0.0 0.0
0.0 0.0 0.0
0.0 0.0 0.0
0.0 0.0 0.0
0.0 0.0 0.0
0.0 0.0 0.0
0.0 0.0 0.0
0.0 0.0 0.0
0.0 0.0 0.0
0.0 0.0 0.0
0.0 0.0 0.0
0.0 0.0 0.0
0.0 0.0 0.0
0.0 0.0 0.0
0.0 0.0 0.0
0.0 0.0 0.0
0.0 0.0 0.0
0.0 0.0 0.0
0.0 0.0 0.0
0.0 0.0 0.0
0.0 0.0 0.0
0.0 0.0 0.0
0.0 0.0 0.0
0.0 0.0 0.0
0.0 0.0 0.0
0.0 0.0 0.0
0.0 0.0 0.0
0.0 0.0 0.0
0.0 0.0 0.0
0.0 0.0 0.0
0.0 0.0 0.0
0.0 0.0 0.0
0.0 0.0 0.0
0.0 0.0 0.0
0.0 0.0 0.0
0.0 0.0 0.0
0.0 0.0 0.0
0.0 0.0 0.0
0.0 0.0 0.0
0.0 0.0 0.0
0.0 0.0 0.0
0.0 0.0 0.0
0.0 0.0 0.0
0.0 0.0 0.0
0.0 0.0 0.0
0.0 0.0 0.0
0.0 0.0 0.0
0.0 0.0 0.0
0.0 0.0 0.0
0.0 0.0 0.0
0.0 0.0 0.0
0.0 0.0 0.0
0.0 0.0 0.0
0.0 0.0 0.0
0.0 0.0 0.0
0.0 0.0 0.0
0.0 0.0 0.0
0.0 0.0 0.0
0.0 0.0 0.0
0.0 0.0 0.0
0.0 0.0 0.0
0.0 0.0 0.0
0.0 0.0 0.0
0.0 0.0 0.0
0.0 0.0 0.0
0.0 0.0 0.0
0.0 0.0 0.0
0.0 0.0 0.0
0.0 0.0 0.0
0.0 0.0 0.0
0.0 0.0 0.0
0.0 0.0 0.0
0.0 0.0 0.0
0.0 0.0 0.0
0.0 0.0 0.0
0.0 0.0 0.0
0.0 0.0 0.0
0.0 0.0 0.0
0.0 0.0 0.0
0.0 0.0 0.0
0.0 0.0 0.0
0.0 0.0 0.0
0.0 0.0 0.0
0.0 0.0 0.0
0.0 0.0 0.0
0.0 0.0 0.0
0.0 0.0 0.0
0.0 0.0 0.0
0.0 0.0 0.0
0.0 0.0 0.0
0.0 0.0 0.0
0.0 0.0 0.0
0.0 0.0 0.0
0.0 0.0 0.0
0.0 0.0 0.0
0.0 0.0 0.0
0.0 0.0 0.0
0.0 0.0 0.0
0.0 0.0 0.0
0.0 0.0 0.0
0.0 0.0 0.0
0.0 0.0 0.0
0.0 0.0 0.0
0.0 0.0 0.0
0.0 0.0 0.0
0.0 0.0 0.0
0.0 0.0 0.0
0.0 0.0 0.0
0.0 0.0 0.0
0.0 0.0 0.0
0.0 0.0 0.0
0.0 0.0 0.0
0.0 0.0 0.0
0.0 0.0 0.0
0.0 0.0 0.0
0.0 0.0 0.0
0.0 0.0 0.0
0.0 0.0 0.0
0.0 0.0 0.0
0.0 0.0 0.0
0.0 0.0 0.0
0.0 0.0 0.0
0.0 0.0 0.0
0.0 0.0 0.0
0.0 0.0 0.0
0.0 0.0 0.0
0.0 0.0 0.0
0.0 0.0 0.0
0.0 0.0 0.0
VECTORS v float
0.38023 0.0194914 -0.310609
2.11922 -0.497836 0.550522
2.12229 -0.037462 0.10709
2.11212 0.00309323 -0.134558
2.23033 -0.0108728 0.0526971
2.43659 0.0569428 0.108456
2.57655 0.148222 0.109315
2.75861 0.200357 0.00530204
2.30024 0.0426455 0.00169218
2.76427 -0.16444 0.161002
0.580905 -0.977499 -0.659657
2.17689 0.267218 0.0306883
2.83849 0.301411 0.0532972
2.67797 -0.310599 -0.00904146
1.28088 -0.447368 0.252768
1.41677 -0.392999 0.312083
1.6849 -0.496826 -0.192702
1.44299 -0.432836 -0.173199
1.76524 -0.0691859 -0.0208366
1.98032 -0.00103638 0.187373
2.02866 -0.0471508 -0.0280568
2.08352 -0.147511 0.067909
2.40727 -0.0793313 -0.00624467
2.33864 0.0852434 -0.00356487
2.998 0.583723 0.140458
2.54131 0.225811 0.0490714
2.40471 0.312297 -1.10443e-06
2.37442 0.553067 -0.329481
2.54295 0.0134026 6.59883e-06
1.40654 -0.295259 0.0158528
1.62577 -0.16324 -0.09483
2.06762 0.239493 -0.164891
2.1264 -0.0525153 0.0808829
2.14868 -0.200223 -0.00100163
2.22644 0.252481 -0.647652
2.1837 0.147412 -0.49053
2.63721 0.391233 -0.0106459
2.83871 -0.0609468 -6.82121e-05
0.9604 0.00264946 -0.122941
2.02069 -0.189093 0.0405976
2.10974 -0.138034 -0.00399053
2.08476 0.0149494 -0.126329
2.59521 0.304578 0.00213465