# vtk DataFile Version 2.0
Generated by lpp.py
ASCII
DATASET POLYDATA
POINTS 352 float
0.0609718 0.169782 1.59665
0.389217 0.175126 1.58842
0.468054 0.161303 1.60039
0.541961 0.165427 1.59714
0.596508 0.181792 1.58142
0.813233 0.196051 1.57684
0.97904 0.190552 1.57667
1.04494 0.186701 1.57655
1.11964 0.187439 1.57627
1.17971 0.197531 1.57689
1.30681 0.186581 1.5768
1.39576 0.172941 1.59003
0.670005 0.198897 1.57677
1.22961 0.234151 1.58
1.35891 0.218406 1.57688
0.218331 0.240801 1.57622
0.448504 0.262348 1.57503
0.521288 0.234545 1.57701
0.605187 0.240458 1.57679
0.719043 0.239866 1.57707
0.866269 0.24388 1.57681
0.944813 0.241455 1.57653
1.00671 0.249204 1.57916
1.06727 0.242038 1.57691
1.1297 0.252114 1.57686
1.27794 0.269644 1.57706
1.43207 0.234823 1.57686
0.269239 0.297071 1.57648
0.321726 0.264322 1.57718
0.381394 0.267654 1.58218
0.566415 0.289372 1.57688
0.626442 0.296837 1.5808
0.724315 0.300183 1.57696
0.79461 0.285909 1.57689
0.904384 0.289892 1.58309
0.96507 0.296431 1.58659
1.34498 0.285309 1.57687
0.155594 0.333506 1.57711
0.500988 0.316452 1.57718
0.67547 0.334255 1.57678
0.848391 0.313633 1.59288
1.03331 0.30756 1.57686
0.218121 0.360642 1.57611
0.340064 0.368977 1.57979
0.402796 0.353238 1.57577
0.555491 0.350339 1.5763
0.808767 0.355315 1.57675
0.99038 0.34963 1.5766
1.25791 0.375777 1.57789
0.139088 0.398362 1.58747
0.25937 0.400922 1.58809
0.496774 0.376647 1.57484
0.643844 0.386394 1.5765
0.736177 0.387653 1.5766
1.06574 0.385749 1.57863
1.12789 0.402111 1.58746
0.0580517 0.414617 1.5736
0.21759 0.442805 1.57695
0.466578 0.435085 1.57472
0.665976 0.441886 1.57688
0.79058 0.412686 1.57689
0.937425 0.41588 1.57683
1.21095 0.426377 1.57686
0.339273 0.461796 1.57815
0.409301 0.482417 1.57577
0.80282 0.475437 1.57682
0.885734 0.463981 1.57638
0.987635 0.448356 1.57661
1.05946 0.459788 1.5768
1.49797 0.467756 1.57686
0.160617 0.483795 1.57594
0.526933 0.487414 1.57686
0.605753 0.506781 1.57698
0.745206 0.509969 1.57669
0.917061 0.515509 1.57642
0.996941 0.5074 1.5779
0.384267 0.539452 1.58109
0.839196 0.5374 1.58661
1.08158 0.549436 1.57686
1.40327 0.523449 1.57686
1.58428 0.530718 1.57686
0.0729178 0.558009 1.57628
0.168145 0.55581 1.57796
0.286622 0.572719 1.58177
0.523277 0.569283 1.57885
0.585199 0.572957 1.58173
0.701589 0.565653 1.57682
0.762296 0.567356 1.57931
0.957779 0.560916 1.57656
1.01482 0.575246 1.58499
1.15681 0.567419 1.57646
1.23504 0.562183 1.57687
1.33687 0.554872 1.5769
1.38643 0.584358 1.59393
1.44551 0.574057 1.5872
0.405698 0.592127 1.60131
0.645815 0.142857 1.62009
1.03716 0.145123 1.61765
0.184101 0.17631 1.60103
0.318968 0.203631 1.59653
0.385431 0.217751 1.63312
0.167542 0.266981 1.6058
0.774285 0.232764 1.60036
0.0504818 0.299104 1.61256
0.242432 0.267557 1.62087
0.300264 0.272794 1.63312
0.486442 0.274167 1.61722
0.110442 0.317851 1.61183
0.203059 0.319003 1.61627
0.404173 0.31143 1.61921
0.468691 0.333894 1.62535
0.33044 0.385113 1.64037
0.433272 0.387295 1.60998
0.490566 0.410926 1.62118
0.841057 0.394122 1.61729
1.02128 0.400303 1.63224
0.290807 0.446542 1.60896
0.370695 0.422756 1.61219
0.704161 0.412946 1.62987
0.170344 0.457613 1.62766
0.330772 0.484009 1.63438
0.421748 0.451693 1.62415
0.93028 0.466998 1.61569
0.217659 0.49326 1.60816
0.446227 0.506709 1.61681
0.639011 0.520587 1.62464
0.115205 0.525244 1.59747
0.278547 0.520772 1.6093
0.508466 0.529022 1.625
0.573432 0.530758 1.62214
0.200124 0.56466 1.62983
0.460238 0.584126 1.62501
0.654055 0.613906 1.6229
0.709149 0.59111 1.6299
0.871769 0.613003 1.62211
0.801071 0.100883 1.66536
0.437359 0.130045 1.64455
0.749769 0.127562 1.63536
0.484386 0.189929 1.64947
0.0651613 0.231067 1.64375
0.438042 0.223775 1.66518
0.862797 0.197521 1.65923
0.134655 0.232127 1.64333
0.510455 0.242479 1.66088
0.980605 0.244314 1.64495
0.356175 0.285242 1.65465
0.865412 0.303725 1.6494
0.290956 0.334737 1.63423
0.384892 0.364861 1.65281
0.682826 0.344697 1.63744
0.179165 0.399146 1.63517
0.24849 0.380269 1.64261
0.630477 0.39867 1.65324
0.286929 0.421165 1.66473
0.562103 0.418425 1.65926
0.255285 0.481468 1.65174
0.490894 0.467581 1.63699
0.584647 0.466309 1.63014
0.83444 0.452034 1.65485
0.664782 0.481534 1.66415
1.04066 0.499005 1.64746
0.305603 0.531048 1.66489
0.378621 0.522492 1.64911
0.725764 0.534741 1.64694
0.805822 0.522057 1.64132
0.978429 0.53798 1.66617
0.753683 0.658373 1.66938
0.880192 0.65591 1.66509
0.509933 0.0871618 1.67587
0.215788 0.303462 1.6729
0.438517 0.356177 1.67389
0.493332 0.386384 1.67319
0.366274 0.440717 1.6703
0.418568 0.412215 1.66808
0.106832 0.451129 1.65409
0.411848 0.486767 1.68282
0.542778 0.611857 1.69569
0.473517 0.305435 1.68173
0.323123 0.457232 1.70549
0.180109 0.517525 1.7012
0.136852 0.289242 1.74537
0.416409 0.288456 1.74879
0.195772 0.344168 1.71634
0.398536 0.508979 1.73331
0.211371 0.280829 1.78024
0.269256 0.359202 1.76391
0.218921 0.397847 1.76453
0.349719 0.399621 1.78132
0.428381 0.4467 1.75489
0.245914 0.511668 1.77829
0.466202 0.49757 1.77178
0.260718 0.244031 1.81541
0.305852 0.287522 1.80593
0.499385 0.279499 1.81932
0.373442 0.329195 1.82286
0.485374 0.358108 1.79625
0.422187 0.378047 1.80408
0.169637 0.459874 1.7988
0.103225 0.518985 1.80561
0.411604 0.238101 1.85944
0.102791 0.340368 1.82398
0.174537 0.231131 1.87764
0.346739 0.243699 1.86996
0.108104 0.281799 1.87596
0.157239 0.333515 1.88133
0.478405 0.411198 1.87311
0.370548 0.454286 1.87752
0.209404 0.487055 1.88741
0.469838 0.243492 1.9106
0.189941 0.428545 1.91328
0.267329 0.456169 1.91417
0.43276 0.446836 1.91263
0.341446 0.508108 1.90441
0.429885 0.51089 1.92844
0.283642 0.234209 1.94252
0.225054 0.287898 1.95427
0.268169 0.352895 1.94255
0.478946 0.338932 1.94371
0.121741 0.410905 1.93506
0.496878 0.474265 1.94422
0.122063 0.498448 1.93313
0.222298 0.231508 2.00247
0.144959 0.253084 1.97385
0.353756 0.288308 1.97726
0.419349 0.297497 1.99136
0.107864 0.308056 1.99445
0.216531 0.381594 1.99819
0.33513 0.393755 1.97053
0.434422 0.399982 1.98815
0.177321 0.473873 1.99245
0.3755 0.471214 1.98702
0.287754 0.512498 1.97499
0.482317 0.228242 2.03818
0.386528 0.235346 2.03399
0.17305 0.29572 2.03046
0.280967 0.269166 2.03701
0.32031 0.335135 2.01217
0.142292 0.405308 2.04262
0.289149 0.393948 2.03276
0.10269 0.478868 2.03983
0.265427 0.473439 2.03023
0.487332 0.44601 2.03224
0.230707 0.52291 2.0276
0.100828 0.246005 2.05484
0.334084 0.267131 2.06623
0.383935 0.304407 2.07118
0.470734 0.315695 2.04592
0.104364 0.371175 2.07875
0.189473 0.369831 2.07465
0.383297 0.361785 2.05306
0.495324 0.379459 2.05665
0.238696 0.425254 2.06413
0.338206 0.47604 2.05542
0.405771 0.451899 2.05402
0.477819 0.52568 2.051
0.410316 0.229607 2.09717
0.227735 0.245208 2.08361
0.479511 0.263195 2.0925
0.283481 0.328862 2.08466
0.488965 0.329122 2.11107
0.433942 0.344323 2.08524
0.124882 0.444445 2.08537
0.292698 0.428673 2.09157
0.367427 0.412219 2.08779
0.436973 0.45447 2.1086
0.498994 0.449521 2.10904
0.387806 0.497135 2.09601
0.10683 0.52412 2.10027
0.498691 0.522189 2.11147
0.307197 0.231054 2.11934
0.112238 0.243444 2.12138
0.196779 0.286134 2.13798
0.338106 0.302046 2.12158
0.144627 0.329159 2.12743
0.322732 0.35929 2.15017
0.388723 0.350133 2.13272
0.179678 0.383211 2.14608
0.26384 0.382845 2.12039
0.404531 0.416433 2.14679
0.180002 0.445959 2.14427
0.336562 0.447813 2.1353
0.197767 0.505506 2.11969
0.316599 0.507618 2.13974
0.4192 0.521596 2.14807
0.299287 0.247375 2.17679
0.442411 0.236129 2.17895
0.498503 0.253983 2.15572
0.432796 0.302258 2.16979
0.345572 0.308923 2.18327
0.476186 0.343657 2.17982
0.499396 0.409304 2.17395
0.230608 0.478968 2.16273
0.133145 0.50156 2.1551
0.196226 0.26238 2.20567
0.356376 0.254196 2.2077
0.126939 0.284236 2.18643
0.187834 0.32549 2.19014
0.256147 0.321804 2.20011
0.110703 0.374435 2.20211
0.415762 0.389621 2.20827
0.214879 0.429082 2.21971
0.282511 0.427246 2.19226
0.107302 0.455042 2.20596
0.180798 0.510604 2.19163
0.383426 0.485675 2.1855
0.49838 0.508374 2.21212
0.271982 0.260644 2.2408
0.321856 0.294278 2.23913
0.44222 0.295647 2.23067
0.125428 0.344451 2.25441
0.346145 0.350757 2.23426
0.282424 0.374546 2.24858
0.475094 0.383761 2.22966
0.466199 0.451954 2.23462
0.104255 0.515661 2.24241
0.236464 0.494005 2.23237
0.430217 0.500721 2.23499
0.339305 0.526873 2.22754
0.103324 0.228818 2.26871
0.161403 0.258279 2.26827
0.363615 0.240431 2.27399
0.425069 0.242959 2.27512
0.499192 0.246026 2.27267
0.189012 0.364304 2.26306
0.415188 0.353574 2.25906
0.115455 0.44409 2.2645
0.323589 0.424937 2.2571
0.40415 0.414672 2.27454
0.158807 0.499296 2.28065
0.370433 0.49856 2.27148
0.264146 0.523422 2.27795
0.220666 0.238837 2.31734
0.257372 0.298287 2.30437
0.314466 0.284399 2.32272
0.492483 0.279077 2.3244
0.417494 0.317622 2.32147
0.31493 0.348737 2.29385
0.484684 0.362834 2.30124
0.125062 0.39201 2.30589
0.217234 0.387064 2.31563
0.263093 0.452487 2.32205
0.417911 0.469013 2.31692
0.393674 0.233628 2.33132
0.17717 0.298235 2.3292
0.107591 0.339963 2.33367
0.385775 0.387923 2.33657
0.449749 0.403068 2.32884
0.139724 0.459766 2.33164
0.486571 0.452792 2.32556
0.220758 0.508511 2.32861
0.312076 0.491969 2.3276
0.490194 0.521396 2.33111
VERTICES 352 704
1 0
1 1
1 2
1 3
1 4
1 5
1 6
1 7
1 8
1 9
1 10
1 11
1 12
1 13
1 14
1 15
1 16
1 17
1 18
1 19
1 20
1 21
1 22
1 23
1 24
1 25
1 26
1 27
1 28
1 29
1 30
1 31
1 32
1 33
1 34
1 35
1 36
1 37
1 38
1 39
1 40
1 41
1 42
1 43
1 44
1 45
1 46
1 47
1 48
1 49
1 50
1 51
1 52
1 53
1 54
1 55
1 56
1 57
1 58
1 59
1 60
1 61
1 62
1 63
1 64
1 65
1 66
1 67
1 68
1 69
1 70
1 71
1 72
1 73
1 74
1 75
1 76
1 77
1 78
1 79
1 80
1 81
1 82
1 83
1 84
1 85
1 86
1 87
1 88
1 89
1 90
1 91
1 92
1 93
1 94
1 95
1 96
1 97
1 98
1 99
1 100
1 101
1 102
1 103
1 104
1 105
1 106
1 107
1 108
1 109
1 110
1 111
1 112
1 113
1 114
1 115
1 116
1 117
1 118
1 119
1 120
1 121
1 122
1 123
1 124
1 125
1 126
1 127
1 128
1 129
1 130
1 131
1 132
1 133
1 134
1 135
1 136
1 137
1 138
1 139
1 140
1 141
1 142
1 143
1 144
1 145
1 146
1 147
1 148
1 149
1 150
1 151
1 152
1 153
1 154
1 155
1 156
1 157
1 158
1 159
1 160
1 161
1 162
1 163
1 164
1 165
1 166
1 167
1 168
1 169
1 170
1 171
1 172
1 173
1 174
1 175
1 176
1 177
1 178
1 179
1 180
1 181
1 182
1 183
1 184
1 185
1 186
1 187
1 188
1 189
1 190
1 191
1 192
1 193
1 194
1 195
1 196
1 197
1 198
1 199
1 200
1 201
1 202
1 203
1 204
1 205
1 206
1 207
1 208
1 209
1 210
1 211
1 212
1 213
1 214
1 215
1 216
1 217
1 218
1 219
1 220
1 221
1 222
1 223
1 224
1 225
1 226
1 227
1 228
1 229
1 230
1 231
1 232
1 233
1 234
1 235
1 236
1 237
1 238
1 239
1 240
1 241
1 242
1 243
1 244
1 245
1 246
1 247
1 248
1 249
1 250
1 251
1 252
1 253
1 254
1 255
1 256
1 257
1 258
1 259
1 260
1 261
1 262
1 263
1 264
1 265
1 266
1 267
1 268
1 269
1 270
1 271
1 272
1 273
1 274
1 275
1 276
1 277
1 278
1 279
1 280
1 281
1 282
1 283
1 284
1 285
1 286
1 287
1 288
1 289
1 290
1 291
1 292
1 293
1 294
1 295
1 296
1 297
1 298
1 299
1 300
1 301
1 302
1 303
1 304
1 305
1 306
1 307
1 308
1 309
1 310
1 311
1 312
1 313
1 314
1 315
1 316
1 317
1 318
1 319
1 320
1 321
1 322
1 323
1 324
1 325
1 326
1 327
1 328
1 329
1 330
1 331
1 332
1 333
1 334
1 335
1 336
1 337
1 338
1 339
1 340
1 341
1 342
1 343
1 344
1 345
1 346
1 347
1 348
1 349
1 350
1 351
POINT_DATA 352
VECTORS i float
0.0 0.0 0.0
0.0 0.0 0.0
0.0 0.0 0.0
0.0 0.0 0.0
0.0 0.0 0.0
0.0 0.0 0.0
0.0 0.0 0.0
0.0 0.0 0.0
0.0 0.0 0.0
0.0 0.0 0.0
0.0 0.0 0.0
0.0 0.0 0.0
0.0 0.0 0.0
0.0 0.0 0.0
0.0 0.0 0.0
0.0 0.0 0.0
0.0 0.0 0.0
0.0 0.0 0.0
0.0 0.0 0.0
0.0 0.0 0.0
0.0 0.0 0.0
0.0 0.0 0.0
0.0 0.0 0.0
0.0 0.0 0.0
0.0 0.0 0.0
0.0 0.0 0.0
0.0 0.0 0.0
0.0 0.0 0.0
0.0 0.0 0.0
0.0 0.0 0.0
0.0 0.0 0.0
0.0 0.0 0.0
0.0 0.0 0.0
0.0 0.0 0.0
0.0 0.0 0.0
0.0 0.0 0.0
0.0 0.0 0.0
0.0 0.0 0.0
0.0 0.0 0.0
0.0 0.0 0.0
0.0 0.0 0.0
0.0 0.0 0.0
0.0 0.0 0.0
0.0 0.0 0.0
0.0 0.0 0.0
0.0 0.0 0.0
0.0 0.0 0.0
0.0 0.0 0.0
0.0 0.0 0.0
0.0 0.0 0.0
0.0 0.0 0.0
0.0 0.0 0.0
0.0 0.0 0.0
0.0 0.0 0.0
0.0 0.0 0.0
0.0 0.0 0.0
0.0 0.0 0.0
0.0 0.0 0.0
0.0 0.0 0.0
0.0 0.0 0.0
0.0 0.0 0.0
0.0 0.0 0.0
0.0 0.0 0.0
0.0 0.0 0.0
0.0 0.0 0.0
0.0 0.0 0.0
0.0 0.0 0.0
0.0 0.0 0.0
0.0 0.0 0.0
0.0 0.0 0.0
0.0 0.0 0.0
0.0 0.0 0.0
0.0 0.0 0.0
0.0 0.0 0.0
0.0 0.0 0.0
0.0 0.0 0.0
0.0 0.0 0.0
0.0 0.0 0.0
0.0 0.0 0.0
0.0 0.0 0.0
0.0 0.0 0.0
0.0 0.0 0.0
0.0 0.0 0.0
0.0 0.0 0.0
0.0 0.0 0.0
0.0 0.0 0.0
0.0 0.0 0.0
0.0 0.0 0.0
0.0 0.0 0.0
0.0 0.0 0.0
0.0 0.0 0.0
0.0 0.0 0.0
0.0 0.0 0.0
0.0 0.0 0.0
0.0 0.0 0.0
0.0 0.0 0.0
0.0 0.0 0.0
0.0 0.0 0.0
0.0 0.0 0.0
0.0 0.0 0.0
0.0 0.0 0.0
0.0 0.0 0.0
0.0 0.0 0.0
0.0 0.0 0.0
0.0 0.0 0.0
0.0 0.0 0.0
0.0 0.0 0.0
0.0 0.0 0.0
0.0 0.0 0.0
0.0 0.0 0.0
0.0 0.0 0.0
0.0 0.0 0.0
0.0 0.0 0.0
0.0 0.0 0.0
0.0 0.0 0.0
0.0 0.0 0.0
0.0 0.0 0.0
0.0 0.0 0.0
0.0 0.0 0.0
0.0 0.0 0.0
0.0 0.0 0.0
0.0 0.0 0.0
0.0 0.0 0.0
0.0 0.0 0.0
0.0 0.0 0.0
0.0 0.0 0.0
0.0 0.0 0.0
0.0 0.0 0.0
0.0 0.0 0.0
0.0 0.0 0.0
0.0 0.0 0.0
0.0 0.0 0.0
0.0 0.0 0.0
0.0 0.0 0.0
0.0 0.0 0.0
0.0 0.0 0.0
0.0 0.0 0.0
0.0 0.0 0.0
0.0 0.0 0.0
0.0 0.0 0.0
0.0 0.0 0.0
0.0 0.0 0.0
0.0 0.0 0.0
0.0 0.0 0.0
0.0 0.0 0.0
0.0 0.0 0.0
0.0 0.0 0.0
0.0 0.0 0.0
0.0 0.0 0.0
0.0 0.0 0.0
0.0 0.0 0.0
0.0 0.0 0.0
0.0 0.0 0.0
0.0 0.0 0.0
0.0 0.0 0.0
0.0 0.0 0.0
0.0 0.0 0.0
0.0 0.0 0.0
0.0 0.0 0.0
0.0 0.0 0.0
0.0 0.0 0.0
0.0 0.0 0.0
0.0 0.0 0.0
0.0 0.0 0.0
0.0 0.0 0.0
0.0 0.0 0.0
0.0 0.0 0.0
0.0 0.0 0.0
0.0 0.0 0.0
0.0 0.0 0.0
0.0 0.0 0.0
0.0 0.0 0.0
0.0 0.0 0.0
0.0 0.0 0.0
0.0 0.0 0.0
0.0 0.0 0.0
0.0 0.0 0.0
0.0 0.0 0.0
0.0 0.0 0.0
0.0 0.0 0.0
0.0 0.0 0.0
0.0 0.0 0.0
0.0 0.0 0.0
0.0 0.0 0.0
0.0 0.0 0.0
0.0 0.0 0.0
0.0 0.0 0.0
0.0 0.0 0.0
0.0 0.0 0.0
0.0 0.0 0.0
0.0 0.0 0.0
0.0 0.0 0.0
0.0 0.0 0.0
0.0 0.0 0.0
0.0 0.0 0.0
0.0 0.0 0.0
0.0 0.0 0.0
0.0 0.0 0.0
0.0 0.0 0.0
0.0 0.0 0.0
0.0 0.0 0.0
0.0 0.0 0.0
0.0 0.0 0.0
0.0 0.0 0.0
0.0 0.0 0.0
0.0 0.0 0.0
0.0 0.0 0.0
0.0 0.0 0.0
0.0 0.0 0.0
0.0 0.0 0.0
0.0 0.0 0.0
0.0 0.0 0.0
0.0 0.0 0.0
0.0 0.0 0.0
0.0 0.0 0.0
0.0 0.0 0.0
0.0 0.0 0.0
0.0 0.0 0.0
0.0 0.0 0.0
0.0 0.0 0.0
0.0 0.0 0.0
0.0 0.0 0.0
0.0 0.0 0.0
0.0 0.0 0.0
0.0 0.0 0.0
0.0 0.0 0.0
0.0 0.0 0.0
0.0 0.0 0.0
0.0 0.0 0.0
0.0 0.0 0.0
0.0 0.0 0.0
0.0 0.0 0.0
0.0 0.0 0.0
0.0 0.0 0.0
0.0 0.0 0.0
0.0 0.0 0.0
0.0 0.0 0.0
0.0 0.0 0.0
0.0 0.0 0.0
0.0 0.0 0.0
0.0 0.0 0.0
0.0 0.0 0.0
0.0 0.0 0.0
0.0 0.0 0.0
0.0 0.0 0.0
0.0 0.0 0.0
0.0 0.0 0.0
0.0 0.0 0.0
0.0 0.0 0.0
0.0 0.0 0.0
0.0 0.0 0.0
0.0 0.0 0.0
0.0 0.0 0.0
0.0 0.0 0.0
0.0 0.0 0.0
0.0 0.0 0.0
0.0 0.0 0.0
0.0 0.0 0.0
0.0 0.0 0.0
0.0 0.0 0.0
0.0 0.0 0.0
0.0 0.0 0.0
0.0 0.0 0.0
0.0 0.0 0.0
0.0 0.0 0.0
0.0 0.0 0.0
0.0 0.0 0.0
0.0 0.0 0.0
0.0 0.0 0.0
0.0 0.0 0.0
0.0 0.0 0.0
0.0 0.0 0.0
0.0 0.0 0.0
0.0 0.0 0.0
0.0 0.0 0.0
0.0 0.0 0.0
0.0 0.0 0.0
0.0 0.0 0.0
0.0 0.0 0.0
0.0 0.0 0.0
0.0 0.0 0.0
0.0 0.0 0.0
0.0 0.0 0.0
0.0 0.0 0.0
0.0 0.0 0.0
0.0 0.0 0.0
0.0 0.0 0.0
0.0 0.0 0.0
0.0 0.0 0.0
0.0 0.0 0.0
0.0 0.0 0.0
0.0 0.0 0.0
0.0 0.0 0.0
0.0 0.0 0.0
0.0 0.0 0.0
0.0 0.0 0.0
0.0 0.0 0.0
0.0 0.0 0.0
0.0 0.0 0.0
0.0 0.0 0.0
0.0 0.0 0.0
0.0 0.0 0.0
0.0 0.0 0.0
0.0 0.0 0.0
0.0 0.0 0.0
0.0 0.0 0.0
0.0 0.0 0.0
0.0 0.0 0.0
0.0 0.0 0.0
0.0 0.0 0.0
0.0 0.0 0.0
0.0 0.0 0.0
0.0 0.0 0.0
0.0 0.0 0.0
0.0 0.0 0.0
0.0 0.0 0.0
0.0 0.0 0.0
0.0 0.0 0.0
0.0 0.0 0.0
0.0 0.0 0.0
0.0 0.0 0.0
0.0 0.0 0.0
0.0 0.0 0.0
0.0 0.0 0.0
0.0 0.0 0.0
0.0 0.0 0.0
0.0 0.0 0.0
0.0 0.0 0.0
0.0 0.0 0.0
0.0 0.0 0.0
0.0 0.0 0.0
0.0 0.0 0.0
0.0 0.0 0.0
0.0 0.0 0.0
0.0 0.0 0.0
0.0 0.0 0.0
0.0 0.0 0.0
0.0 0.0 0.0
0.0 0.0 0.0
0.0 0.0 0.0
0.0 0.0 0.0
0.0 0.0 0.0
0.0 0.0 0.0
0.0 0.0 0.0
0.0 0.0 0.0
0.0 0.0 0.0
0.0 0.0 0.0
0.0 0.0 0.0
0.0 0.0 0.0
0.0 0.0 0.0
0.0 0.0 0.0
0.0 0.0 0.0
VECTORS f float
0.0 0.0 -2.77371
0.0 0.0 -2.77371
-0.380248 4.84344 4.81336
-5.19204 2.86175 1.82205
6.22803 -2.03764 -0.875569
17.6308 -16.9403 -11.2996
0.671634 0.107326 0.931443
1.8955 5.26277 -2.7694
8.37389 0.15945 13.9771
-0.00993142 0.00720152 -0.745516
-0.517588 0.0162327 0.722368
0.176148 0.471751 -0.938519
2.3747 2.80218 4.57241
0.0 0.0 -2.77371
0.714359 -0.918659 -0.0680945
10.4627 2.86479 1.47146
-9.52156 -3.66383 18.8622
-0.128114 -0.074492 -2.60602
2.94462 5.67433 -2.57643
0.00184231 0.00105144 -1.42443
-0.303759 -0.250876 -0.360944
2.12186 0.12592 5.98948
0.0 0.0 -2.77371
0.950991 4.9636 0.850847
-0.000180862 4.45348e-05 0.00186192
0.234102 0.269782 -2.05933
2.78856e-05 -2.56509e-07 0.00101592
-6.92683 6.91617 22.6904
3.60156 0.682528 -4.52303
-3.60156 -0.682528 -1.0244
-0.154801 -0.1354 -1.16406
0.0 0.0 -2.77371
4.65032 -3.42838 0.204403
0.0142774 0.00171762 -0.319855
0.0 0.0 -2.77371
2.16979 2.7725 0.22207
0.00169343 4.03786e-06 -0.0398737
0.931493 -0.154493 -3.22357
0.0 0.0 -2.77371
-2.85252 2.35704 -1.56606
0.684951 -0.932573 -1.7914
0.000767263 -0.000171046 0.0167017
-4.64234 -6.00092 4.70982
0.0 0.0 -2.77371
-12.3501 -34.6421 -2.91795
-1.17732 -0.120557 -4.5317
0.289095 -0.326064 0.352607
0.0569789 0.735983 1.07641
0.0 0.0 -2.77371
0.0 0.0 -2.77371
0.597817 -0.396179 1.39621
-11.9888 8.59922 12.7264
1.09625 6.00889 3.29051
3.07922 0.973918 3.58612
0.0 0.0 -2.77371
0.0 0.0 -2.77371
8.92283 0.0262027 149.38
-5.41911 -8.00921 -10.5631
6.25415 -18.2564 36.7964
98.5226 -7.38146 29.4447
0.833893 -0.56625 1.76745
-0.534771 -0.175381 0.00734463
-0.000705482 5.24274e-05 -0.00143736
3.7934 2.25052 -3.37022
8.04568 5.54339 -4.13403
-0.186414 0.00876673 -1.93919
-1.04796 -0.0505842 5.17365
2.54208 3.87643 2.01598
-0.0467273 -0.00247187 0.515946
-2.39426e-12 3.00978e-13 -1.91402e-12
1.70975 -4.75635 22.0305
-0.00104599 -0.000951051 -0.0152151
0.494264 -0.833523 -5.03669
0.776264 2.30161 -0.835835
0.211017 -0.0408366 7.8198
-0.108893 -0.835867 -2.37552
0.0 0.0 -2.77371
0.0 0.0 -2.77371
6.31265e-05 6.42454e-06 0.000927542
0.00036577 3.46436e-05 0.00772517
-2.35586e-12 7.51172e-14 -2.17604e-14
-34.9596 34.0583 -36.6734
0.0 0.0 -2.77371
-1.86941 -6.33871 12.3512
0.0 0.0 -2.77371
0.54301 2.05296 -4.8756
-11.1105 1.33504 -13.1919
-0.455459 -1.11381 -2.25087
-0.28107 0.45217 3.83063
5.23495 0.5603 0.73451
5.8421 -2.26141 16.2134
0.00859915 -0.00385359 0.0279718
-0.135719 -0.065417 -1.25446
0.0 0.0 -2.77371
0.0 0.0 -2.77371
0.00539447 2.56084 -3.62734
-0.00685515 0.929707 -1.04718
-2.63425 -13.6932 9.54519
0.0 0.0 -2.77371
0.0 0.0 -2.77371
0.0 0.0 -2.77371
0.0 0.0 -2.77371
-19.1674 18.3346 10.1057
0.0 0.0 -2.77371
12.6977 15.308 35.9166
16.8282 3.69373 -6.96523
15.5503 5.22031 23.2725
-0.931493 0.154493 -2.32385
0.751982 3.39319 -9.48255
0.0 0.0 -2.77371
0.0 0.0 -2.77371
0.564866 -0.299936 -2.03067
41.6763 44.7334 59.3983
9.23213 15.653 25.9165
0.0 0.0 -2.77371
0.0 0.0 -2.77371
0.35968 4.22982 -2.96707
12.8663 0.622593 -2.91564
0.0 0.0 -2.77371
5.35186 -19.5927 4.02768
0.0 0.0 -2.77371
-23.2753 1.41709 6.71972
2.32274 0.107727 1.55123
2.4765 11.3896 -2.33356
0.0 0.0 -2.77371
-0.309652 0.372315 -4.28873
52.889 -47.7005 76.1846
3.3044 -0.0759624 -3.02965
0.0 0.0 -2.77371
0.0138786 3.50077 -6.28619
0.0 0.0 -2.77371
0.0 0.0 -2.77371
1.28107 -1.56974 -0.222255
8.78082 2.2385 13.7456
-0.572529 0.858492 -3.79087
0.0 0.0 -2.77371
0.0 0.0 -2.77371
0.862646 1.06188 -1.14601
-0.289883 7.20934 -2.53395
0.0 0.0 -2.77371
1.5994 -0.806403 -2.47157
0.0 0.0 -2.77371
0.0 0.0 -2.77371
-0.796659 -4.64306 -2.44516
0.0 0.0 -2.77371
0.0 0.0 -2.77371
0.314825 -0.114248 -2.44219
0.0 0.0 -2.77371
-15.58 -0.282245 -12.7329
0.0 0.0 -2.77371
-5.34972 19.5923 -9.54281
0.592037 -0.315008 0.0298655
0.0 0.0 -2.77371
0.0 0.0 -2.77371
0.0 0.0 -2.77371
2.73871 -2.9681 3.65574
-0.453967 8.51266 4.90278
0.0 0.0 -2.77371
0.0 0.0 -2.77371
0.0 0.0 -2.77371
0.0 0.0 -2.77371
0.0 0.0 -2.77371
-35.5759 -5.95989 -31.3485
0.0 0.0 -2.77371
0.0 0.0 -2.77371
0.0 0.0 -2.77371
0.0 0.0 -2.77371
-0.107183 -0.618542 -0.936876
0.403391 0.525649 -2.13697
0.0 0.0 -2.77371
16.9428 -21.961 11.7287
6.88516 -22.8581 43.3316
30.2905 -7.07572 -59.6961
-0.154126 11.8367 2.48964
0.0 0.0 -2.77371
44.8609 -44.4801 -113.096
0.0 0.0 -2.77371
0.0 0.0 -2.77371
-26.4136 7.19906 52.4559
0.0 0.0 -2.77371
0.0 0.0 -2.77371
0.0 0.0 -2.77371
0.0 0.0 -2.77371
-9.28506 50.44 136.123
0.0 0.0 -2.77371
0.0 0.0 -2.77371
0.0 0.0 -2.77371
0.0 0.0 -2.77371
0.0 0.0 -2.77371
0.0 0.0 -2.77371
0.0 0.0 -2.77371
0.0 0.0 -2.77371
0.0 0.0 -2.77371
0.0 0.0 -2.77371
0.0 0.0 -2.77371
0.0 0.0 -2.77371
0.0 0.0 -2.77371
0.0 0.0 -2.77371
0.0 0.0 -2.77371
0.0 0.0 -2.77371
0.0 0.0 -2.77371
0.0 0.0 -2.77371
0.0 0.0 -2.77371
0.0 0.0 -2.77371
0.0 0.0 -2.77371
0.0 0.0 -2.77371
0.0 0.0 -2.77371
0.0 0.0 -2.77371
0.0 0.0 -2.77371
0.0 0.0 -2.77371
0.0 0.0 -2.77371
0.0 0.0 -2.77371
0.0 0.0 -2.77371
0.0 0.0 -2.77371
0.0 0.0 -2.77371
0.0 0.0 -2.77371
0.0 0.0 -2.77371
0.0 0.0 -2.77371
0.0 0.0 -2.77371
0.0 0.0 -2.77371
0.0 0.0 -2.77371
0.0 0.0 -2.77371
0.0 0.0 -2.77371
0.0 0.0 -2.77371
0.0 0.0 -2.77371
0.0 0.0 -2.77371
0.0 0.0 -2.77371
0.0 0.0 -2.77371
0.0 0.0 -2.77371
0.0 0.0 -2.77371
0.0 0.0 -2.77371
0.0 0.0 -2.77371
0.0 0.0 -2.77371
0.0 0.0 -2.77371
0.0 0.0 -2.77371
0.0 0.0 -2.77371
0.0 0.0 -2.77371
0.0 0.0 -2.77371
0.0 0.0 -2.77371
0.0 0.0 -2.77371
0.0 0.0 -2.77371
0.0 0.0 -2.77371
0.0 0.0 -2.77371
0.0 0.0 0.0
0.0 0.0 0.0
0.0 0.0 0.0
0.0 0.0 -2.77371
0.0 0.0 0.0
0.0 0.0 0.0
0.0 0.0 0.0
0.0 0.0 0.0
0.0 0.0 0.0
0.0 0.0 0.0
0.0 0.0 0.0
0.0 0.0 0.0
0.0 0.0 0.0
0.0 0.0 0.0
0.0 0.0 0.0
0.0 0.0 0.0
0.0 0.0 0.0
0.0 0.0 0.0
0.0 0.0 0.0
0.0 0.0 0.0
0.0 0.0 0.0
0.0 0.0 0.0
0.0 0.0 0.0
0.0 0.0 0.0
0.0 0.0 0.0
0.0 0.0 0.0
0.0 0.0 0.0
0.0 0.0 0.0
0.0 0.0 0.0
0.0 0.0 0.0
0.0 0.0 0.0
0.0 0.0 0.0
0.0 0.0 0.0
0.0 0.0 0.0
0.0 0.0 0.0
0.0 0.0 0.0
0.0 0.0 0.0
0.0 0.0 0.0
0.0 0.0 0.0
0.0 0.0 0.0
0.0 0.0 0.0
0.0 0.0 0.0
0.0 0.0 0.0
0.0 0.0 0.0
0.0 0.0 0.0
0.0 0.0 0.0
0.0 0.0 0.0
0.0 0.0 0.0
0.0 0.0 0.0
0.0 0.0 0.0
0.0 0.0 0.0
0.0 0.0 0.0
0.0 0.0 0.0
0.0 0.0 0.0
0.0 0.0 0.0
0.0 0.0 0.0
0.0 0.0 0.0
0.0 0.0 0.0
0.0 0.0 0.0
0.0 0.0 0.0
0.0 0.0 0.0
0.0 0.0 0.0
0.0 0.0 0.0
0.0 0.0 0.0
0.0 0.0 0.0
0.0 0.0 0.0
0.0 0.0 0.0
0.0 0.0 0.0
0.0 0.0 0.0
0.0 0.0 0.0
0.0 0.0 0.0
0.0 0.0 0.0
0.0 0.0 0.0
0.0 0.0 0.0
0.0 0.0 0.0
0.0 0.0 0.0
0.0 0.0 0.0
0.0 0.0 0.0
0.0 0.0 0.0
0.0 0.0 0.0
0.0 0.0 0.0
0.0 0.0 0.0
0.0 0.0 0.0
0.0 0.0 0.0
0.0 0.0 0.0
0.0 0.0 0.0
0.0 0.0 0.0
0.0 0.0 0.0
0.0 0.0 0.0
0.0 0.0 0.0
0.0 0.0 0.0
0.0 0.0 0.0
0.0 0.0 0.0
0.0 0.0 0.0
0.0 0.0 0.0
0.0 0.0 0.0
0.0 0.0 0.0
0.0 0.0 0.0
0.0 0.0 0.0
0.0 0.0 0.0
0.0 0.0 0.0
0.0 0.0 0.0
0.0 0.0 0.0
0.0 0.0 0.0
0.0 0.0 0.0
0.0 0.0 0.0
0.0 0.0 0.0
0.0 0.0 0.0
0.0 0.0 0.0
VECTORS omega float
7.04825 -123.856 48.9089
28.0001 -94.4988 -5.52485
17.4745 -67.9048 27.9195
1.96375 -26.1396 39.846
-13.5603 -66.2723 26.7127
-1.65681 -62.9326 25.5238
-8.49296 -55.9804 3.69025
-2.63851 -49.0152 15.9137
-10.187 -4.33895 22.2865
-7.28691 -46.0318 1.57525
-1.51915 -56.3327 7.78044
7.43331 -48.3824 11.196
-11.2374 -59.0998 7.08877
-27.7799 -36.8209 13.4693
14.9261 -41.1669 2.50951
8.07566 -85.8224 -7.55361
7.89971 -89.9351 19.147
2.35095 -74.7261 -20.9028
-6.29262 -75.5047 -10.4302
3.33417 -62.7665 1.7898
2.79495 -53.4655 2.03062
-16.7521 -28.6678 2.66643
-27.8281 30.2231 -10.9334
-1.84899 -50.4486 0.891372
-10.4526 -53.3944 -3.59968
-13.9534 -44.7056 -21.4965
-0.448585 -48.7675 4.2775
8.05887 -87.4633 10.7376
13.3958 -86.1955 -0.786834
-10.982 101.68 -3.58331
16.1349 -73.607 1.76242
-21.7753 33.7065 0.294843
6.88571 -63.3204 3.4067
6.69915 -61.9394 4.42674
-19.6815 6.83374 -5.1726
-2.88748 19.7972 3.6995
2.03975 -38.8656 -11.5392
0.00350942 -78.5669 -5.38013
-1.3099 -75.0421 -13.7707
6.85053 -60.3056 -9.81398
5.82739 49.1475 7.06857
-10.563 -47.3832 5.26014
3.78951 -92.7063 -9.81786
1.72607 -59.2191 -17.6376
-15.9855 -12.9054 44.2154
-1.49209 -43.9199 -16.087
-1.40241 -66.0479 -1.96115
-5.60909 -51.7686 -4.81159
-5.46088 -41.6785 -1.68449
-22.5112 21.0837 -10.1225
-6.36634 101.19 7.12809
2.2793 -58.8562 2.25416
5.92506 -65.6404 4.86251
8.38235 -55.5951 -0.622254
-3.21506 -45.1369 4.51135
-9.30591 -28.36 -2.96763
1.76174 -156.691 0.327914
-4.45993 -96.9416 -5.69492
-5.68436 -69.845 -5.39184
-1.81146 2.88523 -9.27312
-3.16645 -59.3495 -12.3763
-0.00863897 -59.9861 -6.7227
-4.7314 -63.3221 2.64099
-15.4947 -63.2369 -11.4216
-12.942 -74.7193 27.3949
-1.48205 -56.8087 14.5569
-5.35839 -52.8701 -0.710315
-1.23578 -59.9679 -17.1291
3.20087 -61.2648 -12.6879
-4.91954 -50.7279 2.52464
-21.399 -89.9023 0.575338
-11.1071 -76.7777 3.87984
-2.73922 -70.445 9.10202
-3.61237 -49.8707 12.0301
-4.55746 -55.4902 4.26451
-1.58971 -42.7007 8.51514
-15.4684 -72.781 25.6556
1.15333 33.4946 17.3739
5.52548 -54.2924 -16.0757
3.26473 -33.1233 3.61123
-1.81727 -43.4917 1.90422
3.32264 -111.063 -1.47296
-9.63564 -96.1611 -22.5354
-15.5147 -91.3759 -0.87397
-11.5985 -58.3954 -4.61955
-4.98175 -78.538 1.53162
-4.12827 -66.6894 -31.8319
-13.6835 -56.4618 -4.5565
0.182366 -48.8944 -25.6331
8.85881 -50.1377 -13.0894
10.0921 -41.3574 -26.8365
-26.716 -59.6227 -14.5382
2.00069 -26.3162 23.2645
-3.70454 -2.82829 -27.2365
-1.08907 -32.4067 0.90153
-17.3188 -29.6399 -67.6432
-2.63316 -66.0685 43.4041
-15.0298 -36.9519 49.9179
11.6196 29.5371 -13.1488
14.1739 3.63947 23.064
-51.259 8.97984 -20.6058
-25.223 17.7096 11.1782
1.78398 59.7938 -17.4101
-33.1778 29.923 -13.5249
-34.003 22.7978 0.696703
-24.6535 25.166 1.79195
-20.3205 68.2448 -13.1883
20.4593 15.2074 0.350471
9.62952 28.5338 -7.62675
-14.85 -65.6057 -1.91952
-24.8692 -8.56006 8.98154
-9.64871 41.2205 3.88707
-6.99431 -18.3623 -3.36859
-20.7938 13.1277 13.2704
10.7513 62.0774 22.2106
-4.75611 9.16205 10.6761
29.8737 -29.0801 40.2449
0.527936 40.0264 -10.148
-17.6871 16.579 9.42101
25.4469 51.797 -9.51751
10.0418 16.7533 -20.7044
34.8618 8.7353 38.9627
14.6653 48.4786 2.48937
-11.8506 37.9388 -6.43956
-22.3076 69.269 1.66555
-15.9171 60.7364 -11.6714
-19.8765 7.22512 8.68862
30.9213 -15.4942 2.53301
15.181 -5.11479 30.2593
6.16378 42.2299 -12.7276
-16.1432 60.9197 16.5905
-11.3114 -31.6096 -15.0414
0.164948 -68.7304 -39.065
6.3865 54.2531 18.7958
10.6881 -31.3909 -43.267
9.86181 -63.2556 31.1789
18.8795 24.5031 -9.09279
28.2016 22.5406 8.09162
-11.5162 43.3351 -21.2722
-11.3934 87.1343 -32.3541
9.09459 -4.79485 -0.757835
24.8783 -51.7265 -20.343
23.2961 -29.503 11.4347
11.0574 -14.8526 -1.43934
-21.0137 6.25401 -20.7872
13.1238 -5.07088 -3.74829
-10.1987 -10.1633 -27.3162
23.6682 -18.784 -28.2187
9.42812 5.35579 -17.9807
-9.4086 55.4798 0.191282
45.2653 -7.33597 -14.2818
-5.36923 -87.5525 -13.2866
-24.8551 33.0087 5.96927
-40.6101 -60.9767 25.4299
-8.96851 -16.3801 -0.121889
-20.5915 -9.91265 -15.8837
-49.3976 0.414965 7.66467
-19.9889 6.26925 5.18658
12.752 -22.5889 14.928
0.783348 -21.639 -26.2004
-15.4417 15.77 -8.13618
-42.9828 -33.6705 14.7818
49.7675 16.5741 -0.214306
3.11585 -62.9566 -11.0421
-18.169 36.0834 -15.5665
1.33514 12.3449 23.5567
-4.28583 -66.9224 -26.1186
7.99713 -40.1568 -49.0089
10.0438 -4.09542 55.2804
-24.6115 3.05829 11.4977
-8.90848 -11.583 16.3953
62.1689 -16.8572 -18.278
15.141 -24.5874 -11.888
16.058 -12.9456 -6.48409
0.0 0.0 0.0
-22.47 -10.3385 26.3681
10.2313 73.4476 -9.29811
0.0 0.0 0.0
-11.3977 -24.2378 -2.37711
0.0 0.0 0.0
0.0 0.0 0.0
0.0 0.0 0.0
0.0 0.0 0.0
-4.52828 -15.0714 5.32437
0.0 0.0 0.0
0.0 0.0 0.0
0.0 0.0 0.0
0.0 0.0 0.0
0.0 0.0 0.0
0.0 0.0 0.0
0.0 0.0 0.0
0.0 0.0 0.0
0.0 0.0 0.0
0.0 0.0 0.0
0.0 0.0 0.0
0.0 0.0 0.0
0.0 0.0 0.0
0.0 0.0 0.0
0.0 0.0 0.0
0.0 0.0 0.0
0.0 0.0 0.0
0.0 0.0 0.0
0.0 0.0 0.0
0.0 0.0 0.0
0.0 0.0 0.0
0.0 0.0 0.0
0.0 0.0 0.0
0.0 0.0 0.0
0.0 0.0 0.0
0.0 0.0 0.0
0.0 0.0 0.0
0.0 0.0 0.0
0.0 0.0 0.0
0.0 0.0 0.0
0.0 0.0 0.0
0.0 0.0 0.0
0.0 0.0 0.0
0.0 0.0 0.0
0.0 0.0 0.0
0.0 0.0 0.0
0.0 0.0 0.0
0.0 0.0 0.0
0.0 0.0 0.0
0.0 0.0 0.0
0.0 0.0 0.0
0.0 0.0 0.0
0.0 0.0 0.0
0.0 0.0 0.0
0.0 0.0 0.0
0.0 0.0 0.0
0.0 0.0 0.0
0.0 0.0 0.0
0.0 0.0 0.0
0.0 0.0 0.0
0.0 0.0 0.0
0.0 0.0 0.0
0.0 0.0 0.0
0.0 0.0 0.0
0.0 0.0 0.0
0.0 0.0 0.0
0.0 0.0 0.0
0.0 0.0 0.0
0.0 0.0 0.0
0.0 0.0 0.0
0.0 0.0 0.0
0.0 0.0 0.0
0.0 0.0 0.0
0.0 0.0 0.0
0.0 0.0 0.0
0.0 0.0 0.0
0.0 0.0 0.0
0.0 0.0 0.0
0.0 0.0 0.0
0.0 0.0 0.0
0.0 0.0 0.0
0.0 0.0 0.0
0.0 0.0 0.0
0.0 0.0 0.0
0.0 0.0 0.0
0.0 0.0 0.0
0.0 0.0 0.0
0.0 0.0 0.0
0.0 0.0 0.0
0.0 0.0 0.0
0.0 0.0 0.0
0.0 0.0 0.0
0.0 0.0 0.0
0.0 0.0 0.0
0.0 0.0 0.0
0.0 0.0 0.0
0.0 0.0 0.0
0.0 0.0 0.0
0.0 0.0 0.0
0.0 0.0 0.0
0.0 0.0 0.0
0.0 0.0 0.0
0.0 0.0 0.0
0.0 0.0 0.0
0.0 0.0 0.0
0.0 0.0 0.0
0.0 0.0 0.0
0.0 0.0 0.0
0.0 0.0 0.0
0.0 0.0 0.0
0.0 0.0 0.0
0.0 0.0 0.0
0.0 0.0 0.0
0.0 0.0 0.0
0.0 0.0 0.0
0.0 0.0 0.0
0.0 0.0 0.0
0.0 0.0 0.0
0.0 0.0 0.0
0.0 0.0 0.0
0.0 0.0 0.0
0.0 0.0 0.0
0.0 0.0 0.0
0.0 0.0 0.0
0.0 0.0 0.0
0.0 0.0 0.0
0.0 0.0 0.0
0.0 0.0 0.0
0.0 0.0 0.0
0.0 0.0 0.0
0.0 0.0 0.0
0.0 0.0 0.0
0.0 0.0 0.0
0.0 0.0 0.0
0.0 0.0 0.0
0.0 0.0 0.0
0.0 0.0 0.0
0.0 0.0 0.0
0.0 0.0 0.0
0.0 0.0 0.0
0.0 0.0 0.0
0.0 0.0 0.0
0.0 0.0 0.0
0.0 0.0 0.0
0.0 0.0 0.0
0.0 0.0 0.0
0.0 0.0 0.0
0.0 0.0 0.0
0.0 0.0 0.0
0.0 0.0 0.0
0.0 0.0 0.0
0.0 0.0 0.0
0.0 0.0 0.0
0.0 0.0 0.0
0.0 0.0 0.0
0.0 0.0 0.0
0.0 0.0 0.0
0.0 0.0 0.0
0.0 0.0 0.0
0.0 0.0 0.0
0.0 0.0 0.0
0.0 0.0 0.0
0.0 0.0 0.0
0.0 0.0 0.0
0.0 0.0 0.0
0.0 0.0 0.0
0.0 0.0 0.0
0.0 0.0 0.0
0.0 0.0 0.0
0.0 0.0 0.0
0.0 0.0 0.0
0.0 0.0 0.0
0.0 0.0 0.0
0.0 0.0 0.0
0.0 0.0 0.0
0.0 0.0 0.0
0.0 0.0 0.0
0.0 0.0 0.0
VECTORS v float
0.38023 0.0194914 -0.212509
2.11922 -0.497836 0.648622
2.07261 -0.218155 0.539826
2.07502 -0.170937 0.0870677
2.00198 0.257213 -0.119255
2.17546 -0.00103602 -0.0255875
2.28632 0.246347 0.0556657
2.54367 0.106043 -0.115987
2.85061 0.281912 0.0128121
2.62352 0.217771 0.00604203
2.29301 0.0413882 0.00914525
2.7398 -0.156857 0.157003
2.14965 0.236591 -0.0598422
2.37442 0.553067 -0.231381
2.66101 -0.297604 -0.0119368
1.21151 -0.458909 -0.550369
1.59182 -0.161524 0.268855
1.76512 -0.0685615 0.014661
1.77757 0.230397 0.0346845
2.11799 -0.100006 -0.0422541
2.41024 -0.0773452 0.025986
2.35732 -0.114914 -0.0253507
2.47535 0.513992 -0.563226
2.48881 0.0567747 0.0111662
2.40472 0.312296 5.47469e-05
2.619 0.374447 -0.0177307
2.54295 0.0134026 -7.83215e-06
1.41435 -0.340425 0.0145249
1.41533 -0.393255 0.410792
1.68635 -0.496569 -0.0952099
1.8159 -0.473076 0.0193567
1.7167 0.16717 -0.520767
2.09265 -0.197673 0.0291857
2.1482 -0.200271 -0.00343349
2.22373 0.252019 -0.550603
2.16343 0.106806 -0.423804
2.83866 -0.0609496 -0.00069464
0.961927 -0.290518 -0.122492
1.9808 -0.193278 0.220332
2.14629 -0.171888 0.00469392
2.07572 0.0264115 -0.0435021
2.58432 0.315593 -0.000234299
1.28206 -0.128192 0.24727
2.21045 -0.0376476 0.347374