# vtk DataFile Version 2.0
Generated by lpp.py
ASCII
DATASET POLYDATA
POINTS 176 float
0.40871 0.182803 1.57979
0.137857 0.228593 1.58305
0.223918 0.190879 1.57524
0.466009 0.194537 1.57763
0.309474 0.230635 1.57654
0.379563 0.263299 1.57719
0.237389 0.287416 1.5847
0.435807 0.283606 1.57742
0.529958 0.265144 1.57714
0.171156 0.325024 1.57834
0.358103 0.330756 1.57681
0.48733 0.31117 1.58173
0.604505 0.312366 1.58157
0.221583 0.364515 1.57351
0.416211 0.33934 1.58394
0.467001 0.37024 1.58513
0.254491 0.423738 1.57891
0.345653 0.447065 1.5868
0.41501 0.418312 1.5765
0.583667 0.4128 1.57914
0.290528 0.472177 1.57873
0.526163 0.455369 1.58287
0.140223 0.511091 1.57315
0.411595 0.494288 1.57473
0.585076 0.510623 1.57672
0.267251 0.541124 1.5774
0.326736 0.526254 1.57671
0.398795 0.552328 1.58203
0.458007 0.525319 1.59342
0.237105 0.229443 1.61856
0.356766 0.213192 1.6058
0.624584 0.224349 1.62439
0.458532 0.247375 1.62341
0.3272 0.27147 1.61715
0.302688 0.342907 1.60895
0.236266 0.376982 1.62714
0.111154 0.43018 1.60121
0.473837 0.43088 1.59782
0.625386 0.429958 1.62123
0.174746 0.456274 1.59341
0.438444 0.47405 1.62052
0.236011 0.498324 1.6159
0.509261 0.511622 1.62055
0.596518 0.482377 1.62859
0.346946 0.514991 1.63195
0.576757 0.261795 1.63871
0.390936 0.286218 1.6573
0.157712 0.325376 1.65287
0.412192 0.343853 1.64848
0.485944 0.343637 1.63452
0.173434 0.391321 1.61448
0.255235 0.441152 1.63585
0.335031 0.417252 1.63709
0.11707 0.514324 1.62374
0.404557 0.527468 1.63299
0.220535 0.32839 1.65763
0.334819 0.324289 1.65568
0.460504 0.468905 1.67196
0.188775 0.261917 1.68845
0.244548 0.285112 1.73065
0.154593 0.314223 1.72362
0.388697 0.32831 1.72931
0.10471 0.363257 1.7443
0.478047 0.398941 1.73603
0.400035 0.441344 1.74343
0.283869 0.446206 1.7424
0.309578 0.507986 1.74359
0.137853 0.229319 1.78102
0.403959 0.242371 1.75743
0.185895 0.369748 1.77601
0.100655 0.458725 1.77997
0.226898 0.506806 1.77508
0.329189 0.252757 1.81493
0.218563 0.442358 1.79717
0.369388 0.526215 1.79129
0.298609 0.364728 1.85922
0.368876 0.379155 1.84322
0.47867 0.463 1.83891
0.112056 0.26459 1.87899
0.144122 0.349922 1.87371
0.228049 0.384522 1.89789
0.179788 0.4242 1.89451
0.10161 0.511094 1.89294
0.190793 0.498184 1.89249
0.218269 0.254539 1.90523
0.377994 0.24098 1.93116
0.43763 0.245516 1.91629
0.235855 0.316318 1.92371
0.368613 0.311971 1.93056
0.486179 0.312628 1.93195
0.497086 0.400324 1.90762
0.108382 0.420889 1.91083
0.421483 0.499457 1.89977
0.486742 0.509906 1.91932
0.438372 0.392123 1.96157
0.353388 0.44487 1.96697
0.307792 0.495572 1.96879
0.254767 0.230824 1.99433
0.495956 0.249499 2.00628
0.290891 0.301706 1.9782
0.181029 0.318367 1.98073
0.41904 0.310566 1.98454
0.278223 0.363632 1.98561
0.155769 0.403018 1.98939
0.240863 0.437556 1.99976
0.419456 0.449551 1.98109
0.218974 0.524143 1.989
0.178322 0.227864 2.02661
0.408343 0.240904 2.01825
0.150682 0.290471 2.03784
0.355542 0.30862 2.02237
0.118071 0.372478 2.03664
0.216306 0.357237 2.03543
0.429922 0.3736 2.04208
0.499251 0.382901 2.02398
0.161462 0.479607 2.02765
0.476719 0.464357 2.01513
0.105277 0.51875 2.02325
0.423627 0.520356 2.01699
0.117057 0.232547 2.05535
0.33461 0.249494 2.07199
0.258494 0.28056 2.07116
0.46021 0.268154 2.06579
0.294692 0.330306 2.06293
0.414233 0.306803 2.06248
0.320208 0.403691 2.07809
0.113325 0.448918 2.08014
0.367693 0.467546 2.05384
0.209546 0.484752 2.07139
0.313052 0.494322 2.06354
0.446997 0.50849 2.0749
0.387237 0.525686 2.07208
0.199862 0.243713 2.08294
0.47999 0.300848 2.11322
0.230407 0.340128 2.11579
0.375347 0.345395 2.095
0.169236 0.376906 2.09011
0.261069 0.440732 2.09621
0.491591 0.428372 2.09117
0.254698 0.262308 2.1326
0.417913 0.266516 2.12416
0.121033 0.279919 2.13222
0.187546 0.294736 2.13886
0.378219 0.307765 2.14893
0.103577 0.34242 2.11791
0.287678 0.358468 2.13158
0.227036 0.399722 2.12926
0.380254 0.404128 2.12153
0.448915 0.39365 2.12864
0.441781 0.458388 2.11924
0.131272 0.513706 2.11661
0.208645 0.523817 2.15003
0.35506 0.52072 2.13723
0.29951 0.265646 2.18473
0.365118 0.235733 2.15568
0.26261 0.317421 2.18461
0.121236 0.342722 2.18496
0.234882 0.370686 2.1819
0.360498 0.363939 2.16203
0.10427 0.421706 2.15997
0.200976 0.455034 2.15494
0.317689 0.454971 2.16695
0.387139 0.48601 2.18051
0.491668 0.49724 2.16518
0.136955 0.241756 2.20145
0.478513 0.241448 2.19775
0.200031 0.295208 2.19871
0.352336 0.290052 2.20528
0.43656 0.349215 2.19852
0.18594 0.400862 2.20647
0.288982 0.398489 2.20045
0.41824 0.41741 2.20107
0.250123 0.467148 2.19514
0.485548 0.450278 2.20645
0.124302 0.506318 2.18864
0.302009 0.506095 2.20474
VERTICES 176 352
1 0
1 1
1 2
1 3
1 4
1 5
1 6
1 7
1 8
1 9
1 10
1 11
1 12
1 13
1 14
1 15
1 16
1 17
1 18
1 19
1 20
1 21
1 22
1 23
1 24
1 25
1 26
1 27
1 28
1 29
1 30
1 31
1 32
1 33
1 34
1 35
1 36
1 37
1 38
1 39
1 40
1 41
1 42
1 43
1 44
1 45
1 46
1 47
1 48
1 49
1 50
1 51
1 52
1 53
1 54
1 55
1 56
1 57
1 58
1 59
1 60
1 61
1 62
1 63
1 64
1 65
1 66
1 67
1 68
1 69
1 70
1 71
1 72
1 73
1 74
1 75
1 76
1 77
1 78
1 79
1 80
1 81
1 82
1 83
1 84
1 85
1 86
1 87
1 88
1 89
1 90
1 91
1 92
1 93
1 94
1 95
1 96
1 97
1 98
1 99
1 100
1 101
1 102
1 103
1 104
1 105
1 106
1 107
1 108
1 109
1 110
1 111
1 112
1 113
1 114
1 115
1 116
1 117
1 118
1 119
1 120
1 121
1 122
1 123
1 124
1 125
1 126
1 127
1 128
1 129
1 130
1 131
1 132
1 133
1 134
1 135
1 136
1 137
1 138
1 139
1 140
1 141
1 142
1 143
1 144
1 145
1 146
1 147
1 148
1 149
1 150
1 151
1 152
1 153
1 154
1 155
1 156
1 157
1 158
1 159
1 160
1 161
1 162
1 163
1 164
1 165
1 166
1 167
1 168
1 169
1 170
1 171
1 172
1 173
1 174
1 175
POINT_DATA 176
VECTORS i float
0.0 0.0 0.0
0.0 0.0 0.0
0.0 0.0 0.0
0.0 0.0 0.0
0.0 0.0 0.0
0.0 0.0 0.0
0.0 0.0 0.0
0.0 0.0 0.0
0.0 0.0 0.0
0.0 0.0 0.0
0.0 0.0 0.0
0.0 0.0 0.0
0.0 0.0 0.0
0.0 0.0 0.0
0.0 0.0 0.0
0.0 0.0 0.0
0.0 0.0 0.0
0.0 0.0 0.0
0.0 0.0 0.0
0.0 0.0 0.0
0.0 0.0 0.0
0.0 0.0 0.0
0.0 0.0 0.0
0.0 0.0 0.0
0.0 0.0 0.0
0.0 0.0 0.0
0.0 0.0 0.0
0.0 0.0 0.0
0.0 0.0 0.0
0.0 0.0 0.0
0.0 0.0 0.0
0.0 0.0 0.0
0.0 0.0 0.0
0.0 0.0 0.0
0.0 0.0 0.0
0.0 0.0 0.0
0.0 0.0 0.0
0.0 0.0 0.0
0.0 0.0 0.0
0.0 0.0 0.0
0.0 0.0 0.0
0.0 0.0 0.0
0.0 0.0 0.0
0.0 0.0 0.0
0.0 0.0 0.0
0.0 0.0 0.0
0.0 0.0 0.0
0.0 0.0 0.0
0.0 0.0 0.0
0.0 0.0 0.0
0.0 0.0 0.0
0.0 0.0 0.0
0.0 0.0 0.0
0.0 0.0 0.0
0.0 0.0 0.0
0.0 0.0 0.0
0.0 0.0 0.0
0.0 0.0 0.0
0.0 0.0 0.0
0.0 0.0 0.0
0.0 0.0 0.0
0.0 0.0 0.0
0.0 0.0 0.0
0.0 0.0 0.0
0.0 0.0 0.0
0.0 0.0 0.0
0.0 0.0 0.0
0.0 0.0 0.0
0.0 0.0 0.0
0.0 0.0 0.0
0.0 0.0 0.0
0.0 0.0 0.0
0.0 0.0 0.0
0.0 0.0 0.0
0.0 0.0 0.0
0.0 0.0 0.0
0.0 0.0 0.0
0.0 0.0 0.0
0.0 0.0 0.0
0.0 0.0 0.0
0.0 0.0 0.0
0.0 0.0 0.0
0.0 0.0 0.0
0.0 0.0 0.0
0.0 0.0 0.0
0.0 0.0 0.0
0.0 0.0 0.0
0.0 0.0 0.0
0.0 0.0 0.0
0.0 0.0 0.0
0.0 0.0 0.0
0.0 0.0 0.0
0.0 0.0 0.0
0.0 0.0 0.0
0.0 0.0 0.0
0.0 0.0 0.0
0.0 0.0 0.0
0.0 0.0 0.0
0.0 0.0 0.0
0.0 0.0 0.0
0.0 0.0 0.0
0.0 0.0 0.0
0.0 0.0 0.0
0.0 0.0 0.0
0.0 0.0 0.0
0.0 0.0 0.0
0.0 0.0 0.0
0.0 0.0 0.0
0.0 0.0 0.0
0.0 0.0 0.0
0.0 0.0 0.0
0.0 0.0 0.0
0.0 0.0 0.0
0.0 0.0 0.0
0.0 0.0 0.0
0.0 0.0 0.0
0.0 0.0 0.0
0.0 0.0 0.0
0.0 0.0 0.0
0.0 0.0 0.0
0.0 0.0 0.0
0.0 0.0 0.0
0.0 0.0 0.0
0.0 0.0 0.0
0.0 0.0 0.0
0.0 0.0 0.0
0.0 0.0 0.0
0.0 0.0 0.0
0.0 0.0 0.0
0.0 0.0 0.0
0.0 0.0 0.0
0.0 0.0 0.0
0.0 0.0 0.0
0.0 0.0 0.0
0.0 0.0 0.0
0.0 0.0 0.0
0.0 0.0 0.0
0.0 0.0 0.0
0.0 0.0 0.0
0.0 0.0 0.0
0.0 0.0 0.0
0.0 0.0 0.0
0.0 0.0 0.0
0.0 0.0 0.0
0.0 0.0 0.0
0.0 0.0 0.0
0.0 0.0 0.0
0.0 0.0 0.0
0.0 0.0 0.0
0.0 0.0 0.0
0.0 0.0 0.0
0.0 0.0 0.0
0.0 0.0 0.0
0.0 0.0 0.0
0.0 0.0 0.0
0.0 0.0 0.0
0.0 0.0 0.0
0.0 0.0 0.0
0.0 0.0 0.0
0.0 0.0 0.0
0.0 0.0 0.0
0.0 0.0 0.0
0.0 0.0 0.0
0.0 0.0 0.0
0.0 0.0 0.0
0.0 0.0 0.0
0.0 0.0 0.0
0.0 0.0 0.0
0.0 0.0 0.0
0.0 0.0 0.0
0.0 0.0 0.0
0.0 0.0 0.0
0.0 0.0 0.0
0.0 0.0 0.0
0.0 0.0 0.0
0.0 0.0 0.0
VECTORS f float
-13.9211 4.81142 -2.5232
0.0 0.0 -2.77371
-0.275394 -3.49339 30.7759
21.1343 5.48839 7.08188
-45.7491 14.7404 -72.4233
-4.58661 -1.07923 -5.07333
0.0 0.0 -2.77371
-6.82811 -30.8297 5.58663
0.0 0.0 -2.77371
0.0 0.0 -2.77371
-2.50648 -0.221281 0.776518
17.9089 4.237 1.26688
0.0 0.0 -2.77371
-4.21724 2.28586 73.1603
0.164846 28.7773 -8.81901
-15.1482 14.3626 -159.582
1.30042 0.550201 -0.271215
-0.165375 -0.570686 2.87927
108.546 -38.8153 82.0681
0.0 0.0 -2.77371
0.0 0.0 -2.77371
-0.165815 0.00697367 -2.72164
-14.3734 -2.42561 77.7523
36.3401 -23.484 -40.648
-1.08032 0.751528 -4.93951
0.0 0.0 -2.77371
-2.28955 0.019503 -2.40949
-10.2801 38.2494 -43.5319
6.86028 3.65263 5.36229
0.361847 3.4959 8.46569
48.7569 -18.5986 76.6601
0.0 0.0 -2.77371
0.0 0.0 -2.77371
0.0 0.0 -2.77371
-15.5001 -2.74728 -55.4957
6.52699 0.285661 72.7247
0.0 0.0 -2.77371
0.165815 -0.00697367 -2.82578
0.0 0.0 -2.77371
0.0 0.0 -2.77371
-7.0603 22.7111 79.1523
0.0 0.0 -2.77371
0.82834 0.172156 -2.51195
0.0 0.0 -2.77371
-20.5597 0.0536465 7.281
0.0 0.0 -2.77371
0.0 0.0 -2.77371
0.0 0.0 -2.77371
0.0 0.0 -2.77371
14.8403 -14.64 154.212
0.0 0.0 -2.77371
-1.30042 -0.550201 -5.27621
0.165375 0.570686 -8.4267
-23.0056 7.1452 107.156
28.7178 -34.8837 27.1474
2.77591 8.50127 -3.44132
15.5001 2.74728 49.9483
36.0771 -30.3222 72.4385
0.0 0.0 -2.77371
0.0 0.0 -2.77371
0.0 0.0 -2.77371
0.0 0.0 -2.77371
0.0 0.0 -2.77371
0.0 0.0 -2.77371
0.0 0.0 -2.77371
0.0 0.0 -2.77371
0.0 0.0 -2.77371
0.0 0.0 -2.77371
0.0 0.0 -2.77371
0.0 0.0 -2.77371
0.0 0.0 -2.77371
0.0 0.0 -2.77371
0.0 0.0 -2.77371
0.0 0.0 -2.77371
0.0 0.0 -2.77371
0.0 0.0 -2.77371
0.0 0.0 -2.77371
0.0 0.0 -2.77371
0.0 0.0 -2.77371
0.0 0.0 -2.77371
0.0 0.0 -2.77371
0.0 0.0 -2.77371
0.0 0.0 -2.77371
0.0 0.0 -2.77371
0.0 0.0 -2.77371
0.0 0.0 -2.77371
0.0 0.0 -2.77371
0.0 0.0 -2.77371
0.0 0.0 -2.77371
0.0 0.0 -2.77371
0.0 0.0 -2.77371
0.0 0.0 -2.77371
0.0 0.0 -2.77371
0.0 0.0 -2.77371
0.0 0.0 -2.77371
0.0 0.0 -2.77371
0.0 0.0 -2.77371
0.0 0.0 -2.77371
0.0 0.0 -2.77371
0.0 0.0 -2.77371
0.0 0.0 -2.77371
0.0 0.0 -2.77371
0.0 0.0 -2.77371
0.0 0.0 -2.77371
0.0 0.0 -2.77371
0.0 0.0 -2.77371
0.0 0.0 -2.77371
0.0 0.0 -2.77371
0.0 0.0 -2.77371
0.0 0.0 -2.77371
0.0 0.0 -2.77371
0.0 0.0 -2.77371
0.0 0.0 -2.77371
0.0 0.0 -2.77371
0.0 0.0 -2.77371
0.0 0.0 -2.77371
0.0 0.0 -2.77371
0.0 0.0 -2.77371
0.0 0.0 -2.77371
0.0 0.0 0.0
0.0 0.0 0.0
0.0 0.0 0.0
0.0 0.0 0.0
0.0 0.0 0.0
0.0 0.0 0.0
0.0 0.0 0.0
0.0 0.0 0.0
0.0 0.0 0.0
0.0 0.0 0.0
0.0 0.0 0.0
0.0 0.0 0.0
0.0 0.0 0.0
0.0 0.0 0.0
0.0 0.0 0.0
0.0 0.0 0.0
0.0 0.0 0.0
0.0 0.0 0.0
0.0 0.0 0.0
0.0 0.0 0.0
0.0 0.0 0.0
0.0 0.0 0.0
0.0 0.0 0.0
0.0 0.0 0.0
0.0 0.0 0.0
0.0 0.0 0.0
0.0 0.0 0.0
0.0 0.0 0.0
0.0 0.0 0.0
0.0 0.0 0.0
0.0 0.0 0.0
0.0 0.0 0.0
0.0 0.0 0.0
0.0 0.0 0.0
0.0 0.0 0.0
0.0 0.0 0.0
0.0 0.0 0.0
0.0 0.0 0.0
0.0 0.0 0.0
0.0 0.0 0.0
0.0 0.0 0.0
0.0 0.0 0.0
0.0 0.0 0.0
0.0 0.0 0.0
0.0 0.0 0.0
0.0 0.0 0.0
0.0 0.0 0.0
0.0 0.0 0.0
0.0 0.0 0.0
0.0 0.0 0.0
0.0 0.0 0.0
0.0 0.0 0.0
0.0 0.0 0.0
0.0 0.0 0.0
0.0 0.0 0.0
0.0 0.0 0.0
0.0 0.0 0.0
VECTORS omega float
5.58544 -49.8282 17.8994
0.0 -95.019 0.0
32.0457 -95.7441 9.48443
15.3888 -71.4601 -15.3013
32.8916 -69.0428 -0.0915889
1.31806 -73.2173 2.43622
4.59683 -87.1898 0.853796
29.048 -37.8537 -22.9093
-3.06594 -93.5356 -4.23888
-5.34938 -80.6404 4.58135
-1.57763 -55.5953 -4.52752
30.3643 52.8929 -3.35447
11.2489 -69.1239 15.7782
-15.028 -96.7803 12.2845
-5.94025 -15.2043 -10.3868
-3.16561 -64.1773 -7.91451
7.51497 -83.219 -13.1816
13.5267 41.1583 12.9585
21.1164 -10.5433 -5.92711
-18.7762 -54.8839 15.1098
11.2511 -49.2698 -11.5898
2.22115 -95.2464 2.88181
5.16804 -109.979 -1.89235
-4.07728 -87.2 4.10364
-2.10133 -43.9819 1.90422
-20.507 -84.3448 -1.00173
-6.76307 -84.8987 8.7602
31.2128 -58.8023 -3.15799
-13.4836 45.6454 -10.882
-36.0651 30.3866 13.0654
4.40967 16.4301 5.39088
7.50631 -87.184 -1.17518
-14.2589 23.2248 -12.8198
-47.0215 48.4561 -12.9683
-0.952493 0.179629 -0.305561
16.4372 58.2663 -8.3869
0.0 0.0 0.0
-52.1223 46.8219 9.38665
0.0 -95.0016 0.0
0.0 0.0 0.0
26.2908 38.8892 23.7878
30.7194 6.15548 9.34201
-30.9332 -15.0061 -15.8874
8.39003 -68.3031 9.65735
28.9405 50.4588 11.0309
22.239 -78.6866 4.27378
0.133885 61.3865 -5.73568
-3.85024 37.6361 -18.5912
15.6737 28.349 -44.2852
2.93523 1.93742 -0.0919922
0.0 0.0 0.0
-7.06387 18.7552 6.69311
4.66192 -73.3234 -0.798294
-8.72481 23.5987 -3.75601
-18.9132 -7.51385 24.4333
42.1622 -32.3971 -18.7022
0.85539 0.747239 -0.290448
10.151 -23.6227 -5.84276
0.0 0.0 0.0
0.0 0.0 0.0
0.0 0.0 0.0
0.0 0.0 0.0
0.0 0.0 0.0
0.0 0.0 0.0
0.0 0.0 0.0
0.0 0.0 0.0
0.0 0.0 0.0
0.0 0.0 0.0
0.0 0.0 0.0
0.0 0.0 0.0
0.0 0.0 0.0
0.0 0.0 0.0
0.0 0.0 0.0
0.0 0.0 0.0
0.0 0.0 0.0
0.0 0.0 0.0
0.0 0.0 0.0
0.0 0.0 0.0
0.0 0.0 0.0
0.0 0.0 0.0
0.0 0.0 0.0
0.0 0.0 0.0
0.0 0.0 0.0
0.0 0.0 0.0
0.0 0.0 0.0
0.0 0.0 0.0
0.0 0.0 0.0
0.0 0.0 0.0
0.0 0.0 0.0
0.0 0.0 0.0
0.0 0.0 0.0
0.0 0.0 0.0
0.0 0.0 0.0
0.0 0.0 0.0
0.0 0.0 0.0
0.0 0.0 0.0
0.0 0.0 0.0
0.0 0.0 0.0
0.0 0.0 0.0
0.0 0.0 0.0
0.0 0.0 0.0
0.0 0.0 0.0
0.0 0.0 0.0
0.0 0.0 0.0
0.0 0.0 0.0
0.0 0.0 0.0
0.0 0.0 0.0
0.0 0.0 0.0
0.0 0.0 0.0
0.0 0.0 0.0
0.0 0.0 0.0
0.0 0.0 0.0
0.0 0.0 0.0
0.0 0.0 0.0
0.0 0.0 0.0
0.0 0.0 0.0
0.0 0.0 0.0
0.0 0.0 0.0
0.0 0.0 0.0
0.0 0.0 0.0
0.0 0.0 0.0
0.0 0.0 0.0
0.0 0.0 0.0
0.0 0.0 0.0
0.0 0.0 0.0
0.0 0.0 0.0
0.0 0.0 0.0
0.0 0.0 0.0
0.0 0.0 0.0
0.0 0.0 0.0
0.0 0.0 0.0
0.0 0.0 0.0
0.0 0.0 0.0
0.0 0.0 0.0
0.0 0.0 0.0
0.0 0.0 0.0
0.0 0.0 0.0
0.0 0.0 0.0
0.0 0.0 0.0
0.0 0.0 0.0
0.0 0.0 0.0
0.0 0.0 0.0
0.0 0.0 0.0
0.0 0.0 0.0
0.0 0.0 0.0
0.0 0.0 0.0
0.0 0.0 0.0
0.0 0.0 0.0
0.0 0.0 0.0
0.0 0.0 0.0
0.0 0.0 0.0
0.0 0.0 0.0
0.0 0.0 0.0
0.0 0.0 0.0
0.0 0.0 0.0
0.0 0.0 0.0
0.0 0.0 0.0
0.0 0.0 0.0
0.0 0.0 0.0
0.0 0.0 0.0
0.0 0.0 0.0
0.0 0.0 0.0
0.0 0.0 0.0
0.0 0.0 0.0
0.0 0.0 0.0
0.0 0.0 0.0
0.0 0.0 0.0
0.0 0.0 0.0
0.0 0.0 0.0
0.0 0.0 0.0
0.0 0.0 0.0
0.0 0.0 0.0
0.0 0.0 0.0
0.0 0.0 0.0
0.0 0.0 0.0
0.0 0.0 0.0
VECTORS v float
1.5911 -0.23553 0.0261568
1.19602 0.0 0.86667
1.41122 -0.703294 0.178626
1.83875 -0.452971 0.590772
1.39624 -0.404634 -0.00317954
1.19229 -0.162266 0.00236838
1.41243 -0.134363 0.298666
0.964962 0.102849 -0.562153
1.68004 -0.604595 0.0102952
1.32554 -0.02929 0.00747389
1.68115 -0.0564213 -0.0871167
1.40469 -0.309175 -0.232308
1.94428 -0.340667 -0.208036
1.80579 0.623137 0.0604432
1.81957 -0.352083 0.362388
1.91493 -0.122326 0.630259
1.04159 0.140046 -0.830398
0.937574 0.479623 -0.650089
1.80566 0.0449905 -1.30505
2.06129 0.230521 -0.092187
0.832447 0.381985 -0.0781597
1.48359 0.0904462 0.19614
1.74859 -0.103476 -0.114999
1.34206 0.441618 -0.560767
2.70648 0.0508718 0.151994
1.47399 0.615193 0.0519986
1.50768 0.193698 0.141302
1.6605 0.452216 -1.13128
1.15349 0.768446 0.0473061
-0.0397746 0.188494 -0.361423
0.186143 -0.659036 -0.402925
1.34063 -0.122853 0.0307207
0.936251 -0.118788 -0.00525909
1.09218 0.162213 0.605493
0.443798 0.193692 -1.09797
0.577487 0.5914 0.615833
0.0 0.0 -3.12225
1.14284 0.178875 -0.417249
1.1962 0.0 -0.0527081
0.0 0.0 -3.14667
0.369973 0.431258 -1.22486
-0.222075 0.21807 -0.456399
1.37136 0.386417 -0.306056
1.16389 -0.210431 0.58399
0.383876 -0.264544 0.572864
1.14574 -0.250847 0.26379
0.0463454 -0.556932 0.616994
0.0888413 0.111255 0.861645
1.12727 -0.483613 0.887778
0.00804597 -0.00773716 -2.92195
0.0 0.0 -3.08026
0.236546 0.0400079 -0.538934
0.260863 -0.180718 -0.753523
-1.09392 0.0182692 -0.754139
0.144312 0.557038 -0.228008
0.0246081 -0.968714 -1.31376
0.00827593 0.00171503 -2.91737
1.13383 -0.0401994 -0.912354
0.0 0.0 -2.83491
0.0 0.0 -2.68492
0.0 0.0 -2.71052
0.0 0.0 -2.68982
0.0 0.0 -2.63459
0.0 0.0 -2.6652
0.0 0.0 -2.63783
0.0 0.0 -2.64165
0.0 0.0 -2.63724
0.0 0.0 -2.49411
0.0 0.0 -2.58525
0.0 0.0 -2.51373
0.0 0.0 -2.49823
0.0 0.0 -2.51736
0.0 0.0 -2.35697
0.0 0.0 -2.42976
0.0 0.0 -2.4534
0.0 0.0 -2.16479
0.0 0.0 -2.23611
0.0 0.0 -2.25494
0.0 0.0 -2.07326
0.0 0.0 -2.09808
0.0 0.0 -1.98183
0.0 0.0 -1.99851
0.0 0.0 -2.00616
0.0 0.0 -2.00842
0.0 0.0 -1.94514
0.0 0.0 -1.80967
0.0 0.0 -1.88854
0.0 0.0 -1.8496
0.0 0.0 -1.81291
0.0 0.0 -1.80535
0.0 0.0 -1.93308
0.0 0.0 -1.9167
0.0 0.0 -1.97251
0.0 0.0 -1.87275
0.0 0.0 -1.63652
0.0 0.0 -1.60385
0.0 0.0 -1.59267
0.0 0.0 -1.42669
0.0 0.0 -1.34203
0.0 0.0 -1.53361
0.0 0.0 -1.51733
0.0 0.0 -1.49251
0.0 0.0 -1.48545
0.0 0.0 -1.46024
0.0 0.0 -1.38882
0.0 0.0 -1.51498
0.0 0.0 -1.46288
0.0 0.0 -1.18408
0.0 0.0 -1.25148
0.0 0.0 -1.08716
0.0 0.0 -1.21871
0.0 0.0 -1.09795
0.0 0.0 -1.10865
0.0 0.0 -1.04812
0.0 0.0 -1.20567
0.0 0.0 -1.17545
0.0 0.0 -1.27571
0.0 0.0 -1.21165
0.0 0.0 -1.26129
-0 -0 -1.0
-0 -0 -1.0
-0 -0 -1.0
-0 -0 -1.0
-0 -0 -1.0
-0 -0 -1.0
-0 -0 -1.0
-0 -0 -1.0
-0 -0 -1.0
-0 -0 -1.0
-0 -0 -1.0
-0 -0 -1.0
-0 -0 -1.0
-0 -0 -1.0
-0 -0 -1.0
-0 -0 -1.0
-0 -0 -1.0
-0 -0 -1.0
-0 -0 -1.0
-0 -0 -1.0
-0 -0 -1.0
-0 -0 -1.0
-0 -0 -1.0
-0 -0 -1.0
-0 -0 -1.0
-0 -0 -1.0
-0 -0 -1.0
-0 -0 -1.0
-0 -0 -1.0
-0 -0 -1.0
-0 -0 -1.0
-0 -0 -1.0
-0 -0 -1.0
-0 -0 -1.0
-0 -0 -1.0
-0 -0 -1.0
-0 -0 -1.0
-0 -0 -1.0
-0 -0 -1.0
-0 -0 -1.0
-0 -0 -1.0
-0 -0 -1.0
-0 -0 -1.0
-0 -0 -1.0
-0 -0 -1.0
-0 -0 -1.0
-0 -0 -1.0
-0 -0 -1.0
-0 -0 -1.0
-0 -0 -1.0
-0 -0 -1.0
-0 -0 -1.0
-0 -0 -1.0
-0 -0 -1.0
-0 -0 -1.0
-0 -0 -1.0
-0 -0 -1.0
SCALARS radius float 1
LOOKUP_TABLE default
0.03
0.03
0.03
0.03
0.03
0.03
0.03
0.03
0.03
0.03
0.03
0.03
0.03
0.03
0.03
0.03
0.03
0.03
0.03
0.03
0.03
0.03
0.03
0.03
0.03
0.03
0.03
0.03
0.03
0.03
0.03
0.03
0.03
0.03
0.03
0.03
0.03
0.03
0.03
0.03
0.03
0.03
0.03
0.03
0.03
0.03
0.03
0.03
0.03
0.03
0.03
0.03
0.03
0.03
0.03
0.03
0.03
0.03
0.03
0.03
0.03
0.03
0.03
0.03
0.03
0.03
0.03
0.03
0.03
0.03
0.03
0.03
0.03
0.03
0.03
0.03
0.03
0.03
0.03
0.03
0.03
0.03
0.03
0.03
0.03
0.03
0.03
0.03
0.03
0.03
0.03
0.03
0.03
0.03
0.03
0.03
0.03
0.03
0.03
0.03
0.03
0.03
0.03
0.03
0.03
0.03
0.03
0.03
0.03
0.03
0.03
0.03
0.03
0.03
0.03
0.03
0.03
0.03
0.03
0.03
0.03
0.03
0.03
0.03
0.03
0.03
0.03
0.03
0.03
0.03
0.03
0.03
0.03
0.03
0.03
0.03
0.03
0.03
0.03
0.03
0.03
0.03
0.03
0.03
0.03
0.03
0.03
0.03
0.03
0.03
0.03
0.03
0.03
0.03
0.03
0.03
0.03
0.03
0.03
0.03
0.03
0.03
0.03
0.03
0.03
0.03
0.03
0.03
0.03
0.03
0.03
0.03
0.03
0.03
0.03
0.03
SCALARS type float 1
LOOKUP_TABLE default
1.0
1.0
1.0
1.0
1.0
1.0
1.0
1.0
1.0
1.0
1.0
1.0
1.0
1.0
1.0
1.0
1.0
1.0
1.0
1.0
1.0
1.0
1.0
1.0
1.0
1.0
1.0
1.0
1.0
1.0
1.0
1.0
1.0
1.0
1.0
1.0
1.0
1.0
1.0
1.0
1.0
1.0
1.0
1.0
1.0
1.0
1.0
1.0
1.0
1.0
1.0
1.0
1.0
1.0
1.0
1.0
1.0
1.0
1.0
1.0
1.0
1.0
1.0
1.0
1.0
1.0
1.0
1.0
1.0
1.0
1.0
1.0
1.0
1.0
1.0
1.0
1.0
1.0
1.0
1.0
1.0
1.0
1.0
1.0
1.0
1.0
1.0
1.0
1.0
1.0
1.0
1.0
1.0
1.0
1.0
1.0
1.0
1.0
1.0
1.0
1.0
1.0
1.0
1.0
1.0
1.0
1.0
1.0
1.0
1.0
1.0
1.0
1.0
1.0
1.0
1.0
1.0
1.0
1.0
1.0
1.0
1.0
1.0
1.0
1.0
1.0
1.0
1.0
1.0
1.0
1.0
1.0
1.0
1.0
1.0
1.0
1.0
1.0
1.0
1.0
1.0
1.0
1.0
1.0
1.0
1.0
1.0
1.0
1.0
1.0
1.0
1.0
1.0
1.0
1.0
1.0
1.0
1.0
1.0
1.0
1.0
1.0
1.0
1.0
1.0
1.0
1.0
1.0
1.0
1.0
1.0
1.0
1.0
1.0
1.0
1.0
SCALARS id float 1
LOOKUP_TABLE default
137.0
128.0
108.0
94.0
123.0
49.0
79.0
129.0
105.0
99.0
29.0
145.0
92.0
149.0
104.0
112.0
41.0
21.0
144.0
138.0
166.0
16.0
51.0
98.0
18.0
66.0
85.0
167.0
53.0
146.0
171.0
100.0
1.0
81.0
76.0
91.0
80.0
24.0
82.0
61.0
131.0
97.0
151.0
152.0
2.0
42.0
127.0
5.0
19.0
45.0
71.0
12.0
133.0
17.0
174.0
72.0
47.0
130.0
15.0
73.0
116.0
55.0
31.0
93.0
44.0
4.0
107.0
148.0
32.0
57.0
118.0
164.0
64.0
83.0
125.0
23.0
26.0
68.0
60.0
70.0
157.0
28.0
77.0
75.0
46.0
140.0
10.0
102.0
155.0
136.0
173.0
176.0
67.0
110.0
63.0
30.0
52.0
22.0
120.0
135.0
156.0
35.0
25.0
165.0
101.0
163.0
143.0
86.0
40.0
13.0
8.0
58.0
78.0
109.0
113.0
33.0
134.0
162.0
159.0
139.0
69.0
117.0
43.0
121.0
153.0
147.0
150.0
87.0
115.0
37.0
119.0
168.0
158.0
48.0
50.0
27.0
38.0
90.0
170.0
114.0
7.0
14.0
62.0
169.0
3.0
54.0
95.0
103.0
65.0
11.0
111.0
154.0
161.0
126.0
141.0
36.0
142.0
175.0
59.0
74.0
56.0
6.0
39.0
96.0
132.0
89.0
124.0
106.0
122.0
20.0
172.0
34.0
9.0
88.0
84.0
160.0
SCALARS Temp float 1
LOOKUP_TABLE default
308.978
303.946
305.444
306.97
309.32
314.981
307.423
311.462
311.7
309.347
311.096
300.306
307.46
309.201
307.155
315.28
309.501
311.206
300.431
303.511
310.769
307.376
303.254
312.322
309.576
315.356
312.392
308.544
303.924
300.06
300.142
303.947
300.116
300.21
300.054
300.217
300.0
300.243
303.947
300.0
300.228
300.242
300.084
303.973
300.193
303.946
300.155
300.128
300.06
300.001
300.0
300.045
300.059
300.012
300.034
300.002
300.0
300.001
300.0
300.0
300.0
300.0
300.0
300.0
300.0
300.0
300.0
300.0
300.0
300.0
300.0
300.0
300.0
300.0
300.0
300.0
300.0
300.0
300.0
300.0
300.0
300.0
300.0
300.0
300.0
300.0
300.0
300.0
300.0
300.0
300.0
300.0
300.0
300.0
300.0
300.0
300.0
300.0
300.0
300.0
300.0
300.0
300.0
300.0
300.0
300.0
300.0
300.0
300.0
300.0
300.0
300.0
300.0
300.0
300.0
300.0
300.0
300.0
300.0
300.0
300.0
300.0
300.0
300.0
300.0
300.0
300.0
300.0
300.0
300.0
300.0
300.0
300.0
300.0
300.0
300.0
300.0
300.0
300.0
300.0
300.0
300.0
300.0
300.0
300.0
300.0
300.0
300.0
300.0
300.0
300.0
300.0
300.0
300.0
300.0
300.0
300.0
300.0
300.0
300.0
300.0
300.0
300.0
300.0
300.0
300.0
300.0
300.0
300.0
300.0
300.0
300.0
300.0
300.0
300.0
300.0

