# vtk DataFile Version 2.0
Generated by lpp.py
ASCII
DATASET POLYDATA
POINTS 528 float
2.36916 0.470631 1.51666
2.32065 0.417741 1.53634
2.27785 0.480662 1.54133
2.19726 0.540633 1.55697
2.32016 0.54544 1.53379
2.4354 0.536912 1.53568
0.2794 0.166562 1.59189
0.4207 0.193089 1.57677
0.537209 0.184188 1.57944
1.0045 0.188156 1.57676
1.0639 0.196647 1.57682
1.21951 0.198842 1.57703
1.28099 0.193261 1.57686
1.50217 0.192726 1.57684
1.6631 0.187265 1.57694
1.73049 0.185788 1.57695
1.98264 0.18534 1.57749
2.20587 0.168717 1.57172
0.114042 0.208944 1.57553
0.246074 0.216173 1.57577
0.357281 0.190822 1.57676
0.697134 0.203329 1.5768
0.786039 0.201018 1.57702
1.45009 0.227708 1.57686
1.76567 0.233578 1.57687
2.11563 0.199589 1.56874
2.17149 0.222678 1.55985
0.198727 0.25256 1.57916
0.389313 0.242979 1.58479
0.493111 0.237595 1.58027
0.629972 0.236803 1.57645
0.753326 0.252491 1.57686
0.849496 0.249039 1.57698
0.967713 0.235375 1.57688
1.10722 0.237324 1.58351
1.16937 0.260201 1.57692
1.25629 0.251386 1.57633
1.32541 0.23549 1.5769
1.53989 0.242353 1.57686
1.59714 0.269633 1.57684
1.65293 0.246093 1.57649
1.95076 0.248517 1.57686
0.27965 0.27352 1.57656
0.336087 0.268544 1.59249
0.466164 0.288795 1.57596
0.533732 0.295269 1.57724
0.665731 0.284454 1.57801
0.896884 0.286736 1.57789
1.03865 0.282238 1.5768
1.09665 0.297142 1.57684
1.3131 0.293975 1.57686
1.37206 0.281304 1.57687
1.47232 0.286038 1.57687
1.87823 0.270364 1.57686
2.01408 0.292628 1.57682
2.13412 0.274091 1.56656
0.185675 0.312945 1.5778
0.429329 0.341324 1.57457
0.606757 0.311337 1.57761
0.964033 0.301904 1.58257
1.41758 0.323548 1.57687
1.63982 0.311327 1.57664
1.79841 0.324433 1.5769
1.86062 0.334312 1.57688
0.209152 0.370076 1.59967
0.352669 0.340342 1.57526
0.491016 0.365849 1.57686
0.550038 0.374239 1.57734
0.609559 0.370843 1.57983
0.813058 0.343724 1.57637
1.05548 0.344252 1.57686
1.11623 0.353689 1.57691
1.25691 0.348887 1.5768
1.35737 0.344373 1.57687
1.47492 0.349002 1.57691
1.68065 0.353954 1.57672
1.91723 0.357907 1.5771
2.0093 0.365357 1.57687
0.0130462 0.409964 1.57676
0.166119 0.404457 1.5764
0.777651 0.406284 1.57687
0.915405 0.391903 1.57686
1.17028 0.393109 1.57689
1.31068 0.383846 1.57686
1.40204 0.387754 1.57687
1.55062 0.407524 1.57691
1.72473 0.390249 1.59194
1.80244 0.384745 1.57682
1.94156 0.411729 1.57703
0.224752 0.431794 1.57721
0.400202 0.436731 1.57717
0.483039 0.425011 1.57627
1.0446 0.42655 1.57677
1.10971 0.441246 1.57687
1.20719 0.442134 1.57679
1.44378 0.431815 1.57839
1.61663 0.4171 1.57634
1.70055 0.442848 1.57682
1.76284 0.433626 1.57695
1.83655 0.434103 1.57681
2.0333 0.425951 1.5764
0.127415 0.46153 1.5766
0.529526 0.462729 1.57583
0.589364 0.457409 1.57947
0.73792 0.473863 1.57687
0.853966 0.446512 1.57686
0.926667 0.453031 1.57642
1.26173 0.458578 1.5954
1.31758 0.447323 1.57684
1.39733 0.469573 1.57686
1.49818 0.461036 1.57686
1.56382 0.467071 1.57663
1.8946 0.448315 1.57646
1.96162 0.467231 1.57726
0.428268 0.490216 1.57616
0.639452 0.515118 1.5769
0.794827 0.491107 1.58548
0.853192 0.507433 1.57687
0.944464 0.509523 1.58212
1.03105 0.484787 1.57679
1.21137 0.50193 1.57692
1.2976 0.509477 1.57781
1.4497 0.499127 1.57775
1.67335 0.497397 1.57686
1.73652 0.508932 1.57688
1.80406 0.487952 1.57686
0.147544 0.523087 1.57879
0.205465 0.541222 1.58291
0.547148 0.523542 1.58228
1.0093 0.546969 1.57564
1.08164 0.519891 1.57693
1.25198 0.547731 1.5764
1.39462 0.525566 1.59792
1.5031 0.538337 1.57687
1.58509 0.522732 1.57692
1.93829 0.521497 1.57672
0.275922 0.567123 1.58148
0.39709 0.570874 1.58164
0.495639 0.579865 1.58929
0.55509 0.584744 1.59511
0.659623 0.571416 1.58039
0.750036 0.56687 1.5764
0.804135 0.584504 1.59351
0.860973 0.567632 1.5852
0.925519 0.565521 1.57631
1.12459 0.562396 1.57688
1.18909 0.559911 1.57669
1.2983 0.584559 1.59425
1.34765 0.555591 1.57687
1.44014 0.558487 1.57685
1.67526 0.566822 1.57687
1.77654 0.555781 1.57686
1.8711 0.556081 1.57741
0.149312 0.141102 1.62851
0.669218 0.147175 1.6209
0.737657 0.153964 1.62805
0.841253 0.132486 1.63018
0.99526 0.13089 1.63205
1.05971 0.13694 1.626
1.13841 0.133532 1.62946
1.18921 0.162567 1.6143
1.42611 0.161494 1.60145
0.324814 0.172952 1.62595
0.582859 0.188624 1.63714
0.839971 0.190725 1.60295
0.911847 0.195709 1.60701
0.15461 0.206454 1.61741
0.215935 0.208537 1.62633
0.277804 0.21734 1.62547
0.555222 0.249313 1.61066
0.475764 0.283767 1.63454
0.699233 0.300789 1.62523
1.2558 0.299785 1.61097
0.24329 0.30896 1.61009
0.377282 0.335376 1.62916
0.829029 0.31785 1.62744
0.0408424 0.365058 1.60479
0.127861 0.354345 1.61726
0.453041 0.351677 1.62644
0.730623 0.365469 1.6223
0.864539 0.370249 1.61876
1.59749 0.361556 1.6041
0.328126 0.388041 1.6187
0.403157 0.390757 1.61773
1.24182 0.399377 1.60504
1.48523 0.407176 1.6147
0.127284 0.421112 1.62439
0.273159 0.413146 1.60722
0.35303 0.444013 1.61637
0.544516 0.427073 1.6201
0.617232 0.418636 1.6213
0.718404 0.423801 1.63074
1.03234 0.425113 1.63522
1.65665 0.430295 1.61708
0.186996 0.453377 1.61888
0.29913 0.48277 1.60482
1.60169 0.457629 1.62205
0.240712 0.492966 1.60735
0.477297 0.478573 1.61869
0.60742 0.482212 1.63379
1.13907 0.507223 1.6002
0.0924899 0.527024 1.60859
0.454799 0.536715 1.60261
0.767417 0.536255 1.62454
1.20543 0.533383 1.62743
0.305167 0.62355 1.64245
0.617533 0.601119 1.61336
0.747758 0.620564 1.63548
0.83474 0.619487 1.62909
1.0577 0.589476 1.59865
1.13099 0.609242 1.61846
1.21757 0.601048 1.60992
1.35986 0.614415 1.62357
1.53817 0.590421 1.59962
0.595478 0.120191 1.64344
1.53558 0.100816 1.66207
0.20057 0.129184 1.67057
0.410228 0.134449 1.63731
0.488327 0.167072 1.66152
1.12287 0.196853 1.63638
0.327741 0.231802 1.65378
0.455409 0.223756 1.63459
0.520759 0.221405 1.6497
0.112163 0.243488 1.63407
0.634624 0.25629 1.6524
0.774991 0.256582 1.65747
0.167293 0.292119 1.63006
0.36846 0.271256 1.64175
0.420376 0.295514 1.64939
0.740652 0.304599 1.66917
1.08803 0.305981 1.63542
0.0736443 0.350946 1.65585
0.262704 0.36284 1.63621
0.314135 0.338263 1.65188
0.530893 0.359675 1.64411
0.659158 0.373468 1.63257
0.259547 0.441465 1.65987
0.474843 0.418955 1.63419
1.54767 0.411958 1.63986
0.520279 0.462619 1.6625
0.81676 0.476154 1.64328
1.46165 0.466985 1.63244
0.191966 0.507311 1.64175
0.359841 0.503384 1.63858
0.424032 0.508917 1.64833
0.553256 0.509204 1.64608
0.601472 0.546324 1.65154
0.342642 0.565823 1.63486
0.65956 0.557542 1.63815
0.837165 0.558901 1.65418
1.00049 0.572388 1.6301
0.50242 0.595458 1.64554
0.400011 0.627571 1.63674
0.465373 0.642303 1.65196
0.667366 0.643701 1.6586
0.38429 0.20268 1.66255
0.277877 0.287927 1.67333
0.140514 0.336438 1.6712
0.338167 0.299583 1.68975
0.493824 0.303685 1.68853
0.551741 0.299522 1.66256
0.422093 0.369207 1.67303
0.698941 0.337619 1.69841
0.174384 0.397716 1.65861
0.274548 0.383147 1.69791
0.385548 0.424659 1.66239
0.580366 0.412355 1.67411
0.333241 0.450174 1.67655
0.442957 0.449466 1.6835
0.509836 0.528004 1.69065
0.786448 0.619518 1.69635
0.443607 0.689085 1.69827
0.196779 0.286134 1.68254
0.377325 0.339259 1.71236
0.179355 0.382803 1.71794
0.0156104 0.441162 1.73035
0.406727 0.416369 1.71759
0.180002 0.445959 1.70031
0.320081 0.501369 1.71997
0.4192 0.521596 1.71083
0.335169 0.565564 1.70114
0.498503 0.253983 1.73165
0.322634 0.359243 1.71843
0.353466 0.446474 1.73607
0.133145 0.50156 1.72996
0.432796 0.302258 1.76838
0.499396 0.409304 1.77889
0.230608 0.478968 1.75018
0.299287 0.247375 1.78597
0.442411 0.236129 1.79129
0.126939 0.284236 1.80935
0.187834 0.32549 1.81812
0.345572 0.308923 1.80179
0.476186 0.343657 1.79341
0.180798 0.510604 1.82161
0.383426 0.485675 1.80714
0.196226 0.26238 1.85334
0.356376 0.254196 1.85775
0.256147 0.321804 1.841
0.110703 0.374435 1.84548
0.282511 0.427246 1.82307
0.107302 0.455042 1.85398
0.415762 0.389621 1.859
0.214879 0.429082 1.88314
0.49838 0.508374 1.86725
0.271982 0.260644 1.92425
0.321856 0.294278 1.92117
0.44222 0.295647 1.90505
0.346145 0.350757 1.91196
0.475094 0.383761 1.90307
0.466199 0.451954 1.91266
0.104255 0.515661 1.92723
0.236464 0.494005 1.90835
0.430217 0.500721 1.91337
0.339305 0.526873 1.89892
0.125428 0.344451 1.94849
0.189012 0.364304 1.96295
0.415188 0.353574 1.95635
0.282424 0.374546 1.93834
0.115455 0.44409 1.96528
0.323589 0.424937 1.95307
0.103324 0.228818 1.97199
0.161403 0.258279 1.97129
0.363615 0.240431 1.98015
0.425069 0.242959 1.98187
0.499192 0.246026 1.97814
0.40415 0.414672 1.98098
0.158807 0.499296 1.99007
0.370433 0.49856 1.97629
0.264146 0.523422 1.98609
0.220666 0.238837 2.03687
0.257372 0.298287 2.02184
0.314466 0.284399 2.04263
0.492483 0.279077 2.04436
0.417494 0.317622 2.04131
0.31493 0.348737 2.00842
0.484684 0.362834 2.01796
0.125062 0.39201 2.02368
0.217234 0.387064 2.03499
0.263093 0.452487 2.04192
0.417911 0.469013 2.03641
0.393674 0.233628 2.05132
0.17717 0.298235 2.0492
0.107591 0.339963 2.05367
0.385775 0.387923 2.05657
0.449749 0.403068 2.04884
0.345938 0.437655 2.06303
0.139724 0.459766 2.05164
0.486571 0.452792 2.04555
0.220758 0.508511 2.04861
0.312076 0.491969 2.0476
0.490194 0.521396 2.05111
0.130146 0.239366 2.10739
0.215119 0.259008 2.11422
0.293957 0.252051 2.09734
0.480794 0.235256 2.10404
0.112395 0.298661 2.10505
0.396036 0.28089 2.11076
0.461831 0.299793 2.11245
0.313064 0.354671 2.08175
0.494465 0.353653 2.08034
0.177639 0.41728 2.08339
0.25883 0.414412 2.1007
0.188867 0.511362 2.10232
0.352584 0.510062 2.09424
0.481601 0.499619 2.10711
0.286065 0.525163 2.09213
0.420914 0.522237 2.08179
0.260232 0.32538 2.12072
0.134053 0.366007 2.14991
0.184207 0.342437 2.1252
0.413738 0.375309 2.14012
0.153204 0.432626 2.14854
0.469219 0.429721 2.11597
0.312883 0.472231 2.12355
0.425503 0.471227 2.11617
0.107222 0.481912 2.13361
0.32799 0.229202 2.17355
0.405689 0.228633 2.15064
0.167912 0.238386 2.16466
0.231382 0.240563 2.17299
0.113197 0.294489 2.17951
0.469257 0.29946 2.18185
0.317332 0.30781 2.15804
0.489016 0.368217 2.15079
0.222179 0.424446 2.16719
0.306002 0.430402 2.1774
0.239416 0.495022 2.16556
0.498927 0.504545 2.16488
0.360463 0.523492 2.17545
0.109866 0.233818 2.18844
0.391248 0.260634 2.21374
0.498812 0.248514 2.19893
0.194033 0.278126 2.20518
0.265839 0.285868 2.2068
0.194635 0.336418 2.18946
0.405808 0.316699 2.18707
0.291855 0.372275 2.21768
0.489514 0.352564 2.21129
0.379233 0.434328 2.18583
0.487806 0.414883 2.20581
0.188866 0.448878 2.21084
0.150905 0.499656 2.20471
0.297107 0.507647 2.18842
0.452328 0.508491 2.20873
0.121163 0.235465 2.24938
0.325604 0.248234 2.23541
0.464139 0.288262 2.2435
0.240166 0.328846 2.24071
0.354308 0.337534 2.22063
0.142017 0.392074 2.22392
0.442633 0.401674 2.24786
0.112907 0.457318 2.23655
0.306813 0.454906 2.24191
0.232349 0.51961 2.2455
0.325501 0.521381 2.24998
0.228203 0.227346 2.25755
0.182449 0.265752 2.27745
0.371199 0.250575 2.27872
0.109346 0.315959 2.26037
0.287412 0.337623 2.28316
0.368802 0.320326 2.28015
0.198909 0.373142 2.27127
0.435393 0.34359 2.27127
0.263606 0.399014 2.2651
0.151029 0.419157 2.28396
0.224919 0.462043 2.27083
0.480028 0.469573 2.27511
0.143314 0.508824 2.28199
0.370146 0.482381 2.27259
0.477175 0.232241 2.29463
0.310551 0.275965 2.29166
0.202651 0.326782 2.30942
0.419779 0.314987 2.32386
0.384965 0.379016 2.315
0.333275 0.414894 2.29173
0.470694 0.421347 2.31073
0.158331 0.259584 2.33919
0.379968 0.260616 2.3378
0.478207 0.314376 2.34397
0.102309 0.339997 2.32882
0.189373 0.382597 2.35159
0.261557 0.393625 2.33365
0.496133 0.384099 2.35079
0.108153 0.438732 2.34855
0.318306 0.424417 2.35625
0.41429 0.434596 2.34731
0.178059 0.478415 2.33491
0.487334 0.474096 2.33584
0.297583 0.511466 2.32592
0.353581 0.483281 2.35649
0.419317 0.494483 2.3371
0.226804 0.518091 2.34666
0.287182 0.241461 2.36538
0.437539 0.252688 2.36571
0.313165 0.295281 2.37233
0.146413 0.330961 2.36865
0.23496 0.304512 2.36559
0.361163 0.357044 2.38824
0.444299 0.395894 2.3832
0.167616 0.430974 2.38451
0.489664 0.438439 2.39411
0.250241 0.450955 2.38964
0.105798 0.50424 2.39445
0.281519 0.521738 2.38447
0.345706 0.244188 2.39848
0.119434 0.281797 2.39643
0.183368 0.299923 2.40745
0.4644 0.282902 2.42546
0.413519 0.31622 2.39723
0.114178 0.389821 2.40746
0.20118 0.391877 2.41642
0.261164 0.39533 2.42092
0.393917 0.429411 2.40729
0.187915 0.515186 2.41538
0.32526 0.484758 2.41005
0.4524 0.512277 2.40886
0.1932 0.229789 2.44297
0.337046 0.231264 2.45864
0.422137 0.237787 2.43647
0.372856 0.301203 2.44603
0.306584 0.303573 2.45311
0.15454 0.359333 2.4412
0.330347 0.403499 2.44088
0.485995 0.385829 2.44292
0.145536 0.471864 2.45705
0.398538 0.477915 2.45576
0.493497 0.449079 2.46063
0.10177 0.254991 2.47716
0.497694 0.256246 2.47034
0.248456 0.285804 2.47542
0.430203 0.322942 2.49658
0.488964 0.318078 2.47029
0.244928 0.34739 2.48499
0.359187 0.345598 2.49339
0.206866 0.39261 2.49625
0.387775 0.408365 2.47781
0.244813 0.43345 2.47185
0.322092 0.457941 2.48624
0.239296 0.494007 2.483
0.496548 0.513622 2.49741
0.308508 0.519363 2.47446
0.119764 0.23589 2.53451
0.200715 0.243234 2.52381
0.271532 0.23235 2.5228
0.389977 0.239061 2.50499
0.465941 0.232795 2.51673
0.150783 0.312529 2.50024
0.32123 0.387645 2.52716
0.462123 0.378122 2.52228
0.114653 0.416417 2.50766
0.100279 0.478463 2.5025
0.195028 0.474388 2.52054
0.489023 0.459055 2.53218
0.434645 0.505695 2.53274
0.340901 0.251487 2.54902
0.252209 0.30257 2.55485
0.399979 0.29937 2.54706
0.334843 0.328269 2.55319
0.493176 0.31314 2.55199
0.145549 0.370736 2.54487
0.203386 0.34301 2.54212
0.402076 0.364491 2.55095
0.253008 0.38524 2.53529
0.388515 0.434845 2.54435
0.1312 0.50645 2.55577
0.277161 0.482116 2.55173
0.348799 0.506378 2.54849
VERTICES 528 1056
1 0
1 1
1 2
1 3
1 4
1 5
1 6
1 7
1 8
1 9
1 10
1 11
1 12
1 13
1 14
1 15
1 16
1 17
1 18
1 19
1 20
1 21
1 22
1 23
1 24
1 25
1 26
1 27
1 28
1 29
1 30
1 31
1 32
1 33
1 34
1 35
1 36
1 37
1 38
1 39
1 40
1 41
1 42
1 43
1 44
1 45
1 46
1 47
1 48
1 49
1 50
1 51
1 52
1 53
1 54
1 55
1 56
1 57
1 58
1 59
1 60
1 61
1 62
1 63
1 64
1 65
1 66
1 67
1 68
1 69
1 70
1 71
1 72
1 73
1 74
1 75
1 76
1 77
1 78
1 79
1 80
1 81
1 82
1 83
1 84
1 85
1 86
1 87
1 88
1 89
1 90
1 91
1 92
1 93
1 94
1 95
1 96
1 97
1 98
1 99
1 100
1 101
1 102
1 103
1 104
1 105
1 106
1 107
1 108
1 109
1 110
1 111
1 112
1 113
1 114
1 115
1 116
1 117
1 118
1 119
1 120
1 121
1 122
1 123
1 124
1 125
1 126
1 127
1 128
1 129
1 130
1 131
1 132
1 133
1 134
1 135
1 136
1 137
1 138
1 139
1 140
1 141
1 142
1 143
1 144
1 145
1 146
1 147
1 148
1 149
1 150
1 151
1 152
1 153
1 154
1 155
1 156
1 157
1 158
1 159
1 160
1 161
1 162
1 163
1 164
1 165
1 166
1 167
1 168
1 169
1 170
1 171
1 172
1 173
1 174
1 175
1 176
1 177
1 178
1 179
1 180
1 181
1 182
1 183
1 184
1 185
1 186
1 187
1 188
1 189
1 190
1 191
1 192
1 193
1 194
1 195
1 196
1 197
1 198
1 199
1 200
1 201
1 202
1 203
1 204
1 205
1 206
1 207
1 208
1 209
1 210
1 211
1 212
1 213
1 214
1 215
1 216
1 217
1 218
1 219
1 220
1 221
1 222
1 223
1 224
1 225
1 226
1 227
1 228
1 229
1 230
1 231
1 232
1 233
1 234
1 235
1 236
1 237
1 238
1 239
1 240
1 241
1 242
1 243
1 244
1 245
1 246
1 247
1 248
1 249
1 250
1 251
1 252
1 253
1 254
1 255
1 256
1 257
1 258
1 259
1 260
1 261
1 262
1 263
1 264
1 265
1 266
1 267
1 268
1 269
1 270
1 271
1 272
1 273
1 274
1 275
1 276
1 277
1 278
1 279
1 280
1 281
1 282
1 283
1 284
1 285
1 286
1 287
1 288
1 289
1 290
1 291
1 292
1 293
1 294
1 295
1 296
1 297
1 298
1 299
1 300
1 301
1 302
1 303
1 304
1 305
1 306
1 307
1 308
1 309
1 310
1 311
1 312
1 313
1 314
1 315
1 316
1 317
1 318
1 319
1 320
1 321
1 322
1 323
1 324
1 325
1 326
1 327
1 328
1 329
1 330
1 331
1 332
1 333
1 334
1 335
1 336
1 337
1 338
1 339
1 340
1 341
1 342
1 343
1 344
1 345
1 346
1 347
1 348
1 349
1 350
1 351
1 352
1 353
1 354
1 355
1 356
1 357
1 358
1 359
1 360
1 361
1 362
1 363
1 364
1 365
1 366
1 367
1 368
1 369
1 370
1 371
1 372
1 373
1 374
1 375
1 376
1 377
1 378
1 379
1 380
1 381
1 382
1 383
1 384
1 385
1 386
1 387
1 388
1 389
1 390
1 391
1 392
1 393
1 394
1 395
1 396
1 397
1 398
1 399
1 400
1 401
1 402
1 403
1 404
1 405
1 406
1 407
1 408
1 409
1 410
1 411
1 412
1 413
1 414
1 415
1 416
1 417
1 418
1 419
1 420
1 421
1 422
1 423
1 424
1 425
1 426
1 427
1 428
1 429
1 430
1 431
1 432
1 433
1 434
1 435
1 436
1 437
1 438
1 439
1 440
1 441
1 442
1 443
1 444
1 445
1 446
1 447
1 448
1 449
1 450
1 451
1 452
1 453
1 454
1 455
1 456
1 457
1 458
1 459
1 460
1 461
1 462
1 463
1 464
1 465
1 466
1 467
1 468
1 469
1 470
1 471
1 472
1 473
1 474
1 475
1 476
1 477
1 478
1 479
1 480
1 481
1 482
1 483
1 484
1 485
1 486
1 487
1 488
1 489
1 490
1 491
1 492
1 493
1 494
1 495
1 496
1 497
1 498
1 499
1 500
1 501
1 502
1 503
1 504
1 505
1 506
1 507
1 508
1 509
1 510
1 511
1 512
1 513
1 514
1 515
1 516
1 517
1 518
1 519
1 520
1 521
1 522
1 523
1 524
1 525
1 526
1 527
POINT_DATA 528
VECTORS i float
0.0 0.0 0.0
0.0 0.0 0.0
0.0 0.0 0.0
0.0 0.0 0.0
0.0 0.0 0.0
0.0 0.0 0.0
0.0 0.0 0.0
0.0 0.0 0.0
0.0 0.0 0.0
0.0 0.0 0.0
0.0 0.0 0.0
0.0 0.0 0.0
0.0 0.0 0.0
0.0 0.0 0.0
0.0 0.0 0.0
0.0 0.0 0.0
0.0 0.0 0.0
0.0 0.0 0.0
0.0 0.0 0.0
0.0 0.0 0.0
0.0 0.0 0.0
0.0 0.0 0.0
0.0 0.0 0.0
0.0 0.0 0.0
0.0 0.0 0.0
0.0 0.0 0.0
0.0 0.0 0.0
0.0 0.0 0.0
0.0 0.0 0.0
0.0 0.0 0.0
0.0 0.0 0.0
0.0 0.0 0.0
0.0 0.0 0.0
0.0 0.0 0.0
0.0 0.0 0.0
0.0 0.0 0.0
0.0 0.0 0.0
0.0 0.0 0.0
0.0 0.0 0.0
0.0 0.0 0.0
0.0 0.0 0.0
0.0 0.0 0.0
0.0 0.0 0.0
0.0 0.0 0.0
0.0 0.0 0.0
0.0 0.0 0.0
0.0 0.0 0.0
0.0 0.0 0.0
0.0 0.0 0.0
0.0 0.0 0.0
0.0 0.0 0.0
0.0 0.0 0.0
0.0 0.0 0.0
0.0 0.0 0.0
0.0 0.0 0.0
0.0 0.0 0.0
0.0 0.0 0.0
0.0 0.0 0.0
0.0 0.0 0.0
0.0 0.0 0.0
0.0 0.0 0.0
0.0 0.0 0.0
0.0 0.0 0.0
0.0 0.0 0.0
0.0 0.0 0.0
0.0 0.0 0.0
0.0 0.0 0.0
0.0 0.0 0.0
0.0 0.0 0.0
0.0 0.0 0.0
0.0 0.0 0.0
0.0 0.0 0.0
0.0 0.0 0.0
0.0 0.0 0.0
0.0 0.0 0.0
0.0 0.0 0.0
0.0 0.0 0.0
0.0 0.0 0.0
0.0 0.0 0.0
0.0 0.0 0.0
0.0 0.0 0.0
0.0 0.0 0.0
0.0 0.0 0.0
0.0 0.0 0.0
0.0 0.0 0.0
0.0 0.0 0.0
0.0 0.0 0.0
0.0 0.0 0.0
0.0 0.0 0.0
0.0 0.0 0.0
0.0 0.0 0.0
0.0 0.0 0.0
0.0 0.0 0.0
0.0 0.0 0.0
0.0 0.0 0.0
0.0 0.0 0.0
0.0 0.0 0.0
0.0 0.0 0.0
0.0 0.0 0.0
0.0 0.0 0.0
0.0 0.0 0.0
0.0 0.0 0.0
0.0 0.0 0.0
0.0 0.0 0.0
0.0 0.0 0.0
0.0 0.0 0.0
0.0 0.0 0.0
0.0 0.0 0.0
0.0 0.0 0.0
0.0 0.0 0.0
0.0 0.0 0.0
0.0 0.0 0.0
0.0 0.0 0.0
0.0 0.0 0.0
0.0 0.0 0.0
0.0 0.0 0.0
0.0 0.0 0.0
0.0 0.0 0.0
0.0 0.0 0.0
0.0 0.0 0.0
0.0 0.0 0.0
0.0 0.0 0.0
0.0 0.0 0.0
0.0 0.0 0.0
0.0 0.0 0.0
0.0 0.0 0.0
0.0 0.0 0.0
0.0 0.0 0.0
0.0 0.0 0.0
0.0 0.0 0.0
0.0 0.0 0.0
0.0 0.0 0.0
0.0 0.0 0.0
0.0 0.0 0.0
0.0 0.0 0.0
0.0 0.0 0.0
0.0 0.0 0.0
0.0 0.0 0.0
0.0 0.0 0.0
0.0 0.0 0.0
0.0 0.0 0.0
0.0 0.0 0.0
0.0 0.0 0.0
0.0 0.0 0.0
0.0 0.0 0.0
0.0 0.0 0.0
0.0 0.0 0.0
0.0 0.0 0.0
0.0 0.0 0.0
0.0 0.0 0.0
0.0 0.0 0.0
0.0 0.0 0.0
0.0 0.0 0.0
0.0 0.0 0.0
0.0 0.0 0.0
0.0 0.0 0.0
0.0 0.0 0.0
0.0 0.0 0.0
0.0 0.0 0.0
0.0 0.0 0.0
0.0 0.0 0.0
0.0 0.0 0.0
0.0 0.0 0.0
0.0 0.0 0.0
0.0 0.0 0.0
0.0 0.0 0.0
0.0 0.0 0.0
0.0 0.0 0.0
0.0 0.0 0.0
0.0 0.0 0.0
0.0 0.0 0.0
0.0 0.0 0.0
0.0 0.0 0.0
0.0 0.0 0.0
0.0 0.0 0.0
0.0 0.0 0.0
0.0 0.0 0.0
0.0 0.0 0.0
0.0 0.0 0.0
0.0 0.0 0.0
0.0 0.0 0.0
0.0 0.0 0.0
0.0 0.0 0.0
0.0 0.0 0.0
0.0 0.0 0.0
0.0 0.0 0.0
0.0 0.0 0.0
0.0 0.0 0.0
0.0 0.0 0.0
0.0 0.0 0.0
0.0 0.0 0.0
0.0 0.0 0.0
0.0 0.0 0.0
0.0 0.0 0.0
0.0 0.0 0.0
0.0 0.0 0.0
0.0 0.0 0.0
0.0 0.0 0.0
0.0 0.0 0.0
0.0 0.0 0.0
0.0 0.0 0.0
0.0 0.0 0.0
0.0 0.0 0.0
0.0 0.0 0.0
0.0 0.0 0.0
0.0 0.0 0.0
0.0 0.0 0.0
0.0 0.0 0.0
0.0 0.0 0.0
0.0 0.0 0.0
0.0 0.0 0.0
0.0 0.0 0.0
0.0 0.0 0.0
0.0 0.0 0.0
0.0 0.0 0.0
0.0 0.0 0.0
0.0 0.0 0.0
0.0 0.0 0.0
0.0 0.0 0.0
0.0 0.0 0.0
0.0 0.0 0.0
0.0 0.0 0.0
0.0 0.0 0.0
0.0 0.0 0.0
0.0 0.0 0.0
0.0 0.0 0.0
0.0 0.0 0.0
0.0 0.0 0.0
0.0 0.0 0.0
0.0 0.0 0.0
0.0 0.0 0.0
0.0 0.0 0.0
0.0 0.0 0.0
0.0 0.0 0.0
0.0 0.0 0.0
0.0 0.0 0.0
0.0 0.0 0.0
0.0 0.0 0.0
0.0 0.0 0.0
0.0 0.0 0.0
0.0 0.0 0.0
0.0 0.0 0.0
0.0 0.0 0.0
0.0 0.0 0.0
0.0 0.0 0.0
0.0 0.0 0.0
0.0 0.0 0.0
0.0 0.0 0.0
0.0 0.0 0.0
0.0 0.0 0.0
0.0 0.0 0.0
0.0 0.0 0.0
0.0 0.0 0.0
0.0 0.0 0.0
0.0 0.0 0.0
0.0 0.0 0.0
0.0 0.0 0.0
0.0 0.0 0.0
0.0 0.0 0.0
0.0 0.0 0.0
0.0 0.0 0.0
0.0 0.0 0.0
0.0 0.0 0.0
0.0 0.0 0.0
0.0 0.0 0.0
0.0 0.0 0.0
0.0 0.0 0.0
0.0 0.0 0.0
0.0 0.0 0.0
0.0 0.0 0.0
0.0 0.0 0.0
0.0 0.0 0.0
0.0 0.0 0.0
0.0 0.0 0.0
0.0 0.0 0.0
0.0 0.0 0.0
0.0 0.0 0.0
0.0 0.0 0.0
0.0 0.0 0.0
0.0 0.0 0.0
0.0 0.0 0.0
0.0 0.0 0.0
0.0 0.0 0.0
0.0 0.0 0.0
0.0 0.0 0.0
0.0 0.0 0.0
0.0 0.0 0.0
0.0 0.0 0.0
0.0 0.0 0.0
0.0 0.0 0.0
0.0 0.0 0.0
0.0 0.0 0.0
0.0 0.0 0.0
0.0 0.0 0.0
0.0 0.0 0.0
0.0 0.0 0.0
0.0 0.0 0.0
0.0 0.0 0.0
0.0 0.0 0.0
0.0 0.0 0.0
0.0 0.0 0.0
0.0 0.0 0.0
0.0 0.0 0.0
0.0 0.0 0.0
0.0 0.0 0.0
0.0 0.0 0.0
0.0 0.0 0.0
0.0 0.0 0.0
0.0 0.0 0.0
0.0 0.0 0.0
0.0 0.0 0.0
0.0 0.0 0.0
0.0 0.0 0.0
0.0 0.0 0.0
0.0 0.0 0.0
0.0 0.0 0.0
0.0 0.0 0.0
0.0 0.0 0.0
0.0 0.0 0.0
0.0 0.0 0.0
0.0 0.0 0.0
0.0 0.0 0.0
0.0 0.0 0.0
0.0 0.0 0.0
0.0 0.0 0.0
0.0 0.0 0.0
0.0 0.0 0.0
0.0 0.0 0.0
0.0 0.0 0.0
0.0 0.0 0.0
0.0 0.0 0.0
0.0 0.0 0.0
0.0 0.0 0.0
0.0 0.0 0.0
0.0 0.0 0.0
0.0 0.0 0.0
0.0 0.0 0.0
0.0 0.0 0.0
0.0 0.0 0.0
0.0 0.0 0.0
0.0 0.0 0.0
0.0 0.0 0.0
0.0 0.0 0.0
0.0 0.0 0.0
0.0 0.0 0.0
0.0 0.0 0.0
0.0 0.0 0.0
0.0 0.0 0.0
0.0 0.0 0.0
0.0 0.0 0.0
0.0 0.0 0.0
0.0 0.0 0.0
0.0 0.0 0.0
0.0 0.0 0.0
0.0 0.0 0.0
0.0 0.0 0.0
0.0 0.0 0.0
0.0 0.0 0.0
0.0 0.0 0.0
0.0 0.0 0.0
0.0 0.0 0.0
0.0 0.0 0.0
0.0 0.0 0.0
0.0 0.0 0.0
0.0 0.0 0.0
0.0 0.0 0.0
0.0 0.0 0.0
0.0 0.0 0.0
0.0 0.0 0.0
0.0 0.0 0.0
0.0 0.0 0.0
0.0 0.0 0.0
0.0 0.0 0.0
0.0 0.0 0.0
0.0 0.0 0.0
0.0 0.0 0.0
0.0 0.0 0.0
0.0 0.0 0.0
0.0 0.0 0.0
0.0 0.0 0.0
0.0 0.0 0.0
0.0 0.0 0.0
0.0 0.0 0.0
0.0 0.0 0.0
0.0 0.0 0.0
0.0 0.0 0.0
0.0 0.0 0.0
0.0 0.0 0.0
0.0 0.0 0.0
0.0 0.0 0.0
0.0 0.0 0.0
0.0 0.0 0.0
0.0 0.0 0.0
0.0 0.0 0.0
0.0 0.0 0.0
0.0 0.0 0.0
0.0 0.0 0.0
0.0 0.0 0.0
0.0 0.0 0.0
0.0 0.0 0.0
0.0 0.0 0.0
0.0 0.0 0.0
0.0 0.0 0.0
0.0 0.0 0.0
0.0 0.0 0.0
0.0 0.0 0.0
0.0 0.0 0.0
0.0 0.0 0.0
0.0 0.0 0.0
0.0 0.0 0.0
0.0 0.0 0.0
0.0 0.0 0.0
0.0 0.0 0.0
0.0 0.0 0.0
0.0 0.0 0.0
0.0 0.0 0.0
0.0 0.0 0.0
0.0 0.0 0.0
0.0 0.0 0.0
0.0 0.0 0.0
0.0 0.0 0.0
0.0 0.0 0.0
0.0 0.0 0.0
0.0 0.0 0.0
0.0 0.0 0.0
0.0 0.0 0.0
0.0 0.0 0.0
0.0 0.0 0.0
0.0 0.0 0.0
0.0 0.0 0.0
0.0 0.0 0.0
0.0 0.0 0.0
0.0 0.0 0.0
0.0 0.0 0.0
0.0 0.0 0.0
0.0 0.0 0.0
0.0 0.0 0.0
0.0 0.0 0.0
0.0 0.0 0.0
0.0 0.0 0.0
0.0 0.0 0.0
0.0 0.0 0.0
0.0 0.0 0.0
0.0 0.0 0.0
0.0 0.0 0.0
0.0 0.0 0.0
0.0 0.0 0.0
0.0 0.0 0.0
0.0 0.0 0.0
0.0 0.0 0.0
0.0 0.0 0.0
0.0 0.0 0.0
0.0 0.0 0.0
0.0 0.0 0.0
0.0 0.0 0.0
0.0 0.0 0.0
0.0 0.0 0.0
0.0 0.0 0.0
0.0 0.0 0.0
0.0 0.0 0.0
0.0 0.0 0.0
0.0 0.0 0.0
0.0 0.0 0.0
0.0 0.0 0.0
0.0 0.0 0.0
0.0 0.0 0.0
0.0 0.0 0.0
0.0 0.0 0.0
0.0 0.0 0.0
0.0 0.0 0.0
0.0 0.0 0.0
0.0 0.0 0.0
0.0 0.0 0.0
0.0 0.0 0.0
0.0 0.0 0.0
0.0 0.0 0.0
0.0 0.0 0.0
0.0 0.0 0.0
0.0 0.0 0.0
0.0 0.0 0.0
0.0 0.0 0.0
0.0 0.0 0.0
0.0 0.0 0.0
0.0 0.0 0.0
0.0 0.0 0.0
0.0 0.0 0.0
0.0 0.0 0.0
0.0 0.0 0.0
0.0 0.0 0.0
0.0 0.0 0.0
0.0 0.0 0.0
0.0 0.0 0.0
0.0 0.0 0.0
0.0 0.0 0.0
0.0 0.0 0.0
0.0 0.0 0.0
0.0 0.0 0.0
0.0 0.0 0.0
0.0 0.0 0.0
0.0 0.0 0.0
0.0 0.0 0.0
0.0 0.0 0.0
0.0 0.0 0.0
0.0 0.0 0.0
0.0 0.0 0.0
0.0 0.0 0.0
0.0 0.0 0.0
0.0 0.0 0.0
0.0 0.0 0.0
0.0 0.0 0.0
0.0 0.0 0.0
0.0 0.0 0.0
0.0 0.0 0.0
0.0 0.0 0.0
0.0 0.0 0.0
0.0 0.0 0.0
0.0 0.0 0.0
0.0 0.0 0.0
0.0 0.0 0.0
0.0 0.0 0.0
0.0 0.0 0.0
0.0 0.0 0.0
0.0 0.0 0.0
0.0 0.0 0.0
0.0 0.0 0.0
0.0 0.0 0.0
0.0 0.0 0.0
0.0 0.0 0.0
VECTORS f float
0.0 0.0 -2.77371
0.0 0.0 -2.77371
0.0 0.0 -2.77371
0.0 0.0 -2.77371
0.0 0.0 -2.77371
0.0 0.0 -2.77371
-0.610958 48.5145 49.1941
3.3254 0.650752 6.609
0.0 0.0 -2.77371
22.4393 -5.75491 -10.8426
-0.657185 8.912 19.261
0.0446483 0.165806 -2.61843
0.000448218 -1.22354e-05 0.00315561
0.0658226 -0.00836441 1.004
0.744328 -2.00295 -0.274809
26.2989 0.658224 17.9949
0.384278 0.585249 -1.33448
0.0 0.0 -2.77371
6.60936 -4.13449 -7.63845
10.0399 6.53497 -11.3303
0.367451 1.15493 -0.349755
0.0580557 -0.031562 9.91616
1.7302 -1.05578 1.28006
-0.000980843 8.70936e-05 -0.0184771
2.44187 12.2661 0.276395
0.0 0.0 -2.77371
0.0 0.0 -2.77371
2.01917 -1.62362 -4.25695
-4.95893 1.56985 -4.01506
16.9234 -38.0802 13.6683
1.80402 1.96588 6.6613
0.160305 -0.0023545 1.41365
-0.0021806 0.00411596 -1.16579
-21.0724 -3.89146 -9.54452
1.01677 1.33843 -1.7465
0.0649579 -0.0061978 0.230977
-0.619605 -0.704275 2.79602
0.918296 -2.42489 0.0261187
1.28252 0.525565 -0.00165724
-2.47633 -3.85376 -2.19971
2.09375 -1.37208 12.001
0.000695314 -0.000133904 -0.00667579
-5.66532 1.13872 -1.18269
4.88163 -0.738313 -0.787451
-8.38853 29.0656 5.74883
0.0 0.0 -2.77371
1.821 2.10507 -1.30672
0.0 0.0 -2.77371
-0.0918325 -0.0221328 -0.323164
-0.630283 0.00505458 0.133446
-0.731383 0.738539 -1.08453
0.144768 -0.0259914 1.02387
-0.000204878 5.1478e-05 -0.0569557
5.28669e-07 -3.16884e-08 -2.0079e-06
0.0 0.0 -2.77371
0.0 0.0 -2.77371
13.3118 -1.38094 -24.4234
8.92853 -5.56379 26.3506
-6.13531 -12.9567 0.270477
0.0 0.0 -2.77371
0.00096563 -3.06383e-05 -0.128511
-7.68994 -2.90588 1.4881
-0.0813541 -0.221606 -0.680924
-0.00754662 -0.0201751 0.180781
-4.91611 3.68952 -3.07255
-3.12944 1.21024 23.8954
1.37776 -5.54771 -0.713704
3.61762 -0.0144033 -2.70236
4.27167 13.2016 -4.98693
-1.20144 0.763278 4.07996
0.00166769 -4.93284e-05 0.0309011
0.154496 0.465126 -0.573891
0.0978698 -0.337932 -0.58198
-5.51309e-05 -0.000951625 -0.0783863
0.034655 -0.00466416 -0.181303
9.72389 -0.278592 1.25686
-4.92445 -13.8297 -4.04564
0.0 0.0 -2.77371
0.413856 -0.704353 -1.90629
5.14694 -3.91586 -3.12144
0.00995062 -0.000157235 -0.0335971
-0.00125719 7.21834e-05 0.0229153
2.16617 1.02405 2.01836
-0.0025749 0.000275232 0.0375155
0.0106602 0.0130004 -0.0959154
0.0458371 -0.0871865 0.212923
4.29081 9.47443 7.35352
0.886034 1.41087 0.474524
3.54235 1.23623 -0.635543
-0.714753 0.909805 -3.67423
0.0 0.0 -2.77371
11.7103 -5.93484 -0.522082
-0.205242 -0.873965 -3.28427
-0.0128425 -0.000388156 -0.307057
-0.349751 -0.0846825 -0.0404704
-1.19257 0.923784 -2.06803
-1.30937 1.42258 2.25666
-0.289673 0.837409 -0.725762
3.37667 2.70811 -0.318063
0.680044 0.131941 0.828978
0.0 0.0 -2.77371
4.48222 -9.13832 17.583
2.24284 -2.86502 12.0998
0.0 0.0 -2.77371
0.00181972 -0.00091205 -0.124609
-3.59493e-05 1.715e-06 -0.00472896
0.672148 1.40371 3.14424
0.627469 -0.0398599 -2.16564
0.0936977 -0.0327962 -0.753919
1.44138 -1.08186 -3.94267
-2.60701e-05 -1.94715e-06 -0.000114964
-1.96473 -3.36619 1.14542
4.31141 -1.93326 7.83189
6.13451 -7.86745 7.61165
8.02519 1.52202 13.356
0.884936 2.2681 -1.86854
0.0 0.0 -2.77371
-0.0346794 0.0101246 -0.509986
0.209114 -2.90784 0.73099
-0.0266349 0.227748 0.584389
2.69146 -0.816203 -3.18636
0.762851 -0.670265 -2.23637
0.0 0.0 -2.77371
0.000798679 0.000119758 0.00293584
0.00380249 -1.85521e-05 -0.171417
0.000748723 8.96358e-05 -0.00957117
0.0 0.0 -2.77371
0.0 0.0 -2.77371
0.0 0.0 -2.77371
13.6718 1.78291 24.8014
0.0466981 -0.00153341 -0.441166
3.3725 -2.76604 7.44243
4.51393 -3.523 0.49357
0.0106328 0.000308047 0.0646606
4.02231 7.34551 1.60431
-1.83705 17.3401 -2.89645
0.0 0.0 -2.77371
0.0 0.0 -2.77371
-10.5091 -20.4205 -36.1393
-6.23699 -1.08329 -0.407314
7.15807 3.67301 -6.20412
-0.342407 -0.445888 0.234759
3.75392 -18.0776 -13.5601
1.83753 -1.04642 -2.20001
-2.09217 -0.340997 6.08418
-0.0210494 -0.000350166 -0.59568
-1.08117 -0.121364 -1.14719
-2.35788 1.34388 -2.52115
-0.967398 0.79205 -1.91563
-0.832218 1.41271 -1.53292
0.00483886 9.93877e-05 -0.108692
-0.00151782 0.000270756 0.0314209
0.0 0.0 -2.77371
0.0 0.0 -2.77371
0.0 0.0 -2.77371
0.0 0.0 -2.77371
-3.67638 7.79732 4.36167
-0.00259328 0.967539 -1.01047
0.456163 0.771683 -0.777812
1.2187 1.73626 -1.06259
0.0 0.0 -2.77371
-0.000262605 0.985419 -0.992213
27.7748 24.2946 36.7438
0.0 0.0 -2.77371
0.0 0.0 -2.77371
0.0 0.0 -2.77371
40.156 -16.0037 21.6767
-22.7409 -8.44203 12.4869
-6.22663 -5.8616 1.28213
3.38187 12.992 -18.8215
18.2241 2.25112 -21.5031
0.0 0.0 -2.77371
0.201486 0.38453 0.00156743
0.0 0.0 -2.77371
-0.673505 -1.40353 15.5166
1.27681 -1.7971 2.67197
-0.209785 0.327063 -2.78325
-23.2952 10.9749 -63.9409
5.49856 -5.5983 -0.540023
0.0 0.0 -2.77371
0.0 0.0 -2.77371
0.0 0.0 -2.77371
0.0 0.0 -2.77371
5.93104 -3.72641 -6.22654
-0.298503 1.20359 -1.5435
0.0 0.0 -2.77371
0.0 0.0 -2.77371
-2.84704 9.34452 -8.93979
-28.5643 -25.5726 -28.8133
2.28495 -4.66204 17.1376
0.0 0.0 -2.77371
0.0 0.0 -2.77371
0.361917 -0.257227 -5.46173
16.7534 5.46253 24.1071
-5.15329 -18.0291 -13.308
-1.62472 0.789035 -1.62973
0.955328 0.508294 -0.581027
1.62472 -0.789035 -3.91769
0.0 0.0 -2.77371
0.0 0.0 -2.77371
0.0 0.0 -2.77371
0.0 0.0 -2.77371
-0.079961 -0.135885 -2.77298
0.914026 -0.505959 2.12906
-0.454348 -0.338074 7.25936
0.0 0.0 -2.77371
0.0 0.0 -2.77371
0.0 0.0 -2.77371
6.7358 14.082 26.819
0.000493985 -1.0202 -0.960007
-0.0194069 -0.547659 -1.13143
0.74107 -1.54535 1.46952
0.535421 -0.780563 -0.908248
-0.0411687 -0.476941 -1.53582
0.0 0.0 -2.77371
0.396632 1.08048 0.313915
0.0 0.0 -2.77371
0.0 0.0 -2.77371
0.0 0.0 -2.77371
0.0 0.0 -2.77371
-4.18365 -7.74755 3.4761
0.0 0.0 -2.77371
-3.38187 -12.992 13.2741
-23.1235 18.7901 25.0012
0.0 0.0 -2.77371
0.0 0.0 -2.77371
-13.3118 1.38094 18.876
-7.26095 -2.75014 -4.3214
20.0867 16.7038 18.8532
0.0 0.0 -2.77371
0.276862 0.0883832 -1.93471
0.0 0.0 -2.77371
2.36549 -8.70517 3.9351
-0.602965 -0.235619 -3.26979
0.0 0.0 -2.77371
0.0 0.0 -2.77371
0.0 0.0 -2.77371
-11.1678 3.04481 15.9755
0.0 0.0 -2.77371
-3.67186 -13.213 7.17286
0.0 0.0 -2.77371
0.0 0.0 -2.77371
5.15329 18.0291 7.76055
0.0 0.0 -2.77371
0.0 0.0 -2.77371
3.67186 13.213 -12.7203
0.0 0.0 -2.77371
0.0 0.0 -2.77371
-5.68223 -7.45949 10.0177
0.0 0.0 -2.77371
0.0 0.0 -2.77371
17.1457 22.2064 27.7266
-0.00565537 -0.976064 -1.00417
0.0 0.0 -2.77371
0.0 0.0 -2.77371
0.0 0.0 -2.77371
0.0 0.0 -2.77371
23.2952 -10.9749 58.3935
1.79927 -1.31354 -1.91986
0.0 0.0 -2.77371
0.0 0.0 -2.77371
-4.87759 14.5369 45.3185
0.0 0.0 -2.77371
0.0 0.0 -2.77371
-55.1585 28.0073 -31.8091
29.6579 27.4356 35.6216
0.0 0.0 -2.77371
-2.14011 1.06187 -3.32046
1.10854 2.68228 -6.90022
0.0 0.0 -2.77371
0.0 0.0 -2.77371
0.911384 -1.12239 -1.05983
0.0 0.0 -2.77371
28.9406 -16.5462 -14.5762
0.0 0.0 -2.77371
0.0 0.0 -2.77371
-5.9931 -1.88074 -7.00335
0.0 0.0 -2.77371
0.0 0.0 -2.77371
0.0 0.0 -2.77371
0.0 0.0 -2.77371
0.0 0.0 -2.77371
26.2179 -11.4612 38.0642
0.0 0.0 -2.77371
0.0 0.0 -2.77371
0.0 0.0 -2.77371
0.0 0.0 -2.77371
0.0 0.0 -2.77371
0.0 0.0 -2.77371
0.0 0.0 -2.77371
0.0 0.0 -2.77371
0.0 0.0 -2.77371
0.0 0.0 -2.77371