# vtk DataFile Version 2.0
Generated by lpp.py
ASCII
DATASET POLYDATA
POINTS 351 float
0.145643 0.187217 1.57693
0.270065 0.183539 1.58376
0.331826 0.184071 1.58086
0.569902 0.177432 1.58551
0.729285 0.181863 1.58107
0.788405 0.192492 1.57644
0.928642 0.186196 1.57692
0.988773 0.189311 1.57687
1.1803 0.168935 1.59391
1.39227 0.187292 1.57677
1.69775 0.193809 1.57686
1.81815 0.184428 1.57851
1.87937 0.172676 1.59026
0.466221 0.202801 1.57695
0.604348 0.225632 1.57695
0.838599 0.228304 1.57875
1.04025 0.229544 1.57772
1.15048 0.219746 1.57684
1.23992 0.20284 1.57689
1.48252 0.214861 1.57686
1.62673 0.224058 1.57686
0.12807 0.246156 1.58198
0.212771 0.238568 1.57476
0.415321 0.253674 1.58092
0.554244 0.258808 1.57687
0.911145 0.249257 1.57682
0.983801 0.250409 1.57723
1.09362 0.256662 1.5774
1.28687 0.242023 1.57686
1.36182 0.245288 1.57686
1.54908 0.263686 1.57687
1.68126 0.253643 1.57686
1.86884 0.23288 1.57689
0.282446 0.29195 1.57677
0.340533 0.279188 1.57833
0.456368 0.301444 1.5737
0.648194 0.277096 1.57701
0.769147 0.286502 1.57688
0.853162 0.300647 1.57673
1.024 0.296737 1.57684
1.1779 0.273028 1.57694
1.82635 0.276196 1.57691
0.0171467 0.331379 1.57427
0.214728 0.340063 1.57899
0.58248 0.337202 1.57651
1.0732 0.330871 1.57687
1.12826 0.307235 1.57687
1.30033 0.307879 1.57687
1.35801 0.334099 1.57682
1.44807 0.315688 1.57684
1.50726 0.30663 1.57688
1.58799 0.314116 1.57686
1.65742 0.340871 1.57686
1.72537 0.335363 1.57686
0.307028 0.344757 1.58109
0.440587 0.359044 1.57785
0.797948 0.339232 1.57686
0.873929 0.35955 1.57664
0.985297 0.35892 1.57697
1.12833 0.369632 1.57684
1.19508 0.340903 1.57686
1.49234 0.369583 1.57686
0.0841293 0.399369 1.58487
0.170121 0.381241 1.58695
0.307142 0.411457 1.57646
0.358497 0.383905 1.58971
0.519567 0.403619 1.57657
0.674339 0.376622 1.57688
1.04177 0.385666 1.57687
1.25288 0.402945 1.57775
1.41678 0.382965 1.57686
1.72573 0.40323 1.57686
0.14411 0.433899 1.57702
0.248533 0.445071 1.57626
0.396757 0.442835 1.57767
0.458581 0.446244 1.57609
0.6054 0.437106 1.57881
0.669909 0.439321 1.57687
0.770274 0.430461 1.57656
1.05652 0.444385 1.57685
1.15727 0.426302 1.57687
1.30975 0.41693 1.57774
1.46171 0.440412 1.57688
1.52012 0.427438 1.57688
1.59065 0.433291 1.57688
0.838936 0.449613 1.57686
0.933288 0.451804 1.57688
1.11271 0.465335 1.58103
1.21499 0.472557 1.5769
1.29996 0.47571 1.57666
1.3987 0.447136 1.57683
1.64123 0.465567 1.58023
1.96759 0.459445 1.57646
0.18033 0.505446 1.57963
0.424022 0.498843 1.57712
0.484423 0.503756 1.57534
0.605609 0.511335 1.58017
0.697572 0.497244 1.57685
0.766037 0.490268 1.57666
0.844819 0.509345 1.57736
0.949194 0.51069 1.5768
1.06267 0.505129 1.57786
1.17138 0.513422 1.57659
1.4268 0.505824 1.57686
1.51395 0.505205 1.57686
1.92464 0.501972 1.57688
0.347423 0.542057 1.57561
0.520089 0.555092 1.57918
1.2263 0.54174 1.5798
1.2927 0.539961 1.57682
1.35658 0.515465 1.5787
1.62861 0.524473 1.577
1.86568 0.546152 1.57686
2.00093 0.526003 1.57687
2.06212 0.53821 1.58321
0.141529 0.556908 1.5769
0.288124 0.570095 1.5781
0.431838 0.563954 1.57682
0.597828 0.574102 1.58423
0.692472 0.584713 1.59385
0.857983 0.568459 1.57801
0.919313 0.561774 1.57655
0.983148 0.561023 1.57683
1.07197 0.564742 1.57682
1.17075 0.572781 1.58171
1.39209 0.56468 1.57686
1.46876 0.552343 1.57686
1.94916 0.562116 1.57684
0.362982 0.144722 1.61828
0.754404 0.14426 1.62022
0.814226 0.152412 1.61071
0.9483 0.143486 1.62014
1.43824 0.159878 1.60299
0.625202 0.159948 1.60576
0.728214 0.237505 1.60514
0.183887 0.298663 1.62068
0.258895 0.271813 1.62874
0.348877 0.270705 1.64002
0.067106 0.315351 1.59608
0.622431 0.333783 1.62058
0.845295 0.311155 1.63497
1.01068 0.330588 1.62652
1.32627 0.336504 1.62993
0.122132 0.356255 1.61087
0.419057 0.356985 1.63899
0.49293 0.369141 1.62265
0.725298 0.342966 1.60238
0.558094 0.386559 1.62095
0.680415 0.402656 1.63132
0.921877 0.396961 1.60078
0.199987 0.42408 1.61411
0.360137 0.440448 1.62729
0.494618 0.432154 1.62324
0.978901 0.413398 1.60184
0.296595 0.469583 1.59748
0.528605 0.477637 1.60327
0.98674 0.477066 1.60788
1.33395 0.456653 1.62188
0.0939571 0.503474 1.60717
0.218055 0.481703 1.62167
0.365907 0.497462 1.60939
0.425762 0.494788 1.63691
1.24681 0.505259 1.62982
0.259197 0.524107 1.6168
0.784316 0.533535 1.61372
0.880338 0.524221 1.62433
0.972112 0.549541 1.63455
1.14232 0.552548 1.6302
0.254542 0.615648 1.62884
0.629294 0.616621 1.62551
0.786355 0.607181 1.61632
0.970687 0.606096 1.61516
1.04116 0.602445 1.61154
1.09929 0.616369 1.62554
1.25361 0.59092 1.60835
1.62168 0.591565 1.60074
0.637436 0.117966 1.64452
0.85156 0.120328 1.64495
1.17119 0.125645 1.63936
1.22525 0.111684 1.66505
0.387791 0.188855 1.64906
0.51083 0.172216 1.63971
0.145896 0.201556 1.63453
0.219827 0.22461 1.63805
0.335205 0.214774 1.65692
0.554861 0.223186 1.64158
0.872819 0.217194 1.64313
0.14625 0.258349 1.65527
0.406196 0.244684 1.64036
0.503386 0.247658 1.66517
0.100195 0.298627 1.64026
0.444472 0.302788 1.63067
0.529833 0.298405 1.63889
0.603477 0.272395 1.6295
0.309777 0.315865 1.6432
0.249066 0.335246 1.63175
0.34294 0.37394 1.65915
0.588926 0.352407 1.66662
1.24026 0.357919 1.63219
0.0828507 0.405056 1.65801
0.209115 0.380566 1.65587
1.29455 0.394913 1.63705
0.317826 0.427133 1.66925
0.833197 0.428667 1.66869
0.170497 0.462558 1.6596
1.39812 0.450479 1.63853
0.55726 0.501463 1.65437
0.628665 0.491056 1.64063
0.328495 0.537255 1.63709
0.386695 0.551279 1.64793
0.509501 0.540519 1.64748
0.27501 0.568212 1.67327
0.566805 0.571552 1.64384
0.780811 0.569179 1.66188
0.441187 0.609805 1.63806
0.832178 0.632898 1.64805
0.701622 0.172116 1.69004
0.387521 0.29762 1.68039
0.336215 0.327075 1.69503
0.258365 0.35141 1.68807
0.51198 0.350014 1.67502
0.450442 0.402931 1.66143
0.38216 0.411546 1.68724
0.375869 0.481989 1.67333
0.476298 0.496846 1.69469
0.689174 0.521246 1.6818
0.43971 0.538896 1.67288
0.540333 0.592481 1.69447
0.63094 0.598362 1.70729
0.292371 0.693816 1.70505
0.482262 0.228058 1.71421
0.312136 0.231456 1.70959
0.386528 0.235346 1.70162
0.173042 0.295723 1.69292
0.476019 0.367345 1.72256
0.293256 0.400631 1.71318
0.49293 0.437815 1.70468
0.265427 0.473439 1.69233
0.230707 0.52291 1.68593
0.273026 0.27787 1.72671
0.468252 0.30485 1.75417
0.383297 0.361785 1.75106
0.142292 0.405308 1.72356
0.10269 0.478868 1.71634
0.477914 0.52566 1.74578
0.100828 0.246005 1.75569
0.334084 0.267131 1.78458
0.499414 0.384151 1.77982
0.238696 0.425254 1.77935
0.338206 0.47604 1.7572
0.405771 0.451899 1.75356
0.383935 0.304407 1.79673
0.104364 0.371175 1.81486
0.189473 0.369831 1.80509
0.410316 0.229607 1.85662
0.227735 0.245208 1.8262
0.479511 0.263195 1.84633
0.283481 0.328862 1.82862
0.433942 0.344323 1.82995
0.124882 0.444445 1.83025
0.292698 0.428673 1.84426
0.367427 0.412219 1.83575
0.387806 0.497135 1.85407
0.488965 0.329122 1.88592
0.436973 0.45447 1.88086
0.498994 0.449521 1.88176
0.10683 0.52412 1.86331
0.498691 0.522189 1.88673
0.307197 0.231054 1.90246
0.112238 0.243444 1.90644
0.338106 0.302046 1.90681
0.144627 0.329159 1.91799
0.388723 0.350133 1.9278
0.26384 0.382845 1.90451
0.336562 0.447813 1.93248
0.197767 0.505506 1.90313
0.498503 0.253983 1.96724
0.196779 0.286134 1.93727
0.322732 0.35929 1.95818
0.179678 0.383211 1.95134
0.404531 0.416433 1.95254
0.180002 0.445959 1.94825
0.133145 0.50156 1.96623
0.316599 0.507618 1.94038
0.4192 0.521596 1.95468
0.299287 0.247375 1.99882
0.442411 0.236129 2.00181
0.432796 0.302258 1.9888
0.345572 0.308923 2.00766
0.476186 0.343657 2.003
0.499396 0.409304 1.99481
0.230608 0.478968 1.97822
0.196226 0.26238 2.03503
0.356376 0.254196 2.03726
0.126939 0.284236 2.01181
0.187834 0.32549 2.01657
0.256147 0.321804 2.02869
0.110703 0.374435 2.03101
0.415762 0.389621 2.03789
0.282511 0.427246 2.01923
0.107302 0.455042 2.03535
0.180798 0.510604 2.01845
0.383426 0.485675 2.0106
0.49838 0.508374 2.04199
0.271982 0.260644 2.0708
0.321856 0.294278 2.06913
0.44222 0.295647 2.06067
0.346145 0.350757 2.06426
0.282424 0.374546 2.07858
0.475094 0.383761 2.05966
0.214879 0.429082 2.04971
0.466199 0.451954 2.06462
0.104255 0.515661 2.07241
0.236464 0.494005 2.06237
0.430217 0.500721 2.06499
0.339305 0.526873 2.05754
0.103324 0.228818 2.09871
0.161403 0.258279 2.09827
0.363615 0.240431 2.10399
0.425069 0.242959 2.10512
0.499192 0.246026 2.10267
0.125428 0.344451 2.08441
0.189012 0.364304 2.09306
0.415188 0.353574 2.08906
0.115455 0.44409 2.0945
0.323589 0.424937 2.0871
0.40415 0.414672 2.10454
0.158807 0.499296 2.11065
0.370433 0.49856 2.10148
0.264146 0.523422 2.10795
0.220666 0.238837 2.14734
0.257372 0.298287 2.13437
0.31493 0.348737 2.12385
0.484684 0.362834 2.13124
0.125062 0.39201 2.13589
0.217234 0.387064 2.14563
0.417911 0.469013 2.14692
0.393674 0.233628 2.16132
0.17717 0.298235 2.1592
0.314466 0.284399 2.15272
0.492483 0.279077 2.1544
0.417494 0.317622 2.15147
0.107591 0.339963 2.16367
0.385775 0.387923 2.16657
0.449749 0.403068 2.15884
0.139724 0.459766 2.16164
0.263093 0.452487 2.15205
0.486571 0.452792 2.15556
0.220758 0.508511 2.15861
0.312076 0.491969 2.1576
0.490194 0.521396 2.16111
VERTICES 351 702
1 0
1 1
1 2
1 3
1 4
1 5
1 6
1 7
1 8
1 9
1 10
1 11
1 12
1 13
1 14
1 15
1 16
1 17
1 18
1 19
1 20
1 21
1 22
1 23
1 24
1 25
1 26
1 27
1 28
1 29
1 30
1 31
1 32
1 33
1 34
1 35
1 36
1 37
1 38
1 39
1 40
1 41
1 42
1 43
1 44
1 45
1 46
1 47
1 48
1 49
1 50
1 51
1 52
1 53
1 54
1 55
1 56
1 57
1 58
1 59
1 60
1 61
1 62
1 63
1 64
1 65
1 66
1 67
1 68
1 69
1 70
1 71
1 72
1 73
1 74
1 75
1 76
1 77
1 78
1 79
1 80
1 81
1 82
1 83
1 84
1 85
1 86
1 87
1 88
1 89
1 90
1 91
1 92
1 93
1 94
1 95
1 96
1 97
1 98
1 99
1 100
1 101
1 102
1 103
1 104
1 105
1 106
1 107
1 108
1 109
1 110
1 111
1 112
1 113
1 114
1 115
1 116
1 117
1 118
1 119
1 120
1 121
1 122
1 123
1 124
1 125
1 126
1 127
1 128
1 129
1 130
1 131
1 132
1 133
1 134
1 135
1 136
1 137
1 138
1 139
1 140
1 141
1 142
1 143
1 144
1 145
1 146
1 147
1 148
1 149
1 150
1 151
1 152
1 153
1 154
1 155
1 156
1 157
1 158
1 159
1 160
1 161
1 162
1 163
1 164
1 165
1 166
1 167
1 168
1 169
1 170
1 171
1 172
1 173
1 174
1 175
1 176
1 177
1 178
1 179
1 180
1 181
1 182
1 183
1 184
1 185
1 186
1 187
1 188
1 189
1 190
1 191
1 192
1 193
1 194
1 195
1 196
1 197
1 198
1 199
1 200
1 201
1 202
1 203
1 204
1 205
1 206
1 207
1 208
1 209
1 210
1 211
1 212
1 213
1 214
1 215
1 216
1 217
1 218
1 219
1 220
1 221
1 222
1 223
1 224
1 225
1 226
1 227
1 228
1 229
1 230
1 231
1 232
1 233
1 234
1 235
1 236
1 237
1 238
1 239
1 240
1 241
1 242
1 243
1 244
1 245
1 246
1 247
1 248
1 249
1 250
1 251
1 252
1 253
1 254
1 255
1 256
1 257
1 258
1 259
1 260
1 261
1 262
1 263
1 264
1 265
1 266
1 267
1 268
1 269
1 270
1 271
1 272
1 273
1 274
1 275
1 276
1 277
1 278
1 279
1 280
1 281
1 282
1 283
1 284
1 285
1 286
1 287
1 288
1 289
1 290
1 291
1 292
1 293
1 294
1 295
1 296
1 297
1 298
1 299
1 300
1 301
1 302
1 303
1 304
1 305
1 306
1 307
1 308
1 309
1 310
1 311
1 312
1 313
1 314
1 315
1 316
1 317
1 318
1 319
1 320
1 321
1 322
1 323
1 324
1 325
1 326
1 327
1 328
1 329
1 330
1 331
1 332
1 333
1 334
1 335
1 336
1 337
1 338
1 339
1 340
1 341
1 342
1 343
1 344
1 345
1 346
1 347
1 348
1 349
1 350
POINT_DATA 351
VECTORS i float
0.0 0.0 0.0
0.0 0.0 0.0
0.0 0.0 0.0
0.0 0.0 0.0
0.0 0.0 0.0
0.0 0.0 0.0
0.0 0.0 0.0
0.0 0.0 0.0
0.0 0.0 0.0
0.0 0.0 0.0
0.0 0.0 0.0
0.0 0.0 0.0
0.0 0.0 0.0
0.0 0.0 0.0
0.0 0.0 0.0
0.0 0.0 0.0
0.0 0.0 0.0
0.0 0.0 0.0
0.0 0.0 0.0
0.0 0.0 0.0
0.0 0.0 0.0
0.0 0.0 0.0
0.0 0.0 0.0
0.0 0.0 0.0
0.0 0.0 0.0
0.0 0.0 0.0
0.0 0.0 0.0
0.0 0.0 0.0
0.0 0.0 0.0
0.0 0.0 0.0
0.0 0.0 0.0
0.0 0.0 0.0
0.0 0.0 0.0
0.0 0.0 0.0
0.0 0.0 0.0
0.0 0.0 0.0
0.0 0.0 0.0
0.0 0.0 0.0
0.0 0.0 0.0
0.0 0.0 0.0
0.0 0.0 0.0
0.0 0.0 0.0
0.0 0.0 0.0
0.0 0.0 0.0
0.0 0.0 0.0
0.0 0.0 0.0
0.0 0.0 0.0
0.0 0.0 0.0
0.0 0.0 0.0
0.0 0.0 0.0
0.0 0.0 0.0
0.0 0.0 0.0
0.0 0.0 0.0
0.0 0.0 0.0
0.0 0.0 0.0
0.0 0.0 0.0
0.0 0.0 0.0
0.0 0.0 0.0
0.0 0.0 0.0
0.0 0.0 0.0
0.0 0.0 0.0
0.0 0.0 0.0
0.0 0.0 0.0
0.0 0.0 0.0
0.0 0.0 0.0
0.0 0.0 0.0
0.0 0.0 0.0
0.0 0.0 0.0
0.0 0.0 0.0
0.0 0.0 0.0
0.0 0.0 0.0
0.0 0.0 0.0
0.0 0.0 0.0
0.0 0.0 0.0
0.0 0.0 0.0
0.0 0.0 0.0
0.0 0.0 0.0
0.0 0.0 0.0
0.0 0.0 0.0
0.0 0.0 0.0
0.0 0.0 0.0
0.0 0.0 0.0
0.0 0.0 0.0
0.0 0.0 0.0
0.0 0.0 0.0
0.0 0.0 0.0
0.0 0.0 0.0
0.0 0.0 0.0
0.0 0.0 0.0
0.0 0.0 0.0
0.0 0.0 0.0
0.0 0.0 0.0
0.0 0.0 0.0
0.0 0.0 0.0
0.0 0.0 0.0
0.0 0.0 0.0
0.0 0.0 0.0
0.0 0.0 0.0
0.0 0.0 0.0
0.0 0.0 0.0
0.0 0.0 0.0
0.0 0.0 0.0
0.0 0.0 0.0
0.0 0.0 0.0
0.0 0.0 0.0
0.0 0.0 0.0
0.0 0.0 0.0
0.0 0.0 0.0
0.0 0.0 0.0
0.0 0.0 0.0
0.0 0.0 0.0
0.0 0.0 0.0
0.0 0.0 0.0
0.0 0.0 0.0
0.0 0.0 0.0
0.0 0.0 0.0
0.0 0.0 0.0
0.0 0.0 0.0
0.0 0.0 0.0
0.0 0.0 0.0
0.0 0.0 0.0
0.0 0.0 0.0
0.0 0.0 0.0
0.0 0.0 0.0
0.0 0.0 0.0
0.0 0.0 0.0
0.0 0.0 0.0
0.0 0.0 0.0
0.0 0.0 0.0
0.0 0.0 0.0
0.0 0.0 0.0
0.0 0.0 0.0
0.0 0.0 0.0
0.0 0.0 0.0
0.0 0.0 0.0
0.0 0.0 0.0
0.0 0.0 0.0
0.0 0.0 0.0
0.0 0.0 0.0
0.0 0.0 0.0
0.0 0.0 0.0
0.0 0.0 0.0
0.0 0.0 0.0
0.0 0.0 0.0
0.0 0.0 0.0
0.0 0.0 0.0
0.0 0.0 0.0
0.0 0.0 0.0
0.0 0.0 0.0
0.0 0.0 0.0
0.0 0.0 0.0
0.0 0.0 0.0
0.0 0.0 0.0
0.0 0.0 0.0
0.0 0.0 0.0
0.0 0.0 0.0
0.0 0.0 0.0
0.0 0.0 0.0
0.0 0.0 0.0
0.0 0.0 0.0
0.0 0.0 0.0
0.0 0.0 0.0
0.0 0.0 0.0
0.0 0.0 0.0
0.0 0.0 0.0
0.0 0.0 0.0
0.0 0.0 0.0
0.0 0.0 0.0
0.0 0.0 0.0
0.0 0.0 0.0
0.0 0.0 0.0
0.0 0.0 0.0
0.0 0.0 0.0
0.0 0.0 0.0
0.0 0.0 0.0
0.0 0.0 0.0
0.0 0.0 0.0
0.0 0.0 0.0
0.0 0.0 0.0
0.0 0.0 0.0
0.0 0.0 0.0
0.0 0.0 0.0
0.0 0.0 0.0
0.0 0.0 0.0
0.0 0.0 0.0
0.0 0.0 0.0
0.0 0.0 0.0
0.0 0.0 0.0
0.0 0.0 0.0
0.0 0.0 0.0
0.0 0.0 0.0
0.0 0.0 0.0
0.0 0.0 0.0
0.0 0.0 0.0
0.0 0.0 0.0
0.0 0.0 0.0
0.0 0.0 0.0
0.0 0.0 0.0
0.0 0.0 0.0
0.0 0.0 0.0
0.0 0.0 0.0
0.0 0.0 0.0
0.0 0.0 0.0
0.0 0.0 0.0
0.0 0.0 0.0
0.0 0.0 0.0
0.0 0.0 0.0
0.0 0.0 0.0
0.0 0.0 0.0
0.0 0.0 0.0
0.0 0.0 0.0
0.0 0.0 0.0
0.0 0.0 0.0
0.0 0.0 0.0
0.0 0.0 0.0
0.0 0.0 0.0
0.0 0.0 0.0
0.0 0.0 0.0
0.0 0.0 0.0
0.0 0.0 0.0
0.0 0.0 0.0
0.0 0.0 0.0
0.0 0.0 0.0
0.0 0.0 0.0
0.0 0.0 0.0
0.0 0.0 0.0
0.0 0.0 0.0
0.0 0.0 0.0
0.0 0.0 0.0
0.0 0.0 0.0
0.0 0.0 0.0
0.0 0.0 0.0
0.0 0.0 0.0
0.0 0.0 0.0
0.0 0.0 0.0
0.0 0.0 0.0
0.0 0.0 0.0
0.0 0.0 0.0
0.0 0.0 0.0
0.0 0.0 0.0
0.0 0.0 0.0
0.0 0.0 0.0
0.0 0.0 0.0
0.0 0.0 0.0
0.0 0.0 0.0
0.0 0.0 0.0
0.0 0.0 0.0
0.0 0.0 0.0
0.0 0.0 0.0
0.0 0.0 0.0
0.0 0.0 0.0
0.0 0.0 0.0
0.0 0.0 0.0
0.0 0.0 0.0
0.0 0.0 0.0
0.0 0.0 0.0
0.0 0.0 0.0
0.0 0.0 0.0
0.0 0.0 0.0
0.0 0.0 0.0
0.0 0.0 0.0
0.0 0.0 0.0
0.0 0.0 0.0
0.0 0.0 0.0
0.0 0.0 0.0
0.0 0.0 0.0
0.0 0.0 0.0
0.0 0.0 0.0
0.0 0.0 0.0
0.0 0.0 0.0
0.0 0.0 0.0
0.0 0.0 0.0
0.0 0.0 0.0
0.0 0.0 0.0
0.0 0.0 0.0
0.0 0.0 0.0
0.0 0.0 0.0
0.0 0.0 0.0
0.0 0.0 0.0
0.0 0.0 0.0
0.0 0.0 0.0
0.0 0.0 0.0
0.0 0.0 0.0
0.0 0.0 0.0
0.0 0.0 0.0
0.0 0.0 0.0
0.0 0.0 0.0
0.0 0.0 0.0
0.0 0.0 0.0
0.0 0.0 0.0
0.0 0.0 0.0
0.0 0.0 0.0
0.0 0.0 0.0
0.0 0.0 0.0
0.0 0.0 0.0
0.0 0.0 0.0
0.0 0.0 0.0
0.0 0.0 0.0
0.0 0.0 0.0
0.0 0.0 0.0
0.0 0.0 0.0
0.0 0.0 0.0
0.0 0.0 0.0
0.0 0.0 0.0
0.0 0.0 0.0
0.0 0.0 0.0
0.0 0.0 0.0
0.0 0.0 0.0
0.0 0.0 0.0
0.0 0.0 0.0
0.0 0.0 0.0
0.0 0.0 0.0
0.0 0.0 0.0
0.0 0.0 0.0
0.0 0.0 0.0
0.0 0.0 0.0
0.0 0.0 0.0
0.0 0.0 0.0
0.0 0.0 0.0
0.0 0.0 0.0
0.0 0.0 0.0
0.0 0.0 0.0
0.0 0.0 0.0
0.0 0.0 0.0
0.0 0.0 0.0
0.0 0.0 0.0
0.0 0.0 0.0
0.0 0.0 0.0
0.0 0.0 0.0
0.0 0.0 0.0
0.0 0.0 0.0
0.0 0.0 0.0
0.0 0.0 0.0
0.0 0.0 0.0
0.0 0.0 0.0
0.0 0.0 0.0
0.0 0.0 0.0
0.0 0.0 0.0
0.0 0.0 0.0
0.0 0.0 0.0
0.0 0.0 0.0
0.0 0.0 0.0
0.0 0.0 0.0
0.0 0.0 0.0
0.0 0.0 0.0
0.0 0.0 0.0
0.0 0.0 0.0
0.0 0.0 0.0
0.0 0.0 0.0
0.0 0.0 0.0
0.0 0.0 0.0
VECTORS f float
0.977933 0.315164 -6.76156
0.0 0.0 -2.77371
0.0 0.0 -2.77371
0.471068 1.49225 0.206334
1.69625 -2.58803 -2.24087
6.99843 10.8034 -6.39461
-2.08334 3.02729 2.27594
0.000946106 -4.74215e-05 -0.11178
0.220154 0.883576 -0.179181
-0.0306456 -0.655592 -0.757048
-6.00888e-08 1.50346e-09 -1.2024e-06
0.00356179 1.07265 -0.910751
-0.00076828 0.995375 -0.984514
0.00328579 -0.0140751 -0.926633
0.389423 0.539904 -1.00376
0.0 0.0 -2.77371
1.72089 0.885287 -3.75441
1.28454 -0.548012 0.120657
0.0246527 -0.000962644 -0.084774
7.5977e-07 -8.95745e-08 4.10415e-05
2.71389e-05 -6.2033e-06 0.000407958
0.0 0.0 -2.77371
50.955 -0.911488 99.1525
0.0 0.0 -2.77371
-0.313304 0.151473 -0.920135
0.870237 -1.30682 0.366408
0.0 0.0 -2.77371
-1.72089 -0.885287 -1.79301
-0.000418586 1.93063e-05 0.00301447
6.98355e-06 -7.91248e-08 -0.00279768
0.131517 -0.124641 0.00276351
-3.46843e-05 1.26124e-05 -0.000417323
1.60119 -1.2747 3.02617
-13.8407 -11.262 9.18957
10.851 -1.96799 3.0884
66.5036 -8.76983 119.222
-0.52172 -0.0867959 -8.25283
0.0142756 0.00232486 -0.0903695
0.0914684 0.00953841 -0.00792879
0.855596 0.202835 -0.008367
0.294895 0.46251 -0.789557
0.0547292 -0.0155823 -0.120164
0.719342 5.27219 51.4803
0.0 0.0 -2.77371
2.64996 -0.279766 -0.461978
0.521423 0.462108 0.0692761
0.344367 -0.151888 0.0189753
-0.00638796 -0.000385624 -0.325063
-0.18297 -0.0139867 -1.31299
0.831528 -0.114187 -0.0016219
0.723394 -0.0670906 -0.00453471
-2.677e-05 8.33204e-06 -0.000290934
2.5178e-06 -1.08083e-06 -4.00214e-05
1.59502e-07 -4.5078e-08 2.94128e-06
7.87151 22.4379 0.244875
17.8155 -5.57184 -12.06
-0.00575859 -0.00916735 0.0450388
0.251377 0.0369551 6.72011
-0.290904 -0.481174 -6.03395
-0.0130258 0.00106207 0.126212
-2.77005e-05 -2.36839e-06 6.88406e-05
2.9754e-05 -7.92815e-06 0.0111392
0.0 0.0 -2.77371
-8.65294 -5.63986 -7.1941
10.2412 -3.09495 3.05034
-6.47546 3.30937 -1.05405
-1.42516 0.919667 1.71423
0.0496957 -0.00572 0.229009
-0.00609459 0.00012977 -0.195672
-15.4286 -6.06628 1.63661
-5.85945e-06 8.46878e-07 0.000129414
1.13456e-05 -1.46945e-06 -1.89361e-05
-0.545348 1.30071 -5.46479
3.56678 6.36004 37.0892
0.0 0.0 -2.77371
16.405 -3.47316 30.7636
0.0 0.0 -2.77371
0.0113912 -0.000935764 -0.076268
1.66439 -0.919338 15.0957
-0.851523 -0.250804 -4.54909
10.2953 -16.9255 0.825745
13.1765 -1.68698 -6.00067
-2.18649 0.961838 -1.49726
5.57443 -1.73071 1.09342
-0.350585 -0.18242 -1.72934
0.38539 1.88516 1.07459
0.0183851 0.00193828 -0.00343441
-10.7539 18.4924 -4.05226
2.77853 -2.49391 0.334478
1.26802 4.05246 0.464298
-0.0450769 -0.00231085 -0.247402
0.0 0.0 -2.77371
6.46098 -4.4805 19.6728
0.0 0.0 -2.77371
-0.151518 -0.621406 -1.65819
7.442 7.43448 16.2431
0.0 0.0 -2.77371
0.00920473 -0.00148566 0.357138
-2.35571 -0.0410456 -5.1573
0.0 0.0 -2.77371
-1.88026 -1.7649 -0.340568
0.0 0.0 -2.77371
0.833288 0.996674 1.37281
0.000239222 -4.60742e-06 -0.00884171
3.9957e-05 8.29697e-06 0.000279949
0.0271412 -0.0151044 -0.0885574
-0.87879 1.91241 16.1234
0.0 0.0 -2.77371
0.0 0.0 -2.77371
-0.0112502 -0.00258678 0.59814
0.0 0.0 -2.77371
0.0346799 -0.432995 -1.90495
0.000416297 3.3672e-05 -0.00545747
2.18853 -0.0179198 1.28307
0.0 0.0 -2.77371
0.0177836 0.0010376 -0.434373
3.47522 -13.8465 13.6028
-0.00717619 0.000461837 0.708924
0.0 0.0 -2.77371
-0.032726 -1.20078 -1.04384
0.0 0.0 -2.77371
-1.4448 2.61205 5.98715
-0.202224 -0.275213 -0.349306
0.71335 -1.59168 0.512282
-0.00382792 1.20839 0.517886
8.29664e-09 -1.55381e-10 -1.39611e-06
0.00018938 5.17821e-06 0.000653335
1.54477 -0.768107 0.676685
4.35241 -7.30113 -7.34582
-1.64395 2.11669 -3.46949
-3.32713 -37.5186 6.23837
0.0 0.0 -2.77371
5.57627 4.19471 17.2253
-16.4664 36.0555 -14.1154
0.0 0.0 -2.77371
0.0 0.0 -2.77371
0.0 0.0 -2.77371
-1.16284 1.50218 -3.59312
18.508 -0.771884 34.7886
-4.75821 1.31251 -2.09299
-0.238793 0.225302 -0.168579
0.0 0.0 -2.77371
0.0 0.0 -2.77371
-3.15937 -2.39819 -2.84254
2.04354 1.67866 -17.4366
0.601383 1.20228 -33.3401
0.0 0.0 -2.77371
0.0 0.0 -2.77371
0.0 0.0 -2.77371
-13.6275 -2.37586 3.63592
12.6548 6.20532 3.18788
0.0 0.0 -2.77371
0.0 0.0 -2.77371
13.6275 2.37586 -9.18335
22.481 9.76479 18.6332
14.4621 -10.077 22.3352
6.94055 -6.94593 -0.676311
1.19371 0.256058 -0.205755
0.0 0.0 -2.77371
-10.1453 -3.62245 -2.7297
1.76749 -6.91377 10.1168
-5.93014 -17.4677 -25.9118
0.0 0.0 -2.77371
10.1453 3.62245 -2.81773
-0.14875 -0.358415 -2.85415
0.0 0.0 -2.77371
-0.491319 -1.03449 -1.61867
-0.46201 0.0973009 -1.32582
0.0 0.0 -2.77371
-0.239189 -2.22906 -1.35
3.13645 0.820614 0.388107
0.794096 -0.661339 -0.658803
0.509608 -0.235072 -0.661996
-0.000754957 -0.988374 -0.990222
0.0 0.0 -2.77371
6.90305e-05 -0.987769 -0.989585
12.1941 -9.82388 5.72565
6.83693 19.4558 15.0246
0.0 0.0 -2.77371
0.0 0.0 -2.77371
3.33659 11.4791 -0.519352
0.0 0.0 -2.77371
0.231398 1.22039 4.05311
0.0 0.0 -2.77371
-3.95051 3.17406 6.94601
0.0 0.0 -2.77371
0.0 0.0 -2.77371
29.3741 -13.8466 -83.9643
-0.241554 -2.52248 0.932631
28.3347 28.2026 -61.1844
41.3801 -18.6836 29.8997
-48.9777 8.87008 45.9635
0.0 0.0 -2.77371
0.0 0.0 -2.77371
-31.7527 -4.65371 -46.7219
-2.94518 -1.83883 -6.69313
-6.03976 -15.3851 -4.65226
2.89348 -1.15038 -4.17818
0.0 0.0 -2.77371
0.0 0.0 -2.77371
0.0 0.0 -2.77371
0.0 0.0 -2.77371
40.8834 57.0797 -69.0278
0.0 0.0 -2.77371
0.0 0.0 -2.77371
0.0 0.0 -2.77371
0.0 0.0 -2.77371
0.0 0.0 -2.77371
0.0 0.0 -2.77371
2.20372 -1.25209 0.0196353
0.0 0.0 -2.77371
0.0 0.0 -2.77371
0.0 0.0 -2.77371
-1.61401 -2.96233 -0.961126
0.0 0.0 -2.77371
0.0 0.0 -2.77371
0.0 0.0 -2.77371
0.0 0.0 -2.77371
32.9275 3.07526 42.015
2.94518 1.83883 1.1457
-0.601383 -1.20228 27.7927
-2.04354 -1.67866 11.8892
0.0 0.0 -2.77371
0.0 0.0 -2.77371
-25.2501 -14.2324 -65.7474
0.0 0.0 -2.77371
2.73944 20.1308 15.0592
0.0 0.0 -2.77371
0.0 0.0 -2.77371
0.0 0.0 -2.77371
-28.3347 -28.2026 55.637
0.452841 -1.00959 -9.74886
0.0 0.0 -2.77371
-29.3741 13.8466 78.4169
0.0 0.0 -2.77371
-34.8556 -41.6183 65.3377
0.0 0.0 -2.77371
0.0 0.0 -2.77371
0.0 0.0 -2.77371
0.0 0.0 -2.77371
0.0 0.0 -2.77371
0.0 0.0 -2.77371
0.0 0.0 -2.77371
0.0 0.0 -2.77371
26.3886 13.4428 61.5963
0.0 0.0 -2.77371
0.0 0.0 -2.77371
0.0 0.0 -2.77371
0.0 0.0 -2.77371
0.0 0.0 -2.77371
0.0 0.0 -2.77371
0.0 0.0 -2.77371
0.0 0.0 -2.77371
0.0 0.0 -2.77371
0.0 0.0 -2.77371
0.0 0.0 -2.77371
0.0 0.0 -2.77371
0.0 0.0 -2.77371
0.0 0.0 -2.77371
0.0 0.0 -2.77371
0.0 0.0 -2.77371
0.0 0.0 -2.77371
0.0 0.0 -2.77371
0.0 0.0 -2.77371
0.0 0.0 -2.77371
0.0 0.0 -2.77371
0.0 0.0 -2.77371
0.0 0.0 -2.77371
0.0 0.0 -2.77371
0.0 0.0 -2.77371
0.0 0.0 -2.77371
0.0 0.0 -2.77371
0.0 0.0 -2.77371
0.0 0.0 -2.77371
0.0 0.0 -2.77371
0.0 0.0 -2.77371
0.0 0.0 -2.77371
0.0 0.0 -2.77371
0.0 0.0 -2.77371
0.0 0.0 -2.77371
0.0 0.0 -2.77371
0.0 0.0 -2.77371
0.0 0.0 -2.77371
0.0 0.0 -2.77371
0.0 0.0 -2.77371
0.0 0.0 -2.77371
0.0 0.0 -2.77371
0.0 0.0 -2.77371
0.0 0.0 -2.77371
0.0 0.0 -2.77371
0.0 0.0 -2.77371
0.0 0.0 -2.77371
0.0 0.0 -2.77371
0.0 0.0 -2.77371
0.0 0.0 -2.77371
0.0 0.0 -2.77371
0.0 0.0 -2.77371
0.0 0.0 -2.77371
0.0 0.0 -2.77371
0.0 0.0 -2.77371
0.0 0.0 -2.77371
0.0 0.0 -2.77371
0.0 0.0 -2.77371
0.0 0.0 -2.77371
0.0 0.0 0.0
0.0 0.0 0.0
0.0 0.0 0.0
0.0 0.0 0.0
0.0 0.0 0.0
0.0 0.0 0.0
0.0 0.0 0.0
0.0 0.0 0.0
0.0 0.0 0.0
0.0 0.0 0.0
0.0 0.0 0.0
0.0 0.0 0.0
0.0 0.0 0.0
0.0 0.0 0.0
0.0 0.0 0.0
0.0 0.0 0.0
0.0 0.0 0.0
0.0 0.0 0.0
0.0 0.0 0.0
0.0 0.0 0.0
0.0 0.0 0.0
0.0 0.0 0.0
0.0 0.0 0.0
0.0 0.0 0.0
0.0 0.0 0.0
0.0 0.0 0.0
0.0 0.0 0.0
0.0 0.0 0.0
0.0 0.0 0.0
0.0 0.0 0.0
0.0 0.0 0.0
0.0 0.0 0.0
0.0 0.0 0.0
0.0 0.0 0.0
0.0 0.0 0.0
0.0 0.0 0.0
0.0 0.0 0.0
0.0 0.0 0.0
0.0 0.0 0.0
0.0 0.0 0.0
0.0 0.0 0.0
0.0 0.0 0.0
0.0 0.0 0.0
0.0 0.0 0.0
0.0 0.0 0.0
0.0 0.0 0.0
0.0 0.0 0.0
VECTORS omega float
5.18755 -106.141 45.6066
2.7575 -106.295 16.9162
24.7406 -83.4962 -20.8635
-4.12905 -54.5513 51.4842
17.1995 -35.9335 31.0857
13.0199 -40.4663 14.2584
-2.3263 -46.2752 21.4706
0.487478 -54.8391 7.36489
-2.14618 -17.1308 34.2565
3.16051 -51.813 -3.49427
-1.42375 -56.9028 7.78044
-3.6992 -47.0869 12.6068
-11.3812 -37.871 13.8668
-12.3638 -74.7904 12.2934
3.56346 -65.9073 -7.35138
-6.37469 -55.0245 -15.9502
-7.45225 -31.0051 7.17967
-1.25357 -9.49248 -11.3794
-1.85387 -47.8565 25.9073
-5.62552 -47.7156 12.0898
-7.23542 -31.6381 16.3138
-3.82789 -102.812 -20.2925
5.531 -76.7383 -17.7646
15.2739 -73.5968 -16.4237
7.23559 -70.4852 0.0915896
2.98129 -61.5124 -5.81042
-0.702076 -50.8405 -10.1374
-8.68202 -49.3892 -1.20302
-2.24393 -48.5056 -0.84359
-0.582408 -51.4395 2.31498
-2.19633 -33.89 -0.617647
-11.8635 -32.6119 -4.39747
6.23197 -41.5118 4.77688
-27.7914 -59.2134 12.977
4.38808 -81.0326 -3.34666
7.62512 -88.3462 -8.08841
-1.08889 -56.2009 -17.3524
1.22589 -51.6727 7.25046
1.40177 -63.7379 -20.2856
-4.55479 -30.8374 5.34578
-6.30667 -52.3948 10.789
0.626779 -40.1754 -11.0398
-4.37078 -67.0439 -4.91715
-7.36439 -78.6138 5.90191
-2.35455 -67.435 -27.4635
-3.01868 -48.4374 -3.72347
-0.926219 -49.2927 -1.11052
1.93322 -33.7772 11.1023
-9.14393 -33.1998 -6.50566
-2.83485 -21.5996 10.4016
-8.783 -27.225 -3.02047
-12.8279 -41.2054 -0.699319
-21.1807 -49.3404 13.4693
-12.9402 -45.787 -21.4965
-21.0119 -89.4772 -12.096
31.0954 -65.6244 -13.6119
-0.836443 -54.6692 15.3641
7.20297 -62.5776 -1.45096
2.48047 -54.9215 -5.34888
-3.55856 -55.8424 3.89018
4.60709 -53.8818 -1.02484
-11.1656 -42.7608 3.81202
-0.228679 -119.181 0.785324
-14.687 7.21849 12.8362
-18.202 38.9762 -8.27214
17.7838 -14.1851 -11.1563
2.73825 -54.147 -16.9641
-7.72797 -66.8003 -3.97758
-1.68214 -51.3033 7.30971
-6.60273 25.7654 14.6662
-7.15535 -49.5037 -0.0671464
-5.40983 -41.7693 -1.68449
48.6354 -88.2618 -7.54269
-15.1645 -79.4848 -5.65799
-6.29331 -80.1235 -3.43767
1.73917 26.3664 15.8476
-0.276903 -56.8307 8.53798
-3.88566 -56.5113 -4.99873
-2.58672 -48.1341 4.32354
-2.21278 -58.8832 -9.02921
-1.32561 -61.9064 -12.3691
-4.53108 -39.9363 -7.47397
5.40257 -39.7775 -7.17397
-12.8425 -41.2827 -0.853487
-3.98056 -42.5236 -4.0245
1.53881 -59.9933 6.23814
3.26639 -47.8868 -14.1713
23.6531 33.3239 1.58738
1.84769 -49.6245 3.78522
1.29149 -52.1899 -13.3056
2.28906 -44.7784 -11.3294
-3.67901 -31.6943 12.5031
12.7395 -26.5024 1.87309
-17.9341 -95.338 22.6334
-8.18903 -65.4976 17.5148
-21.0171 19.8184 -9.48083
-12.984 -63.3756 30.6412
-7.06683 -59.5624 -6.10355
-0.663092 -52.7829 2.7929
-18.5827 -59.6894 -0.655792
6.26693 -56.2184 22.0418
2.35393 -65.75 4.04444
4.9483 -48.4671 4.34641
-0.915167 -47.8945 7.03729
9.73156 -46.8657 -12.2573
6.48556 -26.3862 -3.06119
-14.7151 -87.4651 -11.8185
-15.9958 -58.937 18.8718
-0.721945 -56.9154 0.313911
12.1633 -48.4988 -37.3327
-1.29272 -27.474 22.1787
6.16162 -39.2191 -14.2234
1.73721 -32.999 12.2029
17.1444 -2.85165 10.6667
-1.2666 -12.4742 6.51084
7.19707 -122.516 -15.6854
-12.3526 -105.822 -13.2024
1.8236 -69.4264 -29.6528
-10.4403 -64.6353 -6.06801
-0.513143 -92.7215 4.08116
4.92963 -52.1195 -16.0158
17.207 -53.7631 -19.3432
3.99884 -54.8927 -25.0339
4.12896 -53.4095 -19.1981
2.67102 -60.8152 -11.5719
-0.902351 -48.1805 -24.6067
1.13084 -42.7825 -10.9011
5.13653 -20.6102 -22.7706
18.1882 -25.5503 82.116
18.6059 -48.7902 29.5396
9.27408 -39.7403 27.6766
-1.95286 -48.7224 51.748
9.62382 -12.8305 46.1819
23.7082 17.8523 -24.1157
-36.7399 52.1372 6.61874
25.3571 30.2463 -9.12321
32.0904 17.7947 -9.15191
3.72055 39.1397 -4.7369
9.28168 60.3158 -9.00708
-0.0194916 50.3354 19.1665
3.47319 63.0394 -3.82018
12.5975 46.1335 -1.4726
-20.8684 11.4974 5.28358
25.5643 -24.0026 -33.0261
11.4431 24.6763 4.6993
17.0794 32.8593 5.59206
64.2675 0.34886 -9.53352
4.35388 -0.678708 -1.68526
39.2742 29.0364 25.7961
-23.8949 48.1545 -5.83834
13.3515 2.9608 -14.6653
5.11037 24.8132 20.7525
6.11214 -39.807 -19.6335
-16.3034 8.66553 6.37085
-0.25006 42.9078 -2.48184
10.1556 -10.9478 -33.2962
16.1921 45.8881 -11.3877
5.28347 44.1829 12.5078
-10.9798 30.4883 6.81482
62.8207 86.0959 -7.00211
11.1135 10.6426 10.8952
-4.13675 19.9636 24.868
13.1289 31.0248 4.82269
-54.1441 4.23093 -0.967282
-10.7972 41.3006 -1.7279
4.02681 62.3952 -10.8576
-1.19415 51.3301 -3.14626
-8.81457 47.9447 -1.20097
-17.8219 -70.9369 -44.5524
-4.04736 -94.021 -5.67231
-4.87762 -39.9796 -31.1731
4.24515 -52.5771 -41.1836
3.45046 33.5602 6.03899
24.8128 -66.9199 -26.1161
-21.2088 -18.5111 -42.3216
6.13663 -62.4157 -19.1294
-15.3696 -51.6951 61.3267
-4.1872 -13.9444 64.37
0.66452 -55.0894 19.7952
35.0331 28.8311 -15.8942
10.4004 22.1666 -9.78325
15.533 47.6505 -11.8135
-7.92781 82.2803 -30.036
32.9924 -32.7818 -12.0733
-22.0957 35.092 17.3315
4.47446 5.14366 10.1404
12.2228 -15.9599 -2.93328
-33.7539 -47.3018 6.8145
-14.1612 40.1034 21.6828
5.35198 -62.7466 -0.372487
15.7723 -24.9489 -10.9129
-17.1656 35.4285 1.74515
18.5666 24.0335 -2.22966
19.5915 8.71939 -9.35243
-11.5952 22.5247 11.3933
-20.8052 -58.9385 -2.57759
10.7665 -33.0214 -11.2985
4.33985 -17.8669 4.16698
-18.0023 -2.25344 -2.03101
18.8002 79.424 35.4142
11.3893 -0.986324 -9.71218
14.3488 37.9068 19.0933
8.732 -26.0315 1.79676
3.29131 36.5695 -10.5942
-6.13651 -69.7324 -16.7356
0.708358 31.5269 -14.5002
-16.8988 7.71364 2.29666
39.3928 40.5261 -20.3942
6.17816 -2.70714 -8.45757
6.40587 2.01427 13.1348
30.3487 14.419 -2.11543
5.86647 44.3142 14.2291
-12.2244 23.0268 -5.41951
12.6982 2.29872 40.235
-15.3976 -91.739 -43.2868
-12.0056 14.9585 -39.0896
-12.7795 40.4978 -19.4726
-46.7161 -41.2409 21.7677
10.3749 11.4775 11.0542
2.89176 31.8539 -2.4113
-28.1242 -48.9218 5.62765
5.20196 -20.8879 4.17992
-23.3488 9.58925 11.9555
-17.743 5.31785 14.3567
13.2017 41.1787 5.42111
-18.896 16.9415 10.9234
-29.6354 -21.5578 -18.6454
21.6242 -2.86575 38.2443
9.59834 70.3093 5.44313
-14.6984 15.9998 -28.3294
18.7211 -21.5674 -1.77533
3.72393 -49.1078 -7.20715
0.0 0.0 0.0
-4.55792 6.04415 -2.70821
18.8613 10.3901 -1.94281
-11.4211 -8.38074 -1.93318
10.4208 -3.01771 -10.3417
0.0 0.0 0.0
0.0 0.0 0.0
-19.8496 -4.9936 -4.84396
30.2807 -7.08844 1.33819
0.0 0.0 0.0
0.0 0.0 0.0
0.0 0.0 0.0
-11.0724 -11.8371 6.96134
0.0 0.0 0.0
0.0 0.0 0.0
-10.4262 8.60194 -0.139025
0.0 0.0 0.0
0.0 0.0 0.0
0.0 0.0 0.0
0.0 0.0 0.0
0.0 0.0 0.0
0.0 0.0 0.0
0.0 0.0 0.0
0.0 0.0 0.0
0.0 0.0 0.0
0.0 0.0 0.0
0.0 0.0 0.0
0.0 0.0 0.0
0.0 0.0 0.0
0.0 0.0 0.0
0.0 0.0 0.0
0.0 0.0 0.0
0.0 0.0 0.0
0.0 0.0 0.0
0.0 0.0 0.0
0.0 0.0 0.0
0.0 0.0 0.0
0.0 0.0 0.0
0.0 0.0 0.0
0.0 0.0 0.0
0.0 0.0 0.0
0.0 0.0 0.0
0.0 0.0 0.0
0.0 0.0 0.0
0.0 0.0 0.0
0.0 0.0 0.0
0.0 0.0 0.0
0.0 0.0 0.0
0.0 0.0 0.0
0.0 0.0 0.0
0.0 0.0 0.0
0.0 0.0 0.0
0.0 0.0 0.0
0.0 0.0 0.0
0.0 0.0 0.0
0.0 0.0 0.0
0.0 0.0 0.0
0.0 0.0 0.0
0.0 0.0 0.0
0.0 0.0 0.0
0.0 0.0 0.0
0.0 0.0 0.0
0.0 0.0 0.0
0.0 0.0 0.0
0.0 0.0 0.0
0.0 0.0 0.0
0.0 0.0 0.0
0.0 0.0 0.0
0.0 0.0 0.0
0.0 0.0 0.0
0.0 0.0 0.0
0.0 0.0 0.0
0.0 0.0 0.0
0.0 0.0 0.0
0.0 0.0 0.0
0.0 0.0 0.0
0.0 0.0 0.0
0.0 0.0 0.0
0.0 0.0 0.0
0.0 0.0 0.0
0.0 0.0 0.0
0.0 0.0 0.0
0.0 0.0 0.0
0.0 0.0 0.0