# vtk DataFile Version 2.0
Generated by lpp.py
ASCII
DATASET POLYDATA
POINTS 176 float
0.486268 0.228152 1.74746
0.306865 0.311483 1.75148
0.126566 0.357164 1.74319
0.238461 0.415411 1.74816
0.187145 0.244862 1.76797
0.109253 0.280954 1.77241
0.374238 0.280425 1.76355
0.147416 0.416779 1.76894
0.414339 0.44413 1.78515
0.494733 0.429958 1.75448
0.292463 0.465497 1.77452
0.14636 0.503077 1.77211
0.207787 0.513597 1.76749
0.46939 0.484878 1.76138
0.261488 0.255288 1.79367
0.460616 0.284913 1.79025
0.378919 0.367173 1.79193
0.4417 0.342212 1.81887
0.221691 0.336081 1.8531
0.293244 0.409688 1.82796
0.202452 0.459991 1.83463
0.298512 0.526526 1.85138
0.358392 0.516981 1.84628
0.315693 0.229965 1.87587
0.407624 0.228484 1.88686
0.389576 0.300711 1.89343
0.110316 0.328441 1.88209
0.326726 0.362322 1.87132
0.217643 0.395379 1.89702
0.48133 0.381744 1.86973
0.427577 0.512648 1.87096
0.184928 0.234672 1.92261
0.295884 0.285163 1.92666
0.443269 0.320522 1.93454
0.383972 0.46156 1.92354
0.246175 0.495534 1.91983
0.17066 0.517967 1.92162
0.119354 0.228593 1.95479
0.250314 0.231914 1.97112
0.354173 0.228377 1.96605
0.160428 0.3182 1.94503
0.27192 0.349064 1.95949
0.379347 0.368828 1.96303
0.320995 0.419007 1.96143
0.44361 0.420007 1.94619
0.486907 0.489071 1.94697
0.337972 0.524085 1.95565
0.44893 0.24186 1.9757
0.485944 0.343638 2.00544
0.173434 0.391321 1.99637
0.111154 0.43018 1.99024
0.242338 0.433913 1.9739
0.174746 0.456274 1.98659
0.119943 0.514428 1.99829
0.405158 0.517371 1.99533
0.188775 0.261917 2.02864
0.244548 0.285112 2.04533
0.154593 0.314223 2.04265
0.219922 0.334748 2.01092
0.334819 0.324289 2.01477
0.388697 0.32831 2.04482
0.457584 0.468554 2.01981
0.137853 0.229319 2.0648
0.329189 0.252757 2.07878
0.403959 0.242371 2.05551
0.10471 0.363257 2.05048
0.185895 0.369748 2.0628
0.478047 0.398941 2.04736
0.218563 0.442358 2.07136
0.400035 0.441344 2.05015
0.100655 0.458725 2.06438
0.283869 0.446206 2.04976
0.226898 0.506806 2.06243
0.309578 0.507986 2.05021
0.369388 0.526215 2.06895
0.112056 0.26459 2.1077
0.144122 0.349922 2.10517
0.298609 0.364728 2.09837
0.368876 0.379155 2.0911
0.179788 0.4242 2.11532
0.47867 0.463 2.08918
0.10161 0.511094 2.11454
0.190793 0.498184 2.11432
0.218269 0.254539 2.12076
0.377994 0.24098 2.13458
0.43763 0.245516 2.12653
0.235855 0.316318 2.1305
0.368613 0.311971 2.13424
0.486179 0.312628 2.13501
0.228049 0.384522 2.11702
0.497086 0.400324 2.12199
0.108382 0.420889 2.12366
0.421483 0.499457 2.11798
0.486742 0.509906 2.12814
0.254767 0.230824 2.17361
0.495956 0.249499 2.18224
0.290891 0.301706 2.16271
0.181029 0.318367 2.16437
0.41904 0.310566 2.16691
0.278223 0.363632 2.16762
0.155769 0.403018 2.17019
0.438372 0.392123 2.15222
0.240863 0.437556 2.17747
0.353388 0.44487 2.15555
0.419456 0.449551 2.16461
0.307792 0.495572 2.15669
0.218974 0.524143 2.16992
0.178322 0.227864 2.19834
0.408343 0.240904 2.19147
0.150682 0.290471 2.20822
0.355542 0.30862 2.19481
0.118071 0.372478 2.20713
0.216306 0.357237 2.20603
0.429922 0.3736 2.2122
0.499251 0.382901 2.19614
0.161462 0.479607 2.19922
0.476719 0.464357 2.189
0.105277 0.51875 2.19553
0.423627 0.520356 2.19047
0.117057 0.232547 2.22535
0.199862 0.243713 2.25294
0.33461 0.249494 2.24199
0.258494 0.28056 2.24116
0.46021 0.268154 2.23579
0.294692 0.330306 2.23293
0.414233 0.306803 2.23248
0.320208 0.403691 2.24809
0.113325 0.448918 2.25014
0.367693 0.467546 2.22384
0.209546 0.484752 2.24139
0.313052 0.494322 2.23354
0.446997 0.50849 2.2449
0.387237 0.525686 2.24208
0.47999 0.300848 2.28322
0.103577 0.34242 2.28791
0.230407 0.340128 2.28579
0.375347 0.345395 2.265
0.169236 0.376906 2.26011
0.380254 0.404128 2.29153
0.261069 0.440732 2.26621
0.491591 0.428372 2.26117
0.441781 0.458388 2.28924
0.131272 0.513706 2.28661
0.254698 0.262308 2.3026
0.365118 0.235733 2.32568
0.417913 0.266516 2.29416
0.121033 0.279919 2.30222
0.187546 0.294736 2.30886
0.378219 0.307765 2.31893
0.287678 0.358468 2.30158
0.227036 0.399722 2.29926
0.448915 0.39365 2.29864
0.200976 0.455034 2.32494
0.208645 0.523817 2.32003
0.35506 0.52072 2.30723
0.29951 0.265646 2.35473
0.26261 0.317421 2.35461
0.121236 0.342722 2.35496
0.234882 0.370686 2.3519
0.360498 0.363939 2.33203
0.10427 0.421706 2.32997
0.317689 0.454971 2.33695
0.124302 0.506318 2.35864
0.387139 0.48601 2.35051
0.491668 0.49724 2.33518
0.136955 0.241756 2.37145
0.478513 0.241448 2.36775
0.200031 0.295208 2.36871
0.352336 0.290052 2.37528
0.43656 0.349215 2.36852
0.18594 0.400862 2.37647
0.288982 0.398489 2.37045
0.41824 0.41741 2.37107
0.250123 0.467148 2.36514
0.485548 0.450278 2.37645
0.302009 0.506095 2.37474
VERTICES 176 352
1 0
1 1
1 2
1 3
1 4
1 5
1 6
1 7
1 8
1 9
1 10
1 11
1 12
1 13
1 14
1 15
1 16
1 17
1 18
1 19
1 20
1 21
1 22
1 23
1 24
1 25
1 26
1 27
1 28
1 29
1 30
1 31
1 32
1 33
1 34
1 35
1 36
1 37
1 38
1 39
1 40
1 41
1 42
1 43
1 44
1 45
1 46
1 47
1 48
1 49
1 50
1 51
1 52
1 53
1 54
1 55
1 56
1 57
1 58
1 59
1 60
1 61
1 62
1 63
1 64
1 65
1 66
1 67
1 68
1 69
1 70
1 71
1 72
1 73
1 74
1 75
1 76
1 77
1 78
1 79
1 80
1 81
1 82
1 83
1 84
1 85
1 86
1 87
1 88
1 89
1 90
1 91
1 92
1 93
1 94
1 95
1 96
1 97
1 98
1 99
1 100
1 101
1 102
1 103
1 104
1 105
1 106
1 107
1 108
1 109
1 110
1 111
1 112
1 113
1 114
1 115
1 116
1 117
1 118
1 119
1 120
1 121
1 122
1 123
1 124
1 125
1 126
1 127
1 128
1 129
1 130
1 131
1 132
1 133
1 134
1 135
1 136
1 137
1 138
1 139
1 140
1 141
1 142
1 143
1 144
1 145
1 146
1 147
1 148
1 149
1 150
1 151
1 152
1 153
1 154
1 155
1 156
1 157
1 158
1 159
1 160
1 161
1 162
1 163
1 164
1 165
1 166
1 167
1 168
1 169
1 170
1 171
1 172
1 173
1 174
1 175
POINT_DATA 176
VECTORS i float
0.0 0.0 0.0
0.0 0.0 0.0
0.0 0.0 0.0
0.0 0.0 0.0
0.0 0.0 0.0
0.0 0.0 0.0
0.0 0.0 0.0
0.0 0.0 0.0
0.0 0.0 0.0
0.0 0.0 0.0
0.0 0.0 0.0
0.0 0.0 0.0
0.0 0.0 0.0
0.0 0.0 0.0
0.0 0.0 0.0
0.0 0.0 0.0
0.0 0.0 0.0
0.0 0.0 0.0
0.0 0.0 0.0
0.0 0.0 0.0
0.0 0.0 0.0
0.0 0.0 0.0
0.0 0.0 0.0
0.0 0.0 0.0
0.0 0.0 0.0
0.0 0.0 0.0
0.0 0.0 0.0
0.0 0.0 0.0
0.0 0.0 0.0
0.0 0.0 0.0
0.0 0.0 0.0
0.0 0.0 0.0
0.0 0.0 0.0
0.0 0.0 0.0
0.0 0.0 0.0
0.0 0.0 0.0
0.0 0.0 0.0
0.0 0.0 0.0
0.0 0.0 0.0
0.0 0.0 0.0
0.0 0.0 0.0
0.0 0.0 0.0
0.0 0.0 0.0
0.0 0.0 0.0
0.0 0.0 0.0
0.0 0.0 0.0
0.0 0.0 0.0
0.0 0.0 0.0
0.0 0.0 0.0
0.0 0.0 0.0
0.0 0.0 0.0
0.0 0.0 0.0
0.0 0.0 0.0
0.0 0.0 0.0
0.0 0.0 0.0
0.0 0.0 0.0
0.0 0.0 0.0
0.0 0.0 0.0
0.0 0.0 0.0
0.0 0.0 0.0
0.0 0.0 0.0
0.0 0.0 0.0
0.0 0.0 0.0
0.0 0.0 0.0
0.0 0.0 0.0
0.0 0.0 0.0
0.0 0.0 0.0
0.0 0.0 0.0
0.0 0.0 0.0
0.0 0.0 0.0
0.0 0.0 0.0
0.0 0.0 0.0
0.0 0.0 0.0
0.0 0.0 0.0
0.0 0.0 0.0
0.0 0.0 0.0
0.0 0.0 0.0
0.0 0.0 0.0
0.0 0.0 0.0
0.0 0.0 0.0
0.0 0.0 0.0
0.0 0.0 0.0
0.0 0.0 0.0
0.0 0.0 0.0
0.0 0.0 0.0
0.0 0.0 0.0
0.0 0.0 0.0
0.0 0.0 0.0
0.0 0.0 0.0
0.0 0.0 0.0
0.0 0.0 0.0
0.0 0.0 0.0
0.0 0.0 0.0
0.0 0.0 0.0
0.0 0.0 0.0
0.0 0.0 0.0
0.0 0.0 0.0
0.0 0.0 0.0
0.0 0.0 0.0
0.0 0.0 0.0
0.0 0.0 0.0
0.0 0.0 0.0
0.0 0.0 0.0
0.0 0.0 0.0
0.0 0.0 0.0
0.0 0.0 0.0
0.0 0.0 0.0
0.0 0.0 0.0
0.0 0.0 0.0
0.0 0.0 0.0
0.0 0.0 0.0
0.0 0.0 0.0
0.0 0.0 0.0
0.0 0.0 0.0
0.0 0.0 0.0
0.0 0.0 0.0
0.0 0.0 0.0
0.0 0.0 0.0
0.0 0.0 0.0
0.0 0.0 0.0
0.0 0.0 0.0
0.0 0.0 0.0
0.0 0.0 0.0
0.0 0.0 0.0
0.0 0.0 0.0
0.0 0.0 0.0
0.0 0.0 0.0
0.0 0.0 0.0
0.0 0.0 0.0
0.0 0.0 0.0
0.0 0.0 0.0
0.0 0.0 0.0
0.0 0.0 0.0
0.0 0.0 0.0
0.0 0.0 0.0
0.0 0.0 0.0
0.0 0.0 0.0
0.0 0.0 0.0
0.0 0.0 0.0
0.0 0.0 0.0
0.0 0.0 0.0
0.0 0.0 0.0
0.0 0.0 0.0
0.0 0.0 0.0
0.0 0.0 0.0
0.0 0.0 0.0
0.0 0.0 0.0
0.0 0.0 0.0
0.0 0.0 0.0
0.0 0.0 0.0
0.0 0.0 0.0
0.0 0.0 0.0
0.0 0.0 0.0
0.0 0.0 0.0
0.0 0.0 0.0
0.0 0.0 0.0
0.0 0.0 0.0
0.0 0.0 0.0
0.0 0.0 0.0
0.0 0.0 0.0
0.0 0.0 0.0
0.0 0.0 0.0
0.0 0.0 0.0
0.0 0.0 0.0
0.0 0.0 0.0
0.0 0.0 0.0
0.0 0.0 0.0
0.0 0.0 0.0
0.0 0.0 0.0
0.0 0.0 0.0
0.0 0.0 0.0
0.0 0.0 0.0
0.0 0.0 0.0
0.0 0.0 0.0
0.0 0.0 0.0
0.0 0.0 0.0
VECTORS f float
0.0 0.0 -2.77371
0.0 0.0 -2.77371
0.0 0.0 -2.77371
0.0 0.0 -2.77371
0.0 0.0 -2.77371
0.0 0.0 -2.77371
0.0 0.0 -2.77371
0.0 0.0 -2.77371
0.0 0.0 -2.77371
0.0 0.0 -2.77371
0.0 0.0 -2.77371
0.0 0.0 -2.77371
0.0 0.0 -2.77371
0.0 0.0 -2.77371
0.0 0.0 -2.77371
0.0 0.0 -2.77371
0.0 0.0 -2.77371
0.0 0.0 -2.77371
0.0 0.0 -2.77371
0.0 0.0 -2.77371
0.0 0.0 -2.77371
0.0 0.0 -2.77371
0.0 0.0 -2.77371
0.0 0.0 -2.77371
0.0 0.0 -2.77371
0.0 0.0 -2.77371
0.0 0.0 -2.77371
0.0 0.0 -2.77371
0.0 0.0 -2.77371
0.0 0.0 -2.77371
0.0 0.0 -2.77371
0.0 0.0 -2.77371
0.0 0.0 -2.77371
0.0 0.0 -2.77371
0.0 0.0 -2.77371
0.0 0.0 -2.77371
0.0 0.0 -2.77371
0.0 0.0 -2.77371
0.0 0.0 -2.77371
0.0 0.0 -2.77371
0.0 0.0 -2.77371
0.0 0.0 -2.77371
0.0 0.0 -2.77371
0.0 0.0 -2.77371
0.0 0.0 -2.77371
0.0 0.0 -2.77371
0.0 0.0 -2.77371
0.0 0.0 -2.77371
0.0 0.0 -2.77371
0.0 0.0 -2.77371
0.0 0.0 -2.77371
0.0 0.0 -2.77371
0.0 0.0 -2.77371
0.0 0.0 -2.77371
0.0 0.0 -2.77371
0.0 0.0 -2.77371
0.0 0.0 -2.77371
0.0 0.0 -2.77371
0.0 0.0 -2.77371
0.0 0.0 -2.77371
0.0 0.0 -2.77371
0.0 0.0 -2.77371
0.0 0.0 0.0
0.0 0.0 0.0
0.0 0.0 0.0
0.0 0.0 0.0
0.0 0.0 0.0
0.0 0.0 0.0
0.0 0.0 0.0
0.0 0.0 0.0
0.0 0.0 0.0
0.0 0.0 0.0
0.0 0.0 0.0
0.0 0.0 0.0
0.0 0.0 0.0
0.0 0.0 0.0
0.0 0.0 0.0
0.0 0.0 0.0
0.0 0.0 0.0
0.0 0.0 0.0
0.0 0.0 0.0
0.0 0.0 0.0
0.0 0.0 0.0
0.0 0.0 0.0
0.0 0.0 0.0
0.0 0.0 0.0
0.0 0.0 0.0
0.0 0.0 0.0
0.0 0.0 0.0
0.0 0.0 0.0
0.0 0.0 0.0
0.0 0.0 0.0
0.0 0.0 0.0
0.0 0.0 0.0
0.0 0.0 0.0
0.0 0.0 0.0
0.0 0.0 0.0
0.0 0.0 0.0
0.0 0.0 0.0
0.0 0.0 0.0
0.0 0.0 0.0
0.0 0.0 0.0
0.0 0.0 0.0
0.0 0.0 0.0
0.0 0.0 0.0
0.0 0.0 0.0
0.0 0.0 0.0
0.0 0.0 0.0
0.0 0.0 0.0
0.0 0.0 0.0
0.0 0.0 0.0
0.0 0.0 0.0
0.0 0.0 0.0
0.0 0.0 0.0
0.0 0.0 0.0
0.0 0.0 0.0
0.0 0.0 0.0
0.0 0.0 0.0
0.0 0.0 0.0
0.0 0.0 0.0
0.0 0.0 0.0
0.0 0.0 0.0
0.0 0.0 0.0
0.0 0.0 0.0
0.0 0.0 0.0
0.0 0.0 0.0
0.0 0.0 0.0
0.0 0.0 0.0
0.0 0.0 0.0
0.0 0.0 0.0
0.0 0.0 0.0
0.0 0.0 0.0
0.0 0.0 0.0
0.0 0.0 0.0
0.0 0.0 0.0
0.0 0.0 0.0
0.0 0.0 0.0
0.0 0.0 0.0
0.0 0.0 0.0
0.0 0.0 0.0
0.0 0.0 0.0
0.0 0.0 0.0
0.0 0.0 0.0
0.0 0.0 0.0
0.0 0.0 0.0
0.0 0.0 0.0
0.0 0.0 0.0
0.0 0.0 0.0
0.0 0.0 0.0
0.0 0.0 0.0
0.0 0.0 0.0
0.0 0.0 0.0
0.0 0.0 0.0
0.0 0.0 0.0
0.0 0.0 0.0
0.0 0.0 0.0
0.0 0.0 0.0
0.0 0.0 0.0
0.0 0.0 0.0
0.0 0.0 0.0
0.0 0.0 0.0
0.0 0.0 0.0
0.0 0.0 0.0
0.0 0.0 0.0
0.0 0.0 0.0
0.0 0.0 0.0
0.0 0.0 0.0
0.0 0.0 0.0
0.0 0.0 0.0
0.0 0.0 0.0
0.0 0.0 0.0
0.0 0.0 0.0
0.0 0.0 0.0
0.0 0.0 0.0
0.0 0.0 0.0
0.0 0.0 0.0
VECTORS omega float
0.0 0.0 0.0
0.0 0.0 0.0
0.0 0.0 0.0
0.0 0.0 0.0
0.0 0.0 0.0
0.0 0.0 0.0
0.0 0.0 0.0
0.0 0.0 0.0
0.0 0.0 0.0
0.0 0.0 0.0
0.0 0.0 0.0
0.0 0.0 0.0
0.0 0.0 0.0
0.0 0.0 0.0
0.0 0.0 0.0
0.0 0.0 0.0
0.0 0.0 0.0
0.0 0.0 0.0
0.0 0.0 0.0
0.0 0.0 0.0
0.0 0.0 0.0
0.0 0.0 0.0
0.0 0.0 0.0
0.0 0.0 0.0
0.0 0.0 0.0
0.0 0.0 0.0
0.0 0.0 0.0
0.0 0.0 0.0
0.0 0.0 0.0
0.0 0.0 0.0
0.0 0.0 0.0
0.0 0.0 0.0
0.0 0.0 0.0
0.0 0.0 0.0
0.0 0.0 0.0
0.0 0.0 0.0
0.0 0.0 0.0
0.0 0.0 0.0
0.0 0.0 0.0
0.0 0.0 0.0
0.0 0.0 0.0
0.0 0.0 0.0
0.0 0.0 0.0
0.0 0.0 0.0
0.0 0.0 0.0
0.0 0.0 0.0
0.0 0.0 0.0
0.0 0.0 0.0
0.0 0.0 0.0
0.0 0.0 0.0
0.0 0.0 0.0
0.0 0.0 0.0
0.0 0.0 0.0
0.0 0.0 0.0
0.0 0.0 0.0
0.0 0.0 0.0
0.0 0.0 0.0
0.0 0.0 0.0
0.0 0.0 0.0
0.0 0.0 0.0
0.0 0.0 0.0
0.0 0.0 0.0
0.0 0.0 0.0
0.0 0.0 0.0
0.0 0.0 0.0
0.0 0.0 0.0
0.0 0.0 0.0
0.0 0.0 0.0
0.0 0.0 0.0
0.0 0.0 0.0
0.0 0.0 0.0
0.0 0.0 0.0
0.0 0.0 0.0
0.0 0.0 0.0
0.0 0.0 0.0
0.0 0.0 0.0
0.0 0.0 0.0
0.0 0.0 0.0
0.0 0.0 0.0
0.0 0.0 0.0
0.0 0.0 0.0
0.0 0.0 0.0
0.0 0.0 0.0
0.0 0.0 0.0
0.0 0.0 0.0
0.0 0.0 0.0
0.0 0.0 0.0
0.0 0.0 0.0
0.0 0.0 0.0
0.0 0.0 0.0
0.0 0.0 0.0
0.0 0.0 0.0
0.0 0.0 0.0
0.0 0.0 0.0
0.0 0.0 0.0
0.0 0.0 0.0
0.0 0.0 0.0
0.0 0.0 0.0
0.0 0.0 0.0
0.0 0.0 0.0
0.0 0.0 0.0
0.0 0.0 0.0
0.0 0.0 0.0
0.0 0.0 0.0
0.0 0.0 0.0
0.0 0.0 0.0
0.0 0.0 0.0
0.0 0.0 0.0
0.0 0.0 0.0
0.0 0.0 0.0
0.0 0.0 0.0
0.0 0.0 0.0
0.0 0.0 0.0
0.0 0.0 0.0
0.0 0.0 0.0
0.0 0.0 0.0
0.0 0.0 0.0
0.0 0.0 0.0
0.0 0.0 0.0
0.0 0.0 0.0
0.0 0.0 0.0
0.0 0.0 0.0
0.0 0.0 0.0
0.0 0.0 0.0
0.0 0.0 0.0
0.0 0.0 0.0
0.0 0.0 0.0
0.0 0.0 0.0
0.0 0.0 0.0
0.0 0.0 0.0
0.0 0.0 0.0
0.0 0.0 0.0
0.0 0.0 0.0
0.0 0.0 0.0
0.0 0.0 0.0
0.0 0.0 0.0
0.0 0.0 0.0
0.0 0.0 0.0
0.0 0.0 0.0
0.0 0.0 0.0
0.0 0.0 0.0
0.0 0.0 0.0
0.0 0.0 0.0
0.0 0.0 0.0
0.0 0.0 0.0
0.0 0.0 0.0
0.0 0.0 0.0
0.0 0.0 0.0
0.0 0.0 0.0
0.0 0.0 0.0
0.0 0.0 0.0
0.0 0.0 0.0
0.0 0.0 0.0
0.0 0.0 0.0
0.0 0.0 0.0
0.0 0.0 0.0
0.0 0.0 0.0
0.0 0.0 0.0
0.0 0.0 0.0
0.0 0.0 0.0
0.0 0.0 0.0
0.0 0.0 0.0
0.0 0.0 0.0
0.0 0.0 0.0
0.0 0.0 0.0
0.0 0.0 0.0
0.0 0.0 0.0
0.0 0.0 0.0
0.0 0.0 0.0
0.0 0.0 0.0
0.0 0.0 0.0
0.0 0.0 0.0
0.0 0.0 0.0
0.0 0.0 0.0
0.0 0.0 0.0
0.0 0.0 0.0
VECTORS v float
0.0 0.0 -2.62282
0.0 0.0 -2.60771
0.0 0.0 -2.63871
0.0 0.0 -2.62017
0.0 0.0 -2.54493
0.0 0.0 -2.52776
0.0 0.0 -2.5619
0.0 0.0 -2.5412
0.0 0.0 -2.47783
0.0 0.0 -2.59643
0.0 0.0 -2.51952
0.0 0.0 -2.52894
0.0 0.0 -2.54679
0.0 0.0 -2.57024
0.0 0.0 -2.44388
0.0 0.0 -2.45752
0.0 0.0 -2.45085
0.0 0.0 -2.34049
0.0 0.0 -2.19236
0.0 0.0 -2.30213
0.0 0.0 -2.27349
0.0 0.0 -2.20001
0.0 0.0 -2.22267
0.0 0.0 -2.08798
0.0 0.0 -2.03569
0.0 0.0 -2.00381
0.0 0.0 -2.05855
0.0 0.0 -2.10927
0.0 0.0 -1.98615
0.0 0.0 -2.11662
0.0 0.0 -2.11093
0.0 0.0 -1.85548
0.0 0.0 -1.8339
0.0 0.0 -1.79123
0.0 0.0 -1.85048
0.0 0.0 -1.8701
0.0 0.0 -1.86068
0.0 0.0 -1.67664
0.0 0.0 -1.57825
0.0 0.0 -1.60945
0.0 0.0 -1.73286
0.0 0.0 -1.64898
0.0 0.0 -1.62779
0.0 0.0 -1.6374
0.0 0.0 -1.72628
0.0 0.0 -1.72187
0.0 0.0 -1.67164
0.0 0.0 -1.54951
0.0 0.0 -1.34811
0.0 0.0 -1.41256
0.0 0.0 -1.45455
0.0 0.0 -1.56089
0.0 0.0 -1.47897
0.0 0.0 -1.39922
0.0 0.0 -1.41982
0.0 0.0 -1.16721
0.0 0.0 -1.01722
0.0 0.0 -1.04282
0.0 0.0 -1.30759
0.0 0.0 -1.27846
0.0 0.0 -1.02212
0.0 0.0 -1.23922
-0 -0 -1.0
-0 -0 -1.0
-0 -0 -1.0
-0 -0 -1.0
-0 -0 -1.0
-0 -0 -1.0
-0 -0 -1.0
-0 -0 -1.0
-0 -0 -1.0
-0 -0 -1.0
-0 -0 -1.0
-0 -0 -1.0
-0 -0 -1.0
-0 -0 -1.0
-0 -0 -1.0
-0 -0 -1.0
-0 -0 -1.0
-0 -0 -1.0
-0 -0 -1.0
-0 -0 -1.0
-0 -0 -1.0
-0 -0 -1.0
-0 -0 -1.0
-0 -0 -1.0
-0 -0 -1.0
-0 -0 -1.0
-0 -0 -1.0
-0 -0 -1.0
-0 -0 -1.0
-0 -0 -1.0
-0 -0 -1.0
-0 -0 -1.0
-0 -0 -1.0
-0 -0 -1.0
-0 -0 -1.0
-0 -0 -1.0
-0 -0 -1.0
-0 -0 -1.0
-0 -0 -1.0
-0 -0 -1.0
-0 -0 -1.0
-0 -0 -1.0
-0 -0 -1.0
-0 -0 -1.0
-0 -0 -1.0
-0 -0 -1.0
-0 -0 -1.0
-0 -0 -1.0
-0 -0 -1.0
-0 -0 -1.0
-0 -0 -1.0
-0 -0 -1.0
-0 -0 -1.0
-0 -0 -1.0
-0 -0 -1.0
-0 -0 -1.0
-0 -0 -1.0
-0 -0 -1.0
-0 -0 -1.0
-0 -0 -1.0
-0 -0 -1.0
-0 -0 -1.0
-0 -0 -1.0
-0 -0 -1.0
-0 -0 -1.0
-0 -0 -1.0
-0 -0 -1.0
-0 -0 -1.0
-0 -0 -1.0
-0 -0 -1.0
-0 -0 -1.0
-0 -0 -1.0
-0 -0 -1.0
-0 -0 -1.0
-0 -0 -1.0
-0 -0 -1.0
-0 -0 -1.0
-0 -0 -1.0
-0 -0 -1.0
-0 -0 -1.0
-0 -0 -1.0
-0 -0 -1.0
-0 -0 -1.0
-0 -0 -1.0
-0 -0 -1.0
-0 -0 -1.0
-0 -0 -1.0
-0 -0 -1.0
-0 -0 -1.0
-0 -0 -1.0
-0 -0 -1.0
-0 -0 -1.0
-0 -0 -1.0
-0 -0 -1.0
-0 -0 -1.0
-0 -0 -1.0
-0 -0 -1.0
-0 -0 -1.0
-0 -0 -1.0
-0 -0 -1.0
-0 -0 -1.0
-0 -0 -1.0
-0 -0 -1.0
-0 -0 -1.0
-0 -0 -1.0
-0 -0 -1.0
-0 -0 -1.0
-0 -0 -1.0
-0 -0 -1.0
-0 -0 -1.0
-0 -0 -1.0
-0 -0 -1.0
-0 -0 -1.0
-0 -0 -1.0
SCALARS radius float 1
LOOKUP_TABLE default
0.03
0.03
0.03
0.03
0.03
0.03
0.03
0.03
0.03
0.03
0.03
0.03
0.03
0.03
0.03
0.03
0.03
0.03
0.03
0.03
0.03
0.03
0.03
0.03
0.03
0.03
0.03
0.03
0.03
0.03
0.03
0.03
0.03
0.03
0.03
0.03
0.03
0.03
0.03
0.03
0.03
0.03
0.03
0.03
0.03
0.03
0.03
0.03
0.03
0.03
0.03
0.03
0.03
0.03
0.03
0.03
0.03
0.03
0.03
0.03
0.03
0.03
0.03
0.03
0.03
0.03
0.03
0.03
0.03
0.03
0.03
0.03
0.03
0.03
0.03
0.03
0.03
0.03
0.03
0.03
0.03
0.03
0.03
0.03
0.03
0.03
0.03
0.03
0.03
0.03
0.03
0.03
0.03
0.03
0.03
0.03
0.03
0.03
0.03
0.03
0.03
0.03
0.03
0.03
0.03
0.03
0.03
0.03
0.03
0.03
0.03
0.03
0.03
0.03
0.03
0.03
0.03
0.03
0.03
0.03
0.03
0.03
0.03
0.03
0.03
0.03
0.03
0.03
0.03
0.03
0.03
0.03
0.03
0.03
0.03
0.03
0.03
0.03
0.03
0.03
0.03
0.03
0.03
0.03
0.03
0.03
0.03
0.03
0.03
0.03
0.03
0.03
0.03
0.03
0.03
0.03
0.03
0.03
0.03
0.03
0.03
0.03
0.03
0.03
0.03
0.03
0.03
0.03
0.03
0.03
0.03
0.03
0.03
0.03
0.03
0.03
SCALARS type float 1
LOOKUP_TABLE default
1.0
1.0
1.0
1.0
1.0
1.0
1.0
1.0
1.0
1.0
1.0
1.0
1.0
1.0
1.0
1.0
1.0
1.0
1.0
1.0
1.0
1.0
1.0
1.0
1.0
1.0
1.0
1.0
1.0
1.0
1.0
1.0
1.0
1.0
1.0
1.0
1.0
1.0
1.0
1.0
1.0
1.0
1.0
1.0
1.0
1.0
1.0
1.0
1.0
1.0
1.0
1.0
1.0
1.0
1.0
1.0
1.0
1.0
1.0
1.0
1.0
1.0
1.0
1.0
1.0
1.0
1.0
1.0
1.0
1.0
1.0
1.0
1.0
1.0
1.0
1.0
1.0
1.0
1.0
1.0
1.0
1.0
1.0
1.0
1.0
1.0
1.0
1.0
1.0
1.0
1.0
1.0
1.0
1.0
1.0
1.0
1.0
1.0
1.0
1.0
1.0
1.0
1.0
1.0
1.0
1.0
1.0
1.0
1.0
1.0
1.0
1.0
1.0
1.0
1.0
1.0
1.0
1.0
1.0
1.0
1.0
1.0
1.0
1.0
1.0
1.0
1.0
1.0
1.0
1.0
1.0
1.0
1.0
1.0
1.0
1.0
1.0
1.0
1.0
1.0
1.0
1.0
1.0
1.0
1.0
1.0
1.0
1.0
1.0
1.0
1.0
1.0
1.0
1.0
1.0
1.0
1.0
1.0
1.0
1.0
1.0
1.0
1.0
1.0
1.0
1.0
1.0
1.0
1.0
1.0
1.0
1.0
1.0
1.0
1.0
1.0
SCALARS id float 1
LOOKUP_TABLE default
100.0
129.0
149.0
21.0
123.0
79.0
105.0
41.0
16.0
82.0
98.0
66.0
85.0
152.0
49.0
42.0
112.0
92.0
29.0
144.0
166.0
167.0
53.0
137.0
94.0
127.0
99.0
104.0
91.0
138.0
18.0
108.0
81.0
145.0
131.0
97.0
51.0
128.0
146.0
171.0
5.0
76.0
19.0
133.0
24.0
151.0
2.0
1.0
45.0
71.0
80.0
12.0
61.0
17.0
174.0
15.0
73.0
116.0
72.0
47.0
55.0
130.0
148.0
64.0
32.0
31.0
57.0
93.0
83.0
44.0
118.0
4.0
164.0
107.0
125.0
60.0
70.0
23.0
26.0
28.0
68.0
77.0
75.0
46.0
140.0
10.0
102.0
155.0
136.0
157.0
173.0
176.0
67.0
110.0
22.0
120.0
135.0
156.0
35.0
25.0
165.0
63.0
101.0
30.0
163.0
52.0
143.0
86.0
40.0
13.0
8.0
58.0
78.0
109.0
113.0
33.0
134.0
162.0
159.0
139.0
158.0
69.0
117.0
43.0
121.0
153.0
147.0
150.0
87.0
115.0
37.0
119.0
168.0
48.0
3.0
50.0
27.0
38.0
103.0
90.0
170.0
11.0
111.0
114.0
141.0
7.0
14.0
62.0
169.0
54.0
95.0
65.0
56.0
154.0
161.0
126.0
36.0
142.0
175.0
59.0
74.0
6.0
84.0
39.0
96.0
132.0
89.0
124.0
106.0
122.0
20.0
172.0
34.0
9.0
88.0
160.0
SCALARS Temp float 1
LOOKUP_TABLE default
300.0
300.0
300.0
300.0
300.0
300.0
300.0
300.0
300.0
300.0
300.0
300.0
300.0
300.0
300.0
300.0
300.0
300.0
300.0
300.0
300.0
300.0
300.0
300.0
300.0
300.0
300.0
300.0
300.0
300.0
300.0
300.0
300.0
300.0
300.0
300.0
300.0
300.0
300.0
300.0
300.0
300.0
300.0
300.0
300.0
300.0
300.0
300.0
300.0
300.0
300.0
300.0
300.0
300.0
300.0
300.0
300.0
300.0
300.0
300.0
300.0
300.0
300.0
300.0
300.0
300.0
300.0
300.0
300.0
300.0
300.0
300.0
300.0
300.0
300.0
300.0
300.0
300.0
300.0
300.0
300.0
300.0
300.0
300.0
300.0
300.0
300.0
300.0
300.0
300.0
300.0
300.0
300.0
300.0
300.0
300.0
300.0
300.0
300.0
300.0
300.0
300.0
300.0
300.0
300.0
300.0
300.0
300.0
300.0
300.0
300.0
300.0
300.0
300.0
300.0
300.0
300.0
300.0
300.0
300.0
300.0
300.0
300.0
300.0
300.0
300.0
300.0
300.0
300.0
300.0
300.0
300.0
300.0
300.0
300.0
300.0
300.0
300.0
300.0
300.0
300.0
300.0
300.0
300.0
300.0
300.0
300.0
300.0
300.0
300.0
300.0
300.0
300.0
300.0
300.0
300.0
300.0
300.0
300.0
300.0
300.0
300.0
300.0
300.0
300.0
300.0
300.0
300.0
300.0
300.0
300.0
300.0
300.0
300.0
300.0
300.0

