# vtk DataFile Version 2.0
Generated by lpp.py
ASCII
DATASET POLYDATA
POINTS 527 float
2.63698 0.430361 1.39831
2.57734 0.387459 1.43328
2.53475 0.465152 1.44313
2.58994 0.533272 1.42885
2.70687 0.535967 1.42655
2.39161 0.215663 1.48222
2.43843 0.536717 1.47559
2.44389 0.164885 1.49101
2.33163 0.211165 1.50538
2.35798 0.27243 1.4992
2.20864 0.184777 1.55315
2.18391 0.265884 1.5585
2.25618 0.320896 1.54313
2.16883 0.373177 1.55821
2.22775 0.382269 1.5511
2.2589 0.444363 1.53735
0.200605 0.175662 1.58722
0.261056 0.174876 1.5864
0.344988 0.183865 1.57887
0.517134 0.187227 1.57595
0.578974 0.178292 1.5843
0.705177 0.175817 1.58714
0.829065 0.165858 1.59692
1.23474 0.184747 1.57767
1.51354 0.190298 1.57686
1.86795 0.187197 1.57686
0.283027 0.232408 1.57696
0.664639 0.218626 1.57641
0.789361 0.223256 1.57686
0.870131 0.204676 1.57699
0.955379 0.208047 1.57685
1.01387 0.215613 1.58779
1.13175 0.231935 1.5769
1.19419 0.228338 1.57685
1.29423 0.198866 1.57703
1.38335 0.202183 1.59079
1.45329 0.20702 1.57685
1.61142 0.214641 1.57791
1.67447 0.232434 1.57686
1.74651 0.212121 1.57686
1.96293 0.205392 1.57687
0.208074 0.251038 1.57511
0.346156 0.252671 1.5753
0.404021 0.238615 1.57505
0.461512 0.25478 1.58837
0.538932 0.241397 1.58202
0.900113 0.25664 1.57699
1.32404 0.251177 1.5771
1.47286 0.260279 1.59552
1.54708 0.240379 1.57685
1.88704 0.247322 1.57686
0.118823 0.277275 1.5761
0.269638 0.289853 1.57612
0.615706 0.283662 1.57647
0.841975 0.272226 1.57634
1.03408 0.279377 1.57686
1.17481 0.285793 1.57681
1.23422 0.277436 1.57764
1.29082 0.302475 1.57673
1.37955 0.274538 1.57837
1.51778 0.294537 1.57696
1.587 0.295936 1.57686
1.69005 0.297549 1.57686
1.77015 0.291332 1.57686
1.83405 0.289049 1.57686
1.97771 0.275003 1.57686
2.11767 0.275186 1.56995
0.392994 0.30521 1.57727
0.531979 0.319852 1.57676
0.719088 0.314179 1.57696
0.797764 0.31411 1.57679
1.09451 0.309954 1.57686
1.63003 0.338484 1.57687
1.88332 0.329767 1.57675
2.05115 0.32163 1.57581
0.174372 0.345751 1.57721
0.345727 0.350604 1.57707
0.611051 0.356867 1.57685
0.901246 0.371328 1.5796
0.981886 0.351452 1.57672
1.24045 0.349066 1.57686
1.29951 0.362762 1.57686
1.46049 0.357174 1.57682
1.56931 0.355126 1.57663
1.69188 0.365717 1.57715
1.80416 0.35217 1.57802
1.93312 0.362641 1.57722
2.11275 0.350011 1.56817
0.0203326 0.384337 1.57723
0.0933721 0.401402 1.57509
0.410248 0.382238 1.57917
0.477986 0.399372 1.577
0.666577 0.378538 1.58244
0.72482 0.390806 1.5764
0.783813 0.375636 1.57678
0.964942 0.409486 1.57555
1.08786 0.396461 1.57686
1.3841 0.392833 1.57678
1.51484 0.387486 1.57678
1.61024 0.397949 1.57698
1.98068 0.392471 1.59682
2.03634 0.393697 1.57681
0.154668 0.415413 1.57588
0.267903 0.412389 1.57561
0.551576 0.443657 1.58484
0.658601 0.439135 1.57684
0.877947 0.432606 1.58302
1.04412 0.436813 1.5768
1.24165 0.418057 1.57687
1.31661 0.437748 1.57686
1.67605 0.422592 1.57659
1.7847 0.414046 1.57681
1.84328 0.426065 1.57654
1.9405 0.437306 1.57686
2.0049 0.44484 1.57683
2.07333 0.443829 1.57429
2.18954 0.431228 1.56066
0.0359646 0.459487 1.57663
0.230148 0.471224 1.57835
0.326913 0.45635 1.57659
0.445461 0.46958 1.57525
0.786271 0.462944 1.57685
1.12638 0.448826 1.57693
1.21969 0.476059 1.57686
1.40706 0.448193 1.57888
1.468 0.454009 1.57658
1.52673 0.445832 1.5773
1.62307 0.455972 1.57765
1.71959 0.469041 1.57687
1.78011 0.479986 1.57659
2.12976 0.465578 1.56826
0.380109 0.50454 1.57653
0.562322 0.502072 1.57686
0.71765 0.485583 1.57693
0.937599 0.482243 1.57664
1.01027 0.515244 1.57687
1.07146 0.500139 1.57659
1.3607 0.484819 1.57645
1.41748 0.50726 1.57715
1.49838 0.505376 1.57708
1.60612 0.510564 1.59444
1.66641 0.497066 1.57698
1.89658 0.487262 1.57686
1.96934 0.510664 1.57681
2.02896 0.504171 1.57784
2.20345 0.490905 1.57535
0.133645 0.542492 1.57879
0.256345 0.545457 1.5753
0.420885 0.547394 1.58411
0.474913 0.521595 1.57659
0.742583 0.539651 1.58574
0.80117 0.522224 1.5772
1.28097 0.519778 1.57697
1.5552 0.535718 1.57689
1.71008 0.537903 1.5767
1.81069 0.531741 1.57688
2.07569 0.541347 1.58337
2.16544 0.541794 1.56025
0.302484 0.580098 1.58953
0.359968 0.566133 1.58422
0.523323 0.555679 1.5784
0.655707 0.586261 1.59544
0.848 0.566703 1.57661
0.967501 0.565572 1.57687
1.02098 0.58635 1.5955
1.08288 0.568075 1.57697
1.14174 0.55113 1.57709
1.2349 0.560857 1.57688
1.33185 0.552199 1.57699
1.39157 0.560564 1.57635
1.45491 0.554719 1.57693
1.51113 0.575017 1.58379
1.64284 0.553935 1.57665
1.75629 0.574973 1.58417
1.88104 0.564384 1.57686
2.00735 0.564354 1.57687
0.793014 0.583331 1.59256
1.28968 0.588878 1.59788
0.20591 0.129298 1.63363
0.366527 0.143106 1.61976
0.507388 0.138857 1.62461
0.998719 0.154856 1.60809
1.17262 0.146672 1.61627
1.25281 0.145623 1.61827
1.35347 0.149275 1.61368
0.629273 0.160212 1.61318
0.410353 0.201094 1.61989
1.32025 0.209548 1.63017
0.216859 0.250333 1.63244
0.584013 0.252132 1.62002
0.710997 0.256266 1.62304
0.921403 0.23388 1.62863
0.128611 0.292569 1.63242
0.350344 0.283609 1.62401
0.41465 0.268744 1.62445
0.532086 0.287613 1.62789
0.648621 0.301958 1.62144
0.855812 0.278459 1.63369
0.975673 0.283663 1.597
0.0473632 0.321658 1.59449
0.293689 0.325085 1.61744
0.446228 0.315596 1.60352
1.26647 0.312587 1.63032
1.44825 0.313971 1.61597
0.114661 0.356362 1.60497
0.231496 0.34485 1.61145
0.357555 0.353406 1.63595
0.834455 0.369247 1.60845
0.174388 0.38238 1.62295
0.274982 0.383747 1.62617
1.041 0.374442 1.60692
1.44192 0.407068 1.60261
0.226103 0.429333 1.62235
0.350872 0.408838 1.6043
0.759217 0.42059 1.61462
1.17579 0.41707 1.61929
1.75577 0.421383 1.62841
1.88443 0.425711 1.61949
0.0908647 0.469602 1.59355
0.28358 0.453087 1.62652
0.377191 0.464969 1.62181
0.433601 0.449284 1.63191
0.492743 0.471671 1.60976
0.604741 0.452971 1.62162
0.972436 0.450036 1.61743
1.64486 0.462262 1.63343
1.81998 0.471363 1.62008
0.289783 0.509116 1.60622
0.763407 0.49756 1.62237
1.1347 0.498976 1.60984
0.188913 0.539385 1.59298
0.345057 0.522434 1.62091
0.91684 0.519935 1.61843
1.38431 0.528556 1.62604
0.583535 0.554383 1.59668
0.377971 0.614814 1.62262
0.508238 0.609978 1.61915
0.735698 0.595581 1.60421
0.832029 0.6104 1.6301
0.898698 0.609116 1.61832
1.1571 0.597813 1.617
1.35786 0.598529 1.60706
1.41888 0.601916 1.61103
1.56541 0.606686 1.61586
0.781339 0.119248 1.6437
1.77888 0.117958 1.64498
0.563761 0.132995 1.64425
0.939719 0.128836 1.63513
0.163235 0.179926 1.6635
0.275906 0.15887 1.64127
0.453629 0.158726 1.64205
0.318764 0.219871 1.64581
0.502189 0.196381 1.64468
0.57151 0.193636 1.6403
0.741164 0.204638 1.63601
0.440602 0.237505 1.66816
0.457377 0.295722 1.65949
0.907295 0.297391 1.6608
0.188019 0.303626 1.63163
0.255738 0.327996 1.66364
0.409478 0.331861 1.65827
0.470544 0.365495 1.6328
0.565001 0.342921 1.64433
0.623522 0.354271 1.63673
0.549699 0.403942 1.65582
0.664952 0.39654 1.65196
0.371714 0.418959 1.66039
1.68031 0.411702 1.63838
0.174877 0.50244 1.64817
0.296124 0.538721 1.65802
0.397246 0.52217 1.64883
0.815568 0.526957 1.63695
0.446311 0.567256 1.63417
0.749754 0.559422 1.65398
0.961269 0.557264 1.63578
0.608277 0.586908 1.64454
0.939926 0.615298 1.6635
0.57085 0.639362 1.64853
0.99476 0.63199 1.64099
0.249125 0.0828769 1.68551
0.386738 0.146143 1.67594
0.194631 0.262412 1.68545
0.369266 0.254064 1.67443
0.58934 0.293467 1.66959
0.737356 0.276254 1.67181
0.338548 0.311027 1.67429
0.514314 0.319798 1.67769
0.84575 0.328462 1.66486
0.105869 0.382511 1.66595
0.211971 0.435529 1.68424
0.294872 0.427692 1.68003
0.471078 0.416101 1.67169
0.738141 0.422198 1.67071
0.107277 0.454975 1.64761
0.647411 0.450049 1.68041
0.487624 0.502935 1.67911
0.682474 0.505694 1.68724
0.554239 0.55294 1.68923
0.404451 0.606214 1.67541
0.433485 0.662833 1.67442
0.578431 0.691345 1.7005
0.412151 0.377742 1.69837
0.533906 0.3886 1.7128
0.339305 0.526873 1.70939
0.271982 0.260644 1.74512
0.321856 0.294278 1.74073
0.44222 0.295647 1.71798
0.346145 0.350757 1.7277
0.469208 0.382306 1.72365
0.216307 0.425021 1.75286
0.466199 0.451954 1.72869
0.104255 0.515661 1.74937
0.236464 0.494005 1.72261
0.430217 0.500721 1.72969
0.125428 0.344451 1.78005
0.282424 0.374546 1.76532
0.323589 0.424937 1.78673
0.103324 0.228818 1.81477
0.161403 0.258279 1.81372
0.499192 0.246026 1.82402
0.189012 0.364304 1.80129
0.415188 0.353574 1.79156
0.115455 0.44409 1.80475
0.370433 0.49856 1.82124
0.363615 0.240431 1.82708
0.425069 0.242959 1.82968
0.40415 0.414672 1.82833
0.158807 0.499296 1.84222
0.264146 0.523422 1.83611
0.257372 0.298287 1.8926
0.31493 0.348737 1.87092
0.484684 0.362834 1.88626
0.125062 0.39201 1.89563
0.220666 0.238837 1.91782
0.314466 0.284399 1.9278
0.492483 0.279077 1.93085
0.417494 0.317622 1.92549
0.217234 0.387064 1.91459
0.263093 0.452487 1.92657
0.417911 0.469013 1.91703
0.486571 0.452792 1.93294
0.393674 0.233628 1.94314
0.17717 0.298235 1.93943
0.107591 0.339963 1.94722
0.385775 0.387923 1.95217
0.449749 0.403068 1.9388
0.345938 0.437655 1.96289
0.139724 0.459766 1.94369
0.220758 0.508511 1.93839
0.312076 0.491969 1.93659
0.490194 0.521396 1.94278
0.313064 0.354671 1.99166
0.494465 0.353653 1.98962
0.177639 0.41728 1.99401
0.286065 0.525163 2.00612
0.420914 0.522237 1.99172
0.130146 0.239366 2.02548
0.215119 0.259008 2.03341
0.293957 0.252051 2.013
0.480794 0.235256 2.02143
0.112395 0.298661 2.02267
0.396036 0.28089 2.02944
0.461831 0.299793 2.0314
0.260232 0.32538 2.04052
0.184207 0.342437 2.04518
0.25883 0.414412 2.01728
0.469219 0.429721 2.03536
0.312883 0.472231 2.04349
0.425503 0.471227 2.03559
0.188867 0.511362 2.01931
0.352584 0.510062 2.00895
0.481601 0.499619 2.02515
0.405689 0.228633 2.07064
0.317332 0.30781 2.07804
0.134053 0.366007 2.06991
0.489016 0.368217 2.07079
0.413738 0.375309 2.06012
0.153204 0.432626 2.06854
0.107222 0.481912 2.05361
0.32799 0.229202 2.09355
0.109866 0.233818 2.10844
0.167912 0.238386 2.08466
0.231382 0.240563 2.09299
0.113197 0.294489 2.09951
0.469257 0.29946 2.10185
0.194635 0.336418 2.10946
0.405808 0.316699 2.10707
0.222179 0.424446 2.08719
0.306002 0.430402 2.0974
0.379233 0.434328 2.10583
0.239416 0.495022 2.08556
0.297107 0.507647 2.10842
0.498927 0.504545 2.08488
0.360463 0.523492 2.09545
0.391248 0.260634 2.13374
0.498812 0.248514 2.11893
0.194033 0.278126 2.12518
0.265839 0.285868 2.1268
0.354308 0.337534 2.14063
0.291855 0.372275 2.13768
0.489514 0.352564 2.13129
0.142017 0.392074 2.14392
0.487806 0.414883 2.12581
0.188866 0.448878 2.13084
0.150905 0.499656 2.12471
0.452328 0.508491 2.12873
0.228203 0.227346 2.17755
0.121163 0.235465 2.16938
0.325604 0.248234 2.15541
0.464139 0.288262 2.1635
0.109346 0.315959 2.18037
0.240166 0.328846 2.16071
0.263606 0.399014 2.1851
0.442633 0.401674 2.16786
0.112907 0.457318 2.15655
0.306813 0.454906 2.16191
0.232349 0.51961 2.1655
0.325501 0.521381 2.16998
0.477175 0.232241 2.21463
0.182449 0.265752 2.19745
0.371199 0.250575 2.19872
0.310551 0.275965 2.21166
0.287412 0.337623 2.20316
0.368802 0.320326 2.20015
0.198909 0.373142 2.19127
0.435393 0.34359 2.19127
0.151029 0.419157 2.20396
0.333275 0.414894 2.21173
0.224919 0.462043 2.19083
0.480028 0.469573 2.19511
0.143314 0.508824 2.20199
0.370146 0.482381 2.19259
0.202651 0.326782 2.22942
0.419779 0.314987 2.24386
0.102309 0.339997 2.24882
0.261557 0.393625 2.25365
0.384965 0.379016 2.235
0.470694 0.421347 2.23073
0.178059 0.478415 2.25491
0.487334 0.474096 2.25584
0.297583 0.511466 2.24592
0.158331 0.259584 2.25919
0.287182 0.241461 2.28538
0.379968 0.260616 2.2578
0.437539 0.252688 2.28571
0.146413 0.330961 2.28865
0.23496 0.304512 2.28559
0.478207 0.314376 2.26397
0.189373 0.382597 2.27159
0.496133 0.384099 2.27079
0.108153 0.438732 2.26855
0.318306 0.424417 2.27625
0.41429 0.434596 2.26731
0.353581 0.483281 2.27649
0.419317 0.494483 2.2571
0.226804 0.518091 2.26666
0.345706 0.244188 2.31848
0.119434 0.281797 2.31643
0.313165 0.295281 2.29233
0.413519 0.31622 2.31723
0.361163 0.357044 2.30824
0.444299 0.395894 2.3032
0.167616 0.430974 2.30451
0.489664 0.438439 2.31411
0.250241 0.450955 2.30964
0.105798 0.50424 2.31445
0.281519 0.521738 2.30447
0.422137 0.237787 2.35647
0.183368 0.299923 2.32745
0.4644 0.282902 2.34546
0.114178 0.389821 2.32746
0.20118 0.391877 2.33642
0.261164 0.39533 2.34092
0.393917 0.429411 2.32729
0.187915 0.515186 2.33538
0.32526 0.484758 2.33005
0.4524 0.512277 2.32886
0.1932 0.229789 2.36297
0.337046 0.231264 2.37864
0.497694 0.256246 2.39034
0.248456 0.285804 2.39542
0.372856 0.301203 2.36603
0.306584 0.303573 2.37311
0.488964 0.318078 2.39029
0.15454 0.359333 2.3612
0.330347 0.403499 2.36088
0.485995 0.385829 2.36292
0.244813 0.43345 2.39185
0.145536 0.471864 2.37705
0.398538 0.477915 2.37576
0.493497 0.449079 2.38063
0.308508 0.519363 2.39446
0.10177 0.254991 2.39716
0.389977 0.239061 2.42499
0.150783 0.312529 2.42024
0.430203 0.322942 2.41658
0.244928 0.34739 2.40499
0.359187 0.345598 2.41339
0.206866 0.39261 2.41625
0.387775 0.408365 2.39781
0.114653 0.416417 2.42766
0.100279 0.478463 2.4225
0.322092 0.457941 2.40624
0.239296 0.494007 2.403
0.496548 0.513622 2.41741
0.119764 0.23589 2.45451
0.200715 0.243234 2.44381
0.271532 0.23235 2.4428
0.465941 0.232795 2.43673
0.145549 0.370736 2.46487
0.203386 0.34301 2.46212
0.253008 0.38524 2.45529
0.32123 0.387645 2.44716
0.462123 0.378122 2.44228
0.388515 0.434845 2.46435
0.195028 0.474388 2.44054
0.489023 0.459055 2.45218
0.434645 0.505695 2.45274
0.340901 0.251487 2.46902
0.252209 0.30257 2.47485
0.399979 0.29937 2.46706
0.334843 0.328269 2.47319
0.493176 0.31314 2.47199
0.402076 0.364491 2.47095
0.1312 0.50645 2.47577
0.277161 0.482116 2.47173
0.348799 0.506378 2.46849
VERTICES 527 1054
1 0
1 1
1 2
1 3
1 4
1 5
1 6
1 7
1 8
1 9
1 10
1 11
1 12
1 13
1 14
1 15
1 16
1 17
1 18
1 19
1 20
1 21
1 22
1 23
1 24
1 25
1 26
1 27
1 28
1 29
1 30
1 31
1 32
1 33
1 34
1 35
1 36
1 37
1 38
1 39
1 40
1 41
1 42
1 43
1 44
1 45
1 46
1 47
1 48
1 49
1 50
1 51
1 52
1 53
1 54
1 55
1 56
1 57
1 58
1 59
1 60
1 61
1 62
1 63
1 64
1 65
1 66
1 67
1 68
1 69
1 70
1 71
1 72
1 73
1 74
1 75
1 76
1 77
1 78
1 79
1 80
1 81
1 82
1 83
1 84
1 85
1 86
1 87
1 88
1 89
1 90
1 91
1 92
1 93
1 94
1 95
1 96
1 97
1 98
1 99
1 100
1 101
1 102
1 103
1 104
1 105
1 106
1 107
1 108
1 109
1 110
1 111
1 112
1 113
1 114
1 115
1 116
1 117
1 118
1 119
1 120
1 121
1 122
1 123
1 124
1 125
1 126
1 127
1 128
1 129
1 130
1 131
1 132
1 133
1 134
1 135
1 136
1 137
1 138
1 139
1 140
1 141
1 142
1 143
1 144
1 145
1 146
1 147
1 148
1 149
1 150
1 151
1 152
1 153
1 154
1 155
1 156
1 157
1 158
1 159
1 160
1 161
1 162
1 163
1 164
1 165
1 166
1 167
1 168
1 169
1 170
1 171
1 172
1 173
1 174
1 175
1 176
1 177
1 178
1 179
1 180
1 181
1 182
1 183
1 184
1 185
1 186
1 187
1 188
1 189
1 190
1 191
1 192
1 193
1 194
1 195
1 196
1 197
1 198
1 199
1 200
1 201
1 202
1 203
1 204
1 205
1 206
1 207
1 208
1 209
1 210
1 211
1 212
1 213
1 214
1 215
1 216
1 217
1 218
1 219
1 220
1 221
1 222
1 223
1 224
1 225
1 226
1 227
1 228
1 229
1 230
1 231
1 232
1 233
1 234
1 235
1 236
1 237
1 238
1 239
1 240
1 241
1 242
1 243
1 244
1 245
1 246
1 247
1 248
1 249
1 250
1 251
1 252
1 253
1 254
1 255
1 256
1 257
1 258
1 259
1 260
1 261
1 262
1 263
1 264
1 265
1 266
1 267
1 268
1 269
1 270
1 271
1 272
1 273
1 274
1 275
1 276
1 277
1 278
1 279
1 280
1 281
1 282
1 283
1 284
1 285
1 286
1 287
1 288
1 289
1 290
1 291
1 292
1 293
1 294
1 295
1 296
1 297
1 298
1 299
1 300
1 301
1 302
1 303
1 304
1 305
1 306
1 307
1 308
1 309
1 310
1 311
1 312
1 313
1 314
1 315
1 316
1 317
1 318
1 319
1 320
1 321
1 322
1 323
1 324
1 325
1 326
1 327
1 328
1 329
1 330
1 331
1 332
1 333
1 334
1 335
1 336
1 337
1 338
1 339
1 340
1 341
1 342
1 343
1 344
1 345
1 346
1 347
1 348
1 349
1 350
1 351
1 352
1 353
1 354
1 355
1 356
1 357
1 358
1 359
1 360
1 361
1 362
1 363
1 364
1 365
1 366
1 367
1 368
1 369
1 370
1 371
1 372
1 373
1 374
1 375
1 376
1 377
1 378
1 379
1 380
1 381
1 382
1 383
1 384
1 385
1 386
1 387
1 388
1 389
1 390
1 391
1 392
1 393
1 394
1 395
1 396
1 397
1 398
1 399
1 400
1 401
1 402
1 403
1 404
1 405
1 406
1 407
1 408
1 409
1 410
1 411
1 412
1 413
1 414
1 415
1 416
1 417
1 418
1 419
1 420
1 421
1 422
1 423
1 424
1 425
1 426
1 427
1 428
1 429
1 430
1 431
1 432
1 433
1 434
1 435
1 436
1 437
1 438
1 439
1 440
1 441
1 442
1 443
1 444
1 445
1 446
1 447
1 448
1 449
1 450
1 451
1 452
1 453
1 454
1 455
1 456
1 457
1 458
1 459
1 460
1 461
1 462
1 463
1 464
1 465
1 466
1 467
1 468
1 469
1 470
1 471
1 472
1 473
1 474
1 475
1 476
1 477
1 478
1 479
1 480
1 481
1 482
1 483
1 484
1 485
1 486
1 487
1 488
1 489
1 490
1 491
1 492
1 493
1 494
1 495
1 496
1 497
1 498
1 499
1 500
1 501
1 502
1 503
1 504
1 505
1 506
1 507
1 508
1 509
1 510
1 511
1 512
1 513
1 514
1 515
1 516
1 517
1 518
1 519
1 520
1 521
1 522
1 523
1 524
1 525
1 526
POINT_DATA 527
VECTORS i float
0.0 0.0 0.0
0.0 0.0 0.0
0.0 0.0 0.0
0.0 0.0 0.0
0.0 0.0 0.0
0.0 0.0 0.0
0.0 0.0 0.0
0.0 0.0 0.0
0.0 0.0 0.0
0.0 0.0 0.0
0.0 0.0 0.0
0.0 0.0 0.0
0.0 0.0 0.0
0.0 0.0 0.0
0.0 0.0 0.0
0.0 0.0 0.0
0.0 0.0 0.0
0.0 0.0 0.0
0.0 0.0 0.0
0.0 0.0 0.0
0.0 0.0 0.0
0.0 0.0 0.0
0.0 0.0 0.0
0.0 0.0 0.0
0.0 0.0 0.0
0.0 0.0 0.0
0.0 0.0 0.0
0.0 0.0 0.0
0.0 0.0 0.0
0.0 0.0 0.0
0.0 0.0 0.0
0.0 0.0 0.0
0.0 0.0 0.0
0.0 0.0 0.0
0.0 0.0 0.0
0.0 0.0 0.0
0.0 0.0 0.0
0.0 0.0 0.0
0.0 0.0 0.0
0.0 0.0 0.0
0.0 0.0 0.0
0.0 0.0 0.0
0.0 0.0 0.0
0.0 0.0 0.0
0.0 0.0 0.0
0.0 0.0 0.0
0.0 0.0 0.0
0.0 0.0 0.0
0.0 0.0 0.0
0.0 0.0 0.0
0.0 0.0 0.0
0.0 0.0 0.0
0.0 0.0 0.0
0.0 0.0 0.0
0.0 0.0 0.0
0.0 0.0 0.0
0.0 0.0 0.0
0.0 0.0 0.0
0.0 0.0 0.0
0.0 0.0 0.0
0.0 0.0 0.0
0.0 0.0 0.0
0.0 0.0 0.0
0.0 0.0 0.0
0.0 0.0 0.0
0.0 0.0 0.0
0.0 0.0 0.0
0.0 0.0 0.0
0.0 0.0 0.0
0.0 0.0 0.0
0.0 0.0 0.0
0.0 0.0 0.0
0.0 0.0 0.0
0.0 0.0 0.0
0.0 0.0 0.0
0.0 0.0 0.0
0.0 0.0 0.0
0.0 0.0 0.0
0.0 0.0 0.0
0.0 0.0 0.0
0.0 0.0 0.0
0.0 0.0 0.0
0.0 0.0 0.0
0.0 0.0 0.0
0.0 0.0 0.0
0.0 0.0 0.0
0.0 0.0 0.0
0.0 0.0 0.0
0.0 0.0 0.0
0.0 0.0 0.0
0.0 0.0 0.0
0.0 0.0 0.0
0.0 0.0 0.0
0.0 0.0 0.0
0.0 0.0 0.0
0.0 0.0 0.0
0.0 0.0 0.0
0.0 0.0 0.0
0.0 0.0 0.0
0.0 0.0 0.0
0.0 0.0 0.0
0.0 0.0 0.0
0.0 0.0 0.0
0.0 0.0 0.0
0.0 0.0 0.0
0.0 0.0 0.0
0.0 0.0 0.0
0.0 0.0 0.0
0.0 0.0 0.0
0.0 0.0 0.0
0.0 0.0 0.0
0.0 0.0 0.0
0.0 0.0 0.0
0.0 0.0 0.0
0.0 0.0 0.0
0.0 0.0 0.0
0.0 0.0 0.0
0.0 0.0 0.0
0.0 0.0 0.0
0.0 0.0 0.0
0.0 0.0 0.0
0.0 0.0 0.0
0.0 0.0 0.0
0.0 0.0 0.0
0.0 0.0 0.0
0.0 0.0 0.0
0.0 0.0 0.0
0.0 0.0 0.0
0.0 0.0 0.0
0.0 0.0 0.0
0.0 0.0 0.0
0.0 0.0 0.0
0.0 0.0 0.0
0.0 0.0 0.0
0.0 0.0 0.0
0.0 0.0 0.0
0.0 0.0 0.0
0.0 0.0 0.0
0.0 0.0 0.0
0.0 0.0 0.0
0.0 0.0 0.0
0.0 0.0 0.0
0.0 0.0 0.0
0.0 0.0 0.0
0.0 0.0 0.0
0.0 0.0 0.0
0.0 0.0 0.0
0.0 0.0 0.0
0.0 0.0 0.0
0.0 0.0 0.0
0.0 0.0 0.0
0.0 0.0 0.0
0.0 0.0 0.0
0.0 0.0 0.0
0.0 0.0 0.0
0.0 0.0 0.0
0.0 0.0 0.0
0.0 0.0 0.0
0.0 0.0 0.0
0.0 0.0 0.0
0.0 0.0 0.0
0.0 0.0 0.0
0.0 0.0 0.0
0.0 0.0 0.0
0.0 0.0 0.0
0.0 0.0 0.0
0.0 0.0 0.0
0.0 0.0 0.0
0.0 0.0 0.0
0.0 0.0 0.0
0.0 0.0 0.0
0.0 0.0 0.0
0.0 0.0 0.0
0.0 0.0 0.0
0.0 0.0 0.0
0.0 0.0 0.0
0.0 0.0 0.0
0.0 0.0 0.0
0.0 0.0 0.0
0.0 0.0 0.0
0.0 0.0 0.0
0.0 0.0 0.0
0.0 0.0 0.0
0.0 0.0 0.0
0.0 0.0 0.0
0.0 0.0 0.0
0.0 0.0 0.0
0.0 0.0 0.0
0.0 0.0 0.0
0.0 0.0 0.0
0.0 0.0 0.0
0.0 0.0 0.0
0.0 0.0 0.0
0.0 0.0 0.0
0.0 0.0 0.0
0.0 0.0 0.0
0.0 0.0 0.0
0.0 0.0 0.0
0.0 0.0 0.0
0.0 0.0 0.0
0.0 0.0 0.0
0.0 0.0 0.0
0.0 0.0 0.0
0.0 0.0 0.0
0.0 0.0 0.0
0.0 0.0 0.0
0.0 0.0 0.0
0.0 0.0 0.0
0.0 0.0 0.0
0.0 0.0 0.0
0.0 0.0 0.0
0.0 0.0 0.0
0.0 0.0 0.0
0.0 0.0 0.0
0.0 0.0 0.0
0.0 0.0 0.0
0.0 0.0 0.0
0.0 0.0 0.0
0.0 0.0 0.0
0.0 0.0 0.0
0.0 0.0 0.0
0.0 0.0 0.0
0.0 0.0 0.0
0.0 0.0 0.0
0.0 0.0 0.0
0.0 0.0 0.0
0.0 0.0 0.0
0.0 0.0 0.0
0.0 0.0 0.0
0.0 0.0 0.0
0.0 0.0 0.0
0.0 0.0 0.0
0.0 0.0 0.0
0.0 0.0 0.0
0.0 0.0 0.0
0.0 0.0 0.0
0.0 0.0 0.0
0.0 0.0 0.0
0.0 0.0 0.0
0.0 0.0 0.0
0.0 0.0 0.0
0.0 0.0 0.0
0.0 0.0 0.0
0.0 0.0 0.0
0.0 0.0 0.0
0.0 0.0 0.0
0.0 0.0 0.0
0.0 0.0 0.0
0.0 0.0 0.0
0.0 0.0 0.0
0.0 0.0 0.0
0.0 0.0 0.0
0.0 0.0 0.0
0.0 0.0 0.0
0.0 0.0 0.0
0.0 0.0 0.0
0.0 0.0 0.0
0.0 0.0 0.0
0.0 0.0 0.0
0.0 0.0 0.0
0.0 0.0 0.0
0.0 0.0 0.0
0.0 0.0 0.0
0.0 0.0 0.0
0.0 0.0 0.0
0.0 0.0 0.0
0.0 0.0 0.0
0.0 0.0 0.0
0.0 0.0 0.0
0.0 0.0 0.0
0.0 0.0 0.0
0.0 0.0 0.0
0.0 0.0 0.0
0.0 0.0 0.0
0.0 0.0 0.0
0.0 0.0 0.0
0.0 0.0 0.0
0.0 0.0 0.0
0.0 0.0 0.0
0.0 0.0 0.0
0.0 0.0 0.0
0.0 0.0 0.0
0.0 0.0 0.0
0.0 0.0 0.0
0.0 0.0 0.0
0.0 0.0 0.0
0.0 0.0 0.0
0.0 0.0 0.0
0.0 0.0 0.0
0.0 0.0 0.0
0.0 0.0 0.0
0.0 0.0 0.0
0.0 0.0 0.0
0.0 0.0 0.0
0.0 0.0 0.0
0.0 0.0 0.0
0.0 0.0 0.0
0.0 0.0 0.0
0.0 0.0 0.0
0.0 0.0 0.0
0.0 0.0 0.0
0.0 0.0 0.0
0.0 0.0 0.0
0.0 0.0 0.0
0.0 0.0 0.0
0.0 0.0 0.0
0.0 0.0 0.0
0.0 0.0 0.0
0.0 0.0 0.0
0.0 0.0 0.0
0.0 0.0 0.0
0.0 0.0 0.0
0.0 0.0 0.0
0.0 0.0 0.0
0.0 0.0 0.0
0.0 0.0 0.0
0.0 0.0 0.0
0.0 0.0 0.0
0.0 0.0 0.0
0.0 0.0 0.0
0.0 0.0 0.0
0.0 0.0 0.0
0.0 0.0 0.0
0.0 0.0 0.0
0.0 0.0 0.0
0.0 0.0 0.0
0.0 0.0 0.0
0.0 0.0 0.0
0.0 0.0 0.0
0.0 0.0 0.0
0.0 0.0 0.0
0.0 0.0 0.0
0.0 0.0 0.0
0.0 0.0 0.0
0.0 0.0 0.0
0.0 0.0 0.0
0.0 0.0 0.0
0.0 0.0 0.0
0.0 0.0 0.0
0.0 0.0 0.0
0.0 0.0 0.0
0.0 0.0 0.0
0.0 0.0 0.0
0.0 0.0 0.0
0.0 0.0 0.0
0.0 0.0 0.0
0.0 0.0 0.0
0.0 0.0 0.0
0.0 0.0 0.0
0.0 0.0 0.0
0.0 0.0 0.0
0.0 0.0 0.0
0.0 0.0 0.0
0.0 0.0 0.0
0.0 0.0 0.0
0.0 0.0 0.0
0.0 0.0 0.0
0.0 0.0 0.0
0.0 0.0 0.0
0.0 0.0 0.0
0.0 0.0 0.0
0.0 0.0 0.0
0.0 0.0 0.0
0.0 0.0 0.0
0.0 0.0 0.0
0.0 0.0 0.0
0.0 0.0 0.0
0.0 0.0 0.0
0.0 0.0 0.0
0.0 0.0 0.0
0.0 0.0 0.0
0.0 0.0 0.0
0.0 0.0 0.0
0.0 0.0 0.0
0.0 0.0 0.0
0.0 0.0 0.0
0.0 0.0 0.0
0.0 0.0 0.0
0.0 0.0 0.0
0.0 0.0 0.0
0.0 0.0 0.0
0.0 0.0 0.0
0.0 0.0 0.0
0.0 0.0 0.0
0.0 0.0 0.0
0.0 0.0 0.0
0.0 0.0 0.0
0.0 0.0 0.0
0.0 0.0 0.0
0.0 0.0 0.0
0.0 0.0 0.0
0.0 0.0 0.0
0.0 0.0 0.0
0.0 0.0 0.0
0.0 0.0 0.0
0.0 0.0 0.0
0.0 0.0 0.0
0.0 0.0 0.0
0.0 0.0 0.0
0.0 0.0 0.0
0.0 0.0 0.0
0.0 0.0 0.0
0.0 0.0 0.0
0.0 0.0 0.0
0.0 0.0 0.0
0.0 0.0 0.0
0.0 0.0 0.0
0.0 0.0 0.0
0.0 0.0 0.0
0.0 0.0 0.0
0.0 0.0 0.0
0.0 0.0 0.0
0.0 0.0 0.0
0.0 0.0 0.0
0.0 0.0 0.0
0.0 0.0 0.0
0.0 0.0 0.0
0.0 0.0 0.0
0.0 0.0 0.0
0.0 0.0 0.0
0.0 0.0 0.0
0.0 0.0 0.0
0.0 0.0 0.0
0.0 0.0 0.0
0.0 0.0 0.0
0.0 0.0 0.0
0.0 0.0 0.0
0.0 0.0 0.0
0.0 0.0 0.0
0.0 0.0 0.0
0.0 0.0 0.0
0.0 0.0 0.0
0.0 0.0 0.0
0.0 0.0 0.0
0.0 0.0 0.0
0.0 0.0 0.0
0.0 0.0 0.0
0.0 0.0 0.0
0.0 0.0 0.0
0.0 0.0 0.0
0.0 0.0 0.0
0.0 0.0 0.0
0.0 0.0 0.0
0.0 0.0 0.0
0.0 0.0 0.0
0.0 0.0 0.0
0.0 0.0 0.0
0.0 0.0 0.0
0.0 0.0 0.0
0.0 0.0 0.0
0.0 0.0 0.0
0.0 0.0 0.0
0.0 0.0 0.0
0.0 0.0 0.0
0.0 0.0 0.0
0.0 0.0 0.0
0.0 0.0 0.0
0.0 0.0 0.0
0.0 0.0 0.0
0.0 0.0 0.0
0.0 0.0 0.0
0.0 0.0 0.0
0.0 0.0 0.0
0.0 0.0 0.0
0.0 0.0 0.0
0.0 0.0 0.0
0.0 0.0 0.0
0.0 0.0 0.0
0.0 0.0 0.0
0.0 0.0 0.0
0.0 0.0 0.0
0.0 0.0 0.0
0.0 0.0 0.0
0.0 0.0 0.0
0.0 0.0 0.0
0.0 0.0 0.0
0.0 0.0 0.0
0.0 0.0 0.0
0.0 0.0 0.0
0.0 0.0 0.0
0.0 0.0 0.0
0.0 0.0 0.0
0.0 0.0 0.0
0.0 0.0 0.0
0.0 0.0 0.0
0.0 0.0 0.0
0.0 0.0 0.0
0.0 0.0 0.0
0.0 0.0 0.0
0.0 0.0 0.0
0.0 0.0 0.0
0.0 0.0 0.0
0.0 0.0 0.0
0.0 0.0 0.0
0.0 0.0 0.0
0.0 0.0 0.0
0.0 0.0 0.0
0.0 0.0 0.0
0.0 0.0 0.0
0.0 0.0 0.0
0.0 0.0 0.0
0.0 0.0 0.0
0.0 0.0 0.0
0.0 0.0 0.0
0.0 0.0 0.0
0.0 0.0 0.0
0.0 0.0 0.0
0.0 0.0 0.0
0.0 0.0 0.0
0.0 0.0 0.0
0.0 0.0 0.0
0.0 0.0 0.0
0.0 0.0 0.0
0.0 0.0 0.0
0.0 0.0 0.0
0.0 0.0 0.0
0.0 0.0 0.0
0.0 0.0 0.0
0.0 0.0 0.0
0.0 0.0 0.0
0.0 0.0 0.0
0.0 0.0 0.0
0.0 0.0 0.0
0.0 0.0 0.0
0.0 0.0 0.0
0.0 0.0 0.0
0.0 0.0 0.0
VECTORS f float
0.0 0.0 -2.77371
0.0 0.0 -2.77371
0.0 0.0 -2.77371
0.0 0.0 -2.77371
0.0 0.0 -2.77371
0.0 0.0 -2.77371
0.0 0.0 -2.77371
0.0 0.0 -2.77371
0.0 0.0 -2.77371
0.0 0.0 -2.77371
0.0 0.0 -2.77371
0.0 0.0 -2.77371
0.0 0.0 -2.77371
0.0 0.0 -2.77371
0.0 0.0 -2.77371
0.0 0.0 -2.77371
0.958358 1.23183 -0.222275
3.06369 12.3711 28.49
0.387114 -0.695091 -3.25447
-2.3901 -3.22862 17.361
7.87265 -0.800527 -1.96258
0.755261 0.0295618 -0.0297336
1.57059 2.21557 -2.36113
5.71854 3.14759 7.89471
0.00552855 0.00667895 -0.034944
-0.00254303 -2.02376e-05 -0.0215675
8.6573 -26.4334 8.2281
-0.0273735 0.268871 11.4843
0.000210502 1.77355e-05 0.010814
-0.920487 1.38858 -9.89846
0.176698 0.000141436 0.043494
-0.237273 -0.00208073 -2.7094
-0.0631474 -0.0293786 -0.45978
-3.61047 4.78409 -2.4706
-0.0629758 -0.0454249 -2.61841
0.0 0.0 -2.77371
0.885673 -3.84081 -1.47717
0.0 0.0 -2.77371
-2.03102e-06 1.00383e-07 -1.54452e-05
5.72081e-05 -1.46648e-05 0.00122526
0.00138774 -0.000290035 -0.0481265
2.96659 -2.66613 -6.25742
-4.58302 -12.343 10.3159
49.9184 6.28485 26.0635
0.0 0.0 -2.77371
9.48784 18.074 12.3169
0.782557 -1.27894 3.03942
0.0400469 0.014359 -2.8588
-5.46075 2.63385 -0.972649
-0.010591 -0.0118491 0.159669
0.000464166 -6.85341e-06 0.014944
0.170715 -1.03941 -0.798458
-6.09303 28.4399 -11.5201
10.5101 -2.34977 -14.5875
6.18744 -3.29999 2.49526
2.73997e-05 -6.13674e-06 -0.00273996
0.9197 -0.143563 -0.912037
0.0 0.0 -2.77371
0.156272 0.00465066 0.267522
0.0 0.0 -2.77371
5.16852 3.0616 -1.1967
-0.00209631 2.99909e-05 0.0254305
-1.54207e-06 1.73567e-07 -9.86123e-05
1.54618e-06 -8.30744e-07 -2.03416e-05
-0.000730698 -0.000737577 -0.00410426
1.8066e-05 -8.64583e-06 0.0134383
0.0 0.0 -2.77371
0.0 0.0 -2.77371
-0.39061 0.631753 1.06066
-0.0158454 0.00794792 -1.54468
0.878135 -0.32361 -0.90198
-0.0011309 0.000215727 -0.0267136
0.00221017 -6.50094e-05 -0.0374049
-1.37368 -0.843624 -0.990846
0.0 0.0 -2.77371
-1.19561 -12.4463 -3.10564
-1.23501 -0.222823 -14.9934
-0.456871 -0.0777507 -0.259505
0.0 0.0 -2.77371
-0.100016 0.325759 1.26991
-0.000975057 4.6825e-05 -0.0300655
0.00118809 -0.000114689 0.0318098
5.23305 -8.37039 -2.69848
-3.99841 -4.16757 1.78674
4.3269 -14.2006 4.8131
0.0 0.0 -2.77371
-5.91819 -0.997913 -0.250826
0.0 0.0 -2.77371
0.0 0.0 -2.77371
27.8199 5.43039 43.4608
0.0 0.0 -2.77371
2.65334 0.0734102 -8.08241
0.138459 0.0884408 -2.46364
2.39851 0.583566 0.206363
-0.408654 0.01345 0.827579
-0.618278 -3.24702 16.3609
10.5863 -11.1677 0.869078
2.12913 2.73807 0.76588
0.978142 -1.69967 1.04299
5.23217 2.32224 0.683969
-5.61927 0.220423 -2.43596
14.3571 2.60228 -3.9224
0.567229 -0.035114 -1.63708
-3.867 2.49217 2.21827
0.0400059 1.17347 -2.40217
-0.146115 0.0155268 -1.49791
0.0 0.0 -2.77371
-4.02522 5.01553 -3.09926
0.00413223 0.000290759 -0.100836
-2.57756e-05 -7.971e-07 -0.000385519
-2.2736 8.18903 2.34452
2.81024 2.23936 -4.11938
1.2186 0.438935 1.90056
-0.00136063 -6.32297e-05 0.00332941
0.0 0.0 -2.77371
0.0 0.0 -2.77371
0.0 0.0 -2.77371
-30.8582 -17.338 -40.9574
0.0 0.0 -2.77371
3.25706 -5.08363 5.81154
7.24043 -2.83309 12.9191
-0.0127147 -0.000448841 -0.0104829
0.0210576 0.0453812 -0.733347
5.87915e-05 3.89987e-06 0.00149378
-2.00447 4.89621 1.61431
-5.24599 3.45589 -1.84144
7.47705 1.44514 2.50143
2.87078 2.74425 -5.03821
1.24685 0.31786 -0.200252
-0.332071 0.0129389 1.18882
0.0 0.0 -2.77371
-1.54045 2.55424 -8.47749
30.8843 -12.501 -39.1986
-0.141225 -0.278637 0.802355
-1.88722 1.60558 -0.0174405
0.0377297 -0.00732103 0.189384
-0.548375 -0.0707141 1.70828
-5.55181 6.3159 -2.37698
4.30456 -7.57294 1.68464
0.483698 0.813515 -2.43486
0.89552 -1.14121 0.472859
1.3307 1.13722 -0.742584
-0.000733377 -7.45598e-05 -0.00947466
0.102794 0.0296731 -0.372208
-0.647511 0.0968262 -2.46456
0.0 0.0 -2.77371
-78.0647 1.05744 -70.3105
-0.366767 -1.47774 13.1558
-1.8014 -3.14767 -4.21305
2.91079 4.21491 -4.48065
0.0696483 -5.2985 -2.25729
0.0 0.0 -2.77371
-0.0597005 -0.0010805 -2.19433
-0.778002 -3.00846 -0.313299
0.935717 1.16518 2.41811
0.00114267 -0.0161375 -0.146918
-0.0437577 -0.0378303 -2.7513
0.0 0.0 -2.77371
-4.18841 4.12907 -5.03249
3.91459 2.49294 -5.51267
-0.297046 -0.226164 -2.60172
0.207987 -0.705673 -0.720137
3.92367 -1.12109 10.3101
-17.3247 -15.9696 -15.8461
0.978966 -1.23722 -1.1186
3.3068 -3.53109 1.39736
0.0341347 -0.004089 -1.86631
-0.140099 0.0630842 -0.294697
0.768656 -0.519862 -2.26075
0.274993 -1.86593 3.54688
1.40087 0.89368 0.549603
0.171782 -0.703339 1.41956
1.97187 0.622173 1.84458
2.30863 0.624886 0.736927
3.0563e-06 6.52495e-08 -0.000244265
0.0 0.0 -2.77371
1.43003 -0.749193 -1.6696
-0.857744 -0.25391 -2.48485
0.809131 1.0197 -1.39462
0.12784 0.349045 -1.14885
-1.26507 1.21551 -1.63342
0.00108629 0.985397 -0.990376
-3.33743e-06 0.988823 -0.988733
2.04075 -4.37264 1.75697
0.00690921 0.931913 -1.01142
0.0 0.0 -2.77371
-3.34965 -8.71418 26.8976
0.0 0.0 -2.77371
1.25859 -2.45434 -0.140586
-2.0106 0.809713 -4.92606
-4.91034 -2.99845 -6.04279
0.0 0.0 -2.77371
-1.84101 -1.3833 -13.316
11.9169 6.90525 13.3264
-3.89337 3.35583 15.7584
0.0 0.0 -2.77371
5.9733 8.8625 34.6069
-0.592824 0.2468 2.86322
0.0 0.0 -2.77371
0.0 0.0 -2.77371
-1.91755 -2.22175 -9.23104
0.0 0.0 -2.77371
-0.658275 0.226742 -0.230306
0.860925 -7.26837 -1.38521
5.14892 -17.645 21.3093
1.45533 -0.140248 -1.5072
0.0 0.0 -2.77371
0.0 0.0 -2.77371
1.19561 12.4463 -2.44178
1.91379 -5.58816 9.05756
0.664474 0.0587779 -2.90643
3.77027 0.398363 2.6159
0.0 0.0 -2.77371
-0.862742 1.58809 -2.88511
-10.0495 -14.9029 -7.74816
0.0 0.0 -2.77371
-4.01374 -1.36535 2.34966
2.41832 0.0230298 0.878244
67.6291 78.7828 -38.8582
0.345365 -0.366235 -2.59279
-9.40141 4.77478 -0.0927451
9.40141 -4.77478 -5.45468
5.76182 0.475616 8.39357
0.0 0.0 -2.77371
1.08546 7.00326 10.9059
0.0 0.0 -2.77371
1.21004 -0.214493 -0.0848396
3.22084 -17.123 16.9867
0.743592 -2.76324 -2.09484
0.0 0.0 -2.77371
78.0647 -1.05744 64.7631
5.43329 0.925542 -0.345574
1.33415 -1.96861 -2.35608
1.35137 -4.2616 0.841754
-30.3291 13.8935 36.633
14.7634 -13.2472 21.4806
-1.78833e-06 -0.98887 -0.988688
0.851174 -7.35057 1.54453
0.0 0.0 -2.77371
-0.00738409 -0.732604 -1.20511
0.0 0.0 -2.77371
0.285483 -5.01035 3.76575
0.277706 -0.963714 0.0347416
-2.23302e-06 -0.989373 -0.988246
-0.000544135 0.97459 -1.00214
6.74256e-05 0.988677 -0.988689
-0.0043938 0.00218253 -2.77386
0.0 0.0 -2.77371
0.0 0.0 -2.77371
2.58581 1.69103 5.72219
1.26947 -1.21769 -3.91386
0.0 0.0 -2.77371
0.0 0.0 -2.77371
0.0682032 8.70352 17.581
0.0 0.0 -2.77371
5.76445 -1.02764 7.38467
0.0 0.0 -2.77371
0.0 0.0 -2.77371
0.0 0.0 -2.77371
-0.478917 0.331212 -4.54105
0.0 0.0 -2.77371
0.0 0.0 -2.77371
0.0 0.0 -2.77371
0.0 0.0 -2.77371
0.0 0.0 -2.77371
0.0 0.0 -2.77371
0.0 0.0 -2.77371
0.0 0.0 -2.77371
0.0 0.0 -2.77371
0.0 0.0 -2.77371
5.38148 -2.4156 3.57162
0.0 0.0 -2.77371
1.31162 1.52884 -1.52394
0.0 0.0 -2.77371
16.2024 14.8431 13.9825
0.0 0.0 -2.77371
0.0 0.0 -2.77371
1.24894 -1.63786 -0.8246
-0.0137603 -0.0219894 -2.7559
0.0 0.0 -2.77371
0.479193 1.21147 -0.597706
-2.98874 3.9481 19.0208
0.0 0.0 -2.77371
0.0 0.0 -2.77371
4.91034 2.99845 0.495366
-6.81557 15.5255 22.5126