# vtk DataFile Version 2.0
Generated by lpp.py
ASCII
DATASET POLYDATA
POINTS 176 float
0.215777 0.184201 1.57797
0.432694 0.187128 1.58059
0.571728 0.186728 1.57697
0.145797 0.221923 1.58279
0.369997 0.211897 1.57469
0.684905 0.219003 1.57714
0.74524 0.213292 1.58743
0.203456 0.263255 1.58003
0.269657 0.241848 1.57684
0.497921 0.250902 1.57686
0.586553 0.259229 1.57643
0.348238 0.278952 1.57582
0.444635 0.279628 1.57588
0.685224 0.28471 1.57687
0.779334 0.281812 1.57687
0.507579 0.332714 1.57667
0.591308 0.334569 1.57653
0.138555 0.367814 1.59507
0.208023 0.339841 1.59213
0.303141 0.354719 1.59297
0.40394 0.364857 1.57773
0.266117 0.396709 1.57672
0.348921 0.39419 1.57631
0.575373 0.404692 1.59012
0.636622 0.389305 1.58874
0.169348 0.417827 1.5931
0.416776 0.43109 1.57776
0.802346 0.426601 1.57686
0.123642 0.458725 1.58623
0.251755 0.460421 1.58111
0.489329 0.473136 1.57734
0.631452 0.455344 1.57657
0.694561 0.479471 1.57639
0.224243 0.517447 1.57927
0.419853 0.490935 1.58754
0.828119 0.515516 1.57686
0.0207839 0.519311 1.57579
0.305418 0.51843 1.59179
0.476406 0.532008 1.57739
0.665183 0.541506 1.57893
0.409482 0.57881 1.58778
0.551002 0.576007 1.58506
0.360209 0.159049 1.6039
0.455245 0.138527 1.62733
0.6421 0.160787 1.60276
0.305736 0.1911 1.59366
0.449248 0.21192 1.63694
0.536289 0.21846 1.61532
0.676065 0.239889 1.6334
0.599112 0.295228 1.6214
0.539715 0.304472 1.61849
0.427133 0.336415 1.62545
0.380812 0.397202 1.62654
0.216195 0.441124 1.63645
0.356796 0.447542 1.60127
0.433861 0.423388 1.63356
0.295186 0.467565 1.62486
0.493503 0.456414 1.63299
0.230588 0.500573 1.63645
0.516829 0.51993 1.62278
0.601107 0.55339 1.62165
0.342368 0.254748 1.62794
0.159917 0.286729 1.6288
0.311745 0.351523 1.64842
0.190155 0.381213 1.64248
0.46854 0.376139 1.63845
0.749045 0.438586 1.66497
0.689427 0.478688 1.6355
0.342731 0.510273 1.66493
0.427642 0.507943 1.64212
0.442 0.599633 1.65601
0.111732 0.264285 1.65328
0.245978 0.321941 1.67238
0.429102 0.319328 1.68209
0.137952 0.347562 1.66052
0.376161 0.365461 1.6808
0.17988 0.426348 1.67879
0.28674 0.43063 1.67184
0.647484 0.419934 1.68828
0.505633 0.454923 1.68931
0.10161 0.511094 1.67266
0.190138 0.497729 1.6759
0.401156 0.578073 1.69801
0.218269 0.254539 1.69044
0.43763 0.245516 1.70659
0.230583 0.385363 1.68484
0.497419 0.396938 1.69831
0.108382 0.420889 1.6986
0.427791 0.498375 1.70548
0.486742 0.509906 1.71104
0.377994 0.24098 1.72856
0.236064 0.313172 1.73238
0.368613 0.311971 1.72767
0.486179 0.312628 1.72974
0.438372 0.392123 1.77455
0.353388 0.44487 1.78289
0.307792 0.495572 1.78572
0.290891 0.301706 1.80044
0.181029 0.318367 1.80444
0.41904 0.310566 1.81049
0.278223 0.363632 1.81219
0.155769 0.403018 1.81824
0.419456 0.449551 1.80501
0.218974 0.524143 1.81761
0.254767 0.230824 1.8262
0.495956 0.249499 1.84577
0.240863 0.437556 1.83504
0.178322 0.227864 1.88031
0.408343 0.240904 1.86589
0.355542 0.30862 1.87296
0.216306 0.357237 1.89592
0.499251 0.382901 1.87574
0.161462 0.479607 1.88213
0.476719 0.464357 1.86059
0.105277 0.51875 1.87447
0.423627 0.520356 1.86374
0.117057 0.232547 1.93257
0.150682 0.290471 1.90026
0.118071 0.372478 1.89809
0.429922 0.3736 1.90802
0.367693 0.467546 1.92983
0.33461 0.249494 1.96119
0.258494 0.28056 1.95983
0.46021 0.268154 1.95083
0.294692 0.330306 1.94594
0.414233 0.306803 1.94516
0.209546 0.484752 1.9602
0.313052 0.494322 1.94698
0.446997 0.50849 1.96592
0.387237 0.525686 1.96134
0.199862 0.243713 1.97855
0.375347 0.345395 1.99631
0.169236 0.376906 1.98928
0.320208 0.403691 1.97101
0.261069 0.440732 1.99801
0.491591 0.428372 1.99083
0.113325 0.448918 1.97421
0.254698 0.262308 2.0425
0.417913 0.266516 2.03334
0.121033 0.279919 2.0421
0.47999 0.300848 2.02042
0.103577 0.34242 2.0261
0.230407 0.340128 2.02356
0.287678 0.358468 2.04143
0.227036 0.399722 2.03895
0.380254 0.404128 2.03034
0.448915 0.39365 2.03829
0.441781 0.458388 2.02768
0.131272 0.513706 2.02454
0.365118 0.235733 2.06568
0.187546 0.294736 2.04886
0.378219 0.307765 2.05893
0.360498 0.363939 2.07203
0.10427 0.421706 2.06997
0.200976 0.455034 2.06494
0.317689 0.454971 2.07695
0.491668 0.49724 2.07518
0.208645 0.523817 2.06003
0.35506 0.52072 2.04723
0.136955 0.241756 2.11145
0.29951 0.265646 2.09473
0.478513 0.241448 2.10775
0.200031 0.295208 2.10871
0.352336 0.290052 2.11528
0.26261 0.317421 2.09461
0.121236 0.342722 2.09496
0.234882 0.370686 2.0919
0.43656 0.349215 2.10852
0.288982 0.398489 2.11045
0.41824 0.41741 2.11107
0.250123 0.467148 2.10514
0.124302 0.506318 2.09864
0.302009 0.506095 2.11474
0.387139 0.48601 2.09051
0.18594 0.400862 2.11647
0.485548 0.450278 2.11645
VERTICES 176 352
1 0
1 1
1 2
1 3
1 4
1 5
1 6
1 7
1 8
1 9
1 10
1 11
1 12
1 13
1 14
1 15
1 16
1 17
1 18
1 19
1 20
1 21
1 22
1 23
1 24
1 25
1 26
1 27
1 28
1 29
1 30
1 31
1 32
1 33
1 34
1 35
1 36
1 37
1 38
1 39
1 40
1 41
1 42
1 43
1 44
1 45
1 46
1 47
1 48
1 49
1 50
1 51
1 52
1 53
1 54
1 55
1 56
1 57
1 58
1 59
1 60
1 61
1 62
1 63
1 64
1 65
1 66
1 67
1 68
1 69
1 70
1 71
1 72
1 73
1 74
1 75
1 76
1 77
1 78
1 79
1 80
1 81
1 82
1 83
1 84
1 85
1 86
1 87
1 88
1 89
1 90
1 91
1 92
1 93
1 94
1 95
1 96
1 97
1 98
1 99
1 100
1 101
1 102
1 103
1 104
1 105
1 106
1 107
1 108
1 109
1 110
1 111
1 112
1 113
1 114
1 115
1 116
1 117
1 118
1 119
1 120
1 121
1 122
1 123
1 124
1 125
1 126
1 127
1 128
1 129
1 130
1 131
1 132
1 133
1 134
1 135
1 136
1 137
1 138
1 139
1 140
1 141
1 142
1 143
1 144
1 145
1 146
1 147
1 148
1 149
1 150
1 151
1 152
1 153
1 154
1 155
1 156
1 157
1 158
1 159
1 160
1 161
1 162
1 163
1 164
1 165
1 166
1 167
1 168
1 169
1 170
1 171
1 172
1 173
1 174
1 175
POINT_DATA 176
VECTORS i float
0.0 0.0 0.0
0.0 0.0 0.0
0.0 0.0 0.0
0.0 0.0 0.0
0.0 0.0 0.0
0.0 0.0 0.0
0.0 0.0 0.0
0.0 0.0 0.0
0.0 0.0 0.0
0.0 0.0 0.0
0.0 0.0 0.0
0.0 0.0 0.0
0.0 0.0 0.0
0.0 0.0 0.0
0.0 0.0 0.0
0.0 0.0 0.0
0.0 0.0 0.0
0.0 0.0 0.0
0.0 0.0 0.0
0.0 0.0 0.0
0.0 0.0 0.0
0.0 0.0 0.0
0.0 0.0 0.0
0.0 0.0 0.0
0.0 0.0 0.0
0.0 0.0 0.0
0.0 0.0 0.0
0.0 0.0 0.0
0.0 0.0 0.0
0.0 0.0 0.0
0.0 0.0 0.0
0.0 0.0 0.0
0.0 0.0 0.0
0.0 0.0 0.0
0.0 0.0 0.0
0.0 0.0 0.0
0.0 0.0 0.0
0.0 0.0 0.0
0.0 0.0 0.0
0.0 0.0 0.0
0.0 0.0 0.0
0.0 0.0 0.0
0.0 0.0 0.0
0.0 0.0 0.0
0.0 0.0 0.0
0.0 0.0 0.0
0.0 0.0 0.0
0.0 0.0 0.0
0.0 0.0 0.0
0.0 0.0 0.0
0.0 0.0 0.0
0.0 0.0 0.0
0.0 0.0 0.0
0.0 0.0 0.0
0.0 0.0 0.0
0.0 0.0 0.0
0.0 0.0 0.0
0.0 0.0 0.0
0.0 0.0 0.0
0.0 0.0 0.0
0.0 0.0 0.0
0.0 0.0 0.0
0.0 0.0 0.0
0.0 0.0 0.0
0.0 0.0 0.0
0.0 0.0 0.0
0.0 0.0 0.0
0.0 0.0 0.0
0.0 0.0 0.0
0.0 0.0 0.0
0.0 0.0 0.0
0.0 0.0 0.0
0.0 0.0 0.0
0.0 0.0 0.0
0.0 0.0 0.0
0.0 0.0 0.0
0.0 0.0 0.0
0.0 0.0 0.0
0.0 0.0 0.0
0.0 0.0 0.0
0.0 0.0 0.0
0.0 0.0 0.0
0.0 0.0 0.0
0.0 0.0 0.0
0.0 0.0 0.0
0.0 0.0 0.0
0.0 0.0 0.0
0.0 0.0 0.0
0.0 0.0 0.0
0.0 0.0 0.0
0.0 0.0 0.0
0.0 0.0 0.0
0.0 0.0 0.0
0.0 0.0 0.0
0.0 0.0 0.0
0.0 0.0 0.0
0.0 0.0 0.0
0.0 0.0 0.0
0.0 0.0 0.0
0.0 0.0 0.0
0.0 0.0 0.0
0.0 0.0 0.0
0.0 0.0 0.0
0.0 0.0 0.0
0.0 0.0 0.0
0.0 0.0 0.0
0.0 0.0 0.0
0.0 0.0 0.0
0.0 0.0 0.0
0.0 0.0 0.0
0.0 0.0 0.0
0.0 0.0 0.0
0.0 0.0 0.0
0.0 0.0 0.0
0.0 0.0 0.0
0.0 0.0 0.0
0.0 0.0 0.0
0.0 0.0 0.0
0.0 0.0 0.0
0.0 0.0 0.0
0.0 0.0 0.0
0.0 0.0 0.0
0.0 0.0 0.0
0.0 0.0 0.0
0.0 0.0 0.0
0.0 0.0 0.0
0.0 0.0 0.0
0.0 0.0 0.0
0.0 0.0 0.0
0.0 0.0 0.0
0.0 0.0 0.0
0.0 0.0 0.0
0.0 0.0 0.0
0.0 0.0 0.0
0.0 0.0 0.0
0.0 0.0 0.0
0.0 0.0 0.0
0.0 0.0 0.0
0.0 0.0 0.0
0.0 0.0 0.0
0.0 0.0 0.0
0.0 0.0 0.0
0.0 0.0 0.0
0.0 0.0 0.0
0.0 0.0 0.0
0.0 0.0 0.0
0.0 0.0 0.0
0.0 0.0 0.0
0.0 0.0 0.0
0.0 0.0 0.0
0.0 0.0 0.0
0.0 0.0 0.0
0.0 0.0 0.0
0.0 0.0 0.0
0.0 0.0 0.0
0.0 0.0 0.0
0.0 0.0 0.0
0.0 0.0 0.0
0.0 0.0 0.0
0.0 0.0 0.0
0.0 0.0 0.0
0.0 0.0 0.0
0.0 0.0 0.0
0.0 0.0 0.0
0.0 0.0 0.0
0.0 0.0 0.0
0.0 0.0 0.0
0.0 0.0 0.0
0.0 0.0 0.0
0.0 0.0 0.0
0.0 0.0 0.0
0.0 0.0 0.0
0.0 0.0 0.0
0.0 0.0 0.0
0.0 0.0 0.0
0.0 0.0 0.0
VECTORS f float
4.62307 6.31658 4.02058
0.0 0.0 -2.77371
-0.0876785 0.0295334 -2.23309
0.0 0.0 -2.77371
34.7745 8.77534 68.9556
0.0 0.0 -2.77371
0.0 0.0 -2.77371
0.0 0.0 -2.77371
0.198066 0.0254005 -2.37434
0.000323911 1.36784e-05 0.00450668
9.8793 -0.653201 0.0859583
20.8603 -6.23036 12.7294
-12.9242 -0.222234 -14.2087
0.017781 -0.00287482 -0.312031
-0.00321446 -0.00052992 -0.101999
0.970078 -0.779748 -4.58379
3.53192 -0.962275 4.5476
-22.7533 -34.0148 -21.4729
0.0 0.0 -2.77371
-0.228635 -8.89725 -59.5722
0.0 0.0 -2.77371
-26.2691 28.7603 -34.1819
3.73651 -7.64763 16.2738
0.0 0.0 -2.77371
0.0 0.0 -2.77371
22.7533 34.0148 15.9255
-4.98644 4.05547 -16.2081
-0.0122122 0.00118712 -0.155017
0.0 0.0 -2.77371
0.0 0.0 -2.77371
-7.28195 11.1597 -52.6643
1.48101 0.523169 -5.91511
7.56715 0.1112 9.17893
35.0613 2.46958 -24.6839
0.497399 -16.3355 -99.03
-0.00102808 4.29613e-05 -0.00987321
4.50722 0.182847 6.24815
0.0 0.0 -2.77371
0.0 0.0 -2.77371
0.0 0.0 -2.77371
0.137692 -2.56233 4.90585
-0.0494 -1.28422 -1.43024
-0.0102627 0.889811 -1.07804
0.0 0.0 -2.77371
0.0 0.0 -2.77371
0.0 0.0 -2.77371
0.0 0.0 -2.77371
0.0 0.0 -2.77371
0.0 0.0 -2.77371
-3.84914 8.72934 15.8436
-2.9242 1.76446 -3.96195
6.65727 -0.386429 -10.6697
4.61778 6.38666 7.09479
35.8947 33.2177 -102.924
-0.543276 10.9352 -2.66118
-1.701 13.0669 6.78154
0.0 0.0 -2.77371
3.31557 -12.7111 15.1746
23.0278 -2.85388 -10.8383
0.0 0.0 -2.77371
0.0 0.0 -2.77371
0.0104358 -17.2773 44.5943
22.6282 10.5925 -15.0893
29.1815 -23.1793 93.9653
0.195759 14.9814 22.5837
3.57272 -12.4122 3.87645
0.0 0.0 -2.77371
-4.668 -0.158598 4.83444
0.0 0.0 -2.77371
-0.497399 16.3355 93.4826
0.0 0.0 -2.77371
-22.6282 -10.5925 9.54183
0.0 0.0 -2.77371
-1.00639 -4.10957 1.94761
0.0 0.0 -2.77371
0.0 0.0 -2.77371
-37.0098 -39.328 86.4823
0.0 0.0 -2.77371
0.0 0.0 -2.77371
3.90383 1.33604 29.1018
0.0 0.0 -2.77371
-58.0891 0.384301 27.2011
0.0 0.0 -2.77371
0.0 0.0 -2.77371
0.0 0.0 -2.77371
0.919361 -8.87121 -17.2364
0.0625479 0.215423 -2.70691
0.0 0.0 -2.77371
0.0 0.0 -2.77371
0.0 0.0 -2.77371
0.0 0.0 -2.77371
0.0 0.0 -2.77371
0.0 0.0 -2.77371
0.0 0.0 -2.77371
0.0 0.0 -2.77371
0.0 0.0 -2.77371
0.0 0.0 -2.77371
0.0 0.0 -2.77371
0.0 0.0 -2.77371
0.0 0.0 -2.77371
0.0 0.0 -2.77371
0.0 0.0 -2.77371
0.0 0.0 -2.77371
0.0 0.0 -2.77371
0.0 0.0 -2.77371
0.0 0.0 -2.77371
0.0 0.0 -2.77371
0.0 0.0 -2.77371
0.0 0.0 -2.77371
0.0 0.0 -2.77371
0.0 0.0 -2.77371
0.0 0.0 -2.77371
0.0 0.0 -2.77371
0.0 0.0 -2.77371
0.0 0.0 -2.77371
0.0 0.0 -2.77371
0.0 0.0 -2.77371
0.0 0.0 -2.77371
0.0 0.0 -2.77371
0.0 0.0 -2.77371
0.0 0.0 -2.77371
0.0 0.0 -2.77371
0.0 0.0 -2.77371
0.0 0.0 -2.77371
0.0 0.0 -2.77371
0.0 0.0 -2.77371
0.0 0.0 -2.77371
0.0 0.0 -2.77371
0.0 0.0 -2.77371
0.0 0.0 -2.77371
0.0 0.0 -2.77371
0.0 0.0 -2.77371
0.0 0.0 -2.77371
0.0 0.0 -2.77371
0.0 0.0 -2.77371
0.0 0.0 -2.77371
0.0 0.0 -2.77371
0.0 0.0 -2.77371
0.0 0.0 -2.77371
0.0 0.0 -2.77371
0.0 0.0 -2.77371
0.0 0.0 -2.77371
0.0 0.0 -2.77371
0.0 0.0 -2.77371
0.0 0.0 -2.77371
0.0 0.0 -2.77371
0.0 0.0 -2.77371
0.0 0.0 -2.77371
0.0 0.0 -2.77371
0.0 0.0 0.0
0.0 0.0 0.0
0.0 0.0 0.0
0.0 0.0 0.0
0.0 0.0 0.0
0.0 0.0 0.0
0.0 0.0 0.0
0.0 0.0 0.0
0.0 0.0 0.0
0.0 0.0 0.0
0.0 0.0 0.0
0.0 0.0 0.0
0.0 0.0 0.0
0.0 0.0 0.0
0.0 0.0 0.0
0.0 0.0 0.0
0.0 0.0 0.0
0.0 0.0 0.0
0.0 0.0 0.0
0.0 0.0 0.0
0.0 0.0 0.0
0.0 0.0 0.0
0.0 0.0 0.0
0.0 0.0 0.0
0.0 0.0 0.0
0.0 0.0 0.0
0.0 0.0 0.0
VECTORS omega float
12.2382 -110.426 14.2363
-4.79407 -82.415 31.0341
-0.899842 -67.4185 35.6998
9.19029 -108.768 1.97972
19.5918 -45.1737 -6.43798
14.6289 -64.07 -16.728
7.50631 -87.184 -1.17518
-0.655839 -96.7637 -1.45034
-17.3318 -36.542 9.83247
4.28769 -88.4062 2.8083
9.31588 -68.2161 -15.1465
8.48201 -76.0783 2.10083
1.1831 -74.8727 -17.4473
8.20366 -53.2239 10.1393
11.3569 -68.8899 15.7782
-7.67997 -71.6264 15.8684
3.70908 -45.192 -12.8858
-17.1515 -91.6351 11.3109
9.54566 -91.7733 -15.5461
-7.01495 -23.1474 16.1069
-1.46965 -83.5442 -4.58633
24.2152 -71.608 10.8195
-45.9139 -40.7647 -4.16154
3.59332 -67.4754 -1.0062
-3.0089 -61.1344 -3.69294
-30.5853 -36.4254 6.21168
-4.76772 -54.193 -10.6614
-4.91969 -50.7294 2.52464
0.0 -95.0107 0.0
-2.35501 -94.17 28.9364
1.89478 -81.8849 -2.60545
-41.8983 18.1578 8.83672
-7.96583 -68.0485 1.86559
-9.91448 -88.7928 3.65151
-6.15822 -66.7708 4.45015
-1.81728 -43.4921 1.90422
-6.11944 -68.5296 -2.54792
-2.94295 -83.8816 5.01132
-1.65107 -73.7706 12.0812
-15.5938 -60.3904 -14.7917
-9.02795 -95.3533 -14.482
-1.74623 -84.7221 -22.9466
8.69611 -97.9477 19.1591
12.6731 -5.24697 64.797
8.83868 -84.2112 1.69744
8.39335 22.7824 8.09544
7.00237 59.8005 -31.1803
-4.74047 40.162 -2.41869
8.95253 -50.9918 -2.42304
2.16052 -1.1883 -0.303039
30.5999 27.8311 -31.1711
21.3943 64.4954 24.7015
-4.57431 4.72228 -23.1477
13.1917 -3.94018 -15.8636
-2.41687 -11.138 1.76171
15.6918 -0.0928315 5.71467
9.02582 34.3513 -36.2078
19.4837 40.5061 31.2584
21.2442 -13.4069 -6.26886
-6.59709 -58.3269 -12.9142
-8.73866 86.2353 17.7017
-6.61343 13.1454 33.7891
15.1994 -27.8217 -6.67392
35.0619 7.00989 -13.8224
-9.73559 -2.41032 -1.71656
13.7458 -26.3083 0.0830941
5.11574 -46.1421 -14.4888
16.9601 -51.6566 7.70952
10.0043 69.7994 3.39946
-9.64545 32.7704 -3.99368
-27.7984 40.0863 14.5704
3.72178 -13.1928 -4.52551
52.1336 10.5826 -7.08303
-23.4428 -75.7011 11.5183
37.4909 -49.9441 7.32629
28.9206 -12.7364 -2.79932
-16.686 -27.4121 0.450067
23.2755 22.4398 -44.7643
-9.19163 -33.8691 1.4826
-12.8266 -37.3266 0.782052
0.0 0.0 0.0
-4.41471 -59.7564 -7.20203
-37.5588 -64.8153 28.7954
0.0 0.0 0.0
0.0 0.0 0.0
2.73714 20.2762 -4.03977
37.9636 -4.88197 -7.49883
0.0 0.0 0.0
10.6857 -36.9051 -4.5029
0.0 0.0 0.0
0.0 0.0 0.0
-23.5956 -19.7879 -3.22434
0.0 0.0 0.0
0.0 0.0 0.0
0.0 0.0 0.0
0.0 0.0 0.0
0.0 0.0 0.0
0.0 0.0 0.0
0.0 0.0 0.0
0.0 0.0 0.0
0.0 0.0 0.0
0.0 0.0 0.0
0.0 0.0 0.0
0.0 0.0 0.0
0.0 0.0 0.0
0.0 0.0 0.0
0.0 0.0 0.0
0.0 0.0 0.0
0.0 0.0 0.0
0.0 0.0 0.0
0.0 0.0 0.0
0.0 0.0 0.0
0.0 0.0 0.0
0.0 0.0 0.0
0.0 0.0 0.0
0.0 0.0 0.0
0.0 0.0 0.0
0.0 0.0 0.0
0.0 0.0 0.0
0.0 0.0 0.0
0.0 0.0 0.0
0.0 0.0 0.0
0.0 0.0 0.0
0.0 0.0 0.0
0.0 0.0 0.0
0.0 0.0 0.0
0.0 0.0 0.0
0.0 0.0 0.0
0.0 0.0 0.0
0.0 0.0 0.0
0.0 0.0 0.0
0.0 0.0 0.0
0.0 0.0 0.0
0.0 0.0 0.0
0.0 0.0 0.0
0.0 0.0 0.0
0.0 0.0 0.0
0.0 0.0 0.0
0.0 0.0 0.0
0.0 0.0 0.0
0.0 0.0 0.0
0.0 0.0 0.0
0.0 0.0 0.0
0.0 0.0 0.0
0.0 0.0 0.0
0.0 0.0 0.0
0.0 0.0 0.0
0.0 0.0 0.0
0.0 0.0 0.0
0.0 0.0 0.0
0.0 0.0 0.0
0.0 0.0 0.0
0.0 0.0 0.0
0.0 0.0 0.0
0.0 0.0 0.0
0.0 0.0 0.0
0.0 0.0 0.0
0.0 0.0 0.0
0.0 0.0 0.0
0.0 0.0 0.0
0.0 0.0 0.0
0.0 0.0 0.0
0.0 0.0 0.0
0.0 0.0 0.0
0.0 0.0 0.0
0.0 0.0 0.0
0.0 0.0 0.0
0.0 0.0 0.0
0.0 0.0 0.0
0.0 0.0 0.0
0.0 0.0 0.0
0.0 0.0 0.0
0.0 0.0 0.0
0.0 0.0 0.0
0.0 0.0 0.0
0.0 0.0 0.0
VECTORS v float
1.12114 -0.175369 0.300825
1.64293 0.444643 0.20153
1.98188 0.0259938 0.0168964
0.784315 -0.270782 0.72941
1.61175 -0.838684 0.179038
2.08094 -0.438837 0.0709736
1.34063 -0.122853 -0.852179
1.12042 0.0201272 0.374491
1.08707 0.284082 0.0581431
1.35865 -0.128105 -5.44105e-05
1.94536 -0.325921 -0.149665
1.65931 -0.0120571 -0.427596
1.96533 -0.0319226 0.627548
2.40853 -0.245128 0.00422063
1.94151 -0.339353 0.000624123
1.89663 0.213802 0.181884
2.53867 -0.0776253 0.0487612
0.931835 -0.0523516 0.462864
1.29627 -0.2548 0.546565
1.30845 -0.0494103 -1.18177
1.45215 0.141582 0.0565442
1.35395 -0.0983531 -0.0596812
1.5184 0.156216 -0.204685
1.79681 -0.0384582 0.110246
1.97047 0.148686 -0.140771
0.213013 -0.168049 -0.402347
2.21469 0.161985 -0.222519
2.48439 0.146982 0.00362841
1.19591 0.0 0.829986
1.2451 0.0726143 0.232175
1.57107 0.294565 -0.225347
2.2866 0.449682 0.218671
2.00103 0.236514 -0.0929789
1.36516 0.254214 0.27119
2.04979 0.148311 -0.206052
2.70058 0.0542953 0.000358287
-0.224655 0.0896085 0.370796
1.57253 0.0797756 0.686406
1.78925 0.0504375 0.0228661
2.19549 0.463199 0.161296
1.67555 0.201326 0.124478
1.72881 0.0213743 0.0658618
1.52366 -0.182029 0.184923
1.84199 -0.0979599 0.397728
2.20307 -0.125599 0.167983
0.854778 -1.2721 -1.34695
1.16997 0.657792 0.8764
0.807816 -0.254109 -0.429206
0.889234 -0.20798 0.076329
1.36274 -0.435859 0.0491004
1.55533 -0.732211 0.0605902
0.625725 -0.601315 -0.0398899
0.464817 0.128343 0.173713
0.0781433 -0.112345 -0.188061
1.18488 0.406447 -0.82604
0.67394 -0.178256 0.331222
0.776911 1.00187 0.297063
0.647521 0.109677 -0.550611
0.82879 0.0371328 -0.812897
1.41752 0.313696 0.811983
1.77223 0.0960884 0.142838
0.0246996 -0.160423 -0.585893
0.280839 -0.154959 -1.68903
0.659538 -0.423437 -0.752142
-0.0253702 -0.106315 -2.00649
0.9072 -0.104157 -0.112543
1.39052 0.105394 0.170973
0.883766 -0.021241 -0.173531
1.69768 -0.0216894 1.94786
0.947031 0.320775 -0.982597
0.663295 1.04463 0.307754
-0.226058 -0.175483 -2.6328
0.418493 0.501665 -1.43987
0.695594 -0.34788 0.208823
-0.532525 -0.209758 -1.697
0.230771 -0.506667 0.122209
-0.148094 0.530997 -1.54301
0.654171 0.279044 0.35604
2.12519 -0.562156 -0.181207
0.902363 -0.0899471 -0.026668
0.0 0.0 -2.88906
-0.588399 -0.17453 -1.16876
0.690883 1.24682 0.690165
0.0 0.0 -2.82804
0.0 0.0 -2.77144
0.780972 0.149147 -1.63557
0.0512984 -0.603099 -2.1325
0.0 0.0 -2.7996
0.607192 -0.149602 -0.29553
0.0 0.0 -2.75565
0.0 0.0 -2.69257
-0.0400379 -0.391965 -0.558514
0.0 0.0 -2.69581
0.0 0.0 -2.68825
0.0 0.0 -2.51942
0.0 0.0 -2.48675
0.0 0.0 -2.47557
0.0 0.0 -2.41651
0.0 0.0 -2.40023
0.0 0.0 -2.37541
0.0 0.0 -2.36835
0.0 0.0 -2.34314
0.0 0.0 -2.39788
0.0 0.0 -2.34578
0.0 0.0 -2.30959
0.0 0.0 -2.22493
0.0 0.0 -2.27172
0.0 0.0 -2.06698
0.0 0.0 -2.13438
0.0 0.0 -2.10161
0.0 0.0 -1.99155
0.0 0.0 -2.08857
0.0 0.0 -2.05835
0.0 0.0 -2.15861
0.0 0.0 -2.09455
0.0 0.0 -2.14419
0.0 0.0 -1.80202
0.0 0.0 -1.97006
0.0 0.0 -1.98085
0.0 0.0 -1.93102
0.0 0.0 -1.81683
0.0 0.0 -1.63878
0.0 0.0 -1.64692
0.0 0.0 -1.6997
0.0 0.0 -1.72766
0.0 0.0 -1.73207
0.0 0.0 -1.64476
0.0 0.0 -1.72177
0.0 0.0 -1.61023
0.0 0.0 -1.6379
0.0 0.0 -1.53136
0.0 0.0 -1.41305
0.0 0.0 -1.46102
0.0 0.0 -1.57894
0.0 0.0 -1.40118
0.0 0.0 -1.45062
0.0 0.0 -1.55892
0.0 0.0 -1.04419
0.0 0.0 -1.12699
0.0 0.0 -1.04792
0.0 0.0 -1.23431
0.0 0.0 -1.1883
0.0 0.0 -1.2091
0.0 0.0 -1.0543
0.0 0.0 -1.07706
0.0 0.0 -1.15279
0.0 0.0 -1.08304
0.0 0.0 -1.17526
0.0 0.0 -1.20115
-0 -0 -1.0
-0 -0 -1.0
-0 -0 -1.0
-0 -0 -1.0
-0 -0 -1.0
-0 -0 -1.0
-0 -0 -1.0
-0 -0 -1.0
-0 -0 -1.0
-0 -0 -1.0
-0 -0 -1.0
-0 -0 -1.0
-0 -0 -1.0
-0 -0 -1.0
-0 -0 -1.0
-0 -0 -1.0
-0 -0 -1.0
-0 -0 -1.0
-0 -0 -1.0
-0 -0 -1.0
-0 -0 -1.0
-0 -0 -1.0
-0 -0 -1.0
-0 -0 -1.0
-0 -0 -1.0
-0 -0 -1.0
-0 -0 -1.0
SCALARS radius float 1
LOOKUP_TABLE default
0.03
0.03
0.03
0.03
0.03
0.03
0.03
0.03
0.03
0.03
0.03
0.03
0.03
0.03
0.03
0.03
0.03
0.03
0.03
0.03
0.03
0.03
0.03
0.03
0.03
0.03
0.03
0.03
0.03
0.03
0.03
0.03
0.03
0.03
0.03
0.03
0.03
0.03
0.03
0.03
0.03
0.03
0.03
0.03
0.03
0.03
0.03
0.03
0.03
0.03
0.03
0.03
0.03
0.03
0.03
0.03
0.03
0.03
0.03
0.03
0.03
0.03
0.03
0.03
0.03
0.03
0.03
0.03
0.03
0.03
0.03
0.03
0.03
0.03
0.03
0.03
0.03
0.03
0.03
0.03
0.03
0.03
0.03
0.03
0.03
0.03
0.03
0.03
0.03
0.03
0.03
0.03
0.03
0.03
0.03
0.03
0.03
0.03
0.03
0.03
0.03
0.03
0.03
0.03
0.03
0.03
0.03
0.03
0.03
0.03
0.03
0.03
0.03
0.03
0.03
0.03
0.03
0.03
0.03
0.03
0.03
0.03
0.03
0.03
0.03
0.03
0.03
0.03
0.03
0.03
0.03
0.03
0.03
0.03
0.03
0.03
0.03
0.03
0.03
0.03
0.03
0.03
0.03
0.03
0.03
0.03
0.03
0.03
0.03
0.03
0.03
0.03
0.03
0.03
0.03
0.03
0.03
0.03
0.03
0.03
0.03
0.03
0.03
0.03
0.03
0.03
0.03
0.03
0.03
0.03
0.03
0.03
0.03
0.03
0.03
0.03
SCALARS type float 1
LOOKUP_TABLE default
1.0
1.0
1.0
1.0
1.0
1.0
1.0
1.0
1.0
1.0
1.0
1.0
1.0
1.0
1.0
1.0
1.0
1.0
1.0
1.0
1.0
1.0
1.0
1.0
1.0
1.0
1.0
1.0
1.0
1.0
1.0
1.0
1.0
1.0
1.0
1.0
1.0
1.0
1.0
1.0
1.0
1.0
1.0
1.0
1.0
1.0
1.0
1.0
1.0
1.0
1.0
1.0
1.0
1.0
1.0
1.0
1.0
1.0
1.0
1.0
1.0
1.0
1.0
1.0
1.0
1.0
1.0
1.0
1.0
1.0
1.0
1.0
1.0
1.0
1.0
1.0
1.0
1.0
1.0
1.0
1.0
1.0
1.0
1.0
1.0
1.0
1.0
1.0
1.0
1.0
1.0
1.0
1.0
1.0
1.0
1.0
1.0
1.0
1.0
1.0
1.0
1.0
1.0
1.0
1.0
1.0
1.0
1.0
1.0
1.0
1.0
1.0
1.0
1.0
1.0
1.0
1.0
1.0
1.0
1.0
1.0
1.0
1.0
1.0
1.0
1.0
1.0
1.0
1.0
1.0
1.0
1.0
1.0
1.0
1.0
1.0
1.0
1.0
1.0
1.0
1.0
1.0
1.0
1.0
1.0
1.0
1.0
1.0
1.0
1.0
1.0
1.0
1.0
1.0
1.0
1.0
1.0
1.0
1.0
1.0
1.0
1.0
1.0
1.0
1.0
1.0
1.0
1.0
1.0
1.0
1.0
1.0
1.0
1.0
1.0
1.0
SCALARS id float 1
LOOKUP_TABLE default
128.0
123.0
137.0
148.0
81.0
105.0
100.0
15.0
146.0
49.0
129.0
79.0
127.0
145.0
92.0
29.0
104.0
31.0
5.0
99.0
76.0
71.0
149.0
144.0
112.0
80.0
41.0
138.0
118.0
61.0
21.0
24.0
16.0
51.0
166.0
18.0
17.0
97.0
85.0
151.0
66.0
167.0
108.0
171.0
94.0
73.0
32.0
1.0
42.0
45.0
19.0
47.0
133.0
83.0
4.0
44.0
12.0
131.0
164.0
98.0
53.0
64.0
116.0
23.0
57.0
93.0
82.0
152.0
107.0
2.0
174.0
60.0
72.0
55.0
70.0
26.0
28.0
91.0
130.0
68.0
77.0
75.0
125.0
46.0
10.0
157.0
173.0
176.0
67.0
110.0
140.0
102.0
155.0
136.0
63.0
30.0
52.0
135.0
156.0
35.0
25.0
165.0
163.0
143.0
22.0
120.0
101.0
86.0
40.0
8.0
78.0
113.0
33.0
134.0
162.0
159.0
139.0
13.0
58.0
109.0
87.0
69.0
117.0
43.0
121.0
153.0
115.0
37.0
119.0
168.0
158.0
27.0
38.0
147.0
90.0
170.0
150.0
114.0
7.0
14.0
48.0
3.0
50.0
54.0
95.0
103.0
65.0
11.0
111.0
141.0
62.0
169.0
59.0
74.0
56.0
6.0
96.0
154.0
161.0
132.0
126.0
89.0
124.0
106.0
36.0
142.0
175.0
122.0
172.0
34.0
9.0
84.0
160.0
39.0
20.0
88.0
SCALARS Temp float 1
LOOKUP_TABLE default
311.198
324.059
321.189
303.856
302.024
323.892
303.947
303.558
305.739
326.607
325.236
314.482
303.241
310.803
316.962
324.942
311.648
303.912
306.766
315.979
317.671
307.398
312.505
309.982
318.347
303.923
323.736
314.062
303.946
314.238
322.937
303.02
311.143
314.987
321.304
319.48
302.475
306.648
324.998
303.374
322.731
321.513
315.904
303.478
309.764
300.016
300.274
300.328
304.116
300.294
300.329
300.326
300.752
300.148
300.323
300.283
300.387
300.858
300.174
317.67
304.139
300.05
300.001
300.063
300.072
300.098
303.961
303.994
300.048
300.641
300.259
300.0
300.223
300.003
300.0
300.008
300.001
300.278
300.005
300.008
300.0
300.001
300.009
300.0
300.0
300.0
300.0
300.0
300.005
300.0
300.0
300.002
300.0
300.0
300.0
300.0
300.0
300.0
300.0
300.0
300.0
300.0
300.0
300.0
300.0
300.0
300.0
300.0
300.0
300.0
300.0
300.0
300.0
300.0
300.0
300.0
300.0
300.0
300.0
300.0
300.0
300.0
300.0
300.0
300.0
300.0
300.0
300.0
300.0
300.0
300.0
300.0
300.0
300.0
300.0
300.0
300.0
300.0
300.0
300.0
300.0
300.0
300.0
300.0
300.0
300.0
300.0
300.0
300.0
300.0
300.0
300.0
300.0
300.0
300.0
300.0
300.0
300.0
300.0
300.0
300.0
300.0
300.0
300.0
300.0
300.0
300.0
300.0
300.0
300.0
300.0
300.0
300.0
300.0
300.0
300.0

