# vtk DataFile Version 2.0
Generated by lpp.py
ASCII
DATASET POLYDATA
POINTS 176 float
0.486268 0.228152 2.07169
0.187145 0.244862 2.07962
0.374238 0.280425 2.07789
0.306865 0.311483 2.07322
0.126566 0.357164 2.07006
0.147416 0.416779 2.08001
0.238461 0.415411 2.07195
0.494733 0.429958 2.07437
0.207787 0.513597 2.07943
0.46939 0.484878 2.07705
0.261488 0.255288 2.08993
0.109253 0.280954 2.08137
0.460616 0.284913 2.08853
0.378919 0.367173 2.08921
0.4417 0.342212 2.10046
0.293244 0.409688 2.10438
0.414339 0.44413 2.08646
0.202452 0.459991 2.10729
0.292463 0.465497 2.08221
0.14636 0.503077 2.08126
0.298512 0.526526 2.11478
0.358392 0.516981 2.11247
0.315693 0.229965 2.1262
0.407624 0.228484 2.13154
0.184928 0.234672 2.14991
0.389576 0.300711 2.13478
0.110316 0.328441 2.1292
0.221691 0.336081 2.11557
0.326726 0.362322 2.12404
0.217643 0.395379 2.13658
0.48133 0.381744 2.12328
0.246175 0.495534 2.14841
0.427577 0.512648 2.12387
0.17066 0.517967 2.14938
0.119354 0.228593 2.16813
0.250314 0.231914 2.17816
0.354173 0.228377 2.17498
0.44893 0.24186 2.18109
0.295884 0.285163 2.1521
0.160428 0.3182 2.1624
0.443269 0.320522 2.15645
0.27192 0.349064 2.17096
0.379347 0.368828 2.17311
0.242338 0.433913 2.17993
0.320995 0.419007 2.17213
0.44361 0.420007 2.16308
0.383972 0.46156 2.15041
0.486907 0.489071 2.16353
0.337972 0.524085 2.16865
0.219922 0.334748 2.20575
0.334819 0.324289 2.20872
0.485944 0.343638 2.20162
0.173434 0.391321 2.19505
0.111154 0.43018 2.19077
0.174746 0.456274 2.18828
0.457584 0.468554 2.21272
0.119943 0.514428 2.19641
0.405158 0.517371 2.19431
0.137853 0.229319 2.2548
0.188775 0.261917 2.22006
0.403959 0.242371 2.24551
0.244548 0.285112 2.23535
0.154593 0.314223 2.23274
0.388697 0.32831 2.23485
0.10471 0.363257 2.24048
0.185895 0.369748 2.2528
0.478047 0.398941 2.23736
0.400035 0.441344 2.24015
0.100655 0.458725 2.25438
0.283869 0.446206 2.23976
0.226898 0.506806 2.25243
0.309578 0.507986 2.24021
0.329189 0.252757 2.26878
0.298609 0.364728 2.28837
0.368876 0.379155 2.2811
0.218563 0.442358 2.26136
0.47867 0.463 2.27918
0.369388 0.526215 2.25895
0.112056 0.26459 2.2977
0.218269 0.254539 2.31076
0.377994 0.24098 2.32458
0.43763 0.245516 2.31653
0.235855 0.316318 2.3205
0.368613 0.311971 2.32424
0.486179 0.312628 2.32501
0.144122 0.349922 2.29517
0.228049 0.384522 2.30702
0.497086 0.400324 2.31199
0.108382 0.420889 2.31366
0.179788 0.4242 2.30532
0.10161 0.511094 2.30454
0.190793 0.498184 2.30432
0.421483 0.499457 2.30798
0.486742 0.509906 2.31814
0.290891 0.301706 2.35271
0.181029 0.318367 2.35437
0.41904 0.310566 2.35691
0.278223 0.363632 2.35762
0.438372 0.392123 2.34222
0.353388 0.44487 2.34555
0.419456 0.449551 2.35461
0.307792 0.495572 2.34669
0.218974 0.524143 2.35992
0.178322 0.227864 2.38834
0.254767 0.230824 2.36361
0.408343 0.240904 2.38147
0.495956 0.249499 2.37224
0.355542 0.30862 2.38481
0.155769 0.403018 2.36019
0.499251 0.382901 2.38614
0.240863 0.437556 2.36747
0.161462 0.479607 2.38922
0.476719 0.464357 2.379
0.105277 0.51875 2.38553
0.423627 0.520356 2.38047
0.117057 0.232547 2.41535
0.150682 0.290471 2.39822
0.46021 0.268154 2.42579
0.294692 0.330306 2.42293
0.414233 0.306803 2.42248
0.118071 0.372478 2.39713
0.216306 0.357237 2.39603
0.429922 0.3736 2.4022
0.367693 0.467546 2.41384
0.313052 0.494322 2.42354
0.199862 0.243713 2.44294
0.33461 0.249494 2.43199
0.258494 0.28056 2.43116
0.375347 0.345395 2.455
0.169236 0.376906 2.45011
0.320208 0.403691 2.43809
0.261069 0.440732 2.45621
0.491591 0.428372 2.45117
0.113325 0.448918 2.44014
0.209546 0.484752 2.43139
0.446997 0.50849 2.4349
0.387237 0.525686 2.43208
0.254698 0.262308 2.4926
0.417913 0.266516 2.48416
0.121033 0.279919 2.49222
0.187546 0.294736 2.49886
0.47999 0.300848 2.47322
0.103577 0.34242 2.47791
0.230407 0.340128 2.47579
0.287678 0.358468 2.49158
0.227036 0.399722 2.48926
0.380254 0.404128 2.48153
0.448915 0.39365 2.48864
0.441781 0.458388 2.47924
0.131272 0.513706 2.47661
0.35506 0.52072 2.49723
0.365118 0.235733 2.51568
0.378219 0.307765 2.50893
0.360498 0.363939 2.52203
0.10427 0.421706 2.51997
0.200976 0.455034 2.51494
0.317689 0.454971 2.52695
0.491668 0.49724 2.52518
0.208645 0.523817 2.51003
0.136955 0.241756 2.56145
0.29951 0.265646 2.54473
0.478513 0.241448 2.55775
0.200031 0.295208 2.55871
0.352336 0.290052 2.56528
0.26261 0.317421 2.54461
0.121236 0.342722 2.54496
0.234882 0.370686 2.5419
0.43656 0.349215 2.55852
0.18594 0.400862 2.56647
0.288982 0.398489 2.56045
0.41824 0.41741 2.56107
0.250123 0.467148 2.55514
0.485548 0.450278 2.56645
0.124302 0.506318 2.54864
0.302009 0.506095 2.56474
0.387139 0.48601 2.54051
VERTICES 176 352
1 0
1 1
1 2
1 3
1 4
1 5
1 6
1 7
1 8
1 9
1 10
1 11
1 12
1 13
1 14
1 15
1 16
1 17
1 18
1 19
1 20
1 21
1 22
1 23
1 24
1 25
1 26
1 27
1 28
1 29
1 30
1 31
1 32
1 33
1 34
1 35
1 36
1 37
1 38
1 39
1 40
1 41
1 42
1 43
1 44
1 45
1 46
1 47
1 48
1 49
1 50
1 51
1 52
1 53
1 54
1 55
1 56
1 57
1 58
1 59
1 60
1 61
1 62
1 63
1 64
1 65
1 66
1 67
1 68
1 69
1 70
1 71
1 72
1 73
1 74
1 75
1 76
1 77
1 78
1 79
1 80
1 81
1 82
1 83
1 84
1 85
1 86
1 87
1 88
1 89
1 90
1 91
1 92
1 93
1 94
1 95
1 96
1 97
1 98
1 99
1 100
1 101
1 102
1 103
1 104
1 105
1 106
1 107
1 108
1 109
1 110
1 111
1 112
1 113
1 114
1 115
1 116
1 117
1 118
1 119
1 120
1 121
1 122
1 123
1 124
1 125
1 126
1 127
1 128
1 129
1 130
1 131
1 132
1 133
1 134
1 135
1 136
1 137
1 138
1 139
1 140
1 141
1 142
1 143
1 144
1 145
1 146
1 147
1 148
1 149
1 150
1 151
1 152
1 153
1 154
1 155
1 156
1 157
1 158
1 159
1 160
1 161
1 162
1 163
1 164
1 165
1 166
1 167
1 168
1 169
1 170
1 171
1 172
1 173
1 174
1 175
POINT_DATA 176
VECTORS i float
0.0 0.0 0.0
0.0 0.0 0.0
0.0 0.0 0.0
0.0 0.0 0.0
0.0 0.0 0.0
0.0 0.0 0.0
0.0 0.0 0.0
0.0 0.0 0.0
0.0 0.0 0.0
0.0 0.0 0.0
0.0 0.0 0.0
0.0 0.0 0.0
0.0 0.0 0.0
0.0 0.0 0.0
0.0 0.0 0.0
0.0 0.0 0.0
0.0 0.0 0.0
0.0 0.0 0.0
0.0 0.0 0.0
0.0 0.0 0.0
0.0 0.0 0.0
0.0 0.0 0.0
0.0 0.0 0.0
0.0 0.0 0.0
0.0 0.0 0.0
0.0 0.0 0.0
0.0 0.0 0.0
0.0 0.0 0.0
0.0 0.0 0.0
0.0 0.0 0.0
0.0 0.0 0.0
0.0 0.0 0.0
0.0 0.0 0.0
0.0 0.0 0.0
0.0 0.0 0.0
0.0 0.0 0.0
0.0 0.0 0.0
0.0 0.0 0.0
0.0 0.0 0.0
0.0 0.0 0.0
0.0 0.0 0.0
0.0 0.0 0.0
0.0 0.0 0.0
0.0 0.0 0.0
0.0 0.0 0.0
0.0 0.0 0.0
0.0 0.0 0.0
0.0 0.0 0.0
0.0 0.0 0.0
0.0 0.0 0.0
0.0 0.0 0.0
0.0 0.0 0.0
0.0 0.0 0.0
0.0 0.0 0.0
0.0 0.0 0.0
0.0 0.0 0.0
0.0 0.0 0.0
0.0 0.0 0.0
0.0 0.0 0.0
0.0 0.0 0.0
0.0 0.0 0.0
0.0 0.0 0.0
0.0 0.0 0.0
0.0 0.0 0.0
0.0 0.0 0.0
0.0 0.0 0.0
0.0 0.0 0.0
0.0 0.0 0.0
0.0 0.0 0.0
0.0 0.0 0.0
0.0 0.0 0.0
0.0 0.0 0.0
0.0 0.0 0.0
0.0 0.0 0.0
0.0 0.0 0.0
0.0 0.0 0.0
0.0 0.0 0.0
0.0 0.0 0.0
0.0 0.0 0.0
0.0 0.0 0.0
0.0 0.0 0.0
0.0 0.0 0.0
0.0 0.0 0.0
0.0 0.0 0.0
0.0 0.0 0.0
0.0 0.0 0.0
0.0 0.0 0.0
0.0 0.0 0.0
0.0 0.0 0.0
0.0 0.0 0.0
0.0 0.0 0.0
0.0 0.0 0.0
0.0 0.0 0.0
0.0 0.0 0.0
0.0 0.0 0.0
0.0 0.0 0.0
0.0 0.0 0.0
0.0 0.0 0.0
0.0 0.0 0.0
0.0 0.0 0.0
0.0 0.0 0.0
0.0 0.0 0.0
0.0 0.0 0.0
0.0 0.0 0.0
0.0 0.0 0.0
0.0 0.0 0.0
0.0 0.0 0.0
0.0 0.0 0.0
0.0 0.0 0.0
0.0 0.0 0.0
0.0 0.0 0.0
0.0 0.0 0.0
0.0 0.0 0.0
0.0 0.0 0.0
0.0 0.0 0.0
0.0 0.0 0.0
0.0 0.0 0.0
0.0 0.0 0.0
0.0 0.0 0.0
0.0 0.0 0.0
0.0 0.0 0.0
0.0 0.0 0.0
0.0 0.0 0.0
0.0 0.0 0.0
0.0 0.0 0.0
0.0 0.0 0.0
0.0 0.0 0.0
0.0 0.0 0.0
0.0 0.0 0.0
0.0 0.0 0.0
0.0 0.0 0.0
0.0 0.0 0.0
0.0 0.0 0.0
0.0 0.0 0.0
0.0 0.0 0.0
0.0 0.0 0.0
0.0 0.0 0.0
0.0 0.0 0.0
0.0 0.0 0.0
0.0 0.0 0.0
0.0 0.0 0.0
0.0 0.0 0.0
0.0 0.0 0.0
0.0 0.0 0.0
0.0 0.0 0.0
0.0 0.0 0.0
0.0 0.0 0.0
0.0 0.0 0.0
0.0 0.0 0.0
0.0 0.0 0.0
0.0 0.0 0.0
0.0 0.0 0.0
0.0 0.0 0.0
0.0 0.0 0.0
0.0 0.0 0.0
0.0 0.0 0.0
0.0 0.0 0.0
0.0 0.0 0.0
0.0 0.0 0.0
0.0 0.0 0.0
0.0 0.0 0.0
0.0 0.0 0.0
0.0 0.0 0.0
0.0 0.0 0.0
0.0 0.0 0.0
0.0 0.0 0.0
0.0 0.0 0.0
0.0 0.0 0.0
0.0 0.0 0.0
0.0 0.0 0.0
0.0 0.0 0.0
0.0 0.0 0.0
0.0 0.0 0.0
0.0 0.0 0.0
0.0 0.0 0.0
0.0 0.0 0.0
VECTORS f float
0.0 0.0 0.0
0.0 0.0 0.0
0.0 0.0 0.0
0.0 0.0 0.0
0.0 0.0 0.0
0.0 0.0 0.0
0.0 0.0 0.0
0.0 0.0 0.0
0.0 0.0 0.0
0.0 0.0 0.0
0.0 0.0 0.0
0.0 0.0 0.0
0.0 0.0 0.0
0.0 0.0 0.0
0.0 0.0 0.0
0.0 0.0 0.0
0.0 0.0 0.0
0.0 0.0 0.0
0.0 0.0 0.0
0.0 0.0 0.0
0.0 0.0 0.0
0.0 0.0 0.0
0.0 0.0 0.0
0.0 0.0 0.0
0.0 0.0 0.0
0.0 0.0 0.0
0.0 0.0 0.0
0.0 0.0 0.0
0.0 0.0 0.0
0.0 0.0 0.0
0.0 0.0 0.0
0.0 0.0 0.0
0.0 0.0 0.0
0.0 0.0 0.0
0.0 0.0 0.0
0.0 0.0 0.0
0.0 0.0 0.0
0.0 0.0 0.0
0.0 0.0 0.0
0.0 0.0 0.0
0.0 0.0 0.0
0.0 0.0 0.0
0.0 0.0 0.0
0.0 0.0 0.0
0.0 0.0 0.0
0.0 0.0 0.0
0.0 0.0 0.0
0.0 0.0 0.0
0.0 0.0 0.0
0.0 0.0 0.0
0.0 0.0 0.0
0.0 0.0 0.0
0.0 0.0 0.0
0.0 0.0 0.0
0.0 0.0 0.0
0.0 0.0 0.0
0.0 0.0 0.0
0.0 0.0 0.0
0.0 0.0 0.0
0.0 0.0 0.0
0.0 0.0 0.0
0.0 0.0 0.0
0.0 0.0 0.0
0.0 0.0 0.0
0.0 0.0 0.0
0.0 0.0 0.0
0.0 0.0 0.0
0.0 0.0 0.0
0.0 0.0 0.0
0.0 0.0 0.0
0.0 0.0 0.0
0.0 0.0 0.0
0.0 0.0 0.0
0.0 0.0 0.0
0.0 0.0 0.0
0.0 0.0 0.0
0.0 0.0 0.0
0.0 0.0 0.0
0.0 0.0 0.0
0.0 0.0 0.0
0.0 0.0 0.0
0.0 0.0 0.0
0.0 0.0 0.0
0.0 0.0 0.0
0.0 0.0 0.0
0.0 0.0 0.0
0.0 0.0 0.0
0.0 0.0 0.0
0.0 0.0 0.0
0.0 0.0 0.0
0.0 0.0 0.0
0.0 0.0 0.0
0.0 0.0 0.0
0.0 0.0 0.0
0.0 0.0 0.0
0.0 0.0 0.0
0.0 0.0 0.0
0.0 0.0 0.0
0.0 0.0 0.0
0.0 0.0 0.0
0.0 0.0 0.0
0.0 0.0 0.0
0.0 0.0 0.0
0.0 0.0 0.0
0.0 0.0 0.0
0.0 0.0 0.0
0.0 0.0 0.0
0.0 0.0 0.0
0.0 0.0 0.0
0.0 0.0 0.0
0.0 0.0 0.0
0.0 0.0 0.0
0.0 0.0 0.0
0.0 0.0 0.0
0.0 0.0 0.0
0.0 0.0 0.0
0.0 0.0 0.0
0.0 0.0 0.0
0.0 0.0 0.0
0.0 0.0 0.0
0.0 0.0 0.0
0.0 0.0 0.0
0.0 0.0 0.0
0.0 0.0 0.0
0.0 0.0 0.0
0.0 0.0 0.0
0.0 0.0 0.0
0.0 0.0 0.0
0.0 0.0 0.0
0.0 0.0 0.0
0.0 0.0 0.0
0.0 0.0 0.0
0.0 0.0 0.0
0.0 0.0 0.0
0.0 0.0 0.0
0.0 0.0 0.0
0.0 0.0 0.0
0.0 0.0 0.0
0.0 0.0 0.0
0.0 0.0 0.0
0.0 0.0 0.0
0.0 0.0 0.0
0.0 0.0 0.0
0.0 0.0 0.0
0.0 0.0 0.0
0.0 0.0 0.0
0.0 0.0 0.0
0.0 0.0 0.0
0.0 0.0 0.0
0.0 0.0 0.0
0.0 0.0 0.0
0.0 0.0 0.0
0.0 0.0 0.0
0.0 0.0 0.0
0.0 0.0 0.0
0.0 0.0 0.0
0.0 0.0 0.0
0.0 0.0 0.0
0.0 0.0 0.0
0.0 0.0 0.0
0.0 0.0 0.0
0.0 0.0 0.0
0.0 0.0 0.0
0.0 0.0 0.0
0.0 0.0 0.0
0.0 0.0 0.0
0.0 0.0 0.0
0.0 0.0 0.0
0.0 0.0 0.0
0.0 0.0 0.0
0.0 0.0 0.0
0.0 0.0 0.0
0.0 0.0 0.0
0.0 0.0 0.0
0.0 0.0 0.0
0.0 0.0 0.0
VECTORS omega float
0.0 0.0 0.0
0.0 0.0 0.0
0.0 0.0 0.0
0.0 0.0 0.0
0.0 0.0 0.0
0.0 0.0 0.0
0.0 0.0 0.0
0.0 0.0 0.0
0.0 0.0 0.0
0.0 0.0 0.0
0.0 0.0 0.0
0.0 0.0 0.0
0.0 0.0 0.0
0.0 0.0 0.0
0.0 0.0 0.0
0.0 0.0 0.0
0.0 0.0 0.0
0.0 0.0 0.0
0.0 0.0 0.0
0.0 0.0 0.0
0.0 0.0 0.0
0.0 0.0 0.0
0.0 0.0 0.0
0.0 0.0 0.0
0.0 0.0 0.0
0.0 0.0 0.0
0.0 0.0 0.0
0.0 0.0 0.0
0.0 0.0 0.0
0.0 0.0 0.0
0.0 0.0 0.0
0.0 0.0 0.0
0.0 0.0 0.0
0.0 0.0 0.0
0.0 0.0 0.0
0.0 0.0 0.0
0.0 0.0 0.0
0.0 0.0 0.0
0.0 0.0 0.0
0.0 0.0 0.0
0.0 0.0 0.0
0.0 0.0 0.0
0.0 0.0 0.0
0.0 0.0 0.0
0.0 0.0 0.0
0.0 0.0 0.0
0.0 0.0 0.0
0.0 0.0 0.0
0.0 0.0 0.0
0.0 0.0 0.0
0.0 0.0 0.0
0.0 0.0 0.0
0.0 0.0 0.0
0.0 0.0 0.0
0.0 0.0 0.0
0.0 0.0 0.0
0.0 0.0 0.0
0.0 0.0 0.0
0.0 0.0 0.0
0.0 0.0 0.0
0.0 0.0 0.0
0.0 0.0 0.0
0.0 0.0 0.0
0.0 0.0 0.0
0.0 0.0 0.0
0.0 0.0 0.0
0.0 0.0 0.0
0.0 0.0 0.0
0.0 0.0 0.0
0.0 0.0 0.0
0.0 0.0 0.0
0.0 0.0 0.0
0.0 0.0 0.0
0.0 0.0 0.0
0.0 0.0 0.0
0.0 0.0 0.0
0.0 0.0 0.0
0.0 0.0 0.0
0.0 0.0 0.0
0.0 0.0 0.0
0.0 0.0 0.0
0.0 0.0 0.0
0.0 0.0 0.0
0.0 0.0 0.0
0.0 0.0 0.0
0.0 0.0 0.0
0.0 0.0 0.0
0.0 0.0 0.0
0.0 0.0 0.0
0.0 0.0 0.0
0.0 0.0 0.0
0.0 0.0 0.0
0.0 0.0 0.0
0.0 0.0 0.0
0.0 0.0 0.0
0.0 0.0 0.0
0.0 0.0 0.0
0.0 0.0 0.0
0.0 0.0 0.0
0.0 0.0 0.0
0.0 0.0 0.0
0.0 0.0 0.0
0.0 0.0 0.0
0.0 0.0 0.0
0.0 0.0 0.0
0.0 0.0 0.0
0.0 0.0 0.0
0.0 0.0 0.0
0.0 0.0 0.0
0.0 0.0 0.0
0.0 0.0 0.0
0.0 0.0 0.0
0.0 0.0 0.0
0.0 0.0 0.0
0.0 0.0 0.0
0.0 0.0 0.0
0.0 0.0 0.0
0.0 0.0 0.0
0.0 0.0 0.0
0.0 0.0 0.0
0.0 0.0 0.0
0.0 0.0 0.0
0.0 0.0 0.0
0.0 0.0 0.0
0.0 0.0 0.0
0.0 0.0 0.0
0.0 0.0 0.0
0.0 0.0 0.0
0.0 0.0 0.0
0.0 0.0 0.0
0.0 0.0 0.0
0.0 0.0 0.0
0.0 0.0 0.0
0.0 0.0 0.0
0.0 0.0 0.0
0.0 0.0 0.0
0.0 0.0 0.0
0.0 0.0 0.0
0.0 0.0 0.0
0.0 0.0 0.0
0.0 0.0 0.0
0.0 0.0 0.0
0.0 0.0 0.0
0.0 0.0 0.0
0.0 0.0 0.0
0.0 0.0 0.0
0.0 0.0 0.0
0.0 0.0 0.0
0.0 0.0 0.0
0.0 0.0 0.0
0.0 0.0 0.0
0.0 0.0 0.0
0.0 0.0 0.0
0.0 0.0 0.0
0.0 0.0 0.0
0.0 0.0 0.0
0.0 0.0 0.0
0.0 0.0 0.0
0.0 0.0 0.0
0.0 0.0 0.0
0.0 0.0 0.0
0.0 0.0 0.0
0.0 0.0 0.0
0.0 0.0 0.0
0.0 0.0 0.0
0.0 0.0 0.0
0.0 0.0 0.0
0.0 0.0 0.0
0.0 0.0 0.0
0.0 0.0 0.0
0.0 0.0 0.0
0.0 0.0 0.0
0.0 0.0 0.0
0.0 0.0 0.0
0.0 0.0 0.0
0.0 0.0 0.0
VECTORS v float
-0 -0 -1.0
-0 -0 -1.0
-0 -0 -1.0
-0 -0 -1.0
-0 -0 -1.0
-0 -0 -1.0
-0 -0 -1.0
-0 -0 -1.0
-0 -0 -1.0
-0 -0 -1.0
-0 -0 -1.0
-0 -0 -1.0
-0 -0 -1.0
-0 -0 -1.0
-0 -0 -1.0
-0 -0 -1.0
-0 -0 -1.0
-0 -0 -1.0
-0 -0 -1.0
-0 -0 -1.0
-0 -0 -1.0
-0 -0 -1.0
-0 -0 -1.0
-0 -0 -1.0
-0 -0 -1.0
-0 -0 -1.0
-0 -0 -1.0
-0 -0 -1.0
-0 -0 -1.0
-0 -0 -1.0
-0 -0 -1.0
-0 -0 -1.0
-0 -0 -1.0
-0 -0 -1.0
-0 -0 -1.0
-0 -0 -1.0
-0 -0 -1.0
-0 -0 -1.0
-0 -0 -1.0
-0 -0 -1.0
-0 -0 -1.0
-0 -0 -1.0
-0 -0 -1.0
-0 -0 -1.0
-0 -0 -1.0
-0 -0 -1.0
-0 -0 -1.0
-0 -0 -1.0
-0 -0 -1.0
-0 -0 -1.0
-0 -0 -1.0
-0 -0 -1.0
-0 -0 -1.0
-0 -0 -1.0
-0 -0 -1.0
-0 -0 -1.0
-0 -0 -1.0
-0 -0 -1.0
-0 -0 -1.0
-0 -0 -1.0
-0 -0 -1.0
-0 -0 -1.0
-0 -0 -1.0
-0 -0 -1.0
-0 -0 -1.0
-0 -0 -1.0
-0 -0 -1.0
-0 -0 -1.0
-0 -0 -1.0
-0 -0 -1.0
-0 -0 -1.0
-0 -0 -1.0
-0 -0 -1.0
-0 -0 -1.0
-0 -0 -1.0
-0 -0 -1.0
-0 -0 -1.0
-0 -0 -1.0
-0 -0 -1.0
-0 -0 -1.0
-0 -0 -1.0
-0 -0 -1.0
-0 -0 -1.0
-0 -0 -1.0
-0 -0 -1.0
-0 -0 -1.0
-0 -0 -1.0
-0 -0 -1.0
-0 -0 -1.0
-0 -0 -1.0
-0 -0 -1.0
-0 -0 -1.0
-0 -0 -1.0
-0 -0 -1.0
-0 -0 -1.0
-0 -0 -1.0
-0 -0 -1.0
-0 -0 -1.0
-0 -0 -1.0
-0 -0 -1.0
-0 -0 -1.0
-0 -0 -1.0
-0 -0 -1.0
-0 -0 -1.0
-0 -0 -1.0
-0 -0 -1.0
-0 -0 -1.0
-0 -0 -1.0
-0 -0 -1.0
-0 -0 -1.0
-0 -0 -1.0
-0 -0 -1.0
-0 -0 -1.0
-0 -0 -1.0
-0 -0 -1.0
-0 -0 -1.0
-0 -0 -1.0
-0 -0 -1.0
-0 -0 -1.0
-0 -0 -1.0
-0 -0 -1.0
-0 -0 -1.0
-0 -0 -1.0
-0 -0 -1.0
-0 -0 -1.0
-0 -0 -1.0
-0 -0 -1.0
-0 -0 -1.0
-0 -0 -1.0
-0 -0 -1.0
-0 -0 -1.0
-0 -0 -1.0
-0 -0 -1.0
-0 -0 -1.0
-0 -0 -1.0
-0 -0 -1.0
-0 -0 -1.0
-0 -0 -1.0
-0 -0 -1.0
-0 -0 -1.0
-0 -0 -1.0
-0 -0 -1.0
-0 -0 -1.0
-0 -0 -1.0
-0 -0 -1.0
-0 -0 -1.0
-0 -0 -1.0
-0 -0 -1.0
-0 -0 -1.0
-0 -0 -1.0
-0 -0 -1.0
-0 -0 -1.0
-0 -0 -1.0
-0 -0 -1.0
-0 -0 -1.0
-0 -0 -1.0
-0 -0 -1.0
-0 -0 -1.0
-0 -0 -1.0
-0 -0 -1.0
-0 -0 -1.0
-0 -0 -1.0
-0 -0 -1.0
-0 -0 -1.0
-0 -0 -1.0
-0 -0 -1.0
-0 -0 -1.0
-0 -0 -1.0
-0 -0 -1.0
-0 -0 -1.0
-0 -0 -1.0
-0 -0 -1.0
-0 -0 -1.0
-0 -0 -1.0
-0 -0 -1.0
-0 -0 -1.0
SCALARS radius float 1
LOOKUP_TABLE default
0.03
0.03
0.03
0.03
0.03
0.03
0.03
0.03
0.03
0.03
0.03
0.03
0.03
0.03
0.03
0.03
0.03
0.03
0.03
0.03
0.03
0.03
0.03
0.03
0.03
0.03
0.03
0.03
0.03
0.03
0.03
0.03
0.03
0.03
0.03
0.03
0.03
0.03
0.03
0.03
0.03
0.03
0.03
0.03
0.03
0.03
0.03
0.03
0.03
0.03
0.03
0.03
0.03
0.03
0.03
0.03
0.03
0.03
0.03
0.03
0.03
0.03
0.03
0.03
0.03
0.03
0.03
0.03
0.03
0.03
0.03
0.03
0.03
0.03
0.03
0.03
0.03
0.03
0.03
0.03
0.03
0.03
0.03
0.03
0.03
0.03
0.03
0.03
0.03
0.03
0.03
0.03
0.03
0.03
0.03
0.03
0.03
0.03
0.03
0.03
0.03
0.03
0.03
0.03
0.03
0.03
0.03
0.03
0.03
0.03
0.03
0.03
0.03
0.03
0.03
0.03
0.03
0.03
0.03
0.03
0.03
0.03
0.03
0.03
0.03
0.03
0.03
0.03
0.03
0.03
0.03
0.03
0.03
0.03
0.03
0.03
0.03
0.03
0.03
0.03
0.03
0.03
0.03
0.03
0.03
0.03
0.03
0.03
0.03
0.03
0.03
0.03
0.03
0.03
0.03
0.03
0.03
0.03
0.03
0.03
0.03
0.03
0.03
0.03
0.03
0.03
0.03
0.03
0.03
0.03
0.03
0.03
0.03
0.03
0.03
0.03
SCALARS type float 1
LOOKUP_TABLE default
1.0
1.0
1.0
1.0
1.0
1.0
1.0
1.0
1.0
1.0
1.0
1.0
1.0
1.0
1.0
1.0
1.0
1.0
1.0
1.0
1.0
1.0
1.0
1.0
1.0
1.0
1.0
1.0
1.0
1.0
1.0
1.0
1.0
1.0
1.0
1.0
1.0
1.0
1.0
1.0
1.0
1.0
1.0
1.0
1.0
1.0
1.0
1.0
1.0
1.0
1.0
1.0
1.0
1.0
1.0
1.0
1.0
1.0
1.0
1.0
1.0
1.0
1.0
1.0
1.0
1.0
1.0
1.0
1.0
1.0
1.0
1.0
1.0
1.0
1.0
1.0
1.0
1.0
1.0
1.0
1.0
1.0
1.0
1.0
1.0
1.0
1.0
1.0
1.0
1.0
1.0
1.0
1.0
1.0
1.0
1.0
1.0
1.0
1.0
1.0
1.0
1.0
1.0
1.0
1.0
1.0
1.0
1.0
1.0
1.0
1.0
1.0
1.0
1.0
1.0
1.0
1.0
1.0
1.0
1.0
1.0
1.0
1.0
1.0
1.0
1.0
1.0
1.0
1.0
1.0
1.0
1.0
1.0
1.0
1.0
1.0
1.0
1.0
1.0
1.0
1.0
1.0
1.0
1.0
1.0
1.0
1.0
1.0
1.0
1.0
1.0
1.0
1.0
1.0
1.0
1.0
1.0
1.0
1.0
1.0
1.0
1.0
1.0
1.0
1.0
1.0
1.0
1.0
1.0
1.0
1.0
1.0
1.0
1.0
1.0
1.0
SCALARS id float 1
LOOKUP_TABLE default
100.0
123.0
105.0
129.0
149.0
41.0
21.0
82.0
85.0
152.0
49.0
79.0
42.0
112.0
92.0
144.0
16.0
166.0
98.0
66.0
167.0
53.0
137.0
94.0
108.0
127.0
99.0
29.0
104.0
91.0
138.0
97.0
18.0
51.0
128.0
146.0
171.0
1.0
81.0
5.0
145.0
76.0
19.0
12.0
133.0
24.0
131.0
151.0
2.0
72.0
47.0
45.0
71.0
80.0
61.0
130.0
17.0
174.0
148.0
15.0
32.0
73.0
116.0
55.0
31.0
57.0
93.0
44.0
118.0
4.0
164.0
107.0
64.0
23.0
26.0
83.0
68.0
125.0
60.0
46.0
140.0
10.0
102.0
155.0
136.0
70.0
157.0
173.0
176.0
28.0
77.0
75.0
67.0
110.0
135.0
156.0
35.0
25.0
63.0
30.0
163.0
52.0
143.0
86.0
22.0
40.0
120.0
8.0
165.0
113.0
101.0
33.0
134.0
162.0
159.0
139.0
13.0
43.0
121.0
153.0
58.0
78.0
109.0
87.0
37.0
158.0
69.0
117.0
27.0
38.0
147.0
90.0
170.0
150.0
115.0
119.0
168.0
114.0
7.0
14.0
62.0
48.0
3.0
50.0
54.0
95.0
103.0
65.0
11.0
111.0
161.0
141.0
169.0
59.0
74.0
56.0
6.0
96.0
154.0
132.0
126.0
89.0
124.0
106.0
36.0
142.0
175.0
122.0
20.0
172.0
34.0
9.0
88.0
84.0
160.0
39.0
SCALARS Temp float 1
LOOKUP_TABLE default
300.0
300.0
300.0
300.0
300.0
300.0
300.0
300.0
300.0
300.0
300.0
300.0
300.0
300.0
300.0
300.0
300.0
300.0
300.0
300.0
300.0
300.0
300.0
300.0
300.0
300.0
300.0
300.0
300.0
300.0
300.0
300.0
300.0
300.0
300.0
300.0
300.0
300.0
300.0
300.0
300.0
300.0
300.0
300.0
300.0
300.0
300.0
300.0
300.0
300.0
300.0
300.0
300.0
300.0
300.0
300.0
300.0
300.0
300.0
300.0
300.0
300.0
300.0
300.0
300.0
300.0
300.0
300.0
300.0
300.0
300.0
300.0
300.0
300.0
300.0
300.0
300.0
300.0
300.0
300.0
300.0
300.0
300.0
300.0
300.0
300.0
300.0
300.0
300.0
300.0
300.0
300.0
300.0
300.0
300.0
300.0
300.0
300.0
300.0
300.0
300.0
300.0
300.0
300.0
300.0
300.0
300.0
300.0
300.0
300.0
300.0
300.0
300.0
300.0
300.0
300.0
300.0
300.0
300.0
300.0
300.0
300.0
300.0
300.0
300.0
300.0
300.0
300.0
300.0
300.0
300.0
300.0
300.0
300.0
300.0
300.0
300.0
300.0
300.0
300.0
300.0
300.0
300.0
300.0
300.0
300.0
300.0
300.0
300.0
300.0
300.0
300.0
300.0
300.0
300.0
300.0
300.0
300.0
300.0
300.0
300.0
300.0
300.0
300.0
300.0
300.0
300.0
300.0
300.0
300.0
300.0
300.0
300.0
300.0
300.0
300.0

