# vtk DataFile Version 2.0
Generated by lpp.py
ASCII
DATASET POLYDATA
POINTS 176 float
0.250484 0.179339 1.58347
0.353404 0.186356 1.58587
0.48813 0.193486 1.57568
0.631208 0.187516 1.57688
0.169326 0.2138 1.60025
0.427446 0.202894 1.5787
0.740616 0.208073 1.57747
0.804046 0.206194 1.57664
0.104319 0.258343 1.57243
0.242758 0.2656 1.57571
0.301198 0.249691 1.57448
0.544484 0.245046 1.57728
0.650551 0.248701 1.57698
0.171771 0.282755 1.57443
0.396899 0.278217 1.58038
0.494246 0.283157 1.58004
0.75749 0.277356 1.57686
0.837581 0.271632 1.57686
0.243631 0.339796 1.58181
0.56458 0.339058 1.57674
0.668342 0.331981 1.57684
0.166507 0.360213 1.57411
0.357341 0.349575 1.57793
0.450442 0.367274 1.57403
0.303299 0.396573 1.57762
0.400222 0.402819 1.5769
0.629277 0.403538 1.58901
0.695736 0.393765 1.5801
0.189518 0.421639 1.57499
0.483377 0.434983 1.57713
0.876876 0.43101 1.57686
0.146838 0.469539 1.59379
0.289151 0.462677 1.5834
0.393374 0.463701 1.57502
0.537445 0.477542 1.57839
0.700288 0.467393 1.57559
0.479412 0.498607 1.57674
0.757213 0.486679 1.57679
0.01575 0.522071 1.58038
0.2784 0.528617 1.57762
0.528363 0.536987 1.57695
0.731048 0.555402 1.57935
0.909136 0.517145 1.57686
0.45978 0.58228 1.59142
0.602817 0.57562 1.58479
0.400835 0.154012 1.60959
0.510505 0.135588 1.63485
0.708118 0.157648 1.60529
0.483098 0.219372 1.63196
0.568846 0.202622 1.61357
0.212984 0.251844 1.62448
0.340646 0.24596 1.61419
0.702742 0.23365 1.63128
0.581195 0.285893 1.61795
0.641681 0.283993 1.62825
0.1122 0.332944 1.62352
0.441618 0.322258 1.61032
0.489779 0.367224 1.61541
0.200217 0.380026 1.61566
0.2316 0.442864 1.6088
0.514361 0.450435 1.63067
0.715192 0.479912 1.63128
0.10161 0.511094 1.58157
0.24899 0.498662 1.62492
0.313247 0.486893 1.6338
0.357798 0.531474 1.60379
0.446667 0.524491 1.61983
0.654274 0.556272 1.62152
0.383458 0.238917 1.65278
0.263758 0.32643 1.64366
0.336151 0.332789 1.62995
0.257965 0.388463 1.63698
0.397537 0.411206 1.63764
0.108382 0.420889 1.61019
0.160517 0.434276 1.64258
0.457421 0.421946 1.63783
0.79076 0.441747 1.66568
0.170762 0.492595 1.64019
0.502917 0.511645 1.64362
0.563361 0.528804 1.63822
0.461898 0.630972 1.66082
0.440466 0.25226 1.66368
0.367078 0.294866 1.6602
0.436608 0.312842 1.66879
0.506066 0.310714 1.67595
0.383157 0.359956 1.67333
0.512267 0.383387 1.66437
0.71124 0.403069 1.67842
0.305373 0.43936 1.67687
0.532327 0.450913 1.68857
0.391201 0.50957 1.71818
0.44048 0.493132 1.68561
0.234319 0.3015 1.70993
0.438372 0.392123 1.69456
0.35438 0.444512 1.70511
0.307792 0.495572 1.70703
0.421882 0.615478 1.7143
0.291546 0.301611 1.72458
0.180917 0.318375 1.72825
0.41904 0.310566 1.73481
0.278223 0.363632 1.73673
0.155769 0.403018 1.74353
0.419456 0.449551 1.72866
0.218974 0.524143 1.74282
0.254767 0.230824 1.7525
0.495956 0.249499 1.7746
0.240863 0.437556 1.76247
0.178322 0.227864 1.81389
0.408343 0.240904 1.79744
0.355542 0.30862 1.8055
0.499251 0.382901 1.80867
0.161462 0.479607 1.81596
0.476719 0.464357 1.79141
0.105277 0.51875 1.80722
0.423627 0.520356 1.795
0.150682 0.290471 1.83675
0.118071 0.372478 1.83425
0.216306 0.357237 1.83176
0.429922 0.3736 1.84568
0.117057 0.232547 1.87409
0.46021 0.268154 1.89543
0.294692 0.330306 1.8897
0.414233 0.306803 1.88879
0.367693 0.467546 1.87091
0.313052 0.494322 1.89092
0.199862 0.243713 1.92819
0.33461 0.249494 1.90761
0.258494 0.28056 1.90601
0.320208 0.403691 1.91923
0.113325 0.448918 1.92303
0.209546 0.484752 1.90644
0.446997 0.50849 1.9132
0.387237 0.525686 1.90779
0.375347 0.345395 1.9495
0.169236 0.376906 1.94103
0.261069 0.440732 1.95156
0.491591 0.428372 1.94289
0.254698 0.262308 2.00676
0.417913 0.266516 1.99512
0.121033 0.279919 2.00625
0.47999 0.300848 1.97898
0.103577 0.34242 1.98604
0.230407 0.340128 1.98287
0.287678 0.358468 2.00538
0.227036 0.399722 2.00223
0.380254 0.404128 1.99134
0.448915 0.39365 2.00138
0.441781 0.458388 1.98801
0.131272 0.513706 1.98409
0.365118 0.235733 2.03504
0.187546 0.294736 2.01494
0.378219 0.307765 2.02731
0.360498 0.363939 2.04191
0.10427 0.421706 2.03972
0.200976 0.455034 2.03422
0.491668 0.49724 2.04516
0.208645 0.523817 2.0286
0.35506 0.52072 2.01285
0.29951 0.265646 2.06473
0.478513 0.241448 2.07775
0.200031 0.295208 2.07871
0.26261 0.317421 2.06461
0.121236 0.342722 2.06496
0.234882 0.370686 2.0619
0.43656 0.349215 2.07852
0.288982 0.398489 2.08045
0.41824 0.41741 2.08107
0.250123 0.467148 2.07514
0.317689 0.454971 2.04695
0.124302 0.506318 2.06864
0.387139 0.48601 2.06051
0.136955 0.241756 2.08145
0.352336 0.290052 2.08528
0.18594 0.400862 2.08647
0.485548 0.450278 2.08645
0.302009 0.506095 2.08474
VERTICES 176 352
1 0
1 1
1 2
1 3
1 4
1 5
1 6
1 7
1 8
1 9
1 10
1 11
1 12
1 13
1 14
1 15
1 16
1 17
1 18
1 19
1 20
1 21
1 22
1 23
1 24
1 25
1 26
1 27
1 28
1 29
1 30
1 31
1 32
1 33
1 34
1 35
1 36
1 37
1 38
1 39
1 40
1 41
1 42
1 43
1 44
1 45
1 46
1 47
1 48
1 49
1 50
1 51
1 52
1 53
1 54
1 55
1 56
1 57
1 58
1 59
1 60
1 61
1 62
1 63
1 64
1 65
1 66
1 67
1 68
1 69
1 70
1 71
1 72
1 73
1 74
1 75
1 76
1 77
1 78
1 79
1 80
1 81
1 82
1 83
1 84
1 85
1 86
1 87
1 88
1 89
1 90
1 91
1 92
1 93
1 94
1 95
1 96
1 97
1 98
1 99
1 100
1 101
1 102
1 103
1 104
1 105
1 106
1 107
1 108
1 109
1 110
1 111
1 112
1 113
1 114
1 115
1 116
1 117
1 118
1 119
1 120
1 121
1 122
1 123
1 124
1 125
1 126
1 127
1 128
1 129
1 130
1 131
1 132
1 133
1 134
1 135
1 136
1 137
1 138
1 139
1 140
1 141
1 142
1 143
1 144
1 145
1 146
1 147
1 148
1 149
1 150
1 151
1 152
1 153
1 154
1 155
1 156
1 157
1 158
1 159
1 160
1 161
1 162
1 163
1 164
1 165
1 166
1 167
1 168
1 169
1 170
1 171
1 172
1 173
1 174
1 175
POINT_DATA 176
VECTORS i float
0.0 0.0 0.0
0.0 0.0 0.0
0.0 0.0 0.0
0.0 0.0 0.0
0.0 0.0 0.0
0.0 0.0 0.0
0.0 0.0 0.0
0.0 0.0 0.0
0.0 0.0 0.0
0.0 0.0 0.0
0.0 0.0 0.0
0.0 0.0 0.0
0.0 0.0 0.0
0.0 0.0 0.0
0.0 0.0 0.0
0.0 0.0 0.0
0.0 0.0 0.0
0.0 0.0 0.0
0.0 0.0 0.0
0.0 0.0 0.0
0.0 0.0 0.0
0.0 0.0 0.0
0.0 0.0 0.0
0.0 0.0 0.0
0.0 0.0 0.0
0.0 0.0 0.0
0.0 0.0 0.0
0.0 0.0 0.0
0.0 0.0 0.0
0.0 0.0 0.0
0.0 0.0 0.0
0.0 0.0 0.0
0.0 0.0 0.0
0.0 0.0 0.0
0.0 0.0 0.0
0.0 0.0 0.0
0.0 0.0 0.0
0.0 0.0 0.0
0.0 0.0 0.0
0.0 0.0 0.0
0.0 0.0 0.0
0.0 0.0 0.0
0.0 0.0 0.0
0.0 0.0 0.0
0.0 0.0 0.0
0.0 0.0 0.0
0.0 0.0 0.0
0.0 0.0 0.0
0.0 0.0 0.0
0.0 0.0 0.0
0.0 0.0 0.0
0.0 0.0 0.0
0.0 0.0 0.0
0.0 0.0 0.0
0.0 0.0 0.0
0.0 0.0 0.0
0.0 0.0 0.0
0.0 0.0 0.0
0.0 0.0 0.0
0.0 0.0 0.0
0.0 0.0 0.0
0.0 0.0 0.0
0.0 0.0 0.0
0.0 0.0 0.0
0.0 0.0 0.0
0.0 0.0 0.0
0.0 0.0 0.0
0.0 0.0 0.0
0.0 0.0 0.0
0.0 0.0 0.0
0.0 0.0 0.0
0.0 0.0 0.0
0.0 0.0 0.0
0.0 0.0 0.0
0.0 0.0 0.0
0.0 0.0 0.0
0.0 0.0 0.0
0.0 0.0 0.0
0.0 0.0 0.0
0.0 0.0 0.0
0.0 0.0 0.0
0.0 0.0 0.0
0.0 0.0 0.0
0.0 0.0 0.0
0.0 0.0 0.0
0.0 0.0 0.0
0.0 0.0 0.0
0.0 0.0 0.0
0.0 0.0 0.0
0.0 0.0 0.0
0.0 0.0 0.0
0.0 0.0 0.0
0.0 0.0 0.0
0.0 0.0 0.0
0.0 0.0 0.0
0.0 0.0 0.0
0.0 0.0 0.0
0.0 0.0 0.0
0.0 0.0 0.0
0.0 0.0 0.0
0.0 0.0 0.0
0.0 0.0 0.0
0.0 0.0 0.0
0.0 0.0 0.0
0.0 0.0 0.0
0.0 0.0 0.0
0.0 0.0 0.0
0.0 0.0 0.0
0.0 0.0 0.0
0.0 0.0 0.0
0.0 0.0 0.0
0.0 0.0 0.0
0.0 0.0 0.0
0.0 0.0 0.0
0.0 0.0 0.0
0.0 0.0 0.0
0.0 0.0 0.0
0.0 0.0 0.0
0.0 0.0 0.0
0.0 0.0 0.0
0.0 0.0 0.0
0.0 0.0 0.0
0.0 0.0 0.0
0.0 0.0 0.0
0.0 0.0 0.0
0.0 0.0 0.0
0.0 0.0 0.0
0.0 0.0 0.0
0.0 0.0 0.0
0.0 0.0 0.0
0.0 0.0 0.0
0.0 0.0 0.0
0.0 0.0 0.0
0.0 0.0 0.0
0.0 0.0 0.0
0.0 0.0 0.0
0.0 0.0 0.0
0.0 0.0 0.0
0.0 0.0 0.0
0.0 0.0 0.0
0.0 0.0 0.0
0.0 0.0 0.0
0.0 0.0 0.0
0.0 0.0 0.0
0.0 0.0 0.0
0.0 0.0 0.0
0.0 0.0 0.0
0.0 0.0 0.0
0.0 0.0 0.0
0.0 0.0 0.0
0.0 0.0 0.0
0.0 0.0 0.0
0.0 0.0 0.0
0.0 0.0 0.0
0.0 0.0 0.0
0.0 0.0 0.0
0.0 0.0 0.0
0.0 0.0 0.0
0.0 0.0 0.0
0.0 0.0 0.0
0.0 0.0 0.0
0.0 0.0 0.0
0.0 0.0 0.0
0.0 0.0 0.0
0.0 0.0 0.0
0.0 0.0 0.0
0.0 0.0 0.0
0.0 0.0 0.0
0.0 0.0 0.0
0.0 0.0 0.0
0.0 0.0 0.0
0.0 0.0 0.0
0.0 0.0 0.0
0.0 0.0 0.0
0.0 0.0 0.0
0.0 0.0 0.0
VECTORS f float
1.11556 1.82395 1.87733
0.0 0.0 -2.77371
-3.1168 0.799137 28.4745
1.93033e-05 -2.28419e-05 -0.215744
0.0 0.0 -2.77371
0.0 0.0 -2.77371
0.0 0.0 -2.77371
-1.24074 -0.0372411 -4.73683
72.3249 2.42866 288.229
1.01303 -0.742087 -26.6193
19.7877 14.9434 45.7733
0.0 0.0 -2.77371
0.0791469 0.0556329 0.280511
94.3967 -9.04945 186.885
0.0 0.0 -2.77371
0.0 0.0 -2.77371
-0.000551435 -8.08253e-05 -0.0337136
9.9592e-05 1.64183e-05 -0.00785071
0.0 0.0 -2.77371
0.30911 -0.0686012 5.81085
-0.0185356 -0.00427777 0.0533218
-6.29926 -2.00681 24.4503
-3.06908 17.3391 -30.9257
-14.8082 -13.4151 -17.0312
0.0 0.0 -2.77371
0.530333 -0.28827 -1.56648
0.0 0.0 -2.77371
0.0 0.0 -2.77371
-3.13959 -17.8459 -7.7761
0.0 0.0 -2.77371
-0.000721148 6.99337e-05 -0.0229171
-22.5729 -24.8342 -87.023
0.0 0.0 -2.77371
40.3012 -7.65372 79.2694
0.0 0.0 -2.77371
28.4525 8.73071 36.1144
-2.96155 1.49898 1.32039
0.101568 -0.0116236 2.08676
0.0 0.0 -2.77371
0.0 0.0 -2.77371
-0.0428697 -0.644126 -0.780583
0.0 0.0 -2.77371
-7.24962e-05 3.0292e-06 -0.0019816
0.01358 -1.43894 -0.701078
-0.0168513 -0.952942 -1.02861
0.0 0.0 -2.77371
0.0 0.0 -2.77371
-0.0804238 0.579419 -1.59537
0.0 0.0 -2.77371
0.0 0.0 -2.77371
-4.31195 -0.321201 28.004
5.41137 -23.4897 59.4873
0.0 0.0 -2.77371
0.0 0.0 -2.77371
0.0 0.0 -2.77371
0.0 0.0 -2.77371
-2.66851 -15.5265 12.2494
-56.1203 -13.0948 -43.5469
35.8112 18.4272 88.0205
42.3083 14.9709 81.0024
0.0 0.0 -2.77371
-2.18906 -0.511647 13.3771
0.0 0.0 -2.77371
0.0 0.0 -2.77371
0.0 0.0 -2.77371
0.0 0.0 -2.77371
1.71948 -0.86816 -4.08165
0.0 0.0 -2.77371
31.6549 -17.3134 23.5962
0.0 0.0 -2.77371
-23.1366 22.529 -10.5855
0.0 0.0 -2.77371
0.0 0.0 -2.77371
0.0 0.0 -2.77371
-0.128026 -0.716977 -2.37194
0.0 0.0 -2.77371
0.0 0.0 -2.77371
22.701 25.5512 81.0738
0.0 0.0 -2.77371
0.0 0.0 -2.77371
0.0 0.0 -2.77371
19.2756 1.2698 6.77386
25.3486 -18.9835 37.1919
-0.469097 -5.36359 4.68814
0.0 0.0 -2.77371
0.0 0.0 -2.77371
92.5313 30.8397 123.435
0.0 0.0 -2.77371
-75.6326 -7.89024 -49.3283
0.0 0.0 -2.77371
0.0 0.0 -2.77371
0.0 0.0 -2.77371
15.0648 -3.96061 -31.246
0.0 0.0 -2.77371
75.6326 7.89024 43.7809
0.0 0.0 -2.77371
0.0 0.0 -2.77371
7.27936 -0.711606 3.46448
-22.3441 4.67222 19.4604
0.0 0.0 -2.77371
0.0 0.0 -2.77371
0.0 0.0 -2.77371
0.0 0.0 -2.77371
0.0 0.0 -2.77371
0.0 0.0 -2.77371
0.0 0.0 -2.77371
0.0 0.0 -2.77371
0.0 0.0 -2.77371
0.0 0.0 -2.77371
0.0 0.0 -2.77371
0.0 0.0 -2.77371
0.0 0.0 -2.77371
0.0 0.0 -2.77371
0.0 0.0 -2.77371
0.0 0.0 -2.77371
0.0 0.0 -2.77371
0.0 0.0 -2.77371
0.0 0.0 -2.77371
0.0 0.0 -2.77371
0.0 0.0 -2.77371
0.0 0.0 -2.77371
0.0 0.0 -2.77371
0.0 0.0 -2.77371
0.0 0.0 -2.77371
0.0 0.0 -2.77371
0.0 0.0 -2.77371
0.0 0.0 -2.77371
0.0 0.0 -2.77371
0.0 0.0 -2.77371
0.0 0.0 -2.77371
0.0 0.0 -2.77371
0.0 0.0 -2.77371
0.0 0.0 -2.77371
0.0 0.0 -2.77371
0.0 0.0 -2.77371
0.0 0.0 -2.77371
0.0 0.0 -2.77371
0.0 0.0 -2.77371
0.0 0.0 -2.77371
0.0 0.0 -2.77371
0.0 0.0 -2.77371
0.0 0.0 -2.77371
0.0 0.0 -2.77371
0.0 0.0 -2.77371
0.0 0.0 -2.77371
0.0 0.0 -2.77371
0.0 0.0 -2.77371
0.0 0.0 -2.77371
0.0 0.0 -2.77371
0.0 0.0 -2.77371
0.0 0.0 -2.77371
0.0 0.0 -2.77371
0.0 0.0 -2.77371
0.0 0.0 -2.77371
0.0 0.0 -2.77371
0.0 0.0 -2.77371
0.0 0.0 -2.77371
0.0 0.0 -2.77371
0.0 0.0 0.0
0.0 0.0 0.0
0.0 0.0 0.0
0.0 0.0 0.0
0.0 0.0 0.0
0.0 0.0 0.0
0.0 0.0 0.0
0.0 0.0 0.0
0.0 0.0 0.0
0.0 0.0 0.0
0.0 0.0 -2.77371
0.0 0.0 0.0
0.0 0.0 0.0
0.0 0.0 0.0
0.0 0.0 0.0
0.0 0.0 0.0
0.0 0.0 0.0
0.0 0.0 0.0
VECTORS omega float
7.98522 -114.121 17.9316
-1.43752 -35.178 66.0558
0.5178 -67.7503 22.9831
-0.878313 -67.4923 35.6998
9.19029 -108.768 1.97972
6.15926 -33.5159 1.95271
12.8671 -64.0363 -10.5463
8.84408 -62.1397 5.0065
6.39407 -132.499 -3.17817
0.259095 -90.8693 2.5448
-1.91261 -66.6247 -4.66154
6.69283 -81.1026 2.61484
11.92 -61.2357 -24.1647
8.07661 -86.8893 -5.32658
-0.193871 -80.3764 -1.10301
10.6489 -53.6283 -17.1907
8.20395 -53.2526 10.1393
11.3576 -68.8946 15.7782
-9.2211 -59.3666 -1.70597
-7.06212 -70.2495 16.1048
2.9215 -47.8593 -12.8858
-2.7909 -89.4527 7.63744
-1.93031 -64.0795 12.6092
5.44789 -83.9926 -15.624
18.376 -77.3577 8.69058
-7.97039 -65.7484 -8.50366
3.59332 -67.4754 -1.0062
-3.0089 -61.1344 -3.69294
-9.25798 -54.9874 -2.92386
-2.42756 -59.7374 -5.88069
-4.91947 -50.7272 2.52464
4.87415 -25.9424 -12.5062
-3.15234 -93.0822 29.1092
-12.6049 -61.6285 0.212455
-3.75427 -80.0003 -9.05878
-22.0071 -13.4691 3.20488
-13.2965 -76.206 15.2921
-8.0691 -63.7263 2.00424
-5.90024 -73.6908 -2.54792
-12.4062 -71.7457 12.548
-5.18642 -75.8557 7.40498
-15.5938 -60.3904 -14.7917
-1.81726 -43.4916 1.90422
-2.90324 -95.4237 -14.5524
2.9692 -84.6371 -22.8617
7.99867 -91.4259 34.8013
12.6731 -5.24697 64.797
2.58437 -83.9026 1.3889
-6.61269 25.4332 -15.7052
11.5236 55.2004 -2.86871
13.3507 6.06831 3.99514
30.5692 43.1363 4.29825
8.95253 -50.9918 -2.42304
29.4647 21.0095 -22.8687
-9.82213 5.76795 -1.25529
32.108 -29.8844 12.8159
25.3965 27.1558 8.63693
-8.59124 53.4127 11.4627
-5.99339 57.5442 -12.4742
-3.25023 16.6213 -9.39948
13.8014 39.8056 29.5301
26.9788 -43.8337 2.21632
0.0 0.0 0.0
19.2673 15.5771 4.16019
1.20287 40.6925 -30.7458
-9.96857 -78.6281 10.3005
-1.66051 13.0121 -7.17869
-8.73866 86.2353 17.7017
-2.40078 8.82728 7.52121
17.997 41.4372 -0.707699
20.4776 1.72372 -16.1153
-25.6321 13.493 5.21276
-5.06271 20.6898 -23.5962
0.0 0.0 0.0
-5.65332 -27.7094 6.24424
18.1829 -0.178701 6.62948
5.11574 -46.1421 -14.4888
-22.5863 -20.4123 -10.0797
12.3588 2.46932 2.93892
3.48494 -72.8843 -2.66728
-27.7984 40.0863 14.5704
22.8626 -42.9355 8.69017
7.91277 -3.57114 16.2168
-13.2872 -36.6113 -8.57023
4.00156 74.1078 3.32257
41.8518 -12.4161 -1.38751
7.05855 -36.2654 16.8993
-9.19163 -33.8691 1.4826
8.9982 44.9298 -27.1731
-10.0213 -34.3013 -0.0804285
11.8874 82.4732 -3.33017
8.18873 -3.00266 -8.81844
-28.048 -12.2564 -2.77379
0.0 0.0 0.0
-14.2773 22.49 17.5912
0.0 0.0 0.0
-37.5588 -64.8153 28.7954
-0.321877 19.0694 2.06003
-4.1305 -11.5379 -1.60948
0.0 0.0 0.0
0.0 0.0 0.0
0.0 0.0 0.0
0.0 0.0 0.0
0.0 0.0 0.0
0.0 0.0 0.0
0.0 0.0 0.0
0.0 0.0 0.0
0.0 0.0 0.0
0.0 0.0 0.0
0.0 0.0 0.0
0.0 0.0 0.0
0.0 0.0 0.0
0.0 0.0 0.0
0.0 0.0 0.0
0.0 0.0 0.0
0.0 0.0 0.0
0.0 0.0 0.0
0.0 0.0 0.0
0.0 0.0 0.0
0.0 0.0 0.0
0.0 0.0 0.0
0.0 0.0 0.0
0.0 0.0 0.0
0.0 0.0 0.0
0.0 0.0 0.0
0.0 0.0 0.0
0.0 0.0 0.0
0.0 0.0 0.0
0.0 0.0 0.0
0.0 0.0 0.0
0.0 0.0 0.0
0.0 0.0 0.0
0.0 0.0 0.0
0.0 0.0 0.0
0.0 0.0 0.0
0.0 0.0 0.0
0.0 0.0 0.0
0.0 0.0 0.0
0.0 0.0 0.0
0.0 0.0 0.0
0.0 0.0 0.0
0.0 0.0 0.0
0.0 0.0 0.0
0.0 0.0 0.0
0.0 0.0 0.0
0.0 0.0 0.0
0.0 0.0 0.0
0.0 0.0 0.0
0.0 0.0 0.0
0.0 0.0 0.0
0.0 0.0 0.0
0.0 0.0 0.0
0.0 0.0 0.0
0.0 0.0 0.0
0.0 0.0 0.0
0.0 0.0 0.0
0.0 0.0 0.0
0.0 0.0 0.0
0.0 0.0 0.0
0.0 0.0 0.0
0.0 0.0 0.0
0.0 0.0 0.0
0.0 0.0 0.0
0.0 0.0 0.0
0.0 0.0 0.0
0.0 0.0 0.0
0.0 0.0 0.0
0.0 0.0 0.0
0.0 0.0 0.0
0.0 0.0 0.0
0.0 0.0 0.0
0.0 0.0 0.0
0.0 0.0 0.0
0.0 0.0 0.0
0.0 0.0 0.0
0.0 0.0 0.0
VECTORS v float
1.18419 -0.141692 0.112587
1.87257 0.42631 0.229881
2.15932 -0.0480473 0.112451
1.98277 0.0262525 -0.000262206
0.784315 -0.270782 0.43511
1.82448 -0.185639 -0.140694
1.88225 -0.359068 -0.023191
2.17161 -0.262569 0.174094
1.22485 -0.152113 -0.619509
1.52276 0.0687561 0.439535
0.405912 0.137128 -0.645403
1.5994 -0.217605 0.0140695
2.16475 -0.357756 -0.053203
1.14266 -0.206781 -1.07858
1.60079 -0.00333441 0.0804063
1.60102 0.147806 -0.0546074
2.40887 -0.245125 0.000118565
1.94157 -0.339344 -3.09825e-05
1.031 0.222586 -1.24535
1.90196 0.210525 -0.0679048
2.5709 -0.0871392 0.00780659
1.59862 0.145954 0.00789896
2.19676 0.0343488 -0.0695807
1.63308 -0.0958674 0.350507
1.26754 -0.0410186 -0.0420049
1.74765 0.39425 0.0233813
1.79681 -0.0384582 -0.184054
1.97047 0.148686 -0.435071
1.3573 0.144078 -0.103638
2.20493 0.117118 -0.0452716
2.48436 0.146985 0.000197664
0.733521 0.288722 -0.972029
1.24894 0.0785854 -0.0798154
1.80833 0.442599 -0.166059
1.60645 0.110129 0.0297044
2.47988 0.279678 -0.169848
1.85463 0.336433 0.0476535
2.09839 0.240717 -0.0151578
-0.162301 0.0922564 -0.00182754
1.85285 0.371564 0.0133635
1.72911 0.149694 -0.0146038
2.19549 0.463199 -0.133004
2.70057 0.0542955 2.38832e-05
1.67676 0.0700099 0.0658819
1.72736 -0.0658826 -0.0609212
1.32733 -0.118342 0.104585
1.84199 -0.0979599 0.103428
2.19783 -0.0398618 0.0659229
1.17014 0.245232 -0.285997
1.20365 -0.649915 0.0363999
-0.400054 -0.202015 -0.980745
0.260409 -0.224223 -0.218329
0.889234 -0.20798 -0.217971
1.35705 -0.601764 -0.152453
1.42031 -0.368074 0.131007
-0.91941 -0.566641 -1.23041
0.322867 -0.495807 -0.486222
0.983633 -0.281695 0.776167
0.656272 0.0546634 0.487475
0.637501 0.0537546 -0.633417
0.702834 -0.261102 -0.144213
1.01996 0.26329 0.270017
0.0 0.0 -3.18336
0.621477 -0.052824 -0.471035
0.58036 0.590555 0.184395
1.76525 0.485117 0.228164
0.189978 0.637587 -1.00206
1.77223 0.0960884 -0.151462
0.977061 -0.557079 -1.71763
0.809335 -0.159509 -0.457741
0.334481 -0.351674 -1.03006
1.02097 0.124104 -1.52861
0.580554 0.638618 0.172234
0.0 0.0 -3.0939
-0.794044 -0.0104888 -1.26127
0.853633 0.00328995 -0.0393831
1.39052 0.105394 -0.123327
-0.573954 0.258257 -0.4396
0.845228 0.0803039 -1.7811
1.79971 0.280538 0.11821
0.663295 1.04463 0.0134543
0.209615 -0.216765 -0.858848
0.398319 -0.726875 -1.42025
0.0127211 -0.0251016 -0.473971
0.946905 -0.105495 -1.51597
0.187845 -0.205569 -0.310337
1.51129 -0.289745 -0.281267
2.12519 -0.562156 -0.475507
-0.10417 0.447334 -0.746624
0.891829 -0.136019 -0.127606
1.39613 -0.0257493 1.56378
0.623776 -0.173791 -0.76828
-0.165682 -0.379368 -1.37864
0.0 0.0 -2.81372
0.758341 -0.168291 -1.97269
0.0 0.0 -2.76987
0.690883 1.24682 0.395865
0.25185 -0.0299696 -2.38591
-0.126206 0.0173731 -2.49362
0.0 0.0 -2.66971
0.0 0.0 -2.66265
0.0 0.0 -2.63744
0.0 0.0 -2.69218
0.0 0.0 -2.64008
0.0 0.0 -2.60389
0.0 0.0 -2.51923
0.0 0.0 -2.56602
0.0 0.0 -2.36128
0.0 0.0 -2.42868
0.0 0.0 -2.39591
0.0 0.0 -2.38287
0.0 0.0 -2.35265
0.0 0.0 -2.45291
0.0 0.0 -2.38885
0.0 0.0 -2.43849
0.0 0.0 -2.26436
0.0 0.0 -2.27515
0.0 0.0 -2.28585
0.0 0.0 -2.22532
0.0 0.0 -2.09632
0.0 0.0 -1.994
0.0 0.0 -2.02196
0.0 0.0 -2.02637
0.0 0.0 -2.11113
0.0 0.0 -2.01607
0.0 0.0 -1.82566
0.0 0.0 -1.93308
0.0 0.0 -1.94122
0.0 0.0 -1.87324
0.0 0.0 -1.85322
0.0 0.0 -1.93906
0.0 0.0 -1.90453
0.0 0.0 -1.9322
0.0 0.0 -1.70735
0.0 0.0 -1.75532
0.0 0.0 -1.69548
0.0 0.0 -1.74492
0.0 0.0 -1.33849
0.0 0.0 -1.42129
0.0 0.0 -1.34222
0.0 0.0 -1.52861
0.0 0.0 -1.4826
0.0 0.0 -1.5034
0.0 0.0 -1.3486
0.0 0.0 -1.37136
0.0 0.0 -1.44709
0.0 0.0 -1.37734
0.0 0.0 -1.46956
0.0 0.0 -1.49545
0.0 0.0 -1.11208
0.0 0.0 -1.27708
0.0 0.0 -1.1783
0.0 0.0 -1.04979
0.0 0.0 -1.06999
0.0 0.0 -1.11934
0.0 0.0 -1.01888
0.0 0.0 -1.16751
0.0 0.0 -1.29307
-0 -0 -1.0
-0 -0 -1.0
-0 -0 -1.0
-0 -0 -1.0
-0 -0 -1.0
-0 -0 -1.0
-0 -0 -1.0
-0 -0 -1.0
-0 -0 -1.0
-0 -0 -1.0
0.0 0.0 -1.00152
-0 -0 -1.0
-0 -0 -1.0
-0 -0 -1.0
-0 -0 -1.0
-0 -0 -1.0
-0 -0 -1.0
-0 -0 -1.0
SCALARS radius float 1
LOOKUP_TABLE default
0.03
0.03
0.03
0.03
0.03
0.03
0.03
0.03
0.03
0.03
0.03
0.03
0.03
0.03
0.03
0.03
0.03
0.03
0.03
0.03
0.03
0.03
0.03
0.03
0.03
0.03
0.03
0.03
0.03
0.03
0.03
0.03
0.03
0.03
0.03
0.03
0.03
0.03
0.03
0.03
0.03
0.03
0.03
0.03
0.03
0.03
0.03
0.03
0.03
0.03
0.03
0.03
0.03
0.03
0.03
0.03
0.03
0.03
0.03
0.03
0.03
0.03
0.03
0.03
0.03
0.03
0.03
0.03
0.03
0.03
0.03
0.03
0.03
0.03
0.03
0.03
0.03
0.03
0.03
0.03
0.03
0.03
0.03
0.03
0.03
0.03
0.03
0.03
0.03
0.03
0.03
0.03
0.03
0.03
0.03
0.03
0.03
0.03
0.03
0.03
0.03
0.03
0.03
0.03
0.03
0.03
0.03
0.03
0.03
0.03
0.03
0.03
0.03
0.03
0.03
0.03
0.03
0.03
0.03
0.03
0.03
0.03
0.03
0.03
0.03
0.03
0.03
0.03
0.03
0.03
0.03
0.03
0.03
0.03
0.03
0.03
0.03
0.03
0.03
0.03
0.03
0.03
0.03
0.03
0.03
0.03
0.03
0.03
0.03
0.03
0.03
0.03
0.03
0.03
0.03
0.03
0.03
0.03
0.03
0.03
0.03
0.03
0.03
0.03
0.03
0.03
0.03
0.03
0.03
0.03
0.03
0.03
0.03
0.03
0.03
0.03
SCALARS type float 1
LOOKUP_TABLE default
1.0
1.0
1.0
1.0
1.0
1.0
1.0
1.0
1.0
1.0
1.0
1.0
1.0
1.0
1.0
1.0
1.0
1.0
1.0
1.0
1.0
1.0
1.0
1.0
1.0
1.0
1.0
1.0
1.0
1.0
1.0
1.0
1.0
1.0
1.0
1.0
1.0
1.0
1.0
1.0
1.0
1.0
1.0
1.0
1.0
1.0
1.0
1.0
1.0
1.0
1.0
1.0
1.0
1.0
1.0
1.0
1.0
1.0
1.0
1.0
1.0
1.0
1.0
1.0
1.0
1.0
1.0
1.0
1.0
1.0
1.0
1.0
1.0
1.0
1.0
1.0
1.0
1.0
1.0
1.0
1.0
1.0
1.0
1.0
1.0
1.0
1.0
1.0
1.0
1.0
1.0
1.0
1.0
1.0
1.0
1.0
1.0
1.0
1.0
1.0
1.0
1.0
1.0
1.0
1.0
1.0
1.0
1.0
1.0
1.0
1.0
1.0
1.0
1.0
1.0
1.0
1.0
1.0
1.0
1.0
1.0
1.0
1.0
1.0
1.0
1.0
1.0
1.0
1.0
1.0
1.0
1.0
1.0
1.0
1.0
1.0
1.0
1.0
1.0
1.0
1.0
1.0
1.0
1.0
1.0
1.0
1.0
1.0
1.0
1.0
1.0
1.0
1.0
1.0
1.0
1.0
1.0
1.0
1.0
1.0
1.0
1.0
1.0
1.0
1.0
1.0
1.0
1.0
1.0
1.0
1.0
1.0
1.0
1.0
1.0
1.0
SCALARS id float 1
LOOKUP_TABLE default
128.0
73.0
123.0
137.0
148.0
81.0
105.0
100.0
60.0
15.0
146.0
49.0
129.0
116.0
79.0
127.0
145.0
92.0
5.0
29.0
104.0
31.0
99.0
76.0
71.0
149.0
144.0
112.0
80.0
41.0
138.0
118.0
61.0
4.0
21.0
24.0
166.0
16.0
17.0
51.0
85.0
151.0
18.0
66.0
167.0
108.0
171.0
94.0
32.0
1.0
46.0
64.0
42.0
19.0
45.0
70.0
47.0
93.0
57.0
83.0
131.0
152.0
77.0
164.0
12.0
97.0
2.0
53.0
140.0
72.0
23.0
157.0
133.0
176.0
28.0
44.0
82.0
75.0
110.0
98.0
174.0
10.0
155.0
55.0
136.0
26.0
173.0
130.0
91.0
68.0
107.0
67.0
102.0
63.0
30.0
52.0
125.0
135.0
156.0
35.0
25.0
165.0
163.0
143.0
22.0
120.0
101.0
86.0
40.0
8.0
113.0
33.0
134.0
162.0
159.0
13.0
58.0
78.0
109.0
139.0
43.0
121.0
153.0
87.0
37.0
158.0
69.0
117.0
147.0
150.0
115.0
119.0
168.0
27.0
38.0
90.0
170.0
114.0
7.0
14.0
48.0
3.0
50.0
54.0
95.0
103.0
65.0
11.0
111.0
141.0
62.0
169.0
59.0
74.0
56.0
96.0
154.0
161.0
126.0
89.0
124.0
36.0
142.0
175.0
122.0
172.0
34.0
9.0
6.0
84.0
39.0
132.0
106.0
20.0
88.0
160.0
SCALARS Temp float 1
LOOKUP_TABLE default
313.08
303.628
325.2
324.97
303.856
303.965
326.819
306.691
301.136
306.682
310.169
330.104
328.905
300.565
317.764
303.875
314.91
320.999
306.719
325.688
315.623
306.35
318.958
322.273
310.894
319.155
309.982
318.347
306.154
327.09
318.132
303.937
314.219
301.439
326.41
304.43
324.797
314.793
303.309
317.781
328.648
303.374
323.486
326.432
324.931
319.347
303.478
311.995
300.427
300.619
300.035
300.21
304.116
300.333
300.517
300.022
300.556
300.314
300.166
300.155
301.118
304.027
300.0
300.26
300.439
306.615
300.842
304.139
300.002
300.269
300.184
300.002
300.913
300.0
300.001
300.343
303.961
300.011
300.094
317.581
300.259
300.002
300.001
300.01
300.0
300.013
300.001
300.005
300.278
300.017
300.048
300.005
300.002
300.0
300.001
300.0
300.009
300.0
300.0
300.0
300.0
300.0
300.0
300.0
300.0
300.0
300.0
300.0
300.0
300.0
300.0
300.0
300.0
300.0
300.0
300.0
300.0
300.0
300.0
300.0
300.0
300.0
300.0
300.0
300.0
300.0
300.0
300.0
300.0
300.0
300.0
300.0
300.0
300.0
300.0
300.0
300.0
300.0
300.0
300.0
300.0
300.0
300.0
300.0
300.0
300.0
300.0
300.0
300.0
300.0
300.0
300.0
300.0
300.0
300.0
300.0
300.0
300.0
300.0
300.0
300.0
300.0
300.0
300.0
300.0
300.0
300.0
300.0
300.0
300.0
300.0
300.0
300.0
300.0
300.0
300.0

