# vtk DataFile Version 2.0
Generated by lpp.py
ASCII
DATASET POLYDATA
POINTS 352 float
0.0457626 0.169003 1.5973
0.387558 0.180917 1.58063
0.449211 0.175175 1.59042
0.529348 0.177425 1.587
0.587502 0.193459 1.57856
0.740021 0.184098 1.57885
0.882492 0.181561 1.58138
0.944023 0.186037 1.57694
1.01696 0.178916 1.58392
1.07514 0.188974 1.57615
1.21354 0.186202 1.57681
1.28763 0.179092 1.58391
0.309704 0.198981 1.57743
1.13077 0.209544 1.57854
1.25505 0.229264 1.57839
0.16905 0.250083 1.57795
0.449049 0.236282 1.57804
0.536012 0.236796 1.57705
0.634863 0.244119 1.57991
0.769623 0.247474 1.57694
0.855976 0.24068 1.57926
0.968199 0.242125 1.57686
1.03352 0.23962 1.57687
1.17732 0.257481 1.57684
1.33035 0.234287 1.57686
0.284108 0.278781 1.58043
0.341254 0.286926 1.59321
0.557957 0.290577 1.59317
0.709135 0.293978 1.57656
0.929939 0.294936 1.57688
1.23141 0.287772 1.57677
0.126771 0.339236 1.58253
0.225618 0.313503 1.58065
0.430651 0.326634 1.577
0.501874 0.302394 1.5776
0.643363 0.306048 1.57685
0.764981 0.309409 1.59044
0.176198 0.371809 1.57688
0.27049 0.370309 1.57689
0.325522 0.345338 1.57829
0.589119 0.338355 1.57769
0.727211 0.353063 1.57662
0.896372 0.351611 1.57686
0.429963 0.385944 1.58426
0.558709 0.389167 1.57756
0.642274 0.397415 1.57695
0.962459 0.382041 1.57686
1.02396 0.395801 1.57686
1.16164 0.374525 1.59355
0.173388 0.44268 1.57674
0.2197 0.408569 1.59664
0.39378 0.433295 1.57688
0.708419 0.410401 1.57611
0.849476 0.416223 1.57689
1.12662 0.420722 1.57687
0.268554 0.448236 1.57426
0.458967 0.474238 1.57683
0.710527 0.473626 1.57846
0.790884 0.46156 1.57914
0.902285 0.4475 1.57686
0.972544 0.46359 1.57796
1.39859 0.461877 1.57686
0.118532 0.489502 1.57877
0.35951 0.484563 1.57636
0.528952 0.498727 1.57645
0.644126 0.505363 1.57693
0.823853 0.511153 1.57785
0.0626979 0.551035 1.57665
0.312981 0.522312 1.57959
0.901111 0.519204 1.58299
1.14632 0.530247 1.57683
1.28286 0.52735 1.57687
1.47626 0.528547 1.57686
0.214294 0.562503 1.57832
0.338097 0.576453 1.59087
0.437816 0.565147 1.57636
0.499789 0.566421 1.57937
0.615857 0.564875 1.57684
0.679488 0.567976 1.57693
0.856984 0.563853 1.57685
0.916179 0.582941 1.59432
0.986461 0.556039 1.57686
1.04878 0.576695 1.58611
1.20764 0.557141 1.57696
1.25979 0.582252 1.59299
1.32473 0.573248 1.5829
0.578397 0.143364 1.61943
0.0837953 0.211243 1.62908
0.194787 0.211896 1.61654
0.911857 0.231503 1.59825
0.297352 0.237941 1.62813
0.357177 0.228624 1.61455
0.688758 0.24762 1.60855
0.0884137 0.294476 1.62148
0.179166 0.274476 1.63442
0.401129 0.274281 1.59335
0.816416 0.280568 1.59956
0.87672 0.288938 1.61286
0.482032 0.364536 1.60584
0.616466 0.345049 1.63268
0.336435 0.401197 1.60805
0.571149 0.396058 1.63962
0.758001 0.396093 1.60509
0.608045 0.442938 1.60269
0.771878 0.443641 1.63832
0.206735 0.480878 1.6079
0.305483 0.465701 1.61599
0.840365 0.46607 1.61433
0.265229 0.511261 1.62843
0.408724 0.503594 1.60207
0.571773 0.507609 1.61616
0.731252 0.49895 1.63272
0.14697 0.541181 1.59429
0.779121 0.547748 1.60108
0.404695 0.599126 1.62423
0.580823 0.613367 1.62254
0.442189 0.0943622 1.66937
0.713863 0.104012 1.66061
0.423425 0.153043 1.64945
0.664818 0.126789 1.63615
0.949733 0.13489 1.63609
0.392696 0.227973 1.6659
0.449458 0.206746 1.64138
0.922522 0.218536 1.66087
0.24105 0.269164 1.65991
0.454223 0.275011 1.6466
0.776834 0.296709 1.64736
0.224515 0.32738 1.64038
0.363715 0.315931 1.63984
0.289378 0.367999 1.64556
0.445091 0.341652 1.66093
0.138313 0.377664 1.63874
0.394778 0.378641 1.63452
0.442382 0.405828 1.66445
0.961276 0.392398 1.63624
0.0849204 0.416083 1.64078
0.650345 0.413635 1.63537
0.153935 0.462725 1.65051
0.247751 0.446207 1.65175
0.406318 0.454032 1.63615
0.533106 0.458927 1.63863
0.354438 0.511526 1.63631
0.456702 0.511794 1.63476
0.963399 0.508145 1.64597
0.203623 0.534548 1.63273
0.916929 0.551465 1.65608
0.646387 0.591664 1.6375
0.774543 0.619694 1.63574
0.791997 0.209066 1.69191
0.300152 0.267109 1.67669
0.266556 0.319223 1.68084
0.120302 0.339932 1.6813
0.233484 0.373801 1.67585
0.376334 0.356003 1.6887
0.505895 0.406964 1.67496
0.324846 0.452019 1.67083
0.606922 0.470858 1.67657
0.39175 0.480711 1.68777
0.515591 0.51193 1.65859
0.662397 0.53773 1.66734
0.497016 0.58662 1.68627
0.689422 0.637898 1.67692
0.796436 0.664215 1.67339
0.478513 0.241448 1.70997
0.200031 0.295208 1.71261
0.435833 0.349886 1.71822
0.251155 0.467293 1.70528
0.124302 0.506318 1.68442
0.136955 0.241756 1.72011
0.352336 0.290052 1.73045
0.18594 0.400862 1.73363
0.288982 0.398489 1.71738
0.41824 0.41741 1.71905
0.485548 0.450278 1.7336
0.302009 0.506095 1.72901
0.473517 0.305435 1.78821
0.485376 0.385518 1.75707
0.106832 0.451129 1.7643
0.195772 0.344168 1.81796
0.323211 0.457255 1.8081
0.180109 0.517525 1.80497
0.136852 0.289242 1.84275
0.416409 0.288456 1.84566
0.269256 0.359202 1.85848
0.218921 0.397847 1.85901
0.428381 0.4467 1.85084
0.398493 0.508779 1.83196
0.211371 0.280829 1.87228
0.305852 0.287522 1.89385
0.485374 0.358108 1.88574
0.349719 0.399621 1.87319
0.422187 0.378047 1.8923
0.169637 0.459874 1.88788
0.245914 0.511668 1.87064
0.466202 0.49757 1.86514
0.103225 0.518985 1.89358
0.260718 0.244031 1.90176
0.499385 0.279499 1.90502
0.373442 0.329195 1.90796
0.102791 0.340368 1.90889
0.174537 0.231131 1.95298
0.346739 0.243699 1.94674
0.411604 0.238101 1.93814
0.108104 0.281799 1.95161
0.157239 0.333515 1.95597
0.478405 0.411198 1.9493
0.370548 0.454286 1.95288
0.209404 0.487055 1.96088
0.283642 0.234209 2.00456
0.469838 0.243492 1.97947
0.268169 0.352895 2.00458
0.478946 0.338932 2.00547
0.121741 0.410905 1.99875
0.189941 0.428545 1.9816
0.267329 0.456169 1.98231
0.43276 0.446836 1.98108
0.496878 0.474265 2.00587
0.122063 0.498448 1.99724
0.341446 0.508108 1.97453
0.429885 0.51089 1.99356
0.144959 0.253084 2.02845
0.225054 0.287898 2.01361
0.353756 0.288308 2.031
0.419349 0.297497 2.04139
0.107864 0.308056 2.04364
0.216531 0.381594 2.04634
0.33513 0.393755 2.02596
0.434422 0.399982 2.03905
0.177321 0.473873 2.04219
0.3755 0.471214 2.03822
0.287754 0.512498 2.0293
0.222298 0.231508 2.04943
0.482317 0.228242 2.07854
0.386528 0.235346 2.07474
0.17305 0.29572 2.07163
0.280967 0.269166 2.07746
0.32031 0.335135 2.0567
0.289149 0.393948 2.07364
0.10269 0.478868 2.08007
0.265427 0.473439 2.07144
0.487332 0.44601 2.07319
0.230707 0.52291 2.06918
0.100828 0.246005 2.09484
0.334084 0.267131 2.10623
0.383935 0.304407 2.11118
0.470734 0.315695 2.08592
0.189473 0.369831 2.11465
0.383297 0.361785 2.09306
0.142292 0.405308 2.08272
0.495324 0.379459 2.09665
0.238696 0.425254 2.10413
0.338206 0.47604 2.09542
0.405771 0.451899 2.09402
0.477819 0.52568 2.091
0.410316 0.229607 2.13717
0.227735 0.245208 2.12361
0.479511 0.263195 2.1325
0.283481 0.328862 2.12466
0.488965 0.329122 2.15107
0.104364 0.371175 2.11875
0.433942 0.344323 2.12524
0.124882 0.444445 2.12537
0.292698 0.428673 2.13157
0.367427 0.412219 2.12779
0.436973 0.45447 2.1486
0.498994 0.449521 2.14904
0.387806 0.497135 2.13601
0.10683 0.52412 2.14027
0.498691 0.522189 2.15147
0.307197 0.231054 2.15934
0.112238 0.243444 2.16138
0.196779 0.286134 2.17798
0.338106 0.302046 2.16158
0.144627 0.329159 2.16743
0.388723 0.350133 2.17272
0.179678 0.383211 2.18608
0.26384 0.382845 2.16039
0.180002 0.445959 2.18427
0.336562 0.447813 2.1753
0.197767 0.505506 2.15969
0.316599 0.507618 2.17974
0.299287 0.247375 2.21679
0.442411 0.236129 2.21895
0.498503 0.253983 2.19572
0.432796 0.302258 2.20979
0.322732 0.35929 2.19017
0.476186 0.343657 2.21982
0.499396 0.409304 2.21395
0.404531 0.416433 2.18679
0.230608 0.478968 2.20273
0.133145 0.50156 2.1951
0.4192 0.521596 2.18807
0.196226 0.26238 2.24567
0.356376 0.254196 2.2477
0.126939 0.284236 2.22643
0.187834 0.32549 2.23014
0.256147 0.321804 2.24011
0.345572 0.308923 2.22327
0.110703 0.374435 2.24211
0.415762 0.389621 2.24827
0.282511 0.427246 2.23226
0.107302 0.455042 2.24596
0.180798 0.510604 2.23163
0.383426 0.485675 2.2255
0.49838 0.508374 2.25212
0.271982 0.260644 2.2808
0.321856 0.294278 2.27913
0.44222 0.295647 2.27067
0.346145 0.350757 2.27426
0.282424 0.374546 2.28858
0.475094 0.383761 2.26966
0.214879 0.429082 2.25971
0.466199 0.451954 2.27462
0.104255 0.515661 2.28241
0.236464 0.494005 2.27237
0.430217 0.500721 2.27499
0.339305 0.526873 2.26754
0.103324 0.228818 2.30871
0.161403 0.258279 2.30827
0.363615 0.240431 2.31399
0.425069 0.242959 2.31512
0.499192 0.246026 2.31267
0.125428 0.344451 2.29441
0.189012 0.364304 2.30306
0.415188 0.353574 2.29906
0.115455 0.44409 2.3045
0.323589 0.424937 2.2971
0.40415 0.414672 2.31454
0.158807 0.499296 2.32065
0.370433 0.49856 2.31148
0.264146 0.523422 2.31795
0.220666 0.238837 2.35734
0.257372 0.298287 2.34437
0.417494 0.317622 2.36147
0.31493 0.348737 2.33385
0.484684 0.362834 2.34124
0.125062 0.39201 2.34589
0.217234 0.387064 2.35563
0.417911 0.469013 2.35692
0.393674 0.233628 2.37132
0.17717 0.298235 2.3692
0.314466 0.284399 2.36272
0.492483 0.279077 2.3644
0.107591 0.339963 2.37367
0.385775 0.387923 2.37657
0.449749 0.403068 2.36884
0.139724 0.459766 2.37164
0.263093 0.452487 2.36205
0.486571 0.452792 2.36556
0.220758 0.508511 2.36861
0.312076 0.491969 2.3676
0.490194 0.521396 2.37111
VERTICES 352 704
1 0
1 1
1 2
1 3
1 4
1 5
1 6
1 7
1 8
1 9
1 10
1 11
1 12
1 13
1 14
1 15
1 16
1 17
1 18
1 19
1 20
1 21
1 22
1 23
1 24
1 25
1 26
1 27
1 28
1 29
1 30
1 31
1 32
1 33
1 34
1 35
1 36
1 37
1 38
1 39
1 40
1 41
1 42
1 43
1 44
1 45
1 46
1 47
1 48
1 49
1 50
1 51
1 52
1 53
1 54
1 55
1 56
1 57
1 58
1 59
1 60
1 61
1 62
1 63
1 64
1 65
1 66
1 67
1 68
1 69
1 70
1 71
1 72
1 73
1 74
1 75
1 76
1 77
1 78
1 79
1 80
1 81
1 82
1 83
1 84
1 85
1 86
1 87
1 88
1 89
1 90
1 91
1 92
1 93
1 94
1 95
1 96
1 97
1 98
1 99
1 100
1 101
1 102
1 103
1 104
1 105
1 106
1 107
1 108
1 109
1 110
1 111
1 112
1 113
1 114
1 115
1 116
1 117
1 118
1 119
1 120
1 121
1 122
1 123
1 124
1 125
1 126
1 127
1 128
1 129
1 130
1 131
1 132
1 133
1 134
1 135
1 136
1 137
1 138
1 139
1 140
1 141
1 142
1 143
1 144
1 145
1 146
1 147
1 148
1 149
1 150
1 151
1 152
1 153
1 154
1 155
1 156
1 157
1 158
1 159
1 160
1 161
1 162
1 163
1 164
1 165
1 166
1 167
1 168
1 169
1 170
1 171
1 172
1 173
1 174
1 175
1 176
1 177
1 178
1 179
1 180
1 181
1 182
1 183
1 184
1 185
1 186
1 187
1 188
1 189
1 190
1 191
1 192
1 193
1 194
1 195
1 196
1 197
1 198
1 199
1 200
1 201
1 202
1 203
1 204
1 205
1 206
1 207
1 208
1 209
1 210
1 211
1 212
1 213
1 214
1 215
1 216
1 217
1 218
1 219
1 220
1 221
1 222
1 223
1 224
1 225
1 226
1 227
1 228
1 229
1 230
1 231
1 232
1 233
1 234
1 235
1 236
1 237
1 238
1 239
1 240
1 241
1 242
1 243
1 244
1 245
1 246
1 247
1 248
1 249
1 250
1 251
1 252
1 253
1 254
1 255
1 256
1 257
1 258
1 259
1 260
1 261
1 262
1 263
1 264
1 265
1 266
1 267
1 268
1 269
1 270
1 271
1 272
1 273
1 274
1 275
1 276
1 277
1 278
1 279
1 280
1 281
1 282
1 283
1 284
1 285
1 286
1 287
1 288
1 289
1 290
1 291
1 292
1 293
1 294
1 295
1 296
1 297
1 298
1 299
1 300
1 301
1 302
1 303
1 304
1 305
1 306
1 307
1 308
1 309
1 310
1 311
1 312
1 313
1 314
1 315
1 316
1 317
1 318
1 319
1 320
1 321
1 322
1 323
1 324
1 325
1 326
1 327
1 328
1 329
1 330
1 331
1 332
1 333
1 334
1 335
1 336
1 337
1 338
1 339
1 340
1 341
1 342
1 343
1 344
1 345
1 346
1 347
1 348
1 349
1 350
1 351
POINT_DATA 352
VECTORS i float
0.0 0.0 0.0
0.0 0.0 0.0
0.0 0.0 0.0
0.0 0.0 0.0
0.0 0.0 0.0
0.0 0.0 0.0
0.0 0.0 0.0
0.0 0.0 0.0
0.0 0.0 0.0
0.0 0.0 0.0
0.0 0.0 0.0
0.0 0.0 0.0
0.0 0.0 0.0
0.0 0.0 0.0
0.0 0.0 0.0
0.0 0.0 0.0
0.0 0.0 0.0
0.0 0.0 0.0
0.0 0.0 0.0
0.0 0.0 0.0
0.0 0.0 0.0
0.0 0.0 0.0
0.0 0.0 0.0
0.0 0.0 0.0
0.0 0.0 0.0
0.0 0.0 0.0
0.0 0.0 0.0
0.0 0.0 0.0
0.0 0.0 0.0
0.0 0.0 0.0
0.0 0.0 0.0
0.0 0.0 0.0
0.0 0.0 0.0
0.0 0.0 0.0
0.0 0.0 0.0
0.0 0.0 0.0
0.0 0.0 0.0
0.0 0.0 0.0
0.0 0.0 0.0
0.0 0.0 0.0
0.0 0.0 0.0
0.0 0.0 0.0
0.0 0.0 0.0
0.0 0.0 0.0
0.0 0.0 0.0
0.0 0.0 0.0
0.0 0.0 0.0
0.0 0.0 0.0
0.0 0.0 0.0
0.0 0.0 0.0
0.0 0.0 0.0
0.0 0.0 0.0
0.0 0.0 0.0
0.0 0.0 0.0
0.0 0.0 0.0
0.0 0.0 0.0
0.0 0.0 0.0
0.0 0.0 0.0
0.0 0.0 0.0
0.0 0.0 0.0
0.0 0.0 0.0
0.0 0.0 0.0
0.0 0.0 0.0
0.0 0.0 0.0
0.0 0.0 0.0
0.0 0.0 0.0
0.0 0.0 0.0
0.0 0.0 0.0
0.0 0.0 0.0
0.0 0.0 0.0
0.0 0.0 0.0
0.0 0.0 0.0
0.0 0.0 0.0
0.0 0.0 0.0
0.0 0.0 0.0
0.0 0.0 0.0
0.0 0.0 0.0
0.0 0.0 0.0
0.0 0.0 0.0
0.0 0.0 0.0
0.0 0.0 0.0
0.0 0.0 0.0
0.0 0.0 0.0
0.0 0.0 0.0
0.0 0.0 0.0
0.0 0.0 0.0
0.0 0.0 0.0
0.0 0.0 0.0
0.0 0.0 0.0
0.0 0.0 0.0
0.0 0.0 0.0
0.0 0.0 0.0
0.0 0.0 0.0
0.0 0.0 0.0
0.0 0.0 0.0
0.0 0.0 0.0
0.0 0.0 0.0
0.0 0.0 0.0
0.0 0.0 0.0
0.0 0.0 0.0
0.0 0.0 0.0
0.0 0.0 0.0
0.0 0.0 0.0
0.0 0.0 0.0
0.0 0.0 0.0
0.0 0.0 0.0
0.0 0.0 0.0
0.0 0.0 0.0
0.0 0.0 0.0
0.0 0.0 0.0
0.0 0.0 0.0
0.0 0.0 0.0
0.0 0.0 0.0
0.0 0.0 0.0
0.0 0.0 0.0
0.0 0.0 0.0
0.0 0.0 0.0
0.0 0.0 0.0
0.0 0.0 0.0
0.0 0.0 0.0
0.0 0.0 0.0
0.0 0.0 0.0
0.0 0.0 0.0
0.0 0.0 0.0
0.0 0.0 0.0
0.0 0.0 0.0
0.0 0.0 0.0
0.0 0.0 0.0
0.0 0.0 0.0
0.0 0.0 0.0
0.0 0.0 0.0
0.0 0.0 0.0
0.0 0.0 0.0
0.0 0.0 0.0
0.0 0.0 0.0
0.0 0.0 0.0
0.0 0.0 0.0
0.0 0.0 0.0
0.0 0.0 0.0
0.0 0.0 0.0
0.0 0.0 0.0
0.0 0.0 0.0
0.0 0.0 0.0
0.0 0.0 0.0
0.0 0.0 0.0
0.0 0.0 0.0
0.0 0.0 0.0
0.0 0.0 0.0
0.0 0.0 0.0
0.0 0.0 0.0
0.0 0.0 0.0
0.0 0.0 0.0
0.0 0.0 0.0
0.0 0.0 0.0
0.0 0.0 0.0
0.0 0.0 0.0
0.0 0.0 0.0
0.0 0.0 0.0
0.0 0.0 0.0
0.0 0.0 0.0
0.0 0.0 0.0
0.0 0.0 0.0
0.0 0.0 0.0
0.0 0.0 0.0
0.0 0.0 0.0
0.0 0.0 0.0
0.0 0.0 0.0
0.0 0.0 0.0
0.0 0.0 0.0
0.0 0.0 0.0
0.0 0.0 0.0
0.0 0.0 0.0
0.0 0.0 0.0
0.0 0.0 0.0
0.0 0.0 0.0
0.0 0.0 0.0
0.0 0.0 0.0
0.0 0.0 0.0
0.0 0.0 0.0
0.0 0.0 0.0
0.0 0.0 0.0
0.0 0.0 0.0
0.0 0.0 0.0
0.0 0.0 0.0
0.0 0.0 0.0
0.0 0.0 0.0
0.0 0.0 0.0
0.0 0.0 0.0
0.0 0.0 0.0
0.0 0.0 0.0
0.0 0.0 0.0
0.0 0.0 0.0
0.0 0.0 0.0
0.0 0.0 0.0
0.0 0.0 0.0
0.0 0.0 0.0
0.0 0.0 0.0
0.0 0.0 0.0
0.0 0.0 0.0
0.0 0.0 0.0
0.0 0.0 0.0
0.0 0.0 0.0
0.0 0.0 0.0
0.0 0.0 0.0
0.0 0.0 0.0
0.0 0.0 0.0
0.0 0.0 0.0
0.0 0.0 0.0
0.0 0.0 0.0
0.0 0.0 0.0
0.0 0.0 0.0
0.0 0.0 0.0
0.0 0.0 0.0
0.0 0.0 0.0
0.0 0.0 0.0
0.0 0.0 0.0
0.0 0.0 0.0
0.0 0.0 0.0
0.0 0.0 0.0
0.0 0.0 0.0
0.0 0.0 0.0
0.0 0.0 0.0
0.0 0.0 0.0
0.0 0.0 0.0
0.0 0.0 0.0
0.0 0.0 0.0
0.0 0.0 0.0
0.0 0.0 0.0
0.0 0.0 0.0
0.0 0.0 0.0
0.0 0.0 0.0
0.0 0.0 0.0
0.0 0.0 0.0
0.0 0.0 0.0
0.0 0.0 0.0
0.0 0.0 0.0
0.0 0.0 0.0
0.0 0.0 0.0
0.0 0.0 0.0
0.0 0.0 0.0
0.0 0.0 0.0
0.0 0.0 0.0
0.0 0.0 0.0
0.0 0.0 0.0
0.0 0.0 0.0
0.0 0.0 0.0
0.0 0.0 0.0
0.0 0.0 0.0
0.0 0.0 0.0
0.0 0.0 0.0
0.0 0.0 0.0
0.0 0.0 0.0
0.0 0.0 0.0
0.0 0.0 0.0
0.0 0.0 0.0
0.0 0.0 0.0
0.0 0.0 0.0
0.0 0.0 0.0
0.0 0.0 0.0
0.0 0.0 0.0
0.0 0.0 0.0
0.0 0.0 0.0
0.0 0.0 0.0
0.0 0.0 0.0
0.0 0.0 0.0
0.0 0.0 0.0
0.0 0.0 0.0
0.0 0.0 0.0
0.0 0.0 0.0
0.0 0.0 0.0
0.0 0.0 0.0
0.0 0.0 0.0
0.0 0.0 0.0
0.0 0.0 0.0
0.0 0.0 0.0
0.0 0.0 0.0
0.0 0.0 0.0
0.0 0.0 0.0
0.0 0.0 0.0
0.0 0.0 0.0
0.0 0.0 0.0
0.0 0.0 0.0
0.0 0.0 0.0
0.0 0.0 0.0
0.0 0.0 0.0
0.0 0.0 0.0
0.0 0.0 0.0
0.0 0.0 0.0
0.0 0.0 0.0
0.0 0.0 0.0
0.0 0.0 0.0
0.0 0.0 0.0
0.0 0.0 0.0
0.0 0.0 0.0
0.0 0.0 0.0
0.0 0.0 0.0
0.0 0.0 0.0
0.0 0.0 0.0
0.0 0.0 0.0
0.0 0.0 0.0
0.0 0.0 0.0
0.0 0.0 0.0
0.0 0.0 0.0
0.0 0.0 0.0
0.0 0.0 0.0
0.0 0.0 0.0
0.0 0.0 0.0
0.0 0.0 0.0
0.0 0.0 0.0
0.0 0.0 0.0
0.0 0.0 0.0
0.0 0.0 0.0
0.0 0.0 0.0
0.0 0.0 0.0
0.0 0.0 0.0
0.0 0.0 0.0
0.0 0.0 0.0
0.0 0.0 0.0
0.0 0.0 0.0
0.0 0.0 0.0
0.0 0.0 0.0
0.0 0.0 0.0
0.0 0.0 0.0
0.0 0.0 0.0
0.0 0.0 0.0
0.0 0.0 0.0
0.0 0.0 0.0
0.0 0.0 0.0
0.0 0.0 0.0
0.0 0.0 0.0
0.0 0.0 0.0
0.0 0.0 0.0
0.0 0.0 0.0
0.0 0.0 0.0
0.0 0.0 0.0
0.0 0.0 0.0
0.0 0.0 0.0
0.0 0.0 0.0
0.0 0.0 0.0
0.0 0.0 0.0
0.0 0.0 0.0
0.0 0.0 0.0
0.0 0.0 0.0
0.0 0.0 0.0
0.0 0.0 0.0
0.0 0.0 0.0
0.0 0.0 0.0
0.0 0.0 0.0
0.0 0.0 0.0
0.0 0.0 0.0
0.0 0.0 0.0
0.0 0.0 0.0
VECTORS f float
0.0 0.0 -2.77371
-2.26814 14.7769 10.9729
-26.0858 1.76112 -11.0424
0.0 0.0 -2.77371
0.0 0.0 -2.77371
-0.000271476 0.985472 -0.992017
0.00691264 1.01345 -0.956116
4.50515 -1.573 0.142892
-0.840833 0.971739 -0.875026
7.65184 2.20107 14.4296
-0.374914 1.80308 2.17531
-0.000302508 0.881407 -0.129494
0.0 0.0 -2.77371
4.27198 1.6734 -0.246148
0.547624 0.62367 -2.33337
0.0 0.0 -2.77371
0.0 0.0 -2.77371
0.666439 0.924372 -5.05284
0.0 0.0 -2.77371
0.493595 0.833812 -0.835798
-3.36885 1.53626 -2.58473
-0.0224261 -0.00446022 0.187916
0.00443445 0.0827057 -0.0280616
-0.00601686 -0.00100718 0.281545
-0.000530011 4.81932e-06 -0.0255887
2.27151 0.0831184 -0.965869
-7.13883 -2.95009 -7.92307
-9.21909 -23.6494 5.18929
1.79157 0.518819 -1.23099
-0.016238 0.0035938 -0.445038
0.747155 -0.755249 0.696003
-4.22012 -3.00472 -4.76524
0.0 0.0 -2.77371
-0.0678047 -0.401362 -0.797461
6.29019 -0.0541467 -3.75302
-0.00306987 -0.00559585 0.0385931
-0.292567 -4.14389 1.50359
5.09069 3.9768 -3.39203
1.1027 -0.656116 -0.207445
0.0 0.0 -2.77371
8.38382 8.42279 -2.41489
-2.7935 2.5669 -2.46716
-0.000363457 -2.5316e-05 -0.00466637
0.566979 1.16065 -2.64526
-5.45492 15.2808 -10.1162
-0.0188814 0.0466354 -1.16215
0.00403033 -0.000365663 0.00201816
-0.00412006 4.82463e-05 0.0380463
0.0 0.0 -2.77371
-13.8672 6.47736 -14.8625
0.0 0.0 -2.77371
0.315197 -0.402205 -3.79571
1.72493 -0.513245 2.19539
0.0122367 0.000233104 -0.357283
0.021254 -0.00562533 0.077892
43.8981 10.8238 64.6821
1.4386 0.517049 0.283679
0.0 0.0 -2.77371
-14.3409 -15.984 -12.3712
0.000270108 -8.68913e-06 -0.00755311
0.0 0.0 -2.77371
-5.2457e-11 5.17418e-12 1.15786e-10
0.0 0.0 -2.77371
86.6235 18.12 48.6358
-6.18365 -6.79505 -23.4999
0.00254916 -0.000480169 -0.872425
14.3409 15.984 6.82376
-0.0440425 0.0252644 3.07988
0.0 0.0 -2.77371
0.0 0.0 -2.77371
-0.180226 0.0788573 -1.75169
0.0104541 -0.0293883 -0.223869
-2.4181e-12 2.69e-14 -1.33276e-11
0.0 0.0 -2.77371
0.0 0.0 -2.77371
15.5111 0.743424 28.2841
0.0 0.0 -2.77371
-0.0410959 -9.60902e-05 -0.10681
0.28688 -2.55246 1.73444
-0.0706538 -0.0127895 0.372547
0.0 0.0 -2.77371
-0.00143854 -0.000146473 -0.0261535
-0.34235 2.21775 -4.61662
0.647335 0.258873 -1.37935
0.0 0.0 -2.77371
0.0 0.0 -2.77371
0.239344 2.32662 1.05865
0.0 0.0 -2.77371
0.0 0.0 -2.77371
-0.0925533 0.798815 -2.63763
2.51345 -29.3802 -44.4141
0.0 0.0 -2.77371
-0.289597 -0.220067 -2.38244
0.0 0.0 -2.77371
0.0 0.0 -2.77371
0.0 0.0 -2.77371
1.2746 -0.287292 -3.53485
0.0 0.0 -2.77371
0.0 0.0 -2.77371
0.0 0.0 -2.77371
0.0 0.0 -2.77371
0.0 0.0 -2.77371
1.92166 0.705825 1.02912
0.0 0.0 -2.77371
0.160363 -1.80447 -3.27737
-17.3295 -34.7462 -15.3371
17.6754 9.86565 59.8398
0.0 0.0 -2.77371
0.0 0.0 -2.77371
12.1132 2.2189 21.1804
14.8596 3.44307 36.5543
0.0 0.0 -2.77371
0.0 0.0 -2.77371
0.0 0.0 -2.77371
0.0 0.0 -2.77371
-0.000978886 -0.990502 -0.988162
0.0 0.0 -2.77371
-3.90786 1.33904 -3.20296
0.0 0.0 -2.77371
7.47201 3.12425 3.85342
0.0 0.0 -2.77371
0.0 0.0 -2.77371
26.0858 -1.76112 5.495
0.0 0.0 -2.77371
6.72305 -1.78297 15.773
0.0 0.0 -2.77371
1.21657 -0.271318 -1.23779
15.5048 9.16184 21.4055
4.86732 2.86697 0.567799
0.0 0.0 -2.77371
-1.01283 1.24954 9.76794
-4.41522 -9.73076 11.6912
0.0 0.0 -2.77371
0.0 0.0 -2.77371
0.0 0.0 -2.77371
0.0 0.0 -2.77371
0.0 0.0 -2.77371
0.0 0.0 -2.77371
5.33697 -18.8508 -31.6841
-1.52942 2.59221 1.39512
-0.66 -12.37 -12.7345
0.0 0.0 -2.77371
-2.88086 0.305925 -4.72878
0.0 0.0 -2.77371
15.248 35.7907 7.7382
0.0 0.0 -2.77371
0.0 0.0 -2.77371
0.0 0.0 -2.77371
0.0 0.0 -2.77371
-2.51345 29.3802 38.8667
-20.0278 -3.52555 -37.6171
4.41522 9.73076 -17.2386
-2.20004 -3.85332 -10.6563
0.0 0.0 -2.77371
0.0 0.0 -2.77371
-0.185523 -0.148141 -3.37606
0.0 0.0 -2.77371
1.52942 -2.59221 -6.94254
0.66 12.37 7.18711
0.0 0.0 -2.77371
0.0 0.0 -2.77371
0.0 0.0 -2.77371
0.28701 -0.72395 -0.723288
0.0 0.0 -2.77371
0.0 0.0 -2.77371
1.01283 -1.24954 -15.3154
-5.33697 18.8508 26.1367
0.0 0.0 -2.77371
0.0 0.0 -2.77371
0.0 0.0 -2.77371
0.0 0.0 -2.77371
0.0 0.0 -2.77371
0.0 0.0 -2.77371
0.0 0.0 -2.77371
0.0 0.0 -2.77371
0.0 0.0 -2.77371
0.0 0.0 -2.77371
0.0 0.0 -2.77371
0.0 0.0 -2.77371
0.0 0.0 -2.77371
0.0 0.0 -2.77371
0.0 0.0 -2.77371
0.0 0.0 -2.77371
0.0 0.0 -2.77371
0.0 0.0 -2.77371
0.0 0.0 -2.77371
0.0 0.0 -2.77371
0.0 0.0 -2.77371
0.0 0.0 -2.77371
0.0 0.0 -2.77371
0.0 0.0 -2.77371
0.0 0.0 -2.77371
0.0 0.0 -2.77371
0.0 0.0 -2.77371
0.0 0.0 -2.77371
0.0 0.0 -2.77371
0.0 0.0 -2.77371
0.0 0.0 -2.77371
0.0 0.0 -2.77371
0.0 0.0 -2.77371
0.0 0.0 -2.77371
0.0 0.0 -2.77371
0.0 0.0 -2.77371
0.0 0.0 -2.77371
0.0 0.0 -2.77371
0.0 0.0 -2.77371
0.0 0.0 -2.77371
0.0 0.0 -2.77371
0.0 0.0 -2.77371
0.0 0.0 -2.77371
0.0 0.0 -2.77371
0.0 0.0 -2.77371
0.0 0.0 -2.77371
0.0 0.0 -2.77371
0.0 0.0 -2.77371
0.0 0.0 -2.77371
0.0 0.0 -2.77371
0.0 0.0 -2.77371
0.0 0.0 -2.77371
0.0 0.0 -2.77371
0.0 0.0 -2.77371
0.0 0.0 -2.77371
0.0 0.0 -2.77371
0.0 0.0 -2.77371
0.0 0.0 -2.77371
0.0 0.0 -2.77371
0.0 0.0 -2.77371
0.0 0.0 -2.77371
0.0 0.0 -2.77371
0.0 0.0 -2.77371
0.0 0.0 -2.77371
0.0 0.0 0.0
0.0 0.0 0.0
0.0 0.0 0.0
0.0 0.0 0.0
0.0 0.0 0.0
0.0 0.0 0.0
0.0 0.0 0.0
0.0 0.0 0.0
0.0 0.0 0.0
0.0 0.0 0.0
0.0 0.0 0.0
0.0 0.0 0.0
0.0 0.0 0.0
0.0 0.0 0.0
0.0 0.0 0.0
0.0 0.0 0.0
0.0 0.0 0.0
0.0 0.0 0.0
0.0 0.0 0.0
0.0 0.0 0.0
0.0 0.0 0.0
0.0 0.0 0.0
0.0 0.0 0.0
0.0 0.0 0.0
0.0 0.0 0.0
0.0 0.0 0.0
0.0 0.0 0.0
0.0 0.0 0.0
0.0 0.0 0.0
0.0 0.0 0.0
0.0 0.0 0.0
0.0 0.0 0.0
0.0 0.0 0.0
0.0 0.0 0.0
0.0 0.0 0.0
0.0 0.0 0.0
0.0 0.0 0.0
0.0 0.0 0.0
0.0 0.0 0.0
0.0 0.0 0.0
0.0 0.0 0.0
0.0 0.0 0.0
0.0 0.0 0.0
0.0 0.0 0.0
0.0 0.0 0.0
0.0 0.0 0.0
0.0 0.0 0.0
0.0 0.0 0.0
0.0 0.0 0.0
0.0 0.0 0.0
0.0 0.0 0.0
0.0 0.0 0.0
0.0 0.0 0.0
0.0 0.0 0.0
0.0 0.0 0.0
0.0 0.0 0.0
0.0 0.0 0.0
0.0 0.0 0.0
0.0 0.0 0.0
0.0 0.0 0.0
0.0 0.0 0.0
0.0 0.0 0.0
0.0 0.0 0.0
0.0 0.0 0.0
0.0 0.0 0.0
0.0 0.0 0.0
0.0 0.0 0.0
0.0 0.0 0.0
0.0 0.0 0.0
0.0 0.0 0.0
0.0 0.0 0.0
0.0 0.0 0.0
0.0 0.0 0.0
0.0 0.0 0.0
0.0 0.0 0.0
0.0 0.0 0.0
0.0 0.0 0.0
0.0 0.0 0.0
0.0 0.0 0.0
0.0 0.0 0.0
0.0 0.0 0.0
0.0 0.0 0.0
0.0 0.0 0.0
0.0 0.0 0.0
0.0 0.0 0.0
0.0 0.0 0.0
0.0 0.0 0.0
0.0 0.0 0.0
0.0 0.0 0.0
0.0 0.0 0.0
0.0 0.0 0.0
0.0 0.0 0.0
0.0 0.0 0.0
0.0 0.0 0.0
0.0 0.0 0.0
0.0 0.0 0.0
0.0 0.0 0.0
0.0 0.0 0.0
0.0 0.0 0.0
0.0 0.0 0.0
0.0 0.0 0.0
0.0 0.0 0.0
0.0 0.0 0.0
0.0 0.0 0.0
0.0 0.0 0.0
0.0 0.0 0.0
0.0 0.0 0.0
0.0 0.0 0.0
0.0 0.0 0.0
0.0 0.0 0.0
0.0 0.0 0.0
0.0 0.0 0.0
0.0 0.0 0.0
0.0 0.0 0.0
0.0 0.0 0.0
0.0 0.0 0.0
0.0 0.0 0.0
0.0 0.0 0.0
0.0 0.0 0.0
0.0 0.0 0.0
0.0 0.0 0.0
VECTORS omega float
7.04825 -123.856 48.9089
29.3603 -71.4128 23.3081
8.33186 -25.4697 33.9207
0.563055 -79.9263 31.3481
-44.4002 -29.5436 7.08877
-12.633 -75.8435 26.5362
-4.6127 -70.0053 6.97742
0.617423 -50.7232 14.5177
-10.5375 23.0523 14.5779
-8.65463 -40.3617 2.40932
3.67532 -58.3641 -1.32173
6.74381 -54.6866 8.54446
17.5977 -69.7901 -39.9837
-21.7091 -45.4029 12.2322
31.486 -32.6003 0.277373
6.65385 -95.9177 5.24544
-6.65154 -76.7353 -25.195
-16.2116 -67.3042 -9.36039
6.98563 -49.8255 -7.27195
-2.49974 -49.5249 0.695015
-8.6847 16.3038 -5.70025
0.253231 -51.0352 2.16681
-10.4323 -53.3873 -3.59968
-9.45352 -50.7832 -22.7994
-0.448576 -48.7664 4.2775
1.75882 -54.0147 13.9092
4.25468 56.5347 -15.0194
-27.6525 34.8466 7.13925
5.98189 -59.5251 4.34556
-10.5606 -47.3727 5.26014
1.77639 -39.1964 -11.5392
12.2253 -99.1001 3.81581
9.70639 -93.8744 -2.46785
1.7873 -88.811 -3.44686
20.0128 -46.9452 3.94769
4.81449 -66.2807 3.15132
-1.03061 51.4848 8.95166
-0.884498 -92.6318 3.35939
4.98312 -86.9297 -9.5188
13.2449 -90.4612 25.4303
10.8442 -67.3376 -9.6026
4.57273 -62.681 -3.3097
3.93832 -56.5416 -7.19384
-17.549 39.2872 -9.24861
16.7268 -56.2477 -11.135
5.06159 -63.0787 1.80103
-6.25532 -71.1662 14.8012
-0.532198 -66.8926 -2.3098
-22.106 2.68644 -1.68449
-13.0515 -116.011 -11.2211
26.9962 98.4998 4.42513
-10.0109 -76.4021 -13.0843
-1.2579 -71.6299 -17.0706
0.286913 -60.2379 -7.09483
-4.72792 -63.3094 2.64099
-8.01468 -101.809 8.03059
-12.668 -72.4878 3.87984
-1.36294 -56.9263 14.5569
-14.8346 -36.1114 -0.117073
-1.98699 -62.8866 -10.1731
3.70049 -61.5834 -12.6879
-4.91954 -50.7279 2.52464
28.9429 28.469 -1.7532
-4.91713 -60.0066 -5.41971
-5.29309 -52.851 -5.22794
-5.05781 -48.7154 10.9756
-1.73371 -55.5287 -2.03156
-5.77339 -125.753 -5.60855
-18.1673 -71.593 16.8434
14.7696 -45.1591 15.8433
-26.7489 -59.6923 -14.5382
3.29621 -33.1028 3.61123
-1.81727 -43.4917 1.90422
-6.99844 -91.379 16.9676
-36.6237 12.5224 1.13678
4.97486 -59.1248 -21.8505
-10.1051 -65.8381 15.6306
-0.297145 -61.4526 -37.7919
4.4969 -82.6046 -8.05471
5.22972 -52.2794 -32.408
2.72379 -58.4917 -15.0637
5.52544 -54.292 -16.0757
6.59344 -34.4485 -27.0192
-0.478019 -19.7789 22.371
-5.20024 -16.6637 -22.8104
-9.88132 -48.7662 -6.78753
3.42214 -66.1353 43.471
-14.0046 101.355 -34.2314
-7.59202 20.7758 -10.3433
-9.69752 2.61979 -6.26265
-41.0951 2.38702 22.3758
-43.484 -4.30635 -13.0593
-3.86406 48.5832 -25.0673
-29.4146 19.6721 -8.67116
2.8651 49.0247 -1.39329
-2.73291 -8.17907 17.3319
-19.1583 21.8956 1.07062
7.41061 26.6965 15.3504
-3.24739 8.69457 -18.1196
-9.4086 55.4798 0.191282
-41.5805 68.0811 -20.1277
-24.8551 33.0087 5.96927
11.905 62.6619 21.1299
12.5608 5.35509 -18.1428
13.5945 -22.324 14.2161
-41.9593 71.7516 -16.7213
4.38813 35.5052 -14.0178
6.59776 40.3572 8.54795
31.2663 0.371614 -3.49253
-2.95196 29.009 1.58591
-0.32895 28.2551 -9.22211
-18.169 36.0834 -15.5665
-16.4545 18.6207 -15.2694
1.15333 33.4946 17.3739
5.44993 -92.328 -42.8997
0.0428291 -50.3642 -35.7197
11.153 3.67564 47.5093
9.30671 -64.1272 31.4804
18.8795 24.5031 -9.09279
33.9682 33.3345 -3.27233
-0.853713 -36.5678 49.9132
18.3934 24.7876 -5.15727
9.10393 36.7888 -16.2821
-21.0137 6.25401 -20.7872
-36.6651 -14.0928 -10.0608
-27.3511 -28.3263 12.6642
-9.76251 -3.39865 -26.1029
-33.5392 53.3889 0.723458
-44.1921 -55.4713 -6.72578
-14.859 -23.9593 18.6561
-13.0029 -33.0641 8.83871
1.14187 5.17472 3.14398
27.2399 -40.869 -15.8524
-12.2717 12.4578 5.2763
2.53187 -39.5822 20.3081
7.86519 -69.4984 0.327914
-16.0233 -1.47805 14.8232
-0.145573 37.8091 -8.82911
-6.9575 -17.8453 3.82118
-7.59411 -0.979094 -0.26171
-29.2209 12.2827 -1.30994
3.9753 -25.9495 6.50921
-6.52702 -15.2344 24.1638
-15.4417 15.77 -8.13618
-14.1913 -41.97 0.295795
1.33514 12.3449 23.5567
8.66944 49.3527 5.67854
-7.10119 -21.165 -49.705
24.8783 -51.7265 -20.343
-8.23813 -8.17378 4.73605
-18.0113 10.0934 -20.6639
24.1076 -15.4565 -2.62964
-29.4853 -23.6671 6.11006
-7.27038 -7.80539 0.0608913
-21.7306 -12.4506 -3.74034
4.36094 -6.23301 -5.20491
-5.36574 -8.25033 -13.9941
-4.39672 9.29426 9.46226
5.86402 33.361 -14.101
1.05143 -53.7939 12.0513
10.2313 73.4476 -9.29811
-3.52416 -28.5782 12.2256
3.47296 -34.2621 -59.7781
0.0 0.0 0.0
0.0 0.0 0.0
-0.582074 2.48075 -0.309841
-17.5925 -17.0512 8.19471
0.0 0.0 0.0
0.0 0.0 0.0
0.0 0.0 0.0
0.0 0.0 0.0
0.0 0.0 0.0
0.0 0.0 0.0
0.0 0.0 0.0
0.0 0.0 0.0
0.0 0.0 0.0
0.0 0.0 0.0
0.0 0.0 0.0
0.0 0.0 0.0
0.0 0.0 0.0
0.0 0.0 0.0
0.0 0.0 0.0
0.0 0.0 0.0
0.0 0.0 0.0
0.0 0.0 0.0
0.0 0.0 0.0
0.0 0.0 0.0
0.0 0.0 0.0
0.0 0.0 0.0
0.0 0.0 0.0
0.0 0.0 0.0
0.0 0.0 0.0
0.0 0.0 0.0
0.0 0.0 0.0
0.0 0.0 0.0
0.0 0.0 0.0
0.0 0.0 0.0
0.0 0.0 0.0
0.0 0.0 0.0
0.0 0.0 0.0
0.0 0.0 0.0
0.0 0.0 0.0
0.0 0.0 0.0
0.0 0.0 0.0
0.0 0.0 0.0
0.0 0.0 0.0
0.0 0.0 0.0
0.0 0.0 0.0
0.0 0.0 0.0
0.0 0.0 0.0
0.0 0.0 0.0
0.0 0.0 0.0
0.0 0.0 0.0
0.0 0.0 0.0
0.0 0.0 0.0
0.0 0.0 0.0
0.0 0.0 0.0
0.0 0.0 0.0
0.0 0.0 0.0
0.0 0.0 0.0
0.0 0.0 0.0
0.0 0.0 0.0
0.0 0.0 0.0
0.0 0.0 0.0
0.0 0.0 0.0
0.0 0.0 0.0
0.0 0.0 0.0
0.0 0.0 0.0
0.0 0.0 0.0
0.0 0.0 0.0
0.0 0.0 0.0
0.0 0.0 0.0
0.0 0.0 0.0
0.0 0.0 0.0
0.0 0.0 0.0
0.0 0.0 0.0
0.0 0.0 0.0
0.0 0.0 0.0
0.0 0.0 0.0
0.0 0.0 0.0
0.0 0.0 0.0
0.0 0.0 0.0
0.0 0.0 0.0
0.0 0.0 0.0
0.0 0.0 0.0
0.0 0.0 0.0
0.0 0.0 0.0
0.0 0.0 0.0
0.0 0.0 0.0
0.0 0.0 0.0
0.0 0.0 0.0
0.0 0.0 0.0
0.0 0.0 0.0
0.0 0.0 0.0
0.0 0.0 0.0
0.0 0.0 0.0
0.0 0.0 0.0
0.0 0.0 0.0
0.0 0.0 0.0
0.0 0.0 0.0
0.0 0.0 0.0
0.0 0.0 0.0
0.0 0.0 0.0
0.0 0.0 0.0
0.0 0.0 0.0
0.0 0.0 0.0
0.0 0.0 0.0
0.0 0.0 0.0
0.0 0.0 0.0
0.0 0.0 0.0
0.0 0.0 0.0
0.0 0.0 0.0
0.0 0.0 0.0
0.0 0.0 0.0
0.0 0.0 0.0
0.0 0.0 0.0
0.0 0.0 0.0
0.0 0.0 0.0
0.0 0.0 0.0
0.0 0.0 0.0
0.0 0.0 0.0
0.0 0.0 0.0
0.0 0.0 0.0
0.0 0.0 0.0
0.0 0.0 0.0
0.0 0.0 0.0
0.0 0.0 0.0
0.0 0.0 0.0
0.0 0.0 0.0
0.0 0.0 0.0
0.0 0.0 0.0
0.0 0.0 0.0
0.0 0.0 0.0
0.0 0.0 0.0
0.0 0.0 0.0
0.0 0.0 0.0
0.0 0.0 0.0
0.0 0.0 0.0
0.0 0.0 0.0
0.0 0.0 0.0
0.0 0.0 0.0
0.0 0.0 0.0
0.0 0.0 0.0
0.0 0.0 0.0
0.0 0.0 0.0
0.0 0.0 0.0
0.0 0.0 0.0
0.0 0.0 0.0
0.0 0.0 0.0
0.0 0.0 0.0
0.0 0.0 0.0
0.0 0.0 0.0
0.0 0.0 0.0
0.0 0.0 0.0
0.0 0.0 0.0
0.0 0.0 0.0
0.0 0.0 0.0
0.0 0.0 0.0
0.0 0.0 0.0
0.0 0.0 0.0
0.0 0.0 0.0
0.0 0.0 0.0
0.0 0.0 0.0
0.0 0.0 0.0
0.0 0.0 0.0
0.0 0.0 0.0
0.0 0.0 0.0
0.0 0.0 0.0
0.0 0.0 0.0
0.0 0.0 0.0
0.0 0.0 0.0
0.0 0.0 0.0
0.0 0.0 0.0
0.0 0.0 0.0
0.0 0.0 0.0
0.0 0.0 0.0
0.0 0.0 0.0
0.0 0.0 0.0
0.0 0.0 0.0
0.0 0.0 0.0
0.0 0.0 0.0
0.0 0.0 0.0
0.0 0.0 0.0
0.0 0.0 0.0
0.0 0.0 0.0
0.0 0.0 0.0
0.0 0.0 0.0
0.0 0.0 0.0
0.0 0.0 0.0
0.0 0.0 0.0
0.0 0.0 0.0
0.0 0.0 0.0
VECTORS v float
0.38023 0.0194914 0.179891
2.10423 -0.540065 0.735829
2.42937 -0.26395 0.416967
1.64412 0.101374 0.0104144
1.79094 -0.165797 -0.43582
1.83523 0.267167 -0.267092
2.3721 0.0960123 -0.0985882
2.49028 -0.0219857 -0.00116526
2.46592 0.110244 -0.11771
2.54761 0.188511 0.0313254
2.29042 -0.0960143 0.0166346
2.65879 -0.152365 0.113795
1.86976 -0.517655 -0.0853199
2.48461 0.627938 0.232702
2.48402 -0.262738 -0.112418
1.14145 -0.193885 0.19414
1.84527 -0.0795335 -0.02494
1.77796 0.199473 0.0823705
2.51351 -0.208384 0.123419
2.39105 -0.140396 -0.00765425
1.89722 -0.0563453 -0.558692
2.47609 -0.00738913 -0.00466666
2.40463 0.312541 -0.00151287
2.48367 0.282378 0.00142801
2.54294 0.0134027 0.000142403
0.365472 -0.352562 -0.493607
0.75459 -0.422206 -0.198221
1.79142 0.296004 -0.110235
2.08266 -0.204933 0.129428
2.58419 0.315621 0.00491669
2.84264 -0.0641187 0.0204668
0.794894 0.165848 -0.0779668
1.21189 -0.284784 0.262523
1.33482 -0.0631916 -0.0360478
1.29241 -0.175865 -0.182408
2.02018 -0.143758 0.00307284
2.16059 0.153431 0.100137
1.07546 -0.149488 0.115212
1.00735 0.0856706 -0.00440343
1.12208 0.273948 0.000279294
1.98834 -0.080291 0.0284568
2.06654 0.103517 0.043446
2.31067 -0.117667 9.52981e-05
1.32551 0.0251025 -0.517911
2.13732 -0.143418 -0.0646949
2.11194 -0.153211 -0.00432407
1.87359 0.186907 -0.000887522
2.00169 0.0158982 0.00100491
2.20815 -0.0425346 -0.563568
0.770213 0.289158 0.382764
0.962544 -0.252945 0.463691
1.60949 0.43658 0.0780663
2.01273 -0.00270411 0.223375
2.19866 -0.00856797 -0.00396194
2.10796 0.141403 -0.00435539
1.11916 0.223788 -0.23057
1.65434 0.313081 0.00708647
2.30749 0.0457374 0.0847261