# vtk DataFile Version 2.0
Generated by lpp.py
ASCII
DATASET POLYDATA
POINTS 176 float
0.52444 0.228152 1.59598
0.215823 0.244862 1.59007
0.277843 0.255288 1.58148
0.135836 0.280954 1.58869
0.404989 0.280425 1.59141
0.478642 0.284913 1.5827
0.343198 0.311483 1.59488
0.166446 0.356985 1.5971
0.392964 0.368502 1.5783
0.173655 0.414158 1.58483
0.270981 0.417172 1.57514
0.434837 0.44413 1.58448
0.52969 0.429958 1.59405
0.318048 0.465497 1.58801
0.171367 0.505065 1.58507
0.236691 0.513597 1.59022
0.501151 0.484878 1.59206
0.446465 0.340626 1.57357
0.306079 0.407294 1.61863
0.206383 0.460803 1.59896
0.221691 0.336081 1.61606
0.48133 0.381744 1.6395
0.298512 0.526526 1.61365
0.358392 0.516981 1.60651
0.315693 0.229965 1.64822
0.407624 0.228484 1.66392
0.389576 0.300711 1.67335
0.110316 0.328441 1.65709
0.328085 0.361498 1.6429
0.427577 0.512648 1.64125
0.217643 0.395379 1.67853
0.246175 0.495534 1.71179
0.184928 0.234672 1.71588
0.295884 0.285163 1.72187
0.160428 0.3182 1.74934
0.443269 0.320522 1.7336
0.383972 0.46156 1.71727
0.17066 0.517967 1.71443
0.119354 0.228593 1.76416
0.354173 0.228377 1.78147
0.27192 0.349064 1.77135
0.379347 0.368828 1.77679
0.320995 0.419007 1.77433
0.44361 0.420007 1.75109
0.486907 0.489071 1.75227
0.337972 0.524085 1.76548
0.250314 0.231914 1.78934
0.44893 0.24186 1.79652
0.111154 0.43018 1.8196
0.242338 0.433913 1.79369
0.174746 0.456274 1.81375
0.219922 0.334748 1.85351
0.485944 0.343638 1.84438
0.173434 0.391321 1.82951
0.119943 0.514428 1.83263
0.405158 0.517371 1.82781
0.188775 0.261917 1.88386
0.334819 0.324289 1.85998
0.457584 0.468554 1.86855
0.244548 0.285112 1.91405
0.154593 0.314223 1.90906
0.388697 0.32831 1.9131
0.10471 0.363257 1.92367
0.478047 0.398941 1.91786
0.400035 0.441344 1.92306
0.283869 0.446206 1.92234
0.309578 0.507986 1.92318
0.137853 0.229319 1.94915
0.403959 0.242371 1.93286
0.185895 0.369748 1.94572
0.218563 0.442358 1.96016
0.100655 0.458725 1.94844
0.226898 0.506806 1.94508
0.369388 0.526215 1.95617
0.329189 0.252757 1.97209
0.298609 0.364728 2.00101
0.368876 0.379155 1.99072
0.47867 0.463 1.98791
0.112056 0.26459 2.01346
0.218269 0.254539 2.02945
0.377994 0.24098 2.04454
0.43763 0.245516 2.03598
0.235855 0.316318 2.04028
0.368613 0.311971 2.0442
0.486179 0.312628 2.04499
0.144122 0.349922 2.01016
0.228049 0.384522 2.02504
0.497086 0.400324 2.03087
0.108382 0.420889 2.03277
0.179788 0.4242 2.023
0.10161 0.511094 2.02204
0.190793 0.498184 2.02177
0.421483 0.499457 2.02618
0.486742 0.509906 2.03774
0.290891 0.301706 2.07271
0.181029 0.318367 2.07437
0.41904 0.310566 2.07691
0.278223 0.363632 2.07762
0.438372 0.392123 2.06222
0.353388 0.44487 2.06555
0.419456 0.449551 2.07461
0.307792 0.495572 2.06669
0.218974 0.524143 2.07992
0.178322 0.227864 2.10834
0.254767 0.230824 2.08361
0.408343 0.240904 2.10147
0.495956 0.249499 2.09224
0.355542 0.30862 2.10481
0.155769 0.403018 2.08019
0.499251 0.382901 2.10614
0.240863 0.437556 2.08747
0.161462 0.479607 2.10922
0.476719 0.464357 2.099
0.105277 0.51875 2.10553
0.423627 0.520356 2.10047
0.117057 0.232547 2.13535
0.150682 0.290471 2.11822
0.46021 0.268154 2.14579
0.294692 0.330306 2.14293
0.414233 0.306803 2.14248
0.118071 0.372478 2.11713
0.216306 0.357237 2.11603
0.429922 0.3736 2.1222
0.367693 0.467546 2.13384
0.313052 0.494322 2.14354
0.199862 0.243713 2.16294
0.33461 0.249494 2.15199
0.258494 0.28056 2.15116
0.375347 0.345395 2.175
0.169236 0.376906 2.17011
0.320208 0.403691 2.15809
0.261069 0.440732 2.17621
0.491591 0.428372 2.17117
0.113325 0.448918 2.16014
0.209546 0.484752 2.15139
0.446997 0.50849 2.1549
0.387237 0.525686 2.15208
0.254698 0.262308 2.2126
0.417913 0.266516 2.20416
0.121033 0.279919 2.21222
0.187546 0.294736 2.21886
0.47999 0.300848 2.19322
0.103577 0.34242 2.19791
0.230407 0.340128 2.19579
0.287678 0.358468 2.21158
0.227036 0.399722 2.20926
0.380254 0.404128 2.20153
0.448915 0.39365 2.20864
0.441781 0.458388 2.19924
0.131272 0.513706 2.19661
0.35506 0.52072 2.21723
0.365118 0.235733 2.23568
0.378219 0.307765 2.22893
0.360498 0.363939 2.24203
0.10427 0.421706 2.23997
0.200976 0.455034 2.23494
0.317689 0.454971 2.24695
0.491668 0.49724 2.24518
0.208645 0.523817 2.23003
0.136955 0.241756 2.28145
0.29951 0.265646 2.26473
0.478513 0.241448 2.27775
0.200031 0.295208 2.27871
0.352336 0.290052 2.28528
0.26261 0.317421 2.26461
0.121236 0.342722 2.26496
0.234882 0.370686 2.2619
0.43656 0.349215 2.27852
0.18594 0.400862 2.28647
0.288982 0.398489 2.28045
0.41824 0.41741 2.28107
0.250123 0.467148 2.27514
0.485548 0.450278 2.28645
0.124302 0.506318 2.26864
0.302009 0.506095 2.28474
0.387139 0.48601 2.26051
VERTICES 176 352
1 0
1 1
1 2
1 3
1 4
1 5
1 6
1 7
1 8
1 9
1 10
1 11
1 12
1 13
1 14
1 15
1 16
1 17
1 18
1 19
1 20
1 21
1 22
1 23
1 24
1 25
1 26
1 27
1 28
1 29
1 30
1 31
1 32
1 33
1 34
1 35
1 36
1 37
1 38
1 39
1 40
1 41
1 42
1 43
1 44
1 45
1 46
1 47
1 48
1 49
1 50
1 51
1 52
1 53
1 54
1 55
1 56
1 57
1 58
1 59
1 60
1 61
1 62
1 63
1 64
1 65
1 66
1 67
1 68
1 69
1 70
1 71
1 72
1 73
1 74
1 75
1 76
1 77
1 78
1 79
1 80
1 81
1 82
1 83
1 84
1 85
1 86
1 87
1 88
1 89
1 90
1 91
1 92
1 93
1 94
1 95
1 96
1 97
1 98
1 99
1 100
1 101
1 102
1 103
1 104
1 105
1 106
1 107
1 108
1 109
1 110
1 111
1 112
1 113
1 114
1 115
1 116
1 117
1 118
1 119
1 120
1 121
1 122
1 123
1 124
1 125
1 126
1 127
1 128
1 129
1 130
1 131
1 132
1 133
1 134
1 135
1 136
1 137
1 138
1 139
1 140
1 141
1 142
1 143
1 144
1 145
1 146
1 147
1 148
1 149
1 150
1 151
1 152
1 153
1 154
1 155
1 156
1 157
1 158
1 159
1 160
1 161
1 162
1 163
1 164
1 165
1 166
1 167
1 168
1 169
1 170
1 171
1 172
1 173
1 174
1 175
POINT_DATA 176
VECTORS i float
0.0 0.0 0.0
0.0 0.0 0.0
0.0 0.0 0.0
0.0 0.0 0.0
0.0 0.0 0.0
0.0 0.0 0.0
0.0 0.0 0.0
0.0 0.0 0.0
0.0 0.0 0.0
0.0 0.0 0.0
0.0 0.0 0.0
0.0 0.0 0.0
0.0 0.0 0.0
0.0 0.0 0.0
0.0 0.0 0.0
0.0 0.0 0.0
0.0 0.0 0.0
0.0 0.0 0.0
0.0 0.0 0.0
0.0 0.0 0.0
0.0 0.0 0.0
0.0 0.0 0.0
0.0 0.0 0.0
0.0 0.0 0.0
0.0 0.0 0.0
0.0 0.0 0.0
0.0 0.0 0.0
0.0 0.0 0.0
0.0 0.0 0.0
0.0 0.0 0.0
0.0 0.0 0.0
0.0 0.0 0.0
0.0 0.0 0.0
0.0 0.0 0.0
0.0 0.0 0.0
0.0 0.0 0.0
0.0 0.0 0.0
0.0 0.0 0.0
0.0 0.0 0.0
0.0 0.0 0.0
0.0 0.0 0.0
0.0 0.0 0.0
0.0 0.0 0.0
0.0 0.0 0.0
0.0 0.0 0.0
0.0 0.0 0.0
0.0 0.0 0.0
0.0 0.0 0.0
0.0 0.0 0.0
0.0 0.0 0.0
0.0 0.0 0.0
0.0 0.0 0.0
0.0 0.0 0.0
0.0 0.0 0.0
0.0 0.0 0.0
0.0 0.0 0.0
0.0 0.0 0.0
0.0 0.0 0.0
0.0 0.0 0.0
0.0 0.0 0.0
0.0 0.0 0.0
0.0 0.0 0.0
0.0 0.0 0.0
0.0 0.0 0.0
0.0 0.0 0.0
0.0 0.0 0.0
0.0 0.0 0.0
0.0 0.0 0.0
0.0 0.0 0.0
0.0 0.0 0.0
0.0 0.0 0.0
0.0 0.0 0.0
0.0 0.0 0.0
0.0 0.0 0.0
0.0 0.0 0.0
0.0 0.0 0.0
0.0 0.0 0.0
0.0 0.0 0.0
0.0 0.0 0.0
0.0 0.0 0.0
0.0 0.0 0.0
0.0 0.0 0.0
0.0 0.0 0.0
0.0 0.0 0.0
0.0 0.0 0.0
0.0 0.0 0.0
0.0 0.0 0.0
0.0 0.0 0.0
0.0 0.0 0.0
0.0 0.0 0.0
0.0 0.0 0.0
0.0 0.0 0.0
0.0 0.0 0.0
0.0 0.0 0.0
0.0 0.0 0.0
0.0 0.0 0.0
0.0 0.0 0.0
0.0 0.0 0.0
0.0 0.0 0.0
0.0 0.0 0.0
0.0 0.0 0.0
0.0 0.0 0.0
0.0 0.0 0.0
0.0 0.0 0.0
0.0 0.0 0.0
0.0 0.0 0.0
0.0 0.0 0.0
0.0 0.0 0.0
0.0 0.0 0.0
0.0 0.0 0.0
0.0 0.0 0.0
0.0 0.0 0.0
0.0 0.0 0.0
0.0 0.0 0.0
0.0 0.0 0.0
0.0 0.0 0.0
0.0 0.0 0.0
0.0 0.0 0.0
0.0 0.0 0.0
0.0 0.0 0.0
0.0 0.0 0.0
0.0 0.0 0.0
0.0 0.0 0.0
0.0 0.0 0.0
0.0 0.0 0.0
0.0 0.0 0.0
0.0 0.0 0.0
0.0 0.0 0.0
0.0 0.0 0.0
0.0 0.0 0.0
0.0 0.0 0.0
0.0 0.0 0.0
0.0 0.0 0.0
0.0 0.0 0.0
0.0 0.0 0.0
0.0 0.0 0.0
0.0 0.0 0.0
0.0 0.0 0.0
0.0 0.0 0.0
0.0 0.0 0.0
0.0 0.0 0.0
0.0 0.0 0.0
0.0 0.0 0.0
0.0 0.0 0.0
0.0 0.0 0.0
0.0 0.0 0.0
0.0 0.0 0.0
0.0 0.0 0.0
0.0 0.0 0.0
0.0 0.0 0.0
0.0 0.0 0.0
0.0 0.0 0.0
0.0 0.0 0.0
0.0 0.0 0.0
0.0 0.0 0.0
0.0 0.0 0.0
0.0 0.0 0.0
0.0 0.0 0.0
0.0 0.0 0.0
0.0 0.0 0.0
0.0 0.0 0.0
0.0 0.0 0.0
0.0 0.0 0.0
0.0 0.0 0.0
0.0 0.0 0.0
0.0 0.0 0.0
0.0 0.0 0.0
0.0 0.0 0.0
0.0 0.0 0.0
0.0 0.0 0.0
0.0 0.0 0.0
0.0 0.0 0.0
0.0 0.0 0.0
0.0 0.0 0.0
0.0 0.0 0.0
0.0 0.0 0.0
VECTORS f float
0.0 0.0 -2.77371
0.0 0.0 -2.77371
0.0 0.0 -2.77371
0.0 0.0 -2.77371
0.0 0.0 -2.77371
0.0 0.0 -2.77371
0.0 0.0 -2.77371
-16.962 -26.2722 -0.494292
0.0 0.0 -2.77371
16.907 26.1358 -5.02921
-27.0351 45.7658 -22.054
0.0 0.0 -2.77371
0.0 0.0 -2.77371
0.0 0.0 -2.77371
-2.47684 12.6749 -5.70278
0.0 0.0 -2.77371
0.0 0.0 -2.77371
117.462 -12.0061 233.375
2.60688 42.5113 15.5658
2.53179 -12.5385 0.131434
0.0 0.0 -2.77371
0.0 0.0 -2.77371
0.0 0.0 -2.77371
0.0 0.0 -2.77371
0.0 0.0 -2.77371
0.0 0.0 -2.77371
0.0 0.0 -2.77371
0.0 0.0 -2.77371
55.0768 -88.9796 65.0877
0.0 0.0 -2.77371
0.0 0.0 -2.77371
0.0 0.0 -2.77371
0.0 0.0 -2.77371
0.0 0.0 -2.77371
0.0 0.0 -2.77371
0.0 0.0 -2.77371
0.0 0.0 -2.77371
0.0 0.0 -2.77371
0.0 0.0 -2.77371
0.0 0.0 -2.77371
0.0 0.0 -2.77371
0.0 0.0 -2.77371
0.0 0.0 -2.77371
0.0 0.0 -2.77371
0.0 0.0 -2.77371
0.0 0.0 -2.77371
0.0 0.0 -2.77371
0.0 0.0 -2.77371
0.0 0.0 -2.77371
0.0 0.0 -2.77371
0.0 0.0 -2.77371
0.0 0.0 -2.77371
0.0 0.0 -2.77371
0.0 0.0 -2.77371
0.0 0.0 -2.77371
0.0 0.0 -2.77371
0.0 0.0 -2.77371
0.0 0.0 -2.77371
0.0 0.0 -2.77371
0.0 0.0 -2.77371
0.0 0.0 -2.77371
0.0 0.0 -2.77371
0.0 0.0 -2.77371
0.0 0.0 -2.77371
0.0 0.0 -2.77371
0.0 0.0 -2.77371
0.0 0.0 -2.77371
0.0 0.0 -2.77371
0.0 0.0 -2.77371
0.0 0.0 -2.77371
0.0 0.0 -2.77371
0.0 0.0 -2.77371
0.0 0.0 -2.77371
0.0 0.0 -2.77371
0.0 0.0 -2.77371
0.0 0.0 -2.77371
0.0 0.0 -2.77371
0.0 0.0 -2.77371
0.0 0.0 -2.77371
0.0 0.0 -2.77371
0.0 0.0 -2.77371
0.0 0.0 -2.77371
0.0 0.0 -2.77371
0.0 0.0 -2.77371
0.0 0.0 -2.77371
0.0 0.0 -2.77371
0.0 0.0 -2.77371
0.0 0.0 -2.77371
0.0 0.0 -2.77371
0.0 0.0 -2.77371
0.0 0.0 -2.77371
0.0 0.0 -2.77371
0.0 0.0 -2.77371
0.0 0.0 -2.77371
0.0 0.0 0.0
0.0 0.0 0.0
0.0 0.0 0.0
0.0 0.0 0.0
0.0 0.0 0.0
0.0 0.0 0.0
0.0 0.0 0.0
0.0 0.0 0.0
0.0 0.0 0.0
0.0 0.0 0.0
0.0 0.0 0.0
0.0 0.0 0.0
0.0 0.0 0.0
0.0 0.0 0.0
0.0 0.0 0.0
0.0 0.0 0.0
0.0 0.0 0.0
0.0 0.0 0.0
0.0 0.0 0.0
0.0 0.0 0.0
0.0 0.0 0.0
0.0 0.0 0.0
0.0 0.0 0.0
0.0 0.0 0.0
0.0 0.0 0.0
0.0 0.0 0.0
0.0 0.0 0.0
0.0 0.0 0.0
0.0 0.0 0.0
0.0 0.0 0.0
0.0 0.0 0.0
0.0 0.0 0.0
0.0 0.0 0.0
0.0 0.0 0.0
0.0 0.0 0.0
0.0 0.0 0.0
0.0 0.0 0.0
0.0 0.0 0.0
0.0 0.0 0.0
0.0 0.0 0.0
0.0 0.0 0.0
0.0 0.0 0.0
0.0 0.0 0.0
0.0 0.0 0.0
0.0 0.0 0.0
0.0 0.0 0.0
0.0 0.0 0.0
0.0 0.0 0.0
0.0 0.0 0.0
0.0 0.0 0.0
0.0 0.0 0.0
0.0 0.0 0.0
0.0 0.0 0.0
0.0 0.0 0.0
0.0 0.0 0.0
0.0 0.0 0.0
0.0 0.0 0.0
0.0 0.0 0.0
0.0 0.0 0.0
0.0 0.0 0.0
0.0 0.0 0.0
0.0 0.0 0.0
0.0 0.0 0.0
0.0 0.0 0.0
0.0 0.0 0.0
0.0 0.0 0.0
0.0 0.0 0.0
0.0 0.0 0.0
0.0 0.0 0.0
0.0 0.0 0.0
0.0 0.0 0.0
0.0 0.0 0.0
0.0 0.0 0.0
0.0 0.0 0.0
0.0 0.0 0.0
0.0 0.0 0.0
0.0 0.0 0.0
0.0 0.0 0.0
0.0 0.0 0.0
0.0 0.0 0.0
0.0 0.0 0.0
0.0 0.0 0.0
VECTORS omega float
0.0 -94.9935 0.0
0.0 -95.0132 0.0
0.0 -94.9961 0.0
0.0 -95.0002 0.0
0.0 -95.0172 0.0
0.0 -95.0198 0.0
0.0 -95.0147 0.0
-2.50409 -92.4394 11.9505
25.8091 -42.9366 -3.44857
-48.448 -57.8324 11.4738
-13.3196 -97.229 13.6685
0.0 -95.0145 0.0
0.0 -95.0016 0.0
0.0 -95.0189 0.0
49.5131 -55.4168 0.306696
0.0 -94.9991 0.0
0.0 -94.9973 0.0
20.5916 -35.5191 -3.44857
28.5641 96.0702 -19.3907
3.56923 74.1699 -0.17003
0.0 0.0 0.0
0.0 0.0 0.0
0.0 0.0 0.0
0.0 0.0 0.0
0.0 0.0 0.0
0.0 0.0 0.0
0.0 0.0 0.0
0.0 0.0 0.0
23.8245 -9.29442 -33.0592
0.0 0.0 0.0
0.0 0.0 0.0
0.0 0.0 0.0
0.0 0.0 0.0
0.0 0.0 0.0
0.0 0.0 0.0
0.0 0.0 0.0
0.0 0.0 0.0
0.0 0.0 0.0
0.0 0.0 0.0
0.0 0.0 0.0
0.0 0.0 0.0
0.0 0.0 0.0
0.0 0.0 0.0
0.0 0.0 0.0
0.0 0.0 0.0
0.0 0.0 0.0
0.0 0.0 0.0
0.0 0.0 0.0
0.0 0.0 0.0
0.0 0.0 0.0
0.0 0.0 0.0
0.0 0.0 0.0
0.0 0.0 0.0
0.0 0.0 0.0
0.0 0.0 0.0
0.0 0.0 0.0
0.0 0.0 0.0
0.0 0.0 0.0
0.0 0.0 0.0
0.0 0.0 0.0
0.0 0.0 0.0
0.0 0.0 0.0
0.0 0.0 0.0
0.0 0.0 0.0
0.0 0.0 0.0
0.0 0.0 0.0
0.0 0.0 0.0
0.0 0.0 0.0
0.0 0.0 0.0
0.0 0.0 0.0
0.0 0.0 0.0
0.0 0.0 0.0
0.0 0.0 0.0
0.0 0.0 0.0
0.0 0.0 0.0
0.0 0.0 0.0
0.0 0.0 0.0
0.0 0.0 0.0
0.0 0.0 0.0
0.0 0.0 0.0
0.0 0.0 0.0
0.0 0.0 0.0
0.0 0.0 0.0
0.0 0.0 0.0
0.0 0.0 0.0
0.0 0.0 0.0
0.0 0.0 0.0
0.0 0.0 0.0
0.0 0.0 0.0
0.0 0.0 0.0
0.0 0.0 0.0
0.0 0.0 0.0
0.0 0.0 0.0
0.0 0.0 0.0
0.0 0.0 0.0
0.0 0.0 0.0
0.0 0.0 0.0
0.0 0.0 0.0
0.0 0.0 0.0
0.0 0.0 0.0
0.0 0.0 0.0
0.0 0.0 0.0
0.0 0.0 0.0
0.0 0.0 0.0
0.0 0.0 0.0
0.0 0.0 0.0
0.0 0.0 0.0
0.0 0.0 0.0
0.0 0.0 0.0
0.0 0.0 0.0
0.0 0.0 0.0
0.0 0.0 0.0
0.0 0.0 0.0
0.0 0.0 0.0
0.0 0.0 0.0
0.0 0.0 0.0
0.0 0.0 0.0
0.0 0.0 0.0
0.0 0.0 0.0
0.0 0.0 0.0
0.0 0.0 0.0
0.0 0.0 0.0
0.0 0.0 0.0
0.0 0.0 0.0
0.0 0.0 0.0
0.0 0.0 0.0
0.0 0.0 0.0
0.0 0.0 0.0
0.0 0.0 0.0
0.0 0.0 0.0
0.0 0.0 0.0
0.0 0.0 0.0
0.0 0.0 0.0
0.0 0.0 0.0
0.0 0.0 0.0
0.0 0.0 0.0
0.0 0.0 0.0
0.0 0.0 0.0
0.0 0.0 0.0
0.0 0.0 0.0
0.0 0.0 0.0
0.0 0.0 0.0
0.0 0.0 0.0
0.0 0.0 0.0
0.0 0.0 0.0
0.0 0.0 0.0
0.0 0.0 0.0
0.0 0.0 0.0
0.0 0.0 0.0
0.0 0.0 0.0
0.0 0.0 0.0
0.0 0.0 0.0
0.0 0.0 0.0
0.0 0.0 0.0
0.0 0.0 0.0
0.0 0.0 0.0
0.0 0.0 0.0
0.0 0.0 0.0
0.0 0.0 0.0
0.0 0.0 0.0
0.0 0.0 0.0
0.0 0.0 0.0
0.0 0.0 0.0
0.0 0.0 0.0
0.0 0.0 0.0
0.0 0.0 0.0
0.0 0.0 0.0
0.0 0.0 0.0
0.0 0.0 0.0
0.0 0.0 0.0
0.0 0.0 0.0
0.0 0.0 0.0
0.0 0.0 0.0
0.0 0.0 0.0
0.0 0.0 0.0
0.0 0.0 0.0
VECTORS v float
1.19606 0.0 0.705624
1.19593 0.0 0.783237
1.19607 0.0 0.884564
1.19618 0.0 0.800741
1.19603 0.0 0.766228
1.19607 0.0 0.870846
1.19594 0.0 0.720407
1.02467 -0.174853 0.692407
0.544785 0.26742 0.000936905
0.793221 -0.616293 -0.301174
1.09685 0.342589 -0.0476137
1.19594 0.0 0.850296
1.1962 0.0 0.732092
1.19606 0.0 0.808826
0.622184 0.726472 -0.310458
1.19616 0.0 0.781696
1.1961 0.0 0.758222
1.84506 -0.387228 -0.942247
0.570101 0.120567 -0.053335
1.14803 0.0646747 -0.960956
0.0 0.0 -3.07526
0.0 0.0 -2.99952
0.0 0.0 -3.08291
0.0 0.0 -3.10557
0.0 0.0 -2.97088
0.0 0.0 -2.91859
0.0 0.0 -2.88671
0.0 0.0 -2.94145
0.860765 -0.686816 -2.20153
0.0 0.0 -2.99383
0.0 0.0 -2.86905
0.0 0.0 -2.753
0.0 0.0 -2.73838
0.0 0.0 -2.7168
0.0 0.0 -2.61576
0.0 0.0 -2.67413
0.0 0.0 -2.73338
0.0 0.0 -2.74358
0.0 0.0 -2.55954
0.0 0.0 -2.49235
0.0 0.0 -2.53188
0.0 0.0 -2.51069
0.0 0.0 -2.5203
0.0 0.0 -2.60918
0.0 0.0 -2.60477
0.0 0.0 -2.55454
0.0 0.0 -2.46115
0.0 0.0 -2.43241
0.0 0.0 -2.33745
0.0 0.0 -2.44379
0.0 0.0 -2.36187
0.0 0.0 -2.19049
0.0 0.0 -2.23101
0.0 0.0 -2.29546
0.0 0.0 -2.28212
0.0 0.0 -2.30272
0.0 0.0 -2.05011
0.0 0.0 -2.16136
0.0 0.0 -2.12212
0.0 0.0 -1.90012
0.0 0.0 -1.92572
0.0 0.0 -1.90502
0.0 0.0 -1.84979
0.0 0.0 -1.8804
0.0 0.0 -1.85303
0.0 0.0 -1.85685
0.0 0.0 -1.85244
0.0 0.0 -1.70931
0.0 0.0 -1.80045
0.0 0.0 -1.72893
0.0 0.0 -1.64496
0.0 0.0 -1.71343
0.0 0.0 -1.73256
0.0 0.0 -1.6686
0.0 0.0 -1.57217
0.0 0.0 -1.37999
0.0 0.0 -1.45131
0.0 0.0 -1.47014
0.0 0.0 -1.28846
0.0 0.0 -1.16034
0.0 0.0 -1.02487
0.0 0.0 -1.10374
0.0 0.0 -1.0648
0.0 0.0 -1.02811
0.0 0.0 -1.02055
0.0 0.0 -1.31328
0.0 0.0 -1.19703
0.0 0.0 -1.14828
0.0 0.0 -1.1319
0.0 0.0 -1.21371
0.0 0.0 -1.22136
0.0 0.0 -1.22362
0.0 0.0 -1.18771
0.0 0.0 -1.08795
-0 -0 -1.0
-0 -0 -1.0
-0 -0 -1.0
-0 -0 -1.0
-0 -0 -1.0
-0 -0 -1.0
-0 -0 -1.0
-0 -0 -1.0
-0 -0 -1.0
-0 -0 -1.0
-0 -0 -1.0
-0 -0 -1.0
-0 -0 -1.0
-0 -0 -1.0
-0 -0 -1.0
-0 -0 -1.0
-0 -0 -1.0
-0 -0 -1.0
-0 -0 -1.0
-0 -0 -1.0
-0 -0 -1.0
-0 -0 -1.0
-0 -0 -1.0
-0 -0 -1.0
-0 -0 -1.0
-0 -0 -1.0
-0 -0 -1.0
-0 -0 -1.0
-0 -0 -1.0
-0 -0 -1.0
-0 -0 -1.0
-0 -0 -1.0
-0 -0 -1.0
-0 -0 -1.0
-0 -0 -1.0
-0 -0 -1.0
-0 -0 -1.0
-0 -0 -1.0
-0 -0 -1.0
-0 -0 -1.0
-0 -0 -1.0
-0 -0 -1.0
-0 -0 -1.0
-0 -0 -1.0
-0 -0 -1.0
-0 -0 -1.0
-0 -0 -1.0
-0 -0 -1.0
-0 -0 -1.0
-0 -0 -1.0
-0 -0 -1.0
-0 -0 -1.0
-0 -0 -1.0
-0 -0 -1.0
-0 -0 -1.0
-0 -0 -1.0
-0 -0 -1.0
-0 -0 -1.0
-0 -0 -1.0
-0 -0 -1.0
-0 -0 -1.0
-0 -0 -1.0
-0 -0 -1.0
-0 -0 -1.0
-0 -0 -1.0
-0 -0 -1.0
-0 -0 -1.0
-0 -0 -1.0
-0 -0 -1.0
-0 -0 -1.0
-0 -0 -1.0
-0 -0 -1.0
-0 -0 -1.0
-0 -0 -1.0
-0 -0 -1.0
-0 -0 -1.0
-0 -0 -1.0
-0 -0 -1.0
-0 -0 -1.0
-0 -0 -1.0
-0 -0 -1.0
-0 -0 -1.0
SCALARS radius float 1
LOOKUP_TABLE default
0.03
0.03
0.03
0.03
0.03
0.03
0.03
0.03
0.03
0.03
0.03
0.03
0.03
0.03
0.03
0.03
0.03
0.03
0.03
0.03
0.03
0.03
0.03
0.03
0.03
0.03
0.03
0.03
0.03
0.03
0.03
0.03
0.03
0.03
0.03
0.03
0.03
0.03
0.03
0.03
0.03
0.03
0.03
0.03
0.03
0.03
0.03
0.03
0.03
0.03
0.03
0.03
0.03
0.03
0.03
0.03
0.03
0.03
0.03
0.03
0.03
0.03
0.03
0.03
0.03
0.03
0.03
0.03
0.03
0.03
0.03
0.03
0.03
0.03
0.03
0.03
0.03
0.03
0.03
0.03
0.03
0.03
0.03
0.03
0.03
0.03
0.03
0.03
0.03
0.03
0.03
0.03
0.03
0.03
0.03
0.03
0.03
0.03
0.03
0.03
0.03
0.03
0.03
0.03
0.03
0.03
0.03
0.03
0.03
0.03
0.03
0.03
0.03
0.03
0.03
0.03
0.03
0.03
0.03
0.03
0.03
0.03
0.03
0.03
0.03
0.03
0.03
0.03
0.03
0.03
0.03
0.03
0.03
0.03
0.03
0.03
0.03
0.03
0.03
0.03
0.03
0.03
0.03
0.03
0.03
0.03
0.03
0.03
0.03
0.03
0.03
0.03
0.03
0.03
0.03
0.03
0.03
0.03
0.03
0.03
0.03
0.03
0.03
0.03
0.03
0.03
0.03
0.03
0.03
0.03
0.03
0.03
0.03
0.03
0.03
0.03
SCALARS type float 1
LOOKUP_TABLE default
1.0
1.0
1.0
1.0
1.0
1.0
1.0
1.0
1.0
1.0
1.0
1.0
1.0
1.0
1.0
1.0
1.0
1.0
1.0
1.0
1.0
1.0
1.0
1.0
1.0
1.0
1.0
1.0
1.0
1.0
1.0
1.0
1.0
1.0
1.0
1.0
1.0
1.0
1.0
1.0
1.0
1.0
1.0
1.0
1.0
1.0
1.0
1.0
1.0
1.0
1.0
1.0
1.0
1.0
1.0
1.0
1.0
1.0
1.0
1.0
1.0
1.0
1.0
1.0
1.0
1.0
1.0
1.0
1.0
1.0
1.0
1.0
1.0
1.0
1.0
1.0
1.0
1.0
1.0
1.0
1.0
1.0
1.0
1.0
1.0
1.0
1.0
1.0
1.0
1.0
1.0
1.0
1.0
1.0
1.0
1.0
1.0
1.0
1.0
1.0
1.0
1.0
1.0
1.0
1.0
1.0
1.0
1.0
1.0
1.0
1.0
1.0
1.0
1.0
1.0
1.0
1.0
1.0
1.0
1.0
1.0
1.0
1.0
1.0
1.0
1.0
1.0
1.0
1.0
1.0
1.0
1.0
1.0
1.0
1.0
1.0
1.0
1.0
1.0
1.0
1.0
1.0
1.0
1.0
1.0
1.0
1.0
1.0
1.0
1.0
1.0
1.0
1.0
1.0
1.0
1.0
1.0
1.0
1.0
1.0
1.0
1.0
1.0
1.0
1.0
1.0
1.0
1.0
1.0
1.0
1.0
1.0
1.0
1.0
1.0
1.0
SCALARS id float 1
LOOKUP_TABLE default
100.0
123.0
49.0
79.0
105.0
42.0
129.0
149.0
112.0
41.0
21.0
16.0
82.0
98.0
66.0
85.0
152.0
92.0
144.0
166.0
29.0
138.0
167.0
53.0
137.0
94.0
127.0
99.0
104.0
18.0
91.0
97.0
108.0
81.0
5.0
145.0
131.0
51.0
128.0
171.0
76.0
19.0
133.0
24.0
151.0
2.0
146.0
1.0
80.0
12.0
61.0
72.0
45.0
71.0
17.0
174.0
15.0
47.0
130.0
73.0
116.0
55.0
31.0
93.0
44.0
4.0
107.0
148.0
32.0
57.0
83.0
118.0
164.0
125.0
64.0
23.0
26.0
68.0
60.0
46.0
140.0
10.0
102.0
155.0
136.0
70.0
157.0
173.0
176.0
28.0
77.0
75.0
67.0
110.0
135.0
156.0
35.0
25.0
63.0
30.0
163.0
52.0
143.0
86.0
22.0
40.0
120.0
8.0
165.0
113.0
101.0
33.0
134.0
162.0
159.0
139.0
13.0
43.0
121.0
153.0
58.0
78.0
109.0
87.0
37.0
158.0
69.0
117.0
27.0
38.0
147.0
90.0
170.0
150.0
115.0
119.0
168.0
114.0
7.0
14.0
62.0
48.0
3.0
50.0
54.0
95.0
103.0
65.0
11.0
111.0
161.0
141.0
169.0
59.0
74.0
56.0
6.0
96.0
154.0
132.0
126.0
89.0
124.0
106.0
36.0
142.0
175.0
122.0
20.0
172.0
34.0
9.0
88.0
84.0
160.0
39.0
SCALARS Temp float 1
LOOKUP_TABLE default
303.947
303.946
303.947
303.947
303.946
303.946
303.946
303.946
303.955
303.924
307.925
303.946
303.947
303.946
303.927
303.947
303.947
300.792
300.071
300.043
300.0
300.0
300.0
300.0
300.0
300.0
300.0
300.0
300.0
300.0
300.0
300.0
300.0
300.0
300.0
300.0
300.0
300.0
300.0
300.0
300.0
300.0
300.0
300.0
300.0
300.0
300.0
300.0
300.0
300.0
300.0
300.0
300.0
300.0
300.0
300.0
300.0
300.0
300.0
300.0
300.0
300.0
300.0
300.0
300.0
300.0
300.0
300.0
300.0
300.0
300.0
300.0
300.0
300.0
300.0
300.0
300.0
300.0
300.0
300.0
300.0
300.0
300.0
300.0
300.0
300.0
300.0
300.0
300.0
300.0
300.0
300.0
300.0
300.0
300.0
300.0
300.0
300.0
300.0
300.0
300.0
300.0
300.0
300.0
300.0
300.0
300.0
300.0
300.0
300.0
300.0
300.0
300.0
300.0
300.0
300.0
300.0
300.0
300.0
300.0
300.0
300.0
300.0
300.0
300.0
300.0
300.0
300.0
300.0
300.0
300.0
300.0
300.0
300.0
300.0
300.0
300.0
300.0
300.0
300.0
300.0
300.0
300.0
300.0
300.0
300.0
300.0
300.0
300.0
300.0
300.0
300.0
300.0
300.0
300.0
300.0
300.0
300.0
300.0
300.0
300.0
300.0
300.0
300.0
300.0
300.0
300.0
300.0
300.0
300.0
300.0
300.0
300.0
300.0
300.0
300.0

