# vtk DataFile Version 2.0
Generated by lpp.py
ASCII
DATASET POLYDATA
POINTS 352 float
0.0533672 0.169393 1.59894
0.346755 0.185731 1.57646
0.429097 0.170774 1.59408
0.496074 0.169022 1.59464
0.562232 0.17945 1.58525
0.627646 0.194941 1.57736
0.7764 0.190241 1.57696
0.931109 0.185356 1.5782
0.994466 0.186122 1.57691
1.06723 0.182272 1.5807
1.12722 0.193174 1.57705
1.25995 0.185656 1.57722
1.341 0.176637 1.5863
1.1808 0.22224 1.58163
1.30613 0.2238 1.57659
0.191211 0.245708 1.57704
0.485672 0.235279 1.57661
0.570679 0.238281 1.57759
0.676473 0.241849 1.57623
0.817934 0.245481 1.57686
0.898403 0.241884 1.57665
0.957207 0.238925 1.58846
1.01772 0.241976 1.57687
1.08161 0.245868 1.57686
1.22699 0.263129 1.57686
1.38121 0.234555 1.57686
0.297651 0.272701 1.57555
0.354723 0.278094 1.58683
0.416873 0.267621 1.57485
0.531924 0.297872 1.57704
0.592108 0.293494 1.58925
0.751596 0.289907 1.57684
0.860557 0.285341 1.59298
0.981624 0.301248 1.57686
1.28821 0.286529 1.57685
0.247936 0.304946 1.57847
0.461039 0.323087 1.57396
0.632017 0.337166 1.57759
0.683763 0.303172 1.57686
0.807106 0.312101 1.59234
0.143571 0.339818 1.57473
0.195285 0.365626 1.57575
0.295742 0.370426 1.57269
0.349362 0.350221 1.57736
0.511581 0.356037 1.58785
0.768112 0.354496 1.57678
0.942585 0.349258 1.57686
1.2058 0.373674 1.58031
0.233766 0.402915 1.5959
0.45912 0.381966 1.58032
0.601334 0.388672 1.57698
0.68934 0.392851 1.57694
1.01346 0.383946 1.57731
1.07206 0.398033 1.5813
0.190956 0.444449 1.57877
0.430642 0.433013 1.57608
0.63618 0.441619 1.59099
0.748439 0.41115 1.5779
0.893459 0.416052 1.57686
1.16878 0.423549 1.57687
0.297739 0.455197 1.57602
0.492813 0.480776 1.57686
0.756677 0.474541 1.57819
0.837101 0.461123 1.57645
0.944707 0.448687 1.57686
1.01604 0.461699 1.57711
1.44828 0.464817 1.57686
0.135884 0.481048 1.57711
0.382541 0.481874 1.57692
0.568183 0.502427 1.57747
0.694981 0.508389 1.57686
0.870915 0.513516 1.57922
0.94925 0.511882 1.58153
0.14661 0.549407 1.57653
0.347588 0.531228 1.57633
0.809159 0.542574 1.59581
1.19067 0.546218 1.57682
1.34307 0.5254 1.57686
1.53027 0.529633 1.57686
0.0678231 0.554463 1.57686
0.246786 0.569548 1.5776
0.370898 0.586579 1.59702
0.477773 0.563273 1.57604
0.538632 0.571513 1.58
0.659151 0.565053 1.57685
0.719633 0.566377 1.57687
0.906565 0.561428 1.57711
0.965148 0.579793 1.5893
1.03402 0.552737 1.57686
1.10274 0.572128 1.58283
1.27245 0.556058 1.57673
1.32313 0.583436 1.59235
1.38136 0.575527 1.58489
0.612111 0.142458 1.62052
0.99347 0.139648 1.62688
0.189319 0.194268 1.61031
0.307586 0.223223 1.60598
0.371048 0.218448 1.61972
0.730954 0.239925 1.60598
0.0698893 0.297599 1.62033
0.920573 0.292335 1.59854
0.13977 0.386872 1.6117
0.413807 0.382991 1.62383
0.79956 0.395089 1.61317
0.992377 0.396152 1.63307
0.0703577 0.415432 1.60762
0.268193 0.44066 1.62461
0.346411 0.420865 1.60178
0.677686 0.412815 1.63242
0.315591 0.476431 1.6292
0.411431 0.448435 1.62999
0.884378 0.466604 1.61515
0.216486 0.488809 1.61003
0.268678 0.515242 1.62132
0.359912 0.515958 1.63223
0.428505 0.505074 1.60813
0.6064 0.510539 1.6216
0.195617 0.548813 1.61557
0.483293 0.526943 1.62048
0.424488 0.593484 1.61721
0.620311 0.614139 1.62235
0.674808 0.592944 1.63418
0.823773 0.617133 1.6294
0.757485 0.102436 1.66495
0.430392 0.141544 1.64896
0.706681 0.126471 1.63666
0.084742 0.22379 1.64138
0.413057 0.223475 1.66314
0.464146 0.194277 1.63904
0.951563 0.231425 1.65487
0.171384 0.265321 1.63038
0.241479 0.269307 1.64025
0.306466 0.273773 1.64705
0.469334 0.276857 1.62081
0.82054 0.300342 1.6498
0.115695 0.328124 1.64705
0.21077 0.324617 1.6251
0.281507 0.330679 1.65221
0.37154 0.316606 1.62824
0.313257 0.374521 1.62597
0.459426 0.33687 1.62943
0.649646 0.344873 1.63702
0.232431 0.383417 1.64982
0.467876 0.404749 1.63766
0.600813 0.397364 1.64839
0.160882 0.461819 1.62626
0.350162 0.447361 1.67256
0.558311 0.461996 1.63792
0.803156 0.447851 1.64854
0.122938 0.511885 1.63413
0.768537 0.510503 1.63899
1.00203 0.503575 1.64868
0.543271 0.52573 1.63093
0.690216 0.539839 1.65733
0.947679 0.544722 1.66308
0.475145 0.0897609 1.67346
0.827397 0.203293 1.67753
0.13544 0.240179 1.66787
0.485476 0.241786 1.67047
0.205995 0.300374 1.68009
0.353825 0.290855 1.67715
0.380133 0.358299 1.67046
0.435549 0.35254 1.69285
0.288713 0.402443 1.67037
0.416765 0.420699 1.6803
0.534613 0.413297 1.66756
0.255074 0.471758 1.67194
0.398532 0.479695 1.6793
0.630199 0.480301 1.66491
0.302815 0.506928 1.67491
0.519897 0.599238 1.69294
0.716776 0.65405 1.66935
0.837538 0.660118 1.66941
0.185303 0.401405 1.67864
0.485376 0.385518 1.70338
0.106832 0.451129 1.71115
0.485548 0.450278 1.67816
0.473517 0.305435 1.73693
0.195772 0.344168 1.76911
0.323211 0.457255 1.75843
0.398493 0.508779 1.7843
0.180109 0.517525 1.75505
0.136852 0.289242 1.79602
0.416409 0.288456 1.79919
0.269256 0.359202 1.81316
0.218921 0.397847 1.81373
0.428381 0.4467 1.80483
0.466202 0.49757 1.82042
0.211371 0.280829 1.82823
0.305852 0.287522 1.85185
0.485374 0.358108 1.84296
0.349719 0.399621 1.82921
0.422187 0.378047 1.85015
0.169637 0.459874 1.8453
0.245914 0.511668 1.82643
0.103225 0.518985 1.85156
0.260718 0.244031 1.86054
0.499385 0.279499 1.86413
0.373442 0.329195 1.86737
0.102791 0.340368 1.8684
0.174537 0.231131 1.91727
0.346739 0.243699 1.91031
0.411604 0.238101 1.90075
0.108104 0.281799 1.91575
0.157239 0.333515 1.92061
0.478405 0.411198 1.91316
0.370548 0.454286 1.91716
0.209404 0.487055 1.92611
0.469838 0.243492 1.947
0.121741 0.410905 1.96887
0.189941 0.428545 1.9494
0.267329 0.456169 1.9502
0.43276 0.446836 1.94882
0.122063 0.498448 1.96715
0.341446 0.508108 1.94143
0.429885 0.51089 1.96296
0.144959 0.253084 2.00311
0.283642 0.234209 1.9755
0.225054 0.287898 1.9859
0.353756 0.288308 2.00609
0.268169 0.352895 1.97553
0.478946 0.338932 1.97655
0.33513 0.393755 2.00021
0.496878 0.474265 1.977
0.287754 0.512498 2.0041
0.222298 0.231508 2.0279
0.419349 0.297497 2.01834
0.107864 0.308056 2.02101
0.32031 0.335135 2.03617
0.216531 0.381594 2.02422
0.434422 0.399982 2.01556
0.177321 0.473873 2.01928
0.3755 0.471214 2.01458
0.482317 0.228242 2.05854
0.100828 0.246005 2.07484
0.386528 0.235346 2.05474
0.17305 0.29572 2.05163
0.280967 0.269166 2.05746
0.470734 0.315695 2.06592
0.383297 0.361785 2.07306
0.142292 0.405308 2.06272
0.289149 0.393948 2.05364
0.495324 0.379459 2.07665
0.10269 0.478868 2.06007
0.265427 0.473439 2.05144
0.338206 0.47604 2.07542
0.405771 0.451899 2.07402
0.487332 0.44601 2.05319
0.230707 0.52291 2.04918
0.477819 0.52568 2.071
0.227735 0.245208 2.10361
0.334084 0.267131 2.08623
0.479511 0.263195 2.1125
0.283481 0.328862 2.10466
0.383935 0.304407 2.09118
0.104364 0.371175 2.09875
0.189473 0.369831 2.09465
0.433942 0.344323 2.10524
0.124882 0.444445 2.10537
0.238696 0.425254 2.08413
0.292698 0.428673 2.11157
0.367427 0.412219 2.10779
0.307197 0.231054 2.13934
0.410316 0.229607 2.11717
0.112238 0.243444 2.14138
0.338106 0.302046 2.14158
0.144627 0.329159 2.14743
0.488965 0.329122 2.13107
0.26384 0.382845 2.14039
0.436973 0.45447 2.1286
0.498994 0.449521 2.12904
0.197767 0.505506 2.13969
0.387806 0.497135 2.11601
0.10683 0.52412 2.12027
0.498691 0.522189 2.13147
0.498503 0.253983 2.17572
0.196779 0.286134 2.15798
0.322732 0.35929 2.17017
0.388723 0.350133 2.15272
0.179678 0.383211 2.16608
0.404531 0.416433 2.16679
0.180002 0.445959 2.16427
0.230608 0.478968 2.18273
0.336562 0.447813 2.1553
0.133145 0.50156 2.1751
0.316599 0.507618 2.15974
0.4192 0.521596 2.16807
0.299287 0.247375 2.19679
0.442411 0.236129 2.19895
0.126939 0.284236 2.20643
0.432796 0.302258 2.18979
0.187834 0.32549 2.21014
0.256147 0.321804 2.22011
0.345572 0.308923 2.20327
0.476186 0.343657 2.19982
0.499396 0.409304 2.19395
0.282511 0.427246 2.21226
0.180798 0.510604 2.21163
0.383426 0.485675 2.2055
0.196226 0.26238 2.22567
0.356376 0.254196 2.2277
0.44222 0.295647 2.25067
0.346145 0.350757 2.25426
0.110703 0.374435 2.22211
0.415762 0.389621 2.22827
0.475094 0.383761 2.24966
0.214879 0.429082 2.23971
0.107302 0.455042 2.22596
0.466199 0.451954 2.25462
0.236464 0.494005 2.25237
0.430217 0.500721 2.25499
0.49838 0.508374 2.23212
0.339305 0.526873 2.24754
0.103324 0.228818 2.28871
0.161403 0.258279 2.28827
0.271982 0.260644 2.2608
0.321856 0.294278 2.25913
0.125428 0.344451 2.27441
0.189012 0.364304 2.28306
0.415188 0.353574 2.27906
0.282424 0.374546 2.26858
0.115455 0.44409 2.2845
0.323589 0.424937 2.2771
0.104255 0.515661 2.26241
0.363615 0.240431 2.29399
0.425069 0.242959 2.29512
0.499192 0.246026 2.29267
0.257372 0.298287 2.32437
0.31493 0.348737 2.31385
0.484684 0.362834 2.32124
0.40415 0.414672 2.29454
0.158807 0.499296 2.30065
0.370433 0.49856 2.29148
0.264146 0.523422 2.29795
0.220666 0.238837 2.33734
0.393674 0.233628 2.35132
0.17717 0.298235 2.3492
0.314466 0.284399 2.34272
0.492483 0.279077 2.3444
0.417494 0.317622 2.34147
0.107591 0.339963 2.35367
0.125062 0.39201 2.32589
0.217234 0.387064 2.33563
0.385775 0.387923 2.35657
0.449749 0.403068 2.34884
0.139724 0.459766 2.35164
0.263093 0.452487 2.34205
0.417911 0.469013 2.33692
0.486571 0.452792 2.34556
0.220758 0.508511 2.34861
0.312076 0.491969 2.3476
0.490194 0.521396 2.35111
VERTICES 352 704
1 0
1 1
1 2
1 3
1 4
1 5
1 6
1 7
1 8
1 9
1 10
1 11
1 12
1 13
1 14
1 15
1 16
1 17
1 18
1 19
1 20
1 21
1 22
1 23
1 24
1 25
1 26
1 27
1 28
1 29
1 30
1 31
1 32
1 33
1 34
1 35
1 36
1 37
1 38
1 39
1 40
1 41
1 42
1 43
1 44
1 45
1 46
1 47
1 48
1 49
1 50
1 51
1 52
1 53
1 54
1 55
1 56
1 57
1 58
1 59
1 60
1 61
1 62
1 63
1 64
1 65
1 66
1 67
1 68
1 69
1 70
1 71
1 72
1 73
1 74
1 75
1 76
1 77
1 78
1 79
1 80
1 81
1 82
1 83
1 84
1 85
1 86
1 87
1 88
1 89
1 90
1 91
1 92
1 93
1 94
1 95
1 96
1 97
1 98
1 99
1 100
1 101
1 102
1 103
1 104
1 105
1 106
1 107
1 108
1 109
1 110
1 111
1 112
1 113
1 114
1 115
1 116
1 117
1 118
1 119
1 120
1 121
1 122
1 123
1 124
1 125
1 126
1 127
1 128
1 129
1 130
1 131
1 132
1 133
1 134
1 135
1 136
1 137
1 138
1 139
1 140
1 141
1 142
1 143
1 144
1 145
1 146
1 147
1 148
1 149
1 150
1 151
1 152
1 153
1 154
1 155
1 156
1 157
1 158
1 159
1 160
1 161
1 162
1 163
1 164
1 165
1 166
1 167
1 168
1 169
1 170
1 171
1 172
1 173
1 174
1 175
1 176
1 177
1 178
1 179
1 180
1 181
1 182
1 183
1 184
1 185
1 186
1 187
1 188
1 189
1 190
1 191
1 192
1 193
1 194
1 195
1 196
1 197
1 198
1 199
1 200
1 201
1 202
1 203
1 204
1 205
1 206
1 207
1 208
1 209
1 210
1 211
1 212
1 213
1 214
1 215
1 216
1 217
1 218
1 219
1 220
1 221
1 222
1 223
1 224
1 225
1 226
1 227
1 228
1 229
1 230
1 231
1 232
1 233
1 234
1 235
1 236
1 237
1 238
1 239
1 240
1 241
1 242
1 243
1 244
1 245
1 246
1 247
1 248
1 249
1 250
1 251
1 252
1 253
1 254
1 255
1 256
1 257
1 258
1 259
1 260
1 261
1 262
1 263
1 264
1 265
1 266
1 267
1 268
1 269
1 270
1 271
1 272
1 273
1 274
1 275
1 276
1 277
1 278
1 279
1 280
1 281
1 282
1 283
1 284
1 285
1 286
1 287
1 288
1 289
1 290
1 291
1 292
1 293
1 294
1 295
1 296
1 297
1 298
1 299
1 300
1 301
1 302
1 303
1 304
1 305
1 306
1 307
1 308
1 309
1 310
1 311
1 312
1 313
1 314
1 315
1 316
1 317
1 318
1 319
1 320
1 321
1 322
1 323
1 324
1 325
1 326
1 327
1 328
1 329
1 330
1 331
1 332
1 333
1 334
1 335
1 336
1 337
1 338
1 339
1 340
1 341
1 342
1 343
1 344
1 345
1 346
1 347
1 348
1 349
1 350
1 351
POINT_DATA 352
VECTORS i float
0.0 0.0 0.0
0.0 0.0 0.0
0.0 0.0 0.0
0.0 0.0 0.0
0.0 0.0 0.0
0.0 0.0 0.0
0.0 0.0 0.0
0.0 0.0 0.0
0.0 0.0 0.0
0.0 0.0 0.0
0.0 0.0 0.0
0.0 0.0 0.0
0.0 0.0 0.0
0.0 0.0 0.0
0.0 0.0 0.0
0.0 0.0 0.0
0.0 0.0 0.0
0.0 0.0 0.0
0.0 0.0 0.0
0.0 0.0 0.0
0.0 0.0 0.0
0.0 0.0 0.0
0.0 0.0 0.0
0.0 0.0 0.0
0.0 0.0 0.0
0.0 0.0 0.0
0.0 0.0 0.0
0.0 0.0 0.0
0.0 0.0 0.0
0.0 0.0 0.0
0.0 0.0 0.0
0.0 0.0 0.0
0.0 0.0 0.0
0.0 0.0 0.0
0.0 0.0 0.0
0.0 0.0 0.0
0.0 0.0 0.0
0.0 0.0 0.0
0.0 0.0 0.0
0.0 0.0 0.0
0.0 0.0 0.0
0.0 0.0 0.0
0.0 0.0 0.0
0.0 0.0 0.0
0.0 0.0 0.0
0.0 0.0 0.0
0.0 0.0 0.0
0.0 0.0 0.0
0.0 0.0 0.0
0.0 0.0 0.0
0.0 0.0 0.0
0.0 0.0 0.0
0.0 0.0 0.0
0.0 0.0 0.0
0.0 0.0 0.0
0.0 0.0 0.0
0.0 0.0 0.0
0.0 0.0 0.0
0.0 0.0 0.0
0.0 0.0 0.0
0.0 0.0 0.0
0.0 0.0 0.0
0.0 0.0 0.0
0.0 0.0 0.0
0.0 0.0 0.0
0.0 0.0 0.0
0.0 0.0 0.0
0.0 0.0 0.0
0.0 0.0 0.0
0.0 0.0 0.0
0.0 0.0 0.0
0.0 0.0 0.0
0.0 0.0 0.0
0.0 0.0 0.0
0.0 0.0 0.0
0.0 0.0 0.0
0.0 0.0 0.0
0.0 0.0 0.0
0.0 0.0 0.0
0.0 0.0 0.0
0.0 0.0 0.0
0.0 0.0 0.0
0.0 0.0 0.0
0.0 0.0 0.0
0.0 0.0 0.0
0.0 0.0 0.0
0.0 0.0 0.0
0.0 0.0 0.0
0.0 0.0 0.0
0.0 0.0 0.0
0.0 0.0 0.0
0.0 0.0 0.0
0.0 0.0 0.0
0.0 0.0 0.0
0.0 0.0 0.0
0.0 0.0 0.0
0.0 0.0 0.0
0.0 0.0 0.0
0.0 0.0 0.0
0.0 0.0 0.0
0.0 0.0 0.0
0.0 0.0 0.0
0.0 0.0 0.0
0.0 0.0 0.0
0.0 0.0 0.0
0.0 0.0 0.0
0.0 0.0 0.0
0.0 0.0 0.0
0.0 0.0 0.0
0.0 0.0 0.0
0.0 0.0 0.0
0.0 0.0 0.0
0.0 0.0 0.0
0.0 0.0 0.0
0.0 0.0 0.0
0.0 0.0 0.0
0.0 0.0 0.0
0.0 0.0 0.0
0.0 0.0 0.0
0.0 0.0 0.0
0.0 0.0 0.0
0.0 0.0 0.0
0.0 0.0 0.0
0.0 0.0 0.0
0.0 0.0 0.0
0.0 0.0 0.0
0.0 0.0 0.0
0.0 0.0 0.0
0.0 0.0 0.0
0.0 0.0 0.0
0.0 0.0 0.0
0.0 0.0 0.0
0.0 0.0 0.0
0.0 0.0 0.0
0.0 0.0 0.0
0.0 0.0 0.0
0.0 0.0 0.0
0.0 0.0 0.0
0.0 0.0 0.0
0.0 0.0 0.0
0.0 0.0 0.0
0.0 0.0 0.0
0.0 0.0 0.0
0.0 0.0 0.0
0.0 0.0 0.0
0.0 0.0 0.0
0.0 0.0 0.0
0.0 0.0 0.0
0.0 0.0 0.0
0.0 0.0 0.0
0.0 0.0 0.0
0.0 0.0 0.0
0.0 0.0 0.0
0.0 0.0 0.0
0.0 0.0 0.0
0.0 0.0 0.0
0.0 0.0 0.0
0.0 0.0 0.0
0.0 0.0 0.0
0.0 0.0 0.0
0.0 0.0 0.0
0.0 0.0 0.0
0.0 0.0 0.0
0.0 0.0 0.0
0.0 0.0 0.0
0.0 0.0 0.0
0.0 0.0 0.0
0.0 0.0 0.0
0.0 0.0 0.0
0.0 0.0 0.0
0.0 0.0 0.0
0.0 0.0 0.0
0.0 0.0 0.0
0.0 0.0 0.0
0.0 0.0 0.0
0.0 0.0 0.0
0.0 0.0 0.0
0.0 0.0 0.0
0.0 0.0 0.0
0.0 0.0 0.0
0.0 0.0 0.0
0.0 0.0 0.0
0.0 0.0 0.0
0.0 0.0 0.0
0.0 0.0 0.0
0.0 0.0 0.0
0.0 0.0 0.0
0.0 0.0 0.0
0.0 0.0 0.0
0.0 0.0 0.0
0.0 0.0 0.0
0.0 0.0 0.0
0.0 0.0 0.0
0.0 0.0 0.0
0.0 0.0 0.0
0.0 0.0 0.0
0.0 0.0 0.0
0.0 0.0 0.0
0.0 0.0 0.0
0.0 0.0 0.0
0.0 0.0 0.0
0.0 0.0 0.0
0.0 0.0 0.0
0.0 0.0 0.0
0.0 0.0 0.0
0.0 0.0 0.0
0.0 0.0 0.0
0.0 0.0 0.0
0.0 0.0 0.0
0.0 0.0 0.0
0.0 0.0 0.0
0.0 0.0 0.0
0.0 0.0 0.0
0.0 0.0 0.0
0.0 0.0 0.0
0.0 0.0 0.0
0.0 0.0 0.0
0.0 0.0 0.0
0.0 0.0 0.0
0.0 0.0 0.0
0.0 0.0 0.0
0.0 0.0 0.0
0.0 0.0 0.0
0.0 0.0 0.0
0.0 0.0 0.0
0.0 0.0 0.0
0.0 0.0 0.0
0.0 0.0 0.0
0.0 0.0 0.0
0.0 0.0 0.0
0.0 0.0 0.0
0.0 0.0 0.0
0.0 0.0 0.0
0.0 0.0 0.0
0.0 0.0 0.0
0.0 0.0 0.0
0.0 0.0 0.0
0.0 0.0 0.0
0.0 0.0 0.0
0.0 0.0 0.0
0.0 0.0 0.0
0.0 0.0 0.0
0.0 0.0 0.0
0.0 0.0 0.0
0.0 0.0 0.0
0.0 0.0 0.0
0.0 0.0 0.0
0.0 0.0 0.0
0.0 0.0 0.0
0.0 0.0 0.0
0.0 0.0 0.0
0.0 0.0 0.0
0.0 0.0 0.0
0.0 0.0 0.0
0.0 0.0 0.0
0.0 0.0 0.0
0.0 0.0 0.0
0.0 0.0 0.0
0.0 0.0 0.0
0.0 0.0 0.0
0.0 0.0 0.0
0.0 0.0 0.0
0.0 0.0 0.0
0.0 0.0 0.0
0.0 0.0 0.0
0.0 0.0 0.0
0.0 0.0 0.0
0.0 0.0 0.0
0.0 0.0 0.0
0.0 0.0 0.0
0.0 0.0 0.0
0.0 0.0 0.0
0.0 0.0 0.0
0.0 0.0 0.0
0.0 0.0 0.0
0.0 0.0 0.0
0.0 0.0 0.0
0.0 0.0 0.0
0.0 0.0 0.0
0.0 0.0 0.0
0.0 0.0 0.0
0.0 0.0 0.0
0.0 0.0 0.0
0.0 0.0 0.0
0.0 0.0 0.0
0.0 0.0 0.0
0.0 0.0 0.0
0.0 0.0 0.0
0.0 0.0 0.0
0.0 0.0 0.0
0.0 0.0 0.0
0.0 0.0 0.0
0.0 0.0 0.0
0.0 0.0 0.0
0.0 0.0 0.0
0.0 0.0 0.0
0.0 0.0 0.0
0.0 0.0 0.0
0.0 0.0 0.0
0.0 0.0 0.0
0.0 0.0 0.0
0.0 0.0 0.0
0.0 0.0 0.0
0.0 0.0 0.0
0.0 0.0 0.0
0.0 0.0 0.0
0.0 0.0 0.0
0.0 0.0 0.0
0.0 0.0 0.0
0.0 0.0 0.0
0.0 0.0 0.0
0.0 0.0 0.0
0.0 0.0 0.0
0.0 0.0 0.0
0.0 0.0 0.0
0.0 0.0 0.0
0.0 0.0 0.0
0.0 0.0 0.0
0.0 0.0 0.0
0.0 0.0 0.0
0.0 0.0 0.0
0.0 0.0 0.0
0.0 0.0 0.0
0.0 0.0 0.0
0.0 0.0 0.0
0.0 0.0 0.0
0.0 0.0 0.0
0.0 0.0 0.0
0.0 0.0 0.0
0.0 0.0 0.0
0.0 0.0 0.0
0.0 0.0 0.0
0.0 0.0 0.0
0.0 0.0 0.0
0.0 0.0 0.0
0.0 0.0 0.0
0.0 0.0 0.0
0.0 0.0 0.0
0.0 0.0 0.0
0.0 0.0 0.0
0.0 0.0 0.0
0.0 0.0 0.0
0.0 0.0 0.0
0.0 0.0 0.0
0.0 0.0 0.0
0.0 0.0 0.0
0.0 0.0 0.0
0.0 0.0 0.0
0.0 0.0 0.0
0.0 0.0 0.0
0.0 0.0 0.0
0.0 0.0 0.0
VECTORS f float
0.0 0.0 -2.77371
9.7684 16.0309 8.28526
0.0 0.0 -2.77371
0.0 0.0 -2.77371
0.0798717 -2.2715 -3.47939
0.0 0.0 -2.77371
-0.27712 0.0440141 -4.13236
0.0 0.0 -2.77371
-0.832321 0.267923 0.249091
0.864274 1.22531 -1.55446
0.655233 0.254602 -0.994002
1.08766 1.39755 -1.20107
2.39617 -3.46484 3.0323
0.0 0.0 -2.77371
-0.707563 2.04913 0.227216
-0.464139 0.122373 -4.39546
0.522992 -1.11534 3.50137
-0.0798717 2.2715 -2.06803
3.77834 0.311273 19.2126
-0.198821 -0.307672 -0.160758
1.63604 -2.59548 0.809778
0.0 0.0 -2.77371
8.42444e-05 -3.32523e-05 -0.0577006
-0.000823503 0.00105642 -0.0237747
0.0032864 -0.000626607 0.0360015
-0.000205196 1.88697e-06 0.000718475
-4.71284 -15.4538 9.28787
17.0697 -4.30818 5.25146
32.1044 4.39137 62.033
0.0244384 -0.00824372 -2.82529
0.0 0.0 -2.77371
0.529887 0.0782725 1.92751
1.32108 -1.09706 -4.14569
-0.00276845 0.000616888 0.0501742
0.0199818 -0.00764979 0.338534
-12.4346 6.85482 -8.93022
-13.797 -6.97693 76.9877
-0.15309 0.182725 -2.66534
0.00194626 9.06661e-05 0.0474395
1.35967 -1.7508 -0.0337331
-8.88144 -4.08006 33.2573
9.84521 -1.07251 20.071
8.42256 -8.59102 77.7921
69.3805 -28.1772 42.5546
8.32963 -3.23266 0.229116
-0.0972459 -0.382921 0.756526
-1.80432e-05 -1.25677e-06 0.00115195
0.0 0.0 -2.77371
48.0841 9.94448 -11.3471
3.64384 -1.37073 -1.04542
0.188999 -0.276862 -3.08359
0.0613316 -0.543154 -5.76101
0.0 0.0 -2.77371
0.0 0.0 -2.77371
-0.621044 1.73716 1.52848
-8.37037 16.1858 -11.3725
0.0 0.0 -2.77371
0.06661 -0.112988 -2.83561
-0.00588456 -2.53135e-05 -0.0781984
-0.000718751 1.92412e-05 -0.0593919
3.38527 -3.47889 1.48341
-0.238829 -0.0925087 0.119427
0.0 0.0 -2.77371
6.12149 6.7466 15.446
-0.000125505 3.96444e-06 -0.00151342
0.0 0.0 -2.77371
-1.30945e-12 -1.05541e-13 -4.72391e-11
-0.015109 0.108191 -3.41436
0.321994 0.144961 -3.47995
-17.8056 7.47143 -28.955
-0.00999365 0.00103511 -0.0980986
0.304371 0.645599 -3.12535
0.0 0.0 -2.77371
3.79097 0.516162 -22.2113
-6.1435 -1.44767 -3.10832
0.0 0.0 -2.77371
0.00664087 -0.00302565 0.774757
-0.000550361 -0.00027302 0.0432828
-2.41506e-12 7.51172e-14 -5.40012e-13
0.0944753 -0.0041706 0.442686
6.72961 -8.89041 7.59982
-45.3216 5.41382 -47.3418
5.49738 -0.941138 12.2752
5.40128 -7.05625 5.71259
0.00314268 -1.72365e-05 0.15121
-1.20473 -0.0708742 -0.360089
-0.307394 -0.632156 -2.44963
0.0 0.0 -2.77371
-0.000148894 -1.51539e-05 0.00428718
0.0 0.0 -2.77371
-1.22127 -0.474396 0.146881
-10.2625 1.58399 5.21121
19.1929 -4.87266 0.68706
0.0272912 0.860622 -1.06562
0.0 0.0 -2.77371
0.0 0.0 -2.77371
2.18561 -6.71953 8.21285
0.324306 2.18169 -1.43617
0.0 0.0 -2.77371
0.0 0.0 -2.77371
0.915527 4.61024 2.12759
-4.15754 -6.19276 9.03639
0.876926 0.300695 -2.98853
0.0 0.0 -2.77371
0.0 0.0 -2.77371
0.0 0.0 -2.77371
10.023 8.32787 -0.556474
0.0 0.0 -2.77371
0.0 0.0 -2.77371
10.4997 -32.2215 -156.526
-0.0453622 38.1891 -91.6634
0.0 0.0 -2.77371
4.78852 -0.249138 -5.82885
-4.74063 -1.38758 -0.869557
-9.55844 -5.1391 -26.6834
0.0 0.0 -2.77371
7.93295 3.96141 -1.83321
0.0 0.0 -2.77371
10.3839 -22.1426 39.6669
45.3216 -5.41382 41.7944
4.56583 -2.86804 0.372468
-30.9658 5.31856 -7.72029
0.0 0.0 -2.77371
0.0 0.0 -2.77371
0.0 0.0 -2.77371
0.229466 0.284494 -2.35851
-65.1294 -9.25883 -16.8804
0.0 0.0 -2.77371
0.0 0.0 -2.77371
0.0 0.0 -2.77371
20.6142 9.93939 -2.85487
0.0 0.0 -2.77371
-5.88675 -1.21974 -3.34541
0.0 0.0 -2.77371
0.0 0.0 -2.77371
0.0 0.0 -2.77371
0.0 0.0 -2.77371
0.0 0.0 -2.77371
55.8606 21.5176 -57.6295
6.69519 0.242832 68.9271
5.67893 8.81924 57.9389
0.0 0.0 -2.77371
19.6768 -9.78066 15.0194
-0.876926 -0.300695 -2.55889
0.0 0.0 -2.77371
0.588267 -0.208633 -5.28427
-36.0353 -5.87027 -14.8171
0.0 0.0 -2.77371
0.0 0.0 -2.77371
0.0 0.0 -2.77371
0.0 0.0 -2.77371
0.0 0.0 -2.77371
0.0 0.0 -2.77371
28.5516 -5.23528 2.46719
0.0 0.0 -2.77371
0.0 0.0 -2.77371
0.0 0.0 -2.77371
44.5152 -0.680556 11.4141
0.0 0.0 -2.77371
0.0 0.0 -2.77371
-35.2103 -6.82778 72.7694
2.4927 -3.81326 -4.24625
0.0 0.0 -2.77371
-2.37376 16.9329 50.2017
3.88339 -38.9977 108.18
0.0 0.0 -2.77371
2.3148 14.8154 16.6945
32.5878 2.66364 -2.66692
9.87269 -11.4328 22.4671
-2.45694 53.9845 173.069
0.0 0.0 -2.77371
0.0 0.0 -2.77371
-0.229199 -0.54387 -1.24616
-29.1778 6.06259 31.0769
0.0 0.0 -2.77371
0.0 0.0 -2.77371
0.0 0.0 -2.77371
0.0 0.0 -2.77371
0.0 0.0 -2.77371
0.0 0.0 -2.77371
0.0 0.0 -2.77371
0.0 0.0 -2.77371
0.0 0.0 -2.77371
0.0 0.0 -2.77371
0.0 0.0 -2.77371
0.0 0.0 -2.77371
0.0 0.0 -2.77371
0.0 0.0 -2.77371
0.0 0.0 -2.77371
0.0 0.0 -2.77371
0.0 0.0 -2.77371
0.0 0.0 -2.77371
0.0 0.0 -2.77371
0.0 0.0 -2.77371
0.0 0.0 -2.77371
0.0 0.0 -2.77371
0.0 0.0 -2.77371
0.0 0.0 -2.77371
0.0 0.0 -2.77371
0.0 0.0 -2.77371
0.0 0.0 -2.77371
0.0 0.0 -2.77371
0.0 0.0 -2.77371
0.0 0.0 -2.77371
0.0 0.0 -2.77371
0.0 0.0 -2.77371
0.0 0.0 -2.77371
0.0 0.0 -2.77371
0.0 0.0 -2.77371
0.0 0.0 -2.77371
0.0 0.0 -2.77371
0.0 0.0 -2.77371
0.0 0.0 -2.77371
0.0 0.0 -2.77371
0.0 0.0 -2.77371
0.0 0.0 -2.77371
0.0 0.0 -2.77371
0.0 0.0 -2.77371
0.0 0.0 -2.77371
0.0 0.0 -2.77371
0.0 0.0 -2.77371
0.0 0.0 -2.77371
0.0 0.0 -2.77371
0.0 0.0 -2.77371
0.0 0.0 -2.77371
0.0 0.0 -2.77371
0.0 0.0 -2.77371
0.0 0.0 -2.77371
0.0 0.0 -2.77371
0.0 0.0 -2.77371
0.0 0.0 -2.77371
0.0 0.0 -2.77371
0.0 0.0 -2.77371
0.0 0.0 0.0
0.0 0.0 0.0
0.0 0.0 0.0
0.0 0.0 0.0
0.0 0.0 0.0
0.0 0.0 0.0
0.0 0.0 0.0
0.0 0.0 0.0
0.0 0.0 0.0
0.0 0.0 0.0
0.0 0.0 0.0
0.0 0.0 0.0
0.0 0.0 0.0
0.0 0.0 0.0
0.0 0.0 0.0
0.0 0.0 0.0
0.0 0.0 0.0
0.0 0.0 0.0
0.0 0.0 0.0
0.0 0.0 0.0
0.0 0.0 0.0
0.0 0.0 0.0
0.0 0.0 0.0
0.0 0.0 0.0
0.0 0.0 0.0
0.0 0.0 0.0
0.0 0.0 0.0
0.0 0.0 0.0
0.0 0.0 0.0
0.0 0.0 0.0
0.0 0.0 0.0
0.0 0.0 0.0
0.0 0.0 0.0
0.0 0.0 0.0
0.0 0.0 0.0
0.0 0.0 0.0
0.0 0.0 0.0
0.0 0.0 0.0
0.0 0.0 0.0
0.0 0.0 0.0
0.0 0.0 0.0
0.0 0.0 0.0
0.0 0.0 0.0
0.0 0.0 0.0
0.0 0.0 0.0
0.0 0.0 0.0
0.0 0.0 0.0
0.0 0.0 0.0
0.0 0.0 0.0
0.0 0.0 0.0
0.0 0.0 0.0
0.0 0.0 0.0
0.0 0.0 0.0
0.0 0.0 0.0
0.0 0.0 0.0
0.0 0.0 0.0
0.0 0.0 0.0
0.0 0.0 0.0
0.0 0.0 0.0
0.0 0.0 0.0
0.0 0.0 0.0
0.0 0.0 0.0
0.0 0.0 0.0
0.0 0.0 0.0
0.0 0.0 0.0
0.0 0.0 0.0
0.0 0.0 0.0
0.0 0.0 0.0
0.0 0.0 0.0
0.0 0.0 0.0
0.0 0.0 0.0
0.0 0.0 0.0
0.0 0.0 0.0
0.0 0.0 0.0
0.0 0.0 0.0
0.0 0.0 0.0
0.0 0.0 0.0
0.0 0.0 0.0
0.0 0.0 0.0
0.0 0.0 0.0
0.0 0.0 0.0
0.0 0.0 0.0
0.0 0.0 0.0
0.0 0.0 0.0
0.0 0.0 0.0
0.0 0.0 0.0
0.0 0.0 0.0
0.0 0.0 0.0
0.0 0.0 0.0
0.0 0.0 0.0
0.0 0.0 0.0
0.0 0.0 0.0
0.0 0.0 0.0
0.0 0.0 0.0
0.0 0.0 0.0
0.0 0.0 0.0
0.0 0.0 0.0
0.0 0.0 0.0
0.0 0.0 0.0
0.0 0.0 0.0
0.0 0.0 0.0
0.0 0.0 0.0
0.0 0.0 0.0
0.0 0.0 0.0
0.0 0.0 0.0
0.0 0.0 0.0
0.0 0.0 0.0
0.0 0.0 0.0
0.0 0.0 0.0
0.0 0.0 0.0
0.0 0.0 0.0
0.0 0.0 0.0
0.0 0.0 0.0
0.0 0.0 0.0
0.0 0.0 0.0
0.0 0.0 0.0
0.0 0.0 0.0
0.0 0.0 0.0
0.0 0.0 0.0
VECTORS omega float
7.04825 -123.856 48.9089
27.817 -82.0128 -19.5197
29.1388 -69.6252 21.5204
6.77575 -35.4107 39.8824
-0.352986 -79.8438 30.9777
-14.8836 -56.1249 7.08877
-10.6983 -73.3726 27.2201
-6.82085 -69.8317 3.69025
-0.755673 -49.5056 16.8512
-10.3704 19.1229 18.2961
-7.44706 -45.4987 1.57525
0.368012 -62.3854 6.16587
8.49478 -50.2632 10.5842
-22.3713 -43.7117 12.1664
19.3519 -38.2871 1.86475
9.15541 -95.9584 2.43991
1.1935 -73.2038 -25.195
-7.07646 -71.2976 -9.96271
3.64212 -66.377 1.7898
2.87618 -52.7603 0.695015
-12.287 -20.3823 3.6445
-27.8281 30.2231 -10.9334
0.249034 -51.0103 2.16681
-10.4524 -53.3934 -3.59968
-9.45168 -50.7599 -22.7994
-0.448587 -48.7677 4.2775
17.5897 -86.3617 9.9923
3.49845 62.1788 -6.98311
7.11931 -79.2101 17.3319
13.7868 -64.6257 4.92987
-21.7753 33.7065 0.294843
6.82012 -62.6813 4.42674
-14.9729 2.60058 -6.62727
-10.564 -47.3881 5.26014
2.03945 -38.8752 -11.5392
20.6562 -98.8571 -0.230475
18.1958 -75.2395 -4.82267
16.2367 -61.2837 -10.1017
4.81256 -66.271 3.15132
-0.0506733 49.3954 7.88301
4.23959 -108.616 -10.9609
-35.4999 -45.7486 14.0565
10.8018 -69.9739 -21.1142
23.5041 -57.364 25.4032
-12.0686 -6.88086 -13.3708
4.57938 -61.5008 -2.17601
3.93832 -56.5417 -7.19384
-22.106 2.68644 -1.68449
10.5891 63.6249 6.40404
15.0385 53.9172 7.82566
7.08213 -59.5478 -4.03944
8.52756 -53.0827 -3.60111
-3.21506 -45.1369 4.51135
-9.30591 -28.36 -2.96763
15.3765 -70.7743 -16.0353
3.19611 -74.1896 -17.1862
12.5608 5.35509 -18.1428
1.52853 -68.374 -15.3733
0.286811 -60.2752 -7.09483
-4.73105 -63.3179 2.64099
-15.5265 -60.9171 26.953
-11.0611 -76.9089 3.87984
-1.36294 -56.9263 14.5569
-12.4385 -46.1742 -1.46816
-1.98701 -62.8873 -10.1731
3.18955 -61.0582 -12.6879
-4.91954 -50.7279 2.52464
5.6391 -16.7733 -7.61104
4.07034 -94.4901 -6.09185
-14.3506 -64.0319 0.698276
-5.06407 -48.7753 10.9756
-13.4369 -43.0184 4.02021
14.7696 -45.1591 15.8433
-14.5811 -100.658 -15.2694
-26.5287 -69.2294 24.1623
1.15333 33.4946 17.3739
-26.74 -59.6764 -14.5382
3.26524 -33.1254 3.61123
-1.81727 -43.4917 1.90422
-5.73596 -125.288 -5.60855
-10.0449 -92.5908 -2.48469
-32.3266 -8.61053 -40.0553
-6.80455 -55.8327 -1.76244
-7.76546 -77.2647 4.20401
-0.297361 -61.4328 -37.7919
3.09769 -74.1665 -8.86976
-0.136219 -47.8207 -28.6041
2.72379 -58.4917 -15.0637
5.52552 -54.2928 -16.0757
6.6068 -34.4384 -27.0091
1.92416 -25.4745 22.2952
-1.43158 -8.08379 -22.1807
-3.15098 -42.5878 -4.50915
0.664672 -66.0403 43.376
-0.853713 -36.5678 49.9132
11.6196 29.5371 -13.1488
8.96559 4.30096 26.0916
-70.1415 8.43704 -8.77632
-8.27362 48.2697 -15.7139
-29.4146 19.6721 -8.67116
0.464973 17.6436 2.36456
-18.8059 20.934 -9.28409
26.2805 -38.458 -16.1922
10.7513 62.0774 22.2106
-4.75611 9.16205 10.6761
7.86519 -69.4984 0.327914
13.837 -12.5471 28.8799
-41.5805 68.0811 -20.1277
-17.6871 16.579 9.42101
0.983042 -11.2839 -10.6588
11.5359 14.6381 -5.23721
16.8331 31.3468 1.73152
-25.7619 48.4001 1.85178
39.428 -17.8286 0.7274
44.4612 22.5273 6.31029
-22.3076 69.269 1.66555
-11.2041 51.0751 -14.4847
-19.9764 -30.0946 23.8566
0.945752 -3.14735 33.1164
-5.19657 -57.9088 -28.5397
-1.41802 -68.8947 -43.6484
7.99808 62.3576 29.0333
-11.9406 -27.8927 -39.7688
9.86181 -63.2556 31.1789
18.8795 24.5031 -9.09279
30.6981 26.5941 4.03816
-14.0031 100.287 -33.5742
18.3934 24.7876 -5.15727
-24.1571 24.5088 8.38346
-21.0137 6.25401 -20.7872
-5.68765 18.7727 3.32727
-25.735 -1.00336 -8.37595
-0.621196 8.73737 3.75717
6.29121 -21.8933 5.15692
-9.73537 -4.0692 -26.2551
23.8993 -15.3436 -2.61766
-15.6031 33.3821 1.8561
-11.5101 13.7945 -17.6838
-15.3234 -51.7455 0.430925
-22.3456 36.3514 23.4966
-30.6577 16.5529 -1.08306
-9.4086 55.4798 0.191282
-11.2089 -75.1376 -5.52659
-15.5388 -13.2118 9.86631
-24.8551 33.0087 5.96927
-18.2622 12.3714 -5.29693
17.8228 -17.4192 -3.04281
-32.7509 10.1987 1.56813
12.752 -22.5889 14.928
-19.9805 -20.3074 9.62749
-18.169 36.0834 -15.5665
-15.4417 15.77 -8.13618
5.91145 38.6548 -22.2608
1.09771 -53.9649 11.6283
1.33514 12.3449 23.5567
11.153 3.67564 47.5093
24.8783 -51.7265 -20.343
14.0775 -30.1719 -5.14671
1.93738 4.09401 11.1966
-3.58769 3.37436 10.0763
13.1082 16.5559 7.49225
3.95086 5.90099 -9.79352
-1.76962 5.41333 2.78812
-21.4106 -47.5509 16.4088
5.54158 -24.7616 5.8781
-21.7306 -12.4506 -3.74034
-40.6139 0.424557 -1.85393
-22.1947 7.15728 27.4091
-1.93479 -22.3501 -25.1829
-41.3965 -14.7166 4.06353
10.2313 73.4476 -9.29811
-3.52416 -28.5782 12.2256
1.59768 -41.1537 -50.0058
4.2951 -3.02552 7.13517
0.0 0.0 0.0
0.0 0.0 0.0
0.0 0.0 0.0
0.0 0.0 0.0
0.0 0.0 0.0
0.0 0.0 0.0
0.0 0.0 0.0
0.0 0.0 0.0
0.0 0.0 0.0
0.0 0.0 0.0
0.0 0.0 0.0
0.0 0.0 0.0
0.0 0.0 0.0
0.0 0.0 0.0
0.0 0.0 0.0
0.0 0.0 0.0
0.0 0.0 0.0
0.0 0.0 0.0
0.0 0.0 0.0
0.0 0.0 0.0
0.0 0.0 0.0
0.0 0.0 0.0
0.0 0.0 0.0
0.0 0.0 0.0
0.0 0.0 0.0
0.0 0.0 0.0
0.0 0.0 0.0
0.0 0.0 0.0
0.0 0.0 0.0
0.0 0.0 0.0
0.0 0.0 0.0
0.0 0.0 0.0
0.0 0.0 0.0
0.0 0.0 0.0
0.0 0.0 0.0
0.0 0.0 0.0
0.0 0.0 0.0
0.0 0.0 0.0
0.0 0.0 0.0
0.0 0.0 0.0
0.0 0.0 0.0
0.0 0.0 0.0
0.0 0.0 0.0
0.0 0.0 0.0
0.0 0.0 0.0
0.0 0.0 0.0
0.0 0.0 0.0
0.0 0.0 0.0
0.0 0.0 0.0
0.0 0.0 0.0
0.0 0.0 0.0
0.0 0.0 0.0
0.0 0.0 0.0
0.0 0.0 0.0
0.0 0.0 0.0
0.0 0.0 0.0
0.0 0.0 0.0
0.0 0.0 0.0
0.0 0.0 0.0
0.0 0.0 0.0
0.0 0.0 0.0
0.0 0.0 0.0
0.0 0.0 0.0
0.0 0.0 0.0
0.0 0.0 0.0
0.0 0.0 0.0
0.0 0.0 0.0
0.0 0.0 0.0
0.0 0.0 0.0
0.0 0.0 0.0
0.0 0.0 0.0
0.0 0.0 0.0
0.0 0.0 0.0
0.0 0.0 0.0
0.0 0.0 0.0
0.0 0.0 0.0
0.0 0.0 0.0
0.0 0.0 0.0
0.0 0.0 0.0
0.0 0.0 0.0
0.0 0.0 0.0
0.0 0.0 0.0
0.0 0.0 0.0
0.0 0.0 0.0
0.0 0.0 0.0
0.0 0.0 0.0
0.0 0.0 0.0
0.0 0.0 0.0
0.0 0.0 0.0
0.0 0.0 0.0
0.0 0.0 0.0
0.0 0.0 0.0
0.0 0.0 0.0
0.0 0.0 0.0
0.0 0.0 0.0
0.0 0.0 0.0
0.0 0.0 0.0
0.0 0.0 0.0
0.0 0.0 0.0
0.0 0.0 0.0
0.0 0.0 0.0
0.0 0.0 0.0
0.0 0.0 0.0
0.0 0.0 0.0
0.0 0.0 0.0
0.0 0.0 0.0
0.0 0.0 0.0
0.0 0.0 0.0
0.0 0.0 0.0
0.0 0.0 0.0
0.0 0.0 0.0
0.0 0.0 0.0
0.0 0.0 0.0
0.0 0.0 0.0
0.0 0.0 0.0
0.0 0.0 0.0
0.0 0.0 0.0
0.0 0.0 0.0
0.0 0.0 0.0
0.0 0.0 0.0
0.0 0.0 0.0
0.0 0.0 0.0
0.0 0.0 0.0
0.0 0.0 0.0
0.0 0.0 0.0
0.0 0.0 0.0
0.0 0.0 0.0
0.0 0.0 0.0
0.0 0.0 0.0
0.0 0.0 0.0
0.0 0.0 0.0
0.0 0.0 0.0
0.0 0.0 0.0
0.0 0.0 0.0
0.0 0.0 0.0
0.0 0.0 0.0
0.0 0.0 0.0
0.0 0.0 0.0
0.0 0.0 0.0
0.0 0.0 0.0
0.0 0.0 0.0
0.0 0.0 0.0
0.0 0.0 0.0
0.0 0.0 0.0
0.0 0.0 0.0
0.0 0.0 0.0
0.0 0.0 0.0
0.0 0.0 0.0
0.0 0.0 0.0
0.0 0.0 0.0
0.0 0.0 0.0
0.0 0.0 0.0
0.0 0.0 0.0
0.0 0.0 0.0
0.0 0.0 0.0
0.0 0.0 0.0
0.0 0.0 0.0
0.0 0.0 0.0
0.0 0.0 0.0
0.0 0.0 0.0
0.0 0.0 0.0
0.0 0.0 0.0
0.0 0.0 0.0
0.0 0.0 0.0
0.0 0.0 0.0
0.0 0.0 0.0
0.0 0.0 0.0
0.0 0.0 0.0
0.0 0.0 0.0
0.0 0.0 0.0
0.0 0.0 0.0
0.0 0.0 0.0
0.0 0.0 0.0
0.0 0.0 0.0
0.0 0.0 0.0
0.0 0.0 0.0
0.0 0.0 0.0
0.0 0.0 0.0
VECTORS v float
0.38023 0.0194914 -0.0163085
1.93375 -0.710013 0.359117
2.0735 -0.51394 0.569461
2.30395 -0.325962 0.082117
1.6477 0.0947616 -0.196124
2.11386 0.192726 0.0626704
1.80876 0.319465 0.0668646
2.45357 0.26654 -0.0639747
2.52227 0.0199857 -0.0113021
2.54718 0.213012 -0.216004
2.61711 0.215848 -0.048173
2.35348 0.0278193 -0.00692662
2.71712 -0.187861 0.176634
2.49996 0.634204 0.0590957
2.62966 -0.263119 0.0301636
1.12829 -0.272369 0.0615619
1.80272 0.015044 0.0318556
1.7029 0.0169709 -0.0328432
2.16176 -0.0962712 -0.0488498
2.43004 -0.0756216 0.00333847
2.25822 -0.00625538 -0.00664476
2.47535 0.513992 -0.367026
2.47579 -0.00743971 -0.000190348
2.4047 0.312299 0.000213315
2.48339 0.2824 -0.000972086
2.54295 0.0134026 6.63527e-05
0.876889 -0.3832 0.0139039
0.776416 -0.523611 -0.27397
1.54414 -0.228072 0.1612
1.58185 -0.250653 0.0142732
1.7167 0.16717 -0.324567
2.15715 -0.198812 -0.0315591
2.14538 0.1929 -0.444195
2.58438 0.31558 0.00095109
2.83877 -0.0609532 -0.00401583
1.01586 -0.399632 -0.3224
2.15424 -0.386023 -0.191564
2.17646 -0.0751145 -0.0727955
2.02007 -0.143781 -0.000383555
2.05609 0.13297 0.0942915
0.851838 -0.163537 0.0985619
0.922209 -0.398156 -0.110394
2.17447 -0.25692 -0.409821
1.88398 -0.0440124 0.304464
1.91717 -0.682325 -1.03464
2.02673 0.0552944 -0.0340011
2.31068 -0.117667 6.20176e-06
2.20815 -0.0425346 -0.759768
0.653711 0.0357037 -0.810509