# vtk DataFile Version 2.0
Generated by lpp.py
ASCII
DATASET POLYDATA
POINTS 353 float
0.186343 0.189398 1.58433
0.298137 0.176647 1.5863
0.428266 0.185517 1.57496
0.572161 0.190978 1.57599
0.711112 0.187968 1.5769
0.507249 0.195529 1.57545
0.824704 0.199469 1.57688
0.89059 0.195674 1.57688
0.140992 0.251867 1.60011
0.333258 0.256255 1.58165
0.609882 0.238089 1.57742
0.746042 0.242105 1.57881
0.915244 0.258058 1.57686
0.217089 0.280417 1.57538
0.276335 0.273969 1.57749
0.451335 0.265205 1.57962
0.56132 0.28547 1.57565
0.853845 0.267551 1.57686
0.0816945 0.309717 1.57542
0.351682 0.321352 1.58627
0.482468 0.322701 1.59636
0.771168 0.328493 1.57686
0.218499 0.359135 1.58307
0.297879 0.342851 1.57566
0.436616 0.354966 1.57544
0.512867 0.370846 1.57749
0.640664 0.347482 1.57687
0.298241 0.407301 1.58497
0.364572 0.393782 1.5769
0.701506 0.401885 1.57593
0.776595 0.399137 1.57721
0.147209 0.423248 1.57743
0.23965 0.415725 1.57407
0.47497 0.417182 1.57747
0.562135 0.436959 1.57759
0.976251 0.43689 1.57686
0.197704 0.463033 1.57921
0.350941 0.463314 1.5777
0.47075 0.4801 1.57825
0.612628 0.477502 1.58046
0.802401 0.478757 1.57673
0.556879 0.507165 1.58245
0.861457 0.503661 1.58164
0.0122371 0.525887 1.57696
0.141051 0.521366 1.57552
0.353939 0.541971 1.57669
0.472874 0.548756 1.57945
0.603547 0.548619 1.57756
1.01716 0.519316 1.57686
0.526829 0.582111 1.59129
0.671907 0.570288 1.57946
0.819793 0.571026 1.58035
0.455241 0.150586 1.61339
0.58422 0.131665 1.63117
0.791734 0.157631 1.60553
0.618924 0.177107 1.60843
0.443359 0.220025 1.61762
0.538775 0.227117 1.61343
0.738357 0.219198 1.64021
0.210717 0.241654 1.61888
0.393813 0.272775 1.62114
0.554983 0.293855 1.63347
0.639643 0.266659 1.6222
0.698936 0.269108 1.6254
0.278226 0.314652 1.6238
0.14454 0.444723 1.63464
0.412482 0.432501 1.58853
0.496958 0.438839 1.63011
0.254569 0.451605 1.6158
0.155128 0.5061 1.63199
0.278078 0.522835 1.6125
0.339412 0.507153 1.62327
0.409802 0.552117 1.59752
0.725163 0.560116 1.60761
0.261289 0.227327 1.64886
0.347368 0.21264 1.64414
0.488474 0.255629 1.62981
0.233829 0.288459 1.65321
0.320528 0.284012 1.65586
0.16846 0.320751 1.62382
0.459738 0.308533 1.64994
0.2863 0.370991 1.65453
0.388908 0.357124 1.65066
0.527423 0.364072 1.63875
0.228518 0.390328 1.64271
0.447052 0.369936 1.62877
0.796247 0.380583 1.65156
0.310701 0.444402 1.63674
0.437429 0.443368 1.64455
0.846381 0.445963 1.6529
0.372182 0.447304 1.63739
0.5562 0.447849 1.63922
0.471608 0.499072 1.63278
0.753497 0.49026 1.64311
0.218974 0.524143 1.62937
0.541092 0.527223 1.64969
0.63535 0.540026 1.6351
0.504236 0.657505 1.66987
0.506033 0.250599 1.6901
0.403536 0.305778 1.67937
0.163353 0.390623 1.6717
0.597012 0.384724 1.69102
0.244381 0.443017 1.67309
0.574459 0.448263 1.69645
0.315769 0.523535 1.67725
0.178322 0.227864 1.71159
0.408343 0.240904 1.69245
0.349746 0.30789 1.7081
0.499251 0.382901 1.70551
0.161462 0.479607 1.71401
0.476719 0.464357 1.68545
0.400709 0.497231 1.69979
0.105277 0.51875 1.70381
0.449517 0.665351 1.72229
0.150682 0.290471 1.73832
0.118071 0.372478 1.7354
0.216306 0.357237 1.73248
0.429922 0.3736 1.74882
0.469963 0.531664 1.76271
0.117057 0.232547 1.78239
0.367693 0.467546 1.77862
0.33461 0.249494 1.82244
0.258494 0.28056 1.82051
0.46021 0.268154 1.80782
0.294692 0.330306 1.80097
0.414233 0.306803 1.79988
0.209546 0.484752 1.82103
0.313052 0.494322 1.80242
0.387237 0.525686 1.82265
0.199862 0.243713 1.84732
0.320208 0.403691 1.83645
0.113325 0.448918 1.84105
0.446997 0.50849 1.82917
0.375347 0.345395 1.87336
0.169236 0.376906 1.86297
0.261069 0.440732 1.87589
0.491591 0.428372 1.86525
0.417913 0.266516 1.93042
0.47999 0.300848 1.90998
0.103577 0.34242 1.91889
0.230407 0.340128 1.91489
0.380254 0.404128 1.92561
0.441781 0.458388 1.92138
0.131272 0.513706 1.91643
0.254698 0.262308 1.94538
0.121033 0.279919 1.94472
0.187546 0.294736 1.95601
0.287678 0.358468 1.94359
0.227036 0.399722 1.93952
0.448915 0.39365 1.93844
0.35506 0.52072 1.95328
0.365118 0.235733 1.98271
0.378219 0.307765 1.97233
0.360498 0.363939 1.99207
0.10427 0.421706 1.98907
0.200976 0.455034 1.9816
0.317689 0.454971 1.99904
0.491668 0.49724 1.99656
0.208645 0.523817 1.97405
0.136955 0.241756 2.04129
0.29951 0.265646 2.02228
0.478513 0.241448 2.03732
0.200031 0.295208 2.03837
0.352336 0.290052 2.04526
0.26261 0.317421 2.02212
0.121236 0.342722 2.02255
0.234882 0.370686 2.01879
0.43656 0.349215 2.03816
0.288982 0.398489 2.04023
0.41824 0.41741 2.04089
0.250123 0.467148 2.03444
0.124302 0.506318 2.02697
0.302009 0.506095 2.04471
0.387139 0.48601 2.01704
0.473517 0.305435 2.0677
0.195772 0.344168 2.08007
0.18594 0.400862 2.04646
0.485376 0.385518 2.05538
0.106832 0.451129 2.05818
0.323211 0.457255 2.0759
0.485548 0.450278 2.04645
0.180109 0.517525 2.07459
0.136852 0.289242 2.09089
0.211371 0.280829 2.10449
0.305852 0.287522 2.11499
0.416409 0.288456 2.09219
0.269256 0.359202 2.09803
0.485374 0.358108 2.11098
0.218921 0.397847 2.09827
0.349719 0.399621 2.10492
0.422187 0.378047 2.11422
0.169637 0.459874 2.11203
0.428381 0.4467 2.09453
0.245914 0.511668 2.10371
0.398493 0.508779 2.08612
0.466202 0.49757 2.10112
0.103225 0.518985 2.11486
0.174537 0.231131 2.14705
0.260718 0.244031 2.11899
0.346739 0.243699 2.14339
0.411604 0.238101 2.13847
0.108104 0.281799 2.14625
0.499385 0.279499 2.12065
0.157239 0.333515 2.14883
0.373442 0.329195 2.12217
0.102791 0.340368 2.12265
0.478405 0.411198 2.14488
0.370548 0.454286 2.14699
0.283642 0.234209 2.18096
0.469838 0.243492 2.16354
0.268169 0.352895 2.18098
0.478946 0.338932 2.18164
0.121741 0.410905 2.17674
0.189941 0.428545 2.16494
0.267329 0.456169 2.16542
0.43276 0.446836 2.1646
0.496878 0.474265 2.18193
0.122063 0.498448 2.17566
0.209404 0.487055 2.1518
0.341446 0.508108 2.16034
0.429885 0.51089 2.17308
0.222298 0.231508 2.21943
0.144959 0.253084 2.1999
0.225054 0.287898 2.18782
0.353756 0.288308 2.2021
0.419349 0.297497 2.21155
0.107864 0.308056 2.2137
0.216531 0.381594 2.21634
0.33513 0.393755 2.19779
0.434422 0.399982 2.20934
0.177321 0.473873 2.2123
0.3755 0.471214 2.20858
0.287754 0.512498 2.20063
0.482317 0.228242 2.24854
0.386528 0.235346 2.24474
0.17305 0.29572 2.24163
0.280967 0.269166 2.24746
0.32031 0.335135 2.2267
0.470734 0.315695 2.25592
0.142292 0.405308 2.25272
0.289149 0.393948 2.24364
0.10269 0.478868 2.25007
0.265427 0.473439 2.24144
0.487332 0.44601 2.24319
0.230707 0.52291 2.23918
0.100828 0.246005 2.26484
0.334084 0.267131 2.27623
0.383935 0.304407 2.28118
0.104364 0.371175 2.28875
0.189473 0.369831 2.28465
0.383297 0.361785 2.26306
0.495324 0.379459 2.26665
0.238696 0.425254 2.27413
0.338206 0.47604 2.26542
0.405771 0.451899 2.26402
0.477819 0.52568 2.261
0.410316 0.229607 2.30717
0.227735 0.245208 2.29361
0.479511 0.263195 2.3025
0.283481 0.328862 2.29466
0.488965 0.329122 2.32107
0.433942 0.344323 2.29524
0.124882 0.444445 2.29537
0.292698 0.428673 2.30157
0.367427 0.412219 2.29779
0.436973 0.45447 2.3186
0.498994 0.449521 2.31904
0.387806 0.497135 2.30601
0.10683 0.52412 2.31027
0.498691 0.522189 2.32147
0.307197 0.231054 2.32934
0.112238 0.243444 2.33138
0.196779 0.286134 2.34798
0.338106 0.302046 2.33158
0.144627 0.329159 2.33743
0.322732 0.35929 2.36017
0.388723 0.350133 2.34272
0.179678 0.383211 2.35608
0.26384 0.382845 2.33039
0.404531 0.416433 2.35679
0.180002 0.445959 2.35427
0.336562 0.447813 2.3453
0.197767 0.505506 2.32969
0.316599 0.507618 2.34974
0.4192 0.521596 2.35807
0.299287 0.247375 2.38679
0.442411 0.236129 2.38895
0.498503 0.253983 2.36572
0.432796 0.302258 2.37979
0.345572 0.308923 2.39327
0.476186 0.343657 2.38982
0.499396 0.409304 2.38395
0.230608 0.478968 2.37273
0.133145 0.50156 2.3651
0.383426 0.485675 2.3955
0.196226 0.26238 2.41567
0.356376 0.254196 2.4177
0.126939 0.284236 2.39643
0.187834 0.32549 2.40014
0.256147 0.321804 2.41011
0.110703 0.374435 2.41211
0.415762 0.389621 2.41827
0.214879 0.429082 2.42971
0.282511 0.427246 2.40226
0.107302 0.455042 2.41596
0.180798 0.510604 2.40163
0.49838 0.508374 2.42212
0.271982 0.260644 2.4508
0.321856 0.294278 2.44913
0.44222 0.295647 2.44067
0.125428 0.344451 2.46441
0.346145 0.350757 2.44426
0.282424 0.374546 2.45858
0.475094 0.383761 2.43966
0.466199 0.451954 2.44462
0.104255 0.515661 2.45241
0.236464 0.494005 2.44237
0.430217 0.500721 2.44499
0.339305 0.526873 2.43754
0.103324 0.228818 2.47871
0.161403 0.258279 2.47827
0.363615 0.240431 2.48399
0.425069 0.242959 2.48512
0.499192 0.246026 2.48267
0.189012 0.364304 2.47306
0.415188 0.353574 2.46906
0.115455 0.44409 2.4745
0.323589 0.424937 2.4671
0.40415 0.414672 2.48454
0.158807 0.499296 2.49065
0.370433 0.49856 2.48148
0.264146 0.523422 2.48795
0.220666 0.238837 2.52734
0.257372 0.298287 2.51437
0.314466 0.284399 2.53272
0.492483 0.279077 2.5344
0.417494 0.317622 2.53147
0.31493 0.348737 2.50385
0.484684 0.362834 2.51124
0.125062 0.39201 2.51589
0.217234 0.387064 2.52563
0.263093 0.452487 2.53205
0.417911 0.469013 2.52692
0.486571 0.452792 2.53556
0.393674 0.233628 2.54132
0.17717 0.298235 2.5392
0.107591 0.339963 2.54367
0.385775 0.387923 2.54657
0.449749 0.403068 2.53884
0.139724 0.459766 2.54164
0.220758 0.508511 2.53861
0.312076 0.491969 2.5376
0.490194 0.521396 2.54111
VERTICES 353 706
1 0
1 1
1 2
1 3
1 4
1 5
1 6
1 7
1 8
1 9
1 10
1 11
1 12
1 13
1 14
1 15
1 16
1 17
1 18
1 19
1 20
1 21
1 22
1 23
1 24
1 25
1 26
1 27
1 28
1 29
1 30
1 31
1 32
1 33
1 34
1 35
1 36
1 37
1 38
1 39
1 40
1 41
1 42
1 43
1 44
1 45
1 46
1 47
1 48
1 49
1 50
1 51
1 52
1 53
1 54
1 55
1 56
1 57
1 58
1 59
1 60
1 61
1 62
1 63
1 64
1 65
1 66
1 67
1 68
1 69
1 70
1 71
1 72
1 73
1 74
1 75
1 76
1 77
1 78
1 79
1 80
1 81
1 82
1 83
1 84
1 85
1 86
1 87
1 88
1 89
1 90
1 91
1 92
1 93
1 94
1 95
1 96
1 97
1 98
1 99
1 100
1 101
1 102
1 103
1 104
1 105
1 106
1 107
1 108
1 109
1 110
1 111
1 112
1 113
1 114
1 115
1 116
1 117
1 118
1 119
1 120
1 121
1 122
1 123
1 124
1 125
1 126
1 127
1 128
1 129
1 130
1 131
1 132
1 133
1 134
1 135
1 136
1 137
1 138
1 139
1 140
1 141
1 142
1 143
1 144
1 145
1 146
1 147
1 148
1 149
1 150
1 151
1 152
1 153
1 154
1 155
1 156
1 157
1 158
1 159
1 160
1 161
1 162
1 163
1 164
1 165
1 166
1 167
1 168
1 169
1 170
1 171
1 172
1 173
1 174
1 175
1 176
1 177
1 178
1 179
1 180
1 181
1 182
1 183
1 184
1 185
1 186
1 187
1 188
1 189
1 190
1 191
1 192
1 193
1 194
1 195
1 196
1 197
1 198
1 199
1 200
1 201
1 202
1 203
1 204
1 205
1 206
1 207
1 208
1 209
1 210
1 211
1 212
1 213
1 214
1 215
1 216
1 217
1 218
1 219
1 220
1 221
1 222
1 223
1 224
1 225
1 226
1 227
1 228
1 229
1 230
1 231
1 232
1 233
1 234
1 235
1 236
1 237
1 238
1 239
1 240
1 241
1 242
1 243
1 244
1 245
1 246
1 247
1 248
1 249
1 250
1 251
1 252
1 253
1 254
1 255
1 256
1 257
1 258
1 259
1 260
1 261
1 262
1 263
1 264
1 265
1 266
1 267
1 268
1 269
1 270
1 271
1 272
1 273
1 274
1 275
1 276
1 277
1 278
1 279
1 280
1 281
1 282
1 283
1 284
1 285
1 286
1 287
1 288
1 289
1 290
1 291
1 292
1 293
1 294
1 295
1 296
1 297
1 298
1 299
1 300
1 301
1 302
1 303
1 304
1 305
1 306
1 307
1 308
1 309
1 310
1 311
1 312
1 313
1 314
1 315
1 316
1 317
1 318
1 319
1 320
1 321
1 322
1 323
1 324
1 325
1 326
1 327
1 328
1 329
1 330
1 331
1 332
1 333
1 334
1 335
1 336
1 337
1 338
1 339
1 340
1 341
1 342
1 343
1 344
1 345
1 346
1 347
1 348
1 349
1 350
1 351
1 352
POINT_DATA 353
VECTORS i float
0.0 0.0 0.0
0.0 0.0 0.0
0.0 0.0 0.0
0.0 0.0 0.0
0.0 0.0 0.0
0.0 0.0 0.0
0.0 0.0 0.0
0.0 0.0 0.0
0.0 0.0 0.0
0.0 0.0 0.0
0.0 0.0 0.0
0.0 0.0 0.0
0.0 0.0 0.0
0.0 0.0 0.0
0.0 0.0 0.0
0.0 0.0 0.0
0.0 0.0 0.0
0.0 0.0 0.0
0.0 0.0 0.0
0.0 0.0 0.0
0.0 0.0 0.0
0.0 0.0 0.0
0.0 0.0 0.0
0.0 0.0 0.0
0.0 0.0 0.0
0.0 0.0 0.0
0.0 0.0 0.0
0.0 0.0 0.0
0.0 0.0 0.0
0.0 0.0 0.0
0.0 0.0 0.0
0.0 0.0 0.0
0.0 0.0 0.0
0.0 0.0 0.0
0.0 0.0 0.0
0.0 0.0 0.0
0.0 0.0 0.0
0.0 0.0 0.0
0.0 0.0 0.0
0.0 0.0 0.0
0.0 0.0 0.0
0.0 0.0 0.0
0.0 0.0 0.0
0.0 0.0 0.0
0.0 0.0 0.0
0.0 0.0 0.0
0.0 0.0 0.0
0.0 0.0 0.0
0.0 0.0 0.0
0.0 0.0 0.0
0.0 0.0 0.0
0.0 0.0 0.0
0.0 0.0 0.0
0.0 0.0 0.0
0.0 0.0 0.0
0.0 0.0 0.0
0.0 0.0 0.0
0.0 0.0 0.0
0.0 0.0 0.0
0.0 0.0 0.0
0.0 0.0 0.0
0.0 0.0 0.0
0.0 0.0 0.0
0.0 0.0 0.0
0.0 0.0 0.0
0.0 0.0 0.0
0.0 0.0 0.0
0.0 0.0 0.0
0.0 0.0 0.0
0.0 0.0 0.0
0.0 0.0 0.0
0.0 0.0 0.0
0.0 0.0 0.0
0.0 0.0 0.0
0.0 0.0 0.0
0.0 0.0 0.0
0.0 0.0 0.0
0.0 0.0 0.0
0.0 0.0 0.0
0.0 0.0 0.0
0.0 0.0 0.0
0.0 0.0 0.0
0.0 0.0 0.0
0.0 0.0 0.0
0.0 0.0 0.0
0.0 0.0 0.0
0.0 0.0 0.0
0.0 0.0 0.0
0.0 0.0 0.0
0.0 0.0 0.0
0.0 0.0 0.0
0.0 0.0 0.0
0.0 0.0 0.0
0.0 0.0 0.0
0.0 0.0 0.0
0.0 0.0 0.0
0.0 0.0 0.0
0.0 0.0 0.0
0.0 0.0 0.0
0.0 0.0 0.0
0.0 0.0 0.0
0.0 0.0 0.0
0.0 0.0 0.0
0.0 0.0 0.0
0.0 0.0 0.0
0.0 0.0 0.0
0.0 0.0 0.0
0.0 0.0 0.0
0.0 0.0 0.0
0.0 0.0 0.0
0.0 0.0 0.0
0.0 0.0 0.0
0.0 0.0 0.0
0.0 0.0 0.0
0.0 0.0 0.0
0.0 0.0 0.0
0.0 0.0 0.0
0.0 0.0 0.0
0.0 0.0 0.0
0.0 0.0 0.0
0.0 0.0 0.0
0.0 0.0 0.0
0.0 0.0 0.0
0.0 0.0 0.0
0.0 0.0 0.0
0.0 0.0 0.0
0.0 0.0 0.0
0.0 0.0 0.0
0.0 0.0 0.0
0.0 0.0 0.0
0.0 0.0 0.0
0.0 0.0 0.0
0.0 0.0 0.0
0.0 0.0 0.0
0.0 0.0 0.0
0.0 0.0 0.0
0.0 0.0 0.0
0.0 0.0 0.0
0.0 0.0 0.0
0.0 0.0 0.0
0.0 0.0 0.0
0.0 0.0 0.0
0.0 0.0 0.0
0.0 0.0 0.0
0.0 0.0 0.0
0.0 0.0 0.0
0.0 0.0 0.0
0.0 0.0 0.0
0.0 0.0 0.0
0.0 0.0 0.0
0.0 0.0 0.0
0.0 0.0 0.0
0.0 0.0 0.0
0.0 0.0 0.0
0.0 0.0 0.0
0.0 0.0 0.0
0.0 0.0 0.0
0.0 0.0 0.0
0.0 0.0 0.0
0.0 0.0 0.0
0.0 0.0 0.0
0.0 0.0 0.0
0.0 0.0 0.0
0.0 0.0 0.0
0.0 0.0 0.0
0.0 0.0 0.0
0.0 0.0 0.0
0.0 0.0 0.0
0.0 0.0 0.0
0.0 0.0 0.0
0.0 0.0 0.0
0.0 0.0 0.0
0.0 0.0 0.0
0.0 0.0 0.0
0.0 0.0 0.0
0.0 0.0 0.0
0.0 0.0 0.0
0.0 0.0 0.0
0.0 0.0 0.0
0.0 0.0 0.0
0.0 0.0 0.0
0.0 0.0 0.0
0.0 0.0 0.0
0.0 0.0 0.0
0.0 0.0 0.0
0.0 0.0 0.0
0.0 0.0 0.0
0.0 0.0 0.0
0.0 0.0 0.0
0.0 0.0 0.0
0.0 0.0 0.0
0.0 0.0 0.0
0.0 0.0 0.0
0.0 0.0 0.0
0.0 0.0 0.0
0.0 0.0 0.0
0.0 0.0 0.0
0.0 0.0 0.0
0.0 0.0 0.0
0.0 0.0 0.0
0.0 0.0 0.0
0.0 0.0 0.0
0.0 0.0 0.0
0.0 0.0 0.0
0.0 0.0 0.0
0.0 0.0 0.0
0.0 0.0 0.0
0.0 0.0 0.0
0.0 0.0 0.0
0.0 0.0 0.0
0.0 0.0 0.0
0.0 0.0 0.0
0.0 0.0 0.0
0.0 0.0 0.0
0.0 0.0 0.0
0.0 0.0 0.0
0.0 0.0 0.0
0.0 0.0 0.0
0.0 0.0 0.0
0.0 0.0 0.0
0.0 0.0 0.0
0.0 0.0 0.0
0.0 0.0 0.0
0.0 0.0 0.0
0.0 0.0 0.0
0.0 0.0 0.0
0.0 0.0 0.0
0.0 0.0 0.0
0.0 0.0 0.0
0.0 0.0 0.0
0.0 0.0 0.0
0.0 0.0 0.0
0.0 0.0 0.0
0.0 0.0 0.0
0.0 0.0 0.0
0.0 0.0 0.0
0.0 0.0 0.0
0.0 0.0 0.0
0.0 0.0 0.0
0.0 0.0 0.0
0.0 0.0 0.0
0.0 0.0 0.0
0.0 0.0 0.0
0.0 0.0 0.0
0.0 0.0 0.0
0.0 0.0 0.0
0.0 0.0 0.0
0.0 0.0 0.0
0.0 0.0 0.0
0.0 0.0 0.0
0.0 0.0 0.0
0.0 0.0 0.0
0.0 0.0 0.0
0.0 0.0 0.0
0.0 0.0 0.0
0.0 0.0 0.0
0.0 0.0 0.0
0.0 0.0 0.0
0.0 0.0 0.0
0.0 0.0 0.0
0.0 0.0 0.0
0.0 0.0 0.0
0.0 0.0 0.0
0.0 0.0 0.0
0.0 0.0 0.0
0.0 0.0 0.0
0.0 0.0 0.0
0.0 0.0 0.0
0.0 0.0 0.0
0.0 0.0 0.0
0.0 0.0 0.0
0.0 0.0 0.0
0.0 0.0 0.0
0.0 0.0 0.0
0.0 0.0 0.0
0.0 0.0 0.0
0.0 0.0 0.0
0.0 0.0 0.0
0.0 0.0 0.0
0.0 0.0 0.0
0.0 0.0 0.0
0.0 0.0 0.0
0.0 0.0 0.0
0.0 0.0 0.0
0.0 0.0 0.0
0.0 0.0 0.0
0.0 0.0 0.0
0.0 0.0 0.0
0.0 0.0 0.0
0.0 0.0 0.0
0.0 0.0 0.0
0.0 0.0 0.0
0.0 0.0 0.0
0.0 0.0 0.0
0.0 0.0 0.0
0.0 0.0 0.0
0.0 0.0 0.0
0.0 0.0 0.0
0.0 0.0 0.0
0.0 0.0 0.0
0.0 0.0 0.0
0.0 0.0 0.0
0.0 0.0 0.0
0.0 0.0 0.0
0.0 0.0 0.0
0.0 0.0 0.0
0.0 0.0 0.0
0.0 0.0 0.0
0.0 0.0 0.0
0.0 0.0 0.0
0.0 0.0 0.0
0.0 0.0 0.0
0.0 0.0 0.0
0.0 0.0 0.0
0.0 0.0 0.0
0.0 0.0 0.0
0.0 0.0 0.0
0.0 0.0 0.0
0.0 0.0 0.0
0.0 0.0 0.0
0.0 0.0 0.0
0.0 0.0 0.0
0.0 0.0 0.0
0.0 0.0 0.0
0.0 0.0 0.0
0.0 0.0 0.0
0.0 0.0 0.0
0.0 0.0 0.0
0.0 0.0 0.0
0.0 0.0 0.0
0.0 0.0 0.0
0.0 0.0 0.0
0.0 0.0 0.0
0.0 0.0 0.0
0.0 0.0 0.0
0.0 0.0 0.0
0.0 0.0 0.0
0.0 0.0 0.0
0.0 0.0 0.0
0.0 0.0 0.0
0.0 0.0 0.0
0.0 0.0 0.0
0.0 0.0 0.0
0.0 0.0 0.0
0.0 0.0 0.0
0.0 0.0 0.0
0.0 0.0 0.0
0.0 0.0 0.0
0.0 0.0 0.0
0.0 0.0 0.0
0.0 0.0 0.0
0.0 0.0 0.0
0.0 0.0 0.0
VECTORS f float
0.0 0.0 -2.77371
-0.0101023 0.933973 -1.04425
-12.2172 6.28392 27.0919
5.08203 3.77261 11.6628
0.0600623 0.035531 -0.0813551
1.05808 3.28507 18.6116
-0.0408579 -0.0579083 -0.157686
-0.0964341 -0.0138728 -1.40274
0.0 0.0 -2.77371
7.10937 -2.19112 1.619
0.0 0.0 -2.77371
0.0 0.0 -2.77371
-2.77672e-07 -4.57756e-08 0.000345445
1.70091 -0.0165189 33.448
-6.50791 2.08635 -6.83684
8.72747 10.7211 -10.1975
-1.57346 -1.60747 0.953955
3.13102e-05 4.82379e-06 0.0013707
2.69997 -0.279364 2.65505
-0.634379 3.33309 -0.854718
-3.61935 0.814012 -3.87119
0.00086713 5.26995e-05 -0.00617195
0.0 0.0 -2.77371
19.2918 -4.40246 14.3607
7.86491 -11.541 -37.0608
-1.09003 0.695055 -1.68151
-0.0126704 0.00126951 -0.199233
0.0 0.0 -2.77371
0.0653874 -0.0198967 0.082179
-1.57952 0.521947 17.8993
0.0 0.0 -2.77371
0.0 0.0 -2.77371
-3.33279 -4.2385 50.2912
1.02523 -1.17204 -3.5496
0.0 0.0 -2.77371
3.45144e-05 -3.34717e-06 0.000877583
0.0 0.0 -2.77371
0.0 0.0 -2.77371
-7.05144 -14.1028 -29.2376
0.0 0.0 -2.77371
3.94389 1.50799 5.67099
0.0 0.0 -2.77371
0.0 0.0 -2.77371
0.432684 0.0190355 -3.63992
16.0296 -9.22554 34.2159
-0.114819 -5.27465 -3.29351
0.0 0.0 -2.77371
0.0 0.0 -2.77371
3.26418e-06 -1.36391e-07 7.2739e-05
-0.00170481 -0.975579 -1.002
0.000562918 -0.98481 -0.991754
-0.274693 1.67681 -3.72403
2.32759 -13.7862 23.007
5.6162 6.9544 10.1839
-0.0289715 0.0686916 -2.5808
9.60347 -7.5297 16.0392
0.872546 16.346 41.795
7.74374 7.30432 20.3424
0.0 0.0 -2.77371
-4.35533 -9.3711 17.4242
0.0 0.0 -2.77371
-0.666645 1.68828 8.80063
-4.76368 1.10085 -1.11493
4.76368 -1.10085 -4.43249
-14.6593 -6.89072 8.6988
0.0 0.0 -2.77371
0.0 0.0 -2.77371
0.0 0.0 -2.77371
11.4692 25.2685 49.0985
0.0 0.0 -2.77371
0.0 0.0 -2.77371
-0.0506576 5.18717 -1.87956
0.0 0.0 -2.77371
0.0 0.0 -2.77371
0.0 0.0 -2.77371
0.0 0.0 -2.77371
14.4671 22.6617 13.9254
8.0283 4.34022 -8.18076
0.0 0.0 -2.77371
0.0 0.0 -2.77371
1.74311 0.600791 -4.2163
0.0 0.0 -2.77371
0.0 0.0 -2.77371
0.0 0.0 -2.77371
0.0 0.0 -2.77371
15.1047 30.0849 125.446
0.0 0.0 -2.77371
0.0 0.0 -2.77371
0.0 0.0 -2.77371
0.0 0.0 -2.77371
0.0 0.0 -2.77371
0.0 0.0 -2.77371
7.05144 14.1028 23.6901
0.0 0.0 -2.77371
0.0 0.0 -2.77371
0.0 0.0 -2.77371
0.0 0.0 -2.77371
0.0 0.0 -2.77371
0.0 0.0 -2.77371
0.0 0.0 -2.77371
0.0 0.0 -2.77371
0.0 0.0 -2.77371
0.584331 4.28606 12.9357
0.0 0.0 -2.77371
0.0 0.0 -2.77371
0.0 0.0 -2.77371
0.0 0.0 -2.77371
0.0 0.0 -2.77371
0.0 0.0 -2.77371
0.0 0.0 -2.77371
0.0 0.0 -2.77371
0.0 0.0 -2.77371
0.0 0.0 -2.77371
0.0 0.0 -2.77371
0.0 0.0 -2.77371
0.0 0.0 -2.77371
0.0 0.0 -2.77371
0.0 0.0 -2.77371
0.0 0.0 -2.77371
0.0 0.0 -2.77371
0.0 0.0 -2.77371
0.0 0.0 -2.77371
0.0 0.0 -2.77371
0.0 0.0 -2.77371
0.0 0.0 -2.77371
0.0 0.0 -2.77371
0.0 0.0 -2.77371
0.0 0.0 -2.77371
0.0 0.0 -2.77371
0.0 0.0 -2.77371
0.0 0.0 -2.77371
0.0 0.0 -2.77371
0.0 0.0 -2.77371
0.0 0.0 -2.77371
0.0 0.0 -2.77371
0.0 0.0 -2.77371
0.0 0.0 -2.77371
0.0 0.0 -2.77371
0.0 0.0 -2.77371
0.0 0.0 -2.77371
0.0 0.0 -2.77371
0.0 0.0 -2.77371
0.0 0.0 -2.77371
0.0 0.0 -2.77371
0.0 0.0 -2.77371
0.0 0.0 -2.77371
0.0 0.0 -2.77371
0.0 0.0 -2.77371
0.0 0.0 -2.77371
0.0 0.0 -2.77371
0.0 0.0 -2.77371
0.0 0.0 -2.77371
0.0 0.0 -2.77371
0.0 0.0 -2.77371
0.0 0.0 -2.77371
0.0 0.0 -2.77371
0.0 0.0 -2.77371
0.0 0.0 -2.77371
0.0 0.0 -2.77371
0.0 0.0 -2.77371
0.0 0.0 -2.77371
0.0 0.0 -2.77371
0.0 0.0 -2.77371
0.0 0.0 -2.77371
0.0 0.0 -2.77371
0.0 0.0 -2.77371
0.0 0.0 -2.77371
0.0 0.0 -2.77371
0.0 0.0 -2.77371
0.0 0.0 -2.77371
0.0 0.0 -2.77371
0.0 0.0 -2.77371
0.0 0.0 -2.77371
0.0 0.0 -2.77371
0.0 0.0 0.0
0.0 0.0 0.0
0.0 0.0 -2.77371
0.0 0.0 0.0
0.0 0.0 0.0
0.0 0.0 0.0
0.0 0.0 -2.77371
0.0 0.0 0.0
0.0 0.0 0.0
0.0 0.0 0.0
0.0 0.0 0.0
0.0 0.0 0.0
0.0 0.0 0.0
0.0 0.0 0.0
0.0 0.0 0.0
0.0 0.0 0.0
0.0 0.0 0.0
0.0 0.0 0.0
0.0 0.0 0.0
0.0 0.0 0.0
0.0 0.0 0.0
0.0 0.0 0.0
0.0 0.0 0.0
0.0 0.0 0.0
0.0 0.0 0.0
0.0 0.0 0.0
0.0 0.0 0.0
0.0 0.0 0.0
0.0 0.0 0.0
0.0 0.0 0.0
0.0 0.0 0.0
0.0 0.0 0.0
0.0 0.0 0.0
0.0 0.0 0.0
0.0 0.0 0.0
0.0 0.0 0.0
0.0 0.0 0.0
0.0 0.0 0.0
0.0 0.0 0.0
0.0 0.0 0.0
0.0 0.0 0.0
0.0 0.0 0.0
0.0 0.0 0.0
0.0 0.0 0.0
0.0 0.0 0.0
0.0 0.0 0.0
0.0 0.0 0.0
0.0 0.0 0.0
0.0 0.0 0.0
0.0 0.0 0.0
0.0 0.0 0.0
0.0 0.0 0.0
0.0 0.0 0.0
0.0 0.0 0.0
0.0 0.0 0.0
0.0 0.0 0.0
0.0 0.0 0.0
0.0 0.0 0.0
0.0 0.0 0.0
0.0 0.0 0.0
0.0 0.0 0.0
0.0 0.0 0.0
0.0 0.0 0.0
0.0 0.0 0.0
0.0 0.0 0.0
0.0 0.0 0.0
0.0 0.0 0.0
0.0 0.0 0.0
0.0 0.0 0.0
0.0 0.0 0.0
0.0 0.0 0.0
0.0 0.0 0.0
0.0 0.0 0.0
0.0 0.0 0.0
0.0 0.0 0.0
0.0 0.0 0.0
0.0 0.0 0.0
0.0 0.0 0.0
0.0 0.0 0.0
0.0 0.0 0.0
0.0 0.0 0.0
0.0 0.0 0.0
0.0 0.0 0.0
0.0 0.0 0.0
0.0 0.0 0.0
0.0 0.0 0.0
0.0 0.0 0.0
0.0 0.0 0.0
0.0 0.0 0.0
0.0 0.0 0.0
0.0 0.0 0.0
0.0 0.0 0.0
0.0 0.0 0.0
0.0 0.0 0.0
0.0 0.0 0.0
0.0 0.0 0.0
0.0 0.0 0.0
0.0 0.0 0.0
0.0 0.0 0.0
0.0 0.0 0.0
0.0 0.0 0.0
0.0 0.0 0.0
0.0 0.0 0.0
0.0 0.0 0.0
0.0 0.0 0.0
0.0 0.0 0.0
0.0 0.0 0.0
0.0 0.0 0.0
0.0 0.0 0.0
0.0 0.0 0.0
0.0 0.0 0.0
0.0 0.0 0.0
0.0 0.0 0.0
0.0 0.0 0.0
0.0 0.0 0.0
0.0 0.0 0.0
0.0 0.0 0.0
0.0 0.0 0.0
0.0 0.0 0.0
0.0 0.0 0.0
0.0 0.0 0.0
0.0 0.0 0.0
0.0 0.0 0.0
0.0 0.0 0.0
0.0 0.0 0.0
0.0 0.0 0.0
0.0 0.0 0.0
0.0 0.0 0.0
0.0 0.0 0.0
0.0 0.0 0.0
0.0 0.0 0.0
0.0 0.0 0.0
0.0 0.0 0.0
0.0 0.0 0.0
0.0 0.0 0.0
0.0 0.0 0.0
0.0 0.0 0.0
0.0 0.0 0.0
0.0 0.0 0.0
0.0 0.0 0.0
0.0 0.0 0.0
0.0 0.0 0.0
0.0 0.0 0.0
0.0 0.0 0.0
0.0 0.0 0.0
0.0 0.0 0.0
0.0 0.0 0.0
0.0 0.0 0.0
0.0 0.0 0.0
0.0 0.0 0.0
0.0 0.0 0.0
0.0 0.0 0.0
0.0 0.0 0.0
0.0 0.0 0.0
0.0 0.0 0.0
0.0 0.0 0.0
0.0 0.0 0.0
0.0 0.0 0.0
0.0 0.0 0.0
0.0 0.0 0.0
0.0 0.0 0.0
0.0 0.0 0.0
0.0 0.0 0.0
0.0 0.0 0.0
0.0 0.0 0.0
0.0 0.0 0.0
0.0 0.0 0.0
0.0 0.0 0.0
0.0 0.0 0.0
0.0 0.0 0.0
0.0 0.0 0.0
0.0 0.0 0.0
0.0 0.0 0.0
0.0 0.0 0.0
0.0 0.0 0.0
0.0 0.0 0.0
0.0 0.0 0.0
0.0 0.0 0.0
0.0 0.0 0.0
VECTORS omega float
-17.738 -81.3438 2.88124
-0.0272169 -114.519 18.3294
11.6555 -73.2434 22.5786
4.66604 -73.5114 9.86236
-0.303375 -66.5367 32.0424
7.39893 -67.2075 4.77497
1.93833 -57.1525 -1.49957
8.80365 -61.4621 5.0065
5.52179 -105.423 -3.17817
-3.45967 -104.86 -0.772636
3.95796 -77.305 2.5278
0.719856 -48.5527 -17.508
11.3578 -68.8954 15.7782
-0.271137 -110.189 -10.7928
7.58988 -47.3931 1.67972
11.8952 -86.9682 1.49163
4.94628 -76.4348 -15.7145
8.20421 -53.2543 10.1393
22.8368 -136.031 12.8159
39.1854 66.1913 -14.93
-6.8034 72.0938 0.380404
2.9179 -47.8386 -12.8858
-12.6874 -86.7491 12.4272
2.79835 -65.2949 0.989413
-7.45661 -70.1768 -11.4539
15.3155 -83.0016 -14.295
-7.05029 -70.224 16.1048
-35.6608 31.2159 -6.40809
1.61059 -76.6055 1.42049
1.59306 -74.0561 -1.0062
-4.40376 -65.917 -3.69294
-7.81984 -93.5988 1.83278
7.52632 -97.6167 -9.08387
-10.1368 -71.3258 -0.994748
-2.01381 -69.9993 -3.59891
-4.91954 -50.7279 2.52464
9.84772 -76.7608 -20.2347
0.774962 -76.4944 13.6154
-22.202 -52.9485 -4.66916
5.964 -57.7498 -9.82024
-18.6638 -24.5849 1.27705
-5.77612 -69.1465 7.07029
-16.9027 -38.5007 1.23093
-4.92538 -96.8052 -2.54792
-7.6593 -94.2076 7.64934
-8.70692 -68.379 17.1845
1.12963 53.7033 -7.27781
-13.7962 -65.3626 4.99258
-1.81727 -43.4917 1.90422
3.48937 -95.3872 -14.5159
9.60552 -84.6302 -22.8547
-10.9138 -63.6164 -18.9168
21.0057 -70.0775 38.9957
9.05229 -8.63516 68.1852
-0.680787 -78.0666 17.8347
20.7466 59.8623 -14.5517
-27.6302 65.0903 -2.7429
-41.7751 41.619 -17.5982
12.6524 -7.70905 7.89108
22.839 42.7066 5.58837
-23.6968 13.1562 22.0782
8.71796 58.2991 -11.8006
-3.20483 45.7416 -18.3425
-9.94692 -1.50301 3.35799
14.8816 21.1342 2.54732
-13.7658 42.524 -14.7093
6.79415 7.20914 -7.33418
-2.951 21.7371 -19.6826
-42.7084 43.1349 0.211768
-11.5407 2.29561 -5.13381
7.31265 -7.30862 24.765
-12.9458 25.2079 -27.8717
-7.17835 -37.9361 10.201
-8.73866 86.2353 17.7017
-3.54794 13.6044 10.2655
14.8189 86.3542 -9.00983
1.52495 -17.707 19.6189
-13.2809 -37.5412 -15.3171
1.57237 22.0849 6.71501
-4.84591 -12.6286 -2.94639
7.98509 -60.5322 -9.31354
-70.6444 6.58851 -9.35924
35.715 -12.6396 2.58646
9.46075 71.4842 -10.616
-34.8051 69.3276 -4.97865
13.8764 17.1435 -19.6361
-9.19163 -33.8691 1.4826
-7.08437 20.2962 -24.9157
8.51459 -2.46856 -7.73249
5.11574 -46.1421 -14.4888
-8.38981 -4.65339 26.3242
19.6638 18.0272 11.607
12.9085 5.85278 -13.8827
22.5055 -34.5335 1.0618
0.0 0.0 0.0
-2.30868 41.6076 -2.10946
3.48494 -72.8843 -2.66728
-24.3519 -8.36701 -33.883
13.2591 -0.907442 -5.35151
-6.94922 -12.9638 -0.609766
63.7411 2.99145 -10.77
2.53187 -39.5822 20.3081
21.2279 -39.2378 25.0913
-3.24593 -32.3305 -2.44026
8.63669 -47.7736 16.8865
0.0 0.0 0.0
0.0 0.0 0.0
-3.05648 -14.4652 -4.90286
0.0 0.0 0.0
0.0 0.0 0.0
0.0 0.0 0.0
1.3734 59.3653 5.97652
0.0 0.0 0.0
-37.5588 -64.8153 28.7954
0.0 0.0 0.0
0.0 0.0 0.0
0.0 0.0 0.0
0.0 0.0 0.0
-10.514 -23.1079 9.30669
0.0 0.0 0.0
0.0 0.0 0.0
0.0 0.0 0.0
0.0 0.0 0.0
0.0 0.0 0.0
0.0 0.0 0.0
0.0 0.0 0.0
0.0 0.0 0.0
0.0 0.0 0.0
0.0 0.0 0.0
0.0 0.0 0.0
0.0 0.0 0.0
0.0 0.0 0.0
0.0 0.0 0.0
0.0 0.0 0.0
0.0 0.0 0.0
0.0 0.0 0.0
0.0 0.0 0.0
0.0 0.0 0.0
0.0 0.0 0.0
0.0 0.0 0.0
0.0 0.0 0.0
0.0 0.0 0.0
0.0 0.0 0.0
0.0 0.0 0.0
0.0 0.0 0.0
0.0 0.0 0.0
0.0 0.0 0.0
0.0 0.0 0.0
0.0 0.0 0.0
0.0 0.0 0.0
0.0 0.0 0.0
0.0 0.0 0.0
0.0 0.0 0.0
0.0 0.0 0.0
0.0 0.0 0.0
0.0 0.0 0.0
0.0 0.0 0.0
0.0 0.0 0.0
0.0 0.0 0.0
0.0 0.0 0.0
0.0 0.0 0.0
0.0 0.0 0.0
0.0 0.0 0.0
0.0 0.0 0.0
0.0 0.0 0.0
0.0 0.0 0.0
0.0 0.0 0.0
0.0 0.0 0.0
0.0 0.0 0.0
0.0 0.0 0.0
0.0 0.0 0.0
0.0 0.0 0.0
0.0 0.0 0.0
0.0 0.0 0.0
0.0 0.0 0.0
0.0 0.0 0.0
0.0 0.0 0.0
0.0 0.0 0.0
0.0 0.0 0.0
0.0 0.0 0.0
0.0 0.0 0.0
0.0 0.0 0.0
0.0 0.0 0.0
0.0 0.0 0.0
0.0 0.0 0.0
0.0 0.0 0.0
0.0 0.0 0.0
0.0 0.0 0.0
0.0 0.0 0.0
0.0 0.0 0.0
0.0 0.0 0.0
0.0 0.0 0.0
0.0 0.0 0.0
0.0 0.0 0.0
0.0 0.0 0.0
0.0 0.0 0.0
0.0 0.0 0.0
0.0 0.0 0.0
0.0 0.0 0.0
0.0 0.0 0.0
0.0 0.0 0.0
0.0 0.0 0.0
0.0 0.0 0.0
0.0 0.0 0.0
0.0 0.0 0.0
0.0 0.0 0.0
0.0 0.0 0.0
0.0 0.0 0.0
0.0 0.0 0.0
0.0 0.0 0.0
0.0 0.0 0.0
0.0 0.0 0.0
0.0 0.0 0.0
0.0 0.0 0.0
0.0 0.0 0.0
0.0 0.0 0.0
0.0 0.0 0.0
0.0 0.0 0.0
0.0 0.0 0.0
0.0 0.0 0.0
0.0 0.0 0.0
0.0 0.0 0.0
0.0 0.0 0.0
0.0 0.0 0.0
0.0 0.0 0.0
0.0 0.0 0.0
0.0 0.0 0.0
0.0 0.0 0.0
0.0 0.0 0.0
0.0 0.0 0.0
0.0 0.0 0.0
0.0 0.0 0.0
0.0 0.0 0.0
0.0 0.0 0.0
0.0 0.0 0.0
0.0 0.0 0.0
0.0 0.0 0.0
0.0 0.0 0.0
0.0 0.0 0.0
0.0 0.0 0.0
0.0 0.0 0.0
0.0 0.0 0.0
0.0 0.0 0.0
0.0 0.0 0.0
0.0 0.0 0.0
0.0 0.0 0.0
0.0 0.0 0.0
0.0 0.0 0.0
0.0 0.0 0.0
0.0 0.0 0.0
0.0 0.0 0.0
0.0 0.0 0.0
0.0 0.0 0.0
0.0 0.0 0.0
0.0 0.0 0.0
0.0 0.0 0.0
0.0 0.0 0.0
0.0 0.0 0.0
0.0 0.0 0.0
0.0 0.0 0.0
0.0 0.0 0.0
0.0 0.0 0.0
0.0 0.0 0.0
0.0 0.0 0.0
0.0 0.0 0.0
0.0 0.0 0.0
0.0 0.0 0.0
0.0 0.0 0.0
0.0 0.0 0.0
0.0 0.0 0.0
0.0 0.0 0.0
0.0 0.0 0.0
0.0 0.0 0.0
0.0 0.0 0.0
0.0 0.0 0.0
0.0 0.0 0.0
0.0 0.0 0.0
0.0 0.0 0.0
0.0 0.0 0.0
0.0 0.0 0.0
0.0 0.0 0.0
0.0 0.0 0.0
0.0 0.0 0.0
0.0 0.0 0.0
0.0 0.0 0.0
0.0 0.0 0.0
0.0 0.0 0.0
0.0 0.0 0.0
0.0 0.0 0.0
0.0 0.0 0.0
0.0 0.0 0.0
0.0 0.0 0.0
0.0 0.0 0.0
0.0 0.0 0.0
0.0 0.0 0.0
0.0 0.0 0.0
0.0 0.0 0.0
0.0 0.0 0.0
0.0 0.0 0.0
0.0 0.0 0.0
0.0 0.0 0.0
0.0 0.0 0.0
0.0 0.0 0.0
0.0 0.0 0.0
0.0 0.0 0.0
0.0 0.0 0.0
0.0 0.0 0.0
0.0 0.0 0.0
0.0 0.0 0.0
0.0 0.0 0.0
0.0 0.0 0.0
0.0 0.0 0.0
0.0 0.0 0.0
0.0 0.0 0.0
0.0 0.0 0.0
0.0 0.0 0.0
0.0 0.0 0.0
0.0 0.0 0.0
0.0 0.0 0.0
0.0 0.0 0.0
0.0 0.0 0.0
0.0 0.0 0.0
0.0 0.0 0.0
0.0 0.0 0.0
0.0 0.0 0.0
0.0 0.0 0.0
0.0 0.0 0.0
0.0 0.0 0.0
0.0 0.0 0.0
0.0 0.0 0.0
0.0 0.0 0.0
0.0 0.0 0.0
0.0 0.0 0.0
0.0 0.0 0.0
0.0 0.0 0.0
0.0 0.0 0.0
0.0 0.0 0.0
0.0 0.0 0.0
0.0 0.0 0.0
0.0 0.0 0.0
0.0 0.0 0.0
0.0 0.0 0.0
0.0 0.0 0.0
0.0 0.0 0.0
0.0 0.0 0.0
0.0 0.0 0.0
0.0 0.0 0.0
0.0 0.0 0.0
0.0 0.0 0.0
0.0 0.0 0.0
0.0 0.0 0.0
0.0 0.0 0.0
0.0 0.0 0.0
VECTORS v float
0.383587 -0.651586 -0.657839
1.19098 0.00196289 0.000341865
1.89372 -0.251426 0.232821
1.80266 -0.14631 -0.0939374
2.00963 0.00855485 -0.0125194
2.15433 -0.1443 0.0569912
2.29351 -0.055316 -0.00220797
2.16345 -0.263055 0.0243029
0.884733 -0.163014 0.511899
0.793271 0.146812 0.0927275
1.68258 -0.123759 0.072506
2.554 -0.0238527 0.161588
1.94157 -0.339342 4.31007e-07
0.908673 -0.0933213 -0.063373
1.0342 0.17423 0.0438526
1.38855 -0.338978 0.0953322
1.77595 -0.125379 0.35429
2.40889 -0.245122 -7.7058e-06
0.396128 -0.681346 0.611534
1.44358 -0.650251 -0.235164
1.76058 0.0268569 0.0623063
2.57065 -0.0871826 -0.00028962
1.18308 -0.173877 -0.0631699
1.13999 0.211358 0.209179
1.85694 0.0376885 -0.582079
1.74877 0.0796992 0.0507076
1.90166 0.210667 0.00264907
0.925117 0.747691 -1.18825
1.70849 -0.048267 -0.0160856
1.87672 -0.0627162 0.126948
2.02849 0.131786 -0.0943851
1.21534 0.235418 0.310022
1.40502 0.0526064 0.0056668
1.88288 0.322043 0.286582
1.90669 0.0597985 -0.00296008
2.48437 0.146984 -9.67241e-06
1.7179 -0.295633 0.0994509
1.71498 -0.00995391 0.061345
2.05366 0.168961 -1.09358
2.01259 -0.0559244 -0.0343931
2.61637 0.307907 -0.0603038
1.92988 0.177654 0.194921
2.65834 0.443252 -0.0378673
0.117356 0.10405 0.0528488
1.34326 0.159658 0.120005
1.96191 0.236422 0.11121
1.14607 0.573706 -1.02944
1.95215 0.359548 -0.0996114
2.70057 0.0542955 -1.09271e-06
1.67614 -0.0740609 -0.0736045
1.72725 -0.203023 -0.203195
2.25521 0.174175 0.272865
1.46405 -0.305947 0.590597
1.89961 -0.0997759 -0.229215
1.98957 0.0637101 -0.0643269
1.75776 -0.621478 0.0924029
1.36226 0.25083 0.309786
1.89817 0.369913 -0.016807
0.916048 -0.499191 0.652811
-0.60147 -0.590901 -0.575271
0.736565 -0.444532 -0.997836
1.33874 -0.424761 0.610751
1.45683 -0.283018 0.568884
1.58213 -0.416596 -0.334477
0.347632 -0.436144 -0.351026
-0.12563 0.914232 0.542173
0.334076 0.394078 -2.1254
1.00293 0.501127 1.18461
0.448655 0.8178 0.0153884
-0.324555 0.230366 0.163226
0.610084 0.75276 -0.390146
0.768099 0.554715 0.150777
0.80919 0.548983 -0.529277
1.77223 0.0960884 -0.543862
0.798448 -0.482146 -1.95862
0.131297 -0.968728 0.577771
1.33624 0.663185 -1.4766
-0.48524 -0.413907 -0.466353
1.08249 -0.932007 -1.00962
-0.315504 0.0603951 -2.80886
0.729583 -0.0710962 -0.265794
0.692933 0.491861 -0.721775
0.0809751 0.255903 -0.96789
0.833589 0.157765 0.279775
-0.0805255 -0.00978252 -0.348297
0.232 -0.421288 -0.528588
2.12519 -0.562156 -0.867907
0.273022 0.108161 -0.98992
0.677332 -0.108119 -1.81415
1.39052 0.105394 -0.515727
0.676167 0.189868 -1.45544
1.57849 0.230502 0.191421
0.700643 0.457419 -0.602865
0.951202 0.257721 0.110614
0.0 0.0 -3.03248
1.00148 0.486965 0.660605
1.79971 0.280538 -0.27419
1.50106 0.25123 0.47402
0.859802 0.115493 -0.889343
0.110321 -0.395111 -1.60181
0.529074 -0.880705 -0.202815
2.14273 0.0451429 0.511599
0.379349 0.715802 0.147518
1.14385 -0.0275649 0.295392
0.16495 0.965988 -0.00567044
0.0 0.0 -2.75368
0.0 0.0 -2.82108
-0.692719 -0.0828528 -2.08847
0.0 0.0 -2.77527
0.0 0.0 -2.74505
0.0 0.0 -2.84531
-0.00947377 -0.382652 -1.06973
0.0 0.0 -2.78125
0.690883 1.24682 0.00346501
0.0 0.0 -2.65676
0.0 0.0 -2.66755
0.0 0.0 -2.67825