# vtk DataFile Version 2.0
Generated by lpp.py
ASCII
DATASET POLYDATA
POINTS 527 float
2.46959 0.455529 1.47964
2.41691 0.406385 1.50505
2.37419 0.474846 1.51186
2.42132 0.540877 1.5018
2.5372 0.536558 1.50211
2.29513 0.16728 1.54881
2.19663 0.20393 1.55234
2.25404 0.220047 1.5381
2.21807 0.273468 1.54866
2.2877 0.539165 1.53381
0.143897 0.19128 1.57942
0.410407 0.180575 1.58122
0.477106 0.1856 1.57855
0.596955 0.185399 1.57725
1.08702 0.188111 1.5769
1.14693 0.196503 1.57685
1.36304 0.19367 1.57693
1.49571 0.178736 1.58421
1.73977 0.185874 1.57709
1.81773 0.193413 1.57698
2.0674 0.185127 1.57566
0.281873 0.203072 1.57763
0.54906 0.228326 1.57522
0.761311 0.200825 1.57681
0.849478 0.203527 1.57691
0.991268 0.207445 1.57839
1.30428 0.202681 1.57631
1.53424 0.22948 1.57686
1.5938 0.199999 1.57686
0.0968949 0.252733 1.57975
0.229787 0.239621 1.57674
0.294212 0.262048 1.57679
0.353116 0.255297 1.58564
0.436604 0.238707 1.58194
0.599586 0.24129 1.60072
0.689748 0.23171 1.57683
0.803921 0.25285 1.57685
0.918712 0.260418 1.57687
1.04617 0.232253 1.57642
1.18658 0.240845 1.5833
1.24539 0.26444 1.57686
1.33425 0.253278 1.58458
1.40518 0.235884 1.57708
1.62625 0.260727 1.57686
1.74079 0.246529 1.57681
1.84496 0.248981 1.57683
2.03818 0.255013 1.57625
0.517686 0.290956 1.57742
0.600232 0.301836 1.57661
0.730691 0.281616 1.57639
0.970942 0.295364 1.57696
1.04126 0.29423 1.57703
1.11086 0.280589 1.57686
1.16923 0.297677 1.57673
1.38984 0.2938 1.57686
1.45282 0.286905 1.57686
1.55396 0.290355 1.57686
1.68488 0.275958 1.57687
1.96801 0.272175 1.57686
2.10486 0.303228 1.57155
0.216191 0.299917 1.58009
0.416464 0.331186 1.57533
0.68051 0.314138 1.5769
1.49659 0.328551 1.57686
1.72957 0.316637 1.57684
1.89318 0.323369 1.57687
0.114916 0.351704 1.58046
0.497465 0.348409 1.57682
0.55365 0.369465 1.57737
0.675905 0.374358 1.5761
0.877325 0.346681 1.57697
1.12503 0.346138 1.57686
1.18407 0.356881 1.57687
1.33245 0.349646 1.57655
1.43693 0.348477 1.57686
1.5562 0.355458 1.57686
1.67085 0.358704 1.59542
1.77466 0.357089 1.57698
1.95719 0.341202 1.5769
2.01378 0.362142 1.57682
2.08595 0.371507 1.57212
0.201956 0.406117 1.57718
0.612491 0.379989 1.57739
0.848082 0.407069 1.57686
0.980392 0.39362 1.57684
1.24824 0.392589 1.57685
1.3838 0.383112 1.57686
1.47977 0.39335 1.57699
1.63823 0.410145 1.57683
1.81934 0.393389 1.59501
1.88982 0.388247 1.57686
0.0215465 0.428817 1.5769
0.255245 0.444606 1.57648
0.455958 0.432273 1.57883
0.554381 0.429176 1.57558
1.11846 0.423408 1.57713
1.18729 0.439934 1.57686
1.28169 0.4434 1.57653
1.52947 0.42973 1.5764
1.69763 0.419323 1.57795
1.78889 0.441746 1.57687
1.85345 0.43895 1.57674
1.92508 0.437675 1.57685
2.0341 0.418525 1.57659
2.1179 0.432856 1.56912
0.163825 0.462725 1.57588
0.361346 0.453706 1.57628
0.598083 0.473742 1.57666
0.660342 0.462255 1.57667
0.811857 0.477389 1.57696
0.924502 0.443895 1.57684
0.998904 0.450466 1.57733
1.33814 0.457749 1.58962
1.39563 0.446836 1.57687
1.48078 0.464275 1.57665
1.58014 0.460602 1.5775
1.63855 0.469834 1.57702
1.98256 0.454828 1.57683
2.0522 0.476117 1.58326
0.25602 0.501946 1.5929
0.314583 0.490546 1.57495
0.476924 0.492548 1.57601
0.870649 0.497246 1.57614
0.929628 0.503981 1.5776
1.01699 0.504776 1.59494
1.10179 0.481512 1.57686
1.21379 0.496985 1.58127
1.28634 0.502816 1.5769
1.37104 0.506411 1.57703
1.53043 0.49767 1.57691
1.75761 0.493343 1.57691
1.82396 0.509545 1.57686
1.88682 0.488684 1.57908
0.0851269 0.529257 1.57707
0.189108 0.526095 1.57788
0.241631 0.556195 1.57572
0.497515 0.5511 1.60143
0.620632 0.527174 1.59088
0.698006 0.519356 1.57687
1.09642 0.550121 1.57716
1.1501 0.523722 1.57687
1.32637 0.547652 1.57686
1.47253 0.519783 1.59723
1.58072 0.537119 1.57686
1.668 0.523996 1.57682
1.93823 0.54191 1.57691
2.02324 0.529459 1.57664
0.303858 0.575405 1.58176
0.445218 0.569404 1.57859
0.55368 0.584881 1.59409
0.729894 0.572212 1.58186
0.829585 0.567464 1.57685
0.884444 0.585472 1.59486
0.93955 0.563469 1.58135
1.00041 0.560675 1.58101
1.14139 0.584594 1.5975
1.19881 0.559559 1.57687
1.26192 0.560838 1.57683
1.37585 0.581263 1.59045
1.42482 0.549567 1.5768
1.51558 0.556265 1.5769
1.61648 0.584186 1.59337
1.75243 0.565908 1.57686
1.86309 0.558998 1.57686
0.169904 0.133456 1.63178
0.725995 0.152431 1.61037
0.802946 0.134429 1.62703
0.900279 0.138417 1.62447
1.06177 0.134186 1.62876
1.13106 0.13844 1.6245
1.21904 0.138386 1.6239
0.215527 0.185216 1.59897
0.31298 0.158524 1.6041
1.26371 0.174564 1.60934
0.158134 0.194244 1.64058
0.464376 0.221002 1.63047
0.548176 0.196509 1.62451
0.903713 0.200445 1.60242
1.18929 0.205458 1.63085
0.154624 0.269872 1.58646
0.261608 0.300261 1.61733
0.409275 0.266543 1.62849
0.586647 0.290301 1.63339
0.753946 0.294124 1.62954
1.32634 0.304145 1.61446
0.884021 0.305035 1.62334
1.15599 0.307248 1.6342
0.0314126 0.373076 1.59758
0.226501 0.364251 1.6132
0.285582 0.354931 1.61247
0.559126 0.350622 1.63487
0.714601 0.372181 1.62101
0.789798 0.367456 1.60328
0.923896 0.369904 1.60686
0.170379 0.397382 1.62701
0.360941 0.38249 1.60199
0.420302 0.381495 1.60599
1.31497 0.400736 1.60123
1.56287 0.409366 1.62915
0.110783 0.408902 1.60452
0.300456 0.424078 1.609
0.493041 0.416301 1.62165
0.585937 0.418416 1.62397
0.665003 0.417774 1.61605
0.778232 0.427103 1.6202
1.62461 0.416033 1.63478
1.73999 0.428237 1.62329
0.200892 0.450377 1.61976
0.520832 0.467369 1.60558
0.871494 0.46949 1.62854
1.52649 0.462468 1.62613
1.67628 0.46214 1.6226
0.183897 0.517562 1.63611
0.374015 0.51733 1.61257
0.433804 0.510117 1.61562
0.665545 0.485369 1.63316
0.824742 0.530294 1.62691
1.27256 0.529409 1.62866
0.345021 0.588432 1.6204
1.05338 0.576237 1.62048
0.619028 0.592776 1.60176
0.678871 0.595853 1.60955
0.807666 0.619837 1.62783
1.21558 0.606536 1.61572
1.29165 0.601302 1.61044
1.43678 0.613815 1.62299
0.440596 0.623596 1.63277
0.665188 0.117229 1.64577
1.62676 0.104893 1.65804
0.456189 0.143152 1.6349
0.513185 0.155391 1.64819
0.349203 0.171734 1.64932
0.414518 0.186264 1.63915
0.642223 0.194629 1.64407
0.284114 0.204232 1.64954
0.358744 0.230081 1.64373
0.672443 0.26339 1.66675
0.826958 0.24786 1.64876
0.208596 0.279208 1.63916
0.294005 0.285073 1.66444
0.461693 0.301605 1.64889
0.514035 0.273624 1.63582
0.799074 0.300264 1.66816
0.330417 0.320093 1.62852
0.403804 0.326124 1.63235
0.0627278 0.340301 1.63944
0.135989 0.351359 1.64872
0.493741 0.356632 1.64308
0.262694 0.446075 1.64917
0.394507 0.436189 1.6273
0.629644 0.417398 1.66371
1.08613 0.422097 1.63661
0.190047 0.449953 1.67822
0.341179 0.456667 1.64585
0.457223 0.45647 1.65829
0.553499 0.461913 1.65435
0.601775 0.507844 1.66897
0.656701 0.551454 1.64736
0.718267 0.544664 1.63577
0.883702 0.558286 1.65463
0.538226 0.595637 1.65105
0.353287 0.638281 1.66179
0.503408 0.646268 1.65729
0.72387 0.634687 1.6487
0.89469 0.62417 1.63941
0.203466 0.103477 1.67133
0.506777 0.228143 1.67517
0.353057 0.2834 1.66881
0.385992 0.327905 1.68868
0.533533 0.310234 1.68079
0.754427 0.333597 1.69197
0.334842 0.356274 1.6792
0.438551 0.370195 1.66862
0.179694 0.378925 1.68181
0.264715 0.389707 1.66917
0.417262 0.421108 1.6922
0.238251 0.486645 1.68652
0.128938 0.500442 1.65241
0.32072 0.506144 1.67666
0.417348 0.533867 1.67012
0.522454 0.535315 1.70254
0.354492 0.578063 1.67689
0.837053 0.622933 1.67944
0.492525 0.689876 1.69961
0.299305 0.247274 1.70756
0.442411 0.236129 1.71327
0.436148 0.300653 1.70568
0.499396 0.409304 1.69941
0.363569 0.441117 1.71159
0.434645 0.505695 2.50274
0.126939 0.284236 1.73353
0.187834 0.32549 1.7434
0.345521 0.308793 1.72555
0.476195 0.34366 1.71569
0.282511 0.427246 1.74897
0.180798 0.510604 1.74732
0.384545 0.492724 1.73959
0.196226 0.26238 1.78319
0.256147 0.321804 1.76921
0.110703 0.374435 1.77428
0.107302 0.455042 1.78391
0.356376 0.254196 1.78819
0.415762 0.389621 1.78962
0.214879 0.429082 1.81712
0.49838 0.508374 1.799
0.44222 0.295647 1.84226
0.346145 0.350757 1.85022
0.475094 0.383761 1.83998
0.466199 0.451954 1.85103
0.236464 0.494005 1.84606
0.430217 0.500721 1.85185
0.339305 0.526873 1.8352
0.271982 0.260644 1.86443
0.321856 0.294278 1.86086
0.125428 0.344451 1.89269
0.282424 0.374546 1.88082
0.104255 0.515661 1.86789
0.103324 0.228818 1.92039
0.161403 0.258279 1.91956
0.363615 0.240431 1.93011
0.425069 0.242959 1.93215
0.499192 0.246026 1.9277
0.189012 0.364304 1.90968
0.415188 0.353574 1.90191
0.115455 0.44409 1.91244
0.323589 0.424937 1.89805
0.40415 0.414672 1.93109
0.370433 0.49856 1.92551
0.31493 0.348737 1.96421
0.158807 0.499296 1.94198
0.264146 0.523422 1.93721
0.220666 0.238837 1.99959
0.257372 0.298287 1.98073
0.314466 0.284399 2.00692
0.417494 0.317622 2.00523
0.484684 0.362834 1.97593
0.125062 0.39201 1.98302
0.217234 0.387064 1.9972
0.263093 0.452487 2.00602
0.417911 0.469013 1.999
0.393674 0.233628 2.01805
0.17717 0.298235 2.01538
0.492483 0.279077 2.00915
0.107591 0.339963 2.02097
0.385775 0.387923 2.0245
0.449749 0.403068 2.01492
0.345938 0.437655 2.03206
0.139724 0.459766 2.01845
0.486571 0.452792 2.01068
0.220758 0.508511 2.01463
0.312076 0.491969 2.01333
0.490194 0.521396 2.0178
0.130146 0.239366 2.07739
0.293957 0.252051 2.06734
0.480794 0.235256 2.07404
0.112395 0.298661 2.07505
0.396036 0.28089 2.08076
0.313064 0.354671 2.05175
0.494465 0.353653 2.05034
0.177639 0.41728 2.05339
0.25883 0.414412 2.0707
0.188867 0.511362 2.07232
0.352584 0.510062 2.06424
0.481601 0.499619 2.07711
0.286065 0.525163 2.06213
0.420914 0.522237 2.05179
0.215119 0.259008 2.08422
0.461831 0.299793 2.08245
0.260232 0.32538 2.09072
0.184207 0.342437 2.0952
0.413738 0.375309 2.11012
0.469219 0.429721 2.08597
0.312883 0.472231 2.09355
0.425503 0.471227 2.08617
0.107222 0.481912 2.10361
0.32799 0.229202 2.14355
0.405689 0.228633 2.12064
0.167912 0.238386 2.13466
0.231382 0.240563 2.14299
0.113197 0.294489 2.14951
0.317332 0.30781 2.12804
0.134053 0.366007 2.11991
0.489016 0.368217 2.12079
0.153204 0.432626 2.11854
0.222179 0.424446 2.13719
0.306002 0.430402 2.1474
0.239416 0.495022 2.13556
0.498927 0.504545 2.13488
0.360463 0.523492 2.14545
0.109866 0.233818 2.15844
0.391248 0.260634 2.18374
0.498812 0.248514 2.16893
0.194033 0.278126 2.17518
0.265839 0.285868 2.1768
0.469257 0.29946 2.15185
0.194635 0.336418 2.15946
0.405808 0.316699 2.15707
0.489514 0.352564 2.18129
0.379233 0.434328 2.15583
0.487806 0.414883 2.17581
0.188866 0.448878 2.18084
0.150905 0.499656 2.17471
0.297107 0.507647 2.15842
0.452328 0.508491 2.17873
0.121163 0.235465 2.21938
0.325604 0.248234 2.20541
0.464139 0.288262 2.2135
0.240166 0.328846 2.21071
0.354308 0.337534 2.19063
0.291855 0.372275 2.18768
0.142017 0.392074 2.19392
0.442633 0.401674 2.21786
0.112907 0.457318 2.20655
0.306813 0.454906 2.21191
0.232349 0.51961 2.2155
0.325501 0.521381 2.21998
0.228203 0.227346 2.22755
0.182449 0.265752 2.24745
0.371199 0.250575 2.24872
0.109346 0.315959 2.23037
0.287412 0.337623 2.25316
0.368802 0.320326 2.25015
0.198909 0.373142 2.24127
0.435393 0.34359 2.24127
0.263606 0.399014 2.2351
0.151029 0.419157 2.25396
0.224919 0.462043 2.24083
0.480028 0.469573 2.24511
0.143314 0.508824 2.25199
0.370146 0.482381 2.24259
0.477175 0.232241 2.26463
0.310551 0.275965 2.26166
0.202651 0.326782 2.27942
0.384965 0.379016 2.285
0.333275 0.414894 2.26173
0.470694 0.421347 2.28073
0.158331 0.259584 2.30919
0.379968 0.260616 2.3078
0.419779 0.314987 2.29386
0.478207 0.314376 2.31397
0.102309 0.339997 2.29882
0.189373 0.382597 2.32159
0.261557 0.393625 2.30365
0.496133 0.384099 2.32079
0.108153 0.438732 2.31855
0.41429 0.434596 2.31731
0.178059 0.478415 2.30491
0.487334 0.474096 2.30584
0.297583 0.511466 2.29592
0.419317 0.494483 2.3071
0.226804 0.518091 2.31666
0.287182 0.241461 2.33538
0.437539 0.252688 2.33571
0.313165 0.295281 2.34233
0.146413 0.330961 2.33865
0.23496 0.304512 2.33559
0.361163 0.357044 2.35824
0.444299 0.395894 2.3532
0.167616 0.430974 2.35451
0.318306 0.424417 2.32625
0.250241 0.450955 2.35964
0.353581 0.483281 2.32649
0.281519 0.521738 2.35447
0.345706 0.244188 2.36848
0.119434 0.281797 2.36643
0.183368 0.299923 2.37745
0.4644 0.282902 2.39546
0.413519 0.31622 2.36723
0.114178 0.389821 2.37746
0.20118 0.391877 2.38642
0.261164 0.39533 2.39092
0.393917 0.429411 2.37729
0.489664 0.438439 2.36411
0.105798 0.50424 2.36445
0.187915 0.515186 2.38538
0.32526 0.484758 2.38005
0.4524 0.512277 2.37886
0.1932 0.229789 2.41297
0.337046 0.231264 2.42864
0.422137 0.237787 2.40647
0.372856 0.301203 2.41603
0.306584 0.303573 2.42311
0.15454 0.359333 2.4112
0.330347 0.403499 2.41088
0.485995 0.385829 2.41292
0.145536 0.471864 2.42705
0.398538 0.477915 2.42576
0.493497 0.449079 2.43063
0.10177 0.254991 2.44716
0.497694 0.256246 2.44034
0.248456 0.285804 2.44542
0.488964 0.318078 2.44029
0.244928 0.34739 2.45499
0.359187 0.345598 2.46339
0.387775 0.408365 2.44781
0.244813 0.43345 2.44185
0.322092 0.457941 2.45624
0.239296 0.494007 2.453
0.308508 0.519363 2.44446
0.200715 0.243234 2.49381
0.271532 0.23235 2.4928
0.389977 0.239061 2.47499
0.465941 0.232795 2.48673
0.150783 0.312529 2.47024
0.430203 0.322942 2.46658
0.206866 0.39261 2.46625
0.32123 0.387645 2.49716
0.462123 0.378122 2.49228
0.114653 0.416417 2.47766
0.100279 0.478463 2.4725
0.195028 0.474388 2.49054
0.496548 0.513622 2.46741
0.119764 0.23589 2.50451
0.340901 0.251487 2.51902
0.252209 0.30257 2.52485
0.399979 0.29937 2.51706
0.334843 0.328269 2.52319
0.493176 0.31314 2.52199
0.145549 0.370736 2.51487
0.203386 0.34301 2.51212
0.402076 0.364491 2.52095
0.253008 0.38524 2.50529
0.388515 0.434845 2.51435
0.489023 0.459055 2.50218
0.1312 0.50645 2.52577
0.277161 0.482116 2.52173
0.348799 0.506378 2.51849
VERTICES 527 1054
1 0
1 1
1 2
1 3
1 4
1 5
1 6
1 7
1 8
1 9
1 10
1 11
1 12
1 13
1 14
1 15
1 16
1 17
1 18
1 19
1 20
1 21
1 22
1 23
1 24
1 25
1 26
1 27
1 28
1 29
1 30
1 31
1 32
1 33
1 34
1 35
1 36
1 37
1 38
1 39
1 40
1 41
1 42
1 43
1 44
1 45
1 46
1 47
1 48
1 49
1 50
1 51
1 52
1 53
1 54
1 55
1 56
1 57
1 58
1 59
1 60
1 61
1 62
1 63
1 64
1 65
1 66
1 67
1 68
1 69
1 70
1 71
1 72
1 73
1 74
1 75
1 76
1 77
1 78
1 79
1 80
1 81
1 82
1 83
1 84
1 85
1 86
1 87
1 88
1 89
1 90
1 91
1 92
1 93
1 94
1 95
1 96
1 97
1 98
1 99
1 100
1 101
1 102
1 103
1 104
1 105
1 106
1 107
1 108
1 109
1 110
1 111
1 112
1 113
1 114
1 115
1 116
1 117
1 118
1 119
1 120
1 121
1 122
1 123
1 124
1 125
1 126
1 127
1 128
1 129
1 130
1 131
1 132
1 133
1 134
1 135
1 136
1 137
1 138
1 139
1 140
1 141
1 142
1 143
1 144
1 145
1 146
1 147
1 148
1 149
1 150
1 151
1 152
1 153
1 154
1 155
1 156
1 157
1 158
1 159
1 160
1 161
1 162
1 163
1 164
1 165
1 166
1 167
1 168
1 169
1 170
1 171
1 172
1 173
1 174
1 175
1 176
1 177
1 178
1 179
1 180
1 181
1 182
1 183
1 184
1 185
1 186
1 187
1 188
1 189
1 190
1 191
1 192
1 193
1 194
1 195
1 196
1 197
1 198
1 199
1 200
1 201
1 202
1 203
1 204
1 205
1 206
1 207
1 208
1 209
1 210
1 211
1 212
1 213
1 214
1 215
1 216
1 217
1 218
1 219
1 220
1 221
1 222
1 223
1 224
1 225
1 226
1 227
1 228
1 229
1 230
1 231
1 232
1 233
1 234
1 235
1 236
1 237
1 238
1 239
1 240
1 241
1 242
1 243
1 244
1 245
1 246
1 247
1 248
1 249
1 250
1 251
1 252
1 253
1 254
1 255
1 256
1 257
1 258
1 259
1 260
1 261
1 262
1 263
1 264
1 265
1 266
1 267
1 268
1 269
1 270
1 271
1 272
1 273
1 274
1 275
1 276
1 277
1 278
1 279
1 280
1 281
1 282
1 283
1 284
1 285
1 286
1 287
1 288
1 289
1 290
1 291
1 292
1 293
1 294
1 295
1 296
1 297
1 298
1 299
1 300
1 301
1 302
1 303
1 304
1 305
1 306
1 307
1 308
1 309
1 310
1 311
1 312
1 313
1 314
1 315
1 316
1 317
1 318
1 319
1 320
1 321
1 322
1 323
1 324
1 325
1 326
1 327
1 328
1 329
1 330
1 331
1 332
1 333
1 334
1 335
1 336
1 337
1 338
1 339
1 340
1 341
1 342
1 343
1 344
1 345
1 346
1 347
1 348
1 349
1 350
1 351
1 352
1 353
1 354
1 355
1 356
1 357
1 358
1 359
1 360
1 361
1 362
1 363
1 364
1 365
1 366
1 367
1 368
1 369
1 370
1 371
1 372
1 373
1 374
1 375
1 376
1 377
1 378
1 379
1 380
1 381
1 382
1 383
1 384
1 385
1 386
1 387
1 388
1 389
1 390
1 391
1 392
1 393
1 394
1 395
1 396
1 397
1 398
1 399
1 400
1 401
1 402
1 403
1 404
1 405
1 406
1 407
1 408
1 409
1 410
1 411
1 412
1 413
1 414
1 415
1 416
1 417
1 418
1 419
1 420
1 421
1 422
1 423
1 424
1 425
1 426
1 427
1 428
1 429
1 430
1 431
1 432
1 433
1 434
1 435
1 436
1 437
1 438
1 439
1 440
1 441
1 442
1 443
1 444
1 445
1 446
1 447
1 448
1 449
1 450
1 451
1 452
1 453
1 454
1 455
1 456
1 457
1 458
1 459
1 460
1 461
1 462
1 463
1 464
1 465
1 466
1 467
1 468
1 469
1 470
1 471
1 472
1 473
1 474
1 475
1 476
1 477
1 478
1 479
1 480
1 481
1 482
1 483
1 484
1 485
1 486
1 487
1 488
1 489
1 490
1 491
1 492
1 493
1 494
1 495
1 496
1 497
1 498
1 499
1 500
1 501
1 502
1 503
1 504
1 505
1 506
1 507
1 508
1 509
1 510
1 511
1 512
1 513
1 514
1 515
1 516
1 517
1 518
1 519
1 520
1 521
1 522
1 523
1 524
1 525
1 526
POINT_DATA 527
VECTORS i float
0.0 0.0 0.0
0.0 0.0 0.0
0.0 0.0 0.0
0.0 0.0 0.0
0.0 0.0 0.0
0.0 0.0 0.0
0.0 0.0 0.0
0.0 0.0 0.0
0.0 0.0 0.0
0.0 0.0 0.0
0.0 0.0 0.0
0.0 0.0 0.0
0.0 0.0 0.0
0.0 0.0 0.0
0.0 0.0 0.0
0.0 0.0 0.0
0.0 0.0 0.0
0.0 0.0 0.0
0.0 0.0 0.0
0.0 0.0 0.0
0.0 0.0 0.0
0.0 0.0 0.0
0.0 0.0 0.0
0.0 0.0 0.0
0.0 0.0 0.0
0.0 0.0 0.0
0.0 0.0 0.0
0.0 0.0 0.0
0.0 0.0 0.0
0.0 0.0 0.0
0.0 0.0 0.0
0.0 0.0 0.0
0.0 0.0 0.0
0.0 0.0 0.0
0.0 0.0 0.0
0.0 0.0 0.0
0.0 0.0 0.0
0.0 0.0 0.0
0.0 0.0 0.0
0.0 0.0 0.0
0.0 0.0 0.0
0.0 0.0 0.0
0.0 0.0 0.0
0.0 0.0 0.0
0.0 0.0 0.0
0.0 0.0 0.0
0.0 0.0 0.0
0.0 0.0 0.0
0.0 0.0 0.0
0.0 0.0 0.0
0.0 0.0 0.0
0.0 0.0 0.0
0.0 0.0 0.0
0.0 0.0 0.0
0.0 0.0 0.0
0.0 0.0 0.0
0.0 0.0 0.0
0.0 0.0 0.0
0.0 0.0 0.0
0.0 0.0 0.0
0.0 0.0 0.0
0.0 0.0 0.0
0.0 0.0 0.0
0.0 0.0 0.0
0.0 0.0 0.0
0.0 0.0 0.0
0.0 0.0 0.0
0.0 0.0 0.0
0.0 0.0 0.0
0.0 0.0 0.0
0.0 0.0 0.0
0.0 0.0 0.0
0.0 0.0 0.0
0.0 0.0 0.0
0.0 0.0 0.0
0.0 0.0 0.0
0.0 0.0 0.0
0.0 0.0 0.0
0.0 0.0 0.0
0.0 0.0 0.0
0.0 0.0 0.0
0.0 0.0 0.0
0.0 0.0 0.0
0.0 0.0 0.0
0.0 0.0 0.0
0.0 0.0 0.0
0.0 0.0 0.0
0.0 0.0 0.0
0.0 0.0 0.0
0.0 0.0 0.0
0.0 0.0 0.0
0.0 0.0 0.0
0.0 0.0 0.0
0.0 0.0 0.0
0.0 0.0 0.0
0.0 0.0 0.0
0.0 0.0 0.0
0.0 0.0 0.0
0.0 0.0 0.0
0.0 0.0 0.0
0.0 0.0 0.0
0.0 0.0 0.0
0.0 0.0 0.0
0.0 0.0 0.0
0.0 0.0 0.0
0.0 0.0 0.0
0.0 0.0 0.0
0.0 0.0 0.0
0.0 0.0 0.0
0.0 0.0 0.0
0.0 0.0 0.0
0.0 0.0 0.0
0.0 0.0 0.0
0.0 0.0 0.0
0.0 0.0 0.0
0.0 0.0 0.0
0.0 0.0 0.0
0.0 0.0 0.0
0.0 0.0 0.0
0.0 0.0 0.0
0.0 0.0 0.0
0.0 0.0 0.0
0.0 0.0 0.0
0.0 0.0 0.0
0.0 0.0 0.0
0.0 0.0 0.0
0.0 0.0 0.0
0.0 0.0 0.0
0.0 0.0 0.0
0.0 0.0 0.0
0.0 0.0 0.0
0.0 0.0 0.0
0.0 0.0 0.0
0.0 0.0 0.0
0.0 0.0 0.0
0.0 0.0 0.0
0.0 0.0 0.0
0.0 0.0 0.0
0.0 0.0 0.0
0.0 0.0 0.0
0.0 0.0 0.0
0.0 0.0 0.0
0.0 0.0 0.0
0.0 0.0 0.0
0.0 0.0 0.0
0.0 0.0 0.0
0.0 0.0 0.0
0.0 0.0 0.0
0.0 0.0 0.0
0.0 0.0 0.0
0.0 0.0 0.0
0.0 0.0 0.0
0.0 0.0 0.0
0.0 0.0 0.0
0.0 0.0 0.0
0.0 0.0 0.0
0.0 0.0 0.0
0.0 0.0 0.0
0.0 0.0 0.0
0.0 0.0 0.0
0.0 0.0 0.0
0.0 0.0 0.0
0.0 0.0 0.0
0.0 0.0 0.0
0.0 0.0 0.0
0.0 0.0 0.0
0.0 0.0 0.0
0.0 0.0 0.0
0.0 0.0 0.0
0.0 0.0 0.0
0.0 0.0 0.0
0.0 0.0 0.0
0.0 0.0 0.0
0.0 0.0 0.0
0.0 0.0 0.0
0.0 0.0 0.0
0.0 0.0 0.0
0.0 0.0 0.0
0.0 0.0 0.0
0.0 0.0 0.0
0.0 0.0 0.0
0.0 0.0 0.0
0.0 0.0 0.0
0.0 0.0 0.0
0.0 0.0 0.0
0.0 0.0 0.0
0.0 0.0 0.0
0.0 0.0 0.0
0.0 0.0 0.0
0.0 0.0 0.0
0.0 0.0 0.0
0.0 0.0 0.0
0.0 0.0 0.0
0.0 0.0 0.0
0.0 0.0 0.0
0.0 0.0 0.0
0.0 0.0 0.0
0.0 0.0 0.0
0.0 0.0 0.0
0.0 0.0 0.0
0.0 0.0 0.0
0.0 0.0 0.0
0.0 0.0 0.0
0.0 0.0 0.0
0.0 0.0 0.0
0.0 0.0 0.0
0.0 0.0 0.0
0.0 0.0 0.0
0.0 0.0 0.0
0.0 0.0 0.0
0.0 0.0 0.0
0.0 0.0 0.0
0.0 0.0 0.0
0.0 0.0 0.0
0.0 0.0 0.0
0.0 0.0 0.0
0.0 0.0 0.0
0.0 0.0 0.0
0.0 0.0 0.0
0.0 0.0 0.0
0.0 0.0 0.0
0.0 0.0 0.0
0.0 0.0 0.0
0.0 0.0 0.0
0.0 0.0 0.0
0.0 0.0 0.0
0.0 0.0 0.0
0.0 0.0 0.0
0.0 0.0 0.0
0.0 0.0 0.0
0.0 0.0 0.0
0.0 0.0 0.0
0.0 0.0 0.0
0.0 0.0 0.0
0.0 0.0 0.0
0.0 0.0 0.0
0.0 0.0 0.0
0.0 0.0 0.0
0.0 0.0 0.0
0.0 0.0 0.0
0.0 0.0 0.0
0.0 0.0 0.0
0.0 0.0 0.0
0.0 0.0 0.0
0.0 0.0 0.0
0.0 0.0 0.0
0.0 0.0 0.0
0.0 0.0 0.0
0.0 0.0 0.0
0.0 0.0 0.0
0.0 0.0 0.0
0.0 0.0 0.0
0.0 0.0 0.0
0.0 0.0 0.0
0.0 0.0 0.0
0.0 0.0 0.0
0.0 0.0 0.0
0.0 0.0 0.0
0.0 0.0 0.0
0.0 0.0 0.0
0.0 0.0 0.0
0.0 0.0 0.0
0.0 0.0 0.0
0.0 0.0 0.0
0.0 0.0 0.0
0.0 0.0 0.0
0.0 0.0 0.0
0.0 0.0 0.0
0.0 0.0 0.0
0.0 0.0 0.0
0.0 0.0 0.0
0.0 0.0 0.0
0.0 0.0 0.0
0.0 0.0 0.0
0.0 0.0 0.0
0.0 0.0 0.0
0.0 0.0 0.0
0.0 0.0 0.0
0.0 0.0 0.0
0.0 0.0 0.0
0.0 0.0 0.0
0.0 0.0 0.0
0.0 0.0 0.0
0.0 0.0 0.0
0.0 0.0 0.0
0.0 0.0 0.0
0.0 0.0 0.0
0.0 0.0 0.0
0.0 0.0 0.0
0.0 0.0 0.0
0.0 0.0 0.0
0.0 0.0 0.0
0.0 0.0 0.0
0.0 0.0 0.0
0.0 0.0 0.0
0.0 0.0 0.0
0.0 0.0 0.0
0.0 0.0 0.0
0.0 0.0 0.0
0.0 0.0 0.0
0.0 0.0 0.0
0.0 0.0 0.0
0.0 0.0 0.0
0.0 0.0 0.0
0.0 0.0 0.0
0.0 0.0 0.0
0.0 0.0 0.0
0.0 0.0 0.0
0.0 0.0 0.0
0.0 0.0 0.0
0.0 0.0 0.0
0.0 0.0 0.0
0.0 0.0 0.0
0.0 0.0 0.0
0.0 0.0 0.0
0.0 0.0 0.0
0.0 0.0 0.0
0.0 0.0 0.0
0.0 0.0 0.0
0.0 0.0 0.0
0.0 0.0 0.0
0.0 0.0 0.0
0.0 0.0 0.0
0.0 0.0 0.0
0.0 0.0 0.0
0.0 0.0 0.0
0.0 0.0 0.0
0.0 0.0 0.0
0.0 0.0 0.0
0.0 0.0 0.0
0.0 0.0 0.0
0.0 0.0 0.0
0.0 0.0 0.0
0.0 0.0 0.0
0.0 0.0 0.0
0.0 0.0 0.0
0.0 0.0 0.0
0.0 0.0 0.0
0.0 0.0 0.0
0.0 0.0 0.0
0.0 0.0 0.0
0.0 0.0 0.0
0.0 0.0 0.0
0.0 0.0 0.0
0.0 0.0 0.0
0.0 0.0 0.0
0.0 0.0 0.0
0.0 0.0 0.0
0.0 0.0 0.0
0.0 0.0 0.0
0.0 0.0 0.0
0.0 0.0 0.0
0.0 0.0 0.0
0.0 0.0 0.0
0.0 0.0 0.0
0.0 0.0 0.0
0.0 0.0 0.0
0.0 0.0 0.0
0.0 0.0 0.0
0.0 0.0 0.0
0.0 0.0 0.0
0.0 0.0 0.0
0.0 0.0 0.0
0.0 0.0 0.0
0.0 0.0 0.0
0.0 0.0 0.0
0.0 0.0 0.0
0.0 0.0 0.0
0.0 0.0 0.0
0.0 0.0 0.0
0.0 0.0 0.0
0.0 0.0 0.0
0.0 0.0 0.0
0.0 0.0 0.0
0.0 0.0 0.0
0.0 0.0 0.0
0.0 0.0 0.0
0.0 0.0 0.0
0.0 0.0 0.0
0.0 0.0 0.0
0.0 0.0 0.0
0.0 0.0 0.0
0.0 0.0 0.0
0.0 0.0 0.0
0.0 0.0 0.0
0.0 0.0 0.0
0.0 0.0 0.0
0.0 0.0 0.0
0.0 0.0 0.0
0.0 0.0 0.0
0.0 0.0 0.0
0.0 0.0 0.0
0.0 0.0 0.0
0.0 0.0 0.0
0.0 0.0 0.0
0.0 0.0 0.0
0.0 0.0 0.0
0.0 0.0 0.0
0.0 0.0 0.0
0.0 0.0 0.0
0.0 0.0 0.0
0.0 0.0 0.0
0.0 0.0 0.0
0.0 0.0 0.0
0.0 0.0 0.0
0.0 0.0 0.0
0.0 0.0 0.0
0.0 0.0 0.0
0.0 0.0 0.0
0.0 0.0 0.0
0.0 0.0 0.0
0.0 0.0 0.0
0.0 0.0 0.0
0.0 0.0 0.0
0.0 0.0 0.0
0.0 0.0 0.0
0.0 0.0 0.0
0.0 0.0 0.0
0.0 0.0 0.0
0.0 0.0 0.0
0.0 0.0 0.0
0.0 0.0 0.0
0.0 0.0 0.0
0.0 0.0 0.0
0.0 0.0 0.0
0.0 0.0 0.0
0.0 0.0 0.0
0.0 0.0 0.0
0.0 0.0 0.0
0.0 0.0 0.0
0.0 0.0 0.0
0.0 0.0 0.0
0.0 0.0 0.0
0.0 0.0 0.0
0.0 0.0 0.0
0.0 0.0 0.0
0.0 0.0 0.0
0.0 0.0 0.0
0.0 0.0 0.0
0.0 0.0 0.0
0.0 0.0 0.0
0.0 0.0 0.0
0.0 0.0 0.0
0.0 0.0 0.0
0.0 0.0 0.0
0.0 0.0 0.0
0.0 0.0 0.0
0.0 0.0 0.0
0.0 0.0 0.0
0.0 0.0 0.0
0.0 0.0 0.0
0.0 0.0 0.0
0.0 0.0 0.0
0.0 0.0 0.0
0.0 0.0 0.0
0.0 0.0 0.0
0.0 0.0 0.0
0.0 0.0 0.0
0.0 0.0 0.0
0.0 0.0 0.0
0.0 0.0 0.0
0.0 0.0 0.0
0.0 0.0 0.0
0.0 0.0 0.0
0.0 0.0 0.0
0.0 0.0 0.0
0.0 0.0 0.0
0.0 0.0 0.0
0.0 0.0 0.0
0.0 0.0 0.0
0.0 0.0 0.0
0.0 0.0 0.0
0.0 0.0 0.0
0.0 0.0 0.0
0.0 0.0 0.0
0.0 0.0 0.0
0.0 0.0 0.0
0.0 0.0 0.0
0.0 0.0 0.0
0.0 0.0 0.0
0.0 0.0 0.0
0.0 0.0 0.0
0.0 0.0 0.0
0.0 0.0 0.0
0.0 0.0 0.0
0.0 0.0 0.0
0.0 0.0 0.0
0.0 0.0 0.0
0.0 0.0 0.0
0.0 0.0 0.0
0.0 0.0 0.0
0.0 0.0 0.0
0.0 0.0 0.0
0.0 0.0 0.0
0.0 0.0 0.0
0.0 0.0 0.0
0.0 0.0 0.0
0.0 0.0 0.0
0.0 0.0 0.0
0.0 0.0 0.0
0.0 0.0 0.0
0.0 0.0 0.0
0.0 0.0 0.0
0.0 0.0 0.0
0.0 0.0 0.0
0.0 0.0 0.0
0.0 0.0 0.0
0.0 0.0 0.0
0.0 0.0 0.0
0.0 0.0 0.0
0.0 0.0 0.0
0.0 0.0 0.0
0.0 0.0 0.0
0.0 0.0 0.0
0.0 0.0 0.0
0.0 0.0 0.0
0.0 0.0 0.0
0.0 0.0 0.0
0.0 0.0 0.0
0.0 0.0 0.0
0.0 0.0 0.0
0.0 0.0 0.0
0.0 0.0 0.0
0.0 0.0 0.0
0.0 0.0 0.0
0.0 0.0 0.0
0.0 0.0 0.0
VECTORS f float
0.0 0.0 -2.77371
0.0 0.0 -2.77371
0.0 0.0 -2.77371
0.0 0.0 -2.77371
0.0 0.0 -2.77371
0.0 0.0 -2.77371
0.0 0.0 -2.77371
0.0 0.0 -2.77371
0.0 0.0 -2.77371
0.0 0.0 -2.77371
0.0 0.0 -2.77371
8.77784 8.10695 21.007
0.0 0.0 -2.77371
2.85731 4.30571 1.05774
-0.185632 -0.0176686 -0.887606
-0.329485 -0.412025 -0.994522
4.76073 -1.51744 0.491693
-2.08919e-05 0.988371 -0.989169
0.445479 0.736979 -1.16561
-1.79809 -1.01576 0.846393
0.0 0.0 -2.77371
0.0 0.0 -2.77371
-0.749097 -0.465775 10.5
0.0388486 0.00173414 1.25154
-0.196971 0.0165281 -1.82569
0.0 0.0 -2.77371
2.50593 1.62859 1.51912
-7.27676e-05 3.57837e-06 -0.00282472
0.00103105 -0.000271054 0.108854
0.0 0.0 -2.77371
0.890747 -0.800607 -0.378382
1.09208 -0.0670822 -2.98401
-1.03099 0.0600966 -2.44044
-11.5071 6.97743 -25.7963
30.8593 14.0082 23.0938
-0.0266994 -0.00380598 0.287786
0.0081015 -3.33878e-05 0.198031
0.00863578 -0.00198714 -0.00688654
4.18676 -1.45045 6.08806
-3.88955 2.57418 -7.82548
0.00731174 -0.000704148 0.12819
1.96528 0.915617 0.690599
2.38434 0.128477 -1.14743
-0.00172697 -0.000815525 0.00189667
-0.000454249 1.56583e-05 0.880887
-0.129452 0.255219 0.162014
0.0 0.0 -2.77371
0.0 0.0 -2.77371
-0.624022 -0.529684 -3.62562
-0.35099 0.296477 3.11701
0.00714273 0.0114645 -1.31576
-0.313271 0.160745 -5.33018
-0.00770591 -0.000265046 -0.0980619
-0.397072 2.9306 -1.5509
-0.211584 0.60245 -0.250985
0.00442141 -0.000621265 0.163763
0.000121052 -1.36714e-05 -0.00300653
1.00916 0.956042 0.00651668
5.39077e-08 -3.22974e-09 9.11901e-07
0.0 0.0 -2.77371
-10.564 2.02864 -25.9416
1.37418 -3.00286 2.79014
0.0900195 0.00811503 -2.50098
0.000421751 -5.15703e-05 -0.00490181
1.30536 1.15602 0.713605
0.000905529 0.000234163 -0.0409542
0.0 0.0 -2.77371
0.521572 -1.51274 0.426541
0.501933 -1.06375 -2.61723
9.04026 1.01921 14.6146
-6.39656 -2.38898 -9.72371
5.75768e-05 -2.16309e-06 0.00335899
0.0013533 0.000115503 -0.0508319
0.816607 1.11245 2.30564
0.000342665 -3.389e-05 -0.00165209
0.00374327 -0.000626787 0.0443395
0.0 0.0 -2.77371
1.21075 1.93919 1.79853
-0.116457 -0.0330865 -0.931987
-0.450466 -0.504948 -2.95693
0.0 0.0 -2.77371
1.15548 -0.257097 -3.68699
-0.819206 -0.145826 -2.3581
0.00105626 -1.67266e-05 0.0101289
0.288989 0.831033 -0.287146
1.40547 0.66414 0.335265
-0.000329187 -5.47554e-06 -0.00104351
0.00334535 0.013217 -2.74644
1.07504 1.30249 -3.02264
-0.388817 -0.513044 -2.07833
-0.00321826 -0.0012861 -0.000453774
-0.211278 0.122483 -1.6727
-1.11375 -1.71135 -1.12872
-14.7844 8.52722 -58.8697
-1.17311 0.00849063 2.63872
0.0 0.0 -2.77371
-0.000431941 -1.3369e-05 -0.0327682
-0.182495 0.480295 0.0446485
-2.55092 -3.25214 1.02977
0.0 0.0 -2.77371
0.454234 -1.07352 -0.723505
1.05928 1.59958 -3.46858
0.0416836 0.0118017 0.122464
0.450466 0.504948 -2.59049
0.0 0.0 -2.77371
5.48463 -2.66581 9.32906
46.7073 -5.67442 88.0365
2.39871 0.596213 2.51249
0.373954 -0.107631 -0.662559
0.631613 0.178178 -1.46118
-0.188572 1.04128 -0.657278
0.901283 0.786529 -2.1609
0.52504 0.859419 -1.04602
0.364546 -0.273018 -0.794494
0.793571 -0.0728633 1.0321
-12.1689 0.235161 -8.06286
14.4388 2.55519 2.10055
-0.0457577 -0.0086408 0.348546
0.0 0.0 -2.77371
9.22763 -12.7979 11.4698
57.1029 7.00599 114.897
3.16565 -1.54224 6.06437
-1.00994 -1.34464 2.29814
8.53684 1.04674 1.79289
-0.835046 -0.199284 -3.23533
-0.00117702 0.000767047 0.0731762
0.0 0.0 -2.77371
-1.28352 2.54862 -0.272113
1.01917 -5.85073 3.77487
1.15701 0.671226 -0.575826
-0.113752 0.153405 -0.992649
0.000734985 -1.38748e-05 -0.00119788
-0.61035 -0.788933 -2.32828
-1.46708 0.0247183 -15.4704
2.29837 1.1056 -6.51576
-4.62387 0.939888 13.3553
-3.78577 0.236981 -2.81841
0.0592028 1.16656 -2.01055
-0.000453996 -0.00188075 -0.0908422
-16.6725 0.43107 -58.2943
20.2518 -2.44303 53.2556
0.388583 0.365945 1.69206
0.338387 0.46863 -1.15914
0.000819688 2.35554e-05 0.0174691
-0.0502487 -0.0362246 -0.0331396
0.0233598 0.00624461 -0.445894
0.0 0.0 -2.77371
0.645062 -25.2431 16.0474
2.21956 3.45687 -5.68882
5.29227 -4.584 0.532573
0.0 0.0 -2.77371
2.91946 0.609069 3.23083
0.320462 -0.201766 -2.29638
0.0 0.0 -2.77371
0.120867 -0.138669 -2.68086
0.0 0.0 -2.77371
-0.000333372 -2.15106e-05 -0.0566184
0.0137924 0.00239947 0.628428
0.743492 -0.983019 -1.33607
0.136922 -0.211417 0.639476
-0.000829501 -0.0225614 -0.62655
-0.00331415 -0.923059 -1.05308
0.000701171 1.49934e-05 0.000537696
-0.000214803 2.05668e-05 -0.00119851
0.807558 -0.999093 0.310477
0.160039 -0.350089 -2.97043
8.87704 12.1256 10.2768
0.159954 1.14891 0.085386
-0.000235532 0.985934 -0.991595
0.321079 0.731472 -0.732226
-0.0344096 4.61733 3.46574
0.0 0.0 -2.77371
0.722491 0.506859 1.47951
0.440179 2.75452 0.232352
0.0 0.0 -2.77371
11.5071 -6.97743 20.2489
-2.82187 -2.48865 9.05765
0.0 0.0 -2.77371
6.14902 -6.03233 6.57205
0.0 0.0 -2.77371
-7.789 6.48968 4.70155
-0.262217 1.11652 -2.13373
0.163576 -0.188924 -3.44051
0.956492 -0.0976003 1.92802
0.553536 0.301677 -1.086
0.0 0.0 -2.77371
-0.0423265 -0.104266 -1.23411
0.0 0.0 -2.77371
4.08386 -1.95908 -1.43213
-6.84354 10.6422 -7.23722
0.0 0.0 -2.77371
0.814118 -0.135548 0.452175
0.0 0.0 -2.77371
0.0 0.0 -2.77371
-2.93906 2.86877 -13.0737
2.20005 0.189243 -1.50749
-4.17929 3.87715 0.126552
-0.272169 1.34977 1.57808
0.0 0.0 -2.77371
0.0 0.0 -2.77371
2.638 -1.36209 -0.364231
14.7844 -8.52722 53.3223
-1.43827 -1.44211 4.32641
-5.16913 -2.04103 -0.968487
0.0 0.0 -2.77371
-0.254044 -1.17274 -4.39057
0.0 0.0 -2.77371
-1.27981 4.64873 11.8521
-3.11222 6.56655 17.3591
-1.38142 -0.982745 0.142822
0.0053074 0.0764143 -2.15086
5.63547 1.12682 0.490631
-16.4103 -4.86787 7.94205
0.0 0.0 -2.77371
0.0 0.0 -2.77371
0.0 0.0 -2.77371
0.0 0.0 -2.77371
-0.0478571 2.20103 -1.74881
14.7335 -8.25352 11.2256
0.0 0.0 -2.77371
0.144265 0.312687 -2.95088
0.0 0.0 -2.77371
-2.57624 -4.38178 -4.34297
0.00096973 -0.96166 -1.01073
-0.0166296 -1.0868 -0.895
0.00256817 -0.686771 -0.713411
-0.000578402 -0.986262 -0.991498
0.0375627 0.667438 -0.773519
-0.0100274 0.881455 -0.739181
-14.4555 -68.2474 -8.79831
7.83013 61.14 6.90645
2.26008 5.03662 0.572665
4.39084 12.371 18.0812
0.0 0.0 -2.77371
0.0 0.0 -2.77371
1.5507 -7.19856 -2.82063
0.0 0.0 -2.77371
0.0 0.0 -2.77371
0.0 0.0 -2.77371
-3.69857 49.6439 -106.866
0.0 0.0 -2.77371
0.0 0.0 -2.77371
0.57367 0.529537 -1.77289
-3.83551 -2.20343 -4.7963
1.18799 19.58 -1.63255
0.0 0.0 -2.77371
0.0 0.0 -2.77371
0.0 0.0 -2.77371
-1.0841 -2.43543 -1.31924
0.0 0.0 -2.77371
3.7065 0.0553451 -0.684736
0.0 0.0 -2.77371
1.82907 -4.4061 -16.4977
0.0 0.0 -2.77371
0.0 0.0 -2.77371
0.371202 0.265101 -0.753685
0.0 0.0 -2.77371
0.0 0.0 -2.77371
0.0 0.0 -2.77371
0.0 0.0 -2.77371
-4.63162 3.73892 -4.34636
0.0 0.0 -2.77371
0.0 0.0 -2.77371
0.0 0.0 -2.77371
-0.116776 -0.0778397 -2.95341
-0.807558 0.999093 -5.8579
0.0 0.0 -2.77371
-3.11034 -11.4684 -9.76817
36.0767 10.411 -24.2598
0.0 0.0 -2.77371
0.0 0.0 -2.77371
-2.75209 2.64824 -5.1513
0.0 0.0 -2.77371
1.78358 -2.61168 8.43957
0.559818 2.76657 -2.60186
0.0 0.0 -2.77371
0.0 0.0 -2.77371
14.112 3.76227 -9.74743
0.0 0.0 -2.77371
0.0 0.0 -2.77371
0.0 0.0 -2.77371
10.4138 1.3184 26.208
5.34565 -6.35772 12.3229