# vtk DataFile Version 2.0
Generated by lpp.py
ASCII
DATASET POLYDATA
POINTS 352 float
0.0419603 0.168808 1.59501
0.424762 0.177832 1.58574
0.512913 0.176401 1.58639
0.721669 0.181601 1.58134
0.858772 0.180767 1.58219
0.919677 0.186098 1.57692
0.991676 0.177656 1.58483
1.05029 0.187241 1.57762
1.19072 0.187241 1.57685
1.26103 0.180677 1.58254
0.291007 0.204157 1.5778
0.367169 0.189517 1.57652
0.569583 0.195118 1.58243
1.10808 0.204083 1.57688
0.157648 0.252086 1.57532
0.430592 0.237076 1.5778
0.51846 0.235032 1.57604
0.609728 0.246203 1.57818
0.745778 0.24899 1.57678
0.837194 0.240963 1.58449
0.943442 0.2422 1.57689
1.00947 0.236529 1.57686
1.15249 0.254658 1.57689
1.23037 0.232058 1.57913
1.30492 0.234153 1.57686
0.276122 0.28169 1.58144
0.336892 0.290972 1.59721
0.688114 0.296131 1.57599
0.904093 0.291781 1.5768
1.20329 0.288109 1.57695
0.118004 0.336967 1.58231
0.213499 0.316351 1.57753
0.417136 0.326964 1.57697
0.48662 0.305573 1.57619
0.623162 0.307485 1.57686
0.743566 0.307646 1.58991
0.260591 0.369348 1.57684
0.314224 0.342516 1.57773
0.569651 0.339445 1.57718
0.70649 0.35286 1.57638
0.873265 0.352788 1.57686
0.166779 0.374408 1.57675
0.41689 0.386036 1.58917
0.536874 0.391806 1.57692
0.621146 0.39894 1.57673
0.688114 0.410005 1.57619
0.943724 0.380172 1.57686
1.00394 0.395642 1.57687
0.165712 0.439582 1.57417
0.262837 0.447863 1.58336
0.377993 0.428616 1.57635
0.827487 0.416309 1.57683
1.10554 0.419308 1.57688
0.442718 0.471213 1.57689
0.687452 0.473169 1.57712
0.76291 0.45906 1.57614
0.881075 0.446906 1.57686
0.950779 0.464484 1.58014
1.37375 0.460407 1.57686
0.107922 0.494825 1.57675
0.296162 0.518393 1.57761
0.346973 0.484603 1.58332
0.51073 0.495769 1.57739
0.618699 0.50385 1.57676
0.801439 0.512218 1.57593
1.12411 0.522274 1.57668
0.0601283 0.54932 1.57723
0.877041 0.522865 1.58225
1.25275 0.528332 1.57683
1.44925 0.528004 1.57686
0.201572 0.560403 1.57676
0.328303 0.565307 1.5938
0.42108 0.5669 1.58017
0.480727 0.563579 1.57795
0.594203 0.564787 1.57684
0.658873 0.568248 1.57786
0.832577 0.565411 1.57691
0.891694 0.584514 1.59535
0.962682 0.55769 1.57686
1.02156 0.578652 1.58667
1.17567 0.557841 1.5767
1.22824 0.581792 1.59206
1.2965 0.571699 1.58151
0.561554 0.144555 1.6188
0.642381 0.128805 1.63474
0.0833191 0.204969 1.62145
0.198596 0.219637 1.62244
0.441069 0.212847 1.63791
0.290013 0.240492 1.62945
0.352958 0.23458 1.61399
0.672186 0.250566 1.61085
0.892258 0.23202 1.60648
0.0976759 0.292914 1.62058
0.179393 0.277236 1.62337
0.394375 0.277786 1.60253
0.542409 0.284766 1.59696
0.79291 0.277228 1.60143
0.857028 0.288472 1.61812
0.226923 0.330626 1.63601
0.468534 0.367964 1.613
0.599876 0.345138 1.62904
0.210492 0.410595 1.59299
0.331447 0.391363 1.60972
0.556318 0.395405 1.63377
0.738373 0.395697 1.6017
1.13956 0.37495 1.59869
0.594024 0.443563 1.6071
0.757385 0.442207 1.63277
0.198722 0.473596 1.60805
0.303575 0.462839 1.62122
0.519997 0.456081 1.63595
0.821837 0.466107 1.61464
0.2649 0.50977 1.63007
0.398945 0.505484 1.60562
0.557834 0.507683 1.62162
0.712609 0.493173 1.62812
0.151757 0.537134 1.60833
0.764132 0.5503 1.60226
0.39515 0.601821 1.62683
0.559025 0.613201 1.62237
0.42578 0.0965927 1.66577
0.69499 0.104208 1.65874
0.419795 0.15839 1.64884
0.927864 0.132511 1.63922
0.908001 0.212092 1.66239
0.242387 0.265889 1.66604
0.382513 0.230222 1.66581
0.445371 0.274882 1.65286
0.756264 0.294687 1.64619
0.36258 0.313738 1.64331
0.27697 0.363107 1.6535
0.385274 0.376424 1.63825
0.137946 0.377181 1.64836
0.430419 0.404724 1.66774
0.939848 0.391946 1.64731
0.635026 0.415185 1.63919
0.151473 0.460329 1.65904
0.402637 0.460738 1.64505
0.357776 0.509158 1.65342
0.450026 0.504686 1.64425
0.944084 0.51043 1.64314
0.207917 0.530574 1.64261
0.63595 0.588361 1.63913
0.901554 0.554836 1.6511
0.748853 0.620513 1.63659
0.774297 0.211952 1.69763
0.372134 0.358197 1.6974
0.4377 0.343412 1.6695
0.491536 0.403798 1.67719
0.0922017 0.416408 1.65589
0.234767 0.449018 1.66368
0.318737 0.454385 1.6779
0.596271 0.465536 1.6819
0.507566 0.507173 1.67488
0.648488 0.536675 1.67088
0.485576 0.580311 1.68147
0.675746 0.629822 1.67923
0.777063 0.666427 1.6756
0.29951 0.265646 1.70159
0.26261 0.317421 1.70123
0.121236 0.342722 1.70223
0.234915 0.370731 1.69381
0.124302 0.506318 1.71242
0.388328 0.483895 1.69931
0.136955 0.241756 1.74685
0.478513 0.241448 1.73707
0.200031 0.295208 1.73962
0.43656 0.349215 1.73912
0.288982 0.398489 1.74422
0.41824 0.41741 1.74583
0.250123 0.467148 1.73009
0.352336 0.290052 1.75681
0.18594 0.400862 1.75988
0.485376 0.385518 1.78245
0.485548 0.450278 1.75985
0.302009 0.506095 1.75543
0.473517 0.305435 1.81238
0.106832 0.451129 1.7894
0.195772 0.344168 1.84091
0.323211 0.457255 1.83146
0.398493 0.508779 1.85432
0.180109 0.517525 1.82846
0.136852 0.289242 1.86464
0.211371 0.280829 1.89284
0.416409 0.288456 1.86742
0.269256 0.359202 1.87967
0.218921 0.397847 1.88017
0.349719 0.399621 1.8937
0.428381 0.4467 1.87237
0.245914 0.511668 1.89127
0.466202 0.49757 1.88603
0.260718 0.244031 1.92089
0.305852 0.287522 1.91337
0.499385 0.279499 1.92399
0.373442 0.329195 1.92678
0.102791 0.340368 1.92767
0.485374 0.358108 1.90566
0.422187 0.378047 1.9119
0.169637 0.459874 1.90769
0.103225 0.518985 1.91312
0.174537 0.231131 1.96936
0.346739 0.243699 1.96348
0.411604 0.238101 1.95537
0.108104 0.281799 1.96807
0.478405 0.411198 1.96589
0.370548 0.454286 1.96927
0.469838 0.243492 1.99423
0.157239 0.333515 1.97218
0.189941 0.428545 1.99622
0.267329 0.456169 1.99689
0.43276 0.446836 1.99574
0.209404 0.487055 1.9768
0.341446 0.508108 1.98961
0.429885 0.51089 2.00739
0.144959 0.253084 2.03965
0.283642 0.234209 2.01761
0.225054 0.287898 2.02599
0.353756 0.288308 2.04198
0.268169 0.352895 2.01763
0.478946 0.338932 2.01846
0.33513 0.393755 2.03736
0.121741 0.410905 2.01222
0.496878 0.474265 2.01883
0.122063 0.498448 2.01081
0.287754 0.512498 2.04042
0.222298 0.231508 2.05943
0.419349 0.297497 2.05155
0.107864 0.308056 2.0537
0.32031 0.335135 2.0667
0.216531 0.381594 2.05634
0.434422 0.399982 2.04934
0.177321 0.473873 2.0523
0.3755 0.471214 2.04858
0.230707 0.52291 2.07918
0.482317 0.228242 2.08854
0.100828 0.246005 2.10484
0.386528 0.235346 2.08474
0.17305 0.29572 2.08163
0.280967 0.269166 2.08746
0.470734 0.315695 2.09592
0.383297 0.361785 2.10306
0.142292 0.405308 2.09272
0.289149 0.393948 2.08364
0.495324 0.379459 2.10665
0.238696 0.425254 2.11413
0.10269 0.478868 2.09007
0.265427 0.473439 2.08144
0.338206 0.47604 2.10542
0.405771 0.451899 2.10402
0.487332 0.44601 2.08319
0.477819 0.52568 2.101
0.410316 0.229607 2.14717
0.227735 0.245208 2.13361
0.334084 0.267131 2.11623
0.479511 0.263195 2.1425
0.283481 0.328862 2.13466
0.383935 0.304407 2.12118
0.104364 0.371175 2.12875
0.189473 0.369831 2.12465
0.433942 0.344323 2.13524
0.124882 0.444445 2.13537
0.292698 0.428673 2.14157
0.367427 0.412219 2.13779
0.387806 0.497135 2.14601
0.10683 0.52412 2.15027
0.307197 0.231054 2.16934
0.112238 0.243444 2.17138
0.338106 0.302046 2.17158
0.144627 0.329159 2.17743
0.488965 0.329122 2.16107
0.388723 0.350133 2.18272
0.26384 0.382845 2.17039
0.336562 0.447813 2.1853
0.436973 0.45447 2.1586
0.498994 0.449521 2.15904
0.197767 0.505506 2.16969
0.498691 0.522189 2.16147
0.498503 0.253983 2.20572
0.196779 0.286134 2.18798
0.432796 0.302258 2.21979
0.322732 0.35929 2.20017
0.179678 0.383211 2.19608
0.404531 0.416433 2.19679
0.180002 0.445959 2.19427
0.230608 0.478968 2.21273
0.133145 0.50156 2.2051
0.316599 0.507618 2.18974
0.4192 0.521596 2.19807
0.299287 0.247375 2.22679
0.442411 0.236129 2.22895
0.126939 0.284236 2.23643
0.187834 0.32549 2.24014
0.256147 0.321804 2.25011
0.345572 0.308923 2.23327
0.476186 0.343657 2.22982
0.110703 0.374435 2.25211
0.499396 0.409304 2.22395
0.282511 0.427246 2.24226
0.180798 0.510604 2.24163
0.383426 0.485675 2.2355
0.196226 0.26238 2.25567
0.356376 0.254196 2.2577
0.321856 0.294278 2.28913
0.44222 0.295647 2.28067
0.346145 0.350757 2.28426
0.415762 0.389621 2.25827
0.475094 0.383761 2.27966
0.214879 0.429082 2.26971
0.107302 0.455042 2.25596
0.466199 0.451954 2.28462
0.236464 0.494005 2.28237
0.430217 0.500721 2.28499
0.49838 0.508374 2.26212
0.339305 0.526873 2.27754
0.103324 0.228818 2.31871
0.161403 0.258279 2.31827
0.271982 0.260644 2.2908
0.363615 0.240431 2.32399
0.425069 0.242959 2.32512
0.499192 0.246026 2.32267
0.125428 0.344451 2.30441
0.189012 0.364304 2.31306
0.415188 0.353574 2.30906
0.282424 0.374546 2.29858
0.115455 0.44409 2.3145
0.323589 0.424937 2.3071
0.40415 0.414672 2.32454
0.104255 0.515661 2.29241
0.370433 0.49856 2.32148
0.257372 0.298287 2.35437
0.31493 0.348737 2.34385
0.484684 0.362834 2.35124
0.125062 0.39201 2.35589
0.158807 0.499296 2.33065
0.264146 0.523422 2.32795
0.220666 0.238837 2.36734
0.393674 0.233628 2.38132
0.17717 0.298235 2.3792
0.314466 0.284399 2.37272
0.492483 0.279077 2.3744
0.417494 0.317622 2.37147
0.107591 0.339963 2.38367
0.217234 0.387064 2.36563
0.385775 0.387923 2.38657
0.449749 0.403068 2.37884
0.139724 0.459766 2.38164
0.263093 0.452487 2.37205
0.417911 0.469013 2.36692
0.486571 0.452792 2.37556
0.220758 0.508511 2.37861
0.312076 0.491969 2.3776
0.490194 0.521396 2.38111
VERTICES 352 704
1 0
1 1
1 2
1 3
1 4
1 5
1 6
1 7
1 8
1 9
1 10
1 11
1 12
1 13
1 14
1 15
1 16
1 17
1 18
1 19
1 20
1 21
1 22
1 23
1 24
1 25
1 26
1 27
1 28
1 29
1 30
1 31
1 32
1 33
1 34
1 35
1 36
1 37
1 38
1 39
1 40
1 41
1 42
1 43
1 44
1 45
1 46
1 47
1 48
1 49
1 50
1 51
1 52
1 53
1 54
1 55
1 56
1 57
1 58
1 59
1 60
1 61
1 62
1 63
1 64
1 65
1 66
1 67
1 68
1 69
1 70
1 71
1 72
1 73
1 74
1 75
1 76
1 77
1 78
1 79
1 80
1 81
1 82
1 83
1 84
1 85
1 86
1 87
1 88
1 89
1 90
1 91
1 92
1 93
1 94
1 95
1 96
1 97
1 98
1 99
1 100
1 101
1 102
1 103
1 104
1 105
1 106
1 107
1 108
1 109
1 110
1 111
1 112
1 113
1 114
1 115
1 116
1 117
1 118
1 119
1 120
1 121
1 122
1 123
1 124
1 125
1 126
1 127
1 128
1 129
1 130
1 131
1 132
1 133
1 134
1 135
1 136
1 137
1 138
1 139
1 140
1 141
1 142
1 143
1 144
1 145
1 146
1 147
1 148
1 149
1 150
1 151
1 152
1 153
1 154
1 155
1 156
1 157
1 158
1 159
1 160
1 161
1 162
1 163
1 164
1 165
1 166
1 167
1 168
1 169
1 170
1 171
1 172
1 173
1 174
1 175
1 176
1 177
1 178
1 179
1 180
1 181
1 182
1 183
1 184
1 185
1 186
1 187
1 188
1 189
1 190
1 191
1 192
1 193
1 194
1 195
1 196
1 197
1 198
1 199
1 200
1 201
1 202
1 203
1 204
1 205
1 206
1 207
1 208
1 209
1 210
1 211
1 212
1 213
1 214
1 215
1 216
1 217
1 218
1 219
1 220
1 221
1 222
1 223
1 224
1 225
1 226
1 227
1 228
1 229
1 230
1 231
1 232
1 233
1 234
1 235
1 236
1 237
1 238
1 239
1 240
1 241
1 242
1 243
1 244
1 245
1 246
1 247
1 248
1 249
1 250
1 251
1 252
1 253
1 254
1 255
1 256
1 257
1 258
1 259
1 260
1 261
1 262
1 263
1 264
1 265
1 266
1 267
1 268
1 269
1 270
1 271
1 272
1 273
1 274
1 275
1 276
1 277
1 278
1 279
1 280
1 281
1 282
1 283
1 284
1 285
1 286
1 287
1 288
1 289
1 290
1 291
1 292
1 293
1 294
1 295
1 296
1 297
1 298
1 299
1 300
1 301
1 302
1 303
1 304
1 305
1 306
1 307
1 308
1 309
1 310
1 311
1 312
1 313
1 314
1 315
1 316
1 317
1 318
1 319
1 320
1 321
1 322
1 323
1 324
1 325
1 326
1 327
1 328
1 329
1 330
1 331
1 332
1 333
1 334
1 335
1 336
1 337
1 338
1 339
1 340
1 341
1 342
1 343
1 344
1 345
1 346
1 347
1 348
1 349
1 350
1 351
POINT_DATA 352
VECTORS i float
0.0 0.0 0.0
0.0 0.0 0.0
0.0 0.0 0.0
0.0 0.0 0.0
0.0 0.0 0.0
0.0 0.0 0.0
0.0 0.0 0.0
0.0 0.0 0.0
0.0 0.0 0.0
0.0 0.0 0.0
0.0 0.0 0.0
0.0 0.0 0.0
0.0 0.0 0.0
0.0 0.0 0.0
0.0 0.0 0.0
0.0 0.0 0.0
0.0 0.0 0.0
0.0 0.0 0.0
0.0 0.0 0.0
0.0 0.0 0.0
0.0 0.0 0.0
0.0 0.0 0.0
0.0 0.0 0.0
0.0 0.0 0.0
0.0 0.0 0.0
0.0 0.0 0.0
0.0 0.0 0.0
0.0 0.0 0.0
0.0 0.0 0.0
0.0 0.0 0.0
0.0 0.0 0.0
0.0 0.0 0.0
0.0 0.0 0.0
0.0 0.0 0.0
0.0 0.0 0.0
0.0 0.0 0.0
0.0 0.0 0.0
0.0 0.0 0.0
0.0 0.0 0.0
0.0 0.0 0.0
0.0 0.0 0.0
0.0 0.0 0.0
0.0 0.0 0.0
0.0 0.0 0.0
0.0 0.0 0.0
0.0 0.0 0.0
0.0 0.0 0.0
0.0 0.0 0.0
0.0 0.0 0.0
0.0 0.0 0.0
0.0 0.0 0.0
0.0 0.0 0.0
0.0 0.0 0.0
0.0 0.0 0.0
0.0 0.0 0.0
0.0 0.0 0.0
0.0 0.0 0.0
0.0 0.0 0.0
0.0 0.0 0.0
0.0 0.0 0.0
0.0 0.0 0.0
0.0 0.0 0.0
0.0 0.0 0.0
0.0 0.0 0.0
0.0 0.0 0.0
0.0 0.0 0.0
0.0 0.0 0.0
0.0 0.0 0.0
0.0 0.0 0.0
0.0 0.0 0.0
0.0 0.0 0.0
0.0 0.0 0.0
0.0 0.0 0.0
0.0 0.0 0.0
0.0 0.0 0.0
0.0 0.0 0.0
0.0 0.0 0.0
0.0 0.0 0.0
0.0 0.0 0.0
0.0 0.0 0.0
0.0 0.0 0.0
0.0 0.0 0.0
0.0 0.0 0.0
0.0 0.0 0.0
0.0 0.0 0.0
0.0 0.0 0.0
0.0 0.0 0.0
0.0 0.0 0.0
0.0 0.0 0.0
0.0 0.0 0.0
0.0 0.0 0.0
0.0 0.0 0.0
0.0 0.0 0.0
0.0 0.0 0.0
0.0 0.0 0.0
0.0 0.0 0.0
0.0 0.0 0.0
0.0 0.0 0.0
0.0 0.0 0.0
0.0 0.0 0.0
0.0 0.0 0.0
0.0 0.0 0.0
0.0 0.0 0.0
0.0 0.0 0.0
0.0 0.0 0.0
0.0 0.0 0.0
0.0 0.0 0.0
0.0 0.0 0.0
0.0 0.0 0.0
0.0 0.0 0.0
0.0 0.0 0.0
0.0 0.0 0.0
0.0 0.0 0.0
0.0 0.0 0.0
0.0 0.0 0.0
0.0 0.0 0.0
0.0 0.0 0.0
0.0 0.0 0.0
0.0 0.0 0.0
0.0 0.0 0.0
0.0 0.0 0.0
0.0 0.0 0.0
0.0 0.0 0.0
0.0 0.0 0.0
0.0 0.0 0.0
0.0 0.0 0.0
0.0 0.0 0.0
0.0 0.0 0.0
0.0 0.0 0.0
0.0 0.0 0.0
0.0 0.0 0.0
0.0 0.0 0.0
0.0 0.0 0.0
0.0 0.0 0.0
0.0 0.0 0.0
0.0 0.0 0.0
0.0 0.0 0.0
0.0 0.0 0.0
0.0 0.0 0.0
0.0 0.0 0.0
0.0 0.0 0.0
0.0 0.0 0.0
0.0 0.0 0.0
0.0 0.0 0.0
0.0 0.0 0.0
0.0 0.0 0.0
0.0 0.0 0.0
0.0 0.0 0.0
0.0 0.0 0.0
0.0 0.0 0.0
0.0 0.0 0.0
0.0 0.0 0.0
0.0 0.0 0.0
0.0 0.0 0.0
0.0 0.0 0.0
0.0 0.0 0.0
0.0 0.0 0.0
0.0 0.0 0.0
0.0 0.0 0.0
0.0 0.0 0.0
0.0 0.0 0.0
0.0 0.0 0.0
0.0 0.0 0.0
0.0 0.0 0.0
0.0 0.0 0.0
0.0 0.0 0.0
0.0 0.0 0.0
0.0 0.0 0.0
0.0 0.0 0.0
0.0 0.0 0.0
0.0 0.0 0.0
0.0 0.0 0.0
0.0 0.0 0.0
0.0 0.0 0.0
0.0 0.0 0.0
0.0 0.0 0.0
0.0 0.0 0.0
0.0 0.0 0.0
0.0 0.0 0.0
0.0 0.0 0.0
0.0 0.0 0.0
0.0 0.0 0.0
0.0 0.0 0.0
0.0 0.0 0.0
0.0 0.0 0.0
0.0 0.0 0.0
0.0 0.0 0.0
0.0 0.0 0.0
0.0 0.0 0.0
0.0 0.0 0.0
0.0 0.0 0.0
0.0 0.0 0.0
0.0 0.0 0.0
0.0 0.0 0.0
0.0 0.0 0.0
0.0 0.0 0.0
0.0 0.0 0.0
0.0 0.0 0.0
0.0 0.0 0.0
0.0 0.0 0.0
0.0 0.0 0.0
0.0 0.0 0.0
0.0 0.0 0.0
0.0 0.0 0.0
0.0 0.0 0.0
0.0 0.0 0.0
0.0 0.0 0.0
0.0 0.0 0.0
0.0 0.0 0.0
0.0 0.0 0.0
0.0 0.0 0.0
0.0 0.0 0.0
0.0 0.0 0.0
0.0 0.0 0.0
0.0 0.0 0.0
0.0 0.0 0.0
0.0 0.0 0.0
0.0 0.0 0.0
0.0 0.0 0.0
0.0 0.0 0.0
0.0 0.0 0.0
0.0 0.0 0.0
0.0 0.0 0.0
0.0 0.0 0.0
0.0 0.0 0.0
0.0 0.0 0.0
0.0 0.0 0.0
0.0 0.0 0.0
0.0 0.0 0.0
0.0 0.0 0.0
0.0 0.0 0.0
0.0 0.0 0.0
0.0 0.0 0.0
0.0 0.0 0.0
0.0 0.0 0.0
0.0 0.0 0.0
0.0 0.0 0.0
0.0 0.0 0.0
0.0 0.0 0.0
0.0 0.0 0.0
0.0 0.0 0.0
0.0 0.0 0.0
0.0 0.0 0.0
0.0 0.0 0.0
0.0 0.0 0.0
0.0 0.0 0.0
0.0 0.0 0.0
0.0 0.0 0.0
0.0 0.0 0.0
0.0 0.0 0.0
0.0 0.0 0.0
0.0 0.0 0.0
0.0 0.0 0.0
0.0 0.0 0.0
0.0 0.0 0.0
0.0 0.0 0.0
0.0 0.0 0.0
0.0 0.0 0.0
0.0 0.0 0.0
0.0 0.0 0.0
0.0 0.0 0.0
0.0 0.0 0.0
0.0 0.0 0.0
0.0 0.0 0.0
0.0 0.0 0.0
0.0 0.0 0.0
0.0 0.0 0.0
0.0 0.0 0.0
0.0 0.0 0.0
0.0 0.0 0.0
0.0 0.0 0.0
0.0 0.0 0.0
0.0 0.0 0.0
0.0 0.0 0.0
0.0 0.0 0.0
0.0 0.0 0.0
0.0 0.0 0.0
0.0 0.0 0.0
0.0 0.0 0.0
0.0 0.0 0.0
0.0 0.0 0.0
0.0 0.0 0.0
0.0 0.0 0.0
0.0 0.0 0.0
0.0 0.0 0.0
0.0 0.0 0.0
0.0 0.0 0.0
0.0 0.0 0.0
0.0 0.0 0.0
0.0 0.0 0.0
0.0 0.0 0.0
0.0 0.0 0.0
0.0 0.0 0.0
0.0 0.0 0.0
0.0 0.0 0.0
0.0 0.0 0.0
0.0 0.0 0.0
0.0 0.0 0.0
0.0 0.0 0.0
0.0 0.0 0.0
0.0 0.0 0.0
0.0 0.0 0.0
0.0 0.0 0.0
0.0 0.0 0.0
0.0 0.0 0.0
0.0 0.0 0.0
0.0 0.0 0.0
0.0 0.0 0.0
0.0 0.0 0.0
0.0 0.0 0.0
0.0 0.0 0.0
0.0 0.0 0.0
0.0 0.0 0.0
0.0 0.0 0.0
0.0 0.0 0.0
0.0 0.0 0.0
0.0 0.0 0.0
0.0 0.0 0.0
0.0 0.0 0.0
0.0 0.0 0.0
0.0 0.0 0.0
0.0 0.0 0.0
0.0 0.0 0.0
0.0 0.0 0.0
0.0 0.0 0.0
0.0 0.0 0.0
0.0 0.0 0.0
0.0 0.0 0.0
0.0 0.0 0.0
0.0 0.0 0.0
0.0 0.0 0.0
0.0 0.0 0.0
0.0 0.0 0.0
0.0 0.0 0.0
0.0 0.0 0.0
0.0 0.0 0.0
0.0 0.0 0.0
0.0 0.0 0.0
0.0 0.0 0.0
0.0 0.0 0.0
0.0 0.0 0.0
0.0 0.0 0.0
0.0 0.0 0.0
0.0 0.0 0.0
0.0 0.0 0.0
0.0 0.0 0.0
0.0 0.0 0.0
0.0 0.0 0.0
0.0 0.0 0.0
0.0 0.0 0.0
0.0 0.0 0.0
0.0 0.0 0.0
VECTORS f float
0.0 0.0 -2.77371
-8.12322 2.40744 -0.154405
0.0905783 -3.38019 -5.41903
-0.000100322 0.995823 -0.982587
-0.0109876 0.81629 -1.15789
0.116407 0.656407 -0.253223
5.40461 5.24371 1.55002
-1.65129 0.35052 -2.0246
-0.361509 -0.489896 -0.282405
0.0456925 -0.398295 -2.6679
0.0 0.0 -2.77371
11.5555 -6.12205 -15.5081
-1.07212 -0.132184 -2.1968
-0.0437441 0.00889147 -0.768262
-0.80522 1.546 0.536408
-1.21047 0.637976 -1.39891
1.45998 -1.92711 6.28205
0.0 0.0 -2.77371
0.634831 1.04452 -0.329103
3.65578 -3.43742 -1.71046
-0.164229 -0.239123 -0.0699908
-0.0089931 -0.769846 -0.156822
0.0523578 0.0132147 -0.102828
0.962393 1.65027 -2.00199
-0.000942495 9.24949e-06 0.0415305
0.0 0.0 -2.77371
-25.024 -30.6885 -58.7921
-12.8933 0.975406 3.41216
0.00619224 -0.00105629 1.09007
1.40991 -1.4286 1.24064
0.0 0.0 -2.77371
0.0 0.0 -2.77371
0.38706 -2.2112 -2.43178
-9.72299 1.13984 -17.1472
-0.069492 0.0505647 0.325536
-2.62271 13.8157 5.79072
2.34306 -1.32289 -1.20069
-6.64726 6.1115 -8.05736
0.0 0.0 -2.77371
5.68601 2.93919 12.9168
0.000358778 2.49899e-05 0.0158761
-9.67213 -2.11179 -2.91609
4.01422 -6.0481 3.98732
-1.06285 -0.169474 -7.38595
0.163321 -0.70291 0.4626
-15.6828 2.58735 -10.061
-0.00831025 0.000864715 -0.108557
0.0129126 -0.000266685 0.0830689
-22.1274 4.45139 13.1488
-38.7531 -29.9176 -111.568
2.04609 -0.469548 11.2946
-0.0666889 -0.00156183 -0.17926
-0.0613506 0.0456453 -0.589058
1.54253 0.560497 0.508702
0.0 0.0 -2.77371
3.27767 6.69662 -1.62078
-0.00140292 4.61325e-05 -0.0018571
0.0 0.0 -2.77371
1.32826e-10 -1.29206e-11 1.54513e-09
4.75127 -0.414788 -12.3124
-22.5915 -12.04 -9.47861
0.0 0.0 -2.77371
0.0 0.0 -2.77371
-0.0801386 0.0110408 0.363687
0.541978 -1.74197 9.15639
0.311389 -0.0740297 8.75637
0.0 0.0 -2.77371
0.0 0.0 -2.77371
-0.212875 0.337712 0.683712
5.19139e-12 -1.26731e-13 -6.62084e-11
-1.52791 0.609371 -9.98937
22.5915 12.04 3.93119
4.39429 0.27082 -5.10559
-4.39429 -0.27082 -0.441838
0.0861024 0.00283003 1.35229
0.0 0.0 -2.77371
0.620402 0.105313 -0.651267
0.0 0.0 -2.77371
0.000793803 8.15517e-05 0.0715187
17.9361 -23.4481 25.3714
1.44542 0.551802 0.586299
0.215974 0.1024 -2.56262
0.0 0.0 -2.77371
0.0 0.0 -2.77371
0.0 0.0 -2.77371
0.0 0.0 -2.77371
0.0 0.0 -2.77371
5.93377 19.1622 -17.8292
0.0 0.0 -2.77371
2.63011 -1.2037 1.36534
-1.04938 -0.880162 -1.10126
-0.403694 0.276114 -3.81085
0.0 0.0 -2.77371
2.00668 3.51994 24.963
-3.52205 9.06387 -7.32546
7.35881 9.01489 11.4086
13.3536 -3.57891 -7.79287
0.0 0.0 -2.77371
0.0 0.0 -2.77371
-0.256545 0.0753916 -3.09237
0.0 0.0 -2.77371
87.9058 -30.3693 96.0833
0.0 0.0 -2.77371
0.0 0.0 -2.77371
21.5123 -24.4936 45.645
0.0 0.0 -2.77371
-0.949554 0.345611 -5.99534
11.418 15.5642 -3.334
16.7969 14.9154 39.4602
28.7367 27.9756 92.7564
0.0 0.0 -2.77371
0.0 0.0 -2.77371
0.0 0.0 -2.77371
-1.5022 -2.53885 1.26525
0.0 0.0 -2.77371
0.0 0.0 -2.77371
0.0 0.0 -2.77371
1.39039 -1.56163 -2.76818
0.0 0.0 -2.77371
0.00193774 -1.01051 -0.968012
1.01891 1.50297 -1.38562
-0.00635081 0.929774 -1.04603
-5.93377 -19.1622 12.2817
0.0 0.0 -2.77371
0.0 0.0 -2.77371
0.0 0.0 -2.77371
-2.63011 1.2037 -6.91277
0.0 0.0 -2.77371
15.2646 -3.94431 15.6914
34.8208 18.5974 61.0881
20.99 -14.2059 -61.1494
1.54855 -1.17409 -2.11223
0.0 0.0 -2.77371
0.0 0.0 -2.77371
0.0 0.0 -2.77371
0.949554 -0.345611 0.44792
0.0 0.0 -2.77371
1.5022 2.53885 -6.81267
0.0 0.0 -2.77371
0.0 0.0 -2.77371
0.0 0.0 -2.77371
0.0 0.0 -2.77371
0.0 0.0 -2.77371
0.0 0.0 -2.77371
0.0 0.0 -2.77371
0.0 0.0 -2.77371
0.0 0.0 -2.77371
0.0 0.0 -2.77371
0.0 0.0 -2.77371
0.0 0.0 -2.77371
0.0 0.0 -2.77371
10.0164 1.942 10.4907
0.0 0.0 -2.77371
0.0 0.0 -2.77371
0.0 0.0 -2.77371
0.0 0.0 -2.77371
0.0 0.0 -2.77371
0.366615 -0.741705 -0.750402
0.0 0.0 -2.77371
0.0 0.0 -2.77371
0.0 0.0 -2.77371
-20.99 14.2059 55.602
0.0 0.0 -2.77371
0.0 0.0 -2.77371
0.0 0.0 -2.77371
0.0 0.0 -2.77371
0.0 0.0 -2.77371
0.0 0.0 -2.77371
0.0 0.0 -2.77371
0.0 0.0 -2.77371
0.0 0.0 -2.77371
0.0 0.0 -2.77371
0.0 0.0 -2.77371
0.0 0.0 -2.77371
0.0 0.0 -2.77371
0.0 0.0 -2.77371
0.0 0.0 -2.77371
0.0 0.0 -2.77371
0.0 0.0 -2.77371
0.0 0.0 -2.77371
0.0 0.0 -2.77371
0.0 0.0 -2.77371
0.0 0.0 -2.77371
0.0 0.0 -2.77371
0.0 0.0 -2.77371
0.0 0.0 -2.77371
0.0 0.0 -2.77371
0.0 0.0 -2.77371
0.0 0.0 -2.77371
0.0 0.0 -2.77371
0.0 0.0 -2.77371
0.0 0.0 -2.77371
0.0 0.0 -2.77371
0.0 0.0 -2.77371
0.0 0.0 -2.77371
0.0 0.0 -2.77371
0.0 0.0 -2.77371
0.0 0.0 -2.77371
0.0 0.0 -2.77371
0.0 0.0 -2.77371
0.0 0.0 -2.77371
0.0 0.0 -2.77371
0.0 0.0 -2.77371
0.0 0.0 -2.77371
0.0 0.0 -2.77371
0.0 0.0 -2.77371
0.0 0.0 -2.77371
0.0 0.0 -2.77371
0.0 0.0 -2.77371
0.0 0.0 -2.77371
0.0 0.0 -2.77371
0.0 0.0 -2.77371
0.0 0.0 -2.77371
0.0 0.0 -2.77371
0.0 0.0 -2.77371
0.0 0.0 -2.77371
0.0 0.0 -2.77371
0.0 0.0 -2.77371
0.0 0.0 -2.77371
0.0 0.0 -2.77371
0.0 0.0 -2.77371
0.0 0.0 -2.77371
0.0 0.0 -2.77371
0.0 0.0 -2.77371
0.0 0.0 -2.77371
0.0 0.0 0.0
0.0 0.0 0.0
0.0 0.0 0.0
0.0 0.0 0.0
0.0 0.0 0.0
0.0 0.0 0.0
0.0 0.0 0.0
0.0 0.0 0.0
0.0 0.0 0.0
0.0 0.0 0.0
0.0 0.0 0.0
0.0 0.0 0.0
0.0 0.0 0.0
0.0 0.0 0.0
0.0 0.0 0.0
0.0 0.0 0.0
0.0 0.0 0.0
0.0 0.0 0.0
0.0 0.0 0.0
0.0 0.0 0.0
0.0 0.0 0.0
0.0 0.0 0.0
0.0 0.0 0.0
0.0 0.0 0.0
0.0 0.0 0.0
0.0 0.0 0.0
0.0 0.0 0.0
0.0 0.0 0.0
0.0 0.0 0.0
0.0 0.0 0.0
0.0 0.0 0.0
0.0 0.0 0.0
0.0 0.0 0.0
0.0 0.0 0.0
0.0 0.0 0.0
0.0 0.0 0.0
0.0 0.0 0.0
0.0 0.0 0.0
0.0 0.0 0.0
0.0 0.0 0.0
0.0 0.0 0.0
0.0 0.0 0.0
0.0 0.0 0.0
0.0 0.0 0.0
0.0 0.0 0.0
0.0 0.0 0.0
0.0 0.0 0.0
0.0 0.0 0.0
0.0 0.0 0.0
0.0 0.0 0.0
0.0 0.0 0.0
0.0 0.0 0.0
0.0 0.0 0.0
0.0 0.0 0.0
0.0 0.0 0.0
0.0 0.0 0.0
0.0 0.0 0.0
0.0 0.0 0.0
0.0 0.0 0.0
0.0 0.0 0.0
0.0 0.0 0.0
0.0 0.0 0.0
0.0 0.0 0.0
0.0 0.0 0.0
0.0 0.0 0.0
0.0 0.0 0.0
0.0 0.0 0.0
0.0 0.0 0.0
0.0 0.0 0.0
0.0 0.0 0.0
0.0 0.0 0.0
0.0 0.0 0.0
0.0 0.0 0.0
0.0 0.0 0.0
0.0 0.0 0.0
0.0 0.0 0.0
0.0 0.0 0.0
0.0 0.0 0.0
0.0 0.0 0.0
0.0 0.0 0.0
0.0 0.0 0.0
0.0 0.0 0.0
0.0 0.0 0.0
0.0 0.0 0.0
0.0 0.0 0.0
0.0 0.0 0.0
0.0 0.0 0.0
0.0 0.0 0.0
0.0 0.0 0.0
0.0 0.0 0.0
0.0 0.0 0.0
0.0 0.0 0.0
0.0 0.0 0.0
0.0 0.0 0.0
0.0 0.0 0.0
0.0 0.0 0.0
0.0 0.0 0.0
0.0 0.0 0.0
0.0 0.0 0.0
0.0 0.0 0.0
0.0 0.0 0.0
0.0 0.0 0.0
0.0 0.0 0.0
0.0 0.0 0.0
0.0 0.0 0.0
0.0 0.0 0.0
0.0 0.0 0.0
0.0 0.0 0.0
0.0 0.0 0.0
0.0 0.0 0.0
0.0 0.0 0.0
0.0 0.0 0.0
0.0 0.0 0.0
0.0 0.0 0.0
0.0 0.0 0.0
0.0 0.0 0.0
0.0 0.0 0.0
0.0 0.0 0.0
0.0 0.0 0.0
0.0 0.0 0.0
0.0 0.0 0.0
0.0 0.0 0.0
0.0 0.0 0.0
0.0 0.0 0.0
0.0 0.0 0.0
0.0 0.0 0.0
0.0 0.0 0.0
VECTORS omega float
7.04825 -123.856 48.9089
8.09535 -26.7039 33.7614
0.825574 -80.6894 31.7812
-10.9801 -75.8443 26.537
-2.90864 -70.0008 6.97287
0.450535 -52.9206 15.7193
-9.70099 23.2239 16.2347
-4.02775 -46.8298 10.6529
2.92855 -57.1179 -2.59759
8.31135 -54.8339 8.46115
17.5977 -69.7901 -39.9837
38.0045 -64.5659 17.3349
-44.2135 -30.0664 7.3128
-14.0258 -68.869 15.1211
8.79457 -100.771 5.67979
-7.23493 -77.0311 -25.5992
-21.8186 -60.5949 -10.6301
6.98563 -49.8255 -7.27195
-4.38924 -48.3978 0.695015
-12.3003 13.1989 -7.61667
0.196736 -50.9168 2.09896
-10.7482 -53.4049 -3.59968
-9.46623 -50.6979 -22.7994
32.9777 -34.1509 0.311861
-0.448614 -48.7706 4.2775
8.36493 -95.9152 12.8455
3.80498 23.4594 -14.5461
4.81828 -54.0101 0.544819
-10.5753 -47.4383 5.26014
7.04255 -33.8702 -11.5392
16.529 -105.219 4.33345
9.70639 -93.8744 -2.46785
-0.0191359 -88.0663 -7.01878
14.9502 -79.9612 -8.19585
4.80263 -66.2867 3.15132
-0.768801 51.0412 12.2271
6.58541 -84.2624 -9.50644
10.0387 -90.907 28.2652
3.47412 -68.9822 -4.33327
-6.78573 -58.2055 -3.12885
3.93837 -56.5423 -7.19384
-6.15449 -91.7788 4.30516
-20.0317 39.1508 -12.1796
9.68003 -60.8187 -13.4805
5.5438 -63.1522 1.80103
-0.588129 -52.1512 -8.76968
-6.25562 -71.1677 14.8012
-0.532006 -66.881 -2.3098
-6.39877 -104.524 -9.12102
-15.9233 -72.7102 9.17654
-2.59332 -69.3514 -13.6761
0.283772 -60.3234 -7.09483
-4.75286 -63.3227 2.64099
-14.4566 -67.5168 3.87984
-1.36294 -56.9263 14.5569
-7.84296 -41.278 -2.30256
-1.98705 -62.8884 -10.1731
3.70049 -61.5834 -12.6879
-4.91954 -50.7279 2.52464
29.1625 30.9628 -1.7532
-19.788 -69.0432 12.1849
4.7835 -64.8828 -16.1598
6.86622 -49.7447 -5.06442
-5.07421 -48.8699 10.9756
7.42038 -56.416 -3.78216
-26.7246 -59.6507 -14.5382
-5.63634 -125.089 -5.60855
14.7696 -45.1591 15.8433
2.91128 -33.3583 3.61123
-1.81727 -43.4917 1.90422
-7.16061 -91.8968 16.9676
-38.2445 15.0721 -3.52171
4.25571 -46.2131 -22.086
-10.1625 -66.8325 15.3951
-0.301214 -61.4444 -37.7919
-2.96794 -84.3396 -7.02656
5.26093 -52.4485 -32.408
2.72379 -58.4917 -15.0637
5.52587 -54.2963 -16.0757
4.18644 -31.562 -24.1326
-1.11045 -18.1519 22.3783
-5.09598 -16.892 -22.8031
-9.88132 -48.7662 -6.78753
7.93086 -66.0108 43.3465
24.9006 32.1796 12.5736
-14.0046 101.355 -34.2314
-7.59202 20.7758 -10.3433
-5.51494 44.1288 -15.6924
-32.857 10.5608 17.6398
-43.5714 -4.3168 -13.0101
-4.39028 48.4904 -25.4753
-10.204 1.7806 -4.94075
-29.4146 19.6721 -8.67116
6.88075 44.8948 -0.958941
-3.05817 -7.16567 17.2026
-28.7951 6.17555 1.41011
-19.2278 25.5322 3.44345
7.41061 26.6965 15.3504
-4.59817 52.7918 8.14619
-3.01779 9.23522 -18.1919
-9.4086 55.4798 0.191282
7.19646 62.025 4.60653
-41.5805 68.0811 -20.1277
-24.8551 33.0087 5.96927
2.54286 38.2808 15.7464
-22.106 2.68644 -1.68449
12.0828 4.77912 -18.0412
20.7495 -14.7941 -1.70115
-20.8718 50.701 -23.9967
7.56836 15.0144 -4.72759
-23.8258 16.225 -6.43656
6.59776 40.3572 8.54795
31.2663 0.371614 -3.49253
10.2322 27.8066 -10.1251
1.88068 16.9789 -9.05858
-18.169 36.0834 -15.5665
-16.4545 18.6207 -15.2694
2.42452 34.641 17.5768
5.44993 -92.328 -42.8997
-1.60751 -50.3639 -35.7193
11.0351 4.9779 46.2071
1.49492 -66.9903 49.0345
4.01702 30.9198 -7.92887
-0.853713 -36.5678 49.9132
-21.0137 6.25401 -20.7872
-14.7048 -31.4095 7.0704
18.306 24.7772 -5.10803
-27.3511 -28.3263 12.6642
-12.4582 16.8398 -20.941
-48.4103 -47.914 -8.77263
-16.8874 -9.01243 13.1735
28.0612 -39.3638 -15.0339
-22.9657 20.6312 5.77362
-12.2717 12.4578 5.2763
2.53187 -39.5822 20.3081
-16.5014 -2.05402 14.9247
-0.145573 37.8091 -8.82911
11.6601 25.6251 -1.01945
3.9753 -25.9495 6.50921
-3.97091 1.94761 19.282
-15.4417 15.77 -8.13618
-17.6396 -37.5555 -9.32641
8.66944 49.3527 5.67854
1.33514 12.3449 23.5567
-7.10119 -21.165 -49.705
24.8783 -51.7265 -20.343
-7.27038 -7.80539 0.0608913
-12.4208 -35.5448 9.14855
-21.7306 -12.4506 -3.74034
7.86519 -69.4984 0.327914
10.635 -0.794133 -4.37353
-9.4532 17.9057 2.93937
-5.36574 -8.25033 -13.9941
11.2591 37.3033 -19.2276
1.05143 -53.7939 12.0513
10.2313 73.4476 -9.29811
-3.52416 -28.5782 12.2256
0.763026 -33.5835 -59.0995
0.0 0.0 0.0
0.0 0.0 0.0
0.0 0.0 0.0
1.37642 -16.5407 4.51751
0.0 0.0 0.0
17.511 32.6333 4.79371
0.0 0.0 0.0
0.0 0.0 0.0
0.0 0.0 0.0
0.0 0.0 0.0
0.0 0.0 0.0
0.0 0.0 0.0
0.0 0.0 0.0
0.0 0.0 0.0
0.0 0.0 0.0
0.0 0.0 0.0
0.0 0.0 0.0
0.0 0.0 0.0
0.0 0.0 0.0
0.0 0.0 0.0
0.0 0.0 0.0
0.0 0.0 0.0
0.0 0.0 0.0
0.0 0.0 0.0
0.0 0.0 0.0
0.0 0.0 0.0
0.0 0.0 0.0
0.0 0.0 0.0
0.0 0.0 0.0
0.0 0.0 0.0
0.0 0.0 0.0
0.0 0.0 0.0
0.0 0.0 0.0
0.0 0.0 0.0
0.0 0.0 0.0
0.0 0.0 0.0
0.0 0.0 0.0
0.0 0.0 0.0
0.0 0.0 0.0
0.0 0.0 0.0
0.0 0.0 0.0
0.0 0.0 0.0
0.0 0.0 0.0
0.0 0.0 0.0
0.0 0.0 0.0
0.0 0.0 0.0
0.0 0.0 0.0
0.0 0.0 0.0
0.0 0.0 0.0
0.0 0.0 0.0
0.0 0.0 0.0
0.0 0.0 0.0
0.0 0.0 0.0
0.0 0.0 0.0
0.0 0.0 0.0
0.0 0.0 0.0
0.0 0.0 0.0
0.0 0.0 0.0
0.0 0.0 0.0
0.0 0.0 0.0
0.0 0.0 0.0
0.0 0.0 0.0
0.0 0.0 0.0
0.0 0.0 0.0
0.0 0.0 0.0
0.0 0.0 0.0
0.0 0.0 0.0
0.0 0.0 0.0
0.0 0.0 0.0
0.0 0.0 0.0
0.0 0.0 0.0
0.0 0.0 0.0
0.0 0.0 0.0
0.0 0.0 0.0
0.0 0.0 0.0
0.0 0.0 0.0
0.0 0.0 0.0
0.0 0.0 0.0
0.0 0.0 0.0
0.0 0.0 0.0
0.0 0.0 0.0
0.0 0.0 0.0
0.0 0.0 0.0
0.0 0.0 0.0
0.0 0.0 0.0
0.0 0.0 0.0
0.0 0.0 0.0
0.0 0.0 0.0
0.0 0.0 0.0
0.0 0.0 0.0
0.0 0.0 0.0
0.0 0.0 0.0
0.0 0.0 0.0
0.0 0.0 0.0
0.0 0.0 0.0
0.0 0.0 0.0
0.0 0.0 0.0
0.0 0.0 0.0
0.0 0.0 0.0
0.0 0.0 0.0
0.0 0.0 0.0
0.0 0.0 0.0
0.0 0.0 0.0
0.0 0.0 0.0
0.0 0.0 0.0
0.0 0.0 0.0
0.0 0.0 0.0
0.0 0.0 0.0
0.0 0.0 0.0
0.0 0.0 0.0
0.0 0.0 0.0
0.0 0.0 0.0
0.0 0.0 0.0
0.0 0.0 0.0
0.0 0.0 0.0
0.0 0.0 0.0
0.0 0.0 0.0
0.0 0.0 0.0
0.0 0.0 0.0
0.0 0.0 0.0
0.0 0.0 0.0
0.0 0.0 0.0
0.0 0.0 0.0
0.0 0.0 0.0
0.0 0.0 0.0
0.0 0.0 0.0
0.0 0.0 0.0
0.0 0.0 0.0
0.0 0.0 0.0
0.0 0.0 0.0
0.0 0.0 0.0
0.0 0.0 0.0
0.0 0.0 0.0
0.0 0.0 0.0
0.0 0.0 0.0
0.0 0.0 0.0
0.0 0.0 0.0
0.0 0.0 0.0
0.0 0.0 0.0
0.0 0.0 0.0
0.0 0.0 0.0
0.0 0.0 0.0
0.0 0.0 0.0
0.0 0.0 0.0
0.0 0.0 0.0
0.0 0.0 0.0
0.0 0.0 0.0
0.0 0.0 0.0
0.0 0.0 0.0
0.0 0.0 0.0
0.0 0.0 0.0
0.0 0.0 0.0
0.0 0.0 0.0
0.0 0.0 0.0
0.0 0.0 0.0
0.0 0.0 0.0
0.0 0.0 0.0
0.0 0.0 0.0
0.0 0.0 0.0
0.0 0.0 0.0
0.0 0.0 0.0
0.0 0.0 0.0
0.0 0.0 0.0
0.0 0.0 0.0
0.0 0.0 0.0
0.0 0.0 0.0
0.0 0.0 0.0
0.0 0.0 0.0
0.0 0.0 0.0
0.0 0.0 0.0
0.0 0.0 0.0
0.0 0.0 0.0
0.0 0.0 0.0
0.0 0.0 0.0
0.0 0.0 0.0
0.0 0.0 0.0
0.0 0.0 0.0
0.0 0.0 0.0
0.0 0.0 0.0
0.0 0.0 0.0
0.0 0.0 0.0
0.0 0.0 0.0
0.0 0.0 0.0
0.0 0.0 0.0
0.0 0.0 0.0
0.0 0.0 0.0
0.0 0.0 0.0
0.0 0.0 0.0
0.0 0.0 0.0
0.0 0.0 0.0
0.0 0.0 0.0
0.0 0.0 0.0
0.0 0.0 0.0
0.0 0.0 0.0
VECTORS v float
0.38023 0.0194914 0.277991
2.48107 -0.277492 0.498617
1.6391 0.117489 0.12795
1.83524 0.232173 -0.232128
2.37203 0.0642566 -0.0612519
2.41871 -0.0118027 0.00706801
2.54029 0.106059 -0.0800841
2.64033 0.240207 -0.0250323
2.28361 -0.0994475 -0.00738312
2.66147 -0.157262 0.175864
1.86976 -0.517655 0.0127801
1.92438 -0.94705 0.361331
1.80055 -0.165514 -0.345085
1.94143 0.419246 0.00891958
1.13398 -0.225306 0.320058
1.85284 -0.0800016 0.062478
1.73185 0.173054 0.0294767
2.51351 -0.208384 0.221519
2.37748 -0.16315 0.0374544
1.80883 0.0401825 -0.49259
2.47263 -0.00704977 0.00314285
2.40484 0.308735 0.00381587
2.48264 0.282224 -0.00987906
2.44933 -0.303451 -0.0407199
2.54299 0.0134023 0.000342426
1.14457 -0.248439 0.302421
0.224907 -0.213726 -0.450498
2.20506 -0.250749 -0.0518119
2.58498 0.315444 0.000488276
2.77837 -0.000578157 -0.0627033
0.904696 0.248752 0.096737
1.21189 -0.284784 0.360623
1.36149 -0.0130472 0.0555052
1.74681 -0.453102 0.546425
2.02026 -0.143901 -0.00748317
2.16741 0.0781017 0.0043996
0.972386 0.106553 0.0164738
1.16722 0.263611 0.143758
1.94076 -0.103127 0.0846693
2.01356 -0.0656278 -0.128892
2.31068 -0.117667 -8.19364e-05
0.852353 -0.363991 -0.171328
1.28359 0.0120809 -0.518714
2.19454 -0.287063 0.152574
2.11282 -0.147394 0.0404317
2.10291 0.0879243 -0.290323
1.8736 0.186903 0.00178266
2.00155 0.0159005 -0.0030488
0.72511 0.37196 -0.332922
0.81019 0.173314 -0.168857
1.52659 0.511916 -0.0997751
2.19969 -0.0086058 0.0172312
2.10812 0.141103 0.00676618
1.59441 0.291519 -0.0221912
2.30749 0.0457374 0.182826
2.77268 0.203687 0.385859
2.12109 0.0593667 0.000344692
2.17656 -0.0894389 -0.169547
2.48437 0.146984 -3.49763e-11
1.03359 -0.529844 0.288601
1.82682 0.497392 0.270097
2.2162 0.257815 0.00700242
1.74066 0.353878 -0.172237
2.54399 0.151166 0.0300577
2.24503 -0.10519 0.258746