# vtk DataFile Version 2.0
Generated by lpp.py
ASCII
DATASET POLYDATA
POINTS 353 float
0.311928 0.183105 1.57992
0.383329 0.187101 1.57701
0.593205 0.173987 1.58916
0.693819 0.182928 1.57983
0.753952 0.188387 1.57683
0.809428 0.165972 1.59811
0.892083 0.18874 1.57691
0.97038 0.176321 1.58662
1.03092 0.193953 1.57675
1.09173 0.184311 1.5789
0.458367 0.212413 1.58486
0.110784 0.261268 1.58079
0.185853 0.233482 1.57695
0.309967 0.243151 1.57817
0.402779 0.252938 1.57693
0.58708 0.255132 1.57656
0.644796 0.262295 1.59061
0.780469 0.241879 1.57674
0.854173 0.234665 1.5792
0.975857 0.239991 1.57688
1.06204 0.245091 1.57711
1.12711 0.233286 1.57778
0.733141 0.27817 1.57658
0.143627 0.313239 1.57572
0.491385 0.31231 1.57686
1.01241 0.303822 1.57932
0.114375 0.36892 1.58353
0.234998 0.341537 1.57964
0.331824 0.349577 1.5762
0.426273 0.345319 1.5777
0.58005 0.358959 1.57773
0.711527 0.361025 1.57699
0.811818 0.366441 1.57686
0.179077 0.373556 1.57699
0.259184 0.40277 1.57725
0.39318 0.395874 1.57833
0.538746 0.401335 1.57681
0.868147 0.396629 1.57686
0.958838 0.410046 1.57735
0.102238 0.442845 1.57467
0.477177 0.411133 1.57684
0.579661 0.446482 1.57645
0.672702 0.417497 1.57687
0.733839 0.442372 1.57685
0.244861 0.461023 1.5769
0.333042 0.454394 1.57736
0.524609 0.468658 1.57576
0.798859 0.470105 1.57686
0.979875 0.469256 1.58942
1.19984 0.450118 1.57686
0.185363 0.500554 1.58083
0.402192 0.481257 1.58219
0.662668 0.509875 1.57926
1.05202 0.511905 1.57686
0.039096 0.536974 1.58373
0.137573 0.543029 1.57613
0.374634 0.534533 1.57402
0.730648 0.523104 1.57684
1.10422 0.544672 1.57685
1.26021 0.524203 1.57686
0.294775 0.559413 1.5753
0.443532 0.554899 1.57745
0.521727 0.557518 1.57968
0.662208 0.569846 1.57904
0.716974 0.586715 1.59641
0.795921 0.569391 1.57793
0.852123 0.564539 1.59734
0.959101 0.561922 1.57903
1.02274 0.576997 1.58617
0.441561 0.158334 1.60412
0.496377 0.171893 1.62215
0.0530891 0.207684 1.59192
0.133826 0.226354 1.62241
0.243055 0.227285 1.59536
0.382216 0.207923 1.63462
0.418233 0.256722 1.63406
0.698042 0.237708 1.60322
0.231737 0.291503 1.6188
0.299464 0.299414 1.61967
0.548822 0.300554 1.60403
0.365568 0.320785 1.61321
0.620968 0.317133 1.60764
0.279823 0.360513 1.61509
0.505196 0.349514 1.62555
0.986983 0.373746 1.61524
0.418133 0.376139 1.62735
0.548309 0.408758 1.63735
0.436719 0.433624 1.62716
0.116987 0.45092 1.63006
0.369636 0.451715 1.62389
0.496616 0.457483 1.62655
0.603295 0.463084 1.63447
0.698093 0.468984 1.61656
0.290141 0.507642 1.60287
0.462199 0.493847 1.58829
0.839055 0.50655 1.61686
0.0976552 0.516204 1.62323
0.405846 0.536221 1.62125
0.553759 0.558204 1.6294
0.407655 0.601456 1.61124
0.571994 0.615173 1.62698
0.586692 0.114425 1.64783
0.774757 0.120845 1.6421
0.359184 0.125455 1.65641
0.820802 0.174271 1.65923
0.206156 0.243909 1.64414
0.332737 0.250788 1.64873
0.502598 0.265882 1.62969
0.566565 0.248892 1.63745
0.771087 0.242432 1.6355
0.265717 0.262767 1.66983
0.640051 0.281596 1.65281
0.712956 0.283412 1.64401
0.433216 0.320614 1.65125
0.636295 0.373668 1.63666
0.168554 0.376772 1.63139
0.358209 0.396051 1.64243
0.47537 0.39316 1.66138
0.19707 0.484861 1.64413
0.270279 0.497163 1.65911
0.452387 0.513867 1.64604
0.340561 0.526347 1.62926
0.640655 0.569984 1.65401
0.79198 0.556742 1.63908
0.330615 0.610474 1.63701
0.319325 0.358987 1.67457
0.380101 0.343863 1.66319
0.789858 0.388786 1.69733
0.259848 0.434443 1.65957
0.316275 0.424983 1.67888
0.519184 0.432046 1.6996
0.677527 0.445373 1.68348
0.553628 0.526112 1.68031
0.588097 0.576273 1.6941
0.646543 0.673942 1.68303
0.650397 0.232156 1.7102
0.47999 0.300848 1.69736
0.103577 0.34242 1.7104
0.230407 0.340128 1.70454
0.441781 0.458388 1.71407
0.131272 0.513706 1.70679
0.539129 0.755826 1.73412
0.254698 0.262308 1.74987
0.417913 0.266516 1.72746
0.121033 0.279919 1.74887
0.287678 0.358468 1.74717
0.227036 0.399722 1.74106
0.380254 0.404128 1.72033
0.448915 0.39365 1.73943
0.187546 0.294736 1.76603
0.35506 0.52072 1.76186
0.365118 0.235733 1.80757
0.378219 0.307765 1.79124
0.360498 0.363939 1.82254
0.10427 0.421706 1.81773
0.200976 0.455034 1.80581
0.208645 0.523817 1.79393
0.317689 0.454971 1.83386
0.491668 0.49724 1.82981
0.29951 0.265646 1.87279
0.26261 0.317421 1.87252
0.121236 0.342722 1.87327
0.234882 0.370686 1.8668
0.250123 0.467148 1.89415
0.124302 0.506318 1.88094
0.387139 0.48601 1.86383
0.136955 0.241756 1.90657
0.478513 0.241448 1.89933
0.200031 0.295208 1.90123
0.352336 0.290052 1.91391
0.43656 0.349215 1.90085
0.18594 0.400862 1.91616
0.288982 0.398489 1.90463
0.485376 0.385518 1.93261
0.41824 0.41741 1.90582
0.485548 0.450278 1.91614
0.302009 0.506095 1.91289
0.473517 0.305435 1.95407
0.106832 0.451129 1.93763
0.323211 0.457255 1.96753
0.180109 0.517525 1.96542
0.136852 0.289242 1.99041
0.416409 0.288456 1.9923
0.195772 0.344168 1.97411
0.269256 0.359202 2.00054
0.218921 0.397847 2.00088
0.428381 0.4467 1.99564
0.245914 0.511668 2.00824
0.398493 0.508779 1.98337
0.466202 0.49757 2.00477
0.260718 0.244031 2.02738
0.211371 0.280829 2.00927
0.305852 0.287522 2.02259
0.499385 0.279499 2.02933
0.373442 0.329195 2.03107
0.102791 0.340368 2.03163
0.485374 0.358108 2.01764
0.349719 0.399621 2.00984
0.422187 0.378047 2.02165
0.169637 0.459874 2.01895
0.103225 0.518985 2.02243
0.174537 0.231131 2.05705
0.346739 0.243699 2.05339
0.411604 0.238101 2.04847
0.469838 0.243492 2.07354
0.108104 0.281799 2.05625
0.157239 0.333515 2.05883
0.189941 0.428545 2.07494
0.478405 0.411198 2.05488
0.267329 0.456169 2.07542
0.370548 0.454286 2.05699
0.43276 0.446836 2.0746
0.209404 0.487055 2.0618
0.341446 0.508108 2.07034
0.144959 0.253084 2.1099
0.283642 0.234209 2.09096
0.225054 0.287898 2.09782
0.353756 0.288308 2.1121
0.268169 0.352895 2.09098
0.478946 0.338932 2.09164
0.33513 0.393755 2.10779
0.121741 0.410905 2.08674
0.496878 0.474265 2.09193
0.122063 0.498448 2.08566
0.287754 0.512498 2.11063
0.429885 0.51089 2.08308
0.222298 0.231508 2.12943
0.419349 0.297497 2.12155
0.107864 0.308056 2.1237
0.32031 0.335135 2.1367
0.216531 0.381594 2.12634
0.434422 0.399982 2.11934
0.177321 0.473873 2.1223
0.3755 0.471214 2.11858
0.230707 0.52291 2.14918
0.482317 0.228242 2.15854
0.100828 0.246005 2.17484
0.334084 0.267131 2.18623
0.386528 0.235346 2.15474
0.17305 0.29572 2.15163
0.280967 0.269166 2.15746
0.470734 0.315695 2.16592
0.383297 0.361785 2.17306
0.142292 0.405308 2.16272
0.289149 0.393948 2.15364
0.495324 0.379459 2.17665
0.238696 0.425254 2.18413
0.10269 0.478868 2.16007
0.265427 0.473439 2.15144
0.338206 0.47604 2.17542
0.405771 0.451899 2.17402
0.487332 0.44601 2.15319
0.477819 0.52568 2.171
0.410316 0.229607 2.21717
0.227735 0.245208 2.20361
0.479511 0.263195 2.2125
0.283481 0.328862 2.20466
0.383935 0.304407 2.19118
0.104364 0.371175 2.19875
0.189473 0.369831 2.19465
0.433942 0.344323 2.20524
0.124882 0.444445 2.20537
0.292698 0.428673 2.21157
0.367427 0.412219 2.20779
0.387806 0.497135 2.21601
0.10683 0.52412 2.22027
0.307197 0.231054 2.23934
0.112238 0.243444 2.24138
0.338106 0.302046 2.24158
0.144627 0.329159 2.24743
0.488965 0.329122 2.23107
0.388723 0.350133 2.25272
0.26384 0.382845 2.24039
0.336562 0.447813 2.2553
0.436973 0.45447 2.2286
0.498994 0.449521 2.22904
0.197767 0.505506 2.23969
0.498691 0.522189 2.23147
0.498503 0.253983 2.27572
0.196779 0.286134 2.25798
0.432796 0.302258 2.28979
0.322732 0.35929 2.27017
0.179678 0.383211 2.26608
0.404531 0.416433 2.26679
0.180002 0.445959 2.26427
0.230608 0.478968 2.28273
0.133145 0.50156 2.2751
0.316599 0.507618 2.25974
0.4192 0.521596 2.26807
0.196226 0.26238 2.32567
0.299287 0.247375 2.29679
0.442411 0.236129 2.29895
0.126939 0.284236 2.30643
0.187834 0.32549 2.31014
0.256147 0.321804 2.32011
0.345572 0.308923 2.30327
0.476186 0.343657 2.29982
0.110703 0.374435 2.32211
0.499396 0.409304 2.29395
0.282511 0.427246 2.31226
0.107302 0.455042 2.32596
0.180798 0.510604 2.31163
0.383426 0.485675 2.3055
0.271982 0.260644 2.3608
0.356376 0.254196 2.3277
0.321856 0.294278 2.35913
0.44222 0.295647 2.35067
0.346145 0.350757 2.35426
0.415762 0.389621 2.32827
0.475094 0.383761 2.34966
0.214879 0.429082 2.33971
0.466199 0.451954 2.35462
0.236464 0.494005 2.35237
0.430217 0.500721 2.35499
0.49838 0.508374 2.33212
0.339305 0.526873 2.34754
0.103324 0.228818 2.38871
0.161403 0.258279 2.38827
0.363615 0.240431 2.39399
0.425069 0.242959 2.39512
0.499192 0.246026 2.39267
0.125428 0.344451 2.37441
0.189012 0.364304 2.38306
0.415188 0.353574 2.37906
0.282424 0.374546 2.36858
0.115455 0.44409 2.3845
0.323589 0.424937 2.3771
0.40415 0.414672 2.39454
0.104255 0.515661 2.36241
0.370433 0.49856 2.39148
0.257372 0.298287 2.42437
0.31493 0.348737 2.41385
0.484684 0.362834 2.42124
0.125062 0.39201 2.42589
0.158807 0.499296 2.40065
0.264146 0.523422 2.39795
0.220666 0.238837 2.43734
0.393674 0.233628 2.45132
0.17717 0.298235 2.4492
0.314466 0.284399 2.44272
0.492483 0.279077 2.4444
0.417494 0.317622 2.44147
0.107591 0.339963 2.45367
0.217234 0.387064 2.43563
0.385775 0.387923 2.45657
0.449749 0.403068 2.44884
0.139724 0.459766 2.45164
0.263093 0.452487 2.44205
0.417911 0.469013 2.43692
0.486571 0.452792 2.44556
0.220758 0.508511 2.44861
0.312076 0.491969 2.4476
0.490194 0.521396 2.45111
VERTICES 353 706
1 0
1 1
1 2
1 3
1 4
1 5
1 6
1 7
1 8
1 9
1 10
1 11
1 12
1 13
1 14
1 15
1 16
1 17
1 18
1 19
1 20
1 21
1 22
1 23
1 24
1 25
1 26
1 27
1 28
1 29
1 30
1 31
1 32
1 33
1 34
1 35
1 36
1 37
1 38
1 39
1 40
1 41
1 42
1 43
1 44
1 45
1 46
1 47
1 48
1 49
1 50
1 51
1 52
1 53
1 54
1 55
1 56
1 57
1 58
1 59
1 60
1 61
1 62
1 63
1 64
1 65
1 66
1 67
1 68
1 69
1 70
1 71
1 72
1 73
1 74
1 75
1 76
1 77
1 78
1 79
1 80
1 81
1 82
1 83
1 84
1 85
1 86
1 87
1 88
1 89
1 90
1 91
1 92
1 93
1 94
1 95
1 96
1 97
1 98
1 99
1 100
1 101
1 102
1 103
1 104
1 105
1 106
1 107
1 108
1 109
1 110
1 111
1 112
1 113
1 114
1 115
1 116
1 117
1 118
1 119
1 120
1 121
1 122
1 123
1 124
1 125
1 126
1 127
1 128
1 129
1 130
1 131
1 132
1 133
1 134
1 135
1 136
1 137
1 138
1 139
1 140
1 141
1 142
1 143
1 144
1 145
1 146
1 147
1 148
1 149
1 150
1 151
1 152
1 153
1 154
1 155
1 156
1 157
1 158
1 159
1 160
1 161
1 162
1 163
1 164
1 165
1 166
1 167
1 168
1 169
1 170
1 171
1 172
1 173
1 174
1 175
1 176
1 177
1 178
1 179
1 180
1 181
1 182
1 183
1 184
1 185
1 186
1 187
1 188
1 189
1 190
1 191
1 192
1 193
1 194
1 195
1 196
1 197
1 198
1 199
1 200
1 201
1 202
1 203
1 204
1 205
1 206
1 207
1 208
1 209
1 210
1 211
1 212
1 213
1 214
1 215
1 216
1 217
1 218
1 219
1 220
1 221
1 222
1 223
1 224
1 225
1 226
1 227
1 228
1 229
1 230
1 231
1 232
1 233
1 234
1 235
1 236
1 237
1 238
1 239
1 240
1 241
1 242
1 243
1 244
1 245
1 246
1 247
1 248
1 249
1 250
1 251
1 252
1 253
1 254
1 255
1 256
1 257
1 258
1 259
1 260
1 261
1 262
1 263
1 264
1 265
1 266
1 267
1 268
1 269
1 270
1 271
1 272
1 273
1 274
1 275
1 276
1 277
1 278
1 279
1 280
1 281
1 282
1 283
1 284
1 285
1 286
1 287
1 288
1 289
1 290
1 291
1 292
1 293
1 294
1 295
1 296
1 297
1 298
1 299
1 300
1 301
1 302
1 303
1 304
1 305
1 306
1 307
1 308
1 309
1 310
1 311
1 312
1 313
1 314
1 315
1 316
1 317
1 318
1 319
1 320
1 321
1 322
1 323
1 324
1 325
1 326
1 327
1 328
1 329
1 330
1 331
1 332
1 333
1 334
1 335
1 336
1 337
1 338
1 339
1 340
1 341
1 342
1 343
1 344
1 345
1 346
1 347
1 348
1 349
1 350
1 351
1 352
POINT_DATA 353
VECTORS i float
0.0 0.0 0.0
0.0 0.0 0.0
0.0 0.0 0.0
0.0 0.0 0.0
0.0 0.0 0.0
0.0 0.0 0.0
0.0 0.0 0.0
0.0 0.0 0.0
0.0 0.0 0.0
0.0 0.0 0.0
0.0 0.0 0.0
0.0 0.0 0.0
0.0 0.0 0.0
0.0 0.0 0.0
0.0 0.0 0.0
0.0 0.0 0.0
0.0 0.0 0.0
0.0 0.0 0.0
0.0 0.0 0.0
0.0 0.0 0.0
0.0 0.0 0.0
0.0 0.0 0.0
0.0 0.0 0.0
0.0 0.0 0.0
0.0 0.0 0.0
0.0 0.0 0.0
0.0 0.0 0.0
0.0 0.0 0.0
0.0 0.0 0.0
0.0 0.0 0.0
0.0 0.0 0.0
0.0 0.0 0.0
0.0 0.0 0.0
0.0 0.0 0.0
0.0 0.0 0.0
0.0 0.0 0.0
0.0 0.0 0.0
0.0 0.0 0.0
0.0 0.0 0.0
0.0 0.0 0.0
0.0 0.0 0.0
0.0 0.0 0.0
0.0 0.0 0.0
0.0 0.0 0.0
0.0 0.0 0.0
0.0 0.0 0.0
0.0 0.0 0.0
0.0 0.0 0.0
0.0 0.0 0.0
0.0 0.0 0.0
0.0 0.0 0.0
0.0 0.0 0.0
0.0 0.0 0.0
0.0 0.0 0.0
0.0 0.0 0.0
0.0 0.0 0.0
0.0 0.0 0.0
0.0 0.0 0.0
0.0 0.0 0.0
0.0 0.0 0.0
0.0 0.0 0.0
0.0 0.0 0.0
0.0 0.0 0.0
0.0 0.0 0.0
0.0 0.0 0.0
0.0 0.0 0.0
0.0 0.0 0.0
0.0 0.0 0.0
0.0 0.0 0.0
0.0 0.0 0.0
0.0 0.0 0.0
0.0 0.0 0.0
0.0 0.0 0.0
0.0 0.0 0.0
0.0 0.0 0.0
0.0 0.0 0.0
0.0 0.0 0.0
0.0 0.0 0.0
0.0 0.0 0.0
0.0 0.0 0.0
0.0 0.0 0.0
0.0 0.0 0.0
0.0 0.0 0.0
0.0 0.0 0.0
0.0 0.0 0.0
0.0 0.0 0.0
0.0 0.0 0.0
0.0 0.0 0.0
0.0 0.0 0.0
0.0 0.0 0.0
0.0 0.0 0.0
0.0 0.0 0.0
0.0 0.0 0.0
0.0 0.0 0.0
0.0 0.0 0.0
0.0 0.0 0.0
0.0 0.0 0.0
0.0 0.0 0.0
0.0 0.0 0.0
0.0 0.0 0.0
0.0 0.0 0.0
0.0 0.0 0.0
0.0 0.0 0.0
0.0 0.0 0.0
0.0 0.0 0.0
0.0 0.0 0.0
0.0 0.0 0.0
0.0 0.0 0.0
0.0 0.0 0.0
0.0 0.0 0.0
0.0 0.0 0.0
0.0 0.0 0.0
0.0 0.0 0.0
0.0 0.0 0.0
0.0 0.0 0.0
0.0 0.0 0.0
0.0 0.0 0.0
0.0 0.0 0.0
0.0 0.0 0.0
0.0 0.0 0.0
0.0 0.0 0.0
0.0 0.0 0.0
0.0 0.0 0.0
0.0 0.0 0.0
0.0 0.0 0.0
0.0 0.0 0.0
0.0 0.0 0.0
0.0 0.0 0.0
0.0 0.0 0.0
0.0 0.0 0.0
0.0 0.0 0.0
0.0 0.0 0.0
0.0 0.0 0.0
0.0 0.0 0.0
0.0 0.0 0.0
0.0 0.0 0.0
0.0 0.0 0.0
0.0 0.0 0.0
0.0 0.0 0.0
0.0 0.0 0.0
0.0 0.0 0.0
0.0 0.0 0.0
0.0 0.0 0.0
0.0 0.0 0.0
0.0 0.0 0.0
0.0 0.0 0.0
0.0 0.0 0.0
0.0 0.0 0.0
0.0 0.0 0.0
0.0 0.0 0.0
0.0 0.0 0.0
0.0 0.0 0.0
0.0 0.0 0.0
0.0 0.0 0.0
0.0 0.0 0.0
0.0 0.0 0.0
0.0 0.0 0.0
0.0 0.0 0.0
0.0 0.0 0.0
0.0 0.0 0.0
0.0 0.0 0.0
0.0 0.0 0.0
0.0 0.0 0.0
0.0 0.0 0.0
0.0 0.0 0.0
0.0 0.0 0.0
0.0 0.0 0.0
0.0 0.0 0.0
0.0 0.0 0.0
0.0 0.0 0.0
0.0 0.0 0.0
0.0 0.0 0.0
0.0 0.0 0.0
0.0 0.0 0.0
0.0 0.0 0.0
0.0 0.0 0.0
0.0 0.0 0.0
0.0 0.0 0.0
0.0 0.0 0.0
0.0 0.0 0.0
0.0 0.0 0.0
0.0 0.0 0.0
0.0 0.0 0.0
0.0 0.0 0.0
0.0 0.0 0.0
0.0 0.0 0.0
0.0 0.0 0.0
0.0 0.0 0.0
0.0 0.0 0.0
0.0 0.0 0.0
0.0 0.0 0.0
0.0 0.0 0.0
0.0 0.0 0.0
0.0 0.0 0.0
0.0 0.0 0.0
0.0 0.0 0.0
0.0 0.0 0.0
0.0 0.0 0.0
0.0 0.0 0.0
0.0 0.0 0.0
0.0 0.0 0.0
0.0 0.0 0.0
0.0 0.0 0.0
0.0 0.0 0.0
0.0 0.0 0.0
0.0 0.0 0.0
0.0 0.0 0.0
0.0 0.0 0.0
0.0 0.0 0.0
0.0 0.0 0.0
0.0 0.0 0.0
0.0 0.0 0.0
0.0 0.0 0.0
0.0 0.0 0.0
0.0 0.0 0.0
0.0 0.0 0.0
0.0 0.0 0.0
0.0 0.0 0.0
0.0 0.0 0.0
0.0 0.0 0.0
0.0 0.0 0.0
0.0 0.0 0.0
0.0 0.0 0.0
0.0 0.0 0.0
0.0 0.0 0.0
0.0 0.0 0.0
0.0 0.0 0.0
0.0 0.0 0.0
0.0 0.0 0.0
0.0 0.0 0.0
0.0 0.0 0.0
0.0 0.0 0.0
0.0 0.0 0.0
0.0 0.0 0.0
0.0 0.0 0.0
0.0 0.0 0.0
0.0 0.0 0.0
0.0 0.0 0.0
0.0 0.0 0.0
0.0 0.0 0.0
0.0 0.0 0.0
0.0 0.0 0.0
0.0 0.0 0.0
0.0 0.0 0.0
0.0 0.0 0.0
0.0 0.0 0.0
0.0 0.0 0.0
0.0 0.0 0.0
0.0 0.0 0.0
0.0 0.0 0.0
0.0 0.0 0.0
0.0 0.0 0.0
0.0 0.0 0.0
0.0 0.0 0.0
0.0 0.0 0.0
0.0 0.0 0.0
0.0 0.0 0.0
0.0 0.0 0.0
0.0 0.0 0.0
0.0 0.0 0.0
0.0 0.0 0.0
0.0 0.0 0.0
0.0 0.0 0.0
0.0 0.0 0.0
0.0 0.0 0.0
0.0 0.0 0.0
0.0 0.0 0.0
0.0 0.0 0.0
0.0 0.0 0.0
0.0 0.0 0.0
0.0 0.0 0.0
0.0 0.0 0.0
0.0 0.0 0.0
0.0 0.0 0.0
0.0 0.0 0.0
0.0 0.0 0.0
0.0 0.0 0.0
0.0 0.0 0.0
0.0 0.0 0.0
0.0 0.0 0.0
0.0 0.0 0.0
0.0 0.0 0.0
0.0 0.0 0.0
0.0 0.0 0.0
0.0 0.0 0.0
0.0 0.0 0.0
0.0 0.0 0.0
0.0 0.0 0.0
0.0 0.0 0.0
0.0 0.0 0.0
0.0 0.0 0.0
0.0 0.0 0.0
0.0 0.0 0.0
0.0 0.0 0.0
0.0 0.0 0.0
0.0 0.0 0.0
0.0 0.0 0.0
0.0 0.0 0.0
0.0 0.0 0.0
0.0 0.0 0.0
0.0 0.0 0.0
0.0 0.0 0.0
0.0 0.0 0.0
0.0 0.0 0.0
0.0 0.0 0.0
0.0 0.0 0.0
0.0 0.0 0.0
0.0 0.0 0.0
0.0 0.0 0.0
0.0 0.0 0.0
0.0 0.0 0.0
0.0 0.0 0.0
0.0 0.0 0.0
0.0 0.0 0.0
0.0 0.0 0.0
0.0 0.0 0.0
0.0 0.0 0.0
0.0 0.0 0.0
0.0 0.0 0.0
0.0 0.0 0.0
0.0 0.0 0.0
0.0 0.0 0.0
0.0 0.0 0.0
0.0 0.0 0.0
0.0 0.0 0.0
0.0 0.0 0.0
0.0 0.0 0.0
0.0 0.0 0.0
0.0 0.0 0.0
0.0 0.0 0.0
0.0 0.0 0.0
0.0 0.0 0.0
0.0 0.0 0.0
0.0 0.0 0.0
0.0 0.0 0.0
0.0 0.0 0.0
0.0 0.0 0.0
0.0 0.0 0.0
0.0 0.0 0.0
0.0 0.0 0.0
0.0 0.0 0.0
0.0 0.0 0.0
0.0 0.0 0.0
0.0 0.0 0.0
0.0 0.0 0.0
0.0 0.0 0.0
0.0 0.0 0.0
0.0 0.0 0.0
0.0 0.0 0.0
0.0 0.0 0.0
0.0 0.0 0.0
0.0 0.0 0.0
0.0 0.0 0.0
VECTORS f float
-0.0480882 0.573675 -1.05673
-0.368936 -0.329062 -3.9516
-0.0107404 0.289349 -1.90606
1.428 1.56452 1.57998
-0.458295 -1.82413 -0.851417
0.0 0.0 -2.77371
9.33741 -7.36759 2.19947
0.000114684 0.987749 -0.989542
0.0586926 0.152144 0.480839
-0.000576843 0.018808 -2.71731
15.9162 33.9612 50.5272
-13.5678 -0.844393 -64.1517
0.176043 -0.0122114 -2.42078
0.0 0.0 -2.77371
3.71905 -0.0998751 0.993617
3.10958 0.0980629 -3.90838
-1.64229 0.252445 -0.359621
-1.2246 -0.691116 2.22462
-9.25732 7.1796 -7.33821
0.00575655 9.24667e-05 -0.233373
-0.228764 -0.341256 -2.5724
0.0 0.0 -2.77371
0.175149 0.377163 3.39742
19.3005 0.771505 35.8581
0.233062 0.15035 1.05074
0.0 0.0 -2.77371
0.0 0.0 -2.77371
0.0 0.0 -2.77371
-20.6733 -3.17989 -30.0296
3.15911 -9.95509 -2.41237
3.43023 -2.84257 -0.52307
-0.127072 -0.00426683 -3.18146
1.00496e-05 -1.00895e-06 -2.22471e-05
46.2625 3.90864 -134.96
-0.320517 0.457877 -2.61275
-17.082 23.331 -36.8339
-3.12775 2.53602 -4.16305
0.00128481 3.4871e-05 0.0617288
-0.319889 1.2143 -5.14749
-25.0913 -5.16564 5.49162
-0.44884 0.0631865 -1.86718
4.40342 -0.229566 3.39228
-0.00634099 -0.000101498 -0.149721
5.88733 0.314359 -2.82188
0.568705 -1.56349 -0.668414
34.7972 21.0631 -115.311
-2.10128 -1.0007 4.58878
-0.0050975 -0.000242807 -0.0298557
0.0 0.0 -2.77371
-3.16693e-08 3.07123e-09 -4.5175e-09
0.0 0.0 -2.77371
0.0 0.0 -2.77371
-0.74549 0.98416 -5.12373
-0.000145115 4.69932e-05 -0.000327195
0.0 0.0 -2.77371
4.09628 -0.924289 -11.1722
-41.6657 7.67633 14.2709
0.159467 -0.0136086 2.60864
-0.00304309 0.00109025 0.0935071
-2.27618e-09 9.51015e-11 1.38486e-08
-3.73076 10.2181 15.1529
0.0 0.0 -2.77371
-4.7526 6.33112 -19.2281
1.13425 0.410479 -0.960592
-0.657717 -0.312219 -2.66608
3.05039 -4.32371 2.86872
0.571653 -0.240293 -2.24014
0.0 0.0 -2.77371
-0.000875278 -0.985943 -0.992313
-8.7151 -28.3196 -55.3231
3.17323 2.56253 -0.260015
0.0 0.0 -2.77371
13.5678 0.844393 58.6043
0.0 0.0 -2.77371
0.0 0.0 -2.77371
1.66792 0.545113 3.02695
-1.84499 2.42167 -4.46116
-3.26574 -7.19761 1.02126
0.0 0.0 -2.77371
0.0 0.0 -2.77371
14.4696 -22.8863 8.47617
0.0 0.0 -2.77371
0.0 0.0 -2.77371
0.0 0.0 -2.77371
0.319889 -1.2143 -0.399936
13.9229 -13.3759 30.9251
0.0 0.0 -2.77371
0.0 0.0 -2.77371
10.804 3.911 16.9245
-30.6074 -11.7656 110.723
-0.676519 0.416304 2.78458
0.0 0.0 -2.77371
-5.84676 0.524031 0.978983
-0.944216 -15.4334 19.5525
0.0 0.0 -2.77371
0.0 0.0 -2.77371
0.0 0.0 -2.77371
4.8714 15.6629 54.9223
4.75983 -5.89969 13.8249
0.0 0.0 -2.77371
-0.00723816 -0.431426 -2.91791
-1.51296 6.03421 1.58251
0.00247342 0.972706 -1.00056
0.0 0.0 -2.77371
0.0 0.0 -2.77371
3.26574 7.19761 -6.56868
0.0 0.0 -2.77371
0.0 0.0 -2.77371
0.0 0.0 -2.77371
1.30321 1.32938 2.41588
0.0 0.0 -2.77371
0.0 0.0 -2.77371
0.0 0.0 -2.77371
7.52651 -2.1826 -0.837574
0.0 0.0 -2.77371
-39.0973 4.87975 166.09
-4.18977 -9.29753 -3.73304
0.0 0.0 -2.77371
0.0 0.0 -2.77371
0.0 0.0 -2.77371
47.439 -19.2018 27.6075
-0.292066 -0.327403 -2.92767
0.0 0.0 -2.77371
0.0 0.0 -2.77371
0.0 0.0 -2.77371
0.0 0.0 -2.77371
8.34165 17.37 40.3996
0.0 0.0 -2.77371
0.0 0.0 -2.77371
0.0 0.0 -2.77371
0.0 0.0 -2.77371
0.0 0.0 -2.77371
0.0 0.0 -2.77371
0.0 0.0 -2.77371
1.43567 -1.76246 0.324441
0.0 0.0 -2.77371
0.0 0.0 -2.77371
0.0 0.0 -2.77371
0.0 0.0 -2.77371
0.0 0.0 -2.77371
0.0 0.0 -2.77371
0.0 0.0 -2.77371
0.0 0.0 -2.77371
0.0 0.0 -2.77371
0.0 0.0 -2.77371
0.0 0.0 -2.77371
0.0 0.0 -2.77371
0.0 0.0 -2.77371
0.0 0.0 -2.77371
0.0 0.0 -2.77371
0.0 0.0 -2.77371
0.0 0.0 -2.77371
0.0 0.0 -2.77371
0.0 0.0 -2.77371
0.0 0.0 -2.77371
0.0 0.0 -2.77371
0.0 0.0 -2.77371
0.0 0.0 -2.77371
0.0 0.0 -2.77371
0.0 0.0 -2.77371
0.0 0.0 -2.77371
0.0 0.0 -2.77371
0.0 0.0 -2.77371
0.0 0.0 -2.77371
0.0 0.0 -2.77371
0.0 0.0 -2.77371
0.0 0.0 -2.77371
0.0 0.0 -2.77371
0.0 0.0 -2.77371
0.0 0.0 -2.77371
0.0 0.0 -2.77371
0.0 0.0 -2.77371
0.0 0.0 -2.77371
0.0 0.0 -2.77371
0.0 0.0 -2.77371
0.0 0.0 -2.77371
0.0 0.0 -2.77371
0.0 0.0 -2.77371
0.0 0.0 -2.77371
0.0 0.0 -2.77371
0.0 0.0 -2.77371
0.0 0.0 -2.77371
0.0 0.0 -2.77371
0.0 0.0 -2.77371
0.0 0.0 -2.77371
0.0 0.0 -2.77371
0.0 0.0 -2.77371
0.0 0.0 -2.77371
0.0 0.0 -2.77371
0.0 0.0 -2.77371
0.0 0.0 -2.77371
0.0 0.0 -2.77371
0.0 0.0 -2.77371
0.0 0.0 -2.77371
0.0 0.0 -2.77371
0.0 0.0 -2.77371
0.0 0.0 -2.77371
0.0 0.0 -2.77371
0.0 0.0 -2.77371
0.0 0.0 -2.77371
0.0 0.0 -2.77371
0.0 0.0 0.0
0.0 0.0 0.0
0.0 0.0 0.0
0.0 0.0 0.0
0.0 0.0 0.0
0.0 0.0 0.0
0.0 0.0 0.0
0.0 0.0 0.0
0.0 0.0 0.0
0.0 0.0 0.0
0.0 0.0 0.0
0.0 0.0 0.0
0.0 0.0 0.0
0.0 0.0 0.0
0.0 0.0 0.0
0.0 0.0 0.0
0.0 0.0 0.0
0.0 0.0 0.0
0.0 0.0 0.0
0.0 0.0 0.0
0.0 0.0 0.0
0.0 0.0 0.0
0.0 0.0 0.0
0.0 0.0 0.0
0.0 0.0 0.0
0.0 0.0 0.0
0.0 0.0 0.0
0.0 0.0 0.0
0.0 0.0 0.0
0.0 0.0 0.0
0.0 0.0 0.0
0.0 0.0 0.0
0.0 0.0 0.0
0.0 0.0 0.0
0.0 0.0 0.0
0.0 0.0 0.0
0.0 0.0 0.0
0.0 0.0 0.0
0.0 0.0 0.0
0.0 0.0 0.0
0.0 0.0 0.0
0.0 0.0 0.0
0.0 0.0 0.0
0.0 0.0 0.0
0.0 0.0 0.0
0.0 0.0 0.0
0.0 0.0 0.0
0.0 0.0 0.0
0.0 0.0 0.0
0.0 0.0 0.0
0.0 0.0 0.0
0.0 0.0 0.0
0.0 0.0 0.0
0.0 0.0 0.0
0.0 0.0 0.0
0.0 0.0 0.0
0.0 0.0 0.0
0.0 0.0 0.0
0.0 0.0 0.0
0.0 0.0 0.0
0.0 0.0 0.0
0.0 0.0 0.0
0.0 0.0 0.0
0.0 0.0 0.0
0.0 0.0 0.0
0.0 0.0 0.0
0.0 0.0 0.0
0.0 0.0 0.0
0.0 0.0 0.0
0.0 0.0 0.0
0.0 0.0 0.0
0.0 0.0 0.0
0.0 0.0 0.0
0.0 0.0 0.0
0.0 0.0 0.0
0.0 0.0 0.0
0.0 0.0 0.0
0.0 0.0 0.0
0.0 0.0 0.0
0.0 0.0 0.0
0.0 0.0 0.0
0.0 0.0 0.0
0.0 0.0 0.0
0.0 0.0 0.0
0.0 0.0 0.0
0.0 0.0 0.0
0.0 0.0 0.0
0.0 0.0 0.0
0.0 0.0 0.0
0.0 0.0 0.0
0.0 0.0 0.0
0.0 0.0 0.0
0.0 0.0 0.0
0.0 0.0 0.0
0.0 0.0 0.0
0.0 0.0 0.0
0.0 0.0 0.0
0.0 0.0 0.0
0.0 0.0 0.0
0.0 0.0 0.0
0.0 0.0 0.0
0.0 0.0 0.0
0.0 0.0 0.0
0.0 0.0 0.0
0.0 0.0 0.0
0.0 0.0 0.0
0.0 0.0 0.0
0.0 0.0 0.0
0.0 0.0 0.0
0.0 0.0 0.0
0.0 0.0 0.0
0.0 0.0 0.0
0.0 0.0 0.0
0.0 0.0 0.0
0.0 0.0 0.0
0.0 0.0 0.0
0.0 0.0 0.0
0.0 0.0 0.0
0.0 0.0 0.0
0.0 0.0 0.0
0.0 0.0 0.0
0.0 0.0 0.0
0.0 0.0 0.0
0.0 0.0 0.0
0.0 0.0 0.0
0.0 0.0 0.0
0.0 0.0 0.0
0.0 0.0 0.0
0.0 0.0 0.0
0.0 0.0 0.0
0.0 0.0 0.0
0.0 0.0 0.0
0.0 0.0 0.0
0.0 0.0 0.0
0.0 0.0 0.0
0.0 0.0 0.0
0.0 0.0 0.0
0.0 0.0 0.0
0.0 0.0 0.0
0.0 0.0 0.0
0.0 0.0 0.0
0.0 0.0 0.0
0.0 0.0 0.0
0.0 0.0 0.0
0.0 0.0 0.0
0.0 0.0 0.0
0.0 0.0 0.0
0.0 0.0 0.0
0.0 0.0 0.0
0.0 0.0 0.0
0.0 0.0 0.0
0.0 0.0 0.0
VECTORS omega float
-0.694762 -76.5204 39.4836
16.9687 -75.0844 -1.25511
1.65211 -75.7601 26.4528
3.38606 -72.5757 10.1446
-0.318787 -58.3738 17.0303
6.52143 42.9333 -4.19797
2.27459 -64.2174 29.9749
-17.2391 -77.7737 17.5418
4.15714 -58.2545 -2.4524
-2.50595 -66.7667 14.2614
26.9044 -88.9183 17.1375
7.19753 -109.135 18.7672
11.7065 -90.4496 -27.3734
27.3411 -91.6134 -32.2789
12.3267 -76.5815 -7.23155
-1.93338 -22.555 0.654098
-15.88 -2.34534 2.36731
1.69851 -59.0181 -1.00242
10.303 -55.5836 2.21464
0.775471 -48.423 -17.508
3.0306 -53.2522 4.33857
-1.27147 -46.3531 4.2775
-3.76371 -58.2283 13.1808
-9.3276 39.8467 -2.60726
-0.676921 -76.559 6.27954
13.6608 -42.8273 -22.4362
41.7624 -89.4904 -8.69238
-16.688 -95.1172 16.3859
24.6245 -81.4078 -10.9893
-4.14948 -59.6086 -1.51762
11.1635 -70.5183 6.4251
3.93491 -56.5015 -7.19384
-7.0508 -70.2291 16.1048
-0.685216 -79.986 -10.3533
8.16032 -20.8677 -11.3119
16.4913 -36.9641 3.86479
10.1205 -48.2803 -6.82618
1.95255 -71.9343 -1.0062
2.60239 -60.6621 -0.952595
2.92093 -101.059 -5.82291
5.94534 -65.3339 6.17372
-7.53858 -43.235 -4.15961
0.927227 -59.2343 -9.34871
-2.97456 -68.5789 -5.72417
-8.86778 -98.0328 -2.3145
3.01761 -72.3817 -8.49531
-3.65752 -58.881 14.5485
3.04883 -63.9978 -9.82024
-36.7032 -20.3755 -14.5382
-4.91954 -50.7279 2.52464
12.4703 6.35648 4.42072
24.904 49.2851 14.0392
4.38386 -61.6586 8.78263
-12.71 -40.0604 1.27705
-4.6283 -121.31 -1.15586
-3.86289 -88.2124 7.67041
-17.9275 -86.5495 2.17172
-5.8918 -69.184 7.07029
-15.4328 -43.0689 1.23093
-1.81727 -43.4917 1.90422
-16.9628 -79.0929 -4.98317
2.75785 -62.9619 -39.8762
-15.4055 -67.613 22.3154
-0.610705 -48.3109 -24.3074
-5.54562 -55.5089 -15.2396
3.9424 -56.6353 -14.8908
0.90084 -18.3692 -10.7549
-5.10454 16.8048 24.2268
4.21545 -63.6111 -18.9114
10.1498 -67.3216 31.2087
31.6335 64.8602 -19.2617
16.1418 -7.25474 0.470599
8.52313 29.4777 2.71826
-26.6579 57.7721 24.0087
3.26183 36.595 16.2536
-18.0916 28.2856 3.14991
-13.4637 35.8305 -16.0751
37.6797 0.48431 19.3207
-33.7784 8.94258 -3.77724
3.94804 -51.7966 1.75649
1.17098 48.0128 27.7245
10.8623 51.6916 21.5974
-5.29871 24.8828 -16.4264
13.0922 49.9266 2.8071
-32.6306 -9.07164 -5.27807
-8.40906 9.10629 -10.018
-9.33765 15.53 9.58754
3.95341 14.3148 20.1896
-16.895 78.6643 -2.67916
10.804 -35.1928 -13.4371
12.1826 2.14461 -25.3622
-7.84248 10.9038 -16.3049
18.0233 19.5546 9.58785
-0.960297 -4.37692 -13.394
-25.2681 -24.42 5.27532
20.7975 -32.7705 3.78199
14.7155 86.1415 0.221805
9.3624 64.1044 -8.62544
20.0149 51.1725 -5.11453
-7.19091 -45.2997 -30.6552
-18.705 -17.7392 -42.0898
11.6153 -68.2576 50.3018
-1.23192 -33.966 54.3779
14.8189 86.3542 -9.00983
12.6524 -7.70905 7.89108
-22.2494 -25.103 -3.69016
-24.2513 -39.1017 -0.622163
9.94472 42.9635 -5.97854
-25.4584 66.9368 -7.66164
1.73219 38.913 -16.8092
39.6702 -8.34027 10.8806
-14.5187 38.9215 -23.5491
24.589 28.7019 8.63039
0.990494 -19.468 -1.897
0.185123 1.62408 24.3332
-12.1838 26.3964 -3.1611
-14.0312 5.84618 4.85508
-15.8236 -18.6938 3.52772
1.12403 -16.0304 -11.4449
25.3622 -1.1334 5.51433
11.3899 -11.242 -11.891
-20.4902 25.0358 -10.5204
1.20506 24.3604 1.06681
9.777 -19.4595 6.08159
8.63669 -47.7736 16.8865
17.0052 -10.2205 -1.78371
-8.71254 -34.5782 20.8069
2.53187 -39.5822 20.3081
15.1634 -19.6164 7.58091
-3.88329 -43.7827 17.7125
-4.09058 2.01885 -18.2793
-3.63339 -32.3971 -2.33411
-11.9718 -52.9156 14.9934
-12.8435 -26.5506 -4.74953
-14.6986 -24.3587 -49.8747
24.8783 -51.7265 -20.343
0.0 0.0 0.0
0.0 0.0 0.0
0.0 0.0 0.0
0.0 0.0 0.0
0.0 0.0 0.0
-31.9594 -99.8791 8.01116
0.0 0.0 0.0
0.0 0.0 0.0
0.0 0.0 0.0
0.0 0.0 0.0
0.0 0.0 0.0
0.0 0.0 0.0
0.0 0.0 0.0
0.0 0.0 0.0
0.0 0.0 0.0
0.0 0.0 0.0
0.0 0.0 0.0
0.0 0.0 0.0
0.0 0.0 0.0
0.0 0.0 0.0
0.0 0.0 0.0
0.0 0.0 0.0
0.0 0.0 0.0
0.0 0.0 0.0
0.0 0.0 0.0
0.0 0.0 0.0
0.0 0.0 0.0
0.0 0.0 0.0
0.0 0.0 0.0
0.0 0.0 0.0
0.0 0.0 0.0
0.0 0.0 0.0
0.0 0.0 0.0
0.0 0.0 0.0
0.0 0.0 0.0
0.0 0.0 0.0
0.0 0.0 0.0
0.0 0.0 0.0
0.0 0.0 0.0
0.0 0.0 0.0
0.0 0.0 0.0
0.0 0.0 0.0
0.0 0.0 0.0
0.0 0.0 0.0
0.0 0.0 0.0
0.0 0.0 0.0
0.0 0.0 0.0
0.0 0.0 0.0
0.0 0.0 0.0
0.0 0.0 0.0
0.0 0.0 0.0
0.0 0.0 0.0
0.0 0.0 0.0
0.0 0.0 0.0
0.0 0.0 0.0
0.0 0.0 0.0
0.0 0.0 0.0
0.0 0.0 0.0
0.0 0.0 0.0
0.0 0.0 0.0
0.0 0.0 0.0
0.0 0.0 0.0
0.0 0.0 0.0
0.0 0.0 0.0
0.0 0.0 0.0
0.0 0.0 0.0
0.0 0.0 0.0
0.0 0.0 0.0
0.0 0.0 0.0
0.0 0.0 0.0
0.0 0.0 0.0
0.0 0.0 0.0
0.0 0.0 0.0
0.0 0.0 0.0
0.0 0.0 0.0
0.0 0.0 0.0
0.0 0.0 0.0
0.0 0.0 0.0
0.0 0.0 0.0
0.0 0.0 0.0
0.0 0.0 0.0
0.0 0.0 0.0
0.0 0.0 0.0
0.0 0.0 0.0
0.0 0.0 0.0
0.0 0.0 0.0
0.0 0.0 0.0
0.0 0.0 0.0
0.0 0.0 0.0
0.0 0.0 0.0
0.0 0.0 0.0
0.0 0.0 0.0
0.0 0.0 0.0
0.0 0.0 0.0
0.0 0.0 0.0
0.0 0.0 0.0
0.0 0.0 0.0
0.0 0.0 0.0
0.0 0.0 0.0
0.0 0.0 0.0
0.0 0.0 0.0
0.0 0.0 0.0
0.0 0.0 0.0
0.0 0.0 0.0
0.0 0.0 0.0
0.0 0.0 0.0
0.0 0.0 0.0
0.0 0.0 0.0
0.0 0.0 0.0
0.0 0.0 0.0
0.0 0.0 0.0
0.0 0.0 0.0
0.0 0.0 0.0
0.0 0.0 0.0
0.0 0.0 0.0
0.0 0.0 0.0
0.0 0.0 0.0
0.0 0.0 0.0
0.0 0.0 0.0
0.0 0.0 0.0
0.0 0.0 0.0
0.0 0.0 0.0
0.0 0.0 0.0
0.0 0.0 0.0
0.0 0.0 0.0
0.0 0.0 0.0
0.0 0.0 0.0
0.0 0.0 0.0
0.0 0.0 0.0
0.0 0.0 0.0
0.0 0.0 0.0
0.0 0.0 0.0
0.0 0.0 0.0
0.0 0.0 0.0
0.0 0.0 0.0
0.0 0.0 0.0
0.0 0.0 0.0
0.0 0.0 0.0
0.0 0.0 0.0
0.0 0.0 0.0
0.0 0.0 0.0
0.0 0.0 0.0
0.0 0.0 0.0
0.0 0.0 0.0
0.0 0.0 0.0
0.0 0.0 0.0
0.0 0.0 0.0
0.0 0.0 0.0
0.0 0.0 0.0
0.0 0.0 0.0
0.0 0.0 0.0
0.0 0.0 0.0
0.0 0.0 0.0
0.0 0.0 0.0
0.0 0.0 0.0
0.0 0.0 0.0
0.0 0.0 0.0
0.0 0.0 0.0
0.0 0.0 0.0
0.0 0.0 0.0
0.0 0.0 0.0
0.0 0.0 0.0
0.0 0.0 0.0
0.0 0.0 0.0
0.0 0.0 0.0
0.0 0.0 0.0
0.0 0.0 0.0
0.0 0.0 0.0
0.0 0.0 0.0
0.0 0.0 0.0
0.0 0.0 0.0
0.0 0.0 0.0
0.0 0.0 0.0
0.0 0.0 0.0
0.0 0.0 0.0
0.0 0.0 0.0
0.0 0.0 0.0
0.0 0.0 0.0
0.0 0.0 0.0
0.0 0.0 0.0
0.0 0.0 0.0
0.0 0.0 0.0
0.0 0.0 0.0
0.0 0.0 0.0
0.0 0.0 0.0
0.0 0.0 0.0
0.0 0.0 0.0
0.0 0.0 0.0
0.0 0.0 0.0
0.0 0.0 0.0
0.0 0.0 0.0
0.0 0.0 0.0
0.0 0.0 0.0
0.0 0.0 0.0
0.0 0.0 0.0
0.0 0.0 0.0
0.0 0.0 0.0
0.0 0.0 0.0
0.0 0.0 0.0
0.0 0.0 0.0
0.0 0.0 0.0
0.0 0.0 0.0
0.0 0.0 0.0
0.0 0.0 0.0
0.0 0.0 0.0
0.0 0.0 0.0
0.0 0.0 0.0
0.0 0.0 0.0
0.0 0.0 0.0
0.0 0.0 0.0
0.0 0.0 0.0
0.0 0.0 0.0
0.0 0.0 0.0
0.0 0.0 0.0
0.0 0.0 0.0
0.0 0.0 0.0
0.0 0.0 0.0
VECTORS v float
1.5436 0.0254451 -0.0440333
1.75416 -0.508157 0.0513271
1.83381 -0.0165149 -0.00917471
2.26241 -0.101187 0.0517949
2.2471 -0.0141953 -0.0106026
2.52208 0.13542 -0.112843
2.06169 -0.0167863 0.0385477
1.98459 0.364494 -0.364534
2.28241 -0.0925456 0.0303793
2.28207 0.0772337 -0.080533
1.32766 -0.85281 0.286217
0.435776 -0.211391 0.00232857
0.898622 -0.322852 0.0268832
1.21153 -0.958965 -0.073132
1.59653 -0.378136 -0.186497
2.15157 -0.0715601 0.175729
2.22386 0.0746043 0.451717
2.26849 -0.0759589 -0.0496187
2.21231 -0.197647 0.136816
2.55245 -0.0231818 -0.00225465
2.39627 -0.0996452 -0.018996
2.51389 0.0035016 -0.057753
2.29995 0.0786231 0.0394245
0.670547 0.093615 -0.0173161
1.70231 0.00828158 -0.0210726
2.7262 -0.384762 -0.172393
0.350137 0.510449 0.0402774
0.867269 0.321964 0.105023
1.12485 -0.250776 -0.151603
2.12825 -0.166574 -0.256577
1.84131 -0.235477 0.192229
2.31019 -0.117708 0.034145
1.90172 0.210661 -2.25497e-06
1.38815 -0.246668 -0.950544
1.4094 0.648345 0.179228
2.01556 0.313619 -0.288297
2.03011 0.233471 0.0582232
1.85095 -0.058333 -0.0002126
2.00911 0.174935 -0.152423
1.24393 -0.038754 0.733358
2.04736 -0.176456 0.049347
2.58013 0.197155 0.123776
2.23002 -0.0277065 0.00153075
1.95304 0.0736084 -0.0159085
0.996166 0.590482 -0.00383142
1.5735 -0.0927225 -0.20456
2.32169 0.0563784 0.316297
2.08799 -0.0910874 0.00121154
1.73934 0.676555 -0.461417
2.48437 0.146984 9.72969e-09
0.105989 0.169132 -1.898
0.66287 -0.194369 -0.895537
2.05895 -0.145447 0.0765801
2.8031 0.379744 5.66558e-05
0.434863 0.133027 0.101518
0.737208 0.263533 0.477284
1.62482 0.508119 0.222847
1.93039 0.17625 -0.0500793
2.71351 0.460986 0.00117191
2.70057 0.0542955 8.30804e-10
1.79308 0.393203 0.210818
2.18081 -0.0850359 0.376383
1.80412 0.358989 -0.03062
2.49239 -0.0733964 0.0210673
2.48731 0.073028 0.0983746
2.3852 -0.167211 -0.0619572
2.42323 0.207087 0.184377
3.25445 0.0399836 -0.0988367
2.25512 -0.089316 -0.0889918
1.7814 -0.25778 0.28206
2.0219 -0.713297 0.420114
-1.369 -0.939073 -1.1703
-1.10257 -0.261802 -0.382784
1.2857 -0.543826 -0.631118
0.584548 -0.907667 0.560735
0.172988 -0.243365 0.289151
2.36484 -0.0865295 0.0373949
0.394397 0.359216 -0.000323202
0.336746 -0.129583 -0.232047
1.45058 0.100693 -0.68893
0.772249 -0.521935 -0.15796
1.58454 -0.0831335 -0.0442326