# vtk DataFile Version 2.0
Generated by lpp.py
ASCII
DATASET POLYDATA
POINTS 528 float
2.28857 0.421526 1.54481
2.24574 0.482601 1.54919
2.33569 0.475665 1.52704
2.28643 0.546961 1.5425
2.40146 0.53703 1.5449
0.26608 0.171627 1.5912
0.404944 0.193972 1.57806
0.517046 0.180934 1.58292
0.978713 0.186229 1.57681
1.19089 0.19553 1.57654
1.25424 0.192899 1.57686
1.47164 0.190301 1.57701
1.63817 0.187592 1.57686
1.70383 0.181923 1.58102
1.9547 0.185878 1.57691
2.08863 0.198142 1.57224
2.17612 0.169196 1.57739
0.109909 0.215046 1.57896
0.237515 0.222086 1.57689
0.342377 0.197016 1.5769
0.675747 0.204161 1.57861
0.765788 0.19982 1.57759
1.03805 0.196701 1.57686
1.42205 0.227117 1.57686
1.51139 0.236346 1.57686
1.73995 0.231669 1.57686
2.14397 0.223555 1.56514
0.188546 0.256264 1.57843
0.483557 0.235514 1.58791
0.610254 0.238807 1.57733
0.736487 0.252367 1.57712
0.826433 0.245258 1.57677
0.940765 0.238001 1.57688
1.08176 0.237416 1.58263
1.14404 0.258787 1.57698
1.23177 0.252331 1.57664
1.29935 0.234984 1.57686
1.56661 0.265708 1.57681
1.62384 0.245881 1.5781
1.92162 0.246359 1.57686
0.272309 0.278114 1.57558
0.328537 0.27429 1.59255
0.448366 0.290004 1.57494
0.512571 0.291771 1.57537
0.577499 0.306956 1.57567
0.64784 0.285316 1.57966
0.872275 0.283954 1.57781
1.01458 0.282787 1.57673
1.07239 0.296944 1.57684
1.28732 0.29419 1.57669
1.34516 0.279433 1.57709
1.4451 0.284599 1.57685
1.84831 0.269761 1.57686
1.98382 0.289088 1.57686
2.10614 0.274298 1.57057
0.174507 0.317647 1.57696
0.408024 0.338053 1.57706
0.938648 0.303499 1.58454
1.39124 0.32188 1.57685
1.60809 0.309016 1.57688
1.76682 0.324801 1.57676
1.82826 0.331863 1.57691
0.200371 0.370033 1.59405
0.333865 0.344182 1.58048
0.472197 0.36405 1.57638
0.530563 0.372543 1.5773
0.590432 0.369745 1.58029
0.791243 0.343206 1.57679
1.0323 0.343623 1.57687
1.09371 0.352854 1.57689
1.23191 0.349769 1.57681
1.33085 0.343005 1.57685
1.44783 0.34685 1.57687
1.65128 0.352631 1.57685
1.88445 0.354093 1.57673
1.98375 0.363278 1.57686
0.0106116 0.403246 1.57629
0.15512 0.403892 1.57582
0.754176 0.406023 1.57686
0.893464 0.390862 1.57686
1.14544 0.393819 1.57729
1.28631 0.38409 1.57687
1.37585 0.385205 1.57685
1.52339 0.407467 1.57695
1.69552 0.390564 1.59182
1.77362 0.384041 1.57691
1.91297 0.406778 1.57679
0.216466 0.426718 1.57598
0.382155 0.439506 1.57583
0.459694 0.423025 1.57681
0.831357 0.445683 1.57686
1.01998 0.427308 1.57561
1.08384 0.441683 1.57682
1.18188 0.441907 1.57686
1.4145 0.43166 1.57595
1.58877 0.4165 1.57746
1.67212 0.443271 1.57674
1.73461 0.433184 1.57689
1.80758 0.433027 1.57693
1.86588 0.446176 1.577
2.0051 0.42365 1.57687
0.117371 0.460182 1.57944
0.507253 0.458511 1.57656
0.568572 0.4574 1.57859
0.711934 0.472374 1.57685
0.903498 0.454255 1.57682
1.23629 0.458208 1.59622
1.29167 0.447456 1.57671
1.37027 0.471212 1.57614
1.47241 0.462099 1.57686
1.53922 0.465558 1.57728
1.93259 0.465243 1.57686
0.414621 0.48817 1.57764
0.619984 0.513805 1.57649
0.768042 0.489252 1.5895
0.830648 0.509533 1.57679
0.920804 0.511035 1.57839
1.00745 0.485959 1.57687
1.18663 0.501495 1.57712
1.2746 0.510245 1.57686
1.42312 0.500279 1.57807
1.64472 0.499102 1.57686
1.70738 0.508728 1.57684
1.77752 0.48916 1.57686
0.13528 0.521861 1.57568
0.191213 0.540025 1.58023
0.522565 0.522735 1.5776
0.987529 0.546563 1.58004
1.05884 0.518614 1.57685
1.22786 0.548232 1.57704
1.47723 0.538743 1.57688
1.55834 0.52399 1.57686
1.91008 0.521598 1.57686
2.16712 0.541123 1.56272
0.266732 0.560325 1.58282
0.380302 0.570849 1.5797
0.473569 0.574584 1.5823
0.533118 0.581389 1.59056
0.637666 0.570704 1.57987
0.724789 0.562511 1.5768
0.77801 0.58311 1.59382
0.835025 0.57013 1.58514
0.905099 0.568657 1.57751
1.09985 0.563342 1.57678
1.16466 0.559723 1.57666
1.27262 0.585006 1.59581
1.32217 0.556997 1.57689
1.41516 0.55957 1.57682
1.64954 0.567127 1.57685
1.74769 0.554709 1.57686
1.84873 0.560807 1.57719
0.142546 0.140699 1.62729
0.394907 0.131546 1.63616
0.650902 0.145904 1.62341
0.821131 0.132366 1.63219
0.97309 0.130487 1.63245
1.03623 0.136979 1.62596
1.11209 0.132479 1.63071
1.16375 0.15846 1.61461
1.40291 0.156445 1.6065
0.563071 0.186622 1.63287
0.716656 0.161157 1.62718
0.819528 0.187198 1.60236
0.884705 0.191579 1.61528
0.157239 0.21275 1.61585
0.274323 0.222839 1.62079
0.38275 0.245827 1.59743
0.540875 0.257924 1.61406
0.466654 0.287628 1.62939
0.245391 0.313358 1.61444
0.368469 0.3379 1.62624
0.683363 0.302427 1.62379
0.810952 0.321687 1.62871
1.23304 0.300323 1.61071
0.0420808 0.362233 1.60508
0.129769 0.356844 1.62031
0.444 0.349291 1.62692
0.710925 0.364824 1.62671
0.847398 0.371117 1.62531
1.57304 0.362507 1.60503
0.264559 0.410474 1.60455
0.316116 0.390045 1.622
0.398481 0.389681 1.62567
1.21792 0.399725 1.60663
1.45606 0.406061 1.60901
0.13076 0.42705 1.62503
0.347416 0.43984 1.62403
0.529787 0.427854 1.62346
0.601426 0.419498 1.62826
0.698433 0.422683 1.63225
1.63286 0.432037 1.62081
0.187841 0.452466 1.62148
0.296098 0.479684 1.61229
0.587952 0.481167 1.63199
1.57763 0.456411 1.62248
0.236582 0.489848 1.61854
0.537175 0.511331 1.63503
1.11417 0.510636 1.60454
0.443996 0.530107 1.60579
0.74814 0.537071 1.6262
1.18294 0.535108 1.62871
1.36959 0.525975 1.59835
0.289128 0.618639 1.63404
0.599418 0.603018 1.61507
0.725215 0.621332 1.63491
0.816081 0.620282 1.62946
1.0325 0.592368 1.60155
1.10281 0.609568 1.61868
1.19316 0.600253 1.60989
1.33453 0.614068 1.62321
1.51206 0.59188 1.60088
0.572221 0.12177 1.64249
1.50534 0.100028 1.66311
0.200232 0.137343 1.66844
0.320216 0.17546 1.62949
0.479583 0.170399 1.66497
1.1008 0.193956 1.63631
0.213504 0.215021 1.63378
0.452007 0.227561 1.64226
0.622017 0.253923 1.64565
0.757667 0.259502 1.65842
0.356275 0.275456 1.64551
0.411245 0.297256 1.64969
0.164827 0.301017 1.64009
0.72212 0.306502 1.66888
1.06543 0.305719 1.63549
0.0794309 0.354084 1.66062
0.258191 0.364801 1.64297
0.313354 0.341519 1.65627
0.522111 0.360733 1.65286
0.641962 0.374003 1.63546
1.52357 0.410449 1.64227
0.2588 0.440193 1.66015
0.466739 0.419667 1.63989
1.01434 0.426025 1.63384
0.799661 0.477509 1.64795
1.44212 0.470464 1.63711
0.355116 0.498736 1.64529
0.41889 0.508606 1.6544
0.47039 0.482187 1.63034
0.098634 0.526202 1.6226
0.583104 0.544293 1.651
0.341475 0.558902 1.63795
0.638845 0.559524 1.64083
0.821652 0.559106 1.65207
0.980682 0.572057 1.63659
0.494658 0.594241 1.64443
0.386481 0.628199 1.63737
0.453015 0.638276 1.64723
0.310947 0.23148 1.66141
0.389594 0.207998 1.67519
0.512306 0.226633 1.66186
0.112238 0.243444 1.66348
0.273705 0.288011 1.67484
0.478645 0.309758 1.68169
0.539681 0.307467 1.67851
0.417405 0.368846 1.67833
0.680445 0.33896 1.6986
0.172912 0.391718 1.67174
0.270575 0.383082 1.70084
0.568751 0.410842 1.68078
0.330963 0.446061 1.68227
0.385074 0.421576 1.6748
0.438232 0.447569 1.68906
0.51166 0.460241 1.66803
0.197763 0.505487 1.65872
0.50563 0.525567 1.68472
0.655817 0.639045 1.66676
0.427842 0.691649 1.70084
0.196779 0.286134 1.7106
0.335173 0.304242 1.69502
0.144411 0.329804 1.68366
0.381541 0.343595 1.7234
0.0217231 0.437879 1.72867
0.330738 0.560353 1.71058
0.772311 0.617595 1.70225
0.322732 0.35929 1.74346
0.179678 0.383211 1.73261
0.404531 0.416433 1.73451
0.180002 0.445959 1.72775
0.347029 0.448179 1.74064
0.319104 0.502331 1.73492
0.4192 0.521596 1.7379
0.498503 0.253983 1.75797
0.230608 0.478968 1.77582
0.133145 0.50156 1.75635
0.299287 0.247375 1.81022
0.442411 0.236129 1.81533
0.432796 0.302258 1.79332
0.476186 0.343657 1.81737
0.499396 0.409304 1.80343
0.126939 0.284236 1.83266
0.187834 0.32549 1.84107
0.345572 0.308923 1.82541
0.282511 0.427246 1.84581
0.180798 0.510604 1.84441
0.383426 0.485675 1.83054
0.196226 0.26238 1.87476
0.356376 0.254196 1.87898
0.256147 0.321804 1.86297
0.110703 0.374435 1.86725
0.415762 0.389621 1.88017
0.107302 0.455042 1.87537
0.49838 0.508374 1.88804
0.44222 0.295647 1.92402
0.346145 0.350757 1.93058
0.475094 0.383761 1.92214
0.214879 0.429082 1.90318
0.466199 0.451954 1.93124
0.236464 0.494005 1.92716
0.430217 0.500721 1.93192
0.339305 0.526873 1.91819
0.271982 0.260644 1.94223
0.321856 0.294278 1.93931
0.125428 0.344451 1.96513
0.282424 0.374546 1.95555
0.323589 0.424937 1.96944
0.104255 0.515661 1.94505
0.103324 0.228818 1.98723
0.161403 0.258279 1.98657
0.363615 0.240431 1.99487
0.425069 0.242959 1.99648
0.499192 0.246026 1.99299
0.189012 0.364304 1.97874
0.415188 0.353574 1.97253
0.115455 0.44409 1.98093
0.40415 0.414672 1.99565
0.158807 0.499296 2.00413
0.370433 0.49856 1.99126
0.264146 0.523422 2.00042
0.257372 0.298287 2.03358
0.31493 0.348737 2.02119
0.484684 0.362834 2.03
0.125062 0.39201 2.03527
0.220666 0.238837 2.04734
0.393674 0.233628 2.06132
0.17717 0.298235 2.0592
0.314466 0.284399 2.05272
0.492483 0.279077 2.0544
0.417494 0.317622 2.05147
0.107591 0.339963 2.06367
0.217234 0.387064 2.04562
0.385775 0.387923 2.06657
0.449749 0.403068 2.05884
0.345938 0.437655 2.07303
0.139724 0.459766 2.06164
0.263093 0.452487 2.05205
0.417911 0.469013 2.04692
0.486571 0.452792 2.05556
0.220758 0.508511 2.05861
0.312076 0.491969 2.0576
0.490194 0.521396 2.06111
0.293957 0.252051 2.10734
0.480794 0.235256 2.11404
0.313064 0.354671 2.09175
0.494465 0.353653 2.09034
0.177639 0.41728 2.09339
0.25883 0.414412 2.1107
0.188867 0.511362 2.11232
0.352584 0.510062 2.10424
0.286065 0.525163 2.10213
0.420914 0.522237 2.09179
0.130146 0.239366 2.11739
0.215119 0.259008 2.12422
0.112395 0.298661 2.11505
0.396036 0.28089 2.12076
0.461831 0.299793 2.12245
0.260232 0.32538 2.13072
0.184207 0.342437 2.1352
0.469219 0.429721 2.12597
0.312883 0.472231 2.13355
0.425503 0.471227 2.12617
0.107222 0.481912 2.14361
0.481601 0.499619 2.11711
0.32799 0.229202 2.18355
0.405689 0.228633 2.16064
0.167912 0.238386 2.17466
0.231382 0.240563 2.18299
0.317332 0.30781 2.16804
0.134053 0.366007 2.15991
0.489016 0.368217 2.16079
0.413738 0.375309 2.15012
0.153204 0.432626 2.15854
0.222179 0.424446 2.17719
0.239416 0.495022 2.17556
0.498927 0.504545 2.17488
0.109866 0.233818 2.19844
0.498812 0.248514 2.20893
0.113197 0.294489 2.18951
0.194033 0.278126 2.21518
0.265839 0.285868 2.2168
0.469257 0.29946 2.19185
0.194635 0.336418 2.19946
0.405808 0.316699 2.19707
0.306002 0.430402 2.1874
0.379233 0.434328 2.19583
0.487806 0.414883 2.21581
0.150905 0.499656 2.21471
0.297107 0.507647 2.19842
0.452328 0.508491 2.21873
0.360463 0.523492 2.18545
0.325604 0.248234 2.24541
0.391248 0.260634 2.22374
0.464139 0.288262 2.2535
0.240166 0.328846 2.25071
0.354308 0.337534 2.23063
0.291855 0.372275 2.22768
0.489514 0.352564 2.22129
0.142017 0.392074 2.23392
0.112907 0.457318 2.24655
0.188866 0.448878 2.22084
0.306813 0.454906 2.25191
0.228203 0.227346 2.26755
0.121163 0.235465 2.25938
0.182449 0.265752 2.28745
0.371199 0.250575 2.28872
0.109346 0.315959 2.27037
0.198909 0.373142 2.28127
0.435393 0.34359 2.28127
0.263606 0.399014 2.2751
0.442633 0.401674 2.25786
0.224919 0.462043 2.28083
0.480028 0.469573 2.28511
0.370146 0.482381 2.28259
0.232349 0.51961 2.2555
0.325501 0.521381 2.25998
0.477175 0.232241 2.30463
0.310551 0.275965 2.30166
0.202651 0.326782 2.31942
0.287412 0.337623 2.29316
0.368802 0.320326 2.29015
0.384965 0.379016 2.325
0.151029 0.419157 2.29396
0.333275 0.414894 2.30173
0.470694 0.421347 2.32073
0.143314 0.508824 2.29199
0.158331 0.259584 2.34919
0.379968 0.260616 2.3478
0.419779 0.314987 2.33386
0.478207 0.314376 2.35397
0.102309 0.339997 2.33882
0.261557 0.393625 2.34365
0.108153 0.438732 2.35855
0.41429 0.434596 2.35731
0.178059 0.478415 2.34491
0.487334 0.474096 2.34584
0.297583 0.511466 2.33592
0.419317 0.494483 2.3471
0.226804 0.518091 2.35666
0.287182 0.241461 2.37538
0.437539 0.252688 2.37571
0.313165 0.295281 2.38233
0.146413 0.330961 2.37865
0.23496 0.304512 2.37559
0.189373 0.382597 2.36159
0.444299 0.395894 2.3932
0.496133 0.384099 2.36079
0.167616 0.430974 2.39451
0.318306 0.424417 2.36625
0.353581 0.483281 2.36649
0.281519 0.521738 2.39447
0.345706 0.244188 2.40848
0.119434 0.281797 2.40643
0.183368 0.299923 2.41745
0.413519 0.31622 2.40723
0.361163 0.357044 2.39824
0.114178 0.389821 2.41746
0.20118 0.391877 2.42642
0.393917 0.429411 2.41729
0.489664 0.438439 2.40411
0.250241 0.450955 2.39964
0.105798 0.50424 2.40445
0.187915 0.515186 2.42538
0.32526 0.484758 2.42005
0.4524 0.512277 2.41886
0.1932 0.229789 2.45297
0.422137 0.237787 2.44647
0.372856 0.301203 2.45603
0.4644 0.282902 2.43546
0.306584 0.303573 2.46311
0.15454 0.359333 2.4512
0.261164 0.39533 2.43092
0.330347 0.403499 2.45088
0.485995 0.385829 2.45292
0.337046 0.231264 2.46864
0.10177 0.254991 2.48716
0.497694 0.256246 2.48034
0.248456 0.285804 2.48542
0.488964 0.318078 2.48029
0.244928 0.34739 2.49499
0.387775 0.408365 2.48781
0.244813 0.43345 2.48185
0.145536 0.471864 2.46705
0.322092 0.457941 2.49624
0.398538 0.477915 2.46576
0.493497 0.449079 2.47063
0.239296 0.494007 2.493
0.308508 0.519363 2.48446
0.200715 0.243234 2.53381
0.271532 0.23235 2.5328
0.389977 0.239061 2.51499
0.465941 0.232795 2.52673
0.150783 0.312529 2.51024
0.430203 0.322942 2.50658
0.359187 0.345598 2.50339
0.206866 0.39261 2.50625
0.462123 0.378122 2.53228
0.114653 0.416417 2.51766
0.100279 0.478463 2.5125
0.195028 0.474388 2.53054
0.496548 0.513622 2.50741
0.119764 0.23589 2.54451
0.340901 0.251487 2.55902
0.252209 0.30257 2.56485
0.399979 0.29937 2.55706
0.334843 0.328269 2.56319
0.493176 0.31314 2.56199
0.145549 0.370736 2.55487
0.203386 0.34301 2.55212
0.402076 0.364491 2.56095
0.253008 0.38524 2.54529
0.32123 0.387645 2.53716
0.388515 0.434845 2.55435
0.489023 0.459055 2.54218
0.1312 0.50645 2.56577
0.277161 0.482116 2.56173
0.348799 0.506378 2.55849
0.434645 0.505695 2.54274
VERTICES 528 1056
1 0
1 1
1 2
1 3
1 4
1 5
1 6
1 7
1 8
1 9
1 10
1 11
1 12
1 13
1 14
1 15
1 16
1 17
1 18
1 19
1 20
1 21
1 22
1 23
1 24
1 25
1 26
1 27
1 28
1 29
1 30
1 31
1 32
1 33
1 34
1 35
1 36
1 37
1 38
1 39
1 40
1 41
1 42
1 43
1 44
1 45
1 46
1 47
1 48
1 49
1 50
1 51
1 52
1 53
1 54
1 55
1 56
1 57
1 58
1 59
1 60
1 61
1 62
1 63
1 64
1 65
1 66
1 67
1 68
1 69
1 70
1 71
1 72
1 73
1 74
1 75
1 76
1 77
1 78
1 79
1 80
1 81
1 82
1 83
1 84
1 85
1 86
1 87
1 88
1 89
1 90
1 91
1 92
1 93
1 94
1 95
1 96
1 97
1 98
1 99
1 100
1 101
1 102
1 103
1 104
1 105
1 106
1 107
1 108
1 109
1 110
1 111
1 112
1 113
1 114
1 115
1 116
1 117
1 118
1 119
1 120
1 121
1 122
1 123
1 124
1 125
1 126
1 127
1 128
1 129
1 130
1 131
1 132
1 133
1 134
1 135
1 136
1 137
1 138
1 139
1 140
1 141
1 142
1 143
1 144
1 145
1 146
1 147
1 148
1 149
1 150
1 151
1 152
1 153
1 154
1 155
1 156
1 157
1 158
1 159
1 160
1 161
1 162
1 163
1 164
1 165
1 166
1 167
1 168
1 169
1 170
1 171
1 172
1 173
1 174
1 175
1 176
1 177
1 178
1 179
1 180
1 181
1 182
1 183
1 184
1 185
1 186
1 187
1 188
1 189
1 190
1 191
1 192
1 193
1 194
1 195
1 196
1 197
1 198
1 199
1 200
1 201
1 202
1 203
1 204
1 205
1 206
1 207
1 208
1 209
1 210
1 211
1 212
1 213
1 214
1 215
1 216
1 217
1 218
1 219
1 220
1 221
1 222
1 223
1 224
1 225
1 226
1 227
1 228
1 229
1 230
1 231
1 232
1 233
1 234
1 235
1 236
1 237
1 238
1 239
1 240
1 241
1 242
1 243
1 244
1 245
1 246
1 247
1 248
1 249
1 250
1 251
1 252
1 253
1 254
1 255
1 256
1 257
1 258
1 259
1 260
1 261
1 262
1 263
1 264
1 265
1 266
1 267
1 268
1 269
1 270
1 271
1 272
1 273
1 274
1 275
1 276
1 277
1 278
1 279
1 280
1 281
1 282
1 283
1 284
1 285
1 286
1 287
1 288
1 289
1 290
1 291
1 292
1 293
1 294
1 295
1 296
1 297
1 298
1 299
1 300
1 301
1 302
1 303
1 304
1 305
1 306
1 307
1 308
1 309
1 310
1 311
1 312
1 313
1 314
1 315
1 316
1 317
1 318
1 319
1 320
1 321
1 322
1 323
1 324
1 325
1 326
1 327
1 328
1 329
1 330
1 331
1 332
1 333
1 334
1 335
1 336
1 337
1 338
1 339
1 340
1 341
1 342
1 343
1 344
1 345
1 346
1 347
1 348
1 349
1 350
1 351
1 352
1 353
1 354
1 355
1 356
1 357
1 358
1 359
1 360
1 361
1 362
1 363
1 364
1 365
1 366
1 367
1 368
1 369
1 370
1 371
1 372
1 373
1 374
1 375
1 376
1 377
1 378
1 379
1 380
1 381
1 382
1 383
1 384
1 385
1 386
1 387
1 388
1 389
1 390
1 391
1 392
1 393
1 394
1 395
1 396
1 397
1 398
1 399
1 400
1 401
1 402
1 403
1 404
1 405
1 406
1 407
1 408
1 409
1 410
1 411
1 412
1 413
1 414
1 415
1 416
1 417
1 418
1 419
1 420
1 421
1 422
1 423
1 424
1 425
1 426
1 427
1 428
1 429
1 430
1 431
1 432
1 433
1 434
1 435
1 436
1 437
1 438
1 439
1 440
1 441
1 442
1 443
1 444
1 445
1 446
1 447
1 448
1 449
1 450
1 451
1 452
1 453
1 454
1 455
1 456
1 457
1 458
1 459
1 460
1 461
1 462
1 463
1 464
1 465
1 466
1 467
1 468
1 469
1 470
1 471
1 472
1 473
1 474
1 475
1 476
1 477
1 478
1 479
1 480
1 481
1 482
1 483
1 484
1 485
1 486
1 487
1 488
1 489
1 490
1 491
1 492
1 493
1 494
1 495
1 496
1 497
1 498
1 499
1 500
1 501
1 502
1 503
1 504
1 505
1 506
1 507
1 508
1 509
1 510
1 511
1 512
1 513
1 514
1 515
1 516
1 517
1 518
1 519
1 520
1 521
1 522
1 523
1 524
1 525
1 526
1 527
POINT_DATA 528
VECTORS i float
0.0 0.0 0.0
0.0 0.0 0.0
0.0 0.0 0.0
0.0 0.0 0.0
0.0 0.0 0.0
0.0 0.0 0.0
0.0 0.0 0.0
0.0 0.0 0.0
0.0 0.0 0.0
0.0 0.0 0.0
0.0 0.0 0.0
0.0 0.0 0.0
0.0 0.0 0.0
0.0 0.0 0.0
0.0 0.0 0.0
0.0 0.0 0.0
0.0 0.0 0.0
0.0 0.0 0.0
0.0 0.0 0.0
0.0 0.0 0.0
0.0 0.0 0.0
0.0 0.0 0.0
0.0 0.0 0.0
0.0 0.0 0.0
0.0 0.0 0.0
0.0 0.0 0.0
0.0 0.0 0.0
0.0 0.0 0.0
0.0 0.0 0.0
0.0 0.0 0.0
0.0 0.0 0.0
0.0 0.0 0.0
0.0 0.0 0.0
0.0 0.0 0.0
0.0 0.0 0.0
0.0 0.0 0.0
0.0 0.0 0.0
0.0 0.0 0.0
0.0 0.0 0.0
0.0 0.0 0.0
0.0 0.0 0.0
0.0 0.0 0.0
0.0 0.0 0.0
0.0 0.0 0.0
0.0 0.0 0.0
0.0 0.0 0.0
0.0 0.0 0.0
0.0 0.0 0.0
0.0 0.0 0.0
0.0 0.0 0.0
0.0 0.0 0.0
0.0 0.0 0.0
0.0 0.0 0.0
0.0 0.0 0.0
0.0 0.0 0.0
0.0 0.0 0.0
0.0 0.0 0.0
0.0 0.0 0.0
0.0 0.0 0.0
0.0 0.0 0.0
0.0 0.0 0.0
0.0 0.0 0.0
0.0 0.0 0.0
0.0 0.0 0.0
0.0 0.0 0.0
0.0 0.0 0.0
0.0 0.0 0.0
0.0 0.0 0.0
0.0 0.0 0.0
0.0 0.0 0.0
0.0 0.0 0.0
0.0 0.0 0.0
0.0 0.0 0.0
0.0 0.0 0.0
0.0 0.0 0.0
0.0 0.0 0.0
0.0 0.0 0.0
0.0 0.0 0.0
0.0 0.0 0.0
0.0 0.0 0.0
0.0 0.0 0.0
0.0 0.0 0.0
0.0 0.0 0.0
0.0 0.0 0.0
0.0 0.0 0.0
0.0 0.0 0.0
0.0 0.0 0.0
0.0 0.0 0.0
0.0 0.0 0.0
0.0 0.0 0.0
0.0 0.0 0.0
0.0 0.0 0.0
0.0 0.0 0.0
0.0 0.0 0.0
0.0 0.0 0.0
0.0 0.0 0.0
0.0 0.0 0.0
0.0 0.0 0.0
0.0 0.0 0.0
0.0 0.0 0.0
0.0 0.0 0.0
0.0 0.0 0.0
0.0 0.0 0.0
0.0 0.0 0.0
0.0 0.0 0.0
0.0 0.0 0.0
0.0 0.0 0.0
0.0 0.0 0.0
0.0 0.0 0.0
0.0 0.0 0.0
0.0 0.0 0.0
0.0 0.0 0.0
0.0 0.0 0.0
0.0 0.0 0.0
0.0 0.0 0.0
0.0 0.0 0.0
0.0 0.0 0.0
0.0 0.0 0.0
0.0 0.0 0.0
0.0 0.0 0.0
0.0 0.0 0.0
0.0 0.0 0.0
0.0 0.0 0.0
0.0 0.0 0.0
0.0 0.0 0.0
0.0 0.0 0.0
0.0 0.0 0.0
0.0 0.0 0.0
0.0 0.0 0.0
0.0 0.0 0.0
0.0 0.0 0.0
0.0 0.0 0.0
0.0 0.0 0.0
0.0 0.0 0.0
0.0 0.0 0.0
0.0 0.0 0.0
0.0 0.0 0.0
0.0 0.0 0.0
0.0 0.0 0.0
0.0 0.0 0.0
0.0 0.0 0.0
0.0 0.0 0.0
0.0 0.0 0.0
0.0 0.0 0.0
0.0 0.0 0.0
0.0 0.0 0.0
0.0 0.0 0.0
0.0 0.0 0.0
0.0 0.0 0.0
0.0 0.0 0.0
0.0 0.0 0.0
0.0 0.0 0.0
0.0 0.0 0.0
0.0 0.0 0.0
0.0 0.0 0.0
0.0 0.0 0.0
0.0 0.0 0.0
0.0 0.0 0.0
0.0 0.0 0.0
0.0 0.0 0.0
0.0 0.0 0.0
0.0 0.0 0.0
0.0 0.0 0.0
0.0 0.0 0.0
0.0 0.0 0.0
0.0 0.0 0.0
0.0 0.0 0.0
0.0 0.0 0.0
0.0 0.0 0.0
0.0 0.0 0.0
0.0 0.0 0.0
0.0 0.0 0.0
0.0 0.0 0.0
0.0 0.0 0.0
0.0 0.0 0.0
0.0 0.0 0.0
0.0 0.0 0.0
0.0 0.0 0.0
0.0 0.0 0.0
0.0 0.0 0.0
0.0 0.0 0.0
0.0 0.0 0.0
0.0 0.0 0.0
0.0 0.0 0.0
0.0 0.0 0.0
0.0 0.0 0.0
0.0 0.0 0.0
0.0 0.0 0.0
0.0 0.0 0.0
0.0 0.0 0.0
0.0 0.0 0.0
0.0 0.0 0.0
0.0 0.0 0.0
0.0 0.0 0.0
0.0 0.0 0.0
0.0 0.0 0.0
0.0 0.0 0.0
0.0 0.0 0.0
0.0 0.0 0.0
0.0 0.0 0.0
0.0 0.0 0.0
0.0 0.0 0.0
0.0 0.0 0.0
0.0 0.0 0.0
0.0 0.0 0.0
0.0 0.0 0.0
0.0 0.0 0.0
0.0 0.0 0.0
0.0 0.0 0.0
0.0 0.0 0.0
0.0 0.0 0.0
0.0 0.0 0.0
0.0 0.0 0.0
0.0 0.0 0.0
0.0 0.0 0.0
0.0 0.0 0.0
0.0 0.0 0.0
0.0 0.0 0.0
0.0 0.0 0.0
0.0 0.0 0.0
0.0 0.0 0.0
0.0 0.0 0.0
0.0 0.0 0.0
0.0 0.0 0.0
0.0 0.0 0.0
0.0 0.0 0.0
0.0 0.0 0.0
0.0 0.0 0.0
0.0 0.0 0.0
0.0 0.0 0.0
0.0 0.0 0.0
0.0 0.0 0.0
0.0 0.0 0.0
0.0 0.0 0.0
0.0 0.0 0.0
0.0 0.0 0.0
0.0 0.0 0.0
0.0 0.0 0.0
0.0 0.0 0.0
0.0 0.0 0.0
0.0 0.0 0.0
0.0 0.0 0.0
0.0 0.0 0.0
0.0 0.0 0.0
0.0 0.0 0.0
0.0 0.0 0.0
0.0 0.0 0.0
0.0 0.0 0.0
0.0 0.0 0.0
0.0 0.0 0.0
0.0 0.0 0.0
0.0 0.0 0.0
0.0 0.0 0.0
0.0 0.0 0.0
0.0 0.0 0.0
0.0 0.0 0.0
0.0 0.0 0.0
0.0 0.0 0.0
0.0 0.0 0.0
0.0 0.0 0.0
0.0 0.0 0.0
0.0 0.0 0.0
0.0 0.0 0.0
0.0 0.0 0.0
0.0 0.0 0.0
0.0 0.0 0.0
0.0 0.0 0.0
0.0 0.0 0.0
0.0 0.0 0.0
0.0 0.0 0.0
0.0 0.0 0.0
0.0 0.0 0.0
0.0 0.0 0.0
0.0 0.0 0.0
0.0 0.0 0.0
0.0 0.0 0.0
0.0 0.0 0.0
0.0 0.0 0.0
0.0 0.0 0.0
0.0 0.0 0.0
0.0 0.0 0.0
0.0 0.0 0.0
0.0 0.0 0.0
0.0 0.0 0.0
0.0 0.0 0.0
0.0 0.0 0.0
0.0 0.0 0.0
0.0 0.0 0.0
0.0 0.0 0.0
0.0 0.0 0.0
0.0 0.0 0.0
0.0 0.0 0.0
0.0 0.0 0.0
0.0 0.0 0.0
0.0 0.0 0.0
0.0 0.0 0.0
0.0 0.0 0.0
0.0 0.0 0.0
0.0 0.0 0.0
0.0 0.0 0.0
0.0 0.0 0.0
0.0 0.0 0.0
0.0 0.0 0.0
0.0 0.0 0.0
0.0 0.0 0.0
0.0 0.0 0.0
0.0 0.0 0.0
0.0 0.0 0.0
0.0 0.0 0.0
0.0 0.0 0.0
0.0 0.0 0.0
0.0 0.0 0.0
0.0 0.0 0.0
0.0 0.0 0.0
0.0 0.0 0.0
0.0 0.0 0.0
0.0 0.0 0.0
0.0 0.0 0.0
0.0 0.0 0.0
0.0 0.0 0.0
0.0 0.0 0.0
0.0 0.0 0.0
0.0 0.0 0.0
0.0 0.0 0.0
0.0 0.0 0.0
0.0 0.0 0.0
0.0 0.0 0.0
0.0 0.0 0.0
0.0 0.0 0.0
0.0 0.0 0.0
0.0 0.0 0.0
0.0 0.0 0.0
0.0 0.0 0.0
0.0 0.0 0.0
0.0 0.0 0.0
0.0 0.0 0.0
0.0 0.0 0.0
0.0 0.0 0.0
0.0 0.0 0.0
0.0 0.0 0.0
0.0 0.0 0.0
0.0 0.0 0.0
0.0 0.0 0.0
0.0 0.0 0.0
0.0 0.0 0.0
0.0 0.0 0.0
0.0 0.0 0.0
0.0 0.0 0.0
0.0 0.0 0.0
0.0 0.0 0.0
0.0 0.0 0.0
0.0 0.0 0.0
0.0 0.0 0.0
0.0 0.0 0.0
0.0 0.0 0.0
0.0 0.0 0.0
0.0 0.0 0.0
0.0 0.0 0.0
0.0 0.0 0.0
0.0 0.0 0.0
0.0 0.0 0.0
0.0 0.0 0.0
0.0 0.0 0.0
0.0 0.0 0.0
0.0 0.0 0.0
0.0 0.0 0.0
0.0 0.0 0.0
0.0 0.0 0.0
0.0 0.0 0.0
0.0 0.0 0.0
0.0 0.0 0.0
0.0 0.0 0.0
0.0 0.0 0.0
0.0 0.0 0.0
0.0 0.0 0.0
0.0 0.0 0.0
0.0 0.0 0.0
0.0 0.0 0.0
0.0 0.0 0.0
0.0 0.0 0.0
0.0 0.0 0.0
0.0 0.0 0.0
0.0 0.0 0.0
0.0 0.0 0.0
0.0 0.0 0.0
0.0 0.0 0.0
0.0 0.0 0.0
0.0 0.0 0.0
0.0 0.0 0.0
0.0 0.0 0.0
0.0 0.0 0.0
0.0 0.0 0.0
0.0 0.0 0.0
0.0 0.0 0.0
0.0 0.0 0.0
0.0 0.0 0.0
0.0 0.0 0.0
0.0 0.0 0.0
0.0 0.0 0.0
0.0 0.0 0.0
0.0 0.0 0.0
0.0 0.0 0.0
0.0 0.0 0.0
0.0 0.0 0.0
0.0 0.0 0.0
0.0 0.0 0.0
0.0 0.0 0.0
0.0 0.0 0.0
0.0 0.0 0.0
0.0 0.0 0.0
0.0 0.0 0.0
0.0 0.0 0.0
0.0 0.0 0.0
0.0 0.0 0.0
0.0 0.0 0.0
0.0 0.0 0.0
0.0 0.0 0.0
0.0 0.0 0.0
0.0 0.0 0.0
0.0 0.0 0.0
0.0 0.0 0.0
0.0 0.0 0.0
0.0 0.0 0.0
0.0 0.0 0.0
0.0 0.0 0.0
0.0 0.0 0.0
0.0 0.0 0.0
0.0 0.0 0.0
0.0 0.0 0.0
0.0 0.0 0.0
0.0 0.0 0.0
0.0 0.0 0.0
0.0 0.0 0.0
0.0 0.0 0.0
0.0 0.0 0.0
0.0 0.0 0.0
0.0 0.0 0.0
0.0 0.0 0.0
0.0 0.0 0.0
0.0 0.0 0.0
0.0 0.0 0.0
0.0 0.0 0.0
0.0 0.0 0.0
0.0 0.0 0.0
0.0 0.0 0.0
0.0 0.0 0.0
0.0 0.0 0.0
0.0 0.0 0.0
0.0 0.0 0.0
0.0 0.0 0.0
0.0 0.0 0.0
0.0 0.0 0.0
0.0 0.0 0.0
0.0 0.0 0.0
0.0 0.0 0.0
0.0 0.0 0.0
0.0 0.0 0.0
0.0 0.0 0.0
0.0 0.0 0.0
0.0 0.0 0.0
0.0 0.0 0.0
0.0 0.0 0.0
0.0 0.0 0.0
0.0 0.0 0.0
0.0 0.0 0.0
0.0 0.0 0.0
0.0 0.0 0.0
0.0 0.0 0.0
0.0 0.0 0.0
0.0 0.0 0.0
0.0 0.0 0.0
0.0 0.0 0.0
0.0 0.0 0.0
0.0 0.0 0.0
0.0 0.0 0.0
0.0 0.0 0.0
0.0 0.0 0.0
0.0 0.0 0.0
0.0 0.0 0.0
0.0 0.0 0.0
0.0 0.0 0.0
0.0 0.0 0.0
0.0 0.0 0.0
0.0 0.0 0.0
0.0 0.0 0.0
0.0 0.0 0.0
0.0 0.0 0.0
0.0 0.0 0.0
0.0 0.0 0.0
0.0 0.0 0.0
0.0 0.0 0.0
0.0 0.0 0.0
0.0 0.0 0.0
0.0 0.0 0.0
0.0 0.0 0.0
0.0 0.0 0.0
0.0 0.0 0.0
0.0 0.0 0.0
0.0 0.0 0.0
0.0 0.0 0.0
0.0 0.0 0.0
0.0 0.0 0.0
0.0 0.0 0.0
0.0 0.0 0.0
0.0 0.0 0.0
0.0 0.0 0.0
0.0 0.0 0.0
0.0 0.0 0.0
0.0 0.0 0.0
0.0 0.0 0.0
0.0 0.0 0.0
0.0 0.0 0.0
0.0 0.0 0.0
0.0 0.0 0.0
0.0 0.0 0.0
0.0 0.0 0.0
0.0 0.0 0.0
0.0 0.0 0.0
0.0 0.0 0.0
0.0 0.0 0.0
0.0 0.0 0.0
0.0 0.0 0.0
0.0 0.0 0.0
0.0 0.0 0.0
0.0 0.0 0.0
0.0 0.0 0.0
0.0 0.0 0.0
0.0 0.0 0.0
VECTORS f float
0.0 0.0 -2.77371
0.0 0.0 -2.77371
0.0 0.0 -2.77371
0.0 0.0 -2.77371
0.0 0.0 -2.77371
-14.1779 -9.00565 -16.8094
-0.132954 -2.93749 -4.61283
0.0 0.0 -2.77371
4.93682 0.467495 7.29165
-0.173165 0.254599 2.63685
-0.000750721 2.05385e-05 -0.0214753
-0.167263 0.00242369 -2.13926
0.00023993 -2.46363e-06 0.012403
-0.000628855 0.990691 -0.988273
3.13448 4.90179 4.12303
0.0 0.0 -2.77371
0.0 0.0 -2.77371
0.0 0.0 -2.77371
-49.3132 -20.0297 -78.2548
0.0555477 0.0817346 0.462081
0.0 0.0 -2.77371
0.0 0.0 -2.77371
1.1207 1.04087 0.285291
-0.00137226 -0.000393454 0.0724398
1.25731 0.515112 -0.0562413
4.22003e-10 -4.97686e-11 -5.43781e-09
0.0 0.0 -2.77371
-5.80164 4.15508 -6.11364
0.0 0.0 -2.77371
-3.32877 -3.51502 -5.39648
0.0 0.0 -2.77371
1.03684 2.0728 -11.2297
0.958998 0.169371 -0.826034
0.0 0.0 -2.77371
-0.0568487 0.0439306 -3.11276
-1.70917 -6.8625 -8.82857
-3.48736e-05 1.41291e-06 -0.00257382
1.58747 0.941078 0.952226
0.0 0.0 -2.77371
-0.00186961 0.000329309 -0.0309409
18.7858 -1.78027 22.0377
7.11857 -1.93572 6.52417
-5.71987 -2.17916 7.93537
9.28646 -1.68643 30.9362
14.2028 1.99739 25.9114
0.0018176 1.55821 -2.88402
0.0444422 -0.848786 7.18864
-2.29828 -0.752989 0.860973
3.95417 0.253502 -0.862492
1.63932 -0.422006 2.41621
1.21689 -0.315684 -2.25364
-0.00379758 0.000211256 0.0562751
-1.28141e-06 7.68765e-08 -2.76862e-05
4.49727e-09 -1.6361e-09 3.70227e-07
0.0 0.0 -2.77371
1.46832 2.03981 -7.80036
-0.0905058 -0.0671892 -2.99915
0.0 0.0 -2.77371
-0.0138803 0.000764376 0.0698054
0.0241035 0.0798155 0.287308
-0.0549735 0.230401 0.276062
0.0917334 0.0810735 -1.54907
35.8644 -8.68881 46.7642
-54.9344 43.8109 -97.2644
-3.66789 -2.47039 1.01919
12.6853 2.12646 3.90288
0.0 0.0 -2.77371
3.49061 0.529195 -5.01435
-0.000628405 -0.000114168 -0.0805835
0.604674 1.55824 0.40628
-0.050302 -0.278583 -0.453766
0.00716311 0.00920086 0.00337154
-0.0656177 0.0176863 -1.46122
-0.00201376 -0.000508086 0.151005
1.62255 0.994995 1.40235
-0.000725889 0.000103716 -0.0397435
3.82341 -0.96686 7.54472
-30.1309 23.9533 -10.757
-0.0247147 0.000387984 -0.317276
0.00509258 -0.000290677 0.0196242
0.0 0.0 -2.77371
0.0109583 -0.00287548 0.0500528
-0.104634 -0.135489 0.00782942
0.00319416 0.107151 -2.55931
-3.41078 -6.79006 -1.32469
0.58049 0.380459 -0.349884
0.308016 0.346491 0.70149
-16.605 6.57285 -2.72599
-7.13186 -10.6775 5.54885
0.0101081 -6.08307 5.78549
-0.000385515 1.839e-05 0.00503941
3.89168 -2.99998 31.08
0.00435832 3.02543e-05 0.819931
0.648714 0.744277 1.19031
4.78394 -5.96739 7.37977
0.0 0.0 -2.77371
-0.120926 0.659305 -0.640202
5.13625 4.81796 0.0733182
0.629305 2.17009 -0.525797
1.36081 0.313552 -0.905708
0.0 0.0 -2.77371
-9.67176 25.4921 -48.7665
13.8841 3.1718 17.402
0.0 0.0 -2.77371
-0.0127338 0.0024937 -0.0500478
0.434247 -14.6526 -23.166
-1.40055 0.317365 -1.30724
-0.302846 0.043794 2.67102
5.33893 3.62397 8.78476
4.8328e-05 3.6095e-06 0.00111804
0.0 0.0 -2.77371
0.00688627 0.000100388 0.210321
-5.92613 -8.71411 3.49955
-0.440244 -3.34649 2.70745
0.0219324 0.00712483 -2.75522
0.0897905 -0.171565 1.52535
1.97935 23.9864 25.3345
-0.950017 0.520907 -6.38344
-0.36012 1.50209 -2.20808
-6.63591e-05 6.92269e-05 -0.0115763
-0.00599413 0.0442448 -2.75254
-0.0015622 -0.000234677 -0.0416859
-0.0200991 -0.000221865 -0.0713156
-0.00234453 -0.000446258 -0.0235995
-8.1276 6.48176 -33.359
10.1516 3.4009 3.6563
0.0 0.0 -2.77371
0.0 0.0 -2.77371
-0.14713 0.00276612 -1.5035
0.0929379 0.0641909 -1.23198
-0.0170831 -0.000514176 -0.467199
-6.49617e-05 -6.30478e-06 -0.000704192
0.000211009 5.50594e-06 -0.00621389
0.0 0.0 -2.77371
0.0 0.0 -2.77371
-1.98173 3.24852 -5.82395
11.1754 12.9652 5.70098
-1.10463 -1.52452 -1.16983
0.746116 3.94819 1.85216
-3.6625 -2.88606 -3.98936
-6.25662 7.13171 -0.464511
12.5361 -3.82131 1.43514
-0.565472 2.48942 -2.64276
0.000217613 -0.0123704 1.41319
0.370446 -0.243803 1.23496
0.024335 -0.0132049 -2.80134
0.0167473 -0.00518463 -0.341855
-0.0179496 -2.05601 1.22893
-0.0263289 -0.000612159 -0.081294
0.00485552 -0.00181644 0.0514237
0.0 0.0 -2.77371
0.0 0.0 -2.77371
0.0 0.0 -2.77371
0.0 0.0 -2.77371
0.0 0.0 -2.77371
0.00159083 1.06205 -0.922985
0.503922 0.795401 -0.77904
0.145102 -0.191834 -2.99712
-0.24008 -0.493369 -1.56703
6.00607e-06 0.99713 -0.981306
0.0 0.0 -2.77371
0.0 0.0 -2.77371
0.0 0.0 -2.77371
0.0 0.0 -2.77371
-3.1005 -3.64079 -1.48331
18.4781 8.83583 20.0646
0.132954 2.93749 -0.934598
5.45399 -6.88417 18.7515
12.8724 -13.0631 26.3436
-5.71949 4.24798 6.16363
57.9382 -39.2712 91.0946
2.36444 1.41268 -1.02915
-0.878882 -2.03465 6.26812
1.87748 18.3178 18.7481
3.94509 -5.53575 7.16951
0.0 0.0 -2.77371
-2.21338 0.795764 0.394851
-0.0338243 -6.41633 -6.35079
0.0 0.0 -2.77371
0.0 0.0 -2.77371
2.41679 -1.43924 -2.34879
9.5874 2.06609 5.80066
-2.77527 -3.29723 -4.08093
-0.135255 0.547419 -1.92408
7.24795 -4.76436 3.95773
20.2284 -34.3386 36.6824
8.79089 5.55733 1.15749
7.38912 -34.0136 -60.3479
0.0 0.0 -2.77371
0.0338243 6.41633 0.80337
0.0 0.0 -2.77371
-1.82048 1.16739 -1.80131
0.0 0.0 -2.77371
5.6896 -5.24833 -6.70297
0.0 0.0 -2.77371
22.9 2.867 -150.138
-16.8317 -6.31001 -2.82356
0.0 0.0 -2.77371
8.66802 6.95781 -0.669313
0.0 0.0 -2.77371
0.0 0.0 -2.77371
-1.65473 6.37677 2.98013
0.0 0.0 -2.77371
0.0 0.0 -2.77371
0.0 0.0 -2.77371
0.00100728 -0.993879 -0.983251
0.00292819 -0.956973 -1.01272
0.699109 -0.900725 -0.89971
0.855208 1.86229 0.705771
1.0096 -1.27909 -0.205484
0.0998426 -2.51953 0.654703
0.0 0.0 -2.77371
0.119369 0.254185 -2.07283
0.0 0.0 -2.77371
0.0 0.0 -2.77371
0.0 0.0 -2.77371
0.0 0.0 -2.77371
3.1005 3.64079 -4.06411
0.0 0.0 -2.77371
0.0 0.0 -2.77371
0.0916126 -0.0612635 -2.75732
-47.6395 9.4646 -77.4994
44.0423 -8.8515 72.8849
42.9299 -55.1012 -75.8428
0.870895 0.6054 -1.80158
0.826012 0.582576 -0.482357
0.0 0.0 -2.77371
0.0 0.0 -2.77371
-14.1631 13.6658 -36.6746
0.0 0.0 -2.77371
0.0 0.0 -2.77371
0.0 0.0 -2.77371
0.0 0.0 -2.77371
0.0 0.0 -2.77371
-2.6294 0.60085 22.247
0.0 0.0 -2.77371
0.0 0.0 -2.77371
0.0 0.0 -2.77371
-6.24485 -3.15318 9.04911
3.59646 5.69696 -6.36297
-5.44662 -8.36649 16.4799
-10.043 -6.48107 11.9051
0.0 0.0 -2.77371
21.1851 18.0394 -13.4734
0.0 0.0 -2.77371
0.0 0.0 -2.77371
0.0 0.0 -2.77371
0.00795031 -1.08481 -0.899265
0.14585 0.197376 -2.99073
64.9501 16.1022 79.3939
0.0 0.0 -2.77371
0.0 0.0 -2.77371
0.0 0.0 -2.77371
0.0 0.0 -2.77371
5.8728 12.0154 29.4502
0.0 0.0 -2.77371
-0.228511 -1.24252 -0.844145
0.0 0.0 -2.77371
0.0 0.0 -2.77371
0.0 0.0 -2.77371
0.0 0.0 -2.77371
0.591057 -0.308366 -2.99501
-0.591057 0.308366 -2.55241
0.0 0.0 -2.77371
-7.38912 34.0136 54.8005
-22.9 -2.867 144.59
0.0 0.0 -2.77371
0.0 0.0 -2.77371
0.724567 -0.897701 -1.45827
0.0 0.0 -2.77371
17.3518 -31.0947 34.7866
-42.9299 55.1012 70.2954
0.0 0.0 -2.77371
0.0 0.0 -2.77371
0.0 0.0 -2.77371
0.0 0.0 -2.77371
0.0 0.0 -2.77371
0.0 0.0 -2.77371
0.0 0.0 -2.77371
0.0 0.0 -2.77371
0.0 0.0 -2.77371
0.0 0.0 -2.77371
0.0 0.0 -2.77371
0.0 0.0 -2.77371
0.0 0.0 -2.77371
0.0 0.0 -2.77371
0.0 0.0 -2.77371
0.0 0.0 -2.77371
0.0 0.0 -2.77371
0.0 0.0 -2.77371
0.0 0.0 -2.77371