# vtk DataFile Version 2.0
Generated by lpp.py
ASCII
DATASET POLYDATA
POINTS 353 float
0.29648 0.182912 1.58006
0.574861 0.17414 1.5888
0.671528 0.183754 1.5793
0.731414 0.18832 1.57683
0.784207 0.164618 1.59875
0.871939 0.188664 1.57686
0.950534 0.172851 1.59009
1.00815 0.194946 1.57679
1.06891 0.183477 1.57919
0.365693 0.192061 1.57636
0.445211 0.221198 1.58191
0.10612 0.263216 1.57853
0.177015 0.23667 1.57621
0.297852 0.252741 1.57841
0.386912 0.256644 1.57699
0.566105 0.25589 1.57655
0.623153 0.261679 1.58651
0.75829 0.241835 1.57711
0.831604 0.236829 1.57692
0.950332 0.240223 1.57684
1.03823 0.24637 1.57694
1.10196 0.233238 1.57788
0.710509 0.277556 1.57674
0.139943 0.312485 1.58031
0.22639 0.338256 1.57797
0.474338 0.312183 1.57704
0.985149 0.30767 1.58055
0.110908 0.363748 1.58257
0.317672 0.351772 1.57473
0.406107 0.346471 1.57717
0.563681 0.359702 1.57671
0.688393 0.362197 1.5764
0.792801 0.364335 1.57686
0.169487 0.376861 1.57423
0.24575 0.396058 1.57525
0.371691 0.395033 1.57788
0.516609 0.400566 1.57514
0.849639 0.397212 1.57687
0.938674 0.408791 1.57733
0.091885 0.443394 1.57695
0.456576 0.412921 1.57666
0.557393 0.444142 1.57871
0.6504 0.417774 1.57684
0.714717 0.44175 1.57686
0.234978 0.454985 1.57678
0.317784 0.455587 1.57753
0.501569 0.467758 1.5767
0.777978 0.471016 1.57686
0.962482 0.46249 1.59354
1.175 0.448649 1.57686
0.395478 0.483325 1.59054
0.641999 0.511202 1.57801
1.02399 0.508108 1.57686
0.0347474 0.535643 1.58223
0.135174 0.539328 1.57969
0.277804 0.553391 1.58053
0.356686 0.530693 1.57852
0.711349 0.521341 1.5773
1.07708 0.540062 1.57687
1.23321 0.52366 1.57686
0.420122 0.555959 1.57454
0.503443 0.554698 1.57803
0.637287 0.570395 1.57858
0.692317 0.586019 1.59512
0.772294 0.569971 1.57906
0.82879 0.562069 1.59586
0.926557 0.561522 1.57953
1.00019 0.577714 1.58689
0.423158 0.160878 1.60073
0.477575 0.180305 1.61877
0.0667792 0.217074 1.60313
0.145168 0.229147 1.62749
0.37609 0.216814 1.62887
0.229842 0.232686 1.60133
0.416831 0.259421 1.63178
0.674006 0.238895 1.60247
0.228839 0.290573 1.61686
0.296097 0.30071 1.6215
0.534316 0.299547 1.61042
0.354891 0.323483 1.6082
0.605122 0.317964 1.60759
0.269843 0.358914 1.61301
0.407922 0.374069 1.63432
0.493756 0.348993 1.62141
0.965728 0.371854 1.61728
0.351665 0.392225 1.63776
0.537205 0.405826 1.62944
0.428506 0.429422 1.63212
0.588375 0.459173 1.63356
0.682371 0.466651 1.62299
0.184304 0.498862 1.59932
0.288849 0.503534 1.60918
0.451387 0.490224 1.60326
0.829344 0.508491 1.62184
0.090616 0.518081 1.61814
0.539938 0.55241 1.62735
0.386729 0.59818 1.60741
0.548676 0.611773 1.62301
0.57151 0.117945 1.64616
0.753439 0.120756 1.64219
0.357871 0.135142 1.65897
0.811641 0.179262 1.66104
0.202653 0.244889 1.65028
0.552248 0.247758 1.63857
0.7563 0.244875 1.63748
0.264235 0.268778 1.66886
0.491343 0.267103 1.63908
0.623866 0.279914 1.6507
0.693134 0.283732 1.64729
0.42653 0.318965 1.65586
0.318005 0.355369 1.67116
0.621783 0.370581 1.63805
0.113296 0.448923 1.63017
0.368694 0.454368 1.63578
0.488283 0.457432 1.63275
0.336458 0.519645 1.64161
0.395507 0.532195 1.62392
0.627081 0.565477 1.66128
0.775646 0.555961 1.63745
0.328965 0.600815 1.6454
0.333439 0.250325 1.66106
0.375696 0.345368 1.67456
0.169236 0.376906 1.65976
0.467303 0.394331 1.6674
0.76843 0.388335 1.70056
0.261213 0.437273 1.68241
0.31964 0.417307 1.68056
0.507144 0.429064 1.70203
0.666075 0.445697 1.68884
0.199726 0.484865 1.66016
0.271234 0.493933 1.66437
0.44439 0.513712 1.65869
0.540378 0.523345 1.68049
0.577291 0.568761 1.70002
0.629019 0.673573 1.68303
0.632697 0.235042 1.70807
0.527261 0.747433 1.73281
0.47999 0.300848 1.72491
0.103577 0.34242 1.73749
0.230407 0.340128 1.73183
0.380254 0.404128 1.74706
0.441781 0.458388 1.74103
0.131272 0.513706 1.73401
0.254698 0.262308 1.77551
0.417913 0.266516 1.75393
0.121033 0.279919 1.77455
0.287678 0.358468 1.77292
0.227036 0.399722 1.76703
0.448915 0.39365 1.76547
0.35506 0.52072 1.78705
0.187546 0.294736 1.79106
0.378219 0.307765 1.81529
0.208645 0.523817 1.81787
0.365118 0.235733 1.83096
0.360498 0.363939 1.8453
0.10427 0.421706 1.84069
0.200976 0.455034 1.82926
0.317689 0.454971 1.85614
0.491668 0.49724 1.85227
0.29951 0.265646 1.89333
0.26261 0.317421 1.89307
0.121236 0.342722 1.89378
0.234882 0.370686 1.88762
0.387139 0.48601 1.88478
0.136955 0.241756 1.92546
0.478513 0.241448 1.91859
0.200031 0.295208 1.92039
0.352336 0.290052 1.93243
0.43656 0.349215 1.92003
0.288982 0.398489 1.92362
0.41824 0.41741 1.92475
0.250123 0.467148 1.91366
0.124302 0.506318 1.90109
0.302009 0.506095 1.93147
0.473517 0.305435 1.97039
0.18594 0.400862 1.93457
0.485376 0.385518 1.95014
0.106832 0.451129 1.95488
0.485548 0.450278 1.93454
0.136852 0.289242 2.00445
0.416409 0.288456 2.00622
0.195772 0.344168 1.98922
0.323211 0.457255 1.98304
0.398493 0.508779 1.99788
0.180109 0.517525 1.98107
0.260718 0.244031 2.03866
0.211371 0.280829 2.02198
0.305852 0.287522 2.03427
0.499385 0.279499 2.04045
0.373442 0.329195 2.04205
0.102791 0.340368 2.04256
0.269256 0.359202 2.01388
0.485374 0.358108 2.02971
0.218921 0.397847 2.0142
0.349719 0.399621 2.0225
0.422187 0.378047 2.03341
0.169637 0.459874 2.03092
0.428381 0.4467 2.00933
0.245914 0.511668 2.02102
0.466202 0.49757 2.01781
0.103225 0.518985 2.03412
0.174537 0.231131 2.06705
0.346739 0.243699 2.06339
0.411604 0.238101 2.05847
0.108104 0.281799 2.06625
0.157239 0.333515 2.06883
0.478405 0.411198 2.06488
0.370548 0.454286 2.06699
0.209404 0.487055 2.0718
0.341446 0.508108 2.08034
0.283642 0.234209 2.10096
0.469838 0.243492 2.08354
0.225054 0.287898 2.10782
0.268169 0.352895 2.10098
0.478946 0.338932 2.10164
0.121741 0.410905 2.09674
0.189941 0.428545 2.08494
0.267329 0.456169 2.08542
0.43276 0.446836 2.0846
0.496878 0.474265 2.10193
0.122063 0.498448 2.09566
0.429885 0.51089 2.09308
0.222298 0.231508 2.13943
0.144959 0.253084 2.1199
0.353756 0.288308 2.1221
0.419349 0.297497 2.13155
0.107864 0.308056 2.1337
0.32031 0.335135 2.1467
0.216531 0.381594 2.13634
0.33513 0.393755 2.11779
0.434422 0.399982 2.12934
0.177321 0.473873 2.1323
0.3755 0.471214 2.12858
0.287754 0.512498 2.12063
0.482317 0.228242 2.16854
0.100828 0.246005 2.18484
0.386528 0.235346 2.16474
0.17305 0.29572 2.16163
0.280967 0.269166 2.16746
0.470734 0.315695 2.17592
0.383297 0.361785 2.18306
0.142292 0.405308 2.17272
0.289149 0.393948 2.16364
0.10269 0.478868 2.17007
0.265427 0.473439 2.16144
0.338206 0.47604 2.18542
0.405771 0.451899 2.18402
0.487332 0.44601 2.16319
0.230707 0.52291 2.15918
0.477819 0.52568 2.181
0.227735 0.245208 2.21361
0.334084 0.267131 2.19623
0.283481 0.328862 2.21466
0.383935 0.304407 2.20118
0.104364 0.371175 2.20875
0.189473 0.369831 2.20465
0.433942 0.344323 2.21524
0.495324 0.379459 2.18665
0.124882 0.444445 2.21537
0.238696 0.425254 2.19413
0.367427 0.412219 2.21779
0.307197 0.231054 2.24934
0.410316 0.229607 2.22717
0.112238 0.243444 2.25138
0.479511 0.263195 2.2225
0.338106 0.302046 2.25158
0.488965 0.329122 2.24107
0.26384 0.382845 2.25039
0.292698 0.428673 2.22157
0.436973 0.45447 2.2386
0.498994 0.449521 2.23904
0.197767 0.505506 2.24969
0.387806 0.497135 2.22601
0.10683 0.52412 2.23027
0.498691 0.522189 2.24147
0.498503 0.253983 2.28572
0.196779 0.286134 2.26798
0.144627 0.329159 2.25743
0.322732 0.35929 2.28017
0.388723 0.350133 2.26272
0.179678 0.383211 2.27608
0.404531 0.416433 2.27679
0.180002 0.445959 2.27427
0.336562 0.447813 2.2653
0.133145 0.50156 2.2851
0.316599 0.507618 2.26974
0.4192 0.521596 2.27807
0.299287 0.247375 2.30679
0.442411 0.236129 2.30895
0.126939 0.284236 2.31643
0.432796 0.302258 2.29979
0.187834 0.32549 2.32014
0.345572 0.308923 2.31327
0.476186 0.343657 2.30982
0.499396 0.409304 2.30395
0.282511 0.427246 2.32226
0.230608 0.478968 2.29273
0.180798 0.510604 2.32163
0.383426 0.485675 2.3155
0.196226 0.26238 2.33567
0.356376 0.254196 2.3377
0.256147 0.321804 2.33011
0.110703 0.374435 2.33211
0.415762 0.389621 2.33827
0.475094 0.383761 2.35966
0.214879 0.429082 2.34971
0.107302 0.455042 2.33596
0.49838 0.508374 2.34212
0.339305 0.526873 2.35754
0.271982 0.260644 2.3708
0.321856 0.294278 2.36913
0.44222 0.295647 2.36067
0.125428 0.344451 2.38441
0.189012 0.364304 2.39306
0.346145 0.350757 2.36426
0.415188 0.353574 2.38906
0.282424 0.374546 2.37858
0.115455 0.44409 2.3945
0.323589 0.424937 2.3871
0.466199 0.451954 2.36462
0.104255 0.515661 2.37241
0.236464 0.494005 2.36237
0.430217 0.500721 2.36499
0.103324 0.228818 2.39871
0.161403 0.258279 2.39827
0.363615 0.240431 2.40399
0.425069 0.242959 2.40512
0.499192 0.246026 2.40267
0.31493 0.348737 2.42385
0.40415 0.414672 2.40454
0.158807 0.499296 2.41065
0.370433 0.49856 2.40148
0.264146 0.523422 2.40795
0.220666 0.238837 2.44734
0.393674 0.233628 2.46132
0.17717 0.298235 2.4592
0.257372 0.298287 2.43437
0.314466 0.284399 2.45272
0.492483 0.279077 2.4544
0.417494 0.317622 2.45147
0.107591 0.339963 2.46367
0.484684 0.362834 2.43124
0.125062 0.39201 2.43589
0.217234 0.387064 2.44563
0.449749 0.403068 2.45884
0.139724 0.459766 2.46164
0.263093 0.452487 2.45205
0.417911 0.469013 2.44692
0.486571 0.452792 2.45556
0.220758 0.508511 2.45861
0.312076 0.491969 2.4576
0.490194 0.521396 2.46111
0.385775 0.387923 2.46657
VERTICES 353 706
1 0
1 1
1 2
1 3
1 4
1 5
1 6
1 7
1 8
1 9
1 10
1 11
1 12
1 13
1 14
1 15
1 16
1 17
1 18
1 19
1 20
1 21
1 22
1 23
1 24
1 25
1 26
1 27
1 28
1 29
1 30
1 31
1 32
1 33
1 34
1 35
1 36
1 37
1 38
1 39
1 40
1 41
1 42
1 43
1 44
1 45
1 46
1 47
1 48
1 49
1 50
1 51
1 52
1 53
1 54
1 55
1 56
1 57
1 58
1 59
1 60
1 61
1 62
1 63
1 64
1 65
1 66
1 67
1 68
1 69
1 70
1 71
1 72
1 73
1 74
1 75
1 76
1 77
1 78
1 79
1 80
1 81
1 82
1 83
1 84
1 85
1 86
1 87
1 88
1 89
1 90
1 91
1 92
1 93
1 94
1 95
1 96
1 97
1 98
1 99
1 100
1 101
1 102
1 103
1 104
1 105
1 106
1 107
1 108
1 109
1 110
1 111
1 112
1 113
1 114
1 115
1 116
1 117
1 118
1 119
1 120
1 121
1 122
1 123
1 124
1 125
1 126
1 127
1 128
1 129
1 130
1 131
1 132
1 133
1 134
1 135
1 136
1 137
1 138
1 139
1 140
1 141
1 142
1 143
1 144
1 145
1 146
1 147
1 148
1 149
1 150
1 151
1 152
1 153
1 154
1 155
1 156
1 157
1 158
1 159
1 160
1 161
1 162
1 163
1 164
1 165
1 166
1 167
1 168
1 169
1 170
1 171
1 172
1 173
1 174
1 175
1 176
1 177
1 178
1 179
1 180
1 181
1 182
1 183
1 184
1 185
1 186
1 187
1 188
1 189
1 190
1 191
1 192
1 193
1 194
1 195
1 196
1 197
1 198
1 199
1 200
1 201
1 202
1 203
1 204
1 205
1 206
1 207
1 208
1 209
1 210
1 211
1 212
1 213
1 214
1 215
1 216
1 217
1 218
1 219
1 220
1 221
1 222
1 223
1 224
1 225
1 226
1 227
1 228
1 229
1 230
1 231
1 232
1 233
1 234
1 235
1 236
1 237
1 238
1 239
1 240
1 241
1 242
1 243
1 244
1 245
1 246
1 247
1 248
1 249
1 250
1 251
1 252
1 253
1 254
1 255
1 256
1 257
1 258
1 259
1 260
1 261
1 262
1 263
1 264
1 265
1 266
1 267
1 268
1 269
1 270
1 271
1 272
1 273
1 274
1 275
1 276
1 277
1 278
1 279
1 280
1 281
1 282
1 283
1 284
1 285
1 286
1 287
1 288
1 289
1 290
1 291
1 292
1 293
1 294
1 295
1 296
1 297
1 298
1 299
1 300
1 301
1 302
1 303
1 304
1 305
1 306
1 307
1 308
1 309
1 310
1 311
1 312
1 313
1 314
1 315
1 316
1 317
1 318
1 319
1 320
1 321
1 322
1 323
1 324
1 325
1 326
1 327
1 328
1 329
1 330
1 331
1 332
1 333
1 334
1 335
1 336
1 337
1 338
1 339
1 340
1 341
1 342
1 343
1 344
1 345
1 346
1 347
1 348
1 349
1 350
1 351
1 352
POINT_DATA 353
VECTORS i float
0.0 0.0 0.0
0.0 0.0 0.0
0.0 0.0 0.0
0.0 0.0 0.0
0.0 0.0 0.0
0.0 0.0 0.0
0.0 0.0 0.0
0.0 0.0 0.0
0.0 0.0 0.0
0.0 0.0 0.0
0.0 0.0 0.0
0.0 0.0 0.0
0.0 0.0 0.0
0.0 0.0 0.0
0.0 0.0 0.0
0.0 0.0 0.0
0.0 0.0 0.0
0.0 0.0 0.0
0.0 0.0 0.0
0.0 0.0 0.0
0.0 0.0 0.0
0.0 0.0 0.0
0.0 0.0 0.0
0.0 0.0 0.0
0.0 0.0 0.0
0.0 0.0 0.0
0.0 0.0 0.0
0.0 0.0 0.0
0.0 0.0 0.0
0.0 0.0 0.0
0.0 0.0 0.0
0.0 0.0 0.0
0.0 0.0 0.0
0.0 0.0 0.0
0.0 0.0 0.0
0.0 0.0 0.0
0.0 0.0 0.0
0.0 0.0 0.0
0.0 0.0 0.0
0.0 0.0 0.0
0.0 0.0 0.0
0.0 0.0 0.0
0.0 0.0 0.0
0.0 0.0 0.0
0.0 0.0 0.0
0.0 0.0 0.0
0.0 0.0 0.0
0.0 0.0 0.0
0.0 0.0 0.0
0.0 0.0 0.0
0.0 0.0 0.0
0.0 0.0 0.0
0.0 0.0 0.0
0.0 0.0 0.0
0.0 0.0 0.0
0.0 0.0 0.0
0.0 0.0 0.0
0.0 0.0 0.0
0.0 0.0 0.0
0.0 0.0 0.0
0.0 0.0 0.0
0.0 0.0 0.0
0.0 0.0 0.0
0.0 0.0 0.0
0.0 0.0 0.0
0.0 0.0 0.0
0.0 0.0 0.0
0.0 0.0 0.0
0.0 0.0 0.0
0.0 0.0 0.0
0.0 0.0 0.0
0.0 0.0 0.0
0.0 0.0 0.0
0.0 0.0 0.0
0.0 0.0 0.0
0.0 0.0 0.0
0.0 0.0 0.0
0.0 0.0 0.0
0.0 0.0 0.0
0.0 0.0 0.0
0.0 0.0 0.0
0.0 0.0 0.0
0.0 0.0 0.0
0.0 0.0 0.0
0.0 0.0 0.0
0.0 0.0 0.0
0.0 0.0 0.0
0.0 0.0 0.0
0.0 0.0 0.0
0.0 0.0 0.0
0.0 0.0 0.0
0.0 0.0 0.0
0.0 0.0 0.0
0.0 0.0 0.0
0.0 0.0 0.0
0.0 0.0 0.0
0.0 0.0 0.0
0.0 0.0 0.0
0.0 0.0 0.0
0.0 0.0 0.0
0.0 0.0 0.0
0.0 0.0 0.0
0.0 0.0 0.0
0.0 0.0 0.0
0.0 0.0 0.0
0.0 0.0 0.0
0.0 0.0 0.0
0.0 0.0 0.0
0.0 0.0 0.0
0.0 0.0 0.0
0.0 0.0 0.0
0.0 0.0 0.0
0.0 0.0 0.0
0.0 0.0 0.0
0.0 0.0 0.0
0.0 0.0 0.0
0.0 0.0 0.0
0.0 0.0 0.0
0.0 0.0 0.0
0.0 0.0 0.0
0.0 0.0 0.0
0.0 0.0 0.0
0.0 0.0 0.0
0.0 0.0 0.0
0.0 0.0 0.0
0.0 0.0 0.0
0.0 0.0 0.0
0.0 0.0 0.0
0.0 0.0 0.0
0.0 0.0 0.0
0.0 0.0 0.0
0.0 0.0 0.0
0.0 0.0 0.0
0.0 0.0 0.0
0.0 0.0 0.0
0.0 0.0 0.0
0.0 0.0 0.0
0.0 0.0 0.0
0.0 0.0 0.0
0.0 0.0 0.0
0.0 0.0 0.0
0.0 0.0 0.0
0.0 0.0 0.0
0.0 0.0 0.0
0.0 0.0 0.0
0.0 0.0 0.0
0.0 0.0 0.0
0.0 0.0 0.0
0.0 0.0 0.0
0.0 0.0 0.0
0.0 0.0 0.0
0.0 0.0 0.0
0.0 0.0 0.0
0.0 0.0 0.0
0.0 0.0 0.0
0.0 0.0 0.0
0.0 0.0 0.0
0.0 0.0 0.0
0.0 0.0 0.0
0.0 0.0 0.0
0.0 0.0 0.0
0.0 0.0 0.0
0.0 0.0 0.0
0.0 0.0 0.0
0.0 0.0 0.0
0.0 0.0 0.0
0.0 0.0 0.0
0.0 0.0 0.0
0.0 0.0 0.0
0.0 0.0 0.0
0.0 0.0 0.0
0.0 0.0 0.0
0.0 0.0 0.0
0.0 0.0 0.0
0.0 0.0 0.0
0.0 0.0 0.0
0.0 0.0 0.0
0.0 0.0 0.0
0.0 0.0 0.0
0.0 0.0 0.0
0.0 0.0 0.0
0.0 0.0 0.0
0.0 0.0 0.0
0.0 0.0 0.0
0.0 0.0 0.0
0.0 0.0 0.0
0.0 0.0 0.0
0.0 0.0 0.0
0.0 0.0 0.0
0.0 0.0 0.0
0.0 0.0 0.0
0.0 0.0 0.0
0.0 0.0 0.0
0.0 0.0 0.0
0.0 0.0 0.0
0.0 0.0 0.0
0.0 0.0 0.0
0.0 0.0 0.0
0.0 0.0 0.0
0.0 0.0 0.0
0.0 0.0 0.0
0.0 0.0 0.0
0.0 0.0 0.0
0.0 0.0 0.0
0.0 0.0 0.0
0.0 0.0 0.0
0.0 0.0 0.0
0.0 0.0 0.0
0.0 0.0 0.0
0.0 0.0 0.0
0.0 0.0 0.0
0.0 0.0 0.0
0.0 0.0 0.0
0.0 0.0 0.0
0.0 0.0 0.0
0.0 0.0 0.0
0.0 0.0 0.0
0.0 0.0 0.0
0.0 0.0 0.0
0.0 0.0 0.0
0.0 0.0 0.0
0.0 0.0 0.0
0.0 0.0 0.0
0.0 0.0 0.0
0.0 0.0 0.0
0.0 0.0 0.0
0.0 0.0 0.0
0.0 0.0 0.0
0.0 0.0 0.0
0.0 0.0 0.0
0.0 0.0 0.0
0.0 0.0 0.0
0.0 0.0 0.0
0.0 0.0 0.0
0.0 0.0 0.0
0.0 0.0 0.0
0.0 0.0 0.0
0.0 0.0 0.0
0.0 0.0 0.0
0.0 0.0 0.0
0.0 0.0 0.0
0.0 0.0 0.0
0.0 0.0 0.0
0.0 0.0 0.0
0.0 0.0 0.0
0.0 0.0 0.0
0.0 0.0 0.0
0.0 0.0 0.0
0.0 0.0 0.0
0.0 0.0 0.0
0.0 0.0 0.0
0.0 0.0 0.0
0.0 0.0 0.0
0.0 0.0 0.0
0.0 0.0 0.0
0.0 0.0 0.0
0.0 0.0 0.0
0.0 0.0 0.0
0.0 0.0 0.0
0.0 0.0 0.0
0.0 0.0 0.0
0.0 0.0 0.0
0.0 0.0 0.0
0.0 0.0 0.0
0.0 0.0 0.0
0.0 0.0 0.0
0.0 0.0 0.0
0.0 0.0 0.0
0.0 0.0 0.0
0.0 0.0 0.0
0.0 0.0 0.0
0.0 0.0 0.0
0.0 0.0 0.0
0.0 0.0 0.0
0.0 0.0 0.0
0.0 0.0 0.0
0.0 0.0 0.0
0.0 0.0 0.0
0.0 0.0 0.0
0.0 0.0 0.0
0.0 0.0 0.0
0.0 0.0 0.0
0.0 0.0 0.0
0.0 0.0 0.0
0.0 0.0 0.0
0.0 0.0 0.0
0.0 0.0 0.0
0.0 0.0 0.0
0.0 0.0 0.0
0.0 0.0 0.0
0.0 0.0 0.0
0.0 0.0 0.0
0.0 0.0 0.0
0.0 0.0 0.0
0.0 0.0 0.0
0.0 0.0 0.0
0.0 0.0 0.0
0.0 0.0 0.0
0.0 0.0 0.0
0.0 0.0 0.0
0.0 0.0 0.0
0.0 0.0 0.0
0.0 0.0 0.0
0.0 0.0 0.0
0.0 0.0 0.0
0.0 0.0 0.0
0.0 0.0 0.0
0.0 0.0 0.0
0.0 0.0 0.0
0.0 0.0 0.0
0.0 0.0 0.0
0.0 0.0 0.0
0.0 0.0 0.0
0.0 0.0 0.0
0.0 0.0 0.0
0.0 0.0 0.0
0.0 0.0 0.0
0.0 0.0 0.0
0.0 0.0 0.0
0.0 0.0 0.0
0.0 0.0 0.0
0.0 0.0 0.0
0.0 0.0 0.0
0.0 0.0 0.0
0.0 0.0 0.0
0.0 0.0 0.0
0.0 0.0 0.0
0.0 0.0 0.0
0.0 0.0 0.0
0.0 0.0 0.0
0.0 0.0 0.0
0.0 0.0 0.0
0.0 0.0 0.0
0.0 0.0 0.0
0.0 0.0 0.0
0.0 0.0 0.0
0.0 0.0 0.0
0.0 0.0 0.0
0.0 0.0 0.0
0.0 0.0 0.0
0.0 0.0 0.0
0.0 0.0 0.0
0.0 0.0 0.0
0.0 0.0 0.0
0.0 0.0 0.0
0.0 0.0 0.0
0.0 0.0 0.0
0.0 0.0 0.0
0.0 0.0 0.0
0.0 0.0 0.0
0.0 0.0 0.0
0.0 0.0 0.0
0.0 0.0 0.0
VECTORS f float
0.0202609 0.165239 -2.2805
-0.21757 -0.415404 -2.90288
0.756163 -3.29259 -3.46012
0.984081 0.567982 0.183357
0.0 0.0 -2.77371
7.01277e-05 -3.06444e-07 -0.000561568
-0.000387682 0.987102 -0.990743
-0.862268 -2.05672 -0.723336
-0.251775 0.69825 -1.19403
1.93322 2.25947 1.45327
0.0 0.0 -2.77371
0.164054 0.183211 -2.88255
-13.6947 -0.260601 -17.3388
0.0 0.0 -2.77371
-0.530907 0.0524131 -5.84852
-31.5918 9.52548 -7.80799
10.4793 -1.99438 21.4443
4.96766 -2.93672 0.375812
-2.26797 -0.539279 -13.7567
-0.0329567 -0.000531338 -0.063959
3.25912 6.32258 1.01533
0.0783024 0.185785 -2.68744
12.4614 6.11604 -4.10797
-0.607361 0.597545 -2.17195
-4.9092 -5.67601 -14.5287
-0.0424148 -0.0498465 -2.64281
0.0 0.0 -2.77371
0.443307 -0.780756 -3.26663
23.2616 -11.0467 51.292
15.779 -15.396 6.99075
-0.0755153 -0.0574624 1.09711
0.161947 -0.0300752 10.8995
-2.48218e-05 2.49204e-06 -0.000249461
59.7212 -23.0359 125.246
18.6643 5.65032 14.0689
-15.779 15.396 -12.5382
-16.128 -7.81175 13.7373
0.00455187 0.000123589 -0.0833747
0.0 0.0 -2.77371
17.3036 -8.1662 -199.487
5.73856 -1.24409 8.97001
6.52052 5.35194 1.90497
-0.000893987 7.54658e-06 0.334203
-0.00150637 4.3118e-05 -0.0174059
0.458873 -1.20512 0.225592
0.0 0.0 -2.77371
17.268 9.90899 -4.6989
0.00830526 0.000395401 0.174514
0.0 0.0 -2.77371
6.9535e-08 -6.74342e-09 1.17182e-06
-42.6824 -8.79667 -46.9011
-1.36432 -7.17047 0.0864822
0.000284653 -0.000102192 0.0071082
0.0 0.0 -2.77371
0.0 0.0 -2.77371
0.850557 9.81878 -15.6373
0.897745 -8.7758 -91.2344
0.0 0.0 -2.77371
0.0133486 -0.00478126 0.0486652
6.04283e-09 -2.5249e-10 8.65692e-08
78.814 -37.9899 172.211
0.0 0.0 -2.77371
0.69886 -6.77614 0.230576
5.22479 0.294259 2.22669
-7.52134 3.75133 -12.3081
9.26772 -9.86157 12.5233
0.0 0.0 -2.77371
0.00123492 -1.01083 -0.967715
22.03 30.0383 29.686
0.0 0.0 -2.77371
0.0 0.0 -2.77371
0.0 0.0 -2.77371
-23.2659 -17.8511 21.5254
21.2006 -7.81228 -51.1004
24.4081 21.2403 -16.6687
14.6753 -9.69158 4.04291
-1.10308 -5.90343 -8.99971
0.0 0.0 -2.77371
0.0 0.0 -2.77371
20.7606 -20.7663 51.7887
0.0 0.0 -2.77371
11.7363 -8.79926 46.0901
1.363 17.4182 -54.825
0.0 0.0 -2.77371
0.0 0.0 -2.77371
3.63659 -1.24218 -5.15081
12.308 5.30581 29.1164
5.71326 4.00646 -2.86012
0.0 0.0 -2.77371
0.0 0.0 -2.77371
0.0 0.0 -2.77371
-1.56142 3.96822 -9.33105
-25.1267 33.456 -5.86607
4.61565 4.30024 -5.48258
0.0 0.0 -2.77371
0.0 0.0 -2.77371
0.709284 0.93315 -4.78336
0.0 0.0 -2.77371
0.0 0.0 -2.77371
-0.00714126 0.943179 -1.03626
0.0 0.0 -2.77371
0.0 0.0 -2.77371
-2.69495 14.0173 73.7602
0.0 0.0 -2.77371
0.0 0.0 -2.77371
0.0 0.0 -2.77371
0.0 0.0 -2.77371
0.0 0.0 -2.77371
0.0 0.0 -2.77371
0.0 0.0 -2.77371
-23.1665 3.3452 -16.1993
0.0 0.0 -2.77371
-15.5722 8.35602 197.424
0.0 0.0 -2.77371
43.7474 -41.0903 64.5047
5.68199 -0.866252 -0.468807
2.00453 20.1704 105.397
0.0 0.0 -2.77371
0.0 0.0 -2.77371
0.0 0.0 -2.77371
0.0 0.0 -2.77371
12.4905 -23.5816 64.9691
0.0 0.0 -2.77371
0.0 0.0 -2.77371
0.0 0.0 -2.77371
0.0 0.0 -2.77371
-0.0368519 0.0539447 -2.57625
0.0 0.0 -2.77371
0.0 0.0 -2.77371
0.0 0.0 -2.77371
-4.97113 -12.9207 14.3423
0.0 0.0 -2.77371
0.0 0.0 -2.77371
0.0 0.0 -2.77371
0.0 0.0 -2.77371
0.0 0.0 -2.77371
0.0 0.0 -2.77371
0.0 0.0 -2.77371
0.0 0.0 -2.77371
0.0 0.0 -2.77371
0.0 0.0 -2.77371
0.0 0.0 -2.77371
0.0 0.0 -2.77371
0.0 0.0 -2.77371
0.0 0.0 -2.77371
0.0 0.0 -2.77371
0.0 0.0 -2.77371
0.0 0.0 -2.77371
0.0 0.0 -2.77371
0.0 0.0 -2.77371
0.0 0.0 -2.77371
0.0 0.0 -2.77371
0.0 0.0 -2.77371
0.0 0.0 -2.77371
0.0 0.0 -2.77371
0.0 0.0 -2.77371
0.0 0.0 -2.77371
0.0 0.0 -2.77371
0.0 0.0 -2.77371
0.0 0.0 -2.77371
0.0 0.0 -2.77371
0.0 0.0 -2.77371
0.0 0.0 -2.77371
0.0 0.0 -2.77371
0.0 0.0 -2.77371
0.0 0.0 -2.77371
0.0 0.0 -2.77371
0.0 0.0 -2.77371
0.0 0.0 -2.77371
0.0 0.0 -2.77371
0.0 0.0 -2.77371
0.0 0.0 -2.77371
0.0 0.0 -2.77371
0.0 0.0 -2.77371
0.0 0.0 -2.77371
0.0 0.0 -2.77371
0.0 0.0 -2.77371
0.0 0.0 -2.77371
0.0 0.0 -2.77371
0.0 0.0 -2.77371
0.0 0.0 -2.77371
0.0 0.0 -2.77371
0.0 0.0 -2.77371
0.0 0.0 -2.77371
0.0 0.0 -2.77371
0.0 0.0 -2.77371
0.0 0.0 -2.77371
0.0 0.0 -2.77371
0.0 0.0 -2.77371
0.0 0.0 -2.77371
0.0 0.0 -2.77371
0.0 0.0 -2.77371
0.0 0.0 -2.77371
0.0 0.0 -2.77371
0.0 0.0 -2.77371
0.0 0.0 -2.77371
0.0 0.0 -2.77371
0.0 0.0 -2.77371
0.0 0.0 -2.77371
0.0 0.0 -2.77371
0.0 0.0 -2.77371
0.0 0.0 0.0
0.0 0.0 0.0
0.0 0.0 0.0
0.0 0.0 0.0
0.0 0.0 0.0
0.0 0.0 0.0
0.0 0.0 0.0
0.0 0.0 0.0
0.0 0.0 0.0
0.0 0.0 0.0
0.0 0.0 0.0
0.0 0.0 0.0
0.0 0.0 0.0
0.0 0.0 0.0
0.0 0.0 0.0
0.0 0.0 0.0
0.0 0.0 0.0
0.0 0.0 0.0
0.0 0.0 0.0
0.0 0.0 0.0
0.0 0.0 0.0
0.0 0.0 0.0
0.0 0.0 0.0
0.0 0.0 0.0
0.0 0.0 0.0
0.0 0.0 0.0
0.0 0.0 0.0
0.0 0.0 0.0
0.0 0.0 0.0
0.0 0.0 0.0
0.0 0.0 0.0
0.0 0.0 0.0
0.0 0.0 0.0
0.0 0.0 0.0
0.0 0.0 0.0
0.0 0.0 0.0
0.0 0.0 0.0
0.0 0.0 0.0
0.0 0.0 0.0
0.0 0.0 0.0
0.0 0.0 0.0
0.0 0.0 0.0
0.0 0.0 0.0
0.0 0.0 0.0
0.0 0.0 0.0
0.0 0.0 0.0
0.0 0.0 0.0
0.0 0.0 0.0
0.0 0.0 0.0
0.0 0.0 0.0
0.0 0.0 0.0
0.0 0.0 0.0
0.0 0.0 0.0
0.0 0.0 0.0
0.0 0.0 0.0
0.0 0.0 0.0
0.0 0.0 0.0
0.0 0.0 0.0
0.0 0.0 0.0
0.0 0.0 0.0
0.0 0.0 0.0
0.0 0.0 0.0
0.0 0.0 0.0
0.0 0.0 0.0
0.0 0.0 0.0
0.0 0.0 0.0
0.0 0.0 0.0
0.0 0.0 0.0
0.0 0.0 0.0
0.0 0.0 0.0
0.0 0.0 0.0
0.0 0.0 0.0
0.0 0.0 0.0
0.0 0.0 0.0
0.0 0.0 0.0
0.0 0.0 0.0
0.0 0.0 0.0
0.0 0.0 0.0
0.0 0.0 0.0
0.0 0.0 0.0
0.0 0.0 0.0
0.0 0.0 0.0
0.0 0.0 0.0
0.0 0.0 0.0
0.0 0.0 0.0
0.0 0.0 0.0
0.0 0.0 0.0
0.0 0.0 0.0
0.0 0.0 0.0
0.0 0.0 0.0
0.0 0.0 0.0
0.0 0.0 0.0
0.0 0.0 0.0
0.0 0.0 0.0
0.0 0.0 0.0
0.0 0.0 0.0
0.0 0.0 0.0
0.0 0.0 0.0
0.0 0.0 0.0
0.0 0.0 0.0
0.0 0.0 0.0
0.0 0.0 0.0
0.0 0.0 0.0
0.0 0.0 0.0
0.0 0.0 0.0
0.0 0.0 0.0
0.0 0.0 0.0
0.0 0.0 0.0
0.0 0.0 0.0
0.0 0.0 0.0
0.0 0.0 0.0
0.0 0.0 0.0
0.0 0.0 0.0
0.0 0.0 0.0
0.0 0.0 0.0
0.0 0.0 0.0
0.0 0.0 0.0
0.0 0.0 0.0
0.0 0.0 0.0
0.0 0.0 0.0
0.0 0.0 0.0
0.0 0.0 0.0
0.0 0.0 0.0
0.0 0.0 0.0
0.0 0.0 0.0
0.0 0.0 0.0
0.0 0.0 0.0
0.0 0.0 0.0
0.0 0.0 0.0
0.0 0.0 0.0
0.0 0.0 0.0
0.0 0.0 0.0
0.0 0.0 0.0
0.0 0.0 0.0
0.0 0.0 0.0
0.0 0.0 0.0
0.0 0.0 0.0
0.0 0.0 0.0
0.0 0.0 0.0
0.0 0.0 0.0
0.0 0.0 0.0
0.0 0.0 0.0
0.0 0.0 0.0
0.0 0.0 0.0
0.0 0.0 0.0
0.0 0.0 0.0
0.0 0.0 0.0
0.0 0.0 0.0
0.0 0.0 0.0
0.0 0.0 0.0
0.0 0.0 0.0
0.0 0.0 0.0
VECTORS omega float
0.398897 -76.642 39.6053
2.3699 -75.9254 26.6181
3.12085 -72.6116 12.4339
-0.215673 -58.4616 17.6493
6.52143 42.9333 -4.19797
-0.291225 -66.5943 32.0424
-15.585 -77.7739 17.542
0.976754 -56.5173 -1.96083
-0.997946 -67.3987 14.8295
17.2614 -75.5989 -1.19795
30.7332 -90.2214 16.8257
-2.19432 -113.556 21.1161
10.6957 -95.1649 -26.3588
27.3411 -91.6134 -32.2789
12.328 -80.9388 -6.94532
-2.73916 -7.59854 -4.09854
-12.141 -13.2593 4.18663
-2.5906 -60.1344 0.120776
7.3021 -58.4958 4.2822
0.776172 -48.4665 -17.508
6.3244 -55.1138 4.83015
-0.910993 -46.5938 4.45429
0.84928 -61.2536 6.41712
-13.092 71.9456 -2.36373
-16.2718 -99.7401 18.5595
0.215981 -77.1612 6.27954
13.6608 -42.8273 -22.4362
38.8749 -91.1075 -8.58336
11.1749 -83.1994 1.95956
2.19114 -72.0797 8.01982
-0.390044 -83.1996 10.5107
4.07718 -56.9915 -7.19384
-7.0508 -70.2292 16.1048
14.3252 -100.345 -7.1922
10.7848 -4.02414 -14.8308
10.8476 -49.1543 4.6767
-1.53445 -59.4074 -4.45729
1.95214 -71.9192 -1.0062
-2.29047 -67.3207 -3.74233
-6.53904 -45.0389 -4.1112
6.13117 -64.3258 6.17372
-14.2624 -40.7016 -4.45989
0.927703 -59.2627 -9.34871
-2.00499 -70.0445 -3.59891
-6.28729 -97.3784 -3.09389
4.25621 -82.7848 -10.0629
-7.23586 -67.0151 10.2429
3.04901 -64.0015 -9.82024
-36.7032 -20.3755 -14.5382
-4.91954 -50.7279 2.52464
31.739 44.0132 7.75779
2.47759 -61.7935 6.16296
-12.71 -40.0604 1.27705
-4.6283 -121.31 -1.15586
15.9943 4.11782 7.67041
21.4178 -64.7372 -6.33193
-14.976 -69.4634 -0.233874
-5.88882 -69.1498 7.07029
-15.4269 -43.0523 1.23093
-1.81727 -43.4917 1.90422
14.4697 -35.1536 -34.0622
-8.9158 -73.6033 18.0516
-2.61801 -49.0589 -25.0402
-3.47511 -59.5304 -16.7612
0.433794 -57.9071 -8.73728
1.37185 -31.5313 -15.5469
-5.10454 16.8048 24.2268
2.56471 -63.6116 -18.9119
15.9912 -62.9313 25.6865
31.0719 53.6298 -7.54853
16.1418 -7.25474 0.470599
-1.37111 25.396 4.93259
-7.66134 46.5777 13.3885
-27.196 64.8388 20.9285
-29.3374 33.155 0.513945
-15.6055 36.5589 -13.7287
44.479 6.62625 34.0403
-33.7784 8.94258 -3.77724
3.94804 -51.7966 1.75649
4.74457 45.1075 13.773
10.8623 51.6916 21.5974
-11.6627 13.1895 -16.9922
8.59124 16.6153 -10.7537
13.0922 49.9266 2.8071
-37.5235 -15.7303 -8.06781
-27.1996 -0.0818194 6.40849
-8.47989 16.5458 9.3162
3.45555 14.3954 16.7243
-7.84248 10.9038 -16.3049
19.2764 17.9606 11.7131
12.4703 6.35648 4.42072
-5.55144 -2.7963 -15.9463
-20.7315 -21.6395 8.4092
20.9645 -31.9174 5.57982
14.7155 86.1415 0.221805
13.1785 53.2886 -6.29445
-6.60837 -44.9082 -30.2636
-20.0803 -17.4418 -43.4455
25.9695 -61.421 43.4653
0.429282 -33.9697 54.3816
14.8189 86.3542 -9.00983
12.6524 -7.70905 7.89108
-14.4859 -2.7053 6.86349
-25.4584 66.9368 -7.66164
-3.17115 44.4381 -17.4183
39.6702 -8.34027 10.8806
9.94472 42.9635 -5.97854
-14.5187 38.9215 -23.5491
24.589 28.7019 8.63039
1.18767 -15.3467 -9.90016
15.9833 -15.7889 -1.13454
0.185123 1.62408 24.3332
-2.32693 18.6465 -0.967455
14.4716 -46.522 -16.3346
1.43937 6.06523 -23.548
-19.3578 27.2761 -13.498
4.80315 1.65365 2.9211
1.20506 24.3604 1.06681
9.777 -19.4595 6.08159
8.63669 -47.7736 16.8865
-24.2513 -39.1017 -0.622163
10.5973 7.1315 -4.69935
0.0 0.0 0.0
-15.8236 -18.6938 3.52772
2.53187 -39.5822 20.3081
20.0166 -7.55932 -4.32322
2.50793 -28.5024 5.05515
-4.09058 2.01885 -18.2793
-3.63339 -32.3971 -2.33411
1.12403 -16.0304 -11.4449
30.9944 -1.52825 7.28832
-1.42624 -25.4145 -1.59966
-23.9225 -45.1066 19.4331
-12.8435 -26.5506 -4.74953
-16.6934 -22.0779 -47.5939
24.8783 -51.7265 -20.343
-31.9594 -99.8791 8.01116
0.0 0.0 0.0
0.0 0.0 0.0
0.0 0.0 0.0
0.0 0.0 0.0
0.0 0.0 0.0
0.0 0.0 0.0
0.0 0.0 0.0
0.0 0.0 0.0
0.0 0.0 0.0
0.0 0.0 0.0
0.0 0.0 0.0
0.0 0.0 0.0
0.0 0.0 0.0
0.0 0.0 0.0
0.0 0.0 0.0
0.0 0.0 0.0
0.0 0.0 0.0
0.0 0.0 0.0
0.0 0.0 0.0
0.0 0.0 0.0
0.0 0.0 0.0
0.0 0.0 0.0
0.0 0.0 0.0
0.0 0.0 0.0
0.0 0.0 0.0
0.0 0.0 0.0
0.0 0.0 0.0
0.0 0.0 0.0
0.0 0.0 0.0
0.0 0.0 0.0
0.0 0.0 0.0
0.0 0.0 0.0
0.0 0.0 0.0
0.0 0.0 0.0
0.0 0.0 0.0
0.0 0.0 0.0
0.0 0.0 0.0
0.0 0.0 0.0
0.0 0.0 0.0
0.0 0.0 0.0
0.0 0.0 0.0
0.0 0.0 0.0
0.0 0.0 0.0
0.0 0.0 0.0
0.0 0.0 0.0
0.0 0.0 0.0
0.0 0.0 0.0
0.0 0.0 0.0
0.0 0.0 0.0
0.0 0.0 0.0
0.0 0.0 0.0
0.0 0.0 0.0
0.0 0.0 0.0
0.0 0.0 0.0
0.0 0.0 0.0
0.0 0.0 0.0
0.0 0.0 0.0
0.0 0.0 0.0
0.0 0.0 0.0
0.0 0.0 0.0
0.0 0.0 0.0
0.0 0.0 0.0
0.0 0.0 0.0
0.0 0.0 0.0
0.0 0.0 0.0
0.0 0.0 0.0
0.0 0.0 0.0
0.0 0.0 0.0
0.0 0.0 0.0
0.0 0.0 0.0
0.0 0.0 0.0
0.0 0.0 0.0
0.0 0.0 0.0
0.0 0.0 0.0
0.0 0.0 0.0
0.0 0.0 0.0
0.0 0.0 0.0
0.0 0.0 0.0
0.0 0.0 0.0
0.0 0.0 0.0
0.0 0.0 0.0
0.0 0.0 0.0
0.0 0.0 0.0
0.0 0.0 0.0
0.0 0.0 0.0
0.0 0.0 0.0
0.0 0.0 0.0
0.0 0.0 0.0
0.0 0.0 0.0
0.0 0.0 0.0
0.0 0.0 0.0
0.0 0.0 0.0
0.0 0.0 0.0
0.0 0.0 0.0
0.0 0.0 0.0
0.0 0.0 0.0
0.0 0.0 0.0
0.0 0.0 0.0
0.0 0.0 0.0
0.0 0.0 0.0
0.0 0.0 0.0
0.0 0.0 0.0
0.0 0.0 0.0
0.0 0.0 0.0
0.0 0.0 0.0
0.0 0.0 0.0
0.0 0.0 0.0
0.0 0.0 0.0
0.0 0.0 0.0
0.0 0.0 0.0
0.0 0.0 0.0
0.0 0.0 0.0
0.0 0.0 0.0
0.0 0.0 0.0
0.0 0.0 0.0
0.0 0.0 0.0
0.0 0.0 0.0
0.0 0.0 0.0
0.0 0.0 0.0
0.0 0.0 0.0
0.0 0.0 0.0
0.0 0.0 0.0
0.0 0.0 0.0
0.0 0.0 0.0
0.0 0.0 0.0
0.0 0.0 0.0
0.0 0.0 0.0
0.0 0.0 0.0
0.0 0.0 0.0
0.0 0.0 0.0
0.0 0.0 0.0
0.0 0.0 0.0
0.0 0.0 0.0
0.0 0.0 0.0
0.0 0.0 0.0
0.0 0.0 0.0
0.0 0.0 0.0
0.0 0.0 0.0
0.0 0.0 0.0
0.0 0.0 0.0
0.0 0.0 0.0
0.0 0.0 0.0
0.0 0.0 0.0
0.0 0.0 0.0
0.0 0.0 0.0
0.0 0.0 0.0
0.0 0.0 0.0
0.0 0.0 0.0
0.0 0.0 0.0
0.0 0.0 0.0
0.0 0.0 0.0
0.0 0.0 0.0
0.0 0.0 0.0
0.0 0.0 0.0
0.0 0.0 0.0
0.0 0.0 0.0
0.0 0.0 0.0
0.0 0.0 0.0
0.0 0.0 0.0
0.0 0.0 0.0
0.0 0.0 0.0
0.0 0.0 0.0
0.0 0.0 0.0
0.0 0.0 0.0
0.0 0.0 0.0
0.0 0.0 0.0
0.0 0.0 0.0
0.0 0.0 0.0
0.0 0.0 0.0
0.0 0.0 0.0
0.0 0.0 0.0
0.0 0.0 0.0
0.0 0.0 0.0
0.0 0.0 0.0
0.0 0.0 0.0
0.0 0.0 0.0
0.0 0.0 0.0
0.0 0.0 0.0
0.0 0.0 0.0
0.0 0.0 0.0
0.0 0.0 0.0
0.0 0.0 0.0
0.0 0.0 0.0
0.0 0.0 0.0
0.0 0.0 0.0
0.0 0.0 0.0
0.0 0.0 0.0
0.0 0.0 0.0
0.0 0.0 0.0
0.0 0.0 0.0
0.0 0.0 0.0
0.0 0.0 0.0
0.0 0.0 0.0
0.0 0.0 0.0
0.0 0.0 0.0
0.0 0.0 0.0
0.0 0.0 0.0
0.0 0.0 0.0
0.0 0.0 0.0
0.0 0.0 0.0
0.0 0.0 0.0
0.0 0.0 0.0
0.0 0.0 0.0
0.0 0.0 0.0
0.0 0.0 0.0
0.0 0.0 0.0
0.0 0.0 0.0
0.0 0.0 0.0
0.0 0.0 0.0
0.0 0.0 0.0
0.0 0.0 0.0
0.0 0.0 0.0
0.0 0.0 0.0
0.0 0.0 0.0
0.0 0.0 0.0
0.0 0.0 0.0
VECTORS v float
1.54566 0.0158533 0.0258792
1.83662 -0.00707443 0.0861681
2.19848 -0.0266479 0.0892387
2.25303 0.0137416 0.00303899
2.52208 0.13542 -0.0147426
2.01032 0.00870111 -1.70209e-05
1.9846 0.329606 -0.329484
2.2841 -0.0808617 -0.0293747
2.28242 0.0869439 0.0186404
1.75716 -0.503957 0.000816983
1.31541 -0.878852 0.342673
0.461875 -0.200062 0.289491
0.952771 -0.315064 0.191136
1.21153 -0.958965 0.024968
1.58334 -0.368076 0.105709
2.22667 -0.124471 -0.212544
1.9992 0.0652062 0.218663
2.12232 0.0953681 -0.0343705
2.26405 -0.216341 0.302805
2.55298 -0.0231733 0.0105653
2.3392 -0.206008 0.0307808
2.5202 0.00901874 0.0349656
2.14933 0.010131 -0.0138742
0.289774 0.0346415 -0.572512
0.889307 0.368616 0.296949
1.70954 0.0190156 0.00828621
2.7262 -0.384762 -0.074293
0.324063 0.559912 0.181501
1.37362 -0.160254 -0.306187
1.78016 0.0696474 0.105745
1.52313 0.0124066 0.0347325
2.31611 -0.115985 -0.000504026
1.90172 0.210661 5.24516e-06
0.761657 -0.291301 -0.191495
1.16032 0.638893 0.0538621
2.36638 -0.14418 0.255383
2.41702 0.0330296 0.134683
1.85076 -0.0583379 -0.00109574
2.0123 0.0985058 0.122774
0.492796 -0.0436348 -0.0544015
2.03513 -0.174204 -0.0930196
1.89322 0.200774 -0.504164
2.23037 -0.0277008 0.00051547
1.90724 0.0599043 0.000317325
0.980719 0.611479 0.0245729
1.52483 -0.119829 0.0349657
2.06997 0.131511 -0.618877
2.08804 -0.0910853 -0.0018015
1.73934 0.676555 -0.363317
2.48437 0.146984 -2.01239e-08
0.887462 -0.257511 -0.616847
2.08518 -0.0646979 0.152036
2.8031 0.379744 -0.000109726
0.434863 0.133027 0.199618
-0.401116 0.50831 -1.24294
1.59147 0.843975 -0.917258
1.88567 0.447961 0.154007
1.92998 0.176286 -0.00566435
2.71331 0.461057 -0.00476754
2.70057 0.0542955 -2.07357e-09
2.09629 -0.00384551 -0.988713
1.82963 0.265912 0.238178
2.49474 -0.00651269 0.0491582
2.40673 0.0613157 0.134886
2.46512 -0.0156254 -0.0299959
2.14902 0.354515 -0.00453399
3.25445 0.0399836 -0.000736687
2.25513 -0.053948 -0.0543653
1.72031 -0.480117 0.132284
1.80254 -0.931031 0.297069
-1.369 -0.939073 -1.0722
-1.13553 -0.280375 -0.466557
0.814252 -0.717433 0.460991
1.24831 -0.486325 -0.409334
-0.0582512 -0.450919 0.354099
2.37887 -0.100331 0.0671208
0.24391 -0.315048 0.431065
0.336746 -0.129583 -0.133947
1.45058 0.100693 -0.59083
1.08354 -0.0923312 0.382548
1.58454 -0.0831335 0.0538674
0.938272 0.249561 -0.0697377
1.00087 0.0680561 -0.358099