# vtk DataFile Version 2.0
Generated by lpp.py
ASCII
DATASET POLYDATA
POINTS 176 float
0.486268 0.228152 1.6347
0.306865 0.311483 1.63933
0.126566 0.357164 1.6298
0.238461 0.415411 1.63551
0.187145 0.244862 1.65833
0.109253 0.280954 1.66345
0.374238 0.280425 1.65323
0.147416 0.416779 1.65945
0.494733 0.429958 1.64277
0.292463 0.465497 1.6659
0.14636 0.503077 1.6631
0.207787 0.513597 1.65777
0.46939 0.484878 1.65072
0.261488 0.255288 1.68806
0.460616 0.284913 1.6841
0.378919 0.367173 1.68605
0.414339 0.44413 1.67819
0.4417 0.342212 1.7174
0.293244 0.409688 1.72802
0.202452 0.459991 1.73585
0.358392 0.516981 1.74953
0.315693 0.229965 1.78451
0.221691 0.336081 1.75756
0.326726 0.362322 1.7791
0.48133 0.381744 1.77722
0.427577 0.512648 1.77868
0.298512 0.526526 1.75553
0.407624 0.228484 1.79759
0.389576 0.300711 1.80543
0.110316 0.328441 1.7919
0.217643 0.395379 1.80972
0.184928 0.234672 1.84054
0.295884 0.285163 1.84545
0.443269 0.320522 1.85504
0.383972 0.46156 1.84168
0.246175 0.495534 1.83718
0.17066 0.517967 1.83934
0.119354 0.228593 1.87988
0.354173 0.228377 1.89383
0.160428 0.3182 1.86787
0.27192 0.349064 1.88568
0.379347 0.368828 1.89007
0.320995 0.419007 1.88808
0.44361 0.420007 1.86929
0.486907 0.489071 1.87024
0.337972 0.524085 1.88094
0.250314 0.231914 1.90014
0.44893 0.24186 1.90587
0.173434 0.391321 1.93202
0.111154 0.43018 1.92421
0.242338 0.433913 1.90361
0.174746 0.456274 1.91958
0.405158 0.517371 1.93069
0.219922 0.334748 1.95077
0.334819 0.324289 1.95578
0.485944 0.343638 1.94367
0.457584 0.468554 1.96239
0.119943 0.514428 1.93447
0.188775 0.261917 1.9741
0.244548 0.285112 1.9968
0.154593 0.314223 1.99309
0.388697 0.32831 1.99609
0.10471 0.363257 2.0039
0.478047 0.398941 1.99961
0.400035 0.441344 2.00345
0.283869 0.446206 2.00292
0.309578 0.507986 2.00354
0.137853 0.229319 2.02236
0.329189 0.252757 2.03844
0.403959 0.242371 2.01062
0.185895 0.369748 2.0199
0.218563 0.442358 2.03014
0.100655 0.458725 2.02185
0.226898 0.506806 2.01944
0.369388 0.526215 2.02734
0.112056 0.26459 2.0677
0.144122 0.349922 2.06517
0.298609 0.364728 2.05837
0.228049 0.384522 2.07702
0.368876 0.379155 2.0511
0.179788 0.4242 2.07532
0.47867 0.463 2.04918
0.10161 0.511094 2.07454
0.190793 0.498184 2.07432
0.421483 0.499457 2.07798
0.218269 0.254539 2.08076
0.377994 0.24098 2.09458
0.43763 0.245516 2.08653
0.235855 0.316318 2.0905
0.368613 0.311971 2.09424
0.486179 0.312628 2.09501
0.438372 0.392123 2.11222
0.497086 0.400324 2.08199
0.108382 0.420889 2.08366
0.486742 0.509906 2.08814
0.254767 0.230824 2.13361
0.495956 0.249499 2.14224
0.290891 0.301706 2.12271
0.181029 0.318367 2.12437
0.41904 0.310566 2.12691
0.278223 0.363632 2.12762
0.155769 0.403018 2.13019
0.240863 0.437556 2.13747
0.353388 0.44487 2.11555
0.419456 0.449551 2.12461
0.476719 0.464357 2.149
0.307792 0.495572 2.11669
0.218974 0.524143 2.12992
0.178322 0.227864 2.15834
0.408343 0.240904 2.15147
0.150682 0.290471 2.16822
0.355542 0.30862 2.15481
0.118071 0.372478 2.16713
0.216306 0.357237 2.16603
0.429922 0.3736 2.1722
0.499251 0.382901 2.15614
0.161462 0.479607 2.15922
0.367693 0.467546 2.18384
0.105277 0.51875 2.15553
0.423627 0.520356 2.15047
0.117057 0.232547 2.18535
0.199862 0.243713 2.21294
0.33461 0.249494 2.20199
0.258494 0.28056 2.20116
0.46021 0.268154 2.19579
0.294692 0.330306 2.19293
0.414233 0.306803 2.19248
0.169236 0.376906 2.22011
0.320208 0.403691 2.20809
0.113325 0.448918 2.21014
0.209546 0.484752 2.20139
0.313052 0.494322 2.19354
0.446997 0.50849 2.2049
0.387237 0.525686 2.20208
0.417913 0.266516 2.25416
0.47999 0.300848 2.24322
0.103577 0.34242 2.24791
0.230407 0.340128 2.24579
0.375347 0.345395 2.225
0.380254 0.404128 2.25153
0.261069 0.440732 2.22621
0.491591 0.428372 2.22117
0.441781 0.458388 2.24924
0.131272 0.513706 2.24661
0.254698 0.262308 2.2626
0.365118 0.235733 2.28568
0.121033 0.279919 2.26222
0.187546 0.294736 2.26886
0.378219 0.307765 2.27893
0.287678 0.358468 2.26158
0.227036 0.399722 2.25926
0.448915 0.39365 2.25864
0.10427 0.421706 2.28997
0.200976 0.455034 2.28494
0.208645 0.523817 2.28003
0.35506 0.52072 2.26723
0.29951 0.265646 2.31473
0.26261 0.317421 2.31461
0.121236 0.342722 2.31496
0.234882 0.370686 2.3119
0.360498 0.363939 2.29203
0.317689 0.454971 2.29695
0.124302 0.506318 2.31864
0.387139 0.48601 2.31051
0.491668 0.49724 2.29518
0.136955 0.241756 2.33145
0.478513 0.241448 2.32775
0.200031 0.295208 2.32871
0.352336 0.290052 2.33528
0.43656 0.349215 2.32852
0.18594 0.400862 2.33647
0.288982 0.398489 2.33045
0.41824 0.41741 2.33107
0.250123 0.467148 2.32514
0.485548 0.450278 2.33645
0.302009 0.506095 2.33474
VERTICES 176 352
1 0
1 1
1 2
1 3
1 4
1 5
1 6
1 7
1 8
1 9
1 10
1 11
1 12
1 13
1 14
1 15
1 16
1 17
1 18
1 19
1 20
1 21
1 22
1 23
1 24
1 25
1 26
1 27
1 28
1 29
1 30
1 31
1 32
1 33
1 34
1 35
1 36
1 37
1 38
1 39
1 40
1 41
1 42
1 43
1 44
1 45
1 46
1 47
1 48
1 49
1 50
1 51
1 52
1 53
1 54
1 55
1 56
1 57
1 58
1 59
1 60
1 61
1 62
1 63
1 64
1 65
1 66
1 67
1 68
1 69
1 70
1 71
1 72
1 73
1 74
1 75
1 76
1 77
1 78
1 79
1 80
1 81
1 82
1 83
1 84
1 85
1 86
1 87
1 88
1 89
1 90
1 91
1 92
1 93
1 94
1 95
1 96
1 97
1 98
1 99
1 100
1 101
1 102
1 103
1 104
1 105
1 106
1 107
1 108
1 109
1 110
1 111
1 112
1 113
1 114
1 115
1 116
1 117
1 118
1 119
1 120
1 121
1 122
1 123
1 124
1 125
1 126
1 127
1 128
1 129
1 130
1 131
1 132
1 133
1 134
1 135
1 136
1 137
1 138
1 139
1 140
1 141
1 142
1 143
1 144
1 145
1 146
1 147
1 148
1 149
1 150
1 151
1 152
1 153
1 154
1 155
1 156
1 157
1 158
1 159
1 160
1 161
1 162
1 163
1 164
1 165
1 166
1 167
1 168
1 169
1 170
1 171
1 172
1 173
1 174
1 175
POINT_DATA 176
VECTORS i float
0.0 0.0 0.0
0.0 0.0 0.0
0.0 0.0 0.0
0.0 0.0 0.0
0.0 0.0 0.0
0.0 0.0 0.0
0.0 0.0 0.0
0.0 0.0 0.0
0.0 0.0 0.0
0.0 0.0 0.0
0.0 0.0 0.0
0.0 0.0 0.0
0.0 0.0 0.0
0.0 0.0 0.0
0.0 0.0 0.0
0.0 0.0 0.0
0.0 0.0 0.0
0.0 0.0 0.0
0.0 0.0 0.0
0.0 0.0 0.0
0.0 0.0 0.0
0.0 0.0 0.0
0.0 0.0 0.0
0.0 0.0 0.0
0.0 0.0 0.0
0.0 0.0 0.0
0.0 0.0 0.0
0.0 0.0 0.0
0.0 0.0 0.0
0.0 0.0 0.0
0.0 0.0 0.0
0.0 0.0 0.0
0.0 0.0 0.0
0.0 0.0 0.0
0.0 0.0 0.0
0.0 0.0 0.0
0.0 0.0 0.0
0.0 0.0 0.0
0.0 0.0 0.0
0.0 0.0 0.0
0.0 0.0 0.0
0.0 0.0 0.0
0.0 0.0 0.0
0.0 0.0 0.0
0.0 0.0 0.0
0.0 0.0 0.0
0.0 0.0 0.0
0.0 0.0 0.0
0.0 0.0 0.0
0.0 0.0 0.0
0.0 0.0 0.0
0.0 0.0 0.0
0.0 0.0 0.0
0.0 0.0 0.0
0.0 0.0 0.0
0.0 0.0 0.0
0.0 0.0 0.0
0.0 0.0 0.0
0.0 0.0 0.0
0.0 0.0 0.0
0.0 0.0 0.0
0.0 0.0 0.0
0.0 0.0 0.0
0.0 0.0 0.0
0.0 0.0 0.0
0.0 0.0 0.0
0.0 0.0 0.0
0.0 0.0 0.0
0.0 0.0 0.0
0.0 0.0 0.0
0.0 0.0 0.0
0.0 0.0 0.0
0.0 0.0 0.0
0.0 0.0 0.0
0.0 0.0 0.0
0.0 0.0 0.0
0.0 0.0 0.0
0.0 0.0 0.0
0.0 0.0 0.0
0.0 0.0 0.0
0.0 0.0 0.0
0.0 0.0 0.0
0.0 0.0 0.0
0.0 0.0 0.0
0.0 0.0 0.0
0.0 0.0 0.0
0.0 0.0 0.0
0.0 0.0 0.0
0.0 0.0 0.0
0.0 0.0 0.0
0.0 0.0 0.0
0.0 0.0 0.0
0.0 0.0 0.0
0.0 0.0 0.0
0.0 0.0 0.0
0.0 0.0 0.0
0.0 0.0 0.0
0.0 0.0 0.0
0.0 0.0 0.0
0.0 0.0 0.0
0.0 0.0 0.0
0.0 0.0 0.0
0.0 0.0 0.0
0.0 0.0 0.0
0.0 0.0 0.0
0.0 0.0 0.0
0.0 0.0 0.0
0.0 0.0 0.0
0.0 0.0 0.0
0.0 0.0 0.0
0.0 0.0 0.0
0.0 0.0 0.0
0.0 0.0 0.0
0.0 0.0 0.0
0.0 0.0 0.0
0.0 0.0 0.0
0.0 0.0 0.0
0.0 0.0 0.0
0.0 0.0 0.0
0.0 0.0 0.0
0.0 0.0 0.0
0.0 0.0 0.0
0.0 0.0 0.0
0.0 0.0 0.0
0.0 0.0 0.0
0.0 0.0 0.0
0.0 0.0 0.0
0.0 0.0 0.0
0.0 0.0 0.0
0.0 0.0 0.0
0.0 0.0 0.0
0.0 0.0 0.0
0.0 0.0 0.0
0.0 0.0 0.0
0.0 0.0 0.0
0.0 0.0 0.0
0.0 0.0 0.0
0.0 0.0 0.0
0.0 0.0 0.0
0.0 0.0 0.0
0.0 0.0 0.0
0.0 0.0 0.0
0.0 0.0 0.0
0.0 0.0 0.0
0.0 0.0 0.0
0.0 0.0 0.0
0.0 0.0 0.0
0.0 0.0 0.0
0.0 0.0 0.0
0.0 0.0 0.0
0.0 0.0 0.0
0.0 0.0 0.0
0.0 0.0 0.0
0.0 0.0 0.0
0.0 0.0 0.0
0.0 0.0 0.0
0.0 0.0 0.0
0.0 0.0 0.0
0.0 0.0 0.0
0.0 0.0 0.0
0.0 0.0 0.0
0.0 0.0 0.0
0.0 0.0 0.0
0.0 0.0 0.0
0.0 0.0 0.0
0.0 0.0 0.0
0.0 0.0 0.0
0.0 0.0 0.0
0.0 0.0 0.0
0.0 0.0 0.0
0.0 0.0 0.0
0.0 0.0 0.0
0.0 0.0 0.0
0.0 0.0 0.0
0.0 0.0 0.0
0.0 0.0 0.0
VECTORS f float
0.0 0.0 -2.77371
0.0 0.0 -2.77371
0.0 0.0 -2.77371
0.0 0.0 -2.77371
0.0 0.0 -2.77371
0.0 0.0 -2.77371
0.0 0.0 -2.77371
0.0 0.0 -2.77371
0.0 0.0 -2.77371
0.0 0.0 -2.77371
0.0 0.0 -2.77371
0.0 0.0 -2.77371
0.0 0.0 -2.77371
0.0 0.0 -2.77371
0.0 0.0 -2.77371
0.0 0.0 -2.77371
0.0 0.0 -2.77371
0.0 0.0 -2.77371
0.0 0.0 -2.77371
0.0 0.0 -2.77371
0.0 0.0 -2.77371
0.0 0.0 -2.77371
0.0 0.0 -2.77371
0.0 0.0 -2.77371
0.0 0.0 -2.77371
0.0 0.0 -2.77371
0.0 0.0 -2.77371
0.0 0.0 -2.77371
0.0 0.0 -2.77371
0.0 0.0 -2.77371
0.0 0.0 -2.77371
0.0 0.0 -2.77371
0.0 0.0 -2.77371
0.0 0.0 -2.77371
0.0 0.0 -2.77371
0.0 0.0 -2.77371
0.0 0.0 -2.77371
0.0 0.0 -2.77371
0.0 0.0 -2.77371
0.0 0.0 -2.77371
0.0 0.0 -2.77371
0.0 0.0 -2.77371
0.0 0.0 -2.77371
0.0 0.0 -2.77371
0.0 0.0 -2.77371
0.0 0.0 -2.77371
0.0 0.0 -2.77371
0.0 0.0 -2.77371
0.0 0.0 -2.77371
0.0 0.0 -2.77371
0.0 0.0 -2.77371
0.0 0.0 -2.77371
0.0 0.0 -2.77371
0.0 0.0 -2.77371
0.0 0.0 -2.77371
0.0 0.0 -2.77371
0.0 0.0 -2.77371
0.0 0.0 -2.77371
0.0 0.0 -2.77371
0.0 0.0 -2.77371
0.0 0.0 -2.77371
0.0 0.0 -2.77371
0.0 0.0 -2.77371
0.0 0.0 -2.77371
0.0 0.0 -2.77371
0.0 0.0 -2.77371
0.0 0.0 -2.77371
0.0 0.0 -2.77371
0.0 0.0 -2.77371
0.0 0.0 -2.77371
0.0 0.0 -2.77371
0.0 0.0 -2.77371
0.0 0.0 -2.77371
0.0 0.0 -2.77371
0.0 0.0 -2.77371
0.0 0.0 0.0
0.0 0.0 0.0
0.0 0.0 0.0
0.0 0.0 0.0
0.0 0.0 0.0
0.0 0.0 0.0
0.0 0.0 0.0
0.0 0.0 0.0
0.0 0.0 0.0
0.0 0.0 0.0
0.0 0.0 0.0
0.0 0.0 0.0
0.0 0.0 0.0
0.0 0.0 0.0
0.0 0.0 0.0
0.0 0.0 0.0
0.0 0.0 0.0
0.0 0.0 0.0
0.0 0.0 0.0
0.0 0.0 0.0
0.0 0.0 0.0
0.0 0.0 0.0
0.0 0.0 0.0
0.0 0.0 0.0
0.0 0.0 0.0
0.0 0.0 0.0
0.0 0.0 0.0
0.0 0.0 0.0
0.0 0.0 0.0
0.0 0.0 0.0
0.0 0.0 0.0
0.0 0.0 0.0
0.0 0.0 0.0
0.0 0.0 0.0
0.0 0.0 0.0
0.0 0.0 0.0
0.0 0.0 0.0
0.0 0.0 0.0
0.0 0.0 0.0
0.0 0.0 0.0
0.0 0.0 0.0
0.0 0.0 0.0
0.0 0.0 0.0
0.0 0.0 0.0
0.0 0.0 0.0
0.0 0.0 0.0
0.0 0.0 0.0
0.0 0.0 0.0
0.0 0.0 0.0
0.0 0.0 0.0
0.0 0.0 0.0
0.0 0.0 0.0
0.0 0.0 0.0
0.0 0.0 0.0
0.0 0.0 0.0
0.0 0.0 0.0
0.0 0.0 0.0
0.0 0.0 0.0
0.0 0.0 0.0
0.0 0.0 0.0
0.0 0.0 0.0
0.0 0.0 0.0
0.0 0.0 0.0
0.0 0.0 0.0
0.0 0.0 0.0
0.0 0.0 0.0
0.0 0.0 0.0
0.0 0.0 0.0
0.0 0.0 0.0
0.0 0.0 0.0
0.0 0.0 0.0
0.0 0.0 0.0
0.0 0.0 0.0
0.0 0.0 0.0
0.0 0.0 0.0
0.0 0.0 0.0
0.0 0.0 0.0
0.0 0.0 0.0
0.0 0.0 0.0
0.0 0.0 0.0
0.0 0.0 0.0
0.0 0.0 0.0
0.0 0.0 0.0
0.0 0.0 0.0
0.0 0.0 0.0
0.0 0.0 0.0
0.0 0.0 0.0
0.0 0.0 0.0
0.0 0.0 0.0
0.0 0.0 0.0
0.0 0.0 0.0
0.0 0.0 0.0
0.0 0.0 0.0
0.0 0.0 0.0
0.0 0.0 0.0
0.0 0.0 0.0
0.0 0.0 0.0
0.0 0.0 0.0
0.0 0.0 0.0
0.0 0.0 0.0
0.0 0.0 0.0
VECTORS omega float
0.0 0.0 0.0
0.0 0.0 0.0
0.0 0.0 0.0
0.0 0.0 0.0
0.0 0.0 0.0
0.0 0.0 0.0
0.0 0.0 0.0
0.0 0.0 0.0
0.0 0.0 0.0
0.0 0.0 0.0
0.0 0.0 0.0
0.0 0.0 0.0
0.0 0.0 0.0
0.0 0.0 0.0
0.0 0.0 0.0
0.0 0.0 0.0
0.0 0.0 0.0
0.0 0.0 0.0
0.0 0.0 0.0
0.0 0.0 0.0
0.0 0.0 0.0
0.0 0.0 0.0
0.0 0.0 0.0
0.0 0.0 0.0
0.0 0.0 0.0
0.0 0.0 0.0
0.0 0.0 0.0
0.0 0.0 0.0
0.0 0.0 0.0
0.0 0.0 0.0
0.0 0.0 0.0
0.0 0.0 0.0
0.0 0.0 0.0
0.0 0.0 0.0
0.0 0.0 0.0
0.0 0.0 0.0
0.0 0.0 0.0
0.0 0.0 0.0
0.0 0.0 0.0
0.0 0.0 0.0
0.0 0.0 0.0
0.0 0.0 0.0
0.0 0.0 0.0
0.0 0.0 0.0
0.0 0.0 0.0
0.0 0.0 0.0
0.0 0.0 0.0
0.0 0.0 0.0
0.0 0.0 0.0
0.0 0.0 0.0
0.0 0.0 0.0
0.0 0.0 0.0
0.0 0.0 0.0
0.0 0.0 0.0
0.0 0.0 0.0
0.0 0.0 0.0
0.0 0.0 0.0
0.0 0.0 0.0
0.0 0.0 0.0
0.0 0.0 0.0
0.0 0.0 0.0
0.0 0.0 0.0
0.0 0.0 0.0
0.0 0.0 0.0
0.0 0.0 0.0
0.0 0.0 0.0
0.0 0.0 0.0
0.0 0.0 0.0
0.0 0.0 0.0
0.0 0.0 0.0
0.0 0.0 0.0
0.0 0.0 0.0
0.0 0.0 0.0
0.0 0.0 0.0
0.0 0.0 0.0
0.0 0.0 0.0
0.0 0.0 0.0
0.0 0.0 0.0
0.0 0.0 0.0
0.0 0.0 0.0
0.0 0.0 0.0
0.0 0.0 0.0
0.0 0.0 0.0
0.0 0.0 0.0
0.0 0.0 0.0
0.0 0.0 0.0
0.0 0.0 0.0
0.0 0.0 0.0
0.0 0.0 0.0
0.0 0.0 0.0
0.0 0.0 0.0
0.0 0.0 0.0
0.0 0.0 0.0
0.0 0.0 0.0
0.0 0.0 0.0
0.0 0.0 0.0
0.0 0.0 0.0
0.0 0.0 0.0
0.0 0.0 0.0
0.0 0.0 0.0
0.0 0.0 0.0
0.0 0.0 0.0
0.0 0.0 0.0
0.0 0.0 0.0
0.0 0.0 0.0
0.0 0.0 0.0
0.0 0.0 0.0
0.0 0.0 0.0
0.0 0.0 0.0
0.0 0.0 0.0
0.0 0.0 0.0
0.0 0.0 0.0
0.0 0.0 0.0
0.0 0.0 0.0
0.0 0.0 0.0
0.0 0.0 0.0
0.0 0.0 0.0
0.0 0.0 0.0
0.0 0.0 0.0
0.0 0.0 0.0
0.0 0.0 0.0
0.0 0.0 0.0
0.0 0.0 0.0
0.0 0.0 0.0
0.0 0.0 0.0
0.0 0.0 0.0
0.0 0.0 0.0
0.0 0.0 0.0
0.0 0.0 0.0
0.0 0.0 0.0
0.0 0.0 0.0
0.0 0.0 0.0
0.0 0.0 0.0
0.0 0.0 0.0
0.0 0.0 0.0
0.0 0.0 0.0
0.0 0.0 0.0
0.0 0.0 0.0
0.0 0.0 0.0
0.0 0.0 0.0
0.0 0.0 0.0
0.0 0.0 0.0
0.0 0.0 0.0
0.0 0.0 0.0
0.0 0.0 0.0
0.0 0.0 0.0
0.0 0.0 0.0
0.0 0.0 0.0
0.0 0.0 0.0
0.0 0.0 0.0
0.0 0.0 0.0
0.0 0.0 0.0
0.0 0.0 0.0
0.0 0.0 0.0
0.0 0.0 0.0
0.0 0.0 0.0
0.0 0.0 0.0
0.0 0.0 0.0
0.0 0.0 0.0
0.0 0.0 0.0
0.0 0.0 0.0
0.0 0.0 0.0
0.0 0.0 0.0
0.0 0.0 0.0
0.0 0.0 0.0
0.0 0.0 0.0
0.0 0.0 0.0
0.0 0.0 0.0
0.0 0.0 0.0
0.0 0.0 0.0
0.0 0.0 0.0
0.0 0.0 0.0
0.0 0.0 0.0
0.0 0.0 0.0
0.0 0.0 0.0
0.0 0.0 0.0
VECTORS v float
0.0 0.0 -3.01522
0.0 0.0 -3.00011
0.0 0.0 -3.03111
0.0 0.0 -3.01257
0.0 0.0 -2.93733
0.0 0.0 -2.92016
0.0 0.0 -2.9543
0.0 0.0 -2.9336
0.0 0.0 -2.98883
0.0 0.0 -2.91192
0.0 0.0 -2.92134
0.0 0.0 -2.93919
0.0 0.0 -2.96264
0.0 0.0 -2.83628
0.0 0.0 -2.84992
0.0 0.0 -2.84325
0.0 0.0 -2.87023
0.0 0.0 -2.73289
0.0 0.0 -2.69453
0.0 0.0 -2.66589
0.0 0.0 -2.61507
0.0 0.0 -2.48038
0.0 0.0 -2.58476
0.0 0.0 -2.50167
0.0 0.0 -2.50902
0.0 0.0 -2.50333
0.0 0.0 -2.59241
0.0 0.0 -2.42809
0.0 0.0 -2.39621
0.0 0.0 -2.45095
0.0 0.0 -2.37855
0.0 0.0 -2.24788
0.0 0.0 -2.2263
0.0 0.0 -2.18363
0.0 0.0 -2.24288
0.0 0.0 -2.2625
0.0 0.0 -2.25308
0.0 0.0 -2.06904
0.0 0.0 -2.00185
0.0 0.0 -2.12526
0.0 0.0 -2.04138
0.0 0.0 -2.02019
0.0 0.0 -2.0298
0.0 0.0 -2.11868
0.0 0.0 -2.11427
0.0 0.0 -2.06404
0.0 0.0 -1.97065
0.0 0.0 -1.94191
0.0 0.0 -1.80496
0.0 0.0 -1.84695
0.0 0.0 -1.95329
0.0 0.0 -1.87137
0.0 0.0 -1.81222
0.0 0.0 -1.69999
0.0 0.0 -1.67086
0.0 0.0 -1.74051
0.0 0.0 -1.63162
0.0 0.0 -1.79162
0.0 0.0 -1.55961
0.0 0.0 -1.40962
0.0 0.0 -1.43522
0.0 0.0 -1.41452
0.0 0.0 -1.35929
0.0 0.0 -1.3899
0.0 0.0 -1.36253
0.0 0.0 -1.36635
0.0 0.0 -1.36194
0.0 0.0 -1.21881
0.0 0.0 -1.08167
0.0 0.0 -1.30995
0.0 0.0 -1.23843
0.0 0.0 -1.15446
0.0 0.0 -1.22293
0.0 0.0 -1.24206
0.0 0.0 -1.1781
-0 -0 -1.0
-0 -0 -1.0
-0 -0 -1.0
-0 -0 -1.0
-0 -0 -1.0
-0 -0 -1.0
-0 -0 -1.0
-0 -0 -1.0
-0 -0 -1.0
-0 -0 -1.0
-0 -0 -1.0
-0 -0 -1.0
-0 -0 -1.0
-0 -0 -1.0
-0 -0 -1.0
-0 -0 -1.0
-0 -0 -1.0
-0 -0 -1.0
-0 -0 -1.0
-0 -0 -1.0
-0 -0 -1.0
-0 -0 -1.0
-0 -0 -1.0
-0 -0 -1.0
-0 -0 -1.0
-0 -0 -1.0
-0 -0 -1.0
-0 -0 -1.0
-0 -0 -1.0
-0 -0 -1.0
-0 -0 -1.0
-0 -0 -1.0
-0 -0 -1.0
-0 -0 -1.0
-0 -0 -1.0
-0 -0 -1.0
-0 -0 -1.0
-0 -0 -1.0
-0 -0 -1.0
-0 -0 -1.0
-0 -0 -1.0
-0 -0 -1.0
-0 -0 -1.0
-0 -0 -1.0
-0 -0 -1.0
-0 -0 -1.0
-0 -0 -1.0
-0 -0 -1.0
-0 -0 -1.0
-0 -0 -1.0
-0 -0 -1.0
-0 -0 -1.0
-0 -0 -1.0
-0 -0 -1.0
-0 -0 -1.0
-0 -0 -1.0
-0 -0 -1.0
-0 -0 -1.0
-0 -0 -1.0
-0 -0 -1.0
-0 -0 -1.0
-0 -0 -1.0
-0 -0 -1.0
-0 -0 -1.0
-0 -0 -1.0
-0 -0 -1.0
-0 -0 -1.0
-0 -0 -1.0
-0 -0 -1.0
-0 -0 -1.0
-0 -0 -1.0
-0 -0 -1.0
-0 -0 -1.0
-0 -0 -1.0
-0 -0 -1.0
-0 -0 -1.0
-0 -0 -1.0
-0 -0 -1.0
-0 -0 -1.0
-0 -0 -1.0
-0 -0 -1.0
-0 -0 -1.0
-0 -0 -1.0
-0 -0 -1.0
-0 -0 -1.0
-0 -0 -1.0
-0 -0 -1.0
-0 -0 -1.0
-0 -0 -1.0
-0 -0 -1.0
-0 -0 -1.0
-0 -0 -1.0
-0 -0 -1.0
-0 -0 -1.0
-0 -0 -1.0
-0 -0 -1.0
-0 -0 -1.0
-0 -0 -1.0
-0 -0 -1.0
-0 -0 -1.0
-0 -0 -1.0
SCALARS radius float 1
LOOKUP_TABLE default
0.03
0.03
0.03
0.03
0.03
0.03
0.03
0.03
0.03
0.03
0.03
0.03
0.03
0.03
0.03
0.03
0.03
0.03
0.03
0.03
0.03
0.03
0.03
0.03
0.03
0.03
0.03
0.03
0.03
0.03
0.03
0.03
0.03
0.03
0.03
0.03
0.03
0.03
0.03
0.03
0.03
0.03
0.03
0.03
0.03
0.03
0.03
0.03
0.03
0.03
0.03
0.03
0.03
0.03
0.03
0.03
0.03
0.03
0.03
0.03
0.03
0.03
0.03
0.03
0.03
0.03
0.03
0.03
0.03
0.03
0.03
0.03
0.03
0.03
0.03
0.03
0.03
0.03
0.03
0.03
0.03
0.03
0.03
0.03
0.03
0.03
0.03
0.03
0.03
0.03
0.03
0.03
0.03
0.03
0.03
0.03
0.03
0.03
0.03
0.03
0.03
0.03
0.03
0.03
0.03
0.03
0.03
0.03
0.03
0.03
0.03
0.03
0.03
0.03
0.03
0.03
0.03
0.03
0.03
0.03
0.03
0.03
0.03
0.03
0.03
0.03
0.03
0.03
0.03
0.03
0.03
0.03
0.03
0.03
0.03
0.03
0.03
0.03
0.03
0.03
0.03
0.03
0.03
0.03
0.03
0.03
0.03
0.03
0.03
0.03
0.03
0.03
0.03
0.03
0.03
0.03
0.03
0.03
0.03
0.03
0.03
0.03
0.03
0.03
0.03
0.03
0.03
0.03
0.03
0.03
0.03
0.03
0.03
0.03
0.03
0.03
SCALARS type float 1
LOOKUP_TABLE default
1.0
1.0
1.0
1.0
1.0
1.0
1.0
1.0
1.0
1.0
1.0
1.0
1.0
1.0
1.0
1.0
1.0
1.0
1.0
1.0
1.0
1.0
1.0
1.0
1.0
1.0
1.0
1.0
1.0
1.0
1.0
1.0
1.0
1.0
1.0
1.0
1.0
1.0
1.0
1.0
1.0
1.0
1.0
1.0
1.0
1.0
1.0
1.0
1.0
1.0
1.0
1.0
1.0
1.0
1.0
1.0
1.0
1.0
1.0
1.0
1.0
1.0
1.0
1.0
1.0
1.0
1.0
1.0
1.0
1.0
1.0
1.0
1.0
1.0
1.0
1.0
1.0
1.0
1.0
1.0
1.0
1.0
1.0
1.0
1.0
1.0
1.0
1.0
1.0
1.0
1.0
1.0
1.0
1.0
1.0
1.0
1.0
1.0
1.0
1.0
1.0
1.0
1.0
1.0
1.0
1.0
1.0
1.0
1.0
1.0
1.0
1.0
1.0
1.0
1.0
1.0
1.0
1.0
1.0
1.0
1.0
1.0
1.0
1.0
1.0
1.0
1.0
1.0
1.0
1.0
1.0
1.0
1.0
1.0
1.0
1.0
1.0
1.0
1.0
1.0
1.0
1.0
1.0
1.0
1.0
1.0
1.0
1.0
1.0
1.0
1.0
1.0
1.0
1.0
1.0
1.0
1.0
1.0
1.0
1.0
1.0
1.0
1.0
1.0
1.0
1.0
1.0
1.0
1.0
1.0
1.0
1.0
1.0
1.0
1.0
1.0
SCALARS id float 1
LOOKUP_TABLE default
100.0
129.0
149.0
21.0
123.0
79.0
105.0
41.0
82.0
98.0
66.0
85.0
152.0
49.0
42.0
112.0
16.0
92.0
144.0
166.0
53.0
137.0
29.0
104.0
138.0
18.0
167.0
94.0
127.0
99.0
91.0
108.0
81.0
145.0
131.0
97.0
51.0
128.0
171.0
5.0
76.0
19.0
133.0
24.0
151.0
2.0
146.0
1.0
71.0
80.0
12.0
61.0
174.0
72.0
47.0
45.0
130.0
17.0
15.0
73.0
116.0
55.0
31.0
93.0
44.0
4.0
107.0
148.0
64.0
32.0
57.0
83.0
118.0
164.0
125.0
60.0
70.0
23.0
157.0
26.0
28.0
68.0
77.0
75.0
67.0
46.0
140.0
10.0
102.0
155.0
136.0
63.0
173.0
176.0
110.0
22.0
120.0
135.0
156.0
35.0
25.0
165.0
101.0
30.0
163.0
134.0
52.0
143.0
86.0
40.0
13.0
8.0
58.0
78.0
109.0
113.0
33.0
87.0
162.0
159.0
139.0
158.0
69.0
117.0
43.0
121.0
153.0
38.0
147.0
150.0
115.0
37.0
119.0
168.0
7.0
48.0
3.0
50.0
27.0
103.0
90.0
170.0
11.0
111.0
114.0
141.0
14.0
62.0
169.0
54.0
95.0
65.0
74.0
56.0
154.0
161.0
126.0
36.0
142.0
175.0
59.0
6.0
84.0
39.0
96.0
132.0
89.0
124.0
106.0
122.0
20.0
172.0
34.0
9.0
88.0
160.0
SCALARS Temp float 1
LOOKUP_TABLE default
300.0
300.0
300.0
300.0
300.0
300.0
300.0
300.0
300.0
300.0
300.0
300.0
300.0
300.0
300.0
300.0
300.0
300.0
300.0
300.0
300.0
300.0
300.0
300.0
300.0
300.0
300.0
300.0
300.0
300.0
300.0
300.0
300.0
300.0
300.0
300.0
300.0
300.0
300.0
300.0
300.0
300.0
300.0
300.0
300.0
300.0
300.0
300.0
300.0
300.0
300.0
300.0
300.0
300.0
300.0
300.0
300.0
300.0
300.0
300.0
300.0
300.0
300.0
300.0
300.0
300.0
300.0
300.0
300.0
300.0
300.0
300.0
300.0
300.0
300.0
300.0
300.0
300.0
300.0
300.0
300.0
300.0
300.0
300.0
300.0
300.0
300.0
300.0
300.0
300.0
300.0
300.0
300.0
300.0
300.0
300.0
300.0
300.0
300.0
300.0
300.0
300.0
300.0
300.0
300.0
300.0
300.0
300.0
300.0
300.0
300.0
300.0
300.0
300.0
300.0
300.0
300.0
300.0
300.0
300.0
300.0
300.0
300.0
300.0
300.0
300.0
300.0
300.0
300.0
300.0
300.0
300.0
300.0
300.0
300.0
300.0
300.0
300.0
300.0
300.0
300.0
300.0
300.0
300.0
300.0
300.0
300.0
300.0
300.0
300.0
300.0
300.0
300.0
300.0
300.0
300.0
300.0
300.0
300.0
300.0
300.0
300.0
300.0
300.0
300.0
300.0
300.0
300.0
300.0
300.0
300.0
300.0
300.0
300.0
300.0
300.0

