# vtk DataFile Version 2.0
Generated by lpp.py
ASCII
DATASET POLYDATA
POINTS 527 float
2.6035 0.435394 1.41654
2.67293 0.536085 1.44363
2.54526 0.391244 1.4496
2.50263 0.467091 1.45884
2.55622 0.534793 1.4454
2.41414 0.165364 1.50453
2.30463 0.209718 1.51673
2.3641 0.21654 1.49536
2.33 0.272637 1.51106
2.40829 0.537206 1.48919
2.1804 0.184847 1.55961
2.22591 0.317362 1.55078
2.1973 0.380045 1.55628
2.2307 0.442061 1.54567
0.188552 0.17718 1.58589
0.249445 0.175435 1.58789
0.330722 0.185914 1.57685
0.49611 0.185494 1.57782
0.55809 0.177522 1.58438
0.682835 0.177503 1.58548
1.20501 0.184524 1.57843
1.26357 0.197646 1.57649
1.48319 0.190835 1.57686
1.84242 0.186962 1.57686
0.272629 0.229997 1.57693
0.641913 0.220346 1.57806
0.769439 0.224947 1.57686
0.848208 0.201908 1.57615
0.934198 0.207156 1.57685
0.991773 0.21256 1.5926
1.10317 0.226874 1.57682
1.16472 0.228759 1.5768
1.42325 0.206038 1.57687
1.58832 0.207256 1.57844
1.64643 0.231843 1.57686
1.71597 0.209697 1.57686
1.93389 0.202993 1.57686
0.190599 0.256569 1.57582
0.328336 0.25351 1.57669
0.39136 0.24274 1.57818
0.519478 0.241248 1.58314
0.875509 0.254174 1.57661
1.29516 0.248182 1.57645
1.44549 0.259 1.59535
1.5185 0.239358 1.57688
1.85779 0.247164 1.57686
1.95116 0.269799 1.57686
2.15476 0.26371 1.56401
0.109132 0.274071 1.57437
0.255048 0.291794 1.57605
0.595586 0.285626 1.57684
0.820167 0.274561 1.57634
1.011 0.275585 1.57686
1.14888 0.286899 1.57663
1.20749 0.278341 1.57707
1.26643 0.301472 1.57682
1.34986 0.271304 1.57772
1.49183 0.294203 1.57686
1.56019 0.294149 1.57686
1.66283 0.29611 1.57686
1.74137 0.285211 1.57686
1.80408 0.286307 1.57686
2.08773 0.274584 1.57315
0.372374 0.30635 1.57681
0.509662 0.322488 1.577
0.695311 0.311674 1.57667
0.775347 0.313092 1.5766
1.06979 0.307036 1.57686
1.60322 0.336386 1.57686
1.85275 0.327103 1.57669
2.01955 0.321964 1.57676
0.158935 0.346918 1.57877
0.327378 0.352721 1.57504
0.588265 0.355324 1.57685
0.875438 0.370396 1.57733
0.960863 0.351969 1.5771
1.21738 0.348485 1.57686
1.27636 0.361571 1.57687
1.43473 0.356055 1.57668
1.54301 0.353948 1.57686
1.66457 0.364066 1.57686
1.77336 0.353955 1.57632
1.90115 0.361553 1.57697
2.08291 0.348796 1.57225
2.13865 0.370498 1.56429
0.017656 0.382941 1.57571
0.0924856 0.401717 1.57572
0.151785 0.411176 1.58064
0.397833 0.381316 1.5775
0.457504 0.394547 1.57621
0.643887 0.376695 1.58333
0.70282 0.389554 1.57663
0.761265 0.375372 1.57696
0.942036 0.408342 1.5767
1.06614 0.395148 1.57637
1.3564 0.393296 1.57684
1.48805 0.386498 1.57674
1.58397 0.399055 1.57649
1.94801 0.392849 1.59692
2.00639 0.392923 1.57689
0.252545 0.411165 1.57737
0.532977 0.440793 1.58307
0.637846 0.437129 1.57669
1.02021 0.438212 1.57686
1.21702 0.419128 1.57685
1.29074 0.438185 1.57686
1.64651 0.423714 1.57687
1.75526 0.413272 1.57673
1.81385 0.42463 1.57655
1.91017 0.438197 1.57686
1.97462 0.443596 1.5769
2.04368 0.442589 1.57605
2.15845 0.428686 1.56581
0.0330979 0.453413 1.57686
0.216911 0.469519 1.57984
0.309862 0.453942 1.57663
0.430303 0.466193 1.5762
0.761105 0.462993 1.57686
1.10045 0.449899 1.57679
1.19611 0.477149 1.57686
1.37963 0.448338 1.57695
1.4396 0.454744 1.57604
1.50015 0.445751 1.57686
1.59447 0.457204 1.57681
1.691 0.467139 1.57684
1.75135 0.478058 1.57672
2.10032 0.463429 1.57188
0.360305 0.503322 1.57486
0.459147 0.51757 1.57596
0.54501 0.498908 1.57676
0.693877 0.483603 1.57714
0.910358 0.482162 1.57677
0.981628 0.511707 1.5769
1.04288 0.500876 1.57723
1.33338 0.4851 1.57668
1.38922 0.507347 1.57662
1.47224 0.504866 1.57684
1.5791 0.51152 1.59465
1.6388 0.497118 1.57687
1.86878 0.488478 1.57686
1.94047 0.510382 1.57677
1.99919 0.500239 1.57713
2.1732 0.487948 1.57889
0.123522 0.539403 1.57865
0.245364 0.538187 1.57555
0.403439 0.540419 1.58854
0.7189 0.537295 1.58937
0.779989 0.522167 1.57714
1.25386 0.520552 1.57656
1.42877 0.551916 1.57714
1.52897 0.538383 1.57678
1.68351 0.536742 1.57721
1.78177 0.529722 1.57685
2.04505 0.538417 1.5821
2.137 0.539327 1.56549
0.29182 0.576019 1.58385
0.349016 0.563411 1.5848
0.50597 0.557068 1.57682
0.634988 0.586537 1.59571
0.823607 0.569002 1.57816
0.939866 0.565843 1.57688
0.992702 0.586853 1.59603
1.05252 0.566928 1.57703
1.11171 0.552536 1.57694
1.20653 0.55902 1.57683
1.30395 0.55466 1.57662
1.36376 0.56154 1.5766
1.48293 0.575432 1.58459
1.61718 0.553922 1.57682
1.72718 0.576567 1.58578
1.85531 0.564689 1.57686
1.9785 0.563286 1.57686
1.25977 0.58916 1.59758
0.197687 0.129053 1.63381
0.355807 0.145589 1.61734
0.495873 0.137338 1.62494
0.912328 0.129987 1.6355
0.979032 0.150871 1.61207
1.15045 0.143475 1.61947
1.22772 0.144056 1.61889
1.32646 0.146453 1.61649
0.609147 0.166192 1.61284
0.808813 0.163888 1.5988
1.35942 0.196653 1.59648
0.492708 0.203665 1.6396
1.29164 0.208657 1.62792
0.211455 0.257718 1.62854
0.449867 0.257594 1.59858
0.564415 0.256095 1.62043
0.690197 0.254077 1.6211
0.898332 0.236626 1.62784
0.339945 0.282756 1.62712
0.519033 0.295233 1.62889
0.634895 0.300525 1.62593
0.833693 0.282374 1.63358
0.957343 0.287937 1.60423
0.0504361 0.325387 1.60544
0.283561 0.318478 1.61835
0.439526 0.316641 1.61359
1.24466 0.311345 1.63165
1.42398 0.312869 1.61654
0.117086 0.359653 1.6202
0.22915 0.345901 1.62159
0.809388 0.370136 1.61254
1.01924 0.374894 1.60625
1.41579 0.40651 1.60267
0.22148 0.433035 1.63182
0.34185 0.415 1.60775
0.425652 0.445231 1.63199
0.73854 0.418407 1.61347
0.858004 0.431506 1.59242
1.15786 0.418076 1.62472
1.72959 0.420347 1.63161
1.85387 0.42607 1.62066
0.280558 0.456127 1.62922
0.370346 0.468751 1.62025
0.4791 0.467385 1.61103
0.587994 0.455824 1.62036
0.95129 0.452227 1.61688
1.62003 0.461847 1.63055
1.79029 0.46955 1.62089
0.0982128 0.477498 1.60374
0.285743 0.508043 1.60382
0.339105 0.518655 1.62855
0.743071 0.495531 1.62465
1.11206 0.500359 1.60693
0.192123 0.533996 1.60674
0.795883 0.529703 1.63479
0.900217 0.520693 1.62053
1.36128 0.529345 1.62681
0.567403 0.554766 1.60167
1.13504 0.591799 1.61642
0.370701 0.609529 1.62377
0.49471 0.613401 1.62258
0.710743 0.595566 1.6042
0.769312 0.588268 1.59651
0.88049 0.611825 1.62094
1.32901 0.598607 1.60805
1.39272 0.601303 1.61064
1.53968 0.608812 1.61799
0.758109 0.118135 1.6448
1.74846 0.114645 1.6483
0.379215 0.151171 1.6725
0.551915 0.137832 1.64575
0.162215 0.18279 1.66088
0.276154 0.168108 1.64371
0.445984 0.165402 1.6442
0.403274 0.207601 1.62767
0.557299 0.197654 1.6461
0.721376 0.202636 1.63958
0.439831 0.236817 1.66902
0.126575 0.286441 1.6288
0.402389 0.269997 1.63234
0.885654 0.297963 1.66424
0.189529 0.310157 1.64714
0.349462 0.353581 1.62674
0.463424 0.367252 1.64092
0.552002 0.344687 1.64456
0.610693 0.353796 1.63841
0.177617 0.379523 1.63424
0.271881 0.387536 1.6265
0.536977 0.405828 1.64679
0.646842 0.399412 1.64892
1.65682 0.411235 1.6385
0.280991 0.526477 1.65893
0.430586 0.558372 1.63831
0.730424 0.560209 1.64813
0.945753 0.557466 1.64151
0.593205 0.587608 1.64572
0.808776 0.614567 1.63187
0.556498 0.641867 1.65119
0.974309 0.631313 1.64034
0.237825 0.0850242 1.68247
0.317116 0.22553 1.66232
0.196299 0.262081 1.68181
0.451583 0.295882 1.66743
0.577749 0.298435 1.67143
0.722868 0.272857 1.67215
0.25658 0.32401 1.66997
0.338094 0.308284 1.68208
0.405547 0.334463 1.67036
0.504805 0.324555 1.67781
0.827982 0.328593 1.67065
0.108703 0.3778 1.67807
0.521068 0.392647 1.70939
0.208988 0.437919 1.68908
0.290614 0.430425 1.68114
0.363407 0.426789 1.66052
0.457304 0.417731 1.67593
0.716444 0.421231 1.67127
0.107302 0.455042 1.67675
0.628994 0.452302 1.67703
0.177 0.505357 1.6634
0.388529 0.517591 1.66014
0.666334 0.506124 1.68555
0.54605 0.548291 1.69613
0.395756 0.599909 1.67735
0.919278 0.616949 1.66841
0.417446 0.657923 1.67385
0.560619 0.692324 1.70156
0.363018 0.254033 1.69316
0.413159 0.380077 1.7065
0.491607 0.505147 1.70277
0.44222 0.295647 1.7448
0.474936 0.383722 1.74258
0.215477 0.426799 1.75604
0.236464 0.494005 1.74926
0.339305 0.526873 1.73651
0.271982 0.260644 1.77094
0.321856 0.294278 1.76672
0.346145 0.350757 1.75417
0.466199 0.451954 1.75512
0.104255 0.515661 1.77503
0.430217 0.500721 1.75608
0.125428 0.344451 1.80454
0.415188 0.353574 1.81559
0.282424 0.374546 1.79038
0.323589 0.424937 1.81096
0.103324 0.228818 1.83785
0.161403 0.258279 1.83685
0.363615 0.240431 1.84965
0.425069 0.242959 1.85214
0.499192 0.246026 1.84672
0.189012 0.364304 1.82493
0.115455 0.44409 1.82825
0.40415 0.414672 1.85084
0.370433 0.49856 1.84406
0.264146 0.523422 1.85829
0.31493 0.348737 1.89154
0.158807 0.499296 1.86413
0.257372 0.298287 1.91219
0.484684 0.362834 1.90616
0.125062 0.39201 1.91507
0.220666 0.238837 1.93613
0.393674 0.233628 1.96008
0.17717 0.298235 1.95658
0.314466 0.284399 1.94558
0.492483 0.279077 1.94847
0.417494 0.317622 1.9434
0.107591 0.339963 1.96393
0.217234 0.387064 1.93307
0.385775 0.387923 1.9686
0.449749 0.403068 1.95599
0.139724 0.459766 1.96061
0.263093 0.452487 1.94442
0.417911 0.469013 1.93538
0.486571 0.452792 1.95045
0.220758 0.508511 1.9556
0.312076 0.491969 1.9539
0.490194 0.521396 1.95975
0.313064 0.354671 2.00562
0.494465 0.353653 2.00371
0.345938 0.437655 1.97868
0.420914 0.522237 2.00568
0.130146 0.239366 2.03693
0.215119 0.259008 2.04418
0.293957 0.252051 2.02543
0.480794 0.235256 2.0332
0.112395 0.298661 2.03434
0.396036 0.28089 2.04056
0.461831 0.299793 2.04234
0.177639 0.41728 2.00781
0.25883 0.414412 2.02938
0.188867 0.511362 2.03125
0.352584 0.510062 2.02168
0.481601 0.499619 2.03662
0.286065 0.525163 2.01906
0.260232 0.32538 2.05072
0.134053 0.366007 2.07991
0.184207 0.342437 2.0552
0.413738 0.375309 2.07012
0.153204 0.432626 2.07854
0.469219 0.429721 2.04597
0.312883 0.472231 2.05355
0.425503 0.471227 2.04617
0.107222 0.481912 2.06361
0.32799 0.229202 2.10355
0.405689 0.228633 2.08064
0.167912 0.238386 2.09466
0.231382 0.240563 2.10299
0.113197 0.294489 2.10951
0.469257 0.29946 2.11185
0.317332 0.30781 2.08804
0.489016 0.368217 2.08079
0.222179 0.424446 2.09719
0.306002 0.430402 2.1074
0.239416 0.495022 2.09556
0.498927 0.504545 2.09488
0.360463 0.523492 2.10545
0.109866 0.233818 2.11844
0.391248 0.260634 2.14374
0.498812 0.248514 2.12893
0.194033 0.278126 2.13518
0.265839 0.285868 2.1368
0.194635 0.336418 2.11946
0.405808 0.316699 2.11707
0.291855 0.372275 2.14768
0.489514 0.352564 2.14129
0.379233 0.434328 2.11583
0.487806 0.414883 2.13581
0.188866 0.448878 2.14084
0.150905 0.499656 2.13471
0.297107 0.507647 2.11842
0.452328 0.508491 2.13873
0.121163 0.235465 2.17938
0.325604 0.248234 2.16541
0.464139 0.288262 2.1735
0.240166 0.328846 2.17071
0.354308 0.337534 2.15063
0.142017 0.392074 2.15392
0.442633 0.401674 2.17786
0.112907 0.457318 2.16655
0.306813 0.454906 2.17191
0.232349 0.51961 2.1755
0.325501 0.521381 2.17998
0.228203 0.227346 2.18755
0.182449 0.265752 2.20745
0.371199 0.250575 2.20872
0.109346 0.315959 2.19037
0.287412 0.337623 2.21316
0.368802 0.320326 2.21015
0.198909 0.373142 2.20127
0.435393 0.34359 2.20127
0.263606 0.399014 2.1951
0.151029 0.419157 2.21396
0.224919 0.462043 2.20083
0.480028 0.469573 2.20511
0.143314 0.508824 2.21199
0.370146 0.482381 2.20259
0.477175 0.232241 2.22463
0.310551 0.275965 2.22166
0.202651 0.326782 2.23942
0.419779 0.314987 2.25386
0.384965 0.379016 2.245
0.333275 0.414894 2.22173
0.470694 0.421347 2.24073
0.158331 0.259584 2.26919
0.379968 0.260616 2.2678
0.478207 0.314376 2.27397
0.102309 0.339997 2.25882
0.189373 0.382597 2.28159
0.261557 0.393625 2.26365
0.496133 0.384099 2.28079
0.108153 0.438732 2.27855
0.318306 0.424417 2.28625
0.41429 0.434596 2.27731
0.178059 0.478415 2.26491
0.487334 0.474096 2.26584
0.297583 0.511466 2.25592
0.353581 0.483281 2.28649
0.419317 0.494483 2.2671
0.226804 0.518091 2.27666
0.287182 0.241461 2.29538
0.437539 0.252688 2.29571
0.313165 0.295281 2.30233
0.146413 0.330961 2.29865
0.23496 0.304512 2.29559
0.361163 0.357044 2.31824
0.444299 0.395894 2.3132
0.167616 0.430974 2.31451
0.489664 0.438439 2.32411
0.250241 0.450955 2.31964
0.105798 0.50424 2.32445
0.281519 0.521738 2.31447
0.345706 0.244188 2.32848
0.119434 0.281797 2.32643
0.183368 0.299923 2.33745
0.4644 0.282902 2.35546
0.413519 0.31622 2.32723
0.114178 0.389821 2.33746
0.20118 0.391877 2.34642
0.261164 0.39533 2.35092
0.393917 0.429411 2.33729
0.187915 0.515186 2.34538
0.32526 0.484758 2.34005
0.4524 0.512277 2.33886
0.1932 0.229789 2.37297
0.337046 0.231264 2.38864
0.422137 0.237787 2.36647
0.372856 0.301203 2.37603
0.306584 0.303573 2.38311
0.15454 0.359333 2.3712
0.330347 0.403499 2.37088
0.485995 0.385829 2.37292
0.145536 0.471864 2.38705
0.398538 0.477915 2.38576
0.493497 0.449079 2.39063
0.10177 0.254991 2.40716
0.497694 0.256246 2.40034
0.248456 0.285804 2.40542
0.150783 0.312529 2.43024
0.430203 0.322942 2.42658
0.488964 0.318078 2.40029
0.244928 0.34739 2.41499
0.359187 0.345598 2.42339
0.206866 0.39261 2.42625
0.387775 0.408365 2.40781
0.244813 0.43345 2.40185
0.322092 0.457941 2.41624
0.239296 0.494007 2.413
0.496548 0.513622 2.42741
0.308508 0.519363 2.40446
0.119764 0.23589 2.46451
0.200715 0.243234 2.45381
0.271532 0.23235 2.4528
0.389977 0.239061 2.43499
0.465941 0.232795 2.44673
0.32123 0.387645 2.45716
0.462123 0.378122 2.45228
0.114653 0.416417 2.43766
0.100279 0.478463 2.4325
0.195028 0.474388 2.45054
0.489023 0.459055 2.46218
0.434645 0.505695 2.46274
0.340901 0.251487 2.47902
0.252209 0.30257 2.48485
0.399979 0.29937 2.47706
0.334843 0.328269 2.48319
0.493176 0.31314 2.48199
0.145549 0.370736 2.47487
0.203386 0.34301 2.47212
0.402076 0.364491 2.48095
0.253008 0.38524 2.46529
0.388515 0.434845 2.47435
0.1312 0.50645 2.48577
0.277161 0.482116 2.48173
0.348799 0.506378 2.47849
VERTICES 527 1054
1 0
1 1
1 2
1 3
1 4
1 5
1 6
1 7
1 8
1 9
1 10
1 11
1 12
1 13
1 14
1 15
1 16
1 17
1 18
1 19
1 20
1 21
1 22
1 23
1 24
1 25
1 26
1 27
1 28
1 29
1 30
1 31
1 32
1 33
1 34
1 35
1 36
1 37
1 38
1 39
1 40
1 41
1 42
1 43
1 44
1 45
1 46
1 47
1 48
1 49
1 50
1 51
1 52
1 53
1 54
1 55
1 56
1 57
1 58
1 59
1 60
1 61
1 62
1 63
1 64
1 65
1 66
1 67
1 68
1 69
1 70
1 71
1 72
1 73
1 74
1 75
1 76
1 77
1 78
1 79
1 80
1 81
1 82
1 83
1 84
1 85
1 86
1 87
1 88
1 89
1 90
1 91
1 92
1 93
1 94
1 95
1 96
1 97
1 98
1 99
1 100
1 101
1 102
1 103
1 104
1 105
1 106
1 107
1 108
1 109
1 110
1 111
1 112
1 113
1 114
1 115
1 116
1 117
1 118
1 119
1 120
1 121
1 122
1 123
1 124
1 125
1 126
1 127
1 128
1 129
1 130
1 131
1 132
1 133
1 134
1 135
1 136
1 137
1 138
1 139
1 140
1 141
1 142
1 143
1 144
1 145
1 146
1 147
1 148
1 149
1 150
1 151
1 152
1 153
1 154
1 155
1 156
1 157
1 158
1 159
1 160
1 161
1 162
1 163
1 164
1 165
1 166
1 167
1 168
1 169
1 170
1 171
1 172
1 173
1 174
1 175
1 176
1 177
1 178
1 179
1 180
1 181
1 182
1 183
1 184
1 185
1 186
1 187
1 188
1 189
1 190
1 191
1 192
1 193
1 194
1 195
1 196
1 197
1 198
1 199
1 200
1 201
1 202
1 203
1 204
1 205
1 206
1 207
1 208
1 209
1 210
1 211
1 212
1 213
1 214
1 215
1 216
1 217
1 218
1 219
1 220
1 221
1 222
1 223
1 224
1 225
1 226
1 227
1 228
1 229
1 230
1 231
1 232
1 233
1 234
1 235
1 236
1 237
1 238
1 239
1 240
1 241
1 242
1 243
1 244
1 245
1 246
1 247
1 248
1 249
1 250
1 251
1 252
1 253
1 254
1 255
1 256
1 257
1 258
1 259
1 260
1 261
1 262
1 263
1 264
1 265
1 266
1 267
1 268
1 269
1 270
1 271
1 272
1 273
1 274
1 275
1 276
1 277
1 278
1 279
1 280
1 281
1 282
1 283
1 284
1 285
1 286
1 287
1 288
1 289
1 290
1 291
1 292
1 293
1 294
1 295
1 296
1 297
1 298
1 299
1 300
1 301
1 302
1 303
1 304
1 305
1 306
1 307
1 308
1 309
1 310
1 311
1 312
1 313
1 314
1 315
1 316
1 317
1 318
1 319
1 320
1 321
1 322
1 323
1 324
1 325
1 326
1 327
1 328
1 329
1 330
1 331
1 332
1 333
1 334
1 335
1 336
1 337
1 338
1 339
1 340
1 341
1 342
1 343
1 344
1 345
1 346
1 347
1 348
1 349
1 350
1 351
1 352
1 353
1 354
1 355
1 356
1 357
1 358
1 359
1 360
1 361
1 362
1 363
1 364
1 365
1 366
1 367
1 368
1 369
1 370
1 371
1 372
1 373
1 374
1 375
1 376
1 377
1 378
1 379
1 380
1 381
1 382
1 383
1 384
1 385
1 386
1 387
1 388
1 389
1 390
1 391
1 392
1 393
1 394
1 395
1 396
1 397
1 398
1 399
1 400
1 401
1 402
1 403
1 404
1 405
1 406
1 407
1 408
1 409
1 410
1 411
1 412
1 413
1 414
1 415
1 416
1 417
1 418
1 419
1 420
1 421
1 422
1 423
1 424
1 425
1 426
1 427
1 428
1 429
1 430
1 431
1 432
1 433
1 434
1 435
1 436
1 437
1 438
1 439
1 440
1 441
1 442
1 443
1 444
1 445
1 446
1 447
1 448
1 449
1 450
1 451
1 452
1 453
1 454
1 455
1 456
1 457
1 458
1 459
1 460
1 461
1 462
1 463
1 464
1 465
1 466
1 467
1 468
1 469
1 470
1 471
1 472
1 473
1 474
1 475
1 476
1 477
1 478
1 479
1 480
1 481
1 482
1 483
1 484
1 485
1 486
1 487
1 488
1 489
1 490
1 491
1 492
1 493
1 494
1 495
1 496
1 497
1 498
1 499
1 500
1 501
1 502
1 503
1 504
1 505
1 506
1 507
1 508
1 509
1 510
1 511
1 512
1 513
1 514
1 515
1 516
1 517
1 518
1 519
1 520
1 521
1 522
1 523
1 524
1 525
1 526
POINT_DATA 527
VECTORS i float
0.0 0.0 0.0
0.0 0.0 0.0
0.0 0.0 0.0
0.0 0.0 0.0
0.0 0.0 0.0
0.0 0.0 0.0
0.0 0.0 0.0
0.0 0.0 0.0
0.0 0.0 0.0
0.0 0.0 0.0
0.0 0.0 0.0
0.0 0.0 0.0
0.0 0.0 0.0
0.0 0.0 0.0
0.0 0.0 0.0
0.0 0.0 0.0
0.0 0.0 0.0
0.0 0.0 0.0
0.0 0.0 0.0
0.0 0.0 0.0
0.0 0.0 0.0
0.0 0.0 0.0
0.0 0.0 0.0
0.0 0.0 0.0
0.0 0.0 0.0
0.0 0.0 0.0
0.0 0.0 0.0
0.0 0.0 0.0
0.0 0.0 0.0
0.0 0.0 0.0
0.0 0.0 0.0
0.0 0.0 0.0
0.0 0.0 0.0
0.0 0.0 0.0
0.0 0.0 0.0
0.0 0.0 0.0
0.0 0.0 0.0
0.0 0.0 0.0
0.0 0.0 0.0
0.0 0.0 0.0
0.0 0.0 0.0
0.0 0.0 0.0
0.0 0.0 0.0
0.0 0.0 0.0
0.0 0.0 0.0
0.0 0.0 0.0
0.0 0.0 0.0
0.0 0.0 0.0
0.0 0.0 0.0
0.0 0.0 0.0
0.0 0.0 0.0
0.0 0.0 0.0
0.0 0.0 0.0
0.0 0.0 0.0
0.0 0.0 0.0
0.0 0.0 0.0
0.0 0.0 0.0
0.0 0.0 0.0
0.0 0.0 0.0
0.0 0.0 0.0
0.0 0.0 0.0
0.0 0.0 0.0
0.0 0.0 0.0
0.0 0.0 0.0
0.0 0.0 0.0
0.0 0.0 0.0
0.0 0.0 0.0
0.0 0.0 0.0
0.0 0.0 0.0
0.0 0.0 0.0
0.0 0.0 0.0
0.0 0.0 0.0
0.0 0.0 0.0
0.0 0.0 0.0
0.0 0.0 0.0
0.0 0.0 0.0
0.0 0.0 0.0
0.0 0.0 0.0
0.0 0.0 0.0
0.0 0.0 0.0
0.0 0.0 0.0
0.0 0.0 0.0
0.0 0.0 0.0
0.0 0.0 0.0
0.0 0.0 0.0
0.0 0.0 0.0
0.0 0.0 0.0
0.0 0.0 0.0
0.0 0.0 0.0
0.0 0.0 0.0
0.0 0.0 0.0
0.0 0.0 0.0
0.0 0.0 0.0
0.0 0.0 0.0
0.0 0.0 0.0
0.0 0.0 0.0
0.0 0.0 0.0
0.0 0.0 0.0
0.0 0.0 0.0
0.0 0.0 0.0
0.0 0.0 0.0
0.0 0.0 0.0
0.0 0.0 0.0
0.0 0.0 0.0
0.0 0.0 0.0
0.0 0.0 0.0
0.0 0.0 0.0
0.0 0.0 0.0
0.0 0.0 0.0
0.0 0.0 0.0
0.0 0.0 0.0
0.0 0.0 0.0
0.0 0.0 0.0
0.0 0.0 0.0
0.0 0.0 0.0
0.0 0.0 0.0
0.0 0.0 0.0
0.0 0.0 0.0
0.0 0.0 0.0
0.0 0.0 0.0
0.0 0.0 0.0
0.0 0.0 0.0
0.0 0.0 0.0
0.0 0.0 0.0
0.0 0.0 0.0
0.0 0.0 0.0
0.0 0.0 0.0
0.0 0.0 0.0
0.0 0.0 0.0
0.0 0.0 0.0
0.0 0.0 0.0
0.0 0.0 0.0
0.0 0.0 0.0
0.0 0.0 0.0
0.0 0.0 0.0
0.0 0.0 0.0
0.0 0.0 0.0
0.0 0.0 0.0
0.0 0.0 0.0
0.0 0.0 0.0
0.0 0.0 0.0
0.0 0.0 0.0
0.0 0.0 0.0
0.0 0.0 0.0
0.0 0.0 0.0
0.0 0.0 0.0
0.0 0.0 0.0
0.0 0.0 0.0
0.0 0.0 0.0
0.0 0.0 0.0
0.0 0.0 0.0
0.0 0.0 0.0
0.0 0.0 0.0
0.0 0.0 0.0
0.0 0.0 0.0
0.0 0.0 0.0
0.0 0.0 0.0
0.0 0.0 0.0
0.0 0.0 0.0
0.0 0.0 0.0
0.0 0.0 0.0
0.0 0.0 0.0
0.0 0.0 0.0
0.0 0.0 0.0
0.0 0.0 0.0
0.0 0.0 0.0
0.0 0.0 0.0
0.0 0.0 0.0
0.0 0.0 0.0
0.0 0.0 0.0
0.0 0.0 0.0
0.0 0.0 0.0
0.0 0.0 0.0
0.0 0.0 0.0
0.0 0.0 0.0
0.0 0.0 0.0
0.0 0.0 0.0
0.0 0.0 0.0
0.0 0.0 0.0
0.0 0.0 0.0
0.0 0.0 0.0
0.0 0.0 0.0
0.0 0.0 0.0
0.0 0.0 0.0
0.0 0.0 0.0
0.0 0.0 0.0
0.0 0.0 0.0
0.0 0.0 0.0
0.0 0.0 0.0
0.0 0.0 0.0
0.0 0.0 0.0
0.0 0.0 0.0
0.0 0.0 0.0
0.0 0.0 0.0
0.0 0.0 0.0
0.0 0.0 0.0
0.0 0.0 0.0
0.0 0.0 0.0
0.0 0.0 0.0
0.0 0.0 0.0
0.0 0.0 0.0
0.0 0.0 0.0
0.0 0.0 0.0
0.0 0.0 0.0
0.0 0.0 0.0
0.0 0.0 0.0
0.0 0.0 0.0
0.0 0.0 0.0
0.0 0.0 0.0
0.0 0.0 0.0
0.0 0.0 0.0
0.0 0.0 0.0
0.0 0.0 0.0
0.0 0.0 0.0
0.0 0.0 0.0
0.0 0.0 0.0
0.0 0.0 0.0
0.0 0.0 0.0
0.0 0.0 0.0
0.0 0.0 0.0
0.0 0.0 0.0
0.0 0.0 0.0
0.0 0.0 0.0
0.0 0.0 0.0
0.0 0.0 0.0
0.0 0.0 0.0
0.0 0.0 0.0
0.0 0.0 0.0
0.0 0.0 0.0
0.0 0.0 0.0
0.0 0.0 0.0
0.0 0.0 0.0
0.0 0.0 0.0
0.0 0.0 0.0
0.0 0.0 0.0
0.0 0.0 0.0
0.0 0.0 0.0
0.0 0.0 0.0
0.0 0.0 0.0
0.0 0.0 0.0
0.0 0.0 0.0
0.0 0.0 0.0
0.0 0.0 0.0
0.0 0.0 0.0
0.0 0.0 0.0
0.0 0.0 0.0
0.0 0.0 0.0
0.0 0.0 0.0
0.0 0.0 0.0
0.0 0.0 0.0
0.0 0.0 0.0
0.0 0.0 0.0
0.0 0.0 0.0
0.0 0.0 0.0
0.0 0.0 0.0
0.0 0.0 0.0
0.0 0.0 0.0
0.0 0.0 0.0
0.0 0.0 0.0
0.0 0.0 0.0
0.0 0.0 0.0
0.0 0.0 0.0
0.0 0.0 0.0
0.0 0.0 0.0
0.0 0.0 0.0
0.0 0.0 0.0
0.0 0.0 0.0
0.0 0.0 0.0
0.0 0.0 0.0
0.0 0.0 0.0
0.0 0.0 0.0
0.0 0.0 0.0
0.0 0.0 0.0
0.0 0.0 0.0
0.0 0.0 0.0
0.0 0.0 0.0
0.0 0.0 0.0
0.0 0.0 0.0
0.0 0.0 0.0
0.0 0.0 0.0
0.0 0.0 0.0
0.0 0.0 0.0
0.0 0.0 0.0
0.0 0.0 0.0
0.0 0.0 0.0
0.0 0.0 0.0
0.0 0.0 0.0
0.0 0.0 0.0
0.0 0.0 0.0
0.0 0.0 0.0
0.0 0.0 0.0
0.0 0.0 0.0
0.0 0.0 0.0
0.0 0.0 0.0
0.0 0.0 0.0
0.0 0.0 0.0
0.0 0.0 0.0
0.0 0.0 0.0
0.0 0.0 0.0
0.0 0.0 0.0
0.0 0.0 0.0
0.0 0.0 0.0
0.0 0.0 0.0
0.0 0.0 0.0
0.0 0.0 0.0
0.0 0.0 0.0
0.0 0.0 0.0
0.0 0.0 0.0
0.0 0.0 0.0
0.0 0.0 0.0
0.0 0.0 0.0
0.0 0.0 0.0
0.0 0.0 0.0
0.0 0.0 0.0
0.0 0.0 0.0
0.0 0.0 0.0
0.0 0.0 0.0
0.0 0.0 0.0
0.0 0.0 0.0
0.0 0.0 0.0
0.0 0.0 0.0
0.0 0.0 0.0
0.0 0.0 0.0
0.0 0.0 0.0
0.0 0.0 0.0
0.0 0.0 0.0
0.0 0.0 0.0
0.0 0.0 0.0
0.0 0.0 0.0
0.0 0.0 0.0
0.0 0.0 0.0
0.0 0.0 0.0
0.0 0.0 0.0
0.0 0.0 0.0
0.0 0.0 0.0
0.0 0.0 0.0
0.0 0.0 0.0
0.0 0.0 0.0
0.0 0.0 0.0
0.0 0.0 0.0
0.0 0.0 0.0
0.0 0.0 0.0
0.0 0.0 0.0
0.0 0.0 0.0
0.0 0.0 0.0
0.0 0.0 0.0
0.0 0.0 0.0
0.0 0.0 0.0
0.0 0.0 0.0
0.0 0.0 0.0
0.0 0.0 0.0
0.0 0.0 0.0
0.0 0.0 0.0
0.0 0.0 0.0
0.0 0.0 0.0
0.0 0.0 0.0
0.0 0.0 0.0
0.0 0.0 0.0
0.0 0.0 0.0
0.0 0.0 0.0
0.0 0.0 0.0
0.0 0.0 0.0
0.0 0.0 0.0
0.0 0.0 0.0
0.0 0.0 0.0
0.0 0.0 0.0
0.0 0.0 0.0
0.0 0.0 0.0
0.0 0.0 0.0
0.0 0.0 0.0
0.0 0.0 0.0
0.0 0.0 0.0
0.0 0.0 0.0
0.0 0.0 0.0
0.0 0.0 0.0
0.0 0.0 0.0
0.0 0.0 0.0
0.0 0.0 0.0
0.0 0.0 0.0
0.0 0.0 0.0
0.0 0.0 0.0
0.0 0.0 0.0
0.0 0.0 0.0
0.0 0.0 0.0
0.0 0.0 0.0
0.0 0.0 0.0
0.0 0.0 0.0
0.0 0.0 0.0
0.0 0.0 0.0
0.0 0.0 0.0
0.0 0.0 0.0
0.0 0.0 0.0
0.0 0.0 0.0
0.0 0.0 0.0
0.0 0.0 0.0
0.0 0.0 0.0
0.0 0.0 0.0
0.0 0.0 0.0
0.0 0.0 0.0
0.0 0.0 0.0
0.0 0.0 0.0
0.0 0.0 0.0
0.0 0.0 0.0
0.0 0.0 0.0
0.0 0.0 0.0
0.0 0.0 0.0
0.0 0.0 0.0
0.0 0.0 0.0
0.0 0.0 0.0
0.0 0.0 0.0
0.0 0.0 0.0
0.0 0.0 0.0
0.0 0.0 0.0
0.0 0.0 0.0
0.0 0.0 0.0
0.0 0.0 0.0
0.0 0.0 0.0
0.0 0.0 0.0
0.0 0.0 0.0
0.0 0.0 0.0
0.0 0.0 0.0
0.0 0.0 0.0
0.0 0.0 0.0
0.0 0.0 0.0
0.0 0.0 0.0
0.0 0.0 0.0
0.0 0.0 0.0
0.0 0.0 0.0
0.0 0.0 0.0
0.0 0.0 0.0
0.0 0.0 0.0
0.0 0.0 0.0
0.0 0.0 0.0
0.0 0.0 0.0
0.0 0.0 0.0
0.0 0.0 0.0
0.0 0.0 0.0
0.0 0.0 0.0
0.0 0.0 0.0
0.0 0.0 0.0
0.0 0.0 0.0
0.0 0.0 0.0
0.0 0.0 0.0
0.0 0.0 0.0
0.0 0.0 0.0
0.0 0.0 0.0
0.0 0.0 0.0
0.0 0.0 0.0
0.0 0.0 0.0
0.0 0.0 0.0
0.0 0.0 0.0
0.0 0.0 0.0
0.0 0.0 0.0
0.0 0.0 0.0
0.0 0.0 0.0
0.0 0.0 0.0
0.0 0.0 0.0
0.0 0.0 0.0
0.0 0.0 0.0
0.0 0.0 0.0
0.0 0.0 0.0
0.0 0.0 0.0
0.0 0.0 0.0
0.0 0.0 0.0
0.0 0.0 0.0
0.0 0.0 0.0
0.0 0.0 0.0
0.0 0.0 0.0
0.0 0.0 0.0
0.0 0.0 0.0
0.0 0.0 0.0
0.0 0.0 0.0
0.0 0.0 0.0
0.0 0.0 0.0
0.0 0.0 0.0
0.0 0.0 0.0
0.0 0.0 0.0
0.0 0.0 0.0
0.0 0.0 0.0
0.0 0.0 0.0
0.0 0.0 0.0
0.0 0.0 0.0
0.0 0.0 0.0
0.0 0.0 0.0
0.0 0.0 0.0
0.0 0.0 0.0
0.0 0.0 0.0
0.0 0.0 0.0
0.0 0.0 0.0
0.0 0.0 0.0
0.0 0.0 0.0
0.0 0.0 0.0
0.0 0.0 0.0
0.0 0.0 0.0
0.0 0.0 0.0
0.0 0.0 0.0
0.0 0.0 0.0
0.0 0.0 0.0
0.0 0.0 0.0
0.0 0.0 0.0
0.0 0.0 0.0
0.0 0.0 0.0
0.0 0.0 0.0
0.0 0.0 0.0
0.0 0.0 0.0
0.0 0.0 0.0
0.0 0.0 0.0
0.0 0.0 0.0
0.0 0.0 0.0
0.0 0.0 0.0
0.0 0.0 0.0
0.0 0.0 0.0
0.0 0.0 0.0
0.0 0.0 0.0
0.0 0.0 0.0
0.0 0.0 0.0
0.0 0.0 0.0
0.0 0.0 0.0
0.0 0.0 0.0
0.0 0.0 0.0
0.0 0.0 0.0
0.0 0.0 0.0
0.0 0.0 0.0
0.0 0.0 0.0
0.0 0.0 0.0
0.0 0.0 0.0
0.0 0.0 0.0
VECTORS f float
0.0 0.0 -2.77371
0.0 0.0 -2.77371
0.0 0.0 -2.77371
0.0 0.0 -2.77371
0.0 0.0 -2.77371
0.0 0.0 -2.77371
0.0 0.0 -2.77371
0.0 0.0 -2.77371
0.0 0.0 -2.77371
0.0 0.0 -2.77371
0.0 0.0 -2.77371
0.0 0.0 -2.77371
-0.0152512 -0.00334219 -2.76315
0.0 0.0 -2.77371
0.562522 0.690326 -1.56501
0.0 0.0 -2.77371
7.62479 10.9527 10.5032
0.0 0.0 -2.77371
4.0165 4.44155 4.87784
1.36852 -0.587692 -0.0421269
0.11024 0.524823 -2.15438
0.359274 0.618365 -0.24188
-0.0567371 -0.0696883 0.0197944
0.0054046 0.000674712 0.111944
1.34556 0.733579 0.291369
-1.23427 1.1389 -3.88514
0.000757645 6.37205e-05 -0.0147157
3.4413 8.31718 10.5167
-0.0578694 -0.0571947 0.0411978
0.389321 0.0905509 -2.427
0.663378 0.274262 -0.237377
1.57556 -0.492847 0.0683277
-0.00471578 0.00415667 -0.300938
0.0 0.0 -2.77371
3.44209e-06 -1.70124e-07 0.000107664
-6.08342e-05 1.55939e-05 -0.00438573
-0.0062539 0.00122185 -0.0321502
55.4281 -9.35851 -73.5207
68.7148 39.2703 43.4803
0.0 0.0 -2.77371
0.0 0.0 -2.77371
11.1606 1.72004 11.3651
-0.404251 0.682386 1.79282
0.0 0.0 -2.77371
0.0987955 0.116883 -0.0444599
-0.000116021 1.71395e-06 -0.0362732
0.000969189 -0.00035766 -0.0117531
0.0 0.0 -2.77371
95.0501 29.9857 185.677
48.488 13.8309 8.07472
-0.29518 0.327135 0.12593
0.504449 -4.49286 -0.162538
-0.000322563 7.22464e-05 0.0013432
-6.97369 1.00001 0.182125
13.0638 -1.84228 1.31093
0.0718379 0.0414242 -0.337696
4.65722 2.16403 -0.0752709
-0.00255551 0.000721431 0.0653408
0.00820956 0.0013466 0.0572009
-3.7113e-06 4.17718e-07 0.00014839
-4.81659e-06 2.48999e-06 -5.96626e-05
0.00726424 0.00728102 0.00137242
0.0 0.0 -2.77371
130.856 30.8689 73.2228
2.50895 -2.35308 -8.98726
-0.116983 -0.0695092 1.62747
-7.75636 4.70303 1.77423
0.000198252 -3.64295e-05 0.0636881
-0.00935359 -0.00105168 -0.0540729
-2.72413 -1.76096 1.54997
0.0 0.0 -2.77371
0.0 0.0 -2.77371
4.39262 -0.925668 21.6499
-0.0886464 -0.0188297 0.0355487
0.0 0.0 -2.77371
0.702776 -7.26442 2.37923
-0.00129616 -0.000100985 0.059467
0.00133154 0.000222354 -0.0688471
0.0441503 -0.0901882 0.333381
-1.2315e-05 1.24977e-06 0.000124148
-0.0001518 2.5309e-05 -0.00128949
-0.186787 0.0109651 -3.14793
4.149 2.97101 -0.91427
0.0 0.0 -2.77371
0.0152512 0.00334219 -2.78428
29.6581 -5.17657 57.4392
7.00906 0.354713 11.2623
0.0 0.0 -2.77371
0.0 0.0 -2.77371
23.4529 0.572133 44.1461
0.281837 0.0750856 -2.59033
-5.58188 -9.37824 -5.2159
2.82259 -0.0912008 0.681979
0.116186 2.54666 1.80336
-0.0666678 -2.72155 6.89341
0.221793 -2.78312 -1.09956
-0.278137 -0.128371 1.1719
-0.942809 -6.11577 4.7401
2.62171 1.78015 -1.8338
1.51209 -1.7932 -1.66007
-15.0706 19.1695 -27.56
-0.161899 -9.10085 -5.78765
-0.36273 0.0274018 7.37547
0.0031917 0.000400148 0.0140588
-0.0182485 -0.00130341 -0.0756889
2.61509e-05 8.08704e-07 0.00133578
-0.174082 -0.0718189 -0.111969
0.533466 0.159396 1.3909
0.411186 -0.205144 5.52015
0.00357786 -0.000330384 0.0730452
-0.702172 0.602922 -2.24614
0.0 0.0 -2.77371
0.0 0.0 -2.77371
0.00995087 -0.00163677 0.059203
0.0 0.0 -2.77371
-3.15729 -4.63159 -24.249
-0.560618 -14.3261 -37.0242
0.0291382 0.00465198 0.478748
0.457379 0.276185 0.312223
8.63959e-06 6.30023e-07 -0.00322664
19.6802 -13.8582 7.27543
15.0801 -2.14038 31.015
-0.000903548 -5.77377e-05 0.0400675
1.82768 -1.86173 -1.25122
1.52229 0.38754 0.367976
-0.37547 0.0636818 -0.653447
0.0 0.0 -2.77371
28.7431 4.86528 5.63365
48.165 22.3749 84.27
2.09783 10.3605 8.84287
0.0 0.0 -2.77371
13.129 -7.89833 -5.87381
-0.280979 0.0284742 -0.993029
0.0 0.0 -2.77371
-6.11069 18.1392 4.94481
2.25384 0.0888162 7.3953
1.93697 1.6408 0.497695
-0.840319 3.8772 0.315468
1.85678 1.57539 -0.773389
0.00096758 0.000112117 0.0414998
-0.559606 0.147851 0.479753
4.67869 -0.915892 -0.393103
0.0 0.0 -2.77371
0.0 0.0 -2.77371
-8.48704 16.8897 -14.1822
11.5079 20.8034 13.4034
-6.13146 -5.33494 -20.2098
0.0 0.0 -2.77371
0.496426 0.086413 5.15854
-1.70696 0.819036 -0.776162
-0.235114 2.23499 0.8715
0.12263 0.789682 -2.75847
-0.0636752 -0.0734966 -0.183077
-0.0363926 -0.0321359 -2.75433
0.0 0.0 -2.77371
4.12463 -18.5629 16.4874
14.9103 -6.98585 4.61674
0.0794964 0.00916944 1.22893
0.324525 -0.735375 -0.723146
0.00668718 -1.17392 -0.820126
0.0880115 0.0766849 -0.788713
0.995621 -1.6289 -0.815782
0.85596 0.15886 -1.03256
-0.576437 0.0229621 -4.31167
1.39246 -0.631724 0.284403
3.35023 -0.634304 1.61835
5.75363 -7.25336 -1.51967
0.52721 0.568586 -1.14812
0.359868 1.83497 -1.6025
1.82869 0.524874 -0.00738757
-2.64368e-05 -5.64402e-07 8.08716e-05
8.32141e-06 -8.00268e-07 1.02764e-05
7.5365 -11.4373 11.9237
1.68943 2.14818 0.0366842
-0.0305511 0.951274 -1.05238
3.91252 3.35424 2.19105
0.0 0.0 -2.77371
-0.00257472 0.969193 -1.00938
1.37902e-05 0.988818 -0.988714
0.145754 0.701135 -0.701117
-0.00220521 0.822848 -1.2708
-0.265255 0.152918 -2.8151
-2.74554 -4.1587 0.725774
0.0 0.0 -2.77371
0.0 0.0 -2.77371
0.2543 -0.135058 -0.24861
-0.579662 -12.8607 11.2781
24.4715 -12.9034 3.39452
0.0 0.0 -2.77371
0.0 0.0 -2.77371
9.22636 -0.466926 6.09462
-3.08871 -4.82196 -6.78643
0.958873 -1.14045 -1.26078
0.379258 -0.304606 -2.93384
9.72326 -2.55937 10.6239
0.0 0.0 -2.77371
0.0 0.0 -2.77371
8.16687 20.4488 59.905
-19.1148 10.6537 -24.7734
-0.304207 0.0898993 -1.32603
-0.252139 -1.06867 -0.589588
0.0 0.0 -2.77371
-5.33976 -2.59714 -0.265795
0.0 0.0 -2.77371
-7.00035 -0.376351 6.30549
-0.146921 0.383945 -2.24167
0.648953 -1.94785 1.95429
-51.1149 -0.283397 -41.4036
-2.00333 -0.172271 -3.92159
12.6124 10.0675 13.7969
0.0 0.0 -2.77371
0.0 0.0 -2.77371
0.0 0.0 -2.77371
3.94444 0.485255 3.08286
2.34917 -16.4295 -2.3646
-11.9406 -8.69673 24.3421
-1.27964 4.38267 42.5369
0.0 0.0 -2.77371
0.0 0.0 -2.77371
0.520184 0.332892 -2.23699
3.42072 -0.795282 3.15933
0.0 0.0 -2.77371
-1.74688 -11.5566 -21.8359
-55.1325 5.68675 -59.002
6.13146 5.33494 14.6623
-0.653285 -0.740165 -3.2524
0.0 0.0 -2.77371
0.0 0.0 -2.77371
-11.0826 10.1942 8.27116
1.45147 -1.94097 -0.141437
0.0 0.0 -2.77371
0.0 0.0 -2.77371
0.001347 0.00240261 -2.2619
2.53231e-05 -0.98874 -0.988778
-4.08154 -0.220748 -1.98149
5.21969 -8.10427 2.99571
-0.0340734 -1.40766 -0.946617
-1.92245 10.1162 2.0013
0.706989 0.106073 0.0728287
7.52199e-05 -0.988427 -0.988877
-0.00100267 1.01032 -0.970685
-0.000134121 0.985958 -0.991545
0.0 0.0 -2.77371
-0.98478 0.355367 -2.8233
0.0 0.0 -2.77371
0.0 0.0 -2.77371
0.0 0.0 -2.77371
0.0 0.0 -2.77371
0.0 0.0 -2.77371
0.0 0.0 -2.77371
0.0 0.0 -2.77371
-13.2109 -6.66249 19.4044
-24.4715 12.9034 -8.94194
0.0 0.0 -2.77371
10.7832 4.2359 20.8498
37.2456 1.7393 92.5497
0.0 0.0 -2.77371
-2.22617 1.60401 -5.67907
-2.79007 -3.86536 -5.46166
0.0 0.0 -2.77371
18.0271 -13.3941 20.35
0.0 0.0 -2.77371
4.13277 5.38656 -0.324178
0.0 0.0 -2.77371
22.3393 15.1128 51.161
1.27866 1.64261 -1.39603
-1.06814 1.62237 -4.95802
0.0 0.0 -2.77371
0.0 0.0 -2.77371
4.00933 1.18902 4.75809
0.277671 -0.380807 -2.36751
5.80391 -0.347247 15.7906
0.0 0.0 -2.77371
0.0 0.0 -2.77371
-20.5492 17.86 98.8205
19.1148 -10.6537 19.226
0.504205 -2.82061 0.530196
0.0 0.0 -2.77371
-0.0254623 -2.68921 6.35283
0.0 0.0 -2.77371
-6.66921 -27.2067 -59.254
-1.69333 0.402417 3.77062
0.0709978 2.07966 -2.29172