# vtk DataFile Version 2.0
Generated by lpp.py
ASCII
DATASET POLYDATA
POINTS 351 float
2.1683 0.500833 1.56421
0.195476 0.182918 1.58087
0.335891 0.189626 1.57685
0.421872 0.171839 1.59134
0.664306 0.188034 1.57637
0.71778 0.170883 1.59687
0.854683 0.181038 1.58185
0.912586 0.19542 1.5769
1.05705 0.187607 1.5768
1.12054 0.191091 1.57694
1.32307 0.180299 1.58276
1.51563 0.186466 1.57682
1.57098 0.166825 1.59617
1.81954 0.193123 1.57874
1.95364 0.190971 1.57683
2.02735 0.171591 1.59104
0.278476 0.229672 1.57974
0.568253 0.20843 1.57593
0.710006 0.226919 1.57684
1.16929 0.232101 1.57687
1.28315 0.224309 1.5766
1.37357 0.2124 1.57689
1.61123 0.223265 1.57686
2.0064 0.227939 1.57687
0.176239 0.239981 1.57682
0.51146 0.246745 1.57678
0.649427 0.252127 1.58122
0.815465 0.252886 1.57889
0.960571 0.237681 1.57691
1.01934 0.25253 1.57876
1.10782 0.251422 1.57687
1.41978 0.249927 1.57882
1.48497 0.246158 1.57686
1.69867 0.266743 1.57686
1.77604 0.235495 1.57702
0.125466 0.278672 1.57529
0.210122 0.292108 1.57725
0.363958 0.292556 1.57729
0.421813 0.277999 1.57546
0.553076 0.289096 1.58154
0.761923 0.278755 1.57594
0.891926 0.284667 1.57686
0.957999 0.297949 1.57682
1.15696 0.295762 1.57672
1.21816 0.267965 1.57684
1.30917 0.27808 1.57705
1.4502 0.300406 1.57726
1.83254 0.271365 1.57686
1.96623 0.2753 1.57686
0.116773 0.338535 1.57531
0.311565 0.33006 1.57667
0.811804 0.311424 1.57975
1.20064 0.336373 1.57688
1.25904 0.313423 1.57685
1.31605 0.337473 1.57677
1.60802 0.320938 1.57686
1.66853 0.319561 1.57681
1.72647 0.333277 1.57691
0.00873941 0.368854 1.57914
0.225895 0.369935 1.57612
0.375789 0.353379 1.57477
0.442585 0.369081 1.57241
0.512505 0.364561 1.58045
0.686863 0.340201 1.57687
0.91626 0.34052 1.57679
0.982965 0.353392 1.57651
1.10674 0.354557 1.57678
1.50618 0.345321 1.57686
1.78371 0.372513 1.57686
1.85599 0.352822 1.57699
0.112425 0.409322 1.57607
0.636818 0.404695 1.5785
0.783735 0.385671 1.57674
1.02664 0.392167 1.58846
1.16431 0.385508 1.57686
1.24646 0.374553 1.57741
1.38769 0.40422 1.57732
1.54864 0.387101 1.58363
1.62948 0.384071 1.57782
0.170479 0.428599 1.57542
0.359437 0.413234 1.57967
0.409065 0.44419 1.58987
0.718314 0.441535 1.57686
0.895916 0.431486 1.57701
0.955211 0.44393 1.57858
1.27824 0.42515 1.57935
1.44725 0.415032 1.57679
1.53339 0.444487 1.57685
1.59854 0.435037 1.57649
1.66329 0.437179 1.57851
1.72756 0.439596 1.57686
1.86414 0.412227 1.57679
2.12814 0.440452 1.57244
0.31091 0.445615 1.57581
0.358348 0.480312 1.58938
0.474126 0.451625 1.5763
0.58335 0.464955 1.57709
0.786301 0.446269 1.57688
1.05897 0.446636 1.57658
1.16953 0.446409 1.57671
1.23749 0.468981 1.57685
1.34359 0.467416 1.57686
1.41913 0.469412 1.57686
1.78571 0.465458 1.57635
0.0872139 0.513584 1.57916
0.408459 0.511441 1.57342
0.523211 0.507598 1.57653
0.636916 0.48111 1.59801
0.80862 0.507798 1.57686
0.888883 0.492111 1.57641
0.945505 0.512146 1.57683
1.0669 0.505647 1.58212
1.16825 0.506531 1.5769
1.29637 0.506862 1.57679
1.5016 0.507627 1.57703
1.56205 0.507742 1.57826
1.64483 0.494963 1.577
2.08518 0.492295 1.57377
0.158788 0.546201 1.57687
0.220565 0.526717 1.57492
0.301127 0.548353 1.57937
0.600589 0.537091 1.57685
0.717408 0.518122 1.57684
1.34809 0.540854 1.57853
1.42481 0.53055 1.57687
1.60485 0.550654 1.57686
1.7693 0.523038 1.57685
2.01638 0.543571 1.5768
2.23179 0.53762 1.57632
0.374308 0.565919 1.58501
0.435964 0.565505 1.57701
0.530987 0.566692 1.57699
0.64395 0.577374 1.58695
0.719639 0.577132 1.58631
0.798823 0.580982 1.59016
0.9777 0.567039 1.57678
1.04192 0.560193 1.57657
1.10157 0.554749 1.57687
1.19691 0.562485 1.57658
1.2931 0.566577 1.57663
1.52089 0.567047 1.57687
1.73547 0.580706 1.58988
2.11782 0.554566 1.5713
0.13273 0.161263 1.63036
0.46165 0.13038 1.63266
0.559722 0.139374 1.62114
0.86215 0.13365 1.62922
0.921759 0.141508 1.62142
1.04415 0.143177 1.61999
1.28691 0.136443 1.62649
0.613707 0.196419 1.61157
0.439036 0.228523 1.60201
0.985879 0.200846 1.63035
0.100114 0.244377 1.61567
0.163036 0.232362 1.63467
0.269578 0.253923 1.63387
0.566186 0.242444 1.62429
0.317083 0.297038 1.62831
0.487412 0.299558 1.6167
0.0551893 0.338019 1.61181
0.237657 0.316386 1.62115
0.596113 0.307048 1.61732
1.1214 0.317742 1.62161
0.205946 0.366526 1.63094
0.426952 0.350309 1.62285
0.56012 0.370987 1.63038
1.44941 0.354001 1.6148
0.12884 0.377285 1.62339
0.375594 0.379884 1.62602
0.470644 0.402547 1.60928
1.09747 0.405675 1.60645
1.34202 0.378032 1.61244
0.224175 0.422064 1.60104
0.339386 0.42573 1.63324
0.598544 0.424038 1.62887
1.51585 0.440335 1.63443
0.114456 0.465052 1.60909
0.169685 0.455514 1.62771
0.23924 0.478803 1.60151
0.290685 0.466841 1.62732
1.10997 0.464093 1.60277
1.45462 0.454229 1.62436
0.391775 0.497059 1.63412
0.45126 0.50505 1.61014
0.516639 0.488608 1.63268
0.889294 0.545895 1.601
0.992148 0.52392 1.61556
1.07344 0.542408 1.62846
1.24331 0.546724 1.6088
0.246679 0.56004 1.6159
0.409846 0.604198 1.62989
0.508484 0.608438 1.61783
0.723081 0.620855 1.62997
0.906516 0.601879 1.61052
0.965086 0.61383 1.62314
1.07416 0.598475 1.60782
1.15176 0.592601 1.60178
1.21362 0.605727 1.61716
1.38203 0.593742 1.60722
1.35834 0.100395 1.66588
0.725569 0.126043 1.63643
0.984609 0.13259 1.64135
0.19854 0.17814 1.64308
0.356412 0.164912 1.65296
0.435998 0.183395 1.66815
0.765536 0.167228 1.64818
0.48272 0.206842 1.63604
0.365171 0.257441 1.6359
0.67476 0.266161 1.64326
0.433916 0.298048 1.64881
0.177527 0.310392 1.64077
0.359645 0.329965 1.65394
0.717353 0.330329 1.63576
0.954382 0.307319 1.63569
0.621446 0.368565 1.63532
0.292622 0.399303 1.66053
0.479932 0.378685 1.66161
0.763556 0.383998 1.63962
1.40309 0.402902 1.6396
0.237206 0.428329 1.65748
0.42738 0.415748 1.6475
0.521484 0.41904 1.64778
0.923668 0.427521 1.66227
0.332174 0.476995 1.66854
0.714163 0.484282 1.65655
1.34446 0.487862 1.64573
0.341266 0.540773 1.64049
0.648439 0.523228 1.63804
0.467472 0.576928 1.64895
0.564273 0.567829 1.64383
0.748084 0.55339 1.64568
0.881529 0.570646 1.65527
0.634829 0.603882 1.63939
0.318844 0.626252 1.6352
0.318651 0.204922 1.68646
0.225569 0.242429 1.70399
0.420418 0.244265 1.67898
0.257112 0.286933 1.68091
0.334859 0.282762 1.69348
0.482493 0.282973 1.67991
0.393906 0.307961 1.69715
0.65138 0.329372 1.67503
0.104364 0.371175 1.68473
0.183488 0.370872 1.68508
0.243907 0.361211 1.68173
0.406019 0.365801 1.67429
0.587968 0.345663 1.68481
0.124882 0.444445 1.70337
0.43163 0.469458 1.67447
0.50842 0.530779 1.67473
0.598075 0.615763 1.69288
0.410315 0.229608 1.73554
0.48343 0.256341 1.73435
0.287055 0.327501 1.70931
0.440163 0.341841 1.7162
0.514111 0.402132 1.71013
0.0522869 0.421467 1.7056
0.292698 0.428673 1.72041
0.367427 0.412219 1.71005
0.387806 0.497135 1.7324
0.304289 0.558585 1.71204
0.701626 0.607979 1.71703
0.354806 0.697846 1.70832
0.488965 0.329122 1.77165
0.436973 0.45447 1.76537
0.498994 0.449521 1.76649
0.10683 0.52412 1.74374
0.498691 0.522189 1.77266
0.307197 0.231054 1.79225
0.112238 0.243444 1.79722
0.338106 0.302046 1.79769
0.26384 0.382845 1.79481
0.197767 0.505506 1.79308
0.196779 0.286134 1.8362
0.144627 0.329159 1.81174
0.388723 0.350133 1.82414
0.336562 0.447813 1.83009
0.316599 0.507618 1.84017
0.498503 0.253983 1.87487
0.322732 0.35929 1.86308
0.179678 0.383211 1.85424
0.404531 0.416433 1.85579
0.180002 0.445959 1.85027
0.133145 0.50156 1.87355
0.4192 0.521596 1.85855
0.432796 0.302258 1.90332
0.499396 0.409304 1.91138
0.230608 0.478968 1.88928
0.299287 0.247375 1.91678
0.442411 0.236129 1.92083
0.126939 0.284236 1.93449
0.187834 0.32549 1.94108
0.345572 0.308923 1.9288
0.476186 0.343657 1.92245
0.282511 0.427246 1.94478
0.180798 0.510604 1.94369
0.383426 0.485675 1.93283
0.196226 0.26238 1.96716
0.356376 0.254196 1.97038
0.256147 0.321804 1.9581
0.110703 0.374435 1.96139
0.415762 0.389621 1.97129
0.107302 0.455042 1.96762
0.49838 0.508374 1.97728
0.271982 0.260644 2.0174
0.321856 0.294278 2.01529
0.44222 0.295647 2.00416
0.346145 0.350757 2.00896
0.475094 0.383761 2.00278
0.214879 0.429082 1.98869
0.466199 0.451954 2.00944
0.104255 0.515661 2.01942
0.236464 0.494005 2.00646
0.430217 0.500721 2.00993
0.339305 0.526873 1.99986
0.103324 0.228818 2.04871
0.161403 0.258279 2.04827
0.363615 0.240431 2.05399
0.499192 0.246026 2.05267
0.125428 0.344451 2.03362
0.189012 0.364304 2.04298
0.415188 0.353574 2.03874
0.282424 0.374546 2.0269
0.115455 0.44409 2.04447
0.323589 0.424937 2.03661
0.40415 0.414672 2.05454
0.370433 0.49856 2.05148
0.425069 0.242959 2.05512
0.257372 0.298287 2.08437
0.31493 0.348737 2.07385
0.484684 0.362834 2.08124
0.125062 0.39201 2.08589
0.158807 0.499296 2.06065
0.264146 0.523422 2.05795
0.220666 0.238837 2.09734
0.393674 0.233628 2.11132
0.17717 0.298235 2.1092
0.314466 0.284399 2.10272
0.492483 0.279077 2.1044
0.417494 0.317622 2.10147
0.107591 0.339963 2.11367
0.217234 0.387064 2.09563
0.385775 0.387923 2.11657
0.449749 0.403068 2.10884
0.139724 0.459766 2.11164
0.263093 0.452487 2.10205
0.417911 0.469013 2.09692
0.486571 0.452792 2.10556
0.220758 0.508511 2.10861
0.312076 0.491969 2.1076
0.490194 0.521396 2.11111
VERTICES 351 702
1 0
1 1
1 2
1 3
1 4
1 5
1 6
1 7
1 8
1 9
1 10
1 11
1 12
1 13
1 14
1 15
1 16
1 17
1 18
1 19
1 20
1 21
1 22
1 23
1 24
1 25
1 26
1 27
1 28
1 29
1 30
1 31
1 32
1 33
1 34
1 35
1 36
1 37
1 38
1 39
1 40
1 41
1 42
1 43
1 44
1 45
1 46
1 47
1 48
1 49
1 50
1 51
1 52
1 53
1 54
1 55
1 56
1 57
1 58
1 59
1 60
1 61
1 62
1 63
1 64
1 65
1 66
1 67
1 68
1 69
1 70
1 71
1 72
1 73
1 74
1 75
1 76
1 77
1 78
1 79
1 80
1 81
1 82
1 83
1 84
1 85
1 86
1 87
1 88
1 89
1 90
1 91
1 92
1 93
1 94
1 95
1 96
1 97
1 98
1 99
1 100
1 101
1 102
1 103
1 104
1 105
1 106
1 107
1 108
1 109
1 110
1 111
1 112
1 113
1 114
1 115
1 116
1 117
1 118
1 119
1 120
1 121
1 122
1 123
1 124
1 125
1 126
1 127
1 128
1 129
1 130
1 131
1 132
1 133
1 134
1 135
1 136
1 137
1 138
1 139
1 140
1 141
1 142
1 143
1 144
1 145
1 146
1 147
1 148
1 149
1 150
1 151
1 152
1 153
1 154
1 155
1 156
1 157
1 158
1 159
1 160
1 161
1 162
1 163
1 164
1 165
1 166
1 167
1 168
1 169
1 170
1 171
1 172
1 173
1 174
1 175
1 176
1 177
1 178
1 179
1 180
1 181
1 182
1 183
1 184
1 185
1 186
1 187
1 188
1 189
1 190
1 191
1 192
1 193
1 194
1 195
1 196
1 197
1 198
1 199
1 200
1 201
1 202
1 203
1 204
1 205
1 206
1 207
1 208
1 209
1 210
1 211
1 212
1 213
1 214
1 215
1 216
1 217
1 218
1 219
1 220
1 221
1 222
1 223
1 224
1 225
1 226
1 227
1 228
1 229
1 230
1 231
1 232
1 233
1 234
1 235
1 236
1 237
1 238
1 239
1 240
1 241
1 242
1 243
1 244
1 245
1 246
1 247
1 248
1 249
1 250
1 251
1 252
1 253
1 254
1 255
1 256
1 257
1 258
1 259
1 260
1 261
1 262
1 263
1 264
1 265
1 266
1 267
1 268
1 269
1 270
1 271
1 272
1 273
1 274
1 275
1 276
1 277
1 278
1 279
1 280
1 281
1 282
1 283
1 284
1 285
1 286
1 287
1 288
1 289
1 290
1 291
1 292
1 293
1 294
1 295
1 296
1 297
1 298
1 299
1 300
1 301
1 302
1 303
1 304
1 305
1 306
1 307
1 308
1 309
1 310
1 311
1 312
1 313
1 314
1 315
1 316
1 317
1 318
1 319
1 320
1 321
1 322
1 323
1 324
1 325
1 326
1 327
1 328
1 329
1 330
1 331
1 332
1 333
1 334
1 335
1 336
1 337
1 338
1 339
1 340
1 341
1 342
1 343
1 344
1 345
1 346
1 347
1 348
1 349
1 350
POINT_DATA 351
VECTORS i float
0.0 0.0 0.0
0.0 0.0 0.0
0.0 0.0 0.0
0.0 0.0 0.0
0.0 0.0 0.0
0.0 0.0 0.0
0.0 0.0 0.0
0.0 0.0 0.0
0.0 0.0 0.0
0.0 0.0 0.0
0.0 0.0 0.0
0.0 0.0 0.0
0.0 0.0 0.0
0.0 0.0 0.0
0.0 0.0 0.0
0.0 0.0 0.0
0.0 0.0 0.0
0.0 0.0 0.0
0.0 0.0 0.0
0.0 0.0 0.0
0.0 0.0 0.0
0.0 0.0 0.0
0.0 0.0 0.0
0.0 0.0 0.0
0.0 0.0 0.0
0.0 0.0 0.0
0.0 0.0 0.0
0.0 0.0 0.0
0.0 0.0 0.0
0.0 0.0 0.0
0.0 0.0 0.0
0.0 0.0 0.0
0.0 0.0 0.0
0.0 0.0 0.0
0.0 0.0 0.0
0.0 0.0 0.0
0.0 0.0 0.0
0.0 0.0 0.0
0.0 0.0 0.0
0.0 0.0 0.0
0.0 0.0 0.0
0.0 0.0 0.0
0.0 0.0 0.0
0.0 0.0 0.0
0.0 0.0 0.0
0.0 0.0 0.0
0.0 0.0 0.0
0.0 0.0 0.0
0.0 0.0 0.0
0.0 0.0 0.0
0.0 0.0 0.0
0.0 0.0 0.0
0.0 0.0 0.0
0.0 0.0 0.0
0.0 0.0 0.0
0.0 0.0 0.0
0.0 0.0 0.0
0.0 0.0 0.0
0.0 0.0 0.0
0.0 0.0 0.0
0.0 0.0 0.0
0.0 0.0 0.0
0.0 0.0 0.0
0.0 0.0 0.0
0.0 0.0 0.0
0.0 0.0 0.0
0.0 0.0 0.0
0.0 0.0 0.0
0.0 0.0 0.0
0.0 0.0 0.0
0.0 0.0 0.0
0.0 0.0 0.0
0.0 0.0 0.0
0.0 0.0 0.0
0.0 0.0 0.0
0.0 0.0 0.0
0.0 0.0 0.0
0.0 0.0 0.0
0.0 0.0 0.0
0.0 0.0 0.0
0.0 0.0 0.0
0.0 0.0 0.0
0.0 0.0 0.0
0.0 0.0 0.0
0.0 0.0 0.0
0.0 0.0 0.0
0.0 0.0 0.0
0.0 0.0 0.0
0.0 0.0 0.0
0.0 0.0 0.0
0.0 0.0 0.0
0.0 0.0 0.0
0.0 0.0 0.0
0.0 0.0 0.0
0.0 0.0 0.0
0.0 0.0 0.0
0.0 0.0 0.0
0.0 0.0 0.0
0.0 0.0 0.0
0.0 0.0 0.0
0.0 0.0 0.0
0.0 0.0 0.0
0.0 0.0 0.0
0.0 0.0 0.0
0.0 0.0 0.0
0.0 0.0 0.0
0.0 0.0 0.0
0.0 0.0 0.0
0.0 0.0 0.0
0.0 0.0 0.0
0.0 0.0 0.0
0.0 0.0 0.0
0.0 0.0 0.0
0.0 0.0 0.0
0.0 0.0 0.0
0.0 0.0 0.0
0.0 0.0 0.0
0.0 0.0 0.0
0.0 0.0 0.0
0.0 0.0 0.0
0.0 0.0 0.0
0.0 0.0 0.0
0.0 0.0 0.0
0.0 0.0 0.0
0.0 0.0 0.0
0.0 0.0 0.0
0.0 0.0 0.0
0.0 0.0 0.0
0.0 0.0 0.0
0.0 0.0 0.0
0.0 0.0 0.0
0.0 0.0 0.0
0.0 0.0 0.0
0.0 0.0 0.0
0.0 0.0 0.0
0.0 0.0 0.0
0.0 0.0 0.0
0.0 0.0 0.0
0.0 0.0 0.0
0.0 0.0 0.0
0.0 0.0 0.0
0.0 0.0 0.0
0.0 0.0 0.0
0.0 0.0 0.0
0.0 0.0 0.0
0.0 0.0 0.0
0.0 0.0 0.0
0.0 0.0 0.0
0.0 0.0 0.0
0.0 0.0 0.0
0.0 0.0 0.0
0.0 0.0 0.0
0.0 0.0 0.0
0.0 0.0 0.0
0.0 0.0 0.0
0.0 0.0 0.0
0.0 0.0 0.0
0.0 0.0 0.0
0.0 0.0 0.0
0.0 0.0 0.0
0.0 0.0 0.0
0.0 0.0 0.0
0.0 0.0 0.0
0.0 0.0 0.0
0.0 0.0 0.0
0.0 0.0 0.0
0.0 0.0 0.0
0.0 0.0 0.0
0.0 0.0 0.0
0.0 0.0 0.0
0.0 0.0 0.0
0.0 0.0 0.0
0.0 0.0 0.0
0.0 0.0 0.0
0.0 0.0 0.0
0.0 0.0 0.0
0.0 0.0 0.0
0.0 0.0 0.0
0.0 0.0 0.0
0.0 0.0 0.0
0.0 0.0 0.0
0.0 0.0 0.0
0.0 0.0 0.0
0.0 0.0 0.0
0.0 0.0 0.0
0.0 0.0 0.0
0.0 0.0 0.0
0.0 0.0 0.0
0.0 0.0 0.0
0.0 0.0 0.0
0.0 0.0 0.0
0.0 0.0 0.0
0.0 0.0 0.0
0.0 0.0 0.0
0.0 0.0 0.0
0.0 0.0 0.0
0.0 0.0 0.0
0.0 0.0 0.0
0.0 0.0 0.0
0.0 0.0 0.0
0.0 0.0 0.0
0.0 0.0 0.0
0.0 0.0 0.0
0.0 0.0 0.0
0.0 0.0 0.0
0.0 0.0 0.0
0.0 0.0 0.0
0.0 0.0 0.0
0.0 0.0 0.0
0.0 0.0 0.0
0.0 0.0 0.0
0.0 0.0 0.0
0.0 0.0 0.0
0.0 0.0 0.0
0.0 0.0 0.0
0.0 0.0 0.0
0.0 0.0 0.0
0.0 0.0 0.0
0.0 0.0 0.0
0.0 0.0 0.0
0.0 0.0 0.0
0.0 0.0 0.0
0.0 0.0 0.0
0.0 0.0 0.0
0.0 0.0 0.0
0.0 0.0 0.0
0.0 0.0 0.0
0.0 0.0 0.0
0.0 0.0 0.0
0.0 0.0 0.0
0.0 0.0 0.0
0.0 0.0 0.0
0.0 0.0 0.0
0.0 0.0 0.0
0.0 0.0 0.0
0.0 0.0 0.0
0.0 0.0 0.0
0.0 0.0 0.0
0.0 0.0 0.0
0.0 0.0 0.0
0.0 0.0 0.0
0.0 0.0 0.0
0.0 0.0 0.0
0.0 0.0 0.0
0.0 0.0 0.0
0.0 0.0 0.0
0.0 0.0 0.0
0.0 0.0 0.0
0.0 0.0 0.0
0.0 0.0 0.0
0.0 0.0 0.0
0.0 0.0 0.0
0.0 0.0 0.0
0.0 0.0 0.0
0.0 0.0 0.0
0.0 0.0 0.0
0.0 0.0 0.0
0.0 0.0 0.0
0.0 0.0 0.0
0.0 0.0 0.0
0.0 0.0 0.0
0.0 0.0 0.0
0.0 0.0 0.0
0.0 0.0 0.0
0.0 0.0 0.0
0.0 0.0 0.0
0.0 0.0 0.0
0.0 0.0 0.0
0.0 0.0 0.0
0.0 0.0 0.0
0.0 0.0 0.0
0.0 0.0 0.0
0.0 0.0 0.0
0.0 0.0 0.0
0.0 0.0 0.0
0.0 0.0 0.0
0.0 0.0 0.0
0.0 0.0 0.0
0.0 0.0 0.0
0.0 0.0 0.0
0.0 0.0 0.0
0.0 0.0 0.0
0.0 0.0 0.0
0.0 0.0 0.0
0.0 0.0 0.0
0.0 0.0 0.0
0.0 0.0 0.0
0.0 0.0 0.0
0.0 0.0 0.0
0.0 0.0 0.0
0.0 0.0 0.0
0.0 0.0 0.0
0.0 0.0 0.0
0.0 0.0 0.0
0.0 0.0 0.0
0.0 0.0 0.0
0.0 0.0 0.0
0.0 0.0 0.0
0.0 0.0 0.0
0.0 0.0 0.0
0.0 0.0 0.0
0.0 0.0 0.0
0.0 0.0 0.0
0.0 0.0 0.0
0.0 0.0 0.0
0.0 0.0 0.0
0.0 0.0 0.0
0.0 0.0 0.0
0.0 0.0 0.0
0.0 0.0 0.0
0.0 0.0 0.0
0.0 0.0 0.0
0.0 0.0 0.0
0.0 0.0 0.0
0.0 0.0 0.0
0.0 0.0 0.0
0.0 0.0 0.0
0.0 0.0 0.0
0.0 0.0 0.0
0.0 0.0 0.0
0.0 0.0 0.0
0.0 0.0 0.0
0.0 0.0 0.0
0.0 0.0 0.0
0.0 0.0 0.0
0.0 0.0 0.0
0.0 0.0 0.0
0.0 0.0 0.0
0.0 0.0 0.0
0.0 0.0 0.0
0.0 0.0 0.0
0.0 0.0 0.0
0.0 0.0 0.0
0.0 0.0 0.0
0.0 0.0 0.0
0.0 0.0 0.0
0.0 0.0 0.0
0.0 0.0 0.0
0.0 0.0 0.0
0.0 0.0 0.0
0.0 0.0 0.0
0.0 0.0 0.0
0.0 0.0 0.0
0.0 0.0 0.0
0.0 0.0 0.0
0.0 0.0 0.0
0.0 0.0 0.0
0.0 0.0 0.0
0.0 0.0 0.0
0.0 0.0 0.0
0.0 0.0 0.0
VECTORS f float
0.0 0.0 -2.77371
0.0 0.0 -2.77371
0.127453 -0.00574811 1.01897
-0.508553 -1.58625 3.19059
3.782 1.29533 8.14219
3.7422 -1.13369 1.36227
-0.377184 0.615548 -0.20044
0.699941 0.377711 -1.06638
-0.00492022 -0.013617 0.897412
0.021345 -0.00593732 -1.04468
0.776711 -0.701777 -2.09309
-0.326641 -0.00829588 0.381439
-0.013205 0.495441 -1.43582
0.0 0.0 -2.77371
-0.00806937 0.000779093 0.329171
0.0 0.0 -2.77371
8.47602 -11.6121 -2.87507
-35.4166 7.08289 -49.2694
0.157193 0.00753088 1.65515
0.00609925 0.00110349 -0.0681319
1.79664 0.120837 2.13864
-5.79462 -4.10334 -5.61474
3.33067e-08 -3.92673e-09 4.04982e-07
0.0 0.0 -2.77371
0.64186 -0.115244 -3.69138
-4.07308 -7.5669 -2.50375
0.0 0.0 -2.77371
-1.64506 -16.8762 -0.0624313
4.12956 1.05719 5.75175
0.0 0.0 -2.77371
-0.00268885 3.57265e-05 -0.113132
-1.20792 -6.85146 2.90317
-2.2107e-06 2.503e-08 -4.86745e-05
-3.5473e-05 2.10223e-05 -0.00229861
0.0974022 -0.065954 -2.53845
173.98 -68.5988 166.801
-35.989 -33.886 -82.2053
-3.87962 1.20354 -4.6363
8.09361 -9.8725 20.8658
-3.19749 7.18635 -12.2938
14.7582 -4.10235 12.1182
-2.40776e-05 -5.80326e-07 -0.00566932
3.18439 -3.20888 -0.0427276
0.137822 0.0554521 1.87259
0.00628229 0.00268248 0.398826
0.460176 0.424274 -2.75633
7.53467 11.3426 -4.29264
-3.42464e-07 1.24582e-07 1.14255e-05
8.67838e-05 1.31768e-06 -0.0178951
46.8187 -5.03362 91.4033
13.601 -28.0278 40.7837
-4.52807 20.2351 -3.14259
0.774523 0.843559 -1.56576
-0.0293057 0.0104425 -0.47815
-1.24277 -0.530233 -2.43698
-0.00021348 2.38353e-05 0.0108154
-8.37152 -0.961346 -4.2751
16.0323 2.32575 4.58557
0.0 0.0 -2.77371
9.72207 17.2639 2.60931
-6.74574 -14.4663 20.4092
-1.22339 15.8347 29.8113
0.0 0.0 -2.77371
0.0406148 -0.00129245 0.201514
-1.24288 1.17391 -0.417733
-0.225688 -0.0233956 4.04281
-0.105135 -0.245062 -0.843872
1.3056 1.10349 -4.59328
-2.11843e-08 9.094e-09 -1.54253e-06
1.29293 0.661838 -0.727789
-7.36926 2.47209 -9.67439
0.0 0.0 -2.77371
0.674742 -0.411645 5.03616
0.742863 0.594163 -2.03054
0.018435 0.0166405 0.298387
1.38501 0.928777 -1.96027
0.0 0.0 -2.77371
-0.811528 -0.604535 -2.43004
-0.0541832 0.0811687 -2.72783
-2.45669 2.67768 -44.7983
-51.7693 39.2674 -24.9429
0.108756 0.00946505 -2.75035
-0.0322067 0.00165581 -0.296769
0.52846 0.177729 -1.65862
0.0 0.0 -2.77371
0.986462 -0.689571 -1.79127
9.76389 5.12771 9.43831
0.14711 -1.57985 0.497284
2.09232 -3.68596 5.46256
0.0 0.0 -2.77371
-0.00146686 0.0001463 0.0149487
-0.00244399 -0.457283 -0.101847
0.0 0.0 -2.77371
-14.6895 7.77441 -5.54466
-99.8661 -56.581 -26.5685
1.18836 -0.373552 1.27934
-3.25622 -1.63987 -7.81185
0.0215535 -0.0234456 -0.0618
0.400463 -1.02184 6.27736
0.0578288 -0.178882 2.77703
0.874915 0.52074 -0.0419862
-8.26101e-05 -1.60606e-05 0.0659304
0.0130786 0.00558393 0.130241
-1.04303 -1.78633 8.59976
0.0 0.0 -2.77371
-0.361984 11.6383 52.1972
-0.409279 0.00387336 -3.50408
-4.19903 -6.23855 -5.03
0.000358567 -4.25385e-05 0.0032889
-0.377468 -2.67613 4.56961
0.138919 0.0100082 1.21686
-4.39065 -3.39235 -8.77724
0.103952 -0.00438845 0.643325
-0.055996 -0.155797 1.05936
-0.260835 -0.00278995 -2.12702
0.0 0.0 -2.77371
0.0204026 -0.125485 -2.51945
0.0 0.0 -2.77371
0.0631581 0.00296421 0.222275
-3.39843 14.3121 12.5142
0.0 0.0 -2.77371
1.39372 -0.026994 0.0142429
0.29607 -0.832932 -2.74953
0.0 0.0 -2.77371
-0.0124029 -0.0141409 -0.0840042
1.14963e-06 3.03869e-08 -6.545e-05
0.0272351 0.275125 -0.0115831
0.0 0.0 -2.77371
0.0 0.0 -2.77371
0.0 0.0 -2.77371
-0.336497 -0.660532 -1.2911
0.198722 3.45489 -0.902719
-0.53668 -3.91299 -6.1765
-0.356284 0.329226 1.03694
0.000429234 -0.995913 -0.981905
0.15459 -0.0655116 -0.228834
-3.07511 -7.03958 -3.62389
3.78853 -0.710256 0.837718
-1.45749 -0.656174 1.50126
1.17694 0.540682 2.62467
-0.00179626 0.00176369 -0.0936658
-2.59087e-06 -0.988744 -0.988802
0.0 0.0 -2.77371
0.0 0.0 -2.77371
-0.0101779 1.09121 0.49982
24.9993 33.7324 34.5708
-0.108548 0.229374 -2.64065
0.630736 0.815276 -1.06741
0.190489 -3.00344 4.75475
-0.0324867 0.845781 -1.18772
41.4231 -7.07539 55.2656
2.48603 -3.48477 5.10024
0.0 0.0 -2.77371
-13.7402 1.58935 8.27411
-0.639534 0.0863994 -1.91393
-14.0537 -1.59097 -22.2439
-0.397536 1.40828 6.60728
-3.09323 -0.663062 -5.57757
0.0 0.0 -2.77371
0.0 0.0 -2.77371
35.989 33.886 76.6579
9.87614 -0.891612 12.2755
0.0431282 -0.312903 -2.42729
-16.0257 -10.0777 17.3958
3.04038 0.126851 6.59275
0.0 0.0 -2.77371
0.0 0.0 -2.77371
0.307199 2.3551 -16.5479
54.0839 -31.7782 24.9968
13.2856 21.4683 19.5269
0.078551 0.48522 -1.73382
-0.583037 -1.20452 -5.32318
28.2543 14.3266 115.121
-9.57189 11.5158 19.6774
0.0 0.0 -2.77371
0.0 0.0 -2.77371
-55.4093 30.9364 -2.60991
44.3186 -23.7893 18.7807
-4.22686 7.06902 1.18807
14.3444 -9.44298 -7.29203
0.846588 0.49714 -1.82094
0.0 0.0 -2.77371
99.8661 56.581 21.0211
60.2406 -8.6892 114.175
0.549523 0.877551 -11.0587
-0.883558 1.38334 5.60075
0.104915 -0.67196 -1.21216
3.30711 5.12846 5.8409
12.7411 -6.69365 10.1826
-0.0257292 10.539 8.86208
0.0 0.0 -2.77371
-0.571534 3.73803 -6.24728
-0.317597 -1.35993 -0.612531
0.46192 2.56555 0.611083
0.239604 0.833665 -3.12274
10.4895 10.1198 12.544
-1.35427 2.39727 0.207034
0.0 0.0 -2.77371
0.0 0.0 -2.77371
0.0 0.0 -2.77371
1.32367 -16.4768 -10.0057
0.0 0.0 -2.77371
0.0 0.0 -2.77371
0.0 0.0 -2.77371
0.0 0.0 -2.77371
17.3213 36.1655 15.0755
-1.23097 -0.212158 -5.38201
0.0 0.0 -2.77371
0.0 0.0 -2.77371
-0.176259 -28.2802 61.106
0.0 0.0 -2.77371
-3.77491 -1.51377 1.44153
0.0 0.0 -2.77371
0.693534 -0.523677 -0.0767087
0.0 0.0 -2.77371
0.0 0.0 -2.77371
8.71687 3.8288 15.7856
0.0 0.0 -2.77371
0.0 0.0 -2.77371
-4.08253 3.26781 -4.28316
-1.55878 1.42837 1.17246
-2.14638 -3.22682 0.218251
0.0 0.0 -2.77371
2.1766 0.58578 -1.2036
0.0 0.0 -2.77371
0.0 0.0 -2.77371
0.0 0.0 -2.77371
7.86111 7.94849 3.69696
0.0 0.0 -2.77371
0.0 0.0 -2.77371
0.0 0.0 -2.77371
0.0 0.0 -2.77371
0.53668 3.91299 0.629071
-0.953824 -1.01784 -2.19225
0.0 0.0 -2.77371
4.50724 7.38288 -11.5606
1.58677 -5.11808 -84.3196
-18.6532 -29.9721 -9.7592
0.0 0.0 -2.77371
-2.91017 -3.68649 -5.01904
4.93108 -2.69731 3.15662
0.0 0.0 -2.77371
0.0 0.0 -2.77371
0.893362 0.561358 -4.66706
0.0 0.0 -2.77371
-2.71414 -7.33651 49.3661
0.0 0.0 -2.77371
0.0 0.0 -2.77371
0.0 0.0 -2.77371
0.0 0.0 -2.77371
0.0 0.0 -2.77371
-1.58677 5.11808 78.7722
0.0 0.0 -2.77371
19.7237 35.7923 32.5702
3.48429 -2.59407 10.3525
0.0 0.0 -2.77371
0.0 0.0 -2.77371
0.0 0.0 -2.77371
0.0 0.0 -2.77371
0.0 0.0 -2.77371
0.0 0.0 -2.77371
0.0 0.0 -2.77371
0.0 0.0 -2.77371
0.0 0.0 -2.77371
0.0 0.0 -2.77371
0.0 0.0 -2.77371
0.0 0.0 -2.77371
0.0 0.0 -2.77371
0.0 0.0 -2.77371
0.0 0.0 -2.77371
0.0 0.0 -2.77371
0.0 0.0 -2.77371
0.0 0.0 -2.77371
0.0 0.0 -2.77371
0.0 0.0 -2.77371
0.0 0.0 -2.77371
0.0 0.0 -2.77371
0.0 0.0 -2.77371
0.0 0.0 -2.77371
0.0 0.0 -2.77371
0.0 0.0 -2.77371
0.0 0.0 -2.77371
0.0 0.0 -2.77371
0.0 0.0 -2.77371
0.0 0.0 -2.77371
0.0 0.0 -2.77371
0.0 0.0 -2.77371
0.0 0.0 -2.77371
0.0 0.0 -2.77371
0.0 0.0 -2.77371
0.0 0.0 -2.77371
0.0 0.0 -2.77371
0.0 0.0 -2.77371
0.0 0.0 -2.77371
0.0 0.0 -2.77371
0.0 0.0 -2.77371
0.0 0.0 -2.77371
0.0 0.0 -2.77371
0.0 0.0 -2.77371
0.0 0.0 -2.77371
0.0 0.0 -2.77371
0.0 0.0 -2.77371
0.0 0.0 -2.77371
0.0 0.0 -2.77371
0.0 0.0 -2.77371
0.0 0.0 -2.77371
0.0 0.0 -2.77371
0.0 0.0 -2.77371
0.0 0.0 -2.77371
0.0 0.0 -2.77371
0.0 0.0 -2.77371
0.0 0.0 -2.77371
0.0 0.0 -2.77371
0.0 0.0 -2.77371
0.0 0.0 -2.77371
0.0 0.0 0.0
0.0 0.0 0.0
0.0 0.0 0.0
0.0 0.0 0.0
0.0 0.0 -2.77371
0.0 0.0 -2.77371
0.0 0.0 -2.77371
0.0 0.0 -2.77371
0.0 0.0 -2.77371
0.0 0.0 -2.77371
0.0 0.0 0.0
0.0 0.0 0.0
0.0 0.0 0.0
0.0 0.0 0.0
0.0 0.0 0.0
0.0 0.0 0.0
0.0 0.0 0.0
0.0 0.0 0.0
0.0 0.0 0.0
0.0 0.0 0.0
0.0 0.0 0.0
0.0 0.0 0.0
0.0 0.0 0.0
0.0 0.0 0.0
0.0 0.0 0.0
0.0 0.0 0.0
0.0 0.0 0.0
0.0 0.0 0.0
0.0 0.0 0.0
0.0 0.0 0.0
0.0 0.0 0.0
0.0 0.0 0.0
0.0 0.0 0.0
0.0 0.0 0.0
0.0 0.0 0.0
0.0 0.0 0.0
VECTORS omega float
17.1715 -3.71934 10.6634
15.9886 -81.2531 41.0724
-4.70932 -92.2143 19.8958
13.533 -103.943 -0.416979
-11.6331 -56.8919 50.9226
24.705 29.7966 -42.3917
4.38936 -36.0022 32.1655
-3.69816 -50.4677 17.7897
-1.59881 -48.2065 18.834
-1.20768 -44.3082 3.34322
-6.20341 -17.1631 30.0801
-0.928459 -51.2915 2.75206
-10.0876 -14.4099 49.0598
8.97958 -42.1698 -2.12658
-4.72871 -43.5574 13.4518
2.07324 -32.5155 15.9314
13.9185 -96.4938 -4.13233
5.95966 -48.4798 0.391441
-7.34559 -59.0951 -16.3766
-1.92719 -46.8096 7.2383
-2.92536 -31.7415 -12.5066
-22.629 -26.8467 -1.11551
-5.62552 -47.7156 12.0898
3.14106 -41.7856 6.64102
9.9521 -97.8728 -24.58
9.18011 -58.5307 -14.6447
4.11745 -71.7898 4.9714
-10.3526 74.6603 4.59904
-14.104 -27.5009 -6.85302
-6.67955 -44.2001 -2.96358
-0.678039 -50.8597 -10.1374
-30.2793 -22.9483 -9.667
-0.58241 -51.4397 2.31498
-2.0201 -33.7166 -0.659354
-5.91977 -34.3787 6.40676
17.8275 -54.3531 -9.78212
-10.9076 -65.4847 -8.58817
-1.94949 -78.0678 18.0289
0.923561 -79.6956 -26.3382
-8.73385 -51.4637 4.34211
-1.6665 -52.5071 -10.5733
1.22844 -51.6911 7.25046
2.99422 -63.0178 -18.1779
0.771406 -46.1683 8.80439
-7.85849 -49.5044 -1.59826
-10.0942 -41.7622 11.5168
-5.05684 -27.1378 2.09986
-11.8635 -32.6119 -4.39747
0.600323 -40.2436 -11.0398
23.9648 -44.0266 -10.189
16.4818 -68.8784 -10.9926
34.9631 -40.1463 -19.8791
-10.3694 -41.2796 -3.26018
-6.08958 -43.954 -2.16176
-2.96106 -51.6862 -3.72274
-3.48697 -26.6367 10.3181
-9.6069 -21.8669 -2.09639
-14.0052 -36.0681 0.349972
-8.12138 -89.1312 -3.90733
-12.3504 -70.8812 36.1137
-7.1369 -81.7528 -24.0418
7.41249 -69.2013 19.6312
-3.36299 -90.8159 2.85166
-2.01122 -64.0295 -27.4781
-0.31688 -54.2459 15.1158
3.91617 -62.5539 0.913269
2.55462 -50.2382 -8.39514
-9.03927 -33.1367 -7.86084
-21.1807 -49.3404 13.4693
-6.83809 -48.0022 -14.4108
-2.0865 -110.743 13.9329
-0.687587 -54.8536 -14.429
-3.68703 -60.6958 -5.27068
-31.2035 52.5594 -4.75135
1.10345 -52.1069 8.2853
-20.4407 -38.3927 4.45647
-3.88253 -42.2263 13.1731
-6.6116 -23.2203 7.74946
3.00328 -34.7427 6.65689
8.56245 -91.7025 -11.2755
-0.287069 32.0255 4.728
1.42347 11.7114 3.81641
-2.77723 -58.2163 8.53798
0.300129 -50.3146 1.63328
1.16373 -43.9314 4.12905
-4.75063 -40.6499 -8.88675
-1.21315 -34.7015 -1.6261
1.37602 -42.2012 -1.38189
4.52976 -41.2146 -2.69401
5.13583 -35.0927 11.7882
-4.21757 -42.2344 -4.0245
-8.46105 -39.4416 5.40119
12.707 -26.5302 1.8725
15.2961 -79.4849 -12.738
-25.8686 57.6801 17.2571
-8.26082 -77.1664 6.26135
-8.10711 -37.3185 14.8059
-5.35493 -55.4052 -1.08152
3.09715 -51.8026 -10.8973
-2.3014 -58.3118 -1.6527
18.5801 4.25733 4.73213
3.55909 -47.6513 3.47607
5.78422 -54.9153 7.55594
0.218939 -36.8528 12.6985
-9.67489 -101.869 8.20145
-16.2974 -73.4705 -6.80519
-9.2653 -69.0392 22.504
2.8225 7.2232 -13.3201
-7.06478 -59.5454 -6.10355
2.72021 -52.454 0.394705
-2.25676 -66.0045 -0.877093
-1.20357 -43.2608 14.5749
-2.50174 -62.6232 7.30664
6.55544 -51.4664 7.66448
5.69598 -38.0763 18.0977
-0.293213 -32.1318 2.19292
7.23376 -44.4362 -1.25075
6.41196 -26.3847 -3.05696
7.16267 -122.024 -14.5411
-19.2557 -106.553 -24.7149
-17.5298 -77.0239 12.5746
-18.3258 -0.683987 -16.5973
0.898439 -57.4296 13.5366
0.348463 -44.2599 1.92214
4.39467 -44.4969 -21.1438
1.13085 -42.7826 -10.9011
1.2582 -39.6318 -14.028
1.9812 -32.9576 12.1837
-1.2666 -12.4742 6.51084
-0.344008 -93.6558 -14.3196
-12.0156 -81.9267 -5.28186
-7.76237 -66.4774 -24.1053
-11.0684 -68.913 -1.26762
1.54734 -50.1981 -27.1777
7.64815 -92.6918 4.11091
-1.6522 -55.2695 -10.3379
4.05729 -31.8008 -9.1527
3.51332 -52.7124 -22.6232
0.423865 -48.1984 -23.4839
4.11495 -52.6902 -12.6305
-1.98516 -47.341 -23.8434
14.4061 -62.4158 -19.1295
4.56748 -20.9404 -22.7402
15.65 73.8841 -16.3864
10.8332 -20.3509 71.3075
9.88169 6.15067 29.6863
6.54405 -51.8419 33.6884
31.8721 -23.9466 25.6922
9.70483 -47.4496 49.509
-14.7326 -57.3795 22.0854
8.7961 25.4536 -7.57526
42.6076 28.6456 8.00044
32.3275 34.7858 3.02689
-2.01412 -2.36382 -2.48151
-54.9094 -32.3824 12.5237
-35.4563 28.9933 1.86712
-20.2423 -19.9619 -14.8943
-13.6253 10.1374 5.81809
-13.6028 1.96842 10.9214
8.65268 81.5653 -4.79017
-18.7214 26.0823 5.02452
13.3561 53.5944 11.921
6.50783 40.0495 5.29875
8.10675 18.7333 -17.471
11.2544 -8.09515 -8.60668
6.50665 93.1352 2.97254
-30.042 20.3178 2.50064
60.7213 59.8413 16.9407
-4.42116 5.64565 -20.9054
-23.2903 43.3193 4.40473
3.69018 43.604 7.85699
-33.2121 11.8611 -14.1779
-4.92528 37.3043 14.0232
-11.0145 -30.1858 21.4065
24.3407 -21.8966 -17.3875
7.13124 30.8044 -13.7245
70.6546 62.3059 12.0751
-14.7113 -34.8921 -12.6802
57.3353 28.7153 14.0351
-20.3528 9.76041 -14.5019
7.49593 46.8727 -7.95313
8.51179 38.5161 16.0023
0.0387139 -22.0481 -3.96922
7.57896 52.404 -5.22751
27.1638 30.66 0.148501
-6.00938 31.809 7.6636
0.883929 76.2316 -10.3033
2.53836 47.0169 5.34704
0.824616 56.2159 3.78368
-51.3494 51.5539 4.69571
-18.2716 30.2317 14.2511
3.0855 -71.7746 -28.7492
-3.45686 -86.7921 -14.8393
5.17849 -42.5582 -28.319
1.34346 8.19353 -45.1077
-0.702588 -45.6019 -33.0144
6.12823 28.2089 4.4741
-13.4087 -19.4784 -19.0564
-21.2088 -18.5111 -42.3216
16.1887 -7.48733 20.4242
-10.8145 -48.5726 42.6177
15.9282 -3.28665 49.8992
36.9256 34.3949 -30.8566
-19.158 38.2433 23.0394
-14.7352 33.59 -17.5815
-16.1824 48.233 -33.7092
-3.07331 -14.4436 11.4178
-7.01648 33.106 -3.99082
-3.73428 57.4177 -4.47262
5.22192 -0.798267 18.585
-5.48675 -2.81957 -8.1561
2.38162 3.03615 2.65261
-0.0479203 51.1315 19.2426
-1.70109 61.8989 -4.10482
-4.21443 10.4396 -4.92057
-18.7904 -20.2205 1.36022
47.7869 -48.7902 -24.0671
29.5536 42.5696 20.5858
12.9853 28.6767 14.144
-7.00007 -37.3753 1.07628
-3.53217 -45.1734 12.751
-19.2518 -14.5284 -11.7737
3.29131 36.5695 -10.5942
1.3821 0.0632422 3.07545
39.3928 40.5261 -20.3942
13.1289 31.0248 4.82269
19.5216 55.9767 10.2736
-22.8281 -9.64119 18.3377
-1.8977 32.8468 -14.1091
30.3487 14.419 -2.11543
-18.896 16.9415 10.9234
14.4315 -4.99698 50.7378
-6.4428 20.4581 -3.55343
-5.70084 -76.2184 -49.8339
-19.7068 -36.3181 -2.30501
35.9241 -22.6764 3.95747
-4.6921 -33.8648 19.8963
-11.0173 -11.8499 -0.818703
-31.0846 19.0786 -5.13004
25.7506 11.6132 -6.01547
-3.96774 10.343 -10.4628
1.53747 -21.4305 3.66726
0.0 0.0 0.0
-15.4043 -46.3095 3.14658
12.0569 6.41595 3.12661
-21.8343 -10.3336 -21.2153
-4.73075 -80.5409 -21.3222
0.0 0.0 0.0
0.80732 13.4732 7.55757
8.17405 1.23032 3.59127
21.6242 -2.86575 38.2443
2.12464 -1.02115 0.109857
-13.8003 -23.0669 -8.14548
-6.23225 39.3691 -8.95889
18.6258 31.148 3.10789
-10.4262 8.60194 -0.139025
18.8002 79.424 35.4142
0.0 0.0 0.0
0.0 0.0 0.0
0.0 0.0 0.0
5.86647 44.3142 14.2291
9.59834 70.3093 5.44313
-14.6984 15.9998 -28.3294
0.0 0.0 0.0
0.0 0.0 0.0
0.0 0.0 0.0
0.0 0.0 0.0
0.0 0.0 0.0
0.0 0.0 0.0
0.0 0.0 0.0
0.0 0.0 0.0
0.0 0.0 0.0
0.0 0.0 0.0
0.0 0.0 0.0
0.0 0.0 0.0
0.0 0.0 0.0
0.0 0.0 0.0
0.0 0.0 0.0
0.0 0.0 0.0
0.0 0.0 0.0
0.0 0.0 0.0
0.0 0.0 0.0
0.0 0.0 0.0
0.0 0.0 0.0
0.0 0.0 0.0