# vtk DataFile Version 2.0
Generated by lpp.py
ASCII
DATASET POLYDATA
POINTS 351 float
0.105006 0.185859 1.57699
0.187083 0.184942 1.58704
0.274698 0.168223 1.5986
0.355422 0.183493 1.57802
0.464625 0.175558 1.58472
0.782049 0.175837 1.58711
0.846987 0.189753 1.57687
1.24707 0.191168 1.57673
1.55976 0.191257 1.57686
1.65371 0.185979 1.57688
1.70525 0.164367 1.59858
0.240707 0.215838 1.575
0.590575 0.200265 1.5769
0.650078 0.206686 1.57694
0.715513 0.226949 1.57686
0.901093 0.219226 1.57686
1.00721 0.212773 1.57893
1.08609 0.199913 1.57878
1.32805 0.204776 1.57686
1.44345 0.211087 1.57687
1.49972 0.232375 1.57685
0.09524 0.246002 1.58722
0.327442 0.262174 1.57573
0.492684 0.232756 1.57975
0.783365 0.259307 1.57682
0.841383 0.249102 1.58725
0.958459 0.248702 1.57686
1.03431 0.265628 1.57678
1.13381 0.237997 1.5768
1.21403 0.244244 1.57686
1.37131 0.258578 1.5769
1.71179 0.236298 1.57686
0.204122 0.291192 1.57772
0.266296 0.284455 1.57861
0.439251 0.273035 1.57627
0.520163 0.285647 1.58483
0.62229 0.289343 1.57886
0.870765 0.300221 1.57691
1.3205 0.290304 1.57687
1.42186 0.29112 1.57686
1.50587 0.302902 1.57686
1.65724 0.278605 1.57686
0.00100241 0.314219 1.57734
0.458907 0.330812 1.57656
0.727913 0.30333 1.57674
0.923613 0.328361 1.57684
0.978976 0.305364 1.57662
1.12009 0.31153 1.57673
1.18478 0.319167 1.57669
1.26354 0.308718 1.57684
1.56745 0.312166 1.57686
0.127777 0.34094 1.57988
0.245715 0.348497 1.58233
0.553992 0.362905 1.57656
0.656303 0.338569 1.57709
0.743999 0.371052 1.57813
0.839627 0.355403 1.57682
0.988412 0.363841 1.57708
1.05167 0.349162 1.57686
1.26553 0.370138 1.57686
1.32901 0.349563 1.57685
0.0650836 0.404529 1.58077
0.40279 0.382645 1.57676
0.618788 0.409739 1.57566
0.893253 0.382152 1.57708
1.08377 0.398297 1.59032
1.35654 0.40373 1.57679
1.56061 0.393532 1.57686
0.171814 0.443132 1.57674
0.295254 0.433915 1.57631
0.375258 0.439504 1.57701
0.470072 0.429092 1.57695
0.532163 0.433292 1.57803
0.917617 0.441166 1.5774
1.02971 0.421814 1.57686
1.17776 0.415703 1.57676
1.42491 0.422167 1.57654
0.704058 0.448809 1.58031
0.780923 0.45689 1.57813
1.06569 0.474334 1.57688
1.15354 0.477843 1.57655
1.24177 0.450406 1.57683
1.30167 0.448977 1.57691
1.47674 0.452267 1.57686
1.78236 0.476355 1.58185
0.111819 0.504852 1.58418
0.329209 0.50875 1.5769
0.477388 0.488726 1.57847
0.564041 0.484579 1.57566
0.622354 0.490814 1.58143
0.725364 0.517638 1.57692
0.82078 0.509349 1.57746
0.933774 0.507782 1.57744
1.02 0.513657 1.57681
1.27266 0.504183 1.5769
1.73452 0.51312 1.57688
0.205699 0.534132 1.57807
0.264747 0.519351 1.57666
0.386354 0.527885 1.58067
0.451061 0.552717 1.57602
1.07657 0.537859 1.57682
1.18476 0.529316 1.57789
1.35797 0.522651 1.57687
1.46167 0.535535 1.57686
1.68508 0.549133 1.57697
1.88134 0.536691 1.57686
0.117897 0.569798 1.58021
0.316388 0.568197 1.57859
0.56522 0.577376 1.58893
0.706199 0.5794 1.58599
0.782864 0.575296 1.5844
0.841406 0.565426 1.57675
0.932059 0.567004 1.57675
1.02373 0.574362 1.58361
1.13927 0.567988 1.57667
1.23846 0.563062 1.57686
1.30546 0.554369 1.5769
1.74624 0.571885 1.58107
1.80268 0.551632 1.57685
0.690436 0.143964 1.61901
0.838449 0.145161 1.62855
1.00967 0.158845 1.60321
1.28655 0.158778 1.61508
0.623474 0.158503 1.60467
0.456618 0.206663 1.63321
0.533685 0.203864 1.60895
0.215891 0.243226 1.62053
0.281809 0.23687 1.60973
0.375966 0.257063 1.60573
0.635638 0.242751 1.63146
0.192306 0.306735 1.63961
0.294743 0.326912 1.61012
0.359666 0.343276 1.60282
0.415867 0.304894 1.6208
0.555013 0.327288 1.6272
0.71096 0.317974 1.6321
0.442064 0.370863 1.61854
0.882273 0.34499 1.62427
0.168705 0.391462 1.62539
0.31157 0.390233 1.61087
0.499999 0.398862 1.62478
0.637415 0.377715 1.62048
0.793628 0.405854 1.60974
0.243022 0.436712 1.61454
0.573345 0.428566 1.6201
0.872529 0.41766 1.62745
0.290249 0.480235 1.61264
0.417735 0.466332 1.60526
1.00647 0.474931 1.61941
1.19847 0.467281 1.61443
0.204136 0.482401 1.61172
0.489075 0.525713 1.62847
0.862085 0.48059 1.61273
1.14955 0.509874 1.62556
0.263914 0.551733 1.62742
0.428052 0.524274 1.62874
0.654498 0.521601 1.6208
0.76199 0.524966 1.63527
0.846531 0.548885 1.63388
0.19883 0.586788 1.61716
0.515058 0.606124 1.61546
0.644159 0.608515 1.61716
0.852432 0.608198 1.61935
0.913365 0.601678 1.62184
1.11367 0.610759 1.61993
1.48513 0.593046 1.60224
0.552183 0.107925 1.65502
0.723038 0.101001 1.66194
1.03598 0.114878 1.64806
1.0908 0.145036 1.66596
0.150048 0.200743 1.62964
0.361545 0.204748 1.64152
0.415932 0.24604 1.64888
0.0998162 0.287489 1.64129
0.326129 0.280139 1.63088
0.137757 0.333383 1.63625
0.488802 0.308785 1.631
1.11607 0.329961 1.64143
1.18334 0.319937 1.6434
1.1919 0.39613 1.64158
0.346778 0.43037 1.63489
0.724632 0.430042 1.64401
0.151557 0.451788 1.63116
0.470304 0.459156 1.63398
1.2602 0.467055 1.63588
0.231518 0.497797 1.66417
0.334672 0.497967 1.64874
0.543897 0.496579 1.63224
1.02092 0.551573 1.64536
0.471277 0.564957 1.67111
0.546117 0.586822 1.66323
0.66031 0.56799 1.65757
0.371527 0.611273 1.64022
0.696924 0.652329 1.66755
0.977324 0.641601 1.65068
0.744924 0.226092 1.68178
0.485867 0.249106 1.66397
0.536265 0.278995 1.66692
0.237296 0.340571 1.6716
0.295593 0.368896 1.66062
0.474047 0.345832 1.68531
0.40097 0.383776 1.68163
0.523639 0.382954 1.67875
0.194497 0.42683 1.66897
0.43698 0.439257 1.68676
0.277971 0.459673 1.66568
0.387528 0.467689 1.66287
0.618482 0.482673 1.69278
0.122063 0.498448 1.67589
0.413866 0.51605 1.68935
0.252158 0.655765 1.70311
0.62496 0.178411 1.70812
0.283642 0.234209 1.69101
0.225054 0.287898 1.71016
0.271652 0.349015 1.71936
0.121741 0.410905 1.67899
0.496878 0.474265 1.69374
0.353739 0.516332 1.70608
0.144959 0.253084 1.74277
0.353756 0.288308 1.74855
0.479479 0.344727 1.75208
0.33513 0.393755 1.73717
0.287754 0.512498 1.74469
0.446589 0.504306 1.74268
0.419349 0.297497 1.77284
0.107864 0.308056 1.77825
0.216531 0.381594 1.78485
0.434422 0.399982 1.76726
0.177321 0.473873 1.77475
0.3755 0.471214 1.7653
0.222298 0.231508 1.79246
0.32031 0.335135 1.81001
0.482317 0.228242 1.85959
0.386528 0.235346 1.8513
0.17305 0.29572 1.84441
0.280967 0.269166 1.85725
0.289149 0.393948 1.84888
0.265427 0.473439 1.84396
0.487332 0.44601 1.84788
0.230707 0.52291 1.83889
0.100828 0.246005 1.89354
0.470734 0.315695 1.87529
0.383297 0.361785 1.88996
0.142292 0.405308 1.86854
0.10269 0.478868 1.86289
0.338206 0.47604 1.89471
0.405771 0.451899 1.89189
0.477819 0.52568 1.88578
0.334084 0.267131 1.91573
0.383935 0.304407 1.92497
0.189473 0.369831 1.93129
0.495324 0.379459 1.89716
0.238696 0.425254 1.91173
0.410316 0.229607 1.96955
0.227735 0.245208 1.94712
0.479511 0.263195 1.96202
0.283481 0.328862 1.94892
0.104364 0.371175 1.93863
0.433942 0.344323 1.94991
0.124882 0.444445 1.95013
0.292698 0.428673 1.96049
0.367427 0.412219 1.95421
0.387806 0.497135 1.96769
0.307197 0.231054 2.00235
0.112238 0.243444 2.00512
0.338106 0.302046 2.00538
0.488965 0.329122 1.99067
0.26384 0.382845 2.00378
0.436973 0.45447 1.98706
0.498994 0.449521 1.98771
0.197767 0.505506 2.00282
0.10683 0.52412 1.97443
0.498691 0.522189 1.99125
0.196779 0.286134 2.02619
0.144627 0.329159 2.01312
0.322732 0.35929 2.03993
0.388723 0.350133 2.01981
0.179678 0.383211 2.03549
0.404531 0.416433 2.03627
0.180002 0.445959 2.03347
0.336562 0.447813 2.02297
0.133145 0.50156 2.04508
0.316599 0.507618 2.02826
0.4192 0.521596 2.03766
0.299287 0.247375 2.06679
0.442411 0.236129 2.06895
0.498503 0.253983 2.04571
0.126939 0.284236 2.07643
0.432796 0.302258 2.05979
0.187834 0.32549 2.08014
0.345572 0.308923 2.07327
0.476186 0.343657 2.06982
0.499396 0.409304 2.06395
0.230608 0.478968 2.05273
0.383426 0.485675 2.0755
0.196226 0.26238 2.09567
0.356376 0.254196 2.0977
0.256147 0.321804 2.09011
0.110703 0.374435 2.09211
0.415762 0.389621 2.09827
0.214879 0.429082 2.10971
0.282511 0.427246 2.08226
0.107302 0.455042 2.09596
0.180798 0.510604 2.08163
0.49838 0.508374 2.10212
0.271982 0.260644 2.1308
0.321856 0.294278 2.12913
0.44222 0.295647 2.12067
0.125428 0.344451 2.14441
0.346145 0.350757 2.12426
0.415188 0.353574 2.14906
0.282424 0.374546 2.13858
0.475094 0.383761 2.11966
0.323589 0.424937 2.1471
0.466199 0.451954 2.12462
0.104255 0.515661 2.13241
0.236464 0.494005 2.12237
0.430217 0.500721 2.12499
0.339305 0.526873 2.11754
0.103324 0.228818 2.15871
0.161403 0.258279 2.15827
0.363615 0.240431 2.16399
0.425069 0.242959 2.16512
0.499192 0.246026 2.16267
0.189012 0.364304 2.15306
0.31493 0.348737 2.18385
0.115455 0.44409 2.1545
0.40415 0.414672 2.16454
0.158807 0.499296 2.17065
0.370433 0.49856 2.16148
0.264146 0.523422 2.16795
0.220666 0.238837 2.20734
0.17717 0.298235 2.2192
0.257372 0.298287 2.19437
0.314466 0.284399 2.21272
0.492483 0.279077 2.2144
0.417494 0.317622 2.21147
0.484684 0.362834 2.19124
0.125062 0.39201 2.19589
0.217234 0.387064 2.20563
0.449749 0.403068 2.21884
0.263093 0.452487 2.21205
0.417911 0.469013 2.20692
0.486571 0.452792 2.21556
0.220758 0.508511 2.21861
0.312076 0.491969 2.2176
0.393674 0.233628 2.22132
0.107591 0.339963 2.22367
0.385775 0.387923 2.22657
0.139724 0.459766 2.22164
0.490194 0.521396 2.22111
VERTICES 351 702
1 0
1 1
1 2
1 3
1 4
1 5
1 6
1 7
1 8
1 9
1 10
1 11
1 12
1 13
1 14
1 15
1 16
1 17
1 18
1 19
1 20
1 21
1 22
1 23
1 24
1 25
1 26
1 27
1 28
1 29
1 30
1 31
1 32
1 33
1 34
1 35
1 36
1 37
1 38
1 39
1 40
1 41
1 42
1 43
1 44
1 45
1 46
1 47
1 48
1 49
1 50
1 51
1 52
1 53
1 54
1 55
1 56
1 57
1 58
1 59
1 60
1 61
1 62
1 63
1 64
1 65
1 66
1 67
1 68
1 69
1 70
1 71
1 72
1 73
1 74
1 75
1 76
1 77
1 78
1 79
1 80
1 81
1 82
1 83
1 84
1 85
1 86
1 87
1 88
1 89
1 90
1 91
1 92
1 93
1 94
1 95
1 96
1 97
1 98
1 99
1 100
1 101
1 102
1 103
1 104
1 105
1 106
1 107
1 108
1 109
1 110
1 111
1 112
1 113
1 114
1 115
1 116
1 117
1 118
1 119
1 120
1 121
1 122
1 123
1 124
1 125
1 126
1 127
1 128
1 129
1 130
1 131
1 132
1 133
1 134
1 135
1 136
1 137
1 138
1 139
1 140
1 141
1 142
1 143
1 144
1 145
1 146
1 147
1 148
1 149
1 150
1 151
1 152
1 153
1 154
1 155
1 156
1 157
1 158
1 159
1 160
1 161
1 162
1 163
1 164
1 165
1 166
1 167
1 168
1 169
1 170
1 171
1 172
1 173
1 174
1 175
1 176
1 177
1 178
1 179
1 180
1 181
1 182
1 183
1 184
1 185
1 186
1 187
1 188
1 189
1 190
1 191
1 192
1 193
1 194
1 195
1 196
1 197
1 198
1 199
1 200
1 201
1 202
1 203
1 204
1 205
1 206
1 207
1 208
1 209
1 210
1 211
1 212
1 213
1 214
1 215
1 216
1 217
1 218
1 219
1 220
1 221
1 222
1 223
1 224
1 225
1 226
1 227
1 228
1 229
1 230
1 231
1 232
1 233
1 234
1 235
1 236
1 237
1 238
1 239
1 240
1 241
1 242
1 243
1 244
1 245
1 246
1 247
1 248
1 249
1 250
1 251
1 252
1 253
1 254
1 255
1 256
1 257
1 258
1 259
1 260
1 261
1 262
1 263
1 264
1 265
1 266
1 267
1 268
1 269
1 270
1 271
1 272
1 273
1 274
1 275
1 276
1 277
1 278
1 279
1 280
1 281
1 282
1 283
1 284
1 285
1 286
1 287
1 288
1 289
1 290
1 291
1 292
1 293
1 294
1 295
1 296
1 297
1 298
1 299
1 300
1 301
1 302
1 303
1 304
1 305
1 306
1 307
1 308
1 309
1 310
1 311
1 312
1 313
1 314
1 315
1 316
1 317
1 318
1 319
1 320
1 321
1 322
1 323
1 324
1 325
1 326
1 327
1 328
1 329
1 330
1 331
1 332
1 333
1 334
1 335
1 336
1 337
1 338
1 339
1 340
1 341
1 342
1 343
1 344
1 345
1 346
1 347
1 348
1 349
1 350
POINT_DATA 351
VECTORS i float
0.0 0.0 0.0
0.0 0.0 0.0
0.0 0.0 0.0
0.0 0.0 0.0
0.0 0.0 0.0
0.0 0.0 0.0
0.0 0.0 0.0
0.0 0.0 0.0
0.0 0.0 0.0
0.0 0.0 0.0
0.0 0.0 0.0
0.0 0.0 0.0
0.0 0.0 0.0
0.0 0.0 0.0
0.0 0.0 0.0
0.0 0.0 0.0
0.0 0.0 0.0
0.0 0.0 0.0
0.0 0.0 0.0
0.0 0.0 0.0
0.0 0.0 0.0
0.0 0.0 0.0
0.0 0.0 0.0
0.0 0.0 0.0
0.0 0.0 0.0
0.0 0.0 0.0
0.0 0.0 0.0
0.0 0.0 0.0
0.0 0.0 0.0
0.0 0.0 0.0
0.0 0.0 0.0
0.0 0.0 0.0
0.0 0.0 0.0
0.0 0.0 0.0
0.0 0.0 0.0
0.0 0.0 0.0
0.0 0.0 0.0
0.0 0.0 0.0
0.0 0.0 0.0
0.0 0.0 0.0
0.0 0.0 0.0
0.0 0.0 0.0
0.0 0.0 0.0
0.0 0.0 0.0
0.0 0.0 0.0
0.0 0.0 0.0
0.0 0.0 0.0
0.0 0.0 0.0
0.0 0.0 0.0
0.0 0.0 0.0
0.0 0.0 0.0
0.0 0.0 0.0
0.0 0.0 0.0
0.0 0.0 0.0
0.0 0.0 0.0
0.0 0.0 0.0
0.0 0.0 0.0
0.0 0.0 0.0
0.0 0.0 0.0
0.0 0.0 0.0
0.0 0.0 0.0
0.0 0.0 0.0
0.0 0.0 0.0
0.0 0.0 0.0
0.0 0.0 0.0
0.0 0.0 0.0
0.0 0.0 0.0
0.0 0.0 0.0
0.0 0.0 0.0
0.0 0.0 0.0
0.0 0.0 0.0
0.0 0.0 0.0
0.0 0.0 0.0
0.0 0.0 0.0
0.0 0.0 0.0
0.0 0.0 0.0
0.0 0.0 0.0
0.0 0.0 0.0
0.0 0.0 0.0
0.0 0.0 0.0
0.0 0.0 0.0
0.0 0.0 0.0
0.0 0.0 0.0
0.0 0.0 0.0
0.0 0.0 0.0
0.0 0.0 0.0
0.0 0.0 0.0
0.0 0.0 0.0
0.0 0.0 0.0
0.0 0.0 0.0
0.0 0.0 0.0
0.0 0.0 0.0
0.0 0.0 0.0
0.0 0.0 0.0
0.0 0.0 0.0
0.0 0.0 0.0
0.0 0.0 0.0
0.0 0.0 0.0
0.0 0.0 0.0
0.0 0.0 0.0
0.0 0.0 0.0
0.0 0.0 0.0
0.0 0.0 0.0
0.0 0.0 0.0
0.0 0.0 0.0
0.0 0.0 0.0
0.0 0.0 0.0
0.0 0.0 0.0
0.0 0.0 0.0
0.0 0.0 0.0
0.0 0.0 0.0
0.0 0.0 0.0
0.0 0.0 0.0
0.0 0.0 0.0
0.0 0.0 0.0
0.0 0.0 0.0
0.0 0.0 0.0
0.0 0.0 0.0
0.0 0.0 0.0
0.0 0.0 0.0
0.0 0.0 0.0
0.0 0.0 0.0
0.0 0.0 0.0
0.0 0.0 0.0
0.0 0.0 0.0
0.0 0.0 0.0
0.0 0.0 0.0
0.0 0.0 0.0
0.0 0.0 0.0
0.0 0.0 0.0
0.0 0.0 0.0
0.0 0.0 0.0
0.0 0.0 0.0
0.0 0.0 0.0
0.0 0.0 0.0
0.0 0.0 0.0
0.0 0.0 0.0
0.0 0.0 0.0
0.0 0.0 0.0
0.0 0.0 0.0
0.0 0.0 0.0
0.0 0.0 0.0
0.0 0.0 0.0
0.0 0.0 0.0
0.0 0.0 0.0
0.0 0.0 0.0
0.0 0.0 0.0
0.0 0.0 0.0
0.0 0.0 0.0
0.0 0.0 0.0
0.0 0.0 0.0
0.0 0.0 0.0
0.0 0.0 0.0
0.0 0.0 0.0
0.0 0.0 0.0
0.0 0.0 0.0
0.0 0.0 0.0
0.0 0.0 0.0
0.0 0.0 0.0
0.0 0.0 0.0
0.0 0.0 0.0
0.0 0.0 0.0
0.0 0.0 0.0
0.0 0.0 0.0
0.0 0.0 0.0
0.0 0.0 0.0
0.0 0.0 0.0
0.0 0.0 0.0
0.0 0.0 0.0
0.0 0.0 0.0
0.0 0.0 0.0
0.0 0.0 0.0
0.0 0.0 0.0
0.0 0.0 0.0
0.0 0.0 0.0
0.0 0.0 0.0
0.0 0.0 0.0
0.0 0.0 0.0
0.0 0.0 0.0
0.0 0.0 0.0
0.0 0.0 0.0
0.0 0.0 0.0
0.0 0.0 0.0
0.0 0.0 0.0
0.0 0.0 0.0
0.0 0.0 0.0
0.0 0.0 0.0
0.0 0.0 0.0
0.0 0.0 0.0
0.0 0.0 0.0
0.0 0.0 0.0
0.0 0.0 0.0
0.0 0.0 0.0
0.0 0.0 0.0
0.0 0.0 0.0
0.0 0.0 0.0
0.0 0.0 0.0
0.0 0.0 0.0
0.0 0.0 0.0
0.0 0.0 0.0
0.0 0.0 0.0
0.0 0.0 0.0
0.0 0.0 0.0
0.0 0.0 0.0
0.0 0.0 0.0
0.0 0.0 0.0
0.0 0.0 0.0
0.0 0.0 0.0
0.0 0.0 0.0
0.0 0.0 0.0
0.0 0.0 0.0
0.0 0.0 0.0
0.0 0.0 0.0
0.0 0.0 0.0
0.0 0.0 0.0
0.0 0.0 0.0
0.0 0.0 0.0
0.0 0.0 0.0
0.0 0.0 0.0
0.0 0.0 0.0
0.0 0.0 0.0
0.0 0.0 0.0
0.0 0.0 0.0
0.0 0.0 0.0
0.0 0.0 0.0
0.0 0.0 0.0
0.0 0.0 0.0
0.0 0.0 0.0
0.0 0.0 0.0
0.0 0.0 0.0
0.0 0.0 0.0
0.0 0.0 0.0
0.0 0.0 0.0
0.0 0.0 0.0
0.0 0.0 0.0
0.0 0.0 0.0
0.0 0.0 0.0
0.0 0.0 0.0
0.0 0.0 0.0
0.0 0.0 0.0
0.0 0.0 0.0
0.0 0.0 0.0
0.0 0.0 0.0
0.0 0.0 0.0
0.0 0.0 0.0
0.0 0.0 0.0
0.0 0.0 0.0
0.0 0.0 0.0
0.0 0.0 0.0
0.0 0.0 0.0
0.0 0.0 0.0
0.0 0.0 0.0
0.0 0.0 0.0
0.0 0.0 0.0
0.0 0.0 0.0
0.0 0.0 0.0
0.0 0.0 0.0
0.0 0.0 0.0
0.0 0.0 0.0
0.0 0.0 0.0
0.0 0.0 0.0
0.0 0.0 0.0
0.0 0.0 0.0
0.0 0.0 0.0
0.0 0.0 0.0
0.0 0.0 0.0
0.0 0.0 0.0
0.0 0.0 0.0
0.0 0.0 0.0
0.0 0.0 0.0
0.0 0.0 0.0
0.0 0.0 0.0
0.0 0.0 0.0
0.0 0.0 0.0
0.0 0.0 0.0
0.0 0.0 0.0
0.0 0.0 0.0
0.0 0.0 0.0
0.0 0.0 0.0
0.0 0.0 0.0
0.0 0.0 0.0
0.0 0.0 0.0
0.0 0.0 0.0
0.0 0.0 0.0
0.0 0.0 0.0
0.0 0.0 0.0
0.0 0.0 0.0
0.0 0.0 0.0
0.0 0.0 0.0
0.0 0.0 0.0
0.0 0.0 0.0
0.0 0.0 0.0
0.0 0.0 0.0
0.0 0.0 0.0
0.0 0.0 0.0
0.0 0.0 0.0
0.0 0.0 0.0
0.0 0.0 0.0
0.0 0.0 0.0
0.0 0.0 0.0
0.0 0.0 0.0
0.0 0.0 0.0
0.0 0.0 0.0
0.0 0.0 0.0
0.0 0.0 0.0
0.0 0.0 0.0
0.0 0.0 0.0
0.0 0.0 0.0
0.0 0.0 0.0
0.0 0.0 0.0
0.0 0.0 0.0
0.0 0.0 0.0
0.0 0.0 0.0
0.0 0.0 0.0
0.0 0.0 0.0
0.0 0.0 0.0
0.0 0.0 0.0
0.0 0.0 0.0
0.0 0.0 0.0
0.0 0.0 0.0
0.0 0.0 0.0
0.0 0.0 0.0
0.0 0.0 0.0
0.0 0.0 0.0
0.0 0.0 0.0
0.0 0.0 0.0
0.0 0.0 0.0
0.0 0.0 0.0
0.0 0.0 0.0
0.0 0.0 0.0
0.0 0.0 0.0
0.0 0.0 0.0
0.0 0.0 0.0
0.0 0.0 0.0
0.0 0.0 0.0
0.0 0.0 0.0
0.0 0.0 0.0
0.0 0.0 0.0
0.0 0.0 0.0
0.0 0.0 0.0
0.0 0.0 0.0
0.0 0.0 0.0
0.0 0.0 0.0
0.0 0.0 0.0
0.0 0.0 0.0
0.0 0.0 0.0
0.0 0.0 0.0
0.0 0.0 0.0
0.0 0.0 0.0
0.0 0.0 0.0
0.0 0.0 0.0
VECTORS f float
-5.53232 -4.22908 -7.43927
1.70814 -5.64847 -7.74595
0.0 0.0 -2.77371
6.42412 20.9978 21.4732
10.5667 14.5901 16.1056
0.000105396 0.988777 -0.988636
0.0333669 -0.000412461 0.193273
0.210215 -0.0315591 4.76371
-7.06287e-06 1.76719e-07 4.96901e-05
9.00592 5.50625 7.06069
0.452762 0.769107 -0.473601
-29.6279 11.9429 -52.0823
0.101119 -1.77501 -5.52381
2.65874 0.313888 -0.492036
-6.15349e-06 -1.90156e-07 -0.000468824
-0.000298942 2.7918e-05 0.000208686
-5.14225 -5.50284 4.02654
0.0 0.0 -2.77371
0.00022387 -2.63932e-05 0.00105078
0.0161406 0.00416037 -0.0845984
-0.0199134 -0.00583398 0.113151
0.0 0.0 -2.77371
-56.894 -2.38391 -58.9953
-33.8332 17.2914 -60.8418
0.468181 -0.767282 0.218578
1.03952 -0.427388 -1.94904
0.00503634 -0.000710328 0.0946264
2.47713 4.69498 -2.78378
-0.361235 -0.187144 1.49772
-0.0173789 0.00012059 -0.240757
0.331542 -0.197563 -0.373178
1.79751e-09 -1.65338e-11 1.52584e-07
0.0 0.0 -2.77371
-13.173 -5.9361 6.08642
-4.56251 3.46567 17.0698
0.583736 1.16384 -1.9781
0.773274 0.784123 -3.32225
0.467918 0.0713195 -0.68197
0.337101 -1.17001 0.343178
-0.00312777 -0.00104868 0.0660984
-0.000299578 0.000128601 -0.0101102
3.46076e-07 1.81628e-08 -2.1219e-06
0.0 0.0 -2.77371
-1.19074 -1.32557 9.29202
0.165 0.0810553 0.0558464
0.750377 0.563038 0.290007
-1.23425 -4.97069 2.9873
0.469144 -0.0308236 0.725789
-0.0488068 0.0234098 2.17933
0.675459 0.152126 -0.110958
1.29684e-05 -3.66508e-06 -0.000244503
-2.76172 1.67093 7.15388
0.0 0.0 -2.77371
10.274 -16.9654 28.0126
-0.68361 -0.66739 -2.14228
0.0 0.0 -2.77371
-0.0951088 -0.0345902 0.0366184
1.92736 12.085 0.98221
-0.000540845 8.57295e-05 0.0759023
0.00092269 -0.000207987 0.0263549
0.335863 0.352505 0.622172
0.0 0.0 -2.77371
-6.09711 -30.2312 -96.185
15.3767 9.34777 -35.9514
-0.143263 -0.0744982 -1.69789
0.0 0.0 -2.77371
1.30361 0.794112 4.77872
-0.000352409 4.56423e-05 -0.0384999
15.1092 -7.56763 -3.79865
4.51155 25.7589 -34.3516
-2.49624 -1.82375 -4.8867
-0.00701114 1.24565 -0.282366
-7.6846 -4.07635 -20.4697
0.0 0.0 -2.77371
0.000982877 -3.8086e-05 0.0350998
-0.131818 -0.00251698 -0.20536
-0.968643 -0.543426 5.39869
0.0 0.0 -2.77371
0.0 0.0 -2.77371
-0.000314108 -0.000693379 -0.234582
5.50326 -7.56768 -9.94442
2.66529 -0.617996 -0.296521
1.50011 0.153386 1.5432
0.601036 0.304114 1.28831
0.0 0.0 -2.77371
0.0 0.0 -2.77371
2.40815 -0.175374 -7.60276
0.0 0.0 -2.77371
2.40712 3.95746 31.9821
11.8097 1.96789 6.52352
-0.137031 0.0130311 -2.21451
-0.0479617 -0.133238 -2.84242
-5.05732 -14.6777 2.20304
6.95386 21.3186 -8.59075
0.0573096 0.159204 -1.59158
1.10447 -0.352924 -0.454732
0.0 0.0 -2.77371
-1.13787 25.4883 -39.1177
0.0 0.0 -2.77371
-1.29337 0.178581 14.9969
1.88413 0.174953 1.01077
-0.708981 0.339427 -2.47018
0.000665263 0.000145088 -0.0938739
5.4488e-05 1.28123e-05 0.00258628
0.357251 -0.19537 -1.95935
-2.06983e-12 7.51172e-14 0.0
0.0 0.0 -2.77371
0.0 0.0 -2.77371
0.0 0.0 -2.77371
25.0476 -47.5886 28.0322
-0.0288991 -1.27995 -0.758333
0.00709908 -0.791653 0.396582
4.43066 11.4266 -2.0142
-0.0528731 -0.212553 -2.14953
6.78377 0.38281 19.3809
-8.47146e-06 1.55174e-07 -0.000133249
-0.164363 -0.233987 -0.277991
0.172946 -0.47798 -1.40577
-0.00761911 0.0057534 0.175853
-0.00491182 0.737792 -1.20118
0.0 0.0 -2.77371
8.57231 6.34851 11.7735
0.0 0.0 -2.77371
-0.96288 0.706376 -4.47519
2.50226 8.0017 4.71695
33.2494 -18.4552 54.4987
3.49784 9.58041 -10.6461
67.1857 6.42587 116.597
73.305 15.552 98.1716
0.0 0.0 -2.77371
0.0 0.0 -2.77371
0.0 0.0 -2.77371
0.0 0.0 -2.77371
2.76594 -2.07332 -2.22473
0.0 0.0 -2.77371
-0.469111 0.244641 -0.400213
23.1643 22.8679 109.163
0.0 0.0 -2.77371
0.0 0.0 -2.77371
-0.195516 -31.0259 -27.6367
0.0 0.0 -2.77371
-6.03483 -27.7655 62.4141
0.0 0.0 -2.77371
0.0 0.0 -2.77371
7.6846 4.07635 14.9223
0.0 0.0 -2.77371
11.3621 -12.8188 -9.16407
39.2951 24.6105 22.2016
-6.69949 -20.9699 9.2055
3.07081 -1.93222 -0.929713
0.0 0.0 -2.77371
0.0 0.0 -2.77371
0.0 0.0 -2.77371
-6.45488 15.0969 21.2524
0.0 0.0 -2.77371
0.0 0.0 -2.77371
7.30988 -4.35077 -2.74817
0.0 0.0 -2.77371
0.430228 0.331097 -0.833044
0.0 0.0 -2.77371
-1.36054 4.1083 -6.77737
1.78303 1.09023 0.776479
0.0 0.0 -2.77371
-0.459066 0.369045 -2.35048
-3.73317e-06 -0.988787 -0.988767
0.000519371 -0.837199 -1.10602
0.969029 1.28973 -1.29731
0.214752 0.710214 -0.710402
-0.00040708 0.991933 -0.98649
0.0 0.0 -2.77371
-1.70814 5.64847 2.19853
0.0 0.0 -2.77371
2.75571 8.81356 14.4604
-2.07361 -3.00903 -0.579512
4.50679 0.705109 25.2839
4.83533 1.3381 -14.8955
0.0 0.0 -2.77371
0.0 0.0 -2.77371
0.0 0.0 -2.77371
0.0 0.0 -2.77371
47.2111 37.106 -3.07295
0.0 0.0 -2.77371
-10.628 5.01749 7.5961
0.0 0.0 -2.77371
0.0 0.0 -2.77371
0.0 0.0 -2.77371
4.90206 2.92597 -4.33337
0.0 0.0 -2.77371
0.0 0.0 -2.77371
0.0 0.0 -2.77371
0.0 0.0 -2.77371
-0.115247 1.11349 3.08684
0.0 0.0 -2.77371
0.0 0.0 -2.77371
-0.0660909 -1.55805 -0.881254
0.0 0.0 -2.77371
-21.6173 -21.0778 8.26796
21.6173 21.0778 -13.8154
12.7594 -23.4688 -55.0772
-38.8463 -45.5112 75.3769
0.0 0.0 -2.77371
0.0 0.0 -2.77371
0.0 0.0 -2.77371
0.0 0.0 -2.77371
0.0 0.0 -2.77371
-16.6757 -17.3237 53.9456
0.0 0.0 -2.77371
0.0 0.0 -2.77371
0.0 0.0 -2.77371
0.0 0.0 -2.77371
0.0 0.0 -2.77371
0.0 0.0 -2.77371
0.0 0.0 -2.77371
0.0 0.0 -2.77371
-12.7594 23.4688 49.5298
0.0 0.0 -2.77371
0.0 0.0 -2.77371
0.0 0.0 -2.77371
0.0 0.0 -2.77371
0.0 0.0 -2.77371
0.0 0.0 -2.77371
0.0 0.0 -2.77371
0.0 0.0 -2.77371
0.0 0.0 -2.77371
0.0 0.0 -2.77371
0.0 0.0 -2.77371
0.0 0.0 -2.77371
0.0 0.0 -2.77371
0.0 0.0 -2.77371
0.0 0.0 -2.77371
0.0 0.0 -2.77371
0.0 0.0 -2.77371
0.0 0.0 -2.77371
0.0 0.0 -2.77371
0.0 0.0 -2.77371
0.0 0.0 -2.77371
0.0 0.0 -2.77371
0.0 0.0 -2.77371
0.0 0.0 -2.77371
0.0 0.0 -2.77371
0.0 0.0 -2.77371
0.0 0.0 -2.77371
0.0 0.0 -2.77371
0.0 0.0 -2.77371
0.0 0.0 -2.77371
0.0 0.0 -2.77371
0.0 0.0 -2.77371
0.0 0.0 -2.77371
0.0 0.0 -2.77371
0.0 0.0 -2.77371
0.0 0.0 -2.77371
0.0 0.0 -2.77371
0.0 0.0 -2.77371
0.0 0.0 -2.77371
0.0 0.0 -2.77371
0.0 0.0 -2.77371
0.0 0.0 -2.77371
0.0 0.0 -2.77371
0.0 0.0 -2.77371
0.0 0.0 -2.77371
0.0 0.0 -2.77371
0.0 0.0 -2.77371
0.0 0.0 -2.77371
0.0 0.0 -2.77371
0.0 0.0 -2.77371
0.0 0.0 -2.77371
0.0 0.0 -2.77371
0.0 0.0 -2.77371
0.0 0.0 -2.77371
0.0 0.0 -2.77371
0.0 0.0 -2.77371
0.0 0.0 -2.77371
0.0 0.0 -2.77371
0.0 0.0 -2.77371
0.0 0.0 -2.77371
0.0 0.0 -2.77371
0.0 0.0 -2.77371
0.0 0.0 -2.77371
0.0 0.0 -2.77371
0.0 0.0 -2.77371
0.0 0.0 -2.77371
0.0 0.0 -2.77371
0.0 0.0 -2.77371
0.0 0.0 -2.77371
0.0 0.0 0.0
0.0 0.0 0.0
0.0 0.0 -2.77371
0.0 0.0 0.0
0.0 0.0 0.0
0.0 0.0 0.0
0.0 0.0 0.0
0.0 0.0 0.0
0.0 0.0 0.0
0.0 0.0 0.0
0.0 0.0 0.0
0.0 0.0 0.0
0.0 0.0 0.0
0.0 0.0 0.0
0.0 0.0 0.0
0.0 0.0 0.0
0.0 0.0 0.0
0.0 0.0 0.0
0.0 0.0 0.0
0.0 0.0 0.0
0.0 0.0 0.0
0.0 0.0 0.0
0.0 0.0 0.0
0.0 0.0 0.0
0.0 0.0 0.0
0.0 0.0 0.0
0.0 0.0 0.0
0.0 0.0 0.0
0.0 0.0 0.0
0.0 0.0 0.0
0.0 0.0 0.0
0.0 0.0 0.0
0.0 0.0 0.0
0.0 0.0 0.0
0.0 0.0 0.0
0.0 0.0 0.0
0.0 0.0 0.0
0.0 0.0 0.0
0.0 0.0 0.0
0.0 0.0 0.0
0.0 0.0 0.0
0.0 0.0 0.0
0.0 0.0 0.0
0.0 0.0 0.0
0.0 0.0 0.0
0.0 0.0 0.0
0.0 0.0 0.0
0.0 0.0 0.0
0.0 0.0 0.0
0.0 0.0 0.0
0.0 0.0 0.0
0.0 0.0 0.0
0.0 0.0 0.0
0.0 0.0 0.0
0.0 0.0 0.0
0.0 0.0 0.0
0.0 0.0 0.0
0.0 0.0 0.0
0.0 0.0 0.0
0.0 0.0 0.0
0.0 0.0 0.0
0.0 0.0 0.0
0.0 0.0 0.0
0.0 0.0 0.0
0.0 0.0 0.0
0.0 0.0 0.0
0.0 0.0 0.0
VECTORS omega float
12.1903 -117.808 33.8862
12.1173 -96.8331 6.4086
-2.39391 -60.5816 72.1956
12.0641 -112.625 15.0996
2.5295 -48.6628 61.4324
-13.3939 -34.7165 49.8835
-0.971389 -54.8995 10.2734
2.11414 -52.9539 -2.8759
-1.42375 -56.9028 7.78044
8.47032 -46.0719 7.55299
-3.06244 -40.4635 13.6636
-4.59333 -57.0313 -17.665
20.8182 4.60936 9.11414
8.66045 -58.1295 6.70568
2.31085 -74.7796 -20.9028
-5.96727 -63.6868 4.45826
-8.93852 56.0468 -19.0522
-9.58932 -40.6617 25.9073
-5.6255 -47.7155 12.0898
-7.23861 -31.6223 16.3138
-11.8597 -32.6331 -4.39747
-40.5863 22.9568 -18.2621
-8.26987 -49.5722 -4.79209
19.7484 -48.7459 -1.80916
22.0908 -45.7253 20.8123
13.6957 -28.602 -10.4484
-4.30327 -59.8747 -2.43213
7.7189 -61.2508 7.44898
-2.04296 -48.9942 -0.84359
-0.582394 -51.4405 2.31498
-3.58439 -35.766 -0.398459
-0.448585 -48.7674 4.2775
0.860015 -98.2307 23.9866
22.5007 -86.8136 -2.91935
10.6704 -69.9754 -0.997376
9.82019 -68.3718 -15.8209
-6.67903 -47.4117 7.79717
-10.1712 -10.161 4.96605
-10.0951 -32.0838 -2.92747
-12.8292 -41.2093 -0.699319
-21.1806 -49.3401 13.4693
2.03991 -38.8688 -11.5392
-20.8447 -48.685 -13.5249
6.67793 -58.6365 -18.8025
1.68851 -64.6367 -19.8328
0.0824253 -53.1302 -4.203
-4.34604 -51.5956 -0.62982
2.05778 -31.856 8.65058
-7.27205 -45.5172 -8.95736
-1.39148 -0.508682 10.7999
-12.9402 -45.787 -21.4965
5.86009 -61.8123 2.2734
-9.13298 -104.921 0.149111
-2.87328 -64.0344 -3.97758
-0.240527 -54.6634 15.9108
3.71512 -57.9003 -1.59917
-1.20301 -51.0782 -11.4019
-1.23261 -56.5581 3.86434
4.60742 -53.8859 -1.02484
-7.15543 -49.5044 -0.0671464
-10.917 -42.9701 3.28754
3.09602 -132.877 0.327914
-12.9134 -56.2655 -5.34702
-10.381 -47.3831 14.5368
-3.39511 -49.7949 5.2032
2.32844 67.2172 19.5704
-13.1251 -42.7545 -1.43636
-5.40963 -41.7677 -1.68449
6.25673 -87.3115 4.89273
7.65653 -66.9989 15.0727
-18.1674 -59.7161 5.83651
-12.9168 -58.05 5.80471
-6.17651 -44.7827 -6.58116
-1.06629 -57.0398 -8.14936
-2.52787 -62.7338 -15.0097
-0.422398 -61.2734 -5.69497
-6.62721 -41.9017 1.19165
-4.92008 -57.9262 1.13342
14.2039 -19.6222 -0.721561
0.974048 -50.6069 3.9719
0.178739 -46.0908 -12.674
0.0223881 -53.7022 -11.3138
3.71411 -53.9297 -10.7892
-11.3515 -43.6612 6.80027
12.7607 -25.4536 1.82411
14.668 -112.335 0.708944
17.2815 -6.94365 -0.0883735
-11.3195 -71.3433 20.2441
-6.56289 -54.8694 -2.56337
1.50722 -49.0867 12.9747
-7.67565 -71.2099 -10.2808
-3.39965 -61.5726 14.5602
-6.40547 -56.7556 15.3689
-3.80455 -49.1436 7.26454
-0.671515 -48.0305 7.04121
11.6009 -11.674 -3.11017
-33.0231 -87.4938 15.0621
2.9606 -86.8153 -26.7925
-19.5596 -11.6757 16.2913
-22.1313 -56.9365 19.8643
-5.49164 -35.7928 6.46709
10.7887 -39.2095 31.2794
9.73036 -46.86 -12.2573
9.67914 -41.1635 -25.1424
3.55809 -29.6264 12.2029
-1.81727 -43.4917 1.90422
6.40491 -146.003 -14.1512
-1.30393 -68.6358 -29.6528
-13.4362 -91.5911 5.21161
10.9643 -53.4366 -19.985
6.47215 -61.7037 -19.5822
0.570871 -55.031 -20.671
1.43347 -60.256 -14.3629
1.29364 -57.6568 -17.1331
23.1847 -41.9579 -37.6313
-0.902351 -48.1805 -24.6067
1.09181 -42.7367 -10.8971
6.4798 -3.58231 -25.0805
12.2312 -22.4132 4.63744
-0.2332 -67.1221 26.5293
17.7829 -44.8228 47.8484
-5.33982 -7.51992 23.9711
13.3799 -14.4897 45.4574
15.9672 -62.6748 20.7276
-8.18758 21.273 -5.526
10.1612 -3.51987 5.77256
14.598 -28.9542 -21.7829
11.2948 14.6454 22.7737
2.0746 32.5978 -10.513
-29.0258 58.4366 0.408002
7.20225 60.9026 8.35693
-29.2641 42.9842 -5.44319
27.5367 -2.87708 -5.46126
-1.06639 14.3314 12.1902
-3.74562 -2.31624 19.8106
8.57977 65.9363 -3.36733
13.1061 7.80252 -2.54587
9.45283 31.3011 -3.58351
-19.8516 21.3417 4.51809
9.81907 -6.07823 7.29029
16.5476 5.10588 -17.5473
54.6987 -2.68556 -7.77614
-24.8551 33.0087 5.96927
-31.7569 11.1195 -1.92806
39.2536 18.9516 24.2137
7.58028 19.8096 6.55237
-10.1466 -5.12916 -3.39451
-35.978 41.7595 -8.13862
8.20599 -20.9054 15.1079
5.37072 47.6146 7.37119
72.7618 21.8048 -11.8743
-18.7538 38.78 -24.408
18.9157 35.253 -12.3362
-7.10944 14.5801 24.4463
-13.3954 11.2191 -5.67085
32.9667 5.0073 -9.42458
-5.19276 42.5096 -4.33705
5.02405 61.2909 -11.2503
-8.20172 54.3255 -7.37876
-30.0516 -7.16515 14.6184
-14.6784 -94.0318 -5.68308
-3.96629 -26.7824 -46.6597
-6.50625 -48.9137 -36.5628
-10.02 48.8769 21.0521
28.426 -39.9732 -48.8253
-3.80817 -62.4047 -19.1185
1.52384 -28.5319 57.3212
-9.4673 -19.8703 71.0553
-15.3535 -60.2896 28.2129
34.1876 24.0643 -14.1392
-8.6942 8.95724 -8.22074
32.7576 -1.34284 10.1104
-7.98876 -16.8691 7.58655
-26.7868 5.11819 1.18436
16.5749 6.99697 -13.9843
1.74106 15.6743 4.78348
-17.1676 13.098 -1.68649
-18.0023 -2.25344 -2.03101
-20.8321 11.7224 0.946315
14.3851 38.1317 14.7561
2.79888 13.9482 18.4678
3.29131 36.5695 -10.5942
0.920687 -22.7932 -30.649
20.9075 0.322582 -2.13461
5.20439 32.238 -9.17423
-42.5733 26.8379 -5.55065
-4.95353 13.1876 -11.3808
35.735 -3.77729 -20.7852
-22.9507 53.4618 -4.97396
25.6996 17.0182 24.7243
9.59834 70.3093 5.44313
19.1745 -2.11068 34.2992
-15.3976 -91.739 -43.2868
6.43535 19.5767 -63.1691
15.0843 -66.9937 -26.1899
12.2228 -15.9599 -2.93328
-18.9714 14.6337 -3.15764
35.5503 -3.71378 -6.80958
-14.2691 -8.9192 -3.64198
-9.2191 -2.20708 -13.0001
-6.62266 -20.8035 10.2345
0.932763 16.8365 -4.14792
15.9767 12.7538 -6.66487
15.4493 27.5458 15.0472
11.3214 -11.4862 -24.0137
26.7726 30.7736 4.06045
2.48785 22.7448 7.6636
-18.896 16.9415 10.9234
0.0 0.0 0.0
2.60784 -43.3431 -14.3166
-16.1432 60.9197 16.5905
-12.7795 40.4978 -19.4726
0.0 0.0 0.0
0.0 0.0 0.0
0.0882707 -33.876 -6.3602
0.0 0.0 0.0
0.0 0.0 0.0
-20.3406 6.22524 2.71283
0.0 0.0 0.0
0.0 0.0 0.0
16.8377 21.6544 -2.36392
0.0 0.0 0.0
0.0 0.0 0.0
6.99589 44.0981 2.48949
0.0 0.0 0.0
0.0 0.0 0.0
0.0 0.0 0.0
0.0 0.0 0.0
0.0 0.0 0.0
0.0 0.0 0.0
0.0 0.0 0.0
0.0 0.0 0.0
0.0 0.0 0.0
0.0 0.0 0.0
0.0 0.0 0.0
0.0 0.0 0.0
0.0 0.0 0.0
0.0 0.0 0.0
0.0 0.0 0.0
0.0 0.0 0.0
0.0 0.0 0.0
0.0 0.0 0.0
0.0 0.0 0.0
0.0 0.0 0.0
0.0 0.0 0.0
0.0 0.0 0.0
0.0 0.0 0.0
0.0 0.0 0.0
0.0 0.0 0.0
0.0 0.0 0.0
0.0 0.0 0.0
0.0 0.0 0.0
0.0 0.0 0.0
0.0 0.0 0.0
0.0 0.0 0.0
0.0 0.0 0.0
0.0 0.0 0.0
0.0 0.0 0.0
0.0 0.0 0.0
0.0 0.0 0.0
0.0 0.0 0.0
0.0 0.0 0.0
0.0 0.0 0.0
0.0 0.0 0.0
0.0 0.0 0.0
0.0 0.0 0.0
0.0 0.0 0.0
0.0 0.0 0.0
0.0 0.0 0.0
0.0 0.0 0.0
0.0 0.0 0.0
0.0 0.0 0.0
0.0 0.0 0.0
0.0 0.0 0.0
0.0 0.0 0.0
0.0 0.0 0.0
0.0 0.0 0.0
0.0 0.0 0.0
0.0 0.0 0.0
0.0 0.0 0.0
0.0 0.0 0.0
0.0 0.0 0.0
0.0 0.0 0.0
0.0 0.0 0.0
0.0 0.0 0.0
0.0 0.0 0.0
0.0 0.0 0.0
0.0 0.0 0.0
0.0 0.0 0.0
0.0 0.0 0.0
0.0 0.0 0.0
0.0 0.0 0.0
0.0 0.0 0.0
0.0 0.0 0.0
0.0 0.0 0.0
0.0 0.0 0.0
0.0 0.0 0.0
0.0 0.0 0.0
0.0 0.0 0.0
0.0 0.0 0.0
0.0 0.0 0.0
0.0 0.0 0.0
0.0 0.0 0.0
0.0 0.0 0.0
0.0 0.0 0.0
0.0 0.0 0.0
0.0 0.0 0.0
0.0 0.0 0.0
0.0 0.0 0.0
0.0 0.0 0.0
0.0 0.0 0.0
0.0 0.0 0.0
0.0 0.0 0.0
0.0 0.0 0.0
0.0 0.0 0.0
0.0 0.0 0.0
0.0 0.0 0.0
0.0 0.0 0.0
0.0 0.0 0.0
0.0 0.0 0.0
0.0 0.0 0.0
0.0 0.0 0.0
0.0 0.0 0.0
0.0 0.0 0.0
0.0 0.0 0.0
0.0 0.0 0.0
0.0 0.0 0.0
0.0 0.0 0.0
0.0 0.0 0.0
0.0 0.0 0.0
0.0 0.0 0.0
0.0 0.0 0.0
0.0 0.0 0.0
0.0 0.0 0.0
0.0 0.0 0.0
0.0 0.0 0.0
0.0 0.0 0.0
0.0 0.0 0.0
0.0 0.0 0.0
0.0 0.0 0.0
0.0 0.0 0.0
0.0 0.0 0.0
0.0 0.0 0.0
0.0 0.0 0.0
0.0 0.0 0.0
0.0 0.0 0.0
0.0 0.0 0.0
0.0 0.0 0.0
0.0 0.0 0.0
0.0 0.0 0.0
0.0 0.0 0.0
VECTORS v float
0.618294 -0.245577 0.226715
1.29852 -0.570604 -0.516335
1.21275 0.0885405 -0.133779
1.49904 -0.292981 0.260473
1.74375 0.0574118 0.169682
2.21117 0.283186 -0.283225
2.35902 0.0290255 -0.00905902
2.42073 -0.0647509 -0.0440043
2.29988 0.0425383 1.98829e-06
2.70795 -0.260663 0.0325729