# vtk DataFile Version 2.0
Generated by lpp.py
ASCII
DATASET POLYDATA
POINTS 353 float
0.0365914 0.172765 1.59098
0.388661 0.179976 1.58288
0.478743 0.177099 1.58591
0.684965 0.177658 1.58529
0.811328 0.18022 1.58279
0.871368 0.186666 1.57688
0.938847 0.175722 1.58615
1.00217 0.185343 1.57765
1.06924 0.1957 1.57711
1.14501 0.18917 1.57687
1.20779 0.184978 1.57885
0.254449 0.213718 1.57406
0.326173 0.205759 1.57932
0.535682 0.199751 1.58861
0.961362 0.229393 1.57694
0.137235 0.258393 1.57429
0.393808 0.239745 1.57491
0.487417 0.236267 1.58211
0.56679 0.25134 1.58167
0.699388 0.251979 1.5763
0.800848 0.239554 1.5928
0.894476 0.242233 1.57684
1.10286 0.249063 1.57665
1.18154 0.238422 1.57815
1.25406 0.233885 1.57686
0.252657 0.286649 1.57484
0.32017 0.294942 1.59789
0.641166 0.299463 1.58035
0.852416 0.285467 1.57688
1.14808 0.287692 1.57667
0.187015 0.318334 1.57667
0.392284 0.330692 1.57566
0.582932 0.310298 1.5766
0.705434 0.31044 1.59574
0.100044 0.338346 1.57242
0.239121 0.368123 1.57716
0.291397 0.341549 1.57575
0.530446 0.341373 1.57701
0.668147 0.352735 1.57668
0.827052 0.355141 1.57686
0.147414 0.381773 1.57635
0.390087 0.386557 1.594
0.494577 0.397113 1.57913
0.579538 0.402294 1.57686
0.644412 0.408469 1.57686
0.906251 0.376434 1.5769
0.963908 0.395324 1.5768
0.155304 0.438961 1.58906
0.244664 0.441849 1.57374
0.345297 0.421223 1.57567
0.783508 0.416486 1.5772
1.06339 0.416506 1.5768
0.308138 0.480164 1.58039
0.411348 0.465571 1.57647
0.640495 0.471779 1.57762
0.708911 0.456129 1.57686
0.838653 0.445719 1.57687
0.907248 0.466273 1.58157
1.32406 0.457468 1.57686
0.0982272 0.5045 1.58578
0.254498 0.511101 1.57556
0.475916 0.488691 1.57887
0.56784 0.500822 1.57749
0.759746 0.512347 1.57679
1.07976 0.506316 1.57845
0.0550563 0.545868 1.57721
0.314821 0.545818 1.598
0.828887 0.530123 1.57799
1.19294 0.529298 1.57712
1.39524 0.526918 1.57686
0.177846 0.555409 1.58245
0.382794 0.571971 1.58175
0.448432 0.556308 1.57785
0.55091 0.564602 1.57653
0.617505 0.568483 1.57865
0.78447 0.568715 1.57664
0.915125 0.560992 1.57685
0.972893 0.574773 1.59441
1.11227 0.559128 1.57688
1.16757 0.581662 1.59007
1.2399 0.567718 1.57687
0.842345 0.587927 1.5947
0.527824 0.14692 1.61531
0.596223 0.136995 1.63101
0.0873293 0.200233 1.61107
0.274999 0.242138 1.61995
0.342166 0.244999 1.62191
0.425641 0.230739 1.62259
0.638896 0.253891 1.61798
0.854358 0.233017 1.61988
0.115018 0.283492 1.62176
0.391244 0.288456 1.61702
0.51903 0.278109 1.61276
0.750036 0.27041 1.60037
0.817646 0.28754 1.6257
0.464545 0.31166 1.59428
0.224228 0.335922 1.62412
0.321902 0.373418 1.61194
0.450316 0.372425 1.62325
0.568291 0.345559 1.62264
0.528093 0.39436 1.62654
0.708854 0.389104 1.61499
1.09548 0.375631 1.60637
0.189988 0.466536 1.62714
0.49362 0.450196 1.62734
0.560846 0.448259 1.61228
0.678513 0.483238 1.62493
0.784781 0.466182 1.61231
0.529941 0.50783 1.6298
0.905991 0.514265 1.63455
0.381664 0.521397 1.61457
0.726423 0.563072 1.61362
0.375994 0.607199 1.62902
0.515429 0.611829 1.62099
0.697473 0.622151 1.63535
0.398552 0.107656 1.66129
0.664056 0.105553 1.65742
0.884127 0.127753 1.64254
0.410973 0.163561 1.65033
0.879541 0.198421 1.66264
0.207757 0.231905 1.63395
0.186361 0.292625 1.62868
0.428293 0.275002 1.66368
0.722259 0.289393 1.64943
0.361939 0.369252 1.65288
0.142835 0.378222 1.64212
0.219593 0.403232 1.62115
0.608659 0.415097 1.64569
0.734791 0.443753 1.64194
0.30304 0.458841 1.65246
0.396645 0.466559 1.65272
0.263511 0.507626 1.63377
0.450545 0.49105 1.66692
0.160381 0.528285 1.63507
0.462695 0.567693 1.66891
0.615059 0.58167 1.6394
0.870627 0.561717 1.63865
0.243731 0.256062 1.67287
0.365119 0.235732 1.67595
0.370698 0.31235 1.66953
0.265223 0.355807 1.66183
0.424375 0.345616 1.67142
0.405622 0.402245 1.67174
0.465809 0.398037 1.6793
0.896994 0.391044 1.66651
0.146419 0.455412 1.67306
0.206827 0.454484 1.67934
0.574969 0.454893 1.68962
0.36037 0.508751 1.66894
0.21218 0.524386 1.66413
0.620686 0.534651 1.67504
0.648393 0.613669 1.6809
0.738736 0.670051 1.67923
0.738897 0.217725 1.70613
0.363723 0.362575 1.71182
0.103142 0.420759 1.6909
0.317531 0.455079 1.70815
0.491968 0.497919 1.70461
0.598471 0.797795 1.72598
0.234882 0.370686 1.74803
0.387139 0.48601 1.74438
0.29951 0.265646 1.75541
0.478513 0.241448 1.78834
0.26261 0.317421 1.75507
0.121236 0.342722 1.756
0.250123 0.467148 1.78187
0.124302 0.506318 1.76547
0.136955 0.241756 1.79739
0.200031 0.295208 1.7907
0.352336 0.290052 1.8066
0.43656 0.349215 1.79023
0.18594 0.400862 1.80944
0.288982 0.398489 1.79496
0.41824 0.41741 1.79645
0.485548 0.450278 1.80941
0.302009 0.506095 1.80533
0.473517 0.305435 1.85776
0.485376 0.385518 1.83025
0.106832 0.451129 1.83665
0.195772 0.344168 1.88387
0.323211 0.457255 1.87524
0.398493 0.508779 1.8961
0.180109 0.517525 1.8725
0.136852 0.289242 1.90548
0.211371 0.280829 1.93101
0.416409 0.288456 1.90801
0.269256 0.359202 1.91911
0.218921 0.397847 1.91957
0.349719 0.399621 1.93179
0.428381 0.4467 1.9125
0.245914 0.511668 1.92959
0.466202 0.49757 1.92486
0.260718 0.244031 1.95622
0.305852 0.287522 1.94948
0.499385 0.279499 1.95899
0.373442 0.329195 1.96149
0.102791 0.340368 1.96228
0.485374 0.358108 1.94256
0.422187 0.378047 1.94817
0.169637 0.459874 1.94439
0.103225 0.518985 1.94926
0.174537 0.231131 1.99918
0.346739 0.243699 1.99402
0.411604 0.238101 1.98687
0.108104 0.281799 1.99805
0.157239 0.333515 2.00165
0.478405 0.411198 1.99614
0.370548 0.454286 1.9991
0.209404 0.487055 2.00568
0.283642 0.234209 2.04078
0.469838 0.243492 2.02082
0.268169 0.352895 2.04079
0.478946 0.338932 2.04149
0.121741 0.410905 2.03622
0.189941 0.428545 2.02254
0.267329 0.456169 2.02311
0.43276 0.446836 2.02212
0.496878 0.474265 2.0418
0.122063 0.498448 2.03502
0.341446 0.508108 2.01682
0.429885 0.51089 2.03211
0.222298 0.231508 2.07943
0.144959 0.253084 2.0599
0.225054 0.287898 2.04782
0.353756 0.288308 2.0621
0.419349 0.297497 2.07155
0.107864 0.308056 2.0737
0.216531 0.381594 2.07634
0.33513 0.393755 2.05779
0.434422 0.399982 2.06934
0.177321 0.473873 2.0723
0.3755 0.471214 2.06858
0.287754 0.512498 2.06063
0.482317 0.228242 2.10854
0.386528 0.235346 2.10474
0.17305 0.29572 2.10163
0.280967 0.269166 2.10746
0.32031 0.335135 2.0867
0.470734 0.315695 2.11592
0.142292 0.405308 2.11272
0.289149 0.393948 2.10364
0.10269 0.478868 2.11007
0.265427 0.473439 2.10144
0.487332 0.44601 2.10319
0.230707 0.52291 2.09918
0.100828 0.246005 2.12484
0.334084 0.267131 2.13623
0.383935 0.304407 2.14118
0.104364 0.371175 2.14875
0.189473 0.369831 2.14465
0.383297 0.361785 2.12306
0.495324 0.379459 2.12665
0.238696 0.425254 2.13413
0.338206 0.47604 2.12542
0.405771 0.451899 2.12402
0.477819 0.52568 2.121
0.410316 0.229607 2.16717
0.227735 0.245208 2.15361
0.479511 0.263195 2.1625
0.283481 0.328862 2.15466
0.488965 0.329122 2.18107
0.433942 0.344323 2.15524
0.124882 0.444445 2.15537
0.292698 0.428673 2.16157
0.367427 0.412219 2.15779
0.436973 0.45447 2.1786
0.498994 0.449521 2.17904
0.387806 0.497135 2.16601
0.10683 0.52412 2.17027
0.498691 0.522189 2.18147
0.307197 0.231054 2.18934
0.112238 0.243444 2.19138
0.196779 0.286134 2.20798
0.338106 0.302046 2.19158
0.144627 0.329159 2.19743
0.322732 0.35929 2.22017
0.388723 0.350133 2.20272
0.179678 0.383211 2.21608
0.26384 0.382845 2.19039
0.404531 0.416433 2.21679
0.180002 0.445959 2.21427
0.336562 0.447813 2.2053
0.197767 0.505506 2.18969
0.316599 0.507618 2.20974
0.4192 0.521596 2.21807
0.299287 0.247375 2.24679
0.442411 0.236129 2.24895
0.498503 0.253983 2.22572
0.432796 0.302258 2.23979
0.345572 0.308923 2.25327
0.476186 0.343657 2.24982
0.499396 0.409304 2.24395
0.230608 0.478968 2.23273
0.133145 0.50156 2.2251
0.383426 0.485675 2.2555
0.196226 0.26238 2.27567
0.356376 0.254196 2.2777
0.126939 0.284236 2.25643
0.187834 0.32549 2.26014
0.256147 0.321804 2.27011
0.110703 0.374435 2.27211
0.415762 0.389621 2.27827
0.214879 0.429082 2.28971
0.282511 0.427246 2.26226
0.107302 0.455042 2.27596
0.180798 0.510604 2.26163
0.49838 0.508374 2.28212
0.271982 0.260644 2.3108
0.321856 0.294278 2.30913
0.44222 0.295647 2.30067
0.125428 0.344451 2.32441
0.346145 0.350757 2.30426
0.282424 0.374546 2.31858
0.475094 0.383761 2.29966
0.466199 0.451954 2.30462
0.104255 0.515661 2.31241
0.236464 0.494005 2.30237
0.430217 0.500721 2.30499
0.339305 0.526873 2.29754
0.103324 0.228818 2.33871
0.161403 0.258279 2.33827
0.363615 0.240431 2.34399
0.425069 0.242959 2.34512
0.499192 0.246026 2.34267
0.189012 0.364304 2.33306
0.415188 0.353574 2.32906
0.115455 0.44409 2.3345
0.323589 0.424937 2.3271
0.40415 0.414672 2.34454
0.158807 0.499296 2.35065
0.370433 0.49856 2.34148
0.264146 0.523422 2.34795
0.220666 0.238837 2.38734
0.257372 0.298287 2.37437
0.314466 0.284399 2.39272
0.492483 0.279077 2.3944
0.417494 0.317622 2.39147
0.31493 0.348737 2.36385
0.484684 0.362834 2.37124
0.125062 0.39201 2.37589
0.217234 0.387064 2.38563
0.263093 0.452487 2.39205
0.417911 0.469013 2.38692
0.486571 0.452792 2.39556
0.393674 0.233628 2.40132
0.17717 0.298235 2.3992
0.107591 0.339963 2.40367
0.385775 0.387923 2.40657
0.449749 0.403068 2.39884
0.139724 0.459766 2.40164
0.220758 0.508511 2.39861
0.312076 0.491969 2.3976
0.490194 0.521396 2.40111
VERTICES 353 706
1 0
1 1
1 2
1 3
1 4
1 5
1 6
1 7
1 8
1 9
1 10
1 11
1 12
1 13
1 14
1 15
1 16
1 17
1 18
1 19
1 20
1 21
1 22
1 23
1 24
1 25
1 26
1 27
1 28
1 29
1 30
1 31
1 32
1 33
1 34
1 35
1 36
1 37
1 38
1 39
1 40
1 41
1 42
1 43
1 44
1 45
1 46
1 47
1 48
1 49
1 50
1 51
1 52
1 53
1 54
1 55
1 56
1 57
1 58
1 59
1 60
1 61
1 62
1 63
1 64
1 65
1 66
1 67
1 68
1 69
1 70
1 71
1 72
1 73
1 74
1 75
1 76
1 77
1 78
1 79
1 80
1 81
1 82
1 83
1 84
1 85
1 86
1 87
1 88
1 89
1 90
1 91
1 92
1 93
1 94
1 95
1 96
1 97
1 98
1 99
1 100
1 101
1 102
1 103
1 104
1 105
1 106
1 107
1 108
1 109
1 110
1 111
1 112
1 113
1 114
1 115
1 116
1 117
1 118
1 119
1 120
1 121
1 122
1 123
1 124
1 125
1 126
1 127
1 128
1 129
1 130
1 131
1 132
1 133
1 134
1 135
1 136
1 137
1 138
1 139
1 140
1 141
1 142
1 143
1 144
1 145
1 146
1 147
1 148
1 149
1 150
1 151
1 152
1 153
1 154
1 155
1 156
1 157
1 158
1 159
1 160
1 161
1 162
1 163
1 164
1 165
1 166
1 167
1 168
1 169
1 170
1 171
1 172
1 173
1 174
1 175
1 176
1 177
1 178
1 179
1 180
1 181
1 182
1 183
1 184
1 185
1 186
1 187
1 188
1 189
1 190
1 191
1 192
1 193
1 194
1 195
1 196
1 197
1 198
1 199
1 200
1 201
1 202
1 203
1 204
1 205
1 206
1 207
1 208
1 209
1 210
1 211
1 212
1 213
1 214
1 215
1 216
1 217
1 218
1 219
1 220
1 221
1 222
1 223
1 224
1 225
1 226
1 227
1 228
1 229
1 230
1 231
1 232
1 233
1 234
1 235
1 236
1 237
1 238
1 239
1 240
1 241
1 242
1 243
1 244
1 245
1 246
1 247
1 248
1 249
1 250
1 251
1 252
1 253
1 254
1 255
1 256
1 257
1 258
1 259
1 260
1 261
1 262
1 263
1 264
1 265
1 266
1 267
1 268
1 269
1 270
1 271
1 272
1 273
1 274
1 275
1 276
1 277
1 278
1 279
1 280
1 281
1 282
1 283
1 284
1 285
1 286
1 287
1 288
1 289
1 290
1 291
1 292
1 293
1 294
1 295
1 296
1 297
1 298
1 299
1 300
1 301
1 302
1 303
1 304
1 305
1 306
1 307
1 308
1 309
1 310
1 311
1 312
1 313
1 314
1 315
1 316
1 317
1 318
1 319
1 320
1 321
1 322
1 323
1 324
1 325
1 326
1 327
1 328
1 329
1 330
1 331
1 332
1 333
1 334
1 335
1 336
1 337
1 338
1 339
1 340
1 341
1 342
1 343
1 344
1 345
1 346
1 347
1 348
1 349
1 350
1 351
1 352
POINT_DATA 353
VECTORS i float
0.0 0.0 0.0
0.0 0.0 0.0
0.0 0.0 0.0
0.0 0.0 0.0
0.0 0.0 0.0
0.0 0.0 0.0
0.0 0.0 0.0
0.0 0.0 0.0
0.0 0.0 0.0
0.0 0.0 0.0
0.0 0.0 0.0
0.0 0.0 0.0
0.0 0.0 0.0
0.0 0.0 0.0
0.0 0.0 0.0
0.0 0.0 0.0
0.0 0.0 0.0
0.0 0.0 0.0
0.0 0.0 0.0
0.0 0.0 0.0
0.0 0.0 0.0
0.0 0.0 0.0
0.0 0.0 0.0
0.0 0.0 0.0
0.0 0.0 0.0
0.0 0.0 0.0
0.0 0.0 0.0
0.0 0.0 0.0
0.0 0.0 0.0
0.0 0.0 0.0
0.0 0.0 0.0
0.0 0.0 0.0
0.0 0.0 0.0
0.0 0.0 0.0
0.0 0.0 0.0
0.0 0.0 0.0
0.0 0.0 0.0
0.0 0.0 0.0
0.0 0.0 0.0
0.0 0.0 0.0
0.0 0.0 0.0
0.0 0.0 0.0
0.0 0.0 0.0
0.0 0.0 0.0
0.0 0.0 0.0
0.0 0.0 0.0
0.0 0.0 0.0
0.0 0.0 0.0
0.0 0.0 0.0
0.0 0.0 0.0
0.0 0.0 0.0
0.0 0.0 0.0
0.0 0.0 0.0
0.0 0.0 0.0
0.0 0.0 0.0
0.0 0.0 0.0
0.0 0.0 0.0
0.0 0.0 0.0
0.0 0.0 0.0
0.0 0.0 0.0
0.0 0.0 0.0
0.0 0.0 0.0
0.0 0.0 0.0
0.0 0.0 0.0
0.0 0.0 0.0
0.0 0.0 0.0
0.0 0.0 0.0
0.0 0.0 0.0
0.0 0.0 0.0
0.0 0.0 0.0
0.0 0.0 0.0
0.0 0.0 0.0
0.0 0.0 0.0
0.0 0.0 0.0
0.0 0.0 0.0
0.0 0.0 0.0
0.0 0.0 0.0
0.0 0.0 0.0
0.0 0.0 0.0
0.0 0.0 0.0
0.0 0.0 0.0
0.0 0.0 0.0
0.0 0.0 0.0
0.0 0.0 0.0
0.0 0.0 0.0
0.0 0.0 0.0
0.0 0.0 0.0
0.0 0.0 0.0
0.0 0.0 0.0
0.0 0.0 0.0
0.0 0.0 0.0
0.0 0.0 0.0
0.0 0.0 0.0
0.0 0.0 0.0
0.0 0.0 0.0
0.0 0.0 0.0
0.0 0.0 0.0
0.0 0.0 0.0
0.0 0.0 0.0
0.0 0.0 0.0
0.0 0.0 0.0
0.0 0.0 0.0
0.0 0.0 0.0
0.0 0.0 0.0
0.0 0.0 0.0
0.0 0.0 0.0
0.0 0.0 0.0
0.0 0.0 0.0
0.0 0.0 0.0
0.0 0.0 0.0
0.0 0.0 0.0
0.0 0.0 0.0
0.0 0.0 0.0
0.0 0.0 0.0
0.0 0.0 0.0
0.0 0.0 0.0
0.0 0.0 0.0
0.0 0.0 0.0
0.0 0.0 0.0
0.0 0.0 0.0
0.0 0.0 0.0
0.0 0.0 0.0
0.0 0.0 0.0
0.0 0.0 0.0
0.0 0.0 0.0
0.0 0.0 0.0
0.0 0.0 0.0
0.0 0.0 0.0
0.0 0.0 0.0
0.0 0.0 0.0
0.0 0.0 0.0
0.0 0.0 0.0
0.0 0.0 0.0
0.0 0.0 0.0
0.0 0.0 0.0
0.0 0.0 0.0
0.0 0.0 0.0
0.0 0.0 0.0
0.0 0.0 0.0
0.0 0.0 0.0
0.0 0.0 0.0
0.0 0.0 0.0
0.0 0.0 0.0
0.0 0.0 0.0
0.0 0.0 0.0
0.0 0.0 0.0
0.0 0.0 0.0
0.0 0.0 0.0
0.0 0.0 0.0
0.0 0.0 0.0
0.0 0.0 0.0
0.0 0.0 0.0
0.0 0.0 0.0
0.0 0.0 0.0
0.0 0.0 0.0
0.0 0.0 0.0
0.0 0.0 0.0
0.0 0.0 0.0
0.0 0.0 0.0
0.0 0.0 0.0
0.0 0.0 0.0
0.0 0.0 0.0
0.0 0.0 0.0
0.0 0.0 0.0
0.0 0.0 0.0
0.0 0.0 0.0
0.0 0.0 0.0
0.0 0.0 0.0
0.0 0.0 0.0
0.0 0.0 0.0
0.0 0.0 0.0
0.0 0.0 0.0
0.0 0.0 0.0
0.0 0.0 0.0
0.0 0.0 0.0
0.0 0.0 0.0
0.0 0.0 0.0
0.0 0.0 0.0
0.0 0.0 0.0
0.0 0.0 0.0
0.0 0.0 0.0
0.0 0.0 0.0
0.0 0.0 0.0
0.0 0.0 0.0
0.0 0.0 0.0
0.0 0.0 0.0
0.0 0.0 0.0
0.0 0.0 0.0
0.0 0.0 0.0
0.0 0.0 0.0
0.0 0.0 0.0
0.0 0.0 0.0
0.0 0.0 0.0
0.0 0.0 0.0
0.0 0.0 0.0
0.0 0.0 0.0
0.0 0.0 0.0
0.0 0.0 0.0
0.0 0.0 0.0
0.0 0.0 0.0
0.0 0.0 0.0
0.0 0.0 0.0
0.0 0.0 0.0
0.0 0.0 0.0
0.0 0.0 0.0
0.0 0.0 0.0
0.0 0.0 0.0
0.0 0.0 0.0
0.0 0.0 0.0
0.0 0.0 0.0
0.0 0.0 0.0
0.0 0.0 0.0
0.0 0.0 0.0
0.0 0.0 0.0
0.0 0.0 0.0
0.0 0.0 0.0
0.0 0.0 0.0
0.0 0.0 0.0
0.0 0.0 0.0
0.0 0.0 0.0
0.0 0.0 0.0
0.0 0.0 0.0
0.0 0.0 0.0
0.0 0.0 0.0
0.0 0.0 0.0
0.0 0.0 0.0
0.0 0.0 0.0
0.0 0.0 0.0
0.0 0.0 0.0
0.0 0.0 0.0
0.0 0.0 0.0
0.0 0.0 0.0
0.0 0.0 0.0
0.0 0.0 0.0
0.0 0.0 0.0
0.0 0.0 0.0
0.0 0.0 0.0
0.0 0.0 0.0
0.0 0.0 0.0
0.0 0.0 0.0
0.0 0.0 0.0
0.0 0.0 0.0
0.0 0.0 0.0
0.0 0.0 0.0
0.0 0.0 0.0
0.0 0.0 0.0
0.0 0.0 0.0
0.0 0.0 0.0
0.0 0.0 0.0
0.0 0.0 0.0
0.0 0.0 0.0
0.0 0.0 0.0
0.0 0.0 0.0
0.0 0.0 0.0
0.0 0.0 0.0
0.0 0.0 0.0
0.0 0.0 0.0
0.0 0.0 0.0
0.0 0.0 0.0
0.0 0.0 0.0
0.0 0.0 0.0
0.0 0.0 0.0
0.0 0.0 0.0
0.0 0.0 0.0
0.0 0.0 0.0
0.0 0.0 0.0
0.0 0.0 0.0
0.0 0.0 0.0
0.0 0.0 0.0
0.0 0.0 0.0
0.0 0.0 0.0
0.0 0.0 0.0
0.0 0.0 0.0
0.0 0.0 0.0
0.0 0.0 0.0
0.0 0.0 0.0
0.0 0.0 0.0
0.0 0.0 0.0
0.0 0.0 0.0
0.0 0.0 0.0
0.0 0.0 0.0
0.0 0.0 0.0
0.0 0.0 0.0
0.0 0.0 0.0
0.0 0.0 0.0
0.0 0.0 0.0
0.0 0.0 0.0
0.0 0.0 0.0
0.0 0.0 0.0
0.0 0.0 0.0
0.0 0.0 0.0
0.0 0.0 0.0
0.0 0.0 0.0
0.0 0.0 0.0
0.0 0.0 0.0
0.0 0.0 0.0
0.0 0.0 0.0
0.0 0.0 0.0
0.0 0.0 0.0
0.0 0.0 0.0
0.0 0.0 0.0
0.0 0.0 0.0
0.0 0.0 0.0
0.0 0.0 0.0
0.0 0.0 0.0
0.0 0.0 0.0
0.0 0.0 0.0
0.0 0.0 0.0
0.0 0.0 0.0
0.0 0.0 0.0
0.0 0.0 0.0
0.0 0.0 0.0
0.0 0.0 0.0
0.0 0.0 0.0
0.0 0.0 0.0
0.0 0.0 0.0
0.0 0.0 0.0
0.0 0.0 0.0
0.0 0.0 0.0
0.0 0.0 0.0
0.0 0.0 0.0
0.0 0.0 0.0
0.0 0.0 0.0
0.0 0.0 0.0
0.0 0.0 0.0
0.0 0.0 0.0
0.0 0.0 0.0
0.0 0.0 0.0
0.0 0.0 0.0
0.0 0.0 0.0
0.0 0.0 0.0
0.0 0.0 0.0
0.0 0.0 0.0
0.0 0.0 0.0
0.0 0.0 0.0
0.0 0.0 0.0
0.0 0.0 0.0
0.0 0.0 0.0
0.0 0.0 0.0
0.0 0.0 0.0
0.0 0.0 0.0
0.0 0.0 0.0
0.0 0.0 0.0
0.0 0.0 0.0
0.0 0.0 0.0
0.0 0.0 0.0
0.0 0.0 0.0
0.0 0.0 0.0
0.0 0.0 0.0
0.0 0.0 0.0
0.0 0.0 0.0
0.0 0.0 0.0
0.0 0.0 0.0
VECTORS f float
0.0 0.0 -2.77371
-0.13603 1.30296 -1.23831
-0.116534 -0.680053 -4.68911
-0.00316263 0.962433 -1.01537
-0.0554303 0.705659 -0.661102
0.00803895 0.0213955 -0.447538
11.8361 6.83036 14.1459
0.256893 0.569582 -1.19135
-0.0484016 0.00948334 -2.26495
0.00524342 -0.000408935 -0.11279
0.133542 -0.404441 -2.97024
-11.6415 -13.3339 51.5172
0.0 0.0 -2.77371
0.0662692 0.186653 -2.7814
1.0965 10.3097 1.28518
-10.0131 -1.6152 26.3803
5.60434 -0.968894 48.9703
-0.260933 -1.53297 -1.86964
0.0 0.0 -2.77371
1.81009 -2.23521 7.60415
0.59728 -0.0508251 -2.80932
7.21375 -1.70231 -1.98891
-0.81039 -0.0324458 2.69204
0.133514 0.250644 -2.53473
-0.0114514 0.000162699 -0.21151
69.8618 -0.935964 136.962
3.04804 -9.49152 -2.49125
2.19092 2.63449 -5.02695
-1.61158 0.222924 -3.20847
3.73649 2.19611 -0.311361
-12.0426 12.2969 -76.4669
2.60791 -1.18509 17.6757
-3.83168 1.28348 -0.139867
3.43067 -2.10001 0.701379
28.5173 -1.67575 251.375
3.60992 13.5291 -41.0964
-1.41443 -17.919 0.0134972
-7.51989 -4.03007 -20.5511
-0.26803 0.653961 0.027568
-0.00397766 -0.000277071 -0.00366433
-3.46469 0.887303 10.2965
7.48843 9.79887 22.1462
-16.3809 0.742272 -13.9471
-0.00236974 -0.000215218 0.0381971
0.850432 -0.855652 0.0151543
0.0550018 0.0115896 -0.414637
-0.0826886 -0.0196935 0.974113
-21.7837 -3.76804 -45.0855
94.9825 -25.9358 194.146
5.51109 -1.2852 17.3962
0.0 0.0 -2.77371
0.122941 0.214426 -0.211605
0.0 0.0 -2.77371
4.92334 1.71268 7.65175
0.0 0.0 -2.77371
0.0241581 -0.00402169 0.441776
-0.00227809 0.000303579 -0.120638
0.0 0.0 -2.77371
-1.25912e-10 1.22142e-11 1.06421e-08
0.0 0.0 -2.77371
41.0827 -12.6002 53.1123
0.0 0.0 -2.77371
0.0 0.0 -2.77371
0.0827307 -0.0434213 1.52684
0.0 0.0 -2.77371
0.0 0.0 -2.77371
0.0 0.0 -2.77371
10.1439 -12.5407 5.1107
1.5527 -4.03328 -1.72899
7.67755e-12 -3.43795e-13 1.20641e-09
0.0 0.0 -2.77371
5.13592 -5.32136 -8.73674
0.0 0.0 -2.77371
0.272985 -2.56382 2.38291
0.0 0.0 -2.77371
-0.985711 -10.825 15.7801
-0.0188872 -0.00183213 -0.0981089
0.0 0.0 -2.77371
3.56837 0.729953 4.51082
-0.157032 -20.4478 7.36369
11.5585 -7.74936 12.912
-8.68499 -14.7228 21.2267
-0.71393 4.13299 3.60343
0.0 0.0 -2.77371
0.0 0.0 -2.77371
11.2045 16.9521 41.1589
-19.8605 30.2175 -98.1856
9.81419 -2.70497 34.514
3.37643 -5.31717 3.04806
-6.8048 1.01173 0.56357
-1.16708 4.25523 22.2221
-1.81654 -6.1739 6.86261
0.0 0.0 -2.77371
9.24578 -0.754313 -0.211889
1.86346 -0.242481 -2.7168
0.0 0.0 -2.77371
20.9576 2.18905 29.9307
2.18062 14.6492 26.1394
0.0 0.0 -2.77371
9.20257 3.23176 17.9001
16.3809 -0.742272 8.39969
0.0 0.0 -2.77371
0.614103 -1.10305 -0.942747
-5.03756 25.2009 -45.5744
0.0 0.0 -2.77371
0.0 0.0 -2.77371
0.0 0.0 -2.77371
0.0 0.0 -2.77371
0.0 0.0 -2.77371
16.1579 -13.0729 4.19824
-1.94541 1.14232 1.34924
0.0 0.0 -2.77371
-5.13592 5.32136 3.18931
-0.0296551 -1.07007 -0.97875
0.0 0.0 -2.77371
-2.52803 -32.5316 0.1178
0.029418 0.898589 -1.03518
0.0 0.0 -2.77371
2.52803 32.5316 -5.66522
0.0 0.0 -2.77371
-15.8446 -8.06251 -18.479
-7.83395 -35.3801 73.2772
0.0 0.0 -2.77371
-0.525202 5.74107 7.22417
-11.393 2.88186 -8.1462
0.0 0.0 -2.77371
-7.53247 12.8779 19.2061
0.0 0.0 -2.77371
0.0 0.0 -2.77371
13.9284 -14.8591 -110.986
27.6723 -38.1892 -15.2531
-7.30607 2.85098 11.6513
-75.4805 -17.0191 -81.9827
10.4538 0.766322 5.77709
0.0 0.0 -2.77371
-1.63237 4.00843 -10.8283
-5.51332 -6.81419 7.21228
15.8446 8.06251 12.9316
18.6688 -25.7935 92.1638
18.4782 -4.3996 11.959
-2.38933 -0.0268604 -7.12079
0.0585838 0.52387 -2.67663
31.2695 16.1392 20.6326
0.0 0.0 -2.77371
0.0 0.0 -2.77371
8.70427 6.24147 -13.2181
31.0859 -14.1933 85.6009
0.0 0.0 -2.77371
-25.7269 37.0469 5.58277
-10.4538 -0.766322 -11.3245
1.63237 -4.00843 5.28087
0.0 0.0 -2.77371
0.52367 -0.79935 -0.805347
0.0 0.0 -2.77371
0.105981 -0.872139 -4.17568
-8.70427 -6.24147 7.6707
-13.9284 14.8591 105.439
75.4805 17.0191 76.4353
0.0 0.0 -2.77371
0.0 0.0 -2.77371
0.0 0.0 -2.77371
0.0 0.0 -2.77371
0.0 0.0 -2.77371
0.0 0.0 -2.77371
0.0 0.0 -2.77371
0.0 0.0 -2.77371
0.0 0.0 -2.77371
0.0 0.0 -2.77371
0.0 0.0 -2.77371
0.0 0.0 -2.77371
0.0 0.0 -2.77371
0.0 0.0 -2.77371
0.0 0.0 -2.77371
0.0 0.0 -2.77371
0.0 0.0 -2.77371
0.0 0.0 -2.77371
0.0 0.0 -2.77371
0.0 0.0 -2.77371
0.0 0.0 -2.77371
0.0 0.0 -2.77371
0.0 0.0 -2.77371
0.0 0.0 -2.77371
0.0 0.0 -2.77371
0.0 0.0 -2.77371
0.0 0.0 -2.77371
0.0 0.0 -2.77371
0.0 0.0 -2.77371
0.0 0.0 -2.77371
0.0 0.0 -2.77371
0.0 0.0 -2.77371
0.0 0.0 -2.77371
0.0 0.0 -2.77371
0.0 0.0 -2.77371
0.0 0.0 -2.77371
0.0 0.0 -2.77371
0.0 0.0 -2.77371
0.0 0.0 -2.77371
0.0 0.0 -2.77371
0.0 0.0 -2.77371
0.0 0.0 -2.77371
0.0 0.0 -2.77371
0.0 0.0 -2.77371
0.0 0.0 -2.77371
0.0 0.0 -2.77371
0.0 0.0 -2.77371
0.0 0.0 -2.77371
0.0 0.0 -2.77371
0.0 0.0 -2.77371
0.0 0.0 -2.77371
0.0 0.0 -2.77371
0.0 0.0 -2.77371
0.0 0.0 -2.77371
0.0 0.0 -2.77371
0.0 0.0 -2.77371
0.0 0.0 -2.77371
0.0 0.0 -2.77371
0.0 0.0 -2.77371
0.0 0.0 -2.77371
0.0 0.0 -2.77371
0.0 0.0 -2.77371
0.0 0.0 -2.77371
0.0 0.0 0.0
0.0 0.0 0.0
0.0 0.0 0.0
0.0 0.0 0.0
0.0 0.0 0.0
0.0 0.0 0.0
0.0 0.0 0.0
0.0 0.0 0.0
0.0 0.0 0.0
0.0 0.0 0.0
0.0 0.0 0.0
0.0 0.0 0.0
0.0 0.0 0.0
0.0 0.0 0.0
0.0 0.0 0.0
0.0 0.0 0.0
0.0 0.0 0.0
0.0 0.0 0.0
0.0 0.0 0.0
0.0 0.0 0.0
0.0 0.0 0.0
0.0 0.0 0.0
0.0 0.0 0.0
0.0 0.0 0.0
0.0 0.0 0.0
0.0 0.0 0.0
0.0 0.0 0.0
0.0 0.0 0.0
0.0 0.0 0.0
0.0 0.0 0.0
0.0 0.0 0.0
0.0 0.0 0.0
0.0 0.0 0.0
0.0 0.0 0.0
0.0 0.0 0.0
0.0 0.0 0.0
0.0 0.0 0.0
0.0 0.0 0.0
0.0 0.0 0.0
0.0 0.0 0.0
0.0 0.0 0.0
0.0 0.0 0.0
0.0 0.0 0.0
0.0 0.0 0.0
0.0 0.0 0.0
0.0 0.0 0.0
0.0 0.0 0.0
0.0 0.0 0.0
0.0 0.0 0.0
0.0 0.0 0.0
0.0 0.0 0.0
0.0 0.0 0.0
0.0 0.0 0.0
0.0 0.0 0.0
0.0 0.0 0.0
0.0 0.0 0.0
0.0 0.0 0.0
0.0 0.0 0.0
0.0 0.0 0.0
0.0 0.0 0.0
0.0 0.0 0.0
0.0 0.0 0.0
0.0 0.0 0.0
0.0 0.0 0.0
0.0 0.0 0.0
0.0 0.0 0.0
0.0 0.0 0.0
0.0 0.0 0.0
0.0 0.0 0.0
0.0 0.0 0.0
0.0 0.0 0.0
0.0 0.0 0.0
0.0 0.0 0.0
0.0 0.0 0.0
0.0 0.0 0.0
0.0 0.0 0.0
0.0 0.0 0.0
0.0 0.0 0.0
0.0 0.0 0.0
0.0 0.0 0.0
0.0 0.0 0.0
0.0 0.0 0.0
0.0 0.0 0.0
0.0 0.0 0.0
0.0 0.0 0.0
0.0 0.0 0.0
0.0 0.0 0.0
0.0 0.0 0.0
0.0 0.0 0.0
0.0 0.0 0.0
0.0 0.0 0.0
0.0 0.0 0.0
0.0 0.0 0.0
0.0 0.0 0.0
0.0 0.0 0.0
0.0 0.0 0.0
0.0 0.0 0.0
0.0 0.0 0.0
0.0 0.0 0.0
0.0 0.0 0.0
0.0 0.0 0.0
0.0 0.0 0.0
0.0 0.0 0.0
0.0 0.0 0.0
0.0 0.0 0.0
0.0 0.0 0.0
0.0 0.0 0.0
0.0 0.0 0.0
0.0 0.0 0.0
0.0 0.0 0.0
0.0 0.0 0.0
0.0 0.0 0.0
0.0 0.0 0.0
0.0 0.0 0.0
0.0 0.0 0.0
0.0 0.0 0.0
0.0 0.0 0.0
0.0 0.0 0.0
0.0 0.0 0.0
0.0 0.0 0.0
0.0 0.0 0.0
0.0 0.0 0.0
0.0 0.0 0.0
0.0 0.0 0.0
0.0 0.0 0.0
0.0 0.0 0.0
0.0 0.0 0.0
0.0 0.0 0.0
0.0 0.0 0.0
0.0 0.0 0.0
0.0 0.0 0.0
0.0 0.0 0.0
VECTORS omega float
25.7217 -130.499 21.7876
0.844571 -75.6466 41.0123
3.28882 -84.08 18.3913
-7.66815 -75.8432 26.5359
1.61635 -70.0108 6.98295
1.11594 -53.0729 14.1726
-5.99518 27.5288 17.2402
2.77999 -56.9701 23.9772
-14.0128 -68.8098 15.1211
3.22313 -57.377 -2.51671
11.4667 -51.3156 3.74383
16.5002 -85.2053 -31.2066
-6.30461 -9.88612 24.0087
-40.0657 -40.2254 11.1568
0.170594 -53.5925 -1.10243
8.90969 -98.6549 5.37051
3.09979 -79.6085 -39.523
1.89749 -53.9485 -2.72598
-3.57954 30.051 -7.27195
-3.57047 -33.4132 1.67404
-13.3109 15.5191 -8.81508
-0.263036 -54.4126 -0.107585
-10.7781 -48.8148 -23.3424
33.4419 -34.8219 0.418394
-0.448575 -48.7656 4.2775
8.68087 -77.7981 12.8455
18.8139 36.3814 -14.0231
8.81315 3.36992 -7.39296
-10.5384 -47.1574 5.2697
10.5482 -32.6092 -11.0141
2.63612 1.8333 -6.1359
10.565 -98.5444 -14.6729
5.48 -65.7801 2.88307
16.097 48.6609 11.3541
7.03477 -140.671 1.11621
8.21337 -74.3404 -9.06626
-7.97919 -76.6845 27.9503
4.52348 -60.0099 -3.53943
-1.26859 -71.739 1.58947
3.93854 -56.5448 -7.19384
-7.87955 -97.1798 -7.48277
-22.4125 59.8483 -8.24137
11.0138 -29.2027 -12.5077
5.9177 -65.3537 6.17372
-1.93088 -60.3359 -7.19402
-6.2638 -71.0796 14.8012
-0.523894 -66.9877 -2.3098
-36.3799 -64.9327 -10.811
-10.7523 -106.882 16.3903
-8.59036 -77.3934 -17.1444
0.175762 -60.1585 -7.09483
-4.30456 -63.3018 2.18227
-9.14795 -83.428 2.65882
-16.6111 -61.4666 3.87984
-2.06517 -55.9603 14.4084
-6.1192 -47.3805 -3.60468
-1.98701 -62.8805 -10.1731
3.70049 -61.5834 -12.6879
-4.91954 -50.7279 2.52464
35.0694 101.177 -1.7532
-9.4859 -76.1853 10.3061
6.86622 -49.7447 -5.06442
-5.03367 -48.727 10.9756
-2.00157 -69.1653 5.26969
-26.7518 -59.5363 -14.5382
-5.63634 -125.089 -5.60855
-36.343 17.0591 -12.7931
11.0935 -49.4528 13.7808
-1.74661 -34.7148 1.72919
-1.81727 -43.4917 1.90422
-5.22175 -94.0323 7.67041
0.602745 -70.4905 -25.9012
-11.1711 -86.8302 10.0657
0.588882 -61.6499 -37.7919
-2.96794 -84.3396 -7.02656
4.18939 -46.694 -36.222
5.52644 -54.3024 -16.0757
0.841324 -17.9435 -10.5142
-2.50218 -7.88411 22.9603
-1.42348 -29.0229 -20.5487
-14.6823 -44.4477 -0.400346
5.4745 -55.3214 -18.691
10.676 -66.9648 43.605
32.0015 65.7086 -20.9555
12.2383 31.7037 1.65491
-37.7035 22.7745 12.6795
-9.62518 -14.4525 -6.22544
-13.1028 40.4019 -19.7765
-20.5423 56.3543 -20.6243
4.15643 16.3698 -12.3805
-37.5274 15.5078 -12.3334
2.61125 44.7275 5.84754
-18.4273 -11.0567 16.2747
-15.4835 19.2063 7.03528
7.43309 26.8543 15.3599
33.2695 -0.494379 -8.19585
18.9702 12.3594 9.70829
-27.3623 55.2473 -14.3778
5.42131 40.3246 -16.3078
-8.72188 39.7353 0.990375
-26.6264 15.3365 6.94209
0.185123 1.62408 24.3332
-24.2394 0.718209 -2.14321
-4.16406 38.0561 -23.7441
-23.8258 16.225 -6.43656
23.1242 11.4245 -14.7205
-6.78024 9.28693 -15.7151
6.59776 40.3572 8.54795
1.88068 16.9789 -9.05858
-22.3992 10.384 -6.1869
27.4535 42.2196 4.52128
29.9739 50.7797 26.6286
4.67512 -94.5693 -41.3856
-4.91925 -50.378 -35.7335
-7.10119 -21.165 -49.705
8.60391 26.5972 20.847
4.78728 -66.9648 49.009
-0.853713 -36.5678 49.9132
-1.75463 32.8941 -9.94565
-8.9364 14.4906 -21.375
-18.4549 14.5575 -12.6792
43.9508 -38.962 -12.5794
-13.3791 -21.5766 2.6221
-14.1657 31.3378 -22.7887
22.0247 -22.6689 -6.78461
2.58667 47.9078 5.72649
-22.6879 2.5075 8.12167
-10.6128 5.26079 13.8727
-3.63339 -32.3971 -2.33411
8.73687 -19.0221 15.9533
34.8785 26.9989 8.75785
17.3378 6.88934 6.93717
3.3949 4.91979 5.36258
-27.723 8.91626 -24.8156
10.2313 73.4476 -9.29811
6.21371 49.5404 6.3871
4.23125 9.56373 21.3133
-21.5711 -4.06233 -6.93297
-0.412186 0.94823 0.338409
-0.256198 -31.9664 -4.43679
-18.2346 2.91484 12.2673
-12.7321 -35.6403 9.78746
-7.04837 8.73604 11.1357
-25.0811 -16.3142 19.7094
2.53187 -39.5822 20.3081
-3.47744 41.6939 -9.46354
6.09893 5.22169 -1.31225
-5.36574 -8.25033 -13.9941
-12.7933 -61.7608 10.0711
4.55142 21.3358 -5.88542
-1.4043 -53.6061 12.7598
-3.52416 -28.5782 12.2256
-4.37356 -31.7173 -57.2333
24.8783 -51.7265 -20.343
-5.97668 -8.56859 -0.0525555
30.0857 -38.3369 -0.353646
12.6202 24.7606 -1.75915
11.0313 49.707 -20.9585
-31.9594 -99.8791 8.01116
0.0 0.0 0.0
0.0 0.0 0.0
0.0 0.0 0.0
0.0 0.0 0.0
0.0 0.0 0.0
0.0 0.0 0.0
0.0 0.0 0.0
0.0 0.0 0.0
0.0 0.0 0.0
0.0 0.0 0.0
0.0 0.0 0.0
0.0 0.0 0.0
0.0 0.0 0.0
0.0 0.0 0.0
0.0 0.0 0.0
0.0 0.0 0.0
0.0 0.0 0.0
0.0 0.0 0.0
0.0 0.0 0.0
0.0 0.0 0.0
0.0 0.0 0.0
0.0 0.0 0.0
0.0 0.0 0.0
0.0 0.0 0.0
0.0 0.0 0.0
0.0 0.0 0.0
0.0 0.0 0.0
0.0 0.0 0.0
0.0 0.0 0.0
0.0 0.0 0.0
0.0 0.0 0.0
0.0 0.0 0.0
0.0 0.0 0.0
0.0 0.0 0.0
0.0 0.0 0.0
0.0 0.0 0.0
0.0 0.0 0.0
0.0 0.0 0.0
0.0 0.0 0.0
0.0 0.0 0.0
0.0 0.0 0.0
0.0 0.0 0.0
0.0 0.0 0.0
0.0 0.0 0.0
0.0 0.0 0.0
0.0 0.0 0.0
0.0 0.0 0.0
0.0 0.0 0.0
0.0 0.0 0.0
0.0 0.0 0.0
0.0 0.0 0.0
0.0 0.0 0.0
0.0 0.0 0.0
0.0 0.0 0.0
0.0 0.0 0.0
0.0 0.0 0.0
0.0 0.0 0.0
0.0 0.0 0.0
0.0 0.0 0.0
0.0 0.0 0.0
0.0 0.0 0.0
0.0 0.0 0.0
0.0 0.0 0.0
0.0 0.0 0.0
0.0 0.0 0.0
0.0 0.0 0.0
0.0 0.0 0.0
0.0 0.0 0.0
0.0 0.0 0.0
0.0 0.0 0.0
0.0 0.0 0.0
0.0 0.0 0.0
0.0 0.0 0.0
0.0 0.0 0.0
0.0 0.0 0.0
0.0 0.0 0.0
0.0 0.0 0.0
0.0 0.0 0.0
0.0 0.0 0.0
0.0 0.0 0.0
0.0 0.0 0.0
0.0 0.0 0.0
0.0 0.0 0.0
0.0 0.0 0.0
0.0 0.0 0.0
0.0 0.0 0.0
0.0 0.0 0.0
0.0 0.0 0.0
0.0 0.0 0.0
0.0 0.0 0.0
0.0 0.0 0.0
0.0 0.0 0.0
0.0 0.0 0.0
0.0 0.0 0.0
0.0 0.0 0.0
0.0 0.0 0.0
0.0 0.0 0.0
0.0 0.0 0.0
0.0 0.0 0.0
0.0 0.0 0.0
0.0 0.0 0.0
0.0 0.0 0.0
0.0 0.0 0.0
0.0 0.0 0.0
0.0 0.0 0.0
0.0 0.0 0.0
0.0 0.0 0.0
0.0 0.0 0.0
0.0 0.0 0.0
0.0 0.0 0.0
0.0 0.0 0.0
0.0 0.0 0.0
0.0 0.0 0.0
0.0 0.0 0.0
0.0 0.0 0.0
0.0 0.0 0.0
0.0 0.0 0.0
0.0 0.0 0.0
0.0 0.0 0.0
0.0 0.0 0.0
0.0 0.0 0.0
0.0 0.0 0.0
0.0 0.0 0.0
0.0 0.0 0.0
0.0 0.0 0.0
0.0 0.0 0.0
0.0 0.0 0.0
0.0 0.0 0.0
0.0 0.0 0.0
0.0 0.0 0.0
0.0 0.0 0.0
0.0 0.0 0.0
0.0 0.0 0.0
0.0 0.0 0.0
0.0 0.0 0.0
0.0 0.0 0.0
0.0 0.0 0.0
0.0 0.0 0.0
0.0 0.0 0.0
0.0 0.0 0.0
0.0 0.0 0.0
0.0 0.0 0.0
0.0 0.0 0.0
0.0 0.0 0.0
0.0 0.0 0.0
0.0 0.0 0.0
0.0 0.0 0.0
0.0 0.0 0.0
0.0 0.0 0.0
0.0 0.0 0.0
0.0 0.0 0.0
0.0 0.0 0.0
0.0 0.0 0.0
0.0 0.0 0.0
0.0 0.0 0.0
0.0 0.0 0.0
0.0 0.0 0.0
0.0 0.0 0.0
0.0 0.0 0.0
0.0 0.0 0.0
0.0 0.0 0.0
0.0 0.0 0.0
0.0 0.0 0.0
0.0 0.0 0.0
0.0 0.0 0.0
0.0 0.0 0.0
0.0 0.0 0.0
0.0 0.0 0.0
0.0 0.0 0.0
0.0 0.0 0.0
0.0 0.0 0.0
0.0 0.0 0.0
0.0 0.0 0.0
0.0 0.0 0.0
0.0 0.0 0.0
0.0 0.0 0.0
0.0 0.0 0.0
0.0 0.0 0.0
0.0 0.0 0.0
0.0 0.0 0.0
0.0 0.0 0.0
0.0 0.0 0.0
0.0 0.0 0.0
0.0 0.0 0.0
0.0 0.0 0.0
0.0 0.0 0.0
0.0 0.0 0.0
0.0 0.0 0.0
0.0 0.0 0.0
0.0 0.0 0.0
0.0 0.0 0.0
0.0 0.0 0.0
0.0 0.0 0.0
0.0 0.0 0.0
VECTORS v float
0.251741 -0.450104 0.450988
1.53926 -0.00855243 0.03846
1.83717 0.00143152 0.124572
1.83522 0.1627 -0.161788
2.3722 -0.00886116 -0.0152249
2.41289 -0.034062 0.00191686
2.60441 0.0321422 -0.134626
2.25603 -0.0112403 0.0078396
1.94071 0.419403 -0.0441423
2.28508 -0.0963011 0.000249379
2.615 -0.395625 0.077575
1.82649 -0.266735 0.277941
2.11324 -0.294893 0.0830865
1.60472 -0.284123 -0.284384
2.40121 0.334154 -0.0311011
1.1553 -0.183128 0.649177
1.88466 -0.120139 -0.187339
1.67538 0.125758 0.162368
1.53392 -0.337956 -0.955063
2.26139 -0.0838418 -0.1044
1.82653 0.0653086 -0.349127
2.37527 0.0176964 -0.0209344
2.46607 0.263544 -0.00943568
2.42639 -0.326841 0.149459
2.54292 0.0134028 0.00354954
0.913195 -0.244537 -0.778631
1.00135 -0.400804 0.0698851
2.09565 -0.0986382 -0.575663
2.5859 0.315282 0.0632707
2.73151 0.0421895 0.117408
0.941485 0.13829 -0.299804
1.08104 -0.217181 -0.085603
2.00892 -0.138117 0.0432176
1.80795 -0.192562 -0.372127
1.19724 -0.329574 -0.225105
0.952778 0.171556 -0.120375
0.935236 -0.282987 -0.274639
1.97523 -0.0452988 -0.0780978
1.85609 0.0498597 0.00948311
2.31071 -0.117665 0.00108988
1.05692 -0.347649 -0.0226476
1.38771 -0.0907096 -0.409238
1.71852 -0.220914 -0.784081
2.0476 -0.176788 0.000600787
2.20077 0.0543032 0.000543917
1.87254 0.186805 -0.00579495
2.00283 0.0159984 0.00218351
0.569967 -0.00702671 -0.595489
0.86727 0.316998 -0.631033
1.72116 0.272483 0.142598
2.1977 -0.00990281 -0.00269344
2.10475 0.135718 -0.00969756
1.46701 0.290491 0.0571377
1.52131 0.265491 0.0188455
2.31765 0.0629052 -0.212037
2.58454 0.182856 -0.00802856
2.121 0.0593671 0.000314565
2.17656 -0.0894389 0.0266527
2.48437 0.146984 4.99941e-11