# vtk DataFile Version 2.0
Generated by lpp.py
ASCII
DATASET POLYDATA
POINTS 352 float
0.0495649 0.169198 1.59861
0.408362 0.175913 1.58789
0.472826 0.172175 1.59319
0.545789 0.178439 1.58662
0.606604 0.19313 1.57609
0.758313 0.187002 1.57634
0.906466 0.182578 1.57865
0.969187 0.185968 1.57702
1.0419 0.180344 1.58257
1.10107 0.191024 1.57709
1.23659 0.185629 1.57712
1.31424 0.177829 1.58504
0.328347 0.193205 1.57614
0.93265 0.233606 1.59181
1.1558 0.215898 1.58055
1.28003 0.226721 1.57687
0.179776 0.248555 1.5762
0.467502 0.235487 1.5773
0.553612 0.23821 1.57759
0.656313 0.242942 1.57873
0.793654 0.246272 1.57684
0.876274 0.240762 1.57576
0.992958 0.242051 1.57686
1.05756 0.242746 1.57686
1.20216 0.260305 1.57687
1.35578 0.234421 1.57686
0.288709 0.275322 1.57593
0.348265 0.282728 1.59045
0.407843 0.27079 1.58315
0.516168 0.300358 1.57646
0.574965 0.291796 1.59192
0.730252 0.291932 1.57716
0.839381 0.283551 1.59665
0.95578 0.298092 1.57687
1.25983 0.287135 1.57691
0.236897 0.309402 1.58059
0.444004 0.325983 1.57676
0.610242 0.337871 1.57789
0.663563 0.30461 1.57687
0.786457 0.310644 1.59145
0.134746 0.340802 1.58091
0.187044 0.370349 1.57744
0.280778 0.371038 1.57685
0.336743 0.348077 1.5778
0.747713 0.353984 1.57695
0.919479 0.350434 1.57686
0.228573 0.405819 1.59967
0.443499 0.385453 1.57925
0.579796 0.389163 1.5764
0.665 0.39531 1.576
0.98774 0.383135 1.57501
1.04457 0.396099 1.57731
1.18372 0.3741 1.58742
0.180631 0.44498 1.57932
0.411615 0.434321 1.57429
0.728474 0.410576 1.57766
0.871466 0.416138 1.57685
1.1477 0.422136 1.57685
0.280016 0.451223 1.5754
0.475732 0.477449 1.57688
0.733602 0.474084 1.57881
0.814454 0.461433 1.57851
0.923496 0.448094 1.57686
0.994299 0.462655 1.57632
1.42344 0.463347 1.57686
0.129168 0.484177 1.57978
0.371916 0.48359 1.57594
0.548468 0.500509 1.57579
0.669552 0.506877 1.57685
0.847693 0.512391 1.57935
0.0652767 0.552748 1.57694
0.142182 0.545227 1.57927
0.328078 0.526115 1.57444
0.92518 0.515543 1.58275
1.16849 0.538235 1.57696
1.31296 0.526376 1.57687
1.50326 0.52909 1.57686
0.229119 0.565954 1.57758
0.352101 0.584128 1.59148
0.457332 0.563528 1.57691
0.518844 0.569261 1.57981
0.637504 0.564964 1.57688
0.699838 0.567188 1.57681
0.881365 0.56229 1.57686
0.940663 0.581367 1.5923
1.01024 0.554388 1.57686
1.07576 0.574411 1.58496
1.23991 0.556558 1.57683
1.29132 0.582706 1.59296
1.35296 0.57474 1.58372
0.595264 0.142753 1.62019
0.0842715 0.217517 1.63572
0.191927 0.203252 1.61348
0.362005 0.222495 1.61408
0.30287 0.23021 1.61442
0.70896 0.243784 1.60727
0.0791515 0.296037 1.62139
0.897342 0.289854 1.6062
0.495514 0.361111 1.59767
0.633056 0.344961 1.63534
0.341423 0.411031 1.60541
0.404341 0.38085 1.62978
0.778811 0.395573 1.60965
0.622113 0.442278 1.59733
0.664515 0.412784 1.63241
0.309184 0.47076 1.62174
0.861903 0.466389 1.61483
0.213197 0.485328 1.60885
0.265558 0.512753 1.62581
0.353186 0.513704 1.62496
0.419646 0.50416 1.60266
0.469839 0.519367 1.62757
0.588881 0.508302 1.61798
0.749894 0.504727 1.63635
0.199961 0.542024 1.62425
0.79414 0.545161 1.59894
0.414241 0.596431 1.62065
0.602555 0.613261 1.62234
0.458667 0.0920615 1.6719
0.735693 0.103212 1.66328
0.426909 0.147294 1.64969
0.685463 0.126314 1.63643
0.971601 0.137269 1.63198
0.402876 0.225724 1.66501
0.458764 0.201419 1.64413
0.937043 0.224981 1.65836
0.177969 0.271331 1.64222
0.240148 0.270158 1.65057
0.462943 0.275112 1.63874
0.798676 0.29852 1.6491
0.217375 0.324844 1.63546
0.366644 0.318062 1.63582
0.302006 0.372707 1.63641
0.453504 0.338871 1.64255
0.139925 0.381277 1.6231
0.454674 0.405451 1.65239
0.585981 0.396711 1.6445
0.977821 0.394037 1.632
0.0776391 0.415757 1.62469
0.787513 0.44576 1.64392
0.156807 0.463149 1.63788
0.259492 0.441765 1.63207
0.408993 0.450332 1.62961
0.545758 0.460443 1.63882
0.525994 0.518509 1.64382
0.982714 0.50586 1.64781
0.676307 0.538784 1.66282
0.932304 0.548094 1.66007
0.656898 0.594884 1.63492
0.799942 0.618804 1.63371
0.809697 0.20618 1.68521
0.303536 0.271974 1.66349
0.274677 0.32386 1.66708
0.117997 0.334027 1.66467
0.380165 0.354731 1.67951
0.23148 0.379546 1.66166
0.520254 0.410131 1.67175
0.254046 0.469431 1.68777
0.336065 0.450079 1.66961
0.395722 0.47788 1.67873
0.617573 0.476179 1.67025
0.123891 0.50829 1.65857
0.508457 0.592929 1.6901
0.703099 0.645974 1.67363
0.816198 0.661827 1.67109
0.136955 0.241756 1.69238
0.478684 0.241454 1.68257
0.200862 0.295583 1.68685
0.352336 0.290052 1.7031
0.434087 0.351577 1.70519
0.18594 0.400862 1.7064
0.288982 0.398489 1.68956
0.417912 0.41889 1.69909
0.485548 0.450278 1.70637
0.302009 0.506095 1.70162
0.485376 0.385518 1.73071
0.106832 0.451129 1.73822
0.473517 0.305435 1.76306
0.323211 0.457255 1.78376
0.180109 0.517525 1.7805
0.136852 0.289242 1.81988
0.416409 0.288456 1.82291
0.195772 0.344168 1.79403
0.398493 0.508779 1.80862
0.211371 0.280829 1.85074
0.269256 0.359202 1.83631
0.218921 0.397847 1.83686
0.349719 0.399621 1.85169
0.428381 0.4467 1.82832
0.245914 0.511668 1.84902
0.466202 0.49757 1.84327
0.260718 0.244031 1.88164
0.305852 0.287522 1.87334
0.499385 0.279499 1.88507
0.373442 0.329195 1.88816
0.102791 0.340368 1.88914
0.485374 0.358108 1.86484
0.422187 0.378047 1.87172
0.169637 0.459874 1.86708
0.103225 0.518985 1.87306
0.346739 0.243699 1.92901
0.411604 0.238101 1.91994
0.108104 0.281799 1.93417
0.478405 0.411198 1.93172
0.174537 0.231131 1.93561
0.469838 0.243492 1.96373
0.157239 0.333515 1.93878
0.189941 0.428545 1.96599
0.267329 0.456169 1.96675
0.370548 0.454286 1.93551
0.43276 0.446836 1.96544
0.209404 0.487055 1.94398
0.341446 0.508108 1.95847
0.283642 0.234209 1.99052
0.225054 0.287898 2.00025
0.268169 0.352895 1.99054
0.478946 0.338932 1.9915
0.121741 0.410905 1.9843
0.496878 0.474265 1.99192
0.122063 0.498448 1.98268
0.429885 0.51089 1.97875
0.222298 0.231508 2.03914
0.144959 0.253084 2.01627
0.353756 0.288308 2.01903
0.419349 0.297497 2.03036
0.107864 0.308056 2.03281
0.216531 0.381594 2.03577
0.33513 0.393755 2.01357
0.434422 0.399982 2.02779
0.177321 0.473873 2.03123
0.3755 0.471214 2.02689
0.287754 0.512498 2.01719
0.482317 0.228242 2.06854
0.386528 0.235346 2.06474
0.17305 0.29572 2.06163
0.280967 0.269166 2.06746
0.32031 0.335135 2.0467
0.470734 0.315695 2.07592
0.142292 0.405308 2.07272
0.289149 0.393948 2.06364
0.10269 0.478868 2.07007
0.265427 0.473439 2.06144
0.487332 0.44601 2.06319
0.230707 0.52291 2.05918
0.100828 0.246005 2.08484
0.227735 0.245208 2.11361
0.334084 0.267131 2.09623
0.283481 0.328862 2.11466
0.383935 0.304407 2.10118
0.104364 0.371175 2.10875
0.189473 0.369831 2.10465
0.383297 0.361785 2.08306
0.433942 0.344323 2.11524
0.495324 0.379459 2.08665
0.124882 0.444445 2.11537
0.238696 0.425254 2.09413
0.338206 0.47604 2.08542
0.405771 0.451899 2.08402
0.477819 0.52568 2.081
0.307197 0.231054 2.14934
0.410316 0.229607 2.12717
0.479511 0.263195 2.1225
0.488965 0.329122 2.14107
0.26384 0.382845 2.15039
0.292698 0.428673 2.12157
0.367427 0.412219 2.11779
0.436973 0.45447 2.1386
0.498994 0.449521 2.13904
0.197767 0.505506 2.14969
0.387806 0.497135 2.12601
0.10683 0.52412 2.13027
0.498691 0.522189 2.14147
0.112238 0.243444 2.15138
0.498503 0.253983 2.18572
0.196779 0.286134 2.16798
0.338106 0.302046 2.15158
0.144627 0.329159 2.15743
0.322732 0.35929 2.18017
0.388723 0.350133 2.16272
0.179678 0.383211 2.17608
0.404531 0.416433 2.17679
0.180002 0.445959 2.17427
0.336562 0.447813 2.1653
0.133145 0.50156 2.1851
0.316599 0.507618 2.16974
0.4192 0.521596 2.17807
0.299287 0.247375 2.20679
0.442411 0.236129 2.20895
0.126939 0.284236 2.21643
0.432796 0.302258 2.19979
0.187834 0.32549 2.22014
0.345572 0.308923 2.21327
0.476186 0.343657 2.20982
0.499396 0.409304 2.20395
0.230608 0.478968 2.19273
0.383426 0.485675 2.2155
0.196226 0.26238 2.23567
0.356376 0.254196 2.2377
0.256147 0.321804 2.23011
0.110703 0.374435 2.23211
0.415762 0.389621 2.23827
0.214879 0.429082 2.24971
0.282511 0.427246 2.22226
0.107302 0.455042 2.23596
0.180798 0.510604 2.22163
0.49838 0.508374 2.24212
0.271982 0.260644 2.2708
0.321856 0.294278 2.26913
0.44222 0.295647 2.26067
0.125428 0.344451 2.28441
0.346145 0.350757 2.26426
0.415188 0.353574 2.28906
0.282424 0.374546 2.27858
0.475094 0.383761 2.25966
0.323589 0.424937 2.2871
0.466199 0.451954 2.26462
0.104255 0.515661 2.27241
0.236464 0.494005 2.26237
0.430217 0.500721 2.26499
0.339305 0.526873 2.25754
0.103324 0.228818 2.29871
0.161403 0.258279 2.29827
0.363615 0.240431 2.30399
0.425069 0.242959 2.30512
0.499192 0.246026 2.30267
0.189012 0.364304 2.29306
0.31493 0.348737 2.32385
0.115455 0.44409 2.2945
0.40415 0.414672 2.30454
0.158807 0.499296 2.31065
0.370433 0.49856 2.30148
0.264146 0.523422 2.30795
0.220666 0.238837 2.34734
0.17717 0.298235 2.3592
0.257372 0.298287 2.33437
0.314466 0.284399 2.35272
0.492483 0.279077 2.3544
0.417494 0.317622 2.35147
0.484684 0.362834 2.33124
0.125062 0.39201 2.33589
0.217234 0.387064 2.34563
0.449749 0.403068 2.35884
0.263093 0.452487 2.35205
0.417911 0.469013 2.34692
0.486571 0.452792 2.35556
0.220758 0.508511 2.35861
0.312076 0.491969 2.3576
0.393674 0.233628 2.36132
0.107591 0.339963 2.36367
0.385775 0.387923 2.36657
0.139724 0.459766 2.36164
0.490194 0.521396 2.36111
VERTICES 352 704
1 0
1 1
1 2
1 3
1 4
1 5
1 6
1 7
1 8
1 9
1 10
1 11
1 12
1 13
1 14
1 15
1 16
1 17
1 18
1 19
1 20
1 21
1 22
1 23
1 24
1 25
1 26
1 27
1 28
1 29
1 30
1 31
1 32
1 33
1 34
1 35
1 36
1 37
1 38
1 39
1 40
1 41
1 42
1 43
1 44
1 45
1 46
1 47
1 48
1 49
1 50
1 51
1 52
1 53
1 54
1 55
1 56
1 57
1 58
1 59
1 60
1 61
1 62
1 63
1 64
1 65
1 66
1 67
1 68
1 69
1 70
1 71
1 72
1 73
1 74
1 75
1 76
1 77
1 78
1 79
1 80
1 81
1 82
1 83
1 84
1 85
1 86
1 87
1 88
1 89
1 90
1 91
1 92
1 93
1 94
1 95
1 96
1 97
1 98
1 99
1 100
1 101
1 102
1 103
1 104
1 105
1 106
1 107
1 108
1 109
1 110
1 111
1 112
1 113
1 114
1 115
1 116
1 117
1 118
1 119
1 120
1 121
1 122
1 123
1 124
1 125
1 126
1 127
1 128
1 129
1 130
1 131
1 132
1 133
1 134
1 135
1 136
1 137
1 138
1 139
1 140
1 141
1 142
1 143
1 144
1 145
1 146
1 147
1 148
1 149
1 150
1 151
1 152
1 153
1 154
1 155
1 156
1 157
1 158
1 159
1 160
1 161
1 162
1 163
1 164
1 165
1 166
1 167
1 168
1 169
1 170
1 171
1 172
1 173
1 174
1 175
1 176
1 177
1 178
1 179
1 180
1 181
1 182
1 183
1 184
1 185
1 186
1 187
1 188
1 189
1 190
1 191
1 192
1 193
1 194
1 195
1 196
1 197
1 198
1 199
1 200
1 201
1 202
1 203
1 204
1 205
1 206
1 207
1 208
1 209
1 210
1 211
1 212
1 213
1 214
1 215
1 216
1 217
1 218
1 219
1 220
1 221
1 222
1 223
1 224
1 225
1 226
1 227
1 228
1 229
1 230
1 231
1 232
1 233
1 234
1 235
1 236
1 237
1 238
1 239
1 240
1 241
1 242
1 243
1 244
1 245
1 246
1 247
1 248
1 249
1 250
1 251
1 252
1 253
1 254
1 255
1 256
1 257
1 258
1 259
1 260
1 261
1 262
1 263
1 264
1 265
1 266
1 267
1 268
1 269
1 270
1 271
1 272
1 273
1 274
1 275
1 276
1 277
1 278
1 279
1 280
1 281
1 282
1 283
1 284
1 285
1 286
1 287
1 288
1 289
1 290
1 291
1 292
1 293
1 294
1 295
1 296
1 297
1 298
1 299
1 300
1 301
1 302
1 303
1 304
1 305
1 306
1 307
1 308
1 309
1 310
1 311
1 312
1 313
1 314
1 315
1 316
1 317
1 318
1 319
1 320
1 321
1 322
1 323
1 324
1 325
1 326
1 327
1 328
1 329
1 330
1 331
1 332
1 333
1 334
1 335
1 336
1 337
1 338
1 339
1 340
1 341
1 342
1 343
1 344
1 345
1 346
1 347
1 348
1 349
1 350
1 351
POINT_DATA 352
VECTORS i float
0.0 0.0 0.0
0.0 0.0 0.0
0.0 0.0 0.0
0.0 0.0 0.0
0.0 0.0 0.0
0.0 0.0 0.0
0.0 0.0 0.0
0.0 0.0 0.0
0.0 0.0 0.0
0.0 0.0 0.0
0.0 0.0 0.0
0.0 0.0 0.0
0.0 0.0 0.0
0.0 0.0 0.0
0.0 0.0 0.0
0.0 0.0 0.0
0.0 0.0 0.0
0.0 0.0 0.0
0.0 0.0 0.0
0.0 0.0 0.0
0.0 0.0 0.0
0.0 0.0 0.0
0.0 0.0 0.0
0.0 0.0 0.0
0.0 0.0 0.0
0.0 0.0 0.0
0.0 0.0 0.0
0.0 0.0 0.0
0.0 0.0 0.0
0.0 0.0 0.0
0.0 0.0 0.0
0.0 0.0 0.0
0.0 0.0 0.0
0.0 0.0 0.0
0.0 0.0 0.0
0.0 0.0 0.0
0.0 0.0 0.0
0.0 0.0 0.0
0.0 0.0 0.0
0.0 0.0 0.0
0.0 0.0 0.0
0.0 0.0 0.0
0.0 0.0 0.0
0.0 0.0 0.0
0.0 0.0 0.0
0.0 0.0 0.0
0.0 0.0 0.0
0.0 0.0 0.0
0.0 0.0 0.0
0.0 0.0 0.0
0.0 0.0 0.0
0.0 0.0 0.0
0.0 0.0 0.0
0.0 0.0 0.0
0.0 0.0 0.0
0.0 0.0 0.0
0.0 0.0 0.0
0.0 0.0 0.0
0.0 0.0 0.0
0.0 0.0 0.0
0.0 0.0 0.0
0.0 0.0 0.0
0.0 0.0 0.0
0.0 0.0 0.0
0.0 0.0 0.0
0.0 0.0 0.0
0.0 0.0 0.0
0.0 0.0 0.0
0.0 0.0 0.0
0.0 0.0 0.0
0.0 0.0 0.0
0.0 0.0 0.0
0.0 0.0 0.0
0.0 0.0 0.0
0.0 0.0 0.0
0.0 0.0 0.0
0.0 0.0 0.0
0.0 0.0 0.0
0.0 0.0 0.0
0.0 0.0 0.0
0.0 0.0 0.0
0.0 0.0 0.0
0.0 0.0 0.0
0.0 0.0 0.0
0.0 0.0 0.0
0.0 0.0 0.0
0.0 0.0 0.0
0.0 0.0 0.0
0.0 0.0 0.0
0.0 0.0 0.0
0.0 0.0 0.0
0.0 0.0 0.0
0.0 0.0 0.0
0.0 0.0 0.0
0.0 0.0 0.0
0.0 0.0 0.0
0.0 0.0 0.0
0.0 0.0 0.0
0.0 0.0 0.0
0.0 0.0 0.0
0.0 0.0 0.0
0.0 0.0 0.0
0.0 0.0 0.0
0.0 0.0 0.0
0.0 0.0 0.0
0.0 0.0 0.0
0.0 0.0 0.0
0.0 0.0 0.0
0.0 0.0 0.0
0.0 0.0 0.0
0.0 0.0 0.0
0.0 0.0 0.0
0.0 0.0 0.0
0.0 0.0 0.0
0.0 0.0 0.0
0.0 0.0 0.0
0.0 0.0 0.0
0.0 0.0 0.0
0.0 0.0 0.0
0.0 0.0 0.0
0.0 0.0 0.0
0.0 0.0 0.0
0.0 0.0 0.0
0.0 0.0 0.0
0.0 0.0 0.0
0.0 0.0 0.0
0.0 0.0 0.0
0.0 0.0 0.0
0.0 0.0 0.0
0.0 0.0 0.0
0.0 0.0 0.0
0.0 0.0 0.0
0.0 0.0 0.0
0.0 0.0 0.0
0.0 0.0 0.0
0.0 0.0 0.0
0.0 0.0 0.0
0.0 0.0 0.0
0.0 0.0 0.0
0.0 0.0 0.0
0.0 0.0 0.0
0.0 0.0 0.0
0.0 0.0 0.0
0.0 0.0 0.0
0.0 0.0 0.0
0.0 0.0 0.0
0.0 0.0 0.0
0.0 0.0 0.0
0.0 0.0 0.0
0.0 0.0 0.0
0.0 0.0 0.0
0.0 0.0 0.0
0.0 0.0 0.0
0.0 0.0 0.0
0.0 0.0 0.0
0.0 0.0 0.0
0.0 0.0 0.0
0.0 0.0 0.0
0.0 0.0 0.0
0.0 0.0 0.0
0.0 0.0 0.0
0.0 0.0 0.0
0.0 0.0 0.0
0.0 0.0 0.0
0.0 0.0 0.0
0.0 0.0 0.0
0.0 0.0 0.0
0.0 0.0 0.0
0.0 0.0 0.0
0.0 0.0 0.0
0.0 0.0 0.0
0.0 0.0 0.0
0.0 0.0 0.0
0.0 0.0 0.0
0.0 0.0 0.0
0.0 0.0 0.0
0.0 0.0 0.0
0.0 0.0 0.0
0.0 0.0 0.0
0.0 0.0 0.0
0.0 0.0 0.0
0.0 0.0 0.0
0.0 0.0 0.0
0.0 0.0 0.0
0.0 0.0 0.0
0.0 0.0 0.0
0.0 0.0 0.0
0.0 0.0 0.0
0.0 0.0 0.0
0.0 0.0 0.0
0.0 0.0 0.0
0.0 0.0 0.0
0.0 0.0 0.0
0.0 0.0 0.0
0.0 0.0 0.0
0.0 0.0 0.0
0.0 0.0 0.0
0.0 0.0 0.0
0.0 0.0 0.0
0.0 0.0 0.0
0.0 0.0 0.0
0.0 0.0 0.0
0.0 0.0 0.0
0.0 0.0 0.0
0.0 0.0 0.0
0.0 0.0 0.0
0.0 0.0 0.0
0.0 0.0 0.0
0.0 0.0 0.0
0.0 0.0 0.0
0.0 0.0 0.0
0.0 0.0 0.0
0.0 0.0 0.0
0.0 0.0 0.0
0.0 0.0 0.0
0.0 0.0 0.0
0.0 0.0 0.0
0.0 0.0 0.0
0.0 0.0 0.0
0.0 0.0 0.0
0.0 0.0 0.0
0.0 0.0 0.0
0.0 0.0 0.0
0.0 0.0 0.0
0.0 0.0 0.0
0.0 0.0 0.0
0.0 0.0 0.0
0.0 0.0 0.0
0.0 0.0 0.0
0.0 0.0 0.0
0.0 0.0 0.0
0.0 0.0 0.0
0.0 0.0 0.0
0.0 0.0 0.0
0.0 0.0 0.0
0.0 0.0 0.0
0.0 0.0 0.0
0.0 0.0 0.0
0.0 0.0 0.0
0.0 0.0 0.0
0.0 0.0 0.0
0.0 0.0 0.0
0.0 0.0 0.0
0.0 0.0 0.0
0.0 0.0 0.0
0.0 0.0 0.0
0.0 0.0 0.0
0.0 0.0 0.0
0.0 0.0 0.0
0.0 0.0 0.0
0.0 0.0 0.0
0.0 0.0 0.0
0.0 0.0 0.0
0.0 0.0 0.0
0.0 0.0 0.0
0.0 0.0 0.0
0.0 0.0 0.0
0.0 0.0 0.0
0.0 0.0 0.0
0.0 0.0 0.0
0.0 0.0 0.0
0.0 0.0 0.0
0.0 0.0 0.0
0.0 0.0 0.0
0.0 0.0 0.0
0.0 0.0 0.0
0.0 0.0 0.0
0.0 0.0 0.0
0.0 0.0 0.0
0.0 0.0 0.0
0.0 0.0 0.0
0.0 0.0 0.0
0.0 0.0 0.0
0.0 0.0 0.0
0.0 0.0 0.0
0.0 0.0 0.0
0.0 0.0 0.0
0.0 0.0 0.0
0.0 0.0 0.0
0.0 0.0 0.0
0.0 0.0 0.0
0.0 0.0 0.0
0.0 0.0 0.0
0.0 0.0 0.0
0.0 0.0 0.0
0.0 0.0 0.0
0.0 0.0 0.0
0.0 0.0 0.0
0.0 0.0 0.0
0.0 0.0 0.0
0.0 0.0 0.0
0.0 0.0 0.0
0.0 0.0 0.0
0.0 0.0 0.0
0.0 0.0 0.0
0.0 0.0 0.0
0.0 0.0 0.0
0.0 0.0 0.0
0.0 0.0 0.0
0.0 0.0 0.0
0.0 0.0 0.0
0.0 0.0 0.0
0.0 0.0 0.0
0.0 0.0 0.0
0.0 0.0 0.0
0.0 0.0 0.0
0.0 0.0 0.0
0.0 0.0 0.0
0.0 0.0 0.0
0.0 0.0 0.0
0.0 0.0 0.0
0.0 0.0 0.0
0.0 0.0 0.0
0.0 0.0 0.0
0.0 0.0 0.0
0.0 0.0 0.0
0.0 0.0 0.0
0.0 0.0 0.0
0.0 0.0 0.0
0.0 0.0 0.0
0.0 0.0 0.0
0.0 0.0 0.0
0.0 0.0 0.0
0.0 0.0 0.0
0.0 0.0 0.0
0.0 0.0 0.0
0.0 0.0 0.0
0.0 0.0 0.0
0.0 0.0 0.0
0.0 0.0 0.0
0.0 0.0 0.0
0.0 0.0 0.0
0.0 0.0 0.0
0.0 0.0 0.0
0.0 0.0 0.0
0.0 0.0 0.0
0.0 0.0 0.0
0.0 0.0 0.0
0.0 0.0 0.0
0.0 0.0 0.0
0.0 0.0 0.0
0.0 0.0 0.0
0.0 0.0 0.0
0.0 0.0 0.0
0.0 0.0 0.0
0.0 0.0 0.0
0.0 0.0 0.0
0.0 0.0 0.0
0.0 0.0 0.0
0.0 0.0 0.0
0.0 0.0 0.0
0.0 0.0 0.0
VECTORS f float
0.0 0.0 -2.77371
0.0 0.0 -2.77371
0.0 0.0 -2.77371
0.0 0.0 -2.77371
4.78041 5.20676 11.3631
-1.51878 2.06103 18.5809
1.46668 8.03625 19.3285
0.377729 0.463761 -1.0083
0.916001 1.32975 -1.50932
0.947268 0.362676 -3.73793
0.947959 1.62494 -0.484521
-0.0329594 1.43974 -0.810336
-2.86302 -1.39996 -5.77453
17.2847 9.82978 12.3111
0.0 0.0 -2.77371
4.21987 -2.37729 7.64617
6.64316 -10.6512 20.5588
0.0 0.0 -2.77371
-1.98069 -4.64544 -1.64717
5.39804 -0.101352 0.0546404
0.869453 1.42734 0.568892
-0.771307 7.68191 13.3484
-0.00238118 0.000378912 0.031798
-0.000270389 -0.00879715 0.0483502
-0.00391022 0.000905395 -0.149809
0.000512515 -4.70891e-06 0.00727705
19.7864 2.94768 37.2359
0.0 0.0 -2.77371
0.0 0.0 -2.77371
4.20163 -1.33227 6.04187
1.38639 3.75027 -4.14219
0.0 0.0 -2.77371
-4.85546 -5.68939 -2.34904
0.0101158 -0.00225232 0.0649127
-0.0672605 0.0611689 -0.753406
0.0 0.0 -2.77371
-0.197544 -7.42821 -3.42174
1.06422 -0.5211 -1.8305
0.000243884 0.000529048 -0.090312
-4.63478 2.12844 -0.0253284
11.648 -20.4821 -47.8941
-21.7853 -25.4927 -15.5488
1.27779 -0.756392 0.196046
0.0 0.0 -2.77371
-0.000673746 -1.45259 -2.22331
0.000149632 1.04224e-05 -0.000349072
-10.2986 -17.3558 -27.2478
15.9876 -15.4847 22.5476
2.37536 -4.46779 9.59678
1.18282 1.88174 15.8609
-13.8439 -1.04687 20.6702
41.3687 9.92399 20.6331
0.0 0.0 -2.77371
-0.0094478 -0.0495379 -2.79355
1.43848 -2.1848 37.5349
-0.153262 1.30318 -3.33476
0.00538464 -1.82742e-07 0.251561
-0.00510016 0.000762147 0.0712276
5.26673 2.39806 4.66558
1.16747 0.431158 -0.284626
0.0 0.0 -2.77371
2.61681 0.155245 -1.16597
0.000116694 -3.67408e-06 0.00497822
0.0329498 0.144244 8.73021
1.25125e-11 -9.0538e-13 -2.34672e-10
0.0 0.0 -2.77371
-11.4986 -3.8812 -15.0553
-1.98482 -0.214294 7.57668
0.0155493 -0.00158725 0.472864
0.544972 -0.463674 -1.96406
-0.0890968 0.00259075 -1.53381
0.0 0.0 -2.77371
78.2121 -19.3422 123.425
0.0 0.0 -2.77371
0.045017 -0.0198604 -0.777455
0.00229162 0.00280141 0.00249855
-2.39723e-12 7.55996e-14 -2.68274e-12
0.0 0.0 -2.77371
5.97955 -7.67583 6.95391
-1.23411 -0.0752584 -5.84846
0.0 0.0 -2.77371
0.00815375 -1.58035e-05 -0.214251
-1.9291 -0.113805 1.09119
-0.00040218 0.000503149 -0.0875131
0.0 0.0 -2.77371
0.000720602 7.33437e-05 0.00159955
0.0 0.0 -2.77371
0.797292 0.193447 0.171703
1.0766 0.576085 -1.66763
0.132257 -2.62171 1.41506
-0.0800778 0.58149 -1.47237
0.0 0.0 -2.77371
-0.433355 0.919499 -3.01792
17.171 7.52231 35.8197
-1.40759 8.53892 1.79276
-5.39804 0.101352 -5.60206
0.0 0.0 -2.77371
9.78081 3.43763 -5.32601
0.0 0.0 -2.77371
0.0 0.0 -2.77371
0.0 0.0 -2.77371
0.0 0.0 -2.77371
0.0 0.0 -2.77371
0.0 0.0 -2.77371
0.111476 0.903006 9.1473
41.309 22.1601 -11.7963
-3.16178 0.308428 -5.19111
0.0094478 0.0495379 -2.75387
0.0 0.0 -2.77371
-6.9362 -3.01716 45.6209
-30.3284 -5.48401 2.66394
21.1641 12.7932 6.66426
3.42842 0.607903 8.11902
0.0 0.0 -2.77371
0.0 0.0 -2.77371
0.0 0.0 -2.77371
0.0 0.0 -2.77371
-35.4962 34.8959 -9.29522
0.0 0.0 -2.77371
0.0 0.0 -2.77371
0.0 0.0 -2.77371
0.784055 0.976831 -1.38449
0.0 0.0 -2.77371
0.0 0.0 -2.77371
-35.2751 -20.4525 -63.117
0.0 0.0 -2.77371
-55.9105 -49.2099 -104.313
20.4029 -19.0413 -9.11356
-23.7674 16.7099 -96.813
0.0 0.0 -2.77371
0.0 0.0 -2.77371
3.79088 -19.9935 -16.8827
0.0 0.0 -2.77371
0.0 0.0 -2.77371
-11.648 20.4821 42.3467
0.0 0.0 -2.77371
0.0 0.0 -2.77371
-1.79811 -0.0260139 9.76607
0.0 0.0 -2.77371
0.0 0.0 -2.77371
-2.16412 5.4388 1.80076
-11.122 27.0408 66.7783
6.08382 -8.61049 10.4642
0.0 0.0 -2.77371
26.0438 0.12886 7.53277
0.0 0.0 -2.77371
0.0 0.0 -2.77371
0.0 0.0 -2.77371
46.6419 -41.2326 9.52153
-7.97515 -5.60634 -10.4402
0.0 0.0 -2.77371
-2.13885 3.82899 -3.33187
2.13885 -3.82899 -2.21556
0.0 0.0 -2.77371
-18.4553 29.2656 1.90842
0.0 0.0 -2.77371
0.0 0.0 -2.77371
0.0 0.0 -2.77371
5.31294 -2.5513 0.134969
-12.4341 25.9989 43.5197
0.0 0.0 -2.77371
2.16412 -5.4388 -7.34818
0.0 0.0 -2.77371
0.0 0.0 -2.77371
7.94486 5.49961 5.20408
0.0 0.0 -2.77371
59.0425 3.7426 151.609
35.5076 68.2511 105.105
0.0 0.0 -2.77371
14.6644 -9.27217 6.65311
0.0 0.0 -2.77371
0.0 0.0 -2.77371
0.0 0.0 -2.77371
0.0 0.0 -2.77371
0.0 0.0 -2.77371
0.0 0.0 -2.77371
0.0 0.0 -2.77371
0.0 0.0 -2.77371
0.0 0.0 -2.77371
0.0 0.0 -2.77371
0.0 0.0 -2.77371
0.0 0.0 -2.77371
0.0 0.0 -2.77371
0.0 0.0 -2.77371
0.0 0.0 -2.77371
0.0 0.0 -2.77371
0.0 0.0 -2.77371
0.0 0.0 -2.77371
0.0 0.0 -2.77371
0.0 0.0 -2.77371
0.0 0.0 -2.77371
0.0 0.0 -2.77371
0.0 0.0 -2.77371
0.0 0.0 -2.77371
0.0 0.0 -2.77371
0.0 0.0 -2.77371
0.0 0.0 -2.77371
0.0 0.0 -2.77371
0.0 0.0 -2.77371
0.0 0.0 -2.77371
0.0 0.0 -2.77371
0.0 0.0 -2.77371
0.0 0.0 -2.77371
0.0 0.0 -2.77371
0.0 0.0 -2.77371
0.0 0.0 -2.77371
0.0 0.0 -2.77371
0.0 0.0 -2.77371
0.0 0.0 -2.77371
0.0 0.0 -2.77371
0.0 0.0 -2.77371
0.0 0.0 -2.77371
0.0 0.0 -2.77371
0.0 0.0 -2.77371
0.0 0.0 -2.77371
0.0 0.0 -2.77371
0.0 0.0 -2.77371
0.0 0.0 -2.77371
0.0 0.0 -2.77371
0.0 0.0 -2.77371
0.0 0.0 -2.77371
0.0 0.0 -2.77371
0.0 0.0 -2.77371
0.0 0.0 -2.77371
0.0 0.0 -2.77371
0.0 0.0 -2.77371
0.0 0.0 -2.77371
0.0 0.0 -2.77371
0.0 0.0 -2.77371
0.0 0.0 -2.77371
0.0 0.0 -2.77371
0.0 0.0 -2.77371
0.0 0.0 0.0
0.0 0.0 0.0
0.0 0.0 0.0
0.0 0.0 0.0
0.0 0.0 -2.77371
0.0 0.0 0.0
0.0 0.0 0.0
0.0 0.0 0.0
0.0 0.0 0.0
0.0 0.0 0.0
0.0 0.0 0.0
0.0 0.0 0.0
0.0 0.0 0.0
0.0 0.0 0.0
0.0 0.0 0.0
0.0 0.0 0.0
0.0 0.0 0.0
0.0 0.0 0.0
0.0 0.0 0.0
0.0 0.0 0.0
0.0 0.0 0.0
0.0 0.0 0.0
0.0 0.0 0.0
0.0 0.0 0.0
0.0 0.0 0.0
0.0 0.0 0.0
0.0 0.0 0.0
0.0 0.0 0.0
0.0 0.0 0.0
0.0 0.0 0.0
0.0 0.0 0.0
0.0 0.0 0.0
0.0 0.0 0.0
0.0 0.0 0.0
0.0 0.0 0.0
0.0 0.0 0.0
0.0 0.0 0.0
0.0 0.0 0.0
0.0 0.0 0.0
0.0 0.0 0.0
0.0 0.0 0.0
0.0 0.0 0.0
0.0 0.0 0.0
0.0 0.0 0.0
0.0 0.0 0.0
0.0 0.0 0.0
0.0 0.0 0.0
0.0 0.0 0.0
0.0 0.0 0.0
0.0 0.0 0.0
0.0 0.0 0.0
0.0 0.0 0.0
0.0 0.0 0.0
0.0 0.0 0.0
0.0 0.0 0.0
0.0 0.0 0.0
0.0 0.0 0.0
0.0 0.0 0.0
0.0 0.0 0.0
0.0 0.0 0.0
0.0 0.0 0.0
0.0 0.0 0.0
0.0 0.0 0.0
0.0 0.0 0.0
0.0 0.0 0.0
0.0 0.0 0.0
0.0 0.0 0.0
0.0 0.0 0.0
0.0 0.0 0.0
0.0 0.0 0.0
0.0 0.0 0.0
0.0 0.0 0.0
0.0 0.0 0.0
0.0 0.0 0.0
0.0 0.0 0.0
0.0 0.0 0.0
0.0 0.0 0.0
0.0 0.0 0.0
0.0 0.0 0.0
0.0 0.0 0.0
0.0 0.0 0.0
0.0 0.0 0.0
0.0 0.0 0.0
0.0 0.0 0.0
0.0 0.0 0.0
0.0 0.0 0.0
0.0 0.0 0.0
0.0 0.0 0.0
0.0 0.0 0.0
0.0 0.0 0.0
0.0 0.0 0.0
0.0 0.0 0.0
0.0 0.0 0.0
0.0 0.0 0.0
0.0 0.0 0.0
0.0 0.0 0.0
0.0 0.0 0.0
0.0 0.0 0.0
0.0 0.0 0.0
0.0 0.0 0.0
0.0 0.0 0.0
0.0 0.0 0.0
0.0 0.0 0.0
0.0 0.0 0.0
0.0 0.0 0.0
0.0 0.0 0.0
0.0 0.0 0.0
0.0 0.0 0.0
0.0 0.0 0.0
0.0 0.0 0.0
0.0 0.0 0.0
0.0 0.0 0.0
0.0 0.0 0.0
0.0 0.0 0.0
0.0 0.0 0.0
0.0 0.0 0.0
0.0 0.0 0.0
0.0 0.0 0.0
0.0 0.0 0.0
0.0 0.0 0.0
VECTORS omega float
7.04825 -123.856 48.9089
29.1388 -69.6252 21.5204
6.4 -32.2122 37.8844
0.563055 -79.9263 31.3481
-18.1926 -53.2563 7.08877
-10.1415 -73.2291 27.2201
-7.16209 -69.6044 7.70748
0.946061 -50.348 15.7271
-10.4365 20.7899 16.6292
-7.54528 -45.2516 1.57525
1.88791 -60.1769 3.03795
4.69443 -54.7968 8.65474
19.8492 -69.7305 -24.6644
-30.2273 22.7858 -13.0907
-22.3713 -43.7117 12.1664
26.9101 -34.2053 0.0855515
9.07068 -96.2717 2.40521
-6.65154 -76.7353 -25.195
-7.54358 -70.7514 -9.92597
2.17968 -50.1621 1.79974
1.15167 -51.7175 0.695015
-5.38581 -23.5717 2.03757
0.248649 -51.0186 2.16681
-10.4542 -53.3975 -3.59968
-9.45103 -50.7551 -22.7994
-0.448585 -48.7674 4.2775
5.91048 -80.7983 13.2564
5.25957 52.2731 -14.7994
-2.73291 -8.17907 17.3319
14.6414 -61.9661 4.92987
-22.7152 34.0304 0.156331
6.33415 -59.6945 4.42674
-15.9783 6.44519 -7.77118
-10.5617 -47.3777 5.26014
2.0606 -38.814 -11.5392
17.0293 -104.544 0.708968
1.12617 -89.5846 -2.14746
15.9968 -62.003 -10.2343
4.81169 -66.2612 3.15132
-0.244782 51.6934 8.40026
-0.297342 -88.5164 -3.31117
1.13638 -92.2954 -0.132264
2.81747 -90.5804 -9.5188
13.2449 -90.4612 25.4303
5.28693 -61.5707 -2.09259
3.9383 -56.5415 -7.19384
9.99469 102.346 12.5842
-4.7485 50.2862 -0.489032
11.4732 -57.5605 -4.36715
8.4172 -54.2859 -4.22257
-3.59134 -43.351 5.89086
-4.92369 -47.4019 -2.60465
-22.106 2.68644 -1.68449
-9.25136 -110.392 -17.0774
4.29278 -73.6282 -14.3049
1.17736 -68.4916 -15.546
0.28685 -60.2886 -7.09483
-4.73233 -63.3312 2.64099
-10.7597 -102.836 13.597
-11.3749 -76.0387 3.87984
-1.36294 -56.9263 14.5569
-21.0838 -38.5277 -1.46354
-1.98702 -62.8876 -10.1731
3.11786 -61.6394 -12.6879
-4.91954 -50.7279 2.52464
28.9429 28.469 -1.7532
4.50879 -95.7544 -6.17507
-5.11982 -71.6838 -5.98226
-5.06521 -48.7861 10.9756
-6.41621 -47.871 -0.272862
-5.72857 -125.156 -5.60855
-16.4545 18.6207 -15.2694
-12.3198 -82.6051 11.5972
14.7696 -45.1591 15.8433
-26.6679 -59.5158 -14.5382
3.2613 -33.1218 3.61123
-1.81727 -43.4917 1.90422
-18.941 -72.3788 21.5985
-23.3457 -42.3483 -53.734
5.45472 -69.1432 -21.8505
-10.1051 -65.8381 15.6306
-0.297243 -61.4016 -37.7919
3.35949 -78.6082 -8.86976
5.22986 -52.2765 -32.408
2.72379 -58.4917 -15.0637
5.52542 -54.2919 -16.0757
6.6068 -34.4384 -27.0091
0.745544 -22.9631 22.3491
-5.48064 -16.0934 -22.8323
-4.65153 -48.8582 -6.87961
2.40317 -66.0757 43.4114
-14.0046 101.355 -34.2314
11.4057 29.4626 -13.1835
-58.4529 -5.34548 -5.45254
-27.7718 -6.00266 29.2815
-8.2789 48.2625 -15.7039
-29.4146 19.6721 -8.67116
10.6629 12.2666 6.92451
-3.24739 8.69457 -18.1196
-9.4086 55.4798 0.191282
-41.5805 68.0811 -20.1277
27.2399 -40.869 -15.8524
10.7513 62.0774 22.2106
12.5608 5.35509 -18.1428
-15.8301 18.6816 8.79956
-5.02924 65.4464 -15.6564
17.4433 31.1433 1.24696
-33.3837 67.0947 -3.64775
31.2663 0.371614 -3.49253
23.4436 8.93439 2.11246
-19.8373 63.2492 2.96603
0.404366 -23.8579 16.8357
-6.2797 61.5131 -9.97643
-18.169 36.0834 -15.5665
-19.9764 -30.0946 23.8566
1.15333 33.4946 17.3739
5.44993 -92.328 -42.8997
-0.213566 -51.4232 -29.1098
11.153 3.67564 47.5093
9.86181 -63.2556 31.1789
18.8795 24.5031 -9.09279
30.8619 26.8972 3.73502
-0.853713 -36.5678 49.9132
18.3934 24.7876 -5.15727
-7.13169 28.6564 -3.54901
-21.0137 6.25401 -20.7872
-25.3847 53.3174 9.16864
-30.2305 -8.82527 -7.34386
3.54799 -22.308 5.89508
-9.73537 -4.0692 -26.2551
-24.0684 42.0715 4.12971
-30.9422 -44.2194 -20.4011
-14.859 -23.9593 18.6561
-12.8063 -32.5908 8.80236
-10.7403 14.5518 -3.84643
-14.5794 -15.6228 10.2061
-24.8551 33.0087 5.96927
-2.93823 5.91362 11.6926
7.86519 -69.4984 0.327914
12.752 -22.5889 14.928
-20.4693 17.1067 1.1218
-11.9123 -25.8331 20.3466
-0.155657 6.67418 -4.61312
-32.7509 10.1987 1.56813
5.33179 39.689 -19.8372
-15.4417 15.77 -8.13618
1.05143 -53.7939 12.0513
1.33514 12.3449 23.5567
6.91196 49.5193 13.5141
-10.5448 -25.6815 -42.8481
24.8783 -51.7265 -20.343
2.26664 -1.4191 5.05833
-11.3441 13.8882 -17.7162
23.8993 -15.3436 -2.61766
5.24399 5.25901 -13.9582
-26.0182 -23.6104 5.0697
-21.7306 -12.4506 -3.74034
-13.9231 -13.3069 6.5089
25.9881 -23.2096 -19.095
-13.685 -3.24071 13.7916
-5.36574 -8.25033 -13.9941
-20.3237 -20.7024 9.95091
10.2313 73.4476 -9.29811
-3.52416 -28.5782 12.2256
2.22183 -39.1422 -53.2849
0.0 0.0 0.0
16.5953 4.62847 2.00027
-22.1695 9.68238 13.4194
0.0 0.0 0.0
-0.628921 3.107 0.182792
0.0 0.0 0.0
0.0 0.0 0.0
-2.30776 -28.0806 4.92985
0.0 0.0 0.0
0.0 0.0 0.0
0.0 0.0 0.0
0.0 0.0 0.0
0.0 0.0 0.0
0.0 0.0 0.0
0.0 0.0 0.0
0.0 0.0 0.0
0.0 0.0 0.0
0.0 0.0 0.0
0.0 0.0 0.0
0.0 0.0 0.0
0.0 0.0 0.0
0.0 0.0 0.0
0.0 0.0 0.0
0.0 0.0 0.0
0.0 0.0 0.0
0.0 0.0 0.0
0.0 0.0 0.0
0.0 0.0 0.0
0.0 0.0 0.0
0.0 0.0 0.0
0.0 0.0 0.0
0.0 0.0 0.0
0.0 0.0 0.0
0.0 0.0 0.0
0.0 0.0 0.0
0.0 0.0 0.0
0.0 0.0 0.0
0.0 0.0 0.0
0.0 0.0 0.0
0.0 0.0 0.0
0.0 0.0 0.0
0.0 0.0 0.0
0.0 0.0 0.0
0.0 0.0 0.0
0.0 0.0 0.0
0.0 0.0 0.0
0.0 0.0 0.0
0.0 0.0 0.0
0.0 0.0 0.0
0.0 0.0 0.0
0.0 0.0 0.0
0.0 0.0 0.0
0.0 0.0 0.0
0.0 0.0 0.0
0.0 0.0 0.0
0.0 0.0 0.0
0.0 0.0 0.0
0.0 0.0 0.0
0.0 0.0 0.0
0.0 0.0 0.0
0.0 0.0 0.0
0.0 0.0 0.0
0.0 0.0 0.0
0.0 0.0 0.0
0.0 0.0 0.0
0.0 0.0 0.0
0.0 0.0 0.0
0.0 0.0 0.0
0.0 0.0 0.0
0.0 0.0 0.0
0.0 0.0 0.0
0.0 0.0 0.0
0.0 0.0 0.0
0.0 0.0 0.0
0.0 0.0 0.0
0.0 0.0 0.0
0.0 0.0 0.0
0.0 0.0 0.0
0.0 0.0 0.0
0.0 0.0 0.0
0.0 0.0 0.0
0.0 0.0 0.0
0.0 0.0 0.0
0.0 0.0 0.0
0.0 0.0 0.0
0.0 0.0 0.0
0.0 0.0 0.0
0.0 0.0 0.0
0.0 0.0 0.0
0.0 0.0 0.0
0.0 0.0 0.0
0.0 0.0 0.0
0.0 0.0 0.0
0.0 0.0 0.0
0.0 0.0 0.0
0.0 0.0 0.0
0.0 0.0 0.0
0.0 0.0 0.0
0.0 0.0 0.0
0.0 0.0 0.0
0.0 0.0 0.0
0.0 0.0 0.0
0.0 0.0 0.0
0.0 0.0 0.0
0.0 0.0 0.0
0.0 0.0 0.0
0.0 0.0 0.0
0.0 0.0 0.0
0.0 0.0 0.0
0.0 0.0 0.0
0.0 0.0 0.0
0.0 0.0 0.0
0.0 0.0 0.0
0.0 0.0 0.0
0.0 0.0 0.0
0.0 0.0 0.0
0.0 0.0 0.0
0.0 0.0 0.0
0.0 0.0 0.0
0.0 0.0 0.0
0.0 0.0 0.0
0.0 0.0 0.0
0.0 0.0 0.0
0.0 0.0 0.0
0.0 0.0 0.0
0.0 0.0 0.0
0.0 0.0 0.0
0.0 0.0 0.0
0.0 0.0 0.0
0.0 0.0 0.0
0.0 0.0 0.0
0.0 0.0 0.0
0.0 0.0 0.0
0.0 0.0 0.0
0.0 0.0 0.0
0.0 0.0 0.0
0.0 0.0 0.0
0.0 0.0 0.0
0.0 0.0 0.0
0.0 0.0 0.0
0.0 0.0 0.0
0.0 0.0 0.0
0.0 0.0 0.0
0.0 0.0 0.0
0.0 0.0 0.0
0.0 0.0 0.0
0.0 0.0 0.0
0.0 0.0 0.0
0.0 0.0 0.0
0.0 0.0 0.0
0.0 0.0 0.0
0.0 0.0 0.0
0.0 0.0 0.0
0.0 0.0 0.0
0.0 0.0 0.0
0.0 0.0 0.0
0.0 0.0 0.0
0.0 0.0 0.0
0.0 0.0 0.0
0.0 0.0 0.0
0.0 0.0 0.0
0.0 0.0 0.0
0.0 0.0 0.0
0.0 0.0 0.0
0.0 0.0 0.0
0.0 0.0 0.0
0.0 0.0 0.0
0.0 0.0 0.0
0.0 0.0 0.0
0.0 0.0 0.0
0.0 0.0 0.0
0.0 0.0 0.0
0.0 0.0 0.0
0.0 0.0 0.0
0.0 0.0 0.0
0.0 0.0 0.0
0.0 0.0 0.0
0.0 0.0 0.0
0.0 0.0 0.0
0.0 0.0 0.0
0.0 0.0 0.0
0.0 0.0 0.0
0.0 0.0 0.0
0.0 0.0 0.0
0.0 0.0 0.0
0.0 0.0 0.0
0.0 0.0 0.0
VECTORS v float
0.38023 0.0194914 0.0817915
2.0735 -0.51394 0.667561
2.33833 -0.302975 0.210564
1.64412 0.101374 -0.0876856
2.0791 0.152649 0.143084
1.80699 0.326217 -0.0977097
2.46642 0.235704 -0.169872
2.5268 0.00946246 -0.0021503
2.51881 0.1723 -0.15749
2.61415 0.214669 0.0455545
2.32262 -0.0217702 0.0241411
2.66067 -0.0959491 0.107015
1.80665 -0.746154 -0.288714
2.30555 0.491619 -0.402433
2.49996 0.634204 0.157196
2.54378 -0.27468 -0.15597
1.12944 -0.266299 -0.0498663
1.84527 -0.0795335 -0.12304
1.71413 0.0183408 0.0388174
1.95964 -0.113848 -0.266459
2.41747 -0.0964101 -0.00314122
2.22001 0.128597 0.0993663
2.47588 -0.00744435 0.00184087
2.40475 0.312277 0.000148972
2.48333 0.282408 0.00110552
2.54295 0.0134026 -0.000155999
0.701521 -0.310619 -0.162166
0.69268 -0.41662 -0.322816
0.671474 -0.349103 -1.06884
1.54966 -0.240309 0.0549813
1.70625 0.159769 -0.203521
2.12124 -0.204655 -0.00021232
2.08923 0.186018 -0.284125
2.58425 0.315608 -0.00323529
2.83803 -0.0606982 -0.000383283
1.11739 -0.451929 -0.149102
1.32779 -0.104342 -0.0204483
2.17342 -0.0581342 0.00841021
2.01995 -0.143791 -0.000387831
2.11591 0.131521 0.0813458
0.906864 0.106404 -0.458888
0.995377 -0.27145 -0.0339851
1.05133 0.0595771 -0.000214892
1.12208 0.273948 -0.0978207
2.05178 0.0526575 0.0199579
2.31067 -0.117667 -4.16431e-05
0.567525 -0.423583 -0.259545
1.48954 -0.295509 -0.319264
2.13568 -0.0147622 0.00729529
2.47523 -0.256601 -0.058353
2.63582 0.0867573 0.13089
2.42185 0.114464 0.247581
2.20815 -0.0425346 -0.661668
0.708798 0.150181 0.16527