# vtk DataFile Version 2.0
Generated by lpp.py
ASCII
DATASET POLYDATA
POINTS 351 float
2.2244 0.429096 1.55881
2.26873 0.485732 1.54485
2.21899 0.550003 1.55696
0.237449 0.176464 1.58626
0.373985 0.193547 1.57726
0.476594 0.174013 1.58667
0.726023 0.19652 1.57642
0.778604 0.180121 1.59831
0.929555 0.183143 1.57957
1.13453 0.189691 1.57676
1.20076 0.192176 1.57687
1.41079 0.185449 1.57718
1.58914 0.187139 1.57686
1.65069 0.174828 1.58812
1.90048 0.189117 1.57655
2.03463 0.195249 1.57631
2.11661 0.170154 1.58579
0.317263 0.210223 1.57635
0.63297 0.205825 1.57935
0.987335 0.197524 1.57666
1.36595 0.225935 1.57685
1.45574 0.224887 1.57689
1.68847 0.228307 1.57686
2.08894 0.225309 1.57277
0.100473 0.227048 1.57866
0.21153 0.230789 1.5771
0.570027 0.242149 1.57637
0.70281 0.251788 1.57754
0.780132 0.237742 1.57688
0.888489 0.24354 1.57719
1.03102 0.2378 1.57849
1.09359 0.256064 1.57796
1.18223 0.25203 1.57686
1.24733 0.233831 1.57686
1.5065 0.257855 1.57646
1.56503 0.2462 1.57857
1.86335 0.242041 1.57688
0.163825 0.267225 1.57757
0.253926 0.283893 1.57709
0.412619 0.291563 1.57733
0.4739 0.282749 1.57552
0.529711 0.299668 1.58572
0.609453 0.286727 1.577
0.825553 0.280421 1.57712
0.965594 0.283566 1.57686
1.02611 0.296941 1.57654
1.23536 0.294773 1.57685
1.2938 0.275006 1.57686
1.39067 0.281724 1.57688
1.78845 0.268554 1.57686
1.92331 0.281999 1.57686
2.05017 0.274714 1.57564
0.151398 0.326955 1.5754
0.365348 0.32805 1.57454
0.887878 0.306688 1.58553
1.33857 0.318546 1.57693
1.54455 0.304931 1.57691
1.70338 0.323922 1.57691
1.76389 0.327086 1.57686
0.286809 0.358288 1.57424
0.432037 0.359146 1.57909
0.496526 0.370625 1.57675
0.556272 0.367675 1.5811
0.749454 0.342004 1.57686
0.985926 0.342365 1.57687
1.04908 0.352297 1.5768
1.18187 0.35175 1.57669
1.27779 0.340262 1.57693
1.39378 0.342605 1.57752
1.59305 0.349487 1.57686
1.82064 0.346485 1.57836
1.93266 0.359098 1.57687
0.00787705 0.389991 1.57707
0.139682 0.407302 1.57655
0.707224 0.405499 1.57701
0.849583 0.388779 1.57684
1.09503 0.393999 1.57612
1.23756 0.384583 1.57681
1.32356 0.380265 1.57688
1.46909 0.407499 1.57689
1.63676 0.389356 1.5913
1.71587 0.384047 1.57701
1.85954 0.391528 1.57691
0.197585 0.420509 1.57637
0.3503 0.443304 1.57675
0.414289 0.416009 1.57718
0.786139 0.444024 1.57686
0.970498 0.429334 1.57686
1.03213 0.442558 1.57683
1.13189 0.441995 1.57662
1.3587 0.428762 1.57864
1.53275 0.415621 1.57583
1.61553 0.444461 1.57669
1.68012 0.43401 1.57684
1.74985 0.433861 1.57669
1.8097 0.443376 1.57686
1.94872 0.419072 1.57686
0.466414 0.452097 1.57857
0.526829 0.457065 1.57546
0.659897 0.469368 1.57689
0.85662 0.451077 1.57686
1.1855 0.458659 1.59669
1.24073 0.447687 1.57664
1.31775 0.472382 1.57684
1.42089 0.464226 1.57686
1.49071 0.46424 1.57688
1.87384 0.465353 1.5768
0.391294 0.48511 1.58348
0.581203 0.51153 1.57887
0.714703 0.485622 1.59483
0.875247 0.51413 1.57686
0.960171 0.488443 1.57679
1.01328 0.516102 1.5777
1.13712 0.502045 1.5775
1.23206 0.508777 1.57686
1.37029 0.501664 1.57686
1.58747 0.502512 1.57688
1.64909 0.50832 1.57702
1.72442 0.491578 1.57688
2.18152 0.486479 1.56196
0.116101 0.52124 1.58914
0.170454 0.540106 1.57728
0.248353 0.546728 1.58257
0.472595 0.519021 1.57601
0.673869 0.5526 1.57688
0.785566 0.513815 1.57685
0.948257 0.54632 1.59147
1.42548 0.539555 1.577
1.50493 0.526614 1.57686
1.68998 0.552565 1.57682
1.85376 0.522172 1.57686
2.10682 0.542102 1.5713
2.3336 0.537266 1.56041
0.348817 0.5639 1.58128
0.427654 0.56041 1.58003
0.493111 0.574148 1.58304
0.59415 0.570272 1.57971
0.723433 0.583292 1.59082
0.788829 0.573312 1.58463
0.862633 0.574557 1.58373
1.05038 0.565231 1.57697
1.11607 0.559291 1.57696
1.17795 0.550694 1.57621
1.27131 0.559888 1.57688
1.36562 0.562295 1.57657
1.59807 0.567745 1.57698
1.80374 0.569994 1.57917
1.2209 0.586107 1.59609
0.129162 0.139739 1.62175
0.61427 0.143361 1.62548
0.780707 0.132342 1.63335
0.928753 0.130736 1.6322
0.989809 0.137905 1.62504
1.05767 0.129843 1.63112
1.11384 0.150824 1.61653
1.35651 0.147398 1.61554
0.523428 0.182578 1.62132
0.674652 0.175543 1.62248
0.83042 0.183319 1.62887
1.05671 0.188641 1.63345
0.163054 0.224918 1.62065
0.466569 0.230191 1.60021
0.263523 0.234239 1.61728
0.375693 0.25042 1.6157
0.596801 0.24919 1.62921
0.31403 0.283952 1.59978
0.453678 0.289488 1.63142
0.167545 0.306283 1.62735
0.244354 0.32083 1.62355
0.363119 0.332627 1.63195
0.649068 0.306494 1.61772
0.774293 0.328195 1.63314
1.18822 0.307748 1.61664
0.0471414 0.352832 1.61002
0.13333 0.361862 1.62297
0.200658 0.367344 1.60153
0.435693 0.348112 1.63638
0.671569 0.360898 1.63121
1.52415 0.364433 1.60387
0.301173 0.392617 1.61876
0.39055 0.387177 1.62909
1.16994 0.401224 1.60806
1.40781 0.396979 1.6089
0.24553 0.408554 1.60592
0.339981 0.433093 1.63485
0.505198 0.419313 1.62038
0.658452 0.423083 1.63372
1.58568 0.435397 1.6275
0.106064 0.460778 1.58408
0.18447 0.452794 1.62435
0.294612 0.47228 1.62349
0.55358 0.476615 1.62367
1.52946 0.454423 1.62147
0.23679 0.482846 1.6144
0.426071 0.517347 1.61767
0.501381 0.512028 1.62602
0.709674 0.538701 1.62687
1.06435 0.517466 1.61029
1.13801 0.538458 1.62876
1.32015 0.533719 1.60243
0.258061 0.608695 1.61459
0.563154 0.606858 1.61553
0.680253 0.623047 1.63071
0.778882 0.621553 1.63072
0.982101 0.597131 1.60628
1.04756 0.608795 1.61842
1.14535 0.599232 1.61123
1.28462 0.612414 1.62143
1.45985 0.593496 1.60318
0.43174 0.625997 1.6385
1.44524 0.0989699 1.66372
0.367647 0.130362 1.63466
0.525697 0.124825 1.63763
0.199555 0.153662 1.66124
0.31959 0.187245 1.65522
0.462097 0.177052 1.66893
0.214009 0.225862 1.65196
0.444829 0.235159 1.65608
0.723945 0.264165 1.65687
0.34168 0.287943 1.66305
0.514988 0.270452 1.6354
1.02074 0.305547 1.63535
0.0910041 0.360362 1.66722
0.244086 0.37405 1.65105
0.505115 0.365865 1.66368
0.170616 0.380538 1.66986
0.607546 0.375111 1.63826
0.813108 0.373223 1.63526
1.47538 0.40743 1.64415
0.131134 0.43568 1.64496
0.257305 0.437651 1.65775
0.450134 0.420601 1.64856
0.569783 0.421017 1.63916
0.977951 0.426833 1.64665
0.456678 0.48246 1.65474
0.345405 0.488448 1.65582
0.765462 0.480218 1.65433
1.40306 0.477423 1.6435
0.339107 0.546633 1.64102
0.546997 0.536472 1.65816
0.479726 0.592033 1.6395
0.604128 0.570692 1.63918
0.790627 0.559516 1.6449
0.94107 0.571397 1.64665
0.359427 0.628416 1.63756
0.495675 0.236736 1.68434
0.265362 0.288179 1.67491
0.307792 0.337583 1.66814
0.404813 0.304686 1.66381
0.456804 0.327825 1.68597
0.691206 0.312949 1.67106
0.407742 0.368334 1.68586
0.643455 0.341641 1.69603
0.545579 0.407987 1.6913
0.32183 0.4377 1.69092
0.376348 0.419335 1.68141
0.402933 0.502272 1.66998
0.10683 0.52412 1.66023
0.632721 0.629732 1.68015
0.400202 0.218635 1.69754
0.514995 0.320338 1.71122
0.0339487 0.431315 1.72239
0.434039 0.448672 1.70178
0.497829 0.459849 1.6961
0.498691 0.522189 1.69244
0.321856 0.552808 1.72353
0.744037 0.613748 1.7111
0.397312 0.695536 1.70484
0.307197 0.231054 1.71434
0.112238 0.243444 1.71992
0.338105 0.302045 1.72045
0.144627 0.329159 1.73622
0.388723 0.350133 1.75018
0.26384 0.382845 1.71722
0.197767 0.505506 1.71528
0.196779 0.286134 1.76378
0.179678 0.383211 1.78421
0.404531 0.416433 1.78596
0.180002 0.445959 1.7797
0.336562 0.447813 1.75688
0.316599 0.507618 1.76827
0.498503 0.253983 1.80767
0.322732 0.35929 1.79425
0.133145 0.50156 1.80617
0.4192 0.521596 1.7891
0.299287 0.247375 1.85579
0.432796 0.302258 1.84027
0.499396 0.409304 1.84955
0.230608 0.478968 1.82414
0.442411 0.236129 1.86047
0.126939 0.284236 1.87633
0.187834 0.32549 1.88402
0.345572 0.308923 1.86971
0.476186 0.343657 1.86234
0.282511 0.427246 1.88834
0.180798 0.510604 1.88706
0.383426 0.485675 1.8744
0.196226 0.26238 1.91467
0.356376 0.254196 1.91848
0.256147 0.321804 1.90396
0.110703 0.374435 1.90785
0.415762 0.389621 1.91956
0.107302 0.455042 1.91521
0.49838 0.508374 1.92668
0.44222 0.295647 1.95902
0.346145 0.350757 1.96488
0.475094 0.383761 1.95734
0.214879 0.429082 1.94033
0.466199 0.451954 1.96547
0.236464 0.494005 1.96182
0.430217 0.500721 1.96607
0.339305 0.526873 1.9538
0.271982 0.260644 1.97524
0.321856 0.294278 1.97264
0.125428 0.344451 1.99547
0.189012 0.364304 2.00738
0.415188 0.353574 2.00196
0.282424 0.374546 1.98703
0.323589 0.424937 1.99925
0.104255 0.515661 1.97774
0.103324 0.228818 2.01476
0.161403 0.258279 2.01419
0.363615 0.240431 2.02137
0.425069 0.242959 2.02275
0.499192 0.246026 2.01974
0.31493 0.348737 2.04379
0.115455 0.44409 2.00929
0.40415 0.414672 2.02204
0.158807 0.499296 2.02932
0.370433 0.49856 2.01825
0.264146 0.523422 2.02614
0.220666 0.238837 2.06734
0.17717 0.298235 2.0792
0.257372 0.298287 2.05437
0.314466 0.284399 2.07272
0.492483 0.279077 2.0744
0.417494 0.317622 2.07147
0.484684 0.362834 2.05124
0.125062 0.39201 2.05589
0.217234 0.387064 2.06563
0.449749 0.403068 2.07884
0.263093 0.452487 2.07205
0.417911 0.469013 2.06692
0.486571 0.452792 2.07556
0.220758 0.508511 2.07861
0.312076 0.491969 2.0776
0.393674 0.233628 2.08132
0.107591 0.339963 2.08367
0.385775 0.387923 2.08657
0.139724 0.459766 2.08164
0.490194 0.521396 2.08111
VERTICES 351 702
1 0
1 1
1 2
1 3
1 4
1 5
1 6
1 7
1 8
1 9
1 10
1 11
1 12
1 13
1 14
1 15
1 16
1 17
1 18
1 19
1 20
1 21
1 22
1 23
1 24
1 25
1 26
1 27
1 28
1 29
1 30
1 31
1 32
1 33
1 34
1 35
1 36
1 37
1 38
1 39
1 40
1 41
1 42
1 43
1 44
1 45
1 46
1 47
1 48
1 49
1 50
1 51
1 52
1 53
1 54
1 55
1 56
1 57
1 58
1 59
1 60
1 61
1 62
1 63
1 64
1 65
1 66
1 67
1 68
1 69
1 70
1 71
1 72
1 73
1 74
1 75
1 76
1 77
1 78
1 79
1 80
1 81
1 82
1 83
1 84
1 85
1 86
1 87
1 88
1 89
1 90
1 91
1 92
1 93
1 94
1 95
1 96
1 97
1 98
1 99
1 100
1 101
1 102
1 103
1 104
1 105
1 106
1 107
1 108
1 109
1 110
1 111
1 112
1 113
1 114
1 115
1 116
1 117
1 118
1 119
1 120
1 121
1 122
1 123
1 124
1 125
1 126
1 127
1 128
1 129
1 130
1 131
1 132
1 133
1 134
1 135
1 136
1 137
1 138
1 139
1 140
1 141
1 142
1 143
1 144
1 145
1 146
1 147
1 148
1 149
1 150
1 151
1 152
1 153
1 154
1 155
1 156
1 157
1 158
1 159
1 160
1 161
1 162
1 163
1 164
1 165
1 166
1 167
1 168
1 169
1 170
1 171
1 172
1 173
1 174
1 175
1 176
1 177
1 178
1 179
1 180
1 181
1 182
1 183
1 184
1 185
1 186
1 187
1 188
1 189
1 190
1 191
1 192
1 193
1 194
1 195
1 196
1 197
1 198
1 199
1 200
1 201
1 202
1 203
1 204
1 205
1 206
1 207
1 208
1 209
1 210
1 211
1 212
1 213
1 214
1 215
1 216
1 217
1 218
1 219
1 220
1 221
1 222
1 223
1 224
1 225
1 226
1 227
1 228
1 229
1 230
1 231
1 232
1 233
1 234
1 235
1 236
1 237
1 238
1 239
1 240
1 241
1 242
1 243
1 244
1 245
1 246
1 247
1 248
1 249
1 250
1 251
1 252
1 253
1 254
1 255
1 256
1 257
1 258
1 259
1 260
1 261
1 262
1 263
1 264
1 265
1 266
1 267
1 268
1 269
1 270
1 271
1 272
1 273
1 274
1 275
1 276
1 277
1 278
1 279
1 280
1 281
1 282
1 283
1 284
1 285
1 286
1 287
1 288
1 289
1 290
1 291
1 292
1 293
1 294
1 295
1 296
1 297
1 298
1 299
1 300
1 301
1 302
1 303
1 304
1 305
1 306
1 307
1 308
1 309
1 310
1 311
1 312
1 313
1 314
1 315
1 316
1 317
1 318
1 319
1 320
1 321
1 322
1 323
1 324
1 325
1 326
1 327
1 328
1 329
1 330
1 331
1 332
1 333
1 334
1 335
1 336
1 337
1 338
1 339
1 340
1 341
1 342
1 343
1 344
1 345
1 346
1 347
1 348
1 349
1 350
POINT_DATA 351
VECTORS i float
0.0 0.0 0.0
0.0 0.0 0.0
0.0 0.0 0.0
0.0 0.0 0.0
0.0 0.0 0.0
0.0 0.0 0.0
0.0 0.0 0.0
0.0 0.0 0.0
0.0 0.0 0.0
0.0 0.0 0.0
0.0 0.0 0.0
0.0 0.0 0.0
0.0 0.0 0.0
0.0 0.0 0.0
0.0 0.0 0.0
0.0 0.0 0.0
0.0 0.0 0.0
0.0 0.0 0.0
0.0 0.0 0.0
0.0 0.0 0.0
0.0 0.0 0.0
0.0 0.0 0.0
0.0 0.0 0.0
0.0 0.0 0.0
0.0 0.0 0.0
0.0 0.0 0.0
0.0 0.0 0.0
0.0 0.0 0.0
0.0 0.0 0.0
0.0 0.0 0.0
0.0 0.0 0.0
0.0 0.0 0.0
0.0 0.0 0.0
0.0 0.0 0.0
0.0 0.0 0.0
0.0 0.0 0.0
0.0 0.0 0.0
0.0 0.0 0.0
0.0 0.0 0.0
0.0 0.0 0.0
0.0 0.0 0.0
0.0 0.0 0.0
0.0 0.0 0.0
0.0 0.0 0.0
0.0 0.0 0.0
0.0 0.0 0.0
0.0 0.0 0.0
0.0 0.0 0.0
0.0 0.0 0.0
0.0 0.0 0.0
0.0 0.0 0.0
0.0 0.0 0.0
0.0 0.0 0.0
0.0 0.0 0.0
0.0 0.0 0.0
0.0 0.0 0.0
0.0 0.0 0.0
0.0 0.0 0.0
0.0 0.0 0.0
0.0 0.0 0.0
0.0 0.0 0.0
0.0 0.0 0.0
0.0 0.0 0.0
0.0 0.0 0.0
0.0 0.0 0.0
0.0 0.0 0.0
0.0 0.0 0.0
0.0 0.0 0.0
0.0 0.0 0.0
0.0 0.0 0.0
0.0 0.0 0.0
0.0 0.0 0.0
0.0 0.0 0.0
0.0 0.0 0.0
0.0 0.0 0.0
0.0 0.0 0.0
0.0 0.0 0.0
0.0 0.0 0.0
0.0 0.0 0.0
0.0 0.0 0.0
0.0 0.0 0.0
0.0 0.0 0.0
0.0 0.0 0.0
0.0 0.0 0.0
0.0 0.0 0.0
0.0 0.0 0.0
0.0 0.0 0.0
0.0 0.0 0.0
0.0 0.0 0.0
0.0 0.0 0.0
0.0 0.0 0.0
0.0 0.0 0.0
0.0 0.0 0.0
0.0 0.0 0.0
0.0 0.0 0.0
0.0 0.0 0.0
0.0 0.0 0.0
0.0 0.0 0.0
0.0 0.0 0.0
0.0 0.0 0.0
0.0 0.0 0.0
0.0 0.0 0.0
0.0 0.0 0.0
0.0 0.0 0.0
0.0 0.0 0.0
0.0 0.0 0.0
0.0 0.0 0.0
0.0 0.0 0.0
0.0 0.0 0.0
0.0 0.0 0.0
0.0 0.0 0.0
0.0 0.0 0.0
0.0 0.0 0.0
0.0 0.0 0.0
0.0 0.0 0.0
0.0 0.0 0.0
0.0 0.0 0.0
0.0 0.0 0.0
0.0 0.0 0.0
0.0 0.0 0.0
0.0 0.0 0.0
0.0 0.0 0.0
0.0 0.0 0.0
0.0 0.0 0.0
0.0 0.0 0.0
0.0 0.0 0.0
0.0 0.0 0.0
0.0 0.0 0.0
0.0 0.0 0.0
0.0 0.0 0.0
0.0 0.0 0.0
0.0 0.0 0.0
0.0 0.0 0.0
0.0 0.0 0.0
0.0 0.0 0.0
0.0 0.0 0.0
0.0 0.0 0.0
0.0 0.0 0.0
0.0 0.0 0.0
0.0 0.0 0.0
0.0 0.0 0.0
0.0 0.0 0.0
0.0 0.0 0.0
0.0 0.0 0.0
0.0 0.0 0.0
0.0 0.0 0.0
0.0 0.0 0.0
0.0 0.0 0.0
0.0 0.0 0.0
0.0 0.0 0.0
0.0 0.0 0.0
0.0 0.0 0.0
0.0 0.0 0.0
0.0 0.0 0.0
0.0 0.0 0.0
0.0 0.0 0.0
0.0 0.0 0.0
0.0 0.0 0.0
0.0 0.0 0.0
0.0 0.0 0.0
0.0 0.0 0.0
0.0 0.0 0.0
0.0 0.0 0.0
0.0 0.0 0.0
0.0 0.0 0.0
0.0 0.0 0.0
0.0 0.0 0.0
0.0 0.0 0.0
0.0 0.0 0.0
0.0 0.0 0.0
0.0 0.0 0.0
0.0 0.0 0.0
0.0 0.0 0.0
0.0 0.0 0.0
0.0 0.0 0.0
0.0 0.0 0.0
0.0 0.0 0.0
0.0 0.0 0.0
0.0 0.0 0.0
0.0 0.0 0.0
0.0 0.0 0.0
0.0 0.0 0.0
0.0 0.0 0.0
0.0 0.0 0.0
0.0 0.0 0.0
0.0 0.0 0.0
0.0 0.0 0.0
0.0 0.0 0.0
0.0 0.0 0.0
0.0 0.0 0.0
0.0 0.0 0.0
0.0 0.0 0.0
0.0 0.0 0.0
0.0 0.0 0.0
0.0 0.0 0.0
0.0 0.0 0.0
0.0 0.0 0.0
0.0 0.0 0.0
0.0 0.0 0.0
0.0 0.0 0.0
0.0 0.0 0.0
0.0 0.0 0.0
0.0 0.0 0.0
0.0 0.0 0.0
0.0 0.0 0.0
0.0 0.0 0.0
0.0 0.0 0.0
0.0 0.0 0.0
0.0 0.0 0.0
0.0 0.0 0.0
0.0 0.0 0.0
0.0 0.0 0.0
0.0 0.0 0.0
0.0 0.0 0.0
0.0 0.0 0.0
0.0 0.0 0.0
0.0 0.0 0.0
0.0 0.0 0.0
0.0 0.0 0.0
0.0 0.0 0.0
0.0 0.0 0.0
0.0 0.0 0.0
0.0 0.0 0.0
0.0 0.0 0.0
0.0 0.0 0.0
0.0 0.0 0.0
0.0 0.0 0.0
0.0 0.0 0.0
0.0 0.0 0.0
0.0 0.0 0.0
0.0 0.0 0.0
0.0 0.0 0.0
0.0 0.0 0.0
0.0 0.0 0.0
0.0 0.0 0.0
0.0 0.0 0.0
0.0 0.0 0.0
0.0 0.0 0.0
0.0 0.0 0.0
0.0 0.0 0.0
0.0 0.0 0.0
0.0 0.0 0.0
0.0 0.0 0.0
0.0 0.0 0.0
0.0 0.0 0.0
0.0 0.0 0.0
0.0 0.0 0.0
0.0 0.0 0.0
0.0 0.0 0.0
0.0 0.0 0.0
0.0 0.0 0.0
0.0 0.0 0.0
0.0 0.0 0.0
0.0 0.0 0.0
0.0 0.0 0.0
0.0 0.0 0.0
0.0 0.0 0.0
0.0 0.0 0.0
0.0 0.0 0.0
0.0 0.0 0.0
0.0 0.0 0.0
0.0 0.0 0.0
0.0 0.0 0.0
0.0 0.0 0.0
0.0 0.0 0.0
0.0 0.0 0.0
0.0 0.0 0.0
0.0 0.0 0.0
0.0 0.0 0.0
0.0 0.0 0.0
0.0 0.0 0.0
0.0 0.0 0.0
0.0 0.0 0.0
0.0 0.0 0.0
0.0 0.0 0.0
0.0 0.0 0.0
0.0 0.0 0.0
0.0 0.0 0.0
0.0 0.0 0.0
0.0 0.0 0.0
0.0 0.0 0.0
0.0 0.0 0.0
0.0 0.0 0.0
0.0 0.0 0.0
0.0 0.0 0.0
0.0 0.0 0.0
0.0 0.0 0.0
0.0 0.0 0.0
0.0 0.0 0.0
0.0 0.0 0.0
0.0 0.0 0.0
0.0 0.0 0.0
0.0 0.0 0.0
0.0 0.0 0.0
0.0 0.0 0.0
0.0 0.0 0.0
0.0 0.0 0.0
0.0 0.0 0.0
0.0 0.0 0.0
0.0 0.0 0.0
0.0 0.0 0.0
0.0 0.0 0.0
0.0 0.0 0.0
0.0 0.0 0.0
0.0 0.0 0.0
0.0 0.0 0.0
0.0 0.0 0.0
0.0 0.0 0.0
0.0 0.0 0.0
0.0 0.0 0.0
0.0 0.0 0.0
0.0 0.0 0.0
0.0 0.0 0.0
0.0 0.0 0.0
0.0 0.0 0.0
0.0 0.0 0.0
0.0 0.0 0.0
0.0 0.0 0.0
0.0 0.0 0.0
0.0 0.0 0.0
0.0 0.0 0.0
0.0 0.0 0.0
0.0 0.0 0.0
0.0 0.0 0.0
0.0 0.0 0.0
0.0 0.0 0.0
0.0 0.0 0.0
0.0 0.0 0.0
0.0 0.0 0.0
0.0 0.0 0.0
0.0 0.0 0.0
0.0 0.0 0.0
0.0 0.0 0.0
0.0 0.0 0.0
0.0 0.0 0.0
0.0 0.0 0.0
0.0 0.0 0.0
0.0 0.0 0.0
0.0 0.0 0.0
0.0 0.0 0.0
0.0 0.0 0.0
0.0 0.0 0.0
0.0 0.0 0.0
0.0 0.0 0.0
0.0 0.0 0.0
0.0 0.0 0.0
0.0 0.0 0.0
0.0 0.0 0.0
0.0 0.0 0.0
0.0 0.0 0.0
0.0 0.0 0.0
VECTORS f float
0.0 0.0 -2.77371
0.0 0.0 -2.77371
0.0 0.0 -2.77371
-0.040693 2.21505 -0.119443
9.54195 -3.14238 2.43082
-3.71233 -2.35555 3.80799
-0.402867 2.24862 0.210237
1.17198 0.909033 -1.8178
-0.397461 2.23079 -0.0958282
4.45578 5.15451 1.54972
0.00351206 -8.98421e-05 -0.0429053
0.0230965 2.72985 0.757622
-0.00239657 0.000108395 -0.00531695
-0.00055057 0.936982 -1.03618
-0.350694 0.900632 3.79996
0.0 0.0 -2.77371
0.0 0.0 -2.77371
-3.86473 1.42373 3.88508
0.0 0.0 -2.77371
1.53016 -1.11816 0.392511
-0.405205 -0.0435259 0.0227015
0.848453 0.370293 -0.206211
2.0317e-09 -2.39508e-10 6.38209e-08
0.0 0.0 -2.77371
0.0 0.0 -2.77371
1.41494 -1.74066 -1.78487
-6.13819 -4.3086 -2.96033
0.0722908 -1.28363 -3.22834
0.00327782 -0.0125495 -0.441926
0.0 0.0 -2.77371
2.29459 -2.62475 3.39342
0.0 0.0 -2.77371
7.58166e-05 -1.01082e-06 -0.00878773
0.000552128 -2.49009e-05 0.00216405
0.528155 1.32315 2.20544
2.3774 -0.190383 -1.51574
0.0103647 -0.0058469 -0.226859
0.0 0.0 -2.77371
-0.0971653 -0.248894 -3.30809
-0.850872 0.750319 -2.27715
11.7238 11.1418 -3.59199
-4.99906 -2.44266 -0.357865
5.7622 7.34332 -5.20872
0.0 0.0 -2.77371
1.46834e-05 3.48953e-07 -0.00029636
0.351132 -0.0222199 1.01967
-0.000229665 -0.00141863 0.242899
-0.000899477 0.000139208 0.0214864
-0.0196658 0.00624904 -0.610273
2.5657e-06 -1.53353e-07 -0.000146649
-5.39405e-08 1.96225e-08 -1.37069e-07
0.0 0.0 -2.77371
-2.71981 -2.08784 24.4281
-3.66082 12.9217 17.9529
0.0 0.0 -2.77371
-0.151221 -0.0480143 -1.51317
0.00353029 -0.0141541 -0.630065
0.0352861 -0.000871642 -0.577916
1.66497 0.649698 -5.55943
-1.67873 -7.51087 36.4808
-8.60509 8.32135 -36.1515
1.22616 -0.00681506 -2.51059
-0.914886 0.0812039 -2.39676
0.00291607 -9.15881e-05 0.0491919
0.0366516 -0.0168635 0.119044
0.187269 0.28854 1.47021
-0.0375153 -0.0432674 0.363022
0.965211 0.116737 -0.938108
0.0 0.0 -2.77371
-0.0731818 -0.0410705 -0.582989
-7.62052 -7.05384 0.03998
0.00696478 -0.00107849 0.0138728
0.130171 -0.0449285 -2.4983
-0.092077 0.0114152 -0.760187
-0.0141916 4.29824e-05 -1.56779
0.00232802 0.000153798 0.438096
20.4071 5.43467 39.463
0.0364759 -0.0309467 0.688031
0.520439 0.798341 -0.644866
0.0270659 -0.00257302 0.0434295
0.0 0.0 -2.77371
2.63296 -3.1068 3.69028
8.29469 6.84985 2.05113
-9.03285 26.3165 -22.366
-9.30615 -5.47383 -12.8637
-0.436616 1.32792 -3.52926
-0.00214437 0.000102201 -0.0499104
0.0736382 -0.124615 0.734689
-0.234188 -0.0122397 -1.85976
1.70344 0.641807 2.89252
0.58341 -0.505223 -2.26561
-0.677668 2.50344 15.9479
2.2675 -1.82883 0.569897
-0.0191746 -0.00408133 0.119659
-0.357504 0.144048 0.333804
-0.000174621 1.74387e-05 -0.00151575
-0.00546446 0.00122604 -0.0619006
0.0 0.0 -2.77371
14.1446 4.41472 31.3173
0.921823 0.26565 -0.549692
0.00218769 -0.000192565 0.0217528
1.8626 0.309814 -0.478429
0.677807 -0.163926 0.426254
0.959639 -0.142365 0.105447
-0.000189191 -1.41339e-05 0.00297254
-0.0404207 -0.0826769 -1.65323
-0.0295448 0.00613564 0.539734
-6.06556 -16.7292 -3.35779
0.0 0.0 -2.77371
0.277723 0.0987508 -2.49038
2.2563e-05 -2.677e-06 0.000540927
-0.0846869 0.629459 0.960869
0.142743 0.0660046 -2.69252
0.0 0.0 -2.77371
0.00226702 0.00477452 0.023835
-0.00378252 -0.000729167 0.0417871
0.00561277 0.000780667 -0.130363
-0.0613004 -0.0327307 -2.2945
0.00575123 -0.0240218 -0.239238
0.0 0.0 -2.77371
-17.6977 -5.60252 -7.70281
17.6977 5.60252 2.15538
0.0 0.0 -2.77371
-0.993314 14.2735 -3.61346
1.01748 -0.142366 -0.441275
-0.0729862 0.356849 -3.50218
0.0 0.0 -2.77371
0.0317288 -0.0005382 -0.986301
5.77912e-05 1.74852e-05 -0.00653471
-0.0797296 -0.161195 0.718222
0.00154582 0.000254615 0.0457125
0.0 0.0 -2.77371
0.0 0.0 -2.77371
0.0 0.0 -2.77371
4.11325 59.0055 -35.2422
-2.08528 13.3529 -4.90153
-0.23199 0.0316144 -1.96369
-0.455998 -6.17243 10.53
0.0 0.0 -2.77371
2.84586e-05 -0.989557 -0.988037
0.118988 -1.64874 -4.01069
-0.319707 0.0764979 -2.64447
1.77096 1.77992 10.1559
1.32668 -0.648136 1.35881
0.172747 -0.0744103 3.09507
0.239225 -0.594771 -0.263788
-2.16676e-07 -0.988769 -0.988777
5.76796 5.49296 5.7347
2.84419 3.93062 1.34946
0.0 0.0 -2.77371
2.23179 -3.06093 0.329908
-0.0476086 0.887269 -1.16608
0.57476 0.816727 -0.860307
5.44874 13.1628 5.10253
-3.78037 -5.13047 -0.885539
-0.00290585 0.963772 -1.01558
2.07956 1.65331 0.908438
0.0 0.0 -2.77371
0.0 0.0 -2.77371
-5.81859 23.8938 9.1328
7.73923 0.679216 3.50905
0.720114 0.976522 25.3018
0.0 0.0 -2.77371
0.0 0.0 -2.77371
-0.705215 0.629871 -8.35091
0.0 0.0 -2.77371
-15.0965 2.39223 1.04377
8.50454 -6.42529 25.3388
0.0460056 0.248419 -2.44268
-1.43165 3.26367 3.44857
0.0 0.0 -2.77371
-5.70778 -14.3456 1.85959
0.144954 -0.719792 -1.30688
0.0 0.0 -2.77371
0.0 0.0 -2.77371
-3.36775 -10.983 9.25353
10.1653 2.68571 -25.8743
0.0 0.0 -2.77371
-0.463369 -7.84941 3.1674
-30.5675 1.87934 49.1783
0.0 0.0 -2.77371
-0.237643 1.00969 -1.09933
0.0 0.0 -2.77371
37.5445 22.4014 -24.5011
26.3318 19.0461 -31.3291
0.0 0.0 -2.77371
0.0 0.0 -2.77371
3.84567 -0.632797 -1.20425
0.0 0.0 -2.77371
-5.00624 3.39543 0.809676
7.13529 1.61445 -3.34175
3.65343 1.53798 30.4022
-6.70335 2.50099 0.879327
-7.13529 -1.61445 -2.20567
9.01751 -23.0785 14.5403
18.6436 -13.5142 42.783
-1.40642 -10.8918 4.49828
-0.327098 1.08012 -2.91712
-0.088456 0.125869 -3.32833
-1.79841 -0.942428 -0.169923
55.6723 -76.0855 79.019
-6.0857 0.582943 -0.693395
4.71605 -6.46441 4.12974
-0.00209168 -1.02018 -0.963104
0.00960163 -1.36849 -0.76836
0.0 0.0 -2.77371
0.0 0.0 -2.77371
0.676629 -0.841286 -1.56489
0.0 0.0 -2.77371
-21.2145 35.0119 -12.8524
3.62689 4.89512 8.12732
0.0 0.0 -2.77371
-0.0146624 -0.256742 -2.86013
0.0 0.0 -2.77371
0.0 0.0 -2.77371
0.0 0.0 -2.77371
-7.73923 -0.679216 -9.05647
-29.6343 -7.92352 -44.709
0.0 0.0 -2.77371
-0.897137 -8.48807 -68.131
1.39865 1.30601 -4.06134
0.15443 1.40827 -0.0660311
0.0 0.0 -2.77371
4.38757 -51.573 66.8871
0.0 0.0 -2.77371
0.0 0.0 -2.77371
1.76363 -2.0971 -4.19559
5.70778 14.3456 -7.40702
0.0 0.0 -2.77371
1.00448 0.525125 -2.68331
0.0 0.0 -2.77371
0.0 0.0 -2.77371
2.81318 -0.402163 -24.3011
0.0 0.0 -2.77371
17.7568 -12.8242 5.04611
-0.909293 3.37382 0.217505
0.0 0.0 -2.77371
0.0 0.0 -2.77371
0.0 0.0 -2.77371
0.0 0.0 -2.77371
21.2145 -35.0119 7.30501
1.17842 2.19983 -5.60975
0.0 0.0 -2.77371
0.0 0.0 -2.77371
-0.0657479 -1.04173 -1.09338
29.6343 7.92352 39.1616
0.0 0.0 -2.77371
0.0 0.0 -2.77371
0.457181 2.72702 43.8308
7.13619 -13.3719 34.6849
0.0 0.0 -2.77371
0.0 0.0 -2.77371
0.0 0.0 -2.77371
-4.9238 4.40026 20.5489
-46.6495 12.0928 53.8142
46.1809 -18.1972 -38.601
-13.3711 1.28553 10.5852
0.0 0.0 -2.77371
0.0 0.0 -2.77371
0.0 0.0 -2.77371
0.0 0.0 -2.77371
0.0 0.0 -2.77371
0.0 0.0 -2.77371
0.0 0.0 -2.77371
0.0 0.0 -2.77371
0.0 0.0 -2.77371
0.0 0.0 -2.77371
0.825108 -1.03922 -1.36491
0.0 0.0 -2.77371
0.0 0.0 -2.77371
-5.55853 -4.78641 86.8309
0.0 0.0 -2.77371
0.0 0.0 -2.77371
0.0 0.0 -2.77371
0.0 0.0 -2.77371
0.0 0.0 -2.77371
0.0 0.0 -2.77371
0.0 0.0 -2.77371
0.0 0.0 -2.77371
0.0 0.0 -2.77371
0.0 0.0 -2.77371
0.0 0.0 -2.77371
0.0 0.0 -2.77371
0.0 0.0 -2.77371
0.0 0.0 -2.77371
0.0 0.0 -2.77371
0.0 0.0 -2.77371
0.0 0.0 -2.77371
0.0 0.0 -2.77371
0.0 0.0 -2.77371
0.0 0.0 -2.77371
0.0 0.0 -2.77371
0.0 0.0 -2.77371
0.0 0.0 -2.77371
0.0 0.0 -2.77371
0.0 0.0 -2.77371
0.0 0.0 -2.77371
0.0 0.0 -2.77371
0.0 0.0 -2.77371
0.0 0.0 -2.77371
0.0 0.0 -2.77371
0.0 0.0 -2.77371
0.0 0.0 -2.77371
0.0 0.0 -2.77371
0.0 0.0 -2.77371
0.0 0.0 -2.77371
0.0 0.0 -2.77371
0.0 0.0 -2.77371
0.0 0.0 -2.77371
0.0 0.0 -2.77371
0.0 0.0 -2.77371
0.0 0.0 -2.77371
0.0 0.0 -2.77371
0.0 0.0 -2.77371
0.0 0.0 -2.77371
0.0 0.0 -2.77371
0.0 0.0 -2.77371
0.0 0.0 -2.77371
0.0 0.0 -2.77371
0.0 0.0 -2.77371
0.0 0.0 -2.77371
0.0 0.0 -2.77371
0.0 0.0 -2.77371
0.0 0.0 -2.77371
0.0 0.0 -2.77371
0.0 0.0 -2.77371
0.0 0.0 -2.77371
0.0 0.0 -2.77371
0.0 0.0 -2.77371
0.0 0.0 -2.77371
0.0 0.0 -2.77371
0.0 0.0 0.0
0.0 0.0 0.0
0.0 0.0 0.0
0.0 0.0 0.0
0.0 0.0 0.0
0.0 0.0 0.0
0.0 0.0 0.0
0.0 0.0 0.0
0.0 0.0 0.0
0.0 0.0 0.0
0.0 0.0 0.0
0.0 0.0 0.0
0.0 0.0 0.0
0.0 0.0 0.0
0.0 0.0 0.0
0.0 0.0 0.0
0.0 0.0 0.0
0.0 0.0 0.0
0.0 0.0 0.0
0.0 0.0 0.0
VECTORS omega float
12.707 -26.5302 1.8725
17.1715 -3.71934 10.6634
4.56748 -20.9404 -22.7402
7.58996 -81.7321 41.5514
-0.59921 -80.2162 20.8952
-17.2337 -84.2797 18.8032
-2.38618 -56.1853 36.4305
22.0306 43.1539 -22.5088
-5.30754 -35.5779 33.4915
-8.078 -42.0804 22.7988
-1.2107 -44.3697 3.34322
-9.05116 -21.7619 30.3274
-0.757794 -51.8371 2.75206
-15.1257 -14.4279 49.0777
4.98666 -43.6587 -2.12658
-4.43619 -43.4705 13.4293
2.07324 -32.5155 15.9314
23.1355 -89.4733 -4.53285
2.8201 -62.3279 -0.474003
-5.95227 -43.0212 7.3168
-1.93315 -40.4213 -12.5529
-25.1901 -25.864 -4.59805
-5.62552 -47.7156 12.0898
3.14106 -41.7856 6.64102
20.5323 -110.795 -1.57887
17.9368 -87.4109 -22.4956
1.99101 -64.5807 -8.9989
16.3904 -66.2938 -9.23811
-13.8397 -54.2552 -3.91505
-6.7069 44.0579 6.0868
-7.99393 -21.3806 4.88046
-6.67955 -44.2001 -2.96358
-0.67809 -50.8634 -10.1374
-1.92943 -46.8131 7.2383
-20.799 -17.5466 -3.82579
1.70147 -31.5662 0.553126
-7.22417 -36.3442 6.40676
6.82187 -67.0564 8.75159
9.45909 -86.4307 -8.4301
5.29776 -73.3348 17.5973
-5.81256 -82.0588 -17.7567
-28.0144 53.4094 7.76654
4.39662 -71.6444 -2.87383
-1.99734 -56.3577 -12.2301
1.22844 -51.6914 7.25046
0.769996 -57.2552 1.85813
1.1173 -46.4462 8.79293
-7.85602 -49.4869 -1.59826
-4.88492 -42.7553 11.5227
-2.02005 -33.7167 -0.659354
-11.8635 -32.6119 -4.39747
0.365994 -40.1907 -11.0215
10.0822 -92.7617 8.14438
-10.7503 -73.0713 -11.6827
32.1286 -39.4267 -16.4069
-5.57793 -45.6643 -1.36705
-4.78786 -28.5338 4.07815
-3.26175 -27.7052 9.53264
-9.3143 -20.6825 -0.820945
28.293 -62.0622 6.59609
-5.72122 -64.6603 -9.25285
-6.61266 -63.2433 10.44
-2.01725 -69.3281 1.07115
-2.01194 -64.0516 -27.4781
-2.09661 -56.2633 14.3313
0.086864 -59.6123 1.60934
3.07352 -50.2644 -8.59285
-4.74602 -44.6658 -3.16973
-8.22738 -40.5128 -2.939
-5.31659 -36.3784 -7.94267
-20.085 -20.7725 3.99853
-6.99417 -48.3747 -14.3916
-15.3439 -110.63 -3.90733
-1.37743 -85.5917 16.3073
-0.874045 -55.1934 -14.429
-3.48687 -60.4736 -5.27068
-26.6081 34.0166 -4.59028
0.512706 -52.6122 8.40056
-11.3166 -44.3999 3.76211
-3.66501 -43.0081 13.1731
-6.44957 -22.9676 7.90468
3.16193 -34.7368 6.71094
-23.956 -46.6994 15.0569
14.9073 -43.6336 -19.2227
-4.35553 -79.8722 6.5952
0.604033 -54.2393 1.76045
-2.77669 -58.2063 8.53798
4.21296 -50.4952 2.23641
1.45807 -47.2936 4.12905
3.96446 -55.0652 -5.25627
-5.04517 -34.2961 -8.07608
-5.69109 -39.8702 -0.465325
1.64884 -42.1139 0.459163
1.4606 -42.7372 -2.63995
3.97745 -37.0381 11.7882
-4.21737 -42.2325 -4.0245
-7.65788 -39.5203 5.42039
-7.19133 -56.7769 5.97769
-0.210694 -69.6626 -6.155
-5.32675 -45.8891 12.0574
-5.36489 -55.4279 -1.08152
0.935202 47.7943 3.55092
0.630138 -48.6123 1.16406
15.6708 -5.88141 6.2238
3.5588 -47.6479 3.47607
5.96109 -53.3817 7.95979
0.18484 -35.6117 12.9165
-33.0159 65.377 3.95941
-13.5505 -67.936 21.6867
0.820317 15.9989 -12.6909
-7.06479 -59.5455 -6.10355
4.44227 -55.5832 1.42961
-4.86382 -56.1341 -2.87846
-5.02775 -39.0558 10.6965
-2.44896 -62.7022 7.19994
5.81018 -51.4291 7.96378
5.70455 -38.0593 18.0977
-0.670845 -36.286 4.29307
4.05195 -45.0129 -1.25075
6.41196 -26.3847 -3.05696
-17.0359 -80.6435 9.59336
0.492496 -102.467 -13.1492
-24.5738 -104.765 -23.5008
-21.6364 -41.6961 7.00376
-20.9971 -11.6946 -18.2407
5.54857 -58.7736 16.4562
-13.6068 30.5607 5.01141
1.35574 -47.1817 1.92214
4.39122 -44.4965 -21.1438
-3.50117 -37.417 -8.80091
0.960251 -39.6347 -13.81
1.9812 -32.9576 12.1837
-1.2666 -12.4742 6.51084
-13.3909 -92.6961 8.14983
-24.3607 -65.5176 18.2968
-7.03232 -86.3486 -14.6489
-4.58642 -59.3622 -28.4236
-4.14793 -61.7378 1.60943
-0.808079 -50.8193 -31.0661
12.6091 -92.6915 4.11116
2.98019 -51.1794 -6.79002
-0.886586 -52.7608 -7.52712
4.14905 -50.7839 -13.6203
4.16455 -50.0297 -14.4298
5.47511 -51.3412 -8.05889
0.946441 -47.3719 -20.5918
19.3678 -62.4158 -19.1295
-1.1209 34.5168 8.95955
12.9249 23.25 34.2476
8.22047 -4.01146 39.8485
-6.86106 -67.0416 34.8349
2.28219 -51.2574 33.1039
25.5446 -27.7872 29.5328
-5.15042 -22.6595 39.2705
-17.0325 -28.4112 27.9375
-19.7358 -57.3735 22.0794
-3.57124 58.4881 -50.2358
18.2753 55.839 -7.49004
-45.6385 20.619 -21.0797
18.6685 35.0945 -12.9352
-48.0568 -0.593226 1.37658
23.6539 43.2229 7.91999
-22.1787 31.8899 5.01469
-7.01648 33.106 -3.99082
-26.1221 27.4153 -12.0648
0.217217 -1.46007 3.0665
20.9146 20.7883 -0.602871
-14.6768 30.5698 2.13982
-30.7485 28.4592 5.59213
15.0437 14.7169 8.15385
9.80658 78.355 16.702
3.12472 48.587 15.2933
9.61642 40.5594 5.16328
8.65268 81.5653 -4.79017
-15.7348 37.0012 8.75466
1.89958 5.22122 1.10448
7.1521 0.283256 3.80679
-0.253562 3.40429 8.942
7.19497 14.8727 1.35397
-35.3869 -18.1286 -8.74465
3.07376 -8.2729 -15.1952
-1.51003 42.5341 7.53744
-33.1167 11.7902 -14.1665
-11.3045 24.2773 8.43351
-1.91851 -6.00528 20.389
3.59321 32.6348 -1.97171
24.3407 -21.8966 -17.3875
9.70903 26.1226 -12.821
30.9671 39.936 16.0613
-13.2628 -24.9856 5.83899
-35.7784 3.5145 -13.1523
-2.67135 43.1676 -3.19022
1.35532 41.2021 18.013
39.3128 22.6401 21.4575
15.5101 -21.0226 32.7748
12.9884 30.3315 -12.6358
-9.93913 -13.1962 22.9065
1.1528 72.6064 -8.49105
7.29221 45.6367 6.4839
7.76615 57.5575 9.53267
-42.4805 6.46404 -44.0306
1.96225 -75.4917 -31.3765
-5.76204 -26.4681 -49.6931
1.34598 -86.5858 -14.633
9.73638 -41.9899 -28.0193
-2.70533 5.04349 -49.9917
-11.1877 -37.1633 -31.181
-10.1514 -28.8545 -28.4325
1.44409 -20.9569 -44.7673
-18.0312 -25.5775 -34.9658
11.7107 -10.2199 23.1567
-19.158 38.2433 23.0394
14.9883 -27.6418 52.4864
36.9256 34.3949 -30.8566
-19.7068 -36.3181 -2.30501
-15.1298 34.1286 -12.7813
41.3701 9.56416 -7.27796
-0.0900833 -20.0289 11.7916
-3.73428 57.4177 -4.47262
-1.07138 -12.6377 -4.27926
29.3383 -7.53719 0.477496
-0.149868 55.2128 -2.93861
-15.1759 -65.5685 -7.44293
4.5019 -36.7037 -16.9417
27.1388 -32.4567 -14.1517
-8.33691 -35.3906 -2.12287
-4.25487 84.3669 4.34684
32.7262 40.0251 16.6365
12.9853 28.6767 14.144
-2.89233 -9.27537 11.6532
-17.3072 -32.4382 46.062
-13.4617 -40.6278 3.94181
-11.3568 -18.3959 1.24388
3.29131 36.5695 -10.5942
22.7765 -16.8176 -14.2442
-11.0652 1.13188 -17.1589
39.3928 40.5261 -20.3942
13.1289 31.0248 4.82269
23.6605 40.3045 5.84885
-20.5558 -11.5401 14.463
-3.30706 34.447 -0.913038
32.4192 45.7862 39.8912
-25.2078 28.813 17.4843
6.2891 -4.65181 49.5269
-1.18258 -75.822 -49.4376
-10.7582 2.06684 -15.1419
30.2664 -17.679 -14.1823
-12.0134 32.9543 -9.03818
1.49016 11.2253 -11.3184
27.7618 24.0241 4.40513
1.53747 -21.4305 3.66726
-3.65122 -0.0374359 -16.3048
-4.73075 -80.5409 -21.3222
-55.3539 11.9351 36.7192
6.24163 44.7171 -16.8068
-5.90473 -18.7624 -0.602923
-2.16831 14.2689 1.78362
0.0 0.0 0.0
21.6242 -2.86575 38.2443
0.692165 -6.69309 -4.55796
-10.6956 -11.2998 8.77385
18.8002 79.424 35.4142
14.2462 -5.35767 0.676287