ITEM: TIMESTEP
109000
ITEM: NUMBER OF ATOMS
527
ITEM: BOX BOUNDS ff ff ff
0 3.3
-0.3 0.8
-0.5 3
ITEM: ATOMS id type type x y z ix iy iz vx vy vz fx fy fz omegax omegay omegaz radius f_Temp[0] 
213 1 1 0.23148 0.189121 1.57434 0 0 0 1.1869 -0.398211 0.0882364 -19.6332 -16.3204 19.7204 14.7451 -95.0141 15.09 0.03 322.541 
248 1 1 0.399064 0.183603 1.57874 0 0 0 2.22674 -0.186023 0.0368744 -2.12557 5.57872 -0.0592006 -0.535961 -54.0467 19.1151 0.03 323.996 
97 1 1 0.47242 0.177882 1.58493 0 0 0 2.25107 -0.487543 0.573592 -1.08384 2.96771 -1.24497 31.2778 -44.9808 37.8196 0.03 348.738 
22 1 1 0.654088 0.189681 1.57676 0 0 0 2.31715 -0.165516 0.0955435 -1.48305 0.494685 -1.04266 5.56876 -56.2724 -23.7264 0.03 331.719 
288 1 1 0.710639 0.163958 1.59901 0 0 0 2.34226 0.0131156 -0.0144077 0.00455838 0.839509 -1.20257 -0.750276 -37.5522 40.7597 0.03 325.557 
90 1 1 0.803455 0.187815 1.57685 0 0 0 2.5662 0.0627171 -0.00502684 1.5572 -0.209315 0.368703 -2.02966 -47.4675 30.7538 0.03 351.03 
114 1 1 0.865915 0.175439 1.58778 0 0 0 2.88548 0.133056 -0.181635 -8.12875 -10.0328 -6.47742 -4.75125 2.25596 12.1664 0.03 337.164 
221 1 1 0.951603 0.175069 1.58796 0 0 0 2.5897 0.0450807 -0.0794458 0.207928 0.480821 -1.13574 8.97829 -16.6261 22.2122 0.03 313.896 
171 1 1 1.0648 0.198951 1.57659 0 0 0 2.69384 0.227179 0.0326757 1.29299 -0.39804 2.74932 7.81786 16.8375 7.45366 0.03 305.872 
43 1 1 1.12355 0.189339 1.58295 0 0 0 2.69148 0.0918898 -0.754155 2.02287 -0.445749 -1.45367 -0.319519 -11.8425 -13.2568 0.03 301.799 
40 1 1 1.2176 0.186222 1.57683 0 0 0 2.99446 -0.0109736 -0.0129571 -1.14345 1.44441 2.51362 -0.15535 -33.3805 9.75238 0.03 342.727 
58 1 1 1.27709 0.164921 1.59801 0 0 0 2.79781 0.0186297 -0.021979 0.000826398 1.09268 -0.831124 -1.23179 -22.9307 33.938 0.03 366.327 
141 1 1 1.35271 0.192202 1.57681 0 0 0 3.21277 0.0575934 0.00483746 1.58289 -0.171695 0.0522685 -1.25293 -24.7615 -8.10081 0.03 323.403 
161 1 1 1.41366 0.186029 1.57684 0 0 0 3.19207 -0.00144174 -0.0277722 -0.0665787 -4.40824 1.89976 -3.52137 -16.4573 15.2548 0.03 352.933 
165 1 1 1.50875 0.192904 1.57771 0 0 0 2.92414 0.24442 0.0125877 6.50056 -2.25269 0.267809 -7.15521 -35.9693 25.5269 0.03 341.451 
194 1 1 0.277801 0.206177 1.60157 0 0 0 0.978662 -0.578071 1.03026 23.7047 -16.0377 28.9865 11.0874 72.3114 -9.3258 0.03 300.505 
193 1 1 0.340159 0.216061 1.58528 0 0 0 0.948452 -0.492169 -1.17388 0 0 -2.77371 -4.83617 -11.1464 11.1182 0.03 300.364 
230 1 1 0.439246 0.226806 1.57665 0 0 0 2.35924 -0.22803 0.276014 11.7408 11.6024 -4.89502 5.76556 -54.6079 -22.2993 0.03 314.379 
164 1 1 0.746588 0.211681 1.57687 0 0 0 2.33571 -0.105911 -0.00467272 0.0359518 -0.00828588 0.116437 3.54838 -55.684 -19.164 0.03 329.906 
3 1 1 0.901691 0.221634 1.57692 0 0 0 2.74652 0.105189 0.0703056 8.45577 10.5092 -0.22571 -5.26543 -40.7421 -2.45681 0.03 364.852 
51 1 1 1.00385 0.202139 1.57689 0 0 0 2.57073 0.0910119 -0.0247995 2.64304 -0.761486 1.38366 -0.381035 -22.6452 5.37898 0.03 336.371 
95 1 1 1.17295 0.226223 1.57681 0 0 0 3.02242 0.0822691 0.0269373 -0.0513392 -0.0156797 -0.635082 -3.28988 -33.2964 -3.49307 0.03 326.686 
91 1 1 1.27268 0.221483 1.57685 0 0 0 2.72013 0.0252802 -0.0228505 -0.336604 -1.96958 1.22257 0.785878 -43.0873 -6.48656 0.03 347.035 
15 1 1 1.45852 0.225023 1.57696 0 0 0 2.98469 0.158115 -0.0104265 0.977653 -2.4657 -5.99901 -15.5036 -8.82795 2.54657 0.03 361.595 
173 1 1 1.63779 0.199661 1.57686 0 0 0 2.88038 -0.100196 -0.00188233 -0.0958502 0.0164834 -0.0837301 3.33291 -37.3909 14.8223 0.03 343.327 
258 1 1 0.0782166 0.229108 1.59073 0 0 0 -0.0184422 -0.69556 0.311135 0 0 -2.77371 23.4583 -135.493 -22.115 0.03 303.691 
185 1 1 0.251981 0.255088 1.57736 0 0 0 1.5355 -0.0235017 0.245733 0 0 -2.77371 -1.54252 -83.9507 -12.1151 0.03 314.128 
180 1 1 0.491146 0.259689 1.57645 0 0 0 1.61125 0.114571 -0.0988658 -3.0843 -5.55012 8.67752 -3.343 -78.6088 -35.7269 0.03 311.731 
132 1 1 0.551815 0.228282 1.58474 0 0 0 1.59665 -0.454286 -0.152878 0 0 -2.77371 15.4243 -82.1154 -8.34568 0.03 343.233 
110 1 1 0.693317 0.24785 1.57688 0 0 0 2.36221 0.0977532 0.00412223 -0.016063 0.000618808 -0.524319 -3.27017 -54.7898 10.297 0.03 345.588 
107 1 1 0.788741 0.259593 1.57686 0 0 0 2.26383 -0.0327319 0.000182706 -0.000494607 -7.47336e-06 0.0499004 1.09563 -58.1147 -1.88558 0.03 322.336 
5 1 1 0.979384 0.256591 1.57672 0 0 0 2.37657 0.0619791 0.00425656 0.540978 -0.651951 2.04403 -2.6168 -54.5691 -13.8941 0.03 347.772 
12 1 1 1.06574 0.259631 1.57697 0 0 0 2.69941 0.32306 -0.00843239 -1.1449 -0.185263 -1.29232 -10.7262 -43.8692 -12.0767 0.03 347.138 
146 1 1 1.40382 0.247348 1.57798 0 0 0 2.896 0.0901667 -0.0336638 -18.3999 -6.47525 -4.45776 -4.66459 19.0864 0.972162 0.03 308.898 
78 1 1 1.50363 0.263141 1.58274 0 0 0 2.75214 0.508129 -0.0349992 1.62526 0.807804 -4.78867 -23.207 -21.9715 6.12343 0.03 350.461 
120 1 1 1.57159 0.258692 1.57685 0 0 0 2.55994 0.0331719 0.00518727 -0.0166761 0.000204302 0.0531564 -1.11164 -48.2227 -20.38 0.03 381.819 
125 1 1 1.65159 0.258062 1.58096 0 0 0 2.81207 -0.0727973 -0.0105267 -0.933455 -0.794257 -3.28806 2.13721 -29.1679 -5.37459 0.03 349.372 
197 1 1 0.188675 0.298803 1.58196 0 0 0 0.91992 0.127085 -0.00836697 0 0 -2.77371 4.81653 -105.265 6.24905 0.03 303.856 
206 1 1 0.296323 0.29631 1.57789 0 0 0 1.43074 0.250809 0.0338293 0 0 -2.77371 -10.9842 -69.5761 15.9644 0.03 318.95 
351 1 1 0.362371 0.283531 1.57662 0 0 0 2.34694 -0.271849 0.294002 3.96513 0.387748 -10.7418 8.13591 -46.2143 -5.34757 0.03 308.087 
70 1 1 0.736325 0.295187 1.57654 0 0 0 2.45118 0.0437623 -0.063263 -14.4135 -8.52506 -11.3293 -2.81242 -53.9362 -1.75401 0.03 337.302 
68 1 1 0.86205 0.268792 1.59196 0 0 0 2.03489 -0.421867 -0.648235 1.06042 -2.11662 -0.862036 11.475 40.6407 -0.36437 0.03 300.847 
127 1 1 1.11328 0.296558 1.57826 0 0 0 2.83897 0.225146 -0.141949 0 0 -2.77371 -11.6699 -33.6817 2.92766 0.03 321.267 
19 1 1 1.23055 0.277338 1.5768 0 0 0 2.84358 0.0428799 -0.00547333 -0.277059 -0.339981 1.37862 -1.01164 -39.173 -6.34663 0.03 320.257 
13 1 1 1.34104 0.281118 1.57684 0 0 0 2.59798 0.154639 -0.00375983 1.18908 0.077223 0.180979 -5.15938 -46.9496 4.61877 0.03 389.388 
64 1 1 1.44791 0.286855 1.57699 0 0 0 2.6138 0.151782 0.0662271 11.9701 15.5492 3.01872 -5.31625 -43.4716 17.2927 0.03 380.609 
257 1 1 0.0448672 0.33312 1.57691 0 0 0 0.349093 0.204062 0.0370637 0.149121 0.092637 -2.42261 -8.52618 -119.364 2.33812 0.03 312.645 
339 1 1 0.442434 0.322195 1.58023 0 0 0 1.97925 -0.126011 0.0366508 0.819535 0.00286633 -9.02299 7.64135 -69.8009 0.485633 0.03 338.618 
209 1 1 0.675814 0.309221 1.57683 0 0 0 2.49544 0.0124023 -0.00646908 0.0257895 -0.00109435 0.775597 -0.416939 -50.3916 -3.6237 0.03 315.684 
313 1 1 0.825391 0.313419 1.57664 0 0 0 2.26821 -0.0655725 -0.0660163 0.0245479 2.51452 5.66293 4.49162 -56.894 -15.1598 0.03 309.912 
166 1 1 0.926407 0.319775 1.57686 0 0 0 2.28814 -0.271309 2.20666e-05 -7.50438e-05 -1.18935e-05 0.00155028 9.08071 -57.296 17.9709 0.03 347.218 
175 1 1 1.06004 0.33006 1.57688 0 0 0 2.82618 0.281661 -0.0159264 1.31542 0.886138 0.398391 -17.6054 -27.1266 12.7837 0.03 328.394 
225 1 1 1.17049 0.320612 1.58105 0 0 0 2.72535 0.180882 -0.480998 2.12459 0.462323 -1.89112 -1.39002 38.5155 -6.77829 0.03 301.378 
35 1 1 1.22768 0.337902 1.57677 0 0 0 2.92917 0.0662957 0.0864704 0.863515 -4.26529 -0.971298 0.169244 -40.3331 4.38229 0.03 340.362 
11 1 1 1.28551 0.312202 1.5769 0 0 0 2.9713 0.105355 0.00132737 0.00851397 -0.00889029 -0.736478 -3.51895 -34.3894 -1.82626 0.03 364.324 
123 1 1 1.39331 0.311113 1.57681 0 0 0 2.5982 0.124272 -0.00750639 -0.140897 0.0228391 0.291487 -4.04184 -46.6818 -5.92559 0.03 340.871 
7 1 1 1.53756 0.311683 1.57688 0 0 0 3.05627 0.322591 0.0312194 3.40456 2.6287 -1.02772 -11.0764 -32.0491 -11.2115 0.03 312.825 
56 1 1 1.62454 0.311539 1.57685 0 0 0 2.88955 -0.0193023 -0.00932012 0.00351899 0.0398365 0.63014 1.02657 -37.1 -1.37925 0.03 346.315 
316 1 1 0.148101 0.372978 1.57675 0 0 0 1.53532 0.276748 -0.0122804 1.0034 2.51956 2.6503 -30.186 -74.312 -17.4437 0.03 309.863 
298 1 1 0.261185 0.358188 1.57658 0 0 0 1.48682 0.647423 -0.0569322 0.436132 -4.66854 11.562 -19.9088 -84.3929 0.81681 0.03 326.816 
31 1 1 0.493245 0.367562 1.57587 0 0 0 2.22461 0.136582 0.0980325 -18.203 -0.718969 -49.1926 -0.778766 -61.788 2.56474 0.03 329.685 
340 1 1 0.589798 0.34501 1.5826 0 0 0 2.42002 -0.00434653 -0.0633947 0 0 -2.77371 -0.472115 -58.3531 4.79815 0.03 310.144 
53 1 1 0.692312 0.372071 1.57759 0 0 0 2.18347 0.248568 -0.326284 0 0 -2.77371 -19.706 -64.6276 0.782016 0.03 321.381 
233 1 1 0.822859 0.373326 1.57807 0 0 0 2.64444 0.0133586 -0.0863323 0.0292522 -0.886549 -2.35634 10.1841 -42.6361 0.387936 0.03 303.472 
38 1 1 0.985558 0.371178 1.57686 0 0 0 2.35287 0.131645 0.00122268 -0.00449024 0.000359461 -0.0489188 -4.40623 -55.1305 -3.55659 0.03 343.769 
187 1 1 1.09832 0.377122 1.5794 0 0 0 2.77077 0.366766 0.129467 0 0 -2.77371 -12.4725 -40.9941 -10.7892 0.03 303.743 
94 1 1 1.33538 0.351211 1.5772 0 0 0 2.87325 -0.0410887 0.00874202 -0.46784 -1.92257 -1.97438 2.58346 -36.5389 -0.717875 0.03 355.245 
24 1 1 1.46021 0.362179 1.58679 0 0 0 3.1453 0.0699269 -0.380367 0.465895 -0.136705 -2.42017 -6.33489 2.76579 1.66545 0.03 304.149 
143 1 1 1.60601 0.368504 1.57779 0 0 0 2.76229 -0.0320784 -0.250952 0.127714 -0.21685 -2.66262 17.6702 -42.7864 3.19936 0.03 367.796 
277 1 1 0.337154 0.402067 1.5891 0 0 0 0.76066 0.159775 -1.02165 0 0 -2.77371 3.33791 -22.1892 -26.8254 0.03 300.317 
300 1 1 0.414847 0.375474 1.57672 0 0 0 1.96351 -0.151754 -0.229878 8.23832 -9.29907 -4.97012 5.78316 -60.6871 16.8601 0.03 329.462 
128 1 1 0.892777 0.401781 1.57686 0 0 0 2.57585 0.0797763 0.000716511 -0.00233501 0.000116766 -0.0468162 -2.67003 -47.6653 -6.99507 0.03 320.264 
291 1 1 1.19021 0.384249 1.57676 0 0 0 2.89994 0.00964815 -0.03193 -1.26391 2.13529 -0.465014 -1.50534 -31.8765 -1.37085 0.03 318.702 
126 1 1 1.40301 0.377087 1.57685 0 0 0 3.1489 0.282567 -0.00206924 -0.105383 0.0418365 -0.0637291 -9.42168 -28.3502 -12.4551 0.03 339.032 
289 1 1 0.174828 0.425615 1.58769 0 0 0 1.25901 0.454139 0.018661 0 0 -2.77371 -57.9498 -78.8997 0.83805 0.03 322.573 
148 1 1 0.51818 0.422073 1.57574 0 0 0 2.35895 0.50746 -0.950906 47.9613 3.04502 84.9469 -13.6538 -40.4414 -7.67886 0.03 332.562 
77 1 1 1.0044 0.428571 1.57686 0 0 0 2.11665 0.198403 -8.54489e-05 0.0003601 -3.7924e-05 0.00337615 -6.64054 -63.0355 4.58591 0.03 350.994 
135 1 1 1.20526 0.442132 1.57689 0 0 0 2.84585 -0.0479356 0.012814 0.866168 2.98439 0.112757 1.82756 -38.5576 0.251294 0.03 366.488 
101 1 1 1.33283 0.410807 1.5766 0 0 0 2.907 0.00796204 0.0414508 0.109476 -2.3213 2.99309 -1.85482 -36.8055 -2.19606 0.03 368.347 
170 1 1 1.5877 0.425533 1.57685 0 0 0 2.96452 0.0508489 -0.0140096 1.01323 -1.23239 0.709709 10.012 -25.4273 -8.30146 0.03 354.887 
513 1 1 0.257051 0.497454 2.47406 0 0 0 -0 -0 -1 0 0 0 0 0 0 0.03 300 
223 1 1 0.0975898 0.457235 1.57825 0 0 0 0.658368 -0.512036 0.4076 29.0586 109.827 -68.8438 17.0565 -106.519 -1.86821 0.03 303.673 
255 1 1 0.193661 0.481155 1.57489 0 0 0 1.02247 0.422721 0.150154 -14.3682 10.9029 23.3212 -11.1248 -99.3994 -10.9175 0.03 316.314 
285 1 1 0.237243 0.444558 1.58555 0 0 0 0.569427 -0.168886 -0.789911 -5.30929 -8.70161 8.08373 49.57 38.4074 4.89511 0.03 300.246 
245 1 1 0.369938 0.460968 1.57448 0 0 0 2.30737 0.723676 0.0604597 -26.091 -36.6631 -14.3907 -20.8127 -55.2911 -6.71245 0.03 311.594 
270 1 1 0.4278 0.447413 1.57633 0 0 0 1.60862 0.031774 0.120206 19.0716 -8.0334 14.3734 1.39972 -79.5582 0.130648 0.03 315.532 
84 1 1 0.655578 0.466808 1.57555 0 0 0 2.28135 0.149546 -0.0126952 -0.84272 -2.23626 24.4603 -7.70715 -60.4275 7.10313 0.03 334.326 
176 1 1 0.802493 0.453479 1.57687 0 0 0 2.34777 0.29176 5.66871e-05 0.000946464 0.00180422 -0.0902102 -9.76605 -55.2905 3.7442 0.03 328.299 
25 1 1 0.909015 0.466155 1.576 0 0 0 2.36637 0.216153 0.156588 -2.19621 -2.08832 11.4317 -4.74301 -58.8219 -1.72157 0.03 329.963 
134 1 1 1.3435 0.469437 1.57681 0 0 0 2.7696 0.0553708 -0.0111698 -0.251378 0.967685 -0.929487 -12.8174 -29.1733 5.31673 0.03 329.652 
37 1 1 1.40383 0.476304 1.57658 0 0 0 2.80656 0.0672789 0.0657341 -0.0229705 0.1735 -0.127773 -2.19191 -40.15 1.75478 0.03 340.927 
69 1 1 1.46469 0.466345 1.57685 0 0 0 2.81989 -0.0113932 0.013392 -0.182553 -0.143483 -0.490867 0.430864 -39.5638 -6.4876 0.03 379.404 
111 1 1 1.53292 0.450233 1.57702 0 0 0 2.84232 -0.103187 -0.0131706 0.0150881 -0.0421603 -1.73148 3.45832 -38.6266 2.9999 0.03 350.122 
308 1 1 0.315571 0.493895 1.57764 0 0 0 2.04198 0.461741 -0.39018 -5.21824 -0.755559 -0.0676281 -16.9642 -58.1071 0.562138 0.03 314.169 
279 1 1 0.43112 0.507737 1.57584 0 0 0 1.4383 -0.0897383 0.00113392 -4.9716 -0.27056 6.70343 2.20804 -87.761 13.7868 0.03 324.924 
116 1 1 0.729699 0.504334 1.57686 0 0 0 2.28117 0.25919 -0.000975466 0.00412548 -0.000622229 0.123313 -8.67606 -57.5359 -6.98913 0.03 351.875 
6 1 1 0.849478 0.491621 1.57689 0 0 0 2.52233 0.166846 -0.00882434 1.34071 -0.299289 -0.0262924 -4.40696 -44.1709 3.52828 0.03 328.28 
160 1 1 0.952689 0.506275 1.57805 0 0 0 2.46755 0.301481 0.178226 2.79882 2.04409 -1.28051 -11.7895 -50.4585 2.39325 0.03 359.508 
4 1 1 1.02392 0.48766 1.57693 0 0 0 2.12387 -0.0673225 -0.00502824 0.263398 0.884286 -0.92835 0.570877 -62.2162 -3.83182 0.03 341.806 
136 1 1 1.21044 0.501803 1.57688 0 0 0 2.79498 -0.0565239 0.0119324 0.86534 0.775604 -0.182323 2.20805 25.3195 -1.43474 0.03 334.18 
169 1 1 1.26637 0.480408 1.57668 0 0 0 2.76993 -0.219655 0.161816 -1.21063 -1.45158 -2.58965 8.42747 -42.1177 5.42896 0.03 353.398 
104 1 1 1.50726 0.508865 1.57726 0 0 0 2.8713 0.0134525 0.0341571 0 0 -2.77371 -0.713565 -37.4501 -1.20053 0.03 358.679 
149 1 1 1.56627 0.502559 1.58912 0 0 0 3.0474 0.12594 -0.223542 0 0 -2.77371 1.54188 47.0949 5.86157 0.03 302.253 
26 1 1 1.63698 0.48713 1.57687 0 0 0 3.07892 -0.0827742 -0.0132132 -0.4778 -1.51316 -0.343343 2.15662 -30.2433 -5.87026 0.03 342.95 
238 1 1 0.145849 0.548658 1.57803 0 0 0 0.918973 0.260762 0.228556 0 0 -2.77371 9.38391 -58.8812 21.146 0.03 303.675 
182 1 1 0.231661 0.53502 1.57863 0 0 0 1.361 0.32035 0.195029 0 0 -2.77371 -10.8249 -88.8553 8.69513 0.03 303.352 
272 1 1 0.370591 0.521346 1.57682 0 0 0 1.79545 0.0438783 -0.0208552 0.107359 -0.0225141 1.7225 -1.43025 -73.8666 2.15688 0.03 318.598 
249 1 1 0.503639 0.555473 1.57526 0 0 0 2.04734 0.350131 0.177211 1.48078 -2.77359 10.7435 -12.7882 -71.7173 31.7431 0.03 330.492 
226 1 1 0.641489 0.550357 1.57666 0 0 0 2.40486 0.33316 -0.0548713 2.20846 -1.36391 1.25537 -10.8977 -53.3411 -6.96408 0.03 334.787 
21 1 1 0.822363 0.54649 1.57712 0 0 0 2.0083 0.0855581 0.211669 0 0 -2.77371 -2.94335 -67.2247 0.326662 0.03 343.62 
34 1 1 1.05794 0.537087 1.581 0 0 0 2.52081 -0.338129 -0.0590975 3.98803 -5.33811 -0.371363 -5.71539 -15.704 4.71754 0.03 337.115 
117 1 1 1.15253 0.517098 1.57673 0 0 0 2.57929 -0.667538 0.0161122 0.165492 0.0202095 1.33563 22.0257 -48.7398 20.3164 0.03 350.336 
16 1 1 1.2462 0.549919 1.57967 0 0 0 2.70927 0.0111794 -0.0874404 0 0 -2.77371 -4.67787 -35.6617 1.57889 0.03 363.398 
61 1 1 1.3586 0.527101 1.57693 0 0 0 2.75013 0.0445639 0.0146297 1.12667 2.36269 -0.671073 -1.42461 -41.9585 -6.65563 0.03 360.443 
152 1 1 1.44152 0.522946 1.57749 0 0 0 2.89043 0.0254717 -0.0897996 -0.120232 -0.167664 -2.67532 -4.29923 -35.7253 -11.3612 0.03 372.448 
42 1 1 1.61141 0.541199 1.57681 0 0 0 2.92517 -0.145089 0.000633902 0.15399 -0.734958 0.337095 4.73181 -36.0444 10.7091 0.03 367.446 
488 1 1 0.339114 0.52293 2.48217 0 0 0 -0 -0 -1 0 0 0 0 0 0 0.03 300 
304 1 1 0.442284 0.567787 1.57682 0 0 0 2.15361 0.121171 -0.127704 14.3054 14.2316 -14.748 -3.21852 -50.7961 -32.7125 0.03 339.494 
119 1 1 0.697646 0.572118 1.5864 0 0 0 2.62101 -0.0691852 -0.0519065 0 0 -2.77371 -4.40957 -67.5243 2.32025 0.03 355.389 
48 1 1 0.75752 0.564728 1.57688 0 0 0 2.31151 -0.00735124 -0.00772485 0.0285776 0.000332866 0.111692 0.245548 -56.4885 10.321 0.03 334.859 
227 1 1 0.949781 0.567424 1.57667 0 0 0 2.58575 0.0244961 -0.000358813 -0.383449 -1.16644 1.99591 -0.801433 -40.7154 -9.82982 0.03 329.111 
147 1 1 1.00894 0.570868 1.58045 0 0 0 2.67327 -0.163957 -0.141634 1.49058 4.28478 -2.39995 9.11847 -15.1072 -30.9002 0.03 338.416 
17 1 1 1.11484 0.564247 1.57592 0 0 0 3.04256 -0.334409 -0.0322668 4.79973 3.90207 -3.45855 3.00413 -29.7294 -26.559 0.03 334.462 
75 1 1 1.18362 0.574268 1.58652 0 0 0 2.43225 -0.328463 -0.553329 0 0 -2.77371 0.33717 -22.6639 -40.4536 0.03 325.014 
118 1 1 1.30403 0.565892 1.57692 0 0 0 2.72371 0.0914901 -0.00607059 0.152264 0.036119 -0.739738 -3.07885 -42.6169 -1.85094 0.03 358.194 
105 1 1 1.55025 0.565603 1.57681 0 0 0 2.77285 -0.0272233 0.00104607 -0.220299 0.102634 0.193535 0.930754 -41.1368 -12.7448 0.03 346.176 
62 1 1 0.480326 0.136379 1.62767 0 0 0 1.4182 -0.774813 0.581532 0 0 -2.77371 7.76262 -74.2581 53.7334 0.03 312.848 
307 1 1 0.556705 0.159936 1.61547 0 0 0 1.47035 0.484159 -0.498862 0 0 -2.77371 -13.1804 -64.4075 42.2163 0.03 304.079 
76 1 1 0.940184 0.132672 1.63024 0 0 0 2.46625 0.45463 -0.461819 1.18533 1.46837 -0.620405 -7.1995 1.1123 23.6434 0.03 323.598 
281 1 1 0.998898 0.155358 1.62716 0 0 0 2.72762 0.258606 -0.0276847 0 0 -2.77371 22.5603 -27.201 11.036 0.03 313.57 
115 1 1 1.0991 0.144439 1.61849 0 0 0 2.1537 0.412466 -0.413002 0.00219498 1.1021 -0.884375 -19.5384 -44.9654 42.3733 0.03 334.519 
49 1 1 1.34373 0.1488 1.61707 0 0 0 2.93763 -0.208258 -0.338374 0.0661431 -0.317673 -2.15946 10.5517 -7.19484 25.1849 0.03 310.876 
365 1 1 0.173276 0.491192 2.4816 0 0 0 -0 -0 -1 0 0 0 0 0 0 0.03 300 
343 1 1 0.139519 0.175114 1.60057 0 0 0 -0.27185 -0.929973 -1.99611 0 0 -2.77371 15.2306 -15.5929 -7.38265 0.03 300 
186 1 1 0.308149 0.157982 1.61502 0 0 0 1.08256 -1.29597 -0.687008 14.4364 -10.4731 7.78666 4.00454 -2.19476 -6.07488 0.03 300.136 
315 1 1 0.207654 0.227597 1.61526 0 0 0 -0.470747 -0.0796601 -0.530274 0 0 -2.77371 -9.54062 -7.58984 -5.27001 0.03 300.219 
349 1 1 0.405009 0.224462 1.62652 0 0 0 0.491035 -0.42141 -0.506171 0 0 -2.77371 -3.83753 -4.45469 17.1422 0.03 300.204 
231 1 1 0.467028 0.212643 1.63369 0 0 0 0.96265 0.0570809 0.106834 0 0 -2.77371 -24.3789 32.7472 -8.82877 0.03 301.59 
284 1 1 0.154118 0.237389 1.58693 0 0 0 -0.544935 -0.699778 -1.6885 0 0 -2.77371 10.3945 -15.594 22.8987 0.03 300.047 
44 1 1 1.30024 0.261009 1.61573 0 0 0 2.7958 -0.00491095 0.110398 -1.17155 -0.151321 -2.35692 0.406695 41.3364 1.16073 0.03 305.428 
347 1 1 0.400685 0.286783 1.62295 0 0 0 0.0229234 -0.119903 -0.893003 0 0 -2.77371 4.01353 19.1816 -0.151911 0.03 301.005 
240 1 1 0.470674 0.285381 1.62589 0 0 0 0.852394 -0.079159 -0.292719 -2.76588 -11.5906 -2.13782 23.6778 30.8458 -21.8752 0.03 300.164 
282 1 1 0.538453 0.285357 1.62368 0 0 0 0.887877 -0.342673 -0.661059 39.4804 12.6825 10.074 -0.462288 -38.4275 -7.74219 0.03 300.005 
338 1 1 0.633286 0.288068 1.62133 0 0 0 1.40877 -0.26321 -0.570798 0 0 -2.77371 -8.72207 -19.1931 -9.26053 0.03 300.086 
324 1 1 0.116436 0.32492 1.60151 0 0 0 -0.201021 0.0309794 -0.916766 0 0 -2.77371 47.7297 9.47316 -10.4533 0.03 300.12 
73 1 1 0.253618 0.333925 1.63081 0 0 0 0.320192 -0.0115698 -0.254136 0.130998 5.68083 -5.34137 39.6476 50.0355 -19.0827 0.03 301.677 
71 1 1 0.747909 0.328166 1.6237 0 0 0 2.38858 0.00743863 -0.112164 11.085 12.6848 19.1447 9.65448 59.4267 24.7981 0.03 303.027 
155 1 1 1.57976 0.309285 1.61918 0 0 0 2.95911 0.313645 0.170544 0.63737 0.260429 -2.4105 -2.92835 28.9276 0.51049 0.03 303.851 
331 1 1 0.340526 0.336568 1.59487 0 0 0 0.646533 -0.233107 -0.891098 0 0 -2.77371 7.12791 -4.92974 25.0183 0.03 300.537 
212 1 1 0.499513 0.33706 1.62539 0 0 0 1.05932 -0.345753 -0.172093 -33.5697 -10.5009 -26.4232 19.2488 12.5665 13.6302 0.03 300.678 
204 1 1 0.213002 0.387482 1.6205 0 0 0 0.235922 0.54247 -1.25029 0 0 -2.77371 -55.2351 15.8112 33.3976 0.03 300.453 
346 1 1 0.428332 0.407984 1.62408 0 0 0 0.605632 0.280446 -0.19359 -2.28146 -1.11261 23.8867 -6.35196 1.4571 0.7158 0.03 301.231 
334 1 1 0.537666 0.397429 1.62404 0 0 0 1.01535 0.00403005 -0.55299 12.4466 -1.79738 25.9028 32.4667 -14.7406 3.81875 0.03 300.183 
153 1 1 1.34753 0.382707 1.62968 0 0 0 2.82605 0.205964 0.0219555 0 0 -2.77371 15.0971 31.4305 4.79708 0.03 305.203 
309 1 1 0.112245 0.421463 1.62182 0 0 0 -0.675248 0.248959 -0.700158 -29.0586 -109.827 63.2964 22.4878 23.924 9.71277 0.03 300.404 
344 1 1 0.282029 0.424328 1.6158 0 0 0 0.795925 -0.417927 -1.30419 45.4339 -20.8475 23.8685 -26.3719 -36.0207 8.62473 0.03 300.003 
254 1 1 0.668783 0.430387 1.61967 0 0 0 2.499 0.41721 0.34946 2.53648 -5.27587 15.2446 1.73684 39.5083 27.7916 0.03 300.858 
261 1 1 0.145892 0.475186 1.63055 0 0 0 -0.71925 -0.200685 -0.480004 0 0 -2.77371 5.43627 32.2449 4.72279 0.03 300.237 
190 1 1 0.384618 0.465985 1.62896 0 0 0 0.914656 0.860623 0.458556 -21.585 -33.6167 -7.86587 8.42613 9.22915 3.96398 0.03 301.329 
263 1 1 0.456747 0.477066 1.61873 0 0 0 1.18382 0.167772 0.366739 9.63542 -7.0408 7.56026 -4.41027 64.6648 0.73651 0.03 301.519 
178 1 1 0.525044 0.478488 1.59859 0 0 0 1.73448 0.500661 -0.702749 0 0 -2.77371 -19.9664 3.72191 0.815436 0.03 300.94 
352 1 1 0.586501 0.459558 1.59307 0 0 0 1.90088 0.116574 -1.07562 0 0 -2.77371 -0.0405703 13.079 -11.8206 0.03 301.503 
296 1 1 0.982636 0.483612 1.62526 0 0 0 1.55071 -0.0383061 -0.380327 0 0 -2.77371 3.23232 42.6821 10.6208 0.03 301.075 
20 1 1 1.39224 0.496784 1.63134 0 0 0 2.35038 0.072711 0.0181438 -0.269259 0.455256 -0.256787 -0.235511 28.3976 10.6361 0.03 302.819 
201 1 1 0.456588 0.550004 1.63109 0 0 0 0.350917 0.42759 0.00224184 12.0765 16.0811 14.9467 -7.81629 -5.21826 -9.96636 0.03 300.489 
28 1 1 0.550152 0.540558 1.6069 0 0 0 1.99371 0.329279 0.406986 15.2976 -6.2342 23.6453 23.6564 64.9016 -25.4565 0.03 302.411 
265 1 1 0.65946 0.525993 1.62794 0 0 0 1.66953 -0.248154 -0.0800324 -0.155711 -0.668832 2.92214 -4.23581 -2.7258 -12.8028 0.03 301.339 
102 1 1 0.87121 0.538853 1.61166 0 0 0 2.39272 0.395528 0.19219 0 0 -2.77371 -12.257 80.6851 2.65535 0.03 301.399 
106 1 1 0.936146 0.536131 1.6271 0 0 0 1.63044 0.164878 0.0234526 0.0893781 0.764268 -2.07938 6.72817 25.722 -20.7703 0.03 302.917 
98 1 1 1.28882 0.518414 1.61697 0 0 0 2.60689 0.0725848 0.171709 -0.309005 -0.186259 -4.89252 -12.3617 44.8684 8.20409 0.03 302.534 
271 1 1 0.356955 0.565866 1.62708 0 0 0 1.17097 0.217233 0.107369 22.3979 -10.0227 7.57018 -29.2714 38.7017 18.0651 0.03 300.865 
2 1 1 1.38929 0.555696 1.61951 0 0 0 2.84913 0.00868161 -0.0313185 0.934258 1.39398 -1.99417 -5.70641 39.4773 -4.43212 0.03 317.841 
303 1 1 0.157217 0.599567 1.61004 0 0 0 0.387467 0.208713 -0.0394085 0.0449363 0.0519945 -2.76286 -21.4115 -101.776 -66.4173 0.03 316.194 
237 1 1 0.308193 0.589422 1.60542 0 0 0 1.32934 0.617637 -0.34086 -22.3979 10.0227 -13.1176 -23.9384 -27.3639 -42.0149 0.03 303.549 
55 1 1 0.483324 0.600243 1.60884 0 0 0 1.55113 0.463777 -0.226361 -21.9619 22.2399 -21.1599 -3.98928 -2.98106 -57.6221 0.03 305.545 
276 1 1 0.567957 0.606085 1.62419 0 0 0 1.62338 -0.134739 0.0191604 0 0 -2.77371 -4.76291 -64.5313 -49.4407 0.03 305.621 
57 1 1 0.847054 0.594844 1.60411 0 0 0 2.16055 0.0262706 0.0325731 0.35332 -0.439886 -1.93519 -27.0643 -6.79522 -34.6136 0.03 333.858 
89 1 1 0.910741 0.592044 1.61491 0 0 0 2.20073 -0.194797 -0.322729 -0.883791 0.863992 -2.43612 12.691 -22.1318 -31.776 0.03 330.418 
65 1 1 1.07117 0.601602 1.61078 0 0 0 2.7211 -0.268497 -0.26827 -0.000416709 -0.980469 -0.997121 12.6912 -29.043 -31.4406 0.03 315.191 
27 1 1 1.13648 0.598306 1.61851 0 0 0 2.50083 -0.431004 0.127074 5.73654 8.09622 29.8468 -10.6337 -39.3555 -18.3515 0.03 333.758 
99 1 1 1.23215 0.601629 1.62327 0 0 0 2.10215 0.0813948 0.0878399 0 0 -2.77371 -19.5823 -41.1356 -42.3874 0.03 342.722 
79 1 1 1.34759 0.596323 1.60552 0 0 0 2.80252 0.0232805 0.0549063 0.299966 -0.277027 -2.06011 -7.4902 -14.7608 -28.4057 0.03 334.362 
156 1 1 1.44022 0.595289 1.60447 0 0 0 2.51053 -0.162138 -0.1625 0.000765297 -0.978056 -0.99724 7.67592 -45.0184 -25.421 0.03 353.699 
18 1 1 1.59674 0.593265 1.60241 0 0 0 2.87754 -0.10433 -0.0993056 0.575653 -0.337739 -0.499254 4.74114 -17.8193 -35.3138 0.03 332.014 
154 1 1 0.781544 0.620296 1.62947 0 0 0 2.0821 -0.351651 -0.35681 0.0191575 -1.09593 -0.86863 16.7727 -35.8825 -54.8116 0.03 325.392 
332 1 1 0.211616 0.113202 1.64949 0 0 0 0.225213 -0.121754 0.164565 1.788 2.32749 0.0540679 21.7506 -39.8438 32.3791 0.03 306.349 
283 1 1 0.286043 0.100114 1.6633 0 0 0 0.802067 -0.238781 0.354585 0 0 -2.77371 13.6488 -0.330864 7.99445 0.03 303.246 
74 1 1 0.733463 0.116812 1.64853 0 0 0 2.56003 -0.079777 0.159753 0 0 -2.77371 9.32146 -23.8722 23.7372 0.03 305.803 
333 1 1 0.791928 0.0980822 1.66485 0 0 0 2.03841 0.25092 -0.251374 0.00189811 1.09341 -0.894928 -11.8933 -43.4448 49.3462 0.03 311.09 
139 1 1 0.843274 0.12296 1.63998 0 0 0 2.10171 0.100703 0.0912075 -1.2367 -2.22319 -5.97711 -0.202088 -54.0924 36.2622 0.03 339.17 
137 1 1 0.657418 0.128773 1.63377 0 0 0 2.06822 0.115945 -0.217879 0.784324 5.47589 9.84747 -6.85185 -33.2052 57.9533 0.03 334.658 
252 1 1 0.637657 0.185112 1.63417 0 0 0 0.928536 -0.133884 -0.170641 1.93221 -1.92368 -5.24921 4.75055 13.2942 -16.0249 0.03 300.614 
183 1 1 0.588446 0.222707 1.64301 0 0 0 1.58215 -0.476939 0.0379746 0 0 -2.77371 -30.7558 70.3203 27.8217 0.03 300.74 
319 1 1 0.760874 0.223492 1.64212 0 0 0 1.74016 0.0178512 -0.146562 0 0 -2.77371 24.3173 41.486 -14.2233 0.03 300.778 
189 1 1 0.299939 0.248867 1.63279 0 0 0 1.06143 0.403562 -0.237463 29.9556 50.2167 30.4574 -41.481 -20.2378 53.7486 0.03 300.006 
330 1 1 0.52467 0.237669 1.65714 0 0 0 1.70714 0.15796 -0.476534 -39.4804 -12.6825 -15.6215 4.98844 -12.7212 1.23177 0.03 300.018 
322 1 1 0.899182 0.239454 1.63907 0 0 0 2.20267 0.109289 -0.00335705 0 0 -2.77371 -28.6268 32.745 -20.5196 0.03 301.542 
202 1 1 0.117364 0.26699 1.62446 0 0 0 -0.650714 -0.724322 -1.53606 0 0 -2.77371 -18.7052 -2.55682 -8.91106 0.03 300.001 
211 1 1 0.340287 0.297468 1.64056 0 0 0 0.046358 -0.308798 -0.891088 0 0 -2.77371 -8.1139 -51.9843 5.41838 0.03 300.011 
181 1 1 0.791415 0.303131 1.66984 0 0 0 1.74719 0.0343333 -0.0633071 0 0 -2.77371 -19.5036 24.9736 24.781 0.03 300.753 
250 1 1 0.36388 0.368357 1.6408 0 0 0 0.270608 0.0962017 -0.795108 0 0 -2.77371 -14.4624 -5.54514 -8.89752 0.03 300.015 
234 1 1 0.420032 0.343773 1.63105 0 0 0 0.317956 -0.0586571 -0.775092 -0.819535 -0.00286633 3.47557 -5.46018 6.57104 -2.96458 0.03 300.044 
216 1 1 0.614491 0.358765 1.63554 0 0 0 1.63552 0.410003 -0.0819504 0 0 -2.77371 21.0509 43.5136 -6.09857 0.03 300.163 
295 1 1 0.473495 0.437446 1.66675 0 0 0 1.48876 0.253479 0.00320518 -33.5025 12.4769 -199.408 5.72142 -28.5558 -18.9176 0.03 300.028 
274 1 1 0.588867 0.437429 1.65664 0 0 0 1.09126 -0.198396 -1.24147 0 0 -2.77371 -11.1011 -12.2079 4.19166 0.03 300.001 
210 1 1 0.208119 0.472042 1.63558 0 0 0 -0.180563 0.144811 -2.15513 0 0 -2.77371 4.25333 -2.18156 -3.26217 0.03 300.002 
335 1 1 0.6921 0.467157 1.66517 0 0 0 1.45298 0.21684 -0.504275 0 0 -2.77371 -13.7631 -8.77074 29.662 0.03 300.277 
130 1 1 1.65133 0.45289 1.65517 0 0 0 2.55146 -0.00425569 -0.363706 0 0 -2.77371 -5.78272 17.8909 -2.26063 0.03 301.155 
208 1 1 0.298515 0.515938 1.63017 0 0 0 0.273973 0.886459 -0.799809 5.21824 0.755559 -5.4798 7.33507 -7.48007 -14.3381 0.03 300.092 
220 1 1 0.406693 0.518736 1.63472 0 0 0 0.548583 1.03876 -0.173542 10.0869 24.9742 29.6484 -51.1556 -29.8252 3.18675 0.03 300.047 
198 1 1 0.497959 0.502135 1.65216 0 0 0 2.04905 0.758995 -0.84084 3.9266 11.1262 4.51873 19.4963 11.6086 41.4944 0.03 300.026 
262 1 1 0.569719 0.498576 1.64386 0 0 0 1.58092 -0.722329 -0.405866 5.91798 -0.545786 -0.295578 1.84395 -24.3133 -24.9239 0.03 300.084 
239 1 1 0.794663 0.531633 1.64261 0 0 0 1.55189 0.277362 -0.0987468 0 0 -2.77371 -8.43035 41.701 4.12706 0.03 300.768 
150 1 1 1.01817 0.540815 1.63536 0 0 0 2.12543 -0.424166 -0.120495 0 0 -2.77371 -6.61328 17.9994 24.1996 0.03 301.757 
290 1 1 0.248667 0.573596 1.63889 0 0 0 -0.471175 0.712057 -0.956675 0 0 -2.77371 29.7276 -30.1455 4.88823 0.03 300.02 
329 1 1 0.516017 0.570901 1.64602 0 0 0 1.63354 0.108118 -0.990659 39.1469 -46.2357 42.217 -22.9988 36.1004 13.2208 0.03 300.015 
224 1 1 0.601392 0.549087 1.64154 0 0 0 1.34016 -0.285946 0.201369 -0.520317 -3.41967 -1.82477 31.5974 21.279 23.4743 0.03 301.85 
243 1 1 0.73483 0.57966 1.63387 0 0 0 1.52511 0.0558631 -0.253806 0 0 -2.77371 -29.6795 0.414983 -30.7606 0.03 300.816 
52 1 1 0.685293 0.613809 1.64535 0 0 0 1.53589 0.0886896 -0.105409 0 0 -2.77371 -7.49989 37.4352 43.85 0.03 301.807 
301 1 1 0.198122 0.629155 1.64223 0 0 0 0.617013 0.175087 -0.236981 -0.0449363 -0.0519945 -2.78457 -13.7615 7.80314 -38.0548 0.03 303.417 
326 1 1 0.473796 0.647046 1.65617 0 0 0 1.04572 0.148983 0.153782 -0.0153326 -1.38558 -0.864679 -6.84578 -116.163 -23.7346 0.03 337.133 
72 1 1 0.627486 0.635387 1.64455 0 0 0 1.55275 0.147415 0.168484 -0.130725 -0.523063 -1.238 -7.69869 -47.0129 -69.2846 0.03 338.092 
138 1 1 1.02367 0.630218 1.6394 0 0 0 2.67948 -0.372598 -0.372863 0.832435 -1.01971 -1.04817 -2.31579 -8.00391 -7.45156 0.03 313.506 
317 1 1 0.386536 0.0642226 1.69872 0 0 0 1.22422 -0.280768 0.282513 0.532311 0.796829 -0.834795 32.7891 -52.2331 60.9283 0.03 312.063 
196 1 1 0.577123 0.150606 1.67374 0 0 0 0.488996 0.0347049 -0.639963 0 0 -2.77371 6.82614 -20.0527 -26.4054 0.03 300.297 
219 1 1 0.417152 0.260305 1.67625 0 0 0 0.552483 0.266387 -0.4 0 0 -2.77371 -21.6083 2.24936 -9.85664 0.03 300.007 
253 1 1 0.252901 0.283953 1.66447 0 0 0 0.168079 -0.67265 -1.19078 2.54164 62.376 -68.6319 12.8335 -3.59751 -12.06 0.03 300.022 
341 1 1 0.656107 0.321263 1.67952 0 0 0 1.88537 -0.733283 -0.0890339 0 0 -2.77371 10.6458 -38.4114 -11.8413 0.03 300.011 
222 1 1 0.181219 0.355707 1.68952 0 0 0 0.081894 -0.259746 -0.710315 0 0 -2.77371 37.2626 -35.6344 8.37345 0.03 300.003 
184 1 1 0.47256 0.368796 1.66778 0 0 0 0.833037 -0.0785066 -0.262934 -1.56817 1.06881 -1.66493 -42.9277 -16.8204 8.75179 0.03 300.006 