ITEM: TIMESTEP
18000
ITEM: NUMBER OF ATOMS
176
ITEM: BOX BOUNDS ff ff ff
0 3.3
-0.3 0.8
-0.5 3
ITEM: ATOMS id type type x y z ix iy iz vx vy vz fx fy fz omegax omegay omegaz radius f_Temp[0] 
67 1 1 0.351021 0.24345 1.80465 0 0 0 0 0 -2.39935 0 0 -2.77371 0 0 0 0.03 300 
142 1 1 0.271856 0.292457 1.80022 0 0 0 0 0 -2.4174 0 0 -2.77371 0 0 0 0.03 300 
124 1 1 0.108395 0.326026 1.7986 0 0 0 0 0 -2.42397 0 0 -2.77371 0 0 0 0.03 300 
86 1 1 0.19434 0.331338 1.7943 0 0 0 0 0 -2.44133 0 0 -2.77371 0 0 0 0.03 300 
133 1 1 0.471209 0.311123 1.81962 0 0 0 0 0 -2.33735 0 0 -2.77371 0 0 0 0.03 300 
23 1 1 0.298609 0.364728 1.80841 0 0 0 0 0 -2.38395 0 0 -2.77371 0 0 0 0.03 300 
82 1 1 0.468787 0.384733 1.80088 0 0 0 0 0 -2.41475 0 0 -2.77371 0 0 0 0.03 300 
140 1 1 0.46939 0.484878 1.78859 0 0 0 0 0 -2.46419 0 0 -2.77371 0 0 0 0.03 300 
113 1 1 0.369388 0.526215 1.78893 0 0 0 0 0 -2.46282 0 0 -2.77371 0 0 0 0.03 300 
108 1 1 0.171365 0.231672 1.83692 0 0 0 0 0 -2.26358 0 0 -2.77371 0 0 0 0.03 300 
41 1 1 0.102233 0.267031 1.82839 0 0 0 0 0 -2.30027 0 0 -2.77371 0 0 0 0.03 300 
8 1 1 0.355542 0.30862 1.84418 0 0 0 0 0 -2.23189 0 0 -2.77371 0 0 0 0.03 300 
96 1 1 0.363069 0.380034 1.824 0 0 0 0 0 -2.31891 0 0 -2.77371 0 0 0 0.03 300 
30 1 1 0.179788 0.4242 1.85465 0 0 0 0 0 -2.18539 0 0 -2.77371 0 0 0 0.03 300 
10 1 1 0.242338 0.433913 1.83352 0 0 0 0 0 -2.27829 0 0 -2.77371 0 0 0 0.03 300 
32 1 1 0.353388 0.44487 1.84927 0 0 0 0 0 -2.20943 0 0 -2.77371 0 0 0 0.03 300 
54 1 1 0.278399 0.490166 1.84479 0 0 0 0 0 -2.22924 0 0 -2.77371 0 0 0 0.03 300 
14 1 1 0.416144 0.265826 1.87022 0 0 0 0 0 -2.11437 0 0 -2.77371 0 0 0 0.03 300 
163 1 1 0.105414 0.438662 1.86486 0 0 0 0 0 -2.13909 0 0 -2.77371 0 0 0 0.03 300 
103 1 1 0.209546 0.484752 1.88194 0 0 0 0 0 -2.05923 0 0 -2.77371 0 0 0 0.03 300 
47 1 1 0.261488 0.255288 1.9264 0 0 0 0 0 -1.83527 0 0 -2.77371 0 0 0 0.03 300 
122 1 1 0.225457 0.365207 1.90229 0 0 0 0 0 -1.95996 0 0 -2.77371 0 0 0 0.03 300 
45 1 1 0.40205 0.339714 1.91755 0 0 0 0 0 -1.88197 0 0 -2.77371 0 0 0 0.03 300 
174 1 1 0.478905 0.416329 1.92526 0 0 0 0 0 -1.84135 0 0 -2.77371 0 0 0 0.03 300 
100 1 1 0.448041 0.468779 1.90819 0 0 0 0 0 -1.93014 0 0 -2.77371 0 0 0 0.03 300 
63 1 1 0.14636 0.503077 1.90467 0 0 0 0 0 -1.94799 0 0 -2.77371 0 0 0 0.03 300 
120 1 1 0.108446 0.229956 1.94305 0 0 0 0 0 -1.74404 0 0 -2.77371 0 0 0 0.03 300 
85 1 1 0.47306 0.247248 1.95998 0 0 0 0 0 -1.64604 0 0 -2.77371 0 0 0 0.03 300 
112 1 1 0.200031 0.295208 1.94452 0 0 0 0 0 -1.7357 0 0 -2.77371 0 0 0 0.03 300 
60 1 1 0.321495 0.290282 1.95271 0 0 0 0 0 -1.68881 0 0 -2.77371 0 0 0 0.03 300 
64 1 1 0.141892 0.342884 1.95727 0 0 0 0 0 -1.66213 0 0 -2.77371 0 0 0 0.03 300 
79 1 1 0.320497 0.448247 1.95655 0 0 0 0 0 -1.66634 0 0 -2.77371 0 0 0 0.03 300 
39 1 1 0.380355 0.466663 1.95864 0 0 0 0 0 -1.65398 0 0 -2.77371 0 0 0 0.03 300 
172 1 1 0.339305 0.526873 1.93955 0 0 0 0 0 -1.76356 0 0 -2.77371 0 0 0 0.03 300 
162 1 1 0.428387 0.521279 1.95149 0 0 0 0 0 -1.69587 0 0 -2.77371 0 0 0 0.03 300 
13 1 1 0.121033 0.279919 1.99663 0 0 0 0 0 -1.41079 0 0 -2.77371 0 0 0 0.03 300 
87 1 1 0.377721 0.27376 1.98105 0 0 0 0 0 -1.51527 0 0 -2.77371 0 0 0 0.03 300 
59 1 1 0.253616 0.343212 1.99975 0 0 0 0 0 -1.38892 0 0 -2.77371 0 0 0 0.03 300 
131 1 1 0.248477 0.419376 1.97307 0 0 0 0 0 -1.56609 0 0 -2.77371 0 0 0 0.03 300 
109 1 1 0.275498 0.521202 2.00241 0 0 0 0 0 -1.37008 0 0 -2.77371 0 0 0 0.03 300 
78 1 1 0.178322 0.227864 2.00985 0 0 0 0 0 -1.31573 0 0 -2.77371 0 0 0 0.03 300 
46 1 1 0.47999 0.300848 2.0246 0 0 0 0 0 -1.20066 0 0 -2.77371 0 0 0 0.03 300 
173 1 1 0.336956 0.309745 2.04215 0 0 0 0 0 -1.04753 0 0 -2.77371 0 0 0 0.03 300 
29 1 1 0.368876 0.379155 2.02021 0 0 0 0 0 -1.23598 0 0 -2.77371 0 0 0 0.03 300 
36 1 1 0.450724 0.395688 2.01772 0 0 0 0 0 -1.2556 0 0 -2.77371 0 0 0 0.03 300 
145 1 1 0.320399 0.410893 2.04236 0 0 0 0 0 -1.04557 0 0 -2.77371 0 0 0 0.03 300 
167 1 1 0.400748 0.432213 2.03451 0 0 0 0 0 -1.11679 0 0 -2.77371 0 0 0 0.03 300 
121 1 1 0.170319 0.453329 2.04488 0 0 0 0 0 -1.02163 0 0 -2.77371 0 0 0 0.03 300 
66 1 1 0.47867 0.463 2.02829 0 0 0 0 0 -1.17015 0 0 -2.77371 0 0 0 0.03 300 
152 1 1 0.163069 0.521312 2.00963 0 0 0 0 0 -1.3173 0 0 -2.77371 0 0 0 0.03 300 
168 1 1 0.476176 0.52212 2.01481 0 0 0 0 0 -1.27816 0 0 -2.77371 0 0 0 0.03 300 
58 1 1 0.112056 0.26459 2.07511 0 0 0 -0 -0 -1 0 0 0 0 0 0 0.03 300 
49 1 1 0.281286 0.254094 2.05587 0 0 0 -0 -0 -1 0 0 0 0 0 0 0.03 300 
155 1 1 0.415544 0.252674 2.05662 0 0 0 -0 -0 -1 0 0 0 0 0 0 0.03 300 
101 1 1 0.162335 0.320161 2.0622 0 0 0 -0 -0 -1 0 0 0 0 0 0 0.03 300 
91 1 1 0.235855 0.316318 2.06734 0 0 0 -0 -0 -1 0 0 0 0 0 0 0.03 300 
81 1 1 0.388958 0.319017 2.07434 0 0 0 -0 -0 -1 0 0 0 0 0 0 0.03 300 
42 1 1 0.226232 0.388276 2.05692 0 0 0 -0 -0 -1 0 0 0 0 0 0 0.03 300 
92 1 1 0.481853 0.374694 2.07939 0 0 0 -0 -0 -1 0 0 0 0 0 0 0.03 300 
69 1 1 0.10427 0.421706 2.04545 0 0 0 0 0 -1.01614 0 0 -2.77371 0 0 0 0.03 300 
99 1 1 0.274564 0.455213 2.05452 0 0 0 -0 -0 -1 0 0 0 0 0 0 0.03 300 
105 1 1 0.377689 0.467755 2.07796 0 0 0 -0 -0 -1 0 0 0 0 0 0 0.03 300 
18 1 1 0.427577 0.512648 2.05763 0 0 0 -0 -0 -1 0 0 0 0 0 0 0.03 300 
118 1 1 0.120657 0.516447 2.06978 0 0 0 -0 -0 -1 0 0 0 0 0 0 0.03 300 
156 1 1 0.35506 0.52072 2.05226 0 0 0 -0 -0 -1 0 0 0 0 0 0 0.03 300 
15 1 1 0.188775 0.261917 2.10056 0 0 0 -0 -0 -1 0 0 0 0 0 0 0.03 300 
80 1 1 0.478513 0.241448 2.09413 0 0 0 -0 -0 -1 0 0 0 0 0 0 0.03 300 
76 1 1 0.262374 0.280345 2.10987 0 0 0 -0 -0 -1 0 0 0 0 0 0 0.03 300 
143 1 1 0.326798 0.368865 2.09847 0 0 0 -0 -0 -1 0 0 0 0 0 0 0.03 300 
130 1 1 0.385847 0.398302 2.08535 0 0 0 -0 -0 -1 0 0 0 0 0 0 0.03 300 
135 1 1 0.110104 0.424702 2.10578 0 0 0 -0 -0 -1 0 0 0 0 0 0 0.03 300 
61 1 1 0.174746 0.456274 2.10564 0 0 0 -0 -0 -1 0 0 0 0 0 0 0.03 300 
9 1 1 0.441781 0.458388 2.10688 0 0 0 -0 -0 -1 0 0 0 0 0 0 0.03 300 
117 1 1 0.191604 0.522741 2.09687 0 0 0 -0 -0 -1 0 0 0 0 0 0 0.03 300 
158 1 1 0.2596 0.52473 2.0834 0 0 0 -0 -0 -1 0 0 0 0 0 0 0.03 300 
157 1 1 0.485815 0.521722 2.08134 0 0 0 -0 -0 -1 0 0 0 0 0 0 0.03 300 
125 1 1 0.33817 0.237417 2.13459 0 0 0 -0 -0 -1 0 0 0 0 0 0 0.03 300 
19 1 1 0.315839 0.298576 2.137 0 0 0 -0 -0 -1 0 0 0 0 0 0 0.03 300 
159 1 1 0.463712 0.3119 2.11984 0 0 0 -0 -0 -1 0 0 0 0 0 0 0.03 300 
3 1 1 0.103577 0.34242 2.12356 0 0 0 -0 -0 -1 0 0 0 0 0 0 0.03 300 
132 1 1 0.181507 0.370772 2.12538 0 0 0 -0 -0 -1 0 0 0 0 0 0 0.03 300 
94 1 1 0.273851 0.347383 2.14506 0 0 0 -0 -0 -1 0 0 0 0 0 0 0.03 300 
20 1 1 0.379347 0.368828 2.13897 0 0 0 -0 -0 -1 0 0 0 0 0 0 0.03 300 
151 1 1 0.494801 0.397371 2.13852 0 0 0 -0 -0 -1 0 0 0 0 0 0 0.03 300 
50 1 1 0.301622 0.417346 2.12549 0 0 0 -0 -0 -1 0 0 0 0 0 0 0.03 300 
169 1 1 0.252456 0.475054 2.12084 0 0 0 -0 -0 -1 0 0 0 0 0 0 0.03 300 
27 1 1 0.362553 0.476213 2.14257 0 0 0 -0 -0 -1 0 0 0 0 0 0 0.03 300 
16 1 1 0.119943 0.514428 2.13329 0 0 0 -0 -0 -1 0 0 0 0 0 0 0.03 300 
83 1 1 0.499782 0.483801 2.12999 0 0 0 -0 -0 -1 0 0 0 0 0 0 0.03 300 
2 1 1 0.337972 0.524085 2.11555 0 0 0 -0 -0 -1 0 0 0 0 0 0 0.03 300 
139 1 1 0.137853 0.229319 2.15735 0 0 0 -0 -0 -1 0 0 0 0 0 0 0.03 300 
88 1 1 0.486268 0.228152 2.15553 0 0 0 -0 -0 -1 0 0 0 0 0 0 0.03 300 
7 1 1 0.417913 0.266516 2.15805 0 0 0 -0 -0 -1 0 0 0 0 0 0 0.03 300 
51 1 1 0.201805 0.313726 2.15925 0 0 0 -0 -0 -1 0 0 0 0 0 0 0.03 300 
144 1 1 0.368613 0.311971 2.17108 0 0 0 -0 -0 -1 0 0 0 0 0 0 0.03 300 
56 1 1 0.445152 0.350079 2.16959 0 0 0 -0 -0 -1 0 0 0 0 0 0 0.03 300 
104 1 1 0.324371 0.382136 2.1786 0 0 0 -0 -0 -1 0 0 0 0 0 0 0.03 300 
77 1 1 0.218563 0.442358 2.17235 0 0 0 -0 -0 -1 0 0 0 0 0 0 0.03 300 
24 1 1 0.44361 0.420007 2.17405 0 0 0 -0 -0 -1 0 0 0 0 0 0 0.03 300 
57 1 1 0.255601 0.512634 2.16984 0 0 0 -0 -0 -1 0 0 0 0 0 0 0.03 300 
149 1 1 0.457968 0.50649 2.17254 0 0 0 -0 -0 -1 0 0 0 0 0 0 0.03 300 
75 1 1 0.387927 0.516304 2.18092 0 0 0 -0 -0 -1 0 0 0 0 0 0 0.03 300 
137 1 1 0.250314 0.231914 2.18548 0 0 0 -0 -0 -1 0 0 0 0 0 0 0.03 300 
115 1 1 0.29951 0.265646 2.21216 0 0 0 -0 -0 -1 0 0 0 0 0 0 0.03 300 
165 1 1 0.36833 0.235983 2.18656 0 0 0 -0 -0 -1 0 0 0 0 0 0 0.03 300 
12 1 1 0.150682 0.290471 2.1948 0 0 0 -0 -0 -1 0 0 0 0 0 0 0.03 300 
170 1 1 0.448147 0.302404 2.21869 0 0 0 -0 -0 -1 0 0 0 0 0 0 0.03 300 
21 1 1 0.18594 0.400862 2.20782 0 0 0 -0 -0 -1 0 0 0 0 0 0 0.03 300 
126 1 1 0.387846 0.395075 2.21081 0 0 0 -0 -0 -1 0 0 0 0 0 0 0.03 300 
34 1 1 0.161462 0.479607 2.18776 0 0 0 -0 -0 -1 0 0 0 0 0 0 0.03 300 
4 1 1 0.283869 0.446206 2.18761 0 0 0 -0 -0 -1 0 0 0 0 0 0 0.03 300 
114 1 1 0.101873 0.240116 2.23116 0 0 0 -0 -0 -1 0 0 0 0 0 0 0.03 300 
1 1 1 0.44893 0.24186 2.23297 0 0 0 -0 -0 -1 0 0 0 0 0 0 0.03 300 
11 1 1 0.20764 0.30353 2.22911 0 0 0 -0 -0 -1 0 0 0 0 0 0 0.03 300 
33 1 1 0.10471 0.363257 2.24227 0 0 0 -0 -0 -1 0 0 0 0 0 0 0.03 300 
71 1 1 0.27192 0.349064 2.2339 0 0 0 -0 -0 -1 0 0 0 0 0 0 0.03 300 
35 1 1 0.342434 0.364463 2.24618 0 0 0 -0 -0 -1 0 0 0 0 0 0 0.03 300 
160 1 1 0.115232 0.435564 2.22022 0 0 0 -0 -0 -1 0 0 0 0 0 0 0.03 300 
38 1 1 0.303454 0.414467 2.25292 0 0 0 -0 -0 -1 0 0 0 0 0 0 0.03 300 
154 1 1 0.211019 0.445658 2.24167 0 0 0 -0 -0 -1 0 0 0 0 0 0 0.03 300 
106 1 1 0.375691 0.47682 2.22766 0 0 0 -0 -0 -1 0 0 0 0 0 0 0.03 300 
129 1 1 0.201147 0.51232 2.22784 0 0 0 -0 -0 -1 0 0 0 0 0 0 0.03 300 
89 1 1 0.26845 0.48437 2.23991 0 0 0 -0 -0 -1 0 0 0 0 0 0 0.03 300 
26 1 1 0.474436 0.482152 2.22708 0 0 0 -0 -0 -1 0 0 0 0 0 0 0.03 300 
161 1 1 0.383875 0.233035 2.2562 0 0 0 -0 -0 -1 0 0 0 0 0 0 0.03 300 
146 1 1 0.495146 0.246598 2.27254 0 0 0 -0 -0 -1 0 0 0 0 0 0 0.03 300 
127 1 1 0.381994 0.300043 2.2608 0 0 0 -0 -0 -1 0 0 0 0 0 0 0.03 300 
44 1 1 0.485944 0.343638 2.27039 0 0 0 -0 -0 -1 0 0 0 0 0 0 0.03 300 
166 1 1 0.165431 0.374869 2.27499 0 0 0 -0 -0 -1 0 0 0 0 0 0 0.03 300 
28 1 1 0.222318 0.404493 2.28476 0 0 0 -0 -0 -1 0 0 0 0 0 0 0.03 300 
141 1 1 0.429803 0.380165 2.26189 0 0 0 -0 -0 -1 0 0 0 0 0 0 0.03 300 
111 1 1 0.473074 0.424163 2.26635 0 0 0 -0 -0 -1 0 0 0 0 0 0 0.03 300 
119 1 1 0.126835 0.482642 2.27437 0 0 0 -0 -0 -1 0 0 0 0 0 0 0.03 300 
90 1 1 0.102204 0.238351 2.30553 0 0 0 -0 -0 -1 0 0 0 0 0 0 0.03 300 
97 1 1 0.184928 0.234672 2.29277 0 0 0 -0 -0 -1 0 0 0 0 0 0 0.03 300 
74 1 1 0.248328 0.247523 2.29851 0 0 0 -0 -0 -1 0 0 0 0 0 0 0.03 300 
62 1 1 0.329189 0.252757 2.3082 0 0 0 -0 -0 -1 0 0 0 0 0 0 0.03 300 
43 1 1 0.460616 0.284913 2.31675 0 0 0 -0 -0 -1 0 0 0 0 0 0 0.03 300 
5 1 1 0.160428 0.3182 2.29871 0 0 0 -0 -0 -1 0 0 0 0 0 0 0.03 300 
95 1 1 0.346797 0.327727 2.31259 0 0 0 -0 -0 -1 0 0 0 0 0 0 0.03 300 
175 1 1 0.230789 0.339127 2.30237 0 0 0 -0 -0 -1 0 0 0 0 0 0 0.03 300 
128 1 1 0.355123 0.421294 2.31732 0 0 0 -0 -0 -1 0 0 0 0 0 0 0.03 300 
37 1 1 0.41824 0.41741 2.31001 0 0 0 -0 -0 -1 0 0 0 0 0 0 0.03 300 
93 1 1 0.225968 0.488444 2.29161 0 0 0 -0 -0 -1 0 0 0 0 0 0 0.03 300 
17 1 1 0.345254 0.512161 2.31021 0 0 0 -0 -0 -1 0 0 0 0 0 0 0.03 300 
134 1 1 0.443832 0.509496 2.29848 0 0 0 -0 -0 -1 0 0 0 0 0 0 0.03 300 
40 1 1 0.408343 0.240904 2.3408 0 0 0 -0 -0 -1 0 0 0 0 0 0 0.03 300 
68 1 1 0.400811 0.324654 2.34473 0 0 0 -0 -0 -1 0 0 0 0 0 0 0.03 300 
25 1 1 0.278223 0.363632 2.33196 0 0 0 -0 -0 -1 0 0 0 0 0 0 0.03 300 
123 1 1 0.48159 0.360101 2.33449 0 0 0 -0 -0 -1 0 0 0 0 0 0 0.03 300 
116 1 1 0.152794 0.405213 2.32527 0 0 0 -0 -0 -1 0 0 0 0 0 0 0.03 300 
84 1 1 0.227036 0.399722 2.35273 0 0 0 -0 -0 -1 0 0 0 0 0 0 0.03 300 
98 1 1 0.491139 0.43458 2.33869 0 0 0 -0 -0 -1 0 0 0 0 0 0 0.03 300 
55 1 1 0.200976 0.455034 2.34831 0 0 0 -0 -0 -1 0 0 0 0 0 0 0.03 300 
138 1 1 0.301221 0.470777 2.32913 0 0 0 -0 -0 -1 0 0 0 0 0 0 0.03 300 
72 1 1 0.10161 0.511094 2.34218 0 0 0 -0 -0 -1 0 0 0 0 0 0 0.03 300 
48 1 1 0.17066 0.517967 2.35622 0 0 0 -0 -0 -1 0 0 0 0 0 0 0.03 300 
22 1 1 0.254767 0.230824 2.37097 0 0 0 -0 -0 -1 0 0 0 0 0 0 0.03 300 
73 1 1 0.170916 0.265084 2.37451 0 0 0 -0 -0 -1 0 0 0 0 0 0 0.03 300 
171 1 1 0.477654 0.251099 2.37033 0 0 0 -0 -0 -1 0 0 0 0 0 0 0.03 300 
110 1 1 0.10205 0.273683 2.37359 0 0 0 -0 -0 -1 0 0 0 0 0 0 0.03 300 
164 1 1 0.244978 0.28843 2.39115 0 0 0 -0 -0 -1 0 0 0 0 0 0 0.03 300 
107 1 1 0.303471 0.271065 2.3797 0 0 0 -0 -0 -1 0 0 0 0 0 0 0.03 300 
31 1 1 0.221691 0.336081 2.36246 0 0 0 -0 -0 -1 0 0 0 0 0 0 0.03 300 
70 1 1 0.142707 0.355749 2.38494 0 0 0 -0 -0 -1 0 0 0 0 0 0 0.03 300 
53 1 1 0.294932 0.364362 2.39 0 0 0 -0 -0 -1 0 0 0 0 0 0 0.03 300 
153 1 1 0.496538 0.392613 2.38762 0 0 0 -0 -0 -1 0 0 0 0 0 0 0.03 300 
148 1 1 0.12082 0.460146 2.37005 0 0 0 -0 -0 -1 0 0 0 0 0 0 0.03 300 
6 1 1 0.317689 0.454971 2.3924 0 0 0 -0 -0 -1 0 0 0 0 0 0 0.03 300 
136 1 1 0.374023 0.456818 2.36267 0 0 0 -0 -0 -1 0 0 0 0 0 0 0.03 300 
65 1 1 0.421483 0.499457 2.37254 0 0 0 -0 -0 -1 0 0 0 0 0 0 0.03 300 
150 1 1 0.481625 0.503918 2.3772 0 0 0 -0 -0 -1 0 0 0 0 0 0 0.03 300 
102 1 1 0.419044 0.351535 2.39593 0 0 0 -0 -0 -1 0 0 0 0 0 0 0.03 300 
176 1 1 0.349719 0.399621 2.39537 0 0 0 -0 -0 -1 0 0 0 0 0 0 0.03 300 
147 1 1 0.248507 0.49546 2.39684 0 0 0 -0 -0 -1 0 0 0 0 0 0 0.03 300 
52 1 1 0.358392 0.516981 2.39661 0 0 0 -0 -0 -1 0 0 0 0 0 0 0.03 300 
