ITEM: TIMESTEP
108000
ITEM: NUMBER OF ATOMS
527
ITEM: BOX BOUNDS ff ff ff
0 3.3
-0.3 0.8
-0.5 3
ITEM: ATOMS id type type x y z ix iy iz vx vy vz fx fy fz omegax omegay omegaz radius f_Temp[0] 
213 1 1 0.215726 0.19122 1.57577 0 0 0 1.3834 0.208036 -0.0161784 72.6949 -38.8029 -18.1777 -10.7461 -87.8232 39.0398 0.03 318.957 
248 1 1 0.375841 0.185086 1.57759 0 0 0 2.34873 -0.139366 0.171377 2.1536 2.88554 0.475262 8.32295 -58.1702 11.3439 0.03 322.458 
97 1 1 0.450446 0.182016 1.58045 0 0 0 2.153 -0.313642 0.270231 -6.35808 12.7119 2.21166 33.5322 -47.4159 36.6649 0.03 347.459 
22 1 1 0.630565 0.191634 1.57632 0 0 0 2.35619 -0.18435 -0.0985171 5.87615 -6.33012 9.02117 5.93627 -56.0979 -23.2165 0.03 329.662 
288 1 1 0.687209 0.16395 1.59895 0 0 0 2.34349 -0.0104172 0.0231897 0.044464 0.709406 -0.648289 1.42123 -37.6249 40.8324 0.03 324.399 
90 1 1 0.778041 0.187154 1.57692 0 0 0 2.52047 0.0689034 0.000781503 0.934746 -0.12689 -0.887073 -1.51603 -43.6707 30.7538 0.03 349.901 
114 1 1 0.83667 0.173392 1.58861 0 0 0 2.8928 0.178936 -0.0712498 6.58774 8.55489 7.69238 0.741487 1.70028 8.83707 0.03 335.923 
221 1 1 0.925683 0.174622 1.58838 0 0 0 2.59429 0.0477445 0.00526558 0.13594 -0.131592 -2.90949 9.80108 -16.5839 21.9928 0.03 313.047 
171 1 1 1.03862 0.196495 1.5773 0 0 0 2.53325 0.26307 -0.146565 0.0467629 0.733397 -2.41877 10.8598 29.7752 7.36205 0.03 304.297 
43 1 1 1.09671 0.188395 1.59012 0 0 0 2.68332 0.0947034 -0.669399 0 0 -2.77371 -0.466741 -12.8534 -13.3783 0.03 301.798 
40 1 1 1.18758 0.186198 1.57723 0 0 0 2.97775 0.0383661 -0.0393046 4.31444 -3.22903 -0.0608001 0.772279 -37.9053 9.2805 0.03 341.904 
58 1 1 1.24912 0.164878 1.59811 0 0 0 2.79727 -0.00726281 0.00592445 0.0233774 0.558155 -1.10023 1.37095 -22.8988 33.9061 0.03 365.359 
141 1 1 1.3209 0.191627 1.57682 0 0 0 3.14644 0.054806 -0.00866464 1.88779 0.330005 0.355659 -1.13216 -18.8081 -7.88688 0.03 321.951 
161 1 1 1.38174 0.185621 1.57715 0 0 0 3.17865 0.0317974 -0.0153753 0.528034 1.94322 -1.39979 -3.17895 -13.0995 16.2465 0.03 351.077 
165 1 1 1.47992 0.190324 1.5773 0 0 0 2.87718 0.258208 0.0849616 0.538818 -0.150144 -2.54921 -8.29157 -37.7193 26.6663 0.03 341.399 
513 1 1 0.257051 0.497454 2.48406 0 0 0 -0 -0 -1 0 0 0 0 0 0 0.03 300 
230 1 1 0.416985 0.230174 1.57623 0 0 0 2.23941 -0.294846 0.0773739 -9.24102 -10.6245 -52.1303 25.0923 -60.267 -32.4916 0.03 311.31 
164 1 1 0.723235 0.212739 1.57688 0 0 0 2.33613 -0.106175 0.00640129 -0.198385 0.085328 -0.65691 3.52649 -55.7192 -19.164 0.03 328.672 
3 1 1 0.874787 0.221264 1.57669 0 0 0 2.68118 0.0267298 -0.0472827 -0.120674 -0.398036 5.76066 -1.41179 -43.8308 -2.75213 0.03 363.459 
51 1 1 0.9786 0.200643 1.57734 0 0 0 2.50277 0.225391 -0.0541825 -0.0618998 -0.0165327 -2.72864 -5.38852 -22.7044 2.48072 0.03 335.893 
95 1 1 1.14276 0.225345 1.57673 0 0 0 3.01974 0.0913441 -0.0269487 -1.67394 1.25104 1.11178 -1.55813 -31.3779 -3.11735 0.03 324.976 
91 1 1 1.24544 0.220997 1.57706 0 0 0 2.72648 0.0592895 0.00605178 -0.00239857 -0.011822 -2.74959 3.612 -43.6151 -6.48656 0.03 346.204 
15 1 1 1.42921 0.221789 1.57674 0 0 0 2.91371 0.470899 -0.00308694 3.16703 1.1332 2.88728 -17.181 -7.39649 1.47111 0.03 360.707 
173 1 1 1.60896 0.200659 1.57684 0 0 0 2.88366 -0.10018 0.00559093 -0.0126844 0.0551085 -0.0544637 3.85638 -37.4783 14.9588 0.03 342.095 
258 1 1 0.078401 0.236064 1.58713 0 0 0 -0.0184422 -0.69556 0.409235 0 0 -2.77371 23.4583 -135.493 -22.115 0.03 303.691 
185 1 1 0.236481 0.255718 1.575 0 0 0 1.57585 -0.0464329 -0.0619442 5.05969 -13.34 25.3559 -0.228372 -88.0319 -13.41 0.03 311.626 
180 1 1 0.47409 0.257416 1.57709 0 0 0 1.78015 0.330249 0.0765675 -0.816016 0.891231 -4.46136 -11.6875 -74.7427 -44.0827 0.03 311.05 
132 1 1 0.535848 0.232825 1.58578 0 0 0 1.59665 -0.454286 -0.0547775 0 0 -2.77371 15.4243 -82.1154 -8.34568 0.03 343.233 
110 1 1 0.66969 0.246873 1.57679 0 0 0 2.36335 0.0976829 0.00434488 -0.012523 0.00504497 1.07764 -3.276 -54.8846 10.297 0.03 344.31 
107 1 1 0.766103 0.25992 1.57687 0 0 0 2.26371 -0.0327342 -0.00162146 0.00590132 9.22839e-05 -0.025538 1.09544 -58.1039 -1.88558 0.03 320.999 
5 1 1 0.955656 0.25611 1.57686 0 0 0 2.36702 0.0135184 -7.28336e-06 2.48392e-05 -2.05734e-07 -0.000184574 -0.45246 -54.6556 -17.1391 0.03 346.418 
12 1 1 1.03869 0.256403 1.57671 0 0 0 2.70693 0.320332 0.0619342 0.58609 -0.208672 -0.83893 -11.2317 -45.0033 -12.0563 0.03 346.087 
146 1 1 1.37272 0.246846 1.57725 0 0 0 3.17041 0.00307092 0.140789 0 0 -2.77371 0.104789 14.0536 -3.9689 0.03 308.664 
78 1 1 1.47649 0.258577 1.5824 0 0 0 2.72228 0.406759 0.108533 -6.85524 -5.53718 -4.7398 -21.5524 -23.1888 3.6688 0.03 350.603 
120 1 1 1.54599 0.25836 1.57686 0 0 0 2.55963 0.0332688 -0.0124831 0.0472151 0.000424298 0.554748 -1.10361 -48.1973 -20.38 0.03 380.72 
125 1 1 1.62335 0.258691 1.58049 0 0 0 2.83019 -0.0591015 0.0973695 -0.197563 -0.0368218 -2.63225 2.93567 -30.2153 -5.23083 0.03 349.37 
197 1 1 0.179475 0.297532 1.58156 0 0 0 0.91992 0.127085 0.089733 0 0 -2.77371 4.81653 -105.265 6.24905 0.03 303.856 
206 1 1 0.281976 0.293759 1.5771 0 0 0 1.42304 0.255701 0.122747 12.4353 3.52444 -2.58533 -9.93435 -71.9966 16.1316 0.03 318.964 
351 1 1 0.341343 0.28593 1.57731 0 0 0 1.51626 -0.107164 -0.856292 -3.33879 -3.0689 -5.54609 21.1023 25.4593 -7.72263 0.03 305.036 
70 1 1 0.709992 0.293731 1.57673 0 0 0 2.57632 0.131494 -0.186267 6.87026 2.46102 11.8218 -11.1632 -28.7636 -11.0623 0.03 335.385 
127 1 1 1.08487 0.294295 1.5792 0 0 0 2.84247 0.228104 -0.047573 0.347951 0.279336 -2.52691 -11.4672 -33.9328 2.91807 0.03 321.241 
19 1 1 1.20216 0.276944 1.57704 0 0 0 2.82822 0.0263739 -0.0245378 0.282289 1.47429 -1.05802 -2.4741 -37.9079 -6.33988 0.03 319.042 
13 1 1 1.31523 0.279586 1.57688 0 0 0 2.5688 0.151883 -0.00226937 0.332984 0.0406229 -0.366644 -5.07928 -47.8569 4.08972 0.03 388.554 
64 1 1 1.42269 0.286376 1.57698 0 0 0 2.49986 0.0372912 -0.00757704 -0.0349702 0.031048 -1.45299 -1.20912 -50.0152 22.6305 0.03 379.865 
488 1 1 0.339114 0.52293 2.49217 0 0 0 -0 -0 -1 0 0 0 0 0 0 0.03 300 
257 1 1 0.0415918 0.33119 1.57654 0 0 0 0.27166 0.16507 -0.0382515 5.34836 2.6723 9.18391 -11.7469 -112.968 2.33812 0.03 310.833 
339 1 1 0.422728 0.323585 1.57891 0 0 0 1.90508 -0.0649033 0.134352 9.58298 -11.803 4.61997 6.05352 -70.1516 3.5147 0.03 338.685 
209 1 1 0.650867 0.309096 1.57697 0 0 0 2.49407 0.0125938 -0.00647942 0.00359083 0.000902549 -1.30932 -0.401035 -50.2775 -3.6237 0.03 314.43 
313 1 1 0.802548 0.314385 1.57742 0 0 0 2.25969 0.0318721 -0.0423994 8.67455 -14.9419 2.35514 -0.00205721 -59.6817 -15.0446 0.03 309.298 
166 1 1 0.903526 0.322489 1.57686 0 0 0 2.28814 -0.271309 -8.45826e-05 0.000315402 4.99873e-05 0.00117563 9.08065 -57.2956 17.9709 0.03 346.002 
175 1 1 1.03194 0.327355 1.57695 0 0 0 2.79961 0.263698 0.0180206 0.2909 0.196819 -2.07126 -19.098 -24.9184 12.7837 0.03 327.332 
225 1 1 1.14281 0.318605 1.58578 0 0 0 2.91358 0.270417 -0.53254 -11.7325 -6.1964 6.15421 -4.08571 47.9984 -4.51526 0.03 301.182 
35 1 1 1.1986 0.336809 1.57656 0 0 0 2.84219 0.0924668 -0.03077 8.4947 0.801746 -1.09652 -0.884172 -45.3606 6.67225 0.03 338.685 
11 1 1 1.25579 0.311148 1.57677 0 0 0 2.97295 0.104858 0.0162592 -0.216204 0.126759 0.927248 -3.56007 -34.5261 -1.82626 0.03 363.172 
123 1 1 1.36723 0.309886 1.57684 0 0 0 2.61331 0.122611 0.00219394 -0.0301922 -0.0135649 0.291538 -4.08771 -46.4726 -5.4162 0.03 339.496 
7 1 1 1.50745 0.30884 1.57654 0 0 0 2.97806 0.269173 0.0190542 4.63847 1.0896 1.17044 -8.02961 -33.3292 -14.4943 0.03 310.909 
56 1 1 1.59564 0.311698 1.57691 0 0 0 2.89055 -0.00364929 0.0134993 0.0609758 -1.22903 -1.7371 -0.303227 -37.2664 -2.19601 0.03 345.128 
316 1 1 0.132954 0.370594 1.57733 0 0 0 1.47076 0.131521 0.0270776 5.44676 22.5783 -20.5346 -38.8487 -71.4702 -18.1006 0.03 308.99 
298 1 1 0.246349 0.353186 1.57676 0 0 0 1.47506 0.257972 0.256093 0.376778 5.54494 -15.5357 -9.04182 -84.8672 0.347185 0.03 326.234 
31 1 1 0.470123 0.366122 1.57584 0 0 0 2.15972 0.175611 -0.301041 22.4406 10.3868 9.44142 -1.01092 -47.9102 1.13917 0.03 326.537 
340 1 1 0.565598 0.345053 1.58274 0 0 0 2.42002 -0.00434653 0.0347053 0 0 -2.77371 -0.472115 -58.3531 4.79815 0.03 310.144 
53 1 1 0.670477 0.369586 1.58036 0 0 0 2.18347 0.248568 -0.228184 0 0 -2.77371 -19.706 -64.6276 0.782016 0.03 321.381 
38 1 1 0.962029 0.369861 1.57685 0 0 0 2.35295 0.131638 -0.00135046 0.00559844 -0.000451818 0.194812 -4.4068 -55.1374 -3.55659 0.03 342.522 
187 1 1 1.07061 0.373454 1.57762 0 0 0 2.77077 0.366766 0.227567 0 0 -2.77371 -12.4725 -40.9941 -10.7892 0.03 303.743 
94 1 1 1.30672 0.350727 1.57701 0 0 0 2.87829 0.231615 -0.011922 -2.42105 -14.7262 3.54297 -6.68235 -36.4727 -2.6875 0.03 354.843 
126 1 1 1.37152 0.374265 1.57686 0 0 0 3.14956 0.282154 -0.00190365 0.00227549 -0.000926394 0.170861 -9.44484 -28.4678 -12.4759 0.03 337.774 
24 1 1 1.42879 0.361469 1.59014 0 0 0 3.14125 0.0712263 -0.28804 0 0 -2.77371 -6.43161 2.36577 1.64461 0.03 304.134 
143 1 1 1.57845 0.368849 1.57987 0 0 0 2.74374 -0.0398787 -0.167333 0.939881 0.200294 -2.55891 18.0214 -42.6207 3.21392 0.03 367.902 
300 1 1 0.395933 0.376308 1.57677 0 0 0 1.93716 -0.142445 0.166316 -9.10661 9.9985 -13.9 16.2622 -65.8317 21.423 0.03 328.963 
233 1 1 0.796425 0.373447 1.57858 0 0 0 2.67432 -0.161326 -0.00546029 -8.67455 14.9419 -7.90256 11.3183 -42.6057 1.47637 0.03 303.445 
128 1 1 0.867017 0.400983 1.57686 0 0 0 2.57593 0.0797684 -0.000331568 0.00146582 9.10239e-05 0.131506 -2.67068 -47.6719 -6.99507 0.03 318.909 
291 1 1 1.16105 0.384682 1.57684 0 0 0 2.91284 -0.0766393 0.000831396 0.674395 1.39761 0.329919 -7.51904 -31.5337 -1.61608 0.03 317.216 
365 1 1 0.173276 0.491192 2.4916 0 0 0 -0 -0 -1 0 0 0 0 0 0 0.03 300 
289 1 1 0.162233 0.421173 1.58688 0 0 0 1.23525 0.366361 0.163473 3.27235 9.52073 -5.97026 -60.3836 -77.6738 0.527814 0.03 322.628 
270 1 1 0.411301 0.446507 1.57663 0 0 0 1.82816 0.196538 0.129704 -8.93362 -9.04249 -18.6815 -6.88885 -72.0141 -2.80618 0.03 313.506 
148 1 1 0.495805 0.419911 1.57993 0 0 0 2.14435 0.0206589 -0.126681 2.89459 4.72464 0.410648 -16.0075 -57.2863 -14.5162 0.03 332.475 
77 1 1 0.983229 0.426587 1.57686 0 0 0 2.11664 0.198404 9.33366e-05 -0.000434896 4.57029e-05 -0.0134482 -6.64048 -63.035 4.58591 0.03 349.798 
135 1 1 1.17685 0.442897 1.5768 0 0 0 2.84399 -0.096351 0.00560566 -0.538337 1.01155 0.641509 -0.309727 -38.8418 -0.483126 0.03 365.425 
101 1 1 1.30384 0.410139 1.57678 0 0 0 2.87709 0.0103903 -0.0313435 2.53193 7.11266 -2.20362 3.33573 -38.2558 -0.326922 0.03 366.943 
170 1 1 1.55812 0.424922 1.57698 0 0 0 2.95543 0.0584001 0.00144679 0.466445 0.650731 -0.998758 12.0392 -24.0507 -7.65822 0.03 353.871 
50 1 1 1.63788 0.428449 1.57695 0 0 0 2.90335 -0.0521443 0.0674666 0.256175 -0.584482 -4.05003 9.35163 -33.329 -0.110935 0.03 363.307 
223 1 1 0.0911641 0.465047 1.57476 0 0 0 0.212883 -0.839221 -1.35836 95.0133 9.71172 188.243 24.5237 -89.3926 -13.1759 0.03 300.415 
255 1 1 0.182562 0.476542 1.57887 0 0 0 1.54365 0.468686 -0.124789 0.220042 -2.44583 -1.9916 -8.88168 -93.156 11.1933 0.03 314.339 
245 1 1 0.345625 0.453779 1.57388 0 0 0 2.14792 0.344813 -0.146337 55.6512 10.154 27.4683 -14.6906 -48.3757 -15.4514 0.03 306.809 
84 1 1 0.633034 0.465916 1.57681 0 0 0 2.18076 -0.044315 0.00221387 -0.00334132 0.00013917 0.809424 1.48563 -60.9751 0.502665 0.03 332.377 
176 1 1 0.779014 0.450561 1.57685 0 0 0 2.34817 0.291937 0.0021431 -0.0245182 -0.0181831 0.0931862 -9.7513 -55.3235 3.7442 0.03 326.99 
25 1 1 0.885516 0.464084 1.57804 0 0 0 2.40561 0.245208 -0.340045 -10.7499 -8.80266 -9.20896 -15.7502 -47.5617 -1.69337 0.03 327.871 
134 1 1 1.31556 0.469277 1.57691 0 0 0 2.81383 0.00837456 -0.0079589 -0.542814 -1.57978 -1.53932 -10.8426 -26.777 6.33026 0.03 328.121 
37 1 1 1.37575 0.475529 1.57652 0 0 0 2.81452 0.10061 -0.0839939 -0.320997 -0.911609 1.21254 -2.69392 -40.4071 1.45775 0.03 338.949 
69 1 1 1.43647 0.466457 1.57676 0 0 0 2.81748 -0.0156743 -0.00946831 0.427963 0.469441 1.51245 0.49485 -39.6136 -6.60713 0.03 378.23 
111 1 1 1.50451 0.451245 1.57668 0 0 0 2.84712 -0.10069 0.0824836 -0.728336 0.0188689 -1.51412 3.72894 -39.2522 2.85451 0.03 349.157 
308 1 1 0.296112 0.48861 1.57943 0 0 0 1.85646 0.560797 -0.0264741 0 0 -2.77371 -16.8086 -68.5353 4.23984 0.03 314.22 
279 1 1 0.415789 0.508111 1.57653 0 0 0 1.64336 0.0108887 -0.0626816 -3.36294 -0.275207 -1.06997 -0.281481 -80.3058 25.012 0.03 322.462 
116 1 1 0.706889 0.501742 1.57688 0 0 0 2.28089 0.259231 -0.00105941 0.00275482 -0.000413976 -0.229223 -8.67262 -57.513 -6.98913 0.03 350.696 
6 1 1 0.824446 0.48991 1.57688 0 0 0 2.48738 0.174654 0.0176681 0.838835 -0.187176 -1.05478 -3.75847 -41.2688 3.52828 0.03 327.097 
160 1 1 0.92946 0.504387 1.57645 0 0 0 2.13101 0.0465258 0.13892 11.2434 7.24677 4.02702 -2.70273 -61.4566 -0.116062 0.03 359.385 
4 1 1 1.00272 0.488465 1.57676 0 0 0 2.11153 -0.0982217 0.0377743 0.832731 1.72771 -0.0847101 -1.51821 -61.6029 -3.73413 0.03 340.635 
136 1 1 1.18274 0.502395 1.57681 0 0 0 2.77467 -0.0622054 0.00573014 -5.00375 1.00348 -1.97927 1.32471 25.0856 -0.58057 0.03 332.578 
169 1 1 1.23873 0.48246 1.57612 0 0 0 2.70234 -0.175743 -0.185792 7.50252 -3.44788 11.7105 6.22061 -42.8758 7.1081 0.03 351.397 
104 1 1 1.47861 0.508705 1.5763 0 0 0 2.84016 0.0149214 0.135799 3.03841 0.627992 4.42524 -0.574392 -37.5966 -0.921775 0.03 357.855 
149 1 1 1.53574 0.501319 1.59089 0 0 0 3.0562 0.119953 -0.137006 2.56257 0.348669 -0.816892 1.31347 46.0139 6.25985 0.03 302.157 
26 1 1 1.60612 0.487647 1.57688 0 0 0 3.08127 -0.0248611 0.00477917 0.471596 -1.2811 0.187675 0.839094 -30.7311 -7.70879 0.03 341.669 
238 1 1 0.137058 0.545889 1.57505 0 0 0 0.739308 0.332049 0.151213 26.0484 -10.1598 53.1456 15.1906 -44.2501 21.146 0.03 301.964 
182 1 1 0.218102 0.531801 1.57601 0 0 0 1.3117 0.334874 0.384647 0.453392 -0.120085 -1.83566 -9.62854 -84.7964 8.69513 0.03 302.717 
272 1 1 0.352659 0.520911 1.57711 0 0 0 1.79193 0.0425626 -0.0071782 0 0 -2.77371 -1.53978 -73.5737 2.15688 0.03 317.699 
249 1 1 0.484825 0.551479 1.57752 0 0 0 2.04121 0.304541 -0.285886 -66.0921 7.70534 -60.629 -0.0949593 -35.982 22.0334 0.03 327.989 
226 1 1 0.617736 0.546841 1.57686 0 0 0 2.36224 0.360494 0.00763146 -0.0266044 0.00807908 -0.339473 -12.0723 -54.814 -7.31807 0.03 333.51 
21 1 1 0.801805 0.545715 1.57541 0 0 0 2.09357 0.0626258 -0.16605 1.63753 1.56057 29.576 -3.73178 -68.9085 0.362987 0.03 341.348 
34 1 1 1.03321 0.539812 1.58138 0 0 0 2.45702 -0.243932 -0.00200998 -0.111047 -0.69578 -2.47163 -7.28916 -18.4503 1.72037 0.03 337.11 
117 1 1 1.1268 0.523771 1.57695 0 0 0 2.56203 -0.667287 -0.0487709 0.62922 -0.0644021 0.0762086 23.1225 -45.6177 19.8401 0.03 349.014 
16 1 1 1.21911 0.549799 1.58003 0 0 0 2.71844 0.015532 0.0176187 -1.68442 -0.208015 -3.45019 -4.33039 -36.5275 1.45578 0.03 363.445 
61 1 1 1.33129 0.526942 1.57668 0 0 0 2.7163 0.00224401 0.0303717 0.753595 -0.0628162 0.25796 -0.0980208 -43.3995 -7.84262 0.03 359.494 
152 1 1 1.41263 0.522708 1.57792 0 0 0 2.88144 0.0155416 -0.0001081 0.675479 0.759038 -2.24081 -3.7719 -36.1393 -11.4384 0.03 372.517 
42 1 1 1.5822 0.542516 1.57684 0 0 0 2.91519 -0.117038 -0.00367448 0.460354 -0.90233 -0.133126 4.19163 -36.2146 10.6061 0.03 366.418 
121 1 1 1.6437 0.535253 1.57681 0 0 0 2.92448 -0.0590449 0.0211388 0.179828 -0.00079933 -0.467134 1.95993 -36.6403 -19.0595 0.03 383.609 
304 1 1 0.421654 0.567476 1.57689 0 0 0 2.04751 0.0308059 0.00592964 0.840438 1.26732 0.456456 -1.62672 -60.0088 -38.8483 0.03 337.666 
119 1 1 0.671435 0.57281 1.58643 0 0 0 2.62101 -0.0691852 0.0461935 0 0 -2.77371 -4.40957 -67.5243 2.32025 0.03 355.389 
48 1 1 0.734408 0.564802 1.57689 0 0 0 2.31142 -0.00731813 0.0121684 -0.0451967 -0.00267121 -1.01368 0.248298 -56.4813 10.321 0.03 333.689 
227 1 1 0.923129 0.567326 1.57666 0 0 0 2.72579 -0.0216001 0.000804581 -0.677111 1.25533 3.69275 0.661073 -42.4048 -15.4138 0.03 326.831 
147 1 1 0.983301 0.57287 1.58187 0 0 0 2.47243 -0.184331 -0.158268 1.32455 -2.15113 -0.870639 8.7925 -27.1191 -39.2716 0.03 337.695 
17 1 1 1.08625 0.568217 1.57777 0 0 0 2.64219 -0.463725 -0.407817 0 0 -2.77371 2.73485 0.854104 -28.1249 0.03 332.453 
75 1 1 1.1593 0.577552 1.59156 0 0 0 2.43225 -0.328463 -0.455229 0 0 -2.77371 0.33717 -22.6639 -40.4536 0.03 325.014 
118 1 1 1.27679 0.564976 1.57682 0 0 0 2.7129 0.0880992 0.0239294 2.04812 0.523724 0.553625 -2.56535 -43.7393 -1.91975 0.03 357.13 
105 1 1 1.52248 0.565895 1.57683 0 0 0 2.78138 -0.0312335 -0.00429161 -0.234602 0.0944683 0.0258435 1.00254 -40.738 -13.3231 0.03 344.879 
62 1 1 0.466305 0.144013 1.62129 0 0 0 1.29566 -0.635495 0.618361 19.4719 -26.2677 16.1703 12.5313 -68.6596 57.3474 0.03 312.681 
307 1 1 0.542001 0.155094 1.61997 0 0 0 1.47035 0.484159 -0.400762 0 0 -2.77371 -13.1804 -64.4075 42.2163 0.03 304.079 
281 1 1 0.971622 0.152772 1.62694 0 0 0 2.72762 0.258606 0.0704153 0 0 -2.77371 22.5603 -27.201 11.036 0.03 313.57 
115 1 1 1.07757 0.140506 1.62246 0 0 0 2.15329 0.375421 -0.380504 0.0126282 0.878076 -1.07607 -17.8611 -44.9411 42.349 0.03 333.388 
49 1 1 1.31436 0.150821 1.62009 0 0 0 2.93632 -0.19524 -0.265716 0.0951993 -0.45934 -1.92867 9.82424 -6.84822 25.3988 0.03 310.845 
87 1 1 1.63582 0.150002 1.61294 0 0 0 2.40647 0.165927 -0.166112 0.000319911 0.994404 -0.98228 -7.85192 -25.4783 49.886 0.03 356.751 
186 1 1 0.302427 0.166444 1.6216 0 0 0 0.269125 -0.516154 -0.528035 0 0 -2.77371 28.7066 21.7249 13.0483 0.03 300.135 
194 1 1 0.27003 0.214948 1.59995 0 0 0 0.578386 -1.21637 -0.635139 14.5099 -15.2172 9.29793 52.4402 30.224 2.79452 0.03 300.266 
193 1 1 0.330675 0.220982 1.59652 0 0 0 0.948452 -0.492169 -1.07578 0 0 -2.77371 -4.83617 -11.1464 11.1182 0.03 300.364 
349 1 1 0.400325 0.22901 1.63217 0 0 0 0.461366 -0.472157 -0.837402 -0.884354 -16.5904 -26.0211 -20.6678 1.37317 16.5697 0.03 300.13 
231 1 1 0.457379 0.212074 1.6321 0 0 0 0.995947 0.0537943 0.229779 -6.0568 1.00192 -5.71344 -23.8126 34.7013 -9.33358 0.03 301.591 
284 1 1 0.159178 0.244829 1.6039 0 0 0 -0.235785 -0.844785 -1.7002 -23.8147 -3.96153 -0.313416 14.8118 -2.09895 16.645 0.03 300.046 
44 1 1 1.27211 0.261034 1.61419 0 0 0 2.8241 -0.000838793 0.199424 -0.324526 -0.0506392 -2.68484 0.377585 40.3555 0.631692 0.03 305.251 
347 1 1 0.400603 0.288198 1.63171 0 0 0 0.038189 -0.263755 -0.747692 -21.7171 20.4271 -54.1375 8.96968 21.7533 1.07379 0.03 301.013 
240 1 1 0.462268 0.285566 1.62942 0 0 0 0.795874 0.00914082 -0.40742 -0.737857 -6.58394 -4.6941 22.1048 40.2823 -19.4572 0.03 300.112 
282 1 1 0.529873 0.288878 1.6299 0 0 0 0.857615 -0.35222 -0.572998 0 0 -2.77371 0.646976 -40.0267 -9.565 0.03 300.005 
338 1 1 0.619199 0.2907 1.62654 0 0 0 1.40877 -0.26321 -0.472698 0 0 -2.77371 -8.72207 -19.1931 -9.26053 0.03 300.086 
68 1 1 0.841763 0.272792 1.59821 0 0 0 2.02866 -0.395476 -0.582916 0 0 -2.77371 10.072 39.0811 -1.33766 0.03 300.839 
324 1 1 0.118439 0.324481 1.61023 0 0 0 -0.133135 0.15309 -0.925005 -16.7181 -8.945 14.6259 50.3695 8.61078 -11.5974 0.03 300.089 
73 1 1 0.25075 0.333418 1.63271 0 0 0 0.29951 0.0611078 0.265904 -9.13999 12.3625 -63.8567 25.9852 47.5148 -21.7209 0.03 301.538 
71 1 1 0.72613 0.329509 1.62611 0 0 0 2.12636 -0.162242 -0.222201 0 0 -2.77371 8.06357 73.3013 15.4898 0.03 302.955 
155 1 1 1.5505 0.306283 1.61723 0 0 0 2.85076 0.266445 0.185174 6.50056 4.13138 3.8391 -5.9177 30.1698 3.69122 0.03 303.814 
331 1 1 0.33428 0.338985 1.60378 0 0 0 0.595974 -0.292668 -0.918497 0.166577 1.32872 -4.0577 9.94099 -3.27041 23.0922 0.03 300.517 
212 1 1 0.48628 0.339819 1.62527 0 0 0 1.2766 -0.191222 -0.243566 6.7329 -6.09555 29.3679 25.4536 8.49363 14.456 0.03 300.451 
277 1 1 0.329548 0.40047 1.59882 0 0 0 0.76066 0.159775 -0.923547 0 0 -2.77371 3.33791 -22.1892 -26.8254 0.03 300.317 
346 1 1 0.420892 0.405471 1.62299 0 0 0 1.07319 0.242464 0.891094 1.47753 1.27742 -0.966876 -9.21714 39.2656 7.37853 0.03 301.191 
153 1 1 1.31927 0.380647 1.62897 0 0 0 2.82605 0.205964 0.120056 0 0 -2.77371 15.0971 31.4305 4.79708 0.03 305.203 
254 1 1 0.644359 0.42369 1.62041 0 0 0 2.46075 0.90205 -0.37513 0 0 -2.77371 -12.9095 27.5613 21.1911 0.03 300.653 
285 1 1 0.23203 0.44631 1.5971 0 0 0 -0.0316953 -0.0628757 -1.80595 0 0 -2.77371 17.1309 0.499322 16.8683 0.03 300.119 
190 1 1 0.372803 0.454939 1.62351 0 0 0 1.05833 0.757124 0.267452 10.2147 28.2519 26.966 0.651145 5.85506 12.9826 0.03 301.249 
263 1 1 0.445627 0.474711 1.61561 0 0 0 1.08141 0.313197 0.390184 -30.245 -19.4294 -30.8123 -4.66867 38.6825 -1.34685 0.03 301.276 
178 1 1 0.507699 0.473481 1.60512 0 0 0 1.73448 0.500661 -0.604649 0 0 -2.77371 -19.9664 3.72191 0.815436 0.03 300.94 
352 1 1 0.567492 0.458392 1.60334 0 0 0 1.90088 0.116574 -0.97752 0 0 -2.77371 -0.0405703 13.079 -11.8206 0.03 301.503 
296 1 1 0.967129 0.483995 1.62858 0 0 0 1.55071 -0.0383061 -0.282227 0 0 -2.77371 3.23232 42.6821 10.6208 0.03 301.075 
20 1 1 1.36866 0.496249 1.63153 0 0 0 2.36663 0.0154773 -0.0984904 -0.594516 3.50322 7.67062 1.52221 29.8076 10.4162 0.03 302.624 
201 1 1 0.452731 0.546221 1.6318 0 0 0 0.500753 0.524734 -0.0826821 -9.59641 -10.0379 -1.84507 -6.15865 -12.9151 -8.73335 0.03 300.43 
28 1 1 0.532297 0.536879 1.60665 0 0 0 1.41912 0.284846 -0.30372 62.0114 8.81537 54.2482 17.06 30.1575 -26.5458 0.03 302.165 
265 1 1 0.642714 0.528432 1.6291 0 0 0 1.68043 -0.246006 -0.101391 0 0 -2.77371 -7.85377 -6.82759 -13.1568 0.03 301.27 
102 1 1 0.847553 0.534844 1.60959 0 0 0 2.21102 0.435846 0.00677301 21.6683 -5.52556 27.5046 -14.4381 71.2898 2.69168 0.03 301.168 
106 1 1 0.919932 0.53481 1.62665 0 0 0 1.59783 0.080948 0.0543321 2.09497 3.574 1.72168 4.60325 29.1747 -22.9434 0.03 302.653 
98 1 1 1.26303 0.518064 1.61564 0 0 0 2.50149 -0.0811169 -0.0646139 8.37977 14.2393 20.5731 -4.10743 39.6571 8.00571 0.03 302.218 
237 1 1 0.292155 0.587268 1.60641 0 0 0 1.664 0.0853206 0.00310742 0 0 -2.77371 -16.378 -34.5198 -68.0565 0.03 303.557 
271 1 1 0.34799 0.559671 1.62745 0 0 0 0.836307 0.749549 -0.0403985 0 0 -2.77371 -21.711 31.5458 -7.97657 0.03 300.856 
2 1 1 1.36098 0.555739 1.61954 0 0 0 2.8035 -0.00610807 0.0126554 2.37232 -0.596085 0.369626 -7.03327 39.1152 -4.69039 0.03 317.626 
303 1 1 0.153224 0.59745 1.60976 0 0 0 0.416891 0.211438 0.110911 0 0 -2.77371 -19.3676 -103.271 -67.4806 0.03 316.229 
55 1 1 0.464723 0.600425 1.60924 0 0 0 1.78267 -0.286412 0.109515 13.431 15.0008 -9.83462 13.814 18.2507 -60.2168 0.03 305.052 
276 1 1 0.551724 0.607432 1.62351 0 0 0 1.62338 -0.134739 0.11726 0 0 -2.77371 -4.76291 -64.5313 -49.4407 0.03 305.621 
57 1 1 0.825521 0.594491 1.60346 0 0 0 2.14048 0.051107 0.0845609 1.3579 -1.67534 0.288344 -28.3129 -5.61751 -33.4359 0.03 332.676 
89 1 1 0.888703 0.594044 1.61762 0 0 0 2.20098 -0.200392 -0.215144 0.228943 -0.0390554 -3.26217 12.0464 -22.6055 -32.0769 0.03 330.42 
65 1 1 1.04396 0.604113 1.61328 0 0 0 2.72112 -0.2334 -0.23335 -0.000457671 -1.00901 -0.971011 11.0418 -29.0442 -31.4417 0.03 313.968 
27 1 1 1.11205 0.60314 1.61984 0 0 0 2.43246 -0.486322 -0.15587 0 0 -2.77371 4.24944 -47.3106 -19.9174 0.03 333.758 
99 1 1 1.21113 0.600815 1.6219 0 0 0 2.10215 0.0813948 0.18594 0 0 -2.77371 -19.5823 -41.1356 -42.3874 0.03 342.722 
79 1 1 1.31966 0.596042 1.60477 0 0 0 2.77436 0.0384609 0.0615011 2.02503 -0.782505 3.18609 -8.72441 -12.015 -27.3614 0.03 332.907 
156 1 1 1.41511 0.596739 1.60591 0 0 0 2.51056 -0.12797 -0.126767 -0.00278377 -0.973961 -1.0057 6.01958 -45.0204 -25.4229 0.03 352.648 
18 1 1 1.56806 0.59424 1.60334 0 0 0 2.85831 -0.0893027 -0.0892445 0.333383 -0.560597 -0.163914 4.2758 -18.7808 -35.2419 0.03 330.618 
332 1 1 0.209873 0.11508 1.64815 0 0 0 0.106352 -0.249422 0.104466 0 0 -2.77371 23.5412 -32.872 25.4073 0.03 304.818 
283 1 1 0.278279 0.102482 1.65923 0 0 0 0.701291 -0.326448 0.368161 11.5721 16.6036 13.3667 13.4663 5.53036 2.13323 0.03 301.575 
137 1 1 0.637374 0.12699 1.63714 0 0 0 1.93907 0.260286 -0.371299 0 0 -2.77371 -7.80972 -34.2881 63.09 0.03 334.308 
74 1 1 0.707863 0.11761 1.64644 0 0 0 2.56003 -0.079777 0.257853 0 0 -2.77371 9.32146 -23.8722 23.7372 0.03 305.803 
333 1 1 0.771545 0.0957641 1.6672 0 0 0 2.03799 0.213961 -0.218658 0.0139897 0.882608 -1.05966 -10.2238 -43.42 49.3215 0.03 309.859 
139 1 1 0.822293 0.12269 1.63962 0 0 0 2.00728 -0.157282 -0.311155 8.08621 12.5301 28.3446 13.8321 -48.6331 30.803 0.03 336.947 
76 1 1 0.91571 0.128361 1.6347 0 0 0 2.43263 0.412811 -0.423651 0.520292 0.651185 -1.86722 -6.13532 3.08721 21.6685 0.03 322.506 
343 1 1 0.142238 0.184413 1.62005 0 0 0 -0.27185 -0.929973 -1.89801 0 0 -2.77371 15.2306 -15.5929 -7.38265 0.03 300 
252 1 1 0.628001 0.187086 1.63527 0 0 0 1.02963 -0.280955 -0.103761 -3.26692 3.28743 7.27143 -3.11607 13.6321 -9.53258 0.03 300.348 
315 1 1 0.212628 0.228581 1.62082 0 0 0 -0.521842 -0.394221 -1.07239 -41.1174 25.8497 59.5185 4.26813 -5.51037 -3.68052 0.03 300.06 
183 1 1 0.572624 0.227476 1.64214 0 0 0 1.58215 -0.476939 0.136075 0 0 -2.77371 -30.7558 70.3203 27.8217 0.03 300.74 
319 1 1 0.743472 0.223313 1.6431 0 0 0 1.74016 0.0178512 -0.0484619 0 0 -2.77371 24.3173 41.486 -14.2233 0.03 300.778 
189 1 1 0.294729 0.250744 1.63913 0 0 0 0.297814 -0.342854 -0.770446 9.9696 3.34027 10.0758 -40.7114 -3.0518 33.3897 0.03 300.003 
330 1 1 0.507299 0.235995 1.66132 0 0 0 1.7374 0.167507 -0.368395 0 0 -2.77371 6.0977 -14.3204 -0.591039 0.03 300.018 
322 1 1 0.877155 0.238361 1.63861 0 0 0 2.20267 0.109289 0.094743 0 0 -2.77371 -28.6268 32.745 -20.5196 0.03 301.542 
202 1 1 0.123621 0.274417 1.63912 0 0 0 -0.501114 -0.80841 -1.43077 -12.5399 -1.26113 5.45143 -20.9211 -9.30982 -7.20537 0.03 300.001 
181 1 1 0.773943 0.302787 1.66998 0 0 0 1.74719 0.0343333 0.0347929 0 0 -2.77371 -19.5036 24.9736 24.781 0.03 300.753 
211 1 1 0.339791 0.30059 1.64898 0 0 0 0.0566697 -0.307347 -0.804318 -1.11804 -1.58476 0.332599 -8.62927 -52.7251 4.82775 0.03 300.01 
250 1 1 0.361124 0.367441 1.64817 0 0 0 0.283833 0.0585364 -0.663856 1.95945 4.32481 -0.698281 -15.3143 -5.83186 -7.40212 0.03 300.014 
234 1 1 0.416785 0.344165 1.63881 0 0 0 0.341858 -0.085281 -0.694464 0.0822714 14.1696 -2.35357 -6.66918 9.74117 0.46626 0.03 300.01 
216 1 1 0.598136 0.354665 1.63587 0 0 0 1.63552 0.410003 0.0161496 0 0 -2.77371 21.0509 43.5136 -6.09857 0.03 300.163 
204 1 1 0.210643 0.382057 1.63251 0 0 0 0.235922 0.54247 -1.15219 0 0 -2.77371 -55.2351 15.8112 33.3976 0.03 300.453 
334 1 1 0.529028 0.398117 1.63274 0 0 0 0.836351 -0.113085 -1.00493 0 0 -2.77371 5.09603 -42.2344 0.777492 0.03 300.023 
309 1 1 0.118021 0.416163 1.62983 0 0 0 -0.573115 0.541917 -0.758045 0 0 -2.77371 32.5874 14.385 -1.59492 0.03 300.403 
344 1 1 0.279748 0.424727 1.63007 0 0 0 0.0846026 0.0751823 -1.39435 0 0 -2.77371 -9.96459 -16.6616 -2.46587 0.03 300.002 
295 1 1 0.457475 0.435303 1.66002 0 0 0 1.60864 0.212257 0.757505 -1.47753 -1.27742 -4.58055 5.58918 -26.5884 -18.7712 0.03 300.028 
261 1 1 0.153085 0.477192 1.63486 0 0 0 -0.71925 -0.200685 -0.381904 0 0 -2.77371 5.43627 32.2449 4.72279 0.03 300.237 
210 1 1 0.209842 0.471287 1.65528 0 0 0 -0.221945 -0.209164 -1.14188 15.13 11.4065 -67.3993 -0.601677 -6.75474 -5.20122 0.03 300.002 
130 1 1 1.62582 0.452933 1.65832 0 0 0 2.55146 -0.00425569 -0.265606 0 0 -2.77371 -5.78272 17.8909 -2.26063 0.03 301.155 
208 1 1 0.294833 0.507732 1.63939 0 0 0 0.449855 0.790653 -1.02027 -0.781296 0.739745 -5.87641 10.1568 -17.9822 -11.1536 0.03 300.041 
220 1 1 0.403293 0.512644 1.63985 0 0 0 0.292428 0.513816 -0.545309 0 0 -2.77371 -32.2377 -33.8539 14.4959 0.03 300.043 
198 1 1 0.479869 0.496198 1.65627 0 0 0 1.49442 0.411374 -0.233781 41.0351 31.9632 38.5521 23.024 -10.0953 34.5975 0.03 300.013 
262 1 1 0.555604 0.502457 1.64971 0 0 0 1.13879 0.17176 -0.871678 4.08073 -16.5207 -1.94038 5.33803 -13.669 -1.08245 0.03 300.06 
239 1 1 0.779145 0.52886 1.64311 0 0 0 1.55189 0.277362 -0.000646755 0 0 -2.77371 -8.43035 41.701 4.12706 0.03 300.768 
150 1 1 0.996919 0.545057 1.63608 0 0 0 2.12543 -0.424166 -0.0223946 0 0 -2.77371 -6.61328 17.9994 24.1996 0.03 301.757 
290 1 1 0.253379 0.566475 1.64797 0 0 0 -0.471175 0.712057 -0.858575 0 0 -2.77371 29.7276 -30.1455 4.88823 0.03 300.02 
329 1 1 0.503704 0.565191 1.65716 0 0 0 1.16831 0.643346 -1.078 0 0 -2.77371 -1.95469 52.5012 7.6617 0.03 300.003 
224 1 1 0.588262 0.553616 1.63907 0 0 0 1.31627 -0.66878 0.317779 0 0 -2.77371 33.6227 22.1207 39.2777 0.03 301.858 
243 1 1 0.719579 0.579101 1.63592 0 0 0 1.52511 0.0558631 -0.155706 0 0 -2.77371 -29.6795 0.414983 -30.7606 0.03 300.816 
52 1 1 0.669934 0.612922 1.64591 0 0 0 1.53589 0.0886896 -0.00730932 0 0 -2.77371 -7.49989 37.4352 43.85 0.03 301.807 
301 1 1 0.192071 0.627435 1.64429 0 0 0 0.587589 0.172362 -0.1911 0 0 -2.77371 -11.7175 6.30727 -39.118 0.03 303.382 
326 1 1 0.46335 0.645335 1.65456 0 0 0 1.04388 0.188385 0.165167 -0.0602633 -0.74104 -0.555509 -9.62413 -116.055 -23.6266 0.03 335.962 
72 1 1 0.612029 0.633753 1.6428 0 0 0 1.52803 0.189265 0.16425 1.52443 -1.97419 1.37198 -11.2462 -45.5636 -67.8353 0.03 336.769 
154 1 1 0.760724 0.623643 1.63286 0 0 0 2.08214 -0.320771 -0.318112 -0.0448705 -0.635619 -1.36393 15.0969 -35.8852 -54.8143 0.03 324.276 
138 1 1 0.997026 0.633763 1.64293 0 0 0 2.64977 -0.336205 -0.334921 0.860972 -1.05526 -1.06927 -3.71169 -6.25895 -5.70659 0.03 312.282 
317 1 1 0.374394 0.0671776 1.69576 0 0 0 1.20353 -0.31089 0.30871 0.633366 0.90021 -0.664323 35.2428 -51.0182 59.7134 0.03 310.809 
196 1 1 0.572233 0.150259 1.67965 0 0 0 0.488996 0.0347049 -0.541863 0 0 -2.77371 6.82614 -20.0527 -26.4054 0.03 300.297 
219 1 1 0.411389 0.257499 1.67931 0 0 0 0.565447 0.360692 -0.521214 24.8994 1.99353 124.923 -13.5151 -1.87458 -7.36412 0.03 300.002 
253 1 1 0.251285 0.291839 1.67345 0 0 0 0.226719 -0.273221 -0.707533 -11.1671 -39.8391 -43.6317 -10.3941 -11.4618 -22.1893 0.03 300.011 
341 1 1 0.637253 0.328595 1.67992 0 0 0 1.88537 -0.733283 0.00906614 0 0 -2.77371 10.6458 -38.4114 -11.8413 0.03 300.011 
222 1 1 0.1804 0.358304 1.69613 0 0 0 0.081894 -0.259746 -0.612215 0 0 -2.77371 37.2626 -35.6344 8.37345 0.03 300.003 
259 1 1 0.295766 0.376483 1.69359 0 0 0 -0.0952793 0.0613925 -0.940496 -21.2248 -10.5945 -1.81229 18.2804 7.26385 11.3175 0.03 300.017 