ITEM: TIMESTEP
115000
ITEM: NUMBER OF ATOMS
527
ITEM: BOX BOUNDS ff ff ff
0 3.3
-0.3 0.8
-0.5 3
ITEM: ATOMS id type type x y z ix iy iz vx vy vz fx fy fz omegax omegay omegaz radius f_Temp[0] 
258 1 1 0.071843 0.182717 1.57943 0 0 0 0.200793 -0.507315 0.130502 15.4602 20.7909 20.4285 19.1254 -143.087 -11.0713 0.03 307.192 
343 1 1 0.191495 0.176085 1.58687 0 0 0 0.969076 0.208198 -0.205964 0.178018 1.81314 -2.15179 -15.8913 -86.6052 54.86 0.03 309.786 
213 1 1 0.305558 0.180246 1.58544 0 0 0 1.28459 -0.0329682 -0.0426783 0 0 -2.77371 7.45684 -96.7377 32.6179 0.03 330.97 
248 1 1 0.534438 0.187951 1.57679 0 0 0 2.31511 0.150128 0.0354003 -0.770391 -0.0634132 -0.41906 -4.9916 -56.8869 33.221 0.03 334.86 
307 1 1 0.656081 0.167257 1.59546 0 0 0 1.75024 0.244409 -0.0362198 18.9126 -10.2203 -10.2583 -4.43978 -38.3511 43.6434 0.03 311.602 
22 1 1 0.79569 0.186339 1.57675 0 0 0 2.32564 0.0639402 0.0289157 0.75967 -0.272799 -0.622374 -3.21828 -56.1401 -10.4247 0.03 340.713 
288 1 1 0.850698 0.169674 1.59346 0 0 0 2.40752 0.0527252 -0.117513 0.390472 0.947679 -1.9032 -6.1742 -23.3842 45.3232 0.03 332.479 
90 1 1 0.957731 0.191538 1.57686 0 0 0 2.57068 0.0621203 2.17447e-05 -5.67243e-05 2.31111e-06 0.00255062 -2.07917 -47.8395 30.7538 0.03 358.115 
114 1 1 1.0465 0.187328 1.57651 0 0 0 3.19378 0.182868 0.0652246 -1.24543 1.51755 3.75528 -4.51814 -29.0909 23.604 0.03 346.201 
221 1 1 1.11124 0.194322 1.57686 0 0 0 2.7995 0.314193 0.0589744 -0.388208 -0.268891 -2.08749 -10.9491 -40.0692 18.4196 0.03 324.291 
43 1 1 1.30219 0.193072 1.5771 0 0 0 3.01269 0.0588814 -0.200224 -0.0459728 0.00144382 1.39422 -1.9658 -33.0034 -13.0717 0.03 304.98 
40 1 1 1.39467 0.186186 1.57693 0 0 0 2.89202 0.0103196 -0.00674943 0.0956961 0.229905 -0.534453 -0.386117 -36.9468 12.5346 0.03 355.602 
58 1 1 1.44864 0.167424 1.59575 0 0 0 2.97579 0.0435603 -0.118456 1.55976 -1.56243 1.01574 1.05311 -16.1884 29.2823 0.03 370.087 
141 1 1 1.54668 0.197012 1.57687 0 0 0 3.24575 0.173947 0.000385723 -0.0228121 0.761251 -0.406423 -5.76976 -25.2596 -9.73633 0.03 331.339 
161 1 1 1.60796 0.18755 1.57686 0 0 0 3.25569 0.0351226 0.000454033 -0.000494322 -3.09393e-05 0.0379005 -1.17557 -24.914 15.0793 0.03 362.886 
193 1 1 0.435281 0.192731 1.57515 0 0 0 1.76755 -0.505176 -0.211538 27.4617 1.37132 34.0604 18.1848 -76.2654 5.48141 0.03 308.925 
132 1 1 0.659657 0.225356 1.58112 0 0 0 2.16043 -0.0750217 0.228867 -11.0347 2.4639 8.3215 22.0773 -52.7194 -1.54406 0.03 345.184 
164 1 1 0.886926 0.214152 1.57666 0 0 0 2.34808 0.203342 0.00893909 1.95204 2.18828 3.15697 -13.2786 -49.007 -15.0594 0.03 338.421 
51 1 1 1.17269 0.214115 1.5769 0 0 0 2.9808 0.326941 0.0268014 -0.2352 -0.12485 -1.80146 -10.7413 -34.3281 9.33537 0.03 344.243 
171 1 1 1.23271 0.215212 1.57865 0 0 0 3.04849 0.310013 0.0664517 0 0 -2.77371 10.7851 -9.25541 -7.33141 0.03 314.211 
95 1 1 1.35412 0.231304 1.57686 0 0 0 3.01948 0.0847383 9.39247e-05 -0.000229896 1.9929e-05 -0.0144359 -2.83614 -32.8174 -3.52119 0.03 334.357 
91 1 1 1.44038 0.225487 1.57687 0 0 0 2.85104 0.0961449 0.0156413 -0.228691 -0.168997 -1.14774 -3.06594 -38.5606 -4.69626 0.03 353.74 
202 1 1 0.106036 0.244888 1.57767 0 0 0 0.710383 -0.012571 0.287328 0 0 -2.77371 -21.4419 -54.7827 -7.95475 0.03 303.374 
284 1 1 0.192056 0.236986 1.57591 0 0 0 0.999451 0.134857 0.199267 -2.04696 0.420231 8.34147 -6.0268 -105.288 5.1261 0.03 312.829 
185 1 1 0.349105 0.235033 1.58355 0 0 0 1.79587 -0.495394 0.235385 0 0 -2.77371 16.3916 -75.8496 -27.0264 0.03 319.671 
230 1 1 0.566239 0.240026 1.57693 0 0 0 2.19224 0.30285 -0.0703912 1.93742 1.22988 1.81593 -17.4839 -48.7922 -2.02245 0.03 317.926 
110 1 1 0.835969 0.251156 1.57683 0 0 0 2.40349 -0.0165659 0.00330991 -0.0190376 0.0343597 0.449731 0.543401 -53.4917 8.48915 0.03 352.263 
107 1 1 0.927817 0.257699 1.57744 0 0 0 2.53957 0.0817385 0.0256674 0.700789 0.660302 -2.281 -4.84346 -47.4011 0.121927 0.03 328.923 
68 1 1 1.01127 0.244263 1.57628 0 0 0 2.76485 -0.333162 0.0495956 -2.85807 -0.287966 1.23579 11.1757 -42.0837 1.7366 0.03 306.977 
3 1 1 1.07142 0.241698 1.57675 0 0 0 2.74809 0.483612 0.111845 1.54103 -0.020787 -3.85463 -17.5992 -39.4471 -5.26269 0.03 370.032 
5 1 1 1.12777 0.261825 1.5793 0 0 0 2.94649 0.228353 0.201038 -1.63504 -0.603014 -1.99349 -11.5684 -30.0465 -8.2793 0.03 353.774 
146 1 1 1.58242 0.249384 1.57687 0 0 0 3.13577 0.0523244 -0.00165707 1.34297 0.169652 -0.0664332 -4.30604 -8.69597 -1.53681 0.03 316.541 
15 1 1 1.6434 0.243435 1.57686 0 0 0 3.21862 0.356376 0.000456085 1.35051 0.358937 0.0210862 -12.5671 -23.7513 -0.596559 0.03 367.73 
197 1 1 0.249805 0.301286 1.57515 0 0 0 1.63213 -0.0730982 0.244061 4.0718 -5.67921 25.8975 -0.590237 -80.2576 26.3583 0.03 313.675 
206 1 1 0.390503 0.288539 1.58155 0 0 0 1.34394 -0.0463664 -0.41615 4.58106 -0.435384 6.8697 1.17815 -81.0534 4.66294 0.03 328.392 
351 1 1 0.454819 0.28954 1.57866 0 0 0 1.40838 0.170975 -0.0749468 0 0 -2.77371 -4.82737 -87.5714 10.9716 0.03 318.537 
180 1 1 0.62048 0.269517 1.57616 0 0 0 2.31514 0.119608 0.00362415 11.1139 1.73087 -8.96125 6.35828 -48.0953 -8.95967 0.03 321.302 
338 1 1 0.721522 0.27322 1.57565 0 0 0 2.06504 -0.0972008 0.420906 -11.1441 -2.56261 7.59884 4.82582 -72.7306 -9.26053 0.03 302.57 
70 1 1 0.88342 0.298174 1.5769 0 0 0 2.4872 0.0615626 -0.0119572 0.0679307 0.0331658 -0.100551 -2.12763 -50.66 -0.153746 0.03 344.901 
12 1 1 1.22751 0.278967 1.57686 0 0 0 2.69651 0.322319 -0.000211611 0.000608947 -0.000151063 0.00596994 -10.7879 -43.6274 -12.0767 0.03 354.256 
19 1 1 1.40109 0.279604 1.57686 0 0 0 2.8435 0.0370986 9.91503e-05 -0.000246053 7.47452e-06 0.00357632 -1.24169 -38.7085 -6.7997 0.03 328.256 
13 1 1 1.51378 0.280191 1.57683 0 0 0 3.07501 -0.0868922 0.0167111 0.900204 0.102779 -0.895584 3.16016 -31.3464 1.97145 0.03 392.771 
64 1 1 1.6168 0.301239 1.57696 0 0 0 3.01058 0.171415 -0.0679636 1.13822 -0.435191 1.26559 -5.52811 -32.5292 10.7088 0.03 382.277 
488 1 1 0.339114 0.52293 2.42217 0 0 0 -0 -0 -1 0 0 0 0 0 0 0.03 300 
324 1 1 0.142588 0.313479 1.57579 0 0 0 1.34268 -0.335871 0.260134 -4.60982 -2.24297 13.9449 15.4311 -96.6223 -10.2544 0.03 305.469 
339 1 1 0.561195 0.317756 1.57779 0 0 0 1.98324 -0.0675563 -0.0633342 0 0 -2.77371 2.24923 -67.6222 1.15286 0.03 341.733 
209 1 1 0.824632 0.310635 1.5769 0 0 0 2.44884 0.0428903 0.00117158 -0.0700257 0.00878472 -0.619786 -1.44278 -51.871 -5.09744 0.03 324.518 
313 1 1 0.962136 0.308909 1.57686 0 0 0 2.27978 -0.0763605 0.000399302 -0.00133041 -5.71839e-05 0.0406436 2.55602 -57.581 -14.5579 0.03 318.432 
166 1 1 1.0637 0.303497 1.57686 0 0 0 2.28814 -0.271309 2.89531e-07 -1.11964e-06 -1.77449e-07 -1.42271e-05 9.08069 -57.2958 17.9709 0.03 354.388 
127 1 1 1.286 0.311961 1.57687 0 0 0 2.8834 0.260655 -0.00280994 0.00693166 -0.00161851 0.0603287 -8.72299 -37.3677 2.92766 0.03 328.485 
225 1 1 1.35192 0.326028 1.5769 0 0 0 3.07913 -0.00615979 -0.00221559 -0.0969197 -2.81078 -0.157817 -6.83396 -6.74173 -0.550764 0.03 310.657 
11 1 1 1.46477 0.314506 1.57672 0 0 0 3.06594 -0.0831561 -0.00391509 -1.7916 -2.26093 0.0875932 0.957794 -12.8701 -4.22584 0.03 369.991 
123 1 1 1.55945 0.319039 1.57685 0 0 0 2.98601 0.0751601 -0.0271658 2.61681 -1.76931 2.2697 3.90774 -15.4084 -3.78424 0.03 346.847 
257 1 1 0.0679942 0.345781 1.57658 0 0 0 0.439582 0.114572 -0.196454 3.81939 -9.23819 -14.299 -14.647 -118.898 -1.10882 0.03 320.837 
73 1 1 0.275254 0.353638 1.58651 0 0 0 0.938743 0.21253 -0.265571 31.2519 -25.3104 33.0728 2.90142 78.1352 18.2604 0.03 301.864 
298 1 1 0.363311 0.358083 1.57781 0 0 0 1.91602 -0.325243 0.126449 0 0 -2.77371 12.084 -65.0988 -31.5043 0.03 336.549 
331 1 1 0.421446 0.33998 1.58559 0 0 0 1.9979 -0.661329 0.16443 -2.59642 -7.00773 -15.5363 -10.9407 27.6928 38.7982 0.03 306.177 
234 1 1 0.483474 0.351218 1.5748 0 0 0 2.78016 0.019818 0.0796079 16.7837 -5.1674 59.4968 -3.88894 -38.7127 -5.12438 0.03 302.173 
31 1 1 0.625314 0.371285 1.57763 0 0 0 2.36439 -0.0375353 0.0686388 0 0 -2.77371 1.31039 -54.6982 -7.45506 0.03 336.106 
340 1 1 0.732672 0.34775 1.57669 0 0 0 2.60187 -0.20302 0.0801843 -1.09235 0.60495 -0.919468 7.26036 -46.8793 2.98961 0.03 318.456 
233 1 1 0.982743 0.369449 1.57687 0 0 0 2.6678 -0.0772276 -0.00223685 0.00633229 0.000419985 -0.00519374 2.58431 -44.5805 0.384231 0.03 311.004 
175 1 1 1.23431 0.349808 1.57685 0 0 0 2.91758 0.333458 -0.00165766 0.00363082 -0.00290037 0.24103 -11.1609 -36.2391 12.7654 0.03 336.226 
35 1 1 1.41054 0.342335 1.57685 0 0 0 3.11118 0.104905 -0.0101835 1.64515 -0.589351 0.721344 -1.18415 -23.2553 3.01714 0.03 344.796 
94 1 1 1.51014 0.353095 1.57679 0 0 0 2.98709 -0.00497098 -0.0482996 4.32142 -0.00315005 1.17903 -0.6978 -28.4991 4.61326 0.03 361.302 
513 1 1 0.257051 0.497454 2.41406 0 0 0 -0 -0 -1 0 0 0 0 0 0 0.03 300 
316 1 1 0.226642 0.383177 1.57438 0 0 0 0.83445 -0.244951 0.0482757 -4.12955 2.66444 34.5908 14.1517 -111.314 -21.0092 0.03 325.176 
277 1 1 0.444804 0.406331 1.57427 0 0 0 1.48817 -0.01807 -0.0313151 2.32711 3.52413 44.6521 1.59242 -90.2494 -4.37841 0.03 311.902 
300 1 1 0.537009 0.376151 1.57694 0 0 0 2.43687 0.23767 0.0644938 19.6372 8.01382 7.96237 -6.1401 -56.5257 7.21733 0.03 337.592 
53 1 1 0.825994 0.390153 1.57694 0 0 0 2.41381 0.182854 0.0657614 -0.0334718 -0.0955015 -3.38173 -5.96839 -53.0094 -8.60076 0.03 329.452 
128 1 1 1.04733 0.406568 1.57686 0 0 0 2.57586 0.0797756 -2.36402e-06 5.99723e-06 -3.35943e-07 -0.000377086 -2.67008 -47.6659 -6.99507 0.03 328.195 
38 1 1 1.12552 0.37765 1.57685 0 0 0 2.32082 0.0944523 0.0015638 -0.00561743 -0.000582772 0.0654117 -3.16191 -56.2144 -0.890614 0.03 351.349 
187 1 1 1.26654 0.401846 1.57703 0 0 0 2.83801 0.461538 0.00747929 -0.0302789 0.00923632 -2.57768 -15.412 -38.809 -10.8075 0.03 306.943 
291 1 1 1.36564 0.384227 1.57657 0 0 0 2.95139 -0.0486337 -0.0347945 0.322468 -1.49702 3.66862 -4.12753 -34.2875 4.27113 0.03 327.956 
126 1 1 1.59199 0.394043 1.57686 0 0 0 3.14986 0.282573 -2.52461e-05 5.4071e-05 -1.79534e-05 0.0042581 -9.45773 -28.4541 -12.4234 0.03 346.414 
285 1 1 0.314007 0.448082 1.57855 0 0 0 1.84507 0.311298 0.149246 0 0 -2.77371 2.39452 -61.9845 -7.89747 0.03 310.88 
344 1 1 0.374105 0.432678 1.58195 0 0 0 2.15065 0.253252 -0.125693 0 0 -2.77371 -37.6893 33.6782 6.72568 0.03 300.37 
270 1 1 0.548307 0.443374 1.57686 0 0 0 2.04226 -0.0374455 -0.0132119 0.0583407 -0.00601207 0.62727 1.26409 -65.5257 6.85993 0.03 320.04 
148 1 1 0.660557 0.441283 1.57707 0 0 0 2.37963 0.105151 0.00209142 -0.39897 -0.0125926 -2.69635 -3.48986 -54.5831 -14.3292 0.03 341.319 
77 1 1 1.13183 0.439101 1.57691 0 0 0 2.21163 0.164966 0.00737111 14.355 -12.1687 -8.4229 -3.84451 -58.3833 4.78691 0.03 358.347 
135 1 1 1.37901 0.44193 1.57711 0 0 0 2.95506 -0.0337586 0.0561206 -3.24781 4.8909 0.277824 -8.64823 -30.67 -5.47765 0.03 370.831 
101 1 1 1.50667 0.412672 1.5767 0 0 0 2.89242 0.0370416 0.0161718 -0.128329 0.0176791 1.55615 -1.98533 -37.0731 -1.34892 0.03 374.2 
223 1 1 0.151396 0.450116 1.57894 0 0 0 0.993771 -0.33885 -0.391228 -32.3837 -21.478 -94.2977 -12.1989 -80.3503 -2.54104 0.03 313.652 
289 1 1 0.239302 0.462739 1.57682 0 0 0 1.18893 0.622196 0.0352933 -0.659989 0.0758382 -0.982526 -20.8683 -94.3552 -6.26761 0.03 327.781 
245 1 1 0.486433 0.472564 1.57683 0 0 0 1.91759 0.1639 -0.0104862 0.0697657 -0.0050516 1.13085 -5.48988 -69.7481 -3.38085 0.03 319.857 
352 1 1 0.732123 0.464942 1.58182 0 0 0 2.29066 0.061105 -0.186712 -2.31934 -0.164138 -3.67657 -5.15827 -29.8089 -9.09722 0.03 305.016 
84 1 1 0.790428 0.475142 1.57694 0 0 0 2.44021 0.238003 0.00451648 0.79094 1.31137 -2.46567 -5.51227 -50.5712 0.674901 0.03 340.925 
176 1 1 0.943364 0.470985 1.57686 0 0 0 2.34785 0.291767 -1.0715e-05 3.81721e-05 -6.74042e-06 4.56003e-05 -9.76542 -55.2972 3.7442 0.03 336.002 
25 1 1 1.05372 0.469085 1.57691 0 0 0 2.53033 0.00613231 0.000145167 0.040669 0.0112815 -0.716527 -0.224344 -49.0538 -2.05718 0.03 335.941 
169 1 1 1.43353 0.466268 1.57692 0 0 0 2.90283 -0.250864 0.013819 6.5828 2.81558 1.79251 7.88704 -36.0191 2.24698 0.03 357.446 
134 1 1 1.50774 0.474107 1.57683 0 0 0 2.70059 0.110111 -0.00469736 -0.0408716 -0.291016 0.780331 -3.43867 -43.5745 10.0735 0.03 339.587 
37 1 1 1.57195 0.480868 1.57689 0 0 0 2.79351 0.0926801 -0.0031436 -0.00202637 0.0072339 -0.281817 -3.10891 -40.3611 1.23052 0.03 348.073 
69 1 1 1.63384 0.465634 1.57686 0 0 0 2.81933 -0.0118186 6.45387e-06 -3.69497e-05 -4.80714e-07 -0.00756223 0.395564 -39.5166 -6.4876 0.03 385.615 
308 1 1 0.424771 0.512516 1.57745 0 0 0 1.77098 0.301441 0.126427 0.0995534 -0.10444 0.110037 -10.5015 -74.4355 -5.44339 0.03 326.571 
279 1 1 0.535467 0.518225 1.57606 0 0 0 1.70649 0.259192 0.0754686 -3.03892 2.66198 -1.5755 -8.80193 -78.0072 10.0623 0.03 335.974 
178 1 1 0.662001 0.50447 1.57669 0 0 0 2.46905 -0.079414 -0.0322115 0.260361 4.19627 5.20477 -0.796437 -51.0238 7.29261 0.03 310.468 
116 1 1 0.869635 0.505851 1.58014 0 0 0 2.40749 -0.297352 0.0115579 0 0 -2.77371 12.5595 -48.5247 3.72589 0.03 355.834 
6 1 1 1.00059 0.501976 1.57687 0 0 0 2.52575 0.156219 0.0159712 3.3366 -3.27834 -0.293198 -4.98294 -49.1298 2.17002 0.03 336.429 
160 1 1 1.10284 0.503751 1.57689 0 0 0 2.6365 -0.16464 0.00182858 -0.419077 0.636745 -0.83671 5.36257 -45.7062 -6.26621 0.03 363.889 
4 1 1 1.16209 0.490913 1.57737 0 0 0 2.52445 0.0217358 0.0257725 0 0 -2.77371 -0.750383 -49.0691 -14.3533 0.03 348.016 
117 1 1 1.3071 0.477132 1.57686 0 0 0 2.57595 -0.666014 0.000246608 -0.000778626 -0.0003643 -0.00779194 22.2916 -47.663 20.3761 0.03 357.429 
136 1 1 1.38438 0.501191 1.57692 0 0 0 2.95426 0.000346902 -0.00832864 2.1583 3.10177 -2.24172 3.12212 2.61996 6.23901 0.03 342.697 
255 1 1 0.269411 0.523331 1.58265 0 0 0 1.76352 0.226551 -0.848433 -12.4765 -5.32949 -0.589043 -6.54682 -52.6156 -21.5659 0.03 322.999 
272 1 1 0.479886 0.554958 1.57687 0 0 0 1.92264 0.604817 -0.00168656 1.34014 -0.342197 -0.00743647 -9.05621 -25.7186 1.34204 0.03 327.406 
21 1 1 0.961239 0.54286 1.59575 0 0 0 2.47253 -0.170282 0.347695 -2.86751 2.73335 -3.33422 17.8298 -24.5236 -7.90695 0.03 342.904 
34 1 1 1.2237 0.514723 1.57684 0 0 0 2.96954 -0.325699 -0.0110721 1.64713 0.782 0.872971 5.38619 -22.8765 7.84562 0.03 341.036 
61 1 1 1.52206 0.532674 1.57694 0 0 0 2.78595 0.0234593 0.0777115 6.78723 -10.117 -3.06562 -2.76428 -35.714 -8.40435 0.03 366.08 
152 1 1 1.61563 0.52613 1.57686 0 0 0 2.90251 0.0548721 -0.00118354 0.00297892 -0.000149537 0.0685212 -1.8366 -36.7334 -11.353 0.03 378.644 
238 1 1 0.212167 0.549648 1.57737 0 0 0 1.22368 -0.229425 0.118602 0.478426 0.719494 -2.72517 -2.05688 -77.0988 7.61303 0.03 310.08 
290 1 1 0.255919 0.583206 1.60017 0 0 0 0.622172 1.0399 -0.245136 0.528807 -2.58007 0.106637 18.1602 39.3998 -23.9911 0.03 300.325 
182 1 1 0.311895 0.564356 1.57577 0 0 0 1.24841 0.783973 0.104266 9.23637 3.62069 9.94381 -25.8021 -96.8314 19.1564 0.03 310.111 
304 1 1 0.567987 0.568546 1.5777 0 0 0 2.17716 0.00715941 0.00271425 0.789503 -1.81091 -0.501809 -8.35855 -29.6341 -30.1474 0.03 351.242 
249 1 1 0.627626 0.560131 1.57685 0 0 0 2.17628 0.0365011 -0.00813175 1.09359 -1.26053 0.563874 20.7722 -41.9684 20.4591 0.03 340.317 
226 1 1 0.785257 0.567653 1.57688 0 0 0 2.4257 0.2772 0.0143612 8.03745 -4.57264 7.36706 -9.07449 -54.5096 -8.59443 0.03 343.564 
119 1 1 0.846316 0.561456 1.57702 0 0 0 2.47226 -0.225468 -0.037074 0.109581 -0.0434143 -0.958923 7.54321 -50.9234 -6.42551 0.03 361.961 
48 1 1 0.907524 0.563705 1.5776 0 0 0 2.56265 0.0092843 0.0895201 0 0 -2.77371 -0.0959509 -47.85 1.9877 0.03 344.594 
227 1 1 1.11425 0.567434 1.57681 0 0 0 2.73581 -0.0817225 -0.0255861 -2.00942 0.428715 1.49091 2.92893 -44.2198 -10.8627 0.03 339.526 
147 1 1 1.18106 0.561007 1.57562 0 0 0 2.91369 -0.144167 -0.107035 -2.16662 -2.95037 19.0906 8.37134 -35.2471 -24.2702 0.03 346.587 
65 1 1 1.2368 0.577747 1.58706 0 0 0 2.90009 -0.52819 -0.445683 15.202 1.64298 6.1968 22.0872 -22.3 -26.0969 0.03 321.891 
17 1 1 1.29234 0.554 1.57686 0 0 0 2.98952 -0.146712 0.00469601 -0.367559 0.0263946 -0.185105 4.88573 -34.1528 -12.5276 0.03 343.074 
75 1 1 1.35606 0.553839 1.57672 0 0 0 2.8746 -0.038056 0.0546185 0.446401 0.816135 -0.900539 5.95052 -27.6646 -3.08298 0.03 333.421 
16 1 1 1.4161 0.555686 1.57665 0 0 0 2.99663 0.0816192 0.0360664 2.21983 -1.25298 2.32417 -2.3202 -31.8647 -2.95356 0.03 367.654 
118 1 1 1.47521 0.568738 1.57751 0 0 0 2.90071 0.0207328 -0.12831 -2.30323 -0.393368 -4.55175 4.40468 -37.5469 -10.5321 0.03 365.25 
156 1 1 1.6103 0.584023 1.59323 0 0 0 3.00949 -0.229969 -0.233572 -0.013741 -0.829097 -1.12476 10.9447 -30.6688 -16.1753 0.03 360.089 
89 1 1 1.05829 0.588294 1.59838 0 0 0 2.75211 -0.184953 -0.145135 0 0 -2.77371 5.53739 -37.7926 -21.2064 0.03 335.054 
186 1 1 0.428379 0.142546 1.62558 0 0 0 2.11433 -0.139609 0.0267516 0 0 -2.77371 8.86346 -53.92 46.3866 0.03 303.558 
97 1 1 0.59673 0.163506 1.60194 0 0 0 1.78745 0.22479 -0.0241413 -2.09753 -0.912624 -3.23905 -3.71574 -47.1996 54.518 0.03 354.35 
137 1 1 0.782167 0.144394 1.61854 0 0 0 2.08102 0.358357 -0.358494 0.00071941 1.0553 -0.930208 -16.9622 -32.9619 57.8068 0.03 341.305 
139 1 1 0.980519 0.138892 1.62889 0 0 0 2.34214 0.316687 -0.469487 0 0 -2.77371 -8.6322 -43.2141 27.7517 0.03 339.133 
76 1 1 1.09737 0.150031 1.61478 0 0 0 2.63354 0.160497 -0.101621 0.382101 0.304293 -3.38809 1.7971 -19.9319 27.3405 0.03 328.913 
115 1 1 1.23974 0.160796 1.6052 0 0 0 2.51525 0.0725162 -0.112594 0 0 -2.77371 5.98954 -41.5706 28.4198 0.03 337.45 
49 1 1 1.52576 0.152278 1.61069 0 0 0 3.03875 0.15701 -0.138751 0.0955787 -0.0587615 -1.64322 -6.85557 -14.4778 30.9542 0.03 316.483 
194 1 1 0.358496 0.161373 1.62905 0 0 0 1.46401 -0.6686 0.158025 0 0 -2.77371 -8.76043 62.0741 -20.2859 0.03 301.014 
252 1 1 0.716311 0.166103 1.59683 0 0 0 1.9911 -0.106419 -0.525017 10.6754 14.5628 12.9467 -1.43909 29.7969 -30.2041 0.03 300.766 
281 1 1 1.15937 0.166066 1.61081 0 0 0 2.57652 0.0199641 -0.458028 0 0 -2.77371 18.1154 -19.6231 18.2057 0.03 313.751 
315 1 1 0.22761 0.21383 1.61707 0 0 0 0.472535 -0.673571 0.520421 2.3839 -1.68476 1.75208 31.2935 85.0166 -19.7956 0.03 300.422 
349 1 1 0.443703 0.213873 1.62883 0 0 0 0.992859 -0.341693 -0.238183 45.5598 -0.673526 -4.21988 -25.356 38.0709 -8.54783 0.03 300.443 
330 1 1 0.613819 0.23099 1.621 0 0 0 1.43796 -0.137406 -0.794652 -9.9658 -3.37996 15.1844 8.02375 -2.69929 13.4726 0.03 300.028 
319 1 1 0.868194 0.225493 1.63452 0 0 0 1.83868 0.0898395 -0.0503433 0 0 -2.77371 16.2882 29.2416 -11.006 0.03 301.155 
253 1 1 0.278556 0.252656 1.59623 0 0 0 1.12982 -0.737635 -0.821762 0 0 -2.77371 46.8583 28.1654 -9.47978 0.03 300.137 
189 1 1 0.388275 0.229192 1.63675 0 0 0 1.35182 -0.759706 -0.857195 1.78277 -5.14142 -9.31264 -32.0085 -11.1006 23.2863 0.03 300.284 
322 1 1 1.03681 0.244135 1.6296 0 0 0 2.56552 0.00695915 0.200681 5.04916 0.0962798 7.52058 -31.9418 36.9437 -19.0242 0.03 301.577 
44 1 1 1.46888 0.263873 1.61288 0 0 0 2.91819 0.154521 -0.0675231 -0.205728 -0.336881 -1.6657 -2.31542 38.3598 1.34524 0.03 307.17 
207 1 1 0.216686 0.282005 1.62001 0 0 0 -0.490773 -0.396436 -1.25739 35.8853 -5.48048 -10.851 -13.4613 -29.4585 6.58575 0.03 300.095 
240 1 1 0.524378 0.277626 1.61327 0 0 0 1.05246 0.149017 -0.273907 0 0 -2.77371 25.7889 2.87502 12.5205 0.03 300.585 
282 1 1 0.635259 0.28877 1.63035 0 0 0 1.74005 -0.0201671 0.310604 1.91337 1.3408 1.48604 -2.59673 23.794 -4.15605 0.03 300.365 
71 1 1 0.877552 0.339608 1.62017 0 0 0 2.06978 0.250809 -0.218316 0 0 -2.77371 -5.55087 45.5474 13.7232 0.03 303.733 
191 1 1 0.133268 0.368892 1.59636 0 0 0 0.242991 0.148259 -1.4209 0.000835988 0.0220007 -2.75182 -32.8638 -2.8124 1.47807 0.03 300.033 
222 1 1 0.188692 0.340294 1.61123 0 0 0 0.2893 -0.0653451 -2.3153 0 0 -2.77371 15.3246 -20.4751 0.224599 0.03 300.003 
216 1 1 0.721926 0.37298 1.62982 0 0 0 1.98754 -0.0619479 -0.0358852 0.605174 -0.458812 -2.60043 -13.4834 31.2032 9.84143 0.03 300.45 
309 1 1 0.0706836 0.401674 1.59407 0 0 0 -0.77326 -0.0552826 -0.629255 -1.97986 32.8023 28.2959 -1.11661 33.2248 14.0201 0.03 300.449 
204 1 1 0.258632 0.404356 1.61728 0 0 0 0.464603 0.112703 0.815728 3.10255 19.4928 28.8275 -37.5509 70.4499 3.65884 0.03 301.264 
259 1 1 0.319801 0.389048 1.61111 0 0 0 0.923756 0.223865 -0.624711 0 0 -2.77371 6.79072 -6.02139 -10.7103 0.03 300.555 
250 1 1 0.407695 0.3777 1.62885 0 0 0 0.0765613 -0.0859711 -0.856591 -6.80916 6.00183 1.20704 -16.1031 -15.0436 14.4433 0.03 300.125 
334 1 1 0.610546 0.38164 1.63722 0 0 0 1.25436 -0.218757 0.236489 0.133768 -0.0839318 -2.56064 5.28794 14.6257 1.32125 0.03 300.918 
153 1 1 1.51935 0.382963 1.62732 0 0 0 2.92739 -0.0336823 0.0276446 1.97287 2.37463 2.37368 4.55835 34.044 8.00315 0.03 306.556 
346 1 1 0.47059 0.422271 1.62266 0 0 0 0.748004 0.535076 0.565621 7.99245 16.3003 32.8593 -26.5896 45.9655 -10.4303 0.03 301.532 
274 1 1 0.673744 0.41006 1.62933 0 0 0 1.47675 -0.352777 0.395086 0 0 -2.77371 -13.1589 17.281 5.11034 0.03 300.612 
254 1 1 0.802115 0.430347 1.61441 0 0 0 2.12346 0.100576 0.0376799 2.02303 -1.89465 -1.33864 7.20022 38.9044 10.9905 0.03 301.51 
261 1 1 0.118437 0.471736 1.63198 0 0 0 -0.483732 -0.0612465 -0.0407803 0 0 -2.77371 -19.6746 39.3261 5.08814 0.03 300.448 
262 1 1 0.670858 0.47073 1.62931 0 0 0 1.76872 -0.142799 0.44259 0 0 -2.77371 12.121 11.8562 -15.81 0.03 300.261 
296 1 1 1.1051 0.465603 1.62305 0 0 0 2.10467 -0.396759 -0.18511 -12.0128 10.0367 4.95949 7.8921 33.622 -0.532858 0.03 302.513 
210 1 1 0.180168 0.482337 1.6174 0 0 0 -0.0864425 -0.188704 -0.917329 32.3837 21.478 88.7503 1.02978 28.2585 -6.39639 0.03 300.348 
269 1 1 0.30275 0.494146 1.62709 0 0 0 0.587084 1.24129 0.181848 0.535689 3.22196 -6.6299 -24.1036 7.80992 5.60515 0.03 300.101 
190 1 1 0.423538 0.483977 1.63011 0 0 0 0.843099 0.262805 0.247528 -1.31659 -4.97978 -2.42965 16.7386 34.9519 11.6988 0.03 301.893 
263 1 1 0.549923 0.493934 1.62758 0 0 0 1.46517 0.144635 0.161824 -0.301258 -2.88946 4.2661 17.598 60.2668 7.04208 0.03 302.315 
20 1 1 1.53512 0.498793 1.62435 0 0 0 2.47709 -0.117249 0.0716852 1.38494 -1.68486 -1.53137 12.8163 33.297 7.40896 0.03 303.669 
198 1 1 0.613983 0.51766 1.61781 0 0 0 1.80073 0.00789012 -0.475226 0 0 -2.77371 23.7673 -3.12022 0.974208 0.03 300.065 
28 1 1 0.675933 0.546422 1.61673 0 0 0 1.99121 0.0811942 0.156059 3.34082 1.01033 -0.717837 1.56897 29.2473 0.459111 0.03 303.061 
265 1 1 0.755071 0.515963 1.60496 0 0 0 1.52612 -0.0826404 -0.768902 0 0 -2.77371 -0.459893 2.90817 -10.1667 0.03 301.477 
239 1 1 0.892271 0.544136 1.63405 0 0 0 1.77129 0.0352752 0.204087 0 0 -2.77371 -1.75246 22.221 -2.89744 0.03 301.169 
102 1 1 1.00275 0.536971 1.6391 0 0 0 2.37199 -0.207614 0.545019 0 0 -2.77371 -12.4091 18.3088 11.0983 0.03 302.407 
106 1 1 1.05628 0.526914 1.60735 0 0 0 2.12778 -0.455999 -0.450812 0 0 -2.77371 9.69453 15.2103 4.57682 0.03 304.207 
150 1 1 1.14026 0.525895 1.62209 0 0 0 1.89252 0.0727619 -0.116271 0 0 -2.77371 -2.193 25.6817 18.8763 0.03 302.209 
98 1 1 1.44986 0.521454 1.6122 0 0 0 3.06678 -0.0731732 -0.0793845 0.00103341 -0.0014947 -2.77025 -2.85194 37.5414 -6.51689 0.03 303.067 
208 1 1 0.340933 0.561909 1.6275 0 0 0 0.533961 0.839667 0.239518 1.03143 0.965319 15.1327 33.4974 69.3789 3.56007 0.03 300.303 
2 1 1 1.5608 0.557723 1.61465 0 0 0 2.91739 0.0271123 -0.142803 4.34288 -0.133567 2.37867 1.26714 46.3178 2.6371 0.03 319.504 
303 1 1 0.195304 0.601491 1.61067 0 0 0 0.619643 -0.177449 -0.083755 0.470251 0.629786 -3.48361 9.05788 -60.0733 -65.7858 0.03 325.181 
237 1 1 0.383662 0.6049 1.61817 0 0 0 1.55575 0.329842 0.148452 0 0 -2.77371 -17.1223 -61.6868 -46.4669 0.03 310.434 
55 1 1 0.613751 0.603501 1.61707 0 0 0 2.17584 0.128159 -0.0626793 -4.2527 30.148 -27.1939 -6.18974 -11.415 -69.916 0.03 310.509 
276 1 1 0.673635 0.606604 1.61551 0 0 0 2.04144 -0.0470318 0.219149 4.48657 -27.2306 18.8679 -4.20957 -69.2839 -23.0233 0.03 308.201 
52 1 1 0.780666 0.616177 1.62497 0 0 0 1.99604 -0.381016 -0.129828 1.10658 1.71268 -4.232 -2.00296 10.6573 17.072 0.03 304.346 
243 1 1 0.835745 0.591302 1.63092 0 0 0 1.72454 0.29849 -0.142401 0 0 -2.77371 -24.1556 8.28961 -32.9294 0.03 301.533 
154 1 1 0.910252 0.604553 1.62162 0 0 0 2.19058 0.00440172 0.193824 0 0 -2.77371 -5.06497 -28.3388 -54.1322 0.03 329.429 
57 1 1 0.99084 0.601413 1.61058 0 0 0 2.51589 0.0542756 0.0721491 -0.339912 -0.78364 -1.41658 -2.75875 -25.6633 -44.5642 0.03 340.217 
138 1 1 1.18877 0.6041 1.61464 0 0 0 2.8692 -0.161477 0.0954355 -0.846297 12.5579 14.8259 -12.5363 -12.5963 -14.7602 0.03 320.505 
99 1 1 1.35862 0.60572 1.61444 0 0 0 2.14777 -0.113721 0.0724342 -0.794847 -1.95403 -2.93679 2.48387 -43.7962 -45.048 0.03 344.63 
79 1 1 1.51756 0.600281 1.60941 0 0 0 2.84564 0.0458035 0.0474715 0.0170671 -1.41668 -0.738652 -1.81603 -29.0476 -25.6133 0.03 341.458 
332 1 1 0.230356 0.112563 1.65038 0 0 0 0.409647 0.111481 -0.110809 0.906175 1.12153 -1.11993 17.0527 -50.6753 43.2106 0.03 313.69 
62 1 1 0.56568 0.113461 1.65004 0 0 0 1.45694 -0.147873 0.159008 0 0 -2.77371 9.34223 -66.4567 53.6349 0.03 319.931 
74 1 1 0.874094 0.120303 1.64265 0 0 0 2.39742 0.196202 -0.185599 0.572797 0.718593 -1.36851 4.02103 -26.6834 27.3749 0.03 311.7 
333 1 1 0.933424 0.108784 1.65384 0 0 0 2.55287 0.307509 -0.243325 1.91403 2.556 0.127938 -11.6094 -22.2119 31.3077 0.03 313.628 
196 1 1 0.616145 0.145154 1.65998 0 0 0 1.12834 -0.232986 0.54013 0 0 -2.77371 13.8558 3.88542 -30.9185 0.03 300.834 
353 1 1 0.280596 0.197632 1.63923 0 0 0 0.933804 -0.670273 -0.250998 -0.854866 0.482352 -1.7842 -15.5068 -60.5396 28.2163 0.03 300.009 
231 1 1 0.535086 0.220069 1.63513 0 0 0 1.17317 0.140649 -0.222536 0 0 -2.77371 -13.4588 21.1892 -13.881 0.03 301.658 
183 1 1 0.667677 0.206911 1.64073 0 0 0 1.29218 -0.23729 -0.313837 0 0 -2.77371 -38.9012 59.4425 28.5604 0.03 300.739 
336 1 1 0.154706 0.233852 1.62904 0 0 0 -0.47411 -0.163218 -1.60137 -2.4649 -15.9266 -12.833 -19.1312 -62.5163 -3.56354 0.03 300.002 
292 1 1 0.161373 0.292041 1.63467 0 0 0 -0.604358 0.00483271 -2.32683 -41.7877 20.7471 22.2982 -20.8851 -10.8201 -10.1817 0.03 300 
275 1 1 0.313913 0.289177 1.63876 0 0 0 -0.191866 0.331703 -0.856386 1.63347 3.21998 -4.39401 -3.71609 -40.6919 6.38032 0.03 300.005 
347 1 1 0.407413 0.28587 1.63875 0 0 0 0.238444 -0.0491392 0.396807 -6.17493 -6.89156 -16.3646 -0.0066636 36.4285 1.04865 0.03 301.502 
341 1 1 0.769229 0.277266 1.65652 0 0 0 1.88537 -0.733283 -0.677634 0 0 -2.77371 10.6458 -38.4114 -11.8413 0.03 300.011 
211 1 1 0.355527 0.331921 1.63509 0 0 0 0.166508 0.309202 -0.330874 -1.63347 -3.21998 -1.15342 -14.2959 -11.1076 -16.0282 0.03 300.488 
273 1 1 0.467449 0.327623 1.63571 0 0 0 0.750065 -7.76977e-05 -1.15516 0 0 -2.77371 -0.739574 7.04986 0.837568 0.03 300.01 
212 1 1 0.569533 0.311173 1.64486 0 0 0 1.30114 -0.436331 0.483204 0 0 -2.77371 15.5103 40.9145 8.48812 0.03 301.332 
181 1 1 0.912686 0.303144 1.65485 0 0 0 2.14345 -0.0141148 -0.49681 0 0 -2.77371 -16.6147 8.67511 12.2755 0.03 300.768 
199 1 1 0.274016 0.34977 1.64797 0 0 0 0.627632 0.527895 -0.259977 0 0 -2.77371 -0.930679 -62.6925 0.411226 0.03 300.023 
184 1 1 0.521731 0.363653 1.63389 0 0 0 0.81915 -0.0860683 -0.859522 0 0 -2.77371 -42.3266 -14.8933 7.93808 0.03 300.007 
242 1 1 0.640209 0.340712 1.66887 0 0 0 1.93306 -0.040515 0.0684839 -0.133768 0.0839318 -2.98678 -4.33101 5.41075 12.5682 0.03 300.015 
306 1 1 0.201181 0.402439 1.6368 0 0 0 -0.429278 -0.0992875 -0.697014 0 0 -2.77371 18.9466 -56.421 29.1865 0.03 300.016 
235 1 1 0.289995 0.440971 1.65071 0 0 0 1.23747 0.979622 -0.0479565 6.23875 1.24913 4.14039 25.9952 -10.9789 21.2752 0.03 300.025 
318 1 1 0.409408 0.434956 1.66156 0 0 0 0.639522 -0.234192 0.00688092 1.21704 5.08422 -6.00153 3.60763 -23.2759 -24.6397 0.03 300.059 
295 1 1 0.5678 0.425335 1.63787 0 0 0 1.38474 -0.0649335 -0.426857 0 0 -2.77371 8.42625 -45.5961 -20.4347 0.03 300.05 
337 1 1 0.365042 0.500004 1.63715 0 0 0 0.829323 -0.699626 -1.84053 0 0 -2.77371 31.2707 -9.97608 -25.6621 0.03 300.001 
325 1 1 0.725766 0.481449 1.65157 0 0 0 1.67563 -0.500053 -0.715816 0 0 -2.77371 20.4992 -3.58033 -40.6405 0.03 300.021 
335 1 1 0.798755 0.500873 1.65273 0 0 0 1.86229 0.512367 -0.361331 0 0 -2.77371 -13.4698 -8.38252 33.3711 0.03 300.288 
310 1 1 0.172546 0.541321 1.65114 0 0 0 -0.41121 -0.133052 0.101163 0 0 -2.77371 13.6084 41.0633 17.9269 0.03 300.265 
188 1 1 0.252762 0.537798 1.63705 0 0 0 -0.0439454 -0.0987011 -0.542558 2.27883 2.45432 -10.4821 29.7843 -9.62619 -44.4835 0.03 300.115 
220 1 1 0.487325 0.531994 1.64465 0 0 0 1.61127 0.00370351 -0.0660997 0 0 -2.77371 -9.77805 -42.6815 -16.4542 0.03 300.091 
271 1 1 0.413032 0.550456 1.65894 0 0 0 0.616736 -0.229061 0.296864 -12.6449 13.1148 -15.5625 -9.70242 78.7986 21.8299 0.03 300.956 
201 1 1 0.5319 0.585292 1.64937 0 0 0 1.46884 0.584386 0.0643066 0 0 -2.77371 -22.9122 10.4143 7.43529 0.03 300.857 
224 1 1 0.727951 0.565056 1.63985 0 0 0 2.33635 0.524732 -0.398333 -0.773761 -0.408725 -3.39418 9.55905 -0.155853 19.0669 0.03 301.837 
27 1 1 1.29031 0.582444 1.63885 0 0 0 2.56638 -0.253745 0.0669854 0 0 -2.77371 -24.6587 -28.4302 -20.1132 0.03 333.774 
301 1 1 0.249309 0.633314 1.64491 0 0 0 0.929025 0.0335808 -0.0592807 0 0 -2.77371 7.79778 -18.5119 -73.7824 0.03 308.258 
326 1 1 0.536476 0.649699 1.65887 0 0 0 1.04464 -0.0603957 -0.0602963 -0.000436176 -0.989833 -0.988117 2.85391 -116.1 -23.6713 0.03 343.795 
72 1 1 0.720445 0.638642 1.64782 0 0 0 1.54936 -0.0505882 -0.050409 -0.000718633 -0.982087 -0.99532 2.38712 -46.8137 -69.0854 0.03 344.644 
305 1 1 0.550899 0.0750285 1.6973 0 0 0 0.878724 -0.756213 -0.125746 0 0 -2.77371 0.20648 14.4811 0.459482 0.03 300.549 
283 1 1 0.338404 0.0906811 1.67223 0 0 0 0.986006 -0.0145163 0.0121432 1.1884 1.57512 -0.951349 12.3637 -11.1265 18.79 0.03 307.769 
219 1 1 0.465786 0.240207 1.67743 0 0 0 1.40347 -0.166362 -0.427783 2.1079 1.95546 -1.20082 1.44549 -29.5948 -21.1823 0.03 300.034 
251 1 1 0.103547 0.274488 1.64917 0 0 0 0 0 -2.96774 0 0 -2.77371 0 0 0 0.03 300 
244 1 1 0.547673 0.273206 1.69967 0 0 0 1.80728 0.0335871 -0.611762 0 0 -2.77371 -33.4275 35.3451 23.6318 0.03 300 