ITEM: TIMESTEP
51000
ITEM: NUMBER OF ATOMS
353
ITEM: BOX BOUNDS ff ff ff
0 3.3
-0.3 0.8
-0.5 3
ITEM: ATOMS id type type x y z ix iy iz vx vy vz fx fy fz omegax omegay omegaz radius f_Temp[0] 
108 1 1 0.412043 0.185815 1.57731 0 0 0 1.51691 0.0548149 -0.0681788 1.99307 1.35344 -3.16454 -7.79104 -72.1643 28.0293 0.03 336.379 
47 1 1 0.610736 0.181692 1.58053 0 0 0 2.14333 -0.105927 0.133379 5.85215 7.33194 7.3867 5.89818 -79.2747 11.4386 0.03 319.926 
85 1 1 0.739204 0.171807 1.58906 0 0 0 1.80481 0.166425 0.152497 -6.75684 24.6453 18.6357 -3.13442 -94.6382 21.3176 0.03 305.666 
120 1 1 0.294305 0.22079 1.5748 0 0 0 1.35726 -0.127928 -0.380322 4.07459 1.91842 54.9295 2.63476 -98.1757 5.05871 0.03 321.939 
112 1 1 0.459708 0.222079 1.57673 0 0 0 1.86146 -0.218934 0.0962952 -1.54984 0.241961 -1.45653 -36.7746 -5.562 -26.172 0.03 319.437 
60 1 1 0.520363 0.223056 1.57517 0 0 0 2.36614 0.0149589 -0.236295 14.4501 2.0913 76.9422 0.714092 -62.6697 18.3092 0.03 310.617 
67 1 1 0.67546 0.196437 1.58716 0 0 0 2.14579 -0.179694 -0.155023 0 0 -2.77371 9.79452 -40.8055 2.01229 0.03 314.994 
58 1 1 0.170133 0.268928 1.5753 0 0 0 1.06309 0.0947701 0.301455 -16.3493 2.12829 20.5439 -11.1118 -98.6316 2.69092 0.03 309.079 
41 1 1 0.379936 0.263461 1.57534 0 0 0 1.73441 0.0543157 0.231129 0.391957 -0.457414 2.99349 -1.2952 -77.4948 6.05477 0.03 319.837 
142 1 1 0.66057 0.257096 1.57686 0 0 0 2.16029 -0.149806 0.0039467 0.291556 -0.144785 0.0171285 4.99761 -61.6452 -9.77784 0.03 323.831 
45 1 1 0.739589 0.245528 1.57681 0 0 0 2.77588 -0.789503 0.0334858 1.0391 0.327558 -0.594699 3.26824 32.5279 -10.4049 0.03 306.016 
8 1 1 0.835915 0.256122 1.57568 0 0 0 2.48393 -0.323397 0.114803 -0.216896 1.38285 28.0714 9.19756 -52.4344 3.30632 0.03 313.178 
13 1 1 0.290323 0.284888 1.57447 0 0 0 1.22844 0.0156134 -0.285283 -5.05634 13.4712 15.9641 -3.76128 -88.1811 -1.78203 0.03 320.716 
59 1 1 0.477997 0.278415 1.58477 0 0 0 1.73399 -0.0117367 -0.36228 0.684237 -7.75839 -14.5212 8.5391 -37.8838 19.0245 0.03 310.04 
86 1 1 0.605207 0.279977 1.5769 0 0 0 2.12738 -0.211744 0.0610078 -0.20983 0.117881 -3.38489 7.10986 -62.5825 -4.87654 0.03 327.872 
124 1 1 0.428477 0.312052 1.57718 0 0 0 1.24827 -0.235092 0.104372 -0.00744843 -0.0126511 -2.78064 13.4349 -78.7353 -1.02517 0.03 322.249 
81 1 1 0.536581 0.335532 1.57689 0 0 0 1.23024 0.0730593 -1.07371 100.195 32.4825 46.9842 -29.7756 -8.34899 -2.88224 0.03 300.368 
23 1 1 0.688451 0.334857 1.57836 0 0 0 1.85332 -0.306572 -0.601012 0 0 -2.77371 14.1987 -23.2079 -14.3714 0.03 325.843 
14 1 1 0.943888 0.323019 1.57686 0 0 0 2.42075 0.0677053 -2.50465e-06 8.773e-06 -3.76115e-07 7.81228e-05 -2.26609 -52.8573 -2.54476 0.03 325.614 
3 1 1 0.078488 0.343697 1.57872 0 0 0 0.346818 -0.00448618 0.403379 0 0 -2.77371 0.154843 -122.712 1.57106 0.03 303.547 
101 1 1 0.193564 0.343174 1.57601 0 0 0 1.14108 -0.0626051 0.441453 1.12199 -0.538586 -5.58678 -2.30097 -105.678 -0.199407 0.03 312.358 
64 1 1 0.279523 0.366946 1.57587 0 0 0 0.968781 -0.316133 -0.250277 -32.4947 -21.1249 -38.4793 25.9267 -86.8938 -14.9129 0.03 324.052 
143 1 1 0.356885 0.357426 1.57777 0 0 0 1.34594 0.186568 0.601783 0 0 -2.77371 -6.27377 -89.4079 -4.93991 0.03 303.938 
29 1 1 0.469418 0.355773 1.57891 0 0 0 1.32279 -0.277057 -0.0259589 -0.057232 -3.72584 -5.83203 6.1009 86.1695 5.47424 0.03 301.274 
96 1 1 0.749946 0.338079 1.57747 0 0 0 2.14754 -0.362374 -0.00417959 0 0 -2.77371 10.494 -54.0409 -1.48537 0.03 310.714 
82 1 1 0.861447 0.360028 1.57686 0 0 0 1.8063 -0.148108 -5.99213e-05 0.000284973 1.52515e-05 0.000463554 4.95714 -73.4228 2.87889 0.03 318.305 
69 1 1 0.201078 0.402938 1.57678 0 0 0 0.281341 0.292381 -0.104632 4.32672 1.69534 6.52031 -33.2716 -64.6757 23.9776 0.03 314.993 
122 1 1 0.417951 0.387807 1.57753 0 0 0 1.26424 -0.158618 0.0612429 0 0 -2.77371 5.20235 -91.6246 -7.45597 0.03 324.585 
135 1 1 0.127495 0.438041 1.59465 0 0 0 0.773644 0.205346 0.376191 0 0 -2.77371 -6.94327 -108.889 -4.466 0.03 303.806 
42 1 1 0.255363 0.446119 1.57825 0 0 0 0.382644 0.80783 -0.840515 0 0 -2.77371 -31.6584 59.9023 -9.46237 0.03 300.361 
131 1 1 0.372856 0.429704 1.57637 0 0 0 1.14018 -0.154646 -0.0327973 8.11869 -1.35078 13.6869 25.4723 25.2258 13.2315 0.03 301.891 
10 1 1 0.544722 0.433995 1.57669 0 0 0 1.8112 0.423722 -0.0511882 -1.68313 -1.69848 0.668334 -15.4017 -71.47 3.52272 0.03 326.919 
36 1 1 0.655618 0.43797 1.57698 0 0 0 2.07636 0.102953 0.0159996 0.181281 0.0529944 -2.39598 -18.1745 -13.8464 3.40092 0.03 306.261 
32 1 1 0.74643 0.435992 1.57701 0 0 0 1.8091 0.0227497 -0.0899587 -0.0742442 0.000634223 1.19075 -0.759944 -73.1968 -5.21338 0.03 314.293 
174 1 1 0.867208 0.422137 1.57686 0 0 0 2.45225 -0.0754124 -3.228e-05 1.28696 -0.522005 0.00387706 6.88274 -41.0571 2.83466 0.03 319.41 
61 1 1 0.201793 0.477744 1.57296 0 0 0 1.06781 0.302853 0.449871 -30.7951 12.1709 37.647 -12.1311 -112.155 -1.96662 0.03 308.335 
163 1 1 0.335074 0.479375 1.57706 0 0 0 1.33452 0.463628 -0.0517732 0.643482 -0.606345 -1.00541 4.27332 -67.9569 -34.3376 0.03 311.218 
30 1 1 0.458146 0.451959 1.57677 0 0 0 1.33473 -0.262883 -0.426786 34.3684 9.81781 21.9162 3.96705 -69.4497 -8.52551 0.03 336.439 
54 1 1 0.596279 0.463318 1.58032 0 0 0 1.90232 0.0947893 0.0899366 7.67225 5.2708 2.52666 -4.15227 -67.9979 -2.13885 0.03 322.477 
16 1 1 0.141327 0.514795 1.58323 0 0 0 0.461511 -0.0186136 -0.00221732 2.45261 -0.450494 -0.497481 -14.1689 -64.2242 13.0229 0.03 303.925 
63 1 1 0.4146 0.502757 1.57812 0 0 0 1.56171 0.229277 0.0274983 0 0 -2.77371 -7.72474 -81.678 0.320604 0.03 324.673 
39 1 1 0.505956 0.513257 1.57917 0 0 0 1.63562 0.383216 -0.264128 -1.10401 -0.957018 0.788859 13.1814 -88.7663 -1.76355 0.03 313.765 
66 1 1 0.649126 0.506971 1.57653 0 0 0 1.56091 0.245439 -0.0369459 0.369377 -0.0376696 9.2991 -8.25089 -81.9763 -8.61444 0.03 307.591 
168 1 1 0.722136 0.51153 1.57733 0 0 0 1.74277 -0.0717655 0.0628478 0 0 -2.77371 2.39922 -75.4611 10.3515 0.03 306.624 
100 1 1 0.787769 0.485998 1.57687 0 0 0 1.87282 0.0290355 0.00527457 -0.0253175 0.000346618 -0.311174 -0.971745 -71.1916 -5.29887 0.03 321.864 
121 1 1 0.285362 0.522937 1.57608 0 0 0 1.54074 0.575311 -1.01959 79.9153 -3.73378 87.7388 -17.9537 -52.4321 15.8993 0.03 313.361 
162 1 1 0.594244 0.536398 1.57714 0 0 0 1.70975 -0.043789 0.110154 8.74956 -7.48953 2.27163 1.72996 -75.8503 16.1826 0.03 314.893 
118 1 1 0.180474 0.585557 1.59338 0 0 0 1.21338 0.237321 0.368139 3.24393 19.8732 -0.0682043 -13.5371 -118.51 -16.2185 0.03 306.304 
152 1 1 0.251773 0.580732 1.59687 0 0 0 0.840711 0.470336 0.0486737 0 0 -2.77371 -16.1363 -105.272 11.7114 0.03 308.026 
158 1 1 0.399597 0.581469 1.58966 0 0 0 2.08363 0.417269 -0.448864 4.37043 -22.9717 60.0657 -7.9637 -8.62521 -80.7151 0.03 303.832 
109 1 1 0.461438 0.569062 1.57558 0 0 0 2.16502 -0.0268566 0.247193 0.55871 -3.13963 9.16769 -2.61453 -63.5856 -20.813 0.03 311.338 
103 1 1 0.546364 0.571063 1.57974 0 0 0 1.6728 -0.0271909 -0.1477 -1.76092 -2.37902 2.07935 5.49684 -57.5386 -35.8894 0.03 325.425 
113 1 1 0.803541 0.574638 1.58381 0 0 0 2.00679 -0.152776 -0.152757 -5.79511e-05 -0.988709 -0.988893 7.22486 -83.4301 -10.8361 0.03 325.254 
87 1 1 0.450722 0.153258 1.61021 0 0 0 1.32974 -0.204659 0.00511379 0 0 -2.77371 22.2583 24.8822 22.3406 0.03 303.476 
139 1 1 0.134375 0.226145 1.59649 0 0 0 -0.483961 -0.539398 -2.19007 16.9071 6.37392 6.82418 27.5575 -10.73 6.17147 0.03 300.056 
15 1 1 0.213318 0.214319 1.59927 0 0 0 0.513798 -0.724994 -0.536742 0 0 -2.77371 31.7253 35.3502 -0.377258 0.03 300.147 
49 1 1 0.315733 0.220615 1.62811 0 0 0 -0.585116 -0.104717 0.641687 15.9304 -2.17105 49.8742 -8.24692 28.6048 -25.8158 0.03 300.666 
173 1 1 0.411965 0.244289 1.61998 0 0 0 1.05008 -0.329452 0.749306 12.2757 -7.44129 28.1439 39.0007 37.6369 22.3794 0.03 300.424 
19 1 1 0.336039 0.299162 1.60607 0 0 0 0.540567 -0.0187713 -0.734603 -39.8579 -11.4344 -5.79009 -12.7596 43.6152 -16.4274 0.03 300.235 
91 1 1 0.238952 0.314422 1.60107 0 0 0 1.17153 -0.925509 0.209828 -1.83582 2.67195 -4.90456 43.6647 80.5869 -7.19909 0.03 300.692 
94 1 1 0.309331 0.34972 1.62132 0 0 0 0.551861 -0.657451 -0.258852 26.3685 -19.6803 35.5591 6.56199 70.9955 18.9918 0.03 300.342 
167 1 1 0.508871 0.393457 1.60278 0 0 0 1.4865 0.180716 -0.91876 -1.10719 3.44415 -0.666699 18.3919 -19.2283 32.8122 0.03 300.819 
50 1 1 0.316039 0.412084 1.59091 0 0 0 0.852558 -0.0662996 -1.39757 1.61032 1.56795 -0.85948 22.99 -27.7917 -23.4195 0.03 300.006 
145 1 1 0.424405 0.42574 1.63201 0 0 0 0.743996 0.629144 -0.272776 -0.0853726 -0.30514 -2.86595 -5.50407 41.2096 1.91899 0.03 300.758 
169 1 1 0.221536 0.481332 1.62504 0 0 0 -0.00234217 0.254045 1.3055 8.32038 5.47917 55.4645 17.5105 71.0891 5.1016 0.03 300.195 
105 1 1 0.415278 0.484792 1.63698 0 0 0 0.624742 0.565794 0.140709 -25.2092 -24.8552 -19.1254 11.9306 66.5505 -6.19469 0.03 300.918 
9 1 1 0.490197 0.474419 1.62131 0 0 0 1.13847 0.249907 -0.134742 -5.12675 2.45571 -0.248269 -13.0892 55.8644 17.9461 0.03 301.37 
83 1 1 0.550636 0.50524 1.62957 0 0 0 1.74324 0.50685 0.738591 0 0 -2.77371 5.00779 82.3266 13.0114 0.03 300.323 
140 1 1 0.840675 0.486298 1.6261 0 0 0 1.91018 0.0155893 -0.200742 0 0 -2.77371 -2.11596 -33.9412 0.440971 0.03 304.049 
117 1 1 0.190259 0.530895 1.61191 0 0 0 0.444069 0.489123 0.814386 -4.47928 -36.8502 5.84283 6.12817 50.7599 16.8949 0.03 300.136 
99 1 1 0.310024 0.523744 1.63036 0 0 0 0.512755 0.92313 -0.402036 20.0428 12.693 -13.1405 17.052 -3.74632 -8.97109 0.03 300.161 
172 1 1 0.607342 0.595715 1.60575 0 0 0 1.85818 0.130942 0.0242154 0 0 -2.77371 -10.1863 -62.2319 -39.3405 0.03 314.64 
88 1 1 0.502153 0.210039 1.63598 0 0 0 0.552025 -0.735243 -0.657405 0 0 -2.77371 25.3644 5.45254 -15.3346 0.03 300.072 
80 1 1 0.586067 0.214393 1.64417 0 0 0 1.31915 -0.178642 0.203352 0 0 -2.77371 -11.1196 32.8548 -25.5688 0.03 300.208 
125 1 1 0.348415 0.266765 1.65184 0 0 0 0.431678 0.0523802 -0.680999 37.9185 -21.4908 57.5179 -10.956 -18.7169 -19.9598 0.03 300.009 
51 1 1 0.202692 0.287437 1.63964 0 0 0 -0.210339 -1.08112 -0.977142 -17.8294 11.416 -0.226562 14.7568 -20.5426 7.49985 0.03 300.007 
76 1 1 0.260026 0.276078 1.6464 0 0 0 0.135816 0.545753 -0.970721 20.0988 13.9365 -0.552402 27.8869 27.8369 -7.03683 0.03 300.429 
155 1 1 0.488552 0.285546 1.64281 0 0 0 1.2739 -0.0988784 -0.424349 15.6326 -39.5268 -12.2989 -35.2102 9.55112 10.6705 0.03 300.317 
46 1 1 0.579818 0.290263 1.63933 0 0 0 0.862533 -0.250172 -0.0716255 0 0 -2.77371 -5.89946 10.5853 -21.4766 0.03 300.43 
144 1 1 0.371627 0.320934 1.64753 0 0 0 0.336846 0.2585 -2.13583 66.8924 10.0637 27.2659 -8.95478 -4.97176 14.1245 0.03 300 
159 1 1 0.529149 0.328067 1.65647 0 0 0 1.26471 0.443155 -0.360725 0 0 -2.77371 27.7594 -3.54186 -1.50948 0.03 300.005 
132 1 1 0.167806 0.360832 1.64042 0 0 0 -0.482264 0.18063 0.105439 0 0 -2.77371 56.83 36.4985 7.29979 0.03 300.184 
20 1 1 0.407971 0.368633 1.64475 0 0 0 0.482108 0.10004 -1.08848 0 0 -2.77371 45.9111 -10.2467 -16.5748 0.03 300.016 
92 1 1 0.585721 0.353199 1.62927 0 0 0 1.17175 -0.051805 -0.722428 0 0 -2.77371 -16.0651 -16.4362 11.1672 0.03 300.354 
133 1 1 0.809275 0.374184 1.66188 0 0 0 1.45209 0.340449 -0.634933 0 0 -2.77371 -5.42725 -57.2091 -15.3957 0.03 303.944 
77 1 1 0.218256 0.431621 1.65489 0 0 0 0.113877 -1.22433 -0.971039 5.35501 -24.5433 32.9817 40.6843 -17.8892 -16.0328 0.03 300.002 
151 1 1 0.534125 0.421089 1.64881 0 0 0 0.990117 0.606587 -0.624046 1.17187 0.294338 -1.81548 -12.659 17.3033 2.47974 0.03 300.01 
57 1 1 0.255225 0.520656 1.65153 0 0 0 0.643199 1.09996 -0.243922 -1.37891 2.00343 24.9193 -42.5539 0.320722 16.6474 0.03 300.002 
27 1 1 0.349283 0.48625 1.65417 0 0 0 -0.049516 -0.162208 -0.498231 -5.52728 -1.98944 -12.3948 14.4963 -21.3129 -4.65648 0.03 300.008 
149 1 1 0.462479 0.507726 1.66278 0 0 0 0.540716 0.224337 0.219398 22.3441 -18.8707 46.4539 9.34475 -52.5321 6.95984 0.03 300.014 
79 1 1 0.398837 0.55466 1.64313 0 0 0 0.247309 0.548748 -0.200437 4.30335 1.16273 -4.95196 3.78411 -11.0836 -19.3262 0.03 300.851 
157 1 1 0.630909 0.550647 1.64625 0 0 0 1.64473 -0.000973832 0.338253 0 0 -2.77371 -18.9003 88.2493 6.98209 0.03 300.3 
18 1 1 0.457289 0.556049 1.63101 0 0 0 0.622396 0.115575 0.462079 2.99958 10.8371 19.3957 -1.59246 15.0209 5.96788 0.03 300.193 
156 1 1 0.424159 0.649932 1.66903 0 0 0 1.26011 0.305667 0.394196 0 0 -2.77371 -24.298 -57.1889 -50.7379 0.03 303.44 
78 1 1 0.296522 0.13624 1.69534 0 0 0 0.840524 -0.590493 -0.14308 0 0 -2.77371 28.2436 73.2207 -0.414164 0.03 300.124 
137 1 1 0.25031 0.229981 1.67953 0 0 0 -0.0693056 -0.891807 -1.56836 -2.7848 -26.8488 -5.3673 35.7138 -14.839 -7.66977 0.03 300.002 
7 1 1 0.44739 0.268373 1.68727 0 0 0 0.635827 0.0738943 -0.355309 0 0 -2.77371 4.13988 -48.6543 12.5829 0.03 300.002 
56 1 1 0.469982 0.33836 1.65764 0 0 0 0.914247 -0.0560046 -1.38343 -16.2087 46.4427 18.5078 -24.4483 14.675 15.1639 0.03 300.001 
104 1 1 0.327997 0.384033 1.66127 0 0 0 1.30874 1.00423 -0.551414 18.3776 47.5807 56.5001 -47.7798 -19.9999 32.8815 0.03 300.002 
130 1 1 0.492488 0.449086 1.68275 0 0 0 1.45581 0.431014 0.312412 0 0 -2.77371 27.5258 -51.7108 -19.1684 0.03 300.021 
75 1 1 0.391664 0.511587 1.68611 0 0 0 0.436962 -0.346112 -0.49824 5.75081 1.93094 6.98035 29.279 1.5471 -8.3009 0.03 300.007 
165 1 1 0.374114 0.234762 1.6973 0 0 0 0.496174 -0.133401 -1.38632 0 0 -2.77371 46.2335 11.7757 -14.238 0.03 300 
12 1 1 0.150682 0.290471 1.70178 0 0 0 0 0 -2.78841 0 0 -2.77371 0 0 0 0.03 300 
24 1 1 0.437731 0.400846 1.72175 0 0 0 0.430506 -0.474177 -0.909126 24.7843 -2.62599 -2.70196 15.6081 -28.1395 -11.5315 0.03 300 
34 1 1 0.161462 0.479607 1.68191 0 0 0 0 0 -2.85747 0 0 -2.77371 0 0 0 0.03 300 
4 1 1 0.283869 0.446206 1.68148 0 0 0 0 0 -2.85895 0 0 -2.77371 0 0 0 0.03 300 
2 1 1 0.391288 0.602168 1.71132 0 0 0 0.763244 1.14936 0.2479 0 0 -2.77371 29.9697 -62.4635 12.0468 0.03 300.012 
115 1 1 0.29951 0.265646 1.74871 0 0 0 0 0 -2.61811 0 0 -2.77371 0 0 0 0.03 300 
21 1 1 0.18594 0.400862 1.73725 0 0 0 0 0 -2.66069 0 0 -2.77371 0 0 0 0.03 300 
126 1 1 0.386328 0.394197 1.74762 0 0 0 -0.708959 -0.269092 -1.81725 -24.7843 2.62599 -2.84546 -2.71111 -28.2568 -11.4363 0.03 300 
170 1 1 0.448147 0.302404 1.7656 0 0 0 0 0 -2.55405 0 0 -2.77371 0 0 0 0.03 300 
160 1 1 0.115232 0.435564 1.76949 0 0 0 0 0 -2.53904 0 0 -2.77371 0 0 0 0.03 300 
114 1 1 0.101873 0.240116 1.79668 0 0 0 0 0 -2.43172 0 0 -2.77371 0 0 0 0.03 300 
1 1 1 0.44893 0.24186 1.80107 0 0 0 0 0 -2.41396 0 0 -2.77371 0 0 0 0.03 300 
11 1 1 0.20764 0.30353 1.79168 0 0 0 0 0 -2.45183 0 0 -2.77371 0 0 0 0.03 300 
71 1 1 0.27192 0.349064 1.80331 0 0 0 0 0 -2.40484 0 0 -2.77371 0 0 0 0.03 300 
154 1 1 0.211019 0.445658 1.8217 0 0 0 0 0 -2.32862 0 0 -2.77371 0 0 0 0.03 300 
106 1 1 0.375691 0.47682 1.78812 0 0 0 0 0 -2.46606 0 0 -2.77371 0 0 0 0.03 300 
129 1 1 0.201147 0.51232 1.78855 0 0 0 0 0 -2.46429 0 0 -2.77371 0 0 0 0.03 300 
89 1 1 0.26845 0.48437 1.81759 0 0 0 0 0 -2.34588 0 0 -2.77371 0 0 0 0.03 300 
26 1 1 0.474436 0.482152 1.78668 0 0 0 0 0 -2.47175 0 0 -2.77371 0 0 0 0.03 300 
161 1 1 0.383875 0.233035 1.85448 0 0 0 0 0 -2.18618 0 0 -2.77371 0 0 0 0.03 300 
33 1 1 0.10471 0.363257 1.8231 0 0 0 0 0 -2.32273 0 0 -2.77371 0 0 0 0.03 300 
35 1 1 0.342434 0.364463 1.83208 0 0 0 0 0 -2.28447 0 0 -2.77371 0 0 0 0.03 300 
38 1 1 0.303454 0.414467 1.84728 0 0 0 0 0 -2.21825 0 0 -2.77371 0 0 0 0.03 300 
146 1 1 0.495146 0.246598 1.88891 0 0 0 0 0 -2.02578 0 0 -2.77371 0 0 0 0.03 300 
127 1 1 0.381994 0.300043 1.86445 0 0 0 0 0 -2.14095 0 0 -2.77371 0 0 0 0.03 300 
44 1 1 0.485944 0.343638 1.88453 0 0 0 0 0 -2.04687 0 0 -2.77371 0 0 0 0.03 300 
166 1 1 0.165431 0.374869 1.89385 0 0 0 0 0 -2.00175 0 0 -2.77371 0 0 0 0.03 300 
141 1 1 0.429803 0.380165 1.86678 0 0 0 0 0 -2.13026 0 0 -2.77371 0 0 0 0.03 300 
111 1 1 0.473074 0.424163 1.87618 0 0 0 0 0 -2.08651 0 0 -2.77371 0 0 0 0.03 300 
119 1 1 0.126835 0.482642 1.89259 0 0 0 0 0 -2.00793 0 0 -2.77371 0 0 0 0.03 300 
97 1 1 0.184928 0.234672 1.92789 0 0 0 0 0 -1.82733 0 0 -2.77371 0 0 0 0.03 300 
28 1 1 0.222318 0.404493 1.91293 0 0 0 0 0 -1.9059 0 0 -2.77371 0 0 0 0.03 300 
93 1 1 0.225968 0.488444 1.92576 0 0 0 0 0 -1.83871 0 0 -2.77371 0 0 0 0.03 300 
90 1 1 0.102204 0.238351 1.9504 0 0 0 0 0 -1.70215 0 0 -2.77371 0 0 0 0.03 300 
74 1 1 0.248328 0.247523 1.93821 0 0 0 0 0 -1.77102 0 0 -2.77371 0 0 0 0.03 300 
62 1 1 0.329189 0.252757 1.9549 0 0 0 0 0 -1.67606 0 0 -2.77371 0 0 0 0.03 300 
43 1 1 0.460616 0.284913 1.96888 0 0 0 0 0 -1.59208 0 0 -2.77371 0 0 0 0.03 300 
5 1 1 0.160428 0.3182 1.93855 0 0 0 0 0 -1.76915 0 0 -2.77371 0 0 0 0.03 300 
95 1 1 0.346797 0.327727 1.96217 0 0 0 0 0 -1.63289 0 0 -2.77371 0 0 0 0.03 300 
175 1 1 0.230789 0.339127 1.94496 0 0 0 0 0 -1.73325 0 0 -2.77371 0 0 0 0.03 300 
37 1 1 0.41824 0.41741 1.95793 0 0 0 0 0 -1.6582 0 0 -2.77371 0 0 0 0.03 300 
17 1 1 0.345254 0.512161 1.95826 0 0 0 0 0 -1.65624 0 0 -2.77371 0 0 0 0.03 300 
134 1 1 0.443832 0.509496 1.93815 0 0 0 0 0 -1.77131 0 0 -2.77371 0 0 0 0.03 300 
40 1 1 0.408343 0.240904 2.00434 0 0 0 0 0 -1.35615 0 0 -2.77371 0 0 0 0.03 300 
25 1 1 0.278223 0.363632 1.99195 0 0 0 0 0 -1.44297 0 0 -2.77371 0 0 0 0.03 300 
123 1 1 0.48159 0.360101 1.99559 0 0 0 0 0 -1.41805 0 0 -2.77371 0 0 0 0.03 300 
116 1 1 0.152794 0.405213 1.9821 0 0 0 0 0 -1.5085 0 0 -2.77371 0 0 0 0.03 300 
128 1 1 0.355123 0.421294 1.96979 0 0 0 0 0 -1.58649 0 0 -2.77371 0 0 0 0.03 300 
98 1 1 0.491139 0.43458 2.00145 0 0 0 0 0 -1.37685 0 0 -2.77371 0 0 0 0.03 300 
138 1 1 0.301221 0.470777 1.98784 0 0 0 0 0 -1.47063 0 0 -2.77371 0 0 0 0.03 300 
72 1 1 0.10161 0.511094 2.0062 0 0 0 0 0 -1.34261 0 0 -2.77371 0 0 0 0.03 300 
22 1 1 0.254767 0.230824 2.04078 0 0 0 0 0 -1.06018 0 0 -2.77371 0 0 0 0.03 300 
73 1 1 0.170916 0.265084 2.04448 0 0 0 0 0 -1.02546 0 0 -2.77371 0 0 0 0.03 300 
171 1 1 0.477654 0.251099 2.04011 0 0 0 0 0 -1.06646 0 0 -2.77371 0 0 0 0.03 300 
110 1 1 0.10205 0.273683 2.04353 0 0 0 0 0 -1.03448 0 0 -2.77371 0 0 0 0.03 300 
31 1 1 0.221691 0.336081 2.03141 0 0 0 0 0 -1.14367 0 0 -2.77371 0 0 0 0.03 300 
68 1 1 0.400811 0.324654 2.00959 0 0 0 0 0 -1.3176 0 0 -2.77371 0 0 0 0.03 300 
84 1 1 0.227036 0.399722 2.01982 0 0 0 0 0 -1.23912 0 0 -2.77371 0 0 0 0.03 300 
148 1 1 0.12082 0.460146 2.0398 0 0 0 0 0 -1.06921 0 0 -2.77371 0 0 0 0.03 300 
55 1 1 0.200976 0.455034 2.01424 0 0 0 0 0 -1.28248 0 0 -2.77371 0 0 0 0.03 300 
136 1 1 0.374023 0.456818 2.03164 0 0 0 0 0 -1.14171 0 0 -2.77371 0 0 0 0.03 300 
65 1 1 0.421483 0.499457 2.04244 0 0 0 0 0 -1.04478 0 0 -2.77371 0 0 0 0.03 300 
48 1 1 0.17066 0.517967 2.02408 0 0 0 0 0 -1.20488 0 0 -2.77371 0 0 0 0.03 300 
281 1 1 0.411814 0.252027 2.07403 0 0 0 -0 -0 -1 0 0 0 0 0 0 0.03 300 
164 1 1 0.244978 0.28843 2.06115 0 0 0 -0 -0 -1 0 0 0 0 0 0 0.03 300 
107 1 1 0.303471 0.271065 2.0497 0 0 0 -0 -0 -1 0 0 0 0 0 0 0.03 300 
70 1 1 0.142707 0.355749 2.05494 0 0 0 -0 -0 -1 0 0 0 0 0 0 0.03 300 
53 1 1 0.294932 0.364362 2.06 0 0 0 -0 -0 -1 0 0 0 0 0 0 0.03 300 
102 1 1 0.419044 0.351535 2.06593 0 0 0 -0 -0 -1 0 0 0 0 0 0 0.03 300 
176 1 1 0.349719 0.399621 2.06537 0 0 0 -0 -0 -1 0 0 0 0 0 0 0.03 300 
153 1 1 0.496538 0.392613 2.05762 0 0 0 -0 -0 -1 0 0 0 0 0 0 0.03 300 
326 1 1 0.187055 0.479944 2.0694 0 0 0 -0 -0 -1 0 0 0 0 0 0 0.03 300 
6 1 1 0.317689 0.454971 2.0624 0 0 0 -0 -0 -1 0 0 0 0 0 0 0.03 300 
147 1 1 0.248507 0.49546 2.06684 0 0 0 -0 -0 -1 0 0 0 0 0 0 0.03 300 
150 1 1 0.481625 0.503918 2.0472 0 0 0 -0 -0 -1 0 0 0 0 0 0 0.03 300 
52 1 1 0.358392 0.516981 2.06661 0 0 0 -0 -0 -1 0 0 0 0 0 0 0.03 300 
333 1 1 0.346739 0.243699 2.0862 0 0 0 -0 -0 -1 0 0 0 0 0 0 0.03 300 
339 1 1 0.110214 0.298119 2.10191 0 0 0 -0 -0 -1 0 0 0 0 0 0 0.03 300 
181 1 1 0.375154 0.318829 2.10476 0 0 0 -0 -0 -1 0 0 0 0 0 0 0.03 300 
225 1 1 0.490773 0.317233 2.08038 0 0 0 -0 -0 -1 0 0 0 0 0 0 0.03 300 
289 1 1 0.101436 0.395361 2.08744 0 0 0 -0 -0 -1 0 0 0 0 0 0 0.03 300 
304 1 1 0.124838 0.500222 2.10944 0 0 0 -0 -0 -1 0 0 0 0 0 0 0.03 300 
243 1 1 0.453661 0.506792 2.10908 0 0 0 -0 -0 -1 0 0 0 0 0 0 0.03 300 
288 1 1 0.209802 0.229296 2.14867 0 0 0 -0 -0 -1 0 0 0 0 0 0 0.03 300 
307 1 1 0.30626 0.26717 2.12469 0 0 0 -0 -0 -1 0 0 0 0 0 0 0.03 300 
221 1 1 0.425449 0.24778 2.14309 0 0 0 -0 -0 -1 0 0 0 0 0 0 0.03 300 
300 1 1 0.170925 0.32143 2.12555 0 0 0 -0 -0 -1 0 0 0 0 0 0 0.03 300 
340 1 1 0.235778 0.333975 2.14058 0 0 0 -0 -0 -1 0 0 0 0 0 0 0.03 300 
187 1 1 0.476873 0.306542 2.14249 0 0 0 -0 -0 -1 0 0 0 0 0 0 0.03 300 
180 1 1 0.296048 0.338714 2.12378 0 0 0 -0 -0 -1 0 0 0 0 0 0 0.03 300 
190 1 1 0.226585 0.401613 2.12024 0 0 0 -0 -0 -1 0 0 0 0 0 0 0.03 300 
268 1 1 0.442536 0.376191 2.13924 0 0 0 -0 -0 -1 0 0 0 0 0 0 0.03 300 
296 1 1 0.486808 0.439095 2.11562 0 0 0 -0 -0 -1 0 0 0 0 0 0 0.03 300 
249 1 1 0.173789 0.449512 2.13177 0 0 0 -0 -0 -1 0 0 0 0 0 0 0.03 300 
227 1 1 0.405439 0.458732 2.11611 0 0 0 -0 -0 -1 0 0 0 0 0 0 0.03 300 
301 1 1 0.196268 0.514676 2.13764 0 0 0 -0 -0 -1 0 0 0 0 0 0 0.03 300 
276 1 1 0.289349 0.515799 2.14369 0 0 0 -0 -0 -1 0 0 0 0 0 0 0.03 300 
213 1 1 0.125891 0.243147 2.15527 0 0 0 -0 -0 -1 0 0 0 0 0 0 0.03 300 
196 1 1 0.358915 0.233995 2.17735 0 0 0 -0 -0 -1 0 0 0 0 0 0 0.03 300 
322 1 1 0.49924 0.247443 2.15573 0 0 0 -0 -0 -1 0 0 0 0 0 0 0.03 300 
257 1 1 0.107883 0.30308 2.16464 0 0 0 -0 -0 -1 0 0 0 0 0 0 0.03 300 
230 1 1 0.257855 0.281878 2.16402 0 0 0 -0 -0 -1 0 0 0 0 0 0 0.03 300 
245 1 1 0.160535 0.375989 2.17766 0 0 0 -0 -0 -1 0 0 0 0 0 0 0.03 300 
254 1 1 0.380252 0.376413 2.18303 0 0 0 -0 -0 -1 0 0 0 0 0 0 0.03 300 
291 1 1 0.499679 0.383275 2.15751 0 0 0 -0 -0 -1 0 0 0 0 0 0 0.03 300 
178 1 1 0.318639 0.427051 2.16674 0 0 0 -0 -0 -1 0 0 0 0 0 0 0.03 300 
352 1 1 0.377854 0.441153 2.17506 0 0 0 -0 -0 -1 0 0 0 0 0 0 0.03 300 
246 1 1 0.107302 0.455042 2.16023 0 0 0 -0 -0 -1 0 0 0 0 0 0 0.03 300 
226 1 1 0.253931 0.465065 2.16163 0 0 0 -0 -0 -1 0 0 0 0 0 0 0.03 300 
265 1 1 0.446064 0.454668 2.1743 0 0 0 -0 -0 -1 0 0 0 0 0 0 0.03 300 
224 1 1 0.391331 0.524514 2.16276 0 0 0 -0 -0 -1 0 0 0 0 0 0 0.03 300 
317 1 1 0.252263 0.228507 2.2089 0 0 0 -0 -0 -1 0 0 0 0 0 0 0.03 300 
252 1 1 0.442785 0.262265 2.21054 0 0 0 -0 -0 -1 0 0 0 0 0 0 0.03 300 
248 1 1 0.155073 0.291265 2.20256 0 0 0 -0 -0 -1 0 0 0 0 0 0 0.03 300 
209 1 1 0.352404 0.322469 2.19158 0 0 0 -0 -0 -1 0 0 0 0 0 0 0.03 300 
313 1 1 0.439938 0.327558 2.1983 0 0 0 -0 -0 -1 0 0 0 0 0 0 0.03 300 
204 1 1 0.215487 0.347963 2.20667 0 0 0 -0 -0 -1 0 0 0 0 0 0 0.03 300 
346 1 1 0.2812 0.398881 2.20476 0 0 0 -0 -0 -1 0 0 0 0 0 0 0.03 300 
335 1 1 0.429091 0.407041 2.20734 0 0 0 -0 -0 -1 0 0 0 0 0 0 0.03 300 
270 1 1 0.207615 0.426676 2.18897 0 0 0 -0 -0 -1 0 0 0 0 0 0 0.03 300 
239 1 1 0.490736 0.457949 2.21796 0 0 0 -0 -0 -1 0 0 0 0 0 0 0.03 300 
279 1 1 0.157212 0.495968 2.19757 0 0 0 -0 -0 -1 0 0 0 0 0 0 0.03 300 
201 1 1 0.360389 0.493184 2.2174 0 0 0 -0 -0 -1 0 0 0 0 0 0 0.03 300 
217 1 1 0.461801 0.523439 2.207 0 0 0 -0 -0 -1 0 0 0 0 0 0 0.03 300 
351 1 1 0.181906 0.258163 2.24663 0 0 0 -0 -0 -1 0 0 0 0 0 0 0.03 300 
305 1 1 0.346674 0.257421 2.2322 0 0 0 -0 -0 -1 0 0 0 0 0 0 0.03 300 
319 1 1 0.490886 0.237209 2.2535 0 0 0 -0 -0 -1 0 0 0 0 0 0 0.03 300 
193 1 1 0.281872 0.329623 2.22076 0 0 0 -0 -0 -1 0 0 0 0 0 0 0.03 300 
233 1 1 0.496558 0.3336 2.23785 0 0 0 -0 -0 -1 0 0 0 0 0 0 0.03 300 
298 1 1 0.133415 0.358363 2.2502 0 0 0 -0 -0 -1 0 0 0 0 0 0 0.03 300 
272 1 1 0.116473 0.427779 2.22318 0 0 0 -0 -0 -1 0 0 0 0 0 0 0.03 300 
334 1 1 0.38649 0.410383 2.25433 0 0 0 -0 -0 -1 0 0 0 0 0 0 0.03 300 
237 1 1 0.207046 0.471117 2.23263 0 0 0 -0 -0 -1 0 0 0 0 0 0 0.03 300 
262 1 1 0.417911 0.469013 2.2321 0 0 0 -0 -0 -1 0 0 0 0 0 0 0.03 300 
303 1 1 0.114998 0.510423 2.24123 0 0 0 -0 -0 -1 0 0 0 0 0 0 0.03 300 
263 1 1 0.269308 0.500141 2.23382 0 0 0 -0 -0 -1 0 0 0 0 0 0 0.03 300 
283 1 1 0.300071 0.232043 2.27541 0 0 0 -0 -0 -1 0 0 0 0 0 0 0.03 300 
332 1 1 0.233113 0.233231 2.26729 0 0 0 -0 -0 -1 0 0 0 0 0 0 0.03 300 
206 1 1 0.126939 0.284236 2.26405 0 0 0 -0 -0 -1 0 0 0 0 0 0 0.03 300 
194 1 1 0.257372 0.298287 2.26748 0 0 0 -0 -0 -1 0 0 0 0 0 0 0.03 300 
231 1 1 0.39189 0.276895 2.26772 0 0 0 -0 -0 -1 0 0 0 0 0 0 0.03 300 
338 1 1 0.455834 0.299724 2.27811 0 0 0 -0 -0 -1 0 0 0 0 0 0 0.03 300 
197 1 1 0.187467 0.323213 2.28686 0 0 0 -0 -0 -1 0 0 0 0 0 0 0.03 300 
347 1 1 0.332014 0.322805 2.26638 0 0 0 -0 -0 -1 0 0 0 0 0 0 0.03 300 
331 1 1 0.280682 0.358343 2.279 0 0 0 -0 -0 -1 0 0 0 0 0 0 0.03 300 
216 1 1 0.415188 0.353574 2.27582 0 0 0 -0 -0 -1 0 0 0 0 0 0 0.03 300 
285 1 1 0.200673 0.388027 2.28116 0 0 0 -0 -0 -1 0 0 0 0 0 0 0.03 300 
341 1 1 0.462863 0.403415 2.25862 0 0 0 -0 -0 -1 0 0 0 0 0 0 0.03 300 
208 1 1 0.292126 0.417938 2.26843 0 0 0 -0 -0 -1 0 0 0 0 0 0 0.03 300 
271 1 1 0.316171 0.515613 2.28673 0 0 0 -0 -0 -1 0 0 0 0 0 0 0.03 300 
325 1 1 0.454753 0.482086 2.2802 0 0 0 -0 -0 -1 0 0 0 0 0 0 0.03 300 
185 1 1 0.176568 0.243013 2.30859 0 0 0 -0 -0 -1 0 0 0 0 0 0 0.03 300 
183 1 1 0.442411 0.236129 2.31849 0 0 0 -0 -0 -1 0 0 0 0 0 0 0.03 300 
250 1 1 0.309313 0.331656 2.32448 0 0 0 -0 -0 -1 0 0 0 0 0 0 0.03 300 
295 1 1 0.361284 0.371846 2.2954 0 0 0 -0 -0 -1 0 0 0 0 0 0 0.03 300 
308 1 1 0.14362 0.411827 2.29042 0 0 0 -0 -0 -1 0 0 0 0 0 0 0.03 300 
220 1 1 0.335967 0.444883 2.30458 0 0 0 -0 -0 -1 0 0 0 0 0 0 0.03 300 
198 1 1 0.400177 0.437787 2.3076 0 0 0 -0 -0 -1 0 0 0 0 0 0 0.03 300 
255 1 1 0.114307 0.478097 2.29805 0 0 0 -0 -0 -1 0 0 0 0 0 0 0.03 300 
182 1 1 0.244578 0.471314 2.31452 0 0 0 -0 -0 -1 0 0 0 0 0 0 0.03 300 
238 1 1 0.178751 0.5056 2.3101 0 0 0 -0 -0 -1 0 0 0 0 0 0 0.03 300 
186 1 1 0.259533 0.258075 2.32734 0 0 0 -0 -0 -1 0 0 0 0 0 0 0.03 300 
258 1 1 0.122106 0.287147 2.35085 0 0 0 -0 -0 -1 0 0 0 0 0 0 0.03 300 
284 1 1 0.192412 0.289106 2.34388 0 0 0 -0 -0 -1 0 0 0 0 0 0 0.03 300 
240 1 1 0.373873 0.277789 2.32961 0 0 0 -0 -0 -1 0 0 0 0 0 0 0.03 300 
282 1 1 0.474016 0.292718 2.34895 0 0 0 -0 -0 -1 0 0 0 0 0 0 0.03 300 
212 1 1 0.417494 0.317622 2.35353 0 0 0 -0 -0 -1 0 0 0 0 0 0 0.03 300 
316 1 1 0.11734 0.353945 2.32534 0 0 0 -0 -0 -1 0 0 0 0 0 0 0.03 300 
259 1 1 0.22228 0.356059 2.34403 0 0 0 -0 -0 -1 0 0 0 0 0 0 0.03 300 
309 1 1 0.164495 0.407825 2.35668 0 0 0 -0 -0 -1 0 0 0 0 0 0 0.03 300 
277 1 1 0.255485 0.407729 2.34471 0 0 0 -0 -0 -1 0 0 0 0 0 0 0.03 300 
274 1 1 0.492828 0.422942 2.33588 0 0 0 -0 -0 -1 0 0 0 0 0 0 0.03 300 
192 1 1 0.365388 0.511304 2.34856 0 0 0 -0 -0 -1 0 0 0 0 0 0 0.03 300 
290 1 1 0.276688 0.526521 2.35397 0 0 0 -0 -0 -1 0 0 0 0 0 0 0.03 300 
329 1 1 0.429505 0.520312 2.3595 0 0 0 -0 -0 -1 0 0 0 0 0 0 0.03 300 
343 1 1 0.15665 0.233052 2.38364 0 0 0 -0 -0 -1 0 0 0 0 0 0 0.03 300 
189 1 1 0.296506 0.266561 2.39407 0 0 0 -0 -0 -1 0 0 0 0 0 0 0.03 300 
349 1 1 0.365686 0.235664 2.38936 0 0 0 -0 -0 -1 0 0 0 0 0 0 0.03 300 
253 1 1 0.245744 0.294067 2.3746 0 0 0 -0 -0 -1 0 0 0 0 0 0 0.03 300 
324 1 1 0.115625 0.334079 2.39008 0 0 0 -0 -0 -1 0 0 0 0 0 0 0.03 300 
211 1 1 0.342022 0.308301 2.38941 0 0 0 -0 -0 -1 0 0 0 0 0 0 0.03 300 
234 1 1 0.396246 0.377563 2.36259 0 0 0 -0 -0 -1 0 0 0 0 0 0 0.03 300 
318 1 1 0.359003 0.427078 2.36033 0 0 0 -0 -0 -1 0 0 0 0 0 0 0.03 300 
184 1 1 0.446465 0.410676 2.37321 0 0 0 -0 -0 -1 0 0 0 0 0 0 0.03 300 
261 1 1 0.177868 0.470844 2.36335 0 0 0 -0 -0 -1 0 0 0 0 0 0 0.03 300 
223 1 1 0.10548 0.49309 2.38007 0 0 0 -0 -0 -1 0 0 0 0 0 0 0.03 300 
315 1 1 0.216797 0.232457 2.40158 0 0 0 -0 -0 -1 0 0 0 0 0 0 0.03 300 
219 1 1 0.410483 0.256917 2.42553 0 0 0 -0 -0 -1 0 0 0 0 0 0 0.03 300 
330 1 1 0.462592 0.233737 2.39699 0 0 0 -0 -0 -1 0 0 0 0 0 0 0.03 300 
202 1 1 0.125386 0.2781 2.4109 0 0 0 -0 -0 -1 0 0 0 0 0 0 0.03 300 
222 1 1 0.18233 0.36007 2.41255 0 0 0 -0 -0 -1 0 0 0 0 0 0 0.03 300 
191 1 1 0.12776 0.394841 2.41642 0 0 0 -0 -0 -1 0 0 0 0 0 0 0.03 300 
228 1 1 0.413169 0.40103 2.42234 0 0 0 -0 -0 -1 0 0 0 0 0 0 0.03 300 
242 1 1 0.493753 0.377377 2.41419 0 0 0 -0 -0 -1 0 0 0 0 0 0 0.03 300 
344 1 1 0.280536 0.422033 2.39742 0 0 0 -0 -0 -1 0 0 0 0 0 0 0.03 300 
269 1 1 0.324092 0.465876 2.40568 0 0 0 -0 -0 -1 0 0 0 0 0 0 0.03 300 
287 1 1 0.403036 0.471118 2.40135 0 0 0 -0 -0 -1 0 0 0 0 0 0 0.03 300 
266 1 1 0.482717 0.469458 2.39953 0 0 0 -0 -0 -1 0 0 0 0 0 0 0.03 300 
310 1 1 0.172992 0.51357 2.41251 0 0 0 -0 -0 -1 0 0 0 0 0 0 0.03 300 
210 1 1 0.236464 0.494005 2.39819 0 0 0 -0 -0 -1 0 0 0 0 0 0 0.03 300 
188 1 1 0.306795 0.524102 2.41006 0 0 0 -0 -0 -1 0 0 0 0 0 0 0.03 300 
336 1 1 0.169622 0.23057 2.46238 0 0 0 -0 -0 -1 0 0 0 0 0 0 0.03 300 
353 1 1 0.264297 0.230887 2.43885 0 0 0 -0 -0 -1 0 0 0 0 0 0 0.03 300 
275 1 1 0.31599 0.267584 2.45773 0 0 0 -0 -0 -1 0 0 0 0 0 0 0.03 300 
199 1 1 0.254913 0.330119 2.44002 0 0 0 -0 -0 -1 0 0 0 0 0 0 0.03 300 
323 1 1 0.363208 0.332364 2.45706 0 0 0 -0 -0 -1 0 0 0 0 0 0 0.03 300 
273 1 1 0.441723 0.330179 2.45774 0 0 0 -0 -0 -1 0 0 0 0 0 0 0.03 300 
302 1 1 0.343126 0.393328 2.43825 0 0 0 -0 -0 -1 0 0 0 0 0 0 0.03 300 
235 1 1 0.267803 0.425206 2.46094 0 0 0 -0 -0 -1 0 0 0 0 0 0 0.03 300 
342 1 1 0.480929 0.433795 2.45215 0 0 0 -0 -0 -1 0 0 0 0 0 0 0.03 300 
306 1 1 0.210852 0.447093 2.43752 0 0 0 -0 -0 -1 0 0 0 0 0 0 0.03 300 
214 1 1 0.465608 0.504217 2.46039 0 0 0 -0 -0 -1 0 0 0 0 0 0 0.03 300 
312 1 1 0.364798 0.238472 2.49811 0 0 0 -0 -0 -1 0 0 0 0 0 0 0.03 300 
251 1 1 0.103547 0.274488 2.48652 0 0 0 -0 -0 -1 0 0 0 0 0 0 0.03 300 
292 1 1 0.163002 0.294172 2.48091 0 0 0 -0 -0 -1 0 0 0 0 0 0 0.03 300 
207 1 1 0.223339 0.283687 2.47062 0 0 0 -0 -0 -1 0 0 0 0 0 0 0.03 300 
244 1 1 0.46854 0.271589 2.46621 0 0 0 -0 -0 -1 0 0 0 0 0 0 0.03 300 
203 1 1 0.114725 0.361154 2.47615 0 0 0 -0 -0 -1 0 0 0 0 0 0 0.03 300 
229 1 1 0.193412 0.371964 2.48585 0 0 0 -0 -0 -1 0 0 0 0 0 0 0.03 300 
294 1 1 0.481735 0.393904 2.49696 0 0 0 -0 -0 -1 0 0 0 0 0 0 0.03 300 
321 1 1 0.145756 0.431537 2.49296 0 0 0 -0 -0 -1 0 0 0 0 0 0 0.03 300 
320 1 1 0.312692 0.463239 2.49062 0 0 0 -0 -0 -1 0 0 0 0 0 0 0.03 300 
179 1 1 0.386922 0.454847 2.46993 0 0 0 -0 -0 -1 0 0 0 0 0 0 0.03 300 
195 1 1 0.106207 0.489082 2.46925 0 0 0 -0 -0 -1 0 0 0 0 0 0 0.03 300 
236 1 1 0.216283 0.50207 2.47779 0 0 0 -0 -0 -1 0 0 0 0 0 0 0.03 300 