ITEM: TIMESTEP
39000
ITEM: NUMBER OF ATOMS
176
ITEM: BOX BOUNDS ff ff ff
0 3.3
-0.3 0.8
-0.5 3
ITEM: ATOMS id type type x y z ix iy iz vx vy vz fx fy fz omegax omegay omegaz radius f_Temp[0] 
120 1 1 0.172817 0.221638 1.58047 0 0 0 1.21097 0.0882445 0.284529 0 0 -2.77371 -3.14065 -94.2923 1.5533 0.03 309.339 
108 1 1 0.268138 0.206777 1.57687 0 0 0 0.855521 -0.603811 -0.250153 -3.10816 2.92933 -9.48068 5.92275 -102.432 13.2171 0.03 309.879 
47 1 1 0.399835 0.225683 1.57512 0 0 0 1.67343 -0.33612 0.253769 -3.6229 4.6715 19.8094 12.8744 -81.843 6.10156 0.03 305.451 
67 1 1 0.46702 0.221824 1.5769 0 0 0 0.983404 -0.12795 -0.000559271 -0.00251233 -7.94866e-05 -0.54306 4.27866 -100.875 0.626175 0.03 313.295 
41 1 1 0.218345 0.264194 1.57966 0 0 0 0.30789 0.056712 -0.222715 -53.678 9.65007 -58.8492 0.922534 -88.844 -13.7529 0.03 310.346 
85 1 1 0.55649 0.23176 1.60353 0 0 0 1.6051 -0.297735 0.398222 0 0 -2.77371 10.1198 -80.9356 -6.86985 0.03 303.852 
13 1 1 0.152319 0.289326 1.59075 0 0 0 1.14532 0.29136 0.653156 0 0 -2.77371 -9.90567 -96.5888 3.8047 0.03 303.892 
142 1 1 0.444814 0.285093 1.58873 0 0 0 1.08703 -0.539676 -0.144868 -3.65486 -0.378383 -15.5861 -13.4021 -71.536 1.78918 0.03 311.963 
8 1 1 0.541325 0.287534 1.58491 0 0 0 2.3613 -0.476376 0.542374 0 0 -2.77371 17.1036 -53.663 -7.75179 0.03 311.736 
124 1 1 0.246032 0.323864 1.59124 0 0 0 1.07921 0.216676 0.283527 0 0 -2.77371 -37.005 -66.7091 -3.9818 0.03 309.723 
59 1 1 0.310354 0.324771 1.58457 0 0 0 0.95091 -2.05506e-05 -1.39706 -4.49518 -1.29533 -6.15292 15.0421 -1.44446 -6.39875 0.03 300.039 
86 1 1 0.377882 0.312217 1.57976 0 0 0 1.6639 -0.0892748 -0.244256 3.93835 -1.74245 -5.72208 4.61137 -72.9783 -6.9536 0.03 314.005 
14 1 1 0.653407 0.314893 1.57692 0 0 0 2.41961 0.0708008 0.027285 -0.0905304 -0.332253 -2.0341 -2.00875 -52.7624 -2.54476 0.03 309.586 
64 1 1 0.166689 0.35483 1.59783 0 0 0 0.864819 0.143853 0.359572 0 0 -2.77371 -4.86251 -105.863 -2.06903 0.03 303.825 
23 1 1 0.431073 0.370876 1.57729 0 0 0 1.19614 -0.0364684 0.184516 -3.39178 -5.14807 -11.0473 -5.60618 -81.9139 -7.72245 0.03 317.442 
45 1 1 0.481321 0.341807 1.59189 0 0 0 1.27378 -0.196985 -0.14177 -0.663133 0.203522 -2.66241 -13.4955 75.2169 -15.0925 0.03 300.473 
82 1 1 0.644674 0.375268 1.57985 0 0 0 1.76949 0.16435 -0.455123 25.9028 -21.1284 14.1775 3.60237 -101.374 8.78806 0.03 303.952 
122 1 1 0.234922 0.399459 1.57497 0 0 0 1.35597 0.0852751 0.297358 23.6213 -5.28131 41.9163 3.77918 -9.02084 -26.7239 0.03 302.123 
10 1 1 0.35439 0.409833 1.57981 0 0 0 0.9634 0.315391 0.0317051 15.0396 26.7323 -28.2773 12.856 -90.6247 19.4177 0.03 311.842 
36 1 1 0.468219 0.414368 1.59473 0 0 0 0.805139 0.0733127 -0.192975 -2.33489 -29.1302 -1.76188 -42.2819 32.2372 -0.0269298 0.03 300.185 
96 1 1 0.550448 0.373048 1.59622 0 0 0 1.59828 -0.245794 0.00319801 0 0 -2.77371 18.6485 -79.5754 -6.81822 0.03 307.134 
30 1 1 0.308004 0.44693 1.57611 0 0 0 1.08717 0.191469 0.16787 -32.52 -27.2106 -49.3119 -11.6625 -95.7024 6.85615 0.03 317.743 
32 1 1 0.528904 0.433155 1.57978 0 0 0 1.81297 0.024 0.394861 0 0 -2.77371 -0.656718 -73.5242 -5.21338 0.03 311.321 
174 1 1 0.605445 0.418883 1.57809 0 0 0 1.93238 0.0228558 -0.161963 -25.9028 21.1284 -19.7249 21.1389 15.1193 8.74383 0.03 303.225 
54 1 1 0.397529 0.462395 1.57581 0 0 0 1.13849 -0.506986 -0.929932 26.9876 51.975 95.8868 4.43464 -89.8598 -10.4995 0.03 312.011 
63 1 1 0.268544 0.492893 1.58679 0 0 0 1.76178 -0.257616 -0.597437 0 0 -2.77371 -5.74405 -100.081 -1.36928 0.03 303.924 
100 1 1 0.563776 0.482734 1.57697 0 0 0 1.84783 0.0218637 0.116482 -0.05489 -0.302075 -6.15838 -0.709445 -72.1006 -5.73984 0.03 310.894 
152 1 1 0.154635 0.531195 1.57866 0 0 0 0.746601 0.231397 0.68997 0 0 -2.77371 -7.82476 -109.839 -1.36928 0.03 303.807 
103 1 1 0.329672 0.536865 1.57637 0 0 0 1.53239 0.766153 -0.00841601 2.17706 -7.11443 12.1064 -18.4601 -80.9157 -16.8234 0.03 308.345 
162 1 1 0.443747 0.517572 1.59062 0 0 0 0.00228838 0.488927 -0.99641 0.246172 4.13497 -4.81052 55.9954 25.9668 8.35067 0.03 300.129 
168 1 1 0.512892 0.520033 1.5776 0 0 0 0.935344 0.0377251 -1.6289 0 0 -2.77371 11.2764 -10.1184 10.3515 0.03 300.098 
172 1 1 0.427247 0.578868 1.59538 0 0 0 1.1774 0.0657195 0.496802 0 0 -2.77371 -18.2098 -78.6535 -56.7169 0.03 309.834 
113 1 1 0.56449 0.568951 1.57757 0 0 0 1.91413 0.217737 0.293383 3.58492 -4.73811 2.74839 -13.9497 -77.9941 -5.4001 0.03 311.343 
78 1 1 0.195659 0.207099 1.64188 0 0 0 0.840524 -0.590493 1.03412 0 0 -2.77371 28.2436 73.2207 -0.414164 0.03 300.124 
112 1 1 0.272837 0.260848 1.59932 0 0 0 0.122971 -0.148884 -1.37357 45.6964 6.58579 39.2064 -16.3977 81.1391 -7.85195 0.03 300.319 
60 1 1 0.342562 0.260613 1.59157 0 0 0 1.5537 -0.736379 -1.56588 0 0 -2.77371 -6.65351 -38.7922 2.44532 0.03 300.146 
46 1 1 0.483709 0.294477 1.63262 0 0 0 0.303691 -0.367788 0.345251 3.65486 0.378383 10.0387 -5.67814 -21.4975 -35.2364 0.03 300.129 
29 1 1 0.371441 0.363322 1.61057 0 0 0 0.931223 -0.114875 -0.852385 4.99501 -5.49377 25.726 33.957 44.366 -2.39214 0.03 300.252 
131 1 1 0.274335 0.430578 1.62245 0 0 0 0.311458 -0.370959 -0.415611 5.61574 -8.18734 -20.1619 21.7407 33.7087 8.07281 0.03 300.293 
163 1 1 0.221446 0.448636 1.60627 0 0 0 0.191414 0.511957 -1.14468 -11.3 7.78269 -4.14926 10.4362 -67.7081 -25.585 0.03 303.861 
66 1 1 0.479728 0.47096 1.59293 0 0 0 0.651368 0.470812 -1.88269 7.1123 30.4664 4.29869 -4.07522 -42.9885 2.18528 0.03 300.091 
79 1 1 0.32225 0.488884 1.614 0 0 0 -0.353047 0.227439 -0.613735 30.2929 42.0095 48.9533 -15.3305 43.7127 1.57714 0.03 300.238 
39 1 1 0.401273 0.495308 1.62534 0 0 0 0.0846136 -0.0360924 -0.792002 -5.35942 -5.17173 1.51119 -11.1777 16.2121 -30.3648 0.03 300.232 
140 1 1 0.631762 0.484878 1.61638 0 0 0 1.19616 0 -0.312899 0 0 -2.77371 0 -94.9995 0 0.03 303.947 
109 1 1 0.286972 0.560623 1.61701 0 0 0 0.237066 0.785206 -1.07961 0 0 -2.77371 -3.72126 23.4809 -6.7871 0.03 300.031 
87 1 1 0.383035 0.227371 1.63201 0 0 0 -0.195416 -1.00675 -0.643838 0.12916 -4.78908 19.1916 4.41188 16.5201 18.4629 0.03 300.164 
173 1 1 0.346571 0.31518 1.62991 0 0 0 0.527269 -0.680452 -0.690781 -10.4569 -24.5271 6.89505 -17.4513 -16.2069 -12.1753 0.03 300.034 
133 1 1 0.635025 0.33333 1.66744 0 0 0 1.45209 0.340449 0.542267 0 0 -2.77371 -5.42725 -57.2091 -15.3957 0.03 303.944 
145 1 1 0.35899 0.396974 1.65936 0 0 0 1.17717 -0.277933 -0.386869 0 0 -2.77371 -32.1277 -13.5317 -9.84938 0.03 300.002 
69 1 1 0.10427 0.421706 1.61575 0 0 0 0 0 -3.07624 0 0 -2.77371 0 0 0 0.03 300 
167 1 1 0.414601 0.404397 1.62458 0 0 0 0.433102 -0.928866 -1.85634 0 0 -2.77371 39.0089 -14.7275 -20.7459 0.03 300.001 
121 1 1 0.157973 0.458327 1.63149 0 0 0 -0.736257 0.316188 -2.04886 0 0 -2.77371 4.83647 -0.878418 5.06208 0.03 300.026 
156 1 1 0.355049 0.526012 1.64546 0 0 0 0.0806575 1.22722 -1.19314 3.00996 -1.59243 -5.83517 -24.2911 -31.4736 7.22509 0.03 300.003 
49 1 1 0.285152 0.253424 1.6543 0 0 0 1.09925 -0.229548 -0.491092 15.406 2.648 31.8845 8.94181 -51.5338 -8.9091 0.03 300.002 
155 1 1 0.425978 0.25372 1.67272 0 0 0 0.850695 0.147554 -1.10494 0 0 -2.77371 -26.4999 26.235 9.17191 0.03 300.001 
101 1 1 0.162335 0.320161 1.66585 0 0 0 0 0 -2.91212 0 0 -2.77371 0 0 0 0.03 300 
42 1 1 0.226232 0.388276 1.65036 0 0 0 0 0 -2.96381 0 0 -2.77371 0 0 0 0.03 300 
99 1 1 0.274572 0.461681 1.67314 0 0 0 0.0330085 0.328879 -1.38861 5.94811 3.54933 20.0637 -30.8947 -15.1834 4.33013 0.03 300.001 
18 1 1 0.437698 0.517742 1.6684 0 0 0 0.835732 0.488144 -1.52428 0 0 -2.77371 -6.42202 -7.05352 5.53427 0.03 300.001 
58 1 1 0.112056 0.26459 1.70265 0 0 0 0 0 -2.78537 0 0 -2.77371 0 0 0 0.03 300 
91 1 1 0.235855 0.316318 1.68069 0 0 0 0 0 -2.86169 0 0 -2.77371 0 0 0 0.03 300 
81 1 1 0.388958 0.319017 1.7005 0 0 0 0 0 -2.79292 0 0 -2.77371 0 0 0 0.03 300 
92 1 1 0.481853 0.374694 1.71446 0 0 0 0 0 -2.74348 0 0 -2.77371 0 0 0 0.03 300 
105 1 1 0.377689 0.467755 1.71054 0 0 0 0 0 -2.75741 0 0 -2.77371 0 0 0 0.03 300 
118 1 1 0.120657 0.516447 1.68764 0 0 0 0 0 -2.83776 0 0 -2.77371 0 0 0 0.03 300 
130 1 1 0.385847 0.398302 1.73065 0 0 0 0 0 -2.68492 0 0 -2.77371 0 0 0 0.03 300 
158 1 1 0.2596 0.52473 1.7254 0 0 0 0 0 -2.70405 0 0 -2.77371 0 0 0 0.03 300 
157 1 1 0.485815 0.521722 1.7198 0 0 0 0 0 -2.72425 0 0 -2.77371 0 0 0 0.03 300 
15 1 1 0.188775 0.261917 1.77035 0 0 0 0 0 -2.53571 0 0 -2.77371 0 0 0 0.03 300 
80 1 1 0.478513 0.241448 1.75385 0 0 0 0 0 -2.59878 0 0 -2.77371 0 0 0 0.03 300 
143 1 1 0.326798 0.368865 1.76504 0 0 0 0 0 -2.55621 0 0 -2.77371 0 0 0 0.03 300 
135 1 1 0.110104 0.424702 1.78344 0 0 0 0 0 -2.4846 0 0 -2.77371 0 0 0 0.03 300 
61 1 1 0.174746 0.456274 1.78311 0 0 0 0 0 -2.48587 0 0 -2.77371 0 0 0 0.03 300 
9 1 1 0.441781 0.458388 1.78619 0 0 0 0 0 -2.47371 0 0 -2.77371 0 0 0 0.03 300 
117 1 1 0.191604 0.522741 1.76093 0 0 0 0 0 -2.57191 0 0 -2.77371 0 0 0 0.03 300 
76 1 1 0.262374 0.280345 1.79352 0 0 0 0 0 -2.44447 0 0 -2.77371 0 0 0 0.03 300 
159 1 1 0.463712 0.3119 1.8174 0 0 0 0 0 -2.34667 0 0 -2.77371 0 0 0 0.03 300 
169 1 1 0.252456 0.475054 1.81977 0 0 0 0 0 -2.33676 0 0 -2.77371 0 0 0 0.03 300 
2 1 1 0.337972 0.524085 1.80727 0 0 0 0 0 -2.38865 0 0 -2.77371 0 0 0 0.03 300 
125 1 1 0.33817 0.237417 1.85097 0 0 0 0 0 -2.20187 0 0 -2.77371 0 0 0 0.03 300 
19 1 1 0.315839 0.298576 1.85625 0 0 0 0 0 -2.17823 0 0 -2.77371 0 0 0 0.03 300 
3 1 1 0.103577 0.34242 1.82608 0 0 0 0 0 -2.31008 0 0 -2.77371 0 0 0 0.03 300 
132 1 1 0.181507 0.370772 1.83027 0 0 0 0 0 -2.29222 0 0 -2.77371 0 0 0 0.03 300 
20 1 1 0.379347 0.368828 1.86052 0 0 0 0 0 -2.1589 0 0 -2.77371 0 0 0 0.03 300 
151 1 1 0.494801 0.397371 1.85955 0 0 0 0 0 -2.16332 0 0 -2.77371 0 0 0 0.03 300 
50 1 1 0.301622 0.417346 1.83052 0 0 0 0 0 -2.29114 0 0 -2.77371 0 0 0 0.03 300 
16 1 1 0.119943 0.514428 1.84808 0 0 0 0 0 -2.21472 0 0 -2.77371 0 0 0 0.03 300 
83 1 1 0.499782 0.483801 1.84073 0 0 0 0 0 -2.247 0 0 -2.77371 0 0 0 0.03 300 
88 1 1 0.486268 0.228152 1.89493 0 0 0 0 0 -1.99645 0 0 -2.77371 0 0 0 0.03 300 
94 1 1 0.273851 0.347383 1.87348 0 0 0 0 0 -2.09916 0 0 -2.77371 0 0 0 0.03 300 
27 1 1 0.362553 0.476213 1.86823 0 0 0 0 0 -2.12359 0 0 -2.77371 0 0 0 0.03 300 
139 1 1 0.137853 0.229319 1.89853 0 0 0 0 0 -1.97869 0 0 -2.77371 0 0 0 0.03 300 
7 1 1 0.417913 0.266516 1.89992 0 0 0 0 0 -1.97173 0 0 -2.77371 0 0 0 0.03 300 
51 1 1 0.201805 0.313726 1.90228 0 0 0 0 0 -1.95996 0 0 -2.77371 0 0 0 0.03 300 
144 1 1 0.368613 0.311971 1.92479 0 0 0 0 0 -1.84391 0 0 -2.77371 0 0 0 0.03 300 
56 1 1 0.445152 0.350079 1.92202 0 0 0 0 0 -1.85852 0 0 -2.77371 0 0 0 0.03 300 
77 1 1 0.218563 0.442358 1.92712 0 0 0 0 0 -1.83145 0 0 -2.77371 0 0 0 0.03 300 
24 1 1 0.44361 0.420007 1.93022 0 0 0 0 0 -1.81477 0 0 -2.77371 0 0 0 0.03 300 
57 1 1 0.255601 0.512634 1.92249 0 0 0 0 0 -1.85607 0 0 -2.77371 0 0 0 0.03 300 
149 1 1 0.457968 0.50649 1.92746 0 0 0 0 0 -1.82958 0 0 -2.77371 0 0 0 0.03 300 
137 1 1 0.250314 0.231914 1.95031 0 0 0 0 0 -1.70264 0 0 -2.77371 0 0 0 0.03 300 
165 1 1 0.36833 0.235983 1.95215 0 0 0 0 0 -1.69205 0 0 -2.77371 0 0 0 0.03 300 
12 1 1 0.150682 0.290471 1.96576 0 0 0 0 0 -1.61121 0 0 -2.77371 0 0 0 0.03 300 
104 1 1 0.324371 0.382136 1.93837 0 0 0 0 0 -1.77013 0 0 -2.77371 0 0 0 0.03 300 
34 1 1 0.161462 0.479607 1.95417 0 0 0 0 0 -1.68027 0 0 -2.77371 0 0 0 0.03 300 
4 1 1 0.283869 0.446206 1.95393 0 0 0 0 0 -1.68175 0 0 -2.77371 0 0 0 0.03 300 
75 1 1 0.387927 0.516304 1.94245 0 0 0 0 0 -1.74737 0 0 -2.77371 0 0 0 0.03 300 
115 1 1 0.29951 0.265646 1.99225 0 0 0 0 0 -1.44091 0 0 -2.77371 0 0 0 0.03 300 
170 1 1 0.448147 0.302404 2.00145 0 0 0 0 0 -1.37685 0 0 -2.77371 0 0 0 0.03 300 
21 1 1 0.18594 0.400862 1.9859 0 0 0 0 0 -1.48349 0 0 -2.77371 0 0 0 0.03 300 
126 1 1 0.387846 0.395075 1.9903 0 0 0 0 0 -1.45415 0 0 -2.77371 0 0 0 0.03 300 
160 1 1 0.115232 0.435564 2.00354 0 0 0 0 0 -1.36184 0 0 -2.77371 0 0 0 0.03 300 
114 1 1 0.101873 0.240116 2.01786 0 0 0 0 0 -1.25452 0 0 -2.77371 0 0 0 0.03 300 
161 1 1 0.383875 0.233035 2.04619 0 0 0 0 0 -1.00898 0 0 -2.77371 0 0 0 0.03 300 
1 1 1 0.44893 0.24186 2.02011 0 0 0 0 0 -1.23676 0 0 -2.77371 0 0 0 0.03 300 
11 1 1 0.20764 0.30353 2.01527 0 0 0 0 0 -1.27463 0 0 -2.77371 0 0 0 0.03 300 
33 1 1 0.10471 0.363257 2.03119 0 0 0 0 0 -1.14553 0 0 -2.77371 0 0 0 0.03 300 
71 1 1 0.27192 0.349064 2.02126 0 0 0 0 0 -1.22764 0 0 -2.77371 0 0 0 0.03 300 
35 1 1 0.342434 0.364463 2.03559 0 0 0 0 0 -1.10727 0 0 -2.77371 0 0 0 0.03 300 
38 1 1 0.303454 0.414467 2.04284 0 0 0 0 0 -1.04105 0 0 -2.77371 0 0 0 0.03 300 
154 1 1 0.211019 0.445658 2.0305 0 0 0 0 0 -1.15142 0 0 -2.77371 0 0 0 0.03 300 
106 1 1 0.375691 0.47682 2.01341 0 0 0 0 0 -1.28886 0 0 -2.77371 0 0 0 0.03 300 
129 1 1 0.201147 0.51232 2.01364 0 0 0 0 0 -1.28709 0 0 -2.77371 0 0 0 0.03 300 
89 1 1 0.26845 0.48437 2.02846 0 0 0 0 0 -1.16868 0 0 -2.77371 0 0 0 0.03 300 
26 1 1 0.474436 0.482152 2.01266 0 0 0 0 0 -1.29455 0 0 -2.77371 0 0 0 0.03 300 
146 1 1 0.495146 0.246598 2.06254 0 0 0 -0 -0 -1 0 0 0 0 0 0 0.03 300 
127 1 1 0.381994 0.300043 2.0508 0 0 0 -0 -0 -1 0 0 0 0 0 0 0.03 300 
44 1 1 0.485944 0.343638 2.06039 0 0 0 -0 -0 -1 0 0 0 0 0 0 0.03 300 
166 1 1 0.165431 0.374869 2.06499 0 0 0 -0 -0 -1 0 0 0 0 0 0 0.03 300 
28 1 1 0.222318 0.404493 2.07476 0 0 0 -0 -0 -1 0 0 0 0 0 0 0.03 300 
141 1 1 0.429803 0.380165 2.05189 0 0 0 -0 -0 -1 0 0 0 0 0 0 0.03 300 
111 1 1 0.473074 0.424163 2.05635 0 0 0 -0 -0 -1 0 0 0 0 0 0 0.03 300 
119 1 1 0.126835 0.482642 2.06437 0 0 0 -0 -0 -1 0 0 0 0 0 0 0.03 300 
90 1 1 0.102204 0.238351 2.09553 0 0 0 -0 -0 -1 0 0 0 0 0 0 0.03 300 
97 1 1 0.184928 0.234672 2.08277 0 0 0 -0 -0 -1 0 0 0 0 0 0 0.03 300 
74 1 1 0.248328 0.247523 2.08851 0 0 0 -0 -0 -1 0 0 0 0 0 0 0.03 300 
62 1 1 0.329189 0.252757 2.0982 0 0 0 -0 -0 -1 0 0 0 0 0 0 0.03 300 
43 1 1 0.460616 0.284913 2.10675 0 0 0 -0 -0 -1 0 0 0 0 0 0 0.03 300 
5 1 1 0.160428 0.3182 2.08871 0 0 0 -0 -0 -1 0 0 0 0 0 0 0.03 300 
95 1 1 0.346797 0.327727 2.10259 0 0 0 -0 -0 -1 0 0 0 0 0 0 0.03 300 
175 1 1 0.230789 0.339127 2.09237 0 0 0 -0 -0 -1 0 0 0 0 0 0 0.03 300 
116 1 1 0.152794 0.405213 2.11527 0 0 0 -0 -0 -1 0 0 0 0 0 0 0.03 300 
128 1 1 0.355123 0.421294 2.10732 0 0 0 -0 -0 -1 0 0 0 0 0 0 0.03 300 
37 1 1 0.41824 0.41741 2.10001 0 0 0 -0 -0 -1 0 0 0 0 0 0 0.03 300 
93 1 1 0.225968 0.488444 2.08161 0 0 0 -0 -0 -1 0 0 0 0 0 0 0.03 300 
17 1 1 0.345254 0.512161 2.10021 0 0 0 -0 -0 -1 0 0 0 0 0 0 0.03 300 
134 1 1 0.443832 0.509496 2.08848 0 0 0 -0 -0 -1 0 0 0 0 0 0 0.03 300 
40 1 1 0.408343 0.240904 2.1308 0 0 0 -0 -0 -1 0 0 0 0 0 0 0.03 300 
68 1 1 0.400811 0.324654 2.13473 0 0 0 -0 -0 -1 0 0 0 0 0 0 0.03 300 
25 1 1 0.278223 0.363632 2.12196 0 0 0 -0 -0 -1 0 0 0 0 0 0 0.03 300 
123 1 1 0.48159 0.360101 2.12449 0 0 0 -0 -0 -1 0 0 0 0 0 0 0.03 300 
84 1 1 0.227036 0.399722 2.14273 0 0 0 -0 -0 -1 0 0 0 0 0 0 0.03 300 
98 1 1 0.491139 0.43458 2.12869 0 0 0 -0 -0 -1 0 0 0 0 0 0 0.03 300 
55 1 1 0.200976 0.455034 2.13831 0 0 0 -0 -0 -1 0 0 0 0 0 0 0.03 300 
138 1 1 0.301221 0.470777 2.11913 0 0 0 -0 -0 -1 0 0 0 0 0 0 0.03 300 
72 1 1 0.10161 0.511094 2.13218 0 0 0 -0 -0 -1 0 0 0 0 0 0 0.03 300 
48 1 1 0.17066 0.517967 2.14622 0 0 0 -0 -0 -1 0 0 0 0 0 0 0.03 300 
22 1 1 0.254767 0.230824 2.16097 0 0 0 -0 -0 -1 0 0 0 0 0 0 0.03 300 
73 1 1 0.170916 0.265084 2.16451 0 0 0 -0 -0 -1 0 0 0 0 0 0 0.03 300 
171 1 1 0.477654 0.251099 2.16033 0 0 0 -0 -0 -1 0 0 0 0 0 0 0.03 300 
110 1 1 0.10205 0.273683 2.16359 0 0 0 -0 -0 -1 0 0 0 0 0 0 0.03 300 
164 1 1 0.244978 0.28843 2.18115 0 0 0 -0 -0 -1 0 0 0 0 0 0 0.03 300 
107 1 1 0.303471 0.271065 2.1697 0 0 0 -0 -0 -1 0 0 0 0 0 0 0.03 300 
31 1 1 0.221691 0.336081 2.15246 0 0 0 -0 -0 -1 0 0 0 0 0 0 0.03 300 
70 1 1 0.142707 0.355749 2.17494 0 0 0 -0 -0 -1 0 0 0 0 0 0 0.03 300 
53 1 1 0.294932 0.364362 2.18 0 0 0 -0 -0 -1 0 0 0 0 0 0 0.03 300 
102 1 1 0.419044 0.351535 2.18593 0 0 0 -0 -0 -1 0 0 0 0 0 0 0.03 300 
176 1 1 0.349719 0.399621 2.18537 0 0 0 -0 -0 -1 0 0 0 0 0 0 0.03 300 
153 1 1 0.496538 0.392613 2.17762 0 0 0 -0 -0 -1 0 0 0 0 0 0 0.03 300 
148 1 1 0.12082 0.460146 2.16005 0 0 0 -0 -0 -1 0 0 0 0 0 0 0.03 300 
6 1 1 0.317689 0.454971 2.1824 0 0 0 -0 -0 -1 0 0 0 0 0 0 0.03 300 
136 1 1 0.374023 0.456818 2.15267 0 0 0 -0 -0 -1 0 0 0 0 0 0 0.03 300 
65 1 1 0.421483 0.499457 2.16254 0 0 0 -0 -0 -1 0 0 0 0 0 0 0.03 300 
150 1 1 0.481625 0.503918 2.1672 0 0 0 -0 -0 -1 0 0 0 0 0 0 0.03 300 
147 1 1 0.248507 0.49546 2.18684 0 0 0 -0 -0 -1 0 0 0 0 0 0 0.03 300 
52 1 1 0.358392 0.516981 2.18661 0 0 0 -0 -0 -1 0 0 0 0 0 0 0.03 300 
