ITEM: TIMESTEP
84000
ITEM: NUMBER OF ATOMS
353
ITEM: BOX BOUNDS ff ff ff
0 3.3
-0.3 0.8
-0.5 3
ITEM: ATOMS id type type x y z ix iy iz vx vy vz fx fy fz omegax omegay omegaz radius f_Temp[0] 
97 1 1 0.151923 0.174271 1.58562 0 0 0 1.11194 -0.15925 -0.751302 26.4378 28.7746 22.5496 -16.0072 -48.4085 51.906 0.03 309.906 
40 1 1 0.581716 0.184092 1.57841 0 0 0 2.63334 -0.122238 0.361242 -2.53029 -0.0165505 -0.161941 12.025 -59.4992 7.11229 0.03 313.842 
58 1 1 0.650216 0.166299 1.59652 0 0 0 1.73012 0.012158 -0.0740861 -3.44242 -1.95146 -1.91235 -3.71551 -72.8541 33.9959 0.03 350.502 
161 1 1 0.730179 0.190463 1.57699 0 0 0 2.40095 0.287463 0.0577163 -2.92717 -15.3771 -11.0389 -9.69648 9.39015 14.7748 0.03 311.901 
15 1 1 0.790982 0.184612 1.57847 0 0 0 2.19974 0.246434 -0.218537 3.8402 -5.26123 0.13002 -7.04412 -61.9902 21.9974 0.03 333.38 
78 1 1 0.874535 0.201111 1.57812 0 0 0 2.48888 0.706613 0.0604222 0 0 -2.77371 -23.6784 -50.4472 70.1098 0.03 325.176 
1 1 1 1.13391 0.193813 1.57688 0 0 0 2.89077 0.00658429 -0.00856053 0.0223038 0.0153758 0.101601 -0.22263 -37.1065 15.9399 0.03 329.151 
80 1 1 1.23113 0.16668 1.59729 0 0 0 2.92645 0.0502701 -0.0476722 -1.75832 -5.52514 0.814315 -6.3064 10.4582 20.8968 0.03 314.639 
47 1 1 1.32512 0.186772 1.57686 0 0 0 2.25101 0.000218243 0.00344286 -0.0136756 -0.000315288 -0.0531657 -0.00754903 -58.5492 12.2382 0.03 359.903 
67 1 1 1.45487 0.179984 1.58294 0 0 0 2.45485 -0.0601089 0.052152 0.37154 -0.614526 0.516231 2.61375 -51.4217 21.6985 0.03 355.451 
85 1 1 1.5344 0.185204 1.57756 0 0 0 2.60176 -0.0170307 0.0845331 -0.517643 1.07828 -1.23461 2.33515 -48.8503 17.9163 0.03 332.947 
90 1 1 0.315272 0.221259 1.57752 0 0 0 1.52417 -0.31156 0.140462 0 0 -2.77371 10.7503 -82.5747 17.7718 0.03 323.168 
12 1 1 0.470243 0.225768 1.57634 0 0 0 1.69203 -0.286016 -0.434766 17.2585 -11.0865 38.041 24.7637 -54.0351 17.1662 0.03 332.756 
91 1 1 0.66377 0.221477 1.57882 0 0 0 1.68223 -0.106114 -0.195838 4.01902 7.60868 -2.16975 -23.8279 -73.1666 3.51089 0.03 328.861 
120 1 1 0.936921 0.21356 1.57686 0 0 0 2.26042 0.348723 0.000375112 -0.00140882 0.000281605 -0.0017695 -11.672 -58.2253 13.3206 0.03 355.251 
88 1 1 1.03227 0.214294 1.57786 0 0 0 2.77018 -0.327085 0.14054 0 0 -2.77371 11.0334 -40.9712 -10.3538 0.03 304.279 
108 1 1 1.19513 0.210302 1.57686 0 0 0 2.94734 0.128614 -0.00336903 0.010165 -0.00516971 0.117705 -4.30477 -35.2299 5.82371 0.03 368.805 
60 1 1 1.26869 0.207914 1.57618 0 0 0 2.59619 0.299099 0.102227 5.67356 10.7313 7.34958 -17.2357 -42.3784 8.81445 0.03 347.503 
142 1 1 1.37785 0.218671 1.57686 0 0 0 2.31355 -0.000735605 -0.0171107 -0.935089 -0.142228 -0.570502 -0.204677 -55.5632 -9.09955 0.03 363.169 
110 1 1 0.209895 0.261767 1.57726 0 0 0 0.982715 -0.0880039 -0.0982124 0 0 -2.77371 -8.24895 -91.5736 -7.32035 0.03 320.082 
5 1 1 0.42405 0.268712 1.57508 0 0 0 1.2168 -0.0490393 -0.169382 2.16437 -6.59131 43.2229 -12.3752 -10.9653 -28.574 0.03 314.076 
95 1 1 0.52845 0.24189 1.57858 0 0 0 1.61902 -0.232172 -0.364918 0 0 -2.77371 3.55834 82.5973 -4.52388 0.03 301.235 
13 1 1 0.76946 0.240261 1.57622 0 0 0 1.98325 0.0276026 0.0175754 -1.09359 3.2736 9.51945 0.535846 -64.6905 29.152 0.03 366.618 
125 1 1 0.986925 0.260048 1.57701 0 0 0 2.30605 -0.21866 0.00752716 0.12399 -0.153307 -2.37937 23.2641 -43.6432 6.21338 0.03 328.56 
41 1 1 1.13471 0.25506 1.57682 0 0 0 2.53831 0.111654 0.00914003 -0.0291701 -0.00583132 0.267124 -3.76605 -48.9725 -3.69394 0.03 349.391 
86 1 1 1.30269 0.256785 1.57894 0 0 0 2.49129 0.508925 0.256163 0.273749 0.387532 -2.50839 -21.6024 -47.4742 -6.55334 0.03 366.29 
23 1 1 1.43505 0.236053 1.57685 0 0 0 2.30329 -0.132722 0.00498011 3.25971 1.44216 0.233017 4.694 -56.6324 -11.3217 0.03 363.979 
96 1 1 1.49616 0.232525 1.57686 0 0 0 2.24808 -0.324852 0.00070516 -0.00271362 0.000102729 0.0631441 10.8744 -58.6457 0.943435 0.03 352.191 
82 1 1 1.56221 0.254776 1.57686 0 0 0 2.38252 -0.456672 8.69119e-06 -3.36471e-05 -9.49978e-06 -0.000938592 15.2848 -54.1368 4.03313 0.03 351.64 
339 1 1 0.0945592 0.283853 1.57397 0 0 0 0.339459 -0.0664125 -1.20811 113.741 -20.0071 228.201 13.7762 -60.4789 -1.40272 0.03 300.789 
3 1 1 0.339583 0.300441 1.57635 0 0 0 1.90924 -0.131117 0.119738 -1.44996 -0.236746 5.17489 4.58244 -71.5701 30.931 0.03 338.746 
175 1 1 0.477473 0.28569 1.58874 0 0 0 1.43043 -0.107345 0.0558928 12.7503 7.05079 15.9794 -15.7031 -3.50052 17.2088 0.03 316.57 
11 1 1 0.616574 0.268554 1.57713 0 0 0 2.47231 -0.129906 -0.00662107 0 0 -2.77371 4.35163 -50.9723 27.8234 0.03 339.517 
94 1 1 0.67586 0.282027 1.57683 0 0 0 2.12586 -0.0448791 -0.015223 0.238175 2.06428 -4.73751 2.09135 -62.1366 -0.947549 0.03 334.994 
64 1 1 0.855046 0.28741 1.57792 0 0 0 2.16345 -0.0897978 -0.109417 0 0 -2.77371 2.65023 -62.3716 14.0579 0.03 358 
144 1 1 1.04332 0.29489 1.57692 0 0 0 2.30956 0.0178628 -0.00844821 -0.0808055 -0.118874 -0.497794 -0.427315 -56.6274 18.6606 0.03 332.049 
112 1 1 1.2051 0.274747 1.57685 0 0 0 2.50627 0.404434 0.00193303 -0.0059562 0.00174685 0.187066 -13.5429 -50.0174 -10.3767 0.03 355.586 
133 1 1 1.4825 0.294054 1.57686 0 0 0 2.21293 -0.275849 -3.59382e-05 0.000202866 4.35472e-05 0.016671 9.23287 -59.8144 -0.00928154 0.03 331.958 
70 1 1 0.247005 0.310675 1.57677 0 0 0 0.799239 0.309477 -0.664979 65.8724 -58.9224 -23.0606 36.7699 -67.3481 2.90087 0.03 312.105 
126 1 1 0.724431 0.336449 1.57664 0 0 0 2.76557 0.0371736 -0.0536056 2.77012 4.3322 7.51055 -6.25105 -38.2009 -16.8368 0.03 308.219 
123 1 1 0.788456 0.327216 1.57696 0 0 0 2.2162 -0.345716 -0.026911 0.0520013 0.00997495 -0.446214 11.5421 -59.5547 5.68399 0.03 306.91 
56 1 1 0.965414 0.316539 1.57689 0 0 0 2.66266 -0.0103899 0.0267226 0.284676 -0.524059 -1.58094 4.12327 -42.7005 -20.1511 0.03 310.445 
124 1 1 1.08647 0.337127 1.57675 0 0 0 2.33385 0.115632 -0.00229178 1.10485 1.01933 1.50182 -4.64079 -55.6556 -11.5779 0.03 354.075 
59 1 1 1.23963 0.328306 1.57686 0 0 0 2.39126 0.219996 1.71637e-05 -5.76722e-05 7.88597e-06 0.000436224 -7.36328 -53.8444 8.17258 0.03 343.637 
132 1 1 0.148959 0.3432 1.5749 0 0 0 1.78779 -0.541696 0.0338859 -8.91541 -32.9321 -7.53578 21.187 -76.5458 20.9834 0.03 317.048 
53 1 1 0.287392 0.374845 1.59541 0 0 0 0.580492 -0.242871 0.378072 6.02082 -18.5271 18.9215 4.75347 46.9916 1.07688 0.03 300.609 
166 1 1 0.405345 0.350802 1.58708 0 0 0 1.38862 0.221981 0.0124943 0 0 -2.77371 -7.92835 -88.4437 14.7802 0.03 321.968 
38 1 1 0.48808 0.348404 1.58054 0 0 0 1.85887 -0.0229798 0.0893577 0 0 -2.77371 -0.348405 -72.1052 -14.006 0.03 318.64 
35 1 1 0.60157 0.360865 1.57676 0 0 0 2.23493 -0.135672 -0.0131933 2.03919 1.76764 2.62364 -2.03433 -51.5762 -4.52146 0.03 314.951 
143 1 1 1.02882 0.371441 1.57686 0 0 0 2.11048 -0.00936028 3.22094e-05 -0.00013569 -6.7121e-07 -0.00117055 0.313288 -63.2422 -2.71077 0.03 349.567 
81 1 1 1.32205 0.34083 1.57676 0 0 0 2.391 -0.14553 0.00565574 1.13639 3.46049 1.88085 2.58475 -53.5228 -4.01613 0.03 340.048 
33 1 1 0.00740749 0.400176 1.58175 0 0 0 -0.0860896 0.125808 -0.224634 0 0 -2.77371 -4.22464 -137.32 0.517279 0.03 303.452 
101 1 1 0.648295 0.40197 1.5767 0 0 0 2.28123 0.0861769 0.000380119 1.12156 0.913626 -1.35005 -7.16999 17.092 2.5501 0.03 338.18 
170 1 1 0.903156 0.407218 1.57687 0 0 0 2.42159 0.355067 0.000236855 -0.266879 -0.104189 -0.137952 -11.6712 -53.3479 -4.69686 0.03 324.292 
122 1 1 1.09401 0.396067 1.58405 0 0 0 2.31926 0.109246 -0.0976071 0.194369 1.14024 -2.00873 -2.61551 -43.5455 -0.893037 0.03 349.199 
29 1 1 1.26485 0.385539 1.57899 0 0 0 2.66086 -0.0835312 -0.030835 -13.6696 -7.42559 -8.59614 0.012082 -18.4491 -1.5906 0.03 342.932 
54 1 1 1.32184 0.400544 1.57728 0 0 0 2.58844 -0.012967 0.13728 18.7386 3.38559 6.30038 0.815573 -44.7525 2.39501 0.03 356.12 
84 1 1 0.185787 0.414787 1.57818 0 0 0 1.31681 0.0538282 0.380002 0 0 -2.77371 -1.81512 -91.7873 -0.448645 0.03 303.6 
116 1 1 0.270581 0.426283 1.57408 0 0 0 1.28526 0.293837 0.254348 -1.99768 4.8186 14.9345 -15.8259 -97.2875 -14.1569 0.03 320.244 
25 1 1 0.421935 0.424591 1.57662 0 0 0 1.61721 0.193921 -0.0231394 1.30056 -2.70026 6.67911 -7.87395 -78.8506 -21.7184 0.03 310.526 
77 1 1 0.507937 0.417263 1.57899 0 0 0 1.84108 -0.169224 0.177129 0 0 -2.77371 5.6497 -72.8489 1.58064 0.03 330.05 
37 1 1 0.736236 0.438341 1.57681 0 0 0 2.27538 0.255204 -0.00142776 0.0188949 -0.00168972 1.08118 -8.55426 -57.8077 13.8758 0.03 308.785 
111 1 1 0.85326 0.443374 1.57739 0 0 0 2.41538 0.260442 -0.0506878 -1.81687 -2.33703 -4.13923 -14.4321 -46.3892 4.13968 0.03 317.019 
50 1 1 0.951446 0.444136 1.57799 0 0 0 2.7816 0.062928 0.0860544 0.295506 -0.136443 -2.64474 1.18865 -38.4209 5.34704 0.03 340.785 
30 1 1 1.15508 0.430579 1.57682 0 0 0 2.70654 -0.360005 -0.00629569 -1.93429 0.623757 -1.00012 16.0215 -24.1746 -2.44878 0.03 364.498 
167 1 1 1.21231 0.413819 1.57704 0 0 0 2.73644 -0.218227 0.0864337 -0.876085 1.1383 -6.65782 10.4516 -36.8249 9.80939 0.03 333.979 
148 1 1 0.125793 0.455795 1.575 0 0 0 1.41676 0.0471653 0.849479 -2.90229 1.26706 10.8649 4.01023 -103.227 -3.32702 0.03 308.744 
160 1 1 0.447503 0.478974 1.57513 0 0 0 2.09017 -0.0135508 0.374356 -2.79712 6.38081 1.51672 -0.485471 -66.4067 -1.27302 0.03 334.798 
135 1 1 0.589615 0.457846 1.57826 0 0 0 1.99103 0.170958 -0.0939115 0.652923 -1.14688 -2.14025 -6.21856 -65.2795 4.21754 0.03 344.085 
69 1 1 0.794689 0.456531 1.57684 0 0 0 2.35983 -0.0634515 -0.00739593 -0.185291 0.11586 0.669814 1.97042 -55.1274 -12.5258 0.03 354.211 
26 1 1 0.901993 0.477426 1.58152 0 0 0 2.642 -0.0197183 0.181957 3.56705 -2.04116 1.05087 13.8178 -7.42964 8.81999 0.03 313.687 
131 1 1 1.09923 0.458316 1.57703 0 0 0 2.82108 -0.00748748 -0.0377255 0.121496 0.256413 -0.673302 6.14227 1.5687 -15.1229 0.03 336.341 
32 1 1 1.48616 0.449598 1.57686 0 0 0 2.41625 0.0362623 -4.21392e-09 1.56056e-08 -3.57316e-10 3.52933e-07 -1.2137 -53.0078 4.98442 0.03 353.958 
119 1 1 0.215529 0.487821 1.57871 0 0 0 0.970753 0.129354 0.184288 0 0 -2.77371 -4.99719 -101.121 7.14743 0.03 325.752 
21 1 1 0.318441 0.490083 1.57663 0 0 0 1.71294 0.460375 0.279512 -0.980543 3.61095 -10.2571 -22.0125 -78.8009 9.29243 0.03 318.958 
4 1 1 0.514872 0.484428 1.5778 0 0 0 2.04463 0.0614572 0.207886 0 0 -2.77371 -2.17183 -65.7703 9.78384 0.03 316.28 
136 1 1 0.570663 0.514611 1.57684 0 0 0 2.36221 0.277469 0.0846151 -0.295743 1.10053 -4.12752 0.890303 23.575 -5.87914 0.03 303.636 
169 1 1 0.650198 0.500068 1.57672 0 0 0 2.25215 -0.0147378 0.0305057 0.293605 1.47417 -0.0478105 0.676804 -58.5837 -0.911569 0.03 327.386 
61 1 1 0.766135 0.509536 1.57686 0 0 0 2.13424 -0.138629 0.0108291 -0.0574465 0.0206803 -0.480114 4.70707 -62.4244 14.2613 0.03 337.925 
163 1 1 1.04466 0.483206 1.5768 0 0 0 2.66213 -0.214251 0.0282067 0.137869 -0.138107 -0.653793 6.83565 -45.597 27.7904 0.03 344.988 
145 1 1 1.1391 0.504169 1.57678 0 0 0 2.70862 0.0945396 -0.0255158 -6.52856 2.01885 -1.91637 -1.3717 -32.8051 13.7416 0.03 327.619 
39 1 1 1.19494 0.483816 1.57645 0 0 0 2.56873 -0.0535708 -0.210092 4.47316 2.30688 0.717252 3.97373 -46.8698 -4.98592 0.03 340.975 
10 1 1 1.26705 0.481586 1.57686 0 0 0 2.48093 -0.111871 0.000399195 -0.00595841 0.0118992 0.0382187 3.7325 -50.8525 -8.1303 0.03 364.818 
162 1 1 1.3387 0.489538 1.57688 0 0 0 2.69522 -0.266518 -0.0160504 0.105459 -0.0816086 0.467106 8.83188 -43.6954 17.3258 0.03 351.102 
36 1 1 1.4144 0.486026 1.57692 0 0 0 2.38404 0.118047 0.0128951 1.58494 -2.54578 -0.066962 -3.99861 -54.0623 -1.06633 0.03 350.466 
140 1 1 1.62468 0.493344 1.57686 0 0 0 2.52255 0.0244765 -5.38478e-08 1.6877e-07 -2.79597e-09 -5.93005e-07 -0.819227 -49.4502 0.805906 0.03 332.654 
304 1 1 0.106598 0.529926 1.5775 0 0 0 0.868152 0.571813 0.541148 0 0 -2.77371 -19.3291 -105.432 13.9383 0.03 303.638 
48 1 1 0.298617 0.552354 1.57971 0 0 0 1.3471 0.133439 0.264408 0 0 -2.77371 -5.52841 -89.6564 17.0883 0.03 311.622 
104 1 1 0.864739 0.523357 1.57638 0 0 0 2.34151 -0.150306 0.101791 -1.09147 1.34667 4.13939 9.01512 -59.4299 -5.04679 0.03 331.245 
42 1 1 0.933773 0.536061 1.57749 0 0 0 2.2295 -0.0259098 0.0135749 0 0 -2.77371 1.60929 -59.5382 8.41463 0.03 344.288 
63 1 1 1.06812 0.545937 1.57677 0 0 0 2.51727 -0.0347032 -0.00142057 -0.279877 0.0368301 0.146521 1.17754 -49.6727 15.7101 0.03 360.269 
109 1 1 1.18796 0.545932 1.57695 0 0 0 2.75722 -0.22656 -0.0106132 -0.85458 -0.549867 -1.69019 14.0909 -11.2461 10.0797 0.03 352.729 
103 1 1 1.24736 0.538312 1.57685 0 0 0 2.66801 -0.0420367 0.0123711 1.88626 -0.399629 0.057352 2.35364 -34.806 -2.68095 0.03 363.715 
172 1 1 1.30707 0.540713 1.57668 0 0 0 2.65122 -0.227943 -0.0123137 -0.665464 -0.136588 -0.120645 8.46452 -45.2574 -14.4248 0.03 355.019 
66 1 1 1.38051 0.535211 1.57681 0 0 0 2.41296 0.116357 -0.012107 -0.20547 0.541153 0.181409 -3.40495 -52.8326 -8.07955 0.03 344.639 
100 1 1 1.50276 0.528905 1.57683 0 0 0 2.47739 0.0485474 0.000346449 0.27034 -0.364907 -0.0129037 -1.61543 -50.9911 -3.22242 0.03 360.084 
326 1 1 0.178036 0.584144 1.59113 0 0 0 1.47019 0.0102762 0.670623 -4.4356 -9.42804 11.7984 -15.1968 -115.059 -8.17739 0.03 309.579 
147 1 1 0.407088 0.56298 1.58039 0 0 0 1.94804 0.786417 0.419332 0 0 -2.77371 -27.3165 -69.8106 18.513 0.03 312.674 
34 1 1 0.474289 0.582846 1.59787 0 0 0 2.3609 -0.149895 0.180772 0 0 -2.77371 -10.1284 -69.9702 -17.2733 0.03 321.535 
117 1 1 0.551962 0.572889 1.5821 0 0 0 2.26366 0.226611 0.292861 -0.178343 0.658548 -2.64486 -12.6824 -65.1928 -17.0616 0.03 319.898 
16 1 1 0.63287 0.557766 1.57667 0 0 0 2.04091 -0.16187 0.048675 -0.133286 0.103425 1.19367 5.38969 -65.886 2.39368 0.03 342.998 
118 1 1 0.720282 0.561408 1.57526 0 0 0 2.04476 0.118508 -0.10158 13.0944 4.40368 32.0712 -6.27866 -63.3164 -7.98024 0.03 335.164 
152 1 1 0.802502 0.564814 1.57722 0 0 0 2.38706 -0.227287 0.114317 0 0 -2.77371 7.66946 -53.6306 -25.4873 0.03 351.856 
105 1 1 0.885417 0.578204 1.5873 0 0 0 2.54234 -0.0220927 0.0181984 -0.823066 -1.09738 -1.10788 -33.6591 7.83617 -9.84376 0.03 308.612 
121 1 1 1.0046 0.555287 1.57686 0 0 0 2.41471 -0.106522 -0.000574386 0.00202921 0.000140402 0.0237919 3.56524 -53.0591 -27.1987 0.03 360.672 
158 1 1 1.13188 0.566534 1.57675 0 0 0 2.802 -0.0555529 0.00217671 -0.0448252 -0.137021 0.355633 1.40771 -40.6615 -25.9559 0.03 349.132 
168 1 1 1.4422 0.562086 1.57686 0 0 0 2.40346 0.245525 -7.67483e-07 3.13225e-06 -4.81694e-07 0.000137413 -8.21769 -53.4362 7.62347 0.03 338.213 
113 1 1 1.50889 0.585664 1.59482 0 0 0 2.29882 0.052008 0.0521499 -0.274019 -0.383302 -0.394703 -2.46377 -62.1955 -18.2726 0.03 359.332 
72 1 1 0.251706 0.591144 1.60034 0 0 0 1.42779 0.0743329 0.16923 0.0853073 1.10237 -3.14778 -10.5381 -69.834 -50.7301 0.03 310.147 
18 1 1 0.944118 0.592219 1.60148 0 0 0 2.12364 0.129433 0.201889 0.239566 0.859946 -3.12916 -19.6476 -34.6163 -42.8445 0.03 307 
114 1 1 0.37862 0.139392 1.62391 0 0 0 1.22254 0.118449 -0.0728276 0 0 -2.77371 -3.6304 -113.211 17.9198 0.03 313.09 
139 1 1 0.452429 0.131451 1.63195 0 0 0 1.09837 -0.247635 0.145167 -0.300666 -3.00135 -1.64472 16.539 -118.348 19.7279 0.03 330.478 
173 1 1 0.94614 0.155439 1.60751 0 0 0 2.52145 0.229511 -0.184377 0.145123 0.217908 -2.24244 3.37314 -12.6614 45.0845 0.03 311.64 
87 1 1 1.07154 0.154958 1.60798 0 0 0 1.97509 0.299334 -0.299332 -1.03061e-05 0.988156 -0.989336 -14.1565 -44.8672 50.8979 0.03 335.478 
22 1 1 0.209233 0.173449 1.59619 0 0 0 0.539715 0.0592323 -0.649783 21.1344 2.6029 18.8411 -9.63217 23.4947 -32.1919 0.03 300.262 
51 1 1 0.430796 0.184064 1.61332 0 0 0 0.375029 -0.923428 -0.643615 0.281319 2.63271 -4.79855 -14.35 19.6823 2.67975 0.03 307.533 
171 1 1 0.580842 0.16645 1.63961 0 0 0 1.46988 -0.0186099 0.502516 0 0 -2.77371 -8.75622 48.4422 -23.7755 0.03 300.319 
213 1 1 0.134595 0.221624 1.61196 0 0 0 -0.327593 0.187029 -1.23977 -14.2997 53.9135 27.9074 -3.78738 20.8679 -24.3342 0.03 300.045 
74 1 1 0.373748 0.211234 1.61549 0 0 0 0.486032 -0.219147 -0.393376 0 0 -2.77371 -14.62 -6.11998 5.82112 0.03 300.57 
281 1 1 0.494252 0.190885 1.6181 0 0 0 0.959292 -1.00206 -0.366685 0.14841 -0.16336 -2.13667 2.25452 10.0641 -13.6321 0.03 300.378 
19 1 1 0.578662 0.232252 1.61381 0 0 0 1.67926 0.188138 0.109415 0.775444 -1.21263 -5.48997 -23.6921 0.467754 -11.8214 0.03 302.791 
164 1 1 0.267912 0.255116 1.59841 0 0 0 0.111573 -0.63531 -0.915436 0 0 -2.77371 5.14749 3.71408 -5.36278 0.03 300.607 
141 1 1 0.715102 0.243322 1.60003 0 0 0 1.79379 -0.233942 -0.104235 2.06492 11.922 12.9972 -2.89649 59.0842 -13.0672 0.03 302.093 
146 1 1 0.819035 0.247022 1.61128 0 0 0 1.77685 0.0865194 -0.0642982 0 0 -2.77371 1.44165 45.2547 -26.4789 0.03 301.765 
7 1 1 0.903661 0.256791 1.61246 0 0 0 2.28769 -0.292179 0.00510373 0 0 -2.77371 28.3567 45.4005 2.90389 0.03 301.202 
225 1 1 0.63684 0.291192 1.63123 0 0 0 1.29351 -0.162703 -0.169243 0 0 -2.77371 10.9245 28.7603 -19.3834 0.03 300.309 
44 1 1 0.7453 0.296319 1.62088 0 0 0 1.40738 0.0768462 -0.863269 0 0 -2.77371 -7.58956 14.9275 29.3808 0.03 300.826 
300 1 1 0.154644 0.329242 1.6299 0 0 0 0.274689 -0.460054 0.396236 1.22451 -43.0713 33.6737 -12.1822 10.4788 16.7209 0.03 300.229 
180 1 1 0.289405 0.312186 1.61863 0 0 0 -0.278131 -0.227801 -0.99749 -7.17351 -11.3551 54.6133 -6.1998 -0.44075 -15.3646 0.03 300.184 
127 1 1 0.54359 0.328333 1.59363 0 0 0 0.946216 0.0045678 -0.966877 0 0 -2.77371 6.54108 -5.3704 -9.82308 0.03 300.987 
159 1 1 1.13637 0.345572 1.60917 0 0 0 2.53523 -0.140225 -0.325674 0 0 -2.77371 20.8567 65.5344 12.8802 0.03 301.761 
289 1 1 0.114633 0.393548 1.62734 0 0 0 -0.527097 0.287232 -0.451428 -0.30635 0.226378 -2.84894 -4.61843 50.9687 -21.3699 0.03 300.153 
128 1 1 0.432032 0.402111 1.631 0 0 0 0.407669 0.0263661 0.247705 -0.246788 0.132283 -3.08262 6.46373 43.0894 -11.4082 0.03 300.914 
153 1 1 0.691838 0.387834 1.61478 0 0 0 2.29153 0.117927 0.0211601 1.86553 -0.741598 1.7867 9.46277 -26.988 2.63684 0.03 300.706 
24 1 1 0.837717 0.393741 1.61477 0 0 0 1.50751 -0.270082 -0.425542 0 0 -2.77371 36.258 -11.9005 12.5488 0.03 300.398 
28 1 1 0.307861 0.444274 1.61426 0 0 0 0.897285 0.311471 0.619245 2.17246 5.82142 31.3367 15.246 38.854 -5.68826 0.03 300.856 
6 1 1 0.368492 0.442716 1.6023 0 0 0 0.363343 0.293442 -2.23883 0 0 -2.77371 21.9747 -14.6047 -0.649509 0.03 300.309 
102 1 1 0.529322 0.418467 1.63651 0 0 0 0.728398 0.434474 0.440091 1.94526 -9.65417 2.82422 -16.8334 32.4112 -4.56886 0.03 300.649 
246 1 1 0.0985813 0.454769 1.62746 0 0 0 -0.951973 -0.0907697 -0.0708571 -1.54187 -1.74368 0.190346 -0.937592 19.1151 3.32211 0.03 300.064 
249 1 1 0.164803 0.477171 1.6129 0 0 0 1.37418 1.08157 1.57918 4.95783 2.5811 -15.0438 -46.7713 82.2363 4.34444 0.03 300.308 
227 1 1 0.452303 0.480137 1.63306 0 0 0 1.09735 0.197707 0.69143 -1.84584 -2.67976 8.63186 -6.951 31.1408 -18.901 0.03 300.888 
106 1 1 0.527709 0.477557 1.63676 0 0 0 1.00743 0.460849 0.461053 -14.728 23.72 -10.9812 14.0966 44.3052 -15.2853 0.03 301.491 
134 1 1 0.679651 0.453701 1.59997 0 0 0 2.54676 0.0559027 -0.112513 0.140455 -2.38348 -1.61566 29.2449 18.5591 26.7289 0.03 302.237 
151 1 1 1.15552 0.470481 1.62578 0 0 0 2.32353 0.121177 -0.292233 0 0 -2.77371 -21.5778 36.7412 10.3796 0.03 304.346 
92 1 1 1.21306 0.452847 1.62264 0 0 0 2.50011 0.0130939 -0.130064 9.18539 -13.2861 22.5481 -14.6435 53.0182 -12.1495 0.03 301.08 
157 1 1 1.3117 0.509072 1.62691 0 0 0 2.50207 -0.309474 -0.0784166 2.65576 -1.42769 2.81756 -9.58663 48.1354 8.96944 0.03 303.785 
301 1 1 0.164446 0.541737 1.63 0 0 0 -0.734599 -0.492414 -0.139615 0.132171 -1.10285 -2.27414 29.0888 1.77885 15.7943 0.03 300.071 
55 1 1 0.245233 0.527842 1.61418 0 0 0 0.533608 1.12665 -0.0939116 0 0 -2.77371 -7.45178 80.2158 -22.422 0.03 300.473 
276 1 1 0.310225 0.524456 1.63553 0 0 0 0.936234 0.304276 0.932483 0 0 -2.77371 -0.407275 57.5096 4.02046 0.03 300.238 
52 1 1 0.42714 0.535639 1.63316 0 0 0 1.25747 0.785938 1.24569 0 0 -2.77371 25.4333 22.9379 -1.59215 0.03 300.573 
98 1 1 0.786682 0.540548 1.63418 0 0 0 1.73726 0.261003 0.216341 0 0 -2.77371 -8.1028 53.9756 11.4743 0.03 300.782 
9 1 1 1.10649 0.535985 1.62151 0 0 0 2.6222 -0.0474376 -0.097386 0.363051 -0.278733 -0.130571 10.619 51.5067 -2.60881 0.03 306.02 
79 1 1 0.757556 0.594208 1.60542 0 0 0 2.18742 -0.131373 0.419537 11.7139 16.743 27.5774 -22.0245 22.35 -33.7284 0.03 317.661 
2 1 1 0.821753 0.600745 1.62237 0 0 0 1.90837 -0.155429 0.57808 0 0 -2.77371 -13.3194 -37.0795 -25.0213 0.03 315.957 
156 1 1 0.884454 0.620346 1.62991 0 0 0 1.81943 0.106908 0.00514763 0.461398 -0.624608 -4.2989 25.2928 -81.2896 -36.2893 0.03 332.759 
83 1 1 1.30817 0.5943 1.60349 0 0 0 3.2325 -0.135216 -0.137483 0.964679 -1.59788 -1.29066 0.515412 18.6299 -27.9739 0.03 314.502 
62 1 1 0.288404 0.110075 1.65533 0 0 0 0.668226 0.604126 -0.14945 0 0 -2.77371 -16.2936 -127.251 33.9616 0.03 303.4 
115 1 1 0.591299 0.09953 1.66772 0 0 0 1.93968 -0.182811 0.0146823 0 0 -2.77371 13.0047 -29.3616 61.6705 0.03 308.929 
288 1 1 0.242304 0.204074 1.63443 0 0 0 0.571983 -0.7304 -0.917954 34.5343 11.2447 12.3303 22.579 -2.34768 2.30393 0.03 300.005 
307 1 1 0.299518 0.215188 1.64435 0 0 0 0.950411 -0.737054 -0.826594 -0.855671 0.0989501 -2.61669 1.04751 0.148194 3.99348 0.03 300.002 
221 1 1 0.446968 0.224048 1.65362 0 0 0 0.66929 -0.538137 -0.580357 0.0193477 0.368642 -1.87786 12.643 -2.02265 6.34211 0.03 300.038 
43 1 1 0.675331 0.195476 1.66551 0 0 0 1.60571 -0.43841 0.222858 0 0 -2.77371 10.9031 45.7781 6.75873 0.03 300.392 
107 1 1 0.361211 0.272012 1.63142 0 0 0 0.303128 0.525085 -1.53798 0 0 -2.77371 33.8864 -15.935 -18.2918 0.03 300.034 
322 1 1 0.510127 0.237578 1.65696 0 0 0 0.446259 -0.302281 -0.856697 0.943119 -2.43139 -0.624289 -12.3026 -30.5196 1.70287 0.03 300.019 
46 1 1 1.08328 0.236562 1.63852 0 0 0 1.86202 -0.168374 -0.377732 0 0 -2.77371 -2.90245 29.1062 -24.3177 0.03 301.114 
257 1 1 0.101529 0.301021 1.6399 0 0 0 -0.479328 -0.199553 -1.31583 0 0 -2.77371 -11.5105 -21.2166 0.819378 0.03 300.002 
73 1 1 0.197924 0.28514 1.64168 0 0 0 0.195295 0.481146 0.270112 0 0 -2.77371 -12.6319 66.9023 -0.0236985 0.03 300.627 
230 1 1 0.259509 0.271086 1.6568 0 0 0 0.0461535 -0.402079 -0.704257 0 0 -2.77371 -8.92928 -6.86693 -5.99491 0.03 300.006 
187 1 1 0.508712 0.294049 1.63739 0 0 0 1.5745 0.012527 0.133126 23.1553 7.97935 9.27281 19.1233 5.03601 -11.1902 0.03 300.156 
155 1 1 1.00271 0.270344 1.63832 0 0 0 2.0606 -0.0491916 0.133602 0 0 -2.77371 -3.98124 45.5716 22.8363 0.03 301.214 
71 1 1 0.386013 0.328219 1.65351 0 0 0 0.836146 -0.0850103 -1.36495 -8.70723 -1.79134 13.9599 -6.81125 9.95595 -5.79748 0.03 300.841 
31 1 1 0.219919 0.360336 1.64695 0 0 0 0.0485075 0.482292 0.554158 0 0 -2.77371 -40.3171 49.0112 -4.16123 0.03 300.421 
68 1 1 0.471048 0.350256 1.64592 0 0 0 1.04797 -0.323688 0.354701 0 0 -2.77371 -9.68821 19.3253 -0.31509 0.03 300.463 
190 1 1 0.262766 0.408521 1.65631 0 0 0 0.624761 0.246744 0.810643 0 0 -2.77371 19.9544 51.6301 -5.96516 0.03 300.21 
176 1 1 0.362719 0.388813 1.64329 0 0 0 0.335922 0.0863771 -1.47706 0 0 -2.77371 -29.319 -24.4683 9.40416 0.03 300.021 
178 1 1 0.320852 0.425265 1.66832 0 0 0 0.574568 -0.261841 0.380252 17.2337 2.04234 22.7319 0.54062 -41.0253 -14.0924 0.03 300.011 
226 1 1 0.25203 0.466536 1.62859 0 0 0 -0.128505 0.116282 -1.04151 0 0 -2.77371 21.4903 -52.4431 -8.57468 0.03 300.007 
296 1 1 0.57598 0.450724 1.6564 0 0 0 1.70392 0.447084 -0.925526 18.8614 -10.7222 0.883336 0.922834 15.4794 12.9349 0.03 300.012 
130 1 1 1.07949 0.467473 1.6535 0 0 0 2.01452 -0.115907 0.331202 0 0 -2.77371 -1.80228 -25.3021 -0.648071 0.03 300.511 
20 1 1 0.882541 0.49417 1.6358 0 0 0 1.76878 0.304916 -0.156352 0 0 -2.77371 -5.11998 28.3167 3.48175 0.03 301.198 
149 1 1 0.957162 0.499513 1.63581 0 0 0 2.00839 0.0967977 -0.498806 0 0 -2.77371 10.7463 -19.5596 -8.52746 0.03 300.579 
150 1 1 0.611704 0.550734 1.65244 0 0 0 1.48593 0.164729 0.222923 0 0 -2.77371 -12.2287 12.8132 13.3715 0.03 300.74 
65 1 1 0.555454 0.570864 1.64267 0 0 0 1.36333 0.279274 0.332893 0 0 -2.77371 -12.3571 5.59891 -14.694 0.03 300.503 
138 1 1 0.517108 0.612269 1.66339 0 0 0 1.34562 0.304427 0.32913 -2.26839 -4.02775 1.56632 -36.1953 44.3569 42.7079 0.03 300.212 
129 1 1 0.293989 0.635777 1.67155 0 0 0 1.26868 0.466353 0.289615 0 0 -2.77371 -16.2027 -52.7064 -40.2018 0.03 303.437 
154 1 1 0.364132 0.630271 1.64535 0 0 0 1.17037 0.103612 0.338781 0 0 -2.77371 -9.29498 -6.28142 -70.312 0.03 303.925 
89 1 1 0.465826 0.627963 1.63653 0 0 0 1.4498 0.042541 0.134645 3.34745 -3.90296 -4.32232 10.4503 -57.022 -58.0827 0.03 312.297 
17 1 1 0.590576 0.640797 1.65019 0 0 0 1.6363 -0.0477058 -0.0671305 0.211331 -0.272074 -2.20844 -22.5852 -23.9088 -51.15 0.03 306.609 
75 1 1 0.688541 0.626688 1.63719 0 0 0 1.55025 0.0940819 0.0159734 0 0 -2.77371 -24.4391 -14.2166 -25.3177 0.03 303.728 
99 1 1 0.735091 0.656363 1.66555 0 0 0 1.92727 -0.141217 -0.138148 0.0877379 -0.824021 -1.14693 6.64717 -36.1345 -61.8767 0.03 319.055 
137 1 1 0.341187 0.0717888 1.69116 0 0 0 0.958303 0.185321 -0.184802 0.254652 0.676443 -0.845973 -2.45236 -65.963 75.3526 0.03 312.995 
165 1 1 0.956427 0.0730347 1.68992 0 0 0 2.05604 0.246257 -0.246185 -0.000402102 0.866532 -1.0888 -11.6234 -25.8508 66.0604 0.03 312.817 
76 1 1 0.454745 0.0878266 1.69003 0 0 0 0.844591 -0.491443 -0.474527 0 0 -2.77371 13.0902 83.2212 -49.4108 0.03 301.053 
49 1 1 0.668391 0.118433 1.67608 0 0 0 2.19511 0.23437 -0.218294 0 0 -2.77371 9.58934 -29.9601 32.6239 0.03 306.835 
333 1 1 0.416389 0.173154 1.67618 0 0 0 0.459132 -0.608979 -0.180444 0 0 -2.77371 12.2467 -19.0659 14.8296 0.03 300.126 
196 1 1 0.358074 0.217651 1.68098 0 0 0 -0.0319184 -0.846593 -1.45163 0 0 -2.77371 2.18114 10.1041 5.25365 0.03 300 
181 1 1 0.44882 0.291874 1.67142 0 0 0 0.78412 -0.955825 -1.18762 3.62408 -17.129 -1.50907 -3.04845 -35.5376 -11.8311 0.03 300.018 
340 1 1 0.256099 0.345131 1.69445 0 0 0 0.747108 0.441308 -0.366966 46.4058 4.22277 -87.9703 57.4897 -48.2645 -23.7233 0.03 300.008 
245 1 1 0.161923 0.377804 1.65833 0 0 0 0.624216 0.898726 -0.793261 8.66156 49.2013 38.1249 -62.3701 15.5661 -12.0081 0.03 300.001 
268 1 1 0.475602 0.406472 1.67241 0 0 0 1.00551 0.283241 -0.06763 0 0 -2.77371 -20.3901 -22.334 8.51204 0.03 300.013 
291 1 1 0.557124 0.386535 1.67741 0 0 0 2.01651 -0.433663 -0.340544 -6.07867 -3.34366 -3.82118 20.0817 46.4973 -40.7448 0.03 300.004 
352 1 1 0.382449 0.440285 1.66727 0 0 0 0.316043 -0.0431841 -1.50808 0 0 -2.77371 -9.39701 7.0932 2.18807 0.03 300.002 
265 1 1 0.445098 0.457941 1.6874 0 0 0 0.131284 0.0148981 0.357696 3.04402 -0.31342 16.4547 12.6731 -59.9935 -3.87076 0.03 300.008 
243 1 1 0.497296 0.499683 1.6858 0 0 0 0.539645 0.512764 0.548583 0 0 -2.77371 -2.64357 -72.2255 -3.45373 0.03 300.033 
224 1 1 0.395044 0.514592 1.68051 0 0 0 0.184695 -0.482612 0.415639 0 0 -2.77371 -21.0683 -54.4467 -6.53051 0.03 300.008 
57 1 1 0.419925 0.667941 1.67711 0 0 0 1.21477 -0.107879 -0.1083 1.011 -1.44224 -1.35599 6.6627 1.56703 -4.65736 0.03 310.137 
27 1 1 0.636795 0.685682 1.69474 0 0 0 1.94404 0.0617431 0.0553107 0.0906533 -2.15422 0.132635 -2.05193 -51.3337 -46.1264 0.03 307.407 
209 1 1 0.351293 0.322136 1.70176 0 0 0 -0.350433 -0.0855338 -1.26607 8.70723 1.79134 -19.5073 8.13989 -40.7233 -0.676339 0.03 300.006 
313 1 1 0.439891 0.327914 1.71596 0 0 0 -0.0552351 0.335585 -1.37093 -3.62408 17.129 -4.03836 -43.1559 -9.00864 1.07725 0.03 300 
254 1 1 0.385866 0.381266 1.70551 0 0 0 0.213772 0.257805 -1.10068 -43.698 6.19291 -52.846 32.1899 39.3942 -4.36612 0.03 300 
270 1 1 0.207615 0.426676 1.68536 0 0 0 0 0 -2.8456 0 0 -2.77371 0 0 0 0.03 300 
279 1 1 0.157212 0.495968 1.70945 0 0 0 0 0 -2.76134 0 0 -2.77371 0 0 0 0.03 300 
93 1 1 0.21784 0.70313 1.72743 0 0 0 -0.0613205 1.00533 -0.270512 0 0 -2.77371 -31.8754 6.51144 -11.2183 0.03 300.067 
317 1 1 0.252263 0.228507 1.74013 0 0 0 0 0 -2.65009 0 0 -2.77371 0 0 0 0.03 300 
252 1 1 0.442785 0.262265 1.74446 0 0 0 0 0 -2.634 0 0 -2.77371 0 0 0 0.03 300 
248 1 1 0.155073 0.291265 1.72313 0 0 0 0 0 -2.71229 0 0 -2.77371 0 0 0 0.03 300 
204 1 1 0.215387 0.347811 1.73486 0 0 0 -0.154818 -0.130478 -1.9859 -46.4058 -4.22277 82.4229 -10.7963 -29.1357 -7.87278 0.03 300 
346 1 1 0.2812 0.398881 1.72907 0 0 0 0 0 -2.6907 0 0 -2.77371 0 0 0 0.03 300 
335 1 1 0.429144 0.407023 1.73605 0 0 0 0.121085 -0.034899 -2.51779 43.698 -6.19291 47.2986 -6.82415 3.6423 6.45429 0.03 300 
217 1 1 0.461801 0.523439 1.73507 0 0 0 0 0 -2.66873 0 0 -2.77371 0 0 0 0.03 300 
193 1 1 0.281872 0.329623 1.77084 0 0 0 0 0 -2.53384 0 0 -2.77371 0 0 0 0.03 300 
272 1 1 0.116473 0.427779 1.77697 0 0 0 0 0 -2.51 0 0 -2.77371 0 0 0 0.03 300 
239 1 1 0.490736 0.457949 1.76371 0 0 0 0 0 -2.56131 0 0 -2.77371 0 0 0 0.03 300 
201 1 1 0.360389 0.493184 1.7623 0 0 0 0 0 -2.56671 0 0 -2.77371 0 0 0 0.03 300 
305 1 1 0.346674 0.257421 1.79921 0 0 0 0 0 -2.42152 0 0 -2.77371 0 0 0 0.03 300 
233 1 1 0.496558 0.3336 1.81273 0 0 0 0 0 -2.36609 0 0 -2.77371 0 0 0 0.03 300 
237 1 1 0.207046 0.471117 1.80025 0 0 0 0 0 -2.4173 0 0 -2.77371 0 0 0 0.03 300 
262 1 1 0.417911 0.469013 1.79895 0 0 0 0 0 -2.4226 0 0 -2.77371 0 0 0 0.03 300 
303 1 1 0.114998 0.510423 1.82068 0 0 0 0 0 -2.33293 0 0 -2.77371 0 0 0 0.03 300 
263 1 1 0.269308 0.500141 1.80312 0 0 0 0 0 -2.40563 0 0 -2.77371 0 0 0 0.03 300 
351 1 1 0.181906 0.258163 1.83313 0 0 0 0 0 -2.27996 0 0 -2.77371 0 0 0 0.03 300 
319 1 1 0.490886 0.237209 1.84856 0 0 0 0 0 -2.21257 0 0 -2.77371 0 0 0 0.03 300 
298 1 1 0.133415 0.358363 1.84121 0 0 0 0 0 -2.24494 0 0 -2.77371 0 0 0 0.03 300 
341 1 1 0.462863 0.403415 1.85976 0 0 0 0 0 -2.16234 0 0 -2.77371 0 0 0 0.03 300 
334 1 1 0.38649 0.410383 1.85039 0 0 0 0 0 -2.20442 0 0 -2.77371 0 0 0 0.03 300 
283 1 1 0.300071 0.232043 1.89468 0 0 0 0 0 -1.99763 0 0 -2.77371 0 0 0 0.03 300 
332 1 1 0.233113 0.233231 1.87814 0 0 0 0 0 -2.07729 0 0 -2.77371 0 0 0 0.03 300 
206 1 1 0.126939 0.284236 1.87136 0 0 0 0 0 -2.10907 0 0 -2.77371 0 0 0 0.03 300 
194 1 1 0.257372 0.298287 1.87854 0 0 0 0 0 -2.07542 0 0 -2.77371 0 0 0 0.03 300 
231 1 1 0.39189 0.276895 1.87902 0 0 0 0 0 -2.07316 0 0 -2.77371 0 0 0 0.03 300 
347 1 1 0.332014 0.322805 1.87624 0 0 0 0 0 -2.08621 0 0 -2.77371 0 0 0 0.03 300 