ITEM: TIMESTEP
114000
ITEM: NUMBER OF ATOMS
527
ITEM: BOX BOUNDS ff ff ff
0 3.3
-0.3 0.8
-0.5 3
ITEM: ATOMS id type type x y z ix iy iz vx vy vz fx fy fz omegax omegay omegaz radius f_Temp[0] 
258 1 1 0.0713263 0.188821 1.5789 0 0 0 0.0287375 -0.620143 0.0892651 0 0 -2.77371 20.6796 -133 -21.1587 0.03 306.83 
343 1 1 0.181834 0.174338 1.58856 0 0 0 0.962926 0.137451 -0.131985 0.195138 2.44768 -1.94222 -18.6295 -86.244 54.4988 0.03 308.518 
213 1 1 0.292712 0.180576 1.58538 0 0 0 1.28459 -0.0329682 0.0554217 0 0 -2.77371 7.45684 -96.7377 32.6179 0.03 330.97 
248 1 1 0.511298 0.186452 1.57683 0 0 0 2.27229 0.145603 -0.0798938 3.56273 0.333931 4.38297 -5.3662 -53.3424 33.221 0.03 333.231 
307 1 1 0.639637 0.16597 1.59655 0 0 0 1.65734 -0.0734969 -0.238692 -27.1197 2.95277 -9.076 -2.61715 -31.5461 35.2965 0.03 309.11 
22 1 1 0.7724 0.185665 1.57701 0 0 0 2.34837 0.0719916 -0.138752 -4.18506 -2.05506 4.29751 4.3784 -57.0394 -13.5194 0.03 337.744 
288 1 1 0.826665 0.168825 1.59424 0 0 0 2.37859 0.140793 -0.0594621 5.36628 -3.12171 1.21517 -5.01062 -27.741 45.9375 0.03 332.252 
90 1 1 0.932024 0.190916 1.57686 0 0 0 2.57067 0.0621206 -0.000108868 0.000316709 -1.214e-05 0.000187431 -2.07916 -47.8391 30.7538 0.03 356.952 
114 1 1 1.0149 0.185524 1.57729 0 0 0 3.08733 0.235588 -0.234815 0.693824 -3.41643 1.91129 -9.96627 -14.0444 23.3899 0.03 343.754 
221 1 1 1.0832 0.191257 1.57639 0 0 0 2.80969 0.318162 -0.0190602 -0.249866 -4.01706 5.83591 -10.6796 -40.1065 18.7708 0.03 322.314 
43 1 1 1.27207 0.192483 1.57861 0 0 0 3.01269 0.0588812 -0.102764 0 0 -2.77371 -1.96582 -33.004 -13.0717 0.03 304.979 
40 1 1 1.36576 0.186112 1.57682 0 0 0 2.89167 0.00529776 0.0310077 -0.105781 0.526628 -0.549577 -0.203791 -38.0236 12.2654 0.03 353.735 
58 1 1 1.41889 0.166973 1.59651 0 0 0 2.97805 0.0426525 -0.0281322 0.159139 -0.00706281 -2.63355 1.46719 -16.2578 29.2659 0.03 370.085 
141 1 1 1.51424 0.195463 1.5768 0 0 0 3.23982 0.132137 0.00816984 0.0997144 1.41545 0.739377 -4.71805 -25.3699 -9.07098 0.03 330.044 
161 1 1 1.5754 0.187199 1.57687 0 0 0 3.2557 0.0351152 -0.0018894 0.000788323 0.000563632 0.0180133 -1.17618 -24.9148 15.0793 0.03 361.741 
193 1 1 0.418722 0.197346 1.57775 0 0 0 1.70752 -0.356517 0.0151205 0 0 -2.77371 11.8164 -76.4506 8.69029 0.03 307.705 
132 1 1 0.639078 0.22445 1.5795 0 0 0 1.97626 0.227061 0.117179 -3.78271 -4.22175 9.15025 11.5664 -62.9725 -6.38423 0.03 345.312 
164 1 1 0.863699 0.212506 1.57705 0 0 0 2.35358 0.177349 -0.017032 -6.27694 -5.51448 -6.75533 -10.5581 -50.4452 -15.6494 0.03 337.16 
51 1 1 1.14294 0.210881 1.57649 0 0 0 2.99023 0.320799 0.018346 -3.84318 -1.40679 2.88758 -12.1417 -33.1486 9.66768 0.03 342.776 
171 1 1 1.20227 0.212121 1.57762 0 0 0 2.983 0.305652 0.117653 8.53617 0.50299 1.69137 10.8559 -13.0174 -7.08396 0.03 314.107 
95 1 1 1.32393 0.230457 1.57686 0 0 0 3.0195 0.0847367 0.000164842 -0.00029227 2.43493e-05 0.0250254 -2.83627 -32.819 -3.52119 0.03 333.078 
91 1 1 1.41182 0.224484 1.57658 0 0 0 2.86092 0.105679 0.0214965 -0.524285 -0.545405 2.63132 -3.19848 -38.5963 -4.71559 0.03 352.449 
365 1 1 0.173276 0.491192 2.4316 0 0 0 -0 -0 -1 0 0 0 0 0 0 0.03 300 
202 1 1 0.100061 0.245445 1.57506 0 0 0 0.217019 -0.198288 -0.427709 46.8891 17.6203 97.4074 -36.4205 -14.9992 -7.95475 0.03 300.765 
284 1 1 0.182248 0.235539 1.57604 0 0 0 0.9146 0.15252 -0.035465 0.36006 1.20398 -11.3655 -4.01913 -101.955 4.35067 0.03 309.659 
185 1 1 0.331146 0.239987 1.5807 0 0 0 1.79587 -0.495394 0.333485 0 0 -2.77371 16.3916 -75.8496 -27.0264 0.03 319.671 
230 1 1 0.544519 0.237127 1.57738 0 0 0 2.16823 0.287464 0.00165986 0 0 -2.77371 -18.7649 -46.7936 -2.02245 0.03 317.746 
180 1 1 0.598114 0.268169 1.57636 0 0 0 2.12997 0.206659 -0.164081 13.601 -6.79397 5.05039 12.3203 -40.8984 -13.0083 0.03 318.606 
110 1 1 0.811937 0.251327 1.57691 0 0 0 2.40184 -0.0157974 -0.0178373 0.131308 -0.300804 -0.0630025 0.607308 -53.3546 8.48915 0.03 351.046 
107 1 1 0.902844 0.257307 1.57699 0 0 0 2.40225 -0.0525361 0.0377862 8.15152 7.05401 2.129 -0.0466994 -52.2638 -1.11368 0.03 328.703 
68 1 1 0.983688 0.247516 1.5766 0 0 0 2.63466 -0.325979 -0.315553 26.1546 0.230795 23.1161 10.6376 -37.5866 1.86798 0.03 304.25 
3 1 1 1.04451 0.237305 1.57653 0 0 0 2.70341 0.376976 -0.119062 -16.8671 -0.33634 -1.66752 -16.1928 -32.1515 -7.16583 0.03 368.343 
5 1 1 1.09881 0.259712 1.57717 0 0 0 2.6802 0.142395 0.145039 25.8909 7.82247 10.7868 -7.02709 -41.301 -9.90153 0.03 353.686 
146 1 1 1.55129 0.24889 1.57686 0 0 0 3.09045 0.0465992 0.00507874 1.30659 0.164987 -0.139786 -4.78125 -4.93408 -1.53681 0.03 315.2 
15 1 1 1.61145 0.239935 1.57686 0 0 0 3.17028 0.343527 -0.00147633 1.35686 0.360955 0.0343816 -13.6334 -19.7397 -0.596559 0.03 366.609 
197 1 1 0.235526 0.302449 1.57635 0 0 0 0.84081 -0.17586 0.178783 -1.41907 -8.34124 -6.83538 -1.37986 -99.037 15.6988 0.03 310.824 
206 1 1 0.375781 0.289508 1.582 0 0 0 1.70256 -0.148707 0.389628 0 0 -2.77371 6.09833 -77.2909 2.81892 0.03 328.554 
351 1 1 0.440736 0.287831 1.57892 0 0 0 1.40838 0.170975 0.0231532 0 0 -2.77371 -4.82737 -87.5714 10.9716 0.03 318.537 
338 1 1 0.703725 0.274908 1.58052 0 0 0 1.40877 -0.26321 -1.0613 0 0 -2.77371 -8.72207 -19.1931 -9.26053 0.03 300.086 
70 1 1 0.858554 0.297551 1.57689 0 0 0 2.48442 0.0629023 0.021214 0.801858 -0.103312 -1.01905 -1.93753 -50.7733 -0.299559 0.03 343.91 
12 1 1 1.20055 0.275744 1.57686 0 0 0 2.6965 0.32232 0.000290322 -0.000889753 0.000225228 -0.0310239 -10.7878 -43.6268 -12.0767 0.03 353.077 
19 1 1 1.37266 0.279233 1.57686 0 0 0 2.84349 0.037098 -0.000295562 0.000858426 -1.49493e-05 0.00849009 -1.24174 -38.7078 -6.7997 0.03 326.948 
13 1 1 1.48322 0.28103 1.57673 0 0 0 3.04425 -0.0813223 -0.0124812 -0.292485 0.0506734 1.54058 2.41983 -31.8505 2.5196 0.03 391.989 
64 1 1 1.58675 0.299503 1.57735 0 0 0 3.00849 0.172341 0.00588481 -0.106629 0.0383561 -2.71749 -5.36281 -32.149 10.729 0.03 382.189 
78 1 1 1.64741 0.289874 1.57706 0 0 0 2.94055 0.541609 -0.0307007 -0.840073 0.369524 -2.36872 -17.6822 -34.6459 7.38059 0.03 353.174 
324 1 1 0.131716 0.318648 1.57938 0 0 0 0.877532 -0.504086 -0.47569 0.876918 -33.4133 -58.1988 -5.02506 -55.7795 -11.9003 0.03 303.4 
339 1 1 0.541363 0.318431 1.57793 0 0 0 1.98324 -0.0675563 0.0347658 0 0 -2.77371 2.24923 -67.6222 1.15286 0.03 341.733 
209 1 1 0.800133 0.310204 1.57676 0 0 0 2.4522 0.0429548 0.0183308 -0.354196 0.157265 0.404981 -1.48481 -52.4956 -5.12298 0.03 323.128 
313 1 1 0.939339 0.309672 1.57687 0 0 0 2.27967 -0.0763656 -0.00184313 0.00682853 0.000286386 0.00890479 2.5556 -57.5717 -14.5579 0.03 317.074 
166 1 1 1.04081 0.30621 1.57686 0 0 0 2.28814 -0.271309 -2.47168e-07 1.09721e-06 1.73895e-07 4.82402e-05 9.08069 -57.2958 17.9709 0.03 353.207 
127 1 1 1.25717 0.309354 1.57687 0 0 0 2.88335 0.260666 0.00419338 -0.0109184 0.00255215 -0.390469 -8.72206 -37.3637 2.92766 0.03 327.217 
225 1 1 1.32125 0.325974 1.57683 0 0 0 3.04688 -0.00155865 0.0150499 1.69635 0.514348 0.119641 -8.021 -3.59833 -0.646408 0.03 309.302 
11 1 1 1.43386 0.315052 1.5768 0 0 0 3.08022 -0.0456822 -0.0362788 2.40882 -0.0160158 2.60084 2.90123 -9.06188 -5.04961 0.03 368.597 
123 1 1 1.52993 0.318208 1.57721 0 0 0 2.91853 0.0700241 -0.0170418 2.20881 1.63506 -1.30903 5.36722 -14.6921 -4.10823 0.03 346.14 
257 1 1 0.0639174 0.343791 1.57688 0 0 0 0.401839 0.210056 -0.0159163 0.160898 -0.0115026 0.479358 -7.02522 -120.341 2.14718 0.03 319.41 
73 1 1 0.268354 0.348688 1.59195 0 0 0 0.623076 0.533252 -0.577983 -0.866295 0.254912 -17.691 5.6555 57.1864 -2.66655 0.03 301.765 
298 1 1 0.344351 0.36126 1.57583 0 0 0 1.85068 -0.290239 0.266925 4.39948 -5.59246 1.28133 11.2152 -63.105 -31.3251 0.03 335.712 
331 1 1 0.400697 0.345709 1.58175 0 0 0 2.09506 -0.545511 0.42465 6.07602 -15.0138 -3.42774 -9.70047 33.6118 34.0828 0.03 306.143 
234 1 1 0.460424 0.350407 1.58314 0 0 0 2.3299 0.198013 -1.05559 -28.7635 -10.9275 -10.3848 -1.36899 25.536 -4.58948 0.03 300.423 
31 1 1 0.601675 0.371641 1.57636 0 0 0 2.36182 -0.0283966 0.18172 -0.25151 -0.604579 0.224655 1.53377 -55.0128 -7.42281 0.03 335.501 
340 1 1 0.706613 0.349876 1.5764 0 0 0 2.54098 -0.154196 -0.0574817 9.93573 -11.8964 2.03009 4.91124 -49.1591 4.28438 0.03 316.282 
233 1 1 0.956065 0.370221 1.57687 0 0 0 2.66785 -0.0772236 0.00470157 -0.013851 -0.00132286 -0.265097 2.58464 -44.5848 0.384231 0.03 309.646 
175 1 1 1.20514 0.346473 1.57689 0 0 0 2.91708 0.333313 -0.00258852 0.0144125 0.0154475 -0.410828 -11.1729 -36.1982 12.7654 0.03 334.984 
35 1 1 1.37966 0.3412 1.57697 0 0 0 3.07036 0.119561 0.00118085 0.535219 -0.192565 -1.6361 0.0330156 -19.8654 3.01714 0.03 343.719 
94 1 1 1.48081 0.35232 1.57676 0 0 0 2.91186 0.177027 0.0575476 1.10747 -0.636479 -0.968984 -1.63566 -30.0778 1.39808 0.03 360.356 
24 1 1 1.62583 0.366566 1.5779 0 0 0 3.42418 0.101687 -0.0360696 0 0 -2.77371 -3.41225 -19.1822 1.69716 0.03 307.248 
316 1 1 0.215726 0.384295 1.57489 0 0 0 1.18432 0.110376 0.20368 1.61745 -8.72575 -0.528381 -1.8899 -100.353 -22.7392 0.03 321.596 
277 1 1 0.427048 0.405913 1.57571 0 0 0 1.97888 0.0750235 -0.166459 12.1876 2.53922 44.0078 -0.691322 -75.1894 -9.41479 0.03 308.233 
300 1 1 0.514136 0.37436 1.57687 0 0 0 2.07192 0.0732732 0.0197379 21.9061 13.3274 -0.621817 -1.4373 -65.866 7.48966 0.03 336.593 
53 1 1 0.801862 0.388261 1.57623 0 0 0 2.42411 0.19184 -0.0338177 -2.31961 1.62358 12.28 -5.28681 -53.7355 -8.66343 0.03 327.59 
128 1 1 1.02157 0.40577 1.57686 0 0 0 2.57586 0.0797756 1.4327e-05 -4.35583e-05 2.43999e-06 7.41381e-05 -2.67009 -47.6659 -6.99507 0.03 326.888 
38 1 1 1.10231 0.376705 1.57687 0 0 0 2.32062 0.094461 -0.00490479 0.0196202 0.00777658 0.121916 -3.16118 -56.1976 -0.890614 0.03 350.137 
187 1 1 1.23814 0.397235 1.57651 0 0 0 2.84326 0.462514 0.0632798 -0.341527 -0.323641 4.14242 -15.3319 -39.2432 -10.8075 0.03 305.528 
291 1 1 1.33604 0.383965 1.57692 0 0 0 2.97192 0.0709892 -0.00601218 -0.338586 -0.391297 -1.02913 -2.69649 -34.0682 4.10619 0.03 326.357 
126 1 1 1.5605 0.391218 1.57686 0 0 0 3.14986 0.282574 -5.37491e-05 8.68076e-05 -2.91028e-05 -0.00706496 -9.45759 -28.4537 -12.4234 0.03 345.195 
285 1 1 0.295668 0.444897 1.57644 0 0 0 1.76645 0.363222 0.346823 3.18304 -3.30974 -10.867 4.90114 -62.1515 -7.83762 0.03 310.559 
344 1 1 0.352525 0.430165 1.58277 0 0 0 2.2006 0.239556 -0.0544186 -0.812479 0.225718 -2.4601 -38.355 31.1324 6.78552 0.03 300.358 
270 1 1 0.527895 0.44375 1.57697 0 0 0 2.04051 -0.0381937 0.0082894 -0.00145523 0.0639095 -1.88629 1.20189 -65.3801 6.85993 0.03 318.904 
148 1 1 0.636717 0.440237 1.57654 0 0 0 2.38697 0.105972 0.0679083 -0.463801 0.175296 4.49919 -4.48222 -55.3449 -14.4906 0.03 340.27 
77 1 1 1.11042 0.437073 1.57673 0 0 0 2.13162 0.18929 0.01755 0.308907 0.883284 1.07807 -9.48457 -61.4389 5.39635 0.03 357.153 
135 1 1 1.34942 0.442775 1.57687 0 0 0 2.92843 -0.0182017 -0.0089437 2.6395 -7.9675 -0.638176 -0.87595 -36.5894 -2.612 0.03 370.189 
101 1 1 1.47771 0.412424 1.57679 0 0 0 2.89047 -0.0116225 -0.00751938 -0.039587 0.173362 -0.22745 0.326479 -37.1343 -3.29625 0.03 373.06 
223 1 1 0.140386 0.453411 1.57734 0 0 0 1.10705 -0.334388 0.25527 0 0 -2.77371 12.1232 -96.9146 -7.50817 0.03 313.668 
289 1 1 0.227358 0.456522 1.57675 0 0 0 1.16064 0.624079 -0.0679127 4.14702 -0.227917 5.53285 -20.7127 -92.016 -6.26761 0.03 326.093 
245 1 1 0.467272 0.470924 1.57702 0 0 0 1.91561 0.164057 -0.00815328 -0.0663054 0.00328653 -1.85551 -5.47686 -69.5833 -3.38085 0.03 318.699 
352 1 1 0.707276 0.464192 1.58235 0 0 0 2.62702 0.0829054 0.0786982 0 0 -2.77371 -2.77733 -45.9535 -11.8206 0.03 304.869 
84 1 1 0.767422 0.473374 1.57688 0 0 0 2.21225 0.125943 -0.0109629 -2.60381 1.59763 -1.99499 -3.93299 -59.9852 4.24982 0.03 340.039 
176 1 1 0.919885 0.468068 1.57686 0 0 0 2.34785 0.291767 2.11462e-05 -8.00147e-05 1.41213e-05 -0.00132895 -9.76542 -55.2972 3.7442 0.03 334.733 
25 1 1 1.02839 0.469019 1.57677 0 0 0 2.54043 0.00815949 0.0183146 -0.669217 -0.152554 0.735031 -0.0562327 -49.8914 -2.05718 0.03 334.665 
169 1 1 1.40487 0.468926 1.57698 0 0 0 2.84536 -0.259214 -0.00187927 3.50485 -1.58622 0.00762745 8.78129 -38.5975 3.02917 0.03 356.516 
134 1 1 1.48074 0.473007 1.57696 0 0 0 2.69746 0.0991538 -0.0097901 0.156689 0.800512 -1.14231 -4.34961 -43.3146 10.0735 0.03 338.415 
37 1 1 1.54401 0.47994 1.57683 0 0 0 2.79334 0.0934853 0.0136183 0.064941 -0.0891908 -0.136312 -3.0421 -40.3471 1.23052 0.03 346.898 
69 1 1 1.60565 0.465752 1.57686 0 0 0 2.81934 -0.0118185 0.000175353 -0.000422582 -3.04192e-06 0.00795604 0.395573 -39.5177 -6.4876 0.03 384.584 
488 1 1 0.339114 0.52293 2.43217 0 0 0 -0 -0 -1 0 0 0 0 0 0 0.03 300 
255 1 1 0.255031 0.517206 1.58503 0 0 0 1.21451 0.787619 0.0916626 0 0 -2.77371 -26.6077 -93.4221 -18.8325 0.03 323.125 
308 1 1 0.407091 0.509936 1.57537 0 0 0 1.76523 0.207878 0.223148 -0.854123 0.975513 10.6146 -9.01888 -77.7166 -6.71408 0.03 325.092 
279 1 1 0.517815 0.515912 1.57615 0 0 0 1.78986 0.232971 -0.229723 1.24532 1.44627 8.17574 -5.96107 -75.1587 11.0182 0.03 333.29 
178 1 1 0.636646 0.504975 1.57652 0 0 0 2.71728 0.0441854 0.198292 -14.9421 -2.8212 -12.0251 -2.74632 -44.6552 -1.86302 0.03 309.002 
116 1 1 0.845559 0.508827 1.57954 0 0 0 2.40921 -0.300026 0.107326 -0.328096 0.592718 -2.47775 12.3719 -48.6083 3.68371 0.03 355.833 
6 1 1 0.975525 0.50023 1.57685 0 0 0 2.50378 0.176533 -0.0104059 0.0579304 -0.0138967 0.70525 -5.90318 -50.0779 2.32303 0.03 335.098 
160 1 1 1.0764 0.505436 1.57677 0 0 0 2.65426 -0.177916 0.0189427 -0.903803 1.21468 -0.0547794 6.02112 -44.9524 -5.82702 0.03 362.908 
4 1 1 1.13686 0.490662 1.5766 0 0 0 2.51428 0.0275845 0.128574 -0.2384 0.859011 -1.46932 0.0559273 -49.1716 -14.2832 0.03 347.516 
117 1 1 1.28134 0.483792 1.57686 0 0 0 2.57597 -0.666009 -0.000319608 0.00109971 0.000515463 0.0370337 22.292 -47.6639 20.3761 0.03 356.26 
136 1 1 1.35528 0.502082 1.57674 0 0 0 2.90427 -0.200617 -0.00862002 -2.36303 2.90109 3.3222 -1.01807 4.11167 7.76131 0.03 341.253 
104 1 1 1.65094 0.509628 1.57685 0 0 0 2.8742 0.0157072 0.00249742 -0.00598703 0.000113566 0.0579513 -0.525904 -37.6912 -1.20053 0.03 363.277 
272 1 1 0.460888 0.548852 1.57686 0 0 0 1.8777 0.616292 0.00364874 1.24857 -0.318819 -0.196446 -8.10372 -21.9884 1.34204 0.03 326.118 
21 1 1 0.936329 0.544717 1.59168 0 0 0 2.4936 -0.187553 0.450698 0.733828 -0.349136 -1.94003 16.3703 -26.5164 -7.87332 0.03 342.942 
34 1 1 1.19424 0.518092 1.57699 0 0 0 2.92976 -0.344604 -0.00106565 0.443622 0.211028 -1.7912 3.81603 -19.5723 7.84562 0.03 339.962 
61 1 1 1.49485 0.53146 1.57614 0 0 0 2.71988 0.125221 0.00866178 -1.10959 2.02626 9.26599 -5.41914 -44.2577 -11.2561 0.03 364.708 
152 1 1 1.58661 0.525581 1.57687 0 0 0 2.90242 0.0548771 0.000725063 -0.00220895 0.000107309 -0.204392 -1.83618 -36.7262 -11.353 0.03 377.593 
238 1 1 0.199862 0.55207 1.57524 0 0 0 1.15478 -0.283951 0.0713009 12.4652 5.63595 35.1518 -6.33861 -66.4464 5.72478 0.03 308.109 
290 1 1 0.246168 0.579367 1.59828 0 0 0 1.17749 0.0193157 0.399 11.3294 6.28273 12.5263 34.0177 72.3977 15.3547 0.03 300.277 
182 1 1 0.301439 0.556874 1.57914 0 0 0 1.19721 0.770037 -0.216326 -45.4735 12.2056 -53.6029 -32.5845 -86.1881 19.7314 0.03 308.514 
304 1 1 0.54645 0.568348 1.57758 0 0 0 2.12148 0.00554723 0.0162613 1.89501 1.77757 -0.465758 -7.4224 -28.8768 -28.343 0.03 350.291 
249 1 1 0.606028 0.559576 1.57694 0 0 0 2.14736 0.0699193 0.00157299 0.466712 -0.540376 -1.34567 23.5473 -39.5663 20.4591 0.03 339.187 
226 1 1 0.7612 0.564789 1.57686 0 0 0 2.40572 0.286674 0.00829349 -0.119125 6.78644e-06 -0.29218 -9.59445 -53.4237 -7.20151 0.03 342.315 
119 1 1 0.821597 0.563704 1.57698 0 0 0 2.47327 -0.221564 0.0638724 -0.353008 -0.653525 -4.47877 7.45803 -51.2341 -6.46769 0.03 361.692 
48 1 1 0.881951 0.563657 1.57609 0 0 0 2.55509 0.00203431 0.199172 -1.04573 -0.51628 2.66313 -1.39901 -49.538 2.95257 0.03 343.812 
227 1 1 1.08663 0.56818 1.57724 0 0 0 2.77636 -0.0514617 -0.0457725 -0.00358922 -2.02177 -0.390608 2.84944 -47.8926 -10.1341 0.03 337.709 
147 1 1 1.15164 0.562554 1.57682 0 0 0 2.96355 -0.176675 -0.008366 -0.206111 0.313865 1.13658 5.43699 -35.0858 -28.0907 0.03 344.822 
17 1 1 1.26247 0.555465 1.57683 0 0 0 2.96817 -0.145033 -0.00555612 1.76262 -0.138273 0.762363 5.02504 -32.3825 -12.5276 0.03 341.781 
75 1 1 1.32754 0.554352 1.57652 0 0 0 2.91826 -0.101138 -0.0394885 -12.4001 8.18001 0.72195 8.89522 -24.8295 -7.08806 0.03 331.239 
16 1 1 1.38655 0.554716 1.57694 0 0 0 2.92342 0.0628288 -0.0544756 -3.86516 2.18883 -3.94062 2.7397 -30.3035 -1.66868 0.03 366.786 
118 1 1 1.44579 0.568804 1.57796 0 0 0 2.95126 -0.00667633 -0.0107563 0.296338 -0.826518 -0.406094 -0.509025 -40.7309 -8.83068 0.03 364.117 
89 1 1 1.03077 0.59016 1.59933 0 0 0 2.75404 -0.203237 -0.0387445 -0.405015 3.20278 -3.7863 4.9496 -37.9064 -21.3203 0.03 334.907 
65 1 1 1.20869 0.582843 1.59197 0 0 0 2.80034 -0.482493 -0.490102 -0.0424041 -1.38352 -0.240702 23.4023 -27.6588 -29.3476 0.03 320.629 
156 1 1 1.5802 0.586194 1.59534 0 0 0 3.00972 -0.20409 -0.189326 0.0386467 -0.889296 -1.12035 9.25302 -30.5505 -16.0798 0.03 359.12 
186 1 1 0.407236 0.143942 1.62482 0 0 0 2.11433 -0.139609 0.124852 0 0 -2.77371 8.86346 -53.92 46.3866 0.03 303.558 
97 1 1 0.578689 0.16112 1.60159 0 0 0 1.81417 0.2679 0.112887 -2.58675 -5.66427 -9.13581 -3.56329 -48.6649 56.1076 0.03 354.237 
137 1 1 0.761357 0.140996 1.62196 0 0 0 2.08077 0.321955 -0.325198 0.00948351 0.925198 -1.02005 -15.294 -32.9471 57.792 0.03 340.198 
76 1 1 1.07105 0.148364 1.61545 0 0 0 2.6369 0.192138 -0.0764545 -0.799678 -3.44237 3.68247 -0.861411 -18.8523 27.6917 0.03 328.936 
115 1 1 1.21458 0.160071 1.60583 0 0 0 2.51525 0.0725162 -0.0144936 0 0 -2.77371 5.98954 -41.5706 28.4198 0.03 337.45 
49 1 1 1.49536 0.150769 1.61184 0 0 0 3.04193 0.124807 -0.10843 -0.0941388 3.06559 1.08586 -6.09705 -14.3866 31.4416 0.03 314.957 
194 1 1 0.343856 0.168059 1.62698 0 0 0 1.46401 -0.6686 0.256125 0 0 -2.77371 -8.76043 62.0741 -20.2859 0.03 301.014 
252 1 1 0.697618 0.167513 1.60208 0 0 0 1.64846 -0.219658 -0.596114 37.0679 11.1159 17.5975 -1.17907 26.0898 -28.8183 0.03 300.681 
281 1 1 1.13361 0.165872 1.6149 0 0 0 2.57413 0.0151122 -0.359085 0.268779 0.588958 -2.95659 17.9129 -19.5083 18.2905 0.03 313.74 
315 1 1 0.22314 0.220262 1.61511 0 0 0 0.58867 -0.657515 -0.279771 -20.154 3.60764 11.633 19.3378 59.059 -21.8481 0.03 300.334 
349 1 1 0.436769 0.218364 1.63252 0 0 0 0.59462 -0.375103 -0.0508534 12.3494 -20.3128 -64.4574 -6.08891 34.9578 11.5892 0.03 300.398 
319 1 1 0.849807 0.224595 1.63453 0 0 0 1.83868 0.0898395 0.0477567 0 0 -2.77371 16.2882 29.2416 -11.006 0.03 301.155 
253 1 1 0.267224 0.260052 1.60395 0 0 0 1.18434 -0.770355 -0.715486 -14.2901 8.42256 -1.77414 47.5488 29.6495 -9.91813 0.03 300.132 
189 1 1 0.370645 0.235152 1.6324 0 0 0 2.00209 -0.524937 0.844025 0 0 -2.77371 -17.1872 74.7712 25.905 0.03 300.281 
322 1 1 1.01156 0.244087 1.62934 0 0 0 2.52329 0.00384129 -0.0502407 -4.61897 0.639921 -3.08865 -32.8116 27.2672 -18.8929 0.03 301.557 
44 1 1 1.4397 0.262318 1.61336 0 0 0 2.91314 0.149879 -0.0395574 0.468292 0.586946 0.149199 -0.78149 38.4026 2.21267 0.03 306.801 
240 1 1 0.513853 0.276135 1.61552 0 0 0 1.05246 0.149017 -0.175807 0 0 -2.77371 25.7889 2.87502 12.5205 0.03 300.585 
282 1 1 0.617949 0.289664 1.62828 0 0 0 1.74266 -0.158926 0.101658 -0.591833 2.85868 2.10861 -4.20305 16.1873 -0.69069 0.03 300.257 
211 1 1 0.35426 0.328814 1.63655 0 0 0 0.19749 0.787303 0.419233 -32.9872 -58.7736 -25.9938 -26.1019 1.7558 -17.3258 0.03 300.494 
212 1 1 0.556521 0.315536 1.63954 0 0 0 1.30114 -0.436331 0.581304 0 0 -2.77371 15.5103 40.9145 8.48812 0.03 301.332 
71 1 1 0.856858 0.337094 1.62186 0 0 0 2.06738 0.254286 -0.118478 0.111995 -0.195335 -2.91352 -5.43091 45.6913 13.6015 0.03 303.716 
191 1 1 0.130887 0.367569 1.61036 0 0 0 0.22501 -0.0482714 -1.57897 -0.876918 33.4133 52.6514 -23.454 -1.52052 -0.167857 0.03 300.012 
216 1 1 0.701922 0.373671 1.63011 0 0 0 2.03215 -0.0821257 -0.0851456 -1.74864 -1.25629 7.28606 -11.1715 30.7495 8.30461 0.03 300.36 
309 1 1 0.0781695 0.403975 1.6022 0 0 0 -0.744749 -0.248494 -0.794273 0 0 -2.77371 14.5939 31.0168 17.2761 0.03 300.422 
204 1 1 0.254369 0.403433 1.61304 0 0 0 0.748949 0.525177 0.592689 -11.8525 -13.7212 -18.2995 -29.0977 46.42 9.63149 0.03 301.026 
259 1 1 0.310468 0.386614 1.61672 0 0 0 0.930717 0.316053 -0.493664 9.19331 -3.94839 4.34084 6.60412 -4.46814 -19.6822 0.03 300.486 
250 1 1 0.400203 0.378043 1.63035 0 0 0 1.10309 0.0765758 0.461265 8.18312 10.2913 10.6481 -22.0073 -47.7223 23.0869 0.03 300.1 
334 1 1 0.597661 0.384898 1.6342 0 0 0 1.31613 -0.428495 0.371223 -0.292286 0.481553 -2.00156 13.5149 16.4205 -2.85451 0.03 300.887 
153 1 1 1.49036 0.383848 1.62776 0 0 0 2.88604 -0.118223 -0.0857947 0.263198 -0.597161 -0.865574 5.64114 34.0879 8.5969 0.03 306.201 
346 1 1 0.462745 0.418783 1.62174 0 0 0 1.20197 0.338705 0.395841 0.546217 0.349936 -0.0530833 -17.7883 12.8115 -6.0405 0.03 301.464 
274 1 1 0.659004 0.41368 1.6251 0 0 0 1.47392 -0.36914 0.427415 1.09033 -3.55979 0.299546 -15.4017 18.8989 3.9045 0.03 300.593 
254 1 1 0.781512 0.428831 1.61435 0 0 0 2.00098 0.186588 -0.0599623 1.83588 0.646876 5.16328 6.66942 44.5752 17.2261 0.03 301.231 
261 1 1 0.123259 0.472371 1.63192 0 0 0 -0.475071 -0.0758622 0.0390795 0.11386 0.514717 -2.99469 -19.5198 39.1772 5.27956 0.03 300.448 
269 1 1 0.296942 0.48225 1.62414 0 0 0 0.582183 1.15924 0.405715 0 0 -2.77371 -30.1748 10.2808 6.89459 0.03 300.101 
262 1 1 0.653211 0.472089 1.62428 0 0 0 1.78727 -0.1923 0.588991 -5.86559 17.0939 -5.05755 9.45314 12.0353 -14.9839 0.03 300.229 
296 1 1 1.0835 0.469992 1.6244 0 0 0 2.15469 -0.429586 -0.0952416 0.760466 -1.28735 -1.90152 5.02486 30.1669 0.593181 0.03 302.337 
190 1 1 0.415503 0.482769 1.62619 0 0 0 0.722682 -0.24668 0.533773 1.16384 -5.20782 11.1586 24.0963 32.4188 12.3844 0.03 301.777 
263 1 1 0.535039 0.49215 1.62685 0 0 0 1.4941 0.199547 -0.10078 5.06129 -8.91412 20.9586 13.2989 55.6475 5.1017 0.03 302.077 
20 1 1 1.51061 0.499673 1.62355 0 0 0 2.42502 -0.0442744 0.0320205 1.90432 -3.89063 6.47363 11.4261 33.8691 8.29963 0.03 303.369 
208 1 1 0.335649 0.553726 1.62572 0 0 0 0.365031 0.888779 -0.0958914 22.2442 -36.7456 53.856 27.4494 63.1887 3.60714 0.03 300.216 
198 1 1 0.595976 0.517582 1.62207 0 0 0 1.80073 0.00789012 -0.377126 0 0 -2.77371 23.7673 -3.12022 0.974208 0.03 300.065 
28 1 1 0.655586 0.545807 1.61472 0 0 0 2.22855 0.173102 0.40532 -17.3092 -20.732 -19.3768 1.57341 27.5179 1.25856 0.03 303.027 
265 1 1 0.73981 0.51679 1.61216 0 0 0 1.52612 -0.0826404 -0.670802 0 0 -2.77371 -0.459893 2.90817 -10.1667 0.03 301.477 
239 1 1 0.874576 0.543788 1.63146 0 0 0 1.76301 0.0347428 0.324671 0.398628 -0.624959 -0.193738 -1.17648 22.5617 -2.68013 0.03 301.11 
102 1 1 0.979016 0.539048 1.63315 0 0 0 2.37727 -0.208122 0.646908 0.209377 -0.0703069 -2.69764 -12.4086 18.2237 11.0862 0.03 302.37 
106 1 1 1.03501 0.531477 1.61136 0 0 0 2.12468 -0.456754 -0.349309 0.115959 0.000455899 -2.89325 9.53929 15.1552 4.42183 0.03 304.177 
150 1 1 1.12134 0.525168 1.62272 0 0 0 1.89287 0.0716843 -0.00279681 0.157402 0.600992 -2.16057 -3.00107 25.2936 18.8689 0.03 302.164 
98 1 1 1.41954 0.521869 1.61299 0 0 0 2.87342 0.0481743 -0.149668 20.9764 -5.20958 9.84863 -4.54138 39.4419 -3.24498 0.03 302.701 
243 1 1 0.818499 0.588317 1.63185 0 0 0 1.72454 0.29849 -0.0443015 0 0 -2.77371 -24.1556 8.28961 -32.9294 0.03 301.533 
2 1 1 1.53188 0.557481 1.6162 0 0 0 2.88799 0.0236497 -0.122606 0.0854489 0.026178 -2.76971 3.79466 43.7108 1.86155 0.03 319.417 
303 1 1 0.189447 0.602779 1.61143 0 0 0 0.494611 0.0137963 -0.144993 7.87033 -12.4736 7.45974 10.918 -52.7834 -58.496 0.03 323.287 
237 1 1 0.368157 0.601525 1.61634 0 0 0 1.45396 0.293405 0.223371 24.2531 13.3626 -7.39966 -15.2133 -64.2485 -51.6436 0.03 310.467 
55 1 1 0.591981 0.602303 1.61714 0 0 0 2.17702 0.119812 0.042182 0 0 -2.77371 -6.17875 -11.98 -70.6155 0.03 310.509 
276 1 1 0.653224 0.605333 1.61466 0 0 0 1.96948 0.435217 -0.304985 6.18064 -10.7417 17.892 -13.0624 -66.9576 -22.504 0.03 305.605 
52 1 1 0.762088 0.618244 1.62781 0 0 0 1.53589 0.0886896 -0.595909 0 0 -2.77371 -7.49989 37.4352 43.85 0.03 301.807 
154 1 1 0.888297 0.604511 1.61918 0 0 0 2.20399 -0.00631401 0.280964 -0.773864 1.36217 -1.18937 -5.08436 -29.2476 -53.2774 0.03 329.397 
57 1 1 0.965678 0.600702 1.60976 0 0 0 2.50405 0.0938939 0.0742017 1.25507 -1.71816 1.11338 -6.0689 -24.9694 -43.8703 0.03 338.932 
138 1 1 1.16049 0.60814 1.61737 0 0 0 2.78556 -0.500362 -0.499811 0.582224 -0.717449 -1.47252 9.82691 -15.5821 -14.321 0.03 319.858 
99 1 1 1.33726 0.605699 1.6154 0 0 0 2.10215 0.0813948 -0.40266 0 0 -2.77371 -19.5823 -41.1356 -42.3874 0.03 342.722 
79 1 1 1.48911 0.59962 1.60887 0 0 0 2.84542 0.0814489 0.0599935 -0.0753394 -0.632989 -0.883762 -4.74872 -29.0348 -25.6005 0.03 340.339 
332 1 1 0.226423 0.11165 1.65129 0 0 0 0.376736 0.0706225 -0.0719076 0.94511 1.17715 -1.09723 18.1298 -48.7424 41.2776 0.03 312.455 
62 1 1 0.551104 0.114916 1.64794 0 0 0 1.4615 -0.134213 0.272745 -0.54988 -0.432332 -4.49561 9.22642 -66.7252 53.9034 0.03 319.639 
74 1 1 0.850252 0.118506 1.64433 0 0 0 2.36613 0.157406 -0.16007 1.34358 1.65524 0.223531 6.00337 -24.8471 25.5387 0.03 310.349 
333 1 1 0.908557 0.106591 1.65672 0 0 0 2.39866 0.133123 -0.327433 0 0 -2.77371 -11.1522 -13.1742 22.2699 0.03 312.045 
196 1 1 0.604861 0.147484 1.65409 0 0 0 1.12834 -0.232986 0.63823 0 0 -2.77371 13.8558 3.88542 -30.9185 0.03 300.834 
139 1 1 0.957098 0.135726 1.6331 0 0 0 2.34214 0.316687 -0.371387 0 0 -2.77371 -8.6322 -43.2141 27.7517 0.03 339.133 
336 1 1 0.159826 0.233112 1.64271 0 0 0 -0.528357 0.128029 -1.26517 0 0 -2.77371 -2.79867 -65.3093 3.50271 0.03 300.002 
353 1 1 0.272566 0.203823 1.64151 0 0 0 0.433328 -0.48908 -0.28586 33.1902 -9.7711 18.9942 -11.9778 -51.6262 26.9391 0.03 300.007 
231 1 1 0.523354 0.218662 1.63686 0 0 0 1.17317 0.140649 -0.124436 0 0 -2.77371 -13.4588 21.1892 -13.881 0.03 301.658 
183 1 1 0.654755 0.209284 1.64338 0 0 0 1.29218 -0.23729 -0.215737 0 0 -2.77371 -38.9012 59.4425 28.5604 0.03 300.739 
330 1 1 0.599052 0.232297 1.62907 0 0 0 1.47916 -0.130393 -0.761834 0 0 -2.77371 4.98355 -4.73283 11.338 0.03 300.019 
207 1 1 0.222552 0.283666 1.63552 0 0 0 -0.171361 0.010528 -2.20422 11.8579 -6.5396 -4.06499 -22.4047 -34.2552 -4.13284 0.03 300.001 
275 1 1 0.31531 0.284744 1.64728 0 0 0 -0.0465764 0.604817 -0.901357 -0.0718945 -0.0639484 -2.70341 -9.78698 -34.3067 12.6531 0.03 300.003 
347 1 1 0.407228 0.286523 1.63671 0 0 0 -0.302538 -0.0772944 -0.070525 0 0 -2.77371 -5.66142 45.1156 -9.80361 0.03 301.344 
341 1 1 0.750375 0.284598 1.66281 0 0 0 1.88537 -0.733283 -0.579534 0 0 -2.77371 10.6458 -38.4114 -11.8413 0.03 300.011 
273 1 1 0.459847 0.327629 1.64667 0 0 0 0.769712 0.0110949 -1.02619 -0.0428655 -0.325828 -3.11682 1.18244 8.15555 -0.746996 0.03 300.01 
242 1 1 0.621217 0.340045 1.66782 0 0 0 1.87333 0.168429 0.153257 0 0 -2.77371 4.36421 7.56475 8.36016 0.03 300.012 
181 1 1 0.891251 0.303285 1.65933 0 0 0 2.14345 -0.0141148 -0.39871 0 0 -2.77371 -16.6147 8.67511 12.2755 0.03 300.768 
222 1 1 0.186183 0.3418 1.63351 0 0 0 0.159767 -0.429658 -2.04837 0 0 -2.77371 17.8118 -19.6754 3.71059 0.03 300.003 
199 1 1 0.267656 0.344416 1.64991 0 0 0 0.652427 0.541542 -0.152764 6.30339 7.60668 20.7321 0.270518 -64.75 0.276519 0.03 300.018 
184 1 1 0.51354 0.364514 1.64199 0 0 0 0.81915 -0.0860683 -0.761422 0 0 -2.77371 -42.3266 -14.8933 7.93808 0.03 300.007 
306 1 1 0.205513 0.403139 1.64383 0 0 0 -0.302789 -0.0368242 -0.886678 -18.4216 2.75092 32.7846 19.6377 -43.6085 31.3861 0.03 300.01 
235 1 1 0.280858 0.433629 1.65554 0 0 0 0.812357 0.652513 -0.480234 -37.3158 -32.9759 -152.416 16.832 2.11494 15.804 0.03 300.012 
318 1 1 0.402499 0.435492 1.66228 0 0 0 0.809507 0.389742 -0.247172 -5.73537 -0.983504 -3.7819 10.3039 -22.1005 -22.7298 0.03 300.048 
295 1 1 0.553953 0.425985 1.64165 0 0 0 1.38474 -0.0649335 -0.328757 0 0 -2.77371 8.42625 -45.5961 -20.4347 0.03 300.05 
210 1 1 0.182104 0.484317 1.6311 0 0 0 -0.199724 -0.193165 -1.36763 0 0 -2.77371 25.3519 11.6942 -11.3635 0.03 300.332 
325 1 1 0.709009 0.48645 1.65824 0 0 0 1.67563 -0.500053 -0.617716 0 0 -2.77371 20.4992 -3.58033 -40.6405 0.03 300.021 
335 1 1 0.780132 0.495749 1.65585 0 0 0 1.86229 0.512367 -0.263231 0 0 -2.77371 -13.4698 -8.38252 33.3711 0.03 300.288 
310 1 1 0.176658 0.542651 1.64964 0 0 0 -0.41121 -0.133052 0.199263 0 0 -2.77371 13.6084 41.0633 17.9269 0.03 300.265 
188 1 1 0.253208 0.535938 1.65158 0 0 0 -0.0887599 0.33903 -1.93756 0 0 -2.77371 18.3518 -8.18258 2.78947 0.03 300 
220 1 1 0.471212 0.531957 1.64482 0 0 0 1.61127 0.00370351 0.0320003 0 0 -2.77371 -9.77805 -42.6815 -16.4542 0.03 300.091 
271 1 1 0.404733 0.554497 1.6536 0 0 0 0.89446 -0.441353 0.632248 0 0 -2.77371 -17.2864 86.8188 37.9992 0.03 300.959 
201 1 1 0.517211 0.579448 1.64824 0 0 0 1.46884 0.584386 0.162407 0 0 -2.77371 -22.9122 10.4143 7.43529 0.03 300.857 
329 1 1 0.612647 0.575356 1.66993 0 0 0 1.95357 0.185676 0.346885 0 0 -2.77371 -4.10171 29.6649 19.5676 0.03 300.159 
224 1 1 0.704915 0.559769 1.6434 0 0 0 2.12616 0.347228 -0.487107 17.2645 28.4313 18.7714 6.69852 -2.73311 24.9189 0.03 301.839 
27 1 1 1.26465 0.584981 1.63769 0 0 0 2.56638 -0.253745 0.165085 0 0 -2.77371 -24.6587 -28.4302 -20.1132 0.03 333.774 
301 1 1 0.240019 0.632978 1.64501 0 0 0 0.929025 0.0335808 0.0388193 0 0 -2.77371 7.79778 -18.5119 -73.7824 0.03 308.258 
326 1 1 0.526029 0.650128 1.6593 0 0 0 1.04463 -0.025253 -0.0254836 0.00108709 -0.994148 -0.983274 1.20085 -116.099 -23.6709 0.03 342.696 
72 1 1 0.704951 0.638974 1.64815 0 0 0 1.54939 -0.0155322 -0.0154895 -4.09355e-05 -1.00464 -0.974638 0.735258 -46.8155 -69.0873 0.03 343.548 
305 1 1 0.542111 0.0825906 1.69807 0 0 0 0.878724 -0.756213 -0.0276464 0 0 -2.77371 0.20648 14.4811 0.459482 0.03 300.549 
283 1 1 0.328748 0.0910971 1.67193 0 0 0 0.947967 -0.065191 0.0523638 0.751625 1.00717 -1.63994 12.7869 -8.89202 16.5556 0.03 306.551 
219 1 1 0.452725 0.242512 1.68273 0 0 0 1.02411 -0.252361 -0.523732 26.6439 -2.7744 -61.7981 -1.99367 -37.4934 -22.9851 0.03 300.031 