ITEM: TIMESTEP
63000
ITEM: NUMBER OF ATOMS
353
ITEM: BOX BOUNDS ff ff ff
0 3.3
-0.3 0.8
-0.5 3
ITEM: ATOMS id type type x y z ix iy iz vx vy vz fx fy fz omegax omegay omegaz radius f_Temp[0] 
15 1 1 0.410113 0.166306 1.59595 0 0 0 1.59763 -0.115175 0.181795 -0.808601 5.87126 2.6115 0.108129 -53.4276 26.2625 0.03 313.351 
120 1 1 0.462696 0.185622 1.57676 0 0 0 1.74849 -0.0202009 0.198966 8.80835 0.737088 3.8717 14.9555 -58.1972 -8.38497 0.03 332.83 
173 1 1 0.515514 0.168678 1.59652 0 0 0 1.80143 -0.241635 0.841873 -3.26055 -2.32792 0.611131 38.1014 17.3415 33.3956 0.03 306.201 
47 1 1 0.862564 0.19202 1.57686 0 0 0 1.9957 0.221526 -0.0207136 0.0962515 -0.0106066 0.894473 -7.4109 -67.0512 11.4394 0.03 334.06 
67 1 1 0.949073 0.18698 1.57684 0 0 0 2.31243 0.0417288 0.0468683 2.26618 -5.3165 0.879915 -0.946544 -54.958 12.1356 0.03 328.282 
45 1 1 1.09179 0.18826 1.57694 0 0 0 2.94451 -0.376443 -0.0267279 1.21906 0.459852 -0.167903 -1.56511 2.22548 -10.5806 0.03 322.148 
114 1 1 0.134236 0.196317 1.595 0 0 0 0.967523 -0.739519 0.448191 0 0 -2.77371 24.9816 -102.424 0.782658 0.03 303.811 
58 1 1 0.322468 0.214266 1.57717 0 0 0 1.07907 -0.629656 0.0452017 6.26283 -10.4062 3.01412 23.6084 -97.4787 1.75402 0.03 324.812 
108 1 1 0.618104 0.198984 1.57684 0 0 0 2.54489 -0.110698 0.0253279 7.57266 1.99294 -1.56322 -5.39946 -48.1305 14.3629 0.03 351.131 
112 1 1 0.714392 0.222024 1.57577 0 0 0 2.30997 0.212867 -0.216964 0.340029 -3.43801 18.5587 -7.59647 -58.835 -18.2931 0.03 334.651 
60 1 1 0.794127 0.218715 1.57685 0 0 0 2.2437 -0.107021 0.0114181 -0.0440857 -0.00319791 -0.249004 3.58458 -58.8139 18.0912 0.03 321.889 
8 1 1 1.143 0.221717 1.5791 0 0 0 2.91384 -0.193525 -0.0196824 0 0 -2.77371 1.64211 -33.8465 13.8064 0.03 322.735 
12 1 1 0.16202 0.259575 1.58099 0 0 0 1.01013 -0.607438 -0.0747216 0 0 -2.77371 20.2884 -100.538 1.67766 0.03 303.403 
13 1 1 0.439516 0.240899 1.57689 0 0 0 1.39277 -0.328983 -0.0170506 -6.89288 3.07672 -16.2209 8.65381 -73.8916 31.8534 0.03 341.937 
41 1 1 0.603376 0.256612 1.57826 0 0 0 2.30025 -0.0829137 0.0189781 2.51797 -0.158123 -1.31587 23.4402 -32.4329 -10.4471 0.03 331.493 
86 1 1 0.860636 0.254545 1.57686 0 0 0 2.12876 -0.211951 -4.94197e-06 1.99692e-05 2.26186e-06 2.77452e-05 7.09397 -62.6302 -4.85357 0.03 342.606 
142 1 1 0.919946 0.239045 1.57681 0 0 0 2.15514 -0.132767 -0.023103 -0.727592 1.70578 -0.633673 5.85171 -61.0367 -9.44926 0.03 339.265 
91 1 1 0.30158 0.2698 1.57624 0 0 0 1.33986 -0.637882 -0.107378 6.09425 12.4486 16.4879 18.3791 -59.7907 -3.30632 0.03 305.261 
125 1 1 0.487619 0.2773 1.5797 0 0 0 1.20746 0.296119 -1.10068 -0.234958 4.04355 1.54093 1.66715 37.5011 -1.43724 0.03 300.561 
144 1 1 0.562632 0.299932 1.57654 0 0 0 1.98338 -0.309018 -0.335202 11.2566 -8.39639 17.103 22.8817 -48.4888 24.553 0.03 303.974 
59 1 1 0.742404 0.274346 1.58018 0 0 0 2.29631 0.169444 -0.106937 2.58647 5.89515 1.01517 -9.82043 -55.6249 14.9707 0.03 318.783 
23 1 1 0.958889 0.294328 1.57686 0 0 0 2.25991 -0.337733 -0.000152299 0.000497617 9.65847e-05 -0.0172704 11.3035 -58.2385 -13.9588 0.03 338.598 
96 1 1 1.02032 0.296097 1.57686 0 0 0 2.28399 -0.348931 -1.21373e-05 5.73555e-05 1.1644e-05 0.00318745 11.6787 -57.435 -1.07283 0.03 325.786 
3 1 1 0.117332 0.323847 1.57624 0 0 0 0.353935 -0.58162 0.118442 -1.02617 1.03859 2.71297 19.6425 -124.215 -20.4617 0.03 319.328 
11 1 1 0.249127 0.319401 1.57598 0 0 0 1.15825 -0.301191 -0.581346 32.2781 1.66022 60.7764 9.4818 -79.4203 6.46283 0.03 305.661 
94 1 1 0.345766 0.336418 1.59006 0 0 0 0.106483 -0.212729 -1.12901 0 0 -2.77371 -34.0873 28.2868 23.8672 0.03 300.854 
64 1 1 0.431269 0.323327 1.58012 0 0 0 0.942776 -0.36224 -0.715402 -11.5472 -0.570393 -14.8047 2.84052 -38.9214 -9.47322 0.03 335.595 
124 1 1 0.636348 0.317483 1.57782 0 0 0 2.06672 0.144322 0.0969898 0 0 -2.77371 -5.03653 -64.8417 -6.93565 0.03 332.305 
14 1 1 1.23438 0.331144 1.57686 0 0 0 2.42075 0.0677053 1.58889e-10 -5.38848e-10 2.30939e-11 -1.4039e-11 -2.26609 -52.8573 -2.54476 0.03 340.958 
29 1 1 0.741598 0.353252 1.57688 0 0 0 2.47527 0.106178 -0.000604125 0.0291098 -0.00324409 -0.192492 -3.54507 -50.9483 3.04612 0.03 318.059 
81 1 1 0.802058 0.342439 1.57685 0 0 0 2.47942 -0.003189 -0.00972449 0.0291827 0.000321114 0.689183 0.106524 -50.9161 -13.9831 0.03 312.227 
82 1 1 1.0782 0.342255 1.57686 0 0 0 1.8063 -0.148108 3.16761e-09 -1.44264e-08 -9.74017e-10 9.76052e-08 4.95715 -73.423 2.87889 0.03 334.058 
101 1 1 0.316677 0.396558 1.57623 0 0 0 1.39339 0.213724 0.137926 3.14442 -4.87044 3.93363 -5.7266 -88.4614 -3.6482 0.03 327.795 
50 1 1 0.493835 0.403464 1.57686 0 0 0 1.53102 0.00164266 -0.000935986 0.0307709 0.0151341 0.0179626 -0.0782306 -82.5932 0.104714 0.03 319.65 
143 1 1 0.582407 0.377314 1.57611 0 0 0 2.2075 -0.0631686 0.0640326 -2.5339 2.10423 15.9421 -0.883165 -64.8484 -4.57157 0.03 322.479 
122 1 1 0.63876 0.398454 1.57666 0 0 0 2.00738 0.0776332 -0.013507 -0.255009 -0.451802 2.30562 -4.44184 -65.8195 -2.3068 0.03 335.446 
133 1 1 1.01479 0.376974 1.57827 0 0 0 2.34342 -0.515286 0.0725917 0 0 -2.77371 17.2994 -55.3358 -4.06179 0.03 307.266 
160 1 1 0.161042 0.436482 1.57489 0 0 0 1.26607 0.125501 0.132705 -10.5971 3.65471 21.9283 -7.15067 -98.5762 12.9632 0.03 308.078 
135 1 1 0.245796 0.423734 1.57473 0 0 0 1.87703 -0.186712 0.31303 -10.7463 0.0374689 36.3088 8.72533 -78.0964 -18.7536 0.03 316.006 
69 1 1 0.388287 0.442822 1.57631 0 0 0 0.763872 0.233201 0.134711 -3.92404 -7.59106 8.08232 -37.5363 -74.7065 29.6696 0.03 335.469 
167 1 1 0.749388 0.42181 1.57655 0 0 0 2.0269 0.105538 0.0385527 -1.20637 -0.228049 4.0471 -19.4763 -54.7147 12.606 0.03 309.916 
32 1 1 0.981092 0.443524 1.57654 0 0 0 2.30318 -0.0376146 0.0949788 1.26541 0.342856 1.17312 -6.97764 -43.8031 4.93481 0.03 328.35 
174 1 1 1.17164 0.408964 1.57686 0 0 0 2.54452 -0.112838 3.34242e-09 -1.10101e-08 -9.02271e-10 -2.00614e-07 3.77668 -48.7148 2.83466 0.03 335.102 
169 1 1 0.282335 0.478938 1.57521 0 0 0 1.83033 0.553065 -0.213467 16.2949 -11.6478 53.1107 -21.4002 -79.2658 2.64674 0.03 306.579 
104 1 1 0.436997 0.475516 1.57998 0 0 0 0.992867 0.388192 -0.140904 7.60224 -24.7557 -14.8427 -7.46263 67.0593 -32.5072 0.03 300.882 
131 1 1 0.561404 0.454045 1.57735 0 0 0 2.00315 0.218116 -0.0793708 0 0 -2.77371 -6.85279 -66.4168 -12.5802 0.03 312.208 
145 1 1 0.615062 0.479049 1.58984 0 0 0 2.10114 0.154556 -0.105164 0 0 -2.77371 -6.64873 61.105 5.72272 0.03 302.375 
30 1 1 0.667418 0.450474 1.58028 0 0 0 2.07216 0.0911932 -0.0770497 1.15473 2.858 -0.966354 -0.56334 -61.6775 -8.70693 0.03 345.657 
10 1 1 0.783957 0.4702 1.57666 0 0 0 2.10424 0.111602 0.0155809 -3.46827 -11.2245 -9.51938 -46.4754 -34.7812 -14.4381 0.03 342.312 
54 1 1 0.849823 0.457441 1.57687 0 0 0 2.24376 -0.282556 -0.0262089 0.421716 -0.822568 1.055 8.82391 -58.9449 -8.02237 0.03 330.656 
36 1 1 0.921615 0.453261 1.57678 0 0 0 2.22179 0.0988056 0.0261873 1.3504 0.622297 0.200062 -10.6428 -43.6936 -1.38527 0.03 324.146 
163 1 1 0.519233 0.51554 1.5781 0 0 0 1.83965 0.0791375 0.139567 3.30709 -2.64666 -2.13737 -7.84403 -71.1995 -12.3825 0.03 325.271 
39 1 1 0.715506 0.498092 1.57701 0 0 0 1.87221 -0.214512 0.00217046 0.0107356 0.102613 -2.18656 7.13302 -71.0009 7.79468 0.03 322.512 
162 1 1 0.82265 0.514767 1.57864 0 0 0 2.05154 0.0167486 0.0350572 -9.91427 -14.8835 -18.5319 0.426964 -27.6927 12.1 0.03 327.124 
66 1 1 0.882025 0.516196 1.57712 0 0 0 2.20494 0.088701 -0.0508048 -6.19047 0.65995 -6.68979 -1.63085 -38.3722 -8.37448 0.03 317.468 
168 1 1 0.941032 0.512887 1.58125 0 0 0 2.25792 0.19944 0.111687 8.24461 -0.590156 2.10505 -11.3093 -49.179 9.19319 0.03 316.421 
100 1 1 1.01558 0.492333 1.57685 0 0 0 2.06935 0.165871 0.0403088 0.502273 0.293039 -1.74786 -27.1704 -55.2136 2.25508 0.03 336.468 
140 1 1 1.09494 0.488205 1.57911 0 0 0 2.5221 0.0244311 0.0263848 0 0 -2.77371 -0.823016 -49.4141 0.805906 0.03 307.374 
16 1 1 0.276642 0.541093 1.57701 0 0 0 1.48247 0.299177 0.314037 -1.39717 1.02233 -13.4176 -10.4993 -84.8544 8.70801 0.03 317.843 
61 1 1 0.364999 0.523134 1.58081 0 0 0 1.88788 0.256248 0.0666114 5.27444 -10.6666 0.947494 -6.25066 -68.9258 17.4252 0.03 317.324 
42 1 1 0.44416 0.533211 1.57736 0 0 0 2.13537 0.361723 0.0665643 6.20132 -6.46431 12.8697 20.4163 -66.4492 -1.58596 0.03 317.185 
63 1 1 0.610201 0.53795 1.57665 0 0 0 1.5874 0.258315 0.0330225 -1.75562 0.683759 -1.76013 -8.72573 -81.2742 14.3053 0.03 341.206 
103 1 1 0.772004 0.545316 1.57656 0 0 0 1.99196 -0.104856 -0.0185387 -5.27369 4.90323 1.24408 9.37833 -59.8641 -29.4479 0.03 341.416 
113 1 1 1.03537 0.548726 1.57881 0 0 0 2.08334 0.174212 0.0675726 0.355871 1.0375 -2.17961 -8.01537 -64.5106 -6.6092 0.03 338.471 
118 1 1 0.334701 0.57381 1.58997 0 0 0 1.34595 -0.345827 -0.585236 -5.27444 10.6666 -6.49492 11.6435 -98.2127 -24.8981 0.03 314.243 
152 1 1 0.422472 0.585232 1.59233 0 0 0 1.36877 0.0886174 -0.37574 7.65587 -33.2456 18.9044 21.1606 -97.4609 -18.8892 0.03 320.374 
121 1 1 0.526745 0.574207 1.58279 0 0 0 2.00672 0.118947 0.231968 13.3473 -0.750747 -9.85139 -8.71047 -89.0997 -5.67202 0.03 330.232 
109 1 1 0.712459 0.566525 1.57687 0 0 0 2.07818 0.00440314 -0.000110303 0.0327945 -0.0137963 -0.20415 -0.128323 -64.2549 -12.2852 0.03 329.714 
172 1 1 0.829701 0.582794 1.59189 0 0 0 1.8443 -0.345111 -0.34196 -0.016116 -1.76187 -0.559477 16.6788 -62.183 -39.9883 0.03 329.092 
158 1 1 0.643753 0.588179 1.59736 0 0 0 2.10008 0.0151434 0.0558982 -0.136048 -0.224649 -2.04923 -1.78555 -30.0081 -59.8947 0.03 318.921 
87 1 1 0.652711 0.145758 1.61719 0 0 0 1.90683 0.129653 -0.123392 0.42746 0.700853 -0.984358 -1.91443 -25.4195 70.492 0.03 316.337 
139 1 1 0.229073 0.161235 1.60628 0 0 0 1.15493 -0.187329 0.327529 0 0 -2.77371 16.9969 -120.046 14.9727 0.03 309.31 
1 1 1 0.571835 0.180467 1.60907 0 0 0 2.32081 -0.254078 -0.366439 1.11647 -0.853541 -1.6984 22.9664 39.4395 -19.0296 0.03 300.639 
80 1 1 0.744467 0.192394 1.61616 0 0 0 1.44899 -0.462682 0.0416473 12.482 -9.05048 22.5867 9.67281 46.4037 -18.2265 0.03 300.481 
85 1 1 1.0075 0.162146 1.60076 0 0 0 2.48208 0.0678861 -0.0553584 -0.0229462 1.16392 -1.14043 -3.10925 -56.7918 15.0957 0.03 312.203 
51 1 1 0.219497 0.223684 1.60593 0 0 0 0.712321 -0.0469656 -1.55165 0 0 -2.77371 -34.0144 -4.89005 -13.0232 0.03 300.297 
161 1 1 0.444198 0.211514 1.62834 0 0 0 0.777782 -0.128255 0.209643 -27.1129 -12.1751 -11.4593 -20.1416 46.1816 -5.91751 0.03 300.592 
19 1 1 0.393423 0.299325 1.63094 0 0 0 0.30896 -0.0558624 0.093539 -27.1342 -60.8019 -22.5742 -4.79869 23.2494 -18.5433 0.03 301.827 
155 1 1 0.646653 0.288595 1.6312 0 0 0 1.46598 -0.126656 0.363954 0 0 -2.77371 13.581 39.4484 8.32238 0.03 300.777 
71 1 1 0.288251 0.316724 1.62046 0 0 0 0.333156 -0.214551 0.427403 0.630373 -0.337271 -0.453752 -13.7339 23.99 -9.5536 0.03 300.073 
170 1 1 0.485044 0.333353 1.6004 0 0 0 1.25614 0.399975 -0.617586 11.7821 -3.47316 4.94267 -29.4175 16.6966 19.4791 0.03 300.156 
56 1 1 0.576659 0.336905 1.6208 0 0 0 1.04879 -0.167025 -0.102865 3.31254 -2.46926 -0.801609 -11.4764 2.09602 7.40449 0.03 300.149 
132 1 1 0.122421 0.353587 1.62756 0 0 0 -0.798425 -0.0472844 -0.0707216 -0.248738 0.445462 2.79981 -38.6741 83.2664 25.7726 0.03 300.656 
77 1 1 0.219927 0.372087 1.60839 0 0 0 0.0144917 -0.129601 -0.433242 0 0 -2.77371 -13.3093 27.7887 -3.74347 0.03 300.533 
126 1 1 0.407337 0.406166 1.62362 0 0 0 0.750288 -0.0922808 0.533125 0 0 -2.77371 59.5411 37.4985 -11.1541 0.03 300.534 
21 1 1 0.182933 0.423612 1.62636 0 0 0 0.368469 0.345765 1.09221 18.3092 -9.0932 37.8169 5.72754 58.2923 6.67699 0.03 300.087 
4 1 1 0.310709 0.443395 1.61212 0 0 0 0.754504 0.0509131 0.408344 9.44811 -7.39149 13.4479 23.7575 13.7971 -14.814 0.03 300.704 
154 1 1 0.253851 0.449113 1.6266 0 0 0 0.660592 0.37281 0.620149 -5.27681 11.4033 26.2713 -29.8668 20.622 -4.53755 0.03 300.315 
26 1 1 0.488797 0.47505 1.6091 0 0 0 1.25365 0.118635 -0.231583 -3.11003 -4.35803 -1.88981 23.9785 -56.9183 21.1159 0.03 300.364 
151 1 1 0.703506 0.465013 1.62563 0 0 0 1.87415 -0.0403896 0.155614 0.997303 0.866957 -2.0941 -11.1568 54.6018 2.10064 0.03 301.28 
34 1 1 0.171212 0.494506 1.6009 0 0 0 0.442153 0.503413 -1.04921 0 0 -2.77371 -17.5031 25.8617 -10.029 0.03 300.142 
89 1 1 0.287714 0.516716 1.63097 0 0 0 0.31122 0.205194 0.952255 0 0 -2.77371 14.5723 31.3388 7.7784 0.03 300.325 
9 1 1 0.651096 0.525064 1.61777 0 0 0 1.70691 0.655869 0.108522 2.48491 -0.119371 -0.976167 -7.34152 85.0913 -10.3747 0.03 302.409 
117 1 1 0.230962 0.561919 1.62402 0 0 0 0.203312 0.35629 -0.424569 0 0 -2.77371 4.94795 49.665 5.82006 0.03 300.275 
78 1 1 0.445924 0.106798 1.66347 0 0 0 1.77059 0.197137 -0.254087 0 0 -2.77371 12.1616 19.5301 53.2764 0.03 303.359 
49 1 1 0.333752 0.118617 1.66883 0 0 0 0.382364 -1.1436 -0.137978 0 0 -2.77371 -15.9012 0.620236 -20.6393 0.03 300.803 
76 1 1 0.307009 0.191976 1.65697 0 0 0 0.29725 -0.679417 0.141551 0 0 -2.77371 -1.47514 74.0488 -21.5692 0.03 300.948 
88 1 1 0.661562 0.204451 1.64849 0 0 0 1.47204 0.127753 -0.237615 0 0 -2.77371 19.8362 33.9437 -35.3702 0.03 300.395 
97 1 1 0.180705 0.241057 1.65402 0 0 0 -0.450402 0.551642 -1.53743 0 0 -2.77371 16.0957 -25.9986 13.5707 0.03 300.002 
115 1 1 0.341153 0.255762 1.62902 0 0 0 0.251131 0.0809628 -1.60467 24.6248 10.8127 -104.61 18.4466 -25.3781 6.65557 0.03 300.027 
146 1 1 0.498298 0.234411 1.62495 0 0 0 0.561127 -0.509673 -1.13974 23.6745 -1.68649 -22.6235 19.4035 -38.7625 -7.93138 0.03 300.005 
44 1 1 0.490204 0.290016 1.64485 0 0 0 0.0913203 -0.995827 -1.72111 6.30321 12.1419 30.5612 -1.22089 7.25754 6.25517 0.03 300 
7 1 1 0.576367 0.274415 1.63499 0 0 0 1.18822 0.239201 -0.264518 0 0 -2.77371 -0.770134 -9.70807 -2.35881 0.03 300.508 
46 1 1 0.728931 0.268152 1.66307 0 0 0 1.53927 -0.134464 0.297494 0 0 -2.77371 -5.12514 35.8324 -23.9419 0.03 300.627 
35 1 1 0.358997 0.358355 1.65287 0 0 0 0.457434 0.476273 -1.76417 -2.386 -7.46487 9.13532 32.3065 -17.526 6.16208 0.03 300.009 
141 1 1 0.422229 0.347822 1.64752 0 0 0 0.591947 -1.47548 -0.44613 27.1342 60.8019 17.0268 -5.29085 -26.5415 -13.4372 0.03 300.004 
24 1 1 0.525507 0.362291 1.63648 0 0 0 0.681367 -0.242744 -0.844863 -4.71303 6.14047 2.1305 44.6978 -45.9285 -14.6451 0.03 300.019 
159 1 1 0.709707 0.359221 1.64824 0 0 0 1.6598 0.148172 -0.0348889 0 0 -2.77371 2.22869 18.5057 10.8169 0.03 300.116 
28 1 1 0.237268 0.397314 1.6611 0 0 0 0.849093 -0.238161 -0.321532 -1.74441 25.0025 -17.2689 38.8141 -4.28197 -11.9582 0.03 300.004 
38 1 1 0.297763 0.392121 1.65326 0 0 0 -0.132679 -0.37264 -0.877925 0 0 -2.77371 7.36575 -3.14204 0.223117 0.03 300.004 
92 1 1 0.780669 0.393551 1.64539 0 0 0 1.70407 0.394769 -0.223295 0 0 -2.77371 -22.3033 38.9848 -1.88911 0.03 300.416 
111 1 1 0.480052 0.423842 1.64209 0 0 0 0.127571 0.00643831 -1.64002 0 0 -2.77371 4.44662 -5.30969 3.81362 0.03 300 
20 1 1 0.558721 0.430007 1.63967 0 0 0 1.49831 0.358899 0.343955 0 0 -2.77371 -2.72081 44.157 3.87531 0.03 300.802 
106 1 1 0.381723 0.467299 1.66616 0 0 0 0.232361 0.096212 -0.449074 0 0 -2.77371 38.7933 -37.7383 6.24673 0.03 300.002 
119 1 1 0.103829 0.480168 1.63819 0 0 0 -0.674415 -0.0675471 -1.56247 0 0 -2.77371 -3.49978 -29.1939 -2.51378 0.03 300.001 
93 1 1 0.226107 0.497252 1.64792 0 0 0 -0.11968 1.15926 -1.37385 0.0877001 -3.74686 -4.36914 -43.4648 -46.4515 27.9466 0.03 300.002 
149 1 1 0.5894 0.503099 1.6422 0 0 0 1.64033 -0.132123 0.0216629 0 0 -2.77371 44.1506 -70.8568 -8.67668 0.03 300.061 
130 1 1 0.672417 0.497753 1.66612 0 0 0 1.77355 0.220652 -0.0461068 0.910132 -1.1092 -0.169529 15.1457 -73.4688 -8.63704 0.03 300.048 
75 1 1 0.477058 0.543012 1.64047 0 0 0 0.831301 0.473217 -1.03767 0 0 -2.77371 34.822 -74.0599 -10.0305 0.03 300.04 
105 1 1 0.540955 0.551645 1.63653 0 0 0 1.55618 0.245483 0.0480826 -13.2965 1.26323 6.01344 -5.31637 34.7067 -10.6724 0.03 301.727 
157 1 1 0.830138 0.53721 1.63206 0 0 0 1.95485 -0.156875 -0.184271 25.7415 23.732 31.7416 -5.74854 71.9349 14.091 0.03 300.62 
27 1 1 0.379624 0.578921 1.6713 0 0 0 0.371035 1.30921 0.363568 0 0 -2.77371 8.71052 30.4286 -7.66759 0.03 300.212 
83 1 1 0.759825 0.566062 1.64756 0 0 0 1.74324 0.50685 -0.438609 0 0 -2.77371 5.00779 82.3266 13.0114 0.03 300.323 
79 1 1 0.453568 0.61851 1.64473 0 0 0 0.953153 0.515408 0.303683 0 0 -2.77371 -11.7148 28.4163 -2.61837 0.03 301.175 
18 1 1 0.578799 0.596316 1.66376 0 0 0 1.49248 0.641758 -0.110984 0 0 -2.77371 -4.75258 -17.7165 17.9742 0.03 300.41 
165 1 1 0.52427 0.0904734 1.68576 0 0 0 2.05854 -0.226803 0.675544 0 0 -2.77371 27.2418 -26.0046 66.2142 0.03 303.532 
137 1 1 0.232399 0.121253 1.6894 0 0 0 -0.146109 -0.9081 0.325328 0 0 -2.77371 4.66535 -5.21465 6.06554 0.03 300.041 
90 1 1 0.102204 0.238351 1.67551 0 0 0 0 0 -2.87935 0 0 -2.77371 0 0 0 0.03 300 
74 1 1 0.248328 0.247523 1.65506 0 0 0 0 0 -2.94822 0 0 -2.77371 0 0 0 0.03 300 
5 1 1 0.163393 0.311989 1.66143 0 0 0 0.1796 -0.396158 -2.59276 0 0 -2.77371 15.6781 -4.88413 -13.0631 0.03 300 
127 1 1 0.411617 0.317829 1.70299 0 0 0 0.581748 0.351499 0.548591 -22.4768 12.4385 -17.8071 6.49457 -20.7038 1.515 0.03 300.025 
33 1 1 0.0845363 0.370433 1.67195 0 0 0 -0.396921 0.104109 -0.0292062 0 0 -2.77371 -4.41185 -108.345 1.24037 0.03 300.006 
175 1 1 0.230848 0.33898 1.66656 0 0 0 0.0404491 -0.162781 -2.73774 1.74441 -25.0025 11.7214 12.315 -1.80465 -4.57904 0.03 300 
166 1 1 0.163915 0.37803 1.66874 0 0 0 0.27581 0.315657 -0.828179 0 0 -2.77371 47.7497 -25.3524 15.4805 0.03 300.004 
134 1 1 0.434297 0.501231 1.6721 0 0 0 -0.537572 -0.448323 -2.02663 0 0 -2.77371 0.38381 14.6258 8.05632 0.03 300 
129 1 1 0.167774 0.565243 1.6644 0 0 0 -0.375689 0.557265 -0.832325 0 0 -2.77371 -29.0929 -58.6029 2.438 0.03 300.003 
57 1 1 0.297431 0.605768 1.70637 0 0 0 0.357956 0.421489 0.516963 0 0 -2.77371 -37.0233 53.9428 43.6927 0.03 300.178 
99 1 1 0.406117 0.637215 1.6789 0 0 0 0.73177 0.965448 -0.00851899 0 0 -2.77371 13.1788 19.5211 -12.5242 0.03 300.34 
2 1 1 0.509288 0.684647 1.70396 0 0 0 1.39855 -0.230107 -0.0771091 0 0 -2.77371 -0.362886 -98.9603 -24.45 0.03 303.348 
156 1 1 0.583889 0.672262 1.68142 0 0 0 1.3923 -0.0195908 -0.0241302 0.0206398 -1.20473 -0.787735 1.07527 -64.9046 -58.4535 0.03 310.532 
62 1 1 0.328743 0.252306 1.68425 0 0 0 -0.329305 -0.29771 -1.9313 -24.6248 -10.8127 99.0627 -19.4372 10.5964 -3.46531 0.03 300 
43 1 1 0.46066 0.284905 1.70731 0 0 0 0.0817847 -0.0295474 -2.63332 22.4768 -12.4385 12.2596 5.9497 8.66222 -1.69965 0.03 300 
95 1 1 0.346286 0.324711 1.70034 0 0 0 -0.124282 -0.572519 -1.90146 2.386 7.46487 -14.6827 -2.84601 -4.26159 -2.83609 0.03 300 
128 1 1 0.355123 0.421294 1.70878 0 0 0 0 0 -2.76369 0 0 -2.77371 0 0 0 0.03 300 
37 1 1 0.41824 0.41741 1.68832 0 0 0 0 0 -2.8354 0 0 -2.77371 0 0 0 0.03 300 
17 1 1 0.345254 0.512161 1.68888 0 0 0 0 0 -2.83344 0 0 -2.77371 0 0 0 0.03 300 
25 1 1 0.278223 0.363632 1.74817 0 0 0 0 0 -2.62017 0 0 -2.77371 0 0 0 0.03 300 
116 1 1 0.152794 0.405213 1.73044 0 0 0 0 0 -2.6857 0 0 -2.77371 0 0 0 0.03 300 
138 1 1 0.301221 0.470777 1.74074 0 0 0 0 0 -2.64783 0 0 -2.77371 0 0 0 0.03 300 
40 1 1 0.408343 0.240904 1.77097 0 0 0 0 0 -2.53335 0 0 -2.77371 0 0 0 0.03 300 
68 1 1 0.400811 0.324654 1.78085 0 0 0 0 0 -2.4948 0 0 -2.77371 0 0 0 0.03 300 
123 1 1 0.48159 0.360101 1.75479 0 0 0 0 0 -2.59525 0 0 -2.77371 0 0 0 0.03 300 
98 1 1 0.491139 0.43458 1.7656 0 0 0 0 0 -2.55405 0 0 -2.77371 0 0 0 0.03 300 
72 1 1 0.10161 0.511094 1.77446 0 0 0 0 0 -2.51981 0 0 -2.77371 0 0 0 0.03 300 
31 1 1 0.221691 0.336081 1.82354 0 0 0 0 0 -2.32087 0 0 -2.77371 0 0 0 0.03 300 
84 1 1 0.227036 0.399722 1.80049 0 0 0 0 0 -2.41632 0 0 -2.77371 0 0 0 0.03 300 
55 1 1 0.200976 0.455034 1.78971 0 0 0 0 0 -2.45968 0 0 -2.77371 0 0 0 0.03 300 
136 1 1 0.374023 0.456818 1.824 0 0 0 0 0 -2.31891 0 0 -2.77371 0 0 0 0.03 300 
48 1 1 0.17066 0.517967 1.80886 0 0 0 0 0 -2.38208 0 0 -2.77371 0 0 0 0.03 300 
22 1 1 0.254767 0.230824 1.84293 0 0 0 0 0 -2.23738 0 0 -2.77371 0 0 0 0.03 300 
73 1 1 0.170916 0.265084 1.85079 0 0 0 0 0 -2.20266 0 0 -2.77371 0 0 0 0.03 300 
171 1 1 0.477654 0.251099 1.8415 0 0 0 0 0 -2.24366 0 0 -2.77371 0 0 0 0.03 300 
110 1 1 0.10205 0.273683 1.84876 0 0 0 0 0 -2.21168 0 0 -2.77371 0 0 0 0.03 300 
148 1 1 0.12082 0.460146 1.84087 0 0 0 0 0 -2.24641 0 0 -2.77371 0 0 0 0.03 300 
65 1 1 0.421483 0.499457 1.84643 0 0 0 0 0 -2.22198 0 0 -2.77371 0 0 0 0.03 300 
150 1 1 0.481625 0.503918 1.85668 0 0 0 0 0 -2.17627 0 0 -2.77371 0 0 0 0.03 300 
164 1 1 0.244978 0.28843 1.88609 0 0 0 0 0 -2.03942 0 0 -2.77371 0 0 0 0.03 300 
107 1 1 0.303471 0.271065 1.86209 0 0 0 0 0 -2.15174 0 0 -2.77371 0 0 0 0.03 300 
70 1 1 0.142707 0.355749 1.87323 0 0 0 0 0 -2.10034 0 0 -2.77371 0 0 0 0.03 300 
53 1 1 0.294932 0.364362 1.88373 0 0 0 0 0 -2.0507 0 0 -2.77371 0 0 0 0.03 300 
102 1 1 0.419044 0.351535 1.89571 0 0 0 0 0 -1.99262 0 0 -2.77371 0 0 0 0.03 300 
176 1 1 0.349719 0.399621 1.8946 0 0 0 0 0 -1.99802 0 0 -2.77371 0 0 0 0.03 300 
153 1 1 0.496538 0.392613 1.87882 0 0 0 0 0 -2.07405 0 0 -2.77371 0 0 0 0.03 300 
6 1 1 0.317689 0.454971 1.88863 0 0 0 0 0 -2.02716 0 0 -2.77371 0 0 0 0.03 300 
52 1 1 0.358392 0.516981 1.89707 0 0 0 0 0 -1.98586 0 0 -2.77371 0 0 0 0.03 300 
333 1 1 0.346739 0.243699 1.9341 0 0 0 0 0 -1.79368 0 0 -2.77371 0 0 0 0.03 300 
281 1 1 0.411814 0.252027 1.91154 0 0 0 0 0 -1.91307 0 0 -2.77371 0 0 0 0.03 300 
225 1 1 0.490773 0.317233 1.92347 0 0 0 0 0 -1.85087 0 0 -2.77371 0 0 0 0.03 300 
326 1 1 0.187055 0.479944 1.90257 0 0 0 0 0 -1.95849 0 0 -2.77371 0 0 0 0.03 300 
147 1 1 0.248507 0.49546 1.89753 0 0 0 0 0 -1.9836 0 0 -2.77371 0 0 0 0.03 300 
339 1 1 0.110214 0.298119 1.96106 0 0 0 0 0 -1.63956 0 0 -2.77371 0 0 0 0.03 300 
181 1 1 0.375154 0.318829 1.9657 0 0 0 0 0 -1.6116 0 0 -2.77371 0 0 0 0.03 300 
289 1 1 0.101436 0.395361 1.93631 0 0 0 0 0 -1.78151 0 0 -2.77371 0 0 0 0.03 300 
307 1 1 0.30626 0.26717 1.99586 0 0 0 0 0 -1.41609 0 0 -2.77371 0 0 0 0.03 300 
300 1 1 0.170925 0.32143 1.99708 0 0 0 0 0 -1.40765 0 0 -2.77371 0 0 0 0.03 300 
180 1 1 0.296048 0.338714 1.99458 0 0 0 0 0 -1.42502 0 0 -2.77371 0 0 0 0.03 300 
190 1 1 0.226585 0.401613 1.98947 0 0 0 0 0 -1.45975 0 0 -2.77371 0 0 0 0.03 300 
296 1 1 0.486808 0.439095 1.98262 0 0 0 0 0 -1.50507 0 0 -2.77371 0 0 0 0.03 300 
249 1 1 0.173789 0.449512 2.00565 0 0 0 0 0 -1.34664 0 0 -2.77371 0 0 0 0.03 300 
227 1 1 0.405439 0.458732 1.98335 0 0 0 0 0 -1.50036 0 0 -2.77371 0 0 0 0.03 300 
304 1 1 0.124838 0.500222 1.97312 0 0 0 0 0 -1.56579 0 0 -2.77371 0 0 0 0.03 300 
243 1 1 0.453661 0.506792 1.97257 0 0 0 0 0 -1.56923 0 0 -2.77371 0 0 0 0.03 300 
288 1 1 0.209802 0.229296 2.02701 0 0 0 0 0 -1.18085 0 0 -2.77371 0 0 0 0.03 300 
213 1 1 0.125891 0.243147 2.03458 0 0 0 0 0 -1.1161 0 0 -2.77371 0 0 0 0.03 300 
221 1 1 0.425449 0.24778 2.02026 0 0 0 0 0 -1.23559 0 0 -2.77371 0 0 0 0.03 300 
322 1 1 0.49924 0.247443 2.03509 0 0 0 0 0 -1.11169 0 0 -2.77371 0 0 0 0.03 300 
257 1 1 0.107883 0.30308 2.04461 0 0 0 0 0 -1.02418 0 0 -2.77371 0 0 0 0.03 300 
230 1 1 0.257855 0.281878 2.04398 0 0 0 0 0 -1.03026 0 0 -2.77371 0 0 0 0.03 300 
340 1 1 0.235778 0.333975 2.01713 0 0 0 0 0 -1.26021 0 0 -2.77371 0 0 0 0.03 300 
187 1 1 0.476873 0.306542 2.01952 0 0 0 0 0 -1.24147 0 0 -2.77371 0 0 0 0.03 300 
268 1 1 0.442536 0.376191 2.01543 0 0 0 0 0 -1.27336 0 0 -2.77371 0 0 0 0.03 300 
291 1 1 0.499679 0.383275 2.03706 0 0 0 0 0 -1.09413 0 0 -2.77371 0 0 0 0.03 300 
246 1 1 0.107302 0.455042 2.04 0 0 0 0 0 -1.06744 0 0 -2.77371 0 0 0 0.03 300 
226 1 1 0.253931 0.465065 2.04149 0 0 0 0 0 -1.05371 0 0 -2.77371 0 0 0 0.03 300 
301 1 1 0.196268 0.514676 2.01338 0 0 0 0 0 -1.28905 0 0 -2.77371 0 0 0 0.03 300 
276 1 1 0.289349 0.515799 2.021 0 0 0 0 0 -1.2297 0 0 -2.77371 0 0 0 0.03 300 
224 1 1 0.391331 0.524514 2.04266 0 0 0 0 0 -1.04262 0 0 -2.77371 0 0 0 0.03 300 
196 1 1 0.358915 0.233995 2.05735 0 0 0 -0 -0 -1 0 0 0 0 0 0 0.03 300 
209 1 1 0.352404 0.322469 2.07158 0 0 0 -0 -0 -1 0 0 0 0 0 0 0.03 300 
313 1 1 0.439938 0.327558 2.0783 0 0 0 -0 -0 -1 0 0 0 0 0 0 0.03 300 
245 1 1 0.160535 0.375989 2.05766 0 0 0 -0 -0 -1 0 0 0 0 0 0 0.03 300 
254 1 1 0.380252 0.376413 2.06303 0 0 0 -0 -0 -1 0 0 0 0 0 0 0.03 300 
270 1 1 0.207615 0.426676 2.06897 0 0 0 -0 -0 -1 0 0 0 0 0 0 0.03 300 
178 1 1 0.318639 0.427051 2.04674 0 0 0 0 0 -1.00358 0 0 -2.77371 0 0 0 0.03 300 
352 1 1 0.377854 0.441153 2.05506 0 0 0 -0 -0 -1 0 0 0 0 0 0 0.03 300 
265 1 1 0.446064 0.454668 2.0543 0 0 0 -0 -0 -1 0 0 0 0 0 0 0.03 300 
279 1 1 0.157212 0.495968 2.07757 0 0 0 -0 -0 -1 0 0 0 0 0 0 0.03 300 
317 1 1 0.252263 0.228507 2.0889 0 0 0 -0 -0 -1 0 0 0 0 0 0 0.03 300 
305 1 1 0.346674 0.257421 2.1122 0 0 0 -0 -0 -1 0 0 0 0 0 0 0.03 300 
252 1 1 0.442785 0.262265 2.09054 0 0 0 -0 -0 -1 0 0 0 0 0 0 0.03 300 
248 1 1 0.155073 0.291265 2.08256 0 0 0 -0 -0 -1 0 0 0 0 0 0 0.03 300 
193 1 1 0.281872 0.329623 2.10076 0 0 0 -0 -0 -1 0 0 0 0 0 0 0.03 300 
204 1 1 0.215487 0.347963 2.08667 0 0 0 -0 -0 -1 0 0 0 0 0 0 0.03 300 
346 1 1 0.2812 0.398881 2.08476 0 0 0 -0 -0 -1 0 0 0 0 0 0 0.03 300 
335 1 1 0.429091 0.407041 2.08734 0 0 0 -0 -0 -1 0 0 0 0 0 0 0.03 300 
272 1 1 0.116473 0.427779 2.10318 0 0 0 -0 -0 -1 0 0 0 0 0 0 0.03 300 
237 1 1 0.207046 0.471117 2.11263 0 0 0 -0 -0 -1 0 0 0 0 0 0 0.03 300 
262 1 1 0.417911 0.469013 2.1121 0 0 0 -0 -0 -1 0 0 0 0 0 0 0.03 300 
239 1 1 0.490736 0.457949 2.09796 0 0 0 -0 -0 -1 0 0 0 0 0 0 0.03 300 
263 1 1 0.269308 0.500141 2.11382 0 0 0 -0 -0 -1 0 0 0 0 0 0 0.03 300 
201 1 1 0.360389 0.493184 2.0974 0 0 0 -0 -0 -1 0 0 0 0 0 0 0.03 300 
217 1 1 0.461801 0.523439 2.087 0 0 0 -0 -0 -1 0 0 0 0 0 0 0.03 300 
351 1 1 0.181906 0.258163 2.12663 0 0 0 -0 -0 -1 0 0 0 0 0 0 0.03 300 
332 1 1 0.233113 0.233231 2.14729 0 0 0 -0 -0 -1 0 0 0 0 0 0 0.03 300 
319 1 1 0.490886 0.237209 2.1335 0 0 0 -0 -0 -1 0 0 0 0 0 0 0.03 300 
206 1 1 0.126939 0.284236 2.14405 0 0 0 -0 -0 -1 0 0 0 0 0 0 0.03 300 
194 1 1 0.257372 0.298287 2.14748 0 0 0 -0 -0 -1 0 0 0 0 0 0 0.03 300 
231 1 1 0.39189 0.276895 2.14772 0 0 0 -0 -0 -1 0 0 0 0 0 0 0.03 300 
347 1 1 0.332014 0.322805 2.14638 0 0 0 -0 -0 -1 0 0 0 0 0 0 0.03 300 
233 1 1 0.496558 0.3336 2.11785 0 0 0 -0 -0 -1 0 0 0 0 0 0 0.03 300 
298 1 1 0.133415 0.358363 2.1302 0 0 0 -0 -0 -1 0 0 0 0 0 0 0.03 300 
341 1 1 0.462863 0.403415 2.13862 0 0 0 -0 -0 -1 0 0 0 0 0 0 0.03 300 
208 1 1 0.292126 0.417938 2.14843 0 0 0 -0 -0 -1 0 0 0 0 0 0 0.03 300 
334 1 1 0.38649 0.410383 2.13433 0 0 0 -0 -0 -1 0 0 0 0 0 0 0.03 300 
303 1 1 0.114998 0.510423 2.12123 0 0 0 -0 -0 -1 0 0 0 0 0 0 0.03 300 
283 1 1 0.300071 0.232043 2.15541 0 0 0 -0 -0 -1 0 0 0 0 0 0 0.03 300 
338 1 1 0.455834 0.299724 2.15811 0 0 0 -0 -0 -1 0 0 0 0 0 0 0.03 300 
197 1 1 0.187467 0.323213 2.16686 0 0 0 -0 -0 -1 0 0 0 0 0 0 0.03 300 
331 1 1 0.280682 0.358343 2.159 0 0 0 -0 -0 -1 0 0 0 0 0 0 0.03 300 
295 1 1 0.361284 0.371846 2.1754 0 0 0 -0 -0 -1 0 0 0 0 0 0 0.03 300 
216 1 1 0.415188 0.353574 2.15582 0 0 0 -0 -0 -1 0 0 0 0 0 0 0.03 300 
285 1 1 0.200673 0.388027 2.16116 0 0 0 -0 -0 -1 0 0 0 0 0 0 0.03 300 
308 1 1 0.14362 0.411827 2.17042 0 0 0 -0 -0 -1 0 0 0 0 0 0 0.03 300 
220 1 1 0.335967 0.444883 2.18458 0 0 0 -0 -0 -1 0 0 0 0 0 0 0.03 300 
255 1 1 0.114307 0.478097 2.17805 0 0 0 -0 -0 -1 0 0 0 0 0 0 0.03 300 
271 1 1 0.316171 0.515613 2.16673 0 0 0 -0 -0 -1 0 0 0 0 0 0 0.03 300 
325 1 1 0.454753 0.482086 2.1602 0 0 0 -0 -0 -1 0 0 0 0 0 0 0.03 300 
185 1 1 0.176568 0.243013 2.18859 0 0 0 -0 -0 -1 0 0 0 0 0 0 0.03 300 
186 1 1 0.259533 0.258075 2.20734 0 0 0 -0 -0 -1 0 0 0 0 0 0 0.03 300 
183 1 1 0.442411 0.236129 2.19849 0 0 0 -0 -0 -1 0 0 0 0 0 0 0.03 300 
240 1 1 0.373873 0.277789 2.20961 0 0 0 -0 -0 -1 0 0 0 0 0 0 0.03 300 
250 1 1 0.309313 0.331656 2.20448 0 0 0 -0 -0 -1 0 0 0 0 0 0 0.03 300 
316 1 1 0.11734 0.353945 2.20534 0 0 0 -0 -0 -1 0 0 0 0 0 0 0.03 300 
198 1 1 0.400177 0.437787 2.1876 0 0 0 -0 -0 -1 0 0 0 0 0 0 0.03 300 
274 1 1 0.492828 0.422942 2.21588 0 0 0 -0 -0 -1 0 0 0 0 0 0 0.03 300 
182 1 1 0.244578 0.471314 2.19452 0 0 0 -0 -0 -1 0 0 0 0 0 0 0.03 300 
238 1 1 0.178751 0.5056 2.1901 0 0 0 -0 -0 -1 0 0 0 0 0 0 0.03 300 
258 1 1 0.122106 0.287147 2.23085 0 0 0 -0 -0 -1 0 0 0 0 0 0 0.03 300 
284 1 1 0.192412 0.289106 2.22388 0 0 0 -0 -0 -1 0 0 0 0 0 0 0.03 300 
253 1 1 0.245744 0.294067 2.2546 0 0 0 -0 -0 -1 0 0 0 0 0 0 0.03 300 
282 1 1 0.474016 0.292718 2.22895 0 0 0 -0 -0 -1 0 0 0 0 0 0 0.03 300 
212 1 1 0.417494 0.317622 2.23353 0 0 0 -0 -0 -1 0 0 0 0 0 0 0.03 300 
259 1 1 0.22228 0.356059 2.22403 0 0 0 -0 -0 -1 0 0 0 0 0 0 0.03 300 
309 1 1 0.164495 0.407825 2.23668 0 0 0 -0 -0 -1 0 0 0 0 0 0 0.03 300 
277 1 1 0.255485 0.407729 2.22471 0 0 0 -0 -0 -1 0 0 0 0 0 0 0.03 300 
234 1 1 0.396246 0.377563 2.24259 0 0 0 -0 -0 -1 0 0 0 0 0 0 0.03 300 
318 1 1 0.359003 0.427078 2.24033 0 0 0 -0 -0 -1 0 0 0 0 0 0 0.03 300 
184 1 1 0.446465 0.410676 2.25321 0 0 0 -0 -0 -1 0 0 0 0 0 0 0.03 300 
261 1 1 0.177868 0.470844 2.24335 0 0 0 -0 -0 -1 0 0 0 0 0 0 0.03 300 
192 1 1 0.365388 0.511304 2.22856 0 0 0 -0 -0 -1 0 0 0 0 0 0 0.03 300 
290 1 1 0.276688 0.526521 2.23397 0 0 0 -0 -0 -1 0 0 0 0 0 0 0.03 300 
329 1 1 0.429505 0.520312 2.2395 0 0 0 -0 -0 -1 0 0 0 0 0 0 0.03 300 
343 1 1 0.15665 0.233052 2.26364 0 0 0 -0 -0 -1 0 0 0 0 0 0 0.03 300 
315 1 1 0.216797 0.232457 2.28158 0 0 0 -0 -0 -1 0 0 0 0 0 0 0.03 300 
189 1 1 0.296506 0.266561 2.27407 0 0 0 -0 -0 -1 0 0 0 0 0 0 0.03 300 
349 1 1 0.365686 0.235664 2.26936 0 0 0 -0 -0 -1 0 0 0 0 0 0 0.03 300 
330 1 1 0.462592 0.233737 2.27699 0 0 0 -0 -0 -1 0 0 0 0 0 0 0.03 300 
202 1 1 0.125386 0.2781 2.2909 0 0 0 -0 -0 -1 0 0 0 0 0 0 0.03 300 
324 1 1 0.115625 0.334079 2.27008 0 0 0 -0 -0 -1 0 0 0 0 0 0 0.03 300 
211 1 1 0.342022 0.308301 2.26941 0 0 0 -0 -0 -1 0 0 0 0 0 0 0.03 300 
344 1 1 0.280536 0.422033 2.27742 0 0 0 -0 -0 -1 0 0 0 0 0 0 0.03 300 
269 1 1 0.324092 0.465876 2.28568 0 0 0 -0 -0 -1 0 0 0 0 0 0 0.03 300 
287 1 1 0.403036 0.471118 2.28135 0 0 0 -0 -0 -1 0 0 0 0 0 0 0.03 300 
266 1 1 0.482717 0.469458 2.27953 0 0 0 -0 -0 -1 0 0 0 0 0 0 0.03 300 
223 1 1 0.10548 0.49309 2.26007 0 0 0 -0 -0 -1 0 0 0 0 0 0 0.03 300 
210 1 1 0.236464 0.494005 2.27819 0 0 0 -0 -0 -1 0 0 0 0 0 0 0.03 300 