ITEM: TIMESTEP
61000
ITEM: NUMBER OF ATOMS
353
ITEM: BOX BOUNDS ff ff ff
0 3.3
-0.3 0.8
-0.5 3
ITEM: ATOMS id type type x y z ix iy iz vx vy vz fx fy fz omegax omegay omegaz radius f_Temp[0] 
139 1 1 0.205971 0.164959 1.59775 0 0 0 1.16044 -0.152071 0.547183 -1.40058 -8.11696 -7.34692 17.6899 -120.37 15.2963 0.03 309.152 
15 1 1 0.370471 0.169945 1.59302 0 0 0 2.18107 -0.192585 0.175164 -0.227349 0.816344 -0.389958 9.79632 -72.404 13.6623 0.03 309.838 
120 1 1 0.428229 0.19174 1.58141 0 0 0 1.61985 -0.527888 -1.12044 1.96296 -24.4964 -53.3706 -7.983 -73.3646 -4.65455 0.03 324.836 
173 1 1 0.484777 0.170152 1.58969 0 0 0 1.45385 0.225752 0.215409 29.7349 40.3139 41.362 1.40516 -21.1674 82.9231 0.03 302.637 
47 1 1 0.8227 0.18758 1.5765 0 0 0 1.97695 0.225329 0.0519177 0.973096 -0.201179 5.1677 -7.09646 -65.5009 11.4394 0.03 331.763 
67 1 1 0.90197 0.185423 1.57751 0 0 0 2.39434 0.0585457 -0.0493567 -0.0351834 0.990512 -1.20676 -2.62838 -65.0693 10.9659 0.03 325.015 
114 1 1 0.114885 0.211108 1.58408 0 0 0 0.967523 -0.739519 0.644391 0 0 -2.77371 24.9816 -102.424 0.782658 0.03 303.811 
58 1 1 0.302094 0.224914 1.57658 0 0 0 1.01441 -0.54952 -0.166489 -1.14504 8.93105 15.2346 16.5909 -100.216 4.45405 0.03 322.207 
108 1 1 0.575278 0.19819 1.57688 0 0 0 1.64426 0.138053 -0.00701601 0.0344558 -0.0020308 -0.0612899 -4.61749 -78.7939 26.9546 0.03 348.363 
112 1 1 0.669671 0.219414 1.57691 0 0 0 2.20966 0.0859975 0.0186948 0.349549 0.721818 -1.58177 -6.13886 -58.3355 -25.3628 0.03 331.988 
60 1 1 0.749263 0.220857 1.5771 0 0 0 2.2419 -0.106908 -0.00715811 -0.0297294 -0.0167419 -2.61316 3.59402 -58.6646 18.0912 0.03 319.47 
45 1 1 1.03342 0.196001 1.57638 0 0 0 2.84058 -0.418339 -0.024869 2.30174 0.383698 9.91935 -3.94614 9.34732 -10.755 0.03 319.452 
8 1 1 1.08467 0.22555 1.57759 0 0 0 2.91482 -0.19031 0.157396 4.97556 2.31945 0.0594705 2.45339 -35.2204 13.6319 0.03 322.741 
13 1 1 0.412711 0.250338 1.57766 0 0 0 1.04645 -0.605475 -0.51527 8.50922 3.03586 -3.08693 3.00512 -41.4146 24.9004 0.03 338.104 
41 1 1 0.558476 0.25803 1.57999 0 0 0 2.2818 -0.137984 -0.0574014 1.06434 1.21418 0.164743 0.0815023 -51.1835 -1.39303 0.03 331.525 
86 1 1 0.818061 0.258784 1.57686 0 0 0 2.12876 -0.21195 -4.48518e-06 2.54572e-05 2.88348e-06 0.00173805 7.09398 -62.6304 -4.85357 0.03 340.125 
142 1 1 0.876723 0.242032 1.57686 0 0 0 2.16152 -0.150636 -8.08423e-07 3.71321e-06 3.04258e-07 0.000124283 5.04179 -61.5337 -9.75487 0.03 336.744 
12 1 1 0.141817 0.271724 1.58052 0 0 0 1.01013 -0.607438 0.121478 0 0 -2.77371 20.2884 -100.538 1.67766 0.03 303.403 
91 1 1 0.277101 0.283585 1.5777 0 0 0 1.13126 -0.554895 0.291337 0 0 -2.77371 15.7413 -54.6397 5.10463 0.03 304.458 
59 1 1 0.697189 0.272524 1.58137 0 0 0 2.25445 0.0784101 0.0286679 -0.0780836 -0.152161 -2.70359 -5.92114 -57.7434 15.4613 0.03 318.734 
3 1 1 0.11133 0.334497 1.57801 0 0 0 0.26643 -0.424911 0.0543162 0 0 -2.77371 14.2733 -125.067 -15.4039 0.03 317.378 
11 1 1 0.226313 0.324872 1.5765 0 0 0 1.19834 -0.339188 0.324316 2.38008 6.76549 0.532505 -5.90582 -98.5601 13.2484 0.03 305.092 
64 1 1 0.401948 0.330755 1.57879 0 0 0 1.54452 -0.3763 0.28795 0 0 -2.77371 11.9655 -82.0458 -17.2892 0.03 335.747 
144 1 1 0.521467 0.309285 1.57509 0 0 0 2.05247 -0.552386 0.0621458 28.9092 -9.32151 57.976 21.904 -57.6352 23.2157 0.03 301.716 
124 1 1 0.594558 0.315028 1.57635 0 0 0 2.10288 0.0900806 -0.278337 6.80968 -4.54951 -7.6126 0.642744 -60.05 -7.05771 0.03 328.95 
23 1 1 0.91369 0.301083 1.57686 0 0 0 2.25994 -0.337727 -0.00151618 0.00607579 0.00117945 0.0915047 11.304 -58.2411 -13.9588 0.03 336.071 
96 1 1 0.974638 0.303076 1.57686 0 0 0 2.28399 -0.34893 0.000224694 -0.000822856 -0.000169407 -0.00227145 11.6788 -57.4354 -1.07283 0.03 323.144 
14 1 1 1.18596 0.32979 1.57686 0 0 0 2.42075 0.0677053 2.09685e-10 -9.19284e-10 3.94269e-11 -5.7696e-08 -2.26609 -52.8573 -2.54476 0.03 338.462 
29 1 1 0.692127 0.351125 1.57687 0 0 0 2.44245 0.109864 -0.0159006 1.67544 -0.188259 0.598257 -3.23929 -48.2263 3.04612 0.03 315.273 
81 1 1 0.75248 0.342503 1.57666 0 0 0 2.48703 -0.00334325 0.0410453 -1.13161 0.0301095 1.81947 0.093767 -51.5457 -13.9831 0.03 309.617 
82 1 1 1.04208 0.345217 1.57686 0 0 0 1.8063 -0.148108 1.15967e-08 -6.14129e-08 -4.14629e-09 -1.35556e-06 4.95715 -73.423 2.87889 0.03 331.495 
101 1 1 0.292677 0.387798 1.57687 0 0 0 1.09149 0.565016 0.00953218 -0.0625015 0.0122158 -0.624555 -18.9072 -97.3277 13.21 0.03 324.33 
50 1 1 0.463218 0.403433 1.57684 0 0 0 1.51259 -0.00933763 9.80955e-05 1.32754 0.7814 0.307156 -0.989228 -81.0644 0.104714 0.03 316.939 
143 1 1 0.540907 0.377608 1.57907 0 0 0 2.02991 -0.035884 0.0594704 0 0 -2.77371 -1.41334 -55.3689 -5.99938 0.03 321.268 
122 1 1 0.598073 0.395944 1.57694 0 0 0 2.0397 0.139268 -0.0140037 0.429354 0.120908 -0.698714 -4.59683 -65.4524 -2.44375 0.03 332.653 
133 1 1 0.967806 0.387273 1.5761 0 0 0 2.15287 -0.451934 -0.462471 25.1736 -8.19802 50.176 22.4444 -39.8916 -4.06179 0.03 304.511 
160 1 1 0.144896 0.436129 1.59212 0 0 0 0.817347 -0.448703 -0.583795 -21.3389 16.0451 -73.2665 -31.6859 -68.2878 4.7492 0.03 303.92 
135 1 1 0.214051 0.42151 1.57518 0 0 0 1.40261 0.323525 0.32757 -1.61072 -11.5078 5.1892 -8.98938 -91.0686 -4.00372 0.03 310.874 
69 1 1 0.361165 0.434321 1.5754 0 0 0 1.46581 0.134523 -0.498161 16.061 27.4345 -14.7364 -0.322184 -45.659 27.5801 0.03 329.342 
167 1 1 0.706429 0.416435 1.57646 0 0 0 2.24367 0.469098 0.0623921 -1.19621 -1.88411 5.40995 -14.0809 -60.379 17.0133 0.03 305.761 
32 1 1 0.937816 0.444053 1.57903 0 0 0 2.09311 0.0203243 -0.119955 0.362645 0.503959 -3.1024 -10.3113 -36.0991 5.88345 0.03 326.406 
174 1 1 1.12075 0.411221 1.57686 0 0 0 2.54452 -0.112838 -1.07123e-08 4.23812e-08 -2.29895e-09 -7.94687e-07 3.77668 -48.7148 2.83466 0.03 332.549 
169 1 1 0.246125 0.470966 1.57594 0 0 0 1.77068 0.0936194 0.310285 3.37138 15.3761 6.40826 -5.83168 -78.9795 0.501575 0.03 304.793 
104 1 1 0.412287 0.45962 1.58845 0 0 0 1.56831 0.948229 -0.451709 9.62988 5.37435 -4.86402 -5.54884 52.4715 -3.05015 0.03 300.371 
131 1 1 0.521215 0.449675 1.57705 0 0 0 2.07592 0.226004 0.107517 -4.91607 -0.139987 -5.51235 -7.57181 -63.9668 -14.6326 0.03 312.219 
145 1 1 0.573137 0.475694 1.59023 0 0 0 2.0917 0.227399 0.0341124 -7.51047 -0.574011 -2.41664 -14.0058 61.3932 4.96902 0.03 302.003 
30 1 1 0.625135 0.449487 1.58063 0 0 0 2.11196 0.0952674 0.0594357 13.1991 -4.79027 1.34362 -1.00175 -60.545 -4.96171 0.03 346.084 
10 1 1 0.742245 0.465056 1.57686 0 0 0 2.05397 0.261287 0.000917643 -0.00404922 0.000550659 -0.0563509 -8.74512 -65.1325 10.2563 0.03 340.231 
54 1 1 0.80531 0.462332 1.57687 0 0 0 2.17251 -0.153482 -0.000133123 -0.000237173 7.04733e-06 -0.166638 5.13555 -61.1495 -6.92521 0.03 328.907 
36 1 1 0.877804 0.452098 1.57694 0 0 0 2.19855 0.0251617 0.0175952 0.350438 0.275878 -1.88171 -17.0495 -39.6324 -0.812485 0.03 321.33 
61 1 1 0.327392 0.517442 1.57839 0 0 0 1.88023 0.285076 0.218175 0 0 -2.77371 -9.78568 -70.8879 16.7597 0.03 317.324 
42 1 1 0.40987 0.520919 1.5772 0 0 0 1.51257 0.935362 -0.311092 0 0 -2.77371 -7.5562 -76.0719 -11.6954 0.03 314.555 
163 1 1 0.484956 0.510938 1.57649 0 0 0 1.70134 0.34444 -0.319547 24.8367 13.0427 -21.9573 -5.22161 -75.5729 -20.5206 0.03 321.883 
39 1 1 0.678454 0.502867 1.57654 0 0 0 1.82033 -0.277004 -0.0556191 0.822298 0.660798 -1.99534 10.1323 -73.2198 6.53094 0.03 319.209 
66 1 1 0.840372 0.514964 1.57681 0 0 0 1.95741 0.0540284 0.0294091 0.129 0.0139419 -0.764547 -1.90667 -69.1606 -8.60567 0.03 316.043 
168 1 1 0.899902 0.508575 1.57958 0 0 0 2.02183 0.218632 0.153264 -0.756194 0.0650042 -2.43755 -12.0203 -60.6354 8.81861 0.03 316.417 
100 1 1 0.975476 0.490184 1.57743 0 0 0 2.07507 0.257021 0.0838861 -0.362645 -0.503959 -2.44502 -10.9081 -63.0955 -2.71245 0.03 334.575 
140 1 1 1.04449 0.487716 1.57655 0 0 0 2.53664 0.0247068 0.281365 -3.19458 -0.0766725 -8.90632 -0.800185 -50.6192 0.805906 0.03 307.059 
16 1 1 0.24712 0.535966 1.57694 0 0 0 1.38963 0.294226 0.0231983 -0.434362 -0.191898 -2.16908 -9.57008 -87.3948 7.0882 0.03 313.082 
63 1 1 0.57749 0.533346 1.57645 0 0 0 1.69698 0.263226 0.0484825 -0.432867 1.28608 1.63931 -8.45667 -77.3547 18.1297 0.03 337.564 
162 1 1 0.779951 0.516784 1.57679 0 0 0 2.08283 -0.363303 -0.00548686 1.49408 -1.57299 1.56522 13.236 -63.2005 19.7469 0.03 325.276 
113 1 1 0.994829 0.548097 1.57686 0 0 0 1.86688 -0.292223 0.00119359 -0.00564943 -0.000773944 -0.0408219 9.78097 -71.3975 -11.9526 0.03 337.972 
121 1 1 0.487591 0.570964 1.5809 0 0 0 1.82505 -0.0144659 0.107088 0 0 -2.77371 -2.86432 -87.6958 -15.6161 0.03 327.074 
158 1 1 0.601753 0.586625 1.59668 0 0 0 2.09778 0.114228 0.0116867 0 0 -2.77371 -10.0778 -29.8741 -59.7606 0.03 316.683 
109 1 1 0.670893 0.566435 1.57688 0 0 0 2.05532 0.013758 -0.0160203 1.48333 -0.611007 0.434773 0.647878 -62.3577 -12.2852 0.03 327.046 
103 1 1 0.729943 0.550159 1.57683 0 0 0 2.11781 -0.278314 0.0182242 1.12562 -0.507838 -0.303951 10.5901 -60.2394 -37.001 0.03 338.725 
152 1 1 0.392272 0.588822 1.59802 0 0 0 1.60106 -0.376273 -0.127457 0.131603 4.96846 -5.7814 11.541 -102.688 -11.0602 0.03 319.465 
87 1 1 0.615066 0.143845 1.61923 0 0 0 1.854 0.0592263 -0.0785508 0.508874 0.628572 -1.61718 2.83832 -22.3168 67.3893 0.03 313.892 
85 1 1 0.957827 0.161615 1.60159 0 0 0 2.48822 0.00260057 -0.00657872 -0.0168489 0.0295047 -2.69642 1.71501 -57.1529 15.4567 0.03 310.021 
51 1 1 0.210036 0.219976 1.6217 0 0 0 0.261918 0.504676 0.111651 0 0 -2.77371 -50.1101 21.1086 -26.5939 0.03 300.3 
80 1 1 0.718031 0.19681 1.62386 0 0 0 1.31476 -0.178817 -0.370554 0 0 -2.77371 1.84589 26.2855 -25.7868 0.03 300.349 
19 1 1 0.38602 0.297563 1.62618 0 0 0 0.372339 0.0918617 0.336442 -3.5478 -3.20929 -1.63192 -5.01987 22.8292 -16.941 0.03 301.827 
125 1 1 0.463306 0.269292 1.60236 0 0 0 1.40687 0.0409663 -0.641581 -8.50922 -3.03586 -2.46049 -2.65949 10.8538 -10.3025 0.03 300.242 
155 1 1 0.617898 0.290388 1.62402 0 0 0 1.28744 0.09153 -0.0905876 7.46737 -8.44399 33.9696 5.89567 32.6299 8.20031 0.03 300.515 
71 1 1 0.286372 0.323649 1.6268 0 0 0 0.101137 -0.514662 -0.75885 0 0 -2.77371 -12.8538 -23.9096 1.43753 0.03 300.018 
170 1 1 0.472086 0.329445 1.6236 0 0 0 0.534946 0.122029 -1.17248 0 0 -2.77371 -32.6823 -23.1951 1.93329 0.03 300.002 
132 1 1 0.138059 0.356712 1.63081 0 0 0 -0.27553 -0.221773 0.385194 -57.433 -7.23201 -58.9349 -25.3644 90.8545 19.5477 0.03 300.533 
77 1 1 0.217856 0.373969 1.60821 0 0 0 0.171121 0.0883717 0.514277 4.89323 -35.1338 -0.404026 5.75967 35.2556 -11.9966 0.03 300.495 
94 1 1 0.343637 0.340673 1.61068 0 0 0 0.106483 -0.212729 -0.932815 0 0 -2.77371 -34.0873 28.2868 23.8672 0.03 300.854 
56 1 1 0.558764 0.338621 1.62676 0 0 0 0.878901 -0.0359343 -0.427264 0 0 -2.77371 -14.6211 -12.6669 9.40279 0.03 300.04 
126 1 1 0.39278 0.409092 1.61689 0 0 0 0.372553 0.0454716 -1.10892 17.4781 -25.8591 98.7288 34.4453 1.47785 -13.0811 0.03 300.037 
154 1 1 0.237729 0.441885 1.6261 0 0 0 1.07249 0.360301 0.926187 -0.656789 6.57809 -7.71287 -9.46585 64.7235 -19.5056 0.03 300.105 
4 1 1 0.305685 0.43879 1.61934 0 0 0 0.180487 0.156297 -0.616155 0 0 -2.77371 9.03964 -2.1607 -10.9507 0.03 300.473 
20 1 1 0.528755 0.422829 1.63083 0 0 0 1.49831 0.358899 0.540155 0 0 -2.77371 -2.72081 44.157 3.87531 0.03 300.802 
26 1 1 0.47748 0.472249 1.61966 0 0 0 0.0976866 0.498936 -1.27064 -23.4147 -27.0356 45.8622 9.8376 -28.8357 53.2637 0.03 300.03 
151 1 1 0.667753 0.466874 1.62222 0 0 0 1.75352 -0.0620344 0.0734601 -0.30935 -6.46251 6.54491 -18.9347 61.1273 4.36248 0.03 300.888 
34 1 1 0.162344 0.484369 1.61974 0 0 0 0.453373 0.543839 -0.7573 6.13075 5.34158 4.04102 -22.5835 27.6739 -10.1957 0.03 300.136 
89 1 1 0.284597 0.508546 1.62446 0 0 0 0.00446597 0.587277 -0.447564 0 0 -2.77371 -15.2234 -3.76933 6.15859 0.03 300.158 
9 1 1 0.617945 0.512455 1.6167 0 0 0 1.50829 0.631 -0.18923 -0.676219 -4.34394 1.10117 -16.7159 73.5865 -4.69527 0.03 302.028 
117 1 1 0.226896 0.554793 1.63055 0 0 0 0.203312 0.35629 -0.228369 0 0 -2.77371 4.94795 49.665 5.82006 0.03 300.275 
105 1 1 0.512116 0.548126 1.63162 0 0 0 1.09066 -0.117241 0.71661 0 0 -2.77371 -2.36036 56.172 8.12449 0.03 301.737 
118 1 1 0.307631 0.581293 1.59884 0 0 0 1.3536 -0.374654 -0.3444 0 0 -2.77371 8.10848 -100.175 -25.5636 0.03 314.242 
79 1 1 0.43448 0.608207 1.63669 0 0 0 0.959029 0.514337 0.501872 0.364596 -0.115801 -3.76884 -11.6304 28.8535 -2.64813 0.03 301.176 
172 1 1 0.792857 0.588949 1.5983 0 0 0 1.84246 -0.302616 -0.254476 -0.153847 0.869609 -2.8989 12.7865 -62.0751 -39.8804 0.03 327.496 
78 1 1 0.410512 0.102855 1.66659 0 0 0 1.77059 0.197137 -0.0578871 0 0 -2.77371 12.1616 19.5301 53.2764 0.03 303.359 
165 1 1 0.4831 0.0950095 1.67029 0 0 0 2.05854 -0.226803 0.871744 0 0 -2.77371 27.2418 -26.0046 66.2142 0.03 303.532 
49 1 1 0.326105 0.141489 1.66963 0 0 0 0.382364 -1.1436 0.0582216 0 0 -2.77371 -15.9012 0.620236 -20.6393 0.03 300.803 
1 1 1 0.537276 0.189137 1.62473 0 0 0 1.54446 -0.800469 -1.45988 0 0 -2.77371 11.6185 16.9466 12.566 0.03 300.004 
76 1 1 0.301064 0.205564 1.65218 0 0 0 0.29725 -0.679417 0.337751 0 0 -2.77371 -1.47514 74.0488 -21.5692 0.03 300.948 
161 1 1 0.425207 0.215919 1.6335 0 0 0 0.980583 -0.524028 -0.988471 -1.96296 24.4964 47.8232 -8.43365 48.0091 -17.7017 0.03 300.075 
88 1 1 0.632122 0.201896 1.65128 0 0 0 1.47204 0.127753 -0.0414151 0 0 -2.77371 19.8362 33.9437 -35.3702 0.03 300.395 
115 1 1 0.34227 0.259646 1.64182 0 0 0 -0.0792014 -0.21768 -0.486164 3.5478 3.20929 -3.9155 37.8818 -35.9732 10.1183 0.03 300.027 
146 1 1 0.49271 0.244462 1.65022 0 0 0 -0.180963 -0.165037 -1.98339 0 0 -2.77371 19.8182 -49.471 -4.49595 0.03 300.002 
7 1 1 0.552593 0.269624 1.6383 0 0 0 1.19786 0.247366 -0.0531052 -1.06434 -1.21418 -5.71217 -0.359184 -10.6285 -2.12222 0.03 300.498 
46 1 1 0.698145 0.270842 1.65516 0 0 0 1.53927 -0.134464 0.493694 0 0 -2.77371 -5.12514 35.8324 -23.9419 0.03 300.627 
33 1 1 0.0924748 0.36835 1.67057 0 0 0 -0.396921 0.104109 0.166994 0 0 -2.77371 -4.41185 -108.345 1.24037 0.03 300.006 
24 1 1 0.508218 0.369174 1.65236 0 0 0 0.898393 -0.356534 -0.697784 0 0 -2.77371 43.6925 -47.8981 -14.8373 0.03 300.019 
159 1 1 0.676511 0.356257 1.64698 0 0 0 1.6598 0.148172 0.161311 0 0 -2.77371 2.22869 18.5057 10.8169 0.03 300.116 
21 1 1 0.180324 0.412593 1.63248 0 0 0 0.342983 0.739332 -0.720714 0.896427 -44.5945 -24.377 -18.5615 -25.1515 -3.26699 0.03 300.015 
92 1 1 0.746588 0.385656 1.64789 0 0 0 1.70407 0.394769 -0.0270953 0 0 -2.77371 -22.3033 38.9848 -1.88911 0.03 300.416 
149 1 1 0.556593 0.505742 1.6398 0 0 0 1.64033 -0.132123 0.217863 0 0 -2.77371 44.1506 -70.8568 -8.67668 0.03 300.061 
27 1 1 0.372203 0.552737 1.66207 0 0 0 0.371035 1.30921 0.559768 0 0 -2.77371 8.71052 30.4286 -7.66759 0.03 300.212 
75 1 1 0.459342 0.53287 1.65994 0 0 0 0.811601 0.423413 -0.476382 33.2906 24.8755 -60.4829 37.5111 -65.147 1.63231 0.03 300.03 
83 1 1 0.72496 0.555925 1.65437 0 0 0 1.74324 0.50685 -0.242409 0 0 -2.77371 5.00779 82.3266 13.0114 0.03 300.323 
157 1 1 0.796069 0.544351 1.63837 0 0 0 1.68315 -0.37135 -0.230247 0 0 -2.77371 -14.1654 89.7274 7.76347 0.03 300.576 
18 1 1 0.548949 0.583481 1.66402 0 0 0 1.49248 0.641758 0.0852163 0 0 -2.77371 -4.75258 -17.7165 17.9742 0.03 300.41 
137 1 1 0.235321 0.139415 1.68093 0 0 0 -0.146109 -0.9081 0.521528 0 0 -2.77371 4.66535 -5.21465 6.06554 0.03 300.041 
127 1 1 0.398391 0.311381 1.68745 0 0 0 0.663533 0.321952 0.880758 0 0 -2.77371 0.544865 -29.366 3.21465 0.03 300.025 
44 1 1 0.488584 0.310307 1.67852 0 0 0 0.0808322 -1.01478 -1.58645 0 0 -2.77371 3.01563 8.23065 5.23334 0.03 300 
166 1 1 0.1583 0.373218 1.68335 0 0 0 -0.0784933 -0.129142 -0.998985 57.433 7.23201 53.3875 45.2867 -3.90033 17.261 0.03 300 
35 1 1 0.351823 0.357264 1.67276 0 0 0 0.333153 -0.0962454 -0.659335 0 0 -2.77371 35.1525 -13.2644 8.99817 0.03 300.009 
141 1 1 0.416569 0.37106 1.66361 0 0 0 -0.195075 -0.333369 -1.40815 0 0 -2.77371 0.597597 -16.3737 -4.6967 0.03 300 
28 1 1 0.222316 0.404506 1.67333 0 0 0 -0.00304499 0.0556836 -2.72993 3.4602 33.9634 101.248 4.92425 9.35013 -3.22139 0.03 300 
38 1 1 0.300416 0.399574 1.66886 0 0 0 -0.132679 -0.37264 -0.681725 0 0 -2.77371 7.36575 -3.14204 0.223117 0.03 300.004 
111 1 1 0.4775 0.423713 1.67293 0 0 0 0.127571 0.00643831 -1.44382 0 0 -2.77371 4.44662 -5.30969 3.81362 0.03 300 
106 1 1 0.377076 0.465375 1.67318 0 0 0 0.232361 0.096212 -0.252874 0 0 -2.77371 38.7933 -37.7383 6.24673 0.03 300.002 
119 1 1 0.117317 0.481519 1.66748 0 0 0 -0.674415 -0.0675471 -1.36627 0 0 -2.77371 -3.49978 -29.1939 -2.51378 0.03 300.001 
130 1 1 0.639346 0.491312 1.66826 0 0 0 1.60426 0.355684 -0.0407117 -1.25902 4.22339 -3.89083 17.5583 -67.2519 -5.83988 0.03 300.035 
129 1 1 0.175287 0.554097 1.67908 0 0 0 -0.375689 0.557265 -0.636125 0 0 -2.77371 -29.0929 -58.6029 2.438 0.03 300.003 
57 1 1 0.290272 0.597338 1.69407 0 0 0 0.357956 0.421489 0.713163 0 0 -2.77371 -37.0233 53.9428 43.6927 0.03 300.178 
99 1 1 0.391507 0.617901 1.67711 0 0 0 0.725894 0.966519 0.185692 -0.364596 0.115801 -1.77858 13.2632 19.9584 -12.554 0.03 300.339 
2 1 1 0.481317 0.689249 1.70354 0 0 0 1.39855 -0.230107 0.119091 0 0 -2.77371 -0.362886 -98.9603 -24.45 0.03 303.348 
156 1 1 0.556052 0.672041 1.68114 0 0 0 1.39364 0.0343203 0.0628922 -0.138621 -1.19502 -1.23278 -2.17187 -64.9831 -58.5321 0.03 308.16 
97 1 1 0.184928 0.234672 1.6961 0 0 0 0 0 -2.80833 0 0 -2.77371 0 0 0 0.03 300 
74 1 1 0.248328 0.247523 1.71206 0 0 0 0 0 -2.75202 0 0 -2.77371 0 0 0 0.03 300 
5 1 1 0.160428 0.3182 1.71259 0 0 0 0 0 -2.75015 0 0 -2.77371 0 0 0 0.03 300 
93 1 1 0.225968 0.488444 1.69284 0 0 0 0 0 -2.81971 0 0 -2.77371 0 0 0 0.03 300 
134 1 1 0.44382 0.509488 1.71199 0 0 0 -0.0506496 -0.0359563 -2.66897 -33.2906 -24.8755 54.9355 0.0695805 1.92416 0.872057 0.03 300 
90 1 1 0.102204 0.238351 1.73114 0 0 0 0 0 -2.68315 0 0 -2.77371 0 0 0 0.03 300 
62 1 1 0.329189 0.252757 1.73825 0 0 0 0 0 -2.65706 0 0 -2.77371 0 0 0 0.03 300 
95 1 1 0.346797 0.327727 1.74983 0 0 0 0 0 -2.61389 0 0 -2.77371 0 0 0 0.03 300 
175 1 1 0.230789 0.339127 1.72259 0 0 0 0 0 -2.71425 0 0 -2.77371 0 0 0 0.03 300 
37 1 1 0.41824 0.41741 1.74306 0 0 0 0 0 -2.6392 0 0 -2.77371 0 0 0 0.03 300 
17 1 1 0.345254 0.512161 1.74359 0 0 0 0 0 -2.63724 0 0 -2.77371 0 0 0 0.03 300 
43 1 1 0.460616 0.284913 1.76062 0 0 0 0 0 -2.57308 0 0 -2.77371 0 0 0 0.03 300 
116 1 1 0.152794 0.405213 1.7822 0 0 0 0 0 -2.4895 0 0 -2.77371 0 0 0 0.03 300 
128 1 1 0.355123 0.421294 1.76209 0 0 0 0 0 -2.56749 0 0 -2.77371 0 0 0 0.03 300 
40 1 1 0.408343 0.240904 1.81967 0 0 0 0 0 -2.33715 0 0 -2.77371 0 0 0 0.03 300 
25 1 1 0.278223 0.363632 1.79861 0 0 0 0 0 -2.42397 0 0 -2.77371 0 0 0 0.03 300 
123 1 1 0.48159 0.360101 1.80473 0 0 0 0 0 -2.39905 0 0 -2.77371 0 0 0 0.03 300 
98 1 1 0.491139 0.43458 1.81471 0 0 0 0 0 -2.35785 0 0 -2.77371 0 0 0 0.03 300 
138 1 1 0.301221 0.470777 1.79173 0 0 0 0 0 -2.45163 0 0 -2.77371 0 0 0 0.03 300 
72 1 1 0.10161 0.511094 1.82289 0 0 0 0 0 -2.32361 0 0 -2.77371 0 0 0 0.03 300 
68 1 1 0.400811 0.324654 1.82878 0 0 0 0 0 -2.2986 0 0 -2.77371 0 0 0 0.03 300 
84 1 1 0.227036 0.399722 1.84686 0 0 0 0 0 -2.22012 0 0 -2.77371 0 0 0 0.03 300 
55 1 1 0.200976 0.455034 1.83695 0 0 0 0 0 -2.26348 0 0 -2.77371 0 0 0 0.03 300 
48 1 1 0.17066 0.517967 1.85454 0 0 0 0 0 -2.18588 0 0 -2.77371 0 0 0 0.03 300 
22 1 1 0.254767 0.230824 1.88571 0 0 0 0 0 -2.04118 0 0 -2.77371 0 0 0 0.03 300 
73 1 1 0.170916 0.265084 1.89288 0 0 0 0 0 -2.00646 0 0 -2.77371 0 0 0 0.03 300 
171 1 1 0.477654 0.251099 1.88441 0 0 0 0 0 -2.04746 0 0 -2.77371 0 0 0 0.03 300 
110 1 1 0.10205 0.273683 1.89103 0 0 0 0 0 -2.01548 0 0 -2.77371 0 0 0 0.03 300 
31 1 1 0.221691 0.336081 1.86799 0 0 0 0 0 -2.12467 0 0 -2.77371 0 0 0 0.03 300 
148 1 1 0.12082 0.460146 1.88383 0 0 0 0 0 -2.05021 0 0 -2.77371 0 0 0 0.03 300 
136 1 1 0.374023 0.456818 1.86842 0 0 0 0 0 -2.12271 0 0 -2.77371 0 0 0 0.03 300 
65 1 1 0.421483 0.499457 1.88891 0 0 0 0 0 -2.02578 0 0 -2.77371 0 0 0 0.03 300 
164 1 1 0.244978 0.28843 1.92491 0 0 0 0 0 -1.84322 0 0 -2.77371 0 0 0 0.03 300 
107 1 1 0.303471 0.271065 1.90316 0 0 0 0 0 -1.95554 0 0 -2.77371 0 0 0 0.03 300 
70 1 1 0.142707 0.355749 1.91327 0 0 0 0 0 -1.90414 0 0 -2.77371 0 0 0 0.03 300 
53 1 1 0.294932 0.364362 1.92279 0 0 0 0 0 -1.8545 0 0 -2.77371 0 0 0 0.03 300 
102 1 1 0.419044 0.351535 1.9336 0 0 0 0 0 -1.79642 0 0 -2.77371 0 0 0 0.03 300 
176 1 1 0.349719 0.399621 1.9326 0 0 0 0 0 -1.80182 0 0 -2.77371 0 0 0 0.03 300 
153 1 1 0.496538 0.392613 1.91834 0 0 0 0 0 -1.87785 0 0 -2.77371 0 0 0 0.03 300 
6 1 1 0.317689 0.454971 1.92721 0 0 0 0 0 -1.83096 0 0 -2.77371 0 0 0 0.03 300 
150 1 1 0.481625 0.503918 1.89824 0 0 0 0 0 -1.98007 0 0 -2.77371 0 0 0 0.03 300 
333 1 1 0.346739 0.243699 1.96801 0 0 0 0 0 -1.59748 0 0 -2.77371 0 0 0 0.03 300 
281 1 1 0.411814 0.252027 1.94784 0 0 0 0 0 -1.71687 0 0 -2.77371 0 0 0 0.03 300 
225 1 1 0.490773 0.317233 1.95853 0 0 0 0 0 -1.65467 0 0 -2.77371 0 0 0 0.03 300 
289 1 1 0.101436 0.395361 1.96998 0 0 0 0 0 -1.58531 0 0 -2.77371 0 0 0 0.03 300 
326 1 1 0.187055 0.479944 1.93978 0 0 0 0 0 -1.76229 0 0 -2.77371 0 0 0 0.03 300 
147 1 1 0.248507 0.49546 1.93524 0 0 0 0 0 -1.7874 0 0 -2.77371 0 0 0 0.03 300 
52 1 1 0.358392 0.516981 1.93483 0 0 0 0 0 -1.78966 0 0 -2.77371 0 0 0 0.03 300 
339 1 1 0.110214 0.298119 1.99189 0 0 0 0 0 -1.44336 0 0 -2.77371 0 0 0 0.03 300 
181 1 1 0.375154 0.318829 1.99597 0 0 0 0 0 -1.4154 0 0 -2.77371 0 0 0 0.03 300 
304 1 1 0.124838 0.500222 2.00247 0 0 0 0 0 -1.36959 0 0 -2.77371 0 0 0 0.03 300 
243 1 1 0.453661 0.506792 2.00199 0 0 0 0 0 -1.37303 0 0 -2.77371 0 0 0 0.03 300 
307 1 1 0.30626 0.26717 2.02222 0 0 0 0 0 -1.21989 0 0 -2.77371 0 0 0 0.03 300 
221 1 1 0.425449 0.24778 2.04301 0 0 0 0 0 -1.03939 0 0 -2.77371 0 0 0 0.03 300 
300 1 1 0.170925 0.32143 2.02327 0 0 0 0 0 -1.21145 0 0 -2.77371 0 0 0 0.03 300 
340 1 1 0.235778 0.333975 2.04038 0 0 0 0 0 -1.06401 0 0 -2.77371 0 0 0 0.03 300 
187 1 1 0.476873 0.306542 2.04239 0 0 0 0 0 -1.04527 0 0 -2.77371 0 0 0 0.03 300 
180 1 1 0.296048 0.338714 2.02112 0 0 0 0 0 -1.22882 0 0 -2.77371 0 0 0 0.03 300 
190 1 1 0.226585 0.401613 2.0167 0 0 0 0 0 -1.26355 0 0 -2.77371 0 0 0 0.03 300 
268 1 1 0.442536 0.376191 2.03894 0 0 0 0 0 -1.07716 0 0 -2.77371 0 0 0 0.03 300 
296 1 1 0.486808 0.439095 2.01076 0 0 0 0 0 -1.30887 0 0 -2.77371 0 0 0 0.03 300 
249 1 1 0.173789 0.449512 2.03062 0 0 0 0 0 -1.15044 0 0 -2.77371 0 0 0 0.03 300 
227 1 1 0.405439 0.458732 2.01139 0 0 0 0 0 -1.30416 0 0 -2.77371 0 0 0 0.03 300 
301 1 1 0.196268 0.514676 2.0372 0 0 0 0 0 -1.09285 0 0 -2.77371 0 0 0 0.03 300 
276 1 1 0.289349 0.515799 2.04363 0 0 0 0 0 -1.0335 0 0 -2.77371 0 0 0 0.03 300 
288 1 1 0.209802 0.229296 2.04867 0 0 0 -0 -0 -1 0 0 0 0 0 0 0.03 300 
213 1 1 0.125891 0.243147 2.05527 0 0 0 -0 -0 -1 0 0 0 0 0 0 0.03 300 
196 1 1 0.358915 0.233995 2.07735 0 0 0 -0 -0 -1 0 0 0 0 0 0 0.03 300 
322 1 1 0.49924 0.247443 2.05573 0 0 0 -0 -0 -1 0 0 0 0 0 0 0.03 300 
257 1 1 0.107883 0.30308 2.06464 0 0 0 -0 -0 -1 0 0 0 0 0 0 0.03 300 
230 1 1 0.257855 0.281878 2.06402 0 0 0 -0 -0 -1 0 0 0 0 0 0 0.03 300 
245 1 1 0.160535 0.375989 2.07766 0 0 0 -0 -0 -1 0 0 0 0 0 0 0.03 300 
291 1 1 0.499679 0.383275 2.05751 0 0 0 -0 -0 -1 0 0 0 0 0 0 0.03 300 
178 1 1 0.318639 0.427051 2.06674 0 0 0 -0 -0 -1 0 0 0 0 0 0 0.03 300 
352 1 1 0.377854 0.441153 2.07506 0 0 0 -0 -0 -1 0 0 0 0 0 0 0.03 300 
246 1 1 0.107302 0.455042 2.06023 0 0 0 -0 -0 -1 0 0 0 0 0 0 0.03 300 
226 1 1 0.253931 0.465065 2.06163 0 0 0 -0 -0 -1 0 0 0 0 0 0 0.03 300 
265 1 1 0.446064 0.454668 2.0743 0 0 0 -0 -0 -1 0 0 0 0 0 0 0.03 300 
224 1 1 0.391331 0.524514 2.06276 0 0 0 -0 -0 -1 0 0 0 0 0 0 0.03 300 
317 1 1 0.252263 0.228507 2.1089 0 0 0 -0 -0 -1 0 0 0 0 0 0 0.03 300 
252 1 1 0.442785 0.262265 2.11054 0 0 0 -0 -0 -1 0 0 0 0 0 0 0.03 300 
248 1 1 0.155073 0.291265 2.10256 0 0 0 -0 -0 -1 0 0 0 0 0 0 0.03 300 
209 1 1 0.352404 0.322469 2.09158 0 0 0 -0 -0 -1 0 0 0 0 0 0 0.03 300 
313 1 1 0.439938 0.327558 2.0983 0 0 0 -0 -0 -1 0 0 0 0 0 0 0.03 300 
204 1 1 0.215487 0.347963 2.10667 0 0 0 -0 -0 -1 0 0 0 0 0 0 0.03 300 
346 1 1 0.2812 0.398881 2.10476 0 0 0 -0 -0 -1 0 0 0 0 0 0 0.03 300 
254 1 1 0.380252 0.376413 2.08303 0 0 0 -0 -0 -1 0 0 0 0 0 0 0.03 300 
335 1 1 0.429091 0.407041 2.10734 0 0 0 -0 -0 -1 0 0 0 0 0 0 0.03 300 
270 1 1 0.207615 0.426676 2.08897 0 0 0 -0 -0 -1 0 0 0 0 0 0 0.03 300 
279 1 1 0.157212 0.495968 2.09757 0 0 0 -0 -0 -1 0 0 0 0 0 0 0.03 300 
217 1 1 0.461801 0.523439 2.107 0 0 0 -0 -0 -1 0 0 0 0 0 0 0.03 300 
351 1 1 0.181906 0.258163 2.14663 0 0 0 -0 -0 -1 0 0 0 0 0 0 0.03 300 
305 1 1 0.346674 0.257421 2.1322 0 0 0 -0 -0 -1 0 0 0 0 0 0 0.03 300 
193 1 1 0.281872 0.329623 2.12076 0 0 0 -0 -0 -1 0 0 0 0 0 0 0.03 300 
233 1 1 0.496558 0.3336 2.13785 0 0 0 -0 -0 -1 0 0 0 0 0 0 0.03 300 
298 1 1 0.133415 0.358363 2.1502 0 0 0 -0 -0 -1 0 0 0 0 0 0 0.03 300 
272 1 1 0.116473 0.427779 2.12318 0 0 0 -0 -0 -1 0 0 0 0 0 0 0.03 300 
237 1 1 0.207046 0.471117 2.13263 0 0 0 -0 -0 -1 0 0 0 0 0 0 0.03 300 
262 1 1 0.417911 0.469013 2.1321 0 0 0 -0 -0 -1 0 0 0 0 0 0 0.03 300 
239 1 1 0.490736 0.457949 2.11796 0 0 0 -0 -0 -1 0 0 0 0 0 0 0.03 300 
303 1 1 0.114998 0.510423 2.14123 0 0 0 -0 -0 -1 0 0 0 0 0 0 0.03 300 
263 1 1 0.269308 0.500141 2.13382 0 0 0 -0 -0 -1 0 0 0 0 0 0 0.03 300 
201 1 1 0.360389 0.493184 2.1174 0 0 0 -0 -0 -1 0 0 0 0 0 0 0.03 300 
283 1 1 0.300071 0.232043 2.17541 0 0 0 -0 -0 -1 0 0 0 0 0 0 0.03 300 
332 1 1 0.233113 0.233231 2.16729 0 0 0 -0 -0 -1 0 0 0 0 0 0 0.03 300 
319 1 1 0.490886 0.237209 2.1535 0 0 0 -0 -0 -1 0 0 0 0 0 0 0.03 300 
206 1 1 0.126939 0.284236 2.16405 0 0 0 -0 -0 -1 0 0 0 0 0 0 0.03 300 
194 1 1 0.257372 0.298287 2.16748 0 0 0 -0 -0 -1 0 0 0 0 0 0 0.03 300 
231 1 1 0.39189 0.276895 2.16772 0 0 0 -0 -0 -1 0 0 0 0 0 0 0.03 300 
338 1 1 0.455834 0.299724 2.17811 0 0 0 -0 -0 -1 0 0 0 0 0 0 0.03 300 
347 1 1 0.332014 0.322805 2.16638 0 0 0 -0 -0 -1 0 0 0 0 0 0 0.03 300 
331 1 1 0.280682 0.358343 2.179 0 0 0 -0 -0 -1 0 0 0 0 0 0 0.03 300 
216 1 1 0.415188 0.353574 2.17582 0 0 0 -0 -0 -1 0 0 0 0 0 0 0.03 300 
285 1 1 0.200673 0.388027 2.18116 0 0 0 -0 -0 -1 0 0 0 0 0 0 0.03 300 
341 1 1 0.462863 0.403415 2.15862 0 0 0 -0 -0 -1 0 0 0 0 0 0 0.03 300 
208 1 1 0.292126 0.417938 2.16843 0 0 0 -0 -0 -1 0 0 0 0 0 0 0.03 300 
334 1 1 0.38649 0.410383 2.15433 0 0 0 -0 -0 -1 0 0 0 0 0 0 0.03 300 
325 1 1 0.454753 0.482086 2.1802 0 0 0 -0 -0 -1 0 0 0 0 0 0 0.03 300 
185 1 1 0.176568 0.243013 2.20859 0 0 0 -0 -0 -1 0 0 0 0 0 0 0.03 300 
183 1 1 0.442411 0.236129 2.21849 0 0 0 -0 -0 -1 0 0 0 0 0 0 0.03 300 
197 1 1 0.187467 0.323213 2.18686 0 0 0 -0 -0 -1 0 0 0 0 0 0 0.03 300 
295 1 1 0.361284 0.371846 2.1954 0 0 0 -0 -0 -1 0 0 0 0 0 0 0.03 300 
308 1 1 0.14362 0.411827 2.19042 0 0 0 -0 -0 -1 0 0 0 0 0 0 0.03 300 
220 1 1 0.335967 0.444883 2.20458 0 0 0 -0 -0 -1 0 0 0 0 0 0 0.03 300 
198 1 1 0.400177 0.437787 2.2076 0 0 0 -0 -0 -1 0 0 0 0 0 0 0.03 300 
255 1 1 0.114307 0.478097 2.19805 0 0 0 -0 -0 -1 0 0 0 0 0 0 0.03 300 
182 1 1 0.244578 0.471314 2.21452 0 0 0 -0 -0 -1 0 0 0 0 0 0 0.03 300 
238 1 1 0.178751 0.5056 2.2101 0 0 0 -0 -0 -1 0 0 0 0 0 0 0.03 300 
271 1 1 0.316171 0.515613 2.18673 0 0 0 -0 -0 -1 0 0 0 0 0 0 0.03 300 
186 1 1 0.259533 0.258075 2.22734 0 0 0 -0 -0 -1 0 0 0 0 0 0 0.03 300 
258 1 1 0.122106 0.287147 2.25085 0 0 0 -0 -0 -1 0 0 0 0 0 0 0.03 300 
284 1 1 0.192412 0.289106 2.24388 0 0 0 -0 -0 -1 0 0 0 0 0 0 0.03 300 
240 1 1 0.373873 0.277789 2.22961 0 0 0 -0 -0 -1 0 0 0 0 0 0 0.03 300 
282 1 1 0.474016 0.292718 2.24895 0 0 0 -0 -0 -1 0 0 0 0 0 0 0.03 300 
250 1 1 0.309313 0.331656 2.22448 0 0 0 -0 -0 -1 0 0 0 0 0 0 0.03 300 
212 1 1 0.417494 0.317622 2.25353 0 0 0 -0 -0 -1 0 0 0 0 0 0 0.03 300 
316 1 1 0.11734 0.353945 2.22534 0 0 0 -0 -0 -1 0 0 0 0 0 0 0.03 300 
259 1 1 0.22228 0.356059 2.24403 0 0 0 -0 -0 -1 0 0 0 0 0 0 0.03 300 
277 1 1 0.255485 0.407729 2.24471 0 0 0 -0 -0 -1 0 0 0 0 0 0 0.03 300 
274 1 1 0.492828 0.422942 2.23588 0 0 0 -0 -0 -1 0 0 0 0 0 0 0.03 300 
192 1 1 0.365388 0.511304 2.24856 0 0 0 -0 -0 -1 0 0 0 0 0 0 0.03 300 
290 1 1 0.276688 0.526521 2.25397 0 0 0 -0 -0 -1 0 0 0 0 0 0 0.03 300 
343 1 1 0.15665 0.233052 2.28364 0 0 0 -0 -0 -1 0 0 0 0 0 0 0.03 300 
349 1 1 0.365686 0.235664 2.28936 0 0 0 -0 -0 -1 0 0 0 0 0 0 0.03 300 
253 1 1 0.245744 0.294067 2.2746 0 0 0 -0 -0 -1 0 0 0 0 0 0 0.03 300 
324 1 1 0.115625 0.334079 2.29008 0 0 0 -0 -0 -1 0 0 0 0 0 0 0.03 300 
211 1 1 0.342022 0.308301 2.28941 0 0 0 -0 -0 -1 0 0 0 0 0 0 0.03 300 
309 1 1 0.164495 0.407825 2.25668 0 0 0 -0 -0 -1 0 0 0 0 0 0 0.03 300 
234 1 1 0.396246 0.377563 2.26259 0 0 0 -0 -0 -1 0 0 0 0 0 0 0.03 300 
318 1 1 0.359003 0.427078 2.26033 0 0 0 -0 -0 -1 0 0 0 0 0 0 0.03 300 
184 1 1 0.446465 0.410676 2.27321 0 0 0 -0 -0 -1 0 0 0 0 0 0 0.03 300 
261 1 1 0.177868 0.470844 2.26335 0 0 0 -0 -0 -1 0 0 0 0 0 0 0.03 300 
223 1 1 0.10548 0.49309 2.28007 0 0 0 -0 -0 -1 0 0 0 0 0 0 0.03 300 
329 1 1 0.429505 0.520312 2.2595 0 0 0 -0 -0 -1 0 0 0 0 0 0 0.03 300 
315 1 1 0.216797 0.232457 2.30158 0 0 0 -0 -0 -1 0 0 0 0 0 0 0.03 300 
189 1 1 0.296506 0.266561 2.29407 0 0 0 -0 -0 -1 0 0 0 0 0 0 0.03 300 
219 1 1 0.410483 0.256917 2.32553 0 0 0 -0 -0 -1 0 0 0 0 0 0 0.03 300 
330 1 1 0.462592 0.233737 2.29699 0 0 0 -0 -0 -1 0 0 0 0 0 0 0.03 300 
202 1 1 0.125386 0.2781 2.3109 0 0 0 -0 -0 -1 0 0 0 0 0 0 0.03 300 
222 1 1 0.18233 0.36007 2.31255 0 0 0 -0 -0 -1 0 0 0 0 0 0 0.03 300 
191 1 1 0.12776 0.394841 2.31642 0 0 0 -0 -0 -1 0 0 0 0 0 0 0.03 300 
228 1 1 0.413169 0.40103 2.32234 0 0 0 -0 -0 -1 0 0 0 0 0 0 0.03 300 
242 1 1 0.493753 0.377377 2.31419 0 0 0 -0 -0 -1 0 0 0 0 0 0 0.03 300 
344 1 1 0.280536 0.422033 2.29742 0 0 0 -0 -0 -1 0 0 0 0 0 0 0.03 300 
269 1 1 0.324092 0.465876 2.30568 0 0 0 -0 -0 -1 0 0 0 0 0 0 0.03 300 
287 1 1 0.403036 0.471118 2.30135 0 0 0 -0 -0 -1 0 0 0 0 0 0 0.03 300 
266 1 1 0.482717 0.469458 2.29953 0 0 0 -0 -0 -1 0 0 0 0 0 0 0.03 300 
310 1 1 0.172992 0.51357 2.31251 0 0 0 -0 -0 -1 0 0 0 0 0 0 0.03 300 
210 1 1 0.236464 0.494005 2.29819 0 0 0 -0 -0 -1 0 0 0 0 0 0 0.03 300 
188 1 1 0.306795 0.524102 2.31006 0 0 0 -0 -0 -1 0 0 0 0 0 0 0.03 300 