ITEM: TIMESTEP
20000
ITEM: NUMBER OF ATOMS
176
ITEM: BOX BOUNDS ff ff ff
0 3.3
-0.3 0.8
-0.5 3
ITEM: ATOMS id type type x y z ix iy iz vx vy vz fx fy fz omegax omegay omegaz radius f_Temp[0] 
142 1 1 0.271856 0.292457 1.74991 0 0 0 0 0 -2.6136 0 0 -2.77371 0 0 0 0.03 300 
124 1 1 0.108395 0.326026 1.74816 0 0 0 0 0 -2.62017 0 0 -2.77371 0 0 0 0.03 300 
86 1 1 0.19434 0.331338 1.74351 0 0 0 0 0 -2.63753 0 0 -2.77371 0 0 0 0.03 300 
140 1 1 0.46939 0.484878 1.73734 0 0 0 0 0 -2.66039 0 0 -2.77371 0 0 0 0.03 300 
113 1 1 0.369388 0.526215 1.73771 0 0 0 0 0 -2.65902 0 0 -2.77371 0 0 0 0.03 300 
41 1 1 0.102233 0.267031 1.78042 0 0 0 0 0 -2.49647 0 0 -2.77371 0 0 0 0.03 300 
67 1 1 0.351021 0.24345 1.7547 0 0 0 0 0 -2.59555 0 0 -2.77371 0 0 0 0.03 300 
133 1 1 0.471209 0.311123 1.77091 0 0 0 0 0 -2.53355 0 0 -2.77371 0 0 0 0.03 300 
23 1 1 0.298609 0.364728 1.75877 0 0 0 0 0 -2.58015 0 0 -2.77371 0 0 0 0.03 300 
96 1 1 0.363069 0.380034 1.77566 0 0 0 0 0 -2.51511 0 0 -2.77371 0 0 0 0.03 300 
82 1 1 0.468787 0.384733 1.75062 0 0 0 0 0 -2.61095 0 0 -2.77371 0 0 0 0.03 300 
10 1 1 0.242338 0.433913 1.78599 0 0 0 0 0 -2.47449 0 0 -2.77371 0 0 0 0.03 300 
108 1 1 0.171365 0.231672 1.78969 0 0 0 0 0 -2.45978 0 0 -2.77371 0 0 0 0.03 300 
8 1 1 0.355542 0.30862 1.79758 0 0 0 0 0 -2.42809 0 0 -2.77371 0 0 0 0.03 300 
163 1 1 0.105414 0.438662 1.82012 0 0 0 0 0 -2.33529 0 0 -2.77371 0 0 0 0.03 300 
30 1 1 0.179788 0.4242 1.80898 0 0 0 0 0 -2.38159 0 0 -2.77371 0 0 0 0.03 300 
32 1 1 0.353388 0.44487 1.80312 0 0 0 0 0 -2.40563 0 0 -2.77371 0 0 0 0.03 300 
54 1 1 0.278399 0.490166 1.79824 0 0 0 0 0 -2.42544 0 0 -2.77371 0 0 0 0.03 300 
14 1 1 0.416144 0.265826 1.82597 0 0 0 0 0 -2.31057 0 0 -2.77371 0 0 0 0.03 300 
103 1 1 0.209546 0.484752 1.83879 0 0 0 0 0 -2.25543 0 0 -2.77371 0 0 0 0.03 300 
47 1 1 0.261488 0.255288 1.88773 0 0 0 0 0 -2.03147 0 0 -2.77371 0 0 0 0.03 300 
122 1 1 0.225457 0.365207 1.86113 0 0 0 0 0 -2.15616 0 0 -2.77371 0 0 0 0.03 300 
45 1 1 0.40205 0.339714 1.87795 0 0 0 0 0 -2.07817 0 0 -2.77371 0 0 0 0.03 300 
174 1 1 0.478905 0.416329 1.88647 0 0 0 0 0 -2.03755 0 0 -2.77371 0 0 0 0.03 300 
100 1 1 0.448041 0.468779 1.86763 0 0 0 0 0 -2.12634 0 0 -2.77371 0 0 0 0.03 300 
63 1 1 0.14636 0.503077 1.86374 0 0 0 0 0 -2.14419 0 0 -2.77371 0 0 0 0.03 300 
120 1 1 0.108446 0.229956 1.9062 0 0 0 0 0 -1.94024 0 0 -2.77371 0 0 0 0.03 300 
85 1 1 0.47306 0.247248 1.9251 0 0 0 0 0 -1.84224 0 0 -2.77371 0 0 0 0.03 300 
112 1 1 0.200031 0.295208 1.90784 0 0 0 0 0 -1.9319 0 0 -2.77371 0 0 0 0.03 300 
60 1 1 0.321495 0.290282 1.91697 0 0 0 0 0 -1.88501 0 0 -2.77371 0 0 0 0.03 300 
64 1 1 0.141892 0.342884 1.92206 0 0 0 0 0 -1.85833 0 0 -2.77371 0 0 0 0.03 300 
79 1 1 0.320497 0.448247 1.92126 0 0 0 0 0 -1.86254 0 0 -2.77371 0 0 0 0.03 300 
39 1 1 0.380355 0.466663 1.9236 0 0 0 0 0 -1.85018 0 0 -2.77371 0 0 0 0.03 300 
172 1 1 0.339305 0.526873 1.90232 0 0 0 0 0 -1.95976 0 0 -2.77371 0 0 0 0.03 300 
162 1 1 0.428387 0.521279 1.91561 0 0 0 0 0 -1.89207 0 0 -2.77371 0 0 0 0.03 300 
13 1 1 0.121033 0.279919 1.96645 0 0 0 0 0 -1.60699 0 0 -2.77371 0 0 0 0.03 300 
87 1 1 0.377721 0.27376 1.94879 0 0 0 0 0 -1.71147 0 0 -2.77371 0 0 0 0.03 300 
59 1 1 0.253616 0.343212 1.97001 0 0 0 0 0 -1.58512 0 0 -2.77371 0 0 0 0.03 300 
131 1 1 0.248477 0.419376 1.93979 0 0 0 0 0 -1.76229 0 0 -2.77371 0 0 0 0.03 300 
78 1 1 0.178322 0.227864 1.98157 0 0 0 0 0 -1.51193 0 0 -2.77371 0 0 0 0.03 300 
46 1 1 0.47999 0.300848 1.99863 0 0 0 0 0 -1.39686 0 0 -2.77371 0 0 0 0.03 300 
29 1 1 0.368876 0.379155 1.99353 0 0 0 0 0 -1.43218 0 0 -2.77371 0 0 0 0.03 300 
36 1 1 0.450724 0.395688 1.99064 0 0 0 0 0 -1.4518 0 0 -2.77371 0 0 0 0.03 300 
66 1 1 0.47867 0.463 2.00292 0 0 0 0 0 -1.36635 0 0 -2.77371 0 0 0 0.03 300 
152 1 1 0.163069 0.521312 1.98132 0 0 0 0 0 -1.5135 0 0 -2.77371 0 0 0 0.03 300 
109 1 1 0.275498 0.521202 1.97304 0 0 0 0 0 -1.56628 0 0 -2.77371 0 0 0 0.03 300 
168 1 1 0.476176 0.52212 1.98728 0 0 0 0 0 -1.47436 0 0 -2.77371 0 0 0 0.03 300 
49 1 1 0.281286 0.254094 2.03525 0 0 0 0 0 -1.11022 0 0 -2.77371 0 0 0 0.03 300 
155 1 1 0.415544 0.252674 2.03608 0 0 0 0 0 -1.10286 0 0 -2.77371 0 0 0 0.03 300 
101 1 1 0.162335 0.320161 2.04208 0 0 0 0 0 -1.04822 0 0 -2.77371 0 0 0 0.03 300 
173 1 1 0.336956 0.309745 2.01924 0 0 0 0 0 -1.24373 0 0 -2.77371 0 0 0 0.03 300 
42 1 1 0.226232 0.388276 2.03641 0 0 0 0 0 -1.09991 0 0 -2.77371 0 0 0 0.03 300 
69 1 1 0.10427 0.421706 2.02316 0 0 0 0 0 -1.21234 0 0 -2.77371 0 0 0 0.03 300 
145 1 1 0.320399 0.410893 2.01949 0 0 0 0 0 -1.24177 0 0 -2.77371 0 0 0 0.03 300 
167 1 1 0.400748 0.432213 2.01021 0 0 0 0 0 -1.31299 0 0 -2.77371 0 0 0 0.03 300 
121 1 1 0.170319 0.453329 2.02249 0 0 0 0 0 -1.21783 0 0 -2.77371 0 0 0 0.03 300 
99 1 1 0.274564 0.455213 2.03375 0 0 0 0 0 -1.12346 0 0 -2.77371 0 0 0 0.03 300 
18 1 1 0.427577 0.512648 2.03719 0 0 0 0 0 -1.09295 0 0 -2.77371 0 0 0 0.03 300 
156 1 1 0.35506 0.52072 2.03118 0 0 0 0 0 -1.14563 0 0 -2.77371 0 0 0 0.03 300 
58 1 1 0.112056 0.26459 2.05511 0 0 0 -0 -0 -1 0 0 0 0 0 0 0.03 300 
80 1 1 0.478513 0.241448 2.07413 0 0 0 -0 -0 -1 0 0 0 0 0 0 0.03 300 
91 1 1 0.235855 0.316318 2.04734 0 0 0 -0 -0 -1 0 0 0 0 0 0 0.03 300 
81 1 1 0.388958 0.319017 2.05434 0 0 0 -0 -0 -1 0 0 0 0 0 0 0.03 300 
143 1 1 0.326798 0.368865 2.07847 0 0 0 -0 -0 -1 0 0 0 0 0 0 0.03 300 
130 1 1 0.385847 0.398302 2.06535 0 0 0 -0 -0 -1 0 0 0 0 0 0 0.03 300 
92 1 1 0.481853 0.374694 2.05939 0 0 0 -0 -0 -1 0 0 0 0 0 0 0.03 300 
105 1 1 0.377689 0.467755 2.05796 0 0 0 -0 -0 -1 0 0 0 0 0 0 0.03 300 
118 1 1 0.120657 0.516447 2.04978 0 0 0 -0 -0 -1 0 0 0 0 0 0 0.03 300 
117 1 1 0.191604 0.522741 2.07687 0 0 0 -0 -0 -1 0 0 0 0 0 0 0.03 300 
158 1 1 0.2596 0.52473 2.0634 0 0 0 -0 -0 -1 0 0 0 0 0 0 0.03 300 
157 1 1 0.485815 0.521722 2.06134 0 0 0 -0 -0 -1 0 0 0 0 0 0 0.03 300 
15 1 1 0.188775 0.261917 2.08056 0 0 0 -0 -0 -1 0 0 0 0 0 0 0.03 300 
125 1 1 0.33817 0.237417 2.11459 0 0 0 -0 -0 -1 0 0 0 0 0 0 0.03 300 
76 1 1 0.262374 0.280345 2.08987 0 0 0 -0 -0 -1 0 0 0 0 0 0 0.03 300 
159 1 1 0.463712 0.3119 2.09984 0 0 0 -0 -0 -1 0 0 0 0 0 0 0.03 300 
3 1 1 0.103577 0.34242 2.10356 0 0 0 -0 -0 -1 0 0 0 0 0 0 0.03 300 
132 1 1 0.181507 0.370772 2.10538 0 0 0 -0 -0 -1 0 0 0 0 0 0 0.03 300 
135 1 1 0.110104 0.424702 2.08578 0 0 0 -0 -0 -1 0 0 0 0 0 0 0.03 300 
50 1 1 0.301622 0.417346 2.10549 0 0 0 -0 -0 -1 0 0 0 0 0 0 0.03 300 
61 1 1 0.174746 0.456274 2.08564 0 0 0 -0 -0 -1 0 0 0 0 0 0 0.03 300 
169 1 1 0.252456 0.475054 2.10084 0 0 0 -0 -0 -1 0 0 0 0 0 0 0.03 300 
9 1 1 0.441781 0.458388 2.08688 0 0 0 -0 -0 -1 0 0 0 0 0 0 0.03 300 
16 1 1 0.119943 0.514428 2.11329 0 0 0 -0 -0 -1 0 0 0 0 0 0 0.03 300 
83 1 1 0.499782 0.483801 2.10999 0 0 0 -0 -0 -1 0 0 0 0 0 0 0.03 300 
2 1 1 0.337972 0.524085 2.09555 0 0 0 -0 -0 -1 0 0 0 0 0 0 0.03 300 
139 1 1 0.137853 0.229319 2.13735 0 0 0 -0 -0 -1 0 0 0 0 0 0 0.03 300 
88 1 1 0.486268 0.228152 2.13553 0 0 0 -0 -0 -1 0 0 0 0 0 0 0.03 300 
7 1 1 0.417913 0.266516 2.13805 0 0 0 -0 -0 -1 0 0 0 0 0 0 0.03 300 
19 1 1 0.315839 0.298576 2.117 0 0 0 -0 -0 -1 0 0 0 0 0 0 0.03 300 
51 1 1 0.201805 0.313726 2.13925 0 0 0 -0 -0 -1 0 0 0 0 0 0 0.03 300 
94 1 1 0.273851 0.347383 2.12506 0 0 0 -0 -0 -1 0 0 0 0 0 0 0.03 300 
20 1 1 0.379347 0.368828 2.11897 0 0 0 -0 -0 -1 0 0 0 0 0 0 0.03 300 
56 1 1 0.445152 0.350079 2.14959 0 0 0 -0 -0 -1 0 0 0 0 0 0 0.03 300 
151 1 1 0.494801 0.397371 2.11852 0 0 0 -0 -0 -1 0 0 0 0 0 0 0.03 300 
27 1 1 0.362553 0.476213 2.12257 0 0 0 -0 -0 -1 0 0 0 0 0 0 0.03 300 
57 1 1 0.255601 0.512634 2.14984 0 0 0 -0 -0 -1 0 0 0 0 0 0 0.03 300 
137 1 1 0.250314 0.231914 2.16548 0 0 0 -0 -0 -1 0 0 0 0 0 0 0.03 300 
165 1 1 0.36833 0.235983 2.16656 0 0 0 -0 -0 -1 0 0 0 0 0 0 0.03 300 
12 1 1 0.150682 0.290471 2.1748 0 0 0 -0 -0 -1 0 0 0 0 0 0 0.03 300 
144 1 1 0.368613 0.311971 2.15108 0 0 0 -0 -0 -1 0 0 0 0 0 0 0.03 300 
104 1 1 0.324371 0.382136 2.1586 0 0 0 -0 -0 -1 0 0 0 0 0 0 0.03 300 
77 1 1 0.218563 0.442358 2.15235 0 0 0 -0 -0 -1 0 0 0 0 0 0 0.03 300 
24 1 1 0.44361 0.420007 2.15405 0 0 0 -0 -0 -1 0 0 0 0 0 0 0.03 300 
34 1 1 0.161462 0.479607 2.16776 0 0 0 -0 -0 -1 0 0 0 0 0 0 0.03 300 
4 1 1 0.283869 0.446206 2.16761 0 0 0 -0 -0 -1 0 0 0 0 0 0 0.03 300 
149 1 1 0.457968 0.50649 2.15254 0 0 0 -0 -0 -1 0 0 0 0 0 0 0.03 300 
75 1 1 0.387927 0.516304 2.16092 0 0 0 -0 -0 -1 0 0 0 0 0 0 0.03 300 
114 1 1 0.101873 0.240116 2.21116 0 0 0 -0 -0 -1 0 0 0 0 0 0 0.03 300 
115 1 1 0.29951 0.265646 2.19216 0 0 0 -0 -0 -1 0 0 0 0 0 0 0.03 300 
1 1 1 0.44893 0.24186 2.21297 0 0 0 -0 -0 -1 0 0 0 0 0 0 0.03 300 
170 1 1 0.448147 0.302404 2.19869 0 0 0 -0 -0 -1 0 0 0 0 0 0 0.03 300 
11 1 1 0.20764 0.30353 2.20911 0 0 0 -0 -0 -1 0 0 0 0 0 0 0.03 300 
71 1 1 0.27192 0.349064 2.2139 0 0 0 -0 -0 -1 0 0 0 0 0 0 0.03 300 
21 1 1 0.18594 0.400862 2.18782 0 0 0 -0 -0 -1 0 0 0 0 0 0 0.03 300 
126 1 1 0.387846 0.395075 2.19081 0 0 0 -0 -0 -1 0 0 0 0 0 0 0.03 300 
160 1 1 0.115232 0.435564 2.20022 0 0 0 -0 -0 -1 0 0 0 0 0 0 0.03 300 
106 1 1 0.375691 0.47682 2.20766 0 0 0 -0 -0 -1 0 0 0 0 0 0 0.03 300 
129 1 1 0.201147 0.51232 2.20784 0 0 0 -0 -0 -1 0 0 0 0 0 0 0.03 300 
89 1 1 0.26845 0.48437 2.21991 0 0 0 -0 -0 -1 0 0 0 0 0 0 0.03 300 
26 1 1 0.474436 0.482152 2.20708 0 0 0 -0 -0 -1 0 0 0 0 0 0 0.03 300 
161 1 1 0.383875 0.233035 2.2362 0 0 0 -0 -0 -1 0 0 0 0 0 0 0.03 300 
146 1 1 0.495146 0.246598 2.25254 0 0 0 -0 -0 -1 0 0 0 0 0 0 0.03 300 
127 1 1 0.381994 0.300043 2.2408 0 0 0 -0 -0 -1 0 0 0 0 0 0 0.03 300 
33 1 1 0.10471 0.363257 2.22227 0 0 0 -0 -0 -1 0 0 0 0 0 0 0.03 300 
35 1 1 0.342434 0.364463 2.22618 0 0 0 -0 -0 -1 0 0 0 0 0 0 0.03 300 
44 1 1 0.485944 0.343638 2.25039 0 0 0 -0 -0 -1 0 0 0 0 0 0 0.03 300 
166 1 1 0.165431 0.374869 2.25499 0 0 0 -0 -0 -1 0 0 0 0 0 0 0.03 300 
141 1 1 0.429803 0.380165 2.24189 0 0 0 -0 -0 -1 0 0 0 0 0 0 0.03 300 
38 1 1 0.303454 0.414467 2.23292 0 0 0 -0 -0 -1 0 0 0 0 0 0 0.03 300 
111 1 1 0.473074 0.424163 2.24635 0 0 0 -0 -0 -1 0 0 0 0 0 0 0.03 300 
154 1 1 0.211019 0.445658 2.22167 0 0 0 -0 -0 -1 0 0 0 0 0 0 0.03 300 
119 1 1 0.126835 0.482642 2.25437 0 0 0 -0 -0 -1 0 0 0 0 0 0 0.03 300 
90 1 1 0.102204 0.238351 2.28553 0 0 0 -0 -0 -1 0 0 0 0 0 0 0.03 300 
97 1 1 0.184928 0.234672 2.27277 0 0 0 -0 -0 -1 0 0 0 0 0 0 0.03 300 
74 1 1 0.248328 0.247523 2.27851 0 0 0 -0 -0 -1 0 0 0 0 0 0 0.03 300 
62 1 1 0.329189 0.252757 2.2882 0 0 0 -0 -0 -1 0 0 0 0 0 0 0.03 300 
5 1 1 0.160428 0.3182 2.27871 0 0 0 -0 -0 -1 0 0 0 0 0 0 0.03 300 
175 1 1 0.230789 0.339127 2.28237 0 0 0 -0 -0 -1 0 0 0 0 0 0 0.03 300 
28 1 1 0.222318 0.404493 2.26476 0 0 0 -0 -0 -1 0 0 0 0 0 0 0.03 300 
37 1 1 0.41824 0.41741 2.29001 0 0 0 -0 -0 -1 0 0 0 0 0 0 0.03 300 
93 1 1 0.225968 0.488444 2.27161 0 0 0 -0 -0 -1 0 0 0 0 0 0 0.03 300 
17 1 1 0.345254 0.512161 2.29021 0 0 0 -0 -0 -1 0 0 0 0 0 0 0.03 300 
134 1 1 0.443832 0.509496 2.27848 0 0 0 -0 -0 -1 0 0 0 0 0 0 0.03 300 
40 1 1 0.408343 0.240904 2.3208 0 0 0 -0 -0 -1 0 0 0 0 0 0 0.03 300 
43 1 1 0.460616 0.284913 2.29675 0 0 0 -0 -0 -1 0 0 0 0 0 0 0.03 300 
95 1 1 0.346797 0.327727 2.29259 0 0 0 -0 -0 -1 0 0 0 0 0 0 0.03 300 
68 1 1 0.400811 0.324654 2.32473 0 0 0 -0 -0 -1 0 0 0 0 0 0 0.03 300 
25 1 1 0.278223 0.363632 2.31196 0 0 0 -0 -0 -1 0 0 0 0 0 0 0.03 300 
123 1 1 0.48159 0.360101 2.31449 0 0 0 -0 -0 -1 0 0 0 0 0 0 0.03 300 
116 1 1 0.152794 0.405213 2.30527 0 0 0 -0 -0 -1 0 0 0 0 0 0 0.03 300 
128 1 1 0.355123 0.421294 2.29732 0 0 0 -0 -0 -1 0 0 0 0 0 0 0.03 300 
98 1 1 0.491139 0.43458 2.31869 0 0 0 -0 -0 -1 0 0 0 0 0 0 0.03 300 
138 1 1 0.301221 0.470777 2.30913 0 0 0 -0 -0 -1 0 0 0 0 0 0 0.03 300 
72 1 1 0.10161 0.511094 2.32218 0 0 0 -0 -0 -1 0 0 0 0 0 0 0.03 300 
22 1 1 0.254767 0.230824 2.35097 0 0 0 -0 -0 -1 0 0 0 0 0 0 0.03 300 
73 1 1 0.170916 0.265084 2.35451 0 0 0 -0 -0 -1 0 0 0 0 0 0 0.03 300 
171 1 1 0.477654 0.251099 2.35033 0 0 0 -0 -0 -1 0 0 0 0 0 0 0.03 300 
110 1 1 0.10205 0.273683 2.35359 0 0 0 -0 -0 -1 0 0 0 0 0 0 0.03 300 
107 1 1 0.303471 0.271065 2.3597 0 0 0 -0 -0 -1 0 0 0 0 0 0 0.03 300 
31 1 1 0.221691 0.336081 2.34246 0 0 0 -0 -0 -1 0 0 0 0 0 0 0.03 300 
84 1 1 0.227036 0.399722 2.33273 0 0 0 -0 -0 -1 0 0 0 0 0 0 0.03 300 
148 1 1 0.12082 0.460146 2.35005 0 0 0 -0 -0 -1 0 0 0 0 0 0 0.03 300 
55 1 1 0.200976 0.455034 2.32831 0 0 0 -0 -0 -1 0 0 0 0 0 0 0.03 300 
136 1 1 0.374023 0.456818 2.34267 0 0 0 -0 -0 -1 0 0 0 0 0 0 0.03 300 
65 1 1 0.421483 0.499457 2.35254 0 0 0 -0 -0 -1 0 0 0 0 0 0 0.03 300 
150 1 1 0.481625 0.503918 2.3572 0 0 0 -0 -0 -1 0 0 0 0 0 0 0.03 300 
48 1 1 0.17066 0.517967 2.33622 0 0 0 -0 -0 -1 0 0 0 0 0 0 0.03 300 
164 1 1 0.244978 0.28843 2.37115 0 0 0 -0 -0 -1 0 0 0 0 0 0 0.03 300 
70 1 1 0.142707 0.355749 2.36494 0 0 0 -0 -0 -1 0 0 0 0 0 0 0.03 300 
53 1 1 0.294932 0.364362 2.37 0 0 0 -0 -0 -1 0 0 0 0 0 0 0.03 300 
102 1 1 0.419044 0.351535 2.37593 0 0 0 -0 -0 -1 0 0 0 0 0 0 0.03 300 
176 1 1 0.349719 0.399621 2.37537 0 0 0 -0 -0 -1 0 0 0 0 0 0 0.03 300 
153 1 1 0.496538 0.392613 2.36762 0 0 0 -0 -0 -1 0 0 0 0 0 0 0.03 300 
6 1 1 0.317689 0.454971 2.3724 0 0 0 -0 -0 -1 0 0 0 0 0 0 0.03 300 
147 1 1 0.248507 0.49546 2.37684 0 0 0 -0 -0 -1 0 0 0 0 0 0 0.03 300 
52 1 1 0.358392 0.516981 2.37661 0 0 0 -0 -0 -1 0 0 0 0 0 0 0.03 300 
