ITEM: TIMESTEP
106000
ITEM: NUMBER OF ATOMS
527
ITEM: BOX BOUNDS ff ff ff
0 3.3
-0.3 0.8
-0.5 3
ITEM: ATOMS id type type x y z ix iy iz vx vy vz fx fy fz omegax omegay omegaz radius f_Temp[0] 
213 1 1 0.194577 0.184139 1.584 0 0 0 1.02876 0.364369 -0.411166 0 0 -2.77371 -9.15045 -90.7354 50.3283 0.03 317.491 
248 1 1 0.334331 0.188087 1.57708 0 0 0 1.72703 0.160445 -0.229517 -9.73763 -15.5402 -10.2912 -18.629 -66.8703 21.4463 0.03 316.627 
97 1 1 0.417771 0.187787 1.57603 0 0 0 1.33878 -0.250531 -0.389982 -13.9258 -11.5267 -9.57032 5.57417 -86.4235 30.4755 0.03 342.287 
22 1 1 0.586468 0.192459 1.5768 0 0 0 2.18344 -0.0141938 0.0104752 -0.248064 0.0142364 0.567137 0.418257 -61.8844 -23.5742 0.03 326.909 
288 1 1 0.640477 0.164798 1.59841 0 0 0 2.33067 -0.0641196 0.0616664 0.0046623 0.0130183 -2.73642 7.52993 -36.8718 40.0793 0.03 322.343 
90 1 1 0.728635 0.185373 1.57689 0 0 0 2.41108 0.0889952 -0.115475 -0.339918 4.25418 8.62302 -5 -37.2365 33.1802 0.03 345.784 
114 1 1 0.784095 0.174853 1.59468 0 0 0 2.38651 -0.155816 -0.396806 12.9375 2.93269 6.06806 1.53326 11.4693 -1.16807 0.03 334.532 
221 1 1 0.874648 0.174947 1.58868 0 0 0 2.6493 0.00520118 0.00283762 -7.28021 -3.90647 -4.84213 19.9643 -15.6493 14.6924 0.03 310.387 
51 1 1 0.929174 0.196453 1.57657 0 0 0 2.32769 0.111154 0.132258 0.284637 4.41505 -3.50686 -1.48827 -32.2751 5.73396 0.03 335.594 
171 1 1 0.987838 0.189271 1.57974 0 0 0 2.50042 0.518145 -0.172279 3.39436 -0.351495 1.17923 -3.33196 29.2404 9.69327 0.03 303.884 
40 1 1 1.12955 0.184685 1.57777 0 0 0 2.85682 -0.0444378 -0.182449 4.10367 7.04199 15.5396 4.06805 -40.5359 8.4837 0.03 339.797 
58 1 1 1.19331 0.164358 1.59858 0 0 0 2.78726 0.0698306 -0.061815 0.00267412 0.662579 -0.950348 -2.93972 -23.2354 34.1201 0.03 363.612 
141 1 1 1.25942 0.190922 1.57665 0 0 0 3.04629 0.030945 0.00635931 -5.14516 -0.763447 -0.075883 -1.87637 -12.7484 -7.78173 0.03 318.847 
161 1 1 1.31851 0.187151 1.57699 0 0 0 3.10966 -0.163023 -0.0332026 -5.10923 -7.90217 -4.28685 -9.75688 -9.68717 10.2216 0.03 347.025 
165 1 1 1.42628 0.184305 1.57852 0 0 0 2.50974 0.278496 -0.272616 0.00143242 2.04886 -0.350111 -13.6419 -35.7103 34.9645 0.03 338.215 
88 1 1 1.60944 0.187843 1.57692 0 0 0 2.87585 -0.028138 0.0026246 1.11551 -0.210444 -0.487176 0.945747 -37.5668 -8.76325 0.03 331.212 
164 1 1 0.676617 0.214792 1.57683 0 0 0 2.34321 -0.106991 -0.0065811 -0.997869 0.383664 -0.559032 4.76584 -53.3703 -18.8722 0.03 325.668 
3 1 1 0.820941 0.220392 1.57763 0 0 0 2.69416 0.0462305 0.0403703 0 0 -2.77371 0.207646 -44.9092 -2.75213 0.03 362.958 
95 1 1 1.0825 0.224137 1.57677 0 0 0 2.89338 0.0291984 0.016851 0.06381 -0.251572 0.918952 -0.894891 -37.1021 -8.94928 0.03 322.311 
91 1 1 1.1908 0.220065 1.57641 0 0 0 2.7132 0.0536873 -0.196751 -2.76851 -2.49328 -1.93101 -5.94634 -40.9648 -4.01732 0.03 342.653 
15 1 1 1.37067 0.214786 1.57652 0 0 0 2.85989 0.206588 0.0379987 9.23268 9.30271 7.70641 -15.4617 -21.2485 14.3377 0.03 358.875 
173 1 1 1.55136 0.202252 1.57667 0 0 0 2.87172 -0.0508753 -0.0140974 -0.0350362 -1.2611 1.88672 -0.460341 -37.028 18.7998 0.03 339.106 
258 1 1 0.0787696 0.249975 1.57698 0 0 0 -0.0159873 -0.695154 0.618482 -4.87031 -0.801547 -25.3794 23.4921 -135.698 -22.115 0.03 303.678 
185 1 1 0.208126 0.251499 1.5769 0 0 0 1.67661 0.212009 0.104559 -17.192 -18.7824 -111.633 -2.70477 -65.4712 -1.25954 0.03 305.251 
230 1 1 0.373995 0.231505 1.57721 0 0 0 1.82295 -0.169411 0.0543654 15.4609 24.06 10.5521 -1.21317 4.82936 -25.0337 0.03 306.014 
180 1 1 0.439582 0.248205 1.57937 0 0 0 1.62154 0.651137 -0.3718 14.7488 2.75407 12.484 16.1457 -64.1333 -45.1239 0.03 308.13 
132 1 1 0.503915 0.24191 1.58491 0 0 0 1.59665 -0.454286 0.141422 0 0 -2.77371 15.4243 -82.1154 -8.34568 0.03 343.233 
110 1 1 0.622458 0.244921 1.57697 0 0 0 2.35779 0.0922856 0.0602267 1.03967 1.53573 -4.69922 -3.17467 -54.9379 10.3518 0.03 342.556 
107 1 1 0.720825 0.260575 1.57684 0 0 0 2.26413 -0.0327189 -0.00425786 0.0207521 -0.00180643 0.659417 1.09671 -58.139 -1.88558 0.03 318.278 
5 1 1 0.908316 0.25584 1.57686 0 0 0 2.36702 0.0135184 -2.36543e-05 9.4279e-05 -7.91799e-07 0.00303371 -0.452461 -54.6558 -17.1391 0.03 343.974 
12 1 1 0.984989 0.250435 1.57693 0 0 0 2.67476 0.190943 0.0574863 0.404676 0.376813 -3.55654 -15.1797 -34.9841 -8.26221 0.03 343.653 
146 1 1 1.31565 0.246768 1.58118 0 0 0 2.51295 0.013891 -0.582554 2.48104 -3.16417 -1.6409 0.604652 66.5939 -4.36856 0.03 305.487 
78 1 1 1.41929 0.24845 1.57767 0 0 0 2.72654 0.564658 0.223018 18.9133 -4.15844 9.53343 -19.1434 -35.5507 -3.64909 0.03 350.542 
120 1 1 1.49481 0.25768 1.57663 0 0 0 2.5526 0.0347749 0.0198062 0.625107 0.811416 4.24195 -0.376328 -48.7085 -19.9025 0.03 378.714 
125 1 1 1.56731 0.259538 1.57803 0 0 0 2.7401 0.0229404 0.0769348 1.41897 0.0133258 1.69133 -0.585557 -37.1257 -5.1129 0.03 349.488 
197 1 1 0.160702 0.296589 1.57593 0 0 0 1.02029 -0.0832056 0.626941 -18.2594 2.1437 -15.7225 1.94159 -108.958 9.16279 0.03 303.45 
206 1 1 0.256882 0.291542 1.57897 0 0 0 1.07468 0.128055 -0.377311 -0.117819 0.0431564 -2.86342 10.0886 -68.3513 19.3254 0.03 315.727 
351 1 1 0.3147 0.284044 1.59097 0 0 0 1.26325 0.372928 -0.323465 0.117819 -0.0431564 -2.684 54.7922 5.87798 -18.8895 0.03 304.969 
70 1 1 0.659894 0.291615 1.57978 0 0 0 2.50411 0.107467 -0.0607083 -1.12949 -1.21178 -2.05173 -13.1511 -22.7011 -11.0075 0.03 335.199 
127 1 1 1.02925 0.290795 1.57914 0 0 0 2.7478 0.145036 0.0708886 -0.154519 -0.140882 -2.67862 -7.59628 -38.4464 3.05067 0.03 321.122 
19 1 1 1.14526 0.273702 1.57686 0 0 0 2.8809 0.308729 -0.000461125 0.0011935 -0.000330961 0.0364126 -10.3334 -37.4568 -12.8492 0.03 316.996 
13 1 1 1.26393 0.276526 1.57679 0 0 0 2.54713 0.157768 -0.0058772 0.784814 0.117378 0.000534528 -5.10243 -48.4305 4.08675 0.03 386.915 
64 1 1 1.37295 0.285423 1.57674 0 0 0 2.49891 0.0364184 -0.0629443 -8.15422 6.53509 -2.07433 1.85238 -46.4665 22.391 0.03 377.506 
7 1 1 1.45252 0.304128 1.57786 0 0 0 2.64226 0.265096 -0.152105 -23.6877 0.450051 -17.7484 -2.10953 -14.4783 -18.4407 0.03 307.235 
144 1 1 1.61691 0.295073 1.57686 0 0 0 2.72792 -0.0110535 -7.09403e-06 2.27002e-05 1.96641e-07 0.0011432 0.369961 -42.5765 18.123 0.03 354.008 
257 1 1 0.0380291 0.32886 1.57852 0 0 0 0.162631 0.108382 -0.0202193 0 0 -2.77371 -16.4482 -103.927 2.33812 0.03 310.055 
339 1 1 0.38662 0.322748 1.57616 0 0 0 1.82716 0.0693975 0.243626 -3.18967 1.97845 -30.9517 -1.13563 -75.2116 7.89264 0.03 338.075 
209 1 1 0.601061 0.308722 1.57684 0 0 0 2.4306 0.0399495 -0.0462592 6.25323 0.704886 -3.59099 -0.892035 -51.4615 -4.69364 0.03 311.39 
313 1 1 0.758495 0.312292 1.57711 0 0 0 2.20004 0.107702 0.111609 0 0 -2.77371 -3.59385 -60.1569 -10.8167 0.03 309.302 
166 1 1 0.857763 0.327915 1.57686 0 0 0 2.28816 -0.271306 -2.39464e-05 0.000197677 3.13269e-05 0.0283181 9.08096 -57.2976 17.9709 0.03 343.553 
175 1 1 0.976263 0.3218 1.57682 0 0 0 2.82895 0.378738 -0.00290594 1.84909 0.143706 0.935614 -14.1754 -20.056 10.4687 0.03 324.14 
225 1 1 1.0834 0.312351 1.59603 0 0 0 2.973 0.315115 -0.419609 0 0 -2.77371 -5.61109 53.672 -2.55899 0.03 301.152 
35 1 1 1.14303 0.336231 1.57708 0 0 0 2.74026 -0.0801912 0.0666467 -0.0633749 -0.0523284 -4.40125 2.90454 -41.7496 2.11914 0.03 337.373 
11 1 1 1.19649 0.308961 1.57722 0 0 0 2.95459 0.116155 0.0222283 0 0 -2.77371 -2.61984 -32.9989 -1.82626 0.03 361.776 
123 1 1 1.31504 0.307472 1.57695 0 0 0 2.58843 0.108069 0.00863061 1.61014 0.998294 -0.751268 -3.5567 -47.2725 -5.40472 0.03 337.039 
56 1 1 1.5382 0.311593 1.57682 0 0 0 2.71541 -0.0615606 -0.0199585 11.0182 6.55009 -5.02627 2.37266 -42.1653 -8.90405 0.03 341.965 
316 1 1 0.104959 0.365895 1.57869 0 0 0 0.752956 0.233692 -0.043587 0 0 -2.77371 -35.1889 -4.27418 -1.61954 0.03 303.369 
298 1 1 0.217892 0.348882 1.57678 0 0 0 1.22805 0.229353 0.0367911 0.518485 0.333202 -0.258454 -7.90599 -92.57 -3.66703 0.03 321.432 
31 1 1 0.430421 0.36373 1.5754 0 0 0 2.02518 0.340766 0.23177 11.511 -6.70866 42.1766 -7.49734 -56.8792 -11.2397 0.03 322.921 
340 1 1 0.517197 0.34514 1.58008 0 0 0 2.42002 -0.00434653 0.230905 0 0 -2.77371 -0.472115 -58.3531 4.79815 0.03 310.144 
53 1 1 0.626808 0.364614 1.58296 0 0 0 2.18347 0.248568 -0.0319844 0 0 -2.77371 -19.706 -64.6276 0.782016 0.03 321.381 
38 1 1 0.914974 0.367228 1.57682 0 0 0 2.35334 0.131583 0.0128475 -0.045643 0.00385307 0.0543408 -4.41134 -55.1698 -3.55659 0.03 340.083 
187 1 1 1.01747 0.365452 1.58396 0 0 0 2.36547 0.427867 -1.05029 0 0 -2.77371 22.2103 -37.1063 -13.1042 0.03 300.364 
94 1 1 1.2485 0.344674 1.57639 0 0 0 2.91874 0.318034 0.119518 -1.14795 -1.63187 0.819831 -9.89551 -36.6378 -6.03003 0.03 353.84 
126 1 1 1.30853 0.36862 1.57682 0 0 0 3.1498 0.282067 0.0104208 -0.181723 0.0429217 0.320957 -9.45204 -28.4878 -12.4759 0.03 335.274 
24 1 1 1.36596 0.360044 1.59394 0 0 0 3.14125 0.0712263 -0.0918396 0 0 -2.77371 -6.43161 2.36577 1.64461 0.03 304.134 
143 1 1 1.52458 0.369471 1.58151 0 0 0 2.64918 -0.0555147 -0.00773551 0.989455 2.64982 -1.73363 17.6093 -42.4209 3.1389 0.03 368.16 
124 1 1 1.60993 0.37493 1.57686 0 0 0 2.42636 0.248962 -1.56161e-05 5.50076e-05 -8.68545e-06 0.000624779 -8.33275 -52.6696 -7.93824 0.03 378.471 
300 1 1 0.353115 0.381737 1.57604 0 0 0 2.38659 -0.452831 0.0281115 -6.30331 -1.32519 7.48845 14.0115 -57.0446 6.33121 0.03 323.575 
233 1 1 0.741616 0.378189 1.5757 0 0 0 2.76474 -0.246045 0.216972 10.6313 -4.29821 20.1608 6.98166 -45.6507 5.70428 0.03 302.18 
128 1 1 0.815502 0.399388 1.57685 0 0 0 2.57601 0.0794276 0.00937454 -0.0254942 0.0268397 -0.169298 -2.69896 -47.6781 -6.99507 0.03 316.24 
291 1 1 1.10322 0.387126 1.57685 0 0 0 2.87737 -0.162077 0.0285266 0.300014 1.25782 -1.29018 -13.6736 -28.5223 -1.9403 0.03 314.606 
289 1 1 0.138275 0.415928 1.58027 0 0 0 1.09066 0.140963 0.507938 0 0 -2.77371 -5.34422 -96.9266 -7.4597 0.03 322.969 
270 1 1 0.37371 0.441807 1.57504 0 0 0 2.1812 0.302518 -0.107391 -24.3084 -6.38581 -13.8916 -15.9722 -58.1311 -5.62411 0.03 306.585 
148 1 1 0.455001 0.41971 1.58126 0 0 0 1.84161 -0.0605273 -0.0537742 0 0 -2.77371 3.21929 -71.7333 -11.5379 0.03 332.741 
176 1 1 0.732077 0.444735 1.57687 0 0 0 2.34585 0.291447 0.00597865 -0.00206929 -0.0311576 -0.480609 -9.69773 -55.3161 3.79907 0.03 324.381 
77 1 1 0.940896 0.422619 1.57686 0 0 0 2.11661 0.198408 -0.000892452 0.00356683 -0.00038677 -0.00589006 -6.64017 -63.032 4.58591 0.03 347.384 
135 1 1 1.11976 0.444634 1.57684 0 0 0 2.86708 -0.093647 -0.00632502 -0.555502 0.733366 0.672844 -6.03996 -42.0233 0.792932 0.03 363.225 
101 1 1 1.24697 0.410713 1.57701 0 0 0 2.84617 -0.00188507 0.00113516 -0.403405 -1.70676 -1.39731 -1.49847 -39.2238 -2.39787 0.03 365.054 
170 1 1 1.49979 0.423715 1.57678 0 0 0 2.87932 0.0839482 0.0127241 0.83404 -1.11432 0.588018 12.1168 -27.2813 -5.80569 0.03 351.657 
50 1 1 1.57973 0.42993 1.57684 0 0 0 2.98408 -0.237112 0.0188306 -0.174816 -0.0601247 -0.450539 7.98435 -34.1277 -1.2215 0.03 360.042 
488 1 1 0.339114 0.52293 2.51217 0 0 0 -0 -0 -1 0 0 0 0 0 0 0.03 300 
255 1 1 0.156453 0.473182 1.57761 0 0 0 1.21393 0.189229 0.469226 0 0 -2.77371 -6.62974 -94.1189 -4.89687 0.03 314.363 
308 1 1 0.25901 0.477387 1.57796 0 0 0 1.86053 0.555299 0.183888 -2.27424 1.65905 -4.37801 -17.3619 -69.5079 3.99729 0.03 314.238 
245 1 1 0.3109 0.448137 1.58201 0 0 0 1.74187 0.283251 -0.408121 6.84279 5.23165 -4.73284 8.17458 40.9055 -24.9757 0.03 303.753 
84 1 1 0.589444 0.466802 1.5769 0 0 0 2.18036 -0.0436656 0.0510508 -0.000135377 -6.18979e-05 -2.77401 1.53962 -60.9425 0.502665 0.03 330.21 
25 1 1 0.836796 0.458809 1.58177 0 0 0 2.4367 0.264117 -0.0868591 0 0 -2.77371 -12.5041 -51.1313 -2.28066 0.03 327.863 
134 1 1 1.25959 0.469051 1.57674 0 0 0 2.79173 0.0396311 0.00881645 -2.02052 -5.08753 -3.06608 -11.0152 -19.0755 4.52081 0.03 324.762 
37 1 1 1.32022 0.474937 1.57688 0 0 0 2.84119 0.0713362 0.00351528 -0.015029 -0.00029467 -0.393348 -2.38515 -38.7438 -0.947176 0.03 335.479 
69 1 1 1.37968 0.466462 1.57684 0 0 0 2.8489 0.00623389 -0.000547136 -0.0143397 -0.0273292 0.392763 -0.125927 -38.6713 -7.39803 0.03 376.076 
111 1 1 1.4475 0.453726 1.57688 0 0 0 2.85333 -0.128595 -0.000520013 -0.00874426 0.00739006 -0.199961 4.35054 -38.3109 3.74398 0.03 346.076 
163 1 1 1.63418 0.455164 1.57688 0 0 0 2.90197 0.0167829 -0.00516061 0.232852 0.102766 -0.0270403 -0.615026 -36.6286 15.5578 0.03 368.379 
279 1 1 0.382247 0.509071 1.57721 0 0 0 1.46479 0.212699 -0.737146 -8.12058 -18.3862 10.8112 27.2482 -52.3616 20.0204 0.03 318.248 
116 1 1 0.661262 0.496558 1.57686 0 0 0 2.28083 0.259239 -0.0196349 0.0836481 -0.0124319 0.835793 -8.67197 -57.5078 -6.98913 0.03 348.217 
6 1 1 0.776075 0.486067 1.57736 0 0 0 2.34292 0.234254 -0.0592946 0.385569 -1.90272 -1.79853 -2.61569 -30.4617 3.33858 0.03 324.743 
160 1 1 0.888841 0.502338 1.57686 0 0 0 1.93281 0.132968 4.49437e-06 -1.94755e-05 1.25272e-06 9.89697e-05 -4.45041 -69.1886 3.49012 0.03 356.57 
4 1 1 0.960719 0.490029 1.57691 0 0 0 2.09701 -0.0355248 0.00140172 1.06101 2.05775 -1.25279 -7.84319 -61.2731 1.90091 0.03 337.742 
136 1 1 1.12602 0.503987 1.57715 0 0 0 2.88419 -0.00389059 0.0295713 5.3114 -4.10332 0.776326 7.51675 18.3293 3.10327 0.03 329.629 
169 1 1 1.18317 0.485443 1.57686 0 0 0 2.71069 -0.135201 -0.0058658 -0.0473404 0.0208343 0.37791 4.50706 -43.2216 0.511638 0.03 349.454 
104 1 1 1.42169 0.5092 1.57688 0 0 0 2.89761 -0.0308536 -0.00025803 0.134169 0.133237 -0.161051 1.03786 -36.8966 2.64365 0.03 354.905 
26 1 1 1.54462 0.487816 1.57687 0 0 0 3.07443 -0.00562603 0.00323178 -0.0144428 0.0166797 -0.250172 0.193558 -30.9726 -7.84134 0.03 339.179 
238 1 1 0.135033 0.534207 1.59133 0 0 0 -0.00204946 0.62516 -0.850787 0 0 -2.77371 39.114 16.2512 21.146 0.03 300.388 
182 1 1 0.205029 0.521828 1.58857 0 0 0 0.422043 0.55649 -0.865379 0 0 -2.77371 8.43257 -12.299 8.69513 0.03 300.069 
272 1 1 0.316861 0.520286 1.57555 0 0 0 1.74987 0.0472354 0.46161 7.26176 4.55808 -26.6998 -2.10312 -76.5989 3.45955 0.03 314.547 
249 1 1 0.436199 0.546462 1.57689 0 0 0 2.22833 -0.00874222 -0.141898 50.0713 5.63455 -63.6185 3.11973 -50.7546 33.7079 0.03 323.774 
226 1 1 0.570511 0.539637 1.57702 0 0 0 2.35876 0.36 -0.011015 -0.52987 -0.396648 -2.2177 -12.1535 -54.671 -7.22838 0.03 330.957 
21 1 1 0.759988 0.543665 1.57693 0 0 0 2.09132 0.142852 0.00342719 -0.50115 -0.60101 -2.43446 0.732215 -63.2736 1.95691 0.03 338.479 
34 1 1 0.984769 0.544702 1.58065 0 0 0 2.54266 -0.138309 0.145621 -5.12855 -2.59076 -4.74535 2.40031 -41.4272 -6.29952 0.03 337.147 
117 1 1 1.07617 0.536029 1.57643 0 0 0 2.45529 -0.49894 0.00997381 2.69607 -1.01265 6.32107 18.9773 -48.7618 17.3667 0.03 347.54 
16 1 1 1.16498 0.550442 1.57812 0 0 0 2.63147 -0.112638 0.121029 0 0 -2.77371 4.23264 -45.7976 -0.761294 0.03 363.675 
61 1 1 1.27781 0.525623 1.57744 0 0 0 2.62495 0.0232785 -0.0883168 -1.27145 2.05698 -5.60032 -2.56112 -44.4994 -4.20876 0.03 357.505 
152 1 1 1.3561 0.523589 1.57686 0 0 0 2.65802 -0.219734 0.000644247 -0.00197338 -0.000322658 -0.0417721 7.35436 -44.9152 -15.045 0.03 372.27 
42 1 1 1.52425 0.544247 1.57687 0 0 0 2.88693 -0.0695502 -0.00386724 0.0363794 -0.0599564 0.0790722 2.31461 -37.2532 11.5343 0.03 364.317 
121 1 1 1.5849 0.536459 1.57687 0 0 0 2.95145 -0.0616201 -0.000935477 1.33053 -0.0672319 -0.109255 2.12496 -33.8454 -19.2858 0.03 381.267 
63 1 1 1.64519 0.534532 1.57693 0 0 0 2.87013 -0.0508434 -0.00572857 -2.52559 0.495359 -3.10003 1.93509 -34.5752 16.7765 0.03 375.988 
304 1 1 0.380834 0.568487 1.57722 0 0 0 1.94818 -0.122558 -0.0424502 12.8855 15.2918 9.0069 3.16511 -57.9653 -40.4943 0.03 334.721 
119 1 1 0.619006 0.574193 1.58356 0 0 0 2.61932 -0.0757289 0.241354 0.366005 5.49182 -6.93972 -4.24249 -67.8291 2.40248 0.03 355.413 
48 1 1 0.688171 0.564946 1.57719 0 0 0 2.30906 -0.00578079 -0.0513158 0 0 -2.77371 0.37625 -56.2852 10.321 0.03 331.209 
227 1 1 0.870428 0.565544 1.57686 0 0 0 2.558 0.193644 0.000196169 -0.00207106 -0.000484866 -0.0227031 -6.47909 -48.2675 -15.5605 0.03 323.161 
147 1 1 0.933517 0.576112 1.58399 0 0 0 2.57016 -0.153884 -0.063836 -0.749479 -10.3416 7.26987 6.3759 -29.1811 -41.5309 0.03 334.478 
17 1 1 1.03452 0.577512 1.58624 0 0 0 2.51731 -0.286408 -0.491213 -17.0512 -14.5423 -23.2543 5.57987 0.676323 -31.42 0.03 328.668 
118 1 1 1.22372 0.563591 1.57687 0 0 0 2.64134 0.0635817 -0.0163522 0.0633179 -0.00261707 0.585145 -2.09022 -45.6035 -2.45976 0.03 354.609 
105 1 1 1.46673 0.566553 1.57681 0 0 0 2.79254 -0.0338258 0.00708546 -0.187834 0.047942 0.0181592 1.21184 -40.5611 -13.9068 0.03 342.397 
237 1 1 0.265095 0.588172 1.60287 0 0 0 1.20636 -0.115892 0.325846 0 0 -2.77371 -7.67114 -60.3632 -77.0232 0.03 303.573 
62 1 1 0.440955 0.146801 1.61836 0 0 0 1.2857 -0.0764092 0.159947 0 0 -2.77371 9.44781 -84.7914 43.7907 0.03 312.547 
307 1 1 0.512595 0.145411 1.62603 0 0 0 1.47035 0.484159 -0.204562 0 0 -2.77371 -13.1804 -64.4075 42.2163 0.03 304.079 
281 1 1 0.917009 0.147671 1.62359 0 0 0 2.71042 0.205939 0.276175 5.83506 8.76519 -5.74235 23.4861 -27.0414 14.0331 0.03 313.551 
115 1 1 1.0345 0.133581 1.62927 0 0 0 2.14829 0.296877 -0.312182 0.168789 2.565 -0.252518 -14.201 -44.8291 42.75 0.03 331.03 
49 1 1 1.25534 0.154292 1.62404 0 0 0 2.96218 -0.16235 -0.111872 0 0 -2.77371 9.55458 -8.15296 24.2492 0.03 310.811 
87 1 1 1.5877 0.14738 1.61556 0 0 0 2.40662 0.0968304 -0.0959867 -0.019163 0.953832 -0.935111 -4.50527 -25.487 49.8947 0.03 354.664 
186 1 1 0.297045 0.176767 1.6302 0 0 0 0.269125 -0.516154 -0.331835 0 0 -2.77371 28.7066 21.7249 13.0483 0.03 300.135 
43 1 1 1.04285 0.185918 1.60155 0 0 0 2.77635 0.174956 -0.477901 4.34885 -0.312136 -2.23709 1.76295 -15.6696 -22.0774 0.03 301.666 
231 1 1 0.444732 0.207368 1.62272 0 0 0 0.476164 0.230488 0.00539047 5.77843 9.09943 31.3582 -3.83922 48.2439 -17.8 0.03 301.182 
284 1 1 0.166876 0.252259 1.62214 0 0 0 -0.4285 -0.21259 -0.629938 0 0 -2.77371 16.1199 1.99064 15.7643 0.03 300.026 
194 1 1 0.255094 0.236423 1.60889 0 0 0 0.21725 -1.07212 -0.970028 30.1502 13.6934 103.657 50.3667 13.7368 -9.83811 0.03 300.122 
193 1 1 0.320722 0.230747 1.61843 0 0 0 0.231885 -0.754194 -1.39203 0 0 -2.77371 -3.99773 -21.9114 -12.0068 0.03 300.142 
183 1 1 0.540981 0.237015 1.63746 0 0 0 1.58215 -0.476939 0.332275 0 0 -2.77371 -30.7558 70.3203 27.8217 0.03 300.74 
322 1 1 0.833102 0.236175 1.63476 0 0 0 2.20267 0.109289 0.290943 0 0 -2.77371 -28.6268 32.745 -20.5196 0.03 301.542 
44 1 1 1.21583 0.261634 1.60925 0 0 0 2.7352 -0.245294 0.0150803 9.30928 17.3736 21.5998 10.5993 31.3552 2.51061 0.03 304.715 
46 1 1 1.62808 0.239151 1.60185 0 0 0 3.0307 0.159281 -0.463522 0 0 -2.77371 -14.606 51.6491 -5.9713 0.03 302.048 
347 1 1 0.386854 0.297564 1.62971 0 0 0 0.810504 -0.703134 0.174662 1.09163 -0.460813 -0.146734 24.9301 34.1112 3.05377 0.03 300.983 
68 1 1 0.80119 0.280702 1.60791 0 0 0 2.02866 -0.395476 -0.386716 0 0 -2.77371 10.072 39.0811 -1.33766 0.03 300.839 
155 1 1 1.49564 0.301629 1.61716 0 0 0 2.77828 0.276843 -0.113029 11.4261 -4.15133 15.23 -8.02668 9.08894 7.82013 0.03 303.531 
331 1 1 0.320578 0.33944 1.62024 0 0 0 0.626344 0.407215 -0.846276 -3.06214 3.13651 -9.53388 46.0325 10.1393 14.255 0.03 300.488 
71 1 1 0.683603 0.332754 1.62859 0 0 0 2.12636 -0.162242 -0.0260007 0 0 -2.77371 8.06357 73.3013 15.4898 0.03 302.955 
212 1 1 0.460214 0.340373 1.62009 0 0 0 1.3267 -0.241905 0.664882 5.086 -5.95629 12.1519 23.7786 24.4648 -0.44273 0.03 300.299 
216 1 1 0.561858 0.34755 1.62994 0 0 0 2.46066 0.0756326 0.922781 -16.8542 13.3071 -10.6466 16.5647 46.5633 4.03073 0.03 300.165 
277 1 1 0.314172 0.400048 1.61598 0 0 0 0.769977 -0.548683 -1.06615 -3.66325 -2.3551 11.2142 27.5506 -21.9546 -35.569 0.03 300.269 
346 1 1 0.403195 0.398963 1.61667 0 0 0 0.424274 0.424585 -0.747687 0 0 -2.77371 10.7128 -5.88067 -5.02213 0.03 300.83 
254 1 1 0.595144 0.405649 1.62595 0 0 0 2.46075 0.90205 -0.17893 0 0 -2.77371 -12.9095 27.5613 21.1911 0.03 300.653 
153 1 1 1.26274 0.376526 1.62457 0 0 0 2.8238 0.19834 0.31257 0.815332 1.74323 0.422131 14.7563 31.5013 4.84819 0.03 305.102 
309 1 1 0.12907 0.408947 1.64414 0 0 0 -0.392318 -0.172355 1.12842 0 0 -2.77371 9.57184 49.0096 -6.13283 0.03 300.277 
261 1 1 0.163701 0.480004 1.63778 0 0 0 0.0912223 0.516449 1.18223 0 0 -2.77371 -2.65104 54.5457 7.40831 0.03 300.155 
285 1 1 0.231566 0.447098 1.62631 0 0 0 0.178667 0.172928 -0.0927 0 0 -2.77371 21.494 -5.39219 17.405 0.03 300.12 
263 1 1 0.415282 0.467741 1.60522 0 0 0 1.41072 -0.0154093 0.0176682 34.4925 28.7291 53.3399 -2.39851 28.8087 -9.83781 0.03 301.006 
178 1 1 0.473446 0.465726 1.61643 0 0 0 1.43105 0.155931 -0.706734 9.66062 3.86081 -2.89499 -21.0126 -1.60929 15.9057 0.03 300.728 
352 1 1 0.532014 0.455669 1.62112 0 0 0 1.41305 0.170533 -0.783687 5.05603 0.899613 -3.98873 0.131062 15.3999 -9.16927 0.03 301.508 
223 1 1 0.100632 0.483223 1.61359 0 0 0 -0.498506 -0.911324 -1.86408 0 0 -2.77371 18.636 -31.298 -13.1759 0.03 300.003 
296 1 1 0.936115 0.484761 1.63226 0 0 0 1.55071 -0.0383061 -0.0860272 0 0 -2.77371 3.23232 42.6821 10.6208 0.03 301.075 
149 1 1 1.48271 0.499891 1.60105 0 0 0 2.42258 -0.00618436 -0.733657 0 0 -2.77371 7.13955 6.39301 12.9246 0.03 301.549 
271 1 1 0.331786 0.545153 1.62636 0 0 0 0.750727 0.668392 0.44579 -26.1606 -21.3805 -61.2502 -19.087 29.6885 -7.66137 0.03 300.76 
28 1 1 0.51134 0.532463 1.61994 0 0 0 1.02986 0.216317 -0.591179 0 0 -2.77371 6.05401 13.8279 -15.399 0.03 302.122 
265 1 1 0.612115 0.533163 1.62707 0 0 0 1.32456 -0.215025 0.334402 0 0 -2.77371 1.87499 7.32398 -0.494617 0.03 301.267 
102 1 1 0.811723 0.524214 1.62234 0 0 0 1.72958 0.542415 -0.682473 0 0 -2.77371 -24.4892 37.4774 3.91183 0.03 300.972 
106 1 1 0.887268 0.53482 1.62991 0 0 0 1.70526 -0.0593069 -0.255984 0 0 -2.77371 12.7036 25.0913 -17.3757 0.03 302.176 
98 1 1 1.21869 0.522906 1.62351 0 0 0 2.16422 -0.255334 -0.360559 0 0 -2.77371 10.7243 41.1142 -2.75198 0.03 302.031 
224 1 1 0.558927 0.567181 1.63285 0 0 0 1.67213 -0.69976 0.274386 0 0 -2.77371 43.3515 36.2723 51.9399 0.03 301.861 
150 1 1 0.954438 0.553545 1.63456 0 0 0 2.10985 -0.395737 0.130204 1.37084 -4.75461 4.04806 -5.98549 17.838 23.8692 0.03 301.651 
75 1 1 1.11066 0.584062 1.59876 0 0 0 2.40701 -0.289998 -0.263008 3.48958 -4.80792 -3.52517 -1.06144 -23.741 -41.9401 0.03 324.988 
2 1 1 1.30692 0.554374 1.6202 0 0 0 2.61453 0.0625223 -0.0645576 5.72618 5.97138 4.3244 -5.11619 34.9421 -10.0329 0.03 317.153 
303 1 1 0.144886 0.593221 1.60558 0 0 0 0.416891 0.211438 0.307111 0 0 -2.77371 -19.3676 -103.271 -67.4806 0.03 316.229 
55 1 1 0.438939 0.593454 1.61463 0 0 0 1.04126 0.689211 -0.438026 0.335083 -3.03163 -3.41182 29.0828 61.7511 -15.0425 0.03 302.099 
276 1 1 0.519252 0.610138 1.61919 0 0 0 1.63545 -0.163012 0.332061 -6.0853 11.6506 -9.52951 -5.33131 -65.2407 -50.1502 0.03 305.537 
57 1 1 0.783913 0.592202 1.60228 0 0 0 2.05503 0.120194 0.111921 0.183545 1.74366 -2.56194 -33.8439 -0.559779 -27.7082 0.03 331.274 
89 1 1 0.842328 0.601092 1.621 0 0 0 2.39557 -0.454797 -0.0980508 0 0 -2.77371 0.170016 -30.6347 -35.1825 0.03 330.447 
65 1 1 0.989542 0.608078 1.61725 0 0 0 2.72075 -0.163626 -0.161017 -0.0165174 -0.998062 -1.12656 7.8645 -29.0225 -31.42 0.03 311.526 
27 1 1 1.06431 0.613061 1.62232 0 0 0 2.07689 -0.648652 -0.486907 23.5671 16.475 32.1059 22.1744 -50.2805 -34.1451 0.03 333.751 
99 1 1 1.16909 0.599187 1.61622 0 0 0 2.10215 0.0813948 0.38214 0 0 -2.77371 -19.5823 -41.1356 -42.3874 0.03 342.722 
79 1 1 1.26518 0.597208 1.60637 0 0 0 2.69631 -0.118786 -0.117153 0.847318 -1.04497 -0.868619 -7.506 -4.73641 -31.2157 0.03 330.085 
156 1 1 1.3649 0.598573 1.60777 0 0 0 2.51034 -0.0564103 -0.0586242 0.00489814 -0.841499 -1.10065 2.70124 -45.0076 -25.4101 0.03 350.526 
18 1 1 1.51094 0.595598 1.60484 0 0 0 2.8525 -0.049953 -0.0489339 0.408925 -0.317408 -0.872686 2.2547 -20.1494 -34.1323 0.03 328.08 
332 1 1 0.207746 0.120069 1.6441 0 0 0 0.106352 -0.249422 0.300666 0 0 -2.77371 23.5412 -32.872 25.4073 0.03 304.818 
283 1 1 0.269736 0.11511 1.65575 0 0 0 0.376969 -0.673754 0.232295 0 0 -2.77371 12.5768 24.4526 -16.7891 0.03 300.35 
137 1 1 0.598593 0.121784 1.64261 0 0 0 1.93907 0.260286 -0.175099 0 0 -2.77371 -7.80972 -34.2881 63.09 0.03 334.308 
76 1 1 0.867619 0.120669 1.64204 0 0 0 2.34936 0.337638 -0.403988 -2.33054 -4.34278 6.14499 -2.91796 9.12911 18.7832 0.03 319.824 
74 1 1 0.660775 0.123298 1.64299 0 0 0 1.9539 -0.716019 -0.111314 0 0 -2.77371 5.20571 11.3308 -11.4659 0.03 302.803 
139 1 1 0.783678 0.125878 1.64747 0 0 0 1.92698 -0.158326 -0.301957 0 0 -2.77371 24.7377 -43.9239 26.0938 0.03 336.722 
252 1 1 0.605464 0.194489 1.6404 0 0 0 1.14812 -0.38968 -0.203957 0 0 -2.77371 -13.7115 3.36298 -9.89027 0.03 300.253 
319 1 1 0.708669 0.222956 1.64211 0 0 0 1.74016 0.0178512 0.147738 0 0 -2.77371 24.3173 41.486 -14.2233 0.03 300.778 
349 1 1 0.37919 0.232985 1.64549 0 0 0 1.03546 -0.190603 -1.76449 0 0 -2.77371 -1.46301 36.3961 6.93856 0.03 300.001 
240 1 1 0.445443 0.277352 1.6349 0 0 0 0.841832 0.8755 -0.180618 0 0 -2.77371 27.408 46.943 -14.6711 0.03 300.106 
282 1 1 0.512721 0.295922 1.63939 0 0 0 0.857615 -0.35222 -0.376798 0 0 -2.77371 0.646976 -40.0267 -9.565 0.03 300.005 
338 1 1 0.591392 0.295962 1.63442 0 0 0 1.21012 -0.128219 -0.459607 13.4395 -12.6192 11.2003 -18.8823 -25.8063 1.60689 0.03 300.046 
181 1 1 0.738999 0.302101 1.66732 0 0 0 1.74719 0.0343333 0.230993 0 0 -2.77371 -19.5036 24.9736 24.781 0.03 300.753 
324 1 1 0.115625 0.334079 1.62985 0 0 0 0 0 -3.03092 0 0 -2.77371 0 0 0 0.03 300 
73 1 1 0.244401 0.331572 1.6343 0 0 0 0.100063 0.423638 -0.609046 8.84192 -9.42287 -39.3685 2.97302 29.2815 -17.477 0.03 301.274 
204 1 1 0.205333 0.37169 1.65429 0 0 0 0.488155 0.30441 -1.24118 -8.84192 9.42287 33.8211 -45.6275 24.3919 34.738 0.03 300.448 
250 1 1 0.357857 0.367648 1.65908 0 0 0 0.173215 0.189659 -0.341823 -12.325 1.18826 -7.96804 -36.2945 -0.849612 -1.18248 0.03 300.012 
234 1 1 0.414951 0.353066 1.65663 0 0 0 0.122155 -0.435373 -0.773671 3.39058 -4.36989 -6.63293 16.1261 2.97668 -13.1201 0.03 300.006 
334 1 1 0.512301 0.400379 1.65088 0 0 0 0.836351 -0.113085 -0.808731 0 0 -2.77371 5.09603 -42.2344 0.777492 0.03 300.023 
190 1 1 0.359224 0.447097 1.63205 0 0 0 0.757407 0.213871 -0.236187 -8.14719 -4.52873 -25.0889 14.5591 15.1808 33.4122 0.03 301.155 
295 1 1 0.435537 0.432609 1.65881 0 0 0 0.599392 0.0743763 -0.607992 0 0 -2.77371 -45.2681 -3.98851 10.7751 0.03 300.011 
130 1 1 1.57479 0.453018 1.66167 0 0 0 2.55146 -0.00425569 -0.0694062 0 0 -2.77371 -5.78272 17.8909 -2.26063 0.03 301.155 
208 1 1 0.283929 0.49304 1.64769 0 0 0 0.56527 0.734668 -0.203698 0 0 -2.77371 -16.4973 -20.5044 -6.19311 0.03 300.042 
220 1 1 0.395812 0.501498 1.65168 0 0 0 0.494793 0.575767 -0.848464 0 0 -2.77371 -28.26 -14.0635 11.2056 0.03 300.034 
20 1 1 1.32065 0.495928 1.6357 0 0 0 2.40794 0.0217055 -0.144188 0 0 -2.77371 9.06763 28.6045 11.6179 0.03 302.522 
201 1 1 0.442282 0.537589 1.63447 0 0 0 0.607023 0.260838 -0.872813 -48.7596 -1.59204 57.0446 -3.74928 -23.2564 0.209531 0.03 300.12 
239 1 1 0.748107 0.523312 1.64116 0 0 0 1.55189 0.277362 0.195553 0 0 -2.77371 -8.43035 41.701 4.12706 0.03 300.768 
243 1 1 0.688827 0.577927 1.63702 0 0 0 1.61239 0.100738 0.0526777 -3.79429 -2.47884 -3.28502 -28.8981 -0.0463399 -34.9511 0.03 300.732 
301 1 1 0.180319 0.623987 1.64615 0 0 0 0.587589 0.172362 0.00509974 0 0 -2.77371 -11.7175 6.30727 -39.118 0.03 303.382 
52 1 1 0.639216 0.611148 1.6441 0 0 0 1.53589 0.0886896 0.188891 0 0 -2.77371 -7.49989 37.4352 43.85 0.03 301.807 
326 1 1 0.442397 0.641184 1.6499 0 0 0 1.05693 0.275074 0.316228 -0.441277 -4.29756 0.317757 -9.19935 -116.691 -23.4539 0.03 333.825 
72 1 1 0.582089 0.629382 1.6389 0 0 0 1.48983 0.222552 0.280921 0 0 -2.77371 -13.9638 -43.3185 -65.5902 0.03 336.077 
154 1 1 0.719356 0.629402 1.63858 0 0 0 1.98846 -0.278589 -0.272578 4.30637 1.82422 -0.468646 12.8589 -35.9701 -58.6284 0.03 321.873 
138 1 1 0.94467 0.639702 1.6489 0 0 0 2.58639 -0.258217 -0.259224 0.796076 -0.9849 -1.31802 -6.20884 -2.53601 -1.98365 0.03 309.82 
317 1 1 0.350738 0.0739695 1.68893 0 0 0 1.16369 -0.365442 0.381627 0.641135 0.84581 -0.944906 39.2802 -48.6777 57.3729 0.03 308.389 
333 1 1 0.730775 0.0920951 1.67076 0 0 0 2.03775 0.13591 -0.149639 0.228621 1.81504 0.253146 -7.33852 -43.4059 49.3073 0.03 307.28 
196 1 1 0.562453 0.149565 1.68853 0 0 0 0.488996 0.0347049 -0.345663 0 0 -2.77371 6.82614 -20.0527 -26.4054 0.03 300.297 
343 1 1 0.147675 0.203013 1.65604 0 0 0 -0.27185 -0.929973 -1.70181 0 0 -2.77371 15.2306 -15.5929 -7.38265 0.03 300 
315 1 1 0.216797 0.232457 1.66404 0 0 0 0 0 -2.9182 0 0 -2.77371 0 0 0 0.03 300 
189 1 1 0.298006 0.258986 1.66653 0 0 0 -0.240192 -0.439075 -1.47723 0 0 -2.77371 -5.34041 4.0776 8.84457 0.03 300.001 
330 1 1 0.473192 0.233192 1.66748 0 0 0 1.53645 0.000583143 -0.375986 6.29537 4.82978 5.84076 3.28601 -11.5603 -0.188456 0.03 300.009 
253 1 1 0.246828 0.293157 1.68301 0 0 0 0.2185 -0.0541613 -0.38137 0 0 -2.77371 1.63162 -0.207981 -21.0989 0.03 300.009 
211 1 1 0.338684 0.306343 1.66538 0 0 0 0.0573893 -0.321612 -0.738032 3.06214 -3.13651 3.98646 -16.4704 -54.0089 5.52555 0.03 300.008 
259 1 1 0.277596 0.365417 1.69356 0 0 0 1.05092 0.632052 0.294876 0 0 -2.77371 24.7267 -24.7458 21.7395 0.03 300.017 
341 1 1 0.602636 0.342232 1.6811 0 0 0 1.30437 -0.544364 -0.381816 0 0 -2.77371 14.4331 -31.4215 -13.6493 0.03 300.01 
184 1 1 0.456152 0.374507 1.69365 0 0 0 0.359548 -0.449954 -1.37621 14.1352 -0.560555 -2.10884 -24.7209 13.7161 9.07469 0.03 300 
344 1 1 0.279948 0.422524 1.65809 0 0 0 -0.278211 0.17225 -1.62533 -2.63453 -0.242537 -0.0339327 -26.1841 -39.1755 -0.588118 0.03 300.001 
318 1 1 0.35801 0.425219 1.6871 0 0 0 0.418925 -0.311404 -0.953298 11.4077 1.83671 27.5144 4.15117 -34.2914 -3.66193 0.03 300.009 
274 1 1 0.556129 0.44338 1.68947 0 0 0 1.09126 -0.198396 -0.947175 0 0 -2.77371 -11.1011 -12.2079 4.19166 0.03 300.001 
335 1 1 0.64851 0.460652 1.67588 0 0 0 1.45298 0.21684 -0.209975 0 0 -2.77371 -13.7631 -8.77074 29.662 0.03 300.277 
268 1 1 0.758181 0.460053 1.70462 0 0 0 1.70927 0.470599 0.17384 0 0 -2.77371 -35.7909 14.651 -0.0812511 0.03 300.296 