ITEM: TIMESTEP
95000
ITEM: NUMBER OF ATOMS
351
ITEM: BOX BOUNDS ff ff ff
0 3.3
-0.3 0.8
-0.5 3
ITEM: ATOMS id type type x y z ix iy iz vx vy vz fx fy fz omegax omegay omegaz radius f_Temp[0] 
213 1 1 0.111221 0.181 1.58183 0 0 0 0.506179 -0.21035 0.48276 2.7551 -3.52928 -7.27669 2.27546 -68.9623 16.3624 0.03 310.67 
288 1 1 0.419687 0.164142 1.59683 0 0 0 1.97529 -0.321019 0.556432 -1.74075 11.6758 9.03836 20.6893 -72.7245 27.4787 0.03 313.197 
90 1 1 0.483647 0.190155 1.57733 0 0 0 1.75011 -0.448379 0.155001 10.5036 -7.21759 2.6864 16.6825 -73.6209 7.62871 0.03 337.655 
51 1 1 0.656063 0.19178 1.57678 0 0 0 2.36165 0.1941 0.00235432 2.00401 0.625101 1.42478 -12.7922 -34.7585 10.2194 0.03 323.397 
40 1 1 0.84263 0.185921 1.577 0 0 0 2.28987 0.0296458 -0.0185821 -0.926619 0.246785 -0.637877 -0.421239 -60.2853 16.4089 0.03 331.204 
161 1 1 1.00694 0.186296 1.57673 0 0 0 2.60863 -0.0209636 0.00592166 0.25566 0.324425 1.72675 -1.60182 -37.4408 19.7951 0.03 331.349 
173 1 1 1.23548 0.191412 1.57713 0 0 0 2.94784 0.342445 0.109104 3.82629 -7.03591 1.21561 -10.3157 -35.0551 43.8883 0.03 326.24 
88 1 1 1.30239 0.195064 1.57683 0 0 0 2.36397 -0.157635 -0.00675246 0.0307432 0.00311068 0.933719 5.28072 -54.8071 -8.16964 0.03 315.693 
1 1 1 1.45192 0.19454 1.57686 0 0 0 2.89093 0.00660363 -1.24675e-06 3.08621e-06 -1.83761e-08 4.65328e-05 -0.221023 -37.1203 15.9399 0.03 343.092 
80 1 1 1.55002 0.174974 1.58797 0 0 0 2.77157 0.134227 -0.128586 0.875604 1.23822 -1.53535 -6.17937 -5.84743 23.9626 0.03 329.22 
47 1 1 1.60817 0.196101 1.57685 0 0 0 2.86284 0.226201 0.00495875 1.29099 0.522039 0.0113711 -15.4172 -18.671 2.4465 0.03 372.283 
248 1 1 0.162919 0.217381 1.57502 0 0 0 0.837948 -0.76093 0.248414 5.6951 1.45501 14.6651 -11.2404 -28.9392 20.0064 0.03 304.262 
97 1 1 0.247139 0.201357 1.57896 0 0 0 0.919012 -0.412376 -0.61911 4.33421 2.94344 -2.03062 -30.1489 -75.2237 41.0324 0.03 326.785 
22 1 1 0.343381 0.201021 1.57572 0 0 0 2.3985 -0.104189 0.505998 -2.01574 -1.37019 3.35787 4.59213 -56.8574 -42.4145 0.03 317.2 
164 1 1 0.436941 0.226056 1.58063 0 0 0 1.80966 -0.159111 -0.387275 -10.5036 7.21759 -8.23383 16.2224 -14.7178 -17.8648 0.03 309.326 
221 1 1 0.581372 0.224291 1.59764 0 0 0 2.49285 -0.627703 -0.0594286 3.86587 -2.37513 -3.35642 54.9946 11.0595 3.83555 0.03 301.188 
12 1 1 0.715007 0.20896 1.59479 0 0 0 2.37824 0.221011 0.312277 0 0 -2.77371 -6.68989 6.18359 -13.3222 0.03 338.879 
91 1 1 0.89441 0.215853 1.5801 0 0 0 2.26819 -0.00195043 -0.0118073 1.10121 0.716848 -2.03414 -1.94321 -41.7437 -10.6857 0.03 334.225 
141 1 1 0.955388 0.215172 1.58971 0 0 0 2.43365 -0.319682 -0.254947 0 0 -2.77371 3.66961 51.0559 -0.231709 0.03 304.744 
15 1 1 1.06434 0.202268 1.57667 0 0 0 2.63124 0.0452775 0.0280927 2.09644 -0.161888 1.83686 -0.862799 -45.6738 23.2992 0.03 346.634 
78 1 1 1.14733 0.225332 1.57689 0 0 0 2.56698 0.0905023 -0.0152724 0.047975 0.00779287 0.244794 -3.03985 -47.9207 32.2998 0.03 338.337 
108 1 1 1.50743 0.221374 1.57686 0 0 0 2.78042 0.0838092 -0.000388349 -0.000451511 -0.000418722 0.0266301 -2.80499 -40.8204 4.13349 0.03 381.145 
110 1 1 0.383428 0.257209 1.57653 0 0 0 1.99414 -0.122655 -0.136613 -2.15222 12.2583 -52.5603 -2.69265 -62.1573 14.283 0.03 336.539 
3 1 1 0.536157 0.257452 1.57851 0 0 0 2.38852 -0.538417 -0.222389 1.26376 -22.8629 -13.746 -0.381243 -17.0507 17.3622 0.03 351.317 
5 1 1 0.649174 0.256406 1.57666 0 0 0 2.31049 -0.102214 0.0318863 -0.634902 -0.240345 0.636473 3.4461 -56.8525 -24.8751 0.03 329.57 
95 1 1 0.771198 0.233339 1.57786 0 0 0 2.77798 -0.266841 -0.00861964 0 0 -2.77371 -5.0535 1.72728 7.50509 0.03 309.549 
19 1 1 0.830459 0.244147 1.58694 0 0 0 2.87604 0.062496 -0.345943 0 0 -2.77371 -17.8789 -6.72656 -12.8105 0.03 303.576 
13 1 1 0.999141 0.255724 1.57675 0 0 0 2.27672 0.164863 -0.0479888 5.49376 1.35074 -1.37554 -6.16345 -57.8839 14.93 0.03 377.225 
120 1 1 1.2145 0.247176 1.57606 0 0 0 2.56898 0.0633631 -0.147405 0.00350264 7.3745 12.9538 -2.757 -48.1399 -18.3237 0.03 367.741 
125 1 1 1.27489 0.252874 1.57685 0 0 0 2.71382 0.00291769 0.00264758 -0.0179324 -3.72787e-05 0.169602 -0.0976246 -43.0751 -1.83142 0.03 340.186 
41 1 1 1.41387 0.267368 1.57686 0 0 0 2.53788 0.111903 1.64511e-06 -5.1705e-06 3.95724e-07 -2.1751e-06 -3.74538 -48.9369 -3.69394 0.03 362.255 
60 1 1 1.56641 0.240071 1.57686 0 0 0 2.78092 0.227842 -0.00279509 0.00899892 -0.00278056 0.107977 -7.6296 -40.8044 1.36024 0.03 360.318 
297 1 1 0.10342 0.399014 2.11693 0 0 0 -0 -0 -1 0 0 0 0 0 0 0.03 300 
339 1 1 0.236104 0.286253 1.57664 0 0 0 1.37163 0.386574 -0.126582 -47.7413 52.9322 -72.5024 19.6791 -55.2249 8.8187 0.03 324.565 
132 1 1 0.33591 0.296519 1.57607 0 0 0 1.32309 -0.49467 0.0227892 -5.43815 8.70674 10.6718 16.0994 -90.156 -2.83744 0.03 330.706 
107 1 1 0.479424 0.269647 1.57612 0 0 0 2.05271 -0.169946 0.36413 -24.904 -1.5791 -9.21631 8.2851 -21.1905 -4.30512 0.03 308.482 
175 1 1 0.694728 0.290386 1.59495 0 0 0 2.24086 0.155872 -0.224989 1.47732 0.986794 -1.04087 -31.7498 37.5259 21.8707 0.03 316.482 
127 1 1 0.764379 0.295194 1.57763 0 0 0 2.29486 -0.0913856 0.0475455 1.91298 6.81573 -43.0204 4.6037 -56.5509 11.6938 0.03 310.564 
11 1 1 0.880911 0.275773 1.57689 0 0 0 2.8577 0.292532 -0.00910128 0.00498657 -0.0569364 -0.104457 -9.72374 -38.2184 19.1214 0.03 351.619 
94 1 1 0.938136 0.299608 1.57692 0 0 0 2.4314 0.148756 -0.0038747 0.00439931 -0.000300843 -0.794998 -4.97113 -52.4195 -12.0162 0.03 345.63 
123 1 1 1.04261 0.298155 1.57677 0 0 0 2.31482 0.0221025 -0.0293066 -0.681541 2.54918 -0.673583 -0.0204532 -56.4264 8.72706 0.03 322.356 
64 1 1 1.10142 0.282336 1.57683 0 0 0 2.36391 0.0685297 -0.0048857 -0.0688021 -0.0565536 -0.116367 -2.28593 -54.6932 24.1365 0.03 366.955 
144 1 1 1.31665 0.29623 1.57644 0 0 0 2.77195 0.0339981 -0.105756 4.34674 1.45951 14.9427 -0.23717 -43.2991 17.3818 0.03 340.039 
112 1 1 1.4914 0.296178 1.57645 0 0 0 2.92507 -0.022336 -0.0171981 -0.000475847 0.600678 9.97313 3.70301 -36.0292 -8.2772 0.03 365.105 
86 1 1 1.58883 0.301606 1.57648 0 0 0 2.62397 0.201085 -0.0178733 -2.29132 -2.49861 4.78005 -16.9937 -40.7131 -0.622877 0.03 371.357 
257 1 1 0.0175367 0.310919 1.57772 0 0 0 0.140595 0.189312 0.252653 0 0 -2.77371 -10.9058 -80.0804 -6.65116 0.03 303.338 
70 1 1 0.421731 0.30259 1.57692 0 0 0 2.02789 -0.0975182 0.273471 -14.3064 -3.5856 -6.72946 5.21904 -69.0146 -20.0578 0.03 335.654 
56 1 1 1.25446 0.312626 1.57688 0 0 0 2.55225 -0.0502444 -0.00737094 0.0261683 0.012188 0.0167907 1.68325 -48.4288 -15.0231 0.03 326.072 
159 1 1 1.44257 0.335158 1.57654 0 0 0 3.05741 -0.215606 0.0516045 3.46337 3.02035 3.17449 0.0867763 -5.08911 8.71969 0.03 310.498 
298 1 1 0.115454 0.36319 1.57499 0 0 0 0.725519 0.115594 1.04706 -24.8799 0.338797 -13.4025 -4.15015 -124.537 0.0364031 0.03 303.219 
300 1 1 0.197076 0.352589 1.57523 0 0 0 1.46493 0.174312 0.352192 -5.18082 -2.16574 6.40083 -6.12604 -88.7845 -3.12137 0.03 311.041 
31 1 1 0.280909 0.366231 1.58232 0 0 0 0.887434 0.135262 -0.801893 -58.3579 12.1216 -61.1856 10.5661 -24.7823 12.2226 0.03 303.883 
53 1 1 0.403676 0.367133 1.57678 0 0 0 1.47141 -0.0748763 -0.127748 37.0684 -3.51174 -59.216 -13.253 -40.611 5.6289 0.03 307.999 
166 1 1 0.603868 0.357642 1.57797 0 0 0 2.42409 -0.260718 0.0259842 0 0 -2.77371 8.62837 -52.764 17.0705 0.03 332.143 
38 1 1 0.676415 0.35889 1.57686 0 0 0 1.73514 0.0632197 -0.00104847 0.00525006 -0.000169392 0.0298078 -2.11585 -75.8021 -7.60417 0.03 332.72 
291 1 1 0.782269 0.352434 1.59079 0 0 0 2.44364 0.276458 -0.611311 0 0 -2.77371 -18.4195 47.8974 -18.7063 0.03 300.085 
35 1 1 0.854098 0.3518 1.57686 0 0 0 2.29937 -0.0791815 1.6e-07 7.06308e-07 3.27297e-08 0.000331697 2.6502 -56.92 -4.52146 0.03 329.696 
126 1 1 0.99731 0.35133 1.57689 0 0 0 2.43958 0.122782 0.00446318 -0.00313816 0.0105091 -0.591333 -4.15235 -52.1127 -26.9442 0.03 322.191 
24 1 1 1.05905 0.36241 1.59386 0 0 0 2.61365 -0.254778 0.160154 0 0 -2.77371 5.31294 -40.1453 12.3135 0.03 303.667 
143 1 1 1.26302 0.373222 1.57684 0 0 0 2.19204 0.102332 0.005697 -0.0326564 -0.010134 0.0677701 -3.43225 -60.5544 2.41306 0.03 361.96 
124 1 1 1.34386 0.349576 1.5769 0 0 0 2.37763 0.171081 -0.0535863 -1.20333 -2.6997 -2.07355 -8.61636 -53.0253 -9.48807 0.03 366.397 
59 1 1 1.53218 0.3401 1.578 0 0 0 2.93044 -0.0904257 -0.104793 0.713339 0.711025 -2.23617 1.21649 -35.508 -5.13691 0.03 349.324 
81 1 1 1.61493 0.354705 1.57809 0 0 0 2.91061 0.133229 -0.104058 1.1103 -0.386299 3.62973 -12.372 -18.0238 -10.9417 0.03 347.382 
176 1 1 0.46197 0.409697 1.57511 0 0 0 2.29223 0.165401 -0.448266 14.5762 2.09937 -3.71717 -10.6615 -36.7287 2.95825 0.03 312.22 
128 1 1 0.538025 0.395502 1.57666 0 0 0 2.3989 -0.031429 0.378982 -5.08981 -1.44354 -15.9287 1.45978 -55.319 -22.1797 0.03 309.447 
77 1 1 0.715312 0.408291 1.57691 0 0 0 1.93426 0.0158081 -0.0148939 0.0604076 0.000403875 -0.213478 -0.525373 -69.0322 1.43876 0.03 335.693 
101 1 1 0.931031 0.403132 1.57671 0 0 0 2.91783 0.0176315 -0.00979363 2.26829 -1.40001 -0.304174 -0.857652 -33.476 4.8529 0.03 353.159 
122 1 1 1.36089 0.406704 1.57775 0 0 0 2.68204 -0.125192 0.093402 3.77542 9.448 2.3267 4.46635 -44.7917 -9.50552 0.03 357.149 
30 1 1 1.45647 0.393372 1.57796 0 0 0 2.83807 -0.037212 0.104294 -0.143367 -2.12706 -1.84577 -2.40828 -37.8366 -3.2753 0.03 375.622 
167 1 1 1.51645 0.397982 1.57674 0 0 0 2.78936 -0.119997 -0.0221865 0.0494559 0.227612 -0.105814 3.58372 -40.6945 14.0455 0.03 348.288 
29 1 1 1.5864 0.408486 1.57687 0 0 0 3.10945 0.384265 -0.000354651 1.03803 -0.789243 -0.165718 0.756937 -11.8933 0.898985 0.03 353.205 
54 1 1 1.64787 0.403915 1.57759 0 0 0 3.27884 -0.0478679 0.0281779 4.09763 -0.254601 -4.31504 -10.8714 -24.6974 -3.24754 0.03 360.945 
289 1 1 0.0760851 0.411459 1.57677 0 0 0 0.24352 0.0872937 -0.0874459 3.92744 1.92734 5.97602 -35.0921 -60.3464 -8.11635 0.03 305.09 
245 1 1 0.189578 0.438569 1.59141 0 0 0 1.00352 0.679296 0.234801 0 0 -2.77371 -22.9534 -100.935 -2.54283 0.03 303.677 
148 1 1 0.273972 0.432156 1.58149 0 0 0 0.805085 0.10357 -1.02355 -4.98313 2.12217 -7.12913 -21.8478 -68.3703 19.2924 0.03 316.952 
25 1 1 0.609631 0.443756 1.57745 0 0 0 1.83687 0.0934995 0.196653 0 0 -2.77371 -2.84759 -72.9837 -18.2496 0.03 325.221 
170 1 1 1.18867 0.426166 1.57679 0 0 0 2.73824 0.0113053 0.0144769 0.36045 -0.428636 0.376742 0.205284 -42.5746 -6.46268 0.03 337.993 
246 1 1 0.00961846 0.476383 1.58737 0 0 0 -0.609299 0.611989 -0.371954 0 0 -2.77371 -35.9317 43.2535 2.11049 0.03 300.179 
272 1 1 0.129733 0.477782 1.58478 0 0 0 1.26569 0.49001 0.419947 0 0 -2.77371 -14.8727 -98.6779 25.8327 0.03 304.138 
84 1 1 0.367842 0.449724 1.57653 0 0 0 1.62524 0.442086 0.0836473 2.67566 0.387343 2.43971 -14.9054 -80.395 -7.604 0.03 319.273 
116 1 1 0.426553 0.461127 1.57709 0 0 0 1.66449 0.537497 0.00602816 -0.0565529 -0.0564877 -2.81899 16.9974 -59.5678 -7.27159 0.03 339.56 
6 1 1 0.549922 0.463272 1.57961 0 0 0 1.46869 0.0654022 -0.884434 0 0 -2.77371 0.686473 -48.5131 -3.90088 0.03 315.787 
135 1 1 0.843532 0.466608 1.57701 0 0 0 2.46367 -0.191143 -0.0060847 -0.178719 0.494598 -1.87186 5.55344 -51.6405 -4.41895 0.03 351.632 
134 1 1 0.953296 0.458704 1.57691 0 0 0 2.7288 0.047188 0.00416505 1.05377 1.76056 -0.239425 4.89717 13.6868 9.74505 0.03 308.166 
37 1 1 1.01332 0.463764 1.57794 0 0 0 2.80415 0.210285 0.0581606 -0.308834 -1.33719 -2.22288 -7.23027 -35.0067 -4.15094 0.03 324.06 
69 1 1 1.0771 0.461657 1.57686 0 0 0 2.70422 0.0732179 -0.000124089 -0.000543264 4.96294e-05 -0.016076 -2.45096 -43.3737 -7.8673 0.03 364.621 
111 1 1 1.13905 0.459699 1.57686 0 0 0 2.74515 0.0287109 -0.0166023 1.42989 -0.830982 0.812273 1.11402 -35.3776 4.93067 0.03 332.011 
50 1 1 1.259 0.448955 1.57686 0 0 0 2.80148 0.0365922 -0.000120233 0.000340745 -1.04121e-05 0.0113289 -1.22475 -40.1148 5.19255 0.03 351.223 
163 1 1 1.33554 0.460974 1.57669 0 0 0 2.54084 -0.132682 0.0564227 1.04615 -2.11271 0.218921 6.22896 -48.079 19.2833 0.03 358.539 
131 1 1 1.41921 0.452141 1.57677 0 0 0 2.90084 -0.0518643 -0.014268 0.115794 -0.411494 0.888148 0.849161 -36.5495 -6.25176 0.03 350.826 
39 1 1 1.48802 0.47156 1.57687 0 0 0 2.64759 -0.091109 0.00027917 -0.00107638 -9.30023e-05 -0.14535 3.04881 -45.2555 -8.58186 0.03 355.674 
10 1 1 1.54855 0.465706 1.57724 0 0 0 2.63456 -0.203423 0.00499333 0 0 -2.77371 6.78845 -45.6148 -8.98573 0.03 375.144 
162 1 1 1.6427 0.462932 1.57792 0 0 0 2.99625 -0.014408 0.0680439 3.90491 1.96443 -2.64157 17.4502 -35.7582 12.7199 0.03 362.635 
279 1 1 0.193381 0.506832 1.57629 0 0 0 1.02987 -0.255273 -0.656538 65.0625 -19.9675 47.9526 15.888 -77.1862 -4.59676 0.03 303.849 
226 1 1 0.331561 0.502204 1.57613 0 0 0 1.5335 0.382132 -0.068254 9.99413 -1.14495 12.632 -8.0047 -48.4677 2.20708 0.03 307.213 
160 1 1 0.676229 0.48771 1.57673 0 0 0 1.93237 0.130822 0.0215361 0.422887 0.383849 1.53499 -4.62807 -69.1525 3.49012 0.03 343.406 
4 1 1 0.73823 0.491269 1.57654 0 0 0 2.00493 0.0732303 -0.0973529 0.213833 0.0741726 12.3853 -2.42572 -66.882 9.17394 0.03 321.515 
169 1 1 0.895998 0.496622 1.57686 0 0 0 2.22872 -0.0186529 5.68838e-05 -0.000214289 -2.35189e-06 0.000482175 0.624316 -59.2849 1.94353 0.03 341.165 
26 1 1 1.20784 0.482792 1.57706 0 0 0 3.05474 -0.0622882 0.000746781 0.201687 0.351892 -1.90747 -13.7434 -27.8453 -5.19375 0.03 323.971 
145 1 1 1.43904 0.508432 1.57716 0 0 0 2.79089 -0.0144121 0.00124887 0.476871 -0.304672 -0.513969 -1.24179 -39.1165 13.6219 0.03 341.158 
303 1 1 0.0767878 0.539075 1.57469 0 0 0 0.703895 0.952474 0.608013 18.4072 -2.04269 34.2667 -34.655 -127.665 -3.06458 0.03 302.438 
249 1 1 0.265783 0.53585 1.57752 0 0 0 1.06959 0.829862 0.0772307 26.7284 -23.7628 13.2071 -9.91719 -13.8819 0.567013 0.03 305.114 
119 1 1 0.394739 0.541128 1.57453 0 0 0 1.59752 0.521344 0.112462 -6.21013 14.7507 18.9032 -18.7278 -87.0537 32.8385 0.03 341.205 
21 1 1 0.528912 0.520828 1.57748 0 0 0 1.95298 0.240552 0.0772639 0 0 -2.77371 -8.0348 -68.3999 22.1475 0.03 325.515 
227 1 1 0.59512 0.549427 1.5751 0 0 0 3.0466 0.392734 -0.200498 -7.19565 -19.3102 38.3691 -22.9295 -31.2127 -13.0553 0.03 306.025 
136 1 1 0.838977 0.526358 1.57695 0 0 0 2.56786 -0.162869 -0.0320303 1.23091 -0.183021 0.0326919 13.9519 7.21268 4.60214 0.03 318.679 
61 1 1 1.00951 0.523463 1.57707 0 0 0 2.28119 0.169936 0.00811943 0.300675 1.29835 -3.40392 -4.52487 -57.5641 11.3024 0.03 347.324 
152 1 1 1.06913 0.542134 1.57631 0 0 0 2.45638 -0.0590615 -0.300998 -3.64268 0.100135 -16.3486 -0.304392 -48.0631 -22.4554 0.03 361.289 
104 1 1 1.12329 0.517515 1.57698 0 0 0 2.44793 -0.0663641 0.0506752 5.23393 -2.21332 -1.08951 1.70362 -50.6628 3.80225 0.03 344.255 
42 1 1 1.21773 0.541749 1.57696 0 0 0 2.76972 0.0304366 -0.0176063 1.05094 0.876688 -0.172604 2.4702 -31.76 15.0752 0.03 351.845 
121 1 1 1.27794 0.543609 1.57859 0 0 0 2.78705 -0.104415 -0.0163453 0 0 -2.77371 2.53147 -35.8038 -25.0975 0.03 370.516 
63 1 1 1.34309 0.541198 1.57677 0 0 0 2.49288 -0.0575672 -0.000428605 -0.0752836 -0.0543666 0.241601 1.92849 -50.5186 14.1583 0.03 372.238 
109 1 1 1.50158 0.53105 1.57678 0 0 0 2.98029 -0.112793 -0.00438143 -1.25775 -0.138135 -0.0231649 3.61215 -31.4152 6.51523 0.03 364.134 
103 1 1 1.56116 0.534008 1.57676 0 0 0 2.96394 0.022863 -0.0111646 -0.0162332 1.97208 0.996217 1.56863 -27.7326 0.675754 0.03 375.57 
172 1 1 1.6181 0.516876 1.57678 0 0 0 2.96733 0.0277884 0.0610145 2.44933 3.53786 1.63021 12.1355 -27.2334 -10.9483 0.03 368.248 
304 1 1 0.21778 0.570145 1.57939 0 0 0 1.23988 0.192166 0.034377 -15.2828 17.0804 -17.464 -2.18432 -106.093 -11.7588 0.03 313.208 
48 1 1 0.472232 0.55944 1.57771 0 0 0 1.83665 0.0671247 -0.0445671 0 0 -2.77371 -1.46123 -71.2773 15.185 0.03 317.433 
147 1 1 0.647802 0.573928 1.58322 0 0 0 2.36314 -0.202536 -0.0850881 48.9244 28.7406 34.0647 -29.3814 -51.8625 -4.23824 0.03 324.355 
34 1 1 0.73273 0.561737 1.57703 0 0 0 2.27366 -0.330906 0.00716802 -0.209903 -0.0382351 -2.49351 11.076 -57.7919 -15.1777 0.03 326.983 
117 1 1 0.80795 0.576801 1.58593 0 0 0 2.42989 -0.187878 -0.164117 0.0230281 -0.85556 -1.20807 8.00295 -61.7351 -12.8355 0.03 334.979 
16 1 1 0.891579 0.563674 1.57693 0 0 0 2.52642 0.163596 -0.0671065 -7.06918 1.89524 -59.2461 -5.53509 -45.8721 3.23546 0.03 349.677 
118 1 1 0.951441 0.56566 1.57677 0 0 0 2.07868 -0.075731 0.0545026 14.5263 -0.274523 56.4931 2.5339 -61.6706 -14.4097 0.03 347.208 
105 1 1 1.161 0.566421 1.57648 0 0 0 2.67189 -0.0611871 -0.000638533 -1.43993 1.63672 1.49861 -10.4156 -22.0527 -12.7729 0.03 324.813 
158 1 1 1.44017 0.568068 1.57702 0 0 0 2.84921 -0.00687901 0.0044673 0.19475 -0.354084 -0.415643 -0.0551194 -39.3046 -15.3563 0.03 364.797 
327 1 1 0.18456 0.52565 2.12061 0 0 0 -0 -0 -1 0 0 0 0 0 0 0.03 300 
317 1 1 0.24363 0.132881 1.6301 0 0 0 0.879084 -0.578502 0.941155 4.17596 -7.54357 -7.95293 57.2343 -32.0076 40.7028 0.03 303.422 
114 1 1 0.536177 0.146158 1.61702 0 0 0 1.88338 0.23213 -0.154742 1.08862 -1.52193 -3.38078 6.52638 -57.0793 18.2392 0.03 331.139 
281 1 1 0.683579 0.148362 1.61404 0 0 0 2.22762 0.127156 -0.10009 4.35921 5.61231 4.27308 1.36461 -11.9241 31.6881 0.03 305.098 
58 1 1 0.894759 0.159193 1.60385 0 0 0 2.53506 0.0100788 -0.0287928 -0.583464 0.811339 -3.25089 20.4741 -12.9066 28.8468 0.03 353.682 
87 1 1 1.32329 0.150447 1.6125 0 0 0 2.35412 0.0282117 -0.028053 -0.000384123 0.991191 -0.98706 -1.33042 -32.1586 45.6821 0.03 345.357 
305 1 1 0.358786 0.209425 1.63203 0 0 0 1.20063 -0.490114 1.43958 1.01939 1.1977 -6.88294 -4.55107 3.16627 -11.4982 0.03 300.413 
351 1 1 0.201111 0.246832 1.60712 0 0 0 0.729062 0.310603 -0.0448764 7.07728 13.5674 12.0744 -11.1368 40.9191 8.15126 0.03 300.195 
230 1 1 0.275606 0.249944 1.5969 0 0 0 0.645064 0.361297 -0.644421 48.358 -60.8202 80.2061 7.53828 45.0269 -16.6239 0.03 300.547 
252 1 1 0.466921 0.245017 1.62933 0 0 0 1.53111 -0.694837 0.501015 -2.95757 -0.291242 -5.08378 5.09749 2.23426 5.28991 0.03 300.138 
146 1 1 1.04919 0.249266 1.61001 0 0 0 2.31729 0.0304986 -0.00217169 1.71104 -1.81604 3.04518 -3.44324 62.2979 -10.0447 0.03 303.84 
46 1 1 1.32504 0.236133 1.62459 0 0 0 2.33549 0.071292 -0.33162 0 0 -2.77371 -25.3771 38.5119 -16.7123 0.03 301.193 
206 1 1 0.126939 0.284236 1.58001 0 0 0 0 0 -3.18817 0 0 -2.77371 0 0 0 0.03 300 
180 1 1 0.334251 0.283034 1.63353 0 0 0 -0.0988374 -0.771191 0.0467164 4.32993 -6.87809 7.25697 -8.55442 35.8275 14.5924 0.03 302.149 
181 1 1 0.554071 0.286586 1.62481 0 0 0 1.57096 0.381475 0.111443 20.7433 24.7523 21.641 -30.9067 -8.25681 15.8566 0.03 300.579 
225 1 1 0.810096 0.296718 1.61607 0 0 0 1.75032 0.173415 -0.577855 -1.91298 -6.81573 37.4729 7.02792 19.9266 -1.95152 0.03 300.763 
44 1 1 0.975853 0.281447 1.62506 0 0 0 2.23284 -0.111462 0.0310045 -5.44261 0.640736 3.14095 27.7574 45.1802 21.9589 0.03 301.486 
7 1 1 1.15196 0.276509 1.6084 0 0 0 2.46069 0.204077 -0.147944 0.551242 -0.00555445 -1.88919 13.2128 55.4718 -11.2381 0.03 302.781 
155 1 1 1.23951 0.270858 1.62384 0 0 0 2.33295 0.333163 0.00926589 3.91346 0.161075 11.5556 -2.80181 35.529 17.9851 0.03 301.997 
73 1 1 0.233799 0.307919 1.63348 0 0 0 0.297834 0.420892 0.582645 -56.8937 -50.3425 -56.0001 -27.7573 55.149 -0.656455 0.03 301.068 
209 1 1 0.383773 0.326696 1.61659 0 0 0 0.1327 -0.0141632 -0.910334 6.85428 4.59107 -6.67761 -6.09692 -2.60893 6.6615 0.03 300.551 
71 1 1 0.464015 0.336314 1.60333 0 0 0 1.93793 0.404694 0.154695 0.516373 -12.6389 -9.36096 -46.52 48.7923 24.7686 0.03 302.527 
68 1 1 0.61134 0.31725 1.62629 0 0 0 1.71399 -0.470482 0.223321 0 0 -2.77371 30.1022 46.1697 -4.14162 0.03 300.806 
204 1 1 0.191187 0.351105 1.63348 0 0 0 0.0421042 0.281873 0.335866 -0.0647308 0.350697 20.2133 3.63937 41.7659 -5.86585 0.03 300.19 
340 1 1 0.334298 0.356465 1.59983 0 0 0 1.02713 -0.0957862 -0.814842 51.5895 -18.961 38.2917 9.44392 39.6979 -7.2193 0.03 300.053 
313 1 1 0.528428 0.335944 1.59646 0 0 0 1.15591 -0.654354 -0.518395 0 0 -2.77371 29.0708 12.6068 -16.2128 0.03 300.186 
254 1 1 0.435908 0.384514 1.62361 0 0 0 0.868679 0.0687172 -0.923623 -23.4156 1.61057 23.7982 5.6144 -22.2427 -0.678932 0.03 300.15 
268 1 1 0.570161 0.408287 1.62615 0 0 0 1.70927 0.470599 1.25294 0 0 -2.77371 -35.7909 14.651 -0.0812511 0.03 300.296 
153 1 1 0.967704 0.387527 1.62117 0 0 0 2.7002 -0.117756 0.114533 0.660975 -0.610391 0.207408 18.3807 18.2869 8.66049 0.03 302.578 
190 1 1 0.312085 0.43994 1.62532 0 0 0 0.368906 0.490169 -0.0576145 -3.03778 6.66983 -9.41438 13.843 38.4015 2.55863 0.03 300.566 
352 1 1 0.430334 0.442531 1.6373 0 0 0 0.706163 0.211642 0.235919 5.67959 -0.573993 -25.9406 19.2041 50.2318 1.80665 0.03 301.25 
335 1 1 0.492365 0.416006 1.62247 0 0 0 1.03059 0.578326 0.289085 31.614 6.95221 19.5154 18.9969 -11.4549 14.8231 0.03 300.092 
92 1 1 1.50693 0.435612 1.62214 0 0 0 2.76667 -0.0769603 -0.11316 -0.350498 1.10296 0.634818 -8.90961 47.5848 -3.95794 0.03 302.336 
102 1 1 0.639086 0.463111 1.62673 0 0 0 1.51181 0.560104 0.535561 0 0 -2.77371 -23.0486 50.7706 4.54409 0.03 300.973 
151 1 1 1.44649 0.470634 1.62714 0 0 0 2.85895 -0.0277409 -0.0192169 0 0 -2.77371 1.16615 33.6757 5.26037 0.03 305.303 
157 1 1 1.59553 0.467319 1.61562 0 0 0 2.79308 -0.33957 -0.0185629 0 0 -2.77371 -13.1038 50.4147 -2.43616 0.03 305.988 
237 1 1 0.222357 0.503223 1.6271 0 0 0 0.424169 0.556136 0.369449 -3.02381 0.0996361 3.7333 -51.9076 38.2682 0.181245 0.03 300.023 
263 1 1 0.289681 0.498556 1.62009 0 0 0 0.280553 -0.478853 -1.72356 2.32094 2.36754 7.17435 -24.3483 -25.5786 -35.9257 0.03 300.019 
28 1 1 0.373741 0.497146 1.61708 0 0 0 1.54474 0.419563 0.145079 -29.7662 1.25559 60.5389 9.40703 41.5491 1.18339 0.03 301.43 
106 1 1 0.688845 0.519047 1.63186 0 0 0 1.71822 0.432622 0.018233 0 0 -2.77371 -4.14629 55.7545 -4.05663 0.03 301.916 
20 1 1 1.07739 0.505198 1.6214 0 0 0 1.80671 -0.0600804 -0.322164 2.75961 -11.2435 18.3961 -0.427542 33.5376 5.32166 0.03 301.659 
224 1 1 0.424668 0.527961 1.62171 0 0 0 0.646727 0.346637 0.701729 43.8099 7.33825 -19.8056 43.7944 36.9956 -3.30421 0.03 300.73 
98 1 1 0.993512 0.540593 1.63264 0 0 0 1.78526 0.0794075 0.00566339 0 0 -2.77371 3.9299 46.2024 7.03916 0.03 301.424 
9 1 1 1.39267 0.53048 1.60841 0 0 0 2.63029 -0.0324537 -0.206857 0.895435 -0.128574 -1.30464 9.26475 52.7573 -5.16839 0.03 308.839 
55 1 1 0.320538 0.552519 1.6193 0 0 0 0.567755 -0.103606 -0.337727 0 0 -2.77371 61.8361 54.3971 11.1891 0.03 301.142 
2 1 1 1.04159 0.578079 1.63077 0 0 0 2.25939 -0.384561 -0.237544 -0.664456 -0.0013277 -2.73256 -11.4928 -15.2746 -5.06107 0.03 316.234 
301 1 1 0.121516 0.619467 1.63061 0 0 0 0.475694 -0.103528 0.24196 0 0 -2.77371 8.50714 -29.9181 -29.8952 0.03 303.358 
326 1 1 0.314671 0.615591 1.62635 0 0 0 1.27702 0.229346 0.187613 0 0 -2.77371 -15.3151 -124.904 -4.22814 0.03 320.739 
72 1 1 0.423814 0.589439 1.59848 0 0 0 1.60957 -0.101351 -0.209729 3.60126 -5.25592 2.17482 7.20452 -57.798 -50.6126 0.03 323.402 
65 1 1 0.705461 0.600294 1.6233 0 0 0 1.36006 0.256266 -0.680693 0 0 -2.77371 -12.6101 10.5134 -15.4496 0.03 300.554 
17 1 1 0.783136 0.617236 1.62641 0 0 0 1.8313 -0.363472 -0.363465 0.250851 -0.716324 -0.717051 4.84338 -35.362 -62.6032 0.03 319.967 
75 1 1 0.881247 0.612845 1.62202 0 0 0 1.89739 -0.310171 -0.310098 0.576704 -0.825487 -0.828229 -3.96244 -34.5931 -45.6942 0.03 316.47 
79 1 1 0.988561 0.597722 1.61096 0 0 0 2.20403 -0.180368 0.0166291 0.246044 -0.991339 0.93144 -25.7782 38.5754 -16.4812 0.03 321.353 
156 1 1 1.09157 0.591126 1.60043 0 0 0 2.23717 -0.372677 -0.282636 11.1453 18.7226 20.6238 11.6272 -57.0382 -23.9987 0.03 344.692 
18 1 1 1.2058 0.594133 1.60363 0 0 0 2.61563 0.0100521 0.114559 6.41566 0.382641 3.47563 -4.073 -32.6558 -31.8397 0.03 318.584 
137 1 1 0.448123 0.10982 1.65312 0 0 0 0.973703 0.531504 -0.531504 -2.93483e-06 0.988761 -0.988786 -25.1368 -66.8675 76.2571 0.03 326.169 
115 1 1 0.808334 0.103225 1.65972 0 0 0 1.97867 0.235194 -0.235165 -2.49926e-05 0.999069 -0.979616 -11.1239 -31.6448 63.9537 0.03 320.005 
165 1 1 1.18261 0.121255 1.64169 0 0 0 2.0562 0.63077 -0.63077 -2.43412e-06 0.988753 -0.988795 -29.8314 -25.8599 66.0695 0.03 325.997 
62 1 1 0.357217 0.138325 1.63604 0 0 0 0.5442 -0.053165 -0.240656 0 0 -2.77371 0.433575 -97.6327 53.674 0.03 303.391 
139 1 1 0.585385 0.128056 1.64576 0 0 0 1.6825 0.129389 0.294042 0.61587 -0.955867 -2.43787 25.2074 -51.5551 22.6232 0.03 336.758 
49 1 1 0.93432 0.134027 1.64092 0 0 0 2.69569 0.245825 -0.0507302 1.07567 -0.15921 -0.877982 1.62284 -28.8796 31.4364 0.03 310.024 
74 1 1 0.497149 0.185867 1.64053 0 0 0 1.05585 -0.282217 -0.219816 0 0 -2.77371 3.76866 33.9368 7.91977 0.03 302.217 
171 1 1 0.742529 0.164403 1.63554 0 0 0 1.46988 -0.0186099 -0.576584 0 0 -2.77371 -8.75622 48.4422 -23.7755 0.03 300.319 
43 1 1 0.846856 0.171914 1.64445 0 0 0 1.58059 -0.141038 -0.617327 0 0 -2.77371 2.92271 36.0863 3.13353 0.03 300.744 
332 1 1 0.214275 0.211754 1.65252 0 0 0 -0.104962 -0.859818 -0.675854 9.92318 -4.59536 14.8918 15.1743 -30.2299 -20.4888 0.03 300.004 
283 1 1 0.300129 0.212744 1.64974 0 0 0 -0.308401 -0.795736 -0.725905 0 0 -2.77371 18.5843 -58.9437 6.64162 0.03 300.005 
307 1 1 0.435363 0.196471 1.64325 0 0 0 0.668754 -0.310807 1.19912 5.30046 14.313 4.61957 -19.5819 8.82587 -37.3511 0.03 300.578 
231 1 1 0.389573 0.262152 1.635 0 0 0 0.37689 -0.696267 -1.18726 9.64767 -0.270006 60.5785 23.8274 14.9315 -7.04702 0.03 300.024 
319 1 1 0.535822 0.234335 1.64646 0 0 0 1.22879 -0.0642649 -0.711694 -0.0185664 -0.335357 -2.44515 14.5212 13.8554 4.17986 0.03 300.017 
322 1 1 0.640143 0.243361 1.64522 0 0 0 1.5662 0.0786087 0.296142 0 0 -2.77371 -19.7033 41.4346 -15.7077 0.03 300.698 
338 1 1 0.469938 0.297988 1.65785 0 0 0 0.928341 0.339239 -0.45301 0 0 -2.77371 -53.2359 19.4295 33.0208 0.03 300.001 
187 1 1 0.75451 0.319887 1.64521 0 0 0 2.52144 0.343417 -0.251107 0 0 -2.77371 30.1105 -22.801 -13.0466 0.03 300.361 
331 1 1 0.274641 0.3487 1.64225 0 0 0 -0.0713053 -0.26385 -2.1253 56.8937 50.3425 50.4527 1.17599 -12.6405 -9.10574 0.03 300.001 
216 1 1 0.423299 0.337033 1.65933 0 0 0 0.154121 -0.137635 -0.551391 4.73913 -0.511522 -1.4676 23.8269 0.857488 -1.07123 0.03 300.003 
233 1 1 0.544182 0.34651 1.65524 0 0 0 0.721761 0.397245 -0.88876 0 0 -2.77371 2.51613 -14.1109 2.04651 0.03 300.005 
270 1 1 0.238819 0.405361 1.62729 0 0 0 1.05467 0.428912 -0.962177 0 0 -2.77371 -16.2132 18.9437 4.41755 0.03 300.307 
346 1 1 0.33055 0.389457 1.6488 0 0 0 0.579198 -0.164954 -0.98166 14.7893 -1.95255 25.5689 11.6994 -13.8489 -6.66995 0.03 300.011 
178 1 1 0.372711 0.432923 1.65419 0 0 0 0.252612 0.114177 -0.810328 4.04849 -2.96429 -3.24189 0.0201034 -27.8818 2.42216 0.03 300.036 
265 1 1 0.495994 0.480857 1.63472 0 0 0 0.464952 0.0761577 -0.528468 0 0 -2.77371 22.4485 -7.94763 -1.3445 0.03 300.201 
239 1 1 0.572517 0.478069 1.63347 0 0 0 1.49998 0.381362 -0.453051 0 0 -2.77371 -5.41683 44.7484 10.6319 0.03 300.107 
296 1 1 0.751762 0.476525 1.64994 0 0 0 1.7062 0.105685 0.248152 0 0 -2.77371 11.2556 44.8557 12.3467 0.03 300.706 
130 1 1 1.30109 0.454723 1.63058 0 0 0 2.01452 -0.115907 -0.747898 0 0 -2.77371 -1.80228 -25.3021 -0.648071 0.03 300.511 
262 1 1 0.429724 0.493812 1.66826 0 0 0 0.667375 -0.0860953 0.518948 8.42394 -23.0713 30.3573 -23.5949 -41.6596 4.26533 0.03 300.022 
149 1 1 1.21209 0.499944 1.63786 0 0 0 2.49444 0.00879472 0.0785075 0 0 -2.77371 13.959 12.0191 14.8513 0.03 301.294 
217 1 1 0.474198 0.534879 1.66531 0 0 0 0.318435 0.48082 -0.424914 0 0 -2.77371 -19.5948 -18.395 -17.5134 0.03 300.014 
243 1 1 0.590148 0.53849 1.63277 0 0 0 0.621365 0.393377 0.0287861 -0.164326 0.491705 -1.05092 19.5653 -47.8027 -0.778211 0.03 300.071 
276 1 1 0.378304 0.564305 1.64124 0 0 0 0.772211 0.0629743 -0.421887 0 0 -2.77371 5.57569 24.0361 -7.63466 0.03 300.421 
52 1 1 0.489235 0.587097 1.63935 0 0 0 0.516777 0.423828 -0.560195 0 0 -2.77371 12.7518 10.4573 14.4774 0.03 300.75 
150 1 1 0.771898 0.559947 1.64194 0 0 0 1.41857 -0.0576383 -0.286492 0 0 -2.77371 -12.9058 23.3145 16.6589 0.03 300.976 
154 1 1 0.515108 0.642139 1.65113 0 0 0 1.64581 0.0819926 -0.0498998 3.84039 -4.70426 4.95381 -7.14056 -30.717 -64.9514 0.03 308.54 
57 1 1 0.575095 0.629735 1.64025 0 0 0 1.62521 -0.506052 -0.561874 0 0 -2.77371 13.3024 -6.89543 -6.13628 0.03 321.349 
89 1 1 0.635751 0.631233 1.64023 0 0 0 1.73624 -0.0731127 -0.0912418 0.802894 -1.75844 2.10074 2.38909 -45.5149 -61.1555 0.03 320.285 
138 1 1 0.691335 0.645942 1.66619 0 0 0 1.72738 0.332977 -0.385736 0 0 -2.77371 -32.6659 50.8145 40.7538 0.03 300.398 
99 1 1 0.949298 0.631686 1.64093 0 0 0 1.96608 -0.220342 -0.202661 0.544237 -0.689028 -2.52464 10.1727 -57.2576 -37.7768 0.03 332.751 
76 1 1 0.621443 0.0892986 1.6735 0 0 0 2.08589 0.0924778 0.00224059 -0.954716 1.53882 -2.75083 10.4664 32.1739 7.79066 0.03 307.03 
333 1 1 0.51856 0.0917575 1.67006 0 0 0 1.34791 -0.65163 -0.248608 31.6104 43.2159 43.6475 15.4557 -3.63296 9.53436 0.03 300.55 
194 1 1 0.235235 0.284303 1.68895 0 0 0 0.0922534 -0.42103 0.845929 0 0 -2.77371 43.5264 -46.7576 -15.3985 0.03 300.014 
193 1 1 0.294986 0.287688 1.68071 0 0 0 0.168633 -0.0738206 0.261525 0 0 -2.77371 26.5325 -38.638 8.56726 0.03 300.046 
197 1 1 0.185244 0.318502 1.68373 0 0 0 -0.115503 -0.462863 -0.234929 0 0 -2.77371 22.9283 -40.4912 -6.85911 0.03 300.001 
347 1 1 0.350433 0.331948 1.66706 0 0 0 0.142563 0.0346454 -0.423425 0 0 -2.77371 -7.59363 8.55382 22.3222 0.03 300.023 
285 1 1 0.200282 0.385786 1.69217 0 0 0 -0.0467208 -0.0771399 -0.404386 0 0 -2.77371 24.2551 -49.6076 -0.401876 0.03 300.003 
334 1 1 0.416645 0.398933 1.67573 0 0 0 0.454647 -0.199506 -0.913955 -8.65466 8.08582 46.792 2.09827 9.80347 -4.40374 0.03 300.001 
341 1 1 0.476576 0.398782 1.67537 0 0 0 0.432373 -0.180742 -0.646556 3.82645 -11.8964 74.1898 10.7792 -12.8179 0.819956 0.03 300 
308 1 1 0.14362 0.411827 1.66067 0 0 0 0 0 -2.92948 0 0 -2.77371 0 0 0 0.03 300 
208 1 1 0.278399 0.447884 1.69045 0 0 0 0.0836856 0.168532 -1.96181 16.738 -13.7478 -29.7852 -10.4069 -14.805 4.64387 0.03 300 
201 1 1 0.36938 0.493777 1.67679 0 0 0 0.720728 0.231486 0.316152 -0.553616 -0.601107 -6.82701 -0.0026475 -69.9402 -23.7493 0.03 300.02 