ITEM: TIMESTEP
83000
ITEM: NUMBER OF ATOMS
353
ITEM: BOX BOUNDS ff ff ff
0 3.3
-0.3 0.8
-0.5 3
ITEM: ATOMS id type type x y z ix iy iz vx vy vz fx fy fz omegax omegay omegaz radius f_Temp[0] 
97 1 1 0.147742 0.171388 1.59038 0 0 0 0.0799308 0.322361 -0.482358 10.511 18.2828 17.4924 -10.7924 -43.2187 53.7746 0.03 307.178 
40 1 1 0.555133 0.186186 1.57576 0 0 0 2.58894 -0.399316 -0.021368 22.8015 29.1958 43.77 11.4162 -62.6578 -0.347437 0.03 309.648 
58 1 1 0.632547 0.16601 1.59688 0 0 0 1.77582 0.0152401 -0.0133851 0.0531643 1.26343 -0.475425 -1.06725 -74.1655 31.1184 0.03 349.384 
161 1 1 0.706084 0.187104 1.57621 0 0 0 2.28584 0.342046 -0.121846 13.4762 -0.398577 24.1905 -9.10932 25.4114 9.82616 0.03 309.752 
15 1 1 0.76925 0.181983 1.58058 0 0 0 2.16405 0.246394 -0.217458 0.890295 2.2529 3.6097 -6.45607 -62.2919 23.0862 0.03 332.047 
78 1 1 0.849646 0.194045 1.57702 0 0 0 2.48998 0.706457 0.166354 -0.903476 0.0950406 -7.98702 -23.6913 -50.5387 70.1098 0.03 325.15 
1 1 1 1.10501 0.193751 1.57689 0 0 0 2.89067 0.00644928 0.0139094 -0.045431 -0.124693 -1.10581 -0.233845 -37.0984 15.9399 0.03 327.969 
80 1 1 1.20181 0.165778 1.59754 0 0 0 2.93178 0.0952867 0.0201584 0 0 -2.77371 -6.70139 11.8974 22.9658 0.03 314.616 
47 1 1 1.3026 0.18677 1.57685 0 0 0 2.25108 0.000245623 -0.00603763 0.0310023 0.00322181 0.465927 -0.00527742 -58.555 12.2382 0.03 358.71 
67 1 1 1.43036 0.180513 1.58243 0 0 0 2.44947 -0.0566366 0.0583577 -0.00308451 0.928757 -1.04247 2.73048 -52.1117 21.216 0.03 354.395 
85 1 1 1.50836 0.185979 1.57693 0 0 0 2.5861 -0.159583 -0.000680513 2.02753 3.95295 5.82502 4.98238 -48.322 16.076 0.03 330.906 
90 1 1 0.300082 0.224134 1.57566 0 0 0 1.50137 -0.195398 0.100956 -1.18851 -6.57642 19.9026 10.8783 -83.4455 15.1251 0.03 321.64 
91 1 1 0.64671 0.222979 1.58038 0 0 0 1.80068 -0.131234 -0.080007 -9.82132 -5.30819 -6.72856 -20.6077 -72.4895 -0.734725 0.03 328.971 
120 1 1 0.914317 0.210073 1.57686 0 0 0 2.26041 0.348724 -0.000738355 0.00295664 -0.000583792 0.0466704 -11.6719 -58.2248 13.3206 0.03 354.07 
88 1 1 1.00474 0.217517 1.57573 0 0 0 2.69953 -0.310164 0.247064 9.73059 -1.61373 16.9533 12.4292 -35.1529 -10.3538 0.03 303.123 
108 1 1 1.16566 0.209014 1.57688 0 0 0 2.94715 0.128743 0.00385273 -0.0281032 0.0369635 -0.504509 -4.29403 -35.214 5.82371 0.03 367.733 
60 1 1 1.24297 0.205304 1.57728 0 0 0 2.7353 0.446892 -0.0461565 -8.73475 -6.30411 -18.8305 -16.9591 -38.9497 8.54664 0.03 345.666 
142 1 1 1.35463 0.218674 1.57683 0 0 0 2.32398 -0.000536086 0.0155148 -0.0557955 0.000351074 -0.223936 0.000891503 -56.1165 -9.37007 0.03 362.061 
110 1 1 0.200091 0.262679 1.57772 0 0 0 0.970534 -0.104566 0.0127703 -0.90771 -0.904767 -3.56079 -7.35044 -92.3468 -7.46672 0.03 320.09 
5 1 1 0.407703 0.267102 1.57685 0 0 0 1.92873 0.272241 0.0871546 0.482506 -0.22696 -3.84015 7.58555 -33.837 -32.5107 0.03 312.09 
12 1 1 0.45436 0.228873 1.57871 0 0 0 1.58043 -0.417688 0.184945 0.770485 0.780914 -4.1431 17.8282 -64.0125 10.5943 0.03 332.707 
95 1 1 0.51226 0.244211 1.58174 0 0 0 1.61861 -0.23069 -0.277735 0.982188 -1.30053 1.46598 3.73636 83.0635 -4.55359 0.03 301.234 
13 1 1 0.750184 0.240131 1.57693 0 0 0 1.66273 0.200523 -0.0354064 11.9161 -22.6993 -0.881471 -5.72548 -78.3892 20.6002 0.03 365.424 
125 1 1 0.963883 0.262222 1.57657 0 0 0 2.29534 -0.210694 0.0428974 2.19891 -2.53767 3.99655 24.2672 -42.5102 6.1282 0.03 327.243 
41 1 1 1.10932 0.25393 1.57689 0 0 0 2.53795 0.114439 -0.0264657 0.0814378 0.0660581 0.744722 -3.53504 -48.9425 -3.69394 0.03 348.093 
112 1 1 1.18004 0.270703 1.57688 0 0 0 2.50578 0.404613 -0.00865698 0.0289119 -0.00952427 0.0446273 -13.5281 -49.9767 -10.3767 0.03 354.393 
86 1 1 1.27889 0.253339 1.57686 0 0 0 2.09096 0.000604726 0.00106231 8.76327 6.35206 16.0213 -0.0773071 -63.8614 -8.8901 0.03 366.203 
23 1 1 1.41228 0.237532 1.57685 0 0 0 2.27184 -0.153364 0.00145387 -0.00525677 0.000367512 0.104154 5.13464 -57.8572 -12.1119 0.03 362.829 
96 1 1 1.47368 0.235774 1.57687 0 0 0 2.2479 -0.324886 -0.00303957 0.0141791 -0.00326942 0.0234307 10.8715 -58.6306 0.943435 0.03 350.993 
82 1 1 1.53839 0.259343 1.57686 0 0 0 2.38252 -0.456671 5.34408e-06 -1.14101e-05 -3.22147e-06 0.00193376 15.2848 -54.137 4.03313 0.03 350.445 
3 1 1 0.320691 0.301788 1.57784 0 0 0 1.85879 -0.147666 -0.346314 -7.36193 2.7736 6.01689 3.69248 -66.1526 30.916 0.03 337.102 
175 1 1 0.465405 0.28748 1.58992 0 0 0 1.15666 -0.246884 0.289809 0 0 -2.77371 7.1968 -61.5993 11.5389 0.03 316.733 
11 1 1 0.591838 0.269856 1.57662 0 0 0 2.47716 -0.132398 0.108484 -0.679681 0.794464 -0.892405 4.14529 -51.3745 27.8234 0.03 338.817 
94 1 1 0.654647 0.282535 1.57686 0 0 0 2.10615 -0.0355347 -0.011798 1.16335 -1.20922 0.582237 3.07938 -61.6254 -1.57126 0.03 333.668 
64 1 1 0.833412 0.288308 1.57852 0 0 0 2.16345 -0.0897978 -0.0113173 0 0 -2.77371 2.65023 -62.3716 14.0579 0.03 358 
144 1 1 1.02025 0.294737 1.57681 0 0 0 2.29881 0.00503943 0.0342449 0.604751 0.659381 -0.755706 -0.958159 -56.3208 18.684 0.03 330.854 
133 1 1 1.46037 0.296813 1.57686 0 0 0 2.21289 -0.275856 -0.000341007 0.00125023 7.02906e-05 -0.0200905 9.23235 -59.811 -0.00928154 0.03 330.67 
70 1 1 0.239974 0.30656 1.58304 0 0 0 0.744325 0.338391 -0.602971 -20.9828 38.4069 -20.2121 52.6066 -63.3663 0.371769 0.03 312.079 
126 1 1 0.697135 0.336656 1.57771 0 0 0 2.71721 -0.0407615 -0.0831136 0 0 -2.77371 -12.7207 -34.1869 -16.8368 0.03 307.59 
123 1 1 0.766292 0.330673 1.57692 0 0 0 2.2179 -0.34542 0.0516679 -0.156411 -0.024223 -3.12683 11.5667 -59.6953 5.68399 0.03 306.033 
56 1 1 0.938929 0.316394 1.57662 0 0 0 2.61796 0.0673878 -0.0172349 2.2097 -3.72323 5.82977 8.83493 -39.859 -20.2363 0.03 308.698 
124 1 1 1.06334 0.33622 1.57709 0 0 0 2.29881 0.0703536 -0.0470557 2.71759 4.14717 -1.64728 -9.14802 -52.4181 -11.6588 0.03 352.979 
59 1 1 1.21572 0.326106 1.57686 0 0 0 2.39126 0.219997 -4.65878e-05 0.000166959 -2.2821e-05 0.0016452 -7.36326 -53.8443 8.17258 0.03 342.404 
132 1 1 0.130105 0.344061 1.57593 0 0 0 1.34773 0.0851854 -1.16937 78.8189 -22.026 75.9503 9.50861 -61.4748 22.0436 0.03 312.787 
166 1 1 0.391459 0.348582 1.58647 0 0 0 1.38862 0.221981 0.110594 0 0 -2.77371 -7.92835 -88.4437 14.7802 0.03 321.968 
38 1 1 0.469491 0.348634 1.57915 0 0 0 1.85887 -0.0229798 0.187458 0 0 -2.77371 -0.348405 -72.1052 -14.006 0.03 318.64 
35 1 1 0.579531 0.362493 1.57718 0 0 0 2.1833 -0.181034 -0.0317566 0 0 -2.77371 -5.80162 -47.2888 -4.52146 0.03 313.983 
143 1 1 1.00772 0.371535 1.57686 0 0 0 2.11048 -0.00936027 -3.78012e-05 0.000174918 8.55633e-07 0.0049765 0.313289 -63.2423 -2.71077 0.03 348.363 
81 1 1 1.29791 0.341802 1.57686 0 0 0 2.47923 -0.00318718 1.28556e-09 -4.25959e-09 -8.9276e-12 -1.9344e-08 0.106675 -50.9002 -13.9831 0.03 338.593 
33 1 1 0.00826839 0.398918 1.58351 0 0 0 -0.0860896 0.125808 -0.126534 0 0 -2.77371 -4.22464 -137.32 0.517279 0.03 303.452 
101 1 1 0.625689 0.401288 1.57646 0 0 0 2.20303 0.052865 -0.0338485 7.00935 0.597319 11.0417 -9.62401 22.8452 2.31477 0.03 336.468 
170 1 1 0.879022 0.4037 1.57684 0 0 0 2.39378 0.343909 0.00296975 1.36485 0.539905 0.161812 -12.5971 -51.0406 -4.69686 0.03 322.961 
122 1 1 1.07083 0.395077 1.5846 0 0 0 2.31589 0.09286 -0.0101274 0.318231 0.589061 -2.58721 -1.91649 -43.6217 -0.997436 0.03 349.189 
29 1 1 1.23653 0.38578 1.57771 0 0 0 2.84106 0.00268642 0.191224 6.33083 -3.97124 1.186 2.07797 -34.4714 -2.07243 0.03 342.945 
54 1 1 1.29831 0.401981 1.57686 0 0 0 2.24235 -0.277113 2.60907e-09 -9.75006e-09 -1.53721e-09 2.29376e-08 9.27496 -58.8284 -8.02237 0.03 355.375 
84 1 1 0.172433 0.414252 1.57445 0 0 0 0.996397 0.0532024 -0.397216 65.9467 0.0633913 129.12 -1.86608 -66.6308 -0.448645 0.03 301.043 
116 1 1 0.259181 0.424707 1.57911 0 0 0 0.846545 0.015351 -1.13777 -47.3271 -35.6301 -45.7706 -30.2117 -29.0196 -0.698917 0.03 316.943 
25 1 1 0.405181 0.422163 1.57669 0 0 0 1.75448 0.265824 0.0953279 0.638594 3.15159 -2.68052 -8.12975 -77.8469 -18.336 0.03 309.01 
77 1 1 0.48952 0.418955 1.5767 0 0 0 1.84903 -0.169229 0.313936 -1.08477 -0.141162 -6.54866 5.63038 -73.5982 1.58304 0.03 329.9 
37 1 1 0.713494 0.435787 1.57699 0 0 0 2.27312 0.255511 -0.0228927 -0.00711503 -0.00428722 -1.05853 -8.52873 -57.6203 13.8758 0.03 307.445 
111 1 1 0.828625 0.440176 1.57703 0 0 0 2.49543 0.356413 0.11379 -0.676871 0.128592 -6.12434 -11.956 -50.1642 6.71055 0.03 316.997 
50 1 1 0.924431 0.443091 1.577 0 0 0 2.50229 0.21448 0.0663087 16.5658 -9.21415 3.27172 -4.70766 -47.5588 8.38863 0.03 340.857 
30 1 1 1.12778 0.43426 1.57666 0 0 0 2.71393 -0.366608 0.0108416 3.10727 -0.531105 3.53094 15.7964 -22.8115 -2.19601 0.03 363.234 
167 1 1 1.18561 0.415764 1.57627 0 0 0 2.57543 -0.145338 -0.107901 3.96388 -2.23166 17.3046 14.8449 -31.565 10.0308 0.03 331.95 
148 1 1 0.111227 0.455433 1.57604 0 0 0 1.42795 0.0498923 -0.439271 63.914 6.47888 -180.02 -2.07572 -78.7796 -3.35958 0.03 303.688 
160 1 1 0.426739 0.478057 1.5768 0 0 0 1.86632 0.398944 -0.318992 1.69379 6.47865 -65.2909 -16.2695 -64.5153 4.04384 0.03 331.518 
135 1 1 0.569776 0.45604 1.5788 0 0 0 1.98222 0.182191 -0.00767383 0 0 -2.77371 -7.12395 -65.5842 4.60594 0.03 344.111 
69 1 1 0.771096 0.457161 1.57696 0 0 0 2.35057 -0.0588764 -0.00474599 0.976653 -0.585218 -1.37048 2.33534 -54.4144 -12.5616 0.03 353.154 
26 1 1 0.875837 0.476914 1.58002 0 0 0 2.71873 0.123988 0.216407 -15.1427 -1.08665 -12.418 0.552963 -26.6793 4.19727 0.03 313.459 
131 1 1 1.07118 0.458354 1.57709 0 0 0 2.75582 0.0157875 0.0171756 5.88981 -2.35905 -0.0362583 4.95738 -0.203292 -14.7043 0.03 336.199 
32 1 1 1.462 0.449236 1.57686 0 0 0 2.41625 0.0362623 -4.1999e-11 -2.90346e-09 6.6483e-11 -8.40538e-07 -1.2137 -53.0078 4.98442 0.03 352.775 
119 1 1 0.205855 0.486681 1.57631 0 0 0 0.973331 0.0699757 0.355777 -5.03042 2.41875 -14.535 -3.96034 -100.798 5.74115 0.03 325.411 
21 1 1 0.300838 0.484226 1.57557 0 0 0 1.63017 0.74431 -0.208253 22.8257 5.67267 8.02401 5.41384 -78.2525 6.7421 0.03 315.816 
4 1 1 0.494273 0.483916 1.5752 0 0 0 2.09437 0.0138018 0.202422 -2.4711 3.47895 14.0147 -1.84215 -67.8872 9.22069 0.03 314.585 
136 1 1 0.547533 0.511868 1.57652 0 0 0 2.17339 0.288971 -0.200644 10.7743 -1.23541 18.9161 1.85489 39.5245 -5.49073 0.03 301.294 
169 1 1 0.627691 0.500822 1.57686 0 0 0 2.2479 -0.131516 -0.101299 -0.0887313 0.25325 4.58019 4.31233 -58.6098 -5.6083 0.03 325.732 
61 1 1 0.744773 0.510952 1.57678 0 0 0 2.13689 -0.144352 -0.00977809 0.211289 -0.17359 1.82335 3.8628 -62.8621 14.2341 0.03 336.518 
163 1 1 1.01813 0.485295 1.57674 0 0 0 2.65442 -0.207318 -0.0294636 -2.69577 0.962484 0.78488 7.9063 -43.0631 28.209 0.03 343.459 
145 1 1 1.11151 0.503402 1.57681 0 0 0 2.75589 0.0716624 0.00365819 1.76688 0.10961 0.766835 -2.98947 -32.1869 15.0038 0.03 326.167 
39 1 1 1.16888 0.485405 1.57692 0 0 0 2.61714 -0.192198 0.0337609 -0.0729792 -0.0227002 -2.32592 6.45835 -46.1702 -1.22838 0.03 340.055 
10 1 1 1.24225 0.482704 1.57687 0 0 0 2.48086 -0.111625 -0.0023596 -0.0275295 0.0476614 0.0815834 3.7637 -50.8332 -8.13848 0.03 363.684 
162 1 1 1.31176 0.492196 1.57699 0 0 0 2.69053 -0.261398 0.00742585 0.735937 -1.17323 -1.25537 8.77694 -43.6535 17.4197 0.03 350.161 
36 1 1 1.39076 0.484514 1.57686 0 0 0 2.35765 0.161792 -1.00845e-09 2.88853e-09 -2.8457e-10 -1.77341e-07 -5.41516 -54.9694 -1.38527 0.03 349.307 
140 1 1 1.59946 0.493099 1.57686 0 0 0 2.52255 0.0244765 1.26795e-07 -4.22064e-07 6.99221e-09 -5.89837e-06 -0.819227 -49.4502 0.805906 0.03 331.369 
304 1 1 0.098519 0.524378 1.57692 0 0 0 -0.278812 0.390193 -1.90715 142.305 22.9467 79.6328 -33.9404 -13.4855 13.9383 0.03 300.01 
48 1 1 0.285143 0.551021 1.57656 0 0 0 1.35262 0.129918 0.392423 -2.08522 2.43407 -8.42982 -5.43834 -90.1991 17.0107 0.03 311.425 
147 1 1 0.387584 0.555136 1.57555 0 0 0 1.97999 0.760781 0.604898 0.0669047 -0.175864 -2.23061 -28.9629 -72.5863 18.3485 0.03 312.063 
104 1 1 0.841437 0.52518 1.5761 0 0 0 2.38991 -0.173971 0.0477959 -1.52507 -9.48085 -6.33782 3.82379 -54.9893 -12.3857 0.03 328.982 
42 1 1 0.91147 0.536302 1.57684 0 0 0 2.23642 -0.0105075 0.136975 -0.557089 -1.49257 -5.96 2.8902 -60.1139 8.41463 0.03 344.093 
63 1 1 1.0429 0.546294 1.57681 0 0 0 2.52653 -0.0375729 -0.00677723 -0.187453 0.131946 0.128056 1.25908 -49.335 15.6996 0.03 359.112 
109 1 1 1.16079 0.547998 1.57687 0 0 0 2.66969 -0.184974 0.00181608 1.28306 -0.293538 -0.141293 13.2624 -13.6127 9.20173 0.03 351.681 
103 1 1 1.22075 0.538699 1.57679 0 0 0 2.65206 -0.0339303 0.002691 0.549284 -0.415134 0.406904 2.8659 -33.3937 -2.89301 0.03 362.506 
172 1 1 1.28035 0.54299 1.5767 0 0 0 2.68203 -0.226254 -0.00710083 0.713539 -0.0148809 1.27715 6.49786 -45.014 -13.0367 0.03 353.732 
66 1 1 1.35633 0.534148 1.57686 0 0 0 2.41857 0.102756 1.93657e-05 -7.10586e-05 4.6124e-06 -0.00147014 -3.43923 -52.9303 -8.3985 0.03 343.373 
100 1 1 1.47804 0.528354 1.57683 0 0 0 2.46796 0.061726 0.000386083 0.267228 -0.384935 0.0156392 -2.05554 -51.3115 -2.2759 0.03 358.858 
326 1 1 0.163356 0.580457 1.58901 0 0 0 1.17528 0.52756 0.837017 -3.64772 0.885485 -3.34295 -32.6524 -127.203 -10.6406 0.03 306.154 
34 1 1 0.450832 0.58265 1.59511 0 0 0 2.15398 0.46347 0.534145 0 0 -2.77371 -28.3621 -81.2947 -6.03924 0.03 321.601 
117 1 1 0.529206 0.570366 1.57905 0 0 0 2.28452 0.336419 0.254574 2.71503 -8.16917 6.34688 -14.2364 -66.4125 -18.2814 0.03 318.14 
16 1 1 0.612473 0.559383 1.57707 0 0 0 2.03903 -0.154131 -0.143432 -0.238093 -0.641383 1.25825 6.03249 -65.7309 2.39368 0.03 341.42 
118 1 1 0.699355 0.560241 1.57634 0 0 0 2.16291 0.0991936 -0.0793691 0.455457 -0.0876887 17.3507 -3.40385 -61.8619 -14.3136 0.03 332.695 
152 1 1 0.778508 0.56693 1.57567 0 0 0 2.3975 -0.187567 0.0906738 4.49869 -1.71736 11.8672 9.0311 -58.1817 -30.4521 0.03 350.041 
105 1 1 0.860566 0.579323 1.58803 0 0 0 2.33153 -0.218292 -0.266016 5.19611 -5.35192 6.86697 -27.4364 4.70349 -2.36192 0.03 306.513 
121 1 1 0.980454 0.556352 1.57687 0 0 0 2.41467 -0.106524 0.00059467 -0.00216105 -0.000191749 -0.0910955 3.56506 -53.0557 -27.1987 0.03 359.529 
158 1 1 1.10388 0.567037 1.57676 0 0 0 2.7858 -0.0516636 0.00305742 2.81222 -0.281169 0.431017 2.46111 -38.2559 -27.4665 0.03 347.78 
168 1 1 1.41816 0.559631 1.57686 0 0 0 2.40346 0.245525 -1.83277e-06 5.46792e-06 -8.40886e-07 -0.000222473 -8.21769 -53.4361 7.62347 0.03 336.955 
113 1 1 1.48585 0.585079 1.59423 0 0 0 2.30822 0.0647209 0.0650435 -0.261285 -0.33125 -0.325791 -3.07051 -62.6468 -17.3793 0.03 358.267 
72 1 1 0.237552 0.59019 1.59882 0 0 0 1.37859 0.166703 0.00754452 3.2585 -6.3069 14.2493 -20.2975 -66.966 -47.862 0.03 308.143 
18 1 1 0.923026 0.590785 1.59936 0 0 0 2.06429 0.203777 0.124992 4.71156 -6.31327 11.1631 -25.5199 -31.1536 -39.3819 0.03 305.129 
114 1 1 0.366349 0.13815 1.62408 0 0 0 1.23416 0.0939443 0.019701 -0.0499083 6.93876 2.37259 -4.73424 -113.892 18.601 0.03 311.903 
139 1 1 0.441325 0.133783 1.63007 0 0 0 1.11185 -0.232125 0.237333 0 0 -2.77371 16.4912 -118.856 18.275 0.03 330.483 
173 1 1 0.921055 0.153329 1.6093 0 0 0 2.47974 0.170616 -0.223453 2.51256 3.47981 5.19223 7.9546 -10.2207 42.6437 0.03 309.979 
87 1 1 1.05179 0.152139 1.6108 0 0 0 1.9751 0.264376 -0.264347 -8.67949e-05 0.989349 -0.98836 -12.5027 -44.8673 50.898 0.03 334.345 
22 1 1 0.205352 0.173503 1.60402 0 0 0 0.315808 -0.035022 -0.786138 4.85766 2.21518 0.301696 -11.321 16.5268 -29.6696 0.03 300.219 
51 1 1 0.425968 0.190316 1.61664 0 0 0 0.568491 -0.401664 -0.148494 0 0 -2.77371 -23.7557 22.6449 1.32564 0.03 307.565 
171 1 1 0.566143 0.166636 1.6341 0 0 0 1.46988 -0.0186099 0.600616 0 0 -2.77371 -8.75622 48.4422 -23.7755 0.03 300.319 
74 1 1 0.368888 0.213425 1.61893 0 0 0 0.486032 -0.219147 -0.295276 0 0 -2.77371 -14.62 -6.11998 5.82112 0.03 300.57 
281 1 1 0.485111 0.199691 1.6243 0 0 0 0.906985 -0.765059 -0.952386 0 0 -2.77371 -13.5155 -13.2902 -20.1562 0.03 300.2 
164 1 1 0.266695 0.261719 1.60676 0 0 0 0.128407 -0.675477 -0.673986 17.2156 -25.0596 -1.77243 12.8906 7.66364 -9.50188 0.03 300.507 
19 1 1 0.561936 0.231197 1.61256 0 0 0 1.68879 -0.0930515 -0.0122803 -2.79871 12.6606 16.1148 -23.339 -1.08758 -9.79751 0.03 302.734 
141 1 1 0.696385 0.246286 1.60257 0 0 0 2.1286 -0.509873 -0.411482 -2.60454 26.4944 2.48205 -8.43161 66.8756 -30.4623 0.03 301.512 
146 1 1 0.801267 0.246157 1.61143 0 0 0 1.77685 0.0865194 0.0338018 0 0 -2.77371 1.44165 45.2547 -26.4789 0.03 301.765 
7 1 1 0.880784 0.259713 1.61191 0 0 0 2.28769 -0.292179 0.103204 0 0 -2.77371 28.3567 45.4005 2.90389 0.03 301.202 
339 1 1 0.0999213 0.282943 1.59586 0 0 0 -0.634334 0.108693 -2.22302 0 0 -2.77371 28.0166 18.7045 -1.40272 0.03 300.173 
73 1 1 0.195971 0.280329 1.63849 0 0 0 0.195295 0.481146 0.368212 0 0 -2.77371 -12.6319 66.9023 -0.0236985 0.03 300.627 
225 1 1 0.623905 0.292819 1.63243 0 0 0 1.29351 -0.162703 -0.0711432 0 0 -2.77371 10.9245 28.7603 -19.3834 0.03 300.309 
155 1 1 0.982103 0.270836 1.63649 0 0 0 2.0606 -0.0491916 0.231702 0 0 -2.77371 -3.98124 45.5716 22.8363 0.03 301.214 
300 1 1 0.152612 0.327987 1.62719 0 0 0 0.217413 0.383199 -0.331361 7.28175 -0.838505 11.3787 1.17619 -32.234 20.7885 0.03 300.072 
127 1 1 0.534128 0.328288 1.60281 0 0 0 0.946216 0.0045678 -0.868777 0 0 -2.77371 6.54108 -5.3704 -9.82308 0.03 300.987 
31 1 1 0.219434 0.355513 1.64092 0 0 0 0.0485075 0.482292 0.652258 0 0 -2.77371 -40.3171 49.0112 -4.16123 0.03 300.421 
53 1 1 0.284231 0.372169 1.59748 0 0 0 0.0917287 0.540826 -0.55575 0 0 -2.77371 -44.7509 32.3878 13.8923 0.03 300.486 
159 1 1 1.11101 0.346975 1.61194 0 0 0 2.53523 -0.140225 -0.227574 0 0 -2.77371 20.8567 65.5344 12.8802 0.03 301.761 
289 1 1 0.116057 0.390935 1.62839 0 0 0 -0.0134893 0.267873 0.084757 0 0 -2.77371 -14.0493 47.3172 -10.8667 0.03 300.154 
128 1 1 0.427874 0.402077 1.62827 0 0 0 0.612978 -0.0260061 0.560306 -24.0568 -7.84772 -40.8063 3.7041 45.0963 -10.9293 0.03 300.88 
153 1 1 0.669269 0.386517 1.61493 0 0 0 2.236 0.140075 -0.0168307 -0.150649 0.0477848 -2.81121 7.93028 -32.2762 2.40152 0.03 300.581 
24 1 1 0.822642 0.396442 1.61854 0 0 0 1.50751 -0.270082 -0.327442 0 0 -2.77371 36.258 -11.9005 12.5488 0.03 300.398 
28 1 1 0.300238 0.442064 1.61426 0 0 0 0.708283 0.173617 -0.346946 16.703 4.57296 -5.5857 13.8492 18.7728 -6.47655 0.03 300.573 
102 1 1 0.519303 0.415584 1.6285 0 0 0 1.23615 0.176944 1.0521 -2.38384 -4.48895 -7.03907 -16.3026 44.8496 3.71709 0.03 300.646 
249 1 1 0.159043 0.469874 1.60926 0 0 0 -0.568325 0.358724 -1.37672 28.2135 1.63467 9.77628 -12.3831 -1.70402 2.18133 0.03 300.228 
227 1 1 0.441868 0.477836 1.63255 0 0 0 0.658824 0.595289 -0.616266 45.814 -36.8211 -29.9219 0.310983 28.6878 -16.7121 0.03 300.546 
106 1 1 0.514662 0.474911 1.62889 0 0 0 1.3756 0.21649 0.809803 7.04338 -1.01986 19.9142 -2.48065 39.6997 -3.7392 0.03 301.451 
134 1 1 0.654233 0.452429 1.60079 0 0 0 2.54191 0.183905 -0.0378365 0 0 -2.77371 31.9524 17.7805 22.0322 0.03 302.162 
151 1 1 1.13228 0.469279 1.6283 0 0 0 2.32827 0.118289 -0.210891 0 0 -2.77371 -21.1752 38.0565 10.2691 0.03 304.349 
92 1 1 1.18955 0.450888 1.62635 0 0 0 2.30344 0.245966 -0.389367 0 0 -2.77371 -15.712 57.1538 -9.76472 0.03 300.957 
55 1 1 0.239819 0.516227 1.61447 0 0 0 0.58374 1.14425 0.118562 -10.0292 26.85 -28.5456 -14.1208 79.8282 -20.0632 0.03 300.419 
157 1 1 1.28707 0.511992 1.62791 0 0 0 2.44352 -0.286789 -0.0784134 0.143371 -0.151924 -2.90491 -12.3332 51.5159 11.3394 0.03 303.659 
276 1 1 0.300858 0.52142 1.62569 0 0 0 0.942062 0.296732 1.0679 -0.457066 0.090408 -9.52758 0.600208 57.9074 3.94289 0.03 300.233 
52 1 1 0.414116 0.529058 1.62106 0 0 0 1.63667 -0.0077272 1.04076 -32.0675 52.5645 29.0073 63.9706 45.7642 -6.57663 0.03 300.558 
98 1 1 0.769309 0.537938 1.63153 0 0 0 1.73726 0.261003 0.314441 0 0 -2.77371 -8.1028 53.9756 11.4743 0.03 300.782 
9 1 1 1.08032 0.536411 1.62244 0 0 0 2.61185 -0.0373897 -0.0858942 0.0076644 -0.327574 -0.266016 9.06296 50.5954 -3.19977 0.03 305.739 
65 1 1 0.541839 0.567998 1.63892 0 0 0 1.40423 0.294671 0.41102 -12.4393 0.230839 -1.33921 -12.1393 7.52354 -11.9984 0.03 300.503 
79 1 1 0.739505 0.598661 1.60779 0 0 0 1.6096 -0.581183 -0.60811 -0.526362 3.05799 2.33572 9.56555 -8.01012 -40.6754 0.03 316.665 
2 1 1 0.802587 0.602209 1.61613 0 0 0 1.91659 -0.152782 0.619818 2.58887 4.25844 10.8934 -10.3463 -39.4636 -24.6386 0.03 315.857 
83 1 1 1.27602 0.595528 1.60473 0 0 0 3.19388 -0.126289 -0.125535 1.38307 0.850038 0.806272 1.57096 20.8674 -27.0287 0.03 313.208 
75 1 1 0.673039 0.625747 1.63654 0 0 0 1.55025 0.0940819 0.114073 0 0 -2.77371 -24.4391 -14.2166 -25.3177 0.03 303.728 
156 1 1 0.866309 0.619655 1.62946 0 0 0 1.81233 -0.122298 -0.0049386 1.57899 27.9053 16.5675 18.0558 -81.6738 -35.17 0.03 332.903 
62 1 1 0.281332 0.10376 1.65615 0 0 0 0.777475 0.548066 -0.144722 29.2754 44.9211 36.0125 -14.1436 -133.605 40.3156 0.03 301.843 
115 1 1 0.571902 0.101358 1.66708 0 0 0 1.93968 -0.182811 0.112782 0 0 -2.77371 13.0047 -29.3616 61.6705 0.03 308.929 
288 1 1 0.233155 0.210494 1.64224 0 0 0 1.31872 -0.562389 -0.611847 0 0 -2.77371 24.1609 -0.399437 -4.70449 0.03 300.005 
43 1 1 0.659274 0.19986 1.66279 0 0 0 1.60571 -0.43841 0.320958 0 0 -2.77371 10.9031 45.7781 6.75873 0.03 300.392 
213 1 1 0.132052 0.22944 1.63008 0 0 0 0.481972 -1.05008 -1.94797 0 0 -2.77371 1.60452 5.35625 3.94826 0.03 300.001 
307 1 1 0.295066 0.223606 1.65327 0 0 0 0.0285369 -0.921662 -0.963721 0 0 -2.77371 2.34517 -5.99953 3.81421 0.03 300.002 
107 1 1 0.358179 0.266761 1.6463 0 0 0 0.303128 0.525085 -1.43988 0 0 -2.77371 33.8864 -15.935 -18.2918 0.03 300.034 
221 1 1 0.441473 0.232556 1.66151 0 0 0 0.462352 -1.07541 -0.873344 0 0 -2.77371 3.28517 1.44802 6.44091 0.03 300.001 
46 1 1 1.06466 0.238246 1.64181 0 0 0 1.86202 -0.168374 -0.279632 0 0 -2.77371 -2.90245 29.1062 -24.3177 0.03 301.114 
187 1 1 0.498769 0.295726 1.6405 0 0 0 0.640549 -0.209198 -1.03537 0 0 -2.77371 17.9626 11.7345 -11.8036 0.03 300.016 
44 1 1 0.731226 0.295551 1.62902 0 0 0 1.40738 0.0768462 -0.765169 0 0 -2.77371 -7.58956 14.9275 29.3808 0.03 300.826 
180 1 1 0.292101 0.314326 1.62872 0 0 0 -0.281962 -0.208757 -0.943701 7.36193 -2.7736 -11.5643 -5.19645 -4.43882 -16.1827 0.03 300.177 
71 1 1 0.380044 0.329592 1.66014 0 0 0 0.485713 -0.170544 0.287078 0 0 -2.77371 -14.9511 50.6792 -5.12114 0.03 300.847 
68 1 1 0.460625 0.353522 1.64201 0 0 0 1.02575 -0.310532 0.403779 -0.634585 -12.523 -3.95711 -13.7882 18.741 1.38046 0.03 300.464 
190 1 1 0.256518 0.406053 1.64771 0 0 0 0.624761 0.246744 0.908743 0 0 -2.77371 19.9544 51.6301 -5.96516 0.03 300.21 
6 1 1 0.364862 0.439782 1.62421 0 0 0 0.351639 0.292728 -2.18628 4.77651 0.172773 15.7603 21.9808 -14.6347 -0.650581 0.03 300.309 
246 1 1 0.106748 0.455074 1.63155 0 0 0 -0.602231 0.00158839 -1.63015 -67.9569 -7.38915 213.712 4.74912 15.6845 5.46489 0.03 300.007 
226 1 1 0.253548 0.465589 1.63887 0 0 0 -0.147568 0.0582902 -1.24768 -5.8971 -7.43668 66.4276 15.6293 -43.2323 -7.19646 0.03 300.003 
130 1 1 1.05934 0.468632 1.6497 0 0 0 2.01452 -0.115907 0.429302 0 0 -2.77371 -1.80228 -25.3021 -0.648071 0.03 300.511 
20 1 1 0.864938 0.491097 1.63695 0 0 0 1.74582 0.301213 -0.118445 1.79629 1.09042 3.51374 -4.21686 31.1136 2.97482 0.03 301.159 
149 1 1 0.937078 0.498546 1.64031 0 0 0 2.00839 0.0967977 -0.400706 0 0 -2.77371 10.7463 -19.5596 -8.52746 0.03 300.579 
301 1 1 0.171678 0.541805 1.63508 0 0 0 -0.542462 0.584275 -1.61294 0 0 -2.77371 6.04357 -16.4086 7.28738 0.03 300 
150 1 1 0.596827 0.549171 1.64966 0 0 0 1.44525 0.145805 0.339239 12.2394 0.420995 -4.0777 -12.0119 14.825 15.892 0.03 300.741 
138 1 1 0.503597 0.609164 1.65963 0 0 0 1.35243 0.323624 0.420185 2.56249 -2.95993 -0.25441 -35.8617 43.373 41.6065 0.03 300.2 
129 1 1 0.281303 0.631114 1.66816 0 0 0 1.26868 0.466353 0.387715 0 0 -2.77371 -16.2027 -52.7064 -40.2018 0.03 303.437 
154 1 1 0.352428 0.629234 1.64147 0 0 0 1.17037 0.103612 0.436881 0 0 -2.77371 -9.29498 -6.28142 -70.312 0.03 303.925 
89 1 1 0.451667 0.626949 1.63601 0 0 0 1.54565 -0.162539 -0.198299 -0.202409 -0.454636 -1.87993 6.4994 -63.1674 -42.0494 0.03 310.149 
17 1 1 0.574232 0.641289 1.65038 0 0 0 1.63209 -0.054677 0.0323946 0.0448508 -0.056613 -2.66109 -22.9115 -23.6609 -50.9021 0.03 305.85 
99 1 1 0.715847 0.657632 1.66676 0 0 0 1.92527 -0.110914 -0.107518 -0.839437 -1.21362 -0.611157 4.4646 -36.0168 -61.759 0.03 317.817 
137 1 1 0.331655 0.0700574 1.69286 0 0 0 0.94731 0.160304 -0.156459 0.394684 0.791433 -0.619113 0.175277 -65.3174 74.7069 0.03 311.76 
165 1 1 0.935865 0.0707258 1.69219 0 0 0 2.05654 0.214024 -0.207841 -0.0248074 1.13402 -0.983934 -10.0069 -25.88 66.0896 0.03 311.586 
76 1 1 0.446299 0.092741 1.69428 0 0 0 0.844591 -0.491443 -0.376427 0 0 -2.77371 13.0902 83.2212 -49.4108 0.03 301.053 
49 1 1 0.64644 0.116089 1.67778 0 0 0 2.19511 0.23437 -0.120194 0 0 -2.77371 9.58934 -29.9601 32.6239 0.03 306.835 
333 1 1 0.411798 0.179244 1.67749 0 0 0 0.459132 -0.608979 -0.0823439 0 0 -2.77371 12.2467 -19.0659 14.8296 0.03 300.126 
322 1 1 0.505792 0.24049 1.66528 0 0 0 0.431458 -0.290516 -0.786409 0 0 -2.77371 -14.141 -30.1975 2.82254 0.03 300.019 
257 1 1 0.106452 0.303041 1.65265 0 0 0 -0.484502 -0.179959 -1.26767 -9.1018 -11.1651 11.8681 -12.5548 -18.0003 2.32191 0.03 300.001 
230 1 1 0.259074 0.275026 1.66335 0 0 0 0.0291879 -0.364177 -0.728271 3.20884 -4.4685 24.4202 -3.67599 -4.23332 -5.90771 0.03 300.004 
181 1 1 0.441484 0.298433 1.67346 0 0 0 0.728885 -0.62024 0.293631 0 0 -2.77371 40.1074 -26.529 -12.9084 0.03 300.018 
340 1 1 0.250076 0.341871 1.69144 0 0 0 0.59229 0.31083 0.417201 0 0 -2.77371 68.2861 -19.1288 -15.8505 0.03 300.008 
176 1 1 0.359501 0.387801 1.65784 0 0 0 0.210962 0.209619 -1.46057 13.0768 -12.9391 2.97389 -35.5874 -31.1465 9.00551 0.03 300.021 
268 1 1 0.465944 0.40342 1.67311 0 0 0 0.722328 0.306349 -0.330557 25.8238 17.2777 37.095 -22.7119 -25.2777 6.80622 0.03 300.007 
291 1 1 0.539941 0.387311 1.68404 0 0 0 1.47007 0.122287 -0.831674 0 0 -2.77371 30.4849 62.0038 -37.0431 0.03 300 
178 1 1 0.316974 0.427736 1.66726 0 0 0 0.268546 -0.129955 -0.313253 19.3357 -9.64796 49.8393 -6.26288 -33.8918 -10.4509 0.03 300.005 
352 1 1 0.379284 0.440717 1.68185 0 0 0 0.327747 -0.0424694 -1.36444 -4.77651 -0.172773 -21.3077 -9.39095 7.06319 2.187 0.03 300.002 
296 1 1 0.561615 0.446382 1.66731 0 0 0 1.37531 0.412695 -1.1069 0 0 -2.77371 -8.41239 7.54148 29.6159 0.03 300.008 
265 1 1 0.444252 0.457448 1.68499 0 0 0 0.0937678 0.103415 0.00127787 -5.76162 -15.4417 70.3532 3.50575 -57.545 -3.11979 0.03 300.003 
243 1 1 0.491963 0.494521 1.67978 0 0 0 0.510824 0.527581 0.660842 0.199449 0.89739 0.409829 -2.01405 -70.7145 -3.7558 0.03 300.031 
224 1 1 0.393236 0.51952 1.6759 0 0 0 0.177803 -0.497315 0.469256 0.387277 -1.66983 2.01677 -22.6956 -52.5935 -6.97373 0.03 300.006 
57 1 1 0.407955 0.668765 1.67795 0 0 0 1.17967 -0.0574823 -0.0591291 0.943051 -1.36293 -1.46693 6.7489 3.62872 -2.59567 0.03 308.901 
27 1 1 0.617375 0.684813 1.69427 0 0 0 1.9415 0.0957808 0.0500792 0 0 -2.77371 -6.12444 -51.1845 -45.9773 0.03 306.325 
196 1 1 0.358393 0.226117 1.695 0 0 0 -0.0319184 -0.846593 -1.35353 0 0 -2.77371 2.18114 10.1041 5.25365 0.03 300 
245 1 1 0.160535 0.375989 1.68162 0 0 0 0 0 -2.85846 0 0 -2.77371 0 0 0 0.03 300 
254 1 1 0.38257 0.379019 1.71462 0 0 0 0.334857 0.222906 -0.854973 0 0 -2.77371 39.0141 35.7519 -10.8204 0.03 300 
270 1 1 0.207615 0.426676 1.71333 0 0 0 0 0 -2.7475 0 0 -2.77371 0 0 0 0.03 300 
93 1 1 0.218453 0.693077 1.72965 0 0 0 -0.0613205 1.00533 -0.172412 0 0 -2.77371 -31.8754 6.51144 -11.2183 0.03 300.067 
248 1 1 0.155073 0.291265 1.74976 0 0 0 0 0 -2.61419 0 0 -2.77371 0 0 0 0.03 300 
209 1 1 0.352404 0.322469 1.72046 0 0 0 0 0 -2.7219 0 0 -2.77371 0 0 0 0.03 300 
313 1 1 0.439938 0.327558 1.73853 0 0 0 0 0 -2.65598 0 0 -2.77371 0 0 0 0.03 300 
279 1 1 0.157212 0.495968 1.73657 0 0 0 0 0 -2.66324 0 0 -2.77371 0 0 0 0.03 300 
317 1 1 0.252263 0.228507 1.76614 0 0 0 0 0 -2.55199 0 0 -2.77371 0 0 0 0.03 300 
252 1 1 0.442785 0.262265 1.77031 0 0 0 0 0 -2.5359 0 0 -2.77371 0 0 0 0.03 300 
204 1 1 0.215487 0.347963 1.76042 0 0 0 0 0 -2.57387 0 0 -2.77371 0 0 0 0.03 300 
346 1 1 0.2812 0.398881 1.75548 0 0 0 0 0 -2.5926 0 0 -2.77371 0 0 0 0.03 300 
335 1 1 0.429091 0.407041 1.76214 0 0 0 0 0 -2.56729 0 0 -2.77371 0 0 0 0.03 300 
217 1 1 0.461801 0.523439 1.76127 0 0 0 0 0 -2.57063 0 0 -2.77371 0 0 0 0.03 300 
305 1 1 0.346674 0.257421 1.82293 0 0 0 0 0 -2.32342 0 0 -2.77371 0 0 0 0.03 300 
193 1 1 0.281872 0.329623 1.79569 0 0 0 0 0 -2.43574 0 0 -2.77371 0 0 0 0.03 300 
272 1 1 0.116473 0.427779 1.80157 0 0 0 0 0 -2.4119 0 0 -2.77371 0 0 0 0.03 300 
262 1 1 0.417911 0.469013 1.82268 0 0 0 0 0 -2.3245 0 0 -2.77371 0 0 0 0.03 300 
239 1 1 0.490736 0.457949 1.78883 0 0 0 0 0 -2.46321 0 0 -2.77371 0 0 0 0.03 300 
201 1 1 0.360389 0.493184 1.78747 0 0 0 0 0 -2.46861 0 0 -2.77371 0 0 0 0.03 300 
351 1 1 0.181906 0.258163 1.85544 0 0 0 0 0 -2.18186 0 0 -2.77371 0 0 0 0.03 300 
233 1 1 0.496558 0.3336 1.8359 0 0 0 0 0 -2.26799 0 0 -2.77371 0 0 0 0.03 300 
237 1 1 0.207046 0.471117 1.82393 0 0 0 0 0 -2.3192 0 0 -2.77371 0 0 0 0.03 300 
303 1 1 0.114998 0.510423 1.84351 0 0 0 0 0 -2.23483 0 0 -2.77371 0 0 0 0.03 300 
263 1 1 0.269308 0.500141 1.82668 0 0 0 0 0 -2.30753 0 0 -2.77371 0 0 0 0.03 300 
319 1 1 0.490886 0.237209 1.87019 0 0 0 0 0 -2.11447 0 0 -2.77371 0 0 0 0.03 300 
206 1 1 0.126939 0.284236 1.89196 0 0 0 0 0 -2.01097 0 0 -2.77371 0 0 0 0.03 300 
298 1 1 0.133415 0.358363 1.86317 0 0 0 0 0 -2.14684 0 0 -2.77371 0 0 0 0.03 300 
341 1 1 0.462863 0.403415 1.88089 0 0 0 0 0 -2.06424 0 0 -2.77371 0 0 0 0.03 300 
334 1 1 0.38649 0.410383 1.87195 0 0 0 0 0 -2.10632 0 0 -2.77371 0 0 0 0.03 300 
283 1 1 0.300071 0.232043 1.91417 0 0 0 0 0 -1.89953 0 0 -2.77371 0 0 0 0.03 300 
332 1 1 0.233113 0.233231 1.89842 0 0 0 0 0 -1.97919 0 0 -2.77371 0 0 0 0.03 300 
194 1 1 0.257372 0.298287 1.8988 0 0 0 0 0 -1.97732 0 0 -2.77371 0 0 0 0.03 300 
231 1 1 0.39189 0.276895 1.89926 0 0 0 0 0 -1.97506 0 0 -2.77371 0 0 0 0.03 300 
338 1 1 0.455834 0.299724 1.91925 0 0 0 0 0 -1.87314 0 0 -2.77371 0 0 0 0.03 300 
347 1 1 0.332014 0.322805 1.89661 0 0 0 0 0 -1.98811 0 0 -2.77371 0 0 0 0.03 300 
331 1 1 0.280682 0.358343 1.92091 0 0 0 0 0 -1.86441 0 0 -2.77371 0 0 0 0.03 300 