ITEM: TIMESTEP
80000
ITEM: NUMBER OF ATOMS
353
ITEM: BOX BOUNDS ff ff ff
0 3.3
-0.3 0.8
-0.5 3
ITEM: ATOMS id type type x y z ix iy iz vx vy vz fx fy fz omegax omegay omegaz radius f_Temp[0] 
40 1 1 0.493599 0.191169 1.57586 0 0 0 1.50061 -0.249205 -0.799227 41.1343 13.092 83.5612 -19.5326 3.37811 25.7769 0.03 300.677 
58 1 1 0.579264 0.16665 1.59574 0 0 0 1.77753 -0.057556 0.115919 -0.160694 1.07419 -0.0223876 5.04377 -74.4387 31.5842 0.03 346.182 
161 1 1 0.64496 0.178228 1.585 0 0 0 1.95632 0.212899 -0.248037 0 0 -2.77371 -7.99171 49.7054 2.53688 0.03 305.618 
15 1 1 0.705691 0.174539 1.59036 0 0 0 2.09189 0.349699 -0.313153 0 0 -2.77371 -7.0069 -61.7762 21.2655 0.03 330.746 
78 1 1 0.782399 0.174653 1.58829 0 0 0 2.09855 0.590443 -0.590707 0.141274 0.695405 -0.71666 -25.1563 -17.8695 71.5325 0.03 319.923 
120 1 1 0.846504 0.199611 1.57688 0 0 0 2.26013 0.348859 -0.00958537 0.0353441 -0.0180649 0.13032 -11.6607 -58.2012 13.3206 0.03 350.484 
1 1 1 1.01833 0.19312 1.57683 0 0 0 2.89224 0.0419966 0.0212875 -0.442568 -0.0779594 -0.374568 -1.25185 -37.722 17.0997 0.03 323.601 
47 1 1 1.23514 0.186798 1.57681 0 0 0 2.26662 0.0126464 -0.0328058 -2.31045 -1.66548 -1.39331 -1.68581 -56.166 12.5369 0.03 354.925 
67 1 1 1.35687 0.183823 1.57917 0 0 0 2.44918 -0.15123 0.162932 -0.0362541 -0.5432 -1.08432 7.69515 -52.0951 20.9921 0.03 351.309 
85 1 1 1.43128 0.190914 1.57803 0 0 0 2.54276 -0.111725 -0.215132 0 0 -2.77371 4.87728 -48.6149 15.4361 0.03 327.293 
90 1 1 0.258309 0.225639 1.57737 0 0 0 1.34014 0.00905666 -0.0947239 0 0 -2.77371 -0.268677 -88.9251 16.2661 0.03 316.838 
91 1 1 0.587776 0.223119 1.57943 0 0 0 1.97542 -0.0198615 0.141234 0.289404 2.14257 0.745127 -25.6679 -65.5201 2.50521 0.03 328.959 
13 1 1 0.700256 0.233494 1.57668 0 0 0 1.62954 0.295474 -0.13671 -2.49229 -8.39893 -12.3439 -10.7811 -74.0924 28.1556 0.03 361.888 
108 1 1 1.07709 0.20523 1.57695 0 0 0 2.92913 0.101436 -0.00732361 0.127484 0.832888 -1.7658 -6.51006 -29.8953 7.78511 0.03 364.557 
60 1 1 1.16926 0.200632 1.57686 0 0 0 2.18769 -0.106544 -1.26836e-05 5.21797e-05 3.06755e-06 0.000683399 3.56601 -60.6579 15.918 0.03 344.028 
142 1 1 1.2853 0.218928 1.57693 0 0 0 2.20089 -0.0812426 0.0328222 6.55169 4.43487 1.44578 2.26301 -59.395 -9.07132 0.03 359.913 
45 1 1 1.64709 0.199022 1.57686 0 0 0 3.31511 0.117901 -1.12144e-05 1.76816e-05 -3.04383e-06 0.000761641 -3.94612 -22.9231 13.9821 0.03 345.546 
5 1 1 0.34695 0.26114 1.5772 0 0 0 2.10783 0.142103 0.0372395 0 0 -2.77371 2.55033 -31.5374 -28.6423 0.03 308.038 
12 1 1 0.410737 0.238299 1.57568 0 0 0 1.41498 -0.148101 -0.000258324 1.28953 6.46034 11.9131 2.67192 -88.7569 28.3626 0.03 327.861 
95 1 1 0.468664 0.248878 1.589 0 0 0 1.41058 -0.0177197 -0.188117 -2.2298 0.218037 -3.69738 7.25899 77.1965 -22.3838 0.03 300.637 
41 1 1 1.03348 0.253054 1.57694 0 0 0 2.5191 -0.0538868 -0.002531 0.0215214 -0.0567227 -1.12093 1.88735 -49.4278 -2.53417 0.03 345.359 
112 1 1 1.10483 0.258615 1.57725 0 0 0 2.51563 0.385014 -0.0494803 0 0 -2.77371 -15.159 -50.7969 -10.3767 0.03 351.101 
86 1 1 1.21618 0.253333 1.57686 0 0 0 2.09038 0.000186224 -5.26797e-08 2.14993e-07 -2.09665e-11 -2.16572e-07 -0.00623289 -63.9147 -8.90786 0.03 362.816 
23 1 1 1.34413 0.242147 1.57674 0 0 0 2.2719 -0.156665 0.00213724 0.0565062 -0.0349211 1.69214 4.36283 -58.0976 -12.2211 0.03 359.34 
96 1 1 1.40621 0.245536 1.57685 0 0 0 2.2545 -0.331692 -0.00101499 0.0106362 0.0353469 0.166494 11.0983 -58.4281 1.27633 0.03 347.325 
110 1 1 0.165953 0.265438 1.57553 0 0 0 1.43578 -0.459322 0.141068 -8.37303 -2.43223 12.8867 15.9227 -93.9748 -16.6461 0.03 314.244 
175 1 1 0.428953 0.297183 1.58178 0 0 0 1.39395 -0.485708 0.108106 -0.974293 -4.62938 -1.52925 14.6002 -80.0183 2.02421 0.03 316.719 
11 1 1 0.530454 0.280309 1.57676 0 0 0 1.83546 -0.447182 0.0191721 -0.0640381 -0.00161268 0.996879 15.0045 -72.6501 10.2362 0.03 334.557 
94 1 1 0.59135 0.282435 1.57643 0 0 0 1.97589 0.0155903 -0.0528869 24.7319 3.40435 -23.327 -3.08733 -65.5396 4.8245 0.03 328.382 
64 1 1 0.768484 0.290964 1.57567 0 0 0 2.10176 -0.0676511 -0.213324 -0.694227 0.274512 7.51845 4.73841 -57.7353 13.7794 0.03 355.58 
125 1 1 0.89417 0.267155 1.57682 0 0 0 2.35887 -0.0890638 -0.0447755 -8.04254 -2.06763 -10.2143 2.52984 -53.4239 -3.16212 0.03 322.353 
144 1 1 0.950158 0.293182 1.57689 0 0 0 2.3695 0.0926975 0.00537462 0.00015452 0.0058219 -0.765507 -3.10349 -54.5154 20.2643 0.03 326.153 
82 1 1 1.46691 0.273043 1.57686 0 0 0 2.38253 -0.456669 -0.000169553 0.000679017 0.000191712 0.0240973 15.285 -54.1378 4.03313 0.03 346.828 
70 1 1 0.202221 0.31633 1.57354 0 0 0 1.66913 0.0491564 -0.440936 -21.0054 -6.90877 20.4558 3.71773 -90.703 10.8157 0.03 307.189 
3 1 1 0.27361 0.302883 1.57547 0 0 0 1.55824 -0.0943391 0.217529 4.51325 19.1195 -45.2027 12.996 -85.3514 36.0313 0.03 334.204 
56 1 1 0.860404 0.316739 1.57694 0 0 0 2.53236 -0.158153 -0.146538 9.00997 5.87861 -6.52965 5.53646 -28.6334 -24.5838 0.03 303.46 
124 1 1 0.995724 0.336261 1.57662 0 0 0 2.23647 -0.00465074 -0.0711772 0.0393677 -7.77095 -1.98241 -4.65947 -59.8384 -7.68397 0.03 350.605 
59 1 1 1.14398 0.319506 1.57686 0 0 0 2.39124 0.22 -0.000466065 0.00158134 -0.000237378 -0.00534414 -7.363 -53.8426 8.17258 0.03 338.67 
133 1 1 1.39399 0.305085 1.57689 0 0 0 2.21259 -0.275727 -8.53454e-05 -0.0298525 0.105252 -0.385152 9.243 -59.7862 -0.00928154 0.03 326.785 
132 1 1 0.0980523 0.345638 1.57908 0 0 0 1.10328 0.162844 0.290263 1.77113 -21.9009 -2.97408 -4.30387 -97.1047 13.2869 0.03 312.723 
166 1 1 0.3498 0.341923 1.57873 0 0 0 1.38862 0.221981 0.404894 0 0 -2.77371 -7.92835 -88.4437 14.7802 0.03 321.968 
38 1 1 0.414297 0.354132 1.57324 0 0 0 1.80989 -0.3317 -0.148818 1.27261 6.33249 82.8383 8.98099 -83.2954 -19.1954 0.03 310.897 
35 1 1 0.510627 0.364105 1.57848 0 0 0 2.3866 0.0431163 -0.123366 8.54257 21.1591 -44.6365 7.66118 -55.3023 -0.402029 0.03 308.754 
126 1 1 0.615759 0.338147 1.57577 0 0 0 2.65188 -0.0943224 0.145416 9.28095 -0.875397 6.5627 -19.9135 -28.9115 -16.9485 0.03 305.98 
123 1 1 0.699614 0.341046 1.57934 0 0 0 2.22524 -0.346424 -0.0627577 0 0 -2.77371 11.4837 -60.3062 5.68399 0.03 303.356 
143 1 1 0.944405 0.371816 1.57686 0 0 0 2.11048 -0.00936041 -0.000761452 0.0032365 3.04894e-05 0.0358911 0.313277 -63.242 -2.71077 0.03 344.714 
81 1 1 1.22353 0.341897 1.57686 0 0 0 2.47923 -0.00318718 1.01325e-08 -3.1567e-08 -6.61568e-11 4.33958e-07 0.106675 -50.9002 -13.9831 0.03 334.805 
14 1 1 1.64591 0.342654 1.57686 0 0 0 2.42075 0.0677053 -1.06326e-11 -1.97373e-12 1.50235e-13 0 -2.26609 -52.8573 -2.54476 0.03 361.239 
33 1 1 0.0108511 0.395143 1.58289 0 0 0 -0.0860896 0.125808 0.167766 0 0 -2.77371 -4.22464 -137.32 0.517279 0.03 303.452 
25 1 1 0.358457 0.412284 1.57823 0 0 0 1.53487 0.700238 0.0873481 0 0 -2.77371 -33.9264 -39.71 -4.7497 0.03 303.431 
101 1 1 0.560998 0.403054 1.57993 0 0 0 1.54009 -0.328205 -0.698892 0 0 -2.77371 21.0081 46.7974 2.31792 0.03 334.312 
170 1 1 0.809244 0.394198 1.57665 0 0 0 2.25391 0.289641 0.00568621 2.21019 0.0640191 3.25494 -16.7735 -39.926 -4.60498 0.03 318.828 
122 1 1 1.00188 0.394979 1.58241 0 0 0 2.30917 -0.316914 0.0157983 -2.23435 18.5804 7.69869 16.2661 -45.9619 2.15057 0.03 349.158 
29 1 1 1.16142 0.379063 1.57686 0 0 0 2.45585 0.25574 0.000502429 -0.00160606 0.000305951 0.0157737 -8.56018 -51.6859 -3.33252 0.03 339.833 
174 1 1 1.60421 0.389782 1.57686 0 0 0 2.54452 -0.112838 8.02982e-12 2.40376e-12 1.49706e-13 0 3.77668 -48.7148 2.83466 0.03 355.842 
116 1 1 0.213933 0.41367 1.57734 0 0 0 1.53361 -0.218057 0.36008 0 0 -2.77371 7.10004 -81.8924 -3.79375 0.03 312.636 
77 1 1 0.435751 0.42227 1.577 0 0 0 1.71318 -0.0861843 0.0585621 -0.134013 0.0499611 -4.16077 2.88225 -76.4918 3.24746 0.03 325.123 
135 1 1 0.510593 0.446777 1.57581 0 0 0 1.96074 0.416196 0.134089 4.16559 -4.76417 18.4087 -12.3218 -68.4919 -1.52485 0.03 343.161 
37 1 1 0.646278 0.428903 1.57841 0 0 0 2.15208 0.165051 -0.1446 0 0 -2.77371 -16.0179 -47.6029 13.8758 0.03 304.031 
111 1 1 0.756665 0.431825 1.57789 0 0 0 2.27933 0.200143 -0.0552503 -1.84832 -1.86608 -4.02147 -7.22181 -57.2707 3.5666 0.03 311.943 
50 1 1 0.852474 0.435276 1.57712 0 0 0 2.38293 0.255637 0.0153605 0.957034 1.1141 -2.04388 -8.95461 -52.7995 10.2813 0.03 337.91 
167 1 1 1.10546 0.42301 1.57721 0 0 0 2.40065 -0.157558 -0.0576978 -0.53501 0.181061 -2.49811 5.83745 -51.4172 9.43475 0.03 330.138 
54 1 1 1.23104 0.410295 1.57686 0 0 0 2.24235 -0.277113 1.40272e-08 -4.66074e-08 -7.34815e-09 1.57004e-06 9.27496 -58.8284 -8.02237 0.03 351.83 
119 1 1 0.175968 0.481939 1.57969 0 0 0 0.953784 0.271494 0.0661647 0 0 -2.77371 -6.03726 -103.789 -8.16554 0.03 321.291 
21 1 1 0.251378 0.482031 1.57882 0 0 0 1.37873 0.0171703 -0.525444 35.2347 -21.5229 -31.9318 4.77505 -51.6962 -4.41497 0.03 308.312 
160 1 1 0.375622 0.470911 1.58143 0 0 0 1.58085 0.152514 -0.0592121 -0.817633 -5.63375 -11.5274 -18.3762 -77.6716 21.3977 0.03 327.674 
69 1 1 0.700503 0.458035 1.57792 0 0 0 2.35371 -0.0251813 -0.0959661 0 0 -2.77371 0.471916 -52.8919 -14.5422 0.03 350.207 
26 1 1 0.801064 0.472025 1.57687 0 0 0 2.27217 0.0624445 0.0218122 2.56217 2.48349 0.20337 -2.5024 -57.333 3.02373 0.03 311.31 
131 1 1 0.990001 0.456656 1.57598 0 0 0 3.22117 -0.061912 0.295691 -2.36087 -1.9019 0.850729 2.69017 -26.4947 -21.5645 0.03 331.549 
30 1 1 1.04944 0.444336 1.57671 0 0 0 2.35065 -0.171305 0.00708725 -0.43039 -0.0717303 -0.280243 5.52337 -55.8385 -15.4178 0.03 362.506 
36 1 1 1.32003 0.47966 1.57686 0 0 0 2.35765 0.161792 1.22593e-08 -5.24978e-08 5.17165e-09 -2.46945e-06 -5.41516 -54.9694 -1.38527 0.03 345.674 
32 1 1 1.38951 0.448148 1.57686 0 0 0 2.41625 0.0362623 8.79456e-08 -3.32734e-07 7.61844e-09 -9.31377e-06 -1.2137 -53.0078 4.98442 0.03 349.193 
4 1 1 0.439843 0.482933 1.58052 0 0 0 1.56728 -0.0411325 0.0541028 -14.9905 1.41506 -43.3135 -7.04617 -51.8776 1.06118 0.03 307.738 
136 1 1 0.493684 0.506893 1.58814 0 0 0 1.47561 0.225765 -0.398636 -8.57874 20.5499 -29.4276 -26.5351 25.183 -5.57989 0.03 300.484 
169 1 1 0.560196 0.504844 1.57663 0 0 0 2.24521 -0.14023 0.1651 2.17103 0.865178 -1.95093 2.63195 -57.8072 -5.89747 0.03 325.133 
61 1 1 0.680419 0.514823 1.57688 0 0 0 2.13984 -0.0665847 -0.00645266 0.0326779 -0.0236858 0.0202052 2.25546 -62.2241 16.8495 0.03 332.497 
163 1 1 0.937258 0.491849 1.57689 0 0 0 2.69918 -0.219042 -0.00435203 0.0287207 -0.0132668 -0.302197 7.34095 -43.4832 29.3481 0.03 339.692 
145 1 1 1.03141 0.50236 1.57697 0 0 0 2.57309 -0.0553683 -0.00735224 0.720424 -0.040467 -1.33059 2.89713 -29.0262 16.7437 0.03 322.937 
39 1 1 1.09072 0.491026 1.5784 0 0 0 2.59082 -0.182239 -0.0152951 0 0 -2.77371 7.28569 -43.9849 -1.22838 0.03 337.699 
10 1 1 1.16803 0.485431 1.57678 0 0 0 2.47009 -0.0752768 0.0218274 -0.19121 0.0600849 0.472511 2.51961 -51.3399 -8.54068 0.03 360.396 
162 1 1 1.23293 0.497018 1.57668 0 0 0 2.62361 -0.13829 -0.0120497 0.909229 0.717769 1.21489 4.4608 -46.5498 17.9598 0.03 346.48 
140 1 1 1.52378 0.492365 1.57686 0 0 0 2.52255 0.0244765 1.41771e-06 -4.50034e-06 7.45558e-08 -1.22541e-06 -0.819227 -49.4502 0.805906 0.03 327.476 
326 1 1 0.134774 0.550806 1.57468 0 0 0 0.93104 1.08275 0.545047 21.3836 -0.410689 40.0013 -37.9009 -114.88 7.9325 0.03 302.461 
48 1 1 0.249461 0.542893 1.57909 0 0 0 1.07724 0.371311 0.0198982 0 0 -2.77371 -11.9816 -97.6681 13.2523 0.03 307.194 
147 1 1 0.33551 0.53769 1.5789 0 0 0 1.93937 0.0904918 -0.0789826 2.31887 2.22777 -4.34502 -27.7137 -10.6468 6.08762 0.03 303.603 
104 1 1 0.768233 0.524599 1.57686 0 0 0 2.45272 0.092749 -0.000311456 1.22137 -0.678696 0.0208363 3.25711 -40.3395 -24.9858 0.03 324.032 
42 1 1 0.844232 0.536939 1.57686 0 0 0 2.24234 -0.00376146 0.00205761 -0.00788693 -1.47513e-05 -0.0234444 0.12591 -58.8361 7.88436 0.03 339.229 
63 1 1 0.966935 0.547513 1.57668 0 0 0 2.51809 -0.0403196 -0.0134869 2.97921 0.0505642 0.92736 1.84929 -48.2703 15.4545 0.03 355.517 
103 1 1 1.14203 0.53973 1.57695 0 0 0 2.56703 -0.0382769 0.0120436 0.832441 0.0442112 -2.03 3.95221 -23.4579 -3.81149 0.03 359.03 
66 1 1 1.28378 0.531065 1.57686 0 0 0 2.41857 0.102756 0.000276215 -0.000950684 6.71627e-05 -0.00649157 -3.43926 -52.9308 -8.3985 0.03 339.655 
168 1 1 1.34606 0.552265 1.57686 0 0 0 2.40346 0.245525 1.17998e-05 -5.27966e-05 8.11915e-06 -0.00338388 -8.21767 -53.436 7.62347 0.03 333.143 
100 1 1 1.4044 0.525882 1.57683 0 0 0 2.44339 0.101878 0.000847794 0.174912 -0.345837 -0.0448357 -3.38303 -52.129 0.458175 0.03 355.152 
72 1 1 0.197483 0.584438 1.5993 0 0 0 1.33271 0.19138 0.121156 0 0 -2.77371 -29.4517 -64.2745 -45.1706 0.03 307.658 
34 1 1 0.386397 0.567757 1.57607 0 0 0 2.00391 0.843785 0.288663 20.3111 -16.7304 35.278 -30.0815 -84.0671 -1.02299 0.03 318.335 
117 1 1 0.46488 0.557966 1.57989 0 0 0 1.69178 0.263014 -0.822086 -4.27894 14.7204 -16.0547 -3.95482 -39.631 -20.4837 0.03 312.111 
16 1 1 0.551315 0.563998 1.57701 0 0 0 2.03674 -0.162596 0.162334 -0.671734 0.970447 -8.25938 5.65454 -65.9212 1.97244 0.03 341.418 
118 1 1 0.634531 0.557192 1.58102 0 0 0 2.16077 0.101805 -0.0227123 0 0 -2.77371 -3.18781 -61.686 -14.3136 0.03 332.037 
152 1 1 0.713771 0.566987 1.57688 0 0 0 1.88503 -0.0339119 0.0034859 0.243013 -0.0158035 -0.395079 1.13738 -70.6177 -16.6406 0.03 341.429 
121 1 1 0.908015 0.559548 1.57687 0 0 0 2.41648 -0.10697 0.0128777 -0.27713 0.0458341 -0.717453 3.52804 -53.206 -27.1987 0.03 356.101 
158 1 1 1.02386 0.567885 1.57688 0 0 0 2.55158 0.0819596 0.0287127 3.66254 -4.62709 1.70197 0.79274 -21.1316 -21.9446 0.03 342.512 
109 1 1 1.08286 0.553052 1.57684 0 0 0 2.5378 -0.154801 0.0255285 0.987948 -0.225847 -0.746845 15.7668 -2.66577 9.20173 0.03 348.175 
172 1 1 1.20107 0.550187 1.57698 0 0 0 2.63478 -0.2487 -0.019069 -0.243251 -0.0132116 -0.883849 8.31301 -45.511 -14.4485 0.03 350.035 
113 1 1 1.41623 0.582625 1.59178 0 0 0 2.331 0.100686 0.101641 -0.157308 -0.385003 -0.424295 -4.79132 -64.0976 -14.8462 0.03 355.048 
114 1 1 0.329545 0.139288 1.63026 0 0 0 1.22639 -0.0493339 -0.120579 0 0 -2.77371 12.2983 -113.441 18.1494 0.03 310.352 
139 1 1 0.408138 0.139378 1.62193 0 0 0 0.891851 -0.162556 -0.069488 7.09287 8.13243 7.69958 1.97236 -117.927 31.0725 0.03 326.001 
173 1 1 0.848036 0.149248 1.61502 0 0 0 2.42908 0.134605 -0.0535558 0 0 -2.77371 13.1457 -7.24508 39.6681 0.03 309.331 
87 1 1 0.992534 0.145781 1.61716 0 0 0 1.97511 0.159547 -0.159344 -0.000572874 0.997324 -0.981752 -7.54149 -44.8683 50.899 0.03 330.917 
97 1 1 0.141168 0.163589 1.60145 0 0 0 -0.169507 -0.148068 -0.616989 12.7431 4.46477 1.28096 -12.7661 -16.4041 29.2129 0.03 303.441 
22 1 1 0.198299 0.173698 1.61496 0 0 0 0.283594 0.0312402 -0.0426754 -12.7431 -4.46477 -6.82839 14.0562 1.35436 -26.7932 0.03 300.176 
80 1 1 1.11371 0.163512 1.5994 0 0 0 3.0006 0.126425 -0.10966 1.43985 0.580444 -0.532742 9.6534 10.2724 9.23979 0.03 309.19 
74 1 1 0.352218 0.220717 1.62308 0 0 0 1.09214 -0.609914 -0.0691874 -14.4947 17.8088 10.9072 -8.30132 0.985723 -5.4638 0.03 300.499 
51 1 1 0.407023 0.197607 1.6173 0 0 0 0.439986 -0.283219 -0.014361 11.5846 -2.96287 7.05602 -1.12897 20.0954 -5.43911 0.03 307.039 
88 1 1 0.946542 0.218699 1.59869 0 0 0 1.77929 0.051844 -0.82011 0 0 -2.77371 -1.99841 1.37045 -11.5303 0.03 301.05 
19 1 1 0.507703 0.245638 1.634 0 0 0 1.17748 -0.437354 0.0283853 -0.132969 -1.92064 -2.58338 11.7429 17.4012 7.94234 0.03 302.531 
146 1 1 0.748983 0.244109 1.60826 0 0 0 1.45618 -0.0912192 -0.255745 14.2224 10.1965 20.3969 1.43557 20.0903 -18.8545 0.03 301.225 
339 1 1 0.105029 0.291065 1.6127 0 0 0 0.0829815 -0.696671 0.334693 0 0 -2.77371 42.0905 24.4196 -10.4391 0.03 300.175 
73 1 1 0.188635 0.271276 1.62921 0 0 0 0.59133 -0.214811 0.65781 7.44559 2.35869 16.5517 -27.7123 63.8097 11.5809 0.03 300.366 
141 1 1 0.63856 0.265594 1.61241 0 0 0 1.85 -0.65886 -0.28378 0 0 -2.77371 -21.0617 67.3188 -23.0656 0.03 301.314 
7 1 1 0.812554 0.268246 1.60568 0 0 0 2.02427 -0.150703 -0.136546 25.5713 -11.3318 41.3816 17.2164 23.7694 2.62542 0.03 300.807 
155 1 1 0.921704 0.27212 1.62936 0 0 0 1.75635 -0.00740882 -0.377077 4.85302 -3.20162 21.5904 5.91057 36.1949 19.0699 0.03 300.962 
31 1 1 0.217107 0.342275 1.61999 0 0 0 0.123023 0.457038 -0.476432 9.37461 -1.37422 73.5075 -26.4913 41.7648 7.35787 0.03 300.316 
71 1 1 0.367563 0.325522 1.63669 0 0 0 0.893529 -0.0390732 1.16523 0 0 -2.77371 14.5225 64.9607 -14.7035 0.03 300.859 
127 1 1 0.505996 0.328822 1.62527 0 0 0 0.811505 0.093002 -1.02645 21.1643 18.0526 -22.3005 8.41727 -15.3712 -9.93746 0.03 300.853 
53 1 1 0.28193 0.351938 1.60792 0 0 0 0.0429726 0.909753 -0.0217036 0.540416 -2.98907 -14.6199 -48.5911 41.6677 -2.10344 0.03 300.474 
68 1 1 0.438006 0.355372 1.62418 0 0 0 1.24456 -0.350864 0.495611 14.0506 0.468557 83.176 -3.98963 55.1079 22.491 0.03 300.197 
159 1 1 1.03781 0.352332 1.61577 0 0 0 2.33853 -0.188625 -0.057478 2.692 -0.585299 -2.46263 20.9829 68.2516 12.1268 0.03 301.235 
289 1 1 0.116785 0.383198 1.62159 0 0 0 -0.0574004 0.0964089 0.280985 -31.8602 -0.868708 3.61108 -22.0266 48.1859 -3.46711 0.03 300.097 
128 1 1 0.403016 0.405905 1.62531 0 0 0 0.559593 -0.257795 -0.479488 0 0 -2.77371 -8.4549 26.44 15.0569 0.03 300.809 
102 1 1 0.489788 0.402903 1.6246 0 0 0 0.877356 0.498075 -0.251648 0 0 -2.77371 -37.6684 -5.65478 -3.70991 0.03 300.34 
153 1 1 0.611492 0.379854 1.61681 0 0 0 1.77482 0.21746 -0.0441756 -1.40797 10.6818 13.0414 8.94143 -23.9323 5.47134 0.03 300.331 
84 1 1 0.165796 0.412712 1.6135 0 0 0 0.16188 -0.02153 -1.20298 29.9489 22.5388 -9.09193 -1.06348 0.675449 3.79157 0.03 300.12 
28 1 1 0.292408 0.43316 1.61817 0 0 0 0.0950853 0.0154328 0.29837 0 0 -2.77371 18.4014 24.7291 15.4805 0.03 300.431 
92 1 1 1.12045 0.443509 1.63362 0 0 0 2.30344 0.245966 -0.0950669 0 0 -2.77371 -15.712 57.1538 -9.76472 0.03 300.957 
148 1 1 0.117573 0.451876 1.60755 0 0 0 -0.56462 0.147324 -1.36514 0 0 -2.77371 9.96754 15.1818 -3.44109 0.03 300.148 
134 1 1 0.584469 0.456016 1.60082 0 0 0 1.97204 -0.578668 -0.00197326 -0.530191 1.32265 -4.48695 27.3943 28.096 8.10162 0.03 301.877 
130 1 1 0.998927 0.472109 1.63232 0 0 0 2.00286 -0.119295 0.761966 0.94013 1.83117 1.43356 -2.88218 -24.0392 -0.853683 0.03 300.472 
151 1 1 1.06309 0.465765 1.63073 0 0 0 2.18271 0.101304 -0.0607847 0.767707 0.547251 -0.17573 -17.9015 46.314 5.91678 0.03 304.054 
52 1 1 0.386987 0.520603 1.61157 0 0 0 0.261428 0.435194 0.0738531 -0.00993544 19.3165 -1.73747 46.1825 -5.79212 -7.81265 0.03 300.219 
65 1 1 0.500257 0.553925 1.62685 0 0 0 1.26303 0.538608 -0.143354 2.282 -3.16705 4.534 5.55576 -5.10041 5.08329 0.03 300.341 
150 1 1 0.561563 0.545846 1.63352 0 0 0 1.15194 0.105613 0.69154 0 0 -2.77371 -11.144 23.7323 26.5323 0.03 300.741 
98 1 1 0.717104 0.52728 1.62281 0 0 0 1.82231 0.733474 -0.422615 0 0 -2.77371 -17.2826 37.1961 5.2379 0.03 300.174 
9 1 1 1.00232 0.53714 1.62361 0 0 0 2.56927 -0.00246031 -0.0448666 0.467269 -0.469894 1.23204 5.31662 47.5596 -3.76285 0.03 304.969 
157 1 1 1.21355 0.520763 1.62784 0 0 0 2.4625 -0.310213 0.0262991 -0.921584 0.0569651 0.333467 -8.21131 55.6964 11.249 0.03 303.217 
105 1 1 0.79524 0.583984 1.60252 0 0 0 1.88359 -0.0814491 -0.716477 0.0311654 0.663513 -0.983252 -1.61692 46.8467 7.61994 0.03 302.291 
75 1 1 0.629222 0.62095 1.63183 0 0 0 1.11287 0.502754 -0.118978 -13.2146 -17.7307 -19.452 -31.6589 13.0716 0.165343 0.03 300.723 
79 1 1 0.692224 0.615624 1.62476 0 0 0 1.51674 -0.47436 -0.549316 -4.68417 -1.00942 -1.92381 4.15017 -1.85086 -35.7476 0.03 312.714 
2 1 1 0.7516 0.61696 1.62623 0 0 0 1.52683 -0.360726 -0.572523 9.77626 -8.59155 2.04179 37.1803 -72.4312 -10.3018 0.03 312.739 
18 1 1 0.866384 0.59188 1.61018 0 0 0 1.82876 -0.217987 -0.501165 0 0 -2.77371 2.09725 -35.6663 -34.4721 0.03 304.11 
83 1 1 1.18202 0.598571 1.6077 0 0 0 3.07248 -0.0229722 -0.0418942 1.55205 -2.26881 -0.643873 3.72954 28.1902 -22.375 0.03 309.368 
115 1 1 0.513711 0.106842 1.65928 0 0 0 1.93968 -0.182811 0.407082 0 0 -2.77371 13.0047 -29.3616 61.6705 0.03 308.929 
171 1 1 0.527726 0.163435 1.62945 0 0 0 0.907898 0.276035 -0.687973 0 0 -2.77371 -41.6263 32.7903 -14.3875 0.03 300.257 
281 1 1 0.455568 0.218704 1.64549 0 0 0 0.957556 -0.620802 -0.553819 1.63773 1.56825 -2.09872 -14.3669 -29.1146 -8.2712 0.03 300.122 
43 1 1 0.611103 0.213013 1.64875 0 0 0 1.60571 -0.43841 0.615258 0 0 -2.77371 10.9031 45.7781 6.75873 0.03 300.392 
46 1 1 1.0088 0.243297 1.64578 0 0 0 1.86202 -0.168374 0.0146683 0 0 -2.77371 -2.90245 29.1062 -24.3177 0.03 301.114 
164 1 1 0.272037 0.279422 1.6286 0 0 0 -0.0895659 -0.401567 -1.16583 -7.88703 -32.5543 83.3442 12.2429 4.48073 5.37572 0.03 300.037 
107 1 1 0.34767 0.271063 1.65584 0 0 0 0.559848 -0.672807 0.0942857 0 0 -2.77371 33.3986 -37.0747 -7.23738 0.03 300.031 
225 1 1 0.584868 0.298148 1.63296 0 0 0 1.46512 -0.277262 -0.574013 -19.4769 1.3038 31.3384 18.3254 25.6485 -17.2586 0.03 300.029 
44 1 1 0.689004 0.293245 1.64756 0 0 0 1.40738 0.0768462 -0.470869 0 0 -2.77371 -7.58956 14.9275 29.3808 0.03 300.826 
300 1 1 0.162608 0.320932 1.65172 0 0 0 -0.412359 0.226519 -0.773818 0 0 -2.77371 -14.6469 -79.6802 11.9797 0.03 300.004 
181 1 1 0.419274 0.313883 1.66878 0 0 0 1.4124 -0.570064 0.235973 -88.9458 13.2753 -48.0525 8.94369 -10.1315 9.27592 0.03 300.01 
176 1 1 0.349253 0.378716 1.66275 0 0 0 0.573246 0.685584 0.419322 0 0 -2.77371 -47.6751 -65.0311 23.7104 0.03 300.013 
190 1 1 0.236089 0.395515 1.63509 0 0 0 0.280798 0.0913893 -2.15099 11.3211 55.9835 17.3426 0.308871 33.9594 0.693225 0.03 300 
24 1 1 0.776499 0.396332 1.63167 0 0 0 1.58961 0.238764 -0.504661 0 0 -2.77371 45.7403 -22.5597 2.96941 0.03 300.284 
6 1 1 0.349991 0.434623 1.63882 0 0 0 0.358125 -0.282864 0.228145 0 0 -2.77371 30.9383 -12.4801 -12.1936 0.03 300.314 
227 1 1 0.417332 0.475621 1.63515 0 0 0 0.462492 0.240613 -1.21759 10.2061 -24.4839 45.4407 -5.77968 18.8102 13.5816 0.03 300.006 
106 1 1 0.48885 0.464549 1.62788 0 0 0 0.544172 0.672535 -0.333171 15.992 -24.7208 18.828 0.529197 10.1114 -4.42845 0.03 301.254 
20 1 1 0.813491 0.482251 1.63732 0 0 0 1.71329 0.294661 0.133476 0 0 -2.77371 -3.91298 34.2939 2.25399 0.03 301.152 
304 1 1 0.108047 0.51286 1.63039 0 0 0 -0.317642 0.383917 -1.63516 0 0 -2.77371 -34.4625 -10.2553 13.9383 0.03 300.001 
55 1 1 0.230475 0.500959 1.62946 0 0 0 0.218567 0.336943 -1.07552 -35.2347 21.5229 26.3844 -11.37 14.0577 -2.3357 0.03 300.063 
149 1 1 0.876826 0.495642 1.64791 0 0 0 2.00839 0.0967977 -0.106406 0 0 -2.77371 10.7463 -19.5596 -8.52746 0.03 300.579 
129 1 1 0.243242 0.617123 1.65212 0 0 0 1.26868 0.466353 0.682015 0 0 -2.77371 -16.2027 -52.7064 -40.2018 0.03 303.437 
154 1 1 0.331953 0.610286 1.63641 0 0 0 0.16743 1.21254 -0.143865 0 0 -2.77371 4.18984 51.5429 -12.4877 0.03 300.66 
138 1 1 0.457155 0.60279 1.65314 0 0 0 1.603 0.193877 0.207766 3.61987 -4.05352 0.813518 -15.9138 54.6622 45.3393 0.03 300.17 
89 1 1 0.406532 0.630486 1.63909 0 0 0 1.46387 -0.0484155 -0.00665742 0.554141 -3.27179 -1.14754 6.80626 -59.7745 -38.3703 0.03 306.373 
17 1 1 0.528666 0.63962 1.65218 0 0 0 1.47297 0.0913206 -0.000778839 0 0 -2.77371 -33.5359 -14.3449 -41.5861 0.03 303.557 
156 1 1 0.82282 0.635022 1.6442 0 0 0 1.40639 -0.491951 -0.491928 -0.000102456 -0.98783 -0.989725 23.2654 -64.8823 -57.779 0.03 329.907 
99 1 1 0.656973 0.658078 1.66707 0 0 0 1.95455 0.0927909 0.0419926 12.0074 11.5878 16.193 13.4318 -40.0049 -67.5523 0.03 314.291 
137 1 1 0.303807 0.066158 1.69676 0 0 0 0.921926 0.179571 -0.166087 0.641506 0.835815 -1.00053 -0.590932 -67.2391 68.09 0.03 308.292 
165 1 1 0.874175 0.06581 1.69686 0 0 0 2.0594 0.123677 -0.0756395 -0.0837293 2.84726 -0.31819 -5.79067 -26.0481 66.2577 0.03 307.978 
76 1 1 0.420961 0.107484 1.70116 0 0 0 0.844591 -0.491443 -0.0821273 0 0 -2.77371 13.0902 83.2212 -49.4108 0.03 301.053 
49 1 1 0.580586 0.109058 1.67697 0 0 0 2.19511 0.23437 0.174106 0 0 -2.77371 9.58934 -29.9601 32.6239 0.03 306.835 
62 1 1 0.285413 0.122257 1.68233 0 0 0 -0.246865 -0.801412 -0.691756 0 0 -2.77371 -38.0429 -80.3712 -21.4572 0.03 300.002 
333 1 1 0.398035 0.197613 1.67548 0 0 0 0.472058 -0.651801 0.185964 -3.79861 6.88808 8.47465 8.79704 -19.7996 14.2886 0.03 300.106 
307 1 1 0.296159 0.248348 1.68165 0 0 0 -0.108602 -0.683959 -0.976259 0 0 -2.77371 5.02069 -8.85259 1.8963 0.03 300 
221 1 1 0.428478 0.25412 1.68757 0 0 0 0.168518 0.534326 -1.37483 0 0 -2.77371 -30.4394 -0.135865 14.6061 0.03 300.001 
340 1 1 0.2322 0.334359 1.67417 0 0 0 0.369057 0.18948 -0.241275 22.3815 3.82776 71.0497 34.1827 -36.1698 -14.7154 0.03 300.002 
180 1 1 0.29145 0.324286 1.66368 0 0 0 0.0788216 -0.39517 -1.19095 0 0 -2.77371 -1.9445 -25.8865 -12.5591 0.03 300.001 
187 1 1 0.477105 0.306405 1.66897 0 0 0 0.205503 -0.216489 -1.38929 59.2389 -52.4871 103.895 30.4535 -19.8153 -3.93644 0.03 300.003 
268 1 1 0.449799 0.380964 1.67539 0 0 0 1.2321 0.882013 0.299747 10.052 1.5252 11.8963 -27.6751 -35.97 19.9309 0.03 300.001 
296 1 1 0.522799 0.43686 1.69631 0 0 0 0.84632 -0.241246 -0.713416 1.21965 8.85648 -9.06487 -6.77585 3.96619 13.1614 0.03 300.008 
249 1 1 0.170762 0.45549 1.655 0 0 0 -0.23026 0.479647 -1.60953 0.140242 0.230822 -2.63991 -37.0954 16.2456 -12.4435 0.03 300.001 
276 1 1 0.289349 0.515799 1.67019 0 0 0 0 0 -2.8974 0 0 -2.77371 0 0 0 0.03 300 
243 1 1 0.479576 0.487407 1.68164 0 0 0 0.384499 0.165748 -0.285088 -2.09811 -1.93635 16.8894 20.8495 -19.8836 -0.540746 0.03 300.013 
301 1 1 0.187952 0.524277 1.67905 0 0 0 -0.542462 0.584275 -1.31864 0 0 -2.77371 6.04357 -16.4086 7.28738 0.03 300 
57 1 1 0.374143 0.668178 1.67747 0 0 0 1.07315 0.0994922 0.0899068 0.538869 -0.809064 -2.04926 7.43673 9.88503 3.66065 0.03 305.198 
27 1 1 0.559075 0.680359 1.69115 0 0 0 1.93952 0.273469 -0.0445345 0 0 -2.77371 -18.4946 -51.0709 -45.8636 0.03 303.519 
288 1 1 0.209802 0.229296 1.68451 0 0 0 0 0 -2.84855 0 0 -2.77371 0 0 0 0.03 300 
213 1 1 0.125891 0.243147 1.70309 0 0 0 0 0 -2.7838 0 0 -2.77371 0 0 0 0.03 300 
322 1 1 0.49924 0.247443 1.70435 0 0 0 0 0 -2.77939 0 0 -2.77371 0 0 0 0.03 300 
291 1 1 0.499687 0.383271 1.70932 0 0 0 0.0175045 -0.0150577 -2.71992 -1.21965 -8.85648 3.51745 2.84154 -1.66481 -1.78423 0.03 300 
93 1 1 0.220293 0.662917 1.7304 0 0 0 -0.0613205 1.00533 0.121888 0 0 -2.77371 -31.8754 6.51144 -11.2183 0.03 300.067 
257 1 1 0.107883 0.30308 1.72875 0 0 0 0 0 -2.69188 0 0 -2.77371 0 0 0 0.03 300 
230 1 1 0.257855 0.281878 1.72708 0 0 0 0 0 -2.69796 0 0 -2.77371 0 0 0 0.03 300 
178 1 1 0.318639 0.427051 1.73438 0 0 0 0 0 -2.67128 0 0 -2.77371 0 0 0 0.03 300 
246 1 1 0.107302 0.455042 1.71678 0 0 0 0 0 -2.73514 0 0 -2.77371 0 0 0 0.03 300 
226 1 1 0.253931 0.465065 1.7206 0 0 0 0 0 -2.72141 0 0 -2.77371 0 0 0 0.03 300 
224 1 1 0.391331 0.524514 1.72366 0 0 0 0 0 -2.71032 0 0 -2.77371 0 0 0 0.03 300 
196 1 1 0.358915 0.233995 1.76217 0 0 0 0 0 -2.5672 0 0 -2.77371 0 0 0 0.03 300 
245 1 1 0.160535 0.375989 1.76296 0 0 0 0 0 -2.56416 0 0 -2.77371 0 0 0 0.03 300 
254 1 1 0.380252 0.376413 1.77659 0 0 0 0 0 -2.51148 0 0 -2.77371 0 0 0 0.03 300 
352 1 1 0.377854 0.441153 1.75626 0 0 0 0 0 -2.58966 0 0 -2.77371 0 0 0 0.03 300 
265 1 1 0.446064 0.454668 1.75427 0 0 0 0 0 -2.59722 0 0 -2.77371 0 0 0 0.03 300 
209 1 1 0.352404 0.322469 1.7977 0 0 0 0 0 -2.4276 0 0 -2.77371 0 0 0 0.03 300 
313 1 1 0.439938 0.327558 1.8138 0 0 0 0 0 -2.36168 0 0 -2.77371 0 0 0 0.03 300 
270 1 1 0.207615 0.426676 1.79134 0 0 0 0 0 -2.4532 0 0 -2.77371 0 0 0 0.03 300 
279 1 1 0.157212 0.495968 1.81205 0 0 0 0 0 -2.36894 0 0 -2.77371 0 0 0 0.03 300 
317 1 1 0.252263 0.228507 1.83828 0 0 0 0 0 -2.25769 0 0 -2.77371 0 0 0 0.03 300 
252 1 1 0.442785 0.262265 1.84197 0 0 0 0 0 -2.2416 0 0 -2.77371 0 0 0 0.03 300 
248 1 1 0.155073 0.291265 1.82377 0 0 0 0 0 -2.31989 0 0 -2.77371 0 0 0 0.03 300 
204 1 1 0.215487 0.347963 1.83322 0 0 0 0 0 -2.27957 0 0 -2.77371 0 0 0 0.03 300 
346 1 1 0.2812 0.398881 1.82885 0 0 0 0 0 -2.2983 0 0 -2.77371 0 0 0 0.03 300 
335 1 1 0.429091 0.407041 1.83475 0 0 0 0 0 -2.27299 0 0 -2.77371 0 0 0 0.03 300 
239 1 1 0.490736 0.457949 1.85832 0 0 0 0 0 -2.16891 0 0 -2.77371 0 0 0 0.03 300 
201 1 1 0.360389 0.493184 1.85712 0 0 0 0 0 -2.17431 0 0 -2.77371 0 0 0 0.03 300 
217 1 1 0.461801 0.523439 1.83397 0 0 0 0 0 -2.27633 0 0 -2.77371 0 0 0 0.03 300 
305 1 1 0.346674 0.257421 1.88822 0 0 0 0 0 -2.02912 0 0 -2.77371 0 0 0 0.03 300 
193 1 1 0.281872 0.329623 1.86435 0 0 0 0 0 -2.14144 0 0 -2.77371 0 0 0 0.03 300 
272 1 1 0.116473 0.427779 1.86952 0 0 0 0 0 -2.1176 0 0 -2.77371 0 0 0 0.03 300 
237 1 1 0.207046 0.471117 1.88909 0 0 0 0 0 -2.0249 0 0 -2.77371 0 0 0 0.03 300 
262 1 1 0.417911 0.469013 1.888 0 0 0 0 0 -2.0302 0 0 -2.77371 0 0 0 0.03 300 
263 1 1 0.269308 0.500141 1.89149 0 0 0 0 0 -2.01323 0 0 -2.77371 0 0 0 0.03 300 
351 1 1 0.181906 0.258163 1.91648 0 0 0 0 0 -1.88756 0 0 -2.77371 0 0 0 0.03 300 
319 1 1 0.490886 0.237209 1.92921 0 0 0 0 0 -1.82017 0 0 -2.77371 0 0 0 0.03 300 
233 1 1 0.496558 0.3336 1.89953 0 0 0 0 0 -1.97369 0 0 -2.77371 0 0 0 0.03 300 
298 1 1 0.133415 0.358363 1.92316 0 0 0 0 0 -1.85254 0 0 -2.77371 0 0 0 0.03 300 
334 1 1 0.38649 0.410383 1.93072 0 0 0 0 0 -1.81202 0 0 -2.77371 0 0 0 0.03 300 
303 1 1 0.114998 0.510423 1.90615 0 0 0 0 0 -1.94053 0 0 -2.77371 0 0 0 0.03 300 
283 1 1 0.300071 0.232043 1.96674 0 0 0 0 0 -1.60523 0 0 -2.77371 0 0 0 0.03 300 
332 1 1 0.233113 0.233231 1.95338 0 0 0 0 0 -1.68489 0 0 -2.77371 0 0 0 0.03 300 
206 1 1 0.126939 0.284236 1.94787 0 0 0 0 0 -1.71667 0 0 -2.77371 0 0 0 0.03 300 
194 1 1 0.257372 0.298287 1.9537 0 0 0 0 0 -1.68302 0 0 -2.77371 0 0 0 0.03 300 
231 1 1 0.39189 0.276895 1.9541 0 0 0 0 0 -1.68076 0 0 -2.77371 0 0 0 0.03 300 
347 1 1 0.332014 0.322805 1.95184 0 0 0 0 0 -1.69381 0 0 -2.77371 0 0 0 0.03 300 
216 1 1 0.415188 0.353574 1.9674 0 0 0 0 0 -1.60121 0 0 -2.77371 0 0 0 0.03 300 
341 1 1 0.462863 0.403415 1.93841 0 0 0 0 0 -1.76994 0 0 -2.77371 0 0 0 0.03 300 
208 1 1 0.292126 0.417938 1.9553 0 0 0 0 0 -1.6737 0 0 -2.77371 0 0 0 0.03 300 
338 1 1 0.455834 0.299724 1.97103 0 0 0 0 0 -1.57884 0 0 -2.77371 0 0 0 0.03 300 
197 1 1 0.187467 0.323213 1.98448 0 0 0 0 0 -1.4929 0 0 -2.77371 0 0 0 0.03 300 
331 1 1 0.280682 0.358343 1.97243 0 0 0 0 0 -1.57011 0 0 -2.77371 0 0 0 0.03 300 