ITEM: TIMESTEP
105000
ITEM: NUMBER OF ATOMS
527
ITEM: BOX BOUNDS ff ff ff
0 3.3
-0.3 0.8
-0.5 3
ITEM: ATOMS id type type x y z ix iy iz vx vy vz fx fy fz omegax omegay omegaz radius f_Temp[0] 
213 1 1 0.184289 0.180495 1.58762 0 0 0 1.02876 0.364369 -0.313066 0 0 -2.77371 -9.15045 -90.7354 50.3283 0.03 317.491 
248 1 1 0.31605 0.184537 1.57737 0 0 0 1.84657 0.420853 0.10426 -2.4726 1.51455 -2.07634 -10.0203 -76.1663 26.5803 0.03 316.164 
97 1 1 0.40092 0.186248 1.57669 0 0 0 1.74898 0.29336 -0.0194836 -2.89984 -7.16823 -0.116705 -8.33217 -71.28 38.581 0.03 340.634 
22 1 1 0.564867 0.192587 1.57693 0 0 0 2.12537 -0.0108348 -0.0362981 1.64726 -0.0988612 0.526734 0.696864 -57.0675 -23.5742 0.03 325.492 
288 1 1 0.617183 0.165373 1.59728 0 0 0 2.32689 -0.0529344 0.159433 0.534787 0.777747 -0.918272 8.20678 -36.6497 39.8572 0.03 321.497 
90 1 1 0.704343 0.18475 1.57893 0 0 0 2.43807 0.0715373 -0.227761 0.628047 -0.328565 -2.39174 1.40554 -36.6994 37.07 0.03 344.668 
221 1 1 0.848072 0.174665 1.58783 0 0 0 2.64676 0.0514072 0.143526 2.34978 -1.32333 -1.20768 22.1671 -17.402 14.5991 0.03 309.798 
51 1 1 0.905091 0.195484 1.57636 0 0 0 2.3627 0.107103 -0.316578 1.18548 0.108761 21.3876 1.66855 -21.704 7.8981 0.03 333.267 
171 1 1 0.962438 0.184255 1.58162 0 0 0 2.62659 0.450482 -0.24672 15.5757 -2.68368 6.9806 -2.70176 22.7434 3.4063 0.03 303.694 
40 1 1 1.10141 0.185291 1.58045 0 0 0 2.80661 -0.0595689 -0.237638 0 0 -2.77371 12.1757 -37.5894 5.53724 0.03 339.479 
58 1 1 1.16544 0.163845 1.59909 0 0 0 2.7858 0.0348355 -0.0421489 0.0280922 1.05057 -0.645062 -1.87356 -23.2262 34.2001 0.03 362.605 
141 1 1 1.22735 0.190311 1.57619 0 0 0 3.28878 0.107123 0.0795414 8.08221 -2.21396 7.40789 -0.432533 -20.2092 -2.45911 0.03 316.654 
161 1 1 1.28799 0.187229 1.57689 0 0 0 2.94818 0.0483203 -0.00111043 0.0177818 0.00119093 -0.416101 -1.62233 -35.1542 18.4486 0.03 346.321 
165 1 1 1.4012 0.181826 1.58131 0 0 0 2.50761 0.229115 -0.283623 -0.0137657 -0.490775 -0.133796 -10.1339 -35.5856 34.8398 0.03 337.074 
88 1 1 1.58084 0.18811 1.57684 0 0 0 2.84712 -0.027719 0.0143402 0.492298 0.336327 -0.450433 1.01293 -38.604 -8.69178 0.03 329.985 
164 1 1 0.6532 0.215828 1.57685 0 0 0 2.33052 -0.0952061 -0.00154538 0.628308 -0.468168 -0.180312 6.40686 -50.7964 -18.6851 0.03 324.251 
3 1 1 0.793968 0.219825 1.57669 0 0 0 2.61939 -0.0725751 0.203062 17.8395 33.6114 -10.8629 2.42296 -46.4175 -1.68161 0.03 362.987 
95 1 1 1.05358 0.223814 1.57697 0 0 0 2.8947 0.0213436 -0.0585604 -0.706755 1.92227 0.646435 -1.54864 -37.2127 -8.94928 0.03 320.823 
91 1 1 1.16213 0.219427 1.57688 0 0 0 2.91301 0.060668 0.00201462 -0.0228431 0.110714 -0.511121 -2.03061 -36.3759 -14.6166 0.03 341.359 
15 1 1 1.34219 0.213231 1.57686 0 0 0 2.90981 0.176324 -0.00114561 -0.0101379 -0.00359085 0.0719306 -5.88885 -36.5225 19.6209 0.03 357.442 
173 1 1 1.52267 0.202195 1.57682 0 0 0 2.85919 0.0485214 -7.26332e-05 -0.183996 -0.0170695 0.326484 -1.63756 -38.2733 25.0292 0.03 337.621 
258 1 1 0.0804253 0.25714 1.57925 0 0 0 -1.17886 -0.866664 -2.10094 0 0 -2.77371 9.74991 -42.4838 -22.115 0.03 300.001 
185 1 1 0.191425 0.249335 1.57527 0 0 0 1.04772 0.359896 -0.183052 40.894 -35.1747 -7.04332 -12.1419 -47.4711 -0.944122 0.03 301.759 
230 1 1 0.356785 0.235085 1.57761 0 0 0 1.70904 -0.385902 -0.017767 0 0 -2.77371 9.28108 -4.5686 -20.0529 0.03 305.998 
180 1 1 0.422781 0.242112 1.58045 0 0 0 1.77737 0.546315 0.287628 -2.31821 6.02681 -24.2431 -6.54437 -65.5288 -39.0702 0.03 308.179 
132 1 1 0.487949 0.246453 1.58301 0 0 0 1.59665 -0.454286 0.239522 0 0 -2.77371 15.4243 -82.1154 -8.34568 0.03 343.233 
110 1 1 0.598781 0.243876 1.576 0 0 0 2.40838 0.170527 0.0258004 -1.90814 -4.64376 16.441 -2.98056 -56.6821 12.1525 0.03 340.688 
107 1 1 0.698192 0.260902 1.57695 0 0 0 2.26269 -0.0327762 -0.00771896 0.00747549 0.0157702 -1.01544 1.09194 -58.0193 -1.88558 0.03 317 
5 1 1 0.884646 0.255705 1.57686 0 0 0 2.36702 0.0135185 -2.65118e-05 7.13551e-05 -4.74952e-07 -0.00571398 -0.452457 -54.6552 -17.1391 0.03 342.744 
12 1 1 0.958429 0.248695 1.57639 0 0 0 2.60228 0.125949 -0.0690413 4.85523 4.37222 13.9287 -21.1511 -28.3255 -8.28029 0.03 341.93 
19 1 1 1.11645 0.270615 1.57687 0 0 0 2.88085 0.308743 4.66261e-05 -0.000239302 8.19642e-05 -0.0892904 -10.3322 -37.4527 -12.8492 0.03 315.642 
146 1 1 1.29096 0.247059 1.58695 0 0 0 2.44206 -0.0695717 -0.565747 0 0 -2.77371 5.04245 66.3606 -6.89023 0.03 305.287 
78 1 1 1.3951 0.243607 1.57717 0 0 0 2.23924 0.391977 -0.0538858 0 0 -2.77371 -12.6745 -58.8648 -4.35564 0.03 350.171 
120 1 1 1.46946 0.257346 1.57685 0 0 0 2.53458 0.0651533 -0.0139784 -1.45019 -4.6182 -2.3249 -2.27358 -49.1722 -18.969 0.03 377.693 
125 1 1 1.53996 0.260084 1.57746 0 0 0 2.74653 -0.122719 0.0619267 0.330972 -0.981796 -2.2736 4.23005 -40.1792 -0.17866 0.03 349.551 
197 1 1 0.155663 0.296598 1.58116 0 0 0 -0.305115 0.130052 -1.65648 9.56338 -6.09172 -0.472379 19.9684 -4.35547 6.65456 0.03 300.33 
206 1 1 0.244657 0.29082 1.58138 0 0 0 1.36611 -0.0993971 -0.0212037 9.86883 22.1406 -24.7344 12.5873 -78.3145 16.4276 0.03 315.829 
351 1 1 0.302507 0.280462 1.59332 0 0 0 1.39417 0.228734 0.1338 0.0487989 -0.013614 -2.7347 31.3721 3.21445 -4.31738 0.03 304.947 
70 1 1 0.635055 0.290894 1.58022 0 0 0 2.41167 -0.046801 -0.0748207 5.17131 9.07553 3.14498 -6.70991 -27.8808 -9.20675 0.03 335.168 
127 1 1 1.00184 0.289398 1.57798 0 0 0 2.71618 0.120044 0.152321 1.22754 1.30547 -1.40532 -6.67021 -39.4608 2.80629 0.03 321.077 
13 1 1 1.23835 0.274881 1.57678 0 0 0 2.56413 0.172215 0.00141427 1.27075 -0.28625 1.00486 -5.86208 -48.1643 4.92902 0.03 386.135 
64 1 1 1.34756 0.285356 1.57686 0 0 0 2.54393 0.00279972 0.000414331 -0.00120654 -3.3115e-05 -0.0442761 -0.0936805 -48.7327 22.6316 0.03 376.441 
7 1 1 1.42131 0.301172 1.5779 0 0 0 3.25477 0.307428 0.0562165 0 0 -2.77371 -4.82501 12.5553 -13.723 0.03 307.247 
144 1 1 1.58963 0.295183 1.57686 0 0 0 2.72792 -0.0110535 -1.37732e-05 3.19584e-05 2.84037e-07 -0.00193562 0.369959 -42.5764 18.123 0.03 352.825 
513 1 1 0.257051 0.497454 2.51406 0 0 0 -0 -0 -1 0 0 0 0 0 0 0.03 300 
257 1 1 0.0364027 0.327776 1.57823 0 0 0 0.162631 0.108382 0.0778807 0 0 -2.77371 -16.4482 -103.927 2.33812 0.03 310.055 
339 1 1 0.367785 0.322774 1.57592 0 0 0 1.76128 0.0502307 -0.626921 32.5844 -18.2283 47.7972 -1.86455 -64.4474 1.05058 0.03 335.096 
209 1 1 0.577195 0.308348 1.5771 0 0 0 2.37959 0.0304603 0.00522845 0.0197408 0.0371838 -2.85791 -5.35171 -51.722 -5.44734 0.03 310.564 
313 1 1 0.73622 0.31126 1.57595 0 0 0 2.24135 0.100446 -0.178063 10.0164 -1.83528 37.584 -4.1901 -63.5571 -10.8167 0.03 307.007 
166 1 1 0.834882 0.330628 1.57687 0 0 0 2.28809 -0.271316 -0.000655924 0.0022786 0.000361155 -0.02966 9.08005 -57.2919 17.9709 0.03 342.321 
175 1 1 0.948284 0.318036 1.57698 0 0 0 2.77314 0.374362 -0.0167595 0.842775 0.0670604 -1.08283 -14.5386 -15.4237 10.4687 0.03 322.882 
35 1 1 1.11553 0.3371 1.57586 0 0 0 2.74937 -0.0900125 0.0115073 5.25353 -2.61028 23.2573 4.80734 -39.6925 1.18707 0.03 335.367 
11 1 1 1.167 0.307616 1.57671 0 0 0 2.8839 0.181655 0.0576042 6.08891 -4.70579 3.37012 -4.72537 -36.3439 -0.574738 0.03 361.474 
94 1 1 1.21915 0.341629 1.57659 0 0 0 2.88708 0.261791 -0.1513 3.23158 -8.47736 -6.31066 -11.5597 -34.0702 -6.42787 0.03 351.877 
123 1 1 1.28951 0.306615 1.57685 0 0 0 2.53018 0.0712913 0.000548626 -0.00627869 0.0168784 0.130424 -2.39636 -49.2087 -5.34216 0.03 335.739 
56 1 1 1.51165 0.312519 1.57651 0 0 0 2.6386 -0.0647241 0.0358638 1.26146 -2.45568 4.2691 0.514307 -46.6834 -9.42859 0.03 340.32 
316 1 1 0.0975025 0.363347 1.5785 0 0 0 0.759234 0.358729 0.0930896 -1.75845 -10.4452 -5.25455 -31.9398 -6.02442 3.1898 0.03 303.294 
298 1 1 0.205577 0.346572 1.57685 0 0 0 1.2719 0.249195 -0.0870066 -3.2168 -1.31652 4.17784 -6.2634 -96.2007 -3.66703 0.03 319.716 
31 1 1 0.413187 0.36054 1.5769 0 0 0 1.47089 0.0631396 -0.0517787 29.1142 8.39402 -64.7445 1.15884 -45.3811 -8.36156 0.03 319.94 
340 1 1 0.492997 0.345183 1.57728 0 0 0 2.42002 -0.00434653 0.329005 0 0 -2.77371 -0.472115 -58.3531 4.79815 0.03 310.144 
53 1 1 0.604973 0.362129 1.58279 0 0 0 2.18347 0.248568 0.0661156 0 0 -2.77371 -19.706 -64.6276 0.782016 0.03 321.381 
38 1 1 0.891437 0.365912 1.57686 0 0 0 2.35299 0.131914 -0.0302992 0.110305 -0.00969875 1.40437 -4.38387 -55.141 -3.55659 0.03 338.694 
126 1 1 1.27699 0.36581 1.57689 0 0 0 3.15008 0.282092 -0.0306493 1.6418 -0.374894 0.813229 -9.44987 -28.5105 -12.4759 0.03 333.892 
24 1 1 1.33455 0.359332 1.59437 0 0 0 3.14125 0.0712263 0.00626041 0 0 -2.77371 -6.43161 2.36577 1.64461 0.03 304.134 
143 1 1 1.49817 0.370418 1.58148 0 0 0 2.61328 -0.076901 -0.00669283 3.80629 -8.17682 0.401082 19.1077 -42.5726 2.61878 0.03 368.361 
124 1 1 1.58567 0.372441 1.57686 0 0 0 2.42636 0.248963 1.68843e-05 -6.59613e-05 1.02388e-05 -0.00246631 -8.33274 -52.6695 -7.93824 0.03 377.406 
300 1 1 0.332399 0.383374 1.57645 0 0 0 1.55695 0.237623 -0.0884161 31.0497 -24.2502 -4.40921 -5.21606 -80.1431 0.272969 0.03 321.129 
233 1 1 0.717646 0.37911 1.57983 0 0 0 2.17852 0.000687274 -0.678723 0 0 -2.77371 27.1889 2.35233 5.70428 0.03 300.294 
128 1 1 0.789737 0.398584 1.57683 0 0 0 2.57664 0.0837999 -0.0167422 0.0203671 -0.285592 1.30477 -2.33641 -47.7305 -6.99507 0.03 314.756 
291 1 1 1.07449 0.388689 1.57656 0 0 0 2.86068 -0.0984142 -0.0166849 1.59636 -10.857 8.15524 -17.6624 -25.882 -0.571742 0.03 312.567 
101 1 1 1.2185 0.410069 1.57681 0 0 0 2.82916 0.145879 0.00537466 -0.0755016 1.24158 0.289333 -5.08636 -39.2639 2.21432 0.03 364.283 
289 1 1 0.127191 0.414721 1.57443 0 0 0 1.1599 0.0441973 0.643517 -13.4826 12.7233 19.7671 -1.94943 -102.095 -3.14726 0.03 321.964 
270 1 1 0.354784 0.438772 1.57844 0 0 0 1.3725 0.283128 -0.389972 -1.02137 -10.0424 -57.9493 -15.5426 -22.7694 -1.66413 0.03 303.871 
148 1 1 0.436585 0.420315 1.5813 0 0 0 1.84161 -0.0605273 0.0443258 0 0 -2.77371 3.21929 -71.7333 -11.5379 0.03 332.741 
176 1 1 0.708605 0.441835 1.57679 0 0 0 2.35046 0.285275 -0.00105485 -0.237116 0.427057 1.27143 -10.2095 -55.6985 3.79907 0.03 322.974 
77 1 1 0.91973 0.420635 1.57686 0 0 0 2.11665 0.198404 0.00199102 -0.0083757 0.000988482 -0.101874 -6.64052 -63.0355 4.58591 0.03 346.18 
170 1 1 1.47107 0.422863 1.57681 0 0 0 2.89681 0.0217533 -0.00906774 -4.16827 9.74796 -0.732248 15.3901 -24.4666 -5.79003 0.03 350.186 
50 1 1 1.54989 0.4323 1.57676 0 0 0 2.98491 -0.23641 -0.0249103 -0.0321785 -0.0764931 2.24822 7.90264 -34.0294 -1.14172 0.03 358.649 
122 1 1 1.64507 0.409702 1.57675 0 0 0 2.89386 -0.00243981 0.00514196 -0.0306221 0.0522775 1.94247 0.0349903 -37.1625 -8.75166 0.03 360.702 
255 1 1 0.143418 0.471005 1.57408 0 0 0 1.21029 0.233013 -0.410047 56.0287 40.895 74.0527 -0.734627 -96.7127 -4.58184 0.03 311.006 
308 1 1 0.240088 0.472001 1.57529 0 0 0 1.90204 0.57075 0.241658 7.68742 -8.96965 18.1717 -14.3474 -70.1648 3.70732 0.03 312.836 
245 1 1 0.293125 0.44708 1.58363 0 0 0 1.78712 0.0408959 -0.0709304 7.5228 -3.7458 3.83961 1.46972 41.5283 -19.5004 0.03 303.724 
84 1 1 0.567607 0.467274 1.57652 0 0 0 2.1832 -0.0495712 -0.0775693 0.599003 -0.87993 11.8148 1.05187 -61.1779 0.502665 0.03 328.388 
25 1 1 0.812429 0.456168 1.58215 0 0 0 2.4367 0.264117 0.0112409 0 0 -2.77371 -12.5041 -51.1313 -2.28066 0.03 327.863 
135 1 1 1.09112 0.444982 1.57715 0 0 0 2.88315 0.125574 -0.0231844 2.52849 -7.36964 -12.3363 -6.79962 -45.7618 5.63969 0.03 362.819 
134 1 1 1.23172 0.468755 1.5766 0 0 0 2.75733 -0.0389358 -0.0305678 2.96671 -2.91554 4.44463 -13.6841 -10.4504 8.23901 0.03 322.623 
37 1 1 1.2918 0.474224 1.5768 0 0 0 2.84348 0.0711404 0.00390016 -0.0334985 0.0260909 0.831635 -2.42689 -39.1956 -0.957406 0.03 334.119 
69 1 1 1.35119 0.466392 1.57689 0 0 0 2.85104 0.00855805 -0.00520416 0.0361094 -0.155389 -0.478327 -0.38859 -38.3559 -7.44253 0.03 375.074 
111 1 1 1.41895 0.455032 1.57684 0 0 0 2.85944 -0.133637 0.00613286 0.0304789 -0.0318828 0.126822 3.93203 -38.8181 3.74398 0.03 344.859 
163 1 1 1.60517 0.455005 1.57691 0 0 0 2.88673 0.0097164 0.000340592 1.77392 0.773419 0.115864 -0.29289 -37.3261 15.6376 0.03 367.378 
272 1 1 0.299162 0.519796 1.57636 0 0 0 1.78022 0.245246 -0.236442 6.67061 -42.2429 -87.6935 -11.0646 -66.2786 7.01456 0.03 310.562 
279 1 1 0.365813 0.507366 1.58186 0 0 0 1.85079 -0.0128739 0.0460849 0 0 -2.77371 6.58634 -71.1504 20.9757 0.03 318.352 
116 1 1 0.638462 0.493965 1.57701 0 0 0 2.28041 0.25931 0.0118891 -0.08475 0.0116866 -2.517 -8.66613 -57.4735 -6.98913 0.03 347.307 
6 1 1 0.752687 0.48352 1.57757 0 0 0 2.33771 0.260941 0.0242061 -0.0794634 0.269746 -2.63994 -3.76708 -30.7702 3.18226 0.03 324.72 
160 1 1 0.869512 0.501009 1.57686 0 0 0 1.93281 0.132968 -1.18178e-05 5.45479e-05 -3.50867e-06 0.000445339 -4.45041 -69.1886 3.49012 0.03 355.4 
4 1 1 0.939731 0.489989 1.57647 0 0 0 2.10227 0.107155 0.116295 8.5747 -5.33858 -15.26 -4.19827 -63.6618 7.22588 0.03 336.359 
136 1 1 1.09856 0.503723 1.57731 0 0 0 2.62612 -0.145578 -0.0673006 -0.330922 22.2594 5.49929 -0.341768 6.05999 0.474468 0.03 329.283 
169 1 1 1.15607 0.486794 1.57692 0 0 0 2.70789 -0.134651 -0.00121766 -0.884191 0.256778 -0.274271 4.53341 -43.0704 0.516104 0.03 348.331 
104 1 1 1.39276 0.509557 1.57687 0 0 0 2.88527 -0.0425066 -0.000161193 0.440681 0.434501 0.184563 1.46171 -37.2709 2.60938 0.03 353.71 
26 1 1 1.51387 0.48787 1.57683 0 0 0 3.07451 -0.00495421 -0.000634965 0.00408838 -0.0204455 0.66213 0.173838 -30.9989 -7.84647 0.03 337.86 
238 1 1 0.135235 0.527946 1.59967 0 0 0 -0.324709 0.35635 -0.666394 60.6814 75.1085 -81.82 47.3992 5.62987 15.9239 0.03 300.39 
249 1 1 0.416834 0.546431 1.57647 0 0 0 1.8379 -0.00585956 -0.0329767 0.166541 3.21337 2.47347 -2.94468 -71.8376 29.0727 0.03 321.966 
226 1 1 0.546858 0.53598 1.57661 0 0 0 2.36404 0.362458 0.0745103 1.44169 1.4095 1.25873 -12.0122 -55.3918 -7.02632 0.03 329.797 
21 1 1 0.739009 0.541895 1.57658 0 0 0 2.09643 0.228227 0.0200069 0.430883 -4.06256 4.71063 1.38147 -63.1788 3.70641 0.03 337.093 
34 1 1 0.959255 0.546652 1.5789 0 0 0 2.55989 -0.328261 0.144019 -9.58961 6.584 12.4262 10.4331 -45.619 -1.77525 0.03 337.151 
117 1 1 1.05152 0.541142 1.5771 0 0 0 2.48483 -0.522888 -0.0723526 0.952067 -2.52217 -1.0778 18.0442 -51.0093 8.47898 0.03 346.203 
61 1 1 1.25122 0.524796 1.57725 0 0 0 2.66935 0.0951028 0.0777229 1.5158 5.01106 -0.0957589 -4.32327 -45.391 -1.32758 0.03 357.76 
152 1 1 1.32952 0.525786 1.57686 0 0 0 2.65809 -0.219723 -0.000305316 0.001205 0.000191988 0.117828 7.35528 -44.9208 -15.045 0.03 371.168 
42 1 1 1.49539 0.544929 1.57688 0 0 0 2.8839 -0.0638429 0.00627885 0.290696 -0.54475 -0.619612 2.20605 -37.3284 11.6301 0.03 363.32 
121 1 1 1.55561 0.537064 1.57685 0 0 0 2.90527 -0.0592923 0.00468606 1.37949 -0.0692512 -0.0112659 2.31816 -30.0125 -19.2858 0.03 380.224 
63 1 1 1.61602 0.535117 1.57638 0 0 0 2.95608 -0.0615196 0.0822293 -3.5001 -0.129984 2.80079 1.94724 -37.1199 16.2188 0.03 374.999 
488 1 1 0.339114 0.52293 2.52217 0 0 0 -0 -0 -1 0 0 0 0 0 0 0.03 300 
304 1 1 0.361691 0.569403 1.57827 0 0 0 1.8698 0.10603 -0.174975 5.33753 -14.0285 4.87292 8.5587 -52.7936 -32.2079 0.03 332.663 
119 1 1 0.592594 0.574644 1.58167 0 0 0 2.69319 0.160778 -0.130105 1.57308 -19.4978 26.7454 -3.76651 -70.1099 0.426203 0.03 353.245 
48 1 1 0.66508 0.565004 1.57722 0 0 0 2.30906 -0.00578079 0.0467842 0 0 -2.77371 0.37625 -56.2852 10.321 0.03 331.209 
227 1 1 0.844849 0.563608 1.57686 0 0 0 2.55755 0.193431 0.000158017 0.0183278 0.00782572 0.0452541 -6.49678 -48.2302 -15.5605 0.03 321.827 
147 1 1 0.907795 0.576485 1.58535 0 0 0 2.57099 -0.128129 0.0233848 0.91776 -0.432117 -2.75245 1.46146 -28.7773 -40.0467 0.03 332.517 
17 1 1 1.00812 0.580357 1.58937 0 0 0 2.65154 -0.298627 -0.274705 0.342642 -0.15446 -1.01303 16.4081 0.920999 -38.7145 0.03 327.153 
16 1 1 1.13867 0.551519 1.57631 0 0 0 2.63879 -0.0745723 0.25266 -0.766341 0.734019 -1.20463 5.69908 -47.0076 -0.627917 0.03 363.253 
118 1 1 1.19733 0.562956 1.57699 0 0 0 2.63582 0.0629572 0.00689405 1.39629 0.253329 -1.48263 -2.11453 -45.5192 -2.50345 0.03 353.663 
105 1 1 1.43876 0.56691 1.57677 0 0 0 2.80193 -0.0389582 -0.000723205 -0.342068 0.248798 0.208826 1.28706 -40.1345 -14.5553 0.03 341.023 
303 1 1 0.140717 0.591107 1.60202 0 0 0 0.416891 0.211438 0.405211 0 0 -2.77371 -19.3676 -103.271 -67.4806 0.03 316.229 
237 1 1 0.253032 0.589331 1.59912 0 0 0 1.20636 -0.115892 0.423946 0 0 -2.77371 -7.67114 -60.3632 -77.0232 0.03 303.573 
57 1 1 0.763404 0.591401 1.6007 0 0 0 2.04291 0.0450606 0.212888 1.50404 3.2038 -4.61833 -36.4933 0.0581728 -25.2923 0.03 331.204 
62 1 1 0.428098 0.147565 1.61627 0 0 0 1.2857 -0.0764092 0.258047 0 0 -2.77371 9.44781 -84.7914 43.7907 0.03 312.547 
307 1 1 0.497891 0.140569 1.62758 0 0 0 1.47035 0.484159 -0.106462 0 0 -2.77371 -13.1804 -64.4075 42.2163 0.03 304.079 
281 1 1 0.890637 0.1471 1.61983 0 0 0 2.62407 0.00693657 0.440461 -2.02023 1.73857 -3.51762 26.5335 -25.0228 24.0917 0.03 313.538 
49 1 1 1.2257 0.155904 1.62466 0 0 0 2.97017 -0.15067 -0.0477055 -1.32053 -1.03658 2.04952 8.71495 -8.60607 23.8944 0.03 310.791 
87 1 1 1.56363 0.146582 1.61634 0 0 0 2.40613 0.0631356 -0.0598297 -0.0318302 0.754094 -1.04097 -2.7223 -25.4984 49.9374 0.03 353.628 
114 1 1 0.761589 0.176901 1.59921 0 0 0 2.32043 -0.0605037 -0.431646 -22.3123 -38.6999 -5.05697 2.9633 2.48419 7.25364 0.03 334.396 
43 1 1 1.01755 0.184156 1.60632 0 0 0 2.26197 0.195015 -0.404802 -1.754 4.10546 -6.33645 4.52878 -2.01667 -25.9884 0.03 301.536 
231 1 1 0.441467 0.206399 1.62347 0 0 0 0.695496 0.256937 0.425298 2.31821 -6.02681 18.6957 -12.0688 65.183 -23.7484 0.03 301.001 
194 1 1 0.253627 0.247435 1.62027 0 0 0 0.121135 -0.975334 -1.17449 -9.91763 -22.127 19.1479 47.19 1.62387 -4.83955 0.03 300.069 
193 1 1 0.319382 0.237712 1.6323 0 0 0 -0.285769 -0.499271 -1.40739 -0.719364 -6.24364 -27.6031 -7.8328 1.93137 7.61225 0.03 300.114 
240 1 1 0.435507 0.270314 1.63374 0 0 0 1.4896 0.441927 0.948116 0 0 -2.77371 -5.55329 46.4599 4.80701 0.03 300.106 
183 1 1 0.52516 0.241784 1.63364 0 0 0 1.58215 -0.476939 0.430375 0 0 -2.77371 -30.7558 70.3203 27.8217 0.03 300.74 
322 1 1 0.811124 0.235161 1.6313 0 0 0 2.17024 0.0662615 0.366527 4.41167 5.38393 3.28516 -31.4351 34.6407 -20.2434 0.03 301.371 
46 1 1 1.59778 0.237544 1.60599 0 0 0 3.02675 0.158753 -0.366071 0.478427 0.441746 -2.51305 -14.5922 51.7895 -6.23645 0.03 302.001 
68 1 1 0.780903 0.284657 1.61128 0 0 0 2.02866 -0.395476 -0.288616 0 0 -2.77371 10.072 39.0811 -1.33766 0.03 300.839 
44 1 1 1.19056 0.265152 1.6112 0 0 0 2.44787 -0.347388 -0.215154 1.38099 -1.58579 -0.934107 24.1075 32.7973 -6.37188 0.03 304.291 
155 1 1 1.47184 0.299125 1.6194 0 0 0 2.25452 0.193534 -0.255196 1.24662 4.70674 0.432268 -6.90914 32.0562 14.5377 0.03 303.146 
73 1 1 0.243568 0.327055 1.63904 0 0 0 0.132844 0.425874 -0.27789 -15.8394 12.0821 -51.1533 2.80314 37.2465 -15.1963 0.03 301.279 
331 1 1 0.312962 0.337913 1.62552 0 0 0 0.818468 0.0261048 -0.371633 0 0 -2.77371 53.7007 11.7976 11.8526 0.03 300.49 
71 1 1 0.662339 0.334376 1.62836 0 0 0 2.12636 -0.162242 0.0720993 0 0 -2.77371 8.06357 73.3013 15.4898 0.03 302.955 
225 1 1 1.05364 0.309183 1.59973 0 0 0 2.98637 0.323403 -0.319037 0.616859 0.349986 -2.82032 -5.44229 53.4703 -2.7853 0.03 301.13 
212 1 1 0.450152 0.34129 1.61917 0 0 0 0.547291 0.0634244 -0.858212 -8.99099 3.09544 74.4165 -9.14296 -9.94208 6.62229 0.03 300.097 
216 1 1 0.536571 0.346765 1.61972 0 0 0 2.53113 0.0788562 1.07336 0 0 -2.77371 12.7824 44.8623 9.21176 0.03 300.165 
187 1 1 0.993817 0.361173 1.59397 0 0 0 2.36547 0.427867 -0.952193 0 0 -2.77371 22.2103 -37.1063 -13.1042 0.03 300.364 
346 1 1 0.39909 0.394793 1.62364 0 0 0 0.430643 0.308617 -0.495654 -18.7183 19.297 -29.4529 11.4794 -7.3458 -7.39144 0.03 300.82 
254 1 1 0.570537 0.396628 1.62725 0 0 0 2.46075 0.90205 -0.0808303 0 0 -2.77371 -12.9095 27.5613 21.1911 0.03 300.653 
153 1 1 1.23471 0.374908 1.62235 0 0 0 2.77257 0.100758 0.0365064 4.90745 10.3449 18.0508 26.312 27.022 4.28409 0.03 304.75 
309 1 1 0.133001 0.410704 1.6322 0 0 0 -0.404586 -0.180365 1.25472 3.80437 -2.53827 15.1096 9.11782 49.8956 -6.06885 0.03 300.23 
285 1 1 0.229803 0.445391 1.62663 0 0 0 0.178835 0.169628 0.0157339 -2.9211 -2.12269 8.54955 21.7058 -5.82746 17.3106 0.03 300.093 
277 1 1 0.305795 0.405193 1.62463 0 0 0 1.18552 -0.740721 -0.594427 -25.694 21.0114 13.8346 25.2628 -1.59546 -34.9425 0.03 300.07 
263 1 1 0.402849 0.468931 1.61045 0 0 0 1.23626 0.0715548 -0.417329 -20.1909 -6.20039 -85.0277 5.54655 -16.6322 0.603649 0.03 300.89 
178 1 1 0.460009 0.463158 1.62261 0 0 0 1.23991 0.394107 -0.384222 7.02658 -7.07577 -37.8928 -21.2396 4.84632 14.7571 0.03 300.729 
352 1 1 0.518511 0.45408 1.62833 0 0 0 1.30719 0.149601 -0.66318 3.87429 1.02157 -3.25032 0.293019 17.9653 -6.01047 0.03 301.511 
182 1 1 0.200808 0.516263 1.59673 0 0 0 0.422043 0.55649 -0.767279 0 0 -2.77371 8.43257 -12.299 8.69513 0.03 300.069 
102 1 1 0.794427 0.51879 1.62867 0 0 0 1.72958 0.542415 -0.584373 0 0 -2.77371 -24.4892 37.4774 3.91183 0.03 300.972 
296 1 1 0.92063 0.485148 1.63259 0 0 0 1.54262 -0.0402036 0.0223566 -0.471008 -0.395246 -0.0773382 3.16043 43.0052 10.6258 0.03 301.027 
149 1 1 1.45849 0.499953 1.60789 0 0 0 2.42258 -0.00618436 -0.635557 0 0 -2.77371 7.13955 6.39301 12.9246 0.03 301.549 
28 1 1 0.50106 0.530268 1.62538 0 0 0 1.02722 0.225688 -0.497304 0 0 -2.77371 5.72844 14.0497 -14.6955 0.03 302.122 
265 1 1 0.598941 0.534734 1.62356 0 0 0 1.29054 0.0870138 0.231999 3.02546 -26.4306 15.9055 8.53012 8.19174 -0.149493 0.03 300.946 
106 1 1 0.870215 0.535413 1.63198 0 0 0 1.70526 -0.0593069 -0.157884 0 0 -2.77371 12.7036 25.0913 -17.3757 0.03 302.176 
98 1 1 1.19705 0.52546 1.62662 0 0 0 2.16422 -0.255334 -0.262459 0 0 -2.77371 10.7243 41.1142 -2.75198 0.03 302.031 
55 1 1 0.428513 0.587303 1.6177 0 0 0 1.11378 0.40765 -0.147711 -7.83673 11.387 -3.51255 22.9121 63.4528 -8.90869 0.03 301.849 
224 1 1 0.54345 0.572429 1.63048 0 0 0 1.14608 0.115934 -0.083439 29.8039 -53.1343 29.4925 33.693 20.5749 35.0217 0.03 301.846 
243 1 1 0.672514 0.576918 1.63583 0 0 0 1.58526 0.130358 0.209064 6.27669 -3.69219 -7.37249 -26.3577 3.06217 -36.5275 0.03 300.726 
2 1 1 1.28153 0.555111 1.62134 0 0 0 2.51645 -0.130645 -0.0949639 0 0 -2.77371 -11.4962 35.5617 -6.09149 0.03 317.042 
276 1 1 0.501994 0.610675 1.61703 0 0 0 1.7816 0.243624 -0.0246381 14.4917 -13.1179 24.6751 3.19426 -59.5657 -46.1777 0.03 301.91 
89 1 1 0.818373 0.60564 1.62149 0 0 0 2.39557 -0.454797 4.92404e-05 0 0 -2.77371 0.170016 -30.6347 -35.1825 0.03 330.447 
65 1 1 0.962326 0.609557 1.61871 0 0 0 2.7208 -0.133888 -0.135163 0.201886 -0.807585 -0.40267 5.36831 -29.0258 -31.4233 0.03 310.26 
75 1 1 1.08698 0.586214 1.60077 0 0 0 2.35882 -0.186635 -0.149464 0 0 -2.77371 -3.96587 -24.3833 -46.4415 0.03 324.972 
99 1 1 1.14806 0.598367 1.61187 0 0 0 2.10547 0.0848119 0.51554 -0.172708 -0.687341 -4.17448 -21.7173 -40.8689 -42.2103 0.03 342.708 
79 1 1 1.23838 0.598202 1.60739 0 0 0 2.66452 -0.0797424 -0.0876678 0.863592 -1.05792 -0.980313 -9.24269 -2.86926 -29.3486 0.03 328.911 
156 1 1 1.3398 0.599 1.60815 0 0 0 2.51087 -0.0281083 -0.0167108 -0.0369135 -1.01268 -1.1312 1.06318 -45.0384 -25.441 0.03 349.482 
18 1 1 1.48253 0.596049 1.60522 0 0 0 2.82524 -0.0403743 -0.0343566 1.03965 -0.238543 0.142209 1.61618 -21.1091 -34.5061 0.03 326.881 
72 1 1 0.567383 0.627261 1.63552 0 0 0 1.45484 0.231024 0.36172 0.848407 -4.70428 2.73584 -14.6033 -41.833 -64.1179 0.03 334.876 
332 1 1 0.206684 0.122562 1.6406 0 0 0 0.0995112 -0.246836 0.400443 1.45636 -2.16396 -4.74664 23.5948 -32.469 25.0042 0.03 304.804 
137 1 1 0.579202 0.119177 1.64386 0 0 0 1.93945 0.269626 -0.0691179 -0.0959586 -3.373 -5.65245 -7.72386 -34.31 63.1119 0.03 334.252 
76 1 1 0.843735 0.116228 1.64671 0 0 0 2.38414 0.470015 -0.47007 0.866529 1.06222 -1.06305 2.09681 14.2807 25.7225 0.03 318.55 
283 1 1 0.265966 0.121847 1.65294 0 0 0 0.376969 -0.673754 0.330395 0 0 -2.77371 12.5768 24.4526 -16.7891 0.03 300.35 
74 1 1 0.641236 0.130458 1.64361 0 0 0 1.9539 -0.716019 -0.0132137 0 0 -2.77371 5.20571 11.3308 -11.4659 0.03 302.803 
139 1 1 0.764408 0.127462 1.65 0 0 0 1.92698 -0.158326 -0.203857 0 0 -2.77371 24.7377 -43.9239 26.0938 0.03 336.722 
115 1 1 1.01317 0.130644 1.63241 0 0 0 2.10749 0.336141 -0.332039 1.69793 -3.83374 1.59243 -15.1449 -42.9168 46.6448 0.03 330.074 
186 1 1 0.294355 0.181928 1.63303 0 0 0 0.263363 -0.514641 -0.221132 2.91504 -0.546081 -8.69464 28.8739 21.7814 13.118 0.03 300.133 
252 1 1 0.593983 0.198386 1.64195 0 0 0 1.14812 -0.38968 -0.105857 0 0 -2.77371 -13.7115 3.36298 -9.89027 0.03 300.253 
319 1 1 0.691267 0.222778 1.64014 0 0 0 1.74016 0.0178512 0.245838 0 0 -2.77371 24.3173 41.486 -14.2233 0.03 300.778 
284 1 1 0.170671 0.25415 1.62927 0 0 0 -0.0765124 -0.331862 -1.33023 -15.0447 42.616 70.0714 11.4984 1.83136 15.0897 0.03 300.004 
282 1 1 0.504145 0.299444 1.64267 0 0 0 0.857615 -0.35222 -0.278698 0 0 -2.77371 0.646976 -40.0267 -9.565 0.03 300.005 
338 1 1 0.579701 0.297457 1.63924 0 0 0 1.16884 -0.151537 -0.435793 0 0 -2.77371 -24.6657 -29.581 6.03422 0.03 300.043 
181 1 1 0.721528 0.301757 1.66452 0 0 0 1.74719 0.0343333 0.329093 0 0 -2.77371 -19.5036 24.9736 24.781 0.03 300.753 
347 1 1 0.378872 0.303598 1.63048 0 0 0 0.865903 -0.54076 -0.357609 -3.10027 0.40704 7.20014 20.002 26.567 1.62208 0.03 300.727 
204 1 1 0.202001 0.369485 1.65868 0 0 0 0.312989 0.272126 0.936117 0 0 -2.77371 -70.9864 77.8935 32.3782 0.03 300.451 
250 1 1 0.353507 0.365844 1.66059 0 0 0 0.52609 0.183334 -0.0370287 0 0 -2.77371 -39.9885 -18.0535 4.72405 0.03 300.012 
334 1 1 0.503938 0.401509 1.65847 0 0 0 0.836351 -0.113085 -0.710631 0 0 -2.77371 5.09603 -42.2344 0.777492 0.03 300.023 
190 1 1 0.350267 0.444704 1.63628 0 0 0 1.01803 0.204646 -0.912549 2.12504 12.3562 53.7797 14.7395 12.076 36.644 0.03 301.126 
295 1 1 0.429543 0.431865 1.6644 0 0 0 0.599392 0.0743763 -0.509892 0 0 -2.77371 -45.2681 -3.98851 10.7751 0.03 300.011 
261 1 1 0.16312 0.474957 1.62683 0 0 0 -0.0498421 0.44418 0.400811 21.365 8.90548 85.4739 -2.89405 43.7976 8.28421 0.03 300.062 
208 1 1 0.278276 0.485693 1.64923 0 0 0 0.56527 0.734668 -0.105598 0 0 -2.77371 -16.4973 -20.5044 -6.19311 0.03 300.042 
130 1 1 1.54927 0.45306 1.66187 0 0 0 2.55146 -0.00425569 0.0286938 0 0 -2.77371 -5.78272 17.8909 -2.26063 0.03 301.155 
223 1 1 0.105435 0.492346 1.63142 0 0 0 -0.175847 -0.642515 -1.85228 -60.6814 -75.1085 76.2726 26.9212 -41.9194 -18.398 0.03 300.001 
220 1 1 0.39105 0.495597 1.66004 0 0 0 0.495621 0.525076 -0.885516 -4.12783 13.6447 14.0712 -14.5072 -9.10357 12.0266 0.03 300.03 
20 1 1 1.29657 0.495711 1.63666 0 0 0 2.40794 0.0217055 -0.0460876 0 0 -2.77371 9.06763 28.6045 11.6179 0.03 302.522 
271 1 1 0.323862 0.538447 1.62542 0 0 0 0.416208 0.236441 -1.36476 9.34818 47.177 111.09 -11.3812 21.3424 -5.52882 0.03 300.633 
201 1 1 0.433165 0.534687 1.64368 0 0 0 0.983926 0.24937 -0.699615 6.91067 17.63 -37.9599 -0.403269 -41.0195 -3.04491 0.03 300.09 
239 1 1 0.732588 0.520539 1.63871 0 0 0 1.55189 0.277362 0.293653 0 0 -2.77371 -8.43035 41.701 4.12706 0.03 300.768 
150 1 1 0.934099 0.555968 1.63525 0 0 0 1.94411 -0.024766 -0.370785 0 0 -2.77371 2.08265 9.3679 16.4103 0.03 301.434 
301 1 1 0.174443 0.622264 1.64561 0 0 0 0.587589 0.172362 0.1032 0 0 -2.77371 -11.7175 6.30727 -39.118 0.03 303.382 
52 1 1 0.623774 0.610232 1.64199 0 0 0 1.54662 0.101285 0.232551 3.15831 -3.17226 -1.32129 -7.40792 38.9988 45.01 0.03 301.677 
326 1 1 0.431688 0.638611 1.64705 0 0 0 1.08324 0.193592 0.255652 -0.925882 0.777017 1.69998 -11.5559 -118.203 -20.8645 0.03 332.035 
154 1 1 0.699698 0.632002 1.64118 0 0 0 1.96436 -0.241709 -0.242746 0.00336219 -1.01295 -0.96468 11.4624 -36.0128 -60.2594 0.03 320.68 
138 1 1 0.918943 0.642114 1.65125 0 0 0 2.55818 -0.223176 -0.211797 0.947203 -1.18105 -1.10072 -7.12698 -0.878753 -0.326397 0.03 308.591 
27 1 1 1.04476 0.619902 1.62908 0 0 0 1.94267 -0.680202 -0.680203 -1.28975e-08 -0.988772 -0.988773 32.1692 -51.253 -46.0457 0.03 332.595 
317 1 1 0.33926 0.0778315 1.68507 0 0 0 1.12783 -0.412015 0.381457 1.21511 1.56272 0.466575 42.3137 -46.5739 55.2691 0.03 306.966 
333 1 1 0.710388 0.090935 1.67229 0 0 0 2.04374 0.108688 -0.13951 0 0 -2.77371 -3.76778 -43.7584 49.6599 0.03 306.284 
305 1 1 0.456479 0.143592 1.70764 0 0 0 0.966565 -0.665176 0.259677 0 0 -2.77371 -14.4764 9.55725 -2.31961 0.03 300.427 
196 1 1 0.557563 0.149218 1.69149 0 0 0 0.488996 0.0347049 -0.247563 0 0 -2.77371 6.82614 -20.0527 -26.4054 0.03 300.297 
343 1 1 0.150393 0.212312 1.67257 0 0 0 -0.27185 -0.929973 -1.60371 0 0 -2.77371 15.2306 -15.5929 -7.38265 0.03 300 
189 1 1 0.300455 0.263392 1.68178 0 0 0 -0.233319 -0.487349 -1.87645 -6.21081 -3.46711 29.91 15.9333 12.577 11.6288 0.03 300 
349 1 1 0.368713 0.23487 1.66253 0 0 0 1.12279 -0.185399 -1.55279 5.89494 4.42982 -17.113 -0.852451 40.7448 6.25655 0.03 300.001 
253 1 1 0.244652 0.293786 1.68626 0 0 0 0.167387 -0.0362148 -0.418751 15.8394 -12.0821 45.6059 -3.41474 2.95618 -18.7416 0.03 300.004 
324 1 1 0.115625 0.334079 1.65967 0 0 0 0 0 -2.93282 0 0 -2.77371 0 0 0 0.03 300 
211 1 1 0.339413 0.306938 1.67501 0 0 0 -0.10525 0.097734 -1.0603 1.43188 5.00622 3.38865 -5.0083 -54.4267 5.18875 0.03 300.006 
259 1 1 0.267087 0.359097 1.69012 0 0 0 1.05092 0.632052 0.392976 0 0 -2.77371 24.7267 -24.7458 21.7395 0.03 300.017 
234 1 1 0.415714 0.357354 1.66535 0 0 0 -0.171558 -0.340176 -1.07281 12.8116 -14.9333 16.2026 17.5278 -15.2822 -11.7822 0.03 300.002 
341 1 1 0.589592 0.347676 1.68443 0 0 0 1.30437 -0.544364 -0.283716 0 0 -2.77371 14.4331 -31.4215 -13.6493 0.03 300.01 
335 1 1 0.63398 0.458484 1.67749 0 0 0 1.45298 0.21684 -0.111875 0 0 -2.77371 -13.7631 -8.77074 29.662 0.03 300.277 
268 1 1 0.741088 0.455347 1.70239 0 0 0 1.70927 0.470599 0.27194 0 0 -2.77371 -35.7909 14.651 -0.0812511 0.03 300.296 
198 1 1 0.453659 0.489276 1.67466 0 0 0 0.648096 0.646623 -1.00027 9.36859 -28.9411 82.8699 10.7724 4.18066 13.4286 0.03 300.002 
262 1 1 0.521532 0.496826 1.67145 0 0 0 1.13572 0.187774 -0.577522 0 0 -2.77371 6.29069 -13.4898 -1.45501 0.03 300.06 