ITEM: TIMESTEP
43000
ITEM: NUMBER OF ATOMS
176
ITEM: BOX BOUNDS ff ff ff
0 3.3
-0.3 0.8
-0.5 3
ITEM: ATOMS id type type x y z ix iy iz vx vy vz fx fy fz omegax omegay omegaz radius f_Temp[0] 
108 1 1 0.302393 0.186347 1.57674 0 0 0 0.870867 -0.496033 0.0273762 15.8853 6.00697 12.5397 16.558 -106.243 15.7422 0.03 314.525 
120 1 1 0.207795 0.216735 1.5767 0 0 0 1.02129 0.0199535 0.111831 0.0792575 0.0760486 -2.55403 -5.754 -94.6806 11.8286 0.03 311.69 
47 1 1 0.461154 0.2097 1.57681 0 0 0 1.60673 -0.503517 -0.0201249 2.30398 -0.313059 1.87659 22.1656 -41.1666 2.35405 0.03 309.989 
67 1 1 0.52101 0.214134 1.58276 0 0 0 1.61259 -0.264802 0.173764 0 0 -2.77371 12.6073 -68.6426 2.91394 0.03 314.973 
112 1 1 0.321169 0.257291 1.57638 0 0 0 2.11006 0.00387535 -0.124603 13.8904 4.07388 15.2869 -0.697109 12.5117 -9.86654 0.03 304.542 
60 1 1 0.407786 0.242929 1.57634 0 0 0 0.839324 -0.408908 -1.2966 90.7713 -12.04 47.394 10.0967 -48.1551 9.48062 0.03 303.803 
13 1 1 0.192085 0.286947 1.57525 0 0 0 1.06276 -0.16445 0.174023 17.2127 9.85 37.458 1.7199 -96.2895 0.586322 0.03 309.632 
41 1 1 0.248576 0.26621 1.58076 0 0 0 1.05531 -0.310969 -0.114045 0 0 -2.77371 -16.3798 -38.9764 13.6756 0.03 312.501 
142 1 1 0.492226 0.266877 1.57685 0 0 0 1.66452 -0.300416 -0.043427 9.84857 4.20316 -43.5894 5.77215 -73.3155 1.20662 0.03 314.693 
8 1 1 0.639256 0.276533 1.59686 0 0 0 2.45713 -0.251596 0.101692 0 0 -2.77371 15.1058 -50.2364 3.30632 0.03 311.702 
124 1 1 0.305281 0.330948 1.57769 0 0 0 1.69544 -0.203663 0.233917 0.242251 4.38406 -2.25296 -9.03655 -78.8925 6.41978 0.03 313.093 
59 1 1 0.362236 0.30567 1.57949 0 0 0 1.09342 -0.772213 0.184106 0 0 -2.77371 10.8242 -87.8076 -34.827 0.03 310.087 
86 1 1 0.44351 0.301858 1.57741 0 0 0 1.53119 -0.247182 -0.115837 1.61068 -1.1978 -3.80006 18.3538 -68.6143 2.05149 0.03 318.515 
45 1 1 0.545441 0.319989 1.58751 0 0 0 2.09789 -0.98301 -0.193722 19.2264 -22.4491 4.50459 -13.9253 81.5268 -6.96322 0.03 300.735 
14 1 1 0.750227 0.317603 1.57686 0 0 0 2.42076 0.0677055 -0.00139891 0.00503835 -0.000234604 0.0741087 -2.26607 -52.8575 -2.54476 0.03 314.875 
64 1 1 0.197408 0.359067 1.57596 0 0 0 0.676682 0.247336 -0.279279 8.79263 -14.9985 16.2503 4.28152 -89.1518 -0.126204 0.03 308.082 
29 1 1 0.399991 0.350198 1.59926 0 0 0 0.875848 -0.345164 0.171472 0 0 -2.77371 -40.9147 51.0709 33.0811 0.03 300.623 
23 1 1 0.506016 0.361427 1.57627 0 0 0 2.36125 -0.344466 0.537566 -7.52496 6.84315 -13.5039 16.0625 -51.9456 -21.5725 0.03 325.762 
96 1 1 0.61438 0.363217 1.5885 0 0 0 1.59828 -0.245794 -0.389202 0 0 -2.77371 18.6485 -79.5754 -6.81822 0.03 307.134 
82 1 1 0.71729 0.37151 1.57686 0 0 0 1.79073 -0.132728 -0.0638079 0.189393 -0.22245 2.87997 4.43585 -73.8231 3.74214 0.03 307.118 
122 1 1 0.304149 0.390272 1.58166 0 0 0 1.79062 0.12314 0.27313 -0.242251 -4.38406 -3.29447 12.4725 -76.6592 -20.0115 0.03 310.022 
69 1 1 0.128699 0.413879 1.58132 0 0 0 0.781535 -0.352495 0.222951 0 0 -2.77371 -21.0511 -86.7906 11.9609 0.03 305.587 
10 1 1 0.404391 0.417402 1.57491 0 0 0 1.67629 0.208886 0.323615 12.4087 -8.11861 20.2713 -10.9599 -88.1413 13.4851 0.03 318.211 
36 1 1 0.515165 0.428511 1.58372 0 0 0 1.24567 0.419228 -0.420504 0 0 -2.77371 -53.6549 32.08 16.2016 0.03 300.366 
32 1 1 0.601423 0.434115 1.58772 0 0 0 1.81297 0.024 0.00246128 0 0 -2.77371 -0.656718 -73.5242 -5.21338 0.03 311.321 
174 1 1 0.685233 0.422592 1.5768 0 0 0 2.10585 0.0562266 0.0105983 1.54377 -0.595274 0.53541 18.2776 -11.1735 3.69791 0.03 308.412 
121 1 1 0.159823 0.478092 1.57628 0 0 0 1.82743 0.688678 0.545427 4.00429 2.9658 -19.0204 -24.3094 -72.31 28.4918 0.03 303.268 
163 1 1 0.241227 0.46439 1.57947 0 0 0 0.800938 0.254095 0.313589 0 0 -2.77371 -8.49145 -107.472 -25.1602 0.03 307.258 
30 1 1 0.347744 0.44651 1.57662 0 0 0 1.20261 -0.036431 -0.262182 20.5454 -2.26405 -65.6601 -0.181157 -75.9958 0.905391 0.03 323.018 
54 1 1 0.450264 0.45395 1.58067 0 0 0 1.74087 0.223116 0.290923 10.9395 10.0635 6.47752 -20.9081 -70.222 -12.3264 0.03 316.327 
63 1 1 0.305416 0.491894 1.57606 0 0 0 0.936375 0.122708 -0.0195367 1.69921 -0.15935 10.4786 -3.0006 -105.746 4.98606 0.03 310.975 
39 1 1 0.40183 0.501862 1.58463 0 0 0 0.245966 0.00616519 -1.1537 0 0 -2.77371 28.0775 17.8581 -17.0842 0.03 300.497 
66 1 1 0.52533 0.48864 1.58665 0 0 0 1.2733 0.415645 0.368462 7.33916 -5.77255 3.43247 -12.0154 -89.2665 7.27643 0.03 303.718 
100 1 1 0.638046 0.48368 1.57701 0 0 0 1.871 0.0289315 0.197975 -1.31131 -0.0131737 -9.21571 -0.980395 -71.0424 -5.29887 0.03 315.923 
118 1 1 0.115904 0.530126 1.57561 0 0 0 0.0536248 0.849033 -2.27144 226.705 -43.6061 201.092 -11.1784 -42.1791 6.60166 0.03 300.151 
152 1 1 0.184811 0.541326 1.5979 0 0 0 1.05783 0.318026 -0.57579 36.2795 25.3272 -196.163 11.5192 -76.5232 1.82957 0.03 303.798 
162 1 1 0.478524 0.525068 1.57931 0 0 0 1.38983 0.0427528 0.253866 -7.33916 5.77255 -8.97989 1.28712 -83.5741 10.9329 0.03 307.846 
168 1 1 0.58242 0.517246 1.58644 0 0 0 1.74602 -0.0714041 0.164214 0 0 -2.77371 2.42933 -75.7376 10.3515 0.03 303.639 
109 1 1 0.314546 0.574076 1.58717 0 0 0 1.47459 -0.496311 0.0379427 0 0 -2.77371 9.31173 -47.095 -77.363 0.03 303.495 
103 1 1 0.403507 0.562423 1.57632 0 0 0 1.88823 0.482868 0.205848 0.464359 -1.68092 0.714054 -12.0246 -70.3361 -26.5693 0.03 316.421 
113 1 1 0.643007 0.575729 1.58493 0 0 0 2.00357 0.113837 0.116967 0.177495 -0.576965 -1.09951 -7.36899 -83.2408 -10.6469 0.03 315.728 
87 1 1 0.373973 0.186386 1.60827 0 0 0 -0.227911 -1.02468 -0.782626 0 0 -2.77371 2.67313 12.3803 18.0156 0.03 300.191 
85 1 1 0.617214 0.211796 1.61351 0 0 0 1.50927 -0.522515 0.054103 0 0 -2.77371 8.12198 -77.5089 4.18826 0.03 303.886 
58 1 1 0.112056 0.26459 1.58339 0 0 0 0 0 -3.17777 0 0 -2.77371 0 0 0 0.03 300 
155 1 1 0.441617 0.257403 1.61988 0 0 0 0.627741 0.222822 -0.508466 23.0143 19.1246 40.6332 -15.8696 26.7722 23.6676 0.03 300.02 
101 1 1 0.14737 0.330849 1.61525 0 0 0 -0.446641 0.334938 -1.04413 0 0 -2.77371 2.57348 20.1771 3.24541 0.03 300.048 
91 1 1 0.225058 0.320851 1.61055 0 0 0 0.407227 0.369695 0.742016 5.71551 -5.81058 9.59871 -10.8713 46.6608 16.7159 0.03 300.217 
42 1 1 0.228974 0.396227 1.60926 0 0 0 0.265515 0.4193 -0.344568 5.30757 10.5519 17.1457 -13.7796 25.4061 -6.75025 0.03 300.083 
145 1 1 0.37436 0.403373 1.62418 0 0 0 -0.178858 -0.0498573 -0.73678 4.53835 -28.07 0.197728 -34.088 3.50042 11.5075 0.03 300.137 
167 1 1 0.440507 0.393223 1.61408 0 0 0 0.794889 -0.168174 1.46666 2.42186 -5.5009 10.7861 42.9302 23.6315 3.73179 0.03 300.554 
92 1 1 0.492841 0.372088 1.63297 0 0 0 1.16496 -0.198792 0.857932 -3.13449 5.29096 -15.093 -18.6378 5.54821 1.00884 0.03 300.34 
131 1 1 0.314173 0.41924 1.6366 0 0 0 0.735922 0.273655 -0.309823 -17.2556 73.8028 -38.4586 29.5121 53.2546 -12.4155 0.03 300.418 
79 1 1 0.336355 0.508403 1.62378 0 0 0 0.458309 0.63552 0.102893 1.81327 1.21292 9.8427 -7.79346 57.9884 -7.94659 0.03 300.492 
140 1 1 0.687861 0.485051 1.61077 0 0 0 1.91018 0.0155893 0.584058 0 0 -2.77371 -2.11596 -33.9412 0.440971 0.03 304.049 
18 1 1 0.451365 0.532405 1.63699 0 0 0 0.0241209 0.288686 0.364856 0 0 -2.77371 -13.0552 42.9778 11.5299 0.03 300.104 
172 1 1 0.476323 0.583009 1.60408 0 0 0 1.29776 0.148546 -0.0900846 0 0 -2.77371 -6.88498 -75.1314 -48.0969 0.03 309.8 
78 1 1 0.22928 0.18348 1.6754 0 0 0 0.840524 -0.590493 0.64172 0 0 -2.77371 28.2436 73.2207 -0.414164 0.03 300.124 
49 1 1 0.322861 0.236779 1.63166 0 0 0 0.509826 -0.933887 -0.102252 -3.0167 -3.99976 0.913539 33.1933 -66.4052 -7.26236 0.03 300.021 
173 1 1 0.366151 0.282746 1.64185 0 0 0 0.849681 -0.576466 0.648839 0 0 -2.77371 20.1863 48.207 3.36417 0.03 300.124 
46 1 1 0.508568 0.285137 1.63035 0 0 0 1.03731 0.132737 -0.61172 -3.82084 6.09644 39.5166 14.3524 -27.1785 -18.6186 0.03 300.176 
81 1 1 0.435601 0.319869 1.64574 0 0 0 1.79369 0.0441357 -0.705282 0 0 -2.77371 -42.9378 26.6925 30.1174 0.03 300.001 
99 1 1 0.285672 0.485004 1.64622 0 0 0 0.146343 0.496459 -0.142948 0 0 -2.77371 -31.7465 -64.8914 24.3878 0.03 300.011 
105 1 1 0.377685 0.461783 1.62456 0 0 0 0.155247 -0.0432449 -1.01783 7.43014 29.9253 82.541 12.6732 2.1495 -20.5079 0.03 300.019 
158 1 1 0.250996 0.548974 1.61955 0 0 0 -0.413596 1.17994 -2.61251 0 0 -2.77371 -8.07942 -2.70566 0.976106 0.03 300 
157 1 1 0.517766 0.528065 1.64156 0 0 0 1.209 0.204378 -1.49362 0 0 -2.77371 14.9154 34.1111 -13.3311 0.03 300 
156 1 1 0.362573 0.583656 1.64067 0 0 0 0.172198 1.47681 0.210696 0 0 -2.77371 -12.6262 5.43796 11.889 0.03 300.129 
15 1 1 0.188775 0.261917 1.66108 0 0 0 0 0 -2.92811 0 0 -2.77371 0 0 0 0.03 300 
80 1 1 0.486364 0.238227 1.65858 0 0 0 0.299079 -0.468246 -1.67149 -0.942417 -3.08329 1.73112 20.5356 13.3323 5.15357 0.03 300.001 
143 1 1 0.327952 0.368012 1.65665 0 0 0 0.646925 -0.683561 -1.96479 17.2556 -73.8028 32.9111 47.6449 -1.7236 -31.9659 0.03 300.001 
133 1 1 0.693108 0.346948 1.68129 0 0 0 1.45209 0.340449 0.149867 0 0 -2.77371 -5.42725 -57.2091 -15.3957 0.03 303.944 
130 1 1 0.40181 0.407826 1.67769 0 0 0 0.487781 0.415476 -0.834854 0 0 -2.77371 17.9807 20.485 -8.74048 0.03 300 
135 1 1 0.110104 0.424702 1.67621 0 0 0 0 0 -2.877 0 0 -2.77371 0 0 0 0.03 300 
61 1 1 0.174746 0.456274 1.67583 0 0 0 0 0 -2.87827 0 0 -2.77371 0 0 0 0.03 300 
117 1 1 0.191361 0.52275 1.6508 0 0 0 -0.309565 -0.0206939 -2.08322 -36.2795 -25.3272 190.616 21.0054 32.481 8.06602 0.03 300.005 
76 1 1 0.262374 0.280345 1.68789 0 0 0 0 0 -2.83687 0 0 -2.77371 0 0 0 0.03 300 
9 1 1 0.441781 0.458388 1.67939 0 0 0 0 0 -2.86611 0 0 -2.77371 0 0 0 0.03 300 
2 1 1 0.337972 0.524085 1.70387 0 0 0 0 0 -2.78105 0 0 -2.77371 0 0 0 0.03 300 
159 1 1 0.463712 0.3119 1.71569 0 0 0 0 0 -2.73907 0 0 -2.77371 0 0 0 0.03 300 
3 1 1 0.103577 0.34242 1.72583 0 0 0 0 0 -2.70248 0 0 -2.77371 0 0 0 0.03 300 
132 1 1 0.181507 0.370772 1.73074 0 0 0 0 0 -2.68462 0 0 -2.77371 0 0 0 0.03 300 
50 1 1 0.301622 0.417346 1.73103 0 0 0 0 0 -2.68354 0 0 -2.77371 0 0 0 0.03 300 
169 1 1 0.252456 0.475054 1.71845 0 0 0 0 0 -2.72916 0 0 -2.77371 0 0 0 0.03 300 
83 1 1 0.499782 0.483801 1.74301 0 0 0 0 0 -2.6394 0 0 -2.77371 0 0 0 0.03 300 
125 1 1 0.33817 0.237417 1.75505 0 0 0 0 0 -2.59427 0 0 -2.77371 0 0 0 0.03 300 
19 1 1 0.315839 0.298576 1.76127 0 0 0 0 0 -2.57063 0 0 -2.77371 0 0 0 0.03 300 
94 1 1 0.273851 0.347383 1.78167 0 0 0 0 0 -2.49156 0 0 -2.77371 0 0 0 0.03 300 
20 1 1 0.379347 0.368828 1.76631 0 0 0 0 0 -2.5513 0 0 -2.77371 0 0 0 0.03 300 
151 1 1 0.494801 0.397371 1.76517 0 0 0 0 0 -2.55572 0 0 -2.77371 0 0 0 0.03 300 
27 1 1 0.362553 0.476213 1.77544 0 0 0 0 0 -2.51599 0 0 -2.77371 0 0 0 0.03 300 
16 1 1 0.119943 0.514428 1.75164 0 0 0 0 0 -2.60712 0 0 -2.77371 0 0 0 0.03 300 
139 1 1 0.137853 0.229319 1.81153 0 0 0 0 0 -2.37109 0 0 -2.77371 0 0 0 0.03 300 
88 1 1 0.486268 0.228152 1.80722 0 0 0 0 0 -2.38885 0 0 -2.77371 0 0 0 0.03 300 
7 1 1 0.417913 0.266516 1.81321 0 0 0 0 0 -2.36413 0 0 -2.77371 0 0 0 0.03 300 
51 1 1 0.201805 0.313726 1.81604 0 0 0 0 0 -2.35236 0 0 -2.77371 0 0 0 0.03 300 
144 1 1 0.368613 0.311971 1.84318 0 0 0 0 0 -2.23631 0 0 -2.77371 0 0 0 0.03 300 
56 1 1 0.445152 0.350079 1.83983 0 0 0 0 0 -2.25092 0 0 -2.77371 0 0 0 0.03 300 
104 1 1 0.324371 0.382136 1.85972 0 0 0 0 0 -2.16253 0 0 -2.77371 0 0 0 0.03 300 
77 1 1 0.218563 0.442358 1.84601 0 0 0 0 0 -2.22385 0 0 -2.77371 0 0 0 0.03 300 
24 1 1 0.44361 0.420007 1.84978 0 0 0 0 0 -2.20717 0 0 -2.77371 0 0 0 0.03 300 
57 1 1 0.255601 0.512634 1.8404 0 0 0 0 0 -2.24847 0 0 -2.77371 0 0 0 0.03 300 
149 1 1 0.457968 0.50649 1.84643 0 0 0 0 0 -2.22198 0 0 -2.77371 0 0 0 0.03 300 
137 1 1 0.250314 0.231914 1.87436 0 0 0 0 0 -2.09504 0 0 -2.77371 0 0 0 0.03 300 
165 1 1 0.36833 0.235983 1.87662 0 0 0 0 0 -2.08445 0 0 -2.77371 0 0 0 0.03 300 
12 1 1 0.150682 0.290471 1.89346 0 0 0 0 0 -2.00361 0 0 -2.77371 0 0 0 0.03 300 
34 1 1 0.161462 0.479607 1.87911 0 0 0 0 0 -2.07267 0 0 -2.77371 0 0 0 0.03 300 
4 1 1 0.283869 0.446206 1.87881 0 0 0 0 0 -2.07415 0 0 -2.77371 0 0 0 0.03 300 
75 1 1 0.387927 0.516304 1.86471 0 0 0 0 0 -2.13977 0 0 -2.77371 0 0 0 0.03 300 
115 1 1 0.29951 0.265646 1.92677 0 0 0 0 0 -1.83331 0 0 -2.77371 0 0 0 0.03 300 
21 1 1 0.18594 0.400862 1.91872 0 0 0 0 0 -1.87589 0 0 -2.77371 0 0 0 0.03 300 
126 1 1 0.387846 0.395075 1.92428 0 0 0 0 0 -1.84655 0 0 -2.77371 0 0 0 0.03 300 
114 1 1 0.101873 0.240116 1.95983 0 0 0 0 0 -1.64692 0 0 -2.77371 0 0 0 0.03 300 
1 1 1 0.44893 0.24186 1.9628 0 0 0 0 0 -1.62916 0 0 -2.77371 0 0 0 0.03 300 
170 1 1 0.448147 0.302404 1.93853 0 0 0 0 0 -1.76925 0 0 -2.77371 0 0 0 0.03 300 
11 1 1 0.20764 0.30353 1.95643 0 0 0 0 0 -1.66703 0 0 -2.77371 0 0 0 0.03 300 
71 1 1 0.27192 0.349064 1.96431 0 0 0 0 0 -1.62004 0 0 -2.77371 0 0 0 0.03 300 
160 1 1 0.115232 0.435564 1.94122 0 0 0 0 0 -1.75424 0 0 -2.77371 0 0 0 0.03 300 
106 1 1 0.375691 0.47682 1.95401 0 0 0 0 0 -1.68126 0 0 -2.77371 0 0 0 0.03 300 
129 1 1 0.201147 0.51232 1.95431 0 0 0 0 0 -1.67949 0 0 -2.77371 0 0 0 0.03 300 
26 1 1 0.474436 0.482152 1.95303 0 0 0 0 0 -1.68695 0 0 -2.77371 0 0 0 0.03 300 
161 1 1 0.383875 0.233035 1.99798 0 0 0 0 0 -1.40138 0 0 -2.77371 0 0 0 0.03 300 
127 1 1 0.381994 0.300043 2.00434 0 0 0 0 0 -1.35615 0 0 -2.77371 0 0 0 0.03 300 
33 1 1 0.10471 0.363257 1.97753 0 0 0 0 0 -1.53793 0 0 -2.77371 0 0 0 0.03 300 
35 1 1 0.342434 0.364463 1.98345 0 0 0 0 0 -1.49967 0 0 -2.77371 0 0 0 0.03 300 
141 1 1 0.429803 0.380165 2.00581 0 0 0 0 0 -1.34546 0 0 -2.77371 0 0 0 0.03 300 
38 1 1 0.303454 0.414467 1.99335 0 0 0 0 0 -1.43345 0 0 -2.77371 0 0 0 0.03 300 
154 1 1 0.211019 0.445658 1.9766 0 0 0 0 0 -1.54382 0 0 -2.77371 0 0 0 0.03 300 
89 1 1 0.26845 0.48437 1.97387 0 0 0 0 0 -1.56108 0 0 -2.77371 0 0 0 0.03 300 
97 1 1 0.184928 0.234672 2.04268 0 0 0 0 0 -1.04253 0 0 -2.77371 0 0 0 0.03 300 
146 1 1 0.495146 0.246598 2.01958 0 0 0 0 0 -1.24098 0 0 -2.77371 0 0 0 0.03 300 
44 1 1 0.485944 0.343638 2.01689 0 0 0 0 0 -1.26207 0 0 -2.77371 0 0 0 0.03 300 
166 1 1 0.165431 0.374869 2.0226 0 0 0 0 0 -1.21695 0 0 -2.77371 0 0 0 0.03 300 
28 1 1 0.222318 0.404493 2.03401 0 0 0 0 0 -1.1211 0 0 -2.77371 0 0 0 0.03 300 
111 1 1 0.473074 0.424163 2.01171 0 0 0 0 0 -1.30171 0 0 -2.77371 0 0 0 0.03 300 
119 1 1 0.126835 0.482642 2.02183 0 0 0 0 0 -1.22313 0 0 -2.77371 0 0 0 0.03 300 
93 1 1 0.225968 0.488444 2.04146 0 0 0 0 0 -1.05391 0 0 -2.77371 0 0 0 0.03 300 
90 1 1 0.102204 0.238351 2.05553 0 0 0 -0 -0 -1 0 0 0 0 0 0 0.03 300 
74 1 1 0.248328 0.247523 2.04851 0 0 0 -0 -0 -1 0 0 0 0 0 0 0.03 300 
62 1 1 0.329189 0.252757 2.0582 0 0 0 -0 -0 -1 0 0 0 0 0 0 0.03 300 
43 1 1 0.460616 0.284913 2.06675 0 0 0 -0 -0 -1 0 0 0 0 0 0 0.03 300 
5 1 1 0.160428 0.3182 2.04871 0 0 0 -0 -0 -1 0 0 0 0 0 0 0.03 300 
95 1 1 0.346797 0.327727 2.06259 0 0 0 -0 -0 -1 0 0 0 0 0 0 0.03 300 
175 1 1 0.230789 0.339127 2.05237 0 0 0 -0 -0 -1 0 0 0 0 0 0 0.03 300 
116 1 1 0.152794 0.405213 2.07527 0 0 0 -0 -0 -1 0 0 0 0 0 0 0.03 300 
128 1 1 0.355123 0.421294 2.06732 0 0 0 -0 -0 -1 0 0 0 0 0 0 0.03 300 
37 1 1 0.41824 0.41741 2.06001 0 0 0 -0 -0 -1 0 0 0 0 0 0 0.03 300 
138 1 1 0.301221 0.470777 2.07913 0 0 0 -0 -0 -1 0 0 0 0 0 0 0.03 300 
17 1 1 0.345254 0.512161 2.06021 0 0 0 -0 -0 -1 0 0 0 0 0 0 0.03 300 
134 1 1 0.443832 0.509496 2.04848 0 0 0 -0 -0 -1 0 0 0 0 0 0 0.03 300 
40 1 1 0.408343 0.240904 2.0908 0 0 0 -0 -0 -1 0 0 0 0 0 0 0.03 300 
31 1 1 0.221691 0.336081 2.11246 0 0 0 -0 -0 -1 0 0 0 0 0 0 0.03 300 
68 1 1 0.400811 0.324654 2.09473 0 0 0 -0 -0 -1 0 0 0 0 0 0 0.03 300 
25 1 1 0.278223 0.363632 2.08196 0 0 0 -0 -0 -1 0 0 0 0 0 0 0.03 300 
123 1 1 0.48159 0.360101 2.08449 0 0 0 -0 -0 -1 0 0 0 0 0 0 0.03 300 
84 1 1 0.227036 0.399722 2.10273 0 0 0 -0 -0 -1 0 0 0 0 0 0 0.03 300 
98 1 1 0.491139 0.43458 2.08869 0 0 0 -0 -0 -1 0 0 0 0 0 0 0.03 300 
55 1 1 0.200976 0.455034 2.09831 0 0 0 -0 -0 -1 0 0 0 0 0 0 0.03 300 
136 1 1 0.374023 0.456818 2.11267 0 0 0 -0 -0 -1 0 0 0 0 0 0 0.03 300 
72 1 1 0.10161 0.511094 2.09218 0 0 0 -0 -0 -1 0 0 0 0 0 0 0.03 300 
48 1 1 0.17066 0.517967 2.10622 0 0 0 -0 -0 -1 0 0 0 0 0 0 0.03 300 
22 1 1 0.254767 0.230824 2.12097 0 0 0 -0 -0 -1 0 0 0 0 0 0 0.03 300 
73 1 1 0.170916 0.265084 2.12451 0 0 0 -0 -0 -1 0 0 0 0 0 0 0.03 300 
171 1 1 0.477654 0.251099 2.12033 0 0 0 -0 -0 -1 0 0 0 0 0 0 0.03 300 
110 1 1 0.10205 0.273683 2.12359 0 0 0 -0 -0 -1 0 0 0 0 0 0 0.03 300 
164 1 1 0.244978 0.28843 2.14115 0 0 0 -0 -0 -1 0 0 0 0 0 0 0.03 300 
107 1 1 0.303471 0.271065 2.1297 0 0 0 -0 -0 -1 0 0 0 0 0 0 0.03 300 
70 1 1 0.142707 0.355749 2.13494 0 0 0 -0 -0 -1 0 0 0 0 0 0 0.03 300 
53 1 1 0.294932 0.364362 2.14 0 0 0 -0 -0 -1 0 0 0 0 0 0 0.03 300 
102 1 1 0.419044 0.351535 2.14593 0 0 0 -0 -0 -1 0 0 0 0 0 0 0.03 300 
176 1 1 0.349719 0.399621 2.14537 0 0 0 -0 -0 -1 0 0 0 0 0 0 0.03 300 
153 1 1 0.496538 0.392613 2.13762 0 0 0 -0 -0 -1 0 0 0 0 0 0 0.03 300 
148 1 1 0.12082 0.460146 2.12005 0 0 0 -0 -0 -1 0 0 0 0 0 0 0.03 300 
6 1 1 0.317689 0.454971 2.1424 0 0 0 -0 -0 -1 0 0 0 0 0 0 0.03 300 
147 1 1 0.248507 0.49546 2.14684 0 0 0 -0 -0 -1 0 0 0 0 0 0 0.03 300 
65 1 1 0.421483 0.499457 2.12254 0 0 0 -0 -0 -1 0 0 0 0 0 0 0.03 300 
150 1 1 0.481625 0.503918 2.1272 0 0 0 -0 -0 -1 0 0 0 0 0 0 0.03 300 
52 1 1 0.358392 0.516981 2.14661 0 0 0 -0 -0 -1 0 0 0 0 0 0 0.03 300 
