ITEM: TIMESTEP
112000
ITEM: NUMBER OF ATOMS
527
ITEM: BOX BOUNDS ff ff ff
0 3.3
-0.3 0.8
-0.5 3
ITEM: ATOMS id type type x y z ix iy iz vx vy vz fx fy fz omegax omegay omegaz radius f_Temp[0] 
343 1 1 0.162697 0.17327 1.5898 0 0 0 0.953708 0.00602313 0.0197536 0.00433065 0.0750673 -2.74844 -23.7381 -85.7025 53.9573 0.03 306.32 
213 1 1 0.26702 0.181235 1.58231 0 0 0 1.28459 -0.0329682 0.251622 0 0 -2.77371 7.45684 -96.7377 32.6179 0.03 330.97 
248 1 1 0.466657 0.18447 1.57863 0 0 0 2.18797 -0.0121376 -0.109918 -0.188012 -7.92532 -7.27135 -5.18358 -47.5824 32.4417 0.03 330.298 
97 1 1 0.539884 0.16373 1.59915 0 0 0 2.25318 -0.43417 0.45182 0.0511005 0.728192 -0.59273 24.4833 -44.8915 37.5604 0.03 350.811 
22 1 1 0.724024 0.185451 1.57724 0 0 0 2.40872 -0.0260772 0.0668616 1.85777 2.5145 -0.0100714 4.28893 -61.14 -16.02 0.03 335.465 
288 1 1 0.780837 0.165867 1.5969 0 0 0 2.31268 0.0966082 -0.146041 -0.583662 2.08581 -0.816567 -6.53057 -36.295 42.735 0.03 329.117 
90 1 1 0.88061 0.189674 1.57686 0 0 0 2.57071 0.0621184 -0.000131279 -0.00142215 0.000239429 0.0392463 -2.07933 -47.8418 30.7538 0.03 354.608 
114 1 1 0.954125 0.18061 1.58239 0 0 0 2.99191 0.228802 -0.249054 0.953894 1.11597 -1.26937 -9.91707 -6.09157 21.5966 0.03 341.1 
221 1 1 1.02792 0.184735 1.57826 0 0 0 2.57965 0.403483 -0.398466 0.482647 0.615325 -1.52033 -3.45385 -25.4027 18.3218 0.03 317.819 
43 1 1 1.21181 0.191306 1.57871 0 0 0 3.01269 0.0588812 0.0934363 0 0 -2.77371 -1.96582 -33.004 -13.0717 0.03 304.979 
40 1 1 1.30738 0.186296 1.57668 0 0 0 2.94791 -0.0160083 -0.0186168 -1.07076 0.241928 2.8738 -1.10872 -33.0331 11.9864 0.03 348.415 
58 1 1 1.36117 0.166086 1.59686 0 0 0 2.81279 0.0259726 -0.0250691 0.123602 1.89542 -0.786147 -1.08141 -22.5103 33.6073 0.03 369.153 
141 1 1 1.44951 0.19357 1.57686 0 0 0 3.22662 0.0439546 -7.69171e-05 -0.00206837 0.000773717 0.0625278 -1.47356 -25.8894 -7.98486 0.03 327.388 
161 1 1 1.51027 0.186498 1.57683 0 0 0 3.26192 0.0341411 -0.00124339 -0.348412 0.0939581 0.669028 -1.25697 -25.4312 15.0793 0.03 359.426 
258 1 1 0.0704093 0.201006 1.57533 0 0 0 0.0239821 -0.636302 -0.114233 22.5864 21.6413 59.7879 19.4406 -132.723 -21.1587 0.03 304.683 
284 1 1 0.165937 0.232503 1.57803 0 0 0 0.766058 0.140564 0.176079 0 0 -2.77371 -4.67711 -108.353 2.71261 0.03 307.006 
193 1 1 0.384622 0.204553 1.57543 0 0 0 1.72693 -0.361541 0.0651377 1.70593 0.445683 27.35 14.2446 -85.7694 9.04668 0.03 305.348 
230 1 1 0.501912 0.232017 1.57637 0 0 0 1.91521 0.115167 -0.24126 13.8134 5.87048 22.4928 -24.1379 -25.57 -1.29839 0.03 315.109 
132 1 1 0.600976 0.221532 1.57584 0 0 0 1.6703 0.0155983 0.204987 -1.88075 5.40289 5.72447 -1.03439 -79.781 -1.28156 0.03 344.865 
164 1 1 0.816675 0.208934 1.57663 0 0 0 2.32772 0.0887547 -0.133662 -3.24115 12.0745 -6.06408 -4.43067 -57.1084 -17.9871 0.03 333.765 
3 1 1 0.987326 0.230254 1.57676 0 0 0 2.87249 0.322583 0.020743 -0.113132 0.159331 0.899233 -10.7764 -37.9008 -5.6325 0.03 366.187 
51 1 1 1.08458 0.206053 1.57685 0 0 0 2.77571 0.139482 -0.00112676 1.53417 -0.224521 0.327314 -3.27757 -31.4753 3.23607 0.03 339.954 
171 1 1 1.14637 0.205649 1.57631 0 0 0 2.5887 0.339391 -0.195357 -2.34702 7.19988 1.76777 18.9319 -1.16543 -7.19264 0.03 310.475 
95 1 1 1.26354 0.228762 1.57686 0 0 0 3.01948 0.0847417 0.00209687 -0.00446813 0.000225859 -0.112485 -2.83586 -32.8173 -3.52119 0.03 330.516 
91 1 1 1.35466 0.222252 1.57697 0 0 0 2.8686 0.133483 0.0607707 5.50422 3.83374 -0.712321 -5.02507 -37.6059 -6.65219 0.03 351.074 
15 1 1 1.54897 0.233309 1.57683 0 0 0 3.07648 0.31858 0.000611271 1.57007 0.416808 0.475197 -15.7038 -11.9557 -0.596559 0.03 364.35 
165 1 1 1.59969 0.199013 1.5767 0 0 0 3.04363 0.186155 0.0373958 -0.11399 0.351835 1.29867 -6.43178 -32.1781 22.8228 0.03 343.061 
185 1 1 0.294125 0.249713 1.57368 0 0 0 1.89697 -0.378536 -0.275223 28.3242 -10.7107 66.3308 16.1534 -85.6243 -23.6027 0.03 315.795 
180 1 1 0.556066 0.262051 1.57813 0 0 0 2.37912 0.070801 0.254577 0 0 -2.77371 -2.35431 -54.2616 -9.26528 0.03 317.941 
110 1 1 0.764189 0.250783 1.57686 0 0 0 2.3624 0.0977414 -7.26671e-05 8.14729e-05 -4.50183e-06 -0.0450395 -3.27115 -54.806 10.297 0.03 349.191 
107 1 1 0.856655 0.258611 1.57686 0 0 0 2.26379 -0.0327326 5.91068e-05 -0.000213231 -4.0216e-06 0.00180223 1.09557 -58.1112 -1.88558 0.03 326.304 
68 1 1 0.928731 0.255391 1.57659 0 0 0 2.82047 -0.43574 0.284493 3.47894 0.0383528 -9.73201 14.4646 -20.924 0.241255 0.03 303.785 
5 1 1 1.05077 0.258396 1.57685 0 0 0 2.37953 0.0607912 0.00175918 -0.00648743 0.00166155 0.120439 -2.03565 -54.2546 -13.6749 0.03 351.43 
12 1 1 1.14662 0.269297 1.57687 0 0 0 2.69642 0.322337 -0.00195796 0.00671319 -0.00107643 -0.0410593 -10.7864 -43.6201 -12.0767 0.03 350.693 
146 1 1 1.49056 0.248094 1.57697 0 0 0 2.98854 0.0337295 -0.00417243 0.68087 0.0861585 -1.40111 -5.84936 3.52436 -1.53681 0.03 312.515 
120 1 1 1.64839 0.259688 1.57686 0 0 0 2.55974 0.0331837 0.000515379 -0.00165146 3.84452e-05 -0.0184405 -1.11067 -48.2061 -20.38 0.03 384.928 
197 1 1 0.216272 0.302615 1.5773 0 0 0 0.91992 0.127085 -0.302667 0 0 -2.77371 4.81653 -105.265 6.24905 0.03 303.856 
206 1 1 0.340773 0.291667 1.57331 0 0 0 1.99895 0.10144 -0.164057 5.90106 6.63219 63.7687 8.09248 -85.8228 0.314009 0.03 325.397 
351 1 1 0.412476 0.284325 1.57639 0 0 0 1.44126 0.193301 0.309059 -2.42315 -0.0529775 -6.13644 -6.63017 -87.4391 10.7308 0.03 318.159 
70 1 1 0.809751 0.296187 1.57664 0 0 0 2.42271 0.0549714 -0.0429584 -0.379719 0.690941 3.06227 -1.53889 -52.9231 -1.36362 0.03 341.061 
127 1 1 1.1995 0.304142 1.57697 0 0 0 2.88259 0.260848 -0.02373 0.0202324 -0.00454988 -0.748992 -8.70694 -37.3003 2.92766 0.03 324.552 
19 1 1 1.31579 0.278491 1.57686 0 0 0 2.84344 0.0370078 0.000247544 0.0120087 0.00279082 0.0900466 -1.24923 -38.7038 -6.7997 0.03 324.315 
13 1 1 1.42307 0.282693 1.57684 0 0 0 2.87261 -0.0566593 -0.0244058 4.64975 -1.06649 2.8712 0.544445 -30.507 4.613 0.03 390.591 
64 1 1 1.52924 0.295153 1.57674 0 0 0 2.76235 0.254589 0.0129679 -0.39842 0.380517 1.75938 -8.89218 -41.9613 11.0602 0.03 381.26 
78 1 1 1.58826 0.278932 1.57649 0 0 0 2.95525 0.565732 -0.234385 14.7698 4.48158 20.9586 -20.2792 -32.2878 7.50749 0.03 350.596 
257 1 1 0.0557974 0.339604 1.57657 0 0 0 0.418658 0.207377 0.0190874 2.16584 -0.359161 5.21322 -7.2474 -121.737 2.14718 0.03 316.772 
324 1 1 0.114728 0.324562 1.57554 0 0 0 0.783336 -0.265882 0.379696 8.37166 -2.60995 14.7644 27.6937 -50.615 -10.6442 0.03 302.408 
339 1 1 0.50144 0.319817 1.57545 0 0 0 2.06752 -0.0848362 0.0629736 -3.26071 1.35651 19.208 2.2213 -69.1174 0.650464 0.03 339.74 
209 1 1 0.75067 0.309594 1.57686 0 0 0 2.49519 0.0124177 8.90275e-05 -7.58016e-05 1.74267e-06 0.0645035 -0.415664 -50.3712 -3.6237 0.03 319.787 
313 1 1 0.893742 0.3112 1.57683 0 0 0 2.28019 -0.0763638 -0.00188733 0.010276 -0.00100372 0.671035 2.55575 -57.6151 -14.5579 0.03 314.322 
166 1 1 0.995051 0.311636 1.57686 0 0 0 2.28814 -0.271309 3.31686e-06 -1.22321e-05 -1.93863e-06 -1.11837e-05 9.08069 -57.2959 17.9709 0.03 350.829 
175 1 1 1.14677 0.339792 1.57678 0 0 0 2.92359 0.338208 -0.016727 -0.56651 -0.6401 0.50371 -11.5621 -36.1066 12.7239 0.03 332.32 
225 1 1 1.26041 0.324807 1.57692 0 0 0 3.06641 0.097462 -0.0207145 -0.383232 -0.0408077 -0.839051 -6.89888 4.69634 -6.68971 0.03 305.898 
35 1 1 1.31863 0.338745 1.57697 0 0 0 3.02172 0.110651 -0.144769 -4.92826 2.50385 -0.35311 3.11575 -16.6633 3.33777 0.03 340.626 
11 1 1 1.3732 0.315708 1.57709 0 0 0 2.99244 0.0109356 0.0625209 3.68993 -4.71653 -2.85069 -2.27571 -22.0473 -4.26454 0.03 368.226 
123 1 1 1.47304 0.316001 1.57687 0 0 0 2.73704 0.209079 -0.0173073 1.64087 -0.0496512 0.627288 -7.19134 -42.0415 -5.21916 0.03 344.715 
7 1 1 1.62961 0.322339 1.57668 0 0 0 3.06182 0.352061 0.00814886 0.911497 1.63151 1.00854 -12.1462 -31.2801 -13.2764 0.03 317.166 
298 1 1 0.309113 0.363747 1.57757 0 0 0 1.66085 -0.116365 0.133756 0 0 -2.77371 4.50291 -78.6979 -31.1838 0.03 331.908 
331 1 1 0.369617 0.346326 1.57553 0 0 0 1.50408 0.305558 -0.0880681 26.2825 -4.04969 49.2103 -6.96649 -12.8626 12.7195 0.03 301.824 
300 1 1 0.474624 0.374156 1.57715 0 0 0 1.95809 0.0175085 -0.0252296 0 0 -2.77371 0.621858 -66.5898 9.22193 0.03 334.297 
31 1 1 0.556234 0.370885 1.57764 0 0 0 2.10014 0.125516 -0.0497002 0 0 -2.77371 -4.16989 -63.5633 -1.12929 0.03 332.481 
340 1 1 0.659988 0.347085 1.57658 0 0 0 2.30809 0.109865 0.143238 -0.727183 2.27716 -5.33752 -3.63933 -57.0267 8.34656 0.03 312.394 
233 1 1 0.902708 0.371767 1.57697 0 0 0 2.66676 -0.0773586 -0.0136024 0.03048 -0.0340863 -1.08657 2.57346 -44.4948 0.384231 0.03 306.858 
38 1 1 1.05589 0.374809 1.57674 0 0 0 2.32334 0.0938634 0.00957231 -0.126849 0.0305822 1.2654 -2.37801 -56.4931 -0.975432 0.03 347.689 
94 1 1 1.4221 0.349683 1.57704 0 0 0 2.98579 0.0114545 0.0235717 4.53835 2.89916 -0.665966 -0.569715 -33.6467 -0.229114 0.03 357.913 
24 1 1 1.55734 0.364532 1.57659 0 0 0 3.43408 0.102297 0.206926 -1.81394 -0.148571 -5.48116 -3.36171 -20.0025 1.69716 0.03 306.847 
316 1 1 0.191346 0.381143 1.57611 0 0 0 1.40027 0.282943 0.17138 3.36732 1.28049 4.95276 -10.1086 -86.6791 -17.6112 0.03 315.891 
277 1 1 0.385513 0.403828 1.57604 0 0 0 2.26002 0.115735 0.359478 -0.492632 2.58987 0.571227 -6.30012 -59.1906 -8.0957 0.03 306.869 
53 1 1 0.756904 0.382334 1.57692 0 0 0 2.14936 0.346736 -0.050303 0.09227 -0.0128736 1.18931 -11.5788 -61.7997 0.782016 0.03 324.444 
128 1 1 0.970052 0.404174 1.57686 0 0 0 2.57586 0.0797758 2.46728e-05 -9.28701e-05 5.2074e-06 -0.00536055 -2.67007 -47.6657 -6.99507 0.03 324.256 
187 1 1 1.18153 0.388246 1.579 0 0 0 2.80464 0.414617 -0.123342 1.90895 2.6639 -0.979486 -15.0908 -39.0817 -10.8491 0.03 303.792 
291 1 1 1.27734 0.383754 1.57687 0 0 0 2.90249 -0.0295843 -0.00340807 -0.0294256 -0.0511379 0.0278926 1.01333 -36.7698 -0.993786 0.03 323.918 
126 1 1 1.4975 0.385566 1.57686 0 0 0 3.14987 0.282572 -0.000606774 0.00136032 -0.000489902 0.0343173 -9.45779 -28.4545 -12.4234 0.03 342.736 
289 1 1 0.205088 0.443951 1.57708 0 0 0 1.121 0.630504 0.136853 3.70126 0.0179037 -6.69881 -21.0564 -93.8658 -5.83176 0.03 325.716 
285 1 1 0.264684 0.440892 1.57697 0 0 0 1.24128 0.31794 0.0681825 -4.40605 -2.95837 -3.05688 44.4891 7.0254 -16.0456 0.03 304.334 
344 1 1 0.32002 0.422909 1.59136 0 0 0 1.46556 0.397097 -0.487449 -0.766602 0.0976937 -2.63128 -49.1788 -9.36239 9.24997 0.03 300.304 
148 1 1 0.591195 0.436388 1.57941 0 0 0 2.09509 0.279012 -0.627868 -30.3243 6.26977 -42.3855 9.35836 -34.8213 -14.1523 0.03 336.367 
77 1 1 1.06779 0.43335 1.57697 0 0 0 2.12902 0.176566 0.0158044 0.33444 1.21507 -1.73003 -13.6263 -60.8076 6.2119 0.03 354.857 
135 1 1 1.29152 0.442268 1.57684 0 0 0 2.89337 0.033561 -0.0192264 0.127764 0.436079 1.35962 -0.192675 -37.1551 1.21257 0.03 367.913 
101 1 1 1.41988 0.412439 1.57671 0 0 0 2.89721 0.0258796 0.0230871 -0.474027 -2.73775 -0.0810813 -1.45842 -36.9702 -2.93174 0.03 371.239 
488 1 1 0.339114 0.52293 2.45217 0 0 0 -0 -0 -1 0 0 0 0 0 0 0.03 300 
223 1 1 0.118776 0.458855 1.57827 0 0 0 0.711827 -0.0207537 0.267443 0 0 -2.77371 0.873663 -110.655 0.155643 0.03 309.776 
245 1 1 0.428863 0.467665 1.57705 0 0 0 1.95504 0.157484 -0.1941 -0.699777 0.205182 1.99571 -5.06412 -70.7082 -3.39855 0.03 315.651 
270 1 1 0.487093 0.444583 1.5773 0 0 0 2.00174 -0.0915186 -0.126341 0 0 -2.77371 -3.22834 -62.1601 6.85993 0.03 316.044 
352 1 1 0.654736 0.462534 1.57881 0 0 0 2.62702 0.0829054 0.274898 0 0 -2.77371 -2.77733 -45.9535 -11.8206 0.03 304.869 
84 1 1 0.722801 0.470846 1.57677 0 0 0 2.23194 0.126223 -0.0149872 0.104796 0.00353865 2.46212 -4.25493 -59.2628 5.3805 0.03 337.452 
176 1 1 0.872928 0.462232 1.57686 0 0 0 2.34785 0.291768 -7.22766e-05 0.000236473 -4.30832e-05 -0.00490173 -9.76533 -55.2967 3.7442 0.03 332.176 
25 1 1 0.978486 0.46909 1.57724 0 0 0 2.46905 -0.0153802 0.0171084 -1.03061 -0.365838 -3.0098 -1.50702 -44.1202 -2.05553 0.03 333.013 
169 1 1 1.3492 0.47363 1.5767 0 0 0 2.76157 -0.228605 -0.0488647 0.163537 -0.0362317 5.74311 7.58524 -41.5143 5.22091 0.03 354.186 
134 1 1 1.42681 0.471439 1.57643 0 0 0 2.70084 0.0377673 -0.0315729 -0.627755 1.66107 3.84434 -9.3495 -40.059 9.61763 0.03 334.977 
37 1 1 1.488 0.478343 1.57684 0 0 0 2.80619 0.0676184 0.00746193 -0.0184961 -0.000524515 0.0169986 -2.26329 -39.9804 1.75843 0.03 344.395 
69 1 1 1.54926 0.465989 1.57686 0 0 0 2.81931 -0.0118195 0.00083074 -0.00216894 0.000109848 -0.0801914 0.395491 -39.5152 -6.4876 0.03 382.512 
111 1 1 1.61822 0.447134 1.57687 0 0 0 2.84325 -0.103236 -0.00286959 0.00683901 0.000681085 -0.0547415 3.45417 -38.7043 2.9999 0.03 353.599 
255 1 1 0.230741 0.501453 1.58123 0 0 0 1.21451 0.787619 0.287863 0 0 -2.77371 -26.6077 -93.4221 -18.8325 0.03 323.125 
308 1 1 0.371418 0.504689 1.57695 0 0 0 1.76219 0.317631 -0.00895342 0.810202 0.404114 -0.962926 -17.6854 -60.6154 1.2614 0.03 319.659 
279 1 1 0.482194 0.513117 1.57678 0 0 0 1.74548 0.0764405 -0.0843113 -1.20338 -2.04645 2.54171 -16.9225 -65.7904 10.4251 0.03 330.072 
178 1 1 0.580354 0.500354 1.57553 0 0 0 2.48896 0.480935 -0.248852 49.231 -32.0174 60.7761 -10.1389 -25.9575 -1.9613 0.03 301.932 
116 1 1 0.798132 0.51211 1.57686 0 0 0 2.28112 0.259197 1.78087e-05 -2.55278e-05 3.84953e-06 0.0102949 -8.67546 -57.5319 -6.98913 0.03 355.426 
6 1 1 0.925452 0.496699 1.57664 0 0 0 2.48937 0.184933 0.0476246 2.49644 -1.2304 1.80421 -5.74069 -49.831 2.35209 0.03 332.695 
160 1 1 1.0235 0.508531 1.5766 0 0 0 2.53335 -0.0868625 0.0538621 3.95752 -1.26521 0.554822 3.30878 -49.0126 -4.98438 0.03 360.94 
4 1 1 1.08851 0.489475 1.57691 0 0 0 2.19421 0.201707 -0.0289623 0.90736 1.32175 0.39936 -14.8333 -54.7791 -8.05212 0.03 344.207 
117 1 1 1.22982 0.497112 1.57685 0 0 0 2.57605 -0.665967 0.0023729 -0.00727004 -0.00336338 0.0377715 22.2955 -47.6707 20.3761 0.03 353.917 
136 1 1 1.29621 0.502145 1.57691 0 0 0 2.93819 0.0359979 0.0121182 0.739366 -0.020825 -1.29439 0.149086 12.5251 -0.285241 0.03 338.688 
104 1 1 1.59346 0.509314 1.5769 0 0 0 2.87378 0.0156869 0.00713601 -0.0175899 0.00350784 -0.983031 -0.527596 -37.6564 -1.20053 0.03 361.052 
365 1 1 0.173276 0.491192 2.4516 0 0 0 -0 -0 -1 0 0 0 0 0 0 0.03 300 
182 1 1 0.271478 0.546431 1.57483 0 0 0 1.62005 0.471044 0.147144 2.55007 6.02877 9.69663 -17.1535 -84.8024 7.47437 0.03 306.197 
272 1 1 0.424359 0.536264 1.57694 0 0 0 1.77609 0.642238 -0.00989158 0.920693 -0.235046 -0.873268 -5.95046 -13.5559 1.34204 0.03 323.485 
21 1 1 0.88823 0.547532 1.5836 0 0 0 2.34612 -0.116476 0.375762 -12.2305 -0.204882 -9.01486 10.1551 -47.742 -9.08579 0.03 343.455 
34 1 1 1.13659 0.525455 1.57716 0 0 0 2.74922 -0.439484 -0.162551 0.525844 -0.628715 -2.3739 -4.0949 -4.41372 7.66418 0.03 337.183 
16 1 1 1.32948 0.552392 1.57674 0 0 0 2.82091 0.136496 0.0684024 -0.150215 -0.0470173 -1.2472 -4.33327 -40.6519 2.33199 0.03 365.32 
61 1 1 1.44068 0.528853 1.57682 0 0 0 2.7197 0.0680286 0.0261671 0.110633 5.18093 1.17671 -2.79165 -42.6704 -10.5101 0.03 363.038 
152 1 1 1.52855 0.524484 1.57689 0 0 0 2.90221 0.054969 -0.0146986 0.0343949 -0.00336539 0.130303 -1.82855 -36.7089 -11.353 0.03 375.409 
238 1 1 0.175259 0.554192 1.57799 0 0 0 1.10614 -0.0123255 -0.263894 1.30768 -2.90801 -4.03271 7.44238 -49.5 6.75949 0.03 303.785 
304 1 1 0.505204 0.567726 1.57704 0 0 0 2.02602 0.0758373 0.0433076 4.81605 4.57801 0.376743 -7.35562 -28.1384 -22.3583 0.03 347.833 
249 1 1 0.564357 0.556752 1.57669 0 0 0 1.89259 0.246365 -0.098182 -6.31416 22.9643 -4.91444 23.015 -39.2873 18.1516 0.03 336.334 
226 1 1 0.713113 0.559054 1.57691 0 0 0 2.38723 0.284293 -0.00998203 1.91442 0.341317 -0.665234 -9.64753 -52.9621 -7.2514 0.03 339.657 
119 1 1 0.772498 0.566803 1.57637 0 0 0 2.51915 -0.271253 -0.0237275 1.97273 0.291636 11.0037 9.67359 -45.1294 -17.5069 0.03 358.44 
48 1 1 0.831943 0.56428 1.57667 0 0 0 2.54106 -0.0156652 0.0435559 -8.37872 2.49616 -6.50132 9.56839 -7.4844 10.9751 0.03 338.583 
227 1 1 1.03113 0.568425 1.57791 0 0 0 2.77461 -0.00410991 0.0321672 0 0 -2.77371 -1.31772 -47.79 -10.0315 0.03 336.49 
147 1 1 1.09259 0.565833 1.57669 0 0 0 2.93775 -0.150085 0.0787783 0.256283 -0.116199 -1.01332 6.94483 -33.949 -28.2722 0.03 342.74 
17 1 1 1.20398 0.558296 1.57674 0 0 0 2.89746 -0.13937 0.0487683 1.33812 -0.104678 -0.0892867 5.49515 -26.5117 -12.5276 0.03 339.508 
75 1 1 1.26551 0.562359 1.57691 0 0 0 3.13853 -0.456834 0.0629335 -0.326464 -0.0488456 -3.43391 15.4712 -30.0544 -28.5567 0.03 328.908 
118 1 1 1.3871 0.568387 1.57751 0 0 0 2.92144 0.050422 0.0688329 0.553505 -1.38546 -1.06029 -3.65233 -38.9669 -6.56997 0.03 362.189 
105 1 1 1.63338 0.564882 1.57686 0 0 0 2.77125 -0.0232298 -0.000377666 0.0012997 2.15966e-05 0.0861387 0.777993 -41.1312 -12.4316 0.03 349.841 
186 1 1 0.36495 0.146735 1.62036 0 0 0 2.11433 -0.139609 0.321052 0 0 -2.77371 8.86346 -53.92 46.3866 0.03 303.558 
137 1 1 0.719734 0.1352 1.62768 0 0 0 2.08167 0.249391 -0.256507 0.116464 1.02483 0.287464 -12.0674 -32.9998 57.8447 0.03 337.918 
76 1 1 1.01789 0.141687 1.62127 0 0 0 2.63463 0.328796 -0.340757 1.08825 1.43385 -1.08887 -12.5412 -12.3426 24.055 0.03 327.256 
281 1 1 1.08073 0.163116 1.62191 0 0 0 2.72762 0.258606 -0.321985 0 0 -2.77371 22.5603 -27.201 11.036 0.03 313.57 
115 1 1 1.16436 0.158044 1.60527 0 0 0 2.44598 0.297681 -0.169815 14.3568 -14.627 20.9264 -8.37855 -47.3174 27.4881 0.03 337.639 
49 1 1 1.43461 0.149253 1.6148 0 0 0 3.04409 0.105386 -0.0915385 0 0 -2.77371 -1.5129 -13.566 31.5929 0.03 313.683 
194 1 1 0.314576 0.181431 1.61989 0 0 0 1.46401 -0.6686 0.452325 0 0 -2.77371 -8.76043 62.0741 -20.2859 0.03 301.014 
307 1 1 0.601412 0.166133 1.59674 0 0 0 1.55873 -0.236621 -0.53025 13.7796 6.14708 30.5015 -2.77327 -49.4201 52.6747 0.03 304.456 
252 1 1 0.672589 0.174993 1.61799 0 0 0 1.21899 -0.390292 -0.728913 0 0 -2.77371 -1.83828 3.04671 -16.0242 0.03 300.661 
315 1 1 0.206854 0.226556 1.6237 0 0 0 0.334507 -0.0174823 0.21247 43.2087 -12.0804 -175.065 2.2309 27.8435 -13.2432 0.03 300.262 
349 1 1 0.419971 0.218881 1.62062 0 0 0 0.889972 0.0189385 0.568124 3.24443 1.71557 12.2815 -9.73479 34.8358 9.6955 0.03 300.372 
202 1 1 0.105828 0.253269 1.59547 0 0 0 -0.330523 -0.407337 -0.962241 0 0 -2.77371 -53.5817 29.9455 -7.95475 0.03 300.024 
189 1 1 0.331946 0.245529 1.61606 0 0 0 1.49243 -0.413184 -0.0972073 24.5068 -10.0445 77.3507 -15.8026 44.6701 23.4226 0.03 300.113 
44 1 1 1.3828 0.260693 1.61545 0 0 0 2.73797 -0.0158178 -0.139084 -0.0220666 -0.0402519 -2.70586 1.16524 42.0455 2.26911 0.03 306.028 
253 1 1 0.254913 0.273781 1.61756 0 0 0 0.0521272 -0.349227 -1.69642 0 0 -2.77371 10.6685 -2.07333 -10.0972 0.03 300.03 
347 1 1 0.412998 0.287539 1.63601 0 0 0 -0.0175704 0.226375 0.444337 -27.5998 -9.3663 -57.7774 -0.89731 43.184 -11.7177 0.03 301.316 
240 1 1 0.492872 0.273169 1.61729 0 0 0 1.01928 0.0728824 -0.0741665 4.0462 12.7316 5.4675 26.824 6.23589 9.67232 0.03 300.514 
282 1 1 0.582857 0.292459 1.62435 0 0 0 1.88827 0.591934 0.675922 0 0 -2.77371 -25.8444 18.9757 -3.97975 0.03 300.199 
338 1 1 0.675549 0.280172 1.59979 0 0 0 1.40877 -0.26321 -0.865098 0 0 -2.77371 -8.72207 -19.1931 -9.26053 0.03 300.086 
211 1 1 0.350429 0.312459 1.62449 0 0 0 0.167097 0.611062 0.135559 -3.17048 9.89182 80.8932 -30.7469 6.11284 -23.311 0.03 300.278 
212 1 1 0.530671 0.324245 1.62629 0 0 0 1.20504 -0.435974 0.53778 6.90195 0.524861 19.5405 16.8556 38.4836 7.98573 0.03 301.131 
71 1 1 0.815723 0.332474 1.62364 0 0 0 2.04546 0.197518 -0.121072 0.620703 0.716696 0.869163 1.22288 46.155 12.683 0.03 303.419 
513 1 1 0.257051 0.497454 2.44406 0 0 0 -0 -0 -1 0 0 0 0 0 0 0.03 300 
73 1 1 0.259095 0.342176 1.60597 0 0 0 0.117633 0.267227 -1.24306 0 0 -2.77371 35.4457 32.99 -21.9457 0.03 301.697 
234 1 1 0.431557 0.34468 1.60787 0 0 0 0.195025 0.284574 -1.88845 0 0 -2.77371 -2.9296 2.02326 -1.35653 0.03 300.333 
216 1 1 0.66562 0.369338 1.63201 0 0 0 1.71089 0.345296 -0.25483 0.666361 -2.72161 0.713747 13.7884 41.8117 -2.55016 0.03 300.202 
204 1 1 0.237286 0.398545 1.60936 0 0 0 1.36734 0.212617 0.497685 7.10219 3.30992 0.509049 -22.0919 52.0597 -13.715 0.03 300.725 
250 1 1 0.38344 0.378198 1.62962 0 0 0 0.811261 -0.0106314 0.518109 -0.491752 -0.879918 -5.06418 8.45303 5.27595 7.30494 0.03 300.069 
334 1 1 0.57241 0.393847 1.63274 0 0 0 1.06398 -0.289157 0.106643 0 0 -2.77371 28.3114 17.0977 -0.819761 0.03 300.576 
153 1 1 1.43277 0.385944 1.62847 0 0 0 2.87022 -0.0511928 -0.00077929 0.447852 -3.4442 0.446932 6.22741 33.2497 8.00338 0.03 305.755 
309 1 1 0.0931225 0.409066 1.61557 0 0 0 -0.744698 -0.28709 -0.470945 0 0 -2.77371 9.83465 24.5809 15.3526 0.03 300.423 
346 1 1 0.446525 0.414213 1.62203 0 0 0 0.612495 0.178418 -0.18286 0 0 -2.77371 -15.0818 2.66968 -6.19525 0.03 301.421 
274 1 1 0.625379 0.422921 1.62393 0 0 0 1.63282 -0.433888 -0.328542 29.812 -11.5101 34.4623 19.9015 25.3735 -10.5635 0.03 300.108 
254 1 1 0.737893 0.429435 1.61924 0 0 0 2.27512 -0.101119 -0.221798 0 0 -2.77371 10.989 38.7951 27.8023 0.03 301.087 
261 1 1 0.129849 0.474231 1.63719 0 0 0 -0.407999 0.0420797 0.180858 1.84595 -35.5404 -231.909 -14.233 39.2047 4.15814 0.03 300.312 
210 1 1 0.191186 0.481756 1.64003 0 0 0 -0.608037 0.401793 0.495796 0 0 -2.77371 40.6264 37.6051 -3.158 0.03 300.334 
263 1 1 0.503505 0.486234 1.62836 0 0 0 1.7445 0.293803 0.302721 0 0 -2.77371 7.104 54.3403 5.3182 0.03 301.986 
262 1 1 0.61756 0.481969 1.62492 0 0 0 1.66341 -0.443381 -0.711322 0.512315 5.24036 -0.397921 14.6676 -19.6972 -15.5952 0.03 300.111 
296 1 1 1.04082 0.477921 1.62479 0 0 0 2.10496 -0.367602 0.0495923 1.11768 -0.943544 -0.424172 6.82606 32.5623 1.82318 0.03 301.986 
20 1 1 1.46306 0.498788 1.62786 0 0 0 2.36655 0.062748 -0.261253 0.100121 0.146193 -2.76804 -0.127405 28.0267 9.19075 0.03 302.935 
208 1 1 0.313735 0.539923 1.61416 0 0 0 1.1654 0.600074 0.697874 15.9816 -5.0262 40.3718 14.4419 63.9751 -4.98866 0.03 300.144 
28 1 1 0.611143 0.542386 1.61266 0 0 0 2.28383 0.218947 -0.0268686 0.0978986 0.0981147 -2.87529 16.3778 20.1768 -13.0259 0.03 302.965 
265 1 1 0.709215 0.518468 1.62358 0 0 0 1.60665 -0.155051 -0.392697 -8.71264 11.9219 -16.1171 -0.590537 3.07666 -9.94163 0.03 301.481 
102 1 1 0.933626 0.541855 1.62004 0 0 0 2.21063 -0.0792831 0.455697 9.81672 3.30282 22.0953 -6.31128 33.806 9.49876 0.03 301.874 
106 1 1 0.992639 0.536773 1.61916 0 0 0 1.98225 0.0689396 -0.451566 14.228 -5.46387 -10.5358 4.53125 6.67822 -14.9095 0.03 303.44 
150 1 1 1.08194 0.52809 1.62733 0 0 0 2.12543 -0.424166 -0.414795 0 0 -2.77371 -6.61328 17.9994 24.1996 0.03 301.757 
98 1 1 1.36694 0.520469 1.61731 0 0 0 2.60365 0.0683446 -0.136069 0 0 -2.77371 -11.883 44.632 8.16315 0.03 302.554 
290 1 1 0.239997 0.583498 1.60834 0 0 0 -0.24645 -0.0791452 -0.906525 -8.14075 3.2783 8.60658 51.2532 -8.96347 2.91006 0.03 300.079 
271 1 1 0.386844 0.563324 1.63899 0 0 0 0.89446 -0.441353 0.828448 0 0 -2.77371 -17.2864 86.8188 37.9992 0.03 300.959 
243 1 1 0.784232 0.583769 1.63296 0 0 0 1.66945 0.147143 -0.14908 0 0 -2.77371 -27.951 9.94893 -33.3332 0.03 301.082 
2 1 1 1.47405 0.556724 1.61697 0 0 0 2.8668 0.0332598 -0.00139384 4.03972 1.78145 2.42951 1.44441 45.3511 4.52705 0.03 318.844 
303 1 1 0.177124 0.603099 1.61172 0 0 0 1.01824 -0.272345 0.318945 -1.74637 3.79348 -6.21819 -0.723036 -79.3168 -63.6623 0.03 322.802 
237 1 1 0.346797 0.599179 1.60951 0 0 0 1.02812 0.103591 0.43886 0 0 -2.77371 -13.8028 -69.5206 -72.6863 0.03 310.491 
55 1 1 0.548148 0.600571 1.61482 0 0 0 2.24817 -0.0454018 0.169548 0 0 -2.77371 -11.0734 -14.434 -69.8457 0.03 310.373 
276 1 1 0.616659 0.602043 1.62035 0 0 0 1.62338 -0.134739 -0.27514 0 0 -2.77371 -4.76291 -64.5313 -49.4407 0.03 305.621 
154 1 1 0.844009 0.608092 1.61727 0 0 0 2.08217 -0.459018 -0.459471 0.00141931 -1.00388 -0.973268 21.7223 -35.8866 -54.8157 0.03 328.908 
57 1 1 0.916163 0.598253 1.60767 0 0 0 2.46587 0.125249 0.189987 0.527797 0.857024 -3.45181 -8.95215 -22.7249 -41.6258 0.03 338.163 
89 1 1 0.977075 0.593162 1.60191 0 0 0 2.35018 0.0686699 -0.494157 36.2761 -16.1101 22.9292 6.99394 -28.552 -26.6346 0.03 330.439 
138 1 1 1.10532 0.617518 1.62662 0 0 0 2.74129 -0.443577 -0.469162 -1.28727 1.12397 0.873726 4.49912 -12.0934 -11.1041 0.03 317.181 
65 1 1 1.15286 0.591903 1.60115 0 0 0 2.75608 -0.40907 -0.382435 2.99858 -3.22589 -2.74066 18.7445 -28.2233 -30.1838 0.03 318.791 
27 1 1 1.21332 0.590056 1.63242 0 0 0 2.56638 -0.253745 0.361285 0 0 -2.77371 -24.6587 -28.4302 -20.1132 0.03 333.774 
99 1 1 1.29522 0.604071 1.62149 0 0 0 2.10215 0.0813948 -0.20646 0 0 -2.77371 -19.5823 -41.1356 -42.3874 0.03 342.722 
79 1 1 1.43218 0.597738 1.60645 0 0 0 2.85216 0.118974 0.152071 0.489862 -1.91538 1.61484 -6.16857 -29.0199 -27.3505 0.03 338.136 
156 1 1 1.52027 0.589724 1.59862 0 0 0 2.94933 -0.180444 -0.162378 0.796993 -0.619812 1.27313 8.24892 -34.3515 -15.7218 0.03 356.881 
332 1 1 0.219527 0.111037 1.65188 0 0 0 0.313279 -0.00900492 0.0145813 0.987068 1.24872 -1.10957 19.8968 -45.0151 37.5504 0.03 310.002 
283 1 1 0.310282 0.0930698 1.66965 0 0 0 0.864052 -0.179485 0.124719 3.32834 4.56398 2.09612 13.3469 -3.97357 11.6372 0.03 303.835 
62 1 1 0.522153 0.120548 1.64249 0 0 0 1.38341 -0.425038 0.395908 -0.103559 0.647365 -0.848348 21.8791 -72.2192 51.6945 0.03 316.153 
74 1 1 0.803628 0.116143 1.64701 0 0 0 2.31607 0.112385 -0.0543946 1.17373 -1.31035 -3.38825 8.60682 -22.0313 22.7345 0.03 309.098 
333 1 1 0.860584 0.103928 1.66131 0 0 0 2.39939 0.131773 -0.132092 -0.729499 0.444749 -2.70419 -11.1935 -13.2569 22.3643 0.03 312.045 
196 1 1 0.590004 0.151369 1.65394 0 0 0 0.356957 -0.0156611 -0.685545 0 0 -2.77371 8.01973 -7.61283 -23.9448 0.03 300.326 
139 1 1 0.910255 0.129392 1.63856 0 0 0 2.34214 0.316687 -0.175187 0 0 -2.77371 -8.6322 -43.2141 27.7517 0.03 339.133 
353 1 1 0.268482 0.212651 1.65221 0 0 0 0.189162 -0.439299 -0.47032 0 0 -2.77371 -19.037 -69.0693 29.1667 0.03 300.006 
231 1 1 0.499891 0.215849 1.63739 0 0 0 1.17317 0.140649 0.0717638 0 0 -2.77371 -13.4588 21.1892 -13.881 0.03 301.658 
183 1 1 0.628911 0.21403 1.64573 0 0 0 1.29218 -0.23729 -0.0195366 0 0 -2.77371 -38.9012 59.4425 28.5604 0.03 300.739 
319 1 1 0.813203 0.223866 1.6337 0 0 0 1.79849 -0.0431497 -0.221846 4.27273 -2.14216 15.8854 14.8522 36.0647 -13.1721 0.03 300.84 
330 1 1 0.569469 0.234904 1.64234 0 0 0 1.47916 -0.130393 -0.565634 0 0 -2.77371 4.98355 -4.73283 11.338 0.03 300.019 
322 1 1 0.965262 0.242733 1.63456 0 0 0 2.20267 0.109289 -0.297657 0 0 -2.77371 -28.6268 32.745 -20.5196 0.03 301.542 
181 1 1 0.848382 0.303567 1.66534 0 0 0 2.14345 -0.0141148 -0.20251 0 0 -2.77371 -16.6147 8.67511 12.2755 0.03 300.768 
184 1 1 0.497157 0.366236 1.65526 0 0 0 0.81915 -0.0860683 -0.565222 0 0 -2.77371 -42.3266 -14.8933 7.93808 0.03 300.007 
242 1 1 0.583889 0.338951 1.66453 0 0 0 1.7359 -0.708375 -0.142699 0 0 -2.77371 -12.2226 14.2667 1.0413 0.03 300.011 
191 1 1 0.125961 0.372579 1.65143 0 0 0 0.152606 -0.324401 -1.63076 15.463 23.8267 -95.8562 2.46786 -8.36766 -0.718426 0.03 300.004 
259 1 1 0.299804 0.383866 1.64017 0 0 0 0.457072 -0.0264441 -2.00303 0 0 -2.77371 13.1778 -12.0225 -0.972628 0.03 300.017 
306 1 1 0.2102 0.416156 1.65996 0 0 0 -0.295059 -0.994263 -1.00671 0 0 -2.77371 15.2538 23.885 20.4343 0.03 300.002 
318 1 1 0.389274 0.427399 1.66281 0 0 0 0.62359 0.422267 0.0995726 0.0738073 0.248015 -2.33305 9.85738 -31.6727 -23.4447 0.03 300.048 
295 1 1 0.524183 0.42938 1.64831 0 0 0 1.7879 -0.44851 -0.541775 0 0 -2.77371 21.5406 -27.2295 -24.6935 0.03 300.046 
269 1 1 0.290939 0.470082 1.63049 0 0 0 -0.311247 -0.00426506 -1.5409 0 0 -2.77371 18.2182 -4.68094 -5.11616 0.03 300 
190 1 1 0.404047 0.480882 1.62962 0 0 0 0.369148 0.219411 -0.889826 1.27369 1.4134 4.06516 -1.22941 15.2022 14.0521 0.03 301.465 
335 1 1 0.742959 0.485476 1.65919 0 0 0 1.78176 0.584777 -0.148936 8.71264 -11.9219 10.5697 -13.6005 -8.21403 33.5961 0.03 300.283 
198 1 1 0.559804 0.517195 1.62873 0 0 0 1.92096 0.0770077 -0.600721 -8.13956 -2.29265 10.5044 37.7225 -0.129004 7.94443 0.03 300.043 
220 1 1 0.438987 0.531883 1.64222 0 0 0 1.61127 0.00370351 0.2282 0 0 -2.77371 -9.77805 -42.6815 -16.4542 0.03 300.091 
224 1 1 0.660475 0.553961 1.64569 0 0 0 2.25879 0.310066 0.108456 0 0 -2.77371 14.3876 -18.3736 34.5956 0.03 301.846 
239 1 1 0.84122 0.539954 1.63523 0 0 0 1.55189 0.277362 -0.393047 0 0 -2.77371 -8.43035 41.701 4.12706 0.03 300.768 
310 1 1 0.181036 0.552422 1.6431 0 0 0 -0.0271543 -0.793118 0.419664 -1.18165 7.7876 -8.13977 9.07933 39.5363 45.3127 0.03 300.261 
201 1 1 0.487834 0.567761 1.64303 0 0 0 1.46884 0.584386 0.358607 0 0 -2.77371 -22.9122 10.4143 7.43529 0.03 300.857 
329 1 1 0.573576 0.571642 1.66103 0 0 0 1.95357 0.185676 0.543085 0 0 -2.77371 -4.10171 29.6649 19.5676 0.03 300.159 
52 1 1 0.73137 0.61647 1.63777 0 0 0 1.53589 0.0886896 -0.399709 0 0 -2.77371 -7.49989 37.4352 43.85 0.03 301.807 
301 1 1 0.221438 0.632307 1.64227 0 0 0 0.929025 0.0335808 0.235019 0 0 -2.77371 7.79778 -18.5119 -73.7824 0.03 308.258 
326 1 1 0.505137 0.649938 1.65911 0 0 0 1.04471 0.0441879 0.0449465 -0.00328538 -1.00884 -0.972862 -2.10763 -116.104 -23.6753 0.03 340.489 
72 1 1 0.673965 0.638583 1.64776 0 0 0 1.54935 0.0533308 0.0553947 -0.00790484 -0.937372 -1.03968 -2.58058 -46.8131 -69.0849 0.03 341.356 
317 1 1 0.424039 0.0570397 1.7059 0 0 0 1.27378 -0.198555 0.198729 0.397564 0.751425 -0.758243 25.2531 -55.1442 63.8394 0.03 315.727 
336 1 1 0.169706 0.230595 1.66687 0 0 0 0.0459572 0.0443007 -2.13392 -43.2087 12.0804 169.517 -1.5808 -43.0121 2.53336 0.03 300 
275 1 1 0.315404 0.272075 1.66624 0 0 0 -0.0350603 0.537107 -1.27896 2.67107 5.5523 17.1725 -4.9988 -13.0406 4.21867 0.03 300 
219 1 1 0.439612 0.253941 1.68042 0 0 0 0.58126 -0.632458 0.222343 0 0 -2.77371 2.41856 2.34381 -24.6728 0.03 300.029 
199 1 1 0.261803 0.339526 1.66858 0 0 0 0.221188 0.186754 -0.979357 0 0 -2.77371 -34.3111 -29.2615 2.5757 0.03 300.01 
323 1 1 0.369244 0.318211 1.67903 0 0 0 0.831123 -0.054347 0.187833 12.4552 13.1807 31.2506 45.6632 12.2904 -0.679394 0.03 300.001 
273 1 1 0.444756 0.327897 1.66519 0 0 0 0.470553 -0.308331 -1.15619 27.9358 9.66789 51.2189 8.39905 5.02921 -2.73839 0.03 300.003 