ITEM: TIMESTEP
24000
ITEM: NUMBER OF ATOMS
176
ITEM: BOX BOUNDS ff ff ff
0 3.3
-0.3 0.8
-0.5 3
ITEM: ATOMS id type type x y z ix iy iz vx vy vz fx fy fz omegax omegay omegaz radius f_Temp[0] 
142 1 1 0.271856 0.292457 1.63752 0 0 0 0 0 -3.006 0 0 -2.77371 0 0 0 0.03 300 
124 1 1 0.108395 0.326026 1.63551 0 0 0 0 0 -3.01257 0 0 -2.77371 0 0 0 0.03 300 
86 1 1 0.19434 0.331338 1.63016 0 0 0 0 0 -3.02993 0 0 -2.77371 0 0 0 0.03 300 
82 1 1 0.468787 0.384733 1.63834 0 0 0 0 0 -3.00335 0 0 -2.77371 0 0 0 0.03 300 
140 1 1 0.46939 0.484878 1.62308 0 0 0 0 0 -3.05279 0 0 -2.77371 0 0 0 0.03 300 
113 1 1 0.369388 0.526215 1.6235 0 0 0 0 0 -3.05142 0 0 -2.77371 0 0 0 0.03 300 
41 1 1 0.102233 0.267031 1.67271 0 0 0 0 0 -2.88887 0 0 -2.77371 0 0 0 0.03 300 
67 1 1 0.351021 0.24345 1.64303 0 0 0 0 0 -2.98795 0 0 -2.77371 0 0 0 0.03 300 
133 1 1 0.471209 0.311123 1.66172 0 0 0 0 0 -2.92595 0 0 -2.77371 0 0 0 0.03 300 
23 1 1 0.298609 0.364728 1.64771 0 0 0 0 0 -2.97255 0 0 -2.77371 0 0 0 0.03 300 
96 1 1 0.363069 0.380034 1.66721 0 0 0 0 0 -2.90751 0 0 -2.77371 0 0 0 0.03 300 
108 1 1 0.171365 0.231672 1.68345 0 0 0 0 0 -2.85218 0 0 -2.77371 0 0 0 0.03 300 
8 1 1 0.355542 0.30862 1.69261 0 0 0 0 0 -2.82049 0 0 -2.77371 0 0 0 0.03 300 
30 1 1 0.179788 0.4242 1.70587 0 0 0 0 0 -2.77399 0 0 -2.77371 0 0 0 0.03 300 
10 1 1 0.242338 0.433913 1.67916 0 0 0 0 0 -2.86689 0 0 -2.77371 0 0 0 0.03 300 
32 1 1 0.353388 0.44487 1.69905 0 0 0 0 0 -2.79803 0 0 -2.77371 0 0 0 0.03 300 
54 1 1 0.278399 0.490166 1.69337 0 0 0 0 0 -2.81784 0 0 -2.77371 0 0 0 0.03 300 
14 1 1 0.416144 0.265826 1.7257 0 0 0 0 0 -2.70297 0 0 -2.77371 0 0 0 0.03 300 
163 1 1 0.105414 0.438662 1.71886 0 0 0 0 0 -2.72769 0 0 -2.77371 0 0 0 0.03 300 
103 1 1 0.209546 0.484752 1.74073 0 0 0 0 0 -2.64783 0 0 -2.77371 0 0 0 0.03 300 
122 1 1 0.225457 0.365207 1.76703 0 0 0 0 0 -2.54856 0 0 -2.77371 0 0 0 0.03 300 
100 1 1 0.448041 0.468779 1.77473 0 0 0 0 0 -2.51874 0 0 -2.77371 0 0 0 0.03 300 
63 1 1 0.14636 0.503077 1.77013 0 0 0 0 0 -2.53659 0 0 -2.77371 0 0 0 0.03 300 
120 1 1 0.108446 0.229956 1.82075 0 0 0 0 0 -2.33264 0 0 -2.77371 0 0 0 0.03 300 
47 1 1 0.261488 0.255288 1.79862 0 0 0 0 0 -2.42387 0 0 -2.77371 0 0 0 0.03 300 
112 1 1 0.200031 0.295208 1.82272 0 0 0 0 0 -2.3243 0 0 -2.77371 0 0 0 0.03 300 
45 1 1 0.40205 0.339714 1.78698 0 0 0 0 0 -2.47057 0 0 -2.77371 0 0 0 0.03 300 
174 1 1 0.478905 0.416329 1.79712 0 0 0 0 0 -2.42995 0 0 -2.77371 0 0 0 0.03 300 
172 1 1 0.339305 0.526873 1.81608 0 0 0 0 0 -2.35216 0 0 -2.77371 0 0 0 0.03 300 
85 1 1 0.47306 0.247248 1.84356 0 0 0 0 0 -2.23464 0 0 -2.77371 0 0 0 0.03 300 
60 1 1 0.321495 0.290282 1.83372 0 0 0 0 0 -2.27741 0 0 -2.77371 0 0 0 0.03 300 
64 1 1 0.141892 0.342884 1.83988 0 0 0 0 0 -2.25073 0 0 -2.77371 0 0 0 0.03 300 
79 1 1 0.320497 0.448247 1.83891 0 0 0 0 0 -2.25494 0 0 -2.77371 0 0 0 0.03 300 
39 1 1 0.380355 0.466663 1.84174 0 0 0 0 0 -2.24258 0 0 -2.77371 0 0 0 0.03 300 
162 1 1 0.428387 0.521279 1.83208 0 0 0 0 0 -2.28447 0 0 -2.77371 0 0 0 0.03 300 
13 1 1 0.121033 0.279919 1.89432 0 0 0 0 0 -1.99939 0 0 -2.77371 0 0 0 0.03 300 
87 1 1 0.377721 0.27376 1.87248 0 0 0 0 0 -2.10387 0 0 -2.77371 0 0 0 0.03 300 
131 1 1 0.248477 0.419376 1.86145 0 0 0 0 0 -2.15469 0 0 -2.77371 0 0 0 0.03 300 
78 1 1 0.178322 0.227864 1.91324 0 0 0 0 0 -1.90433 0 0 -2.77371 0 0 0 0.03 300 
59 1 1 0.253616 0.343212 1.89876 0 0 0 0 0 -1.97752 0 0 -2.77371 0 0 0 0.03 300 
29 1 1 0.368876 0.379155 1.9284 0 0 0 0 0 -1.82458 0 0 -2.77371 0 0 0 0.03 300 
36 1 1 0.450724 0.395688 1.92472 0 0 0 0 0 -1.8442 0 0 -2.77371 0 0 0 0.03 300 
152 1 1 0.163069 0.521312 1.91293 0 0 0 0 0 -1.9059 0 0 -2.77371 0 0 0 0.03 300 
109 1 1 0.275498 0.521202 1.90254 0 0 0 0 0 -1.95868 0 0 -2.77371 0 0 0 0.03 300 
168 1 1 0.476176 0.52212 1.92046 0 0 0 0 0 -1.86676 0 0 -2.77371 0 0 0 0.03 300 
46 1 1 0.47999 0.300848 1.9349 0 0 0 0 0 -1.78926 0 0 -2.77371 0 0 0 0.03 300 
173 1 1 0.336956 0.309745 1.96164 0 0 0 0 0 -1.63613 0 0 -2.77371 0 0 0 0.03 300 
69 1 1 0.10427 0.421706 1.96682 0 0 0 0 0 -1.60474 0 0 -2.77371 0 0 0 0.03 300 
145 1 1 0.320399 0.410893 1.96197 0 0 0 0 0 -1.63417 0 0 -2.77371 0 0 0 0.03 300 
167 1 1 0.400748 0.432213 1.94985 0 0 0 0 0 -1.70539 0 0 -2.77371 0 0 0 0.03 300 
121 1 1 0.170319 0.453329 1.96592 0 0 0 0 0 -1.61023 0 0 -2.77371 0 0 0 0.03 300 
66 1 1 0.47867 0.463 1.94042 0 0 0 0 0 -1.75875 0 0 -2.77371 0 0 0 0.03 300 
49 1 1 0.281286 0.254094 1.98299 0 0 0 0 0 -1.50262 0 0 -2.77371 0 0 0 0.03 300 
155 1 1 0.415544 0.252674 1.98412 0 0 0 0 0 -1.49526 0 0 -2.77371 0 0 0 0.03 300 
101 1 1 0.162335 0.320161 1.9923 0 0 0 0 0 -1.44062 0 0 -2.77371 0 0 0 0.03 300 
91 1 1 0.235855 0.316318 1.99958 0 0 0 0 0 -1.39019 0 0 -2.77371 0 0 0 0.03 300 
42 1 1 0.226232 0.388276 1.98457 0 0 0 0 0 -1.49231 0 0 -2.77371 0 0 0 0.03 300 
99 1 1 0.274564 0.455213 1.98096 0 0 0 0 0 -1.51586 0 0 -2.77371 0 0 0 0.03 300 
18 1 1 0.427577 0.512648 1.98562 0 0 0 0 0 -1.48535 0 0 -2.77371 0 0 0 0.03 300 
118 1 1 0.120657 0.516447 2.00294 0 0 0 0 0 -1.36626 0 0 -2.77371 0 0 0 0.03 300 
156 1 1 0.35506 0.52072 1.97751 0 0 0 0 0 -1.53803 0 0 -2.77371 0 0 0 0.03 300 
58 1 1 0.112056 0.26459 2.01009 0 0 0 0 0 -1.31387 0 0 -2.77371 0 0 0 0.03 300 
15 1 1 0.188775 0.261917 2.04035 0 0 0 0 0 -1.06421 0 0 -2.77371 0 0 0 0.03 300 
80 1 1 0.478513 0.241448 2.0333 0 0 0 0 0 -1.12728 0 0 -2.77371 0 0 0 0.03 300 
81 1 1 0.388958 0.319017 2.00907 0 0 0 0 0 -1.32142 0 0 -2.77371 0 0 0 0.03 300 
143 1 1 0.326798 0.368865 2.03811 0 0 0 0 0 -1.08471 0 0 -2.77371 0 0 0 0.03 300 
130 1 1 0.385847 0.398302 2.02303 0 0 0 0 0 -1.21342 0 0 -2.77371 0 0 0 0.03 300 
92 1 1 0.481853 0.374694 2.01562 0 0 0 0 0 -1.27198 0 0 -2.77371 0 0 0 0.03 300 
105 1 1 0.377689 0.467755 2.01379 0 0 0 0 0 -1.28591 0 0 -2.77371 0 0 0 0.03 300 
117 1 1 0.191604 0.522741 2.03636 0 0 0 0 0 -1.10041 0 0 -2.77371 0 0 0 0.03 300 
158 1 1 0.2596 0.52473 2.02065 0 0 0 0 0 -1.23255 0 0 -2.77371 0 0 0 0.03 300 
157 1 1 0.485815 0.521722 2.01808 0 0 0 0 0 -1.25275 0 0 -2.77371 0 0 0 0.03 300 
125 1 1 0.33817 0.237417 2.07459 0 0 0 -0 -0 -1 0 0 0 0 0 0 0.03 300 
76 1 1 0.262374 0.280345 2.04987 0 0 0 -0 -0 -1 0 0 0 0 0 0 0.03 300 
19 1 1 0.315839 0.298576 2.077 0 0 0 -0 -0 -1 0 0 0 0 0 0 0.03 300 
159 1 1 0.463712 0.3119 2.05984 0 0 0 -0 -0 -1 0 0 0 0 0 0 0.03 300 
3 1 1 0.103577 0.34242 2.06356 0 0 0 -0 -0 -1 0 0 0 0 0 0 0.03 300 
132 1 1 0.181507 0.370772 2.06538 0 0 0 -0 -0 -1 0 0 0 0 0 0 0.03 300 
20 1 1 0.379347 0.368828 2.07897 0 0 0 -0 -0 -1 0 0 0 0 0 0 0.03 300 
151 1 1 0.494801 0.397371 2.07852 0 0 0 -0 -0 -1 0 0 0 0 0 0 0.03 300 
135 1 1 0.110104 0.424702 2.04577 0 0 0 0 0 -1.0131 0 0 -2.77371 0 0 0 0.03 300 
50 1 1 0.301622 0.417346 2.06549 0 0 0 -0 -0 -1 0 0 0 0 0 0 0.03 300 
61 1 1 0.174746 0.456274 2.04563 0 0 0 0 0 -1.01437 0 0 -2.77371 0 0 0 0.03 300 
169 1 1 0.252456 0.475054 2.06084 0 0 0 -0 -0 -1 0 0 0 0 0 0 0.03 300 
9 1 1 0.441781 0.458388 2.04688 0 0 0 0 0 -1.00221 0 0 -2.77371 0 0 0 0.03 300 
16 1 1 0.119943 0.514428 2.07329 0 0 0 -0 -0 -1 0 0 0 0 0 0 0.03 300 
83 1 1 0.499782 0.483801 2.06999 0 0 0 -0 -0 -1 0 0 0 0 0 0 0.03 300 
2 1 1 0.337972 0.524085 2.05555 0 0 0 -0 -0 -1 0 0 0 0 0 0 0.03 300 
139 1 1 0.137853 0.229319 2.09735 0 0 0 -0 -0 -1 0 0 0 0 0 0 0.03 300 
88 1 1 0.486268 0.228152 2.09553 0 0 0 -0 -0 -1 0 0 0 0 0 0 0.03 300 
7 1 1 0.417913 0.266516 2.09805 0 0 0 -0 -0 -1 0 0 0 0 0 0 0.03 300 
51 1 1 0.201805 0.313726 2.09925 0 0 0 -0 -0 -1 0 0 0 0 0 0 0.03 300 
144 1 1 0.368613 0.311971 2.11108 0 0 0 -0 -0 -1 0 0 0 0 0 0 0.03 300 
94 1 1 0.273851 0.347383 2.08506 0 0 0 -0 -0 -1 0 0 0 0 0 0 0.03 300 
56 1 1 0.445152 0.350079 2.10959 0 0 0 -0 -0 -1 0 0 0 0 0 0 0.03 300 
77 1 1 0.218563 0.442358 2.11235 0 0 0 -0 -0 -1 0 0 0 0 0 0 0.03 300 
24 1 1 0.44361 0.420007 2.11405 0 0 0 -0 -0 -1 0 0 0 0 0 0 0.03 300 
27 1 1 0.362553 0.476213 2.08257 0 0 0 -0 -0 -1 0 0 0 0 0 0 0.03 300 
57 1 1 0.255601 0.512634 2.10984 0 0 0 -0 -0 -1 0 0 0 0 0 0 0.03 300 
149 1 1 0.457968 0.50649 2.11254 0 0 0 -0 -0 -1 0 0 0 0 0 0 0.03 300 
137 1 1 0.250314 0.231914 2.12548 0 0 0 -0 -0 -1 0 0 0 0 0 0 0.03 300 
165 1 1 0.36833 0.235983 2.12656 0 0 0 -0 -0 -1 0 0 0 0 0 0 0.03 300 
12 1 1 0.150682 0.290471 2.1348 0 0 0 -0 -0 -1 0 0 0 0 0 0 0.03 300 
21 1 1 0.18594 0.400862 2.14782 0 0 0 -0 -0 -1 0 0 0 0 0 0 0.03 300 
104 1 1 0.324371 0.382136 2.1186 0 0 0 -0 -0 -1 0 0 0 0 0 0 0.03 300 
34 1 1 0.161462 0.479607 2.12776 0 0 0 -0 -0 -1 0 0 0 0 0 0 0.03 300 
4 1 1 0.283869 0.446206 2.12761 0 0 0 -0 -0 -1 0 0 0 0 0 0 0.03 300 
75 1 1 0.387927 0.516304 2.12092 0 0 0 -0 -0 -1 0 0 0 0 0 0 0.03 300 
114 1 1 0.101873 0.240116 2.17116 0 0 0 -0 -0 -1 0 0 0 0 0 0 0.03 300 
115 1 1 0.29951 0.265646 2.15216 0 0 0 -0 -0 -1 0 0 0 0 0 0 0.03 300 
1 1 1 0.44893 0.24186 2.17297 0 0 0 -0 -0 -1 0 0 0 0 0 0 0.03 300 
170 1 1 0.448147 0.302404 2.15869 0 0 0 -0 -0 -1 0 0 0 0 0 0 0.03 300 
11 1 1 0.20764 0.30353 2.16911 0 0 0 -0 -0 -1 0 0 0 0 0 0 0.03 300 
33 1 1 0.10471 0.363257 2.18227 0 0 0 -0 -0 -1 0 0 0 0 0 0 0.03 300 
71 1 1 0.27192 0.349064 2.1739 0 0 0 -0 -0 -1 0 0 0 0 0 0 0.03 300 
126 1 1 0.387846 0.395075 2.15081 0 0 0 -0 -0 -1 0 0 0 0 0 0 0.03 300 
160 1 1 0.115232 0.435564 2.16022 0 0 0 -0 -0 -1 0 0 0 0 0 0 0.03 300 
154 1 1 0.211019 0.445658 2.18167 0 0 0 -0 -0 -1 0 0 0 0 0 0 0.03 300 
106 1 1 0.375691 0.47682 2.16766 0 0 0 -0 -0 -1 0 0 0 0 0 0 0.03 300 
129 1 1 0.201147 0.51232 2.16784 0 0 0 -0 -0 -1 0 0 0 0 0 0 0.03 300 
89 1 1 0.26845 0.48437 2.17991 0 0 0 -0 -0 -1 0 0 0 0 0 0 0.03 300 
26 1 1 0.474436 0.482152 2.16708 0 0 0 -0 -0 -1 0 0 0 0 0 0 0.03 300 
161 1 1 0.383875 0.233035 2.1962 0 0 0 -0 -0 -1 0 0 0 0 0 0 0.03 300 
146 1 1 0.495146 0.246598 2.21254 0 0 0 -0 -0 -1 0 0 0 0 0 0 0.03 300 
127 1 1 0.381994 0.300043 2.2008 0 0 0 -0 -0 -1 0 0 0 0 0 0 0.03 300 
35 1 1 0.342434 0.364463 2.18618 0 0 0 -0 -0 -1 0 0 0 0 0 0 0.03 300 
44 1 1 0.485944 0.343638 2.21039 0 0 0 -0 -0 -1 0 0 0 0 0 0 0.03 300 
166 1 1 0.165431 0.374869 2.21499 0 0 0 -0 -0 -1 0 0 0 0 0 0 0.03 300 
141 1 1 0.429803 0.380165 2.20189 0 0 0 -0 -0 -1 0 0 0 0 0 0 0.03 300 
38 1 1 0.303454 0.414467 2.19292 0 0 0 -0 -0 -1 0 0 0 0 0 0 0.03 300 
111 1 1 0.473074 0.424163 2.20635 0 0 0 -0 -0 -1 0 0 0 0 0 0 0.03 300 
119 1 1 0.126835 0.482642 2.21437 0 0 0 -0 -0 -1 0 0 0 0 0 0 0.03 300 
90 1 1 0.102204 0.238351 2.24553 0 0 0 -0 -0 -1 0 0 0 0 0 0 0.03 300 
97 1 1 0.184928 0.234672 2.23277 0 0 0 -0 -0 -1 0 0 0 0 0 0 0.03 300 
74 1 1 0.248328 0.247523 2.23851 0 0 0 -0 -0 -1 0 0 0 0 0 0 0.03 300 
62 1 1 0.329189 0.252757 2.2482 0 0 0 -0 -0 -1 0 0 0 0 0 0 0.03 300 
5 1 1 0.160428 0.3182 2.23871 0 0 0 -0 -0 -1 0 0 0 0 0 0 0.03 300 
95 1 1 0.346797 0.327727 2.25259 0 0 0 -0 -0 -1 0 0 0 0 0 0 0.03 300 
175 1 1 0.230789 0.339127 2.24237 0 0 0 -0 -0 -1 0 0 0 0 0 0 0.03 300 
28 1 1 0.222318 0.404493 2.22476 0 0 0 -0 -0 -1 0 0 0 0 0 0 0.03 300 
37 1 1 0.41824 0.41741 2.25001 0 0 0 -0 -0 -1 0 0 0 0 0 0 0.03 300 
93 1 1 0.225968 0.488444 2.23161 0 0 0 -0 -0 -1 0 0 0 0 0 0 0.03 300 
17 1 1 0.345254 0.512161 2.25021 0 0 0 -0 -0 -1 0 0 0 0 0 0 0.03 300 
134 1 1 0.443832 0.509496 2.23848 0 0 0 -0 -0 -1 0 0 0 0 0 0 0.03 300 
40 1 1 0.408343 0.240904 2.2808 0 0 0 -0 -0 -1 0 0 0 0 0 0 0.03 300 
43 1 1 0.460616 0.284913 2.25675 0 0 0 -0 -0 -1 0 0 0 0 0 0 0.03 300 
68 1 1 0.400811 0.324654 2.28473 0 0 0 -0 -0 -1 0 0 0 0 0 0 0.03 300 
25 1 1 0.278223 0.363632 2.27196 0 0 0 -0 -0 -1 0 0 0 0 0 0 0.03 300 
123 1 1 0.48159 0.360101 2.27449 0 0 0 -0 -0 -1 0 0 0 0 0 0 0.03 300 
116 1 1 0.152794 0.405213 2.26527 0 0 0 -0 -0 -1 0 0 0 0 0 0 0.03 300 
128 1 1 0.355123 0.421294 2.25732 0 0 0 -0 -0 -1 0 0 0 0 0 0 0.03 300 
98 1 1 0.491139 0.43458 2.27869 0 0 0 -0 -0 -1 0 0 0 0 0 0 0.03 300 
55 1 1 0.200976 0.455034 2.28831 0 0 0 -0 -0 -1 0 0 0 0 0 0 0.03 300 
138 1 1 0.301221 0.470777 2.26913 0 0 0 -0 -0 -1 0 0 0 0 0 0 0.03 300 
72 1 1 0.10161 0.511094 2.28218 0 0 0 -0 -0 -1 0 0 0 0 0 0 0.03 300 
22 1 1 0.254767 0.230824 2.31097 0 0 0 -0 -0 -1 0 0 0 0 0 0 0.03 300 
73 1 1 0.170916 0.265084 2.31451 0 0 0 -0 -0 -1 0 0 0 0 0 0 0.03 300 
171 1 1 0.477654 0.251099 2.31033 0 0 0 -0 -0 -1 0 0 0 0 0 0 0.03 300 
110 1 1 0.10205 0.273683 2.31359 0 0 0 -0 -0 -1 0 0 0 0 0 0 0.03 300 
107 1 1 0.303471 0.271065 2.3197 0 0 0 -0 -0 -1 0 0 0 0 0 0 0.03 300 
31 1 1 0.221691 0.336081 2.30246 0 0 0 -0 -0 -1 0 0 0 0 0 0 0.03 300 
70 1 1 0.142707 0.355749 2.32494 0 0 0 -0 -0 -1 0 0 0 0 0 0 0.03 300 
84 1 1 0.227036 0.399722 2.29273 0 0 0 -0 -0 -1 0 0 0 0 0 0 0.03 300 
148 1 1 0.12082 0.460146 2.31005 0 0 0 -0 -0 -1 0 0 0 0 0 0 0.03 300 
136 1 1 0.374023 0.456818 2.30267 0 0 0 -0 -0 -1 0 0 0 0 0 0 0.03 300 
65 1 1 0.421483 0.499457 2.31254 0 0 0 -0 -0 -1 0 0 0 0 0 0 0.03 300 
150 1 1 0.481625 0.503918 2.3172 0 0 0 -0 -0 -1 0 0 0 0 0 0 0.03 300 
48 1 1 0.17066 0.517967 2.29622 0 0 0 -0 -0 -1 0 0 0 0 0 0 0.03 300 
164 1 1 0.244978 0.28843 2.33115 0 0 0 -0 -0 -1 0 0 0 0 0 0 0.03 300 
53 1 1 0.294932 0.364362 2.33 0 0 0 -0 -0 -1 0 0 0 0 0 0 0.03 300 
102 1 1 0.419044 0.351535 2.33593 0 0 0 -0 -0 -1 0 0 0 0 0 0 0.03 300 
176 1 1 0.349719 0.399621 2.33537 0 0 0 -0 -0 -1 0 0 0 0 0 0 0.03 300 
153 1 1 0.496538 0.392613 2.32762 0 0 0 -0 -0 -1 0 0 0 0 0 0 0.03 300 
6 1 1 0.317689 0.454971 2.3324 0 0 0 -0 -0 -1 0 0 0 0 0 0 0.03 300 
147 1 1 0.248507 0.49546 2.33684 0 0 0 -0 -0 -1 0 0 0 0 0 0 0.03 300 
52 1 1 0.358392 0.516981 2.33661 0 0 0 -0 -0 -1 0 0 0 0 0 0 0.03 300 
