ITEM: TIMESTEP
82000
ITEM: NUMBER OF ATOMS
353
ITEM: BOX BOUNDS ff ff ff
0 3.3
-0.3 0.8
-0.5 3
ITEM: ATOMS id type type x y z ix iy iz vx vy vz fx fy fz omegax omegay omegaz radius f_Temp[0] 
97 1 1 0.146212 0.168759 1.59526 0 0 0 0.396169 0.382423 -0.285116 -5.41286 -2.91001 -6.75955 -12.5236 -46.6192 59.6244 0.03 306.389 
40 1 1 0.532668 0.189495 1.57608 0 0 0 2.04536 -0.114025 0.263491 -5.19431 -0.0220265 0.0591167 2.48868 -68.5629 16.4464 0.03 307.245 
58 1 1 0.614796 0.166035 1.597 0 0 0 1.77537 -0.0174025 -0.00726249 -0.0575057 0.618781 -0.922734 2.41736 -74.1395 31.0924 0.03 348.3 
161 1 1 0.68503 0.183643 1.5793 0 0 0 2.04818 0.332063 -0.318386 0.78155 1.06609 -1.62273 -8.38423 44.3109 7.93137 0.03 308.027 
15 1 1 0.747827 0.179948 1.58365 0 0 0 2.12502 0.188893 -0.347737 0 0 -2.77371 3.56327 -60.0034 20.7978 0.03 330.916 
78 1 1 0.824647 0.186996 1.57615 0 0 0 2.31871 0.673576 -0.429423 6.28739 1.44246 42.2484 -26.6286 -36.3293 70.9193 0.03 322.599 
1 1 1 1.07609 0.193664 1.57668 0 0 0 2.89185 0.00477235 0.00384082 0.119917 0.777561 2.73706 0.522285 -37.3359 15.9875 0.03 326.443 
80 1 1 1.17287 0.164925 1.59678 0 0 0 2.79992 -0.0307704 0.0326132 10.4565 14.2666 14.6925 -8.09114 18.2795 17.5905 0.03 312.691 
47 1 1 1.2801 0.186769 1.57693 0 0 0 2.24955 -0.00012857 0.000253881 -0.033796 -0.0154849 -1.06454 -0.0363486 -58.4286 12.2382 0.03 357.631 
67 1 1 1.40586 0.181252 1.58167 0 0 0 2.44959 -0.0926653 0.0926659 -0.00816476 1.162 -0.877308 4.36097 -52.1187 21.223 0.03 353.326 
85 1 1 1.48262 0.187726 1.57702 0 0 0 2.57346 -0.175721 0.029336 -0.0814399 -0.0557721 -3.19682 5.86648 -47.673 15.1032 0.03 329.992 
90 1 1 0.28515 0.225815 1.57693 0 0 0 1.33995 0.00877007 0.0158308 -0.100324 -8.68107e-05 -1.75376 -0.292497 -88.9086 16.2661 0.03 319.524 
91 1 1 0.627316 0.223269 1.58088 0 0 0 1.97505 0.00432795 -0.0158914 -0.111377 -0.301464 -2.61197 -26.3591 -65.3918 2.07791 0.03 329.018 
120 1 1 0.891714 0.206585 1.57687 0 0 0 2.26031 0.348744 0.000360797 -0.0018814 0.000281788 -0.131735 -11.6703 -58.2169 13.3206 0.03 352.897 
88 1 1 0.982134 0.219729 1.58035 0 0 0 1.80038 0.0263965 -0.930969 14.4852 -15.9503 9.45587 3.05579 6.09504 -11.3709 0.03 301.055 
108 1 1 1.13618 0.207725 1.57679 0 0 0 2.94994 0.128985 0.00607796 -0.258725 -0.177908 0.675029 -4.55771 -35.3749 5.98943 0.03 366.654 
60 1 1 1.21554 0.200825 1.57731 0 0 0 2.74886 0.437211 0.0401088 2.37455 5.42785 -3.95159 -15.9379 -39.3993 9.81389 0.03 345.736 
142 1 1 1.33137 0.218672 1.57682 0 0 0 2.32687 0.0013303 -0.0304494 0.160651 0.0193564 2.08216 0.155567 -56.3565 -9.37007 0.03 360.759 
110 1 1 0.189755 0.262939 1.57635 0 0 0 1.08686 0.0293823 0.283439 -2.24559 1.12813 -3.87997 -1.49395 -99.3295 -5.57215 0.03 319.67 
5 1 1 0.388834 0.264185 1.57631 0 0 0 1.88231 0.273849 -0.0944039 -11.5814 8.42354 6.70399 9.33564 -26.2894 -32.0593 0.03 309.698 
12 1 1 0.438519 0.233063 1.57653 0 0 0 1.49982 -0.371023 0.245644 14.3916 -3.67033 0.558843 14.5371 -65.4462 10.4902 0.03 332.671 
95 1 1 0.495683 0.246512 1.5841 0 0 0 1.65026 -0.219107 -0.180981 7.99877 -3.38697 -3.65583 4.12764 88.3076 -5.81932 0.03 301.107 
13 1 1 0.733555 0.237922 1.57705 0 0 0 1.66472 0.225631 0.033012 -0.131975 -0.343259 -3.50922 -4.54667 -79.0501 20.0636 0.03 364.934 
125 1 1 0.941598 0.263311 1.57721 0 0 0 2.34934 -0.209223 -0.00305321 -14.4852 15.9503 -15.0033 13.1493 -49.7072 4.66496 0.03 326.07 
41 1 1 1.08396 0.25282 1.57706 0 0 0 2.53584 0.105654 0.0115105 0.144493 1.47256 -2.17699 -3.85685 -48.7748 -3.6463 0.03 347.382 
112 1 1 1.15498 0.266657 1.57689 0 0 0 2.50616 0.404079 0.0155416 -0.0674461 0.0425115 -1.08047 -13.5725 -50.0082 -10.3767 0.03 353.322 
86 1 1 1.25799 0.253337 1.57686 0 0 0 2.09038 0.000186224 5.13271e-09 -2.44806e-08 2.38732e-12 -7.87437e-07 -0.00623289 -63.9147 -8.90786 0.03 365.08 
23 1 1 1.38956 0.239066 1.57687 0 0 0 2.27154 -0.153415 -0.00562323 0.0224013 -0.0058616 0.0710129 5.13039 -57.8323 -12.1119 0.03 361.675 
96 1 1 1.4512 0.239021 1.57687 0 0 0 2.2479 -0.324784 0.00557711 -0.0468086 0.0450333 -0.386775 10.88 -58.6311 0.943435 0.03 349.833 
3 1 1 0.303737 0.302584 1.57864 0 0 0 1.48125 -0.00695184 0.159465 0 0 -2.77371 0.331145 -84.5261 34.3209 0.03 337.277 
175 1 1 0.453822 0.289932 1.58654 0 0 0 1.16638 -0.248633 0.393227 -1.74268 3.8912 -5.57018 8.38591 -61.794 11.5196 0.03 316.72 
11 1 1 0.567371 0.271438 1.57684 0 0 0 2.10352 -0.333884 -0.058123 40.9887 24.8513 -17.7025 11.6783 -61.2955 18.8832 0.03 337.01 
94 1 1 0.633789 0.282723 1.5769 0 0 0 2.06238 -0.00675131 0.0175223 2.13208 -1.33598 -1.44635 4.19035 -59.5602 -1.91621 0.03 332.521 
64 1 1 0.811777 0.289206 1.57814 0 0 0 2.16345 -0.0897978 0.0867827 0 0 -2.77371 2.65023 -62.3716 14.0579 0.03 358 
144 1 1 0.997307 0.294727 1.57661 0 0 0 2.29928 0.00919162 -0.0217193 -1.61929 -1.88786 2.87499 -3.93739 -53.3837 19.0384 0.03 329.01 
133 1 1 1.43824 0.299571 1.57686 0 0 0 2.21295 -0.275847 0.00121011 -0.00504102 0.000452543 -0.0220768 9.23303 -59.8161 -0.00928154 0.03 329.38 
82 1 1 1.51456 0.263909 1.57686 0 0 0 2.38252 -0.456673 -5.93652e-05 0.000201621 5.69247e-05 -0.00119375 15.2847 -54.1366 4.03313 0.03 349.246 
70 1 1 0.22844 0.309023 1.58122 0 0 0 1.24124 -0.425602 0.436761 0 0 -2.77371 15.4338 -93.0548 14.5945 0.03 312.098 
126 1 1 0.669963 0.337063 1.57805 0 0 0 2.71721 -0.0407615 0.0149864 0 0 -2.77371 -12.7207 -34.1869 -16.8368 0.03 307.59 
123 1 1 0.744097 0.334121 1.57646 0 0 0 2.21767 -0.344743 -0.0699238 0.12732 0.10413 13.0612 11.6228 -59.6782 5.68399 0.03 304.044 
56 1 1 0.912667 0.316056 1.57698 0 0 0 2.64094 -0.0110501 0.00806444 0.21457 -0.266872 -2.08884 7.32889 -39.8008 -20.6824 0.03 307.245 
124 1 1 1.04047 0.335477 1.57712 0 0 0 2.27637 0.0795738 0.0417397 0.891201 0.97977 -1.57636 -4.78751 -53.9673 -11.513 0.03 353.234 
59 1 1 1.19181 0.323906 1.57686 0 0 0 2.39126 0.219997 5.58018e-05 -0.000218921 2.97971e-05 -0.00714896 -7.36323 -53.8441 8.17258 0.03 341.166 
132 1 1 0.11908 0.344248 1.58106 0 0 0 1.04428 -0.0853379 -0.0110271 0 0 -2.77371 4.84354 -98.2639 10.4686 0.03 312.666 
166 1 1 0.377573 0.346362 1.58487 0 0 0 1.38862 0.221981 0.208694 0 0 -2.77371 -7.92835 -88.4437 14.7802 0.03 321.968 
38 1 1 0.4509 0.348863 1.57677 0 0 0 1.86421 -0.0190484 0.314905 -1.79111 -1.55867 -10.5876 -0.193481 -72.9073 -14.3034 0.03 318.524 
35 1 1 0.557622 0.364369 1.57695 0 0 0 2.22375 -0.192216 0.0789941 -0.529756 0.764601 -4.85441 -4.60096 -47.8052 -5.39539 0.03 313.76 
143 1 1 0.986615 0.371628 1.57686 0 0 0 2.11047 -0.00936034 -4.55775e-05 0.000144238 8.35025e-07 -0.00925018 0.313284 -63.2413 -2.71077 0.03 347.154 
81 1 1 1.27311 0.341833 1.57686 0 0 0 2.47923 -0.00318718 -2.18887e-09 7.74702e-09 1.62353e-11 1.72637e-07 0.106675 -50.9002 -13.9831 0.03 337.336 
33 1 1 0.00912929 0.39766 1.58428 0 0 0 -0.0860896 0.125808 -0.028434 0 0 -2.77371 -4.22464 -137.32 0.517279 0.03 303.452 
101 1 1 0.604578 0.400894 1.57757 0 0 0 2.28019 -0.0443503 0.0713675 -29.7166 11.5748 -13.2587 -10.7161 33.2927 1.4822 0.03 335.979 
170 1 1 0.855342 0.400363 1.57688 0 0 0 2.34203 0.323406 -0.010256 1.37516 0.548063 0.186997 -14.2984 -46.7467 -4.69686 0.03 321.596 
122 1 1 1.04778 0.39444 1.58439 0 0 0 2.29438 0.022846 0.0439229 0.302294 1.96864 -1.4558 0.970313 -43.8534 -2.03705 0.03 349.175 
29 1 1 1.21054 0.384178 1.57686 0 0 0 2.45582 0.255744 -9.10077e-05 0.000331162 -5.45271e-05 0.0082499 -8.55979 -51.6837 -3.33252 0.03 342.315 
54 1 1 1.27589 0.404752 1.57686 0 0 0 2.24235 -0.277113 -5.99813e-09 2.3802e-08 3.75267e-09 2.91275e-07 9.27496 -58.8284 -8.02237 0.03 354.199 
278 1 1 0.419128 0.516336 2.24255 0 0 0 -0 -0 -1 0 0 0 0 0 0 0.03 300 
84 1 1 0.169419 0.41373 1.58755 0 0 0 0.171031 0.0519438 -1.39108 0 0 -2.77371 -1.96888 0.639771 -0.448645 0.03 300.119 
116 1 1 0.24497 0.420663 1.57862 0 0 0 1.54409 0.47798 0.45097 0 0 -2.77371 -16.3244 -83.5913 9.35768 0.03 317.016 
25 1 1 0.387769 0.419582 1.57584 0 0 0 1.71201 0.293979 0.0804723 6.61167 -2.68193 -0.456246 -8.92369 -77.7966 -23.116 0.03 306.361 
77 1 1 0.470341 0.420504 1.57562 0 0 0 1.89438 -0.114197 -0.384862 20.3696 -4.31917 11.3385 4.462 -68.5692 3.84058 0.03 326.871 
37 1 1 0.690747 0.43323 1.57684 0 0 0 2.2787 0.256621 0.0651312 -0.0673435 -0.0287412 -2.62727 -8.43654 -58.0844 13.8758 0.03 306.512 
111 1 1 0.803446 0.436535 1.57592 0 0 0 2.52585 0.392449 -0.0804862 -0.503575 -3.84054 16.1555 -14.331 -51.1105 9.88939 0.03 314.614 
50 1 1 0.900358 0.440508 1.57681 0 0 0 2.39692 0.262007 0.0120766 -0.0885302 -0.0182374 0.41487 -8.79768 -53.7056 10.1894 0.03 339.665 
30 1 1 1.10127 0.437817 1.57727 0 0 0 2.59855 -0.346629 -0.0834708 0 0 -2.77371 17.4535 -13.2416 -2.19601 0.03 362.217 
167 1 1 1.15873 0.41801 1.57747 0 0 0 2.78541 -0.291956 -0.00243679 0 0 -2.77371 10.8564 -37.9466 8.77065 0.03 331.174 
148 1 1 0.10628 0.454823 1.57828 0 0 0 -0.56462 0.147324 -1.56134 0 0 -2.77371 9.96754 15.1818 -3.44109 0.03 300.148 
160 1 1 0.408467 0.475387 1.57513 0 0 0 1.86804 0.194693 0.175172 -10.514 4.01589 11.1539 -6.7936 -76.2092 -0.553936 0.03 329.641 
135 1 1 0.550025 0.45423 1.57839 0 0 0 1.95385 0.241534 0.0677835 0.491697 -11.5161 0.584555 -8.92841 -66.3175 4.85868 0.03 344.248 
69 1 1 0.747713 0.457601 1.57673 0 0 0 2.34146 -0.028965 0.0486099 -1.42054 -0.641497 -0.879603 1.32284 -54.6972 -13.0493 0.03 352.222 
26 1 1 0.848193 0.474809 1.57726 0 0 0 2.60399 0.297259 0.155672 15.7807 3.1167 11.7992 -9.35892 -43.9804 0.470853 0.03 313.344 
131 1 1 1.04441 0.457904 1.5769 0 0 0 2.65158 0.0524409 0.0467694 0.391442 0.359787 -2.95262 2.42701 -5.03232 -13.5556 0.03 335.436 
32 1 1 1.43784 0.448873 1.57686 0 0 0 2.41625 0.0362623 2.10624e-08 -6.87311e-08 1.5737e-09 7.92504e-07 -1.2137 -53.0078 4.98442 0.03 351.587 
119 1 1 0.194288 0.486268 1.57478 0 0 0 1.0269 0.00278192 -0.745652 56.7722 5.2857 84.6175 -0.653215 -101.97 3.85498 0.03 321.751 
21 1 1 0.284667 0.480997 1.57473 0 0 0 1.64622 0.111866 -0.642521 8.10451 25.203 75.3464 1.81057 -82.8923 1.43704 0.03 312.119 
4 1 1 0.47362 0.483327 1.57548 0 0 0 1.97478 0.15896 -0.234811 9.81828 0.494935 4.61234 -4.15823 -67.603 11.5993 0.03 310.75 
136 1 1 0.526913 0.508873 1.57941 0 0 0 1.99415 0.201292 -0.278893 7.39961 16.8739 -0.824046 3.57059 44.6966 -4.86609 0.03 300.769 
169 1 1 0.605199 0.502154 1.57775 0 0 0 2.2494 -0.133336 -0.043225 0 0 -2.77371 4.16106 -58.7346 -5.6083 0.03 325.54 
61 1 1 0.723476 0.512271 1.57704 0 0 0 2.12917 -0.132239 -0.0106832 -0.425148 1.18735 -2.7971 6.28789 -61.8088 14.0149 0.03 335.347 
163 1 1 0.991251 0.487466 1.57686 0 0 0 2.69964 -0.219125 0.00130487 -0.00369575 -0.000779377 -0.0808412 7.33407 -43.5216 29.3481 0.03 342.18 
145 1 1 1.08429 0.502706 1.57695 0 0 0 2.69269 0.0681418 -0.0271664 0.886198 -0.293798 -0.0352039 -3.24216 -26.9659 15.0133 0.03 324.83 
39 1 1 1.14265 0.487337 1.57655 0 0 0 2.62908 -0.195619 -0.0299624 0.332866 -0.0255698 8.49406 6.17575 -47.1571 -1.22838 0.03 338.445 
10 1 1 1.21744 0.48381 1.57688 0 0 0 2.47829 -0.103798 -0.00068044 0.297582 -0.835045 0.0951012 3.44378 -50.9341 -8.22048 0.03 362.586 
162 1 1 1.28514 0.494365 1.57681 0 0 0 2.62173 -0.15509 0.0156437 2.35953 -3.71544 0.540606 5.30445 -46.1718 17.987 0.03 349.186 
36 1 1 1.36718 0.482896 1.57686 0 0 0 2.35765 0.161792 6.52276e-09 -2.2818e-08 2.24788e-09 4.72669e-08 -5.41516 -54.9694 -1.38527 0.03 348.102 
140 1 1 1.57423 0.492854 1.57686 0 0 0 2.52255 0.0244765 -1.16531e-07 4.39926e-07 -7.28814e-09 2.08108e-05 -0.819227 -49.4502 0.805906 0.03 330.078 
48 1 1 0.271161 0.550293 1.57559 0 0 0 1.23696 0.25023 -0.80837 35.3137 -39.5466 43.6043 2.51564 -85.7339 15.9641 0.03 307.577 
147 1 1 0.367759 0.547769 1.57583 0 0 0 1.74198 0.782538 -0.370995 -0.596688 11.0579 -71.1878 -13.7499 -53.3652 14.7896 0.03 307.674 
104 1 1 0.817958 0.525977 1.57666 0 0 0 2.36951 -0.00802472 -0.127482 -19.6209 -14.5646 -9.50619 -4.46158 -48.8315 -11.4642 0.03 326.679 
42 1 1 0.889055 0.536628 1.57601 0 0 0 2.23247 -0.0775008 -0.147391 0.81504 2.39016 14.6296 -3.16362 -58.2497 7.59398 0.03 341.941 
63 1 1 1.01762 0.546685 1.57685 0 0 0 2.52787 -0.0394387 0.00371583 0.0432918 -0.0285489 -0.706002 1.32635 -49.2674 15.638 0.03 358.037 
109 1 1 1.13433 0.549794 1.57684 0 0 0 2.62084 -0.173803 -0.000310088 1.52787 -0.349252 0.360842 14.1893 -9.559 9.20173 0.03 350.464 
103 1 1 1.19421 0.538974 1.5768 0 0 0 2.65669 -0.026072 -0.00269787 0.353799 0.35899 0.101797 3.88895 -30.6687 -3.38593 0.03 361.24 
172 1 1 1.25379 0.545225 1.57684 0 0 0 2.63768 -0.238515 -0.00691267 0.597217 1.54304 -0.824232 9.03975 -44.8134 -14.4913 0.03 352.429 
66 1 1 1.33215 0.53312 1.57686 0 0 0 2.41857 0.102756 -3.59906e-06 2.57575e-05 -1.62372e-06 0.00371962 -3.43925 -52.9306 -8.3985 0.03 342.139 
100 1 1 1.4534 0.527667 1.57683 0 0 0 2.45851 0.0757629 -0.000522431 0.261462 -0.40246 0.0247322 -2.54787 -51.6249 -1.27997 0.03 357.619 
326 1 1 0.152222 0.572633 1.58294 0 0 0 0.856205 1.09295 0.293938 0 0 -2.77371 -37.0589 -108.63 7.9325 0.03 303.684 
34 1 1 0.429293 0.578015 1.58928 0 0 0 2.15398 0.46347 0.632245 0 0 -2.77371 -28.3621 -81.2947 -6.03924 0.03 321.601 
117 1 1 0.507086 0.566172 1.57691 0 0 0 2.19351 0.437348 0.264123 -1.87468 0.46891 -12.1107 -14.7943 -61.1627 -12.7362 0.03 317.464 
16 1 1 0.592081 0.560921 1.57804 0 0 0 2.03919 -0.153725 -0.0478359 0 0 -2.77371 6.06635 -65.744 2.39368 0.03 341.414 
118 1 1 0.677747 0.559228 1.57861 0 0 0 2.16077 0.101805 -0.218912 0 0 -2.77371 -3.18781 -61.686 -14.3136 0.03 332.037 
152 1 1 0.75599 0.568164 1.57737 0 0 0 2.16465 0.0330084 0.0939033 0.0667838 0.115351 -2.85751 -3.2167 -63.1117 -23.0198 0.03 346.832 
105 1 1 0.834992 0.580958 1.58893 0 0 0 2.5307 -0.40195 -0.176822 29.528 16.1735 23.3444 0.274809 20.2329 -8.17849 0.03 304.18 
121 1 1 0.956306 0.557417 1.57685 0 0 0 2.41488 -0.106516 0.00103469 -0.00512123 0.000194452 0.160088 3.56571 -53.0736 -27.1987 0.03 358.365 
158 1 1 1.07652 0.567552 1.57687 0 0 0 2.69109 -0.0553178 -0.0266601 2.01909 0.18977 0.461183 1.54521 -30.9719 -27.7516 0.03 346.298 
168 1 1 1.39413 0.557175 1.57686 0 0 0 2.40346 0.245525 9.36367e-06 -3.2123e-05 4.94004e-06 -8.81896e-06 -8.2177 -53.4362 7.62347 0.03 335.69 
113 1 1 1.46272 0.584376 1.59353 0 0 0 2.31725 0.0756835 0.0754365 -0.244147 -0.301621 -0.280973 -3.56967 -63.153 -16.4489 0.03 357.194 
114 1 1 0.354073 0.138301 1.62589 0 0 0 1.22639 -0.0493339 -0.316779 0 0 -2.77371 12.2983 -113.441 18.1494 0.03 310.352 
139 1 1 0.430166 0.136099 1.62724 0 0 0 1.12036 -0.215553 0.322663 -0.234203 -1.36043 -2.01012 15.6942 -119.19 17.3676 0.03 330.53 
173 1 1 0.896618 0.15194 1.61199 0 0 0 2.42908 0.134605 -0.249756 0 0 -2.77371 13.1457 -7.24508 39.6681 0.03 309.331 
87 1 1 1.03204 0.149671 1.61327 0 0 0 1.97509 0.229348 -0.22943 0.00026079 0.990157 -0.987241 -10.849 -44.8672 50.8979 0.03 333.207 
22 1 1 0.203364 0.174171 1.61197 0 0 0 0.235637 0.0620155 -0.325821 -15.0141 14.3939 -72.4924 7.25772 3.932 -25.9653 0.03 300.178 
51 1 1 0.42041 0.194308 1.61738 0 0 0 0.598497 -0.36679 0.0405221 -7.10618 -9.97204 -5.23367 -23.6427 18.8356 4.09715 0.03 307.49 
171 1 1 0.55146 0.166799 1.62751 0 0 0 1.46125 -0.00979125 0.726878 1.8628 0.253932 1.04946 -7.23619 49.7336 -23.7181 0.03 300.308 
74 1 1 0.364027 0.215617 1.62139 0 0 0 0.486032 -0.219147 -0.197176 0 0 -2.77371 -14.62 -6.11998 5.82112 0.03 300.57 
19 1 1 0.544255 0.236236 1.61781 0 0 0 2.19468 -0.624349 -1.01534 -36.9488 -25.1461 17.9779 -2.73773 -35.7924 9.89364 0.03 302.522 
141 1 1 0.676407 0.252491 1.60606 0 0 0 1.9728 -0.655112 -0.291076 -1.46395 1.22051 -2.8717 -14.0988 73.3285 -27.7011 0.03 301.449 
146 1 1 0.783498 0.245292 1.6106 0 0 0 1.77685 0.0865194 0.131902 0 0 -2.77371 1.44165 45.2547 -26.4789 0.03 301.765 
7 1 1 0.857907 0.262635 1.61039 0 0 0 2.28769 -0.292179 0.201304 0 0 -2.77371 28.3567 45.4005 2.90389 0.03 301.202 
339 1 1 0.105418 0.280191 1.61396 0 0 0 -0.433896 0.435339 -1.08569 -8.66342 11.419 -7.86584 45.4079 31.1805 -5.91942 0.03 300.174 
73 1 1 0.194022 0.275512 1.63428 0 0 0 0.192153 0.485551 0.497624 0.551645 -0.261728 -3.7331 -12.8485 67.2916 -0.101216 0.03 300.612 
164 1 1 0.268797 0.265315 1.61926 0 0 0 -0.237726 -0.481221 -0.938801 6.14372 29.8295 -81.82 3.0578 3.84846 4.66653 0.03 300.316 
225 1 1 0.61097 0.294446 1.63266 0 0 0 1.29351 -0.162703 0.0269568 0 0 -2.77371 10.9245 28.7603 -19.3834 0.03 300.309 
155 1 1 0.961497 0.271328 1.63368 0 0 0 2.0606 -0.0491916 0.329802 0 0 -2.77371 -3.98124 45.5716 22.8363 0.03 301.214 
127 1 1 0.524669 0.328185 1.61102 0 0 0 0.930123 0.0272048 -0.763415 2.84003 1.13074 -6.11837 6.8134 -5.95434 -9.88581 0.03 300.979 
31 1 1 0.218955 0.350701 1.63393 0 0 0 0.0452096 0.477797 0.739404 -0.058414 0.0773788 -2.85884 -39.8037 49.1721 -4.38341 0.03 300.421 
53 1 1 0.283313 0.366761 1.60255 0 0 0 0.0917287 0.540826 -0.45765 0 0 -2.77371 -44.7509 32.3878 13.8923 0.03 300.486 
68 1 1 0.451493 0.353462 1.63683 0 0 0 0.642954 0.274784 0.653028 0 0 -2.77371 -10.3769 34.0336 16.3471 0.03 300.463 
159 1 1 1.08571 0.348429 1.61368 0 0 0 2.50012 -0.162992 -0.132661 3.76393 2.15215 -1.67171 19.7831 67.1206 13.7113 0.03 301.608 
289 1 1 0.116192 0.388257 1.62705 0 0 0 -0.0134893 0.267873 0.182857 0 0 -2.77371 -14.0493 47.3172 -10.8667 0.03 300.154 
190 1 1 0.250233 0.403581 1.63795 0 0 0 0.63039 0.248129 1.03401 0 0 -2.77371 22.1962 51.6517 -6.43067 0.03 300.21 
128 1 1 0.419746 0.402529 1.62216 0 0 0 1.06437 -0.213072 0.357227 3.26224 -3.73687 19.3863 13.5341 47.1536 3.15373 0.03 300.844 
102 1 1 0.507512 0.412777 1.61936 0 0 0 1.00999 0.425966 0.406913 11.6098 -11.6072 54.6098 -27.6296 29.8915 -1.09275 0.03 300.428 
153 1 1 0.647091 0.38502 1.61509 0 0 0 1.9773 0.223176 -0.155183 36.6155 -7.71882 9.28114 7.14727 -32.8234 3.14216 0.03 300.384 
24 1 1 0.807579 0.399111 1.62125 0 0 0 1.49932 -0.235586 -0.253977 2.3372 -5.57755 5.85676 37.2041 -11.6298 12.8327 0.03 300.35 
28 1 1 0.296853 0.437631 1.62072 0 0 0 0.442476 0.534268 -0.0416717 0 0 -2.77371 18.9442 19.1275 -4.03946 0.03 300.43 
227 1 1 0.43207 0.475846 1.6282 0 0 0 1.04224 0.0270839 0.566925 16.1025 2.18392 36.1777 9.87302 49.4085 -6.40573 0.03 300.328 
106 1 1 0.503505 0.472216 1.62379 0 0 0 0.835144 0.180324 0.424386 7.88157 12.9553 20.5305 1.37888 28.9695 -9.60594 0.03 301.351 
134 1 1 0.628814 0.45059 1.60067 0 0 0 2.54583 0.1865 0.0613333 -5.28587 -3.51281 -4.14286 31.9618 17.6907 22.2154 0.03 302.161 
151 1 1 1.10899 0.468097 1.62992 0 0 0 2.32827 0.118289 -0.112791 0 0 -2.77371 -21.1752 38.0565 10.2691 0.03 304.349 
92 1 1 1.16651 0.448429 1.62975 0 0 0 2.30344 0.245966 -0.291267 0 0 -2.77371 -15.712 57.1538 -9.76472 0.03 300.957 
55 1 1 0.23367 0.508611 1.61116 0 0 0 0.355535 0.512778 -0.213941 20.8887 11.7616 42.8675 -28.2884 49.8079 -7.38102 0.03 300.212 
304 1 1 0.101694 0.520539 1.59572 0 0 0 -0.317642 0.383917 -1.83136 0 0 -2.77371 -34.4625 -10.2553 13.9383 0.03 300.001 
52 1 1 0.400168 0.527744 1.61823 0 0 0 0.937445 0.412945 -0.828077 31.3619 -8.79138 -16.2236 37.1718 1.73376 -5.87071 0.03 300.455 
98 1 1 0.751937 0.535328 1.62789 0 0 0 1.73726 0.261003 0.412541 0 0 -2.77371 -8.1028 53.9756 11.4743 0.03 300.782 
9 1 1 1.05421 0.536737 1.62318 0 0 0 2.61035 -0.0293673 -0.0536667 0.11655 -0.11272 -1.59437 7.69534 50.1119 -3.6185 0.03 305.505 
157 1 1 1.26263 0.514851 1.62825 0 0 0 2.44526 -0.28573 -0.00161396 -0.162135 0.0143275 -1.02025 -11.659 52.0692 11.4243 0.03 303.541 
72 1 1 0.224137 0.588266 1.59977 0 0 0 1.33271 0.19138 -0.0750436 0 0 -2.77371 -29.4517 -64.2745 -45.1706 0.03 307.658 
65 1 1 0.526098 0.564473 1.63393 0 0 0 1.44178 0.526562 0.80093 14.5677 -11.8277 -22.9501 3.06705 26.6789 3.545 0.03 300.504 
79 1 1 0.723453 0.604619 1.61389 0 0 0 1.59464 -0.587457 -0.588012 0.457858 -0.565509 -1.92871 7.21812 -5.88582 -40.4564 0.03 315.526 
2 1 1 0.784618 0.605737 1.61509 0 0 0 1.67681 -0.614189 -0.621513 0.26314 -0.437275 -2.43898 32.5461 -76.2914 -15.8129 0.03 315.512 
18 1 1 0.903185 0.588391 1.59972 0 0 0 1.92208 0.116103 -0.196332 4.67495 14.8594 16.0273 -22.6453 -28.2031 -34.7625 0.03 304.256 
83 1 1 1.24432 0.596891 1.60609 0 0 0 3.14749 -0.129154 -0.131891 0.888573 -1.2044 -1.45435 3.73091 23.7861 -26.7791 0.03 311.939 
154 1 1 0.340814 0.62827 1.63652 0 0 0 1.11199 0.0455994 0.604188 3.25108 4.31549 -7.74743 -8.63878 -2.85889 -66.8895 0.03 303.506 
75 1 1 0.657536 0.624806 1.63491 0 0 0 1.55025 0.0940819 0.212173 0 0 -2.77371 -24.4391 -14.2166 -25.3177 0.03 303.728 
115 1 1 0.552505 0.103186 1.66546 0 0 0 1.93968 -0.182811 0.210882 0 0 -2.77371 13.0047 -29.3616 61.6705 0.03 308.929 
288 1 1 0.221352 0.217095 1.64894 0 0 0 0.846543 -0.945862 -1.24224 20.4269 -11.4839 70.9309 46.8518 4.2019 -20.6457 0.03 300.004 
281 1 1 0.476048 0.207462 1.63362 0 0 0 0.855429 -0.818082 -0.969772 2.32709 -1.90289 1.30098 -13.6747 -16.6677 -19.5271 0.03 300.175 
43 1 1 0.643217 0.204244 1.65909 0 0 0 1.60571 -0.43841 0.419058 0 0 -2.77371 10.9031 45.7781 6.75873 0.03 300.392 
307 1 1 0.294776 0.232836 1.66241 0 0 0 0.0331975 -0.93326 -0.857261 -3.07021 8.29192 -5.71057 2.75089 -5.63878 4.06383 0.03 300.002 
107 1 1 0.354983 0.262195 1.6592 0 0 0 0.342726 -0.116092 -0.249582 15.7456 69.7976 -140.548 33.5139 -18.6072 -19.5702 0.03 300.034 
46 1 1 1.04604 0.23993 1.64411 0 0 0 1.86202 -0.168374 -0.181532 0 0 -2.77371 -2.90245 29.1062 -24.3177 0.03 301.114 
187 1 1 0.492413 0.29785 1.65036 0 0 0 0.630537 -0.218494 -0.942584 -3.13326 -0.816168 0.618224 18.0407 11.0711 -13.4641 0.03 300.014 
44 1 1 0.717152 0.294782 1.63618 0 0 0 1.40738 0.0768462 -0.667069 0 0 -2.77371 -7.58956 14.9275 29.3808 0.03 300.826 
300 1 1 0.154361 0.325463 1.63428 0 0 0 -0.412359 0.226519 -0.970018 0 0 -2.77371 -14.6469 -79.6802 11.9797 0.03 300.004 
180 1 1 0.293287 0.317094 1.63983 0 0 0 0.0955874 -0.349471 -1.25328 0 0 -2.77371 -8.55779 -22.8123 -12.7778 0.03 300.002 
71 1 1 0.375091 0.330993 1.65595 0 0 0 0.424506 0.123271 0.819468 19.9213 -23.4469 -16.4225 11.9603 59.6199 -7.62213 0.03 300.851 
181 1 1 0.434196 0.304635 1.67003 0 0 0 0.728885 -0.62024 0.391731 0 0 -2.77371 40.1074 -26.529 -12.9084 0.03 300.018 
176 1 1 0.357761 0.384973 1.67162 0 0 0 0.504153 0.19303 -0.302814 9.46934 -44.3711 -165.879 -39.4969 -48.3058 11.4425 0.03 300.018 
6 1 1 0.359857 0.436877 1.63806 0 0 0 0.502155 0.189903 -0.216686 -2.93855 4.41595 -54.1194 30.087 -10.6456 -1.66555 0.03 300.312 
249 1 1 0.165597 0.46547 1.6218 0 0 0 -0.493732 0.546115 -1.46914 -18.7223 -4.43961 9.25108 -21.9678 22.152 -1.82416 0.03 300.067 
130 1 1 1.0392 0.469791 1.64491 0 0 0 2.01452 -0.115907 0.527402 0 0 -2.77371 -1.80228 -25.3021 -0.648071 0.03 300.511 
276 1 1 0.292169 0.517331 1.61806 0 0 0 0.760644 0.47335 -0.241093 6.01819 10.6851 103.984 -13.6946 41.7138 1.57061 0.03 300.081 
20 1 1 0.847757 0.488145 1.63803 0 0 0 1.71329 0.294661 -0.0627236 0 0 -2.77371 -3.91298 34.2939 2.25399 0.03 301.152 
149 1 1 0.916994 0.497578 1.64382 0 0 0 2.00839 0.0967977 -0.302606 0 0 -2.77371 10.7463 -19.5596 -8.52746 0.03 300.579 
301 1 1 0.177103 0.535962 1.65072 0 0 0 -0.542462 0.584275 -1.51484 0 0 -2.77371 6.04357 -16.4086 7.28738 0.03 300 
150 1 1 0.584602 0.547958 1.64539 0 0 0 1.15194 0.105613 0.49534 0 0 -2.77371 -11.144 23.7323 26.5323 0.03 300.741 
129 1 1 0.268616 0.62645 1.6638 0 0 0 1.26868 0.466353 0.485815 0 0 -2.77371 -16.2027 -52.7064 -40.2018 0.03 303.437 
138 1 1 0.489646 0.606056 1.65593 0 0 0 1.59728 0.155693 0.143439 -14.5677 11.8277 17.4027 -21.413 52.1581 45.0603 0.03 300.193 
89 1 1 0.436374 0.628434 1.63771 0 0 0 1.50932 -0.124151 -0.148879 0.823762 -1.14149 -1.58318 5.93107 -61.8568 -40.7251 0.03 308.903 
17 1 1 0.558226 0.641443 1.65032 0 0 0 1.53348 0.068388 -0.106094 4.74699 -5.9088 8.48093 -29.5413 -17.9023 -45.1435 0.03 303.872 
156 1 1 0.850948 0.624484 1.63366 0 0 0 1.40639 -0.561881 -0.561878 -9.83589e-06 -0.988962 -0.988616 26.5734 -64.8824 -57.779 0.03 332.206 
99 1 1 0.696407 0.658359 1.6676 0 0 0 1.95986 -0.0326532 -0.0553415 -0.639674 -1.89496 -1.91602 6.36381 -38.0482 -63.7905 0.03 316.577 
137 1 1 0.322263 0.0686075 1.69435 0 0 0 0.930091 0.129066 -0.141088 0.516584 0.868633 -0.532425 3.19894 -64.3063 73.6958 0.03 310.482 
165 1 1 0.915299 0.068819 1.69413 0 0 0 2.0558 0.168415 -0.184425 0.109856 0.816655 -0.192759 -8.29966 -25.8368 66.0464 0.03 310.282 
62 1 1 0.280718 0.107741 1.66453 0 0 0 -0.228548 -0.711251 -1.01333 0 0 -2.77371 -30.9519 -75.8821 -17.4077 0.03 300.029 
76 1 1 0.437853 0.0976555 1.69756 0 0 0 0.844591 -0.491443 -0.278327 0 0 -2.77371 13.0902 83.2212 -49.4108 0.03 301.053 
49 1 1 0.624489 0.113746 1.67849 0 0 0 2.19511 0.23437 -0.0220936 0 0 -2.77371 9.58934 -29.9601 32.6239 0.03 306.835 
333 1 1 0.407206 0.185333 1.67782 0 0 0 0.459132 -0.608979 0.0157561 0 0 -2.77371 12.2467 -19.0659 14.8296 0.03 300.126 
213 1 1 0.127162 0.240087 1.64893 0 0 0 0.516877 -1.13201 -1.75582 8.66342 -11.419 2.31841 3.31739 6.76092 4.51964 0.03 300.001 
221 1 1 0.43685 0.24331 1.66975 0 0 0 0.462352 -1.07541 -0.775244 0 0 -2.77371 3.28517 1.44802 6.44091 0.03 300.001 
322 1 1 0.501453 0.243347 1.67252 0 0 0 0.426688 -0.287407 -0.644351 6.19904 6.13468 1.00425 -14.186 -28.5369 0.88308 0.03 300.019 
257 1 1 0.107883 0.30308 1.67295 0 0 0 0 0 -2.88808 0 0 -2.77371 0 0 0 0.03 300 
230 1 1 0.25891 0.278897 1.67557 0 0 0 0.123935 -0.450327 -2.12091 -3.07351 -38.1214 79.2094 17.0647 6.81674 -5.03126 0.03 300 
340 1 1 0.244147 0.338751 1.68676 0 0 0 0.595588 0.315325 0.526255 0.058414 -0.0773788 -2.68858 68.7995 -18.9679 -16.0726 0.03 300.007 
268 1 1 0.460579 0.399199 1.67616 0 0 0 0.425954 1.04349 0.140605 0 0 -2.77371 -26.4037 -20.0155 0.77025 0.03 300.005 
291 1 1 0.52524 0.386089 1.69186 0 0 0 1.47007 0.122287 -0.733574 0 0 -2.77371 30.4849 62.0038 -37.0431 0.03 300 
178 1 1 0.318141 0.427343 1.6796 0 0 0 -0.282731 0.191283 -2.49647 -7.72835 8.90501 60.1232 -15.4899 -15.1836 -6.77002 0.03 300 
296 1 1 0.547862 0.442255 1.67789 0 0 0 1.37531 0.412695 -1.0088 0 0 -2.77371 -8.41239 7.54148 29.6159 0.03 300.008 
246 1 1 0.107302 0.455042 1.66012 0 0 0 0 0 -2.93134 0 0 -2.77371 0 0 0 0.03 300 
226 1 1 0.253931 0.465065 1.66421 0 0 0 0 0 -2.91761 0 0 -2.77371 0 0 0 0.03 300 
243 1 1 0.486549 0.49063 1.67816 0 0 0 0.441993 0.241339 -0.493016 24.8014 2.773 -2.82819 22.4508 -32.2306 -2.07175 0.03 300.019 
224 1 1 0.391707 0.523928 1.6724 0 0 0 0.0972808 -0.294141 -0.242073 -5.80109 -17.2257 137.296 -12.8973 -34.3739 -3.08554 0.03 300.002 
57 1 1 0.396319 0.669107 1.67827 0 0 0 1.14771 -0.0109964 -0.00507097 0.930147 -1.36171 -1.49884 6.89246 5.50601 -0.718376 0.03 307.674 
27 1 1 0.59796 0.683855 1.69328 0 0 0 1.94165 0.0946531 0.148594 -0.118524 0.861765 -3.09629 -6.16645 -51.193 -45.9858 0.03 306.313 
196 1 1 0.358877 0.233898 1.70906 0 0 0 -0.0715164 -0.205416 -2.34763 -15.7456 -69.7976 135.001 1.80867 7.43189 3.9752 0.03 300 
245 1 1 0.160535 0.375989 1.70971 0 0 0 0 0 -2.76036 0 0 -2.77371 0 0 0 0.03 300 
352 1 1 0.377854 0.441153 1.70251 0 0 0 0 0 -2.78586 0 0 -2.77371 0 0 0 0.03 300 
265 1 1 0.445983 0.454594 1.70071 0 0 0 -0.0978511 -0.0883924 -2.5222 -16.7095 -14.9889 23.1645 10.4671 -11.7655 -0.0656442 0.03 300 
93 1 1 0.219066 0.683023 1.73088 0 0 0 -0.0613205 1.00533 -0.0743124 0 0 -2.77371 -31.8754 6.51144 -11.2183 0.03 300.067 
209 1 1 0.352404 0.322469 1.74719 0 0 0 0 0 -2.6238 0 0 -2.77371 0 0 0 0.03 300 
254 1 1 0.380226 0.376467 1.72453 0 0 0 -0.0663847 0.145025 -2.33805 -18.7238 54.4971 162.429 15.1711 16.5921 -3.78585 0.03 300 
270 1 1 0.207615 0.426676 1.74031 0 0 0 0 0 -2.6494 0 0 -2.77371 0 0 0 0.03 300 
248 1 1 0.155073 0.291265 1.77541 0 0 0 0 0 -2.51609 0 0 -2.77371 0 0 0 0.03 300 
313 1 1 0.439938 0.327558 1.7646 0 0 0 0 0 -2.55788 0 0 -2.77371 0 0 0 0.03 300 
204 1 1 0.215487 0.347963 1.78567 0 0 0 0 0 -2.47577 0 0 -2.77371 0 0 0 0.03 300 
346 1 1 0.2812 0.398881 1.78092 0 0 0 0 0 -2.4945 0 0 -2.77371 0 0 0 0.03 300 
335 1 1 0.429091 0.407041 1.78733 0 0 0 0 0 -2.46919 0 0 -2.77371 0 0 0 0.03 300 
279 1 1 0.157212 0.495968 1.76271 0 0 0 0 0 -2.56514 0 0 -2.77371 0 0 0 0.03 300 
217 1 1 0.461801 0.523439 1.78648 0 0 0 0 0 -2.47253 0 0 -2.77371 0 0 0 0.03 300 
317 1 1 0.252263 0.228507 1.79117 0 0 0 0 0 -2.45389 0 0 -2.77371 0 0 0 0.03 300 
252 1 1 0.442785 0.262265 1.79518 0 0 0 0 0 -2.4378 0 0 -2.77371 0 0 0 0.03 300 
193 1 1 0.281872 0.329623 1.81956 0 0 0 0 0 -2.33764 0 0 -2.77371 0 0 0 0.03 300 
272 1 1 0.116473 0.427779 1.8252 0 0 0 0 0 -2.3138 0 0 -2.77371 0 0 0 0.03 300 
239 1 1 0.490736 0.457949 1.81298 0 0 0 0 0 -2.36511 0 0 -2.77371 0 0 0 0.03 300 
201 1 1 0.360389 0.493184 1.81167 0 0 0 0 0 -2.37051 0 0 -2.77371 0 0 0 0.03 300 
305 1 1 0.346674 0.257421 1.84567 0 0 0 0 0 -2.22532 0 0 -2.77371 0 0 0 0.03 300 
233 1 1 0.496558 0.3336 1.85809 0 0 0 0 0 -2.16989 0 0 -2.77371 0 0 0 0.03 300 
237 1 1 0.207046 0.471117 1.84663 0 0 0 0 0 -2.2211 0 0 -2.77371 0 0 0 0.03 300 
262 1 1 0.417911 0.469013 1.84544 0 0 0 0 0 -2.2264 0 0 -2.77371 0 0 0 0.03 300 
263 1 1 0.269308 0.500141 1.84927 0 0 0 0 0 -2.20943 0 0 -2.77371 0 0 0 0.03 300 
351 1 1 0.181906 0.258163 1.87677 0 0 0 0 0 -2.08376 0 0 -2.77371 0 0 0 0.03 300 
319 1 1 0.490886 0.237209 1.89085 0 0 0 0 0 -2.01637 0 0 -2.77371 0 0 0 0.03 300 
298 1 1 0.133415 0.358363 1.88414 0 0 0 0 0 -2.04874 0 0 -2.77371 0 0 0 0.03 300 
334 1 1 0.38649 0.410383 1.89252 0 0 0 0 0 -2.00822 0 0 -2.77371 0 0 0 0.03 300 
303 1 1 0.114998 0.510423 1.86537 0 0 0 0 0 -2.13673 0 0 -2.77371 0 0 0 0.03 300 
283 1 1 0.300071 0.232043 1.93268 0 0 0 0 0 -1.80143 0 0 -2.77371 0 0 0 0.03 300 
332 1 1 0.233113 0.233231 1.91772 0 0 0 0 0 -1.88109 0 0 -2.77371 0 0 0 0.03 300 
206 1 1 0.126939 0.284236 1.91158 0 0 0 0 0 -1.91287 0 0 -2.77371 0 0 0 0.03 300 
194 1 1 0.257372 0.298287 1.91808 0 0 0 0 0 -1.87922 0 0 -2.77371 0 0 0 0.03 300 
231 1 1 0.39189 0.276895 1.91852 0 0 0 0 0 -1.87696 0 0 -2.77371 0 0 0 0.03 300 
347 1 1 0.332014 0.322805 1.91601 0 0 0 0 0 -1.89001 0 0 -2.77371 0 0 0 0.03 300 
216 1 1 0.415188 0.353574 1.93341 0 0 0 0 0 -1.79741 0 0 -2.77371 0 0 0 0.03 300 
341 1 1 0.462863 0.403415 1.90105 0 0 0 0 0 -1.96614 0 0 -2.77371 0 0 0 0.03 300 
208 1 1 0.292126 0.417938 1.91986 0 0 0 0 0 -1.8699 0 0 -2.77371 0 0 0 0.03 300 
338 1 1 0.455834 0.299724 1.93749 0 0 0 0 0 -1.77504 0 0 -2.77371 0 0 0 0.03 300 