ITEM: TIMESTEP
30000
ITEM: NUMBER OF ATOMS
176
ITEM: BOX BOUNDS ff ff ff
0 3.3
-0.3 0.8
-0.5 3
ITEM: ATOMS id type type x y z ix iy iz vx vy vz fx fy fz omegax omegay omegaz radius f_Temp[0] 
108 1 1 0.201622 0.231672 1.59109 0 0 0 1.19593 0 0.77026 0 0 -2.77371 0 -95.0139 0 0.03 303.946 
41 1 1 0.136967 0.267031 1.59391 0 0 0 1.196 0 0.733538 0 0 -2.77371 0 -95.0164 0 0.03 303.946 
67 1 1 0.382665 0.235311 1.57709 0 0 0 0.884683 -0.175107 0.218191 3.34025 2.23513 -7.71985 3.44083 -100.463 0.0916248 0.03 307.089 
142 1 1 0.320867 0.292457 1.60197 0 0 0 1.19595 0 0.616407 0 0 -2.77371 0 -95.0133 0 0.03 303.946 
14 1 1 0.437572 0.277138 1.57977 0 0 0 1.05921 0.557001 -1.70083 0 0 -2.77371 -27.7948 55.7014 0.0916248 0.03 300.029 
124 1 1 0.158209 0.326026 1.60238 0 0 0 1.19597 0 0.609827 0 0 -2.77371 0 -95.0146 0 0.03 303.946 
86 1 1 0.249914 0.320727 1.58222 0 0 0 1.44835 -0.819789 -0.938733 0 0 -2.77371 -21.8299 -88.1823 -4.93088 0.03 303.919 
8 1 1 0.381707 0.307815 1.58501 0 0 0 0.887871 -0.619239 -1.08633 -47.0307 -62.4451 -57.3973 -47.0679 -53.4964 -5.09218 0.03 303.931 
133 1 1 0.510465 0.311123 1.59662 0 0 0 1.19607 0 0.696718 0 0 -2.77371 0 -95.0198 0 0.03 303.946 
23 1 1 0.340245 0.363857 1.58759 0 0 0 1.1053 -0.0240483 0.242197 0 0 -2.77371 -6.28395 -76.6332 1.19547 0.03 304.224 
96 1 1 0.417448 0.384819 1.59122 0 0 0 1.7642 0.327793 0.00766412 1.04106 24.9126 -46.9231 21.5589 -86.1289 -3.91949 0.03 303.79 
82 1 1 0.517486 0.38473 1.60178 0 0 0 1.23049 -0.0114521 0.506618 18.5127 -8.11186 -60.0641 -4.42932 -99.4174 -0.89785 0.03 303.946 
163 1 1 0.120495 0.438662 1.58053 0 0 0 1.19594 0 0.894733 0 0 -2.77371 0 -95.0146 0 0.03 303.946 
30 1 1 0.200515 0.4242 1.58464 0 0 0 1.19602 0 0.848419 0 0 -2.77371 0 -95.0187 0 0.03 303.946 
10 1 1 0.274391 0.433913 1.59224 0 0 0 1.19595 0 0.755512 0 0 -2.77371 0 -95.0134 0 0.03 303.946 
32 1 1 0.377045 0.44487 1.58669 0 0 0 1.19591 0 0.82446 0 0 -2.77371 0 -95.011 0 0.03 303.946 
103 1 1 0.214253 0.484752 1.57222 0 0 0 1.61399 0 0.740792 -40.7814 0 173.921 0 -127.977 0 0.03 302.142 
54 1 1 0.304471 0.490166 1.58834 0 0 0 1.19591 0 0.804651 0 0 -2.77371 0 -95.0109 0 0.03 303.946 
140 1 1 0.524107 0.484878 1.60481 0 0 0 1.19616 0 0.570001 0 0 -2.77371 0 -94.9995 0 0.03 303.947 
113 1 1 0.423936 0.526215 1.60473 0 0 0 1.19613 0 0.57136 0 0 -2.77371 0 -94.9992 0 0.03 303.947 
122 1 1 0.22181 0.375817 1.61769 0 0 0 -0.252298 0.819789 -1.60562 0 0 -2.77371 -21.8299 6.81128 -4.93088 0.03 300.027 
100 1 1 0.448041 0.468779 1.60595 0 0 0 0 0 -3.10734 0 0 -2.77371 0 0 0 0.03 300 
63 1 1 0.14636 0.503077 1.60028 0 0 0 0 0 -3.12519 0 0 -2.77371 0 0 0 0.03 300 
47 1 1 0.261488 0.255288 1.63553 0 0 0 0 0 -3.01247 0 0 -2.77371 0 0 0 0.03 300 
45 1 1 0.402359 0.340363 1.62548 0 0 0 0.336929 0.444611 -0.600452 45.9896 37.5325 95.9992 -20.2923 29.8826 -10.2071 0.03 300.023 
174 1 1 0.478895 0.416332 1.6337 0 0 0 -0.0343278 0.0114521 -2.90573 -18.5127 8.11186 54.5167 -4.42932 -4.41796 -0.89785 0.03 300.001 
120 1 1 0.108446 0.229956 1.66313 0 0 0 0 0 -2.92124 0 0 -2.77371 0 0 0 0.03 300 
112 1 1 0.200031 0.295208 1.6656 0 0 0 0 0 -2.9129 0 0 -2.77371 0 0 0 0.03 300 
60 1 1 0.321495 0.290282 1.67942 0 0 0 0 0 -2.86601 0 0 -2.77371 0 0 0 0.03 300 
172 1 1 0.339305 0.526873 1.65729 0 0 0 0 0 -2.94076 0 0 -2.77371 0 0 0 0.03 300 
162 1 1 0.428387 0.521279 1.67735 0 0 0 0 0 -2.87307 0 0 -2.77371 0 0 0 0.03 300 
85 1 1 0.47306 0.247248 1.69182 0 0 0 0 0 -2.82324 0 0 -2.77371 0 0 0 0.03 300 
64 1 1 0.141892 0.342884 1.68718 0 0 0 0 0 -2.83933 0 0 -2.77371 0 0 0 0.03 300 
131 1 1 0.248477 0.419376 1.71451 0 0 0 0 0 -2.74329 0 0 -2.77371 0 0 0 0.03 300 
79 1 1 0.320497 0.448247 1.68595 0 0 0 0 0 -2.84354 0 0 -2.77371 0 0 0 0.03 300 
39 1 1 0.380355 0.466663 1.68953 0 0 0 0 0 -2.83118 0 0 -2.77371 0 0 0 0.03 300 
87 1 1 0.377721 0.27376 1.72859 0 0 0 0 0 -2.69247 0 0 -2.77371 0 0 0 0.03 300 
78 1 1 0.178322 0.227864 1.78133 0 0 0 0 0 -2.49293 0 0 -2.77371 0 0 0 0.03 300 
13 1 1 0.121033 0.279919 1.7567 0 0 0 0 0 -2.58799 0 0 -2.77371 0 0 0 0.03 300 
59 1 1 0.253616 0.343212 1.76245 0 0 0 0 0 -2.56612 0 0 -2.77371 0 0 0 0.03 300 
152 1 1 0.163069 0.521312 1.78092 0 0 0 0 0 -2.4945 0 0 -2.77371 0 0 0 0.03 300 
109 1 1 0.275498 0.521202 1.76736 0 0 0 0 0 -2.54728 0 0 -2.77371 0 0 0 0.03 300 
46 1 1 0.47999 0.300848 1.80989 0 0 0 0 0 -2.37786 0 0 -2.77371 0 0 0 0.03 300 
29 1 1 0.368876 0.379155 1.80126 0 0 0 0 0 -2.41318 0 0 -2.77371 0 0 0 0.03 300 
36 1 1 0.450724 0.395688 1.79641 0 0 0 0 0 -2.4328 0 0 -2.77371 0 0 0 0.03 300 
66 1 1 0.47867 0.463 1.81724 0 0 0 0 0 -2.34735 0 0 -2.77371 0 0 0 0.03 300 
168 1 1 0.476176 0.52212 1.7908 0 0 0 0 0 -2.45536 0 0 -2.77371 0 0 0 0.03 300 
173 1 1 0.336956 0.309745 1.84581 0 0 0 0 0 -2.22473 0 0 -2.77371 0 0 0 0.03 300 
69 1 1 0.10427 0.421706 1.85288 0 0 0 0 0 -2.19334 0 0 -2.77371 0 0 0 0.03 300 
145 1 1 0.320399 0.410893 1.84626 0 0 0 0 0 -2.22277 0 0 -2.77371 0 0 0 0.03 300 
167 1 1 0.400748 0.432213 1.82986 0 0 0 0 0 -2.29399 0 0 -2.77371 0 0 0 0.03 300 
121 1 1 0.170319 0.453329 1.85165 0 0 0 0 0 -2.19883 0 0 -2.77371 0 0 0 0.03 300 
49 1 1 0.281286 0.254094 1.87518 0 0 0 0 0 -2.09122 0 0 -2.77371 0 0 0 0.03 300 
155 1 1 0.415544 0.252674 1.87675 0 0 0 0 0 -2.08386 0 0 -2.77371 0 0 0 0.03 300 
101 1 1 0.162335 0.320161 1.88821 0 0 0 0 0 -2.02922 0 0 -2.77371 0 0 0 0.03 300 
42 1 1 0.226232 0.388276 1.87737 0 0 0 0 0 -2.08091 0 0 -2.77371 0 0 0 0.03 300 
99 1 1 0.274564 0.455213 1.87235 0 0 0 0 0 -2.10446 0 0 -2.77371 0 0 0 0.03 300 
18 1 1 0.427577 0.512648 1.87884 0 0 0 0 0 -2.07395 0 0 -2.77371 0 0 0 0.03 300 
156 1 1 0.35506 0.52072 1.86757 0 0 0 0 0 -2.12663 0 0 -2.77371 0 0 0 0.03 300 
58 1 1 0.112056 0.26459 1.9136 0 0 0 0 0 -1.90247 0 0 -2.77371 0 0 0 0.03 300 
91 1 1 0.235855 0.316318 1.89851 0 0 0 0 0 -1.97879 0 0 -2.77371 0 0 0 0.03 300 
81 1 1 0.388958 0.319017 1.91213 0 0 0 0 0 -1.91002 0 0 -2.77371 0 0 0 0.03 300 
130 1 1 0.385847 0.398302 1.93256 0 0 0 0 0 -1.80202 0 0 -2.77371 0 0 0 0.03 300 
92 1 1 0.481853 0.374694 1.92164 0 0 0 0 0 -1.86058 0 0 -2.77371 0 0 0 0.03 300 
105 1 1 0.377689 0.467755 1.91898 0 0 0 0 0 -1.87451 0 0 -2.77371 0 0 0 0.03 300 
118 1 1 0.120657 0.516447 1.90331 0 0 0 0 0 -1.95486 0 0 -2.77371 0 0 0 0.03 300 
158 1 1 0.2596 0.52473 1.92904 0 0 0 0 0 -1.82115 0 0 -2.77371 0 0 0 0.03 300 
157 1 1 0.485815 0.521722 1.92526 0 0 0 0 0 -1.84135 0 0 -2.77371 0 0 0 0.03 300 
15 1 1 0.188775 0.261917 1.95884 0 0 0 0 0 -1.65281 0 0 -2.77371 0 0 0 0.03 300 
80 1 1 0.478513 0.241448 1.94801 0 0 0 0 0 -1.71588 0 0 -2.77371 0 0 0 0.03 300 
143 1 1 0.326798 0.368865 1.95537 0 0 0 0 0 -1.67331 0 0 -2.77371 0 0 0 0.03 300 
135 1 1 0.110104 0.424702 1.96732 0 0 0 0 0 -1.6017 0 0 -2.77371 0 0 0 0.03 300 
61 1 1 0.174746 0.456274 1.96711 0 0 0 0 0 -1.60297 0 0 -2.77371 0 0 0 0.03 300 
9 1 1 0.441781 0.458388 1.96909 0 0 0 0 0 -1.59081 0 0 -2.77371 0 0 0 0.03 300 
117 1 1 0.191604 0.522741 1.95267 0 0 0 0 0 -1.68901 0 0 -2.77371 0 0 0 0.03 300 
76 1 1 0.262374 0.280345 1.97379 0 0 0 0 0 -1.56157 0 0 -2.77371 0 0 0 0.03 300 
159 1 1 0.463712 0.3119 1.98887 0 0 0 0 0 -1.46377 0 0 -2.77371 0 0 0 0.03 300 
3 1 1 0.103577 0.34242 1.99426 0 0 0 0 0 -1.42718 0 0 -2.77371 0 0 0 0.03 300 
132 1 1 0.181507 0.370772 1.99684 0 0 0 0 0 -1.40932 0 0 -2.77371 0 0 0 0.03 300 
50 1 1 0.301622 0.417346 1.99699 0 0 0 0 0 -1.40824 0 0 -2.77371 0 0 0 0.03 300 
169 1 1 0.252456 0.475054 1.99034 0 0 0 0 0 -1.45386 0 0 -2.77371 0 0 0 0.03 300 
16 1 1 0.119943 0.514428 2.00767 0 0 0 0 0 -1.33182 0 0 -2.77371 0 0 0 0.03 300 
83 1 1 0.499782 0.483801 2.00323 0 0 0 0 0 -1.3641 0 0 -2.77371 0 0 0 0.03 300 
2 1 1 0.337972 0.524085 1.98251 0 0 0 0 0 -1.50575 0 0 -2.77371 0 0 0 0.03 300 
139 1 1 0.137853 0.229319 2.03688 0 0 0 0 0 -1.09579 0 0 -2.77371 0 0 0 0.03 300 
88 1 1 0.486268 0.228152 2.03488 0 0 0 0 0 -1.11355 0 0 -2.77371 0 0 0 0.03 300 
125 1 1 0.33817 0.237417 2.00941 0 0 0 0 0 -1.31897 0 0 -2.77371 0 0 0 0.03 300 
7 1 1 0.417913 0.266516 2.03765 0 0 0 0 0 -1.08883 0 0 -2.77371 0 0 0 0.03 300 
19 1 1 0.315839 0.298576 2.01256 0 0 0 0 0 -1.29533 0 0 -2.77371 0 0 0 0.03 300 
51 1 1 0.201805 0.313726 2.03895 0 0 0 0 0 -1.07706 0 0 -2.77371 0 0 0 0.03 300 
94 1 1 0.273851 0.347383 2.02268 0 0 0 0 0 -1.21626 0 0 -2.77371 0 0 0 0.03 300 
20 1 1 0.379347 0.368828 2.01509 0 0 0 0 0 -1.276 0 0 -2.77371 0 0 0 0.03 300 
151 1 1 0.494801 0.397371 2.01451 0 0 0 0 0 -1.28042 0 0 -2.77371 0 0 0 0.03 300 
27 1 1 0.362553 0.476213 2.01962 0 0 0 0 0 -1.24069 0 0 -2.77371 0 0 0 0.03 300 
137 1 1 0.250314 0.231914 2.06548 0 0 0 -0 -0 -1 0 0 0 0 0 0 0.03 300 
165 1 1 0.36833 0.235983 2.06656 0 0 0 -0 -0 -1 0 0 0 0 0 0 0.03 300 
12 1 1 0.150682 0.290471 2.0748 0 0 0 -0 -0 -1 0 0 0 0 0 0 0.03 300 
144 1 1 0.368613 0.311971 2.05108 0 0 0 -0 -0 -1 0 0 0 0 0 0 0.03 300 
56 1 1 0.445152 0.350079 2.04959 0 0 0 -0 -0 -1 0 0 0 0 0 0 0.03 300 
104 1 1 0.324371 0.382136 2.0586 0 0 0 -0 -0 -1 0 0 0 0 0 0 0.03 300 
77 1 1 0.218563 0.442358 2.05235 0 0 0 -0 -0 -1 0 0 0 0 0 0 0.03 300 
24 1 1 0.44361 0.420007 2.05405 0 0 0 -0 -0 -1 0 0 0 0 0 0 0.03 300 
34 1 1 0.161462 0.479607 2.06776 0 0 0 -0 -0 -1 0 0 0 0 0 0 0.03 300 
4 1 1 0.283869 0.446206 2.06761 0 0 0 -0 -0 -1 0 0 0 0 0 0 0.03 300 
57 1 1 0.255601 0.512634 2.04984 0 0 0 -0 -0 -1 0 0 0 0 0 0 0.03 300 
149 1 1 0.457968 0.50649 2.05254 0 0 0 -0 -0 -1 0 0 0 0 0 0 0.03 300 
75 1 1 0.387927 0.516304 2.06092 0 0 0 -0 -0 -1 0 0 0 0 0 0 0.03 300 
114 1 1 0.101873 0.240116 2.11116 0 0 0 -0 -0 -1 0 0 0 0 0 0 0.03 300 
115 1 1 0.29951 0.265646 2.09216 0 0 0 -0 -0 -1 0 0 0 0 0 0 0.03 300 
1 1 1 0.44893 0.24186 2.11297 0 0 0 -0 -0 -1 0 0 0 0 0 0 0.03 300 
170 1 1 0.448147 0.302404 2.09869 0 0 0 -0 -0 -1 0 0 0 0 0 0 0.03 300 
11 1 1 0.20764 0.30353 2.10911 0 0 0 -0 -0 -1 0 0 0 0 0 0 0.03 300 
71 1 1 0.27192 0.349064 2.1139 0 0 0 -0 -0 -1 0 0 0 0 0 0 0.03 300 
21 1 1 0.18594 0.400862 2.08782 0 0 0 -0 -0 -1 0 0 0 0 0 0 0.03 300 
126 1 1 0.387846 0.395075 2.09081 0 0 0 -0 -0 -1 0 0 0 0 0 0 0.03 300 
160 1 1 0.115232 0.435564 2.10022 0 0 0 -0 -0 -1 0 0 0 0 0 0 0.03 300 
106 1 1 0.375691 0.47682 2.10766 0 0 0 -0 -0 -1 0 0 0 0 0 0 0.03 300 
129 1 1 0.201147 0.51232 2.10784 0 0 0 -0 -0 -1 0 0 0 0 0 0 0.03 300 
26 1 1 0.474436 0.482152 2.10708 0 0 0 -0 -0 -1 0 0 0 0 0 0 0.03 300 
161 1 1 0.383875 0.233035 2.1362 0 0 0 -0 -0 -1 0 0 0 0 0 0 0.03 300 
127 1 1 0.381994 0.300043 2.1408 0 0 0 -0 -0 -1 0 0 0 0 0 0 0.03 300 
33 1 1 0.10471 0.363257 2.12227 0 0 0 -0 -0 -1 0 0 0 0 0 0 0.03 300 
35 1 1 0.342434 0.364463 2.12618 0 0 0 -0 -0 -1 0 0 0 0 0 0 0.03 300 
44 1 1 0.485944 0.343638 2.15039 0 0 0 -0 -0 -1 0 0 0 0 0 0 0.03 300 
141 1 1 0.429803 0.380165 2.14189 0 0 0 -0 -0 -1 0 0 0 0 0 0 0.03 300 
38 1 1 0.303454 0.414467 2.13292 0 0 0 -0 -0 -1 0 0 0 0 0 0 0.03 300 
111 1 1 0.473074 0.424163 2.14635 0 0 0 -0 -0 -1 0 0 0 0 0 0 0.03 300 
154 1 1 0.211019 0.445658 2.12167 0 0 0 -0 -0 -1 0 0 0 0 0 0 0.03 300 
89 1 1 0.26845 0.48437 2.11991 0 0 0 -0 -0 -1 0 0 0 0 0 0 0.03 300 
90 1 1 0.102204 0.238351 2.18553 0 0 0 -0 -0 -1 0 0 0 0 0 0 0.03 300 
97 1 1 0.184928 0.234672 2.17277 0 0 0 -0 -0 -1 0 0 0 0 0 0 0.03 300 
74 1 1 0.248328 0.247523 2.17851 0 0 0 -0 -0 -1 0 0 0 0 0 0 0.03 300 
146 1 1 0.495146 0.246598 2.15254 0 0 0 -0 -0 -1 0 0 0 0 0 0 0.03 300 
5 1 1 0.160428 0.3182 2.17871 0 0 0 -0 -0 -1 0 0 0 0 0 0 0.03 300 
175 1 1 0.230789 0.339127 2.18237 0 0 0 -0 -0 -1 0 0 0 0 0 0 0.03 300 
166 1 1 0.165431 0.374869 2.15499 0 0 0 -0 -0 -1 0 0 0 0 0 0 0.03 300 
28 1 1 0.222318 0.404493 2.16476 0 0 0 -0 -0 -1 0 0 0 0 0 0 0.03 300 
119 1 1 0.126835 0.482642 2.15437 0 0 0 -0 -0 -1 0 0 0 0 0 0 0.03 300 
93 1 1 0.225968 0.488444 2.17161 0 0 0 -0 -0 -1 0 0 0 0 0 0 0.03 300 
134 1 1 0.443832 0.509496 2.17848 0 0 0 -0 -0 -1 0 0 0 0 0 0 0.03 300 
62 1 1 0.329189 0.252757 2.1882 0 0 0 -0 -0 -1 0 0 0 0 0 0 0.03 300 
40 1 1 0.408343 0.240904 2.2208 0 0 0 -0 -0 -1 0 0 0 0 0 0 0.03 300 
43 1 1 0.460616 0.284913 2.19675 0 0 0 -0 -0 -1 0 0 0 0 0 0 0.03 300 
95 1 1 0.346797 0.327727 2.19259 0 0 0 -0 -0 -1 0 0 0 0 0 0 0.03 300 
25 1 1 0.278223 0.363632 2.21196 0 0 0 -0 -0 -1 0 0 0 0 0 0 0.03 300 
123 1 1 0.48159 0.360101 2.21449 0 0 0 -0 -0 -1 0 0 0 0 0 0 0.03 300 
116 1 1 0.152794 0.405213 2.20527 0 0 0 -0 -0 -1 0 0 0 0 0 0 0.03 300 
128 1 1 0.355123 0.421294 2.19732 0 0 0 -0 -0 -1 0 0 0 0 0 0 0.03 300 
37 1 1 0.41824 0.41741 2.19001 0 0 0 -0 -0 -1 0 0 0 0 0 0 0.03 300 
98 1 1 0.491139 0.43458 2.21869 0 0 0 -0 -0 -1 0 0 0 0 0 0 0.03 300 
138 1 1 0.301221 0.470777 2.20913 0 0 0 -0 -0 -1 0 0 0 0 0 0 0.03 300 
17 1 1 0.345254 0.512161 2.19021 0 0 0 -0 -0 -1 0 0 0 0 0 0 0.03 300 
22 1 1 0.254767 0.230824 2.25097 0 0 0 -0 -0 -1 0 0 0 0 0 0 0.03 300 
73 1 1 0.170916 0.265084 2.25451 0 0 0 -0 -0 -1 0 0 0 0 0 0 0.03 300 
171 1 1 0.477654 0.251099 2.25033 0 0 0 -0 -0 -1 0 0 0 0 0 0 0.03 300 
110 1 1 0.10205 0.273683 2.25359 0 0 0 -0 -0 -1 0 0 0 0 0 0 0.03 300 
31 1 1 0.221691 0.336081 2.24246 0 0 0 -0 -0 -1 0 0 0 0 0 0 0.03 300 
68 1 1 0.400811 0.324654 2.22473 0 0 0 -0 -0 -1 0 0 0 0 0 0 0.03 300 
84 1 1 0.227036 0.399722 2.23273 0 0 0 -0 -0 -1 0 0 0 0 0 0 0.03 300 
148 1 1 0.12082 0.460146 2.25005 0 0 0 -0 -0 -1 0 0 0 0 0 0 0.03 300 
55 1 1 0.200976 0.455034 2.22831 0 0 0 -0 -0 -1 0 0 0 0 0 0 0.03 300 
136 1 1 0.374023 0.456818 2.24267 0 0 0 -0 -0 -1 0 0 0 0 0 0 0.03 300 
72 1 1 0.10161 0.511094 2.22218 0 0 0 -0 -0 -1 0 0 0 0 0 0 0.03 300 
65 1 1 0.421483 0.499457 2.25254 0 0 0 -0 -0 -1 0 0 0 0 0 0 0.03 300 
48 1 1 0.17066 0.517967 2.23622 0 0 0 -0 -0 -1 0 0 0 0 0 0 0.03 300 
164 1 1 0.244978 0.28843 2.27115 0 0 0 -0 -0 -1 0 0 0 0 0 0 0.03 300 
107 1 1 0.303471 0.271065 2.2597 0 0 0 -0 -0 -1 0 0 0 0 0 0 0.03 300 
70 1 1 0.142707 0.355749 2.26494 0 0 0 -0 -0 -1 0 0 0 0 0 0 0.03 300 
53 1 1 0.294932 0.364362 2.27 0 0 0 -0 -0 -1 0 0 0 0 0 0 0.03 300 
102 1 1 0.419044 0.351535 2.27593 0 0 0 -0 -0 -1 0 0 0 0 0 0 0.03 300 
176 1 1 0.349719 0.399621 2.27537 0 0 0 -0 -0 -1 0 0 0 0 0 0 0.03 300 
153 1 1 0.496538 0.392613 2.26762 0 0 0 -0 -0 -1 0 0 0 0 0 0 0.03 300 
6 1 1 0.317689 0.454971 2.2724 0 0 0 -0 -0 -1 0 0 0 0 0 0 0.03 300 
147 1 1 0.248507 0.49546 2.27684 0 0 0 -0 -0 -1 0 0 0 0 0 0 0.03 300 
150 1 1 0.481625 0.503918 2.2572 0 0 0 -0 -0 -1 0 0 0 0 0 0 0.03 300 
52 1 1 0.358392 0.516981 2.27661 0 0 0 -0 -0 -1 0 0 0 0 0 0 0.03 300 
