ITEM: TIMESTEP
28000
ITEM: NUMBER OF ATOMS
176
ITEM: BOX BOUNDS ff ff ff
0 3.3
-0.3 0.8
-0.5 3
ITEM: ATOMS id type type x y z ix iy iz vx vy vz fx fy fz omegax omegay omegaz radius f_Temp[0] 
108 1 1 0.177354 0.231672 1.57301 0 0 0 1.47392 0 1.11732 -49.9765 0 85.0156 0 -117.183 0 0.03 302.631 
41 1 1 0.113047 0.267031 1.57727 0 0 0 1.196 0 0.929738 0 0 -2.77371 0 -95.0164 0 0.03 303.946 
67 1 1 0.373444 0.243177 1.58445 0 0 0 0.644148 -0.306025 -0.581074 -87.9942 -46.5012 -147.446 -31.9888 -30.7723 -1.23249 0.03 303.937 
142 1 1 0.296948 0.292457 1.58768 0 0 0 1.19595 0 0.812607 0 0 -2.77371 0 -95.0133 0 0.03 303.946 
124 1 1 0.13429 0.326026 1.58822 0 0 0 1.19597 0 0.806027 0 0 -2.77371 0 -95.0146 0 0.03 303.946 
86 1 1 0.222345 0.331338 1.58963 0 0 0 1.19606 0 0.789008 0 0 -2.77371 0 -94.9935 0 0.03 303.947 
133 1 1 0.486544 0.311123 1.58072 0 0 0 1.19607 0 0.892918 0 0 -2.77371 0 -95.0198 0 0.03 303.946 
23 1 1 0.318139 0.364338 1.58078 0 0 0 1.1053 -0.0240483 0.438397 0 0 -2.77371 -6.28395 -76.6332 1.19547 0.03 304.224 
96 1 1 0.381666 0.3816 1.57854 0 0 0 1.79305 0.153165 0.774331 0 0 -2.77371 -5.21677 -74.4924 1.19547 0.03 303.798 
82 1 1 0.493552 0.384733 1.58746 0 0 0 1.19616 0 0.815643 0 0 -2.77371 0 -94.9994 0 0.03 303.947 
10 1 1 0.250387 0.433913 1.57485 0 0 0 1.30614 0 1.24409 -25.8813 0 -23.4058 0 -103.989 0 0.03 303.38 
140 1 1 0.500184 0.484878 1.59145 0 0 0 1.19616 0 0.766201 0 0 -2.77371 0 -94.9995 0 0.03 303.947 
113 1 1 0.400013 0.526215 1.59134 0 0 0 1.19613 0 0.76756 0 0 -2.77371 0 -94.9992 0 0.03 303.947 
8 1 1 0.356482 0.30862 1.57303 0 0 0 1.18737 0 -1.66745 178.114 0 338.496 0 -95.1652 0 0.03 300.656 
163 1 1 0.105414 0.438662 1.6019 0 0 0 0 0 -3.12009 0 0 -2.77371 0 0 0 0.03 300 
30 1 1 0.179788 0.4242 1.58706 0 0 0 0 0 -3.16639 0 0 -2.77371 0 0 0 0.03 300 
32 1 1 0.353388 0.44487 1.57928 0 0 0 0 0 -3.19043 0 0 -2.77371 0 0 0 0.03 300 
54 1 1 0.279042 0.490166 1.57353 0 0 0 1.00423 0 -1.9874 204.238 0 328.753 0 -80.8765 0 0.03 300.507 
14 1 1 0.416615 0.266099 1.61145 0 0 0 0.551915 0.306025 -1.68339 87.9942 46.5012 141.898 -31.9888 64.247 -1.23249 0.03 300.01 
103 1 1 0.209546 0.484752 1.62697 0 0 0 0 0 -3.04023 0 0 -2.77371 0 0 0 0.03 300 
122 1 1 0.225457 0.365207 1.65724 0 0 0 0 0 -2.94096 0 0 -2.77371 0 0 0 0.03 300 
100 1 1 0.448041 0.468779 1.66613 0 0 0 0 0 -2.91114 0 0 -2.77371 0 0 0 0.03 300 
63 1 1 0.14636 0.503077 1.66082 0 0 0 0 0 -2.92899 0 0 -2.77371 0 0 0 0.03 300 
47 1 1 0.261488 0.255288 1.69382 0 0 0 0 0 -2.81627 0 0 -2.77371 0 0 0 0.03 300 
45 1 1 0.40205 0.339714 1.68031 0 0 0 0 0 -2.86297 0 0 -2.77371 0 0 0 0.03 300 
174 1 1 0.478905 0.416329 1.69208 0 0 0 0 0 -2.82235 0 0 -2.77371 0 0 0 0.03 300 
172 1 1 0.339305 0.526873 1.71414 0 0 0 0 0 -2.74456 0 0 -2.77371 0 0 0 0.03 300 
120 1 1 0.108446 0.229956 1.71959 0 0 0 0 0 -2.72504 0 0 -2.77371 0 0 0 0.03 300 
85 1 1 0.47306 0.247248 1.74633 0 0 0 0 0 -2.62704 0 0 -2.77371 0 0 0 0.03 300 
112 1 1 0.200031 0.295208 1.7219 0 0 0 0 0 -2.7167 0 0 -2.77371 0 0 0 0.03 300 
60 1 1 0.321495 0.290282 1.73477 0 0 0 0 0 -2.66981 0 0 -2.77371 0 0 0 0.03 300 
64 1 1 0.141892 0.342884 1.742 0 0 0 0 0 -2.64313 0 0 -2.77371 0 0 0 0.03 300 
79 1 1 0.320497 0.448247 1.74086 0 0 0 0 0 -2.64734 0 0 -2.77371 0 0 0 0.03 300 
39 1 1 0.380355 0.466663 1.74419 0 0 0 0 0 -2.63498 0 0 -2.77371 0 0 0 0.03 300 
162 1 1 0.428387 0.521279 1.73285 0 0 0 0 0 -2.67687 0 0 -2.77371 0 0 0 0.03 300 
87 1 1 0.377721 0.27376 1.78048 0 0 0 0 0 -2.49627 0 0 -2.77371 0 0 0 0.03 300 
131 1 1 0.248477 0.419376 1.76741 0 0 0 0 0 -2.54709 0 0 -2.77371 0 0 0 0.03 300 
13 1 1 0.121033 0.279919 1.8065 0 0 0 0 0 -2.39179 0 0 -2.77371 0 0 0 0.03 300 
59 1 1 0.253616 0.343212 1.81181 0 0 0 0 0 -2.36992 0 0 -2.77371 0 0 0 0.03 300 
109 1 1 0.275498 0.521202 1.81635 0 0 0 0 0 -2.35108 0 0 -2.77371 0 0 0 0.03 300 
78 1 1 0.178322 0.227864 1.82922 0 0 0 0 0 -2.29673 0 0 -2.77371 0 0 0 0.03 300 
46 1 1 0.47999 0.300848 1.85548 0 0 0 0 0 -2.18166 0 0 -2.77371 0 0 0 0.03 300 
29 1 1 0.368876 0.379155 1.84757 0 0 0 0 0 -2.21698 0 0 -2.77371 0 0 0 0.03 300 
36 1 1 0.450724 0.395688 1.84311 0 0 0 0 0 -2.2366 0 0 -2.77371 0 0 0 0.03 300 
152 1 1 0.163069 0.521312 1.82885 0 0 0 0 0 -2.2983 0 0 -2.77371 0 0 0 0.03 300 
168 1 1 0.476176 0.52212 1.83794 0 0 0 0 0 -2.25916 0 0 -2.77371 0 0 0 0.03 300 
173 1 1 0.336956 0.309745 1.88835 0 0 0 0 0 -2.02853 0 0 -2.77371 0 0 0 0.03 300 
69 1 1 0.10427 0.421706 1.89478 0 0 0 0 0 -1.99714 0 0 -2.77371 0 0 0 0.03 300 
145 1 1 0.320399 0.410893 1.88875 0 0 0 0 0 -2.02657 0 0 -2.77371 0 0 0 0.03 300 
167 1 1 0.400748 0.432213 1.87378 0 0 0 0 0 -2.09779 0 0 -2.77371 0 0 0 0.03 300 
121 1 1 0.170319 0.453329 1.89367 0 0 0 0 0 -2.00263 0 0 -2.77371 0 0 0 0.03 300 
66 1 1 0.47867 0.463 1.86222 0 0 0 0 0 -2.15115 0 0 -2.77371 0 0 0 0.03 300 
49 1 1 0.281286 0.254094 1.91504 0 0 0 0 0 -1.89502 0 0 -2.77371 0 0 0 0.03 300 
155 1 1 0.415544 0.252674 1.91646 0 0 0 0 0 -1.88766 0 0 -2.77371 0 0 0 0.03 300 
101 1 1 0.162335 0.320161 1.92683 0 0 0 0 0 -1.83302 0 0 -2.77371 0 0 0 0.03 300 
42 1 1 0.226232 0.388276 1.91703 0 0 0 0 0 -1.88471 0 0 -2.77371 0 0 0 0.03 300 
99 1 1 0.274564 0.455213 1.91248 0 0 0 0 0 -1.90826 0 0 -2.77371 0 0 0 0.03 300 
18 1 1 0.427577 0.512648 1.91836 0 0 0 0 0 -1.87775 0 0 -2.77371 0 0 0 0.03 300 
156 1 1 0.35506 0.52072 1.90814 0 0 0 0 0 -1.93043 0 0 -2.77371 0 0 0 0.03 300 
58 1 1 0.112056 0.26459 1.94969 0 0 0 0 0 -1.70627 0 0 -2.77371 0 0 0 0.03 300 
91 1 1 0.235855 0.316318 1.93612 0 0 0 0 0 -1.78259 0 0 -2.77371 0 0 0 0.03 300 
81 1 1 0.388958 0.319017 1.94837 0 0 0 0 0 -1.71382 0 0 -2.77371 0 0 0 0.03 300 
130 1 1 0.385847 0.398302 1.96664 0 0 0 0 0 -1.60582 0 0 -2.77371 0 0 0 0.03 300 
92 1 1 0.481853 0.374694 1.95689 0 0 0 0 0 -1.66438 0 0 -2.77371 0 0 0 0.03 300 
105 1 1 0.377689 0.467755 1.95451 0 0 0 0 0 -1.67831 0 0 -2.77371 0 0 0 0.03 300 
118 1 1 0.120657 0.516447 1.94044 0 0 0 0 0 -1.75866 0 0 -2.77371 0 0 0 0.03 300 
158 1 1 0.2596 0.52473 1.9635 0 0 0 0 0 -1.62495 0 0 -2.77371 0 0 0 0.03 300 
157 1 1 0.485815 0.521722 1.96012 0 0 0 0 0 -1.64515 0 0 -2.77371 0 0 0 0.03 300 
15 1 1 0.188775 0.261917 1.98993 0 0 0 0 0 -1.45661 0 0 -2.77371 0 0 0 0.03 300 
80 1 1 0.478513 0.241448 1.98036 0 0 0 0 0 -1.51968 0 0 -2.77371 0 0 0 0.03 300 
76 1 1 0.262374 0.280345 2.00306 0 0 0 0 0 -1.36537 0 0 -2.77371 0 0 0 0.03 300 
143 1 1 0.326798 0.368865 1.98687 0 0 0 0 0 -1.47711 0 0 -2.77371 0 0 0 0.03 300 
135 1 1 0.110104 0.424702 1.9974 0 0 0 0 0 -1.4055 0 0 -2.77371 0 0 0 0.03 300 
61 1 1 0.174746 0.456274 1.99721 0 0 0 0 0 -1.40677 0 0 -2.77371 0 0 0 0.03 300 
9 1 1 0.441781 0.458388 1.99895 0 0 0 0 0 -1.39461 0 0 -2.77371 0 0 0 0.03 300 
117 1 1 0.191604 0.522741 1.98449 0 0 0 0 0 -1.49281 0 0 -2.77371 0 0 0 0.03 300 
125 1 1 0.33817 0.237417 2.03383 0 0 0 0 0 -1.12277 0 0 -2.77371 0 0 0 0.03 300 
19 1 1 0.315839 0.298576 2.0365 0 0 0 0 0 -1.09913 0 0 -2.77371 0 0 0 0.03 300 
159 1 1 0.463712 0.3119 2.01619 0 0 0 0 0 -1.26757 0 0 -2.77371 0 0 0 0.03 300 
3 1 1 0.103577 0.34242 2.02084 0 0 0 0 0 -1.23098 0 0 -2.77371 0 0 0 0.03 300 
132 1 1 0.181507 0.370772 2.02307 0 0 0 0 0 -1.21312 0 0 -2.77371 0 0 0 0.03 300 
94 1 1 0.273851 0.347383 2.04504 0 0 0 0 0 -1.02006 0 0 -2.77371 0 0 0 0.03 300 
20 1 1 0.379347 0.368828 2.03864 0 0 0 0 0 -1.0798 0 0 -2.77371 0 0 0 0.03 300 
151 1 1 0.494801 0.397371 2.03816 0 0 0 0 0 -1.08422 0 0 -2.77371 0 0 0 0.03 300 
50 1 1 0.301622 0.417346 2.0232 0 0 0 0 0 -1.21204 0 0 -2.77371 0 0 0 0.03 300 
169 1 1 0.252456 0.475054 2.01746 0 0 0 0 0 -1.25766 0 0 -2.77371 0 0 0 0.03 300 
27 1 1 0.362553 0.476213 2.04247 0 0 0 0 0 -1.04449 0 0 -2.77371 0 0 0 0.03 300 
16 1 1 0.119943 0.514428 2.03235 0 0 0 0 0 -1.13562 0 0 -2.77371 0 0 0 0.03 300 
83 1 1 0.499782 0.483801 2.02855 0 0 0 0 0 -1.1679 0 0 -2.77371 0 0 0 0.03 300 
2 1 1 0.337972 0.524085 2.01067 0 0 0 0 0 -1.30955 0 0 -2.77371 0 0 0 0.03 300 
139 1 1 0.137853 0.229319 2.05735 0 0 0 -0 -0 -1 0 0 0 0 0 0 0.03 300 
88 1 1 0.486268 0.228152 2.05553 0 0 0 -0 -0 -1 0 0 0 0 0 0 0.03 300 
7 1 1 0.417913 0.266516 2.05805 0 0 0 -0 -0 -1 0 0 0 0 0 0 0.03 300 
51 1 1 0.201805 0.313726 2.05925 0 0 0 -0 -0 -1 0 0 0 0 0 0 0.03 300 
144 1 1 0.368613 0.311971 2.07108 0 0 0 -0 -0 -1 0 0 0 0 0 0 0.03 300 
56 1 1 0.445152 0.350079 2.06959 0 0 0 -0 -0 -1 0 0 0 0 0 0 0.03 300 
104 1 1 0.324371 0.382136 2.0786 0 0 0 -0 -0 -1 0 0 0 0 0 0 0.03 300 
77 1 1 0.218563 0.442358 2.07235 0 0 0 -0 -0 -1 0 0 0 0 0 0 0.03 300 
24 1 1 0.44361 0.420007 2.07405 0 0 0 -0 -0 -1 0 0 0 0 0 0 0.03 300 
57 1 1 0.255601 0.512634 2.06984 0 0 0 -0 -0 -1 0 0 0 0 0 0 0.03 300 
149 1 1 0.457968 0.50649 2.07254 0 0 0 -0 -0 -1 0 0 0 0 0 0 0.03 300 
137 1 1 0.250314 0.231914 2.08548 0 0 0 -0 -0 -1 0 0 0 0 0 0 0.03 300 
115 1 1 0.29951 0.265646 2.11216 0 0 0 -0 -0 -1 0 0 0 0 0 0 0.03 300 
165 1 1 0.36833 0.235983 2.08656 0 0 0 -0 -0 -1 0 0 0 0 0 0 0.03 300 
12 1 1 0.150682 0.290471 2.0948 0 0 0 -0 -0 -1 0 0 0 0 0 0 0.03 300 
21 1 1 0.18594 0.400862 2.10782 0 0 0 -0 -0 -1 0 0 0 0 0 0 0.03 300 
126 1 1 0.387846 0.395075 2.11081 0 0 0 -0 -0 -1 0 0 0 0 0 0 0.03 300 
34 1 1 0.161462 0.479607 2.08776 0 0 0 -0 -0 -1 0 0 0 0 0 0 0.03 300 
4 1 1 0.283869 0.446206 2.08761 0 0 0 -0 -0 -1 0 0 0 0 0 0 0.03 300 
75 1 1 0.387927 0.516304 2.08092 0 0 0 -0 -0 -1 0 0 0 0 0 0 0.03 300 
114 1 1 0.101873 0.240116 2.13116 0 0 0 -0 -0 -1 0 0 0 0 0 0 0.03 300 
1 1 1 0.44893 0.24186 2.13297 0 0 0 -0 -0 -1 0 0 0 0 0 0 0.03 300 
170 1 1 0.448147 0.302404 2.11869 0 0 0 -0 -0 -1 0 0 0 0 0 0 0.03 300 
11 1 1 0.20764 0.30353 2.12911 0 0 0 -0 -0 -1 0 0 0 0 0 0 0.03 300 
33 1 1 0.10471 0.363257 2.14227 0 0 0 -0 -0 -1 0 0 0 0 0 0 0.03 300 
71 1 1 0.27192 0.349064 2.1339 0 0 0 -0 -0 -1 0 0 0 0 0 0 0.03 300 
35 1 1 0.342434 0.364463 2.14618 0 0 0 -0 -0 -1 0 0 0 0 0 0 0.03 300 
160 1 1 0.115232 0.435564 2.12022 0 0 0 -0 -0 -1 0 0 0 0 0 0 0.03 300 
154 1 1 0.211019 0.445658 2.14167 0 0 0 -0 -0 -1 0 0 0 0 0 0 0.03 300 
106 1 1 0.375691 0.47682 2.12766 0 0 0 -0 -0 -1 0 0 0 0 0 0 0.03 300 
129 1 1 0.201147 0.51232 2.12784 0 0 0 -0 -0 -1 0 0 0 0 0 0 0.03 300 
89 1 1 0.26845 0.48437 2.13991 0 0 0 -0 -0 -1 0 0 0 0 0 0 0.03 300 
26 1 1 0.474436 0.482152 2.12708 0 0 0 -0 -0 -1 0 0 0 0 0 0 0.03 300 
161 1 1 0.383875 0.233035 2.1562 0 0 0 -0 -0 -1 0 0 0 0 0 0 0.03 300 
146 1 1 0.495146 0.246598 2.17254 0 0 0 -0 -0 -1 0 0 0 0 0 0 0.03 300 
127 1 1 0.381994 0.300043 2.1608 0 0 0 -0 -0 -1 0 0 0 0 0 0 0.03 300 
44 1 1 0.485944 0.343638 2.17039 0 0 0 -0 -0 -1 0 0 0 0 0 0 0.03 300 
166 1 1 0.165431 0.374869 2.17499 0 0 0 -0 -0 -1 0 0 0 0 0 0 0.03 300 
28 1 1 0.222318 0.404493 2.18476 0 0 0 -0 -0 -1 0 0 0 0 0 0 0.03 300 
141 1 1 0.429803 0.380165 2.16189 0 0 0 -0 -0 -1 0 0 0 0 0 0 0.03 300 
38 1 1 0.303454 0.414467 2.15292 0 0 0 -0 -0 -1 0 0 0 0 0 0 0.03 300 
111 1 1 0.473074 0.424163 2.16635 0 0 0 -0 -0 -1 0 0 0 0 0 0 0.03 300 
119 1 1 0.126835 0.482642 2.17437 0 0 0 -0 -0 -1 0 0 0 0 0 0 0.03 300 
90 1 1 0.102204 0.238351 2.20553 0 0 0 -0 -0 -1 0 0 0 0 0 0 0.03 300 
97 1 1 0.184928 0.234672 2.19277 0 0 0 -0 -0 -1 0 0 0 0 0 0 0.03 300 
74 1 1 0.248328 0.247523 2.19851 0 0 0 -0 -0 -1 0 0 0 0 0 0 0.03 300 
62 1 1 0.329189 0.252757 2.2082 0 0 0 -0 -0 -1 0 0 0 0 0 0 0.03 300 
43 1 1 0.460616 0.284913 2.21675 0 0 0 -0 -0 -1 0 0 0 0 0 0 0.03 300 
5 1 1 0.160428 0.3182 2.19871 0 0 0 -0 -0 -1 0 0 0 0 0 0 0.03 300 
95 1 1 0.346797 0.327727 2.21259 0 0 0 -0 -0 -1 0 0 0 0 0 0 0.03 300 
175 1 1 0.230789 0.339127 2.20237 0 0 0 -0 -0 -1 0 0 0 0 0 0 0.03 300 
128 1 1 0.355123 0.421294 2.21732 0 0 0 -0 -0 -1 0 0 0 0 0 0 0.03 300 
37 1 1 0.41824 0.41741 2.21001 0 0 0 -0 -0 -1 0 0 0 0 0 0 0.03 300 
93 1 1 0.225968 0.488444 2.19161 0 0 0 -0 -0 -1 0 0 0 0 0 0 0.03 300 
17 1 1 0.345254 0.512161 2.21021 0 0 0 -0 -0 -1 0 0 0 0 0 0 0.03 300 
134 1 1 0.443832 0.509496 2.19848 0 0 0 -0 -0 -1 0 0 0 0 0 0 0.03 300 
40 1 1 0.408343 0.240904 2.2408 0 0 0 -0 -0 -1 0 0 0 0 0 0 0.03 300 
68 1 1 0.400811 0.324654 2.24473 0 0 0 -0 -0 -1 0 0 0 0 0 0 0.03 300 
25 1 1 0.278223 0.363632 2.23196 0 0 0 -0 -0 -1 0 0 0 0 0 0 0.03 300 
123 1 1 0.48159 0.360101 2.23449 0 0 0 -0 -0 -1 0 0 0 0 0 0 0.03 300 
116 1 1 0.152794 0.405213 2.22527 0 0 0 -0 -0 -1 0 0 0 0 0 0 0.03 300 
84 1 1 0.227036 0.399722 2.25273 0 0 0 -0 -0 -1 0 0 0 0 0 0 0.03 300 
98 1 1 0.491139 0.43458 2.23869 0 0 0 -0 -0 -1 0 0 0 0 0 0 0.03 300 
55 1 1 0.200976 0.455034 2.24831 0 0 0 -0 -0 -1 0 0 0 0 0 0 0.03 300 
138 1 1 0.301221 0.470777 2.22913 0 0 0 -0 -0 -1 0 0 0 0 0 0 0.03 300 
72 1 1 0.10161 0.511094 2.24218 0 0 0 -0 -0 -1 0 0 0 0 0 0 0.03 300 
22 1 1 0.254767 0.230824 2.27097 0 0 0 -0 -0 -1 0 0 0 0 0 0 0.03 300 
73 1 1 0.170916 0.265084 2.27451 0 0 0 -0 -0 -1 0 0 0 0 0 0 0.03 300 
171 1 1 0.477654 0.251099 2.27033 0 0 0 -0 -0 -1 0 0 0 0 0 0 0.03 300 
110 1 1 0.10205 0.273683 2.27359 0 0 0 -0 -0 -1 0 0 0 0 0 0 0.03 300 
107 1 1 0.303471 0.271065 2.2797 0 0 0 -0 -0 -1 0 0 0 0 0 0 0.03 300 
31 1 1 0.221691 0.336081 2.26246 0 0 0 -0 -0 -1 0 0 0 0 0 0 0.03 300 
70 1 1 0.142707 0.355749 2.28494 0 0 0 -0 -0 -1 0 0 0 0 0 0 0.03 300 
53 1 1 0.294932 0.364362 2.29 0 0 0 -0 -0 -1 0 0 0 0 0 0 0.03 300 
153 1 1 0.496538 0.392613 2.28762 0 0 0 -0 -0 -1 0 0 0 0 0 0 0.03 300 
148 1 1 0.12082 0.460146 2.27005 0 0 0 -0 -0 -1 0 0 0 0 0 0 0.03 300 
136 1 1 0.374023 0.456818 2.26267 0 0 0 -0 -0 -1 0 0 0 0 0 0 0.03 300 
65 1 1 0.421483 0.499457 2.27254 0 0 0 -0 -0 -1 0 0 0 0 0 0 0.03 300 
150 1 1 0.481625 0.503918 2.2772 0 0 0 -0 -0 -1 0 0 0 0 0 0 0.03 300 
48 1 1 0.17066 0.517967 2.25622 0 0 0 -0 -0 -1 0 0 0 0 0 0 0.03 300 
164 1 1 0.244978 0.28843 2.29115 0 0 0 -0 -0 -1 0 0 0 0 0 0 0.03 300 
102 1 1 0.419044 0.351535 2.29593 0 0 0 -0 -0 -1 0 0 0 0 0 0 0.03 300 
176 1 1 0.349719 0.399621 2.29537 0 0 0 -0 -0 -1 0 0 0 0 0 0 0.03 300 
6 1 1 0.317689 0.454971 2.2924 0 0 0 -0 -0 -1 0 0 0 0 0 0 0.03 300 
147 1 1 0.248507 0.49546 2.29684 0 0 0 -0 -0 -1 0 0 0 0 0 0 0.03 300 
52 1 1 0.358392 0.516981 2.29661 0 0 0 -0 -0 -1 0 0 0 0 0 0 0.03 300 
