ITEM: TIMESTEP
93000
ITEM: NUMBER OF ATOMS
352
ITEM: BOX BOUNDS ff ff ff
0 3.3
-0.3 0.8
-0.5 3
ITEM: ATOMS id type type x y z ix iy iz vx vy vz fx fy fz omegax omegay omegaz radius f_Temp[0] 
288 1 1 0.37827 0.170551 1.59247 0 0 0 2.15247 -0.105232 0.202624 0.00284166 -1.16662 -3.7733 7.39751 -55.1591 32.1612 0.03 310.122 
51 1 1 0.609935 0.188244 1.57699 0 0 0 2.28166 0.169002 0.0616724 0.655924 0.206764 -4.1492 -14.8761 -28.1168 10.2194 0.03 321.823 
40 1 1 0.797429 0.186371 1.57686 0 0 0 2.2183 -0.0752429 0.0638739 -0.582253 -0.328002 -3.32283 0.606851 -57.1927 11.7317 0.03 327.809 
161 1 1 0.95406 0.186074 1.57692 0 0 0 2.63564 0.0230384 -0.00540598 0.936106 0.567881 -0.371389 -1.95925 -32.239 22.3403 0.03 327.104 
173 1 1 1.17874 0.183849 1.57911 0 0 0 2.67786 0.351208 -0.343658 0.0408975 0.569722 -1.06749 -14.8752 -16.2749 46.1635 0.03 322.604 
1 1 1 1.3941 0.194408 1.57686 0 0 0 2.89093 0.00660362 1.85666e-06 -3.51792e-06 2.09351e-08 0.000355663 -0.221023 -37.1204 15.9399 0.03 340.616 
80 1 1 1.49536 0.173424 1.58963 0 0 0 2.69354 0.0174161 -0.0377376 0.685775 1.08064 -1.87926 -6.85239 -1.26537 19.3806 0.03 326.872 
47 1 1 1.55191 0.191991 1.57696 0 0 0 2.77391 0.187459 0.00363268 0.637379 0.101889 -1.56591 -18.5892 -11.2672 2.46026 0.03 370.192 
213 1 1 0.108001 0.194255 1.57644 0 0 0 -0.113633 -0.973513 0.253212 3.81614 2.8631 -6.21228 -10.0779 -35.5852 -16.2749 0.03 307.391 
97 1 1 0.226598 0.201134 1.57911 0 0 0 1.04643 0.111699 0.226518 0 0 -2.77371 -4.32416 -99.5645 55.1756 0.03 326.912 
22 1 1 0.304395 0.200274 1.5768 0 0 0 1.5397 0.153236 -0.0230132 2.33121 -0.908367 2.23015 8.22935 -48.1316 -31.5872 0.03 311.024 
164 1 1 0.392908 0.22777 1.581 0 0 0 2.38388 0.0509504 0.254478 -6.11317 3.17197 -7.20827 -1.81549 -27.9851 -8.55372 0.03 309.338 
90 1 1 0.453572 0.195886 1.5775 0 0 0 1.46016 -0.267756 -0.117624 0 0 -2.77371 8.7451 -83.7256 9.63955 0.03 335.444 
12 1 1 0.667442 0.20454 1.58658 0 0 0 2.37824 0.221011 0.508477 0 0 -2.77371 -6.68989 6.18359 -13.3222 0.03 338.879 
91 1 1 0.849219 0.216024 1.5786 0 0 0 2.25072 -0.00495377 0.160201 -0.1234 -1.39592 -1.71822 -2.12802 -43.3766 -10.3434 0.03 334.25 
141 1 1 0.906713 0.221576 1.59287 0 0 0 2.43341 -0.314989 -0.0750127 0.755447 -1.86762 0.0565104 3.16127 51.8271 -0.525015 0.03 304.564 
15 1 1 1.01236 0.199675 1.5769 0 0 0 2.60447 0.200706 -0.00543842 0.602171 0.21726 -0.159695 -6.72944 -46.6919 13.3523 0.03 344.246 
78 1 1 1.09601 0.223526 1.57654 0 0 0 2.56052 0.0959311 0.0291254 0.760268 -0.687477 2.81956 -2.53286 -48.7075 33.0036 0.03 335.886 
88 1 1 1.25513 0.198218 1.57672 0 0 0 2.36542 -0.157509 0.0590435 -0.158913 -0.00368273 -0.309687 5.29122 -54.9271 -8.16964 0.03 313.268 
108 1 1 1.45182 0.219698 1.57685 0 0 0 2.78076 0.0838605 0.0014977 -0.164503 -0.0354502 0.085417 -2.80074 -40.8491 4.13349 0.03 379.038 
142 1 1 1.59866 0.231113 1.57682 0 0 0 2.7887 0.425346 0.0576171 0.415871 0.0762877 -1.92809 -17.362 -23.5987 3.60431 0.03 372.656 
327 1 1 0.18456 0.52565 2.14061 0 0 0 -0 -0 -1 0 0 0 0 0 0 0.03 300 
248 1 1 0.154301 0.230507 1.58479 0 0 0 0.213599 -0.609934 -0.799839 -3.14377 -2.67325 -1.65675 -7.48752 47.1406 16.1712 0.03 300.171 
110 1 1 0.341398 0.257908 1.57688 0 0 0 2.14043 -0.00145037 -0.0307025 0.88361 10.3032 -16.3676 9.10017 -57.3471 14.0271 0.03 333.717 
107 1 1 0.433435 0.272081 1.58033 0 0 0 1.66595 0.379055 -0.778906 -25.302 1.30541 -44.8776 0.264215 36.806 25.0128 0.03 300.613 
5 1 1 0.603221 0.25861 1.57767 0 0 0 2.30322 -0.102943 0.00825819 -3.37369 -2.46699 -7.2335 1.49976 -53.6975 -24.7894 0.03 327.644 
95 1 1 0.715964 0.238582 1.57601 0 0 0 2.71301 -0.18676 0.186348 1.72835 -2.55123 4.56499 -9.00026 3.04951 11.5106 0.03 308.362 
19 1 1 0.772851 0.242855 1.59193 0 0 0 2.87338 0.0806193 -0.188452 4.35671 -1.16052 3.02073 -16.7599 -11.2768 -14.9897 0.03 303.407 
11 1 1 0.823857 0.269909 1.57672 0 0 0 2.81017 0.302647 -0.0132234 2.37255 0.421397 2.46572 -8.19522 -38.695 18.7558 0.03 349.329 
13 1 1 0.954966 0.252398 1.57665 0 0 0 2.23839 0.197901 0.0203606 0.394664 0.326308 0.94164 -6.86875 -58.6774 21.4689 0.03 375.36 
120 1 1 1.1618 0.241375 1.57691 0 0 0 2.64813 0.367979 -0.000879436 -0.288739 0.119898 -0.994256 -12.5373 -45.2328 -10.1004 0.03 365.559 
125 1 1 1.22064 0.252816 1.57692 0 0 0 2.70627 0.000727461 0.0108966 0.388881 0.534244 -0.976944 -0.0419402 -43.147 -1.81733 0.03 337.762 
41 1 1 1.36312 0.26513 1.57686 0 0 0 2.53788 0.111903 2.02633e-06 -8.34456e-06 6.38668e-07 -0.000593287 -3.74538 -48.9369 -3.69394 0.03 359.964 
60 1 1 1.51078 0.235523 1.5768 0 0 0 2.78494 0.224556 0.00683759 -0.0608185 0.048811 0.77495 -8.19069 -41.3908 1.374 0.03 357.992 
339 1 1 0.202563 0.285564 1.57568 0 0 0 1.5014 -0.19974 -0.293729 40.824 13.3244 12.7043 8.89883 -85.685 -6.72706 0.03 317.209 
3 1 1 0.498662 0.265675 1.57783 0 0 0 1.31374 -0.187076 -0.914136 -17.7219 9.55235 -3.90223 41.1082 -45.8775 38.5125 0.03 349.352 
175 1 1 0.650819 0.287878 1.59862 0 0 0 2.14643 0.0907188 -0.150596 3.37369 2.46699 1.68608 -28.2349 32.2503 21.9565 0.03 316.405 
127 1 1 0.719464 0.297796 1.57713 0 0 0 2.16498 -0.035213 -0.194376 -36.085 -31.5627 -44.9881 -8.56065 -27.9742 11.4075 0.03 307.011 
94 1 1 0.889488 0.296635 1.5769 0 0 0 2.43149 0.148711 -0.0747147 -0.0565883 0.0213887 2.67852 -4.97487 -52.4274 -12.0162 0.03 342.957 
123 1 1 0.99709 0.299613 1.57684 0 0 0 2.23859 -0.0855568 0.0187966 2.23854 -0.691903 -1.02585 3.44238 -55.6311 5.1773 0.03 319.754 
64 1 1 1.05406 0.280958 1.57674 0 0 0 2.36647 0.0618599 0.00589578 -0.0840916 0.9858 2.08864 -1.85955 -53.9114 23.7856 0.03 364.867 
144 1 1 1.26272 0.295973 1.57941 0 0 0 2.71485 0.0411699 -0.0343185 0 0 -2.77371 -1.0399 -36.3779 16.1496 0.03 339.413 
112 1 1 1.43245 0.298592 1.57854 0 0 0 3.02723 -0.0926789 0.0275007 0 0 -2.77371 -2.2608 -40.7057 -10.9292 0.03 364.387 
86 1 1 1.53443 0.294361 1.57691 0 0 0 2.74679 0.419537 -0.0206964 0.0351324 -0.0598116 0.145512 -13.9219 -41.9036 -2.34309 0.03 368.905 
257 1 1 0.0245762 0.307982 1.58397 0 0 0 -0.879311 0.101444 -0.967606 0 0 -2.77371 -18.0725 3.07679 -6.65116 0.03 300.033 
132 1 1 0.303128 0.306937 1.57534 0 0 0 1.80427 -0.426379 -0.0197263 7.58081 -2.03453 13.4066 12.1925 -80.0651 5.48334 0.03 325.921 
70 1 1 0.38395 0.304878 1.57661 0 0 0 1.29112 -0.293773 -0.550906 22.572 6.82746 6.1122 2.19819 -60.2133 -0.785446 0.03 329.971 
56 1 1 1.20338 0.31362 1.57671 0 0 0 2.56034 -0.0499782 -0.00428219 -0.224336 0.20253 2.55437 2.44005 -48.8215 -15.4611 0.03 323.295 
159 1 1 1.38324 0.335919 1.57662 0 0 0 2.90143 0.102679 -0.017279 4.00329 -1.84117 6.03906 17.8842 9.47 9.30418 0.03 306.512 
300 1 1 0.170221 0.352464 1.57543 0 0 0 1.3243 -0.100443 0.363359 -22.0772 -22.5255 -9.06909 4.62215 -93.3572 -5.50691 0.03 306.941 
31 1 1 0.249364 0.367857 1.5785 0 0 0 1.6321 -0.102361 0.379038 0 0 -2.77371 3.45327 -80.056 4.32729 0.03 303.896 
53 1 1 0.376226 0.368778 1.57668 0 0 0 1.34913 -0.0918132 0.115339 0.820715 0.485475 -2.75635 -12.7211 -44.6409 7.35324 0.03 306.536 
166 1 1 0.555235 0.362723 1.57584 0 0 0 2.48911 -0.263871 -0.131562 -1.91556 7.45293 29.4676 12.5767 -54.1151 15.9958 0.03 330.221 
38 1 1 0.641712 0.357626 1.57684 0 0 0 1.73555 0.0632423 0.000850686 -0.00458206 -0.00292889 0.323664 -2.11397 -75.8364 -7.60417 0.03 330.138 
35 1 1 0.80811 0.353383 1.57686 0 0 0 2.29937 -0.0791815 2.52818e-05 -9.52297e-05 -4.44679e-06 -0.000752747 2.6502 -56.92 -4.52146 0.03 327.091 
126 1 1 0.948598 0.348922 1.577 0 0 0 2.40045 0.101891 -0.0389565 0.95191 0.523599 -0.60089 -5.8863 -48.8652 -26.9442 0.03 319.432 
24 1 1 1.00678 0.367506 1.5887 0 0 0 2.61365 -0.254778 0.356354 0 0 -2.77371 5.31294 -40.1453 12.3135 0.03 303.667 
143 1 1 1.21921 0.371168 1.57698 0 0 0 2.18911 0.103691 0.00402201 0.448394 1.08472 -1.43682 -3.18888 -60.8044 1.9751 0.03 359.863 
124 1 1 1.29655 0.346646 1.57686 0 0 0 2.3341 0.104417 -5.89114e-05 0.000218992 -1.3726e-05 0.00217621 -3.49484 -55.7574 -11.8633 0.03 364.565 
59 1 1 1.47412 0.342221 1.57869 0 0 0 2.82274 -0.161325 -0.00372366 -0.00739749 0.105381 -2.72817 6.26137 -40.701 -7.69087 0.03 349.26 
81 1 1 1.55692 0.349909 1.58042 0 0 0 2.90803 0.349165 -0.0217444 1.02853 -1.82625 -1.56721 13.8177 -33.2091 -3.77028 0.03 347.109 
177 1 1 0.325047 0.502225 2.12722 0 0 0 -0 -0 -1 0 0 0 0 0 0 0.03 300 
289 1 1 0.0721468 0.410173 1.57782 0 0 0 0.19187 0.0617737 0.0416351 0 0 -2.77371 -37.2143 -56.0511 -8.11635 0.03 304.746 
176 1 1 0.427049 0.400447 1.57703 0 0 0 1.06752 0.479531 0.0353251 -0.27334 -0.401173 -3.12527 -20.1486 -16.6832 11.5059 0.03 307.583 
128 1 1 0.488278 0.394239 1.57534 0 0 0 1.78879 0.157926 -0.552091 47.4171 -4.69014 79.8537 -6.69282 16.0309 -22.9577 0.03 301.678 
77 1 1 0.67659 0.407964 1.57664 0 0 0 1.93851 0.0188004 -0.0423609 0.379573 0.168816 6.84215 -0.278008 -69.3846 1.43876 0.03 333.006 
101 1 1 0.874133 0.402709 1.57666 0 0 0 2.77348 0.00429043 0.00851905 2.44317 1.27129 -0.113898 -1.13442 -25.2999 4.74466 0.03 350.552 
122 1 1 1.31001 0.406966 1.57685 0 0 0 2.43774 0.109918 -0.00218673 0.00850304 -0.000646658 0.26362 -3.67984 -52.3012 -2.15899 0.03 355.852 
30 1 1 1.40078 0.398288 1.57678 0 0 0 2.75735 -0.37522 0.0233618 0.0196055 -0.00942987 0.219377 12.6276 -42.6944 -2.67977 0.03 374.718 
167 1 1 1.46062 0.400518 1.57687 0 0 0 2.79683 -0.126924 0.0365156 -0.49333 -0.189273 -1.49916 4.10777 -40.3706 14.013 0.03 346.137 
29 1 1 1.52495 0.400275 1.57676 0 0 0 3.04017 0.419352 0.0022849 0.874155 0.508289 0.648931 4.36779 -5.64794 0.932444 0.03 350.682 
54 1 1 1.58509 0.404349 1.57684 0 0 0 3.04621 0.0726487 -0.0193405 0.0462337 -0.00208508 1.27526 -2.43412 -31.93 4.92687 0.03 359.337 
245 1 1 0.169508 0.424983 1.58475 0 0 0 1.00352 0.679296 0.431001 0 0 -2.77371 -22.9534 -100.935 -2.54283 0.03 303.677 
148 1 1 0.246536 0.436393 1.58444 0 0 0 1.49675 -0.310404 0.149872 0 0 -2.77371 10.1497 -84.3333 -10.8313 0.03 317.049 
84 1 1 0.335392 0.440702 1.5776 0 0 0 1.64245 0.560459 0.0471413 0 0 -2.77371 -18.7041 -78.8704 -3.47472 0.03 317.229 
25 1 1 0.572022 0.441391 1.57738 0 0 0 1.89143 0.10402 -0.00299725 -1.05634 0.247896 -2.09864 -3.05672 -67.6498 -19.7901 0.03 321.386 
170 1 1 1.13429 0.425206 1.57687 0 0 0 2.70018 0.0881998 -0.00353791 0.417518 -0.277833 0.240371 -2.95408 -43.5047 -5.96243 0.03 335.31 
246 1 1 0.0218044 0.464143 1.59285 0 0 0 -0.609299 0.611989 -0.175754 0 0 -2.77371 -35.9317 43.2535 2.11049 0.03 300.179 
272 1 1 0.103791 0.468018 1.57379 0 0 0 1.51334 0.442924 0.670237 -26.8964 6.89696 57.2592 -11.6273 -111.373 23.1008 0.03 302.637 
116 1 1 0.394852 0.45513 1.57587 0 0 0 1.54135 -0.0112804 -0.217003 6.18459 -15.4651 16.8275 -0.563828 -84.2781 -11.3534 0.03 336.245 
6 1 1 0.515239 0.459725 1.58332 0 0 0 1.87614 0.225755 0.236226 1.05634 -0.247896 -3.44879 5.75088 -48.4272 -6.26385 0.03 315.893 
135 1 1 0.794343 0.46999 1.57695 0 0 0 2.46652 -0.188411 -0.219139 -1.67753 4.58397 5.44513 0.206136 -53.604 -3.24171 0.03 348.912 
134 1 1 0.897949 0.45774 1.57647 0 0 0 2.61879 0.112729 -0.387788 16.3196 -4.18387 31.5411 12.9304 28.5001 9.41602 0.03 303.905 
37 1 1 0.959511 0.459172 1.57686 0 0 0 2.53203 0.23076 -0.00277861 0.00941867 -0.00128977 0.0865238 -7.71504 -49.1309 -6.15849 0.03 322.917 
69 1 1 1.023 0.460194 1.57686 0 0 0 2.71011 0.072753 -0.00138664 -0.19901 0.0158283 0.0787137 -2.48954 -43.862 -7.8673 0.03 362.346 
111 1 1 1.08434 0.458274 1.57685 0 0 0 2.73819 0.148311 0.00264835 1.04808 0.200255 -0.139019 -4.52 -32.7381 1.43757 0.03 329.66 
50 1 1 1.20297 0.448223 1.57686 0 0 0 2.8015 0.0365914 0.000696268 -0.00174616 5.24954e-05 0.0199192 -1.22482 -40.117 5.19255 0.03 348.827 
163 1 1 1.28379 0.464092 1.57686 0 0 0 2.65686 -0.212339 -2.7035e-06 3.90673e-06 6.17665e-07 -0.00126364 7.10694 -44.9547 27.7728 0.03 355.682 
131 1 1 1.36104 0.452525 1.57653 0 0 0 2.92557 0.0104635 0.0490793 -1.29572 -0.80801 0.953582 -0.112678 -36.7655 -5.55746 0.03 348.376 
39 1 1 1.43507 0.473382 1.57688 0 0 0 2.64713 -0.0910995 -0.0107687 0.0569648 0.00106928 0.185348 3.0496 -45.2172 -8.58186 0.03 353.283 
10 1 1 1.49558 0.469767 1.57624 0 0 0 2.67396 -0.214466 -0.11385 -1.06515 1.05989 7.79416 6.92419 -44.65 -9.63092 0.03 373.095 
162 1 1 1.58597 0.465702 1.57686 0 0 0 2.78625 -0.285617 0.00731735 0.0839536 -0.098563 -0.188721 9.5815 -40.5123 12.3253 0.03 361.671 
36 1 1 1.64897 0.467164 1.58116 0 0 0 2.51973 -0.418122 -0.309343 0 0 -2.77371 29.7872 -13.6401 -3.04198 0.03 355.785 
279 1 1 0.172968 0.508734 1.58241 0 0 0 0.38554 0.155524 -2.01231 0 0 -2.77371 23.1829 -36.8084 2.1549 0.03 300.003 
249 1 1 0.246452 0.517105 1.57643 0 0 0 0.889854 0.973357 0.230634 5.68882 -2.75101 -6.52814 -17.8107 -24.3971 -1.39667 0.03 304.477 
226 1 1 0.301005 0.494323 1.57564 0 0 0 1.24069 0.486941 -0.489515 12.9476 -2.70494 40.8479 5.51472 -22.5321 0.904461 0.03 301.18 
21 1 1 0.4927 0.515574 1.5787 0 0 0 1.42351 0.30305 -0.497532 -2.56166 -0.0521562 -3.61329 -1.10475 -28.3773 21.7755 0.03 322.721 
160 1 1 0.637211 0.484829 1.57738 0 0 0 1.99258 0.147868 0.0673609 -3.02076 0.582463 -10.7905 -4.41384 -67.6573 5.11623 0.03 342.07 
4 1 1 0.698091 0.489837 1.5792 0 0 0 2.00728 0.071441 -0.0456861 0 0 -2.77371 -2.57409 -67.0773 9.17394 0.03 321.014 
169 1 1 0.851424 0.496995 1.57686 0 0 0 2.22871 -0.0186531 0.000112017 -0.000504565 -1.39505e-05 -0.0216607 0.624299 -59.2836 1.94353 0.03 338.672 
26 1 1 1.14708 0.484407 1.57677 0 0 0 3.03692 -0.108281 -0.0132038 -0.80567 -1.5705 0.270146 -9.44435 -29.1701 -4.4425 0.03 321.195 
145 1 1 1.3835 0.507892 1.5769 0 0 0 2.77312 0.0807892 0.0176833 -0.0252536 -0.525806 -0.438842 -2.81336 -41.0209 12.1288 0.03 340.028 
119 1 1 0.363219 0.531798 1.57657 0 0 0 1.60079 0.569473 -0.0875539 -3.57999 -0.672596 3.18112 -17.8776 -81.0946 39.4624 0.03 336.981 
227 1 1 0.547605 0.537066 1.57921 0 0 0 1.68002 0.697292 -0.833054 2.56166 0.0521562 -1.93413 -17.9534 33.1493 -13.815 0.03 301.199 
136 1 1 0.788152 0.529146 1.57693 0 0 0 2.51017 -0.0923569 0.00367703 1.13918 -3.75003 2.11371 13.7297 6.73427 1.7498 0.03 316.897 
61 1 1 0.963925 0.520555 1.57647 0 0 0 2.28001 0.155331 -0.0257268 3.53768 -12.5976 -12.2078 -4.44099 -58.9869 10.3564 0.03 344.26 
152 1 1 1.01862 0.544928 1.57706 0 0 0 2.52709 -0.151915 -0.00922152 -1.04 -0.480041 -1.45385 4.88141 -48.7237 -25.7319 0.03 359.188 
104 1 1 1.07608 0.518025 1.57685 0 0 0 2.33467 -0.049623 0.00387397 -0.0140519 -0.000455712 -0.0252406 1.66105 -55.7529 -1.14052 0.03 341.612 
42 1 1 1.16345 0.541691 1.57682 0 0 0 2.67844 -0.00188092 -0.0821168 -10.7487 0.528659 -1.40939 -0.986864 -28.1282 15.1659 0.03 349.613 
121 1 1 1.22235 0.545691 1.57713 0 0 0 2.65748 -0.105267 0.102305 16.4381 0.195789 5.49054 2.93708 -42.0632 -25.7275 0.03 370.61 
63 1 1 1.29319 0.542311 1.57683 0 0 0 2.49717 -0.0541322 0.00301852 -0.0767997 -0.0297696 -0.264617 1.80372 -50.3554 14.4329 0.03 370.161 
109 1 1 1.44169 0.533196 1.57688 0 0 0 2.98006 -0.101685 -0.0023622 1.2986 -0.102269 -0.168477 4.03083 -26.1479 6.81788 0.03 361.628 
103 1 1 1.50169 0.534498 1.57684 0 0 0 2.96059 -0.041485 -0.000816039 -0.412725 0.0877794 0.135046 1.41538 -34.8226 -0.567469 0.03 373.445 
172 1 1 1.55972 0.519601 1.57687 0 0 0 2.90138 -0.224464 0.00444748 0.645771 -0.098893 -0.0643897 7.43913 -36.7694 -12.205 0.03 365.712 
66 1 1 1.62092 0.521117 1.57687 0 0 0 2.92768 -0.450489 0.00932188 -0.0195867 -0.0177307 -0.504673 15.0853 -35.8863 7.93587 0.03 354.984 
304 1 1 0.193749 0.565985 1.57697 0 0 0 1.04468 0.371457 0.00754169 -0.0729977 0.00928397 -1.94743 -12.4027 -98.6754 4.22914 0.03 309.653 
48 1 1 0.435775 0.557866 1.57672 0 0 0 1.72149 0.158903 0.170105 5.78624 -4.22275 -5.62234 -4.93205 -75.6727 14.7598 0.03 317.105 
147 1 1 0.603595 0.579572 1.58874 0 0 0 2.19462 -0.255852 -0.269792 0.375225 -0.908138 -0.215782 -28.1451 -66.3202 -0.620884 0.03 321.952 
34 1 1 0.68712 0.568346 1.5774 0 0 0 2.3434 -0.327132 -0.16058 -0.30974 -0.57768 -6.34168 13.1368 -63.5922 -15.1482 0.03 323.877 
117 1 1 0.759386 0.579812 1.58864 0 0 0 2.41089 -0.0936263 -0.111258 0.676223 -0.616719 -0.812663 7.87255 -59.8717 -12.0747 0.03 331.939 
16 1 1 0.840872 0.560405 1.5764 0 0 0 2.55193 0.171064 -0.0139884 0.0326554 -0.131721 11.6594 -4.71223 -50.6886 3.11791 0.03 347.375 
118 1 1 0.910174 0.566764 1.57634 0 0 0 2.04374 -0.000236462 0.0493437 -1.44971 -0.0321644 -0.218732 0.238531 -66.279 -9.98858 0.03 343.973 
105 1 1 1.10795 0.569262 1.57846 0 0 0 2.56291 -0.174828 -0.18033 0.763224 -0.944275 -1.02159 -16.2312 -3.49372 -17.9557 0.03 320.959 
158 1 1 1.38341 0.567683 1.57689 0 0 0 2.81568 0.0464155 0.00980695 0.671055 -0.29947 0.017879 -1.19981 -39.9343 -15.7041 0.03 360.546 
83 1 1 1.60187 0.58173 1.59075 0 0 0 3.2382 -0.144337 -0.125931 0.00191394 -2.18804 -0.412311 7.10475 -0.912292 -35.2273 0.03 325.314 
278 1 1 0.419128 0.516336 2.13255 0 0 0 -0 -0 -1 0 0 0 0 0 0 0.03 300 
114 1 1 0.499405 0.143615 1.61935 0 0 0 1.53535 0.0610054 -0.149049 17.4831 -11.8566 -2.92124 10.8243 -73.4891 16.0046 0.03 327.353 
281 1 1 0.641509 0.148349 1.61734 0 0 0 2.07357 -0.0218776 -0.0980086 0 0 -2.77371 4.00561 -2.89805 22.662 0.03 303.929 
58 1 1 0.844407 0.159796 1.60348 0 0 0 2.41191 -0.120172 -0.102821 0 0 -2.77371 29.3453 -5.89586 21.3363 0.03 351.234 
87 1 1 1.27621 0.150586 1.61236 0 0 0 2.35409 -0.0416453 0.0419268 -0.000852201 0.957996 -1.01724 1.98008 -32.1567 45.6801 0.03 343.173 
317 1 1 0.235622 0.152418 1.62199 0 0 0 0.0961708 -1.23064 0.100978 0 0 -2.77371 79.4482 13.246 -4.55085 0.03 300.297 
305 1 1 0.346094 0.224532 1.62494 0 0 0 0.137858 -0.927476 -0.387637 3.49203 -13.8292 12.9154 35.1022 -27.261 2.94176 0.03 300.126 
307 1 1 0.41779 0.200813 1.62769 0 0 0 1.41515 0.0473233 0.82357 -42.7874 8.89765 13.0476 -21.3666 4.83352 -26.6092 0.03 300.445 
221 1 1 0.540272 0.233592 1.60274 0 0 0 1.71626 -0.285005 -0.541837 17.7219 -9.55235 -1.6452 35.8331 -6.74772 17.5579 0.03 300.501 
322 1 1 0.608819 0.241789 1.63734 0 0 0 1.5662 0.0786087 0.492342 0 0 -2.77371 -19.7033 41.4346 -15.7077 0.03 300.698 
146 1 1 1.00398 0.250933 1.61191 0 0 0 2.18283 -0.209867 -0.0862545 0 0 -2.77371 -5.16252 70.2689 -24.0592 0.03 303.324 
46 1 1 1.27833 0.234707 1.62926 0 0 0 2.33549 0.071292 -0.13542 0 0 -2.77371 -25.3771 38.5119 -16.7123 0.03 301.193 
73 1 1 0.224236 0.302551 1.62769 0 0 0 0.675576 -0.00953174 -0.0523852 10.7783 -5.41969 7.93472 -19.2445 57.9683 6.25984 0.03 300.699 
180 1 1 0.327038 0.292324 1.62635 0 0 0 0.74378 0.0336766 0.63596 8.9046 1.11517 22.3476 -21.1525 35.887 9.41968 0.03 301.803 
225 1 1 0.775044 0.293129 1.62636 0 0 0 1.7526 0.179454 -0.416731 0 0 -2.77371 7.42351 17.574 -2.33096 0.03 300.762 
44 1 1 0.929652 0.283696 1.62391 0 0 0 2.32048 -0.11111 0.147972 0 0 -2.77371 30.6718 41.8773 25.1836 0.03 301.357 
7 1 1 1.10301 0.272395 1.60992 0 0 0 2.43303 0.202338 -0.0293398 0.783557 0.902745 0.486543 14.3522 52.9039 -10.9378 0.03 302.344 
155 1 1 1.19554 0.269181 1.62888 0 0 0 2.17462 0.00882946 -0.220418 0.234561 -0.329316 -2.90306 -10.7254 30.6072 24.9516 0.03 301.704 
71 1 1 0.430671 0.327333 1.60198 0 0 0 1.21606 0.410722 -0.238892 29.9416 12.1238 20.5691 -37.8553 36.1232 4.79983 0.03 302.121 
68 1 1 0.57706 0.32666 1.61986 0 0 0 1.71399 -0.470482 0.419521 0 0 -2.77371 30.1022 46.1697 -4.14162 0.03 300.806 
298 1 1 0.120008 0.360786 1.61247 0 0 0 -0.628458 0.122044 -2.53819 0 0 -2.77371 -3.63997 -16.2466 0.0364031 0.03 300 
204 1 1 0.188841 0.349323 1.63022 0 0 0 0.236776 -0.264801 1.06904 -4.67684 -9.39672 -4.42465 -2.64721 53.4143 5.67178 0.03 300.071 
313 1 1 0.505191 0.346851 1.60812 0 0 0 1.10078 -0.197788 -1.08863 0 0 -2.77371 -4.90856 2.51136 -19.8461 0.03 300.154 
291 1 1 0.733722 0.348255 1.60272 0 0 0 2.20609 -0.287246 -0.990559 33.8857 36.7169 39.7658 3.0931 44.156 -23.7351 0.03 300.012 
268 1 1 0.548186 0.401712 1.6191 0 0 0 0.495899 0.242851 -0.384537 -0.125685 2.75484 6.76147 -26.935 -16.4175 -1.15036 0.03 300.168 
153 1 1 0.914186 0.389533 1.61884 0 0 0 2.6473 -0.082863 0.111988 1.03619 -0.591112 0.68615 16.5409 10.8186 7.83806 0.03 302.204 
190 1 1 0.308585 0.430011 1.63283 0 0 0 0.125464 0.554281 -0.426394 0.428608 3.27699 -6.53738 30.3412 28.9803 -6.01685 0.03 300.473 
352 1 1 0.415269 0.444214 1.62956 0 0 0 0.762779 -0.206223 0.194072 3.46919 11.8744 25.9586 6.2529 51.2163 1.07745 0.03 301.045 
92 1 1 1.45158 0.437289 1.62328 0 0 0 2.76506 -0.0814088 0.0363989 0.113005 -0.141207 -2.88493 -6.75404 48.304 -4.09953 0.03 302.243 
102 1 1 0.612347 0.453428 1.62193 0 0 0 0.958872 0.389086 -0.634698 3.02076 -0.582463 5.2431 -11.3183 21.8535 4.65478 0.03 300.649 
151 1 1 1.38931 0.471167 1.62557 0 0 0 2.85193 -0.0274501 0.157193 1.11835 0.503786 -0.130746 1.7003 33.3784 5.06883 0.03 305.182 
157 1 1 1.54005 0.47413 1.61469 0 0 0 2.65028 -0.341928 -0.0670249 10.1717 -0.199859 12.0883 -11.872 42.9215 -3.08135 0.03 305.541 
303 1 1 0.0874262 0.517388 1.60056 0 0 0 -0.839312 1.11572 -1.64088 -3.00685 14.8452 17.5527 -16.5402 -3.76229 -5.79648 0.03 300.006 
28 1 1 0.345594 0.488377 1.61279 0 0 0 1.0886 0.425696 -0.381594 18.1369 -11.0809 39.9305 -3.84319 -1.73736 6.37686 0.03 301.29 
106 1 1 0.65448 0.510395 1.62953 0 0 0 1.71822 0.432622 0.214433 0 0 -2.77371 -4.14629 55.7545 -4.05663 0.03 301.916 
20 1 1 1.04188 0.504231 1.62983 0 0 0 1.77296 0.0569969 -0.338253 0 0 -2.77371 -3.96226 32.9449 5.54859 0.03 301.558 
149 1 1 1.1622 0.499768 1.63433 0 0 0 2.49444 0.00879472 0.274707 0 0 -2.77371 13.959 12.0191 14.8513 0.03 301.294 
224 1 1 0.41816 0.524105 1.62346 0 0 0 0.166412 0.0898329 -0.233433 9.06543 -0.0712573 -15.7085 1.3494 -3.90103 12.2248 0.03 300.357 
98 1 1 0.957712 0.539122 1.63208 0 0 0 1.81227 0.0126708 -0.218863 -2.66278 11.1756 18.9175 9.49666 48.7685 7.07303 0.03 301.048 
9 1 1 1.34063 0.53104 1.61156 0 0 0 2.58398 -0.0261664 -0.10335 -0.0978707 0.197288 -1.07388 8.52583 49.6694 -4.85802 0.03 308.416 
55 1 1 0.309255 0.554608 1.62419 0 0 0 0.548094 -0.120739 -0.169141 -5.41669 2.21263 -3.00481 62.0841 55.9461 9.58903 0.03 301.145 
301 1 1 0.11918 0.613779 1.62969 0 0 0 -0.488892 0.980873 -0.391257 0 0 -2.77371 23.2224 25.739 25.7619 0.03 300.106 
326 1 1 0.28913 0.611004 1.62063 0 0 0 1.27836 0.230401 0.383638 -0.0906029 -0.743613 -2.70685 -15.3064 -124.892 -4.09384 0.03 320.739 
72 1 1 0.39226 0.590898 1.60125 0 0 0 1.67021 -0.1474 -0.0313834 -4.67582 3.75616 -3.01865 3.87931 -59.6697 -48.1152 0.03 323.129 
75 1 1 0.84373 0.618451 1.62763 0 0 0 1.8533 -0.249858 -0.250049 0.66237 -0.873369 -0.886728 -8.4168 -32.0038 -43.1049 0.03 314.036 
79 1 1 0.944494 0.60127 1.6101 0 0 0 2.16582 -0.093935 0.0612924 2.3523 -7.1088 0.464562 -26.279 36.4527 -19.5793 0.03 320.665 
2 1 1 0.99654 0.585438 1.63378 0 0 0 2.27094 -0.339901 -0.0551643 2.21317 -0.384564 -1.12147 -10.3106 -16.9698 -4.76234 0.03 316.007 
156 1 1 1.04914 0.599481 1.60865 0 0 0 1.9744 -0.398935 -0.385577 3.62027 -0.474897 -1.31754 18.636 -67.0208 -27.7432 0.03 342.648 
18 1 1 1.1569 0.594597 1.60338 0 0 0 2.42343 -0.0300852 0.0145242 -0.305995 -1.38671 0.342966 -0.615727 -38.0671 -36.8017 0.03 315.622 
137 1 1 0.428649 0.0998891 1.66305 0 0 0 0.973702 0.461562 -0.461564 7.50497e-06 0.988715 -0.988824 -21.829 -66.8675 76.257 0.03 323.818 
139 1 1 0.552519 0.126477 1.64111 0 0 0 1.41716 0.108674 -0.00677125 1.44493 -0.31012 -1.164 16.1009 -71.7144 32.0203 0.03 336.981 
115 1 1 0.768761 0.099222 1.66372 0 0 0 1.97865 0.165956 -0.164615 -0.00430058 0.955786 -1.02272 -7.81043 -31.6438 63.9527 0.03 317.607 
165 1 1 1.14148 0.109339 1.6536 0 0 0 2.0562 0.560827 -0.56083 8.18188e-06 0.988709 -0.988817 -26.5236 -25.8599 66.0695 0.03 323.645 
62 1 1 0.346333 0.139388 1.63889 0 0 0 0.5442 -0.053165 -0.0444562 0 0 -2.77371 0.433575 -97.6327 53.674 0.03 303.391 
49 1 1 0.880727 0.129135 1.64067 0 0 0 2.67767 0.243624 0.105205 0 0 -2.77371 0.0630507 -30.1393 32.1963 0.03 309.966 
74 1 1 0.473053 0.191532 1.64225 0 0 0 1.69744 -0.333731 0.100361 28.1463 4.04189 -10.0052 1.68677 33.5274 2.81994 0.03 302.005 
171 1 1 0.713131 0.164775 1.64511 0 0 0 1.46988 -0.0186099 -0.380384 0 0 -2.77371 -8.75622 48.4422 -23.7755 0.03 300.319 
43 1 1 0.815244 0.174735 1.65484 0 0 0 1.58059 -0.141038 -0.421127 0 0 -2.77371 2.92271 36.0863 3.13353 0.03 300.744 
351 1 1 0.194056 0.251724 1.62366 0 0 0 0.686814 -0.115722 -1.30444 -23.8796 -23.7587 24.3965 4.9481 -5.7972 11.2767 0.03 300.011 
230 1 1 0.269359 0.245332 1.62988 0 0 0 0.465777 -0.0983361 -1.46609 -9.94626 37.0767 -18.3907 19.8638 -6.80187 -13.2102 0.03 300.383 
252 1 1 0.441752 0.256833 1.63615 0 0 0 0.701019 -0.0419661 -1.25068 31.6665 -5.49964 44.7376 7.84088 -20.046 15.3512 0.03 300.019 
206 1 1 0.126939 0.284236 1.64181 0 0 0 0 0 -2.99197 0 0 -2.77371 0 0 0 0.03 300 
181 1 1 0.534491 0.284804 1.63718 0 0 0 0.887373 0.061024 -0.626274 0 0 -2.77371 -7.8671 1.7975 -4.67864 0.03 300.342 
209 1 1 0.379599 0.32356 1.63367 0 0 0 0.339794 0.41023 -1.4154 -0.427066 -0.282027 -1.39715 22.4241 -23.2334 10.4225 0.03 300.026 
187 1 1 0.704082 0.313018 1.64827 0 0 0 2.52144 0.343417 -0.0549066 0 0 -2.77371 30.1105 -22.801 -13.0466 0.03 300.361 
340 1 1 0.326623 0.35186 1.62751 0 0 0 0.361211 0.234368 -1.33844 1.81087 -3.75415 3.73232 7.47274 -11.085 -23.4872 0.03 300.04 
270 1 1 0.217433 0.396642 1.6451 0 0 0 1.07236 0.389392 -0.97571 39.3709 29.8399 -27.5389 -10.9479 7.96772 9.98262 0.03 300.308 
254 1 1 0.420891 0.380868 1.63381 0 0 0 0.870362 -0.434756 -0.305591 0 0 -2.77371 14.5227 -8.88205 -12.0167 0.03 300.021 
178 1 1 0.365174 0.434275 1.66402 0 0 0 0.350091 0.154455 -0.224318 25.2476 -38.5569 -36.2903 -4.16496 -40.3037 -9.53925 0.03 300.037 
335 1 1 0.47931 0.411121 1.63193 0 0 0 0.859453 0.0519 -1.09274 0.11067 5.3631 9.66382 4.09637 -47.6358 29.0804 0.03 300.017 
265 1 1 0.486921 0.478891 1.64337 0 0 0 0.365132 0.51817 -0.0573774 -2.96585 -50.1806 -68.5207 22.6282 -4.58446 -6.73151 0.03 300.202 
239 1 1 0.547828 0.472681 1.65258 0 0 0 1.09114 0.221142 -1.17923 0 0 -2.77371 -0.300346 44.987 8.294 0.03 300.001 
296 1 1 0.717638 0.474411 1.64301 0 0 0 1.7062 0.105685 0.444352 0 0 -2.77371 11.2556 44.8557 12.3467 0.03 300.706 
130 1 1 1.2608 0.457041 1.64358 0 0 0 2.01452 -0.115907 -0.551698 0 0 -2.77371 -1.80228 -25.3021 -0.648071 0.03 300.511 
237 1 1 0.219486 0.493301 1.63901 0 0 0 0.108899 0.464175 -0.762605 0 0 -2.77371 -70.5247 0.791109 6.93291 0.03 300.002 
263 1 1 0.280359 0.505232 1.64175 0 0 0 0.538443 -0.29931 -0.776355 -1.50121 -1.04439 -2.57287 -14.349 -29.3414 -39.657 0.03 300.018 
243 1 1 0.574436 0.530462 1.64771 0 0 0 0.859509 0.389857 -0.904715 0 0 -2.77371 2.84037 -75.0638 -3.51675 0.03 300.041 
276 1 1 0.362811 0.563008 1.64763 0 0 0 0.776751 0.0758958 -0.198728 7.00851 -0.424625 -2.81031 5.65824 25.9237 -8.54308 0.03 300.419 
52 1 1 0.47916 0.579248 1.64864 0 0 0 0.482973 0.349582 -0.408295 -2.22305 -8.18904 2.70811 18.5745 8.59933 13.3037 0.03 300.753 
150 1 1 0.743527 0.561099 1.64571 0 0 0 1.41857 -0.0576383 -0.0902921 0 0 -2.77371 -12.9058 23.3145 16.6589 0.03 300.976 
65 1 1 0.678259 0.595168 1.63495 0 0 0 1.36006 0.256266 -0.484493 0 0 -2.77371 -12.6101 10.5134 -15.4496 0.03 300.554 
154 1 1 0.483181 0.640084 1.6513 0 0 0 1.6246 0.0824427 0.106619 -9.54032 3.29936 -5.89075 -9.6328 -29.7297 -63.8942 0.03 308.202 
57 1 1 0.54241 0.639974 1.64954 0 0 0 1.63583 -0.522621 -0.377778 9.54032 -3.29936 0.343321 12.7135 -10.3412 -11.1029 0.03 321.388 
89 1 1 0.601536 0.632015 1.64196 0 0 0 1.67211 -0.00449004 -0.0154048 0 0 -2.77371 -2.73867 -45.5552 -62.7864 0.03 319.464 
17 1 1 0.746709 0.623994 1.63317 0 0 0 1.81039 -0.312107 -0.312158 0.34045 -0.736556 -0.736564 -0.649923 -34.1339 -61.3751 0.03 317.563 
99 1 1 0.910048 0.635491 1.64455 0 0 0 1.98899 -0.235788 -0.274826 -1.24771 4.3552 3.56807 14.879 -49.3416 -44.7323 0.03 329.889 
76 1 1 0.584948 0.0886843 1.67615 0 0 0 1.65779 -0.024291 -0.16612 0 0 -2.77371 14.5043 50.2373 0.445524 0.03 304.484 
333 1 1 0.496899 0.107595 1.67641 0 0 0 1.07136 -0.795762 -0.224519 0 0 -2.77371 17.0942 12.5629 -6.66147 0.03 300.292 
196 1 1 0.449696 0.181081 1.70257 0 0 0 0.944214 -0.298839 0.44664 0 0 -2.77371 5.7382 -47.4845 -8.72477 0.03 300.025 
332 1 1 0.223038 0.225238 1.67556 0 0 0 -0.676953 -0.513193 -1.45334 0 0 -2.77371 -1.44932 -17.6878 -6.55579 0.03 300.003 
283 1 1 0.300312 0.229568 1.67817 0 0 0 0.0683083 -0.632115 -2.21513 8.82638 -23.5074 18.8602 35.069 3.53374 2.82455 0.03 300 
319 1 1 0.512325 0.234312 1.66298 0 0 0 0.763066 -0.140464 -0.905604 0 0 -2.77371 7.46341 22.3899 -16.3539 0.03 300.003 
194 1 1 0.236361 0.291143 1.6894 0 0 0 -0.734917 -0.226202 -1.65722 1.83087 0.803052 -3.62959 -12.1749 -15.4175 -8.0794 0.03 300 
193 1 1 0.294572 0.288637 1.67536 0 0 0 -0.1602 0.0781331 0.185402 -4.15922 -20.2115 6.02659 24.7561 -53.2718 7.65097 0.03 300.039 
231 1 1 0.391455 0.27225 1.66555 0 0 0 -0.213751 -0.458166 -1.53333 0 0 -2.77371 14.6022 -10.0564 -8.11498 0.03 300 
347 1 1 0.342365 0.328677 1.68037 0 0 0 0.597286 0.102342 -1.07118 -1.3196 3.76292 -10.541 -17.3913 30.4671 -7.67057 0.03 300 
233 1 1 0.529747 0.338565 1.67105 0 0 0 0.721761 0.397245 -0.69256 0 0 -2.77371 2.51613 -14.1109 2.04651 0.03 300.005 
346 1 1 0.325095 0.391535 1.6745 0 0 0 0.436492 -0.219657 -0.894454 -8.36151 -3.88128 2.75037 -0.320693 -21.0271 7.46581 0.03 300.008 
334 1 1 0.40891 0.402109 1.69282 0 0 0 0.449303 -0.20376 -0.559721 -19.4597 -1.25942 5.16042 30.9488 53.8835 0.24107 0.03 300 
341 1 1 0.467974 0.401549 1.69638 0 0 0 0.245677 -0.132463 -0.884953 20.9098 -0.792916 -11.6855 1.29013 8.74893 1.0238 0.03 300 
201 1 1 0.358563 0.489023 1.68318 0 0 0 0.45898 -0.0717224 -0.774185 -20.4348 36.0288 29.9036 -2.71267 -48.2875 -27.6212 0.03 300.009 
262 1 1 0.422257 0.486752 1.67002 0 0 0 0.444926 0.842091 -0.0914951 -9.45497 -6.22658 8.11868 -31.2431 -35.178 31.2686 0.03 300.016 
217 1 1 0.467698 0.525922 1.67219 0 0 0 0.298365 -0.289278 -0.64701 5.1889 58.3697 57.4915 -4.54239 -28.3652 -6.84603 0.03 300.009 
138 1 1 0.656788 0.639282 1.67194 0 0 0 1.72738 0.332977 -0.189536 0 0 -2.77371 -32.6659 50.8145 40.7538 0.03 300.398 
129 1 1 0.415435 0.664976 1.67607 0 0 0 1.48983 0.0304445 0.01583 0 0 -2.77371 -6.10979 -65.5933 -53.0887 0.03 306.374 