ITEM: TIMESTEP
94000
ITEM: NUMBER OF ATOMS
351
ITEM: BOX BOUNDS ff ff ff
0 3.3
-0.3 0.8
-0.5 3
ITEM: ATOMS id type type x y z ix iy iz vx vy vz fx fy fz omegax omegay omegaz radius f_Temp[0] 
213 1 1 0.107447 0.184897 1.57781 0 0 0 0.0892303 -0.865379 0.0864913 15.5644 25.9899 16.9876 -7.01461 -44.8533 -7.74664 0.03 307.952 
288 1 1 0.399704 0.16914 1.59393 0 0 0 2.07357 -0.329056 0.0687834 -10.3508 -27.3298 -3.78059 16.0589 -58.3975 27.2432 0.03 310.318 
90 1 1 0.468254 0.193222 1.57656 0 0 0 1.4785 -0.264926 0.0109313 -0.0727613 -0.0211481 5.85381 8.97975 -85.2463 9.63955 0.03 336.5 
51 1 1 0.632813 0.189953 1.57703 0 0 0 2.2957 0.173446 -0.0377694 0.827814 0.261577 -1.0374 -14.5061 -29.2861 10.2194 0.03 322.1 
40 1 1 0.819796 0.185813 1.57707 0 0 0 2.2618 -0.0216793 -0.000292349 1.58495 2.35076 -0.211888 0.841498 -59.0816 13.838 0.03 329.316 
161 1 1 0.980596 0.186342 1.57684 0 0 0 2.66807 0.0229107 -0.00961459 -0.401003 -1.01889 -0.380349 -1.75715 -35.7864 22.2725 0.03 329.174 
173 1 1 1.2061 0.187517 1.57612 0 0 0 2.90908 0.39103 -0.0509504 12.6913 1.78159 22.8578 -13.3124 -35.7762 45.1551 0.03 324.36 
1 1 1 1.42301 0.194474 1.57686 0 0 0 2.89093 0.00660363 1.43188e-06 -3.90048e-06 2.32254e-08 -0.000193747 -0.221023 -37.1203 15.9399 0.03 341.857 
80 1 1 1.52248 0.173883 1.58901 0 0 0 2.7341 0.0795911 -0.0820412 1.29668 1.94065 -1.02646 -6.3602 -3.64785 21.763 0.03 327.999 
47 1 1 1.57979 0.193942 1.57686 0 0 0 2.80998 0.204836 -0.0109638 1.55192 0.627772 0.574445 -17.1896 -14.286 2.4465 0.03 371.138 
248 1 1 0.156301 0.224183 1.57668 0 0 0 0.390506 -0.602816 -0.786534 23.4029 3.94383 44.6921 -5.50511 31.5852 16.2654 0.03 300.244 
97 1 1 0.237062 0.202251 1.58088 0 0 0 1.04643 0.111699 0.128418 0 0 -2.77371 -4.32416 -99.5645 55.1756 0.03 326.912 
22 1 1 0.320106 0.20144 1.57515 0 0 0 1.66913 -0.019989 -0.476318 40.002 -9.50905 16.4348 -6.86537 -48.7256 -32.6778 0.03 313.02 
164 1 1 0.41591 0.227871 1.58232 0 0 0 2.28817 -0.00319804 0.0654784 0 0 -2.77371 -4.18633 -23.4513 -8.05773 0.03 309.298 
12 1 1 0.691224 0.20675 1.59117 0 0 0 2.37824 0.221011 0.410377 0 0 -2.77371 -6.68989 6.18359 -13.3222 0.03 338.879 
91 1 1 0.871793 0.215918 1.5798 0 0 0 2.26096 -0.00711672 0.0771259 0 0 -2.77371 -1.5835 -42.3726 -10.6149 0.03 334.226 
141 1 1 0.931051 0.218369 1.59177 0 0 0 2.43365 -0.319682 -0.156847 0 0 -2.77371 3.66961 51.0559 -0.231709 0.03 304.744 
15 1 1 1.03843 0.201654 1.57685 0 0 0 2.57958 0.143166 -0.0219187 -1.85329 -9.53338 -3.89367 -5.48441 -48.1336 17.131 0.03 345.366 
78 1 1 1.12166 0.224426 1.57693 0 0 0 2.5662 0.0906979 0.0215169 0.0810639 0.251901 -1.88988 -2.90256 -47.9406 32.3382 0.03 337.301 
88 1 1 1.27876 0.196642 1.57699 0 0 0 2.36211 -0.157811 -0.0097423 0.00747701 -0.000187529 -1.43135 5.26611 -54.6524 -8.16964 0.03 314.45 
108 1 1 1.47962 0.220535 1.57687 0 0 0 2.78034 0.0838028 0.000140384 0.0149255 0.00348266 -0.0715161 -2.80553 -40.8137 4.13349 0.03 380.097 
142 1 1 1.62658 0.235373 1.57697 0 0 0 2.79962 0.427388 -0.0182622 0.891977 0.166777 -0.958844 -17.1923 -24.5068 3.60431 0.03 373.48 
110 1 1 0.362703 0.257949 1.57687 0 0 0 2.13679 -0.0184877 0.0203806 0.176307 -0.218152 -1.0085 0.249106 -62.6429 11.9222 0.03 335.078 
3 1 1 0.514586 0.261474 1.57599 0 0 0 1.61889 -0.452299 0.274417 -2.82353 0.835266 -2.14285 14.7977 -82.5836 36.3889 0.03 351.698 
5 1 1 0.625953 0.25736 1.57684 0 0 0 2.30118 -0.107282 -0.103921 3.16622 2.01489 4.89993 2.09872 -54.4259 -25.0281 0.03 327.809 
95 1 1 0.743418 0.236007 1.57745 0 0 0 2.77798 -0.266841 0.0894804 0 0 -2.77371 -5.0535 1.72728 7.50509 0.03 309.549 
19 1 1 0.801699 0.243523 1.5899 0 0 0 2.87506 0.0606468 -0.245846 0.344496 0.383075 -3.11438 -17.8301 -6.84927 -12.9003 0.03 303.57 
13 1 1 0.977089 0.254191 1.57686 0 0 0 2.17583 0.153822 -0.000278545 -0.28911 -0.636786 -0.721882 -5.16609 -60.7764 18.6573 0.03 376.323 
120 1 1 1.18827 0.245069 1.57684 0 0 0 2.64842 0.369979 -0.00354859 0.134529 -0.00839728 0.391719 -12.3454 -45.3474 -10.1024 0.03 366.598 
125 1 1 1.24776 0.252845 1.57688 0 0 0 2.71306 0.00293702 -0.0100708 -0.0683073 -0.0255605 0.239698 -0.0945821 -43.0222 -1.83128 0.03 338.908 
41 1 1 1.38849 0.266249 1.57686 0 0 0 2.53788 0.111903 -3.36741e-06 1.12362e-05 -8.59962e-07 0.000199456 -3.74538 -48.9369 -3.69394 0.03 361.113 
60 1 1 1.5386 0.237791 1.57688 0 0 0 2.78035 0.228313 0.00296913 -0.0141066 0.00717491 -0.42894 -7.5905 -40.7571 1.36024 0.03 359.2 
339 1 1 0.21987 0.285015 1.57351 0 0 0 1.65503 0.0652291 -0.0480656 1.49584 6.88583 35.265 -2.6132 -83.536 4.08712 0.03 321.106 
107 1 1 0.454545 0.273138 1.57334 0 0 0 2.88421 -0.585911 -0.0548221 -12.7715 -16.5138 37.2366 10.1444 -56.9567 20.2408 0.03 303.604 
175 1 1 0.672629 0.289035 1.59708 0 0 0 2.18868 0.120789 -0.190432 0.146842 0.0968655 -2.58966 -29.7755 34.8644 21.7178 0.03 316.444 
127 1 1 0.74138 0.296129 1.57613 0 0 0 2.31369 -0.0987607 0.226264 -0.43795 3.14152 4.05832 7.64459 -61.3835 11.2329 0.03 309.709 
11 1 1 0.852337 0.272851 1.57687 0 0 0 2.85785 0.290086 0.0179715 -0.404275 0.0559109 -0.624472 -10.0316 -38.2714 19.0316 0.03 350.547 
94 1 1 0.913816 0.298121 1.57677 0 0 0 2.43324 0.148581 0.028938 -0.0753845 0.00573968 0.215729 -4.9856 -52.5728 -12.0162 0.03 344.456 
123 1 1 1.01968 0.298711 1.57689 0 0 0 2.27521 -0.0930138 -0.00445863 0.237819 -0.0425747 -0.2619 3.00885 -58.2713 5.12468 0.03 321.039 
64 1 1 1.07777 0.281642 1.57684 0 0 0 2.36762 0.0700376 0.00460517 -0.236856 -0.0125724 -0.393111 -2.37059 -54.8096 24.2642 0.03 365.945 
144 1 1 1.28981 0.296323 1.57849 0 0 0 2.68036 0.00261324 -0.169308 -2.51021 -3.30721 -4.64159 -3.76093 -34.7016 16.96 0.03 339.442 
112 1 1 1.46218 0.297325 1.57788 0 0 0 2.91781 -0.1668 -0.149892 -0.507758 -0.387722 -3.0798 -7.01782 -36.233 -8.53275 0.03 364.337 
86 1 1 1.5619 0.298528 1.5768 0 0 0 2.74393 0.406385 -0.00279108 -0.745525 -2.07395 -0.807962 -14.212 -41.8491 -2.49067 0.03 370.036 
257 1 1 0.0169902 0.309102 1.57502 0 0 0 -0.245745 0.156411 -0.205616 42.4579 3.56384 82.4407 -13.5683 -48.8293 -6.65116 0.03 301.01 
132 1 1 0.320655 0.302595 1.57654 0 0 0 1.64891 -0.546442 0.0363665 -2.40246 -10.0212 -13.6711 19.4554 -78.4336 2.13458 0.03 328.584 
70 1 1 0.401484 0.303968 1.57441 0 0 0 2.00929 -0.129203 0.116932 -13.4252 -10.8582 14.4929 4.1171 -74.1056 -22.7757 0.03 333.053 
56 1 1 1.22894 0.313132 1.57688 0 0 0 2.55227 -0.0507294 0.0139603 -0.0721069 -0.0907225 -0.90629 1.64297 -48.43 -15.0231 0.03 324.858 
159 1 1 1.41269 0.336746 1.5769 0 0 0 2.96461 0.0643408 0.00846683 -0.208278 -12.0849 -22.6249 14.1021 4.55027 9.16651 0.03 308.232 
300 1 1 0.182793 0.350767 1.57802 0 0 0 1.33572 -0.00869907 -0.0784282 12.722 37.1012 -86.5243 -7.1408 -81.7943 -4.48209 0.03 308.188 
31 1 1 0.265685 0.366833 1.5818 0 0 0 1.6321 -0.102361 0.280938 0 0 -2.77371 3.45327 -80.056 4.32729 0.03 303.896 
53 1 1 0.389839 0.367918 1.57715 0 0 0 1.3659 -0.0841903 -0.00982537 0 0 -2.77371 -12.5608 -45.3317 7.37338 0.03 307.168 
166 1 1 0.579627 0.360249 1.57722 0 0 0 2.42409 -0.260718 0.124084 0 0 -2.77371 8.62837 -52.764 17.0705 0.03 332.143 
38 1 1 0.659065 0.358258 1.57687 0 0 0 1.73508 0.0632179 0.0014164 -0.00744075 0.000469402 -0.15329 -2.11599 -75.797 -7.60417 0.03 331.449 
35 1 1 0.831104 0.352591 1.57686 0 0 0 2.29937 -0.0791815 -8.60989e-06 3.02795e-05 1.41125e-06 -0.000295537 2.6502 -56.9199 -4.52146 0.03 328.396 
126 1 1 0.972878 0.350087 1.57678 0 0 0 2.44996 0.127568 0.00530897 -0.173152 -0.109076 1.20225 -3.75544 -52.9735 -26.9442 0.03 320.791 
24 1 1 1.03291 0.364958 1.59177 0 0 0 2.61365 -0.254778 0.258254 0 0 -2.77371 5.31294 -40.1453 12.3135 0.03 303.667 
143 1 1 1.2411 0.372193 1.57686 0 0 0 2.19072 0.102967 -0.0139723 0.169333 0.113022 0.596802 -3.37955 -60.4446 2.41306 0.03 360.757 
124 1 1 1.31997 0.347774 1.57693 0 0 0 2.37302 0.153869 0.0209448 2.65431 3.72202 -0.02758 -5.31133 -54.4496 -11.0529 0.03 365.638 
59 1 1 1.50289 0.340987 1.57863 0 0 0 2.93195 -0.0823222 -0.0199442 0.507758 0.387722 -2.46762 1.72587 -36.179 -5.36939 0.03 349.308 
81 1 1 1.58612 0.353116 1.57981 0 0 0 2.9019 0.252894 -0.143855 -5.06462 -9.36139 -6.77282 9.39412 -28.9996 -4.67976 0.03 347.162 
176 1 1 0.439548 0.405116 1.57587 0 0 0 1.77791 0.528646 -0.25928 43.7604 6.33994 17.1031 -7.73653 -15.6574 11.277 0.03 308.87 
128 1 1 0.514353 0.395719 1.57537 0 0 0 2.50121 0.0400803 -0.0305605 -65.1268 -13.3801 -51.1413 -7.72636 -37.3056 -23.6363 0.03 305.862 
77 1 1 0.695971 0.408134 1.57688 0 0 0 1.9351 0.0155127 0.0324531 -0.138563 0.00379935 -1.71222 -0.549924 -69.1014 1.43876 0.03 334.639 
101 1 1 0.902239 0.402868 1.57673 0 0 0 2.84471 0.0240006 0.00390586 1.86349 0.332176 -0.261159 -0.242112 -29.5507 5.07518 0.03 351.897 
122 1 1 1.33452 0.407969 1.57696 0 0 0 2.53946 0.0169615 0.0593683 11.1759 -14.2537 3.39226 1.70153 -49.6459 -6.91831 0.03 357.014 
30 1 1 1.42833 0.394534 1.57691 0 0 0 2.75408 -0.366357 0.0154786 1.36252 12.846 20.1791 11.2497 -41.2614 -2.82848 0.03 375.774 
167 1 1 1.48854 0.399233 1.57693 0 0 0 2.79253 -0.127998 -0.0166165 -0.0108382 0.0343304 -0.385515 4.27138 -40.427 14.0096 0.03 347.102 
29 1 1 1.55549 0.4045 1.57684 0 0 0 3.07075 0.416947 0.00963934 1.32031 -1.25847 -0.206217 2.76206 -9.02677 0.9584 0.03 352.021 
54 1 1 1.61579 0.404485 1.57678 0 0 0 3.12417 -0.0887064 0.0456303 5.19384 -0.44408 6.47843 -6.74348 -28.3192 0.255514 0.03 360.649 
289 1 1 0.0740655 0.410791 1.57774 0 0 0 0.19187 0.0617737 -0.0564649 0 0 -2.77371 -37.2143 -56.0511 -8.11635 0.03 304.746 
245 1 1 0.179543 0.431776 1.58857 0 0 0 1.00352 0.679296 0.332901 0 0 -2.77371 -22.9534 -100.935 -2.54283 0.03 303.677 
148 1 1 0.261504 0.433289 1.58544 0 0 0 1.49675 -0.310404 0.0517724 0 0 -2.77371 10.1497 -84.3333 -10.8313 0.03 317.049 
84 1 1 0.352166 0.445376 1.57711 0 0 0 1.57199 0.434355 -0.155448 -12.554 -1.30527 -8.83197 -15.7532 -67.5062 -8.91179 0.03 317.229 
25 1 1 0.590968 0.442728 1.57515 0 0 0 1.94172 0.129847 0.0585904 -5.49057 -2.85127 31.7608 -2.88536 -76.5586 -18.0967 0.03 323.194 
170 1 1 1.16138 0.425945 1.57679 0 0 0 2.72089 0.0454861 -0.0163905 0.335117 -2.62289 0.355296 -2.49623 -42.5505 -6.73032 0.03 336.572 
246 1 1 0.0157114 0.470263 1.5906 0 0 0 -0.609299 0.611989 -0.273854 0 0 -2.77371 -35.9317 43.2535 2.11049 0.03 300.179 
272 1 1 0.117076 0.472882 1.58009 0 0 0 1.26569 0.49001 0.518047 0 0 -2.77371 -14.8727 -98.6779 25.8327 0.03 304.138 
116 1 1 0.410527 0.455791 1.57647 0 0 0 1.50301 0.392305 0.115283 -0.288464 27.9996 -7.18732 11.2642 -71.9193 -11.0143 0.03 338.649 
6 1 1 0.534014 0.461981 1.58517 0 0 0 1.87753 0.225623 0.136043 0 0 -2.77371 5.80296 -48.2745 -6.23873 0.03 315.893 
135 1 1 0.818897 0.46847 1.57661 0 0 0 2.46132 -0.17034 0.0833925 0.1751 -1.33144 -0.37805 5.99907 -51.7788 -4.20007 0.03 350.652 
134 1 1 0.926155 0.458341 1.57667 0 0 0 2.76592 0.0381383 0.0768524 -12.1021 -0.440692 -6.91017 6.2489 11.7856 10.1211 0.03 306.635 
37 1 1 0.985205 0.461476 1.5771 0 0 0 2.74367 0.232451 0.0867854 15.2072 0.482499 2.24778 -8.06379 -39.6197 -5.38965 0.03 324.091 
69 1 1 1.05006 0.460925 1.57686 0 0 0 2.70367 0.0732626 0.00065959 0.0125101 -0.00103057 0.000315795 -2.44725 -43.3275 -7.8673 0.03 363.491 
111 1 1 1.11172 0.459366 1.57697 0 0 0 2.73173 0.0459464 0.010488 -0.44496 -2.34026 -1.19163 0.268902 -33.6662 4.58219 0.03 330.905 
50 1 1 1.23099 0.448589 1.57686 0 0 0 2.80146 0.0365928 -3.28699e-05 1.44606e-05 -3.57171e-07 -0.0251262 -1.22471 -40.1133 5.19255 0.03 350.029 
163 1 1 1.31025 0.462014 1.57676 0 0 0 2.58404 -0.165484 -0.0554956 -9.17313 10.7494 -2.67531 9.75852 -44.694 23.0135 0.03 356.874 
131 1 1 1.39018 0.452517 1.5769 0 0 0 2.90827 -0.0162049 0.00896976 -0.525959 -1.48553 -2.25632 -0.258689 -36.3529 -5.63073 0.03 349.654 
39 1 1 1.46155 0.472472 1.57684 0 0 0 2.6479 -0.0910923 0.0030678 -0.0110552 -0.000494325 0.17432 3.0502 -45.2812 -8.58186 0.03 354.494 
10 1 1 1.52217 0.467737 1.57665 0 0 0 2.64999 -0.202202 0.11264 0.618174 0.0233307 -1.5269 6.92935 -46.4208 -9.01799 0.03 374.722 
162 1 1 1.61372 0.463519 1.57711 0 0 0 2.79426 -0.100053 0.0568079 5.32313 4.03796 1.85774 7.09042 -39.8771 8.52035 0.03 362.616 
278 1 1 0.419128 0.516336 2.12255 0 0 0 -0 -0 -1 0 0 0 0 0 0 0.03 300 
279 1 1 0.182641 0.508433 1.57585 0 0 0 1.17595 -0.0993525 0.761986 -11.8027 2.25612 -22.4946 2.56409 -100.653 2.1549 0.03 303.285 
226 1 1 0.315975 0.498413 1.57603 0 0 0 1.61787 0.365689 0.256762 1.94342 -0.540393 -0.226434 -7.59436 -52.566 1.59354 0.03 305.029 
21 1 1 0.509332 0.518429 1.57605 0 0 0 1.94819 0.241878 0.175297 6.67313 -1.13093 10.7628 -7.92796 -68.0213 22.1475 0.03 324.463 
160 1 1 0.656915 0.486397 1.57705 0 0 0 1.95592 0.152297 -0.0812901 -2.64474 -2.02766 0.0214915 -2.84271 -71.1116 3.49012 0.03 342.031 
4 1 1 0.718164 0.490551 1.57826 0 0 0 2.00728 0.071441 -0.143786 0 0 -2.77371 -2.57409 -67.0773 9.17394 0.03 321.014 
169 1 1 0.873711 0.496808 1.57686 0 0 0 2.22872 -0.018653 -0.000130392 0.000520997 6.40426e-06 0.00636606 0.624313 -59.2847 1.94353 0.03 339.92 
26 1 1 1.17736 0.483378 1.57686 0 0 0 3.03259 -0.0628825 0.0307619 1.14833 2.14359 -0.48616 -11.353 -28.6982 -4.66743 0.03 322.901 
145 1 1 1.41121 0.508435 1.57707 0 0 0 2.774 0.0225691 0.0166492 0.493149 -1.67299 -0.295864 -0.39958 -40.2529 13.5236 0.03 340.939 
249 1 1 0.25603 0.526538 1.57748 0 0 0 0.969303 0.939285 0.0396499 0 0 -2.77371 -16.7999 -23.2366 -1.9199 0.03 305.108 
119 1 1 0.378945 0.537421 1.57691 0 0 0 1.56791 0.574063 0.0542304 -0.182669 0.127065 -3.07657 -19.2867 -81.4718 37.6956 0.03 338.681 
227 1 1 0.568087 0.543685 1.57601 0 0 0 2.43664 0.640154 0.332609 2.2611 -0.0895111 1.75202 -20.9211 -31.9039 -13.4431 0.03 303.705 
136 1 1 0.813437 0.527908 1.57708 0 0 0 2.54386 -0.142329 0.0105631 0.71961 -1.03745 -1.05405 13.8857 7.79698 3.815 0.03 317.968 
61 1 1 0.986747 0.52188 1.5764 0 0 0 2.27601 0.157935 0.0945062 -0.111409 -0.023706 1.86449 -4.69517 -58.0282 10.3393 0.03 346.225 
152 1 1 1.04393 0.543423 1.57683 0 0 0 2.53418 -0.149436 -0.0168542 -0.118108 -0.0734659 1.30245 5.12554 -49.3595 -25.7164 0.03 360.073 
104 1 1 1.09953 0.517733 1.57676 0 0 0 2.35255 -0.00401326 -0.0115568 0.157365 0.223705 1.22917 0.629466 -54.9634 1.97848 0.03 342.902 
42 1 1 1.19021 0.541689 1.57677 0 0 0 2.73649 -0.00893004 0.0596006 2.13858 -0.0409469 -0.197488 -0.531389 -31.0908 15.7742 0.03 351.096 
121 1 1 1.25007 0.544653 1.57826 0 0 0 2.78898 -0.10416 0.0800733 -0.703099 -0.0663946 -2.44407 2.53877 -35.9477 -25.1109 0.03 370.517 
63 1 1 1.31815 0.541763 1.57681 0 0 0 2.49484 -0.0555224 -0.00565246 -0.042077 -0.0552046 -0.0597104 1.88002 -50.3255 14.3156 0.03 371.176 
109 1 1 1.47162 0.532152 1.57682 0 0 0 2.99972 -0.107529 -0.00597733 0.161214 -0.169965 0.186901 3.69712 -29.1984 6.70798 0.03 362.819 
103 1 1 1.53139 0.53411 1.57687 0 0 0 2.98624 -0.0337538 0.00202525 0.690126 0.561012 -0.617419 1.26466 -33.4924 -0.526901 0.03 374.506 
172 1 1 1.58881 0.517442 1.57682 0 0 0 2.90867 -0.170183 -0.0325703 -0.889556 7.42851 -2.27516 9.07564 -34.9854 -11.976 0.03 366.813 
66 1 1 1.64982 0.516868 1.57695 0 0 0 2.81684 -0.361096 0.0067772 -2.57666 2.45758 -1.17447 12.7762 -38.5581 1.59429 0.03 356.054 
304 1 1 0.204881 0.569101 1.57744 0 0 0 1.24694 0.151667 0.186861 7.10206 -9.35525 8.22624 -9.78499 -109.994 -8.79268 0.03 311.581 
48 1 1 0.453864 0.558769 1.57767 0 0 0 1.83949 0.0657199 0.0479346 -0.769649 0.449869 -1.76049 -1.65977 -71.5452 15.151 0.03 317.432 
147 1 1 0.625607 0.576853 1.586 0 0 0 2.20711 -0.286771 -0.280541 0.292029 -0.741803 -0.670863 -24.8318 -67.054 -1.35464 0.03 323.205 
34 1 1 0.709985 0.565044 1.57653 0 0 0 2.26731 -0.331921 0.0601147 1.40627 0.240756 3.99622 10.9924 -57.2683 -15.1777 0.03 325.656 
117 1 1 0.783639 0.57852 1.58741 0 0 0 2.43364 -0.157425 -0.134328 -0.173786 -0.737054 -0.578949 6.41476 -61.7935 -13.1799 0.03 333.599 
16 1 1 0.866262 0.562049 1.57698 0 0 0 2.5324 0.162269 0.0380505 -0.0803704 0.0485102 -3.2236 -5.43742 -49.0768 3.11791 0.03 348.945 
118 1 1 0.930726 0.566398 1.57663 0 0 0 2.06996 -0.0686353 0.0114361 0.453058 -0.749139 -0.132975 2.53911 -65.1561 -14.1679 0.03 345.728 
105 1 1 1.13388 0.567418 1.57663 0 0 0 2.67254 -0.165276 -0.109163 5.97422 3.08988 10.5166 -11.0034 -11.9605 -19.5034 0.03 322.533 
158 1 1 1.41172 0.568048 1.57695 0 0 0 2.84101 0.0169581 0.00327959 0.0599089 -1.37304 0.209655 -0.34645 -39.7281 -15.4623 0.03 362.674 
83 1 1 1.6342 0.580128 1.58923 0 0 0 3.15529 -0.0853337 -0.251777 -18.9203 11.4222 -6.63795 11.0493 5.65195 -31.0426 0.03 326.58 
317 1 1 0.236634 0.140109 1.62253 0 0 0 0.285085 -1.23277 0.0945211 22.3345 27.9334 36.236 73.9396 2.14803 6.54714 0.03 300.358 
114 1 1 0.517212 0.143876 1.61787 0 0 0 1.89508 0.168452 -0.0724679 3.85882 7.71289 6.02278 7.33288 -59.9944 15.714 0.03 329.444 
281 1 1 0.662244 0.14813 1.61587 0 0 0 2.07357 -0.0218776 -0.196109 0 0 -2.77371 4.00561 -2.89805 22.662 0.03 303.929 
58 1 1 0.869309 0.159143 1.60348 0 0 0 2.54206 -0.00176469 0.0798778 1.24276 1.58751 0.473635 19.8325 -13.5204 28.9608 0.03 352.694 
87 1 1 1.29975 0.150341 1.6126 0 0 0 2.35411 -0.0070531 0.0066457 0.00106157 0.996844 -0.98037 0.322151 -32.1581 45.6816 0.03 344.264 
305 1 1 0.348447 0.215063 1.62302 0 0 0 0.557234 -0.700523 0.326258 49.3416 26.4728 3.30003 7.4082 -16.1853 -7.90363 0.03 300.257 
307 1 1 0.428426 0.200541 1.63472 0 0 0 0.800053 -0.295193 0.486553 -5.73025 -13.1507 -2.56276 -39.8977 7.27466 -25.4284 0.03 300.489 
351 1 1 0.197308 0.247328 1.61416 0 0 0 0.0490886 -0.369966 -1.21552 -9.13835 18.1624 -30.9422 13.7846 -2.80013 13.1374 0.03 300.15 
230 1 1 0.272378 0.246674 1.61242 0 0 0 0.265486 0.152123 -1.84076 0 0 -2.77371 9.80363 -8.26336 -7.33141 0.03 300.381 
221 1 1 0.558936 0.229864 1.5986 0 0 0 2.05765 -0.501133 -0.180335 6.17915 -3.80386 5.55595 48.7714 9.22882 15.4342 0.03 300.856 
146 1 1 1.02607 0.249034 1.61065 0 0 0 2.28702 -0.106101 -0.1303 4.25026 12.0813 4.28649 -1.97144 66.5911 -22.5542 0.03 303.491 
46 1 1 1.30169 0.23542 1.62741 0 0 0 2.33549 0.071292 -0.23352 0 0 -2.77371 -25.3771 38.5119 -16.7123 0.03 301.193 
73 1 1 0.229362 0.303033 1.62565 0 0 0 0.479354 0.330492 0.224327 -2.04906 16.6821 68.7754 -7.08543 38.9415 -0.919151 0.03 300.886 
180 1 1 0.333366 0.29092 1.63295 0 0 0 0.319857 -0.644738 0.286134 -13.0755 -36.0458 -28.2745 -14.6582 25.7935 17.0482 0.03 301.975 
225 1 1 0.79257 0.294924 1.6217 0 0 0 1.7526 0.179454 -0.514831 0 0 -2.77371 7.42351 17.574 -2.33096 0.03 300.762 
44 1 1 0.952857 0.282585 1.6249 0 0 0 2.32048 -0.11111 0.049872 0 0 -2.77371 30.6718 41.8773 25.1836 0.03 301.357 
7 1 1 1.12743 0.274468 1.60951 0 0 0 2.44775 0.204665 -0.0724455 0.176929 -0.386825 -2.30132 13.0751 54.5048 -11.0719 0.03 302.63 
155 1 1 1.21729 0.269263 1.62618 0 0 0 2.17511 0.00816918 -0.318805 0 0 -2.77371 -10.7664 30.5818 24.9396 0.03 301.706 
209 1 1 0.381515 0.326216 1.62396 0 0 0 0.255396 0.163188 -0.655127 8.83949 -5.76537 0.539344 -9.99799 0.927006 6.74586 0.03 300.285 
71 1 1 0.444842 0.331666 1.60105 0 0 0 1.72897 0.42865 0.12071 25.7658 3.23428 19.7387 -48.829 47.8587 20.0834 0.03 302.357 
68 1 1 0.5942 0.321955 1.62356 0 0 0 1.71399 -0.470482 0.321421 0 0 -2.77371 30.1022 46.1697 -4.14162 0.03 300.806 
298 1 1 0.113724 0.362006 1.5866 0 0 0 -0.628458 0.122044 -2.63629 0 0 -2.77371 -3.63997 -16.2466 0.0364031 0.03 300 
204 1 1 0.190732 0.348238 1.63573 0 0 0 -0.00138592 0.309905 -0.962907 -1.89118 3.00634 4.27266 4.52736 36.54 -7.49107 0.03 300.104 
340 1 1 0.329956 0.354599 1.61381 0 0 0 0.281443 0.337253 -1.40505 2.51814 -0.795339 -0.97582 4.6357 -12.3034 -16.8018 0.03 300.041 
313 1 1 0.516815 0.342522 1.6011 0 0 0 1.21713 -0.689021 -0.36574 -8.17672 1.90539 -7.22034 31.9268 10.5379 -20.7276 0.03 300.181 
291 1 1 0.757821 0.349624 1.59643 0 0 0 2.44877 0.296609 -0.520592 0.207508 0.602724 -2.10309 -17.3409 47.5925 -18.7877 0.03 300.074 
254 1 1 0.429009 0.381798 1.62746 0 0 0 0.693895 0.471584 -0.428914 -4.98212 -6.83815 28.0782 8.89674 -27.9372 -2.08743 0.03 300.071 
268 1 1 0.553775 0.403948 1.61536 0 0 0 1.00759 0.253984 0.15273 89.7351 14.7345 104.529 -33.3938 -8.47645 2.97698 0.03 300.237 
153 1 1 0.940818 0.388615 1.62001 0 0 0 2.67695 -0.10035 0.117911 0.689619 -0.468443 -0.172784 17.477 14.751 8.2323 0.03 302.394 
190 1 1 0.309903 0.435402 1.62823 0 0 0 0.133277 0.533455 -0.50377 0 0 -2.77371 30.3405 28.9258 -6.08249 0.03 300.472 
352 1 1 0.422831 0.442202 1.63372 0 0 0 0.785758 -0.214 0.422927 0 0 -2.77371 5.78571 52.6839 3.89758 0.03 301.256 
335 1 1 0.48597 0.412708 1.62559 0 0 0 0.560704 0.237987 -0.480451 0 0 -2.77371 1.54907 -37.5783 26.2308 0.03 300.043 
92 1 1 1.47925 0.43645 1.62314 0 0 0 2.76744 -0.0844999 -0.0633926 0 0 -2.77371 -6.8667 48.1722 -4.01694 0.03 302.266 
102 1 1 0.6241 0.457583 1.621 0 0 0 1.42324 0.514418 0.459484 9.03953 4.64579 21.128 -22.3428 48.561 4.69703 0.03 300.866 
151 1 1 1.4179 0.470911 1.62684 0 0 0 2.85895 -0.0277409 0.0788831 0 0 -2.77371 1.16615 33.6757 5.26037 0.03 305.303 
157 1 1 1.56759 0.470714 1.61529 0 0 0 2.79619 -0.338885 0.0937334 -0.0275728 -0.00303361 -2.83863 -13.1212 51.1486 -2.46842 0.03 305.934 
28 1 1 0.359044 0.492845 1.61591 0 0 0 1.58228 0.430497 0.735529 2.33797 -0.190198 3.36558 4.7029 45.7838 -0.355911 0.03 301.407 
106 1 1 0.671663 0.514721 1.63119 0 0 0 1.71822 0.432622 0.116333 0 0 -2.77371 -4.14629 55.7545 -4.05663 0.03 301.916 
20 1 1 1.05961 0.504801 1.62596 0 0 0 1.77296 0.0569969 -0.436353 0 0 -2.77371 -3.96226 32.9449 5.54859 0.03 301.558 
149 1 1 1.18715 0.499856 1.63659 0 0 0 2.49444 0.00879472 0.176607 0 0 -2.77371 13.959 12.0191 14.8513 0.03 301.294 
303 1 1 0.0793572 0.528563 1.58441 0 0 0 -0.79147 1.10404 -1.65379 0 0 -2.77371 -22.4662 -7.2979 -3.06458 0.03 300.013 
224 1 1 0.420204 0.52526 1.61916 0 0 0 0.209327 0.109806 -0.514242 0 0 -2.77371 9.2799 0.0358849 14.5263 0.03 300.356 
98 1 1 0.975665 0.539792 1.63207 0 0 0 1.78583 0.0782172 0.0941422 -0.348435 0.483034 0.559239 4.08015 46.2863 7.04043 0.03 301.327 
9 1 1 1.36652 0.530782 1.61025 0 0 0 2.59972 -0.0276305 -0.159868 0.851154 -0.188739 -1.53351 8.72153 50.6864 -5.0008 0.03 308.645 
55 1 1 0.314861 0.553555 1.62219 0 0 0 0.567755 -0.103606 -0.239627 0 0 -2.77371 61.8361 54.3971 11.1891 0.03 301.142 
2 1 1 1.01901 0.581892 1.63272 0 0 0 2.24107 -0.375111 -0.156688 1.84387 -0.777301 -2.84018 -11.6134 -15.9938 -4.72694 0.03 316.137 
301 1 1 0.117064 0.620668 1.62745 0 0 0 0.348846 -0.057692 0.325824 19.058 -29.8165 22.1831 10.3366 -22.5727 -22.5498 0.03 301.973 
326 1 1 0.3019 0.613297 1.62398 0 0 0 1.27702 0.229346 0.285713 0 0 -2.77371 -15.3151 -124.904 -4.22814 0.03 320.739 
72 1 1 0.408132 0.590082 1.60039 0 0 0 1.55702 -0.0574248 -0.141546 0.769649 -0.449869 -3.78693 7.41802 -55.1434 -47.724 0.03 323.106 
65 1 1 0.69186 0.597731 1.62962 0 0 0 1.36006 0.256266 -0.582593 0 0 -2.77371 -12.6101 10.5134 -15.4496 0.03 300.554 
75 1 1 0.862378 0.615799 1.62497 0 0 0 1.87613 -0.280469 -0.280526 0.625265 -0.854504 -0.844031 -6.24288 -33.3444 -44.4455 0.03 315.255 
79 1 1 0.966567 0.599613 1.61057 0 0 0 2.20852 -0.195631 0.0510676 -1.70516 0.105712 0.628805 -24.2894 35.9533 -16.4711 0.03 321.236 
156 1 1 1.06986 0.595437 1.60459 0 0 0 2.14786 -0.415229 -0.423349 2.09679 -1.07483 -0.671193 19.8543 -61.5457 -26.1965 0.03 343.622 
18 1 1 1.18105 0.594307 1.6034 0 0 0 2.40601 -0.0187141 -0.0219691 -0.224646 0.125917 -1.49568 1.14039 -37.578 -37.7895 0.03 317.318 
17 1 1 0.76487 0.620743 1.62992 0 0 0 1.82164 -0.337975 -0.337968 0.29559 -0.725998 -0.724658 2.0767 -34.7947 -62.0359 0.03 318.767 
137 1 1 0.438386 0.10468 1.65826 0 0 0 0.973703 0.496533 -0.496534 2.40344e-06 0.988818 -0.98873 -23.4829 -66.8675 76.2571 0.03 324.996 
115 1 1 0.788548 0.10105 1.66189 0 0 0 1.97863 0.199915 -0.200516 0.00180184 0.983112 -0.991821 -9.46918 -31.6424 63.9513 0.03 318.805 
165 1 1 1.16205 0.115122 1.64782 0 0 0 2.0562 0.595799 -0.5958 1.16377e-06 0.988835 -0.988716 -28.1775 -25.8599 66.0695 0.03 324.823 
62 1 1 0.351775 0.138856 1.63796 0 0 0 0.5442 -0.053165 -0.142556 0 0 -2.77371 0.433575 -97.6327 53.674 0.03 303.391 
139 1 1 0.56827 0.127198 1.6424 0 0 0 1.78347 0.0289672 0.328337 7.73087 -1.20995 6.59526 23.5504 -52.2447 29.3179 0.03 336.932 
49 1 1 0.907504 0.131572 1.64123 0 0 0 2.67767 0.243624 0.00710453 0 0 -2.77371 0.0630507 -30.1393 32.1963 0.03 309.966 
74 1 1 0.486586 0.188685 1.64217 0 0 0 1.05897 -0.30581 -0.10866 -0.376921 4.4423 -2.51125 2.36316 33.0409 9.03044 0.03 302.152 
171 1 1 0.72783 0.164589 1.64081 0 0 0 1.46988 -0.0186099 -0.478484 0 0 -2.77371 -8.75622 48.4422 -23.7755 0.03 300.319 
43 1 1 0.83105 0.173324 1.65014 0 0 0 1.58059 -0.141038 -0.519227 0 0 -2.77371 2.92271 36.0863 3.13353 0.03 300.744 
252 1 1 0.45225 0.252914 1.6256 0 0 0 1.19626 -0.79787 -0.305211 23.1712 -19.3337 86.9271 7.81274 -5.80961 7.85041 0.03 300.038 
319 1 1 0.523285 0.233981 1.65433 0 0 0 1.32224 0.110172 -0.838198 -6.41615 -1.5256 -4.57778 2.82855 17.611 4.84745 0.03 300.014 
322 1 1 0.624481 0.242575 1.64177 0 0 0 1.5662 0.0786087 0.394242 0 0 -2.77371 -19.7033 41.4346 -15.7077 0.03 300.698 
206 1 1 0.126939 0.284236 1.6114 0 0 0 0 0 -3.09007 0 0 -2.77371 0 0 0 0.03 300 
231 1 1 0.389317 0.267668 1.64972 0 0 0 -0.213751 -0.458166 -1.63143 0 0 -2.77371 14.6022 -10.0564 -8.11498 0.03 300 
181 1 1 0.543365 0.285414 1.63043 0 0 0 0.887373 0.061024 -0.724374 0 0 -2.77371 -7.8671 1.7975 -4.67864 0.03 300.342 
187 1 1 0.729296 0.316452 1.64723 0 0 0 2.52144 0.343417 -0.153007 0 0 -2.77371 30.1105 -22.801 -13.0466 0.03 300.361 
270 1 1 0.228273 0.401072 1.63642 0 0 0 1.05467 0.428912 -0.864077 0 0 -2.77371 -16.2132 18.9437 4.41755 0.03 300.307 
178 1 1 0.369333 0.432921 1.66026 0 0 0 0.415776 -0.151367 -0.417627 -1.38501 -0.756197 -3.26346 -4.14537 -39.6784 -5.97346 0.03 300.037 
265 1 1 0.491345 0.480096 1.63952 0 0 0 0.464952 0.0761577 -0.430368 0 0 -2.77371 22.4485 -7.94763 -1.3445 0.03 300.201 
239 1 1 0.558739 0.474893 1.6403 0 0 0 1.09114 0.221142 -1.27733 0 0 -2.77371 -0.300346 44.987 8.294 0.03 300.001 
296 1 1 0.7347 0.475468 1.64697 0 0 0 1.7062 0.105685 0.346252 0 0 -2.77371 11.2556 44.8557 12.3467 0.03 300.706 
130 1 1 1.28094 0.455882 1.63757 0 0 0 2.01452 -0.115907 -0.649798 0 0 -2.77371 -1.80228 -25.3021 -0.648071 0.03 300.511 
237 1 1 0.220575 0.497943 1.6309 0 0 0 0.108899 0.464175 -0.860705 0 0 -2.77371 -70.5247 0.791109 6.93291 0.03 300.002 
263 1 1 0.285629 0.502184 1.6335 0 0 0 0.52466 -0.302465 -0.875285 0 0 -2.77371 -14.5058 -28.9916 -38.831 0.03 300.02 
262 1 1 0.425434 0.49133 1.6684 0 0 0 0.273765 0.369311 -0.223044 1.74375 0.687223 -2.72982 -33.3148 -21.7939 18.932 0.03 300.018 
243 1 1 0.583031 0.534361 1.63818 0 0 0 0.859509 0.389857 -1.00281 0 0 -2.77371 2.84037 -75.0638 -3.51675 0.03 300.041 
276 1 1 0.370582 0.563676 1.64497 0 0 0 0.772211 0.0629743 -0.323787 0 0 -2.77371 5.57569 24.0361 -7.63466 0.03 300.421 
52 1 1 0.48405 0.582823 1.64446 0 0 0 0.515985 0.424671 -0.459411 1.30569 2.34182 -2.88108 12.5205 10.4842 14.3931 0.03 300.751 
150 1 1 0.757713 0.560523 1.64432 0 0 0 1.41857 -0.0576383 -0.188392 0 0 -2.77371 -12.9058 23.3145 16.6589 0.03 300.976 
154 1 1 0.49908 0.641093 1.65169 0 0 0 1.59389 0.106291 -0.0159086 0 0 -2.77371 -9.48138 -27.6638 -61.8981 0.03 308.236 
57 1 1 0.558849 0.6348 1.64538 0 0 0 1.61997 -0.509071 -0.46192 0.503227 0.200502 -2.9143 13.2815 -7.02318 -6.40561 0.03 321.35 
89 1 1 0.618523 0.631733 1.64138 0 0 0 1.71868 -0.0418882 -0.103035 -0.503227 -0.200502 -2.63312 -2.32207 -44.3031 -60.0853 0.03 319.469 
99 1 1 0.929699 0.633722 1.64259 0 0 0 1.95476 -0.177676 -0.144937 0.258462 -2.22329 0.350875 11.8442 -55.9105 -37.5838 0.03 331.465 
76 1 1 0.60168 0.0885028 1.6741 0 0 0 1.74009 0.0317943 -0.1879 6.08121 7.97132 6.72406 13.315 45.4007 5.28212 0.03 304.857 
333 1 1 0.507612 0.0996373 1.67368 0 0 0 1.07136 -0.795762 -0.322619 0 0 -2.77371 17.0942 12.5629 -6.66147 0.03 300.292 
196 1 1 0.459138 0.178092 1.70655 0 0 0 0.944214 -0.298839 0.34854 0 0 -2.77371 5.7382 -47.4845 -8.72477 0.03 300.025 
332 1 1 0.216922 0.219783 1.66146 0 0 0 -0.367617 -0.720778 -1.05923 10.0857 -17.5421 24.8285 3.46112 -24.0522 -12.3395 0.03 300.003 
283 1 1 0.302621 0.221295 1.65855 0 0 0 0.184531 -0.942665 -1.6198 -40.4959 -9.71681 70.7086 20.3343 -16.4955 0.499509 0.03 300.002 
194 1 1 0.234315 0.288429 1.68101 0 0 0 0.0645557 -0.403497 0.386661 4.41642 -2.03804 44.9857 28.3574 -47.3311 -15.9927 0.03 300.007 
193 1 1 0.293361 0.288402 1.67778 0 0 0 0.0740174 -0.0641123 0.297014 12.8203 -1.10567 2.68828 26.5576 -44.2001 7.74319 0.03 300.046 
338 1 1 0.460812 0.295451 1.66297 0 0 0 0.739385 0.0584873 -0.940624 25.7328 3.16059 43.8449 -38.192 18.6531 26.8824 0.03 300 
347 1 1 0.348369 0.33108 1.67125 0 0 0 0.386125 0.252009 -0.615352 -15.7126 -23.8268 20.4759 -15.0938 8.70645 19.4556 0.03 300.01 
233 1 1 0.536964 0.342538 1.66364 0 0 0 0.721761 0.397245 -0.79066 0 0 -2.77371 2.51613 -14.1109 2.04651 0.03 300.005 
331 1 1 0.27693 0.352508 1.66597 0 0 0 -0.236693 -0.386273 -2.3393 0 0 -2.77371 17.3332 -28.1354 -11.577 0.03 300 
216 1 1 0.423311 0.33934 1.66727 0 0 0 0.0387003 -0.361374 -1.18071 -21.8687 22.6021 25.8485 24.3443 -12.8188 8.19757 0.03 300 
285 1 1 0.200749 0.386557 1.69572 0 0 0 -0.0467208 -0.0771399 -0.306286 0 0 -2.77371 24.2551 -49.6076 -0.401876 0.03 300.003 
346 1 1 0.32816 0.38951 1.663 0 0 0 0.0632817 -0.0291216 -1.73958 -1.87807 7.00999 -8.44921 2.44449 -2.25539 11.0159 0.03 300.009 
334 1 1 0.411899 0.399938 1.68741 0 0 0 0.274041 -0.187902 -0.60391 -5.07552 31.7106 -44.6256 32.8987 40.3547 0.111568 0.03 300 
341 1 1 0.472197 0.40018 1.68618 0 0 0 0.443802 -0.137093 -1.0985 0 0 -2.77371 1.21051 -1.60813 1.27092 0.03 300 
201 1 1 0.362798 0.491345 1.67612 0 0 0 0.432134 0.264405 -0.756364 0 0 -2.77371 -0.510626 -48.8519 -23.0287 0.03 300.009 
217 1 1 0.471026 0.530103 1.66908 0 0 0 0.326638 0.483676 -0.328705 -3.04944 -3.02904 -2.71024 -19.8659 -18.3241 -17.4323 0.03 300.012 
138 1 1 0.674062 0.642612 1.66956 0 0 0 1.72738 0.332977 -0.287636 0 0 -2.77371 -32.6659 50.8145 40.7538 0.03 300.398 
129 1 1 0.430333 0.66528 1.67574 0 0 0 1.48983 0.0304445 -0.08227 0 0 -2.77371 -6.10979 -65.5933 -53.0887 0.03 306.374 