ITEM: TIMESTEP
34000
ITEM: NUMBER OF ATOMS
176
ITEM: BOX BOUNDS ff ff ff
0 3.3
-0.3 0.8
-0.5 3
ITEM: ATOMS id type type x y z ix iy iz vx vy vz fx fy fz omegax omegay omegaz radius f_Temp[0] 
120 1 1 0.123193 0.229934 1.58017 0 0 0 1.14378 -0.0536864 0.71083 -30.4369 -21.2841 -35.6489 -6.48832 -83.412 -1.51991 0.03 303.946 
108 1 1 0.221496 0.220249 1.5784 0 0 0 0.309735 -0.358649 -0.748255 0 0 -2.77371 -30.3642 -32.6521 4.36267 0.03 303.921 
67 1 1 0.417996 0.228312 1.57773 0 0 0 0.858625 -0.176635 -0.302142 0 0 -2.77371 0.247515 -90.55 0.626175 0.03 307.085 
41 1 1 0.17202 0.259375 1.59562 0 0 0 0.661563 -0.292546 -0.346425 30.4369 21.2841 30.1014 -21.8095 -43.7958 -7.15677 0.03 303.921 
47 1 1 0.298777 0.247437 1.57704 0 0 0 2.15921 -0.448747 0.370586 16.86 -0.277888 -14.4355 15.2366 -47.264 -0.595205 0.03 303.5 
85 1 1 0.474972 0.246666 1.57314 0 0 0 1.55465 -0.314899 -1.28282 147.677 -4.47278 296.761 10.1028 -77.6109 -6.42778 0.03 300.757 
142 1 1 0.376206 0.293585 1.57299 0 0 0 1.75025 0.0840024 -0.0519997 0.099007 1.15799 130.386 -13.7985 -88.948 3.32804 0.03 309.353 
8 1 1 0.443995 0.295864 1.58301 0 0 0 1.61395 0.0870407 -0.065144 1.08326 -2.13034 -4.4953 27.4808 -56.2623 -12.0505 0.03 306.893 
14 1 1 0.526987 0.297281 1.576 0 0 0 2.42546 0.39044 -0.1841 18.1452 6.67262 35.8927 -19.0101 -37.3448 -15.3041 0.03 304.262 
124 1 1 0.19797 0.333109 1.5767 0 0 0 0.814736 -0.57464 0.362738 11.3424 16.3875 -8.18089 7.97246 -99.5963 -7.20762 0.03 309.64 
86 1 1 0.306868 0.314133 1.57524 0 0 0 1.42532 -0.101123 -0.277566 4.60409 -19.0286 48.9491 -4.88069 -89.2091 -7.84089 0.03 311.35 
23 1 1 0.374203 0.367938 1.57584 0 0 0 0.949144 0.163181 -0.37323 29.044 -2.93857 55.6108 -2.94277 -77.6608 5.81521 0.03 304.707 
122 1 1 0.229606 0.375587 1.60452 0 0 0 0.570975 0.0264314 1.16446 0.946905 -9.30179 3.8698 -15.5257 55.9491 6.74126 0.03 300.157 
96 1 1 0.470486 0.385322 1.58383 0 0 0 1.61468 -0.223465 0.476346 0.696299 -1.04634 -1.95396 17.9581 -80.1748 -7.87295 0.03 307.141 
30 1 1 0.245458 0.441321 1.5753 0 0 0 1.68062 0.88259 0.736209 -3.8324 1.46986 -8.2578 -29.8371 -81.5138 10.6832 0.03 311.092 
10 1 1 0.30803 0.421629 1.57761 0 0 0 0.985138 -0.325744 0.458757 0 0 -2.77371 10.9099 -101.437 -0.66905 0.03 307.424 
32 1 1 0.440266 0.436121 1.57506 0 0 0 1.79765 -0.101579 0.493974 -5.49082 1.5303 25.1995 3.21985 -78.9892 -10.5791 0.03 306.268 
174 1 1 0.518051 0.423581 1.59132 0 0 0 1.45622 -0.0757449 -0.434033 0 0 -2.77371 13.087 61.1362 13.7213 0.03 300.092 
54 1 1 0.345793 0.474274 1.57348 0 0 0 1.07278 -0.300568 0.178044 -32.8768 -16.6053 65.8788 11.6378 -116.622 -1.59933 0.03 309.263 
100 1 1 0.486547 0.474395 1.57776 0 0 0 1.29895 0.131138 0.042409 0 0 -2.77371 -4.52751 -90.4535 0.298531 0.03 307.544 
63 1 1 0.185984 0.503077 1.59682 0 0 0 1.19597 0 0.693408 0 0 -2.77371 0 -95.0147 0 0.03 303.946 
172 1 1 0.354408 0.554129 1.58078 0 0 0 0.508849 0.905785 -1.7644 0 0 -2.77371 -35.4867 28.1883 -2.4462 0.03 300.028 
113 1 1 0.481186 0.540329 1.5791 0 0 0 1.43808 0.612714 0.33708 0 0 -2.77371 -20.6135 -86.1739 -7.67728 0.03 307.35 
112 1 1 0.235453 0.278945 1.61147 0 0 0 1.32715 -0.428296 -0.865373 0 0 -2.77371 13.991 74.2555 -4.59884 0.03 300.054 
60 1 1 0.305803 0.286705 1.62672 0 0 0 -0.43077 -0.434161 -0.238222 -0.963297 -0.978927 24.7607 11.6748 19.7875 2.65968 0.03 300.087 
133 1 1 0.56242 0.316307 1.62807 0 0 0 1.45209 0.340449 1.03277 0 0 -2.77371 -5.42725 -57.2091 -15.3957 0.03 303.944 
64 1 1 0.128184 0.347521 1.58518 0 0 0 -0.513985 0.179493 -2.50349 0 0 -2.77371 -2.02604 4.06063 -2.06903 0.03 300.024 
45 1 1 0.42851 0.350224 1.60706 0 0 0 0.759508 -0.06197 -0.345857 -0.215188 -0.535878 -2.57288 -8.59737 45.5522 -13.0584 0.03 300.103 
82 1 1 0.572976 0.378255 1.60156 0 0 0 1.38807 -0.167347 -0.203386 0 0 -2.77371 -12.333 -109.727 1.00623 0.03 303.93 
163 1 1 0.168333 0.438662 1.60847 0 0 0 1.19594 0 0.502333 0 0 -2.77371 0 -95.0146 0 0.03 303.946 
131 1 1 0.257489 0.42251 1.62931 0 0 0 1.28247 0.35217 1.25771 -5.18905 -3.5175 -10.4845 53.5619 48.3839 36.7173 0.03 300.111 
79 1 1 0.321341 0.457 1.62777 0 0 0 -0.0964502 0.311859 -0.782856 0 0 -2.77371 -12.0884 30.1904 8.65925 0.03 300.03 
39 1 1 0.381499 0.478071 1.61699 0 0 0 0.557924 -0.0558765 1.13397 19.0385 -9.38496 47.1224 -10.4734 85.8162 13.3481 0.03 300.098 
103 1 1 0.263766 0.503311 1.6084 0 0 0 1.25375 0.172316 -0.710311 -28.5122 -72.9357 -224.254 -23.3801 -61.9156 -19.8637 0.03 303.938 
140 1 1 0.571954 0.484878 1.61976 0 0 0 1.19616 0 0.177601 0 0 -2.77371 0 -94.9995 0 0.03 303.947 
87 1 1 0.378141 0.271204 1.62539 0 0 0 0.14527 -0.706118 0.121189 -1.00808 -10.7167 60.5241 37.5184 25.1971 3.3868 0.03 300.067 
162 1 1 0.420564 0.519257 1.62749 0 0 0 0.764682 0.691914 -0.858327 27.8418 24.7609 20.9829 4.82515 10.8481 16.112 0.03 300.029 
78 1 1 0.178322 0.227864 1.67376 0 0 0 0 0 -2.88533 0 0 -2.77371 0 0 0 0.03 300 
13 1 1 0.121033 0.279919 1.64533 0 0 0 0 0 -2.98039 0 0 -2.77371 0 0 0 0.03 300 
59 1 1 0.253616 0.343212 1.65196 0 0 0 0 0 -2.95852 0 0 -2.77371 0 0 0 0.03 300 
152 1 1 0.163069 0.521312 1.67329 0 0 0 0 0 -2.8869 0 0 -2.77371 0 0 0 0.03 300 
109 1 1 0.275391 0.52156 1.65895 0 0 0 -0.036097 0.417015 -1.47942 28.5122 72.9357 218.707 -6.98145 28.8934 -8.34146 0.03 300.009 
46 1 1 0.47999 0.300848 1.70693 0 0 0 0 0 -2.77026 0 0 -2.77371 0 0 0 0.03 300 
29 1 1 0.368876 0.379155 1.69689 0 0 0 0 0 -2.80558 0 0 -2.77371 0 0 0 0.03 300 
36 1 1 0.450724 0.395688 1.69125 0 0 0 0 0 -2.8252 0 0 -2.77371 0 0 0 0.03 300 
66 1 1 0.47867 0.463 1.7155 0 0 0 0 0 -2.73975 0 0 -2.77371 0 0 0 0.03 300 
168 1 1 0.476176 0.52212 1.68474 0 0 0 0 0 -2.84776 0 0 -2.77371 0 0 0 0.03 300 
173 1 1 0.336956 0.309745 1.74898 0 0 0 0 0 -2.61713 0 0 -2.77371 0 0 0 0.03 300 
145 1 1 0.320399 0.410893 1.7495 0 0 0 0 0 -2.61517 0 0 -2.77371 0 0 0 0.03 300 
167 1 1 0.400748 0.432213 1.73026 0 0 0 0 0 -2.68639 0 0 -2.77371 0 0 0 0.03 300 
49 1 1 0.281286 0.254094 1.78368 0 0 0 0 0 -2.48362 0 0 -2.77371 0 0 0 0.03 300 
155 1 1 0.415544 0.252674 1.78554 0 0 0 0 0 -2.47626 0 0 -2.77371 0 0 0 0.03 300 
42 1 1 0.226232 0.388276 1.78628 0 0 0 0 0 -2.47331 0 0 -2.77371 0 0 0 0.03 300 
69 1 1 0.10427 0.421706 1.7573 0 0 0 0 0 -2.58574 0 0 -2.77371 0 0 0 0.03 300 
121 1 1 0.170319 0.453329 1.75585 0 0 0 0 0 -2.59123 0 0 -2.77371 0 0 0 0.03 300 
99 1 1 0.274564 0.455213 1.78033 0 0 0 0 0 -2.49686 0 0 -2.77371 0 0 0 0.03 300 
18 1 1 0.427577 0.512648 1.78804 0 0 0 0 0 -2.46635 0 0 -2.77371 0 0 0 0.03 300 
156 1 1 0.35506 0.52072 1.77466 0 0 0 0 0 -2.51903 0 0 -2.77371 0 0 0 0.03 300 
101 1 1 0.162335 0.320161 1.79919 0 0 0 0 0 -2.42162 0 0 -2.77371 0 0 0 0.03 300 
91 1 1 0.235855 0.316318 1.81151 0 0 0 0 0 -2.37119 0 0 -2.77371 0 0 0 0.03 300 
118 1 1 0.120657 0.516447 1.81726 0 0 0 0 0 -2.34726 0 0 -2.77371 0 0 0 0.03 300 
58 1 1 0.112056 0.26459 1.82966 0 0 0 0 0 -2.29487 0 0 -2.77371 0 0 0 0.03 300 
81 1 1 0.388958 0.319017 1.82788 0 0 0 0 0 -2.30242 0 0 -2.77371 0 0 0 0.03 300 
130 1 1 0.385847 0.398302 1.85264 0 0 0 0 0 -2.19442 0 0 -2.77371 0 0 0 0.03 300 
92 1 1 0.481853 0.374694 1.83937 0 0 0 0 0 -2.25298 0 0 -2.77371 0 0 0 0.03 300 
105 1 1 0.377689 0.467755 1.83615 0 0 0 0 0 -2.26691 0 0 -2.77371 0 0 0 0.03 300 
158 1 1 0.2596 0.52473 1.84834 0 0 0 0 0 -2.21355 0 0 -2.77371 0 0 0 0.03 300 
157 1 1 0.485815 0.521722 1.84376 0 0 0 0 0 -2.23375 0 0 -2.77371 0 0 0 0.03 300 
15 1 1 0.188775 0.261917 1.88488 0 0 0 0 0 -2.04521 0 0 -2.77371 0 0 0 0.03 300 
80 1 1 0.478513 0.241448 1.87152 0 0 0 0 0 -2.10828 0 0 -2.77371 0 0 0 0.03 300 
143 1 1 0.326798 0.368865 1.88059 0 0 0 0 0 -2.06571 0 0 -2.77371 0 0 0 0.03 300 
135 1 1 0.110104 0.424702 1.89541 0 0 0 0 0 -1.9941 0 0 -2.77371 0 0 0 0.03 300 
61 1 1 0.174746 0.456274 1.89514 0 0 0 0 0 -1.99537 0 0 -2.77371 0 0 0 0.03 300 
9 1 1 0.441781 0.458388 1.89761 0 0 0 0 0 -1.98321 0 0 -2.77371 0 0 0 0.03 300 
117 1 1 0.191604 0.522741 1.87727 0 0 0 0 0 -2.08141 0 0 -2.77371 0 0 0 0.03 300 
76 1 1 0.262374 0.280345 1.90348 0 0 0 0 0 -1.95397 0 0 -2.77371 0 0 0 0.03 300 
159 1 1 0.463712 0.3119 1.92247 0 0 0 0 0 -1.85617 0 0 -2.77371 0 0 0 0.03 300 
3 1 1 0.103577 0.34242 1.92932 0 0 0 0 0 -1.81958 0 0 -2.77371 0 0 0 0.03 300 
132 1 1 0.181507 0.370772 1.93262 0 0 0 0 0 -1.80172 0 0 -2.77371 0 0 0 0.03 300 
50 1 1 0.301622 0.417346 1.93282 0 0 0 0 0 -1.80064 0 0 -2.77371 0 0 0 0.03 300 
169 1 1 0.252456 0.475054 1.92434 0 0 0 0 0 -1.84626 0 0 -2.77371 0 0 0 0.03 300 
2 1 1 0.337972 0.524085 1.91444 0 0 0 0 0 -1.89815 0 0 -2.77371 0 0 0 0.03 300 
125 1 1 0.33817 0.237417 1.9488 0 0 0 0 0 -1.71137 0 0 -2.77371 0 0 0 0.03 300 
19 1 1 0.315839 0.298576 1.95289 0 0 0 0 0 -1.68773 0 0 -2.77371 0 0 0 0.03 300 
94 1 1 0.273851 0.347383 1.96618 0 0 0 0 0 -1.60866 0 0 -2.77371 0 0 0 0.03 300 
20 1 1 0.379347 0.368828 1.9562 0 0 0 0 0 -1.6684 0 0 -2.77371 0 0 0 0.03 300 
151 1 1 0.494801 0.397371 1.95545 0 0 0 0 0 -1.67282 0 0 -2.77371 0 0 0 0.03 300 
27 1 1 0.362553 0.476213 1.96215 0 0 0 0 0 -1.63309 0 0 -2.77371 0 0 0 0.03 300 
16 1 1 0.119943 0.514428 1.94655 0 0 0 0 0 -1.72422 0 0 -2.77371 0 0 0 0.03 300 
83 1 1 0.499782 0.483801 1.94082 0 0 0 0 0 -1.7565 0 0 -2.77371 0 0 0 0.03 300 
139 1 1 0.137853 0.229319 1.9852 0 0 0 0 0 -1.48819 0 0 -2.77371 0 0 0 0.03 300 
88 1 1 0.486268 0.228152 1.98249 0 0 0 0 0 -1.50595 0 0 -2.77371 0 0 0 0.03 300 
7 1 1 0.417913 0.266516 1.98625 0 0 0 0 0 -1.48123 0 0 -2.77371 0 0 0 0.03 300 
51 1 1 0.201805 0.313726 1.98802 0 0 0 0 0 -1.46946 0 0 -2.77371 0 0 0 0.03 300 
144 1 1 0.368613 0.311971 2.00472 0 0 0 0 0 -1.35341 0 0 -2.77371 0 0 0 0.03 300 
56 1 1 0.445152 0.350079 2.00269 0 0 0 0 0 -1.36802 0 0 -2.77371 0 0 0 0.03 300 
77 1 1 0.218563 0.442358 2.00643 0 0 0 0 0 -1.34095 0 0 -2.77371 0 0 0 0.03 300 
24 1 1 0.44361 0.420007 2.00869 0 0 0 0 0 -1.32427 0 0 -2.77371 0 0 0 0.03 300 
57 1 1 0.255601 0.512634 2.00303 0 0 0 0 0 -1.36557 0 0 -2.77371 0 0 0 0.03 300 
149 1 1 0.457968 0.50649 2.00668 0 0 0 0 0 -1.33908 0 0 -2.77371 0 0 0 0.03 300 
137 1 1 0.250314 0.231914 2.02318 0 0 0 0 0 -1.21214 0 0 -2.77371 0 0 0 0.03 300 
165 1 1 0.36833 0.235983 2.02449 0 0 0 0 0 -1.20155 0 0 -2.77371 0 0 0 0.03 300 
12 1 1 0.150682 0.290471 2.03405 0 0 0 0 0 -1.12071 0 0 -2.77371 0 0 0 0.03 300 
104 1 1 0.324371 0.382136 2.01461 0 0 0 0 0 -1.27963 0 0 -2.77371 0 0 0 0.03 300 
34 1 1 0.161462 0.479607 2.02592 0 0 0 0 0 -1.18977 0 0 -2.77371 0 0 0 0.03 300 
4 1 1 0.283869 0.446206 2.02575 0 0 0 0 0 -1.19125 0 0 -2.77371 0 0 0 0.03 300 
75 1 1 0.387927 0.516304 2.01755 0 0 0 0 0 -1.25687 0 0 -2.77371 0 0 0 0.03 300 
114 1 1 0.101873 0.240116 2.07116 0 0 0 -0 -0 -1 0 0 0 0 0 0 0.03 300 
115 1 1 0.29951 0.265646 2.05216 0 0 0 -0 -0 -1 0 0 0 0 0 0 0.03 300 
1 1 1 0.44893 0.24186 2.07297 0 0 0 -0 -0 -1 0 0 0 0 0 0 0.03 300 
170 1 1 0.448147 0.302404 2.05869 0 0 0 -0 -0 -1 0 0 0 0 0 0 0.03 300 
11 1 1 0.20764 0.30353 2.06911 0 0 0 -0 -0 -1 0 0 0 0 0 0 0.03 300 
71 1 1 0.27192 0.349064 2.0739 0 0 0 -0 -0 -1 0 0 0 0 0 0 0.03 300 
21 1 1 0.18594 0.400862 2.04782 0 0 0 -0 -0 -1 0 0 0 0 0 0 0.03 300 
126 1 1 0.387846 0.395075 2.05081 0 0 0 -0 -0 -1 0 0 0 0 0 0 0.03 300 
160 1 1 0.115232 0.435564 2.06022 0 0 0 -0 -0 -1 0 0 0 0 0 0 0.03 300 
106 1 1 0.375691 0.47682 2.06766 0 0 0 -0 -0 -1 0 0 0 0 0 0 0.03 300 
129 1 1 0.201147 0.51232 2.06784 0 0 0 -0 -0 -1 0 0 0 0 0 0 0.03 300 
89 1 1 0.26845 0.48437 2.07991 0 0 0 -0 -0 -1 0 0 0 0 0 0 0.03 300 
26 1 1 0.474436 0.482152 2.06708 0 0 0 -0 -0 -1 0 0 0 0 0 0 0.03 300 
161 1 1 0.383875 0.233035 2.0962 0 0 0 -0 -0 -1 0 0 0 0 0 0 0.03 300 
146 1 1 0.495146 0.246598 2.11254 0 0 0 -0 -0 -1 0 0 0 0 0 0 0.03 300 
127 1 1 0.381994 0.300043 2.1008 0 0 0 -0 -0 -1 0 0 0 0 0 0 0.03 300 
33 1 1 0.10471 0.363257 2.08227 0 0 0 -0 -0 -1 0 0 0 0 0 0 0.03 300 
35 1 1 0.342434 0.364463 2.08618 0 0 0 -0 -0 -1 0 0 0 0 0 0 0.03 300 
44 1 1 0.485944 0.343638 2.11039 0 0 0 -0 -0 -1 0 0 0 0 0 0 0.03 300 
166 1 1 0.165431 0.374869 2.11499 0 0 0 -0 -0 -1 0 0 0 0 0 0 0.03 300 
141 1 1 0.429803 0.380165 2.10189 0 0 0 -0 -0 -1 0 0 0 0 0 0 0.03 300 
38 1 1 0.303454 0.414467 2.09292 0 0 0 -0 -0 -1 0 0 0 0 0 0 0.03 300 
111 1 1 0.473074 0.424163 2.10635 0 0 0 -0 -0 -1 0 0 0 0 0 0 0.03 300 
154 1 1 0.211019 0.445658 2.08167 0 0 0 -0 -0 -1 0 0 0 0 0 0 0.03 300 
119 1 1 0.126835 0.482642 2.11437 0 0 0 -0 -0 -1 0 0 0 0 0 0 0.03 300 
90 1 1 0.102204 0.238351 2.14553 0 0 0 -0 -0 -1 0 0 0 0 0 0 0.03 300 
97 1 1 0.184928 0.234672 2.13277 0 0 0 -0 -0 -1 0 0 0 0 0 0 0.03 300 
74 1 1 0.248328 0.247523 2.13851 0 0 0 -0 -0 -1 0 0 0 0 0 0 0.03 300 
62 1 1 0.329189 0.252757 2.1482 0 0 0 -0 -0 -1 0 0 0 0 0 0 0.03 300 
5 1 1 0.160428 0.3182 2.13871 0 0 0 -0 -0 -1 0 0 0 0 0 0 0.03 300 
175 1 1 0.230789 0.339127 2.14237 0 0 0 -0 -0 -1 0 0 0 0 0 0 0.03 300 
28 1 1 0.222318 0.404493 2.12476 0 0 0 -0 -0 -1 0 0 0 0 0 0 0.03 300 
37 1 1 0.41824 0.41741 2.15001 0 0 0 -0 -0 -1 0 0 0 0 0 0 0.03 300 
93 1 1 0.225968 0.488444 2.13161 0 0 0 -0 -0 -1 0 0 0 0 0 0 0.03 300 
17 1 1 0.345254 0.512161 2.15021 0 0 0 -0 -0 -1 0 0 0 0 0 0 0.03 300 
134 1 1 0.443832 0.509496 2.13848 0 0 0 -0 -0 -1 0 0 0 0 0 0 0.03 300 
40 1 1 0.408343 0.240904 2.1808 0 0 0 -0 -0 -1 0 0 0 0 0 0 0.03 300 
43 1 1 0.460616 0.284913 2.15675 0 0 0 -0 -0 -1 0 0 0 0 0 0 0.03 300 
95 1 1 0.346797 0.327727 2.15259 0 0 0 -0 -0 -1 0 0 0 0 0 0 0.03 300 
68 1 1 0.400811 0.324654 2.18473 0 0 0 -0 -0 -1 0 0 0 0 0 0 0.03 300 
25 1 1 0.278223 0.363632 2.17196 0 0 0 -0 -0 -1 0 0 0 0 0 0 0.03 300 
123 1 1 0.48159 0.360101 2.17449 0 0 0 -0 -0 -1 0 0 0 0 0 0 0.03 300 
116 1 1 0.152794 0.405213 2.16527 0 0 0 -0 -0 -1 0 0 0 0 0 0 0.03 300 
128 1 1 0.355123 0.421294 2.15732 0 0 0 -0 -0 -1 0 0 0 0 0 0 0.03 300 
98 1 1 0.491139 0.43458 2.17869 0 0 0 -0 -0 -1 0 0 0 0 0 0 0.03 300 
138 1 1 0.301221 0.470777 2.16913 0 0 0 -0 -0 -1 0 0 0 0 0 0 0.03 300 
72 1 1 0.10161 0.511094 2.18218 0 0 0 -0 -0 -1 0 0 0 0 0 0 0.03 300 
22 1 1 0.254767 0.230824 2.21097 0 0 0 -0 -0 -1 0 0 0 0 0 0 0.03 300 
73 1 1 0.170916 0.265084 2.21451 0 0 0 -0 -0 -1 0 0 0 0 0 0 0.03 300 
171 1 1 0.477654 0.251099 2.21033 0 0 0 -0 -0 -1 0 0 0 0 0 0 0.03 300 
110 1 1 0.10205 0.273683 2.21359 0 0 0 -0 -0 -1 0 0 0 0 0 0 0.03 300 
107 1 1 0.303471 0.271065 2.2197 0 0 0 -0 -0 -1 0 0 0 0 0 0 0.03 300 
31 1 1 0.221691 0.336081 2.20246 0 0 0 -0 -0 -1 0 0 0 0 0 0 0.03 300 
84 1 1 0.227036 0.399722 2.19273 0 0 0 -0 -0 -1 0 0 0 0 0 0 0.03 300 
148 1 1 0.12082 0.460146 2.21005 0 0 0 -0 -0 -1 0 0 0 0 0 0 0.03 300 
55 1 1 0.200976 0.455034 2.18831 0 0 0 -0 -0 -1 0 0 0 0 0 0 0.03 300 
136 1 1 0.374023 0.456818 2.20267 0 0 0 -0 -0 -1 0 0 0 0 0 0 0.03 300 
65 1 1 0.421483 0.499457 2.21254 0 0 0 -0 -0 -1 0 0 0 0 0 0 0.03 300 
150 1 1 0.481625 0.503918 2.2172 0 0 0 -0 -0 -1 0 0 0 0 0 0 0.03 300 
48 1 1 0.17066 0.517967 2.19622 0 0 0 -0 -0 -1 0 0 0 0 0 0 0.03 300 
164 1 1 0.244978 0.28843 2.23115 0 0 0 -0 -0 -1 0 0 0 0 0 0 0.03 300 
70 1 1 0.142707 0.355749 2.22494 0 0 0 -0 -0 -1 0 0 0 0 0 0 0.03 300 
53 1 1 0.294932 0.364362 2.23 0 0 0 -0 -0 -1 0 0 0 0 0 0 0.03 300 
102 1 1 0.419044 0.351535 2.23593 0 0 0 -0 -0 -1 0 0 0 0 0 0 0.03 300 
176 1 1 0.349719 0.399621 2.23537 0 0 0 -0 -0 -1 0 0 0 0 0 0 0.03 300 
153 1 1 0.496538 0.392613 2.22762 0 0 0 -0 -0 -1 0 0 0 0 0 0 0.03 300 
6 1 1 0.317689 0.454971 2.2324 0 0 0 -0 -0 -1 0 0 0 0 0 0 0.03 300 
147 1 1 0.248507 0.49546 2.23684 0 0 0 -0 -0 -1 0 0 0 0 0 0 0.03 300 
52 1 1 0.358392 0.516981 2.23661 0 0 0 -0 -0 -1 0 0 0 0 0 0 0.03 300 
