ITEM: TIMESTEP
49000
ITEM: NUMBER OF ATOMS
176
ITEM: BOX BOUNDS ff ff ff
0 3.3
-0.3 0.8
-0.5 3
ITEM: ATOMS id type type x y z ix iy iz vx vy vz fx fy fz omegax omegay omegaz radius f_Temp[0] 
108 1 1 0.381476 0.18496 1.57675 0 0 0 1.56202 -0.0668117 -0.000435897 -7.24887 -10.0837 -1.92813 -10.1166 -68.0437 22.4822 0.03 331.633 
47 1 1 0.570998 0.186872 1.58006 0 0 0 1.95432 -0.28317 0.0870418 0 0 -2.77371 9.71682 -68.2165 0.380431 0.03 318.831 
120 1 1 0.271826 0.220127 1.57686 0 0 0 1.08274 0.0675031 0.00234207 -0.0151106 0.000657219 -0.125254 -2.25954 -97.6391 10.6533 0.03 318.714 
112 1 1 0.422987 0.226046 1.57659 0 0 0 1.39528 -0.148354 -0.0260549 -65.5541 -23.7125 -56.253 -29.1363 22.6038 -18.1754 0.03 314.097 
60 1 1 0.482527 0.224802 1.58598 0 0 0 1.70311 -0.281834 0.387226 0 0 -2.77371 11.6657 -61.1955 15.5778 0.03 309.776 
67 1 1 0.632544 0.200031 1.5883 0 0 0 2.14579 -0.179694 0.0411771 0 0 -2.77371 9.79452 -40.8055 2.01229 0.03 314.994 
58 1 1 0.15265 0.267363 1.57812 0 0 0 0.728994 0.0333468 0.0318076 0 0 -2.77371 0.410391 -100.082 -3.48054 0.03 306.977 
41 1 1 0.346056 0.261638 1.58362 0 0 0 1.8798 0.273142 -0.0725876 2.51809 -14.7772 -21.4621 -8.60215 -70.675 14.4581 0.03 316.89 
142 1 1 0.61766 0.259956 1.57691 0 0 0 2.14106 -0.141198 0.0240176 -0.0352912 -0.0141597 -1.77649 4.68502 -62.125 -9.9232 0.03 321.376 
8 1 1 0.786684 0.261438 1.5853 0 0 0 2.45713 -0.251596 -0.486908 0 0 -2.77371 15.1058 -50.2364 3.30632 0.03 311.702 
13 1 1 0.268517 0.286843 1.57824 0 0 0 1.16115 -0.0832796 0.187615 0 0 -2.77371 2.76712 -95.2921 -7.38027 0.03 319.436 
59 1 1 0.445046 0.277459 1.59298 0 0 0 1.35291 0.193085 -0.775253 18.9788 11.2278 -1.00785 -13.562 -67.2507 17.6494 0.03 309.958 
86 1 1 0.562882 0.284398 1.5785 0 0 0 2.08001 -0.238179 -0.185738 0 0 -2.77371 5.20767 -58.3388 -5.0219 0.03 325.373 
45 1 1 0.685808 0.261865 1.57755 0 0 0 2.63061 -0.835306 -0.0351492 0 0 -2.77371 -0.528973 44.5714 -10.4049 0.03 303.846 
124 1 1 0.403089 0.316444 1.57732 0 0 0 1.31744 -0.317933 -0.3769 -12.8849 13.2397 -19.258 11.9041 -51.5514 9.11265 0.03 317.431 
14 1 1 0.895473 0.321665 1.57686 0 0 0 2.42075 0.0677053 2.56904e-06 -6.01269e-06 2.57776e-07 0.000746683 -2.26609 -52.8573 -2.54476 0.03 322.969 
101 1 1 0.169059 0.343834 1.5772 0 0 0 1.39239 0.0495663 0.0984792 0 0 -2.77371 -0.679166 -88.8454 2.48115 0.03 308.573 
64 1 1 0.252933 0.367622 1.57695 0 0 0 1.0803 -0.0726984 0.171519 9.65409 5.24339 -16.7129 3.55899 -98.1503 -1.58488 0.03 319.208 
29 1 1 0.44352 0.361094 1.57968 0 0 0 0.866457 -0.22485 -0.263006 6.03538 -9.79024 -5.92911 6.9791 51.3162 10.4485 0.03 300.882 
23 1 1 0.647918 0.341226 1.58642 0 0 0 2.36701 -0.338154 -0.12618 0 0 -2.77371 15.3498 -51.6845 -19.7042 0.03 325.929 
96 1 1 0.710648 0.345123 1.57762 0 0 0 1.6054 -0.335557 -0.100803 0 0 -2.77371 11.2485 -80.1495 -6.81822 0.03 310.155 
82 1 1 0.825321 0.36299 1.57686 0 0 0 1.80632 -0.148105 -4.48726e-05 0.00036862 -0.000391624 0.0208274 4.95733 -73.4245 2.87889 0.03 315.589 
69 1 1 0.197294 0.402144 1.57982 0 0 0 0.0673838 -0.220085 -0.171364 9.45518 3.01593 2.02064 -22.6156 -63.3047 27.6271 0.03 314.769 
122 1 1 0.393549 0.391025 1.57633 0 0 0 1.01907 -0.0253603 -0.258354 2.32439 -28.6443 4.44889 4.99878 -70.5802 -7.36377 0.03 321.233 
135 1 1 0.112023 0.433934 1.58517 0 0 0 0.773644 0.205346 0.572391 0 0 -2.77371 -6.94327 -108.889 -4.466 0.03 303.806 
42 1 1 0.247744 0.429949 1.59311 0 0 0 0.374114 0.82062 -0.639703 -5.60835 1.45939 -7.96858 -31.3828 59.8253 -11.1404 0.03 300.353 
131 1 1 0.352758 0.432752 1.58099 0 0 0 1.07267 -0.330014 -0.510506 -5.90804 21.2423 19.1251 19.5803 30.2837 17.6196 0.03 300.75 
10 1 1 0.508135 0.425153 1.57681 0 0 0 1.77037 0.368841 0.0941582 7.38216 9.2544 -6.18212 -12.7714 -74.6049 4.15062 0.03 325.028 
36 1 1 0.615537 0.43633 1.57752 0 0 0 1.87002 0.0430738 -0.14687 0 0 -2.77371 -23.1322 3.23726 3.40092 0.03 303.328 
32 1 1 0.71024 0.435537 1.57706 0 0 0 1.80986 0.022742 0.0984983 -0.301778 0.00335147 -5.46389 -0.760581 -73.2601 -5.21338 0.03 314.211 
174 1 1 0.819071 0.423277 1.57686 0 0 0 2.36148 -0.0385919 0.000250034 1.28684 -0.521943 0.0036038 9.9386 -33.5234 2.83466 0.03 316.707 
61 1 1 0.181833 0.470209 1.5763 0 0 0 0.410284 0.407705 -0.655062 27.629 6.57742 54.0286 -35.8054 -27.9102 6.08037 0.03 300.306 
163 1 1 0.307851 0.470368 1.57526 0 0 0 1.56815 0.29565 0.242087 0.709369 3.612 23.7981 -3.03991 -73.3785 -30.4535 0.03 309.213 
30 1 1 0.431817 0.451247 1.57486 0 0 0 1.40786 0.182122 -0.0245018 2.18481 -3.07822 33.2646 -2.68481 -96.9089 9.5458 0.03 334.411 
54 1 1 0.559655 0.462494 1.5779 0 0 0 1.82527 0.0362011 0.210735 0 0 -2.77371 -1.27574 -73.0214 -1.14705 0.03 322.471 
121 1 1 0.256591 0.511036 1.58025 0 0 0 1.46028 0.63676 0.365312 0 0 -2.77371 -22.0338 -85.3888 18.8227 0.03 313.292 
63 1 1 0.383149 0.498227 1.57568 0 0 0 1.57077 0.239966 0.136128 4.89836 -0.90629 2.06206 -7.79261 -83.5522 0.24577 0.03 323.011 
39 1 1 0.474393 0.507195 1.57427 0 0 0 1.67608 0.270999 0.286153 -4.0828 4.09569 39.9991 -12.4223 -91.5901 -4.69273 0.03 311.9 
66 1 1 0.617956 0.502056 1.57856 0 0 0 1.55846 0.24575 -0.0229952 0 0 -2.77371 -8.22524 -81.7736 -8.61444 0.03 306.793 
168 1 1 0.687181 0.512961 1.57863 0 0 0 1.74602 -0.0714041 -0.424386 0 0 -2.77371 2.42933 -75.7376 10.3515 0.03 303.639 
100 1 1 0.750313 0.485417 1.57699 0 0 0 1.87106 0.029061 -0.0162524 0.0130607 -0.000147971 -1.18677 -0.969628 -71.0457 -5.29887 0.03 319.193 
162 1 1 0.563689 0.53424 1.5777 0 0 0 1.50112 0.131785 -0.0776567 0 0 -2.77371 -4.15412 -83.776 14.5225 0.03 312.693 
118 1 1 0.163998 0.573612 1.59459 0 0 0 0.664038 0.780649 -0.131409 0 0 -2.77371 -5.52755 -94.4934 -0.180128 0.03 303.804 
152 1 1 0.234959 0.571325 1.59393 0 0 0 0.840711 0.470336 0.244874 0 0 -2.77371 -16.1363 -105.272 11.7114 0.03 308.026 
158 1 1 0.358699 0.574255 1.5961 0 0 0 2.02704 0.30677 -0.144546 0 0 -2.77371 -16.8304 -14.4877 -83.9116 0.03 303.616 
109 1 1 0.420134 0.566674 1.57781 0 0 0 2.05321 0.0388534 0.0363947 0 0 -2.77371 -1.30285 -64.9992 -61.3685 0.03 306.507 
103 1 1 0.511347 0.572279 1.58165 0 0 0 1.73223 -0.0279799 -0.0878102 0.571705 -0.739738 -1.22265 -8.87277 -60.3951 -30.3275 0.03 322.771 
113 1 1 0.763405 0.576993 1.58617 0 0 0 2.00679 -0.0828203 -0.0828335 2.14343e-05 -0.986074 -0.991165 3.9169 -83.4298 -10.8358 0.03 322.895 
87 1 1 0.424226 0.157395 1.60828 0 0 0 1.29863 -0.206346 0.166558 1.45868 -0.0737016 -1.33274 20.827 24.2397 23.6337 0.03 303.366 
85 1 1 0.70777 0.180445 1.59909 0 0 0 1.50927 -0.522515 -0.534497 0 0 -2.77371 8.12198 -77.5089 4.18826 0.03 303.886 
49 1 1 0.326833 0.221288 1.6303 0 0 0 -0.2705 0.19685 0.261547 0 0 -2.77371 2.93358 -8.20715 -33.8089 0.03 300.571 
80 1 1 0.559684 0.217966 1.63814 0 0 0 1.31915 -0.178642 0.399552 0 0 -2.77371 -11.1196 32.8548 -25.5688 0.03 300.208 
15 1 1 0.203042 0.228819 1.60805 0 0 0 0.513798 -0.724994 -0.340542 0 0 -2.77371 31.7253 35.3502 -0.377258 0.03 300.147 
76 1 1 0.263386 0.277272 1.64027 0 0 0 -0.190618 -0.136055 0.6261 0 0 -2.77371 -4.01766 52.0856 -11.0237 0.03 300.432 
91 1 1 0.231274 0.326149 1.61357 0 0 0 -0.165534 -0.35718 -1.16992 -5.02144 18.8116 -39.9644 8.78835 12.8811 -4.84836 0.03 300.531 
81 1 1 0.513133 0.334446 1.59696 0 0 0 1.17215 0.054192 -0.905827 0 0 -2.77371 -31.3446 -3.51783 -2.88224 0.03 300.349 
3 1 1 0.0816545 0.343447 1.58696 0 0 0 -0.931452 0.0376208 -1.51205 0 0 -2.77371 3.54908 -19.7901 1.57106 0.03 300.025 
132 1 1 0.17746 0.357064 1.63658 0 0 0 -0.491834 0.262435 0.172978 0.391995 18.6188 -13.693 62.9284 40.7951 9.61187 0.03 300.185 
143 1 1 0.343021 0.35234 1.59617 0 0 0 0.0136289 0.313921 -1.7848 0 0 -2.77371 5.24709 22.8671 -4.13819 0.03 300.243 
145 1 1 0.410483 0.41403 1.63285 0 0 0 0.764723 0.59886 0.343973 -5.90005 16.8573 -20.898 -8.8001 46.8437 -9.78815 0.03 300.765 
167 1 1 0.481096 0.388251 1.61485 0 0 0 1.10681 0.31651 -0.649006 22.9547 -6.1557 18.0292 26.3883 -24.6177 25.3427 0.03 300.737 
50 1 1 0.298925 0.413313 1.61721 0 0 0 0.918745 -0.0513381 -1.19812 -3.84683 -4.47533 -2.3732 24.9592 -29.3691 -26.067 0.03 300.005 
169 1 1 0.2265 0.476523 1.62916 0 0 0 -0.386162 0.014908 0.170397 0 0 -2.77371 30.2402 -8.43362 25.3574 0.03 300.123 
105 1 1 0.400288 0.476426 1.62707 0 0 0 0.697955 -0.0593608 0.536254 5.79569 -5.22847 11.1379 11.131 56.9074 -17.4482 0.03 300.841 
9 1 1 0.46606 0.464131 1.61953 0 0 0 1.18311 0.727791 0.270947 6.39261 0.987665 45.7383 -12.097 88.4157 4.87313 0.03 300.968 
16 1 1 0.119943 0.514428 1.57756 0 0 0 0 0 -3.19572 0 0 -2.77371 0 0 0 0.03 300 
99 1 1 0.300929 0.511898 1.63586 0 0 0 0.166598 0.501313 0.0637703 0 0 -2.77371 -19.9151 -69.1062 11.6566 0.03 300.058 
83 1 1 0.515783 0.495055 1.6127 0 0 0 1.65324 0.528557 0.789559 22.1306 -1.64937 35.2213 1.8414 80.3894 14.2758 0.03 300.269 
140 1 1 0.802472 0.485986 1.62815 0 0 0 1.91018 0.0155893 -0.00454246 0 0 -2.77371 -2.11596 -33.9412 0.440971 0.03 304.049 
117 1 1 0.187416 0.519779 1.61176 0 0 0 0.195016 0.343598 -0.45217 0 0 -2.77371 54.3686 29.5279 8.29245 0.03 300.087 
157 1 1 0.598015 0.550666 1.63752 0 0 0 1.64473 -0.000973832 0.534453 0 0 -2.77371 -18.9003 88.2493 6.98209 0.03 300.3 
172 1 1 0.570178 0.593096 1.60331 0 0 0 1.85818 0.130942 0.220415 0 0 -2.77371 -10.1863 -62.2319 -39.3405 0.03 314.64 
173 1 1 0.400086 0.248282 1.62686 0 0 0 0.115061 -0.551549 -1.66205 79.0822 34.9923 62.1769 5.2982 24.9427 14.209 0.03 300.125 
19 1 1 0.325451 0.298429 1.62548 0 0 0 0.307598 0.00798663 -1.29152 -2.51809 14.7772 15.9147 -2.61045 9.76915 4.23815 0.03 300.01 
155 1 1 0.468326 0.278899 1.64649 0 0 0 0.697381 0.463526 -0.403405 11.0072 7.24286 -7.97762 10.0014 45.5631 -4.75513 0.03 300.178 
46 1 1 0.562564 0.29535 1.63874 0 0 0 0.863851 -0.226412 0.157938 0.0528184 -14.6428 -5.32757 -3.33596 10.5763 -21.6302 0.03 300.43 
159 1 1 0.506933 0.321155 1.6645 0 0 0 0.82636 0.197619 -0.561936 0 0 -2.77371 47.675 -14.3142 -12.4889 0.03 300.002 
94 1 1 0.289757 0.350391 1.63162 0 0 0 0.996496 0.164419 -2.00628 0 0 -2.77371 -10.0414 9.23152 8.93818 0.03 300.003 
92 1 1 0.56229 0.354152 1.64181 0 0 0 1.17043 -0.0755652 -0.559592 -0.0528184 14.6428 -0.219853 -13.5016 -16.4452 11.0136 0.03 300.354 
79 1 1 0.380822 0.544591 1.6447 0 0 0 1.43858 0.31405 0.751641 0 0 -2.77371 -44.8327 44.3081 -13.675 0.03 300.852 
18 1 1 0.452812 0.549726 1.64122 0 0 0 0.0241209 0.288686 -0.223744 0 0 -2.77371 -13.0552 42.9778 11.5299 0.03 300.104 
156 1 1 0.398956 0.643819 1.65918 0 0 0 1.26011 0.305667 0.590396 0 0 -2.77371 -24.298 -57.1889 -50.7379 0.03 303.44 
78 1 1 0.279712 0.14805 1.69624 0 0 0 0.840524 -0.590493 0.0531203 0 0 -2.77371 28.2436 73.2207 -0.414164 0.03 300.124 
139 1 1 0.137853 0.229319 1.65161 0 0 0 0 0 -2.95969 0 0 -2.77371 0 0 0 0.03 300 
88 1 1 0.492044 0.223203 1.65748 0 0 0 0.481549 -0.454625 -2.01939 0 0 -2.77371 40.783 8.16187 -15.6345 0.03 300.001 
125 1 1 0.346991 0.263347 1.67374 0 0 0 0.151475 0.103346 -0.560612 -31.2598 -67.174 -32.7597 -65.8173 -1.17381 -6.00392 0.03 300.004 
7 1 1 0.434646 0.266854 1.69229 0 0 0 0.664854 0.116344 -0.250465 -6.25076 -4.29436 32.9752 5.39941 -46.2702 14.0713 0.03 300.002 
51 1 1 0.202163 0.311388 1.66123 0 0 0 0.162127 -1.22591 -1.0413 -5.70692 -43.2272 53.7447 24.8846 -0.872333 2.43901 0.03 300.002 
20 1 1 0.400617 0.365526 1.6652 0 0 0 0.0075718 0.140789 -1.05158 19.1827 -16.2301 23.5249 40.6341 -2.06429 -5.27736 0.03 300.007 
133 1 1 0.780234 0.367375 1.67262 0 0 0 1.45209 0.340449 -0.438733 0 0 -2.77371 -5.42725 -57.2091 -15.3957 0.03 303.944 
151 1 1 0.517213 0.411784 1.66587 0 0 0 0.712426 0.469986 -0.899336 0 0 -2.77371 -19.6762 -4.49846 10.5764 0.03 300.006 
130 1 1 0.461941 0.441159 1.67371 0 0 0 1.63495 0.310981 0.63778 4.24623 2.03964 -3.38148 20.2622 -61.6757 -16.4917 0.03 300.019 
27 1 1 0.354813 0.483289 1.66384 0 0 0 -0.449779 0.262946 -0.602049 -5.097 0.051261 8.05461 1.21391 -73.3103 6.55507 0.03 300.006 
2 1 1 0.376023 0.579181 1.7044 0 0 0 0.763244 1.14936 0.4441 0 0 -2.77371 29.9697 -62.4635 12.0468 0.03 300.012 
144 1 1 0.36896 0.312824 1.69205 0 0 0 0.28254 0.667295 -2.34119 31.2598 67.174 27.2123 -13.7726 6.67485 -1.08756 0.03 300 
56 1 1 0.449636 0.347821 1.69285 0 0 0 1.09553 -0.506264 -1.67409 -13.2826 -0.627186 -10.948 2.60565 27.7732 8.95367 0.03 300 
104 1 1 0.324371 0.382136 1.71231 0 0 0 0 0 -2.75113 0 0 -2.77371 0 0 0 0.03 300 
77 1 1 0.218563 0.442358 1.69492 0 0 0 0 0 -2.81245 0 0 -2.77371 0 0 0 0.03 300 
24 1 1 0.441782 0.414833 1.72414 0 0 0 -0.278452 -0.743269 0.101182 0 0 -2.77371 18.3192 0.117338 -0.0952221 0.03 300 
57 1 1 0.255601 0.512634 1.68783 0 0 0 0 0 -2.83707 0 0 -2.77371 0 0 0 0.03 300 
149 1 1 0.457968 0.50649 1.69545 0 0 0 0 0 -2.81058 0 0 -2.77371 0 0 0 0.03 300 
137 1 1 0.250314 0.231914 1.731 0 0 0 0 0 -2.68364 0 0 -2.77371 0 0 0 0.03 300 
165 1 1 0.36833 0.235983 1.73389 0 0 0 0 0 -2.67305 0 0 -2.77371 0 0 0 0.03 300 
34 1 1 0.161462 0.479607 1.7371 0 0 0 0 0 -2.66127 0 0 -2.77371 0 0 0 0.03 300 
4 1 1 0.283869 0.446206 1.7367 0 0 0 0 0 -2.66275 0 0 -2.77371 0 0 0 0.03 300 
75 1 1 0.387927 0.516304 1.71866 0 0 0 0 0 -2.72837 0 0 -2.77371 0 0 0 0.03 300 
12 1 1 0.150682 0.290471 1.75558 0 0 0 0 0 -2.59221 0 0 -2.77371 0 0 0 0.03 300 
115 1 1 0.29951 0.265646 1.79911 0 0 0 0 0 -2.42191 0 0 -2.77371 0 0 0 0.03 300 
170 1 1 0.448147 0.302404 1.81471 0 0 0 0 0 -2.35785 0 0 -2.77371 0 0 0 0.03 300 
21 1 1 0.18594 0.400862 1.7885 0 0 0 0 0 -2.46449 0 0 -2.77371 0 0 0 0.03 300 
126 1 1 0.387846 0.395075 1.79583 0 0 0 0 0 -2.43515 0 0 -2.77371 0 0 0 0.03 300 
160 1 1 0.115232 0.435564 1.81831 0 0 0 0 0 -2.34284 0 0 -2.77371 0 0 0 0.03 300 
114 1 1 0.101873 0.240116 1.84336 0 0 0 0 0 -2.23552 0 0 -2.77371 0 0 0 0.03 300 
1 1 1 0.44893 0.24186 1.84739 0 0 0 0 0 -2.21776 0 0 -2.77371 0 0 0 0.03 300 
11 1 1 0.20764 0.30353 1.83875 0 0 0 0 0 -2.25563 0 0 -2.77371 0 0 0 0.03 300 
71 1 1 0.27192 0.349064 1.84945 0 0 0 0 0 -2.20864 0 0 -2.77371 0 0 0 0.03 300 
106 1 1 0.375691 0.47682 1.83548 0 0 0 0 0 -2.26986 0 0 -2.77371 0 0 0 0.03 300 
129 1 1 0.201147 0.51232 1.83588 0 0 0 0 0 -2.26809 0 0 -2.77371 0 0 0 0.03 300 
26 1 1 0.474436 0.482152 1.83416 0 0 0 0 0 -2.27555 0 0 -2.77371 0 0 0 0.03 300 
161 1 1 0.383875 0.233035 1.89624 0 0 0 0 0 -1.98998 0 0 -2.77371 0 0 0 0.03 300 
33 1 1 0.10471 0.363257 1.86759 0 0 0 0 0 -2.12653 0 0 -2.77371 0 0 0 0.03 300 
35 1 1 0.342434 0.364463 1.87581 0 0 0 0 0 -2.08827 0 0 -2.77371 0 0 0 0.03 300 
38 1 1 0.303454 0.414467 1.88968 0 0 0 0 0 -2.02205 0 0 -2.77371 0 0 0 0.03 300 
154 1 1 0.211019 0.445658 1.86631 0 0 0 0 0 -2.13242 0 0 -2.77371 0 0 0 0.03 300 
89 1 1 0.26845 0.48437 1.86255 0 0 0 0 0 -2.14968 0 0 -2.77371 0 0 0 0.03 300 
146 1 1 0.495146 0.246598 1.92747 0 0 0 0 0 -1.82958 0 0 -2.77371 0 0 0 0.03 300 
127 1 1 0.381994 0.300043 1.90531 0 0 0 0 0 -1.94475 0 0 -2.77371 0 0 0 0.03 300 
44 1 1 0.485944 0.343638 1.9235 0 0 0 0 0 -1.85067 0 0 -2.77371 0 0 0 0.03 300 
166 1 1 0.165431 0.374869 1.93192 0 0 0 0 0 -1.80555 0 0 -2.77371 0 0 0 0.03 300 
141 1 1 0.429803 0.380165 1.90742 0 0 0 0 0 -1.93406 0 0 -2.77371 0 0 0 0.03 300 
111 1 1 0.473074 0.424163 1.91595 0 0 0 0 0 -1.89031 0 0 -2.77371 0 0 0 0.03 300 
119 1 1 0.126835 0.482642 1.93078 0 0 0 0 0 -1.81173 0 0 -2.77371 0 0 0 0.03 300 
97 1 1 0.184928 0.234672 1.96247 0 0 0 0 0 -1.63113 0 0 -2.77371 0 0 0 0.03 300 
28 1 1 0.222318 0.404493 1.94909 0 0 0 0 0 -1.7097 0 0 -2.77371 0 0 0 0.03 300 
93 1 1 0.225968 0.488444 1.96057 0 0 0 0 0 -1.64251 0 0 -2.77371 0 0 0 0.03 300 
90 1 1 0.102204 0.238351 1.98248 0 0 0 0 0 -1.50595 0 0 -2.77371 0 0 0 0.03 300 
74 1 1 0.248328 0.247523 1.97167 0 0 0 0 0 -1.57482 0 0 -2.77371 0 0 0 0.03 300 
62 1 1 0.329189 0.252757 1.98646 0 0 0 0 0 -1.47986 0 0 -2.77371 0 0 0 0.03 300 
43 1 1 0.460616 0.284913 1.99876 0 0 0 0 0 -1.39588 0 0 -2.77371 0 0 0 0.03 300 
5 1 1 0.160428 0.3182 1.97197 0 0 0 0 0 -1.57295 0 0 -2.77371 0 0 0 0.03 300 
95 1 1 0.346797 0.327727 1.99287 0 0 0 0 0 -1.43669 0 0 -2.77371 0 0 0 0.03 300 
175 1 1 0.230789 0.339127 1.97767 0 0 0 0 0 -1.53705 0 0 -2.77371 0 0 0 0.03 300 
128 1 1 0.355123 0.421294 1.99956 0 0 0 0 0 -1.39029 0 0 -2.77371 0 0 0 0.03 300 
37 1 1 0.41824 0.41741 1.98913 0 0 0 0 0 -1.462 0 0 -2.77371 0 0 0 0.03 300 
17 1 1 0.345254 0.512161 1.98942 0 0 0 0 0 -1.46004 0 0 -2.77371 0 0 0 0.03 300 
134 1 1 0.443832 0.509496 1.97162 0 0 0 0 0 -1.57511 0 0 -2.77371 0 0 0 0.03 300 
40 1 1 0.408343 0.240904 2.0295 0 0 0 0 0 -1.15995 0 0 -2.77371 0 0 0 0.03 300 
68 1 1 0.400811 0.324654 2.03398 0 0 0 0 0 -1.1214 0 0 -2.77371 0 0 0 0.03 300 
25 1 1 0.278223 0.363632 2.01885 0 0 0 0 0 -1.24677 0 0 -2.77371 0 0 0 0.03 300 
123 1 1 0.48159 0.360101 2.02199 0 0 0 0 0 -1.22185 0 0 -2.77371 0 0 0 0.03 300 
116 1 1 0.152794 0.405213 2.0103 0 0 0 0 0 -1.3123 0 0 -2.77371 0 0 0 0.03 300 
84 1 1 0.227036 0.399722 2.04264 0 0 0 0 0 -1.04292 0 0 -2.77371 0 0 0 0.03 300 
98 1 1 0.491139 0.43458 2.02702 0 0 0 0 0 -1.18065 0 0 -2.77371 0 0 0 0.03 300 
55 1 1 0.200976 0.455034 2.03793 0 0 0 0 0 -1.08628 0 0 -2.77371 0 0 0 0.03 300 
138 1 1 0.301221 0.470777 2.01529 0 0 0 0 0 -1.27443 0 0 -2.77371 0 0 0 0.03 300 
72 1 1 0.10161 0.511094 2.03109 0 0 0 0 0 -1.14641 0 0 -2.77371 0 0 0 0.03 300 
22 1 1 0.254767 0.230824 2.06097 0 0 0 -0 -0 -1 0 0 0 0 0 0 0.03 300 
73 1 1 0.170916 0.265084 2.06451 0 0 0 -0 -0 -1 0 0 0 0 0 0 0.03 300 
171 1 1 0.477654 0.251099 2.06033 0 0 0 -0 -0 -1 0 0 0 0 0 0 0.03 300 
110 1 1 0.10205 0.273683 2.06359 0 0 0 -0 -0 -1 0 0 0 0 0 0 0.03 300 
107 1 1 0.303471 0.271065 2.0697 0 0 0 -0 -0 -1 0 0 0 0 0 0 0.03 300 
31 1 1 0.221691 0.336081 2.05246 0 0 0 -0 -0 -1 0 0 0 0 0 0 0.03 300 
70 1 1 0.142707 0.355749 2.07494 0 0 0 -0 -0 -1 0 0 0 0 0 0 0.03 300 
53 1 1 0.294932 0.364362 2.08 0 0 0 -0 -0 -1 0 0 0 0 0 0 0.03 300 
153 1 1 0.496538 0.392613 2.07762 0 0 0 -0 -0 -1 0 0 0 0 0 0 0.03 300 
148 1 1 0.12082 0.460146 2.06005 0 0 0 -0 -0 -1 0 0 0 0 0 0 0.03 300 
136 1 1 0.374023 0.456818 2.05267 0 0 0 -0 -0 -1 0 0 0 0 0 0 0.03 300 
65 1 1 0.421483 0.499457 2.06254 0 0 0 -0 -0 -1 0 0 0 0 0 0 0.03 300 
150 1 1 0.481625 0.503918 2.0672 0 0 0 -0 -0 -1 0 0 0 0 0 0 0.03 300 
48 1 1 0.17066 0.517967 2.04622 0 0 0 0 0 -1.00868 0 0 -2.77371 0 0 0 0.03 300 
164 1 1 0.244978 0.28843 2.08115 0 0 0 -0 -0 -1 0 0 0 0 0 0 0.03 300 
102 1 1 0.419044 0.351535 2.08593 0 0 0 -0 -0 -1 0 0 0 0 0 0 0.03 300 
176 1 1 0.349719 0.399621 2.08537 0 0 0 -0 -0 -1 0 0 0 0 0 0 0.03 300 
6 1 1 0.317689 0.454971 2.0824 0 0 0 -0 -0 -1 0 0 0 0 0 0 0.03 300 
147 1 1 0.248507 0.49546 2.08684 0 0 0 -0 -0 -1 0 0 0 0 0 0 0.03 300 
52 1 1 0.358392 0.516981 2.08661 0 0 0 -0 -0 -1 0 0 0 0 0 0 0.03 300 
