ITEM: TIMESTEP
104000
ITEM: NUMBER OF ATOMS
527
ITEM: BOX BOUNDS ff ff ff
0 3.3
-0.3 0.8
-0.5 3
ITEM: ATOMS id type type x y z ix iy iz vx vy vz fx fy fz omegax omegay omegaz radius f_Temp[0] 
213 1 1 0.174001 0.176852 1.59026 0 0 0 1.02876 0.364369 -0.214966 0 0 -2.77371 -9.15045 -90.7354 50.3283 0.03 317.491 
248 1 1 0.297469 0.183621 1.57929 0 0 0 1.84092 -0.126954 -0.261532 -0.962986 -15.4744 -56.1037 5.74119 -76.3179 27.9562 0.03 313.084 
97 1 1 0.383597 0.183746 1.57739 0 0 0 1.67316 0.159132 -0.0890923 3.92491 -3.46692 -10.0442 -11.2192 -69.473 43.4522 0.03 337.34 
22 1 1 0.543761 0.192687 1.57707 0 0 0 2.10378 -0.0104133 0.0310608 0.656675 0.487367 -3.76463 0.891887 -55.363 -23.5824 0.03 325.014 
288 1 1 0.594416 0.166548 1.59664 0 0 0 2.17676 -0.184127 -0.10605 12.0563 -7.99405 7.09473 18.6358 -28.3158 30.9551 0.03 319.692 
90 1 1 0.68006 0.183982 1.58078 0 0 0 2.42061 0.0810278 -0.140758 0.270302 -0.154098 -2.59304 0.954451 -37.4085 37.173 0.03 344.712 
221 1 1 0.821911 0.175325 1.5871 0 0 0 2.7625 -0.304298 0.12444 -18.9926 13.0246 -16.7766 20.7443 -13.8745 11.8155 0.03 307.199 
51 1 1 0.878906 0.194703 1.57801 0 0 0 2.76703 0.0679231 0.00805011 0 0 -2.77371 -2.80403 -35.5507 12.6413 0.03 333.076 
171 1 1 0.94023 0.179246 1.5862 0 0 0 2.0138 0.512803 -0.55744 5.21786 0.0178244 -2.86845 -9.21041 -5.58384 8.19258 0.03 303.574 
40 1 1 1.07334 0.185886 1.58233 0 0 0 2.80661 -0.0595689 -0.139538 0 0 -2.77371 12.1757 -37.5894 5.53724 0.03 339.479 
58 1 1 1.13759 0.163648 1.59937 0 0 0 2.78475 0.0119018 -0.0111176 0.0501072 -0.154955 -0.801421 -0.455872 -23.2244 34.186 0.03 361.712 
141 1 1 1.1965 0.18952 1.57685 0 0 0 2.92719 -0.156796 -0.0131391 3.68702 33.066 -6.90266 3.26948 2.38259 -4.50708 0.03 314.437 
161 1 1 1.25851 0.186744 1.57681 0 0 0 2.9491 0.0489026 0.0144 -0.215296 -0.0323514 0.246597 -1.50275 -35.5116 18.5015 0.03 345.105 
165 1 1 1.37612 0.179508 1.58376 0 0 0 2.50775 0.231938 -0.196406 0 0 -2.77371 -9.32666 -35.5939 34.8481 0.03 337.012 
88 1 1 1.55242 0.18847 1.57672 0 0 0 2.8449 -0.0438764 -0.00286337 -0.739927 0.316783 1.56422 1.53581 -38.7465 -10.0454 0.03 328.46 
164 1 1 0.630011 0.216696 1.57683 0 0 0 2.30469 -0.0770421 0.004922 1.06461 -0.699953 0.215085 8.25032 -47.914 -18.5821 0.03 322.84 
3 1 1 0.769296 0.223896 1.57591 0 0 0 2.40573 -0.496583 -0.265152 1.46058 0.744283 13.9681 15.1926 -52.3564 6.1101 0.03 360.955 
95 1 1 1.02458 0.223733 1.57724 0 0 0 2.90042 0.0065325 0.0209747 0 0 -2.77371 -2.78143 -37.6885 -8.94928 0.03 320.67 
91 1 1 1.13299 0.218841 1.57679 0 0 0 2.91311 0.0558528 0.0114933 0.0111098 0.235693 0.0852822 -2.25836 -36.3556 -14.6057 0.03 340.023 
15 1 1 1.3131 0.21147 1.57688 0 0 0 2.9105 0.175954 -0.000863636 -0.0173274 -0.00822045 -0.189824 -5.90889 -36.4764 19.6738 0.03 356.297 
173 1 1 1.49403 0.201706 1.57686 0 0 0 2.87053 0.0491456 -0.00480489 -0.405957 0.0173538 -0.205098 -1.59339 -37.7511 25.372 0.03 336.323 
185 1 1 0.18535 0.241592 1.58007 0 0 0 0.448396 0.870379 -0.591808 0 0 -2.77371 -35.4728 15.3836 -21.9929 0.03 300.216 
230 1 1 0.339694 0.238944 1.57729 0 0 0 1.70904 -0.385902 0.080333 0 0 -2.77371 9.28108 -4.5686 -20.0529 0.03 305.998 
180 1 1 0.404959 0.237716 1.57537 0 0 0 1.73912 0.145902 0.514427 0.334195 22.7974 16.2568 -1.17434 -79.1795 -31.1885 0.03 307.213 
132 1 1 0.471982 0.250996 1.58012 0 0 0 1.59665 -0.454286 0.337622 0 0 -2.77371 15.4243 -82.1154 -8.34568 0.03 343.233 
110 1 1 0.575844 0.243332 1.57882 0 0 0 2.2271 -0.0238489 -0.370621 -0.299286 -0.512218 -2.4993 -20.3204 -42.5541 13.5004 0.03 339.492 
107 1 1 0.675555 0.261233 1.57676 0 0 0 2.26527 -0.0326653 0.0427497 -0.0687413 -0.186919 -0.211182 1.10101 -58.234 -1.88558 0.03 315.764 
5 1 1 0.860975 0.25557 1.57686 0 0 0 2.36703 0.0135183 0.000197779 -0.000684625 4.49025e-06 0.00223822 -0.452466 -54.6564 -17.1391 0.03 341.507 
12 1 1 0.932024 0.24717 1.57762 0 0 0 2.85146 0.336436 0.0365056 -13.6945 -12.6556 -11.6147 -16.3738 -32.8823 -10.2633 0.03 341.372 
19 1 1 1.08764 0.267528 1.57685 0 0 0 2.88099 0.308704 0.00214099 -0.0061051 0.00152777 0.0910629 -10.3354 -37.4642 -12.8492 0.03 314.273 
146 1 1 1.26653 0.247755 1.59212 0 0 0 2.44206 -0.0695717 -0.467647 0 0 -2.77371 5.04245 66.3606 -6.89023 0.03 305.287 
78 1 1 1.37271 0.239687 1.57721 0 0 0 2.23924 0.391977 0.0442142 0 0 -2.77371 -12.6745 -58.8648 -4.35564 0.03 350.171 
120 1 1 1.44401 0.256374 1.57686 0 0 0 2.54739 0.101241 1.89565e-05 3.03471e-05 -2.18288e-06 0.0273764 -3.38868 -48.621 -19.5158 0.03 376.671 
125 1 1 1.51288 0.260086 1.57689 0 0 0 2.64627 0.191809 0.0217142 2.96577 -8.5918 2.04449 -5.82481 -44.6473 -5.73763 0.03 349.191 
206 1 1 0.231967 0.293031 1.57973 0 0 0 1.28302 -0.244848 0.24896 -2.83068 1.34643 -5.06477 11.0388 -88.3793 7.40479 0.03 315.876 
351 1 1 0.288574 0.278146 1.59156 0 0 0 1.38465 0.246429 0.201647 0.523109 -1.94117 0.425096 30.9504 2.37312 -4.47377 0.03 304.917 
70 1 1 0.611133 0.291844 1.58092 0 0 0 2.39112 -0.10041 -0.0284319 0 0 -2.77371 -3.62771 -30.3648 -7.85069 0.03 335.164 
127 1 1 0.974746 0.288685 1.57641 0 0 0 2.61201 -0.0726321 0.0889045 12.0231 11.7749 10.2925 -0.140261 -46.2056 5.07748 0.03 320.327 
11 1 1 1.13868 0.305056 1.57695 0 0 0 2.88888 0.287214 -0.0353046 -9.72479 0.563448 -7.22012 -6.94396 -29.6043 7.88983 0.03 360.566 
13 1 1 1.2134 0.273015 1.57683 0 0 0 2.40574 0.212835 -0.00467109 3.40836 -2.5126 0.829103 -7.00231 -53.4137 1.37167 0.03 385.34 
64 1 1 1.32212 0.285328 1.57686 0 0 0 2.54402 0.00279753 0.000240597 -0.00292687 0.000382824 0.0924257 -0.093862 -48.7408 22.6316 0.03 375.361 
7 1 1 1.38879 0.298094 1.57682 0 0 0 3.2335 0.310522 0.18421 2.55735 -0.37313 -7.94258 -4.5677 14.3252 -13.723 0.03 307.07 
144 1 1 1.56235 0.295294 1.57686 0 0 0 2.72792 -0.0110535 7.69537e-05 -0.00020967 -1.88767e-06 0.000183432 0.369962 -42.5767 18.123 0.03 351.637 
41 1 1 1.64228 0.27744 1.57686 0 0 0 2.53788 0.111903 -1.58514e-10 2.32101e-10 -1.77768e-11 -7.9286e-08 -3.74538 -48.9369 -3.69394 0.03 372.299 
257 1 1 0.0347846 0.326696 1.57696 0 0 0 0.148337 0.10079 0.191644 2.81299 1.47643 -9.12754 -17.0804 -102.736 2.33812 0.03 309.995 
339 1 1 0.351932 0.321873 1.578 0 0 0 1.47704 0.0605039 0.194312 0 0 -2.77371 -2.09568 -84.8368 -7.84103 0.03 334.984 
209 1 1 0.553439 0.308118 1.57646 0 0 0 2.36123 -0.00328242 0.103278 2.25183 3.75287 2.59474 -6.06105 -51.2527 -5.55359 0.03 309.341 
313 1 1 0.715489 0.309932 1.58044 0 0 0 2.03839 0.139803 -0.452074 4.09572 -1.84166 0.204033 -0.990291 -46.9275 -10.8186 0.03 306.318 
166 1 1 0.812001 0.333341 1.57686 0 0 0 2.28818 -0.271302 0.00210101 -0.00792705 -0.0012566 -0.0512419 9.08123 -57.2993 17.9709 0.03 341.09 
175 1 1 0.920626 0.314294 1.57679 0 0 0 2.7578 0.378165 0.0643579 1.01048 -0.381769 -2.10781 -14.765 -14.864 10.6479 0.03 321.851 
94 1 1 1.19015 0.336737 1.57681 0 0 0 2.89227 0.551082 0.0110558 1.41783 0.703412 0.391738 -23.2662 -27.4257 -3.31529 0.03 350.724 
123 1 1 1.26421 0.305903 1.57688 0 0 0 2.52984 0.0715133 -0.00527657 -0.0328148 0.173722 0.100842 -2.40692 -49.197 -5.33495 0.03 334.464 
56 1 1 1.48553 0.313195 1.57678 0 0 0 2.57037 -0.0734108 0.00169823 2.73099 -6.5751 -4.6573 2.68511 -47.1095 -10.3852 0.03 338.399 
316 1 1 0.0897681 0.358982 1.57675 0 0 0 0.751649 0.457781 0.287512 4.66367 0.552853 -12.1664 -27.6013 -5.71514 5.58682 0.03 303.1 
298 1 1 0.192509 0.34394 1.57763 0 0 0 1.31311 0.265688 -0.0332747 0 0 -2.77371 -4.89138 -99.6291 -3.66703 0.03 319.477 
31 1 1 0.400476 0.360489 1.57683 0 0 0 1.20613 0.00294954 -0.00154079 1.67552 -0.365133 0.655967 7.62452 -58.1218 -8.7971 0.03 318.549 
340 1 1 0.4683 0.345244 1.57344 0 0 0 2.62181 0.0399527 0.276265 -31.8277 2.44299 30.1701 -3.64171 -52.4905 1.69375 0.03 306.922 
53 1 1 0.583129 0.359622 1.58165 0 0 0 2.19095 0.264312 0.154975 -0.634207 -1.27156 -2.21811 -18.925 -65.0593 0.675767 0.03 321.389 
38 1 1 0.867925 0.364596 1.57711 0 0 0 2.35032 0.13114 0.00828371 0 0 -2.77371 -4.44835 -54.9188 -3.55659 0.03 338.086 
35 1 1 1.08912 0.337545 1.57899 0 0 0 2.67739 -0.0987658 -0.325302 -8.67932 7.29189 -7.76566 14.5362 -23.8144 -2.55919 0.03 334.053 
126 1 1 1.24566 0.36295 1.57706 0 0 0 3.12638 0.287838 0.0228727 0.289156 -0.289199 -3.35577 -9.07726 -26.5656 -12.4687 0.03 333.192 
24 1 1 1.30314 0.35862 1.59382 0 0 0 3.14125 0.0712263 0.10436 0 0 -2.77371 -6.43161 2.36577 1.64461 0.03 304.134 
143 1 1 1.47213 0.370605 1.58155 0 0 0 2.65259 -0.145242 -0.000523588 -1.65756 16.1549 -2.45474 21.5241 -42.8103 4.68628 0.03 368.552 
124 1 1 1.5614 0.369951 1.57686 0 0 0 2.42636 0.248962 2.64255e-05 -7.29722e-05 1.37693e-05 0.00436789 -8.33281 -52.6699 -7.93824 0.03 376.336 
300 1 1 0.318337 0.380089 1.57823 0 0 0 1.39115 0.390356 -0.146739 0.106535 -5.98351 -4.30647 -13.7255 -85.8869 3.50721 0.03 320.555 
233 1 1 0.695861 0.379103 1.58612 0 0 0 2.17852 0.000687274 -0.580623 0 0 -2.77371 27.1889 2.35233 5.70428 0.03 300.294 
128 1 1 0.763987 0.397786 1.57705 0 0 0 2.57339 0.0703233 -0.00310398 0.0241064 0.194942 -2.38086 -3.45758 -47.4604 -6.99507 0.03 313.697 
291 1 1 1.04404 0.386267 1.57688 0 0 0 3.16635 0.393906 -0.00318861 1.32163 -0.264325 -0.0781011 -12.0439 -22.2111 -18.0976 0.03 310.769 
101 1 1 1.1902 0.40893 1.57678 0 0 0 2.83218 0.103734 0.0012286 -0.171262 0.0861512 -0.0411757 -3.46902 -39.1483 1.533 0.03 363.186 
289 1 1 0.11618 0.414671 1.57687 0 0 0 0.569332 -0.169643 -0.062993 40.5199 -0.726691 -97.4311 -15.6915 -87.8005 -7.28009 0.03 318.12 
270 1 1 0.340767 0.435401 1.57905 0 0 0 1.4069 0.277932 -0.00228961 -0.106535 5.98351 -1.24095 -18.5952 -18.815 0.436421 0.03 303.811 
148 1 1 0.418169 0.42092 1.58037 0 0 0 1.84161 -0.0605273 0.142426 0 0 -2.77371 3.21929 -71.7333 -11.5379 0.03 332.741 
176 1 1 0.685157 0.438904 1.57702 0 0 0 2.33358 0.310977 -0.0278692 0.396519 -0.696051 -1.17157 -8.07438 -54.2966 3.79907 0.03 321.706 
77 1 1 0.898562 0.418651 1.57685 0 0 0 2.11687 0.198378 -0.00167373 0.00800606 -0.00195135 0.341735 -6.64262 -63.0534 4.58591 0.03 344.935 
170 1 1 1.44183 0.423669 1.57682 0 0 0 2.91035 -0.0842659 -0.0150621 1.47664 -1.51965 1.46411 18.3163 -21.4385 -7.44857 0.03 348.827 
50 1 1 1.51999 0.434631 1.57709 0 0 0 2.99274 -0.230558 -0.00740355 0.085214 0.0115496 -2.52753 7.67221 -33.4714 -0.926605 0.03 357.736 
122 1 1 1.61614 0.409723 1.57709 0 0 0 2.89002 0.000459791 -0.0535204 0.0958993 -0.170543 -1.54949 0.276211 -36.8438 -8.75166 0.03 359.591 
255 1 1 0.134667 0.474596 1.57619 0 0 0 0.734771 -0.607407 0.0978651 1.65388 4.96171 9.39877 -12.2264 -102.862 -7.73003 0.03 308.373 
308 1 1 0.224337 0.465787 1.57541 0 0 0 1.38305 0.470183 0.0154252 -33.8874 18.6213 2.66054 0.304151 -60.3363 -12.723 0.03 309.188 
245 1 1 0.277189 0.446094 1.58548 0 0 0 1.38511 0.154434 -0.263268 17.0876 -6.06298 6.82926 -12.2141 22.9632 -9.43137 0.03 303.688 
84 1 1 0.545849 0.467559 1.57814 0 0 0 2.17416 -0.0227984 -0.13989 0 0 -2.77371 3.27147 -60.4291 0.502665 0.03 327.823 
6 1 1 0.729317 0.480802 1.57694 0 0 0 2.32125 0.366785 0.0790021 1.83298 -14.5398 2.42524 -8.36328 -30.7835 1.94496 0.03 324.52 
25 1 1 0.788062 0.453526 1.58155 0 0 0 2.4367 0.264117 0.109341 0 0 -2.77371 -12.5041 -51.1313 -2.28066 0.03 327.863 
135 1 1 1.06481 0.44648 1.57688 0 0 0 2.47811 -0.299684 0.00592742 -0.0226771 -0.02919 -0.577433 9.96196 -50.9137 -7.82149 0.03 362.297 
134 1 1 1.20377 0.467991 1.57684 0 0 0 2.822 0.135429 0.00516061 0.855981 -0.0171871 -0.150489 -5.85494 -6.75371 1.63116 0.03 320.963 
37 1 1 1.26337 0.473522 1.57695 0 0 0 2.83839 0.0685855 -0.0235865 0.424864 0.143729 -0.649157 -2.24766 -38.5007 -1.00551 0.03 332.712 
69 1 1 1.32278 0.466278 1.57686 0 0 0 2.82144 0.014397 0.00478138 1.30598 -0.185159 0.356384 -0.509718 -39.403 -7.56505 0.03 374.174 
111 1 1 1.39052 0.456223 1.57687 0 0 0 2.81993 -0.0990223 -0.01636 1.25539 -1.11171 0.580033 6.80353 -35.5399 3.74398 0.03 343.566 
163 1 1 1.57664 0.45505 1.57695 0 0 0 2.83531 -0.0120102 -0.000757391 0.0134171 0.00551324 -1.33818 0.417247 -38.8767 15.8527 0.03 366.43 
272 1 1 0.281693 0.516002 1.57748 0 0 0 1.74193 0.391085 -0.200746 0 0 -2.77371 -12.4368 -75.4455 12.2416 0.03 308.941 
279 1 1 0.347306 0.507495 1.58091 0 0 0 1.85079 -0.0128739 0.144185 0 0 -2.77371 6.58634 -71.1504 20.9757 0.03 318.352 
116 1 1 0.615639 0.491375 1.57651 0 0 0 2.28484 0.258483 0.0472188 -0.0217292 0.0214988 5.09047 -8.73457 -57.8406 -6.98913 0.03 346.006 
160 1 1 0.850184 0.499679 1.57686 0 0 0 1.93281 0.132968 1.34639e-05 -6.84399e-05 4.4021e-06 -0.00184041 -4.45041 -69.1885 3.49012 0.03 354.224 
4 1 1 0.918657 0.488823 1.57629 0 0 0 2.11731 0.150429 -0.169964 1.23847 0.562359 5.10074 -3.63456 -64.4918 7.05604 0.03 334.032 
136 1 1 1.07192 0.506314 1.57818 0 0 0 2.68417 -0.274775 -0.0339193 0 0 -2.77371 6.10847 3.45003 4.57669 0.03 329.212 
169 1 1 1.12909 0.48811 1.57684 0 0 0 2.67785 -0.125342 0.00693009 -0.0194472 -0.00229702 0.102997 4.19856 -44.2826 0.553635 0.03 347.236 
104 1 1 1.36394 0.510038 1.57688 0 0 0 2.88412 -0.0514465 0.00123537 -0.0963001 0.0805718 -0.427272 1.30753 -37.7662 2.59002 0.03 352.55 
26 1 1 1.48313 0.487923 1.57695 0 0 0 3.0741 -0.00352035 -0.0162512 0.146076 -0.530084 -0.355842 -0.0476024 -31.0453 -7.86454 0.03 336.58 
238 1 1 0.140166 0.530033 1.59563 0 0 0 -0.475266 -0.289645 0.6179 -1.78459 5.57194 -2.05806 22.3544 47.171 34.6123 0.03 300.368 
249 1 1 0.398558 0.546451 1.5762 0 0 0 1.67962 0.0708816 0.0603958 15.8941 -5.92 5.84895 -1.1111 -77.3643 23.5353 0.03 319.867 
226 1 1 0.523727 0.532745 1.57682 0 0 0 2.34655 0.370893 -0.0851018 -8.94032 -9.6057 -5.12531 -16.4138 -51.0243 -5.3421 0.03 327.706 
21 1 1 0.71812 0.538896 1.5773 0 0 0 2.09049 0.269536 -0.0635626 -1.01641 14.4149 -9.62478 8.67272 -63.2144 2.46912 0.03 335.951 
34 1 1 0.934082 0.549567 1.57719 0 0 0 2.35896 -0.168285 0.157103 18.3403 -13.2622 4.28187 5.77336 -53.7432 -5.29855 0.03 337.184 
117 1 1 1.02682 0.546092 1.57738 0 0 0 2.4653 -0.484212 0.0181316 0 0 -2.77371 16.9811 -51.8024 7.18244 0.03 346.232 
61 1 1 1.22544 0.525296 1.57674 0 0 0 2.52236 -0.12008 0.0247253 -0.0683615 -0.0156213 1.00662 4.03653 -49.6186 -7.99049 0.03 357.009 
152 1 1 1.30294 0.527984 1.57688 0 0 0 2.65787 -0.21976 -0.00229381 0.00629202 0.00108859 -0.14622 7.35219 -44.9023 -15.045 0.03 370.073 
42 1 1 1.46664 0.545426 1.57676 0 0 0 2.86464 -0.0345561 0.00554749 0.721058 -0.88584 1.20345 0.192709 -38.307 12.4618 0.03 362.243 
121 1 1 1.52684 0.537644 1.57684 0 0 0 2.84562 -0.0566676 -0.00280606 0.344572 -0.00737497 -0.125584 2.53325 -25.8788 -19.3095 0.03 379.12 
63 1 1 1.58665 0.53573 1.57706 0 0 0 2.83754 -0.0633663 -0.246008 12.977 -0.086014 5.36282 2.07089 -21.1215 16.3274 0.03 373.516 
9 1 1 1.64481 0.530811 1.59009 0 0 0 2.86984 0.0315847 -0.468863 2.01155 0.0442023 -2.77369 0.892442 27.6729 -12.498 0.03 310.537 
304 1 1 0.34296 0.567793 1.57938 0 0 0 2.05228 0.100447 0.0246286 -13.0977 4.76049 -8.82989 8.60779 -58.7137 -27.3332 0.03 332.523 
119 1 1 0.567868 0.57204 1.58111 0 0 0 2.23622 0.169711 0.166258 12.8311 10.7023 10.2286 -13.8413 -80.9737 6.22253 0.03 351.838 
48 1 1 0.642043 0.564962 1.57616 0 0 0 2.28831 0.0388048 0.161952 2.66916 -4.12306 -0.588637 -0.857917 -58.5637 11.2724 0.03 330.062 
227 1 1 0.819259 0.561667 1.57687 0 0 0 2.56273 0.195672 -0.00145484 -0.232176 -0.0994706 -0.0240601 -6.31079 -48.6596 -15.5605 0.03 320.489 
147 1 1 0.88241 0.576693 1.58539 0 0 0 2.56419 0.101568 -0.0573402 -10.795 2.30182 0.580001 4.13887 -24.6188 -31.5549 0.03 330.318 
17 1 1 0.981846 0.583028 1.59209 0 0 0 2.58247 -0.200201 -0.286461 2.98799 -4.70304 1.12594 16.5073 5.32902 -34.8166 0.03 325.541 
16 1 1 1.1123 0.552246 1.57622 0 0 0 2.60334 -0.124156 -0.282064 3.09195 4.34027 -5.7974 -2.35181 -45.3191 1.52634 0.03 360.734 
118 1 1 1.17132 0.562387 1.57677 0 0 0 2.57411 0.0526928 0.0269334 0.443503 0.0432138 0.700254 -1.75334 -47.8732 -2.67621 0.03 352.553 
105 1 1 1.41068 0.567341 1.57681 0 0 0 2.81478 -0.0458239 -0.00881759 -0.350961 0.0582479 0.563841 1.43378 -39.5435 -15.4564 0.03 339.643 
303 1 1 0.136531 0.58909 1.59746 0 0 0 0.417295 0.194408 0.510997 1.65316 -5.58936 -0.947608 -21.8348 -103.848 -68.7688 0.03 315.696 
57 1 1 0.743621 0.590701 1.59884 0 0 0 1.84022 0.253615 -0.0517166 4.07537 -18.7543 16.683 -45.432 10.1159 -14.2728 0.03 328.988 
332 1 1 0.205899 0.124872 1.63598 0 0 0 0.225191 -0.284275 0.489776 -19.8904 7.23903 -0.411763 21.9168 -33.5654 27.1425 0.03 302.366 
62 1 1 0.415263 0.148153 1.61316 0 0 0 1.26454 -0.10552 0.342079 6.11312 16.2544 2.33544 9.03433 -85.7603 46.5571 0.03 311.122 
307 1 1 0.483188 0.135728 1.62816 0 0 0 1.47035 0.484159 -0.00836236 0 0 -2.77371 -13.1804 -64.4075 42.2163 0.03 304.079 
281 1 1 0.865069 0.147053 1.61598 0 0 0 2.24111 0.0636606 0.0893582 27.8322 -6.0947 23.4251 11.9565 -35.8382 35.6511 0.03 313.502 
49 1 1 1.19575 0.156787 1.62639 0 0 0 3.02071 0.153444 -0.393381 -1.93482 -32.9927 4.86271 9.12452 -11.5927 21.8464 0.03 310.76 
87 1 1 1.53955 0.146033 1.61676 0 0 0 2.41118 0.0484204 -0.0299463 -0.211758 0.545207 -0.248423 -1.48042 -25.4532 49.8965 0.03 352.523 
114 1 1 0.736412 0.173573 1.60236 0 0 0 2.54978 0.405212 -0.243935 0 0 -2.77371 23.644 -8.97739 14.2552 0.03 334.335 
43 1 1 0.994687 0.182434 1.60959 0 0 0 2.32781 0.171065 -0.264648 -5.21786 -0.0178244 -2.67897 3.04456 -1.58143 -23.975 0.03 301.516 
231 1 1 0.434486 0.203464 1.62103 0 0 0 0.713495 0.243588 0.223856 0.211832 9.12479 2.12059 -21.6281 56.8648 -21.1073 0.03 300.957 
319 1 1 0.673866 0.222599 1.63719 0 0 0 1.74016 0.0178512 0.343938 0 0 -2.77371 24.3173 41.486 -14.2233 0.03 300.778 
193 1 1 0.31399 0.244073 1.63482 0 0 0 0.84511 -0.722328 0.320042 0 0 -2.77371 4.30251 -31.8516 2.05989 0.03 300.115 
183 1 1 0.509338 0.246554 1.62885 0 0 0 1.58215 -0.476939 0.528475 0 0 -2.77371 -30.7558 70.3203 27.8217 0.03 300.74 
322 1 1 0.790198 0.235418 1.62908 0 0 0 2.03299 -0.068188 -0.0750615 6.31432 2.596 28.2226 -31.7984 30.279 -19.4532 0.03 300.931 
46 1 1 1.56769 0.236124 1.60926 0 0 0 2.98218 0.116043 -0.293322 1.9937 1.96869 -1.62191 -14.7463 53.1658 -8.28633 0.03 301.907 
258 1 1 0.0922138 0.265806 1.59977 0 0 0 -1.17886 -0.866664 -2.00284 0 0 -2.77371 9.74991 -42.4838 -22.115 0.03 300.001 
197 1 1 0.158885 0.296837 1.59788 0 0 0 -0.334079 -0.0975825 -1.65268 0 0 -2.77371 23.0709 0.309323 -5.48258 0.03 300.329 
240 1 1 0.420616 0.265942 1.62357 0 0 0 1.46688 0.375016 1.07174 7.91571 19.3528 10.5713 -11.101 48.4641 5.35127 0.03 300.084 
68 1 1 0.760617 0.288611 1.61368 0 0 0 2.02991 -0.396039 -0.189604 -4.09572 1.84166 -5.75146 10.0731 39.0804 -1.33958 0.03 300.839 
44 1 1 1.16651 0.268108 1.61367 0 0 0 2.25765 -0.201511 -0.349632 16.0142 -5.87249 9.3159 20.4863 37.5839 2.2816 0.03 303.601 
155 1 1 1.44943 0.297474 1.62159 0 0 0 2.24639 0.17668 -0.182147 -1.65115 -2.57206 -0.394154 -7.06148 32.8532 14.8672 0.03 303.023 
73 1 1 0.239529 0.323752 1.63469 0 0 0 0.476952 0.326587 0.631306 0 0 -2.77371 -27.5341 59.0457 0.253359 0.03 301.282 
331 1 1 0.304781 0.337654 1.62875 0 0 0 0.815112 0.0232669 -0.274132 0.441245 0.382542 -2.84335 53.8049 11.684 11.806 0.03 300.49 
347 1 1 0.371442 0.308248 1.63589 0 0 0 0.350642 -0.580109 0.781034 -27.8257 44.4361 -180.458 21.7495 29.3564 2.58884 0.03 300.559 
71 1 1 0.641075 0.335999 1.62715 0 0 0 2.12636 -0.162242 0.170199 0 0 -2.77371 8.06357 73.3013 15.4898 0.03 302.955 
225 1 1 1.02502 0.306607 1.60267 0 0 0 2.70151 0.16016 -0.28187 4.67903 3.13734 1.27176 -9.4215 58.8236 1.28968 0.03 301.018 
216 1 1 0.512064 0.345474 1.60866 0 0 0 2.13394 0.23989 0.804712 32.7786 -1.73078 57.0992 12.9626 40.5198 12.6904 0.03 300.094 
187 1 1 0.970162 0.356894 1.60301 0 0 0 2.36547 0.427867 -0.854093 0 0 -2.77371 22.2103 -37.1063 -13.1042 0.03 300.364 
346 1 1 0.391825 0.393204 1.62666 0 0 0 0.791353 0.136713 -0.245938 0 0 -2.77371 11.9107 4.00098 6.66744 0.03 300.782 
254 1 1 0.546471 0.388328 1.62813 0 0 0 2.06526 0.531095 -0.256412 35.6504 22.139 16.1119 -5.14302 24.3536 15.0967 0.03 300.656 
153 1 1 1.20768 0.376039 1.62356 0 0 0 2.68127 -0.170297 -0.132753 0.360088 -0.501028 -1.38473 18.2046 26.896 6.71536 0.03 304.437 
263 1 1 0.386785 0.46894 1.60688 0 0 0 1.71271 -0.0439649 0.547008 0 0 -2.77371 42.3142 18.492 -10.6724 0.03 300.893 
178 1 1 0.447699 0.458049 1.62254 0 0 0 1.29554 0.526331 0.27009 1.81912 4.48681 -25.8835 -14.6815 50.345 10.6702 0.03 300.729 
182 1 1 0.196588 0.510698 1.60391 0 0 0 0.42203 0.556603 -0.669075 0.164481 -1.50808 -4.18812 8.43057 -12.3024 8.69869 0.03 300.069 
239 1 1 0.717069 0.517765 1.63529 0 0 0 1.55189 0.277362 0.391753 0 0 -2.77371 -8.43035 41.701 4.12706 0.03 300.768 
149 1 1 1.43426 0.500015 1.61376 0 0 0 2.42258 -0.00618436 -0.537457 0 0 -2.77371 7.13955 6.39301 12.9246 0.03 301.549 
28 1 1 0.490692 0.527766 1.62992 0 0 0 1.1368 0.371 -0.398438 -7.36696 -19.0676 -5.86785 5.06414 14.4878 -12.1348 0.03 302.124 
265 1 1 0.585682 0.53035 1.62644 0 0 0 1.36871 0.541836 -0.530282 0 0 -2.77371 -13.2134 -9.32435 -10.4943 0.03 300.695 
106 1 1 0.853162 0.536006 1.63307 0 0 0 1.70526 -0.0593069 -0.0597837 0 0 -2.77371 12.7036 25.0913 -17.3757 0.03 302.176 
98 1 1 1.17541 0.528013 1.62876 0 0 0 2.16422 -0.255334 -0.164359 0 0 -2.77371 10.7243 41.1142 -2.75198 0.03 302.031 
237 1 1 0.241906 0.588469 1.59669 0 0 0 0.481431 0.985294 -0.707774 46.2275 -62.3018 66.3951 -14.9681 -19.3801 -36.0401 0.03 300.282 
55 1 1 0.41708 0.583521 1.61849 0 0 0 1.11426 0.512802 -0.127794 5.51649 -13.2201 9.70737 8.43039 65.9345 -5.0321 0.03 301.544 
243 1 1 0.657948 0.574967 1.63228 0 0 0 1.25804 0.276625 0.506781 17.8398 -6.27239 -8.13573 -18.7502 13.9009 -31.754 0.03 300.628 
2 1 1 1.25637 0.556417 1.6218 0 0 0 2.51645 -0.130645 0.00313606 0 0 -2.77371 -11.4962 35.5617 -6.09149 0.03 317.042 
276 1 1 0.487104 0.605908 1.62118 0 0 0 1.3706 0.554434 -0.502521 0 0 -2.77371 -11.7195 -30.4396 -14.8996 0.03 300.438 
72 1 1 0.552934 0.624074 1.63262 0 0 0 1.46081 0.311423 0.27829 1.72269 1.51709 -2.42097 -18.5379 -42.9085 -64.431 0.03 332.948 
89 1 1 0.794334 0.610108 1.62104 0 0 0 2.3832 -0.440755 0.0589333 10.6502 0.719212 7.83077 1.61923 -33.0338 -36.6199 0.03 330.45 
65 1 1 0.935176 0.610751 1.61998 0 0 0 2.70784 -0.105679 -0.114552 0.433616 -0.680357 -1.07277 2.47371 -28.2644 -30.6619 0.03 309.036 
75 1 1 1.06339 0.58808 1.60177 0 0 0 2.35882 -0.186635 -0.0513637 0 0 -2.77371 -3.96587 -24.3833 -46.4415 0.03 324.972 
99 1 1 1.12715 0.598668 1.60832 0 0 0 2.03514 -0.289888 -0.0712678 6.07035 22.1164 36.7718 5.01044 -50.1724 -39.8833 0.03 342.561 
79 1 1 1.21186 0.598838 1.60805 0 0 0 2.64015 -0.0498885 -0.0385832 0.56719 -0.696122 -1.67358 -10.3687 -1.43755 -27.9168 0.03 327.844 
156 1 1 1.31469 0.599038 1.60817 0 0 0 2.50987 0.0221636 0.00268502 0.0472593 -1.06297 0.413098 -0.605642 -44.9799 -25.3825 0.03 348.3 
18 1 1 1.45443 0.596431 1.6056 0 0 0 2.80042 -0.0369002 -0.0386569 0.173424 -0.146093 -0.379162 1.94352 -22.6527 -33.962 0.03 325.544 
137 1 1 0.560039 0.117016 1.64474 0 0 0 1.80984 0.0282493 -0.226814 15.9137 13.2242 9.59003 -6.98811 -40.345 66.4787 0.03 332.125 
76 1 1 0.820047 0.111717 1.65123 0 0 0 2.35324 0.43208 -0.431956 0.881955 1.08413 -1.09022 3.39195 16.0961 23.9071 0.03 317.345 
115 1 1 0.992291 0.127106 1.63567 0 0 0 2.08643 0.34302 -0.300574 -0.127174 1.82787 -1.04471 -15.7361 -42.0431 48.8108 0.03 328.975 
283 1 1 0.262548 0.129043 1.64962 0 0 0 0.0309205 -0.88353 0.172058 39.2558 19.715 22.7132 9.85948 10.6436 -1.93814 0.03 300.333 
74 1 1 0.621697 0.137618 1.64325 0 0 0 1.9539 -0.716019 0.0848863 0 0 -2.77371 5.20571 11.3308 -11.4659 0.03 302.803 
139 1 1 0.745138 0.129045 1.65155 0 0 0 1.92698 -0.158326 -0.105757 0 0 -2.77371 24.7377 -43.9239 26.0938 0.03 336.722 
186 1 1 0.291506 0.187961 1.63696 0 0 0 0.359091 -0.798567 -1.08304 -1.14415 16.6917 69.6104 10.4749 26.8166 9.30706 0.03 300.016 
252 1 1 0.582506 0.202277 1.64245 0 0 0 1.14817 -0.39764 0.0127405 0.0182727 4.05373 -1.40177 -15.214 2.91476 -10.0102 0.03 300.215 
284 1 1 0.171208 0.260426 1.64542 0 0 0 -0.0551975 -0.661759 -1.5953 0 0 -2.77371 -11.0918 10.3174 6.17806 0.03 300.003 
194 1 1 0.251436 0.256 1.63283 0 0 0 0.213757 -0.847578 -1.2182 2.30757 0.594737 -3.68146 45.8413 -5.60652 -12.7677 0.03 300.052 
282 1 1 0.495911 0.302756 1.64549 0 0 0 0.7779 -0.148195 -0.478169 4.60334 -20.6278 24.6369 -7.28852 -28.8639 0.36354 0.03 300.004 
338 1 1 0.568012 0.298973 1.6431 0 0 0 1.16884 -0.151537 -0.337693 0 0 -2.77371 -24.6657 -29.581 6.03422 0.03 300.043 
181 1 1 0.704056 0.301414 1.66074 0 0 0 1.74719 0.0343333 0.427193 0 0 -2.77371 -19.5036 24.9736 24.781 0.03 300.753 
212 1 1 0.444283 0.339921 1.62719 0 0 0 0.437309 0.301785 -0.165095 30.0677 -10.5807 -65.6615 -12.4473 -21.4415 3.01409 0.03 300.043 
204 1 1 0.198871 0.366764 1.64883 0 0 0 0.312989 0.272126 1.03422 0 0 -2.77371 -70.9864 77.8935 32.3782 0.03 300.451 
250 1 1 0.348243 0.364008 1.66047 0 0 0 0.529446 0.186172 0.0616705 -0.441245 -0.382542 -2.70408 -39.8843 -18.1672 4.67749 0.03 300.012 
309 1 1 0.138651 0.412085 1.63193 0 0 0 -0.660557 -0.0843073 -2.02536 -38.4808 2.47167 97.2513 3.12204 -8.40044 -7.10647 0.03 300.001 
285 1 1 0.226532 0.442052 1.63204 0 0 0 0.60313 0.479236 -1.08089 0 0 -2.77371 3.35603 -32.5721 4.40689 0.03 300.01 
277 1 1 0.293204 0.413167 1.63027 0 0 0 1.10358 -0.578456 -0.703879 22.1732 -24.4381 23.283 24.3233 2.92987 -28.7837 0.03 300.031 
190 1 1 0.340716 0.443392 1.64813 0 0 0 0.791623 0.10158 -1.26782 16.399 1.99747 6.98221 15.3767 12.5901 28.0699 0.03 301.127 
261 1 1 0.167096 0.471689 1.63905 0 0 0 -0.425736 0.32062 -1.83906 0 0 -2.77371 -2.7439 -5.68429 9.67618 0.03 300 
208 1 1 0.272624 0.478346 1.6498 0 0 0 0.56527 0.734668 -0.00749755 0 0 -2.77371 -16.4973 -20.5044 -6.19311 0.03 300.042 
352 1 1 0.506898 0.452799 1.63405 0 0 0 1.02488 0.101742 -0.466075 0 0 -2.77371 0.68043 29.2455 0.785414 0.03 301.515 
130 1 1 1.52376 0.453103 1.6611 0 0 0 2.55146 -0.00425569 0.126794 0 0 -2.77371 -5.78272 17.8909 -2.26063 0.03 301.155 
102 1 1 0.777131 0.513366 1.63402 0 0 0 1.72958 0.542415 -0.486273 0 0 -2.77371 -24.4892 37.4774 3.91183 0.03 300.972 
296 1 1 0.904981 0.485497 1.6334 0 0 0 1.59237 -0.045929 -0.274176 -2.5203 0.914641 16.7799 0.52733 47.718 10.2768 0.03 300.809 
20 1 1 1.27249 0.495494 1.63663 0 0 0 2.40794 0.0217055 0.0520124 0 0 -2.77371 9.06763 28.6045 11.6179 0.03 302.522 
271 1 1 0.319673 0.537459 1.64204 0 0 0 0.407193 0.0976852 -1.69088 11.0483 0.143047 -31.0546 -12.9432 8.37895 -0.36901 0.03 300.628 
201 1 1 0.424913 0.532223 1.64995 0 0 0 0.755801 0.289518 -0.6962 1.82587 1.7592 -2.40991 -18.5316 -50.2674 -6.38003 0.03 300.084 
224 1 1 0.53401 0.567814 1.63305 0 0 0 0.878797 0.476611 -0.249794 1.46843 13.1971 0.23214 27.157 9.55378 21.0657 0.03 301.7 
150 1 1 0.914658 0.556216 1.63847 0 0 0 1.94411 -0.024766 -0.272685 0 0 -2.77371 2.08265 9.3679 16.4103 0.03 301.434 
301 1 1 0.168567 0.62054 1.64408 0 0 0 0.587589 0.172362 0.2013 0 0 -2.77371 -11.7175 6.30727 -39.118 0.03 303.382 
52 1 1 0.609825 0.60816 1.63978 0 0 0 1.32797 0.222899 0.103741 -11.4757 7.9408 12.881 -14.8981 37.3523 46.954 0.03 301.444 
326 1 1 0.42086 0.636269 1.6452 0 0 0 1.07726 0.245781 0.132955 -2.431 4.64333 -1.00344 -5.53069 -118.398 -20.2353 0.03 330.085 
129 1 1 0.585913 0.655693 1.67064 0 0 0 1.81824 0.0149401 0.278858 2.04126 1.4172 2.76331 -14.9052 -57.0536 -42.9014 0.03 315.206 
154 1 1 0.680054 0.634246 1.64343 0 0 0 1.9643 -0.207715 -0.207188 -0.00285632 -0.900965 -1.05468 9.78555 -36.0091 -60.2558 0.03 319.496 
138 1 1 0.893571 0.644084 1.65324 0 0 0 2.51324 -0.166875 -0.19172 1.36713 -1.72044 -0.433481 -8.40197 1.75866 2.31102 0.03 307.219 
27 1 1 1.02534 0.626529 1.6357 0 0 0 1.94267 -0.645231 -0.645232 1.22688e-08 -0.988773 -0.988773 30.5154 -51.253 -46.0457 0.03 331.45 
317 1 1 0.328135 0.0821284 1.68115 0 0 0 1.10422 -0.434957 0.424834 0 0 -2.77371 44.1826 -45.1851 53.8803 0.03 306.292 
333 1 1 0.689939 0.0898356 1.67318 0 0 0 2.04984 0.1162 -0.0335218 -0.512865 -0.643428 -3.66012 -3.78982 -44.1179 50.0194 0.03 306.052 
305 1 1 0.446814 0.150244 1.70456 0 0 0 0.966565 -0.665176 0.357777 0 0 -2.77371 -14.4764 9.55725 -2.31961 0.03 300.427 
196 1 1 0.552388 0.148971 1.69353 0 0 0 0.60564 -0.0442408 -0.245416 -10.3341 8.83434 9.76018 5.74134 -26.8332 -22.2932 0.03 300.151 
343 1 1 0.153112 0.221612 1.68812 0 0 0 -0.27185 -0.929973 -1.50561 0 0 -2.77371 15.2306 -15.5929 -7.38265 0.03 300 
259 1 1 0.256578 0.352776 1.6857 0 0 0 1.05092 0.632052 0.491076 0 0 -2.77371 24.7267 -24.7458 21.7395 0.03 300.017 
234 1 1 0.416499 0.359427 1.67531 0 0 0 0.414193 -0.412209 -1.3397 -26.862 10.9903 57.4957 39.2327 -3.71055 -12.9228 0.03 300 
341 1 1 0.576549 0.35312 1.68677 0 0 0 1.30437 -0.544364 -0.185616 0 0 -2.77371 14.4331 -31.4215 -13.6493 0.03 300.01 
334 1 1 0.495574 0.40264 1.66509 0 0 0 0.836351 -0.113085 -0.612531 0 0 -2.77371 5.09603 -42.2344 0.777492 0.03 300.023 
295 1 1 0.423716 0.431262 1.6695 0 0 0 0.565406 0.0627028 -0.649286 -2.68484 -6.75815 17.8297 -49.8692 2.58181 13.1877 0.03 300.007 
198 1 1 0.447715 0.481259 1.68926 0 0 0 0.611693 0.873707 -1.52939 -4.62259 -3.51294 -2.47157 17.3718 5.05202 -1.11745 0.03 300.001 
335 1 1 0.61945 0.456315 1.67812 0 0 0 1.45298 0.21684 -0.0137752 0 0 -2.77371 -13.7631 -8.77074 29.662 0.03 300.277 
268 1 1 0.723996 0.450641 1.69918 0 0 0 1.70927 0.470599 0.37004 0 0 -2.77371 -35.7909 14.651 -0.0812511 0.03 300.296 
223 1 1 0.10548 0.49309 1.65965 0 0 0 0 0 -2.93291 0 0 -2.77371 0 0 0 0.03 300 
220 1 1 0.386483 0.490479 1.66859 0 0 0 0.435753 0.559883 -0.74126 -1.82587 -1.7592 -3.13751 -9.24119 -0.132768 8.31906 0.03 300.027 
262 1 1 0.510175 0.494949 1.67674 0 0 0 1.13572 0.187774 -0.479422 0 0 -2.77371 6.29069 -13.4898 -1.45501 0.03 300.06 
325 1 1 0.574405 0.497933 1.69586 0 0 0 1.11199 0.175016 -0.0557231 0 0 -2.77371 28.6082 7.58824 -33.6375 0.03 300.006 
290 1 1 0.256726 0.531248 1.67867 0 0 0 0.0719922 0.947537 -0.685233 -2.43206 22.7669 -11.1883 42.2612 -55.0746 -0.392455 0.03 300.004 
329 1 1 0.462757 0.538221 1.69627 0 0 0 0.926126 0.677393 -0.821544 2.30591 9.9982 -6.45112 3.04185 54.666 -1.89778 0.03 300.001 
217 1 1 0.591325 0.571759 1.68343 0 0 0 1.38509 0.384468 0.147526 0.499471 -2.17689 1.1136 -0.775966 -26.8435 -33.4688 0.03 300.044 