ITEM: TIMESTEP
111000
ITEM: NUMBER OF ATOMS
527
ITEM: BOX BOUNDS ff ff ff
0 3.3
-0.3 0.8
-0.5 3
ITEM: ATOMS id type type x y z ix iy iz vx vy vz fx fy fz omegax omegay omegaz radius f_Temp[0] 
343 1 1 0.153183 0.173422 1.58919 0 0 0 0.945184 -0.0860561 0.086361 0.380329 6.34186 -0.171247 -27.4664 -85.3253 53.9024 0.03 304.863 
213 1 1 0.254181 0.181382 1.57929 0 0 0 1.22587 -0.108186 0.217042 10.7706 17.818 18.6997 11.0104 -96.2642 30.7372 0.03 329.093 
248 1 1 0.444429 0.1833 1.57873 0 0 0 2.23034 0.148325 0.0348917 0.941231 1.53582 -0.53905 -1.12714 -50.0105 37.1362 0.03 329.197 
97 1 1 0.517369 0.16825 1.59468 0 0 0 2.2492 -0.47323 0.433153 0.126621 1.18309 0.761949 29.0427 -44.6577 37.3266 0.03 349.586 
22 1 1 0.700345 0.18638 1.57679 0 0 0 2.32847 -0.163896 -0.0137002 20.7785 1.57098 5.31964 5.45028 -57.329 -22.8735 0.03 333.122 
288 1 1 0.757494 0.164927 1.59801 0 0 0 2.34282 0.085037 -0.0836064 -0.00383102 0.981588 -0.999687 -3.98544 -37.5855 40.793 0.03 327.885 
90 1 1 0.854903 0.189053 1.57687 0 0 0 2.57055 0.0621325 -0.000705278 0.0218193 -0.00275186 -0.0527106 -2.07817 -47.8287 30.7538 0.03 353.431 
114 1 1 0.924331 0.178469 1.58455 0 0 0 2.97113 0.204335 -0.175392 0.261804 0.32213 -2.55581 -9.81735 -5.06932 20.788 0.03 340.225 
221 1 1 1.00222 0.180823 1.58199 0 0 0 2.55649 0.374385 -0.35748 1.12701 1.40365 -0.0943358 -1.80912 -24.0433 16.9625 0.03 316.561 
43 1 1 1.18168 0.190717 1.57728 0 0 0 3.01269 0.0588812 0.191536 0 0 -2.77371 -1.96582 -33.004 -13.0717 0.03 304.979 
40 1 1 1.27754 0.186299 1.57687 0 0 0 2.99967 0.00802195 -0.00420779 -0.00305605 0.0298253 0.0703829 -0.273861 -33.4674 10.5604 0.03 346.491 
58 1 1 1.33307 0.165896 1.59708 0 0 0 2.80487 0.0361638 -0.0363608 0.332925 -1.76436 1.38837 -1.74547 -22.6901 33.8147 0.03 368.267 
141 1 1 1.41724 0.19313 1.57687 0 0 0 3.22637 0.0441858 -0.0013961 0.0263622 -0.0101773 -0.0681033 -1.45437 -25.8685 -7.98486 0.03 326.079 
161 1 1 1.47775 0.186132 1.57693 0 0 0 3.23424 0.0437758 -0.00961901 0.972835 -0.360022 -0.712936 -0.757084 -23.0506 15.2793 0.03 357.994 
165 1 1 1.56926 0.197147 1.57705 0 0 0 3.03834 0.208114 -0.115927 0.293676 -2.0018 1.05772 -4.6075 -31.7391 22.8228 0.03 341.556 
258 1 1 0.0730637 0.210359 1.58218 0 0 0 -0.338633 -1.01254 -0.753184 0 0 -2.77371 -11.4181 -102.991 -21.1587 0.03 303.668 
284 1 1 0.158378 0.231014 1.57551 0 0 0 0.698763 0.185284 0.27095 9.89291 -5.28335 20.252 -2.10068 -107.605 2.10488 0.03 305.78 
193 1 1 0.368969 0.208506 1.57804 0 0 0 1.7434 -0.306306 0.310389 0 0 -2.77371 10.2508 -75.6519 11.1182 0.03 303.755 
230 1 1 0.482645 0.228373 1.5779 0 0 0 2.0369 0.534602 -0.0121847 -1.92182 6.2131 -1.91986 -41.7403 0.709677 -20.7521 0.03 314.712 
132 1 1 0.584223 0.220935 1.57886 0 0 0 1.69344 0.183876 -0.652306 -4.92837 15.138 -9.30047 16.2837 -77.6299 1.3243 0.03 343.076 
164 1 1 0.793307 0.209562 1.57687 0 0 0 2.33583 -0.105944 2.73077e-05 -0.000167905 -0.000107769 -0.0618204 3.54565 -55.6943 -19.164 0.03 332.503 
3 1 1 0.958589 0.227036 1.57698 0 0 0 2.86911 0.32246 -0.069824 0.657188 -0.0441771 0.997162 -10.7717 -37.3392 -5.41814 0.03 364.92 
51 1 1 1.05709 0.204619 1.5769 0 0 0 2.72489 0.146922 -0.00575929 1.16155 -0.17026 -0.425783 -2.66 -27.2567 3.23607 0.03 338.725 
171 1 1 1.11911 0.20337 1.57686 0 0 0 2.75509 0.211312 -0.00631445 1.46217 -0.366721 0.241204 6.31807 11.7242 7.63868 0.03 308.79 
95 1 1 1.23334 0.227915 1.57685 0 0 0 3.01964 0.0846888 -0.00163713 0.00249293 0.0017293 0.365611 -2.84024 -32.831 -3.52119 0.03 329.193 
91 1 1 1.32703 0.2217 1.57677 0 0 0 2.71561 0.0193529 -0.0219797 -0.0444545 0.150009 0.183766 -0.253043 -42.9902 -6.63756 0.03 349.652 
15 1 1 1.51848 0.230198 1.57692 0 0 0 3.02259 0.303317 -0.012351 1.15599 0.720964 -0.568016 -16.8623 -7.50968 -0.649674 0.03 363.222 
185 1 1 0.280176 0.252738 1.57858 0 0 0 1.27178 -0.221493 -0.132893 1.78217 1.83814 -4.1365 -12.9098 -71.8122 -8.86183 0.03 314.171 
180 1 1 0.532091 0.261136 1.57517 0 0 0 2.43742 0.131537 0.220814 -1.79928 -1.29875 21.8266 -0.592456 -59.6001 -10.7077 0.03 316.401 
110 1 1 0.740565 0.249805 1.57686 0 0 0 2.36251 0.097735 0.00127801 -0.00441104 0.000259547 0.0340654 -3.27168 -54.815 10.297 0.03 347.985 
107 1 1 0.834017 0.258938 1.57686 0 0 0 2.26379 -0.0327328 -0.000167947 0.000647524 1.22243e-05 0.00537783 1.09556 -58.1107 -1.88558 0.03 324.987 
68 1 1 0.903029 0.259803 1.57762 0 0 0 2.04941 -0.451826 -0.808767 0 0 -2.77371 13.151 42.113 0.241255 0.03 300.878 
5 1 1 1.02697 0.257788 1.57687 0 0 0 2.37919 0.0608224 -0.00666749 0.0296854 -0.014981 0.0902758 -2.03305 -54.2265 -13.6749 0.03 350.217 
12 1 1 1.11965 0.266074 1.57686 0 0 0 2.69662 0.322322 0.00504628 -0.0294857 0.0011685 -0.199461 -10.7876 -43.6366 -12.0767 0.03 349.517 
146 1 1 1.46076 0.247768 1.5767 0 0 0 2.96546 0.0308154 0.0473993 1.7163 0.216109 0.685983 -6.09115 5.43944 -1.53681 0.03 311.217 
120 1 1 1.62279 0.259356 1.57686 0 0 0 2.55976 0.033183 -0.000616748 0.00217919 -5.36577e-05 0.0795966 -1.11072 -48.2082 -20.38 0.03 383.889 
197 1 1 0.207073 0.301345 1.57983 0 0 0 0.91992 0.127085 -0.204567 0 0 -2.77371 4.81653 -105.265 6.24905 0.03 303.856 
206 1 1 0.324217 0.293406 1.57687 0 0 0 1.50906 -0.225077 0.0190994 -0.390292 -0.652038 -34.864 -30.4639 -44.2498 1.16876 0.03 322.504 
351 1 1 0.397994 0.281962 1.57602 0 0 0 1.51392 0.176193 -0.0980075 -12.7562 21.8535 -33.0391 -8.32969 -83.7068 9.96154 0.03 315.002 
70 1 1 0.785389 0.295791 1.57712 0 0 0 2.45294 0.0338612 0.00515 -0.477337 -0.235001 -3.88467 -1.49437 -51.6654 -2.73962 0.03 340.286 
127 1 1 1.17067 0.301536 1.57687 0 0 0 2.88279 0.259479 0.057393 -0.0146339 0.000322955 -2.74444 -8.82071 -37.3168 2.92766 0.03 323.665 
19 1 1 1.28736 0.278121 1.57687 0 0 0 2.84282 0.0362 -0.00302337 -0.0350177 -0.0774327 -0.0400336 -1.22967 -38.7517 -6.702 0.03 322.982 
13 1 1 1.39473 0.283261 1.57712 0 0 0 2.82774 -0.0454734 0.00937747 -0.43106 -3.08428 -3.2111 -0.153086 -29.8309 4.61764 0.03 390.407 
64 1 1 1.50172 0.292555 1.5771 0 0 0 2.70524 0.289035 -0.0799599 3.15138 -1.77462 -0.345882 -7.20661 -40.4656 11.1101 0.03 380.28 
78 1 1 1.55979 0.273613 1.57949 0 0 0 2.83435 0.530029 -0.263493 -0.0337267 -0.518032 -2.60756 -23.172 -22.86 7.78897 0.03 350.35 
257 1 1 0.0521779 0.337402 1.57682 0 0 0 0.375496 0.219124 0.00363835 -0.25147 -0.140955 0.532811 -7.274 -121.558 2.33812 0.03 315.076 
324 1 1 0.112416 0.325539 1.58121 0 0 0 -0.201021 0.0309794 -1.11297 0 0 -2.77371 47.7297 9.47316 -10.4533 0.03 300.12 
331 1 1 0.358303 0.34246 1.58148 0 0 0 1.00417 0.444662 -0.6992 0.243502 -6.22554 -0.604958 -8.62814 26.8127 17.1984 0.03 300.796 
339 1 1 0.481536 0.320506 1.57843 0 0 0 1.9724 -0.0916953 -0.174351 4.26604 7.84293 -27.3084 10.2051 -68.7301 -1.7241 0.03 338.307 
209 1 1 0.725719 0.30947 1.57687 0 0 0 2.49505 0.0124188 -0.00178894 0.00553053 -5.53449e-05 -0.0503886 -0.415575 -50.3594 -3.6237 0.03 318.44 
313 1 1 0.870948 0.311962 1.57695 0 0 0 2.27844 -0.07615 -0.012502 0.0329428 0.0060828 -0.787752 2.5735 -57.4691 -14.5579 0.03 312.993 
166 1 1 0.97217 0.314349 1.57686 0 0 0 2.28814 -0.271309 -6.61981e-06 2.59267e-05 4.10907e-06 0.000408593 9.08069 -57.2959 17.9709 0.03 349.631 
175 1 1 1.1175 0.336327 1.57687 0 0 0 2.91419 0.340841 -7.42947e-06 1.06377 0.719628 -0.20508 -12.695 -34.4294 12.7837 0.03 331.047 
225 1 1 1.2298 0.32384 1.57682 0 0 0 3.09614 0.105755 0.0720596 -9.05564 -2.18188 -7.41228 -6.35354 3.50223 -6.85842 0.03 304.601 
35 1 1 1.28732 0.338076 1.57723 0 0 0 3.14175 0.0386939 0.0401287 9.07157 2.29245 1.98463 0.583901 -27.4672 3.84628 0.03 340.621 
11 1 1 1.34422 0.314634 1.57652 0 0 0 2.84592 0.163362 0.011441 1.3251 -0.85325 5.29148 -2.53009 -33.6791 -3.56528 0.03 366.977 
123 1 1 1.44583 0.313887 1.57701 0 0 0 2.71076 0.196932 0.010011 1.6178 2.37918 -1.60204 -6.40912 -41.6762 -5.44491 0.03 343.566 
7 1 1 1.599 0.318908 1.57677 0 0 0 3.05938 0.34946 -0.0117536 -0.490885 -1.10604 0.140447 -11.6411 -31.3233 -12.8299 0.03 315.467 
298 1 1 0.292348 0.364919 1.57556 0 0 0 1.68496 -0.175149 0.139049 4.69174 13.9769 28.8164 10.8541 -81.2103 -29.0858 0.03 330.549 
300 1 1 0.455068 0.373942 1.57686 0 0 0 1.94545 0.0325071 0.0991252 0.759696 -0.538726 -4.51669 0.698999 -66.0166 9.31092 0.03 334.017 
31 1 1 0.535232 0.36963 1.57765 0 0 0 2.10014 0.125516 0.0483998 0 0 -2.77371 -4.16989 -63.5633 -1.12929 0.03 332.481 
340 1 1 0.636889 0.346002 1.57723 0 0 0 2.34467 0.0603123 -0.380954 0 0 -2.77371 -7.729 -60.0546 8.34582 0.03 310.105 
233 1 1 0.876037 0.37253 1.57678 0 0 0 2.66913 -0.0775672 0.0548939 -0.296603 0.510846 -1.13976 2.5566 -44.6909 0.384231 0.03 305.698 
38 1 1 1.03259 0.373795 1.57683 0 0 0 2.34106 0.119437 -0.0140622 -0.894088 -1.43364 -0.460693 -4.98725 -55.187 -2.64348 0.03 346.226 
94 1 1 1.39293 0.350035 1.5768 0 0 0 2.88062 -0.0620626 0.0155245 -0.0995977 0.0885031 0.451017 2.09224 -37.5257 -0.289795 0.03 356.868 
24 1 1 1.52324 0.363539 1.57733 0 0 0 3.15165 0.0678603 -0.569157 0 0 -2.77371 -6.1999 3.26798 1.69716 0.03 304.216 
380 1 1 0.241667 0.365311 2.46693 0 0 0 -0 -0 -1 0 0 0 0 0 0 0.03 300 
316 1 1 0.178046 0.378824 1.57675 0 0 0 1.43717 0.251858 -0.121459 -14.3291 -15.4952 -30.2656 -23.4489 -70.2224 -15.7617 0.03 313.196 
277 1 1 0.362439 0.402316 1.57622 0 0 0 2.27319 0.0566684 -0.00765646 32.3187 42.2289 -77.9779 1.46493 -51.3754 -3.4978 0.03 303.317 
53 1 1 0.735411 0.378867 1.5772 0 0 0 2.14929 0.346683 0.0163339 0 0 -2.77371 -11.5832 -61.7938 0.782016 0.03 324.17 
128 1 1 0.944294 0.403377 1.57686 0 0 0 2.57587 0.0797752 8.24626e-05 -0.000226359 1.26013e-05 0.00805332 -2.67012 -47.6665 -6.99507 0.03 322.93 
187 1 1 1.15374 0.384457 1.58003 0 0 0 2.77077 0.366766 -0.0667334 0 0 -2.77371 -12.4725 -40.9941 -10.7892 0.03 303.743 
291 1 1 1.24833 0.384054 1.57685 0 0 0 2.89849 -0.0310524 0.0106779 0.261464 -0.106256 -0.644295 1.3504 -36.5457 -0.998376 0.03 322.573 
126 1 1 1.466 0.38274 1.57687 0 0 0 3.14978 0.282592 0.000398654 -0.00213177 0.00115468 -0.104699 -9.45609 -28.4476 -12.4234 0.03 341.508 
289 1 1 0.193061 0.437714 1.57524 0 0 0 1.29825 0.630146 -0.166586 35.4561 -1.87639 68.2377 -21.6767 -98.8258 -4.97059 0.03 323.266 
285 1 1 0.253539 0.438938 1.57581 0 0 0 0.894524 -0.123837 0.0787792 6.92425 1.00151 18.6395 48.1968 12.6931 6.0124 0.03 302.04 
148 1 1 0.567573 0.431932 1.57886 0 0 0 2.4058 0.499724 0.24079 0 0 -2.77371 -17.4661 -53.5105 2.26307 0.03 336.471 
77 1 1 1.04659 0.431872 1.57663 0 0 0 2.10465 0.11197 0.024957 1.09766 2.25582 2.87214 -8.76651 -62.2576 4.49724 0.03 353.658 
135 1 1 1.26262 0.442141 1.57709 0 0 0 2.88662 -0.00222207 -0.00938737 0.23023 0.0688186 -1.95493 -2.93773 -36.8301 1.38636 0.03 367.219 
101 1 1 1.39086 0.411604 1.57664 0 0 0 2.8989 0.137036 -0.0288992 0.652214 -1.94432 2.8122 -4.04881 -36.9691 -0.903256 0.03 370.178 
170 1 1 1.64768 0.425595 1.57688 0 0 0 3.02885 -0.0357838 -0.000584839 0.773105 -0.998809 -0.247599 3.40673 -30.7855 -8.49171 0.03 357.318 
223 1 1 0.111494 0.458997 1.57499 0 0 0 0.772635 0.00190754 0.250088 -3.84262 -1.07397 30.3019 1.73965 -115.767 0.334674 0.03 308.184 
245 1 1 0.409733 0.46613 1.57813 0 0 0 1.89454 0.155309 -0.0442023 3.29875 -1.21401 -8.2871 -3.85676 -73.9286 -2.16314 0.03 315.69 
270 1 1 0.467076 0.445498 1.57807 0 0 0 2.00174 -0.0915186 -0.0282412 0 0 -2.77371 -3.22834 -62.1601 6.85993 0.03 316.044 
352 1 1 0.628303 0.461713 1.57525 0 0 0 2.73337 0.0777437 0.432944 -12.4151 0.585606 22.8263 -3.1992 -54.6445 -11.8206 0.03 303.782 
84 1 1 0.700496 0.469579 1.57717 0 0 0 2.23028 0.127214 -0.0267117 0 0 -2.77371 -4.17255 -59.1254 5.3805 0.03 336.579 
176 1 1 0.849449 0.459315 1.57686 0 0 0 2.34786 0.291766 0.000272638 -0.000970426 0.000186767 -0.00403223 -9.76554 -55.2978 3.7442 0.03 330.889 
25 1 1 0.95432 0.468906 1.57678 0 0 0 2.26696 0.0857516 0.0151783 11.3309 -3.89671 5.99863 -5.35067 -51.7211 -1.32655 0.03 332.293 
169 1 1 1.32159 0.475896 1.57755 0 0 0 2.76018 -0.225853 -0.0567837 0 0 -2.77371 7.81383 -41.3997 5.22091 0.03 353.678 
134 1 1 1.39928 0.470716 1.57684 0 0 0 2.8049 0.111945 -0.0116821 -0.788696 1.65865 -2.14425 -7.18146 -35.9497 5.53668 0.03 332.954 
37 1 1 1.45994 0.477667 1.57686 0 0 0 2.80603 0.0674958 -0.0167529 0.0377071 0.0150156 0.855922 -2.27346 -39.9677 1.75843 0.03 343.082 
69 1 1 1.52107 0.466107 1.57685 0 0 0 2.81944 -0.0118106 0.000262217 -0.00172186 -0.00143885 0.17823 0.396228 -39.5259 -6.4876 0.03 381.457 
111 1 1 1.58979 0.448167 1.57686 0 0 0 2.84339 -0.103219 0.00722134 -0.0181274 -0.00236353 -0.29935 3.45554 -38.7156 2.9999 0.03 352.448 
255 1 1 0.218596 0.493577 1.57786 0 0 0 1.21451 0.787619 0.385963 0 0 -2.77371 -26.6077 -93.4221 -18.8325 0.03 323.125 
308 1 1 0.353898 0.501563 1.57677 0 0 0 1.7369 0.303774 0.0509167 3.83913 2.28789 -2.46374 -18.2457 -59.4441 1.18048 0.03 318.454 
279 1 1 0.463724 0.511092 1.57673 0 0 0 1.89472 0.270902 0.11034 5.62115 -3.60976 -0.899301 -7.59534 -67.7758 2.89064 0.03 329.105 
178 1 1 0.560966 0.492476 1.5834 0 0 0 1.8278 0.837018 -0.832719 0 0 -2.77371 -17.072 1.3378 7.97978 0.03 301.135 
116 1 1 0.775321 0.509518 1.57686 0 0 0 2.28109 0.259201 -0.000293789 0.00105165 -0.000158584 -0.0076297 -8.67513 -57.5297 -6.98913 0.03 354.25 
6 1 1 0.900654 0.494795 1.57682 0 0 0 2.54294 0.163896 -0.0402901 -4.92839 2.0102 -2.7198 -4.10754 -45.6702 3.12161 0.03 330.911 
160 1 1 0.998481 0.509262 1.57661 0 0 0 2.43243 -0.0540178 -0.0429599 5.08655 -3.36174 -3.99044 0.8641 -53.5546 -2.22356 0.03 359.822 
4 1 1 1.06679 0.487849 1.57713 0 0 0 2.16022 0.124394 -3.34789e-05 -0.514606 0.898075 -2.21196 -11.9707 -56.04 -7.10683 0.03 343.655 
117 1 1 1.20406 0.503772 1.57686 0 0 0 2.57596 -0.666051 -0.00595237 0.0194731 0.00905884 0.244442 22.2885 -47.6635 20.3761 0.03 352.708 
136 1 1 1.26701 0.501769 1.57666 0 0 0 2.88484 0.0342106 0.0149827 3.33003 1.19219 2.53632 0.373369 16.5873 -0.149242 0.03 337.232 
104 1 1 1.56471 0.509157 1.57673 0 0 0 2.87548 0.0160392 0.00942384 -0.0404982 -0.0452126 2.07111 -0.498411 -37.7972 -1.20053 0.03 359.82 
149 1 1 1.62504 0.500499 1.58541 0 0 0 2.85428 -0.224965 -0.199599 -0.0274214 -0.064662 -2.76195 7.73708 36.3296 -5.76373 0.03 302.809 
238 1 1 0.164912 0.553012 1.57948 0 0 0 0.974356 0.196603 -0.0521321 0 0 -2.77371 6.15465 -55.5769 16.5498 0.03 303.72 
182 1 1 0.258616 0.541663 1.57943 0 0 0 1.0867 0.487256 -0.785166 -35.3197 15.002 -71.2014 -8.98074 -50.0597 16.3674 0.03 303.344 
272 1 1 0.406709 0.529812 1.57679 0 0 0 1.75881 0.651778 0.0351506 -1.76028 -2.1539 1.36164 -5.20204 -12.2083 1.26112 0.03 322.31 
21 1 1 0.862993 0.548111 1.57985 0 0 0 2.30935 0.0205846 0.243667 28.6393 -6.68151 13.8464 2.01666 -50.2924 -1.40727 0.03 343.605 
34 1 1 1.10943 0.529434 1.57863 0 0 0 2.6522 -0.352447 -0.149872 4.6927 -0.789859 0.972115 -6.44571 -9.52576 6.09208 0.03 337.145 
16 1 1 1.30111 0.550942 1.57661 0 0 0 2.85028 0.148291 -0.122772 2.2043 2.23285 10.3961 -5.04058 -37.8639 2.30822 0.03 363.593 
61 1 1 1.41368 0.528755 1.57672 0 0 0 2.72506 0.0474799 -0.00125972 -4.66933 -6.3231 1.10232 -1.12764 -43.158 -7.50517 0.03 362.1 
152 1 1 1.49954 0.523937 1.57691 0 0 0 2.90194 0.0541752 0.0231285 -0.0407764 0.040275 -1.83605 -1.89452 -36.686 -11.353 0.03 374.51 
429 1 1 0.311191 0.436552 2.46629 0 0 0 -0 -0 -1 0 0 0 0 0 0 0.03 300 
304 1 1 0.486426 0.568408 1.57717 0 0 0 1.76881 -0.114192 -0.0481816 -2.09545 -2.35953 -1.39953 3.18763 -29.9599 -28.5574 0.03 346.077 
249 1 1 0.544395 0.55647 1.57642 0 0 0 1.98978 0.000583814 0.0215572 0.982407 1.27144 1.14657 9.24323 -40.5143 25.4119 0.03 334.744 
226 1 1 0.689253 0.556233 1.57672 0 0 0 2.38011 0.278454 0.0458616 1.50219 0.47923 0.379841 -10.089 -52.0262 -7.34319 0.03 338.414 
119 1 1 0.747738 0.569656 1.57786 0 0 0 2.57528 -0.244569 -0.190315 -8.20003 -6.53106 3.58594 8.26924 -39.3605 -15.2406 0.03 356.082 
48 1 1 0.806722 0.564403 1.57671 0 0 0 2.45797 0.00358844 -0.13339 -6.64681 2.12194 0.589111 5.64377 -28.0558 8.42311 0.03 336.436 
227 1 1 1.0034 0.568571 1.57719 0 0 0 2.76161 -0.0127024 0.0802251 3.07011 -0.990755 3.58397 -3.33183 -47.7083 -10.7492 0.03 335.332 
147 1 1 1.06355 0.567532 1.57666 0 0 0 2.84474 -0.20979 -0.138209 4.4992 2.9333 9.594 9.69766 -22.7743 -31.9212 0.03 340.511 
17 1 1 1.17564 0.559684 1.57686 0 0 0 2.7314 -0.147534 -0.099993 1.30279 0.191424 3.71078 6.46787 -17.1628 -13.6901 0.03 337.831 
75 1 1 1.23437 0.566924 1.57651 0 0 0 3.04108 -0.44976 -0.129173 11.2862 0.354136 16.0003 14.7716 -21.012 -29.7192 0.03 326.98 
118 1 1 1.35856 0.567699 1.57691 0 0 0 2.75129 0.077342 0.0321263 4.72986 -0.836638 1.93182 -3.14548 -41.9602 -3.43928 0.03 360.725 
105 1 1 1.60567 0.565114 1.57687 0 0 0 2.77104 -0.0232755 -0.00136099 0.00336179 0.000570473 -0.12546 0.774201 -41.1136 -12.4316 0.03 348.645 
186 1 1 0.34378 0.14817 1.61666 0 0 0 2.12186 -0.15825 0.413204 2.19006 0.234924 -1.40531 8.49879 -54.3027 47.1607 0.03 303.561 
62 1 1 0.508307 0.124855 1.63821 0 0 0 1.38524 -0.430892 0.472637 -0.0427186 -0.290375 -2.87684 22.7921 -72.3273 51.8026 0.03 315.41 
137 1 1 0.698938 0.132871 1.63025 0 0 0 2.07806 0.220804 -0.243708 0.0455894 0.343503 -1.74929 -8.73551 -32.788 57.6328 0.03 336.894 
76 1 1 0.991694 0.138605 1.62442 0 0 0 2.60785 0.292854 -0.283019 0.444865 0.612291 -2.12571 -12.2815 -10.7683 22.4808 0.03 326.234 
281 1 1 1.05345 0.16053 1.62464 0 0 0 2.72762 0.258606 -0.223885 0 0 -2.77371 22.5603 -27.201 11.036 0.03 313.57 
115 1 1 1.14217 0.153403 1.60954 0 0 0 2.15355 0.482466 -0.483115 0.00178301 0.983266 -0.99097 -22.8326 -44.9566 42.3644 0.03 336.787 
49 1 1 1.40417 0.1482 1.61522 0 0 0 3.04409 0.105386 0.00656148 0 0 -2.77371 -1.5129 -13.566 31.5929 0.03 313.683 
307 1 1 0.586204 0.167743 1.60307 0 0 0 1.45697 -0.148191 -0.57888 9.4937 -11.4488 -5.03416 -8.97796 -51.3629 53.3955 0.03 304.219 
252 1 1 0.660399 0.178896 1.62479 0 0 0 1.21899 -0.390292 -0.630813 0 0 -2.77371 -1.83828 3.04671 -16.0242 0.03 300.661 
315 1 1 0.203025 0.226291 1.61379 0 0 0 0.419211 0.0357384 1.08968 1.61109 -1.165 0.589544 4.32973 68.8478 -16.5941 0.03 300.252 
194 1 1 0.299924 0.188305 1.61511 0 0 0 1.38237 -0.750528 0.387618 9.80385 10.0868 16.2048 -12.7811 54.5939 -13.8215 0.03 300.884 
349 1 1 0.412955 0.219289 1.61791 0 0 0 0.351387 -0.173606 -0.446563 0 0 -2.77371 -2.4854 2.17951 11.767 0.03 300.343 
231 1 1 0.488159 0.214443 1.63618 0 0 0 1.17317 0.140649 0.169864 0 0 -2.77371 -13.4588 21.1892 -13.881 0.03 301.658 
202 1 1 0.109133 0.257342 1.6046 0 0 0 -0.330523 -0.407337 -0.864141 0 0 -2.77371 -53.5817 29.9455 -7.95475 0.03 300.024 
189 1 1 0.32067 0.249692 1.62694 0 0 0 0.925352 -0.201214 -0.687818 3.76062 -39.1663 -112.944 -34.1408 -23.1575 34.468 0.03 300.011 
44 1 1 1.35542 0.260843 1.61637 0 0 0 2.73928 -0.0132608 -0.0452629 -0.0760947 -0.151221 -2.52049 1.17161 42.2093 2.36895 0.03 305.886 
211 1 1 0.347683 0.306984 1.62955 0 0 0 0.441975 0.629223 -0.325676 -1.49669 4.89015 29.8604 -8.29321 -33.0407 -16.4356 0.03 300.026 
347 1 1 0.412819 0.285479 1.63176 0 0 0 -0.0453989 0.0828275 0.0773326 -9.72906 17.2471 -12.2391 7.10123 32.35 -18.0874 0.03 301.199 
240 1 1 0.484458 0.27682 1.61986 0 0 0 0.719033 -0.598906 -0.311956 0 0 -2.77371 8.55478 26.0936 -13.5748 0.03 300.448 
282 1 1 0.563982 0.286531 1.61695 0 0 0 1.85064 0.561145 0.729011 8.78009 9.02086 15.8587 -27.6486 19.3395 -3.42357 0.03 300.142 
338 1 1 0.661462 0.282804 1.60795 0 0 0 1.40877 -0.26321 -0.766998 0 0 -2.77371 -8.72207 -19.1931 -9.26053 0.03 300.086 
73 1 1 0.257955 0.339406 1.6179 0 0 0 0.116325 0.312456 -1.14703 0 0 -2.77371 37.8417 33.0775 -19.5446 0.03 301.661 
212 1 1 0.519564 0.328768 1.62391 0 0 0 1.02042 -0.423381 -0.10541 -4.30561 -7.75333 21.8066 24.1212 15.9482 5.52218 0.03 300.877 
71 1 1 0.795326 0.330542 1.62496 0 0 0 2.10152 0.170853 -0.0936398 -15.3672 4.25373 -10.477 4.02326 51.0912 14.3961 0.03 303.304 
155 1 1 1.63924 0.315703 1.62085 0 0 0 2.99842 0.336767 0.0144511 1.18578 0.890822 -0.609062 -1.35769 28.8157 -0.958944 0.03 303.9 
250 1 1 0.375583 0.377356 1.62653 0 0 0 0.698433 0.460344 -0.425178 -17.1407 -55.8432 79.5174 -4.61587 -1.13504 5.89012 0.03 300.025 
234 1 1 0.428699 0.342738 1.62204 0 0 0 0.53686 0.045001 -0.199976 0 0 -2.77371 -13.4037 1.33528 0.767309 0.03 300.335 
204 1 1 0.225586 0.395656 1.60735 0 0 0 0.791213 0.456673 -0.399562 17.7911 19.6464 35.529 -14.9119 46.7095 10.3897 0.03 300.604 
334 1 1 0.56174 0.396561 1.63094 0 0 0 1.16973 -0.166332 0.307439 -14.9865 -13.8454 -13.0441 32.6972 10.1467 3.08361 0.03 300.578 
153 1 1 1.40417 0.385955 1.62867 0 0 0 2.85032 0.0379501 -0.0474469 0.472088 -2.14526 1.72039 7.40861 32.0524 7.10848 0.03 305.454 
309 1 1 0.100626 0.411875 1.61981 0 0 0 -0.735499 -0.308636 -0.320238 -7.94426 11.3565 -17.6243 8.63543 23.3868 15.1067 0.03 300.424 
344 1 1 0.30538 0.418812 1.59583 0 0 0 1.43847 0.46053 -0.440691 6.79513 -3.70793 6.55054 -47.512 -11.6202 7.88878 0.03 300.245 
346 1 1 0.4404 0.412429 1.62337 0 0 0 0.612495 0.178418 -0.0847599 0 0 -2.77371 -15.0818 2.66968 -6.19525 0.03 301.421 
254 1 1 0.715142 0.430446 1.62097 0 0 0 2.27512 -0.101119 -0.123698 0 0 -2.77371 10.989 38.7951 27.8023 0.03 301.087 
261 1 1 0.13306 0.472946 1.62748 0 0 0 -0.321958 0.122756 1.01709 3.18262 2.55812 15.4639 -4.84453 70.6169 -0.584387 0.03 300.288 
210 1 1 0.197266 0.477738 1.63458 0 0 0 -0.608037 0.401793 0.593896 0 0 -2.77371 40.6264 37.6051 -3.158 0.03 300.334 
263 1 1 0.486059 0.483297 1.62484 0 0 0 1.7481 0.290378 0.405625 -1.91379 1.66236 -4.95772 7.06012 54.2479 5.28522 0.03 301.983 
296 1 1 1.02015 0.481309 1.62426 0 0 0 2.00147 -0.281028 0.0533577 6.18471 -5.38465 0.939586 8.76607 36.8911 3.54276 0.03 301.712 
20 1 1 1.43942 0.498136 1.63 0 0 0 2.36207 0.0662777 -0.165832 0 0 -2.77371 -0.28693 28.1343 9.59923 0.03 302.927 
208 1 1 0.30472 0.533377 1.61279 0 0 0 0.572196 0.716634 -0.241463 35.3197 -15.002 65.6539 9.88571 30.3424 -6.00215 0.03 300.108 
28 1 1 0.589188 0.541483 1.61128 0 0 0 2.13551 0.00690523 0.223078 4.27156 0.471417 3.2744 14.5398 28.1549 -3.17119 0.03 302.879 
265 1 1 0.692694 0.520885 1.62601 0 0 0 1.65721 -0.253089 -0.180646 0 0 -2.77371 -1.1408 0.249001 -12.1424 0.03 301.483 
102 1 1 0.914167 0.543133 1.61634 0 0 0 1.87017 -0.11334 0.38308 1.10822 -5.37018 0.974785 -9.05128 56.666 10.5015 0.03 301.661 
106 1 1 0.973297 0.536212 1.62299 0 0 0 2.04918 -0.0317582 -0.398639 -12.8054 7.92161 3.57549 0.00840039 3.46371 -15.536 0.03 303.142 
150 1 1 1.06068 0.532332 1.63099 0 0 0 2.12543 -0.424166 -0.316695 0 0 -2.77371 -6.61328 17.9994 24.1996 0.03 301.757 
98 1 1 1.3409 0.519786 1.61818 0 0 0 2.60365 0.0683446 -0.0379686 0 0 -2.77371 -11.883 44.632 8.16315 0.03 302.554 
290 1 1 0.240721 0.584953 1.61855 0 0 0 -0.00929957 -0.153658 -1.0383 6.89072 -14.2806 -5.58778 57.7072 -13.5863 12.6965 0.03 300.048 
271 1 1 0.377893 0.567783 1.63035 0 0 0 0.955779 -0.405526 0.802247 -9.04706 -8.62137 14.4024 -16.8142 85.5369 37.2373 0.03 300.922 
201 1 1 0.473394 0.561737 1.63899 0 0 0 1.2783 0.599255 0.43651 22.2395 1.68582 -0.829483 -22.0203 8.95836 -1.64174 0.03 300.86 
243 1 1 0.767538 0.582297 1.63396 0 0 0 1.66945 0.147143 -0.0509797 0 0 -2.77371 -27.951 9.94893 -33.3332 0.03 301.082 
2 1 1 1.44641 0.55672 1.61775 0 0 0 2.70248 0.0170418 -0.126351 -7.39331 -4.40382 0.224016 -4.36457 44.7937 6.32368 0.03 318.287 
303 1 1 0.165923 0.604387 1.61122 0 0 0 0.949824 0.409633 -0.429806 45.8175 -29.1195 -4.88328 1.73677 -87.1476 -57.461 0.03 319.211 
237 1 1 0.336169 0.598223 1.60461 0 0 0 1.15567 0.140256 0.455049 -10.7306 -10.4777 13.7764 -15.0874 -70.6832 -74.2386 0.03 308.492 
55 1 1 0.525675 0.601031 1.61265 0 0 0 2.24746 -0.0491882 0.265488 -0.196758 0.51389 -3.02891 -10.7589 -14.4025 -70.0205 0.03 310.385 
276 1 1 0.600425 0.60339 1.62261 0 0 0 1.62338 -0.134739 -0.17704 0 0 -2.77371 -4.76291 -64.5313 -49.4407 0.03 305.621 
154 1 1 0.823188 0.612507 1.62169 0 0 0 2.08211 -0.424312 -0.424345 -0.000144782 -0.950146 -1.02357 20.0619 -35.8832 -54.8123 0.03 327.752 
57 1 1 0.891742 0.596978 1.60527 0 0 0 2.38975 0.161259 0.238305 6.7916 -3.52571 4.60582 -11.0217 -19.6467 -39.2038 0.03 336.743 
89 1 1 0.954771 0.592029 1.60711 0 0 0 2.2239 0.11548 -0.475508 0 0 -2.77371 5.07957 -21.1458 -19.2284 0.03 330.299 
65 1 1 1.12559 0.595536 1.60471 0 0 0 2.7211 -0.338325 -0.338302 -3.6603e-05 -0.990552 -0.98726 16.0003 -29.0433 -31.4408 0.03 317.614 
27 1 1 1.18766 0.592594 1.62832 0 0 0 2.56638 -0.253745 0.459385 0 0 -2.77371 -24.6587 -28.4302 -20.1132 0.03 333.774 
99 1 1 1.27419 0.603257 1.62306 0 0 0 2.10215 0.0813948 -0.10836 0 0 -2.77371 -19.5823 -41.1356 -42.3874 0.03 342.722 
79 1 1 1.40393 0.596625 1.60562 0 0 0 2.82521 0.0450095 0.00286947 -1.37166 5.44537 2.68808 -4.78242 -18.8405 -28.4066 0.03 336.488 
156 1 1 1.491 0.591385 1.60055 0 0 0 2.79498 -0.189662 -0.227265 18.6771 3.2773 -0.212145 9.40451 -38.8471 -15.5225 0.03 355.704 
488 1 1 0.339114 0.52293 2.46217 0 0 0 -0 -0 -1 0 0 0 0 0 0 0.03 300 
138 1 1 1.07785 0.622051 1.63123 0 0 0 2.7371 -0.443447 -0.443314 0.781347 -0.967497 -0.971275 0.90875 -11.388 -10.8357 0.03 315.944 
332 1 1 0.21659 0.111375 1.65157 0 0 0 0.27304 -0.0601401 0.0456362 1.14051 1.45558 -0.893579 20.831 -42.6525 35.1878 0.03 308.697 
283 1 1 0.302085 0.0953379 1.66843 0 0 0 0.802067 -0.238781 0.158385 0 0 -2.77371 13.6488 -0.330864 7.99445 0.03 303.246 
74 1 1 0.780507 0.11495 1.64705 0 0 0 2.32918 0.0769198 0.000363056 0.251025 7.22447 5.85814 9.61201 -20.8816 21.9717 0.03 307.346 
333 1 1 0.836717 0.102688 1.66224 0 0 0 2.31308 0.110369 -0.0763741 7.26204 1.3083 0.650364 -12.1921 -16.2113 25.571 0.03 312.037 
139 1 1 0.886817 0.126225 1.63984 0 0 0 2.35211 0.317349 -0.0875708 -0.659306 -0.0715425 -2.14578 -8.30472 -43.6331 28.0362 0.03 339.155 
196 1 1 0.586336 0.151438 1.6603 0 0 0 0.405584 0.0288936 -0.649118 -4.56532 -3.68924 6.01349 10.1692 -11.4937 -24.8962 0.03 300.314 
353 1 1 0.26659 0.217044 1.65642 0 0 0 0.189162 -0.439299 -0.37222 0 0 -2.77371 -19.037 -69.0693 29.1667 0.03 300.006 
183 1 1 0.61599 0.216403 1.64544 0 0 0 1.29218 -0.23729 0.0785634 0 0 -2.77371 -38.9012 59.4425 28.5604 0.03 300.739 
319 1 1 0.795677 0.223849 1.63723 0 0 0 1.74016 0.0178512 -0.342762 0 0 -2.77371 24.3173 41.486 -14.2233 0.03 300.778 
330 1 1 0.554699 0.236261 1.64753 0 0 0 1.47219 -0.141179 -0.481313 0.0757015 -2.29479 0.628994 3.63629 -4.2874 11.6784 0.03 300.018 
322 1 1 0.943235 0.24164 1.63704 0 0 0 2.20267 0.109289 -0.199557 0 0 -2.77371 -28.6268 32.745 -20.5196 0.03 301.542 
253 1 1 0.254392 0.277274 1.63403 0 0 0 0.0521272 -0.349227 -1.59832 0 0 -2.77371 10.6685 -2.07333 -10.0972 0.03 300.03 
181 1 1 0.827046 0.303779 1.66682 0 0 0 2.05484 -0.00860972 -0.133716 15.8445 -4.01873 6.04052 -17.3668 12.5458 15.3646 0.03 300.759 
184 1 1 0.488965 0.367096 1.66042 0 0 0 0.81915 -0.0860683 -0.467122 0 0 -2.77371 -42.3266 -14.8933 7.93808 0.03 300.007 
242 1 1 0.56653 0.346035 1.66547 0 0 0 1.7359 -0.708375 -0.0445994 0 0 -2.77371 -12.2226 14.2667 1.0413 0.03 300.011 
216 1 1 0.648511 0.365885 1.63407 0 0 0 1.71088 0.345344 -0.156791 0 0 -2.77371 13.794 41.8121 -2.5509 0.03 300.202 
191 1 1 0.125029 0.377902 1.66107 0 0 0 0.0726371 -0.530405 -0.89737 7.94426 -11.3565 12.0768 7.54003 -4.38902 1.38304 0.03 300.003 
318 1 1 0.383196 0.423666 1.66228 0 0 0 0.59346 0.295264 -0.054358 -1.482 7.1649 10.0376 20.0602 -32.664 -24.1844 0.03 300.048 
295 1 1 0.506304 0.433865 1.65324 0 0 0 1.7879 -0.44851 -0.443675 0 0 -2.77371 21.5406 -27.2295 -24.6935 0.03 300.046 
274 1 1 0.611587 0.428387 1.63302 0 0 0 1.25487 -0.634535 -1.06653 14.0389 10.5587 7.30476 0.433834 0.175105 4.8149 0.03 300.002 
269 1 1 0.294052 0.470125 1.64541 0 0 0 -0.311247 -0.00426506 -1.4428 0 0 -2.77371 18.2182 -4.68094 -5.11616 0.03 300 
190 1 1 0.399119 0.477819 1.63524 0 0 0 0.727641 0.480505 -0.199307 -5.24993 -11.0625 8.88948 -7.43147 31.3532 16.9975 0.03 301.424 
335 1 1 0.725596 0.478762 1.66119 0 0 0 1.7312 0.682815 -0.164787 0 0 -2.77371 -14.1507 -11.0417 31.3954 0.03 300.282 
198 1 1 0.539123 0.515036 1.63609 0 0 0 2.11617 0.302639 -0.794095 3.54849 4.85951 1.89792 37.5852 8.15547 20.9772 0.03 300.031 
262 1 1 0.601083 0.48718 1.6318 0 0 0 1.6178 -0.593798 -0.651488 4.12829 -0.605491 0.490657 17.4341 -19.0772 -19.9264 0.03 300.106 
310 1 1 0.181561 0.557733 1.64041 0 0 0 -0.0360813 0.151487 -0.282867 -9.79466 -57.4947 57.0441 -4.25898 25.9884 29.9298 0.03 300.073 
220 1 1 0.422625 0.531944 1.63928 0 0 0 1.61384 0.0496504 0.362921 11.2562 -7.89305 -2.75795 -11.4182 -41.7012 -18.7129 0.03 300.081 
224 1 1 0.637846 0.55083 1.64409 0 0 0 2.26663 0.321176 0.210518 1.88163 -1.04632 -1.5908 14.8325 -18.4577 33.9594 0.03 301.844 
239 1 1 0.825701 0.537181 1.63867 0 0 0 1.55189 0.277362 -0.294947 0 0 -2.77371 -8.43035 41.701 4.12706 0.03 300.768 
329 1 1 0.554028 0.569779 1.65509 0 0 0 1.96451 0.193565 0.657303 -3.35173 -5.3734 -7.19014 -4.73871 29.708 20.085 0.03 300.147 
52 1 1 0.716011 0.615583 1.64128 0 0 0 1.53589 0.0886896 -0.301609 0 0 -2.77371 -7.49989 37.4352 43.85 0.03 301.807 
301 1 1 0.212554 0.631783 1.63923 0 0 0 0.780636 0.213535 0.266264 9.73219 -15.7996 20.6493 11.717 -10.6682 -65.4229 0.03 306.523 
326 1 1 0.49469 0.649314 1.65849 0 0 0 1.04458 0.0808141 0.0784073 0.0114683 -1.02133 -0.953491 -3.75289 -116.096 -23.6681 0.03 339.369 
72 1 1 0.658469 0.637874 1.64703 0 0 0 1.5497 0.0899739 0.0890014 0.00150804 -1.15905 -0.839885 -4.21615 -46.8336 -69.1053 0.03 340.226 
317 1 1 0.411374 0.0591595 1.70378 0 0 0 1.25878 -0.225564 0.225437 0.45098 0.776622 -0.751406 27.86 -54.2631 62.9583 0.03 314.507 
219 1 1 0.433811 0.260312 1.67789 0 0 0 0.459165 -0.54897 -0.0288518 19.6567 -25.943 60.7929 2.21906 -2.2192 -28.4839 0.03 300.024 
199 1 1 0.259591 0.337658 1.67788 0 0 0 0.221188 0.186754 -0.881257 0 0 -2.77371 -34.3111 -29.2615 2.5757 0.03 300.01 
341 1 1 0.693814 0.306597 1.67578 0 0 0 1.88537 -0.733283 -0.285234 0 0 -2.77371 10.6458 -38.4114 -11.8413 0.03 300.011 
222 1 1 0.182857 0.350512 1.67335 0 0 0 0.081894 -0.259746 -0.906515 0 0 -2.77371 37.2626 -35.6344 8.37345 0.03 300.003 
259 1 1 0.296321 0.382954 1.65883 0 0 0 0.0967707 0.33109 -1.38685 0 0 -2.77371 28.2345 -6.42651 5.36853 0.03 300.017 