ITEM: TIMESTEP
68000
ITEM: NUMBER OF ATOMS
353
ITEM: BOX BOUNDS ff ff ff
0 3.3
-0.3 0.8
-0.5 3
ITEM: ATOMS id type type x y z ix iy iz vx vy vz fx fy fz omegax omegay omegaz radius f_Temp[0] 
58 1 1 0.38208 0.18209 1.58066 0 0 0 1.39749 -0.236282 0.483488 -2.21795 -3.16212 -5.50303 17.2846 -109.88 14.8265 0.03 330.445 
120 1 1 0.57152 0.183436 1.58362 0 0 0 2.32748 -0.0222352 0.081571 0 0 -2.77371 8.44673 -69.7293 9.78402 0.03 339.863 
1 1 1 0.691009 0.173427 1.58914 0 0 0 2.40888 0.0738997 -0.094618 3.42345 5.14666 2.67317 -5.02356 23.4925 8.62159 0.03 305.075 
108 1 1 0.744543 0.195904 1.57684 0 0 0 2.6828 0.173728 0.17704 -2.90539 -1.32148 -3.80521 -4.98464 -44.5012 -0.368062 0.03 358.007 
47 1 1 0.96415 0.192083 1.57686 0 0 0 2.03505 -0.0328879 -0.00124759 0.00548966 -0.00231699 0.00797687 1.10644 -65.7609 7.3851 0.03 340.334 
67 1 1 1.06822 0.186305 1.57685 0 0 0 2.39227 0.0222323 -0.00417633 0.349204 -0.0227475 0.242475 -0.881895 -53.477 17.8982 0.03 336.097 
85 1 1 1.13157 0.169677 1.59326 0 0 0 2.48148 0.237585 -0.237717 0.000354102 0.999075 -0.979043 -11.241 -56.7568 15.0606 0.03 318.256 
45 1 1 1.24974 0.184981 1.57789 0 0 0 3.23919 0.0816703 -0.0895661 1.41909 1.77094 -0.275312 -2.28058 -17.1377 12.7297 0.03 329.811 
51 1 1 0.283361 0.209489 1.58671 0 0 0 1.51877 -0.47021 0.249724 0 0 -2.77371 17.2112 -88.6061 -2.09302 0.03 306.412 
13 1 1 0.513263 0.228819 1.5768 0 0 0 1.50214 -0.223205 7.91445e-05 0.0106235 0.00112579 1.05519 7.48233 -83.7336 30.5051 0.03 348.262 
112 1 1 0.828247 0.231826 1.57654 0 0 0 2.27599 0.199235 0.00063341 0.145758 -0.0425941 7.06301 -6.64146 -58.0413 -18.9158 0.03 338.169 
60 1 1 0.906297 0.213363 1.57686 0 0 0 2.24345 -0.107043 0.000109675 -0.000377303 -2.29907e-05 0.00924796 3.58279 -58.7931 18.0912 0.03 328.436 
8 1 1 1.29905 0.222552 1.57692 0 0 0 3.26106 0.150315 0.00256744 0.0189556 0.0206147 -1.06409 -5.0891 -24.5986 7.09794 0.03 325.637 
90 1 1 0.122049 0.238041 1.57907 0 0 0 0.709069 -0.0227437 -0.395736 7.60336 -0.321875 13.2947 7.08014 -65.0273 -4.21351 0.03 303.922 
12 1 1 0.232271 0.246723 1.57987 0 0 0 1.21689 -0.39613 -0.412108 3.22991 0.925758 1.80585 6.15857 -65.8643 0.933089 0.03 307.482 
91 1 1 0.380948 0.254465 1.58074 0 0 0 1.23061 -0.689611 -0.636117 0.099686 -0.153053 3.39298 2.45304 -55.7624 -5.80119 0.03 313.822 
41 1 1 0.724815 0.252336 1.57855 0 0 0 2.37993 0.164729 -0.12022 3.95234 -0.825488 17.6546 25.2044 -23.9983 -9.76098 0.03 331.684 
86 1 1 0.965338 0.253311 1.57686 0 0 0 2.0904 0.000154079 0.000852241 -0.00363699 0.00232081 -0.0235143 -0.00890074 -63.9161 -8.90786 0.03 348.768 
142 1 1 1.02747 0.233124 1.57687 0 0 0 2.15033 -0.11813 -0.000596935 0.00214167 0.000118641 -0.0501457 3.95328 -61.9006 -9.02691 0.03 345.661 
125 1 1 0.607047 0.276342 1.58067 0 0 0 2.28817 -0.0456461 -0.494261 3.17917 0.313558 3.0183 4.11996 -43.6758 -3.55162 0.03 308.388 
144 1 1 0.67981 0.291901 1.57668 0 0 0 2.37923 -0.101334 -0.0220085 -1.99364 -0.782409 -15.5589 4.16561 -53.4439 22.9755 0.03 311.415 
59 1 1 0.859604 0.288037 1.57682 0 0 0 2.35351 0.295683 -0.0155088 0.065119 -0.00885564 1.45037 -9.90843 -55.1567 14.5512 0.03 322.896 
23 1 1 1.07189 0.277442 1.57686 0 0 0 2.25993 -0.337729 3.22103e-06 -1.37597e-05 -2.67061e-06 -0.000434252 11.3038 -58.2401 -13.9588 0.03 344.791 
96 1 1 1.13452 0.27865 1.57686 0 0 0 2.28399 -0.348932 -7.93049e-07 3.06098e-06 6.22416e-07 3.55928e-05 11.6787 -57.4348 -1.07283 0.03 332.283 
3 1 1 0.144031 0.310763 1.5842 0 0 0 0.644006 -0.0365797 0.303206 0 0 -2.77371 0.677805 -115.119 12.2381 0.03 325.579 
175 1 1 0.2491 0.305005 1.57542 0 0 0 1.41934 -0.789512 0.837989 -18.267 -0.811088 -14.1083 27.4561 -96.7606 -6.68715 0.03 303.158 
11 1 1 0.322432 0.309648 1.57754 0 0 0 1.75487 0.016144 0.224283 0 0 -2.77371 -0.50385 -75.1538 4.18059 0.03 315.268 
94 1 1 0.407849 0.321622 1.57638 0 0 0 1.40388 -0.262127 -0.806171 13.3225 -14.3911 -30.7453 12.6895 -53.8054 3.3536 0.03 309.944 
64 1 1 0.512469 0.306004 1.57753 0 0 0 2.13421 -0.136643 0.180928 0 0 -2.77371 4.12455 -63.0066 18.882 0.03 345.207 
124 1 1 0.739668 0.324742 1.57693 0 0 0 2.06446 0.146178 -0.0181025 0.065682 -0.00473567 -0.28821 -4.88229 -64.6527 -6.93565 0.03 335.597 
82 1 1 1.18286 0.327022 1.58155 0 0 0 2.32754 -0.432865 0.0389717 0 0 -2.77371 17.2578 -49.5844 4.03313 0.03 336.489 
14 1 1 1.35542 0.334529 1.57686 0 0 0 2.42075 0.0677053 -9.67887e-12 -2.42248e-12 5.94636e-15 -4.32268e-11 -2.26609 -52.8573 -2.54476 0.03 347.096 
170 1 1 0.555807 0.348383 1.57573 0 0 0 1.9131 0.280144 0.0262776 11.9622 1.92239 5.43134 -29.2423 19.9427 17.4081 0.03 303.278 
29 1 1 0.865396 0.358558 1.57686 0 0 0 2.47599 0.106103 4.18373e-05 -0.000149572 1.04142e-05 -0.0036551 -3.55126 -51.0083 3.04612 0.03 324.733 
81 1 1 0.926021 0.34228 1.57686 0 0 0 2.47922 -0.0031872 -0.000204081 0.000666328 1.39497e-06 0.000121417 0.106674 -50.8996 -13.9831 0.03 319.095 
133 1 1 1.12778 0.353738 1.5773 0 0 0 2.2255 -0.442097 -0.0488472 0 0 -2.77371 14.5389 -60.1125 -2.90755 0.03 310.671 
77 1 1 0.247341 0.386153 1.5739 0 0 0 1.72545 0.342876 -0.25806 3.68294 1.35835 40.4858 -11.5609 -82.4489 -10.6351 0.03 308.643 
101 1 1 0.383477 0.406172 1.57686 0 0 0 1.19958 0.0546094 0.539356 30.6676 -6.68044 -9.05567 5.83879 -62.7565 -8.54997 0.03 336.507 
126 1 1 0.435788 0.387505 1.59692 0 0 0 1.26882 -0.944507 -0.0173412 8.50726 1.75404 -0.150556 73.7265 66.3318 1.97448 0.03 301.582 
50 1 1 0.585327 0.409489 1.57741 0 0 0 2.10053 0.391655 0.0540138 0 0 -2.77371 -13.1357 -63.4669 21.5377 0.03 326.889 
143 1 1 0.689527 0.375134 1.57681 0 0 0 2.13858 -0.0432277 -0.00268825 -0.114086 -0.0467439 0.638542 1.50759 -62.4991 -3.91717 0.03 329.128 
122 1 1 0.742623 0.40271 1.57693 0 0 0 2.09135 0.0676763 0.0112624 0.660213 0.204455 -1.20786 -2.09723 -63.9412 0.571691 0.03 342.07 
174 1 1 1.29887 0.403322 1.57686 0 0 0 2.54452 -0.112838 6.24892e-11 -1.9608e-10 -1.52126e-11 6.31883e-10 3.77668 -48.7148 2.83466 0.03 341.379 
135 1 1 0.325979 0.416104 1.57654 0 0 0 1.06151 -0.0768092 0.193216 -29.4663 10.0456 -15.439 9.88388 -65.8461 13.0015 0.03 324.349 
111 1 1 0.489808 0.417571 1.57616 0 0 0 1.19598 -0.607209 -0.471175 24.6792 -6.92107 48.4889 49.7 8.34902 -33.6016 0.03 300.784 
167 1 1 0.848861 0.423761 1.57612 0 0 0 2.05754 0.0461605 0.202942 -1.13217 0.218927 0.771464 -1.77415 -66.1932 12.9814 0.03 318.499 
32 1 1 1.09956 0.443796 1.57685 0 0 0 2.41608 0.0360841 -0.000445756 0.0237393 0.014049 0.148109 -1.22848 -52.9933 4.98442 0.03 334.329 
119 1 1 0.0862624 0.477506 1.57989 0 0 0 0.44997 -0.0170437 0.488987 0 0 -2.77371 0.565169 -119.54 -2.51378 0.03 303.632 
160 1 1 0.224355 0.452648 1.57359 0 0 0 1.29608 0.31442 0.365234 7.35823 0.95729 39.2475 -10.2636 -103.436 -4.381 0.03 314.968 
69 1 1 0.449298 0.461934 1.57618 0 0 0 1.51648 0.182265 0.137535 5.33988 -2.4556 2.40717 -0.151118 -71.553 2.50845 0.03 343.158 
26 1 1 0.561879 0.47716 1.59788 0 0 0 1.75358 -0.0542497 -0.199008 2.91504 -0.954931 -2.46506 15.1167 -38.0998 17.2286 0.03 300.582 
131 1 1 0.66174 0.464768 1.57687 0 0 0 2.00661 0.214292 0.000267623 -0.00189073 0.000205533 -0.15998 -7.17071 -66.7034 -12.5802 0.03 318.817 
30 1 1 0.772367 0.454713 1.57701 0 0 0 2.24475 -0.01024 0.0546392 9.38805 -6.37914 -0.428645 0.643563 -57.9541 -12.2222 0.03 349.7 
10 1 1 0.889281 0.472013 1.57687 0 0 0 2.15064 0.0819564 0.000901184 0.183576 0.34873 -0.627315 -36.9181 -37.7102 -20.1955 0.03 348.644 
54 1 1 0.961959 0.443548 1.57686 0 0 0 2.24233 -0.277117 -0.000381261 0.00138809 0.000228631 -0.0106435 9.27466 -58.8264 -8.02237 0.03 337.128 
36 1 1 1.03711 0.460245 1.57686 0 0 0 2.35744 0.161679 5.81465e-05 0.0256254 0.0119401 0.0336187 -5.42454 -54.952 -1.38527 0.03 330.607 
34 1 1 0.225495 0.514158 1.5805 0 0 0 1.57287 0.269221 0.246312 0 0 -2.77371 -5.32877 -86.9765 -16.5328 0.03 307.127 
169 1 1 0.366295 0.497402 1.57619 0 0 0 1.48737 0.25563 0.34064 1.76723 -1.96412 -3.43323 -13.8199 -91.5461 2.20643 0.03 316.767 
104 1 1 0.506776 0.487498 1.57781 0 0 0 1.71212 0.426548 -0.0208461 -2.91504 0.954931 -3.08236 -6.62273 45.8319 -32.5611 0.03 307.91 
163 1 1 0.62521 0.514816 1.58265 0 0 0 2.42433 -0.100633 0.0840158 0 0 -2.77371 -1.52992 -35.9966 -12.0416 0.03 325.209 
145 1 1 0.722769 0.486966 1.57623 0 0 0 2.47439 0.244103 0.148324 -7.63375 6.62565 -0.517437 -1.48712 25.5236 4.93106 0.03 304.854 
39 1 1 0.8182 0.495376 1.57727 0 0 0 2.20501 0.0811737 -0.0977413 0 0 -2.77371 -4.22734 -58.1905 8.39908 0.03 325.997 
162 1 1 0.934276 0.511513 1.5771 0 0 0 2.35849 -0.163899 -0.0890392 5.29212 4.58385 -1.63959 -4.91429 -45.7601 23.6093 0.03 330.484 
100 1 1 1.12048 0.503695 1.57683 0 0 0 2.12719 0.298925 -0.00519459 0.234431 0.613638 0.199356 -12.9609 -61.4772 2.83307 0.03 342.638 
140 1 1 1.22107 0.489427 1.57688 0 0 0 2.5221 0.024484 -0.0227947 0.0718889 -0.00119434 0.643888 -0.818603 -49.4128 0.805906 0.03 311.254 
61 1 1 0.457114 0.523467 1.57904 0 0 0 1.68364 -0.22617 0.0900289 -10.6866 -12.4975 -11.5752 -4.94436 -68.0389 15.7698 0.03 321.619 
42 1 1 0.567266 0.533716 1.57708 0 0 0 2.41028 0.0912211 -0.00884887 0.14646 -0.0468268 -2.46619 3.17435 -33.569 3.40227 0.03 323.529 
63 1 1 0.689529 0.550672 1.57718 0 0 0 1.93955 0.111572 0.14956 32.0245 -13.7996 10.391 -1.8258 -65.2897 12.7545 0.03 347.101 
103 1 1 0.872279 0.540144 1.57687 0 0 0 2.02799 -0.119035 -0.00172627 0.00835757 -0.000234782 -0.00485726 3.97936 -65.9991 -27.5458 0.03 347.813 
66 1 1 0.997154 0.520313 1.57687 0 0 0 2.36464 0.0786985 0.00234131 -0.0950352 0.00978588 -0.322407 -2.62556 -55.1513 -8.24283 0.03 324.383 
168 1 1 1.05706 0.522714 1.57729 0 0 0 2.3807 0.196372 -0.285579 -0.180955 -0.00952185 -2.68472 -11.2043 -42.1484 9.35134 0.03 316.467 
117 1 1 0.255466 0.579152 1.59227 0 0 0 1.43711 -0.592328 -0.0733417 0 0 -2.77371 13.9809 -34.9264 -87.3906 0.03 303.722 
16 1 1 0.344802 0.557417 1.57709 0 0 0 1.43391 0.296091 0.0157183 13.9448 -6.6617 -24.8024 -8.83528 -83.6979 8.43842 0.03 320.627 
118 1 1 0.406366 0.55981 1.57707 0 0 0 1.52174 -0.267821 -0.038395 0.41683 -0.435547 -1.56798 16.0173 -75.8541 -23.1974 0.03 321.147 
152 1 1 0.494953 0.568883 1.58069 0 0 0 1.54922 -0.228425 -0.334075 10.6866 12.4975 6.02778 1.70715 -96.2036 -19.0139 0.03 324.327 
121 1 1 0.636347 0.574432 1.58317 0 0 0 1.97083 -0.0254505 -0.238287 -24.0475 1.08042 -5.59888 9.89223 -65.3485 -13.057 0.03 336.297 
109 1 1 0.814705 0.567358 1.57612 0 0 0 1.8926 0.0178121 0.101445 -0.7795 -0.236281 8.91183 0.0664667 -72.252 -10.8699 0.03 337.742 
172 1 1 0.928054 0.571986 1.58053 0 0 0 2.15869 -0.0854108 -0.0720633 -0.0399874 -0.812667 3.13789 3.77341 -61.8719 -26.5373 0.03 335.879 
113 1 1 1.14038 0.560131 1.57702 0 0 0 2.12046 0.297577 -0.00655961 0.386531 1.15644 -1.44353 -9.96757 -62.7256 -6.08083 0.03 341.344 
158 1 1 0.753737 0.586049 1.59563 0 0 0 2.18792 -0.143521 -0.181454 0 0 -2.77371 4.87829 -30.4317 -55.1868 0.03 325.744 
139 1 1 0.286416 0.151662 1.60916 0 0 0 1.12982 -0.168853 -0.12379 9.1839 19.2762 27.5434 -3.7409 -118.589 22.6312 0.03 310.376 
15 1 1 0.492847 0.159823 1.6036 0 0 0 1.68284 -0.103663 0.00882083 0 0 -2.77371 8.03491 -71.01 38.5393 0.03 318.548 
173 1 1 0.605329 0.156867 1.6272 0 0 0 1.7967 -0.23553 0.368986 0 0 -2.77371 39.6888 17.3772 29.4563 0.03 306.24 
87 1 1 0.754239 0.150251 1.61569 0 0 0 2.18962 -0.039801 0.125943 0 0 -2.77371 12.2952 -28.9418 58.5089 0.03 320.256 
114 1 1 0.182612 0.159341 1.60515 0 0 0 0.967523 -0.739519 -0.0423085 0 0 -2.77371 24.9816 -102.424 0.782658 0.03 303.811 
80 1 1 0.821498 0.164691 1.62019 0 0 0 1.54289 -0.55714 -0.15334 0 0 -2.77371 17.0193 52.7959 -18.4296 0.03 300.687 
161 1 1 0.481421 0.218246 1.63253 0 0 0 0.686758 -0.106493 -0.156685 -1.20207 -6.50318 -4.64144 -10.0157 47.8341 1.99786 0.03 300.993 
88 1 1 0.737441 0.21004 1.63454 0 0 0 1.71384 0.149174 0.285203 2.11682 0.2715 -6.83306 1.49094 16.4965 -29.6303 0.03 300.963 
97 1 1 0.152422 0.2322 1.62971 0 0 0 -0.054677 -0.565661 0.896111 -7.60336 0.321875 -18.8421 0.669774 21.8458 -15.001 0.03 300.082 
74 1 1 0.273477 0.263467 1.61926 0 0 0 0.57769 -0.0337554 0.682278 -10.7335 -8.32731 -6.18515 -17.3153 21.384 1.66082 0.03 300.114 
146 1 1 0.557943 0.237901 1.6257 0 0 0 1.7129 0.0843439 0.372536 0 0 -2.77371 -9.12648 22.6822 -20.7519 0.03 300.817 
5 1 1 0.202669 0.287797 1.61726 0 0 0 1.2398 -0.510944 0.273514 0 0 -2.77371 19.7783 130.501 -13.9202 0.03 300.343 
19 1 1 0.418648 0.279941 1.61853 0 0 0 0.898071 -0.358051 0.18312 0.893658 1.71949 -8.53085 -19.9746 20.6632 -2.08292 0.03 301.874 
44 1 1 0.520119 0.284024 1.63343 0 0 0 1.40738 0.0768462 0.706331 0 0 -2.77371 -7.58956 14.9275 29.3808 0.03 300.826 
7 1 1 0.632594 0.273958 1.63417 0 0 0 1.39913 -0.0594294 0.421448 -3.17917 -0.313558 -8.56572 -5.72959 3.11778 -0.405235 0.03 300.605 
71 1 1 0.301941 0.313339 1.63488 0 0 0 0.459902 0.0500352 0.159559 7.50361 7.40156 -3.94184 4.31507 27.3053 -1.04169 0.03 300.325 
141 1 1 0.457222 0.32391 1.60544 0 0 0 0.625554 -0.186685 -0.512685 57.2396 2.90964 86.7153 -19.7996 24.858 -0.136146 0.03 300.655 
56 1 1 0.636263 0.332516 1.61544 0 0 0 1.27204 -0.0872801 -0.318082 0 0 -2.77371 -10.9662 17.4393 -5.82592 0.03 300.189 
132 1 1 0.0883048 0.349252 1.61157 0 0 0 -0.664551 -0.0933043 -0.568867 0 0 -2.77371 -36.9144 89.1363 25.4706 0.03 300.693 
166 1 1 0.189583 0.362427 1.5949 0 0 0 0.535527 -0.411897 -1.7797 0 0 -2.77371 37.506 -43.7647 -3.5435 0.03 300.005 
35 1 1 0.381526 0.360562 1.63074 0 0 0 0.530176 -0.199055 0.256038 0 0 -2.77371 -5.03844 21.8195 -5.39746 0.03 300.383 
24 1 1 0.585858 0.367732 1.62218 0 0 0 1.53072 0.212763 0.36627 5.14794 1.70095 24.0004 52.2073 -31.1456 2.45459 0.03 300.259 
28 1 1 0.24304 0.407346 1.62558 0 0 0 0.132471 0.840745 -0.273481 2.81744 19.4188 75.6629 -5.25242 20.3414 -2.97762 0.03 300.098 
38 1 1 0.318649 0.365219 1.60923 0 0 0 0.542907 -1.04105 -0.420722 0 0 -2.77371 24.6624 15.4696 -2.01896 0.03 300.283 
92 1 1 0.867124 0.413233 1.63143 0 0 0 1.90463 0.322993 0.478606 1.3049 -0.671936 3.05848 -5.78877 57.6719 -3.60383 0.03 300.575 
21 1 1 0.198658 0.457281 1.62605 0 0 0 -0.41055 0.4207 -0.530009 -18.7312 3.34653 10.3531 6.43574 40.0542 -0.273549 0.03 300.289 
154 1 1 0.264913 0.46137 1.61247 0 0 0 1.35934 0.728298 1.04239 33.7739 4.17487 50.0119 -34.0932 84.7064 -20.269 0.03 300.462 
4 1 1 0.336282 0.454619 1.62121 0 0 0 0.526732 0.326601 0.331392 -32.9415 8.05357 -62.928 -7.3904 48.6474 -13.8348 0.03 301.218 
106 1 1 0.397682 0.46166 1.61203 0 0 0 1.15057 -0.546281 0.247869 -2.26217 2.3595 -3.38115 45.8924 51.0559 2.21547 0.03 300.444 
151 1 1 0.799936 0.463463 1.62915 0 0 0 2.13858 -0.0439656 0.0596794 4.19018 -0.943792 1.05324 -3.27484 56.1185 0.773396 0.03 302.005 
134 1 1 0.459651 0.484011 1.63014 0 0 0 1.01871 -0.549569 0.691228 -0.0606101 -0.261532 3.92034 31.3614 53.908 -18.6144 0.03 300.514 
149 1 1 0.671417 0.496493 1.63102 0 0 0 1.64033 -0.132123 -0.468837 0 0 -2.77371 44.1506 -70.8568 -8.67668 0.03 300.061 
93 1 1 0.227651 0.542277 1.64515 0 0 0 -0.0613205 1.00533 1.29909 0 0 -2.77371 -31.8754 6.51144 -11.2183 0.03 300.067 
17 1 1 0.375147 0.53949 1.62545 0 0 0 1.05753 1.14471 0.185999 -14.1076 6.67184 18.9286 -38.9209 43.4749 -9.56493 0.03 300.16 
9 1 1 0.72965 0.536202 1.62521 0 0 0 1.50513 0.00898434 0.0642174 0 0 -2.77371 3.31101 87.4097 1.78286 0.03 302.799 
157 1 1 0.94106 0.540158 1.62906 0 0 0 2.17308 -0.0957361 -0.0780773 0.58464 -4.10573 1.77539 -2.65078 63.0271 26.434 0.03 301.059 
83 1 1 0.849768 0.591344 1.6173 0 0 0 2.1622 0.556109 -0.227445 2.90346 0.552227 4.38407 -13.1147 90.126 22.8755 0.03 300.575 
129 1 1 0.148989 0.593106 1.61052 0 0 0 -0.375689 0.557265 -1.32282 0 0 -2.77371 -29.0929 -58.6029 2.438 0.03 300.003 
78 1 1 0.53774 0.119292 1.64399 0 0 0 2.01164 0.386365 -0.344073 0 0 -2.77371 -0.190029 5.43836 67.3682 0.03 306.164 
76 1 1 0.322862 0.158541 1.65443 0 0 0 0.614907 -0.435241 0.352688 10.6317 17.8742 22.6273 5.53945 92.4549 -30.8595 0.03 300.993 
115 1 1 0.365875 0.213322 1.63105 0 0 0 -0.344225 -1.15477 -0.72325 0 0 -2.77371 18.3708 47.2182 32.6547 0.03 300.237 
46 1 1 0.805894 0.261429 1.66568 0 0 0 1.53927 -0.134464 -0.193006 0 0 -2.77371 -5.12514 35.8324 -23.9419 0.03 300.627 
43 1 1 0.46764 0.268837 1.6599 0 0 0 0.758347 -0.0697049 0.198678 1.20207 6.50318 -0.905984 15.9988 -45.2507 -16.1923 0.03 300.024 
155 1 1 0.719952 0.282262 1.63713 0 0 0 1.46598 -0.126656 -0.126546 0 0 -2.77371 13.581 39.4484 8.32238 0.03 300.777 
95 1 1 0.361919 0.303073 1.62669 0 0 0 0.248179 -0.326101 -1.03547 0 0 -2.77371 4.59582 -8.41232 -0.370717 0.03 300.015 
25 1 1 0.284495 0.368689 1.65948 0 0 0 0.0981006 0.507862 -0.363527 0 0 -2.77371 -37.8989 -20.6491 13.0155 0.03 300.003 
123 1 1 0.492033 0.368478 1.63111 0 0 0 0.653216 0.462989 -1.959 12.8193 -12.0731 -0.167515 -15.5016 14.7589 3.98495 0.03 300.003 
159 1 1 0.792697 0.366629 1.63423 0 0 0 1.6598 0.148172 -0.525389 0 0 -2.77371 2.22869 18.5057 10.8169 0.03 300.116 
33 1 1 0.0593439 0.377718 1.65938 0 0 0 -0.520823 0.152245 -0.493698 0 0 -2.77371 -2.07184 -101.961 0.517279 0.03 300.008 
116 1 1 0.1351 0.408173 1.64415 0 0 0 -0.412873 0.0807791 -1.78333 0 0 -2.77371 -43.6618 2.37252 -12.3792 0.03 300 
128 1 1 0.362477 0.419179 1.65921 0 0 0 0.355249 -0.304398 -0.862592 -2.51574 -73.2212 -26.7133 -21.6357 -14.7126 -7.12527 0.03 300.012 
37 1 1 0.453772 0.410154 1.6493 0 0 0 1.25387 -0.171453 -0.117727 -12.6666 9.24365 -8.56283 -76.7823 -43.3503 35.1217 0.03 300.027 
98 1 1 0.505471 0.442225 1.63965 0 0 0 1.15875 0.591512 -1.94869 0 0 -2.77371 -23.2556 61.686 -7.61174 0.03 300 
20 1 1 0.633637 0.447952 1.6446 0 0 0 1.49831 0.358899 -0.146545 0 0 -2.77371 -2.72081 44.157 3.87531 0.03 300.802 
72 1 1 0.10161 0.511094 1.6362 0 0 0 0 0 -3.01031 0 0 -2.77371 0 0 0 0.03 300 
138 1 1 0.330458 0.494928 1.66547 0 0 0 1.10041 1.30342 0.400163 -3.1284 5.40987 -2.62171 -14.1151 -21.5288 14.854 0.03 300.021 
130 1 1 0.763349 0.499345 1.66071 0 0 0 1.80348 -0.0462708 -0.121041 0 0 -2.77371 4.86566 -72.3032 1.31191 0.03 300.083 
89 1 1 0.294344 0.537885 1.64477 0 0 0 0.541677 1.1183 0.184831 3.1284 -5.40987 -2.92572 0.572424 28.1574 0.603214 0.03 300.319 
75 1 1 0.515492 0.556575 1.63763 0 0 0 0.742471 0.236157 0.0212927 0 0 -2.77371 -12.9415 -29.525 -4.51365 0.03 300.244 
105 1 1 0.612703 0.558921 1.64357 0 0 0 1.42317 0.133131 -0.0744448 0 0 -2.77371 -2.4142 50.7495 -4.88618 0.03 301.947 
18 1 1 0.652762 0.617374 1.64517 0 0 0 1.46833 0.0190496 -0.637402 0 0 -2.77371 13.2165 -18.2855 18.0576 0.03 300.522 
79 1 1 0.503863 0.641592 1.65032 0 0 0 1.38945 -0.00925274 0.26807 7.23465 -6.86398 -7.48062 -8.40848 5.12976 -22.7662 0.03 303.503 
137 1 1 0.225093 0.0758483 1.6934 0 0 0 -0.146109 -0.9081 -0.165172 0 0 -2.77371 4.66535 -5.21465 6.06554 0.03 300.041 
49 1 1 0.381563 0.0958044 1.6738 0 0 0 1.35615 0.0105398 0.179777 0 0 -2.77371 4.04458 -55.5287 35.5096 0.03 304.06 
62 1 1 0.315037 0.218426 1.69471 0 0 0 -0.246865 -0.801412 0.485444 0 0 -2.77371 -38.0429 -80.3712 -21.4572 0.03 300.002 
40 1 1 0.415583 0.233893 1.66626 0 0 0 -0.00848533 -0.652893 -0.830887 0 0 -2.77371 -4.24348 3.17458 22.6732 0.03 300.002 
127 1 1 0.427987 0.329367 1.66645 0 0 0 0.180661 0.216329 -1.02403 0 0 -2.77371 -0.430462 -8.70226 -10.029 0.03 300.024 
84 1 1 0.225874 0.4001 1.67986 0 0 0 -0.471852 0.0947472 0.206968 -8.75812 6.55521 29.8187 28.3226 -35.0251 5.83844 0.03 300.001 
55 1 1 0.205791 0.457468 1.68466 0 0 0 0.294324 0.215591 -0.500035 2.5707 -0.336285 7.8821 1.78627 -15.5124 1.99004 0.03 300.003 
48 1 1 0.17066 0.517967 1.6775 0 0 0 0 0 -2.87258 0 0 -2.77371 0 0 0 0.03 300 
27 1 1 0.397974 0.64444 1.67754 0 0 0 0.355931 1.31552 -0.100981 0 0 -2.77371 10.1448 28.8624 -6.38496 0.03 300.215 
99 1 1 0.458311 0.666974 1.67908 0 0 0 1.56704 0.0290748 0.194206 -6.06541 8.54289 0.303534 0.338472 -30.4655 -56.5233 0.03 303.554 
2 1 1 0.579216 0.673142 1.68784 0 0 0 1.39855 -0.230107 -0.567609 0 0 -2.77371 -0.362886 -98.9603 -24.45 0.03 303.348 
156 1 1 0.65406 0.668919 1.67858 0 0 0 1.40558 -0.107503 -0.0493363 0 0 -2.77371 2.69791 -64.8353 -57.7319 0.03 317.416 
165 1 1 0.627198 0.0791333 1.70727 0 0 0 2.05854 -0.226803 0.185044 0 0 -2.77371 27.2418 -26.0046 66.2142 0.03 303.532 
31 1 1 0.221691 0.336081 1.69523 0 0 0 0 0 -2.81137 0 0 -2.77371 0 0 0 0.03 300 
68 1 1 0.386896 0.328551 1.71508 0 0 0 -0.33973 0.0943932 -1.27728 0 0 -2.77371 -1.31026 -9.7891 0.421082 0.03 300 
136 1 1 0.374146 0.457907 1.69819 0 0 0 0.191748 0.731098 -1.40905 36.6568 60.1436 78.0392 -32.4548 13.1584 -2.1122 0.03 300 
57 1 1 0.315329 0.626842 1.71996 0 0 0 0.357956 0.421489 0.0264632 0 0 -2.77371 -37.0233 53.9428 43.6927 0.03 300.178 
22 1 1 0.254767 0.230824 1.7188 0 0 0 0 0 -2.72788 0 0 -2.77371 0 0 0 0.03 300 
73 1 1 0.170916 0.265084 1.7284 0 0 0 0 0 -2.69316 0 0 -2.77371 0 0 0 0.03 300 
171 1 1 0.477654 0.251099 1.71705 0 0 0 0 0 -2.73416 0 0 -2.77371 0 0 0 0.03 300 
110 1 1 0.10205 0.273683 1.72592 0 0 0 0 0 -2.70218 0 0 -2.77371 0 0 0 0.03 300 
107 1 1 0.303471 0.271065 1.74224 0 0 0 0 0 -2.64224 0 0 -2.77371 0 0 0 0.03 300 
148 1 1 0.12082 0.460146 1.71628 0 0 0 0 0 -2.73691 0 0 -2.77371 0 0 0 0.03 300 
65 1 1 0.421483 0.499457 1.72307 0 0 0 0 0 -2.71248 0 0 -2.77371 0 0 0 0.03 300 
150 1 1 0.481625 0.503918 1.7356 0 0 0 0 0 -2.66677 0 0 -2.77371 0 0 0 0.03 300 
164 1 1 0.244978 0.28843 1.77185 0 0 0 0 0 -2.52992 0 0 -2.77371 0 0 0 0.03 300 
70 1 1 0.142707 0.355749 1.75595 0 0 0 0 0 -2.59084 0 0 -2.77371 0 0 0 0.03 300 
53 1 1 0.294932 0.364362 1.76894 0 0 0 0 0 -2.5412 0 0 -2.77371 0 0 0 0.03 300 
102 1 1 0.419044 0.351535 1.78381 0 0 0 0 0 -2.48312 0 0 -2.77371 0 0 0 0.03 300 
176 1 1 0.349719 0.399621 1.78244 0 0 0 0 0 -2.48852 0 0 -2.77371 0 0 0 0.03 300 
153 1 1 0.496538 0.392613 1.76286 0 0 0 0 0 -2.56455 0 0 -2.77371 0 0 0 0.03 300 
6 1 1 0.317689 0.454971 1.77501 0 0 0 0 0 -2.51766 0 0 -2.77371 0 0 0 0.03 300 
147 1 1 0.248507 0.49546 1.78609 0 0 0 0 0 -2.4741 0 0 -2.77371 0 0 0 0.03 300 
52 1 1 0.358392 0.516981 1.78552 0 0 0 0 0 -2.47636 0 0 -2.77371 0 0 0 0.03 300 
281 1 1 0.411814 0.252027 1.80363 0 0 0 0 0 -2.40357 0 0 -2.77371 0 0 0 0.03 300 
225 1 1 0.490773 0.317233 1.81867 0 0 0 0 0 -2.34137 0 0 -2.77371 0 0 0 0.03 300 
326 1 1 0.187055 0.479944 1.79239 0 0 0 0 0 -2.44899 0 0 -2.77371 0 0 0 0.03 300 
333 1 1 0.346739 0.243699 1.83215 0 0 0 0 0 -2.28418 0 0 -2.77371 0 0 0 0.03 300 
289 1 1 0.101436 0.395361 1.83497 0 0 0 0 0 -2.27201 0 0 -2.77371 0 0 0 0.03 300 
339 1 1 0.110214 0.298119 1.86682 0 0 0 0 0 -2.13006 0 0 -2.77371 0 0 0 0.03 300 
181 1 1 0.375154 0.318829 1.87286 0 0 0 0 0 -2.1021 0 0 -2.77371 0 0 0 0.03 300 
296 1 1 0.486808 0.439095 1.8951 0 0 0 0 0 -1.99557 0 0 -2.77371 0 0 0 0.03 300 
227 1 1 0.405439 0.458732 1.89606 0 0 0 0 0 -1.99086 0 0 -2.77371 0 0 0 0.03 300 
304 1 1 0.124838 0.500222 1.88257 0 0 0 0 0 -2.05629 0 0 -2.77371 0 0 0 0.03 300 
243 1 1 0.453661 0.506792 1.88184 0 0 0 0 0 -2.05973 0 0 -2.77371 0 0 0 0.03 300 
307 1 1 0.30626 0.26717 1.9128 0 0 0 0 0 -1.90659 0 0 -2.77371 0 0 0 0.03 300 
300 1 1 0.170925 0.32143 1.91444 0 0 0 0 0 -1.89815 0 0 -2.77371 0 0 0 0.03 300 
180 1 1 0.296048 0.338714 1.91106 0 0 0 0 0 -1.91552 0 0 -2.77371 0 0 0 0.03 300 
190 1 1 0.226585 0.401613 1.90422 0 0 0 0 0 -1.95025 0 0 -2.77371 0 0 0 0.03 300 
249 1 1 0.173789 0.449512 1.92605 0 0 0 0 0 -1.83714 0 0 -2.77371 0 0 0 0.03 300 
288 1 1 0.209802 0.229296 1.9557 0 0 0 0 0 -1.67135 0 0 -2.77371 0 0 0 0.03 300 
213 1 1 0.125891 0.243147 1.96652 0 0 0 0 0 -1.6066 0 0 -2.77371 0 0 0 0.03 300 
221 1 1 0.425449 0.24778 1.94622 0 0 0 0 0 -1.72609 0 0 -2.77371 0 0 0 0.03 300 
322 1 1 0.49924 0.247443 1.96724 0 0 0 0 0 -1.60219 0 0 -2.77371 0 0 0 0.03 300 
340 1 1 0.235778 0.333975 1.94186 0 0 0 0 0 -1.75071 0 0 -2.77371 0 0 0 0.03 300 
187 1 1 0.476873 0.306542 1.94518 0 0 0 0 0 -1.73197 0 0 -2.77371 0 0 0 0.03 300 
268 1 1 0.442536 0.376191 1.9395 0 0 0 0 0 -1.76386 0 0 -2.77371 0 0 0 0.03 300 
291 1 1 0.499679 0.383275 1.97009 0 0 0 0 0 -1.58463 0 0 -2.77371 0 0 0 0.03 300 
301 1 1 0.196268 0.514676 1.93666 0 0 0 0 0 -1.77955 0 0 -2.77371 0 0 0 0.03 300 
276 1 1 0.289349 0.515799 1.94725 0 0 0 0 0 -1.7202 0 0 -2.77371 0 0 0 0.03 300 
196 1 1 0.358915 0.233995 1.9996 0 0 0 0 0 -1.39 0 0 -2.77371 0 0 0 0.03 300 
257 1 1 0.107883 0.30308 1.98114 0 0 0 0 0 -1.51468 0 0 -2.77371 0 0 0 0.03 300 
230 1 1 0.257855 0.281878 1.9802 0 0 0 0 0 -1.52076 0 0 -2.77371 0 0 0 0.03 300 
245 1 1 0.160535 0.375989 2.00003 0 0 0 0 0 -1.38696 0 0 -2.77371 0 0 0 0.03 300 
254 1 1 0.380252 0.376413 2.00733 0 0 0 0 0 -1.33428 0 0 -2.77371 0 0 0 0.03 300 
178 1 1 0.318639 0.427051 1.9843 0 0 0 0 0 -1.49408 0 0 -2.77371 0 0 0 0.03 300 
352 1 1 0.377854 0.441153 1.99639 0 0 0 0 0 -1.41246 0 0 -2.77371 0 0 0 0.03 300 
246 1 1 0.107302 0.455042 1.97437 0 0 0 0 0 -1.55794 0 0 -2.77371 0 0 0 0.03 300 
226 1 1 0.253931 0.465065 1.97654 0 0 0 0 0 -1.54421 0 0 -2.77371 0 0 0 0.03 300 
265 1 1 0.446064 0.454668 1.9953 0 0 0 0 0 -1.42002 0 0 -2.77371 0 0 0 0.03 300 
224 1 1 0.391331 0.524514 1.97827 0 0 0 0 0 -1.53312 0 0 -2.77371 0 0 0 0.03 300 
317 1 1 0.252263 0.228507 2.03857 0 0 0 0 0 -1.08049 0 0 -2.77371 0 0 0 0.03 300 
252 1 1 0.442785 0.262265 2.04033 0 0 0 0 0 -1.0644 0 0 -2.77371 0 0 0 0.03 300 
248 1 1 0.155073 0.291265 2.03153 0 0 0 0 0 -1.14269 0 0 -2.77371 0 0 0 0.03 300 
209 1 1 0.352404 0.322469 2.01838 0 0 0 0 0 -1.2504 0 0 -2.77371 0 0 0 0.03 300 
313 1 1 0.439938 0.327558 2.02657 0 0 0 0 0 -1.18448 0 0 -2.77371 0 0 0 0.03 300 
204 1 1 0.215487 0.347963 2.03613 0 0 0 0 0 -1.10237 0 0 -2.77371 0 0 0 0.03 300 
346 1 1 0.2812 0.398881 2.03401 0 0 0 0 0 -1.1211 0 0 -2.77371 0 0 0 0.03 300 
335 1 1 0.429091 0.407041 2.03687 0 0 0 0 0 -1.09579 0 0 -2.77371 0 0 0 0.03 300 
270 1 1 0.207615 0.426676 2.01509 0 0 0 0 0 -1.276 0 0 -2.77371 0 0 0 0.03 300 
279 1 1 0.157212 0.495968 2.02569 0 0 0 0 0 -1.19174 0 0 -2.77371 0 0 0 0.03 300 
217 1 1 0.461801 0.523439 2.0365 0 0 0 0 0 -1.09913 0 0 -2.77371 0 0 0 0.03 300 
351 1 1 0.181906 0.258163 2.07663 0 0 0 -0 -0 -1 0 0 0 0 0 0 0.03 300 
305 1 1 0.346674 0.257421 2.0622 0 0 0 -0 -0 -1 0 0 0 0 0 0 0.03 300 
193 1 1 0.281872 0.329623 2.05076 0 0 0 -0 -0 -1 0 0 0 0 0 0 0.03 300 
233 1 1 0.496558 0.3336 2.06785 0 0 0 -0 -0 -1 0 0 0 0 0 0 0.03 300 
298 1 1 0.133415 0.358363 2.0802 0 0 0 -0 -0 -1 0 0 0 0 0 0 0.03 300 
272 1 1 0.116473 0.427779 2.05318 0 0 0 -0 -0 -1 0 0 0 0 0 0 0.03 300 
237 1 1 0.207046 0.471117 2.06263 0 0 0 -0 -0 -1 0 0 0 0 0 0 0.03 300 
262 1 1 0.417911 0.469013 2.0621 0 0 0 -0 -0 -1 0 0 0 0 0 0 0.03 300 
239 1 1 0.490736 0.457949 2.04796 0 0 0 -0 -0 -1 0 0 0 0 0 0 0.03 300 
303 1 1 0.114998 0.510423 2.07123 0 0 0 -0 -0 -1 0 0 0 0 0 0 0.03 300 
263 1 1 0.269308 0.500141 2.06382 0 0 0 -0 -0 -1 0 0 0 0 0 0 0.03 300 
201 1 1 0.360389 0.493184 2.0474 0 0 0 -0 -0 -1 0 0 0 0 0 0 0.03 300 
283 1 1 0.300071 0.232043 2.10541 0 0 0 -0 -0 -1 0 0 0 0 0 0 0.03 300 
332 1 1 0.233113 0.233231 2.09729 0 0 0 -0 -0 -1 0 0 0 0 0 0 0.03 300 
319 1 1 0.490886 0.237209 2.0835 0 0 0 -0 -0 -1 0 0 0 0 0 0 0.03 300 
206 1 1 0.126939 0.284236 2.09405 0 0 0 -0 -0 -1 0 0 0 0 0 0 0.03 300 
194 1 1 0.257372 0.298287 2.09748 0 0 0 -0 -0 -1 0 0 0 0 0 0 0.03 300 
231 1 1 0.39189 0.276895 2.09772 0 0 0 -0 -0 -1 0 0 0 0 0 0 0.03 300 
338 1 1 0.455834 0.299724 2.10811 0 0 0 -0 -0 -1 0 0 0 0 0 0 0.03 300 
347 1 1 0.332014 0.322805 2.09638 0 0 0 -0 -0 -1 0 0 0 0 0 0 0.03 300 
331 1 1 0.280682 0.358343 2.109 0 0 0 -0 -0 -1 0 0 0 0 0 0 0.03 300 
216 1 1 0.415188 0.353574 2.10582 0 0 0 -0 -0 -1 0 0 0 0 0 0 0.03 300 
285 1 1 0.200673 0.388027 2.11116 0 0 0 -0 -0 -1 0 0 0 0 0 0 0.03 300 
341 1 1 0.462863 0.403415 2.08862 0 0 0 -0 -0 -1 0 0 0 0 0 0 0.03 300 
208 1 1 0.292126 0.417938 2.09843 0 0 0 -0 -0 -1 0 0 0 0 0 0 0.03 300 
334 1 1 0.38649 0.410383 2.08433 0 0 0 -0 -0 -1 0 0 0 0 0 0 0.03 300 
325 1 1 0.454753 0.482086 2.1102 0 0 0 -0 -0 -1 0 0 0 0 0 0 0.03 300 
185 1 1 0.176568 0.243013 2.13859 0 0 0 -0 -0 -1 0 0 0 0 0 0 0.03 300 
183 1 1 0.442411 0.236129 2.14849 0 0 0 -0 -0 -1 0 0 0 0 0 0 0.03 300 
197 1 1 0.187467 0.323213 2.11686 0 0 0 -0 -0 -1 0 0 0 0 0 0 0.03 300 
295 1 1 0.361284 0.371846 2.1254 0 0 0 -0 -0 -1 0 0 0 0 0 0 0.03 300 
308 1 1 0.14362 0.411827 2.12042 0 0 0 -0 -0 -1 0 0 0 0 0 0 0.03 300 
220 1 1 0.335967 0.444883 2.13458 0 0 0 -0 -0 -1 0 0 0 0 0 0 0.03 300 
198 1 1 0.400177 0.437787 2.1376 0 0 0 -0 -0 -1 0 0 0 0 0 0 0.03 300 
255 1 1 0.114307 0.478097 2.12805 0 0 0 -0 -0 -1 0 0 0 0 0 0 0.03 300 
182 1 1 0.244578 0.471314 2.14452 0 0 0 -0 -0 -1 0 0 0 0 0 0 0.03 300 
238 1 1 0.178751 0.5056 2.1401 0 0 0 -0 -0 -1 0 0 0 0 0 0 0.03 300 
271 1 1 0.316171 0.515613 2.11673 0 0 0 -0 -0 -1 0 0 0 0 0 0 0.03 300 
186 1 1 0.259533 0.258075 2.15734 0 0 0 -0 -0 -1 0 0 0 0 0 0 0.03 300 
258 1 1 0.122106 0.287147 2.18085 0 0 0 -0 -0 -1 0 0 0 0 0 0 0.03 300 
284 1 1 0.192412 0.289106 2.17388 0 0 0 -0 -0 -1 0 0 0 0 0 0 0.03 300 
240 1 1 0.373873 0.277789 2.15961 0 0 0 -0 -0 -1 0 0 0 0 0 0 0.03 300 
282 1 1 0.474016 0.292718 2.17895 0 0 0 -0 -0 -1 0 0 0 0 0 0 0.03 300 
250 1 1 0.309313 0.331656 2.15448 0 0 0 -0 -0 -1 0 0 0 0 0 0 0.03 300 
212 1 1 0.417494 0.317622 2.18353 0 0 0 -0 -0 -1 0 0 0 0 0 0 0.03 300 
316 1 1 0.11734 0.353945 2.15534 0 0 0 -0 -0 -1 0 0 0 0 0 0 0.03 300 
259 1 1 0.22228 0.356059 2.17403 0 0 0 -0 -0 -1 0 0 0 0 0 0 0.03 300 
277 1 1 0.255485 0.407729 2.17471 0 0 0 -0 -0 -1 0 0 0 0 0 0 0.03 300 
274 1 1 0.492828 0.422942 2.16588 0 0 0 -0 -0 -1 0 0 0 0 0 0 0.03 300 
192 1 1 0.365388 0.511304 2.17856 0 0 0 -0 -0 -1 0 0 0 0 0 0 0.03 300 
290 1 1 0.276688 0.526521 2.18397 0 0 0 -0 -0 -1 0 0 0 0 0 0 0.03 300 
343 1 1 0.15665 0.233052 2.21364 0 0 0 -0 -0 -1 0 0 0 0 0 0 0.03 300 
349 1 1 0.365686 0.235664 2.21936 0 0 0 -0 -0 -1 0 0 0 0 0 0 0.03 300 
253 1 1 0.245744 0.294067 2.2046 0 0 0 -0 -0 -1 0 0 0 0 0 0 0.03 300 
324 1 1 0.115625 0.334079 2.22008 0 0 0 -0 -0 -1 0 0 0 0 0 0 0.03 300 
211 1 1 0.342022 0.308301 2.21941 0 0 0 -0 -0 -1 0 0 0 0 0 0 0.03 300 
309 1 1 0.164495 0.407825 2.18668 0 0 0 -0 -0 -1 0 0 0 0 0 0 0.03 300 
234 1 1 0.396246 0.377563 2.19259 0 0 0 -0 -0 -1 0 0 0 0 0 0 0.03 300 
318 1 1 0.359003 0.427078 2.19033 0 0 0 -0 -0 -1 0 0 0 0 0 0 0.03 300 