ITEM: TIMESTEP
17000
ITEM: NUMBER OF ATOMS
176
ITEM: BOX BOUNDS ff ff ff
0 3.3
-0.3 0.8
-0.5 3
ITEM: ATOMS id type type x y z ix iy iz vx vy vz fx fy fz omegax omegay omegaz radius f_Temp[0] 
142 1 1 0.271856 0.292457 1.82391 0 0 0 0 0 -2.3193 0 0 -2.77371 0 0 0 0.03 300 
124 1 1 0.108395 0.326026 1.82235 0 0 0 0 0 -2.32587 0 0 -2.77371 0 0 0 0.03 300 
86 1 1 0.19434 0.331338 1.81823 0 0 0 0 0 -2.34323 0 0 -2.77371 0 0 0 0.03 300 
82 1 1 0.468787 0.384733 1.82454 0 0 0 0 0 -2.31665 0 0 -2.77371 0 0 0 0.03 300 
140 1 1 0.46939 0.484878 1.81274 0 0 0 0 0 -2.36609 0 0 -2.77371 0 0 0 0.03 300 
113 1 1 0.369388 0.526215 1.81307 0 0 0 0 0 -2.36472 0 0 -2.77371 0 0 0 0.03 300 
108 1 1 0.171365 0.231672 1.85907 0 0 0 0 0 -2.16548 0 0 -2.77371 0 0 0 0.03 300 
41 1 1 0.102233 0.267031 1.8509 0 0 0 0 0 -2.20217 0 0 -2.77371 0 0 0 0.03 300 
67 1 1 0.351021 0.24345 1.82816 0 0 0 0 0 -2.30125 0 0 -2.77371 0 0 0 0.03 300 
133 1 1 0.471209 0.311123 1.8425 0 0 0 0 0 -2.23925 0 0 -2.77371 0 0 0 0.03 300 
23 1 1 0.298609 0.364728 1.83176 0 0 0 0 0 -2.28585 0 0 -2.77371 0 0 0 0.03 300 
96 1 1 0.363069 0.380034 1.8467 0 0 0 0 0 -2.22081 0 0 -2.77371 0 0 0 0.03 300 
10 1 1 0.242338 0.433913 1.85581 0 0 0 0 0 -2.18019 0 0 -2.77371 0 0 0 0.03 300 
14 1 1 0.416144 0.265826 1.89087 0 0 0 0 0 -2.01627 0 0 -2.77371 0 0 0 0.03 300 
8 1 1 0.355542 0.30862 1.86601 0 0 0 0 0 -2.13379 0 0 -2.77371 0 0 0 0.03 300 
163 1 1 0.105414 0.438662 1.88576 0 0 0 0 0 -2.04099 0 0 -2.77371 0 0 0 0.03 300 
30 1 1 0.179788 0.4242 1.87601 0 0 0 0 0 -2.08729 0 0 -2.77371 0 0 0 0.03 300 
32 1 1 0.353388 0.44487 1.87087 0 0 0 0 0 -2.11133 0 0 -2.77371 0 0 0 0.03 300 
54 1 1 0.278399 0.490166 1.86659 0 0 0 0 0 -2.13114 0 0 -2.77371 0 0 0 0.03 300 
122 1 1 0.225457 0.365207 1.9214 0 0 0 0 0 -1.86186 0 0 -2.77371 0 0 0 0.03 300 
100 1 1 0.448041 0.468779 1.927 0 0 0 0 0 -1.83204 0 0 -2.77371 0 0 0 0.03 300 
63 1 1 0.14636 0.503077 1.92366 0 0 0 0 0 -1.84989 0 0 -2.77371 0 0 0 0.03 300 
103 1 1 0.209546 0.484752 1.90204 0 0 0 0 0 -1.96113 0 0 -2.77371 0 0 0 0.03 300 
120 1 1 0.108446 0.229956 1.96 0 0 0 0 0 -1.64594 0 0 -2.77371 0 0 0 0.03 300 
47 1 1 0.261488 0.255288 1.94426 0 0 0 0 0 -1.73717 0 0 -2.77371 0 0 0 0.03 300 
112 1 1 0.200031 0.295208 1.96139 0 0 0 0 0 -1.6376 0 0 -2.77371 0 0 0 0.03 300 
60 1 1 0.321495 0.290282 1.9691 0 0 0 0 0 -1.59071 0 0 -2.77371 0 0 0 0.03 300 
45 1 1 0.40205 0.339714 1.93588 0 0 0 0 0 -1.78387 0 0 -2.77371 0 0 0 0.03 300 
174 1 1 0.478905 0.416329 1.94318 0 0 0 0 0 -1.74325 0 0 -2.77371 0 0 0 0.03 300 
172 1 1 0.339305 0.526873 1.9567 0 0 0 0 0 -1.66546 0 0 -2.77371 0 0 0 0.03 300 
162 1 1 0.428387 0.521279 1.96796 0 0 0 0 0 -1.59777 0 0 -2.77371 0 0 0 0.03 300 
85 1 1 0.47306 0.247248 1.97595 0 0 0 0 0 -1.54794 0 0 -2.77371 0 0 0 0.03 300 
87 1 1 0.377721 0.27376 1.99571 0 0 0 0 0 -1.41717 0 0 -2.77371 0 0 0 0.03 300 
64 1 1 0.141892 0.342884 1.9734 0 0 0 0 0 -1.56403 0 0 -2.77371 0 0 0 0.03 300 
131 1 1 0.248477 0.419376 1.98824 0 0 0 0 0 -1.46799 0 0 -2.77371 0 0 0 0.03 300 
79 1 1 0.320497 0.448247 1.97272 0 0 0 0 0 -1.56824 0 0 -2.77371 0 0 0 0.03 300 
39 1 1 0.380355 0.466663 1.97469 0 0 0 0 0 -1.55588 0 0 -2.77371 0 0 0 0.03 300 
78 1 1 0.178322 0.227864 2.02251 0 0 0 0 0 -1.21763 0 0 -2.77371 0 0 0 0.03 300 
13 1 1 0.121033 0.279919 2.01025 0 0 0 0 0 -1.31269 0 0 -2.77371 0 0 0 0.03 300 
46 1 1 0.47999 0.300848 2.03612 0 0 0 0 0 -1.10256 0 0 -2.77371 0 0 0 0.03 300 
59 1 1 0.253616 0.343212 2.01315 0 0 0 0 0 -1.29082 0 0 -2.77371 0 0 0 0.03 300 
29 1 1 0.368876 0.379155 2.03208 0 0 0 0 0 -1.13788 0 0 -2.77371 0 0 0 0.03 300 
36 1 1 0.450724 0.395688 2.02978 0 0 0 0 0 -1.1575 0 0 -2.77371 0 0 0 0.03 300 
167 1 1 0.400748 0.432213 2.04519 0 0 0 0 0 -1.01869 0 0 -2.77371 0 0 0 0.03 300 
66 1 1 0.47867 0.463 2.0395 0 0 0 0 0 -1.07205 0 0 -2.77371 0 0 0 0.03 300 
152 1 1 0.163069 0.521312 2.02231 0 0 0 0 0 -1.2192 0 0 -2.77371 0 0 0 0.03 300 
109 1 1 0.275498 0.521202 2.01562 0 0 0 0 0 -1.27198 0 0 -2.77371 0 0 0 0.03 300 
168 1 1 0.476176 0.52212 2.0271 0 0 0 0 0 -1.18006 0 0 -2.77371 0 0 0 0.03 300 
49 1 1 0.281286 0.254094 2.06587 0 0 0 -0 -0 -1 0 0 0 0 0 0 0.03 300 
155 1 1 0.415544 0.252674 2.06662 0 0 0 -0 -0 -1 0 0 0 0 0 0 0.03 300 
101 1 1 0.162335 0.320161 2.0722 0 0 0 -0 -0 -1 0 0 0 0 0 0 0.03 300 
91 1 1 0.235855 0.316318 2.07734 0 0 0 -0 -0 -1 0 0 0 0 0 0 0.03 300 
173 1 1 0.336956 0.309745 2.05226 0 0 0 -0 -0 -1 0 0 0 0 0 0 0.03 300 
42 1 1 0.226232 0.388276 2.06692 0 0 0 -0 -0 -1 0 0 0 0 0 0 0.03 300 
69 1 1 0.10427 0.421706 2.05546 0 0 0 -0 -0 -1 0 0 0 0 0 0 0.03 300 
145 1 1 0.320399 0.410893 2.05247 0 0 0 -0 -0 -1 0 0 0 0 0 0 0.03 300 
121 1 1 0.170319 0.453329 2.0549 0 0 0 -0 -0 -1 0 0 0 0 0 0 0.03 300 
99 1 1 0.274564 0.455213 2.06452 0 0 0 -0 -0 -1 0 0 0 0 0 0 0.03 300 
18 1 1 0.427577 0.512648 2.06763 0 0 0 -0 -0 -1 0 0 0 0 0 0 0.03 300 
118 1 1 0.120657 0.516447 2.07978 0 0 0 -0 -0 -1 0 0 0 0 0 0 0.03 300 
156 1 1 0.35506 0.52072 2.06226 0 0 0 -0 -0 -1 0 0 0 0 0 0 0.03 300 
58 1 1 0.112056 0.26459 2.08511 0 0 0 -0 -0 -1 0 0 0 0 0 0 0.03 300 
15 1 1 0.188775 0.261917 2.11056 0 0 0 -0 -0 -1 0 0 0 0 0 0 0.03 300 
80 1 1 0.478513 0.241448 2.10413 0 0 0 -0 -0 -1 0 0 0 0 0 0 0.03 300 
81 1 1 0.388958 0.319017 2.08434 0 0 0 -0 -0 -1 0 0 0 0 0 0 0.03 300 
143 1 1 0.326798 0.368865 2.10847 0 0 0 -0 -0 -1 0 0 0 0 0 0 0.03 300 
130 1 1 0.385847 0.398302 2.09535 0 0 0 -0 -0 -1 0 0 0 0 0 0 0.03 300 
92 1 1 0.481853 0.374694 2.08939 0 0 0 -0 -0 -1 0 0 0 0 0 0 0.03 300 
135 1 1 0.110104 0.424702 2.11578 0 0 0 -0 -0 -1 0 0 0 0 0 0 0.03 300 
61 1 1 0.174746 0.456274 2.11564 0 0 0 -0 -0 -1 0 0 0 0 0 0 0.03 300 
105 1 1 0.377689 0.467755 2.08796 0 0 0 -0 -0 -1 0 0 0 0 0 0 0.03 300 
117 1 1 0.191604 0.522741 2.10687 0 0 0 -0 -0 -1 0 0 0 0 0 0 0.03 300 
158 1 1 0.2596 0.52473 2.0934 0 0 0 -0 -0 -1 0 0 0 0 0 0 0.03 300 
157 1 1 0.485815 0.521722 2.09134 0 0 0 -0 -0 -1 0 0 0 0 0 0 0.03 300 
125 1 1 0.33817 0.237417 2.14459 0 0 0 -0 -0 -1 0 0 0 0 0 0 0.03 300 
76 1 1 0.262374 0.280345 2.11987 0 0 0 -0 -0 -1 0 0 0 0 0 0 0.03 300 
19 1 1 0.315839 0.298576 2.147 0 0 0 -0 -0 -1 0 0 0 0 0 0 0.03 300 
159 1 1 0.463712 0.3119 2.12984 0 0 0 -0 -0 -1 0 0 0 0 0 0 0.03 300 
3 1 1 0.103577 0.34242 2.13356 0 0 0 -0 -0 -1 0 0 0 0 0 0 0.03 300 
132 1 1 0.181507 0.370772 2.13538 0 0 0 -0 -0 -1 0 0 0 0 0 0 0.03 300 
20 1 1 0.379347 0.368828 2.14897 0 0 0 -0 -0 -1 0 0 0 0 0 0 0.03 300 
151 1 1 0.494801 0.397371 2.14852 0 0 0 -0 -0 -1 0 0 0 0 0 0 0.03 300 
50 1 1 0.301622 0.417346 2.13549 0 0 0 -0 -0 -1 0 0 0 0 0 0 0.03 300 
169 1 1 0.252456 0.475054 2.13084 0 0 0 -0 -0 -1 0 0 0 0 0 0 0.03 300 
9 1 1 0.441781 0.458388 2.11688 0 0 0 -0 -0 -1 0 0 0 0 0 0 0.03 300 
16 1 1 0.119943 0.514428 2.14329 0 0 0 -0 -0 -1 0 0 0 0 0 0 0.03 300 
83 1 1 0.499782 0.483801 2.13999 0 0 0 -0 -0 -1 0 0 0 0 0 0 0.03 300 
2 1 1 0.337972 0.524085 2.12555 0 0 0 -0 -0 -1 0 0 0 0 0 0 0.03 300 
139 1 1 0.137853 0.229319 2.16735 0 0 0 -0 -0 -1 0 0 0 0 0 0 0.03 300 
88 1 1 0.486268 0.228152 2.16553 0 0 0 -0 -0 -1 0 0 0 0 0 0 0.03 300 
7 1 1 0.417913 0.266516 2.16805 0 0 0 -0 -0 -1 0 0 0 0 0 0 0.03 300 
51 1 1 0.201805 0.313726 2.16925 0 0 0 -0 -0 -1 0 0 0 0 0 0 0.03 300 
144 1 1 0.368613 0.311971 2.18108 0 0 0 -0 -0 -1 0 0 0 0 0 0 0.03 300 
94 1 1 0.273851 0.347383 2.15506 0 0 0 -0 -0 -1 0 0 0 0 0 0 0.03 300 
56 1 1 0.445152 0.350079 2.17959 0 0 0 -0 -0 -1 0 0 0 0 0 0 0.03 300 
77 1 1 0.218563 0.442358 2.18235 0 0 0 -0 -0 -1 0 0 0 0 0 0 0.03 300 
24 1 1 0.44361 0.420007 2.18405 0 0 0 -0 -0 -1 0 0 0 0 0 0 0.03 300 
27 1 1 0.362553 0.476213 2.15257 0 0 0 -0 -0 -1 0 0 0 0 0 0 0.03 300 
57 1 1 0.255601 0.512634 2.17984 0 0 0 -0 -0 -1 0 0 0 0 0 0 0.03 300 
149 1 1 0.457968 0.50649 2.18254 0 0 0 -0 -0 -1 0 0 0 0 0 0 0.03 300 
137 1 1 0.250314 0.231914 2.19548 0 0 0 -0 -0 -1 0 0 0 0 0 0 0.03 300 
165 1 1 0.36833 0.235983 2.19656 0 0 0 -0 -0 -1 0 0 0 0 0 0 0.03 300 
12 1 1 0.150682 0.290471 2.2048 0 0 0 -0 -0 -1 0 0 0 0 0 0 0.03 300 
21 1 1 0.18594 0.400862 2.21782 0 0 0 -0 -0 -1 0 0 0 0 0 0 0.03 300 
104 1 1 0.324371 0.382136 2.1886 0 0 0 -0 -0 -1 0 0 0 0 0 0 0.03 300 
126 1 1 0.387846 0.395075 2.22081 0 0 0 -0 -0 -1 0 0 0 0 0 0 0.03 300 
34 1 1 0.161462 0.479607 2.19776 0 0 0 -0 -0 -1 0 0 0 0 0 0 0.03 300 
4 1 1 0.283869 0.446206 2.19761 0 0 0 -0 -0 -1 0 0 0 0 0 0 0.03 300 
75 1 1 0.387927 0.516304 2.19092 0 0 0 -0 -0 -1 0 0 0 0 0 0 0.03 300 
114 1 1 0.101873 0.240116 2.24116 0 0 0 -0 -0 -1 0 0 0 0 0 0 0.03 300 
115 1 1 0.29951 0.265646 2.22216 0 0 0 -0 -0 -1 0 0 0 0 0 0 0.03 300 
1 1 1 0.44893 0.24186 2.24297 0 0 0 -0 -0 -1 0 0 0 0 0 0 0.03 300 
170 1 1 0.448147 0.302404 2.22869 0 0 0 -0 -0 -1 0 0 0 0 0 0 0.03 300 
11 1 1 0.20764 0.30353 2.23911 0 0 0 -0 -0 -1 0 0 0 0 0 0 0.03 300 
33 1 1 0.10471 0.363257 2.25227 0 0 0 -0 -0 -1 0 0 0 0 0 0 0.03 300 
71 1 1 0.27192 0.349064 2.2439 0 0 0 -0 -0 -1 0 0 0 0 0 0 0.03 300 
35 1 1 0.342434 0.364463 2.25618 0 0 0 -0 -0 -1 0 0 0 0 0 0 0.03 300 
160 1 1 0.115232 0.435564 2.23022 0 0 0 -0 -0 -1 0 0 0 0 0 0 0.03 300 
154 1 1 0.211019 0.445658 2.25167 0 0 0 -0 -0 -1 0 0 0 0 0 0 0.03 300 
106 1 1 0.375691 0.47682 2.23766 0 0 0 -0 -0 -1 0 0 0 0 0 0 0.03 300 
129 1 1 0.201147 0.51232 2.23784 0 0 0 -0 -0 -1 0 0 0 0 0 0 0.03 300 
89 1 1 0.26845 0.48437 2.24991 0 0 0 -0 -0 -1 0 0 0 0 0 0 0.03 300 
26 1 1 0.474436 0.482152 2.23708 0 0 0 -0 -0 -1 0 0 0 0 0 0 0.03 300 
161 1 1 0.383875 0.233035 2.2662 0 0 0 -0 -0 -1 0 0 0 0 0 0 0.03 300 
146 1 1 0.495146 0.246598 2.28254 0 0 0 -0 -0 -1 0 0 0 0 0 0 0.03 300 
127 1 1 0.381994 0.300043 2.2708 0 0 0 -0 -0 -1 0 0 0 0 0 0 0.03 300 
44 1 1 0.485944 0.343638 2.28039 0 0 0 -0 -0 -1 0 0 0 0 0 0 0.03 300 
166 1 1 0.165431 0.374869 2.28499 0 0 0 -0 -0 -1 0 0 0 0 0 0 0.03 300 
141 1 1 0.429803 0.380165 2.27189 0 0 0 -0 -0 -1 0 0 0 0 0 0 0.03 300 
38 1 1 0.303454 0.414467 2.26292 0 0 0 -0 -0 -1 0 0 0 0 0 0 0.03 300 
111 1 1 0.473074 0.424163 2.27635 0 0 0 -0 -0 -1 0 0 0 0 0 0 0.03 300 
119 1 1 0.126835 0.482642 2.28437 0 0 0 -0 -0 -1 0 0 0 0 0 0 0.03 300 
90 1 1 0.102204 0.238351 2.31553 0 0 0 -0 -0 -1 0 0 0 0 0 0 0.03 300 
97 1 1 0.184928 0.234672 2.30277 0 0 0 -0 -0 -1 0 0 0 0 0 0 0.03 300 
74 1 1 0.248328 0.247523 2.30851 0 0 0 -0 -0 -1 0 0 0 0 0 0 0.03 300 
62 1 1 0.329189 0.252757 2.3182 0 0 0 -0 -0 -1 0 0 0 0 0 0 0.03 300 
5 1 1 0.160428 0.3182 2.30871 0 0 0 -0 -0 -1 0 0 0 0 0 0 0.03 300 
95 1 1 0.346797 0.327727 2.32259 0 0 0 -0 -0 -1 0 0 0 0 0 0 0.03 300 
175 1 1 0.230789 0.339127 2.31237 0 0 0 -0 -0 -1 0 0 0 0 0 0 0.03 300 
28 1 1 0.222318 0.404493 2.29476 0 0 0 -0 -0 -1 0 0 0 0 0 0 0.03 300 
37 1 1 0.41824 0.41741 2.32001 0 0 0 -0 -0 -1 0 0 0 0 0 0 0.03 300 
93 1 1 0.225968 0.488444 2.30161 0 0 0 -0 -0 -1 0 0 0 0 0 0 0.03 300 
17 1 1 0.345254 0.512161 2.32021 0 0 0 -0 -0 -1 0 0 0 0 0 0 0.03 300 
134 1 1 0.443832 0.509496 2.30848 0 0 0 -0 -0 -1 0 0 0 0 0 0 0.03 300 
40 1 1 0.408343 0.240904 2.3508 0 0 0 -0 -0 -1 0 0 0 0 0 0 0.03 300 
43 1 1 0.460616 0.284913 2.32675 0 0 0 -0 -0 -1 0 0 0 0 0 0 0.03 300 
68 1 1 0.400811 0.324654 2.35473 0 0 0 -0 -0 -1 0 0 0 0 0 0 0.03 300 
25 1 1 0.278223 0.363632 2.34196 0 0 0 -0 -0 -1 0 0 0 0 0 0 0.03 300 
123 1 1 0.48159 0.360101 2.34449 0 0 0 -0 -0 -1 0 0 0 0 0 0 0.03 300 
116 1 1 0.152794 0.405213 2.33527 0 0 0 -0 -0 -1 0 0 0 0 0 0 0.03 300 
128 1 1 0.355123 0.421294 2.32732 0 0 0 -0 -0 -1 0 0 0 0 0 0 0.03 300 
98 1 1 0.491139 0.43458 2.34869 0 0 0 -0 -0 -1 0 0 0 0 0 0 0.03 300 
55 1 1 0.200976 0.455034 2.35831 0 0 0 -0 -0 -1 0 0 0 0 0 0 0.03 300 
138 1 1 0.301221 0.470777 2.33913 0 0 0 -0 -0 -1 0 0 0 0 0 0 0.03 300 
72 1 1 0.10161 0.511094 2.35218 0 0 0 -0 -0 -1 0 0 0 0 0 0 0.03 300 
22 1 1 0.254767 0.230824 2.38097 0 0 0 -0 -0 -1 0 0 0 0 0 0 0.03 300 
73 1 1 0.170916 0.265084 2.38451 0 0 0 -0 -0 -1 0 0 0 0 0 0 0.03 300 
171 1 1 0.477654 0.251099 2.38033 0 0 0 -0 -0 -1 0 0 0 0 0 0 0.03 300 
110 1 1 0.10205 0.273683 2.38359 0 0 0 -0 -0 -1 0 0 0 0 0 0 0.03 300 
107 1 1 0.303471 0.271065 2.3897 0 0 0 -0 -0 -1 0 0 0 0 0 0 0.03 300 
31 1 1 0.221691 0.336081 2.37246 0 0 0 -0 -0 -1 0 0 0 0 0 0 0.03 300 
70 1 1 0.142707 0.355749 2.39494 0 0 0 -0 -0 -1 0 0 0 0 0 0 0.03 300 
84 1 1 0.227036 0.399722 2.36273 0 0 0 -0 -0 -1 0 0 0 0 0 0 0.03 300 
148 1 1 0.12082 0.460146 2.38005 0 0 0 -0 -0 -1 0 0 0 0 0 0 0.03 300 
136 1 1 0.374023 0.456818 2.37267 0 0 0 -0 -0 -1 0 0 0 0 0 0 0.03 300 
65 1 1 0.421483 0.499457 2.38254 0 0 0 -0 -0 -1 0 0 0 0 0 0 0.03 300 
150 1 1 0.481625 0.503918 2.3872 0 0 0 -0 -0 -1 0 0 0 0 0 0 0.03 300 
48 1 1 0.17066 0.517967 2.36622 0 0 0 -0 -0 -1 0 0 0 0 0 0 0.03 300 
164 1 1 0.244978 0.28843 2.40115 0 0 0 -0 -0 -1 0 0 0 0 0 0 0.03 300 
53 1 1 0.294932 0.364362 2.4 0 0 0 -0 -0 -1 0 0 0 0 0 0 0.03 300 
102 1 1 0.419044 0.351535 2.40593 0 0 0 -0 -0 -1 0 0 0 0 0 0 0.03 300 
176 1 1 0.349719 0.399621 2.40537 0 0 0 -0 -0 -1 0 0 0 0 0 0 0.03 300 
153 1 1 0.496538 0.392613 2.39762 0 0 0 -0 -0 -1 0 0 0 0 0 0 0.03 300 
6 1 1 0.317689 0.454971 2.4024 0 0 0 -0 -0 -1 0 0 0 0 0 0 0.03 300 
147 1 1 0.248507 0.49546 2.40684 0 0 0 -0 -0 -1 0 0 0 0 0 0 0.03 300 
52 1 1 0.358392 0.516981 2.40661 0 0 0 -0 -0 -1 0 0 0 0 0 0 0.03 300 
