ITEM: TIMESTEP
76000
ITEM: NUMBER OF ATOMS
353
ITEM: BOX BOUNDS ff ff ff
0 3.3
-0.3 0.8
-0.5 3
ITEM: ATOMS id type type x y z ix iy iz vx vy vz fx fy fz omegax omegay omegaz radius f_Temp[0] 
58 1 1 0.511582 0.17215 1.59125 0 0 0 1.63512 -0.224915 0.154683 -5.42779 -1.51784 -5.83058 10.7107 -82.8991 23.076 0.03 340.355 
161 1 1 0.570846 0.178674 1.59483 0 0 0 1.55436 -0.347064 -0.374868 6.75666 1.78761 0.487572 -12.5923 68.7649 -16.4549 0.03 301.471 
120 1 1 0.756616 0.18767 1.57672 0 0 0 2.20522 0.169521 0.0518107 0.92792 -0.183898 0.0155215 -5.51884 -59.1408 10.9017 0.03 345.859 
1 1 1 0.901899 0.190522 1.57662 0 0 0 2.90166 0.0679853 0.0593841 -2.50313 0.0194348 1.55814 -3.61385 -32.4948 20.2517 0.03 317.812 
47 1 1 1.14264 0.185729 1.5771 0 0 0 2.31988 -0.00658576 0.0187443 1.25002 1.74805 -0.819546 2.18123 -61.2091 10.0448 0.03 349.337 
67 1 1 1.25986 0.18807 1.57686 0 0 0 2.39556 0.0220553 -1.2008e-05 4.31106e-05 -5.92398e-07 0.000477326 -0.73819 -53.7005 18.0189 0.03 346.17 
85 1 1 1.32957 0.195386 1.57879 0 0 0 2.54513 -0.1202 0.169964 -1.01436 3.59344 0.524252 4.25712 -48.7553 15.3981 0.03 327.291 
45 1 1 1.51448 0.194306 1.57686 0 0 0 3.31511 0.117901 0.000243973 -0.000390647 6.71835e-05 -0.0206775 -3.94609 -22.9228 13.9821 0.03 340.619 
90 1 1 0.205227 0.225016 1.5796 0 0 0 1.15391 -0.202011 -0.0807132 11.4588 35.9191 -59.7536 13.6609 -85.7359 8.47542 0.03 313.994 
13 1 1 0.634868 0.218533 1.57681 0 0 0 1.63452 0.382629 -0.00997767 0.129924 -1.49817 1.28579 -12.458 -79.2708 33.2911 0.03 357.244 
108 1 1 0.961601 0.200984 1.57728 0 0 0 2.81766 0.250612 -0.162256 -8.42702 3.60171 -5.16399 1.5862 -26.8849 1.23102 0.03 360.393 
60 1 1 1.08175 0.204893 1.57686 0 0 0 2.18769 -0.106544 0.000286232 -0.00119042 -7.03235e-05 -0.0192858 3.56599 -60.6576 15.918 0.03 339.072 
142 1 1 1.19939 0.223646 1.57687 0 0 0 2.14609 -0.119171 -0.00104195 0.00776076 0.00255177 -0.00686961 3.9872 -62.0426 -8.85874 0.03 355.286 
5 1 1 0.2689 0.256082 1.57669 0 0 0 2.00365 0.11475 0.236398 2.89744 1.02356 -8.91955 -44.7528 48.7601 -3.41066 0.03 303.337 
12 1 1 0.353365 0.240747 1.57823 0 0 0 1.3837 -0.0408167 -0.271312 0 0 -2.77371 -15.8141 -68.5629 39.4913 0.03 319.344 
95 1 1 0.414115 0.256025 1.59737 0 0 0 1.39947 -0.415889 -0.296352 -0.047009 -0.0213019 -2.56876 15.5406 72.0335 6.35775 0.03 300.419 
91 1 1 0.507373 0.231155 1.57506 0 0 0 2.03902 -0.186708 -0.224071 29.8649 0.947476 41.3716 6.25886 -68.6972 -1.64968 0.03 325.739 
41 1 1 0.933439 0.253554 1.57716 0 0 0 2.50947 -0.0669251 0.142966 -2.21325 7.3491 -6.23394 4.40335 -49.0525 -4.57927 0.03 342.511 
112 1 1 1.0101 0.247747 1.57686 0 0 0 2.27308 0.199001 -4.3246e-05 0.000201599 -2.32311e-05 0.0104295 -6.66064 -57.8005 -18.9158 0.03 348.058 
86 1 1 1.13257 0.253325 1.57686 0 0 0 2.09038 0.000186224 1.36602e-06 -5.64137e-06 5.50879e-10 -9.59168e-06 -0.0062329 -63.9147 -8.90786 0.03 358.222 
23 1 1 1.25324 0.25074 1.57686 0 0 0 2.28236 -0.325121 0.00108363 -0.0074784 -0.00274679 0.0112523 10.8824 -57.4945 -13.7907 0.03 354.338 
96 1 1 1.31659 0.253776 1.57649 0 0 0 2.21943 -0.00271593 0.0496549 1.76207 -7.60655 2.09268 12.1997 -57.7411 -1.65989 0.03 342.834 
8 1 1 1.56002 0.234616 1.57686 0 0 0 3.2622 0.150814 1.2964e-05 -2.36774e-05 4.83963e-06 -0.00186517 -5.04771 -24.6939 7.09794 0.03 335.903 
110 1 1 0.124266 0.273663 1.57617 0 0 0 0.646487 -0.0144089 0.165291 5.19435 -0.299481 7.63224 1.41321 -97.6715 -2.46934 0.03 305.855 
175 1 1 0.373679 0.297922 1.57831 0 0 0 1.37295 0.093494 0.210926 0 0 -2.77371 -3.31919 -87.9171 -11.3133 0.03 316.787 
11 1 1 0.457836 0.29611 1.57499 0 0 0 1.65751 -0.0604305 0.161314 5.33048 4.36698 3.96865 1.46566 -82.0797 18.7525 0.03 330.004 
94 1 1 0.52052 0.291174 1.57649 0 0 0 1.75677 -0.404243 0.0298192 0.204542 0.165598 0.854628 14.2994 -76.2793 4.98769 0.03 325.025 
64 1 1 0.683034 0.295232 1.57686 0 0 0 2.1295 -0.132783 0.00714405 -0.0298773 -0.00210889 -0.28431 4.44478 -62.6134 18.882 0.03 350.357 
125 1 1 0.799492 0.270959 1.57684 0 0 0 2.40932 -0.0700036 0.00358901 -0.0121786 -0.000516542 0.232435 2.34444 -53.2741 -2.3567 0.03 316.558 
144 1 1 0.856766 0.289987 1.57691 0 0 0 2.15368 0.00577306 -0.00444674 0.0120417 0.000123961 -0.521443 -0.192918 -61.7234 21.5555 0.03 322.584 
82 1 1 1.37161 0.29131 1.57689 0 0 0 2.3822 -0.456762 0.00279223 -0.0122353 -0.00344406 -0.584445 15.2773 -54.1103 4.03313 0.03 341.959 
3 1 1 0.213337 0.310375 1.5778 0 0 0 1.41942 -0.248281 -0.080424 -4.50581 2.48578 -0.0737297 -0.427424 -69.3455 30.3726 0.03 328.16 
56 1 1 0.761146 0.323103 1.57562 0 0 0 2.35738 -0.159051 0.0955518 17.3274 0.013104 31.8811 5.40592 -14.4233 -24.7048 0.03 301.725 
124 1 1 0.906922 0.334602 1.57654 0 0 0 2.22659 0.0414743 0.0461089 -0.434944 -0.525481 1.24679 -0.722324 -60.727 -5.03649 0.03 345.858 
59 1 1 1.04833 0.310702 1.57683 0 0 0 2.3926 0.223747 0.0125123 1.30324 -0.422456 -2.44788 -7.03221 -53.9729 8.1847 0.03 333.644 
133 1 1 1.30535 0.318542 1.57686 0 0 0 2.21932 -0.439887 -4.56302e-05 0.000131858 3.25713e-05 -0.0103162 14.7227 -59.5981 -2.90755 0.03 321.219 
132 1 1 0.0674721 0.347012 1.58066 0 0 0 0.308341 0.0638767 0.0178363 0 0 -2.77371 -24.0878 9.75416 25.4706 0.03 303.975 
70 1 1 0.159646 0.336459 1.57912 0 0 0 0.9288 -0.646945 0.299919 4.50581 -2.48578 -5.47369 34.652 -78.4353 0.233137 0.03 304.041 
166 1 1 0.289052 0.336581 1.57426 0 0 0 1.67203 0.0292788 0.252431 -12.4161 -7.90949 12.5771 3.87327 -88.0117 6.89489 0.03 310.862 
38 1 1 0.361904 0.357502 1.58833 0 0 0 0.297014 0.162888 -0.345328 0 0 -2.77371 15.8399 15.7168 -5.22839 0.03 300.864 
35 1 1 0.424101 0.359061 1.57759 0 0 0 0.489342 0.232885 -1.23395 0 0 -2.77371 -15.1941 13.2344 3.21439 0.03 300.617 
126 1 1 0.539126 0.346687 1.58904 0 0 0 1.76383 -0.27548 -0.222866 -0.164942 -0.932989 -2.55348 -32.6214 30.6941 -16.5851 0.03 302.692 
123 1 1 0.611495 0.354636 1.57706 0 0 0 1.59559 -0.1796 -0.848878 53.8136 -14.4323 22.4812 25.1033 -8.94178 5.68399 0.03 300.142 
143 1 1 0.859993 0.372188 1.57688 0 0 0 2.11126 -0.0101451 0.0164535 -0.270808 0.167499 -1.04205 0.248112 -63.3066 -2.71077 0.03 339.866 
29 1 1 1.06319 0.368833 1.57691 0 0 0 2.45557 0.252039 -0.0139834 -1.32694 0.483254 2.17198 -8.8473 -51.6555 -3.32041 0.03 334.774 
81 1 1 1.12436 0.342025 1.57686 0 0 0 2.47923 -0.00318718 -2.85339e-07 9.06373e-07 1.89954e-09 -7.21061e-06 0.106675 -50.9002 -13.9831 0.03 329.669 
14 1 1 1.54908 0.339945 1.57686 0 0 0 2.42075 0.0677053 -1.06326e-11 -2.16122e-12 1.50235e-13 0 -2.26609 -52.8573 -2.54476 0.03 356.615 
33 1 1 0.0176781 0.389897 1.58849 0 0 0 -0.520823 0.152245 -1.2785 0 0 -2.77371 -2.07184 -101.961 0.517279 0.03 300.008 
25 1 1 0.309792 0.392053 1.58944 0 0 0 1.46952 -0.437641 -0.885328 0 0 -2.77371 -26.4671 6.30961 2.16005 0.03 300.198 
170 1 1 0.721161 0.378177 1.57681 0 0 0 2.11933 0.424526 0.0153652 1.52231 -0.111089 0.279004 -11.5398 -26.2431 -2.08804 0.03 313.067 
122 1 1 0.909244 0.40943 1.57875 0 0 0 2.05809 0.108381 -0.097358 0 0 -2.77371 -4.01729 -65.4604 0.619812 0.03 349.314 
174 1 1 1.50243 0.394295 1.57686 0 0 0 2.54452 -0.112838 8.0311e-12 2.40376e-12 1.49706e-13 -5.77316e-14 3.77668 -48.7148 2.83466 0.03 351.113 
116 1 1 0.165505 0.415382 1.57732 0 0 0 1.00876 0.0451214 0.0602955 0 0 -2.77371 5.6292 -100.479 -9.32578 0.03 306.517 
28 1 1 0.264493 0.434868 1.6019 0 0 0 1.08743 -0.0669435 0.542309 0 0 -2.77371 19.4846 65.6769 0.83577 0.03 300.432 
77 1 1 0.376877 0.416361 1.57702 0 0 0 1.34617 0.30288 0.0297608 -0.165147 -0.131958 -3.19649 -9.63095 -89.2743 -0.390581 0.03 319.325 
135 1 1 0.444665 0.427469 1.57569 0 0 0 1.59949 0.489432 0.21255 -8.44644 3.65888 -2.33283 -14.1338 -77.3357 2.35574 0.03 338.936 
37 1 1 0.558323 0.421129 1.57477 0 0 0 2.4498 0.292761 0.180616 2.60599 -0.200759 64.8967 -8.44809 -68.736 14.3768 0.03 302.058 
111 1 1 0.669676 0.42785 1.58227 0 0 0 1.90268 -0.167052 -0.461048 1.96454 2.48363 -4.72127 -34.3443 -29.3089 3.47606 0.03 308.959 
50 1 1 0.76135 0.430411 1.57736 0 0 0 2.2622 0.101104 -0.02817 0 0 -2.77371 -3.37221 -58.0585 12.7983 0.03 333.956 
167 1 1 1.01272 0.427587 1.57676 0 0 0 2.12583 -0.00521357 -0.101481 8.47626 -6.57688 -13.0411 0.604799 -60.2208 11.4236 0.03 325.844 
54 1 1 1.14135 0.421379 1.57686 0 0 0 2.24235 -0.277113 -4.50847e-07 1.57085e-06 2.47663e-07 -3.23556e-05 9.27496 -58.8284 -8.02237 0.03 347.023 
119 1 1 0.141592 0.473936 1.57688 0 0 0 0.529007 0.118217 -0.0358388 1.99426 -0.195505 1.23394 0.46785 -71.0077 -7.53826 0.03 316.289 
21 1 1 0.216763 0.468 1.57841 0 0 0 0.930419 0.593329 0.286887 0 0 -2.77371 -3.6163 -80.9769 -8.79346 0.03 308.357 
160 1 1 0.31727 0.463671 1.57709 0 0 0 0.754337 -0.0430688 -0.0554833 0.698936 0.0658059 -1.36966 -2.58916 -65.4598 10.7519 0.03 322.891 
4 1 1 0.381003 0.477202 1.58072 0 0 0 1.0797 0.509899 -0.343134 0 0 -2.77371 -0.846416 62.9107 6.62142 0.03 301.797 
69 1 1 0.608158 0.45872 1.57701 0 0 0 2.18062 0.00258956 -0.196584 -1.64233 -4.2533 5.52707 3.093 -62.4214 -15.8017 0.03 348.711 
26 1 1 0.711463 0.469901 1.57633 0 0 0 2.07092 0.0762761 -0.070273 2.85236 -5.40991 6.73183 0.393189 -47.7769 2.79645 0.03 305.254 
131 1 1 0.873692 0.458258 1.57673 0 0 0 2.84861 -0.238375 0.0523725 -0.330254 0.278088 -0.0834164 7.95925 -38.7207 -23.8244 0.03 325.074 
30 1 1 0.955389 0.450384 1.57681 0 0 0 2.31255 -0.102038 -0.00440317 0.473285 -0.579018 -0.276933 3.41117 -56.4897 -13.2867 0.03 358.019 
36 1 1 1.22572 0.473188 1.57686 0 0 0 2.35765 0.161792 -1.72746e-07 8.36064e-07 -8.23186e-08 6.03988e-05 -5.41516 -54.9694 -1.38527 0.03 340.748 
32 1 1 1.29286 0.446697 1.57686 0 0 0 2.41625 0.0362623 -1.72321e-06 6.72579e-06 -1.5398e-07 0.000239351 -1.2137 -53.0079 4.98442 0.03 344.335 
169 1 1 0.487243 0.513434 1.58372 0 0 0 1.2358 0.0142483 -0.0139399 0.976978 -28.2529 6.27068 27.8546 -63.5455 8.20194 0.03 322.233 
163 1 1 0.828883 0.500827 1.57685 0 0 0 2.71008 -0.244212 -0.00370009 1.15329 1.12197 0.444295 6.79844 -41.7639 29.8886 0.03 334.405 
145 1 1 0.927465 0.504887 1.57689 0 0 0 2.65588 -0.067761 -0.0188371 -4.48199 -12.3428 -0.416779 -3.97601 -18.8249 21.5783 0.03 316.446 
39 1 1 0.993909 0.498985 1.57718 0 0 0 2.22452 -0.176901 -0.0233552 0.917593 -1.74882 -2.10097 6.62248 -59.2125 7.14761 0.03 335.554 
10 1 1 1.07029 0.485488 1.57685 0 0 0 2.38174 0.172178 0.00649727 0.937024 0.898944 -0.176703 -7.27224 -52.6053 -14.8168 0.03 357.54 
162 1 1 1.13272 0.501366 1.57684 0 0 0 2.48549 -0.102145 0.00647831 -0.115751 -0.041331 0.0423231 3.44333 -50.7655 20.8063 0.03 341.572 
140 1 1 1.42288 0.491385 1.57686 0 0 0 2.52255 0.0244765 -3.63564e-05 0.000116721 -1.93369e-06 0.00042072 -0.819226 -49.4501 0.805906 0.03 322.198 
48 1 1 0.213767 0.52868 1.58551 0 0 0 0.428051 0.187441 -0.854298 -38.7282 3.89061 -17.7417 -3.09357 -43.1344 5.40379 0.03 303.988 
34 1 1 0.330977 0.54269 1.5774 0 0 0 1.31892 0.585324 0.117325 0 0 -2.77371 -19.5265 -89.7522 14.63 0.03 315.173 
118 1 1 0.547681 0.552655 1.57509 0 0 0 2.25039 0.219722 -0.157338 0.309003 -2.06196 18.7281 -7.7318 -59.9135 -12.3287 0.03 329.506 
61 1 1 0.595559 0.517276 1.577 0 0 0 2.03946 -0.046647 0.0359791 4.12343 -1.78416 -1.17018 3.7666 -62.4511 15.4186 0.03 328.017 
104 1 1 0.673556 0.518982 1.57688 0 0 0 2.28424 0.186388 0.00656695 0.967513 -0.537884 -0.559756 11.0289 -26.3553 -24.9858 0.03 318.733 
42 1 1 0.754536 0.537089 1.57695 0 0 0 2.24097 -0.00380774 -0.0528985 0.0526159 0.0202355 0.713425 0.12205 -58.7223 7.88436 0.03 334.051 
63 1 1 0.868671 0.548583 1.5765 0 0 0 2.51568 0.00395672 0.00172549 -2.11014 -0.573589 3.55563 0.33316 -52.4248 12.3081 0.03 350.616 
103 1 1 1.04361 0.539527 1.57662 0 0 0 2.14134 0.109515 -0.00562684 1.72502 0.67254 4.19747 -5.82654 -54.9882 -15.8494 0.03 355.702 
66 1 1 1.18703 0.526954 1.57687 0 0 0 2.41838 0.102695 -0.00678677 0.133033 0.049787 0.220331 -3.44429 -52.9146 -8.3985 0.03 334.587 
168 1 1 1.24992 0.542444 1.57686 0 0 0 2.40351 0.245518 -0.000110516 0.000831939 -0.000150854 0.081758 -8.21829 -53.4403 7.62347 0.03 327.971 
100 1 1 1.30718 0.520712 1.57683 0 0 0 2.4217 0.151749 0.0103433 0.0140458 -0.237746 -0.203273 -4.97529 -52.8833 3.51968 0.03 350.177 
72 1 1 0.144174 0.576783 1.58661 0 0 0 1.33271 0.19138 0.513556 0 0 -2.77371 -29.4517 -64.2745 -45.1706 0.03 307.658 
117 1 1 0.39186 0.565969 1.58181 0 0 0 1.83232 -0.240458 0.197106 0 0 -2.77371 -2.23653 -63.347 -39.8819 0.03 312.188 
16 1 1 0.474095 0.569905 1.57742 0 0 0 1.8325 0.127878 -0.186201 7.42799 -18.7002 8.06375 8.54796 -96.4098 -11.914 0.03 331.786 
152 1 1 0.636601 0.568142 1.57714 0 0 0 1.92671 0.0156105 0.0300449 1.75418 -2.25882 0.0609707 -2.7819 -75.4682 -13.279 0.03 335.686 
121 1 1 0.810033 0.564476 1.57686 0 0 0 2.46138 -0.131846 -0.00986546 1.62615 -0.367633 0.560666 4.77331 -49.8863 -28.8947 0.03 350.904 
158 1 1 0.926603 0.564035 1.57662 0 0 0 2.68991 -0.0673495 -0.00319642 -20.6972 20.6914 -8.52504 7.61733 -33.0855 -34.6111 0.03 336.43 
109 1 1 0.985185 0.558202 1.57699 0 0 0 2.38907 -0.194637 0.143665 33.5086 -4.79811 6.46506 5.03712 -50.8583 -0.304342 0.03 346.213 
172 1 1 1.0996 0.559749 1.57712 0 0 0 2.31845 -0.107636 0.0136463 0.940801 0.887397 -3.01325 3.77809 -56.155 -24.6014 0.03 346.406 
113 1 1 1.32255 0.577711 1.58687 0 0 0 2.34874 0.154288 0.155154 -0.0262158 -0.623975 -0.651919 -7.32129 -65.9706 -12.1126 0.03 350.685 
114 1 1 0.28049 0.141261 1.62724 0 0 0 1.22639 -0.0493339 0.271821 0 0 -2.77371 12.2983 -113.441 18.1494 0.03 310.352 
139 1 1 0.367782 0.1476 1.61979 0 0 0 0.962253 -0.780738 -0.285058 -0.283417 -0.427528 -2.70145 0.790343 -112.268 11.1634 0.03 320.467 
78 1 1 0.699344 0.153109 1.60981 0 0 0 2.04383 0.485245 -0.475392 0.652233 0.868878 -0.869833 -15.0603 -14.6555 68.3185 0.03 315.118 
173 1 1 0.759391 0.148067 1.62519 0 0 0 2.05622 0.0164195 -0.418489 0 0 -2.77371 42.4109 14.3781 13.3119 0.03 306.266 
87 1 1 0.91353 0.142214 1.62075 0 0 0 1.97481 0.0157498 -0.0231725 0.0236535 0.968662 -0.975727 -0.937995 -44.8506 50.8814 0.03 326.261 
80 1 1 0.997287 0.161152 1.60205 0 0 0 2.63664 -0.00937045 -0.226147 45.7168 -14.5813 11.835 10.7359 21.0816 -4.40056 0.03 303.909 
97 1 1 0.127182 0.165027 1.61384 0 0 0 -0.387794 -0.929479 -0.786674 0 0 -2.77371 -34.7149 31.2761 -6.81543 0.03 300.083 
22 1 1 0.222042 0.192051 1.62511 0 0 0 -0.69456 -0.219905 -0.531944 -11.4588 -35.9191 54.2062 14.6624 -31.2742 -0.583674 0.03 300.086 
15 1 1 0.628377 0.163337 1.59935 0 0 0 1.82887 0.242762 -0.112385 -1.62363 1.10126 -2.3711 -5.77544 -71.7661 34.0823 0.03 329.519 
40 1 1 0.452508 0.20292 1.61075 0 0 0 0.774608 -0.173753 -0.629914 0 0 -2.77371 -20.9837 39.6754 44.164 0.03 300.389 
88 1 1 0.875371 0.216625 1.62365 0 0 0 1.7759 0.0514225 -0.42776 4.65151 0.648712 -2.60581 -2.02409 1.59296 -11.6685 0.03 301.05 
19 1 1 0.469155 0.263057 1.6208 0 0 0 0.778453 -0.294035 0.395295 17.8524 -11.0824 19.2819 9.8667 29.2851 1.54481 0.03 302.382 
43 1 1 0.547409 0.230508 1.61719 0 0 0 1.40231 -0.41411 0.49438 12.3322 -1.85211 37.4947 11.5868 30.5162 5.81577 0.03 300.214 
146 1 1 0.691655 0.244263 1.62537 0 0 0 1.44865 0.055193 -0.310161 0 0 -2.77371 -5.01564 11.964 -13.1729 0.03 300.816 
46 1 1 0.934323 0.250032 1.63735 0 0 0 1.86202 -0.168374 0.407068 0 0 -2.77371 -2.90245 29.1062 -24.3177 0.03 301.114 
73 1 1 0.170503 0.272318 1.621 0 0 0 0.43822 0.0553599 0.312498 0 0 -2.77371 -7.85947 43.4539 1.91333 0.03 300.228 
141 1 1 0.56464 0.292111 1.61633 0 0 0 1.82307 -0.678504 0.0114832 2.7965 -0.0606493 1.48927 -22.0124 63.9758 -22.1251 0.03 301.18 
31 1 1 0.213994 0.332825 1.63403 0 0 0 -0.15156 0.125978 0.165869 0 0 -2.77371 3.90935 49.183 19.6015 0.03 300.252 
127 1 1 0.475679 0.329828 1.62005 0 0 0 0.840196 0.231005 0.410215 -2.65139 -21.6574 -9.91218 -33.661 32.9476 -17.9232 0.03 300.589 
159 1 1 0.946191 0.360358 1.61322 0 0 0 2.27955 -0.203217 0.225419 1.22271 0.850509 0.354041 23.1034 65.1855 11.5073 0.03 300.953 
101 1 1 0.494577 0.40525 1.59692 0 0 0 1.65685 0.205172 -0.3208 19.1964 -8.53606 20.3946 20.2374 37.4364 -2.39038 0.03 334.495 
55 1 1 0.214178 0.48558 1.63937 0 0 0 0.223812 0.611434 0.600073 0 0 -2.77371 -30.5775 0.503134 -3.76634 0.03 300.043 
134 1 1 0.522196 0.474395 1.6117 0 0 0 1.14198 -0.287226 -0.250588 3.47784 -6.24891 -2.21593 28.6106 31.8659 6.76362 0.03 301.303 
20 1 1 0.744958 0.470427 1.62484 0 0 0 1.70203 0.29933 0.312429 -3.28432 -0.286686 5.20138 -3.34007 26.9196 1.79466 0.03 301.12 
151 1 1 0.976621 0.462934 1.63132 0 0 0 2.17124 0.0305428 0.0137655 -1.94562 1.69968 -0.435517 -13.8746 44.4535 5.79174 0.03 303.294 
136 1 1 0.431872 0.4962 1.61045 0 0 0 1.49924 0.524814 -1.18634 0.495981 -4.43261 -3.84284 -11.4228 -38.3144 16.7803 0.03 300.025 
98 1 1 0.644212 0.497941 1.63187 0 0 0 1.82231 0.733474 -0.0302149 0 0 -2.77371 -17.2826 37.1961 5.2379 0.03 300.174 
147 1 1 0.267492 0.524622 1.60566 0 0 0 1.07978 0.339379 -1.28415 38.7282 -3.89061 12.1943 -10.4327 82.5344 1.57123 0.03 300.015 
154 1 1 0.323251 0.560159 1.63541 0 0 0 0.439746 1.42261 0.0928696 0 0 -2.77371 -7.44572 58.0626 -23.5576 0.03 300.647 
150 1 1 0.524907 0.535594 1.63045 0 0 0 0.371496 0.302177 -0.401453 0 0 -2.77371 -13.5191 -8.95725 7.11802 0.03 300.169 
9 1 1 0.903093 0.53608 1.62348 0 0 0 2.38107 0.030191 0.0762762 2.75929 -1.0159 1.81478 2.77914 48.5549 -2.68841 0.03 304.222 
157 1 1 1.11589 0.531858 1.62734 0 0 0 2.28444 -0.170167 0.0267293 1.18933 -0.450982 -1.48239 -6.3906 64.7929 21.7928 0.03 302.449 
75 1 1 0.575405 0.583332 1.61494 0 0 0 1.20526 0.742983 0.265836 23.0877 28.102 50.9732 -31.3801 6.32921 5.69651 0.03 300.506 
105 1 1 0.731077 0.574398 1.62217 0 0 0 1.558 0.301975 -0.297908 0 0 -2.77371 -13.0091 37.8471 1.22864 0.03 302.235 
129 1 1 0.192495 0.598469 1.61699 0 0 0 1.26868 0.466353 1.07441 0 0 -2.77371 -16.2027 -52.7064 -40.2018 0.03 303.437 
18 1 1 0.793234 0.6006 1.62238 0 0 0 1.82876 -0.217987 -0.108765 0 0 -2.77371 2.09725 -35.6663 -34.4721 0.03 304.11 
83 1 1 1.06173 0.599291 1.60915 0 0 0 2.83448 -0.071688 -0.303602 0 0 -2.77371 -9.38766 51.6315 -15.4816 0.03 303.726 
89 1 1 0.342589 0.622772 1.63384 0 0 0 1.683 -0.0508479 0.477683 0 0 -2.77371 -11.1625 -43.6372 -67.0752 0.03 303.766 
49 1 1 0.49385 0.0999148 1.66357 0 0 0 1.61712 0.236611 -0.0339587 31.0488 -4.95916 29.1455 -3.89397 -58.1749 45.7518 0.03 306.857 
115 1 1 0.441001 0.117514 1.64328 0 0 0 2.08104 -0.539839 0.585077 -6.89451 42.2186 -2.79669 26.4779 -18.7776 16.4599 0.03 302.185 
171 1 1 0.500338 0.176771 1.65974 0 0 0 0.319407 -1.05448 -0.887284 0 0 -2.77371 0.659934 -6.69621 -6.96295 0.03 300.001 
51 1 1 0.383165 0.203137 1.63157 0 0 0 0.605515 -0.0980947 -0.497895 -4.32658 -6.78542 5.06076 -39.9918 24.8755 -14.6249 0.03 306.642 
74 1 1 0.316017 0.241397 1.63284 0 0 0 0.698892 -0.373201 -0.307959 0 0 -2.77371 -35.279 26.1823 3.49265 0.03 300.446 
281 1 1 0.426494 0.240383 1.65371 0 0 0 0.583844 -0.460539 -0.048053 -17.6428 -17.6666 20.2963 4.1311 -44.9554 -5.36948 0.03 300.062 
164 1 1 0.270043 0.293267 1.654 0 0 0 0.305854 -0.0363848 -0.393721 -19.0016 -41.8285 29.6783 4.841 -16.8948 6.40085 0.03 300.006 
44 1 1 0.632709 0.290171 1.65855 0 0 0 1.40738 0.0768462 -0.0784688 0 0 -2.77371 -7.58956 14.9275 29.3808 0.03 300.826 
7 1 1 0.746146 0.26961 1.63202 0 0 0 1.64194 -0.0300177 -0.50602 0 0 -2.77371 -1.73359 -7.38482 7.23661 0.03 300.611 
155 1 1 0.8518 0.272104 1.63868 0 0 0 1.74751 0.000479395 -0.037308 0 0 -2.77371 6.8483 34.8128 18.7053 0.03 300.957 
71 1 1 0.347089 0.318451 1.63514 0 0 0 0.400693 0.265788 -0.0582276 -23.6337 3.88061 -28.9175 -9.93511 17.3183 -33.8746 0.03 300.485 
225 1 1 0.520853 0.308177 1.65347 0 0 0 1.59308 -0.249008 -0.320655 -0.566863 0.467205 -1.37253 23.6037 16.4879 -14.1527 0.03 300.008 
53 1 1 0.289001 0.343663 1.63131 0 0 0 -0.126041 -0.271767 0.105138 20.7647 44.2149 38.3621 4.10679 30.8639 -1.19359 0.03 300.091 
68 1 1 0.400022 0.349934 1.63804 0 0 0 0.735229 0.559305 -1.5442 0 0 -2.77371 -6.18039 -33.7103 15.6914 0.03 300.01 
289 1 1 0.0986871 0.381369 1.63742 0 0 0 -0.176204 -0.7966 -2.20753 0 0 -2.77371 34.1727 -18.2325 -8.70422 0.03 300.001 
102 1 1 0.455153 0.381619 1.6384 0 0 0 0.882375 0.475565 -0.714984 -2.79927 -29.4252 -47.4954 -7.90169 -14.4579 -14.8326 0.03 300.258 
153 1 1 0.539075 0.389699 1.63924 0 0 0 1.78565 -0.395111 -0.508855 0 0 -2.77371 21.1058 -23.0531 5.416 0.03 300.29 
24 1 1 0.712915 0.386782 1.64401 0 0 0 1.58961 0.238764 -0.112261 0 0 -2.77371 45.7403 -22.5597 2.96941 0.03 300.284 
128 1 1 0.390585 0.415447 1.64464 0 0 0 0.402808 0.101751 0.304714 0 0 -2.77371 13.8727 18.2045 3.85358 0.03 300.633 
106 1 1 0.471222 0.432817 1.66064 0 0 0 0.288391 -0.065999 -1.10883 11.5765 50.8166 80.8348 1.39104 6.28338 28.8841 0.03 301.009 
92 1 1 1.02886 0.434097 1.63341 0 0 0 2.26815 0.146455 -0.407929 -1.48415 4.46898 16.1217 -16.0267 42.9343 -7.56468 0.03 300.653 
148 1 1 0.124052 0.449814 1.65101 0 0 0 0.212153 0.296305 -0.178592 0 0 -2.77371 54.5188 38.6529 -1.89179 0.03 300.15 
6 1 1 0.337448 0.448573 1.63796 0 0 0 0.329629 -0.0710774 -1.30974 0 0 -2.77371 22.4783 -15.8247 -27.3961 0.03 300.004 
326 1 1 0.148415 0.512317 1.63985 0 0 0 -0.401129 0.674414 -2.41339 0 0 -2.77371 14.5713 1.82527 8.55978 0.03 300 
52 1 1 0.379136 0.507331 1.64599 0 0 0 0.377215 -0.0602765 -1.54923 0 0 -2.77371 17.8105 -19.6068 1.60761 0.03 300 
149 1 1 0.796439 0.491764 1.64425 0 0 0 1.99539 0.0956816 0.287641 8.33394 1.34187 1.77794 10.6869 -19.0512 -8.85004 0.03 300.578 
130 1 1 0.920514 0.481894 1.64222 0 0 0 1.96805 -0.256255 -0.357609 0.209417 -0.238759 -2.74732 22.1643 -62.025 1.33066 0.03 300.159 
65 1 1 0.456359 0.531833 1.65094 0 0 0 1.39269 0.432733 -0.728411 -0.495981 4.43261 -1.70458 9.57589 13.6237 -30.706 0.03 300.3 
138 1 1 0.414367 0.574277 1.64223 0 0 0 0.64235 1.09189 0.421877 0 0 -2.77371 -10.2685 55.6841 23.1343 0.03 300.12 
17 1 1 0.461922 0.630716 1.63918 0 0 0 1.32961 1.06074 -0.0898767 30.6192 -41.9427 42.0837 -30.0372 43.171 -24.5248 0.03 300.471 
79 1 1 0.626247 0.631491 1.64083 0 0 0 1.68367 -0.281382 -0.310333 0.573699 -0.723241 -1.79685 -1.37835 -7.92965 -32.0538 0.03 307.069 
2 1 1 0.691009 0.640082 1.64924 0 0 0 1.39653 -0.558699 -0.563376 0.0214894 -1.22134 -0.764885 26.5856 -98.8366 -24.3264 0.03 310.453 
156 1 1 0.766565 0.651904 1.66108 0 0 0 1.40642 -0.351984 -0.352084 0.000581467 -1.01149 -0.96796 16.6525 -64.8844 -57.7811 0.03 325.248 
137 1 1 0.269471 0.0617998 1.70095 0 0 0 0.704311 -0.0681759 -0.169881 5.98209 7.53061 7.45564 8.10148 -54.511 55.3619 0.03 303.375 
165 1 1 0.791916 0.0639017 1.69966 0 0 0 2.05624 0.0409449 0.0959385 0 0 -2.77371 2.31132 -25.8631 66.0727 0.03 306.438 
76 1 1 0.387177 0.127142 1.6966 0 0 0 0.844591 -0.491443 0.310273 0 0 -2.77371 13.0902 83.2212 -49.4108 0.03 301.053 
62 1 1 0.295288 0.154313 1.70216 0 0 0 -0.246865 -0.801412 -0.299356 0 0 -2.77371 -38.0429 -80.3712 -21.4572 0.03 300.002 
333 1 1 0.374822 0.218121 1.68892 0 0 0 0.862621 -0.34556 -0.0723343 4.61 7.21294 -10.6804 42.2899 -12.466 5.05801 0.03 300.054 
339 1 1 0.110214 0.298119 1.66502 0 0 0 0 0 -2.91486 0 0 -2.77371 0 0 0 0.03 300 
107 1 1 0.331771 0.280859 1.68174 0 0 0 0.125942 0.0104641 -1.51661 38.8931 20.6359 -75.5629 4.75243 -0.703108 -1.13071 0.03 300.013 
181 1 1 0.377237 0.320436 1.68673 0 0 0 0.225003 0.138615 -1.41757 23.6337 -3.88061 23.3701 3.97443 9.96652 3.71045 0.03 300 
84 1 1 0.188712 0.410099 1.67325 0 0 0 -0.423624 0.184996 -0.817795 -18.2304 13.5854 -76.0839 32.2127 -16.606 9.22703 0.03 300.001 
176 1 1 0.336847 0.374427 1.67065 0 0 0 -0.272571 -0.587003 -0.293736 0 0 -2.77371 9.81768 -45.766 1.31294 0.03 300.006 
57 1 1 0.343966 0.660561 1.69068 0 0 0 0.357956 0.421489 -0.758337 0 0 -2.77371 -37.0233 53.9428 43.6927 0.03 300.178 
27 1 1 0.491349 0.673193 1.69201 0 0 0 1.41305 0.0758736 -0.0126406 0 0 -2.77371 -10.9605 -32.0094 -67.2569 0.03 303.519 
99 1 1 0.587473 0.666951 1.67614 0 0 0 1.72582 -0.177817 -0.17141 -0.0164674 -0.848417 -1.29667 8.30278 -42.5974 -64.8833 0.03 309.385 
296 1 1 0.490421 0.439404 1.71649 0 0 0 0.765141 0.160408 -0.291954 -5.12923 11.0243 -28.4327 -6.52123 5.5863 1.66999 0.03 300.008 
227 1 1 0.405439 0.458732 1.7054 0 0 0 0 0 -2.77566 0 0 -2.77371 0 0 0 0.03 300 
304 1 1 0.121294 0.500059 1.69273 0 0 0 -0.43098 -0.039168 -2.0899 0 0 -2.77371 4.30206 2.15822 2.54633 0.03 300 
243 1 1 0.458271 0.50178 1.70336 0 0 0 0.64582 -0.784955 -0.46445 0 0 -2.77371 17.4343 -23.4779 -12.7792 0.03 300.003 
93 1 1 0.222745 0.622704 1.71768 0 0 0 -0.0613205 1.00533 0.514288 0 0 -2.77371 -31.8754 6.51144 -11.2183 0.03 300.067 
307 1 1 0.306195 0.266954 1.73057 0 0 0 -0.155287 -0.174004 -1.59322 -38.8931 -20.6359 70.0154 9.1105 -28.342 -3.17653 0.03 300 
300 1 1 0.170925 0.32143 1.73119 0 0 0 0 0 -2.68295 0 0 -2.77371 0 0 0 0.03 300 
180 1 1 0.296048 0.338714 1.72643 0 0 0 0 0 -2.70032 0 0 -2.77371 0 0 0 0.03 300 
190 1 1 0.226533 0.401575 1.71702 0 0 0 -0.0375019 -0.0616273 -2.39324 18.2304 -13.5854 70.5364 0.142024 20.2573 3.64774 0.03 300 
249 1 1 0.173789 0.449512 1.74769 0 0 0 0 0 -2.62194 0 0 -2.77371 0 0 0 0.03 300 
221 1 1 0.425449 0.24778 1.77674 0 0 0 0 0 -2.51089 0 0 -2.77371 0 0 0 0.03 300 
340 1 1 0.235778 0.333975 1.77041 0 0 0 0 0 -2.53551 0 0 -2.77371 0 0 0 0.03 300 
187 1 1 0.476873 0.306542 1.77523 0 0 0 0 0 -2.51677 0 0 -2.77371 0 0 0 0.03 300 
268 1 1 0.442536 0.376191 1.767 0 0 0 0 0 -2.54866 0 0 -2.77371 0 0 0 0.03 300 
301 1 1 0.196268 0.514676 1.76291 0 0 0 0 0 -2.56435 0 0 -2.77371 0 0 0 0.03 300 
276 1 1 0.289349 0.515799 1.77824 0 0 0 0 0 -2.505 0 0 -2.77371 0 0 0 0.03 300 
288 1 1 0.209802 0.229296 1.7906 0 0 0 0 0 -2.45615 0 0 -2.77371 0 0 0 0.03 300 
213 1 1 0.125891 0.243147 1.8066 0 0 0 0 0 -2.3914 0 0 -2.77371 0 0 0 0.03 300 
322 1 1 0.49924 0.247443 1.80768 0 0 0 0 0 -2.38699 0 0 -2.77371 0 0 0 0.03 300 
291 1 1 0.499679 0.383275 1.81193 0 0 0 0 0 -2.36943 0 0 -2.77371 0 0 0 0.03 300 
246 1 1 0.107302 0.455042 1.81834 0 0 0 0 0 -2.34274 0 0 -2.77371 0 0 0 0.03 300 
226 1 1 0.253931 0.465065 1.82161 0 0 0 0 0 -2.32901 0 0 -2.77371 0 0 0 0.03 300 
224 1 1 0.391331 0.524514 1.82423 0 0 0 0 0 -2.31792 0 0 -2.77371 0 0 0 0.03 300 
196 1 1 0.358915 0.233995 1.85701 0 0 0 0 0 -2.1748 0 0 -2.77371 0 0 0 0.03 300 
257 1 1 0.107883 0.30308 1.82858 0 0 0 0 0 -2.29948 0 0 -2.77371 0 0 0 0.03 300 
230 1 1 0.257855 0.281878 1.82715 0 0 0 0 0 -2.30556 0 0 -2.77371 0 0 0 0.03 300 
245 1 1 0.160535 0.375989 1.85768 0 0 0 0 0 -2.17176 0 0 -2.77371 0 0 0 0.03 300 
178 1 1 0.318639 0.427051 1.83338 0 0 0 0 0 -2.27888 0 0 -2.77371 0 0 0 0.03 300 
352 1 1 0.377854 0.441153 1.852 0 0 0 0 0 -2.19726 0 0 -2.77371 0 0 0 0.03 300 
265 1 1 0.446064 0.454668 1.85031 0 0 0 0 0 -2.20482 0 0 -2.77371 0 0 0 0.03 300 
209 1 1 0.352404 0.322469 1.88696 0 0 0 0 0 -2.0352 0 0 -2.77371 0 0 0 0.03 300 
254 1 1 0.380252 0.376413 1.8692 0 0 0 0 0 -2.11908 0 0 -2.77371 0 0 0 0.03 300 
270 1 1 0.207615 0.426676 1.88162 0 0 0 0 0 -2.0608 0 0 -2.77371 0 0 0 0.03 300 
317 1 1 0.252263 0.228507 1.92074 0 0 0 0 0 -1.86529 0 0 -2.77371 0 0 0 0.03 300 
252 1 1 0.442785 0.262265 1.92379 0 0 0 0 0 -1.8492 0 0 -2.77371 0 0 0 0.03 300 
248 1 1 0.155073 0.291265 1.90872 0 0 0 0 0 -1.92749 0 0 -2.77371 0 0 0 0.03 300 
313 1 1 0.439938 0.327558 1.90042 0 0 0 0 0 -1.96928 0 0 -2.77371 0 0 0 0.03 300 
204 1 1 0.215487 0.347963 1.91655 0 0 0 0 0 -1.88717 0 0 -2.77371 0 0 0 0.03 300 
346 1 1 0.2812 0.398881 1.91293 0 0 0 0 0 -1.9059 0 0 -2.77371 0 0 0 0.03 300 
335 1 1 0.429091 0.407041 1.91782 0 0 0 0 0 -1.88059 0 0 -2.77371 0 0 0 0.03 300 
279 1 1 0.157212 0.495968 1.89896 0 0 0 0 0 -1.97654 0 0 -2.77371 0 0 0 0.03 300 
217 1 1 0.461801 0.523439 1.91718 0 0 0 0 0 -1.88393 0 0 -2.77371 0 0 0 0.03 300 
305 1 1 0.346674 0.257421 1.96154 0 0 0 0 0 -1.63672 0 0 -2.77371 0 0 0 0.03 300 
193 1 1 0.281872 0.329623 1.94216 0 0 0 0 0 -1.74904 0 0 -2.77371 0 0 0 0.03 300 
233 1 1 0.496558 0.3336 1.97063 0 0 0 0 0 -1.58129 0 0 -2.77371 0 0 0 0.03 300 
272 1 1 0.116473 0.427779 1.94637 0 0 0 0 0 -1.7252 0 0 -2.77371 0 0 0 0.03 300 
237 1 1 0.207046 0.471117 1.96224 0 0 0 0 0 -1.6325 0 0 -2.77371 0 0 0 0.03 300 
262 1 1 0.417911 0.469013 1.96136 0 0 0 0 0 -1.6378 0 0 -2.77371 0 0 0 0.03 300 
239 1 1 0.490736 0.457949 1.93722 0 0 0 0 0 -1.77651 0 0 -2.77371 0 0 0 0.03 300 
263 1 1 0.269308 0.500141 1.96417 0 0 0 0 0 -1.62083 0 0 -2.77371 0 0 0 0.03 300 
201 1 1 0.360389 0.493184 1.93624 0 0 0 0 0 -1.78191 0 0 -2.77371 0 0 0 0.03 300 
351 1 1 0.181906 0.258163 1.98413 0 0 0 0 0 -1.49516 0 0 -2.77371 0 0 0 0.03 300 
319 1 1 0.490886 0.237209 1.99417 0 0 0 0 0 -1.42777 0 0 -2.77371 0 0 0 0.03 300 
298 1 1 0.133415 0.358363 1.98941 0 0 0 0 0 -1.46014 0 0 -2.77371 0 0 0 0.03 300 
341 1 1 0.462863 0.403415 2.00136 0 0 0 0 0 -1.37754 0 0 -2.77371 0 0 0 0.03 300 
334 1 1 0.38649 0.410383 1.99535 0 0 0 0 0 -1.41962 0 0 -2.77371 0 0 0 0.03 300 
303 1 1 0.114998 0.510423 1.97592 0 0 0 0 0 -1.54813 0 0 -2.77371 0 0 0 0.03 300 
283 1 1 0.300071 0.232043 2.0231 0 0 0 0 0 -1.21283 0 0 -2.77371 0 0 0 0.03 300 
332 1 1 0.233113 0.233231 2.01293 0 0 0 0 0 -1.29249 0 0 -2.77371 0 0 0 0.03 300 
206 1 1 0.126939 0.284236 2.00869 0 0 0 0 0 -1.32427 0 0 -2.77371 0 0 0 0.03 300 
194 1 1 0.257372 0.298287 2.01318 0 0 0 0 0 -1.29062 0 0 -2.77371 0 0 0 0.03 300 
231 1 1 0.39189 0.276895 2.01348 0 0 0 0 0 -1.28836 0 0 -2.77371 0 0 0 0.03 300 
338 1 1 0.455834 0.299724 2.02633 0 0 0 0 0 -1.18644 0 0 -2.77371 0 0 0 0.03 300 
197 1 1 0.187467 0.323213 2.03635 0 0 0 0 0 -1.1005 0 0 -2.77371 0 0 0 0.03 300 
347 1 1 0.332014 0.322805 2.01175 0 0 0 0 0 -1.30141 0 0 -2.77371 0 0 0 0.03 300 
331 1 1 0.280682 0.358343 2.02739 0 0 0 0 0 -1.17771 0 0 -2.77371 0 0 0 0.03 300 
295 1 1 0.361284 0.371846 2.04538 0 0 0 0 0 -1.01673 0 0 -2.77371 0 0 0 0.03 300 
216 1 1 0.415188 0.353574 2.0236 0 0 0 0 0 -1.20881 0 0 -2.77371 0 0 0 0.03 300 
285 1 1 0.200673 0.388027 2.02991 0 0 0 0 0 -1.15642 0 0 -2.77371 0 0 0 0.03 300 
308 1 1 0.14362 0.411827 2.0402 0 0 0 0 0 -1.06558 0 0 -2.77371 0 0 0 0.03 300 
208 1 1 0.292126 0.417938 2.0144 0 0 0 0 0 -1.2813 0 0 -2.77371 0 0 0 0.03 300 
271 1 1 0.316171 0.515613 2.0362 0 0 0 0 0 -1.10188 0 0 -2.77371 0 0 0 0.03 300 
325 1 1 0.454753 0.482086 2.02879 0 0 0 0 0 -1.16584 0 0 -2.77371 0 0 0 0.03 300 