ITEM: TIMESTEP
50000
ITEM: NUMBER OF ATOMS
176
ITEM: BOX BOUNDS ff ff ff
0 3.3
-0.3 0.8
-0.5 3
ITEM: ATOMS id type type x y z ix iy iz vx vy vz fx fy fz omegax omegay omegaz radius f_Temp[0] 
108 1 1 0.396724 0.184924 1.57723 0 0 0 1.57049 0.159774 0.09903 -0.521163 0.345743 -2.26661 -5.40327 -75.0747 29.7555 0.03 335.377 
47 1 1 0.590541 0.18404 1.58044 0 0 0 1.95432 -0.28317 -0.0110582 0 0 -2.77371 9.71682 -68.2165 0.380431 0.03 318.831 
85 1 1 0.722863 0.17522 1.59326 0 0 0 1.50927 -0.522515 -0.632597 0 0 -2.77371 8.12198 -77.5089 4.18826 0.03 303.886 
120 1 1 0.282653 0.220802 1.57687 0 0 0 1.08267 0.067507 -0.00107762 0.00667171 -0.000183106 -0.00476262 -2.25922 -97.6337 10.6533 0.03 320.046 
112 1 1 0.441199 0.22438 1.57593 0 0 0 1.98874 -0.190269 0.0752122 -16.7151 -8.8482 -5.43242 -37.2368 -14.3097 -22.975 0.03 316.992 
60 1 1 0.499756 0.223218 1.5844 0 0 0 1.79398 0.0129862 -1.24416 20.6889 -1.48101 5.96748 -4.21413 -50.2299 16.6687 0.03 309.726 
67 1 1 0.654002 0.198234 1.58822 0 0 0 2.14579 -0.179694 -0.0569229 0 0 -2.77371 9.79452 -40.8055 2.01229 0.03 314.994 
58 1 1 0.15994 0.267697 1.57795 0 0 0 0.728994 0.0333468 -0.0662924 0 0 -2.77371 0.410391 -100.082 -3.48054 0.03 306.977 
41 1 1 0.363959 0.262726 1.5788 0 0 0 1.3177 0.12184 -1.19924 -20.9432 18.6009 -16.5375 12.3001 -53.4903 1.05312 0.03 316.761 
142 1 1 0.639069 0.258546 1.5769 0 0 0 2.14135 -0.140865 -0.0143766 0.0509673 0.00674858 0.0776045 4.71266 -62.1492 -9.9232 0.03 322.492 
45 1 1 0.71222 0.253546 1.5768 0 0 0 2.67936 -0.81996 -0.0708399 3.49868 1.10304 4.56317 0.747297 40.517 -10.4049 0.03 304.221 
8 1 1 0.811256 0.258922 1.57994 0 0 0 2.45713 -0.251596 -0.585008 0 0 -2.77371 15.1058 -50.2364 3.30632 0.03 311.702 
13 1 1 0.280129 0.286011 1.57963 0 0 0 1.16115 -0.0832796 0.0895152 0 0 -2.77371 2.76712 -95.2921 -7.38027 0.03 319.436 
59 1 1 0.460621 0.278603 1.58751 0 0 0 1.71023 -0.0334644 -0.22927 3.22172 -5.68557 4.86002 2.53759 -44.1077 20.5574 0.03 309.996 
86 1 1 0.583803 0.282073 1.57644 0 0 0 2.14442 -0.208948 -0.0983899 2.94701 1.21348 15.4405 7.629 -63.673 -5.0219 0.03 325.934 
124 1 1 0.416283 0.31427 1.57528 0 0 0 1.26991 -0.236065 0.174585 -6.51288 0.481809 11.4886 13.603 -76.8155 -0.361713 0.03 320.26 
81 1 1 0.524855 0.334988 1.58741 0 0 0 1.17215 0.054192 -1.00393 0 0 -2.77371 -31.3446 -3.51783 -2.88224 0.03 300.349 
14 1 1 0.91968 0.322342 1.57686 0 0 0 2.42075 0.0677053 3.25979e-06 -1.2404e-05 5.31782e-07 -0.000374652 -2.26609 -52.8572 -2.54476 0.03 324.295 
3 1 1 0.0747117 0.343746 1.5741 0 0 0 0.186571 0.00155554 0.0191845 58.8708 -1.80403 115.023 0.627816 -110.315 1.57106 0.03 301.433 
101 1 1 0.182538 0.343958 1.57677 0 0 0 1.03456 -0.144505 -0.664181 -12.5041 -2.33854 -38.0873 4.75892 -63.4896 -1.41555 0.03 308.63 
64 1 1 0.265514 0.367405 1.57434 0 0 0 1.6117 -0.0887525 -0.508042 25.2893 -4.46333 63.7522 -0.72904 -89.2405 6.36722 0.03 320.387 
143 1 1 0.343678 0.355522 1.57659 0 0 0 0.239581 0.315912 -2.06082 188.845 -22.1207 117.957 4.05119 -1.15426 -4.93991 0.03 300.277 
29 1 1 0.455618 0.358111 1.57848 0 0 0 1.43862 -0.269287 0.0586257 0.768225 6.99014 3.09743 7.09098 85.3453 5.59981 0.03 301.15 
23 1 1 0.670009 0.337944 1.5838 0 0 0 1.83767 -0.31413 -0.468485 -9.68057 0.249778 -6.2128 14.3182 -25.9649 -14.9187 0.03 325.872 
96 1 1 0.728379 0.341681 1.5771 0 0 0 2.16292 -0.354892 0.0596215 11.6895 0.296131 -0.228673 10.6072 -56.7747 -2.03269 0.03 310.685 
82 1 1 0.843384 0.361509 1.57686 0 0 0 1.8063 -0.148108 0.000113001 -0.000575185 1.9918e-06 -0.00762974 4.95713 -73.4228 2.87889 0.03 316.951 
69 1 1 0.1987 0.400536 1.57818 0 0 0 0.234905 0.0459233 -0.109016 4.84244 20.2763 -7.61047 -32.4164 -60.5874 29.5327 0.03 314.749 
122 1 1 0.405358 0.389317 1.57626 0 0 0 1.25871 -0.13451 0.206106 -3.8377 2.74717 1.67647 7.84313 -93.1017 -8.59495 0.03 323.871 
135 1 1 0.119759 0.435987 1.5904 0 0 0 0.773644 0.205346 0.474291 0 0 -2.77371 -6.94327 -108.889 -4.466 0.03 303.806 
42 1 1 0.251537 0.438041 1.58617 0 0 0 0.382644 0.80783 -0.742415 0 0 -2.77371 -31.6584 59.9023 -9.46237 0.03 300.361 
131 1 1 0.362699 0.43104 1.57823 0 0 0 0.960999 -0.123363 -0.201887 -0.11529 0.275546 -2.18835 27.03 38.7894 13.4884 0.03 300.972 
10 1 1 0.526387 0.429526 1.57704 0 0 0 1.83504 0.450124 -0.0159757 0.287421 0.340941 -1.85296 -15.1931 -72.0837 4.51452 0.03 325.746 
36 1 1 0.634946 0.436967 1.57652 0 0 0 2.03581 0.0912013 0.0296541 4.0918 1.18255 5.74479 -19.1461 -10.4935 3.40092 0.03 304.67 
32 1 1 0.728335 0.435765 1.57752 0 0 0 1.8095 0.022746 -0.00308293 0 0 -2.77371 -0.760248 -73.2296 -5.21338 0.03 314.229 
174 1 1 0.842913 0.422799 1.57686 0 0 0 2.4068 -0.0569761 -2.96234e-05 1.28166 -0.51988 -0.00754715 8.41283 -37.2849 2.83466 0.03 318.062 
61 1 1 0.190217 0.47474 1.57616 0 0 0 1.0733 0.363332 0.0635071 0.465462 -5.68837 6.4784 -42.461 -75.6253 3.03519 0.03 303.619 
163 1 1 0.32181 0.47466 1.57712 0 0 0 1.31933 0.48246 0.0537861 2.1496 -2.77761 -4.4098 4.2098 -67.924 -34.1351 0.03 311.183 
30 1 1 0.44519 0.452631 1.57757 0 0 0 1.29153 0.126889 0.268441 0 0 -2.77371 -4.10225 -91.2788 9.06101 0.03 336.547 
54 1 1 0.577908 0.462856 1.57952 0 0 0 1.82527 0.0362011 0.112635 0 0 -2.77371 -1.27574 -73.0214 -1.14705 0.03 322.471 
16 1 1 0.132279 0.514428 1.57846 0 0 0 1.1961 0 0.917537 0 0 -2.77371 0 -94.9973 0 0.03 303.947 
121 1 1 0.271194 0.517404 1.58342 0 0 0 1.46028 0.63676 0.267212 0 0 -2.77371 -22.0338 -85.3888 18.8227 0.03 313.292 
63 1 1 0.398983 0.500464 1.57736 0 0 0 1.56171 0.229277 0.125598 0 0 -2.77371 -7.72474 -81.678 0.320604 0.03 324.673 
39 1 1 0.490177 0.510047 1.57856 0 0 0 1.53375 0.292756 0.376382 0 0 -2.77371 -10.2906 -84.5464 -5.36223 0.03 313.825 
66 1 1 0.633541 0.504514 1.57783 0 0 0 1.55846 0.24575 -0.121095 0 0 -2.77371 -8.22524 -81.7736 -8.61444 0.03 306.793 
168 1 1 0.704667 0.512246 1.57607 0 0 0 1.75492 -0.0714324 0.128623 -0.199714 0.000439994 13.0438 2.42677 -76.4651 10.3515 0.03 305.329 
100 1 1 0.769036 0.485708 1.57682 0 0 0 1.87358 0.0290249 -0.00371991 0.0273869 -0.00038634 0.978993 -0.97262 -71.255 -5.29887 0.03 320.455 
162 1 1 0.578695 0.535551 1.57665 0 0 0 1.50071 0.128926 -0.0560853 0.293575 -0.0893739 7.22442 -4.3914 -83.7413 14.5225 0.03 313.284 
118 1 1 0.170639 0.581419 1.59278 0 0 0 0.664038 0.780649 -0.229509 0 0 -2.77371 -5.52755 -94.4934 -0.180128 0.03 303.804 
152 1 1 0.243366 0.576028 1.59589 0 0 0 0.840711 0.470336 0.146774 0 0 -2.77371 -16.1363 -105.272 11.7114 0.03 308.026 
158 1 1 0.378969 0.577322 1.59417 0 0 0 2.02704 0.30677 -0.242646 0 0 -2.77371 -16.8304 -14.4877 -83.9116 0.03 303.616 
109 1 1 0.440666 0.567063 1.57768 0 0 0 2.05321 0.0388534 -0.0617053 0 0 -2.77371 -1.30285 -64.9992 -61.3685 0.03 306.507 
103 1 1 0.528854 0.571756 1.5808 0 0 0 1.7717 -0.0803159 -0.0720743 1.01124 -1.38339 0.353693 -5.26268 -62.7124 -32.6448 0.03 323.994 
113 1 1 0.783473 0.57599 1.58516 0 0 0 2.00679 -0.11778 -0.11781 9.78941e-05 -0.989988 -0.987586 5.57114 -83.4301 -10.8361 0.03 324.077 
87 1 1 0.437419 0.155317 1.60967 0 0 0 1.33163 -0.208856 0.103547 0.162076 -0.0184512 -2.59769 22.0832 24.8157 22.4937 0.03 303.454 
15 1 1 0.20818 0.221569 1.60415 0 0 0 0.513798 -0.724994 -0.438642 0 0 -2.77371 31.7253 35.3502 -0.377258 0.03 300.147 
49 1 1 0.323328 0.222452 1.63125 0 0 0 -0.68541 -0.161197 -0.496079 -25.7257 -20.6489 -45.1923 -15.8156 -7.65774 -22.0774 0.03 300.569 
173 1 1 0.402878 0.246434 1.61833 0 0 0 0.813989 -0.108716 -0.0578137 20.9432 -18.6009 10.9901 29.2474 8.74307 17.3778 0.03 300.285 
19 1 1 0.328215 0.299743 1.61339 0 0 0 0.410243 0.0970419 -1.27603 23.7319 -16.3165 -6.59867 -3.87265 7.81178 -3.16227 0.03 300.073 
91 1 1 0.230095 0.322537 1.60128 0 0 0 0.198606 -0.42717 -0.752621 60.0191 -17.3048 74.3163 24.6976 44.4493 -9.14829 0.03 300.6 
94 1 1 0.299525 0.35135 1.61722 0 0 0 1.04821 -0.0698061 -0.0476978 4.59531 0.792274 82.2965 12.0199 64.5176 5.38483 0.03 300.11 
167 1 1 0.49386 0.391039 1.60977 0 0 0 1.4218 0.307322 -0.496333 7.57011 2.69833 -0.832032 16.1966 -26.4753 37.784 0.03 300.821 
50 1 1 0.307519 0.4127 1.60456 0 0 0 0.851904 -0.0615967 -1.31607 0 0 -2.77371 24.1289 -28.6199 -23.6991 0.03 300.006 
145 1 1 0.417148 0.419697 1.63414 0 0 0 0.582289 0.398013 -0.10052 9.11149 20.4521 -15.7235 -4.58983 38.3411 -5.83872 0.03 300.761 
169 1 1 0.22291 0.478325 1.62654 0 0 0 -0.274177 0.621526 -1.73914 18.9579 -29.5776 -76.138 26.3215 4.00848 15.1092 0.03 300.122 
105 1 1 0.407657 0.477508 1.63293 0 0 0 0.780676 0.553131 0.534289 -1.83866 22.302 -7.23634 8.07836 55.6737 -0.644513 0.03 300.92 
9 1 1 0.478829 0.471691 1.62481 0 0 0 1.23488 0.738707 0.427002 -78.3063 -28.4427 -119.082 -14.0992 84.0292 6.40325 0.03 301.137 
83 1 1 0.533204 0.500171 1.62169 0 0 0 1.74324 0.50685 0.836691 0 0 -2.77371 5.00779 82.3266 13.0114 0.03 300.323 
140 1 1 0.821574 0.486142 1.62762 0 0 0 1.91018 0.0155893 -0.102642 0 0 -2.77371 -2.11596 -33.9412 0.440971 0.03 304.049 
117 1 1 0.189182 0.523861 1.60841 0 0 0 0.0822825 0.620544 -0.00608674 -35.1474 22.7084 9.15122 28.7929 29.8991 1.44466 0.03 300.098 
172 1 1 0.58876 0.594406 1.60502 0 0 0 1.85818 0.130942 0.122315 0 0 -2.77371 -10.1863 -62.2319 -39.3405 0.03 314.64 
139 1 1 0.137853 0.229319 1.62152 0 0 0 0 0 -3.05779 0 0 -2.77371 0 0 0 0.03 300 
88 1 1 0.496724 0.217418 1.64189 0 0 0 0.486854 -0.755272 -0.457217 3.28662 0.227605 5.13514 24.7395 9.99629 -14.8472 0.03 300.056 
80 1 1 0.572876 0.21618 1.64165 0 0 0 1.31915 -0.178642 0.301452 0 0 -2.77371 -11.1196 32.8548 -25.5688 0.03 300.208 
76 1 1 0.26148 0.275911 1.64604 0 0 0 -0.190618 -0.136055 0.528 0 0 -2.77371 -4.01766 52.0856 -11.0237 0.03 300.432 
155 1 1 0.476948 0.283058 1.64346 0 0 0 1.07041 0.326321 -0.111474 13.7562 -0.032937 14.9415 -8.48214 21.5983 6.77129 0.03 300.255 
46 1 1 0.571193 0.292765 1.63956 0 0 0 0.862533 -0.250172 0.0264745 0 0 -2.77371 -5.89946 10.5853 -21.4766 0.03 300.43 
51 1 1 0.202684 0.299219 1.65072 0 0 0 0.0366944 -1.19378 -1.12829 0 0 -2.77371 18.3346 -3.09735 0.665296 0.03 300.005 
159 1 1 0.516685 0.323741 1.65968 0 0 0 1.1478 0.359018 -0.36913 8.54732 6.53417 6.74598 34.9098 -6.11917 -2.97729 0.03 300.003 
132 1 1 0.172629 0.359026 1.63888 0 0 0 -0.482264 0.18063 0.203539 0 0 -2.77371 56.83 36.4985 7.29979 0.03 300.184 
20 1 1 0.402765 0.367114 1.65526 0 0 0 0.583527 0.417634 -1.0703 12.7001 -15.7701 8.20285 50.7087 -12.5042 -17.8806 0.03 300.011 
92 1 1 0.574004 0.353717 1.636 0 0 0 1.17175 -0.051805 -0.624328 0 0 -2.77371 -16.0651 -16.4362 11.1672 0.03 300.354 
151 1 1 0.524887 0.416236 1.65666 0 0 0 0.920216 0.372096 -0.926122 4.97711 -2.48713 -2.38834 -14.2753 5.82639 8.95629 0.03 300.006 
99 1 1 0.304945 0.516526 1.63383 0 0 0 0.869582 0.416371 -0.689206 -9.60734 -13.4104 -71.2228 -12.0387 -74.2083 18.3325 0.03 300.058 
27 1 1 0.35049 0.485849 1.6576 0 0 0 -0.419256 0.260896 -0.631522 0.152829 16.1369 74.019 2.38061 -74.0935 5.67458 0.03 300.008 
79 1 1 0.394194 0.547966 1.64821 0 0 0 1.06742 0.6841 -1.07413 -15.5639 69.7176 -25.2938 7.96137 9.92326 -29.0583 0.03 300.848 
18 1 1 0.45238 0.553264 1.63627 0 0 0 -0.179472 0.664575 -1.20602 37.3639 7.18407 -44.3592 22.7752 35.73 1.36695 0.03 300.104 
157 1 1 0.614462 0.550657 1.64238 0 0 0 1.64473 -0.000973832 0.436353 0 0 -2.77371 -18.9003 88.2493 6.98209 0.03 300.3 
156 1 1 0.411558 0.646875 1.66459 0 0 0 1.26011 0.305667 0.492296 0 0 -2.77371 -24.298 -57.1889 -50.7379 0.03 303.44 
78 1 1 0.288117 0.142145 1.69628 0 0 0 0.840524 -0.590493 -0.0449797 0 0 -2.77371 28.2436 73.2207 -0.414164 0.03 300.124 
125 1 1 0.347396 0.262926 1.66467 0 0 0 0.0245709 0.358753 -1.44672 -1.78461 35.4987 1.86691 -33.7138 11.5902 -5.30613 0.03 300.006 
7 1 1 0.441032 0.267634 1.69033 0 0 0 0.635827 0.0738943 -0.257209 0 0 -2.77371 4.13988 -48.6543 12.5829 0.03 300.002 
144 1 1 0.371981 0.319986 1.66921 0 0 0 -0.0289896 0.177102 -2.14216 -19.9729 -26.984 3.66219 -7.01574 2.28977 -0.567994 0.03 300 
56 1 1 0.459917 0.342779 1.67528 0 0 0 1.02314 -0.503867 -1.80854 0 0 -2.77371 1.78093 27.9977 10.6097 0.03 300 
133 1 1 0.794755 0.370779 1.66774 0 0 0 1.45209 0.340449 -0.536833 0 0 -2.77371 -5.42725 -57.2091 -15.3957 0.03 303.944 
77 1 1 0.218318 0.440584 1.66961 0 0 0 -0.0777708 -0.779227 -1.61602 1.54578 -16.042 7.14781 14.5631 -4.37621 -1.81217 0.03 300.001 
130 1 1 0.477956 0.444748 1.67906 0 0 0 1.45359 0.437559 0.435974 -4.97711 2.48713 -3.15909 26.7671 -53.2027 -18.8524 0.03 300.021 
57 1 1 0.253246 0.513135 1.66168 0 0 0 -0.663178 0.230583 -1.81838 28.9372 32.4598 48.0626 -11.0463 11.9076 2.56761 0.03 300 
149 1 1 0.458652 0.505839 1.66908 0 0 0 0.291499 -0.371665 -1.96734 75.8101 4.28587 122.288 32.5506 -11.4996 -8.272 0.03 300 
137 1 1 0.250314 0.231914 1.70367 0 0 0 0 0 -2.78174 0 0 -2.77371 0 0 0 0.03 300 
165 1 1 0.369105 0.236107 1.71049 0 0 0 0.427808 -0.101931 -1.34109 27.5104 -14.8498 35.0042 46.4264 14.6442 -12.6778 0.03 300 
104 1 1 0.324371 0.382136 1.6843 0 0 0 0 0 -2.84923 0 0 -2.77371 0 0 0 0.03 300 
24 1 1 0.438998 0.4074 1.72467 0 0 0 -0.278452 -0.743269 0.00308246 0 0 -2.77371 18.3192 0.117338 -0.0952221 0.03 300 
34 1 1 0.161462 0.479607 1.70999 0 0 0 0 0 -2.75937 0 0 -2.77371 0 0 0 0.03 300 
4 1 1 0.283869 0.446206 1.70958 0 0 0 0 0 -2.76085 0 0 -2.77371 0 0 0 0.03 300 
75 1 1 0.388936 0.516071 1.6944 0 0 0 0.342151 -0.354679 -1.07122 -19.3038 -52.7448 52.5788 52.3366 -32.6295 -16.8427 0.03 300.003 
2 1 1 0.383656 0.590674 1.70835 0 0 0 0.763244 1.14936 0.346 0 0 -2.77371 29.9697 -62.4635 12.0468 0.03 300.012 
12 1 1 0.150682 0.290471 1.72917 0 0 0 0 0 -2.69031 0 0 -2.77371 0 0 0 0.03 300 
115 1 1 0.29951 0.265646 1.7744 0 0 0 0 0 -2.52001 0 0 -2.77371 0 0 0 0.03 300 
21 1 1 0.18594 0.400862 1.76337 0 0 0 0 0 -2.56259 0 0 -2.77371 0 0 0 0.03 300 
126 1 1 0.387846 0.395075 1.77099 0 0 0 0 0 -2.53325 0 0 -2.77371 0 0 0 0.03 300 
114 1 1 0.101873 0.240116 1.82051 0 0 0 0 0 -2.33362 0 0 -2.77371 0 0 0 0.03 300 
1 1 1 0.44893 0.24186 1.82472 0 0 0 0 0 -2.31586 0 0 -2.77371 0 0 0 0.03 300 
170 1 1 0.448147 0.302404 1.79065 0 0 0 0 0 -2.45595 0 0 -2.77371 0 0 0 0.03 300 
11 1 1 0.20764 0.30353 1.81571 0 0 0 0 0 -2.35373 0 0 -2.77371 0 0 0 0.03 300 
160 1 1 0.115232 0.435564 1.79439 0 0 0 0 0 -2.44094 0 0 -2.77371 0 0 0 0.03 300 
106 1 1 0.375691 0.47682 1.81229 0 0 0 0 0 -2.36796 0 0 -2.77371 0 0 0 0.03 300 
129 1 1 0.201147 0.51232 1.81271 0 0 0 0 0 -2.36619 0 0 -2.77371 0 0 0 0.03 300 
26 1 1 0.474436 0.482152 1.81091 0 0 0 0 0 -2.37365 0 0 -2.77371 0 0 0 0.03 300 
33 1 1 0.10471 0.363257 1.84584 0 0 0 0 0 -2.22463 0 0 -2.77371 0 0 0 0.03 300 
71 1 1 0.27192 0.349064 1.82687 0 0 0 0 0 -2.30674 0 0 -2.77371 0 0 0 0.03 300 
35 1 1 0.342434 0.364463 1.85444 0 0 0 0 0 -2.18637 0 0 -2.77371 0 0 0 0.03 300 
154 1 1 0.211019 0.445658 1.8445 0 0 0 0 0 -2.23052 0 0 -2.77371 0 0 0 0.03 300 
89 1 1 0.26845 0.48437 1.84056 0 0 0 0 0 -2.24778 0 0 -2.77371 0 0 0 0.03 300 
161 1 1 0.383875 0.233035 1.87585 0 0 0 0 0 -2.08808 0 0 -2.77371 0 0 0 0.03 300 
127 1 1 0.381994 0.300043 1.88537 0 0 0 0 0 -2.04285 0 0 -2.77371 0 0 0 0.03 300 
141 1 1 0.429803 0.380165 1.88759 0 0 0 0 0 -2.03216 0 0 -2.77371 0 0 0 0.03 300 
38 1 1 0.303454 0.414467 1.86897 0 0 0 0 0 -2.12015 0 0 -2.77371 0 0 0 0.03 300 
111 1 1 0.473074 0.424163 1.89655 0 0 0 0 0 -1.98841 0 0 -2.77371 0 0 0 0.03 300 
146 1 1 0.495146 0.246598 1.90868 0 0 0 0 0 -1.92768 0 0 -2.77371 0 0 0 0.03 300 
44 1 1 0.485944 0.343638 1.90451 0 0 0 0 0 -1.94877 0 0 -2.77371 0 0 0 0.03 300 
166 1 1 0.165431 0.374869 1.91338 0 0 0 0 0 -1.90365 0 0 -2.77371 0 0 0 0.03 300 
28 1 1 0.222318 0.404493 1.9315 0 0 0 0 0 -1.8078 0 0 -2.77371 0 0 0 0.03 300 
119 1 1 0.126835 0.482642 1.91218 0 0 0 0 0 -1.90983 0 0 -2.77371 0 0 0 0.03 300 
90 1 1 0.102204 0.238351 1.96693 0 0 0 0 0 -1.60405 0 0 -2.77371 0 0 0 0.03 300 
97 1 1 0.184928 0.234672 1.94567 0 0 0 0 0 -1.72923 0 0 -2.77371 0 0 0 0.03 300 
74 1 1 0.248328 0.247523 1.95543 0 0 0 0 0 -1.67292 0 0 -2.77371 0 0 0 0.03 300 
62 1 1 0.329189 0.252757 1.97117 0 0 0 0 0 -1.57796 0 0 -2.77371 0 0 0 0.03 300 
5 1 1 0.160428 0.3182 1.95575 0 0 0 0 0 -1.67105 0 0 -2.77371 0 0 0 0.03 300 
175 1 1 0.230789 0.339127 1.9618 0 0 0 0 0 -1.63515 0 0 -2.77371 0 0 0 0.03 300 
93 1 1 0.225968 0.488444 1.94365 0 0 0 0 0 -1.74061 0 0 -2.77371 0 0 0 0.03 300 
134 1 1 0.443832 0.509496 1.95538 0 0 0 0 0 -1.67321 0 0 -2.77371 0 0 0 0.03 300 
43 1 1 0.460616 0.284913 1.98431 0 0 0 0 0 -1.49398 0 0 -2.77371 0 0 0 0.03 300 
95 1 1 0.346797 0.327727 1.97801 0 0 0 0 0 -1.53479 0 0 -2.77371 0 0 0 0.03 300 
25 1 1 0.278223 0.363632 2.00589 0 0 0 0 0 -1.34487 0 0 -2.77371 0 0 0 0.03 300 
116 1 1 0.152794 0.405213 1.99669 0 0 0 0 0 -1.4104 0 0 -2.77371 0 0 0 0.03 300 
128 1 1 0.355123 0.421294 1.98516 0 0 0 0 0 -1.48839 0 0 -2.77371 0 0 0 0.03 300 
37 1 1 0.41824 0.41741 1.97402 0 0 0 0 0 -1.5601 0 0 -2.77371 0 0 0 0.03 300 
138 1 1 0.301221 0.470777 2.00206 0 0 0 0 0 -1.37253 0 0 -2.77371 0 0 0 0.03 300 
17 1 1 0.345254 0.512161 1.97433 0 0 0 0 0 -1.55814 0 0 -2.77371 0 0 0 0.03 300 
40 1 1 0.408343 0.240904 2.01741 0 0 0 0 0 -1.25805 0 0 -2.77371 0 0 0 0.03 300 
31 1 1 0.221691 0.336081 2.04235 0 0 0 0 0 -1.04557 0 0 -2.77371 0 0 0 0.03 300 
68 1 1 0.400811 0.324654 2.02228 0 0 0 0 0 -1.2195 0 0 -2.77371 0 0 0 0.03 300 
123 1 1 0.48159 0.360101 2.00928 0 0 0 0 0 -1.31995 0 0 -2.77371 0 0 0 0.03 300 
84 1 1 0.227036 0.399722 2.03172 0 0 0 0 0 -1.14102 0 0 -2.77371 0 0 0 0.03 300 
98 1 1 0.491139 0.43458 2.01473 0 0 0 0 0 -1.27875 0 0 -2.77371 0 0 0 0.03 300 
55 1 1 0.200976 0.455034 2.02658 0 0 0 0 0 -1.18438 0 0 -2.77371 0 0 0 0.03 300 
136 1 1 0.374023 0.456818 2.04257 0 0 0 0 0 -1.04361 0 0 -2.77371 0 0 0 0.03 300 
72 1 1 0.10161 0.511094 2.01914 0 0 0 0 0 -1.24451 0 0 -2.77371 0 0 0 0.03 300 
48 1 1 0.17066 0.517967 2.03564 0 0 0 0 0 -1.10678 0 0 -2.77371 0 0 0 0.03 300 
22 1 1 0.254767 0.230824 2.05097 0 0 0 -0 -0 -1 0 0 0 0 0 0 0.03 300 
73 1 1 0.170916 0.265084 2.05451 0 0 0 -0 -0 -1 0 0 0 0 0 0 0.03 300 
171 1 1 0.477654 0.251099 2.05033 0 0 0 -0 -0 -1 0 0 0 0 0 0 0.03 300 
110 1 1 0.10205 0.273683 2.05359 0 0 0 -0 -0 -1 0 0 0 0 0 0 0.03 300 
164 1 1 0.244978 0.28843 2.07115 0 0 0 -0 -0 -1 0 0 0 0 0 0 0.03 300 
107 1 1 0.303471 0.271065 2.0597 0 0 0 -0 -0 -1 0 0 0 0 0 0 0.03 300 
70 1 1 0.142707 0.355749 2.06494 0 0 0 -0 -0 -1 0 0 0 0 0 0 0.03 300 
53 1 1 0.294932 0.364362 2.07 0 0 0 -0 -0 -1 0 0 0 0 0 0 0.03 300 
102 1 1 0.419044 0.351535 2.07593 0 0 0 -0 -0 -1 0 0 0 0 0 0 0.03 300 
176 1 1 0.349719 0.399621 2.07537 0 0 0 -0 -0 -1 0 0 0 0 0 0 0.03 300 
153 1 1 0.496538 0.392613 2.06762 0 0 0 -0 -0 -1 0 0 0 0 0 0 0.03 300 
148 1 1 0.12082 0.460146 2.05005 0 0 0 -0 -0 -1 0 0 0 0 0 0 0.03 300 
6 1 1 0.317689 0.454971 2.0724 0 0 0 -0 -0 -1 0 0 0 0 0 0 0.03 300 
147 1 1 0.248507 0.49546 2.07684 0 0 0 -0 -0 -1 0 0 0 0 0 0 0.03 300 
65 1 1 0.421483 0.499457 2.05254 0 0 0 -0 -0 -1 0 0 0 0 0 0 0.03 300 
150 1 1 0.481625 0.503918 2.0572 0 0 0 -0 -0 -1 0 0 0 0 0 0 0.03 300 
52 1 1 0.358392 0.516981 2.07661 0 0 0 -0 -0 -1 0 0 0 0 0 0 0.03 300 
