ITEM: TIMESTEP
19000
ITEM: NUMBER OF ATOMS
176
ITEM: BOX BOUNDS ff ff ff
0 3.3
-0.3 0.8
-0.5 3
ITEM: ATOMS id type type x y z ix iy iz vx vy vz fx fy fz omegax omegay omegaz radius f_Temp[0] 
67 1 1 0.351021 0.24345 1.78017 0 0 0 0 0 -2.49745 0 0 -2.77371 0 0 0 0.03 300 
142 1 1 0.271856 0.292457 1.77556 0 0 0 0 0 -2.5155 0 0 -2.77371 0 0 0 0.03 300 
124 1 1 0.108395 0.326026 1.77387 0 0 0 0 0 -2.52207 0 0 -2.77371 0 0 0 0.03 300 
86 1 1 0.19434 0.331338 1.7694 0 0 0 0 0 -2.53943 0 0 -2.77371 0 0 0 0.03 300 
23 1 1 0.298609 0.364728 1.78408 0 0 0 0 0 -2.48205 0 0 -2.77371 0 0 0 0.03 300 
82 1 1 0.468787 0.384733 1.77624 0 0 0 0 0 -2.51285 0 0 -2.77371 0 0 0 0.03 300 
140 1 1 0.46939 0.484878 1.76345 0 0 0 0 0 -2.56229 0 0 -2.77371 0 0 0 0.03 300 
113 1 1 0.369388 0.526215 1.76381 0 0 0 0 0 -2.56092 0 0 -2.77371 0 0 0 0.03 300 
108 1 1 0.171365 0.231672 1.8138 0 0 0 0 0 -2.36168 0 0 -2.77371 0 0 0 0.03 300 
41 1 1 0.102233 0.267031 1.80489 0 0 0 0 0 -2.39837 0 0 -2.77371 0 0 0 0.03 300 
8 1 1 0.355542 0.30862 1.82137 0 0 0 0 0 -2.32999 0 0 -2.77371 0 0 0 0.03 300 
133 1 1 0.471209 0.311123 1.79576 0 0 0 0 0 -2.43545 0 0 -2.77371 0 0 0 0.03 300 
96 1 1 0.363069 0.380034 1.80032 0 0 0 0 0 -2.41701 0 0 -2.77371 0 0 0 0.03 300 
10 1 1 0.242338 0.433913 1.81024 0 0 0 0 0 -2.37639 0 0 -2.77371 0 0 0 0.03 300 
54 1 1 0.278399 0.490166 1.822 0 0 0 0 0 -2.32734 0 0 -2.77371 0 0 0 0.03 300 
14 1 1 0.416144 0.265826 1.84859 0 0 0 0 0 -2.21247 0 0 -2.77371 0 0 0 0.03 300 
163 1 1 0.105414 0.438662 1.84298 0 0 0 0 0 -2.23719 0 0 -2.77371 0 0 0 0.03 300 
30 1 1 0.179788 0.4242 1.83231 0 0 0 0 0 -2.28349 0 0 -2.77371 0 0 0 0.03 300 
32 1 1 0.353388 0.44487 1.82669 0 0 0 0 0 -2.30753 0 0 -2.77371 0 0 0 0.03 300 
122 1 1 0.225457 0.365207 1.8822 0 0 0 0 0 -2.05806 0 0 -2.77371 0 0 0 0.03 300 
100 1 1 0.448041 0.468779 1.8884 0 0 0 0 0 -2.02824 0 0 -2.77371 0 0 0 0.03 300 
63 1 1 0.14636 0.503077 1.8847 0 0 0 0 0 -2.04609 0 0 -2.77371 0 0 0 0.03 300 
103 1 1 0.209546 0.484752 1.86086 0 0 0 0 0 -2.15733 0 0 -2.77371 0 0 0 0.03 300 
120 1 1 0.108446 0.229956 1.92511 0 0 0 0 0 -1.84214 0 0 -2.77371 0 0 0 0.03 300 
47 1 1 0.261488 0.255288 1.90755 0 0 0 0 0 -1.93337 0 0 -2.77371 0 0 0 0.03 300 
112 1 1 0.200031 0.295208 1.92667 0 0 0 0 0 -1.8338 0 0 -2.77371 0 0 0 0.03 300 
45 1 1 0.40205 0.339714 1.89824 0 0 0 0 0 -1.98007 0 0 -2.77371 0 0 0 0.03 300 
174 1 1 0.478905 0.416329 1.90636 0 0 0 0 0 -1.93945 0 0 -2.77371 0 0 0 0.03 300 
172 1 1 0.339305 0.526873 1.92142 0 0 0 0 0 -1.86166 0 0 -2.77371 0 0 0 0.03 300 
85 1 1 0.47306 0.247248 1.94303 0 0 0 0 0 -1.74414 0 0 -2.77371 0 0 0 0.03 300 
60 1 1 0.321495 0.290282 1.93533 0 0 0 0 0 -1.78691 0 0 -2.77371 0 0 0 0.03 300 
87 1 1 0.377721 0.27376 1.96541 0 0 0 0 0 -1.61337 0 0 -2.77371 0 0 0 0.03 300 
64 1 1 0.141892 0.342884 1.94015 0 0 0 0 0 -1.76023 0 0 -2.77371 0 0 0 0.03 300 
131 1 1 0.248477 0.419376 1.95692 0 0 0 0 0 -1.66419 0 0 -2.77371 0 0 0 0.03 300 
79 1 1 0.320497 0.448247 1.93939 0 0 0 0 0 -1.76444 0 0 -2.77371 0 0 0 0.03 300 
39 1 1 0.380355 0.466663 1.94161 0 0 0 0 0 -1.75208 0 0 -2.77371 0 0 0 0.03 300 
162 1 1 0.428387 0.521279 1.93404 0 0 0 0 0 -1.79397 0 0 -2.77371 0 0 0 0.03 300 
78 1 1 0.178322 0.227864 1.9962 0 0 0 0 0 -1.41383 0 0 -2.77371 0 0 0 0.03 300 
13 1 1 0.121033 0.279919 1.98203 0 0 0 0 0 -1.50889 0 0 -2.77371 0 0 0 0.03 300 
59 1 1 0.253616 0.343212 1.98537 0 0 0 0 0 -1.48702 0 0 -2.77371 0 0 0 0.03 300 
29 1 1 0.368876 0.379155 2.00736 0 0 0 0 0 -1.33408 0 0 -2.77371 0 0 0 0.03 300 
36 1 1 0.450724 0.395688 2.00467 0 0 0 0 0 -1.3537 0 0 -2.77371 0 0 0 0.03 300 
152 1 1 0.163069 0.521312 1.99597 0 0 0 0 0 -1.4154 0 0 -2.77371 0 0 0 0.03 300 
109 1 1 0.275498 0.521202 1.98821 0 0 0 0 0 -1.46818 0 0 -2.77371 0 0 0 0.03 300 
168 1 1 0.476176 0.52212 2.00154 0 0 0 0 0 -1.37626 0 0 -2.77371 0 0 0 0.03 300 
46 1 1 0.47999 0.300848 2.0121 0 0 0 0 0 -1.29876 0 0 -2.77371 0 0 0 0.03 300 
173 1 1 0.336956 0.309745 2.03118 0 0 0 0 0 -1.14563 0 0 -2.77371 0 0 0 0.03 300 
69 1 1 0.10427 0.421706 2.03479 0 0 0 0 0 -1.11424 0 0 -2.77371 0 0 0 0.03 300 
145 1 1 0.320399 0.410893 2.03141 0 0 0 0 0 -1.14367 0 0 -2.77371 0 0 0 0.03 300 
167 1 1 0.400748 0.432213 2.02285 0 0 0 0 0 -1.21489 0 0 -2.77371 0 0 0 0.03 300 
121 1 1 0.170319 0.453329 2.03417 0 0 0 0 0 -1.11973 0 0 -2.77371 0 0 0 0.03 300 
99 1 1 0.274564 0.455213 2.04449 0 0 0 0 0 -1.02536 0 0 -2.77371 0 0 0 0.03 300 
66 1 1 0.47867 0.463 2.0161 0 0 0 0 0 -1.26825 0 0 -2.77371 0 0 0 0.03 300 
156 1 1 0.35506 0.52072 2.04215 0 0 0 0 0 -1.04753 0 0 -2.77371 0 0 0 0.03 300 
58 1 1 0.112056 0.26459 2.06511 0 0 0 -0 -0 -1 0 0 0 0 0 0 0.03 300 
49 1 1 0.281286 0.254094 2.04586 0 0 0 0 0 -1.01212 0 0 -2.77371 0 0 0 0.03 300 
155 1 1 0.415544 0.252674 2.04662 0 0 0 0 0 -1.00476 0 0 -2.77371 0 0 0 0.03 300 
101 1 1 0.162335 0.320161 2.0522 0 0 0 -0 -0 -1 0 0 0 0 0 0 0.03 300 
91 1 1 0.235855 0.316318 2.05734 0 0 0 -0 -0 -1 0 0 0 0 0 0 0.03 300 
81 1 1 0.388958 0.319017 2.06434 0 0 0 -0 -0 -1 0 0 0 0 0 0 0.03 300 
42 1 1 0.226232 0.388276 2.04692 0 0 0 0 0 -1.00181 0 0 -2.77371 0 0 0 0.03 300 
130 1 1 0.385847 0.398302 2.07535 0 0 0 -0 -0 -1 0 0 0 0 0 0 0.03 300 
92 1 1 0.481853 0.374694 2.06939 0 0 0 -0 -0 -1 0 0 0 0 0 0 0.03 300 
105 1 1 0.377689 0.467755 2.06796 0 0 0 -0 -0 -1 0 0 0 0 0 0 0.03 300 
18 1 1 0.427577 0.512648 2.04763 0 0 0 -0 -0 -1 0 0 0 0 0 0 0.03 300 
118 1 1 0.120657 0.516447 2.05978 0 0 0 -0 -0 -1 0 0 0 0 0 0 0.03 300 
158 1 1 0.2596 0.52473 2.0734 0 0 0 -0 -0 -1 0 0 0 0 0 0 0.03 300 
157 1 1 0.485815 0.521722 2.07134 0 0 0 -0 -0 -1 0 0 0 0 0 0 0.03 300 
15 1 1 0.188775 0.261917 2.09056 0 0 0 -0 -0 -1 0 0 0 0 0 0 0.03 300 
80 1 1 0.478513 0.241448 2.08413 0 0 0 -0 -0 -1 0 0 0 0 0 0 0.03 300 
76 1 1 0.262374 0.280345 2.09987 0 0 0 -0 -0 -1 0 0 0 0 0 0 0.03 300 
159 1 1 0.463712 0.3119 2.10984 0 0 0 -0 -0 -1 0 0 0 0 0 0 0.03 300 
3 1 1 0.103577 0.34242 2.11356 0 0 0 -0 -0 -1 0 0 0 0 0 0 0.03 300 
132 1 1 0.181507 0.370772 2.11538 0 0 0 -0 -0 -1 0 0 0 0 0 0 0.03 300 
143 1 1 0.326798 0.368865 2.08847 0 0 0 -0 -0 -1 0 0 0 0 0 0 0.03 300 
135 1 1 0.110104 0.424702 2.09578 0 0 0 -0 -0 -1 0 0 0 0 0 0 0.03 300 
50 1 1 0.301622 0.417346 2.11549 0 0 0 -0 -0 -1 0 0 0 0 0 0 0.03 300 
61 1 1 0.174746 0.456274 2.09564 0 0 0 -0 -0 -1 0 0 0 0 0 0 0.03 300 
169 1 1 0.252456 0.475054 2.11084 0 0 0 -0 -0 -1 0 0 0 0 0 0 0.03 300 
9 1 1 0.441781 0.458388 2.09688 0 0 0 -0 -0 -1 0 0 0 0 0 0 0.03 300 
117 1 1 0.191604 0.522741 2.08687 0 0 0 -0 -0 -1 0 0 0 0 0 0 0.03 300 
2 1 1 0.337972 0.524085 2.10555 0 0 0 -0 -0 -1 0 0 0 0 0 0 0.03 300 
139 1 1 0.137853 0.229319 2.14735 0 0 0 -0 -0 -1 0 0 0 0 0 0 0.03 300 
88 1 1 0.486268 0.228152 2.14553 0 0 0 -0 -0 -1 0 0 0 0 0 0 0.03 300 
125 1 1 0.33817 0.237417 2.12459 0 0 0 -0 -0 -1 0 0 0 0 0 0 0.03 300 
7 1 1 0.417913 0.266516 2.14805 0 0 0 -0 -0 -1 0 0 0 0 0 0 0.03 300 
19 1 1 0.315839 0.298576 2.127 0 0 0 -0 -0 -1 0 0 0 0 0 0 0.03 300 
51 1 1 0.201805 0.313726 2.14925 0 0 0 -0 -0 -1 0 0 0 0 0 0 0.03 300 
94 1 1 0.273851 0.347383 2.13506 0 0 0 -0 -0 -1 0 0 0 0 0 0 0.03 300 
20 1 1 0.379347 0.368828 2.12897 0 0 0 -0 -0 -1 0 0 0 0 0 0 0.03 300 
151 1 1 0.494801 0.397371 2.12852 0 0 0 -0 -0 -1 0 0 0 0 0 0 0.03 300 
27 1 1 0.362553 0.476213 2.13257 0 0 0 -0 -0 -1 0 0 0 0 0 0 0.03 300 
16 1 1 0.119943 0.514428 2.12329 0 0 0 -0 -0 -1 0 0 0 0 0 0 0.03 300 
83 1 1 0.499782 0.483801 2.11999 0 0 0 -0 -0 -1 0 0 0 0 0 0 0.03 300 
137 1 1 0.250314 0.231914 2.17548 0 0 0 -0 -0 -1 0 0 0 0 0 0 0.03 300 
165 1 1 0.36833 0.235983 2.17656 0 0 0 -0 -0 -1 0 0 0 0 0 0 0.03 300 
12 1 1 0.150682 0.290471 2.1848 0 0 0 -0 -0 -1 0 0 0 0 0 0 0.03 300 
144 1 1 0.368613 0.311971 2.16108 0 0 0 -0 -0 -1 0 0 0 0 0 0 0.03 300 
56 1 1 0.445152 0.350079 2.15959 0 0 0 -0 -0 -1 0 0 0 0 0 0 0.03 300 
104 1 1 0.324371 0.382136 2.1686 0 0 0 -0 -0 -1 0 0 0 0 0 0 0.03 300 
77 1 1 0.218563 0.442358 2.16235 0 0 0 -0 -0 -1 0 0 0 0 0 0 0.03 300 
24 1 1 0.44361 0.420007 2.16405 0 0 0 -0 -0 -1 0 0 0 0 0 0 0.03 300 
34 1 1 0.161462 0.479607 2.17776 0 0 0 -0 -0 -1 0 0 0 0 0 0 0.03 300 
4 1 1 0.283869 0.446206 2.17761 0 0 0 -0 -0 -1 0 0 0 0 0 0 0.03 300 
57 1 1 0.255601 0.512634 2.15984 0 0 0 -0 -0 -1 0 0 0 0 0 0 0.03 300 
149 1 1 0.457968 0.50649 2.16254 0 0 0 -0 -0 -1 0 0 0 0 0 0 0.03 300 
75 1 1 0.387927 0.516304 2.17092 0 0 0 -0 -0 -1 0 0 0 0 0 0 0.03 300 
115 1 1 0.29951 0.265646 2.20216 0 0 0 -0 -0 -1 0 0 0 0 0 0 0.03 300 
170 1 1 0.448147 0.302404 2.20869 0 0 0 -0 -0 -1 0 0 0 0 0 0 0.03 300 
11 1 1 0.20764 0.30353 2.21911 0 0 0 -0 -0 -1 0 0 0 0 0 0 0.03 300 
21 1 1 0.18594 0.400862 2.19782 0 0 0 -0 -0 -1 0 0 0 0 0 0 0.03 300 
126 1 1 0.387846 0.395075 2.20081 0 0 0 -0 -0 -1 0 0 0 0 0 0 0.03 300 
160 1 1 0.115232 0.435564 2.21022 0 0 0 -0 -0 -1 0 0 0 0 0 0 0.03 300 
106 1 1 0.375691 0.47682 2.21766 0 0 0 -0 -0 -1 0 0 0 0 0 0 0.03 300 
129 1 1 0.201147 0.51232 2.21784 0 0 0 -0 -0 -1 0 0 0 0 0 0 0.03 300 
26 1 1 0.474436 0.482152 2.21708 0 0 0 -0 -0 -1 0 0 0 0 0 0 0.03 300 
114 1 1 0.101873 0.240116 2.22116 0 0 0 -0 -0 -1 0 0 0 0 0 0 0.03 300 
161 1 1 0.383875 0.233035 2.2462 0 0 0 -0 -0 -1 0 0 0 0 0 0 0.03 300 
1 1 1 0.44893 0.24186 2.22297 0 0 0 -0 -0 -1 0 0 0 0 0 0 0.03 300 
127 1 1 0.381994 0.300043 2.2508 0 0 0 -0 -0 -1 0 0 0 0 0 0 0.03 300 
33 1 1 0.10471 0.363257 2.23227 0 0 0 -0 -0 -1 0 0 0 0 0 0 0.03 300 
71 1 1 0.27192 0.349064 2.2239 0 0 0 -0 -0 -1 0 0 0 0 0 0 0.03 300 
35 1 1 0.342434 0.364463 2.23618 0 0 0 -0 -0 -1 0 0 0 0 0 0 0.03 300 
141 1 1 0.429803 0.380165 2.25189 0 0 0 -0 -0 -1 0 0 0 0 0 0 0.03 300 
38 1 1 0.303454 0.414467 2.24292 0 0 0 -0 -0 -1 0 0 0 0 0 0 0.03 300 
154 1 1 0.211019 0.445658 2.23167 0 0 0 -0 -0 -1 0 0 0 0 0 0 0.03 300 
89 1 1 0.26845 0.48437 2.22991 0 0 0 -0 -0 -1 0 0 0 0 0 0 0.03 300 
97 1 1 0.184928 0.234672 2.28277 0 0 0 -0 -0 -1 0 0 0 0 0 0 0.03 300 
74 1 1 0.248328 0.247523 2.28851 0 0 0 -0 -0 -1 0 0 0 0 0 0 0.03 300 
146 1 1 0.495146 0.246598 2.26254 0 0 0 -0 -0 -1 0 0 0 0 0 0 0.03 300 
5 1 1 0.160428 0.3182 2.28871 0 0 0 -0 -0 -1 0 0 0 0 0 0 0.03 300 
44 1 1 0.485944 0.343638 2.26039 0 0 0 -0 -0 -1 0 0 0 0 0 0 0.03 300 
166 1 1 0.165431 0.374869 2.26499 0 0 0 -0 -0 -1 0 0 0 0 0 0 0.03 300 
28 1 1 0.222318 0.404493 2.27476 0 0 0 -0 -0 -1 0 0 0 0 0 0 0.03 300 
111 1 1 0.473074 0.424163 2.25635 0 0 0 -0 -0 -1 0 0 0 0 0 0 0.03 300 
119 1 1 0.126835 0.482642 2.26437 0 0 0 -0 -0 -1 0 0 0 0 0 0 0.03 300 
93 1 1 0.225968 0.488444 2.28161 0 0 0 -0 -0 -1 0 0 0 0 0 0 0.03 300 
134 1 1 0.443832 0.509496 2.28848 0 0 0 -0 -0 -1 0 0 0 0 0 0 0.03 300 
90 1 1 0.102204 0.238351 2.29553 0 0 0 -0 -0 -1 0 0 0 0 0 0 0.03 300 
62 1 1 0.329189 0.252757 2.2982 0 0 0 -0 -0 -1 0 0 0 0 0 0 0.03 300 
43 1 1 0.460616 0.284913 2.30675 0 0 0 -0 -0 -1 0 0 0 0 0 0 0.03 300 
95 1 1 0.346797 0.327727 2.30259 0 0 0 -0 -0 -1 0 0 0 0 0 0 0.03 300 
175 1 1 0.230789 0.339127 2.29237 0 0 0 -0 -0 -1 0 0 0 0 0 0 0.03 300 
25 1 1 0.278223 0.363632 2.32196 0 0 0 -0 -0 -1 0 0 0 0 0 0 0.03 300 
123 1 1 0.48159 0.360101 2.32449 0 0 0 -0 -0 -1 0 0 0 0 0 0 0.03 300 
116 1 1 0.152794 0.405213 2.31527 0 0 0 -0 -0 -1 0 0 0 0 0 0 0.03 300 
128 1 1 0.355123 0.421294 2.30732 0 0 0 -0 -0 -1 0 0 0 0 0 0 0.03 300 
37 1 1 0.41824 0.41741 2.30001 0 0 0 -0 -0 -1 0 0 0 0 0 0 0.03 300 
138 1 1 0.301221 0.470777 2.31913 0 0 0 -0 -0 -1 0 0 0 0 0 0 0.03 300 
17 1 1 0.345254 0.512161 2.30021 0 0 0 -0 -0 -1 0 0 0 0 0 0 0.03 300 
40 1 1 0.408343 0.240904 2.3308 0 0 0 -0 -0 -1 0 0 0 0 0 0 0.03 300 
171 1 1 0.477654 0.251099 2.36033 0 0 0 -0 -0 -1 0 0 0 0 0 0 0.03 300 
31 1 1 0.221691 0.336081 2.35246 0 0 0 -0 -0 -1 0 0 0 0 0 0 0.03 300 
68 1 1 0.400811 0.324654 2.33473 0 0 0 -0 -0 -1 0 0 0 0 0 0 0.03 300 
84 1 1 0.227036 0.399722 2.34273 0 0 0 -0 -0 -1 0 0 0 0 0 0 0.03 300 
98 1 1 0.491139 0.43458 2.32869 0 0 0 -0 -0 -1 0 0 0 0 0 0 0.03 300 
148 1 1 0.12082 0.460146 2.36005 0 0 0 -0 -0 -1 0 0 0 0 0 0 0.03 300 
55 1 1 0.200976 0.455034 2.33831 0 0 0 -0 -0 -1 0 0 0 0 0 0 0.03 300 
136 1 1 0.374023 0.456818 2.35267 0 0 0 -0 -0 -1 0 0 0 0 0 0 0.03 300 
72 1 1 0.10161 0.511094 2.33218 0 0 0 -0 -0 -1 0 0 0 0 0 0 0.03 300 
48 1 1 0.17066 0.517967 2.34622 0 0 0 -0 -0 -1 0 0 0 0 0 0 0.03 300 
22 1 1 0.254767 0.230824 2.36097 0 0 0 -0 -0 -1 0 0 0 0 0 0 0.03 300 
73 1 1 0.170916 0.265084 2.36451 0 0 0 -0 -0 -1 0 0 0 0 0 0 0.03 300 
110 1 1 0.10205 0.273683 2.36359 0 0 0 -0 -0 -1 0 0 0 0 0 0 0.03 300 
164 1 1 0.244978 0.28843 2.38115 0 0 0 -0 -0 -1 0 0 0 0 0 0 0.03 300 
107 1 1 0.303471 0.271065 2.3697 0 0 0 -0 -0 -1 0 0 0 0 0 0 0.03 300 
70 1 1 0.142707 0.355749 2.37494 0 0 0 -0 -0 -1 0 0 0 0 0 0 0.03 300 
53 1 1 0.294932 0.364362 2.38 0 0 0 -0 -0 -1 0 0 0 0 0 0 0.03 300 
102 1 1 0.419044 0.351535 2.38593 0 0 0 -0 -0 -1 0 0 0 0 0 0 0.03 300 
176 1 1 0.349719 0.399621 2.38537 0 0 0 -0 -0 -1 0 0 0 0 0 0 0.03 300 
153 1 1 0.496538 0.392613 2.37762 0 0 0 -0 -0 -1 0 0 0 0 0 0 0.03 300 
6 1 1 0.317689 0.454971 2.3824 0 0 0 -0 -0 -1 0 0 0 0 0 0 0.03 300 
147 1 1 0.248507 0.49546 2.38684 0 0 0 -0 -0 -1 0 0 0 0 0 0 0.03 300 
65 1 1 0.421483 0.499457 2.36254 0 0 0 -0 -0 -1 0 0 0 0 0 0 0.03 300 
150 1 1 0.481625 0.503918 2.3672 0 0 0 -0 -0 -1 0 0 0 0 0 0 0.03 300 
52 1 1 0.358392 0.516981 2.38661 0 0 0 -0 -0 -1 0 0 0 0 0 0 0.03 300 
