ITEM: TIMESTEP
78000
ITEM: NUMBER OF ATOMS
353
ITEM: BOX BOUNDS ff ff ff
0 3.3
-0.3 0.8
-0.5 3
ITEM: ATOMS id type type x y z ix iy iz vx vy vz fx fy fz omegax omegay omegaz radius f_Temp[0] 
58 1 1 0.544088 0.168846 1.59401 0 0 0 1.62782 -0.149204 0.0935557 -0.78103 -2.57095 -3.85578 3.72193 -84.0534 27.8616 0.03 342.605 
161 1 1 0.605482 0.173741 1.58772 0 0 0 2.10409 0.166969 -0.0629655 3.9219 16.482 11.6683 -10.2579 48.9144 5.68867 0.03 303.208 
15 1 1 0.66454 0.167874 1.59508 0 0 0 1.81454 0.263852 -0.248784 9.45993 3.39274 2.6502 -7.97541 -69.3626 31.2127 0.03 330.554 
120 1 1 0.801291 0.192639 1.57669 0 0 0 2.26264 0.364657 -0.00391278 0.188137 -4.99333 3.13622 -11.3883 -58.5504 13.2441 0.03 348.037 
1 1 1 0.960312 0.192016 1.57684 0 0 0 2.9402 0.0809887 -0.0125301 -0.194551 -0.0793426 0.966733 -2.47386 -36.1971 20.3899 0.03 320.224 
47 1 1 1.18938 0.186235 1.57686 0 0 0 2.31887 0.0371946 -0.0148295 -1.71057 -0.317106 0.804766 -0.474129 -60.0774 12.5673 0.03 352.22 
67 1 1 1.30797 0.186581 1.57703 0 0 0 2.42405 -0.234476 -0.00484241 -0.20292 1.47071 -1.5345 5.93508 -52.8845 18.6785 0.03 348.343 
85 1 1 1.38042 0.193148 1.58037 0 0 0 2.54276 -0.111725 -0.0189323 0 0 -2.77371 4.87728 -48.6149 15.4361 0.03 327.293 
45 1 1 1.58078 0.196664 1.57686 0 0 0 3.31512 0.1179 4.26327e-05 -5.88291e-05 1.01267e-05 0.00248079 -3.94614 -22.9232 13.9821 0.03 343.093 
90 1 1 0.231506 0.225458 1.5773 0 0 0 1.34014 0.00905666 0.101476 0 0 -2.77371 -0.268677 -88.9251 16.2661 0.03 316.838 
91 1 1 0.548144 0.226022 1.57799 0 0 0 2.00376 -0.262911 0.0806338 0.654826 7.21566 -1.84355 -5.94539 -67.8063 0.493989 0.03 328.802 
13 1 1 0.667554 0.226069 1.57688 0 0 0 1.63378 0.37682 -0.0031526 0.0145913 -0.00626054 -0.0866911 -12.6031 -79.1671 33.3457 0.03 359.62 
108 1 1 1.01933 0.203733 1.57694 0 0 0 2.91489 0.105394 0.0117404 0.0744089 -0.0698691 -1.71749 -3.77056 -36.3474 2.95982 0.03 362.579 
60 1 1 1.12551 0.202763 1.57686 0 0 0 2.18769 -0.106543 3.47623e-05 -0.000122147 -7.18431e-06 0.00317889 3.56603 -60.6582 15.918 0.03 341.561 
142 1 1 1.24231 0.221263 1.57686 0 0 0 2.14614 -0.119159 0.000108868 -0.000465706 -1.08728e-05 -0.0156982 3.98816 -62.0474 -8.85874 0.03 357.625 
5 1 1 0.307302 0.25818 1.57662 0 0 0 1.58935 0.0903327 -0.501006 11.8036 2.96974 24.2441 -18.78 15.101 -24.9001 0.03 303.687 
12 1 1 0.38316 0.241705 1.57673 0 0 0 1.31758 -0.0963355 -0.137311 -18.1148 -11.2085 -8.6091 -0.733507 -72.2569 25.319 0.03 322.29 
95 1 1 0.439475 0.249253 1.59104 0 0 0 1.2535 0.00549191 -0.136226 24.5885 8.83937 16.535 10.0352 74.7763 -25.2341 0.03 300.47 
41 1 1 0.983103 0.254051 1.57698 0 0 0 2.4944 0.00525483 -0.10152 0.948977 -2.31047 2.22183 6.78598 -47.3832 -2.53417 0.03 342.65 
112 1 1 1.05556 0.251727 1.57686 0 0 0 2.27308 0.199002 -2.82594e-05 0.000104455 -1.20369e-05 -7.37686e-05 -6.66057 -57.7999 -18.9158 0.03 350.463 
86 1 1 1.17438 0.253329 1.57686 0 0 0 2.09038 0.000186224 -8.65232e-08 4.40304e-07 -4.29676e-11 1.95981e-05 -0.00623289 -63.9147 -8.90786 0.03 360.53 
23 1 1 1.29875 0.245684 1.57673 0 0 0 2.26661 -0.162474 0.012391 0.499077 -3.43135 1.29846 7.70277 -57.8034 -13.131 0.03 356.83 
96 1 1 1.36112 0.252184 1.57689 0 0 0 2.24091 -0.310781 -0.00706013 3.41469 -7.9224 1.22934 9.33034 -58.6132 1.89123 0.03 345.024 
8 1 1 1.62526 0.237632 1.57686 0 0 0 3.2622 0.150813 4.61263e-06 -7.15293e-06 1.46213e-06 9.02721e-05 -5.04772 -24.694 7.09794 0.03 338.423 
110 1 1 0.141683 0.272295 1.57452 0 0 0 1.29193 -0.161056 0.168803 -5.3724 -2.7752 73.413 13.2597 -92.2703 -9.6569 0.03 308.759 
175 1 1 0.401138 0.299792 1.58056 0 0 0 1.37295 0.093494 0.0147257 0 0 -2.77371 -3.31919 -87.9171 -11.3133 0.03 316.787 
11 1 1 0.493784 0.289252 1.5773 0 0 0 1.83272 -0.446781 0.016609 0 0 -2.77371 15.0381 -72.423 10.2362 0.03 333.006 
94 1 1 0.555701 0.285377 1.57757 0 0 0 1.73618 -0.248992 0.00498301 0.570302 1.36627 -2.91459 2.93079 -72.8377 7.24754 0.03 326.402 
64 1 1 0.725621 0.292576 1.57686 0 0 0 2.12952 -0.132781 0.000236986 -0.000594586 -4.20932e-05 0.092034 4.4449 -62.615 18.882 0.03 352.709 
125 1 1 0.846858 0.269088 1.5769 0 0 0 2.36779 -0.095957 0.0193222 -0.369226 -0.119241 -1.40832 3.30785 -54.8319 -3.64781 0.03 319.82 
144 1 1 0.902734 0.291324 1.57704 0 0 0 2.35683 0.0903866 -0.0510953 1.51557 0.311925 -0.775388 -3.29592 -53.4601 20.2643 0.03 323.418 
82 1 1 1.41926 0.282176 1.57686 0 0 0 2.38259 -0.456653 0.00159447 -0.00553802 -0.00156347 0.0107498 15.2863 -54.1423 4.03313 0.03 344.393 
70 1 1 0.178541 0.323334 1.58287 0 0 0 0.945214 -0.656523 0.0888325 0 0 -2.77371 35.1649 -77.3527 0.105288 0.03 304.047 
3 1 1 0.242791 0.306177 1.57681 0 0 0 1.5686 -0.16932 0.0429354 0.081684 0.15161 -1.17284 5.83409 -81.9819 30.2448 0.03 330.24 
166 1 1 0.319532 0.337657 1.57442 0 0 0 1.64817 0.330146 -0.522472 35.9144 5.12605 54.7005 -11.8617 -88.6078 22.2478 0.03 315.458 
56 1 1 0.810601 0.319922 1.5783 0 0 0 2.48863 -0.159121 0.0295498 0 0 -2.77371 5.40006 -25.1766 -24.7048 0.03 303.371 
124 1 1 0.951311 0.33542 1.57688 0 0 0 2.21894 0.0420977 -0.0152866 0.0758747 0.00195028 0.441318 -1.41321 -59.5646 -4.86376 0.03 348.12 
59 1 1 1.09616 0.315106 1.57685 0 0 0 2.39137 0.220021 -0.00103752 0.00359206 -0.0034075 0.181985 -7.36123 -53.8529 8.17258 0.03 336.143 
133 1 1 1.34977 0.310297 1.57684 0 0 0 2.21268 -0.235798 -0.0132762 -2.12069 6.33245 -0.432445 13.249 -59.0319 0.605616 0.03 323.944 
132 1 1 0.0766876 0.341801 1.5753 0 0 0 1.16195 -0.362409 0.307228 5.30515 3.01394 3.53567 -14.7084 -70.8215 16.1015 0.03 308.009 
38 1 1 0.376916 0.357361 1.57465 0 0 0 1.5042 -0.07398 -0.00768658 22.2278 -9.97065 -2.32988 3.9441 -54.999 -16.7204 0.03 303.011 
35 1 1 0.462564 0.363842 1.57532 0 0 0 2.45626 0.112086 -0.0334399 -2.51376 2.76757 38.5057 -1.98833 -57.4655 0.475047 0.03 306.511 
126 1 1 0.574879 0.341788 1.58271 0 0 0 1.81899 -0.186685 -0.413246 -8.23328 -11.9693 -5.62475 -31.3299 29.2511 -13.0781 0.03 302.792 
123 1 1 0.655109 0.347974 1.57864 0 0 0 2.22524 -0.346424 0.133442 0 0 -2.77371 11.4837 -60.3062 5.68399 0.03 303.356 
143 1 1 0.902195 0.372003 1.57685 0 0 0 2.11074 -0.00937074 0.00170318 -0.00847568 0.00167687 0.203251 0.31242 -63.2635 -2.71077 0.03 342.253 
29 1 1 1.11231 0.373948 1.57687 0 0 0 2.45574 0.25572 0.00183553 -0.00569732 0.00563466 -0.213914 -8.56177 -51.6766 -3.33252 0.03 337.338 
81 1 1 1.17394 0.341961 1.57686 0 0 0 2.47923 -0.00318718 4.62915e-08 -1.67092e-07 -3.50186e-10 -4.59095e-06 0.106675 -50.9002 -13.9831 0.03 332.249 
14 1 1 1.59749 0.341299 1.57686 0 0 0 2.42075 0.0677053 -1.06326e-11 -2.08455e-12 1.50235e-13 0 -2.26609 -52.8573 -2.54476 0.03 358.938 
33 1 1 0.0125729 0.392627 1.57757 0 0 0 -0.0860896 0.125808 0.363966 0 0 -2.77371 -4.22464 -137.32 0.517279 0.03 303.452 
25 1 1 0.329521 0.398686 1.5767 0 0 0 1.01191 0.580033 -0.645768 19.0892 4.51187 36.4565 -43.7402 2.97864 -4.7497 0.03 300.367 
101 1 1 0.529916 0.40838 1.59184 0 0 0 1.76573 0.156035 -0.338272 -9.91692 -8.83379 -11.4131 24.4447 46.7312 -2.38334 0.03 334.516 
170 1 1 0.764397 0.386606 1.57685 0 0 0 2.20838 0.418053 -0.00227139 1.5045 -0.109499 0.24325 -12.0771 -33.6343 -2.08804 0.03 315.754 
122 1 1 0.95512 0.402995 1.58178 0 0 0 2.33994 -0.404149 0.125239 0 0 -2.77371 22.6923 -46.9385 5.41753 0.03 349.157 
174 1 1 1.55332 0.392038 1.57686 0 0 0 2.54452 -0.112838 8.02987e-12 2.40376e-12 1.49706e-13 -2.22045e-15 3.77668 -48.7148 2.83466 0.03 353.489 
116 1 1 0.185666 0.416115 1.57674 0 0 0 1.00448 -0.0191076 -0.0448907 0.419526 -3.20212 4.48868 0.29324 -100.123 -9.32578 0.03 307.108 
77 1 1 0.403719 0.422341 1.57681 0 0 0 1.34349 0.298542 0.00832477 -0.0453117 0.00586781 0.444689 -9.99237 -89.0497 -0.390581 0.03 321.562 
135 1 1 0.476111 0.43741 1.57736 0 0 0 1.58518 0.490071 -0.0304437 0 0 -2.77371 -13.7834 -75.8852 2.30933 0.03 340.557 
37 1 1 0.603236 0.425602 1.57934 0 0 0 2.15208 0.165051 0.0516 0 0 -2.77371 -16.0179 -47.6029 13.8758 0.03 304.031 
111 1 1 0.710974 0.427692 1.57671 0 0 0 2.30515 0.221018 0.194706 -1.68584 -1.28776 -7.01653 -5.14049 -59.993 3.70033 0.03 311.669 
50 1 1 0.806617 0.432431 1.57684 0 0 0 2.26354 0.10098 0.0237119 -0.087531 0.00512038 -0.720489 -3.38253 -58.1693 12.7983 0.03 336.039 
167 1 1 1.05846 0.42572 1.57704 0 0 0 2.28447 -0.105727 0.0657883 -0.257806 -0.145623 -4.53611 3.5765 -57.4096 8.94935 0.03 329.916 
54 1 1 1.18619 0.415837 1.57686 0 0 0 2.24235 -0.277113 1.37343e-07 -5.51904e-07 -8.7014e-08 -8.38509e-06 9.27496 -58.8284 -8.02237 0.03 349.438 
119 1 1 0.15685 0.476433 1.57629 0 0 0 0.978415 0.318185 0.341957 -0.800261 -1.8821 -6.86405 -2.16664 -105.832 -8.16554 0.03 320.854 
21 1 1 0.233792 0.476023 1.58078 0 0 0 0.829113 0.330673 0.0205394 0.197837 -0.873548 -2.26405 -8.79 -81.6865 1.56614 0.03 308.335 
160 1 1 0.343678 0.466384 1.57714 0 0 0 1.5984 0.231659 0.333067 0 0 -2.77371 -8.23469 -80.7922 21.6385 0.03 327.721 
69 1 1 0.653421 0.458525 1.57791 0 0 0 2.35278 -0.0116139 0.0900395 0.135515 -1.18676 -2.18279 -0.316673 -53.126 -14.7696 0.03 350.257 
26 1 1 0.75574 0.470923 1.57706 0 0 0 2.26284 0.0545255 -0.0120898 0.230255 0.0625733 -2.14883 -1.86449 -57.7837 3.15747 0.03 308.662 
131 1 1 0.928834 0.457791 1.57729 0 0 0 2.83101 -0.0815822 0.0728816 2.52045 -1.97312 -1.14248 12.6851 -32.7939 -19.4744 0.03 328.545 
30 1 1 1.00231 0.447653 1.57674 0 0 0 2.36009 -0.175244 -0.006179 0.176279 1.08583 0.69176 5.81159 -54.7418 -15.2695 0.03 360.163 
36 1 1 1.27288 0.476424 1.57686 0 0 0 2.35765 0.161792 -1.70319e-07 6.03133e-07 -5.94157e-08 7.15437e-07 -5.41516 -54.9694 -1.38527 0.03 343.223 
32 1 1 1.34119 0.447422 1.57686 0 0 0 2.41625 0.0362623 -5.86824e-07 1.94981e-06 -4.46438e-08 -1.24594e-05 -1.2137 -53.0078 4.98442 0.03 346.775 
4 1 1 0.40651 0.482947 1.57456 0 0 0 1.796 -0.071134 0.432632 -12.706 -3.43214 21.0739 -14.5916 -37.6856 9.70608 0.03 306.101 
136 1 1 0.458514 0.502171 1.58972 0 0 0 2.04466 0.334758 0.0567638 13.7329 7.79072 30.6495 -47.5206 41.1938 -12.6184 0.03 300.287 
169 1 1 0.516208 0.508025 1.5805 0 0 0 1.81221 -0.272473 -0.481773 30.7838 6.14085 -8.7297 12.8479 -30.961 -5.68947 0.03 321.858 
163 1 1 0.883249 0.496238 1.57675 0 0 0 2.70082 -0.219216 -0.0150881 -0.36674 0.228246 1.13872 7.52012 -43.2683 29.441 0.03 337.031 
145 1 1 0.980542 0.503365 1.57669 0 0 0 2.5795 -0.0326329 -0.0475756 -10.2514 -0.71982 -0.855199 2.06369 -22.8486 19.6317 0.03 319.687 
39 1 1 1.03921 0.494693 1.57701 0 0 0 2.41409 -0.179877 0.0887943 17.6733 0.157789 1.89665 6.74977 -51.3156 1.40089 0.03 337.717 
10 1 1 1.11876 0.486883 1.57731 0 0 0 2.45573 -0.0690214 0.00437137 -0.987431 0.930116 -2.32216 2.9898 -49.9542 -8.73496 0.03 358.86 
162 1 1 1.18242 0.499319 1.57686 0 0 0 2.48489 -0.102351 -0.000702016 0.00178714 -0.000177173 0.0983062 3.42626 -50.7161 20.8063 0.03 344.019 
140 1 1 1.47333 0.491875 1.57686 0 0 0 2.52255 0.0244765 1.79531e-06 -7.42675e-06 1.23037e-07 -0.00051264 -0.819227 -49.4502 0.805906 0.03 324.85 
48 1 1 0.227898 0.535456 1.57667 0 0 0 1.09618 0.369175 0.269824 -4.63497 0.676032 -10.7732 -12.2513 -99.1083 13.3767 0.03 306.964 
147 1 1 0.290158 0.531834 1.57729 0 0 0 1.12681 0.365879 -1.52692 0 0 -2.77371 -9.97181 77.4296 -0.815458 0.03 300.027 
34 1 1 0.357356 0.554396 1.57779 0 0 0 1.31892 0.585324 -0.0788751 0 0 -2.77371 -19.5265 -89.7522 14.63 0.03 315.173 
61 1 1 0.637616 0.516165 1.57671 0 0 0 2.13577 -0.0541399 -0.00149364 0.858412 -1.4849 2.33646 3.61977 -62.0446 16.6221 0.03 329.772 
104 1 1 0.72003 0.522271 1.57685 0 0 0 2.36762 0.140044 0.00116141 1.24275 -0.690425 0.0696135 7.18228 -33.2763 -24.9858 0.03 321.374 
42 1 1 0.799388 0.537014 1.5769 0 0 0 2.24178 -0.00376307 0.000843753 -0.00775057 0.000180175 -0.672049 0.125776 -58.7899 7.88436 0.03 336.744 
63 1 1 0.917805 0.548523 1.5768 0 0 0 2.41562 -0.0227026 -0.00931894 -0.211371 -1.91882 0.503135 -0.319157 -48.5689 13.2226 0.03 353.243 
103 1 1 1.0913 0.540166 1.57726 0 0 0 2.44892 0.0174242 -0.147598 1.09961 -1.29985 -4.98559 8.20441 -9.30191 -4.55021 0.03 356.407 
66 1 1 1.2354 0.52901 1.57687 0 0 0 2.4185 0.102759 -0.000123717 0.00113187 0.000483275 -0.0863912 -3.43898 -52.9247 -8.3985 0.03 337.148 
168 1 1 1.29799 0.547354 1.57686 0 0 0 2.40345 0.245526 -0.000240107 0.000833698 -0.000128326 0.00278758 -8.21761 -53.4356 7.62347 0.03 330.57 
100 1 1 1.35567 0.52357 1.57682 0 0 0 2.42911 0.130901 -0.00252704 0.210223 -0.445041 0.160257 -4.44454 -52.6063 2.35186 0.03 352.613 
72 1 1 0.170829 0.580611 1.59492 0 0 0 1.33271 0.19138 0.317356 0 0 -2.77371 -29.4517 -64.2745 -45.1706 0.03 307.658 
117 1 1 0.428506 0.56116 1.58379 0 0 0 1.83232 -0.240458 0.000905861 0 0 -2.77371 -2.23653 -63.347 -39.8819 0.03 312.188 
16 1 1 0.511701 0.56776 1.57702 0 0 0 1.91188 -0.184739 -0.0432357 -0.87102 4.04122 -0.745785 3.95177 -93.5805 -4.81538 0.03 337.147 
118 1 1 0.591316 0.555156 1.57952 0 0 0 2.16077 0.101805 0.173488 0 0 -2.77371 -3.18781 -61.686 -14.3136 0.03 332.037 
152 1 1 0.675661 0.567734 1.57695 0 0 0 1.95301 -0.0418774 -0.0340839 -0.844957 -0.452046 1.24408 0.13337 -76.4704 -16.1202 0.03 338.187 
121 1 1 0.859543 0.561783 1.57684 0 0 0 2.46202 -0.128512 -0.0138097 -1.64443 0.650985 -0.870569 4.56644 -50.504 -28.5467 0.03 353.336 
158 1 1 0.974955 0.565064 1.57689 0 0 0 2.3631 0.120199 0.03137 2.31758 2.3401 -0.966866 3.28623 -19.0027 -19.7048 0.03 339.951 
109 1 1 1.03376 0.555758 1.57747 0 0 0 2.3501 -0.106194 -0.0562916 2.14834 -1.25309 0.185503 17.8705 5.93281 9.02373 0.03 346.236 
172 1 1 1.14897 0.555334 1.57648 0 0 0 2.58746 -0.278615 0.00338364 -2.27875 1.5323 4.25647 10.1646 -46.9682 -13.1699 0.03 347.898 
113 1 1 1.36949 0.58039 1.58954 0 0 0 2.34311 0.119957 0.118357 -0.16315 -0.204177 -0.177558 -5.62186 -65.238 -13.1526 0.03 352.851 
97 1 1 0.129688 0.158427 1.60524 0 0 0 0.831463 0.446427 0.0529316 0 0 -2.77371 -15.1736 -38.7524 63.2131 0.03 303.462 
114 1 1 0.305017 0.140274 1.63071 0 0 0 1.22639 -0.0493339 0.0756212 0 0 -2.77371 12.2983 -113.441 18.1494 0.03 310.352 
139 1 1 0.388764 0.142126 1.62081 0 0 0 1.01725 -0.110743 0.181112 -0.924713 2.85887 -1.19524 4.57616 -119.334 22.5589 0.03 324.051 
78 1 1 0.740589 0.163346 1.59959 0 0 0 2.07902 0.538941 -0.540423 0.428406 0.794971 -0.652459 -19.611 -16.7227 70.3857 0.03 317.509 
173 1 1 0.800309 0.146922 1.61537 0 0 0 2.15957 -0.136541 -0.38645 13.6991 20.8392 27.9942 28.1686 8.38009 23.911 0.03 306.681 
87 1 1 0.953033 0.143295 1.61965 0 0 0 1.97505 0.0900928 -0.0890262 -0.00359897 0.934436 -1.04091 -4.22713 -44.8649 50.8956 0.03 328.613 
22 1 1 0.207497 0.181196 1.62044 0 0 0 -0.717377 -0.563256 -0.320196 0 0 -2.77371 11.6487 -20.994 7.207 0.03 300.154 
80 1 1 1.05465 0.161908 1.60131 0 0 0 2.92897 0.0455245 -0.0448612 -0.137596 0.162826 -2.76554 10.8427 13.5141 5.86407 0.03 307.088 
51 1 1 0.395497 0.201512 1.6201 0 0 0 0.673296 0.0904412 -0.622545 0.914152 -2.89178 -4.44736 -43.6916 24.9442 -10.4775 0.03 306.736 
40 1 1 0.47023 0.198292 1.59576 0 0 0 1.15432 -0.380212 -0.897771 -0.559016 3.74337 -4.1025 -28.2434 32.3491 26.6303 0.03 300.389 
43 1 1 0.578988 0.221781 1.63448 0 0 0 1.60571 -0.43841 0.811458 0 0 -2.77371 10.9031 45.7781 6.75873 0.03 300.392 
88 1 1 0.910957 0.217662 1.61313 0 0 0 1.77929 0.051844 -0.62391 0 0 -2.77371 -1.99841 1.37045 -11.5303 0.03 301.05 
74 1 1 0.330083 0.232758 1.62456 0 0 0 1.06011 -0.513446 -0.212494 3.62655 -2.77837 0.824313 -20.3219 -0.750246 -6.68831 0.03 300.458 
19 1 1 0.487799 0.254546 1.62972 0 0 0 0.939472 -0.44845 0.352945 0 0 -2.77371 7.06647 29.8666 3.94929 0.03 302.544 
146 1 1 0.720628 0.245366 1.6172 0 0 0 1.44865 0.055193 -0.506361 0 0 -2.77371 -5.01564 11.964 -13.1729 0.03 300.816 
339 1 1 0.106074 0.300457 1.61175 0 0 0 -0.780654 0.53729 -1.62449 -1.48844 1.99978 2.43305 -19.9052 -5.35592 -7.18757 0.03 300.055 
73 1 1 0.179268 0.273425 1.62529 0 0 0 0.43822 0.0553599 0.116298 0 0 -2.77371 -7.85947 43.4539 1.91333 0.03 300.228 
141 1 1 0.60156 0.278771 1.61612 0 0 0 1.85 -0.65886 -0.0875802 0 0 -2.77371 -21.0617 67.3188 -23.0656 0.03 301.314 
7 1 1 0.778985 0.26901 1.61994 0 0 0 1.64194 -0.0300177 -0.70222 0 0 -2.77371 -1.73359 -7.38482 7.23661 0.03 300.611 
71 1 1 0.351992 0.324755 1.6195 0 0 0 0.662439 0.185836 0.128354 -9.96506 8.43204 7.59165 11.7395 40.6051 -29.6074 0.03 300.57 
127 1 1 0.491051 0.329179 1.62547 0 0 0 0.751173 -0.0222925 0.182091 0 0 -2.77371 -25.375 30.3278 -4.13463 0.03 300.848 
68 1 1 0.414135 0.357302 1.61877 0 0 0 0.88739 -0.0435894 -0.203854 24.6075 -22.9 56.2053 -9.21799 17.4378 27.9532 0.03 300.046 
159 1 1 0.991916 0.356341 1.61621 0 0 0 2.28543 -0.202377 0.0532016 0 0 -2.77371 22.2921 66.1997 11.68 0.03 301.074 
289 1 1 0.103242 0.376179 1.61391 0 0 0 0.734041 0.408427 0.467953 6.3233 8.39803 23.5024 -18.8964 42.9139 -18.0733 0.03 300.076 
102 1 1 0.472156 0.391004 1.62637 0 0 0 0.938123 0.828884 0.172349 -4.34928 -0.0718897 2.42373 -22.476 -6.42758 -6.8771 0.03 300.299 
153 1 1 0.574793 0.381804 1.6271 0 0 0 1.80139 -0.372209 -0.69884 7.95283 12.1366 0.977953 22.1745 -24.0259 6.29449 0.03 300.29 
28 1 1 0.286241 0.433529 1.61079 0 0 0 1.08743 -0.0669435 0.346109 0 0 -2.77371 19.4846 65.6769 0.83577 0.03 300.432 
92 1 1 1.07438 0.43859 1.63355 0 0 0 2.30344 0.245966 0.101133 0 0 -2.77371 -15.712 57.1538 -9.76472 0.03 300.957 
6 1 1 0.341951 0.441567 1.63229 0 0 0 0.241072 -0.556546 0.499143 0 0 -2.77371 33.5725 29.8319 -16.5095 0.03 300.31 
134 1 1 0.548703 0.463787 1.60501 0 0 0 1.39036 -0.591081 -0.433672 9.91692 8.83379 5.8657 17.9246 23.4603 7.69059 0.03 301.462 
20 1 1 0.779225 0.476358 1.63269 0 0 0 1.71329 0.294661 0.329676 0 0 -2.77371 -3.91298 34.2939 2.25399 0.03 301.152 
151 1 1 1.01957 0.464168 1.63152 0 0 0 2.17174 0.0620706 -0.000986345 0.309688 0.0176152 -1.2672 -17.2374 44.2619 6.44925 0.03 303.669 
52 1 1 0.386528 0.509029 1.62348 0 0 0 0.0831351 0.40788 -0.194085 -5.22868 0.755347 3.64434 -0.781685 -23.6582 -0.845563 0.03 300.035 
98 1 1 0.680658 0.512611 1.6293 0 0 0 1.82231 0.733474 -0.226415 0 0 -2.77371 -17.2826 37.1961 5.2379 0.03 300.174 
326 1 1 0.139367 0.529068 1.59928 0 0 0 -0.470244 1.08655 -1.45681 0 0 -2.77371 -37.6113 -1.89763 7.9325 0.03 300.155 
150 1 1 0.538876 0.541926 1.626 0 0 0 1.16817 0.321845 -0.229074 -4.45532 0.0572079 -1.58401 -30.8811 -10.2078 19.6301 0.03 300.32 
9 1 1 0.952006 0.536793 1.62469 0 0 0 2.45542 0.0348726 -0.0148294 0 0 -2.77371 4.78942 48.5502 -3.50893 0.03 304.56 
157 1 1 1.1629 0.527572 1.62714 0 0 0 2.51148 -0.329789 0.0453585 4.10169 -2.53302 1.39952 -9.23077 53.3316 16.2726 0.03 302.784 
105 1 1 0.762237 0.580438 1.61425 0 0 0 1.558 0.301975 -0.494108 0 0 -2.77371 -13.0091 37.8471 1.22864 0.03 302.235 
129 1 1 0.217868 0.607796 1.63652 0 0 0 1.26868 0.466353 0.878215 0 0 -2.77371 -16.2027 -52.7064 -40.2018 0.03 303.437 
75 1 1 0.602477 0.602513 1.62557 0 0 0 1.36217 0.973655 0.450311 0 0 -2.77371 -34.8805 11.686 4.04113 0.03 300.678 
18 1 1 0.829809 0.59624 1.61824 0 0 0 1.82876 -0.217987 -0.304965 0 0 -2.77371 2.09725 -35.6663 -34.4721 0.03 304.11 
83 1 1 1.12115 0.598232 1.6073 0 0 0 3.03268 0.0182552 0.109082 -0.154246 0.453 -1.79887 4.51269 30.8344 -20.1639 0.03 307.642 
115 1 1 0.476094 0.111459 1.64924 0 0 0 1.53554 -0.677185 0.239198 26.1968 28.4086 40.6687 4.13842 -6.69554 42.3512 0.03 306.13 
49 1 1 0.536684 0.104371 1.67152 0 0 0 2.19511 0.23437 0.370306 0 0 -2.77371 9.58934 -29.9601 32.6239 0.03 306.835 
171 1 1 0.50896 0.158528 1.64184 0 0 0 1.0272 -0.0336068 -0.648721 10.8312 34.4891 0.502111 -34.8907 19.9911 -10.7637 0.03 300.029 
281 1 1 0.437222 0.229457 1.654 0 0 0 0.825363 -0.407847 -0.0841145 -0.315795 -0.093959 -2.24705 -5.22294 -32.2647 -10.9288 0.03 300.074 
46 1 1 0.971563 0.246665 1.64353 0 0 0 1.86202 -0.168374 0.210868 0 0 -2.77371 -2.90245 29.1062 -24.3177 0.03 301.114 
164 1 1 0.272816 0.284206 1.65166 0 0 0 0.126003 -0.484537 -0.185176 0 0 -2.77371 19.4988 -21.7874 7.4833 0.03 300.007 
107 1 1 0.337184 0.28248 1.65652 0 0 0 0.488976 -0.142742 -0.633972 9.98793 -30.2026 47.41 21.1252 -18.2574 2.3913 0.03 300.02 
44 1 1 0.660857 0.291708 1.65502 0 0 0 1.40738 0.0768462 -0.274669 0 0 -2.77371 -7.58956 14.9275 29.3808 0.03 300.826 
155 1 1 0.886751 0.272113 1.63597 0 0 0 1.74751 0.000479395 -0.233508 0 0 -2.77371 6.8483 34.8128 18.7053 0.03 300.957 
31 1 1 0.210947 0.335357 1.63528 0 0 0 -0.188252 0.164436 -0.349112 -5.19978 18.8855 -142.244 7.85311 29.3252 16.7542 0.03 300.252 
225 1 1 0.552894 0.30318 1.64513 0 0 0 1.60418 -0.250175 -0.514899 0 0 -2.77371 23.5031 15.8174 -13.9532 0.03 300.01 
53 1 1 0.286346 0.344775 1.62687 0 0 0 -0.374946 0.101914 -1.42063 0 0 -2.77371 8.3821 18.4112 -6.59122 0.03 300.17 
176 1 1 0.338093 0.367876 1.65862 0 0 0 0.459912 -0.0337788 -0.832392 20.0719 4.50176 27.44 2.75185 -30.8032 2.77641 0.03 300.006 
24 1 1 0.744707 0.391557 1.6398 0 0 0 1.58961 0.238764 -0.308461 0 0 -2.77371 45.7403 -22.5597 2.96941 0.03 300.284 
84 1 1 0.17498 0.415667 1.64432 0 0 0 -0.683781 0.291444 -1.6211 25.6307 8.28353 -56.577 29.6714 -2.65102 9.23121 0.03 300.001 
128 1 1 0.394917 0.409955 1.63515 0 0 0 0.0232749 -0.241999 -0.903989 -2.54493 30.8342 26.4777 -13.6287 20.5065 13.0384 0.03 300.627 
106 1 1 0.478871 0.447851 1.64417 0 0 0 0.38276 0.847094 -0.900749 6.23094 3.27014 7.81299 7.48559 10.7371 14.5278 0.03 301.003 
148 1 1 0.12657 0.449833 1.63331 0 0 0 0.0988145 -0.12678 -1.22194 0 0 -2.77371 15.7543 26.2394 9.50019 0.03 300.149 
130 1 1 0.959915 0.476773 1.63308 0 0 0 1.97037 -0.255619 -0.554914 0 0 -2.77371 22.0898 -62.1044 1.1435 0.03 300.163 
55 1 1 0.218654 0.497809 1.64941 0 0 0 0.223812 0.611434 0.403873 0 0 -2.77371 -30.5775 0.503134 -3.76634 0.03 300.043 
149 1 1 0.836658 0.493706 1.64808 0 0 0 2.00839 0.0967977 0.0897943 0 0 -2.77371 10.7463 -19.5596 -8.52746 0.03 300.579 
65 1 1 0.479919 0.541298 1.63696 0 0 0 0.801358 0.518516 -0.585192 4.45532 -0.0572079 -3.96341 13.5341 -4.06518 -23.1511 0.03 300.3 
154 1 1 0.328604 0.586036 1.63732 0 0 0 0.16743 1.21254 0.0523351 0 0 -2.77371 4.18984 51.5429 -12.4877 0.03 300.66 
138 1 1 0.427701 0.595496 1.64872 0 0 0 1.09317 0.593916 0.262227 62.3902 -46.0393 7.23857 -15.1116 52.4123 38.7316 0.03 300.127 
89 1 1 0.379204 0.62495 1.63939 0 0 0 1.50449 0.657203 0.0892673 -62.3902 46.0393 -12.786 -4.37006 -53.4287 -40.408 0.03 303.746 
17 1 1 0.499208 0.637827 1.65019 0 0 0 1.60274 0.154403 0.311919 -29.367 -15.4589 -25.6913 -31.0334 -10.5881 -46.4347 0.03 303.557 
79 1 1 0.660396 0.624927 1.63379 0 0 0 1.59594 -0.369813 -0.457315 -8.82902 -3.2878 -2.10477 0.798134 -3.90984 -33.6271 0.03 309.704 
2 1 1 0.719324 0.628069 1.63759 0 0 0 1.60436 -0.654672 -0.527351 13.1957 -2.17507 4.17684 28.1245 -89.3474 -20.4302 0.03 312.749 
156 1 1 0.794693 0.644162 1.65334 0 0 0 1.40638 -0.421931 -0.422063 0.000510121 -0.987722 -0.989187 19.9578 -64.8819 -57.7786 0.03 327.588 
137 1 1 0.286053 0.0634259 1.6998 0 0 0 0.858642 0.103845 -0.117282 0 0 -2.77371 3.61773 -63.5224 64.3733 0.03 306.039 
165 1 1 0.833041 0.0647206 1.69962 0 0 0 2.05624 0.0409449 -0.100262 0 0 -2.77371 2.31132 -25.8631 66.0727 0.03 306.438 
76 1 1 0.404069 0.117313 1.70084 0 0 0 0.844591 -0.491443 0.114073 0 0 -2.77371 13.0902 83.2212 -49.4108 0.03 301.053 
62 1 1 0.29035 0.138285 1.69421 0 0 0 -0.246865 -0.801412 -0.495556 0 0 -2.77371 -38.0429 -80.3712 -21.4572 0.03 300.002 
333 1 1 0.390327 0.210439 1.68522 0 0 0 0.478655 -0.529002 -0.274517 0.315795 0.093959 -3.30037 34.6626 4.3874 3.20421 0.03 300.054 
300 1 1 0.17094 0.321417 1.67568 0 0 0 0.0366918 -0.0384579 -2.56037 5.19978 -18.8855 136.697 3.94376 -19.8578 -2.84729 0.03 300 
180 1 1 0.292212 0.33357 1.68578 0 0 0 -0.335005 -0.585419 -0.857074 0 0 -2.77371 10.4827 -17.8667 -1.10543 0.03 300.001 
181 1 1 0.390014 0.322145 1.66651 0 0 0 0.679552 0.0812364 -1.0725 0 0 -2.77371 -1.35104 1.15669 7.19288 0.03 300.003 
190 1 1 0.231048 0.398476 1.6778 0 0 0 0.251286 -0.157452 -2.04068 0 0 -2.77371 1.07294 32.3625 5.01919 0.03 300 
227 1 1 0.409008 0.466902 1.6616 0 0 0 0.297292 0.740665 -1.85271 0 0 -2.77371 -29.2446 3.10081 5.37741 0.03 300.004 
304 1 1 0.114399 0.505182 1.66113 0 0 0 -0.317642 0.383917 -1.43896 0 0 -2.77371 -34.4625 -10.2553 13.9383 0.03 300.001 
243 1 1 0.471181 0.487071 1.69205 0 0 0 0.588067 -0.359363 -0.709851 -11.054 13.9369 -8.01908 11.4755 -22.3994 3.75824 0.03 300.003 
57 1 1 0.352446 0.668198 1.67483 0 0 0 0.967079 -0.0956863 -0.216826 34.4566 -44.0489 53.8061 -24.2481 18.6571 8.40698 0.03 301.295 
27 1 1 0.520284 0.674856 1.69013 0 0 0 1.80974 0.210387 0.0351673 29.367 15.4589 20.1439 -15.9921 -47.3141 -50.7123 0.03 303.519 
99 1 1 0.621996 0.662763 1.67193 0 0 0 1.72636 -0.245063 -0.244499 -0.0018026 -1.0411 -0.945558 11.5843 -42.6293 -64.9153 0.03 311.82 
307 1 1 0.299263 0.261213 1.7008 0 0 0 -0.350514 -0.296269 -1.59279 0 0 -2.77371 4.48014 -21.9314 -3.86792 0.03 300 
268 1 1 0.442536 0.376191 1.71406 0 0 0 0 0 -2.74486 0 0 -2.77371 0 0 0 0.03 300 
296 1 1 0.505533 0.442074 1.70776 0 0 0 0.812901 -0.242253 -0.48942 11.054 -13.9369 2.47166 -10.228 6.08726 17.4991 0.03 300.008 
249 1 1 0.173785 0.44951 1.6933 0 0 0 -0.0286312 -0.010624 -2.7598 -25.6307 -8.28353 51.0295 -3.47218 1.8498 -1.36727 0.03 300 
301 1 1 0.196268 0.514676 1.70966 0 0 0 0 0 -2.76055 0 0 -2.77371 0 0 0 0.03 300 
93 1 1 0.221519 0.64281 1.726 0 0 0 -0.0613205 1.00533 0.318088 0 0 -2.77371 -31.8754 6.51144 -11.2183 0.03 300.067 
288 1 1 0.209802 0.229296 1.73952 0 0 0 0 0 -2.65235 0 0 -2.77371 0 0 0 0.03 300 
221 1 1 0.425449 0.24778 1.72456 0 0 0 0 0 -2.70709 0 0 -2.77371 0 0 0 0.03 300 
340 1 1 0.235778 0.333975 1.71774 0 0 0 0 0 -2.73171 0 0 -2.77371 0 0 0 0.03 300 
187 1 1 0.476873 0.306542 1.72294 0 0 0 0 0 -2.71297 0 0 -2.77371 0 0 0 0.03 300 
276 1 1 0.289349 0.515799 1.72618 0 0 0 0 0 -2.7012 0 0 -2.77371 0 0 0 0.03 300 
213 1 1 0.125891 0.243147 1.75681 0 0 0 0 0 -2.5876 0 0 -2.77371 0 0 0 0.03 300 
322 1 1 0.49924 0.247443 1.75797 0 0 0 0 0 -2.58319 0 0 -2.77371 0 0 0 0.03 300 
257 1 1 0.107883 0.30308 1.78062 0 0 0 0 0 -2.49568 0 0 -2.77371 0 0 0 0.03 300 
230 1 1 0.257855 0.281878 1.77907 0 0 0 0 0 -2.50176 0 0 -2.77371 0 0 0 0.03 300 
291 1 1 0.499679 0.383275 1.76258 0 0 0 0 0 -2.56563 0 0 -2.77371 0 0 0 0.03 300 
178 1 1 0.318639 0.427051 1.78584 0 0 0 0 0 -2.47508 0 0 -2.77371 0 0 0 0.03 300 
246 1 1 0.107302 0.455042 1.76952 0 0 0 0 0 -2.53894 0 0 -2.77371 0 0 0 0.03 300 
226 1 1 0.253931 0.465065 1.77307 0 0 0 0 0 -2.52521 0 0 -2.77371 0 0 0 0.03 300 
224 1 1 0.391331 0.524514 1.77591 0 0 0 0 0 -2.51412 0 0 -2.77371 0 0 0 0.03 300 
196 1 1 0.358915 0.233995 1.81155 0 0 0 0 0 -2.371 0 0 -2.77371 0 0 0 0.03 300 
245 1 1 0.160535 0.375989 1.81228 0 0 0 0 0 -2.36796 0 0 -2.77371 0 0 0 0.03 300 
352 1 1 0.377854 0.441153 1.80609 0 0 0 0 0 -2.39346 0 0 -2.77371 0 0 0 0.03 300 
265 1 1 0.446064 0.454668 1.80425 0 0 0 0 0 -2.40102 0 0 -2.77371 0 0 0 0.03 300 
209 1 1 0.352404 0.322469 1.84429 0 0 0 0 0 -2.2314 0 0 -2.77371 0 0 0 0.03 300 
313 1 1 0.439938 0.327558 1.85907 0 0 0 0 0 -2.16548 0 0 -2.77371 0 0 0 0.03 300 
254 1 1 0.380252 0.376413 1.82486 0 0 0 0 0 -2.31528 0 0 -2.77371 0 0 0 0.03 300 
270 1 1 0.207615 0.426676 1.83844 0 0 0 0 0 -2.257 0 0 -2.77371 0 0 0 0.03 300 
279 1 1 0.157212 0.495968 1.85747 0 0 0 0 0 -2.17274 0 0 -2.77371 0 0 0 0.03 300 
317 1 1 0.252263 0.228507 1.88147 0 0 0 0 0 -2.06149 0 0 -2.77371 0 0 0 0.03 300 
252 1 1 0.442785 0.262265 1.88484 0 0 0 0 0 -2.0454 0 0 -2.77371 0 0 0 0.03 300 
248 1 1 0.155073 0.291265 1.86821 0 0 0 0 0 -2.12369 0 0 -2.77371 0 0 0 0.03 300 
204 1 1 0.215487 0.347963 1.87685 0 0 0 0 0 -2.08337 0 0 -2.77371 0 0 0 0.03 300 
346 1 1 0.2812 0.398881 1.87285 0 0 0 0 0 -2.1021 0 0 -2.77371 0 0 0 0.03 300 
335 1 1 0.429091 0.407041 1.87825 0 0 0 0 0 -2.07679 0 0 -2.77371 0 0 0 0.03 300 
217 1 1 0.461801 0.523439 1.87753 0 0 0 0 0 -2.08013 0 0 -2.77371 0 0 0 0.03 300 
305 1 1 0.346674 0.257421 1.92684 0 0 0 0 0 -1.83292 0 0 -2.77371 0 0 0 0.03 300 
193 1 1 0.281872 0.329623 1.90522 0 0 0 0 0 -1.94524 0 0 -2.77371 0 0 0 0.03 300 
272 1 1 0.116473 0.427779 1.90991 0 0 0 0 0 -1.9214 0 0 -2.77371 0 0 0 0.03 300 
237 1 1 0.207046 0.471117 1.92763 0 0 0 0 0 -1.8287 0 0 -2.77371 0 0 0 0.03 300 
262 1 1 0.417911 0.469013 1.92664 0 0 0 0 0 -1.834 0 0 -2.77371 0 0 0 0.03 300 
239 1 1 0.490736 0.457949 1.89973 0 0 0 0 0 -1.97271 0 0 -2.77371 0 0 0 0.03 300 
263 1 1 0.269308 0.500141 1.92979 0 0 0 0 0 -1.81703 0 0 -2.77371 0 0 0 0.03 300 
201 1 1 0.360389 0.493184 1.89864 0 0 0 0 0 -1.97811 0 0 -2.77371 0 0 0 0.03 300 
351 1 1 0.181906 0.258163 1.95227 0 0 0 0 0 -1.69136 0 0 -2.77371 0 0 0 0.03 300 
319 1 1 0.490886 0.237209 1.96366 0 0 0 0 0 -1.62397 0 0 -2.77371 0 0 0 0.03 300 
233 1 1 0.496558 0.3336 1.93704 0 0 0 0 0 -1.77749 0 0 -2.77371 0 0 0 0.03 300 
298 1 1 0.133415 0.358363 1.95825 0 0 0 0 0 -1.65634 0 0 -2.77371 0 0 0 0.03 300 
334 1 1 0.38649 0.410383 1.965 0 0 0 0 0 -1.61582 0 0 -2.77371 0 0 0 0.03 300 
303 1 1 0.114998 0.510423 1.94299 0 0 0 0 0 -1.74433 0 0 -2.77371 0 0 0 0.03 300 
283 1 1 0.300071 0.232043 1.99688 0 0 0 0 0 -1.40903 0 0 -2.77371 0 0 0 0.03 300 
332 1 1 0.233113 0.233231 1.98512 0 0 0 0 0 -1.48869 0 0 -2.77371 0 0 0 0.03 300 
206 1 1 0.126939 0.284236 1.98025 0 0 0 0 0 -1.52047 0 0 -2.77371 0 0 0 0.03 300 
194 1 1 0.257372 0.298287 1.9854 0 0 0 0 0 -1.48682 0 0 -2.77371 0 0 0 0.03 300 
231 1 1 0.39189 0.276895 1.98575 0 0 0 0 0 -1.48456 0 0 -2.77371 0 0 0 0.03 300 
338 1 1 0.455834 0.299724 2.00064 0 0 0 0 0 -1.38264 0 0 -2.77371 0 0 0 0.03 300 
347 1 1 0.332014 0.322805 1.98376 0 0 0 0 0 -1.49761 0 0 -2.77371 0 0 0 0.03 300 
331 1 1 0.280682 0.358343 2.00187 0 0 0 0 0 -1.37391 0 0 -2.77371 0 0 0 0.03 300 
216 1 1 0.415188 0.353574 1.99746 0 0 0 0 0 -1.40501 0 0 -2.77371 0 0 0 0.03 300 
285 1 1 0.200673 0.388027 2.00482 0 0 0 0 0 -1.35262 0 0 -2.77371 0 0 0 0.03 300 
341 1 1 0.462863 0.403415 1.97184 0 0 0 0 0 -1.57374 0 0 -2.77371 0 0 0 0.03 300 
208 1 1 0.292126 0.417938 1.98681 0 0 0 0 0 -1.4775 0 0 -2.77371 0 0 0 0.03 300 
325 1 1 0.454753 0.482086 2.00352 0 0 0 0 0 -1.36204 0 0 -2.77371 0 0 0 0.03 300 
185 1 1 0.176568 0.243013 2.03824 0 0 0 0 0 -1.08353 0 0 -2.77371 0 0 0 0.03 300 
197 1 1 0.187467 0.323213 2.01237 0 0 0 0 0 -1.2967 0 0 -2.77371 0 0 0 0.03 300 