ITEM: TIMESTEP
110000
ITEM: NUMBER OF ATOMS
527
ITEM: BOX BOUNDS ff ff ff
0 3.3
-0.3 0.8
-0.5 3
ITEM: ATOMS id type type x y z ix iy iz vx vy vz fx fy fz omegax omegay omegaz radius f_Temp[0] 
343 1 1 0.142959 0.171342 1.58827 0 0 0 1.11152 0.850769 0.28181 -24.3295 24.0364 12.6631 -18.5387 -94.0774 71.1019 0.03 302.682 
213 1 1 0.242829 0.18478 1.57766 0 0 0 1.15177 -0.38316 0.402351 4.29831 6.29094 3.11889 18.3832 -105.859 19.4727 0.03 326.623 
248 1 1 0.421866 0.182575 1.57867 0 0 0 2.3269 -0.104255 -0.0985956 -5.44509 9.19686 6.63286 -0.644052 -51.206 29.3176 0.03 326.339 
97 1 1 0.494891 0.173081 1.59023 0 0 0 2.24724 -0.483872 0.480974 0 0 -2.77371 31.3744 -44.5425 37.2115 0.03 349.151 
22 1 1 0.677217 0.188031 1.57712 0 0 0 2.31233 -0.165068 -0.0181178 0 0 -2.77371 5.51279 -56.3518 -23.7583 0.03 332.201 
288 1 1 0.734065 0.164257 1.59868 0 0 0 2.34287 0.0482437 -0.0503906 0.00687679 1.07994 -0.895532 -2.33567 -37.5882 40.7957 0.03 326.703 
90 1 1 0.8292 0.188431 1.57686 0 0 0 2.57134 0.0620395 0.00278242 -0.214165 0.0279559 -0.0357454 -2.08588 -47.894 30.7538 0.03 352.253 
114 1 1 0.8947 0.176493 1.58595 0 0 0 2.93967 0.173424 -0.127629 3.1038 3.76856 1.86765 -9.24649 -3.06678 19.1008 0.03 338.742 
221 1 1 0.976927 0.177339 1.58566 0 0 0 2.51705 0.350047 -0.381885 -0.406151 -2.59597 -0.837329 1.79667 -22.5622 14.2883 0.03 315.098 
43 1 1 1.15115 0.190163 1.57562 0 0 0 3.04558 0.0562677 -0.349029 26.0999 -2.29442 63.519 -2.18198 -35.7212 -13.0717 0.03 302.428 
40 1 1 1.24755 0.18623 1.57689 0 0 0 2.99853 0.00546471 0.00506567 0.127409 0.0995991 -0.523326 -0.223347 -33.4268 10.4279 0.03 344.801 
58 1 1 1.30507 0.16531 1.59763 0 0 0 2.79776 0.0581036 -0.0560351 -0.00319544 0.990672 -1.00882 -2.67472 -22.9278 33.9351 0.03 367.343 
141 1 1 1.38498 0.192694 1.57686 0 0 0 3.22819 0.0417829 0.00458918 -0.268515 0.128222 -0.106172 -1.6538 -26.0195 -7.98486 0.03 324.78 
161 1 1 1.44558 0.185808 1.57683 0 0 0 3.20052 0.00583474 0.0200463 0.950234 2.32798 0.312965 -1.47107 -20.7013 14.8115 0.03 355.744 
165 1 1 1.53888 0.195043 1.57777 0 0 0 3.04039 0.207375 -0.0252982 -0.802469 0.813716 -2.29862 -4.52418 -31.908 22.9459 0.03 341.536 
258 1 1 0.0764784 0.220526 1.5892 0 0 0 -0.372929 -1.06098 -0.642338 4.77531 6.15739 -3.17146 -9.10378 -104.745 -21.6068 0.03 303.671 
193 1 1 0.35106 0.21147 1.57466 0 0 0 1.70954 -0.315103 -0.17295 49.6101 11.3734 99.0205 9.59614 -73.1762 11.1182 0.03 301.461 
230 1 1 0.461953 0.225387 1.57806 0 0 0 2.06697 -0.0338412 0.0283191 -1.16059 18.2665 -6.52086 -17.8165 -24.6085 -13.2753 0.03 314.666 
132 1 1 0.567781 0.223739 1.58272 0 0 0 1.59665 -0.454286 -0.250978 0 0 -2.77371 15.4243 -82.1154 -8.34568 0.03 343.233 
164 1 1 0.769948 0.210622 1.57685 0 0 0 2.33599 -0.105939 0.0014906 -0.00699128 0.000586852 0.0622838 3.54606 -55.7073 -19.164 0.03 331.216 
3 1 1 0.929971 0.223918 1.57737 0 0 0 2.8531 0.288254 0.0033889 0.644305 1.83493 -2.3606 -9.83318 -37.5531 -4.5598 0.03 364.897 
51 1 1 1.03 0.203156 1.57686 0 0 0 2.67414 0.131493 0.0137702 3.78424 2.34433 0.184912 -1.63994 -25.431 4.15011 0.03 337.637 
171 1 1 1.09179 0.2012 1.5769 0 0 0 2.71365 0.221707 0.00633586 0.889582 -0.223147 -0.939426 7.18121 15.1653 7.63868 0.03 307.486 
95 1 1 1.20315 0.227067 1.57691 0 0 0 3.01878 0.085153 -0.00567249 0.0305717 -0.0248328 -0.514203 -2.8017 -32.7591 -3.52119 0.03 327.92 
91 1 1 1.29986 0.221561 1.57684 0 0 0 2.71805 0.00957943 0.0103862 0.0295551 0.357628 -0.0131428 -0.516407 -42.9153 -6.48656 0.03 348.358 
15 1 1 1.48835 0.227251 1.57689 0 0 0 3.00071 0.279963 0.0175306 2.02166 1.11673 -0.169321 -16.4761 -6.53904 -0.806913 0.03 362.324 
488 1 1 0.339114 0.52293 2.47217 0 0 0 -0 -0 -1 0 0 0 0 0 0 0.03 300 
284 1 1 0.152151 0.230729 1.57398 0 0 0 0.83166 -0.564644 0.319245 49.4026 5.16137 96.5693 21.271 -126.439 22.8987 0.03 301.853 
185 1 1 0.267159 0.254737 1.57914 0 0 0 1.41789 -0.10852 0.0553484 -11.5042 -9.03524 -8.80808 -7.22727 -77.9234 -10.4371 0.03 314.136 
180 1 1 0.509383 0.260393 1.57702 0 0 0 2.1335 0.152769 0.144657 4.79712 5.17299 0.541333 -5.54197 -63.107 -13.9949 0.03 313.746 
110 1 1 0.71694 0.248828 1.57686 0 0 0 2.3624 0.0977419 -0.00352694 0.0129945 -0.000737833 0.119241 -3.27111 -54.8053 10.297 0.03 346.76 
107 1 1 0.811379 0.259265 1.57686 0 0 0 2.26378 -0.0327329 0.000214584 -0.000897967 -1.71042e-05 -0.0252307 1.09554 -58.1099 -1.88558 0.03 323.667 
5 1 1 1.00318 0.257176 1.57689 0 0 0 2.37906 0.0609331 0.010797 -0.0893613 0.120201 -0.87356 -2.02386 -54.2157 -13.6749 0.03 349.101 
12 1 1 1.09268 0.262851 1.57683 0 0 0 2.69593 0.322115 -0.00598887 0.193186 0.0227518 0.821591 -10.8048 -43.5793 -12.0767 0.03 348.252 
146 1 1 1.43174 0.247539 1.57701 0 0 0 2.82732 0.0134307 -0.132943 2.75751 0.348662 2.78521 -7.52954 16.8682 -1.53681 0.03 309.413 
78 1 1 1.53149 0.268279 1.58165 0 0 0 2.81547 0.528225 -0.165931 1.4774 0.881573 -2.78411 -23.1399 -22.7923 6.93152 0.03 350.374 
120 1 1 1.59719 0.259024 1.57687 0 0 0 2.55961 0.0331871 -0.000707697 0.00164811 -1.31068e-05 -0.147549 -1.11038 -48.1958 -20.38 0.03 382.858 
197 1 1 0.197874 0.300074 1.58139 0 0 0 0.91992 0.127085 -0.106467 0 0 -2.77371 4.81653 -105.265 6.24905 0.03 303.856 
206 1 1 0.309811 0.295684 1.57546 0 0 0 1.38588 -0.226397 -0.090372 11.0135 5.48582 33.4365 -23.3926 -55.2 -1.33485 0.03 320.028 
351 1 1 0.38151 0.2822 1.57438 0 0 0 1.86179 0.00107392 0.130055 -19.554 3.16521 8.27781 0.116941 -77.1984 6.0625 0.03 311.481 
70 1 1 0.760774 0.295459 1.57648 0 0 0 2.47068 0.0364607 0.101765 -0.48966 0.00278594 0.543724 -0.631355 -52.0728 -3.13859 0.03 339.345 
68 1 1 0.882534 0.264322 1.58522 0 0 0 2.05057 -0.452807 -0.712775 -0.622182 0.745354 -2.45587 12.9976 41.9993 0.210184 0.03 300.877 
127 1 1 1.14176 0.298882 1.57655 0 0 0 2.89105 0.265953 -0.101131 2.88507 2.07765 12.2806 -8.28611 -37.9999 2.92766 0.03 321.748 
19 1 1 1.25895 0.277734 1.57687 0 0 0 2.83924 0.0389388 0.00730486 0.00586344 0.0286497 -0.428735 -1.33837 -38.8131 -6.34663 0.03 321.693 
13 1 1 1.36723 0.282669 1.57682 0 0 0 2.63716 0.154032 -0.00382057 0.561104 -0.31501 -0.152379 -5.32186 -45.352 5.59942 0.03 390.221 
64 1 1 1.47482 0.289607 1.5775 0 0 0 2.68753 0.295729 0.00629891 -0.135851 0.0543863 -2.70252 -7.53689 -41.3424 11.1273 0.03 380.315 
257 1 1 0.0484119 0.335196 1.57692 0 0 0 0.366053 0.215183 -0.0204728 1.12515 0.712395 -0.110282 -7.60161 -120.774 2.33812 0.03 313.675 
331 1 1 0.348313 0.337576 1.58829 0 0 0 0.898459 0.398693 -0.659085 8.67809 9.27399 -10.9134 -2.05489 20.1768 19.3885 0.03 300.66 
339 1 1 0.462209 0.320879 1.5801 0 0 0 1.92327 -0.0583005 -0.104354 -7.34751 13.2111 -12.7322 7.08505 -72.4356 -1.34158 0.03 338.501 
209 1 1 0.700768 0.309345 1.57686 0 0 0 2.4952 0.0124188 0.00494028 -0.0164105 0.000215344 -0.170429 -0.415572 -50.3716 -3.6237 0.03 317.11 
313 1 1 0.848153 0.312734 1.5768 0 0 0 2.28141 -0.0783402 0.0467502 0.297643 -0.54644 -1.5153 2.15669 -57.9258 -14.5889 0.03 311.819 
166 1 1 0.949289 0.317062 1.57686 0 0 0 2.28814 -0.271309 3.57148e-06 -1.77535e-05 -2.81371e-06 -0.00118192 9.08068 -57.2958 17.9709 0.03 348.427 
175 1 1 1.08855 0.333046 1.57684 0 0 0 2.87567 0.314882 0.00518891 1.23331 0.827609 0.196798 -14.8493 -31.2325 12.7837 0.03 329.751 
225 1 1 1.19816 0.322405 1.57608 0 0 0 2.97658 0.166749 -0.296301 21.501 -1.29873 40.3067 -2.4761 17.7287 -6.86538 0.03 301.862 
35 1 1 1.25723 0.33807 1.57725 0 0 0 2.97189 -0.0102608 0.01011 0.397628 -0.470904 -2.45785 2.73164 -37.5642 4.2004 0.03 340.731 
11 1 1 1.31522 0.313255 1.57686 0 0 0 2.97169 0.105284 -0.00422817 0.00877098 9.89652e-06 0.285638 -3.5248 -34.422 -1.82626 0.03 365.398 
123 1 1 1.41931 0.312346 1.57685 0 0 0 2.60354 0.125402 0.0134069 1.05103 0.684119 -0.076846 -4.35765 -46.698 -5.95682 0.03 342.315 
7 1 1 1.5683 0.315271 1.57694 0 0 0 3.07664 0.371833 -0.0174683 -0.113719 -0.170928 -0.638397 -12.3803 -30.6766 -11.645 0.03 314.032 
429 1 1 0.311191 0.436552 2.47629 0 0 0 -0 -0 -1 0 0 0 0 0 0 0.03 300 
316 1 1 0.163338 0.375925 1.57674 0 0 0 1.48084 0.275885 -0.00822576 -2.51742 -1.53175 0.408311 -27.8445 -75.8734 -13.4221 0.03 311.547 
298 1 1 0.276065 0.364477 1.57689 0 0 0 1.48443 0.621677 0.0392295 -0.20916 0.0831528 -2.16974 -20.9746 -84.1904 0.89065 0.03 328.547 
31 1 1 0.514228 0.368398 1.5766 0 0 0 2.09951 0.105052 0.181824 1.92547 3.70324 1.79378 -5.44858 -63.8435 -1.21909 0.03 332.096 
340 1 1 0.613443 0.345401 1.58055 0 0 0 2.34502 0.0555851 -0.284638 0.256725 1.25644 -1.41601 -7.41236 -59.9833 8.22094 0.03 310.106 
53 1 1 0.713899 0.375397 1.57644 0 0 0 2.15387 0.352818 0.124905 0.204857 -1.67194 2.43844 -11.0771 -62.1743 0.782016 0.03 323.27 
233 1 1 0.849321 0.373381 1.57679 0 0 0 2.65936 -0.0463999 -0.124942 1.27858 -4.94684 7.4451 5.13478 -43.8833 0.384231 0.03 303.715 
38 1 1 1.00909 0.372494 1.57686 0 0 0 2.35283 0.131647 -0.000478851 0.00165349 -0.000132232 -0.00920696 -4.406 -55.1277 -3.55659 0.03 344.989 
94 1 1 1.36411 0.350685 1.57691 0 0 0 2.88044 -0.0632304 -0.0455781 0.684819 -0.863859 1.14785 1.99605 -37.5105 -0.289795 0.03 355.557 
24 1 1 1.49172 0.36286 1.58254 0 0 0 3.15254 0.0676613 -0.471914 -0.225393 0.0591211 -2.684 -6.22193 3.19317 1.69168 0.03 304.213 
143 1 1 1.6336 0.36731 1.57633 0 0 0 2.75601 -0.171391 0.0601258 0.0378272 3.31772 7.07846 3.48024 -41.8328 4.11391 0.03 368.997 
277 1 1 0.344887 0.40356 1.57847 0 0 0 0.924478 0.0449226 -1.06584 33.6583 -17.3232 -3.83417 8.61543 -12.4544 -22.0318 0.03 300.316 
300 1 1 0.435379 0.374101 1.57591 0 0 0 1.98866 -0.0758033 -0.00388233 -1.83186 1.60014 4.82609 3.87919 -68.336 9.26471 0.03 331.829 
128 1 1 0.918535 0.402579 1.57686 0 0 0 2.57585 0.0797762 -0.00037242 0.00114528 -6.30761e-05 0.00223443 -2.67004 -47.665 -6.99507 0.03 321.597 
187 1 1 1.12603 0.380789 1.5802 0 0 0 2.77077 0.366766 0.0313666 0 0 -2.77371 -12.4725 -40.9941 -10.7892 0.03 303.743 
291 1 1 1.21927 0.384278 1.57665 0 0 0 2.92155 -0.0109072 0.0206139 -0.0895777 -0.151053 1.19044 -0.33068 -38.0295 -1.02525 0.03 320.806 
126 1 1 1.4345 0.379915 1.57685 0 0 0 3.14978 0.28257 0.00275278 0.172748 -0.0463773 0.0291396 -9.49647 -28.5964 -12.4288 0.03 340.261 
289 1 1 0.184528 0.431205 1.58292 0 0 0 0.719674 0.664846 -0.855255 4.81609 -7.60921 2.74144 -21.2921 -55.5807 -7.15352 0.03 322.401 
285 1 1 0.245228 0.441389 1.57913 0 0 0 0.963593 -0.415459 -0.513749 -13.0814 9.10383 0.0531181 68.7211 55.0549 -6.73371 0.03 300.404 
148 1 1 0.543488 0.427105 1.57596 0 0 0 2.40766 0.475714 0.375663 0.626045 2.39038 -5.76086 -20.1829 -54.2653 2.35706 0.03 336.019 
77 1 1 1.02556 0.430553 1.57686 0 0 0 2.11751 0.192881 -0.0250016 -0.698789 -2.55916 -1.39769 -8.51923 -62.3777 4.36142 0.03 352.185 
135 1 1 1.23383 0.442087 1.577 0 0 0 2.86719 0.0139764 0.0118956 0.862353 -0.292501 0.635664 -3.58548 -37.2739 2.00229 0.03 367.078 
101 1 1 1.36187 0.410764 1.57696 0 0 0 2.90527 -0.00425147 0.00581375 0.111921 0.383581 -1.67071 0.428036 -36.6209 -1.92301 0.03 369.369 
170 1 1 1.61753 0.425779 1.57683 0 0 0 3.00124 -0.000232448 0.00748919 0.903514 -1.15836 0.16441 6.35728 -28.4941 -8.49171 0.03 356.155 
223 1 1 0.103729 0.458776 1.57604 0 0 0 0.696258 0.0878018 -0.0285321 3.30432 -1.5728 24.2873 -7.21202 -115.751 5.64185 0.03 304.667 
245 1 1 0.39053 0.463944 1.57642 0 0 0 1.93631 0.235003 0.346229 -9.33582 4.42919 -13.3854 -7.3652 -68.8301 -4.47756 0.03 315.376 
270 1 1 0.446958 0.446517 1.57801 0 0 0 2.02742 -0.127496 0.015954 1.1581 -1.47751 -6.73173 -1.7575 -63.0895 5.06167 0.03 316.082 
178 1 1 0.542702 0.484079 1.59119 0 0 0 1.83237 0.770864 -0.7396 -0.681961 16.1925 0.531372 -18.1367 1.19338 8.28492 0.03 301.029 
352 1 1 0.60551 0.460723 1.58183 0 0 0 1.90088 0.116574 -1.17372 0 0 -2.77371 -0.0405703 13.079 -11.8206 0.03 301.503 
84 1 1 0.678189 0.468267 1.57694 0 0 0 2.23256 0.145395 0.0813715 -0.534596 -0.740729 -5.27559 -4.42492 -59.1265 5.69003 0.03 336.431 
176 1 1 0.825971 0.456397 1.57686 0 0 0 2.34786 0.291767 -0.000467738 0.00166893 -0.000470744 0.0365556 -9.76541 -55.2981 3.7442 0.03 329.592 
25 1 1 0.93212 0.467915 1.57715 0 0 0 2.25331 0.133738 0.0103236 -3.92962 -3.43126 -5.34924 -7.53922 -54.8338 -1.01099 0.03 331.393 
169 1 1 1.29399 0.478155 1.57762 0 0 0 2.76018 -0.225853 0.0413163 0 0 -2.77371 7.81383 -41.3997 5.22091 0.03 353.678 
134 1 1 1.37127 0.469985 1.57675 0 0 0 2.78977 0.0513607 0.01057 0.67843 0.156623 0.844628 -11.4846 -33.0555 6.51155 0.03 331.433 
37 1 1 1.43188 0.476993 1.577 0 0 0 2.80486 0.0679847 0.00771792 0.0360706 -0.0961661 -2.28387 -2.23276 -39.8706 1.75843 0.03 342.105 
69 1 1 1.49288 0.466225 1.57688 0 0 0 2.81906 -0.0118802 -0.00494859 0.0261801 0.0141442 -0.136676 0.390452 -39.4945 -6.4876 0.03 380.407 
111 1 1 1.56135 0.449199 1.57682 0 0 0 2.84374 -0.103241 -0.00850619 0.0244484 0.0111238 1.20775 3.45372 -38.7446 2.9999 0.03 351.173 
255 1 1 0.206307 0.485777 1.57365 0 0 0 1.3684 0.657097 0.353057 -17.1463 20.4736 13.316 -27.8204 -101.516 -18.047 0.03 320.543 
308 1 1 0.336106 0.498406 1.57615 0 0 0 1.97027 0.396169 0.0780636 -14.2348 -6.60238 1.44796 -15.9015 -64.7268 -0.0957118 0.03 316.29 
279 1 1 0.445637 0.507941 1.5765 0 0 0 1.5683 0.30784 -0.0437658 16.5716 13.8121 -7.13812 -5.00086 -77.8523 13.8508 0.03 327.229 
116 1 1 0.75251 0.506926 1.57686 0 0 0 2.28112 0.259197 0.000800411 -0.00305747 0.000461059 -0.0281032 -8.67547 -57.5319 -6.98913 0.03 353.072 
6 1 1 0.874962 0.493232 1.57684 0 0 0 2.57306 0.155564 0.00160721 0.612297 -0.13531 0.222326 -5.34317 -48.3809 3.52828 0.03 329.595 
160 1 1 0.975195 0.509043 1.57697 0 0 0 2.22532 0.141785 -0.16128 11.1168 -20.9174 10.738 2.18106 -52.925 -4.81972 0.03 358.939 
4 1 1 1.0452 0.487134 1.57685 0 0 0 2.13055 -0.0402195 0.0208063 2.19316 6.76572 1.92983 0.153637 -62.0828 -4.0563 0.03 342.977 
136 1 1 1.23857 0.501529 1.57689 0 0 0 2.8247 0.00934172 -0.0251434 -0.00729091 1.69353 -2.11954 -0.00624069 24.0663 0.130236 0.03 335.477 
104 1 1 1.53597 0.509 1.57711 0 0 0 2.8713 0.0134525 -0.0639429 0 0 -2.77371 -0.713565 -37.4501 -1.20053 0.03 358.679 
149 1 1 1.59633 0.50253 1.58705 0 0 0 2.91815 -0.16638 -0.153547 -4.91083 -3.7244 1.81092 5.80329 38.6594 -5.48706 0.03 302.527 
365 1 1 0.173276 0.491192 2.4716 0 0 0 -0 -0 -1 0 0 0 0 0 0 0.03 300 
238 1 1 0.155202 0.551073 1.57953 0 0 0 0.963199 0.191365 0.04304 0.813335 -1.76472 -4.3131 6.18161 -56.0578 17.3165 0.03 303.702 
182 1 1 0.245271 0.538224 1.58009 0 0 0 1.361 0.32035 0.0969289 0 0 -2.77371 -10.8249 -88.8553 8.69513 0.03 303.352 
272 1 1 0.389235 0.52367 1.57655 0 0 0 1.85182 0.443554 0.0140298 -9.19733 11.4925 -1.07369 -2.21549 -44.4678 3.95288 0.03 320.424 
226 1 1 0.665756 0.553534 1.57661 0 0 0 2.41257 0.297986 -0.000647685 -4.71865 -2.83307 -2.3869 -11.5049 -50.1171 -6.934 0.03 336.536 
21 1 1 0.842446 0.547345 1.57875 0 0 0 2.0083 0.0855581 0.113569 0 0 -2.77371 -2.94335 -67.2247 0.326662 0.03 343.62 
34 1 1 1.0835 0.533221 1.58014 0 0 0 2.56629 -0.399785 -0.128744 0.0168608 -0.0248369 -2.76222 -4.42579 -13.827 6.72507 0.03 337.12 
117 1 1 1.17831 0.510433 1.5769 0 0 0 2.57506 -0.666006 0.00558833 -0.00829099 -0.0128996 -0.900567 22.2922 -47.5884 20.3761 0.03 351.596 
16 1 1 1.27335 0.550093 1.57836 0 0 0 2.73412 0.0381523 -0.164902 1.7896 2.17639 -1.29312 -5.99993 -34.7201 1.94069 0.03 363.354 
61 1 1 1.38615 0.527856 1.57692 0 0 0 2.75287 0.0946434 -0.0221741 0.163028 0.431432 -0.983531 -3.31344 -41.3873 -6.25052 0.03 361.063 
152 1 1 1.47049 0.523366 1.57661 0 0 0 2.90794 0.0647888 -0.0104386 -0.0319419 -0.322247 5.86752 -1.0167 -37.1827 -11.353 0.03 373.2 
42 1 1 1.64082 0.540284 1.57652 0 0 0 2.96631 -0.0696558 -0.0369172 -0.514806 -6.25585 4.02813 4.08834 -38.0746 2.40392 0.03 368.401 
304 1 1 0.466367 0.569446 1.57671 0 0 0 2.35256 -0.0277214 0.133551 -26.5072 -15.8921 1.39921 -0.955645 -47.0369 -22.0075 0.03 343.712 
249 1 1 0.52413 0.557021 1.57641 0 0 0 2.1208 -0.0777835 -0.0374142 -0.536491 -4.87945 -4.10997 9.32185 -46.3593 26.2878 0.03 332.754 
119 1 1 0.72236 0.570885 1.58186 0 0 0 2.36343 -0.123564 -0.566173 11.4675 4.59683 5.00098 -3.37425 -42.8458 -1.55564 0.03 355.047 
48 1 1 0.781477 0.564604 1.5771 0 0 0 2.49907 -0.0203311 0.0182754 1.42101 -0.126677 -2.60425 1.09455 -47.9863 9.54652 0.03 335.9 
227 1 1 0.976037 0.567979 1.57672 0 0 0 2.68174 0.165094 0.0145033 4.39261 0.423884 3.81579 3.76018 -46.0559 -10.6018 0.03 332.013 
147 1 1 1.03588 0.569525 1.57862 0 0 0 2.72602 -0.158448 -0.202056 2.07206 -3.19513 0.115668 9.72862 -13.3042 -29.9612 0.03 338.859 
17 1 1 1.14587 0.561784 1.57648 0 0 0 3.12182 -0.239218 0.165183 -0.603667 -1.59299 0.459854 9.72521 -30.4623 -28.1572 0.03 337.13 
75 1 1 1.20794 0.570983 1.5805 0 0 0 2.43225 -0.328463 -0.651429 0 0 -2.77371 0.33717 -22.6639 -40.4536 0.03 325.014 
118 1 1 1.33127 0.566809 1.57684 0 0 0 2.72482 0.0916451 -0.00286643 -0.00809992 -0.00500076 0.48128 -3.06597 -42.7092 -1.85094 0.03 359.307 
105 1 1 1.57795 0.565346 1.57685 0 0 0 2.77143 -0.0236134 0.00656364 0.274179 0.256117 -0.0738403 0.867386 -41.2625 -12.4633 0.03 347.452 
186 1 1 0.322973 0.148321 1.6115 0 0 0 2.1803 0.0185494 0.533483 -5.59204 37.0799 36.3064 13.7906 -60.045 51.5773 0.03 302.144 
62 1 1 0.494425 0.129367 1.63307 0 0 0 1.3953 -0.534331 0.53482 -0.695041 9.95518 0.593293 18.8465 -72.9157 52.391 0.03 313.834 
307 1 1 0.571464 0.164752 1.60992 0 0 0 1.50255 0.472006 -0.662863 1.77643 -0.0320163 -10.7167 -11.0012 -60.7798 42.5852 0.03 304.077 
137 1 1 0.678171 0.130683 1.63229 0 0 0 2.0734 0.222664 -0.163709 -0.245872 -0.230274 -2.66527 -8.9241 -33.2999 58.08 0.03 336.247 
76 1 1 0.965715 0.135848 1.62688 0 0 0 2.5842 0.23301 -0.211454 0.490141 4.0312 -0.781407 -12.5527 -9.59456 20.1776 0.03 324.986 
281 1 1 1.02617 0.157944 1.62639 0 0 0 2.72762 0.258606 -0.125785 0 0 -2.77371 22.5603 -27.201 11.036 0.03 313.57 
115 1 1 1.12064 0.148749 1.61419 0 0 0 2.15357 0.44856 -0.447161 -0.00411744 0.953297 -1.0266 -21.1739 -44.9578 42.3656 0.03 335.666 
49 1 1 1.37363 0.147134 1.6146 0 0 0 3.08025 0.0133418 0.0474363 -1.4998 16.0561 11.8641 -3.53356 -15.6697 33.6966 0.03 312.126 
252 1 1 0.648137 0.182818 1.63061 0 0 0 1.25118 -0.399187 -0.545667 1.84857 -3.39743 -0.228336 -3.58303 1.65896 -16.3894 0.03 300.636 
315 1 1 0.202947 0.226801 1.60947 0 0 0 -0.470747 -0.0796601 -0.628374 0 0 -2.77371 -9.54062 -7.58984 -5.27001 0.03 300.219 
194 1 1 0.28838 0.198526 1.6144 0 0 0 0.81879 -0.94627 0.933434 -72.5575 12.5151 -187.028 4.46365 69.3102 -5.60237 0.03 300.68 
349 1 1 0.409444 0.220978 1.62181 0 0 0 0.355005 -0.172205 -0.333838 -1.48762 5.66439 1.24306 -3.18825 1.5186 12.1103 0.03 300.292 
231 1 1 0.47674 0.213256 1.63431 0 0 0 1.04165 0.0888114 0.0745429 9.5163 1.8756 11.1948 -20.781 27.9998 -10.8919 0.03 301.599 
202 1 1 0.11241 0.261373 1.61276 0 0 0 -0.296228 -0.358903 -0.778787 -4.77531 -6.15739 -2.37597 -51.2673 28.1913 -8.40283 0.03 300.022 
189 1 1 0.311466 0.250697 1.63047 0 0 0 0.967744 -0.133408 -0.265514 -14.566 7.74744 -4.28384 -42.4265 -19.8271 38.549 0.03 300.011 
44 1 1 1.32798 0.260938 1.61643 0 0 0 2.7552 -0.00846542 0.0293399 -0.961563 -0.0127185 -2.2602 0.708686 42.6079 2.14079 0.03 305.663 
347 1 1 0.407681 0.285496 1.62499 0 0 0 0.682951 0.0134764 0.598398 8.07505 8.98788 22.167 -2.39155 39.4662 -0.866272 0.03 301.092 
240 1 1 0.477371 0.282544 1.62246 0 0 0 0.639109 -0.463806 -0.294865 13.4766 -10.3724 6.73052 12.8813 28.559 -14.9129 0.03 300.279 
282 1 1 0.549076 0.283891 1.61587 0 0 0 1.12617 -0.0930505 -0.841754 0 0 -2.77371 -6.85436 -28.5638 3.5159 0.03 300.005 
338 1 1 0.647374 0.285436 1.61513 0 0 0 1.40877 -0.26321 -0.668898 0 0 -2.77371 -8.72207 -19.1931 -9.26053 0.03 300.086 
324 1 1 0.114426 0.325229 1.59185 0 0 0 -0.201021 0.0309794 -1.01487 0 0 -2.77371 47.7297 9.47316 -10.4533 0.03 300.12 
73 1 1 0.256631 0.336272 1.62728 0 0 0 0.32168 0.371368 -0.467763 1.31649 -6.11954 -0.848358 32.9016 49.5036 -19.4752 0.03 301.671 
212 1 1 0.509328 0.332941 1.62463 0 0 0 1.02838 -0.397674 -0.0146339 -2.39106 -6.51803 -9.86411 25.0211 14.7734 4.50963 0.03 300.874 
71 1 1 0.771965 0.329184 1.62437 0 0 0 2.40153 0.130579 0.125012 0.344079 0.30522 -0.662914 2.31085 63.9496 23.4135 0.03 303.241 
155 1 1 1.60942 0.312452 1.62044 0 0 0 2.97085 0.318756 0.0797057 0.250324 0.124101 -2.59088 -2.59889 28.651 0.172757 0.03 303.873 
234 1 1 0.423594 0.342841 1.62412 0 0 0 0.428541 -0.171704 -0.36996 3.22977 2.12772 23.1307 -0.877057 -2.85369 -5.02869 0.03 300.203 
204 1 1 0.218129 0.391885 1.61233 0 0 0 0.759566 0.333482 -0.460641 -4.33163 8.21495 -3.73736 -16.638 37.5437 15.6815 0.03 300.587 
346 1 1 0.434282 0.410674 1.62368 0 0 0 0.609028 0.167988 0.0304009 0.639102 -1.96811 -0.863747 -14.9111 2.50948 -6.26564 0.03 301.405 
334 1 1 0.549314 0.397255 1.62626 0 0 0 1.24909 -0.0523838 0.605091 -0.340676 -2.9685 -12.422 39.9441 2.42289 5.91186 0.03 300.519 
153 1 1 1.37579 0.384766 1.62941 0 0 0 2.82605 0.205964 -0.0761445 0 0 -2.77371 15.0971 31.4305 4.79708 0.03 305.203 
309 1 1 0.106399 0.416784 1.62099 0 0 0 -0.535981 -0.535326 -0.0384778 0 0 -2.77371 13.4435 29.3064 17.2228 0.03 300.425 
344 1 1 0.293752 0.418011 1.60412 0 0 0 1.18894 -0.646024 -1.22203 -24.6694 13.4476 -1.9823 -27.9663 -33.7608 19.0542 0.03 300.006 
254 1 1 0.692402 0.431511 1.62172 0 0 0 2.25888 -0.142861 -0.0449376 3.90522 5.60944 2.59944 10.6011 38.5584 28.3898 0.03 301.052 
261 1 1 0.1387 0.473179 1.62526 0 0 0 -0.71925 -0.200685 -0.578104 0 0 -2.77371 5.43627 32.2449 4.72279 0.03 300.237 
210 1 1 0.203426 0.473634 1.62886 0 0 0 -0.674546 0.391004 0.243559 7.54218 19.2215 25.055 39.9947 39.0566 -5.96543 0.03 300.2 
190 1 1 0.391804 0.471677 1.63595 0 0 0 0.689018 0.552069 0.749064 12.8219 20.6101 -26.0509 0.763731 26.9922 19.5237 0.03 301.411 
263 1 1 0.469388 0.479903 1.62128 0 0 0 1.38594 0.514732 0.111683 23.4287 -8.86235 23.9664 4.73402 61.318 8.22388 0.03 301.781 
296 1 1 1.00077 0.483172 1.62419 0 0 0 1.9169 -0.118534 -0.00899225 0.280761 -0.818241 -2.2055 13.4495 37.2644 1.4779 0.03 301.436 
20 1 1 1.41581 0.497474 1.63117 0 0 0 2.36071 0.0647633 -0.0676599 0.16361 0.302667 -2.81148 -0.306985 28.1573 9.7045 0.03 302.925 
208 1 1 0.301476 0.524778 1.62141 0 0 0 0.297892 0.88354 -0.927358 0 0 -2.77371 8.0416 -8.45317 -13.6745 0.03 300.1 
220 1 1 0.410799 0.52851 1.63549 0 0 0 0.558718 0.752151 0.351531 45.3963 -28.1319 26.2979 -23.6865 -38.3283 -10.8598 0.03 300.063 
201 1 1 0.463701 0.555903 1.63434 0 0 0 0.842096 0.583439 0.542518 0.30134 -1.95059 -4.13806 -19.507 5.3274 -17.8077 0.03 300.826 
28 1 1 0.569694 0.541292 1.60934 0 0 0 1.69614 -0.033245 0.236905 9.77169 15.5931 -4.30274 19.7043 28.5146 -5.35502 0.03 302.618 
265 1 1 0.676118 0.523421 1.62733 0 0 0 1.66156 -0.259212 -0.0798483 -0.59927 0.978819 -3.51049 -1.45791 -0.0193037 -12.2439 0.03 301.476 
102 1 1 0.895011 0.542597 1.61317 0 0 0 2.2607 0.269676 0.195165 -32.4819 -10.8185 6.11797 -13.5925 71.7384 7.25215 0.03 301.445 
106 1 1 0.952518 0.537254 1.62657 0 0 0 1.73555 -0.0828554 -0.218315 31.8399 -13.576 -10.1288 -1.69929 14.7046 -12.7242 0.03 303.012 
98 1 1 1.31486 0.519102 1.61807 0 0 0 2.60365 0.0683446 0.0601314 0 0 -2.77371 -11.883 44.632 8.16315 0.03 302.554 
271 1 1 0.369024 0.56833 1.6276 0 0 0 0.916987 0.385281 -0.250812 -46.9662 26.7908 -35.1854 -13.2098 51.4724 3.99038 0.03 300.871 
243 1 1 0.750843 0.580826 1.63398 0 0 0 1.66945 0.147143 0.0471203 0 0 -2.77371 -27.951 9.94893 -33.3332 0.03 301.082 
2 1 1 1.41793 0.556123 1.61887 0 0 0 2.88085 0.0668853 -0.091284 0.78194 0.103735 -1.10742 -3.91789 38.6817 -5.93533 0.03 318 
303 1 1 0.161006 0.601775 1.61033 0 0 0 0.363033 0.216653 0.228182 0.648573 -2.49319 9.48029 -11.9422 -99.9916 -71.3865 0.03 317.219 
237 1 1 0.32159 0.59499 1.60222 0 0 0 1.66189 0.281453 0.104565 24.5518 -30.2378 43.377 -7.01349 -50.738 -69.1999 0.03 304.476 
55 1 1 0.503029 0.601584 1.60929 0 0 0 2.27409 -0.098418 0.407444 2.84929 0.731301 4.21182 -8.7721 -18.37 -77.2937 0.03 309.524 
276 1 1 0.584191 0.604738 1.62389 0 0 0 1.62338 -0.134739 -0.0789396 0 0 -2.77371 -4.76291 -64.5313 -49.4407 0.03 305.621 
154 1 1 0.802366 0.616582 1.62575 0 0 0 2.08226 -0.390375 -0.388244 -0.00635287 -1.01555 -0.973133 18.4137 -35.8922 -54.8213 0.03 326.586 
57 1 1 0.868834 0.595181 1.60419 0 0 0 2.21481 0.104678 0.00430339 3.06719 7.76211 2.74832 -25.675 -8.18503 -30.7024 0.03 334.853 
89 1 1 0.932638 0.590835 1.61139 0 0 0 2.19303 0.0886683 -0.376735 0.593792 12.9072 -3.01861 5.59397 -21.8343 -22.3093 0.03 330.358 
65 1 1 1.09838 0.598744 1.60792 0 0 0 2.7211 -0.303276 -0.303411 0.000255029 -0.988865 -0.988176 14.3464 -29.043 -31.4406 0.03 316.404 
27 1 1 1.16199 0.595136 1.6232 0 0 0 2.56907 -0.255634 0.583305 -0.172062 -0.252475 -4.20785 -25.9792 -28.0543 -19.9498 0.03 333.772 
99 1 1 1.25317 0.602443 1.62365 0 0 0 2.10215 0.0813948 -0.0102601 0 0 -2.77371 -19.5823 -41.1356 -42.3874 0.03 342.722 
79 1 1 1.37567 0.596502 1.60572 0 0 0 2.81548 0.0126114 -0.00710115 0.582106 -0.377998 -0.895206 -6.61027 -15.7256 -29.0051 0.03 335.296 
156 1 1 1.46532 0.593492 1.60267 0 0 0 2.51055 -0.197243 -0.197312 0.000198573 -0.997804 -0.980416 9.33128 -45.02 -25.4225 0.03 354.749 
18 1 1 1.62564 0.592278 1.6013 0 0 0 2.90746 -0.0809662 -0.118104 1.11049 0.721999 0.145509 5.42795 -18.6084 -32.8146 0.03 333.403 
332 1 1 0.214016 0.112177 1.65088 0 0 0 0.246891 -0.0936341 0.10098 0.328199 0.4227 -2.24358 21.3754 -41.1154 33.6507 0.03 307.644 
283 1 1 0.294064 0.0977257 1.66635 0 0 0 0.802067 -0.238781 0.256485 0 0 -2.77371 13.6488 -0.330864 7.99445 0.03 303.246 
74 1 1 0.75815 0.11576 1.64882 0 0 0 2.18971 -0.147706 -0.227248 -12.6019 -1.06977 -11.0807 17.1132 -8.89509 10.3022 0.03 305.822 
333 1 1 0.813331 0.100921 1.6629 0 0 0 2.43766 0.318248 -0.029327 12.6019 1.06977 5.53331 -5.97336 -30.1684 37.6119 0.03 311.932 
139 1 1 0.86425 0.123848 1.64027 0 0 0 2.09741 0.0877819 -0.0213322 0 0 -2.77371 -0.112868 -53.8392 36.0091 0.03 339.288 
183 1 1 0.603128 0.218748 1.64412 0 0 0 1.26535 -0.227966 0.200382 -1.84857 3.39743 -5.31909 -39.8909 58.5258 27.7888 0.03 300.739 
319 1 1 0.778275 0.22367 1.64017 0 0 0 1.74016 0.0178512 -0.244662 0 0 -2.77371 24.3173 41.486 -14.2233 0.03 300.778 
330 1 1 0.539997 0.237288 1.65259 0 0 0 1.46884 -0.0916625 -0.492039 0 0 -2.77371 -1.40363 -2.85752 12.4899 0.03 300.018 
322 1 1 0.921209 0.240547 1.63855 0 0 0 2.20267 0.109289 -0.101457 0 0 -2.77371 -28.6268 32.745 -20.5196 0.03 301.542 
253 1 1 0.25387 0.280768 1.64952 0 0 0 0.0537644 -0.357771 -1.49735 -1.31649 6.11954 -4.69907 10.6296 -2.13469 -10.2572 0.03 300.03 
211 1 1 0.342793 0.300718 1.63364 0 0 0 0.488661 0.769637 -0.422213 -5.03201 -23.4818 5.15518 -7.76152 -37.2858 -12.682 0.03 300.013 
181 1 1 0.808887 0.303474 1.66871 0 0 0 1.74719 0.0343333 -0.161407 0 0 -2.77371 -19.5036 24.9736 24.781 0.03 300.753 
250 1 1 0.367533 0.370156 1.63272 0 0 0 0.684919 0.494904 -0.68075 15.036 31.9911 14.3184 0.738865 -25.5163 -1.18937 0.03 300.017 
184 1 1 0.480774 0.367957 1.6646 0 0 0 0.81915 -0.0860683 -0.369022 0 0 -2.77371 -42.3266 -14.8933 7.93808 0.03 300.007 
242 1 1 0.549162 0.353193 1.66538 0 0 0 1.73795 -0.702821 0.0234813 0.253774 -7.91499 9.60167 -13.6711 14.1948 0.958415 0.03 300.01 
216 1 1 0.631402 0.36243 1.63515 0 0 0 1.71052 0.350071 -0.0569069 -0.256725 -1.25644 -4.13141 14.1107 41.8833 -2.67579 0.03 300.201 
318 1 1 0.377098 0.421993 1.66489 0 0 0 0.59 0.0279284 -0.293037 -2.34181 14.0537 -5.16182 31.9696 -36.4577 -18.9298 0.03 300.046 
295 1 1 0.488306 0.43837 1.65718 0 0 0 1.78633 -0.404148 -0.399397 8.47323 -13.7516 12.7901 20.6738 -28.4608 -25.9088 0.03 300.039 
274 1 1 0.599786 0.435043 1.64414 0 0 0 1.11041 -0.485553 -1.09962 3.71089 -27.7754 14.0129 5.58308 -7.38764 8.55286 0.03 300.001 
335 1 1 0.708275 0.471916 1.66233 0 0 0 1.74673 0.710845 -0.0430416 -3.6002 -5.77566 -7.41657 -13.9145 -11.4077 31.6733 0.03 300.282 
198 1 1 0.518345 0.509979 1.64417 0 0 0 2.02314 0.78844 -0.842077 0 0 -2.77371 19.2599 10.0101 38.7981 0.03 300.03 
262 1 1 0.585767 0.49177 1.63901 0 0 0 1.57194 -0.439484 -0.733351 -10.4137 20.6484 -19.9033 17.7217 -19.279 -19.1982 0.03 300.092 
310 1 1 0.180233 0.549464 1.65032 0 0 0 0.200097 0.985915 -1.14317 0 0 -2.77371 -32.0794 -6.85312 -5.28644 0.03 300.001 
224 1 1 0.616872 0.547778 1.64294 0 0 0 1.84403 0.271599 -0.0321212 10.9818 -2.79431 -5.44831 12.0704 -23.778 36.436 0.03 301.845 
239 1 1 0.810182 0.534407 1.64113 0 0 0 1.55189 0.277362 -0.196847 0 0 -2.77371 -8.43035 41.701 4.12706 0.03 300.768 
150 1 1 1.03943 0.536574 1.63367 0 0 0 2.12543 -0.424166 -0.218595 0 0 -2.77371 -6.61328 17.9994 24.1996 0.03 301.757 
290 1 1 0.243956 0.580717 1.62883 0 0 0 -0.471175 0.712057 -1.05478 0 0 -2.77371 29.7276 -30.1455 4.88823 0.03 300.02 
329 1 1 0.534141 0.569725 1.64746 0 0 0 1.98092 -0.259054 0.837985 11.9399 0.230019 15.5894 -23.1739 33.941 39.0957 0.03 300.1 
52 1 1 0.700652 0.614696 1.6438 0 0 0 1.53589 0.0886896 -0.203509 0 0 -2.77371 -7.49989 37.4352 43.85 0.03 301.807 
301 1 1 0.204451 0.630828 1.6395 0 0 0 0.747893 0.107666 -0.220336 11.477 -14.1439 15.144 -12.6819 1.32385 -44.6344 0.03 303.716 
326 1 1 0.484246 0.648338 1.65753 0 0 0 1.04438 0.112992 0.115405 -0.0136862 -0.812582 -1.14009 -5.45202 -116.085 -23.6564 0.03 338.279 
72 1 1 0.642979 0.636773 1.64599 0 0 0 1.54786 0.128235 0.121158 0.075376 -0.81095 -1.11953 -5.84219 -46.7259 -68.9976 0.03 339.125 
138 1 1 1.05062 0.626312 1.63549 0 0 0 2.70879 -0.408539 -0.40868 0.818938 -1.0063 -0.987774 -0.768609 -9.72515 -9.1728 0.03 314.726 
317 1 1 0.398869 0.0615533 1.70139 0 0 0 1.24208 -0.253196 0.252721 0.48829 0.778932 -0.810038 30.3964 -53.2824 61.9776 0.03 313.285 
196 1 1 0.581957 0.150979 1.66693 0 0 0 0.456796 0.0468587 -0.672162 -1.77643 0.0320163 5.16924 9.00537 -16.4251 -26.0366 0.03 300.3 
353 1 1 0.264838 0.222599 1.6624 0 0 0 0.238112 -0.948828 -2.00285 89.4933 -16.324 190.815 8.04884 -13.226 12.8472 0.03 300 
219 1 1 0.424567 0.262421 1.67473 0 0 0 1.19002 -0.0338064 0.677144 17.5766 -19.6367 48.4965 -4.13223 -16.2812 -24.0163 0.03 300.012 
199 1 1 0.25754 0.335799 1.6878 0 0 0 0.0130401 0.135031 -1.36662 1.77898 2.10839 -3.71477 -39.2063 -12.7794 2.8044 0.03 300 