ITEM: TIMESTEP
102000
ITEM: NUMBER OF ATOMS
527
ITEM: BOX BOUNDS ff ff ff
0 3.3
-0.3 0.8
-0.5 3
ITEM: ATOMS id type type x y z ix iy iz vx vy vz fx fy fz omegax omegay omegaz radius f_Temp[0] 
213 1 1 0.153425 0.169529 1.59249 0 0 0 1.0272 0.374126 0.0596614 -0.25624 0.642889 -10.2912 -9.15084 -92.1108 51.5904 0.03 316.99 
248 1 1 0.260387 0.185252 1.57824 0 0 0 1.87216 -0.234205 -0.0591946 0 0 -2.77371 7.46403 -75.1711 28.8141 0.03 310.224 
97 1 1 0.351535 0.186085 1.58057 0 0 0 1.59344 -0.266696 -0.0738782 0 0 -2.77371 -0.334617 -79.0475 51.201 0.03 334.281 
22 1 1 0.502087 0.192715 1.57633 0 0 0 2.2509 -0.0712449 0.0691721 -19.2115 3.96306 -20.0126 3.21756 -52.2751 -27.3993 0.03 320.721 
288 1 1 0.553242 0.169059 1.59348 0 0 0 1.94596 -0.0478553 0.0540328 1.37359 -7.72067 12.8263 28.3844 -44.7797 32.0602 0.03 318.748 
90 1 1 0.632204 0.182019 1.58203 0 0 0 2.33926 0.132027 -0.00249178 0.609376 -0.405674 -2.32708 -1.48747 -40.7423 37.6672 0.03 344.853 
221 1 1 0.765158 0.182017 1.5813 0 0 0 3.05333 -0.260948 0.515311 0 0 -2.77371 18.8742 -29.407 15.3763 0.03 306.184 
51 1 1 0.82516 0.193932 1.57685 0 0 0 2.44434 -0.0486188 0.00643789 -0.0254006 0.0137191 -0.151108 1.61659 -52.0848 16.2262 0.03 332.561 
171 1 1 0.8895 0.168593 1.59353 0 0 0 2.6823 0.56956 -0.238042 0.737104 0.956403 -1.60076 -8.61766 11.8665 2.22041 0.03 302.961 
40 1 1 1.01721 0.187078 1.58316 0 0 0 2.80661 -0.0595689 0.0566623 0 0 -2.77371 12.1757 -37.5894 5.53724 0.03 339.479 
161 1 1 1.19967 0.185742 1.57722 0 0 0 2.91455 0.0387521 -0.03501 0.293635 0.532582 -1.36064 -1.04344 -31.3264 19.4761 0.03 341.774 
165 1 1 1.32667 0.173891 1.58908 0 0 0 2.20535 0.723959 -0.738697 19.6044 -42.0737 22.7028 -33.3669 -28.7815 54.3518 0.03 334.078 
88 1 1 1.49529 0.19039 1.57678 0 0 0 2.81746 -0.140254 0.0135136 1.86275 -1.04481 1.31268 4.85817 -39.6227 -12.9988 0.03 325.747 
513 1 1 0.257051 0.497454 2.54406 0 0 0 -0 -0 -1 0 0 0 0 0 0 0.03 300 
185 1 1 0.176361 0.224134 1.58996 0 0 0 0.465649 0.902376 -0.412551 -1.55385 0.513613 2.10193 -34.3225 14.9261 -21.6488 0.03 300.199 
164 1 1 0.58456 0.217854 1.57681 0 0 0 2.20463 -0.0289386 0.0140591 5.78733 -2.81165 1.86842 8.19421 -48.5879 -17.9307 0.03 319.926 
95 1 1 0.967141 0.222757 1.57679 0 0 0 2.69276 0.0583413 -0.115223 -1.64376 17.7985 -10.4101 9.27484 -24.4657 -10.228 0.03 317.503 
91 1 1 1.07492 0.217607 1.5769 0 0 0 2.86548 0.0673926 -0.0177219 0.997251 1.40393 -2.32371 1.6126 -31.8368 -14.4396 0.03 336.88 
141 1 1 1.13908 0.194768 1.57687 0 0 0 2.82361 -0.26359 0.00297146 1.27889 -0.0418857 -0.21457 10.4396 10.0282 -4.67478 0.03 311.704 
15 1 1 1.25521 0.208155 1.57689 0 0 0 2.88048 0.156427 0.00552428 0.246396 0.177177 -0.539235 -5.26876 -37.4814 20.3749 0.03 354.097 
78 1 1 1.32749 0.231437 1.57676 0 0 0 2.44441 0.189321 -0.11487 -15.6412 27.8381 -14.8077 2.36257 -50.7983 19.1786 0.03 347.002 
173 1 1 1.4364 0.200684 1.57667 0 0 0 2.89268 0.0469669 0.00918273 -0.443277 2.44222 2.08743 -1.03223 -35.7802 26.5946 0.03 333.57 
230 1 1 0.311484 0.246943 1.57734 0 0 0 0.459729 -0.391583 -0.729332 6.08412 -1.7399 -0.315544 14.3772 54.0371 -13.5623 0.03 301.466 
132 1 1 0.438859 0.260065 1.57608 0 0 0 1.42825 -0.415148 -0.99874 44.5547 -8.5444 25.3403 20.4341 -53.9517 -8.26316 0.03 339.61 
110 1 1 0.531255 0.243832 1.58425 0 0 0 2.27179 -0.128646 -0.193774 -0.669436 10.907 1.7505 -11.7873 -53.4945 17.2536 0.03 339.725 
107 1 1 0.630193 0.262085 1.57777 0 0 0 2.27311 -0.0579239 -0.0440169 0 0 -2.77371 -0.998344 -58.8865 -1.88558 0.03 313.788 
3 1 1 0.717258 0.230548 1.57687 0 0 0 2.63948 -0.300625 0.000552308 -0.0024122 -0.000842475 -0.128253 10.0603 -45.5293 7.97577 0.03 358.606 
5 1 1 0.813635 0.255299 1.57687 0 0 0 2.36698 0.0135188 0.000430168 -0.00164948 -0.000102797 -0.0763014 -0.452427 -54.6522 -17.1391 0.03 339.02 
12 1 1 0.877687 0.239244 1.57923 0 0 0 2.31343 0.477069 -0.602262 0 0 -2.77371 -2.87708 9.62364 -10.5678 0.03 338.671 
19 1 1 1.03003 0.261352 1.57689 0 0 0 2.87987 0.308887 0.00910908 -0.088723 0.0152381 -0.936357 -10.3203 -37.3706 -12.8492 0.03 311.593 
13 1 1 1.16541 0.268611 1.57688 0 0 0 2.39948 0.219918 -0.00135096 -0.00112786 -0.023306 -0.208124 -7.34619 -53.5497 0.876208 0.03 383.472 
120 1 1 1.39306 0.254349 1.57686 0 0 0 2.54739 0.101241 0.00208568 -0.0067029 0.000460272 -0.0647812 -3.38872 -48.6216 -19.5158 0.03 374.526 
125 1 1 1.45998 0.255606 1.57683 0 0 0 2.6513 0.228764 -0.00273565 -0.121208 -0.263044 0.70613 -7.36802 -45.687 -6.80815 0.03 346.792 
206 1 1 0.20543 0.297221 1.57443 0 0 0 1.26393 -0.115895 -0.506182 12.3392 -5.04985 12.0542 8.52678 -87.8848 10.6571 0.03 311.554 
351 1 1 0.258967 0.275482 1.57976 0 0 0 1.11794 0.307506 0.523373 40.1757 -20.3498 26.3617 4.49076 -46.911 -3.12642 0.03 304.882 
70 1 1 0.564189 0.294374 1.58079 0 0 0 2.29365 -0.164711 0.0385229 0 0 -2.77371 -1.26355 -38.5914 -6.08998 0.03 335.236 
127 1 1 0.9243 0.290243 1.57689 0 0 0 2.29206 -0.0711761 -0.0090278 13.2935 18.2337 26.6856 2.60839 -56.782 13.0687 0.03 318.3 
11 1 1 1.08031 0.298141 1.57675 0 0 0 2.88756 0.345263 0.0335461 1.37296 0.749143 0.354379 -17.3953 -26.661 14.8889 0.03 358.631 
64 1 1 1.27125 0.285272 1.57686 0 0 0 2.54484 0.00267426 0.00717692 -0.276455 0.0392722 -0.286472 -0.104092 -48.8086 22.6316 0.03 373.225 
7 1 1 1.33106 0.292066 1.58305 0 0 0 2.6524 0.236907 -0.625797 0 0 -2.77371 10.9225 61.5672 -11.9731 0.03 303.987 
144 1 1 1.50779 0.295515 1.57686 0 0 0 2.7279 -0.0110536 0.000116075 -0.000401501 -1.03685e-05 -0.028312 0.369953 -42.5755 18.123 0.03 349.245 
41 1 1 1.59153 0.275202 1.57686 0 0 0 2.53788 0.111903 -6.20293e-09 2.02158e-08 -1.54723e-09 2.23741e-07 -3.74538 -48.9369 -3.69394 0.03 370.104 
257 1 1 0.0311261 0.324513 1.57706 0 0 0 0.44286 0.216818 0.031543 0.358423 0.0368419 -3.49433 -8.63291 -105.053 -6.65116 0.03 306.304 
339 1 1 0.322623 0.320543 1.57688 0 0 0 1.33353 0.348171 -0.0298259 5.35103 -21.3049 -26.6226 -4.84427 -84.0482 3.30363 0.03 331.232 
209 1 1 0.504935 0.306918 1.57726 0 0 0 2.31447 0.137515 -0.072718 11.6815 -4.19862 -12.1996 -1.31667 -41.5233 -11.6034 0.03 305.258 
313 1 1 0.668094 0.310542 1.58264 0 0 0 2.53451 -0.126482 0.113916 0 0 -2.77371 1.63466 -48.5072 -15.5005 0.03 306.351 
175 1 1 0.866775 0.307159 1.57805 0 0 0 2.85422 0.361047 -0.00496764 -12.9128 -18.4626 -29.5591 -21.007 -6.64532 20.5292 0.03 319.495 
94 1 1 1.13331 0.326266 1.57692 0 0 0 2.85845 0.522273 0.0700113 -1.05512 -0.387437 -4.64334 -25.2022 -23.0782 -4.53776 0.03 348.681 
123 1 1 1.21366 0.304352 1.57676 0 0 0 2.52633 0.0780324 0.0161238 -0.0316908 0.427191 0.693586 -3.06921 -49.4433 -5.36054 0.03 331.989 
56 1 1 1.43397 0.312448 1.57686 0 0 0 2.57716 0.0454217 -0.0121936 -0.0577806 -0.00215893 -0.183003 -1.45845 -47.7174 -16.4949 0.03 335.583 
488 1 1 0.339114 0.52293 2.55217 0 0 0 -0 -0 -1 0 0 0 0 0 0 0.03 300 
298 1 1 0.164506 0.341443 1.57525 0 0 0 1.30671 0.35068 -0.395684 27.9179 -11.365 29.0776 12.8374 -77.7328 11.2872 0.03 316.597 
300 1 1 0.290756 0.371473 1.57887 0 0 0 1.37785 0.433135 0.0675751 0 0 -2.77371 -12.3688 -86.4613 5.86556 0.03 320.565 
31 1 1 0.376753 0.360406 1.57625 0 0 0 1.56167 -0.11986 0.238492 -36.3867 10.6026 -6.98392 3.76077 -72.6058 -11.1474 0.03 315.933 
340 1 1 0.434055 0.345553 1.58003 0 0 0 0.883429 0.00475522 -0.863564 32.4776 -11.6311 16.9541 -3.13313 69.1706 2.84423 0.03 300.216 
53 1 1 0.543768 0.358973 1.58071 0 0 0 1.84336 -0.084829 0.0276009 0 0 -2.77371 1.46866 -77.1056 -8.37635 0.03 321.473 
166 1 1 0.766239 0.338767 1.5769 0 0 0 2.28761 -0.271393 -0.0011356 -0.00163453 -0.000282224 -0.631965 9.07372 -57.2519 17.9709 0.03 338.615 
38 1 1 0.821504 0.362454 1.57757 0 0 0 2.16829 -0.00437185 -0.266769 0 0 -2.77371 -15.6416 -39.8879 -3.55659 0.03 335.389 
291 1 1 0.981614 0.378209 1.57681 0 0 0 3.06637 0.413939 -0.0109154 2.0379 -0.408983 1.38336 -10.3819 -13.9164 -18.0976 0.03 307.911 
35 1 1 1.03312 0.341539 1.58179 0 0 0 2.81737 -0.214518 -0.0254841 0 0 -2.77371 9.21083 -31.3866 -3.9128 0.03 333.987 
126 1 1 1.18444 0.357426 1.57767 0 0 0 2.99341 0.22223 -0.188494 -22.4443 2.8491 -21.7834 -11.7373 -12.254 -13.7691 0.03 330.188 
24 1 1 1.24163 0.357217 1.59115 0 0 0 2.81257 0.078197 0.00520697 23.9746 -2.21816 17.0376 -6.75678 -14.3792 1.52497 0.03 303.88 
124 1 1 1.51287 0.364972 1.57686 0 0 0 2.42636 0.24896 0.000364915 -0.00121477 0.000466486 -0.0187559 -8.33295 -52.6695 -7.93824 0.03 374.182 
128 1 1 0.711792 0.396296 1.57652 0 0 0 2.76086 0.144154 -0.173945 5.12704 2.23327 17.4552 -4.95042 -41.3082 -22.1457 0.03 309.934 
101 1 1 1.13343 0.406948 1.57677 0 0 0 2.84599 0.0988663 0.00103297 -0.106711 -0.193457 -0.422675 -3.02202 -38.7287 1.92105 0.03 360.902 
143 1 1 1.41973 0.377007 1.57892 0 0 0 2.62105 -0.345551 0.227231 0.28306 -0.303914 -2.55238 16.6097 -43.6748 -1.74709 0.03 368.627 
122 1 1 1.55844 0.409581 1.5763 0 0 0 2.86364 0.0382995 0.054568 0.708604 -1.17148 11.1086 -0.986942 -38.7643 -8.46865 0.03 358.375 
30 1 1 1.65295 0.391363 1.57687 0 0 0 2.80086 -0.0174173 0.00376197 -0.0104064 -9.96494e-05 -0.27103 0.582971 -40.1298 -4.02309 0.03 380.41 
289 1 1 0.105896 0.418608 1.57675 0 0 0 0.47286 -0.233583 -0.00603125 1.93938 1.72157 2.4128 -21.4437 -85.2835 -7.31578 0.03 315.342 
270 1 1 0.312192 0.430523 1.57728 0 0 0 1.65452 0.422672 0.238044 -31.0239 -26.6504 1.75021 -18.3715 -17.3616 0.655114 0.03 303.816 
148 1 1 0.381505 0.422569 1.57558 0 0 0 1.75841 -0.115147 0.345565 17.5288 -3.66077 -1.87296 3.24648 -79.1893 -4.29235 0.03 332.02 
176 1 1 0.638129 0.432608 1.57532 0 0 0 2.50112 0.292642 0.0610459 -3.40269 -2.95891 31.0253 -11.8076 -61.4127 4.67272 0.03 318.545 
77 1 1 0.856234 0.414686 1.57681 0 0 0 2.11723 0.197746 0.0230723 -0.125874 -0.0688489 -0.205204 -6.69513 -63.0838 4.58591 0.03 342.566 
170 1 1 1.38415 0.424773 1.57666 0 0 0 2.86133 -0.026014 0.0830842 3.34112 -2.92417 1.20743 20.3746 -19.672 -7.57435 0.03 346.97 
50 1 1 1.46059 0.4393 1.57716 0 0 0 2.77663 -0.260235 -0.258992 0 0 -2.77371 5.22063 -15.6173 -0.926605 0.03 355.157 
255 1 1 0.121869 0.476447 1.57858 0 0 0 0.381904 -0.00540695 -0.427674 0 0 -2.77371 -36.4236 -74.8735 5.16441 0.03 303.895 
308 1 1 0.195308 0.455975 1.57813 0 0 0 0.981863 0.722145 -0.43135 0 0 -2.77371 -28.1106 -36.7276 -19.2721 0.03 303.697 
245 1 1 0.253765 0.445862 1.59467 0 0 0 1.16759 -0.0459521 -0.413416 0 0 -2.77371 -8.97077 5.05071 -3.6093 0.03 303.685 
263 1 1 0.352468 0.469749 1.59406 0 0 0 1.61562 -0.175539 0.628232 12.0653 23.4712 8.18365 44.9805 18.0526 -9.47941 0.03 300.697 
84 1 1 0.502366 0.468015 1.57898 0 0 0 2.17416 -0.0227984 0.0563098 0 0 -2.77371 3.27147 -60.4291 0.502665 0.03 327.823 
6 1 1 0.684291 0.470517 1.57752 0 0 0 2.11667 0.442105 -0.0599941 5.67142 4.23653 1.07812 -12.8294 -32.3712 -0.952384 0.03 323.22 
25 1 1 0.740698 0.449357 1.57838 0 0 0 2.0973 0.00111075 0.100696 0 0 -2.77371 1.55785 -57.4666 -17.4313 0.03 327.966 
135 1 1 1.01528 0.452414 1.57685 0 0 0 2.46777 -0.276345 -0.000162876 0.413945 -1.97066 -1.4294 8.49545 -51.3274 -6.38652 0.03 359.947 
134 1 1 1.14773 0.465202 1.57687 0 0 0 2.77092 0.144016 -0.0282758 1.74536 -0.247951 1.18138 -5.76915 0.92619 1.98766 0.03 317.924 
37 1 1 1.20731 0.472314 1.57666 0 0 0 2.77112 0.0519307 -0.0235793 1.09596 -0.0915873 4.86605 -1.98711 -42.5865 -0.828409 0.03 330.158 
69 1 1 1.26678 0.465933 1.57686 0 0 0 2.77807 0.00674444 0.0202292 1.79427 0.744601 -0.4688 -1.38618 -39.7516 -7.69743 0.03 372.278 
111 1 1 1.33468 0.457743 1.57655 0 0 0 2.74397 -0.0353845 0.0271026 2.8087 -2.6226 4.69066 9.07507 -32.3553 4.32194 0.03 341.153 
163 1 1 1.51984 0.455313 1.57696 0 0 0 2.81827 -0.0123611 -0.109217 3.94895 -0.529838 2.25054 1.39159 -36.2409 16.1357 0.03 363.874 
131 1 1 1.62119 0.447514 1.5768 0 0 0 2.86858 -0.0760137 -0.00849168 0.0868141 -0.148018 0.0187374 2.50471 -37.8032 -6.32639 0.03 359.463 
272 1 1 0.246855 0.50818 1.57953 0 0 0 1.74193 0.391085 -0.0045459 0 0 -2.77371 -12.4368 -75.4455 12.2416 0.03 308.941 
279 1 1 0.310391 0.506949 1.57641 0 0 0 1.85923 0.0894112 0.326533 -4.68424 15.7166 -12.2621 4.92704 -72.1918 14.8759 0.03 317.971 
116 1 1 0.56999 0.486185 1.57872 0 0 0 2.2822 0.259828 -0.073442 0 0 -2.77371 -8.62331 -57.6235 -6.98913 0.03 344.72 
160 1 1 0.811528 0.497019 1.57686 0 0 0 1.93281 0.132968 -0.000121175 0.000532468 -3.427e-05 -0.00104181 -4.45038 -69.1881 3.49012 0.03 351.855 
4 1 1 0.878319 0.489385 1.57686 0 0 0 1.99903 -0.0624965 0.0064259 -0.0316639 -0.0675273 -0.256446 2.02358 -66.9837 9.12592 0.03 331.394 
136 1 1 1.01821 0.512068 1.57719 0 0 0 2.66027 -0.330865 0.0776115 4.88279 -1.55032 2.72679 8.00273 1.22018 6.34757 0.03 329.014 
169 1 1 1.07554 0.490618 1.57699 0 0 0 2.6762 -0.125262 0.0127869 0.0174737 -0.033429 -2.3176 4.20522 -44.146 0.553635 0.03 344.987 
104 1 1 1.30682 0.510503 1.57689 0 0 0 2.83246 0.00148404 -0.0195099 -1.48556 1.28199 -0.837774 6.25741 -32.0991 3.43231 0.03 350.065 
26 1 1 1.42194 0.486476 1.5768 0 0 0 3.05041 0.119969 0.0482959 0.0469743 0.442824 -0.719881 -3.99487 -31.4215 -8.9487 0.03 334.612 
145 1 1 1.64063 0.507369 1.57685 0 0 0 2.93538 -0.0317481 0.00249481 0.0178978 -0.00560559 0.0234596 1.06608 -35.5792 10.5924 0.03 350.055 
249 1 1 0.366279 0.546151 1.5769 0 0 0 1.58477 -0.0158602 0.0067084 0.894638 -0.0712385 -0.978773 0.780186 -77.6546 21.2501 0.03 316.556 
226 1 1 0.476132 0.524316 1.5769 0 0 0 2.391 0.433957 -0.118038 -2.3697 0.491142 0.694632 -14.6804 -55.1281 -4.26618 0.03 324.796 
21 1 1 0.676382 0.537019 1.57548 0 0 0 2.08283 -0.0161472 -0.217696 -6.32191 -16.0167 7.43299 -10.486 -61.3415 -2.94797 0.03 332.592 
34 1 1 0.890449 0.550153 1.57672 0 0 0 2.24025 -0.0356393 -0.0802072 0.243093 0.64592 6.87255 1.32302 -58.9129 -17.3366 0.03 333.445 
61 1 1 1.17503 0.527707 1.57742 0 0 0 2.51954 -0.121121 0.00491314 0 0 -2.77371 3.95005 -49.3849 -7.99049 0.03 355.574 
152 1 1 1.24977 0.532378 1.57684 0 0 0 2.65781 -0.219847 -0.0149819 0.100086 0.0240967 1.16296 7.34498 -44.8975 -15.045 0.03 367.793 
42 1 1 1.41004 0.545738 1.57685 0 0 0 2.75594 0.0208418 0.000727866 0.839988 -1.29531 -0.0963186 -0.711594 -41.5739 12.6425 0.03 360.313 
121 1 1 1.47043 0.538757 1.57682 0 0 0 2.79059 -0.0544444 0.00132379 0.855594 -0.0299609 0.172553 2.93427 -19.031 -19.4494 0.03 376.912 
63 1 1 1.53012 0.536922 1.58059 0 0 0 2.8031 -0.0575295 -0.0948583 0.867202 -0.0591697 -2.26978 2.03188 -21.5248 16.5858 0.03 373.557 
9 1 1 1.58792 0.530219 1.59733 0 0 0 2.84122 0.0291762 -0.26196 0 0 -2.77371 0.923956 29.0735 -12.0997 0.03 310.467 
303 1 1 0.124564 0.585796 1.59517 0 0 0 0.809407 0.000715634 0.0360911 0.0875963 0.504748 -2.95734 -32.7186 -101.207 -31.9686 0.03 309.552 
304 1 1 0.3012 0.566907 1.57511 0 0 0 2.09669 -0.100653 0.431683 -6.71448 -1.48715 7.91655 -2.10253 -63.9161 -28.7153 0.03 331.109 
119 1 1 0.525369 0.56975 1.57912 0 0 0 2.08641 0.0943158 0.184094 0.80868 1.36226 -3.79706 -9.79648 -86.0599 10.6796 0.03 351.093 
48 1 1 0.601415 0.563716 1.57686 0 0 0 1.8464 0.060387 0.000248505 -0.000951479 2.62734e-05 0.0427331 -2.02132 -72.087 15.185 0.03 325.938 
227 1 1 0.768607 0.558008 1.57684 0 0 0 2.48616 0.163496 -0.00389539 1.55271 0.649692 0.592595 -8.98074 -42.3059 -15.5605 0.03 317.765 
147 1 1 0.829021 0.57598 1.58541 0 0 0 2.67418 0.0365038 0.0614427 0.0425823 0.354133 -2.8969 -8.56828 -30.4093 -29.8314 0.03 328.612 
117 1 1 0.977987 0.555688 1.57614 0 0 0 2.43425 -0.497737 -0.152905 -1.67626 2.19063 7.87811 14.774 -51.8066 5.70923 0.03 343.694 
16 1 1 1.06079 0.554638 1.57683 0 0 0 2.54269 -0.124236 0.00347074 1.51492 0.229288 0.35128 3.27825 -42.9064 2.53807 0.03 358.296 
118 1 1 1.12036 0.561419 1.57751 0 0 0 2.53006 0.0449058 -0.00783198 0.0407708 0.00334063 -2.75273 -1.77904 -49.1592 -2.78067 0.03 351.048 
105 1 1 1.35423 0.567987 1.5771 0 0 0 2.85852 0.000333236 0.00943494 -1.12925 -0.732486 -0.473342 -0.518455 -42.4915 -12.801 0.03 335.71 
158 1 1 1.64239 0.567346 1.57683 0 0 0 2.91182 -0.025798 -0.00103233 0.00879354 0.0313612 0.548507 0.86572 -36.4355 -14.8987 0.03 376.462 
62 1 1 0.398639 0.147383 1.61534 0 0 0 0.618003 0.287141 -0.32868 0.29489 2.19194 3.76214 -14.6907 -101.942 57.9831 0.03 306.904 
281 1 1 0.822472 0.146973 1.61579 0 0 0 2.11525 -0.0132403 0.0707423 0.877534 1.0862 -0.753731 7.42036 -38.5633 40.721 0.03 311.315 
49 1 1 1.13521 0.151577 1.63258 0 0 0 3.02707 0.263221 -0.211631 0 0 -2.77371 16.047 -12.016 21.6787 0.03 310.759 
87 1 1 1.49123 0.145674 1.61725 0 0 0 2.4195 -0.00335982 -0.000819577 0.0113166 1.23858 -0.759123 0.0133553 -25.3236 49.451 0.03 350.147 
114 1 1 0.685416 0.165469 1.60528 0 0 0 2.54978 0.405212 -0.0477354 0 0 -2.77371 23.644 -8.97739 14.2552 0.03 334.335 
43 1 1 0.958431 0.179048 1.61559 0 0 0 1.69121 0.352548 -0.46641 5.90197 -20.0136 14.4625 -5.13538 15.4389 -29.2262 0.03 301.393 
58 1 1 1.08201 0.162978 1.60004 0 0 0 2.77092 0.0515466 -0.119209 0.187418 -1.05785 2.99815 -0.746902 -23.891 34.3903 0.03 359.697 
231 1 1 0.423167 0.215628 1.62313 0 0 0 0.559047 -1.04403 -0.191741 0 0 -2.77371 8.74672 39.6813 7.98894 0.03 300.885 
319 1 1 0.639063 0.222242 1.62835 0 0 0 1.74016 0.0178512 0.540138 0 0 -2.77371 24.3173 41.486 -14.2233 0.03 300.778 
180 1 1 0.374567 0.246196 1.58924 0 0 0 1.15085 -0.818367 -1.38503 2.63285 2.06978 -1.56783 3.06512 -32.41 3.71831 0.03 302.139 
183 1 1 0.477904 0.253146 1.61708 0 0 0 1.10121 -0.159339 -0.40521 42.9449 -8.53219 57.6811 -23.4184 42.4135 14.1933 0.03 300.307 
146 1 1 1.21769 0.249162 1.59952 0 0 0 2.44289 -0.0694031 -0.27517 -0.0381488 -0.451628 -2.27158 4.76756 66.3166 -6.95754 0.03 305.244 
46 1 1 1.50929 0.235044 1.61392 0 0 0 2.87882 0.0142061 -0.162514 1.12133 1.05348 -1.95653 -15.4028 56.7937 -12.8961 0.03 301.738 
68 1 1 0.726645 0.293126 1.6204 0 0 0 1.5338 -0.129753 -0.363194 0 0 -2.77371 12.698 37.5007 -6.0214 0.03 300.805 
44 1 1 1.12465 0.271614 1.62077 0 0 0 2.08073 -0.174778 -0.268477 -0.0111702 -0.00325175 -2.73825 16.9997 44.2653 10.1389 0.03 303.289 
155 1 1 1.40385 0.293006 1.62486 0 0 0 2.30153 0.239988 -0.130342 -0.132281 -0.131475 -1.95978 -6.52944 35.9946 16.5778 0.03 302.797 
197 1 1 0.166194 0.305586 1.61969 0 0 0 -0.370549 -0.880585 -0.792986 19.5911 -0.528009 32.9274 21.7058 3.40561 2.39943 0.03 300.141 
73 1 1 0.230165 0.316797 1.62129 0 0 0 0.405487 0.22379 -0.00561221 11.142 20.595 68.1383 -14.2534 47.1223 -0.0715865 0.03 301.168 
331 1 1 0.287946 0.336904 1.63207 0 0 0 0.856225 0.0452961 -0.050192 -1.49719 -0.453644 -4.99103 53.8131 11.5934 11.7648 0.03 300.492 
347 1 1 0.365317 0.320808 1.61898 0 0 0 -0.0101833 -0.753676 -0.0243553 -4.2236 14.1132 11.8981 15.986 0.796578 19.3412 0.03 300.217 
216 1 1 0.480227 0.340618 1.61938 0 0 0 1.28718 0.23344 -0.957787 -9.2827 8.7164 0.72608 13.5192 -42.4572 13.1657 0.03 300.021 
225 1 1 0.974537 0.304358 1.61048 0 0 0 2.42741 0.0934138 -0.408523 0 0 -2.77371 -4.70069 47.2336 -0.295924 0.03 300.899 
316 1 1 0.0933147 0.35415 1.5923 0 0 0 -1.00335 -0.00263604 -1.54499 0 0 -2.77371 -4.22396 9.95749 -3.40245 0.03 300.074 
204 1 1 0.191939 0.363344 1.62788 0 0 0 0.433613 -0.0577549 0.964776 0 0 -2.77371 -58.8998 90.5471 22.2117 0.03 300.446 
71 1 1 0.598548 0.339244 1.62178 0 0 0 2.12636 -0.162242 0.366399 0 0 -2.77371 8.06357 73.3013 15.4898 0.03 302.955 
187 1 1 0.922853 0.348337 1.61813 0 0 0 2.36547 0.427867 -0.657893 0 0 -2.77371 22.2103 -37.1063 -13.1042 0.03 300.364 
346 1 1 0.378588 0.39222 1.62602 0 0 0 0.346561 -0.141961 0.680753 0.0235343 -6.73117 4.47697 -6.27313 24.2876 5.47003 0.03 300.702 
233 1 1 0.652539 0.378465 1.59676 0 0 0 2.11102 0.199549 -0.658582 0.554129 1.43913 9.77632 11.5889 -0.991663 7.1361 0.03 300.184 
153 1 1 1.15434 0.379064 1.62532 0 0 0 2.6502 -0.133756 -0.0487675 0.589807 -0.291048 -0.893543 15.9238 25.969 7.04668 0.03 304.062 
178 1 1 0.42133 0.447503 1.61173 0 0 0 1.31152 0.542345 0.655304 2.80083 -0.0276386 0.663622 -20.7577 58.9553 10.4174 0.03 300.673 
151 1 1 1.64807 0.469809 1.62537 0 0 0 2.81149 0.0159452 -0.0326886 -0.0205933 0.483125 -0.0837765 -6.79023 35.1638 5.73857 0.03 306.772 
28 1 1 0.466531 0.51709 1.63497 0 0 0 1.24062 0.489635 -0.142931 2.15087 -1.85759 6.12951 11.4683 15.1346 -2.34622 0.03 302.092 
239 1 1 0.683518 0.511538 1.62894 0 0 0 1.80286 0.450551 0.137425 0.185508 -0.762363 -2.17978 -2.68917 50.0804 2.08758 0.03 300.524 
20 1 1 1.22433 0.49506 1.63362 0 0 0 2.40794 0.0217055 0.248212 0 0 -2.77371 9.06763 28.6045 11.6179 0.03 302.522 
149 1 1 1.38581 0.500136 1.62254 0 0 0 2.41973 -0.00355375 -0.336181 0.136338 -0.438842 -3.29463 7.20997 6.31234 13.0054 0.03 301.537 
238 1 1 0.149232 0.527525 1.5972 0 0 0 -0.64565 1.21974 -1.02926 1.94743 -2.76786 2.35323 -29.2675 22.7636 15.6924 0.03 300.086 
271 1 1 0.307526 0.541183 1.62671 0 0 0 0.729472 -0.328644 1.36796 -1.97978 -0.152357 12.0151 -6.03917 23.1934 2.82061 0.03 300.583 
106 1 1 0.819057 0.537192 1.6323 0 0 0 1.70526 -0.0593069 0.136416 0 0 -2.77371 12.7036 25.0913 -17.3757 0.03 302.176 
98 1 1 1.13212 0.53312 1.63008 0 0 0 2.16422 -0.255334 0.0318413 0 0 -2.77371 10.7243 41.1142 -2.75198 0.03 302.031 
237 1 1 0.238969 0.566879 1.61176 0 0 0 0.141647 1.08087 -0.657613 0 0 -2.77371 -17.9177 0.481117 -16.1789 0.03 300.158 
55 1 1 0.396911 0.572174 1.62565 0 0 0 1.13649 0.228376 -0.0352711 -24.8635 15.6008 -42.9068 14.5585 57.4377 0.713332 0.03 301.406 
243 1 1 0.635208 0.569347 1.63027 0 0 0 1.15762 0.256537 -0.226161 0 0 -2.77371 -6.15643 -19.2944 -24.785 0.03 300.361 
2 1 1 1.20604 0.55903 1.61978 0 0 0 2.51645 -0.130645 0.199336 0 0 -2.77371 -11.4962 35.5617 -6.09149 0.03 317.042 
301 1 1 0.156815 0.617093 1.6381 0 0 0 0.587589 0.172362 0.3975 0 0 -2.77371 -11.7175 6.30727 -39.118 0.03 303.382 
276 1 1 0.459692 0.594819 1.62927 0 0 0 1.3706 0.554434 -0.306321 0 0 -2.77371 -11.7195 -30.4396 -14.8996 0.03 300.438 
72 1 1 0.527997 0.618063 1.62812 0 0 0 1.18626 0.300847 -0.256371 -6.78529 5.74433 -5.243 -46.7911 -35.0928 -72.9842 0.03 329.017 
57 1 1 0.69972 0.585841 1.59534 0 0 0 2.06331 -0.199871 -0.0898159 20.8816 44.7298 49.629 -17.9105 -2.36298 -30.7688 0.03 328.393 
89 1 1 0.757469 0.617469 1.62664 0 0 0 1.73861 -0.317949 -0.317785 -0.000623507 -0.980626 -0.996729 15.0317 -45.6538 -61.2943 0.03 328.641 
65 1 1 0.881374 0.612326 1.62134 0 0 0 2.66317 -0.0520863 -0.0400862 -0.018217 2.25876 -1.2116 0.386202 -24.0067 -25.2808 0.03 306.434 
17 1 1 0.932729 0.587584 1.59938 0 0 0 2.25579 -0.355283 -0.565706 0 0 -2.77371 33.8456 -13.1948 -37.8986 0.03 325.049 
75 1 1 1.0167 0.592015 1.60169 0 0 0 2.1666 -0.290991 -0.135541 13.1501 6.59326 14.101 6.74279 -32.4259 -50.7422 0.03 324.84 
99 1 1 1.08757 0.608201 1.61738 0 0 0 1.97538 -0.458166 -0.458295 0.000417765 -0.992275 -0.985083 21.6721 -57.6848 -38.067 0.03 340.498 
79 1 1 1.15985 0.598864 1.6083 0 0 0 2.54765 0.0608742 -0.00601633 16.502 3.40655 1.86168 -13.4721 3.99214 -22.4871 0.03 325.413 
156 1 1 1.26445 0.598249 1.60723 0 0 0 2.51572 0.0409389 0.136598 -0.165785 -0.396466 -1.6589 -3.16309 -45.324 -25.7266 0.03 346.727 
18 1 1 1.39833 0.596734 1.60588 0 0 0 2.80913 0.015381 0.000356734 -0.146546 -0.48091 -0.209479 -0.252004 -23.697 -32.2335 0.03 322.774 
317 1 1 0.306559 0.0911303 1.67153 0 0 0 0.96592 -0.580052 0.332838 5.89941 7.27412 10.4719 52.5332 -37.1153 45.8105 0.03 303.705 
137 1 1 0.531698 0.116303 1.64664 0 0 0 1.34273 0.0486705 0.0119419 -0.0332395 0.0497344 -2.65273 -0.536296 -53.4958 72.5465 0.03 330 
76 1 1 0.773617 0.103857 1.65909 0 0 0 2.28948 0.353346 -0.353771 0.906486 1.12546 -1.14408 5.69912 19.8408 20.1624 0.03 314.918 
115 1 1 0.950602 0.121564 1.64236 0 0 0 2.08358 0.259429 -0.302142 0 0 -2.77371 -9.03341 -41.8764 48.644 0.03 327.372 
332 1 1 0.209803 0.142816 1.63572 0 0 0 -0.360068 -1.03947 -0.0362512 -4.43501 -2.79875 -4.2161 19.205 1.76469 -7.01123 0.03 300.097 
283 1 1 0.267151 0.150479 1.64866 0 0 0 -0.249355 -1.10714 0.135237 4.43288 0.966176 -2.68151 8.22153 -3.72772 13.7996 0.03 300.331 
307 1 1 0.466699 0.140718 1.63668 0 0 0 0.302712 -0.880825 -0.779187 0 0 -2.77371 -36.0577 2.6915 -24.8827 0.03 300.727 
74 1 1 0.584014 0.151176 1.64046 0 0 0 1.54744 -0.512932 -0.0224238 20.9779 -1.46519 11.3587 10.2587 25.1028 -8.79853 0.03 302.667 
139 1 1 0.706599 0.132211 1.6517 0 0 0 1.92698 -0.158326 0.0904434 0 0 -2.77371 24.7377 -43.9239 26.0938 0.03 336.722 
252 1 1 0.557876 0.210842 1.64531 0 0 0 1.24962 -0.430069 -0.0978209 0 0 -2.77371 -1.67116 0.0824123 -5.33039 0.03 300.152 
193 1 1 0.299862 0.255516 1.63582 0 0 0 0.335335 -0.408819 -0.486609 32.5138 -0.211248 16.3094 -5.04304 -59.6167 8.65356 0.03 300.064 
322 1 1 0.754451 0.240054 1.63941 0 0 0 1.74639 -0.26212 -0.490744 0 0 -2.77371 -37.1074 32.7656 -17.5875 0.03 300.698 
258 1 1 0.115882 0.28322 1.63776 0 0 0 -1.14105 -0.820663 -1.82202 -20.3159 -22.6116 17.5382 10.5725 -42.6511 -20.1774 0.03 300 
194 1 1 0.246643 0.272779 1.65675 0 0 0 0.555567 -0.93445 -1.23911 -27.7503 7.09193 4.57956 34.9462 -16.8415 -7.43893 0.03 300.039 
240 1 1 0.400426 0.275507 1.63423 0 0 0 0.913592 -0.739806 -0.988305 2.63947 2.90778 -4.23891 8.6402 26.715 12.7418 0.03 300.033 
181 1 1 0.669112 0.300727 1.65024 0 0 0 1.74719 0.0343333 0.623393 0 0 -2.77371 -19.5036 24.9736 24.781 0.03 300.753 
338 1 1 0.544635 0.302004 1.6479 0 0 0 1.16884 -0.151537 -0.141493 0 0 -2.77371 -24.6657 -29.581 6.03422 0.03 300.043 
250 1 1 0.335476 0.35871 1.66086 0 0 0 0.919456 0.452826 -0.440841 1.49719 0.453644 -0.556396 -56.3211 1.46797 2.73068 0.03 300.005 
285 1 1 0.211681 0.423668 1.64807 0 0 0 0.824801 1.6314 -0.377342 0 0 -2.77371 7.83821 -36.6827 10.2432 0.03 300.01 
277 1 1 0.274823 0.411651 1.65124 0 0 0 1.41553 0.478518 -1.18055 -20.835 -8.3174 -0.414248 34.2875 66.798 -45.8714 0.03 300 
254 1 1 0.516716 0.384257 1.63695 0 0 0 1.14565 0.227249 -0.147102 10.0735 -5.29484 -41.7106 5.7534 28.5754 -4.52436 0.03 300.664 
190 1 1 0.331117 0.442889 1.65706 0 0 0 0.0255771 -0.10817 0.271362 0 0 -2.77371 -9.87843 34.9002 8.10755 0.03 301.147 
208 1 1 0.264567 0.470758 1.65085 0 0 0 0.158191 -0.140432 -0.134236 20.7962 1.95667 -4.40268 -12.3611 -36.0641 15.6838 0.03 300.042 
352 1 1 0.486662 0.452927 1.638 0 0 0 1.01763 -0.068144 0.114511 0 0 -2.77371 11.2341 31.2776 -5.24249 0.03 301.531 
130 1 1 1.47273 0.453188 1.6566 0 0 0 2.55146 -0.00425569 0.322994 0 0 -2.77371 -5.78272 17.8909 -2.26063 0.03 301.155 
182 1 1 0.192326 0.50126 1.62859 0 0 0 -0.0557385 0.595973 -1.66224 -3.52827 -3.42521 2.7459 48.3442 6.67902 -22.6636 0.03 300.001 
265 1 1 0.558288 0.519529 1.63508 0 0 0 1.38748 0.526667 -0.337376 -2.00638 1.48568 -2.01153 -13.3404 -9.47805 -10.5101 0.03 300.695 
102 1 1 0.744913 0.502318 1.64018 0 0 0 1.51181 0.560104 -0.151139 0 0 -2.77371 -23.0486 50.7706 4.54409 0.03 300.973 
296 1 1 0.871195 0.483923 1.64328 0 0 0 1.7062 0.105685 -0.438548 0 0 -2.77371 11.2556 44.8557 12.3467 0.03 300.706 
201 1 1 0.409816 0.526664 1.66119 0 0 0 0.635459 0.60067 -0.711517 24.8635 -15.6008 37.3594 -19.451 -54.1283 -4.60404 0.03 300.076 
224 1 1 0.512311 0.557373 1.63706 0 0 0 1.18023 0.61629 -0.116343 2.00638 -1.48568 -3.53589 31.0217 3.4963 11.9359 0.03 301.449 
150 1 1 0.875838 0.556701 1.64194 0 0 0 1.92545 0.00332299 -0.0804496 1.72393 -4.497 -1.67671 2.5796 9.90975 18.0757 0.03 301.42 
52 1 1 0.584412 0.602962 1.64082 0 0 0 0.903048 0.402159 -0.0334602 10.0829 1.57482 -8.59408 -6.45882 35.471 32.4765 0.03 301.115 
326 1 1 0.398483 0.632366 1.64152 0 0 0 1.1244 0.220937 0.221816 -0.0025264 -1.12731 -0.868578 -10.459 -120.086 -15.9622 0.03 327.744 
154 1 1 0.640763 0.637684 1.64687 0 0 0 1.96504 -0.135217 -0.146086 0.124396 -0.770704 -0.481881 6.10911 -36.0528 -60.2995 0.03 317.044 
138 1 1 0.843749 0.646929 1.6558 0 0 0 2.4796 -0.13619 -0.0400812 1.21581 -1.5637 -0.804035 -9.2175 3.73585 4.28821 0.03 305.329 
27 1 1 0.986482 0.638734 1.64791 0 0 0 1.94267 -0.57529 -0.575291 -1.25484e-07 -0.988772 -0.988774 27.2076 -51.253 -46.0457 0.03 329.144 
129 1 1 0.550803 0.65645 1.667 0 0 0 1.75542 -0.0471576 0.221659 0.0505085 0.366084 -2.61924 -6.62189 -64.7064 -42.8747 0.03 315.087 
333 1 1 0.650291 0.0890401 1.67599 0 0 0 1.90466 -0.0240544 -0.24064 0 0 -2.77371 11.5932 -35.6279 41.5293 0.03 303.462 
305 1 1 0.427482 0.163547 1.69544 0 0 0 0.966565 -0.665176 0.553977 0 0 -2.77371 -14.4764 9.55725 -2.31961 0.03 300.427 
186 1 1 0.284451 0.205408 1.66391 0 0 0 0.37002 -0.803329 -1.35061 -2.19881 -3.55484 6.72892 0.150337 31.4322 10.8925 0.03 300.001 
284 1 1 0.174978 0.270584 1.67829 0 0 0 -0.445505 -0.471509 -1.35845 0 0 -2.77371 -8.82641 17.1139 4.55089 0.03 300 
282 1 1 0.484743 0.302422 1.66483 0 0 0 0.479985 0.049248 -1.13582 -2.56975 -4.9395 3.17409 -2.66473 -5.16794 0.4175 0.03 300 
212 1 1 0.431074 0.329671 1.65745 0 0 0 0.687915 0.605341 -2.09448 0 0 -2.77371 -10.057 -2.67599 6.25078 0.03 300 
259 1 1 0.235859 0.340568 1.67365 0 0 0 0.984109 0.520593 0.686331 7.81226 8.95813 9.62248 17.1095 -16.0808 21.7011 0.03 300.009 
341 1 1 0.550461 0.364007 1.68852 0 0 0 1.30437 -0.544364 0.0105845 0 0 -2.77371 14.4331 -31.4215 -13.6493 0.03 300.01 
334 1 1 0.477597 0.402566 1.6773 0 0 0 1.15758 -0.0081521 -0.856938 -9.90261 5.71656 36.1415 6.44375 -41.0974 -1.84712 0.03 300.012 
309 1 1 0.151374 0.413503 1.67166 0 0 0 -0.617426 0.236338 -1.85193 8.3895 -35.7699 -10.5856 4.04262 -13.0399 2.25853 0.03 300 
295 1 1 0.403341 0.419291 1.67235 0 0 0 1.19092 0.758319 0.195717 0.561973 0.684452 -6.43127 -31.7535 7.22469 -4.18938 0.03 300.006 
268 1 1 0.68981 0.441229 1.68982 0 0 0 1.70927 0.470599 0.56624 0 0 -2.77371 -35.7909 14.651 -0.0812511 0.03 300.296 
261 1 1 0.175458 0.467616 1.6747 0 0 0 -0.389455 -0.501159 -1.87316 -6.80867 41.963 -5.60836 -3.30752 3.82877 -5.74186 0.03 300 
220 1 1 0.377054 0.478615 1.68117 0 0 0 0.47681 0.597999 -0.528154 0 0 -2.77371 -7.24238 -2.07828 7.88961 0.03 300.027 
335 1 1 0.590391 0.451979 1.67643 0 0 0 1.45298 0.21684 0.182425 0 0 -2.77371 -13.7631 -8.77074 29.662 0.03 300.277 
262 1 1 0.488212 0.491576 1.68438 0 0 0 1.13112 0.00457284 0.0308967 -7.82813 4.94345 -25.7344 0.2168 -19.9885 -6.23188 0.03 300.044 
325 1 1 0.552165 0.494433 1.69502 0 0 0 1.11199 0.175016 0.140477 0 0 -2.77371 28.6082 7.58824 -33.6375 0.03 300.006 