ITEM: TIMESTEP
79000
ITEM: NUMBER OF ATOMS
353
ITEM: BOX BOUNDS ff ff ff
0 3.3
-0.3 0.8
-0.5 3
ITEM: ATOMS id type type x y z ix iy iz vx vy vz fx fy fz omegax omegay omegaz radius f_Temp[0] 
58 1 1 0.561447 0.167463 1.59463 0 0 0 1.79044 -0.0992865 0.0934823 -2.00778 -0.527488 3.0984 3.71302 -73.9487 30.9738 0.03 344.198 
161 1 1 0.625405 0.17609 1.58698 0 0 0 1.94489 0.22432 -0.140892 3.03898 -2.12718 -4.25719 -8.05684 49.6675 2.6658 0.03 305.478 
15 1 1 0.68477 0.171045 1.593 0 0 0 2.09849 0.344137 -0.218294 -2.3346 1.12829 -2.28366 -7.07535 -62.0987 21.679 0.03 330.749 
78 1 1 0.761445 0.168872 1.59407 0 0 0 2.09139 0.565699 -0.564618 0.269624 0.715706 -0.734244 -22.38 -17.4488 71.1118 0.03 318.726 
120 1 1 0.823906 0.196122 1.5769 0 0 0 2.25997 0.348286 0.0149528 -0.0456145 0.112032 -1.24436 -11.7083 -58.1884 13.3206 0.03 349.41 
1 1 1 0.989519 0.192707 1.57673 0 0 0 2.8797 0.0459886 -0.0168026 -2.6336 -1.41564 0.646253 -2.15715 -35.4653 18.0736 0.03 321.833 
47 1 1 1.21231 0.186536 1.57684 0 0 0 2.2807 0.0275939 0.00727065 0.358523 0.0749495 0.108614 -1.01486 -56.8366 12.7495 0.03 353.73 
67 1 1 1.33236 0.184984 1.57753 0 0 0 2.45336 -0.0807293 0.138441 0.0858306 0.626078 3.29699 4.84902 -53.7973 20.7674 0.03 349.999 
85 1 1 1.40585 0.192031 1.57969 0 0 0 2.54276 -0.111725 -0.117032 0 0 -2.77371 4.87728 -48.6149 15.4361 0.03 327.293 
90 1 1 0.244908 0.225548 1.57783 0 0 0 1.34014 0.00905666 0.00337611 0 0 -2.77371 -0.268677 -88.9251 16.2661 0.03 316.838 
40 1 1 0.481769 0.194677 1.58622 0 0 0 1.15419 -0.359972 -1.00376 0 0 -2.77371 -28.6899 32.0168 25.7769 0.03 300.389 
91 1 1 0.568073 0.224046 1.57842 0 0 0 1.97148 -0.179258 0.0488614 -0.267202 1.9617 2.18725 -19.3789 -66.4617 3.11571 0.03 328.869 
13 1 1 0.683894 0.229837 1.57685 0 0 0 1.63416 0.376719 0.000168243 -0.000233746 0.000406415 0.113034 -12.6115 -79.1992 33.3457 0.03 360.77 
108 1 1 1.04784 0.204385 1.57671 0 0 0 2.88099 0.0602269 0.0260697 5.47667 2.22087 3.44352 -7.62217 -31.1644 8.58174 0.03 363.671 
60 1 1 1.14738 0.201697 1.57686 0 0 0 2.18769 -0.106544 9.3238e-06 -4.52681e-05 -2.66092e-06 -0.00217008 3.566 -60.6578 15.918 0.03 342.798 
142 1 1 1.26377 0.220071 1.57686 0 0 0 2.14615 -0.119158 -9.97425e-05 0.000410598 2.45735e-05 0.0039431 3.98821 -62.048 -8.85874 0.03 358.783 
45 1 1 1.61394 0.197843 1.57686 0 0 0 3.31511 0.117901 4.31608e-06 -9.58684e-06 1.65038e-06 -0.00206801 -3.94612 -22.923 13.9821 0.03 344.322 
5 1 1 0.326041 0.259593 1.57624 0 0 0 2.05535 0.172128 0.128443 4.39244 0.432125 -0.518497 0.994456 -28.7706 -28.7182 0.03 306.758 
12 1 1 0.396798 0.240549 1.57537 0 0 0 1.44883 -0.249385 0.0853348 -9.85864 -2.50303 15.0001 3.30917 -88.82 30.3023 0.03 324.978 
95 1 1 0.4539 0.249088 1.59023 0 0 0 1.516 -0.020186 -0.0773012 1.80606 0.108343 -1.22168 7.85409 80.869 -22.819 0.03 300.604 
41 1 1 1.00827 0.253608 1.57673 0 0 0 2.52578 -0.0629432 0.035482 -0.46145 0.852862 0.723282 1.13657 -49.9817 -2.53417 0.03 344.173 
112 1 1 1.07968 0.254729 1.57729 0 0 0 2.50701 0.384632 0.0400918 1.75588 1.54246 -1.83984 -14.5525 -51.152 -10.9451 0.03 351.074 
86 1 1 1.19528 0.253331 1.57686 0 0 0 2.09038 0.000186224 1.14972e-07 -4.98004e-07 4.85693e-11 -6.11542e-06 -0.00623289 -63.9147 -8.90786 0.03 361.675 
23 1 1 1.32144 0.24378 1.57687 0 0 0 2.26728 -0.184966 -0.00386756 -0.304024 1.76952 -1.61488 6.77729 -57.8336 -13.245 0.03 358.082 
96 1 1 1.38367 0.248862 1.57688 0 0 0 2.25446 -0.33169 -0.0020465 -0.0541185 -0.31386 -0.272409 11.0984 -58.4246 1.27633 0.03 346.125 
278 1 1 0.419128 0.516336 2.27255 0 0 0 -0 -0 -1 0 0 0 0 0 0 0.03 300 
110 1 1 0.153528 0.270212 1.5765 0 0 0 1.02144 -0.448735 -0.255997 -7.13066 -17.3935 -6.16482 -3.66779 -74.6544 -10.7538 0.03 311.072 
175 1 1 0.414854 0.300389 1.58054 0 0 0 1.38843 -0.113472 0.0759406 3.71773 -17.0692 7.50923 7.45741 -83.3726 -6.52683 0.03 316.768 
11 1 1 0.512111 0.284784 1.57698 0 0 0 1.83226 -0.447386 -0.0656123 -0.0156329 -0.0892868 0.716659 14.9878 -72.3848 10.2362 0.03 333.119 
94 1 1 0.573183 0.283007 1.57692 0 0 0 1.75841 -0.175018 -0.140457 2.14037 11.1896 -1.01676 0.749651 -72.2787 8.51569 0.03 326.417 
64 1 1 0.747001 0.291445 1.57662 0 0 0 2.16355 -0.0432469 -0.0954917 0.742386 3.77682 -0.343336 3.26037 -62.1286 19.5036 0.03 353.86 
125 1 1 0.870511 0.26812 1.57689 0 0 0 2.36539 -0.0969189 -0.011271 0.0695474 0.0135684 0.0705218 3.22794 -54.6329 -3.64781 0.03 320.995 
144 1 1 0.926454 0.292255 1.57676 0 0 0 2.373 0.09299 0.00778296 -0.310258 -0.0608773 1.53921 -3.07927 -54.8049 20.2643 0.03 324.762 
82 1 1 1.44309 0.27761 1.57687 0 0 0 2.38248 -0.456683 -0.00024891 0.000695605 0.000196383 -0.0430403 15.2838 -54.1335 4.03313 0.03 345.613 
70 1 1 0.187777 0.31792 1.57847 0 0 0 0.969289 -0.350383 -0.85447 11.3734 14.1113 6.60891 -8.57249 -33.4118 5.58732 0.03 304.04 
3 1 1 0.258434 0.304478 1.57693 0 0 0 1.54901 -0.16884 -0.0924681 -11.4425 2.33071 -73.0266 1.27802 -79.4444 31.0321 0.03 331.334 
166 1 1 0.335728 0.339919 1.57412 0 0 0 1.4404 0.138812 0.349551 -3.40322 3.625 26.9147 -7.5113 -93.7031 13.2268 0.03 320.137 
56 1 1 0.835487 0.31833 1.5781 0 0 0 2.48863 -0.159121 -0.0685502 0 0 -2.77371 5.40006 -25.1766 -24.7048 0.03 303.371 
124 1 1 0.973507 0.335841 1.57684 0 0 0 2.21963 0.0424094 0.00397476 -0.0702375 0.307635 -1.18427 -1.45645 -59.5618 -4.84622 0.03 349.379 
59 1 1 1.12007 0.317306 1.57686 0 0 0 2.39126 0.219993 0.00109958 -0.00390705 0.000785014 -0.0509886 -7.36359 -53.8445 8.17258 0.03 337.42 
133 1 1 1.37185 0.30788 1.57681 0 0 0 2.21396 -0.27827 0.00999539 0.278097 -1.18349 0.36483 9.03168 -59.8996 -0.00928154 0.03 325.468 
132 1 1 0.0869966 0.343617 1.57539 0 0 0 1.12796 0.241926 0.487166 1.76845 -9.59256 13.269 -11.1891 -102.813 14.4445 0.03 311.843 
38 1 1 0.395071 0.35577 1.57556 0 0 0 1.98405 0.0387871 0.143072 1.2804 11.1956 -0.50997 1.29154 -71.4598 -12.2766 0.03 307.164 
35 1 1 0.486706 0.364187 1.57735 0 0 0 2.3954 -0.0103927 0.179281 0 0 -2.77371 1.13315 -53.7612 0.32704 0.03 308.762 
126 1 1 0.592706 0.338993 1.57732 0 0 0 1.82124 -0.214752 -0.622334 3.45 8.96429 0.699436 -31.0415 27.7524 -11.7371 0.03 302.883 
123 1 1 0.677361 0.34451 1.57948 0 0 0 2.22524 -0.346424 0.0353423 0 0 -2.77371 11.4837 -60.3062 5.68399 0.03 303.356 
143 1 1 0.923301 0.371909 1.57687 0 0 0 2.1104 -0.00935952 0.000677019 -0.00307333 -0.000169297 -0.124587 0.313352 -63.2357 -2.71077 0.03 343.496 
81 1 1 1.19874 0.341929 1.57686 0 0 0 2.47923 -0.00318718 -3.19038e-08 1.06944e-07 2.2413e-10 8.04021e-07 0.106675 -50.9002 -13.9831 0.03 333.53 
14 1 1 1.6217 0.341976 1.57686 0 0 0 2.42075 0.0677053 -1.06326e-11 -2.02059e-12 1.50235e-13 0 -2.26609 -52.8573 -2.54476 0.03 360.092 
33 1 1 0.011712 0.393885 1.58072 0 0 0 -0.0860896 0.125808 0.265866 0 0 -2.77371 -4.22464 -137.32 0.517279 0.03 303.452 
25 1 1 0.343127 0.405286 1.57685 0 0 0 1.51316 0.694871 0.213697 3.3032 0.807121 -9.57447 -34.373 -37.9039 -4.7497 0.03 303.302 
101 1 1 0.545597 0.406336 1.58643 0 0 0 1.53924 -0.329613 -0.601715 1.45494 2.25268 -1.20742 20.968 46.8044 2.34441 0.03 334.313 
170 1 1 0.78674 0.390768 1.57686 0 0 0 2.25924 0.414351 0.00163686 1.35958 -0.098887 -0.0473788 -12.3843 -37.8555 -2.08804 0.03 317.137 
122 1 1 0.978519 0.398954 1.58254 0 0 0 2.33994 -0.404149 0.0271388 0 0 -2.77371 22.6923 -46.9385 5.41753 0.03 349.157 
29 1 1 1.13686 0.376505 1.57686 0 0 0 2.4558 0.255752 -0.00144132 0.00484506 -0.00124008 0.0450102 -8.55916 -51.6819 -3.33252 0.03 338.576 
174 1 1 1.57877 0.39091 1.57686 0 0 0 2.54452 -0.112838 8.02983e-12 2.40376e-12 1.49706e-13 -4.44089e-16 3.77668 -48.7148 2.83466 0.03 354.668 
116 1 1 0.198227 0.415777 1.5747 0 0 0 1.71629 -0.102567 -0.37475 -6.70872 -11.2353 56.6526 4.49107 -84.4617 -6.83591 0.03 309.452 
77 1 1 0.418688 0.423058 1.57629 0 0 0 1.66079 -0.0630577 -0.00113234 7.8814 -0.346455 7.61162 0.989295 -78.9686 1.81705 0.03 323.343 
135 1 1 0.492113 0.44223 1.57676 0 0 0 1.637 0.462538 -0.0386361 1.54858 -0.713659 3.88234 -16.0712 -80.1908 2.30933 0.03 341.116 
37 1 1 0.624757 0.427252 1.57937 0 0 0 2.15208 0.165051 -0.0465 0 0 -2.77371 -16.0179 -47.6029 13.8758 0.03 304.031 
111 1 1 0.733833 0.429769 1.57782 0 0 0 2.28324 0.205852 0.057373 0 0 -2.77371 -6.40041 -58.1722 3.70033 0.03 311.943 
50 1 1 0.829243 0.433441 1.5769 0 0 0 2.26254 0.101036 -0.00780945 0.0250985 -0.00146583 -0.325389 -3.37781 -58.086 12.7983 0.03 337.199 
167 1 1 1.08154 0.42455 1.57736 0 0 0 2.36062 -0.140057 0.0150203 3.27415 -1.41399 -0.946245 5.09943 -53.3412 9.27337 0.03 330.034 
54 1 1 1.20862 0.413066 1.57686 0 0 0 2.24235 -0.277113 -6.8354e-08 2.5867e-07 4.07822e-08 1.93367e-07 9.27496 -58.8284 -8.02237 0.03 350.637 
119 1 1 0.16643 0.479224 1.57854 0 0 0 0.953784 0.271494 0.164265 0 0 -2.77371 -6.03726 -103.789 -8.16554 0.03 321.291 
21 1 1 0.242097 0.479283 1.58053 0 0 0 0.831025 0.326955 -0.0724259 0 0 -2.77371 -8.3889 -81.6593 1.44178 0.03 308.333 
160 1 1 0.359662 0.4687 1.57998 0 0 0 1.5984 0.231659 0.234967 0 0 -2.77371 -8.23469 -80.7922 21.6385 0.03 327.721 
69 1 1 0.676965 0.458288 1.57839 0 0 0 2.35431 -0.0262588 0.00109631 -0.12368 0.278599 -2.63572 0.387287 -52.9192 -14.563 0.03 350.209 
26 1 1 0.778396 0.471473 1.57681 0 0 0 2.26694 0.0549725 -0.0127056 -0.00134571 -0.0176002 1.44765 -1.82725 -58.1249 3.15747 0.03 309.801 
131 1 1 0.957494 0.456932 1.57679 0 0 0 2.94837 -0.0644405 -0.51242 30.0771 2.9035 -19.251 -1.09823 -15.0277 -19.6789 0.03 328.572 
30 1 1 1.02591 0.44603 1.57668 0 0 0 2.35063 -0.165711 -0.00632502 0.0226215 -0.352935 0.360442 5.60033 -55.0695 -15.3393 0.03 361.311 
36 1 1 1.29645 0.478042 1.57686 0 0 0 2.35765 0.161792 3.61263e-08 -1.13026e-07 1.11344e-08 3.81421e-06 -5.41516 -54.9694 -1.38527 0.03 344.451 
32 1 1 1.36535 0.447785 1.57686 0 0 0 2.41625 0.0362623 4.95009e-08 -9.80152e-08 2.24423e-09 1.93901e-05 -1.2137 -53.0078 4.98442 0.03 347.987 
4 1 1 0.423305 0.482811 1.5784 0 0 0 1.68142 0.0432493 0.2881 -0.971827 -1.72041 -3.1737 -5.76572 -53.9995 5.18363 0.03 307.758 
136 1 1 0.477783 0.505717 1.59031 0 0 0 1.67232 0.191472 -0.169527 -14.0551 -14.6901 -14.6664 -44.1863 33.3335 2.99605 0.03 300.426 
169 1 1 0.537228 0.505972 1.57587 0 0 0 2.24702 -0.0861202 -0.171716 12.9889 8.20079 24.2758 6.01174 -55.6625 -8.46448 0.03 322.448 
61 1 1 0.659023 0.515492 1.57688 0 0 0 2.13975 -0.0680371 0.0133544 -0.00353133 0.0434831 -0.971715 1.96077 -62.2938 16.8288 0.03 331.296 
163 1 1 0.910263 0.49404 1.57683 0 0 0 2.70157 -0.220343 0.0165493 -0.262957 0.167689 -0.277977 7.233 -43.6812 29.3481 0.03 338.494 
145 1 1 1.00577 0.502907 1.57672 0 0 0 2.54892 -0.0524552 0.0554628 2.29534 -0.368344 -0.498315 2.93501 -27.7118 16.8256 0.03 321.733 
39 1 1 1.0648 0.49285 1.57806 0 0 0 2.59567 -0.184071 0.07939 -0.938593 0.292244 -2.33136 7.23386 -44.2742 -1.14646 0.03 337.703 
10 1 1 1.14331 0.486198 1.57692 0 0 0 2.46571 -0.074222 -0.0615175 1.32279 -0.618197 1.67909 2.6076 -50.9759 -8.54068 0.03 359.053 
162 1 1 1.20727 0.498295 1.57686 0 0 0 2.49973 -0.104219 0.00185949 2.53927 -1.17935 -1.75192 3.58339 -49.7307 20.3409 0.03 345.248 
140 1 1 1.49855 0.49212 1.57686 0 0 0 2.52255 0.0244765 -2.91814e-06 9.83386e-06 -1.62915e-07 0.00017127 -0.819227 -49.4502 0.805906 0.03 326.166 
326 1 1 0.134665 0.539933 1.58422 0 0 0 -0.470244 1.08655 -1.55491 0 0 -2.77371 -37.6113 -1.89763 7.9325 0.03 300.155 
48 1 1 0.238688 0.53918 1.5784 0 0 0 1.07724 0.371311 0.117998 0 0 -2.77371 -11.9816 -97.6681 13.2523 0.03 307.194 
147 1 1 0.312256 0.535331 1.57711 0 0 0 2.61669 0.345105 0.426573 0 0 -2.77371 -11.6441 -43.047 -0.815458 0.03 303.532 
104 1 1 0.74392 0.523552 1.57686 0 0 0 2.41004 0.11647 0.000126029 1.18733 -0.659907 -0.0569242 5.22584 -36.797 -24.9858 0.03 322.71 
42 1 1 0.821808 0.536977 1.57686 0 0 0 2.24234 -0.00376138 -0.00376639 0.0158572 1.14322e-05 0.26947 0.125917 -58.8359 7.88436 0.03 337.95 
63 1 1 0.942132 0.548008 1.57685 0 0 0 2.45052 -0.0625544 0.00560577 1.36162 0.629 -1.6304 0.36221 -45.2352 15.035 0.03 354.384 
103 1 1 1.11644 0.540093 1.57655 0 0 0 2.55711 -0.0289315 0.0417311 0.634243 -0.893358 2.91184 4.71932 -21.42 -4.05961 0.03 357.749 
66 1 1 1.25959 0.530038 1.57686 0 0 0 2.41858 0.102755 -0.000413891 0.00144816 -0.000149781 0.0393423 -3.43929 -52.9315 -8.3985 0.03 338.4 
168 1 1 1.32203 0.54981 1.57686 0 0 0 2.40346 0.245524 5.99076e-05 -0.000188671 2.90213e-05 0.00462888 -8.21776 -53.4366 7.62347 0.03 331.86 
100 1 1 1.37999 0.524799 1.57682 0 0 0 2.43679 0.115136 0.00131458 0.206382 -0.416084 0.0369553 -3.82982 -52.3636 1.3151 0.03 353.896 
72 1 1 0.184156 0.582525 1.5976 0 0 0 1.33271 0.19138 0.219256 0 0 -2.77371 -29.4517 -64.2745 -45.1706 0.03 307.658 
34 1 1 0.370543 0.560249 1.57667 0 0 0 1.31938 0.584536 -0.0735657 0.340387 -0.104396 7.58564 -19.5919 -89.7897 14.63 0.03 315.655 
117 1 1 0.446829 0.558756 1.58331 0 0 0 1.83232 -0.240458 -0.0971941 0 0 -2.77371 -2.23653 -63.347 -39.8819 0.03 312.188 
16 1 1 0.530808 0.566002 1.57548 0 0 0 2.0076 -0.232469 -0.0588259 12.0084 -4.2919 22.6555 5.92608 -65.4451 -0.577717 0.03 339.236 
118 1 1 0.612924 0.556174 1.58076 0 0 0 2.16077 0.101805 0.0753877 0 0 -2.77371 -3.18781 -61.686 -14.3136 0.03 332.037 
152 1 1 0.694932 0.567323 1.57681 0 0 0 1.89774 -0.0345031 0.00245196 -1.8002 0.186037 0.84586 1.0884 -71.6712 -16.6406 0.03 340.139 
121 1 1 0.883864 0.56062 1.5767 0 0 0 2.41136 -0.107369 0.00374524 -0.0306001 0.149769 1.54151 3.74123 -52.7223 -27.4209 0.03 354.747 
158 1 1 0.999018 0.566527 1.57696 0 0 0 2.44716 0.15531 -0.0230757 0.720691 -0.303772 -0.649859 2.4843 -13.5761 -18.5113 0.03 340.91 
109 1 1 1.05781 0.554525 1.57676 0 0 0 2.4556 -0.13606 -0.0450001 3.32816 -0.759428 4.0537 17.3187 4.14136 9.20173 0.03 346.697 
172 1 1 1.17478 0.552686 1.57689 0 0 0 2.60459 -0.254757 0.0410099 2.42959 0.497926 -1.51754 8.37943 -46.6175 -14.4862 0.03 349.263 
113 1 1 1.39289 0.581555 1.5907 0 0 0 2.33681 0.112591 0.113275 -0.176529 -0.265497 -0.20337 -5.34437 -64.6049 -14.0755 0.03 353.956 
97 1 1 0.138003 0.162891 1.60528 0 0 0 0.831463 0.446427 -0.0451684 0 0 -2.77371 -15.1736 -38.7524 63.2131 0.03 303.462 
114 1 1 0.317281 0.139781 1.63098 0 0 0 1.22639 -0.0493339 -0.0224788 0 0 -2.77371 12.2983 -113.441 18.1494 0.03 310.352 
139 1 1 0.398874 0.141115 1.62208 0 0 0 1.00836 -0.102049 0.0772459 -0.373223 -0.145889 -1.99413 5.18449 -119.079 22.7364 0.03 324.457 
173 1 1 0.823756 0.147887 1.61507 0 0 0 2.41757 0.154366 0.0512696 1.69622 -3.99442 -4.88216 13.913 -6.56789 38.9909 0.03 309.218 
87 1 1 0.972783 0.144363 1.61858 0 0 0 1.97508 0.12406 -0.124871 0.00253773 0.995084 -0.980492 -5.88873 -44.8662 50.8969 0.03 329.762 
22 1 1 0.200324 0.175564 1.61675 0 0 0 -0.717377 -0.563256 -0.418296 0 0 -2.77371 11.6487 -20.994 7.207 0.03 300.154 
80 1 1 1.08398 0.162467 1.60048 0 0 0 2.94685 0.0744634 -0.10595 1.32841 1.65399 -0.41414 10.4301 12.4644 7.0273 0.03 307.78 
74 1 1 0.341096 0.22711 1.62336 0 0 0 1.12457 -0.638066 0.0196818 -0.367336 -3.81576 2.13975 -8.91266 1.40011 -7.16811 0.03 300.486 
51 1 1 0.402434 0.201197 1.6183 0 0 0 0.703279 -0.231934 0.297302 1.89098 -18.4445 -6.66769 -2.2404 39.7592 -9.17298 0.03 306.858 
88 1 1 0.92875 0.21818 1.6064 0 0 0 1.77929 0.051844 -0.72201 0 0 -2.77371 -1.99841 1.37045 -11.5303 0.03 301.05 
19 1 1 0.497194 0.250061 1.63276 0 0 0 0.939472 -0.44845 0.254845 0 0 -2.77371 7.06647 29.8666 3.94929 0.03 302.544 
146 1 1 0.735017 0.245642 1.61199 0 0 0 1.40583 -0.0884308 -0.43957 -1.93339 -10.0602 7.81442 -1.72055 11.7235 -12.5514 0.03 300.932 
339 1 1 0.104171 0.298111 1.60887 0 0 0 0.105863 -0.759087 0.432518 -0.682941 1.77984 -3.04087 39.1788 23.3513 -10.5491 0.03 300.163 
73 1 1 0.183577 0.273715 1.62707 0 0 0 0.412101 -0.099779 0.0878117 1.73216 -28.6103 -36.9376 -21.6202 46.4115 10.7778 0.03 300.267 
141 1 1 0.62006 0.272183 1.61475 0 0 0 1.85 -0.65886 -0.18568 0 0 -2.77371 -21.0617 67.3188 -23.0656 0.03 301.314 
7 1 1 0.795404 0.26871 1.61243 0 0 0 1.64194 -0.0300177 -0.80032 0 0 -2.77371 -1.73359 -7.38482 7.23661 0.03 300.611 
31 1 1 0.214203 0.3386 1.62703 0 0 0 0.510596 0.375607 -0.51391 1.26773 2.40086 -0.898835 -10.5463 25.9723 19.556 0.03 300.273 
71 1 1 0.358529 0.325872 1.62434 0 0 0 0.877252 -0.0419676 1.16376 8.78562 -3.62606 33.0967 13.1729 65.3257 -15.2949 0.03 300.778 
127 1 1 0.498563 0.328956 1.62681 0 0 0 0.751173 -0.0222925 0.0839913 0 0 -2.77371 -25.375 30.3278 -4.13463 0.03 300.848 
53 1 1 0.282599 0.345794 1.61219 0 0 0 -0.360813 0.102593 -1.43699 14.0603 2.39982 73.0202 3.72985 20.4947 -5.80392 0.03 300.174 
68 1 1 0.426941 0.356974 1.62462 0 0 0 1.51775 0.102835 0.715216 5.76708 1.99173 1.05798 -1.96559 43.2415 18.4385 0.03 300.101 
159 1 1 1.01477 0.354317 1.61625 0 0 0 2.28554 -0.202634 -0.0435873 0.130416 -0.263571 -1.36407 22.2443 66.2688 11.6975 0.03 301.075 
289 1 1 0.110853 0.380012 1.61835 0 0 0 0.762902 0.367654 0.382068 0 0 -2.77371 -21.6416 41.8745 -15.2453 0.03 300.095 
102 1 1 0.480984 0.397995 1.62669 0 0 0 0.882981 0.490208 -0.166232 1.0161 -7.07094 -7.37199 -38.7191 -5.59827 -4.18107 0.03 300.339 
153 1 1 0.593316 0.379856 1.62082 0 0 0 1.85686 -0.11416 -0.611572 0.122426 0.683332 -2.50283 27.5707 -27.3885 9.32645 0.03 300.304 
28 1 1 0.291512 0.433065 1.61478 0 0 0 0.0980301 -0.00672468 0.372865 -8.53245 2.11229 -2.98922 18.9399 26.6495 13.7319 0.03 300.431 
6 1 1 0.346456 0.43733 1.63598 0 0 0 0.334778 -0.240921 0.337738 -0.677553 0.291863 -0.345952 32.2005 -9.4165 -13.3426 0.03 300.313 
128 1 1 0.397234 0.408604 1.62958 0 0 0 0.631311 -0.29239 -0.409718 2.18584 -0.420639 3.02876 -9.48893 25.2804 14.3918 0.03 300.742 
92 1 1 1.09741 0.44105 1.63408 0 0 0 2.30344 0.245966 0.00303309 0 0 -2.77371 -15.712 57.1538 -9.76472 0.03 300.957 
148 1 1 0.123259 0.450363 1.62076 0 0 0 -0.573116 0.158073 -1.28858 -3.71957 2.19922 -1.04503 10.9846 16.5397 -3.17601 0.03 300.148 
134 1 1 0.56522 0.460903 1.60169 0 0 0 1.83211 -0.31625 -0.319864 6.9145 -13.3116 11.7079 9.8142 17.6321 7.541 0.03 301.733 
20 1 1 0.796358 0.479305 1.63549 0 0 0 1.71329 0.294661 0.231576 0 0 -2.77371 -3.91298 34.2939 2.25399 0.03 301.152 
130 1 1 0.979474 0.474115 1.62794 0 0 0 1.92876 -0.281444 -0.0977736 0.723545 1.73809 42.6769 6.71388 -40.9617 1.0319 0.03 300.226 
151 1 1 1.04133 0.464857 1.63129 0 0 0 2.17624 0.0798788 -0.0444174 -0.256938 0.677825 -1.10294 -17.2244 45.1586 6.15665 0.03 303.853 
52 1 1 0.386364 0.515367 1.61597 0 0 0 -0.0759743 0.749028 -0.967829 0 0 -2.77371 20.4462 -8.41384 1.09504 0.03 300.054 
98 1 1 0.698881 0.519945 1.62655 0 0 0 1.82231 0.733474 -0.324515 0 0 -2.77371 -17.2826 37.1961 5.2379 0.03 300.174 
150 1 1 0.550155 0.544588 1.62651 0 0 0 1.10978 0.180876 0.521755 -0.104393 -2.01076 23.5488 -13.3801 20.1285 25.962 0.03 300.527 
9 1 1 0.976772 0.537091 1.62417 0 0 0 2.52246 0.0158002 -0.0675044 3.13569 -1.03751 0.31753 4.56103 45.2477 -3.8611 0.03 304.707 
157 1 1 1.18844 0.524065 1.62759 0 0 0 2.56213 -0.357076 0.0227028 -1.3988 0.876458 -0.400038 -8.11607 51.2699 13.8405 0.03 302.976 
105 1 1 0.777817 0.583458 1.60882 0 0 0 1.558 0.301975 -0.592208 0 0 -2.77371 -13.0091 37.8471 1.22864 0.03 302.235 
75 1 1 0.616099 0.612249 1.62958 0 0 0 1.36217 0.973655 0.352211 0 0 -2.77371 -34.8805 11.686 4.04113 0.03 300.678 
18 1 1 0.848097 0.59406 1.6147 0 0 0 1.82876 -0.217987 -0.403065 0 0 -2.77371 2.09725 -35.6663 -34.4721 0.03 304.11 
83 1 1 1.15151 0.59849 1.60791 0 0 0 3.03944 0.0259375 0.0113226 0.150683 -0.228054 -2.57226 3.96623 30.1317 -20.4335 0.03 308.423 
79 1 1 0.676234 0.620482 1.62952 0 0 0 1.61973 -0.491087 -0.416714 0.534149 -0.666093 -1.83066 3.72482 -6.10262 -38.115 0.03 311.625 
115 1 1 0.494315 0.108671 1.65472 0 0 0 1.93968 -0.182811 0.505182 0 0 -2.77371 13.0047 -29.3616 61.6705 0.03 308.929 
171 1 1 0.518654 0.160679 1.63584 0 0 0 0.898325 0.268418 -0.584382 1.67223 2.34881 -3.32411 -42.0086 32.999 -14.7595 0.03 300.243 
281 1 1 0.44547 0.225057 1.65187 0 0 0 0.921601 -0.609391 -0.772966 17.8549 -14.0169 -23.8102 -12.812 -37.1563 -9.91884 0.03 300.075 
43 1 1 0.595045 0.217397 1.6421 0 0 0 1.60571 -0.43841 0.713358 0 0 -2.77371 10.9031 45.7781 6.75873 0.03 300.392 
46 1 1 0.990183 0.244981 1.64514 0 0 0 1.86202 -0.168374 0.112768 0 0 -2.77371 -2.90245 29.1062 -24.3177 0.03 301.114 
164 1 1 0.272678 0.2823 1.64252 0 0 0 -0.0785637 -0.194547 -1.25461 1.4818 -11.6211 -16.8691 14.2633 -3.16092 8.45283 0.03 300.006 
107 1 1 0.342181 0.277804 1.65464 0 0 0 0.530468 -0.629274 0.0592658 2.07555 -6.76367 11.7762 29.8015 -33.4088 -5.68304 0.03 300.027 
225 1 1 0.568936 0.300678 1.63949 0 0 0 1.60418 -0.250175 -0.612999 0 0 -2.77371 23.5031 15.8174 -13.9532 0.03 300.01 
44 1 1 0.674931 0.292477 1.65178 0 0 0 1.40738 0.0768462 -0.372769 0 0 -2.77371 -7.58956 14.9275 29.3808 0.03 300.826 
155 1 1 0.904226 0.272118 1.63314 0 0 0 1.74751 0.000479395 -0.331608 0 0 -2.77371 6.8483 34.8128 18.7053 0.03 300.957 
181 1 1 0.402647 0.320139 1.66293 0 0 0 1.67774 -0.631872 0.648227 2.47656 -11.7651 18.5523 5.22603 -34.0126 7.70936 0.03 300.009 
176 1 1 0.343591 0.371752 1.65809 0 0 0 0.549936 0.708427 0.497602 1.04061 5.41242 4.19814 -45.4385 -63.5939 22.6783 0.03 300.012 
24 1 1 0.760603 0.393945 1.63622 0 0 0 1.58961 0.238764 -0.406561 0 0 -2.77371 45.7403 -22.5597 2.96941 0.03 300.284 
84 1 1 0.170776 0.41508 1.62501 0 0 0 -0.692509 -0.226474 -1.28892 2.378 -2.54001 25.5423 4.3819 4.83771 -4.05374 0.03 300.049 
227 1 1 0.412852 0.471961 1.64796 0 0 0 0.448144 0.377962 -1.2388 0 0 -2.77371 -5.37723 18.8479 8.46785 0.03 300.005 
106 1 1 0.484225 0.456408 1.6353 0 0 0 0.619443 0.788499 -1.07106 -2.55633 3.94109 -5.62822 3.32151 17.8624 15.1309 0.03 300.994 
304 1 1 0.111223 0.509021 1.64625 0 0 0 -0.317642 0.383917 -1.53706 0 0 -2.77371 -34.4625 -10.2553 13.9383 0.03 300.001 
55 1 1 0.223784 0.500165 1.64278 0 0 0 0.766274 0.0271584 -1.33234 0 0 -2.77371 -24.5339 -15.9054 3.52105 0.03 300.042 
149 1 1 0.856742 0.494674 1.64849 0 0 0 2.00839 0.0967977 -0.00830571 0 0 -2.77371 10.7463 -19.5596 -8.52746 0.03 300.579 
65 1 1 0.48855 0.546855 1.63087 0 0 0 1.08378 0.733033 -0.520507 14.0551 14.6901 9.11894 16.6893 -17.6115 -10.9889 0.03 300.3 
129 1 1 0.230555 0.61246 1.64481 0 0 0 1.26868 0.466353 0.780115 0 0 -2.77371 -16.2027 -52.7064 -40.2018 0.03 303.437 
154 1 1 0.330278 0.598161 1.63735 0 0 0 0.16743 1.21254 -0.0457649 0 0 -2.77371 4.18984 51.5429 -12.4877 0.03 300.66 
138 1 1 0.442 0.599695 1.65132 0 0 0 1.45334 0.413198 0.189697 -0.572596 -3.04849 -3.77969 -16.5175 49.311 36.0335 0.03 300.146 
89 1 1 0.391909 0.630346 1.63907 0 0 0 1.43432 0.13641 -0.0787696 5.03331 -10.8464 11.4028 13.7591 -54.4541 -36.9683 0.03 304.071 
17 1 1 0.513936 0.638707 1.6517 0 0 0 1.47297 0.0913206 0.0973212 0 0 -2.77371 -33.5359 -14.3449 -41.5861 0.03 303.557 
2 1 1 0.736217 0.621357 1.63231 0 0 0 1.69539 -0.677212 -0.564607 0 0 -2.77371 27.7944 -84.8306 -18.2086 0.03 312.74 
156 1 1 0.808756 0.639767 1.64894 0 0 0 1.40639 -0.45697 -0.456961 -1.83635e-05 -0.99094 -0.986858 21.6119 -64.8826 -57.7792 0.03 328.75 
137 1 1 0.294745 0.0645625 1.69833 0 0 0 0.886151 0.13445 -0.157204 1.27402 1.58029 0.193742 1.99685 -65.1396 65.9906 0.03 306.895 
165 1 1 0.853603 0.06513 1.69813 0 0 0 2.05624 0.0409449 -0.198362 0 0 -2.77371 2.31132 -25.8631 66.0727 0.03 306.438 
76 1 1 0.412515 0.112399 1.70149 0 0 0 0.844591 -0.491443 0.0159727 0 0 -2.77371 13.0902 83.2212 -49.4108 0.03 301.053 
49 1 1 0.558635 0.106715 1.67474 0 0 0 2.19511 0.23437 0.272206 0 0 -2.77371 9.58934 -29.9601 32.6239 0.03 306.835 
62 1 1 0.287882 0.130271 1.68876 0 0 0 -0.246865 -0.801412 -0.593656 0 0 -2.77371 -38.0429 -80.3712 -21.4572 0.03 300.002 
333 1 1 0.393749 0.204419 1.67881 0 0 0 0.172178 -0.707952 -0.98988 6.58938 9.71721 9.81427 7.97925 20.5387 12.6567 0.03 300.054 
307 1 1 0.297245 0.255188 1.69092 0 0 0 -0.108602 -0.683959 -0.878159 0 0 -2.77371 5.02069 -8.85259 1.8963 0.03 300 
300 1 1 0.166862 0.318952 1.65969 0 0 0 -0.407617 -0.0859217 -1.09556 2.88155 37.0667 48.8126 -1.76634 -69.4455 4.61595 0.03 300.002 
180 1 1 0.290404 0.32825 1.67531 0 0 0 0.155722 -0.449797 -1.22954 3.88354 8.51938 7.72563 0.839832 -30.6192 -11.718 0.03 300.001 
190 1 1 0.233561 0.396902 1.6569 0 0 0 0.251286 -0.157452 -2.13878 0 0 -2.77371 1.07294 32.3625 5.01919 0.03 300 
249 1 1 0.172756 0.451192 1.67143 0 0 0 -0.0939639 0.290785 -1.88621 -8.87817 8.09675 23.2752 -29.4057 6.04929 -4.46589 0.03 300 
243 1 1 0.475699 0.48575 1.68561 0 0 0 0.372826 0.166343 -0.397205 1.54024 3.12985 4.67908 27.9783 -16.4116 -1.03617 0.03 300.008 
57 1 1 0.363485 0.667096 1.67612 0 0 0 1.04514 0.118191 0.218028 2.56111 -1.58826 -7.27503 5.49241 9.66428 3.47614 0.03 304.103 
27 1 1 0.53968 0.677624 1.69111 0 0 0 1.93952 0.273469 0.0535655 0 0 -2.77371 -18.4946 -51.0709 -45.8636 0.03 303.519 
99 1 1 0.639259 0.660134 1.66931 0 0 0 1.72624 -0.280081 -0.279573 -0.00191527 -0.961666 -1.01491 13.2293 -42.6223 -64.9083 0.03 313.056 
288 1 1 0.209802 0.229296 1.7125 0 0 0 0 0 -2.75045 0 0 -2.77371 0 0 0 0.03 300 
221 1 1 0.42682 0.248837 1.70099 0 0 0 0.214959 0.397763 -1.54008 -21.0819 13.0977 36.1639 -31.9786 5.50893 11.5936 0.03 300 
340 1 1 0.234148 0.333564 1.6916 0 0 0 -0.528072 -0.0379213 -2.39683 -5.36534 3.10169 0.822285 -3.86675 -18.3002 -5.81787 0.03 300 
187 1 1 0.476873 0.306542 1.69532 0 0 0 0 0 -2.81107 0 0 -2.77371 0 0 0 0.03 300 
268 1 1 0.442536 0.376191 1.68613 0 0 0 0 0 -2.84296 0 0 -2.77371 0 0 0 0.03 300 
296 1 1 0.514169 0.439419 1.70255 0 0 0 0.863824 -0.256304 -0.573406 0 0 -2.77371 -9.6174 5.631 14.9457 0.03 300.008 
301 1 1 0.193377 0.518434 1.69175 0 0 0 -0.542462 0.584275 -1.22054 0 0 -2.77371 6.04357 -16.4086 7.28738 0.03 300 
276 1 1 0.289349 0.515799 1.69868 0 0 0 0 0 -2.7993 0 0 -2.77371 0 0 0 0.03 300 
93 1 1 0.220906 0.652863 1.7287 0 0 0 -0.0613205 1.00533 0.219988 0 0 -2.77371 -31.8754 6.51144 -11.2183 0.03 300.067 
213 1 1 0.125891 0.243147 1.73044 0 0 0 0 0 -2.6857 0 0 -2.77371 0 0 0 0.03 300 
322 1 1 0.49924 0.247443 1.73165 0 0 0 0 0 -2.68129 0 0 -2.77371 0 0 0 0.03 300 
291 1 1 0.499679 0.383275 1.73643 0 0 0 0 0 -2.66373 0 0 -2.77371 0 0 0 0.03 300 
246 1 1 0.107302 0.455042 1.74364 0 0 0 0 0 -2.63704 0 0 -2.77371 0 0 0 0.03 300 
226 1 1 0.253931 0.465065 1.74733 0 0 0 0 0 -2.62331 0 0 -2.77371 0 0 0 0.03 300 
224 1 1 0.391331 0.524514 1.75028 0 0 0 0 0 -2.61222 0 0 -2.77371 0 0 0 0.03 300 
196 1 1 0.358915 0.233995 1.78735 0 0 0 0 0 -2.4691 0 0 -2.77371 0 0 0 0.03 300 
257 1 1 0.107883 0.30308 1.75518 0 0 0 0 0 -2.59378 0 0 -2.77371 0 0 0 0.03 300 
230 1 1 0.257855 0.281878 1.75357 0 0 0 0 0 -2.59986 0 0 -2.77371 0 0 0 0.03 300 
245 1 1 0.160535 0.375989 1.78811 0 0 0 0 0 -2.46606 0 0 -2.77371 0 0 0 0.03 300 
178 1 1 0.318639 0.427051 1.7606 0 0 0 0 0 -2.57318 0 0 -2.77371 0 0 0 0.03 300 
352 1 1 0.377854 0.441153 1.78167 0 0 0 0 0 -2.49156 0 0 -2.77371 0 0 0 0.03 300 
265 1 1 0.446064 0.454668 1.77975 0 0 0 0 0 -2.49912 0 0 -2.77371 0 0 0 0.03 300 
209 1 1 0.352404 0.322469 1.82149 0 0 0 0 0 -2.3295 0 0 -2.77371 0 0 0 0.03 300 
254 1 1 0.380252 0.376413 1.80121 0 0 0 0 0 -2.41338 0 0 -2.77371 0 0 0 0.03 300 
270 1 1 0.207615 0.426676 1.81538 0 0 0 0 0 -2.3551 0 0 -2.77371 0 0 0 0.03 300 
317 1 1 0.252263 0.228507 1.86037 0 0 0 0 0 -2.15959 0 0 -2.77371 0 0 0 0.03 300 
248 1 1 0.155073 0.291265 1.84648 0 0 0 0 0 -2.22179 0 0 -2.77371 0 0 0 0.03 300 
313 1 1 0.439938 0.327558 1.83692 0 0 0 0 0 -2.26358 0 0 -2.77371 0 0 0 0.03 300 
204 1 1 0.215487 0.347963 1.85552 0 0 0 0 0 -2.18147 0 0 -2.77371 0 0 0 0.03 300 
346 1 1 0.2812 0.398881 1.85134 0 0 0 0 0 -2.2002 0 0 -2.77371 0 0 0 0.03 300 
335 1 1 0.429091 0.407041 1.85699 0 0 0 0 0 -2.17489 0 0 -2.77371 0 0 0 0.03 300 
279 1 1 0.157212 0.495968 1.83525 0 0 0 0 0 -2.27084 0 0 -2.77371 0 0 0 0.03 300 
217 1 1 0.461801 0.523439 1.85624 0 0 0 0 0 -2.17823 0 0 -2.77371 0 0 0 0.03 300 
252 1 1 0.442785 0.262265 1.8639 0 0 0 0 0 -2.1435 0 0 -2.77371 0 0 0 0.03 300 
193 1 1 0.281872 0.329623 1.88527 0 0 0 0 0 -2.04334 0 0 -2.77371 0 0 0 0.03 300 
272 1 1 0.116473 0.427779 1.8902 0 0 0 0 0 -2.0195 0 0 -2.77371 0 0 0 0.03 300 
239 1 1 0.490736 0.457949 1.87951 0 0 0 0 0 -2.07081 0 0 -2.77371 0 0 0 0.03 300 
201 1 1 0.360389 0.493184 1.87837 0 0 0 0 0 -2.07621 0 0 -2.77371 0 0 0 0.03 300 
305 1 1 0.346674 0.257421 1.90802 0 0 0 0 0 -1.93102 0 0 -2.77371 0 0 0 0.03 300 
233 1 1 0.496558 0.3336 1.91878 0 0 0 0 0 -1.87559 0 0 -2.77371 0 0 0 0.03 300 
237 1 1 0.207046 0.471117 1.90885 0 0 0 0 0 -1.9268 0 0 -2.77371 0 0 0 0.03 300 
262 1 1 0.417911 0.469013 1.90781 0 0 0 0 0 -1.9321 0 0 -2.77371 0 0 0 0.03 300 
303 1 1 0.114998 0.510423 1.92506 0 0 0 0 0 -1.84243 0 0 -2.77371 0 0 0 0.03 300 
263 1 1 0.269308 0.500141 1.91113 0 0 0 0 0 -1.91513 0 0 -2.77371 0 0 0 0.03 300 
351 1 1 0.181906 0.258163 1.93486 0 0 0 0 0 -1.78946 0 0 -2.77371 0 0 0 0.03 300 
332 1 1 0.233113 0.233231 1.96974 0 0 0 0 0 -1.58679 0 0 -2.77371 0 0 0 0.03 300 
319 1 1 0.490886 0.237209 1.94693 0 0 0 0 0 -1.72207 0 0 -2.77371 0 0 0 0.03 300 
206 1 1 0.126939 0.284236 1.96455 0 0 0 0 0 -1.61857 0 0 -2.77371 0 0 0 0.03 300 
194 1 1 0.257372 0.298287 1.97004 0 0 0 0 0 -1.58492 0 0 -2.77371 0 0 0 0.03 300 
231 1 1 0.39189 0.276895 1.97041 0 0 0 0 0 -1.58266 0 0 -2.77371 0 0 0 0.03 300 
347 1 1 0.332014 0.322805 1.96829 0 0 0 0 0 -1.59571 0 0 -2.77371 0 0 0 0.03 300 
298 1 1 0.133415 0.358363 1.94119 0 0 0 0 0 -1.75444 0 0 -2.77371 0 0 0 0.03 300 
341 1 1 0.462863 0.403415 1.95562 0 0 0 0 0 -1.67184 0 0 -2.77371 0 0 0 0.03 300 
334 1 1 0.38649 0.410383 1.94835 0 0 0 0 0 -1.71392 0 0 -2.77371 0 0 0 0.03 300 
283 1 1 0.300071 0.232043 1.9823 0 0 0 0 0 -1.50713 0 0 -2.77371 0 0 0 0.03 300 
338 1 1 0.455834 0.299724 1.98633 0 0 0 0 0 -1.48074 0 0 -2.77371 0 0 0 0.03 300 
197 1 1 0.187467 0.323213 1.99892 0 0 0 0 0 -1.3948 0 0 -2.77371 0 0 0 0.03 300 
331 1 1 0.280682 0.358343 1.98764 0 0 0 0 0 -1.47201 0 0 -2.77371 0 0 0 0.03 300 
216 1 1 0.415188 0.353574 1.98292 0 0 0 0 0 -1.50311 0 0 -2.77371 0 0 0 0.03 300 
285 1 1 0.200673 0.388027 1.99081 0 0 0 0 0 -1.45072 0 0 -2.77371 0 0 0 0.03 300 
308 1 1 0.14362 0.411827 2.00382 0 0 0 0 0 -1.35988 0 0 -2.77371 0 0 0 0.03 300 
208 1 1 0.292126 0.417938 1.97155 0 0 0 0 0 -1.5756 0 0 -2.77371 0 0 0 0.03 300 