ITEM: TIMESTEP
44000
ITEM: NUMBER OF ATOMS
176
ITEM: BOX BOUNDS ff ff ff
0 3.3
-0.3 0.8
-0.5 3
ITEM: ATOMS id type type x y z ix iy iz vx vy vz fx fy fz omegax omegay omegaz radius f_Temp[0] 
108 1 1 0.312606 0.183483 1.57912 0 0 0 1.03894 -0.153487 0.337023 -2.1511 -0.0992312 -2.98853 11.5877 -115.149 27.6784 0.03 317.204 
120 1 1 0.218069 0.216999 1.57716 0 0 0 1.03031 0.0294248 -0.00933819 0 0 -2.77371 -4.96645 -95.4308 11.8286 0.03 312.267 
47 1 1 0.477583 0.204615 1.57685 0 0 0 1.67145 -0.5123 0.0123917 1.20973 -0.165019 -0.331841 21.4375 -46.5318 2.35405 0.03 311.537 
67 1 1 0.537136 0.211486 1.584 0 0 0 1.61259 -0.264802 0.0756636 0 0 -2.77371 12.6073 -68.6426 2.91394 0.03 314.973 
58 1 1 0.122202 0.26459 1.57675 0 0 0 1.20359 0 0.982995 -8.2717 0 -46.8155 0 -95.6165 0 0.03 303.905 
41 1 1 0.259129 0.2631 1.57913 0 0 0 1.05531 -0.310969 -0.212145 0 0 -2.77371 -16.3798 -38.9764 13.6756 0.03 312.501 
112 1 1 0.34013 0.255055 1.57612 0 0 0 1.68241 -0.530589 0.0967292 5.64709 -1.72506 11.0028 -20.4559 3.90627 11.1989 0.03 307.283 
60 1 1 0.422051 0.239779 1.5751 0 0 0 1.11001 -0.19741 0.323154 -11.4813 -5.95639 6.70393 9.75628 -101.037 20.6181 0.03 308.32 
142 1 1 0.511622 0.265181 1.57571 0 0 0 2.09874 -0.0913354 0.189896 2.63424 1.56193 8.98497 3.93961 -66.1425 -4.14592 0.03 317.49 
13 1 1 0.203274 0.285704 1.57787 0 0 0 1.11359 -0.124708 0.192243 0 0 -2.77371 3.99455 -96.4838 -0.589119 0.03 311.201 
86 1 1 0.459348 0.299007 1.57658 0 0 0 1.65332 -0.333033 0.021637 3.15688 -2.06482 4.77065 11.4652 -78.4341 2.04297 0.03 319.759 
8 1 1 0.663828 0.274017 1.59739 0 0 0 2.45713 -0.251596 0.00359227 0 0 -2.77371 15.1058 -50.2364 3.30632 0.03 311.702 
124 1 1 0.32224 0.32922 1.57956 0 0 0 1.69593 -0.169785 0.137997 0 0 -2.77371 -9.04453 -78.8866 6.32962 0.03 313.091 
59 1 1 0.377262 0.300307 1.58337 0 0 0 1.81788 -0.347147 0.635124 -20.3035 -31.8676 3.67514 -7.72017 -72.5096 -16.6339 0.03 310.055 
45 1 1 0.566957 0.309354 1.58545 0 0 0 2.14332 -1.05964 -0.251741 0 0 -2.77371 -12.8177 82.9353 -5.28579 0.03 300.817 
14 1 1 0.774435 0.31828 1.57686 0 0 0 2.42078 0.0677042 0.000639106 -0.00216138 9.41526e-05 0.00253906 -2.26618 -52.8593 -2.54476 0.03 316.248 
64 1 1 0.206398 0.359936 1.57629 0 0 0 0.938385 0.100399 0.186012 -2.17044 -0.456044 1.2247 -1.42921 -104.126 -3.44934 0.03 311.23 
29 1 1 0.408827 0.3469 1.60043 0 0 0 0.979313 -0.14997 0.0197899 22.0315 37.0216 -6.73252 -32.7014 46.1419 31.0166 0.03 300.632 
23 1 1 0.529568 0.358134 1.58047 0 0 0 2.36701 -0.338154 0.36432 0 0 -2.77371 15.3498 -51.6845 -19.7042 0.03 325.929 
96 1 1 0.630362 0.360759 1.58411 0 0 0 1.59828 -0.245794 -0.487302 0 0 -2.77371 18.6485 -79.5754 -6.81822 0.03 307.134 
82 1 1 0.735222 0.370178 1.57679 0 0 0 1.79309 -0.132557 0.0266273 -0.119953 0.0106905 -0.0189571 4.44986 -74.0184 3.74214 0.03 308.815 
122 1 1 0.322009 0.391225 1.5838 0 0 0 1.76858 0.0979485 0.123635 -0.730496 -0.534922 -5.2008 9.6523 -78.0786 -19.1033 0.03 310.017 
69 1 1 0.136514 0.410354 1.58306 0 0 0 0.781535 -0.352495 0.124851 0 0 -2.77371 -21.0511 -86.7906 11.9609 0.03 305.587 
10 1 1 0.421003 0.419323 1.57844 0 0 0 1.64822 0.205408 0.272779 0 0 -2.77371 -10.0791 -83.2568 16.0563 0.03 319.602 
36 1 1 0.527622 0.432704 1.57903 0 0 0 1.24567 0.419228 -0.518604 0 0 -2.77371 -53.6549 32.08 16.2016 0.03 300.366 
32 1 1 0.619553 0.434355 1.58726 0 0 0 1.81297 0.024 -0.0956387 0 0 -2.77371 -0.656718 -73.5242 -5.21338 0.03 311.321 
174 1 1 0.70651 0.42307 1.57689 0 0 0 2.14694 0.0403663 0.000591765 1.07743 -0.416147 -0.463696 16.9615 -14.5833 3.69791 0.03 309.82 
121 1 1 0.178183 0.485075 1.58028 0 0 0 1.83636 0.698985 0.34286 0 0 -2.77371 -23.4577 -73.0468 28.4918 0.03 303.558 
163 1 1 0.249237 0.466931 1.58212 0 0 0 0.800938 0.254095 0.215489 0 0 -2.77371 -8.49145 -107.472 -25.1602 0.03 307.258 
30 1 1 0.362406 0.447548 1.57512 0 0 0 1.46565 0.104821 0.49837 -9.60829 -8.10352 10.9054 -1.30924 -90.2677 3.85606 0.03 326.629 
54 1 1 0.468263 0.456745 1.58371 0 0 0 1.7979 0.280945 0.272712 0 0 -2.77371 -24.5188 -65.566 -13.1218 0.03 316.336 
63 1 1 0.315228 0.493165 1.57628 0 0 0 1.16239 0.114491 -0.360182 17.9069 -10.1442 -74.4611 -10.2018 -85.2453 -0.770335 0.03 313.398 
39 1 1 0.406088 0.501573 1.57465 0 0 0 1.07718 -0.154668 -0.0377095 44.7851 -8.38062 88.3513 14.9683 -49.8758 -17.0842 0.03 301.768 
66 1 1 0.539907 0.490895 1.58825 0 0 0 1.63213 -0.177561 -0.457688 0.123203 -17.8541 -9.74444 -24.5286 -78.3298 1.52463 0.03 303.718 
100 1 1 0.656742 0.483969 1.5784 0 0 0 1.86948 0.0289217 0.0902571 0 0 -2.77371 -0.98121 -70.9157 -5.29887 0.03 315.952 
118 1 1 0.125266 0.536911 1.57847 0 0 0 0.864184 0.693234 0.734916 0 0 -2.77371 -23.4299 -105.954 6.60166 0.03 303.822 
152 1 1 0.193487 0.547999 1.58037 0 0 0 0.279132 0.678844 -2.40145 -46.0382 -8.60833 -20.6303 -0.907693 -37.4149 8.63682 0.03 303.764 
162 1 1 0.491338 0.526344 1.58034 0 0 0 1.26239 0.1438 0.0085232 0 0 -2.77371 7.49716 -75.3381 11.1306 0.03 307.83 
168 1 1 0.59988 0.516532 1.58759 0 0 0 1.74602 -0.0714041 0.0661136 0 0 -2.77371 2.42933 -75.7376 10.3515 0.03 303.639 
109 1 1 0.329292 0.569113 1.58706 0 0 0 1.47459 -0.496311 -0.0601573 0 0 -2.77371 9.31173 -47.095 -77.363 0.03 303.495 
103 1 1 0.422411 0.567028 1.5776 0 0 0 1.89083 0.451768 0.0651275 0 0 -2.77371 -14.6048 -70.5511 -26.5693 0.03 317.124 
113 1 1 0.663064 0.576757 1.58593 0 0 0 2.00699 0.0908797 0.0870852 0.0288466 -0.725727 -0.597683 -4.71001 -83.4416 -10.8476 0.03 316.896 
87 1 1 0.371694 0.176139 1.59995 0 0 0 -0.227911 -1.02468 -0.880726 0 0 -2.77371 2.67313 12.3803 18.0156 0.03 300.191 
85 1 1 0.632307 0.206571 1.61356 0 0 0 1.50927 -0.522515 -0.043997 0 0 -2.77371 8.12198 -77.5089 4.18826 0.03 303.886 
49 1 1 0.327754 0.227469 1.62993 0 0 0 0.485357 -0.927826 -0.2312 0 0 -2.77371 32.6664 -64.4092 -6.45444 0.03 300.028 
155 1 1 0.446233 0.260366 1.62314 0 0 0 0.411698 0.487283 0.9997 9.59614 19.087 23.2972 -28.701 67.8618 -1.56221 0.03 300.086 
46 1 1 0.51822 0.28698 1.63014 0 0 0 0.918213 0.220546 0.337904 -2.63722 -1.17432 10.0589 -8.79527 3.04003 -22.6378 0.03 300.303 
101 1 1 0.142904 0.334198 1.60432 0 0 0 -0.446641 0.334938 -1.14223 0 0 -2.77371 2.57348 20.1771 3.24541 0.03 300.048 
91 1 1 0.229179 0.324149 1.61847 0 0 0 0.405539 0.308814 0.785246 -0.889155 0.846313 -3.24224 -8.40906 52.0957 16.6551 0.03 300.287 
92 1 1 0.504342 0.370278 1.6403 0 0 0 1.14659 -0.179357 0.674339 0 0 -2.77371 -16.5671 6.80339 1.33371 0.03 300.355 
42 1 1 0.232489 0.402254 1.60872 0 0 0 0.413453 0.722436 0.126464 0.643455 1.02677 -0.701564 -30.6273 41.9572 -11.188 0.03 300.15 
145 1 1 0.373458 0.402146 1.61671 0 0 0 0.129884 -0.0890735 -0.937173 14.6705 0.499229 -11.6595 -29.2345 -7.04354 -0.941862 0.03 300.158 
167 1 1 0.448351 0.391303 1.62833 0 0 0 0.7783 -0.194809 1.36892 0 0 -2.77371 40.5375 23.5415 5.97773 0.03 300.593 
105 1 1 0.381898 0.463475 1.62781 0 0 0 0.661564 0.331261 1.20878 5.02832 4.95621 9.63566 -11.2599 51.9752 -20.9708 0.03 300.284 
79 1 1 0.339983 0.514305 1.62394 0 0 0 -0.134709 0.275728 -1.02331 0.914038 -12.8836 -60.3349 -13.7986 46.261 -4.76116 0.03 300.561 
140 1 1 0.706963 0.485207 1.61612 0 0 0 1.91018 0.0155893 0.485958 0 0 -2.77371 -2.11596 -33.9412 0.440971 0.03 304.049 
158 1 1 0.24795 0.560794 1.59432 0 0 0 0.243792 1.22267 -2.03161 46.0382 8.60833 15.0829 -18.4101 37.0156 8.69266 0.03 300.012 
172 1 1 0.489301 0.584494 1.60269 0 0 0 1.29776 0.148546 -0.188185 0 0 -2.77371 -6.88498 -75.1314 -48.0969 0.03 309.8 
15 1 1 0.188775 0.261917 1.63131 0 0 0 0 0 -3.02621 0 0 -2.77371 0 0 0 0.03 300 
80 1 1 0.494045 0.234114 1.64428 0 0 0 1.36684 -0.463955 -0.986531 4.81067 -5.73917 1.86674 49.1734 14.9571 -29.8889 0.03 300.002 
173 1 1 0.374648 0.276982 1.64785 0 0 0 0.849681 -0.576466 0.550739 0 0 -2.77371 20.1863 48.207 3.36417 0.03 300.124 
81 1 1 0.451791 0.319759 1.63577 0 0 0 1.02456 -0.0968017 -2.15366 -6.68437 19.0574 -73.5739 -17.1657 -4.74204 18.3702 0.03 300.001 
143 1 1 0.334067 0.359119 1.6363 0 0 0 0.590198 -0.880061 -2.11143 0 0 -2.77371 37.9778 -1.51326 -23.7445 0.03 300.003 
131 1 1 0.321405 0.423879 1.63379 0 0 0 0.548792 0.426318 -0.0972196 -13.94 0.0356926 8.53913 10.2341 42.0134 -13.4862 0.03 300.423 
99 1 1 0.287136 0.489968 1.6443 0 0 0 0.15624 0.491303 -0.255134 30.2608 -15.4633 -45.9388 -31.1222 -64.9305 24.8407 0.03 300.011 
117 1 1 0.189079 0.519029 1.63938 0 0 0 -0.188254 -0.424244 -1.13276 0 0 -2.77371 18.9091 31.868 7.15672 0.03 300.028 
18 1 1 0.451606 0.535292 1.64014 0 0 0 0.0241209 0.288686 0.266756 0 0 -2.77371 -13.0552 42.9778 11.5299 0.03 300.104 
157 1 1 0.529097 0.531162 1.62874 0 0 0 0.977606 0.696537 -0.716424 -0.123203 17.8541 4.19702 -3.80777 36.8118 -19.2805 0.03 300.017 
156 1 1 0.364295 0.598424 1.64228 0 0 0 0.172198 1.47681 0.112596 0 0 -2.77371 -12.6262 5.43796 11.889 0.03 300.129 
78 1 1 0.237686 0.177575 1.68132 0 0 0 0.840524 -0.590493 0.54362 0 0 -2.77371 28.2436 73.2207 -0.414164 0.03 300.124 
76 1 1 0.262374 0.280345 1.65903 0 0 0 0 0 -2.93497 0 0 -2.77371 0 0 0 0.03 300 
133 1 1 0.707629 0.350352 1.68229 0 0 0 1.45209 0.340449 0.0517669 0 0 -2.77371 -5.42725 -57.2091 -15.3957 0.03 303.944 
130 1 1 0.406688 0.411981 1.66885 0 0 0 0.487781 0.415476 -0.932954 0 0 -2.77371 17.9807 20.485 -8.74048 0.03 300 
135 1 1 0.110104 0.424702 1.64695 0 0 0 0 0 -2.9751 0 0 -2.77371 0 0 0 0.03 300 
61 1 1 0.174746 0.456274 1.64656 0 0 0 0 0 -2.97637 0 0 -2.77371 0 0 0 0.03 300 
9 1 1 0.441781 0.458388 1.65024 0 0 0 0 0 -2.96421 0 0 -2.77371 0 0 0 0.03 300 
2 1 1 0.338958 0.524759 1.6781 0 0 0 0.532039 0.466146 -1.05028 8.41231 39.2237 165.539 9.27406 -45.8099 8.94183 0.03 300.002 
159 1 1 0.46546 0.312452 1.69023 0 0 0 0.769129 0.140937 -1.48689 6.68437 -19.0574 68.0265 25.7721 -31.4346 -11.7473 0.03 300 
3 1 1 0.103577 0.34242 1.69831 0 0 0 0 0 -2.80058 0 0 -2.77371 0 0 0 0.03 300 
132 1 1 0.181507 0.370772 1.7034 0 0 0 0 0 -2.78272 0 0 -2.77371 0 0 0 0.03 300 
50 1 1 0.301622 0.417346 1.7037 0 0 0 0 0 -2.78164 0 0 -2.77371 0 0 0 0.03 300 
169 1 1 0.252456 0.475054 1.69067 0 0 0 -0.00989719 0.00515628 -2.81317 -30.2608 15.4633 40.3914 0.624284 -0.0390859 0.452958 0.03 300 
125 1 1 0.33817 0.237417 1.72862 0 0 0 0 0 -2.69237 0 0 -2.77371 0 0 0 0.03 300 
19 1 1 0.315839 0.298576 1.73507 0 0 0 0 0 -2.66873 0 0 -2.77371 0 0 0 0.03 300 
20 1 1 0.379347 0.368828 1.74031 0 0 0 0 0 -2.6494 0 0 -2.77371 0 0 0 0.03 300 
151 1 1 0.494801 0.397371 1.73912 0 0 0 0 0 -2.65382 0 0 -2.77371 0 0 0 0.03 300 
16 1 1 0.119943 0.514428 1.72508 0 0 0 0 0 -2.70522 0 0 -2.77371 0 0 0 0.03 300 
83 1 1 0.499782 0.483801 1.71612 0 0 0 0 0 -2.7375 0 0 -2.77371 0 0 0 0.03 300 
88 1 1 0.486268 0.228152 1.78284 0 0 0 0 0 -2.48695 0 0 -2.77371 0 0 0 0.03 300 
94 1 1 0.273851 0.347383 1.75626 0 0 0 0 0 -2.58966 0 0 -2.77371 0 0 0 0.03 300 
27 1 1 0.362553 0.476213 1.74979 0 0 0 0 0 -2.61409 0 0 -2.77371 0 0 0 0.03 300 
139 1 1 0.137853 0.229319 1.78733 0 0 0 0 0 -2.46919 0 0 -2.77371 0 0 0 0.03 300 
7 1 1 0.417913 0.266516 1.78907 0 0 0 0 0 -2.46223 0 0 -2.77371 0 0 0 0.03 300 
51 1 1 0.201805 0.313726 1.79202 0 0 0 0 0 -2.45046 0 0 -2.77371 0 0 0 0.03 300 
144 1 1 0.368613 0.311971 1.82033 0 0 0 0 0 -2.33441 0 0 -2.77371 0 0 0 0.03 300 
56 1 1 0.445152 0.350079 1.81683 0 0 0 0 0 -2.34902 0 0 -2.77371 0 0 0 0.03 300 
57 1 1 0.255601 0.512634 1.81742 0 0 0 0 0 -2.34657 0 0 -2.77371 0 0 0 0.03 300 
137 1 1 0.250314 0.231914 1.85292 0 0 0 0 0 -2.19314 0 0 -2.77371 0 0 0 0.03 300 
165 1 1 0.36833 0.235983 1.85528 0 0 0 0 0 -2.18255 0 0 -2.77371 0 0 0 0.03 300 
104 1 1 0.324371 0.382136 1.8376 0 0 0 0 0 -2.26063 0 0 -2.77371 0 0 0 0.03 300 
77 1 1 0.218563 0.442358 1.82328 0 0 0 0 0 -2.32195 0 0 -2.77371 0 0 0 0.03 300 
24 1 1 0.44361 0.420007 1.82721 0 0 0 0 0 -2.30527 0 0 -2.77371 0 0 0 0.03 300 
34 1 1 0.161462 0.479607 1.8579 0 0 0 0 0 -2.17077 0 0 -2.77371 0 0 0 0.03 300 
4 1 1 0.283869 0.446206 1.85758 0 0 0 0 0 -2.17225 0 0 -2.77371 0 0 0 0.03 300 
149 1 1 0.457968 0.50649 1.82372 0 0 0 0 0 -2.32008 0 0 -2.77371 0 0 0 0.03 300 
75 1 1 0.387927 0.516304 1.84282 0 0 0 0 0 -2.23787 0 0 -2.77371 0 0 0 0.03 300 
12 1 1 0.150682 0.290471 1.87293 0 0 0 0 0 -2.10171 0 0 -2.77371 0 0 0 0.03 300 
115 1 1 0.29951 0.265646 1.90794 0 0 0 0 0 -1.93141 0 0 -2.77371 0 0 0 0.03 300 
170 1 1 0.448147 0.302404 1.92034 0 0 0 0 0 -1.86735 0 0 -2.77371 0 0 0 0.03 300 
21 1 1 0.18594 0.400862 1.89947 0 0 0 0 0 -1.97399 0 0 -2.77371 0 0 0 0.03 300 
126 1 1 0.387846 0.395075 1.90533 0 0 0 0 0 -1.94465 0 0 -2.77371 0 0 0 0.03 300 
160 1 1 0.115232 0.435564 1.92319 0 0 0 0 0 -1.85234 0 0 -2.77371 0 0 0 0.03 300 
114 1 1 0.101873 0.240116 1.94287 0 0 0 0 0 -1.74502 0 0 -2.77371 0 0 0 0.03 300 
1 1 1 0.44893 0.24186 1.94601 0 0 0 0 0 -1.72726 0 0 -2.77371 0 0 0 0.03 300 
11 1 1 0.20764 0.30353 1.93927 0 0 0 0 0 -1.76513 0 0 -2.77371 0 0 0 0.03 300 
33 1 1 0.10471 0.363257 1.96166 0 0 0 0 0 -1.63603 0 0 -2.77371 0 0 0 0.03 300 
71 1 1 0.27192 0.349064 1.94762 0 0 0 0 0 -1.71814 0 0 -2.77371 0 0 0 0.03 300 
35 1 1 0.342434 0.364463 1.96796 0 0 0 0 0 -1.59777 0 0 -2.77371 0 0 0 0.03 300 
154 1 1 0.211019 0.445658 1.96067 0 0 0 0 0 -1.64192 0 0 -2.77371 0 0 0 0.03 300 
106 1 1 0.375691 0.47682 1.93671 0 0 0 0 0 -1.77936 0 0 -2.77371 0 0 0 0.03 300 
129 1 1 0.201147 0.51232 1.93702 0 0 0 0 0 -1.77759 0 0 -2.77371 0 0 0 0.03 300 
89 1 1 0.26845 0.48437 1.95777 0 0 0 0 0 -1.65918 0 0 -2.77371 0 0 0 0.03 300 
26 1 1 0.474436 0.482152 1.93567 0 0 0 0 0 -1.78505 0 0 -2.77371 0 0 0 0.03 300 
161 1 1 0.383875 0.233035 1.98348 0 0 0 0 0 -1.49948 0 0 -2.77371 0 0 0 0.03 300 
146 1 1 0.495146 0.246598 2.00668 0 0 0 0 0 -1.33908 0 0 -2.77371 0 0 0 0.03 300 
127 1 1 0.381994 0.300043 1.99029 0 0 0 0 0 -1.45425 0 0 -2.77371 0 0 0 0.03 300 
44 1 1 0.485944 0.343638 2.00378 0 0 0 0 0 -1.36017 0 0 -2.77371 0 0 0 0.03 300 
141 1 1 0.429803 0.380165 1.99186 0 0 0 0 0 -1.44356 0 0 -2.77371 0 0 0 0.03 300 
38 1 1 0.303454 0.414467 1.97852 0 0 0 0 0 -1.53155 0 0 -2.77371 0 0 0 0.03 300 
111 1 1 0.473074 0.424163 1.9982 0 0 0 0 0 -1.39981 0 0 -2.77371 0 0 0 0.03 300 
97 1 1 0.184928 0.234672 2.03177 0 0 0 0 0 -1.14063 0 0 -2.77371 0 0 0 0.03 300 
74 1 1 0.248328 0.247523 2.03815 0 0 0 0 0 -1.08432 0 0 -2.77371 0 0 0 0.03 300 
5 1 1 0.160428 0.3182 2.03836 0 0 0 0 0 -1.08245 0 0 -2.77371 0 0 0 0.03 300 
175 1 1 0.230789 0.339127 2.04226 0 0 0 0 0 -1.04655 0 0 -2.77371 0 0 0 0.03 300 
166 1 1 0.165431 0.374869 2.00994 0 0 0 0 0 -1.31505 0 0 -2.77371 0 0 0 0.03 300 
28 1 1 0.222318 0.404493 2.02231 0 0 0 0 0 -1.2192 0 0 -2.77371 0 0 0 0.03 300 
119 1 1 0.126835 0.482642 2.00911 0 0 0 0 0 -1.32123 0 0 -2.77371 0 0 0 0.03 300 
93 1 1 0.225968 0.488444 2.03043 0 0 0 0 0 -1.15201 0 0 -2.77371 0 0 0 0.03 300 
134 1 1 0.443832 0.509496 2.03811 0 0 0 0 0 -1.08461 0 0 -2.77371 0 0 0 0.03 300 
90 1 1 0.102204 0.238351 2.04552 0 0 0 0 0 -1.01545 0 0 -2.77371 0 0 0 0.03 300 
62 1 1 0.329189 0.252757 2.0482 0 0 0 -0 -0 -1 0 0 0 0 0 0 0.03 300 
43 1 1 0.460616 0.284913 2.05675 0 0 0 -0 -0 -1 0 0 0 0 0 0 0.03 300 
95 1 1 0.346797 0.327727 2.05259 0 0 0 -0 -0 -1 0 0 0 0 0 0 0.03 300 
25 1 1 0.278223 0.363632 2.07196 0 0 0 -0 -0 -1 0 0 0 0 0 0 0.03 300 
123 1 1 0.48159 0.360101 2.07449 0 0 0 -0 -0 -1 0 0 0 0 0 0 0.03 300 
116 1 1 0.152794 0.405213 2.06527 0 0 0 -0 -0 -1 0 0 0 0 0 0 0.03 300 
128 1 1 0.355123 0.421294 2.05732 0 0 0 -0 -0 -1 0 0 0 0 0 0 0.03 300 
37 1 1 0.41824 0.41741 2.05001 0 0 0 -0 -0 -1 0 0 0 0 0 0 0.03 300 
98 1 1 0.491139 0.43458 2.07869 0 0 0 -0 -0 -1 0 0 0 0 0 0 0.03 300 
138 1 1 0.301221 0.470777 2.06913 0 0 0 -0 -0 -1 0 0 0 0 0 0 0.03 300 
17 1 1 0.345254 0.512161 2.05021 0 0 0 -0 -0 -1 0 0 0 0 0 0 0.03 300 
22 1 1 0.254767 0.230824 2.11097 0 0 0 -0 -0 -1 0 0 0 0 0 0 0.03 300 
73 1 1 0.170916 0.265084 2.11451 0 0 0 -0 -0 -1 0 0 0 0 0 0 0.03 300 
40 1 1 0.408343 0.240904 2.0808 0 0 0 -0 -0 -1 0 0 0 0 0 0 0.03 300 
171 1 1 0.477654 0.251099 2.11033 0 0 0 -0 -0 -1 0 0 0 0 0 0 0.03 300 
110 1 1 0.10205 0.273683 2.11359 0 0 0 -0 -0 -1 0 0 0 0 0 0 0.03 300 
31 1 1 0.221691 0.336081 2.10246 0 0 0 -0 -0 -1 0 0 0 0 0 0 0.03 300 
68 1 1 0.400811 0.324654 2.08473 0 0 0 -0 -0 -1 0 0 0 0 0 0 0.03 300 
84 1 1 0.227036 0.399722 2.09273 0 0 0 -0 -0 -1 0 0 0 0 0 0 0.03 300 
148 1 1 0.12082 0.460146 2.11005 0 0 0 -0 -0 -1 0 0 0 0 0 0 0.03 300 
55 1 1 0.200976 0.455034 2.08831 0 0 0 -0 -0 -1 0 0 0 0 0 0 0.03 300 
136 1 1 0.374023 0.456818 2.10267 0 0 0 -0 -0 -1 0 0 0 0 0 0 0.03 300 
72 1 1 0.10161 0.511094 2.08218 0 0 0 -0 -0 -1 0 0 0 0 0 0 0.03 300 
65 1 1 0.421483 0.499457 2.11254 0 0 0 -0 -0 -1 0 0 0 0 0 0 0.03 300 
48 1 1 0.17066 0.517967 2.09622 0 0 0 -0 -0 -1 0 0 0 0 0 0 0.03 300 
164 1 1 0.244978 0.28843 2.13115 0 0 0 -0 -0 -1 0 0 0 0 0 0 0.03 300 
107 1 1 0.303471 0.271065 2.1197 0 0 0 -0 -0 -1 0 0 0 0 0 0 0.03 300 
70 1 1 0.142707 0.355749 2.12494 0 0 0 -0 -0 -1 0 0 0 0 0 0 0.03 300 
53 1 1 0.294932 0.364362 2.13 0 0 0 -0 -0 -1 0 0 0 0 0 0 0.03 300 
102 1 1 0.419044 0.351535 2.13593 0 0 0 -0 -0 -1 0 0 0 0 0 0 0.03 300 
176 1 1 0.349719 0.399621 2.13537 0 0 0 -0 -0 -1 0 0 0 0 0 0 0.03 300 
153 1 1 0.496538 0.392613 2.12762 0 0 0 -0 -0 -1 0 0 0 0 0 0 0.03 300 
6 1 1 0.317689 0.454971 2.1324 0 0 0 -0 -0 -1 0 0 0 0 0 0 0.03 300 
147 1 1 0.248507 0.49546 2.13684 0 0 0 -0 -0 -1 0 0 0 0 0 0 0.03 300 
150 1 1 0.481625 0.503918 2.1172 0 0 0 -0 -0 -1 0 0 0 0 0 0 0.03 300 
52 1 1 0.358392 0.516981 2.13661 0 0 0 -0 -0 -1 0 0 0 0 0 0 0.03 300 
