ITEM: TIMESTEP
55000
ITEM: NUMBER OF ATOMS
353
ITEM: BOX BOUNDS ff ff ff
0 3.3
-0.3 0.8
-0.5 3
ITEM: ATOMS id type type x y z ix iy iz vx vy vz fx fy fz omegax omegay omegaz radius f_Temp[0] 
15 1 1 0.243369 0.188579 1.57444 0 0 0 2.23631 -0.340865 0.455726 -18.9319 -1.44963 22.5712 15.4414 -74.384 5.2326 0.03 304.519 
108 1 1 0.476389 0.190133 1.57684 0 0 0 1.62148 0.114313 0.0026168 -0.0147711 -0.000469799 0.206424 -3.82796 -79.651 28.779 0.03 341.8 
47 1 1 0.695954 0.180138 1.58282 0 0 0 2.12563 0.0243184 -0.0143216 -0.0374628 0.659727 -1.32385 -0.817634 -78.2338 10.3977 0.03 323.97 
67 1 1 0.760877 0.189578 1.57645 0 0 0 2.22495 -0.180365 0.140525 -0.0221744 -0.172391 -0.562316 6.68767 -58.3987 1.73612 0.03 318.352 
85 1 1 0.815087 0.172995 1.59378 0 0 0 2.35491 -0.272583 0.359094 1.94232 -0.61217 -0.836612 -1.93494 -49.2708 6.13592 0.03 307.119 
139 1 1 0.153966 0.202235 1.58912 0 0 0 0.760015 -0.620929 0.431637 0 0 -2.77371 21.0053 -109.277 4.9273 0.03 303.789 
120 1 1 0.344624 0.216136 1.58346 0 0 0 1.24554 -0.118101 0.0552817 0 0 -2.77371 4.02522 -92.7113 5.11525 0.03 324.821 
112 1 1 0.538666 0.217979 1.57735 0 0 0 2.12516 -0.0935536 -0.00929524 0 0 -2.77371 -25.7719 -47.8556 -26.274 0.03 324.507 
60 1 1 0.612608 0.223273 1.58016 0 0 0 2.29748 0.00429218 -0.061732 0 0 -2.77371 -0.154537 -57.0567 18.3092 0.03 312.912 
45 1 1 0.852836 0.220249 1.57684 0 0 0 2.88668 -0.4492 -0.0151199 1.8451 0.604972 1.10978 -5.22132 24.5191 -21.0806 0.03 310.809 
58 1 1 0.236516 0.259635 1.57693 0 0 0 0.995072 -0.548015 -0.907124 -5.27634 16.1173 -17.4411 11.0365 -53.7641 7.27822 0.03 316.109 
41 1 1 0.444295 0.262551 1.57681 0 0 0 1.62065 0.0285702 0.0787758 0.012618 0.0262899 -2.83203 -2.47876 -78.9771 6.50184 0.03 323.761 
142 1 1 0.747032 0.25107 1.57686 0 0 0 2.16151 -0.150637 -0.000215636 0.000807904 8.9506e-05 0.00152139 5.04173 -61.5331 -9.75487 0.03 329.058 
8 1 1 0.934737 0.243735 1.57675 0 0 0 2.46914 -0.309305 -0.104426 0.130731 0.0187466 7.3332 10.3489 -51.2169 3.30632 0.03 314.995 
13 1 1 0.325457 0.274807 1.57677 0 0 0 1.5611 -0.432235 0.226589 -1.42748 0.469327 -9.40169 14.3915 -82.3368 28.5414 0.03 330.88 
59 1 1 0.563395 0.274442 1.57771 0 0 0 2.40979 -0.00730825 0.0382265 0 0 -2.77371 -0.864207 -52.7632 17.0155 0.03 314.566 
86 1 1 0.690334 0.271501 1.57687 0 0 0 2.12869 -0.211958 -0.00311569 0.0129449 0.00147943 0.0797212 7.09334 -62.6248 -4.85357 0.03 332.528 
124 1 1 0.483447 0.308071 1.57798 0 0 0 1.48182 0.0167741 -0.0782035 0 0 -2.77371 -5.27404 -61.1744 -1.04921 0.03 322.207 
23 1 1 0.778085 0.321359 1.57761 0 0 0 2.26616 -0.33965 -0.114055 -1.35783 0.0295185 -3.42431 11.3767 -56.9158 -14.2723 0.03 328.672 
96 1 1 0.837929 0.324008 1.57686 0 0 0 2.22595 -0.348874 0.00182397 1.75487 0.0208446 0.618776 11.6567 -59.2284 -1.38625 0.03 315.153 
14 1 1 1.04072 0.325727 1.57686 0 0 0 2.42075 0.0677053 1.02316e-07 -3.5464e-07 1.52041e-08 -2.15684e-06 -2.26609 -52.8573 -2.54476 0.03 330.827 
3 1 1 0.0923608 0.343517 1.587 0 0 0 0.346818 -0.00448618 0.0109795 0 0 -2.77371 0.154843 -122.712 1.57106 0.03 303.547 
101 1 1 0.229969 0.355545 1.57659 0 0 0 0.903139 0.447905 0.21195 -1.03881 1.14188 -5.86111 -18.3236 -107.269 17.5266 0.03 318.665 
64 1 1 0.321863 0.353108 1.58057 0 0 0 1.066 -0.331579 -0.0192031 0 0 -2.77371 10.8964 -98.041 -10.6386 0.03 327.195 
143 1 1 0.42577 0.369797 1.57597 0 0 0 1.84357 0.230656 -0.269488 -6.5688 5.79698 -31.5393 -14.1701 -70.4854 14.6716 0.03 309.875 
29 1 1 0.545439 0.347074 1.57995 0 0 0 2.63115 -0.166192 0.233972 -1.35818 -2.66148 -4.14463 4.12822 -45.1972 -0.607139 0.03 306.045 
81 1 1 0.617345 0.340937 1.57882 0 0 0 2.07718 0.0525965 0.119301 0 0 -2.77371 -1.42617 -65.0381 -15.9386 0.03 307.925 
82 1 1 0.933699 0.354103 1.57686 0 0 0 1.8063 -0.148108 2.3149e-06 -1.08622e-05 -7.33695e-07 7.66784e-06 4.95715 -73.423 2.87889 0.03 323.657 
50 1 1 0.367877 0.405998 1.57469 0 0 0 1.86737 0.0524865 -0.0629778 13.3048 2.37205 36.2418 -1.50314 -75.4862 -13.5241 0.03 305.361 
122 1 1 0.482261 0.388863 1.5778 0 0 0 1.98472 0.187846 0.0871409 -0.494418 -0.139322 -2.53796 -6.87647 -64.9365 -8.06785 0.03 327.666 
167 1 1 0.575972 0.39864 1.57818 0 0 0 2.08173 -0.025168 0.176099 4.88182 -3.50439 -13.7047 -6.49223 -62.6893 28.6142 0.03 304.165 
135 1 1 0.153419 0.42951 1.57505 0 0 0 0.849229 -0.0599964 0.43064 -9.60014 -12.6519 31.6855 10.7618 -115.842 -11.0466 0.03 305.957 
69 1 1 0.241792 0.416597 1.57802 0 0 0 2.01478 0.39022 0.392516 0 0 -2.77371 -13.7434 -66.7014 31.7139 0.03 323.587 
131 1 1 0.421223 0.429873 1.57841 0 0 0 1.46149 0.325 0.10204 36.0591 10.1282 17.9667 1.3373 29.567 23.5412 0.03 304.396 
36 1 1 0.742072 0.443079 1.57686 0 0 0 2.25653 0.155463 -0.00108108 1.38394 0.403258 0.109269 -13.8162 -28.7999 3.40092 0.03 311.589 
32 1 1 0.818849 0.436901 1.57686 0 0 0 1.81036 0.0227357 0.00348396 -0.0167302 0.0001737 -0.0575072 -0.761101 -73.3005 -5.21338 0.03 319.915 
174 1 1 0.968083 0.417991 1.57686 0 0 0 2.54448 -0.112823 1.58972e-06 0.0145475 -0.00590351 -0.000148862 3.77794 -48.7117 2.83466 0.03 324.742 
42 1 1 0.315729 0.473366 1.58222 0 0 0 1.68812 0.464795 -0.289911 -61.0096 -23.5838 -122.783 -23.2973 -44.5902 -17.1202 0.03 308.53 
30 1 1 0.52068 0.444011 1.5768 0 0 0 1.57093 -0.194393 0.00807336 0.00752996 0.0344559 0.813603 6.5343 -81.4709 -9.51141 0.03 342.02 
10 1 1 0.619032 0.449364 1.57645 0 0 0 2.06642 0.255872 0.0449514 -6.1837 0.548044 8.07713 -9.48099 -65.0442 10.5448 0.03 332.762 
54 1 1 0.676237 0.469742 1.57909 0 0 0 2.00363 0.164242 -0.220636 0 0 -2.77371 -7.00729 -62.635 -3.09249 0.03 322.502 
61 1 1 0.236388 0.492866 1.58965 0 0 0 0.857314 0.37916 0.214426 0 0 -2.77371 -12.2794 -105.721 0.126792 0.03 310.838 
163 1 1 0.39278 0.493529 1.57679 0 0 0 1.5197 0.277911 -0.0554138 -12.0918 17.1412 -42.3459 -3.11234 -72.9299 -33.2317 0.03 315.859 
63 1 1 0.478927 0.514341 1.57655 0 0 0 1.58579 0.369166 0.0133375 -1.01231 -1.18345 6.69984 -12.2516 -79.6584 -2.67517 0.03 328.575 
66 1 1 0.721939 0.511808 1.57906 0 0 0 1.96007 0.0605191 -0.0426258 0.0784937 -0.0241631 -2.72881 -0.530901 -64.9758 -8.82907 0.03 309.387 
168 1 1 0.791873 0.50866 1.57691 0 0 0 1.74259 -0.0717714 -0.00891602 0.0348797 0.00110888 -0.454592 2.39871 -75.446 10.3515 0.03 310.128 
100 1 1 0.862682 0.487159 1.57686 0 0 0 1.87286 0.0290349 -0.000232565 0.00111477 -1.52161e-05 0.0106533 -0.971794 -71.1951 -5.29887 0.03 327.12 
16 1 1 0.172121 0.519308 1.57732 0 0 0 1.15935 0.295358 0.264195 0 0 -2.77371 -10.5137 -95.3012 18.8678 0.03 309.102 
121 1 1 0.367048 0.549377 1.57973 0 0 0 2.0096 0.708566 -0.0331118 0 0 -2.77371 -15.5525 -60.567 16.3492 0.03 318.589 
39 1 1 0.57176 0.516207 1.58008 0 0 0 1.7754 -0.317091 0.164193 1.14146 -4.86432 -0.410528 14.6339 -70.0747 1.67131 0.03 316.471 
162 1 1 0.664701 0.529241 1.57687 0 0 0 1.83271 -0.254472 0.0145422 0.86952 -0.363177 -0.770436 14.7547 -57.2691 21.2763 0.03 317.928 
158 1 1 0.479029 0.581201 1.58816 0 0 0 1.88594 -0.0386689 0.10828 -3.71352 -23.7251 8.2128 2.0158 -27.3462 -78.8547 0.03 310.455 
109 1 1 0.546199 0.569867 1.5785 0 0 0 2.10698 -0.113586 -0.031517 0.181651 -1.28103 -1.65429 3.53054 -62.4148 -27.6225 0.03 317.886 
103 1 1 0.615439 0.564112 1.57701 0 0 0 1.7984 -0.211464 0.00076765 -0.481261 0.0118921 -2.07201 7.05688 -73.7092 -46.1684 0.03 332.742 
113 1 1 0.882856 0.565639 1.57642 0 0 0 1.84884 -0.296849 0.0818204 2.21589 0.522364 5.54092 9.39909 -69.9088 -11.9526 0.03 330.855 
87 1 1 0.510646 0.147547 1.6163 0 0 0 1.68782 -0.113291 0.272514 0 0 -2.77371 6.6493 -12.5758 57.6482 0.03 310.725 
88 1 1 0.543799 0.194231 1.63611 0 0 0 1.47204 0.127753 0.547185 0 0 -2.77371 19.8362 33.9437 -35.3702 0.03 300.395 
137 1 1 0.244144 0.193886 1.63178 0 0 0 -0.184597 -0.902539 1.12051 4.86182 1.00398 30.187 5.19924 -2.73941 5.86755 0.03 300.028 
173 1 1 0.450259 0.21879 1.6244 0 0 0 0.785808 -0.899954 -0.600671 0 0 -2.77371 20.1704 60.4576 18.2663 0.03 300.498 
76 1 1 0.278212 0.252902 1.6152 0 0 0 0.474194 -0.827468 -0.228341 57.2043 -7.9894 51.2815 -7.36805 36.5072 -28.9502 0.03 300.677 
12 1 1 0.1313 0.294353 1.61793 0 0 0 -0.799031 0.173283 -1.69496 0 0 -2.77371 -29.336 -71.9536 -6.43929 0.03 300.001 
19 1 1 0.359234 0.29914 1.63367 0 0 0 0.528839 -0.221848 0.587332 -1.30908 -25.7033 -18.9496 -52.105 118.162 -2.75853 0.03 300.77 
46 1 1 0.61432 0.280256 1.62862 0 0 0 0.862533 -0.250172 -0.464026 0 0 -2.77371 -5.89946 10.5853 -21.4766 0.03 300.43 
91 1 1 0.257333 0.31011 1.60471 0 0 0 0.511364 0.0973646 0.424746 0 0 -2.77371 23.4148 56.4593 -10.9034 0.03 301.051 
144 1 1 0.433798 0.326268 1.61699 0 0 0 1.70839 -0.291329 -0.0634531 0 0 -2.77371 34.9061 4.36174 38.9524 0.03 300.097 
132 1 1 0.141376 0.361473 1.62348 0 0 0 -0.895704 -0.220413 -1.02948 0 0 -2.77371 41.4274 44.1481 11.0653 0.03 300.183 
56 1 1 0.50603 0.340777 1.63474 0 0 0 0.878901 -0.0359343 0.161336 0 0 -2.77371 -14.6211 -12.6669 9.40279 0.03 300.04 
92 1 1 0.644344 0.36197 1.63186 0 0 0 1.70407 0.394769 0.561505 0 0 -2.77371 -22.3033 38.9848 -1.88911 0.03 300.416 
77 1 1 0.227836 0.388356 1.63216 0 0 0 0.370355 -0.992612 0.325946 0 0 -2.77371 59.2622 11.174 -33.6475 0.03 300.319 
20 1 1 0.445208 0.390053 1.62629 0 0 0 0.818831 0.436118 -0.370939 14.703 6.87361 50.5789 -4.37943 34.8547 -14.2741 0.03 300.291 
4 1 1 0.291461 0.439302 1.63962 0 0 0 0.33805 -0.404434 0.711897 0 0 -2.77371 54.1086 20.1637 -4.00445 0.03 300.079 
151 1 1 0.574784 0.44409 1.61641 0 0 0 1.00044 0.536943 -0.763014 -0.348526 6.92178 7.93232 -13.5485 20.8541 -3.14089 0.03 300.197 
145 1 1 0.467717 0.456694 1.60765 0 0 0 1.5768 1.02385 -0.672592 0 0 -2.77371 -3.07977 13.4488 16.1297 0.03 300.783 
34 1 1 0.16835 0.48605 1.62804 0 0 0 0.335301 -0.0638462 0.520666 0 0 -2.77371 18.188 49.3274 1.84718 0.03 300.119 
27 1 1 0.349492 0.482504 1.62688 0 0 0 0.268394 0.0949654 -0.0832151 70.1846 51.2627 106.152 14.6837 7.99445 -9.7119 0.03 300.024 
105 1 1 0.43428 0.510153 1.61621 0 0 0 0.62841 0.698989 -0.851649 16.4116 -18.4385 42.7569 -11.3255 36.2962 7.16 0.03 301.149 
9 1 1 0.534959 0.488763 1.6202 0 0 0 0.878398 0.512067 -0.107483 1.5896 -0.741706 -2.48567 -28.6083 63.9667 4.64962 0.03 301.687 
140 1 1 0.917083 0.486922 1.61022 0 0 0 1.91018 0.0155893 -0.593142 0 0 -2.77371 -2.11596 -33.9412 0.440971 0.03 304.049 
118 1 1 0.227814 0.595806 1.60535 0 0 0 1.1799 0.250716 0.119993 0 0 -2.77371 -15.4654 -118.15 -15.2183 0.03 309.104 
152 1 1 0.295618 0.591964 1.60057 0 0 0 1.62358 0.186289 -0.0213444 6.29361 -11.8926 15.1211 -4.08007 -112.313 -0.644049 0.03 311.207 
172 1 1 0.681623 0.597761 1.60689 0 0 0 1.85712 -0.0209228 -0.0214324 -0.00353933 -1.4285 -0.772053 1.25516 -62.1693 -39.2779 0.03 319.087 
49 1 1 0.309136 0.201868 1.65519 0 0 0 0.0748235 -0.750386 0.312876 0 0 -2.77371 -21.846 3.07449 -12.6633 0.03 300.802 
80 1 1 0.638833 0.207248 1.64446 0 0 0 1.31915 -0.178642 -0.189048 0 0 -2.77371 -11.1196 32.8548 -25.5688 0.03 300.208 
51 1 1 0.202919 0.258875 1.64294 0 0 0 0.172322 -0.61352 0.444877 0 0 -2.77371 -0.718255 -2.04548 -6.8437 0.03 300.22 
7 1 1 0.48424 0.266497 1.65952 0 0 0 1.10943 -0.0756859 -0.893952 0 0 -2.77371 -22.4371 -35.8509 10.1074 0.03 300.006 
155 1 1 0.540882 0.283148 1.63647 0 0 0 1.28442 0.12066 0.0755317 0 0 -2.77371 -6.6497 18.3738 7.35832 0.03 300.457 
94 1 1 0.3372 0.349632 1.65381 0 0 0 0.224656 -0.234369 0.146333 1.30908 25.7033 13.4021 -31.2847 64.7176 70.2468 0.03 300.52 
159 1 1 0.579737 0.345794 1.63419 0 0 0 1.26471 0.443155 -0.753125 0 0 -2.77371 27.7594 -3.54186 -1.50948 0.03 300.005 
133 1 1 0.867359 0.387802 1.62864 0 0 0 1.45209 0.340449 -1.02733 0 0 -2.77371 -5.42725 -57.2091 -15.3957 0.03 303.944 
104 1 1 0.370584 0.426723 1.62927 0 0 0 0.532855 0.936006 -0.334056 -17.0453 -21.2069 39.8042 -31.9974 24.9022 5.60383 0.03 300.032 
169 1 1 0.227278 0.482723 1.65975 0 0 0 0.462124 -0.49033 -0.86698 0 0 -2.77371 -9.00192 33.3053 12.6704 0.03 300.246 
149 1 1 0.490095 0.509635 1.66006 0 0 0 0.889866 -0.15271 -0.652203 0.404699 -1.55539 -1.43719 48.5818 -47.1681 1.39088 0.03 300.021 
117 1 1 0.207532 0.537203 1.64035 0 0 0 0.431717 0.144257 0.518937 0 0 -2.77371 9.64165 50.1097 15.6579 0.03 300.183 
83 1 1 0.620366 0.525514 1.65126 0 0 0 1.74324 0.50685 0.346191 0 0 -2.77371 5.00779 82.3266 13.0114 0.03 300.323 
157 1 1 0.696699 0.550608 1.65193 0 0 0 1.64473 -0.000973832 -0.0541474 0 0 -2.77371 -18.9003 88.2493 6.98209 0.03 300.3 
57 1 1 0.272121 0.564902 1.64805 0 0 0 0.0839512 0.982579 -0.0142671 -0.0847206 0.89629 -5.09782 -43.972 8.54197 27.6111 0.03 300.052 
99 1 1 0.343 0.561067 1.65528 0 0 0 0.860452 0.931861 0.611747 0 0 -2.77371 12.243 22.6198 -14.525 0.03 300.335 
79 1 1 0.408847 0.57245 1.63685 0 0 0 0.25114 0.439793 -0.31822 0 0 -2.77371 4.87465 -14.9566 -19.3747 0.03 300.878 
18 1 1 0.487869 0.567036 1.64416 0 0 0 0.921745 0.245232 0.515828 2.76997 -5.93929 18.6353 -26.1056 9.11798 16.1204 0.03 300.362 
78 1 1 0.330143 0.112621 1.68177 0 0 0 0.840524 -0.590493 -0.53548 0 0 -2.77371 28.2436 73.2207 -0.414164 0.03 300.124 
165 1 1 0.409849 0.179355 1.68422 0 0 0 1.01087 -1.65506 -0.237925 0 0 -2.77371 42.6669 33.7181 6.49146 0.03 300 
115 1 1 0.309609 0.263979 1.66811 0 0 0 0.62508 -0.141667 -1.07322 0 0 -2.77371 -11.6495 6.06962 4.67773 0.03 300.005 
125 1 1 0.412388 0.26617 1.67173 0 0 0 0.568671 0.786189 -0.984691 -16.6379 8.32615 6.01343 25.169 -8.98413 -31.9995 0.03 300.018 
170 1 1 0.443205 0.317352 1.6834 0 0 0 -0.172007 0.644386 -1.8111 0 0 -2.77371 -12.3507 -3.45569 2.52514 0.03 300 
21 1 1 0.179296 0.397135 1.66812 0 0 0 -0.430272 -0.143421 -0.255858 0 0 -2.77371 -40.8987 -49.0445 -19.1335 0.03 300.003 
126 1 1 0.367506 0.392632 1.68281 0 0 0 0.264477 0.804624 -0.522328 0 0 -2.77371 22.8048 -19.6659 -21.2798 0.03 300.004 
24 1 1 0.455773 0.380833 1.68346 0 0 0 0.680685 -0.451564 -0.506542 6.41776 7.00536 17.9833 25.9818 -33.5142 -11.7058 0.03 300.002 
160 1 1 0.115232 0.435564 1.66008 0 0 0 0 0 -2.93144 0 0 -2.77371 0 0 0 0.03 300 
130 1 1 0.550721 0.466326 1.6874 0 0 0 1.45581 0.431014 -0.0799881 0 0 -2.77371 27.5258 -51.7108 -19.1684 0.03 300.021 
75 1 1 0.414578 0.510651 1.67343 0 0 0 0.657857 0.269223 -0.699626 0 0 -2.77371 24.4227 -31.425 -2.45134 0.03 300.019 
156 1 1 0.474563 0.662159 1.67695 0 0 0 1.26011 0.305667 0.00179594 0 0 -2.77371 -24.298 -57.1889 -50.7379 0.03 303.44 
114 1 1 0.101873 0.240116 1.69157 0 0 0 0 0 -2.82412 0 0 -2.77371 0 0 0 0.03 300 
1 1 1 0.452336 0.239315 1.70249 0 0 0 1.37568 -0.930393 -0.989397 16.6379 -8.32615 -11.5609 17.0679 31.4268 8.20678 0.03 300 
11 1 1 0.20764 0.30353 1.68576 0 0 0 0 0 -2.84423 0 0 -2.77371 0 0 0 0.03 300 
71 1 1 0.27192 0.349064 1.69927 0 0 0 0 0 -2.79724 0 0 -2.77371 0 0 0 0.03 300 
106 1 1 0.369749 0.469336 1.6959 0 0 0 -0.406961 -0.481748 -1.92799 0 0 -2.77371 11.8302 -14.3753 -1.57498 0.03 300 
26 1 1 0.471803 0.47106 1.70477 0 0 0 -0.158753 -0.740521 -1.29312 0 0 -2.77371 2.01698 5.60123 1.84444 0.03 300 
129 1 1 0.197639 0.519306 1.70594 0 0 0 -0.402995 0.694469 -0.720665 0 0 -2.77371 -30.6948 -40.0175 6.54373 0.03 300.002 
89 1 1 0.26845 0.48437 1.71591 0 0 0 0 0 -2.73828 0 0 -2.77371 0 0 0 0.03 300 
2 1 1 0.421818 0.648142 1.71339 0 0 0 0.763244 1.14936 -0.1445 0 0 -2.77371 29.9697 -62.4635 12.0468 0.03 300.012 
33 1 1 0.10471 0.363257 1.72234 0 0 0 0 0 -2.71513 0 0 -2.77371 0 0 0 0.03 300 
35 1 1 0.342434 0.364463 1.73286 0 0 0 0 0 -2.67687 0 0 -2.77371 0 0 0 0.03 300 
38 1 1 0.303454 0.414467 1.7507 0 0 0 0 0 -2.61065 0 0 -2.77371 0 0 0 0.03 300 
154 1 1 0.211019 0.445658 1.72071 0 0 0 0 0 -2.72102 0 0 -2.77371 0 0 0 0.03 300 
161 1 1 0.383875 0.233035 1.75919 0 0 0 0 0 -2.57858 0 0 -2.77371 0 0 0 0.03 300 
127 1 1 0.381994 0.300043 1.77097 0 0 0 0 0 -2.53335 0 0 -2.77371 0 0 0 0.03 300 
141 1 1 0.429803 0.380165 1.77372 0 0 0 0 0 -2.52266 0 0 -2.77371 0 0 0 0.03 300 
111 1 1 0.473074 0.424163 1.78487 0 0 0 0 0 -2.47891 0 0 -2.77371 0 0 0 0.03 300 
146 1 1 0.495146 0.246598 1.80003 0 0 0 0 0 -2.41818 0 0 -2.77371 0 0 0 0.03 300 
44 1 1 0.485944 0.343638 1.79481 0 0 0 0 0 -2.43927 0 0 -2.77371 0 0 0 0.03 300 
166 1 1 0.165431 0.374869 1.80593 0 0 0 0 0 -2.39415 0 0 -2.77371 0 0 0 0.03 300 
119 1 1 0.126835 0.482642 1.80442 0 0 0 0 0 -2.40033 0 0 -2.77371 0 0 0 0.03 300 
97 1 1 0.184928 0.234672 1.84695 0 0 0 0 0 -2.21973 0 0 -2.77371 0 0 0 0.03 300 
74 1 1 0.248328 0.247523 1.85953 0 0 0 0 0 -2.16342 0 0 -2.77371 0 0 0 0.03 300 
5 1 1 0.160428 0.3182 1.85994 0 0 0 0 0 -2.16155 0 0 -2.77371 0 0 0 0.03 300 
28 1 1 0.222318 0.404493 1.82885 0 0 0 0 0 -2.2983 0 0 -2.77371 0 0 0 0.03 300 
93 1 1 0.225968 0.488444 1.84436 0 0 0 0 0 -2.23111 0 0 -2.77371 0 0 0 0.03 300 
134 1 1 0.443832 0.509496 1.85945 0 0 0 0 0 -2.16371 0 0 -2.77371 0 0 0 0.03 300 
90 1 1 0.102204 0.238351 1.87447 0 0 0 0 0 -2.09455 0 0 -2.77371 0 0 0 0.03 300 
62 1 1 0.329189 0.252757 1.88001 0 0 0 0 0 -2.06846 0 0 -2.77371 0 0 0 0.03 300 
43 1 1 0.460616 0.284913 1.89735 0 0 0 0 0 -1.98448 0 0 -2.77371 0 0 0 0.03 300 
95 1 1 0.346797 0.327727 1.88901 0 0 0 0 0 -2.02529 0 0 -2.77371 0 0 0 0.03 300 
175 1 1 0.230789 0.339127 1.86778 0 0 0 0 0 -2.12565 0 0 -2.77371 0 0 0 0.03 300 
37 1 1 0.41824 0.41741 1.88376 0 0 0 0 0 -2.0506 0 0 -2.77371 0 0 0 0.03 300 
17 1 1 0.345254 0.512161 1.88416 0 0 0 0 0 -2.04864 0 0 -2.77371 0 0 0 0.03 300 
25 1 1 0.278223 0.363632 1.92639 0 0 0 0 0 -1.83537 0 0 -2.77371 0 0 0 0.03 300 
123 1 1 0.48159 0.360101 1.93102 0 0 0 0 0 -1.81045 0 0 -2.77371 0 0 0 0.03 300 
116 1 1 0.152794 0.405213 1.91391 0 0 0 0 0 -1.9009 0 0 -2.77371 0 0 0 0.03 300 
128 1 1 0.355123 0.421294 1.89848 0 0 0 0 0 -1.97889 0 0 -2.77371 0 0 0 0.03 300 
138 1 1 0.301221 0.470777 1.92117 0 0 0 0 0 -1.86303 0 0 -2.77371 0 0 0 0.03 300 
40 1 1 0.408343 0.240904 1.94224 0 0 0 0 0 -1.74855 0 0 -2.77371 0 0 0 0.03 300 
68 1 1 0.400811 0.324654 1.94904 0 0 0 0 0 -1.71 0 0 -2.77371 0 0 0 0.03 300 
84 1 1 0.227036 0.399722 1.9624 0 0 0 0 0 -1.63152 0 0 -2.77371 0 0 0 0.03 300 
98 1 1 0.491139 0.43458 1.93853 0 0 0 0 0 -1.76925 0 0 -2.77371 0 0 0 0.03 300 
55 1 1 0.200976 0.455034 1.9551 0 0 0 0 0 -1.67488 0 0 -2.77371 0 0 0 0.03 300 
72 1 1 0.10161 0.511094 1.94465 0 0 0 0 0 -1.73501 0 0 -2.77371 0 0 0 0.03 300 
48 1 1 0.17066 0.517967 1.96804 0 0 0 0 0 -1.59728 0 0 -2.77371 0 0 0 0.03 300 
22 1 1 0.254767 0.230824 1.99053 0 0 0 0 0 -1.45258 0 0 -2.77371 0 0 0 0.03 300 
73 1 1 0.170916 0.265084 1.99561 0 0 0 0 0 -1.41786 0 0 -2.77371 0 0 0 0.03 300 
171 1 1 0.477654 0.251099 1.9896 0 0 0 0 0 -1.45886 0 0 -2.77371 0 0 0 0.03 300 
110 1 1 0.10205 0.273683 1.9943 0 0 0 0 0 -1.42688 0 0 -2.77371 0 0 0 0.03 300 
107 1 1 0.303471 0.271065 2.00284 0 0 0 0 0 -1.36694 0 0 -2.77371 0 0 0 0.03 300 
31 1 1 0.221691 0.336081 1.97781 0 0 0 0 0 -1.53607 0 0 -2.77371 0 0 0 0.03 300 
148 1 1 0.12082 0.460146 1.98919 0 0 0 0 0 -1.46161 0 0 -2.77371 0 0 0 0.03 300 
136 1 1 0.374023 0.456818 1.97813 0 0 0 0 0 -1.53411 0 0 -2.77371 0 0 0 0.03 300 
65 1 1 0.421483 0.499457 1.9928 0 0 0 0 0 -1.43718 0 0 -2.77371 0 0 0 0.03 300 
150 1 1 0.481625 0.503918 1.99939 0 0 0 0 0 -1.39147 0 0 -2.77371 0 0 0 0.03 300 
333 1 1 0.346739 0.243699 2.0462 0 0 0 0 0 -1.00888 0 0 -2.77371 0 0 0 0.03 300 
281 1 1 0.411814 0.252027 2.0332 0 0 0 0 0 -1.12827 0 0 -2.77371 0 0 0 0.03 300 
164 1 1 0.244978 0.28843 2.01785 0 0 0 0 0 -1.25462 0 0 -2.77371 0 0 0 0.03 300 
225 1 1 0.490773 0.317233 2.04015 0 0 0 0 0 -1.06607 0 0 -2.77371 0 0 0 0.03 300 
70 1 1 0.142707 0.355749 2.00986 0 0 0 0 0 -1.31554 0 0 -2.77371 0 0 0 0.03 300 
53 1 1 0.294932 0.364362 2.0164 0 0 0 0 0 -1.2659 0 0 -2.77371 0 0 0 0.03 300 
102 1 1 0.419044 0.351535 2.02372 0 0 0 0 0 -1.20782 0 0 -2.77371 0 0 0 0.03 300 
176 1 1 0.349719 0.399621 2.02305 0 0 0 0 0 -1.21322 0 0 -2.77371 0 0 0 0.03 300 
153 1 1 0.496538 0.392613 2.01335 0 0 0 0 0 -1.28925 0 0 -2.77371 0 0 0 0.03 300 
326 1 1 0.187055 0.479944 2.02786 0 0 0 0 0 -1.17369 0 0 -2.77371 0 0 0 0.03 300 
6 1 1 0.317689 0.454971 2.01941 0 0 0 0 0 -1.24236 0 0 -2.77371 0 0 0 0.03 300 
147 1 1 0.248507 0.49546 2.02483 0 0 0 0 0 -1.1988 0 0 -2.77371 0 0 0 0.03 300 
52 1 1 0.358392 0.516981 2.02455 0 0 0 0 0 -1.20106 0 0 -2.77371 0 0 0 0.03 300 
339 1 1 0.110214 0.298119 2.06191 0 0 0 -0 -0 -1 0 0 0 0 0 0 0.03 300 
181 1 1 0.375154 0.318829 2.06476 0 0 0 -0 -0 -1 0 0 0 0 0 0 0.03 300 
289 1 1 0.101436 0.395361 2.04744 0 0 0 -0 -0 -1 0 0 0 0 0 0 0.03 300 
190 1 1 0.226585 0.401613 2.08024 0 0 0 -0 -0 -1 0 0 0 0 0 0 0.03 300 
296 1 1 0.486808 0.439095 2.07562 0 0 0 -0 -0 -1 0 0 0 0 0 0 0.03 300 
227 1 1 0.405439 0.458732 2.07611 0 0 0 -0 -0 -1 0 0 0 0 0 0 0.03 300 
304 1 1 0.124838 0.500222 2.06944 0 0 0 -0 -0 -1 0 0 0 0 0 0 0.03 300 
243 1 1 0.453661 0.506792 2.06908 0 0 0 -0 -0 -1 0 0 0 0 0 0 0.03 300 
288 1 1 0.209802 0.229296 2.10867 0 0 0 -0 -0 -1 0 0 0 0 0 0 0.03 300 
213 1 1 0.125891 0.243147 2.11527 0 0 0 -0 -0 -1 0 0 0 0 0 0 0.03 300 
307 1 1 0.30626 0.26717 2.08469 0 0 0 -0 -0 -1 0 0 0 0 0 0 0.03 300 
221 1 1 0.425449 0.24778 2.10309 0 0 0 -0 -0 -1 0 0 0 0 0 0 0.03 300 
322 1 1 0.49924 0.247443 2.11573 0 0 0 -0 -0 -1 0 0 0 0 0 0 0.03 300 
300 1 1 0.170925 0.32143 2.08555 0 0 0 -0 -0 -1 0 0 0 0 0 0 0.03 300 
340 1 1 0.235778 0.333975 2.10058 0 0 0 -0 -0 -1 0 0 0 0 0 0 0.03 300 
187 1 1 0.476873 0.306542 2.10249 0 0 0 -0 -0 -1 0 0 0 0 0 0 0.03 300 
180 1 1 0.296048 0.338714 2.08378 0 0 0 -0 -0 -1 0 0 0 0 0 0 0.03 300 
268 1 1 0.442536 0.376191 2.09924 0 0 0 -0 -0 -1 0 0 0 0 0 0 0.03 300 
249 1 1 0.173789 0.449512 2.09177 0 0 0 -0 -0 -1 0 0 0 0 0 0 0.03 300 
301 1 1 0.196268 0.514676 2.09764 0 0 0 -0 -0 -1 0 0 0 0 0 0 0.03 300 
276 1 1 0.289349 0.515799 2.10369 0 0 0 -0 -0 -1 0 0 0 0 0 0 0.03 300 
196 1 1 0.358915 0.233995 2.13735 0 0 0 -0 -0 -1 0 0 0 0 0 0 0.03 300 
257 1 1 0.107883 0.30308 2.12464 0 0 0 -0 -0 -1 0 0 0 0 0 0 0.03 300 
230 1 1 0.257855 0.281878 2.12402 0 0 0 -0 -0 -1 0 0 0 0 0 0 0.03 300 
245 1 1 0.160535 0.375989 2.13766 0 0 0 -0 -0 -1 0 0 0 0 0 0 0.03 300 
254 1 1 0.380252 0.376413 2.14303 0 0 0 -0 -0 -1 0 0 0 0 0 0 0.03 300 
291 1 1 0.499679 0.383275 2.11751 0 0 0 -0 -0 -1 0 0 0 0 0 0 0.03 300 
270 1 1 0.207615 0.426676 2.14897 0 0 0 -0 -0 -1 0 0 0 0 0 0 0.03 300 
178 1 1 0.318639 0.427051 2.12674 0 0 0 -0 -0 -1 0 0 0 0 0 0 0.03 300 
352 1 1 0.377854 0.441153 2.13506 0 0 0 -0 -0 -1 0 0 0 0 0 0 0.03 300 
246 1 1 0.107302 0.455042 2.12023 0 0 0 -0 -0 -1 0 0 0 0 0 0 0.03 300 
226 1 1 0.253931 0.465065 2.12163 0 0 0 -0 -0 -1 0 0 0 0 0 0 0.03 300 
265 1 1 0.446064 0.454668 2.1343 0 0 0 -0 -0 -1 0 0 0 0 0 0 0.03 300 
224 1 1 0.391331 0.524514 2.12276 0 0 0 -0 -0 -1 0 0 0 0 0 0 0.03 300 
317 1 1 0.252263 0.228507 2.1689 0 0 0 -0 -0 -1 0 0 0 0 0 0 0.03 300 
252 1 1 0.442785 0.262265 2.17054 0 0 0 -0 -0 -1 0 0 0 0 0 0 0.03 300 
248 1 1 0.155073 0.291265 2.16256 0 0 0 -0 -0 -1 0 0 0 0 0 0 0.03 300 
193 1 1 0.281872 0.329623 2.18076 0 0 0 -0 -0 -1 0 0 0 0 0 0 0.03 300 
209 1 1 0.352404 0.322469 2.15158 0 0 0 -0 -0 -1 0 0 0 0 0 0 0.03 300 
313 1 1 0.439938 0.327558 2.1583 0 0 0 -0 -0 -1 0 0 0 0 0 0 0.03 300 
204 1 1 0.215487 0.347963 2.16667 0 0 0 -0 -0 -1 0 0 0 0 0 0 0.03 300 
346 1 1 0.2812 0.398881 2.16476 0 0 0 -0 -0 -1 0 0 0 0 0 0 0.03 300 
335 1 1 0.429091 0.407041 2.16734 0 0 0 -0 -0 -1 0 0 0 0 0 0 0.03 300 
272 1 1 0.116473 0.427779 2.18318 0 0 0 -0 -0 -1 0 0 0 0 0 0 0.03 300 
239 1 1 0.490736 0.457949 2.17796 0 0 0 -0 -0 -1 0 0 0 0 0 0 0.03 300 
279 1 1 0.157212 0.495968 2.15757 0 0 0 -0 -0 -1 0 0 0 0 0 0 0.03 300 
201 1 1 0.360389 0.493184 2.1774 0 0 0 -0 -0 -1 0 0 0 0 0 0 0.03 300 
217 1 1 0.461801 0.523439 2.167 0 0 0 -0 -0 -1 0 0 0 0 0 0 0.03 300 
351 1 1 0.181906 0.258163 2.20663 0 0 0 -0 -0 -1 0 0 0 0 0 0 0.03 300 
305 1 1 0.346674 0.257421 2.1922 0 0 0 -0 -0 -1 0 0 0 0 0 0 0.03 300 
319 1 1 0.490886 0.237209 2.2135 0 0 0 -0 -0 -1 0 0 0 0 0 0 0.03 300 
233 1 1 0.496558 0.3336 2.19785 0 0 0 -0 -0 -1 0 0 0 0 0 0 0.03 300 
298 1 1 0.133415 0.358363 2.2102 0 0 0 -0 -0 -1 0 0 0 0 0 0 0.03 300 
341 1 1 0.462863 0.403415 2.21862 0 0 0 -0 -0 -1 0 0 0 0 0 0 0.03 300 
334 1 1 0.38649 0.410383 2.21433 0 0 0 -0 -0 -1 0 0 0 0 0 0 0.03 300 
237 1 1 0.207046 0.471117 2.19263 0 0 0 -0 -0 -1 0 0 0 0 0 0 0.03 300 
262 1 1 0.417911 0.469013 2.1921 0 0 0 -0 -0 -1 0 0 0 0 0 0 0.03 300 
303 1 1 0.114998 0.510423 2.20123 0 0 0 -0 -0 -1 0 0 0 0 0 0 0.03 300 
263 1 1 0.269308 0.500141 2.19382 0 0 0 -0 -0 -1 0 0 0 0 0 0 0.03 300 
283 1 1 0.300071 0.232043 2.23541 0 0 0 -0 -0 -1 0 0 0 0 0 0 0.03 300 
332 1 1 0.233113 0.233231 2.22729 0 0 0 -0 -0 -1 0 0 0 0 0 0 0.03 300 
206 1 1 0.126939 0.284236 2.22405 0 0 0 -0 -0 -1 0 0 0 0 0 0 0.03 300 
194 1 1 0.257372 0.298287 2.22748 0 0 0 -0 -0 -1 0 0 0 0 0 0 0.03 300 
231 1 1 0.39189 0.276895 2.22772 0 0 0 -0 -0 -1 0 0 0 0 0 0 0.03 300 
338 1 1 0.455834 0.299724 2.23811 0 0 0 -0 -0 -1 0 0 0 0 0 0 0.03 300 
197 1 1 0.187467 0.323213 2.24686 0 0 0 -0 -0 -1 0 0 0 0 0 0 0.03 300 
347 1 1 0.332014 0.322805 2.22638 0 0 0 -0 -0 -1 0 0 0 0 0 0 0.03 300 
331 1 1 0.280682 0.358343 2.239 0 0 0 -0 -0 -1 0 0 0 0 0 0 0.03 300 
295 1 1 0.361284 0.371846 2.2554 0 0 0 -0 -0 -1 0 0 0 0 0 0 0.03 300 
216 1 1 0.415188 0.353574 2.23582 0 0 0 -0 -0 -1 0 0 0 0 0 0 0.03 300 
285 1 1 0.200673 0.388027 2.24116 0 0 0 -0 -0 -1 0 0 0 0 0 0 0.03 300 
308 1 1 0.14362 0.411827 2.25042 0 0 0 -0 -0 -1 0 0 0 0 0 0 0.03 300 
208 1 1 0.292126 0.417938 2.22843 0 0 0 -0 -0 -1 0 0 0 0 0 0 0.03 300 
271 1 1 0.316171 0.515613 2.24673 0 0 0 -0 -0 -1 0 0 0 0 0 0 0.03 300 
325 1 1 0.454753 0.482086 2.2402 0 0 0 -0 -0 -1 0 0 0 0 0 0 0.03 300 
185 1 1 0.176568 0.243013 2.26859 0 0 0 -0 -0 -1 0 0 0 0 0 0 0.03 300 
186 1 1 0.259533 0.258075 2.28734 0 0 0 -0 -0 -1 0 0 0 0 0 0 0.03 300 
183 1 1 0.442411 0.236129 2.27849 0 0 0 -0 -0 -1 0 0 0 0 0 0 0.03 300 
240 1 1 0.373873 0.277789 2.28961 0 0 0 -0 -0 -1 0 0 0 0 0 0 0.03 300 
250 1 1 0.309313 0.331656 2.28448 0 0 0 -0 -0 -1 0 0 0 0 0 0 0.03 300 
316 1 1 0.11734 0.353945 2.28534 0 0 0 -0 -0 -1 0 0 0 0 0 0 0.03 300 
220 1 1 0.335967 0.444883 2.26458 0 0 0 -0 -0 -1 0 0 0 0 0 0 0.03 300 
198 1 1 0.400177 0.437787 2.2676 0 0 0 -0 -0 -1 0 0 0 0 0 0 0.03 300 
255 1 1 0.114307 0.478097 2.25805 0 0 0 -0 -0 -1 0 0 0 0 0 0 0.03 300 
182 1 1 0.244578 0.471314 2.27452 0 0 0 -0 -0 -1 0 0 0 0 0 0 0.03 300 
238 1 1 0.178751 0.5056 2.2701 0 0 0 -0 -0 -1 0 0 0 0 0 0 0.03 300 
258 1 1 0.122106 0.287147 2.31085 0 0 0 -0 -0 -1 0 0 0 0 0 0 0.03 300 
284 1 1 0.192412 0.289106 2.30388 0 0 0 -0 -0 -1 0 0 0 0 0 0 0.03 300 
282 1 1 0.474016 0.292718 2.30895 0 0 0 -0 -0 -1 0 0 0 0 0 0 0.03 300 
212 1 1 0.417494 0.317622 2.31353 0 0 0 -0 -0 -1 0 0 0 0 0 0 0.03 300 
259 1 1 0.22228 0.356059 2.30403 0 0 0 -0 -0 -1 0 0 0 0 0 0 0.03 300 
309 1 1 0.164495 0.407825 2.31668 0 0 0 -0 -0 -1 0 0 0 0 0 0 0.03 300 
277 1 1 0.255485 0.407729 2.30471 0 0 0 -0 -0 -1 0 0 0 0 0 0 0.03 300 
234 1 1 0.396246 0.377563 2.32259 0 0 0 -0 -0 -1 0 0 0 0 0 0 0.03 300 
318 1 1 0.359003 0.427078 2.32033 0 0 0 -0 -0 -1 0 0 0 0 0 0 0.03 300 
274 1 1 0.492828 0.422942 2.29588 0 0 0 -0 -0 -1 0 0 0 0 0 0 0.03 300 
261 1 1 0.177868 0.470844 2.32335 0 0 0 -0 -0 -1 0 0 0 0 0 0 0.03 300 
192 1 1 0.365388 0.511304 2.30856 0 0 0 -0 -0 -1 0 0 0 0 0 0 0.03 300 
290 1 1 0.276688 0.526521 2.31397 0 0 0 -0 -0 -1 0 0 0 0 0 0 0.03 300 
329 1 1 0.429505 0.520312 2.3195 0 0 0 -0 -0 -1 0 0 0 0 0 0 0.03 300 
343 1 1 0.15665 0.233052 2.34364 0 0 0 -0 -0 -1 0 0 0 0 0 0 0.03 300 
189 1 1 0.296506 0.266561 2.35407 0 0 0 -0 -0 -1 0 0 0 0 0 0 0.03 300 
349 1 1 0.365686 0.235664 2.34936 0 0 0 -0 -0 -1 0 0 0 0 0 0 0.03 300 
330 1 1 0.462592 0.233737 2.35699 0 0 0 -0 -0 -1 0 0 0 0 0 0 0.03 300 
253 1 1 0.245744 0.294067 2.3346 0 0 0 -0 -0 -1 0 0 0 0 0 0 0.03 300 
324 1 1 0.115625 0.334079 2.35008 0 0 0 -0 -0 -1 0 0 0 0 0 0 0.03 300 
211 1 1 0.342022 0.308301 2.34941 0 0 0 -0 -0 -1 0 0 0 0 0 0 0.03 300 
344 1 1 0.280536 0.422033 2.35742 0 0 0 -0 -0 -1 0 0 0 0 0 0 0.03 300 
184 1 1 0.446465 0.410676 2.33321 0 0 0 -0 -0 -1 0 0 0 0 0 0 0.03 300 
266 1 1 0.482717 0.469458 2.35953 0 0 0 -0 -0 -1 0 0 0 0 0 0 0.03 300 
223 1 1 0.10548 0.49309 2.34007 0 0 0 -0 -0 -1 0 0 0 0 0 0 0.03 300 
210 1 1 0.236464 0.494005 2.35819 0 0 0 -0 -0 -1 0 0 0 0 0 0 0.03 300 
315 1 1 0.216797 0.232457 2.36158 0 0 0 -0 -0 -1 0 0 0 0 0 0 0.03 300 
219 1 1 0.410483 0.256917 2.38553 0 0 0 -0 -0 -1 0 0 0 0 0 0 0.03 300 
202 1 1 0.125386 0.2781 2.3709 0 0 0 -0 -0 -1 0 0 0 0 0 0 0.03 300 
222 1 1 0.18233 0.36007 2.37255 0 0 0 -0 -0 -1 0 0 0 0 0 0 0.03 300 
191 1 1 0.12776 0.394841 2.37642 0 0 0 -0 -0 -1 0 0 0 0 0 0 0.03 300 
228 1 1 0.413169 0.40103 2.38234 0 0 0 -0 -0 -1 0 0 0 0 0 0 0.03 300 
242 1 1 0.493753 0.377377 2.37419 0 0 0 -0 -0 -1 0 0 0 0 0 0 0.03 300 
269 1 1 0.324092 0.465876 2.36568 0 0 0 -0 -0 -1 0 0 0 0 0 0 0.03 300 
287 1 1 0.403036 0.471118 2.36135 0 0 0 -0 -0 -1 0 0 0 0 0 0 0.03 300 
310 1 1 0.172992 0.51357 2.37251 0 0 0 -0 -0 -1 0 0 0 0 0 0 0.03 300 
188 1 1 0.306795 0.524102 2.37006 0 0 0 -0 -0 -1 0 0 0 0 0 0 0.03 300 
336 1 1 0.169622 0.23057 2.42238 0 0 0 -0 -0 -1 0 0 0 0 0 0 0.03 300 
353 1 1 0.264297 0.230887 2.39885 0 0 0 -0 -0 -1 0 0 0 0 0 0 0.03 300 
275 1 1 0.31599 0.267584 2.41773 0 0 0 -0 -0 -1 0 0 0 0 0 0 0.03 300 
207 1 1 0.223339 0.283687 2.43062 0 0 0 -0 -0 -1 0 0 0 0 0 0 0.03 300 
244 1 1 0.46854 0.271589 2.42621 0 0 0 -0 -0 -1 0 0 0 0 0 0 0.03 300 
199 1 1 0.254913 0.330119 2.40002 0 0 0 -0 -0 -1 0 0 0 0 0 0 0.03 300 
323 1 1 0.363208 0.332364 2.41706 0 0 0 -0 -0 -1 0 0 0 0 0 0 0.03 300 
273 1 1 0.441723 0.330179 2.41774 0 0 0 -0 -0 -1 0 0 0 0 0 0 0.03 300 
302 1 1 0.343126 0.393328 2.39825 0 0 0 -0 -0 -1 0 0 0 0 0 0 0.03 300 
235 1 1 0.267803 0.425206 2.42094 0 0 0 -0 -0 -1 0 0 0 0 0 0 0.03 300 
342 1 1 0.480929 0.433795 2.41215 0 0 0 -0 -0 -1 0 0 0 0 0 0 0.03 300 
306 1 1 0.210852 0.447093 2.39752 0 0 0 -0 -0 -1 0 0 0 0 0 0 0.03 300 
179 1 1 0.386922 0.454847 2.42993 0 0 0 -0 -0 -1 0 0 0 0 0 0 0.03 300 
195 1 1 0.106207 0.489082 2.42925 0 0 0 -0 -0 -1 0 0 0 0 0 0 0.03 300 
214 1 1 0.465608 0.504217 2.42039 0 0 0 -0 -0 -1 0 0 0 0 0 0 0.03 300 
312 1 1 0.364798 0.238472 2.45811 0 0 0 -0 -0 -1 0 0 0 0 0 0 0.03 300 
286 1 1 0.427168 0.251042 2.46538 0 0 0 -0 -0 -1 0 0 0 0 0 0 0.03 300 
251 1 1 0.103547 0.274488 2.44652 0 0 0 -0 -0 -1 0 0 0 0 0 0 0.03 300 