ITEM: TIMESTEP
96000
ITEM: NUMBER OF ATOMS
351
ITEM: BOX BOUNDS ff ff ff
0 3.3
-0.3 0.8
-0.5 3
ITEM: ATOMS id type type x y z ix iy iz vx vy vz fx fy fz omegax omegay omegaz radius f_Temp[0] 
213 1 1 0.116472 0.178738 1.58594 0 0 0 0.527239 -0.227347 0.360326 0 0 -2.77371 2.70712 -70.2012 17.6013 0.03 310.824 
288 1 1 0.4393 0.161366 1.60267 0 0 0 1.95536 -0.290728 0.538188 0 0 -2.77371 20.7184 -71.2623 25.687 0.03 314.76 
90 1 1 0.50141 0.185523 1.57868 0 0 0 1.79244 -0.407959 0.0524705 7.49924 18.3407 -20.1202 14.6058 -68.5907 8.07195 0.03 337.575 
51 1 1 0.679952 0.193806 1.57688 0 0 0 2.41017 0.209283 0.00594122 1.03221 0.324515 -0.609673 -11.533 -38.783 10.2194 0.03 324.802 
40 1 1 0.865574 0.185995 1.57689 0 0 0 2.30756 -0.0116571 0.00566106 0.417907 0.996371 0.802937 0.279518 -56.8556 14.8095 0.03 333.394 
161 1 1 1.03319 0.186192 1.57691 0 0 0 2.64394 -0.000819544 0.010858 0.996016 0.386855 -1.03692 -0.574662 -41.1945 20.0004 0.03 333.699 
173 1 1 1.26542 0.193977 1.57823 0 0 0 3.00957 0.226822 0.0822973 -0.381249 0.976249 -2.28903 -5.09077 -32.9884 42.6855 0.03 326.424 
88 1 1 1.32615 0.193537 1.57665 0 0 0 2.40328 -0.136451 -0.0591511 2.35744 0.644048 -0.817346 5.63851 -52.9985 -5.56072 0.03 317.284 
1 1 1 1.48083 0.194606 1.57686 0 0 0 2.89093 0.00660363 4.71884e-07 -1.09643e-06 6.52838e-09 1.06307e-05 -0.221023 -37.1203 15.9399 0.03 344.321 
80 1 1 1.57789 0.176532 1.58642 0 0 0 2.80324 0.177735 -0.180361 0.961205 1.28373 -1.31676 -6.34481 -7.70829 25.8235 0.03 330.345 
47 1 1 1.63701 0.198451 1.57687 0 0 0 2.9056 0.24351 -0.000872779 1.2275 0.497017 -0.125104 -13.9806 -22.2204 2.4465 0.03 373.365 
248 1 1 0.171972 0.210166 1.57787 0 0 0 0.952589 -0.693832 0.219581 0 0 -2.77371 -8.92114 -39.0033 21.4508 0.03 306.079 
97 1 1 0.258219 0.199518 1.57594 0 0 0 1.26855 0.00212077 0.170429 -2.87689 -8.67525 4.22105 1.90319 -95.2125 36.1931 0.03 328.647 
22 1 1 0.367187 0.199822 1.57982 0 0 0 2.37808 -0.122021 0.345649 0 0 -2.77371 4.33612 -54.8044 -42.5887 0.03 317.785 
164 1 1 0.455078 0.224572 1.57619 0 0 0 2.00018 -0.191912 -0.291314 18.8289 -4.01988 35.7327 14.5972 -29.3706 -17.9898 0.03 309.815 
221 1 1 0.606339 0.217995 1.59644 0 0 0 2.49333 -0.627112 -0.175779 0 0 -2.77371 54.1707 9.89823 3.77476 0.03 301.286 
12 1 1 0.738787 0.211174 1.59741 0 0 0 2.37244 0.234852 0.183601 -3.08928 8.53907 -19.6807 -5.33888 6.77738 -13.3098 0.03 338.872 
91 1 1 0.917301 0.215968 1.57963 0 0 0 2.30554 0.0218598 -0.084998 0.595457 0.370573 -2.38282 -2.87665 -40.1105 -10.8473 0.03 334.219 
141 1 1 0.979724 0.211975 1.58667 0 0 0 2.43365 -0.319682 -0.353047 0 0 -2.77371 3.66961 51.0559 -0.231709 0.03 304.744 
15 1 1 1.0908 0.202728 1.57695 0 0 0 2.64714 0.0474779 0.00686003 -0.0646459 -0.0869162 -1.58143 -1.59198 -45.1933 23.5782 0.03 347.757 
78 1 1 1.173 0.226237 1.57684 0 0 0 2.56764 0.0905865 0.00430825 -0.0132337 -0.00020778 0.250397 -3.03286 -47.9758 32.2998 0.03 339.633 
108 1 1 1.53523 0.222212 1.57686 0 0 0 2.78041 0.0838079 0.000207805 -0.000398923 7.11475e-05 -0.00178705 -2.8051 -40.82 4.13349 0.03 382.194 
230 1 1 0.28596 0.2491 1.59376 0 0 0 1.07922 -0.0962127 -0.229314 3.33478 11.315 7.70148 15.5977 59.8437 -21.4324 0.03 300.746 
110 1 1 0.403705 0.256637 1.57561 0 0 0 2.03076 -0.0749419 0.400067 -2.77485 0.472978 3.48028 2.56585 -67.9918 14.5149 0.03 339.521 
3 1 1 0.560386 0.251753 1.57661 0 0 0 2.49716 -0.535629 -0.0945107 6.23429 2.22253 10.4635 7.21304 -20.2454 13.4207 0.03 351.371 
5 1 1 0.672251 0.255389 1.57692 0 0 0 2.30841 -0.0994372 0.00715869 -0.109024 -0.069008 -1.18059 3.40405 -56.6472 -24.7415 0.03 330.946 
95 1 1 0.798978 0.230671 1.57728 0 0 0 2.77798 -0.266841 -0.10672 0 0 -2.77371 -5.0535 1.72728 7.50509 0.03 309.549 
19 1 1 0.858945 0.245067 1.58291 0 0 0 2.82017 0.132827 -0.456729 -0.57958 0.941207 -2.82508 -16.0869 -5.92578 -16.4846 0.03 303.65 
13 1 1 1.02257 0.257562 1.57655 0 0 0 2.36916 0.177122 0.0133975 -0.473131 -1.64373 1.22785 -6.68998 -53.8604 10.0301 0.03 378.352 
120 1 1 1.2402 0.248262 1.57665 0 0 0 2.55726 0.10218 0.124283 0.590547 -1.08183 -3.62515 -3.83808 -49.2368 -19.6885 0.03 369.378 
125 1 1 1.30203 0.252903 1.57687 0 0 0 2.71352 0.00291752 0.000335313 -0.000338009 7.51995e-06 -0.13341 -0.0976387 -43.0499 -1.83142 0.03 341.435 
41 1 1 1.43925 0.268487 1.57686 0 0 0 2.53788 0.111903 -3.25152e-07 8.90594e-07 -6.81615e-08 -3.8824e-05 -3.74538 -48.9369 -3.69394 0.03 363.393 
60 1 1 1.59421 0.24235 1.57686 0 0 0 2.78094 0.22787 0.00107868 -0.00294754 0.000689413 0.0215068 -7.62733 -40.8063 1.36024 0.03 361.476 
206 1 1 0.138361 0.284236 1.57775 0 0 0 1.19591 0 0.924837 0 0 -2.77371 0 -95.0108 0 0.03 303.946 
339 1 1 0.247403 0.292408 1.57656 0 0 0 1.19781 0.545476 0.202224 0.718085 -0.710002 -4.79336 5.29531 -70.3592 8.84953 0.03 327.059 
132 1 1 0.349216 0.291781 1.57716 0 0 0 1.34104 -0.481834 0.0735835 0 0 -2.77371 16.0706 -88.9569 -2.44157 0.03 332.303 
70 1 1 0.442385 0.302135 1.5794 0 0 0 2.08699 -0.0196193 0.21839 -0.38082 -0.442674 -2.52665 1.04546 -65.0555 -19.8844 0.03 335.713 
107 1 1 0.499983 0.267743 1.57805 0 0 0 2.08057 -0.200757 0.112624 0 0 -2.77371 9.37634 -19.436 -6.75359 0.03 309.215 
175 1 1 0.717238 0.292009 1.59234 0 0 0 2.2504 0.160817 -0.306174 0 0 -2.77371 -32.431 38.3477 22.0044 0.03 316.516 
127 1 1 0.786987 0.294595 1.57548 0 0 0 2.34848 -0.0602531 0.0763917 -4.00638 0.315475 20.8883 2.13147 -61.7667 14.1092 0.03 312.506 
11 1 1 0.909009 0.278441 1.57645 0 0 0 2.68486 0.204363 -0.0617747 -3.20998 -1.71236 7.08861 -11.8826 -32.7926 17.8567 0.03 352.989 
94 1 1 0.963334 0.301519 1.57735 0 0 0 2.75081 0.298765 0.135942 10.4766 4.8671 3.20773 -11.1195 -38.0772 -13.2809 0.03 346.444 
123 1 1 1.06576 0.298524 1.57678 0 0 0 2.36116 0.0911047 0.057286 5.26208 5.38663 2.19202 -3.59377 -55.0139 6.64067 0.03 324.075 
64 1 1 1.12505 0.28301 1.57678 0 0 0 2.36124 0.0661918 -0.00244757 -0.0811711 -0.0695035 0.232541 -2.22038 -54.8856 23.9668 0.03 368.011 
144 1 1 1.34415 0.296264 1.57678 0 0 0 2.72093 -0.0301079 0.0569726 -0.46912 -0.805 -2.12162 -0.222606 -42.3033 18.0455 0.03 342.093 
112 1 1 1.52059 0.295732 1.57693 0 0 0 2.91682 -0.0556595 0.0362432 -0.0848911 0.349813 -2.64999 1.75763 -36.4695 -8.01048 0.03 366.553 
86 1 1 1.61502 0.303581 1.57686 0 0 0 2.62667 0.214619 0.0433958 0.791628 1.64656 -2.6525 -13.1797 -42.9444 -0.028799 0.03 372.783 
257 1 1 0.0189427 0.312812 1.57976 0 0 0 0.140595 0.189312 0.154553 0 0 -2.77371 -10.9058 -80.0804 -6.65116 0.03 303.338 
313 1 1 0.54009 0.3295 1.5907 0 0 0 1.26629 -0.576055 -0.692144 16.5041 6.49919 -12.2531 26.1155 8.00811 -22.245 0.03 300.188 
56 1 1 1.27999 0.312123 1.57685 0 0 0 2.55265 -0.0502531 0.00153185 -0.00477809 -0.00138496 0.168979 1.68253 -48.4614 -15.0231 0.03 327.399 
159 1 1 1.47338 0.333141 1.577 0 0 0 3.08711 -0.199522 0.00976063 0.222322 0.0617118 -2.31226 0.270724 -7.45696 8.89294 0.03 311.979 
298 1 1 0.121615 0.364364 1.58276 0 0 0 0.605605 0.117631 0.697496 0 0 -2.77371 -3.98376 -114.755 0.0364031 0.03 303.834 
300 1 1 0.211383 0.354348 1.57817 0 0 0 1.4236 0.180508 0.225441 0 0 -2.77371 -6.16397 -86.2088 -3.19968 0.03 312.399 
31 1 1 0.290013 0.367933 1.57304 0 0 0 1.77124 0.110296 -0.331685 39.6867 -9.55807 69.4497 -0.137842 -83.1093 12.3176 0.03 305.801 
340 1 1 0.342885 0.356328 1.59156 0 0 0 1.12484 0.00741302 -0.374113 55.9984 -13.2311 69.4213 9.4447 56.8682 -18.2667 0.03 300.093 
53 1 1 0.42251 0.365866 1.57391 0 0 0 2.457 -0.0335155 0.100081 6.59373 -2.50778 20.7902 5.65258 -64.0159 -8.57989 0.03 311.743 
166 1 1 0.628109 0.355035 1.57774 0 0 0 2.42409 -0.260718 -0.0721158 0 0 -2.77371 8.62837 -52.764 17.0705 0.03 332.143 
38 1 1 0.693767 0.359522 1.57686 0 0 0 1.73519 0.0632178 0.000350606 -0.00164315 4.78337e-05 0.0127458 -2.116 -75.8066 -7.60417 0.03 334.003 
291 1 1 0.806705 0.355199 1.58419 0 0 0 2.44364 0.276458 -0.709411 0 0 -2.77371 -18.4195 47.8974 -18.7063 0.03 300.085 
35 1 1 0.877091 0.351008 1.57686 0 0 0 2.29937 -0.0791815 1.63558e-06 -6.52601e-06 -3.03835e-07 -0.000142735 2.6502 -56.92 -4.52146 0.03 330.989 
126 1 1 1.02171 0.352561 1.57686 0 0 0 2.44059 0.12319 -0.00396117 0.0139277 -0.00133997 0.139225 -4.11853 -52.1962 -26.9442 0.03 323.465 
24 1 1 1.08519 0.359862 1.59497 0 0 0 2.61365 -0.254778 0.0620537 0 0 -2.77371 5.31294 -40.1453 12.3135 0.03 303.667 
143 1 1 1.28494 0.374245 1.57687 0 0 0 2.19151 0.102406 -0.000729238 0.00290694 0.00102761 -0.165814 -3.42608 -60.5101 2.41306 0.03 363.093 
124 1 1 1.36764 0.351093 1.57667 0 0 0 2.39848 0.172259 0.0343617 0.756304 1.0146 1.25068 -14.2032 -50.9691 -7.76554 0.03 367.686 
59 1 1 1.56166 0.339356 1.5767 0 0 0 2.9622 -0.0577447 -0.0917096 0.639485 0.123108 8.50023 2.05744 -34.756 -4.93801 0.03 349.707 
81 1 1 1.6441 0.356014 1.57702 0 0 0 2.94428 0.141137 -0.133954 1.52417 -0.298091 3.11732 -14.9325 -18.3816 -11.6379 0.03 347.578 
128 1 1 0.561883 0.395153 1.57945 0 0 0 2.38506 -0.0350939 0.226623 0 0 -2.77371 1.15577 -54.1706 -22.1797 0.03 309.605 
77 1 1 0.734664 0.408449 1.57683 0 0 0 1.93569 0.0157703 0.00188696 -0.00739803 -8.91194e-05 0.451578 -0.528513 -69.1509 1.43876 0.03 336.969 
101 1 1 0.960516 0.403269 1.57665 0 0 0 2.95113 0.0215857 0.00893198 -1.02211 0.293961 1.22444 -0.266167 -35.8658 4.46718 0.03 354.395 
122 1 1 1.38844 0.406845 1.57921 0 0 0 2.81302 0.0741892 0.184066 2.18146 -0.463178 0.665026 -3.75029 -39.7682 -8.33063 0.03 357.207 
30 1 1 1.48477 0.392908 1.5785 0 0 0 2.81145 -0.049898 -0.00483479 -1.12044 -0.168435 -3.28723 -3.01404 -36.2503 -3.34996 0.03 375.571 
167 1 1 1.54446 0.396741 1.57666 0 0 0 2.81598 -0.127946 0.008687 0.543787 0.141357 0.595658 4.61235 -39.7737 14.1161 0.03 349.731 
29 1 1 1.61769 0.412183 1.57686 0 0 0 3.14833 0.354707 -0.000778095 1.13538 -0.863105 0.0786844 -1.69633 -15.1202 0.898985 0.03 354.375 
289 1 1 0.0791481 0.412639 1.5768 0 0 0 0.345497 0.137131 0.0414617 0.826985 0.406505 -0.930725 -30.97 -68.7811 -8.11635 0.03 306.958 
245 1 1 0.199613 0.445362 1.59327 0 0 0 1.00352 0.679296 0.136701 0 0 -2.77371 -22.9534 -100.935 -2.54283 0.03 303.677 
148 1 1 0.284356 0.433612 1.57503 0 0 0 1.38844 0.0835583 0.0677505 25.7528 -25.966 -9.64083 0.554689 -92.2206 10.1687 0.03 318.818 
176 1 1 0.488382 0.413568 1.57556 0 0 0 2.63838 0.391209 0.467417 -1.73629 -8.40205 -0.875844 -11.4669 -48.3084 7.59546 0.03 316.49 
25 1 1 0.627999 0.444691 1.57892 0 0 0 1.83687 0.0934995 0.0985532 0 0 -2.77371 -2.84759 -72.9837 -18.2496 0.03 325.221 
170 1 1 1.21618 0.426195 1.57692 0 0 0 2.77005 -0.0109482 0.00631969 1.21513 -0.916299 -0.497693 0.384693 -41.095 -6.40377 0.03 339.201 
246 1 1 0.00352546 0.482503 1.58316 0 0 0 -0.609299 0.611989 -0.470054 0 0 -2.77371 -35.9317 43.2535 2.11049 0.03 300.179 
272 1 1 0.14239 0.482682 1.58849 0 0 0 1.26569 0.49001 0.321847 0 0 -2.77371 -14.8727 -98.6779 25.8327 0.03 304.138 
84 1 1 0.384152 0.454172 1.57706 0 0 0 1.62919 0.44526 0.000929966 -0.119728 -0.0019678 -2.53422 -14.8418 -79.9116 -7.56568 0.03 320.509 
116 1 1 0.443194 0.46641 1.57686 0 0 0 1.67319 0.508637 -0.0266032 0.951453 -1.73577 1.18516 14.6776 -60.495 -7.23326 0.03 340.298 
6 1 1 0.567021 0.463744 1.57584 0 0 0 1.86837 0.0446529 0.260984 10.0825 3.37254 -28.2006 -3.62814 -72.55 -4.82349 0.03 318.104 
135 1 1 0.868063 0.464763 1.57673 0 0 0 2.4409 -0.188782 -0.0251999 -0.0863761 -0.308834 2.01148 6.35593 -51.8908 -3.99272 0.03 352.668 
134 1 1 0.980776 0.459524 1.57692 0 0 0 2.76706 0.11189 -0.00271496 1.05609 0.859692 -0.432288 2.43089 11.9197 8.26023 0.03 309.529 
37 1 1 1.04134 0.465795 1.57807 0 0 0 2.80076 0.204061 -0.0340076 0 0 -2.77371 -6.74627 -34.9566 -3.84456 0.03 324.102 
69 1 1 1.10414 0.46239 1.57686 0 0 0 2.70419 0.0732211 -5.71742e-05 0.000217041 -1.2918e-05 0.00973799 -2.45069 -43.3707 -7.8673 0.03 365.746 
111 1 1 1.16671 0.459805 1.57684 0 0 0 2.77909 -0.00172799 0.00257161 0.27294 -0.0973815 -0.301128 1.46901 -38.3556 4.95183 0.03 333.413 
50 1 1 1.28745 0.449069 1.57647 0 0 0 3.0191 -0.082357 -0.415653 10.7449 -4.97399 -35.7773 1.8547 -20.422 2.75283 0.03 352.268 
163 1 1 1.36091 0.45971 1.57691 0 0 0 2.52161 -0.0936398 -0.0250332 -0.791303 1.76238 -1.54778 6.91236 -47.6347 19.3993 0.03 359.645 
131 1 1 1.44822 0.451595 1.57669 0 0 0 2.89877 -0.0521771 -0.0216362 -0.0547936 0.516751 -1.06486 1.68103 -36.6953 -6.19455 0.03 352.179 
39 1 1 1.5145 0.470649 1.57686 0 0 0 2.64768 -0.0911033 -0.000793046 0.00246684 0.000167853 0.0544424 3.04929 -45.263 -8.58186 0.03 356.833 
10 1 1 1.5749 0.463672 1.57688 0 0 0 2.63464 -0.20334 -0.0482304 0.0861279 0.0160078 1.93413 6.79535 -45.6214 -8.98573 0.03 375.442 
278 1 1 0.419128 0.516336 2.10255 0 0 0 -0 -0 -1 0 0 0 0 0 0 0.03 300 
279 1 1 0.206497 0.503404 1.57646 0 0 0 1.36549 -0.363757 0.192508 0.423058 -0.0487104 -2.41428 12.4845 -89.1422 -5.91489 0.03 307.114 
226 1 1 0.347897 0.505735 1.57648 0 0 0 1.66795 0.334383 0.0443477 0.0628809 -0.193838 -1.9497 -8.3875 -60.4397 0.714517 0.03 309.789 
160 1 1 0.695563 0.489041 1.57692 0 0 0 1.93218 0.13318 0.00295016 -0.0560662 -0.0249987 -1.05997 -4.43273 -69.1363 3.49012 0.03 344.671 
4 1 1 0.758299 0.492 1.57688 0 0 0 2.00479 0.072944 0.0566698 -0.123355 0.0097989 -2.79351 -2.44932 -66.8691 9.17394 0.03 323.428 
169 1 1 0.918521 0.49656 1.57696 0 0 0 2.30695 0.0246058 0.0179235 3.21299 1.87243 -0.501271 -0.811086 -56.7054 2.39152 0.03 342.348 
26 1 1 1.23821 0.48249 1.57669 0 0 0 2.9977 0.0443092 -0.0508416 2.21768 2.18572 4.79356 -5.98175 -24.8431 -6.17876 0.03 325.115 
145 1 1 1.46703 0.508267 1.57707 0 0 0 2.8064 -0.0157086 -0.0191006 0.3117 -0.0768969 -0.277425 -2.33783 -38.1353 13.6568 0.03 341.367 
303 1 1 0.0829538 0.548736 1.5798 0 0 0 0.583573 0.97115 0.41897 0 0 -2.77371 -33.1172 -117.751 -3.06458 0.03 303.576 
249 1 1 0.279304 0.541773 1.57597 0 0 0 1.39001 0.597256 -0.321656 -43.2792 26.9729 3.19764 30.8505 -1.67432 8.81749 0.03 305.79 
119 1 1 0.41214 0.546439 1.5755 0 0 0 1.81534 0.54799 -0.0050783 10.1798 16.4627 -5.35062 -15.4438 -72.1592 22.0891 0.03 344.147 
21 1 1 0.548441 0.523234 1.57776 0 0 0 1.95298 0.240552 -0.0208361 0 0 -2.77371 -8.0348 -68.3999 22.1475 0.03 325.515 
227 1 1 0.623266 0.551997 1.57687 0 0 0 2.80572 0.286319 0.223906 2.97231 2.23814 -10.2152 -16.9629 -30.258 -13.8344 0.03 309.45 
136 1 1 0.864947 0.524687 1.57681 0 0 0 2.62987 -0.172612 0.00563076 1.71207 -0.265677 0.691419 13.1935 1.85836 4.7171 0.03 320.106 
61 1 1 1.03233 0.525137 1.57684 0 0 0 2.28279 0.152774 -0.0241526 0.0953378 -0.0567982 1.45325 -5.98514 -57.3656 11.6088 0.03 348.096 
152 1 1 1.0938 0.541822 1.57576 0 0 0 2.45772 -0.00888555 0.234612 -0.943631 0.331807 3.18689 2.3893 -53.9294 -19.4845 0.03 363.586 
104 1 1 1.14822 0.51676 1.5771 0 0 0 2.50243 -0.069228 -0.0339909 -0.0947989 -0.351229 -1.88378 4.31942 -48.009 4.42506 0.03 344.467 
42 1 1 1.24566 0.54194 1.57681 0 0 0 2.81523 0.0115758 -0.00105659 1.13093 0.901416 0.953955 1.13256 -36.1883 14.2426 0.03 352.961 
121 1 1 1.30581 0.542565 1.57793 0 0 0 2.78705 -0.104415 -0.114445 0 0 -2.77371 2.53147 -35.8038 -25.0975 0.03 370.516 
63 1 1 1.368 0.540613 1.5768 0 0 0 2.48974 -0.0591877 0.00517865 -0.0960992 -0.0352634 0.0301847 1.9628 -50.6887 14.0138 0.03 373.302 
109 1 1 1.53127 0.529906 1.57679 0 0 0 2.97042 -0.114829 0.00901357 0.796125 0.0413795 0.366076 3.81289 -34.2134 6.36403 0.03 365.495 
103 1 1 1.59087 0.534509 1.57681 0 0 0 2.98157 0.0669198 0.0129956 1.15119 0.169828 0.147238 1.09865 -24.2124 2.00086 0.03 376.759 
172 1 1 1.64801 0.517253 1.57705 0 0 0 3.01355 0.0120505 -0.0181392 1.95925 -0.871677 -1.34204 14.421 -18.1026 -11.2492 0.03 368.903 
304 1 1 0.228546 0.571705 1.57958 0 0 0 1.06982 -0.0538482 0.133087 -4.39072 -3.85839 1.12526 0.1019 -106.374 -27.0002 0.03 315.743 
48 1 1 0.490608 0.560104 1.57683 0 0 0 1.84424 0.0613832 -0.0926861 0.945724 -0.597011 4.95366 -1.93849 -71.9085 15.185 0.03 317.686 
147 1 1 0.677775 0.575094 1.58699 0 0 0 2.79069 0.0800108 0.380297 -92.8158 -36.3145 -42.995 -47.4001 -18.5353 1.79008 0.03 324.281 
34 1 1 0.755454 0.558426 1.57685 0 0 0 2.27317 -0.330982 -0.0190412 0.107926 0.0203342 0.998656 11.0696 -57.751 -15.1777 0.03 327.969 
117 1 1 0.832261 0.574811 1.58403 0 0 0 2.43109 -0.20918 -0.214254 0.00487452 -0.724865 -1.21056 9.99711 -61.5429 -12.5805 0.03 336.039 
16 1 1 0.91503 0.565279 1.57631 0 0 0 2.24473 0.155785 0.0555747 -1.08975 -0.221313 6.08469 -5.48833 -45.8462 2.91291 0.03 351.52 
118 1 1 0.974247 0.564723 1.57784 0 0 0 2.32898 -0.133216 0.0797561 -1.95856 -1.26112 -4.19217 -1.40217 -46.1808 -3.04099 0.03 347.474 
105 1 1 1.18782 0.566058 1.57682 0 0 0 2.69904 -0.0205649 0.0436204 0.643926 0.384974 -1.36169 -8.51656 -27.6919 -10.9331 0.03 326.644 
158 1 1 1.46869 0.567943 1.57698 0 0 0 2.85538 -0.017202 -0.00946523 0.250628 -0.0942149 -0.0335437 0.640642 -38.7534 -15.2573 0.03 366.686 
72 1 1 0.440776 0.591193 1.60046 0 0 0 1.82842 0.571848 0.655457 3.93133 7.21556 6.01055 -25.168 -30.6227 -73.8927 0.03 325.026 
317 1 1 0.2526 0.126923 1.63895 0 0 0 0.897852 -0.596471 0.835881 0 0 -2.77371 56.5987 -33.1127 41.8079 0.03 303.474 
114 1 1 0.555128 0.148408 1.61497 0 0 0 1.89669 0.224211 -0.253682 0 0 -2.77371 6.55125 -56.7257 18.3396 0.03 331.159 
281 1 1 0.704683 0.149483 1.61317 0 0 0 1.70779 -0.00137424 -0.141739 -10.8987 1.35893 -3.88769 4.01767 -25.9602 31.6443 0.03 306.779 
58 1 1 0.920147 0.159511 1.60332 0 0 0 2.55047 0.0574738 -0.0578979 0.725522 1.42782 -0.102052 18.1837 -14.0543 30.3246 0.03 354.645 
87 1 1 1.34679 0.150735 1.61232 0 0 0 2.34767 -0.0178665 0.0484437 0.26373 -4.89324 5.44676 1.5606 -28.1857 48.522 0.03 346.331 
171 1 1 0.758768 0.164834 1.62927 0 0 0 2.06965 0.191336 -0.580133 19.3351 -2.95816 23.7515 -3.27902 39.3389 -28.146 0.03 300.348 
305 1 1 0.369481 0.203481 1.64453 0 0 0 0.970817 -0.685313 1.1506 -0.0287514 1.70504 -3.34237 -14.2031 9.21403 -3.32133 0.03 300.427 
351 1 1 0.208563 0.250264 1.60671 0 0 0 0.729498 0.32156 -0.0906384 0 0 -2.77371 -11.049 43.0752 6.24595 0.03 300.212 
231 1 1 0.394468 0.256604 1.63383 0 0 0 0.557514 -0.452985 0.448783 0.164974 -2.01854 4.61245 7.75967 19.3252 1.64257 0.03 300.384 
252 1 1 0.482092 0.237901 1.63405 0 0 0 1.51594 -0.71318 0.424432 0 0 -2.77371 3.8688 3.03382 5.14753 0.03 300.138 
146 1 1 1.07255 0.249341 1.61015 0 0 0 2.34607 -0.00992282 -0.00418314 0.0106551 -0.0256226 -2.72827 -0.412226 61.4804 -9.98803 0.03 304.021 
46 1 1 1.3484 0.236846 1.62078 0 0 0 2.33549 0.071292 -0.42972 0 0 -2.77371 -25.3771 38.5119 -16.7123 0.03 301.193 
180 1 1 0.33359 0.275053 1.63407 0 0 0 -0.0670776 -0.795493 0.00329436 0 0 -2.77371 -10.0058 34.3035 15.1356 0.03 302.219 
181 1 1 0.569772 0.290726 1.62545 0 0 0 1.55192 0.396956 -0.0100819 0.627981 -2.095 -2.13117 -26.0457 -9.34509 14.3519 0.03 300.722 
225 1 1 0.830069 0.298192 1.61537 0 0 0 2.19701 0.159983 0.293087 8.81873 0.407963 15.3312 3.11176 55.7119 0.463921 0.03 300.842 
44 1 1 0.997485 0.280379 1.62569 0 0 0 2.12247 -0.106628 0.0653208 -0.915776 -0.0840988 -1.45567 23.5568 48.2593 18.3336 0.03 301.837 
7 1 1 1.17669 0.278548 1.60662 0 0 0 2.48751 0.203795 -0.204443 0.878883 -0.00499782 -1.45631 13.4955 57.2814 -11.4078 0.03 302.961 
155 1 1 1.26312 0.274468 1.62507 0 0 0 2.38338 0.390253 0.161307 0.050426 0.15338 -1.87878 -7.49886 40.5736 17.8231 0.03 302.372 
73 1 1 0.232593 0.308125 1.6366 0 0 0 -0.155044 -0.0229448 0.300789 0 0 -2.77371 -34.0889 60.9292 -0.414955 0.03 301.063 
209 1 1 0.390322 0.324357 1.60672 0 0 0 0.876664 -0.354993 -1.04118 17.0926 -5.98456 -8.87911 -15.2463 -20.1546 -0.655511 0.03 300.545 
71 1 1 0.483209 0.33947 1.60399 0 0 0 1.80682 0.251417 0.0807019 -17.1321 -4.40419 6.06318 -50.0482 41.4364 23.125 0.03 302.519 
68 1 1 0.62848 0.312545 1.62803 0 0 0 1.71399 -0.470482 0.125221 0 0 -2.77371 30.1022 46.1697 -4.14162 0.03 300.806 
204 1 1 0.191666 0.353864 1.63695 0 0 0 0.0536556 0.266948 0.280352 0 0 -2.77371 5.67884 41.4751 -5.35856 0.03 300.225 
270 1 1 0.249363 0.40965 1.61718 0 0 0 1.03371 0.423161 -1.0581 -25.6579 -7.5375 0.43203 -16.4783 20.0691 4.83727 0.03 300.308 
254 1 1 0.446621 0.385708 1.62115 0 0 0 1.33671 0.189863 0.62465 16.1957 4.73038 40.3324 -15.1716 19.7643 10.327 0.03 300.258 
268 1 1 0.587254 0.412993 1.63818 0 0 0 1.70927 0.470599 1.15484 0 0 -2.77371 -35.7909 14.651 -0.0812511 0.03 300.296 
153 1 1 0.994852 0.386166 1.62237 0 0 0 2.7347 -0.156056 0.120219 1.2125 -0.842364 -0.600379 18.3251 21.2497 9.7596 0.03 302.779 
190 1 1 0.315564 0.442953 1.62349 0 0 0 0.363851 -0.112424 -0.136052 -11.906 1.81358 -22.7849 -5.90649 40.2623 12.0522 0.03 300.611 
335 1 1 0.50532 0.423047 1.63086 0 0 0 1.44211 0.667137 1.24159 -3.75644 -28.0491 -2.63797 3.38714 6.98498 15.8085 0.03 300.25 
92 1 1 1.53454 0.435155 1.62118 0 0 0 2.75772 -0.0133302 -0.0817584 -0.000438766 1.48385 0.21489 -11.7626 46.4043 -3.57157 0.03 302.53 
239 1 1 0.587501 0.481882 1.62849 0 0 0 1.46261 0.380984 -0.449188 -11.2753 1.02919 37.342 -7.99447 50.4204 9.70924 0.03 300.113 
102 1 1 0.654204 0.468712 1.63159 0 0 0 1.51181 0.560104 0.437461 0 0 -2.77371 -23.0486 50.7706 4.54409 0.03 300.973 
130 1 1 1.3212 0.453624 1.62328 0 0 0 2.04616 -0.0666806 -0.266466 23.499 4.86483 66.939 -2.27133 0.725249 -2.83893 0.03 300.603 
151 1 1 1.4751 0.470318 1.62658 0 0 0 2.87066 -0.0383106 -0.0603737 1.05383 -0.309881 1.59965 -1.04679 34.9952 5.96108 0.03 305.37 
157 1 1 1.62346 0.463924 1.61495 0 0 0 2.79308 -0.33957 -0.116663 0 0 -2.77371 -13.1038 50.4147 -2.43616 0.03 305.988 
237 1 1 0.226543 0.508946 1.63213 0 0 0 0.409454 0.594468 0.653919 -0.0298696 0.154037 -2.31904 -49.6026 52.3987 -1.13688 0.03 300.057 
263 1 1 0.293756 0.494766 1.60774 0 0 0 0.580477 -0.0577878 -0.6759 6.24432 19.2353 20.6329 -12.2363 -24.9179 -30.9792 0.03 300.055 
28 1 1 0.385784 0.499677 1.62167 0 0 0 1.06315 0.123754 0.556728 -5.25126 -8.44581 -9.37447 23.2167 32.8707 5.61352 0.03 301.466 
265 1 1 0.500679 0.481778 1.62915 0 0 0 0.488164 0.253509 -0.471789 0.871857 29.4684 10.4803 9.63039 -8.70652 1.50802 0.03 300.201 
20 1 1 1.0955 0.503142 1.62048 0 0 0 1.81478 -0.321078 0.0880275 0.6433 -4.73676 6.10627 9.64317 36.7892 6.84579 0.03 302.077 
224 1 1 0.433816 0.532922 1.62812 0 0 0 0.794313 0.44961 0.144941 7.2213 -9.05002 0.435778 37.8812 21.9364 18.2614 0.03 301.083 
243 1 1 0.596145 0.542564 1.63219 0 0 0 0.594958 0.409771 -0.117138 0 0 -2.77371 20.1687 -45.0273 -0.189969 0.03 300.081 
106 1 1 0.706027 0.523373 1.63155 0 0 0 1.71822 0.432622 -0.079867 0 0 -2.77371 -4.14629 55.7545 -4.05663 0.03 301.916 
98 1 1 1.01168 0.541081 1.63247 0 0 0 1.87828 -0.0373842 -0.00373048 2.05225 -3.91717 -0.0966625 7.28736 43.6244 0.0912688 0.03 301.471 
9 1 1 1.41912 0.530136 1.60608 0 0 0 2.65696 -0.0360127 -0.263208 0.557709 -0.0648408 -1.95289 9.72833 54.5375 -5.31293 0.03 309.031 
55 1 1 0.324776 0.555676 1.61084 0 0 0 0.577414 0.316489 -0.979889 64.8745 -39.0316 27.896 41.222 26.5184 4.22519 0.03 301.137 
2 1 1 1.06429 0.574231 1.628 0 0 0 2.30463 -0.386019 -0.299338 3.17535 -0.129071 -0.474823 -10.4328 -13.6072 -6.18975 0.03 316.28 
301 1 1 0.126273 0.618432 1.63253 0 0 0 0.475694 -0.103528 0.14386 0 0 -2.77371 8.50714 -29.9181 -29.8952 0.03 303.358 
326 1 1 0.327441 0.617884 1.62773 0 0 0 1.27702 0.229346 0.0895131 0 0 -2.77371 -15.3151 -124.904 -4.22814 0.03 320.739 
65 1 1 0.719293 0.602922 1.61608 0 0 0 1.73889 0.374417 -0.643282 92.8158 36.3145 37.4476 -12.9493 2.79925 -7.80561 0.03 300.577 
17 1 1 0.802123 0.613858 1.6227 0 0 0 1.98349 -0.31074 -0.338927 3.3388 -1.30249 4.28483 11.2748 -35.1988 -57.1253 0.03 321.294 
75 1 1 0.90032 0.609599 1.61877 0 0 0 1.91694 -0.338948 -0.338975 0.528879 -0.80275 -0.803569 -1.58689 -35.7414 -46.8425 0.03 317.679 
79 1 1 1.0116 0.596497 1.61094 0 0 0 2.41827 0.013726 -0.036532 4.23599 5.63664 -2.3572 -25.2181 29.7581 -12.8049 0.03 321.432 
156 1 1 1.11552 0.590569 1.60136 0 0 0 2.48588 0.153424 0.334161 1.24605 3.1393 1.57027 -18.0198 -43.8078 -23.3252 0.03 344.877 
18 1 1 1.23249 0.594342 1.60489 0 0 0 2.68642 0.0250319 0.098537 -0.0342565 -0.0316234 -2.7764 -6.60003 -30.0674 -30.0632 0.03 318.615 
137 1 1 0.45786 0.11531 1.64763 0 0 0 0.973703 0.566474 -0.566475 1.06208e-06 0.988769 -0.988776 -26.7907 -66.8675 76.2571 0.03 327.336 
333 1 1 0.536012 0.0904834 1.67277 0 0 0 1.90466 -0.0240544 0.34796 0 0 -2.77371 11.5932 -35.6279 41.5293 0.03 303.462 
115 1 1 0.828121 0.105753 1.65719 0 0 0 1.97865 0.270221 -0.270105 -0.00038458 0.984447 -0.993088 -12.7762 -31.6438 63.9527 0.03 321.2 
165 1 1 1.20317 0.127737 1.63521 0 0 0 2.0562 0.66574 -0.665741 1.06539e-06 0.98877 -0.988774 -31.4853 -25.8599 66.0695 0.03 327.166 
62 1 1 0.362659 0.137793 1.63315 0 0 0 0.5442 -0.053165 -0.338756 0 0 -2.77371 0.433575 -97.6327 53.674 0.03 303.391 
139 1 1 0.60219 0.129305 1.64825 0 0 0 1.67971 0.124632 0.201106 0 0 -2.77371 25.5648 -50.9584 22.519 0.03 336.743 
49 1 1 0.961391 0.136471 1.64012 0 0 0 2.71385 0.243657 -0.117352 0.303478 -0.0211166 -2.26764 2.57582 -28.0564 30.9432 0.03 310.149 
307 1 1 0.442256 0.194049 1.65494 0 0 0 0.68859 -0.239997 1.11079 0 0 -2.77371 -18.9452 10.1548 -38.4108 0.03 300.618 
74 1 1 0.507697 0.183022 1.63786 0 0 0 1.03318 -0.335417 -0.273158 -7.49924 -18.3407 14.5727 -0.457488 36.215 8.48802 0.03 302.227 
43 1 1 0.862662 0.170504 1.63779 0 0 0 1.58059 -0.141038 -0.715427 0 0 -2.77371 2.92271 36.0863 3.13353 0.03 300.744 
332 1 1 0.213769 0.203108 1.64611 0 0 0 -0.0401877 -0.849442 -0.684528 0 0 -2.77371 20.1452 -32.6525 -23.8385 0.03 300.005 
283 1 1 0.297045 0.204787 1.64199 0 0 0 -0.308401 -0.795736 -0.824005 0 0 -2.77371 18.5843 -58.9437 6.64162 0.03 300.005 
319 1 1 0.54828 0.233937 1.63891 0 0 0 1.24904 -0.0356396 -0.802416 0 0 -2.77371 15.8777 13.0898 3.43627 0.03 300.017 
322 1 1 0.655805 0.244147 1.64769 0 0 0 1.5662 0.0786087 0.198042 0 0 -2.77371 -19.7033 41.4346 -15.7077 0.03 300.698 
338 1 1 0.479222 0.30138 1.65283 0 0 0 0.928341 0.339239 -0.55111 0 0 -2.77371 -53.2359 19.4295 33.0208 0.03 300.001 
347 1 1 0.351858 0.332294 1.66233 0 0 0 0.142563 0.0346454 -0.521525 0 0 -2.77371 -7.59363 8.55382 22.3222 0.03 300.023 
216 1 1 0.425228 0.335561 1.65365 0 0 0 0.262789 -0.16958 -0.557633 2.47228 -0.766854 -0.574201 20.4472 -1.27617 2.16316 0.03 300.006 
187 1 1 0.779725 0.323321 1.64221 0 0 0 2.52144 0.343417 -0.349207 0 0 -2.77371 30.1105 -22.801 -13.0466 0.03 300.361 
331 1 1 0.276629 0.349362 1.62582 0 0 0 -0.0680111 -0.0745908 -0.928587 -17.9562 -12.8931 59.7895 3.72123 12.1456 -0.982838 0.03 300.032 
233 1 1 0.551399 0.350483 1.64586 0 0 0 0.721761 0.397245 -0.98686 0 0 -2.77371 2.51613 -14.1109 2.04651 0.03 300.005 
346 1 1 0.337217 0.38888 1.64094 0 0 0 0.708629 0.00595694 -0.715901 5.57159 6.27691 12.2202 5.94437 -25.5107 1.10081 0.03 300.013 
308 1 1 0.14362 0.411827 1.63089 0 0 0 0 0 -3.02758 0 0 -2.77371 0 0 0 0.03 300 
178 1 1 0.378316 0.433044 1.64051 0 0 0 0.723318 -0.0383143 -1.59723 0 0 -2.77371 -2.26466 -33.9235 2.24954 0.03 300.036 
352 1 1 0.437081 0.445191 1.63753 0 0 0 0.657204 0.275001 -0.0478173 0.0759845 0.60236 -1.47929 25.3475 44.0376 -5.36504 0.03 301.239 
296 1 1 0.768824 0.477582 1.65193 0 0 0 1.7062 0.105685 0.150052 0 0 -2.77371 11.2556 44.8557 12.3467 0.03 300.706 
262 1 1 0.437432 0.491991 1.6749 0 0 0 0.800524 -0.158229 0.629709 -0.0759845 -0.60236 -4.06814 -21.6041 -48.8738 -1.42109 0.03 300.03 
149 1 1 1.23704 0.500032 1.63816 0 0 0 2.49444 0.00879472 -0.0195925 0 0 -2.77371 13.959 12.0191 14.8513 0.03 301.294 
271 1 1 0.305397 0.525871 1.65951 0 0 0 -0.0746248 0.00433021 -1.05614 0 0 -2.77371 -31.7506 -37.421 -10.1727 0.03 300.007 
217 1 1 0.479638 0.539369 1.66266 0 0 0 1.20084 0.453604 0.24882 29.4796 7.40029 18.1512 -28.2886 -12.6278 -7.55877 0.03 300.018 
276 1 1 0.38551 0.565373 1.63729 0 0 0 0.542436 0.236433 -0.262374 -13.3088 8.55176 8.50981 -3.79093 10.3525 -6.71258 0.03 300.423 
150 1 1 0.785507 0.558901 1.63875 0 0 0 1.29674 -0.17006 -0.346197 -1.5726 -1.63262 -2.29527 -12.4157 25.2567 23.9157 0.03 301.04 
52 1 1 0.494402 0.591335 1.63326 0 0 0 0.516777 0.423828 -0.658295 0 0 -2.77371 12.7518 10.4573 14.4774 0.03 300.75 
154 1 1 0.532135 0.64226 1.65134 0 0 0 1.73242 -0.0250282 0.0407958 0.253982 -0.38453 -1.83142 -2.35697 -35.783 -70.0174 0.03 310.347 
57 1 1 0.591347 0.624675 1.63415 0 0 0 1.62521 -0.506052 -0.659974 0 0 -2.77371 13.3024 -6.89543 -6.13628 0.03 321.349 
89 1 1 0.653158 0.630245 1.63943 0 0 0 1.73859 -0.118474 -0.0965319 -0.118825 -0.634028 -1.6616 5.17081 -45.6525 -61.293 0.03 321.698 
138 1 1 0.708609 0.649272 1.66184 0 0 0 1.72738 0.332977 -0.483836 0 0 -2.77371 -32.6659 50.8145 40.7538 0.03 300.398 
99 1 1 0.969044 0.629386 1.63858 0 0 0 1.9771 -0.241732 -0.255581 -0.103433 -0.99363 -0.765141 11.7197 -57.7858 -38.168 0.03 333.721 
76 1 1 0.642271 0.090253 1.67295 0 0 0 2.08477 0.0929848 -0.107397 0.12103 0.158027 -2.58336 10.5073 31.8642 8.13902 0.03 307.741 
194 1 1 0.236118 0.281361 1.69429 0 0 0 -0.132817 0.362141 -0.849157 -56.4866 46.5095 -88.3889 45.3147 -8.43573 2.57791 0.03 300.014 
193 1 1 0.296672 0.28695 1.68283 0 0 0 0.168633 -0.0738206 0.163425 0 0 -2.77371 26.5325 -38.638 8.56726 0.03 300.046 
197 1 1 0.184039 0.31391 1.68109 0 0 0 -0.125122 -0.452348 -0.301116 0 0 -2.77371 25.1623 -40.148 -6.2735 0.03 300.002 
285 1 1 0.199815 0.385015 1.68764 0 0 0 -0.0467208 -0.0771399 -0.502486 0 0 -2.77371 24.2551 -49.6076 -0.401876 0.03 300.003 
295 1 1 0.369201 0.385904 1.69637 0 0 0 0.238815 0.610989 -0.572538 -3.17104 0.537605 -2.29447 -7.7879 3.17325 -20.8932 0.03 300 
334 1 1 0.422437 0.398249 1.67226 0 0 0 0.690025 0.122986 0.234886 2.83884 15.7391 44.9961 7.88315 -35.0626 -1.2784 0.03 300.009 
341 1 1 0.481581 0.395172 1.67801 0 0 0 0.601681 -0.406966 0.613741 9.24632 3.82367 -3.94287 30.5579 -42.5504 -5.34375 0.03 300.002 
255 1 1 0.114307 0.478097 1.6537 0 0 0 0 0 -2.95273 0 0 -2.77371 0 0 0 0.03 300 
208 1 1 0.278367 0.449415 1.6694 0 0 0 -0.102653 0.160786 -2.06507 26.2067 -4.56022 71.2295 -11.8922 -18.9186 3.3052 0.03 300 
220 1 1 0.336557 0.446648 1.68146 0 0 0 -0.0576451 0.18127 -1.94546 2.06723 -0.15262 5.47036 -1.72915 5.91336 -5.10778 0.03 300 
201 1 1 0.376259 0.495844 1.67984 0 0 0 0.60085 0.142199 0.309337 2.27054 5.93386 -93.762 -0.00763219 -57.3906 -22.8451 0.03 300.023 