ITEM: TIMESTEP
56000
ITEM: NUMBER OF ATOMS
353
ITEM: BOX BOUNDS ff ff ff
0 3.3
-0.3 0.8
-0.5 3
ITEM: ATOMS id type type x y z ix iy iz vx vy vz fx fy fz omegax omegay omegaz radius f_Temp[0] 
139 1 1 0.161566 0.196025 1.59295 0 0 0 0.760015 -0.620929 0.333537 0 0 -2.77371 21.0053 -109.277 4.9273 0.03 303.789 
15 1 1 0.264266 0.18488 1.57943 0 0 0 2.06101 -0.377586 0.429902 0 0 -2.77371 12.7754 -65.3655 6.62378 0.03 306.108 
108 1 1 0.492961 0.191305 1.57612 0 0 0 1.67041 0.132692 -0.0297312 -1.6257 1.17743 15.0574 -3.1237 -77.9075 27.2629 0.03 343.327 
47 1 1 0.717208 0.180503 1.58246 0 0 0 2.12552 0.0508417 -0.0564212 0.0165499 0.972157 -0.981509 -2.54958 -78.2276 10.3916 0.03 325.081 
67 1 1 0.783413 0.187664 1.57721 0 0 0 2.26323 -0.195387 0.0140738 0 0 -2.77371 6.49679 -58.0398 1.76067 0.03 319.191 
85 1 1 0.838451 0.170324 1.59696 0 0 0 2.32937 -0.265029 0.271277 0 0 -2.77371 -1.50697 -47.8566 6.16047 0.03 307.135 
120 1 1 0.357461 0.214535 1.58395 0 0 0 1.38914 -0.303287 0.110402 5.26803 -8.31572 2.45468 14.5435 -90.2477 -1.78675 0.03 324.837 
112 1 1 0.55996 0.217127 1.57685 0 0 0 2.1434 -0.0578116 -0.0559221 1.29062 2.50021 2.85363 -22.7987 -49.373 -26.274 0.03 324.865 
60 1 1 0.635583 0.223316 1.57905 0 0 0 2.29748 0.00429218 -0.159832 0 0 -2.77371 -0.154537 -57.0567 18.3092 0.03 312.912 
45 1 1 0.882011 0.215859 1.57685 0 0 0 2.94437 -0.430283 0.0082066 1.25951 0.412959 -0.122756 -3.65244 19.7344 -21.0806 0.03 312.299 
58 1 1 0.249909 0.254872 1.57482 0 0 0 1.14274 -0.56399 0.20452 -19.8847 1.08455 5.92423 18.5572 -100.789 1.02801 0.03 319.96 
41 1 1 0.460284 0.262572 1.5769 0 0 0 1.5868 -0.0111301 -0.0267266 0.943249 1.29001 0.531256 -3.98242 -77.481 6.35323 0.03 324.818 
142 1 1 0.768647 0.249564 1.57686 0 0 0 2.16153 -0.150636 4.88652e-05 -0.000169161 -1.60714e-05 0.0045691 5.04183 -61.5342 -9.75487 0.03 330.355 
8 1 1 0.959448 0.240645 1.5768 0 0 0 2.47026 -0.309082 0.0490186 -0.146308 -0.0292389 -1.25068 10.3672 -51.3094 3.30632 0.03 316.866 
13 1 1 0.340632 0.270916 1.57777 0 0 0 1.41165 -0.24586 -0.0615448 -5.26803 8.31572 -8.0021 25.0084 -79.3874 21.6393 0.03 331.031 
59 1 1 0.587415 0.274339 1.57746 0 0 0 2.27874 -0.0529244 -0.292324 -35.8464 -9.65083 -60.3846 0.920548 -49.4145 15.3489 0.03 314.554 
86 1 1 0.711623 0.269382 1.57686 0 0 0 2.12884 -0.211942 0.00100138 -0.0038914 -0.000442062 0.0410523 7.09469 -62.6366 -4.85357 0.03 333.819 
124 1 1 0.498529 0.308551 1.577 0 0 0 1.55735 0.0807957 -0.117454 2.51496 0.65226 2.3431 -7.60377 -61.1614 -1.19781 0.03 322.265 
23 1 1 0.800681 0.31797 1.57651 0 0 0 2.26917 -0.337707 -0.00442264 -0.228263 0.0667889 7.48737 11.3749 -59.0302 -14.0274 0.03 329.625 
96 1 1 0.860451 0.320521 1.57691 0 0 0 2.27451 -0.348797 0.00245924 1.08586 -0.000891762 -0.351384 11.6673 -57.722 -1.14138 0.03 316.486 
14 1 1 1.06493 0.326404 1.57686 0 0 0 2.42075 0.0677053 -3.03776e-08 9.73112e-08 -4.17191e-09 -1.56824e-06 -2.26609 -52.8573 -2.54476 0.03 332.115 
3 1 1 0.0928301 0.342498 1.58055 0 0 0 -0.254837 -0.125019 -1.1887 -5.1383 30.2103 -19.8421 -3.17611 -85.9672 6.296 0.03 303.523 
101 1 1 0.238811 0.360202 1.57782 0 0 0 0.8804 0.469104 0.0663818 0 0 -2.77371 -16.5633 -105.38 17.5266 0.03 319.033 
64 1 1 0.332523 0.349793 1.57989 0 0 0 1.066 -0.331579 -0.117303 0 0 -2.77371 10.8964 -98.041 -10.6386 0.03 327.195 
143 1 1 0.443992 0.37231 1.57551 0 0 0 1.78001 0.231478 0.259246 -1.30468 -4.76563 -27.4488 -5.62475 -76.9222 16.2305 0.03 313.656 
29 1 1 0.569665 0.345952 1.57672 0 0 0 2.27392 -0.0801648 -0.737864 38.3099 26.463 48.0499 -13.6767 -38.1216 4.6783 0.03 306.06 
81 1 1 0.638117 0.341463 1.57953 0 0 0 2.07718 0.0525965 0.0212013 0 0 -2.77371 -1.42617 -65.0381 -15.9386 0.03 307.925 
82 1 1 0.951762 0.352622 1.57686 0 0 0 1.8063 -0.148108 -4.03642e-07 1.6039e-06 1.08319e-07 -5.91226e-05 4.95715 -73.423 2.87889 0.03 324.979 
50 1 1 0.386319 0.405816 1.57683 0 0 0 1.82721 -0.0540349 0.130177 0.814499 3.77963 -20.0143 0.00231308 -77.5943 -14.2004 0.03 308.613 
122 1 1 0.501964 0.390704 1.57827 0 0 0 1.96782 0.18351 -0.000918648 0 0 -2.77371 -7.15534 -64.0884 -8.17195 0.03 327.654 
167 1 1 0.597332 0.399028 1.57898 0 0 0 2.13098 0.102905 0.0347764 -1.94589 -1.45129 -3.1684 -12.718 -60.0073 22.764 0.03 304.16 
135 1 1 0.161196 0.428243 1.57887 0 0 0 0.762394 -0.137071 0.297375 0 0 -2.77371 4.4905 -108.754 -11.0466 0.03 307.148 
69 1 1 0.26194 0.4205 1.58145 0 0 0 2.01478 0.39022 0.294416 0 0 -2.77371 -13.7434 -66.7014 31.7139 0.03 323.587 
131 1 1 0.438872 0.433918 1.58144 0 0 0 1.69097 0.250945 0.341851 -9.53259 -16.9022 -4.06427 1.95287 38.774 19.5248 0.03 304.402 
30 1 1 0.536379 0.442145 1.57667 0 0 0 1.54695 -0.125197 -0.204125 -7.14336 7.17032 -24.6375 2.4254 -73.1672 -4.76273 0.03 343.278 
36 1 1 0.76488 0.444704 1.57686 0 0 0 2.3045 0.169441 0.000751644 1.32199 0.385259 -0.0197399 -12.6562 -32.7809 3.40092 0.03 312.979 
32 1 1 0.836951 0.437129 1.57687 0 0 0 1.81014 0.022738 -0.000945573 0.00407958 -4.23581e-05 -0.0609048 -0.76091 -73.2822 -5.21338 0.03 321.244 
174 1 1 0.993529 0.416863 1.57686 0 0 0 2.54453 -0.11284 -1.05142e-06 -0.00142446 0.000579428 2.39278e-05 3.77652 -48.7152 2.83466 0.03 326.059 
42 1 1 0.329484 0.478167 1.57509 0 0 0 1.76112 0.699645 -0.135646 28.6458 32.6029 3.16717 -23.2641 -84.675 -9.66649 0.03 309.705 
10 1 1 0.639565 0.451986 1.57703 0 0 0 2.05348 0.263802 0.0164463 -0.0375539 0.00635511 -2.84689 -8.81398 -65.0409 10.4945 0.03 334.157 
54 1 1 0.696842 0.469958 1.57744 0 0 0 2.11129 -0.129489 -0.123953 0.423122 -1.84421 -1.78942 8.13829 -59.4704 -6.62218 0.03 322.486 
61 1 1 0.244961 0.496657 1.5913 0 0 0 0.857314 0.37916 0.116326 0 0 -2.77371 -12.2794 -105.721 0.126792 0.03 310.838 
163 1 1 0.407322 0.496409 1.57511 0 0 0 1.57915 0.30053 0.0964729 0.0178963 -0.0824197 10.38 -8.32051 -87.1183 -28.6154 0.03 318.9 
39 1 1 0.589553 0.512767 1.58139 0 0 0 1.77554 -0.343914 0.0874511 0 0 -2.77371 16.1832 -69.332 2.62501 0.03 316.477 
66 1 1 0.741513 0.512421 1.57817 0 0 0 1.95638 0.0615657 -0.13738 0 0 -2.77371 -0.451211 -64.6975 -8.82759 0.03 309.393 
168 1 1 0.809307 0.507943 1.57684 0 0 0 1.74392 -0.0717292 -0.000662175 0.00533776 0.000169717 0.419342 2.40221 -75.5562 10.3515 0.03 311.496 
100 1 1 0.88141 0.48745 1.57686 0 0 0 1.87287 0.0290348 9.79407e-05 -0.000441801 6.03045e-06 0.00115098 -0.971802 -71.1957 -5.29887 0.03 328.427 
16 1 1 0.183714 0.522262 1.57947 0 0 0 1.15935 0.295358 0.166095 0 0 -2.77371 -10.5137 -95.3012 18.8678 0.03 309.102 
63 1 1 0.495152 0.518462 1.57663 0 0 0 1.80241 0.706071 -0.182888 12.6021 31.451 -13.151 -15.6361 -75.4078 7.48425 0.03 330.092 
162 1 1 0.682858 0.527769 1.57648 0 0 0 1.82184 -0.0685877 0.0055256 2.53698 -2.81205 7.27701 21.1531 -61.5254 17.7481 0.03 319.629 
121 1 1 0.387144 0.556462 1.57891 0 0 0 2.0096 0.708566 -0.131212 0 0 -2.77371 -15.5525 -60.567 16.3492 0.03 318.589 
158 1 1 0.497455 0.579289 1.58948 0 0 0 1.82657 -0.202979 0.080328 0 0 -2.77371 2.29251 -26.0874 -77.0599 0.03 312.314 
109 1 1 0.567324 0.568545 1.57786 0 0 0 2.11732 -0.140405 -0.107985 -0.0275997 0.17299 -2.83582 4.45937 -62.2839 -27.2806 0.03 319.349 
103 1 1 0.6334 0.561998 1.57684 0 0 0 1.79785 -0.211251 -0.0138376 0.157934 0.00436194 0.97243 7.07463 -73.6626 -46.1684 0.03 333.799 
113 1 1 0.901497 0.56271 1.57709 0 0 0 1.86513 -0.292431 0.0123967 -0.0790824 -0.0106535 -3.01224 9.76373 -71.252 -11.9526 0.03 332.099 
87 1 1 0.527524 0.146414 1.61853 0 0 0 1.68782 -0.113291 0.174414 0 0 -2.77371 6.6493 -12.5758 57.6482 0.03 310.725 
173 1 1 0.457406 0.210115 1.61961 0 0 0 0.624426 -0.816695 -0.294995 -1.78659 0.698063 3.75861 12.4924 52.9333 16.7502 0.03 300.692 
76 1 1 0.283385 0.243888 1.6198 0 0 0 0.475013 -1.0557 0.946726 18.7456 -11.2005 26.1492 -5.95289 69.8977 -15.1468 0.03 300.861 
12 1 1 0.123298 0.296049 1.60063 0 0 0 -0.788921 0.0949436 -1.61467 12.2089 -26.2614 26.7272 -19.9766 -64.5693 -3.74226 0.03 300.003 
46 1 1 0.623023 0.277784 1.62363 0 0 0 0.993584 -0.204556 -0.329675 35.8464 9.65083 54.8372 -4.11471 13.934 -23.1432 0.03 300.442 
91 1 1 0.262446 0.311083 1.60846 0 0 0 0.511364 0.0973646 0.326646 0 0 -2.77371 23.4148 56.4593 -10.9034 0.03 301.051 
144 1 1 0.449323 0.324941 1.6117 0 0 0 1.47081 0.0344464 -1.22159 4.61644 -4.94447 35.8708 15.176 -15.2601 37.6435 0.03 300.097 
132 1 1 0.135429 0.36028 1.61862 0 0 0 -0.304159 -0.0215411 -0.204379 -7.0706 -3.9489 -15.2062 28.737 73.509 13.0932 0.03 300.205 
159 1 1 0.594163 0.348601 1.63091 0 0 0 1.63487 0.215881 0.0400193 -6.00036 0.148462 -10.3056 10.3437 5.3285 8.65388 0.03 300.041 
77 1 1 0.231539 0.37843 1.63493 0 0 0 0.370355 -0.992612 0.227846 0 0 -2.77371 59.2622 11.174 -33.6475 0.03 300.319 
20 1 1 0.454359 0.396478 1.62774 0 0 0 0.964689 0.908633 0.426605 2.6529 15.1351 2.63574 -17.3156 45.5235 -15.4398 0.03 300.404 
133 1 1 0.88188 0.391206 1.61787 0 0 0 1.45209 0.340449 -1.12543 0 0 -2.77371 -5.42725 -57.2091 -15.3957 0.03 303.944 
160 1 1 0.115232 0.435564 1.63028 0 0 0 0 0 -3.02954 0 0 -2.77371 0 0 0 0.03 300 
104 1 1 0.376772 0.433507 1.62834 0 0 0 0.668749 0.863658 -0.597862 -23.3815 -22.0625 -43.1938 -28.6342 27.2676 5.9137 0.03 300.082 
145 1 1 0.483769 0.467012 1.60064 0 0 0 1.58148 0.844122 -0.536559 -6.22664 -33.4044 26.4764 11.4358 7.23643 19.9115 0.03 300.861 
151 1 1 0.58466 0.449836 1.6093 0 0 0 1.07216 0.529003 -0.528762 24.6852 -3.75038 36.3042 -21.5236 34.5775 0.828062 0.03 300.256 
34 1 1 0.171703 0.485411 1.63275 0 0 0 0.335301 -0.0638462 0.422566 0 0 -2.77371 18.188 49.3274 1.84718 0.03 300.119 
27 1 1 0.354457 0.488677 1.62768 0 0 0 0.186393 0.903192 -0.647351 -25.9461 -1.33228 19.587 28.2872 10.9811 -5.49534 0.03 300.074 
9 1 1 0.543849 0.493791 1.61818 0 0 0 0.952967 0.450563 -0.465148 8.21737 -4.94056 -20.9446 -31.1904 51.1874 7.28081 0.03 301.684 
140 1 1 0.936184 0.487077 1.6038 0 0 0 1.91018 0.0155893 -0.691242 0 0 -2.77371 -2.11596 -33.9412 0.440971 0.03 304.049 
105 1 1 0.44463 0.517733 1.61412 0 0 0 1.31428 0.89521 0.095377 14.0328 5.48115 9.95268 -31.5769 62.4503 14.266 0.03 301.297 
79 1 1 0.411359 0.576848 1.63318 0 0 0 0.25114 0.439793 -0.41632 0 0 -2.77371 4.87465 -14.9566 -19.3747 0.03 300.878 
118 1 1 0.2397 0.59807 1.6064 0 0 0 1.2231 0.155755 -0.285965 5.90838 -10.3969 -50.6126 4.97959 -100.772 -20.1377 0.03 310.526 
152 1 1 0.312091 0.592453 1.60167 0 0 0 1.63636 0.010303 0.108728 -0.600694 1.26734 -3.42928 -3.11384 -111.396 -0.724846 0.03 313.194 
172 1 1 0.700191 0.597338 1.60652 0 0 0 1.85644 -0.0599087 -0.0559765 -0.0129398 -0.85874 -1.10457 2.69795 -62.1292 -39.2378 0.03 320.329 
137 1 1 0.242626 0.18482 1.64259 0 0 0 -0.146109 -0.9081 1.01203 0 0 -2.77371 4.66535 -5.21465 6.06554 0.03 300.041 
49 1 1 0.309884 0.194364 1.65783 0 0 0 0.0748235 -0.750386 0.214776 0 0 -2.77371 -21.846 3.07449 -12.6633 0.03 300.802 
88 1 1 0.55852 0.195508 1.64109 0 0 0 1.47204 0.127753 0.449085 0 0 -2.77371 19.8362 33.9437 -35.3702 0.03 300.395 
80 1 1 0.652025 0.205461 1.64208 0 0 0 1.31915 -0.178642 -0.287148 0 0 -2.77371 -11.1196 32.8548 -25.5688 0.03 300.208 
114 1 1 0.101873 0.240116 1.66284 0 0 0 0 0 -2.92222 0 0 -2.77371 0 0 0 0.03 300 
51 1 1 0.203935 0.249994 1.64031 0 0 0 0.0771444 -1.03141 -0.503998 0 0 -2.77371 -35.6685 -1.5383 -3.22323 0.03 300.218 
115 1 1 0.32037 0.262405 1.66034 0 0 0 1.75514 -0.0636736 -0.0469965 16.33 3.45401 123.004 -27.4639 -20.8239 24.6735 0.03 300.01 
7 1 1 0.495334 0.26574 1.65009 0 0 0 1.10943 -0.0756859 -0.992052 0 0 -2.77371 -22.4371 -35.8509 10.1074 0.03 300.006 
19 1 1 0.364546 0.295844 1.63812 0 0 0 0.531951 -0.32377 0.312198 -1.39377 0.196129 -103.038 -53.2533 110.528 -0.0757892 0.03 300.769 
125 1 1 0.416591 0.271912 1.66135 0 0 0 0.277214 0.392029 -1.08434 -4.38634 -6.34342 -0.366011 16.7994 -12.0915 -18.3275 0.03 300.018 
155 1 1 0.553727 0.284354 1.63674 0 0 0 1.28442 0.12066 -0.0225683 0 0 -2.77371 -6.6497 18.3738 7.35832 0.03 300.457 
11 1 1 0.208347 0.306276 1.6634 0 0 0 0.0951779 0.417894 -2.09156 0 0 -2.77371 -34.9503 0.507175 3.62047 0.03 300.001 
94 1 1 0.339135 0.348172 1.65512 0 0 0 -0.0718249 -0.36388 -0.533454 -29.5789 -41.0476 -123.07 -32.7436 40.7288 78.6728 0.03 300.52 
56 1 1 0.514819 0.340418 1.63586 0 0 0 0.878901 -0.0359343 0.0632356 0 0 -2.77371 -14.6211 -12.6669 9.40279 0.03 300.04 
92 1 1 0.661384 0.365918 1.63698 0 0 0 1.70407 0.394769 0.463405 0 0 -2.77371 -22.3033 38.9848 -1.88911 0.03 300.416 
21 1 1 0.174994 0.395701 1.66507 0 0 0 -0.430272 -0.143421 -0.353958 0 0 -2.77371 -40.8987 -49.0445 -19.1335 0.03 300.003 
4 1 1 0.294842 0.435257 1.64624 0 0 0 0.33805 -0.404434 0.613797 0 0 -2.77371 54.1086 20.1637 -4.00445 0.03 300.079 
169 1 1 0.230143 0.477818 1.64848 0 0 0 -0.29455 -0.413173 -2.06687 -9.73807 28.5108 -76.7356 -5.1192 20.6482 8.29569 0.03 300.244 
75 1 1 0.421485 0.513605 1.66767 0 0 0 0.730187 0.351336 -0.151896 0.733494 3.18369 28.6284 33.1124 -56.5465 -0.170562 0.03 300.024 
149 1 1 0.498956 0.508232 1.6536 0 0 0 0.823771 -0.0838751 -0.478605 -8.21737 4.94056 15.3972 47.0264 -59.9227 3.33023 0.03 300.024 
117 1 1 0.211632 0.538712 1.6446 0 0 0 0.283415 0.210977 0.00830422 -8.27755 9.91658 -56.1481 12.0378 28.9156 11.3387 0.03 300.182 
83 1 1 0.637798 0.530582 1.65423 0 0 0 1.74324 0.50685 0.248091 0 0 -2.77371 5.00779 82.3266 13.0114 0.03 300.323 
157 1 1 0.713146 0.550598 1.6509 0 0 0 1.64473 -0.000973832 -0.152247 0 0 -2.77371 -18.9003 88.2493 6.98209 0.03 300.3 
57 1 1 0.272935 0.574777 1.64779 0 0 0 0.141457 0.923815 0.416047 16.4772 -16.5292 67.7662 -29.5455 33.454 29.2268 0.03 300.077 
99 1 1 0.351604 0.570386 1.6609 0 0 0 0.860452 0.931861 0.513647 0 0 -2.77371 12.243 22.6198 -14.525 0.03 300.335 
18 1 1 0.497265 0.569187 1.64986 0 0 0 0.942326 0.216714 0.51875 0 0 -2.77371 -24.6099 8.38057 15.5266 0.03 300.402 
78 1 1 0.338548 0.106716 1.67593 0 0 0 0.840524 -0.590493 -0.63358 0 0 -2.77371 28.2436 73.2207 -0.414164 0.03 300.124 
165 1 1 0.419957 0.162805 1.68135 0 0 0 1.01087 -1.65506 -0.336025 0 0 -2.77371 42.6669 33.7181 6.49146 0.03 300 
1 1 1 0.465353 0.230622 1.69091 0 0 0 1.28789 -0.858082 -1.22366 0 0 -2.77371 14.6698 27.4218 7.67304 0.03 300 
170 1 1 0.445461 0.322967 1.67036 0 0 0 0.514738 0.229732 -0.649713 -3.88148 -14.5609 -15.3836 -29.8955 -22.4144 -0.237948 0.03 300.001 
33 1 1 0.10471 0.363257 1.6947 0 0 0 0 0 -2.81323 0 0 -2.77371 0 0 0 0.03 300 
71 1 1 0.27192 0.349064 1.67081 0 0 0 0 0 -2.89534 0 0 -2.77371 0 0 0 0.03 300 
126 1 1 0.371965 0.40019 1.67521 0 0 0 0.6312 0.559136 -0.468245 -1.93519 -15.4276 31.2873 36.4938 -24.8059 -17.3331 0.03 300.004 
24 1 1 0.463643 0.377356 1.68258 0 0 0 0.812341 -0.107768 0.252754 2.6215 17.2535 15.2995 47.4126 -36.9565 -30.082 0.03 300.004 
154 1 1 0.211098 0.445572 1.69326 0 0 0 0.082012 -0.122095 -2.49303 3.70563 -28.4613 56.5834 7.0644 -13.9144 -6.98311 0.03 300 
106 1 1 0.366298 0.464388 1.67821 0 0 0 -0.0703346 -0.594985 -0.940011 41.1761 17.5624 63.7628 34.6684 -20.0934 -5.61325 0.03 300 
26 1 1 0.470216 0.463655 1.69135 0 0 0 -0.158753 -0.740521 -1.39122 0 0 -2.77371 2.01698 5.60123 1.84444 0.03 300 
130 1 1 0.565279 0.470636 1.6861 0 0 0 1.45581 0.431014 -0.178088 0 0 -2.77371 27.5258 -51.7108 -19.1684 0.03 300.021 
89 1 1 0.270127 0.484457 1.68989 0 0 0 0.674662 0.0449385 -2.06068 6.03244 -0.0495344 11.8311 -3.18168 1.2573 2.60844 0.03 300.001 
129 1 1 0.193826 0.526183 1.69869 0 0 0 -0.254692 0.627749 -0.406232 8.27755 -9.91658 50.6007 -28.2987 -61.2116 2.22454 0.03 300.002 
156 1 1 0.487164 0.665215 1.67647 0 0 0 1.26011 0.305667 -0.0963041 0 0 -2.77371 -24.298 -57.1889 -50.7379 0.03 303.44 
161 1 1 0.383875 0.233035 1.73291 0 0 0 0 0 -2.67668 0 0 -2.77371 0 0 0 0.03 300 
35 1 1 0.340939 0.363895 1.7098 0 0 0 -0.106207 -0.0682848 -1.43904 23.1203 33.2177 119.197 16.0491 -22.7668 11.7307 0.03 300.001 
38 1 1 0.303454 0.414467 1.7241 0 0 0 0 0 -2.70875 0 0 -2.77371 0 0 0 0.03 300 
2 1 1 0.42945 0.659636 1.71145 0 0 0 0.763244 1.14936 -0.2426 0 0 -2.77371 29.9697 -62.4635 12.0468 0.03 300.012 
127 1 1 0.381994 0.300043 1.74514 0 0 0 0 0 -2.63145 0 0 -2.77371 0 0 0 0.03 300 
44 1 1 0.485944 0.343638 1.76992 0 0 0 0 0 -2.53737 0 0 -2.77371 0 0 0 0.03 300 
141 1 1 0.429803 0.380165 1.748 0 0 0 0 0 -2.62076 0 0 -2.77371 0 0 0 0.03 300 
111 1 1 0.473074 0.424163 1.75959 0 0 0 0 0 -2.57701 0 0 -2.77371 0 0 0 0.03 300 
146 1 1 0.495146 0.246598 1.77536 0 0 0 0 0 -2.51628 0 0 -2.77371 0 0 0 0.03 300 
166 1 1 0.165431 0.374869 1.7815 0 0 0 0 0 -2.49225 0 0 -2.77371 0 0 0 0.03 300 
28 1 1 0.222318 0.404493 1.80537 0 0 0 0 0 -2.3964 0 0 -2.77371 0 0 0 0.03 300 
119 1 1 0.126835 0.482642 1.77993 0 0 0 0 0 -2.49843 0 0 -2.77371 0 0 0 0.03 300 
97 1 1 0.184928 0.234672 1.82426 0 0 0 0 0 -2.31783 0 0 -2.77371 0 0 0 0.03 300 
74 1 1 0.248328 0.247523 1.8374 0 0 0 0 0 -2.26152 0 0 -2.77371 0 0 0 0.03 300 
5 1 1 0.160428 0.3182 1.83783 0 0 0 0 0 -2.25965 0 0 -2.77371 0 0 0 0.03 300 
93 1 1 0.225968 0.488444 1.82156 0 0 0 0 0 -2.32921 0 0 -2.77371 0 0 0 0.03 300 
134 1 1 0.443832 0.509496 1.83733 0 0 0 0 0 -2.26181 0 0 -2.77371 0 0 0 0.03 300 
90 1 1 0.102204 0.238351 1.85303 0 0 0 0 0 -2.19265 0 0 -2.77371 0 0 0 0.03 300 
62 1 1 0.329189 0.252757 1.85884 0 0 0 0 0 -2.16656 0 0 -2.77371 0 0 0 0.03 300 
43 1 1 0.460616 0.284913 1.87702 0 0 0 0 0 -2.08258 0 0 -2.77371 0 0 0 0.03 300 
95 1 1 0.346797 0.327727 1.86827 0 0 0 0 0 -2.12339 0 0 -2.77371 0 0 0 0.03 300 
175 1 1 0.230789 0.339127 1.84604 0 0 0 0 0 -2.22375 0 0 -2.77371 0 0 0 0.03 300 
128 1 1 0.355123 0.421294 1.8782 0 0 0 0 0 -2.07699 0 0 -2.77371 0 0 0 0.03 300 
37 1 1 0.41824 0.41741 1.86276 0 0 0 0 0 -2.1487 0 0 -2.77371 0 0 0 0.03 300 
17 1 1 0.345254 0.512161 1.86319 0 0 0 0 0 -2.14674 0 0 -2.77371 0 0 0 0.03 300 
25 1 1 0.278223 0.363632 1.90754 0 0 0 0 0 -1.93347 0 0 -2.77371 0 0 0 0.03 300 
123 1 1 0.48159 0.360101 1.91242 0 0 0 0 0 -1.90855 0 0 -2.77371 0 0 0 0.03 300 
116 1 1 0.152794 0.405213 1.89441 0 0 0 0 0 -1.999 0 0 -2.77371 0 0 0 0.03 300 
138 1 1 0.301221 0.470777 1.90205 0 0 0 0 0 -1.96113 0 0 -2.77371 0 0 0 0.03 300 
40 1 1 0.408343 0.240904 1.92427 0 0 0 0 0 -1.84665 0 0 -2.77371 0 0 0 0.03 300 
68 1 1 0.400811 0.324654 1.93145 0 0 0 0 0 -1.8081 0 0 -2.77371 0 0 0 0.03 300 
84 1 1 0.227036 0.399722 1.9456 0 0 0 0 0 -1.72962 0 0 -2.77371 0 0 0 0.03 300 
98 1 1 0.491139 0.43458 1.92034 0 0 0 0 0 -1.86735 0 0 -2.77371 0 0 0 0.03 300 
55 1 1 0.200976 0.455034 1.93786 0 0 0 0 0 -1.77298 0 0 -2.77371 0 0 0 0.03 300 
72 1 1 0.10161 0.511094 1.92681 0 0 0 0 0 -1.83311 0 0 -2.77371 0 0 0 0.03 300 
22 1 1 0.254767 0.230824 1.97551 0 0 0 0 0 -1.55068 0 0 -2.77371 0 0 0 0.03 300 
73 1 1 0.170916 0.265084 1.98094 0 0 0 0 0 -1.51596 0 0 -2.77371 0 0 0 0.03 300 
171 1 1 0.477654 0.251099 1.97452 0 0 0 0 0 -1.55696 0 0 -2.77371 0 0 0 0.03 300 
110 1 1 0.10205 0.273683 1.97955 0 0 0 0 0 -1.52498 0 0 -2.77371 0 0 0 0.03 300 
31 1 1 0.221691 0.336081 1.96196 0 0 0 0 0 -1.63417 0 0 -2.77371 0 0 0 0.03 300 
148 1 1 0.12082 0.460146 1.97408 0 0 0 0 0 -1.55971 0 0 -2.77371 0 0 0 0.03 300 
136 1 1 0.374023 0.456818 1.96229 0 0 0 0 0 -1.63221 0 0 -2.77371 0 0 0 0.03 300 
65 1 1 0.421483 0.499457 1.97794 0 0 0 0 0 -1.53528 0 0 -2.77371 0 0 0 0.03 300 
150 1 1 0.481625 0.503918 1.98498 0 0 0 0 0 -1.48957 0 0 -2.77371 0 0 0 0.03 300 
48 1 1 0.17066 0.517967 1.95157 0 0 0 0 0 -1.69538 0 0 -2.77371 0 0 0 0.03 300 
164 1 1 0.244978 0.28843 2.00481 0 0 0 0 0 -1.35272 0 0 -2.77371 0 0 0 0.03 300 
107 1 1 0.303471 0.271065 1.98868 0 0 0 0 0 -1.46504 0 0 -2.77371 0 0 0 0.03 300 
70 1 1 0.142707 0.355749 1.99622 0 0 0 0 0 -1.41364 0 0 -2.77371 0 0 0 0.03 300 
53 1 1 0.294932 0.364362 2.00325 0 0 0 0 0 -1.364 0 0 -2.77371 0 0 0 0.03 300 
102 1 1 0.419044 0.351535 2.01116 0 0 0 0 0 -1.30592 0 0 -2.77371 0 0 0 0.03 300 
176 1 1 0.349719 0.399621 2.01043 0 0 0 0 0 -1.31132 0 0 -2.77371 0 0 0 0.03 300 
153 1 1 0.496538 0.392613 1.99997 0 0 0 0 0 -1.38735 0 0 -2.77371 0 0 0 0.03 300 
326 1 1 0.187055 0.479944 2.01563 0 0 0 0 0 -1.27179 0 0 -2.77371 0 0 0 0.03 300 
6 1 1 0.317689 0.454971 2.00649 0 0 0 0 0 -1.34046 0 0 -2.77371 0 0 0 0.03 300 
147 1 1 0.248507 0.49546 2.01235 0 0 0 0 0 -1.2969 0 0 -2.77371 0 0 0 0.03 300 
52 1 1 0.358392 0.516981 2.01205 0 0 0 0 0 -1.29916 0 0 -2.77371 0 0 0 0.03 300 
333 1 1 0.346739 0.243699 2.03562 0 0 0 0 0 -1.10698 0 0 -2.77371 0 0 0 0.03 300 
281 1 1 0.411814 0.252027 2.02142 0 0 0 0 0 -1.22637 0 0 -2.77371 0 0 0 0.03 300 
339 1 1 0.110214 0.298119 2.05191 0 0 0 -0 -0 -1 0 0 0 0 0 0 0.03 300 
181 1 1 0.375154 0.318829 2.05476 0 0 0 -0 -0 -1 0 0 0 0 0 0 0.03 300 
225 1 1 0.490773 0.317233 2.029 0 0 0 0 0 -1.16417 0 0 -2.77371 0 0 0 0.03 300 
289 1 1 0.101436 0.395361 2.03698 0 0 0 0 0 -1.09481 0 0 -2.77371 0 0 0 0.03 300 
307 1 1 0.30626 0.26717 2.07469 0 0 0 -0 -0 -1 0 0 0 0 0 0 0.03 300 
300 1 1 0.170925 0.32143 2.07555 0 0 0 -0 -0 -1 0 0 0 0 0 0 0.03 300 
180 1 1 0.296048 0.338714 2.07378 0 0 0 -0 -0 -1 0 0 0 0 0 0 0.03 300 
190 1 1 0.226585 0.401613 2.07024 0 0 0 -0 -0 -1 0 0 0 0 0 0 0.03 300 
268 1 1 0.442536 0.376191 2.08924 0 0 0 -0 -0 -1 0 0 0 0 0 0 0.03 300 
296 1 1 0.486808 0.439095 2.06562 0 0 0 -0 -0 -1 0 0 0 0 0 0 0.03 300 
249 1 1 0.173789 0.449512 2.08177 0 0 0 -0 -0 -1 0 0 0 0 0 0 0.03 300 
227 1 1 0.405439 0.458732 2.06611 0 0 0 -0 -0 -1 0 0 0 0 0 0 0.03 300 
304 1 1 0.124838 0.500222 2.05944 0 0 0 -0 -0 -1 0 0 0 0 0 0 0.03 300 
301 1 1 0.196268 0.514676 2.08764 0 0 0 -0 -0 -1 0 0 0 0 0 0 0.03 300 
243 1 1 0.453661 0.506792 2.05908 0 0 0 -0 -0 -1 0 0 0 0 0 0 0.03 300 
288 1 1 0.209802 0.229296 2.09867 0 0 0 -0 -0 -1 0 0 0 0 0 0 0.03 300 
213 1 1 0.125891 0.243147 2.10527 0 0 0 -0 -0 -1 0 0 0 0 0 0 0.03 300 
221 1 1 0.425449 0.24778 2.09309 0 0 0 -0 -0 -1 0 0 0 0 0 0 0.03 300 
322 1 1 0.49924 0.247443 2.10573 0 0 0 -0 -0 -1 0 0 0 0 0 0 0.03 300 
257 1 1 0.107883 0.30308 2.11464 0 0 0 -0 -0 -1 0 0 0 0 0 0 0.03 300 
230 1 1 0.257855 0.281878 2.11402 0 0 0 -0 -0 -1 0 0 0 0 0 0 0.03 300 
340 1 1 0.235778 0.333975 2.09058 0 0 0 -0 -0 -1 0 0 0 0 0 0 0.03 300 
187 1 1 0.476873 0.306542 2.09249 0 0 0 -0 -0 -1 0 0 0 0 0 0 0.03 300 
291 1 1 0.499679 0.383275 2.10751 0 0 0 -0 -0 -1 0 0 0 0 0 0 0.03 300 
178 1 1 0.318639 0.427051 2.11674 0 0 0 -0 -0 -1 0 0 0 0 0 0 0.03 300 
246 1 1 0.107302 0.455042 2.11023 0 0 0 -0 -0 -1 0 0 0 0 0 0 0.03 300 
226 1 1 0.253931 0.465065 2.11163 0 0 0 -0 -0 -1 0 0 0 0 0 0 0.03 300 
265 1 1 0.446064 0.454668 2.1243 0 0 0 -0 -0 -1 0 0 0 0 0 0 0.03 300 
276 1 1 0.289349 0.515799 2.09369 0 0 0 -0 -0 -1 0 0 0 0 0 0 0.03 300 
224 1 1 0.391331 0.524514 2.11276 0 0 0 -0 -0 -1 0 0 0 0 0 0 0.03 300 
317 1 1 0.252263 0.228507 2.1589 0 0 0 -0 -0 -1 0 0 0 0 0 0 0.03 300 
196 1 1 0.358915 0.233995 2.12735 0 0 0 -0 -0 -1 0 0 0 0 0 0 0.03 300 
248 1 1 0.155073 0.291265 2.15256 0 0 0 -0 -0 -1 0 0 0 0 0 0 0.03 300 
209 1 1 0.352404 0.322469 2.14158 0 0 0 -0 -0 -1 0 0 0 0 0 0 0.03 300 
313 1 1 0.439938 0.327558 2.1483 0 0 0 -0 -0 -1 0 0 0 0 0 0 0.03 300 
204 1 1 0.215487 0.347963 2.15667 0 0 0 -0 -0 -1 0 0 0 0 0 0 0.03 300 
245 1 1 0.160535 0.375989 2.12766 0 0 0 -0 -0 -1 0 0 0 0 0 0 0.03 300 
346 1 1 0.2812 0.398881 2.15476 0 0 0 -0 -0 -1 0 0 0 0 0 0 0.03 300 
254 1 1 0.380252 0.376413 2.13303 0 0 0 -0 -0 -1 0 0 0 0 0 0 0.03 300 
335 1 1 0.429091 0.407041 2.15734 0 0 0 -0 -0 -1 0 0 0 0 0 0 0.03 300 
270 1 1 0.207615 0.426676 2.13897 0 0 0 -0 -0 -1 0 0 0 0 0 0 0.03 300 
352 1 1 0.377854 0.441153 2.12506 0 0 0 -0 -0 -1 0 0 0 0 0 0 0.03 300 
279 1 1 0.157212 0.495968 2.14757 0 0 0 -0 -0 -1 0 0 0 0 0 0 0.03 300 
217 1 1 0.461801 0.523439 2.157 0 0 0 -0 -0 -1 0 0 0 0 0 0 0.03 300 
305 1 1 0.346674 0.257421 2.1822 0 0 0 -0 -0 -1 0 0 0 0 0 0 0.03 300 
252 1 1 0.442785 0.262265 2.16054 0 0 0 -0 -0 -1 0 0 0 0 0 0 0.03 300 
193 1 1 0.281872 0.329623 2.17076 0 0 0 -0 -0 -1 0 0 0 0 0 0 0.03 300 
233 1 1 0.496558 0.3336 2.18785 0 0 0 -0 -0 -1 0 0 0 0 0 0 0.03 300 
272 1 1 0.116473 0.427779 2.17318 0 0 0 -0 -0 -1 0 0 0 0 0 0 0.03 300 
237 1 1 0.207046 0.471117 2.18263 0 0 0 -0 -0 -1 0 0 0 0 0 0 0.03 300 
262 1 1 0.417911 0.469013 2.1821 0 0 0 -0 -0 -1 0 0 0 0 0 0 0.03 300 
239 1 1 0.490736 0.457949 2.16796 0 0 0 -0 -0 -1 0 0 0 0 0 0 0.03 300 
303 1 1 0.114998 0.510423 2.19123 0 0 0 -0 -0 -1 0 0 0 0 0 0 0.03 300 
263 1 1 0.269308 0.500141 2.18382 0 0 0 -0 -0 -1 0 0 0 0 0 0 0.03 300 
201 1 1 0.360389 0.493184 2.1674 0 0 0 -0 -0 -1 0 0 0 0 0 0 0.03 300 
283 1 1 0.300071 0.232043 2.22541 0 0 0 -0 -0 -1 0 0 0 0 0 0 0.03 300 
351 1 1 0.181906 0.258163 2.19663 0 0 0 -0 -0 -1 0 0 0 0 0 0 0.03 300 
332 1 1 0.233113 0.233231 2.21729 0 0 0 -0 -0 -1 0 0 0 0 0 0 0.03 300 
319 1 1 0.490886 0.237209 2.2035 0 0 0 -0 -0 -1 0 0 0 0 0 0 0.03 300 
206 1 1 0.126939 0.284236 2.21405 0 0 0 -0 -0 -1 0 0 0 0 0 0 0.03 300 
194 1 1 0.257372 0.298287 2.21748 0 0 0 -0 -0 -1 0 0 0 0 0 0 0.03 300 
231 1 1 0.39189 0.276895 2.21772 0 0 0 -0 -0 -1 0 0 0 0 0 0 0.03 300 
338 1 1 0.455834 0.299724 2.22811 0 0 0 -0 -0 -1 0 0 0 0 0 0 0.03 300 
347 1 1 0.332014 0.322805 2.21638 0 0 0 -0 -0 -1 0 0 0 0 0 0 0.03 300 
298 1 1 0.133415 0.358363 2.2002 0 0 0 -0 -0 -1 0 0 0 0 0 0 0.03 300 
331 1 1 0.280682 0.358343 2.229 0 0 0 -0 -0 -1 0 0 0 0 0 0 0.03 300 
216 1 1 0.415188 0.353574 2.22582 0 0 0 -0 -0 -1 0 0 0 0 0 0 0.03 300 
341 1 1 0.462863 0.403415 2.20862 0 0 0 -0 -0 -1 0 0 0 0 0 0 0.03 300 
208 1 1 0.292126 0.417938 2.21843 0 0 0 -0 -0 -1 0 0 0 0 0 0 0.03 300 
334 1 1 0.38649 0.410383 2.20433 0 0 0 -0 -0 -1 0 0 0 0 0 0 0.03 300 
185 1 1 0.176568 0.243013 2.25859 0 0 0 -0 -0 -1 0 0 0 0 0 0 0.03 300 
197 1 1 0.187467 0.323213 2.23686 0 0 0 -0 -0 -1 0 0 0 0 0 0 0.03 300 
295 1 1 0.361284 0.371846 2.2454 0 0 0 -0 -0 -1 0 0 0 0 0 0 0.03 300 
285 1 1 0.200673 0.388027 2.23116 0 0 0 -0 -0 -1 0 0 0 0 0 0 0.03 300 
308 1 1 0.14362 0.411827 2.24042 0 0 0 -0 -0 -1 0 0 0 0 0 0 0.03 300 
220 1 1 0.335967 0.444883 2.25458 0 0 0 -0 -0 -1 0 0 0 0 0 0 0.03 300 
198 1 1 0.400177 0.437787 2.2576 0 0 0 -0 -0 -1 0 0 0 0 0 0 0.03 300 
255 1 1 0.114307 0.478097 2.24805 0 0 0 -0 -0 -1 0 0 0 0 0 0 0.03 300 
182 1 1 0.244578 0.471314 2.26452 0 0 0 -0 -0 -1 0 0 0 0 0 0 0.03 300 
238 1 1 0.178751 0.5056 2.2601 0 0 0 -0 -0 -1 0 0 0 0 0 0 0.03 300 
271 1 1 0.316171 0.515613 2.23673 0 0 0 -0 -0 -1 0 0 0 0 0 0 0.03 300 
325 1 1 0.454753 0.482086 2.2302 0 0 0 -0 -0 -1 0 0 0 0 0 0 0.03 300 
186 1 1 0.259533 0.258075 2.27734 0 0 0 -0 -0 -1 0 0 0 0 0 0 0.03 300 
183 1 1 0.442411 0.236129 2.26849 0 0 0 -0 -0 -1 0 0 0 0 0 0 0.03 300 
284 1 1 0.192412 0.289106 2.29388 0 0 0 -0 -0 -1 0 0 0 0 0 0 0.03 300 
240 1 1 0.373873 0.277789 2.27961 0 0 0 -0 -0 -1 0 0 0 0 0 0 0.03 300 
282 1 1 0.474016 0.292718 2.29895 0 0 0 -0 -0 -1 0 0 0 0 0 0 0.03 300 
250 1 1 0.309313 0.331656 2.27448 0 0 0 -0 -0 -1 0 0 0 0 0 0 0.03 300 
316 1 1 0.11734 0.353945 2.27534 0 0 0 -0 -0 -1 0 0 0 0 0 0 0.03 300 
259 1 1 0.22228 0.356059 2.29403 0 0 0 -0 -0 -1 0 0 0 0 0 0 0.03 300 
277 1 1 0.255485 0.407729 2.29471 0 0 0 -0 -0 -1 0 0 0 0 0 0 0.03 300 
274 1 1 0.492828 0.422942 2.28588 0 0 0 -0 -0 -1 0 0 0 0 0 0 0.03 300 
192 1 1 0.365388 0.511304 2.29856 0 0 0 -0 -0 -1 0 0 0 0 0 0 0.03 300 
343 1 1 0.15665 0.233052 2.33364 0 0 0 -0 -0 -1 0 0 0 0 0 0 0.03 300 
258 1 1 0.122106 0.287147 2.30085 0 0 0 -0 -0 -1 0 0 0 0 0 0 0.03 300 
253 1 1 0.245744 0.294067 2.3246 0 0 0 -0 -0 -1 0 0 0 0 0 0 0.03 300 
212 1 1 0.417494 0.317622 2.30353 0 0 0 -0 -0 -1 0 0 0 0 0 0 0.03 300 
309 1 1 0.164495 0.407825 2.30668 0 0 0 -0 -0 -1 0 0 0 0 0 0 0.03 300 
234 1 1 0.396246 0.377563 2.31259 0 0 0 -0 -0 -1 0 0 0 0 0 0 0.03 300 
318 1 1 0.359003 0.427078 2.31033 0 0 0 -0 -0 -1 0 0 0 0 0 0 0.03 300 
184 1 1 0.446465 0.410676 2.32321 0 0 0 -0 -0 -1 0 0 0 0 0 0 0.03 300 
261 1 1 0.177868 0.470844 2.31335 0 0 0 -0 -0 -1 0 0 0 0 0 0 0.03 300 
223 1 1 0.10548 0.49309 2.33007 0 0 0 -0 -0 -1 0 0 0 0 0 0 0.03 300 
290 1 1 0.276688 0.526521 2.30397 0 0 0 -0 -0 -1 0 0 0 0 0 0 0.03 300 
329 1 1 0.429505 0.520312 2.3095 0 0 0 -0 -0 -1 0 0 0 0 0 0 0.03 300 
315 1 1 0.216797 0.232457 2.35158 0 0 0 -0 -0 -1 0 0 0 0 0 0 0.03 300 
189 1 1 0.296506 0.266561 2.34407 0 0 0 -0 -0 -1 0 0 0 0 0 0 0.03 300 
349 1 1 0.365686 0.235664 2.33936 0 0 0 -0 -0 -1 0 0 0 0 0 0 0.03 300 
330 1 1 0.462592 0.233737 2.34699 0 0 0 -0 -0 -1 0 0 0 0 0 0 0.03 300 
202 1 1 0.125386 0.2781 2.3609 0 0 0 -0 -0 -1 0 0 0 0 0 0 0.03 300 
324 1 1 0.115625 0.334079 2.34008 0 0 0 -0 -0 -1 0 0 0 0 0 0 0.03 300 
211 1 1 0.342022 0.308301 2.33941 0 0 0 -0 -0 -1 0 0 0 0 0 0 0.03 300 
222 1 1 0.18233 0.36007 2.36255 0 0 0 -0 -0 -1 0 0 0 0 0 0 0.03 300 
191 1 1 0.12776 0.394841 2.36642 0 0 0 -0 -0 -1 0 0 0 0 0 0 0.03 300 
242 1 1 0.493753 0.377377 2.36419 0 0 0 -0 -0 -1 0 0 0 0 0 0 0.03 300 
344 1 1 0.280536 0.422033 2.34742 0 0 0 -0 -0 -1 0 0 0 0 0 0 0.03 300 
269 1 1 0.324092 0.465876 2.35568 0 0 0 -0 -0 -1 0 0 0 0 0 0 0.03 300 
287 1 1 0.403036 0.471118 2.35135 0 0 0 -0 -0 -1 0 0 0 0 0 0 0.03 300 
266 1 1 0.482717 0.469458 2.34953 0 0 0 -0 -0 -1 0 0 0 0 0 0 0.03 300 
310 1 1 0.172992 0.51357 2.36251 0 0 0 -0 -0 -1 0 0 0 0 0 0 0.03 300 
210 1 1 0.236464 0.494005 2.34819 0 0 0 -0 -0 -1 0 0 0 0 0 0 0.03 300 
188 1 1 0.306795 0.524102 2.36006 0 0 0 -0 -0 -1 0 0 0 0 0 0 0.03 300 
353 1 1 0.264297 0.230887 2.38885 0 0 0 -0 -0 -1 0 0 0 0 0 0 0.03 300 
219 1 1 0.410483 0.256917 2.37553 0 0 0 -0 -0 -1 0 0 0 0 0 0 0.03 300 
199 1 1 0.254913 0.330119 2.39002 0 0 0 -0 -0 -1 0 0 0 0 0 0 0.03 300 
302 1 1 0.343126 0.393328 2.38825 0 0 0 -0 -0 -1 0 0 0 0 0 0 0.03 300 
228 1 1 0.413169 0.40103 2.37234 0 0 0 -0 -0 -1 0 0 0 0 0 0 0.03 300 
342 1 1 0.480929 0.433795 2.40215 0 0 0 -0 -0 -1 0 0 0 0 0 0 0.03 300 
306 1 1 0.210852 0.447093 2.38752 0 0 0 -0 -0 -1 0 0 0 0 0 0 0.03 300 
336 1 1 0.169622 0.23057 2.41238 0 0 0 -0 -0 -1 0 0 0 0 0 0 0.03 300 
275 1 1 0.31599 0.267584 2.40773 0 0 0 -0 -0 -1 0 0 0 0 0 0 0.03 300 
251 1 1 0.103547 0.274488 2.43652 0 0 0 -0 -0 -1 0 0 0 0 0 0 0.03 300 
292 1 1 0.163002 0.294172 2.43091 0 0 0 -0 -0 -1 0 0 0 0 0 0 0.03 300 
207 1 1 0.223339 0.283687 2.42062 0 0 0 -0 -0 -1 0 0 0 0 0 0 0.03 300 
244 1 1 0.46854 0.271589 2.41621 0 0 0 -0 -0 -1 0 0 0 0 0 0 0.03 300 
323 1 1 0.363208 0.332364 2.40706 0 0 0 -0 -0 -1 0 0 0 0 0 0 0.03 300 
273 1 1 0.441723 0.330179 2.40774 0 0 0 -0 -0 -1 0 0 0 0 0 0 0.03 300 
203 1 1 0.114725 0.361154 2.42615 0 0 0 -0 -0 -1 0 0 0 0 0 0 0.03 300 