ITEM: TIMESTEP
48000
ITEM: NUMBER OF ATOMS
176
ITEM: BOX BOUNDS ff ff ff
0 3.3
-0.3 0.8
-0.5 3
ITEM: ATOMS id type type x y z ix iy iz vx vy vz fx fy fz omegax omegay omegaz radius f_Temp[0] 
108 1 1 0.365554 0.185621 1.57738 0 0 0 1.58695 -0.208889 -0.118169 -1.41894 8.05509 2.99675 -14.8701 -61.393 16.0391 0.03 328.66 
47 1 1 0.551455 0.189703 1.5787 0 0 0 1.95432 -0.28317 0.185142 0 0 -2.77371 9.71682 -68.2165 0.380431 0.03 318.831 
120 1 1 0.260996 0.219452 1.57684 0 0 0 1.08318 0.0675176 -0.0018489 0.0121178 -0.00372265 0.408892 -2.25834 -97.6755 10.6533 0.03 317.329 
112 1 1 0.40751 0.227313 1.57738 0 0 0 1.79037 -0.129269 -0.0592037 -30.9966 0.703031 -25.639 -26.7604 18.3621 -21.9173 0.03 312.444 
60 1 1 0.466202 0.227683 1.58244 0 0 0 1.25348 -0.305376 0.156954 36.8875 0.917602 19.8122 11.4348 -84.2291 17.4291 0.03 309.757 
67 1 1 0.611086 0.201828 1.5874 0 0 0 2.14579 -0.179694 0.139277 0 0 -2.77371 9.79452 -40.8055 2.01229 0.03 314.994 
58 1 1 0.14536 0.26703 1.57731 0 0 0 0.728994 0.0333468 0.129908 0 0 -2.77371 0.410391 -100.082 -3.48054 0.03 306.977 
41 1 1 0.327305 0.258397 1.58341 0 0 0 1.87868 0.341524 0.072801 -1.57181 10.7441 -15.098 -9.56946 -69.4263 13.5977 0.03 316.927 
142 1 1 0.596211 0.26135 1.57662 0 0 0 2.14673 -0.134803 -0.0158675 0.584104 -0.279152 5.95443 5.10137 -62.7686 -9.94942 0.03 319.745 
8 1 1 0.762113 0.263954 1.58968 0 0 0 2.45713 -0.251596 -0.388808 0 0 -2.77371 15.1058 -50.2364 3.30632 0.03 311.702 
13 1 1 0.256837 0.287652 1.57572 0 0 0 1.19369 -0.0724185 0.295562 -2.1114 0.24605 8.08498 2.53837 -97.2033 -7.26599 0.03 318.492 
59 1 1 0.432813 0.279608 1.59564 0 0 0 1.40566 -0.547838 0.176977 0 0 -2.77371 -13.6801 -62.7302 -2.1589 0.03 310.002 
86 1 1 0.542144 0.286851 1.57988 0 0 0 2.06726 -0.263721 -0.0535825 -0.104204 2.43734 -11.0827 7.51335 -60.1029 -5.16025 0.03 325.435 
45 1 1 0.659502 0.270219 1.57741 0 0 0 2.63061 -0.835306 0.0629508 0 0 -2.77371 -0.528973 44.5714 -10.4049 0.03 303.846 
124 1 1 0.389694 0.320033 1.57966 0 0 0 1.32659 -0.361646 -0.201427 -4.99793 -5.13399 -0.11495 5.17488 -55.3939 9.44235 0.03 317.462 
14 1 1 0.871265 0.320988 1.57686 0 0 0 2.42075 0.0677053 -2.39754e-05 7.98179e-05 -3.42193e-06 -0.000400284 -2.26609 -52.8572 -2.54476 0.03 321.638 
101 1 1 0.155215 0.343417 1.57593 0 0 0 1.26544 -0.0449185 -0.075403 10.5234 10.1197 26.3119 -5.29531 -84.5375 2.72697 0.03 306.611 
64 1 1 0.242383 0.368899 1.5754 0 0 0 1.04081 -0.169741 -0.194931 14.3266 -5.14142 31.8086 7.18061 -101.204 -2.61566 0.03 316.396 
29 1 1 0.434386 0.358427 1.58337 0 0 0 0.901245 0.495546 -0.437079 4.99793 5.13399 -5.43247 -31.1611 52.0479 22.833 0.03 300.761 
23 1 1 0.624248 0.344607 1.5872 0 0 0 2.36701 -0.338154 -0.0280799 0 0 -2.77371 15.3498 -51.6845 -19.7042 0.03 325.929 
96 1 1 0.694594 0.348478 1.57814 0 0 0 1.6054 -0.335557 -0.00270272 0 0 -2.77371 11.2485 -80.1495 -6.81822 0.03 310.155 
82 1 1 0.807258 0.364471 1.57686 0 0 0 1.80625 -0.148117 -0.000425999 0.00133652 0.00424906 -0.0250837 4.95638 -73.4193 2.87889 0.03 314.223 
69 1 1 0.189942 0.402082 1.57814 0 0 0 1.3731 0.215195 0.686018 0 0 -2.77371 -7.69756 -88.9288 15.0579 0.03 314.877 
122 1 1 0.380095 0.389576 1.5761 0 0 0 1.54906 0.144938 0.230076 -0.201836 -1.20257 1.50242 -4.05955 -84.6808 -9.44168 0.03 319.904 
135 1 1 0.104286 0.43188 1.57895 0 0 0 0.773644 0.205346 0.670491 0 0 -2.77371 -6.94327 -108.889 -4.466 0.03 303.806 
131 1 1 0.344455 0.436767 1.58896 0 0 0 0.439295 -0.0361294 -1.12659 0 0 -2.77371 4.53576 5.92379 -5.00446 0.03 300.658 
10 1 1 0.49092 0.42205 1.57666 0 0 0 1.74729 0.342479 -0.263401 -6.2302 -3.49903 17.2567 -9.68409 -77.8263 3.81506 0.03 322.888 
36 1 1 0.596837 0.435899 1.5785 0 0 0 1.87002 0.0430738 -0.0487697 0 0 -2.77371 -23.1322 3.23726 3.40092 0.03 303.328 
32 1 1 0.692071 0.435312 1.57605 0 0 0 1.81589 0.0223915 -0.156455 0.871057 -0.0780467 32.1657 -0.78946 -73.7629 -5.21338 0.03 311.991 
174 1 1 0.795686 0.42357 1.57686 0 0 0 2.31562 -0.0199943 -0.000610841 1.29745 -0.526269 0.0265359 11.482 -29.718 2.83466 0.03 315.342 
61 1 1 0.179956 0.466752 1.58395 0 0 0 0.163569 0.31858 -0.721268 0.604951 -1.96098 -7.9266 -38.8541 -8.74712 6.51394 0.03 300.111 
163 1 1 0.294324 0.46852 1.57981 0 0 0 1.44388 -0.189588 -0.474269 0 0 -2.77371 -10.7095 -35.0954 -38.9176 0.03 307.215 
30 1 1 0.418633 0.450911 1.57497 0 0 0 1.30407 -0.102518 0.312568 4.69824 2.36072 3.84263 4.55526 -94.6971 -1.60724 0.03 331.435 
54 1 1 0.541322 0.462105 1.57514 0 0 0 1.86421 0.0366664 0.123763 0.592775 0.00997409 45.1234 3.27954 -68.7758 -1.58017 0.03 320.864 
121 1 1 0.241975 0.504689 1.57599 0 0 0 1.47672 0.616225 0.548645 -2.73099 3.75058 -3.03476 -22.7007 -86.0835 19.1113 0.03 312.88 
63 1 1 0.368339 0.496311 1.576 0 0 0 1.31097 0.407662 -0.623075 19.8363 -54.9976 48.4496 -1.73332 -85.7702 -2.16499 0.03 319.576 
39 1 1 0.459976 0.50509 1.57697 0 0 0 1.31795 0.168476 0.0418829 -0.0561176 0.253267 -3.29253 -6.71774 -89.8926 -14.9151 0.03 308.785 
66 1 1 0.602372 0.499599 1.57829 0 0 0 1.55846 0.24575 0.0751048 0 0 -2.77371 -8.22524 -81.7736 -8.61444 0.03 306.793 
168 1 1 0.669721 0.513675 1.58238 0 0 0 1.74602 -0.0714041 -0.326286 0 0 -2.77371 2.42933 -75.7376 10.3515 0.03 303.639 
100 1 1 0.731591 0.485127 1.57678 0 0 0 1.87445 0.0290109 0.0616595 -0.266418 0.00296232 -1.55129 -0.973788 -71.327 -5.29887 0.03 318.147 
162 1 1 0.548678 0.532922 1.57798 0 0 0 1.50112 0.131785 0.0204433 0 0 -2.77371 -4.15412 -83.776 14.5225 0.03 312.693 
118 1 1 0.157358 0.565806 1.59541 0 0 0 0.664038 0.780649 -0.033309 0 0 -2.77371 -5.52755 -94.4934 -0.180128 0.03 303.804 
152 1 1 0.226552 0.566621 1.59099 0 0 0 0.840711 0.470336 0.342974 0 0 -2.77371 -16.1363 -105.272 11.7114 0.03 308.026 
158 1 1 0.337952 0.571616 1.59604 0 0 0 2.57092 -0.0560485 0.433846 -68.6527 28.8738 -11.7724 -15.6989 -0.910869 -75.0483 0.03 303.633 
109 1 1 0.3996 0.566285 1.57694 0 0 0 2.05666 0.0388615 0.15117 -1.3027 -0.00743758 -7.44702 -1.30217 -65.2861 -61.3685 0.03 306.416 
103 1 1 0.494095 0.572571 1.58212 0 0 0 1.72444 -0.0295788 0.000976773 0 0 -2.77371 -9.51562 -59.9364 -29.8688 0.03 322.713 
113 1 1 0.743337 0.577647 1.58682 0 0 0 2.0068 -0.0479402 -0.0477733 -0.000496348 -0.989853 -0.988211 2.26295 -83.4304 -10.8364 0.03 321.709 
172 1 1 0.551572 0.591835 1.60059 0 0 0 1.87516 0.111234 0.322873 -2.37125 -0.0276877 -0.935197 -11.0411 -62.727 -39.7872 0.03 314.19 
87 1 1 0.411359 0.159463 1.60623 0 0 0 1.28249 -0.208538 0.249706 0 0 -2.77371 20.1741 24.0296 24.379 0.03 303.333 
85 1 1 0.692677 0.18567 1.60395 0 0 0 1.50927 -0.522515 -0.436397 0 0 -2.77371 8.12198 -77.5089 4.18826 0.03 303.886 
49 1 1 0.329544 0.219433 1.62712 0 0 0 -0.275057 0.169893 0.366449 1.57181 -10.7441 9.55059 1.63281 -8.1197 -33.8146 0.03 300.54 
80 1 1 0.546493 0.219753 1.63366 0 0 0 1.31915 -0.178642 0.497652 0 0 -2.77371 -11.1196 32.8548 -25.5688 0.03 300.208 
15 1 1 0.197904 0.236069 1.61096 0 0 0 0.513798 -0.724994 -0.242442 0 0 -2.77371 31.7253 35.3502 -0.377258 0.03 300.147 
76 1 1 0.265297 0.278653 1.63343 0 0 0 -0.194486 -0.144922 0.749964 0.771392 -0.136027 3.14929 -4.41036 52.5363 -10.9094 0.03 300.403 
91 1 1 0.23211 0.332449 1.6197 0 0 0 0.00746804 -0.631621 -0.76714 -6.35311 -8.74855 32.466 15.4411 49.7578 11.825 0.03 300.416 
81 1 1 0.501412 0.333904 1.60553 0 0 0 1.17215 0.054192 -0.807727 0 0 -2.77371 -31.3446 -3.51783 -2.88224 0.03 300.349 
3 1 1 0.090969 0.343071 1.60159 0 0 0 -0.931452 0.0376208 -1.41395 0 0 -2.77371 3.54908 -19.7901 1.57106 0.03 300.025 
132 1 1 0.181302 0.360899 1.62557 0 0 0 -0.38318 -0.467928 1.43686 1.68991 -0.702637 2.26656 28.1083 6.58125 -6.66877 0.03 300.173 
143 1 1 0.342885 0.3492 1.61353 0 0 0 0.0149754 0.316531 -1.68802 -2.7431 -5.09604 -0.15863 5.2495 22.8761 -4.11813 0.03 300.243 
145 1 1 0.402094 0.408843 1.62765 0 0 0 0.844357 0.508383 0.599458 -0.33265 1.20302 1.29299 -14.6126 53.9623 -2.93608 0.03 300.737 
167 1 1 0.47494 0.38786 1.62227 0 0 0 0.434704 -0.126549 -0.705693 0.102891 -1.16111 -1.95312 9.4983 1.2513 24.284 0.03 300.679 
42 1 1 0.245366 0.424311 1.59945 0 0 0 0.207222 0.453633 -0.645824 -10.4005 -15.2714 -23.7629 -31.2096 33.4185 1.35073 0.03 300.247 
169 1 1 0.230367 0.476377 1.62694 0 0 0 -0.39553 0.0102386 0.312223 1.94809 -0.083654 -11.8135 31.6522 -8.54429 25.6461 0.03 300.117 
105 1 1 0.395059 0.475434 1.62416 0 0 0 0.438106 0.150442 -0.0430217 0.953643 4.10963 11.0263 -9.77141 50.9391 -20.2707 0.03 300.663 
9 1 1 0.455731 0.458265 1.61903 0 0 0 0.797717 0.0846605 0.843172 -0.184189 35.3886 -25.4279 -7.80152 67.8886 5.20574 0.03 300.652 
117 1 1 0.185437 0.516252 1.61579 0 0 0 0.204934 0.375825 -0.356949 -0.604951 1.96098 2.37918 56.0386 29.0529 8.72603 0.03 300.087 
99 1 1 0.299263 0.506885 1.63473 0 0 0 0.166598 0.501313 0.16187 0 0 -2.77371 -19.9151 -69.1062 11.6566 0.03 300.058 
83 1 1 0.506745 0.489211 1.61425 0 0 0 0.283664 0.675443 -1.1401 -1.72126 1.22677 2.75286 -31.4778 5.16725 8.10911 0.03 300.144 
140 1 1 0.78337 0.48583 1.62771 0 0 0 1.91018 0.0155893 0.0935575 0 0 -2.77371 -2.11596 -33.9412 0.440971 0.03 304.049 
79 1 1 0.366912 0.541021 1.63771 0 0 0 0.894699 0.676868 0.369449 68.6527 -28.8738 6.22501 -43.7011 57.8849 -4.81172 0.03 300.835 
157 1 1 0.581564 0.550696 1.63167 0 0 0 1.64518 -0.0155667 0.645831 0.885106 0.846572 -4.01457 -18.7773 88.7767 7.55797 0.03 300.29 
173 1 1 0.39987 0.254191 1.64373 0 0 0 0.0197902 -0.591657 -1.63945 0 0 -2.77371 4.82045 34.0117 9.99413 0.03 300.123 
19 1 1 0.322332 0.29871 1.63845 0 0 0 0.303402 -0.0032957 -1.26894 2.72401 2.69178 -4.34512 -2.68209 11.1486 3.86134 0.03 300.004 
155 1 1 0.464979 0.273205 1.65001 0 0 0 0.00122295 0.620156 -0.405304 -18.139 48.1225 -41.6963 5.97127 77.8498 -23.3461 0.03 300.115 
46 1 1 0.553878 0.294814 1.63765 0 0 0 0.876478 0.150616 0.0769695 -0.288621 -2.21383 5.34246 -15.2865 8.69848 -22.1772 0.03 300.376 
20 1 1 0.39483 0.366124 1.67049 0 0 0 1.01545 -0.278978 0.0797983 0 0 -2.77371 33.2197 -23.9942 -7.27407 0.03 300.007 
92 1 1 0.550579 0.357634 1.64592 0 0 0 1.17091 -0.427588 -0.314605 0 0 -2.77371 -27.8261 -16.704 10.5788 0.03 300.353 
50 1 1 0.295052 0.41352 1.63117 0 0 0 -0.220076 -0.119632 -1.75508 10.4005 15.2714 18.2154 10.2143 -30.1517 -1.00677 0.03 300.003 
130 1 1 0.446191 0.437052 1.6725 0 0 0 1.47063 0.515782 0.217304 4.93484 -42.6051 -114.045 3.74904 -45.086 -10.3917 0.03 300.01 
16 1 1 0.119943 0.514428 1.60902 0 0 0 0 0 -3.09762 0 0 -2.77371 0 0 0 0.03 300 
18 1 1 0.452571 0.546839 1.64297 0 0 0 0.0241209 0.288686 -0.125644 0 0 -2.77371 -13.0552 42.9778 11.5299 0.03 300.104 
156 1 1 0.386355 0.640762 1.65279 0 0 0 1.26011 0.305667 0.688496 0 0 -2.77371 -24.298 -57.1889 -50.7379 0.03 303.44 
78 1 1 0.271306 0.153955 1.69522 0 0 0 0.840524 -0.590493 0.15122 0 0 -2.77371 28.2436 73.2207 -0.414164 0.03 300.124 
88 1 1 0.487088 0.227834 1.67709 0 0 0 0.484503 -0.316304 -1.96395 18.139 -48.1225 36.1489 43.6292 7.09245 -20.2582 0.03 300 
125 1 1 0.342988 0.256528 1.6747 0 0 0 0.442541 0.737887 0.0439501 0.0190947 2.40426 -3.81739 -52.4522 -7.63951 -4.45851 0.03 300.004 
159 1 1 0.49867 0.319178 1.66962 0 0 0 0.82636 0.197619 -0.463836 0 0 -2.77371 47.675 -14.3142 -12.4889 0.03 300.002 
94 1 1 0.279774 0.348712 1.65118 0 0 0 1.02312 0.21083 -1.89147 -4.75814 -5.58692 -6.84309 -8.45971 9.21796 6.43856 0.03 300.003 
133 1 1 0.765713 0.36397 1.67652 0 0 0 1.45209 0.340449 -0.340633 0 0 -2.77371 -5.42725 -57.2091 -15.3957 0.03 303.944 
151 1 1 0.510088 0.407084 1.67437 0 0 0 0.712426 0.469986 -0.801236 0 0 -2.77371 -19.6762 -4.49846 10.5764 0.03 300.006 
27 1 1 0.358112 0.480788 1.67316 0 0 0 -0.295171 0.241225 -1.08084 0 0 -2.77371 4.7666 -48.0836 6.63822 0.03 300.003 
2 1 1 0.368391 0.567687 1.69947 0 0 0 0.763244 1.14936 0.5422 0 0 -2.77371 29.9697 -62.4635 12.0468 0.03 300.012 
139 1 1 0.137853 0.229319 1.68071 0 0 0 0 0 -2.86159 0 0 -2.77371 0 0 0 0.03 300 
7 1 1 0.426677 0.266248 1.70104 0 0 0 0.829891 0.0151916 -1.05684 0 0 -2.77371 -15.3658 -14.1953 6.62996 0.03 300.001 
51 1 1 0.201805 0.313726 1.68616 0 0 0 0 0 -2.84286 0 0 -2.77371 0 0 0 0.03 300 
144 1 1 0.368613 0.311971 1.7191 0 0 0 0 0 -2.72681 0 0 -2.77371 0 0 0 0.03 300 
56 1 1 0.445152 0.350079 1.71503 0 0 0 0 0 -2.74142 0 0 -2.77371 0 0 0 0.03 300 
104 1 1 0.324371 0.382136 1.73933 0 0 0 0 0 -2.65303 0 0 -2.77371 0 0 0 0.03 300 
77 1 1 0.218563 0.442358 1.72256 0 0 0 0 0 -2.71435 0 0 -2.77371 0 0 0 0.03 300 
24 1 1 0.443624 0.420038 1.72736 0 0 0 0.0274378 0.0568946 -2.22201 4.69694 6.17212 174.455 15.5456 -3.43064 -0.497261 0.03 300 
57 1 1 0.255601 0.512634 1.71571 0 0 0 0 0 -2.73897 0 0 -2.77371 0 0 0 0.03 300 
149 1 1 0.457968 0.50649 1.72307 0 0 0 0 0 -2.71248 0 0 -2.77371 0 0 0 0.03 300 
75 1 1 0.387927 0.516304 1.74545 0 0 0 0 0 -2.63027 0 0 -2.77371 0 0 0 0.03 300 
137 1 1 0.250314 0.231914 1.75735 0 0 0 0 0 -2.58554 0 0 -2.77371 0 0 0 0.03 300 
165 1 1 0.36833 0.235983 1.76013 0 0 0 0 0 -2.57495 0 0 -2.77371 0 0 0 0.03 300 
12 1 1 0.150682 0.290471 1.78102 0 0 0 0 0 -2.49411 0 0 -2.77371 0 0 0 0.03 300 
34 1 1 0.161462 0.479607 1.76322 0 0 0 0 0 -2.56317 0 0 -2.77371 0 0 0 0.03 300 
4 1 1 0.283869 0.446206 1.76284 0 0 0 0 0 -2.56465 0 0 -2.77371 0 0 0 0.03 300 
115 1 1 0.29951 0.265646 1.82284 0 0 0 0 0 -2.32381 0 0 -2.77371 0 0 0 0.03 300 
21 1 1 0.18594 0.400862 1.81266 0 0 0 0 0 -2.36639 0 0 -2.77371 0 0 0 0.03 300 
126 1 1 0.387846 0.395075 1.81969 0 0 0 0 0 -2.33705 0 0 -2.77371 0 0 0 0.03 300 
170 1 1 0.448147 0.302404 1.8378 0 0 0 0 0 -2.25975 0 0 -2.77371 0 0 0 0.03 300 
160 1 1 0.115232 0.435564 1.84125 0 0 0 0 0 -2.24474 0 0 -2.77371 0 0 0 0.03 300 
106 1 1 0.375691 0.47682 1.85768 0 0 0 0 0 -2.17176 0 0 -2.77371 0 0 0 0.03 300 
129 1 1 0.201147 0.51232 1.85807 0 0 0 0 0 -2.16999 0 0 -2.77371 0 0 0 0.03 300 
26 1 1 0.474436 0.482152 1.85642 0 0 0 0 0 -2.17745 0 0 -2.77371 0 0 0 0.03 300 
114 1 1 0.101873 0.240116 1.86522 0 0 0 0 0 -2.13742 0 0 -2.77371 0 0 0 0.03 300 
1 1 1 0.44893 0.24186 1.86908 0 0 0 0 0 -2.11966 0 0 -2.77371 0 0 0 0.03 300 
11 1 1 0.20764 0.30353 1.86082 0 0 0 0 0 -2.15753 0 0 -2.77371 0 0 0 0.03 300 
33 1 1 0.10471 0.363257 1.88837 0 0 0 0 0 -2.02843 0 0 -2.77371 0 0 0 0.03 300 
71 1 1 0.27192 0.349064 1.87104 0 0 0 0 0 -2.11054 0 0 -2.77371 0 0 0 0.03 300 
35 1 1 0.342434 0.364463 1.8962 0 0 0 0 0 -1.99017 0 0 -2.77371 0 0 0 0.03 300 
154 1 1 0.211019 0.445658 1.88715 0 0 0 0 0 -2.03432 0 0 -2.77371 0 0 0 0.03 300 
89 1 1 0.26845 0.48437 1.88355 0 0 0 0 0 -2.05158 0 0 -2.77371 0 0 0 0.03 300 
161 1 1 0.383875 0.233035 1.91565 0 0 0 0 0 -1.89188 0 0 -2.77371 0 0 0 0.03 300 
127 1 1 0.381994 0.300043 1.92427 0 0 0 0 0 -1.84665 0 0 -2.77371 0 0 0 0.03 300 
141 1 1 0.429803 0.380165 1.92627 0 0 0 0 0 -1.83596 0 0 -2.77371 0 0 0 0.03 300 
38 1 1 0.303454 0.414467 1.90941 0 0 0 0 0 -1.92395 0 0 -2.77371 0 0 0 0.03 300 
146 1 1 0.495146 0.246598 1.94527 0 0 0 0 0 -1.73148 0 0 -2.77371 0 0 0 0.03 300 
44 1 1 0.485944 0.343638 1.94152 0 0 0 0 0 -1.75257 0 0 -2.77371 0 0 0 0.03 300 
166 1 1 0.165431 0.374869 1.94949 0 0 0 0 0 -1.70745 0 0 -2.77371 0 0 0 0.03 300 
28 1 1 0.222318 0.404493 1.9657 0 0 0 0 0 -1.6116 0 0 -2.77371 0 0 0 0.03 300 
111 1 1 0.473074 0.424163 1.93436 0 0 0 0 0 -1.79221 0 0 -2.77371 0 0 0 0.03 300 
119 1 1 0.126835 0.482642 1.94841 0 0 0 0 0 -1.71363 0 0 -2.77371 0 0 0 0.03 300 
90 1 1 0.102204 0.238351 1.99705 0 0 0 0 0 -1.40785 0 0 -2.77371 0 0 0 0.03 300 
97 1 1 0.184928 0.234672 1.97829 0 0 0 0 0 -1.53303 0 0 -2.77371 0 0 0 0.03 300 
74 1 1 0.248328 0.247523 1.98693 0 0 0 0 0 -1.47672 0 0 -2.77371 0 0 0 0.03 300 
62 1 1 0.329189 0.252757 2.00077 0 0 0 0 0 -1.38176 0 0 -2.77371 0 0 0 0.03 300 
5 1 1 0.160428 0.3182 1.98721 0 0 0 0 0 -1.47485 0 0 -2.77371 0 0 0 0.03 300 
95 1 1 0.346797 0.327727 2.00675 0 0 0 0 0 -1.33859 0 0 -2.77371 0 0 0 0.03 300 
175 1 1 0.230789 0.339127 1.99255 0 0 0 0 0 -1.43895 0 0 -2.77371 0 0 0 0.03 300 
37 1 1 0.41824 0.41741 2.00326 0 0 0 0 0 -1.3639 0 0 -2.77371 0 0 0 0.03 300 
93 1 1 0.225968 0.488444 1.9765 0 0 0 0 0 -1.54441 0 0 -2.77371 0 0 0 0.03 300 
17 1 1 0.345254 0.512161 2.00353 0 0 0 0 0 -1.36194 0 0 -2.77371 0 0 0 0.03 300 
134 1 1 0.443832 0.509496 1.98688 0 0 0 0 0 -1.47701 0 0 -2.77371 0 0 0 0.03 300 
40 1 1 0.408343 0.240904 2.04061 0 0 0 0 0 -1.06185 0 0 -2.77371 0 0 0 0.03 300 
43 1 1 0.460616 0.284913 2.01223 0 0 0 0 0 -1.29778 0 0 -2.77371 0 0 0 0.03 300 
68 1 1 0.400811 0.324654 2.04471 0 0 0 0 0 -1.0233 0 0 -2.77371 0 0 0 0.03 300 
25 1 1 0.278223 0.363632 2.03083 0 0 0 0 0 -1.14867 0 0 -2.77371 0 0 0 0.03 300 
123 1 1 0.48159 0.360101 2.03371 0 0 0 0 0 -1.12375 0 0 -2.77371 0 0 0 0.03 300 
116 1 1 0.152794 0.405213 2.02294 0 0 0 0 0 -1.2142 0 0 -2.77371 0 0 0 0.03 300 
128 1 1 0.355123 0.421294 2.01297 0 0 0 0 0 -1.29219 0 0 -2.77371 0 0 0 0.03 300 
98 1 1 0.491139 0.43458 2.03834 0 0 0 0 0 -1.08255 0 0 -2.77371 0 0 0 0.03 300 
138 1 1 0.301221 0.470777 2.02755 0 0 0 0 0 -1.17633 0 0 -2.77371 0 0 0 0.03 300 
72 1 1 0.10161 0.511094 2.04207 0 0 0 0 0 -1.04831 0 0 -2.77371 0 0 0 0.03 300 
22 1 1 0.254767 0.230824 2.07097 0 0 0 -0 -0 -1 0 0 0 0 0 0 0.03 300 
73 1 1 0.170916 0.265084 2.07451 0 0 0 -0 -0 -1 0 0 0 0 0 0 0.03 300 
171 1 1 0.477654 0.251099 2.07033 0 0 0 -0 -0 -1 0 0 0 0 0 0 0.03 300 
110 1 1 0.10205 0.273683 2.07359 0 0 0 -0 -0 -1 0 0 0 0 0 0 0.03 300 
107 1 1 0.303471 0.271065 2.0797 0 0 0 -0 -0 -1 0 0 0 0 0 0 0.03 300 
31 1 1 0.221691 0.336081 2.06246 0 0 0 -0 -0 -1 0 0 0 0 0 0 0.03 300 
84 1 1 0.227036 0.399722 2.05273 0 0 0 -0 -0 -1 0 0 0 0 0 0 0.03 300 
148 1 1 0.12082 0.460146 2.07005 0 0 0 -0 -0 -1 0 0 0 0 0 0 0.03 300 
55 1 1 0.200976 0.455034 2.04831 0 0 0 -0 -0 -1 0 0 0 0 0 0 0.03 300 
136 1 1 0.374023 0.456818 2.06267 0 0 0 -0 -0 -1 0 0 0 0 0 0 0.03 300 
65 1 1 0.421483 0.499457 2.07254 0 0 0 -0 -0 -1 0 0 0 0 0 0 0.03 300 
150 1 1 0.481625 0.503918 2.0772 0 0 0 -0 -0 -1 0 0 0 0 0 0 0.03 300 
48 1 1 0.17066 0.517967 2.05622 0 0 0 -0 -0 -1 0 0 0 0 0 0 0.03 300 
164 1 1 0.244978 0.28843 2.09115 0 0 0 -0 -0 -1 0 0 0 0 0 0 0.03 300 
70 1 1 0.142707 0.355749 2.08494 0 0 0 -0 -0 -1 0 0 0 0 0 0 0.03 300 
53 1 1 0.294932 0.364362 2.09 0 0 0 -0 -0 -1 0 0 0 0 0 0 0.03 300 
102 1 1 0.419044 0.351535 2.09593 0 0 0 -0 -0 -1 0 0 0 0 0 0 0.03 300 
176 1 1 0.349719 0.399621 2.09537 0 0 0 -0 -0 -1 0 0 0 0 0 0 0.03 300 
153 1 1 0.496538 0.392613 2.08762 0 0 0 -0 -0 -1 0 0 0 0 0 0 0.03 300 
6 1 1 0.317689 0.454971 2.0924 0 0 0 -0 -0 -1 0 0 0 0 0 0 0.03 300 
147 1 1 0.248507 0.49546 2.09684 0 0 0 -0 -0 -1 0 0 0 0 0 0 0.03 300 
52 1 1 0.358392 0.516981 2.09661 0 0 0 -0 -0 -1 0 0 0 0 0 0 0.03 300 
