ITEM: TIMESTEP
113000
ITEM: NUMBER OF ATOMS
527
ITEM: BOX BOUNDS ff ff ff
0 3.3
-0.3 0.8
-0.5 3
ITEM: ATOMS id type type x y z ix iy iz vx vy vz fx fy fz omegax omegay omegaz radius f_Temp[0] 
343 1 1 0.172241 0.173442 1.58955 0 0 0 0.955952 0.04208 -0.0661873 0.150057 2.2741 -2.00576 -22.3326 -85.8345 54.0893 0.03 307.212 
213 1 1 0.279866 0.180906 1.58434 0 0 0 1.28459 -0.0329682 0.153522 0 0 -2.77371 7.45684 -96.7377 32.6179 0.03 330.97 
248 1 1 0.488875 0.184927 1.57759 0 0 0 2.24223 0.151866 -0.0488457 -0.782053 2.20193 0.874051 -3.74731 -50.797 34.698 0.03 331.998 
97 1 1 0.561193 0.159497 1.60242 0 0 0 1.74887 -0.170275 -0.233147 -31.5739 31.9603 -55.1479 15.1221 -32.8096 43.0439 0.03 351.943 
307 1 1 0.620066 0.166154 1.59626 0 0 0 2.03061 -0.0169656 0.123125 -3.51647 -4.55931 0.565514 -5.41435 -51.0611 45.9922 0.03 307.595 
22 1 1 0.748267 0.1854 1.57765 0 0 0 2.43162 0.0044588 0.00361247 0.332948 0.430679 -2.24068 4.03574 -62.4834 -14.6766 0.03 336.641 
288 1 1 0.803792 0.167212 1.59545 0 0 0 2.26645 0.152748 -0.147361 -1.53314 0.454388 -0.845996 -7.3869 -35.8186 46.1398 0.03 330.776 
90 1 1 0.906317 0.190295 1.57686 0 0 0 2.57067 0.0621206 0.000221564 -0.000535516 6.28637e-06 -0.0132432 -2.07915 -47.8392 30.7538 0.03 355.785 
114 1 1 0.984254 0.183042 1.57979 0 0 0 3.03724 0.24965 -0.260742 1.52464 -0.0377219 0.460396 -10.2738 -9.40213 22.883 0.03 342.327 
221 1 1 1.05511 0.188171 1.57624 0 0 0 2.82733 0.292057 0.125079 -3.35408 1.457 8.07146 -11.2189 -43.1199 18.5169 0.03 320.159 
43 1 1 1.24194 0.191894 1.57915 0 0 0 3.01269 0.0588812 -0.00466366 0 0 -2.77371 -1.96582 -33.004 -13.0717 0.03 304.979 
40 1 1 1.33684 0.186208 1.57674 0 0 0 2.91058 -0.0228843 -0.0188207 -2.88737 -0.6563 -1.58431 0.854639 -35.0974 11.5246 0.03 350.966 
58 1 1 1.38942 0.166521 1.59657 0 0 0 2.8797 0.0537392 -0.0106677 5.7193 -0.603731 1.78351 -0.374331 -19.4827 31.2942 0.03 370.034 
141 1 1 1.48184 0.194244 1.57685 0 0 0 3.24256 0.112042 -0.00696664 0.0905986 1.91732 -0.665958 -3.58598 -25.4376 -8.46896 0.03 328.666 
161 1 1 1.54284 0.186848 1.57687 0 0 0 3.25511 0.0352108 0.00341833 0.0234121 -0.00772046 -0.243563 -1.16825 -24.8661 15.0793 0.03 360.618 
258 1 1 0.0710389 0.195022 1.57751 0 0 0 0.0287375 -0.620143 0.187365 0 0 -2.77371 20.6796 -133 -21.1587 0.03 306.83 
193 1 1 0.401647 0.200911 1.57711 0 0 0 1.70752 -0.356517 0.11322 0 0 -2.77371 11.8164 -76.4506 8.69029 0.03 307.705 
230 1 1 0.522853 0.234264 1.57685 0 0 0 2.15979 0.281554 0.12045 0.417186 0.175384 -4.99614 -19.2606 -45.8485 -1.8264 0.03 317.507 
132 1 1 0.61923 0.222118 1.57791 0 0 0 1.993 0.219428 0.19163 1.9825 7.73586 -0.455622 11.3539 -63.6919 -6.1228 0.03 345.457 
164 1 1 0.839851 0.210564 1.57631 0 0 0 2.36633 0.169223 0.0968653 2.46998 1.14884 2.24502 -5.65077 -55.3387 -16.5637 0.03 335.923 
3 1 1 1.01603 0.233582 1.57684 0 0 0 2.87427 0.348006 -0.00325261 0.142845 1.40376 -0.0138664 -11.7269 -38.0481 -7.72535 0.03 367.254 
51 1 1 1.11276 0.207584 1.57682 0 0 0 2.92872 0.25456 -0.0422644 10.5441 12.3886 -4.683 -7.7449 -30.6666 8.17998 0.03 341.194 
171 1 1 1.17364 0.209073 1.57657 0 0 0 2.81643 0.323944 0.150167 0.164085 -0.0532232 -2.36425 11.4939 -20.194 -6.17141 0.03 313.424 
95 1 1 1.29373 0.22961 1.57686 0 0 0 3.01946 0.0847396 -0.000966462 0.00200722 -0.000161184 -0.0040599 -2.83603 -32.8159 -3.52119 0.03 331.793 
91 1 1 1.38332 0.223526 1.57701 0 0 0 2.81201 0.0633779 -0.0874998 1.77313 0.443336 -1.79031 -4.48637 -38.1713 -4.6068 0.03 351.133 
165 1 1 1.63011 0.200894 1.57695 0 0 0 3.04158 0.188126 -0.000379187 -0.00322393 -0.0212276 -1.3417 -6.26861 -32.0078 22.8228 0.03 344.276 
202 1 1 0.102523 0.249195 1.58535 0 0 0 -0.330523 -0.407337 -1.06034 0 0 -2.77371 -53.5817 29.9455 -7.95475 0.03 300.024 
284 1 1 0.173307 0.234062 1.57696 0 0 0 0.698702 0.173564 -0.392934 24.7643 -3.90447 14.0306 -2.2911 -88.0984 3.83774 0.03 307.002 
185 1 1 0.313185 0.244941 1.57687 0 0 0 1.80393 -0.496269 0.457167 -3.30059 0.62973 -11.7872 16.3265 -76.5464 -27.0302 0.03 319.624 
180 1 1 0.57785 0.264573 1.57853 0 0 0 1.99787 0.43744 -0.13483 -2.76419 3.56524 -4.8987 15.1883 -36.0479 -9.53583 0.03 318.096 
110 1 1 0.787937 0.251458 1.57697 0 0 0 2.39475 0.00766114 0.0148895 0.789857 -2.9459 -0.723754 -0.402157 -53.7431 8.83717 0.03 350.233 
107 1 1 0.879483 0.25813 1.57693 0 0 0 2.30827 -0.0691809 0.00510586 1.36321 -1.14973 -0.387231 2.26965 -56.6179 -1.95858 0.03 327.567 
68 1 1 0.957276 0.251036 1.57843 0 0 0 2.85936 -0.435481 0.129832 0 0 -2.77371 14.4862 -24.1543 0.241255 0.03 304.068 
5 1 1 1.07456 0.259004 1.57687 0 0 0 2.37932 0.060802 0.000263162 -0.00119681 -9.03342e-05 -0.0921546 -2.03475 -54.2373 -13.6749 0.03 352.624 
146 1 1 1.52064 0.248457 1.57684 0 0 0 3.03553 0.0396677 -0.00753724 1.75179 0.2211 0.757657 -5.35627 -0.37787 -1.53681 0.03 313.762 
15 1 1 1.57998 0.236561 1.57687 0 0 0 3.12464 0.331379 0.00217256 1.23941 0.329896 -0.208579 -14.6418 -15.9517 -0.596559 0.03 365.504 
488 1 1 0.339114 0.52293 2.44217 0 0 0 -0 -0 -1 0 0 0 0 0 0 0.03 300 
197 1 1 0.226177 0.303176 1.57376 0 0 0 1.02192 -0.0490549 -0.0398518 -8.08801 -5.79742 47.2424 -9.39644 -108.784 15.7939 0.03 307.018 
206 1 1 0.358755 0.290995 1.57761 0 0 0 1.70256 -0.148707 0.487728 0 0 -2.77371 6.09833 -77.2909 2.81892 0.03 328.554 
351 1 1 0.426652 0.286121 1.5782 0 0 0 1.40838 0.170975 0.121253 0 0 -2.77371 -4.82737 -87.5714 10.9716 0.03 318.537 
338 1 1 0.689637 0.27754 1.59065 0 0 0 1.40877 -0.26321 -0.963198 0 0 -2.77371 -8.72207 -19.1931 -9.26053 0.03 300.086 
70 1 1 0.83395 0.296864 1.5766 0 0 0 2.43433 0.0761008 0.0256559 1.77706 -0.32272 0.879378 -2.45532 -52.7099 -1.14644 0.03 342.69 
12 1 1 1.17358 0.27252 1.57686 0 0 0 2.69656 0.322308 0.000169104 -0.000428654 4.97534e-05 0.0646162 -10.7888 -43.6312 -12.0767 0.03 351.886 
19 1 1 1.34422 0.278862 1.57686 0 0 0 2.84349 0.0371071 0.000401251 -0.00222732 -0.000150331 -0.0434566 -1.24098 -38.708 -6.7997 0.03 325.639 
13 1 1 1.45267 0.281863 1.57692 0 0 0 3.03587 -0.0926218 -0.000347831 3.40801 0.93595 -2.03008 3.39668 -30.9579 3.23813 0.03 391.346 
64 1 1 1.55706 0.297647 1.57699 0 0 0 2.86568 0.220762 0.0398315 9.05168 -3.13983 1.16181 -7.19499 -37.5303 10.8794 0.03 382.225 
78 1 1 1.61801 0.284499 1.57674 0 0 0 2.93684 0.532655 0.0979155 -1.31786 -1.19201 -3.49377 -18.3204 -35.2445 7.41325 0.03 352.545 
324 1 1 0.123107 0.321726 1.5785 0 0 0 0.857629 -0.290042 0.218997 0 0 -2.77371 25.6992 -56.747 -10.6442 0.03 303.407 
339 1 1 0.52153 0.319107 1.57709 0 0 0 1.98334 -0.0675512 0.133607 -0.410748 -0.0239223 -5.60058 2.24966 -67.6304 1.15286 0.03 341.732 
209 1 1 0.77554 0.309808 1.57674 0 0 0 2.47238 0.0362074 -0.0211823 -1.72839 0.721205 0.779531 -0.910135 -50.5973 -4.99482 0.03 321.301 
313 1 1 0.916542 0.310436 1.57687 0 0 0 2.27969 -0.0763626 0.00355405 -0.0138024 -0.000478046 -0.229922 2.55585 -57.5737 -14.5579 0.03 315.739 
166 1 1 1.01793 0.308923 1.57686 0 0 0 2.28814 -0.271309 -6.89717e-07 2.23891e-06 3.5484e-07 -7.54309e-05 9.08068 -57.2958 17.9709 0.03 352.021 
127 1 1 1.22833 0.306748 1.57681 0 0 0 2.88391 0.260537 0.000741521 0.00234937 -0.000589554 0.93259 -8.73278 -37.4096 2.92766 0.03 325.848 
225 1 1 1.29096 0.325764 1.57674 0 0 0 3.03338 0.0794366 -0.00171889 -1.61051 -4.17131 1.42174 -7.56637 1.24186 -3.48897 0.03 307.573 
11 1 1 1.40334 0.315494 1.57728 0 0 0 3.03375 -0.0364074 -0.020873 1.03495 -0.829166 -2.22814 2.51829 -7.25726 -5.12119 0.03 368.144 
123 1 1 1.50107 0.317609 1.57714 0 0 0 2.8862 0.0745945 0.0426668 -0.981726 -2.33784 -2.55267 1.82943 -27.766 -4.58349 0.03 345.822 
513 1 1 0.257051 0.497454 2.43406 0 0 0 -0 -0 -1 0 0 0 0 0 0 0.03 300 
257 1 1 0.059917 0.341689 1.57696 0 0 0 0.401016 0.210171 0.0159545 -0.312684 0.0285585 -2.0976 -7.01563 -120.273 2.14718 0.03 318.314 
298 1 1 0.326943 0.362385 1.575 0 0 0 1.73809 0.00526993 -0.515416 -23.6251 20.612 54.0966 9.42946 -61.4269 -22.8565 0.03 332.489 
331 1 1 0.383205 0.348673 1.57548 0 0 0 0.93972 0.000658968 0.160511 48.735 -31.995 65.3326 0.602394 6.03698 17.8027 0.03 305.016 
300 1 1 0.494319 0.374248 1.57677 0 0 0 1.97814 0.0040277 -0.0144609 -0.133036 0.183503 2.32329 -0.499476 -68.2573 9.22193 0.03 335.197 
31 1 1 0.577749 0.371887 1.57628 0 0 0 2.3471 0.00278763 -0.260435 17.6068 -7.97066 5.45837 -0.503287 -54.243 -7.09833 0.03 332.934 
340 1 1 0.682831 0.34909 1.57642 0 0 0 2.28423 0.226152 -0.00643174 0.547233 -1.62128 6.50959 -6.07388 -57.8722 9.43817 0.03 314.225 
233 1 1 0.929384 0.370993 1.57682 0 0 0 2.66827 -0.0772095 -0.00357455 0.0124269 0.00679913 0.853874 2.58581 -44.6199 0.384231 0.03 308.183 
175 1 1 1.17596 0.343136 1.57682 0 0 0 2.91861 0.334332 0.0179436 0.051099 0.159859 -0.277952 -10.82 -36.4931 12.7534 0.03 333.743 
35 1 1 1.34904 0.339954 1.57661 0 0 0 3.06819 0.125907 0.0563235 -0.706145 0.453605 0.584619 0.286502 -19.5295 3.2056 0.03 342.427 
94 1 1 1.45183 0.350506 1.57661 0 0 0 2.89201 0.171592 -0.0771243 -1.52691 2.40785 5.16829 2.13765 -25.1709 1.12375 0.03 358.69 
24 1 1 1.59159 0.365549 1.57777 0 0 0 3.42418 0.101687 0.0620304 0 0 -2.77371 -3.41225 -19.1822 1.69716 0.03 307.248 
316 1 1 0.204756 0.38354 1.57617 0 0 0 1.16319 0.085957 -0.409424 -17.2622 -22.0502 -40.2343 -12.3537 -66.8652 -24.4191 0.03 317.781 
277 1 1 0.40801 0.405278 1.57873 0 0 0 2.24153 0.147456 0.207485 0 0 -2.77371 -5.21396 -58.4441 -9.56954 0.03 307.469 
53 1 1 0.778416 0.385798 1.57679 0 0 0 2.15168 0.346301 0.0169146 -0.0607653 0.0109138 0.515168 -11.6148 -61.992 0.782016 0.03 325.933 
128 1 1 0.995811 0.404972 1.57686 0 0 0 2.57586 0.0797756 -3.16518e-05 0.000102147 -5.72221e-06 0.00164863 -2.67008 -47.6659 -6.99507 0.03 325.575 
38 1 1 1.07911 0.375763 1.57689 0 0 0 2.32041 0.0943256 0.00670471 -0.0361468 -0.0728277 -0.688471 -3.17243 -56.18 -0.890614 0.03 348.998 
187 1 1 1.20976 0.392654 1.57746 0 0 0 2.82776 0.446524 -0.196761 -0.28916 -0.456549 -2.5115 -16.6707 -37.9651 -10.8196 0.03 303.884 
291 1 1 1.30639 0.38347 1.57686 0 0 0 2.93231 -0.0102148 0.00757331 2.92893 4.46069 0.445996 0.396413 -36.293 1.28824 0.03 325.238 
126 1 1 1.529 0.388392 1.57686 0 0 0 3.14987 0.282571 0.000288158 -0.000548357 0.000185391 0.000245311 -9.45785 -28.4545 -12.4234 0.03 343.971 
289 1 1 0.216244 0.450257 1.57761 0 0 0 1.098 0.627138 -0.0492192 0 0 -2.77371 -20.4585 -86.8104 -6.26761 0.03 325.677 
285 1 1 0.276152 0.442843 1.57392 0 0 0 1.68127 -0.113148 -0.1757 77.6983 8.81738 56.0347 -14.7477 -52.4539 -2.82381 0.03 306.573 
344 1 1 0.334642 0.42688 1.58601 0 0 0 1.46193 0.397035 -0.583764 0 0 -2.77371 -49.1354 -9.15385 9.34525 0.03 300.305 
270 1 1 0.507459 0.44412 1.57661 0 0 0 2.05252 -0.0284503 0.0335272 -0.869772 -1.10415 3.49519 2.00786 -66.3743 6.85993 0.03 317.463 
148 1 1 0.613069 0.438842 1.57553 0 0 0 2.33885 0.18096 0.128512 -1.26094 1.18058 4.10791 -6.53337 -58.2961 -11.61 0.03 338.125 
77 1 1 1.08912 0.435253 1.57686 0 0 0 2.13622 0.197349 -0.0336832 -0.766663 -2.01726 -0.57998 -13.3213 -60.5816 6.07767 0.03 355.772 
135 1 1 1.32045 0.442561 1.57684 0 0 0 2.89248 0.0248562 0.0101449 -0.0303017 -0.0324675 -0.141972 -0.914408 -37.0809 1.21257 0.03 369.127 
101 1 1 1.4488 0.412485 1.57683 0 0 0 2.89063 0.000581826 0.000539708 0.0127987 0.193258 -0.491405 0.615611 -37.2067 -3.06239 0.03 372.07 
223 1 1 0.128464 0.456388 1.57461 0 0 0 1.27106 -0.288637 -0.143774 10.4685 8.08497 78.8314 11.9429 -102.215 -9.37671 0.03 310.929 
245 1 1 0.448097 0.469285 1.57667 0 0 0 1.91929 0.163767 0.0702871 0.0456832 0.0198419 0.17582 -5.50092 -69.8894 -3.38085 0.03 317.548 
352 1 1 0.681006 0.463363 1.58107 0 0 0 2.62702 0.0829054 0.176798 0 0 -2.77371 -2.77733 -45.9535 -11.8206 0.03 304.869 
84 1 1 0.745122 0.47211 1.57686 0 0 0 2.23126 0.126495 0.0134431 -0.0535226 0.00282734 -0.650066 -4.23237 -59.2062 5.3805 0.03 338.869 
176 1 1 0.896407 0.46515 1.57686 0 0 0 2.34786 0.291767 -1.0827e-05 5.28457e-05 -9.22082e-06 0.00379923 -9.76546 -55.2974 3.7442 0.03 333.457 
25 1 1 1.00315 0.468976 1.57695 0 0 0 2.48583 -0.00472709 -0.0582757 1.83717 0.453866 1.01109 -1.12482 -45.3639 -2.05718 0.03 333.222 
169 1 1 1.37685 0.471344 1.57687 0 0 0 2.77759 -0.232178 0.0351372 1.07955 -0.441949 -1.21213 7.78578 -40.9877 4.7013 0.03 355.656 
134 1 1 1.45379 0.472122 1.57673 0 0 0 2.69361 0.0810917 0.056879 -0.0206105 -0.131834 -0.644406 -5.28943 -43.0963 10.0863 0.03 337.257 
37 1 1 1.51605 0.479043 1.57684 0 0 0 2.80332 0.0787096 -0.0207052 -0.153089 0.725342 -0.987357 -2.92822 -40.38 1.46473 0.03 345.583 
69 1 1 1.57746 0.465871 1.57686 0 0 0 2.81932 -0.0118186 -0.000563487 0.00145236 1.94663e-06 0.0134421 0.395567 -39.5163 -6.4876 0.03 383.547 
111 1 1 1.64665 0.446102 1.57686 0 0 0 2.84341 -0.103221 0.000276471 -0.000461479 -4.80167e-05 0.0924628 3.45538 -38.7174 2.9999 0.03 354.779 
255 1 1 0.242886 0.50933 1.58362 0 0 0 1.21451 0.787619 0.189763 0 0 -2.77371 -26.6077 -93.4221 -18.8325 0.03 323.125 
308 1 1 0.388872 0.507872 1.57521 0 0 0 1.79454 0.3435 -0.339568 24.1983 -9.78363 33.0249 -6.26396 -78.0054 -4.67181 0.03 321.386 
279 1 1 0.499913 0.514241 1.57678 0 0 0 1.7935 0.1439 0.0425239 0.153087 0.208419 -0.996306 -9.9725 -70.7823 10.8121 0.03 331.871 
178 1 1 0.608803 0.503776 1.5752 0 0 0 2.78204 0.203351 -0.168178 -1.52355 -12.6805 14.8609 -9.91984 -41.2073 -0.400237 0.03 305.583 
116 1 1 0.821499 0.511719 1.57806 0 0 0 2.39261 -0.249602 0.173638 1.39005 -4.22745 -0.433247 10.1256 -49.6391 3.2168 0.03 355.814 
6 1 1 0.950497 0.498463 1.57697 0 0 0 2.50319 0.176345 0.00193825 -0.145629 0.0663974 -1.64951 -5.91885 -50.0286 2.32303 0.03 333.983 
160 1 1 1.04974 0.507295 1.57673 0 0 0 2.67453 -0.170042 -0.017909 -0.227098 -2.40406 0.58029 5.82433 -44.9431 -6.9914 0.03 361.837 
4 1 1 1.11141 0.490781 1.57644 0 0 0 2.53835 -0.10418 -0.153227 13.35 1.02416 -1.68902 0.497912 -48.8561 -16.0515 0.03 345.47 
117 1 1 1.25558 0.490452 1.57687 0 0 0 2.5759 -0.666041 -0.000260766 0.000549515 0.00024963 -0.0730274 22.2893 -47.6583 20.3761 0.03 355.093 
136 1 1 1.32573 0.502498 1.57686 0 0 0 2.96354 0.0364612 -0.013556 0.539457 0.259867 0.207411 0.402656 9.77601 -0.804852 0.03 339.83 
104 1 1 1.6222 0.509471 1.57687 0 0 0 2.87405 0.0157128 -0.00671465 0.0171284 -0.000565965 0.238447 -0.525444 -37.6792 -1.20053 0.03 362.113 
182 1 1 0.286814 0.551486 1.57758 0 0 0 1.49163 0.503169 0.243108 0 0 -2.77371 -16.9635 -84.7656 7.96191 0.03 308.528 
272 1 1 0.442351 0.542627 1.57683 0 0 0 1.82699 0.629243 -0.00293604 1.65671 -0.423077 0.646035 -7.02925 -17.7808 1.34204 0.03 324.752 
21 1 1 0.911642 0.546392 1.58707 0 0 0 2.42865 -0.131022 0.432211 5.53228 -2.96782 6.34828 14.4313 -32.7151 -9.73663 0.03 343.139 
34 1 1 1.16501 0.521568 1.57664 0 0 0 2.91006 -0.353952 0.0534274 1.97345 0.935028 1.59379 3.04111 -17.9395 7.84562 0.03 338.763 
61 1 1 1.46774 0.530148 1.57705 0 0 0 2.69124 0.159293 -0.0139934 1.7113 -3.18783 -13.7989 -5.63104 -43.19 -11.8161 0.03 363.519 
152 1 1 1.55758 0.525033 1.57684 0 0 0 2.90273 0.0548536 0.00362058 -0.00841515 0.00051306 0.288784 -1.83813 -36.7521 -11.353 0.03 376.514 
238 1 1 0.187481 0.553926 1.57633 0 0 0 1.38147 -0.0476911 0.0645003 5.85253 -0.915772 9.07377 4.42651 -70.4745 5.85545 0.03 305.291 
304 1 1 0.525495 0.568372 1.57726 0 0 0 2.05979 0.0129608 0.0393732 3.56571 -2.39769 0.94221 -6.53281 -27.9424 -26.584 0.03 349.116 
249 1 1 0.584627 0.558814 1.57671 0 0 0 2.13239 0.0827083 0.0276009 0.620218 -1.27248 0.323415 26.2584 -37.8835 20.5238 0.03 337.958 
226 1 1 0.737147 0.561923 1.5768 0 0 0 2.39942 0.286504 -0.00543525 0.0412895 -0.0206956 0.927233 -9.59502 -53.5262 -7.19397 0.03 340.953 
119 1 1 0.796859 0.565732 1.57612 0 0 0 2.43371 -0.136259 0.0579658 5.54072 -7.84524 4.61821 9.86508 -48.3603 -6.89699 0.03 360.289 
48 1 1 0.856523 0.563602 1.57541 0 0 0 2.49764 -0.0963823 -0.0350742 1.58574 13.5787 1.53046 -1.59588 -27.8242 9.48932 0.03 341.066 
227 1 1 1.05888 0.568387 1.57775 0 0 0 2.77455 -0.0011511 -0.0537331 0.00358805 0.402758 -0.1767 -0.425007 -47.7862 -10.0278 0.03 336.565 
147 1 1 1.12204 0.564273 1.57701 0 0 0 2.95015 -0.160107 -0.0117492 0.321806 -0.43995 -1.68355 6.81417 -33.9722 -28.0907 0.03 343.738 
17 1 1 1.23307 0.556893 1.57696 0 0 0 2.91816 -0.141032 -0.0077982 0.777754 -0.0633634 -1.21305 5.35718 -28.2303 -12.5276 0.03 340.63 
75 1 1 1.29684 0.557781 1.577 0 0 0 3.12644 -0.458934 -0.0291498 -0.256087 -0.0387178 -0.852379 15.2964 -29.0486 -28.5567 0.03 329.61 
16 1 1 1.3577 0.553765 1.57699 0 0 0 2.81964 0.137402 -0.0128076 -0.00933138 0.00276397 -1.32936 -4.59419 -39.3265 2.33369 0.03 366.244 
118 1 1 1.41635 0.568725 1.57796 0 0 0 2.93379 0.021622 0.017174 0.540603 -0.686004 -1.39102 -2.9688 -39.7049 -7.80469 0.03 363.148 
365 1 1 0.173276 0.491192 2.4416 0 0 0 -0 -0 -1 0 0 0 0 0 0 0.03 300 
156 1 1 1.5501 0.588019 1.59709 0 0 0 3.01299 -0.161656 -0.159332 0.351121 -0.45819 -1.19621 7.6702 -30.6499 -16.2244 0.03 358.047 
186 1 1 0.386093 0.145338 1.62308 0 0 0 2.11433 -0.139609 0.222952 0 0 -2.77371 8.86346 -53.92 46.3866 0.03 303.558 
137 1 1 0.74055 0.137924 1.62502 0 0 0 2.08098 0.292889 -0.284415 -0.0298586 0.884614 -1.22289 -13.6343 -32.9595 57.8044 0.03 339.121 
76 1 1 1.04443 0.145234 1.61769 0 0 0 2.67391 0.379517 -0.37563 0.997087 1.26201 -1.09494 -13.2756 -14.649 26.3614 0.03 328.46 
115 1 1 1.18942 0.159384 1.60549 0 0 0 2.5189 0.0560926 0.0818133 0.0962606 -0.243874 -2.39312 5.20721 -41.7532 28.5094 0.03 337.473 
49 1 1 1.465 0.150099 1.6134 0 0 0 3.02949 0.0439399 -0.181429 -0.158803 -1.90703 -1.63283 -4.17647 -13.0033 31.1088 0.03 313.711 
194 1 1 0.329216 0.174745 1.62393 0 0 0 1.46401 -0.6686 0.354225 0 0 -2.77371 -8.76043 62.0741 -20.2859 0.03 301.014 
252 1 1 0.684779 0.17109 1.61021 0 0 0 1.21899 -0.390292 -0.827013 0 0 -2.77371 -1.83828 3.04671 -16.0242 0.03 300.661 
281 1 1 1.10784 0.165529 1.61825 0 0 0 2.62963 0.137091 -0.366141 -7.75482 -12.6086 4.73138 18.6271 -21.8268 15.9799 0.03 313.606 
315 1 1 0.21555 0.225433 1.61784 0 0 0 1.00211 -0.138321 -0.462481 0.047805 -0.0158751 -2.63673 3.74112 27.9588 -11.1487 0.03 300.291 
349 1 1 0.42914 0.219231 1.6275 0 0 0 0.90592 0.0304131 0.682367 0 0 -2.77371 -13.5058 43.8595 9.33912 0.03 300.4 
319 1 1 0.831476 0.223786 1.63354 0 0 0 1.82482 0.0555641 0.118912 0.345494 2.96389 3.26814 14.0605 30.6363 -11.7192 0.03 301.057 
189 1 1 0.350624 0.240401 1.62347 0 0 0 2.00321 -0.524999 0.94478 -3.51214 0.133927 -11.6686 -17.1744 74.8369 25.9012 0.03 300.281 
322 1 1 0.987289 0.243825 1.63109 0 0 0 2.20267 0.109289 -0.395757 0 0 -2.77371 -28.6268 32.745 -20.5196 0.03 301.542 
44 1 1 1.41069 0.26094 1.61393 0 0 0 2.88298 0.115939 -0.0980802 2.43509 3.39922 4.3725 3.09158 37.0561 3.54532 0.03 306.329 
253 1 1 0.257279 0.267911 1.6076 0 0 0 0.601962 -0.94952 0.00471269 11.5446 -12.0366 28.95 61.9532 56.3501 -6.88878 0.03 300.07 
240 1 1 0.503328 0.274645 1.61679 0 0 0 1.05246 0.149017 -0.0777074 0 0 -2.77371 25.7889 2.87502 12.5205 0.03 300.585 
282 1 1 0.600504 0.291885 1.62743 0 0 0 1.75084 -0.28487 0.0856653 0 0 -2.77371 -9.2576 12.2738 3.33911 0.03 300.197 
211 1 1 0.35211 0.320217 1.63095 0 0 0 0.176943 0.843457 0.671669 0 0 -2.77371 -35.0357 8.96083 -23.3088 0.03 300.495 
212 1 1 0.54351 0.319899 1.63323 0 0 0 1.30114 -0.436331 0.679404 0 0 -2.77371 15.5103 40.9145 8.48812 0.03 301.332 
71 1 1 0.836234 0.334607 1.62268 0 0 0 2.0532 0.23306 -0.069741 0.425017 1.4572 0.691626 -4.1631 46.5067 12.8845 0.03 303.58 
73 1 1 0.261151 0.343932 1.59463 0 0 0 0.500832 0.263987 -0.690076 33.3864 21.4955 51.6503 12.3054 54.1968 -8.52786 0.03 301.706 
234 1 1 0.43791 0.347753 1.5926 0 0 0 1.74996 0.31404 -0.844875 47.4831 -1.84502 5.42481 0.457061 45.2429 -6.66044 0.03 300.356 
216 1 1 0.682962 0.37252 1.63109 0 0 0 1.73909 0.340749 0.00362273 -0.227836 1.41888 1.30996 2.10687 41.3239 -1.45855 0.03 300.271 
309 1 1 0.085617 0.40646 1.60965 0 0 0 -0.744749 -0.248494 -0.696173 0 0 -2.77371 14.5939 31.0168 17.2761 0.03 300.422 
204 1 1 0.248767 0.399811 1.60951 0 0 0 0.488455 -0.0095293 -0.394752 -21.6029 23.8074 35.657 -15.7745 38.3944 4.70052 0.03 300.826 
250 1 1 0.391413 0.378171 1.63133 0 0 0 0.825588 -0.0132523 -0.309581 0.308065 -0.0494905 -4.40079 8.26536 -25.547 8.80478 0.03 300.074 
334 1 1 0.584545 0.389527 1.6319 0 0 0 1.31551 -0.530384 -0.047395 -5.11592 6.86837 19.2583 18.1732 16.3249 -3.10847 0.03 300.655 
153 1 1 1.46153 0.384995 1.62838 0 0 0 2.88067 -0.115942 -0.0315137 0.146448 -0.0413159 -1.82191 4.09011 33.6985 8.76672 0.03 306.014 
346 1 1 0.45265 0.415998 1.61971 0 0 0 0.612495 0.178418 -0.28096 0 0 -2.77371 -15.0818 2.66968 -6.19525 0.03 301.421 
274 1 1 0.642765 0.417671 1.62164 0 0 0 1.77619 -0.566165 -0.0227057 4.59399 -4.11057 26.5464 21.1287 34.1495 -7.26005 0.03 300.343 
254 1 1 0.760644 0.428424 1.61653 0 0 0 2.27512 -0.101119 -0.319898 0 0 -2.77371 10.989 38.7951 27.8023 0.03 301.087 
269 1 1 0.291282 0.471369 1.62102 0 0 0 0.411852 0.71068 -0.137509 20.2497 37.9969 36.5468 -9.86013 -3.82259 6.76429 0.03 300.04 
296 1 1 1.06208 0.474074 1.625 0 0 0 2.13506 -0.394721 -0.0193863 0.178809 -0.300802 -2.5856 6.28026 31.1948 1.09463 0.03 302.18 
190 1 1 0.408845 0.483016 1.62328 0 0 0 0.71197 0.0545504 0.0839866 -5.40097 -0.228173 26.191 20.8675 26.089 8.28375 0.03 301.567 
263 1 1 0.520773 0.489173 1.63062 0 0 0 1.55719 0.297804 -0.101009 -27.8121 1.70217 -54.6014 8.00007 50.7449 4.72623 0.03 301.984 
262 1 1 0.634573 0.477527 1.62013 0 0 0 1.83752 -0.558893 0.172519 8.46855 -15.3079 28.5309 38.1942 8.46711 -16.1176 0.03 300.131 
20 1 1 1.48674 0.499412 1.62481 0 0 0 2.36299 0.0628198 -0.318428 -2.20205 3.88714 11.589 -0.481959 27.4993 8.76284 0.03 302.975 
208 1 1 0.326922 0.545637 1.62305 0 0 0 1.33853 0.572066 0.859062 0 0 -2.77371 15.2287 69.4307 -4.88618 0.03 300.179 
198 1 1 0.577969 0.517503 1.62536 0 0 0 1.80073 0.00789012 -0.279026 0 0 -2.77371 23.7673 -3.12022 0.974208 0.03 300.065 
28 1 1 0.632684 0.543076 1.61155 0 0 0 2.25172 0.0789099 -0.023075 11.4428 19.0687 20.5091 9.03265 13.4308 7.90399 0.03 302.979 
265 1 1 0.724548 0.517616 1.61838 0 0 0 1.52612 -0.0826404 -0.572702 0 0 -2.77371 -0.459893 2.90817 -10.1667 0.03 301.477 
102 1 1 0.955717 0.541002 1.62642 0 0 0 2.23271 -0.167601 0.678812 5.93376 -3.35248 0.397478 -11.1186 22.2215 11.5334 0.03 302.174 
106 1 1 1.0138 0.535998 1.6145 0 0 0 2.10095 -0.34924 -0.358019 -0.319972 -15.8962 9.58126 6.33755 15.7159 5.029 0.03 303.82 
150 1 1 1.10248 0.524808 1.62323 0 0 0 1.87759 -0.0400553 -0.220802 -1.97147 12.2516 19.4967 4.77788 31.1206 16.4193 0.03 301.893 
98 1 1 1.39297 0.521152 1.61546 0 0 0 2.60365 0.0683446 -0.234169 0 0 -2.77371 -11.883 44.632 8.16315 0.03 302.554 
290 1 1 0.239031 0.58186 1.60017 0 0 0 0.382491 -0.424021 -0.681896 16.4308 -8.21333 1.49504 61.8594 19.5543 13.8733 0.03 300.181 
243 1 1 0.801303 0.585436 1.63184 0 0 0 1.72039 0.245069 -0.0173389 -0.636031 5.13899 6.24085 -26.3197 8.19951 -32.8528 0.03 301.316 
2 1 1 1.50299 0.557203 1.61694 0 0 0 2.89355 0.0485913 -0.0257551 -1.03565 -0.736003 -1.71668 4.08072 44.7911 1.49183 0.03 319.281 
303 1 1 0.185545 0.601653 1.61307 0 0 0 0.368831 0.114278 -0.103878 -16.4308 8.21333 -7.04246 11.9463 -47.6668 -53.492 0.03 322.888 
237 1 1 0.357078 0.600215 1.61341 0 0 0 1.02812 0.103591 0.34076 0 0 -2.77371 -13.8028 -69.5206 -72.6863 0.03 310.491 
55 1 1 0.570218 0.601071 1.61621 0 0 0 2.17455 0.132355 0.141332 -0.0197193 -0.293803 -1.15571 -5.54847 -11.8638 -70.5119 0.03 310.475 
276 1 1 0.634227 0.602345 1.61765 0 0 0 1.8296 0.151046 -0.286668 1.53442 2.93905 -2.03763 -9.10421 -66.0981 -33.9398 0.03 305.609 
154 1 1 0.866071 0.604933 1.6163 0 0 0 2.25556 -0.110154 0.246573 -2.52693 6.31074 9.3443 -3.5439 -33.8344 -49.0994 0.03 329.332 
57 1 1 0.940847 0.599523 1.60907 0 0 0 2.46851 0.127022 0.0911462 0 0 -2.77371 -8.89132 -22.8805 -41.7814 0.03 338.178 
89 1 1 1.00298 0.591804 1.5999 0 0 0 2.78995 -0.0801868 -0.109241 7.24916 0.428057 -0.753628 5.39217 -37.5673 -19.5426 0.03 332.91 
138 1 1 1.13274 0.613018 1.62209 0 0 0 2.76043 -0.472429 -0.448284 1.23481 -1.23435 -0.946373 8.50711 -14.3214 -13.0669 0.03 318.658 
65 1 1 1.18072 0.587494 1.59683 0 0 0 2.79509 -0.452964 -0.473764 -0.102727 -0.356515 -1.47373 20.3772 -27.3 -28.9954 0.03 319.54 
27 1 1 1.23898 0.587519 1.63555 0 0 0 2.56638 -0.253745 0.263185 0 0 -2.77371 -24.6587 -28.4302 -20.1132 0.03 333.774 
99 1 1 1.31624 0.604885 1.61893 0 0 0 2.10215 0.0813948 -0.30456 0 0 -2.77371 -19.5823 -41.1356 -42.3874 0.03 342.722 
79 1 1 1.46065 0.598739 1.60798 0 0 0 2.84657 0.0908412 0.128901 0.448449 -0.250422 -2.42017 -5.84925 -29.1597 -25.8145 0.03 339.516 
332 1 1 0.22282 0.111149 1.65181 0 0 0 0.344502 0.0303334 -0.0302452 0.862198 1.08177 -1.28387 19.0783 -46.849 39.3843 0.03 311.239 
283 1 1 0.319359 0.091871 1.67105 0 0 0 0.93179 -0.0869747 0.126229 0.496289 0.67263 -2.03674 12.931 -7.94101 15.6046 0.03 305.484 
62 1 1 0.53636 0.116559 1.64571 0 0 0 1.49999 -0.287699 0.10719 -2.58099 14.796 -4.50988 20.3201 -63.9078 55.4452 0.03 317.502 
74 1 1 0.826826 0.11722 1.64595 0 0 0 2.32509 0.107002 -0.150684 0.413551 0.506637 -1.91331 8.25316 -22.4366 23.1282 0.03 309.191 
333 1 1 0.884571 0.105259 1.6595 0 0 0 2.39866 0.133123 -0.229333 0 0 -2.77371 -11.1522 -13.1742 22.2699 0.03 312.045 
196 1 1 0.593932 0.150259 1.64815 0 0 0 0.770136 -0.318919 0.0819055 52.1372 -11.7948 80.9224 -0.772225 -1.83671 -22.7406 0.03 300.467 
139 1 1 0.933676 0.132559 1.63632 0 0 0 2.34214 0.316687 -0.273287 0 0 -2.77371 -8.6322 -43.2141 27.7517 0.03 339.133 
336 1 1 0.165109 0.231832 1.65488 0 0 0 -0.528357 0.128029 -1.16707 0 0 -2.77371 -2.79867 -65.3093 3.50271 0.03 300.002 
353 1 1 0.270373 0.208258 1.64702 0 0 0 0.189162 -0.439299 -0.56842 0 0 -2.77371 -19.037 -69.0693 29.1667 0.03 300.006 
231 1 1 0.511622 0.217256 1.63762 0 0 0 1.17317 0.140649 -0.0263362 0 0 -2.77371 -13.4588 21.1892 -13.881 0.03 301.658 
183 1 1 0.641833 0.211657 1.64505 0 0 0 1.29218 -0.23729 -0.117637 0 0 -2.77371 -38.9012 59.4425 28.5604 0.03 300.739 
330 1 1 0.58426 0.233601 1.6362 0 0 0 1.47916 -0.130393 -0.663734 0 0 -2.77371 4.98355 -4.73283 11.338 0.03 300.019 
275 1 1 0.315364 0.27845 1.65637 0 0 0 0.0343569 0.648389 -0.922041 0 0 -2.77371 -15.827 -30.0856 10.1248 0.03 300.001 
347 1 1 0.410253 0.287296 1.63693 0 0 0 -0.302538 -0.0772944 0.027575 0 0 -2.77371 -5.66142 45.1156 -9.80361 0.03 301.344 
273 1 1 0.45213 0.327462 1.65636 0 0 0 0.772796 0.0180054 -0.916359 0 0 -2.77371 1.85995 8.38515 -1.06504 0.03 300.01 
242 1 1 0.602483 0.338361 1.6658 0 0 0 1.87333 0.168429 0.251357 0 0 -2.77371 4.36421 7.56475 8.36016 0.03 300.012 
181 1 1 0.869817 0.303426 1.66282 0 0 0 2.14345 -0.0141148 -0.30061 0 0 -2.77371 -16.6147 8.67511 12.2755 0.03 300.768 
191 1 1 0.12847 0.370014 1.63081 0 0 0 0.244913 -0.262315 -2.07746 0 0 -2.77371 7.27022 -2.48795 1.08825 0.03 300.005 
222 1 1 0.184532 0.345359 1.65314 0 0 0 0.156078 -0.182026 -1.35226 5.69241 -5.07739 -73.2517 22.4221 -27.1454 6.60934 0.03 300.003 
199 1 1 0.264015 0.341393 1.65829 0 0 0 0.221188 0.186754 -1.07746 0 0 -2.77371 -34.3111 -29.2615 2.5757 0.03 300.01 
184 1 1 0.505348 0.365375 1.64912 0 0 0 0.81915 -0.0860683 -0.663322 0 0 -2.77371 -42.3266 -14.8933 7.93808 0.03 300.007 
259 1 1 0.303195 0.38427 1.62391 0 0 0 0.415768 0.16092 -0.929904 32.4065 -6.33945 14.0708 2.52838 -7.66289 -6.3698 0.03 300.2 
306 1 1 0.207776 0.407706 1.65331 0 0 0 -0.216005 -0.810682 -0.616251 0 0 -2.77371 17.1157 -1.91104 29.6479 0.03 300.006 
235 1 1 0.272093 0.427499 1.65343 0 0 0 0.877235 0.477349 -0.356883 -3.55774 9.13123 93.6728 14.1303 -22.9402 23.1665 0.03 300.004 
318 1 1 0.395511 0.431483 1.66331 0 0 0 0.623777 0.404674 0.00186916 0 0 -2.77371 9.03849 -31.6783 -23.2985 0.03 300.048 
295 1 1 0.540173 0.426601 1.64449 0 0 0 1.37528 -0.0657091 -0.247638 -2.52457 3.37877 0.286409 9.2934 -44.4223 -21.0131 0.03 300.048 
261 1 1 0.128531 0.472915 1.631 0 0 0 -0.206431 -0.0640685 -0.137552 -26.7413 -2.86743 22.7777 -17.6538 45.9956 1.20119 0.03 300.381 
210 1 1 0.185052 0.485783 1.64388 0 0 0 -0.621093 0.344211 -0.413958 26.1361 -48.8231 -163.529 24.6788 32.4419 -7.68298 0.03 300.334 
325 1 1 0.692253 0.49145 1.66393 0 0 0 1.67563 -0.500053 -0.519616 0 0 -2.77371 20.4992 -3.58033 -40.6405 0.03 300.021 
335 1 1 0.76151 0.490625 1.65799 0 0 0 1.86229 0.512367 -0.165131 0 0 -2.77371 -13.4698 -8.38252 33.3711 0.03 300.288 
220 1 1 0.4551 0.53192 1.64401 0 0 0 1.61127 0.00370351 0.1301 0 0 -2.77371 -9.77805 -42.6815 -16.4542 0.03 300.091 
239 1 1 0.85683 0.542714 1.63087 0 0 0 1.65837 0.250894 -0.401087 13.5859 -8.58963 22.7246 -7.83597 33.5503 1.01677 0.03 300.79 
310 1 1 0.180699 0.54467 1.64673 0 0 0 -0.159711 -0.681868 0.367969 -56.8332 46.5182 13.8819 4.66965 39.6896 35.2442 0.03 300.265 
271 1 1 0.395788 0.55891 1.64678 0 0 0 0.89446 -0.441353 0.730348 0 0 -2.77371 -17.2864 86.8188 37.9992 0.03 300.959 
201 1 1 0.502523 0.573605 1.64612 0 0 0 1.46884 0.584386 0.260507 0 0 -2.77371 -22.9122 10.4143 7.43529 0.03 300.857 
329 1 1 0.593112 0.573499 1.66597 0 0 0 1.95357 0.185676 0.444985 0 0 -2.77371 -4.10171 29.6649 19.5676 0.03 300.159 
224 1 1 0.683063 0.557062 1.64628 0 0 0 2.25879 0.310066 0.0103561 0 0 -2.77371 14.3876 -18.3736 34.5956 0.03 301.846 
52 1 1 0.746729 0.617357 1.63328 0 0 0 1.53589 0.0886896 -0.497809 0 0 -2.77371 -7.49989 37.4352 43.85 0.03 301.807 
301 1 1 0.230728 0.632642 1.64413 0 0 0 0.929025 0.0335808 0.136919 0 0 -2.77371 7.79778 -18.5119 -73.7824 0.03 308.258 
326 1 1 0.515583 0.650206 1.65938 0 0 0 1.0446 0.00952427 0.00964081 -0.000690064 -0.970748 -1.0053 -0.455394 -116.097 -23.6691 0.03 341.597 
72 1 1 0.689458 0.638951 1.64813 0 0 0 1.54931 0.0199161 0.0189961 0.00336019 -0.980172 -0.994014 -0.919072 -46.811 -69.0827 0.03 342.449 
305 1 1 0.533415 0.0902708 1.698 0 0 0 0.845452 -0.743971 -0.0756724 2.33359 -7.73581 20.1343 -4.3074 17.6034 1.69631 0.03 300.476 
219 1 1 0.445425 0.247616 1.68216 0 0 0 0.58126 -0.632458 0.124243 0 0 -2.77371 2.41856 2.34381 -24.6728 0.03 300.029 
207 1 1 0.223339 0.283687 1.66126 0 0 0 0 0 -2.92752 0 0 -2.77371 0 0 0 0.03 300 
341 1 1 0.731521 0.291931 1.66811 0 0 0 1.88537 -0.733283 -0.481434 0 0 -2.77371 10.6458 -38.4114 -11.8413 0.03 300.011 