ITEM: TIMESTEP
53000
ITEM: NUMBER OF ATOMS
353
ITEM: BOX BOUNDS ff ff ff
0 3.3
-0.3 0.8
-0.5 3
ITEM: ATOMS id type type x y z ix iy iz vx vy vz fx fy fz omegax omegay omegaz radius f_Temp[0] 
108 1 1 0.443979 0.187849 1.5769 0 0 0 1.62011 0.114064 0.0173498 -0.21118 -0.0699018 -1.34429 -3.84861 -79.5378 28.779 0.03 339.429 
47 1 1 0.653435 0.180536 1.58262 0 0 0 2.12745 -0.0613942 0.0164046 -0.360143 -0.602872 -0.621765 3.86701 -78.3408 10.5047 0.03 321.55 
67 1 1 0.718207 0.192886 1.58185 0 0 0 2.00932 -0.142929 -0.498979 -14.6547 4.26823 -13.6315 12.9314 -30.8327 1.61813 0.03 314.983 
85 1 1 0.774154 0.176075 1.59096 0 0 0 1.89552 0.125987 0.0914712 14.0145 -19.6372 6.84809 -1.93977 -80.0413 13.2991 0.03 307.027 
139 1 1 0.138765 0.214653 1.57853 0 0 0 0.760015 -0.620929 0.627837 0 0 -2.77371 21.0053 -109.277 4.9273 0.03 303.789 
15 1 1 0.223594 0.199819 1.58658 0 0 0 0.513798 -0.724994 -0.732942 0 0 -2.77371 31.7253 35.3502 -0.377258 0.03 300.147 
120 1 1 0.319713 0.218498 1.58039 0 0 0 1.24554 -0.118101 0.251482 0 0 -2.77371 4.02522 -92.7113 5.11525 0.03 324.821 
112 1 1 0.496234 0.219234 1.57531 0 0 0 2.03475 0.146692 0.0146478 23.1168 -2.71135 32.3491 -15.8715 -40.1513 -29.0661 0.03 321.943 
60 1 1 0.566658 0.223187 1.57943 0 0 0 2.29748 0.00429218 0.134468 0 0 -2.77371 -0.154537 -57.0567 18.3092 0.03 312.912 
41 1 1 0.413818 0.264497 1.5786 0 0 0 1.50912 -0.128542 -0.0999829 -12.7252 -13.744 -11.7812 -16.0342 -69.3048 6.58345 0.03 321.436 
142 1 1 0.703801 0.254083 1.57686 0 0 0 2.1616 -0.150641 -0.000173631 -0.00440706 0.00220584 0.0754614 5.04139 -61.5402 -9.75487 0.03 326.444 
45 1 1 0.79573 0.229949 1.57685 0 0 0 2.82452 -0.720344 0.0280865 1.46389 15.6446 0.199446 2.00949 26.613 -13.7995 0.03 308.654 
8 1 1 0.88535 0.249918 1.57821 0 0 0 2.46939 -0.30917 0.0210451 0 0 -2.77371 10.3601 -51.2378 3.30632 0.03 314.686 
58 1 1 0.198189 0.268168 1.57479 0 0 0 2.21679 -0.353942 0.105445 6.71238 -6.85432 14.2805 12.1647 -64.2563 -13.138 0.03 314.051 
13 1 1 0.301627 0.281387 1.57777 0 0 0 0.13525 -0.261269 0.458404 0 0 -2.77371 9.62981 -132.184 0.730356 0.03 328.407 
59 1 1 0.515122 0.275587 1.57576 0 0 0 2.35459 -0.273246 0.112657 21.6841 2.29002 -2.02316 7.98154 -60.0868 15.4429 0.03 311.844 
86 1 1 0.647758 0.27574 1.5768 0 0 0 2.12964 -0.211854 0.00182596 -0.00275685 0.00122915 1.00834 7.102 -62.7034 -4.85357 0.03 329.933 
124 1 1 0.45381 0.30773 1.5777 0 0 0 1.42466 -0.0433862 0.0673055 9.63209 10.806 4.3357 0.184923 -66.2628 -0.814152 0.03 322.224 
81 1 1 0.575171 0.339626 1.57508 0 0 0 2.18317 0.088662 -0.114472 14.6426 6.77155 44.4217 -2.33123 -69.8217 -15.3639 0.03 305.059 
23 1 1 0.732628 0.328169 1.57776 0 0 0 2.27316 -0.340531 0.0909705 0 0 -2.77371 11.4082 -57.6583 -14.3714 0.03 328.676 
96 1 1 0.793606 0.330977 1.57675 0 0 0 2.22285 -0.346929 0.0280612 -0.855717 -0.174623 0.638996 11.7764 -60.294 -1.48537 0.03 312.51 
14 1 1 0.992303 0.324373 1.57686 0 0 0 2.42075 0.0677053 -2.67582e-08 -2.73435e-08 1.17226e-09 -3.26671e-05 -2.26609 -52.8573 -2.54476 0.03 328.233 
3 1 1 0.0854244 0.343607 1.58482 0 0 0 0.346818 -0.00448618 0.207179 0 0 -2.77371 0.154843 -122.712 1.57106 0.03 303.547 
101 1 1 0.212141 0.347323 1.57678 0 0 0 0.921982 0.245558 0.128791 0.348842 -0.970558 -4.83249 -7.81923 -103.1 9.23681 0.03 315.421 
64 1 1 0.300543 0.35974 1.57899 0 0 0 1.066 -0.331579 0.176997 0 0 -2.77371 10.8964 -98.041 -10.6386 0.03 327.195 
143 1 1 0.386747 0.36531 1.57763 0 0 0 1.64705 0.703631 -0.801035 0 0 -2.77371 16.7554 -46.3909 19.0332 0.03 303.911 
29 1 1 0.495738 0.350239 1.57507 0 0 0 1.38642 -0.162593 -0.494618 61.6226 5.54914 40.8231 9.32417 5.64704 -3.48092 0.03 302.322 
82 1 1 0.897573 0.357066 1.57686 0 0 0 1.8063 -0.148108 3.6621e-06 -2.15425e-05 -1.49157e-06 -0.000857291 4.95715 -73.4229 2.87889 0.03 320.994 
69 1 1 0.208673 0.409552 1.57695 0 0 0 0.415869 0.344843 -0.0120409 0.865232 0.342532 -0.912578 -28.9312 -75.8057 23.9776 0.03 318 
122 1 1 0.445525 0.386135 1.5761 0 0 0 1.69031 0.0970669 -0.0226194 6.59059 1.72488 15.4948 -1.76222 -80.4029 -7.50302 0.03 325.567 
167 1 1 0.538255 0.397582 1.58296 0 0 0 1.46615 0.207984 -1.08726 0 0 -2.77371 18.07 -18.6501 31.2356 0.03 300.826 
135 1 1 0.142485 0.439436 1.59449 0 0 0 0.454393 -0.695052 -1.28169 -6.93372 5.43126 21.4328 -40.8885 -80.5033 -12.5634 0.03 303.784 
50 1 1 0.340752 0.409799 1.57703 0 0 0 1.51079 -0.195428 0.29864 -10.6292 -1.66441 -20.2323 5.41342 -78.4372 -21.0092 0.03 303.636 
131 1 1 0.397558 0.426362 1.57715 0 0 0 1.39694 -0.144501 0.0623219 15.3866 3.35559 5.04748 21.3766 26.1365 14.6441 0.03 304.41 
10 1 1 0.580744 0.442246 1.57696 0 0 0 1.80011 0.412725 -0.00714767 0.030792 0.00797008 -1.14275 -13.8244 -73.3814 2.47775 0.03 329.918 
36 1 1 0.697862 0.440238 1.57683 0 0 0 2.16614 0.129118 0.00682579 1.40727 0.409771 0.157722 -16.0027 -21.2981 3.40092 0.03 308.83 
32 1 1 0.782647 0.436447 1.57693 0 0 0 1.8092 0.0227477 -1.11346e-05 -0.0127531 0.000131068 -1.06924 -0.760101 -73.2043 -5.21338 0.03 317.265 
174 1 1 0.917163 0.42026 1.57686 0 0 0 2.54317 -0.11229 -9.13402e-06 1.28503 -0.521242 -0.000266047 3.82215 -48.6026 2.83466 0.03 322.089 
42 1 1 0.276044 0.461715 1.57434 0 0 0 1.57676 0.645261 -1.19053 105.681 -4.6096 87.8916 -9.36157 -58.4238 -15.298 0.03 304.19 
30 1 1 0.489279 0.44788 1.57703 0 0 0 1.57767 -0.186275 0.0415282 -0.349374 -0.312461 -3.71114 7.21118 -82.0344 -9.51141 0.03 340.249 
54 1 1 0.636165 0.466457 1.58154 0 0 0 2.00363 0.164242 -0.0244356 0 0 -2.77371 -7.00729 -62.635 -3.09249 0.03 322.502 
16 1 1 0.151586 0.514069 1.58178 0 0 0 0.570908 0.024387 -0.661461 3.6396 30.8419 -97.0665 6.90445 -54.2277 13.9569 0.03 303.916 
61 1 1 0.219241 0.485283 1.58339 0 0 0 0.857314 0.37916 0.410626 0 0 -2.77371 -12.2794 -105.721 0.126792 0.03 310.838 
163 1 1 0.362816 0.487668 1.57693 0 0 0 1.44536 0.356439 0.0336172 4.00725 -4.93982 0.415531 -0.335506 -73.6096 -34.5092 0.03 314.053 
63 1 1 0.446546 0.507857 1.57639 0 0 0 1.64003 0.285056 0.0287315 0.0908712 0.936542 8.64114 -9.79827 -80.0483 0.739944 0.03 325.767 
66 1 1 0.683615 0.510284 1.57847 0 0 0 1.88683 0.0869514 0.106321 -0.70102 0.302018 -2.41161 -1.77311 -68.4143 -8.86328 0.03 309.351 
168 1 1 0.75699 0.510095 1.57676 0 0 0 1.74344 -0.0717444 -0.0545216 0.229044 0.00726925 4.50928 2.40096 -75.517 10.3515 0.03 307.123 
100 1 1 0.825225 0.486579 1.57686 0 0 0 1.87294 0.0290337 0.00049583 -0.00200029 2.73169e-05 0.0623818 -0.971889 -71.2021 -5.29887 0.03 324.49 
121 1 1 0.326794 0.535265 1.5783 0 0 0 2.05482 0.653109 0.208789 -3.91593 4.85016 -5.70701 -18.7637 -62.8468 16.6425 0.03 318.602 
39 1 1 0.537633 0.518613 1.57685 0 0 0 1.54612 0.169666 0.0887169 -0.196656 0.810571 -3.91328 -6.11538 -82.2761 -2.37807 0.03 316.284 
162 1 1 0.628633 0.534013 1.57723 0 0 0 1.70915 -0.185542 -0.100918 2.2149 -1.85224 -2.14162 18.7664 -47.2644 20.7199 0.03 314.98 
152 1 1 0.269853 0.589122 1.59723 0 0 0 1.17606 0.140958 0.272656 7.42067 -9.51214 9.33669 -10.8444 -124.821 -7.83783 0.03 309.52 
158 1 1 0.441618 0.579647 1.59062 0 0 0 2.0317 -0.12133 -0.0130416 -13.7582 12.9712 -13.652 -1.53047 -14.3689 -78.458 0.03 307.363 
109 1 1 0.504547 0.568684 1.5799 0 0 0 2.15835 -0.0182972 0.116069 0 0 -2.77371 -5.02932 -65.5043 -21.8069 0.03 315.254 
103 1 1 0.579875 0.56832 1.5771 0 0 0 1.64189 -0.183449 -0.182893 8.60491 -5.60557 3.29164 9.50818 -60.2689 -46.9485 0.03 328.964 
113 1 1 0.843676 0.570883 1.58006 0 0 0 2.00679 -0.222707 -0.222709 7.37324e-06 -0.988913 -0.98864 10.5327 -83.43 -10.8361 0.03 327.593 
118 1 1 0.204216 0.590792 1.60099 0 0 0 1.1799 0.250716 0.316193 0 0 -2.77371 -15.4654 -118.15 -15.2183 0.03 309.104 
87 1 1 0.479611 0.151325 1.6113 0 0 0 1.33239 -0.278444 -0.103182 -20.4218 -29.7206 -4.44638 12.7322 18.8029 31.6799 0.03 306.402 
88 1 1 0.515569 0.194882 1.6253 0 0 0 1.09151 -0.664685 0.246994 28.9355 38.3454 24.7057 29.2862 17.6915 -19.9001 0.03 300.218 
173 1 1 0.434336 0.236502 1.63448 0 0 0 1.03631 -0.570376 -0.12248 -30.6036 -42.9013 -81.512 14.412 63.5631 19.657 0.03 300.5 
51 1 1 0.199437 0.271173 1.63206 0 0 0 0.246259 -0.641556 0.448565 0.305539 3.9602 50.5448 0.901217 6.07121 -8.86223 0.03 300.157 
19 1 1 0.347128 0.297591 1.61622 0 0 0 0.628199 0.0965368 0.986762 -2.424 2.20294 -2.20148 -47.0434 127.243 -19.317 0.03 300.771 
91 1 1 0.25117 0.309673 1.60221 0 0 0 0.638993 -0.176332 0.0186871 -0.13336 0.131292 -2.769 15.1829 64.4765 -11.9399 0.03 300.824 
144 1 1 0.40068 0.327871 1.6238 0 0 0 1.62588 0.0857797 -0.590985 0 0 -2.77371 16.952 -1.51312 38.1957 0.03 300.035 
94 1 1 0.325238 0.348291 1.63921 0 0 0 0.818961 0.299519 1.15911 2.424 -2.20294 -3.34594 -13.5138 63.6237 54.3804 0.03 300.524 
92 1 1 0.610669 0.354309 1.61924 0 0 0 1.55965 0.316742 0.403897 6.68387 2.62746 25.0865 -19.8533 31.1824 -1.31439 0.03 300.38 
145 1 1 0.439988 0.438434 1.62116 0 0 0 0.842282 0.746559 -0.792459 0.349674 2.06423 -3.28353 -8.00184 36.3082 13.9595 0.03 300.755 
9 1 1 0.514033 0.480579 1.6212 0 0 0 1.21564 0.334812 0.0363635 0 0 -2.77371 -24.7101 68.707 16.3529 0.03 301.697 
105 1 1 0.423742 0.49498 1.63022 0 0 0 0.382463 0.784892 -0.397919 -0.609479 -2.80467 -1.36192 1.20686 34.5725 12.3404 0.03 301.016 
140 1 1 0.878879 0.48661 1.62012 0 0 0 1.91018 0.0155893 -0.396942 0 0 -2.77371 -2.11596 -33.9412 0.440971 0.03 304.049 
117 1 1 0.198897 0.534318 1.62801 0 0 0 0.431717 0.144257 0.715137 0 0 -2.77371 9.64165 50.1097 15.6579 0.03 300.183 
99 1 1 0.325791 0.54243 1.64108 0 0 0 0.860452 0.931861 0.807947 0 0 -2.77371 12.243 22.6198 -14.525 0.03 300.335 
172 1 1 0.644501 0.597527 1.60672 0 0 0 1.85669 0.026616 0.0658765 -0.139294 -0.129995 -2.04859 -2.35018 -62.1438 -39.2524 0.03 316.93 
137 1 1 0.248378 0.212142 1.64763 0 0 0 -0.3209 -0.829314 -1.43455 5.85758 1.68396 -0.14869 43.0004 -35.5337 -0.83707 0.03 300.007 
49 1 1 0.307551 0.216946 1.64676 0 0 0 0.111601 -0.731583 0.571942 5.15003 -18.5762 5.32735 -19.9601 6.78489 -13.6334 0.03 300.803 
80 1 1 0.61245 0.210821 1.64628 0 0 0 1.31915 -0.178642 0.007152 0 0 -2.77371 -11.1196 32.8548 -25.5688 0.03 300.208 
76 1 1 0.278259 0.266162 1.63541 0 0 0 0.779926 -0.258189 -0.450826 -11.0076 16.8922 -13.4998 -23.6337 -23.2399 -15.1849 0.03 300.429 
125 1 1 0.37752 0.266874 1.66033 0 0 0 1.9084 -0.163312 0.943077 0 0 -2.77371 12.2013 -46.3042 -40.6281 0.03 300.018 
155 1 1 0.515546 0.281259 1.63436 0 0 0 1.23056 -0.103177 -0.335314 -14.2713 14.6445 32.7314 -19.5122 24.6108 6.08598 0.03 300.368 
46 1 1 0.597069 0.28526 1.63594 0 0 0 0.862533 -0.250172 -0.267826 0 0 -2.77371 -5.89946 10.5853 -21.4766 0.03 300.43 
159 1 1 0.554443 0.33693 1.64729 0 0 0 1.26471 0.443155 -0.556925 0 0 -2.77371 27.7594 -3.54186 -1.50948 0.03 300.005 
132 1 1 0.158161 0.364445 1.64057 0 0 0 -0.482264 0.18063 -0.0907615 0 0 -2.77371 56.83 36.4985 7.29979 0.03 300.184 
56 1 1 0.487602 0.341283 1.63127 0 0 0 1.24337 0.043785 -0.455349 -6.22435 -4.08145 60.1792 -18.0895 -30.5394 6.19421 0.03 300.009 
104 1 1 0.35265 0.406967 1.65014 0 0 0 1.2106 1.15009 -0.663858 0 0 -2.77371 -43.2215 -12.8949 23.2785 0.03 300.003 
20 1 1 0.427732 0.380733 1.63252 0 0 0 1.03923 0.507692 -0.196104 -5.83358 -1.9241 3.41188 4.19583 32.0308 -15.9826 0.03 300.15 
133 1 1 0.838317 0.380993 1.64722 0 0 0 1.45209 0.340449 -0.831133 0 0 -2.77371 -5.42725 -57.2091 -15.3957 0.03 303.944 
77 1 1 0.221213 0.406305 1.63697 0 0 0 0.317927 -0.907458 -1.3319 39.2054 47.3032 -69.9613 32.0634 -26.5047 -34.7553 0.03 300.002 
151 1 1 0.553907 0.432943 1.63396 0 0 0 0.988558 0.591085 -0.842899 0 0 -2.77371 -12.7665 16.6444 2.93543 0.03 300.011 
34 1 1 0.161892 0.482298 1.62892 0 0 0 0.261795 0.836991 -1.07742 3.29411 -36.2732 67.3125 -14.9133 39.7384 -4.58043 0.03 300.027 
4 1 1 0.284968 0.446532 1.6273 0 0 0 0.376861 -0.081037 -0.744419 -9.83263 -31.1518 111.167 39.3938 6.35022 -6.42213 0.03 300.019 
169 1 1 0.222587 0.485626 1.65621 0 0 0 0.0591293 0.204139 1.46524 0 0 -2.77371 21.6928 73.3228 6.12663 0.03 300.248 
27 1 1 0.349126 0.484195 1.64197 0 0 0 0.00945531 -0.0916637 -0.693977 0 0 -2.77371 15.2195 -17.2726 -7.49203 0.03 300.009 
149 1 1 0.474419 0.506954 1.67233 0 0 0 0.59541 -0.060948 0.393073 0 0 -2.77371 19.4561 -50.7513 7.06609 0.03 300.018 
83 1 1 0.585501 0.515377 1.64237 0 0 0 1.74324 0.50685 0.542391 0 0 -2.77371 5.00779 82.3266 13.0114 0.03 300.323 
57 1 1 0.264969 0.543077 1.65048 0 0 0 0.44566 1.12055 -0.0847463 0 0 -2.77371 -46.2759 -8.9738 15.4096 0.03 300.005 
157 1 1 0.663804 0.550627 1.65105 0 0 0 1.64473 -0.000973832 0.142053 0 0 -2.77371 -18.9003 88.2493 6.98209 0.03 300.3 
79 1 1 0.403825 0.563654 1.64125 0 0 0 0.25114 0.439793 -0.12202 0 0 -2.77371 4.87465 -14.9566 -19.3747 0.03 300.878 
18 1 1 0.470497 0.561699 1.63951 0 0 0 0.714727 0.227223 0.320138 13.7582 -12.9712 8.10457 -16.2564 12.7495 12.6728 0.03 300.268 
78 1 1 0.313333 0.12443 1.69052 0 0 0 0.840524 -0.590493 -0.33928 0 0 -2.77371 28.2436 73.2207 -0.414164 0.03 300.124 
165 1 1 0.389631 0.212457 1.68701 0 0 0 1.01087 -1.65506 -0.041725 0 0 -2.77371 42.6669 33.7181 6.49146 0.03 300 
12 1 1 0.147421 0.290857 1.6499 0 0 0 -0.906799 0.188799 -1.54594 -1.77243 1.13431 -0.856197 -27.7068 -66.2235 -8.38016 0.03 300.001 
7 1 1 0.461434 0.267883 1.674 0 0 0 0.950213 -0.317835 -0.83825 28.4897 33.4965 68.3308 -33.4925 -22.6263 7.4217 0.03 300.003 
130 1 1 0.521605 0.457706 1.68703 0 0 0 1.45581 0.431014 0.116212 0 0 -2.77371 27.5258 -51.7108 -19.1684 0.03 300.021 
75 1 1 0.401474 0.507342 1.68516 0 0 0 0.504957 -0.177591 -0.0374464 0 0 -2.77371 19.1056 -23.3193 2.32084 0.03 300.013 
156 1 1 0.449361 0.656045 1.67495 0 0 0 1.26011 0.305667 0.197996 0 0 -2.77371 -24.298 -57.1889 -50.7379 0.03 303.44 
115 1 1 0.29951 0.265646 1.69439 0 0 0 0 0 -2.81431 0 0 -2.77371 0 0 0 0.03 300 
170 1 1 0.446856 0.304514 1.71768 0 0 0 -0.227337 0.576066 -1.67099 2.11384 9.40487 4.86009 -13.5475 0.770111 -1.97297 0.03 300 
21 1 1 0.185812 0.400526 1.68237 0 0 0 -0.173794 -0.365259 -2.49049 -39.2054 -47.3032 64.4139 -20.4492 -6.66052 -16.2705 0.03 300 
126 1 1 0.372377 0.389427 1.70792 0 0 0 -0.690817 -0.235845 -2.08985 0 0 -2.77371 -2.24632 -23.0394 -9.09948 0.03 300 
24 1 1 0.446113 0.39075 1.703 0 0 0 0.412365 -0.507424 -1.02892 0 0 -2.77371 16.0728 -22.9221 -9.1947 0.03 300 
2 1 1 0.406553 0.625155 1.71432 0 0 0 0.763244 1.14936 0.0516998 0 0 -2.77371 29.9697 -62.4635 12.0468 0.03 300.012 
114 1 1 0.101873 0.240116 1.74609 0 0 0 0 0 -2.62792 0 0 -2.77371 0 0 0 0.03 300 
1 1 1 0.44893 0.24186 1.75083 0 0 0 0 0 -2.61016 0 0 -2.77371 0 0 0 0.03 300 
11 1 1 0.20764 0.30353 1.74068 0 0 0 0 0 -2.64803 0 0 -2.77371 0 0 0 0.03 300 
160 1 1 0.115232 0.435564 1.71675 0 0 0 0 0 -2.73524 0 0 -2.77371 0 0 0 0.03 300 
106 1 1 0.375691 0.47682 1.73683 0 0 0 0 0 -2.66226 0 0 -2.77371 0 0 0 0.03 300 
129 1 1 0.201147 0.51232 1.73731 0 0 0 0 0 -2.66049 0 0 -2.77371 0 0 0 0.03 300 
26 1 1 0.474436 0.482152 1.73529 0 0 0 0 0 -2.66795 0 0 -2.77371 0 0 0 0.03 300 
33 1 1 0.10471 0.363257 1.77468 0 0 0 0 0 -2.51893 0 0 -2.77371 0 0 0 0.03 300 
71 1 1 0.27192 0.349064 1.75325 0 0 0 0 0 -2.60104 0 0 -2.77371 0 0 0 0.03 300 
35 1 1 0.342434 0.364463 1.78443 0 0 0 0 0 -2.48067 0 0 -2.77371 0 0 0 0.03 300 
154 1 1 0.211019 0.445658 1.77317 0 0 0 0 0 -2.52482 0 0 -2.77371 0 0 0 0.03 300 
89 1 1 0.26845 0.48437 1.76871 0 0 0 0 0 -2.54208 0 0 -2.77371 0 0 0 0.03 300 
161 1 1 0.383875 0.233035 1.8088 0 0 0 0 0 -2.38238 0 0 -2.77371 0 0 0 0.03 300 
127 1 1 0.381994 0.300043 1.81967 0 0 0 0 0 -2.33715 0 0 -2.77371 0 0 0 0.03 300 
141 1 1 0.429803 0.380165 1.82221 0 0 0 0 0 -2.32646 0 0 -2.77371 0 0 0 0.03 300 
38 1 1 0.303454 0.414467 1.80095 0 0 0 0 0 -2.41445 0 0 -2.77371 0 0 0 0.03 300 
146 1 1 0.495146 0.246598 1.84643 0 0 0 0 0 -2.22198 0 0 -2.77371 0 0 0 0.03 300 
44 1 1 0.485944 0.343638 1.84163 0 0 0 0 0 -2.24307 0 0 -2.77371 0 0 0 0.03 300 
166 1 1 0.165431 0.374869 1.85185 0 0 0 0 0 -2.19795 0 0 -2.77371 0 0 0 0.03 300 
111 1 1 0.473074 0.424163 1.83249 0 0 0 0 0 -2.28271 0 0 -2.77371 0 0 0 0.03 300 
119 1 1 0.126835 0.482642 1.85047 0 0 0 0 0 -2.20413 0 0 -2.77371 0 0 0 0.03 300 
97 1 1 0.184928 0.234672 1.88938 0 0 0 0 0 -2.02353 0 0 -2.77371 0 0 0 0.03 300 
28 1 1 0.222318 0.404493 1.87285 0 0 0 0 0 -2.1021 0 0 -2.77371 0 0 0 0.03 300 
93 1 1 0.225968 0.488444 1.88702 0 0 0 0 0 -2.03491 0 0 -2.77371 0 0 0 0.03 300 
90 1 1 0.102204 0.238351 1.9144 0 0 0 0 0 -1.89835 0 0 -2.77371 0 0 0 0.03 300 
74 1 1 0.248328 0.247523 1.90083 0 0 0 0 0 -1.96722 0 0 -2.77371 0 0 0 0.03 300 
62 1 1 0.329189 0.252757 1.91942 0 0 0 0 0 -1.87226 0 0 -2.77371 0 0 0 0.03 300 
5 1 1 0.160428 0.3182 1.90121 0 0 0 0 0 -1.96535 0 0 -2.77371 0 0 0 0.03 300 
95 1 1 0.346797 0.327727 1.92755 0 0 0 0 0 -1.82909 0 0 -2.77371 0 0 0 0.03 300 
175 1 1 0.230789 0.339127 1.90834 0 0 0 0 0 -1.92945 0 0 -2.77371 0 0 0 0.03 300 
37 1 1 0.41824 0.41741 1.92281 0 0 0 0 0 -1.8544 0 0 -2.77371 0 0 0 0.03 300 
17 1 1 0.345254 0.512161 1.92318 0 0 0 0 0 -1.85244 0 0 -2.77371 0 0 0 0.03 300 
134 1 1 0.443832 0.509496 1.90077 0 0 0 0 0 -1.96751 0 0 -2.77371 0 0 0 0.03 300 
43 1 1 0.460616 0.284913 1.93508 0 0 0 0 0 -1.78828 0 0 -2.77371 0 0 0 0.03 300 
25 1 1 0.278223 0.363632 1.96113 0 0 0 0 0 -1.63917 0 0 -2.77371 0 0 0 0.03 300 
123 1 1 0.48159 0.360101 1.96526 0 0 0 0 0 -1.61425 0 0 -2.77371 0 0 0 0.03 300 
116 1 1 0.152794 0.405213 1.94996 0 0 0 0 0 -1.7047 0 0 -2.77371 0 0 0 0.03 300 
128 1 1 0.355123 0.421294 1.9361 0 0 0 0 0 -1.78269 0 0 -2.77371 0 0 0 0.03 300 
138 1 1 0.301221 0.470777 1.95647 0 0 0 0 0 -1.66683 0 0 -2.77371 0 0 0 0.03 300 
40 1 1 0.408343 0.240904 1.97525 0 0 0 0 0 -1.55235 0 0 -2.77371 0 0 0 0.03 300 
31 1 1 0.221691 0.336081 2.00657 0 0 0 0 0 -1.33987 0 0 -2.77371 0 0 0 0.03 300 
68 1 1 0.400811 0.324654 1.98128 0 0 0 0 0 -1.5138 0 0 -2.77371 0 0 0 0.03 300 
84 1 1 0.227036 0.399722 1.99307 0 0 0 0 0 -1.43532 0 0 -2.77371 0 0 0 0.03 300 
98 1 1 0.491139 0.43458 1.97195 0 0 0 0 0 -1.57305 0 0 -2.77371 0 0 0 0.03 300 
55 1 1 0.200976 0.455034 1.98663 0 0 0 0 0 -1.47868 0 0 -2.77371 0 0 0 0.03 300 
136 1 1 0.374023 0.456818 2.00685 0 0 0 0 0 -1.33791 0 0 -2.77371 0 0 0 0.03 300 
72 1 1 0.10161 0.511094 1.97739 0 0 0 0 0 -1.53881 0 0 -2.77371 0 0 0 0.03 300 
48 1 1 0.17066 0.517967 1.99802 0 0 0 0 0 -1.40108 0 0 -2.77371 0 0 0 0.03 300 
22 1 1 0.254767 0.230824 2.01762 0 0 0 0 0 -1.25638 0 0 -2.77371 0 0 0 0.03 300 
73 1 1 0.170916 0.265084 2.02201 0 0 0 0 0 -1.22166 0 0 -2.77371 0 0 0 0.03 300 
171 1 1 0.477654 0.251099 2.01681 0 0 0 0 0 -1.26266 0 0 -2.77371 0 0 0 0.03 300 
110 1 1 0.10205 0.273683 2.02088 0 0 0 0 0 -1.23068 0 0 -2.77371 0 0 0 0.03 300 
164 1 1 0.244978 0.28843 2.04098 0 0 0 0 0 -1.05842 0 0 -2.77371 0 0 0 0.03 300 
107 1 1 0.303471 0.271065 2.02821 0 0 0 0 0 -1.17074 0 0 -2.77371 0 0 0 0.03 300 
70 1 1 0.142707 0.355749 2.03421 0 0 0 0 0 -1.11934 0 0 -2.77371 0 0 0 0.03 300 
53 1 1 0.294932 0.364362 2.03975 0 0 0 0 0 -1.0697 0 0 -2.77371 0 0 0 0.03 300 
176 1 1 0.349719 0.399621 2.04536 0 0 0 0 0 -1.01702 0 0 -2.77371 0 0 0 0.03 300 
153 1 1 0.496538 0.392613 2.03718 0 0 0 0 0 -1.09305 0 0 -2.77371 0 0 0 0.03 300 
148 1 1 0.12082 0.460146 2.01646 0 0 0 0 0 -1.26541 0 0 -2.77371 0 0 0 0.03 300 
6 1 1 0.317689 0.454971 2.04229 0 0 0 0 0 -1.04616 0 0 -2.77371 0 0 0 0.03 300 
65 1 1 0.421483 0.499457 2.01958 0 0 0 0 0 -1.24098 0 0 -2.77371 0 0 0 0.03 300 
150 1 1 0.481625 0.503918 2.02526 0 0 0 0 0 -1.19527 0 0 -2.77371 0 0 0 0.03 300 
333 1 1 0.346739 0.243699 2.0662 0 0 0 -0 -0 -1 0 0 0 0 0 0 0.03 300 
281 1 1 0.411814 0.252027 2.05403 0 0 0 -0 -0 -1 0 0 0 0 0 0 0.03 300 
225 1 1 0.490773 0.317233 2.06038 0 0 0 -0 -0 -1 0 0 0 0 0 0 0.03 300 
102 1 1 0.419044 0.351535 2.04592 0 0 0 0 0 -1.01162 0 0 -2.77371 0 0 0 0.03 300 
289 1 1 0.101436 0.395361 2.06744 0 0 0 -0 -0 -1 0 0 0 0 0 0 0.03 300 
326 1 1 0.187055 0.479944 2.0494 0 0 0 -0 -0 -1 0 0 0 0 0 0 0.03 300 
147 1 1 0.248507 0.49546 2.04684 0 0 0 0 0 -1.0026 0 0 -2.77371 0 0 0 0.03 300 
52 1 1 0.358392 0.516981 2.04661 0 0 0 0 0 -1.00486 0 0 -2.77371 0 0 0 0.03 300 
307 1 1 0.30626 0.26717 2.10469 0 0 0 -0 -0 -1 0 0 0 0 0 0 0.03 300 
339 1 1 0.110214 0.298119 2.08191 0 0 0 -0 -0 -1 0 0 0 0 0 0 0.03 300 
300 1 1 0.170925 0.32143 2.10555 0 0 0 -0 -0 -1 0 0 0 0 0 0 0.03 300 
181 1 1 0.375154 0.318829 2.08476 0 0 0 -0 -0 -1 0 0 0 0 0 0 0.03 300 
180 1 1 0.296048 0.338714 2.10378 0 0 0 -0 -0 -1 0 0 0 0 0 0 0.03 300 
190 1 1 0.226585 0.401613 2.10024 0 0 0 -0 -0 -1 0 0 0 0 0 0 0.03 300 
296 1 1 0.486808 0.439095 2.09562 0 0 0 -0 -0 -1 0 0 0 0 0 0 0.03 300 
249 1 1 0.173789 0.449512 2.11177 0 0 0 -0 -0 -1 0 0 0 0 0 0 0.03 300 
227 1 1 0.405439 0.458732 2.09611 0 0 0 -0 -0 -1 0 0 0 0 0 0 0.03 300 
304 1 1 0.124838 0.500222 2.08944 0 0 0 -0 -0 -1 0 0 0 0 0 0 0.03 300 
243 1 1 0.453661 0.506792 2.08908 0 0 0 -0 -0 -1 0 0 0 0 0 0 0.03 300 
288 1 1 0.209802 0.229296 2.12867 0 0 0 -0 -0 -1 0 0 0 0 0 0 0.03 300 
213 1 1 0.125891 0.243147 2.13527 0 0 0 -0 -0 -1 0 0 0 0 0 0 0.03 300 
221 1 1 0.425449 0.24778 2.12309 0 0 0 -0 -0 -1 0 0 0 0 0 0 0.03 300 
322 1 1 0.49924 0.247443 2.13573 0 0 0 -0 -0 -1 0 0 0 0 0 0 0.03 300 
257 1 1 0.107883 0.30308 2.14464 0 0 0 -0 -0 -1 0 0 0 0 0 0 0.03 300 
230 1 1 0.257855 0.281878 2.14402 0 0 0 -0 -0 -1 0 0 0 0 0 0 0.03 300 
340 1 1 0.235778 0.333975 2.12058 0 0 0 -0 -0 -1 0 0 0 0 0 0 0.03 300 
187 1 1 0.476873 0.306542 2.12249 0 0 0 -0 -0 -1 0 0 0 0 0 0 0.03 300 
268 1 1 0.442536 0.376191 2.11924 0 0 0 -0 -0 -1 0 0 0 0 0 0 0.03 300 
291 1 1 0.499679 0.383275 2.13751 0 0 0 -0 -0 -1 0 0 0 0 0 0 0.03 300 
178 1 1 0.318639 0.427051 2.14674 0 0 0 -0 -0 -1 0 0 0 0 0 0 0.03 300 
246 1 1 0.107302 0.455042 2.14023 0 0 0 -0 -0 -1 0 0 0 0 0 0 0.03 300 
226 1 1 0.253931 0.465065 2.14163 0 0 0 -0 -0 -1 0 0 0 0 0 0 0.03 300 
301 1 1 0.196268 0.514676 2.11764 0 0 0 -0 -0 -1 0 0 0 0 0 0 0.03 300 
276 1 1 0.289349 0.515799 2.12369 0 0 0 -0 -0 -1 0 0 0 0 0 0 0.03 300 
224 1 1 0.391331 0.524514 2.14276 0 0 0 -0 -0 -1 0 0 0 0 0 0 0.03 300 
196 1 1 0.358915 0.233995 2.15735 0 0 0 -0 -0 -1 0 0 0 0 0 0 0.03 300 
248 1 1 0.155073 0.291265 2.18256 0 0 0 -0 -0 -1 0 0 0 0 0 0 0.03 300 
209 1 1 0.352404 0.322469 2.17158 0 0 0 -0 -0 -1 0 0 0 0 0 0 0.03 300 
313 1 1 0.439938 0.327558 2.1783 0 0 0 -0 -0 -1 0 0 0 0 0 0 0.03 300 
245 1 1 0.160535 0.375989 2.15766 0 0 0 -0 -0 -1 0 0 0 0 0 0 0.03 300 
346 1 1 0.2812 0.398881 2.18476 0 0 0 -0 -0 -1 0 0 0 0 0 0 0.03 300 
254 1 1 0.380252 0.376413 2.16303 0 0 0 -0 -0 -1 0 0 0 0 0 0 0.03 300 
270 1 1 0.207615 0.426676 2.16897 0 0 0 -0 -0 -1 0 0 0 0 0 0 0.03 300 
352 1 1 0.377854 0.441153 2.15506 0 0 0 -0 -0 -1 0 0 0 0 0 0 0.03 300 
265 1 1 0.446064 0.454668 2.1543 0 0 0 -0 -0 -1 0 0 0 0 0 0 0.03 300 
279 1 1 0.157212 0.495968 2.17757 0 0 0 -0 -0 -1 0 0 0 0 0 0 0.03 300 
317 1 1 0.252263 0.228507 2.1889 0 0 0 -0 -0 -1 0 0 0 0 0 0 0.03 300 
305 1 1 0.346674 0.257421 2.2122 0 0 0 -0 -0 -1 0 0 0 0 0 0 0.03 300 
252 1 1 0.442785 0.262265 2.19054 0 0 0 -0 -0 -1 0 0 0 0 0 0 0.03 300 
193 1 1 0.281872 0.329623 2.20076 0 0 0 -0 -0 -1 0 0 0 0 0 0 0.03 300 
233 1 1 0.496558 0.3336 2.21785 0 0 0 -0 -0 -1 0 0 0 0 0 0 0.03 300 
204 1 1 0.215487 0.347963 2.18667 0 0 0 -0 -0 -1 0 0 0 0 0 0 0.03 300 
335 1 1 0.429091 0.407041 2.18734 0 0 0 -0 -0 -1 0 0 0 0 0 0 0.03 300 
272 1 1 0.116473 0.427779 2.20318 0 0 0 -0 -0 -1 0 0 0 0 0 0 0.03 300 
237 1 1 0.207046 0.471117 2.21263 0 0 0 -0 -0 -1 0 0 0 0 0 0 0.03 300 
262 1 1 0.417911 0.469013 2.2121 0 0 0 -0 -0 -1 0 0 0 0 0 0 0.03 300 
239 1 1 0.490736 0.457949 2.19796 0 0 0 -0 -0 -1 0 0 0 0 0 0 0.03 300 
263 1 1 0.269308 0.500141 2.21382 0 0 0 -0 -0 -1 0 0 0 0 0 0 0.03 300 
201 1 1 0.360389 0.493184 2.1974 0 0 0 -0 -0 -1 0 0 0 0 0 0 0.03 300 
217 1 1 0.461801 0.523439 2.187 0 0 0 -0 -0 -1 0 0 0 0 0 0 0.03 300 
283 1 1 0.300071 0.232043 2.25541 0 0 0 -0 -0 -1 0 0 0 0 0 0 0.03 300 
351 1 1 0.181906 0.258163 2.22663 0 0 0 -0 -0 -1 0 0 0 0 0 0 0.03 300 
332 1 1 0.233113 0.233231 2.24729 0 0 0 -0 -0 -1 0 0 0 0 0 0 0.03 300 
319 1 1 0.490886 0.237209 2.2335 0 0 0 -0 -0 -1 0 0 0 0 0 0 0.03 300 
206 1 1 0.126939 0.284236 2.24405 0 0 0 -0 -0 -1 0 0 0 0 0 0 0.03 300 
194 1 1 0.257372 0.298287 2.24748 0 0 0 -0 -0 -1 0 0 0 0 0 0 0.03 300 
231 1 1 0.39189 0.276895 2.24772 0 0 0 -0 -0 -1 0 0 0 0 0 0 0.03 300 
347 1 1 0.332014 0.322805 2.24638 0 0 0 -0 -0 -1 0 0 0 0 0 0 0.03 300 
298 1 1 0.133415 0.358363 2.2302 0 0 0 -0 -0 -1 0 0 0 0 0 0 0.03 300 
341 1 1 0.462863 0.403415 2.23862 0 0 0 -0 -0 -1 0 0 0 0 0 0 0.03 300 
208 1 1 0.292126 0.417938 2.24843 0 0 0 -0 -0 -1 0 0 0 0 0 0 0.03 300 
334 1 1 0.38649 0.410383 2.23433 0 0 0 -0 -0 -1 0 0 0 0 0 0 0.03 300 
303 1 1 0.114998 0.510423 2.22123 0 0 0 -0 -0 -1 0 0 0 0 0 0 0.03 300 
185 1 1 0.176568 0.243013 2.28859 0 0 0 -0 -0 -1 0 0 0 0 0 0 0.03 300 
338 1 1 0.455834 0.299724 2.25811 0 0 0 -0 -0 -1 0 0 0 0 0 0 0.03 300 
197 1 1 0.187467 0.323213 2.26686 0 0 0 -0 -0 -1 0 0 0 0 0 0 0.03 300 
331 1 1 0.280682 0.358343 2.259 0 0 0 -0 -0 -1 0 0 0 0 0 0 0.03 300 
295 1 1 0.361284 0.371846 2.2754 0 0 0 -0 -0 -1 0 0 0 0 0 0 0.03 300 
216 1 1 0.415188 0.353574 2.25582 0 0 0 -0 -0 -1 0 0 0 0 0 0 0.03 300 
285 1 1 0.200673 0.388027 2.26116 0 0 0 -0 -0 -1 0 0 0 0 0 0 0.03 300 
308 1 1 0.14362 0.411827 2.27042 0 0 0 -0 -0 -1 0 0 0 0 0 0 0.03 300 
220 1 1 0.335967 0.444883 2.28458 0 0 0 -0 -0 -1 0 0 0 0 0 0 0.03 300 
198 1 1 0.400177 0.437787 2.2876 0 0 0 -0 -0 -1 0 0 0 0 0 0 0.03 300 
255 1 1 0.114307 0.478097 2.27805 0 0 0 -0 -0 -1 0 0 0 0 0 0 0.03 300 
238 1 1 0.178751 0.5056 2.2901 0 0 0 -0 -0 -1 0 0 0 0 0 0 0.03 300 
271 1 1 0.316171 0.515613 2.26673 0 0 0 -0 -0 -1 0 0 0 0 0 0 0.03 300 
325 1 1 0.454753 0.482086 2.2602 0 0 0 -0 -0 -1 0 0 0 0 0 0 0.03 300 
186 1 1 0.259533 0.258075 2.30734 0 0 0 -0 -0 -1 0 0 0 0 0 0 0.03 300 
183 1 1 0.442411 0.236129 2.29849 0 0 0 -0 -0 -1 0 0 0 0 0 0 0.03 300 
284 1 1 0.192412 0.289106 2.32388 0 0 0 -0 -0 -1 0 0 0 0 0 0 0.03 300 
240 1 1 0.373873 0.277789 2.30961 0 0 0 -0 -0 -1 0 0 0 0 0 0 0.03 300 
250 1 1 0.309313 0.331656 2.30448 0 0 0 -0 -0 -1 0 0 0 0 0 0 0.03 300 
316 1 1 0.11734 0.353945 2.30534 0 0 0 -0 -0 -1 0 0 0 0 0 0 0.03 300 
259 1 1 0.22228 0.356059 2.32403 0 0 0 -0 -0 -1 0 0 0 0 0 0 0.03 300 
277 1 1 0.255485 0.407729 2.32471 0 0 0 -0 -0 -1 0 0 0 0 0 0 0.03 300 
274 1 1 0.492828 0.422942 2.31588 0 0 0 -0 -0 -1 0 0 0 0 0 0 0.03 300 
182 1 1 0.244578 0.471314 2.29452 0 0 0 -0 -0 -1 0 0 0 0 0 0 0.03 300 
258 1 1 0.122106 0.287147 2.33085 0 0 0 -0 -0 -1 0 0 0 0 0 0 0.03 300 
253 1 1 0.245744 0.294067 2.3546 0 0 0 -0 -0 -1 0 0 0 0 0 0 0.03 300 
282 1 1 0.474016 0.292718 2.32895 0 0 0 -0 -0 -1 0 0 0 0 0 0 0.03 300 
212 1 1 0.417494 0.317622 2.33353 0 0 0 -0 -0 -1 0 0 0 0 0 0 0.03 300 
309 1 1 0.164495 0.407825 2.33668 0 0 0 -0 -0 -1 0 0 0 0 0 0 0.03 300 
234 1 1 0.396246 0.377563 2.34259 0 0 0 -0 -0 -1 0 0 0 0 0 0 0.03 300 
318 1 1 0.359003 0.427078 2.34033 0 0 0 -0 -0 -1 0 0 0 0 0 0 0.03 300 
184 1 1 0.446465 0.410676 2.35321 0 0 0 -0 -0 -1 0 0 0 0 0 0 0.03 300 
261 1 1 0.177868 0.470844 2.34335 0 0 0 -0 -0 -1 0 0 0 0 0 0 0.03 300 
223 1 1 0.10548 0.49309 2.36007 0 0 0 -0 -0 -1 0 0 0 0 0 0 0.03 300 
192 1 1 0.365388 0.511304 2.32856 0 0 0 -0 -0 -1 0 0 0 0 0 0 0.03 300 
290 1 1 0.276688 0.526521 2.33397 0 0 0 -0 -0 -1 0 0 0 0 0 0 0.03 300 
329 1 1 0.429505 0.520312 2.3395 0 0 0 -0 -0 -1 0 0 0 0 0 0 0.03 300 
343 1 1 0.15665 0.233052 2.36364 0 0 0 -0 -0 -1 0 0 0 0 0 0 0.03 300 
315 1 1 0.216797 0.232457 2.38158 0 0 0 -0 -0 -1 0 0 0 0 0 0 0.03 300 
189 1 1 0.296506 0.266561 2.37407 0 0 0 -0 -0 -1 0 0 0 0 0 0 0.03 300 
349 1 1 0.365686 0.235664 2.36936 0 0 0 -0 -0 -1 0 0 0 0 0 0 0.03 300 
330 1 1 0.462592 0.233737 2.37699 0 0 0 -0 -0 -1 0 0 0 0 0 0 0.03 300 
202 1 1 0.125386 0.2781 2.3909 0 0 0 -0 -0 -1 0 0 0 0 0 0 0.03 300 
324 1 1 0.115625 0.334079 2.37008 0 0 0 -0 -0 -1 0 0 0 0 0 0 0.03 300 
211 1 1 0.342022 0.308301 2.36941 0 0 0 -0 -0 -1 0 0 0 0 0 0 0.03 300 
222 1 1 0.18233 0.36007 2.39255 0 0 0 -0 -0 -1 0 0 0 0 0 0 0.03 300 
242 1 1 0.493753 0.377377 2.39419 0 0 0 -0 -0 -1 0 0 0 0 0 0 0.03 300 
344 1 1 0.280536 0.422033 2.37742 0 0 0 -0 -0 -1 0 0 0 0 0 0 0.03 300 
269 1 1 0.324092 0.465876 2.38568 0 0 0 -0 -0 -1 0 0 0 0 0 0 0.03 300 
287 1 1 0.403036 0.471118 2.38135 0 0 0 -0 -0 -1 0 0 0 0 0 0 0.03 300 
266 1 1 0.482717 0.469458 2.37953 0 0 0 -0 -0 -1 0 0 0 0 0 0 0.03 300 
310 1 1 0.172992 0.51357 2.39251 0 0 0 -0 -0 -1 0 0 0 0 0 0 0.03 300 
210 1 1 0.236464 0.494005 2.37819 0 0 0 -0 -0 -1 0 0 0 0 0 0 0.03 300 
188 1 1 0.306795 0.524102 2.39006 0 0 0 -0 -0 -1 0 0 0 0 0 0 0.03 300 
353 1 1 0.264297 0.230887 2.41885 0 0 0 -0 -0 -1 0 0 0 0 0 0 0.03 300 
219 1 1 0.410483 0.256917 2.40553 0 0 0 -0 -0 -1 0 0 0 0 0 0 0.03 300 
199 1 1 0.254913 0.330119 2.42002 0 0 0 -0 -0 -1 0 0 0 0 0 0 0.03 300 
191 1 1 0.12776 0.394841 2.39642 0 0 0 -0 -0 -1 0 0 0 0 0 0 0.03 300 
302 1 1 0.343126 0.393328 2.41825 0 0 0 -0 -0 -1 0 0 0 0 0 0 0.03 300 
228 1 1 0.413169 0.40103 2.40234 0 0 0 -0 -0 -1 0 0 0 0 0 0 0.03 300 
306 1 1 0.210852 0.447093 2.41752 0 0 0 -0 -0 -1 0 0 0 0 0 0 0.03 300 
336 1 1 0.169622 0.23057 2.44238 0 0 0 -0 -0 -1 0 0 0 0 0 0 0.03 300 
275 1 1 0.31599 0.267584 2.43773 0 0 0 -0 -0 -1 0 0 0 0 0 0 0.03 300 
292 1 1 0.163002 0.294172 2.46091 0 0 0 -0 -0 -1 0 0 0 0 0 0 0.03 300 
207 1 1 0.223339 0.283687 2.45062 0 0 0 -0 -0 -1 0 0 0 0 0 0 0.03 300 
244 1 1 0.46854 0.271589 2.44621 0 0 0 -0 -0 -1 0 0 0 0 0 0 0.03 300 
323 1 1 0.363208 0.332364 2.43706 0 0 0 -0 -0 -1 0 0 0 0 0 0 0.03 300 
273 1 1 0.441723 0.330179 2.43774 0 0 0 -0 -0 -1 0 0 0 0 0 0 0.03 300 
203 1 1 0.114725 0.361154 2.45615 0 0 0 -0 -0 -1 0 0 0 0 0 0 0.03 300 
235 1 1 0.267803 0.425206 2.44094 0 0 0 -0 -0 -1 0 0 0 0 0 0 0.03 300 
342 1 1 0.480929 0.433795 2.43215 0 0 0 -0 -0 -1 0 0 0 0 0 0 0.03 300 
179 1 1 0.386922 0.454847 2.44993 0 0 0 -0 -0 -1 0 0 0 0 0 0 0.03 300 
195 1 1 0.106207 0.489082 2.44925 0 0 0 -0 -0 -1 0 0 0 0 0 0 0.03 300 
236 1 1 0.216283 0.50207 2.45779 0 0 0 -0 -0 -1 0 0 0 0 0 0 0.03 300 
337 1 1 0.352584 0.510062 2.45656 0 0 0 -0 -0 -1 0 0 0 0 0 0 0.03 300 
214 1 1 0.465608 0.504217 2.44039 0 0 0 -0 -0 -1 0 0 0 0 0 0 0.03 300 
312 1 1 0.364798 0.238472 2.47811 0 0 0 -0 -0 -1 0 0 0 0 0 0 0.03 300 
286 1 1 0.427168 0.251042 2.48538 0 0 0 -0 -0 -1 0 0 0 0 0 0 0.03 300 