ITEM: TIMESTEP
99000
ITEM: NUMBER OF ATOMS
350
ITEM: BOX BOUNDS ff ff ff
0 3.3
-0.3 0.8
-0.5 3
ITEM: ATOMS id type type x y z ix iy iz vx vy vz fx fy fz omegax omegay omegaz radius f_Temp[0] 
213 1 1 0.132289 0.171918 1.59234 0 0 0 0.527239 -0.227347 0.066026 0 0 -2.77371 2.70712 -70.2012 17.6013 0.03 310.824 
248 1 1 0.204011 0.192231 1.57561 0 0 0 1.80357 -0.233209 0.168178 22.9504 6.56009 3.24562 10.8338 -73.3621 28.1845 0.03 308.515 
97 1 1 0.303704 0.194119 1.57836 0 0 0 1.6142 -0.29783 0.230193 -0.353914 0.916888 -2.8808 0.915911 -78.6987 49.6432 0.03 334.301 
22 1 1 0.43853 0.196161 1.58577 0 0 0 2.37808 -0.122021 0.0513491 0 0 -2.77371 4.33612 -54.8044 -42.5887 0.03 317.785 
288 1 1 0.493478 0.166067 1.59667 0 0 0 1.78896 0.348212 -0.289178 0.221686 0.878736 -0.194838 23.5112 -68.8973 25.861 0.03 316.586 
90 1 1 0.564722 0.180651 1.58321 0 0 0 2.10231 -0.0849802 0.00271485 -12.9702 5.13033 -20.6135 12.8449 -58.2828 18.5268 0.03 340.786 
51 1 1 0.751816 0.195438 1.5767 0 0 0 2.44953 -0.0517673 0.0532569 0.0533832 -0.481537 -0.369313 2.33462 -52.4932 16.146 0.03 328.93 
40 1 1 0.93357 0.188713 1.57744 0 0 0 2.40755 0.108618 0.145344 33.3454 -14.2762 13.1806 1.90283 -49.9799 14.5939 0.03 339.719 
161 1 1 1.11335 0.186409 1.57691 0 0 0 2.73482 0.00574528 0.0491965 13.1825 -2.20701 3.50184 0.920893 -39.6813 17.5455 0.03 338.849 
88 1 1 1.40924 0.192807 1.57691 0 0 0 2.8769 -0.0410405 -0.00715817 0.572297 -0.893534 -0.319155 4.17342 -35.3295 -17.0182 0.03 321.711 
1 1 1 1.56747 0.194694 1.57682 0 0 0 2.88199 -0.00498638 0.00729811 -0.0296786 -0.0143452 0.447623 0.402554 -37.83 15.2777 0.03 348.235 
164 1 1 0.51988 0.219823 1.57682 0 0 0 2.17975 -0.14743 0.00933589 -0.631878 1.01301 -1.36068 12.8442 -49.9835 -17.8862 0.03 315.163 
221 1 1 0.682239 0.198677 1.58625 0 0 0 2.54642 -0.649594 -0.495233 0 0 -2.77371 52.3787 7.02331 2.61698 0.03 301.424 
12 1 1 0.808284 0.224932 1.59289 0 0 0 2.31343 0.477069 -0.307962 0 0 -2.77371 -2.87708 9.62364 -10.5678 0.03 338.671 
95 1 1 0.886279 0.224003 1.57676 0 0 0 2.83945 -0.170709 -0.121011 -28.0226 14.3901 -8.08009 7.00325 -7.85499 1.6046 0.03 313.642 
91 1 1 0.991965 0.215288 1.57788 0 0 0 2.69176 0.101754 -0.0244533 -0.564662 1.23822 -2.64589 3.24252 -17.0341 -14.353 0.03 334.111 
141 1 1 1.05607 0.20261 1.57641 0 0 0 2.92222 -0.284372 0.163811 -11.8165 1.95353 -5.86939 8.12598 10.9839 -1.70528 0.03 307.246 
15 1 1 1.1706 0.204327 1.57687 0 0 0 2.66909 0.0596207 0.00142082 0.835375 0.321153 0.0517909 -2.02031 -44.2903 22.9814 0.03 351.149 
78 1 1 1.25014 0.228895 1.57679 0 0 0 2.58179 0.0823465 0.00408274 0.116735 -0.0446139 0.660252 -2.58434 -47.546 31.2144 0.03 343.355 
173 1 1 1.34956 0.1979 1.57699 0 0 0 2.85568 0.114472 -0.00401396 0.709567 -0.0317114 -1.76453 -3.86666 -33.706 31.3681 0.03 329.435 
108 1 1 1.6191 0.225042 1.57692 0 0 0 2.83545 0.121343 -0.00673371 0.0671393 0.0371489 -0.554422 -4.05527 -38.986 3.47131 0.03 385.042 
351 1 1 0.232837 0.261259 1.58632 0 0 0 0.874013 0.422496 -1.25595 0 0 -2.77371 -1.42958 -1.05035 2.24683 0.03 300.211 
230 1 1 0.302763 0.252471 1.58988 0 0 0 -0.529709 0.0865149 -0.801424 -7.01011 1.88231 -4.99071 -4.33642 38.919 -24.0975 0.03 301.341 
110 1 1 0.464414 0.25184 1.58243 0 0 0 2.09567 -0.463213 0.183775 -2.80877 4.09457 -1.91042 17.1694 -56.6394 13.9485 0.03 340.047 
107 1 1 0.561671 0.263622 1.57538 0 0 0 2.20554 0.0915424 -0.137359 24.6228 -5.65812 38.5436 5.5098 -49.2276 -4.72406 0.03 310.345 
3 1 1 0.638061 0.239554 1.57689 0 0 0 2.64188 -0.298573 0.0159388 0.208004 0.253133 -1.13172 10.2307 -45.7282 7.97577 0.03 355.194 
5 1 1 0.742625 0.25489 1.57687 0 0 0 2.36911 0.0138818 0.0104072 -0.241587 0.0970004 -0.630383 -0.42228 -54.8289 -17.1391 0.03 335.289 
19 1 1 0.944684 0.251959 1.57717 0 0 0 2.79369 0.318754 0.0512554 1.03667 0.401139 -3.3495 -9.54713 -31.4941 -12.9195 0.03 308.787 
13 1 1 1.0935 0.262317 1.57661 0 0 0 2.3743 0.168829 -0.00726888 1.23539 1.28153 1.29656 -5.79183 -54.8758 3.90732 0.03 380.899 
120 1 1 1.31664 0.251312 1.57679 0 0 0 2.54821 0.101193 0.0200513 -0.0556804 0.0107806 0.29062 -3.39267 -48.6894 -19.5158 0.03 371.293 
125 1 1 1.38177 0.253324 1.5773 0 0 0 2.59744 0.0317561 0.0945968 0 0 -2.77371 -1.14376 -47.1193 -2.5119 0.03 345.967 
206 1 1 0.174254 0.291318 1.58925 0 0 0 1.1484 0.744255 -0.475012 0 0 -2.77371 25.6822 -75.0421 9.35381 0.03 303.921 
132 1 1 0.390297 0.272537 1.57735 0 0 0 1.39733 -0.666411 -0.01103 0 0 -2.77371 22.6184 -87.5867 -15.412 0.03 336.176 
70 1 1 0.501608 0.299267 1.58086 0 0 0 1.90856 -0.175666 -0.011582 0 0 -2.77371 0.871029 -62.9435 -7.22246 0.03 335.393 
175 1 1 0.785004 0.297312 1.57916 0 0 0 2.27592 0.203491 -0.557674 0 0 -2.77371 -34.3534 40.6498 20.8675 0.03 316.58 
127 1 1 0.855604 0.292479 1.57747 0 0 0 2.28641 -0.0738734 -0.0839338 0 0 -2.77371 2.56225 -56.9277 13.4069 0.03 314.588 
11 1 1 0.993281 0.287013 1.57709 0 0 0 2.84838 0.355353 -0.094386 13.1915 6.32463 -0.847631 -22.7542 -16.1033 17.34 0.03 354.574 
123 1 1 1.13912 0.302688 1.57629 0 0 0 2.4954 0.0451632 -0.0060608 -0.0902052 1.59563 7.32612 2.54644 -49.5644 -8.02699 0.03 327.136 
64 1 1 1.19593 0.284895 1.57695 0 0 0 2.43516 0.0440219 0.0210837 5.26432 -1.54381 -0.578322 -1.19962 -51.2495 22.9057 0.03 371.003 
7 1 1 1.25208 0.284953 1.59765 0 0 0 2.52276 0.245794 -0.387217 1.6625 0.398061 -0.40229 11.4956 60.8216 -12.7326 0.03 303.55 
144 1 1 1.42595 0.295846 1.57687 0 0 0 2.72788 -0.0110536 0.00365865 -0.0080835 0.00661478 -0.254179 0.369956 -42.5733 18.123 0.03 345.629 
41 1 1 1.51539 0.271844 1.57686 0 0 0 2.53788 0.111903 -6.25559e-08 1.94137e-07 -1.48582e-08 -6.56361e-07 -3.74538 -48.9369 -3.69394 0.03 366.773 
112 1 1 1.61181 0.290959 1.57666 0 0 0 3.07107 -0.188263 0.00481049 -0.617582 -0.0634146 3.6229 6.54237 -32.1179 -7.22518 0.03 367.429 
257 1 1 0.0231605 0.318492 1.57998 0 0 0 0.140595 0.189312 -0.139747 0 0 -2.77371 -10.9058 -80.0804 -6.65116 0.03 303.338 
339 1 1 0.283938 0.308167 1.57692 0 0 0 1.2453 0.497373 -0.111947 2.31768 -2.34166 3.81567 1.29444 -74.3092 8.84953 0.03 327.587 
209 1 1 0.442276 0.307364 1.58517 0 0 0 1.72585 -0.293603 -0.906845 2.80877 -4.09457 -3.637 -33.9771 -1.936 -7.57451 0.03 301.218 
313 1 1 0.592716 0.315412 1.57564 0 0 0 2.41823 -0.368009 0.142132 -2.69861 -2.2454 18.3663 9.16912 -59.0323 -16.9863 0.03 304.991 
94 1 1 1.04757 0.312359 1.5787 0 0 0 2.90299 0.439636 -0.0203205 -1.30861 -0.598848 -2.10177 -16.8542 -28.927 -16.6913 0.03 346.323 
56 1 1 1.35663 0.311116 1.57663 0 0 0 2.5748 0.0589661 -0.0521015 0.610851 -0.681213 1.52355 -1.09174 -48.0573 -16.7808 0.03 331.335 
159 1 1 1.56588 0.329715 1.57689 0 0 0 3.13751 -0.104592 -0.0128194 1.41597 -0.178516 0.0806545 5.12523 -15.9501 8.57918 0.03 316.551 
59 1 1 1.64916 0.337751 1.57704 0 0 0 2.93886 -0.0670172 0.00394088 0.861878 -0.56415 -1.89724 11.3061 -23.8958 -5.79712 0.03 354.214 
298 1 1 0.136818 0.352582 1.57628 0 0 0 0.653099 -0.0907984 0.250227 0.292372 0.924734 -0.834007 -2.16703 -111.725 -6.30199 0.03 306.235 
300 1 1 0.251068 0.361156 1.57595 0 0 0 1.31829 0.150963 0.0135066 -11.1448 -18.2986 -14.8049 -11.6658 -89.4313 0.578116 0.03 315.848 
31 1 1 0.33138 0.366811 1.58117 0 0 0 1.28727 -0.25674 0.127847 0 0 -2.77371 -7.09288 -88.9661 5.36403 0.03 310.973 
340 1 1 0.392701 0.349609 1.59555 0 0 0 1.64549 -0.219544 -0.258067 -3.69877 -1.02692 -0.990829 5.44624 80.541 -5.64262 0.03 300.212 
53 1 1 0.488244 0.361584 1.5753 0 0 0 1.89336 -0.0887781 0.346175 -3.67968 1.52716 1.63321 0.791873 -78.4833 -9.12585 0.03 320.289 
166 1 1 0.697589 0.346905 1.57724 0 0 0 2.28864 -0.271191 0.0122277 0 0 -2.77371 9.09058 -57.338 17.9709 0.03 335.672 
38 1 1 0.756431 0.3626 1.58105 0 0 0 2.2136 0.0343849 0.0680347 -7.86803 -7.81089 -7.19763 -12.781 -42.184 -4.52257 0.03 335.373 
291 1 1 0.891844 0.36534 1.57691 0 0 0 2.78326 0.473822 -0.196358 5.51185 -1.12067 7.58101 -6.71928 5.29174 -18.1758 0.03 303.509 
35 1 1 0.948545 0.347991 1.57817 0 0 0 2.84905 -0.223863 0.250001 -0.349105 0.0978784 -2.60226 8.6973 -32.9554 -3.99096 0.03 334.02 
126 1 1 1.098 0.354919 1.57676 0 0 0 2.6643 0.0257094 0.0260833 -0.102831 -0.134962 -0.564849 -0.783881 -44.7502 -31.656 0.03 327.832 
24 1 1 1.1634 0.353961 1.59369 0 0 0 2.60297 0.0985538 0.0257848 0.768514 4.40883 0.981668 -4.71157 -31.3608 -0.171829 0.03 303.78 
124 1 1 1.44008 0.357503 1.57685 0 0 0 2.4273 0.251323 0.00426358 -0.12383 -0.335291 -0.025821 -8.13684 -52.7479 -7.93824 0.03 370.919 
128 1 1 0.633434 0.3941 1.58184 0 0 0 2.38506 -0.0350939 -0.0676768 0 0 -2.77371 1.15577 -54.1706 -22.1797 0.03 309.605 
77 1 1 0.792955 0.40912 1.57703 0 0 0 2.05621 0.127695 0.0548178 8.13572 8.43319 0.295345 -6.43959 -64.0733 3.61993 0.03 340.648 
101 1 1 1.04788 0.404541 1.57682 0 0 0 2.86473 0.0747141 0.00548477 -0.244441 0.186058 0.257179 -2.48859 -38.0082 4.2524 0.03 357.747 
143 1 1 1.35069 0.377317 1.57686 0 0 0 2.19167 0.102394 -0.000208739 0.000785 -4.57601e-05 -0.00562769 -3.42705 -60.5232 2.41306 0.03 366.472 
122 1 1 1.47338 0.408262 1.58145 0 0 0 2.8316 0.0437536 -0.0678688 0 0 -2.77371 -2.87551 -38.2796 -8.31112 0.03 357.244 
30 1 1 1.56893 0.391887 1.57681 0 0 0 2.79957 -0.0179757 0.0540395 0.0102411 0.00245313 -1.74271 0.518098 -40.8857 -3.97602 0.03 377.429 
167 1 1 1.62874 0.394047 1.57687 0 0 0 2.85337 -0.110348 -0.00514623 0.0708678 -2.75542 -1.04247 4.43567 -38.2138 11.0936 0.03 353.612 
289 1 1 0.0907688 0.41773 1.57664 0 0 0 0.476517 0.242488 0.0366127 2.44055 0.976504 2.4836 -25.5442 -74.8878 -5.7057 0.03 311.317 
308 1 1 0.155587 0.431031 1.57496 0 0 0 1.7818 0.935806 0.789428 5.17584 0.461471 7.61902 -31.4992 -90.4882 -3.92775 0.03 302.885 
270 1 1 0.270931 0.41501 1.58758 0 0 0 0.903043 0.30196 -0.719103 25.1605 17.6324 26.6025 -38.0409 36.2035 1.56799 0.03 300.54 
148 1 1 0.334553 0.427028 1.57913 0 0 0 1.58019 -0.131468 0.245393 0 0 -2.77371 5.4516 -80.9721 -7.95238 0.03 327.45 
176 1 1 0.567132 0.423471 1.58372 0 0 0 2.62446 0.32588 0.120526 0 0 -2.77371 -9.60506 -46.6249 6.65644 0.03 317.246 
170 1 1 1.30002 0.425366 1.57687 0 0 0 2.79851 -0.0303141 0.000882035 -0.00668564 0.00290592 -0.0938094 1.01485 -40.2099 -6.38163 0.03 342.752 
255 1 1 0.102431 0.476728 1.57671 0 0 0 -0.422515 -0.0688477 -2.51288 188.31 -1.73911 130.993 3.58964 -9.76124 1.29087 0.03 300.042 
245 1 1 0.222596 0.448609 1.59439 0 0 0 0.911407 -0.153297 0.234182 -0.262487 -8.62579 14.6562 -11.6133 -75.5571 5.6374 0.03 303.703 
84 1 1 0.440447 0.464676 1.57722 0 0 0 1.66684 0.402871 -0.214774 -10.2479 5.83255 -28.318 -17.2173 -68.9371 4.97992 0.03 325.484 
116 1 1 0.501494 0.478375 1.57644 0 0 0 2.30799 0.273186 0.261004 -4.50922 -2.40081 -3.05978 -7.42008 -60.0143 -6.96261 0.03 344.367 
6 1 1 0.623382 0.464436 1.57737 0 0 0 1.86617 0.00964332 -0.0499593 0 0 -2.77371 -0.329193 -71.3358 -5.8574 0.03 321.562 
25 1 1 0.683105 0.447496 1.57747 0 0 0 1.83687 0.0934995 -0.195747 0 0 -2.77371 -2.84759 -72.9837 -18.2496 0.03 325.221 
135 1 1 0.941497 0.459215 1.57684 0 0 0 2.4479 -0.184617 -0.0009741 0.00201966 -0.000792267 0.345256 6.18325 -51.975 -3.84203 0.03 356.353 
134 1 1 1.06572 0.462636 1.57672 0 0 0 2.78944 0.0605188 -0.0724815 -11.6722 -3.52048 -1.50481 -0.553257 7.52152 6.64196 0.03 313.745 
37 1 1 1.12436 0.470688 1.57609 0 0 0 2.66234 0.0311707 -0.0158931 17.5536 5.2446 16.0694 -0.755672 -45.5289 -2.3345 0.03 327.386 
69 1 1 1.18526 0.464586 1.57686 0 0 0 2.70419 0.073221 3.18066e-06 -6.56516e-06 3.6863e-07 0.000735286 -2.4507 -43.3707 -7.8673 0.03 369.093 
111 1 1 1.25047 0.459557 1.57686 0 0 0 2.79335 -0.009127 -0.000530568 0.00535132 -0.00355295 0.00434388 0.304622 -40.387 4.97333 0.03 337.326 
50 1 1 1.37678 0.446015 1.5805 0 0 0 2.96139 -0.111531 0.125247 0 0 -2.77371 4.08904 -35.1334 3.20861 0.03 355.213 
163 1 1 1.43684 0.456445 1.57686 0 0 0 2.5337 -0.113531 -0.00399002 0.0165136 -0.00374878 0.210661 3.79491 -49.0798 19.669 0.03 363.191 
131 1 1 1.53499 0.449766 1.57686 0 0 0 2.87718 -0.072377 -0.000418827 -0.428605 -0.312873 -0.0740686 2.5365 -37.7366 -6.41256 0.03 356.097 
39 1 1 1.59618 0.467568 1.57683 0 0 0 2.83923 -0.130455 -0.0107449 4.31089 -0.983261 -4.53433 4.73855 -35.8661 -9.35699 0.03 360.374 
272 1 1 0.194621 0.496149 1.57472 0 0 0 1.80507 0.403967 0.404586 -9.0786 5.60118 -5.6969 -13.568 -78.2066 13.566 0.03 306.971 
279 1 1 0.26014 0.508643 1.57749 0 0 0 1.91663 0.237833 0.24687 0 0 -2.77371 -7.77344 -69.8037 6.30583 0.03 311.35 
263 1 1 0.314387 0.48557 1.59323 0 0 0 0.705549 -0.41737 -0.527943 0 0 -2.77371 19.275 -14.4217 -18.9006 0.03 300.159 
226 1 1 0.405101 0.514053 1.57547 0 0 0 2.2451 0.248679 -0.247467 1.11431 -0.642316 29.8595 -9.0763 -64.3799 0.995534 0.03 317.223 
160 1 1 0.753544 0.49303 1.57687 0 0 0 1.93271 0.132974 -0.000654239 0.00254496 -0.000136952 -0.0723435 -4.44991 -69.1805 3.49012 0.03 348.26 
4 1 1 0.81834 0.491864 1.57671 0 0 0 1.99873 -0.119636 0.072208 0.21767 2.59325 -1.46187 -1.73807 -67.0816 9.16473 0.03 327.776 
169 1 1 0.995704 0.49417 1.57851 0 0 0 2.62774 -0.104942 -0.0604908 0.428305 -0.170748 -2.52917 5.24482 -41.7239 0.621382 0.03 342.45 
104 1 1 1.22391 0.514082 1.57695 0 0 0 2.58269 -0.128757 0.0313323 7.31852 -4.37214 1.45645 4.57944 -46.1564 5.42923 0.03 347.967 
26 1 1 1.33016 0.483768 1.57685 0 0 0 3.06753 0.045658 0.000122458 0.0433734 0.144829 0.122159 -1.5619 -31.1566 -6.34335 0.03 329.822 
145 1 1 1.5528 0.508068 1.57653 0 0 0 2.9436 -0.0152871 0.0676707 -2.81814 2.00444 -0.77915 1.81423 -33.5631 10.1046 0.03 346.155 
249 1 1 0.32135 0.546426 1.57726 0 0 0 1.43778 -0.00454532 0.0328601 0 0 -2.77371 1.71886 -65.4605 21.2501 0.03 313.725 
21 1 1 0.609552 0.530431 1.57596 0 0 0 2.33973 0.255212 0.140577 -0.109681 -0.552384 12.7025 -7.1494 -58.4575 13.1749 0.03 329.406 
34 1 1 0.823269 0.551538 1.57717 0 0 0 2.24033 -0.0404865 0.12267 -0.19686 -1.55507 -2.00879 0.831193 -58.8741 -17.2978 0.03 333.058 
136 1 1 0.941307 0.519254 1.57691 0 0 0 2.56932 -0.244157 -0.0279106 0.605786 0.134644 0.284583 18.5972 -0.621602 8.5665 0.03 324.577 
61 1 1 1.10084 0.529921 1.57685 0 0 0 2.28383 0.160261 -0.000812526 0.00372081 -0.000168451 0.16983 -5.36443 -57.4516 11.6088 0.03 351.779 
152 1 1 1.16988 0.539095 1.577 0 0 0 2.65646 -0.221096 -0.19308 1.12555 -1.65486 1.07672 12.9559 -37.0671 -16.9874 0.03 364.212 
42 1 1 1.32841 0.544288 1.57672 0 0 0 2.65741 0.0959571 0.040154 0.971863 -1.62253 -0.329286 -2.42811 -38.3975 14.3023 0.03 357.047 
121 1 1 1.38797 0.540359 1.57702 0 0 0 2.68988 -0.0510476 -0.00571369 0.453496 0.0177605 -2.0054 3.53229 -9.28135 -19.8163 0.03 373.726 
63 1 1 1.44755 0.538527 1.57992 0 0 0 2.72681 -0.0507815 0.150847 -0.297898 0.157661 -1.65825 1.94397 -24.9833 16.3005 0.03 373.659 
109 1 1 1.62056 0.526476 1.57686 0 0 0 2.97634 -0.114377 0.000858894 -0.00355902 -0.00034154 0.0244666 3.8287 -34.2668 6.34223 0.03 368.89 
303 1 1 0.100461 0.57787 1.58795 0 0 0 0.583573 0.97115 0.12467 0 0 -2.77371 -33.1172 -117.751 -3.06458 0.03 303.576 
304 1 1 0.256799 0.569553 1.57867 0 0 0 0.973563 -0.121405 -0.136143 1.49974 -1.92702 -0.338994 4.5691 -101.87 -33.3104 0.03 319.516 
119 1 1 0.467698 0.560892 1.57786 0 0 0 1.83325 0.414936 -0.00991852 0 0 -2.77371 -12.4151 -72.9216 29.3898 0.03 347.543 
48 1 1 0.546022 0.561905 1.57684 0 0 0 1.84679 0.0603751 -0.00305541 0.0175516 -2.93981e-05 0.612925 -2.0223 -72.1192 15.185 0.03 321.937 
227 1 1 0.696023 0.553992 1.57679 0 0 0 2.34691 0.0830819 -0.0582591 -3.47789 0.885846 0.250707 -14.0934 -29.9204 -17.0962 0.03 313.393 
147 1 1 0.751034 0.574891 1.58537 0 0 0 2.36653 0.118815 -0.393155 6.60296 0.512429 1.04913 -38.0836 -15.4574 -14.4524 0.03 323.878 
117 1 1 0.905656 0.567495 1.57674 0 0 0 2.40906 -0.310127 -0.211051 -7.42309 -2.26924 12.2249 11.8346 -58.8296 -10.2418 0.03 339.99 
16 1 1 0.985994 0.560581 1.5769 0 0 0 2.44314 -0.290421 0.00568741 0.956203 -0.209095 -0.816118 10.6653 -47.7178 3.71615 0.03 355.338 
118 1 1 1.04603 0.560342 1.57675 0 0 0 2.47707 -0.106977 -0.0846904 -9.30665 10.5221 0.634427 -0.184796 -44.993 -1.93835 0.03 347.772 
105 1 1 1.26984 0.566298 1.57666 0 0 0 2.76964 0.0496691 0.00808597 0.908867 1.01428 1.08697 -4.49333 -36.9768 -8.8993 0.03 330.695 
158 1 1 1.55511 0.567926 1.57706 0 0 0 2.90475 -0.0114797 -0.00200998 0.0731504 -0.632985 -0.449834 0.275912 -37.5896 -14.2556 0.03 371.901 
62 1 1 0.380118 0.139361 1.62383 0 0 0 0.617625 0.267742 -0.144637 -0.351346 -1.60669 -3.99216 -9.35341 -101.92 57.9611 0.03 306.237 
114 1 1 0.613339 0.156492 1.60665 0 0 0 2.04064 0.272945 -0.172991 15.5011 -8.9034 15.9465 3.38221 -52.3416 22.5805 0.03 334.159 
281 1 1 0.761801 0.150172 1.61433 0 0 0 1.9938 -0.124556 0.154009 0.124428 -1.10665 -1.98189 13.844 -31.3941 33.509 0.03 309.466 
58 1 1 0.998791 0.160805 1.60102 0 0 0 2.79624 0.0279515 0.041015 0.619118 7.40299 5.37038 1.59732 -26.7208 36.4389 0.03 358.269 
49 1 1 1.04435 0.143763 1.63459 0 0 0 2.99736 0.245986 0.0193558 6.94769 0.538401 7.09392 13.7694 -14.6569 23.5089 0.03 310.608 
165 1 1 1.26486 0.149283 1.61366 0 0 0 2.0562 0.770652 -0.770653 1.24263e-07 0.988773 -0.988773 -36.447 -25.8599 66.0695 0.03 330.642 
87 1 1 1.41865 0.147225 1.61563 0 0 0 2.41395 -0.117649 0.0552309 0.51449 1.78705 2.4344 7.28687 -24.9984 49.1258 0.03 346.77 
332 1 1 0.212954 0.175881 1.63132 0 0 0 -0.0536045 -1.08378 0.199155 -7.95846 -6.45228 21.1917 21.419 1.32711 -17.1048 0.03 300.068 
171 1 1 0.822589 0.165542 1.61387 0 0 0 2.12519 0.00966851 -0.650256 0 0 -2.77371 -0.107547 44.21 -30.1231 0.03 300.568 
43 1 1 0.909951 0.164973 1.62825 0 0 0 1.50629 0.292904 -0.338175 10.8636 30.0759 -0.756216 5.68506 19.619 -22.0566 0.03 301.169 
319 1 1 0.58775 0.229132 1.61521 0 0 0 1.60687 -0.56727 -0.268479 3.69426 -7.3142 18.203 18.7387 16.6605 1.17861 0.03 300.243 
185 1 1 0.174164 0.234582 1.61946 0 0 0 -0.0970008 -0.845191 -1.16707 0 0 -2.77371 35.3016 -24.1568 5.35469 0.03 300.027 
180 1 1 0.349646 0.259373 1.62373 0 0 0 0.545082 -0.257756 -1.00993 1.50624 0.742455 1.34551 -4.63586 -10.4956 -2.57871 0.03 302.161 
231 1 1 0.406442 0.244205 1.62876 0 0 0 0.640776 -0.466413 -0.999985 9.41613 -3.54742 3.64734 -0.664861 7.28535 0.545088 0.03 300.451 
146 1 1 1.14375 0.2495 1.60619 0 0 0 2.45194 0.00734394 -0.200006 1.69076 -0.519963 -0.59962 2.04422 63.7419 -12.4536 0.03 304.396 
46 1 1 1.42526 0.236759 1.61584 0 0 0 2.77603 -0.0782545 0.0699788 0 0 -2.77371 -16.5196 61.0537 -17.3928 0.03 301.635 
181 1 1 0.61673 0.29978 1.62702 0 0 0 1.73215 0.0100232 0.922456 1.2433 0.7829 6.57485 -21.2588 26.1505 25.8232 0.03 300.742 
68 1 1 0.679899 0.298431 1.62737 0 0 0 1.71399 -0.470482 -0.169079 0 0 -2.77371 30.1022 46.1697 -4.14162 0.03 300.806 
225 1 1 0.901715 0.301556 1.61832 0 0 0 2.42741 0.0934138 -0.114223 0 0 -2.77371 -4.70069 47.2336 -0.295924 0.03 300.899 
44 1 1 1.06184 0.276672 1.6252 0 0 0 2.14771 -0.145942 -0.0813957 -1.80958 -0.549618 -0.720693 20.6732 44.814 12.6252 0.03 302.662 
155 1 1 1.33456 0.285549 1.62555 0 0 0 2.34444 0.27503 -0.0159511 -1.83137 -0.951271 3.19998 -10.1748 39.0049 16.2918 0.03 302.525 
73 1 1 0.224128 0.309559 1.62142 0 0 0 0.0642732 0.00081769 -1.21624 -5.58855 -0.842634 4.26292 -33.0154 9.19509 -8.59647 0.03 301.041 
187 1 1 0.851889 0.335501 1.63345 0 0 0 2.36547 0.427867 -0.363593 0 0 -2.77371 22.2103 -37.1063 -13.1042 0.03 300.364 
204 1 1 0.187742 0.361676 1.62394 0 0 0 -0.303789 0.234196 -1.01565 1.07291 2.00026 1.65123 -31.29 34.6449 0.573111 0.03 300.226 
331 1 1 0.276286 0.342932 1.62625 0 0 0 0.075693 -0.209073 0.382084 -62.6447 17.5779 -80.041 27.4306 41.0616 7.96089 0.03 300.262 
71 1 1 0.534613 0.34409 1.60626 0 0 0 2.14771 -0.146077 0.693004 6.82622 -1.11579 2.90363 7.72177 76.4334 18.1278 0.03 302.924 
233 1 1 0.588901 0.365642 1.61781 0 0 0 2.29441 0.662018 -0.700287 0.114387 -0.00441001 -2.71989 -0.0187189 -21.2553 14.5574 0.03 300.036 
254 1 1 0.486591 0.383148 1.63011 0 0 0 1.00936 -0.0263028 0.418185 -4.037 4.51606 -1.94808 -0.522852 43.5088 -1.21029 0.03 300.6 
153 1 1 1.07553 0.382151 1.62501 0 0 0 2.6164 -0.0930763 0.0829536 -0.0881639 0.230888 -1.36771 18.1448 27.8078 5.06138 0.03 303.429 
178 1 1 0.395479 0.438147 1.61487 0 0 0 0.52498 0.227661 -0.568786 0 0 -2.77371 3.08566 -4.01647 9.93104 0.03 300.27 
92 1 1 1.61802 0.433294 1.62059 0 0 0 2.86411 -0.11247 0.0118243 1.16407 0.62945 -1.06755 -7.74224 47.6231 0.581743 0.03 303.467 
352 1 1 0.457173 0.453352 1.63227 0 0 0 0.867768 0.193776 -0.0753693 10.2479 -5.83255 22.7705 23.4334 34.4629 -6.54288 0.03 301.287 
151 1 1 1.56268 0.469885 1.62599 0 0 0 2.90901 -0.0165178 -0.0243857 -2.11626 -1.3937 3.81171 -6.73454 39.2893 5.08772 0.03 305.975 
238 1 1 0.167371 0.509599 1.62503 0 0 0 -0.660888 0.305352 -1.13925 -5.40071 3.31789 28.587 4.12201 -20.1309 3.08613 0.03 300.034 
28 1 1 0.421369 0.509038 1.63115 0 0 0 1.63516 0.288168 0.0280165 2.12565 -1.14297 34.489 5.81826 48.0038 -7.92848 0.03 301.696 
265 1 1 0.523396 0.497794 1.62838 0 0 0 1.19177 0.754174 0.796239 -0.773793 -0.785029 -5.15536 -10.2754 12.8585 3.09758 0.03 300.679 
239 1 1 0.633874 0.496906 1.63004 0 0 0 1.5498 0.506592 -0.0435506 0 0 -2.77371 -17.479 61.1474 11.5142 0.03 300.274 
20 1 1 1.15242 0.494548 1.62201 0 0 0 2.27676 -0.0337221 0.389984 7.18643 2.86647 10.9873 10.4879 31.3425 9.3816 0.03 302.383 
149 1 1 1.31187 0.500296 1.63316 0 0 0 2.49444 0.00879472 -0.313893 0 0 -2.77371 13.959 12.0191 14.8513 0.03 301.294 
237 1 1 0.234719 0.534453 1.62708 0 0 0 0.141647 1.08087 -0.363313 0 0 -2.77371 -17.9177 0.481117 -16.1789 0.03 300.158 
106 1 1 0.761391 0.534491 1.62948 0 0 0 2.06097 0.25101 0.0597723 0 0 -2.77371 11.4043 45.0805 -20.948 0.03 302.042 
98 1 1 1.06848 0.539917 1.62823 0 0 0 1.91696 -0.0508249 -0.280205 13.2525 -8.34323 2.83305 7.29269 41.7749 -1.32289 0.03 301.514 
9 1 1 1.50268 0.529337 1.60076 0 0 0 2.84131 0.0279198 0.0348702 0.438752 0.495088 -3.1263 0.821444 28.9321 -12.0431 0.03 310.28 
55 1 1 0.360824 0.566266 1.61919 0 0 0 1.1947 0.184283 0.362856 0.910045 1.72928 -2.72472 9.65468 58.7159 5.11512 0.03 301.396 
276 1 1 0.418574 0.578186 1.63404 0 0 0 1.3706 0.554434 -0.0120207 0 0 -2.77371 -11.7195 -30.4396 -14.8996 0.03 300.438 
243 1 1 0.613399 0.556476 1.62916 0 0 0 0.443913 0.541675 0.30092 -3.24643 -4.82807 -0.513519 1.34386 -16.1862 -8.1246 0.03 300.285 
2 1 1 1.13229 0.564794 1.61623 0 0 0 2.23717 -0.308547 -0.447966 5.29834 -9.41468 4.90076 2.149 0.45156 -0.554379 0.03 316.576 
301 1 1 0.140543 0.615326 1.63244 0 0 0 0.475694 -0.103528 -0.15044 0 0 -2.77371 8.50714 -29.9181 -29.8952 0.03 303.358 
72 1 1 0.485432 0.605898 1.61788 0 0 0 1.46038 0.420606 0.560874 0 0 -2.77371 -25.9919 -36.5243 -86.2155 0.03 329.087 
57 1 1 0.643735 0.605775 1.61494 0 0 0 1.8053 -0.632483 -0.67255 3.62734 3.5996 1.04668 13.0017 -15.3074 -17.9177 0.03 324.992 
65 1 1 0.803861 0.609722 1.62238 0 0 0 2.8936 0.108844 0.228815 -17.6006 32.5112 -42.8369 -11.6247 -24.3355 -25.9178 0.03 303.856 
17 1 1 0.862521 0.602997 1.61212 0 0 0 2.02054 -0.412542 -0.390244 18.7706 -33.7161 38.6821 19.6911 -35.2595 -56.9662 0.03 324.845 
75 1 1 0.957756 0.601785 1.61122 0 0 0 1.94185 -0.278286 -0.298412 0.311835 0.232783 -2.12448 12.4384 -39.4174 -56.8061 0.03 321.717 
99 1 1 1.02831 0.620374 1.62955 0 0 0 1.97537 -0.352596 -0.353982 0.00445222 -1.01213 -0.962484 16.7139 -57.6839 -38.0661 0.03 337.145 
79 1 1 1.08403 0.597624 1.60583 0 0 0 2.44541 0.0428401 -0.120838 6.81712 -5.64265 11.236 -18.2262 20.4287 -19.2099 0.03 322.266 
156 1 1 1.18986 0.594711 1.60739 0 0 0 2.47643 0.135428 0.0544885 0 0 -2.77371 -19.6654 -43.0243 -23.4269 0.03 344.911 
18 1 1 1.31381 0.595297 1.60463 0 0 0 2.7943 0.0742419 -0.0199295 1.31185 1.27911 2.98899 -9.61128 -24.2786 -28.7029 0.03 318.756 
326 1 1 0.364756 0.624217 1.63324 0 0 0 1.13172 0.339453 0.320848 -0.7888 -4.506 0.696489 -15.587 -120.143 -15.1547 0.03 324.172 
89 1 1 0.705311 0.62543 1.63461 0 0 0 1.73859 -0.21405 -0.211992 -0.00738889 -0.921774 -1.05588 10.0622 -45.6524 -61.293 0.03 325.149 
317 1 1 0.279535 0.109028 1.65962 0 0 0 0.897852 -0.596471 0.541581 0 0 -2.77371 56.5987 -33.1127 41.8079 0.03 303.474 
137 1 1 0.491824 0.119027 1.64644 0 0 0 1.17057 -0.0133124 -0.0308924 0 0 -2.77371 -14.6334 -63.1445 75.0729 0.03 327.926 
76 1 1 0.706407 0.0951004 1.66787 0 0 0 2.19009 0.228599 -0.231346 0.853793 1.08428 -1.3489 8.46714 25.6786 14.3246 0.03 311.244 
115 1 1 0.887872 0.114515 1.64778 0 0 0 2.1128 0.000849638 -0.249378 -6.02022 -7.29808 3.84934 -12.9597 -41.3419 44.0781 0.03 324.851 
139 1 1 0.652582 0.133043 1.64987 0 0 0 1.67971 0.124632 -0.0931944 0 0 -2.77371 25.5648 -50.9584 22.519 0.03 336.743 
283 1 1 0.282979 0.179406 1.63841 0 0 0 -0.565014 -0.941428 0.497165 0 0 -2.77371 15.4173 -4.60747 8.03404 0.03 300.333 
307 1 1 0.45723 0.167505 1.65518 0 0 0 0.473194 -1.04639 -0.332067 0 0 -2.77371 -47.608 -7.05438 -22.2591 0.03 300.614 
74 1 1 0.544921 0.167111 1.64121 0 0 0 1.28385 -0.534455 0.11282 0 0 -2.77371 5.09099 35.3673 -1.65262 0.03 302.628 
252 1 1 0.520388 0.223744 1.64383 0 0 0 1.24962 -0.430069 0.196479 0 0 -2.77371 -1.67116 0.0824123 -5.33039 0.03 300.152 
183 1 1 0.456913 0.253689 1.66564 0 0 0 0.886577 0.682788 -1.03124 0 0 -2.77371 -29.8941 -3.90756 19.4763 0.03 300.007 
322 1 1 0.702791 0.246505 1.64922 0 0 0 1.5662 0.0786087 -0.096258 0 0 -2.77371 -19.7033 41.4346 -15.7077 0.03 300.698 
193 1 1 0.297755 0.271719 1.66154 0 0 0 -0.0217871 -0.585433 -0.919791 0 0 -2.77371 -13.4652 -26.8128 2.30711 0.03 300.055 
197 1 1 0.178234 0.306887 1.65956 0 0 0 -0.466586 0.0519699 -1.22222 5.58855 0.842634 -9.81034 26.6927 -21.8616 10.5587 0.03 300.008 
347 1 1 0.358548 0.331343 1.64105 0 0 0 0.422415 -0.177385 -0.878312 3.69877 1.02692 -4.5566 -3.46599 -22.5432 8.84417 0.03 300.024 
216 1 1 0.449078 0.333602 1.64434 0 0 0 0.925301 -0.0224282 -0.356277 0 0 -2.77371 21.6815 -26.225 8.67295 0.03 300.013 
338 1 1 0.51006 0.307198 1.64521 0 0 0 1.10163 -0.201575 0.314349 0.108541 -5.08949 4.4718 -24.3726 -17.2489 10.2247 0.03 300.038 
316 1 1 0.11734 0.353945 1.64566 0 0 0 0 0 -2.97931 0 0 -2.77371 0 0 0 0.03 300 
346 1 1 0.362817 0.391659 1.63571 0 0 0 0.804772 0.0665342 -0.275843 0 0 -2.77371 -6.73721 -38.409 11.997 0.03 300.023 
190 1 1 0.326978 0.443479 1.64147 0 0 0 0.267247 0.0774031 0.79344 0 0 -2.77371 -11.616 35.0664 9.86674 0.03 301.153 
335 1 1 0.547696 0.438767 1.65953 0 0 0 1.40945 0.523789 0.794838 0 0 -2.77371 -2.97651 5.71483 17.1881 0.03 300.279 
268 1 1 0.638532 0.427111 1.66842 0 0 0 1.70927 0.470599 0.86054 0 0 -2.77371 -35.7909 14.651 -0.0812511 0.03 300.296 
208 1 1 0.266782 0.455362 1.65853 0 0 0 -0.506413 0.158443 -0.0672316 0 0 -2.77371 -10.2624 -68.6471 1.73368 0.03 300.016 
130 1 1 1.39619 0.453316 1.64249 0 0 0 2.55146 -0.00425569 0.617294 0 0 -2.77371 -5.78272 17.8909 -2.26063 0.03 301.155 
182 1 1 0.214236 0.488684 1.66505 0 0 0 -0.91816 0.382584 -1.01252 0 0 -2.77371 48.8597 -7.61022 -29.1048 0.03 300.001 
102 1 1 0.699558 0.485515 1.6403 0 0 0 1.51181 0.560104 0.143161 0 0 -2.77371 -23.0486 50.7706 4.54409 0.03 300.973 
296 1 1 0.820009 0.480752 1.65202 0 0 0 1.7062 0.105685 -0.144248 0 0 -2.77371 11.2556 44.8557 12.3467 0.03 300.706 
271 1 1 0.304019 0.534089 1.63612 0 0 0 -0.0285224 0.314569 -0.805611 0 0 -2.77371 -34.3766 -35.2962 -11.8587 0.03 300.008 
224 1 1 0.469217 0.544883 1.63809 0 0 0 1.42122 0.351789 0.116958 0 0 -2.77371 33.8531 11.5169 11.7519 0.03 301.452 
150 1 1 0.826296 0.555612 1.63721 0 0 0 1.44758 0.0168759 0.370994 0 0 -2.77371 -2.00459 32.3002 22.5675 0.03 301.404 
52 1 1 0.543296 0.595725 1.63916 0 0 0 1.8015 0.164803 0.161239 0 0 -2.77371 3.12774 38.7352 32.9194 0.03 301.054 
154 1 1 0.584254 0.640862 1.65003 0 0 0 1.7413 -0.087159 -0.0798149 -0.0572263 -0.941035 -1.14113 4.19556 -36.3044 -70.5387 0.03 313.74 
138 1 1 0.773821 0.647866 1.65938 0 0 0 2.3063 -0.151739 -0.0733026 0 0 -2.77371 -19.8785 17.1829 7.12221 0.03 303.418 
27 1 1 0.928202 0.654419 1.66359 0 0 0 1.94267 -0.470378 -0.470378 -1.12647e-06 -0.988773 -0.988774 22.2459 -51.253 -46.0457 0.03 325.649 
333 1 1 0.593151 0.0897618 1.67879 0 0 0 1.90466 -0.0240544 0.0536595 0 0 -2.77371 11.5932 -35.6279 41.5293 0.03 303.462 
305 1 1 0.398485 0.183503 1.67441 0 0 0 0.966565 -0.665176 0.848277 0 0 -2.77371 -14.4764 9.55725 -2.31961 0.03 300.427 
194 1 1 0.236296 0.282639 1.67603 0 0 0 0.240156 -0.0104681 -0.975164 0 0 -2.77371 34.1173 -38.3046 -5.9679 0.03 300.02 
240 1 1 0.37909 0.279856 1.67067 0 0 0 0.964938 0.474525 -0.834107 -3.55836 0.00576536 -10.9899 -19.0377 17.0498 4.61423 0.03 300.02 
250 1 1 0.309718 0.345407 1.67313 0 0 0 0.196563 0.461571 -1.21776 70.5988 -16.127 90.69 -48.6967 -6.11728 -1.56392 0.03 300.001 
285 1 1 0.198849 0.391987 1.67444 0 0 0 -0.117094 0.639864 -0.979762 -1.07291 -2.00026 -7.19865 22.2132 -24.5922 7.15072 0.03 300.005 
277 1 1 0.255485 0.407729 1.70153 0 0 0 0 0 -2.78929 0 0 -2.77371 0 0 0 0.03 300 
295 1 1 0.380616 0.404268 1.69713 0 0 0 0.423683 0.301066 -0.444483 13.2751 -58.5317 -143.385 -12.1633 -7.5704 -6.07339 0.03 300 
334 1 1 0.44624 0.402004 1.68812 0 0 0 0.862077 0.0670088 0.403377 0 0 -2.77371 9.19696 -45.8793 -1.01489 0.03 300.011 
341 1 1 0.511367 0.380307 1.68389 0 0 0 1.2667 -0.536016 0.198135 3.94314 0.189407 8.99031 14.5595 -32.3284 -13.7749 0.03 300.007 
220 1 1 0.360247 0.460094 1.69033 0 0 0 0.72023 0.479162 0.639272 -0.86893 2.46251 -4.4746 -4.2404 -17.76 -3.49978 0.03 300.02 
201 1 1 0.392465 0.510753 1.68317 0 0 0 0.929336 0.471204 0.0352957 5.6053 -0.596981 -6.63222 -2.22367 -62.4999 -8.82089 0.03 300.058 
262 1 1 0.46143 0.487203 1.68915 0 0 0 0.799922 -0.159612 0.327833 0 0 -2.77371 -21.187 -48.8469 -1.45928 0.03 300.031 
325 1 1 0.520076 0.490045 1.70336 0 0 0 0.981416 0.141736 -0.50125 0 0 -2.77371 56.8904 44.1927 -34.3738 0.03 300 
217 1 1 0.521358 0.549697 1.67339 0 0 0 1.4466 0.236229 0.336623 0 0 -2.77371 -20.6037 -23.0391 -21.7341 0.03 300.03 
129 1 1 0.50486 0.662008 1.67118 0 0 0 1.49015 -0.159744 -0.153148 -0.0316286 -0.912609 -1.11701 7.35582 -65.6111 -53.1065 0.03 311.959 
196 1 1 0.506349 0.16315 1.71171 0 0 0 0.944214 -0.298839 -0.14196 0 0 -2.77371 5.7382 -47.4845 -8.72477 0.03 300.025 
186 1 1 0.272081 0.23094 1.70554 0 0 0 0.417033 -0.85803 -1.25767 0 0 -2.77371 0.299473 29.6657 13.7342 0.03 300 