ITEM: TIMESTEP
36000
ITEM: NUMBER OF ATOMS
176
ITEM: BOX BOUNDS ff ff ff
0 3.3
-0.3 0.8
-0.5 3
ITEM: ATOMS id type type x y z ix iy iz vx vy vz fx fy fz omegax omegay omegaz radius f_Temp[0] 
120 1 1 0.139273 0.223022 1.5824 0 0 0 0.767166 -0.46634 -0.268527 0 0 -2.77371 -40.3102 -66.6322 0.0106406 0.03 303.932 
108 1 1 0.238168 0.217199 1.57708 0 0 0 0.932039 -0.419618 -0.301944 6.08852 2.80262 -1.82813 -25.7807 -81.9451 1.43499 0.03 307.036 
67 1 1 0.437508 0.225662 1.57716 0 0 0 0.981561 -0.128084 0.0182399 0 0 -2.77371 4.26755 -100.722 0.626175 0.03 310.024 
41 1 1 0.192344 0.262363 1.58066 0 0 0 1.0733 0.481626 -1.60521 0 0 -2.77371 -4.64249 -26.6813 -11.3877 0.03 303.893 
47 1 1 0.342117 0.238459 1.58238 0 0 0 2.16704 -0.448881 0.168546 0 0 -2.77371 15.2254 -47.9164 -0.595205 0.03 303.508 
85 1 1 0.508337 0.240692 1.58717 0 0 0 1.6051 -0.297735 0.692522 0 0 -2.77371 10.1198 -80.9356 -6.86985 0.03 303.852 
142 1 1 0.408868 0.297844 1.58425 0 0 0 1.61321 0.231913 0.484065 0 0 -2.77371 -9.15952 -80.3502 2.53543 0.03 312.052 
8 1 1 0.476765 0.296633 1.57882 0 0 0 1.63988 0.0356126 -0.310575 0 0 -2.77371 30.1322 -54.5017 -12.4926 0.03 306.887 
14 1 1 0.578272 0.306124 1.57766 0 0 0 2.56404 0.44342 0.00888503 0 0 -2.77371 -14.6931 -48.6225 -15.3041 0.03 306.603 
124 1 1 0.214807 0.322458 1.58114 0 0 0 0.842612 -0.531307 0.122381 0 0 -2.77371 10.8477 -101.418 -7.18615 0.03 309.782 
86 1 1 0.335135 0.313123 1.57947 0 0 0 1.4025 -0.0254892 0.163892 0 0 -2.77371 0.648079 -87.1315 -8.13669 0.03 314.036 
64 1 1 0.140744 0.350514 1.58263 0 0 0 0.864819 0.143853 0.653872 0 0 -2.77371 -4.86251 -105.863 -2.06903 0.03 303.825 
23 1 1 0.396395 0.371148 1.57623 0 0 0 1.04729 0.168894 -0.0550679 -6.44137 -2.24588 1.67153 -1.1852 -88.8766 4.12025 0.03 308.471 
96 1 1 0.5025 0.380422 1.59171 0 0 0 1.59828 -0.245794 0.297498 0 0 -2.77371 18.6485 -79.5754 -6.81822 0.03 307.134 
82 1 1 0.600737 0.374908 1.59553 0 0 0 1.38807 -0.167347 -0.399586 0 0 -2.77371 -12.333 -109.727 1.00623 0.03 303.93 
10 1 1 0.327247 0.413401 1.57991 0 0 0 0.945258 -0.454424 -0.0536183 0 0 -2.77371 2.01821 -100.179 0.617042 0.03 307.391 
32 1 1 0.474153 0.433245 1.58012 0 0 0 1.67622 -0.153737 0.113793 0 0 -2.77371 0.308745 -71.97 -8.59279 0.03 307.434 
174 1 1 0.547175 0.422066 1.58068 0 0 0 1.45622 -0.0757449 -0.630233 0 0 -2.77371 13.087 61.1362 13.7213 0.03 300.092 
30 1 1 0.276037 0.447228 1.58009 0 0 0 1.13211 -0.294072 -0.221587 -45.8845 -25.5279 -38.069 -37.378 -79.8422 5.05474 0.03 311.661 
54 1 1 0.366417 0.46988 1.58053 0 0 0 1.04568 -0.184629 0.225119 0 0 -2.77371 6.04797 -99.5131 -4.78626 0.03 311.841 
100 1 1 0.514757 0.478539 1.57865 0 0 0 1.4329 0.221419 -0.0313668 0 0 -2.77371 -11.0387 -83.0856 1.95011 0.03 307.543 
103 1 1 0.285751 0.510983 1.58045 0 0 0 1.19558 0.775335 -1.34716 0 0 -2.77371 -32.9201 -62.63 -19.4673 0.03 303.966 
113 1 1 0.509947 0.552583 1.58388 0 0 0 1.43808 0.612714 0.14088 0 0 -2.77371 -20.6135 -86.1739 -7.67728 0.03 307.35 
172 1 1 0.386593 0.572738 1.58114 0 0 0 1.95644 0.811821 0.549225 12.8002 -18.4619 14.9954 -32.6001 -84.666 -11.4485 0.03 304.076 
87 1 1 0.381312 0.254339 1.63517 0 0 0 0.162342 -0.856069 0.412227 0 0 -2.77371 42.2065 24.2833 2.59419 0.03 300.126 
13 1 1 0.120969 0.281003 1.5858 0 0 0 0.0115152 0.158224 -2.84034 0 0 -2.77371 -20.5787 -6.11805 3.8047 0.03 300.014 
112 1 1 0.252745 0.270838 1.59518 0 0 0 0.402582 -0.0720192 -0.413488 6.93901 22.6447 3.89109 -4.84214 32.9302 0.424748 0.03 300.076 
60 1 1 0.306376 0.277267 1.62232 0 0 0 0.5609 -0.46537 -0.43113 0 0 -2.77371 19.0457 -29.5904 10.3151 0.03 300.146 
59 1 1 0.269348 0.329519 1.61914 0 0 0 0.876779 -0.806665 -1.5868 0 0 -2.77371 27.5914 1.99701 -12.5923 0.03 300.001 
45 1 1 0.445333 0.348619 1.60065 0 0 0 0.749398 -0.357741 -0.558158 -24.3569 -55.6585 -61.6063 -21.0069 56.548 6.56524 0.03 300.155 
122 1 1 0.225215 0.38965 1.59749 0 0 0 -0.309746 0.825101 -0.601814 0 0 -2.77371 12.242 57.8884 -5.94153 0.03 300.156 
163 1 1 0.192251 0.438662 1.61656 0 0 0 1.19594 0 0.306133 0 0 -2.77371 0 -95.0146 0 0.03 303.946 
79 1 1 0.315722 0.464953 1.61863 0 0 0 0.0717447 0.829211 -0.303397 45.8845 25.5279 32.5215 -29.693 38.3687 -11.0201 0.03 300.136 
39 1 1 0.397065 0.477299 1.64248 0 0 0 0.344464 0.336983 0.196748 -51.7549 79.6556 -136.324 35.6908 68.4583 -19.7222 0.03 300.152 
63 1 1 0.215691 0.500621 1.6003 0 0 0 1.76178 -0.257616 -0.303137 0 0 -2.77371 -5.74405 -100.081 -1.36928 0.03 303.924 
140 1 1 0.595877 0.484878 1.62135 0 0 0 1.19616 0 -0.0185991 0 0 -2.77371 0 -94.9995 0 0.03 303.947 
162 1 1 0.429884 0.533645 1.6035 0 0 0 -0.055742 0.695982 -1.72803 0 0 -2.77371 11.5266 22.1678 2.45623 0.03 300.029 
78 1 1 0.178087 0.22378 1.62816 0 0 0 -0.0466343 -0.519743 -1.57205 0 0 -2.77371 30.4102 -5.78328 -1.95682 0.03 300.028 
133 1 1 0.591462 0.323116 1.64676 0 0 0 1.45209 0.340449 0.836567 0 0 -2.77371 -5.42725 -57.2091 -15.3957 0.03 303.944 
29 1 1 0.368876 0.379155 1.63882 0 0 0 0 0 -3.00178 0 0 -2.77371 0 0 0 0.03 300 
36 1 1 0.451072 0.39581 1.63325 0 0 0 0.343374 0.207669 -2.51946 41.1308 53.7849 73.8605 -22.9079 -12.2833 20.5986 0.03 300 
131 1 1 0.281915 0.426747 1.65205 0 0 0 1.10016 -0.0303007 1.10416 -32.0865 9.79973 -40.6298 46.6056 45.4274 20.5802 0.03 300.127 
152 1 1 0.157281 0.523768 1.62203 0 0 0 -0.565806 0.257616 -2.28276 0 0 -2.77371 -5.74405 -5.06631 -1.36928 0.03 300.023 
109 1 1 0.27986 0.537066 1.64498 0 0 0 0.237066 0.785206 -0.785315 0 0 -2.77371 -3.72126 23.4809 -6.7871 0.03 300.031 
168 1 1 0.482985 0.523035 1.6321 0 0 0 0.852634 0.0679298 -2.29934 0 0 -2.77371 9.62344 8.51476 -11.3633 0.03 300 
46 1 1 0.47999 0.300848 1.64956 0 0 0 0 0 -2.96646 0 0 -2.77371 0 0 0 0.03 300 
167 1 1 0.401295 0.431942 1.67561 0 0 0 0.493365 -0.38239 -1.85141 51.7549 -79.6556 130.776 45.8797 -18.5538 -28.5523 0.03 300 
66 1 1 0.47867 0.463 1.65874 0 0 0 0 0 -2.93595 0 0 -2.77371 0 0 0 0.03 300 
173 1 1 0.336956 0.309745 1.69467 0 0 0 0 0 -2.81333 0 0 -2.77371 0 0 0 0.03 300 
69 1 1 0.10427 0.421706 1.70362 0 0 0 0 0 -2.78194 0 0 -2.77371 0 0 0 0.03 300 
145 1 1 0.320399 0.410893 1.69524 0 0 0 0.000567414 -0.000173297 -2.8107 32.0865 -9.79973 35.0824 0.00434488 0.00174531 -0.00323087 0.03 300 
121 1 1 0.170319 0.453329 1.70206 0 0 0 0 0 -2.78743 0 0 -2.77371 0 0 0 0.03 300 
49 1 1 0.281286 0.254094 1.73205 0 0 0 0 0 -2.67982 0 0 -2.77371 0 0 0 0.03 300 
155 1 1 0.415544 0.252674 1.73406 0 0 0 0 0 -2.67246 0 0 -2.77371 0 0 0 0.03 300 
101 1 1 0.162335 0.320161 1.7488 0 0 0 0 0 -2.61782 0 0 -2.77371 0 0 0 0.03 300 
42 1 1 0.226232 0.388276 1.73486 0 0 0 0 0 -2.66951 0 0 -2.77371 0 0 0 0.03 300 
99 1 1 0.274564 0.455213 1.72843 0 0 0 0 0 -2.69306 0 0 -2.77371 0 0 0 0.03 300 
18 1 1 0.427577 0.512648 1.73675 0 0 0 0 0 -2.66255 0 0 -2.77371 0 0 0 0.03 300 
156 1 1 0.35506 0.52072 1.72232 0 0 0 0 0 -2.71523 0 0 -2.77371 0 0 0 0.03 300 
58 1 1 0.112056 0.26459 1.7818 0 0 0 0 0 -2.49107 0 0 -2.77371 0 0 0 0.03 300 
91 1 1 0.235855 0.316318 1.76212 0 0 0 0 0 -2.56739 0 0 -2.77371 0 0 0 0.03 300 
81 1 1 0.388958 0.319017 1.77987 0 0 0 0 0 -2.49862 0 0 -2.77371 0 0 0 0.03 300 
118 1 1 0.120657 0.516447 1.76836 0 0 0 0 0 -2.54346 0 0 -2.77371 0 0 0 0.03 300 
130 1 1 0.385847 0.398302 1.80679 0 0 0 0 0 -2.39062 0 0 -2.77371 0 0 0 0.03 300 
92 1 1 0.481853 0.374694 1.79235 0 0 0 0 0 -2.44918 0 0 -2.77371 0 0 0 0.03 300 
105 1 1 0.377689 0.467755 1.78885 0 0 0 0 0 -2.46311 0 0 -2.77371 0 0 0 0.03 300 
158 1 1 0.2596 0.52473 1.80211 0 0 0 0 0 -2.40975 0 0 -2.77371 0 0 0 0.03 300 
157 1 1 0.485815 0.521722 1.79712 0 0 0 0 0 -2.42995 0 0 -2.77371 0 0 0 0.03 300 
15 1 1 0.188775 0.261917 1.84201 0 0 0 0 0 -2.24141 0 0 -2.77371 0 0 0 0.03 300 
80 1 1 0.478513 0.241448 1.8274 0 0 0 0 0 -2.30448 0 0 -2.77371 0 0 0 0.03 300 
143 1 1 0.326798 0.368865 1.83731 0 0 0 0 0 -2.26191 0 0 -2.77371 0 0 0 0.03 300 
135 1 1 0.110104 0.424702 1.85356 0 0 0 0 0 -2.1903 0 0 -2.77371 0 0 0 0.03 300 
61 1 1 0.174746 0.456274 1.85327 0 0 0 0 0 -2.19157 0 0 -2.77371 0 0 0 0.03 300 
9 1 1 0.441781 0.458388 1.85598 0 0 0 0 0 -2.17941 0 0 -2.77371 0 0 0 0.03 300 
117 1 1 0.191604 0.522741 1.83368 0 0 0 0 0 -2.27761 0 0 -2.77371 0 0 0 0.03 300 
76 1 1 0.262374 0.280345 1.86244 0 0 0 0 0 -2.15017 0 0 -2.77371 0 0 0 0.03 300 
159 1 1 0.463712 0.3119 1.88339 0 0 0 0 0 -2.05237 0 0 -2.77371 0 0 0 0.03 300 
3 1 1 0.103577 0.34242 1.89097 0 0 0 0 0 -2.01578 0 0 -2.77371 0 0 0 0.03 300 
132 1 1 0.181507 0.370772 1.89463 0 0 0 0 0 -1.99792 0 0 -2.77371 0 0 0 0.03 300 
50 1 1 0.301622 0.417346 1.89484 0 0 0 0 0 -1.99684 0 0 -2.77371 0 0 0 0.03 300 
169 1 1 0.252456 0.475054 1.88545 0 0 0 0 0 -2.04246 0 0 -2.77371 0 0 0 0.03 300 
2 1 1 0.337972 0.524085 1.87451 0 0 0 0 0 -2.09435 0 0 -2.77371 0 0 0 0.03 300 
125 1 1 0.33817 0.237417 1.91261 0 0 0 0 0 -1.90757 0 0 -2.77371 0 0 0 0.03 300 
19 1 1 0.315839 0.298576 1.91718 0 0 0 0 0 -1.88393 0 0 -2.77371 0 0 0 0.03 300 
94 1 1 0.273851 0.347383 1.93204 0 0 0 0 0 -1.80486 0 0 -2.77371 0 0 0 0.03 300 
20 1 1 0.379347 0.368828 1.92087 0 0 0 0 0 -1.8646 0 0 -2.77371 0 0 0 0.03 300 
151 1 1 0.494801 0.397371 1.92003 0 0 0 0 0 -1.86902 0 0 -2.77371 0 0 0 0.03 300 
27 1 1 0.362553 0.476213 1.92752 0 0 0 0 0 -1.82929 0 0 -2.77371 0 0 0 0.03 300 
16 1 1 0.119943 0.514428 1.91011 0 0 0 0 0 -1.92042 0 0 -2.77371 0 0 0 0.03 300 
83 1 1 0.499782 0.483801 1.90373 0 0 0 0 0 -1.9527 0 0 -2.77371 0 0 0 0.03 300 
139 1 1 0.137853 0.229319 1.95347 0 0 0 0 0 -1.68439 0 0 -2.77371 0 0 0 0.03 300 
88 1 1 0.486268 0.228152 1.95041 0 0 0 0 0 -1.70215 0 0 -2.77371 0 0 0 0.03 300 
7 1 1 0.417913 0.266516 1.95466 0 0 0 0 0 -1.67743 0 0 -2.77371 0 0 0 0.03 300 
51 1 1 0.201805 0.313726 1.95667 0 0 0 0 0 -1.66566 0 0 -2.77371 0 0 0 0.03 300 
137 1 1 0.250314 0.231914 1.99698 0 0 0 0 0 -1.40834 0 0 -2.77371 0 0 0 0.03 300 
165 1 1 0.36833 0.235983 1.9985 0 0 0 0 0 -1.39775 0 0 -2.77371 0 0 0 0.03 300 
144 1 1 0.368613 0.311971 1.97569 0 0 0 0 0 -1.54961 0 0 -2.77371 0 0 0 0.03 300 
56 1 1 0.445152 0.350079 1.97336 0 0 0 0 0 -1.56422 0 0 -2.77371 0 0 0 0.03 300 
104 1 1 0.324371 0.382136 1.98706 0 0 0 0 0 -1.47583 0 0 -2.77371 0 0 0 0.03 300 
77 1 1 0.218563 0.442358 1.97765 0 0 0 0 0 -1.53715 0 0 -2.77371 0 0 0 0.03 300 
24 1 1 0.44361 0.420007 1.98024 0 0 0 0 0 -1.52047 0 0 -2.77371 0 0 0 0.03 300 
34 1 1 0.161462 0.479607 2.00017 0 0 0 0 0 -1.38597 0 0 -2.77371 0 0 0 0.03 300 
4 1 1 0.283869 0.446206 1.99996 0 0 0 0 0 -1.38745 0 0 -2.77371 0 0 0 0.03 300 
57 1 1 0.255601 0.512634 1.97376 0 0 0 0 0 -1.56177 0 0 -2.77371 0 0 0 0.03 300 
149 1 1 0.457968 0.50649 1.97793 0 0 0 0 0 -1.53528 0 0 -2.77371 0 0 0 0.03 300 
75 1 1 0.387927 0.516304 1.99046 0 0 0 0 0 -1.45307 0 0 -2.77371 0 0 0 0.03 300 
115 1 1 0.29951 0.265646 2.03106 0 0 0 0 0 -1.14661 0 0 -2.77371 0 0 0 0.03 300 
12 1 1 0.150682 0.290471 2.00968 0 0 0 0 0 -1.31691 0 0 -2.77371 0 0 0 0.03 300 
170 1 1 0.448147 0.302404 2.03834 0 0 0 0 0 -1.08255 0 0 -2.77371 0 0 0 0.03 300 
21 1 1 0.18594 0.400862 2.02599 0 0 0 0 0 -1.18919 0 0 -2.77371 0 0 0 0.03 300 
126 1 1 0.387846 0.395075 2.02951 0 0 0 0 0 -1.15985 0 0 -2.77371 0 0 0 0.03 300 
160 1 1 0.115232 0.435564 2.03998 0 0 0 0 0 -1.06754 0 0 -2.77371 0 0 0 0.03 300 
114 1 1 0.101873 0.240116 2.05116 0 0 0 -0 -0 -1 0 0 0 0 0 0 0.03 300 
161 1 1 0.383875 0.233035 2.0762 0 0 0 -0 -0 -1 0 0 0 0 0 0 0.03 300 
1 1 1 0.44893 0.24186 2.05297 0 0 0 -0 -0 -1 0 0 0 0 0 0 0.03 300 
127 1 1 0.381994 0.300043 2.0808 0 0 0 -0 -0 -1 0 0 0 0 0 0 0.03 300 
11 1 1 0.20764 0.30353 2.04911 0 0 0 -0 -0 -1 0 0 0 0 0 0 0.03 300 
33 1 1 0.10471 0.363257 2.06227 0 0 0 -0 -0 -1 0 0 0 0 0 0 0.03 300 
71 1 1 0.27192 0.349064 2.0539 0 0 0 -0 -0 -1 0 0 0 0 0 0 0.03 300 
35 1 1 0.342434 0.364463 2.06618 0 0 0 -0 -0 -1 0 0 0 0 0 0 0.03 300 
38 1 1 0.303454 0.414467 2.07292 0 0 0 -0 -0 -1 0 0 0 0 0 0 0.03 300 
154 1 1 0.211019 0.445658 2.06167 0 0 0 -0 -0 -1 0 0 0 0 0 0 0.03 300 
106 1 1 0.375691 0.47682 2.04766 0 0 0 -0 -0 -1 0 0 0 0 0 0 0.03 300 
129 1 1 0.201147 0.51232 2.04784 0 0 0 -0 -0 -1 0 0 0 0 0 0 0.03 300 
89 1 1 0.26845 0.48437 2.05991 0 0 0 -0 -0 -1 0 0 0 0 0 0 0.03 300 
26 1 1 0.474436 0.482152 2.04708 0 0 0 0 0 -1.00025 0 0 -2.77371 0 0 0 0.03 300 
97 1 1 0.184928 0.234672 2.11277 0 0 0 -0 -0 -1 0 0 0 0 0 0 0.03 300 
146 1 1 0.495146 0.246598 2.09254 0 0 0 -0 -0 -1 0 0 0 0 0 0 0.03 300 
44 1 1 0.485944 0.343638 2.09039 0 0 0 -0 -0 -1 0 0 0 0 0 0 0.03 300 
166 1 1 0.165431 0.374869 2.09499 0 0 0 -0 -0 -1 0 0 0 0 0 0 0.03 300 
28 1 1 0.222318 0.404493 2.10476 0 0 0 -0 -0 -1 0 0 0 0 0 0 0.03 300 
141 1 1 0.429803 0.380165 2.08189 0 0 0 -0 -0 -1 0 0 0 0 0 0 0.03 300 
111 1 1 0.473074 0.424163 2.08635 0 0 0 -0 -0 -1 0 0 0 0 0 0 0.03 300 
119 1 1 0.126835 0.482642 2.09437 0 0 0 -0 -0 -1 0 0 0 0 0 0 0.03 300 
93 1 1 0.225968 0.488444 2.11161 0 0 0 -0 -0 -1 0 0 0 0 0 0 0.03 300 
90 1 1 0.102204 0.238351 2.12553 0 0 0 -0 -0 -1 0 0 0 0 0 0 0.03 300 
74 1 1 0.248328 0.247523 2.11851 0 0 0 -0 -0 -1 0 0 0 0 0 0 0.03 300 
62 1 1 0.329189 0.252757 2.1282 0 0 0 -0 -0 -1 0 0 0 0 0 0 0.03 300 
43 1 1 0.460616 0.284913 2.13675 0 0 0 -0 -0 -1 0 0 0 0 0 0 0.03 300 
5 1 1 0.160428 0.3182 2.11871 0 0 0 -0 -0 -1 0 0 0 0 0 0 0.03 300 
95 1 1 0.346797 0.327727 2.13259 0 0 0 -0 -0 -1 0 0 0 0 0 0 0.03 300 
175 1 1 0.230789 0.339127 2.12237 0 0 0 -0 -0 -1 0 0 0 0 0 0 0.03 300 
116 1 1 0.152794 0.405213 2.14527 0 0 0 -0 -0 -1 0 0 0 0 0 0 0.03 300 
128 1 1 0.355123 0.421294 2.13732 0 0 0 -0 -0 -1 0 0 0 0 0 0 0.03 300 
37 1 1 0.41824 0.41741 2.13001 0 0 0 -0 -0 -1 0 0 0 0 0 0 0.03 300 
138 1 1 0.301221 0.470777 2.14913 0 0 0 -0 -0 -1 0 0 0 0 0 0 0.03 300 
17 1 1 0.345254 0.512161 2.13021 0 0 0 -0 -0 -1 0 0 0 0 0 0 0.03 300 
134 1 1 0.443832 0.509496 2.11848 0 0 0 -0 -0 -1 0 0 0 0 0 0 0.03 300 
40 1 1 0.408343 0.240904 2.1608 0 0 0 -0 -0 -1 0 0 0 0 0 0 0.03 300 
31 1 1 0.221691 0.336081 2.18246 0 0 0 -0 -0 -1 0 0 0 0 0 0 0.03 300 
68 1 1 0.400811 0.324654 2.16473 0 0 0 -0 -0 -1 0 0 0 0 0 0 0.03 300 
25 1 1 0.278223 0.363632 2.15196 0 0 0 -0 -0 -1 0 0 0 0 0 0 0.03 300 
123 1 1 0.48159 0.360101 2.15449 0 0 0 -0 -0 -1 0 0 0 0 0 0 0.03 300 
84 1 1 0.227036 0.399722 2.17273 0 0 0 -0 -0 -1 0 0 0 0 0 0 0.03 300 
98 1 1 0.491139 0.43458 2.15869 0 0 0 -0 -0 -1 0 0 0 0 0 0 0.03 300 
55 1 1 0.200976 0.455034 2.16831 0 0 0 -0 -0 -1 0 0 0 0 0 0 0.03 300 
136 1 1 0.374023 0.456818 2.18267 0 0 0 -0 -0 -1 0 0 0 0 0 0 0.03 300 
72 1 1 0.10161 0.511094 2.16218 0 0 0 -0 -0 -1 0 0 0 0 0 0 0.03 300 
48 1 1 0.17066 0.517967 2.17622 0 0 0 -0 -0 -1 0 0 0 0 0 0 0.03 300 
22 1 1 0.254767 0.230824 2.19097 0 0 0 -0 -0 -1 0 0 0 0 0 0 0.03 300 
73 1 1 0.170916 0.265084 2.19451 0 0 0 -0 -0 -1 0 0 0 0 0 0 0.03 300 
171 1 1 0.477654 0.251099 2.19033 0 0 0 -0 -0 -1 0 0 0 0 0 0 0.03 300 
110 1 1 0.10205 0.273683 2.19359 0 0 0 -0 -0 -1 0 0 0 0 0 0 0.03 300 
164 1 1 0.244978 0.28843 2.21115 0 0 0 -0 -0 -1 0 0 0 0 0 0 0.03 300 
107 1 1 0.303471 0.271065 2.1997 0 0 0 -0 -0 -1 0 0 0 0 0 0 0.03 300 
70 1 1 0.142707 0.355749 2.20494 0 0 0 -0 -0 -1 0 0 0 0 0 0 0.03 300 
53 1 1 0.294932 0.364362 2.21 0 0 0 -0 -0 -1 0 0 0 0 0 0 0.03 300 
102 1 1 0.419044 0.351535 2.21593 0 0 0 -0 -0 -1 0 0 0 0 0 0 0.03 300 
176 1 1 0.349719 0.399621 2.21537 0 0 0 -0 -0 -1 0 0 0 0 0 0 0.03 300 
153 1 1 0.496538 0.392613 2.20762 0 0 0 -0 -0 -1 0 0 0 0 0 0 0.03 300 
148 1 1 0.12082 0.460146 2.19005 0 0 0 -0 -0 -1 0 0 0 0 0 0 0.03 300 
6 1 1 0.317689 0.454971 2.2124 0 0 0 -0 -0 -1 0 0 0 0 0 0 0.03 300 
147 1 1 0.248507 0.49546 2.21684 0 0 0 -0 -0 -1 0 0 0 0 0 0 0.03 300 
65 1 1 0.421483 0.499457 2.19254 0 0 0 -0 -0 -1 0 0 0 0 0 0 0.03 300 
150 1 1 0.481625 0.503918 2.1972 0 0 0 -0 -0 -1 0 0 0 0 0 0 0.03 300 
52 1 1 0.358392 0.516981 2.21661 0 0 0 -0 -0 -1 0 0 0 0 0 0 0.03 300 
