ITEM: TIMESTEP
46000
ITEM: NUMBER OF ATOMS
176
ITEM: BOX BOUNDS ff ff ff
0 3.3
-0.3 0.8
-0.5 3
ITEM: ATOMS id type type x y z ix iy iz vx vy vz fx fy fz omegax omegay omegaz radius f_Temp[0] 
108 1 1 0.329953 0.182948 1.57747 0 0 0 1.80913 -0.0155617 -0.346857 58.9819 -36.1746 -15.9954 1.70033 -72.562 23.958 0.03 322.213 
87 1 1 0.385727 0.163622 1.59926 0 0 0 1.26257 -0.190095 0.46282 3.02013 -4.38668 -6.94057 20.2641 25.2017 23.2068 0.03 303.212 
120 1 1 0.239352 0.218105 1.57681 0 0 0 1.0852 0.0690114 0.0275875 -0.443908 -0.358102 -0.326479 -2.13449 -97.8429 10.6533 0.03 314.73 
47 1 1 0.511961 0.194637 1.57529 0 0 0 1.91079 -0.35124 -0.398449 23.0822 23.4968 20.879 -6.62188 -62.7798 4.46055 0.03 314.725 
67 1 1 0.569824 0.205779 1.58429 0 0 0 1.69711 -0.277448 -0.0324025 7.27422 1.61689 2.48325 14.1039 -64.0107 2.93013 0.03 314.98 
58 1 1 0.136525 0.265521 1.58069 0 0 0 0.108643 0.123994 -0.559263 0 0 -2.77371 7.85376 -49.1526 -3.48054 0.03 303.919 
41 1 1 0.289572 0.259152 1.57536 0 0 0 1.94454 -0.060574 0.59721 -13.9149 -3.60921 8.40839 4.4187 -69.1811 8.06898 0.03 316.277 
112 1 1 0.37313 0.240153 1.57694 0 0 0 1.63843 -0.81465 -0.0241857 1.08377 0.62385 -0.272721 -18.7552 0.951885 2.2607 0.03 310.117 
60 1 1 0.444071 0.233883 1.58069 0 0 0 1.10156 -0.310206 0.177129 0 0 -2.77371 11.5339 -97.6878 17.724 0.03 309.755 
142 1 1 0.553987 0.263827 1.57798 0 0 0 2.12081 -0.0659032 0.00427898 0 0 -2.77371 2.93819 -62.5742 -5.08449 0.03 318.91 
13 1 1 0.231589 0.287253 1.57914 0 0 0 1.40112 0.102202 0.101087 -7.90298 5.52131 -47.2835 -1.0113 -74.2311 -0.337955 0.03 314.966 
59 1 1 0.405151 0.290209 1.59088 0 0 0 1.31131 -0.4736 0.230841 0 0 -2.77371 -19.3725 -70.1091 -2.26734 0.03 309.969 
86 1 1 0.500665 0.293187 1.57707 0 0 0 2.0772 -0.324211 0.251554 0.314042 -1.27405 -9.53504 11.459 -64.235 -6.17576 0.03 325.469 
45 1 1 0.609824 0.288161 1.57846 0 0 0 2.14332 -1.05964 -0.447941 0 0 -2.77371 -12.8177 82.9353 -5.28579 0.03 300.817 
8 1 1 0.71297 0.268986 1.5955 0 0 0 2.45713 -0.251596 -0.192608 0 0 -2.77371 15.1058 -50.2364 3.30632 0.03 311.702 
101 1 1 0.133971 0.340897 1.57951 0 0 0 -0.446641 0.334938 -1.33843 0 0 -2.77371 2.57348 20.1771 3.24541 0.03 300.048 
124 1 1 0.357072 0.324512 1.57741 0 0 0 1.75295 -0.25685 0.359377 0 0 -2.77371 9.36556 -75.2256 4.15053 0.03 317.553 
14 1 1 0.82285 0.319634 1.57686 0 0 0 2.42076 0.0677051 -6.22229e-05 0.000245631 -1.05229e-05 0.00955501 -2.26611 -52.8576 -2.54476 0.03 318.954 
64 1 1 0.22444 0.365287 1.57653 0 0 0 0.878276 0.399955 0.0144786 0.0672986 -0.172142 6.42744 -13.3014 -105.517 -0.569979 0.03 313.112 
29 1 1 0.422 0.351626 1.59373 0 0 0 0.56924 0.316511 -0.463147 0 0 -2.77371 -21.278 39.5952 17.6497 0.03 300.703 
23 1 1 0.576908 0.35137 1.5858 0 0 0 2.36701 -0.338154 0.16812 0 0 -2.77371 15.3498 -51.6845 -19.7042 0.03 325.929 
96 1 1 0.662452 0.355196 1.57605 0 0 0 1.62016 -0.343498 0.223997 -1.02225 1.94694 7.43802 10.5963 -81.3683 -6.81822 0.03 309.214 
82 1 1 0.771137 0.367437 1.57686 0 0 0 1.80497 -0.147886 -0.00320116 0.146739 -0.179251 0.249659 4.93575 -73.4621 3.00294 0.03 311.456 
69 1 1 0.161201 0.402477 1.57479 0 0 0 1.44865 -0.169443 -0.203888 -3.79418 -17.6557 4.69448 -0.40084 -85.6057 9.21662 0.03 307.474 
122 1 1 0.350897 0.390294 1.57486 0 0 0 1.54783 -0.157425 0.0873424 -12.4211 -9.63438 8.38363 4.51729 -89.4334 -17.7587 0.03 313.842 
10 1 1 0.455133 0.420339 1.57532 0 0 0 1.83011 0.0846701 0.171786 2.58647 -7.26048 28.0389 5.2789 -76.7184 7.61025 0.03 321.092 
36 1 1 0.559403 0.435055 1.57754 0 0 0 1.88233 0.0368029 0.136426 1.13882 -0.492355 -2.19185 -23.5221 2.39748 3.44309 0.03 303.314 
32 1 1 0.655812 0.434835 1.58338 0 0 0 1.81297 0.024 -0.291839 0 0 -2.77371 -0.656718 -73.5242 -5.21338 0.03 311.321 
174 1 1 0.750266 0.423597 1.57685 0 0 0 2.22698 0.0169656 0.00190581 1.192 -0.352613 0.126738 14.4468 -22.2599 2.95871 0.03 312.595 
163 1 1 0.265928 0.471753 1.5853 0 0 0 1.20471 0.0922958 0.418328 30.0363 -12.8057 20.6677 1.9737 -82.7502 -25.8426 0.03 307.256 
30 1 1 0.390886 0.450747 1.57757 0 0 0 1.4343 0.193779 -0.102528 0 0 -2.77371 13.4649 -84.1713 9.9509 0.03 327.401 
54 1 1 0.505322 0.459999 1.579 0 0 0 1.7908 0.134898 -0.620332 -1.13882 0.492355 -3.35557 -7.47996 -80.3681 -2.41242 0.03 316.226 
121 1 1 0.213205 0.494841 1.57606 0 0 0 1.41464 0.467638 0.127214 -21.308 9.52189 -17.418 -10.0235 -72.5073 22.1548 0.03 307.011 
63 1 1 0.340256 0.490519 1.57865 0 0 0 1.2535 -0.239827 0.361023 0 0 -2.77371 9.08773 -93.2203 -9.89999 0.03 319.491 
39 1 1 0.432877 0.500565 1.57682 0 0 0 1.17494 0.557786 -0.689873 32.2403 -44.6453 36.2359 8.67093 -72.4431 -10.9726 0.03 303.897 
66 1 1 0.571078 0.494734 1.5761 0 0 0 1.55907 0.252283 -0.471777 2.71867 -4.25461 50.76 -7.69518 -81.8422 -8.61444 0.03 304.025 
168 1 1 0.634801 0.515103 1.58695 0 0 0 1.74602 -0.0714041 -0.130086 0 0 -2.77371 2.42933 -75.7376 10.3515 0.03 303.639 
100 1 1 0.694131 0.484547 1.57825 0 0 0 1.86948 0.0289217 -0.105943 0 0 -2.77371 -0.98121 -70.9157 -5.29887 0.03 315.952 
118 1 1 0.14255 0.550776 1.59121 0 0 0 0.864184 0.693234 0.538716 0 0 -2.77371 -23.4299 -105.954 6.60166 0.03 303.822 
162 1 1 0.518484 0.530092 1.5757 0 0 0 1.57221 0.171401 0.102611 -6.15999 -0.00566515 9.16045 -5.62964 -84.7395 15.3083 0.03 310.837 
152 1 1 0.209738 0.557215 1.58217 0 0 0 0.840711 0.470336 0.539174 0 0 -2.77371 -16.1363 -105.272 11.7114 0.03 308.026 
158 1 1 0.284359 0.573623 1.58522 0 0 0 2.681 -0.10091 0.63923 0 0 -2.77371 -13.4938 5.08848 -72.1728 0.03 303.633 
109 1 1 0.361743 0.565597 1.58137 0 0 0 1.70205 0.0295182 -0.46915 0 0 -2.77371 -2.07084 -36.1335 -61.3685 0.03 303.479 
103 1 1 0.460486 0.572267 1.58161 0 0 0 1.80026 0.198581 0.0644689 -27.5724 -3.16622 -23.4086 -13.5585 -61.8535 -23.9224 0.03 319.84 
113 1 1 0.703201 0.577903 1.58708 0 0 0 2.00677 0.0219322 0.0220419 -0.000793307 -0.953229 -1.00752 -1.05632 -83.4285 -10.8345 0.03 319.322 
49 1 1 0.334973 0.211922 1.62647 0 0 0 -0.165779 -0.256533 -0.802427 -41.1048 11.5352 -56.286 -8.52938 -4.93886 -41.2461 0.03 300.186 
80 1 1 0.520109 0.224366 1.62423 0 0 0 1.33833 -0.475934 -0.217442 -1.26653 6.30913 53.9581 5.28118 23.6171 -22.4065 0.03 300.059 
85 1 1 0.662492 0.19612 1.61072 0 0 0 1.50927 -0.522515 -0.240197 0 0 -2.77371 8.12198 -77.5089 4.18826 0.03 303.886 
15 1 1 0.187628 0.250569 1.61385 0 0 0 0.513798 -0.724994 -0.0462422 0 0 -2.77371 31.7253 35.3502 -0.377258 0.03 300.147 
155 1 1 0.456084 0.26681 1.63942 0 0 0 0.485726 0.303852 0.706292 0 0 -2.77371 -37.658 70.7573 -3.08792 0.03 300.115 
76 1 1 0.266545 0.278954 1.6258 0 0 0 0.0861181 0.131693 0.39993 17.6245 -2.57314 39.0442 -6.57486 11.3306 -12.2082 0.03 300.172 
46 1 1 0.536104 0.290974 1.63582 0 0 0 0.890399 0.196476 0.183658 0 0 -2.77371 -10.7004 5.91265 -22.9385 0.03 300.349 
91 1 1 0.232477 0.330834 1.62519 0 0 0 0.0954731 0.286763 0.13031 0 0 -2.77371 16.244 67.7849 5.89969 0.03 300.352 
81 1 1 0.47754 0.330241 1.61887 0 0 0 1.35892 0.72139 -0.402977 0 0 -2.77371 -34.3361 6.17842 -30.6039 0.03 300.348 
143 1 1 0.343787 0.350757 1.63048 0 0 0 0.456064 -0.118535 0.58746 0 0 -2.77371 -5.84858 22.4818 -16.5183 0.03 300.246 
42 1 1 0.240529 0.416252 1.60936 0 0 0 0.400367 0.696749 -0.0655885 0 0 -2.77371 -32.029 42.6885 -11.1001 0.03 300.164 
145 1 1 0.386692 0.402351 1.61815 0 0 0 0.741542 0.0486133 0.979742 3.82372 2.71416 10.3164 -27.1747 47.7645 4.891 0.03 300.479 
135 1 1 0.101238 0.427629 1.59706 0 0 0 -0.638572 0.22332 -2.33765 0 0 -2.77371 -5.52172 3.72772 -4.466 0.03 300.034 
131 1 1 0.334397 0.43362 1.61246 0 0 0 0.766628 0.525467 -1.60155 -3.59151 5.11848 10.1902 13.4202 6.12377 -13.9393 0.03 300.429 
61 1 1 0.174399 0.45314 1.59789 0 0 0 0.110766 0.0941365 -1.46814 22.0295 70.8557 86.5849 -12.8496 -9.74631 -5.19524 0.03 300.048 
9 1 1 0.44796 0.461336 1.61798 0 0 0 0.519239 -0.126504 -0.104318 -5.64458 9.17645 5.4657 -1.28561 31.6751 10.6309 0.03 300.245 
140 1 1 0.745166 0.485518 1.62388 0 0 0 1.91018 0.0155893 0.289758 0 0 -2.77371 -2.11596 -33.9412 0.440971 0.03 304.049 
117 1 1 0.185588 0.516256 1.62418 0 0 0 -0.168224 -0.0203796 -0.576677 -1.14797 0.525922 4.56213 19.3325 26.2388 8.41914 0.03 300.054 
79 1 1 0.351192 0.526598 1.62854 0 0 0 0.784617 0.72173 0.556465 0 0 -2.77371 -41.4961 63.8842 -1.93629 0.03 300.834 
157 1 1 0.551517 0.544142 1.62198 0 0 0 1.32219 0.711494 0.268503 11.2828 3.87417 16.4934 -16.6763 76.9509 -12.9908 0.03 300.123 
172 1 1 0.515337 0.587423 1.59714 0 0 0 1.42037 0.123521 -0.211901 29.1155 1.27585 21.065 -11.0978 -64.5538 -43.5701 0.03 309.808 
173 1 1 0.391641 0.265452 1.6569 0 0 0 0.849681 -0.576466 0.354539 0 0 -2.77371 20.1863 48.207 3.36417 0.03 300.124 
3 1 1 0.103577 0.34242 1.64034 0 0 0 0 0 -2.99678 0 0 -2.77371 0 0 0 0.03 300 
92 1 1 0.527168 0.366278 1.65043 0 0 0 1.16424 -0.449292 -0.183814 2.48274 -14.6165 -15.8378 -29.8141 -20.0144 11.8836 0.03 300.354 
167 1 1 0.466601 0.387028 1.64138 0 0 0 0.389763 -0.30419 -0.976226 -56.4528 -20.6269 -85.6057 6.4785 21.2358 5.17494 0.03 300.588 
130 1 1 0.418517 0.421655 1.66277 0 0 0 1.20857 0.707381 0.329248 25.1364 12.5206 30.0217 -1.9716 -30.4711 -5.19476 0.03 300.007 
169 1 1 0.240103 0.473004 1.64769 0 0 0 -0.680459 -0.136865 -2.18639 0 0 -2.77371 10.7286 -0.641027 7.4221 0.03 300 
105 1 1 0.388052 0.471279 1.64156 0 0 0 0.227208 0.398708 0.490388 -39.7038 -15.7998 -89.6663 -7.23952 79.3849 -18.1057 0.03 300.339 
99 1 1 0.295422 0.49744 1.63181 0 0 0 0.282549 0.271912 -0.485432 0 0 -2.77371 -3.05125 -107.648 24.665 0.03 300.016 
18 1 1 0.452088 0.541065 1.64352 0 0 0 0.0241209 0.288686 0.0705562 0 0 -2.77371 -13.0552 42.9778 11.5299 0.03 300.104 
156 1 1 0.367739 0.627961 1.64257 0 0 0 0.172198 1.47681 -0.0836041 0 0 -2.77371 -12.6262 5.43796 11.889 0.03 300.129 
78 1 1 0.254496 0.165765 1.69024 0 0 0 0.840524 -0.590493 0.34742 0 0 -2.77371 28.2436 73.2207 -0.414164 0.03 300.124 
125 1 1 0.338216 0.237525 1.67556 0 0 0 0.0877323 0.287071 -1.07678 20.74 72.5117 133.874 -43.4551 1.98098 1.84367 0.03 300.001 
159 1 1 0.482142 0.315226 1.67694 0 0 0 0.82636 0.197619 -0.267636 0 0 -2.77371 47.675 -14.3142 -12.4889 0.03 300.002 
132 1 1 0.181507 0.370772 1.64578 0 0 0 0 0 -2.97892 0 0 -2.77371 0 0 0 0.03 300 
133 1 1 0.736671 0.357161 1.68137 0 0 0 1.45209 0.340449 -0.144433 0 0 -2.77371 -5.42725 -57.2091 -15.3957 0.03 303.944 
50 1 1 0.299504 0.415987 1.66441 0 0 0 -0.22259 -0.123364 -1.56398 0 0 -2.77371 9.97334 -30.3931 -0.711567 0.03 300.003 
16 1 1 0.119943 0.514428 1.66901 0 0 0 0 0 -2.90142 0 0 -2.77371 0 0 0 0.03 300 
83 1 1 0.499782 0.483801 1.65941 0 0 0 0 0 -2.9337 0 0 -2.77371 0 0 0 0.03 300 
2 1 1 0.353126 0.5447 1.68666 0 0 0 0.763244 1.14936 0.7384 0 0 -2.77371 29.9697 -62.4635 12.0468 0.03 300.012 
19 1 1 0.315839 0.298576 1.67974 0 0 0 0 0 -2.86493 0 0 -2.77371 0 0 0 0.03 300 
94 1 1 0.273851 0.347383 1.70251 0 0 0 0 0 -2.78586 0 0 -2.77371 0 0 0 0.03 300 
20 1 1 0.379347 0.368828 1.68536 0 0 0 0 0 -2.8456 0 0 -2.77371 0 0 0 0.03 300 
151 1 1 0.495734 0.397796 1.68798 0 0 0 0.581059 0.360989 -0.641337 53.97 35.2434 93.1224 -29.0805 -2.89545 15.3367 0.03 300.003 
27 1 1 0.362553 0.476213 1.69554 0 0 0 0.00392066 0.00155532 -2.80174 39.7038 15.7998 84.1189 0.0580882 -0.596806 0.0819715 0.03 300 
139 1 1 0.137853 0.229319 1.73598 0 0 0 0 0 -2.66539 0 0 -2.77371 0 0 0 0.03 300 
88 1 1 0.486268 0.228152 1.73114 0 0 0 0 0 -2.68315 0 0 -2.77371 0 0 0 0.03 300 
7 1 1 0.417913 0.266516 1.73787 0 0 0 0 0 -2.65843 0 0 -2.77371 0 0 0 0.03 300 
51 1 1 0.201805 0.313726 1.74105 0 0 0 0 0 -2.64666 0 0 -2.77371 0 0 0 0.03 300 
144 1 1 0.368613 0.311971 1.77168 0 0 0 0 0 -2.53061 0 0 -2.77371 0 0 0 0.03 300 
56 1 1 0.445152 0.350079 1.76789 0 0 0 0 0 -2.54522 0 0 -2.77371 0 0 0 0.03 300 
77 1 1 0.218563 0.442358 1.77488 0 0 0 0 0 -2.51815 0 0 -2.77371 0 0 0 0.03 300 
24 1 1 0.44361 0.420007 1.77915 0 0 0 0 0 -2.50147 0 0 -2.77371 0 0 0 0.03 300 
57 1 1 0.255601 0.512634 1.76853 0 0 0 0 0 -2.54277 0 0 -2.77371 0 0 0 0.03 300 
149 1 1 0.457968 0.50649 1.77536 0 0 0 0 0 -2.51628 0 0 -2.77371 0 0 0 0.03 300 
137 1 1 0.250314 0.231914 1.80709 0 0 0 0 0 -2.38934 0 0 -2.77371 0 0 0 0.03 300 
165 1 1 0.36833 0.235983 1.80967 0 0 0 0 0 -2.37875 0 0 -2.77371 0 0 0 0.03 300 
104 1 1 0.324371 0.382136 1.79043 0 0 0 0 0 -2.45683 0 0 -2.77371 0 0 0 0.03 300 
34 1 1 0.161462 0.479607 1.81252 0 0 0 0 0 -2.36697 0 0 -2.77371 0 0 0 0.03 300 
4 1 1 0.283869 0.446206 1.81217 0 0 0 0 0 -2.36845 0 0 -2.77371 0 0 0 0.03 300 
75 1 1 0.387927 0.516304 1.7961 0 0 0 0 0 -2.43407 0 0 -2.77371 0 0 0 0.03 300 
12 1 1 0.150682 0.290471 1.82894 0 0 0 0 0 -2.29791 0 0 -2.77371 0 0 0 0.03 300 
21 1 1 0.18594 0.400862 1.85802 0 0 0 0 0 -2.17019 0 0 -2.77371 0 0 0 0.03 300 
115 1 1 0.29951 0.265646 1.86735 0 0 0 0 0 -2.12761 0 0 -2.77371 0 0 0 0.03 300 
170 1 1 0.448147 0.302404 1.88104 0 0 0 0 0 -2.06355 0 0 -2.77371 0 0 0 0.03 300 
126 1 1 0.387846 0.395075 1.86447 0 0 0 0 0 -2.14085 0 0 -2.77371 0 0 0 0.03 300 
160 1 1 0.115232 0.435564 1.88418 0 0 0 0 0 -2.04854 0 0 -2.77371 0 0 0 0.03 300 
114 1 1 0.101873 0.240116 1.90601 0 0 0 0 0 -1.94122 0 0 -2.77371 0 0 0 0.03 300 
1 1 1 0.44893 0.24186 1.90951 0 0 0 0 0 -1.92346 0 0 -2.77371 0 0 0 0.03 300 
11 1 1 0.20764 0.30353 1.90201 0 0 0 0 0 -1.96133 0 0 -2.77371 0 0 0 0.03 300 
33 1 1 0.10471 0.363257 1.92697 0 0 0 0 0 -1.83223 0 0 -2.77371 0 0 0 0.03 300 
71 1 1 0.27192 0.349064 1.91129 0 0 0 0 0 -1.91434 0 0 -2.77371 0 0 0 0.03 300 
154 1 1 0.211019 0.445658 1.92587 0 0 0 0 0 -1.83812 0 0 -2.77371 0 0 0 0.03 300 
106 1 1 0.375691 0.47682 1.89916 0 0 0 0 0 -1.97556 0 0 -2.77371 0 0 0 0.03 300 
129 1 1 0.201147 0.51232 1.89951 0 0 0 0 0 -1.97379 0 0 -2.77371 0 0 0 0.03 300 
89 1 1 0.26845 0.48437 1.92262 0 0 0 0 0 -1.85538 0 0 -2.77371 0 0 0 0.03 300 
26 1 1 0.474436 0.482152 1.89801 0 0 0 0 0 -1.98125 0 0 -2.77371 0 0 0 0.03 300 
161 1 1 0.383875 0.233035 1.95153 0 0 0 0 0 -1.69568 0 0 -2.77371 0 0 0 0.03 300 
127 1 1 0.381994 0.300043 1.95924 0 0 0 0 0 -1.65045 0 0 -2.77371 0 0 0 0.03 300 
35 1 1 0.342434 0.364463 1.93404 0 0 0 0 0 -1.79397 0 0 -2.77371 0 0 0 0.03 300 
141 1 1 0.429803 0.380165 1.96103 0 0 0 0 0 -1.63976 0 0 -2.77371 0 0 0 0.03 300 
38 1 1 0.303454 0.414467 1.94593 0 0 0 0 0 -1.72775 0 0 -2.77371 0 0 0 0.03 300 
111 1 1 0.473074 0.424163 1.96824 0 0 0 0 0 -1.59601 0 0 -2.77371 0 0 0 0.03 300 
97 1 1 0.184928 0.234672 2.00699 0 0 0 0 0 -1.33683 0 0 -2.77371 0 0 0 0.03 300 
146 1 1 0.495146 0.246598 1.97794 0 0 0 0 0 -1.53528 0 0 -2.77371 0 0 0 0.03 300 
44 1 1 0.485944 0.343638 1.97461 0 0 0 0 0 -1.55637 0 0 -2.77371 0 0 0 0.03 300 
166 1 1 0.165431 0.374869 1.98167 0 0 0 0 0 -1.51125 0 0 -2.77371 0 0 0 0.03 300 
28 1 1 0.222318 0.404493 1.99597 0 0 0 0 0 -1.4154 0 0 -2.77371 0 0 0 0.03 300 
119 1 1 0.126835 0.482642 1.98072 0 0 0 0 0 -1.51743 0 0 -2.77371 0 0 0 0.03 300 
93 1 1 0.225968 0.488444 2.00543 0 0 0 0 0 -1.34821 0 0 -2.77371 0 0 0 0.03 300 
90 1 1 0.102204 0.238351 2.02325 0 0 0 0 0 -1.21165 0 0 -2.77371 0 0 0 0.03 300 
74 1 1 0.248328 0.247523 2.0145 0 0 0 0 0 -1.28052 0 0 -2.77371 0 0 0 0.03 300 
62 1 1 0.329189 0.252757 2.02644 0 0 0 0 0 -1.18556 0 0 -2.77371 0 0 0 0.03 300 
43 1 1 0.460616 0.284913 2.03622 0 0 0 0 0 -1.10158 0 0 -2.77371 0 0 0 0.03 300 
5 1 1 0.160428 0.3182 2.01475 0 0 0 0 0 -1.27865 0 0 -2.77371 0 0 0 0.03 300 
95 1 1 0.346797 0.327727 2.03156 0 0 0 0 0 -1.14239 0 0 -2.77371 0 0 0 0.03 300 
175 1 1 0.230789 0.339127 2.01936 0 0 0 0 0 -1.24275 0 0 -2.77371 0 0 0 0.03 300 
116 1 1 0.152794 0.405213 2.04526 0 0 0 0 0 -1.018 0 0 -2.77371 0 0 0 0.03 300 
128 1 1 0.355123 0.421294 2.03685 0 0 0 0 0 -1.09599 0 0 -2.77371 0 0 0 0.03 300 
37 1 1 0.41824 0.41741 2.02858 0 0 0 0 0 -1.1677 0 0 -2.77371 0 0 0 0.03 300 
17 1 1 0.345254 0.512161 2.02881 0 0 0 0 0 -1.16574 0 0 -2.77371 0 0 0 0.03 300 
134 1 1 0.443832 0.509496 2.01446 0 0 0 0 0 -1.28081 0 0 -2.77371 0 0 0 0.03 300 
40 1 1 0.408343 0.240904 2.0608 0 0 0 -0 -0 -1 0 0 0 0 0 0 0.03 300 
68 1 1 0.400811 0.324654 2.06473 0 0 0 -0 -0 -1 0 0 0 0 0 0 0.03 300 
25 1 1 0.278223 0.363632 2.05196 0 0 0 -0 -0 -1 0 0 0 0 0 0 0.03 300 
123 1 1 0.48159 0.360101 2.05449 0 0 0 -0 -0 -1 0 0 0 0 0 0 0.03 300 
84 1 1 0.227036 0.399722 2.07273 0 0 0 -0 -0 -1 0 0 0 0 0 0 0.03 300 
98 1 1 0.491139 0.43458 2.05869 0 0 0 -0 -0 -1 0 0 0 0 0 0 0.03 300 
55 1 1 0.200976 0.455034 2.06831 0 0 0 -0 -0 -1 0 0 0 0 0 0 0.03 300 
138 1 1 0.301221 0.470777 2.04913 0 0 0 -0 -0 -1 0 0 0 0 0 0 0.03 300 
72 1 1 0.10161 0.511094 2.06218 0 0 0 -0 -0 -1 0 0 0 0 0 0 0.03 300 
48 1 1 0.17066 0.517967 2.07622 0 0 0 -0 -0 -1 0 0 0 0 0 0 0.03 300 
22 1 1 0.254767 0.230824 2.09097 0 0 0 -0 -0 -1 0 0 0 0 0 0 0.03 300 
73 1 1 0.170916 0.265084 2.09451 0 0 0 -0 -0 -1 0 0 0 0 0 0 0.03 300 
171 1 1 0.477654 0.251099 2.09033 0 0 0 -0 -0 -1 0 0 0 0 0 0 0.03 300 
110 1 1 0.10205 0.273683 2.09359 0 0 0 -0 -0 -1 0 0 0 0 0 0 0.03 300 
164 1 1 0.244978 0.28843 2.11115 0 0 0 -0 -0 -1 0 0 0 0 0 0 0.03 300 
107 1 1 0.303471 0.271065 2.0997 0 0 0 -0 -0 -1 0 0 0 0 0 0 0.03 300 
31 1 1 0.221691 0.336081 2.08246 0 0 0 -0 -0 -1 0 0 0 0 0 0 0.03 300 
70 1 1 0.142707 0.355749 2.10494 0 0 0 -0 -0 -1 0 0 0 0 0 0 0.03 300 
53 1 1 0.294932 0.364362 2.11 0 0 0 -0 -0 -1 0 0 0 0 0 0 0.03 300 
153 1 1 0.496538 0.392613 2.10762 0 0 0 -0 -0 -1 0 0 0 0 0 0 0.03 300 
148 1 1 0.12082 0.460146 2.09005 0 0 0 -0 -0 -1 0 0 0 0 0 0 0.03 300 
6 1 1 0.317689 0.454971 2.1124 0 0 0 -0 -0 -1 0 0 0 0 0 0 0.03 300 
136 1 1 0.374023 0.456818 2.08267 0 0 0 -0 -0 -1 0 0 0 0 0 0 0.03 300 
65 1 1 0.421483 0.499457 2.09254 0 0 0 -0 -0 -1 0 0 0 0 0 0 0.03 300 
150 1 1 0.481625 0.503918 2.0972 0 0 0 -0 -0 -1 0 0 0 0 0 0 0.03 300 
102 1 1 0.419044 0.351535 2.11593 0 0 0 -0 -0 -1 0 0 0 0 0 0 0.03 300 
176 1 1 0.349719 0.399621 2.11537 0 0 0 -0 -0 -1 0 0 0 0 0 0 0.03 300 
147 1 1 0.248507 0.49546 2.11684 0 0 0 -0 -0 -1 0 0 0 0 0 0 0.03 300 
52 1 1 0.358392 0.516981 2.11661 0 0 0 -0 -0 -1 0 0 0 0 0 0 0.03 300 
