ITEM: TIMESTEP
32200
ITEM: NUMBER OF ATOMS
1500
ITEM: BOX BOUNDS ff ff ff
-1 1
-1 1
-1 1
ITEM: ATOMS id type type x y z ix iy iz vx vy vz fx fy fz omegax omegay omegaz radius 
137 1 1 -0.960858 -0.935708 -0.955769 0 0 0 -0.353524 0.283686 0.359942 37.0332 2.65198 -41.777 -0.0834726 -0.525766 2.90142 0.04 
5 1 1 -0.879302 -0.957135 -0.95769 0 0 0 -0.355051 -0.583634 -0.37254 -22.0751 -68.1497 -3.0166 3.9836 2.53393 -1.44366 0.04 
239 1 1 -0.80176 -0.9432 -0.960482 0 0 0 -0.203161 -0.288659 -0.157262 41.7777 7.05591 19.4033 -3.33781 1.55797 -2.2504 0.04 
415 1 1 -0.720297 -0.959176 -0.961295 0 0 0 -0.00446073 -0.141535 -0.162838 -16.0955 1.55639 67.9427 2.31348 0.462941 2.21912 0.04 
105 1 1 -0.641875 -0.945682 -0.960561 0 0 0 -0.22087 0.143132 0.060157 20.4987 7.05626 -6.50992 -1.44202 -1.98529 -2.04634 0.04 
138 1 1 -0.550759 -0.95579 -0.960208 0 0 0 0.29862 0.0470518 0.116211 -0.500495 -0.0536298 3.49248 -0.413157 0.334277 -3.80312 0.04 
323 1 1 -0.469822 -0.95819 -0.936275 0 0 0 0.62454 -0.120113 -0.322636 0 0 -6.57473 -3.49889 -2.66734 -3.1164 0.04 
130 1 1 -0.38541 -0.959563 -0.950469 0 0 0 0.0937468 -0.403634 -0.115517 -26.8065 -30.1131 -2.05969 1.48329 3.80802 -4.43857 0.04 
502 1 1 -0.291195 -0.962554 -0.959012 0 0 0 -0.374738 -0.168806 -0.178265 36.9202 78.586 -3.81861 -0.333841 -4.57534 -1.98622 0.04 
494 1 1 -0.199604 -0.955582 -0.95935 0 0 0 -0.326286 -0.0478697 -0.0665608 4.44594 0.385521 -13.6236 2.26034 -0.70077 6.16883 0.04 
448 1 1 -0.109276 -0.944735 -0.958564 0 0 0 -0.632006 0.390523 0.177589 1.04654 2.10872 -21.0293 -4.74972 3.4997 6.77042 0.04 
147 1 1 -0.0300711 -0.961871 -0.958975 0 0 0 -0.366912 0.0251954 -0.114786 -22.8429 44.6749 -14.2914 -3.52009 -4.3233 4.7968 0.04 
218 1 1 0.0757352 -0.961136 -0.955011 0 0 0 -0.165793 0.658162 -0.303197 -2.38403 54.7962 -7.92491 -7.20525 -7.19996 4.31299 0.04 
655 1 1 0.158522 -0.959381 -0.959823 0 0 0 0.0157587 0.0294098 -0.153162 0 0 -6.57473 -2.15235 2.38694 -0.705356 0.04 
341 1 1 0.347911 -0.958956 -0.959319 0 0 0 -0.00589923 0.164042 0.444857 0 0 -6.57473 -1.23278 0.473962 -2.08959 0.04 
203 1 1 0.434657 -0.959323 -0.960834 0 0 0 -0.923477 0.209851 -0.0162873 2.32368 -0.218959 40.1048 -2.49841 6.41712 0.203367 0.04 
1019 1 1 0.514662 -0.953491 -0.962597 0 0 0 0.128869 0.11424 0.215236 6.02346 -23.7094 127.575 1.95585 2.00754 -0.769305 0.04 
636 1 1 0.712546 -0.949129 -0.95945 0 0 0 -0.269011 -0.344481 0.131057 0 0 -6.57473 0.482989 2.21842 -8.41499 0.04 
729 1 1 0.794577 -0.93971 -0.961174 0 0 0 -0.0877669 0.238007 -0.49965 3.59231 -0.165508 65.3476 -5.86409 1.24104 -1.21309 0.04 
503 1 1 0.872083 -0.961016 -0.956199 0 0 0 0.144341 1.00309 0.389465 -5.83029 -38.2084 -6.74954 2.31446 -7.62456 -5.28675 0.04 
850 1 1 0.953007 -0.958324 -0.955305 0 0 0 -0.613469 0.0123626 -0.122682 0 0 -6.57473 -2.32406 1.43573 0.946605 0.04 
446 1 1 -0.898538 -0.881447 -0.956959 0 0 0 0.244908 0.244575 0.0769916 6.05569 35.0645 -5.13928 1.14654 -2.87309 -2.99487 0.04 
379 1 1 -0.733571 -0.879254 -0.960677 0 0 0 0.285918 0.326027 -0.0769265 -7.77344 -8.36373 31.4471 -2.01711 -1.16029 3.87929 0.04 
380 1 1 -0.593896 -0.878085 -0.95647 0 0 0 0.242727 -0.31277 0.151006 0 0 -6.57473 -6.61841 3.02539 1.46685 0.04 
52 1 1 -0.505501 -0.885013 -0.958962 0 0 0 0.0415818 0.606234 0.197951 0 0 -6.57473 1.58675 3.63226 -4.66533 0.04 
480 1 1 -0.414889 -0.881829 -0.958485 0 0 0 -0.295934 -0.524846 -0.00662102 -4.85162 12.954 -49.2078 -3.94749 3.61445 1.93916 0.04 
322 1 1 -0.336366 -0.898558 -0.959394 0 0 0 0.228064 0.203284 -0.330641 -11.2183 78.6503 -11.2504 -1.48341 2.07224 4.73646 0.04 
647 1 1 -0.254948 -0.892033 -0.960916 0 0 0 0.351858 0.378192 -0.24047 0.401183 -25.9449 -67.4433 -0.981247 0.581118 -5.37954 0.04 
700 1 1 -0.170985 -0.880441 -0.958555 0 0 0 -0.0966749 -0.475059 0.0601891 4.02473 15.6414 -41.352 6.89255 -3.28267 0.616703 0.04 
204 1 1 0.00593417 -0.892749 -0.953651 0 0 0 0.123283 0.333748 -0.743537 32.1052 16.351 -31.3694 -6.65037 3.98277 -1.18423 0.04 
211 1 1 0.198703 -0.888295 -0.947697 0 0 0 -0.279409 0.367884 -0.256257 0 0 -6.57473 -4.733 6.1176 -3.84284 0.04 
19 1 1 0.288603 -0.901668 -0.958699 0 0 0 -0.343594 0.202858 -0.539068 -15.8278 -3.49368 -56.1711 5.31359 -0.662572 1.00942 0.04 
967 1 1 0.36888 -0.875667 -0.960329 0 0 0 -0.165518 0.31954 -0.11313 -23.4443 -17.2373 14.2045 -4.76458 4.87658 -5.28386 0.04 
396 1 1 0.574575 -0.886876 -0.961238 0 0 0 0.0277458 -0.674178 0.756235 -2.55052 -22.7533 13.6013 7.22392 1.7126 3.48228 0.04 
554 1 1 0.874251 -0.883145 -0.958838 0 0 0 -0.0346161 0.142273 0.27282 54.8448 63.1233 -6.67841 -3.75332 -0.426918 -2.07389 0.04 
488 1 1 -0.954579 -0.826084 -0.962058 0 0 0 -0.359314 0.0102299 0.160207 -19.5633 25.7142 103.908 3.936 5.05385 -0.984186 0.04 
894 1 1 -0.807128 -0.844891 -0.961784 0 0 0 -0.256764 0.398651 -0.122852 2.04036 -4.62062 94.4465 0.540133 -1.82499 -4.23158 0.04 
290 1 1 -0.678688 -0.821668 -0.954441 0 0 0 0.760763 -0.50544 0.0240742 6.2196 7.21044 -5.89515 2.35418 1.22767 -5.91426 0.04 
1127 1 1 -0.576438 -0.799377 -0.962051 0 0 0 -0.324278 0.468857 -0.0426578 31.6504 -6.81931 75.4557 -4.80462 0.0798274 0.574263 0.04 
241 1 1 -0.4958 -0.804243 -0.957373 0 0 0 -0.609681 -0.0412906 0.363739 23.5214 -23.1037 -40.3704 -3.49905 5.21725 0.656856 0.04 
511 1 1 -0.414515 -0.800155 -0.959947 0 0 0 0.0654708 0.304973 0.0287976 0 0 -6.57473 0.652741 -0.568416 -2.17483 0.04 
631 1 1 -0.314938 -0.81295 -0.961709 0 0 0 -0.0288522 0.283784 0.452867 15.9254 13.3635 9.24386 -5.39325 -1.89784 4.15359 0.04 
873 1 1 -0.218152 -0.810975 -0.958084 0 0 0 -0.22907 -0.47619 0.368483 0 0 -6.57473 6.38888 3.25797 -12.8461 0.04 
385 1 1 -0.0817699 -0.859434 -0.959677 0 0 0 0.039371 0.0938256 -0.222295 2.85802 -31.9629 -92.269 -7.64463 -1.09253 4.15994 0.04 
581 1 1 0.0592384 -0.835416 -0.958193 0 0 0 0.709172 -0.399611 -0.0393855 39.2238 44.529 -12.5361 0.649622 5.58981 -4.64177 0.04 
773 1 1 0.214589 -0.801046 -0.957971 0 0 0 -0.116201 0.236134 -0.784676 44.9354 -5.7103 -9.2239 -3.57388 6.78899 -6.34965 0.04 
725 1 1 0.293804 -0.818834 -0.961882 0 0 0 0.117959 0.043526 -0.476181 -2.66087 -8.71714 92.0043 2.67781 0.93429 0.416887 0.04 
664 1 1 0.432838 -0.828886 -0.959589 0 0 0 -0.199176 -0.0632856 0.302597 34.1386 -102.532 -40.3921 -3.71804 -7.29208 -9.83578 0.04 
880 1 1 0.615212 -0.8036 -0.95834 0 0 0 0.390538 0.0553242 0.46099 14.4172 17.3844 -32.1309 1.35634 6.8149 -6.31357 0.04 
50 1 1 0.678064 -0.867708 -0.961607 0 0 0 -0.279681 -1.01051 0.988351 18.7716 26.8802 21.9007 8.49738 4.55402 14.2195 0.04 
439 1 1 0.801439 -0.853813 -0.957921 0 0 0 -0.31553 0.544038 0.418974 -82.0327 -17.6046 -11.6797 1.3936 1.47805 -5.27092 0.04 
987 1 1 0.952127 -0.811623 -0.9615 0 0 0 -0.320778 0.767465 -0.266994 1.69268 -4.01 80.4776 4.34923 1.91686 -1.31257 0.04 
670 1 1 -0.951183 -0.738593 -0.958627 0 0 0 0.00706465 0.351272 0.0571001 2.07731 10.3695 -26.2774 0.235438 0.818265 3.7815 0.04 
826 1 1 -0.872058 -0.775267 -0.962805 0 0 0 0.15213 -0.518074 0.700141 -4.02382 6.16638 140.687 8.95004 1.00101 -5.46381 0.04 
960 1 1 -0.742734 -0.76807 -0.951274 0 0 0 -0.12301 -0.452842 -0.121905 0 0 -6.57473 -8.92399 4.11196 8.344 0.04 
567 1 1 -0.649448 -0.743435 -0.961107 0 0 0 0.593154 -0.271967 0.0184395 -6.79254 -13.3255 54.0289 0.656986 -0.118226 11.2359 0.04 
962 1 1 -0.124594 -0.79583 -0.962847 0 0 0 -1.47963 0.664954 -0.326818 -51.6869 90.782 146.58 -12.6223 -7.62095 15.1938 0.04 
950 1 1 -0.0243921 -0.799892 -0.948565 0 0 0 0.7273 -0.0572676 -0.430584 0 0 -6.57473 11.5242 1.76809 8.5338 0.04 
143 1 1 0.0457254 -0.755402 -0.959212 0 0 0 -0.672518 -0.493397 0.33231 0 0 -6.57473 5.54114 4.00614 11.6841 0.04 
1122 1 1 0.136839 -0.788874 -0.956582 0 0 0 -0.343729 0.627913 -0.838333 10.8524 23.1585 -90.476 3.87343 3.30402 5.31863 0.04 
576 1 1 0.455814 -0.7561 -0.947357 0 0 0 -0.668996 0.101164 -0.126294 -65.7701 106.693 -5.16679 -9.2811 2.65914 4.85647 0.04 
177 1 1 0.521921 -0.792077 -0.960964 0 0 0 0.0439592 -0.0244156 0.63478 104.104 -59.9141 11.2929 -8.32087 -10.8621 3.36056 0.04 
58 1 1 0.784472 -0.776681 -0.937916 0 0 0 0.453646 -0.373169 -0.283446 -104.44 27.1863 14.6 -6.22052 -8.95813 9.76032 0.04 
553 1 1 0.856502 -0.7976 -0.955918 0 0 0 -0.114353 -0.0138696 -0.375956 137.919 9.06671 -24.4947 0.847465 -5.03363 9.56001 0.04 
990 1 1 -0.841004 -0.677605 -0.962947 0 0 0 0.108033 -0.0335538 0.0734213 8.13188 -0.706529 156.676 1.22647 6.90274 5.80677 0.04 
1142 1 1 -0.757734 -0.686506 -0.961487 0 0 0 0.62965 0.359935 0.315652 -2.88787 -2.679 72.2081 9.20006 -3.76 -4.48752 0.04 
893 1 1 -0.565893 -0.716757 -0.963364 0 0 0 -0.404834 0.776323 -0.528841 54.3215 -44.5188 187.643 -11.8312 5.23767 2.04552 0.04 
709 1 1 -0.477099 -0.724096 -0.960177 0 0 0 0.0305881 0.251847 -0.450178 -0.208456 -0.755346 9.09694 -1.6032 -0.532265 -0.0974934 0.04 
344 1 1 -0.409165 -0.677497 -0.961531 0 0 0 0.34503 0.121292 -0.055121 -3.98554 -1.61855 79.4584 1.50119 -2.51516 -0.35788 0.04 
382 1 1 -0.347416 -0.728735 -0.95983 0 0 0 -0.320231 0.313066 0.816179 0 0 -6.57473 -6.57319 -6.50247 0.683537 0.04 
883 1 1 -0.245088 -0.72682 -0.962371 0 0 0 0.423238 -0.372754 0.042174 -3.25244 5.72049 125.034 0.396881 5.66938 4.93276 0.04 
868 1 1 -0.174561 -0.685529 -0.960863 0 0 0 0.368356 -0.118893 -0.0483902 -2.4111 0.349697 42.1518 1.59025 -0.442531 0.507003 0.04 
1066 1 1 -0.0714517 -0.716877 -0.951727 0 0 0 -0.302571 -0.462285 0.290736 0 0 -6.57473 -3.1182 2.30163 2.60571 0.04 
1271 1 1 0.00812033 -0.68169 -0.948725 0 0 0 -0.262265 -0.00237724 -0.390391 0 0 -6.57473 3.29295 -0.94332 2.61957 0.04 
1030 1 1 0.0894763 -0.681327 -0.957638 0 0 0 0.322591 0.162001 -0.0726729 -4.56199 -82.1302 -76.2019 3.74007 -3.08612 -10.8172 0.04 
1346 1 1 0.179009 -0.719768 -0.954756 0 0 0 -0.816293 -1.21364 0.847364 0 0 -6.57473 6.21183 -2.92157 -5.00889 0.04 
867 1 1 0.314081 -0.734166 -0.949284 0 0 0 -0.0371929 -0.0732311 0.0202183 -64.7526 30.7543 -60.2562 6.63658 5.14107 3.44142 0.04 
772 1 1 0.388596 -0.711932 -0.954792 0 0 0 -0.504292 -0.221852 -0.271112 73.2841 25.2414 -10.4472 8.27493 11.1368 3.38814 0.04 
408 1 1 0.553863 -0.717681 -0.960109 0 0 0 0.375252 -0.896696 -0.643517 -17.9586 24.6514 -27.7249 -0.276244 -7.46696 5.30687 0.04 
1111 1 1 0.634121 -0.724232 -0.948607 0 0 0 0.634749 -0.717235 -0.20494 0 0 -6.57473 -2.54635 -1.46167 -1.01531 0.04 
840 1 1 0.723458 -0.719279 -0.958976 0 0 0 1.34852 0.412671 -1.08381 -0.542609 9.58572 -41.0223 6.36642 -0.00086004 -1.14457 0.04 
1107 1 1 0.802526 -0.700105 -0.961465 0 0 0 0.507935 0.457002 0.295116 5.44356 -10.1437 68.5149 -3.25573 7.2478 -10.0282 0.04 
1055 1 1 -0.956862 -0.658451 -0.956516 0 0 0 -0.137966 0.1226 0.166236 0 0 -6.57473 4.3987 4.29443 -1.50105 0.04 
969 1 1 -0.706649 -0.62074 -0.960575 0 0 0 0.310425 -0.490393 -0.491094 33.761 -17.3176 -45.6383 -0.703424 -0.285516 7.90274 0.04 
435 1 1 -0.626805 -0.667132 -0.960299 0 0 0 0.529961 -0.272855 -0.0717709 -32.2233 53.4093 -1.21754 12.283 2.90217 -2.85968 0.04 
230 1 1 -0.571361 -0.609398 -0.958262 0 0 0 -0.0410609 0.486184 -0.30217 0 0 -6.57473 -3.2043 2.52517 7.28077 0.04 
857 1 1 -0.498532 -0.645864 -0.957188 0 0 0 -0.113977 0.16709 0.641956 -1.2877 0.160178 -9.51292 -2.05815 0.961474 -0.0213178 0.04 
1124 1 1 -0.244751 -0.645092 -0.949224 0 0 0 -0.452392 -0.803191 0.309426 0 0 -6.57473 -3.38856 -18.691 1.3786 0.04 
201 1 1 -0.114404 -0.632514 -0.955499 0 0 0 0.204483 0.123078 -0.190152 0 0 -6.57473 0.387695 -2.79409 -2.3686 0.04 
404 1 1 0.134338 -0.617098 -0.95343 0 0 0 0.781126 -0.593077 0.539571 34.0697 48.3867 -6.34679 -1.37631 8.1626 -10.9687 0.04 
315 1 1 0.24587 -0.658098 -0.955608 0 0 0 0.973931 -1.18286 0.214934 0 0 -6.57473 8.31084 1.03461 -9.31325 0.04 
220 1 1 0.425624 -0.634332 -0.958242 0 0 0 0.670587 0.367897 0.375969 42.5747 -49.1323 -21.2194 -4.97746 1.47781 4.60312 0.04 
1047 1 1 0.520653 -0.630099 -0.961383 0 0 0 0.0860252 -0.160364 -1.41822 -0.558649 4.73984 88.8783 -16.1067 -0.19366 -0.859544 0.04 
806 1 1 0.681323 -0.597261 -0.94665 0 0 0 -0.123472 0.396819 -1.14623 0 0 -6.57473 10.4675 7.83747 -8.82953 0.04 
499 1 1 0.746657 -0.646129 -0.943955 0 0 0 0.313498 0.831426 0.284462 12.7951 66.5619 5.59898 -2.14854 5.93045 15.7161 0.04 
771 1 1 0.950807 -0.649165 -0.956806 0 0 0 0.191533 -0.174094 -0.349416 10.0928 49.7142 -20.4921 0.135247 -3.3295 -12.3228 0.04 
326 1 1 -0.951384 -0.578719 -0.960688 0 0 0 0.119675 -0.33575 0.456398 0.00811744 -19.9833 17.5408 15.1085 2.42555 -9.69619 0.04 
739 1 1 -0.865002 -0.595458 -0.954257 0 0 0 0.000198493 -0.185447 0.766402 0 0 -6.57473 0.909528 -4.20615 11.2591 0.04 
76 1 1 -0.731782 -0.543301 -0.940513 0 0 0 -0.454347 0.835464 -0.537232 0 0 -6.57473 6.25179 -3.49046 5.61329 0.04 
1037 1 1 -0.521184 -0.5335 -0.948837 0 0 0 -0.166398 -0.00926351 0.492954 0 0 -6.57473 -9.98801 -6.84986 -2.46893 0.04 
116 1 1 -0.432341 -0.587199 -0.950353 0 0 0 0.684914 -0.0319306 0.00899339 0 0 -6.57473 0.703564 -10.4635 -0.708114 0.04 
710 1 1 -0.307082 -0.576625 -0.961808 0 0 0 0.624829 -0.0942949 1.05922 101.411 11.381 -90.2003 11.1823 -0.870502 -11.7375 0.04 
1202 1 1 -0.222353 -0.549727 -0.941981 0 0 0 -0.482586 0.317431 -0.681183 -48.1736 -10.5894 2.44779 -2.85684 -15.615 6.18181 0.04 
128 1 1 -0.145878 -0.536868 -0.955395 0 0 0 -0.563147 -0.136048 0.222188 48.1736 10.5894 -15.5972 7.47256 -3.62611 -6.58077 0.04 
1249 1 1 0.0239522 -0.580295 -0.942381 0 0 0 -0.37891 0.0582864 -0.939438 0 0 -6.57473 5.39834 6.48344 -3.03362 0.04 
1216 1 1 0.216075 -0.553378 -0.957967 0 0 0 -0.843072 -0.592019 0.0365565 50.2782 -199.389 -205.878 -9.13407 -8.40169 10.6012 0.04 
780 1 1 0.291022 -0.582668 -0.959919 0 0 0 -0.55564 0.113047 0.43149 20.3059 -32.0139 -48.3118 -3.17036 -9.5205 0.666213 0.04 
1069 1 1 0.372752 -0.57905 -0.942126 0 0 0 -0.16151 -0.221194 0.0172638 -26.7822 2.46778 17.5232 4.49621 -7.06046 1.27664 0.04 
309 1 1 0.481274 -0.557609 -0.957269 0 0 0 -0.524525 0.0666527 -1.49191 18.962 -19.6182 -6.1554 4.73662 7.08659 9.57716 0.04 
361 1 1 0.560494 -0.545903 -0.961901 0 0 0 0.0208746 -0.202169 -0.63131 -77.6625 -18.4607 -70.3306 -2.38612 1.70504 -4.9884 0.04 
182 1 1 0.837259 -0.576833 -0.961835 0 0 0 -0.206232 0.777302 0.550043 -123.5 55.5547 -19.4289 -5.35375 4.66528 6.7854 0.04 
975 1 1 0.950383 -0.560284 -0.952047 0 0 0 0.456481 1.14206 0.0739961 0 0 -6.57473 2.9027 -2.21022 -9.20738 0.04 
657 1 1 -0.954127 -0.505136 -0.931143 0 0 0 -0.355739 0.268797 0.403669 -0.148902 18.3693 1.71103 9.33547 -3.46899 -0.0544862 0.04 
1056 1 1 -0.876567 -0.482595 -0.948396 0 0 0 0.511933 0.868636 1.05108 0 0 -6.57473 -11.6916 7.28982 1.43132 0.04 
1215 1 1 -0.81155 -0.533266 -0.953436 0 0 0 -0.375426 -0.162695 -0.153457 0 0 -6.57473 3.34059 -5.68266 9.01222 0.04 
1286 1 1 -0.571244 -0.465756 -0.955912 0 0 0 0.0768827 0.622764 0.500191 0 0 -6.57473 -9.63575 -0.180066 -3.56134 0.04 
945 1 1 -0.36356 -0.501546 -0.956033 0 0 0 -0.798392 1.05816 0.330424 0 0 -6.57473 -3.37045 6.95753 -13.6885 0.04 
1378 1 1 -0.0163915 -0.513148 -0.964825 0 0 0 -0.305098 -0.253105 -0.140049 -0.854331 -22.1422 263.398 2.92232 -7.4543 1.00817 0.04 
807 1 1 0.0819773 -0.518718 -0.938044 0 0 0 0.355108 0.925235 0.172504 0 0 -6.57473 -10.3653 0.620693 1.39162 0.04 
1233 1 1 0.269523 -0.48104 -0.963881 0 0 0 -0.370721 0.475543 1.32978 -9.07185 4.31336 190.084 -11.9522 -5.52108 13.4984 0.04 
752 1 1 0.344382 -0.507439 -0.956959 0 0 0 -1.4644 0.317353 -0.00738815 -4.25045 0.980264 -16.2669 -0.0354819 7.88376 9.94654 0.04 
624 1 1 0.429107 -0.498 -0.959039 0 0 0 0.43825 1.09711 -1.08902 -18.962 19.6182 -6.99405 7.47837 4.4389 1.48547 0.04 
885 1 1 0.613221 -0.479572 -0.954102 0 0 0 1.89349 0.285124 0.059347 0 0 -6.57473 -0.437503 1.51575 -4.86573 0.04 
627 1 1 0.755459 -0.471643 -0.959107 0 0 0 -0.438314 0.508927 0.501712 -54.6354 -11.2598 -12.7091 -4.33997 -6.81595 0.97004 0.04 
1130 1 1 0.945881 -0.471296 -0.962147 0 0 0 0.218391 -0.0596815 0.0038579 5.85087 1.23509 113.021 1.06731 7.79809 0.0650567 0.04 
1251 1 1 -0.806185 -0.415891 -0.959391 0 0 0 0.518725 -0.4501 -1.12575 0 0 -6.57473 2.10167 0.618358 6.69614 0.04 
283 1 1 -0.70439 -0.45285 -0.944483 0 0 0 0.0800825 0.652743 -0.37836 0 0 -6.57473 -6.06851 5.02924 -8.56741 0.04 
1084 1 1 -0.442598 -0.446236 -0.94697 0 0 0 0.398558 0.461126 0.109433 0 0 -6.57473 7.00732 0.327178 6.14485 0.04 
1344 1 1 -0.312033 -0.411271 -0.96345 0 0 0 -0.526953 0.398796 -0.791965 8.64957 -5.26528 195.948 -1.63927 0.646066 3.94164 0.04 
1095 1 1 -0.194725 -0.416288 -0.936884 0 0 0 0.27464 1.01669 0.178535 -87.5197 63.9397 -64.8528 0.0408445 7.08794 1.45849 0.04 
1198 1 1 -0.0921092 -0.433714 -0.962478 0 0 0 -1.75522 0.504587 1.0779 -198.512 -1.21278 102.967 -9.20993 -6.46197 -5.945 0.04 
1276 1 1 -0.017838 -0.433983 -0.960872 0 0 0 -1.0729 -0.19226 0.721655 207.339 26.1018 48.0405 6.9072 -10.7957 -9.85813 0.04 
1102 1 1 0.127974 -0.443288 -0.959 0 0 0 -0.979568 -0.12657 0.0197829 0 0 -6.57473 -4.3291 11.8366 3.2125 0.04 
685 1 1 0.362531 -0.43085 -0.951525 0 0 0 -0.310737 0.0215737 0.33652 7.35906 39.812 -3.95173 8.8145 4.03969 -4.23767 0.04 
1096 1 1 0.440165 -0.405813 -0.959855 0 0 0 0.330774 -0.110268 0.200495 0 0 -6.57473 4.56944 8.12598 4.32711 0.04 
864 1 1 0.567298 -0.410956 -0.949295 0 0 0 0.404792 1.32673 0.137575 0 0 -6.57473 2.087 0.919925 2.98478 0.04 
1206 1 1 0.832474 -0.456642 -0.954334 0 0 0 -0.94362 0.00958516 -0.525215 54.6354 11.2598 -0.440354 7.5562 -7.67677 -2.08867 0.04 
1239 1 1 -0.948515 -0.361537 -0.954552 0 0 0 0.166491 -0.101962 -0.662994 -127.301 72.4934 -134.654 -13.4216 2.3761 -2.50679 0.04 
1235 1 1 -0.455084 -0.351128 -0.957938 0 0 0 -0.117969 0.117996 -0.0132725 0 0 -6.57473 -3.2503 1.47967 -9.39437 0.04 
619 1 1 -0.235192 -0.334652 -0.956169 0 0 0 -0.069259 -0.0153522 -0.260861 -248.51 -23.1686 17.0522 -11.4364 -0.166293 5.87618 0.04 
1236 1 1 -0.162887 -0.32428 -0.962497 0 0 0 -0.936548 1.89558 0.320797 250.994 16.8924 104.799 -6.98757 -8.52599 7.93414 0.04 
854 1 1 -0.0407331 -0.350456 -0.947066 0 0 0 -0.482797 -0.809873 0.830151 -27.0336 -225.85 -218.604 -9.49927 -8.60421 -14.0474 0.04 
1012 1 1 0.184643 -0.386935 -0.931239 0 0 0 0.442279 1.16803 0.259165 -21.2002 -92.898 11.0208 6.5134 -6.89892 -3.67729 0.04 
539 1 1 0.795411 -0.365289 -0.956358 0 0 0 0.171833 0.10203 0.495937 -0.70685 -0.231081 -7.29318 -4.93463 -0.276417 5.33728 0.04 
659 1 1 0.937024 -0.374211 -0.944209 0 0 0 -0.211357 -0.502645 0.872502 -25.6864 -144.515 -2.07881 -13.1119 -2.46736 0.440043 0.04 
1150 1 1 -0.699345 -0.321754 -0.930597 0 0 0 0.183988 0.155219 0.733889 0 0 -6.57473 -3.80301 0.191368 -6.24162 0.04 
618 1 1 -0.52691 -0.302138 -0.960787 0 0 0 -0.448731 1.15878 -0.119505 0.185906 -2.26353 38.8483 -7.6898 -9.55775 15.7383 0.04 
1196 1 1 -0.326786 -0.262183 -0.941762 0 0 0 0.136918 0.485151 0.30712 0 0 -6.57473 -4.48857 4.84063 -13.7535 0.04 
1240 1 1 -0.0908483 -0.291324 -0.938389 0 0 0 -0.279109 -0.364655 -0.386539 -45.9676 55.8575 5.04955 -8.67027 2.19949 0.0292897 0.04 
1466 1 1 0.199736 -0.313025 -0.948681 0 0 0 -0.337833 0.785452 -0.793802 21.2002 92.898 -24.1703 4.39115 -6.13215 2.07844 0.04 
1126 1 1 0.409 -0.313159 -0.959114 0 0 0 0.204779 1.01817 -1.65459 0 0 -6.57473 7.12089 -11.2474 -17.2013 0.04 
1170 1 1 0.491296 -0.317955 -0.960387 0 0 0 -0.321295 0.154625 0.410523 -164.694 7.50278 -20.2608 3.68586 6.68455 -8.78338 0.04 
791 1 1 0.565581 -0.320373 -0.950602 0 0 0 1.977 -0.22346 0.42436 165.412 -7.87927 23.3174 22.3415 -7.62488 5.74892 0.04 
1191 1 1 0.68601 -0.315826 -0.953226 0 0 0 0.0265779 0.175799 0.944853 0 0 -6.57473 -2.27003 2.07446 -7.21158 0.04 
973 1 1 0.953729 -0.300377 -0.9479 0 0 0 1.13641 0.263339 -0.164721 25.6864 144.515 -11.0706 -8.94248 -10.3922 -10.9318 0.04 
1121 1 1 -0.946394 -0.266112 -0.958228 0 0 0 0.913689 -0.322037 0.189661 0 0 -6.57473 0.894271 9.74662 -8.93084 0.04 
837 1 1 -0.816941 -0.228417 -0.953301 0 0 0 0.156536 0.630746 -0.835479 0 0 -6.57473 -0.31133 4.22052 -6.39397 0.04 
1160 1 1 -0.712245 -0.21499 -0.961031 0 0 0 0.579645 0.00908408 -0.162188 -1.03514 -7.17537 52.0931 5.45019 2.59717 4.06375 0.04 
319 1 1 -0.625945 -0.191695 -0.956641 0 0 0 0.581493 1.02604 0.407704 0 0 -6.57473 -1.46518 -4.14618 4.5048 0.04 
1382 1 1 -0.513624 -0.204507 -0.949653 0 0 0 0.50636 1.92995 -1.47175 0 0 -6.57473 -9.6626 -0.810151 1.73883 0.04 
724 1 1 -0.402579 -0.226329 -0.940817 0 0 0 -0.458598 1.63779 2.03802 -58.4162 -58.6748 -38.7422 -14.2082 -4.50412 4.65571 0.04 
732 1 1 -0.15546 -0.211565 -0.952415 0 0 0 -1.01342 0.776893 0.777867 0 0 -6.57473 -10.0042 -12.7455 4.62227 0.04 
1154 1 1 0.130802 -0.23182 -0.957566 0 0 0 -0.107202 1.25161 1.19325 0 0 -6.57473 -18.1824 -1.94953 4.88864 0.04 
846 1 1 0.517853 -0.226826 -0.941742 0 0 0 -1.86015 -0.347753 0.257521 0 0 -6.57473 13.1141 -5.36219 -9.37563 0.04 
1178 1 1 0.629149 -0.222858 -0.934114 0 0 0 0.0935442 -1.20093 1.00784 0 0 -6.57473 -0.372877 -1.05933 -1.35976 0.04 
938 1 1 -0.72976 -0.13789 -0.950247 0 0 0 0.680373 0.213108 -0.190175 -1.65581 5.90219 -5.70374 -5.83783 -1.40934 1.81737 0.04 
1137 1 1 -0.0800717 -0.153732 -0.960882 0 0 0 -1.43585 1.39318 0.391289 -18.3649 -33.1674 3.75046 -13.3604 3.20993 3.50073 0.04 
279 1 1 0.440413 -0.179413 -0.940241 0 0 0 -1.60693 1.03851 0.37881 0 0 -6.57473 -13.1933 7.43481 1.33151 0.04 
696 1 1 0.726187 -0.175939 -0.948655 0 0 0 0.449329 -0.234188 -1.56124 -56.2068 -34.0088 -23.323 -7.58987 -13.5726 15.8292 0.04 
500 1 1 0.86763 -0.142834 -0.934369 0 0 0 0.232908 0.549383 0.210384 20.9061 -2.70578 -9.52449 -21.1917 -4.73066 -3.36985 0.04 
1287 1 1 -0.881992 -0.0738442 -0.957812 0 0 0 0.644962 0.541456 0.354801 0 0 -6.57473 1.04939 8.14582 -1.04868 0.04 
1364 1 1 -0.815482 -0.127699 -0.954858 0 0 0 1.00989 0.345179 -0.817664 -46.1321 -45.9598 -94.6435 -1.35453 5.24835 -10.7501 0.04 
899 1 1 -0.615558 -0.0977501 -0.954836 0 0 0 1.18281 0.6616 0.201612 0 0 -6.57473 -14.5957 9.08364 -11.845 0.04 
1209 1 1 -0.452402 -0.0873254 -0.947925 0 0 0 0.615202 1.02987 0.235922 0 0 -6.57473 -13.0312 4.27456 4.7279 0.04 
1298 1 1 -0.289612 -0.114524 -0.953514 0 0 0 -0.0285308 1.49114 0.136271 0 0 -6.57473 -2.54283 -14.8613 -4.09643 0.04 
1351 1 1 -0.176768 -0.104082 -0.952079 0 0 0 -0.458918 0.830444 0.532855 0 0 -6.57473 -0.657497 -8.86059 7.23525 0.04 
1329 1 1 0.113539 -0.0684909 -0.960722 0 0 0 -0.23354 0.224603 1.09498 -1.17307 0.564291 19.4601 -6.24315 -6.95871 14.1831 0.04 
409 1 1 0.593381 -0.135211 -0.952476 0 0 0 0.790833 -0.370587 -0.0133421 0 0 -6.57473 -6.34079 6.92506 -4.96601 0.04 
40 1 1 0.958304 -0.109967 -0.947412 0 0 0 -1.08804 1.04736 -0.961428 0 0 -6.57473 10.4127 -9.02244 -10.9158 0.04 
572 1 1 -0.749242 -0.0575084 -0.945506 0 0 0 -0.581178 1.12151 -0.835503 74.7784 67.8145 -116.075 -6.4104 15.6786 13.3012 0.04 
1166 1 1 -0.534944 -0.02486 -0.945863 0 0 0 -0.234656 1.64601 0.115815 0 0 -6.57473 -5.42026 17.5133 -6.42982 0.04 
1315 1 1 -0.365622 -0.000360498 -0.965221 0 0 0 -0.191968 1.46602 0.322829 -2.0607 -14.1889 280.181 3.668 -11.3671 -19.2839 0.04 
1017 1 1 -0.263749 0.00564409 -0.962958 0 0 0 1.65333 0.594386 0.439558 -7.71647 -1.94101 152.562 -4.50847 -0.507094 -5.71039 0.04 
1318 1 1 0.304022 -0.0417629 -0.948387 0 0 0 -0.408607 1.19886 0.182379 0 0 -6.57473 0.8092 18.6339 -12.1001 0.04 
118 1 1 0.385781 -0.0636008 -0.961139 0 0 0 -0.102681 -0.200569 -0.131477 -1.51695 2.88366 58.5916 -11.0559 -11.0951 -2.67912 0.04 
1476 1 1 0.484741 -0.0510246 -0.959802 0 0 0 0.764739 -0.111407 -0.121755 0 0 -6.57473 2.46939 -25.4575 -2.27907 0.04 
838 1 1 0.670494 -0.00828345 -0.957814 0 0 0 1.2527 1.20134 0.205612 0 0 -6.57473 13.8705 -0.897256 30.9796 0.04 
1247 1 1 0.757185 -0.054481 -0.962133 0 0 0 -0.502695 1.14074 1.0228 4.18104 -3.22542 99.0367 -10.3561 11.6718 5.06493 0.04 
1347 1 1 0.854563 -0.0459294 -0.931809 0 0 0 0.183787 0.197522 -0.00492993 41.14 -21.4001 -58.9439 -11.1265 -15.7814 -6.11077 0.04 
569 1 1 0.960992 -0.0099562 -0.940165 0 0 0 0.851519 0.399359 2.45359 24.566 -11.5365 -115.871 -13.0667 9.54861 -10.8724 0.04 
129 1 1 -0.954011 0.0216645 -0.950922 0 0 0 -0.353674 -0.628074 0.937312 0 0 -6.57473 8.85025 0.897746 -5.36326 0.04 
597 1 1 -0.857582 0.047386 -0.957746 0 0 0 -0.467402 -0.135379 -0.448196 0 0 -6.57473 -11.7739 3.76014 6.38061 0.04 
874 1 1 -0.681151 0.0549843 -0.958303 0 0 0 -0.437213 0.450055 1.07343 0 0 -6.57473 -7.39394 -13.9551 6.47507 0.04 
1119 1 1 -0.426578 0.0667906 -0.941551 0 0 0 0.459288 1.20615 -0.192858 0 0 -6.57473 -11.1035 0.763309 2.23512 0.04 
1080 1 1 -0.00628046 0.043955 -0.947378 0 0 0 -0.196411 0.649455 -0.484364 0 0 -6.57473 -3.64604 -9.90574 -6.53076 0.04 
891 1 1 0.103151 0.0343547 -0.964177 0 0 0 -0.1042 2.77008 -1.59186 0.490974 -12.6593 246.801 11.1182 0.516374 -9.59379 0.04 
1181 1 1 0.506722 0.0570416 -0.946008 0 0 0 -0.490174 2.40815 -0.229177 0 0 -6.57473 7.09975 -3.11612 -19.4594 0.04 
1242 1 1 0.713828 0.0661555 -0.931942 0 0 0 -0.307457 0.546396 0.521109 0 0 -6.57473 -9.2611 -10.0039 10.7782 0.04 
1443 1 1 -0.773552 0.0947295 -0.940473 0 0 0 0.640287 0.460894 -0.436173 0 0 -6.57473 9.08711 1.23952 2.79853 0.04 
1449 1 1 -0.242542 0.10078 -0.955558 0 0 0 -0.0906785 0.447009 0.169904 103.718 -111.144 -22.0819 -0.597302 11.1548 -10.8764 0.04 
944 1 1 0.0113693 0.143536 -0.961884 0 0 0 1.44927 1.33647 -2.12961 -4.53564 -4.83353 125.992 15.1424 -9.21815 -8.19319 0.04 
1197 1 1 0.196476 0.095833 -0.95629 0 0 0 1.43121 0.947999 0.564069 0 0 -6.57473 -21.2083 4.87792 23.8067 0.04 
892 1 1 0.792062 0.0823579 -0.954921 0 0 0 -1.20868 0.00181231 0.121553 0 0 -6.57473 -19.2209 -9.0279 14.1761 0.04 
1036 1 1 -0.639195 0.142889 -0.949876 0 0 0 0.0640689 0.567232 -0.918504 0 0 -6.57473 -13.3112 10.9323 6.99508 0.04 
527 1 1 -0.403074 0.14473 -0.939903 0 0 0 0.492982 0.400847 -0.41507 0 0 -6.57473 -12.108 21.0219 7.30598 0.04 
1333 1 1 -0.291156 0.158393 -0.948246 0 0 0 0.434197 1.64931 -0.0265103 -287.85 74.9968 -95.174 -10.4277 -3.86803 -6.68955 0.04 
651 1 1 -0.158395 0.157846 -0.938607 0 0 0 1.21539 0.82703 0.0609765 68.1596 -11.3361 -30.8054 -1.53459 -9.79827 2.26095 0.04 
1440 1 1 0.351339 0.219909 -0.954423 0 0 0 0.127036 2.22822 -0.476119 0 0 -6.57473 -27.2621 -14.7924 -13.2478 0.04 
574 1 1 -0.828229 0.244217 -0.923312 0 0 0 0.23669 0.358595 1.27823 -30.716 -92.5952 9.68528 -3.67366 -3.38182 7.09017 0.04 
921 1 1 -0.22718 0.25272 -0.961349 0 0 0 0.645563 2.93653 -0.856802 7.80502 -0.706109 71.261 -16.4783 -7.01014 -13.909 0.04 
884 1 1 -0.029058 0.225209 -0.9037 0 0 0 0.187641 1.38962 3.73086 0 0 -6.57473 -11.2795 -10.1309 -5.67781 0.04 
1352 1 1 0.416341 0.285484 -0.957214 0 0 0 -0.413369 1.76197 -1.83743 -0.0803655 -8.60203 -23.1955 -7.59276 2.66067 -0.583571 0.04 
1392 1 1 0.643228 0.226327 -0.940952 0 0 0 0.886648 1.12865 0.444329 0 0 -6.57473 -13.8734 13.0772 7.83954 0.04 
1200 1 1 0.774041 0.219589 -0.941136 0 0 0 -0.123916 0.633136 1.14221 0 0 -6.57473 13.9298 -9.34967 -2.70722 0.04 
909 1 1 -0.960203 0.294612 -0.959616 0 0 0 0.180273 1.10114 0.559863 8.99251 -0.298709 -6.91078 -9.48794 1.54032 13.7495 0.04 
900 1 1 -0.875862 0.306126 -0.935944 0 0 0 0.125218 0.641666 0.28929 -17.6786 22.4972 -9.77539 -1.69581 -3.15203 -5.46869 0.04 
1395 1 1 -0.783027 0.305741 -0.93822 0 0 0 -0.137459 -0.207805 1.05476 50.5756 71.4341 -32.7518 9.80784 -0.00649013 3.19748 0.04 
1167 1 1 -0.695733 0.292918 -0.953926 0 0 0 0.383456 0.700593 -1.08358 0 0 -6.57473 -22.6243 5.34312 6.17639 0.04 
744 1 1 -0.559385 0.329045 -0.956725 0 0 0 0.469777 1.49136 -0.167247 0 0 -6.57473 5.27074 4.84772 -6.55613 0.04 
691 1 1 -0.382144 0.327626 -0.961852 0 0 0 1.93513 0.744281 -0.133466 -150.703 104.365 -82.3404 0.610054 -0.739588 -0.0600556 0.04 
1045 1 1 -0.0849654 0.304843 -0.948368 0 0 0 -0.73424 0.0807142 -1.57424 0 0 -6.57473 -5.28545 -10.1654 -5.85149 0.04 
1022 1 1 0.0123842 0.289272 -0.963858 0 0 0 -0.247557 1.38717 0.666378 -21.4414 5.4504 173.334 -15.1791 -0.746499 1.03944 0.04 
1252 1 1 0.136679 0.324619 -0.932875 0 0 0 -0.442113 0.961195 0.0641359 0 0 -6.57473 -11.7193 -2.29664 1.52445 0.04 
1376 1 1 0.25181 0.328691 -0.951142 0 0 0 -0.114655 1.31294 1.80637 46.9252 -79.2741 -12.8499 -2.04745 2.20365 0.742123 0.04 
1186 1 1 0.71682 0.295699 -0.948513 0 0 0 -1.14366 0.423604 -0.585943 0 0 -6.57473 -14.847 10.8628 -4.72115 0.04 
148 1 1 0.941149 0.288837 -0.960216 0 0 0 0.172919 0.639648 -0.80891 -3.95607 -3.28044 21.0316 -17.2285 2.94391 2.59037 0.04 
1140 1 1 -0.731698 0.402047 -0.960009 0 0 0 -0.0712102 0.987646 0.255467 0.0732566 -0.119443 -9.3771 -21.103 0.422418 14.911 0.04 
992 1 1 -0.47319 0.365411 -0.961606 0 0 0 -0.316787 1.67122 -0.351413 0.962088 -4.60241 87.4631 -15.7278 -2.45722 -2.75889 0.04 
1058 1 1 -0.307679 0.40766 -0.947646 0 0 0 2.19445 1.58586 -0.0898353 90.1845 -58.034 17.0331 -9.03354 -13.493 10.3436 0.04 
1266 1 1 -0.0307408 0.364165 -0.962397 0 0 0 0.0475375 -0.00145306 1.04934 4.96913 3.36218 113.419 -14.9017 23.3064 -6.60782 0.04 
186 1 1 0.214341 0.396626 -0.94894 0 0 0 0.582333 1.06878 -0.0952814 -233.45 29.9351 50.8397 -14.7699 -4.80463 11.1102 0.04 
941 1 1 0.379461 0.395213 -0.94274 0 0 0 0.481899 1.43164 0.427745 0 0 -6.57473 7.91366 3.55399 -16.6357 0.04 
1131 1 1 -0.900782 0.431604 -0.954261 0 0 0 0.274333 0.290032 0.506008 0 0 -6.57473 -22.0418 0.54782 -10.254 0.04 
389 1 1 -0.792019 0.466948 -0.942648 0 0 0 -0.297934 2.08512 1.52751 0 0 -6.57473 -11.7545 8.03878 -13.8367 0.04 
90 1 1 -0.3723 0.447094 -0.96084 0 0 0 0.733977 0.950689 0.181537 -92.1525 57.0048 14.2356 -7.4747 -12.6382 1.64792 0.04 
721 1 1 -0.213163 0.416905 -0.94639 0 0 0 0.167572 -0.101186 -0.478175 0 0 -6.57473 -11.8216 -8.32957 4.12577 0.04 
809 1 1 -0.0648098 0.448302 -0.956977 0 0 0 0.219558 1.99095 -0.630626 0 0 -6.57473 -2.55756 15.3795 9.65463 0.04 
1153 1 1 0.13634 0.457865 -0.956566 0 0 0 -0.285801 2.6999 -0.839265 0 0 -6.57473 3.89776 12.898 -1.34497 0.04 
1001 1 1 0.285164 0.413539 -0.964842 0 0 0 1.15941 1.11539 1.40511 174.528 45.5547 193.867 -21.3962 3.70822 20.9194 0.04 
276 1 1 0.688484 0.470305 -0.963602 0 0 0 0.552139 0.819757 -0.85448 13.5481 -26.2794 207.036 -11.1963 2.1802 -10.3004 0.04 