ITEM: TIMESTEP
38600
ITEM: NUMBER OF ATOMS
1500
ITEM: BOX BOUNDS ff ff ff
-1 1
-1 1
-1 1
ITEM: ATOMS id type type x y z ix iy iz vx vy vz fx fy fz omegax omegay omegaz radius 
137 1 1 -0.961374 -0.956175 -0.96006 0 0 0 -0.181295 -0.0649067 0.00861186 58.5774 -3.60214 -0.324845 -0.645714 -0.560102 -1.65152 0.04 
5 1 1 -0.881974 -0.957334 -0.960311 0 0 0 -0.0213892 -0.294712 0.0825424 -30.5434 5.37093 9.0491 -0.272154 1.14473 -2.57393 0.04 
239 1 1 -0.803416 -0.960043 -0.960537 0 0 0 -0.0132444 0.0352717 0.0566758 -17.933 -6.15968 -23.7461 -0.146945 -0.258882 3.39755 0.04 
415 1 1 -0.724739 -0.959917 -0.959155 0 0 0 -0.00222504 0.0211465 -0.190987 48.1053 0.567504 -3.37203 -0.0966567 -1.86208 -1.99205 0.04 
105 1 1 -0.644302 -0.953722 -0.959521 0 0 0 -0.359477 -0.28332 -0.161757 0 0 -6.57473 -1.19199 1.42885 -3.75741 0.04 
138 1 1 -0.553768 -0.958512 -0.956205 0 0 0 -0.23767 0.0176144 -0.203002 8.99771 -16.8386 -5.60271 0.395777 -0.117563 -0.13782 0.04 
323 1 1 -0.457931 -0.960926 -0.958826 0 0 0 -0.224981 -0.190082 0.142895 9.31127 43.9209 -8.71337 -1.93921 2.68086 -0.900046 0.04 
130 1 1 -0.373701 -0.959079 -0.961355 0 0 0 0.536978 -0.0389886 0.0768597 -26.4751 -23.1813 38.7636 0.404349 10.0056 -0.993965 0.04 
502 1 1 -0.293076 -0.956991 -0.96008 0 0 0 -0.0835583 -0.0248681 -0.0243368 1.76806 -12.8696 -44.9085 -1.0236 0.477947 1.46646 0.04 
494 1 1 -0.205193 -0.960109 -0.956897 0 0 0 -0.139722 -0.261924 -0.138291 0.443234 9.46328 -6.40911 -0.771892 0.629905 -3.66978 0.04 
448 1 1 -0.124533 -0.960279 -0.960414 0 0 0 -0.0374461 -0.0204095 -0.0569986 -2.35048 14.093 3.5944 0.0577759 1.00358 0.117883 0.04 
147 1 1 -0.0404743 -0.95966 -0.960376 0 0 0 0.370007 0.0813575 0.131173 9.06647 -20.1265 3.94607 -0.835394 0.5785 -0.17774 0.04 
218 1 1 0.0396292 -0.95398 -0.959161 0 0 0 0.0792876 -0.00112663 0.228029 0 0 -6.57473 -0.0447751 2.47564 -0.631079 0.04 
655 1 1 0.15201 -0.957155 -0.958178 0 0 0 -0.130527 0.114088 -0.0135734 0 0 -6.57473 -1.41718 -2.50944 2.0782 0.04 
339 1 1 0.232568 -0.955546 -0.960193 0 0 0 -0.169673 -0.199916 -0.276903 0.394272 0.599819 7.78123 -3.6868 1.46456 -5.7773 0.04 
341 1 1 0.361149 -0.957697 -0.962059 0 0 0 0.222821 0.157059 -0.452629 -4.89539 -3.47686 113.956 -2.8778 7.62362 -2.3238 0.04 
203 1 1 0.44075 -0.95629 -0.958016 0 0 0 0.297067 0.260789 -0.212263 9.78437 -0.0522424 -6.51225 1.50071 -0.263422 -2.21191 0.04 
1019 1 1 0.534777 -0.95122 -0.960569 0 0 0 -0.110624 -0.253301 0.245297 0.41808 1.36312 21.9411 3.67527 -1.95564 1.40461 0.04 
821 1 1 0.62735 -0.960637 -0.958616 0 0 0 -0.107006 -0.148594 -0.414435 1.02939 37.4353 -5.01144 -3.41423 8.13875 -1.91157 0.04 
636 1 1 0.712296 -0.959239 -0.957579 0 0 0 0.189738 -0.282402 0.000376565 -129.1 -7.91884 0.0342753 -1.13659 -3.19887 -0.781093 0.04 
729 1 1 0.788581 -0.959659 -0.958243 0 0 0 0.833767 -0.0803395 0.0125573 131.611 -5.11638 -12.6265 0.723095 0.845531 4.3803 0.04 
503 1 1 0.879629 -0.95473 -0.96018 0 0 0 0.0039162 -0.219968 -0.242946 -4.50455 0.267773 -1.06295 1.28868 1.16283 -2.53351 0.04 
850 1 1 0.959666 -0.947779 -0.960139 0 0 0 0.125315 -0.0128783 -0.0800049 0.523991 -0.0130749 0.627503 0.864312 0.707955 1.54589 0.04 
379 1 1 -0.718756 -0.879558 -0.960082 0 0 0 -0.0621202 0.0771267 0.296097 0.033298 -0.0127641 -5.86151 -1.87214 -1.39365 -2.41558 0.04 
380 1 1 -0.58782 -0.886764 -0.959037 0 0 0 -0.169647 0.112668 -0.189553 20.9871 -27.1955 -38.8258 1.17775 -2.33422 -0.525249 0.04 
52 1 1 -0.503842 -0.895887 -0.960226 0 0 0 -0.228479 0.0271359 -0.345148 -8.16243 -47.4286 -40.0036 2.82819 3.82427 -0.235799 0.04 
480 1 1 -0.418943 -0.887297 -0.959677 0 0 0 0.100131 -0.0111867 0.0744216 0 0 -6.57473 0.280615 2.51433 2.14302 0.04 
647 1 1 -0.24784 -0.886308 -0.950878 0 0 0 0.342173 0.304681 -0.575527 2.19281 -7.13419 -8.19349 2.26293 1.8027 -2.82693 0.04 
700 1 1 -0.154594 -0.884671 -0.959848 0 0 0 -0.173512 -0.0865563 -0.36049 29.665 -28.8992 -36.8607 -0.0297155 5.08512 1.86856 0.04 
784 1 1 0.10159 -0.883318 -0.951879 0 0 0 -0.0353814 -0.207017 -0.305065 -29.5696 7.23203 -31.6213 -1.35562 -3.3019 5.31006 0.04 
211 1 1 0.209321 -0.865218 -0.958134 0 0 0 0.230924 0.228297 0.158822 -12.9304 4.05972 -22.1882 -0.543016 -1.41808 -2.50889 0.04 
19 1 1 0.30202 -0.903435 -0.960524 0 0 0 0.0307106 -0.176576 0.253462 31.6397 -10.4505 -28.3973 2.07679 -1.72047 3.58115 0.04 
159 1 1 0.411086 -0.865731 -0.952141 0 0 0 0.169451 -0.0413139 -0.341281 0 0 -6.57473 0.261346 -5.70558 1.01106 0.04 
664 1 1 0.495686 -0.871698 -0.958878 0 0 0 -0.0489877 -0.348603 0.701098 -36.909 -15.7278 -40.5788 1.9333 -1.87835 -4.21886 0.04 
50 1 1 0.700501 -0.880535 -0.958708 0 0 0 0.665354 0.032314 0.326808 -88.659 12.7616 -8.09926 0.689837 -0.347793 1.80823 0.04 
742 1 1 0.778319 -0.879485 -0.96164 0 0 0 -0.456436 0.2457 -0.409739 54.4997 -1.94217 26.7689 0.424141 0.977412 -0.0280884 0.04 
554 1 1 0.862031 -0.869838 -0.960272 0 0 0 0.126155 0.0413528 -0.059639 30.9056 5.8606 -36.3678 -1.95693 -2.67388 0.538806 0.04 
918 1 1 -0.960131 -0.853388 -0.957402 0 0 0 -0.0508906 0.0399478 -0.502996 -7.96146 -3.27784 -4.85638 -3.67379 -2.79923 2.45762 0.04 
446 1 1 -0.882418 -0.836561 -0.959927 0 0 0 -0.0658247 0.233195 -0.033313 -15.1846 10.7899 -42.7445 -5.04322 -1.61847 1.08548 0.04 
894 1 1 -0.794097 -0.84083 -0.960562 0 0 0 0.031423 0.590119 0.0755309 -0.270779 -1.49136 23.7401 -1.10231 -1.70639 -0.235189 0.04 
290 1 1 -0.647145 -0.834671 -0.960971 0 0 0 -0.226616 0.0835441 0.00954435 -24.3435 25.7429 46.2505 -0.0281433 5.93987 -2.12679 0.04 
1127 1 1 -0.568496 -0.801273 -0.96098 0 0 0 -0.117474 0.0438203 0.0974237 -62.8814 -7.37279 -4.88204 -1.90324 4.23026 0.645452 0.04 
241 1 1 -0.491162 -0.818001 -0.960637 0 0 0 -0.0980219 -0.0079485 -0.0425664 36.2025 14.3555 -56.8126 2.92457 -1.27766 -1.71934 0.04 
511 1 1 -0.40274 -0.806472 -0.960211 0 0 0 -0.0958746 -0.00773778 0.0587109 0.503624 0.222771 4.43917 -0.470785 -0.900639 -1.85008 0.04 
322 1 1 -0.319656 -0.853119 -0.960975 0 0 0 0.00211698 0.358018 0.318065 -9.67568 -2.15648 42.5712 -2.39727 3.82356 0.44643 0.04 
873 1 1 -0.256061 -0.804677 -0.961003 0 0 0 -0.309607 0.0486638 0.180257 -12.8611 -7.80751 39.2097 -0.333453 1.52042 -3.85965 0.04 
385 1 1 -0.103608 -0.816515 -0.9598 0 0 0 -0.268289 0.337626 -0.0330079 0 0 -6.57473 -0.951644 1.93212 -5.01927 0.04 
204 1 1 -0.0217325 -0.841624 -0.959812 0 0 0 0.285302 -0.00858826 -0.115791 14.3073 14.3157 -12.3641 -1.70208 -1.5472 -0.677811 0.04 
1122 1 1 0.112068 -0.802683 -0.960625 0 0 0 -0.16016 0.271099 -0.127647 -36.4301 -9.31293 28.8281 -1.30383 1.49829 -4.57589 0.04 
967 1 1 0.352036 -0.796554 -0.960876 0 0 0 -0.169029 0.200321 -0.221866 19.5138 -3.15433 45.2355 -4.56821 0.74911 2.01313 0.04 
396 1 1 0.619444 -0.858393 -0.954546 0 0 0 0.567518 -0.153845 0.49234 0 0 -6.57473 3.24408 4.77638 -3.26919 0.04 
972 1 1 0.953209 -0.86232 -0.961222 0 0 0 0.590689 0.140175 -0.124119 -3.43975 -0.564851 63.1416 -0.773556 -1.96341 0.255489 0.04 
488 1 1 -0.95784 -0.771502 -0.960195 0 0 0 -0.414604 0.122244 0.094897 -11.0519 -2.84805 3.66188 -3.38713 -2.5536 3.3296 0.04 
532 1 1 -0.8801 -0.754532 -0.961038 0 0 0 0.0980211 0.141219 0.381624 -23.8283 1.72142 43.4833 -2.76389 0.649324 -0.883206 0.04 
826 1 1 -0.801089 -0.75038 -0.958812 0 0 0 -0.11816 0.410015 -0.0792883 54.6207 25.2948 -33.8068 -2.63872 0.227834 0.0490843 0.04 
960 1 1 -0.718762 -0.796243 -0.960589 0 0 0 -0.329906 -0.290916 0.223679 23.1561 -2.82635 -8.21393 -1.41446 2.00995 3.806 0.04 
375 1 1 -0.506082 -0.73725 -0.957789 0 0 0 0.21093 -0.17091 0.246071 -43.7677 -37.2027 -6.98452 2.1943 -4.11276 -1.11382 0.04 
631 1 1 -0.330578 -0.770899 -0.959968 0 0 0 0.0841139 0.165881 -0.232196 8.23509 -31.3033 -48.436 1.19112 -1.33048 1.98375 0.04 
962 1 1 -0.18167 -0.776834 -0.960223 0 0 0 -0.112099 0.031029 -0.0659282 2.02749 3.68134 -38.3352 -2.20142 -3.44572 5.28661 0.04 
950 1 1 -0.044455 -0.760422 -0.959884 0 0 0 0.0557007 0.161135 -0.181006 -26.2447 5.36977 -60.5561 -6.91707 -0.956246 3.49768 0.04 
581 1 1 0.0409205 -0.76576 -0.960732 0 0 0 -0.0264439 -0.281868 0.131753 -0.311789 1.92789 32.4841 -6.26876 -2.83136 3.9562 0.04 
773 1 1 0.188461 -0.782798 -0.959991 0 0 0 -0.0543396 0.0878614 -0.225289 64.5558 -10.5039 -38.4784 0.186978 -1.68992 -0.690345 0.04 
725 1 1 0.273586 -0.78393 -0.957632 0 0 0 -0.218366 0.0521718 0.137549 -14.8907 -3.80829 -10.3776 -4.97904 -3.20658 -0.409867 0.04 
177 1 1 0.600166 -0.767819 -0.95998 0 0 0 0.211951 0.261033 0.00844528 4.78439 -1.67729 -11.7044 -4.26898 3.40187 2.5523 0.04 
880 1 1 0.677813 -0.788477 -0.959869 0 0 0 0.473688 0.126171 0.0528201 0 0 -6.57473 -0.827362 -0.0199164 -4.572 0.04 
543 1 1 0.748912 -0.745338 -0.952741 0 0 0 0.668275 -0.0302055 -0.506616 0 0 -6.57473 -5.97049 1.81162 3.5565 0.04 
439 1 1 0.814371 -0.794321 -0.958919 0 0 0 -0.231529 0.0196596 0.210147 0 0 -6.57473 -3.86138 4.57991 4.64039 0.04 
553 1 1 0.862051 -0.725314 -0.961099 0 0 0 0.0203297 0.0834496 0.190391 -2.93852 -0.0419438 52.2017 -2.07146 -2.67796 -1.34688 0.04 
987 1 1 0.961439 -0.770564 -0.956958 0 0 0 0.0414104 -0.12297 -0.126297 -75.1632 -35.5879 -7.98001 -4.27497 -2.41836 -2.21321 0.04 
990 1 1 -0.857391 -0.671048 -0.96257 0 0 0 0.0695795 0.0765907 0.156154 -6.1066 3.54039 134.599 -1.94354 1.86644 0.0479893 0.04 
565 1 1 -0.742913 -0.695142 -0.949963 0 0 0 -0.220847 0.513873 -0.350041 -24.0458 8.90474 -2.76557 -6.7512 3.19305 -4.57609 0.04 
567 1 1 -0.670362 -0.725758 -0.959801 0 0 0 -0.696574 0.0909622 -0.0677394 24.0458 -8.90474 -10.3839 0.158502 0.370921 4.14062 0.04 
925 1 1 -0.594256 -0.708512 -0.942161 0 0 0 -0.395186 0.215533 -0.326796 -19.8536 -33.9921 -2.7068 3.2276 -0.787235 1.62541 0.04 
709 1 1 -0.428746 -0.723459 -0.958398 0 0 0 0.215244 -0.265476 -0.00394656 36.0353 15.8799 -20.6428 -3.19967 -3.79723 2.35303 0.04 
382 1 1 -0.349767 -0.693116 -0.961177 0 0 0 0.440646 -0.851422 -0.135538 -17.3071 6.93855 21.6848 2.51947 3.68724 6.35056 0.04 
883 1 1 -0.239153 -0.718397 -0.960135 0 0 0 0.596932 0.374864 0.0161136 36.8501 -1.54477 -30.4643 0.786214 3.26876 -1.95484 0.04 
1066 1 1 -0.15363 -0.691874 -0.961008 0 0 0 0.374627 0.692589 -0.0806276 -2.91206 -5.30982 47.0259 -0.896327 -0.937418 -6.67285 0.04 
143 1 1 -0.017517 -0.675058 -0.960072 0 0 0 -0.0392767 0.256618 -0.272182 -12.0916 -26.2933 -47.7559 -2.80075 3.19248 4.75813 0.04 
1346 1 1 0.14736 -0.693165 -0.95966 0 0 0 -0.236547 0.635736 0.316564 0.058924 3.25105 -10.2111 -3.07127 -4.21344 5.83862 0.04 
867 1 1 0.231384 -0.666481 -0.960511 0 0 0 -0.474131 0.474824 -0.480325 -89.9252 -13.8573 -52.1369 -0.935444 -8.62438 3.76782 0.04 
1052 1 1 0.298858 -0.708047 -0.95698 0 0 0 -0.0646597 -0.230777 0.106918 75.1076 -121.727 -158.469 -9.54516 -11.2672 5.03983 0.04 
1000 1 1 0.386514 -0.722207 -0.959464 0 0 0 -0.166837 0.464854 -0.127628 3.6967 2.01593 -25.5329 -2.90601 -3.34516 -2.63999 0.04 
576 1 1 0.490073 -0.706339 -0.964514 0 0 0 -0.630393 0.104991 -1.17045 10.7414 -11.8802 220.267 -2.59191 -2.1309 4.35571 0.04 
408 1 1 0.568567 -0.665964 -0.951367 0 0 0 -0.0369758 0.125034 0.0715235 -64.8994 33.8699 -76.2441 -5.15909 2.68714 -6.36014 0.04 
1111 1 1 0.661328 -0.674819 -0.962209 0 0 0 0.01213 0.118012 -0.427789 2.19581 7.56278 113.646 -3.50081 -0.899831 -0.558275 0.04 
58 1 1 0.789922 -0.676614 -0.960334 0 0 0 0.247721 0.082795 0.432701 8.09623 -3.09235 -31.3791 -5.39109 -1.03731 3.73916 0.04 
252 1 1 0.959597 -0.691761 -0.962183 0 0 0 0.443522 0.160312 0.157958 7.76274 23.1142 72.2921 1.88625 1.58792 1.57666 0.04 
670 1 1 -0.936524 -0.661524 -0.953668 0 0 0 0.132821 0.3137 0.197078 16.2527 43.6935 -66.3224 -1.84682 4.71692 -5.19847 0.04 
1142 1 1 -0.789178 -0.628086 -0.962783 0 0 0 0.341965 0.116829 0.357861 7.55069 -55.956 132.096 -2.66563 2.2293 -1.58305 0.04 
833 1 1 -0.682448 -0.619724 -0.957301 0 0 0 -0.369459 0.101538 -0.437214 -37.8452 5.06355 -5.27821 -1.35817 -5.31109 -1.83292 0.04 
435 1 1 -0.603958 -0.626314 -0.960659 0 0 0 0.263273 0.268293 -0.323304 -3.02545 -12.8187 -8.65141 -3.20615 0.453262 -1.30961 0.04 
893 1 1 -0.532788 -0.662794 -0.961017 0 0 0 -0.249841 -0.0102106 0.567748 -42.6604 48.3413 -14.1064 2.83195 0.627017 -0.0245698 0.04 
344 1 1 -0.410562 -0.642638 -0.960099 0 0 0 -0.0698935 -0.554239 -0.0219441 156.954 82.7237 -119.061 -3.19529 1.05712 5.42241 0.04 
1124 1 1 -0.280095 -0.638831 -0.959648 0 0 0 0.0968743 0.229383 -0.370188 0 0 -6.57473 -4.2691 -1.72723 -1.18328 0.04 
868 1 1 -0.173717 -0.610437 -0.958806 0 0 0 0.335137 0.349501 -0.194224 -11.8084 8.90393 -22.7248 -2.7462 -2.11167 -1.42034 0.04 
1271 1 1 -0.0842337 -0.624697 -0.958015 0 0 0 0.218111 0.698829 -0.803454 -18.4567 -67.9941 -5.54377 -0.137791 0.667268 -3.45789 0.04 
1030 1 1 0.0969933 -0.624658 -0.95735 0 0 0 0.42619 0.156505 0.133893 0 0 -6.57473 -2.67685 -5.4472 -7.37945 0.04 
772 1 1 0.338403 -0.61942 -0.959797 0 0 0 -0.343355 0.146823 -0.100086 0 0 -6.57473 -3.56396 1.79335 2.65347 0.04 
792 1 1 0.435453 -0.630525 -0.956974 0 0 0 0.420774 0.832677 0.313057 0 0 -6.57473 -10.5441 7.60211 4.56158 0.04 
814 1 1 0.700917 -0.599885 -0.956015 0 0 0 0.0315073 -0.0124043 -0.0341611 0 0 -6.57473 -5.90537 0.133945 2.5318 0.04 
840 1 1 0.788059 -0.59248 -0.962431 0 0 0 0.10802 0.465935 0.209222 -27.0211 -50.4313 126.221 -8.70308 -0.668011 -4.19892 0.04 
1107 1 1 0.8849 -0.649325 -0.945791 0 0 0 -0.212724 0.00922121 -0.283637 -20.3924 -31.1554 -43.5199 -3.52802 -0.197813 -6.05753 0.04 
771 1 1 0.961204 -0.612637 -0.958626 0 0 0 -0.172309 0.419989 0.0491906 -63.2635 23.5139 -4.47532 6.87989 1.47127 -0.569414 0.04 
1055 1 1 -0.949432 -0.582299 -0.956416 0 0 0 0.295549 -0.187981 -0.2078 0 0 -6.57473 -6.70579 2.8502 4.75582 0.04 
739 1 1 -0.855281 -0.585916 -0.957003 0 0 0 -0.567733 0.160813 0.0975044 -2.08737 -40.5283 0.189645 2.72921 2.38022 1.35774 0.04 
1246 1 1 -0.745706 -0.562052 -0.9624 0 0 0 -0.608067 -0.307588 0.511795 28.3974 37.8968 119.214 -3.03739 -3.84699 8.26136 0.04 
230 1 1 -0.565985 -0.554338 -0.961831 0 0 0 0.929564 0.270313 -0.383592 -5.27808 -0.870244 100.412 -2.47229 -3.16042 -5.64837 0.04 
857 1 1 -0.485664 -0.596144 -0.960706 0 0 0 0.333414 -0.284534 -0.250026 12.8466 -26.6615 -2.08911 -0.097097 1.25421 -0.252942 0.04 
978 1 1 -0.326866 -0.558387 -0.961493 0 0 0 -0.168252 0.0773549 -0.0439382 -0.579504 4.14728 77.1768 -5.57605 -4.78754 -2.71036 0.04 
168 1 1 -0.243584 -0.56455 -0.96208 0 0 0 1.30538 -0.174638 -0.193192 -4.86586 3.3713 111.818 -12.5865 8.86278 -4.23395 0.04 
201 1 1 -0.0604912 -0.550424 -0.961427 0 0 0 -0.00659262 0.54562 0.0487401 22.6844 65.6599 65.5702 -4.42884 -1.61734 1.16216 0.04 
1249 1 1 0.0265724 -0.548105 -0.9579 0 0 0 -0.184657 0.664364 -0.239595 -79.1025 -103.127 4.09076 -6.64288 5.97379 0.9186 0.04 
404 1 1 0.15311 -0.560487 -0.956711 0 0 0 -0.0190108 0.491333 0.0299543 0 0 -6.57473 -6.03706 -1.8791 -2.54791 0.04 
315 1 1 0.23467 -0.579413 -0.959546 0 0 0 0.06207 0.702563 0.0508866 0 0 -6.57473 -4.65329 0.904453 -3.69453 0.04 
780 1 1 0.367066 -0.52528 -0.961619 0 0 0 0.727636 0.352228 0.113345 -4.03105 -1.85426 82.1668 -2.97176 5.48849 0.299558 0.04 
981 1 1 0.564296 -0.571842 -0.958986 0 0 0 0.536793 0.876393 -0.121533 51.4056 84.4433 -156.259 -4.88741 -3.33755 -0.692809 0.04 
1047 1 1 0.641694 -0.544149 -0.961264 0 0 0 0.414103 0.602777 0.147768 0.352492 -3.6306 57.8381 -12.9688 8.24939 3.48893 0.04 
9 1 1 0.883767 -0.567267 -0.960459 0 0 0 -0.377258 -0.51032 0.205016 20.6402 -12.2751 15.9614 -1.03484 0.553887 0.190311 0.04 
326 1 1 -0.888147 -0.515315 -0.95827 0 0 0 -0.229033 0.800418 0.300422 -12.1791 61.2665 -20.6137 0.608517 0.012465 -7.5316 0.04 
1215 1 1 -0.80737 -0.498475 -0.932984 0 0 0 0.351097 0.17395 0.253215 -11.6214 7.83766 -73.9704 -5.86904 -1.11891 3.83254 0.04 
969 1 1 -0.666339 -0.509808 -0.95209 0 0 0 -0.828184 0.444092 0.279846 0 0 -6.57473 -1.41886 0.535841 2.53873 0.04 
116 1 1 -0.474905 -0.506225 -0.96025 0 0 0 -0.176888 0.0749242 0.0590568 -9.01672 7.8816 7.7686 -4.1399 -5.31722 3.46214 0.04 
1205 1 1 -0.366675 -0.47899 -0.959326 0 0 0 -0.274285 0.286295 0.562707 0 0 -6.57473 -2.62848 -3.84296 7.81609 0.04 
710 1 1 -0.281197 -0.474337 -0.941615 0 0 0 0.398266 0.312446 0.0278526 120.878 -7.43954 -173.337 -8.47559 -7.16801 0.330454 0.04 
1451 1 1 -0.183664 -0.509166 -0.959728 0 0 0 0.0713418 0.751732 0.0707553 0 0 -6.57473 -8.27704 -0.627531 1.67047 0.04 
1378 1 1 0.00213368 -0.472505 -0.958714 0 0 0 0.435259 -0.379424 0.451431 -37.7898 -17.0183 -9.23724 -2.09825 9.94968 -4.52983 0.04 
144 1 1 0.0837123 -0.496641 -0.960416 0 0 0 -0.676054 0.464762 0.722501 88.0114 75.0696 -1.68233 0.55099 -20.3374 -5.33326 0.04 
1216 1 1 0.244489 -0.499055 -0.955941 0 0 0 -0.645866 -0.266792 -0.577878 0 0 -6.57473 -4.97613 -2.4093 3.23946 0.04 
220 1 1 0.450074 -0.512981 -0.957385 0 0 0 -0.286758 0.236564 -0.485806 -21.8988 -17.0233 -4.09712 1.19362 -4.16626 -6.21721 0.04 
309 1 1 0.512924 -0.46502 -0.960544 0 0 0 0.282239 0.527547 0.342028 20.9888 16.1048 16.8067 -0.489604 -5.58222 5.96002 0.04 
361 1 1 0.606244 -0.458737 -0.951546 0 0 0 0.0386799 0.10661 -0.224255 -78.2989 -31.9799 -3.33746 4.27578 2.19672 4.92948 0.04 
1474 1 1 0.733563 -0.515224 -0.950537 0 0 0 -0.208304 0.0249166 0.339696 -0.354111 -2.44872 -10.3355 -11.8557 -5.41868 -3.27346 0.04 
499 1 1 0.819802 -0.520444 -0.960378 0 0 0 -0.459496 0.0319802 -0.014523 -2.66358 82.3426 -19.997 -4.81272 0.832945 0.124057 0.04 
657 1 1 -0.9556 -0.410411 -0.957629 0 0 0 -0.0820268 0.619868 -0.0258054 -1.32975 -99.5436 -73.3046 -3.91026 0.56003 2.04056 0.04 
1279 1 1 -0.812299 -0.416146 -0.957441 0 0 0 0.111111 -0.0198442 -0.222613 6.9072 -7.03021 -5.99959 1.04834 0.173003 -0.294399 0.04 
76 1 1 -0.732004 -0.441428 -0.957889 0 0 0 -0.145157 0.624894 -0.281883 0 0 -6.57473 -1.85555 -1.0878 9.63856 0.04 
905 1 1 -0.60936 -0.442269 -0.956298 0 0 0 0.177409 0.603869 0.198566 0 0 -6.57473 -3.38411 3.02633 -9.76706 0.04 
1037 1 1 -0.519938 -0.439699 -0.94832 0 0 0 -0.4745 0.477493 -0.112768 0 0 -6.57473 -4.95793 -4.83704 -5.05865 0.04 
945 1 1 -0.38263 -0.392651 -0.961448 0 0 0 -0.0895621 1.08239 -0.19473 70.0129 13.0796 35.4466 -5.49185 7.74751 -5.31201 0.04 
1348 1 1 -0.0768877 -0.447666 -0.959471 0 0 0 0.481824 0.541906 0.0738115 0 0 -6.57473 -10.5088 6.77597 -2.09619 0.04 
807 1 1 0.0414611 -0.404613 -0.95814 0 0 0 -0.231757 0.590651 -0.378835 28.7067 44.4058 -5.63462 -2.19372 10.549 -2.04873 0.04 
1201 1 1 0.142688 -0.409578 -0.95957 0 0 0 -0.699546 0.637627 0.282878 -8.21396 -52.1449 -95.4753 -1.87266 2.70041 0.74555 0.04 
1069 1 1 0.384412 -0.430443 -0.952054 0 0 0 0.27764 0.677168 -0.0543435 0 0 -6.57473 -1.39805 -6.97974 2.0328 0.04 
806 1 1 0.67492 -0.422847 -0.955609 0 0 0 0.58173 1.12808 -0.00513301 83.7977 0.35388 -31.836 -8.91883 0.964832 -0.58157 0.04 
1163 1 1 0.76752 -0.433888 -0.958258 0 0 0 0.40707 0.74971 -0.409286 0 0 -6.57473 -6.12823 -3.252 -4.49264 0.04 
182 1 1 0.847595 -0.445373 -0.959683 0 0 0 0.190184 0.243262 -0.171103 24.2812 21.2703 -66.8025 -7.271 -2.1647 0.934317 0.04 
975 1 1 0.945616 -0.444493 -0.960327 0 0 0 0.0882663 0.207706 -0.0303675 -7.48395 -24.7898 -1.92778 -6.0248 -3.56356 -5.23843 0.04 
1239 1 1 -0.951169 -0.332004 -0.958094 0 0 0 -0.24002 0.311025 0.0335761 3.74055 55.7601 -8.99463 -0.715931 -3.34838 0.38487 0.04 
1056 1 1 -0.870727 -0.362032 -0.960754 0 0 0 -0.244654 -0.216551 -0.207036 -9.65363 11.1452 -75.7483 -6.72617 0.557127 -1.34883 0.04 
1251 1 1 -0.749427 -0.35766 -0.960272 0 0 0 0.186623 -0.140927 0.601474 29.1695 -66.3056 -3.60274 -0.425736 4.15129 5.69762 0.04 
283 1 1 -0.662137 -0.379113 -0.959741 0 0 0 0.167795 0.394709 0.544637 -12.9576 -43.9787 -13.9476 -7.56361 2.47557 2.04598 0.04 
1286 1 1 -0.549024 -0.353379 -0.961322 0 0 0 -0.0125714 0.320175 0.102006 2.60424 -2.51094 65.7768 -4.92079 3.02046 0.592455 0.04 
1250 1 1 -0.318151 -0.335412 -0.955841 0 0 0 0.050505 1.21063 -0.111646 0 0 -6.57473 -5.84484 10.4397 -5.87479 0.04 
1202 1 1 -0.244029 -0.368057 -0.959694 0 0 0 0.155865 0.904331 -0.1491 0 0 -6.57473 -8.95805 -1.64755 3.63986 0.04 
128 1 1 -0.148545 -0.3657 -0.961157 0 0 0 0.494402 0.384118 -0.269183 -3.11037 -1.36732 61.3781 -1.64516 -5.87898 -3.23719 0.04 
1276 1 1 -0.0348922 -0.317371 -0.943647 0 0 0 0.637541 0.715151 -0.0204149 18.5436 11.359 -97.0857 -8.61607 -2.81591 1.75199 0.04 
232 1 1 0.0911823 -0.341488 -0.948035 0 0 0 0.360403 -0.109689 -0.582883 44.5976 -3.78951 -42.1449 -1.73484 4.90956 0.075729 0.04 
752 1 1 0.218715 -0.378983 -0.933231 0 0 0 -1.05327 0.68865 -0.124584 32.7656 -6.23681 -27.0522 -8.81896 -2.70964 3.84746 0.04 
1139 1 1 0.312857 -0.36098 -0.955942 0 0 0 0.181164 0.529732 -0.573379 0 0 -6.57473 0.893503 -16.4863 -2.36496 0.04 
624 1 1 0.458093 -0.379971 -0.952399 0 0 0 1.3161 0.111939 -0.965136 180.853 -119.916 -289.306 -1.91549 8.29262 -1.82293 0.04 
342 1 1 0.592874 -0.37906 -0.960928 0 0 0 -0.386054 -0.587873 0.999651 -28.1323 -11.8118 30.5164 4.72251 4.86987 3.69524 0.04 
885 1 1 0.663894 -0.344543 -0.959025 0 0 0 -0.462507 1.10107 0.0943241 -58.8132 22.7952 -8.44485 -4.89515 0.585276 6.37103 0.04 
627 1 1 0.740029 -0.329947 -0.959773 0 0 0 0.0261242 0.810427 -0.379518 31.7064 -33.6788 -54.2218 -7.35273 2.83305 -4.11678 0.04 
1336 1 1 0.816621 -0.36976 -0.957568 0 0 0 -0.0869092 0.548365 1.17884 -15.6345 -20.4329 -31.929 -8.81767 0.954851 -10.0183 0.04 
1206 1 1 0.900349 -0.3446 -0.962171 0 0 0 0.438647 0.273128 0.158871 -22.9992 -74.2004 52.0883 -6.16661 -2.47357 -3.33168 0.04 
328 1 1 -0.864539 -0.283089 -0.959755 0 0 0 -0.319438 0.786766 -0.0316805 1.68515 22.25 -7.40685 2.94274 8.09971 5.80829 0.04 
1484 1 1 -0.782601 -0.287133 -0.958848 0 0 0 0.033005 0.159417 0.216671 -29.2049 66.6728 -2.16897 -6.04841 -2.97704 -7.91199 0.04 
1436 1 1 -0.642978 -0.303322 -0.949708 0 0 0 -0.351528 0.250632 -0.375778 -11.293 34.9273 -5.2227 -0.119025 8.95334 -3.59356 0.04 
1344 1 1 -0.245758 -0.2757 -0.962265 0 0 0 0.0776897 0.605469 0.119757 -5.63682 0.622504 103.692 -7.42244 -1.31651 0.315306 0.04 
1012 1 1 0.164571 -0.304165 -0.933156 0 0 0 0.319278 0.722238 -0.0654404 27.2296 140.152 -99.1377 -6.58882 -6.46266 -2.36993 0.04 
557 1 1 0.258608 -0.291239 -0.956065 0 0 0 -0.92883 0.279618 0.638181 -49.0286 6.76396 -60.5955 -2.14488 -4.42754 4.55896 0.04 
685 1 1 0.385351 -0.278852 -0.959058 0 0 0 0.151227 0.398738 -0.0584532 0 0 -6.57473 -10.2801 -1.59652 0.167978 0.04 
1078 1 1 0.50942 -0.309191 -0.963162 0 0 0 -0.134489 0.915475 -0.28708 -1.39248 -8.88802 173.354 3.68434 -7.80647 2.60258 0.04 
864 1 1 0.584116 -0.23172 -0.961137 0 0 0 -0.335072 1.04245 0.22461 -109.233 -96.3725 54.6377 -3.22859 -5.74465 -1.02067 0.04 
952 1 1 0.664588 -0.261706 -0.953723 0 0 0 -0.370735 0.718872 -0.793978 -67.5007 -23.8265 4.10877 5.13956 -1.03626 -1.86084 0.04 
539 1 1 0.837036 -0.248532 -0.960487 0 0 0 0.177322 1.48215 0.238232 34.0294 22.5049 -14.6399 -5.09568 0.903085 0.505681 0.04 
1130 1 1 0.955946 -0.290097 -0.95959 0 0 0 -0.14228 0.186624 -0.0108032 60.4828 53.671 -3.43841 -1.46457 -3.11467 -8.11539 0.04 
1324 1 1 -0.944934 -0.245575 -0.963358 0 0 0 0.144133 0.534977 0.111735 18.9473 23.9369 74.3934 5.14082 -2.30805 -1.55849 0.04 
660 1 1 -0.801462 -0.206995 -0.953874 0 0 0 -0.0166381 1.18853 0.0230812 0 0 -6.57473 1.85361 4.30138 4.66838 0.04 
1150 1 1 -0.629916 -0.222833 -0.953101 0 0 0 -0.163997 0.334089 0.0331424 0 0 -6.57473 -5.32729 4.21962 -0.598641 0.04 
1403 1 1 -0.508316 -0.208144 -0.953024 0 0 0 0.213212 0.322237 0.650259 -2.13737 -24.1851 -19.3858 5.48589 0.28593 -0.114476 0.04 
619 1 1 -0.374511 -0.205507 -0.959365 0 0 0 0.285002 0.235879 1.43873 23.496 22.3363 -73.4119 -4.44578 5.28962 3.27508 0.04 
668 1 1 -0.285086 -0.203779 -0.955876 0 0 0 0.154695 -0.069533 -0.134367 -24.6187 -66.9353 -75.9706 -8.20567 4.44432 7.41326 0.04 
1198 1 1 -0.170162 -0.224738 -0.958223 0 0 0 0.232715 1.38157 0.122432 0 0 -6.57473 -11.4979 4.96696 2.81207 0.04 
1304 1 1 -0.0778934 -0.232774 -0.951099 0 0 0 -0.00681079 1.50856 0.210989 77.2255 109.094 -55.5337 -9.93329 -7.811 9.87584 0.04 
1102 1 1 0.02382 -0.251569 -0.951043 0 0 0 -0.102513 -0.366821 -0.0617991 0 0 -6.57473 -7.74531 -7.04163 -1.43078 0.04 
1466 1 1 0.187385 -0.196599 -0.950581 0 0 0 -0.75692 0.310249 -0.218773 0 0 -6.57473 -6.8893 -9.31188 5.05987 0.04 
231 1 1 0.317612 -0.226482 -0.960743 0 0 0 -0.488351 0.363312 -0.683989 1.9723 -1.55728 43.685 -0.400948 -1.21935 15.4271 0.04 
1096 1 1 0.511095 -0.192964 -0.930156 0 0 0 0.473442 0.72284 0.00477023 0 0 -6.57473 -12.1261 2.17784 6.07433 0.04 
1189 1 1 0.737767 -0.235858 -0.961368 0 0 0 0.0319981 0.651466 0.394116 69.2293 20.7173 53.8907 -8.7344 4.4089 -3.14752 0.04 
1191 1 1 0.929761 -0.210262 -0.96062 0 0 0 0.806012 0.751619 -0.222028 -42.5755 -19.8057 -50.9209 -5.61948 4.98006 -4.11556 0.04 
837 1 1 -0.862402 -0.140772 -0.941045 0 0 0 0.981136 1.35259 0.14371 0 0 -6.57473 7.43352 2.47005 10.167 0.04 
1160 1 1 -0.702533 -0.167873 -0.96003 0 0 0 1.30523 0.641034 -0.524913 -0.416908 -0.0817008 1.92203 -10.0197 1.96492 -1.03819 0.04 
1208 1 1 -0.563642 -0.151286 -0.961389 0 0 0 -0.37033 0.766028 -0.0494326 -0.496991 20.8825 14.7977 -8.50005 1.00396 4.08038 0.04 
1235 1 1 -0.422908 -0.132858 -0.957823 0 0 0 0.357518 0.555061 -0.14741 0 0 -6.57473 -6.77658 -1.29974 -10.0623 0.04 
1095 1 1 -0.319362 -0.12733 -0.960865 0 0 0 1.14536 -0.525593 -0.224884 -1.96144 1.63662 44.5165 -5.67407 6.22484 7.69023 0.04 
1412 1 1 -0.232275 -0.153687 -0.929176 0 0 0 -0.186153 0.706186 0.438467 51.1973 -49.2064 55.0376 -9.97137 4.22083 -5.37922 0.04 
854 1 1 -0.137259 -0.125975 -0.963438 0 0 0 0.465983 0.909981 0.0562055 -4.82191 -8.23408 184.266 -11.7944 5.15934 2.5093 0.04 
1240 1 1 -0.0244879 -0.154782 -0.962206 0 0 0 -0.149376 1.21009 0.385751 -0.109228 -5.89695 111.385 -10.6503 -4.22208 -8.4414 0.04 
906 1 1 0.102538 -0.167182 -0.955231 0 0 0 -0.816182 0.359713 0.530181 0 0 -6.57473 -9.80214 -10.7878 -2.38279 0.04 
1126 1 1 0.280563 -0.138237 -0.948286 0 0 0 1.04479 1.08625 -1.24043 0 0 -6.57473 -0.517965 -16.1826 -9.54264 0.04 
1170 1 1 0.421937 -0.148185 -0.958655 0 0 0 -0.239244 0.213259 -0.0300111 23.3728 -18.3593 -14.9602 -3.87197 2.23362 7.97889 0.04 
671 1 1 0.642095 -0.182471 -0.957902 0 0 0 -0.556248 0.927882 -0.0448606 109.546 93.3661 -7.33416 -10.3807 2.25182 1.88249 0.04 
409 1 1 0.731041 -0.133424 -0.958102 0 0 0 0.423993 0.810042 0.386251 0 0 -6.57473 -8.76594 9.94753 -5.78327 0.04 
955 1 1 -0.821426 -0.0700113 -0.957963 0 0 0 0.971001 1.12706 -0.0630658 21.4221 23.9724 -108.176 1.1108 4.58484 5.2546 0.04 
1364 1 1 -0.703788 -0.0850389 -0.939909 0 0 0 0.0160682 -0.33346 -1.06785 -40.5968 -32.1624 -91.0362 -11.4178 4.07836 -0.217692 0.04 
1471 1 1 -0.62691 -0.0947508 -0.948903 0 0 0 0.259413 0.0582407 0.0382534 71.1492 -9.95508 -18.4441 -3.01797 -1.03988 4.43596 0.04 
983 1 1 -0.473408 -0.0660236 -0.944326 0 0 0 -0.00347869 0.925728 -1.10715 0 0 -6.57473 -13.4965 3.35256 -5.37797 0.04 
1196 1 1 -0.371468 -0.066872 -0.952843 0 0 0 -0.236719 0.35795 -0.63038 10.8909 -12.0973 -14.3354 -2.72402 -7.33072 -4.85997 0.04 
1236 1 1 -0.223108 -0.080079 -0.950228 0 0 0 -0.0823099 0.120544 0.733458 10.6567 104.979 -41.7206 6.85365 -2.90961 3.19499 0.04 
1253 1 1 -0.116435 -0.0507388 -0.938931 0 0 0 0.0559997 1.42102 -0.189208 36.9833 -79.8338 -24.3712 -5.12554 6.86759 -4.40027 0.04 
1434 1 1 0.263255 -0.0459232 -0.957286 0 0 0 0.373801 1.35424 0.143572 0 0 -6.57473 -12.1683 2.21671 -4.29166 0.04 
1172 1 1 0.364426 -0.0991231 -0.934729 0 0 0 0.917767 0.389769 0.265737 -23.3728 18.3593 1.81079 -4.83121 -2.35371 -4.95279 0.04 
1164 1 1 0.447575 -0.0649937 -0.955712 0 0 0 0.626011 0.419487 -0.106624 0 0 -6.57473 -2.64277 -6.53637 -1.79167 0.04 
1439 1 1 0.51458 -0.112108 -0.955486 0 0 0 0.486846 0.813164 -0.741456 0 0 -6.57473 13.917 -7.5328 -8.09496 0.04 
696 1 1 0.832233 -0.100714 -0.938147 0 0 0 -0.722875 0.526255 0.163927 3.12602 -0.938552 -38.361 1.58862 -1.70735 14.9268 0.04 
999 1 1 -0.79056 0.00924276 -0.964549 0 0 0 -0.147405 1.20051 0.44632 6.35565 -10.6305 241.137 -13.9801 6.77885 8.03564 0.04 
181 1 1 -0.669632 0.00409564 -0.957728 0 0 0 -0.318572 0.864448 0.673302 0 0 -6.57473 -4.63271 11.1841 -1.63086 0.04 
319 1 1 -0.554135 -0.0532394 -0.96014 0 0 0 -0.137013 0.440099 0.03704 0.189618 -0.314375 0.767939 -2.19027 1.89549 -3.80128 0.04 
961 1 1 -0.299336 -0.0301777 -0.93868 0 0 0 1.18297 0.286933 0.129451 0 0 -6.57473 -2.99482 -9.72731 4.02182 0.04 
732 1 1 -0.0384942 -0.038649 -0.959158 0 0 0 -0.0738782 0.945795 0.131725 0 0 -6.57473 -9.51947 -7.82143 -0.644775 0.04 
1464 1 1 0.120147 -0.0344724 -0.959637 0 0 0 0.171387 -0.0452636 0.102245 166.389 -157.972 -156.065 -2.11135 -10.1919 -3.13237 0.04 
791 1 1 0.654651 -0.0540448 -0.95103 0 0 0 0.448976 0.270337 0.0956594 0 0 -6.57473 -2.48315 -3.992 8.11122 0.04 
474 1 1 -0.928791 0.0257582 -0.954195 0 0 0 0.492637 -0.121598 0.0402459 0 0 -6.57473 -11.8685 5.50457 -6.35061 0.04 
938 1 1 -0.594239 0.0414447 -0.960296 0 0 0 -0.187507 0.534117 0.00666909 0.415164 -0.70636 9.81192 -10.3651 -2.91981 -2.5752 0.04 
899 1 1 -0.470355 0.0360912 -0.953633 0 0 0 0.467984 -0.602201 0.266188 -48.8604 47.8339 -40.1067 -9.1503 3.51163 -5.32061 0.04 
1351 1 1 -0.244688 0.0318129 -0.946829 0 0 0 0.17854 0.131305 -0.154693 18.6565 -20.97 -2.14755 5.79562 5.25145 3.52568 0.04 
1137 1 1 -0.069428 0.0470781 -0.958726 0 0 0 0.142927 1.16273 0.0986567 0 0 -6.57473 -11.6903 8.6434 2.99897 0.04 
1357 1 1 0.181492 0.0207628 -0.954302 0 0 0 0.114409 0.407806 0.407001 0 0 -6.57473 -18.9247 -4.75086 0.109221 0.04 
279 1 1 0.35323 0.0469741 -0.961989 0 0 0 0.844074 1.22972 -0.706068 -30.5233 17.7718 76.3372 -5.78409 3.87202 8.72681 0.04 
1476 1 1 0.511708 0.0771551 -0.96157 0 0 0 -0.329384 0.235998 0.103159 20.3653 -20.8492 11.7784 -3.19561 -3.26808 3.00146 0.04 
500 1 1 0.959703 0.0236462 -0.964008 0 0 0 0.993153 -0.235405 0.117505 -8.27293 7.38902 215.271 -3.91617 14.8175 -3.13944 0.04 
129 1 1 -0.946549 0.111296 -0.95944 0 0 0 -0.0764384 0.509007 0.639356 0 0 -6.57473 -3.44061 1.27429 12.1679 0.04 
924 1 1 -0.822443 0.0875899 -0.95485 0 0 0 0.162967 0.633145 0.0505889 0 0 -6.57473 -3.76681 0.085811 -2.90228 0.04 