ITEM: TIMESTEP
129600
ITEM: NUMBER OF ATOMS
1500
ITEM: BOX BOUNDS ff ff ff
-1 1
-1 1
-1 1
ITEM: ATOMS id type type x y z ix iy iz vx vy vz fx fy fz omegax omegay omegaz radius 
137 1 1 -0.96011 -0.960152 -0.960202 0 0 0 -1.15128e-07 -1.16618e-06 -6.21596e-07 -3.2225e-05 0.000244776 0.000147598 3.06314e-05 1.98429e-05 -3.1896e-05 0.04 
5 1 1 -0.830892 -0.960169 -0.960266 0 0 0 -2.00419e-06 -9.06701e-07 -1.08381e-06 0.000278695 0.000246435 0.000211149 3.67438e-06 -3.63438e-05 9.55596e-06 0.04 
239 1 1 -0.750973 -0.96014 -0.960255 0 0 0 -2.67011e-06 1.69963e-07 -6.7686e-07 0.000372956 0.000183065 8.03023e-05 -2.27317e-05 -3.37652e-05 2.90754e-05 0.04 
34 1 1 -0.671017 -0.960044 -0.960246 0 0 0 -2.56893e-06 2.10562e-06 6.4281e-07 0.000373755 3.84845e-05 6.07773e-05 -4.05682e-05 -5.69082e-05 4.35368e-05 0.04 
415 1 1 -0.591068 -0.960062 -0.960291 0 0 0 -1.90514e-06 1.83786e-06 2.16092e-06 0.000301273 4.36574e-05 -7.93457e-05 9.73006e-06 1.9242e-05 -1.64672e-05 0.04 
138 1 1 -0.510834 -0.960069 -0.960241 0 0 0 -1.19662e-06 2.26456e-06 2.38727e-06 0.000329282 3.05474e-05 -2.2047e-05 -3.93707e-05 1.74566e-05 -8.67102e-07 0.04 
323 1 1 -0.43029 -0.959877 -0.960154 0 0 0 6.84689e-07 -2.39406e-06 -8.46041e-07 0.00017778 -9.24525e-05 -4.28928e-05 5.65433e-05 -1.02552e-05 2.7867e-05 0.04 
130 1 1 -0.350318 -0.960038 -0.960251 0 0 0 1.44302e-06 -1.52922e-06 -1.59791e-06 0.000108017 -3.11328e-05 -3.63718e-05 -1.51448e-05 5.15861e-05 -1.06258e-05 0.04 
502 1 1 -0.270343 -0.960119 -0.960299 0 0 0 7.44514e-07 -1.49877e-06 -2.10532e-06 4.32675e-06 -0.000141551 -0.000226704 -1.3974e-05 1.46741e-06 4.71221e-06 0.04 
494 1 1 -0.174299 -0.960163 -0.960229 0 0 0 2.74591e-07 -3.80379e-07 -7.52415e-07 -0.000125704 -2.52548e-05 5.22909e-06 -9.87462e-06 1.11627e-05 -2.12821e-06 0.04 
448 1 1 -0.0943154 -0.960146 -0.960266 0 0 0 1.89484e-07 -4.89003e-07 -6.53046e-07 -7.45639e-05 2.68117e-05 0.000152497 1.88174e-06 -5.75761e-06 -4.45543e-07 0.04 
147 1 1 -0.0144648 -0.96016 -0.960215 0 0 0 1.99315e-07 -6.45114e-07 -4.34445e-07 7.8923e-06 -0.000111799 -4.13732e-05 -5.10272e-07 2.29444e-06 -5.16878e-07 0.04 
218 1 1 0.0655312 -0.960172 -0.960209 0 0 0 3.12692e-07 -6.61628e-07 -3.7593e-07 2.93201e-05 -0.000108102 -6.37112e-05 2.35466e-06 -1.06315e-06 -4.1108e-06 0.04 
339 1 1 0.145757 -0.960145 -0.960214 0 0 0 4.97485e-07 -4.50711e-07 1.54335e-07 6.61466e-05 -4.86767e-05 9.38027e-06 8.75981e-06 6.97852e-07 -2.53824e-06 0.04 
81 1 1 0.225734 -0.960094 -0.960177 0 0 0 3.23493e-07 -1.84271e-07 -1.2734e-07 6.36831e-05 1.14868e-05 -7.42344e-05 3.84882e-06 1.07728e-05 -3.93342e-06 0.04 
341 1 1 0.305651 -0.960069 -0.960157 0 0 0 -2.0099e-07 -1.01359e-06 -1.08969e-06 2.89661e-05 0.000203572 3.77373e-05 2.91542e-06 2.81106e-06 -1.0507e-05 0.04 
203 1 1 0.385622 -0.960082 -0.960219 0 0 0 2.03954e-07 -3.12203e-06 1.89515e-06 8.5959e-06 0.000264026 -2.55741e-05 6.90331e-05 -4.66964e-05 -3.67447e-05 0.04 
1019 1 1 0.473737 -0.960015 -0.96021 0 0 0 1.439e-06 1.2239e-06 -9.81742e-07 -1.56864e-05 3.75691e-05 7.45745e-05 -3.49151e-05 -3.78197e-05 -2.24965e-05 0.04 
821 1 1 0.553721 -0.960025 -0.960231 0 0 0 2.37678e-06 -1.88081e-07 2.23858e-06 -6.59996e-05 -4.62979e-06 -7.93218e-05 4.75026e-05 3.05012e-05 -4.23249e-05 0.04 
636 1 1 0.633692 -0.960458 -0.9602 0 0 0 1.79507e-06 -1.34471e-06 -5.13759e-06 -9.10796e-05 5.55892e-05 -9.93142e-05 -2.73695e-05 8.71958e-05 -2.19856e-05 0.04 
729 1 1 0.720239 -0.960012 -0.96016 0 0 0 5.0919e-07 -1.94886e-06 5.50316e-06 -3.69515e-05 -1.65843e-05 0.000168083 0.000113359 7.57438e-05 1.41178e-05 0.04 
503 1 1 0.800202 -0.960037 -0.960137 0 0 0 8.38816e-07 -7.40524e-07 2.03024e-07 -7.12749e-05 -2.61903e-05 3.74693e-05 7.71103e-06 3.85769e-05 -1.17899e-05 0.04 
424 1 1 0.880173 -0.96004 -0.96016 0 0 0 -3.45553e-07 5.53129e-07 -1.05051e-07 -4.65805e-05 5.77887e-05 5.55286e-05 -1.93415e-05 -2.0483e-05 3.80435e-05 0.04 
850 1 1 0.9601 -0.958945 -0.960223 0 0 0 -7.62271e-08 2.57221e-06 1.20442e-06 -2.97597e-05 0.000169209 7.87174e-05 -8.9858e-05 1.32828e-05 -4.12826e-05 0.04 
778 1 1 -0.959929 -0.880402 -0.960216 0 0 0 -4.41529e-07 6.93432e-07 6.76027e-07 9.47327e-06 4.27292e-06 -4.21174e-05 -2.03131e-05 -1.59932e-05 3.12467e-05 0.04 
918 1 1 -0.880185 -0.897208 -0.960224 0 0 0 -3.65071e-06 -1.69241e-06 -3.6549e-06 0.000388587 0.000550955 0.000287099 2.17852e-05 -0.000139761 2.20784e-05 0.04 
246 1 1 -0.791824 -0.890618 -0.960152 0 0 0 -1.44852e-06 -6.90537e-07 -9.28731e-07 0.000276651 0.00015951 0.000166893 4.88015e-05 3.29551e-05 1.79643e-05 0.04 
586 1 1 -0.71186 -0.890539 -0.960297 0 0 0 -2.60964e-06 4.73339e-07 -3.2601e-06 0.000449453 0.000152051 9.67594e-06 -2.89099e-05 -3.55424e-05 -2.02562e-06 0.04 
379 1 1 -0.630909 -0.890721 -0.960191 0 0 0 -4.04157e-06 2.98058e-06 -2.35987e-06 0.000629887 0.0002609 0.000170326 -0.000121934 -8.87751e-05 4.73124e-05 0.04 
105 1 1 -0.550902 -0.890948 -0.960215 0 0 0 -3.05087e-06 1.8759e-06 5.80506e-07 0.000559058 0.000175725 0.000149999 -3.08275e-05 -2.91894e-05 1.59035e-05 0.04 
289 1 1 -0.471001 -0.890716 -0.960249 0 0 0 -4.80627e-06 1.27026e-06 2.69209e-06 0.000860215 0.000233501 -0.00040467 1.14778e-05 -0.000101164 4.30275e-05 0.04 
345 1 1 -0.38861 -0.87002 -0.960118 0 0 0 -0.00161666 -0.00126345 1.8092e-08 -1.01567e-10 -7.93757e-11 1.53598e-05 0.0316328 -0.0404763 0.077917 0.04 
209 1 1 -0.310223 -0.890869 -0.960163 0 0 0 -3.16098e-06 -4.53785e-06 -4.6907e-07 -0.000119391 -0.000163203 9.14731e-06 0.000100004 -9.05821e-05 9.16757e-05 0.04 
647 1 1 -0.222237 -0.896276 -0.960225 0 0 0 -2.23649e-06 -1.6181e-06 -3.21286e-06 -4.06906e-06 -4.51207e-05 -0.000135659 6.98484e-07 -4.58052e-05 7.1943e-05 0.04 
700 1 1 -0.134298 -0.891095 -0.960196 0 0 0 -6.97696e-07 -1.46048e-06 1.9288e-07 -6.47951e-06 -8.40535e-05 0.00017599 3.29599e-05 -1.30678e-05 2.98028e-05 0.04 
616 1 1 -0.0544215 -0.890853 -0.960232 0 0 0 7.19366e-07 -1.04706e-06 -5.39043e-07 2.99529e-05 -0.000118245 4.62247e-05 5.22771e-06 1.32107e-05 -2.08903e-05 0.04 
87 1 1 0.0254597 -0.891074 -0.960203 0 0 0 8.48108e-07 -1.28417e-06 -2.74603e-07 4.7516e-05 -0.000186725 -1.15089e-07 2.15374e-05 8.0668e-06 -4.20672e-06 0.04 
655 1 1 0.105572 -0.891076 -0.960218 0 0 0 8.68794e-07 -8.71228e-07 1.14701e-07 6.35167e-05 -0.000117887 8.84031e-05 1.02459e-05 7.57626e-06 -7.20474e-06 0.04 
977 1 1 0.185659 -0.890926 -0.960202 0 0 0 6.41409e-07 -1.41213e-07 4.22349e-07 7.2427e-05 -1.45628e-05 9.94874e-05 -3.53019e-06 6.57904e-07 7.30472e-06 0.04 
19 1 1 0.265637 -0.890829 -0.960227 0 0 0 6.17685e-07 -3.96932e-07 3.81371e-09 4.1013e-05 -3.97788e-06 -0.00038233 3.46217e-06 2.19328e-05 -2.20315e-05 0.04 
443 1 1 0.345634 -0.890855 -0.960247 0 0 0 7.16225e-08 -2.33924e-06 -4.96514e-07 -9.90972e-05 0.000311855 -0.000691959 -4.9439e-06 4.5518e-06 2.21547e-06 0.04 
664 1 1 0.429599 -0.89332 -0.960215 0 0 0 4.58604e-07 -2.78909e-06 6.20966e-06 -0.000242647 0.000126487 -2.16992e-05 0.000121045 6.74275e-05 4.59003e-05 0.04 
74 1 1 0.59436 -0.891144 -0.960225 0 0 0 3.17821e-06 -3.08732e-07 2.04286e-06 -0.000245226 6.37681e-06 -0.000180575 -2.70161e-06 0.000155987 3.82382e-05 0.04 
50 1 1 0.674248 -0.892015 -0.960177 0 0 0 2.46369e-06 -3.4346e-06 -5.27284e-06 -0.000198426 5.28753e-05 -0.000135601 7.25082e-05 3.96559e-05 -7.00489e-05 0.04 
1 1 1 0.749841 -0.866831 -0.960242 0 0 0 2.04516e-06 -3.67005e-06 -3.58461e-06 -0.000190119 1.70291e-05 0.000125863 9.31889e-05 1.11604e-05 6.96883e-05 0.04 
812 1 1 0.878013 -0.880136 -0.960204 0 0 0 9.33215e-07 -1.1343e-06 -1.87018e-06 -0.000205125 -1.09298e-05 0.000194016 3.7125e-06 5.79318e-05 -4.97152e-05 0.04 
446 1 1 -0.960244 -0.800741 -0.960215 0 0 0 -1.69476e-06 6.58137e-07 1.88199e-07 0.000104409 0.000100636 7.30605e-06 -9.30913e-06 -3.14289e-05 5.73878e-06 0.04 
352 1 1 -0.840947 -0.82753 -0.960338 0 0 0 -2.50363e-06 -1.22022e-06 4.34567e-06 0.000191516 0.000678549 -0.000239256 7.57581e-05 -1.08337e-05 6.9238e-06 0.04 
894 1 1 -0.761751 -0.816673 -0.960285 0 0 0 -1.68111e-06 1.21078e-06 4.09747e-06 0.000227193 0.000285257 0.000752237 -3.09051e-05 -2.31385e-05 -5.79768e-06 0.04 
960 1 1 -0.681852 -0.816441 -0.960115 0 0 0 -1.68393e-06 1.8787e-06 -4.30341e-07 0.000326141 1.26989e-05 0.000299859 2.46161e-06 2.71552e-05 4.63393e-05 0.04 
380 1 1 -0.535213 -0.812504 -0.960157 0 0 0 -4.49649e-06 2.90888e-06 1.83388e-07 0.000548601 0.000215073 7.04985e-05 -4.32288e-05 -5.99328e-05 1.74743e-05 0.04 
720 1 1 -0.257532 -0.824582 -0.96029 0 0 0 -5.47072e-06 -4.56591e-06 -1.59843e-06 -0.000213619 -7.01447e-05 1.05351e-06 9.22716e-05 -0.000104339 8.54729e-06 0.04 
161 1 1 -0.175356 -0.82283 -0.960298 0 0 0 -1.96938e-06 -3.25063e-06 -9.75727e-07 -6.13004e-05 3.63637e-05 0.000376228 5.1706e-05 -7.02538e-05 9.84251e-06 0.04 
385 1 1 -0.095413 -0.82014 -0.960192 0 0 0 -1.18812e-07 -2.12253e-06 4.1702e-07 -0.000177417 4.35149e-05 0.00117425 2.11482e-05 1.77242e-05 1.57379e-05 0.04 
827 1 1 -0.0151056 -0.821238 -0.960264 0 0 0 9.84626e-07 -2.01083e-06 -1.74235e-06 -0.000188342 -1.70716e-05 0.000397427 2.49551e-05 2.52746e-05 4.40219e-05 0.04 
784 1 1 0.0652889 -0.822028 -0.960241 0 0 0 7.22295e-07 -8.9887e-07 5.17123e-07 -0.000163066 -0.000237981 0.000168062 2.06031e-05 1.15806e-05 2.11275e-05 0.04 
211 1 1 0.145419 -0.821876 -0.960214 0 0 0 5.08035e-07 -6.42607e-07 1.86896e-07 -8.0181e-05 -8.11591e-05 0.000159414 5.65003e-06 1.33936e-05 1.84927e-05 0.04 
121 1 1 0.225286 -0.821505 -0.960185 0 0 0 1.00122e-06 -4.031e-07 -1.56914e-06 -9.89296e-06 -7.96084e-06 0.000163574 3.45209e-05 2.63392e-05 -2.82638e-05 0.04 
354 1 1 0.302764 -0.802489 -0.960232 0 0 0 5.57897e-07 -1.70936e-06 -7.65378e-07 -0.000169387 -7.29238e-05 -0.000133991 1.74477e-05 4.50501e-06 5.56348e-06 0.04 
229 1 1 0.380706 -0.819076 -0.960368 0 0 0 4.73912e-07 -2.73305e-06 6.57627e-07 -0.000289393 0.000186531 -0.000261654 5.70484e-05 -2.02706e-05 -1.96499e-05 0.04 
369 1 1 0.456121 -0.822155 -0.935181 0 0 0 8.82605e-07 -3.32893e-06 6.46308e-06 -0.000454543 0.000132437 -0.00059487 -6.13238e-05 -7.37732e-05 -1.02533e-05 0.04 
396 1 1 0.51956 -0.863497 -0.960239 0 0 0 1.96726e-06 -1.87439e-06 6.7956e-06 -0.000367554 6.96121e-05 -0.000552335 5.37994e-05 3.02935e-05 -1.57739e-05 0.04 
866 1 1 0.594027 -0.811307 -0.960336 0 0 0 9.73511e-07 8.28435e-07 -1.14344e-06 -0.0001092 -3.41084e-05 0.000492613 6.87736e-05 -1.80247e-05 -0.000156613 0.04 
628 1 1 0.673821 -0.812298 -0.960205 0 0 0 9.6451e-07 -4.56493e-06 6.00128e-07 -0.000125455 0.000126025 0.00015197 7.10314e-05 1.60996e-06 9.96054e-05 0.04 
554 1 1 0.818679 -0.826524 -0.960283 0 0 0 8.08402e-07 -1.15006e-06 -8.46603e-07 -0.000161741 -1.20709e-05 -8.18457e-05 1.29345e-05 -1.59917e-05 2.20239e-05 0.04 
417 1 1 0.960154 -0.833965 -0.960253 0 0 0 -3.19682e-07 9.49683e-07 1.2806e-06 -8.03943e-05 -0.000179076 -0.000251614 -4.2917e-05 5.84084e-06 -2.323e-05 0.04 
282 1 1 -0.889436 -0.764116 -0.960201 0 0 0 -2.91281e-06 7.9861e-07 1.35319e-06 3.44554e-05 0.000409411 -0.000174315 -6.26229e-05 -4.73437e-05 -9.4493e-06 0.04 
492 1 1 -0.810312 -0.7532 -0.960206 0 0 0 -3.67147e-06 2.20998e-06 8.70749e-07 4.66953e-06 0.000894326 -3.28904e-05 -5.08375e-05 -4.96585e-05 6.83395e-05 0.04 
290 1 1 -0.609446 -0.782716 -0.960221 0 0 0 -2.89493e-06 3.76477e-06 -1.77093e-06 0.00033371 0.000329486 0.000424395 -3.23301e-05 -3.46824e-05 -6.14356e-05 0.04 
52 1 1 -0.453376 -0.788996 -0.960332 0 0 0 -5.11157e-06 8.36411e-07 7.46409e-07 0.000394032 0.000445997 0.000144554 -3.23857e-05 -7.82024e-05 9.17354e-05 0.04 
480 1 1 -0.37566 -0.770535 -0.960362 0 0 0 -4.49073e-06 2.71679e-07 4.54094e-06 0.000244979 0.000398431 0.000301532 -2.01084e-05 -3.95175e-06 -0.000108663 0.04 
402 1 1 -0.297581 -0.75357 -0.960118 0 0 0 -1.15893e-06 -2.9474e-06 1.68662e-07 0.000124909 0.000242203 -2.43916e-05 -6.0921e-06 9.66759e-06 3.9888e-05 0.04 
322 1 1 -0.217706 -0.755339 -0.96013 0 0 0 -4.53132e-07 -2.99565e-06 4.23659e-07 0.000179648 0.000273598 -6.00847e-05 2.24339e-06 9.5497e-07 -4.793e-05 0.04 
376 1 1 -0.137785 -0.752317 -0.960137 0 0 0 4.79749e-07 -4.21885e-06 3.68185e-06 -0.000102285 0.000166173 -8.22249e-06 8.83533e-05 -2.14206e-05 -2.27102e-05 0.04 
204 1 1 -0.0595659 -0.735823 -0.960304 0 0 0 3.2407e-06 -1.11463e-06 8.22338e-06 2.10407e-05 -3.47331e-05 -0.000454297 4.8299e-05 5.64267e-05 0.000102996 0.04 
1122 1 1 0.019315 -0.74896 -0.960158 0 0 0 3.10707e-06 5.59963e-07 1.28988e-06 -0.000240904 -9.62411e-05 -4.88761e-05 3.8607e-06 7.86145e-05 -5.12945e-05 0.04 
773 1 1 0.105142 -0.75305 -0.960328 0 0 0 2.31009e-06 -1.74695e-07 1.40838e-06 -0.000399859 -0.000176909 0.000121962 1.60661e-05 3.67536e-05 -7.77292e-05 0.04 
725 1 1 0.185119 -0.75234 -0.960163 0 0 0 1.20741e-07 -4.60576e-07 4.99076e-07 -0.000302808 2.72939e-05 0.000122614 1.53198e-06 2.14992e-06 8.70042e-05 0.04 
159 1 1 0.345573 -0.735002 -0.960256 0 0 0 -3.21461e-07 -2.61899e-06 -1.40916e-07 -0.000443273 2.65044e-06 -1.14682e-05 7.05215e-05 2.02104e-05 -2.56576e-05 0.04 
688 1 1 0.482791 -0.751117 -0.96023 0 0 0 4.96514e-07 -2.14403e-06 1.90091e-06 -0.000360884 -2.32753e-05 -0.000396056 -1.29058e-05 -3.76846e-05 1.72199e-05 0.04 
757 1 1 0.561591 -0.738304 -0.960169 0 0 0 1.58656e-06 5.03616e-06 4.21271e-06 -0.000324606 -0.000163758 0.000143249 -9.56181e-05 4.50765e-05 0.000148314 0.04 
519 1 1 0.641385 -0.739389 -0.960172 0 0 0 1.97116e-06 -1.55171e-06 -1.1761e-06 -0.000161337 5.55359e-05 -1.63574e-05 -2.03371e-05 1.69624e-05 -0.000205477 0.04 
742 1 1 0.749359 -0.786904 -0.960233 0 0 0 3.45583e-07 -1.72195e-06 -1.24789e-06 -8.1097e-05 4.73532e-06 -5.13043e-05 -6.45497e-06 1.92362e-05 -1.84344e-05 0.04 
603 1 1 0.818346 -0.74666 -0.960129 0 0 0 -6.3934e-07 -1.25586e-06 -1.02168e-06 -4.3923e-05 -0.000106779 -0.000117983 9.48404e-06 -2.40403e-05 2.20179e-05 0.04 
86 1 1 0.891232 -0.793683 -0.960276 0 0 0 -1.07306e-07 2.65475e-07 -4.59094e-07 -8.69489e-05 -0.000137087 -6.30173e-05 8.70919e-06 -1.04637e-06 2.5658e-05 0.04 
972 1 1 0.96024 -0.753737 -0.960208 0 0 0 -7.05008e-07 3.76273e-07 3.91715e-07 -2.17641e-05 -0.000115151 0.000172396 -3.82229e-06 -7.06573e-06 -4.5652e-06 0.04 
488 1 1 -0.960206 -0.720977 -0.960237 0 0 0 -1.44434e-06 8.73162e-07 -1.68515e-06 -1.83842e-05 0.00011057 -0.000123774 -1.50362e-05 -3.17179e-06 3.21147e-06 0.04 
532 1 1 -0.889466 -0.684333 -0.960246 0 0 0 -1.2048e-06 8.25073e-07 -2.13185e-06 -0.00047648 0.000393557 -0.000233455 -1.58185e-05 -6.58271e-06 -2.51367e-05 0.04 
564 1 1 -0.744084 -0.708374 -0.96026 0 0 0 -2.43785e-06 3.32048e-06 7.36624e-07 0.000114722 0.000507999 9.45661e-05 -2.83963e-05 -1.96463e-05 -9.49356e-05 0.04 
314 1 1 -0.6662 -0.726449 -0.960118 0 0 0 -7.27441e-07 1.67834e-06 2.12607e-07 8.77225e-05 0.000333542 0.000205547 2.84585e-05 2.71448e-05 4.47766e-05 0.04 
783 1 1 -0.611381 -0.667464 -0.96026 0 0 0 -8.04916e-06 4.83342e-07 -1.97085e-06 0.00033574 0.000144862 0.000126259 9.15006e-05 -0.000158812 7.1475e-06 0.04 
1127 1 1 -0.555101 -0.724255 -0.960254 0 0 0 -4.65496e-06 4.55223e-06 1.23001e-06 0.000746729 0.000289168 0.00038859 -5.99702e-05 -4.46303e-05 9.04478e-05 0.04 
241 1 1 -0.476074 -0.712363 -0.960182 0 0 0 -4.64531e-06 2.33703e-06 -6.29835e-07 0.000203047 0.000225152 -0.000241821 -2.03155e-05 -2.59643e-05 -0.000124593 0.04 
85 1 1 -0.391017 -0.692253 -0.960257 0 0 0 -3.27645e-06 2.04993e-06 4.85646e-06 6.91377e-05 0.000376061 2.34635e-05 -8.76407e-05 -7.76166e-05 -8.39422e-05 0.04 
511 1 1 -0.313004 -0.675099 -0.960171 0 0 0 3.87269e-06 -6.25446e-06 2.43971e-06 0.000355341 -0.000261096 3.01451e-05 0.000141577 0.000142912 -0.00016701 0.04 
873 1 1 -0.233104 -0.677236 -0.960335 0 0 0 1.0253e-06 -6.52413e-06 5.64544e-07 0.000134306 0.000109912 -0.000371782 7.04937e-05 -6.08101e-05 4.90492e-05 0.04 
738 1 1 -0.122534 -0.673871 -0.960256 0 0 0 4.26806e-06 -4.68232e-06 1.11575e-05 -1.82719e-05 -0.000173234 -0.000475313 0.000206484 0.00011832 -0.000122663 0.04 
1088 1 1 0.110954 -0.673752 -0.960227 0 0 0 4.96126e-06 1.44148e-06 3.82131e-06 -0.000141804 -4.05037e-05 0.000281338 -2.37586e-05 4.82977e-05 -1.624e-05 0.04 
862 1 1 0.208436 -0.675887 -0.960172 0 0 0 -3.49512e-07 -1.05696e-07 1.12672e-06 -0.000412372 -4.36291e-05 0.00017429 1.08465e-05 -4.55927e-05 -0.000110876 0.04 
967 1 1 0.265708 -0.73166 -0.960287 0 0 0 -8.60102e-07 -2.73055e-06 8.75203e-07 -0.000537042 -0.000455987 -7.7215e-06 5.82534e-05 -1.1963e-05 4.76962e-05 0.04 
451 1 1 0.432784 -0.688738 -0.960201 0 0 0 -2.88964e-06 -2.66887e-06 -3.14183e-06 -0.000326676 -0.000106321 -0.000232477 1.67302e-05 -5.76255e-05 5.72911e-05 0.04 
177 1 1 0.511719 -0.675932 -0.960227 0 0 0 -4.61612e-06 -3.29692e-07 2.72161e-06 -0.000473058 -0.000197621 0.000132541 3.99389e-05 -7.63974e-05 -1.19021e-05 0.04 
308 1 1 0.678757 -0.668897 -0.960169 0 0 0 7.26681e-07 -3.65092e-06 -1.34205e-06 -0.000190301 -0.000267653 -0.000307904 5.06634e-05 4.33249e-06 0.00014629 0.04 
439 1 1 0.748962 -0.707084 -0.960209 0 0 0 7.19402e-07 -1.44269e-06 -1.64624e-06 -0.000160237 -0.000116901 -0.000471879 6.14066e-06 4.5753e-06 -2.95331e-05 0.04 
662 1 1 0.818044 -0.666736 -0.960232 0 0 0 -1.12445e-06 -5.89309e-07 -1.61095e-06 -8.24965e-05 -0.00031631 9.03446e-05 4.91541e-06 -1.19211e-05 -1.01606e-05 0.04 
188 1 1 0.891037 -0.713775 -0.960247 0 0 0 -1.17958e-06 4.00073e-09 2.81418e-07 -5.21861e-05 -0.00014276 2.14545e-05 5.69187e-06 -1.22832e-05 6.49545e-07 0.04 
987 1 1 0.960144 -0.673802 -0.960181 0 0 0 -8.46431e-07 3.72697e-08 7.92758e-07 -8.46132e-05 -4.37571e-05 0.000115731 4.67606e-06 -2.07448e-06 2.48544e-06 0.04 
990 1 1 -0.877721 -0.605528 -0.96022 0 0 0 -8.23433e-07 7.80205e-07 -2.83829e-06 -0.000169882 0.000324381 -0.000399742 -1.69758e-05 -8.14618e-06 6.84976e-07 0.04 
826 1 1 -0.811813 -0.666091 -0.960159 0 0 0 -2.31209e-06 3.00991e-06 -2.36706e-06 -0.000158157 0.000694171 -3.50037e-05 -9.13173e-05 -2.14181e-05 0.000102775 0.04 
1152 1 1 -0.757384 -0.607624 -0.960257 0 0 0 -4.92973e-06 2.39542e-06 -5.0524e-06 0.000129558 0.000394242 -0.000262018 5.4892e-06 -4.96187e-05 -6.88892e-05 0.04 
567 1 1 -0.689509 -0.64998 -0.960178 0 0 0 -6.05254e-06 1.5005e-06 3.23392e-06 -0.000317545 0.000416072 2.29115e-05 7.91482e-06 -0.000106421 0.000124577 0.04 
170 1 1 -0.527836 -0.64915 -0.960297 0 0 0 -5.9456e-06 5.02034e-06 -2.55502e-06 0.000375907 0.000302206 -0.000337502 -7.06378e-05 -0.000117379 -0.000131703 0.04 
375 1 1 -0.448831 -0.637331 -0.960304 0 0 0 -4.89696e-06 2.66936e-06 -2.2909e-07 0.0001575 0.000462693 -0.000524493 -3.24205e-05 -6.43236e-05 0.000100615 0.04 
709 1 1 -0.36733 -0.616042 -0.960195 0 0 0 -3.67535e-06 -1.69584e-06 -7.16826e-08 -6.02817e-05 6.43791e-05 -0.000166598 -8.30668e-06 -7.36954e-05 4.65739e-05 0.04 
1046 1 1 -0.0467053 -0.648898 -0.960242 0 0 0 3.72407e-06 1.25644e-06 7.49257e-06 -0.000338199 -0.000498448 -0.000506148 -0.000188499 6.02936e-05 0.00011995 0.04 
581 1 1 0.0319304 -0.662364 -0.960298 0 0 0 5.3267e-06 2.30508e-06 5.94278e-06 -0.000190123 -2.17745e-05 -0.000110516 -5.79047e-05 9.3858e-05 -3.57905e-05 0.04 
61 1 1 0.160809 -0.611665 -0.960225 0 0 0 3.27037e-06 2.91767e-06 -1.97055e-06 -0.000284726 3.44217e-05 -0.000171106 -8.60341e-05 0.00011099 9.66281e-05 0.04 
1052 1 1 0.252402 -0.609102 -0.960288 0 0 0 -7.32195e-07 9.48513e-07 1.85305e-07 -4.99052e-05 -1.42568e-05 1.69364e-05 -6.16097e-05 -2.26146e-05 0.00010113 0.04 
656 1 1 0.31191 -0.662487 -0.960129 0 0 0 1.01715e-06 1.58275e-06 1.52861e-06 -0.000308621 -0.000276584 -0.000219759 -4.11724e-05 5.68314e-05 -1.08133e-05 0.04 
1082 1 1 0.383105 -0.626077 -0.960242 0 0 0 -1.25226e-06 -1.09723e-06 1.65582e-07 -0.000307559 -9.15143e-05 -0.000355174 9.0958e-05 4.55068e-06 -0.000106445 0.04 
255 1 1 0.462 -0.613477 -0.960265 0 0 0 -7.69645e-06 -1.81679e-06 2.16405e-06 -0.0001948 -9.45661e-05 4.22323e-05 4.13882e-05 -0.000166538 0.000126527 0.04 
880 1 1 0.598422 -0.666186 -0.960224 0 0 0 1.69184e-06 6.85205e-06 1.90878e-06 -0.000669705 -0.000150825 6.42927e-05 -0.000160895 7.91839e-05 0.000884177 0.04 
1026 1 1 0.543027 -0.601443 -0.960163 0 0 0 2.85884e-06 -2.9368e-07 -5.37067e-06 -0.00108351 -0.000189617 -5.88028e-05 1.82766e-05 7.23063e-05 -0.000894145 0.04 
543 1 1 0.748549 -0.627317 -0.96016 0 0 0 -1.50817e-06 -2.54597e-06 -1.34877e-06 -0.000192994 -0.000493499 -8.15772e-05 3.79817e-05 -7.53711e-06 5.49929e-05 0.04 
553 1 1 0.890863 -0.6339 -0.960238 0 0 0 -1.34223e-06 -3.17123e-07 3.97088e-07 -0.000102396 -9.94811e-05 1.83338e-05 1.21876e-06 -2.17607e-05 2.89459e-06 0.04 
260 1 1 -0.960001 -0.595548 -0.960243 0 0 0 -6.7492e-07 -4.34125e-08 -1.007e-06 -0.000107753 1.7912e-05 -3.57317e-05 -1.5693e-05 -1.99529e-06 -3.68228e-06 0.04 
565 1 1 -0.81668 -0.553962 -0.96023 0 0 0 -3.16944e-06 1.78335e-06 -4.00098e-06 -0.000177221 0.000424942 -0.000366569 -1.37737e-05 -2.89522e-05 1.59066e-05 0.04 
1113 1 1 -0.703061 -0.549222 -0.960278 0 0 0 -3.89269e-06 1.86877e-06 -4.20042e-06 0.000113345 0.00033265 -0.00020082 -7.55663e-06 -5.0247e-05 7.30121e-06 0.04 
925 1 1 -0.635196 -0.591292 -0.960146 0 0 0 -8.13748e-06 1.64384e-06 1.83044e-06 0.000286166 0.000284984 -9.27209e-05 -2.85168e-05 -0.000133116 -5.13015e-05 0.04 
893 1 1 -0.547624 -0.562691 -0.960173 0 0 0 -7.50513e-06 3.91778e-06 1.15162e-06 0.000223316 4.6768e-05 -0.000388998 -5.9559e-05 -0.000154653 -0.000234677 0.04 
1103 1 1 -0.454637 -0.557855 -0.9603 0 0 0 -6.10267e-06 2.83998e-06 -4.29968e-06 0.000290838 2.00446e-05 -0.000652532 -0.000159291 -6.11811e-05 -6.16627e-05 0.04 
1448 1 1 -0.377549 -0.536781 -0.960162 0 0 0 -4.77095e-06 -2.75063e-06 -6.67497e-07 -0.000189518 8.09521e-05 -0.000186396 4.33032e-05 -0.000111224 -2.17628e-05 0.04 
631 1 1 -0.303804 -0.567605 -0.960239 0 0 0 -2.99645e-06 -3.49298e-06 3.22275e-06 -0.000154909 6.98831e-05 -0.000152821 -2.50965e-06 -4.63536e-05 -2.42884e-05 0.04 
714 1 1 -0.230011 -0.597895 -0.960352 0 0 0 2.20781e-06 -6.11398e-06 9.96696e-07 -0.000515923 -1.41965e-05 -0.00058647 5.35271e-05 0.000116746 -6.13186e-06 0.04 
962 1 1 -0.165419 -0.550903 -0.960204 0 0 0 5.03442e-07 -3.19198e-06 -4.43035e-06 -0.000473053 -0.000457141 0.000157377 1.53194e-05 1.37867e-05 2.8292e-05 0.04 
950 1 1 -0.0923581 -0.583303 -0.960249 0 0 0 -3.42493e-06 -2.41932e-06 -8.56677e-06 -0.000645883 -0.000892664 -0.000284536 0.000127062 -0.000140228 -7.95209e-06 0.04 
716 1 1 0.00265796 -0.586034 -0.960217 0 0 0 -2.03923e-06 5.40919e-07 2.19384e-06 -0.000682725 -0.000525319 -0.000293986 -2.22183e-05 -1.7274e-05 1.12403e-05 0.04 
388 1 1 0.0814131 -0.599613 -0.960229 0 0 0 2.3654e-06 1.91777e-06 -1.95067e-06 -0.000424281 -0.00010595 -0.000140982 -5.86793e-05 8.8855e-05 6.7304e-05 0.04 
867 1 1 0.204619 -0.545124 -0.960172 0 0 0 -1.77407e-06 2.14542e-06 -6.41755e-06 -0.00020039 -0.000125848 0.000127576 -7.04863e-05 -3.99269e-05 -3.50887e-05 0.04 
576 1 1 0.321588 -0.564046 -0.960233 0 0 0 -2.84251e-06 6.17762e-06 1.24952e-05 3.53428e-05 -0.000162378 0.000781873 -0.000140621 -7.6278e-05 0.000142322 0.04 
408 1 1 0.403788 -0.548892 -0.960207 0 0 0 -8.17018e-07 6.03921e-06 3.27486e-06 -0.000141273 -0.000233126 -0.000403875 -0.0001633 -1.57125e-05 0.000161945 0.04 
814 1 1 0.482705 -0.536364 -0.960226 0 0 0 6.28939e-07 -1.17822e-06 3.45414e-06 -0.000205818 0.000127813 -5.44594e-05 4.77183e-05 5.07621e-05 -0.000294669 0.04 
1288 1 1 0.589751 -0.536429 -0.960267 0 0 0 2.04321e-06 6.1962e-06 2.85075e-06 -0.000334912 -0.00039246 -0.000430129 -0.000167913 2.19757e-05 -8.91732e-05 0.04 
1111 1 1 0.678414 -0.58909 -0.96026 0 0 0 -3.04593e-06 -2.45928e-06 7.69682e-07 -9.16573e-05 -0.000443038 0.000184369 4.98766e-05 -3.69986e-05 -4.07434e-05 0.04 
1138 1 1 0.747381 -0.547509 -0.960207 0 0 0 7.20009e-07 -2.96324e-06 1.59612e-06 0.000123639 -0.000413826 0.000608134 6.01643e-05 3.83907e-07 -8.33098e-05 0.04 
58 1 1 0.817503 -0.58598 -0.960208 0 0 0 -7.84569e-07 -3.03196e-06 -2.15459e-06 -6.90644e-05 -0.000566849 -0.00015126 7.22444e-05 6.73686e-06 8.5331e-05 0.04 
1107 1 1 0.890822 -0.554039 -0.960246 0 0 0 -1.57945e-06 -4.22707e-07 -3.01017e-07 -0.000239737 -0.000107607 -8.6942e-05 5.5297e-06 -3.7598e-05 1.46264e-05 0.04 
252 1 1 0.960091 -0.593929 -0.960182 0 0 0 -1.03887e-06 7.75923e-08 1.1374e-06 -0.000145007 1.47009e-05 0.000154673 4.1376e-06 -4.42642e-06 3.13461e-07 0.04 
670 1 1 -0.960083 -0.515581 -0.960206 0 0 0 3.06737e-07 -7.83833e-07 -4.21824e-06 -5.8861e-05 -6.86281e-05 -0.000177973 -3.91424e-05 5.64429e-05 -3.32965e-05 0.04 
644 1 1 -0.761222 -0.493806 -0.960278 0 0 0 -3.78567e-06 -9.14403e-07 -4.3238e-06 -0.000229929 0.000550731 -0.000409396 6.1555e-05 -1.64242e-05 -0.000105746 0.04 
833 1 1 -0.684416 -0.471796 -0.960325 0 0 0 -7.84401e-06 1.47503e-06 -6.03424e-06 0.000114916 0.000214399 0.000119714 -8.66296e-05 -0.000112416 0.000117645 0.04 
435 1 1 -0.616325 -0.513721 -0.960225 0 0 0 -6.73938e-06 2.23348e-06 1.10547e-06 0.000299842 -0.000172921 -0.000161307 -4.55213e-05 -7.6409e-05 -5.03019e-05 0.04 
816 1 1 -0.503031 -0.494467 -0.960281 0 0 0 -6.04447e-06 3.07088e-06 -2.94848e-06 9.1992e-05 -0.000362493 -0.000479408 -5.86206e-06 -1.21932e-05 2.91719e-05 0.04 
489 1 1 -0.313515 -0.488342 -0.96024 0 0 0 -3.17724e-06 -5.01516e-06 -5.43659e-07 -0.000437347 7.44271e-05 -0.000211923 2.73072e-05 -5.10432e-05 2.71893e-06 0.04 
883 1 1 -0.239739 -0.519014 -0.960264 0 0 0 -1.42328e-06 -5.63403e-06 -1.25247e-06 -0.000493014 9.38384e-05 -0.000457738 1.07133e-05 1.74824e-05 2.86319e-05 0.04 
305 1 1 -0.1754 -0.471599 -0.960213 0 0 0 -7.02342e-07 -5.94231e-06 -1.80611e-06 -0.000789992 -0.000136995 0.000108413 9.79299e-05 -4.38766e-05 -1.61308e-05 0.04 
675 1 1 -0.101731 -0.5026 -0.960187 0 0 0 1.19204e-06 -2.14529e-06 -4.80066e-06 -0.000471254 -0.00048201 0.000282459 6.60822e-05 7.23272e-05 7.43294e-05 0.04 
1066 1 1 -0.0221836 -0.510122 -0.960311 0 0 0 -1.6779e-07 -1.55883e-06 -5.63144e-06 -0.0010114 -0.000844256 0.000817696 3.32645e-05 -7.80781e-05 -0.000113232 0.04 
143 1 1 0.058978 -0.523024 -0.960124 0 0 0 8.89253e-07 -1.66806e-06 -2.41955e-06 -0.000766954 -0.000498755 -0.00028996 1.51365e-05 1.80131e-05 -1.88262e-05 0.04 
1346 1 1 0.153919 -0.483517 -0.960267 0 0 0 4.60159e-07 2.0451e-06 -2.2142e-06 -0.000497991 -0.000282372 -0.000126474 3.35878e-06 7.94542e-05 4.5404e-05 0.04 
1000 1 1 0.271508 -0.501727 -0.960223 0 0 0 -5.33296e-06 2.57929e-06 -2.26272e-07 4.07061e-05 -7.10906e-05 0.00039563 -0.000105681 -0.00010402 -1.40683e-05 0.04 
792 1 1 0.3505 -0.489392 -0.960249 0 0 0 -4.75822e-06 2.44929e-06 -5.37954e-06 6.382e-05 1.67367e-05 4.58668e-05 -1.08264e-05 3.50082e-05 -1.07667e-05 0.04 
1361 1 1 0.432907 -0.473801 -0.96021 0 0 0 6.89136e-07 1.18009e-06 1.16758e-05 -0.000265443 -1.09373e-05 -0.000200204 -2.3575e-05 2.56652e-05 0.00014751 0.04 
584 1 1 0.536204 -0.47709 -0.960204 0 0 0 5.56626e-06 6.43576e-07 1.37547e-06 -0.000477148 2.47766e-05 -0.000207257 -1.24524e-05 0.000121709 0.000111479 0.04 
908 1 1 0.677146 -0.50943 -0.960259 0 0 0 1.31314e-06 -8.91988e-08 2.86626e-06 -0.000126449 -0.000358019 0.000620966 -5.79818e-06 4.01333e-06 -5.77692e-05 0.04 
1309 1 1 0.804447 -0.491605 -0.960226 0 0 0 3.60479e-06 3.60419e-06 -9.75729e-07 0.000386449 0.000661214 0.000337567 -0.000125837 8.92359e-05 0.000206696 0.04 
9 1 1 0.890886 -0.474152 -0.96018 0 0 0 2.79099e-07 1.54852e-06 -1.37123e-06 -0.000168437 0.000187168 -0.000424702 -4.87082e-05 -2.26307e-05 -4.7834e-05 0.04 
771 1 1 0.960095 -0.514066 -0.960231 0 0 0 -8.37407e-07 4.97467e-07 1.47564e-06 -0.000177516 0.000114049 0.000216814 -1.45506e-05 -5.70422e-06 -1.00661e-05 0.04 
1055 1 1 -0.960062 -0.423547 -0.960212 0 0 0 -9.25943e-08 -2.65567e-08 3.20274e-06 -0.000166549 1.53134e-05 4.29475e-05 -4.0828e-05 -1.54911e-05 -1.00367e-06 0.04 
739 1 1 -0.890752 -0.463397 -0.960241 0 0 0 -2.72776e-07 6.95543e-07 -8.33644e-07 -0.000191853 1.11843e-05 0.000522742 3.08509e-05 1.18877e-05 4.06413e-05 0.04 
1142 1 1 -0.821571 -0.423415 -0.96026 0 0 0 -2.48147e-06 2.07466e-06 -5.39373e-07 -9.3584e-05 0.000280946 0.000739713 -1.57009e-06 -3.82992e-05 4.85418e-06 0.04 
613 1 1 -0.636931 -0.407836 -0.9603 0 0 0 -9.31883e-06 1.37939e-07 -5.31983e-06 0.000450288 -7.32361e-05 0.000264191 6.42822e-05 -0.000121816 -0.000102602 0.04 
620 1 1 -0.568908 -0.449471 -0.96023 0 0 0 -8.92671e-06 1.0413e-06 -4.52144e-06 0.000314769 -0.000177208 8.72494e-05 -3.22321e-05 -3.7451e-06 6.51991e-05 0.04 
1316 1 1 -0.460837 -0.426641 -0.960331 0 0 0 -7.19116e-06 -4.70795e-07 -4.07076e-07 1.47917e-05 -0.000247963 -0.000331619 8.7813e-05 -0.000177159 -7.19216e-05 0.04 
344 1 1 -0.387126 -0.457462 -0.960274 0 0 0 -3.48604e-06 -3.91593e-06 -2.89627e-06 -0.000279018 0.000117559 -0.000333623 5.46743e-05 -4.98444e-05 -3.35397e-05 0.04 
247 1 1 -0.323486 -0.40902 -0.960224 0 0 0 -1.80492e-06 -5.00421e-06 4.83178e-07 -0.000445783 0.000127067 -0.000200627 7.10587e-05 -3.19579e-05 -9.97444e-06 0.04 
382 1 1 -0.249869 -0.440011 -0.960246 0 0 0 -2.13986e-06 -6.70862e-06 1.20456e-07 -0.000614441 0.000189445 -0.000383519 8.65243e-05 -1.0287e-05 -4.64559e-05 0.04 
1271 1 1 -0.105193 -0.422597 -0.960247 0 0 0 1.74001e-06 -7.92893e-06 -4.29435e-06 -0.00105925 -0.000432583 0.000226446 0.000108516 7.98415e-05 0.000113947 0.04 
1249 1 1 0.0294281 -0.44887 -0.960288 0 0 0 1.51621e-06 -3.52308e-06 -2.4849e-06 -0.000942725 -0.000859135 -0.00033404 4.19674e-05 4.75812e-05 -1.38273e-05 0.04 
1030 1 1 0.104305 -0.421015 -0.96028 0 0 0 -2.19099e-06 -2.49477e-06 -2.76864e-06 -0.00080093 -0.000793922 -0.000221349 3.24751e-05 -0.000112661 9.77232e-05 0.04 
1148 1 1 0.22083 -0.439836 -0.96025 0 0 0 -1.98331e-06 2.04159e-06 -6.78826e-06 -0.000264471 -0.000197799 0.000418754 -7.3718e-05 -8.897e-05 -7.69495e-05 0.04 
772 1 1 0.300186 -0.427301 -0.96021 0 0 0 -2.56435e-06 2.11255e-06 -3.40283e-06 -4.50349e-05 7.66014e-05 0.000334254 -3.51834e-05 -2.99087e-05 -3.73481e-05 0.04 
845 1 1 0.379043 -0.414708 -0.960221 0 0 0 -4.31851e-06 7.21438e-07 2.009e-06 -7.23125e-05 7.56389e-05 0.000297279 4.37542e-06 -0.000178494 1.11202e-05 0.04 
981 1 1 0.561051 -0.401067 -0.9602 0 0 0 3.72668e-06 2.37204e-06 -8.11374e-07 -0.000325506 -3.98022e-05 -0.000157439 -2.91139e-05 5.36549e-05 -5.71526e-05 0.04 
1047 1 1 0.614308 -0.460357 -0.960196 0 0 0 2.73314e-06 3.07966e-06 -1.05501e-08 -0.000326324 -0.000262731 0.000116716 -2.53807e-05 -1.92661e-05 8.36578e-06 0.04 