ITEM: TIMESTEP
14400
ITEM: NUMBER OF ATOMS
999
ITEM: BOX BOUNDS ff ff ff
-1 1
-1 1
-1 1
ITEM: ATOMS id type type x y z ix iy iz vx vy vz fx fy fz omegax omegay omegaz radius 
105 1 1 -0.889152 -0.962084 -0.949121 0 0 0 -3.19868 -1.2848 -0.248533 6.243 132.807 -4.31219 21.1359 -12.3966 6.18646 0.04 
242 1 1 -0.261936 -0.855052 -0.958925 0 0 0 -1.28594 2.10333 0.445448 -72.1465 -40.3325 -212.017 -10.9381 -5.79917 13.7417 0.04 
282 1 1 -0.362439 -0.957377 -0.929125 0 0 0 0.923599 -5.58046 1.17954 0 0 -6.57473 16.9181 -6.55368 -11.6591 0.04 
118 1 1 0.380938 -0.786209 -0.954435 0 0 0 1.74039 2.84344 0.797096 0 0 -6.57473 -6.75883 5.2804 -19.7882 0.04 
314 1 1 -0.495223 -0.844227 -0.928597 0 0 0 -0.0164295 -3.57254 0.836618 0 0 -6.57473 18.6484 8.22191 -0.57936 0.04 
415 1 1 -0.401649 -0.811382 -0.963527 0 0 0 0.747766 -1.43611 0.67014 -0.451874 9.38362 181.315 10.4159 18.2733 -10.1691 0.04 
517 1 1 -0.255698 -0.694659 -0.960562 0 0 0 3.39374 0.670495 -1.47804 -2.48343 -0.44932 43.9003 -3.47952 11.375 2.74569 0.04 
5 1 1 -0.831359 -0.563179 -0.94159 0 0 0 -2.77546 2.69916 1.29261 0 0 -6.57473 -29.607 -25.8781 -41.3362 0.04 
64 1 1 -0.317711 -0.642276 -0.939088 0 0 0 -0.316359 -1.22628 0.922668 0 0 -6.57473 27.1769 -37.3216 -3.60538 0.04 
513 1 1 -0.000390981 -0.667943 -0.966086 0 0 0 -0.447871 -1.22705 2.09663 6.1871 14.3197 305.408 14.5368 -4.03111 6.15565 0.04 
147 1 1 0.534511 -0.707598 -0.906409 0 0 0 -2.9858 -2.65367 2.23601 0 0 -6.57473 14.9411 -21.9688 -4.97889 0.04 
13 1 1 -0.42092 -0.546138 -0.960446 0 0 0 -0.738626 0.447743 0.869099 -650.181 -96.1158 -81.5753 -25.0007 26.8873 -14.2544 0.04 
421 1 1 -0.178748 -0.590511 -0.94892 0 0 0 -0.827207 -2.80422 3.15732 0 0 -6.57473 23.854 -8.42843 2.21939 0.04 
19 1 1 0.394953 -0.543424 -0.958499 0 0 0 1.07956 2.66375 -1.10963 -9.46257 5.56799 -25.2104 -13.738 -3.77738 11.3991 0.04 
159 1 1 0.719829 -0.563475 -0.964591 0 0 0 -1.54563 -2.75391 0.431761 99.5928 -93.6596 185.086 37.4925 -1.54836 -39.5705 0.04 
208 1 1 0.675466 -0.509198 -0.937222 0 0 0 -1.2064 2.01975 1.30931 -137.66 219.695 -524.001 -4.16785 19.5274 -7.51599 0.04 
352 1 1 -0.958035 -0.460653 -0.942396 0 0 0 3.18936 -2.8224 -0.569247 -89.7942 -273.039 53.6005 2.80196 8.19513 -29.4433 0.04 
247 1 1 -0.372969 -0.47404 -0.92454 0 0 0 -0.0482573 -2.19828 1.37004 -54.5835 261.447 103.132 18.2149 -5.28997 -1.32099 0.04 
339 1 1 -0.0907371 -0.472409 -0.961188 0 0 0 -2.08042 -1.47213 -1.92587 -185.022 91.965 -178.856 10.6183 16.9902 12.7227 0.04 
110 1 1 0.271809 -0.397927 -0.963477 0 0 0 -2.11076 -0.198443 -0.098588 4.37636 -169.101 212.517 1.35511 -4.87419 38.3029 0.04 
499 1 1 0.797804 -0.425437 -0.851092 0 0 0 -0.898969 0.0688984 6.58674 0 0 -6.57473 -6.91674 -42.4403 4.51361 0.04 
290 1 1 -0.93925 -0.392242 -0.956441 0 0 0 -1.92453 -2.63433 1.04602 89.7942 273.039 -66.75 -3.03739 -17.9519 15.7282 0.04 
37 1 1 -0.567509 -0.379006 -0.9442 0 0 0 0.347935 -1.0258 1.56274 0 0 -6.57473 26.4554 31.5913 -18.3432 0.04 
485 1 1 -0.24356 -0.377103 -0.963597 0 0 0 -1.0881 -1.75432 4.9131 0.300467 6.83326 130.223 27.626 -28.1049 -0.888776 0.04 
439 1 1 0.355566 -0.372853 -0.942255 0 0 0 -1.3853 -0.410213 2.10699 0 0 -6.57473 24.2969 -16.0024 -1.48047 0.04 
589 1 1 0.959798 -0.348984 -0.940963 0 0 0 1.45964 1.53751 -0.330104 339.998 155.766 -313.684 -4.7861 8.79793 -29.7959 0.04 
335 1 1 -0.428644 -0.272337 -0.951122 0 0 0 -0.0672455 3.18164 -2.94221 -335.116 86.0012 -446.352 30.475 9.63965 -18.1719 0.04 
201 1 1 0.0139501 -0.265966 -0.964485 0 0 0 0.00924263 0.675553 0.819746 8.16952 -8.7418 232.724 -7.93839 9.60924 2.4453 0.04 
174 1 1 0.761707 -0.248804 -0.953653 0 0 0 -1.78826 3.28472 -0.242468 0 0 -6.57473 18.2953 -14.8946 -11.981 0.04 
240 1 1 0.613697 -0.278411 -0.942255 0 0 0 3.2968 -0.847857 -0.528304 0 0 -6.57473 5.6743 5.62074 -9.33681 0.04 
442 1 1 -0.873856 -0.122706 -0.951754 0 0 0 1.73787 0.605756 1.19481 0 0 -6.57473 -16.4052 33.7775 15.9113 0.04 
189 1 1 0.87526 -0.183146 -0.959823 0 0 0 3.66716 0.164537 0.337547 0 0 -6.57473 5.43376 24.1556 -2.30147 0.04 
392 1 1 -0.762167 -0.107996 -0.972091 0 0 0 0.859707 0.0327488 1.05087 -31.5754 9.62664 653.63 -1.43478 23.5692 2.1226 0.04 
405 1 1 -0.141996 0.0600187 -0.910837 0 0 0 -2.18649 1.19405 0.0494894 -237.32 -48.2406 -202.883 -2.04448 11.7449 4.90679 0.04 
146 1 1 -0.542633 0.134224 -0.928434 0 0 0 0.086582 0.188434 0.956652 0 0 -6.57473 -14.642 9.83983 4.98886 0.04 
368 1 1 -0.738572 0.177794 -0.924332 0 0 0 -0.113867 1.48346 0.669891 0 0 -6.57473 -7.78971 -5.86028 4.70413 0.04 
167 1 1 -0.876812 0.220897 -0.9545 0 0 0 2.75724 0.268493 -0.233852 0 0 -6.57473 -7.6717 -6.59278 5.12484 0.04 
329 1 1 -0.956992 0.424278 -0.947906 0 0 0 -0.478611 4.46868 -0.906121 0 0 -6.57473 2.06565 -0.129608 -2.60035 0.04 
244 1 1 -0.228044 0.626935 -0.962475 0 0 0 -0.748243 3.97972 -0.419206 -0.088308 -7.16844 136.805 -10.4073 -20.4359 7.74675 0.04 
71 1 1 -0.0869069 0.624961 -0.96269 0 0 0 -0.454146 3.26919 0.306556 1.91557 -7.04026 139.349 -19.9536 5.83573 4.93805 0.04 
15 1 1 -0.381833 0.865632 -0.945394 0 0 0 -4.39818 2.01906 1.11555 0 0 -6.57473 0.461034 -34.4618 1.69073 0.04 
375 1 1 -0.599265 -0.931279 -0.882701 0 0 0 -2.60342 0.28768 2.58322 0 0 -6.57473 10.7844 -37.9019 -29.6553 0.04 
272 1 1 0.475194 -0.93346 -0.968971 0 0 0 -0.208709 1.2249 -4.27075 11.6325 -25.2112 548.734 -7.89969 6.15609 6.79601 0.04 
52 1 1 -0.43766 -0.935698 -0.890228 0 0 0 -0.424196 -0.685013 1.62295 2.80884 3.12324 -21.0184 14.6847 -14.4299 -21.2333 0.04 
489 1 1 -0.358959 -0.963112 -0.834409 0 0 0 -1.73947 5.09944 2.02247 3.91384 107.342 -10.2473 41.4182 -22.7949 33.096 0.04 
218 1 1 0.068699 -0.967578 -0.890006 0 0 0 0.679795 1.21678 0.446482 -16.2576 406.538 -18.7761 -1.81139 19.3809 0.221885 0.04 
194 1 1 0.253341 -0.931645 -0.95157 0 0 0 -0.553976 -2.41286 -3.28601 0 0 -6.57473 3.24325 9.77885 -2.39988 0.04 
232 1 1 -0.235695 -0.844591 -0.890465 0 0 0 0.489723 -0.561603 -0.22835 72.1465 40.3325 198.868 13.3771 9.24046 2.58528 0.04 
61 1 1 0.21102 -0.859894 -0.858401 0 0 0 1.18525 -1.74988 2.74244 0 0 -6.57473 -39.9812 1.94864 9.48304 0.04 
34 1 1 -0.142912 -0.829165 -0.865819 0 0 0 0.165134 -2.19327 1.8127 0 0 -6.57473 16.8173 -5.47402 13.6422 0.04 
315 1 1 -0.0793554 -0.774283 -0.865044 0 0 0 -0.723135 -1.43795 2.03711 0 0 -6.57473 10.9349 -21.5408 -16.543 0.04 
95 1 1 0.126766 -0.780443 -0.871191 0 0 0 1.15625 -0.78989 0.331087 -155.472 -97.8368 146.185 34.6676 -9.82877 7.06963 0.04 
204 1 1 0.173282 -0.751908 -0.921313 0 0 0 -2.38516 -3.30759 -0.117726 155.472 97.8368 -159.335 12.2826 -21.911 -5.43111 0.04 
9 1 1 0.83232 -0.703733 -0.814311 0 0 0 -0.116523 -0.77893 3.2487 0 0 -6.57473 22.7658 -4.81205 -7.53192 0.04 
372 1 1 -0.943571 -0.638939 -0.948754 0 0 0 0.573403 -2.21142 -4.27185 0 0 -6.57473 1.82462 -5.88001 -6.99603 0.04 
57 1 1 -0.672678 -0.644796 -0.849181 0 0 0 1.31846 -0.845019 2.56838 0 0 -6.57473 14.0418 11.1191 -12.683 0.04 
85 1 1 -0.595175 -0.585629 -0.972601 0 0 0 -0.496078 0.220348 1.4401 -23.9371 -24.3971 677.006 -5.37182 -15.7738 -24.0503 0.04 
322 1 1 -0.359714 -0.537798 -0.955173 0 0 0 -0.302004 -0.790041 -3.88254 705.412 -165.133 -27.7323 -0.173836 8.01908 0.842303 0.04 
426 1 1 0.473778 -0.546331 -0.968302 0 0 0 -0.522275 -0.343879 3.30717 48.1125 15.1145 407.826 11.458 -17.0542 -3.62981 0.04 
328 1 1 -0.781573 -0.475519 -0.914666 0 0 0 -2.24633 0.748918 -0.882401 0 0 -6.57473 -10.7519 -7.2148 -21.557 0.04 
294 1 1 -0.611009 -0.489245 -0.883403 0 0 0 -0.989088 -0.291916 -0.656875 -80.7794 -50.9655 -30.0249 7.60678 6.45729 -11.6442 0.04 
138 1 1 -0.498528 -0.581914 -0.881736 0 0 0 1.51462 -2.78931 -2.4518 -64.0494 83.5355 -311.942 -11.744 -12.4881 -2.93789 0.04 
285 1 1 -0.211402 -0.508801 -0.951577 0 0 0 -0.461863 -0.399685 -2.65664 0 0 -6.57473 15.1298 -8.94273 -6.91257 0.04 
366 1 1 0.042314 -0.456221 -0.962705 0 0 0 0.642894 1.1613 3.23335 -2.09858 -5.02001 102.245 3.50892 2.62075 -8.31347 0.04 
210 1 1 0.912882 -0.52573 -0.932037 0 0 0 1.17979 -1.613 -0.693808 0 0 -6.57473 -16.1039 7.19234 -6.95798 0.04 
371 1 1 0.946155 -0.465551 -0.85853 0 0 0 0.0541988 0.542774 1.46827 0 0 -6.57473 -6.82728 -0.380019 2.02614 0.04 
316 1 1 0.638608 -0.408847 -0.872582 0 0 0 -1.25243 1.35793 2.94209 0 0 -6.57473 19.4527 -45.8341 34.5025 0.04 
524 1 1 -0.865991 -0.403785 -0.897494 0 0 0 2.42683 -0.160963 -0.49826 0 0 -6.57473 -10.3615 8.93143 -3.00395 0.04 
456 1 1 -0.65424 -0.405518 -0.873866 0 0 0 3.80485 -2.21277 -2.46068 0 0 -6.57473 -8.01421 -3.71033 -0.949264 0.04 
132 1 1 -0.439427 -0.347172 -0.906354 0 0 0 0.944009 -1.51566 0.945799 0 0 -6.57473 19.9197 -9.48007 16.9487 0.04 
709 1 1 -0.255371 -0.350157 -0.857061 0 0 0 -1.96151 -0.555417 3.40629 0 0 -6.57473 -24.1354 5.54076 -7.69063 0.04 
382 1 1 -0.145198 -0.35455 -0.965406 0 0 0 -1.13921 -0.000923178 -1.04882 15.2503 -3.91104 308.302 5.3768 -9.52172 -1.55368 0.04 
344 1 1 -0.0521561 -0.38021 -0.928282 0 0 0 -0.951047 -0.250573 -0.192092 0 0 -6.57473 15.9594 10.242 -8.54071 0.04 
391 1 1 0.181165 -0.358411 -0.912351 0 0 0 2.22505 0.159658 0.254969 0 0 -6.57473 7.93885 -10.859 -12.9104 0.04 
409 1 1 0.644519 -0.336859 -0.834906 0 0 0 -0.20805 0.654386 4.13054 0 0 -6.57473 -27.7053 -8.48422 -1.45419 0.04 
28 1 1 0.82319 -0.329392 -0.838167 0 0 0 0.0428482 1.53055 1.22795 397.167 258.584 -451.234 25.5843 -0.829849 9.29842 0.04 
412 1 1 -0.902526 -0.299444 -0.934682 0 0 0 1.06089 2.52058 -2.31813 0 0 -6.57473 -11.6923 18.3813 -14.2328 0.04 
497 1 1 0.475045 -0.31368 -0.966409 0 0 0 -0.167288 -0.998704 -4.00986 5.75817 19.6303 402.573 2.51542 2.61936 5.11491 0.04 
435 1 1 -0.942135 -0.228974 -0.849793 0 0 0 1.07822 0.549381 3.22304 0 0 -6.57473 -10.4311 -28.9706 1.00909 0.04 
129 1 1 -0.855726 -0.226856 -0.872513 0 0 0 -0.260691 0.439789 0.453037 0 0 -6.57473 5.17013 13.7827 5.48891 0.04 
32 1 1 -0.674132 -0.299619 -0.873464 0 0 0 0.346106 -0.608608 -1.13074 -12.7961 296.77 -369.709 -18.4802 19.506 11.5739 0.04 
410 1 1 -0.182102 -0.193328 -0.827789 0 0 0 -0.53306 0.739807 2.89391 0 0 -6.57473 -7.61469 5.70131 -0.400848 0.04 
35 1 1 -0.0277221 -0.178879 -0.89934 0 0 0 1.44488 2.46023 -0.169936 -296.969 -110.718 202.858 -17.3585 -21.508 12.6457 0.04 
310 1 1 0.357 -0.230156 -0.817919 0 0 0 -1.35446 1.34281 2.87754 0 0 -6.57473 -3.64883 15.1401 0.776258 0.04 
58 1 1 0.669505 -0.20684 -0.934608 0 0 0 -1.8102 1.04586 -3.58239 0 0 -6.57473 28.3193 -7.82619 0.73305 0.04 
529 1 1 0.954375 -0.262573 -0.967001 0 0 0 0.44429 -0.9598 -2.16858 0.524512 20.9063 411.684 -21.526 13.2938 -3.16343 0.04 
319 1 1 -0.739104 -0.197991 -0.903108 0 0 0 0.909296 -1.86356 0.494485 0 0 -6.57473 -13.1385 -1.9508 3.83789 0.04 
206 1 1 -0.570855 -0.149431 -0.882953 0 0 0 -0.447168 2.71196 -0.873375 0 0 -6.57473 3.27 1.60804 -1.36813 0.04 
394 1 1 -0.409721 -0.171986 -0.969353 0 0 0 -0.643048 -0.177521 1.19089 25.2479 -1.44645 499.211 5.45325 -11.3981 0.187523 0.04 
530 1 1 -0.348636 -0.217759 -0.91895 0 0 0 -1.28127 -3.00912 -0.787612 0 0 -6.57473 4.76102 -12.0119 -3.8149 0.04 
253 1 1 0.0247121 -0.159065 -0.940532 0 0 0 0.825672 2.50198 -1.94395 296.969 110.718 -216.007 -0.16984 -9.25377 9.64286 0.04 
432 1 1 0.409967 -0.116191 -0.90941 0 0 0 1.76401 1.2677 0.518947 0 0 -6.57473 -1.69242 -17.1622 -8.56156 0.04 
599 1 1 0.58815 -0.158142 -0.966624 0 0 0 0.256062 -0.109773 3.93671 3.38899 -15.5399 311.528 10.2754 9.46102 -4.36474 0.04 
389 1 1 -0.528427 -0.115273 -0.953839 0 0 0 -0.973845 0.239718 -2.00023 0 0 -6.57473 13.0885 0.361241 0.607263 0.04 
224 1 1 -0.364674 -0.0319322 -0.850486 0 0 0 0.143825 2.19206 3.40518 0 0 -6.57473 -17.7512 14.3524 1.59538 0.04 
694 1 1 -0.242294 -0.0368268 -0.929018 0 0 0 1.98306 3.89517 0.077405 0 0 -6.57473 -5.89368 -29.7237 10.5147 0.04 
464 1 1 0.277296 -0.102156 -0.958092 0 0 0 -2.84142 0.790792 -3.44685 0 0 -6.57473 -0.939502 -8.37406 3.84826 0.04 
469 1 1 0.425568 -0.118447 -0.82915 0 0 0 -1.04154 -1.85554 2.25731 0 0 -6.57473 -3.71879 2.18719 0.42886 0.04 
219 1 1 0.79276 -0.0750164 -0.868323 0 0 0 -1.78312 2.73486 0.96916 0 0 -6.57473 -15.3525 8.28307 18.3589 0.04 
363 1 1 -0.894302 0.0291679 -0.884087 0 0 0 -2.10248 1.45867 -0.010662 0 0 -6.57473 -27.7527 -3.84899 -9.98432 0.04 
200 1 1 0.364978 0.0505284 -0.905323 0 0 0 3.19293 3.41715 0.23934 0 0 -6.57473 -13.3645 0.833811 -3.06795 0.04 
525 1 1 -0.894796 0.0740971 -0.965422 0 0 0 -0.731252 -0.6327 2.14259 -167.651 -234.222 -72.2841 -23.201 3.76413 0.156089 0.04 
555 1 1 -0.38452 0.0399403 -0.924302 0 0 0 0.859684 0.888479 -1.15427 -146.293 -260.761 -183.392 15.1 21.0282 -14.6279 0.04 
601 1 1 -0.254008 0.148151 -0.899629 0 0 0 -0.572015 4.69238 -1.34428 0 0 -6.57473 -30.2922 8.74024 -6.94825 0.04 
190 1 1 -0.0260129 -0.00318649 -0.929205 0 0 0 0.625686 -0.504596 -2.79026 0 0 -6.57473 2.3583 0.343966 -3.60805 0.04 
393 1 1 0.549713 0.0718163 -0.915073 0 0 0 2.23556 3.11691 -2.22704 0 0 -6.57473 -2.42309 4.99132 -1.93719 0.04 
455 1 1 0.758673 0.0211497 -0.932015 0 0 0 2.24086 0.614488 -3.54634 0 0 -6.57473 -4.01343 9.06355 0.0723654 0.04 
663 1 1 0.684092 0.0961874 -0.837093 0 0 0 2.40048 1.5565 -0.179183 0 0 -6.57473 -19.2806 7.77217 -4.62288 0.04 
295 1 1 0.876806 0.155486 -0.904527 0 0 0 -1.1684 2.98395 -1.55511 0 0 -6.57473 -12.0132 -7.99554 2.99922 0.04 
88 1 1 -0.498613 0.197531 -0.85285 0 0 0 1.16048 2.15984 1.12087 0 0 -6.57473 -1.74211 -1.77657 12.1551 0.04 
237 1 1 0.235943 0.211349 -0.956917 0 0 0 1.46512 3.0142 4.19253 -1.82803 1.75584 -6.11507 -14.0591 14.3949 -18.0517 0.04 
575 1 1 0.290922 0.157078 -0.974804 0 0 0 1.20272 -0.141166 -0.855044 -39.8634 1.31595 829.055 -0.398705 17.1465 -8.33137 0.04 
337 1 1 0.69992 0.197498 -0.922849 0 0 0 0.0782438 1.42423 -1.51223 38.3967 -56.3563 -35.9948 0.919186 -15.4919 -5.01916 0.04 
271 1 1 0.662978 0.257295 -0.890085 0 0 0 0.294753 3.58509 -0.143391 -38.3967 56.3563 22.8454 13.0419 -21.7806 -17.4884 0.04 
365 1 1 -0.935632 0.280445 -0.870529 0 0 0 -0.8843 1.11834 -0.434986 -40.1839 280.32 -134.491 17.243 18.2225 0.0758699 0.04 
292 1 1 -0.880139 0.330115 -0.935855 0 0 0 -0.0931886 3.24808 -0.902235 0 0 -6.57473 -15.6528 2.58828 -0.35482 0.04 
304 1 1 -0.338436 0.415177 -0.900279 0 0 0 -5.5066 1.75211 -0.538617 0 0 -6.57473 -30.0271 -2.11175 -1.15777 0.04 
62 1 1 0.940322 0.396712 -0.888928 0 0 0 1.40384 1.06985 -0.173787 0 0 -6.57473 48.4455 23.857 -12.3425 0.04 
16 1 1 0.7484 0.563955 -0.908532 0 0 0 -1.67212 2.87599 0.311247 0 0 -6.57473 -15.4557 -9.20574 -4.12836 0.04 
276 1 1 0.281474 0.597686 -0.950761 0 0 0 3.73714 2.79236 -2.86354 0 0 -6.57473 -12.7279 -13.1802 -13.7478 0.04 
119 1 1 -0.93258 0.713438 -0.920667 0 0 0 0.0634176 3.27912 -1.30042 0 0 -6.57473 -1.49769 15.3497 1.42899 0.04 
476 1 1 0.596399 0.919406 -0.917446 0 0 0 -0.494558 5.11476 -2.0501 0 0 -6.57473 -1.18593 -5.28627 -9.99445 0.04 
73 1 1 -0.449734 -0.949636 -0.812618 0 0 0 0.427859 0.697865 1.08957 -2.80884 -3.12324 7.8689 11.523 -16.7806 -14.4883 0.04 
472 1 1 0.777369 -0.902321 -0.878172 0 0 0 1.3238 3.03908 -2.94305 0 0 -6.57473 -9.42779 6.58142 -2.54431 0.04 
137 1 1 -0.814658 -0.863151 -0.895065 0 0 0 -1.46649 0.819542 -1.97672 0 0 -6.57473 31.9984 -7.20972 -6.13774 0.04 
307 1 1 0.151383 -0.896477 -0.818775 0 0 0 -2.64278 -1.60659 -0.846092 0 0 -6.57473 -5.70232 -16.7179 -10.6122 0.04 
260 1 1 -0.664446 -0.775201 -0.878969 0 0 0 -0.240904 1.41274 -3.12546 0 0 -6.57473 -0.464886 21.3299 -24.5683 0.04 
27 1 1 -0.592987 -0.858028 -0.847445 0 0 0 -2.00063 -1.66986 0.276036 0 0 -6.57473 9.07043 21.6691 12.5927 0.04 
30 1 1 -0.0675494 -0.91768 -0.83091 0 0 0 -0.758946 -3.01735 1.52407 0 0 -6.57473 17.1074 4.17792 0.425159 0.04 
87 1 1 0.865455 -0.815443 -0.854499 0 0 0 -3.16363 1.31464 -0.598087 0 0 -6.57473 12.4552 15.9044 -26.7977 0.04 
323 1 1 -0.3891 -0.761387 -0.81659 0 0 0 2.3944 1.76091 0.962805 0 0 -6.57473 3.73016 -8.86033 35.0591 0.04 
177 1 1 0.702477 -0.757964 -0.85575 0 0 0 -1.18675 0.692093 0.0554676 0 0 -6.57473 -34.6198 -6.71582 -14.3788 0.04 
373 1 1 -0.781712 -0.727401 -0.774766 0 0 0 -0.414133 -4.18501 0.779426 -16.131 -222.294 -42.4535 27.3685 -6.11042 -12.1162 0.04 
80 1 1 0.00626619 -0.707257 -0.809656 0 0 0 -4.11455 1.18624 -0.196409 0 0 -6.57473 -44.3598 -30.2899 1.01561 0.04 
209 1 1 -0.261155 -0.647768 -0.869092 0 0 0 0.438205 -1.91539 -1.32127 0 0 -6.57473 1.38543 -17.4586 16.0792 0.04 
222 1 1 0.13415 -0.656204 -0.831502 0 0 0 0.525586 -0.587131 1.36024 0 0 -6.57473 -1.43118 -9.61663 7.26226 0.04 
470 1 1 0.217654 -0.672502 -0.893318 0 0 0 1.4407 -1.62457 -4.00167 0 0 -6.57473 12.5213 4.8186 -2.98142 0.04 
341 1 1 0.339547 -0.559729 -0.905044 0 0 0 -1.09194 -1.26963 -1.88826 -24.1219 -5.5341 17.4395 -4.0842 -16.1693 -15.5272 0.04 
519 1 1 0.432377 -0.623989 -0.822832 0 0 0 0.660906 -4.20664 0.315022 0 0 -6.57473 21.6244 -7.10958 3.13663 0.04 
656 1 1 0.527919 -0.627974 -0.969761 0 0 0 -0.476104 -4.07519 -6.00098 1.25746 31.0612 615.158 -2.78445 -8.65404 12.8396 0.04 
351 1 1 0.682221 -0.524684 -0.87535 0 0 0 1.12794 0.545442 -0.130738 47.4992 -117.815 569.427 -23.051 17.5281 -20.5144 0.04 
170 1 1 -0.698706 -0.501363 -0.811907 0 0 0 -1.81982 -2.3492 -0.19404 0 0 -6.57473 -15.4317 -4.90245 -15.6875 0.04 
402 1 1 -0.436457 -0.500554 -0.88114 0 0 0 -0.0218048 -0.342209 -1.12331 0 0 -6.57473 13.0077 9.58207 3.56764 0.04 
380 1 1 -0.399772 -0.596529 -0.825834 0 0 0 -0.0655621 -3.85405 -1.2941 0 0 -6.57473 3.64928 6.71105 -5.12007 0.04 
473 1 1 -0.210375 -0.543564 -0.863463 0 0 0 1.46902 -2.65511 -2.69156 0 0 -6.57473 2.22149 1.2723 -9.97159 0.04 
528 1 1 0.0354052 -0.540383 -0.862131 0 0 0 0.182383 -1.54597 -1.12885 0 0 -6.57473 13.6853 1.94775 -7.92753 0.04 
395 1 1 0.930372 -0.549169 -0.818905 0 0 0 0.909947 -2.18232 -0.0367037 0 0 -6.57473 5.83433 -17.1865 3.18199 0.04 
427 1 1 -0.809584 -0.441437 -0.826009 0 0 0 0.568804 -2.13827 1.15572 0 0 -6.57473 2.1623 -0.0340215 13.2334 0.04 
313 1 1 -0.545732 -0.450748 -0.86802 0 0 0 -0.532189 -0.718274 -1.55427 80.7794 50.9655 16.8754 -15.7844 7.62971 1.23454 0.04 
130 1 1 -0.0486275 -0.492808 -0.908096 0 0 0 0.841787 -3.40177 -4.40293 189.264 -90.3175 256.729 12.4159 -13.5851 1.39137 0.04 
235 1 1 0.1845 -0.413992 -0.831931 0 0 0 0.0655118 -0.598337 -0.476471 0 0 -6.57473 -18.7009 -4.61565 3.86072 0.04 
122 1 1 0.910752 -0.370803 -0.901135 0 0 0 -1.94027 2.32074 -3.97414 -339.998 -155.766 300.535 -17.2515 -0.617928 -2.79159 0.04 
474 1 1 -0.521847 -0.371143 -0.867216 0 0 0 -2.89484 -0.50594 -2.21657 0 0 -6.57473 2.19941 -11.2882 1.20804 0.04 
54 1 1 -0.385834 -0.419599 -0.792161 0 0 0 0.93099 -2.54598 0.844743 0 0 -6.57473 -10.8367 -29.7612 1.3511 0.04 
396 1 1 0.539051 -0.413365 -0.852113 0 0 0 2.26103 -0.874006 -2.18736 0 0 -6.57473 5.14781 -14.8907 -8.41525 0.04 
111 1 1 -0.463272 -0.257708 -0.877574 0 0 0 -1.52573 1.35454 -3.52928 0 0 -6.57473 28.8008 2.58533 2.27434 0.04 
425 1 1 0.277078 -0.323991 -0.976329 0 0 0 2.15403 -0.669344 -4.30304 -42.5032 176.077 935.171 17.0374 14.9093 10.9172 0.04 
356 1 1 0.878927 -0.256163 -0.873489 0 0 0 -2.45845 0.657819 -3.39765 0 0 -6.57473 12.9629 -14.1693 -5.83148 0.04 
241 1 1 -0.600685 -0.256839 -0.827895 0 0 0 -0.0361533 -0.743356 -2.27586 0 0 -6.57473 4.17212 -3.17024 6.29406 0.04 
789 1 1 -0.389086 -0.284993 -0.901839 0 0 0 2.28624 -1.56657 -3.77869 335.116 -86.0012 433.202 -5.03398 13.1028 -23.9199 0.04 
721 1 1 -0.108579 -0.280693 -0.868284 0 0 0 -0.0180206 -0.987518 -2.18597 0 0 -6.57473 8.62118 -10.2434 1.65155 0.04 
284 1 1 0.223295 -0.237757 -0.8701 0 0 0 0.366092 1.23045 -2.4823 0 0 -6.57473 10.7175 -11.156 -7.34116 0.04 
418 1 1 -0.859755 -0.141031 -0.856976 0 0 0 3.2431 1.4447 -1.8645 0 0 -6.57473 5.64717 -9.78031 2.07024 0.04 
286 1 1 -0.421249 -0.165591 -0.881287 0 0 0 -1.61455 1.2096 -2.23411 0 0 -6.57473 0.660478 -5.88721 2.67658 0.04 
664 1 1 0.477175 -0.194716 -0.97882 0 0 0 2.90172 0.226102 -4.00475 -54.3049 -8.93762 1094.14 5.5024 15.2219 0.541233 0.04 
148 1 1 0.810935 -0.171287 -0.830019 0 0 0 0.353329 0.00128589 0.0217675 0 0 -6.57473 7.10927 7.69855 10.4409 0.04 
347 1 1 -0.959643 -0.090085 -0.848174 0 0 0 -1.05414 -1.23824 -0.393982 0 0 -6.57473 18.9749 8.62638 4.20314 0.04 
416 1 1 -0.75329 -0.105709 -0.889498 0 0 0 1.26583 0.999842 0.87665 0 0 -6.57473 -8.16657 -8.00376 -12.8492 0.04 
318 1 1 -0.152699 -0.0926896 -0.797711 0 0 0 -0.757122 0.533413 3.26798 0 0 -6.57473 -13.63 -14.7704 -8.0829 0.04 
325 1 1 -0.0960257 -0.0615939 -0.92093 0 0 0 -2.01522 1.39033 -4.93294 0 0 -6.57473 1.59773 19.2304 4.1257 0.04 
640 1 1 0.286935 -0.0727463 -0.840972 0 0 0 4.62878 1.60669 -0.900301 0 0 -6.57473 16.7266 34.7515 -12.8756 0.04 
127 1 1 -0.450356 -0.0154667 -0.879717 0 0 0 2.83108 -0.309296 -1.26406 0 0 -6.57473 7.25079 1.08244 24.9396 0.04 
625 1 1 -0.0857127 0.0717289 -0.868803 0 0 0 0.371974 2.12642 -0.995327 237.32 48.2406 189.734 -6.84555 5.31196 0.529566 0.04 
487 1 1 -0.867891 0.112785 -0.917347 0 0 0 2.31008 4.79335 -1.62418 207.469 223.788 318.376 -10.2125 19.0727 -4.21312 0.04 
24 1 1 -0.931995 0.152344 -0.891545 0 0 0 3.13186 -0.852514 -2.8188 -40.7643 -27.3558 -29.9038 70.0382 38.4698 6.25186 0.04 
163 1 1 0.173567 0.265539 -0.804024 0 0 0 3.56036 2.07876 0.715906 0 0 -6.57473 -16.077 23.1507 1.62233 0.04 
414 1 1 0.301587 0.247829 -0.772477 0 0 0 1.58545 1.71078 -0.0856749 0 0 -6.57473 -21.971 -19.9207 5.31105 0.04 
280 1 1 0.254981 0.429899 -0.863721 0 0 0 -3.63933 2.54503 -1.94295 0 0 -6.57473 9.20651 37.5924 -22.1727 0.04 
98 1 1 -0.897861 0.451416 -0.813126 0 0 0 -0.108875 2.91674 -0.119696 0 0 -6.57473 -15.1287 13.2662 -1.75449 0.04 
197 1 1 -0.619158 0.450903 -0.802385 0 0 0 1.20785 1.68091 0.247746 0 0 -6.57473 -22.5916 17.1126 8.35341 0.04 
107 1 1 -0.455267 0.572688 -0.802371 0 0 0 3.24969 1.69191 0.266741 0 0 -6.57473 -0.84176 -4.3923 3.30905 0.04 
359 1 1 0.58481 0.865462 -0.838878 0 0 0 2.30405 3.69015 0.984906 0 0 -6.57473 -17.0561 21.6978 -9.59183 0.04 
136 1 1 0.149064 0.777601 -0.842302 0 0 0 2.97247 -3.44761 0.646625 0 0 -6.57473 -23.1137 9.19318 36.1158 0.04 
94 1 1 -0.400862 0.893015 -0.863095 0 0 0 -1.18772 -3.47141 -0.821484 0 0 -6.57473 20.0069 8.89755 -22.3104 0.04 
246 1 1 -0.722925 -0.961732 -0.775184 0 0 0 1.02355 1.30841 -2.23207 -1.32833 79.5649 -2.8248 4.4561 6.31158 -4.38047 0.04 
103 1 1 0.451379 -0.918787 -0.755595 0 0 0 0.857423 2.96386 1.35973 0 0 -6.57473 13.2648 43.3446 -5.66987 0.04 
79 1 1 0.894268 -0.936068 -0.838438 0 0 0 -0.381369 0.0441311 -2.5011 0 0 -6.57473 7.79431 8.37068 8.22816 0.04 
173 1 1 -0.844617 -0.879839 -0.766883 0 0 0 -0.896342 -0.0859352 0.118818 0 0 -6.57473 17.58 -10.0597 -9.08348 0.04 
437 1 1 0.37061 -0.830308 -0.823301 0 0 0 1.89341 2.41954 -3.74357 0 0 -6.57473 -12.623 -2.37659 5.62531 0.04 
430 1 1 0.562795 -0.930697 -0.804595 0 0 0 3.14666 -0.221647 -0.979673 0 0 -6.57473 8.99327 2.66827 1.28839 0.04 
188 1 1 0.640276 -0.878068 -0.782068 0 0 0 2.19037 0.0784496 -0.306001 0 0 -6.57473 21.6193 -10.8942 -12.2581 0.04 
239 1 1 -0.958258 -0.814556 -0.75407 0 0 0 -0.317416 0.221668 1.95786 0 0 -6.57473 -6.05862 -5.75938 -8.33474 0.04 
72 1 1 -0.166177 -0.822503 -0.744359 0 0 0 2.79206 0.0777438 1.26965 24.8482 70.0443 -63.1906 7.6021 15.1307 -8.11585 0.04 
281 1 1 -0.735847 -0.789443 -0.718533 0 0 0 -0.955018 -0.602201 3.16481 0 0 -6.57473 15.9041 21.0577 1.45594 0.04 
169 1 1 0.041369 -0.759915 -0.740122 0 0 0 1.73096 0.486539 0.832424 0 0 -6.57473 30.1993 -16.3723 8.0617 0.04 
86 1 1 0.163152 -0.689657 -0.723992 0 0 0 1.32446 -1.17608 0.509986 0 0 -6.57473 14.3099 11.878 -4.06074 0.04 
151 1 1 0.51302 -0.738416 -0.72249 0 0 0 0.0344009 -1.16785 2.77735 0 0 -6.57473 -6.36357 -16.9323 8.74563 0.04 
74 1 1 0.585888 -0.670524 -0.764169 0 0 0 -0.394782 -0.102555 -0.442582 0 0 -6.57473 -59.551 -30.9886 -0.703334 0.04 
348 1 1 -0.577824 -0.650536 -0.773098 0 0 0 -0.178187 -1.34256 -0.0859538 0 0 -6.57473 10.1398 6.78681 5.40337 0.04 
116 1 1 -0.399073 -0.649664 -0.6941 0 0 0 0.0526581 -1.83617 2.45662 0 0 -6.57473 -8.0457 -1.50873 0.0116298 0.04 
383 1 1 -0.192965 -0.694602 -0.829595 0 0 0 -0.952694 -4.75699 -3.00631 0 0 -6.57473 6.9554 53.3197 -16.597 0.04 
506 1 1 0.911413 -0.659359 -0.828764 0 0 0 0.796456 -1.83287 -2.54148 0 0 -6.57473 -1.42687 -2.62931 -3.76155 0.04 
181 1 1 -0.937987 -0.582751 -0.805688 0 0 0 -1.73917 -2.23163 -1.22662 0 0 -6.57473 -6.63586 34.9139 7.85899 0.04 
465 1 1 -0.485148 -0.599454 -0.814329 0 0 0 1.5565 -2.64685 -0.910264 64.0494 -83.5355 298.792 -4.56908 10.4453 7.34412 0.04 
502 1 1 -0.0647881 -0.604517 -0.84091 0 0 0 0.579822 -3.51891 -4.235 0 0 -6.57473 -4.99413 -0.896852 0.426774 0.04 
215 1 1 0.722571 -0.604315 -0.843218 0 0 0 -0.23588 -1.33303 -2.95263 0 0 -6.57473 -13.6031 1.41205 17.9775 0.04 
478 1 1 -0.278249 -0.496036 -0.845599 0 0 0 0.890419 0.00431518 -2.8525 -57.8974 16.071 -97.4103 -6.08618 4.2926 4.20847 0.04 
386 1 1 -0.728021 -0.414917 -0.82126 0 0 0 -1.88249 0.638527 -2.68396 0 0 -6.57473 -7.16907 -3.79032 -25.5 0.04 
349 1 1 0.350718 -0.454399 -0.74165 0 0 0 0.238137 -1.26439 2.35869 0 0 -6.57473 4.73143 16.9308 -3.57786 0.04 
443 1 1 0.49916 -0.426146 -0.767642 0 0 0 0.133801 -0.328217 2.16885 0 0 -6.57473 -15.1874 11.8176 -9.88978 0.04 
81 1 1 0.600923 -0.40289 -0.749576 0 0 0 -1.16976 0.723205 2.46702 0 0 -6.57473 -3.4891 3.8141 -15.6227 0.04 
387 1 1 -0.809064 -0.303656 -0.785896 0 0 0 -0.404058 2.18046 -1.96188 0 0 -6.57473 -4.219 2.69674 -2.21731 0.04 
531 1 1 -0.670459 -0.339907 -0.819728 0 0 0 1.45275 0.78422 -0.196252 12.7961 -296.77 356.56 -12.2065 -2.7108 0.393576 0.04 
330 1 1 -0.302063 -0.3319 -0.758774 0 0 0 0.0832066 0.408531 2.23399 0 0 -6.57473 11.0527 -26.1822 -2.04774 0.04 
258 1 1 -0.163132 -0.351969 -0.774197 0 0 0 0.226078 1.16662 0.459695 0 0 -6.57473 14.9537 3.53704 3.56845 0.04 
617 1 1 0.404724 -0.401563 -0.844989 0 0 0 -0.178503 -1.91087 -4.6422 0 0 -6.57473 -1.80712 9.93046 -6.97339 0.04 
500 1 1 0.783639 -0.355716 -0.79781 0 0 0 -1.47059 -0.899124 -1.75437 -397.167 -258.584 438.084 4.06151 -5.3154 1.44291 0.04 
533 1 1 -0.522887 -0.323668 -0.753383 0 0 0 -2.08763 -2.3452 0.545217 -18.8565 1.20225 -7.04714 5.81262 -12.2124 3.52187 0.04 
482 1 1 -0.443605 -0.324861 -0.752314 0 0 0 -1.11431 0.506349 0.683279 18.8565 -1.20225 -6.10231 -3.63959 -5.30288 8.52502 0.04 
297 1 1 0.0328165 -0.29033 -0.729602 0 0 0 1.66191 -1.24115 1.04757 0 0 -6.57473 7.07801 0.103118 -7.72389 0.04 
461 1 1 0.622543 -0.290675 -0.712462 0 0 0 -1.96349 4.0428 -1.3249 5.81596 20.0708 -39.0009 -11.7157 13.0542 -52.7111 0.04 
312 1 1 -0.696076 -0.26205 -0.777374 0 0 0 -1.34267 -0.471644 -1.04358 0 0 -6.57473 9.34491 16.6212 -15.5396 0.04 
511 1 1 -0.73763 -0.157111 -0.82893 0 0 0 0.922658 -1.17401 -1.7051 0 0 -6.57473 -5.72683 -5.76778 -0.60967 0.04 
450 1 1 0.204694 -0.112165 -0.801396 0 0 0 0.373612 1.21507 -1.7834 0 0 -6.57473 -6.65893 -3.81704 -4.33811 0.04 
102 1 1 -0.280343 -0.109914 -0.701526 0 0 0 -0.175294 -0.612603 2.43362 0 0 -6.57473 1.46254 9.39113 9.12043 0.04 
580 1 1 0.224218 -0.0468834 -0.696586 0 0 0 2.23238 0.363087 2.90143 0 0 -6.57473 -0.793537 14.1817 -5.91341 0.04 
370 1 1 0.622686 -0.0863193 -0.735562 0 0 0 2.25363 -2.04386 2.402 0 0 -6.57473 -31.6002 -9.05716 3.15038 0.04 
291 1 1 0.622192 0.077473 -0.757131 0 0 0 -2.55626 0.707376 3.4798 0 0 -6.57473 15.4432 -18.0019 -19.9046 0.04 
501 1 1 0.557632 0.0212977 -0.807667 0 0 0 -3.47595 0.156335 -3.01628 0 0 -6.57473 2.00506 -22.5811 5.19458 0.04 
199 1 1 0.706429 0.0444954 -0.756752 0 0 0 -1.87265 0.525526 -1.37078 0 0 -6.57473 3.98421 -9.30992 -6.59029 0.04 
785 1 1 -0.355058 0.0951763 -0.891098 0 0 0 1.07276 1.7764 -5.95979 146.293 260.761 170.242 -24.0757 16.05 -9.86481 0.04 
238 1 1 -0.0257101 0.183363 -0.766664 0 0 0 -2.18144 2.93209 -1.84647 35.7363 -22.1557 -31.399 -0.279051 25.7389 -22.7418 0.04 
269 1 1 -0.692896 0.130373 -0.801117 0 0 0 1.70771 -0.311203 -0.193458 0 0 -6.57473 8.31251 0.687294 2.90503 0.04 
633 1 1 -0.286592 0.198832 -0.705844 0 0 0 1.38652 2.15489 3.99584 0 0 -6.57473 -39.5528 26.603 -9.74007 0.04 
403 1 1 -0.926003 0.215203 -0.844611 0 0 0 0.139873 -3.28614 -2.44893 47.9788 -230.65 159.676 7.29586 0.0091953 -0.63797 0.04 
343 1 1 -0.858489 0.324888 -0.772977 0 0 0 0.946969 -0.202645 0.766807 0 0 -6.57473 13.7439 8.28276 0.368127 0.04 
97 1 1 -0.124683 0.340315 -0.782089 0 0 0 -0.857949 1.8714 -0.187254 0 0 -6.57473 28.3329 10.1173 -5.97891 0.04 
468 1 1 0.494733 0.389732 -0.750937 0 0 0 0.312358 3.32738 0.460895 0 0 -6.57473 2.52157 -5.04001 4.62771 0.04 
462 1 1 -0.921547 0.529894 -0.795431 0 0 0 0.166943 3.36913 -1.07592 0 0 -6.57473 -11.7585 2.93577 -2.55718 0.04 
153 1 1 -0.406975 0.629941 -0.748397 0 0 0 0.00983212 3.01924 0.916042 0 0 -6.57473 -23.0271 -0.620289 -2.26515 0.04 
263 1 1 0.822499 0.540179 -0.745251 0 0 0 0.165719 -4.01498 1.47235 0 0 -6.57473 -27.3962 4.77155 5.2699 0.04 
333 1 1 -0.241468 0.847481 -0.731769 0 0 0 1.24668 -3.29947 0.446129 0 0 -6.57473 2.66167 1.36402 6.38625 0.04 
324 1 1 0.65021 0.85156 -0.791725 0 0 0 3.08322 -4.32564 -0.724836 0 0 -6.57473 48.6237 6.45098 23.0163 0.04 
514 1 1 -0.190414 -0.879302 -0.696678 0 0 0 1.15744 3.40934 -0.0994542 -24.8482 -70.0443 50.0411 1.03137 10.6989 -13.5917 0.04 
287 1 1 -0.624803 -0.968287 -0.675272 0 0 0 0.624518 0.262083 -0.321039 -9.91164 458.449 14.094 5.34426 -3.6747 -10.6309 0.04 
320 1 1 -0.915042 -0.781346 -0.692092 0 0 0 -4.78594 -0.389828 0.196433 0 0 -6.57473 13.922 -7.21441 13.1342 0.04 
55 1 1 -0.615903 -0.785707 -0.671415 0 0 0 1.35108 0.65971 2.79343 0 0 -6.57473 19.8492 10.7871 35.414 0.04 
289 1 1 -0.324773 -0.810806 -0.70496 0 0 0 -1.03153 -2.40002 -0.341437 0 0 -6.57473 -5.28291 23.8416 11.4995 0.04 
205 1 1 -0.75396 -0.713224 -0.660207 0 0 0 -2.40346 0.399515 1.20013 0 0 -6.57473 15.113 -14.4928 0.637256 0.04 
301 1 1 -0.038036 -0.669491 -0.664135 0 0 0 -1.33178 1.67722 2.66494 0 0 -6.57473 22.8328 -7.46361 -0.172269 0.04 
31 1 1 0.207246 -0.779665 -0.719066 0 0 0 -2.03413 -3.94707 0.0624422 0 0 -6.57473 22.2189 4.10856 9.04309 0.04 
578 1 1 0.654373 -0.631838 -0.70408 0 0 0 -5.53455 -1.17242 -1.68455 0 0 -6.57473 22.8547 -3.29652 -69.3525 0.04 
471 1 1 -0.922363 -0.6209 -0.705917 0 0 0 0.145487 -1.5588 -0.0852518 0 0 -6.57473 -7.57763 -7.96987 4.46762 0.04 