ITEM: TIMESTEP
8200
ITEM: NUMBER OF ATOMS
603
ITEM: BOX BOUNDS ff ff ff
-1 1
-1 1
-1 1
ITEM: ATOMS id type type x y z ix iy iz vx vy vz fx fy fz omegax omegay omegaz radius 
9 1 1 0.3782 -0.740496 -0.966949 0 0 0 3.10353 -2.43569 0.885226 -14.7613 11.6227 369.183 12.392 16.015 -9.74294 0.04 
79 1 1 0.59763 -0.662825 -0.972264 0 0 0 1.43142 -2.09124 -1.83067 -19.2711 29.6464 700.612 -3.25686 -0.00435264 1.79354 0.04 
231 1 1 0.953023 -0.666861 -0.979411 0 0 0 0.855258 -2.27336 0.686635 -18.6247 50.3058 1066.28 -2.98688 -0.656923 4.24965 0.04 
50 1 1 -0.923071 -0.426968 -0.953402 0 0 0 0.808703 -0.209188 4.012 0 0 -6.57473 7.02913 27.161 -3.54832 0.04 
87 1 1 0.173415 -0.414281 -0.928791 0 0 0 0.554965 -0.137433 3.9277 0 0 -6.57473 5.75266 22.9958 -0.408998 0.04 
92 1 1 -0.342415 -0.352434 -0.943706 0 0 0 1.12117 0.0448236 4.51048 0 0 -6.57473 -0.582291 26.1582 4.51133 0.04 
64 1 1 -0.13185 -0.333374 -0.901768 0 0 0 -1.42033 0.245813 3.33822 0 0 -6.57473 -9.30171 -9.52812 -14.8096 0.04 
37 1 1 -0.94779 -0.276171 -0.927541 0 0 0 -0.0201048 -0.0243861 4.11598 0 0 -6.57473 14.881 16.3344 -3.769 0.04 
72 1 1 -0.877259 -0.320809 -0.926408 0 0 0 0.594079 -0.386617 3.81358 0 0 -6.57473 0.829941 1.27517 0.435305 0.04 
353 1 1 0.408028 -0.249191 -0.953487 0 0 0 -0.516853 -1.0812 4.9182 0 0 -6.57473 22.2861 -11.6323 5.98739 0.04 
293 1 1 0.802095 -0.258305 -0.909843 0 0 0 1.64703 -2.47327 3.59195 0 0 -6.57473 19.7315 16.6982 2.68386 0.04 
156 1 1 0.162107 -0.16464 -0.946412 0 0 0 0.47897 -0.0861546 4.59394 0 0 -6.57473 2.15441 13.0406 4.62141 0.04 
135 1 1 -0.533483 -0.0488985 -0.934347 0 0 0 0.661755 2.95378 3.13736 0 0 -6.57473 18.6763 -2.3107 18.8046 0.04 
52 1 1 -0.694977 -0.642266 -0.935675 0 0 0 0.222636 -2.9829 -3.64265 0 0 -6.57473 2.40873 11.133 9.66711 0.04 
55 1 1 -0.0799524 -0.636483 -0.870196 0 0 0 -1.22261 -3.81197 1.9238 0 0 -6.57473 9.76104 9.93534 -3.03896 0.04 
31 1 1 0.216464 -0.565962 -0.963405 0 0 0 0.516352 -1.27224 -4.12352 -4.4972 11.2957 236.587 2.16968 1.11859 3.69672 0.04 
42 1 1 0.673305 -0.615956 -0.889956 0 0 0 0.161901 -2.97034 3.10311 0 0 -6.57473 23.7109 7.40453 0.906338 0.04 
45 1 1 0.00126635 -0.465924 -0.94308 0 0 0 1.40976 1.74274 -2.63865 0 0 -6.57473 -10.8257 5.44097 2.36378 0.04 
49 1 1 0.860919 -0.481973 -0.917979 0 0 0 -1.83169 -4.5936 -2.51007 0 0 -6.57473 9.10084 -6.65362 4.84016 0.04 
88 1 1 -0.621985 -0.351315 -0.833181 0 0 0 -0.407221 -0.207588 3.6554 95.7834 -9.11098 -441.981 5.44164 -12.0023 4.05099 0.04 
73 1 1 -0.494048 -0.375775 -0.964427 0 0 0 -0.311369 -0.327369 -3.91844 13.5282 6.18304 290.909 2.27813 5.5498 2.83672 0.04 
238 1 1 0.0739825 -0.394141 -0.934828 0 0 0 0.276688 -2.34233 -5.81882 0 0 -6.57473 -9.9075 11.6286 -6.98845 0.04 
58 1 1 0.93196 -0.34442 -0.886406 0 0 0 1.22834 2.08507 1.83518 0 0 -6.57473 33.1703 -25.677 7.44946 0.04 
225 1 1 0.638261 -0.332353 -0.971801 0 0 0 -1.19147 -1.12844 -2.7073 31.3262 14.7752 686.141 14.9722 2.88909 -10.5615 0.04 
71 1 1 0.0206287 -0.220534 -0.97194 0 0 0 -0.0806409 0.062925 -2.35187 19.4617 4.64927 689.323 -1.44387 -3.07198 2.66397 0.04 
113 1 1 0.451782 -0.143252 -0.854494 0 0 0 -0.170697 0.646643 4.11139 0 0 -6.57473 1.73751 -17.439 -3.23555 0.04 
333 1 1 -0.742517 -0.0875256 -0.872946 0 0 0 0.165315 0.726818 4.33246 124.723 261.313 -516.777 16.493 -2.5095 -6.30181 0.04 
276 1 1 -0.663763 -0.0953625 -0.8335 0 0 0 -0.0780202 0.156461 5.19101 0 0 -6.57473 -1.08772 -12.2529 -1.7153 0.04 
94 1 1 0.0658728 -0.118736 -0.883909 0 0 0 0.71659 -1.40447 3.78222 0 0 -6.57473 18.8657 3.79641 -4.70247 0.04 
383 1 1 0.314148 -0.11332 -0.949569 0 0 0 1.74832 -0.199869 -6.2363 0 0 -6.57473 -13.987 16.8135 -13.593 0.04 
288 1 1 0.0368826 -0.00424845 -0.85331 0 0 0 1.0375 0.872343 3.74401 0 0 -6.57473 10.221 34.3302 -13.5137 0.04 
351 1 1 0.516065 -0.601591 -0.84974 0 0 0 2.01738 5.92081 -3.56991 30.9995 -19.8121 -25.133 -19.126 25.7215 -21.3411 0.04 
60 1 1 0.456606 -0.567079 -0.812201 0 0 0 -0.202649 -0.383889 4.37549 -30.9995 19.8121 11.9836 28.383 8.86701 2.996 0.04 
230 1 1 -0.670993 -0.520855 -0.863028 0 0 0 -0.278675 -2.39758 -4.03525 0 0 -6.57473 -0.634157 8.21799 -3.84446 0.04 
272 1 1 0.743828 -0.462414 -0.793221 0 0 0 -0.343959 -3.4215 3.37456 0 0 -6.57473 -6.63323 5.49026 22.608 0.04 
30 1 1 -0.0280537 -0.385361 -0.870381 0 0 0 -1.01861 -1.03979 -3.80645 9.73139 -12.9283 -18.3667 2.92788 1.8877 1.0408 0.04 
17 1 1 0.755689 -0.343672 -0.864828 0 0 0 -0.967994 0.121262 -2.596 0 0 -6.57473 -1.90916 -0.283356 -2.88156 0.04 
83 1 1 -0.521833 -0.317822 -0.8384 0 0 0 0.20244 0.317237 -2.88874 0 0 -6.57473 -2.24465 9.76031 15.463 0.04 
191 1 1 0.833242 -0.266508 -0.783517 0 0 0 2.47227 1.15022 3.94641 0 0 -6.57473 17.6027 24.1112 -12.8678 0.04 
127 1 1 -0.925077 -0.214038 -0.862135 0 0 0 -1.37733 -0.373275 -5.41109 0 0 -6.57473 29.5258 -8.38928 11.5937 0.04 
13 1 1 -0.381491 -0.235188 -0.866459 0 0 0 0.314816 -0.114473 -4.13895 0 0 -6.57473 -5.64911 -5.28123 -2.50679 0.04 
337 1 1 0.855598 -0.203507 -0.860523 0 0 0 -0.154906 0.0931866 -4.35078 0 0 -6.57473 3.26663 5.5258 -4.11738 0.04 
332 1 1 -0.724982 -0.165462 -0.8959 0 0 0 0.556472 -0.785061 -5.08785 0 0 -6.57473 -4.35223 8.68977 -8.46353 0.04 
119 1 1 -0.958054 -0.0546643 -0.857273 0 0 0 0.52679 -0.104564 -4.26009 0 0 -6.57473 0.252821 1.39834 0.127483 0.04 
237 1 1 -0.399327 -0.0373211 -0.84907 0 0 0 0.500598 0.046854 -4.351 0 0 -6.57473 -2.37052 0.426871 -10.9583 0.04 
16 1 1 0.930039 -0.018029 -0.829608 0 0 0 0.486697 1.44431 -1.38502 0 0 -6.57473 -1.70779 4.54374 -3.18645 0.04 
90 1 1 -0.888264 -0.81001 -0.715677 0 0 0 -1.57793 -2.33853 4.32481 0 0 -6.57473 28.2377 -20.7455 5.29475 0.04 
19 1 1 0.349653 -0.715991 -0.770212 0 0 0 -1.46577 -1.5905 -3.38838 0 0 -6.57473 2.55456 5.28047 3.41348 0.04 
66 1 1 0.706082 -0.718932 -0.731304 0 0 0 0.584664 -1.76947 4.70064 0 0 -6.57473 32.405 8.86558 5.23465 0.04 
85 1 1 -0.831463 -0.597117 -0.801913 0 0 0 0.282932 -2.31584 -2.60096 0 0 -6.57473 9.09068 -3.30855 0.567218 0.04 
5 1 1 -0.518256 -0.421718 -0.771362 0 0 0 -1.90788 0.403068 -3.05119 0 0 -6.57473 -7.38608 -4.34119 -4.92102 0.04 
168 1 1 -0.0567844 -0.405636 -0.783388 0 0 0 -0.748918 -0.150483 -4.226 0 0 -6.57473 1.11892 -0.295644 -2.28321 0.04 
306 1 1 0.37527 -0.458096 -0.688649 0 0 0 1.01736 -1.74481 5.6668 0 0 -6.57473 25.3823 22.864 -10.9052 0.04 
54 1 1 0.00503457 -0.343669 -0.771339 0 0 0 -1.94176 1.83815 -2.44781 0 0 -6.57473 0.0372661 -5.26444 -7.94325 0.04 
57 1 1 -0.441247 -0.31888 -0.818916 0 0 0 1.29328 -0.650171 -3.71307 0 0 -6.57473 -1.57702 -0.512659 -0.210409 0.04 
234 1 1 -0.339002 -0.327443 -0.822285 0 0 0 0.284562 -1.25258 -4.45176 0 0 -6.57473 -6.33738 5.73925 -7.46064 0.04 
35 1 1 -0.0637114 -0.331466 -0.824119 0 0 0 0.285276 -0.1724 -3.97603 -9.73139 12.9283 5.2173 0.312153 0.779596 0.688694 0.04 
111 1 1 -0.203654 -0.236817 -0.788012 0 0 0 0.301064 -0.802252 -4.44769 0 0 -6.57473 0.803095 -0.894795 1.14986 0.04 
28 1 1 0.771843 -0.210323 -0.820954 0 0 0 -0.445905 0.0359474 -3.94996 0 0 -6.57473 -0.734227 0.988556 0.511118 0.04 
315 1 1 0.0869677 -0.168678 -0.814459 0 0 0 -0.528826 1.84119 -5.18685 0 0 -6.57473 -17.0313 -10.6544 -6.11228 0.04 
141 1 1 0.710265 -0.162343 -0.792688 0 0 0 0.429173 0.508926 -4.63513 266.108 82.3821 -238.548 1.60542 -2.25615 -0.232233 0.04 
373 1 1 -0.757541 -0.119295 -0.817648 0 0 0 -0.23533 -0.567168 -5.03392 -124.723 -261.313 503.627 -2.70634 7.85196 -11.7771 0.04 
280 1 1 0.868288 -0.0865018 -0.791918 0 0 0 1.07616 -0.277628 -4.66407 0 0 -6.57473 -6.51743 2.50739 -9.74078 0.04 
124 1 1 0.722887 0.0634313 -0.739697 0 0 0 -0.183839 3.17843 3.5457 0 0 -6.57473 6.61031 -21.0991 6.18619 0.04 
2 1 1 -0.891802 0.130533 -0.798709 0 0 0 -0.179917 -0.130748 -3.89773 0 0 -6.57473 -0.719777 -2.09756 -0.247046 0.04 
15 1 1 0.715517 0.133227 -0.784405 0 0 0 -2.88661 2.55453 0.434362 0 0 -6.57473 5.23043 -22.7048 4.38371 0.04 
24 1 1 -0.293857 0.342379 -0.813803 0 0 0 0.785692 -3.38281 -7.98295 0 0 -6.57473 41.6953 -17.5477 16.3669 0.04 
80 1 1 0.566179 -0.913805 -0.71856 0 0 0 0.405973 3.75976 -2.75263 0 0 -6.57473 -16.0182 3.13608 1.70513 0.04 
326 1 1 -0.548452 -0.678434 -0.6851 0 0 0 -0.864937 -4.40105 4.5744 0 0 -6.57473 29.3552 1.69138 -7.46385 0.04 
192 1 1 0.138336 -0.68541 -0.745421 0 0 0 1.48462 -6.67163 -1.86181 0 0 -6.57473 -6.60709 -0.220502 -12.8446 0.04 
173 1 1 -0.729163 -0.617821 -0.773693 0 0 0 0.0203314 -3.0437 -4.63349 0 0 -6.57473 5.07019 0.497291 -1.63779 0.04 
76 1 1 0.00929988 -0.525209 -0.750073 0 0 0 -1.10947 -1.48558 -3.23186 0 0 -6.57473 -5.60798 6.25588 0.173325 0.04 
117 1 1 0.577354 -0.536576 -0.763621 0 0 0 0.176318 -1.18307 -3.92968 0 0 -6.57473 -1.75884 1.05907 2.14362 0.04 
137 1 1 -0.757416 -0.457085 -0.740172 0 0 0 0.334501 -2.50452 -2.41538 0 0 -6.57473 -4.21776 -27.4618 -6.13881 0.04 
103 1 1 0.0516613 -0.428603 -0.710699 0 0 0 0.0874076 -0.583855 -3.2309 0 0 -6.57473 -2.07353 3.32419 -11.5688 0.04 
34 1 1 -0.243736 -0.382093 -0.762993 0 0 0 -0.146059 -0.716598 -3.82055 0 0 -6.57473 -0.934561 3.21006 1.80056 0.04 
67 1 1 0.463194 -0.370111 -0.716031 0 0 0 0.512587 -2.976 -4.36934 0 0 -6.57473 -9.53218 -3.09195 -21.969 0.04 
110 1 1 0.888013 -0.359507 -0.746703 0 0 0 0.964493 -1.06353 -4.07454 0 0 -6.57473 -0.887475 0.211129 13.2828 0.04 
181 1 1 -0.89583 -0.31596 -0.73426 0 0 0 -1.19732 -1.03143 -3.88721 0 0 -6.57473 -10.8444 -0.220931 -0.385289 0.04 
26 1 1 -0.778041 -0.315421 -0.66533 0 0 0 -3.43792 -2.71557 1.50548 -52.1144 -213.259 -23.3863 14.1613 -7.08417 6.12041 0.04 
379 1 1 -0.637847 -0.353287 -0.764898 0 0 0 0.892487 -3.50425 -7.50557 -95.7834 9.11098 428.832 -5.64942 1.54156 -5.52913 0.04 
132 1 1 -0.735252 -0.210526 -0.730766 0 0 0 -0.591333 -0.216999 -3.99352 9.4724 12.1167 -34.361 0.190643 -0.263511 0.447412 0.04 
86 1 1 0.0727431 -0.285941 -0.70329 0 0 0 3.35743 -2.27516 -1.46146 0 0 -6.57473 8.06743 10.5442 -0.826797 0.04 
376 1 1 0.669458 -0.263795 -0.748623 0 0 0 1.48808 -2.93482 -5.75527 0 0 -6.57473 -5.91486 8.62148 -11.5123 0.04 
143 1 1 0.441279 -0.164425 -0.738143 0 0 0 1.13475 1.42204 -4.88324 0 0 -6.57473 3.22053 -5.80784 -2.35496 0.04 
277 1 1 0.581777 -0.179611 -0.745856 0 0 0 -0.664263 0.299476 -5.455 -148.993 -1.86505 -4.71487 -0.255263 -5.00325 -4.84887 0.04 
10 1 1 0.936146 -0.170717 -0.679898 0 0 0 -0.200121 -2.65475 4.83819 0 0 -6.57473 -23.6146 22.7275 8.87165 0.04 
167 1 1 -0.86812 -0.0284497 -0.729195 0 0 0 -0.298876 0.00784439 -3.57466 0 0 -6.57473 -0.0423543 0.652202 -0.110747 0.04 
146 1 1 -0.879135 0.0819509 -0.70672 0 0 0 0.00277031 0.0441361 -3.7787 0 0 -6.57473 -0.178338 0.112686 0.0796812 0.04 
193 1 1 -0.154679 0.290777 -0.666755 0 0 0 -0.430072 3.16642 3.09106 0 0 -6.57473 -12.8489 29.3126 -14.3943 0.04 
98 1 1 -0.918444 0.353661 -0.750902 0 0 0 0.374171 0.42599 -3.77466 0 0 -6.57473 -0.139541 2.86724 -1.37367 0.04 
214 1 1 -0.28643 -0.809241 -0.565153 0 0 0 3.41465 -2.55005 4.02632 0 0 -6.57473 18.6816 37.5732 -12.4095 0.04 
121 1 1 -0.417788 -0.645523 -0.67128 0 0 0 0.0383232 -1.39087 -3.61863 0 0 -6.57473 3.28199 -2.04437 -1.39031 0.04 
38 1 1 -0.205279 -0.661168 -0.629476 0 0 0 -4.08771 -1.47577 2.5656 0 0 -6.57473 -1.1018 39.2569 -17.8784 0.04 
161 1 1 0.0960796 -0.541964 -0.674465 0 0 0 -0.63793 -1.80235 -1.06599 0 0 -6.57473 -12.9449 -14.4355 -5.02626 0.04 
89 1 1 -0.842129 -0.405187 -0.572761 0 0 0 2.14807 4.46383 3.85891 0 0 -6.57473 -43.8062 -18.9797 11.3769 0.04 
152 1 1 -0.695646 -0.345042 -0.645009 0 0 0 1.10838 -0.119212 -2.6339 0 0 -6.57473 -1.10593 3.41453 5.04629 0.04 
105 1 1 -0.197901 -0.370453 -0.674998 0 0 0 0.214402 0.0671442 -3.792 0 0 -6.57473 0.324604 -6.30116 -4.40427 0.04 
174 1 1 0.703656 -0.380065 -0.647142 0 0 0 1.42248 -0.651201 -2.06639 0 0 -6.57473 29.6255 -9.34648 -9.95783 0.04 
219 1 1 0.959515 -0.376407 -0.648905 0 0 0 -0.899871 -0.341562 -4.01978 0 0 -6.57473 -2.05265 -3.2751 -2.11058 0.04 
148 1 1 0.191116 -0.350005 -0.68498 0 0 0 0.0822263 -1.99672 -5.63729 0 0 -6.57473 -4.13838 -4.88236 4.5816 0.04 
226 1 1 0.273546 -0.287343 -0.59201 0 0 0 -0.753915 -0.604106 4.48613 0 0 -6.57473 12.6566 -15.1062 -3.95979 0.04 
498 1 1 -0.759482 -0.244252 -0.663204 0 0 0 -0.531372 -1.02134 -5.34444 42.642 201.142 38.0231 -12.1994 6.98085 -9.52914 0.04 
153 1 1 -0.155214 -0.240335 -0.677371 0 0 0 0.573899 0.292546 -4.25523 0 0 -6.57473 1.07402 -1.3303 0.659318 0.04 
157 1 1 -0.0711683 -0.267447 -0.657223 0 0 0 0.674826 -1.90925 -1.86244 0 0 -6.57473 6.94265 3.42907 1.01764 0.04 
102 1 1 -0.648852 -0.186227 -0.687142 0 0 0 -0.355971 -0.136017 -3.8242 0 0 -6.57473 0.4436 -2.76787 -0.598693 0.04 
447 1 1 0.657471 -0.180707 -0.749988 0 0 0 -0.155995 -1.72206 -7.83881 -117.115 -80.5171 223.539 -10.2516 9.61015 -9.89983 0.04 
63 1 1 -0.202529 -0.062575 -0.592007 0 0 0 -3.76487 3.73049 1.28283 0 0 -6.57473 31.9273 36.112 8.79901 0.04 
136 1 1 -0.85527 0.0606173 -0.623965 0 0 0 3.14129 3.27335 -1.41718 0 0 -6.57473 -9.90942 -2.78167 18.6622 0.04 
144 1 1 -0.843653 -0.968477 -0.524265 0 0 0 1.39134 -0.301182 3.38681 -9.62635 476.324 -28.3588 30.233 -15.5554 -10.3955 0.04 
182 1 1 0.911106 -0.933899 -0.624136 0 0 0 1.96323 -4.23258 -2.94972 0 0 -6.57473 10.4702 4.52605 0.604328 0.04 
81 1 1 0.375567 -0.704087 -0.610281 0 0 0 -0.399218 -1.97046 -3.04064 0 0 -6.57473 -5.06028 2.55559 3.63156 0.04 
207 1 1 -0.50615 -0.655354 -0.5748 0 0 0 -0.0666085 -1.41525 -3.40514 0 0 -6.57473 3.67393 0.738174 -7.16944 0.04 
180 1 1 -0.540198 -0.505945 -0.632573 0 0 0 -0.0723594 -1.62011 -3.55746 0 0 -6.57473 2.63554 -0.674014 3.48857 0.04 
39 1 1 -0.316435 -0.508012 -0.501344 0 0 0 -1.54866 -0.734237 3.78968 0 0 -6.57473 13.8405 -26.3866 -5.19486 0.04 
118 1 1 0.150278 -0.5387 -0.587729 0 0 0 -0.978933 -1.41809 -2.85369 0 0 -6.57473 -2.82817 3.90357 2.39579 0.04 
169 1 1 -0.0622467 -0.445481 -0.604921 0 0 0 0.442384 -1.21855 -3.61974 0 0 -6.57473 -2.09683 -4.42661 5.03296 0.04 
177 1 1 0.90014 -0.465642 -0.566381 0 0 0 -1.15739 -0.596746 -2.53771 0 0 -6.57473 -3.33274 -10.4569 4.0822 0.04 
170 1 1 -0.488423 -0.349522 -0.580069 0 0 0 -0.0409154 -0.844496 -3.13231 0 0 -6.57473 -11.0682 0.925903 -10.6741 0.04 
138 1 1 -0.418617 -0.391013 -0.626466 0 0 0 0.0413132 -1.10967 -3.54887 0 0 -6.57473 1.30716 4.80756 1.83186 0.04 
235 1 1 -0.0134231 -0.388253 -0.563592 0 0 0 0.330071 0.244763 -2.78947 0 0 -6.57473 -1.35329 -0.943687 1.47367 0.04 
95 1 1 0.139386 -0.402595 -0.609634 0 0 0 0.337391 -1.68582 -4.69637 0 0 -6.57473 -2.95542 -3.76774 4.11427 0.04 
27 1 1 -0.908041 -0.330042 -0.601681 0 0 0 -2.64589 0.194809 -2.20328 0 0 -6.57473 -8.95509 7.62484 -2.21833 0.04 
241 1 1 -0.772972 -0.327848 -0.583639 0 0 0 0 0 -3.38398 0 0 -6.57473 0 0 0 0.04 
116 1 1 -0.607883 -0.325499 -0.585608 0 0 0 0.644789 -0.79413 -2.78817 0 0 -6.57473 -3.04946 -1.78996 0.840713 0.04 
163 1 1 -0.268105 -0.28813 -0.589141 0 0 0 0 0 -3.39985 0 0 -6.57473 0 0 0 0.04 
242 1 1 -0.168593 -0.288789 -0.598281 0 0 0 -0.62747 -0.474356 -3.57912 0 0 -6.57473 -8.51372 11.3454 -0.859072 0.04 
129 1 1 -0.872068 -0.231716 -0.601516 0 0 0 -0.324241 2.20023 -2.58601 0 0 -6.57473 -1.76199 2.77631 -6.75545 0.04 
189 1 1 0.139754 -0.248025 -0.614823 0 0 0 -2.21397 0.634557 -4.70855 0 0 -6.57473 4.42873 -0.964045 -2.33957 0.04 
130 1 1 0.481798 -0.259157 -0.54071 0 0 0 -2.47562 -0.193091 2.54997 0 0 -6.57473 23.5555 6.19862 -7.48538 0.04 
262 1 1 -0.820655 -0.0845094 -0.578366 0 0 0 -1.13999 2.48523 -1.62507 0 0 -6.57473 -23.5107 2.35208 11.4481 0.04 
401 1 1 0.215409 -0.0718799 -0.653537 0 0 0 1.00663 -0.420845 -6.68681 0 0 -6.57473 -6.16599 2.95665 -9.17847 0.04 
198 1 1 0.394717 -0.123484 -0.598078 0 0 0 0.846086 -0.134855 -3.4824 0 0 -6.57473 -2.28113 -2.17245 0.472512 0.04 
122 1 1 0.583833 -0.0225305 -0.521 0 0 0 1.15697 0.0173174 3.57521 0 0 -6.57473 -1.63742 26.9217 -0.662921 0.04 
171 1 1 0.906991 -0.0582925 -0.589455 0 0 0 -0.705811 -0.235511 -3.47086 0 0 -6.57473 1.91504 -12.6102 -15.0165 0.04 
269 1 1 -0.94118 0.132808 -0.602486 0 0 0 -0.182421 -0.0984732 -3.46155 0 0 -6.57473 0.367869 -0.516513 -0.23913 0.04 
255 1 1 0.347394 -0.717348 -0.511915 0 0 0 -0.273422 -1.40701 -3.21369 0 0 -6.57473 1.07585 0.373768 4.27758 0.04 
159 1 1 0.635838 -0.598965 -0.541724 0 0 0 0.539426 -1.34881 -3.13054 0 0 -6.57473 0.269956 0.327891 1.16264 0.04 
246 1 1 -0.885303 -0.426397 -0.502178 0 0 0 -0.970158 -2.4791 0.529624 0 0 -6.57473 9.81208 5.41417 5.90477 0.04 
188 1 1 0.511229 -0.412773 -0.555492 0 0 0 -0.765368 -0.963665 -2.89923 0 0 -6.57473 15.6534 18.6557 -9.95303 0.04 
260 1 1 -0.660558 -0.388169 -0.531664 0 0 0 -0.466003 -0.299187 -3.73768 0 0 -6.57473 1.01189 1.30804 -1.63928 0.04 
200 1 1 -0.0968127 -0.363288 -0.536723 0 0 0 -0.0715181 -0.154494 -3.27764 0 0 -6.57473 0.130232 -0.283603 0.131937 0.04 
449 1 1 0.370722 -0.35412 -0.539284 0 0 0 1.67681 -1.39031 -5.79077 0 0 -6.57473 -1.53159 13.9736 -24.0345 0.04 
461 1 1 0.707371 -0.433785 -0.548303 0 0 0 1.50739 -5.54324 -5.9855 0 0 -6.57473 2.19927 16.6444 -15.058 0.04 
145 1 1 0.101256 -0.318537 -0.557903 0 0 0 -1.09208 0.0291462 -4.02354 0 0 -6.57473 2.502 -1.23904 -0.210297 0.04 
232 1 1 -0.291135 -0.264139 -0.505353 0 0 0 0.202641 -3.34262 -2.35737 -34.164 5.58815 -120.058 -2.9785 5.62702 6.5724 0.04 
227 1 1 -0.187208 -0.215595 -0.567906 0 0 0 0.298142 -0.201228 -3.76645 0 0 -6.57473 1.70998 -1.44348 3.38376 0.04 
291 1 1 0.562195 -0.211419 -0.571505 0 0 0 1.31217 -0.10733 -3.86645 0 0 -6.57473 0.30818 -6.26542 4.52823 0.04 
194 1 1 0.637027 -0.268237 -0.567228 0 0 0 1.17694 -1.21642 -3.44584 0 0 -6.57473 -2.04026 -0.64855 2.29115 0.04 
220 1 1 0.952334 -0.261689 -0.497157 0 0 0 0.384714 -0.355371 -2.9513 0 0 -6.57473 -1.51555 -0.0190214 1.38248 0.04 
264 1 1 -0.761202 -0.137963 -0.509208 0 0 0 0.416184 -0.0481131 -4.29813 0 0 -6.57473 2.84488 -3.31908 -1.00622 0.04 
32 1 1 -0.317067 -0.173228 -0.522963 0 0 0 -1.78364 0.329293 -1.2222 0 0 -6.57473 7.48547 29.4642 7.3769 0.04 
271 1 1 0.755881 -0.136839 -0.51058 0 0 0 0 0 -3.16509 0 0 -6.57473 0 0 0 0.04 
204 1 1 0.876781 -0.197167 -0.561011 0 0 0 0.46046 0.244571 -3.38481 0 0 -6.57473 0.405302 1.31293 0.263036 0.04 
224 1 1 -0.365993 -0.134595 -0.441103 0 0 0 0.34586 -0.182521 4.79181 0 0 -6.57473 17.377 11.6969 -10.5154 0.04 
244 1 1 -0.132749 -0.101144 -0.557891 0 0 0 0.543745 -0.33655 -2.69888 0 0 -6.57473 2.273 2.03231 -0.543686 0.04 
197 1 1 -0.878298 -0.0268841 -0.547057 0 0 0 0.427039 0.24667 -3.51924 0 0 -6.57473 -0.959646 7.85426 -4.59824 0.04 
304 1 1 0.764621 -0.0419619 -0.51082 0 0 0 -0.503992 -0.247319 -3.19295 0 0 -6.57473 -0.315217 4.51048 -0.910944 0.04 
296 1 1 -0.154825 0.0423801 -0.494476 0 0 0 2.13153 2.67965 -0.355309 0 0 -6.57473 -14.6276 11.594 -4.1191 0.04 
263 1 1 0.825312 0.120127 -0.512964 0 0 0 -1.78173 2.77905 -2.27096 0 0 -6.57473 -0.385754 -1.6961 0.151678 0.04 
107 1 1 -0.9472 0.23819 -0.509942 0 0 0 -0.346934 -0.34214 -3.13257 0 0 -6.57473 1.29827 -1.28185 0.0344172 0.04 
40 1 1 0.245344 -0.890274 -0.412932 0 0 0 1.06009 2.51149 3.10401 0 0 -6.57473 36.666 13.5103 -18.3885 0.04 
4 1 1 -0.880421 -0.748927 -0.392851 0 0 0 -0.126865 -1.5991 3.05625 0 0 -6.57473 25.1174 0.893851 -6.10577 0.04 
23 1 1 -0.0415738 -0.656766 -0.379106 0 0 0 -1.7551 -2.88172 6.19983 0 0 -6.57473 34.5998 -18.2959 -5.2747 0.04 
210 1 1 0.497072 -0.492818 -0.433881 0 0 0 0.208287 -0.642411 -2.91142 0 0 -6.57473 3.26082 -0.864724 -0.0634411 0.04 
213 1 1 -0.571042 -0.401698 -0.486759 0 0 0 3.0941 -3.82508 -4.31451 0 0 -6.57473 -4.19605 -6.27782 6.49062 0.04 
282 1 1 -0.316263 -0.354969 -0.457818 0 0 0 0.520676 -1.06081 -3.21467 0 0 -6.57473 -10.8341 -2.16014 11.687 0.04 
97 1 1 0.0788623 -0.321807 -0.437169 0 0 0 0.252682 3.01122 -1.36835 0 0 -6.57473 20.3231 7.99788 -7.1858 0.04 
243 1 1 0.176169 -0.41724 -0.48228 0 0 0 1.01643 -3.08696 -3.5549 0 0 -6.57473 7.45758 3.15549 3.55339 0.04 
245 1 1 -0.270425 -0.264221 -0.43139 0 0 0 -0.93555 0.598025 -2.19237 34.164 -5.58815 106.908 -0.29396 5.18464 5.12189 0.04 
349 1 1 0.151411 -0.294431 -0.458082 0 0 0 0.382307 -0.0460984 -2.71629 0 0 -6.57473 1.4534 1.16587 -1.7609 0.04 
253 1 1 0.484746 -0.311527 -0.435609 0 0 0 -0.294247 -0.388147 -2.81375 0 0 -6.57473 2.08979 -1.34085 1.41186 0.04 
222 1 1 0.704672 -0.268818 -0.496737 0 0 0 -3.73178 -2.24623 -4.74611 0 0 -6.57473 -5.59995 11.1969 1.73597 0.04 
247 1 1 -0.170664 -0.155004 -0.428073 0 0 0 -0.325099 0.0707995 -2.65802 0 0 -6.57473 0.330418 -1.82705 2.43856 0.04 
201 1 1 -0.0477223 -0.172124 -0.481982 0 0 0 -0.0359939 -0.169657 -3.09839 0 0 -6.57473 -0.341018 2.37431 -0.969154 0.04 
355 1 1 0.531823 -0.152266 -0.501422 0 0 0 -0.728595 -0.663972 -4.38061 0 0 -6.57473 4.57309 4.2402 -7.59922 0.04 
206 1 1 -0.856659 -0.0961793 -0.499361 0 0 0 -0.501629 0.177932 -3.37254 0 0 -6.57473 -1.68382 -1.30277 0.713541 0.04 
190 1 1 -0.206168 -0.0313974 -0.437924 0 0 0 0 0 -2.93124 0 0 -6.57473 0 0 0 0.04 
252 1 1 0.606291 -0.629821 -0.404588 0 0 0 -0.0463723 -1.2119 -2.79611 0 0 -6.57473 -0.840326 -0.268147 -3.56061 0.04 
323 1 1 -0.364547 -0.585959 -0.3818 0 0 0 0.286978 -1.22787 -2.85806 0 0 -6.57473 -2.91672 -1.23434 2.27148 0.04 
218 1 1 -0.0957928 -0.575127 -0.37975 0 0 0 -0.764669 -2.27387 -2.24503 0 0 -6.57473 -0.848814 2.926 9.94192 0.04 
342 1 1 0.295331 -0.567034 -0.383592 0 0 0 -0.0247144 -0.906175 -2.75223 0 0 -6.57473 1.52319 0.787402 -0.741232 0.04 
100 1 1 0.790808 -0.575839 -0.330031 0 0 0 0.451591 -1.71177 4.90102 0 0 -6.57473 32.0579 4.59145 4.26665 0.04 
205 1 1 -0.367477 -0.425098 -0.403768 0 0 0 -0.810614 -1.11472 -2.50986 0 0 -6.57473 0.0972414 -1.17657 -5.18082 0.04 
209 1 1 -0.267103 -0.431835 -0.423884 0 0 0 -0.0888935 -1.14302 -2.73871 0 0 -6.57473 1.54016 -0.649606 1.74407 0.04 
208 1 1 0.354477 -0.4843 -0.373069 0 0 0 0.62988 -4.09977 -0.906082 0 0 -6.57473 -12.7674 -5.77537 -2.24115 0.04 
281 1 1 -0.929611 -0.367232 -0.389343 0 0 0 -0.749087 -0.486147 -2.7833 0 0 -6.57473 0.222322 -0.179899 -2.90164 0.04 
309 1 1 0.859402 -0.388627 -0.361485 0 0 0 -0.347471 -1.58527 -3.29259 -15.2148 -117.74 -61.7504 3.79823 -1.95564 2.79084 0.04 
287 1 1 -0.762461 -0.335032 -0.373051 0 0 0 -0.480899 -0.296162 -2.85848 0 0 -6.57473 1.22596 -1.70043 -3.76178 0.04 
354 1 1 -0.0378884 -0.292443 -0.395994 0 0 0 0.261562 -1.71882 -3.66483 0 0 -6.57473 0.660297 -2.89309 5.10101 0.04 
352 1 1 -0.900064 -0.246873 -0.388206 0 0 0 -0.0430668 0.0253916 -2.76146 0 0 -6.57473 0.0470576 -0.0143994 -0.235878 0.04 
456 1 1 -0.809627 -0.245949 -0.373113 0 0 0 -1.36172 -1.86106 -2.66126 0 0 -6.57473 0.64366 0.273769 -4.33456 0.04 
221 1 1 -0.46935 -0.247576 -0.406872 0 0 0 -0.126503 0.0429848 -2.85413 0 0 -6.57473 2.09451 -0.858118 -4.11086 0.04 
286 1 1 -0.135072 -0.249061 -0.391572 0 0 0 -0.363123 -0.931608 -3.40007 0 0 -6.57473 0.647351 -2.30598 2.76314 0.04 
312 1 1 -0.862265 -0.175504 -0.379308 0 0 0 0.0091476 0.0209565 -2.72706 0 0 -6.57473 0.0416467 -0.014786 -0.0562919 0.04 
300 1 1 0.457502 -0.161132 -0.369344 0 0 0 0 0 -2.69199 0 0 -6.57473 0 0 0 0.04 
62 1 1 0.717685 -0.13599 -0.389824 0 0 0 -0.135703 0.746276 -3.49145 0 0 -6.57473 61.7693 9.65929 -8.70107 0.04 
364 1 1 0.825369 -0.156974 -0.430433 0 0 0 -1.26613 0.785642 -3.3184 0 0 -6.57473 -14.2596 -18.6174 32.7984 0.04 
415 1 1 -0.937686 -0.116516 -0.419943 0 0 0 -0.669279 -0.936924 -3.4359 0 0 -6.57473 -1.07225 8.66666 -6.46405 0.04 
389 1 1 -0.518001 -0.0112936 -0.3739 0 0 0 0.0400491 -0.0828809 -3.15252 0 0 -6.57473 -3.7032 3.80834 -3.33127 0.04 
297 1 1 -0.12103 -0.0470779 -0.403693 0 0 0 0.0435651 -0.229727 -2.87776 0 0 -6.57473 1.27017 1.58607 -1.55375 0.04 
359 1 1 0.0158554 0.0166395 -0.411633 0 0 0 0.00592161 0.0462182 -3.24918 0 0 -6.57473 -4.90265 3.31968 -0.610258 0.04 
493 1 1 0.0962366 0.0343638 -0.39135 0 0 0 -0.330292 1.32958 -3.30241 0 0 -6.57473 -23.5345 15.3529 -22.3543 0.04 
329 1 1 -0.933048 0.13585 -0.398071 0 0 0 -0.369136 0.517628 -2.99314 0 0 -6.57473 1.66194 0.00650917 -1.56054 0.04 
236 1 1 -0.694571 0.0998185 -0.403864 0 0 0 0.955064 -0.455846 -2.59953 0 0 -6.57473 1.12425 1.96993 3.31222 0.04 
476 1 1 0.798495 0.0725673 -0.40118 0 0 0 -0.506182 0.55177 -4.51418 0 0 -6.57473 -10.8314 9.56279 -7.66199 0.04 
343 1 1 -0.898416 0.235524 -0.37938 0 0 0 0 0 -2.72832 0 0 -6.57473 0 0 0 0.04 
134 1 1 -0.592916 -0.722814 -0.262269 0 0 0 -1.01306 3.10788 3.44173 0 0 -6.57473 45.7356 -2.78429 -0.508445 0.04 
239 1 1 -0.832421 -0.609399 -0.292823 0 0 0 -1.25697 -1.03764 -2.28829 0 0 -6.57473 -3.23171 1.85862 -3.553 0.04 
257 1 1 0.00248966 -0.457986 -0.32631 0 0 0 -1.56273 -1.24719 0.487303 0 0 -6.57473 8.08166 -0.734351 7.71283 0.04 
313 1 1 -0.686379 -0.361524 -0.347546 0 0 0 0.0653963 -0.786939 -2.61577 0 0 -6.57473 1.28609 -0.334735 -2.93684 0.04 
314 1 1 -0.479055 -0.389316 -0.359069 0 0 0 -0.302319 -0.463905 -2.78893 0 0 -6.57473 2.24766 -1.42541 -0.0670157 0.04 
339 1 1 -0.148809 -0.369787 -0.31014 0 0 0 0 0 -2.4668 0 0 -6.57473 0 0 0 0.04 
344 1 1 -0.0283231 -0.367269 -0.317535 0 0 0 0 0 -2.49604 0 0 -6.57473 0 0 0 0.04 
341 1 1 0.272376 -0.378064 -0.315937 0 0 0 -0.0559388 -0.263634 -2.44579 0 0 -6.57473 0.00113462 1.32092 -1.81676 0.04 
151 1 1 0.409373 -0.364052 -0.320675 0 0 0 0.612425 -1.0236 -1.79173 0 0 -6.57473 -26.6462 -24.0956 8.68778 0.04 
258 1 1 -0.270876 -0.32717 -0.348242 0 0 0 0.409313 -0.503638 -2.41221 0 0 -6.57473 -1.20701 1.13891 0.572759 0.04 
284 1 1 0.12256 -0.28189 -0.354584 0 0 0 -0.579308 -0.391364 -3.4787 0 0 -6.57473 -0.387056 -3.47473 1.67264 0.04 
298 1 1 0.792049 -0.298437 -0.354507 0 0 0 -0.296619 -0.85921 -2.66269 0 0 -6.57473 2.98227 -0.51083 -0.755941 0.04 
215 1 1 0.865774 -0.321226 -0.326718 0 0 0 -2.20568 -0.553365 -1.29993 15.2148 117.74 48.601 -5.0473 -5.85738 17.8723 0.04 
319 1 1 -0.618249 -0.148234 -0.296375 0 0 0 0.122405 -0.235226 -2.42899 0 0 -6.57473 -2.15667 -3.51 2.17507 0.04 
292 1 1 -0.164035 -0.156123 -0.331346 0 0 0 -2.40597 0.60573 -2.65819 0 0 -6.57473 -20.6614 5.81152 -3.51122 0.04 
346 1 1 -0.167692 -0.0728516 -0.327564 0 0 0 1.03652 0.115252 -2.595 0 0 -6.57473 -12.1397 2.46281 5.86349 0.04 
199 1 1 0.83626 -0.106168 -0.292545 0 0 0 1.0703 0.433976 -1.9948 0 0 -6.57473 -2.34809 -0.775522 -1.48845 0.04 
358 1 1 0.374264 -0.0259212 -0.312762 0 0 0 -0.0865523 0.165719 -2.66507 0 0 -6.57473 1.42021 6.08348 1.28185 0.04 
303 1 1 -0.855876 0.398237 -0.319907 0 0 0 0 0 -2.50535 0 0 -6.57473 0 0 0 0.04 
375 1 1 -0.278446 -0.45834 -0.230324 0 0 0 -0.255595 -0.699004 -2.10878 0 0 -6.57473 -0.733442 0.177237 -2.14923 0.04 
301 1 1 0.0970619 -0.438105 -0.250745 0 0 0 -0.424646 -1.13784 -2.3442 0 0 -6.57473 -1.18165 1.03939 -3.35891 0.04 
328 1 1 -0.887684 -0.399727 -0.285485 0 0 0 0 0 -2.36671 0 0 -6.57473 0 0 0 0.04 
294 1 1 -0.751345 -0.382282 -0.272244 0 0 0 0 0 -2.31117 0 0 -6.57473 0 0 0 0.04 
285 1 1 -0.197151 -0.340005 -0.246881 0 0 0 0.305848 -0.177502 -2.24187 0 0 -6.57473 1.46061 1.75337 0.673016 0.04 
391 1 1 0.160867 -0.366757 -0.224612 0 0 0 0.0598884 -0.64908 -2.33661 -68.6978 36.636 -18.4333 0.358863 0.150447 1.99251 0.04 
147 1 1 0.838044 -0.397358 -0.259152 0 0 0 0.660598 -0.733753 -2.17102 0 0 -6.57473 -1.48203 -2.1634 -2 0.04 
290 1 1 -0.715094 -0.24215 -0.238595 0 0 0 -0.228785 0.0574883 -2.26454 0 0 -6.57473 1.18872 1.95902 -0.077609 0.04 
320 1 1 -0.602676 -0.258862 -0.276611 0 0 0 0.201177 -0.543748 -2.29763 0 0 -6.57473 0.298891 -0.247911 -0.891987 0.04 
289 1 1 -0.41697 -0.257865 -0.285958 0 0 0 1.5588 -1.17072 -2.89868 0 0 -6.57473 0.182633 0.0570836 7.2281 0.04 
318 1 1 0.0211588 -0.208399 -0.28713 0 0 0 -0.443867 -0.165709 -2.25844 0 0 -6.57473 3.61506 4.65362 6.73023 0.04 
325 1 1 0.124949 -0.251364 -0.232635 0 0 0 -1.943 0.00454059 -1.24062 0 0 -6.57473 -2.18488 16.0788 -12.8176 0.04 
229 1 1 0.659457 -0.204482 -0.257747 0 0 0 -0.100296 0.243328 -3.13668 0 0 -6.57473 -10.437 0.919069 1.78179 0.04 
295 1 1 0.894434 -0.240837 -0.249843 0 0 0 0.193018 -0.0906296 -2.12505 0 0 -6.57473 -0.564317 -0.244486 0.54839 0.04 
330 1 1 -0.237597 -0.178422 -0.246101 0 0 0 0.102609 -0.281471 -2.11179 0 0 -6.57473 0.171458 -0.428567 -0.928195 0.04 
454 1 1 -0.507124 -0.139807 -0.244719 0 0 0 0.324505 -1.44457 -3.16126 0 0 -6.57473 -0.392614 6.35353 -4.16593 0.04 
416 1 1 -0.411158 -0.124648 -0.255366 0 0 0 0.635538 -0.24712 -2.39555 0 0 -6.57473 -2.58963 1.07247 -6.80185 0.04 
357 1 1 -0.0681191 -0.034769 -0.23057 0 0 0 0 0 -2.12699 0 0 -6.57473 0 0 0 0.04 
377 1 1 0.706693 -0.0272536 -0.269723 0 0 0 -0.434834 0.883243 -3.07378 0 0 -6.57473 -16.9994 7.74405 5.46019 0.04 
347 1 1 -0.928064 0.150917 -0.254004 0 0 0 -0.282693 0.0339835 -2.24471 0 0 -6.57473 -0.131384 -0.795695 0.369393 0.04 
417 1 1 0.676458 -0.570315 -0.166022 0 0 0 2.01209 -3.44954 -0.811591 0 0 -6.57473 8.02575 -3.45868 -9.41391 0.04 
420 1 1 0.0540315 -0.480597 -0.15214 0 0 0 0.138154 -0.670624 -1.70374 0 0 -6.57473 -2.06837 -0.414698 0.0991884 0.04 
430 1 1 0.314089 -0.410107 -0.189074 0 0 0 -1.36763 0.0457449 -2.04195 0 0 -6.57473 0.333203 -2.88153 -2.98801 0.04 
307 1 1 0.394879 -0.447675 -0.176027 0 0 0 -0.394519 -1.27719 -0.953338 0 0 -6.57473 0.532202 -9.45589 -5.37562 0.04 
371 1 1 0.819422 -0.435006 -0.156403 0 0 0 0.210141 -0.7199 -1.85519 0 0 -6.57473 2.13326 0.426076 0.874398 0.04 
387 1 1 -0.710028 -0.363914 -0.168178 0 0 0 -0.567278 0.0258153 -1.9209 0 0 -6.57473 -0.0612278 0.939706 -2.30169 0.04 
402 1 1 -0.313871 -0.340587 -0.155018 0 0 0 0.0884094 -0.274539 -1.83416 0 0 -6.57473 0.846541 0.085961 0.448414 0.04 
421 1 1 -0.0522972 -0.337384 -0.154115 0 0 0 -0.0156745 -0.379278 -1.68645 0 0 -6.57473 0.135748 -1.14782 1.09456 0.04 
382 1 1 0.0467687 -0.346389 -0.217239 0 0 0 0.25176 -0.202026 -2.13958 0 0 -6.57473 0.592174 0.669983 0.965793 0.04 
404 1 1 0.229786 -0.400034 -0.210552 0 0 0 0.443605 -0.245399 -1.96127 68.6978 -36.636 5.28388 -0.617264 -0.758782 1.21617 0.04 
372 1 1 -0.859228 -0.286107 -0.161676 0 0 0 -0.257315 -0.252993 -1.76055 0 0 -6.57473 0.0820233 1.14461 -0.433576 0.04 
418 1 1 -0.777303 -0.331923 -0.200029 0 0 0 -0.14914 -0.313519 -1.98266 0 0 -6.57473 0.19728 0.398102 0.713988 0.04 
366 1 1 -0.121483 -0.278096 -0.218526 0 0 0 0.103852 0.0400488 -2.10062 0 0 -6.57473 -0.304048 -2.73981 1.29889 0.04 