ITEM: TIMESTEP
120200
ITEM: NUMBER OF ATOMS
1500
ITEM: BOX BOUNDS ff ff ff
-1 1
-1 1
-1 1
ITEM: ATOMS id type type x y z ix iy iz vx vy vz fx fy fz omegax omegay omegaz radius 
137 1 1 -0.96011 -0.960152 -0.960202 0 0 0 -4.51133e-07 4.76832e-07 1.01765e-06 -0.000129561 -0.000168702 -0.000278784 1.46648e-05 -1.86262e-05 2.07023e-05 0.04 
5 1 1 -0.830892 -0.960168 -0.960266 0 0 0 1.46183e-06 4.72127e-07 3.55697e-07 -0.000473015 -3.16107e-06 -8.04322e-05 1.03557e-05 0.000136047 -2.176e-05 0.04 
239 1 1 -0.750973 -0.96014 -0.960255 0 0 0 2.255e-06 4.30779e-07 -1.27532e-06 -0.000192454 0.000405259 0.000351679 -8.55954e-06 -3.28539e-06 7.91417e-06 0.04 
34 1 1 -0.671017 -0.960044 -0.960246 0 0 0 2.24384e-06 2.94303e-06 2.79462e-06 1.41067e-05 0.00013655 0.000398384 -2.68655e-05 -1.32448e-05 -1.94036e-05 0.04 
415 1 1 -0.591068 -0.960062 -0.960291 0 0 0 1.64803e-06 1.29318e-07 2.27595e-06 0.000227736 0.000537676 0.000161857 5.46741e-05 6.8154e-05 -9.50022e-05 0.04 
138 1 1 -0.510834 -0.960069 -0.960241 0 0 0 1.98967e-06 2.5071e-06 2.93541e-06 0.000362558 -0.000117137 -0.00040278 -0.000125961 0.00010217 -7.26851e-05 0.04 
323 1 1 -0.43029 -0.959877 -0.960154 0 0 0 4.94399e-06 -1.09323e-05 -9.00255e-08 0.000186945 -0.000194497 -0.000511504 0.000259537 -1.67274e-06 -2.0176e-05 0.04 
130 1 1 -0.350318 -0.960038 -0.960251 0 0 0 7.72186e-06 -9.65903e-06 -1.60893e-06 3.86761e-05 -0.000319696 -0.000541702 0.000178505 0.000238111 -8.02906e-07 0.04 
502 1 1 -0.270343 -0.960119 -0.960299 0 0 0 4.41951e-06 -1.05881e-05 -9.76474e-06 -0.000270329 7.67626e-05 -0.000369865 2.61834e-05 -1.23051e-05 2.05093e-07 0.04 
494 1 1 -0.174299 -0.960163 -0.960229 0 0 0 8.78181e-07 -4.24002e-06 -5.31269e-06 -0.000414697 -0.000188423 -0.000181643 -2.48521e-05 -2.88972e-05 2.92965e-06 0.04 
448 1 1 -0.0943153 -0.960146 -0.960266 0 0 0 -3.23616e-07 -2.26173e-06 -3.11749e-06 -0.000359028 -7.06938e-05 -6.56699e-05 -2.16558e-05 -1.89164e-05 2.95709e-06 0.04 
147 1 1 -0.0144648 -0.96016 -0.960215 0 0 0 -1.16498e-06 -2.25721e-06 -7.53019e-07 -0.000245772 -0.000300805 -0.000191464 2.75417e-05 -3.8382e-05 1.33576e-05 0.04 
218 1 1 0.0655312 -0.960172 -0.960209 0 0 0 -7.24362e-07 -1.93953e-06 9.27791e-07 -0.000134393 -0.000334066 -1.49481e-05 4.15119e-05 -1.89803e-05 1.07421e-05 0.04 
339 1 1 0.145757 -0.960145 -0.960214 0 0 0 1.1096e-06 -1.55521e-07 2.06078e-06 7.17411e-05 -0.00018589 3.23745e-05 3.34351e-05 1.79447e-05 1.06059e-05 0.04 
81 1 1 0.225734 -0.960094 -0.960177 0 0 0 6.32204e-07 1.98011e-06 -1.09397e-06 7.101e-05 -0.000175532 0.000218006 -5.42331e-05 2.63369e-05 -4.25186e-06 0.04 
341 1 1 0.305651 -0.960069 -0.960157 0 0 0 -4.78937e-07 -2.05867e-07 1.12295e-06 0.000172455 -0.000109662 0.000519189 3.87427e-05 -4.7141e-05 -1.39237e-05 0.04 
203 1 1 0.385622 -0.960082 -0.960219 0 0 0 7.26654e-07 -3.83647e-06 2.3962e-06 0.000408151 -0.000339376 0.000648888 8.47176e-05 2.64874e-05 -8.75962e-05 0.04 
1019 1 1 0.473737 -0.960015 -0.960209 0 0 0 2.15136e-06 2.00784e-06 -5.12781e-06 0.000472351 0.000321237 -0.000558506 -8.92151e-05 1.47602e-06 -0.000113314 0.04 
821 1 1 0.553721 -0.960025 -0.960231 0 0 0 -2.38483e-07 -4.13959e-06 -5.08005e-06 -7.84922e-06 -0.000260579 -0.000591979 5.76862e-06 3.63439e-05 -1.76688e-05 0.04 
636 1 1 0.633692 -0.960458 -0.9602 0 0 0 -6.62399e-07 -8.55301e-07 -1.46622e-06 -0.000103769 -2.47611e-07 0.000178875 -1.46649e-06 -9.91129e-05 6.74063e-05 0.04 
729 1 1 0.720239 -0.960012 -0.96016 0 0 0 6.37579e-08 -1.61237e-07 3.64644e-06 0.000113488 0.000156842 -0.000154873 5.08561e-05 5.63052e-05 -3.47554e-06 0.04 
503 1 1 0.800202 -0.960037 -0.960137 0 0 0 -2.08649e-07 3.15816e-07 3.00809e-07 4.89418e-05 -0.000115464 4.53012e-06 -1.17292e-05 -2.20939e-06 4.99661e-06 0.04 
424 1 1 0.880173 -0.96004 -0.96016 0 0 0 -3.69766e-07 1.81661e-06 1.82567e-06 5.68268e-06 -7.0737e-05 -8.78777e-05 3.98817e-06 -1.29788e-05 5.32515e-05 0.04 
850 1 1 0.9601 -0.958945 -0.960223 0 0 0 -6.95738e-08 5.12122e-06 2.76468e-06 -3.75459e-05 -3.11576e-05 -5.17202e-05 -0.000180076 3.27848e-05 -7.99573e-05 0.04 
778 1 1 -0.959929 -0.880401 -0.960216 0 0 0 4.26769e-06 1.07299e-06 2.93462e-06 -0.00100528 0.000111464 -0.000700913 3.92111e-06 0.000114682 -0.000147707 0.04 
918 1 1 -0.880185 -0.897208 -0.960224 0 0 0 9.88763e-07 1.39654e-06 3.16606e-06 -0.00114244 -0.000333361 -0.0012882 -6.11169e-05 -2.9395e-05 -2.73417e-05 0.04 
246 1 1 -0.791824 -0.890617 -0.960152 0 0 0 2.79757e-07 2.32035e-06 -1.92802e-06 -0.000723036 -0.000390872 -0.00037833 -6.93898e-05 -2.51411e-05 5.96923e-06 0.04 
586 1 1 -0.71186 -0.890539 -0.960297 0 0 0 -5.35072e-07 9.46066e-07 -1.80928e-07 -0.000413545 -3.30773e-05 0.000255151 1.51966e-05 2.18524e-05 1.33338e-05 0.04 
379 1 1 -0.630909 -0.890721 -0.960191 0 0 0 3.9506e-06 2.10613e-06 2.47239e-06 4.30112e-05 0.000296204 -0.00074744 -4.48969e-05 -1.48713e-05 -3.69832e-05 0.04 
105 1 1 -0.550902 -0.890948 -0.960215 0 0 0 7.21041e-06 4.56826e-07 4.2246e-06 0.000307447 -2.63922e-05 -0.000418491 1.71386e-05 0.000145624 1.236e-05 0.04 
289 1 1 -0.471001 -0.890716 -0.960249 0 0 0 1.45915e-05 -1.53644e-05 -9.09554e-06 -4.61479e-05 -0.000295039 -0.00107161 0.000243441 0.000324006 -0.000456468 0.04 
345 1 1 -0.387851 -0.869427 -0.960118 0 0 0 -0.00161666 -0.00126345 1.10513e-06 -1.11487e-09 -4.90241e-09 -0.00148407 0.0316328 -0.0404763 0.077917 0.04 
209 1 1 -0.310223 -0.890869 -0.960163 0 0 0 1.85972e-05 -1.84241e-05 7.59941e-06 -0.00065379 0.000770692 -0.0010948 0.00046507 0.00038288 -0.000337892 0.04 
647 1 1 -0.222237 -0.896276 -0.960225 0 0 0 1.04468e-05 -1.22102e-05 -5.81483e-06 -0.000632559 6.23653e-05 0.000289175 0.000185931 0.000184185 -8.59057e-05 0.04 
700 1 1 -0.134298 -0.891095 -0.960196 0 0 0 1.03473e-06 -4.32079e-06 -1.76002e-06 -0.00048847 -0.000624509 -0.000646634 6.71116e-05 5.5316e-05 -2.08932e-05 0.04 
616 1 1 -0.0544215 -0.890853 -0.960232 0 0 0 -1.42151e-06 -2.94068e-06 -1.11017e-06 -0.000427957 -0.000527093 -0.000465533 4.53109e-05 -3.06949e-05 5.79056e-05 0.04 
87 1 1 0.0254597 -0.891074 -0.960203 0 0 0 -1.76784e-06 -2.7249e-06 1.86144e-06 -0.000218905 -0.000501603 4.89489e-05 4.27524e-05 -4.84663e-05 -2.01702e-05 0.04 
655 1 1 0.105572 -0.891076 -0.960218 0 0 0 -9.72487e-07 -1.60696e-06 2.96703e-06 -2.62587e-07 -0.000401858 0.0002817 1.84201e-05 4.21044e-06 4.14468e-05 0.04 
977 1 1 0.185659 -0.890926 -0.960202 0 0 0 -8.4023e-07 2.11846e-06 -9.35771e-08 0.000184384 -0.000134687 0.000454525 3.85261e-06 2.87981e-05 2.99198e-05 0.04 
19 1 1 0.265637 -0.890829 -0.960227 0 0 0 -1.85591e-06 2.36102e-06 -4.47904e-06 0.000151276 -0.000150429 0.000933661 -0.000128186 -7.74804e-05 -1.10658e-05 0.04 
443 1 1 0.345634 -0.890855 -0.960248 0 0 0 -3.07851e-06 2.40036e-07 7.28979e-06 0.000258732 -3.95495e-05 0.000955852 1.39666e-05 -0.000127344 7.38778e-05 0.04 
664 1 1 0.429599 -0.89332 -0.960215 0 0 0 -4.75532e-06 -3.58226e-06 -1.14885e-06 0.000490175 -0.000195671 0.000433554 5.7183e-05 -7.95124e-05 0.000212278 0.04 
74 1 1 0.59436 -0.891144 -0.960225 0 0 0 -6.81305e-06 -5.28797e-06 -1.16803e-06 -0.000296898 -0.000196067 -0.000490634 0.000100187 -0.000269821 9.16119e-05 0.04 
50 1 1 0.674248 -0.892015 -0.960177 0 0 0 -2.72788e-07 9.65129e-07 5.72923e-07 -0.00016849 -0.000245483 -0.0008811 7.87696e-05 6.75045e-05 2.39909e-07 0.04 
1 1 1 0.749841 -0.866831 -0.960242 0 0 0 1.11709e-06 1.87838e-06 7.68373e-07 -0.00010001 -0.000418914 -0.000129785 -3.9874e-06 -3.10339e-05 -3.78375e-06 0.04 
812 1 1 0.878013 -0.880136 -0.960204 0 0 0 6.31694e-07 6.96343e-07 3.81355e-06 -0.00013522 -0.000223655 -0.0002227 1.55983e-05 4.24954e-05 -5.85493e-05 0.04 
446 1 1 -0.960244 -0.800741 -0.960215 0 0 0 5.44286e-06 3.65875e-06 3.42603e-06 -0.000827549 -0.000380531 -0.00115922 -2.79793e-05 2.96428e-05 6.4915e-05 0.04 
352 1 1 -0.840947 -0.82753 -0.960338 0 0 0 3.93799e-06 4.95012e-07 4.89123e-06 -0.0012522 -0.000199554 -0.000489056 0.000107324 0.000159762 -3.26851e-05 0.04 
894 1 1 -0.761751 -0.816672 -0.960285 0 0 0 2.11665e-06 3.48981e-06 -8.79523e-06 -0.000813169 -0.000314291 0.0010936 -0.000159002 1.2096e-05 1.40919e-05 0.04 
960 1 1 -0.681852 -0.816441 -0.960115 0 0 0 2.198e-06 1.31231e-06 -2.10243e-06 0.000321016 -0.000759475 0.000512943 -3.57813e-05 -5.1346e-05 -8.21038e-05 0.04 
380 1 1 -0.535213 -0.812504 -0.960157 0 0 0 1.56721e-05 -7.37766e-06 8.34852e-07 0.00133664 0.000504359 -0.000345608 0.000165927 0.000185852 -0.000289353 0.04 
720 1 1 -0.257532 -0.824582 -0.96029 0 0 0 1.49416e-05 -1.62914e-05 1.347e-05 -0.000361817 0.000574215 -0.000189267 0.000228417 0.000476529 0.000108093 0.04 
161 1 1 -0.175356 -0.82283 -0.960298 0 0 0 2.86489e-06 -5.53146e-06 -1.56707e-06 -0.000498447 -0.000434926 2.45343e-05 0.000117814 4.11199e-05 -1.17214e-05 0.04 
385 1 1 -0.095413 -0.82014 -0.960192 0 0 0 7.64694e-07 -6.85573e-06 -2.24817e-06 -0.00096982 -0.000574411 0.00138815 0.000197659 2.06652e-05 -0.000140331 0.04 
827 1 1 -0.0151055 -0.821237 -0.960264 0 0 0 -5.71838e-07 -1.67849e-06 -2.92757e-06 -0.000723337 -0.000786518 0.00139483 -8.2918e-05 -7.04698e-05 -7.13214e-05 0.04 
784 1 1 0.0652889 -0.822028 -0.960241 0 0 0 -3.20302e-06 -2.7365e-06 3.91913e-06 -0.000193875 -0.000588286 0.000473525 3.59684e-05 -4.75605e-05 4.09417e-05 0.04 
211 1 1 0.145419 -0.821876 -0.960214 0 0 0 -4.16978e-06 5.95484e-07 1.76863e-06 -1.7516e-05 -0.00049178 0.000311173 1.13764e-05 -2.53652e-05 2.65672e-05 0.04 
121 1 1 0.225286 -0.821505 -0.960185 0 0 0 -5.51223e-06 5.49291e-06 -9.44056e-07 2.55602e-05 0.000245654 -0.000179849 -7.3772e-05 1.20535e-05 0.000129187 0.04 
354 1 1 0.302764 -0.802489 -0.960232 0 0 0 -1.22251e-05 7.47453e-06 -1.72546e-07 -9.24825e-05 0.000595904 0.000337099 -0.000136237 -0.000215316 -8.18793e-05 0.04 
229 1 1 0.380706 -0.819076 -0.960368 0 0 0 -9.12701e-06 -2.81739e-07 5.15132e-06 0.000107469 6.70646e-05 0.000445607 4.91728e-05 -4.32063e-05 1.93207e-05 0.04 
369 1 1 0.456121 -0.822155 -0.935181 0 0 0 -1.31362e-05 -4.75811e-06 -6.01933e-06 0.000302225 -0.000201593 3.21889e-05 -3.15304e-05 0.000316185 -2.2369e-05 0.04 
396 1 1 0.51956 -0.863497 -0.960239 0 0 0 -1.0403e-05 -5.03291e-06 -1.15594e-05 5.83802e-05 -0.000105229 -0.000492509 1.76719e-05 -0.000178573 4.69532e-05 0.04 
866 1 1 0.594027 -0.811307 -0.960336 0 0 0 -3.51335e-07 -5.98721e-06 1.75245e-05 9.22835e-05 -0.000322583 0.000173798 -5.63513e-05 0.000104402 0.00013636 0.04 
628 1 1 0.673821 -0.812298 -0.960205 0 0 0 6.98894e-07 1.18479e-06 4.08316e-06 -1.34832e-05 -0.000332195 0.000161512 3.6749e-05 0.00011782 2.05755e-05 0.04 
554 1 1 0.818679 -0.826524 -0.960283 0 0 0 2.16355e-06 2.16429e-06 3.90554e-06 -0.00013421 -0.000228217 -0.000286156 -4.92325e-05 1.3961e-05 -1.81067e-05 0.04 
417 1 1 0.960154 -0.833965 -0.960253 0 0 0 1.85875e-06 2.49027e-07 -2.29109e-06 -7.9214e-05 -0.000228407 -0.000191819 -6.9323e-05 2.24816e-05 -2.63355e-05 0.04 
282 1 1 -0.889436 -0.764116 -0.960201 0 0 0 4.24508e-06 5.92061e-06 5.93025e-07 -0.000907064 -0.000953303 -0.000911911 -0.000220379 1.71963e-05 -9.73848e-06 0.04 
492 1 1 -0.810312 -0.7532 -0.960206 0 0 0 7.99399e-06 4.26975e-06 -1.02284e-05 -0.000702086 -0.00100807 0.000449665 -0.000173312 0.000278105 -0.000129502 0.04 
290 1 1 -0.609446 -0.782716 -0.960221 0 0 0 1.01864e-05 7.08697e-07 -2.08258e-06 0.000592101 0.000221196 0.000351583 -5.33754e-05 6.41811e-05 -1.85292e-06 0.04 
52 1 1 -0.453376 -0.788996 -0.960332 0 0 0 2.55529e-05 -1.42881e-05 -7.4632e-06 0.00119195 -0.000226479 -0.00234836 0.000284578 0.000504571 -0.00020655 0.04 
480 1 1 -0.37566 -0.770535 -0.960362 0 0 0 2.81788e-05 -2.50851e-05 -3.45326e-05 0.000379223 0.00138238 -0.00092529 0.000492925 0.000460432 -5.38382e-05 0.04 
402 1 1 -0.297581 -0.75357 -0.960118 0 0 0 -3.50672e-07 -2.39744e-05 -1.86611e-05 -0.000396025 0.000361904 -0.000199342 0.000438065 -0.000350423 0.000102639 0.04 
322 1 1 -0.217705 -0.755339 -0.96013 0 0 0 -6.3827e-06 -1.53884e-05 7.19318e-06 -0.000722564 -0.000257349 0.000118564 9.6684e-05 -0.000210598 0.000271676 0.04 
376 1 1 -0.137785 -0.752317 -0.960137 0 0 0 -4.55685e-06 -1.01112e-06 6.77493e-06 -0.000701096 -0.000144813 0.000201752 2.66119e-05 -1.92779e-06 0.000240729 0.04 
204 1 1 -0.0595659 -0.735823 -0.960305 0 0 0 -5.64971e-06 -1.67603e-06 1.62578e-05 -0.000453795 -0.000459033 0.000647372 -6.68821e-05 -5.87511e-05 -0.000400653 0.04 
1122 1 1 0.019315 -0.74896 -0.960158 0 0 0 -4.00523e-06 -2.07261e-06 9.39653e-06 -0.000142238 -0.000945807 0.000331102 9.61662e-05 -8.16592e-06 0.000401728 0.04 
773 1 1 0.105142 -0.75305 -0.960328 0 0 0 -6.48527e-06 2.17211e-06 5.44391e-06 0.000264373 -0.000573956 7.2542e-05 2.6256e-05 -2.18002e-05 6.30907e-05 0.04 
725 1 1 0.185119 -0.75234 -0.960163 0 0 0 -6.78453e-06 3.15865e-06 -6.78866e-07 -0.000232709 -0.000267369 0.000111086 -1.46198e-05 -5.37529e-05 -9.49699e-05 0.04 
159 1 1 0.345573 -0.735002 -0.960256 0 0 0 -9.35036e-06 3.47839e-06 5.35106e-07 0.00031461 0.000221009 0.000366513 -5.43443e-05 -0.000163744 -0.000144618 0.04 
688 1 1 0.482791 -0.751117 -0.96023 0 0 0 -8.82455e-06 -6.0295e-06 -1.35313e-06 0.000162312 -0.000195502 -0.000259652 0.000146993 -0.00018215 -4.38309e-05 0.04 
757 1 1 0.561591 -0.738304 -0.960169 0 0 0 -7.03643e-06 -6.18167e-06 7.6431e-06 2.77494e-05 -0.00033434 -6.27157e-05 7.10503e-05 -8.82904e-05 0.000140526 0.04 
519 1 1 0.641385 -0.739389 -0.960172 0 0 0 -1.75875e-06 3.45751e-06 3.60478e-06 -3.93257e-05 -0.000211721 0.000201059 -0.000151411 1.88363e-05 -1.6194e-07 0.04 
742 1 1 0.749359 -0.786904 -0.960233 0 0 0 2.20164e-06 2.4353e-06 1.29318e-06 6.83529e-06 -0.000230913 0.000220061 -3.48892e-05 -9.39909e-06 -3.19477e-06 0.04 
603 1 1 0.818346 -0.74666 -0.960129 0 0 0 3.04184e-06 2.78289e-06 7.92108e-07 0.000150145 -0.000235267 4.93927e-05 -2.25872e-05 6.26879e-05 4.73659e-06 0.04 
86 1 1 0.891232 -0.793682 -0.960276 0 0 0 2.64021e-06 8.03829e-07 8.02415e-07 -5.86433e-05 -0.000276144 0.000329906 -2.09197e-05 -1.58637e-06 -2.2465e-06 0.04 
972 1 1 0.96024 -0.753737 -0.960208 0 0 0 1.0573e-06 8.0742e-07 -6.95129e-07 9.55133e-05 -0.000169728 0.000424323 3.98222e-07 -3.70526e-06 2.3142e-05 0.04 
488 1 1 -0.960206 -0.720977 -0.960237 0 0 0 3.20393e-06 4.58505e-06 1.48361e-07 -0.000304514 -0.000350838 -0.000174252 -5.39429e-05 3.88953e-05 6.74618e-05 0.04 
532 1 1 -0.889466 -0.684333 -0.960246 0 0 0 1.42038e-05 6.83818e-07 -8.73532e-06 0.000452511 -0.00134049 0.000151801 1.81877e-05 0.00025696 -0.000310587 0.04 
564 1 1 -0.744084 -0.708374 -0.96026 0 0 0 2.91994e-06 -2.25318e-06 -1.6668e-05 0.000182482 -0.000228684 0.000985822 8.60387e-05 -0.000108083 0.000123555 0.04 
314 1 1 -0.6662 -0.726449 -0.960118 0 0 0 2.43576e-06 6.00377e-07 -6.26117e-06 -2.95097e-05 -0.000164138 0.000887252 -0.000100351 -4.67182e-05 7.94955e-05 0.04 
783 1 1 -0.611381 -0.667464 -0.96026 0 0 0 2.5061e-05 -5.51803e-08 1.24584e-05 -0.000917368 0.000585146 0.000499057 -0.000333495 0.00054803 8.10049e-05 0.04 
1127 1 1 -0.555101 -0.724255 -0.960255 0 0 0 1.70779e-05 -1.17761e-05 -4.97264e-07 0.000454133 0.00107311 0.00107172 0.000225059 4.88455e-05 -0.000156253 0.04 
241 1 1 -0.476074 -0.712363 -0.960182 0 0 0 2.64e-05 -1.50839e-05 4.6938e-06 0.000159677 -2.78202e-05 -0.00095728 0.000187297 0.000294992 0.000170349 0.04 
85 1 1 -0.391017 -0.692253 -0.960257 0 0 0 2.56487e-05 -2.44991e-05 -9.97092e-06 -0.000482218 0.000953473 0.000884886 0.000462834 0.000285539 0.000309779 0.04 
511 1 1 -0.313004 -0.675099 -0.960171 0 0 0 -2.03263e-06 -2.10415e-05 -3.83616e-06 -0.000428206 0.000642154 0.000111156 0.000388034 -6.65803e-05 -8.08861e-05 0.04 
873 1 1 -0.233104 -0.677236 -0.960336 0 0 0 -2.2403e-05 -2.83309e-05 1.22101e-05 -0.00138812 -0.000361092 0.000513488 0.000537957 -0.000642863 -9.70421e-05 0.04 
738 1 1 -0.122534 -0.673871 -0.960256 0 0 0 -1.58291e-05 -1.11311e-06 -1.29029e-06 0.000210138 -0.000418246 0.000440948 -1.66149e-05 -0.000276237 -4.83282e-05 0.04 
1088 1 1 0.110954 -0.673752 -0.960227 0 0 0 -8.98555e-06 5.06337e-06 5.18732e-06 5.94152e-05 -0.000493858 0.000310416 -7.22923e-05 -3.73181e-05 -7.35111e-05 0.04 
862 1 1 0.208436 -0.675887 -0.960172 0 0 0 -2.90975e-06 4.52983e-06 -1.52034e-06 -4.09339e-05 8.75041e-05 0.000531495 1.87009e-05 4.58697e-05 9.18369e-06 0.04 
967 1 1 0.265708 -0.73166 -0.960287 0 0 0 -9.18576e-06 1.04247e-05 -5.5642e-06 0.000361114 0.000470061 0.00062624 -0.000156569 -8.45955e-05 -1.37874e-05 0.04 
451 1 1 0.432784 -0.688738 -0.960201 0 0 0 -8.90796e-06 -5.73803e-06 -3.4109e-06 0.000289292 -0.000211594 -0.000230626 7.74502e-05 -0.000123244 -1.41221e-05 0.04 
177 1 1 0.511719 -0.675932 -0.960227 0 0 0 -1.13642e-05 -9.65926e-06 5.69115e-06 0.000174479 -0.000355543 -0.000277206 0.000185816 -0.000253714 -4.4329e-05 0.04 
308 1 1 0.678757 -0.668897 -0.960169 0 0 0 1.95135e-06 -1.5202e-06 -1.09787e-06 0.000412141 3.22739e-05 0.000302431 2.25925e-05 2.97646e-05 -3.75513e-05 0.04 
439 1 1 0.748962 -0.707084 -0.960209 0 0 0 3.5742e-06 8.92117e-07 1.13678e-06 -0.000142044 -0.000120972 -0.000241894 -1.69122e-05 3.33542e-05 3.44789e-06 0.04 
662 1 1 0.818044 -0.666736 -0.960232 0 0 0 2.90306e-06 6.36729e-06 -6.03602e-07 0.000214858 -0.000811821 0.000289991 -0.000196464 -3.72059e-05 1.8355e-05 0.04 
188 1 1 0.891037 -0.713775 -0.960247 0 0 0 1.26561e-06 8.97476e-07 -6.37255e-06 0.000156306 -0.000232292 0.000260801 -7.83419e-05 4.44882e-06 2.24019e-05 0.04 
987 1 1 0.960144 -0.673802 -0.960181 0 0 0 3.04463e-08 7.00936e-07 -1.93016e-06 2.84984e-05 -5.37345e-05 9.06317e-05 -2.96632e-05 -7.64159e-05 -1.42563e-05 0.04 
990 1 1 -0.877721 -0.605528 -0.96022 0 0 0 2.38259e-05 -8.24383e-06 -7.5016e-06 -9.14184e-05 -0.00102352 0.00100736 0.000217002 0.000594168 0.000314045 0.04 
826 1 1 -0.811813 -0.666091 -0.960159 0 0 0 1.23243e-05 -1.35065e-05 -1.13869e-05 0.000200651 -0.00139515 -0.000437608 0.000330079 0.000119879 -0.000109005 0.04 
1152 1 1 -0.757384 -0.607624 -0.960257 0 0 0 1.17955e-05 -5.67672e-06 -9.78514e-06 -0.000919997 -0.000482067 -0.00106525 5.15123e-05 0.000142582 0.000453563 0.04 
567 1 1 -0.689508 -0.64998 -0.960178 0 0 0 1.18238e-05 -3.55268e-06 -1.1555e-05 -0.00288777 0.000475895 0.00128557 2.12837e-05 0.000189005 -0.00036167 0.04 
170 1 1 -0.527835 -0.64915 -0.960297 0 0 0 1.95612e-05 -1.53121e-05 2.14127e-05 -0.00023752 0.000957686 -0.000261129 0.000263999 0.000443894 6.33795e-05 0.04 
375 1 1 -0.448831 -0.637331 -0.960305 0 0 0 1.60044e-05 -1.81523e-05 3.57726e-06 0.000188057 0.000880758 0.000688808 0.000123998 0.000238174 3.78398e-05 0.04 
709 1 1 -0.36733 -0.616042 -0.960195 0 0 0 4.43858e-06 -1.23964e-05 2.39431e-06 0.000244674 0.00104083 0.000161199 0.00016526 7.13938e-05 0.0002637 0.04 
1046 1 1 -0.0467053 -0.648898 -0.960242 0 0 0 -4.21226e-06 -2.67526e-06 6.9629e-06 4.34858e-05 -0.00139351 -7.61558e-05 2.39339e-05 -5.73983e-05 -0.000171935 0.04 
581 1 1 0.0319304 -0.662364 -0.960298 0 0 0 -9.32915e-06 2.8103e-06 1.32843e-05 0.000270113 -0.00126638 -0.000341157 -3.84036e-05 -0.000104351 0.000218434 0.04 
61 1 1 0.160809 -0.611665 -0.960225 0 0 0 -3.19665e-06 3.43532e-06 1.47057e-06 -0.000372055 -0.00024248 0.000303519 -1.3939e-05 -7.09079e-05 -7.22446e-05 0.04 
1052 1 1 0.252402 -0.609102 -0.960288 0 0 0 -1.84227e-06 6.94697e-06 1.37374e-07 0.000194864 -0.000145961 -0.000279864 -6.86209e-05 -1.00535e-05 5.17798e-05 0.04 
656 1 1 0.31191 -0.662487 -0.960129 0 0 0 -2.10704e-06 7.54889e-06 2.27322e-07 0.000181395 -7.05289e-05 -0.000130849 -7.82503e-05 2.68335e-05 -4.49545e-05 0.04 
1082 1 1 0.383105 -0.626077 -0.960242 0 0 0 1.70189e-07 -1.53644e-06 -2.25116e-07 0.000456067 -0.000116181 -0.000273368 0.000116634 6.17268e-05 -0.000260128 0.04 
255 1 1 0.462 -0.613477 -0.960265 0 0 0 -7.57795e-06 -7.89984e-06 4.06718e-07 0.000288166 -0.000342656 6.45039e-05 9.1606e-05 -0.000179442 6.0021e-05 0.04 
880 1 1 0.598422 -0.666186 -0.960224 0 0 0 -2.14402e-05 4.15672e-06 -5.04133e-07 0.000209285 -0.000465128 6.86822e-05 -0.000142561 -0.000486618 0.000214541 0.04 
1026 1 1 0.543027 -0.601443 -0.960162 0 0 0 -4.34877e-06 -1.35263e-06 -4.85451e-07 0.000668583 -0.000626758 -0.00169111 7.6462e-05 -9.66657e-05 -0.00280794 0.04 
543 1 1 0.748549 -0.627317 -0.96016 0 0 0 1.82632e-06 2.36046e-07 -2.24206e-06 0.000618911 -0.000306532 0.000337942 -1.25734e-05 7.80467e-05 3.00276e-05 0.04 
553 1 1 0.890863 -0.6339 -0.960238 0 0 0 3.6691e-06 1.93876e-06 -9.24412e-06 5.12014e-07 -0.000196695 5.16352e-05 -2.38257e-05 6.64605e-05 -4.20971e-05 0.04 
260 1 1 -0.960001 -0.595548 -0.960243 0 0 0 -5.70628e-06 -5.73228e-06 -1.20283e-05 0.00013616 0.000574441 -0.000563194 0.000165494 -0.00011103 -0.000155191 0.04 
565 1 1 -0.81668 -0.553962 -0.96023 0 0 0 1.08082e-05 -1.15393e-05 -1.62999e-06 -0.000241146 -0.000585649 0.00124503 0.000307241 7.76661e-05 -0.000208963 0.04 
1113 1 1 -0.703061 -0.549222 -0.960278 0 0 0 5.49275e-06 -5.63579e-06 -4.82971e-06 -0.000621896 0.000921899 -0.000360082 8.49716e-05 -5.78246e-05 -0.000319659 0.04 
925 1 1 -0.635196 -0.591292 -0.960146 0 0 0 9.39898e-06 -4.39891e-06 -5.5322e-06 -0.00124971 0.00122214 0.000709491 7.73131e-05 0.000135589 0.00041055 0.04 
893 1 1 -0.547624 -0.562691 -0.960173 0 0 0 1.14004e-05 -7.76493e-06 8.68153e-06 -0.000238619 0.00112701 -0.000376329 0.000141947 0.000242421 0.000265273 0.04 
1103 1 1 -0.454637 -0.557855 -0.960301 0 0 0 4.66217e-06 -1.20097e-05 5.70236e-06 5.59245e-05 0.000883655 0.00128981 0.000250415 9.1064e-05 0.000245514 0.04 
1448 1 1 -0.377549 -0.536781 -0.960162 0 0 0 2.01591e-07 -6.91299e-06 3.46178e-06 0.000421537 0.000565789 0.00043804 -1.11477e-05 -4.89269e-06 -8.63364e-05 0.04 
631 1 1 -0.303804 -0.567605 -0.960239 0 0 0 -6.79457e-07 -7.99308e-06 9.9508e-06 0.000538278 0.000425101 -0.000173384 7.39391e-05 -4.16379e-05 -2.49683e-05 0.04 
714 1 1 -0.230011 -0.597895 -0.960352 0 0 0 -4.84636e-06 -1.33883e-05 1.57586e-05 0.000173836 -0.000337681 0.000335672 -1.8505e-06 2.44212e-05 -7.28851e-05 0.04 
962 1 1 -0.165419 -0.550903 -0.960204 0 0 0 -6.72817e-07 -6.07398e-06 8.28544e-07 -0.000231798 -0.000368227 -0.000143859 1.7403e-05 4.71202e-06 1.62599e-05 0.04 
950 1 1 -0.0923581 -0.583303 -0.960249 0 0 0 -1.10048e-06 -1.76369e-06 3.6663e-06 -0.000597469 -0.00136712 0.000154876 -1.79056e-05 -6.54498e-05 0.000115372 0.04 
716 1 1 0.00265797 -0.586034 -0.960217 0 0 0 4.83388e-07 8.28043e-06 -1.23763e-06 -0.00082665 -0.00139933 0.000425058 -0.00018253 0.000136875 0.000343482 0.04 
388 1 1 0.0814132 -0.599613 -0.960229 0 0 0 6.0921e-07 8.17854e-06 -3.15298e-07 -0.000834883 -0.000901148 0.00102171 -0.000219716 6.75812e-05 -0.000245873 0.04 
867 1 1 0.204619 -0.545124 -0.960172 0 0 0 3.42877e-06 4.94906e-06 3.91444e-06 0.000218413 -0.000307233 0.000152153 3.76705e-06 6.84331e-05 -0.000127471 0.04 
576 1 1 0.321588 -0.564046 -0.960233 0 0 0 -3.30126e-07 -5.74885e-06 -1.52444e-05 0.00100601 -0.000326399 -0.000749194 0.000226803 0.000195284 -0.00050427 0.04 
408 1 1 0.403787 -0.548892 -0.960207 0 0 0 5.0839e-06 1.46729e-06 6.86813e-06 0.000525556 -0.000424089 -0.000412211 4.4546e-05 9.73358e-05 0.000300695 0.04 
814 1 1 0.482705 -0.536364 -0.960226 0 0 0 9.90731e-06 -5.41571e-06 -1.10652e-06 0.000589277 -0.000731175 0.00058087 6.80661e-05 0.000233523 -0.000470205 0.04 
1288 1 1 0.589751 -0.536429 -0.960267 0 0 0 8.13393e-06 3.73866e-06 -1.38696e-05 0.00109304 -0.000658768 -0.000362019 -3.518e-05 0.000262833 -0.000368078 0.04 
1111 1 1 0.678414 -0.58909 -0.96026 0 0 0 -3.61597e-06 -4.96585e-06 1.82043e-06 0.00105206 -6.50241e-05 0.000587484 8.7925e-05 -5.23983e-05 0.000122451 0.04 
1138 1 1 0.747381 -0.547509 -0.960207 0 0 0 2.32811e-06 -3.69594e-06 3.89245e-06 0.000984848 0.00015193 0.000260277 6.16167e-05 -6.4076e-05 6.39502e-05 0.04 
58 1 1 0.817503 -0.58598 -0.960208 0 0 0 5.03358e-06 -8.38366e-07 9.61705e-06 0.000274975 -0.000126327 -0.000892951 -7.71521e-05 5.6777e-05 6.11536e-05 0.04 
1107 1 1 0.890822 -0.554039 -0.960246 0 0 0 3.9662e-06 7.27952e-07 -6.6423e-06 -0.000126172 -0.000285296 -0.00034523 5.68838e-05 8.34268e-05 4.60045e-05 0.04 
252 1 1 0.96009 -0.593929 -0.960182 0 0 0 1.25422e-06 9.29489e-07 -2.45354e-06 -9.60915e-05 -3.01501e-05 6.52585e-05 1.34111e-05 -7.41884e-05 -1.13629e-05 0.04 
670 1 1 -0.960083 -0.515581 -0.960206 0 0 0 8.40279e-06 -1.15964e-05 -2.99589e-06 -0.000539741 0.000377555 -0.000206204 0.000190963 0.000194681 -0.000316819 0.04 
644 1 1 -0.761222 -0.493806 -0.960278 0 0 0 2.00965e-06 -1.17347e-05 4.0138e-06 -0.000458291 -0.000433878 0.00128807 0.000353828 7.7414e-05 -0.000446473 0.04 
833 1 1 -0.684416 -0.471796 -0.960325 0 0 0 -1.96126e-06 -5.03322e-06 -2.59082e-06 -0.00110794 0.000473269 2.75675e-05 -5.26654e-05 2.21184e-05 0.000532439 0.04 
435 1 1 -0.616325 -0.513721 -0.960225 0 0 0 2.04382e-07 -1.63569e-08 -3.30316e-06 0.000199663 0.000940772 -0.000420709 -5.82799e-06 4.58798e-05 -0.000269587 0.04 
816 1 1 -0.503031 -0.494467 -0.960281 0 0 0 -3.67613e-06 -6.31323e-06 6.6088e-06 6.88481e-05 0.00137229 0.000583823 9.33986e-06 -0.000113528 -0.000113981 0.04 
489 1 1 -0.313515 -0.488342 -0.96024 0 0 0 3.95986e-07 -5.71358e-06 8.17081e-06 0.000253551 0.000419884 0.000236023 2.93642e-05 -8.88119e-05 1.19583e-05 0.04 
883 1 1 -0.239739 -0.519014 -0.960264 0 0 0 1.32177e-06 -5.20226e-06 1.18843e-05 0.000255119 0.000132821 0.000364401 6.53994e-05 5.60731e-05 -1.12928e-05 0.04 
305 1 1 -0.1754 -0.471599 -0.960213 0 0 0 3.37638e-06 -3.13989e-06 3.51349e-06 3.13206e-05 -8.90296e-05 0.000119392 1.45332e-05 0.000200533 -0.000111216 0.04 
675 1 1 -0.101731 -0.5026 -0.960187 0 0 0 -7.51891e-07 4.51592e-06 -1.7232e-06 -0.00023211 -0.000513421 -4.66698e-05 -0.000109027 -1.96037e-05 0.000283006 0.04 
1066 1 1 -0.0221837 -0.510122 -0.960311 0 0 0 1.49649e-06 4.33705e-06 -1.74104e-06 -0.000534441 -0.00121547 -0.000184877 -5.78469e-05 5.36654e-05 -0.00035553 0.04 
143 1 1 0.058978 -0.523024 -0.960124 0 0 0 6.75868e-06 2.32187e-06 -1.69958e-06 6.40203e-05 -0.00135503 2.25537e-05 2.04613e-05 0.000166423 0.000153794 0.04 
1346 1 1 0.153919 -0.483517 -0.960267 0 0 0 5.68375e-06 6.07797e-06 2.82165e-06 0.00017395 -0.000560967 -0.000155074 -0.000119454 3.48734e-05 0.000112959 0.04 
1000 1 1 0.271508 -0.501727 -0.960223 0 0 0 4.09143e-06 6.19596e-06 4.88599e-06 0.000729539 -0.000599342 -9.02271e-05 3.05821e-05 -5.91012e-05 0.000179042 0.04 
792 1 1 0.350499 -0.489392 -0.960249 0 0 0 1.88425e-07 6.07908e-07 2.01061e-05 0.000904849 -0.000306258 0.000576869 -8.16252e-05 -5.92385e-05 -0.000212039 0.04 
1361 1 1 0.432907 -0.473801 -0.96021 0 0 0 1.17393e-05 5.64898e-07 7.6095e-06 0.000700392 -0.000277991 -0.00112262 -8.78502e-05 0.000141691 0.000178917 0.04 
584 1 1 0.536204 -0.47709 -0.960204 0 0 0 1.71787e-05 -3.46045e-06 7.47344e-07 0.000377068 -0.00072722 0.000806575 0.000135371 0.000286202 0.00019539 0.04 
908 1 1 0.677146 -0.50943 -0.960259 0 0 0 4.83199e-06 -1.75528e-06 3.83229e-06 0.000772923 -6.58879e-07 -0.000243427 5.56465e-05 -1.32465e-05 -0.000147809 0.04 
1309 1 1 0.804447 -0.491605 -0.960226 0 0 0 1.13631e-05 -8.74622e-07 7.25598e-06 0.000739265 0.00146265 0.000396107 -0.00012161 7.46701e-05 -0.000260711 0.04 
9 1 1 0.890886 -0.474152 -0.960181 0 0 0 3.68847e-06 4.90895e-06 -3.59381e-06 -0.000198131 -0.000335615 6.57431e-05 -9.95683e-05 2.83987e-05 -9.59917e-05 0.04 
771 1 1 0.960095 -0.514066 -0.960231 0 0 0 8.30404e-07 2.2329e-06 4.54739e-07 -0.000119369 -4.91221e-05 0.000138341 -8.78954e-06 -3.9348e-05 -9.29898e-06 0.04 
1055 1 1 -0.960062 -0.423547 -0.960212 0 0 0 5.19887e-07 -4.68841e-06 9.29257e-07 -0.000530996 -8.64282e-05 -0.000243056 2.98657e-05 3.45192e-05 -2.82585e-05 0.04 
739 1 1 -0.890752 -0.463397 -0.960241 0 0 0 1.60395e-06 -6.37027e-06 -9.0025e-06 -0.000697538 -0.00033289 -4.11267e-05 0.000105014 2.14717e-05 7.68284e-05 0.04 
1142 1 1 -0.821571 -0.423415 -0.96026 0 0 0 -2.63921e-06 -3.40457e-06 -2.45846e-06 -0.00109443 -0.000374435 6.98036e-05 0.000106974 -0.000137094 1.9403e-05 0.04 
613 1 1 -0.636931 -0.407836 -0.9603 0 0 0 -9.84494e-06 -6.3336e-06 -2.1319e-06 -0.000766209 0.00016678 7.40558e-05 0.000117191 -0.000118628 -0.000235237 0.04 
620 1 1 -0.568908 -0.449471 -0.96023 0 0 0 -4.62199e-06 -4.52933e-06 -4.2448e-06 -0.000292104 0.0012311 -0.000777165 6.50515e-05 -6.64926e-05 0.000189696 0.04 
1316 1 1 -0.460836 -0.426641 -0.960331 0 0 0 -5.09574e-06 -8.30871e-06 8.1717e-06 -0.000209068 0.00127123 -0.00060874 6.42029e-05 -4.92248e-05 -4.11825e-05 0.04 
344 1 1 -0.387126 -0.457462 -0.960274 0 0 0 -2.12704e-06 -1.08594e-05 5.39024e-06 0.000204778 0.000847925 0.000648341 5.54118e-05 5.83487e-05 7.82474e-05 0.04 
247 1 1 -0.323486 -0.40902 -0.960224 0 0 0 -4.75085e-06 -6.4003e-06 1.21807e-05 0.000345315 0.000501262 -0.000258735 0.000195454 -0.000188483 0.000143743 0.04 
382 1 1 -0.249869 -0.440011 -0.960247 0 0 0 -2.58439e-07 -3.91179e-06 1.66611e-05 0.000146618 0.000226045 -5.74539e-05 7.55618e-05 -2.54507e-05 1.08096e-05 0.04 
1271 1 1 -0.105193 -0.422597 -0.960247 0 0 0 1.08058e-05 1.07932e-08 -8.23918e-07 -9.82194e-05 -0.000735432 -0.000104869 -1.89036e-05 0.000233044 0.000216169 0.04 
1249 1 1 0.029428 -0.44887 -0.960288 0 0 0 6.73376e-06 1.66464e-06 -3.25126e-07 -1.96175e-05 -0.00141113 -0.000225695 -5.19699e-05 0.000176045 -0.000160916 0.04 
1030 1 1 0.104305 -0.421015 -0.96028 0 0 0 2.60199e-06 -1.015e-06 -8.66599e-06 -0.00108348 -0.00159427 -0.000475856 -7.9854e-05 -6.4215e-05 0.000154794 0.04 
1148 1 1 0.22083 -0.439836 -0.96025 0 0 0 2.22731e-06 8.15998e-06 -2.78365e-06 0.000447272 -0.000680989 -0.000507038 -0.000188149 -1.11974e-05 -6.68183e-05 0.04 
772 1 1 0.300186 -0.427301 -0.96021 0 0 0 2.76047e-06 7.62696e-06 3.99817e-06 0.000476661 -0.000651681 -1.32755e-05 -0.000205808 -8.20578e-05 -4.76743e-05 0.04 
845 1 1 0.379043 -0.414708 -0.960221 0 0 0 5.30567e-06 1.45926e-06 4.92057e-06 0.000750525 -0.000272655 -0.000233656 -6.42532e-05 6.85642e-05 -4.66136e-06 0.04 
981 1 1 0.561051 -0.401067 -0.960201 0 0 0 1.47569e-05 -3.14082e-07 -1.52759e-06 8.37e-05 -0.000546415 0.000912688 -4.53201e-05 0.00025216 -0.000120781 0.04 
1047 1 1 0.614308 -0.460357 -0.960196 0 0 0 1.06463e-05 6.91642e-07 2.54155e-06 0.000450889 -0.00033352 0.000742455 -3.68352e-05 -0.000110912 7.03332e-05 0.04 