ITEM: TIMESTEP
123400
ITEM: NUMBER OF ATOMS
1500
ITEM: BOX BOUNDS ff ff ff
-1 1
-1 1
-1 1
ITEM: ATOMS id type type x y z ix iy iz vx vy vz fx fy fz omegax omegay omegaz radius 
137 1 1 -0.96011 -0.960152 -0.960202 0 0 0 -6.84601e-07 1.72934e-06 -6.34828e-07 -0.000134085 0.000201656 0.000262715 -6.61336e-05 -1.14084e-05 5.89095e-05 0.04 
5 1 1 -0.830892 -0.960169 -0.960266 0 0 0 -7.0144e-07 1.05544e-06 7.59831e-07 -0.000141363 0.000232389 1.3509e-05 -3.69161e-05 -3.55514e-05 -1.69344e-05 0.04 
239 1 1 -0.750973 -0.96014 -0.960255 0 0 0 -1.71956e-06 -2.67831e-06 -1.65815e-07 -8.03546e-05 -0.000114687 0.00019086 3.94587e-05 1.55866e-05 3.61638e-07 0.04 
34 1 1 -0.671017 -0.960044 -0.960246 0 0 0 -1.14103e-06 -4.37148e-06 -2.38635e-06 9.47602e-05 -0.000666625 1.9736e-05 6.4386e-05 1.9253e-06 -6.53738e-07 0.04 
415 1 1 -0.591068 -0.960062 -0.960291 0 0 0 -2.77061e-07 -4.02003e-06 -2.20151e-06 -3.99311e-05 -0.000420596 -0.000232329 2.00301e-05 -4.32607e-05 1.63442e-05 0.04 
138 1 1 -0.510834 -0.960069 -0.960241 0 0 0 1.2319e-06 -1.03222e-06 1.4477e-06 -0.000199857 -0.000715723 -0.000673 2.28697e-05 -8.22681e-06 -2.6729e-05 0.04 
323 1 1 -0.43029 -0.959877 -0.960154 0 0 0 9.82262e-07 -7.34839e-06 -3.01516e-06 -0.000763383 0.000381192 -0.000296661 0.000174241 -6.00445e-05 0.000172703 0.04 
130 1 1 -0.350318 -0.960038 -0.960252 0 0 0 3.19395e-06 -1.11772e-06 -1.29084e-07 -0.000678556 0.000252013 7.13913e-06 4.40403e-05 7.34449e-05 -2.80324e-05 0.04 
502 1 1 -0.270343 -0.960119 -0.960299 0 0 0 1.84088e-06 -1.57789e-06 -3.21179e-06 -0.000504876 -0.000190193 0.000181312 3.32624e-05 2.12814e-05 -6.58181e-05 0.04 
494 1 1 -0.174299 -0.960163 -0.960229 0 0 0 7.89592e-08 3.36135e-06 1.45434e-06 -0.000273629 0.000176956 0.000268923 -5.48283e-06 -4.55259e-05 -6.64896e-05 0.04 
448 1 1 -0.0943154 -0.960146 -0.960266 0 0 0 6.18174e-07 3.73681e-06 3.38356e-06 -0.000155893 0.000334792 0.000538167 -9.26629e-05 1.81979e-05 -3.02315e-05 0.04 
147 1 1 -0.0144648 -0.96016 -0.960215 0 0 0 1.95197e-06 1.40326e-06 7.33583e-07 -0.000166716 0.000250428 0.000289034 -2.70479e-05 5.04553e-05 -2.3997e-05 0.04 
218 1 1 0.0655312 -0.960172 -0.960209 0 0 0 2.42007e-06 -3.54628e-07 -1.45423e-07 -0.00032181 0.000459599 0.000196108 6.24781e-06 1.34017e-05 -2.2456e-05 0.04 
339 1 1 0.145757 -0.960145 -0.960214 0 0 0 2.46112e-06 1.81854e-07 9.4361e-07 -0.00028773 0.000115308 0.000197308 8.72438e-06 2.91573e-05 -2.08331e-05 0.04 
81 1 1 0.225734 -0.960094 -0.960177 0 0 0 1.90061e-06 3.16191e-07 -4.60345e-07 -0.00019856 -1.60518e-05 7.60021e-05 -1.76726e-05 -3.51297e-08 -2.83878e-05 0.04 
341 1 1 0.305651 -0.960069 -0.960157 0 0 0 2.51026e-06 -2.33048e-06 1.05074e-06 -0.000143312 -7.37812e-05 -9.57884e-06 5.23454e-05 1.28418e-05 -4.68069e-05 0.04 
203 1 1 0.385622 -0.960082 -0.960219 0 0 0 4.22738e-06 -7.62067e-06 2.28715e-06 -0.000111126 2.91258e-05 -1.05929e-05 0.000133887 -2.75582e-05 -0.000127718 0.04 
1019 1 1 0.473737 -0.960015 -0.96021 0 0 0 4.52266e-06 2.99182e-06 -7.35753e-06 -5.22903e-05 -1.98177e-05 1.31884e-05 -0.000169293 -7.39038e-05 -0.000108134 0.04 
821 1 1 0.553721 -0.960025 -0.960231 0 0 0 2.08378e-06 9.37521e-07 -5.53863e-07 -1.58793e-05 -3.66448e-05 -3.91416e-05 -1.63789e-05 -1.78831e-05 1.9822e-05 0.04 
636 1 1 0.633692 -0.960458 -0.9602 0 0 0 1.45607e-06 -8.46586e-07 -3.15499e-07 -3.40528e-05 3.35859e-05 -0.000260668 -4.05108e-05 7.44265e-05 -4.99607e-05 0.04 
729 1 1 0.720239 -0.960012 -0.96016 0 0 0 1.19799e-06 -1.34126e-07 7.42554e-08 -1.14878e-05 -7.76299e-06 0.000393796 4.05619e-06 2.08577e-05 -2.38669e-05 0.04 
503 1 1 0.800202 -0.960037 -0.960137 0 0 0 5.82953e-07 -9.45803e-07 1.23942e-07 -3.1958e-05 2.21741e-05 0.000127888 2.2364e-05 4.57713e-06 -7.44155e-06 0.04 
424 1 1 0.880173 -0.96004 -0.96016 0 0 0 2.71648e-07 -2.64038e-07 -4.99926e-07 6.4774e-05 -2.34622e-05 0.000157062 -1.55668e-05 5.84612e-06 8.74941e-06 0.04 
850 1 1 0.9601 -0.958945 -0.960223 0 0 0 8.48072e-08 4.22011e-07 -3.03378e-09 2.47435e-05 -0.000227259 -6.62431e-05 -1.79005e-05 -1.60792e-06 -4.74972e-06 0.04 
778 1 1 -0.959929 -0.880402 -0.960216 0 0 0 -3.34806e-06 -1.12156e-06 -5.27583e-06 0.000290864 0.000303367 0.00016889 9.96673e-06 -9.54328e-05 -1.95294e-05 0.04 
918 1 1 -0.880185 -0.897208 -0.960224 0 0 0 2.61962e-06 2.36888e-06 -1.70137e-06 0.000135913 0.000472681 -0.000151246 -6.218e-05 9.27453e-05 -6.32524e-06 0.04 
246 1 1 -0.791824 -0.890618 -0.960152 0 0 0 -2.12988e-07 -1.06359e-06 -1.64079e-06 -0.000423114 0.000444545 -0.000179689 2.90646e-05 2.04025e-05 -5.47925e-05 0.04 
586 1 1 -0.71186 -0.890539 -0.960297 0 0 0 -1.41767e-06 -4.41764e-06 5.67375e-07 -0.000348437 -0.000232137 0.00115961 7.72481e-05 -4.18452e-05 -3.07214e-05 0.04 
379 1 1 -0.630909 -0.890721 -0.960191 0 0 0 -2.40042e-06 -7.36583e-06 -2.73836e-08 -0.000110167 -0.00115046 0.000540391 0.000130742 -1.31654e-05 5.20619e-05 0.04 
105 1 1 -0.550902 -0.890948 -0.960215 0 0 0 -7.11278e-07 -4.59946e-06 6.78216e-07 -0.000169789 -0.000634107 -0.000151649 5.24851e-05 -5.91617e-05 6.14168e-05 0.04 
289 1 1 -0.471001 -0.890716 -0.96025 0 0 0 2.84453e-06 1.40286e-06 7.35839e-07 -0.000821116 0.00051008 0.000202759 -1.97537e-05 0.000102279 9.27297e-05 0.04 
345 1 1 -0.388109 -0.869629 -0.960118 0 0 0 -0.00161666 -0.00126345 -1.50505e-06 8.17834e-09 6.37532e-09 0.000137975 0.0316328 -0.0404763 0.077917 0.04 
209 1 1 -0.310223 -0.890869 -0.960163 0 0 0 4.21601e-06 -1.53153e-06 4.99e-07 6.9305e-05 0.000194513 0.000224702 6.67351e-05 0.000132743 -3.73195e-06 0.04 
647 1 1 -0.222237 -0.896276 -0.960225 0 0 0 1.63388e-06 5.39993e-06 -2.47697e-06 -0.000351423 0.00025631 -6.27901e-05 -0.000158309 0.000103668 0.000107031 0.04 
700 1 1 -0.134298 -0.891095 -0.960196 0 0 0 3.40868e-06 3.36526e-06 8.47747e-07 -0.000211718 0.0003351 0.000644058 -4.60851e-05 0.000104436 -8.56939e-06 0.04 
616 1 1 -0.0544215 -0.890853 -0.960232 0 0 0 4.7121e-06 1.27883e-06 -4.04786e-06 -0.000211202 0.000648028 0.0007211 2.07451e-05 5.2229e-05 -6.82583e-05 0.04 
87 1 1 0.0254597 -0.891074 -0.960203 0 0 0 5.12667e-06 -6.13705e-07 -2.38398e-06 -0.000366136 0.000674466 0.000326928 -7.54651e-07 2.73656e-05 -4.48359e-05 0.04 
655 1 1 0.105572 -0.891076 -0.960218 0 0 0 4.61462e-06 5.53838e-07 2.01205e-07 -0.000379114 0.000407573 0.000213114 -8.47124e-06 7.0921e-05 -2.40871e-05 0.04 
977 1 1 0.18566 -0.890926 -0.960202 0 0 0 2.43742e-06 9.00968e-07 -1.96398e-06 -0.000353758 3.68583e-05 0.000122936 -3.12297e-05 9.94351e-06 -3.74648e-06 0.04 
19 1 1 0.265637 -0.890829 -0.960227 0 0 0 4.0269e-06 -2.17932e-06 5.86169e-06 -0.000366786 -0.000244891 4.29419e-05 0.000124027 1.22195e-05 -6.27845e-05 0.04 
443 1 1 0.345634 -0.890855 -0.960247 0 0 0 6.72526e-06 -5.55491e-06 2.86481e-06 -0.000491833 1.65942e-05 -4.09225e-05 6.2363e-06 0.000107248 -1.18353e-05 0.04 
664 1 1 0.429599 -0.89332 -0.960215 0 0 0 7.89189e-06 -7.07906e-06 3.99019e-06 -0.000477779 -0.000155975 0.000201169 0.00021048 0.000243771 4.57378e-05 0.04 
74 1 1 0.59436 -0.891144 -0.960225 0 0 0 7.46454e-06 1.86597e-07 -4.43997e-06 -0.000131679 -8.09034e-05 -0.00033794 -7.21468e-05 0.000239222 -9.81458e-05 0.04 
50 1 1 0.674248 -0.892015 -0.960177 0 0 0 5.41716e-07 -3.58687e-06 -9.23923e-06 -0.000203438 2.40943e-05 -0.000419024 1.09449e-05 -7.1229e-06 3.39138e-05 0.04 
1 1 1 0.749841 -0.866831 -0.960242 0 0 0 -6.89225e-07 -3.28657e-06 -2.33784e-07 -0.000174219 7.61233e-05 0.000181771 0.000119511 -2.00706e-05 2.53968e-05 0.04 
812 1 1 0.878013 -0.880136 -0.960204 0 0 0 -3.20249e-08 -1.47206e-06 -2.34126e-06 -6.88492e-05 0.000200941 0.000782553 1.16739e-05 6.12098e-06 8.09203e-06 0.04 
446 1 1 -0.960244 -0.800741 -0.960215 0 0 0 -6.04992e-07 -2.24263e-06 -4.61189e-06 0.000268328 0.000290048 -0.000171262 7.68444e-05 8.01129e-05 -2.7949e-05 0.04 
352 1 1 -0.840947 -0.82753 -0.960338 0 0 0 1.49937e-06 1.81818e-06 1.06213e-06 0.000113034 0.000345745 -0.00127061 2.19143e-05 -2.93468e-06 -7.66276e-06 0.04 
894 1 1 -0.761751 -0.816673 -0.960285 0 0 0 9.74096e-07 -1.91486e-07 2.04768e-06 -0.000235589 2.77462e-05 -0.0014526 -5.88343e-05 -0.000124136 5.71007e-05 0.04 
960 1 1 -0.681852 -0.816441 -0.960115 0 0 0 1.87517e-06 -3.9046e-06 1.26341e-06 -0.00035638 8.40404e-05 -6.2188e-05 4.71483e-05 0.000123402 -9.07941e-05 0.04 
380 1 1 -0.535213 -0.812503 -0.960157 0 0 0 -1.85416e-06 -5.53614e-06 1.2922e-06 -0.000682333 -0.000129297 0.000390738 5.68671e-05 5.10777e-06 2.83378e-05 0.04 
720 1 1 -0.257532 -0.824582 -0.96029 0 0 0 5.41739e-07 1.90819e-06 -9.98869e-06 8.40423e-05 0.000284792 -0.000714663 3.48867e-06 -0.000112328 -0.000104419 0.04 
161 1 1 -0.175356 -0.82283 -0.960298 0 0 0 6.50056e-06 4.1193e-06 9.50362e-07 0.000172716 0.00041776 2.57827e-05 -0.000154848 0.000167036 -6.40283e-05 0.04 
385 1 1 -0.0954131 -0.82014 -0.960192 0 0 0 3.80335e-06 4.61052e-06 2.48278e-06 1.56729e-05 0.00039814 0.000167143 -0.000205015 -4.75376e-05 0.000158477 0.04 
827 1 1 -0.0151056 -0.821238 -0.960264 0 0 0 7.79168e-07 -1.62277e-07 3.00074e-06 0.000158439 0.00109675 -0.000802854 6.78067e-05 2.91224e-05 0.00013896 0.04 
784 1 1 0.0652889 -0.822028 -0.960241 0 0 0 2.37457e-06 5.26619e-07 8.01118e-07 -0.000185048 0.00062355 9.75757e-05 1.86784e-05 2.33702e-06 8.89096e-05 0.04 
211 1 1 0.145419 -0.821876 -0.960214 0 0 0 2.5811e-06 1.39308e-06 6.86975e-08 -0.000247329 0.000277881 0.000125968 1.41596e-05 5.28193e-05 3.97874e-05 0.04 
121 1 1 0.225286 -0.821505 -0.960185 0 0 0 3.95629e-06 -1.96114e-06 -2.62587e-06 -0.000304019 0.00010334 0.000300283 9.38017e-05 3.48797e-05 -0.000123274 0.04 
354 1 1 0.302764 -0.802489 -0.960232 0 0 0 6.01752e-06 -7.20757e-06 -5.51349e-07 -0.000646287 0.00024794 5.26941e-05 0.000118548 7.63638e-05 3.07155e-05 0.04 
229 1 1 0.380706 -0.819076 -0.960368 0 0 0 8.00895e-06 -6.71771e-06 -4.91001e-06 -0.000664762 4.78637e-05 0.000352581 0.000119933 0.000154929 1.08235e-05 0.04 
369 1 1 0.456121 -0.822155 -0.935181 0 0 0 8.99715e-06 -1.05653e-05 3.24703e-06 -0.000744478 -0.000255294 -9.91261e-05 -9.90435e-05 -0.00026588 -4.61083e-05 0.04 
396 1 1 0.51956 -0.863497 -0.960239 0 0 0 8.91756e-06 -5.36096e-06 6.90958e-06 -0.000527121 -0.000149043 -0.000509337 0.000167088 0.000151734 6.13847e-05 0.04 
866 1 1 0.594027 -0.811307 -0.960336 0 0 0 -7.39574e-07 -1.98759e-06 -1.69764e-05 -0.000337208 -0.000382476 -5.28712e-05 0.000120728 -0.000158276 2.85432e-05 0.04 
628 1 1 0.673821 -0.812298 -0.960205 0 0 0 -1.94164e-06 -3.14492e-06 8.32624e-07 -0.000191992 -0.000116067 -0.000328957 0.000101511 -0.000153457 -4.93677e-05 0.04 
554 1 1 0.818679 -0.826524 -0.960283 0 0 0 -4.56334e-07 -1.76287e-06 -2.16348e-07 1.30862e-05 8.21173e-05 8.35308e-05 6.12823e-05 3.49664e-05 -8.75791e-06 0.04 
417 1 1 0.960154 -0.833965 -0.960253 0 0 0 -2.20334e-07 5.79225e-07 1.0756e-06 0.000132252 -0.00030927 -0.000466246 -3.55467e-05 1.16696e-05 -1.3472e-05 0.04 
282 1 1 -0.889436 -0.764116 -0.960201 0 0 0 2.86253e-07 -2.31418e-06 -1.4109e-06 0.000140213 0.000227019 -0.000349021 6.38499e-05 -9.54132e-05 -3.27895e-05 0.04 
492 1 1 -0.810312 -0.7532 -0.960206 0 0 0 2.8963e-06 -6.96014e-06 4.76356e-06 0.000302697 -0.000525691 -0.000408077 0.000307082 3.91762e-06 -3.52753e-05 0.04 
290 1 1 -0.609446 -0.782716 -0.960221 0 0 0 -2.63174e-06 -8.07784e-06 -8.20249e-07 -0.000498908 -0.00127873 5.42571e-06 9.84072e-05 -5.78699e-05 2.56782e-05 0.04 
52 1 1 -0.453376 -0.788996 -0.960332 0 0 0 3.37912e-06 6.53262e-07 6.86198e-06 -0.000723679 -9.02465e-05 -0.000422314 -4.45249e-05 0.000168935 -0.00020506 0.04 
480 1 1 -0.375659 -0.770535 -0.960362 0 0 0 5.6048e-06 -1.10374e-05 -1.7996e-05 -0.000687901 -0.000505083 -0.000596303 0.000231154 0.000168725 -3.85182e-05 0.04 
402 1 1 -0.297581 -0.75357 -0.960118 0 0 0 4.74084e-06 -2.2174e-06 -6.48829e-06 -3.63225e-05 -2.39057e-05 0.000142192 0.000134687 -9.39006e-05 0.000140456 0.04 
322 1 1 -0.217706 -0.755339 -0.96013 0 0 0 7.98527e-06 3.90048e-06 -3.80803e-06 -0.000101578 -9.17243e-05 -0.000137399 -1.87778e-05 6.22358e-05 -8.95756e-05 0.04 
376 1 1 -0.137785 -0.752317 -0.960137 0 0 0 6.24754e-06 -2.09294e-06 -5.30762e-06 -0.000222282 0.000583286 -0.000129614 4.35294e-05 5.58125e-05 -9.37147e-05 0.04 
204 1 1 -0.059566 -0.735823 -0.960305 0 0 0 5.28752e-06 8.91878e-07 -1.42269e-05 -5.64422e-05 0.000463373 0.000283499 -5.84473e-05 0.000113178 0.000203364 0.04 
1122 1 1 0.019315 -0.74896 -0.960158 0 0 0 9.5423e-07 2.35307e-06 -2.66538e-06 5.57669e-05 0.000840213 1.09549e-05 -3.48597e-05 -0.000142961 -0.000127395 0.04 
773 1 1 0.105142 -0.753051 -0.960328 0 0 0 1.81966e-06 1.56293e-06 6.36695e-06 -0.000183556 0.000617366 -1.12384e-05 7.42284e-05 -4.05623e-06 -5.50595e-05 0.04 
725 1 1 0.185119 -0.75234 -0.960163 0 0 0 4.33276e-06 -4.14044e-08 2.46106e-06 -0.000435929 0.000252815 -6.8866e-05 -2.1486e-05 0.00012763 0.000104067 0.04 
159 1 1 0.345573 -0.735002 -0.960256 0 0 0 4.18195e-06 -6.54684e-06 -4.82631e-07 -0.000731383 0.000150893 0.000391438 8.45022e-05 0.000105652 1.24435e-05 0.04 
688 1 1 0.482791 -0.751117 -0.96023 0 0 0 4.24487e-06 -8.03498e-06 -3.02604e-06 -0.000478458 -0.000113357 -6.86356e-05 5.48198e-05 0.000107809 1.35951e-05 0.04 
757 1 1 0.561591 -0.738304 -0.960169 0 0 0 -7.31829e-07 -8.5408e-06 -1.08069e-05 -0.000283551 -0.000816077 2.49624e-05 0.000186158 -2.58308e-05 -2.52807e-05 0.04 
519 1 1 0.641385 -0.739389 -0.960172 0 0 0 -2.79938e-06 5.26764e-07 2.32106e-06 -0.000170162 -0.000786728 0.000105545 -1.62536e-05 -0.000119725 6.1858e-05 0.04 
742 1 1 0.749359 -0.786904 -0.960233 0 0 0 -7.05085e-07 -2.28416e-06 2.62764e-06 -3.29016e-05 -0.000224261 7.43704e-05 -1.07243e-05 2.47835e-05 3.0223e-05 0.04 
603 1 1 0.818346 -0.74666 -0.960129 0 0 0 1.35319e-06 -1.27479e-06 -3.83834e-07 7.02081e-05 -0.000140586 7.44259e-05 -4.35754e-05 2.08091e-05 -1.45528e-05 0.04 
86 1 1 0.891232 -0.793683 -0.960276 0 0 0 8.87607e-08 -9.17918e-07 1.03252e-06 0.000132308 -0.000145973 -0.000388769 -2.75388e-05 2.78775e-06 7.12791e-06 0.04 
972 1 1 0.96024 -0.753737 -0.960208 0 0 0 5.98973e-07 -2.99255e-07 -1.86184e-07 0.00015978 -0.00018248 -0.000276898 -2.28771e-05 1.10556e-06 -6.39271e-06 0.04 
488 1 1 -0.960206 -0.720977 -0.960237 0 0 0 7.94381e-07 -1.76338e-06 3.48186e-06 0.00011052 7.46277e-05 -0.000126 9.71925e-05 -7.69541e-05 -6.83403e-05 0.04 
532 1 1 -0.889466 -0.684333 -0.960246 0 0 0 7.6534e-06 -1.27037e-06 5.952e-06 -0.000247811 0.000148356 7.23024e-05 3.67149e-05 0.00017982 -6.68592e-05 0.04 
564 1 1 -0.744084 -0.708374 -0.96026 0 0 0 8.95577e-06 3.81347e-06 5.64665e-06 0.000283924 -0.000723013 0.000104072 -4.27801e-05 0.000215344 8.91702e-05 0.04 
314 1 1 -0.6662 -0.726449 -0.960118 0 0 0 2.00439e-06 5.82043e-07 2.12853e-06 -2.57498e-05 -0.000493495 -5.54523e-05 6.8114e-05 3.62999e-06 -0.000220583 0.04 
783 1 1 -0.611381 -0.667464 -0.96026 0 0 0 4.83797e-06 -2.88294e-06 1.4917e-05 -0.00041277 -0.000397463 -0.000404795 -7.15954e-05 0.000249083 0.000268649 0.04 
1127 1 1 -0.555101 -0.724255 -0.960254 0 0 0 2.97034e-06 -8.72703e-06 -3.33433e-06 -0.00103565 -0.000511898 -0.00034905 0.000201236 1.21416e-05 -8.68726e-05 0.04 
241 1 1 -0.476074 -0.712363 -0.960182 0 0 0 6.35454e-06 -2.23976e-06 7.35304e-06 -0.000299495 0.000104424 -1.16894e-05 -2.29049e-05 -1.97492e-05 0.000234331 0.04 
85 1 1 -0.391017 -0.692253 -0.960256 0 0 0 9.60096e-06 -9.75523e-06 -1.27642e-05 -9.68719e-05 -0.000383315 -0.000189663 0.000321771 3.69174e-05 0.00012291 0.04 
511 1 1 -0.313004 -0.675099 -0.960171 0 0 0 4.36806e-06 1.93039e-06 -3.49936e-06 -0.000597472 0.00101587 -0.000306025 -7.70734e-05 -6.87101e-05 8.82073e-05 0.04 
873 1 1 -0.233104 -0.677236 -0.960335 0 0 0 1.82736e-05 1.23568e-05 -1.25388e-05 0.000632788 0.00117948 -0.00065309 -0.000344357 0.000506422 8.51211e-05 0.04 
738 1 1 -0.122534 -0.673871 -0.960256 0 0 0 7.49734e-06 -4.89559e-06 -7.49948e-06 -8.16084e-05 8.91093e-05 -0.000530669 -3.2315e-05 0.000112363 0.000208533 0.04 
1088 1 1 0.110954 -0.673752 -0.960227 0 0 0 3.7177e-06 2.6605e-06 7.99203e-06 0.000153631 0.000770293 -2.58111e-05 -8.90677e-05 -1.6352e-06 3.55825e-05 0.04 
862 1 1 0.208436 -0.675887 -0.960172 0 0 0 -7.30175e-07 -2.18658e-06 3.11141e-06 -0.000785441 0.000137574 -4.49006e-05 4.34952e-05 -8.16693e-05 -5.31834e-05 0.04 
967 1 1 0.265708 -0.73166 -0.960287 0 0 0 1.35594e-06 -7.29427e-06 4.25569e-06 -0.000922929 -8.17358e-05 -3.79296e-05 0.000133029 -2.00288e-05 2.98126e-05 0.04 
451 1 1 0.432784 -0.688738 -0.960201 0 0 0 4.90979e-06 -5.01873e-06 7.19201e-07 -0.000278716 -0.00013041 0.000510548 6.07009e-05 6.57602e-05 -3.17407e-05 0.04 
177 1 1 0.511719 -0.675932 -0.960227 0 0 0 2.84864e-06 -7.82052e-06 -5.75307e-06 0.000262235 -3.52525e-05 0.000286793 7.8229e-05 1.08307e-05 3.88144e-06 0.04 
308 1 1 0.678757 -0.668897 -0.960169 0 0 0 4.38756e-06 -2.73016e-07 7.05131e-06 -0.000292219 -0.00031606 -0.000183373 8.01572e-05 8.68894e-05 -0.000169146 0.04 
439 1 1 0.748962 -0.707084 -0.960209 0 0 0 1.45569e-06 -3.09551e-06 1.29402e-06 -0.000174502 -0.00034217 -9.09792e-06 -4.69873e-06 6.86282e-05 -2.52576e-05 0.04 
662 1 1 0.818044 -0.666736 -0.960232 0 0 0 3.69669e-06 -3.64849e-06 -2.07709e-06 7.64064e-06 -0.000109011 0.000398127 6.94109e-05 1.25738e-05 3.13662e-05 0.04 
188 1 1 0.891037 -0.713775 -0.960247 0 0 0 1.78462e-06 -1.07496e-06 -8.54727e-07 0.00013756 -0.000190511 -3.02586e-05 9.31343e-06 2.60844e-05 -4.86066e-06 0.04 
987 1 1 0.960144 -0.673802 -0.960181 0 0 0 1.2795e-06 -6.01526e-07 -9.65836e-07 0.000161556 -0.000145284 -0.000156503 6.61977e-06 -5.11321e-08 5.51072e-06 0.04 
990 1 1 -0.877721 -0.605528 -0.96022 0 0 0 1.03687e-05 3.05292e-06 1.2679e-06 -0.000429052 8.98034e-05 0.000110794 -1.35848e-05 0.000196657 6.52231e-05 0.04 
826 1 1 -0.811813 -0.666091 -0.960159 0 0 0 2.40911e-06 4.71731e-06 -1.36468e-06 -0.000107139 -0.000397681 0.000295732 -0.000264782 -1.69181e-05 0.000157167 0.04 
1152 1 1 -0.757385 -0.607624 -0.960258 0 0 0 2.54865e-06 5.49793e-06 -1.12315e-05 0.000472025 -0.000723194 0.00046968 0.000119551 2.82055e-05 -0.000192271 0.04 
567 1 1 -0.689509 -0.64998 -0.960178 0 0 0 -9.79627e-06 6.78516e-06 8.28733e-06 0.00117455 -0.000654212 9.0244e-05 2.23449e-05 -0.000359035 0.000396402 0.04 
170 1 1 -0.527836 -0.64915 -0.960297 0 0 0 5.94529e-06 -6.83392e-06 1.80334e-05 -0.000330289 -0.000476556 0.000522972 0.000157026 0.000167442 0.000171942 0.04 
375 1 1 -0.448831 -0.637331 -0.960305 0 0 0 8.10779e-06 -4.78994e-06 5.18193e-06 -7.92034e-05 -0.000515851 0.000751677 8.26184e-05 0.000233136 -0.000154768 0.04 
709 1 1 -0.36733 -0.616041 -0.960195 0 0 0 8.47628e-06 -6.27917e-06 -3.51324e-07 0.000601217 -0.000155327 0.000128876 0.000136621 0.000231667 2.55084e-05 0.04 
1046 1 1 -0.0467054 -0.648898 -0.960242 0 0 0 4.99904e-07 -6.95477e-07 -7.98102e-06 -0.000159939 -7.50257e-05 -0.00058993 5.88618e-05 -0.000102786 9.78835e-05 0.04 
581 1 1 0.0319303 -0.662364 -0.960298 0 0 0 1.90981e-06 4.1023e-06 2.49818e-06 -3.24163e-05 0.000846673 -0.000226138 -7.80044e-05 -3.76189e-05 -8.96944e-05 0.04 
61 1 1 0.160809 -0.611665 -0.960225 0 0 0 4.09981e-06 2.54801e-06 2.12643e-06 -0.000279437 0.000621765 -0.000539114 -6.44232e-05 9.91174e-05 -1.97177e-05 0.04 
1052 1 1 0.252402 -0.609102 -0.960288 0 0 0 2.68622e-06 -4.21654e-06 6.55864e-06 -0.000576044 0.000193051 -0.000105955 7.93733e-05 1.75316e-05 -7.24558e-05 0.04 
656 1 1 0.31191 -0.662487 -0.960129 0 0 0 2.74723e-06 -6.71839e-06 3.25483e-06 -0.000578925 0.00015672 0.000162159 9.19472e-05 2.1412e-05 -2.42922e-06 0.04 
1082 1 1 0.383105 -0.626077 -0.960242 0 0 0 3.65207e-06 -4.29551e-06 4.21599e-06 -0.000241611 1.37703e-05 0.000517852 6.36568e-05 3.61332e-05 0.000114861 0.04 
255 1 1 0.462 -0.613477 -0.960265 0 0 0 1.20803e-05 -4.25318e-06 -5.00541e-06 -0.000292353 -9.63462e-05 0.000537679 1.27975e-05 0.000244678 -0.000231706 0.04 
880 1 1 0.598422 -0.666186 -0.960224 0 0 0 -1.2999e-05 -5.11886e-06 4.1779e-06 0.000764594 -0.00156049 -1.92887e-06 0.000112638 -0.000357924 -0.00116201 0.04 
1026 1 1 0.543027 -0.601443 -0.960163 0 0 0 -1.02053e-05 -2.1245e-06 1.08663e-07 0.00079266 -0.00047088 0.000246047 7.1232e-05 -0.000237626 -0.000368678 0.04 
543 1 1 0.748549 -0.627317 -0.96016 0 0 0 6.53214e-06 -3.8603e-06 1.12142e-06 -0.000218188 -0.000537903 -0.00013525 4.78236e-05 0.000128406 -5.24008e-05 0.04 
553 1 1 0.890863 -0.6339 -0.960238 0 0 0 2.74082e-06 -1.6979e-06 -5.51181e-07 0.000269767 -0.000121779 0.000133773 2.44835e-05 4.20076e-05 -1.02097e-05 0.04 
260 1 1 -0.960001 -0.595548 -0.960243 0 0 0 -6.65331e-07 -9.14699e-07 -2.17792e-06 9.70315e-06 0.000173428 9.80193e-05 9.12338e-05 3.47042e-06 -7.9186e-05 0.04 
565 1 1 -0.81668 -0.553962 -0.96023 0 0 0 6.38803e-06 9.37361e-06 -2.24226e-06 0.000594181 -0.000648236 0.000653656 -9.83088e-05 9.30194e-05 0.000108548 0.04 
1113 1 1 -0.703061 -0.549222 -0.960278 0 0 0 5.92597e-06 1.24098e-05 -4.98391e-06 0.000558776 -0.000774643 0.00033557 -0.000110835 6.63969e-05 0.000211222 0.04 
925 1 1 -0.635196 -0.591292 -0.960146 0 0 0 3.35102e-06 6.49443e-06 3.19586e-06 0.000178823 -0.000520875 6.95624e-06 -0.000289269 0.000110811 -0.00041075 0.04 
893 1 1 -0.547624 -0.562691 -0.960173 0 0 0 8.03758e-06 1.52445e-06 5.25721e-06 0.000295618 -0.000372391 0.000142081 -5.9088e-05 0.00020944 2.0426e-05 0.04 
1103 1 1 -0.454637 -0.557855 -0.960301 0 0 0 7.12979e-06 -2.59934e-06 5.42398e-06 9.2723e-05 -0.000186318 0.000915319 -5.35025e-05 0.000182622 0.000152816 0.04 
1448 1 1 -0.377549 -0.536781 -0.960162 0 0 0 3.08374e-06 -2.38464e-06 -5.98129e-08 0.000821305 -9.14102e-05 -4.37182e-05 -1.965e-05 7.38172e-06 1.04632e-05 0.04 
631 1 1 -0.303804 -0.567605 -0.960239 0 0 0 4.45097e-06 -2.19862e-06 -3.23071e-06 0.000553706 -7.88319e-05 -0.000856846 3.25825e-05 6.31311e-05 3.15953e-05 0.04 
714 1 1 -0.230011 -0.597895 -0.960352 0 0 0 5.88802e-06 -8.05754e-08 -1.14178e-05 0.000638675 0.000191776 -0.00118018 0.000222481 7.1037e-05 0.00013081 0.04 
962 1 1 -0.165419 -0.550903 -0.960204 0 0 0 1.47432e-07 -4.91547e-06 -2.02641e-06 0.000193159 -1.42145e-05 -0.000124358 9.38472e-05 -6.0713e-05 -0.000124237 0.04 
950 1 1 -0.0923582 -0.583303 -0.960249 0 0 0 -1.03225e-06 -6.6339e-06 1.92733e-06 -0.000154451 -0.000470943 -0.000640895 7.04775e-05 -1.69002e-05 5.89407e-05 0.04 
716 1 1 0.00265792 -0.586035 -0.960217 0 0 0 -3.00026e-06 -1.03098e-06 -6.29086e-06 -0.000415524 0.000493112 -0.000188397 -2.16384e-05 -0.000126507 4.77008e-05 0.04 
388 1 1 0.0814131 -0.599613 -0.960229 0 0 0 3.64068e-06 2.77907e-06 -4.96785e-06 -0.000182957 0.000717969 -0.000470631 -0.000141443 0.000119376 1.4932e-05 0.04 
867 1 1 0.204619 -0.545124 -0.960172 0 0 0 2.9944e-06 4.41474e-07 4.60255e-06 -4.24306e-05 0.000227517 -0.000167495 1.87637e-05 -4.73249e-05 -2.2614e-05 0.04 
576 1 1 0.321589 -0.564046 -0.960232 0 0 0 5.03957e-06 -4.50491e-06 -1.02e-06 -0.00111839 -0.00097325 -0.0020576 7.06605e-05 8.05272e-05 -8.74016e-05 0.04 
408 1 1 0.403788 -0.548892 -0.960207 0 0 0 6.23437e-06 -6.75112e-06 9.33818e-06 -0.00064543 -0.000170022 0.000526916 0.000116217 6.73863e-05 -0.0002131 0.04 
814 1 1 0.482705 -0.536364 -0.960226 0 0 0 8.70062e-06 5.5128e-07 -6.63336e-06 -0.000526326 6.93423e-05 0.000799807 -7.64883e-05 0.000234422 0.000341523 0.04 
1288 1 1 0.589751 -0.536429 -0.960267 0 0 0 6.47856e-06 -5.34954e-06 -9.44265e-06 -0.000138827 -0.000869895 0.000224956 0.000274652 0.000170167 0.000166235 0.04 
1111 1 1 0.678414 -0.58909 -0.96026 0 0 0 1.06579e-05 -1.74362e-06 1.38204e-05 0.000156162 -0.000349033 -0.000212403 3.88496e-05 0.000287578 1.19128e-05 0.04 
1138 1 1 0.747381 -0.547509 -0.960207 0 0 0 1.34119e-05 -2.41725e-06 3.83891e-06 0.000175188 -0.000614875 0.000876711 5.97879e-05 0.000175898 -0.00018234 0.04 
58 1 1 0.817503 -0.58598 -0.960208 0 0 0 5.41014e-06 -9.22403e-06 -9.52682e-06 0.000147981 -0.000852054 0.000311004 0.000248876 8.13325e-05 7.71853e-06 0.04 
1107 1 1 0.890822 -0.554039 -0.960246 0 0 0 6.18653e-08 -3.06068e-06 -1.74882e-06 0.000128752 -0.000193373 4.76915e-05 3.53619e-05 -9.31658e-05 0.000107128 0.04 
252 1 1 0.96009 -0.593929 -0.960182 0 0 0 8.92752e-07 -5.87714e-08 2.65028e-07 0.000205238 -0.000123579 -0.000201401 2.87404e-05 3.15858e-06 1.40018e-05 0.04 
670 1 1 -0.960083 -0.515581 -0.960206 0 0 0 3.73792e-07 1.56192e-06 3.12274e-06 0.000106785 0.000116925 -0.00078068 -1.95181e-05 -4.12822e-05 8.20898e-05 0.04 
644 1 1 -0.761222 -0.493806 -0.960278 0 0 0 4.07619e-06 1.76483e-05 4.61282e-07 0.000719854 -0.00110432 0.000921174 -0.000508722 2.77927e-05 0.000364905 0.04 
833 1 1 -0.684416 -0.471796 -0.960325 0 0 0 9.15119e-06 1.0136e-05 1.69952e-06 -3.62821e-05 -0.000181452 0.000138679 7.33662e-05 9.74548e-05 -0.000459642 0.04 
435 1 1 -0.616325 -0.513721 -0.960225 0 0 0 4.6155e-06 2.81101e-06 -6.22457e-06 0.000201436 -2.49606e-06 0.000393918 -1.31391e-06 8.66235e-06 0.000298385 0.04 
816 1 1 -0.503032 -0.494467 -0.960281 0 0 0 9.94322e-07 3.72675e-06 4.75498e-06 0.00042191 6.46198e-05 0.00032587 -0.000162716 1.40337e-05 -3.29336e-05 0.04 
489 1 1 -0.313515 -0.488342 -0.96024 0 0 0 1.82252e-06 -3.17391e-06 -3.89015e-06 0.000579734 3.44672e-06 -0.000561707 -1.77907e-05 -3.0115e-05 1.97374e-05 0.04 
883 1 1 -0.239739 -0.519014 -0.960264 0 0 0 1.24399e-06 -2.35786e-06 -1.36372e-06 0.000226736 1.99654e-05 -0.000945467 2.47878e-05 1.46196e-05 -1.93743e-05 0.04 
305 1 1 -0.1754 -0.471599 -0.960213 0 0 0 2.02764e-06 -4.61143e-06 -1.86215e-06 0.000211096 -3.37722e-05 -0.0004124 -3.08564e-05 1.32352e-06 -2.95057e-05 0.04 
675 1 1 -0.101731 -0.5026 -0.960187 0 0 0 7.85153e-07 -8.09409e-06 -8.53553e-07 0.000115439 0.00036329 -0.000293487 0.00019378 3.02077e-05 3.44905e-05 0.04 
1066 1 1 -0.0221837 -0.510122 -0.960311 0 0 0 -1.17586e-06 -6.24064e-06 -5.31468e-06 -0.000219568 0.000709372 4.43378e-05 6.26896e-05 4.3085e-05 -5.74715e-05 0.04 
143 1 1 0.058978 -0.523024 -0.960125 0 0 0 3.75425e-06 -3.61026e-06 -7.58803e-06 -0.00014905 0.000636801 0.000335549 2.17952e-05 0.000122629 5.08613e-05 0.04 
1346 1 1 0.153919 -0.483517 -0.960267 0 0 0 2.62835e-06 5.72091e-07 -2.07766e-06 -0.000159272 0.000715688 0.000470596 -9.33016e-05 -7.79869e-06 5.49633e-05 0.04 
1000 1 1 0.271508 -0.501727 -0.960222 0 0 0 4.47466e-06 -1.23193e-06 2.01616e-06 -0.000491332 6.81328e-05 -0.000659412 2.76367e-05 2.65032e-05 4.26048e-05 0.04 
792 1 1 0.3505 -0.489392 -0.960249 0 0 0 5.21485e-06 -9.40413e-08 1.01151e-05 -0.00114765 -0.000362106 0.000279155 -1.85858e-05 -6.0688e-05 4.58261e-05 0.04 
1361 1 1 0.432907 -0.473801 -0.96021 0 0 0 7.12719e-07 -3.81889e-06 -6.6306e-06 -0.000742131 -0.000141979 0.000421376 9.63862e-05 -8.3861e-05 -0.000159591 0.04 
584 1 1 0.536204 -0.47709 -0.960204 0 0 0 -1.41806e-06 4.28933e-08 3.34871e-07 -0.000402569 -0.000167242 0.000544214 0.000113249 -0.000144219 -9.78093e-05 0.04 
908 1 1 0.677146 -0.50943 -0.960259 0 0 0 9.07669e-06 -3.25634e-07 1.3761e-05 6.56257e-05 -0.000338204 0.00030917 -2.78451e-05 0.000110089 5.55489e-05 0.04 
1309 1 1 0.804447 -0.491605 -0.960226 0 0 0 1.24842e-05 1.305e-05 9.83296e-07 4.28499e-05 2.79791e-05 0.000553547 -0.000240293 0.000224154 0.000662926 0.04 
9 1 1 0.890886 -0.474152 -0.960181 0 0 0 -7.67964e-07 1.51013e-06 -8.03015e-06 0.00043953 -4.85449e-05 -0.000176001 -0.000178046 -7.73461e-05 -2.7116e-05 0.04 
771 1 1 0.960095 -0.514066 -0.960231 0 0 0 -2.7619e-07 1.49034e-06 1.84526e-06 0.000192031 -0.000177688 -0.000277591 -4.7591e-05 1.92304e-05 -4.38357e-06 0.04 
1055 1 1 -0.960062 -0.423547 -0.960212 0 0 0 1.17158e-06 4.25796e-06 1.16132e-06 2.59001e-05 -0.000262458 0.00041526 2.54527e-05 -6.61003e-05 2.45789e-05 0.04 
739 1 1 -0.890752 -0.463397 -0.960241 0 0 0 1.69326e-06 5.36878e-06 1.37889e-05 0.000281554 -0.000141276 -0.000120417 -0.000106251 1.60507e-05 -6.72045e-05 0.04 
1142 1 1 -0.821571 -0.423415 -0.96026 0 0 0 6.38042e-06 6.89387e-06 1.05775e-05 3.38072e-05 -0.000212481 -0.000494991 -0.000182925 4.93692e-05 2.72945e-05 0.04 
613 1 1 -0.636931 -0.407836 -0.9603 0 0 0 1.22789e-05 1.10541e-05 -2.3135e-06 -0.000372845 -0.000232776 -0.000144315 -0.000209027 0.000308467 0.000269343 0.04 
620 1 1 -0.568908 -0.449471 -0.96023 0 0 0 3.51542e-06 8.49089e-06 -2.75306e-06 8.24978e-05 -0.000278297 -0.000536301 -4.69701e-05 5.6425e-05 -0.000233793 0.04 
1316 1 1 -0.460837 -0.426641 -0.960331 0 0 0 -1.84519e-06 3.6177e-06 -8.70459e-06 0.000414137 -0.000237795 0.000620744 -0.000197504 -0.000117345 -4.62952e-05 0.04 
344 1 1 -0.387126 -0.457461 -0.960274 0 0 0 1.2315e-06 -4.04788e-06 -5.80291e-06 0.000614354 -4.22808e-05 0.000345926 -7.10876e-05 0.000117271 -2.88864e-05 0.04 
247 1 1 -0.323486 -0.409019 -0.960224 0 0 0 8.22473e-07 -4.8239e-06 -5.53075e-06 0.000586332 -6.19851e-05 -0.000364061 0.000111798 -0.000110061 5.70225e-05 0.04 
382 1 1 -0.249869 -0.440011 -0.960246 0 0 0 1.10516e-06 -4.19221e-06 -1.44816e-06 0.000461812 -5.35136e-05 -0.000894495 2.7159e-05 -7.27889e-06 -1.18976e-05 0.04 
1271 1 1 -0.105193 -0.422597 -0.960247 0 0 0 1.89826e-06 -8.63316e-06 -7.49933e-06 0.000184083 0.000577017 0.000192714 0.000132499 6.12592e-05 7.15984e-05 0.04 
1249 1 1 0.029428 -0.448871 -0.960288 0 0 0 7.98956e-07 -8.2144e-06 -4.04319e-06 -1.81301e-05 0.00122082 0.000720139 0.000121459 7.80704e-05 -2.10611e-05 0.04 
1030 1 1 0.104305 -0.421015 -0.96028 0 0 0 -3.74994e-06 -5.38632e-06 -8.98267e-06 -0.000148775 0.00108143 0.000847185 1.36072e-05 -0.000114575 0.000170038 0.04 
1148 1 1 0.22083 -0.439836 -0.96025 0 0 0 1.03374e-06 3.8905e-07 -1.11195e-06 -0.000677747 0.000322335 -0.0007778 -3.05345e-05 2.16145e-05 1.20588e-05 0.04 
772 1 1 0.300186 -0.427301 -0.96021 0 0 0 1.39995e-06 -8.52458e-07 2.14797e-06 -0.000961416 -1.7222e-05 -0.000345054 -4.33303e-05 -6.14601e-05 2.58123e-05 0.04 
845 1 1 0.379043 -0.414708 -0.960221 0 0 0 4.59506e-06 8.1655e-07 2.64745e-06 -0.00101039 -0.000185063 0.000714038 -5.95082e-05 0.000125534 1.97761e-06 0.04 
981 1 1 0.561051 -0.401067 -0.960201 0 0 0 1.3179e-08 2.9229e-07 8.90077e-06 -0.000406849 -7.04871e-05 0.000579925 3.62571e-05 1.89794e-05 1.74136e-05 0.04 
1047 1 1 0.614308 -0.460357 -0.960196 0 0 0 2.03806e-06 -1.02827e-06 6.96933e-06 -0.000207266 -0.000323597 0.000446638 6.47591e-05 -2.43984e-05 1.89434e-05 0.04 