ITEM: TIMESTEP
24200
ITEM: NUMBER OF ATOMS
1500
ITEM: BOX BOUNDS ff ff ff
-1 1
-1 1
-1 1
ITEM: ATOMS id type type x y z ix iy iz vx vy vz fx fy fz omegax omegay omegaz radius 
415 1 1 -0.760363 -0.955381 -0.953418 0 0 0 -0.567848 0.487319 -0.65405 0 0 -6.57473 -10.9099 -2.91596 5.02064 0.04 
105 1 1 -0.638529 -0.95667 -0.952269 0 0 0 0.00584515 0.341954 0.712571 0 0 -6.57473 14.8385 -7.44337 9.62956 0.04 
130 1 1 -0.377175 -0.947407 -0.957022 0 0 0 -0.38801 0.621244 0.873082 87.651 -5.00732 -70.0422 -6.50385 3.69925 1.3722 0.04 
502 1 1 -0.237332 -0.947921 -0.939201 0 0 0 0.307066 -1.18731 0.600228 2.98213 -120.981 -9.11739 0.387416 -9.2337 5.62854 0.04 
655 1 1 0.115148 -0.957599 -0.962099 0 0 0 0.2368 1.35346 -0.250057 -2.14162 -5.61702 113.654 -9.49975 -3.54461 -0.870705 0.04 
19 1 1 0.238951 -0.954369 -0.963906 0 0 0 0.867387 -0.310294 -0.612103 -68.9182 29.8766 64.1633 -7.61067 1.85919 -12.5596 0.04 
341 1 1 0.396623 -0.947017 -0.947863 0 0 0 0.56839 1.07451 -0.220084 0 0 -6.57473 -0.874183 -9.40343 -10.3093 0.04 
503 1 1 0.803078 -0.959186 -0.952202 0 0 0 0.468381 -0.50796 0.624508 0 0 -6.57473 5.32327 4.29512 -1.7743 0.04 
137 1 1 -0.938354 -0.916462 -0.958336 0 0 0 0.74713 -1.09481 0.230936 0 0 -6.57473 -13.4574 1.51566 -9.78713 0.04 
5 1 1 -0.843339 -0.917936 -0.93926 0 0 0 -0.496912 0.188134 -0.21198 0 0 -6.57473 -19.2191 -13.248 1.76009 0.04 
494 1 1 -0.182864 -0.894393 -0.950277 0 0 0 -0.993737 -0.609463 -0.479796 157.77 25.181 -92.0331 4.4302 -12.5887 4.58962 0.04 
421 1 1 -0.102457 -0.936877 -0.93751 0 0 0 -0.696187 -0.695611 0.760399 0 0 -6.57473 -7.18907 -4.65939 7.6955 0.04 
385 1 1 -0.0136176 -0.888639 -0.935277 0 0 0 0.476852 -0.334809 0.800032 46.4329 3.16012 -59.0171 8.1055 -2.73615 -10.5804 0.04 
204 1 1 0.0666494 -0.873778 -0.943038 0 0 0 -0.628784 0.020861 -0.875603 0 0 -6.57473 5.36666 -9.33385 -7.12429 0.04 
947 1 1 0.249974 -0.873924 -0.946529 0 0 0 -1.01592 -0.813557 0.475407 0 0 -6.57473 9.75429 -14.4302 -3.52443 0.04 
203 1 1 0.475117 -0.922998 -0.965616 0 0 0 -0.534291 0.662916 -0.249823 14.799 -5.56637 309.65 -10.9723 3.78245 19.4489 0.04 
636 1 1 0.575973 -0.933589 -0.948172 0 0 0 -0.775133 -0.14654 -0.55181 0 0 -6.57473 -14.9392 -12.3727 -41.1105 0.04 
729 1 1 0.775923 -0.872463 -0.937471 0 0 0 -0.0986377 -0.379647 0.267514 0 0 -6.57473 3.36109 4.96117 -28.6951 0.04 
554 1 1 0.863646 -0.866244 -0.948858 0 0 0 -0.722263 1.0346 0.689519 0 0 -6.57473 1.65026 8.60875 -15.6791 0.04 
488 1 1 -0.951746 -0.818981 -0.959969 0 0 0 0.120247 -0.740341 0.856168 0 0 -6.57473 14.6488 4.31836 10.1663 0.04 
239 1 1 -0.82479 -0.824764 -0.938273 0 0 0 -0.207413 -1.51876 -0.404434 -94.0353 -3.45224 -89.5259 -8.42389 4.98041 -10.478 0.04 
379 1 1 -0.674309 -0.824654 -0.963014 0 0 0 -1.38951 -1.98161 -0.311022 6.24356 5.91332 165.413 1.66819 16.4913 19.3206 0.04 
380 1 1 -0.535329 -0.867527 -0.959549 0 0 0 -0.469937 -1.40931 -0.0548471 -171.855 -31.4994 -5.39299 -17.013 -3.37398 14.7696 0.04 
402 1 1 -0.461184 -0.855542 -0.956651 0 0 0 -0.129739 -0.889876 0.62267 171.855 31.4994 -7.75646 -3.87735 -4.62025 2.74804 0.04 
322 1 1 -0.356658 -0.843643 -0.963467 0 0 0 -0.326049 -1.02994 -0.00881332 2.47542 9.34474 186.766 8.13633 -3.54526 -9.83398 0.04 
285 1 1 -0.230417 -0.814602 -0.960904 0 0 0 0.191177 0.391856 0.710371 13.9192 -12.8794 -51.078 -7.29982 3.21622 2.45554 0.04 
448 1 1 -0.0889296 -0.855142 -0.954098 0 0 0 -0.338605 -1.83931 -1.38904 0 0 -6.57473 -5.0941 -5.27406 13.2435 0.04 
218 1 1 0.149281 -0.855014 -0.948676 0 0 0 -0.288226 -2.18395 1.42628 0 0 -6.57473 -5.6682 1.48383 -2.74801 0.04 
1019 1 1 0.505633 -0.850839 -0.945203 0 0 0 -1.90124 -0.84587 1.14604 0 0 -6.57473 2.13212 -19.1705 0.663669 0.04 
850 1 1 0.946408 -0.824389 -0.956239 0 0 0 -0.0236362 0.348477 0.870142 0 0 -6.57473 8.81344 2.0488 -3.43697 0.04 
778 1 1 -0.855613 -0.744907 -0.927563 0 0 0 0.0767355 -1.29406 1.26096 0 0 -6.57473 1.20823 4.2238 7.995 0.04 
586 1 1 -0.611664 -0.760596 -0.949617 0 0 0 -0.698744 -0.948649 1.56627 -3.84559 -9.27096 -66.8142 15.8308 -4.73232 -20.1642 0.04 
52 1 1 -0.532333 -0.77438 -0.957159 0 0 0 -0.475851 -1.32235 1.09453 -0.198472 -35.17 -9.80119 3.20539 -14.9394 -5.65137 0.04 
714 1 1 -0.386046 -0.737066 -0.938406 0 0 0 0.301925 0.103163 -0.355198 0 0 -6.57473 7.69888 1.81726 2.75481 0.04 
581 1 1 -0.0647138 -0.764409 -0.949899 0 0 0 1.78113 0.404898 0.106832 -10.5014 1.98725 -69.3975 21.1686 -18.2951 -10.3465 0.04 
860 1 1 0.242265 -0.791808 -0.96405 0 0 0 0.814031 0.337527 2.4448 -7.29893 6.38842 187.422 -13.5581 16.8369 -6.97064 0.04 
772 1 1 0.456397 -0.772601 -0.965588 0 0 0 0.658223 -0.957684 0.240019 6.8351 13.8156 301.704 11.3817 24.8013 11.3904 0.04 
688 1 1 0.564755 -0.750066 -0.959352 0 0 0 -0.316495 -1.83055 0.69512 -71.7059 -211.984 16.3752 -5.57235 -8.3048 -3.10421 0.04 
670 1 1 -0.851831 -0.67045 -0.959368 0 0 0 0.851721 0.221376 0.81696 0 0 -6.57473 8.37067 11.5799 -1.85928 0.04 
480 1 1 -0.53295 -0.695705 -0.953745 0 0 0 -0.484107 0.187937 -0.656079 -201.297 71.1732 -40.6558 14.1632 -14.9504 -13.7567 0.04 
511 1 1 -0.460428 -0.708066 -0.944055 0 0 0 0.154022 -0.221925 -0.459902 201.495 -36.0032 30.7328 1.42659 -16.9891 4.87548 0.04 
700 1 1 -0.212959 -0.689611 -0.947397 0 0 0 0.219535 0.551067 0.968356 42.6496 156.113 -141.217 13.2219 -14.597 -12.3418 0.04 
235 1 1 0.0644849 -0.712003 -0.950538 0 0 0 -1.16997 -1.18787 1.67878 -19.7027 -109.849 6.39384 2.8167 -7.03899 1.14045 0.04 
656 1 1 0.321319 -0.685088 -0.963249 0 0 0 1.57215 0.488976 1.08637 11.4955 -8.62495 138.979 13.6597 19.6859 10.6081 0.04 
664 1 1 0.498496 -0.691223 -0.947814 0 0 0 -0.128019 -0.176658 0.771333 0 0 -6.57473 2.26528 -1.46433 -1.50252 0.04 
188 1 1 0.79872 -0.683091 -0.934564 0 0 0 0.553302 -0.481597 -1.02227 64.5648 -55.3202 -133.244 14.0849 -3.93259 -10.2748 0.04 
382 1 1 -0.411654 -0.642217 -0.956005 0 0 0 0.807884 0.502611 0.342408 0 0 -6.57473 -9.20127 7.33771 9.4295 0.04 
631 1 1 -0.328615 -0.671833 -0.949726 0 0 0 1.3675 -2.73924 1.33959 0 0 -6.57473 12.4855 4.9569 15.6959 0.04 
143 1 1 0.00442909 -0.650437 -0.951048 0 0 0 -0.407 -0.52738 0.385045 -156.519 -34.928 15.8258 6.87607 -0.46313 15.9654 0.04 
773 1 1 0.0779534 -0.637478 -0.963198 0 0 0 -0.677897 -0.783091 -0.367208 210.989 86.1688 62.3974 -13.0575 16.919 -11.4055 0.04 
880 1 1 0.591217 -0.681577 -0.96492 0 0 0 0.754701 -0.840943 1.2972 -32.7947 226.236 160.704 13.4021 19.1175 3.34264 0.04 
506 1 1 0.716235 -0.645154 -0.921483 0 0 0 -0.929978 0.837537 0.122432 88.5341 145.385 -104.078 7.4985 23.2467 2.26667 0.04 
960 1 1 -0.836091 -0.587194 -0.951733 0 0 0 1.2568 -1.51543 0.918922 97.3324 -101.829 -49.412 -12.4902 -12.1718 19.2974 0.04 
857 1 1 -0.564976 -0.55773 -0.959969 0 0 0 1.37097 -1.12713 -1.15633 -38.3648 12.6618 -46.5102 0.988052 6.42815 10.526 0.04 
344 1 1 -0.458346 -0.55517 -0.956103 0 0 0 -0.14134 -0.691415 0.90559 0 0 -6.57473 17.9023 -4.04685 11.798 0.04 
873 1 1 -0.325489 -0.582361 -0.957147 0 0 0 0.122633 -0.727166 -0.0844706 15.2368 -53.9204 0.127058 -8.14458 -11.297 4.81914 0.04 
805 1 1 -0.0495271 -0.571418 -0.934843 0 0 0 -0.276781 -1.67551 2.37498 0 0 -6.57473 3.38891 13.6258 -4.0794 0.04 
867 1 1 0.198554 -0.579753 -0.931451 0 0 0 1.31965 -0.108905 0.707066 0 0 -6.57473 6.24369 -7.64764 -1.50656 0.04 
845 1 1 0.305375 -0.536479 -0.964933 0 0 0 0.24358 -0.0703009 0.72808 -7.88496 10.6787 258.911 -8.6053 -1.22992 -4.83894 0.04 
361 1 1 0.475096 -0.568861 -0.956282 0 0 0 -0.088406 -0.759754 -1.17291 0 0 -6.57473 -3.64439 -18.5035 -25.3026 0.04 
981 1 1 0.556114 -0.598455 -0.955393 0 0 0 0.567616 -1.05076 -0.121866 -19.0296 -39.33 -7.67787 12.4592 13.9327 -16.3575 0.04 
852 1 1 0.663996 -0.540707 -0.953129 0 0 0 -0.279825 -0.575847 0.4029 148.2 -29.2769 -5.91332 -2.53304 1.61634 -0.358959 0.04 
1142 1 1 -0.633274 -0.512672 -0.950463 0 0 0 -0.153965 -1.00778 1.66537 0 0 -6.57473 -0.451571 19.0803 -16.3482 0.04 
978 1 1 -0.346855 -0.50727 -0.962551 0 0 0 -0.350234 0.225164 0.042101 -9.35949 49.9694 128.362 -0.296048 -3.04068 0.415815 0.04 
201 1 1 -0.120443 -0.474234 -0.934444 0 0 0 0.0104157 0.218625 0.221023 0 0 -6.57473 12.2534 -0.973013 1.28835 0.04 
950 1 1 -0.00124934 -0.486791 -0.960812 0 0 0 0.848243 0.0429561 -0.109606 -1.9632 1.26322 40.1151 -22.5694 -11.9668 -7.6628 0.04 
784 1 1 0.124233 -0.530291 -0.93342 0 0 0 0.274797 0.217247 2.29798 0 0 -6.57473 -3.32134 5.23338 -11.3382 0.04 
279 1 1 0.589156 -0.52706 -0.957098 0 0 0 1.20188 -0.700098 -1.38852 -129.17 68.6068 -6.13299 0.750972 -21.0044 -11.9778 0.04 
553 1 1 0.913839 -0.494795 -0.95048 0 0 0 2.33871 -0.700169 -1.78985 -7.79648 171.905 -168.292 -27.6945 -4.09855 -18.3603 0.04 
644 1 1 -0.903264 -0.423548 -0.944144 0 0 0 0.944837 1.88544 -0.59103 -96.8546 148.345 -166.104 -7.80551 22.8728 0.635104 0.04 
826 1 1 -0.784931 -0.440373 -0.959198 0 0 0 -0.740319 -3.88857 2.09441 0 0 -6.57473 24.9053 12.7008 -3.37269 0.04 
1037 1 1 -0.549797 -0.423262 -0.95558 0 0 0 1.44502 -2.60232 -1.62994 -13.0404 153.145 -143.809 -2.35792 16.2902 5.67031 0.04 
883 1 1 -0.348516 -0.426728 -0.937643 0 0 0 -0.248546 -1.42176 0.208482 0 0 -6.57473 24.9846 15.2652 14.8278 0.04 
752 1 1 0.181103 -0.423771 -0.938901 0 0 0 1.14797 0.344732 -0.365706 36.2862 31.0686 -68.0017 0.235428 7.85979 14.2706 0.04 
584 1 1 0.390377 -0.447941 -0.957794 0 0 0 1.48169 -0.740111 0.782848 0 0 -6.57473 8.17695 19.0691 -0.883586 0.04 
671 1 1 0.508531 -0.449931 -0.95835 0 0 0 2.41467 0.272865 -0.560478 0 0 -6.57473 -1.13899 -0.755328 5.14915 0.04 
885 1 1 0.790941 -0.450745 -0.947143 0 0 0 -0.598486 -0.103686 0.179103 0 0 -6.57473 14.2144 6.78589 -0.321196 0.04 
771 1 1 0.959809 -0.432436 -0.96629 0 0 0 -1.74681 -1.0298 1.22352 54.523 -46.4444 262.76 5.71237 -25.775 12.0942 0.04 
990 1 1 -0.722387 -0.368237 -0.963271 0 0 0 -2.37688 -1.72413 -0.0646282 70.4817 -10.2536 -14.1891 10.9084 -10.6632 -4.61308 0.04 
619 1 1 -0.210206 -0.351043 -0.951583 0 0 0 0.054526 0.907259 -0.774064 0 0 -6.57473 15.6685 6.08564 1.35965 0.04 
807 1 1 -0.136717 -0.383996 -0.944479 0 0 0 0.960109 1.04437 0.70674 0 0 -6.57473 8.7601 -13.5781 -3.74302 0.04 
277 1 1 0.0119678 -0.358749 -0.942298 0 0 0 0.659479 0.223908 1.96813 -13.1086 1.7353 -3.04332 -4.3413 31.1203 5.15837 0.04 
839 1 1 0.0870117 -0.368204 -0.966574 0 0 0 0.37144 0.695554 -2.17731 41.6275 38.2289 355.049 -11.8432 4.58008 3.87709 0.04 
973 1 1 0.958999 -0.363866 -0.93108 0 0 0 -2.14322 -2.00877 0.810544 -6.93788 102.4 45.5003 -4.18109 -11.4113 15.5313 0.04 
837 1 1 -0.964114 -0.289021 -0.959037 0 0 0 -1.08141 1.09932 -0.299261 243.298 -11.7696 -9.65051 9.30978 15.3821 -0.0682252 0.04 
328 1 1 -0.853967 -0.288508 -0.962108 0 0 0 0.150532 0.599021 -0.5288 -0.493531 -6.19726 117.763 9.25045 1.90153 -5.89284 0.04 
899 1 1 -0.749432 -0.268144 -0.932399 0 0 0 -0.192098 1.87248 0.67501 0 0 -6.57473 13.9135 9.36556 9.49472 0.04 
1084 1 1 -0.551815 -0.339514 -0.967182 0 0 0 0.134357 -1.35668 -1.32906 -2.61557 20.709 410.896 16.9617 1.13575 8.11036 0.04 
800 1 1 -0.173873 -0.271392 -0.943964 0 0 0 0.0359662 1.64223 0.621183 -232.729 90.4803 3.66478 10.1467 -10.9655 -9.77876 0.04 
732 1 1 -0.107031 -0.300593 -0.949041 0 0 0 -0.338279 -0.133091 -0.706033 232.729 -90.4803 -16.8142 17.8683 4.3993 3.21499 0.04 
971 1 1 0.419075 -0.285824 -0.956604 0 0 0 -0.394401 -0.518647 -2.3282 0 0 -6.57473 -0.630293 44.8473 5.95535 0.04 
527 1 1 -0.609842 -0.207654 -0.955684 0 0 0 -1.88236 0.86555 0.978871 112.346 -50.7433 -88.2689 -20.3961 22.243 5.64643 0.04 
542 1 1 -0.515607 -0.245335 -0.956888 0 0 0 -0.564514 0.742554 0.662768 0 0 -6.57473 -7.20219 -5.29899 8.90942 0.04 
618 1 1 -0.390908 -0.256426 -0.960961 0 0 0 -1.03035 -3.18328 0.235702 0.585332 2.45747 43.9496 1.07462 -7.1425 -7.92964 0.04 
651 1 1 -0.0974791 -0.203718 -0.956714 0 0 0 -0.738469 1.24783 0.262431 0 0 -6.57473 -7.97724 13.6475 -1.69704 0.04 
759 1 1 -0.00578596 -0.208222 -0.947215 0 0 0 2.09189 1.22436 0.525662 0 0 -6.57473 -1.91052 -6.91154 4.68441 0.04 
469 1 1 0.310385 -0.222969 -0.94752 0 0 0 1.48653 1.65298 1.27655 213.075 -122.027 -293.269 3.84052 13.7005 -2.45064 0.04 
409 1 1 0.783442 -0.200676 -0.959161 0 0 0 -1.73723 0.435966 0.414933 0 0 -6.57473 -22.176 9.5819 -16.0498 0.04 
572 1 1 -0.961372 -0.142289 -0.943853 0 0 0 -0.87244 0.813675 -0.359768 -47.7871 -174.21 -178.171 0.489007 -0.52839 -10.0216 0.04 
730 1 1 -0.81597 -0.174553 -0.951636 0 0 0 0.723752 0.649287 -1.4747 0 0 -6.57473 -0.901349 11.0835 0.759631 0.04 
815 1 1 -0.479284 -0.16127 -0.96803 0 0 0 0.321039 -0.223048 1.1107 130.625 44.0349 354.551 2.69804 5.92444 4.05122 0.04 
911 1 1 0.0942671 -0.201291 -0.950802 0 0 0 -2.69007 -0.421292 -1.40658 0 0 -6.57473 3.80722 -10.0259 -18.6728 0.04 
689 1 1 0.271152 -0.140392 -0.95693 0 0 0 0.646254 1.38692 0.940207 0 0 -6.57473 6.29604 4.95661 -18.7802 0.04 
838 1 1 0.903943 -0.189385 -0.95723 0 0 0 -0.692218 -0.309516 0.731015 0 0 -6.57473 4.83439 -0.342703 20.4924 0.04 
818 1 1 0.961951 -0.128481 -0.952933 0 0 0 0.11267 1.61644 -0.642493 -110.198 -5.08108 -4.44361 -6.65845 -2.13968 -7.32464 0.04 
524 1 1 -0.740237 -0.128386 -0.955723 0 0 0 -0.588014 -0.790257 -1.0306 0 0 -6.57473 -0.0633344 8.10351 -6.26905 0.04 
325 1 1 -0.665858 -0.0767782 -0.944753 0 0 0 -0.890453 2.05483 -0.694884 -66.3597 29.2756 5.24904 -29.7383 14.4231 -5.24857 0.04 
32 1 1 -0.596962 -0.111129 -0.955862 0 0 0 -0.627051 -0.0808437 -0.122949 66.3597 -29.2756 -18.3985 -11.3468 -2.25643 -5.82648 0.04 
1085 1 1 -0.264948 -0.117319 -0.9669 0 0 0 -2.11432 -1.321 -0.233916 15.5262 11.5947 380.981 4.00473 -14.8047 -2.1134 0.04 
753 1 1 -0.18364 -0.117515 -0.962904 0 0 0 -0.359315 0.980359 0.0273339 3.14912 -7.43473 154.909 1.6557 2.15239 0.148097 0.04 
529 1 1 0.45855 -0.12672 -0.94347 0 0 0 1.51295 2.17359 -1.07794 115.305 159.823 -51.4937 8.31973 -5.70965 18.4005 0.04 
42 1 1 0.729476 -0.10886 -0.954282 0 0 0 0.467558 0.755956 2.02274 66.6186 -44.6626 -66.122 0.436658 -14.6987 -10.3745 0.04 
1035 1 1 0.834206 -0.0676972 -0.9639 0 0 0 -1.38696 1.27681 1.74722 3.28234 117.607 109.671 -12.5722 2.24011 12.3703 0.04 
900 1 1 -0.937971 -0.0716818 -0.949513 0 0 0 -0.818523 -0.203973 0.87619 65.4094 194.236 -32.4697 -9.31312 -12.5879 -1.70545 0.04 
389 1 1 -0.792148 -0.0283364 -0.957064 0 0 0 -0.424719 1.41417 0.752822 0 0 -6.57473 -15.1902 -29.5024 12.7682 0.04 
774 1 1 -0.515667 -0.0127931 -0.962785 0 0 0 -0.590981 1.22261 -0.435141 -146.619 186.586 -253.555 3.6717 2.03693 -8.18202 0.04 
809 1 1 -0.182462 0.00496196 -0.971201 0 0 0 1.1818 2.71821 -3.17609 -26.3716 -7.0609 488.688 -3.80223 -7.08072 9.93328 0.04 
1044 1 1 -0.125674 -0.0543281 -0.942137 0 0 0 -0.204946 -0.705198 3.17296 0 0 -6.57473 2.16873 -17.5568 -21.6718 0.04 
240 1 1 0.518359 0.00152141 -0.962711 0 0 0 0.0728316 2.11456 -0.712692 -4.30372 -6.76142 153.724 -8.4269 -27.5597 -8.52199 0.04 
649 1 1 0.956201 -0.0322565 -0.9474 0 0 0 -0.366747 0.273495 -2.75555 11.1866 -37.9509 -87.3503 -3.09528 -10.9888 5.07639 0.04 
347 1 1 -0.93333 0.0177158 -0.942076 0 0 0 0.20185 1.07772 1.28726 0 0 -6.57473 11.472 5.20312 -3.82597 0.04 
842 1 1 -0.785143 0.0574525 -0.963792 0 0 0 -0.0627725 2.04103 -0.153636 2.14409 -10.4486 206.751 -7.70627 7.76047 3.65969 0.04 
412 1 1 -0.658072 0.0550629 -0.948456 0 0 0 -1.29501 2.76166 1.11423 0 0 -6.57473 -8.63103 16.4219 -1.69456 0.04 
37 1 1 -0.552986 0.0668419 -0.94613 0 0 0 1.02596 0.348297 -1.17554 4.25054 11.1501 -9.33442 -3.03855 -5.34383 -7.05272 0.04 
208 1 1 0.278914 0.0227921 -0.958602 0 0 0 -1.0605 2.44243 0.525314 0 0 -6.57473 -1.39369 -6.40088 -8.62795 0.04 
820 1 1 -0.957618 0.138275 -0.971232 0 0 0 -0.817263 2.35148 -0.762382 3.44093 -31.6042 629.244 -6.94587 -17.0171 -4.64383 0.04 
1014 1 1 -0.730577 0.121897 -0.952057 0 0 0 -1.29115 1.59245 0.328442 -103.168 -36.4579 -150.618 11.2071 11.4269 -18.24 0.04 
910 1 1 -0.488071 0.135368 -0.960635 0 0 0 0.578401 1.13165 0.051041 -0.0216627 -1.73532 28.1344 -18.4793 14.451 -5.57059 0.04 
580 1 1 -0.0789068 0.14309 -0.943959 0 0 0 2.22602 3.30413 -0.872464 0 0 -6.57473 -4.73392 -13.4121 15.4056 0.04 
697 1 1 0.0276632 0.115418 -0.961349 0 0 0 -1.6524 2.77633 0.724848 2.17257 -2.46947 59.2079 -21.0501 1.57706 4.21753 0.04 
148 1 1 0.801781 0.0784497 -0.940072 0 0 0 -0.152913 0.0503638 -0.502006 0 0 -6.57473 -8.74602 4.10614 11.3692 0.04 
684 1 1 -0.31613 0.162135 -0.946779 0 0 0 0.928082 1.97725 0.153212 0 0 -6.57473 -4.61801 -8.55902 -2.19718 0.04 
545 1 1 -0.21469 0.180585 -0.923666 0 0 0 0.281637 2.43221 1.78315 0 0 -6.57473 -10.3852 -13.6372 -7.54415 0.04 
432 1 1 0.543441 0.184572 -0.932735 0 0 0 -0.00571955 0.296064 0.490514 0 0 -6.57473 -13.5355 -1.07854 -17.1323 0.04 
599 1 1 0.734169 0.220541 -0.960176 0 0 0 -1.37624 2.84688 -1.06036 0.881205 -0.779887 16.9603 -21.572 21.7352 -14.3539 0.04 
779 1 1 -0.649776 0.195972 -0.954568 0 0 0 -2.01289 -1.5056 -0.337498 0 0 -6.57473 -0.31176 -12.0334 -3.46283 0.04 
498 1 1 -0.398294 0.265618 -0.96348 0 0 0 1.78485 3.29285 0.0575852 -5.13907 -8.17762 186.592 -13.0719 0.779207 3.86331 0.04 
1158 1 1 -0.088521 0.280113 -0.922392 0 0 0 0.552684 3.6 2.43892 0 0 -6.57473 -28.1307 8.06625 -13.8322 0.04 
425 1 1 0.26986 0.206153 -0.947508 0 0 0 2.32741 0.674293 -0.489734 0 0 -6.57473 -18.3438 -1.80265 27.0334 0.04 
589 1 1 0.470492 0.265672 -0.960095 0 0 0 -0.0543889 1.88198 -1.41581 0.178319 -1.16833 17.0624 9.74617 7.3151 -23.8277 0.04 
886 1 1 0.831979 0.274901 -0.959434 0 0 0 0.661361 1.4838 0.422236 0 0 -6.57473 -4.73086 18.1226 -3.55304 0.04 
707 1 1 -0.674141 0.346526 -0.953286 0 0 0 1.43852 2.46211 -1.15293 0 0 -6.57473 -19.3252 -3.1381 -2.03556 0.04 
269 1 1 -0.548765 0.271603 -0.950854 0 0 0 2.23266 0.0138064 0.952263 0 0 -6.57473 -2.62713 1.63616 -19.6042 0.04 
570 1 1 -0.206149 0.27583 -0.945934 0 0 0 1.98622 0.740797 0.357092 0 0 -6.57473 4.00513 14.5912 9.42669 0.04 
694 1 1 0.198746 0.314861 -0.950003 0 0 0 -0.596739 1.96051 2.06065 0 0 -6.57473 -30.3081 -14.4697 12.7056 0.04 
617 1 1 0.667992 0.315341 -0.941299 0 0 0 1.24224 4.06987 1.10736 0 0 -6.57473 -2.61021 24.1004 -23.115 0.04 
152 1 1 -0.887352 0.385162 -0.951834 0 0 0 -0.133023 0.0929737 0.692832 -122.649 20.3364 -60.7795 -12.3435 25.0321 6.63108 0.04 
245 1 1 -0.575993 0.37033 -0.961388 0 0 0 0.189198 1.52126 1.4529 0.728717 -2.83475 51.9637 -31.4258 6.74561 29.0295 0.04 
461 1 1 0.0596543 0.383276 -0.936016 0 0 0 -0.172962 2.74285 0.116172 329.042 -339.549 58.5195 -11.4986 -23.8746 -58.5887 0.04 
356 1 1 0.597122 0.4115 -0.940011 0 0 0 2.36074 2.02802 0.24677 0 0 -6.57473 12.9606 -30.2334 -9.10789 0.04 
359 1 1 0.817299 0.36445 -0.959087 0 0 0 1.09021 -0.449478 -0.311507 -6.17395 8.83032 0.0457799 0.575151 11.0617 2.53625 0.04 
1057 1 1 -0.933073 0.466409 -0.961389 0 0 0 0.124726 0.538889 3.64832 0.315322 1.47244 23.5417 -21.759 4.88271 -0.0521636 0.04 
754 1 1 0.0103361 0.429317 -0.944902 0 0 0 2.34832 -1.96615 0.162044 -329.042 339.549 -71.6689 -4.68378 -2.90623 1.38187 0.04 
393 1 1 0.18136 0.412714 -0.940457 0 0 0 0.706735 -0.381294 -0.612412 0 0 -6.57473 -6.6469 16.2511 -29.7186 0.04 
643 1 1 -0.158077 0.542183 -0.963004 0 0 0 1.68533 1.45786 1.9691 -5.65486 -4.28372 135.309 -1.34722 -4.44315 -14.2557 0.04 
35 1 1 0.342666 0.497491 -0.9458 0 0 0 0.5225 1.78818 -1.58112 0 0 -6.57473 -4.27947 -5.24634 0.8674 0.04 
680 1 1 0.228342 0.557218 -0.937359 0 0 0 1.0667 2.00125 0.088341 0 0 -6.57473 -6.91323 5.31558 -29.9332 0.04 
107 1 1 0.615721 0.573638 -0.943442 0 0 0 -0.950081 1.98787 -0.0690395 0 0 -6.57473 -0.74255 5.20038 -0.586376 0.04 
343 1 1 -0.587888 0.614482 -0.946027 0 0 0 -0.616367 0.883942 -0.255517 0 0 -6.57473 -1.79539 1.5694 3.07206 0.04 
286 1 1 -0.414324 0.65215 -0.955858 0 0 0 -0.379655 1.59311 -0.443142 0 0 -6.57473 -9.81413 -8.6969 -8.26574 0.04 
394 1 1 0.139468 0.669025 -0.954647 0 0 0 0.743088 2.53046 0.141076 0 0 -6.57473 -20.7443 -1.1934 8.8108 0.04 
735 1 1 -0.540141 0.690934 -0.952671 0 0 0 -1.36024 1.18883 -0.189794 0 0 -6.57473 -29.3326 -8.37476 8.17453 0.04 
468 1 1 0.618118 0.692299 -0.956496 0 0 0 1.21679 -1.25846 -0.447644 0 0 -6.57473 4.06078 5.36149 21.8672 0.04 
765 1 1 -0.808378 0.757143 -0.953315 0 0 0 0.639169 2.51091 0.785263 0 0 -6.57473 -18.4554 15.83 0.672813 0.04 
898 1 1 -0.374308 0.779477 -0.957345 0 0 0 1.0655 2.03978 -2.07311 0 0 -6.57473 -35.965 1.0128 -11.1598 0.04 
124 1 1 -0.233573 0.732399 -0.9607 0 0 0 0.0842658 -1.65437 -2.78171 -1.34773 3.50239 68.4802 -25.572 -23.7607 11.5345 0.04 
337 1 1 0.797135 0.756625 -0.955295 0 0 0 -1.69321 0.277288 -0.373958 0 0 -6.57473 -8.08006 -7.9497 -9.48065 0.04 
329 1 1 -0.929093 0.838246 -0.94654 0 0 0 1.0478 1.31477 -0.780264 0 0 -6.57473 0.223655 2.68058 -7.50439 0.04 
89 1 1 -0.567356 0.831838 -0.949823 0 0 0 2.33855 0.0858665 1.17156 0 0 -6.57473 -13.4891 8.23517 6.75839 0.04 
162 1 1 0.679137 0.833228 -0.962247 0 0 0 1.07099 -0.730966 -2.69402 -5.94889 5.35818 153.549 7.49052 14.9493 -3.67024 0.04 
422 1 1 -0.871695 0.922925 -0.945474 0 0 0 0.229206 0.242842 -0.00610393 0 0 -6.57473 7.70406 8.21414 8.03489 0.04 
403 1 1 -0.214344 0.872927 -0.956091 0 0 0 0.719203 0.497438 -0.261418 0 0 -6.57473 -8.9334 21.0299 -10.5698 0.04 
464 1 1 0.0828425 0.880672 -0.949436 0 0 0 -0.491762 1.49332 -0.612473 0 0 -6.57473 16.5311 -18.8096 6.29212 0.04 
271 1 1 0.932267 0.915094 -0.953786 0 0 0 0.35658 -0.0771053 -0.594122 0 0 -6.57473 -6.67806 -5.71109 -16.4747 0.04 
291 1 1 0.368654 0.963419 -0.929819 0 0 0 -2.17808 -0.94547 2.75493 4.26068 -178.285 -14.4048 -1.14577 -34.6663 -18.3568 0.04 
62 1 1 0.6415 0.943131 -0.95468 0 0 0 -2.52884 -0.509125 -0.242765 0 0 -6.57473 12.5095 -11.0782 -9.41378 0.04 
138 1 1 -0.546212 -0.958504 -0.922717 0 0 0 0.517348 0.405173 0.347416 0 0 -6.57473 -1.94135 3.53277 -2.63506 0.04 
323 1 1 -0.441816 -0.944305 -0.914941 0 0 0 -0.367293 0.296748 -0.30529 -87.651 5.00732 56.8927 0.58939 -1.61515 7.72868 0.04 
147 1 1 0.0331073 -0.95707 -0.913888 0 0 0 -1.04737 0.0998848 0.594359 -2.32605 -1.7428 -11.9165 -0.674493 7.37497 -4.06467 0.04 
339 1 1 0.184898 -0.947823 -0.89558 0 0 0 0.479542 -0.34889 -0.265876 0 0 -6.57473 0.567218 14.2405 5.72147 0.04 
81 1 1 0.269057 -0.966248 -0.895696 0 0 0 1.36003 -0.336684 -1.11736 46.922 329.41 160.158 -3.23525 -0.932273 -5.70629 0.04 
424 1 1 0.916206 -0.963797 -0.887288 0 0 0 0.452431 -0.0126247 0.105393 5.17626 211.741 2.66064 5.05885 -6.62237 -12.913 0.04 
39 1 1 -0.925176 -0.923683 -0.874372 0 0 0 -0.236207 -0.497445 -0.880802 -6.9767 -28.7702 -0.381021 4.81558 -1.03963 3.40905 0.04 
27 1 1 -0.837672 -0.870798 -0.872769 0 0 0 0.862528 0.840916 0.540213 218.683 -63.3067 29.7024 -4.41331 19.516 1.80631 0.04 
592 1 1 -0.707411 -0.890323 -0.918346 0 0 0 0.359923 -0.617173 0.391127 0 0 -6.57473 -0.983655 -0.780207 3.25731 0.04 
550 1 1 -0.452598 -0.881718 -0.864719 0 0 0 0.613086 -0.0683498 0.625432 16.8138 17.8128 -19.2673 7.67614 0.266094 -14.569 0.04 
647 1 1 -0.30168 -0.906091 -0.93095 0 0 0 0.386898 1.48465 -1.64476 -76.0009 19.96 -5.93836 14.5476 -0.411333 4.62024 0.04 
827 1 1 -0.0674778 -0.889542 -0.878808 0 0 0 -0.936382 1.84963 -0.145737 -46.4329 -3.16012 45.8677 -9.63114 4.14059 -11.1388 0.04 
626 1 1 0.426506 -0.938386 -0.852497 0 0 0 -0.0642743 -1.37989 2.28713 0 0 -6.57473 -16.8958 22.0591 19.1267 0.04 
446 1 1 -0.906223 -0.848061 -0.886702 0 0 0 -0.0720009 0.983636 0.580955 -211.706 92.0769 -49.0455 -4.97462 -8.23487 8.89175 0.04 
170 1 1 -0.770108 -0.823261 -0.885015 0 0 0 -0.256403 -0.967182 1.3765 94.0353 3.45224 76.3764 -16.1767 -6.99941 13.232 0.04 
579 1 1 -0.314156 -0.83647 -0.895647 0 0 0 -0.427235 0.816626 0.497128 -4.65996 28.2066 6.00478 -11.06 0.966587 6.89174 0.04 
517 1 1 -0.231484 -0.862981 -0.899776 0 0 0 0.748532 -0.414672 0.604854 -83.3252 5.27138 126.244 7.2649 5.96998 -14.2618 0.04 
669 1 1 0.00896126 -0.844285 -0.86292 0 0 0 0.291992 -1.84952 1.22386 0 0 -6.57473 8.09553 7.35475 1.53535 0.04 
159 1 1 0.433351 -0.865727 -0.911575 0 0 0 -0.0834139 -2.089 0.546548 -16.7193 -1.6242 -22.3197 -9.20015 -12.0061 -0.654178 0.04 
396 1 1 0.585272 -0.814009 -0.911526 0 0 0 0.794694 0.725482 -0.708937 0 0 -6.57473 -3.91786 3.53742 8.39009 0.04 
1 1 1 0.678211 -0.835378 -0.890726 0 0 0 -1.08419 -0.587274 0.653065 0 0 -6.57473 26.8457 3.82644 6.12727 0.04 
371 1 1 0.956501 -0.872414 -0.890961 0 0 0 0.416468 -1.88725 0.846803 0 0 -6.57473 11.6776 0.780697 2.05411 0.04 
260 1 1 -0.962161 -0.772802 -0.886861 0 0 0 0.4901 -0.672845 0.985478 114.089 1.08691 -12.1747 12.7333 20.3226 -8.42934 0.04 
290 1 1 -0.717334 -0.757835 -0.920766 0 0 0 -0.0584031 0.741781 -0.78425 0 0 -6.57473 -5.46653 0.259914 -3.77753 0.04 
567 1 1 -0.604372 -0.745613 -0.87287 0 0 0 0.492757 -0.0452116 0.298689 -51.2997 0.551571 53.2725 -5.25336 4.95743 7.6376 0.04 
489 1 1 -0.409528 -0.79918 -0.880098 0 0 0 1.21356 -1.02115 0.559907 0 0 -6.57473 5.22195 11.2891 20.2271 0.04 
376 1 1 -0.249285 -0.747134 -0.925631 0 0 0 -1.46449 -0.278852 -0.0252305 -161.126 -191.578 128.157 -3.35074 -18.3533 -3.92333 0.04 
161 1 1 -0.13869 -0.772947 -0.925922 0 0 0 -0.0289238 0.272742 -1.66285 -58.8629 103.361 -93.448 -7.77163 -28.411 -1.33136 0.04 
384 1 1 -0.00229771 -0.760216 -0.902664 0 0 0 -1.03879 0.11265 -0.00879286 63.1487 2.27076 36.9927 -15.2489 -6.54819 -1.25941 0.04 
194 1 1 0.0736382 -0.793167 -0.905016 0 0 0 -0.0873667 0.0830149 -1.09399 0 0 -6.57473 25.1 -0.406384 -20.7717 0.04 
967 1 1 0.330341 -0.788056 -0.902831 0 0 0 1.22089 -2.66893 -1.84734 0 0 -6.57473 6.10354 6.94995 -8.51877 0.04 
682 1 1 0.749043 -0.790414 -0.897997 0 0 0 -0.664841 -0.129269 0.0611595 0 0 -6.57473 -0.416248 -13.2437 10.0996 0.04 
252 1 1 0.963825 -0.765201 -0.898772 0 0 0 0.996688 -1.14367 0.197012 -226.094 8.73957 -13.7452 5.94365 -19.3865 0.00338272 0.04 
85 1 1 -0.527062 -0.731686 -0.868769 0 0 0 -0.393744 0.0331881 -0.0596004 55.1453 8.71938 -6.18248 -2.34745 15.8807 -8.5858 0.04 
725 1 1 0.2698 -0.680403 -0.903277 0 0 0 -0.88118 -1.55233 -0.484558 -16.7233 2.1167 14.8291 -2.14872 7.27041 -5.76189 0.04 
451 1 1 0.343014 -0.707003 -0.881585 0 0 0 0.237446 -1.79058 -0.72562 0 0 -6.57473 -6.1625 1.74212 -2.42799 0.04 
50 1 1 0.655226 -0.686291 -0.922837 0 0 0 0.893362 -1.31037 0.177771 -100.284 -125.007 59.7727 -6.3056 3.50446 5.98057 0.04 
564 1 1 -0.785296 -0.657252 -0.916496 0 0 0 -0.999121 -1.89389 0.239073 -2.52701 -61.4486 -65.6692 8.07133 -9.53774 -5.30739 0.04 
668 1 1 -0.318092 -0.603281 -0.869394 0 0 0 -0.0565346 -0.39545 2.30461 0 0 -6.57473 -4.75556 -0.0557457 -3.87298 0.04 
675 1 1 -0.153498 -0.643146 -0.935489 0 0 0 1.27874 -2.20889 -1.3023 107.091 83.1975 8.2113 5.85603 -12.1504 8.72157 0.04 
305 1 1 -0.0886953 -0.654618 -0.889751 0 0 0 -1.18669 -0.941559 1.77162 -18.6943 59.5584 -38.52 -10.6316 16.3108 -0.489881 0.04 
354 1 1 0.174627 -0.663048 -0.929885 0 0 0 0.565387 -1.01835 -0.269619 0 0 -6.57473 14.4975 -8.9443 0.814257 0.04 
561 1 1 0.42361 -0.661586 -0.921566 0 0 0 -0.40682 0.157176 1.46686 0 0 -6.57473 2.15662 3.27893 -5.87493 0.04 
177 1 1 0.557162 -0.641236 -0.879004 0 0 0 0.0557388 -0.436043 -1.21581 33.4889 17.5014 -14.5024 -6.66967 10.7576 -8.18613 0.04 
757 1 1 0.770236 -0.655726 -0.870398 0 0 0 2.20891 0.422895 2.27169 50.4061 33.4939 218.361 -10.8745 22.5744 3.17056 0.04 
1055 1 1 -0.93971 -0.601065 -0.933073 0 0 0 -2.2242 -0.859101 -1.02181 0 0 -6.57473 -2.37784 -3.47121 -7.43268 0.04 
241 1 1 -0.649484 -0.617116 -0.923896 0 0 0 0.0499766 -2.74885 -1.205 0 0 -6.57473 4.1013 -1.98353 3.46171 0.04 
709 1 1 -0.51491 -0.575641 -0.902233 0 0 0 0.900688 -0.166166 -0.677614 38.3648 -12.6618 33.3607 -26.1409 -3.25138 0.203336 0.04 
957 1 1 -0.424829 -0.55288 -0.878971 0 0 0 0.529812 1.46292 0.0489304 0 0 -6.57473 -10.6151 -2.61322 -3.47704 0.04 
811 1 1 -0.233265 -0.570282 -0.919224 0 0 0 -0.609451 -1.89402 0.892953 -14.4614 -11.9999 -16.0504 22.5758 8.52691 2.26107 0.04 
1122 1 1 0.0537973 -0.591508 -0.905385 0 0 0 -0.464075 -2.94912 -2.43548 -8.03167 52.9514 28.2569 6.91025 1.88061 -3.62097 0.04 
408 1 1 0.528669 -0.563158 -0.887535 0 0 0 -0.859607 -3.76096 0.685578 0 0 -6.57473 -15.6798 3.18305 7.2662 0.04 
908 1 1 0.648253 -0.596016 -0.890849 0 0 0 0.276233 -0.717162 -1.4126 0 0 -6.57473 -5.76811 -5.40071 -1.84339 0.04 
840 1 1 0.815995 -0.586172 -0.897606 0 0 0 0.37058 -0.226121 0.453621 0 0 -6.57473 6.14819 7.254 2.27136 0.04 
987 1 1 0.903472 -0.55143 -0.906811 0 0 0 -0.544163 -0.908671 -1.55555 -27.8422 -216.146 168.357 -1.69192 0.152143 -7.49287 0.04 
982 1 1 -0.956501 -0.507388 -0.926871 0 0 0 -1.08309 -0.694452 -1.17167 -196.278 68.4971 8.69972 1.60512 8.74191 -2.91076 0.04 
532 1 1 -0.888145 -0.535098 -0.932924 0 0 0 0.195061 -1.91681 -1.11289 84.5955 -52.1615 -24.0988 -12.2427 -15.834 -0.342374 0.04 
690 1 1 -0.787991 -0.516316 -0.909596 0 0 0 1.30141 -0.68384 0.622798 -126.543 -5.76854 -4.31271 -8.72432 -9.66437 16.9264 0.04 
833 1 1 -0.711419 -0.511935 -0.9147 0 0 0 -0.361237 -0.384888 -1.11134 126.543 5.76854 -8.83674 -10.7858 -6.46906 -20.3704 0.04 
230 1 1 -0.547495 -0.476723 -0.903871 0 0 0 0.198521 -1.38716 -0.380726 -102.757 -337.643 -87.9641 5.13691 -9.63134 3.03583 0.04 
716 1 1 -0.17864 -0.522962 -0.886872 0 0 0 0.547768 -0.951588 0.535944 14.4614 11.9999 2.90091 5.76306 14.5265 1.70481 0.04 
297 1 1 0.21959 -0.496478 -0.920295 0 0 0 -1.23486 -1.44893 -0.214528 0 0 -6.57473 5.88652 10.2893 -1.30268 0.04 
551 1 1 0.298282 -0.535205 -0.869332 0 0 0 0.218234 -0.247846 0.782531 0 0 -6.57473 18.4979 10.8408 8.69827 0.04 
220 1 1 0.420044 -0.496619 -0.899308 0 0 0 -0.685337 -0.27635 1.05745 0 0 -6.57473 4.92258 -12.0772 -12.8963 0.04 
58 1 1 0.842659 -0.502648 -0.847497 0 0 0 0.928919 -1.0945 3.04099 0 0 -6.57473 7.33497 -2.04318 -7.10366 0.04 
312 1 1 -0.876971 -0.469751 -0.894126 0 0 0 0.224577 -0.399261 1.51616 111.205 -62.852 198.041 14.8781 -3.29299 -1.33602 0.04 
710 1 1 -0.432771 -0.447335 -0.891038 0 0 0 0.120016 1.32993 1.65983 6.24326 -12.4424 -4.76057 27.8293 -1.12433 2.79124 0.04 
1095 1 1 -0.229675 -0.431619 -0.936284 0 0 0 0.910886 -0.546046 -0.76812 0 0 -6.57473 12.2699 6.85567 -3.42129 0.04 
1066 1 1 0.00411772 -0.408105 -0.875737 0 0 0 -0.158133 -0.640572 -0.931921 -395.191 44.1134 -205.193 -7.45431 -0.358901 -7.97032 0.04 