ITEM: TIMESTEP
11600
ITEM: NUMBER OF ATOMS
851
ITEM: BOX BOUNDS ff ff ff
-1 1
-1 1
-1 1
ITEM: ATOMS id type type x y z ix iy iz vx vy vz fx fy fz omegax omegay omegaz radius 
19 1 1 0.343817 -0.919619 -0.954429 0 0 0 0.35287 2.70903 0.252846 0 0 -6.57473 -13.5733 -3.33881 9.28756 0.04 
81 1 1 0.517296 -0.808536 -0.944626 0 0 0 3.30595 4.43139 0.18919 -39.4984 10.7365 -3.50174 21.579 -11.3016 -9.61334 0.04 
137 1 1 -0.734318 -0.841468 -0.924589 0 0 0 0.59383 -2.5508 2.059 0 0 -6.57473 21.8571 -6.30253 -9.4126 0.04 
52 1 1 -0.180959 -0.749967 -0.954494 0 0 0 4.62949 0.985267 -0.57042 0 0 -6.57473 8.44289 -0.0855685 -2.84039 0.04 
105 1 1 -0.436928 -0.757466 -0.94286 0 0 0 -3.26663 -1.47057 -0.104371 0 0 -6.57473 20.4793 -8.72996 5.6894 0.04 
118 1 1 0.118981 -0.745252 -0.917686 0 0 0 -0.0165305 -0.93752 2.68475 0 0 -6.57473 12.7696 3.35755 2.38711 0.04 
298 1 1 0.774531 -0.677389 -0.816618 0 0 0 0.87582 0.0185968 5.18918 0 0 -6.57473 23.1853 7.89449 0.603644 0.04 
182 1 1 0.854863 -0.683686 -0.895373 0 0 0 0.671746 -1.41596 3.38893 0 0 -6.57473 -1.22766 -11.0787 -8.16211 0.04 
282 1 1 -0.39035 -0.630812 -0.908473 0 0 0 -0.506895 -1.233 3.63515 0 0 -6.57473 9.42384 -7.41545 9.41816 0.04 
30 1 1 -0.0429051 -0.693226 -0.947788 0 0 0 -2.73589 -2.78663 -2.85249 0 0 -6.57473 11.9969 -11.488 5.90372 0.04 
110 1 1 0.648931 -0.518281 -0.940505 0 0 0 -3.33298 0.96578 0.443213 0 0 -6.57473 4.03206 -5.85938 37.9164 0.04 
194 1 1 0.554476 -0.611229 -0.961593 0 0 0 -2.92961 -2.30412 2.30205 2.62396 1.34337 52.3823 11.9169 16.8123 2.22549 0.04 
138 1 1 -0.571054 -0.398119 -0.952071 0 0 0 -1.70147 1.57727 2.66469 0 0 -6.57473 -8.39063 -13.2164 -0.55916 0.04 
415 1 1 -0.71154 -0.423884 -0.888178 0 0 0 2.97228 -2.28579 2.93305 109.882 -94.8298 -213.469 20.5747 24.6086 -11.081 0.04 
200 1 1 -0.0682998 -0.315573 -0.94249 0 0 0 1.70442 1.23594 0.0582439 0 0 -6.57473 -13.667 -1.3141 1.20941 0.04 
45 1 1 0.102972 -0.343586 -0.895273 0 0 0 0.830958 1.6623 1.78037 0 0 -6.57473 9.23413 -10.1123 -0.38499 0.04 
349 1 1 0.224979 -0.318131 -0.915424 0 0 0 0.212774 -0.236895 3.50238 0 0 -6.57473 10.4088 10.2222 -2.80855 0.04 
54 1 1 -0.242282 -0.307037 -0.947174 0 0 0 -2.09742 -1.67171 1.23939 0 0 -6.57473 -32.9949 -8.89805 -11.9169 0.04 
201 1 1 0.025542 -0.235333 -0.904686 0 0 0 0.535895 -0.442713 2.76345 -151.688 18.3027 16.3051 9.08548 18.8364 -2.06148 0.04 
227 1 1 -0.190253 -0.0723977 -0.904896 0 0 0 0.916357 2.12692 2.22012 0 0 -6.57473 0.0651364 -7.19734 7.27208 0.04 
167 1 1 -0.847483 0.020501 -0.946118 0 0 0 0.111988 1.68465 0.342183 0 0 -6.57473 -1.32767 1.88475 22.1011 0.04 
244 1 1 -0.123336 0.0666165 -0.936776 0 0 0 -0.747913 4.00249 0.498842 0 0 -6.57473 -9.01479 -20.4561 7.74675 0.04 
364 1 1 0.696156 0.0263135 -0.912198 0 0 0 -0.686606 1.17574 3.28449 0 0 -6.57473 -39.1467 -16.1814 28.5022 0.04 
332 1 1 -0.54781 0.0875091 -0.944593 0 0 0 -0.0820048 2.56419 1.95689 0 0 -6.57473 20.4229 24.2565 -5.01478 0.04 
146 1 1 -0.653207 0.11337 -0.949622 0 0 0 3.20587 0.135903 0.806712 0 0 -6.57473 11.4737 6.11142 -1.38661 0.04 
71 1 1 -0.0211214 0.15919 -0.934152 0 0 0 -0.470211 3.32808 0.458977 0 0 -6.57473 -16.3826 6.80981 4.93805 0.04 
304 1 1 0.432488 0.169881 -0.921011 0 0 0 -5.5066 1.75211 0.834783 0 0 -6.57473 -30.0271 -2.11175 -1.15777 0.04 
197 1 1 -0.788257 0.215576 -0.933208 0 0 0 1.20785 1.68091 1.62115 0 0 -6.57473 -22.5916 17.1126 8.35341 0.04 
236 1 1 -0.493827 0.196958 -0.873436 0 0 0 -2.21285 1.48549 4.93885 0 0 -6.57473 -6.66753 28.5075 4.78298 0.04 
493 1 1 0.0158723 0.334618 -0.911942 0 0 0 -0.314041 1.75643 3.90781 0 0 -6.57473 -42.5658 -1.30731 -21.4276 0.04 
333 1 1 -0.443682 0.616833 -0.90971 0 0 0 1.5287 3.59879 1.99952 0 0 -6.57473 15.6178 1.19853 -7.63373 0.04 
255 1 1 0.0828398 -0.8136 -0.850086 0 0 0 -3.59929 3.85839 0.705094 0 0 -6.57473 16.6895 -16.8129 23.7099 0.04 
177 1 1 0.831709 -0.959478 -0.966603 0 0 0 0.127073 4.55584 -0.382681 -2.51581 -18.4757 366.349 -24.1627 -10.1496 -4.47651 0.04 
161 1 1 -0.120931 -0.913113 -0.83518 0 0 0 -0.940333 -2.98257 2.43075 0 0 -6.57473 -1.47254 -19.0026 -3.9846 0.04 
252 1 1 0.592743 -0.832516 -0.948451 0 0 0 -0.111984 -0.811407 3.84808 39.4984 -10.7365 -9.64771 21.1581 -3.37514 -3.92569 0.04 
229 1 1 0.588225 -0.957967 -0.936848 0 0 0 -2.10689 5.15148 2.99768 0 0 -6.57473 26.1021 -16.6882 27.4039 0.04 
323 1 1 -0.32186 -0.767378 -0.887018 0 0 0 0.575241 -0.555082 0.716332 0 0 -6.57473 -1.54498 -4.54574 14.8575 0.04 
169 1 1 -0.136088 -0.831521 -0.93126 0 0 0 0.673177 -3.82773 -2.87804 0 0 -6.57473 0.292541 -18.6815 5.04066 0.04 
159 1 1 0.793476 -0.756534 -0.912814 0 0 0 2.32296 -0.825403 -0.0638326 0 0 -6.57473 35.5842 0.328815 4.8407 0.04 
5 1 1 -0.826613 -0.812018 -0.892175 0 0 0 -1.7908 -4.09949 0.325202 0 0 -6.57473 -1.35966 -12.9236 -15.3291 0.04 
73 1 1 -0.491513 -0.791288 -0.868046 0 0 0 -0.0958704 -3.11977 1.90451 0 0 -6.57473 6.58612 -8.08022 3.14753 0.04 
95 1 1 0.220599 -0.621898 -0.913757 0 0 0 -2.23257 -1.63636 -1.02092 0 0 -6.57473 40.0398 2.9361 2.13474 0.04 
242 1 1 -0.172154 -0.693706 -0.866353 0 0 0 0.077471 -3.33652 -0.0327971 0 0 -6.57473 7.82094 -2.52227 2.03546 0.04 
188 1 1 0.45436 -0.623254 -0.871281 0 0 0 1.01412 -2.16676 1.78367 0 0 -6.57473 19.7691 -7.36092 -6.51961 0.04 
116 1 1 -0.39391 -0.554898 -0.842569 0 0 0 -0.856953 -1.11258 0.75872 19.7945 20.0859 -99.057 4.74599 0.295421 -5.38028 0.04 
34 1 1 -0.104874 -0.534084 -0.957319 0 0 0 0.836776 -2.6312 2.22162 0 0 -6.57473 7.1545 8.99778 4.23857 0.04 
315 1 1 0.10329 -0.538784 -0.940588 0 0 0 -1.94517 -1.08929 -0.656659 -105.296 -1.05806 -111.657 -10.1855 -13.9929 -6.87947 0.04 
143 1 1 0.274133 -0.547202 -0.850111 0 0 0 -0.9069 0.675102 2.17077 0 0 -6.57473 8.41002 -19.9717 16.8458 0.04 
181 1 1 -0.876552 -0.417922 -0.970908 0 0 0 0.937343 -0.116273 1.22159 -28.6854 7.30702 585.455 2.94543 25.4241 2.876 0.04 
27 1 1 -0.686699 -0.501014 -0.915263 0 0 0 1.51894 -2.95903 -1.68045 0 0 -6.57473 0.400214 21.7672 3.00583 0.04 
235 1 1 0.118235 -0.472552 -0.892284 0 0 0 1.38613 -1.81378 -3.45367 -147.922 209.923 -17.5035 -2.31587 -7.26494 4.95286 0.04 
174 1 1 0.837741 -0.429064 -0.915239 0 0 0 0.322749 0.270231 -1.77378 0 0 -6.57473 52.4866 -9.75416 -19.4191 0.04 
286 1 1 -0.175343 -0.338681 -0.857713 0 0 0 -2.00116 1.03556 1.40521 0 0 -6.57473 -4.28367 -7.46268 1.65151 0.04 
589 1 1 0.867597 -0.347427 -0.930211 0 0 0 1.42355 0.0634826 -1.79183 0 0 -6.57473 -15.0739 20.9282 -12.8863 0.04 
37 1 1 -0.621187 -0.241493 -0.89637 0 0 0 1.70418 1.70752 0.517871 17.8301 7.28414 -69.8723 19.3698 48.6344 -18.8063 0.04 
64 1 1 -0.340225 -0.393901 -0.888496 0 0 0 -0.9004 -1.99162 0.703005 127.963 78.1058 -126.384 21.2712 -39.8731 -5.06022 0.04 
35 1 1 -0.0107329 -0.291113 -0.832268 0 0 0 -1.74179 -1.50317 -0.982047 54.5816 -168.2 -82.4828 -19.4705 14.3275 3.48752 0.04 
148 1 1 0.750317 -0.233708 -0.861637 0 0 0 3.39111 1.5717 1.02438 0 0 -6.57473 -3.31047 7.40379 11.9628 0.04 
432 1 1 0.100461 -0.245191 -0.912256 0 0 0 0.00886296 -0.640216 4.70066 151.688 -18.3027 -29.4546 22.9849 -18.9278 3.51338 0.04 
221 1 1 -0.406192 -0.133687 -0.960649 0 0 0 0.787737 1.11353 3.63364 -0.303177 -0.452806 -17.4733 -19.6348 14.2096 -3.52526 0.04 
145 1 1 0.302127 -0.0680626 -0.849324 0 0 0 3.46029 2.43082 1.4959 -0.454816 1.85287 -7.80515 -14.5205 14.8147 5.41974 0.04 
204 1 1 0.477121 -0.271358 -0.898546 0 0 0 -1.57164 -3.41636 -0.999621 0 0 -6.57473 5.92887 -22.2352 -8.12212 0.04 
337 1 1 0.898927 -0.130299 -0.96777 0 0 0 -2.26607 0.675995 0.0184036 20.4702 -7.01759 426.218 -2.89367 -16.5839 -7.57631 0.04 
129 1 1 -0.857869 -0.116236 -0.964615 0 0 0 0.467343 -0.405033 -1.04849 -6.30143 9.48059 264.222 10.6585 12.1564 -3.01084 0.04 
206 1 1 -0.751826 -0.131373 -0.882649 0 0 0 3.21697 -1.23412 -0.20748 0 0 -6.57473 5.05868 1.3249 1.50832 0.04 
555 1 1 -0.57137 -0.128778 -0.961908 0 0 0 1.19635 -1.73061 2.59915 -208.729 -89.6577 25.0462 6.17787 28.6265 -12.9665 0.04 
102 1 1 -0.505153 -0.0977923 -0.95231 0 0 0 1.19255 -0.541005 -2.66531 208.466 93.2789 34.4191 -9.89635 -4.07782 0.867265 0.04 
163 1 1 -0.327498 -0.0269208 -0.940895 0 0 0 3.74052 2.17758 -2.01337 0 0 -6.57473 -10.327 12.6675 1.62233 0.04 
297 1 1 -0.1073 -0.184068 -0.947227 0 0 0 0.00888614 -3.65315 -1.32659 0 0 -6.57473 13.9503 3.82315 0.545217 0.04 
271 1 1 0.549382 -0.0595899 -0.883183 0 0 0 -0.344371 2.60206 0.920971 0 0 -6.57473 9.69088 -31.2922 -10.722 0.04 
389 1 1 -0.447279 -0.0840214 -0.877428 0 0 0 0.0819551 -1.32567 1.37479 0 0 -6.57473 13.2686 4.62919 -0.0507116 0.04 
97 1 1 -0.00648891 0.0799497 -0.853046 0 0 0 -0.133833 1.24814 1.64308 -39.2866 35.6641 -46.92 26.4776 7.58317 -6.48504 0.04 
153 1 1 -0.408355 0.207021 -0.968307 0 0 0 0.0115731 3.13538 -0.0213394 -0.339821 -23.1571 456.618 -16.3718 -0.720114 -2.26515 0.04 
62 1 1 0.740592 0.180263 -0.900306 0 0 0 1.44658 1.92493 0.423323 0 0 -6.57473 48.1665 21.5364 -14.9207 0.04 
329 1 1 -0.953932 0.18344 -0.939364 0 0 0 -0.121806 -0.336019 3.57851 0 0 -6.57473 12.317 -5.16556 -1.99072 0.04 
359 1 1 0.163642 0.263622 -0.965548 0 0 0 3.114 4.42266 -0.250736 -8.40526 -13.1687 305.875 -12.7792 15.9751 -12.1642 0.04 
476 1 1 0.764131 0.288391 -0.829993 0 0 0 -1.25565 4.45889 0.120398 0 0 -6.57473 -1.421 -8.13325 -12.5668 0.04 
16 1 1 0.944552 0.216697 -0.858821 0 0 0 2.0487 2.32331 -1.50706 0 0 -6.57473 -7.32445 2.63807 2.54596 0.04 
107 1 1 -0.873514 0.334767 -0.94987 0 0 0 0.964192 1.77118 2.54026 0 0 -6.57473 -1.69686 2.09162 0.585115 0.04 
2 1 1 -0.884959 0.541642 -0.834267 0 0 0 0.965727 3.85851 2.34433 0 0 -6.57473 4.79883 1.00534 7.32943 0.04 
94 1 1 -0.192216 0.531368 -0.859913 0 0 0 -1.56417 3.92449 0.706986 0 0 -6.57473 25.5918 8.73205 -2.7846 0.04 
136 1 1 -0.300309 0.663523 -0.90922 0 0 0 3.45599 3.96638 -1.6299 0 0 -6.57473 -10.5406 1.63948 16.691 0.04 
173 1 1 -0.793287 -0.861443 -0.808822 0 0 0 -0.126326 2.58097 0.862928 0 0 -6.57473 23.0376 -13.2774 -3.11758 0.04 
213 1 1 -0.0694459 -0.934179 -0.694526 0 0 0 2.56389 3.09125 3.90188 0 0 -6.57473 30.1587 10.5595 -4.90901 0.04 
87 1 1 0.606471 -0.917899 -0.834469 0 0 0 3.66772 -1.61205 0.452711 0 0 -6.57473 13.4642 32.8441 -10.2316 0.04 
207 1 1 -0.533747 -0.879651 -0.747356 0 0 0 -1.68822 -2.24811 3.23896 0 0 -6.57473 23.3095 3.79135 -11.6279 0.04 
85 1 1 -0.803132 -0.778351 -0.805041 0 0 0 2.56065 -0.640727 -0.160503 0 0 -6.57473 5.42797 -33.0915 -13.1532 0.04 
92 1 1 -0.435763 -0.840867 -0.768196 0 0 0 0.898302 -2.36762 1.91225 0 0 -6.57473 9.82531 23.172 3.42332 0.04 
209 1 1 -0.235644 -0.745072 -0.877686 0 0 0 -2.65393 0.167318 1.87699 0 0 -6.57473 -2.35668 -13.7255 0.873204 0.04 
31 1 1 0.27827 -0.678812 -0.793791 0 0 0 0.218705 0.833617 1.45703 0 0 -6.57473 11.4301 5.61454 10.7173 0.04 
103 1 1 0.0305878 -0.700714 -0.892871 0 0 0 -0.372185 -2.23232 -1.89669 -517.449 83.1212 -422.121 -9.05627 -3.88162 3.39961 0.04 
309 1 1 0.726336 -0.603944 -0.740282 0 0 0 -2.06967 0.178567 2.94716 0 0 -6.57473 16.7515 -13.8233 8.45135 0.04 
205 1 1 -0.505233 -0.614531 -0.970502 0 0 0 -0.765857 -1.0499 -2.60224 17.6162 25.4455 612.393 3.79143 -3.72743 -5.18082 0.04 
232 1 1 -0.230486 -0.622701 -0.836805 0 0 0 2.224 -2.97486 -2.07298 0 0 -6.57473 12.9255 -10.9993 -2.82742 0.04 
222 1 1 0.157899 -0.534569 -0.887514 0 0 0 -3.33944 -0.265903 -1.47046 253.218 -208.865 109.437 -5.65193 -1.59263 7.5728 0.04 
80 1 1 0.40132 -0.62431 -0.798417 0 0 0 -1.11375 -2.25219 0.486454 0 0 -6.57473 -33.3381 -19.8409 0.0115808 0.04 
210 1 1 0.614206 -0.611545 -0.874474 0 0 0 1.44324 -1.312 2.02246 0 0 -6.57473 -11.5697 12.5365 8.49064 0.04 
376 1 1 0.595606 -0.590102 -0.773857 0 0 0 -0.628288 -1.75882 1.28006 0 0 -6.57473 17.0539 0.381543 -6.10407 0.04 
373 1 1 -0.770975 -0.477811 -0.865593 0 0 0 -0.0119322 -1.91167 -2.40754 0 0 -6.57473 19.8177 -10.7808 -14.8999 0.04 
260 1 1 -0.639266 -0.64908 -0.857649 0 0 0 1.06753 -4.80434 -0.168336 0 0 -6.57473 16.2369 9.92342 -4.40533 0.04 
313 1 1 -0.665278 -0.410683 -0.826782 0 0 0 0.405349 2.05778 -0.48293 60.0992 11.9896 71.9136 -11.7509 -2.35323 -0.595446 0.04 
157 1 1 -0.0907686 -0.557742 -0.781241 0 0 0 -0.235084 -1.59804 2.49678 0 0 -6.57473 -15.1993 -6.28154 4.14193 0.04 
314 1 1 -0.5235 -0.495346 -0.895544 0 0 0 0.0299888 -1.72787 -0.831466 0 0 -6.57473 10.7107 4.87695 1.35275 0.04 
258 1 1 -0.152818 -0.45543 -0.970347 0 0 0 0.0566645 -0.281784 -2.63111 -10.2855 28.7529 604.169 -0.216075 -1.28976 1.1686 0.04 
132 1 1 -0.560684 -0.358598 -0.838597 0 0 0 2.19577 -0.510183 -1.34988 0 0 -6.57473 -2.03936 7.65974 1.44579 0.04 
355 1 1 0.48613 -0.407116 -0.966245 0 0 0 -0.868058 -2.40942 -3.07985 7.01317 18.0836 381.343 -19.3011 9.2774 5.47266 0.04 
572 1 1 -0.559927 -0.289806 -0.666181 0 0 0 0.529507 -0.227549 6.33369 0 0 -6.57473 24.3108 -1.89508 -9.1021 0.04 
219 1 1 0.965344 -0.306517 -0.773682 0 0 0 2.53254 -0.974395 1.21585 -204.271 -165.247 -110.949 -16.1398 12.3619 8.54207 0.04 
189 1 1 0.408396 -0.204392 -0.894381 0 0 0 2.8019 0.328962 -1.37418 0 0 -6.57473 6.81682 15.9012 -2.12302 0.04 
28 1 1 0.828803 -0.237233 -0.821889 0 0 0 0.459874 -0.0865254 -0.772419 0 0 -6.57473 9.01175 4.79703 0.57409 0.04 
312 1 1 -0.866243 -0.204245 -0.973136 0 0 0 -0.188956 -2.06375 -0.594373 3.16119 36.8535 733.201 15.7293 -1.70395 -2.43747 0.04 
264 1 1 -0.674177 -0.112108 -0.760939 0 0 0 0.457358 1.95131 1.53276 0 0 -6.57473 4.14987 10.7016 -6.47625 0.04 
247 1 1 -0.253202 -0.152073 -0.905392 0 0 0 -1.63772 -1.14504 -1.41708 0 0 -6.57473 10.1164 -5.86547 3.09712 0.04 
300 1 1 0.392372 -0.130302 -0.956364 0 0 0 -2.77633 1.33769 -3.8493 0 0 -6.57473 -3.36159 -4.29498 -6.90749 0.04 
292 1 1 -0.585292 -0.0285498 -0.869946 0 0 0 -3.24718 2.20996 -0.786038 0 0 -6.57473 -22.0785 -4.15173 0.64587 0.04 
171 1 1 0.762986 -0.0802682 -0.735172 0 0 0 -0.837653 -0.0567649 3.20395 0 0 -6.57473 1.84677 -31.6719 -14.7575 0.04 
190 1 1 -0.0999052 -0.0312723 -0.816727 0 0 0 1.65791 0.0474598 -0.318419 0 0 -6.57473 8.36509 10.4378 -3.6053 0.04 
468 1 1 0.398526 0.00972777 -0.959887 0 0 0 -0.325057 -0.0277071 5.1859 0 0 -6.57473 -5.42607 -17.9455 -2.83983 0.04 
269 1 1 -0.874351 0.0846769 -0.825206 0 0 0 1.82414 -0.682604 1.221 0 0 -6.57473 -0.972274 -7.97675 -3.55142 0.04 
262 1 1 -0.843194 0.243009 -0.799847 0 0 0 -0.846573 4.0862 1.30402 0 0 -6.57473 -29.6403 -13.7844 21.0408 0.04 
343 1 1 -0.885508 0.226504 -0.950593 0 0 0 0.327514 -0.412934 -3.30884 0 0 -6.57473 3.59985 -1.48909 -1.11134 0.04 
15 1 1 0.224793 0.567497 -0.852318 0 0 0 -2.88661 2.55453 -1.23334 0 0 -6.57473 5.23043 -22.7048 4.38371 0.04 
263 1 1 0.796664 0.845375 -0.895854 0 0 0 0.259506 4.66169 -2.86455 0 0 -6.57473 -6.24788 4.33841 0.738234 0.04 
9 1 1 0.719356 -0.781996 -0.762447 0 0 0 0.548408 2.96841 0.292299 0 0 -6.57473 25.478 21.731 -17.2172 0.04 
121 1 1 -0.414546 -0.843695 -0.660139 0 0 0 0.0028028 -0.975596 3.04655 0 0 -6.57473 25.5769 -0.130027 -1.39031 0.04 
26 1 1 -0.709277 -0.792116 -0.705911 0 0 0 1.3124 -2.0413 2.21887 0 0 -6.57473 10.5297 14.5019 -18.1876 0.04 
218 1 1 -0.112369 -0.804157 -0.855682 0 0 0 1.63124 -0.150832 -1.51095 0 0 -6.57473 -6.84625 8.78558 3.43401 0.04 
578 1 1 0.613705 -0.967218 -0.707926 0 0 0 4.14737 -6.2734 2.28189 -22.2477 483.55 -16.04 19.4562 -4.01632 -12.5159 0.04 
49 1 1 0.728177 -0.687207 -0.67072 0 0 0 0.740835 2.83511 2.19277 0 0 -6.57473 4.1402 -9.71545 24.7826 0.04 
180 1 1 -0.551388 -0.746777 -0.68853 0 0 0 -0.0588334 -1.19919 3.1777 0 0 -6.57473 25.209 -1.39814 3.48857 0.04 
272 1 1 0.566789 -0.795831 -0.687717 0 0 0 -1.95169 -3.53983 1.70209 -18.5322 -69.9005 -98.8558 16.1744 -1.22649 19.409 0.04 
72 1 1 -0.613778 -0.675365 -0.774027 0 0 0 3.19548 -4.15572 -0.314058 0 0 -6.57473 12.3064 7.32493 4.41301 0.04 
253 1 1 0.341526 -0.429231 -0.813099 0 0 0 -2.85027 2.44083 -0.776784 0 0 -6.57473 -5.64997 -9.94403 7.63287 0.04 
341 1 1 0.262866 -0.422882 -0.873476 0 0 0 -0.0559388 -0.263634 -4.11349 0 0 -6.57473 0.00113462 1.32092 -1.81676 0.04 
290 1 1 -0.767719 -0.395943 -0.849965 0 0 0 -1.25859 1.14429 -2.69254 -169.981 82.8402 121.831 -4.00423 -5.46569 5.81346 0.04 
241 1 1 -0.623578 -0.344191 -0.761556 0 0 0 -0.83196 -0.0687657 0.966337 0 0 -6.57473 -2.53793 -6.44598 4.31392 0.04 
57 1 1 -0.39304 -0.423193 -0.843837 0 0 0 -1.80227 -0.964148 -2.39211 -127.963 -78.1058 113.235 6.4852 31.7686 -0.828318 0.04 
339 1 1 -0.0969578 -0.359538 -0.850782 0 0 0 0.135906 0.154364 -3.76349 0 0 -6.57473 -3.97084 -1.05545 -5.05147 0.04 
344 1 1 -0.0109275 -0.391193 -0.883598 0 0 0 1.2524 -1.47978 -4.26471 0 0 -6.57473 2.20366 -2.14548 -5.14132 0.04 
13 1 1 -0.474761 -0.388046 -0.755295 0 0 0 -1.52683 -2.37013 -1.07988 85.2339 -11.165 -43.0846 -9.43743 4.71254 0.232195 0.04 
111 1 1 -0.364838 -0.314506 -0.751843 0 0 0 -0.96683 0.0660082 0.104289 0 0 -6.57473 22.4857 13.0621 6.55758 0.04 
152 1 1 -0.506399 -0.176627 -0.757109 0 0 0 1.07479 1.84635 0.543267 0 0 -6.57473 -5.04779 -2.42248 5.45626 0.04 
277 1 1 0.0597804 -0.210679 -0.751952 0 0 0 -3.65123 -0.862175 0.911443 0 0 -6.57473 -11.8864 -23.0118 -1.53063 0.04 
498 1 1 -0.784912 0.0114426 -0.678347 0 0 0 -0.530262 3.58345 2.80825 0 0 -6.57473 -6.80726 -13.4725 -10.6562 0.04 
32 1 1 -0.620286 -0.117248 -0.872491 0 0 0 -1.78364 0.329293 -2.8899 0 0 -6.57473 7.48547 29.4642 7.3769 0.04 
127 1 1 -0.839405 0.0156221 -0.793761 0 0 0 1.5532 1.88111 -0.833334 0 0 -6.57473 1.31614 -3.37454 22.6454 0.04 
346 1 1 0.00851701 -0.0532587 -0.910469 0 0 0 1.03652 0.115252 -4.2627 0 0 -6.57473 -12.1397 2.46281 5.86349 0.04 
358 1 1 0.288352 -0.000968008 -0.889903 0 0 0 -1.24888 0.64594 -4.21324 0.454816 -1.85287 -5.3443 -0.203022 10.0404 2.42983 0.04 
580 1 1 0.068925 0.0348027 -0.897767 0 0 0 0.919373 -0.203397 -5.31027 0 0 -6.57473 -8.56565 11.1103 -9.09932 0.04 
119 1 1 -0.9481 0.240335 -0.80474 0 0 0 0.338647 3.86696 -1.16439 0 0 -6.57473 2.22796 16.584 2.83962 0.04 
377 1 1 0.910032 0.165219 -0.784573 0 0 0 2.63346 -1.3099 2.1781 0 0 -6.57473 -4.71624 28.6507 10.4798 0.04 
98 1 1 -0.955775 0.370279 -0.851496 0 0 0 2.0807 -0.416436 -2.27461 0 0 -6.57473 -12.8213 37.5743 -5.66667 0.04 
55 1 1 -0.38904 -0.939322 -0.750612 0 0 0 -3.30462 -0.97109 -0.882679 0 0 -6.57473 11.8546 15.9036 4.78143 0.04 
79 1 1 0.940737 -0.903758 -0.646072 0 0 0 2.2437 -1.27765 0.869448 0 0 -6.57473 10.7528 1.2359 -1.39219 0.04 
239 1 1 -0.938092 -0.831452 -0.824225 0 0 0 2.31022 -0.820995 -3.62518 0 0 -6.57473 -1.79156 15.9269 -1.5553 0.04 
379 1 1 -0.831922 -0.706694 -0.721112 0 0 0 1.68739 4.27378 0.75374 0 0 -6.57473 2.67 -8.58068 33.8118 0.04 
67 1 1 0.496919 -0.975571 -0.639898 0 0 0 -0.130098 -1.00061 1.84594 19.8987 880.743 -45.8597 16.2432 3.25637 -16.5413 0.04 
76 1 1 -0.161096 -0.712563 -0.633711 0 0 0 -0.657415 0.635541 3.18859 0 0 -6.57473 15.0073 -7.2539 1.98751 0.04 
61 1 1 0.0804711 -0.708382 -0.856785 0 0 0 0.146242 -0.556722 -4.04164 517.449 -83.1212 408.971 -62.1296 -10.6412 3.5889 0.04 
243 1 1 0.16731 -0.575411 -0.706553 0 0 0 2.07209 0.313427 1.15601 0 0 -6.57473 -16.8231 7.70868 16.4993 0.04 
301 1 1 0.0248721 -0.631537 -0.791015 0 0 0 -0.424646 -1.13784 -4.0119 0 0 -6.57473 -1.18165 1.03939 -3.35891 0.04 
281 1 1 -0.832609 -0.561749 -0.801423 0 0 0 1.04135 -1.99528 -3.0649 0 0 -6.57473 -6.06427 11.8513 -2.21797 0.04 
454 1 1 -0.195369 -0.628322 -0.716508 0 0 0 4.16681 -3.56228 2.99066 0 0 -6.57473 4.08262 27.327 -5.78048 0.04 
151 1 1 0.499101 -0.554677 -0.764474 0 0 0 0.189254 -1.51218 -3.38678 0 0 -6.57473 -25.1415 -25.3855 8.74563 0.04 
391 1 1 0.094177 -0.438636 -0.821102 0 0 0 -0.826383 0.62863 -0.77573 0 0 -6.57473 -6.98831 -5.51022 -0.849401 0.04 
17 1 1 0.834465 -0.448078 -0.776544 0 0 0 -4.59607 1.12506 -4.13215 0 0 -6.57473 10.9545 31.8515 36.9682 0.04 
170 1 1 -0.545088 -0.375079 -0.726062 0 0 0 -2.02633 -0.130297 -0.586733 -85.2339 11.165 29.9352 -14.3781 12.6234 -12.7009 0.04 
285 1 1 -0.133426 -0.362088 -0.776137 0 0 0 0.913327 0.167714 -3.62094 0 0 -6.57473 0.139219 8.02175 -1.63163 0.04 
352 1 1 -0.952687 -0.322597 -0.719729 0 0 0 1.34213 -0.171891 -1.64924 0 0 -6.57473 -6.05274 8.44631 -4.8331 0.04 
284 1 1 0.204297 -0.311935 -0.781909 0 0 0 0.553946 -0.163998 -3.22403 0 0 -6.57473 5.1512 -2.65716 -1.69385 0.04 
319 1 1 -0.644893 -0.252966 -0.822228 0 0 0 0.620335 -2.54516 -2.98791 -17.8301 -7.28414 56.7229 3.96535 0.150092 -0.0655548 0.04 
88 1 1 -0.588046 -0.140806 -0.714641 0 0 0 -0.433277 2.75795 -1.34703 0 0 -6.57473 8.07114 -7.22411 10.2916 0.04 
330 1 1 -0.107868 -0.273487 -0.870116 0 0 0 0.0231017 -0.521445 -5.06065 0 0 -6.57473 0.25688 -1.66563 -2.86234 0.04 
318 1 1 -0.029608 -0.224331 -0.805327 0 0 0 -0.288245 1.50627 -2.93131 -54.5816 168.2 69.3334 0.253926 2.51565 4.29942 0.04 
238 1 1 0.0672914 -0.241053 -0.830348 0 0 0 1.93489 1.81354 -3.12232 0 0 -6.57473 10.2186 17.7142 -15.3476 0.04 
83 1 1 -0.289235 -0.0808485 -0.645198 0 0 0 1.241 1.16932 2.07131 0 0 -6.57473 -13.6561 19.6515 11.4341 0.04 
291 1 1 0.851231 -0.022834 -0.713034 0 0 0 0.918305 2.16881 0.430194 0 0 -6.57473 -2.33114 11.7216 -12.2406 0.04 
368 1 1 -0.546064 -0.0316491 -0.761516 0 0 0 -2.5912 -0.0960883 -3.15349 0 0 -6.57473 5.55085 -11.4851 0.0195161 0.04 
357 1 1 0.0421301 0.0369908 -0.808532 0 0 0 1.29055 0.810025 -4.63414 39.2866 -35.6641 33.7705 3.12773 -0.546288 3.94619 0.04 
447 1 1 0.4439 0.0863868 -0.67184 0 0 0 -1.46349 2.11217 0.487399 0 0 -6.57473 31.2555 18.5712 5.55989 0.04 
280 1 1 0.764487 0.0735946 -0.687846 0 0 0 -3.63933 2.54503 -0.569548 0 0 -6.57473 9.20651 37.5924 -22.1727 0.04 
401 1 1 0.234765 0.219017 -0.640337 0 0 0 -0.924208 4.04566 1.69734 0 0 -6.57473 12.765 18.093 -21.6482 0.04 
347 1 1 -0.94791 0.147631 -0.760204 0 0 0 0.284968 -0.779007 -2.51772 0 0 -6.57473 4.53428 0.292872 -0.0653616 0.04 
303 1 1 -0.736759 0.430453 -0.638449 0 0 0 2.54726 0.687822 1.11165 0 0 -6.57473 -1.64921 15.0498 -1.15307 0.04 
324 1 1 0.232415 0.636355 -0.987926 0 0 0 1.24554 -1.48907 -3.97459 -77.3836 21.7712 1601.18 40.0668 -0.533507 12.5143 0.04 
230 1 1 -0.611938 -0.952438 -0.546369 0 0 0 0.614263 -2.68862 2.36507 0 0 -6.57473 18.838 0.770472 -3.66615 0.04 
342 1 1 0.581935 -0.748922 -0.629395 0 0 0 3.20087 -0.479878 0.830931 18.5322 69.9005 85.7063 -0.498727 17.3408 -1.85427 0.04 
287 1 1 -0.714045 -0.632821 -0.637243 0 0 0 0.613351 -2.391 0.129739 0 0 -6.57473 10.2161 -4.35633 -7.10421 0.04 
375 1 1 -0.394988 -0.661317 -0.718938 0 0 0 -1.24889 -2.76629 -4.38935 0 0 -6.57473 4.17913 -0.657943 -2.80347 0.04 
117 1 1 0.744315 -0.611723 -0.580384 0 0 0 2.64706 -1.13496 2.62639 0 0 -6.57473 22.9817 -1.27971 6.71766 0.04 
461 1 1 0.964642 -0.458275 -0.623013 0 0 0 -2.08936 2.21189 2.03748 -231.639 -6.30778 -16.2883 4.85506 34.4929 -46.0989 0.04 
328 1 1 -0.784141 -0.536735 -0.67811 0 0 0 1.40428 -1.48934 -2.00672 0 0 -6.57473 -0.0728797 -0.510412 1.29174 0.04 
433 1 1 -0.409039 -0.57492 -0.768313 0 0 0 0.649691 -1.86653 -4.3974 -19.7945 -20.0859 85.9076 2.08909 1.45933 9.3845 0.04 
354 1 1 0.0534017 -0.522281 -0.618193 0 0 0 0.830944 -0.940658 1.32956 0 0 -6.57473 -13.4731 5.66934 6.34204 0.04 
86 1 1 0.123216 -0.502205 -0.755016 0 0 0 -1.98627 2.28969 -3.77965 0 0 -6.57473 -2.99995 17.0017 12.3275 0.04 
449 1 1 0.634613 -0.517587 -0.505093 0 0 0 0.978746 0.199835 4.50855 0 0 -6.57473 18.5416 26.2877 -16.7371 0.04 
351 1 1 0.549354 -0.531573 -0.557352 0 0 0 1.44249 -3.62268 -1.9227 0 0 -6.57473 -26.1945 5.88252 -24.516 0.04 
456 1 1 -0.844871 -0.36102 -0.718776 0 0 0 1.73091 -0.610779 -2.60441 0 0 -6.57473 6.45982 13.5615 -5.72478 0.04 
320 1 1 -0.62772 -0.47767 -0.619621 0 0 0 -0.908006 -2.92818 -0.422498 0 0 -6.57473 11.7239 -0.477832 2.51048 0.04 
289 1 1 -0.201916 -0.465242 -0.639091 0 0 0 0.996611 -2.66303 0.0583024 0 0 -6.57473 -9.21898 19.7054 8.49982 0.04 
366 1 1 -0.0908771 -0.41405 -0.708969 0 0 0 0.215688 -1.26822 -3.62249 0 0 -6.57473 -6.49314 -12.1169 4.44929 0.04 
439 1 1 0.490096 -0.356453 -0.737288 0 0 0 0.268492 -0.44813 -3.96914 0 0 -6.57473 2.04436 1.09791 -0.383997 0.04 
395 1 1 0.927976 -0.377547 -0.737336 0 0 0 -0.575119 0.575975 -3.16562 0 0 -6.57473 -3.01329 -0.500537 -2.40098 0.04 
410 1 1 -0.216342 -0.297796 -0.677697 0 0 0 0.75462 1.17676 -2.6163 0 0 -6.57473 -10.4203 0.0157438 -4.20841 0.04 
295 1 1 0.924471 -0.251385 -0.748586 0 0 0 -0.938426 1.76317 -2.33518 -126.274 174.946 84.4168 -5.59161 -5.10043 2.77633 0.04 
442 1 1 -0.921057 -0.175137 -0.775359 0 0 0 -1.48867 0.042564 -4.3326 0 0 -6.57473 -22.7736 -3.43023 12.049 0.04 
58 1 1 0.913473 -0.173313 -0.586125 0 0 0 -0.187122 -0.118873 1.6649 -17.1858 -3.67468 -54.1501 32.1843 -19.1069 -0.540284 0.04 
245 1 1 -0.349662 0.000686647 -0.607414 0 0 0 -0.273626 3.37147 1.15323 0 0 -6.57473 -15.5196 3.45359 8.07537 0.04 
370 1 1 0.536666 -0.11352 -0.734516 0 0 0 0.0607375 -0.173833 -3.94527 0 0 -6.57473 1.19958 -0.453392 -2.01205 0.04 
529 1 1 0.893572 -0.107217 -0.653591 0 0 0 0.384874 -1.80101 -0.508846 0 0 -6.57473 -22.2734 16.5611 -0.97921 0.04 
237 1 1 -0.202419 -0.0351026 -0.580945 0 0 0 3.235 -0.0663846 1.08715 0 0 -6.57473 -1.64078 3.68738 -10.4215 0.04 
199 1 1 0.964322 -0.0497798 -0.646887 0 0 0 2.07915 1.37372 -0.481707 -267.798 -13.2443 -4.60565 3.05805 -6.09637 7.86672 0.04 
276 1 1 -0.241726 0.206756 -0.646004 0 0 0 3.73714 2.79236 -1.49014 0 0 -6.57473 -12.7279 -13.1802 -13.7478 0.04 
198 1 1 0.748143 0.318278 -0.605702 0 0 0 2.13317 4.7118 0.757058 0 0 -6.57473 -11.8139 15.2152 -5.81586 0.04 
113 1 1 0.477341 0.307633 -0.577764 0 0 0 0.156249 2.66543 2.72007 0 0 -6.57473 -7.71172 -1.59541 1.57002 0.04 
296 1 1 0.207535 0.497921 -0.696633 0 0 0 2.13153 2.67965 -2.02301 0 0 -6.57473 -14.6276 11.594 -4.1191 0.04 
208 1 1 0.455542 -0.801088 -0.65079 0 0 0 0.506737 3.68976 -2.20348 0 0 -6.57473 -32.8498 -5.77537 -8.92135 0.04 
220 1 1 0.90808 -0.859695 -0.553935 0 0 0 -0.365641 -3.98272 -0.665125 0 0 -6.57473 9.13917 -6.44715 -1.972 0.04 
50 1 1 -0.464427 -0.775937 -0.556414 0 0 0 3.56226 -2.50798 1.32153 0 0 -6.57473 4.85618 18.0936 4.32291 0.04 
192 1 1 0.233295 -0.68595 -0.463697 0 0 0 0.921803 1.07895 3.96124 0 0 -6.57473 -54.8247 1.61632 -25.8199 0.04 
293 1 1 0.826383 -0.68288 -0.508702 0 0 0 -2.59467 -2.53439 1.5167 0 0 -6.57473 19.4247 9.58904 18.1037 0.04 
514 1 1 -0.401131 -0.618005 -0.646084 0 0 0 0.893342 -1.91648 -2.7418 0 0 -6.57473 -11.0512 1.63435 2.23387 0.04 
404 1 1 0.235673 -0.464395 -0.541846 0 0 0 0.751544 -0.238796 0.0262536 0 0 -6.57473 -11.0666 -0.12321 3.64569 0.04 
225 1 1 0.611818 -0.389206 -0.565575 0 0 0 0.406803 1.47231 0.396763 0 0 -6.57473 18.8345 -3.01889 -4.40888 0.04 
215 1 1 0.717285 -0.418951 -0.549246 0 0 0 1.76919 -0.255145 -0.357532 0 0 -6.57473 -5.9896 1.67386 16.727 0.04 
147 1 1 0.836894 -0.454007 -0.630109 0 0 0 -1.05545 0.298215 -1.73499 0 0 -6.57473 -6.67571 -8.45722 -3.14295 0.04 
418 1 1 -0.742745 -0.33316 -0.604585 0 0 0 2.06797 0.35422 -1.70827 0 0 -6.57473 5.95854 -6.66655 -2.94702 0.04 
294 1 1 -0.729916 -0.404888 -0.680883 0 0 0 0.114481 -0.244001 -3.38584 0 0 -6.57473 -3.73089 -3.44965 1.06493 0.04 
382 1 1 -0.016734 -0.342627 -0.687258 0 0 0 -0.613791 0.10844 -3.51815 0 0 -6.57473 1.00815 3.1811 -0.485102 0.04 
363 1 1 -0.868712 -0.226137 -0.656154 0 0 0 -0.279714 -0.0643053 -3.61972 0 0 -6.57473 0.161115 -0.0519368 -0.828239 0.04 
234 1 1 -0.523112 -0.200502 -0.524832 0 0 0 0.0348221 1.76745 -0.0208891 0 0 -6.57473 -10.2639 -11.1751 -1.08591 0.04 
325 1 1 0.117012 -0.233183 -0.552663 0 0 0 0.517303 0.422217 1.24667 0 0 -6.57473 -4.22612 6.50294 -3.96001 0.04 
310 1 1 0.403461 -0.277135 -0.631985 0 0 0 -0.398855 -0.422991 -3.46097 0 0 -6.57473 -2.57746 3.0788 4.88925 0.04 
396 1 1 0.524295 -0.244998 -0.695235 0 0 0 0.0825962 -0.0535954 -3.85239 0 0 -6.57473 0.700601 -0.558889 0.176007 0.04 
191 1 1 0.700068 -0.209153 -0.544124 0 0 0 -2.07135 1.12385 0.693883 62.0812 55.1234 3.12263 21.8693 6.95092 -2.25546 0.04 
405 1 1 -0.0879066 -0.10442 -0.705123 0 0 0 0.360851 -0.373778 -3.85418 0 0 -6.57473 3.26805 4.67949 6.45882 0.04 
450 1 1 0.0610057 -0.103366 -0.742103 0 0 0 1.14109 -0.622336 -5.782 0 0 -6.57473 5.83187 -2.81013 1.76524 0.04 
414 1 1 0.33868 0.10252 -0.678025 0 0 0 -0.470129 1.09215 -3.72341 0 0 -6.57473 -2.02949 0.56626 7.56366 0.04 
141 1 1 0.941725 0.150564 -0.462052 0 0 0 -2.09922 2.06332 2.79419 0 0 -6.57473 -17.4736 14.9899 -8.7154 0.04 
135 1 1 -0.420985 0.453244 -0.542751 0 0 0 0.661755 2.95378 1.46966 0 0 -6.57473 18.6763 -2.3107 18.8046 0.04 
74 1 1 0.660478 -0.80013 -0.667683 0 0 0 0.699923 4.87461 -5.38045 0 0 -6.57473 -68.9635 -12.2601 4.79242 0.04 
246 1 1 -0.872766 -0.761839 -0.54083 0 0 0 1.07187 -1.51989 -0.991579 0 0 -6.57473 12.3489 6.31158 -1.51126 0.04 
420 1 1 0.0775177 -0.594604 -0.58353 0 0 0 0.138154 -0.670624 -3.37144 0 0 -6.57473 -2.06837 -0.414698 0.0991884 0.04 
371 1 1 0.855146 -0.557389 -0.61354 0 0 0 0.210141 -0.7199 -3.52289 0 0 -6.57473 2.13326 0.426076 0.874398 0.04 
430 1 1 0.377979 -0.605455 -0.510732 0 0 0 0.481689 -3.10939 -1.66675 0 0 -6.57473 8.18114 -5.29783 1.52333 0.04 
372 1 1 -0.893611 -0.357801 -0.603982 0 0 0 -0.420471 -0.408014 -3.14346 0 0 -6.57473 -0.312464 -0.496552 -0.611633 0.04 
402 1 1 -0.298842 -0.387258 -0.60858 0 0 0 0.0884094 -0.274539 -3.50186 0 0 -6.57473 0.846541 0.085961 0.448414 0.04 
421 1 1 -0.0549619 -0.401862 -0.582566 0 0 0 -0.0156745 -0.379278 -3.35415 0 0 -6.57473 0.135748 -1.14782 1.09456 0.04 
564 1 1 -0.629901 -0.313874 -0.54476 0 0 0 -2.69897 -1.8716 -2.53666 0 0 -6.57473 5.26497 0.188442 0.650574 0.04 
425 1 1 0.101207 -0.344838 -0.552135 0 0 0 1.56215 -0.695688 -2.83006 0 0 -6.57473 7.88207 -0.840665 18.4124 0.04 
356 1 1 0.91155 -0.293475 -0.645187 0 0 0 1.41479 -0.728402 -4.26654 0 0 -6.57473 4.86204 2.54229 2.92817 0.04 
435 1 1 -0.916832 -0.250023 -0.580694 0 0 0 -0.0860908 -0.130493 -3.4859 0 0 -6.57473 1.69086 1.14897 -0.508026 0.04 
335 1 1 -0.445348 -0.22697 -0.613765 0 0 0 -0.388634 0.443275 -4.25467 0 0 -6.57473 -1.10193 -0.0663975 -2.7832 0.04 
240 1 1 0.46758 -0.231557 -0.589188 0 0 0 -0.107264 -0.129196 -3.32219 0 0 -6.57473 0.706038 -2.72496 -3.15294 0.04 
316 1 1 0.792207 -0.32871 -0.577501 0 0 0 0.122651 -3.03171 -2.87793 0 0 -6.57473 8.73268 -24.2958 31.9893 0.04 