ITEM: TIMESTEP
14800
ITEM: NUMBER OF ATOMS
999
ITEM: BOX BOUNDS ff ff ff
-1 1
-1 1
-1 1
ITEM: ATOMS id type type x y z ix iy iz vx vy vz fx fy fz omegax omegay omegaz radius 
105 1 1 -0.951166 -0.946106 -0.955334 0 0 0 -3.07656 1.3112 -0.399718 0 0 -6.57473 18.4601 -12.3966 13.4441 0.04 
242 1 1 -0.29401 -0.815689 -0.958479 0 0 0 -1.61619 1.93793 0.433049 0 0 -6.57473 -11.2336 -6.49849 12.6405 0.04 
282 1 1 -0.348426 -0.91666 -0.912099 0 0 0 0.631163 5.02237 0.68738 0 0 -6.57473 31.7436 -6.55368 -26.3703 0.04 
118 1 1 0.416034 -0.727531 -0.942475 0 0 0 1.90057 3.87001 -0.467808 32.2621 217.044 -196.322 -2.50327 5.06363 -19.3589 0.04 
314 1 1 -0.496127 -0.915205 -0.914294 0 0 0 -0.420915 -3.2546 0.310649 -111.491 78.9551 -98.4842 17.4416 8.10942 0.792121 0.04 
415 1 1 -0.386712 -0.839633 -0.942756 0 0 0 0.746784 -1.41112 0.968177 0 0 -6.57473 11.9279 18.3326 -10.1691 0.04 
517 1 1 -0.201605 -0.70132 -0.963346 0 0 0 0.975546 -3.15324 -1.70628 -1.76027 10.28 202.018 8.28848 12.7634 2.68375 0.04 
5 1 1 -0.860312 -0.520464 -0.904844 0 0 0 0.810408 0.362884 3.64381 -127.052 -132.642 81.8801 -38.2927 -27.0929 -27.6101 0.04 
64 1 1 -0.325137 -0.666554 -0.923297 0 0 0 -0.521971 -1.17949 0.599227 0 0 -6.57473 27.3633 -36.58 -3.63506 0.04 
513 1 1 0.0054483 -0.700965 -0.924571 0 0 0 2.78271 -3.11373 0.762752 0 0 -6.57473 11.1528 -14.5174 8.11337 0.04 
147 1 1 0.474849 -0.760739 -0.863712 0 0 0 -2.85642 -2.78647 1.92279 151.019 -104.735 -92.0978 14.7475 -21.754 -5.54366 0.04 
13 1 1 -0.485031 -0.551281 -0.962156 0 0 0 -3.62389 -0.916847 -1.32243 6.49058 2.23546 130.721 -21.4396 37.5459 -19.5662 0.04 
421 1 1 -0.173931 -0.658124 -0.900532 0 0 0 2.25832 -1.70727 3.85102 0 0 -6.57473 26.5052 -15.7844 -1.10167 0.04 
19 1 1 0.402012 -0.494848 -0.95523 0 0 0 0.170562 -0.251085 -0.424367 -18.2766 -670.704 -253.384 -28.6215 -3.64248 9.23334 0.04 
159 1 1 0.686726 -0.614578 -0.956124 0 0 0 -2.50419 -1.66581 -2.18057 -16.7404 12.3036 -41.3987 35.3119 4.72918 -35.6388 0.04 
208 1 1 0.642801 -0.454911 -0.960669 0 0 0 -1.67537 2.77888 -1.47857 1.90156 -2.08395 49.8479 1.66408 23.2025 -7.68217 0.04 
352 1 1 -0.929036 -0.536917 -0.962679 0 0 0 -1.83618 -3.21633 -2.41325 4.6738 7.72316 173.971 -1.5394 3.77959 -13.5918 0.04 
247 1 1 -0.357389 -0.497452 -0.902932 0 0 0 0.846676 -0.588943 1.11426 -41.144 68.6669 30.391 18.6602 -9.97738 -3.17458 0.04 
339 1 1 -0.142417 -0.494162 -0.938295 0 0 0 -2.55728 -1.04142 2.36755 56.2325 16.2483 -0.788586 15.3141 4.97646 12.5753 0.04 
110 1 1 0.233819 -0.416659 -0.952573 0 0 0 -1.4259 -1.68893 -0.0713821 0 0 -6.57473 0.303412 -5.63089 33.3825 0.04 
499 1 1 0.791831 -0.458375 -0.733023 0 0 0 -0.0694818 -2.25443 5.63502 0 0 -6.57473 -13.1775 -45.3971 6.99275 0.04 
290 1 1 -0.964355 -0.416211 -0.942508 0 0 0 0.888444 -0.943959 0.577997 231.196 11.546 -6.01047 -1.78592 -17.196 12.7195 0.04 
37 1 1 -0.569969 -0.395383 -0.975529 0 0 0 0.674683 -0.213819 -0.135856 32.1442 -29.0992 860.607 8.80713 22.6574 -9.26334 0.04 
485 1 1 -0.265321 -0.412129 -0.866506 0 0 0 -1.08807 -1.75125 4.75653 0 0 -6.57473 27.812 -28.1067 -0.888776 0.04 
439 1 1 0.350888 -0.390808 -0.906754 0 0 0 3.07035 -0.960651 -0.00852768 25.1753 108.233 -18.2565 32.3345 -24.3293 -9.35799 0.04 
589 1 1 0.941736 -0.345338 -0.95776 0 0 0 -2.34772 -1.13187 -0.700731 0 0 -6.57473 5.424 -7.64574 -31.9733 0.04 
335 1 1 -0.435788 -0.234105 -0.958315 0 0 0 0.916429 -0.153322 0.945723 0 0 -6.57473 0.803352 -3.85565 -25.4499 0.04 
201 1 1 0.0145593 -0.252895 -0.937939 0 0 0 0.0317873 0.652186 1.26586 0 0 -6.57473 -9.33946 8.25696 2.4453 0.04 
174 1 1 0.725942 -0.18311 -0.960452 0 0 0 -1.78785 3.28333 -0.409612 0.435564 -1.46147 23.9251 18.2086 -14.9204 -11.981 0.04 
240 1 1 0.679633 -0.295368 -0.954783 0 0 0 3.2968 -0.847857 -0.724504 0 0 -6.57473 5.6743 5.62074 -9.33681 0.04 
442 1 1 -0.846322 -0.107948 -0.948022 0 0 0 0.947252 0.879904 -0.920831 0 0 -6.57473 -15.5397 39.8259 16.4119 0.04 
189 1 1 0.947226 -0.175898 -0.95565 0 0 0 3.11659 1.91728 -0.182006 -53.7153 241.032 -69.6893 1.85749 22.3679 -5.84143 0.04 
392 1 1 -0.750676 -0.108718 -0.93777 0 0 0 0.960001 0.0169879 0.287274 174.187 36.4502 -263.006 -7.81809 30.4818 2.44614 0.04 
405 1 1 -0.187591 0.0968332 -0.917498 0 0 0 -0.621807 4.84781 0.155869 32.606 81.6154 9.50158 -1.66233 11.0613 16.566 0.04 
146 1 1 -0.540901 0.137993 -0.911263 0 0 0 0.086582 0.188434 0.760452 0 0 -6.57473 -14.642 9.83983 4.98886 0.04 
368 1 1 -0.726764 0.213309 -0.908083 0 0 0 3.80624 3.229 2.01868 170.634 98.7 95.5911 -4.37478 -16.8754 8.28907 0.04 
167 1 1 -0.830909 0.249141 -0.964687 0 0 0 1.52571 2.96303 0.587401 -6.51695 -10.876 247.006 -12.3717 0.777042 13.229 0.04 
329 1 1 -0.958805 0.513022 -0.962916 0 0 0 0.424419 4.34346 0.525773 -0.716104 -7.7524 149.133 -2.79271 0.86018 0.14285 0.04 
244 1 1 -0.243022 0.705458 -0.951449 0 0 0 -0.749015 3.9173 0.629319 0 0 -6.57473 -14.1892 -20.3891 7.74675 0.04 
71 1 1 -0.0958679 0.689899 -0.949325 0 0 0 -0.447579 3.24519 0.605103 0 0 -6.57473 -21.4161 5.43543 4.93805 0.04 
15 1 1 -0.468456 0.905798 -0.947799 0 0 0 -4.31521 2.02192 -0.657098 0 0 -6.57473 3.97273 -31.3883 1.88992 0.04 
375 1 1 -0.651726 -0.959382 -0.850199 0 0 0 -0.874522 -2.44429 0.161736 355.76 -145.637 -212.583 0.350318 -37.1642 -36.3324 0.04 
272 1 1 0.473902 -0.9156 -0.910128 0 0 0 -0.0311362 0.819271 4.51683 0 0 -6.57473 -28.7034 -3.01331 6.79601 0.04 
52 1 1 -0.443776 -0.948096 -0.870822 0 0 0 0.0905201 -0.894778 1.03432 111.491 -78.9551 85.3347 11.876 -12.9532 -19.8669 0.04 
489 1 1 -0.396922 -0.863416 -0.802623 0 0 0 -4.26115 3.89872 -0.972895 -451.831 -70.9298 -344.413 45.8981 -16.4462 26.5745 0.04 
218 1 1 0.0717149 -0.926276 -0.897043 0 0 0 -1.26148 1.50898 -2.50352 0 0 -6.57473 7.39365 13.9471 -5.78372 0.04 
194 1 1 0.24382 -0.965447 -0.941473 0 0 0 -0.397965 1.23231 2.75099 3.39143 287.588 -20.5484 29.3062 3.23827 -0.151696 0.04 
232 1 1 -0.219497 -0.855321 -0.880149 0 0 0 0.644381 -1.81804 0.558408 -53.5097 -412.657 43.9446 11.9142 11.4383 2.72962 0.04 
61 1 1 0.234725 -0.894892 -0.805514 0 0 0 1.18525 -1.74988 2.54624 0 0 -6.57473 -39.9812 1.94864 9.48304 0.04 
34 1 1 -0.139609 -0.873031 -0.831527 0 0 0 0.165134 -2.19327 1.6165 0 0 -6.57473 16.8173 -5.47402 13.6422 0.04 
315 1 1 -0.0938181 -0.803042 -0.826264 0 0 0 -0.723135 -1.43795 1.84091 0 0 -6.57473 10.9349 -21.5408 -16.543 0.04 
95 1 1 0.123141 -0.812568 -0.83315 0 0 0 -0.390837 -1.73244 2.09195 0 0 -6.57473 29.9402 -4.0688 6.11531 0.04 
204 1 1 0.152329 -0.801733 -0.959011 0 0 0 -0.838077 -2.36504 -2.27098 0 0 -6.57473 7.55521 -16.1511 -6.38543 0.04 
9 1 1 0.82999 -0.719312 -0.751299 0 0 0 -0.116523 -0.77893 3.0525 0 0 -6.57473 22.7658 -4.81205 -7.53192 0.04 
372 1 1 -0.933815 -0.678425 -0.935408 0 0 0 0.432737 -1.82179 3.80108 0 0 -6.57473 22.7718 1.68885 -6.99603 0.04 
57 1 1 -0.647659 -0.661426 -0.800428 0 0 0 0.456396 -0.665887 1.97388 -212.386 47.7235 -94.5919 14.8768 13.7568 -13.3099 0.04 
85 1 1 -0.605658 -0.585032 -0.904067 0 0 0 -0.0522509 -1.25861 3.20184 111.609 -271.815 -39.6542 -11.9251 -13.1563 -21.3576 0.04 
322 1 1 -0.319643 -0.558582 -0.931976 0 0 0 2.34 -1.42497 3.34907 41.144 -68.6669 -43.5404 10.6889 31.9137 -0.564376 0.04 
426 1 1 0.477709 -0.55436 -0.891975 0 0 0 0.308369 -0.416661 3.74405 0 0 -6.57473 12.4621 -19.3952 -5.27175 0.04 
328 1 1 -0.816537 -0.471997 -0.939796 0 0 0 -0.157162 -0.0383288 -2.18835 127.052 132.642 -95.0295 -10.653 -0.703184 -24.4331 0.04 
294 1 1 -0.6349 -0.519617 -0.898854 0 0 0 -1.63245 -0.984023 -0.562842 -111.609 271.815 26.5048 2.17668 5.25704 -14.8957 0.04 
138 1 1 -0.472134 -0.635091 -0.947626 0 0 0 1.27128 -2.7807 -3.38195 0 0 -6.57473 -11.0405 -13.9742 -2.87593 0.04 
285 1 1 -0.216821 -0.518915 -0.948464 0 0 0 1.15312 -1.12552 1.15607 219.969 -114.745 -221.81 9.65997 -16.7589 -7.69567 0.04 
366 1 1 0.0551508 -0.433045 -0.899178 0 0 0 0.641828 1.15874 3.07843 0 0 -6.57473 3.35253 2.68588 -8.31347 0.04 
210 1 1 0.936478 -0.55799 -0.947875 0 0 0 1.17979 -1.613 -0.890008 0 0 -6.57473 -16.1039 7.19234 -6.95798 0.04 
371 1 1 0.947239 -0.454696 -0.831127 0 0 0 0.0541988 0.542774 1.27207 0 0 -6.57473 -6.82728 -0.380019 2.02614 0.04 
316 1 1 0.618939 -0.379969 -0.814014 0 0 0 -0.763988 1.5171 2.89223 8.54505 4.18481 -53.1586 19.5886 -47.1443 35.4423 0.04 
524 1 1 -0.826107 -0.392679 -0.905499 0 0 0 0.365074 1.89886 -0.64744 -362.549 43.2205 -195.671 -6.28443 14.699 -10.1822 0.04 
456 1 1 -0.612825 -0.432503 -0.911486 0 0 0 -0.945277 -0.758455 -1.08859 -27.9378 13.3749 -12.728 -10.5816 6.04037 -4.85459 0.04 
132 1 1 -0.420547 -0.377485 -0.8894 0 0 0 0.944009 -1.51566 0.749599 0 0 -6.57473 19.9197 -9.48007 16.9487 0.04 
709 1 1 -0.294358 -0.36221 -0.793248 0 0 0 -1.8641 -1.13939 1.76729 -6.46573 -136.411 -337.993 -23.7105 9.62948 -9.31211 0.04 
382 1 1 -0.1656 -0.355175 -0.939272 0 0 0 -0.999936 -0.0364913 1.62308 0 0 -6.57473 3.30694 -17.622 -1.55368 0.04 
344 1 1 -0.071177 -0.385221 -0.934086 0 0 0 -0.951047 -0.250573 -0.388292 0 0 -6.57473 15.9594 10.242 -8.54071 0.04 
391 1 1 0.221471 -0.349395 -0.90407 0 0 0 1.5427 1.17455 0.940415 0 0 -6.57473 6.83269 -8.45519 -16.5322 0.04 
409 1 1 0.640722 -0.323127 -0.75456 0 0 0 0.0879404 1.18952 3.70294 94.0502 179.008 -69.5428 -26.023 -9.08907 -0.70351 0.04 
28 1 1 0.854395 -0.277455 -0.844791 0 0 0 1.68889 2.69036 -0.544823 0 0 -6.57473 29.7086 -5.96042 9.78639 0.04 
412 1 1 -0.881483 -0.249987 -0.963594 0 0 0 1.01984 2.29828 2.00692 -1.44705 -8.5932 167.709 -24.4569 20.7363 -14.2328 0.04 
497 1 1 0.473448 -0.327468 -0.917762 0 0 0 -0.0583766 -0.61528 3.96176 0 0 -6.57473 22.7339 -3.14296 5.11491 0.04 
435 1 1 -0.92057 -0.217986 -0.787294 0 0 0 1.07822 0.549381 3.02684 0 0 -6.57473 -10.4311 -28.9706 1.00909 0.04 
129 1 1 -0.861438 -0.217503 -0.865959 0 0 0 -0.668326 0.886125 -0.175619 -138.177 144.616 -143.597 5.68033 15.4861 6.76613 0.04 
32 1 1 -0.668279 -0.290835 -0.926985 0 0 0 0.821652 -0.00256996 -3.03163 157.999 -147.113 -54.1729 -21.212 23.0039 14.4838 0.04 
410 1 1 -0.192763 -0.178532 -0.771872 0 0 0 -0.53306 0.739807 2.69771 0 0 -6.57473 -7.61469 5.70131 -0.400848 0.04 
35 1 1 -0.0178452 -0.13687 -0.890296 0 0 0 0.421936 2.07303 0.410358 0 0 -6.57473 -18.5066 -17.9128 12.9246 0.04 
310 1 1 0.33078 -0.193817 -0.783324 0 0 0 -2.16314 2.40415 0.172634 79.2863 153.511 -261.417 2.31753 17.435 -0.679161 0.04 
58 1 1 0.634947 -0.188115 -0.953419 0 0 0 -1.59839 0.763856 3.26314 0 0 -6.57473 12.7829 -19.481 0.73305 0.04 
529 1 1 0.959871 -0.244605 -0.935188 0 0 0 0.5903 0.750479 2.39319 53.7153 -241.032 56.5398 -2.72807 11.9233 -7.00225 0.04 
319 1 1 -0.721818 -0.243376 -0.907879 0 0 0 0.322751 -1.99845 -0.574865 -157.999 147.113 41.0235 -14.9611 0.516729 4.1796 0.04 
206 1 1 -0.584566 -0.0952208 -0.89389 0 0 0 -1.59455 2.77383 0.917038 -12.3284 3.7179 12.1541 -2.30963 -0.19139 -4.52744 0.04 
394 1 1 -0.395575 -0.156076 -0.959118 0 0 0 2.05038 2.66534 -0.230582 0 0 -6.57473 -11.4879 -17.3847 -4.18701 0.04 
530 1 1 -0.357046 -0.239565 -0.942954 0 0 0 -0.223289 -0.585068 -1.36791 0 0 -6.57473 7.17274 -11.9528 3.43832 0.04 
253 1 1 0.0590845 -0.103436 -0.956145 0 0 0 1.68972 2.66942 2.49429 0 0 -6.57473 -13.8002 3.36711 9.92176 0.04 
432 1 1 0.445247 -0.0908374 -0.900993 0 0 0 1.76401 1.2677 0.322747 0 0 -6.57473 -1.69242 -17.1622 -8.56156 0.04 
599 1 1 0.593884 -0.160442 -0.883609 0 0 0 0.741587 0.0677083 4.08559 180.956 75.1894 -1.10809 8.94175 9.97618 -3.08765 0.04 
389 1 1 -0.541264 -0.111839 -0.957682 0 0 0 0.333663 0.0584904 -0.192744 12.3284 -3.7179 -25.3035 0.540135 -10.7788 -2.55205 0.04 
224 1 1 -0.361798 0.011909 -0.784345 0 0 0 0.143825 2.19206 3.20898 0 0 -6.57473 -17.7512 14.3524 1.59538 0.04 
694 1 1 -0.212098 0.0257548 -0.932528 0 0 0 -0.179365 0.115312 -0.884093 -32.606 -81.6154 -22.651 -4.97249 -32.5587 22.0649 0.04 
464 1 1 0.225023 -0.0876965 -0.934049 0 0 0 -2.52141 0.695521 3.02091 0 0 -6.57473 -6.22448 -26.1237 3.84826 0.04 
469 1 1 0.403977 -0.147663 -0.788596 0 0 0 -1.34097 0.393618 1.42571 -12.1551 41.0966 -9.26536 1.84811 3.88028 3.8723 0.04 
219 1 1 0.757098 -0.0203192 -0.850902 0 0 0 -1.78312 2.73486 0.77296 0 0 -6.57473 -15.3525 8.28307 18.3589 0.04 
363 1 1 -0.937847 0.0496199 -0.860749 0 0 0 -2.24621 0.703447 2.06537 0 0 -6.57473 -27.4072 -10.412 -12.1499 0.04 
200 1 1 0.428837 0.118871 -0.902498 0 0 0 3.19293 3.41715 0.0431399 0 0 -6.57473 -13.3645 0.833811 -3.06795 0.04 
525 1 1 -0.916449 0.0488453 -0.957263 0 0 0 -1.0123 -2.1 -0.926999 0 0 -6.57473 -28.5101 -1.60956 -3.85004 0.04 
555 1 1 -0.382306 0.0306359 -0.963765 0 0 0 0.134076 -0.392011 -2.01795 18.1079 23.2288 206.005 9.73482 22.5172 -12.3279 0.04 
601 1 1 -0.265449 0.241999 -0.928477 0 0 0 -0.572015 4.69238 -1.54048 0 0 -6.57473 -30.2922 8.74024 -6.94825 0.04 
190 1 1 -0.014422 -0.0126473 -0.964612 0 0 0 0.405395 -0.353607 2.35496 -9.41839 6.28755 219.911 10.8758 12.7733 -3.60805 0.04 
393 1 1 0.594424 0.134154 -0.961556 0 0 0 2.2335 3.11386 -2.3497 -3.27801 -4.85649 110.61 -2.61142 5.11838 -1.93719 0.04 
455 1 1 0.801116 0.032855 -0.956022 0 0 0 1.90088 0.530804 3.24546 0 0 -6.57473 -8.62519 27.8043 0.0723654 0.04 
663 1 1 0.732101 0.127317 -0.842639 0 0 0 2.40048 1.5565 -0.375383 0 0 -6.57473 -19.2806 7.77217 -4.62288 0.04 
295 1 1 0.853438 0.215165 -0.937592 0 0 0 -1.1684 2.98395 -1.75131 0 0 -6.57473 -12.0132 -7.99554 2.99922 0.04 
88 1 1 -0.4771 0.239579 -0.835987 0 0 0 0.188889 1.55318 -1.01415 -216.115 -111.294 -383.072 -0.0446914 3.60251 9.62196 0.04 
237 1 1 0.26529 0.271587 -0.875047 0 0 0 1.4674 3.01186 3.99537 0 0 -6.57473 -14.0521 14.403 -18.0547 0.04 
575 1 1 0.310624 0.155297 -0.904797 0 0 0 0.958934 -0.0808546 3.9566 0 0 -6.57473 2.71943 29.8447 -8.33439 0.04 
337 1 1 0.701965 0.22528 -0.955421 0 0 0 0.102557 1.38866 -1.72691 0 0 -6.57473 0.968156 -15.3955 -5.14051 0.04 
271 1 1 0.668393 0.329699 -0.89455 0 0 0 0.27044 3.62066 -0.321112 0 0 -6.57473 13.0909 -21.6841 -17.6097 0.04 
365 1 1 -0.95453 0.311102 -0.884686 0 0 0 -0.946981 1.54689 -0.811702 0 0 -6.57473 18.5882 18.4671 0.190342 0.04 
292 1 1 -0.882003 0.395077 -0.955862 0 0 0 -0.0931886 3.24808 -1.09843 0 0 -6.57473 -15.6528 2.58828 -0.35482 0.04 
304 1 1 -0.448568 0.450219 -0.913014 0 0 0 -5.5066 1.75211 -0.734817 0 0 -6.57473 -30.0271 -2.11175 -1.15777 0.04 
62 1 1 0.964544 0.418026 -0.894192 0 0 0 -0.24634 1.03433 -0.295517 -250.042 -5.38093 4.71015 48.4455 19.4186 -14.4592 0.04 
16 1 1 0.714957 0.621475 -0.904269 0 0 0 -1.67212 2.87599 0.115047 0 0 -6.57473 -15.4557 -9.20574 -4.12836 0.04 
276 1 1 0.353373 0.651961 -0.945057 0 0 0 3.49146 2.65644 2.54597 0 0 -6.57473 -20.4177 0.724148 -13.7478 0.04 
119 1 1 -0.931312 0.77902 -0.948638 0 0 0 0.0634176 3.27912 -1.49662 0 0 -6.57473 -1.49769 15.3497 1.42899 0.04 
476 1 1 0.586751 0.954648 -0.957065 0 0 0 -0.459477 -4.60324 -1.76079 0 0 -6.57473 24.1532 -5.28627 -11.8072 0.04 
73 1 1 -0.445265 -0.938212 -0.780752 0 0 0 0.105143 0.517941 1.65984 0 0 -6.57473 9.93174 -14.8434 -13.8733 0.04 
472 1 1 0.803845 -0.841539 -0.938995 0 0 0 1.3238 3.03908 -3.13925 0 0 -6.57473 -9.42779 6.58142 -2.54431 0.04 
137 1 1 -0.843988 -0.84676 -0.936562 0 0 0 -1.46649 0.819542 -2.17292 0 0 -6.57473 31.9984 -7.20972 -6.13774 0.04 
307 1 1 0.108222 -0.923772 -0.824304 0 0 0 -0.748714 -0.738673 1.67692 0 0 -6.57473 1.49064 -22.1517 -13.87 0.04 
260 1 1 -0.669264 -0.746947 -0.94344 0 0 0 -0.240904 1.41274 -3.32166 0 0 -6.57473 -0.464886 21.3299 -24.5683 0.04 
27 1 1 -0.62869 -0.85838 -0.829184 0 0 0 -1.70639 0.530107 1.04675 0 0 -6.57473 2.28881 23.082 11.4513 0.04 
30 1 1 -0.0824341 -0.969769 -0.80268 0 0 0 -0.633167 0.523078 1.20331 19.151 537.66 -25.4409 24.1149 4.17792 7.50382 0.04 
87 1 1 0.802183 -0.78915 -0.868423 0 0 0 -3.16363 1.31464 -0.794287 0 0 -6.57473 12.4552 15.9044 -26.7977 0.04 
323 1 1 -0.341212 -0.726169 -0.799296 0 0 0 2.3944 1.76091 0.766605 0 0 -6.57473 3.73016 -8.86033 35.0591 0.04 
177 1 1 0.678742 -0.744122 -0.856603 0 0 0 -1.18675 0.692093 -0.140732 0 0 -6.57473 -34.6198 -6.71582 -14.3788 0.04 
373 1 1 -0.790382 -0.817208 -0.761962 0 0 0 -0.434058 -4.4999 0.540938 0 0 -6.57473 26.4896 -6.10475 -11.743 0.04 
80 1 1 -0.0760247 -0.683533 -0.815546 0 0 0 -4.11455 1.18624 -0.392609 0 0 -6.57473 -44.3598 -30.2899 1.01561 0.04 
209 1 1 -0.251292 -0.686322 -0.89678 0 0 0 0.643818 -1.96218 -1.39023 0 0 -6.57473 1.57183 -16.717 16.0495 0.04 
222 1 1 0.144662 -0.667946 -0.80626 0 0 0 0.525586 -0.587131 1.16404 0 0 -6.57473 -1.43118 -9.61663 7.26226 0.04 
470 1 1 0.246353 -0.704888 -0.972187 0 0 0 1.35601 -1.54613 -1.88924 -25.645 24.0862 697.076 16.9055 9.55464 -2.98142 0.04 
341 1 1 0.317557 -0.585154 -0.94462 0 0 0 -1.09953 -1.27124 -2.07686 0 0 -6.57473 -4.0526 -16.1828 -15.4985 0.04 
519 1 1 0.445547 -0.708051 -0.818429 0 0 0 0.564079 -4.06158 0.250173 -83.1663 129.777 110.205 21.3772 -6.80039 2.61294 0.04 
656 1 1 0.518889 -0.699688 -0.895955 0 0 0 -0.4455 -3.46434 6.01048 0 0 -6.57473 26.6182 -10.1154 12.8396 0.04 
351 1 1 0.711946 -0.526053 -0.831329 0 0 0 1.52805 -0.132516 2.33641 0 0 -6.57473 -16.8797 21.3763 -20.4748 0.04 
170 1 1 -0.735103 -0.548347 -0.81775 0 0 0 -1.81982 -2.3492 -0.39024 0 0 -6.57473 -15.4317 -4.90245 -15.6875 0.04 
402 1 1 -0.439094 -0.519536 -0.900817 0 0 0 1.279 -1.70415 -1.59613 0 0 -6.57473 7.30958 3.37694 -4.19934 0.04 
380 1 1 -0.386527 -0.67406 -0.857202 0 0 0 1.15872 -3.89731 -1.79497 0 0 -6.57473 3.04681 9.22384 -7.90039 0.04 
473 1 1 -0.190746 -0.565458 -0.890836 0 0 0 0.667752 0.0339445 -0.468854 19.7073 -41.7662 45.0471 -7.48875 1.3631 -13.1443 0.04 
528 1 1 0.0390529 -0.571302 -0.88667 0 0 0 0.182383 -1.54597 -1.32505 0 0 -6.57473 13.6853 1.94775 -7.92753 0.04 
395 1 1 0.948571 -0.592816 -0.821601 0 0 0 0.909947 -2.18232 -0.232904 0 0 -6.57473 5.83433 -17.1865 3.18199 0.04 
427 1 1 -0.815538 -0.488802 -0.833258 0 0 0 -1.34135 -2.6809 -2.08454 0 0 -6.57473 -4.0771 7.4961 15.789 0.04 
313 1 1 -0.542493 -0.466539 -0.899971 0 0 0 -0.0570474 -1.27522 -2.54783 -203.456 2.21226 -180.103 -18.0582 5.3372 2.06363 0.04 
130 1 1 -0.0180518 -0.567333 -0.972018 0 0 0 1.49077 -3.59529 0.500382 -16.9057 28.5295 656.67 24.059 -4.57769 1.20146 0.04 
235 1 1 0.185812 -0.425965 -0.843428 0 0 0 0.0702812 -0.613806 -0.687691 5.08214 -16.728 -22.4735 -18.7649 -4.61177 3.8364 0.04 
122 1 1 0.844917 -0.334996 -0.962973 0 0 0 -3.40194 1.74427 -2.93727 9.59166 -3.42939 197.151 -15.8442 -6.0482 -3.20638 0.04 
474 1 1 -0.552232 -0.37318 -0.861283 0 0 0 -0.880366 0.112235 1.45175 0 0 -6.57473 -5.45139 -18.7811 6.42659 0.04 
54 1 1 -0.367214 -0.470519 -0.777228 0 0 0 0.93099 -2.54598 0.648543 0 0 -6.57473 -10.8367 -29.7612 1.3511 0.04 
396 1 1 0.578892 -0.432564 -0.899512 0 0 0 1.77474 -1.03215 -2.5415 0 0 -6.57473 5.2796 -16.2373 -7.47942 0.04 
111 1 1 -0.516742 -0.233414 -0.922243 0 0 0 -4.92831 0.951112 0.0574955 0 0 -6.57473 28.6731 -11.0249 0.346393 0.04 
425 1 1 0.298785 -0.314259 -0.896715 0 0 0 -0.0331161 1.72024 5.02735 0 0 -6.57473 17.2607 40.6543 3.65725 0.04 
356 1 1 0.829758 -0.243006 -0.943404 0 0 0 -2.45845 0.657819 -3.59385 0 0 -6.57473 12.9629 -14.1693 -5.83148 0.04 
241 1 1 -0.601408 -0.271706 -0.875374 0 0 0 -0.0361533 -0.743356 -2.47206 0 0 -6.57473 4.17212 -3.17024 6.29406 0.04 
789 1 1 -0.342339 -0.361316 -0.95095 0 0 0 2.19637 -4.34444 -2.41835 0 0 -6.57473 0.495956 15.1181 -18.6624 0.04 
721 1 1 -0.10894 -0.300444 -0.913966 0 0 0 -0.0180206 -0.987518 -2.38217 0 0 -6.57473 8.62118 -10.2434 1.65155 0.04 
284 1 1 0.230617 -0.213148 -0.921708 0 0 0 0.366092 1.23045 -2.6785 0 0 -6.57473 10.7175 -11.156 -7.34116 0.04 
418 1 1 -0.788426 -0.114963 -0.877079 0 0 0 3.41739 1.01968 0.613918 -207.713 -52.3772 236.219 4.99778 -1.68701 1.85173 0.04 
286 1 1 -0.466949 -0.131387 -0.878903 0 0 0 -2.60495 1.94055 1.20791 78.8053 -91.3882 -57.1814 -8.1703 -12.1195 1.6798 0.04 
664 1 1 0.525898 -0.191818 -0.883319 0 0 0 1.90534 -0.0507964 6.17975 -180.956 -75.1894 -12.0414 1.17687 40.2089 1.81833 0.04 
148 1 1 0.817688 -0.176974 -0.845657 0 0 0 0.329647 -0.600772 -1.62334 0 0 -6.57473 3.90852 4.57577 11.7818 0.04 
347 1 1 -0.951689 -0.113401 -0.857899 0 0 0 0.948714 -1.13828 -0.581828 0 0 -6.57473 18.9749 9.13047 -1.83206 0.04 
416 1 1 -0.723355 -0.0821602 -0.846522 0 0 0 1.68041 1.29736 2.83458 33.5263 15.9269 7.06244 -14.1879 -7.65538 -11.6905 0.04 
318 1 1 -0.167842 -0.0820213 -0.734314 0 0 0 -0.757122 0.533413 3.07178 0 0 -6.57473 -13.63 -14.7704 -8.0829 0.04 
325 1 1 -0.133389 -0.0353843 -0.954643 0 0 0 -1.59144 1.16018 4.49293 0 0 -6.57473 -10.4379 -2.9494 4.1257 0.04 
640 1 1 0.379511 -0.0406124 -0.86094 0 0 0 4.62878 1.60669 -1.0965 0 0 -6.57473 16.7266 34.7515 -12.8756 0.04 
127 1 1 -0.394039 -0.0223365 -0.906302 0 0 0 2.72705 -0.565876 -1.20936 -6.31722 -22.787 16.8248 6.59866 1.86606 25.4702 0.04 
625 1 1 -0.0669424 0.116646 -0.881886 0 0 0 0.969716 2.25252 -0.728808 0 0 -6.57473 -7.38459 7.46335 0.638545 0.04 
487 1 1 -0.780834 0.180563 -0.94469 0 0 0 2.29195 0.241544 -2.15693 -170.634 -98.7 -108.741 -8.32626 9.09417 13.1365 0.04 
24 1 1 -0.906824 0.130691 -0.960179 0 0 0 0.830819 -0.191312 -3.52681 0.428309 -2.75147 49.1174 63.7708 29.9865 13.9868 0.04 
163 1 1 0.244774 0.307115 -0.791668 0 0 0 3.56036 2.07876 0.519706 0 0 -6.57473 -16.077 23.1507 1.62233 0.04 
414 1 1 0.333296 0.282045 -0.776152 0 0 0 1.58545 1.71078 -0.281875 0 0 -6.57473 -21.971 -19.9207 5.31105 0.04 
280 1 1 0.182194 0.4808 -0.904542 0 0 0 -3.63933 2.54503 -2.13915 0 0 -6.57473 9.20651 37.5924 -22.1727 0.04 
98 1 1 -0.900038 0.50975 -0.817482 0 0 0 -0.108875 2.91674 -0.315896 0 0 -6.57473 -15.1287 13.2662 -1.75449 0.04 
197 1 1 -0.595001 0.484521 -0.799393 0 0 0 1.20785 1.68091 0.0515464 0 0 -6.57473 -22.5916 17.1126 8.35341 0.04 
107 1 1 -0.390273 0.606526 -0.798998 0 0 0 3.24969 1.69191 0.0705412 0 0 -6.57473 -0.84176 -4.3923 3.30905 0.04 
359 1 1 0.630891 0.939265 -0.821142 0 0 0 2.30405 3.69015 0.788706 0 0 -6.57473 -17.0561 21.6978 -9.59183 0.04 
136 1 1 0.208513 0.708649 -0.831331 0 0 0 2.97247 -3.44761 0.450425 0 0 -6.57473 -23.1137 9.19318 36.1158 0.04 
94 1 1 -0.425957 0.823803 -0.858733 0 0 0 -1.27069 -3.47427 0.558768 0 0 -6.57473 23.5186 11.971 -22.1112 0.04 
246 1 1 -0.706393 -0.933581 -0.819228 0 0 0 -1.00067 1.89989 -1.16683 -355.76 145.637 199.434 0.614029 5.63644 -9.98316 0.04 
103 1 1 0.468528 -0.85951 -0.730362 0 0 0 0.857423 2.96386 1.16353 0 0 -6.57473 13.2648 43.3446 -5.66987 0.04 
79 1 1 0.886641 -0.935186 -0.890422 0 0 0 -0.381369 0.0441311 -2.6973 0 0 -6.57473 7.79431 8.37068 8.22816 0.04 
173 1 1 -0.862543 -0.881558 -0.766469 0 0 0 -0.896342 -0.0859352 -0.077382 0 0 -6.57473 17.58 -10.0597 -9.08348 0.04 
437 1 1 0.408183 -0.783729 -0.898118 0 0 0 1.70068 1.38072 -2.88539 -100.115 -242.086 151.916 -8.31386 -2.68775 6.0135 0.04 
430 1 1 0.625728 -0.93513 -0.82615 0 0 0 3.14666 -0.221647 -1.17587 0 0 -6.57473 8.99327 2.66827 1.28839 0.04 
188 1 1 0.684083 -0.876499 -0.79015 0 0 0 2.19037 0.0784496 -0.502201 0 0 -6.57473 21.6193 -10.8942 -12.2581 0.04 
239 1 1 -0.954325 -0.829965 -0.754031 0 0 0 1.27281 -1.06964 -0.669124 0 0 -6.57473 -7.68594 -7.71152 -9.12 0.04 
72 1 1 -0.0962207 -0.795405 -0.744083 0 0 0 3.66493 1.62011 -0.33504 0 0 -6.57473 5.68046 11.5133 -13.2393 0.04 
281 1 1 -0.755383 -0.801374 -0.658289 0 0 0 -1.24675 -0.517034 2.22647 -75.2561 27.6437 -205.789 16.2562 18.7469 1.05329 0.04 
169 1 1 0.0759882 -0.750184 -0.725436 0 0 0 1.73096 0.486539 0.636224 0 0 -6.57473 30.1993 -16.3723 8.0617 0.04 
86 1 1 0.189641 -0.713179 -0.715755 0 0 0 1.32446 -1.17608 0.313786 0 0 -6.57473 14.3099 11.878 -4.06074 0.04 
151 1 1 0.513708 -0.761773 -0.668905 0 0 0 0.0344009 -1.16785 2.58115 0 0 -6.57473 -6.36357 -16.9323 8.74563 0.04 
74 1 1 0.557847 -0.691269 -0.80652 0 0 0 -2.09499 -1.72903 -3.40213 0 0 -6.57473 -56.5178 -39.4537 2.76664 0.04 
348 1 1 -0.580038 -0.677658 -0.776127 0 0 0 0.683874 -1.52169 0.116147 212.386 -47.7235 81.4425 10.9748 9.42456 4.77646 0.04 
116 1 1 -0.39802 -0.686387 -0.64693 0 0 0 0.0526581 -1.83617 2.26042 0 0 -6.57473 -8.0457 -1.50873 0.0116298 0.04 
383 1 1 -0.21172 -0.787922 -0.891711 0 0 0 -0.739983 -3.37598 -3.26805 53.5097 412.657 -57.0941 3.28247 53.9386 -15.3515 0.04 
506 1 1 0.927342 -0.696017 -0.881555 0 0 0 0.796456 -1.83287 -2.73768 0 0 -6.57473 -1.42687 -2.62931 -3.76155 0.04 
181 1 1 -0.964807 -0.626986 -0.832173 0 0 0 0.887108 -2.1004 -1.4186 256.413 12.8071 -5.98483 -6.63586 35.1603 0.144736 0.04 
465 1 1 -0.465038 -0.655752 -0.815553 0 0 0 0.519764 -2.80472 0.014958 0 0 -6.57473 -4.91024 11.3856 4.12164 0.04 
502 1 1 -0.0677803 -0.665936 -0.918891 0 0 0 -2.63994 -1.60737 -2.76274 0 0 -6.57473 -9.84829 -10.743 2.3845 0.04 
215 1 1 0.722031 -0.635962 -0.889765 0 0 0 0.825812 -2.47051 0.150725 16.7404 -12.3036 28.2492 -17.4569 9.80986 22.115 0.04 
478 1 1 -0.274732 -0.490847 -0.921272 0 0 0 -1.36694 0.935065 -3.00791 -295.909 140.262 151.252 -6.88956 -3.55179 1.49524 0.04 
386 1 1 -0.764261 -0.402252 -0.876117 0 0 0 -0.761969 0.538946 -2.26931 362.549 -43.2205 182.522 -5.83292 -1.06525 -27.5118 0.04 
349 1 1 0.374489 -0.47163 -0.703731 0 0 0 1.75804 -0.76127 1.61452 0 0 -6.57473 5.64595 12.4256 -5.29553 0.04 
443 1 1 0.482267 -0.44038 -0.755167 0 0 0 -2.30922 -1.44318 -1.69531 0 0 -6.57473 -10.8235 0.244211 -8.38175 0.04 
81 1 1 0.608567 -0.38749 -0.735732 0 0 0 0.990325 0.342399 -0.0637089 -102.595 -183.193 102.977 2.80809 -4.54045 -10.8716 0.04 
387 1 1 -0.816646 -0.260604 -0.82655 0 0 0 0.00357728 1.73413 -1.72562 138.177 -144.616 130.447 -3.7088 4.4002 -0.940087 0.04 
531 1 1 -0.639508 -0.345955 -0.796879 0 0 0 1.54947 -0.26247 1.1122 -5.85173 106.946 -51.4799 -16.175 -0.677191 2.13465 0.04 
330 1 1 -0.289593 -0.33577 -0.728317 0 0 0 1.66804 -0.951038 1.40109 6.46573 136.411 324.844 5.05325 -28.7 -2.64278 0.04 
258 1 1 -0.160369 -0.330453 -0.767627 0 0 0 -1.10111 -0.11876 -0.321582 -424.369 -340.992 -255.488 12.6047 5.43117 7.65331 0.04 
617 1 1 0.404016 -0.437016 -0.937138 0 0 0 0.568567 0.461647 -3.55074 111.02 590.877 194.503 -8.35054 12.5084 -7.73739 0.04 
500 1 1 0.711874 -0.360709 -0.793934 0 0 0 -3.94611 0.2644 0.381527 0 0 -6.57473 1.92502 -13.4028 4.41003 0.04 
533 1 1 -0.564761 -0.370563 -0.744445 0 0 0 -2.09374 -2.34471 0.348833 0 0 -6.57473 5.8123 -12.2062 3.54777 0.04 
482 1 1 -0.45906 -0.333039 -0.738319 0 0 0 -0.554451 -0.983517 0.693476 0 0 -6.57473 -7.98416 -6.72336 9.85085 0.04 
297 1 1 0.0550618 -0.326153 -0.721103 0 0 0 0.300058 -2.51015 -0.547033 70.3001 94.3171 -15.6922 1.41505 5.50097 -8.99485 0.04 
461 1 1 0.583277 -0.209851 -0.740883 0 0 0 -1.96331 4.04112 -1.51909 0 0 -6.57473 -11.6975 13.0765 -52.6942 0.04 
312 1 1 -0.722929 -0.271483 -0.800208 0 0 0 -1.34267 -0.471644 -1.23978 0 0 -6.57473 9.34491 16.6212 -15.5396 0.04 
511 1 1 -0.718795 -0.173054 -0.850966 0 0 0 0.949879 -0.561295 -0.811526 0 0 -6.57473 -8.83291 -4.66508 -1.3357 0.04 
450 1 1 0.212166 -0.0878638 -0.839026 0 0 0 0.373612 1.21507 -1.9796 0 0 -6.57473 -6.65893 -3.81704 -4.33811 0.04 
102 1 1 -0.283849 -0.122166 -0.654815 0 0 0 -0.175294 -0.612603 2.23742 0 0 -6.57473 1.46254 9.39113 9.12043 0.04 
580 1 1 0.257578 -0.0334979 -0.639516 0 0 0 1.43201 0.797148 2.78564 0 0 -6.57473 0.497183 16.6177 -6.16788 0.04 
370 1 1 0.646063 -0.093506 -0.738664 0 0 0 0.652053 0.327584 -1.34938 0 0 -6.57473 -39.5998 -3.42412 10.5358 0.04 
291 1 1 0.571067 0.0916206 -0.689497 0 0 0 -2.55626 0.707376 3.2836 0 0 -6.57473 15.4432 -18.0019 -19.9046 0.04 
501 1 1 0.492866 0.0233701 -0.873878 0 0 0 -1.27818 -0.372682 -5.15143 327.279 -96.6849 -349.14 1.53039 -15.0474 2.60301 0.04 
199 1 1 0.668976 0.0550059 -0.786129 0 0 0 -1.87265 0.525526 -1.56698 0 0 -6.57473 3.98421 -9.30992 -6.59029 0.04 
785 1 1 -0.31887 0.157466 -0.975392 0 0 0 1.72705 2.97292 2.45049 -20.3118 -35.9601 819.427 -46.2895 27.6455 -8.0954 0.04 
238 1 1 -0.0555751 0.233622 -0.817082 0 0 0 -1.34627 2.42382 -2.75007 0 0 -6.57473 2.31606 27.5754 -20.9987 0.04 
269 1 1 -0.658742 0.124149 -0.806948 0 0 0 1.70771 -0.311203 -0.389658 0 0 -6.57473 8.31251 0.687294 2.90503 0.04 
633 1 1 -0.258861 0.241929 -0.627889 0 0 0 1.38652 2.15489 3.79964 0 0 -6.57473 -39.5528 26.603 -9.74007 0.04 
403 1 1 -0.921628 0.166638 -0.867166 0 0 0 0.211957 -2.11352 -0.868023 0 0 -6.57473 6.23057 -3.999 3.74963 0.04 
343 1 1 -0.83955 0.320835 -0.759603 0 0 0 0.946969 -0.202645 0.570607 0 0 -6.57473 13.7439 8.28276 0.368127 0.04 
97 1 1 -0.141842 0.377743 -0.787796 0 0 0 -0.857949 1.8714 -0.383454 0 0 -6.57473 28.3329 10.1173 -5.97891 0.04 
468 1 1 0.500981 0.45628 -0.743681 0 0 0 0.312358 3.32738 0.264695 0 0 -6.57473 2.52157 -5.04001 4.62771 0.04 
462 1 1 -0.918208 0.597277 -0.818911 0 0 0 0.166943 3.36913 -1.27212 0 0 -6.57473 -11.7585 2.93577 -2.55718 0.04 
153 1 1 -0.406778 0.690326 -0.732038 0 0 0 0.00983212 3.01924 0.719842 0 0 -6.57473 -23.0271 -0.620289 -2.26515 0.04 
263 1 1 0.825813 0.459879 -0.717766 0 0 0 0.165719 -4.01498 1.27615 0 0 -6.57473 -27.3962 4.77155 5.2699 0.04 
333 1 1 -0.216534 0.781492 -0.724808 0 0 0 1.24668 -3.29947 0.249929 0 0 -6.57473 2.66167 1.36402 6.38625 0.04 
324 1 1 0.711874 0.765047 -0.808184 0 0 0 3.08322 -4.32564 -0.921036 0 0 -6.57473 48.6237 6.45098 23.0163 0.04 
514 1 1 -0.18138 -0.836659 -0.677474 0 0 0 0.284566 1.86697 1.11283 0 0 -6.57473 -0.890274 7.08144 -18.7151 0.04 
287 1 1 -0.613058 -0.926245 -0.681966 0 0 0 0.583874 2.27868 -0.424541 0 0 -6.57473 0.0160678 -3.6747 -12.9615 0.04 
320 1 1 -0.966085 -0.768549 -0.653406 0 0 0 2.84203 0.938053 2.20383 302.275 -2.42811 -21.4922 12.2947 -31.8636 21.0129 0.04 
55 1 1 -0.588882 -0.772513 -0.617508 0 0 0 1.35108 0.65971 2.59723 0 0 -6.57473 19.8492 10.7871 35.414 0.04 
289 1 1 -0.344994 -0.858132 -0.765937 0 0 0 1.34645 -1.29595 -1.66263 451.831 70.9298 331.264 -11.0699 26.6116 5.34981 0.04 
205 1 1 -0.802029 -0.705234 -0.638166 0 0 0 -2.40346 0.399515 1.00393 0 0 -6.57473 15.113 -14.4928 0.637256 0.04 
301 1 1 -0.06458 -0.636008 -0.612845 0 0 0 -1.14998 1.55507 2.38066 154.667 -105.276 -73.518 22.4142 -8.02995 -0.250907 0.04 
31 1 1 0.166564 -0.858607 -0.719779 0 0 0 -2.03413 -3.94707 -0.133758 0 0 -6.57473 22.2189 4.10856 9.04309 0.04 
578 1 1 0.573407 -0.658722 -0.706418 0 0 0 -3.03773 -1.49678 1.04081 0 0 -6.57473 24.8404 -12.5177 -71.8182 0.04 