ITEM: TIMESTEP
55200
ITEM: NUMBER OF ATOMS
1500
ITEM: BOX BOUNDS ff ff ff
-1 1
-1 1
-1 1
ITEM: ATOMS id type type x y z ix iy iz vx vy vz fx fy fz omegax omegay omegaz radius 
137 1 1 -0.958445 -0.959125 -0.960229 0 0 0 0.0399402 0.0622485 -0.0370082 -0.252474 -0.610787 6.64351 0.664623 0.0815016 -1.09796 0.04 
5 1 1 -0.87436 -0.960644 -0.957101 0 0 0 0.000653824 -0.145869 -0.0674143 1.70419 37.7703 -5.76095 -0.983675 -0.103026 -1.22612 0.04 
239 1 1 -0.784142 -0.952599 -0.960434 0 0 0 0.0722935 0.039365 -0.00164626 9.44159 -2.09412 -29.2346 -1.40709 0.671857 -0.260199 0.04 
34 1 1 -0.702401 -0.955499 -0.960176 0 0 0 -0.142542 -0.0581785 -0.232859 0.422463 0.319952 6.06082 -2.06955 1.30309 -2.22844 0.04 
415 1 1 -0.620599 -0.960215 -0.959523 0 0 0 0.150492 0.0898253 -0.0540073 -0.292182 10.821 -6.11935 0.642486 -0.126902 -2.51381 0.04 
138 1 1 -0.525761 -0.957849 -0.959619 0 0 0 0.170558 0.153198 -0.0679795 0 0 -6.57473 0.466161 -0.666686 -3.02515 0.04 
323 1 1 -0.439566 -0.955519 -0.960068 0 0 0 -0.0403224 -0.0126842 0.0915271 15.0055 -26.4293 -5.96817 -2.29989 0.621908 -2.44237 0.04 
130 1 1 -0.358192 -0.959333 -0.960765 0 0 0 -0.0748375 0.0425963 0.0711142 -3.28623 -5.92228 16.2109 0.342561 -0.241983 0.932622 0.04 
502 1 1 -0.278399 -0.959993 -0.960291 0 0 0 -0.0768014 0.00442408 0.113471 7.23855 0.148927 7.24379 0.0615365 -1.16379 -0.357963 0.04 
494 1 1 -0.165661 -0.959903 -0.960187 0 0 0 0.040052 0.00194131 0.0375489 3.00602 -8.41214 0.913225 0.126707 0.0543364 0.721398 0.04 
448 1 1 -0.0857221 -0.960143 -0.960193 0 0 0 0.0190346 -0.122871 -0.00308159 -0.244246 9.00843 -1.43099 -0.385114 -0.302419 -0.382246 0.04 
147 1 1 -0.0054107 -0.959741 -0.960219 0 0 0 -0.162136 -0.12659 -0.0474315 -15.1226 -4.75663 -13.6882 -0.750828 -0.578348 -0.200289 0.04 
218 1 1 0.0741919 -0.959989 -0.96056 0 0 0 -0.07988 -0.0850244 -0.0603251 12.5603 -8.46285 11.6605 -0.228797 -0.230634 1.25576 0.04 
339 1 1 0.187797 -0.956554 -0.960596 0 0 0 -0.152593 0.0252229 0.11767 18.3929 -12.764 -3.42613 0.0232915 -1.78931 -1.22494 0.04 
341 1 1 0.309721 -0.959665 -0.960414 0 0 0 0.0267221 -0.00988513 0.00596949 2.76016 0.558457 12.7774 -0.39049 -0.948509 1.08011 0.04 
203 1 1 0.390093 -0.960058 -0.959782 0 0 0 -0.0861041 -0.0183864 0.0514768 -0.929589 3.32805 -8.44179 0.794939 -1.4856 0.257547 0.04 
1019 1 1 0.472159 -0.958179 -0.960847 0 0 0 -0.00794616 0.0229635 -0.0328465 -0.761488 -2.28719 40.8655 1.30708 -0.742758 2.60645 0.04 
821 1 1 0.557383 -0.959756 -0.960008 0 0 0 0.0529747 0.234879 -0.0849185 4.97321 -0.6206 -13.1673 1.03151 0.372194 0.685099 0.04 
636 1 1 0.640138 -0.957553 -0.960563 0 0 0 -0.069554 0.0646422 0.0780514 0.0372974 0.0954862 20.4428 -1.83244 -0.871476 -0.574237 0.04 
729 1 1 0.719989 -0.95984 -0.959727 0 0 0 0.0624565 0.0114051 0.0602944 -16.9908 0.0622579 -8.31409 -0.630091 -0.962247 -0.38487 0.04 
503 1 1 0.799426 -0.959208 -0.959513 0 0 0 0.076555 0.0937739 0.0570923 7.43395 -1.46706 -6.12017 -0.431926 -1.17407 1.66161 0.04 
424 1 1 0.879033 -0.959986 -0.957273 0 0 0 0.135358 0.0770739 0.249556 12.6618 0.174191 -6.77647 2.02906 -1.5649 -0.933472 0.04 
850 1 1 0.959977 -0.958049 -0.960214 0 0 0 0.00141601 -0.0115825 -0.0204847 0.0356181 -0.00588 5.59269 0.292192 0.0439287 0.368287 0.04 
918 1 1 -0.915454 -0.889459 -0.960124 0 0 0 0.109428 0.0221752 -0.153412 -0.364272 0.253895 2.30575 -2.1152 0.50136 2.38959 0.04 
246 1 1 -0.832583 -0.879262 -0.960409 0 0 0 0.0290188 -0.0260345 -0.159233 0.504011 1.13515 18.2655 -1.51472 1.69176 -1.20713 0.04 
586 1 1 -0.743218 -0.881494 -0.960766 0 0 0 -0.062122 -0.0783839 -0.114484 -6.02545 -6.15439 22.8262 -0.128327 1.38441 -2.01476 0.04 
379 1 1 -0.652108 -0.883538 -0.959334 0 0 0 0.158359 0.0804038 -0.0486557 7.98443 -15.8776 -6.79166 -0.742368 0.96399 -0.716436 0.04 
105 1 1 -0.5725 -0.892421 -0.960411 0 0 0 0.177389 -0.0705112 0.0328715 -2.49463 -0.231524 13.3683 -1.68485 1.58471 1.38284 0.04 
289 1 1 -0.480716 -0.887944 -0.957731 0 0 0 -0.00128476 0.126906 -0.186398 -25.4392 3.27776 -2.74435 -3.51917 -1.83083 -1.86579 0.04 
345 1 1 -0.379753 -0.88217 -0.960331 0 0 0 -0.0867971 0.0183498 0.0556867 0.760508 -0.455222 11.1521 -0.166988 -1.68886 -2.48068 0.04 
209 1 1 -0.296905 -0.881769 -0.960205 0 0 0 -0.0940574 -0.0732853 0.0321399 -3.9664 0.049487 2.12914 0.216956 -0.572683 -0.101224 0.04 
647 1 1 -0.219466 -0.901077 -0.960058 0 0 0 0.00240193 -0.0999686 0.0406293 -0.803513 6.75083 -3.55499 0.717699 -0.874887 -0.216953 0.04 
700 1 1 -0.124966 -0.890512 -0.960962 0 0 0 -0.186876 -0.0248857 -0.26943 -22.1285 -0.674653 -8.78613 0.77976 1.34219 0.336637 0.04 
616 1 1 -0.0443504 -0.890097 -0.960258 0 0 0 -0.0297851 0.0787222 -0.0167724 -4.96967 5.19788 7.91931 0.529099 1.23599 1.4352 0.04 
87 1 1 0.0353621 -0.890684 -0.954254 0 0 0 -0.00378908 -0.136804 0.338859 -4.09454 10.1655 -6.14467 -0.486564 1.99992 1.04608 0.04 
655 1 1 0.127871 -0.900247 -0.960091 0 0 0 -0.166676 0.039912 0.00950362 -3.61644 -0.594417 -4.50453 -1.6599 -1.96943 -2.32908 0.04 
19 1 1 0.259447 -0.897311 -0.960293 0 0 0 0.111869 0.036758 -0.00256129 0.577075 -0.206309 8.7538 -0.881262 -0.63158 -1.10205 0.04 
443 1 1 0.346288 -0.883222 -0.960129 0 0 0 -0.0161384 -0.108231 0.0162619 -0.0666822 0.343247 0.418551 -0.366728 -1.00186 1.72413 0.04 
664 1 1 0.434652 -0.886015 -0.959862 0 0 0 0.142556 0.0195229 0.0183657 0 0 -6.57473 -0.983771 0.817234 0.622779 0.04 
396 1 1 0.515365 -0.889139 -0.960798 0 0 0 0.0745096 0.0465624 0.143305 -1.86717 -1.0271 36.0457 0.37564 -0.938982 -0.00181416 0.04 
74 1 1 0.59601 -0.887461 -0.957593 0 0 0 -0.0497635 -0.0048118 -0.044196 0 0 -6.57473 0.614443 -4.12957 -2.84515 0.04 
50 1 1 0.676436 -0.884398 -0.960419 0 0 0 -0.149956 -0.112614 -0.0393223 -1.58352 -0.334688 16.026 0.379947 2.72196 0.251153 0.04 
812 1 1 0.881061 -0.879293 -0.960235 0 0 0 0.00883127 -0.0174694 0.0732183 -0.59892 0.098297 5.56393 0.409949 0.0477838 0.488057 0.04 
417 1 1 0.960394 -0.867025 -0.953657 0 0 0 -0.124469 0.0995758 0.348659 -20.3295 -0.257841 -7.55796 -2.2916 -2.96089 0.575974 0.04 
352 1 1 -0.882902 -0.814368 -0.943993 0 0 0 0.127595 0.0944626 -0.41386 0 0 -6.57473 2.7582 -6.27897 2.58067 0.04 
960 1 1 -0.689707 -0.813507 -0.961717 0 0 0 0.0192503 -0.0190793 -0.183923 0.553545 21.6723 81.1759 1.34033 3.16223 0.955182 0.04 
380 1 1 -0.531812 -0.809237 -0.95951 0 0 0 -0.0437953 0.15783 0.00754117 -0.509595 -2.13577 -9.14688 -3.29756 -0.584347 -0.00662696 0.04 
52 1 1 -0.450153 -0.814772 -0.960134 0 0 0 -0.114875 0.0172627 -0.0977502 9.94027 24.3927 -1.40761 -1.45218 -0.210409 -0.392549 0.04 
720 1 1 -0.232496 -0.822154 -0.956425 0 0 0 -0.218323 -0.000607157 0.0872183 -43.6722 27.3582 -50.4823 -2.04522 1.2785 0.380167 0.04 
161 1 1 -0.155348 -0.802142 -0.961475 0 0 0 -0.126522 -0.115468 0.138271 -8.05165 -59.9047 69.2752 2.51808 -2.46876 -3.76372 0.04 
827 1 1 0.00584225 -0.810808 -0.960289 0 0 0 -0.038291 0.058348 -0.111053 -1.4116 -8.23551 11.3055 -2.98785 0.635462 0.110547 0.04 
784 1 1 0.0870699 -0.829656 -0.960208 0 0 0 -0.166252 0.0751028 -0.00492905 -6.558 -9.1709 -4.91384 -2.54292 -0.419833 -3.22979 0.04 
211 1 1 0.166675 -0.830031 -0.960613 0 0 0 -0.0696624 -0.0661593 0.0706919 15.0652 1.54606 26.317 0.51928 -0.371298 1.77411 0.04 
354 1 1 0.30625 -0.807113 -0.960086 0 0 0 -0.0305123 0.0943745 0.0266052 2.52615 0.353725 -3.69653 -2.1118 -1.57383 0.464844 0.04 
229 1 1 0.388166 -0.814909 -0.958963 0 0 0 -0.0806519 0.104337 0.0493702 -1.61211 -4.47556 -10.8327 -1.09107 -0.797132 3.10048 0.04 
866 1 1 0.592744 -0.807497 -0.960339 0 0 0 -0.105064 0.0914102 0.0402453 3.8059 -1.09608 8.59826 -0.757701 0.269685 -1.87251 0.04 
554 1 1 0.814958 -0.831921 -0.960384 0 0 0 -0.136177 0.131659 -0.238871 -21.4492 -14.6865 13.8164 -0.72206 0.747115 -2.53602 0.04 
86 1 1 0.885138 -0.799293 -0.943147 0 0 0 0.000665293 0.14952 -0.0601359 -7.35357 4.97214 4.89817 1.13666 -1.05852 2.37449 0.04 
446 1 1 -0.956062 -0.778614 -0.960487 0 0 0 -0.00725629 -0.0400306 -0.000921249 -0.919889 -0.813506 17.7017 -1.15077 0.366395 1.86258 0.04 
492 1 1 -0.855884 -0.733287 -0.956847 0 0 0 -0.0235543 0.0617024 0.0550543 0 0 -6.57473 -1.3205 -0.542524 -3.25996 0.04 
894 1 1 -0.776515 -0.779527 -0.960195 0 0 0 -0.0156522 0.197533 0.221195 0.128321 -0.379351 1.4346 -2.41892 0.464339 -1.82853 0.04 
290 1 1 -0.60873 -0.785734 -0.960143 0 0 0 0.127831 0.0557679 0.184007 17.0866 12.4867 -33.2765 -1.86891 -0.555614 1.79278 0.04 
241 1 1 -0.477271 -0.73732 -0.960521 0 0 0 0.229548 0.150601 0.00282503 3.72411 2.4444 13.65 -1.19445 0.521274 1.472 0.04 
480 1 1 -0.376329 -0.780694 -0.960525 0 0 0 0.168953 -0.104084 -0.0623664 3.69072 -12.3232 22.5806 -0.94711 0.18108 -2.22179 0.04 
402 1 1 -0.297203 -0.766328 -0.959895 0 0 0 0.0876039 -0.0153208 0.0883504 0 0 -6.57473 -1.19432 0.104071 -2.42598 0.04 
322 1 1 -0.214183 -0.743933 -0.960447 0 0 0 0.00467838 0.00937606 0.00873621 -8.26743 -0.525376 18.0078 -1.05583 -0.726191 -1.17475 0.04 
385 1 1 -0.0740742 -0.799239 -0.960193 0 0 0 0.0275925 0.0281418 0.028054 -4.65921 -3.25227 -1.96246 -1.50424 -0.858987 1.57989 0.04 
1122 1 1 0.0229603 -0.732922 -0.960437 0 0 0 -0.0183796 0.110131 0.0648999 3.51197 6.99563 16.4624 -1.1885 -1.07876 -0.361792 0.04 
773 1 1 0.114186 -0.753333 -0.96003 0 0 0 -0.0104887 0.0855114 0.0816636 0.0108183 -0.0273817 -5.9859 -1.72042 -0.0970714 1.51236 0.04 
725 1 1 0.207733 -0.750385 -0.96056 0 0 0 -0.210075 -0.00925881 0.0287044 3.70485 -17.6099 11.1525 -0.97583 -2.00737 -2.60849 0.04 
159 1 1 0.35188 -0.740726 -0.959816 0 0 0 -0.0219162 0.100172 -0.142638 -10.8498 -5.44574 -6.14823 -2.86761 -1.42492 -0.141221 0.04 
688 1 1 0.468132 -0.781048 -0.960365 0 0 0 0.156706 0.0609236 -0.0841884 -1.0676 -0.0829704 14.8416 -0.933267 -3.74254 -0.157705 0.04 
742 1 1 0.730783 -0.789818 -0.959004 0 0 0 0.422277 -0.0655978 -0.00418684 -22.4039 1.70349 -22.8578 -1.41915 -0.359643 3.46974 0.04 
603 1 1 0.821187 -0.752232 -0.961181 0 0 0 -0.149235 -0.0109769 -0.220214 3.7871 3.87575 61.9146 -0.148504 -0.580071 1.43383 0.04 
972 1 1 0.96021 -0.781102 -0.960371 0 0 0 0.104144 0.228987 0.00270032 15.5666 4.44453 6.64908 -3.33343 -0.975275 -1.95924 0.04 
488 1 1 -0.96009 -0.686979 -0.960271 0 0 0 -0.203023 -0.0511844 0.0113789 8.14759 0.860849 8.61846 -3.34425 -1.24577 -0.158909 0.04 
564 1 1 -0.74583 -0.704729 -0.959346 0 0 0 -0.0845973 0.122991 0.11825 3.15167 -7.06374 -18.1819 -1.73059 -1.38535 0.401776 0.04 
314 1 1 -0.665514 -0.730421 -0.956927 0 0 0 -0.077576 0.0835901 -0.198321 17.5288 45.1825 -55.3633 -3.19488 0.0877761 4.43761 0.04 
783 1 1 -0.61436 -0.667232 -0.958777 0 0 0 0.00767197 -0.0534213 -0.651511 -7.64573 7.89226 -5.9266 -2.31329 3.2666 -0.882052 0.04 
1127 1 1 -0.557932 -0.723504 -0.959735 0 0 0 0.175742 0.0737112 0.0277347 7.64573 -7.89226 -7.22285 -0.460068 1.28915 -0.545335 0.04 
85 1 1 -0.400347 -0.704851 -0.957527 0 0 0 0.340541 -0.0331041 -0.169738 14.8681 -20.0546 -2.39972 -0.516445 -0.0949937 -0.952938 0.04 
511 1 1 -0.287114 -0.685164 -0.960425 0 0 0 -0.0253963 0.0647275 0.0611053 -9.93323 -4.18329 15.6892 0.478233 0.385392 -1.72359 0.04 
376 1 1 -0.13642 -0.726143 -0.959449 0 0 0 0.083297 0.101964 0.0447444 17.235 38.031 -1.39391 0.36995 -1.17942 0.168328 0.04 
204 1 1 -0.0540166 -0.711337 -0.960517 0 0 0 -0.032214 -0.00559222 -0.0292886 5.17561 -8.2396 -10.5051 -1.12658 -0.411429 1.45339 0.04 
1088 1 1 0.123357 -0.670794 -0.960335 0 0 0 0.0317411 0.0840098 0.0721828 -6.92973 33.4485 -34.1492 -0.175197 -0.113199 -0.252035 0.04 
862 1 1 0.203219 -0.671215 -0.960295 0 0 0 -0.0590091 0.17042 0.0475673 1.63451 8.42145 9.09358 -0.249626 -1.10125 -0.820696 0.04 
967 1 1 0.275763 -0.708456 -0.960011 0 0 0 -0.081558 0.101917 -0.0955 3.28564 0.363225 -7.13111 -1.39669 -0.762682 0.938883 0.04 
451 1 1 0.42433 -0.707635 -0.959915 0 0 0 0.14111 -0.01213 0.0709245 10.8498 5.44574 -7.00122 0.0553024 -1.09198 0.480381 0.04 
177 1 1 0.505111 -0.693101 -0.960743 0 0 0 0.00182212 0.00259377 -0.0709141 0.624437 -15.1724 36.3086 -1.86336 -1.47112 -0.554927 0.04 
757 1 1 0.583163 -0.72718 -0.950232 0 0 0 0.00293745 0.0906756 -0.230952 0 0 -6.57473 3.5958 -0.739313 1.90549 0.04 
519 1 1 0.669238 -0.730009 -0.959772 0 0 0 0.0491494 0.0825445 0.0875271 -15.2763 -33.9093 -38.0475 -3.38927 1.80403 1.8005 0.04 
439 1 1 0.748589 -0.712961 -0.960354 0 0 0 -0.1115 0.0331651 0.00455095 12.4789 33.1821 11.9955 0.487872 3.02446 -1.23685 0.04 
662 1 1 0.818399 -0.668168 -0.959148 0 0 0 0.0375253 0.0616271 -0.297219 -5.04085 -2.58002 -6.21654 -0.700309 2.64053 -1.75535 0.04 
188 1 1 0.896824 -0.72102 -0.960227 0 0 0 -0.0878445 0.0717683 -0.0710345 -3.98444 -2.77608 7.26919 -2.41887 -1.724 0.476329 0.04 
987 1 1 0.959826 -0.671965 -0.960001 0 0 0 -0.0645446 0.0556727 -0.104132 5.9488 10.1485 -13.5436 -4.52305 1.23089 -1.98637 0.04 
532 1 1 -0.886025 -0.654044 -0.958296 0 0 0 -0.0560068 0.105909 -0.248922 -15.6344 -37.1641 -26.0294 -1.01945 -2.88058 3.32287 0.04 
826 1 1 -0.803206 -0.647354 -0.96167 0 0 0 -0.373217 -0.0616178 -0.0628762 4.30029 1.88091 87.2982 -2.72122 0.290502 -3.87792 0.04 
567 1 1 -0.698446 -0.639308 -0.957511 0 0 0 0.0984464 -0.0135252 -0.0431949 0 0 -6.57473 -2.87149 0.0623161 -3.67315 0.04 
170 1 1 -0.521861 -0.644316 -0.958395 0 0 0 -0.0995617 0.205967 0.0533644 7.77735 6.02735 -20.8257 -0.387763 1.6861 -3.42618 0.04 
375 1 1 -0.441784 -0.637762 -0.960505 0 0 0 0.224463 0.0957024 -0.0604842 -31.0191 20.6688 -0.504193 -0.967472 3.28154 0.163744 0.04 
709 1 1 -0.351923 -0.634488 -0.959959 0 0 0 0.0630047 -0.0303258 -0.10893 0 0 -6.57473 -0.834952 2.16064 -0.355732 0.04 
873 1 1 -0.210311 -0.663935 -0.95953 0 0 0 0.0742053 0.0293138 -0.0585637 10.3797 3.13078 -5.97299 -2.22951 0.514776 0.897745 0.04 
738 1 1 -0.124993 -0.647536 -0.959881 0 0 0 -0.0354961 0.12614 0.0761563 3.91364 20.3772 -7.12102 -1.05474 -2.637 0.754611 0.04 
1046 1 1 -0.034451 -0.633993 -0.960503 0 0 0 -0.197599 -0.0408391 0.115653 1.79238 12.4073 14.3908 -1.35734 -0.139816 2.81818 0.04 
581 1 1 0.0428895 -0.654542 -0.96 0 0 0 0.0249429 0.0376185 -0.0648608 -1.66711 -2.85008 -7.0168 -1.86218 -1.64521 -0.991086 0.04 
1052 1 1 0.266022 -0.622058 -0.960163 0 0 0 -0.0658209 0.19991 0.104432 4.52179 6.51744 -4.19862 -2.52618 -1.64372 2.39027 0.04 
656 1 1 0.340671 -0.658513 -0.960345 0 0 0 -0.19471 0.146246 0.0419742 -3.28068 4.42305 0.869403 -3.29774 -3.08059 0.405517 0.04 
1082 1 1 0.415892 -0.627544 -0.960085 0 0 0 -0.0426775 0.0999726 -0.0871126 -5.31269 -13.2525 -27.2046 1.10601 -0.179276 -0.617658 0.04 
255 1 1 0.494903 -0.61426 -0.959405 0 0 0 -0.0440323 0.158672 0.0220934 -9.40304 -1.20928 -17.9971 -1.7055 0.252104 0.810919 0.04 
1026 1 1 0.573348 -0.601205 -0.960739 0 0 0 -0.176945 -0.0348369 0.159972 21.4217 7.15532 28.6957 -0.395193 -2.06688 -0.139022 0.04 
880 1 1 0.627945 -0.661056 -0.960422 0 0 0 -0.145192 0.093557 0.0735092 1.09711 -0.261388 15.9816 -1.22448 1.08121 0.19019 0.04 
543 1 1 0.746152 -0.633201 -0.95965 0 0 0 0.130802 0.27698 0.0563953 -0.431926 5.57363 -6.42743 2.54268 0.992034 -0.0480623 0.04 
553 1 1 0.889008 -0.630879 -0.960336 0 0 0 -0.101294 0.196265 0.00296482 5.61129 1.83887 11.7723 -2.34169 -0.595649 3.55532 0.04 
260 1 1 -0.959923 -0.593711 -0.960073 0 0 0 0.0216792 0.0471287 -0.0383203 0.18689 -4.42458 -8.03218 -2.23445 -0.404187 0.277179 0.04 
990 1 1 -0.881785 -0.575113 -0.959979 0 0 0 0.0620795 -0.0323819 0.0404764 0.900573 35.4324 -8.79276 0.0146635 -1.04586 -0.904672 0.04 
1152 1 1 -0.749724 -0.576485 -0.9591 0 0 0 -0.0938438 -0.13385 0.0623871 0 0 -6.57473 1.10921 0.423225 -0.0844787 0.04 
925 1 1 -0.627786 -0.58752 -0.960567 0 0 0 -0.0045188 0.0783908 -0.280573 -26.4285 -65.336 -38.8206 -1.80964 1.63526 0.72889 0.04 
893 1 1 -0.550948 -0.567723 -0.959877 0 0 0 -0.0328433 0.117223 -0.0313499 23.1286 6.53409 -7.43009 -0.348123 0.0462281 4.48824 0.04 
1103 1 1 -0.468958 -0.565587 -0.939602 0 0 0 0.00832292 0.151382 -0.261555 -0.91771 2.71139 -5.68064 0.973316 -3.01026 -0.383393 0.04 
1448 1 1 -0.385422 -0.55738 -0.958628 0 0 0 0.201241 -0.0304288 0.0393868 -3.93375 -19.4805 -6.28691 -2.0841 2.10313 0.565908 0.04 
631 1 1 -0.277788 -0.596084 -0.958379 0 0 0 -0.160412 0.0299993 -0.125025 -21.5765 -1.342 -18.6486 -2.63253 -0.722748 3.22945 0.04 
962 1 1 -0.1554 -0.544478 -0.960662 0 0 0 0.0416957 0.239546 -0.116246 16.396 10.369 11.2964 -2.94015 -1.16984 -0.948587 0.04 
950 1 1 -0.0784775 -0.565297 -0.960228 0 0 0 -0.0625183 0.052304 -0.0107118 11.4032 -2.82391 5.14098 -1.63581 -0.361239 -3.02811 0.04 
716 1 1 0.00924074 -0.566018 -0.960793 0 0 0 -0.114726 0.014762 0.00188591 8.46842 -10.7777 37.2737 2.62544 1.71627 -1.30926 0.04 
388 1 1 0.0898575 -0.589938 -0.959776 0 0 0 0.155759 0.0832943 0.0331116 9.94993 -4.15831 -61.0954 0.234001 -0.4907 1.31735 0.04 
61 1 1 0.169013 -0.599177 -0.95982 0 0 0 0.0152826 0.0563182 0.0476515 7.7368 8.38416 -6.96703 -0.410595 0.216022 0.788426 0.04 
576 1 1 0.321634 -0.563469 -0.960585 0 0 0 0.010031 0.0237716 0.0868509 12.0762 -2.85402 13.6288 -1.04944 -0.838208 -1.42918 0.04 
408 1 1 0.402969 -0.549192 -0.96018 0 0 0 -0.00514544 0.135248 0.105762 -3.54945 20.7047 1.01535 -0.309296 0.431102 0.0832106 0.04 
814 1 1 0.486632 -0.534899 -0.959696 0 0 0 -0.403241 0.139497 0.00434143 -0.439472 7.51008 -6.75939 -1.9147 -5.70859 0.189743 0.04 
1111 1 1 0.67003 -0.588662 -0.960015 0 0 0 0.106397 0.0330302 0.000179573 -0.0373025 -0.0171421 -5.75367 0.577244 -0.392939 -1.16119 0.04 
1138 1 1 0.741814 -0.552676 -0.961161 0 0 0 -0.107617 0.105521 -0.0207098 -0.546389 2.29238 50.5098 -1.748 -1.69328 2.87096 0.04 
58 1 1 0.81442 -0.586261 -0.96068 0 0 0 -0.162322 0.121472 -0.0010391 -7.77027 2.72349 12.6798 -0.210869 -0.187289 -1.10037 0.04 
1107 1 1 0.886721 -0.550255 -0.961099 0 0 0 0.0802664 -0.194854 0.0853436 -0.262459 2.99621 53.5789 -1.44995 1.47523 1.44568 0.04 
252 1 1 0.960274 -0.591743 -0.960748 0 0 0 0.00767411 0.171394 -0.0220901 -14.4639 -5.29191 31.432 -1.51251 0.600082 -0.669092 0.04 
670 1 1 -0.956967 -0.501916 -0.960602 0 0 0 0.0470075 0.13598 0.0937811 -1.21665 -1.0623 25.7283 -2.5161 0.141587 1.03166 0.04 
565 1 1 -0.815002 -0.529493 -0.961083 0 0 0 0.0201727 0.140444 -0.184391 -2.53562 -4.76147 27.1875 -0.957488 -0.32602 0.116553 0.04 
1113 1 1 -0.683006 -0.530656 -0.961371 0 0 0 -0.0599198 -0.0375473 -0.423438 -17.2065 21.3284 76.3771 1.62333 -0.649766 3.23442 0.04 
435 1 1 -0.601373 -0.50406 -0.960819 0 0 0 -0.204417 0.0790673 0.0395269 -1.18625 -0.888108 35.1703 -0.750505 -1.42824 -1.20409 0.04 
816 1 1 -0.484989 -0.489406 -0.960526 0 0 0 0.0600197 -0.110825 -0.106868 -11.2712 -10.0446 9.67563 -2.1639 0.960388 0.46687 0.04 
344 1 1 -0.40487 -0.480219 -0.960079 0 0 0 0.159297 0.138051 -0.108269 3.64887 10.9919 -21.8113 0.152779 1.54092 1.63131 0.04 
489 1 1 -0.32477 -0.505672 -0.960345 0 0 0 0.204703 0.0420084 -0.0893597 6.74393 6.03679 13.2393 -0.571261 1.12817 -0.283185 0.04 
883 1 1 -0.236352 -0.527604 -0.960292 0 0 0 -0.0966377 0.16162 0.0440014 -2.79167 23.8472 -21.1998 -2.56735 -2.02431 0.848207 0.04 
305 1 1 -0.18006 -0.468753 -0.959985 0 0 0 -0.232057 0.0221252 -0.128902 -0.443141 13.5091 -16.1559 -1.3831 -0.285055 -0.397734 0.04 
1066 1 1 -0.0334747 -0.498697 -0.961012 0 0 0 0.0740372 -0.127786 0.135712 -6.48947 22.1108 32.3305 1.21498 1.63173 1.52742 0.04 
143 1 1 0.0733261 -0.511445 -0.96058 0 0 0 -0.247603 -0.016611 0.0298049 13.8027 -16.363 25.4671 0.768813 1.321 1.25601 0.04 
1346 1 1 0.153971 -0.466652 -0.959118 0 0 0 0.036201 0.0984034 0.0937572 3.13055 -11.9624 -17.6748 -1.59133 2.32052 0.772866 0.04 
867 1 1 0.206115 -0.527523 -0.960125 0 0 0 0.0611591 -0.0925053 -0.0509342 -14.2561 -6.02347 1.65349 -2.50168 1.52061 -0.001514 0.04 
1000 1 1 0.277689 -0.492712 -0.960056 0 0 0 -0.101222 0.0690696 0.0471369 16.1647 4.49367 -4.61882 -1.69878 -0.723776 1.58783 0.04 
792 1 1 0.356476 -0.475698 -0.960057 0 0 0 0.101092 0.0409585 -0.027855 13.0128 -19.6513 -4.22299 -1.76971 0.800687 0.13431 0.04 
1361 1 1 0.436168 -0.469548 -0.959166 0 0 0 0.0085959 0.177924 -0.0924115 3.04318 0.108378 -6.45559 -4.69598 -3.34779 -2.01301 0.04 
1288 1 1 0.590173 -0.5228 -0.960122 0 0 0 -0.225942 -0.0102038 -0.058679 0.376605 0.0129858 0.961858 0.102551 -1.22195 1.1391 0.04 
908 1 1 0.668095 -0.501743 -0.959916 0 0 0 -0.223031 0.0563531 -0.155029 -13.8606 -19.069 -20.7471 -1.30022 -0.622554 1.44414 0.04 
1309 1 1 0.807033 -0.50139 -0.960752 0 0 0 0.0234106 0.0459588 0.138547 -1.67607 1.10327 33.5571 -1.72549 -0.266127 3.53384 0.04 
771 1 1 0.95838 -0.511763 -0.960278 0 0 0 -0.135798 0.0884372 -0.0034004 0.775225 0.0201829 8.93502 -2.34313 1.37562 -2.28306 0.04 
1055 1 1 -0.959798 -0.406608 -0.960485 0 0 0 -0.0185409 0.0156019 0.0385668 -18.0316 -1.52858 -2.41327 -0.600365 0.740231 1.24643 0.04 
739 1 1 -0.891046 -0.44644 -0.960583 0 0 0 -0.0460952 0.107503 -0.0908085 14.5135 -15.4628 20.3374 -1.50662 -0.069805 -3.2392 0.04 
1142 1 1 -0.820463 -0.409054 -0.960168 0 0 0 0.040843 0.111036 -0.0980063 2.96663 8.93849 -2.73713 -0.0496652 0.217947 -0.788262 0.04 
644 1 1 -0.758451 -0.46538 -0.960362 0 0 0 0.0499225 -0.159286 -0.0441302 -0.507056 0.905496 14.1813 0.76778 -0.556311 -1.32146 0.04 
833 1 1 -0.668606 -0.451544 -0.958727 0 0 0 -0.0647498 0.143769 0.210734 4.87414 1.54449 -26.2685 0.442211 0.798478 -1.42469 0.04 
620 1 1 -0.546326 -0.434506 -0.959676 0 0 0 0.0196903 0.176362 -0.288624 0 0 -6.57473 -1.47674 0.620929 0.382396 0.04 
1316 1 1 -0.468801 -0.411433 -0.961911 0 0 0 0.132253 -0.0223111 -0.137608 0.909963 -13.4273 101.828 -0.550444 2.31415 1.3531 0.04 
247 1 1 -0.334183 -0.412608 -0.960647 0 0 0 0.109197 0.0775264 0.102809 23.4992 5.19143 1.06155 -1.67173 0.247168 3.91289 0.04 
382 1 1 -0.261413 -0.449979 -0.958769 0 0 0 0.156745 0.163981 -0.0920271 7.61926 -2.70192 -19.0765 -1.81414 1.02957 3.39571 0.04 
1271 1 1 -0.0960274 -0.424461 -0.960823 0 0 0 0.0843694 -0.0633852 -0.0822782 -4.4534 1.81718 11.6262 -1.95963 -0.354142 -0.944704 0.04 
1249 1 1 0.0288408 -0.445582 -0.960384 0 0 0 0.104771 0.0293011 0.154253 -16.402 3.16159 -4.46552 0.353026 0.840448 -1.12882 0.04 
1030 1 1 0.102431 -0.405702 -0.959986 0 0 0 0.0883686 0.0634561 -0.0867188 7.78208 -7.76733 -6.13063 -0.715008 1.4603 -0.504425 0.04 
1148 1 1 0.225671 -0.432007 -0.960675 0 0 0 0.0305458 0.0741605 -0.010603 13.3018 -20.4722 3.15911 -2.29419 1.10047 -1.8234 0.04 
772 1 1 0.30392 -0.416295 -0.959653 0 0 0 0.118876 0.0058388 -0.179096 1.07644 5.51012 -4.16406 -1.01315 -0.824398 -1.2309 0.04 
845 1 1 0.38978 -0.400976 -0.960589 0 0 0 0.0111505 0.117945 -0.0928176 -11.2574 -12.3578 5.84737 -3.47409 0.773535 -0.00922569 0.04 
1047 1 1 0.617081 -0.440725 -0.957636 0 0 0 -0.164583 0.151873 -0.364551 14.0949 -9.92554 -9.42782 2.77838 2.01816 -2.78277 0.04 
1474 1 1 0.695631 -0.419233 -0.960259 0 0 0 -0.079063 0.0899652 0.0744105 -5.60348 9.18533 1.06487 -1.55022 -1.4472 -0.421518 0.04 
840 1 1 0.781455 -0.418952 -0.959763 0 0 0 0.104122 0.181735 0.00110601 0 0 -6.57473 -0.47324 1.28732 0.783632 0.04 
9 1 1 0.881445 -0.464367 -0.959892 0 0 0 -0.0399407 0.174048 -0.013447 0 0 -6.57473 -0.172398 1.04599 -0.306356 0.04 
852 1 1 0.959577 -0.431176 -0.960072 0 0 0 0.0813269 0.0332238 -0.0367802 -0.201687 0.0966014 -2.10217 -2.6824 -1.82973 2.44872 0.04 
326 1 1 -0.890242 -0.366745 -0.959911 0 0 0 -0.0426757 0.124706 0.0055815 0.364074 10.8138 -6.96022 -0.98521 0.507258 0.449079 0.04 
1246 1 1 -0.746156 -0.371926 -0.960214 0 0 0 -0.0397999 0.0450268 -0.0782139 0.194943 0.617701 6.37992 -1.65395 -0.831323 -0.28646 0.04 
613 1 1 -0.617875 -0.387781 -0.959657 0 0 0 -0.187106 -0.0572916 -0.0608267 6.90435 4.29041 -15.4013 -2.01823 -0.286513 1.11076 0.04 
857 1 1 -0.523452 -0.353856 -0.960661 0 0 0 -0.0867546 0.0667388 0.0777425 4.79941 1.7563 9.14549 0.836921 0.70275 -0.407323 0.04 
92 1 1 -0.407231 -0.360959 -0.960636 0 0 0 -0.128138 0.153536 -0.0603759 7.73726 -10.7011 29.7854 -0.101214 -1.56329 -0.543007 0.04 
1124 1 1 -0.266458 -0.368242 -0.959312 0 0 0 -0.128961 0.0259904 -0.0684722 0.600207 -5.23315 -6.45593 -1.18372 -0.262489 -2.80068 0.04 
868 1 1 -0.188112 -0.389111 -0.960613 0 0 0 -0.0865271 0.110881 0.127707 1.1331 -23.7158 24.8009 -1.79407 -2.70036 0.234366 0.04 
1010 1 1 -0.110593 -0.345502 -0.960342 0 0 0 -0.148517 0.101238 0.0593814 -5.83232 2.99277 -3.42856 -0.148762 -0.43472 -0.229056 0.04 
1223 1 1 -0.0261737 -0.386707 -0.958744 0 0 0 0.0331723 0.117067 -0.0641704 12.9779 1.45402 -6.22538 1.33221 0.681271 1.1697 0.04 
144 1 1 0.0450568 -0.350657 -0.96029 0 0 0 -0.0612213 -0.0528031 -0.0544393 -1.42926 -8.62194 1.43758 0.886619 -1.06671 2.50616 0.04 
315 1 1 0.175955 -0.36972 -0.960134 0 0 0 0.121007 0.0530031 -0.15827 -7.13922 -23.405 -34.9174 -0.944542 0.863623 2.00721 0.04 
1187 1 1 0.255669 -0.353133 -0.959912 0 0 0 0.08864 -0.0143373 -0.0315667 -11.2386 15.2416 -7.52701 -1.38393 -0.026463 -0.0861085 0.04 
677 1 1 0.470649 -0.395983 -0.960352 0 0 0 -0.042818 0.0351331 0.104821 -17.0865 0.568083 12.6003 -1.45417 1.82684 0.785234 0.04 
981 1 1 0.550116 -0.398656 -0.960477 0 0 0 -0.0550202 -0.0523879 0.298639 -9.08441 18.4438 12.5575 2.12682 -1.23042 -1.68726 0.04 
361 1 1 0.633963 -0.360522 -0.960619 0 0 0 0.130221 -0.0467762 0.10732 -6.43713 -11.3337 7.54484 -1.78028 0.800965 3.62742 0.04 
499 1 1 0.79035 -0.338326 -0.960636 0 0 0 -0.0463741 0.22992 0.081149 -3.34401 -3.58449 25.6482 -1.78383 -0.0148984 -0.537503 0.04 
398 1 1 0.861505 -0.384228 -0.959369 0 0 0 0.0765705 -0.011974 -0.135932 -10.3556 3.37296 -19.9179 -2.79775 -0.426778 0.734599 0.04 
975 1 1 0.951174 -0.350443 -0.960259 0 0 0 0.274094 0.130198 0.00229184 -3.45454 -14.6004 -3.60712 -2.2371 3.23233 1.40239 0.04 
982 1 1 -0.960103 -0.32568 -0.959617 0 0 0 0.0302113 0.0657444 -0.0163504 5.13006 -3.06742 -7.02477 -0.395233 0.135601 0.813787 0.04 
995 1 1 -0.890013 -0.286504 -0.959699 0 0 0 -0.132154 0.0773092 -0.085009 -2.18984 4.57759 -14.3322 0.993128 -0.555943 0.71948 0.04 
1215 1 1 -0.820155 -0.32731 -0.960278 0 0 0 0.0413236 0.0301032 0.0496034 -0.474463 -0.570221 8.26127 0.435577 0.0459329 2.064 0.04 
76 1 1 -0.75333 -0.282707 -0.960111 0 0 0 0.0743626 0.0763562 0.0221729 -9.27405 -28.8587 -3.53811 -1.15786 -1.24889 1.19257 0.04 
969 1 1 -0.668024 -0.325014 -0.960399 0 0 0 -0.0400566 -0.0399889 -0.0743265 0.119101 1.49131 -15.271 -0.609432 -0.389768 0.830779 0.04 
230 1 1 -0.589819 -0.310475 -0.959943 0 0 0 -0.0558936 0.088113 0.0915824 -5.56521 16.8924 -5.6445 1.5051 0.0360542 0.126603 0.04 
116 1 1 -0.461883 -0.302878 -0.960243 0 0 0 -0.241223 0.0373961 -0.023338 -18.7022 -3.96106 2.646 -0.426366 -1.16818 1.61125 0.04 
978 1 1 -0.348701 -0.30705 -0.960396 0 0 0 0.0242798 0.0796834 -0.060532 -12.5117 -2.21604 12.0658 -1.96437 -0.658966 -0.775846 0.04 
1155 1 1 -0.271699 -0.288552 -0.960161 0 0 0 0.141284 -0.00448 -0.102608 -1.58631 20.6842 3.93292 -0.749665 -0.0533155 0.402922 0.04 
1214 1 1 -0.195388 -0.310062 -0.960264 0 0 0 -0.0586012 0.166033 -0.19972 16.1367 -6.19118 -10.6715 -1.307 1.15843 -2.65499 0.04 
1451 1 1 -0.123392 -0.264703 -0.959924 0 0 0 -0.156174 0.26305 -0.0522848 14.4785 -0.900537 -24.0926 -0.33708 -0.222262 -0.0393656 0.04 
201 1 1 -0.0347754 -0.307251 -0.959855 0 0 0 -0.0434984 -0.0925038 -0.0340973 6.99355 3.83578 -15.6342 0.13387 -0.583553 -1.01062 0.04 
1062 1 1 0.0399837 -0.27173 -0.959998 0 0 0 -0.132623 0.198485 -0.0239517 -3.59106 31.3444 -6.3712 0.876747 -2.21042 0.266508 0.04 
404 1 1 0.127983 -0.305659 -0.960049 0 0 0 -0.204552 -0.0623127 0.240718 1.04488 -3.6043 -17.3871 0.546636 -2.3498 -0.838322 0.04 
1216 1 1 0.209638 -0.28669 -0.960214 0 0 0 0.00708726 -0.0150186 -0.127064 -2.85232 -12.9179 -10.9272 -0.379026 0.499715 1.5804 0.04 
780 1 1 0.289442 -0.273438 -0.95989 0 0 0 -0.25883 0.0325577 0.0576167 0 0 -6.57473 1.14202 -1.22389 -2.95569 0.04 
220 1 1 0.354747 -0.328947 -0.960043 0 0 0 -0.0271853 0.103717 0.0191564 0.0135478 -0.107 -4.41765 -1.41037 -0.530098 -0.436795 0.04 
624 1 1 0.433845 -0.294654 -0.960164 0 0 0 0.101781 -0.134522 0.00902894 14.9606 0.233005 -24.2279 -0.272448 -2.11757 -1.51124 0.04 
309 1 1 0.508742 -0.324236 -0.957647 0 0 0 -0.0955978 0.056284 -0.379543 0 0 -6.57473 0.571115 2.21792 3.18315 0.04 
1074 1 1 0.579891 -0.284753 -0.960242 0 0 0 -0.0259855 0.124962 -0.000583339 14.757 -32.0287 -60.605 1.91951 -0.466647 0.998738 0.04 
342 1 1 0.658854 -0.269357 -0.959679 0 0 0 -0.203881 -0.0482415 -0.0400703 -11.6755 1.3217 -7.17813 2.15512 1.3536 -1.10874 0.04 
764 1 1 0.710702 -0.329881 -0.959427 0 0 0 -0.129376 -0.239116 0.169291 6.48305 -7.27724 -6.99285 0.213336 -0.810569 2.50987 0.04 
182 1 1 0.852361 -0.287973 -0.960376 0 0 0 0.140662 0.116703 -0.156678 4.74661 -13.6524 -15.5168 -0.862566 0.995277 -1.9865 0.04 
657 1 1 -0.960311 -0.245784 -0.960415 0 0 0 -0.189236 0.130661 0.0626516 21.1117 -2.26654 8.80456 -0.638948 -0.968999 -0.346681 0.04 
1056 1 1 -0.890983 -0.203831 -0.96023 0 0 0 -0.0797175 -0.132688 -0.0910859 -1.34505 1.11656 6.87469 0.000274992 0.812084 -0.440831 0.04 
1279 1 1 -0.822154 -0.243719 -0.953666 0 0 0 -0.167536 -0.231859 -0.190439 -13.5244 9.14886 -3.56568 -2.66459 0.362238 0.0879282 0.04 
471 1 1 -0.749885 -0.20195 -0.959832 0 0 0 0.0900411 -0.0355602 0.226665 -12.691 7.94552 -29.2887 1.30206 2.16026 2.21438 0.04 
905 1 1 -0.682962 -0.246602 -0.958608 0 0 0 0.0902018 0.0557343 0.0779775 26.1801 11.181 -5.98797 0.748093 -0.692539 -1.26125 0.04 
1286 1 1 -0.601018 -0.230969 -0.960631 0 0 0 -0.109143 -0.0199537 -0.00122124 -20.6532 -2.97336 22.3489 0.872236 0.470966 -0.502461 0.04 
1037 1 1 -0.52494 -0.253314 -0.959832 0 0 0 -0.0468219 -0.10028 0.0297844 10.3632 -7.20275 -24.7211 -0.12725 -1.02691 -1.60885 0.04 
1205 1 1 -0.403351 -0.249057 -0.9606 0 0 0 -0.0817911 -0.0676772 0.118315 17.2839 12.0945 23.7874 1.50308 -0.863117 0.570486 0.04 
710 1 1 -0.325725 -0.224161 -0.960358 0 0 0 -0.0800209 0.013742 0.0637036 -5.72137 -5.64915 12.0189 -0.862672 -0.855226 -0.307066 0.04 
168 1 1 -0.214815 -0.232373 -0.960342 0 0 0 0.0650638 -0.0188784 0.139214 12.9617 -11.9518 9.43086 -1.40116 -0.0358759 0.422235 0.04 
1301 1 1 0.0918936 -0.209888 -0.960297 0 0 0 -0.151175 -0.0193286 0.000251293 -2.48917 3.80038 5.11002 0.340726 -2.18158 0.0376446 0.04 