ITEM: TIMESTEP
95600
ITEM: NUMBER OF ATOMS
1500
ITEM: BOX BOUNDS ff ff ff
-1 1
-1 1
-1 1
ITEM: ATOMS id type type x y z ix iy iz vx vy vz fx fy fz omegax omegay omegaz radius 
137 1 1 -0.96011 -0.960152 -0.960202 0 0 0 -2.02082e-05 -1.10634e-05 3.3293e-05 0.00837065 -0.00901688 -0.00216324 0.00082483 -0.000887665 -1.4693e-06 0.04 
5 1 1 -0.830892 -0.960168 -0.960266 0 0 0 -6.92962e-06 -8.49353e-06 2.2044e-05 0.00165225 -0.000900101 -0.00101371 0.000639203 0.000148284 6.07727e-05 0.04 
239 1 1 -0.750973 -0.96014 -0.960254 0 0 0 1.90819e-05 -1.92019e-05 1.97584e-05 -0.00117508 -0.00203475 -0.00629599 0.000883907 7.42138e-05 -0.000263257 0.04 
34 1 1 -0.671017 -0.960043 -0.960246 0 0 0 9.64024e-06 3.03315e-05 2.3688e-05 -0.00126013 0.000885374 -0.0114092 -0.000499775 0.000302723 0.000681638 0.04 
415 1 1 -0.591068 -0.960062 -0.96029 0 0 0 1.5256e-05 2.56316e-05 3.91745e-05 -0.00124774 0.00062122 -0.00650991 0.000230625 1.68811e-05 -0.000735891 0.04 
138 1 1 -0.510834 -0.960067 -0.96024 0 0 0 -1.4605e-05 9.4212e-06 1.75736e-07 0.0010672 -0.00267974 -0.00471924 -0.000109548 -0.000569414 -0.000600375 0.04 
323 1 1 -0.430289 -0.959876 -0.960154 0 0 0 -0.00010927 -6.64102e-05 -4.84429e-05 0.0097596 -0.00982273 0.00949653 0.00267225 -0.00219159 -0.00809548 0.04 
130 1 1 -0.350316 -0.960037 -0.960253 0 0 0 -0.000114563 -7.76719e-05 2.11484e-05 0.00181006 -0.0125046 0.00984544 0.000608497 -0.000932802 0.00426962 0.04 
502 1 1 -0.270344 -0.960117 -0.9603 0 0 0 -4.64729e-05 7.46986e-05 9.13227e-05 0.00308461 0.0059014 -0.00290292 -0.000116532 -0.00146288 0.0020864 0.04 
494 1 1 -0.1743 -0.960162 -0.960228 0 0 0 -1.8352e-05 -5.52557e-05 -9.02857e-06 0.0063474 0.0046424 -0.00570283 -0.0004312 0.00353408 -0.000826245 0.04 
448 1 1 -0.0943158 -0.960145 -0.960265 0 0 0 -3.98634e-05 -0.000167676 -0.000197661 -9.95758e-05 -0.000271722 0.00253673 0.000589767 0.000808325 -0.000418833 0.04 
147 1 1 -0.0144647 -0.96016 -0.960215 0 0 0 -0.000106119 -0.000131895 -8.13119e-05 -0.00260689 -0.0030227 0.00225831 0.0013703 -0.00297827 0.00148511 0.04 
218 1 1 0.0655313 -0.960172 -0.960209 0 0 0 -0.000130897 -9.80349e-05 -6.63779e-05 -0.011284 0.00573142 0.00281629 0.00251608 -0.0034464 0.00376871 0.04 
339 1 1 0.145757 -0.960146 -0.960215 0 0 0 -0.000108258 2.39838e-07 -9.57038e-05 -0.00434799 0.00180129 0.0173365 -0.00142255 -0.00237457 0.00185256 0.04 
81 1 1 0.225733 -0.960094 -0.960178 0 0 0 -6.11567e-05 9.11553e-06 3.62904e-05 0.0070312 -0.0101791 0.0374691 -0.000308007 -0.00217951 -0.000495145 0.04 
341 1 1 0.305651 -0.96007 -0.960157 0 0 0 3.10417e-05 3.39979e-05 -3.90071e-05 0.0180351 0.0118226 0.00623755 -0.000226139 0.00306311 0.00052727 0.04 
203 1 1 0.385622 -0.960082 -0.960219 0 0 0 4.17446e-05 0.000131356 -5.48427e-05 0.0192322 0.00139712 0.00385358 -0.00230288 0.000927759 -0.000557934 0.04 
1019 1 1 0.473737 -0.960015 -0.96021 0 0 0 7.42594e-05 -6.3799e-05 6.15332e-05 -0.00646801 0.00485772 -0.00921905 0.00254265 0.00102332 0.001151 0.04 
821 1 1 0.55372 -0.960025 -0.960231 0 0 0 8.70518e-07 -1.44317e-05 -7.40608e-05 0.00353138 0.00813553 -0.00688489 -0.000226716 -4.73525e-05 0.00101384 0.04 
636 1 1 0.633692 -0.960457 -0.9602 0 0 0 -7.01349e-05 -5.55648e-05 8.83162e-05 0.0027788 0.00734581 -0.00332513 0.000353873 -0.0021506 0.00124515 0.04 
729 1 1 0.720239 -0.960012 -0.96016 0 0 0 -1.40771e-05 3.73397e-05 0.000111235 0.00495142 -0.000210871 -0.00965176 0.00108404 0.000740465 0.000784088 0.04 
503 1 1 0.800202 -0.960037 -0.960137 0 0 0 2.94279e-05 3.442e-05 -7.8403e-06 0.00215381 -0.00638932 0.00425274 -0.000696514 0.000985861 -0.00121084 0.04 
424 1 1 0.880173 -0.960039 -0.960161 0 0 0 -1.39229e-06 -2.26254e-06 1.17215e-05 0.00341757 -0.00188969 0.00502657 0.000186801 -0.000334581 0.000349397 0.04 
850 1 1 0.9601 -0.958945 -0.960223 0 0 0 2.21932e-05 1.94368e-05 9.77747e-06 -0.00212777 0.00148029 0.000569139 -0.000601048 0.000616387 -0.00032083 0.04 
778 1 1 -0.959929 -0.880401 -0.960216 0 0 0 5.92951e-05 2.16733e-06 3.61581e-05 -0.000136472 -0.00701042 0.00605953 -0.0012192 0.00203978 -0.00156884 0.04 
918 1 1 -0.880186 -0.897208 -0.960225 0 0 0 8.51288e-06 -1.20271e-05 3.90436e-05 -0.00454709 0.00117538 -0.000142703 3.59796e-05 -0.00105411 -0.00160204 0.04 
246 1 1 -0.791826 -0.890616 -0.960152 0 0 0 2.82455e-05 2.68272e-05 4.29856e-05 0.00373079 -0.0041017 -0.00426961 -0.000356501 0.000360734 -0.000428991 0.04 
586 1 1 -0.711861 -0.890536 -0.960297 0 0 0 2.33908e-05 4.7348e-05 -9.90579e-06 -0.00279281 -0.0037701 0.00238382 -0.00132421 0.000224731 0.000860333 0.04 
379 1 1 -0.630911 -0.89072 -0.96019 0 0 0 3.32834e-05 4.3932e-05 4.76292e-05 -0.00377967 -0.00203252 -0.0146318 -0.000668425 0.00050019 0.000451048 0.04 
105 1 1 -0.550905 -0.890946 -0.960215 0 0 0 3.33668e-05 1.23122e-05 2.86012e-05 0.00432932 0.00475764 -0.00577651 1.18267e-05 0.001663 0.000400623 0.04 
289 1 1 -0.471002 -0.890714 -0.960251 0 0 0 -4.2369e-06 4.37063e-05 -6.77098e-05 -0.00500338 -0.00425566 0.00116169 -0.00135479 0.000150856 0.000430519 0.04 
345 1 1 -0.389747 -0.870842 -0.960118 0 0 0 0.00367123 0.00265486 0.000110518 -3.58213e-06 -1.46616e-06 0.00330458 -0.0664687 0.0919146 0.123384 0.04 
209 1 1 -0.310219 -0.890863 -0.960159 0 0 0 -0.000104098 -5.1451e-05 9.96151e-05 -0.0116181 0.0203384 -0.0169692 0.00251342 -0.000944841 6.61582e-05 0.04 
647 1 1 -0.222237 -0.896271 -0.960223 0 0 0 1.86031e-05 -4.56616e-06 0.000103534 0.0115781 0.00226439 -0.00837132 0.000810809 0.00148908 -0.00219008 0.04 
700 1 1 -0.134299 -0.89109 -0.960195 0 0 0 -1.23731e-05 -0.000196741 -2.61822e-05 -0.00420849 0.0164764 -0.00058112 0.00375898 0.000938761 -0.000330948 0.04 
616 1 1 -0.0544213 -0.890852 -0.960232 0 0 0 -0.000105672 -0.000180013 9.03808e-08 -0.0110338 0.00926336 -0.00504357 0.00554281 -0.00172622 0.00201753 0.04 
87 1 1 0.0254607 -0.891075 -0.960204 0 0 0 -0.000174012 -0.00012521 4.00747e-05 -0.0360189 -0.00427034 0.00773665 0.00221344 -0.00149265 -0.00126386 0.04 
655 1 1 0.105573 -0.891078 -0.960219 0 0 0 -0.000184517 -5.03711e-05 -0.000141379 -0.0159727 0.0257828 0.0206237 -0.000301895 0.000612718 -0.000971314 0.04 
977 1 1 0.18566 -0.890927 -0.960203 0 0 0 -7.51252e-05 1.56163e-05 -0.000155112 0.00203397 -0.00473803 0.0412669 -0.00119998 0.000614844 -0.000431756 0.04 
19 1 1 0.265637 -0.890831 -0.960226 0 0 0 6.71672e-07 -0.000126285 0.000403702 -0.00249759 0.0360696 -0.0482783 0.00969247 0.0013972 0.000810224 0.04 
443 1 1 0.345634 -0.890855 -0.960246 0 0 0 6.01103e-05 8.34717e-05 5.88398e-06 0.00529357 -0.00345014 -0.0132426 0.000436194 0.00217847 -0.00254512 0.04 
664 1 1 0.429598 -0.893321 -0.960216 0 0 0 0.000210269 0.000113489 -4.59878e-05 -0.00811447 -0.012354 -0.00751926 -0.00165643 0.00195661 -0.00491899 0.04 
74 1 1 0.594357 -0.891143 -0.960225 0 0 0 -1.74731e-05 -7.83118e-05 -6.38691e-05 0.00226065 0.00357688 -0.0130605 0.000744131 -0.000842899 -0.000886855 0.04 
50 1 1 0.674248 -0.892014 -0.960176 0 0 0 -5.38759e-05 -0.000118586 1.86787e-05 -0.00123009 0.00549572 -0.0195479 0.000119998 -0.00156294 -0.00367339 0.04 
1 1 1 0.74984 -0.866826 -0.960241 0 0 0 9.30338e-05 -0.000314133 2.34085e-05 -0.00193577 0.00136673 -0.00364824 0.00355742 0.0040322 5.11687e-06 0.04 
812 1 1 0.878011 -0.880134 -0.960205 0 0 0 0.000122489 -3.13647e-05 -9.52121e-06 0.00164928 -0.00110749 0.00520093 0.00229576 0.00318008 -0.0012283 0.04 
446 1 1 -0.960244 -0.800741 -0.960215 0 0 0 1.22976e-05 -2.64054e-05 -7.4513e-06 -0.0083829 6.6288e-05 0.007791 0.000651468 0.000361396 0.00091018 0.04 
352 1 1 -0.84095 -0.82753 -0.960338 0 0 0 4.88238e-05 -2.07817e-05 6.668e-05 0.00453259 0.0113805 0.00210659 0.000711744 0.00158032 0.000690113 0.04 
894 1 1 -0.761755 -0.816668 -0.960287 0 0 0 3.11684e-05 4.92774e-05 -4.97962e-05 -6.38566e-05 0.00151302 0.00811684 -0.00190813 0.000556932 0.000265814 0.04 
960 1 1 -0.681855 -0.816439 -0.960115 0 0 0 -1.45205e-05 5.01795e-05 -3.26446e-05 0.00694896 -0.00242063 0.00447514 -0.000239445 -0.00110471 -0.000463279 0.04 
380 1 1 -0.535216 -0.812501 -0.960158 0 0 0 3.8235e-05 1.54215e-05 1.69229e-05 0.00657496 0.0107443 0.011574 -0.000725631 0.00143921 -0.000676581 0.04 
720 1 1 -0.257509 -0.824564 -0.960294 0 0 0 -0.000131893 -0.000128987 0.00021255 0.00429056 -0.00300048 -0.0183493 0.00188148 -0.00150696 0.00394438 0.04 
161 1 1 -0.17532 -0.822788 -0.960299 0 0 0 -0.000273209 -0.000480897 9.7866e-05 0.00134605 0.0104754 0.0158927 0.0066865 -0.00833661 0.00818415 0.04 
385 1 1 -0.0953856 -0.820067 -0.960192 0 0 0 -0.000171449 -0.000743783 -0.000128538 0.00873768 0.0152208 0.00920226 0.0174225 -0.00459375 0.00105371 0.04 
827 1 1 -0.0151015 -0.82124 -0.960265 0 0 0 -0.000254726 -6.79194e-05 0.000159333 -0.0350501 0.0142966 -0.000485173 0.00552345 -0.0034044 -0.00193742 0.04 
784 1 1 0.0652907 -0.822029 -0.960242 0 0 0 -0.000223476 -0.000191668 -4.76544e-05 -0.0277126 0.0178817 0.00176961 -0.00318727 0.00184193 -0.00167161 0.04 
211 1 1 0.145419 -0.821877 -0.960215 0 0 0 -6.01095e-05 2.92411e-05 -0.000142839 -0.0186166 0.0034262 0.0143876 0.00150394 -0.00266747 -0.00168689 0.04 
121 1 1 0.225286 -0.821506 -0.960185 0 0 0 3.6912e-05 -0.000121784 -4.15401e-06 -0.00172935 0.0265557 0.027066 0.00365943 -0.000586702 -0.00350083 0.04 
354 1 1 0.302763 -0.802484 -0.960231 0 0 0 0.000151515 -0.000239553 0.000128552 0.00681034 0.0361288 0.0238334 0.00678079 0.00152119 0.00764002 0.04 
229 1 1 0.380704 -0.819074 -0.960366 0 0 0 0.000217871 0.000127842 -0.00014089 -0.0146002 -0.00567804 -0.011628 -0.00333641 0.00592844 0.000578516 0.04 
369 1 1 0.456117 -0.822156 -0.935182 0 0 0 0.000313402 0.000246423 -0.000290797 0.00863542 -0.00258463 -0.0180944 -0.0042098 -0.00387706 -0.00212892 0.04 
396 1 1 0.519557 -0.863498 -0.960241 0 0 0 8.13997e-05 4.26343e-05 -4.03915e-05 0.0193322 -0.0235802 -0.00859654 -0.000780125 0.00134679 -0.00267098 0.04 
866 1 1 0.594027 -0.811306 -0.960338 0 0 0 4.86766e-05 -0.00016011 0.00011588 -0.019254 0.00133223 -0.000925135 0.00386237 -0.000258499 -0.000738278 0.04 
628 1 1 0.67382 -0.812297 -0.960205 0 0 0 8.62055e-05 -0.000137457 2.22279e-05 -0.00405646 0.00808309 0.00670597 0.001269 0.00235635 0.000556601 0.04 
554 1 1 0.818678 -0.826519 -0.960283 0 0 0 2.61063e-05 -0.000185277 -5.98596e-05 -0.00037988 -0.0015753 -0.00063579 0.00407541 0.00116846 0.00331645 0.04 
417 1 1 0.960154 -0.833966 -0.960253 0 0 0 2.02387e-05 5.4517e-05 -1.53365e-05 4.26545e-05 -0.00258656 0.00500927 -0.00223672 0.000384739 -0.000679281 0.04 
282 1 1 -0.889435 -0.764116 -0.960201 0 0 0 -8.57248e-06 -0.000109144 -3.74258e-05 -0.00541459 0.00605026 0.00256211 0.00145385 0.000519245 -0.00341382 0.04 
492 1 1 -0.810309 -0.753189 -0.960208 0 0 0 1.38297e-05 -0.000101296 -2.06245e-05 0.00597365 0.0150858 -0.00212722 0.00302569 0.000304712 0.00292024 0.04 
290 1 1 -0.60945 -0.782712 -0.960224 0 0 0 1.50302e-05 3.94064e-05 5.66314e-05 0.00144404 -0.007904 0.00429924 2.94399e-05 -0.000215854 0.000674384 0.04 
52 1 1 -0.453377 -0.788991 -0.960332 0 0 0 6.97932e-05 4.2095e-07 -1.13316e-05 -0.0124041 0.00231987 -0.00179526 0.000780106 0.00178805 -0.00407744 0.04 
480 1 1 -0.375656 -0.770526 -0.960358 0 0 0 3.32275e-05 -0.000158746 -4.07501e-05 -0.00625778 0.00771456 0.00360636 0.0033406 0.000966409 9.24026e-05 0.04 
402 1 1 -0.297577 -0.753564 -0.960118 0 0 0 -2.7102e-05 -0.000344346 -4.36137e-06 -0.00438253 -0.00302862 -0.0032856 0.00884637 0.000640717 -0.00239662 0.04 
322 1 1 -0.217698 -0.755307 -0.960133 0 0 0 -0.000112477 -0.000464278 7.68763e-05 -0.00971846 -0.0107169 0.0125645 0.00736237 -0.00444835 -0.00250919 0.04 
376 1 1 -0.137774 -0.752248 -0.960137 0 0 0 -0.000287143 -0.00103953 -9.5675e-06 0.0140176 -0.000906639 -0.013837 0.0266093 -0.00772653 -0.0157502 0.04 
204 1 1 -0.0596264 -0.73542 -0.960305 0 0 0 0.000817773 -0.00698472 5.71499e-05 0.0122096 0.0671666 0.0243556 0.177312 0.0192951 -0.0185535 0.04 
1122 1 1 0.0192107 -0.748825 -0.960159 0 0 0 0.0010998 -0.00410901 -2.04065e-05 0.0169031 0.0699117 0.0309428 0.103381 0.0261706 0.128386 0.04 
773 1 1 0.105144 -0.753054 -0.960327 0 0 0 -0.000246433 -2.08595e-05 -0.000185489 0.00586423 0.00249507 0.0152798 0.00107424 -0.005765 0.00632953 0.04 
725 1 1 0.185121 -0.752341 -0.960163 0 0 0 -0.000236677 -0.000169779 -1.72274e-05 0.00649747 0.0161181 -0.0137372 0.00466828 -0.00645668 0.00368261 0.04 
159 1 1 0.345571 -0.734995 -0.960257 0 0 0 -5.27997e-05 -0.000207094 0.000266122 0.0251411 0.0142113 -0.0259148 0.00525671 -9.64709e-05 0.00305887 0.04 
688 1 1 0.482791 -0.751123 -0.960232 0 0 0 7.89993e-06 0.000578796 -8.68284e-05 0.0135809 -0.0193957 -0.0273394 -0.0148699 -0.00244976 0.00854288 0.04 
757 1 1 0.561589 -0.738309 -0.960166 0 0 0 0.000188276 0.000112082 -7.56482e-05 0.00398649 0.00154982 0.0136061 -0.0055564 -0.000177762 -0.0208029 0.04 
519 1 1 0.641384 -0.739388 -0.960173 0 0 0 -0.000109212 -0.000281847 0.000166763 0.0262667 0.0302131 0.012665 0.00599623 -0.00474725 0.00853814 0.04 
742 1 1 0.749358 -0.786898 -0.960233 0 0 0 6.68459e-05 -0.000307096 -5.20455e-06 -0.00277501 0.000846947 -0.000991929 0.00352569 -0.000272831 -0.0047081 0.04 
603 1 1 0.818342 -0.746652 -0.960129 0 0 0 0.000185766 -0.000324424 5.65526e-05 0.0010218 -0.00965068 -0.00448234 0.0047212 0.00313322 0.00232845 0.04 
86 1 1 0.891232 -0.793682 -0.960276 0 0 0 -3.02166e-06 1.27585e-05 -1.96562e-05 -0.00214492 0.00171575 0.00269683 0.00165109 5.79173e-05 0.000970307 0.04 
972 1 1 0.96024 -0.753737 -0.960208 0 0 0 9.86105e-06 2.859e-05 4.51723e-05 -0.003069 -0.000229525 -0.00397873 -0.00159334 0.000478636 -0.00113976 0.04 
488 1 1 -0.960206 -0.720977 -0.960237 0 0 0 3.42483e-05 -4.17463e-05 1.99718e-05 0.000984578 0.00704946 -0.0043329 0.000471083 -0.000239033 -0.00150634 0.04 
532 1 1 -0.889466 -0.684333 -0.960246 0 0 0 0.000154763 -0.000134505 1.04664e-05 -0.00791055 0.0124128 0.00543475 0.00186591 0.00314124 -0.00237804 0.04 
564 1 1 -0.74408 -0.708354 -0.96026 0 0 0 3.07061e-05 -4.92664e-05 -4.26102e-05 0.0121036 0.00750852 0.00536673 0.00142689 0.000879569 -0.000898125 0.04 
314 1 1 -0.666198 -0.726439 -0.960118 0 0 0 -3.38645e-05 -3.02536e-05 1.67108e-05 0.00394778 -0.00281862 0.00229026 0.000521342 -0.00235581 0.00104341 0.04 
783 1 1 -0.61138 -0.667442 -0.960257 0 0 0 6.60035e-05 2.4777e-05 8.3437e-05 -0.00092452 -0.0166328 0.0108402 0.000806492 0.000819858 0.00301646 0.04 
1127 1 1 -0.555109 -0.724251 -0.960254 0 0 0 9.05534e-05 4.20528e-05 8.29239e-06 -0.010823 -0.00121651 0.0079819 0.000508119 0.00282038 -0.00309341 0.04 
241 1 1 -0.476083 -0.712366 -0.960184 0 0 0 5.45128e-05 9.7707e-05 9.19659e-06 -0.0086429 0.0118051 -0.00975937 -0.000992905 -0.000697641 0.00385828 0.04 
85 1 1 -0.390992 -0.692235 -0.960256 0 0 0 -0.000132664 -0.000159063 4.52541e-05 0.00331997 0.0104685 0.00251776 -0.00257582 0.00468623 0.00141749 0.04 
511 1 1 -0.312976 -0.675087 -0.960172 0 0 0 -0.00022283 -0.000436142 0.000102589 0.0165834 0.00446911 0.0135726 0.0102534 -0.00568673 -0.00811934 0.04 
873 1 1 -0.233075 -0.677188 -0.960336 0 0 0 -0.000224313 -0.000812985 5.29984e-05 -0.00564043 0.0254183 0.012549 -0.00378019 0.000303635 0.0076832 0.04 
738 1 1 -0.122557 -0.673775 -0.960256 0 0 0 0.000125097 -0.00148629 -0.000518724 0.024095 -0.00927952 0.0245681 0.0386922 0.0024471 -0.00133238 0.04 
1088 1 1 0.110943 -0.673764 -0.960226 0 0 0 -9.06775e-05 0.000146473 1.45484e-06 -0.00990359 0.00590412 0.0285676 -0.00286491 -0.00540086 -0.0154075 0.04 
862 1 1 0.208417 -0.675882 -0.960171 0 0 0 0.00034551 -0.000389982 -0.000106391 -0.00372405 0.0296958 0.00232566 0.0115482 0.00675 -0.00443974 0.04 
967 1 1 0.265704 -0.731653 -0.960289 0 0 0 -0.000155626 -0.00045754 0.000329171 0.0252957 0.0434985 0.018525 0.00844616 -0.0068896 0.0048289 0.04 
451 1 1 0.432789 -0.688736 -0.960201 0 0 0 -0.000521128 0.000168347 -1.76735e-05 0.0408536 -0.0214285 0.01519 -0.00196429 -0.0118587 -0.00342301 0.04 
177 1 1 0.51173 -0.675918 -0.960218 0 0 0 -0.000774782 -0.000912701 -0.000215197 0.0549076 0.0337138 -0.00303819 0.0219808 -0.0222229 0.0583888 0.04 
308 1 1 0.678753 -0.668893 -0.96017 0 0 0 0.000255572 -0.000549931 -0.000109465 0.0151276 0.0548382 0.00438139 -0.0126507 0.0151811 -0.0216132 0.04 
439 1 1 0.748956 -0.707078 -0.96021 0 0 0 0.000175888 -0.00041868 4.07403e-05 0.0038255 0.000589202 -0.000733393 -0.00288436 -0.00335374 0.00101077 0.04 
662 1 1 0.818036 -0.666729 -0.960231 0 0 0 0.000417274 -0.00050149 1.42496e-05 0.00714503 0.00519177 0.00371889 0.0135185 0.00882206 0.0113349 0.04 
188 1 1 0.891037 -0.713775 -0.960247 0 0 0 4.3222e-05 2.11331e-05 9.25899e-05 -0.00896381 0.0100086 0.000337776 0.000345354 0.000456246 9.80817e-05 0.04 
987 1 1 0.960144 -0.673802 -0.960182 0 0 0 4.85566e-05 3.20076e-05 -9.51324e-06 -0.000697406 -1.64165e-05 0.00414572 -0.000590817 0.000909707 -0.000445251 0.04 
990 1 1 -0.877723 -0.605528 -0.960221 0 0 0 2.59084e-05 -0.000121359 -6.38198e-05 0.00408486 0.0155888 -0.00706077 0.000258577 0.0010342 0.00686113 0.04 
826 1 1 -0.811816 -0.666079 -0.960159 0 0 0 9.31169e-05 -0.000124007 -0.000112224 -0.00480066 0.00637903 0.0106151 0.0020792 0.00174716 0.00288419 0.04 
1152 1 1 -0.757382 -0.607615 -0.960258 0 0 0 1.87144e-05 -8.22011e-05 -0.000180227 -0.00650504 0.00345198 0.00656373 0.00109396 0.000993502 0.00085948 0.04 
567 1 1 -0.689493 -0.649964 -0.96018 0 0 0 4.25576e-05 -4.46227e-05 2.44404e-05 0.0065568 -0.0058558 0.000316939 0.00121066 0.000673375 -0.000425345 0.04 
170 1 1 -0.527837 -0.649148 -0.960296 0 0 0 5.4603e-05 5.78335e-05 4.35717e-05 -9.18464e-06 0.00679832 0.00333362 -8.25251e-05 0.00031979 0.00386603 0.04 
375 1 1 -0.448826 -0.637346 -0.960304 0 0 0 4.94157e-05 0.00021686 -3.33283e-05 0.00873943 0.0141427 -0.0105725 -0.00364871 0.000845564 -0.00851791 0.04 
709 1 1 -0.367352 -0.615996 -0.960198 0 0 0 0.000230894 -0.000365845 -7.01902e-05 0.00954683 0.00929892 0.016919 0.00871093 0.00512204 -0.0103968 0.04 
1046 1 1 -0.0467008 -0.648824 -0.960248 0 0 0 -0.000268761 -0.000918593 0.00035347 0.00419551 -0.00796185 0.0253707 0.0240347 -0.00637045 0.0186698 0.04 
581 1 1 0.0319195 -0.662377 -0.960303 0 0 0 7.40125e-05 0.000278167 3.4448e-05 -0.00564017 0.0108088 0.0367639 -0.0062706 0.00816808 0.0100998 0.04 
61 1 1 0.16078 -0.611658 -0.960219 0 0 0 0.000541704 -0.00042817 0.000108576 0.00162841 0.0596311 -0.00280361 0.0120784 0.0121981 -0.00686363 0.04 
1052 1 1 0.252382 -0.609103 -0.96029 0 0 0 0.000413677 -0.000108416 7.18332e-05 0.0274429 0.00867019 0.00402029 -8.4414e-05 0.0107958 -0.0343601 0.04 
656 1 1 0.311916 -0.662473 -0.960129 0 0 0 -0.000856848 -0.00103989 6.70335e-05 0.0196111 0.0323163 -0.0165026 0.0247286 -0.0240625 -0.00581554 0.04 
1082 1 1 0.383115 -0.626072 -0.960242 0 0 0 -0.00109811 -0.00026662 0.000182052 0.0605779 0.00507523 -0.0304824 0.00544368 -0.0245355 0.0154897 0.04 
255 1 1 0.462008 -0.613457 -0.960266 0 0 0 -0.0010902 -0.00139245 7.43033e-05 0.0772603 0.0326469 0.0298521 0.0338082 -0.0293644 -0.0478473 0.04 
880 1 1 0.598447 -0.666162 -0.960226 0 0 0 -0.00157981 -0.00167538 -0.000104392 0.0450328 0.0459927 0.0213674 0.0438075 -0.040075 -0.103995 0.04 
1026 1 1 0.543126 -0.601563 -0.96017 0 0 0 -0.00296346 0.00280055 0.000276124 0.0349324 0.00667243 -0.00336219 -0.070373 -0.0744092 -0.113563 0.04 
543 1 1 0.748539 -0.62731 -0.960157 0 0 0 0.000515427 -0.000536358 -0.00013286 0.00341082 -2.94098e-05 -0.00283817 -0.00513403 -0.0150288 -0.0106797 0.04 
553 1 1 0.890861 -0.6339 -0.960239 0 0 0 7.8329e-05 4.73587e-05 8.30046e-05 0.00453603 0.00387434 0.00513515 -0.000567667 0.00147074 0.000256282 0.04 
260 1 1 -0.96 -0.595549 -0.960243 0 0 0 5.7156e-05 -5.93786e-05 -3.91506e-05 -0.00309961 0.0173297 -0.00585248 0.000440077 0.00141824 0.00609747 0.04 
565 1 1 -0.816684 -0.55396 -0.960232 0 0 0 5.19015e-05 -8.13406e-05 -0.00016178 -0.0159333 0.00944769 0.0118808 0.000134293 0.00121682 -0.00382555 0.04 
1113 1 1 -0.703064 -0.549206 -0.960281 0 0 0 4.56816e-05 -7.70425e-05 -0.000189618 -0.00467725 0.00143786 0.0184318 0.00201744 0.00101099 0.000418213 0.04 
925 1 1 -0.635186 -0.591257 -0.960148 0 0 0 1.72344e-05 8.34087e-07 -3.53018e-05 -0.00068825 -0.0150302 0.00572129 -0.00451934 -0.00104143 -5.34982e-05 0.04 
893 1 1 -0.547622 -0.56266 -0.960172 0 0 0 0.000213617 -5.53808e-05 -9.54938e-06 -0.0137122 -0.0119015 -0.0141583 0.00173661 0.00413558 -0.0084297 0.04 
1103 1 1 -0.454692 -0.55789 -0.960302 0 0 0 0.000615307 0.000466689 -0.000139897 0.0192907 -0.00350545 -0.00149122 -0.0109204 0.0150674 0.00626916 0.04 
1448 1 1 -0.377624 -0.536727 -0.960166 0 0 0 0.000888595 -0.000439484 6.43945e-05 -0.00555331 0.017068 0.00279472 0.011626 0.0214439 -0.0182892 0.04 
631 1 1 -0.303857 -0.567524 -0.960242 0 0 0 0.000643953 -0.000802709 -3.20587e-05 0.00438967 0.0264446 0.0058801 0.0191319 0.0139208 -0.00401115 0.04 
714 1 1 -0.23006 -0.597832 -0.960353 0 0 0 0.00046662 -0.0010059 -0.000136065 -0.0241417 0.0295735 0.0189706 -0.00143767 0.0046562 -0.0235217 0.04 
962 1 1 -0.16545 -0.550869 -0.960209 0 0 0 0.000224958 -0.000701399 -7.43224e-05 -0.0100064 0.0244604 0.0130051 0.0202932 0.00583945 0.014615 0.04 
950 1 1 -0.0923775 -0.583241 -0.960249 0 0 0 0.00023143 -0.000585018 -7.08898e-06 0.0060139 -0.00191404 -0.00280402 0.0114297 0.00821999 -0.0219655 0.04 
716 1 1 0.00263193 -0.585913 -0.960217 0 0 0 0.000315673 -0.00146578 4.17099e-05 0.0117647 -0.00887864 -0.00895893 0.0379601 0.00766675 0.00333019 0.04 
388 1 1 0.0813826 -0.599627 -0.96023 0 0 0 0.000204205 0.000332955 -0.00015318 -0.0205152 0.00658718 0.00964322 -0.00599522 0.00714215 0.0120321 0.04 
867 1 1 0.204595 -0.545118 -0.960171 0 0 0 0.000393274 -0.000197842 0.00010657 -0.00726076 0.018682 -0.0477012 0.00509932 0.0102924 0.013383 0.04 
576 1 1 0.321534 -0.564016 -0.960229 0 0 0 0.0010513 -0.00104678 1.92021e-05 0.0325272 0.022553 -0.0249411 0.0281194 0.0272776 -0.0648518 0.04 
408 1 1 0.403732 -0.548863 -0.960205 0 0 0 0.00162244 -0.00140315 0.000115411 0.00896039 0.0250492 -0.00799439 0.0362393 0.0400375 -0.0134806 0.04 
814 1 1 0.482659 -0.536318 -0.960229 0 0 0 0.00162522 -0.00245184 -0.000260356 0.00598675 0.0513723 0.0217917 0.0641752 0.0411279 -0.0142286 0.04 
1288 1 1 0.589713 -0.536397 -0.960268 0 0 0 0.00176231 -0.00194215 -0.00017288 -0.0035274 0.0334405 -0.00398112 0.0488605 0.0442278 0.00102314 0.04 
1111 1 1 0.678398 -0.589087 -0.960259 0 0 0 0.00051697 -0.000760348 2.87451e-06 0.0314468 0.0586167 -0.00441836 0.0177193 0.0111273 0.0154716 0.04 
1138 1 1 0.747342 -0.547504 -0.960207 0 0 0 0.00206721 -0.000484339 8.23433e-05 -0.0400768 0.0112502 -0.00931657 0.0122028 0.0527813 -0.00611648 0.04 
58 1 1 0.817485 -0.585932 -0.960206 0 0 0 0.00121104 -0.00256259 5.22925e-05 -0.0202596 0.0390858 -0.000584182 0.0649531 0.0312443 0.0473638 0.04 
1107 1 1 0.890822 -0.55404 -0.960247 0 0 0 5.32862e-05 7.99575e-05 8.20383e-05 0.000311012 0.00432619 0.00613622 -0.000556503 0.000144834 -0.000279954 0.04 
252 1 1 0.96009 -0.593929 -0.960182 0 0 0 5.46083e-05 4.48735e-05 -1.26581e-05 0.00191196 -0.00110362 0.000734941 -0.000147699 0.00103483 -0.000329906 0.04 
670 1 1 -0.960083 -0.515582 -0.960206 0 0 0 -3.50391e-05 -4.95848e-05 -0.000108327 0.00526963 0.019106 0.00313794 0.000236634 0.000799886 -0.00168664 0.04 
644 1 1 -0.761218 -0.493786 -0.960278 0 0 0 -9.44819e-06 -0.000166322 -0.000172374 -0.0197336 0.00135457 0.0257373 0.00345948 -4.31833e-05 -0.00391493 0.04 
833 1 1 -0.684409 -0.471777 -0.960322 0 0 0 -7.08361e-05 -0.000163718 -0.000170756 -0.0105676 0.00998813 0.0256095 0.00240528 -0.00136393 0.00405897 0.04 
435 1 1 -0.616303 -0.513675 -0.960223 0 0 0 6.65571e-05 -3.22986e-05 -0.000151899 -0.0109458 -0.00376584 -0.000965504 0.000346292 0.00157164 -0.000152428 0.04 
816 1 1 -0.503036 -0.494487 -0.960282 0 0 0 0.000157338 0.000309451 6.20184e-06 0.00692782 -0.0101953 -0.00210263 -0.00257608 0.00329855 0.00879077 0.04 
489 1 1 -0.313747 -0.488284 -0.960233 0 0 0 0.00203018 -0.00057363 -4.72469e-05 -0.0213718 0.00811878 0.00984261 0.00070509 0.0120079 -0.000695407 0.04 
883 1 1 -0.239956 -0.518958 -0.960264 0 0 0 0.00193992 -0.000749121 -3.60068e-05 -0.0120764 0.00918378 0.0118612 -0.00149825 0.0251451 -0.0139788 0.04 
305 1 1 -0.175569 -0.471581 -0.960212 0 0 0 0.00156872 -0.000328053 -0.000150258 -0.012142 0.00926972 0.0237016 0.00934032 0.0370551 -0.00907627 0.04 
675 1 1 -0.10183 -0.502471 -0.960183 0 0 0 0.000946606 -0.00156676 0.000134432 0.000710276 0.00182875 -0.0161928 0.039879 0.025116 -0.0202779 0.04 
1066 1 1 -0.0222654 -0.510005 -0.96031 0 0 0 0.000816339 -0.00125606 -0.000385925 -0.00142285 -0.019924 -0.00475829 0.0332094 0.0223969 0.00038397 0.04 
143 1 1 0.0589578 -0.523044 -0.960127 0 0 0 -0.000521906 0.000432078 7.3923e-05 0.00349786 0.0314614 0.00992542 0.0114183 -0.00524208 0.00187828 0.04 
1346 1 1 0.153883 -0.483504 -0.960268 0 0 0 0.000119991 -0.000291027 0.000105397 -0.0104208 0.0224515 -0.0556185 0.00492905 0.00331992 0.0155644 0.04 
1000 1 1 0.271464 -0.50169 -0.960225 0 0 0 0.0010366 -0.00127658 -0.000160028 -0.00344045 0.0318763 -0.00594181 0.0324187 0.0260145 -0.044165 0.04 
792 1 1 0.350452 -0.489346 -0.960245 0 0 0 0.00139927 -0.00197543 -9.3303e-05 0.000311719 0.00870201 -0.00472307 0.0422599 0.0341636 -0.00735821 0.04 
1361 1 1 0.432859 -0.473746 -0.96021 0 0 0 0.00148908 -0.00260549 0.000225323 0.00314789 0.0107455 0.0192799 0.0645339 0.0367053 -0.0175184 0.04 
584 1 1 0.53618 -0.477056 -0.960209 0 0 0 0.00115502 -0.00234933 0.00025098 -0.00673968 0.0680804 0.0320179 0.0589886 0.0268433 0.0154512 0.04 
908 1 1 0.67712 -0.509424 -0.960258 0 0 0 0.00136107 -0.00109395 -7.17515e-05 -0.0205101 0.0544577 -0.00410588 -0.00733294 0.0223943 -0.00438504 0.04 
1309 1 1 0.804421 -0.491617 -0.960229 0 0 0 0.00135894 0.000334429 3.13974e-05 -0.0170536 0.00214846 -0.00228054 -0.00756152 0.0342982 0.0124015 0.04 
9 1 1 0.890885 -0.474153 -0.960181 0 0 0 9.31867e-05 2.77083e-05 4.31097e-05 0.00678101 -0.00573723 0.0137284 -0.000521113 0.00188041 3.16312e-05 0.04 
771 1 1 0.960095 -0.514066 -0.960231 0 0 0 6.94422e-05 4.04956e-05 -1.00688e-05 0.00112004 0.00177299 -0.00642916 -0.00034435 0.00108679 -0.000218471 0.04 
1055 1 1 -0.96006 -0.423547 -0.960214 0 0 0 1.2001e-05 -7.36244e-05 -7.48428e-05 0.00538185 0.0126673 0.0201452 0.00266074 0.000800561 -0.001244 0.04 
739 1 1 -0.890747 -0.463396 -0.960242 0 0 0 2.20752e-05 -0.000127973 -0.000154181 0.00204908 0.0233852 0.0264361 0.00350696 -0.000492662 0.00145887 0.04 
1142 1 1 -0.821559 -0.423411 -0.96026 0 0 0 -2.74385e-05 -0.000108555 0.000129035 -0.0135774 0.00691155 0.0149632 0.00549994 -0.0023267 0.00112547 0.04 
613 1 1 -0.6369 -0.407824 -0.960301 0 0 0 -0.000332133 -6.37576e-05 -7.46717e-05 -0.00325745 0.00262261 0.00405554 0.00102996 -0.00435243 0.00664711 0.04 
620 1 1 -0.568861 -0.449433 -0.960225 0 0 0 -0.000240715 -2.80714e-05 -4.92682e-05 0.0268788 -0.00597972 0.00309899 0.0016564 -0.00507365 0.00425858 0.04 
1316 1 1 -0.461082 -0.426546 -0.960325 0 0 0 0.00237343 -0.000587971 -0.000103009 0.00419845 -0.0163718 0.0209095 0.0148214 0.0599749 -0.0403587 0.04 
344 1 1 -0.387371 -0.457408 -0.960271 0 0 0 0.00214472 -0.000449653 -1.21435e-05 0.00874616 0.00298471 0.00366071 -0.00386792 0.00166878 -0.00767369 0.04 
247 1 1 -0.323736 -0.40896 -0.960228 0 0 0 0.00221776 -0.000607223 -3.37677e-05 -0.00451829 0.0134117 0.00908311 -0.00404128 0.0106519 -0.00626299 0.04 
382 1 1 -0.250107 -0.439958 -0.960243 0 0 0 0.00219654 -0.000651595 -2.89782e-05 -0.0184992 0.0128887 0.00140141 -0.00150325 0.00626982 0.00595451 0.04 
1271 1 1 -0.105163 -0.422505 -0.960253 0 0 0 -0.000866002 -0.00156625 -5.96604e-05 -0.0193012 0.0389142 0.00674819 0.0404717 -0.0193706 -0.0733936 0.04 
1249 1 1 0.029434 -0.448881 -0.96029 0 0 0 -0.000971112 0.000438214 5.04859e-05 0.00197039 -0.00577127 0.0297137 -0.0151403 -0.0256905 0.00851614 0.04 
1030 1 1 0.104292 -0.420964 -0.960275 0 0 0 -0.000467162 -0.000842691 0.000142494 0.00839021 0.00747269 0.021538 0.0201617 -0.0147456 0.000461139 0.04 
1148 1 1 0.220787 -0.439802 -0.960252 0 0 0 0.000872109 -0.00110788 -4.25241e-05 -0.0042429 0.0496552 -0.000637935 0.0250857 0.0217851 -0.0445766 0.04 
772 1 1 0.300121 -0.427258 -0.96021 0 0 0 0.00249692 -0.00188723 -0.000117156 0.00769108 0.0989075 0.0290424 -0.00209444 0.0108266 -0.00947442 0.04 
845 1 1 0.378984 -0.414657 -0.960218 0 0 0 0.00210873 -0.00220032 0.000122494 -0.0288006 0.0358035 0.0210804 0.0515428 0.0509525 -0.0167963 0.04 
981 1 1 0.561042 -0.401041 -0.960197 0 0 0 0.000534649 -0.00218066 2.86357e-05 -0.00844873 0.0525461 0.0228536 -0.00637538 -0.00395757 0.0123143 0.04 
1047 1 1 0.614295 -0.460336 -0.960196 0 0 0 0.000906523 -0.00181269 3.95126e-05 -0.0166399 0.0553171 0.00673038 0.00968681 -0.00214703 -0.000346392 0.04 
1474 1 1 0.688409 -0.430475 -0.960202 0 0 0 0.000560792 -0.00114274 0.000110042 -0.0140904 0.0533026 -0.00962386 0.0164829 0.00797496 0.0204439 0.04 
840 1 1 0.767482 -0.420833 -0.960285 0 0 0 0.000283702 -8.081e-05 -2.35187e-05 0.00332013 0.00259776 0.0128597 0.00142105 0.00466068 0.00952756 0.04 
852 1 1 0.960097 -0.434151 -0.960265 0 0 0 2.3453e-05 3.82295e-05 -5.10409e-07 0.00333937 0.00229608 -0.00411337 -0.000413781 0.000116602 0.00061095 0.04 
982 1 1 -0.960097 -0.343566 -0.960223 0 0 0 8.22967e-06 -3.64975e-05 5.97549e-05 -0.00044855 0.0183062 0.00643657 0.00135333 -0.000658546 0.000406432 0.04 
326 1 1 -0.890834 -0.383458 -0.960226 0 0 0 2.56736e-05 -0.000113315 8.69352e-05 -0.00501058 0.0265713 0.0188184 0.00242676 -0.00135468 -0.00101813 0.04 
1215 1 1 -0.821581 -0.343415 -0.96022 0 0 0 7.31521e-05 -8.38132e-05 3.27082e-05 -0.00566937 0.0109559 0.0386658 0.00294464 0.00204884 0.00413307 0.04 
1246 1 1 -0.749758 -0.388372 -0.96013 0 0 0 -0.000313768 0.000118896 0.000189783 -0.0330821 -0.0218361 0.00545741 -0.00853422 -0.000248634 0.00350679 0.04 
969 1 1 -0.683829 -0.343244 -0.960207 0 0 0 -0.000417718 -0.000129338 -4.49836e-05 -0.025772 -0.0158754 -0.0118074 0.00554029 -0.00475253 -0.00464018 0.04 
230 1 1 -0.60461 -0.335056 -0.960159 0 0 0 -0.000881897 -0.000307636 0.000158895 -0.00851407 -0.0580862 -0.0157428 -0.00112122 -0.00288177 -0.00199426 0.04 