ITEM: TIMESTEP
31600
ITEM: NUMBER OF ATOMS
1500
ITEM: BOX BOUNDS ff ff ff
-1 1
-1 1
-1 1
ITEM: ATOMS id type type x y z ix iy iz vx vy vz fx fy fz omegax omegay omegaz radius 
137 1 1 -0.948784 -0.943732 -0.95561 0 0 0 -0.230653 0.165081 -0.0766971 -20.4132 9.93955 -46.6667 2.88113 3.83783 2.6467 0.04 
5 1 1 -0.869167 -0.95873 -0.957671 0 0 0 -0.0231723 -0.202016 1.33397 0 0 -6.57473 5.29998 -0.188334 -3.51091 0.04 
415 1 1 -0.713944 -0.957844 -0.951227 0 0 0 -0.0059731 0.136672 -0.405272 -77.6164 -84.4364 19.3815 1.84402 0.662186 0.290999 0.04 
105 1 1 -0.636945 -0.956277 -0.959711 0 0 0 -0.123614 0.698813 0.0656173 63.3701 -2.8229 -20.0291 -1.60164 -0.091622 -1.35483 0.04 
138 1 1 -0.557736 -0.957277 -0.959337 0 0 0 -0.228352 0.0494928 0.0583997 29.56 1.10241 -6.36102 -0.28938 -0.33665 -2.20104 0.04 
130 1 1 -0.398527 -0.96104 -0.949746 0 0 0 0.398647 0.460609 0.0557736 -0.175676 39.1177 -3.92902 2.99084 3.24767 -7.07842 0.04 
502 1 1 -0.291048 -0.956865 -0.960959 0 0 0 -0.0365838 0.0449932 0.399749 2.08457 -1.21758 41.7076 -0.87883 -0.475418 -2.42588 0.04 
494 1 1 -0.186205 -0.954391 -0.960983 0 0 0 -0.378393 -0.0025869 0.0381272 -121.382 3.15524 43.2496 0.961353 1.25224 4.80817 0.04 
448 1 1 -0.109675 -0.955112 -0.961792 0 0 0 0.061741 0.568596 -0.378499 127.681 -6.32769 51.902 -0.345072 3.08995 8.34508 0.04 
147 1 1 -0.0207536 -0.961308 -0.959292 0 0 0 -0.0300449 -0.0804003 -0.191153 -32.8195 32.0548 -25.6583 -4.34052 -4.97216 0.0422156 0.04 
218 1 1 0.076324 -0.950508 -0.956981 0 0 0 0.158341 -0.0257888 0.625469 36.089 -33.3618 -22.8492 -8.5091 -8.84684 8.04166 0.04 
655 1 1 0.157857 -0.960251 -0.959673 0 0 0 0.0828655 0.0243592 0.15099 -6.67699 6.03638 -7.57215 -2.61893 2.56427 -0.875245 0.04 
341 1 1 0.353579 -0.959683 -0.953378 0 0 0 -0.385161 -0.00521052 -0.0116422 -5.92442 -41.0418 -53.0813 2.93651 1.27518 -1.1706 0.04 
203 1 1 0.436368 -0.955949 -0.956643 0 0 0 0.273137 -0.110904 0.0363198 -36.6784 -36.7949 -19.0065 -1.48997 8.63936 -2.90206 0.04 
1019 1 1 0.536438 -0.961994 -0.948247 0 0 0 0.022602 0.326697 0.222393 -60.7456 -32.2561 -40.1512 5.95516 -0.681509 -3.40963 0.04 
636 1 1 0.711714 -0.94464 -0.960122 0 0 0 0.43136 0.192313 0.0149563 -7.7239 -40.9565 -30.5722 -0.625071 3.97326 -10.1272 0.04 
729 1 1 0.797346 -0.945909 -0.958196 0 0 0 -0.225253 0.481481 0.171771 0 0 -6.57473 -4.79589 5.77459 -2.03698 0.04 
503 1 1 0.880942 -0.961273 -0.960265 0 0 0 -0.117042 -0.746671 -0.164746 -174.339 85.7604 2.24999 -0.45051 -2.15105 -15.8236 0.04 
850 1 1 0.955902 -0.959446 -0.955619 0 0 0 -0.038786 0.0786503 0.107443 178.308 -4.31782 2.32968 -2.21155 3.6876 2.47677 0.04 
446 1 1 -0.898068 -0.879651 -0.959241 0 0 0 -0.101927 -0.0857989 -0.305773 0 0 -6.57473 -1.38895 -0.920246 -2.49571 0.04 
239 1 1 -0.791958 -0.933115 -0.962017 0 0 0 -0.0155916 -0.15671 0.0726826 -9.35858 -5.10753 104.444 -3.28762 2.40586 -3.46635 0.04 
379 1 1 -0.73053 -0.882425 -0.960121 0 0 0 -0.188059 -0.560787 -0.223901 7.96314 104.386 -33.8934 -2.43959 0.872259 5.01847 0.04 
380 1 1 -0.604646 -0.881425 -0.961695 0 0 0 0.52852 0.504444 -1.01694 -3.0749 7.08149 -42.8341 -2.01012 -3.89743 2.10004 0.04 
52 1 1 -0.509569 -0.889312 -0.960507 0 0 0 0.105703 -0.231666 -0.402936 10.0649 8.1864 -87.4969 6.66785 -0.60583 -5.49185 0.04 
480 1 1 -0.414675 -0.883741 -0.961304 0 0 0 0.129123 -0.472021 -0.15237 -26.333 67.114 -92.6067 2.85475 1.19952 -1.22995 0.04 
322 1 1 -0.335202 -0.888335 -0.958924 0 0 0 0.494696 -0.286818 0.520505 10.5076 -1.15238 -7.68947 -0.0143347 0.49811 3.45771 0.04 
647 1 1 -0.251782 -0.875648 -0.959855 0 0 0 0.310882 0.390958 0.139144 -20.7577 -50.2285 -10.6328 -2.07704 -0.800323 -3.58976 0.04 
385 1 1 -0.070577 -0.885007 -0.951174 0 0 0 -0.481029 0.534793 -0.270102 0 0 -6.57473 -2.53951 -1.9039 -1.44939 0.04 
204 1 1 0.0209604 -0.898981 -0.936055 0 0 0 -0.69078 0.516461 -0.729384 13.2737 49.1641 -2.80271 -6.43233 2.96397 0.587686 0.04 
211 1 1 0.207826 -0.898375 -0.953891 0 0 0 -0.425265 0.276952 0.72296 6.54966 7.63467 -6.24888 -4.13261 4.96462 -3.24112 0.04 
19 1 1 0.288707 -0.906713 -0.951062 0 0 0 0.482855 0.378224 -0.170861 16.4691 21.9825 -19.3128 6.05256 0.135996 0.370799 0.04 
967 1 1 0.364984 -0.881972 -0.961373 0 0 0 0.359274 0.364517 -0.0720936 -1.21197 23.0168 61.0756 -5.72995 4.23535 -6.04216 0.04 
688 1 1 0.488517 -0.901353 -0.934903 0 0 0 -0.375571 0.0724606 0.788279 5.87191 95.2193 -9.3594 -6.81319 3.12543 2.76147 0.04 
396 1 1 0.570059 -0.893544 -0.960082 0 0 0 0.0271716 0.299943 -0.0929786 45.6628 92.336 -11.5675 8.15067 1.40692 1.67342 0.04 
50 1 1 0.653561 -0.862433 -0.96085 0 0 0 0.453137 0.199249 0.0750523 35.3308 31.2316 -64.0823 -1.92667 2.34044 7.52854 0.04 
554 1 1 0.894141 -0.868152 -0.955462 0 0 0 -0.579019 0.0311381 -0.207457 -146.486 -108.756 -0.645051 -3.97937 0.629003 -3.15694 0.04 
488 1 1 -0.960383 -0.821833 -0.94687 0 0 0 0.486896 0.283032 -0.405839 -18.5615 -1.36446 -28.2977 4.7964 9.521 -5.19043 0.04 
894 1 1 -0.813188 -0.850776 -0.955571 0 0 0 0.356028 0.125646 0.0914917 0 0 -6.57473 1.47211 0.868121 -4.1068 0.04 
290 1 1 -0.684341 -0.817304 -0.962491 0 0 0 -0.136646 -0.0843547 0.415296 -6.73669 -5.34048 107.24 3.28163 2.99003 -9.57111 0.04 
241 1 1 -0.496046 -0.804902 -0.962078 0 0 0 0.284382 0.283922 0.26064 35.5745 -14.6517 54.4533 -4.21114 5.63893 2.55543 0.04 
631 1 1 -0.304058 -0.813292 -0.957813 0 0 0 -0.601767 -0.391075 -0.233187 -27.2949 -49.7096 -81.1522 0.966832 -2.4961 0.896548 0.04 
700 1 1 -0.162943 -0.861875 -0.961129 0 0 0 -0.55145 -0.494837 0.389943 -35.3223 -19.6852 7.00827 7.15443 -3.85468 1.05876 0.04 
581 1 1 0.0451412 -0.823536 -0.956046 0 0 0 0.720647 -0.285099 -0.0872645 -29.8711 -13.7629 -42.0245 2.88036 10.8016 -3.99113 0.04 
773 1 1 0.226768 -0.799438 -0.945149 0 0 0 -0.503045 -0.0854426 0.0404747 -17.7252 -104.456 -63.8314 -1.41005 5.66836 -5.75089 0.04 
725 1 1 0.303702 -0.828571 -0.960581 0 0 0 -0.159115 0.175671 -0.0322571 -29.1432 -8.42237 7.0226 3.75602 1.95911 -1.8078 0.04 
664 1 1 0.438395 -0.834611 -0.959252 0 0 0 -0.102347 0.205438 -0.235942 -0.951367 -17.8072 -104.888 3.00168 -9.48852 -12.5186 0.04 
177 1 1 0.530225 -0.799933 -0.955901 0 0 0 0.219032 0.240111 0.533905 95.0348 -86.1554 -30.0924 -10.1249 -3.8514 2.80214 0.04 
439 1 1 0.799869 -0.862778 -0.956546 0 0 0 -0.316531 -0.144961 -0.0583355 0 0 -6.57473 5.42418 -2.73966 -5.08714 0.04 
987 1 1 0.961806 -0.835576 -0.956202 0 0 0 -0.231477 0.617219 0.0793771 63.7587 65.3322 -13.6377 5.69129 3.0358 -0.529042 0.04 
670 1 1 -0.950891 -0.742023 -0.957445 0 0 0 0.0552684 0.650825 -0.101995 1.51444 8.10641 -37.1336 -0.0175095 1.45159 -2.01306 0.04 
826 1 1 -0.871253 -0.756661 -0.947076 0 0 0 -0.727551 -0.565674 0.389466 30.53 -44.4955 -45.3882 9.17272 -4.62218 -3.4321 0.04 
960 1 1 -0.743631 -0.760437 -0.95411 0 0 0 0.0777669 -0.0119963 0.356916 -19.4448 -7.16225 -5.90176 -1.62017 7.02649 7.03982 0.04 
567 1 1 -0.667912 -0.736729 -0.956126 0 0 0 0.468912 -0.154888 0.247508 50.7147 -17.4611 -81.868 -0.459609 -1.51466 10.9675 0.04 
1127 1 1 -0.575471 -0.804781 -0.959072 0 0 0 0.405433 -0.459208 -0.380947 -20.0952 0.69902 -5.06057 1.901 -3.05127 -0.152329 0.04 
709 1 1 -0.480403 -0.727288 -0.949785 0 0 0 -0.286071 0.221047 -0.298925 -9.45971 -94.7017 3.15949 1.16819 1.89136 -1.19277 0.04 
511 1 1 -0.398149 -0.787019 -0.960745 0 0 0 -0.610954 -0.503769 -0.0570373 -72.7947 -68.2969 16.8174 0.0234584 -1.74407 -3.5929 0.04 
873 1 1 -0.222042 -0.802652 -0.957898 0 0 0 0.235255 -1.30611 -0.363255 20.7577 50.2285 -2.5167 8.73096 7.55217 -12.1327 0.04 
962 1 1 -0.111075 -0.759011 -0.953995 0 0 0 0.170858 -0.911962 0.413914 -27.4203 -109.735 -42.5233 -5.82877 -4.96835 8.85755 0.04 
950 1 1 -0.0362162 -0.801599 -0.938483 0 0 0 -0.156608 0.253558 -0.276896 0 0 -6.57473 11.7356 1.10378 5.7429 0.04 
143 1 1 0.0566102 -0.738147 -0.952691 0 0 0 -0.434776 -0.540393 -0.300978 23.1435 -98.3466 -22.7007 8.8858 8.06349 12.1143 0.04 
1122 1 1 0.137855 -0.782185 -0.957913 0 0 0 0.193498 -0.686798 1.18092 -59.4251 0.869325 -151.654 16.0137 7.0219 3.52375 0.04 
867 1 1 0.309678 -0.733509 -0.96196 0 0 0 0.755181 0.136464 -0.534214 -4.46179 -3.71597 109.556 9.44861 3.79584 1.90448 0.04 
880 1 1 0.616711 -0.789237 -0.960509 0 0 0 0.537312 -1.55554 0.406242 -140.516 21.7237 -53.9187 4.81997 9.59921 -7.92056 0.04 
553 1 1 0.868632 -0.793476 -0.950138 0 0 0 -0.119068 -0.941421 -0.0933666 -14.8475 38.5566 -5.11263 0.0806552 -6.44695 12.9876 0.04 
1142 1 1 -0.760441 -0.674726 -0.952766 0 0 0 -0.429215 -0.922445 -0.222494 -57.2191 -72.0137 4.41653 14.7946 -5.76517 -3.65944 0.04 
893 1 1 -0.560283 -0.724716 -0.94486 0 0 0 0.692125 -0.0405914 -0.416326 0 0 -6.57473 -9.88243 7.77147 0.0457285 0.04 
344 1 1 -0.416967 -0.6804 -0.955512 0 0 0 -0.142017 -0.125312 0.0939535 25.6208 20.0066 -11.0803 3.02629 -3.9802 -4.46072 0.04 
382 1 1 -0.341431 -0.735944 -0.950209 0 0 0 -0.0114345 -0.127952 -0.220196 74.343 69.7339 12.2818 -2.59933 -0.619058 2.32917 0.04 
883 1 1 -0.258311 -0.714664 -0.946238 0 0 0 0.435222 -0.423248 -0.433844 2.19629 5.34178 -11.5123 -1.70472 4.54257 4.98236 0.04 
868 1 1 -0.182031 -0.683068 -0.960743 0 0 0 0.191409 -0.5877 0.65467 78.3986 -99.6182 27.0155 -1.48246 -0.97213 1.15755 0.04 
1066 1 1 -0.0602353 -0.702637 -0.962176 0 0 0 -0.673269 -0.976848 -0.694796 56.6939 64.1851 18.0058 -6.82376 6.73239 -0.673503 0.04 
1271 1 1 0.00870859 -0.678673 -0.937639 0 0 0 -0.423238 -0.737025 -0.63459 48.1389 92.4875 41.6848 4.69425 0.0885956 1.7251 0.04 
1030 1 1 0.0998894 -0.672819 -0.959583 0 0 0 -0.608225 -0.0869262 -0.313604 19.4098 -22.3285 -2.24939 -0.690403 1.15878 -8.1229 0.04 
1346 1 1 0.184448 -0.708806 -0.960737 0 0 0 0.606746 0.276562 -0.229392 -1.45583 -1.65186 37.4619 7.4161 2.62215 -0.376666 0.04 
772 1 1 0.398675 -0.721898 -0.955904 0 0 0 -0.641072 0.645021 0.327931 2.35218 -0.037382 -10.269 7.91174 12.2341 6.82965 0.04 
408 1 1 0.534655 -0.709469 -0.952542 0 0 0 0.978488 0.767843 0.419967 178.192 116.73 -37.2463 3.75568 -4.52051 5.30241 0.04 
1111 1 1 0.616288 -0.702128 -0.945438 0 0 0 0.122226 -0.794281 -0.0649094 -24.5397 0.533753 -3.87397 -2.68512 -1.74003 1.5486 0.04 
840 1 1 0.69526 -0.705275 -0.950423 0 0 0 0.817443 -0.841226 0.179836 -35.354 -69.0914 0.367855 2.99197 5.20495 2.41481 0.04 
1107 1 1 0.799438 -0.702247 -0.962693 0 0 0 0.256412 -0.157203 0.0458198 6.34074 -17.3601 121.266 -3.40533 4.83672 -14.8143 0.04 
771 1 1 0.961768 -0.665922 -0.960835 0 0 0 -0.473193 1.00456 0.405491 -91.7925 -5.34551 31.526 1.09045 -3.3886 -11.1845 0.04 
1055 1 1 -0.950718 -0.660229 -0.960149 0 0 0 -0.444432 -0.45863 -0.624495 13.5578 -102.442 -52.6224 4.92601 7.70152 -5.11588 0.04 
990 1 1 -0.850296 -0.663059 -0.959467 0 0 0 0.594491 -0.310539 0.485887 13.7426 -61.4813 -17.7806 5.3277 8.13032 7.0951 0.04 
969 1 1 -0.709755 -0.616976 -0.961054 0 0 0 0.599583 -0.432456 0.269953 49.3269 -17.8443 -42.7308 -1.70905 2.41408 8.32881 0.04 
435 1 1 -0.640534 -0.662056 -0.960256 0 0 0 0.0545543 0.0868601 0.0134035 4.52756 10.9849 7.45618 14.0776 3.89752 -3.3119 0.04 
230 1 1 -0.570598 -0.619701 -0.952823 0 0 0 0.244087 0.204712 -0.077131 0 0 -6.57473 -2.58963 3.17799 7.75807 0.04 
857 1 1 -0.496497 -0.651556 -0.959312 0 0 0 -0.0101744 -0.0826758 -0.462294 -40.2013 36.3652 -13.4688 4.96587 2.57368 1.4705 0.04 
1124 1 1 -0.230319 -0.624502 -0.964157 0 0 0 -1.53115 0.43162 0.318767 -69.4451 102.427 215.315 1.78379 -13.5151 2.84402 0.04 
201 1 1 -0.117305 -0.635925 -0.956464 0 0 0 -0.335105 0.191957 0.640219 -1.23635 6.6889 -13.7694 1.53835 -1.04909 -2.14977 0.04 
315 1 1 0.220604 -0.627777 -0.957088 0 0 0 0.82156 0.080598 -0.107744 0 0 -6.57473 10.6871 0.466529 -8.84563 0.04 
780 1 1 0.296989 -0.594408 -0.959364 0 0 0 0.228223 0.723478 0.202241 0 0 -6.57473 -2.29993 -1.4745 1.37228 0.04 
1148 1 1 0.348861 -0.653739 -0.936459 0 0 0 -0.440683 -0.297885 0.944617 0 0 -6.57473 8.46987 -14.1233 3.71396 0.04 
220 1 1 0.44053 -0.640082 -0.954318 0 0 0 -1.24672 0.196021 -0.37188 0 0 -6.57473 -5.77309 4.0873 9.07263 0.04 
806 1 1 0.675364 -0.610923 -0.935129 0 0 0 0.97195 0.426182 1.39362 0 0 -6.57473 7.02412 13.8131 -7.92104 0.04 
499 1 1 0.745029 -0.645779 -0.955112 0 0 0 -0.633727 -0.857153 0.676224 31.2259 101.192 -12.8847 -5.75691 8.8076 14.4587 0.04 
852 1 1 0.885308 -0.630628 -0.921075 0 0 0 0.0650556 0.758663 0.26931 0 0 -6.57473 10.7193 6.33861 -1.51621 0.04 
326 1 1 -0.955412 -0.583627 -0.95056 0 0 0 0.148066 -0.147197 -0.475836 -5.46762 94.0938 10.0093 23.2331 2.92858 -11.3651 0.04 
739 1 1 -0.866628 -0.587026 -0.949557 0 0 0 0.22448 -0.889871 -0.905686 -13.7426 61.4813 4.63114 -0.998784 -7.97362 11.5852 0.04 
1037 1 1 -0.51244 -0.53642 -0.960253 0 0 0 -0.483956 0.174838 -0.711979 -33.3247 67.5719 -38.1597 -11.164 -1.80435 -2.3708 0.04 
116 1 1 -0.452805 -0.586197 -0.955031 0 0 0 0.56975 -0.0519845 0.295318 75.4729 -10.8696 -2.36498 0.656725 -10.3067 -0.714654 0.04 
710 1 1 -0.293519 -0.579049 -0.943855 0 0 0 0.190116 -0.102543 -0.709807 0 0 -6.57473 14.3573 7.49496 -11.2379 0.04 
128 1 1 -0.125831 -0.534916 -0.961398 0 0 0 -0.420787 0.531647 0.402888 -67.8888 -11.0071 -29.515 11.9041 -1.86607 -4.7005 0.04 
1249 1 1 0.0130221 -0.595713 -0.934674 0 0 0 1.46049 0.0491623 1.46199 0 0 -6.57473 -3.61108 10.7533 0.840167 0.04 
1216 1 1 0.223728 -0.543594 -0.936043 0 0 0 1.37909 -0.86585 -0.783253 -113.14 -111.992 -95.6046 1.96506 -0.0234149 9.13006 0.04 
1069 1 1 0.38299 -0.577398 -0.948003 0 0 0 -0.807151 -0.33821 0.560903 26.6181 -57.511 -4.42654 2.86031 -3.61565 -3.47268 0.04 
361 1 1 0.556532 -0.573608 -0.95934 0 0 0 -0.653975 0.726185 0.426832 0 0 -6.57473 -2.02751 13.0197 -14.7252 0.04 
182 1 1 0.809247 -0.589884 -0.944535 0 0 0 0.573021 0.916519 -0.316803 0 0 -6.57473 -4.05898 2.17305 5.82473 0.04 
975 1 1 0.949149 -0.57033 -0.960708 0 0 0 -0.0384374 -0.0823889 -0.659611 -1.51734 1.8597 41.4287 -1.66591 -4.02019 -10.7544 0.04 
657 1 1 -0.959829 -0.498204 -0.933273 0 0 0 0.386228 -0.307152 0.092067 0 0 -6.57473 10.2378 -0.937807 -2.90518 0.04 
1215 1 1 -0.79798 -0.5292 -0.953252 0 0 0 -0.785358 -0.0208837 0.147015 0 0 -6.57473 3.72114 -4.61222 9.7202 0.04 
76 1 1 -0.717449 -0.541961 -0.946898 0 0 0 -0.341421 0.356962 0.386786 -5.75684 111.727 14.8356 1.9423 -4.44273 4.79064 0.04 
1286 1 1 -0.569276 -0.477984 -0.956935 0 0 0 -0.541011 0.0195612 -0.170529 27.2458 -18.2851 -6.93668 -4.35834 -3.26456 -3.04492 0.04 
945 1 1 -0.358638 -0.515857 -0.948398 0 0 0 0.550406 -0.0357616 -0.328966 -51.9372 20.0928 -94.3335 -0.655128 13.0408 -14.1618 0.04 
1095 1 1 -0.207654 -0.443438 -0.949697 0 0 0 0.435099 0.902071 0.576887 0 0 -6.57473 0.163456 7.62209 1.85777 0.04 
807 1 1 0.0793896 -0.53305 -0.948405 0 0 0 1.8516 0.0949556 -0.0717534 -177.181 189.377 67.3433 -4.22572 2.05479 1.01975 0.04 
752 1 1 0.352329 -0.505588 -0.953785 0 0 0 0.175698 -0.113952 -0.673253 -92.6098 50.6871 -28.509 3.21149 8.67025 7.18412 0.04 
885 1 1 0.605925 -0.488566 -0.959368 0 0 0 -0.435254 0.0498192 0.294852 0 0 -6.57473 -0.168781 3.84667 -15.9252 0.04 
1379 1 1 0.688801 -0.520926 -0.952984 0 0 0 -0.115187 0.0566365 1.35637 0 0 -6.57473 -3.14064 -1.07237 -1.06533 0.04 
627 1 1 0.765977 -0.481014 -0.95803 0 0 0 -0.332978 -0.00158376 0.0816611 0 0 -6.57473 -2.96071 -6.48152 0.957465 0.04 
1206 1 1 0.853951 -0.461436 -0.953577 0 0 0 -0.571338 0.241581 0.294123 0 0 -6.57473 6.45249 -9.15106 -0.480113 0.04 
1130 1 1 0.940417 -0.472151 -0.947484 0 0 0 0.132086 0.941752 -0.489977 4.21297 -103.902 1.99526 3.17737 10.0595 0.972285 0.04 
283 1 1 -0.707445 -0.456972 -0.950646 0 0 0 0.231113 -0.815823 0.656904 -83.7528 -23.6331 -2.69669 -10.2982 4.32349 -6.47807 0.04 
1203 1 1 -0.633857 -0.432529 -0.952525 0 0 0 0.0533561 0.838888 1.10076 56.507 41.9182 -10.0908 -8.6368 0.55598 -1.14229 0.04 
1084 1 1 -0.454554 -0.46007 -0.954668 0 0 0 0.398558 0.461126 0.403733 0 0 -6.57473 7.00732 0.327178 6.14485 0.04 
1198 1 1 -0.0425836 -0.438677 -0.961596 0 0 0 -2.59299 0.00543437 -1.8234 -140.135 -54.5338 59.4159 6.40619 1.73414 -0.615778 0.04 
1102 1 1 0.127376 -0.470813 -0.951391 0 0 0 -0.577666 -0.216082 -0.586828 -24.1006 49.6378 -51.5382 1.68898 10.9037 6.67266 0.04 
1012 1 1 0.194463 -0.406006 -0.952536 0 0 0 -0.477203 0.131744 1.3972 7.57165 107.6 -86.1964 5.99861 -11.2717 -6.25831 0.04 
685 1 1 0.366448 -0.418163 -0.961827 0 0 0 -0.492485 -0.504766 -0.628046 5.44705 0.74041 103.368 10.6409 4.0378 -1.8999 0.04 
864 1 1 0.540307 -0.417652 -0.964653 0 0 0 0.94458 0.168085 -0.905189 4.31905 -44.7143 164.908 8.74407 -1.00425 -2.86513 0.04 
671 1 1 0.61471 -0.379693 -0.940047 0 0 0 0.106079 0.794582 0.941387 0 0 -6.57473 -10.9252 -2.92825 4.28033 0.04 
660 1 1 -0.849732 -0.318511 -0.928082 0 0 0 -0.11079 1.10962 0.836438 0 0 -6.57473 3.41033 2.88246 -3.22417 0.04 
1150 1 1 -0.704865 -0.326411 -0.957028 0 0 0 0.183988 0.155219 1.02819 0 0 -6.57473 -3.80301 0.191368 -6.24162 0.04 
618 1 1 -0.526 -0.331307 -0.957214 0 0 0 0.298369 0.822776 0.0220692 0 0 -6.57473 -7.42664 -9.97125 18.1979 0.04 
1235 1 1 -0.438924 -0.360504 -0.960778 0 0 0 -0.883627 0.468243 -0.103383 2.10424 -0.752761 38.1219 -3.07615 2.13694 -6.93477 0.04 
619 1 1 -0.258049 -0.335579 -0.950491 0 0 0 0.802702 0.032172 -0.0456736 -8.7674 7.51734 -6.3787 -11.6692 -0.284149 3.338 0.04 
1236 1 1 -0.147236 -0.35878 -0.95101 0 0 0 0.125443 0.816789 -1.27931 -16.2145 -6.9835 -44.8586 2.50593 -0.587072 10.7531 0.04 
906 1 1 0.0817154 -0.348078 -0.943651 0 0 0 -1.29579 -2.4134 0.882152 0 0 -6.57473 -14.1194 16.4454 -1.9907 0.04 
557 1 1 0.285803 -0.409245 -0.937297 0 0 0 0.652044 -0.505348 1.00997 4.80866 36.317 -13.0445 -0.907457 -10.1259 -0.835489 0.04 
1126 1 1 0.373382 -0.340175 -0.943966 0 0 0 1.30579 -0.198899 1.84725 0 0 -6.57473 -0.616485 0.994736 -14.7529 0.04 
1096 1 1 0.448396 -0.396655 -0.957418 0 0 0 -0.519889 -0.383578 -0.0707573 0 0 -6.57473 5.6333 7.85453 4.63977 0.04 
539 1 1 0.770416 -0.374143 -0.951139 0 0 0 1.30336 0.428783 -0.559539 0 0 -6.57473 -6.35606 -6.58118 6.85546 0.04 
659 1 1 0.937894 -0.395521 -0.957634 0 0 0 0.00631607 0.00474102 -0.968236 34.7674 106.464 -76.4616 -2.57987 -3.96022 5.1579 0.04 
1239 1 1 -0.957397 -0.34727 -0.957473 0 0 0 -0.867924 -0.542289 0.323698 0 0 -6.57473 -11.5282 6.69472 -0.336621 0.04 
1208 1 1 -0.624808 -0.314837 -0.940281 0 0 0 0.949118 0.314455 1.30125 0 0 -6.57473 3.58103 0.0620571 -6.62511 0.04 
724 1 1 -0.404939 -0.267718 -0.961795 0 0 0 0.343994 0.901813 0.134279 -4.3656 -2.25614 91.7078 -9.82129 -16.8292 4.49382 0.04 
1196 1 1 -0.317746 -0.282414 -0.952835 0 0 0 -0.551404 1.07411 0.643202 14.8518 -26.6893 -17.096 -4.76923 2.62388 -11.9487 0.04 
638 1 1 -0.175469 -0.301124 -0.905383 0 0 0 0.618415 0.0590541 2.41561 -13.2999 26.4863 12.3647 3.05634 10.8355 7.4819 0.04 
1466 1 1 0.23112 -0.317298 -0.956278 0 0 0 -1.47543 -0.409447 0.844336 -12.8061 -28.8479 -32.9898 6.10287 -11.1739 -0.945343 0.04 
1170 1 1 0.464307 -0.317265 -0.95844 0 0 0 0.55333 -0.0998556 -0.0183906 0 0 -6.57473 5.55394 12.8683 -9.0041 0.04 
791 1 1 0.572284 -0.309175 -0.9625 0 0 0 -0.135507 -0.906223 0.306776 5.06325 -4.49135 128.79 25.6242 -1.02284 1.13032 0.04 
1121 1 1 -0.955558 -0.256129 -0.957135 0 0 0 -1.04622 -0.347158 -0.238344 0 0 -6.57473 -0.227874 5.81867 -8.5112 0.04 
1160 1 1 -0.72408 -0.234393 -0.956941 0 0 0 0.292087 0.973105 0.0366312 0 0 -6.57473 4.931 1.4699 6.9916 0.04 
319 1 1 -0.64396 -0.223218 -0.954614 0 0 0 0.616081 1.07105 -0.431538 0 0 -6.57473 1.29586 -6.26793 4.5048 0.04 
732 1 1 -0.134483 -0.227116 -0.957196 0 0 0 0.728537 -0.194901 0.01449 -58.5458 -19.9333 -16.3291 -10.1424 -10.5098 6.28778 0.04 
1137 1 1 -0.0622741 -0.198607 -0.94622 0 0 0 -0.465299 1.66151 -0.718932 -2.6825 -51.91 -56.1834 -3.49205 5.70659 -0.715176 0.04 
1154 1 1 0.133143 -0.272065 -0.940107 0 0 0 0.424318 1.26354 -0.390683 -101.223 15.7309 -152.69 -12.4448 -0.740259 6.525 0.04 
1429 1 1 0.339913 -0.246278 -0.933136 0 0 0 -0.178048 1.01854 1.10722 0 0 -6.57473 0.559984 -1.44746 -3.64447 0.04 
279 1 1 0.487788 -0.210476 -0.956073 0 0 0 -1.05033 0.979753 0.71062 -148.277 13.7419 -17.7679 -13.3735 6.68999 2.84006 0.04 
846 1 1 0.562883 -0.220837 -0.95209 0 0 0 -0.963945 0.271568 0.287577 148.277 -13.7419 4.61848 12.7914 -4.01513 -3.68288 0.04 
1248 1 1 0.743691 -0.250859 -0.907743 0 0 0 0.190121 -0.531424 1.63924 -211.173 -27.3096 -154.503 -14.8255 8.6735 9.16418 0.04 
973 1 1 0.924786 -0.270148 -0.947531 0 0 0 0.950347 -1.1273 0.141505 0 0 -6.57473 -7.56194 -10.5408 -7.03149 0.04 
474 1 1 -0.947241 -0.157588 -0.937215 0 0 0 -0.402923 0.0139766 0.302846 0 0 -6.57473 -10.2092 2.79572 -6.80815 0.04 
1364 1 1 -0.834248 -0.146082 -0.962182 0 0 0 0.296717 0.905425 -0.374666 -22.1511 -23.9775 115.834 0.484049 9.55091 -12.9411 0.04 
938 1 1 -0.755902 -0.150012 -0.956668 0 0 0 1.01096 0.347228 0.8528 43.9254 -2.05768 -5.68081 -8.15729 0.531725 1.65371 0.04 
899 1 1 -0.651321 -0.117627 -0.959726 0 0 0 1.22829 0.666363 -0.417064 0 0 -6.57473 -14.3025 6.28366 -11.845 0.04 
1342 1 1 -0.555926 -0.176376 -0.916634 0 0 0 2.12136 0.872458 2.03901 0 0 -6.57473 9.39824 11.8202 -4.77709 0.04 
1209 1 1 -0.468672 -0.119968 -0.959741 0 0 0 -0.121619 1.61959 0.64214 65.1723 -52.4576 -17.2679 -11.4691 6.4305 3.65281 0.04 
1298 1 1 -0.275152 -0.135347 -0.961858 0 0 0 -0.237076 0.518152 0.219585 -34.8692 -16.2766 5.16187 -0.566179 5.62657 -1.94895 0.04 
1351 1 1 -0.162885 -0.129811 -0.95606 0 0 0 -0.469509 0.905622 -0.687612 0 0 -6.57473 3.92363 -8.21531 7.23525 0.04 
1329 1 1 0.139254 -0.105177 -0.958894 0 0 0 -1.37327 2.14102 0.270825 0 0 -6.57473 -0.633031 -6.55951 17.2233 0.04 
761 1 1 0.212697 -0.15195 -0.935518 0 0 0 0.901288 1.32006 0.491638 0 0 -6.57473 12.473 -1.55737 7.18154 0.04 
1425 1 1 0.413906 -0.194786 -0.900759 0 0 0 -0.772656 0.116343 1.75378 1.05992 -0.680931 -6.74462 9.95797 15.7745 8.21084 0.04 
1178 1 1 0.638117 -0.182259 -0.965016 0 0 0 -1.42474 -1.84614 -0.604949 8.86176 11.3106 280.799 -5.50154 4.88812 2.82444 0.04 
500 1 1 0.865895 -0.17735 -0.964888 0 0 0 0.0559108 1.34156 0.371801 -5.97074 -11.9742 261.031 -18.2284 -7.25059 -2.84332 0.04 
40 1 1 0.94703 -0.147155 -0.927086 0 0 0 0.157495 1.62822 -0.00158819 0 0 -6.57473 7.7439 -6.2416 -8.32344 0.04 
1287 1 1 -0.894326 -0.0947517 -0.955991 0 0 0 0.429416 0.631538 -0.34363 -21.2935 19.731 -3.42808 4.34579 7.51606 -2.85837 0.04 
572 1 1 -0.735951 -0.0631922 -0.938391 0 0 0 0.753801 0.283657 0.495452 0 0 -6.57473 -7.36565 19.4401 5.05425 0.04 
1166 1 1 -0.53009 -0.0724933 -0.953428 0 0 0 0.502165 1.05629 0.298198 -65.1723 52.4576 4.11841 -3.85818 19.6693 -7.50491 0.04 
1225 1 1 0.0507692 -0.0850171 -0.908241 0 0 0 0.315364 1.70667 1.26924 38.4977 9.69416 -62.4258 -20.8327 -8.862 13.3601 0.04 
1257 1 1 0.210277 -0.057111 -0.927237 0 0 0 -0.94137 0.234711 1.24821 0 0 -6.57473 8.98695 9.50771 8.49062 0.04 
1318 1 1 0.306386 -0.0807216 -0.962473 0 0 0 0.183541 1.47786 -1.16678 2.05362 -7.36586 146.361 9.85076 18.0949 -12.9898 0.04 
1476 1 1 0.467137 -0.0573514 -0.962731 0 0 0 -0.17019 1.19645 -0.0552647 -3.19584 -6.94665 146.356 6.02286 -21.4216 -8.45615 0.04 
409 1 1 0.569656 -0.124093 -0.95649 0 0 0 0.790833 -0.370587 0.280958 0 0 -6.57473 -6.34079 6.92506 -4.96601 0.04 
838 1 1 0.632583 -0.0447718 -0.957301 0 0 0 1.27456 1.23102 -0.235729 0 0 -6.57473 15.7037 -2.24692 30.9796 0.04 
1247 1 1 0.771502 -0.0814335 -0.940145 0 0 0 -0.220127 0.142651 -0.552892 0 0 -6.57473 -4.71623 18.3914 6.53209 0.04 
839 1 1 0.266443 0.026053 -0.932926 0 0 0 0.0941328 1.89085 0.954056 0 0 -6.57473 -20.8284 -14.4648 -7.15115 0.04 
569 1 1 0.956713 -0.022086 -0.955814 0 0 0 -0.754346 0.234899 0.825597 0 0 -6.57473 -8.6716 -5.14989 -9.63317 0.04 
129 1 1 -0.947406 0.0326783 -0.960208 0 0 0 0.0587683 0.178459 -0.189493 0.301171 -0.634962 7.48061 2.35196 4.70993 -2.5645 0.04 
597 1 1 -0.854644 0.0443058 -0.951907 0 0 0 0.591304 0.547429 0.153007 0 0 -6.57473 -12.2946 2.87579 10.1451 0.04 
874 1 1 -0.679793 0.039315 -0.944434 0 0 0 1.49341 0.529198 -0.339738 0 0 -6.57473 -3.0116 -15.1013 11.4567 0.04 
1119 1 1 -0.432129 0.043987 -0.953623 0 0 0 -0.0193349 0.338321 1.09538 0 0 -6.57473 -14.0715 2.71537 2.3841 0.04 
1333 1 1 -0.355591 0.115349 -0.9616 0 0 0 0.226286 1.86153 -0.702974 81.17 -18.0419 65.2827 -8.96472 -4.98844 -9.70122 0.04 
1449 1 1 -0.221705 0.0581644 -0.957173 0 0 0 -0.824617 1.86601 -0.442285 0 0 -6.57473 0.582514 12.4457 -7.07804 0.04 
1197 1 1 0.163499 0.0607249 -0.96176 0 0 0 0.475362 1.60742 -0.5279 -1.63134 -4.98587 98.3446 -13.4992 3.1248 24.8253 0.04 
877 1 1 0.367435 0.0464306 -0.923971 0 0 0 -0.981883 0.00163931 0.420637 0 0 -6.57473 -9.43502 2.40495 -1.6681 0.04 
1181 1 1 0.520298 0.00352776 -0.951117 0 0 0 -1.26289 0.149846 0.357595 0 0 -6.57473 7.66424 -4.13412 -23.6074 0.04 
1242 1 1 0.72313 0.0496337 -0.952001 0 0 0 -0.31094 0.552176 0.815912 0 0 -6.57473 -9.2526 -9.99713 10.7597 0.04 
892 1 1 0.825371 0.0691147 -0.963871 0 0 0 -0.869079 1.40631 -0.838406 -1.6387 -25.8476 162.912 -16.3635 7.97361 13.2045 0.04 
1327 1 1 -0.570982 0.104251 -0.921804 0 0 0 1.0339 -0.236823 0.598122 60.8764 150.822 -17.7803 12.7332 14.9806 -0.430466 0.04 
527 1 1 -0.428226 0.125289 -0.93477 0 0 0 2.87423 1.5318 0.1573 -82.4678 13.3027 19.8432 -13.7771 22.2938 1.33725 0.04 
651 1 1 -0.139345 0.122129 -0.963048 0 0 0 -1.00078 1.27723 0.717874 2.647 -7.57819 153.969 -2.14241 -15.179 -0.346425 0.04 
1440 1 1 0.347528 0.153063 -0.944554 0 0 0 0.127036 2.22822 -0.181819 0 0 -6.57473 -27.2621 -14.7924 -13.2478 0.04 
243 1 1 0.499021 0.124662 -0.922569 0 0 0 -0.0469506 0.871032 0.560553 0 0 -6.57473 -28.0742 17.325 -2.94386 0.04 
1392 1 1 0.616629 0.192467 -0.958696 0 0 0 0.886778 1.13186 0.741826 -0.117596 -13.0355 -20.1047 -13.889 13.0892 7.82818 0.04 
630 1 1 0.90179 0.182463 -0.928959 0 0 0 0.109713 2.2103 0.901691 0 0 -6.57473 -33.7347 -1.4751 -10.1998 0.04 
1075 1 1 -0.946817 0.151196 -0.937224 0 0 0 0.344221 0.412896 0.431384 0 0 -6.57473 -13.6646 4.07388 -1.0747 0.04 
730 1 1 -0.772457 0.196001 -0.918463 0 0 0 1.49374 1.7501 0.942269 0 0 -6.57473 -29.396 -6.49955 -8.99528 0.04 
921 1 1 -0.196627 0.186769 -0.952089 0 0 0 -1.47668 1.82771 -1.02879 -29.6666 -0.202968 -51.9652 -17.0724 -3.51308 -21.5091 0.04 
1352 1 1 0.432705 0.213063 -0.937553 0 0 0 -0.5735 2.52577 -0.339914 0 0 -6.57473 -9.82633 -0.563311 1.15969 0.04 
909 1 1 -0.961601 0.265773 -0.962797 0 0 0 0.19432 0.529545 0.587757 89.6108 -6.65871 137.347 -3.2847 8.26123 14.3461 0.04 
574 1 1 -0.824408 0.246067 -0.965218 0 0 0 -0.261783 -0.347771 0.75389 5.30978 14.7576 279.256 -8.2363 -1.07162 8.05739 0.04 
1167 1 1 -0.718522 0.265594 -0.935682 0 0 0 1.06308 2.02747 0.508385 6.79451 -5.78764 -4.18455 -22.2174 10.8833 1.98516 0.04 
744 1 1 -0.573489 0.284293 -0.956125 0 0 0 0.496726 1.51722 0.133447 -27.3635 -26.6794 -13.2536 5.27442 4.81447 -6.437 0.04 
691 1 1 -0.399642 0.290967 -0.956061 0 0 0 -0.485857 1.64612 -0.00505988 -7.45232 18.2924 -26.691 4.22535 4.02506 0.605466 0.04 
1022 1 1 -0.0279557 0.25927 -0.96091 0 0 0 1.51854 1.74308 0.689637 -1.54905 -1.40128 35.2016 -11.8505 2.77181 -0.291262 0.04 
1252 1 1 0.139652 0.285837 -0.938216 0 0 0 0.806775 2.14821 0.245096 0 0 -6.57473 -12.0181 -2.47803 -3.5822 0.04 
423 1 1 0.614251 0.245434 -0.899798 0 0 0 0.738358 1.45251 2.05962 0.117596 13.0355 6.95524 14.7487 -0.916959 -14.1424 0.04 
1186 1 1 0.743292 0.276334 -0.940764 0 0 0 0.623299 1.86847 0.939038 0 0 -6.57473 -14.9462 14.9434 -9.38526 0.04 
954 1 1 0.841079 0.26955 -0.945687 0 0 0 0.701306 1.64771 0.885978 9.06767 -11.2653 -18.1259 -18.2785 -4.62427 1.28207 0.04 
900 1 1 -0.887638 0.297381 -0.954297 0 0 0 0.414768 0.249394 1.01336 0 0 -6.57473 -1.47027 -2.85247 -5.1773 0.04 
1395 1 1 -0.77756 0.313475 -0.959689 0 0 0 0.425939 0.623313 -1.28902 -42.8456 -111.275 -77.368 14.0577 6.8946 1.42807 0.04 
992 1 1 -0.515188 0.335762 -0.943387 0 0 0 2.46184 0.529685 -0.569397 26.7723 7.43381 -34.4682 -12.2839 4.25451 -2.88631 0.04 
1272 1 1 -0.461476 0.320804 -0.877481 0 0 0 1.6642 0.992855 1.64241 39.8032 -36.8404 -8.8795 -11.289 9.97727 -8.36271 0.04 
1058 1 1 -0.338702 0.35274 -0.961309 0 0 0 0.658425 1.61473 1.07945 -2.16698 -1.99703 52.3623 -13.4952 -13.1678 8.30256 0.04 
186 1 1 0.208124 0.340881 -0.939187 0 0 0 -1.36251 1.5735 -0.188582 -86.5918 130.225 -15.7006 -17.0967 -6.6442 3.49959 0.04 
941 1 1 0.365004 0.352264 -0.959986 0 0 0 0.481899 1.43164 0.722045 0 0 -6.57473 7.91366 3.55399 -16.6357 0.04 
1035 1 1 0.644587 0.364506 -0.939943 0 0 0 -1.17527 2.54882 0.663443 0 0 -6.57473 -15.1073 17.7423 11.5082 0.04 
148 1 1 0.946509 0.283568 -0.952869 0 0 0 -0.240462 0.0909385 -0.024981 0 0 -6.57473 -15.2059 1.43304 2.68711 0.04 
389 1 1 -0.78452 0.425304 -0.952394 0 0 0 -1.61081 0.725602 -0.415698 0 0 -6.57473 -3.63904 -5.95304 -13.562 0.04 
1140 1 1 -0.723429 0.3689 -0.954245 0 0 0 -1.25609 0.564919 -0.398217 67.486 66.2048 -4.21023 -23.5015 -7.42494 13.0236 0.04 
325 1 1 -0.523805 0.44898 -0.950886 0 0 0 0.570152 1.86796 0.191458 100.628 -91.8224 -33.7944 -22.0172 -10.2302 5.37235 0.04 
683 1 1 -0.282627 0.462962 -0.96011 0 0 0 1.59971 2.48422 0.127341 -0.0946574 -0.202632 -2.10171 -6.36808 13.9708 4.12031 0.04 
721 1 1 -0.212112 0.410035 -0.957167 0 0 0 -0.18051 0.473374 1.01977 0 0 -6.57473 -12.8703 -4.88297 2.17551 0.04 
1266 1 1 -0.014073 0.353161 -0.944331 0 0 0 -0.450574 -0.107282 -0.176241 0 0 -6.57473 -21.579 30.0291 -8.17193 0.04 
1153 1 1 0.115802 0.412696 -0.947305 0 0 0 1.47998 0.603763 0.0836685 0 0 -6.57473 2.23628 8.047 -6.43405 0.04 
1274 1 1 0.614913 0.449907 -0.961891 0 0 0 -0.736127 3.35099 -0.581748 0.860496 -5.57945 106.334 -15.3796 -7.98608 1.35463 0.04 
447 1 1 0.741359 0.367756 -0.946 0 0 0 0.843884 0.0330582 2.09994 0 0 -6.57473 15.1304 23.2103 24.6053 0.04 
818 1 1 0.858591 0.419722 -0.957808 0 0 0 -0.346389 2.22908 -0.323908 -52.1593 -36.8266 -64.7695 -31.1542 5.3624 -20.7878 0.04 
1081 1 1 -0.859134 0.461835 -0.937675 0 0 0 1.04651 0.360071 -0.391735 101.615 83.098 -12.9858 1.10511 -12.2131 -4.7382 0.04 
774 1 1 -0.661147 0.473018 -0.960154 0 0 0 0.10866 1.10002 -1.17544 13.8137 -11.6362 -16.0124 -18.5079 -2.83753 -7.60426 0.04 
90 1 1 -0.419553 0.435762 -0.954776 0 0 0 1.66391 0.316904 -0.175706 0 0 -6.57473 -8.50946 -17.9012 -0.106639 0.04 