ITEM: TIMESTEP
109200
ITEM: NUMBER OF ATOMS
1500
ITEM: BOX BOUNDS ff ff ff
-1 1
-1 1
-1 1
ITEM: ATOMS id type type x y z ix iy iz vx vy vz fx fy fz omegax omegay omegaz radius 
137 1 1 -0.96011 -0.960152 -0.960202 0 0 0 6.0287e-07 2.37025e-06 1.44481e-06 0.000316953 -0.000457407 -0.000384186 5.39277e-06 -2.08971e-06 3.63617e-05 0.04 
5 1 1 -0.830892 -0.960168 -0.960266 0 0 0 3.16961e-06 1.80818e-06 1.97658e-06 -0.000386906 -0.000273181 -0.000563712 1.43015e-05 7.72451e-05 -0.000104364 0.04 
239 1 1 -0.750973 -0.96014 -0.960255 0 0 0 2.3658e-06 3.54354e-06 -1.08223e-06 0.000159887 -0.000575062 -4.07631e-05 -7.01721e-05 3.22822e-05 7.72834e-05 0.04 
34 1 1 -0.671017 -0.960044 -0.960246 0 0 0 3.17113e-06 1.0306e-05 3.91418e-07 0.000551262 -0.00106814 -2.57658e-05 -0.000212127 -2.68154e-05 1.94137e-05 0.04 
415 1 1 -0.591068 -0.960062 -0.960291 0 0 0 4.59952e-06 9.26211e-06 8.17333e-06 0.000503156 -0.000818914 -0.000930381 -7.36456e-05 5.4957e-05 -0.000116021 0.04 
138 1 1 -0.510834 -0.960069 -0.960241 0 0 0 3.9375e-06 7.40433e-06 6.55261e-06 0.000434555 -0.0010253 -0.000757244 -7.10749e-06 0.00010621 -5.78698e-05 0.04 
323 1 1 -0.43029 -0.959877 -0.960154 0 0 0 8.6239e-06 -1.4558e-05 -7.64396e-06 -0.00101777 0.000648264 -0.000145121 0.000339619 -9.75115e-05 0.000299478 0.04 
130 1 1 -0.350318 -0.960039 -0.960252 0 0 0 1.49661e-05 -2.17621e-06 -2.74887e-07 -0.000942476 0.00148568 0.00096461 0.000166942 0.000253389 -4.40933e-05 0.04 
502 1 1 -0.270343 -0.960118 -0.9603 0 0 0 1.24001e-05 -5.07506e-07 -2.24791e-06 -0.000500554 0.00147021 0.00133825 -8.50876e-05 -3.49659e-05 -4.61951e-05 0.04 
494 1 1 -0.1743 -0.960163 -0.960229 0 0 0 7.64438e-06 -7.30397e-07 -4.68328e-06 -0.000199856 0.000712721 0.000481879 -4.03061e-05 0.000230545 -0.000104891 0.04 
448 1 1 -0.0943155 -0.960146 -0.960266 0 0 0 1.80809e-06 1.11606e-06 -7.52679e-06 -0.000105129 0.000393633 0.000478271 -7.25876e-05 -0.000164145 0.000132605 0.04 
147 1 1 -0.0144649 -0.96016 -0.960215 0 0 0 -3.18177e-06 4.30899e-06 3.4149e-06 -0.000177582 0.000664775 0.000447403 -6.44211e-05 -7.63465e-05 2.45419e-05 0.04 
218 1 1 0.0655312 -0.960172 -0.960209 0 0 0 -4.43016e-06 4.64478e-06 3.54163e-06 -0.000221422 0.00120943 0.000211044 -2.80418e-05 -1.60092e-05 3.76451e-05 0.04 
339 1 1 0.145758 -0.960145 -0.960214 0 0 0 -4.04113e-06 3.41558e-06 2.48307e-06 -0.000470394 0.00104805 -0.000413957 -1.53321e-05 -0.000109772 2.73933e-05 0.04 
81 1 1 0.225734 -0.960094 -0.960178 0 0 0 -2.19723e-06 5.53501e-07 1.0881e-05 -0.000346436 -2.97782e-05 0.00111688 0.00020737 -5.62566e-05 -1.21362e-05 0.04 
341 1 1 0.305651 -0.960069 -0.960157 0 0 0 3.0639e-06 -1.78598e-06 7.21538e-06 0.000606969 -0.000156839 0.000762883 9.78468e-05 8.63333e-05 -2.9459e-05 0.04 
203 1 1 0.385622 -0.960081 -0.960219 0 0 0 6.78982e-06 -8.8008e-06 5.71599e-06 0.00121572 -0.000436749 0.000124035 0.000149312 2.32543e-05 -0.000200355 0.04 
1019 1 1 0.473737 -0.960015 -0.960209 0 0 0 5.82083e-06 3.2238e-07 -9.41697e-06 0.00147196 0.00118971 -0.00142977 -0.000157691 4.52054e-05 -0.000227004 0.04 
821 1 1 0.553721 -0.960025 -0.960231 0 0 0 -5.17334e-06 -1.18007e-05 -1.71777e-05 0.000929636 -0.000279218 -0.00024322 -2.51459e-05 1.09159e-05 5.23544e-05 0.04 
636 1 1 0.633692 -0.960458 -0.9602 0 0 0 -7.45321e-06 -7.69088e-06 4.12907e-06 0.00080088 -0.00018076 -0.00127709 0.000127775 -0.000188211 0.000171284 0.04 
729 1 1 0.720239 -0.960012 -0.96016 0 0 0 -1.74187e-06 -5.13201e-06 4.99135e-06 0.000641229 0.00102445 -0.00170717 0.000155525 -1.11015e-05 3.15054e-05 0.04 
503 1 1 0.800202 -0.960037 -0.960137 0 0 0 -4.95746e-07 -5.21905e-06 2.05915e-06 -0.000484153 -0.000127527 -0.000273458 0.000121765 2.63912e-05 3.01483e-05 0.04 
424 1 1 0.880173 -0.96004 -0.96016 0 0 0 9.8553e-07 -2.22143e-06 1.01284e-06 0.000268251 0.000209257 0.000426598 1.64184e-05 -8.75857e-06 -4.0256e-05 0.04 
850 1 1 0.9601 -0.958946 -0.960223 0 0 0 -6.23509e-07 -1.76948e-07 1.77618e-06 -0.000473288 0.00107803 0.000380297 -3.14373e-05 5.8514e-07 3.46938e-05 0.04 
778 1 1 -0.959929 -0.880401 -0.960216 0 0 0 2.01092e-06 5.36528e-06 3.2613e-06 -0.00121539 5.67226e-05 -0.000439151 -6.31948e-05 8.96752e-05 -2.77609e-05 0.04 
918 1 1 -0.880185 -0.897208 -0.960224 0 0 0 9.3905e-07 5.1375e-06 2.9302e-06 -0.000985112 -0.00133682 -0.00193359 -9.75702e-05 4.39704e-05 0.000136191 0.04 
246 1 1 -0.791824 -0.890617 -0.960152 0 0 0 3.54917e-06 1.09474e-06 -1.36973e-06 -0.00126403 -0.00166569 -0.00109276 -1.20601e-05 9.66413e-05 0.000125997 0.04 
586 1 1 -0.71186 -0.890538 -0.960297 0 0 0 3.21059e-06 5.02771e-06 -1.94131e-06 -0.000745095 -0.00215933 0.000825881 -7.34953e-05 2.09638e-05 -3.58692e-05 0.04 
379 1 1 -0.630909 -0.890721 -0.960191 0 0 0 2.34528e-06 1.18479e-05 -2.51875e-06 -0.000753655 -0.00191392 -0.000820451 -0.000452675 0.000183276 0.000303456 0.04 
105 1 1 -0.550903 -0.890948 -0.960215 0 0 0 2.40643e-06 1.03309e-05 -5.4821e-06 -3.92507e-05 -0.00052973 -0.00139329 -0.000304998 -0.00016484 8.3811e-05 0.04 
289 1 1 -0.471003 -0.890716 -0.96025 0 0 0 8.22868e-06 1.44829e-05 -4.4768e-06 0.000427236 0.00094693 -0.00101138 -0.00031789 0.000201573 -3.84747e-05 0.04 
345 1 1 -0.387251 -0.869037 -0.960118 0 0 0 0.00367121 0.00265485 8.33447e-08 1.01779e-09 7.36019e-10 -2.62424e-05 -0.0664694 0.0919159 0.123384 0.04 
209 1 1 -0.310227 -0.890868 -0.960161 0 0 0 2.97875e-05 -2.61422e-06 1.04126e-05 -1.18632e-05 0.00324215 -0.000289718 0.000295957 0.000620667 -0.000357834 0.04 
647 1 1 -0.222238 -0.896276 -0.960225 0 0 0 1.98459e-05 -1.31711e-06 -1.98284e-06 -0.00018149 0.0018837 0.000999404 1.54995e-06 0.000376071 -3.52114e-05 0.04 
700 1 1 -0.134298 -0.891095 -0.960196 0 0 0 1.06913e-05 1.02987e-06 -9.65549e-06 1.73233e-05 0.000831146 4.90602e-05 -5.87657e-06 0.000216268 -5.28138e-05 0.04 
616 1 1 -0.0544215 -0.890853 -0.960232 0 0 0 3.51809e-06 5.05686e-06 -1.70408e-05 -0.000669261 0.00141656 0.00107079 -0.000211883 7.4466e-06 -0.000149653 0.04 
87 1 1 0.0254598 -0.891074 -0.960203 0 0 0 -5.69927e-06 5.94964e-06 -3.07804e-06 -0.00071904 0.00246444 5.80383e-06 -0.000124689 -0.000102839 0.000184351 0.04 
655 1 1 0.105572 -0.891077 -0.960218 0 0 0 -7.60889e-06 5.82303e-06 -3.05183e-06 -0.000815197 0.00148403 -0.000757018 -0.000127196 -9.43663e-05 9.56186e-06 0.04 
977 1 1 0.18566 -0.890926 -0.960202 0 0 0 -1.19123e-06 5.36984e-06 7.98504e-06 -0.000194324 0.000403565 0.000248145 -0.000243934 -0.000177225 9.163e-05 0.04 
19 1 1 0.265637 -0.890829 -0.960227 0 0 0 4.09001e-06 2.05028e-06 1.50051e-05 0.000256666 0.000479705 0.00208653 -6.24163e-05 0.000197173 -0.000213307 0.04 
443 1 1 0.345634 -0.890855 -0.960248 0 0 0 6.22808e-06 -5.62495e-06 5.49692e-06 0.0010299 0.000348207 0.00238974 8.6574e-05 0.000174671 6.79102e-05 0.04 
664 1 1 0.429599 -0.89332 -0.960215 0 0 0 5.76583e-06 -1.03856e-05 8.27752e-06 0.00135176 0.00109155 -0.00249069 0.000282558 0.000208484 0.000211137 0.04 
74 1 1 0.59436 -0.891144 -0.960225 0 0 0 -1.37883e-05 -1.58931e-05 -1.9232e-06 0.000488828 0.000150617 0.000106595 0.000211385 -0.000592692 -4.8294e-05 0.04 
50 1 1 0.674248 -0.892015 -0.960177 0 0 0 -6.94525e-06 -1.24473e-05 -9.19258e-06 -0.000327229 0.00117312 0.00145691 2.45897e-05 0.000283745 -9.19917e-05 0.04 
1 1 1 0.749841 -0.866832 -0.960242 0 0 0 -4.48928e-06 -1.76453e-05 -9.83898e-06 -0.000610657 0.000911543 0.00130515 0.000416433 5.29347e-05 9.43093e-05 0.04 
812 1 1 0.878013 -0.880136 -0.960204 0 0 0 -6.31155e-06 -6.30811e-06 -2.31045e-06 0.000159675 -0.00150897 0.00047521 -1.34576e-05 -0.000306406 0.000368652 0.04 
446 1 1 -0.960244 -0.800741 -0.960215 0 0 0 6.10876e-07 6.19637e-06 3.33226e-06 -0.00196611 -0.00123752 -0.000977304 -6.67569e-05 -0.000105612 1.58537e-05 0.04 
352 1 1 -0.840947 -0.82753 -0.960338 0 0 0 3.22089e-06 3.00408e-06 5.92743e-06 -0.00145373 -0.00193852 -0.00142114 0.000154741 5.40828e-05 -0.00020328 0.04 
894 1 1 -0.761751 -0.816672 -0.960285 0 0 0 4.70465e-06 4.75331e-07 -3.32023e-06 -0.00165448 -0.00260281 -0.00066848 -0.000133316 1.91035e-05 -0.000129172 0.04 
960 1 1 -0.681852 -0.816441 -0.960115 0 0 0 2.87319e-06 3.38634e-06 7.2935e-07 -0.000950163 -0.00022918 0.000141136 1.71335e-05 -7.79237e-05 0.000141293 0.04 
380 1 1 -0.535213 -0.812503 -0.960157 0 0 0 5.74485e-06 1.0444e-05 -1.40076e-05 -0.00158644 -0.000359321 -0.00151108 -0.000203111 0.00011714 -2.33471e-05 0.04 
720 1 1 -0.25753 -0.82458 -0.96029 0 0 0 2.88597e-05 -1.74521e-06 1.40097e-05 0.000819851 0.00353268 -0.00014798 5.34532e-05 0.000729141 -0.000242005 0.04 
161 1 1 -0.175355 -0.822829 -0.960298 0 0 0 1.84025e-05 1.19039e-06 -5.00779e-06 0.000601343 0.0016053 0.000372954 -0.000109925 0.000553205 -2.24585e-05 0.04 
385 1 1 -0.0954126 -0.82014 -0.960192 0 0 0 3.94953e-06 1.09454e-06 -2.79366e-05 4.38931e-05 0.00114941 -0.000734965 -1.68473e-05 6.31528e-05 -2.70987e-05 0.04 
827 1 1 -0.0151055 -0.821238 -0.960264 0 0 0 3.45881e-06 -3.2242e-06 -3.43583e-05 0.000902474 0.0026668 -0.00108953 7.11033e-05 3.37973e-05 0.000313602 0.04 
784 1 1 0.0652889 -0.822029 -0.960241 0 0 0 -5.29704e-06 1.21082e-05 -1.35941e-05 0.00051468 0.00220356 -0.00114463 -0.00031827 -0.000119062 -0.000240331 0.04 
211 1 1 0.145419 -0.821876 -0.960214 0 0 0 -5.82549e-06 3.10685e-06 -1.07659e-05 0.00021298 0.00133926 -0.00051368 -0.000134855 -4.91697e-05 1.47079e-05 0.04 
121 1 1 0.225286 -0.821505 -0.960185 0 0 0 -3.93424e-06 8.52776e-06 -2.55001e-05 -0.000152568 0.000836229 0.000818051 3.30256e-05 0.000201218 7.4878e-05 0.04 
354 1 1 0.302764 -0.802489 -0.960232 0 0 0 -8.39973e-06 1.90731e-06 -1.40039e-05 0.000560873 0.00169547 0.0017633 -8.22921e-05 -0.000394589 -0.000137431 0.04 
229 1 1 0.380706 -0.819076 -0.960368 0 0 0 -5.01017e-07 -6.76847e-06 3.72885e-07 0.000665831 0.0016898 0.000428057 9.17042e-05 6.30576e-05 9.42512e-06 0.04 
369 1 1 0.456121 -0.822155 -0.935181 0 0 0 -2.47668e-06 -1.11704e-05 -6.76071e-06 -0.000101793 0.00293779 -0.0015985 -0.000313032 0.000220731 -8.77191e-06 0.04 
396 1 1 0.51956 -0.863497 -0.960239 0 0 0 -6.00748e-06 -9.54075e-06 -1.05274e-05 -0.000210842 0.00213235 -0.00138029 5.00087e-05 3.01197e-05 6.68364e-05 0.04 
866 1 1 0.594027 -0.811307 -0.960336 0 0 0 3.56275e-06 -2.2459e-05 2.31158e-05 0.000227957 0.000968949 0.00211076 -7.22533e-05 0.000312026 0.000369799 0.04 
628 1 1 0.673821 -0.812299 -0.960205 0 0 0 3.91342e-06 -8.58134e-06 3.83793e-06 -0.000240691 0.00249033 0.00260124 8.06035e-05 4.61737e-05 -0.000193067 0.04 
554 1 1 0.818679 -0.826524 -0.960283 0 0 0 -7.18845e-06 -1.36082e-05 -9.94026e-06 -0.000343775 -0.000145437 0.00192255 0.000213902 -2.58773e-05 -8.90336e-05 0.04 
417 1 1 0.960154 -0.833965 -0.960253 0 0 0 3.61643e-06 -1.66098e-05 -5.6361e-06 -0.000581811 0.000343764 0.00121178 0.000590348 -1.56907e-05 0.000413142 0.04 
282 1 1 -0.889436 -0.764116 -0.960201 0 0 0 6.41476e-07 5.33638e-06 7.05841e-06 -0.00183518 -0.00235795 0.000349559 -8.44476e-05 1.09904e-05 0.000225932 0.04 
492 1 1 -0.810312 -0.7532 -0.960206 0 0 0 9.51246e-06 5.80963e-06 -5.01306e-06 -0.00137486 -0.00530465 0.0018253 -0.000237783 0.000339038 -0.000222593 0.04 
290 1 1 -0.609446 -0.782715 -0.960221 0 0 0 8.90098e-06 1.18655e-05 -5.43944e-06 -0.00129112 -0.00170428 -0.00133397 -0.000338428 0.000304389 -3.16721e-05 0.04 
52 1 1 -0.453376 -0.788996 -0.960333 0 0 0 2.4528e-06 1.96118e-05 2.41826e-05 -0.00208098 0.00035532 -0.000549137 -0.000268749 0.00028304 -0.000313705 0.04 
480 1 1 -0.37566 -0.770534 -0.960362 0 0 0 8.10677e-06 -3.67578e-06 -9.0092e-06 -0.00120193 0.00323044 0.00523499 7.36042e-06 5.54989e-05 9.91378e-05 0.04 
402 1 1 -0.297581 -0.75357 -0.960118 0 0 0 2.64027e-06 -7.48196e-06 -3.19134e-06 0.00052776 0.00237553 0.00226105 0.000120254 -6.04774e-05 -0.000310729 0.04 
322 1 1 -0.217705 -0.755339 -0.96013 0 0 0 8.60092e-06 -9.17694e-06 5.81739e-06 4.97732e-05 0.00156709 -0.000615194 5.9077e-05 -6.83971e-05 0.000396188 0.04 
376 1 1 -0.137785 -0.752317 -0.960137 0 0 0 1.46136e-05 -5.11826e-06 -1.02705e-06 -0.00146086 0.00268229 -0.00143459 0.000362453 0.000330273 -0.000247366 0.04 
204 1 1 -0.0595657 -0.735823 -0.960305 0 0 0 4.48747e-06 1.30116e-05 -6.50596e-06 -0.00191339 0.00228853 -0.00130777 -0.000344792 0.0002561 0.00122766 0.04 
1122 1 1 0.019315 -0.74896 -0.960158 0 0 0 -8.691e-06 1.04316e-05 -5.47556e-06 0.000124422 0.00146228 -0.000630675 -0.000764714 -0.000100771 -0.00165113 0.04 
773 1 1 0.105142 -0.753051 -0.960328 0 0 0 -4.38067e-06 3.3705e-07 -1.39078e-05 0.00109597 0.00153637 -0.000822634 0.000155191 -7.65141e-05 -5.70431e-05 0.04 
725 1 1 0.185119 -0.75234 -0.960163 0 0 0 -1.07161e-05 6.71815e-07 -1.30447e-05 0.000586811 0.00111604 -0.000249019 7.21396e-05 -0.000102908 0.000204826 0.04 
159 1 1 0.345573 -0.735002 -0.960256 0 0 0 -6.12554e-06 -3.08721e-07 -6.16517e-06 0.000584476 0.00191248 0.00101619 -8.8895e-05 -0.000189794 -1.87974e-05 0.04 
688 1 1 0.482791 -0.751117 -0.96023 0 0 0 8.75635e-07 -8.04381e-06 -7.8887e-06 -0.000183744 0.00236666 0.000783159 0.000201768 -6.7773e-06 2.29307e-05 0.04 
757 1 1 0.561591 -0.738305 -0.960169 0 0 0 -2.25948e-06 -2.38714e-05 -3.87243e-06 -0.000592253 0.00178395 -0.000955602 0.000152745 -0.000247202 -0.000335093 0.04 
519 1 1 0.641385 -0.73939 -0.960172 0 0 0 -1.75781e-06 -8.90381e-06 1.44314e-05 -0.000965289 0.00416434 0.000896343 0.000297979 -4.23419e-05 0.000473805 0.04 
742 1 1 0.749359 -0.786904 -0.960233 0 0 0 -2.77099e-06 -1.23614e-05 3.1011e-06 -3.64939e-05 0.00198691 0.0020068 0.00017293 5.26076e-06 -2.61462e-05 0.04 
603 1 1 0.818346 -0.74666 -0.960129 0 0 0 -1.78335e-06 -1.23336e-05 -1.09493e-06 0.000949306 0.00103569 0.00146544 7.89101e-05 6.23857e-05 -9.61439e-05 0.04 
86 1 1 0.891232 -0.793683 -0.960276 0 0 0 -3.89407e-06 -1.88182e-05 6.40685e-06 -0.000290264 -0.000305076 7.28722e-05 6.82746e-05 1.07334e-05 -0.000125044 0.04 
972 1 1 0.96024 -0.753737 -0.960208 0 0 0 -2.60287e-06 -9.94483e-06 4.28082e-06 0.000521964 -0.000172756 -0.000278634 0.000194014 -2.2831e-05 0.000187675 0.04 
488 1 1 -0.960206 -0.720977 -0.960237 0 0 0 8.07351e-07 1.02478e-05 -4.20286e-06 -0.000358736 -0.0015367 0.000358662 -0.00017463 0.000146582 0.000192056 0.04 
532 1 1 -0.889466 -0.684332 -0.960246 0 0 0 -1.05827e-05 4.98443e-06 -1.16026e-07 -0.00182348 -0.00157726 0.0018938 -0.000127147 -0.000287786 -8.42481e-05 0.04 
564 1 1 -0.744084 -0.708374 -0.96026 0 0 0 -5.91875e-06 -6.16485e-06 -5.12817e-06 -0.000528538 -0.00312289 0.00206993 0.000233997 -0.00030581 0.00029683 0.04 
314 1 1 -0.6662 -0.726449 -0.960118 0 0 0 3.72554e-06 5.08473e-06 -6.11028e-06 -0.000291605 -0.00131918 0.000421946 -0.000275918 0.000185594 0.000215472 0.04 
783 1 1 -0.611381 -0.667463 -0.960259 0 0 0 1.26466e-05 6.81099e-06 -1.33543e-05 -0.00332001 -0.000927117 -0.00110243 -0.000175799 0.000319001 -0.000579483 0.04 
1127 1 1 -0.555101 -0.724255 -0.960254 0 0 0 -2.12971e-06 7.76502e-06 -1.6962e-05 -0.0034175 -0.000623361 -0.00138377 -7.46632e-05 -0.000233011 0.000227152 0.04 
241 1 1 -0.476074 -0.712364 -0.960183 0 0 0 6.9388e-06 1.92483e-05 1.15442e-05 -0.00339258 0.000822614 -0.000223221 -0.000661614 -4.42153e-05 -2.6897e-05 0.04 
85 1 1 -0.391016 -0.692252 -0.960257 0 0 0 2.11504e-05 4.12975e-08 -1.54597e-05 -0.00223097 0.00132804 0.00300826 -4.98707e-05 0.000398104 -7.61271e-05 0.04 
511 1 1 -0.313003 -0.675099 -0.960171 0 0 0 3.98199e-06 2.23172e-06 -2.1169e-05 -0.0014308 0.00229295 0.000421779 -0.000364884 -0.000143912 0.000186701 0.04 
873 1 1 -0.233104 -0.677236 -0.960336 0 0 0 9.93544e-06 -1.64938e-05 -5.3303e-06 -0.00148152 0.00305058 -0.000575767 3.21573e-05 8.37811e-05 -0.0004992 0.04 
738 1 1 -0.122533 -0.673871 -0.960256 0 0 0 1.6886e-05 -4.96005e-07 1.07491e-05 -0.00162371 0.00228698 -0.00229922 0.000266371 0.000382355 -0.000358443 0.04 
1088 1 1 0.110954 -0.673752 -0.960227 0 0 0 4.96258e-06 4.29505e-06 1.82923e-05 -0.00142063 0.000460262 -0.000474785 -0.00011215 6.2443e-05 -0.000200964 0.04 
862 1 1 0.208436 -0.675887 -0.960172 0 0 0 -1.5575e-05 -4.99212e-06 4.4375e-06 0.000903553 0.00113751 0.000279426 0.000289074 -0.00043804 -0.000287107 0.04 
967 1 1 0.265708 -0.731661 -0.960287 0 0 0 -1.24895e-05 -7.67197e-06 -1.24039e-05 0.000314682 0.00252957 0.000486001 0.00035158 -0.00011045 0.000223072 0.04 
451 1 1 0.432784 -0.688738 -0.960201 0 0 0 2.93594e-06 -9.91268e-06 2.98904e-06 0.000377187 0.00274489 0.001884 0.000140014 1.86145e-05 0.000118206 0.04 
177 1 1 0.511719 -0.675932 -0.960227 0 0 0 1.10865e-05 -1.35166e-05 -1.9052e-05 -4.50039e-06 0.00190616 -8.14749e-05 -1.3796e-05 7.4573e-05 -8.00743e-05 0.04 
308 1 1 0.678757 -0.668897 -0.960169 0 0 0 1.44192e-05 6.76423e-06 2.02581e-05 0.00053485 0.00273317 0.000726209 -9.5581e-05 0.000347379 -0.000637797 0.04 
439 1 1 0.748962 -0.707084 -0.960209 0 0 0 4.07471e-09 -5.38411e-06 1.01904e-05 -0.000301764 0.002117 -0.000130437 0.000141401 -2.65503e-06 4.3523e-05 0.04 
662 1 1 0.818044 -0.666736 -0.960232 0 0 0 2.48184e-06 -1.1399e-05 -9.57146e-06 0.00206153 -0.00073403 0.00272999 0.000149529 3.12401e-05 -8.40944e-05 0.04 
188 1 1 0.891037 -0.713775 -0.960247 0 0 0 -3.55224e-06 -1.29988e-05 -2.43267e-06 0.00170433 -0.000567696 -0.000502873 3.09229e-06 -4.10102e-05 5.48807e-05 0.04 
987 1 1 0.960144 -0.673802 -0.960181 0 0 0 -5.28185e-06 -6.11634e-06 2.42653e-06 0.00153592 -0.000372444 -0.00162914 -2.2024e-05 -9.21646e-05 5.89267e-05 0.04 
990 1 1 -0.877721 -0.605528 -0.96022 0 0 0 -2.41381e-05 6.88495e-07 -2.16832e-05 -0.00246819 6.72825e-05 -0.00325655 -0.000155029 -0.000613726 0.000522638 0.04 
826 1 1 -0.811812 -0.666091 -0.960159 0 0 0 -1.07265e-05 -1.55737e-05 4.27344e-06 -0.00197565 -0.0012206 0.000926927 0.000417435 -0.000127352 -0.000193508 0.04 
1152 1 1 -0.757384 -0.607624 -0.960257 0 0 0 -3.50746e-06 -2.19239e-05 1.11685e-05 -0.000173496 -0.002922 -0.000609461 -8.36836e-05 -2.15263e-05 0.00034306 0.04 
567 1 1 -0.689508 -0.64998 -0.960178 0 0 0 3.3609e-05 -8.99769e-06 -5.46572e-06 -0.00155194 -0.00175612 0.00194101 0.000204191 0.00102119 -0.00097491 0.04 
170 1 1 -0.527835 -0.64915 -0.960297 0 0 0 1.06856e-05 3.36437e-06 -1.68829e-05 -0.00376931 0.000512253 -0.00063317 -0.000138574 0.000461136 -0.00035706 0.04 
375 1 1 -0.448831 -0.637332 -0.960304 0 0 0 5.77113e-06 4.13288e-06 -1.4768e-05 -0.00335979 0.000393887 0.00108429 -8.67584e-06 -9.43683e-05 0.000230406 0.04 
709 1 1 -0.36733 -0.616041 -0.960195 0 0 0 1.73378e-06 -8.63409e-06 -1.54052e-05 -0.00219616 0.000736748 0.000763516 0.000229791 7.16218e-05 0.000506018 0.04 
1046 1 1 -0.0467052 -0.648898 -0.960242 0 0 0 2.58313e-06 1.10533e-05 8.89008e-06 -0.0022587 -0.000269674 4.8769e-05 -0.000377331 8.66795e-06 0.000448764 0.04 
581 1 1 0.0319304 -0.662364 -0.960298 0 0 0 5.19639e-06 4.54774e-06 9.01122e-06 -0.000712678 0.000525606 -0.000344013 -0.000112008 7.92232e-05 -0.000218336 0.04 
61 1 1 0.160809 -0.611665 -0.960225 0 0 0 -8.66143e-07 4.06878e-06 -9.87779e-06 -0.000999071 -0.000492491 0.0019952 -0.000116269 0.000253033 0.00027148 0.04 
1052 1 1 0.252401 -0.609102 -0.960288 0 0 0 8.22273e-06 -4.80848e-06 -1.32201e-05 0.00186343 0.00325492 0.000901183 -0.000356101 0.000439644 -6.75549e-05 0.04 
656 1 1 0.31191 -0.662487 -0.960129 0 0 0 -1.93647e-06 -5.59862e-06 -5.42867e-06 0.00206587 0.0034174 0.00075732 0.000309493 -0.000407888 8.21851e-05 0.04 
1082 1 1 0.383105 -0.626077 -0.960242 0 0 0 1.96591e-05 -5.85565e-06 1.82489e-05 -0.00106596 0.00254433 -0.00169626 0.000369742 0.000503394 -0.000527972 0.04 
255 1 1 0.462 -0.613477 -0.960265 0 0 0 1.84402e-05 -1.61026e-05 -2.06759e-05 0.000146769 0.00213491 0.000775944 0.000333906 0.00031428 0.00028621 0.04 
880 1 1 0.598422 -0.666187 -0.960224 0 0 0 -1.07434e-05 -8.41038e-06 -1.20996e-06 -0.00354662 0.005514 0.000523479 6.52872e-05 -0.000275232 -0.00117837 0.04 
1026 1 1 0.543027 -0.601444 -0.960162 0 0 0 1.75515e-05 -1.75482e-06 -5.49785e-05 -0.00183043 0.00422568 -0.00162288 -0.000602197 0.000328006 -0.00154081 0.04 
543 1 1 0.748549 -0.627317 -0.96016 0 0 0 1.4028e-05 1.24042e-05 1.84248e-06 0.00174212 0.00150617 0.00208293 -0.000332882 0.000342531 -0.000433598 0.04 
553 1 1 0.890863 -0.6339 -0.960238 0 0 0 -4.57491e-06 -9.92191e-06 -7.51409e-06 0.00250585 -0.00113299 -0.00153005 3.99217e-05 -0.000103057 8.878e-05 0.04 
260 1 1 -0.960001 -0.595548 -0.960243 0 0 0 -1.17589e-05 1.27538e-05 7.77343e-06 -0.000699258 0.00039951 -0.00198395 2.81839e-05 -0.000259565 -0.000890593 0.04 
565 1 1 -0.81668 -0.553962 -0.96023 0 0 0 3.10633e-07 -1.66029e-05 -1.42371e-06 -0.00121654 -0.00151673 -0.00116252 0.000411337 3.88869e-05 -0.000771799 0.04 
1113 1 1 -0.703061 -0.549222 -0.960278 0 0 0 -4.23304e-07 -3.33597e-05 7.41063e-06 -0.00073807 -0.00247256 0.000209812 0.000477178 3.68944e-05 -0.000188873 0.04 
925 1 1 -0.635196 -0.591292 -0.960146 0 0 0 1.2254e-05 -9.97566e-06 -2.08251e-06 -0.00114341 -0.000626534 0.000609643 0.000449183 -0.000104091 0.000877549 0.04 
893 1 1 -0.547624 -0.562691 -0.960174 0 0 0 4.73931e-06 8.26074e-06 4.10324e-05 -0.00213984 -0.000256956 0.00287534 -0.00036548 -0.000288836 -0.000169403 0.04 
1103 1 1 -0.454636 -0.557856 -0.9603 0 0 0 -6.63387e-06 5.55964e-06 -1.08355e-05 -0.00233245 0.000921734 -0.000761141 -0.000126804 0.000116989 0.000224501 0.04 
1448 1 1 -0.377548 -0.536781 -0.960162 0 0 0 -2.02284e-05 -2.61268e-06 -1.62951e-05 -0.00156137 0.000797287 0.000280311 -2.5324e-05 -0.000238441 0.000102814 0.04 
631 1 1 -0.303804 -0.567605 -0.960239 0 0 0 -1.59996e-05 -5.07782e-06 -5.49433e-06 -0.00187015 0.000688931 -0.000762159 -0.000242181 -0.000328778 -0.000181948 0.04 
714 1 1 -0.230011 -0.597895 -0.960352 0 0 0 1.02967e-05 -2.08421e-05 -1.18863e-05 -0.00294916 0.0014497 -0.00261434 0.000378516 0.000536493 0.000490514 0.04 
962 1 1 -0.165419 -0.550903 -0.960204 0 0 0 -1.0566e-05 1.12767e-06 -1.0607e-05 -0.00265364 -0.00206489 -0.000386402 -7.88735e-05 -0.000202159 0.000208347 0.04 
950 1 1 -0.0923578 -0.583303 -0.960249 0 0 0 -9.23978e-06 4.23104e-06 1.78591e-07 -0.00489955 -0.00297805 -0.00106129 0.000299798 -0.000315789 -9.60384e-05 0.04 
716 1 1 0.00265824 -0.586034 -0.960217 0 0 0 -5.80626e-06 4.58363e-06 -2.83721e-06 -0.00519952 -0.000978733 0.000525769 -4.32194e-06 7.25961e-05 -0.000566795 0.04 
388 1 1 0.0814132 -0.599613 -0.960228 0 0 0 -1.41266e-05 9.87144e-07 -8.66225e-06 -0.000849891 0.000131093 -0.00194284 -0.000116516 -0.00014413 0.00043903 0.04 
867 1 1 0.204619 -0.545124 -0.960172 0 0 0 1.2872e-05 -9.76501e-06 -5.9296e-06 0.000314809 0.00169242 0.00011852 0.000375589 0.000353892 -0.000397225 0.04 
576 1 1 0.321588 -0.564046 -0.960233 0 0 0 1.12572e-05 -1.95611e-05 -2.1109e-05 2.7572e-05 0.00350318 0.00216493 0.000617069 0.000465955 -0.00136675 0.04 
408 1 1 0.403787 -0.548892 -0.960207 0 0 0 3.3195e-05 9.35554e-06 2.64964e-05 -5.09526e-05 0.00218385 -0.00296794 -0.00042792 0.000533384 0.000395977 0.04 
814 1 1 0.482705 -0.536364 -0.960226 0 0 0 2.32289e-05 -1.18699e-06 2.31763e-06 -0.000567181 0.00102398 -0.000789954 5.25746e-05 0.000390095 -0.000140373 0.04 
1288 1 1 0.589751 -0.53643 -0.960267 0 0 0 3.13674e-05 1.16995e-05 3.48767e-05 -0.000127441 0.00324047 -0.000685533 -0.000352711 0.000745357 0.000593192 0.04 
1111 1 1 0.678414 -0.58909 -0.96026 0 0 0 1.23535e-05 5.52379e-06 2.02679e-05 0.00131232 0.00220707 0.0011387 -2.52681e-05 0.000348516 0.000757454 0.04 
1138 1 1 0.747381 -0.547509 -0.960207 0 0 0 -3.32503e-06 1.02016e-05 -1.60854e-05 -0.000437712 0.00166748 -0.0021376 -0.000379505 0.000279841 0.000718459 0.04 
58 1 1 0.817503 -0.58598 -0.960208 0 0 0 1.9194e-06 1.07256e-05 -5.42105e-06 0.00131772 0.00092886 0.000168285 -0.000252091 -3.25767e-05 -0.000590396 0.04 
1107 1 1 0.890822 -0.554039 -0.960246 0 0 0 -3.27681e-06 -7.84028e-06 -2.58763e-06 0.00185809 -0.0017426 -0.00212408 0.000155209 -6.75356e-08 0.000101455 0.04 
252 1 1 0.96009 -0.593929 -0.960182 0 0 0 -3.75157e-06 -4.6384e-06 -3.10386e-08 0.00142639 -0.000611365 -0.00161488 4.61561e-05 -6.77067e-05 4.99473e-06 0.04 
670 1 1 -0.960083 -0.515581 -0.960206 0 0 0 -1.05553e-05 1.33855e-05 2.00563e-05 -0.000507 0.000914462 0.00246943 6.61837e-05 -0.00046554 0.000561924 0.04 
644 1 1 -0.761222 -0.493806 -0.960278 0 0 0 3.64064e-07 -4.11674e-05 1.62297e-05 -0.00160973 -0.00150379 0.00120343 0.00144672 6.02914e-05 -0.000875431 0.04 
833 1 1 -0.684416 -0.471796 -0.960325 0 0 0 -1.5963e-05 -2.59416e-05 2.03432e-05 -0.00307013 -0.000996766 0.0019602 0.000358292 -0.000101563 0.000695131 0.04 
435 1 1 -0.616325 -0.513721 -0.960225 0 0 0 -1.58486e-05 4.73506e-06 2.732e-05 -0.00186395 -0.00105822 0.000927744 -4.84939e-05 -0.000289029 0.000131214 0.04 
816 1 1 -0.503031 -0.494467 -0.960281 0 0 0 -2.39759e-05 2.15286e-05 4.08739e-06 -0.00207238 -0.00013187 -0.00027848 -0.000400554 5.27249e-05 0.000152436 0.04 
489 1 1 -0.313515 -0.488342 -0.96024 0 0 0 -2.74931e-05 -8.25708e-06 -2.09251e-05 -0.00160645 0.00106942 -0.000592029 8.62925e-05 -0.000294687 9.25675e-05 0.04 
883 1 1 -0.239739 -0.519014 -0.960264 0 0 0 -2.42429e-05 -1.02202e-05 -1.71809e-05 -0.00216113 0.000520905 -0.00183658 -0.000240645 -0.000220746 0.000147184 0.04 
305 1 1 -0.1754 -0.471599 -0.960213 0 0 0 -2.87614e-05 -5.99157e-06 -9.64955e-06 -0.00138353 -0.000780724 8.65009e-05 0.000203634 -0.000565474 0.000312975 0.04 
675 1 1 -0.101731 -0.5026 -0.960187 0 0 0 -1.11221e-05 -1.20587e-05 -7.66185e-06 -0.00160802 0.000363003 -0.000659971 0.000337669 0.000160176 -0.000444954 0.04 
1066 1 1 -0.0221834 -0.510122 -0.960312 0 0 0 -2.03543e-05 4.44656e-06 -1.18241e-05 -0.00554694 -0.00148576 0.000662179 0.000272539 -0.000588229 0.000890531 0.04 
143 1 1 0.0589781 -0.523024 -0.960124 0 0 0 -3.12334e-05 7.07373e-07 -5.45413e-06 -0.00333979 -0.00151875 -0.00320377 0.000145112 -0.000669684 -0.000158686 0.04 
1346 1 1 0.153919 -0.483517 -0.960267 0 0 0 -1.73876e-05 -1.02285e-06 1.22456e-05 -0.00129339 -0.000915943 0.000651506 -3.41627e-05 -0.000399341 0.000463773 0.04 
1000 1 1 0.271508 -0.501727 -0.960223 0 0 0 3.85962e-06 7.54828e-07 1.48414e-05 -7.74581e-05 0.00257551 0.000101611 9.74912e-05 -8.38842e-05 0.000743138 0.04 
792 1 1 0.350499 -0.489392 -0.960249 0 0 0 -9.19128e-06 7.30848e-06 1.70304e-05 0.000180832 0.00276367 -0.000683189 -0.000210818 -0.000167124 1.69283e-05 0.04 
1361 1 1 0.432907 -0.473801 -0.96021 0 0 0 -7.66312e-06 -1.49298e-05 4.08815e-05 -0.00136716 0.00164178 0.00023741 0.000391814 -0.000509632 1.78456e-05 0.04 
584 1 1 0.536204 -0.47709 -0.960204 0 0 0 7.27545e-06 5.11066e-06 6.00996e-06 -0.000388255 0.00107935 -0.0037368 -0.000291955 -0.000229614 0.000155853 0.04 
908 1 1 0.677146 -0.50943 -0.960259 0 0 0 -3.86502e-07 1.58531e-05 5.98427e-06 -0.00137898 0.000782028 -0.0021491 -0.000420589 0.000340286 -0.000460134 0.04 
1309 1 1 0.804447 -0.491605 -0.960226 0 0 0 -2.30493e-05 -2.96497e-05 -2.72403e-06 -0.00265613 -0.00583561 -0.00208678 0.000836401 -0.000672125 -0.00166674 0.04 
9 1 1 0.890886 -0.474152 -0.96018 0 0 0 -5.94818e-06 -1.01763e-06 5.04224e-06 -0.000166016 -0.00141957 -0.000681134 6.21004e-05 -0.000124677 -0.000113806 0.04 
771 1 1 0.960095 -0.514066 -0.960231 0 0 0 -3.6091e-06 -5.75954e-06 2.55842e-06 0.000657247 -0.00088702 -0.000569545 0.000109344 -5.82035e-06 8.48894e-06 0.04 
1055 1 1 -0.960062 -0.423547 -0.960212 0 0 0 -8.8765e-06 6.03622e-06 -3.79816e-05 -0.00166076 0.0014132 -0.00370369 0.000148141 0.000312857 7.09905e-05 0.04 
739 1 1 -0.890752 -0.463397 -0.960241 0 0 0 -1.99049e-05 2.64227e-06 -2.52708e-05 -0.0033815 0.00101868 -0.000613485 -0.000482605 -0.000175096 5.34824e-05 0.04 
1142 1 1 -0.821571 -0.423415 -0.96026 0 0 0 -2.95e-05 -1.31655e-05 -3.46327e-05 -0.00265155 0.000901559 0.00138916 0.000368649 -0.000249553 -0.000251816 0.04 
613 1 1 -0.636931 -0.407836 -0.9603 0 0 0 -4.20068e-05 3.51853e-06 1.49152e-05 -0.00158582 -0.000551411 0.00199753 -0.000344582 -0.000392498 0.000176241 0.04 
620 1 1 -0.568908 -0.449471 -0.96023 0 0 0 -3.65338e-05 1.35371e-05 1.84782e-05 -0.00169743 -0.00041687 -0.00017464 -2.35751e-05 3.50467e-06 0.000224752 0.04 
1316 1 1 -0.460836 -0.426641 -0.960331 0 0 0 -5.13773e-05 3.78289e-05 -6.91516e-05 -0.000978298 0.000434539 0.00128942 -0.00186255 -0.00116216 8.79344e-06 0.04 
344 1 1 -0.387126 -0.457462 -0.960274 0 0 0 -3.69538e-05 -4.75949e-06 -1.81393e-05 -0.0010336 0.00187409 -0.000477059 -2.32674e-06 -8.71089e-05 -3.88196e-05 0.04 
247 1 1 -0.323486 -0.40902 -0.960224 0 0 0 -3.62445e-05 -1.17813e-05 -8.85217e-06 -4.20635e-05 0.00159119 -0.000793019 0.000401695 -0.000628179 0.000135662 0.04 
382 1 1 -0.249869 -0.440011 -0.960246 0 0 0 -3.32404e-05 -6.16099e-06 -8.64883e-06 -0.000777021 0.000505359 -0.000416165 0.000394793 -0.000228643 9.55482e-05 0.04 
1271 1 1 -0.105193 -0.422597 -0.960248 0 0 0 -3.63929e-05 -4.08253e-06 7.81098e-06 -0.00054879 0.000798557 0.00272269 4.67499e-05 -0.000626821 -0.000123331 0.04 
1249 1 1 0.0294282 -0.44887 -0.960288 0 0 0 -3.07575e-05 -1.33149e-06 1.1353e-06 -0.00309641 -0.00353572 -0.00149218 0.000282649 -0.000673297 0.000285542 0.04 
1030 1 1 0.104305 -0.421015 -0.96028 0 0 0 -1.00327e-05 3.96059e-06 1.76089e-05 -0.000520715 -0.00256167 -0.000432884 -4.06369e-05 0.000299923 -0.000629653 0.04 
1148 1 1 0.22083 -0.439836 -0.96025 0 0 0 -2.07107e-05 -2.15226e-06 2.81518e-05 -0.000825978 0.000882898 -0.000978545 -0.000141173 -0.000180885 -0.000242217 0.04 
772 1 1 0.300186 -0.427301 -0.96021 0 0 0 -9.16979e-06 1.35595e-05 2.37573e-06 -0.000449006 0.00199478 0.000202974 -0.000321169 4.60288e-05 -9.03203e-05 0.04 
845 1 1 0.379043 -0.414708 -0.960221 0 0 0 -7.12638e-07 3.19573e-06 4.03995e-06 -0.00126456 0.00217221 0.000794113 -0.000322122 -0.000198762 -0.00031034 0.04 
981 1 1 0.561051 -0.401067 -0.9602 0 0 0 9.00898e-07 6.53567e-06 1.31134e-05 0.000383394 -0.000368481 -0.00558635 0.000184148 2.95368e-05 9.06819e-05 0.04 
1047 1 1 0.614308 -0.460357 -0.960195 0 0 0 6.14677e-06 2.13679e-05 -2.42046e-06 -0.000852876 0.000821443 -0.00495967 -0.000223277 0.00019924 0.00020611 0.04 
1474 1 1 0.688413 -0.430481 -0.960202 0 0 0 1.13873e-05 1.12681e-05 1.81486e-06 0.000550179 -0.00158475 -0.00161428 0.00020424 5.06341e-06 -0.000383478 0.04 
840 1 1 0.767482 -0.420832 -0.960285 0 0 0 5.01777e-06 3.6229e-06 1.62932e-05 0.00131249 -0.00383001 -0.00388847 0.000201661 -6.9617e-05 0.000685348 0.04 