ITEM: TIMESTEP
55000
ITEM: NUMBER OF ATOMS
1500
ITEM: BOX BOUNDS ff ff ff
-1 1
-1 1
-1 1
ITEM: ATOMS id type type x y z ix iy iz vx vy vz fx fy fz omegax omegay omegaz radius 
137 1 1 -0.958852 -0.959767 -0.959921 0 0 0 0.0409236 0.0646281 0.00959566 0 0 -6.57473 0.813068 0.0201622 -1.09796 0.04 
5 1 1 -0.874324 -0.958287 -0.956904 0 0 0 -0.00417126 -0.247178 0.0292345 0 0 -6.57473 -0.893528 -0.103026 -1.52607 0.04 
239 1 1 -0.784478 -0.95325 -0.960715 0 0 0 0.040028 0.0925233 -0.175213 -6.0316 -3.88142 26.5619 -0.110127 -0.143924 -0.692107 0.04 
34 1 1 -0.70145 -0.955168 -0.959034 0 0 0 -0.00811778 -0.0143446 0.00243929 -25.9459 2.12307 -5.15449 -2.1145 0.96243 -2.12059 0.04 
415 1 1 -0.622344 -0.959895 -0.959796 0 0 0 0.191249 -0.101937 0.169241 16.9644 -3.65057 -21.5255 1.21352 -0.16558 -2.24491 0.04 
138 1 1 -0.527466 -0.959381 -0.95943 0 0 0 0.170558 0.153198 0.0301205 0 0 -6.57473 0.466161 -0.666686 -3.02515 0.04 
323 1 1 -0.438283 -0.956857 -0.960301 0 0 0 -0.161952 0.183167 -0.101457 0.804631 -0.411549 11.5007 -1.64349 1.70899 -2.93778 0.04 
130 1 1 -0.357503 -0.960329 -0.96052 0 0 0 -0.0919304 0.151399 0.0025054 4.0079 6.17769 -16.3771 0.790546 0.352547 0.928144 0.04 
502 1 1 -0.277678 -0.960038 -0.960422 0 0 0 0.00854959 0.00690343 -0.0503303 -13.7795 0.800565 0.178429 0.223308 -0.820331 0.101862 0.04 
494 1 1 -0.16576 -0.96015 -0.960312 0 0 0 -0.0134853 0.00744097 0.0202893 -0.295663 6.78033 -7.59536 0.550311 -0.345859 0.681572 0.04 
448 1 1 -0.085668 -0.95962 -0.960298 0 0 0 -0.017369 0.0070824 0.00508118 -2.19886 0.171777 4.44925 -0.167639 -0.0448217 -0.625658 0.04 
147 1 1 -0.00458833 -0.959301 -0.96039 0 0 0 -0.0756478 0.0206043 -0.0340322 1.09183 0.194879 15.607 -0.749249 -0.597796 0.295966 0.04 
218 1 1 0.0755255 -0.959382 -0.960226 0 0 0 -0.0825165 -0.0255323 0.0117726 -15.0575 -8.8254 -0.276766 -0.295558 -0.384059 1.04294 0.04 
339 1 1 0.189789 -0.957063 -0.959966 0 0 0 -0.134638 0.0523586 -0.151204 -29.8493 0.211486 -33.4428 0.557124 -0.0816616 -1.31182 0.04 
341 1 1 0.309904 -0.959521 -0.960028 0 0 0 -0.0710836 -0.0153514 -0.0202156 5.1823 -2.07716 -7.43981 -0.754823 -1.76656 1.10441 0.04 
203 1 1 0.390834 -0.959828 -0.960589 0 0 0 -0.0583155 -0.0221691 0.0145742 -3.634 0.276799 22.0631 0.551256 -1.31233 0.330751 0.04 
1019 1 1 0.472144 -0.958531 -0.959779 0 0 0 -0.0257139 0.048021 0.0900598 12.1219 -2.04174 -36.3731 1.44548 -1.01901 2.41265 0.04 
821 1 1 0.557059 -0.960481 -0.96009 0 0 0 0.0376587 -0.215303 0.0681469 -1.46242 29.7876 -2.7737 1.07055 0.499967 1.93094 0.04 
636 1 1 0.640107 -0.958309 -0.960424 0 0 0 0.0926503 0.0973954 0.020803 -5.87055 -4.23809 -16.2893 -1.64378 1.2202 -0.632802 0.04 
729 1 1 0.719515 -0.959986 -0.960934 0 0 0 -0.0207601 0.0184006 0.0347897 2.46383 0.205335 37.5513 -0.395809 -0.232899 -0.789968 0.04 
503 1 1 0.798829 -0.960547 -0.960625 0 0 0 0.0104395 0.138643 0.101264 19.2512 18.1595 19.5467 -0.341843 -1.45064 1.401 0.04 
424 1 1 0.878804 -0.960072 -0.960303 0 0 0 -0.056867 -0.0807802 0.352082 1.59748 5.68027 5.47094 1.53855 -1.22188 -0.495285 0.04 
850 1 1 0.959961 -0.957933 -0.959993 0 0 0 0.00168346 -0.0116477 0.0115647 0 0 -6.57473 0.28812 0.0272236 0.368287 0.04 
918 1 1 -0.916551 -0.889679 -0.959016 0 0 0 0.109698 0.0219867 -0.0618999 0 0 -6.57473 -2.12696 0.484492 2.38959 0.04 
246 1 1 -0.832925 -0.879033 -0.958935 0 0 0 0.0608547 -0.00030362 -0.0735965 -6.6963 -5.68975 -13.7049 -1.74709 1.89498 -1.23034 0.04 
586 1 1 -0.743406 -0.88152 -0.960141 0 0 0 0.0657217 0.0498983 0.0109562 -0.0976114 -0.0594142 1.13844 -1.22606 1.60749 -1.51111 0.04 
379 1 1 -0.653728 -0.884884 -0.959343 0 0 0 0.234987 0.141917 0.048818 -12.8263 0.498751 -6.34399 -0.5493 1.10544 -0.478881 0.04 
105 1 1 -0.574381 -0.891901 -0.960147 0 0 0 0.172043 -0.0166272 -0.0120185 4.19833 -5.34872 -9.01944 -2.21955 1.48289 1.47525 0.04 
289 1 1 -0.481781 -0.888349 -0.956208 0 0 0 0.122252 0.00929962 -0.093066 9.92789 -4.40617 -16.8869 -3.3492 -1.6076 -2.48221 0.04 
345 1 1 -0.378823 -0.88239 -0.959944 0 0 0 -0.0966847 0.0242676 -0.0766774 0 0 -6.57473 0.201315 -1.07349 -2.48068 0.04 
209 1 1 -0.296493 -0.881171 -0.960344 0 0 0 -0.0238585 -0.0215082 -0.00353146 7.83153 -8.18077 3.39584 -0.330111 -1.33345 0.447185 0.04 
647 1 1 -0.218788 -0.900264 -0.960259 0 0 0 -0.129102 -0.0481837 -0.0193564 -1.68936 -1.96519 4.48212 0.190192 -1.16419 -0.245799 0.04 
700 1 1 -0.12468 -0.889472 -0.959906 0 0 0 0.0522349 -0.164784 -0.0162599 -7.10833 0.0971517 -6.22046 2.0803 1.54482 -0.201342 0.04 
616 1 1 -0.0448838 -0.890026 -0.959929 0 0 0 0.0967865 -0.073735 -0.00434843 7.10833 -0.0971517 -6.92899 0.925484 1.62635 2.01664 0.04 
87 1 1 0.0351447 -0.889478 -0.95811 0 0 0 0.102007 -0.0268147 0.433281 -12.4179 -12.7996 -6.68389 -0.300633 1.80296 0.682162 0.04 
655 1 1 0.129423 -0.900757 -0.960477 0 0 0 -0.184199 0.0442442 0.0345028 7.55046 4.72806 7.1956 -1.72933 -1.73478 -2.25811 0.04 
19 1 1 0.259114 -0.897819 -0.960288 0 0 0 -0.0563233 0.0671444 0.0117384 2.59741 0.794621 6.50127 -0.968815 -0.678314 -1.60689 0.04 
443 1 1 0.346093 -0.882673 -0.960104 0 0 0 0.0708288 0.0222743 -0.0205263 -2.21093 -2.96468 -0.337849 -1.0736 -0.962 1.8168 0.04 
664 1 1 0.433217 -0.886208 -0.960349 0 0 0 0.147139 0.0187018 0.0236408 -0.94121 0.168221 12.5478 -1.03493 0.531701 0.622779 0.04 
396 1 1 0.514479 -0.889682 -0.959511 0 0 0 0.0955019 0.0581098 -0.237768 0 0 -6.57473 1.09013 -2.23788 -0.00181416 0.04 
74 1 1 0.596502 -0.887893 -0.957624 0 0 0 -0.048224 0.118023 0.0496546 -0.0719837 -5.89143 -6.38874 0.624032 -4.14291 -3.22688 0.04 
50 1 1 0.677963 -0.88326 -0.959646 0 0 0 -0.153634 -0.114136 -0.0480209 0 0 -6.57473 0.264105 3.03262 0.247601 0.04 
812 1 1 0.880956 -0.879082 -0.960109 0 0 0 0.00356253 -0.0324803 -0.0619128 -5.80614 1.8216 -6.37253 0.302456 -0.677632 0.604523 0.04 
417 1 1 0.959705 -0.868042 -0.957729 0 0 0 0.15786 0.100303 0.461883 14.8543 1.97283 -6.86712 -2.30088 -3.80954 0.790573 0.04 
352 1 1 -0.884178 -0.815313 -0.940345 0 0 0 0.127595 0.0944626 -0.31576 0 0 -6.57473 2.7582 -6.27897 2.58067 0.04 
960 1 1 -0.689042 -0.812747 -0.959995 0 0 0 -0.164196 -0.00789935 0.130263 3.25096 -7.06148 -17.4169 1.71676 3.12747 1.30106 0.04 
380 1 1 -0.531391 -0.810886 -0.960158 0 0 0 -0.0420901 0.166278 0.108822 0.178244 -0.324625 0.832089 -3.31266 -0.58589 0.0100137 0.04 
52 1 1 -0.449156 -0.814666 -0.960455 0 0 0 -0.044489 0.0357752 0.117881 -7.39598 -3.136 17.2603 -1.13558 -0.264284 -0.661661 0.04 
720 1 1 -0.232518 -0.821382 -0.959393 0 0 0 0.123754 -0.000107377 0.381273 -3.71737 -15.0434 -7.24056 -1.68026 0.103691 -0.475103 0.04 
161 1 1 -0.15421 -0.80468 -0.958625 0 0 0 -0.149075 0.384723 -0.416881 -5.20577 -0.539289 -6.31916 3.84843 -2.57351 -3.77653 0.04 
385 1 1 -0.0745615 -0.799645 -0.960138 0 0 0 0.0578753 0.0452488 -0.0494383 3.46322 -0.491691 0.016414 -1.65392 -1.56515 1.6487 0.04 
827 1 1 0.00556902 -0.812248 -0.959898 0 0 0 0.084583 0.188637 0.0872149 0.769408 2.61908 -17.2704 -3.62831 1.28804 0.0845037 0.04 
784 1 1 0.0884167 -0.830444 -0.960368 0 0 0 -0.186515 -0.000216961 0.0268145 9.53003 12.5003 -0.0413974 -2.06633 -0.658571 -3.03673 0.04 
211 1 1 0.168244 -0.829338 -0.959819 0 0 0 -0.100219 -0.0538386 -0.0497398 -23.9265 -1.56801 -25.599 0.373374 -0.21445 1.93819 0.04 
354 1 1 0.306524 -0.808081 -0.960179 0 0 0 -0.0134944 0.114199 -0.0261801 -5.8988 -9.02021 3.86704 -1.98394 -1.99993 0.523427 0.04 
229 1 1 0.389305 -0.815422 -0.960002 0 0 0 -0.162967 -0.027706 0.157004 1.9947 3.07129 -8.67792 -1.51606 -0.535035 3.19434 0.04 
866 1 1 0.593498 -0.808138 -0.960426 0 0 0 -0.00141643 0.0192717 0.0410464 -7.21218 2.24525 -6.08473 -0.503386 0.924203 -2.15602 0.04 
554 1 1 0.814767 -0.833016 -0.959702 0 0 0 0.0809796 0.0107307 0.194406 3.49405 1.96149 -21.1532 -0.484455 1.54752 -1.86534 0.04 
446 1 1 -0.956377 -0.778818 -0.960273 0 0 0 0.0777256 0.085011 0.0208303 -2.8302 3.15139 -2.78459 -1.26379 -0.51985 2.19397 0.04 
492 1 1 -0.855648 -0.733904 -0.957888 0 0 0 -0.0235543 0.0617024 0.153154 0 0 -6.57473 -1.3205 -0.542524 -3.25996 0.04 
894 1 1 -0.776317 -0.781628 -0.960252 0 0 0 -0.0245289 0.224035 -0.239682 0.273638 -0.81292 10.5801 -0.777974 1.01398 -1.82853 0.04 
290 1 1 -0.608733 -0.786649 -0.960713 0 0 0 -0.0318543 0.186622 -0.287886 -7.99785 -3.76651 26.9086 -2.74096 0.424486 1.74225 0.04 
241 1 1 -0.478654 -0.738204 -0.96067 0 0 0 0.0495734 0.0210948 -0.00335184 2.65544 3.38431 23.9599 -0.695282 0.110717 1.91791 0.04 
480 1 1 -0.376802 -0.781122 -0.960228 0 0 0 -0.131548 0.187398 0.105554 11.1556 -2.43942 4.33322 -1.95222 -0.297744 -2.21316 0.04 
402 1 1 -0.298113 -0.766149 -0.960434 0 0 0 0.0977852 -0.0229868 -0.0680159 -1.00163 0.754111 18.5007 -1.67086 -0.528823 -2.42598 0.04 
322 1 1 -0.214694 -0.743802 -0.95973 0 0 0 0.0432576 -0.103826 -0.0699825 3.61394 13.624 -5.84749 -0.926061 -1.18447 -1.27851 0.04 
1122 1 1 0.0230778 -0.733849 -0.960135 0 0 0 0.0105948 0.153138 -0.027674 1.56217 -14.7349 -12.6191 -1.02147 -1.36315 -0.539195 0.04 
773 1 1 0.11431 -0.754237 -0.960293 0 0 0 -0.0150295 0.0977134 -0.0787127 -0.707691 -1.72046 9.38522 -0.969842 0.192553 1.51341 0.04 
725 1 1 0.209465 -0.751892 -0.960273 0 0 0 -0.114485 0.146006 -0.033826 -7.19033 18.168 -5.46572 -1.51255 -2.22157 -2.22449 0.04 
159 1 1 0.351273 -0.742139 -0.958843 0 0 0 0.085336 0.143085 -0.0498039 5.446 8.77322 -6.70084 -3.00343 -1.1663 0.229975 0.04 
688 1 1 0.466538 -0.781659 -0.959476 0 0 0 0.159757 0.06116 -0.0472998 0 0 -6.57473 -0.918536 -3.93268 -0.157705 0.04 
519 1 1 0.668304 -0.731684 -0.96088 0 0 0 0.0949228 0.124609 -0.0693286 2.95577 13.7414 28.4071 -2.04417 1.38821 1.73836 0.04 
742 1 1 0.726043 -0.790029 -0.960002 0 0 0 0.34353 0.0449343 0.257031 45.6249 6.81107 -41.8126 -1.47309 0.360703 3.22588 0.04 
603 1 1 0.822772 -0.752095 -0.957635 0 0 0 -0.159827 -0.0139471 -0.332585 0 0 -6.57473 -0.244679 0.0645907 1.43003 0.04 
972 1 1 0.96075 -0.783049 -0.960106 0 0 0 -0.0624104 0.175598 -0.032132 -30.0953 -0.447956 -2.95307 -3.1606 -0.745668 -2.46902 0.04 
488 1 1 -0.958538 -0.68666 -0.959977 0 0 0 0.0374829 0.0474489 -0.0212977 -39.6434 -17.0116 -6.34918 -3.9722 -0.3721 0.157982 0.04 
564 1 1 -0.744938 -0.706057 -0.96077 0 0 0 -0.0933217 0.140433 0.0293291 1.02945 -1.85912 35.9275 -1.23206 -1.075 0.384035 0.04 
314 1 1 -0.664744 -0.72865 -0.957301 0 0 0 -0.0293283 -0.262427 0.13026 -10.8143 -12.8712 -8.37516 -2.92394 -0.639099 4.2053 0.04 
1127 1 1 -0.559209 -0.72438 -0.960406 0 0 0 0.068459 0.0297069 0.049129 10.9929 13.011 14.7349 -0.352203 1.54256 -0.411769 0.04 
85 1 1 -0.402741 -0.705696 -0.956031 0 0 0 0.184764 0.134418 -0.123909 5.8484 -9.12335 -4.72574 -1.85414 -0.921749 -0.609678 0.04 
511 1 1 -0.287639 -0.686139 -0.959841 0 0 0 0.0846309 0.111255 -0.0975241 0 0 -6.57473 1.20332 0.413842 -1.48488 0.04 
376 1 1 -0.136264 -0.725488 -0.96028 0 0 0 -0.0262068 0.018872 0.113234 -2.75826 -14.1205 6.86663 -0.873659 -0.863371 0.206364 0.04 
204 1 1 -0.0531965 -0.711343 -0.960603 0 0 0 -0.0523913 -0.0271156 -0.106286 -18.3887 6.2648 25.4996 -1.87108 -0.409359 1.15765 0.04 
1088 1 1 0.123976 -0.670092 -0.961162 0 0 0 -0.119239 -0.0676283 -0.0703721 -10.7768 -21.9112 16.016 -1.91377 -0.307613 -0.874766 0.04 
862 1 1 0.203283 -0.671647 -0.959986 0 0 0 -0.0147232 0.0211961 -0.0694094 20.4457 -10.8777 -8.67424 -1.21317 -1.47542 -0.849814 0.04 
967 1 1 0.277397 -0.709055 -0.95997 0 0 0 -0.199681 0.0184062 0.101587 -2.30586 2.69268 -13.1727 -1.33248 -1.27364 1.09363 0.04 
451 1 1 0.423778 -0.707564 -0.960466 0 0 0 0.0060913 0.0966607 -0.0107614 4.64788 -13.0206 0.742507 -0.415166 -1.34384 0.74706 0.04 
177 1 1 0.505279 -0.694611 -0.95938 0 0 0 -0.0414535 0.18203 0.0356434 2.73734 15.1015 -42.2437 -3.22326 -1.58136 -0.388053 0.04 
757 1 1 0.583133 -0.728086 -0.948413 0 0 0 0.00293745 0.0906756 -0.132852 0 0 -6.57473 3.5958 -0.739313 1.90549 0.04 
439 1 1 0.750505 -0.713631 -0.959864 0 0 0 -0.235101 0.23778 -0.0410117 0 0 -6.57473 0.460009 3.45348 -0.640326 0.04 
662 1 1 0.81795 -0.668822 -0.956661 0 0 0 0.0455221 0.0656976 -0.199707 0 0 -6.57473 -0.712995 2.66437 -1.76289 0.04 
188 1 1 0.897551 -0.721848 -0.959709 0 0 0 -0.0677447 0.0869536 -0.00588258 -3.02494 -4.34049 -8.57409 -2.55266 -1.60769 0.464413 0.04 
987 1 1 0.960383 -0.672619 -0.960522 0 0 0 0.0431618 0.242342 0.180436 -16.774 -27.7758 7.64895 -4.35277 0.831314 -2.56586 0.04 
260 1 1 -0.960095 -0.594512 -0.960306 0 0 0 -0.00313424 0.0937293 0.0174997 4.26932 -0.366807 10.2898 -2.41835 -0.559327 0.085884 0.04 
532 1 1 -0.885941 -0.655948 -0.957677 0 0 0 -0.158321 0.124241 0.0484047 39.3927 17.4068 -7.35894 -2.09735 -1.74412 4.14445 0.04 
826 1 1 -0.799227 -0.646652 -0.957932 0 0 0 -0.443808 -0.0858743 -0.296199 10.0435 9.62783 -59.2893 -3.33547 1.25731 -4.03563 0.04 
567 1 1 -0.69943 -0.639172 -0.957569 0 0 0 0.0984464 -0.0135252 0.0549051 0 0 -6.57473 -2.87149 0.0623161 -3.67315 0.04 
170 1 1 -0.522342 -0.646091 -0.960831 0 0 0 0.417081 0.197655 0.331127 -44.189 -6.36001 33.4698 -0.705844 0.945105 -2.12714 0.04 
375 1 1 -0.443834 -0.637743 -0.960639 0 0 0 -0.103869 -0.0355091 0.0130337 37.4308 5.3011 17.9692 -1.24408 1.45409 0.461571 0.04 
709 1 1 -0.352553 -0.634184 -0.95936 0 0 0 0.0630047 -0.0303258 -0.0108297 0 0 -6.57473 -0.834952 2.16064 -0.355732 0.04 
631 1 1 -0.277067 -0.596697 -0.958061 0 0 0 -0.0484477 0.0940706 0.0418761 -0.143097 -3.05449 -10.3448 -2.71253 -0.893559 3.1982 0.04 
873 1 1 -0.210278 -0.663982 -0.959435 0 0 0 -0.0341572 -0.00525877 0.0403419 0.103428 1.41943 -6.63612 -2.27207 0.648867 1.13582 0.04 
738 1 1 -0.12431 -0.646719 -0.960472 0 0 0 -0.101272 -0.31447 -0.0576461 2.12581 15.824 21.1483 -2.18499 -2.69972 0.541474 0.04 
1046 1 1 -0.0332908 -0.633055 -0.959986 0 0 0 -0.0344841 -0.12027 -0.0606622 2.91494 -6.29325 -37.194 -2.07204 0.472543 2.33233 0.04 
581 1 1 0.0434198 -0.655558 -0.960282 0 0 0 -0.138288 0.152187 0.11353 1.28646 -0.815106 4.96008 -2.11129 -1.21229 -1.25811 0.04 
61 1 1 0.169001 -0.599597 -0.960434 0 0 0 0.00638348 0.021855 -0.00106384 -2.60527 7.78592 17.1796 -0.290997 0.39656 0.869408 0.04 
1052 1 1 0.266922 -0.623432 -0.960684 0 0 0 -0.0947308 0.0605309 -0.0451658 -4.38371 11.0508 11.2 -1.48906 -0.656926 1.87594 0.04 
656 1 1 0.342403 -0.659613 -0.960303 0 0 0 -0.155257 0.0786973 -0.0686643 -4.59711 1.20818 5.07429 -3.80626 -2.62681 0.232034 0.04 
1082 1 1 0.416043 -0.628689 -0.960496 0 0 0 0.00552883 -0.025927 0.00353872 0.753126 31.3348 22.15 0.600679 -0.0662974 -0.529939 0.04 
255 1 1 0.495013 -0.615118 -0.960339 0 0 0 0.000692215 0.0853505 0.11826 -0.193064 -10.8104 11.0134 -2.80456 0.0535704 0.485049 0.04 
1026 1 1 0.575161 -0.600777 -0.960146 0 0 0 -0.0644074 -0.0241322 -0.0444724 -24.1446 -4.34799 -34.8642 -0.486663 -0.0894749 -0.543641 0.04 
880 1 1 0.629477 -0.661999 -0.959862 0 0 0 -0.151686 0.0826682 -0.107145 -3.33983 6.76752 -6.49727 -1.01476 1.92892 0.14278 0.04 
543 1 1 0.744629 -0.633834 -0.960493 0 0 0 0.180674 -0.163922 0.0388744 -1.23882 0.533796 20.4039 2.44487 0.648934 1.30839 0.04 
553 1 1 0.890128 -0.632841 -0.959877 0 0 0 -0.113706 0.197313 -0.0335469 0 0 -6.57473 -2.03553 -0.296792 3.54777 0.04 
990 1 1 -0.882407 -0.573822 -0.960321 0 0 0 0.0746342 -0.141753 -0.0369356 -7.52908 -3.48361 12.0967 -0.743443 -1.32559 -0.74117 0.04 
1152 1 1 -0.748792 -0.575151 -0.960212 0 0 0 -0.0818242 -0.125637 0.153837 -9.54975 -6.48679 2.00299 1.11922 0.404288 -0.0829198 0.04 
925 1 1 -0.628896 -0.589811 -0.960138 0 0 0 0.17788 0.0430822 0.0752628 -7.52933 37.1258 -5.28464 -3.43955 1.99197 1.43722 0.04 
893 1 1 -0.549871 -0.568674 -0.960076 0 0 0 -0.120386 0.0913423 0.0670947 0.145982 -0.0850285 -3.19592 -0.392729 0.237542 4.69023 0.04 
1448 1 1 -0.387473 -0.558699 -0.959541 0 0 0 0.199713 0.198985 0.142331 0 0 -6.57473 -1.55332 2.23798 0.831839 0.04 
962 1 1 -0.155205 -0.545486 -0.960391 0 0 0 -0.0572417 0.0357571 0.118361 10.7072 -23.1833 1.79646 -3.80465 0.0259803 -0.380848 0.04 
950 1 1 -0.077418 -0.565926 -0.959991 0 0 0 -0.116538 0.0656724 0.000815447 0 0 -6.57473 -1.6393 -0.0330245 -3.05036 0.04 
716 1 1 0.010538 -0.566311 -0.959253 0 0 0 -0.136113 0.026337 -0.164675 2.89152 4.02369 -6.39552 3.1109 2.40337 -1.29996 0.04 
388 1 1 0.0893322 -0.590115 -0.961902 0 0 0 -0.0201532 -0.00521854 -0.195874 8.46491 -22.0553 91.8198 -0.50024 1.22165 1.06093 0.04 
867 1 1 0.205921 -0.527345 -0.960255 0 0 0 -0.072617 0.0640412 0.127198 -3.50875 -2.57089 -9.24401 -3.06155 1.29889 0.0907103 0.04 
576 1 1 0.322039 -0.563808 -0.960057 0 0 0 -0.0136932 0.00102532 -0.0829163 -14.0861 10.8553 -21.7268 -0.155642 -0.357731 -1.47856 0.04 
408 1 1 0.402856 -0.549578 -0.960164 0 0 0 0.0251551 0.00341117 -0.100687 -8.05606 10.149 -11.4834 0.665483 0.800531 0.133364 0.04 
814 1 1 0.490635 -0.535535 -0.96023 0 0 0 -0.396258 -0.0300148 0.0872661 -3.48949 6.49969 2.0368 -2.13883 -5.6782 -0.306287 0.04 
1111 1 1 0.668954 -0.588999 -0.960229 0 0 0 0.110489 0.0349095 0.00822924 -0.575035 -0.26406 6.0806 0.694462 -0.648144 -1.16119 0.04 
1138 1 1 0.742513 -0.552953 -0.959813 0 0 0 -0.0139428 -0.0736524 -0.0189171 -2.98311 5.19871 -14.887 -0.5016 -1.15824 2.26363 0.04 
58 1 1 0.815677 -0.587347 -0.959841 0 0 0 -0.110982 0.103349 -0.101421 0 0 -6.57473 0.556801 0.169076 -1.24599 0.04 
1107 1 1 0.885904 -0.548137 -0.959035 0 0 0 0.0822753 -0.217925 -0.27971 0 0 -6.57473 -2.87507 1.35114 1.44568 0.04 
252 1 1 0.959652 -0.593183 -0.959812 0 0 0 0.0564208 0.0371082 0.0123436 3.47769 14.357 -22.7488 -1.11792 0.314683 -0.568263 0.04 
670 1 1 -0.957538 -0.503126 -0.959969 0 0 0 0.0658648 0.0537801 -0.0403735 -0.87305 13.9558 -26.7759 -1.85368 -0.341517 1.3206 0.04 
565 1 1 -0.8157 -0.530104 -0.960476 0 0 0 0.097847 0.0195068 0.0942227 5.74449 -5.89025 8.53224 -0.852622 0.215348 0.399646 0.04 
1113 1 1 -0.683149 -0.530275 -0.955887 0 0 0 0.0415461 0.0833513 -0.531723 7.48123 -5.26929 -3.88265 0.7239 -0.28447 3.11195 0.04 
435 1 1 -0.600263 -0.505012 -0.960024 0 0 0 0.0196148 0.114586 -0.0393783 -9.28978 -1.26269 -13.5837 -0.761453 -0.579894 -0.499246 0.04 
816 1 1 -0.486298 -0.489729 -0.959984 0 0 0 0.135732 0.180322 0.0582651 7.68671 -11.4177 -19.2759 -1.49394 1.03514 0.0472797 0.04 
344 1 1 -0.406282 -0.480235 -0.960397 0 0 0 0.139798 -0.0631182 0.0473992 -0.985807 0.432975 14.9593 0.852869 1.84355 1.94343 0.04 
489 1 1 -0.326116 -0.505677 -0.960049 0 0 0 0.0757757 -0.019725 0.0970536 3.9323 0.984786 -11.8976 -0.436195 1.42644 -0.0244587 0.04 
883 1 1 -0.234999 -0.528422 -0.960414 0 0 0 -0.199492 0.0572994 -0.00168275 10.6145 -3.11032 -18.544 -2.54463 -1.02493 1.24603 0.04 
305 1 1 -0.178002 -0.469894 -0.960164 0 0 0 -0.17428 0.180505 0.123858 -8.05533 24.2608 -1.0626 -1.44839 -0.83896 0.247387 0.04 
1066 1 1 -0.034278 -0.497801 -0.960385 0 0 0 0.0885038 0.0998381 0.0143322 -3.15785 -28.1884 -37.4043 -1.18101 1.33056 1.69972 0.04 
143 1 1 0.0758438 -0.512157 -0.960231 0 0 0 -0.192601 0.134056 0.0584472 -11.1567 12.8721 -15.3993 0.792563 1.47344 1.92923 0.04 
1346 1 1 0.153354 -0.467589 -0.961338 0 0 0 0.163005 0.0677586 0.0985982 -4.73449 -13.5706 65.0456 -2.31185 1.98584 0.48727 0.04 
1000 1 1 0.27849 -0.49342 -0.960598 0 0 0 0.0518203 0.113231 0.0228955 -16.5299 -9.0505 13.8625 -1.29249 -0.105375 1.51517 0.04 
792 1 1 0.356478 -0.476854 -0.960183 0 0 0 -0.107004 0.118714 0.0350433 6.04087 2.11508 2.43873 -1.6005 1.42155 -0.162375 0.04 
1361 1 1 0.436106 -0.471326 -0.958731 0 0 0 0.00103872 0.177696 0.00534015 5.28982 0.147104 -6.33098 -4.69465 -3.36192 -2.03257 0.04 
1288 1 1 0.5923 -0.522718 -0.9599 0 0 0 -0.129767 0.0039901 0.0235165 -27.7954 -4.66719 -8.00871 0.00527036 -0.910697 0.990518 0.04 
908 1 1 0.669133 -0.503545 -0.960628 0 0 0 -0.102158 0.178084 0.296803 20.6014 16.7995 -0.35108 -1.13869 -0.910045 1.23885 0.04 
1309 1 1 0.80667 -0.501765 -0.959558 0 0 0 0.0426654 0.0332798 -0.224443 0 0 -6.57473 -2.51039 -1.4581 3.53384 0.04 
771 1 1 0.959778 -0.512646 -0.959939 0 0 0 -0.141272 0.0882924 -0.0148309 0 0 -6.57473 -2.35215 1.7169 -2.28306 0.04 
1055 1 1 -0.96021 -0.406841 -0.959988 0 0 0 0.0252267 0.0239417 -0.138089 11.3911 0.0895209 -6.01225 -1.71759 -0.338344 1.20121 0.04 
739 1 1 -0.890622 -0.4475 -0.959994 0 0 0 -0.00125278 0.0248919 0.0735139 -0.977826 8.74019 -14.6449 -2.41071 0.0227792 -4.02358 0.04 
1142 1 1 -0.820304 -0.409372 -0.960007 0 0 0 -0.0665761 -0.0087793 0.0498839 1.75803 0.407424 -8.10526 -0.316305 0.577307 -0.862782 0.04 
644 1 1 -0.758963 -0.463756 -0.959707 0 0 0 0.0471085 -0.163873 -0.0270472 1.97903 0.353964 -8.4259 0.545686 -0.674045 -1.30783 0.04 
833 1 1 -0.667749 -0.452245 -0.961151 0 0 0 -0.123634 -0.074604 0.0983252 5.24897 13.4971 54.8793 -0.429478 1.63427 -1.49938 0.04 
620 1 1 -0.546523 -0.436269 -0.957281 0 0 0 0.0196903 0.176362 -0.190524 0 0 -6.57473 -1.47674 0.620929 0.382396 0.04 
1316 1 1 -0.468671 -0.412114 -0.956924 0 0 0 -0.0978336 0.136172 -0.561161 -17.3576 -8.10977 -2.66837 0.0732546 1.75012 0.588712 0.04 
247 1 1 -0.33436 -0.413257 -0.960178 0 0 0 0.0167354 0.159453 -0.108115 -9.74361 -31.7995 -39.9662 -2.46224 1.34072 3.89114 0.04 
382 1 1 -0.262292 -0.451857 -0.959426 0 0 0 0.0588386 0.197715 0.159941 0 0 -6.57473 -2.27763 0.821624 3.14667 0.04 
1271 1 1 -0.0968712 -0.424792 -0.960284 0 0 0 0.0542036 0.127783 -0.036207 3.25711 4.71127 3.02369 -2.33285 -0.534865 -1.70821 0.04 
1249 1 1 0.0275717 -0.446059 -0.960044 0 0 0 0.0693689 0.135701 -0.214865 13.8724 -16.6943 -0.892614 0.867287 -0.565255 -1.43178 0.04 
1030 1 1 0.102305 -0.40706 -0.959547 0 0 0 -0.0105663 0.144185 -0.00488284 -13.7884 18.9641 -5.03172 -0.847919 1.28386 -0.687699 0.04 
1148 1 1 0.225562 -0.433609 -0.960039 0 0 0 0.0233451 0.12784 -0.0687254 -4.54651 19.3958 -21.8732 -1.34582 1.14102 -1.6548 0.04 
772 1 1 0.303419 -0.41632 -0.95851 0 0 0 -0.00951051 0.0403197 0.0120945 1.78078 -6.60906 -20.3689 -1.22534 -0.571465 -1.5362 0.04 
845 1 1 0.389323 -0.402532 -0.959551 0 0 0 0.0507255 0.155528 -0.0630872 1.10859 8.01046 -18.9852 -3.3215 0.743018 -0.00915567 0.04 
1047 1 1 0.618109 -0.442154 -0.95518 0 0 0 -0.026267 0.107323 -0.152233 0 0 -6.57473 3.64811 2.20879 -3.32947 0.04 
1474 1 1 0.696244 -0.419856 -0.960085 0 0 0 -0.0610004 0.0592474 -0.10681 0.272254 -0.141735 -0.435966 -1.39379 -1.35639 -0.517041 0.04 
840 1 1 0.780404 -0.420764 -0.960253 0 0 0 0.113605 0.177102 0.0855886 -4.16393 1.94667 0.533523 -0.39959 1.20659 0.765942 0.04 
9 1 1 0.881845 -0.466109 -0.960216 0 0 0 -0.0405739 0.175343 0.0559971 0.248055 -0.507765 4.72761 -0.0915797 1.08549 -0.306356 0.04 
852 1 1 0.95876 -0.431507 -0.960112 0 0 0 0.0822018 0.0328047 0.0420275 -0.256099 0.122601 -0.896079 -2.70857 -1.88437 2.44872 0.04 
326 1 1 -0.889818 -0.367517 -0.960312 0 0 0 -0.0224342 0.0799413 0.0254608 -11.4115 -8.10544 9.97267 -1.04367 0.692961 0.451393 0.04 
1246 1 1 -0.745754 -0.372364 -0.959676 0 0 0 -0.0402073 0.0437283 -0.00733061 0 0 -6.57473 -1.73496 -0.80591 -0.28646 0.04 
613 1 1 -0.615591 -0.387098 -0.959915 0 0 0 -0.240282 -0.0698201 0.0840542 0 0 -6.57473 -1.92824 -0.406578 1.23083 0.04 
857 1 1 -0.522755 -0.35336 -0.960303 0 0 0 -0.0363952 -0.124918 -0.0848317 -2.87279 -16.1776 -6.89557 -0.335204 0.90117 -1.46582 0.04 
92 1 1 -0.406251 -0.363468 -0.959244 0 0 0 -0.0894578 0.294777 -0.112755 16.0849 9.94252 -8.50955 -0.260997 -0.823167 0.110731 0.04 
1124 1 1 -0.264882 -0.368644 -0.959425 0 0 0 -0.250805 0.0657278 0.172936 15.9522 -4.93037 -27.8361 -0.847941 -0.563429 -2.35592 0.04 
868 1 1 -0.187495 -0.390742 -0.959954 0 0 0 -0.00668076 0.0586521 -0.108829 -1.65046 19.0761 -27.7139 -0.542086 -3.39498 0.34973 0.04 
1010 1 1 -0.109406 -0.345772 -0.960221 0 0 0 -0.0968861 0.00589138 -0.0765209 -3.02122 -35.2523 -12.1094 -0.1603 0.638753 -0.464435 0.04 
1223 1 1 -0.0257842 -0.387233 -0.958572 0 0 0 0.0483258 -0.018503 0.0280516 -29.498 8.1354 -5.81132 1.02934 0.885386 0.502989 0.04 
144 1 1 0.0451239 -0.351278 -0.960443 0 0 0 -0.004276 0.0416231 0.102265 12.7681 20.3284 2.18908 -0.542223 -1.23049 2.0591 0.04 
315 1 1 0.174735 -0.371617 -0.960661 0 0 0 0.0971192 0.205194 0.10565 5.25996 5.56308 11.354 -1.78752 0.641406 1.98756 0.04 
1187 1 1 0.254046 -0.353162 -0.961077 0 0 0 0.194087 0.120007 0.144991 3.62604 -19.0975 43.1869 -2.18192 -0.103458 -0.862831 0.04 
677 1 1 0.470315 -0.396287 -0.959955 0 0 0 0.0526652 0.0267873 -0.126387 0.0159416 -0.125316 -6.35589 -1.92485 2.99024 0.945553 0.04 
981 1 1 0.550966 -0.39758 -0.960094 0 0 0 -0.0874363 -0.0907489 -0.30373 -16.6357 -21.7043 -27.0332 0.272752 0.640154 -1.79088 0.04 
361 1 1 0.632172 -0.360901 -0.960316 0 0 0 0.192938 0.106356 -0.146342 17.9454 -7.60864 -15.3575 -2.63408 -1.72212 4.15119 0.04 
499 1 1 0.790713 -0.34126 -0.959695 0 0 0 -0.0783682 0.356726 -0.0980183 9.60018 -4.07314 -24.9992 -1.19727 0.208926 -0.649611 0.04 
398 1 1 0.860656 -0.384088 -0.958666 0 0 0 0.0689452 -0.00472353 0.0130315 7.95868 -4.54793 -23.015 -2.78256 -0.320178 0.726331 0.04 
975 1 1 0.948357 -0.35193 -0.95999 0 0 0 0.284218 0.150545 -0.027806 0 0 -6.57473 -2.12466 2.85733 1.36335 0.04 
982 1 1 -0.959958 -0.326779 -0.960282 0 0 0 -0.0408943 0.161679 0.123852 -0.0645063 -5.12682 7.43275 -0.447745 0.243889 0.247077 0.04 
995 1 1 -0.888925 -0.286874 -0.959967 0 0 0 -0.0614219 -0.00409555 0.105421 -11.0605 7.26223 -7.61691 0.835479 -0.975521 0.503075 0.04 
1215 1 1 -0.820815 -0.327856 -0.959988 0 0 0 0.0913991 0.120878 -0.0679041 11.9701 -11.6572 -5.98756 0.874028 -0.581837 1.68985 0.04 
76 1 1 -0.753974 -0.284783 -0.960205 0 0 0 -0.0275527 0.207384 -0.0331646 15.4188 8.84161 5.98692 -0.747429 -1.3363 0.835746 0.04 
969 1 1 -0.668154 -0.325264 -0.960537 0 0 0 0.0837192 0.122055 -0.0408257 -3.64974 -9.55228 18.289 -1.43958 0.155454 0.712034 0.04 
230 1 1 -0.589498 -0.310197 -0.960423 0 0 0 0.0230916 -0.131594 -0.0825649 -15.9448 12.0747 18.905 1.19717 0.946547 0.0593554 0.04 
116 1 1 -0.461072 -0.303643 -0.96068 0 0 0 -0.0290318 0.0525708 0.0361535 17.2694 17.382 24.8942 -0.839929 -1.74267 2.24321 0.04 
978 1 1 -0.349527 -0.307457 -0.96013 0 0 0 0.00675694 0.0379731 0.0332609 23.8824 -12.5334 0.257271 -1.76451 -0.944788 0.273465 0.04 
1155 1 1 -0.271938 -0.287859 -0.959461 0 0 0 0.00132695 -0.0363805 -0.0217135 -16.5711 -16.458 -9.5851 -0.569896 -0.609951 0.805668 0.04 
1214 1 1 -0.195174 -0.311061 -0.960722 0 0 0 0.0255908 0.0474956 0.131085 0.00436937 -1.46058 31.9632 -0.949314 0.395986 -3.37961 0.04 
1451 1 1 -0.121454 -0.267339 -0.960275 0 0 0 -0.196166 0.23476 0.0507413 -2.2568 21.2852 7.15182 -0.466895 -0.189936 -0.21585 0.04 
201 1 1 -0.0340582 -0.306316 -0.9603 0 0 0 -0.0804698 -0.0948775 0.0638768 0.455621 0.65117 9.3201 0.155389 -0.4622 -0.9079 0.04 
1062 1 1 0.0411637 -0.2711 -0.960551 0 0 0 -0.111704 -0.13316 0.186867 -0.440876 -20.8938 -14.9039 0.531147 -2.61404 -0.113946 0.04 
404 1 1 0.129764 -0.305231 -0.961042 0 0 0 -0.146382 0.0202407 -0.147875 -9.54159 -18.9064 12.4217 0.181599 -0.331839 -1.11255 0.04 
1216 1 1 0.209742 -0.287029 -0.960687 0 0 0 -0.0162835 0.0209085 0.0651544 -5.54582 12.1462 31.0053 -0.0196456 0.861412 1.11208 0.04 
780 1 1 0.292057 -0.273774 -0.960403 0 0 0 -0.267665 0.0358394 -0.032445 1.07268 -0.398215 16.3096 1.34622 -0.674166 -2.95569 0.04 
220 1 1 0.355022 -0.33001 -0.960217 0 0 0 -0.0280136 0.110233 -0.0141092 0.0774992 -0.609251 5.70849 -1.00408 -0.478453 -0.436795 0.04 
624 1 1 0.434687 -0.29408 -0.96045 0 0 0 -0.267798 0.0436359 -0.0968218 5.69317 -2.91333 19.5407 -0.0193852 -1.39552 -0.767034 0.04 
309 1 1 0.509698 -0.324799 -0.954342 0 0 0 -0.0955978 0.056284 -0.281443 0 0 -6.57473 0.571115 2.21792 3.18315 0.04 
1074 1 1 0.580808 -0.287489 -0.96093 0 0 0 -0.11314 0.328707 -0.249863 0.75143 -2.64748 48.4663 4.99562 0.91611 0.827933 0.04 
764 1 1 0.712424 -0.328428 -0.961054 0 0 0 -0.0878066 -0.105939 0.0260856 -30.4932 5.87333 29.8117 0.215914 -0.0942517 2.4174 0.04 
1163 1 1 0.769729 -0.263949 -0.960573 0 0 0 0.00944705 0.438165 0.00110545 0.0473014 -1.59476 25.3344 1.57517 0.611849 1.03876 0.04 
182 1 1 0.851342 -0.289333 -0.960767 0 0 0 0.0852642 0.0893065 0.072031 0.402675 4.64435 27.9775 -0.528971 0.985361 -1.61732 0.04 
657 1 1 -0.958019 -0.246912 -0.960221 0 0 0 -0.246376 0.108582 -0.0381559 -2.1893 -3.17691 -9.50842 -0.233307 -0.43511 -0.508533 0.04 
1056 1 1 -0.890531 -0.202978 -0.959647 0 0 0 -0.01004 0.0464408 0.0057256 -4.06678 -14.3934 -9.4794 0.432038 0.789089 -0.139734 0.04 
1279 1 1 -0.821073 -0.240944 -0.952056 0 0 0 -0.148934 -0.263732 -0.127332 15.6748 -7.64576 -4.56513 -2.79966 0.290887 -0.0671321 0.04 
471 1 1 -0.751123 -0.201698 -0.960713 0 0 0 0.0493222 0.0498431 -0.250499 30.6496 -21.9835 37.9661 2.0448 0.568602 1.99887 0.04 
905 1 1 -0.682789 -0.246858 -0.959851 0 0 0 -0.0341415 0.0272176 0.174948 -1.6813 4.66619 -7.06647 0.129299 -0.70382 -0.353687 0.04 
1286 1 1 -0.601263 -0.230795 -0.959601 0 0 0 0.0717136 0.0133685 -0.0846914 0.843393 -8.64118 -11.8126 1.0707 1.5579 -0.548552 0.04 
1037 1 1 -0.523439 -0.252761 -0.960626 0 0 0 -0.208707 -0.0130241 -0.0382939 4.65357 -16.581 25.5042 0.0611405 0.127087 -1.69195 0.04 
945 1 1 -0.463504 -0.196717 -0.96039 0 0 0 -0.0453362 -0.0526434 0.0105364 5.79161 -6.22233 1.84154 -0.791143 -0.0337477 -1.24698 0.04 
1205 1 1 -0.401877 -0.247909 -0.960337 0 0 0 -0.0935107 -0.125753 0.0178736 -21.216 1.42892 -25.9695 1.29331 -0.273284 0.676617 0.04 
710 1 1 -0.325461 -0.2247 -0.960447 0 0 0 -0.0227089 0.0144577 0.0510211 10.3753 16.6234 -6.45052 -0.70804 -1.03534 -0.0870638 0.04 
168 1 1 -0.214664 -0.232847 -0.960057 0 0 0 -0.109084 0.0464079 -0.136561 17.9897 -0.325158 -17.4525 -0.77196 -0.0551782 -0.110301 0.04 
1348 1 1 -0.071902 -0.196888 -0.959377 0 0 0 -0.0555367 0.0910998 -0.0349809 0.382269 -15.1053 -16.3657 -0.471758 0.751116 0.95861 0.04 
1301 1 1 0.0931118 -0.209333 -0.960133 0 0 0 -0.069557 -0.0851199 -0.0249449 -15.6439 2.39826 1.39873 0.190401 -1.4291 -0.00579664 0.04 
1201 1 1 0.172402 -0.215771 -0.959781 0 0 0 0.0327508 0.0750692 0.134902 10.4734 0.110913 -14.1481 -1.22588 -1.08442 0.335404 0.04 
1139 1 1 0.255618 -0.198715 -0.959341 0 0 0 0.0370191 0.0760203 0.0275961 0 0 -6.57473 -0.725024 -0.287012 -2.92008 0.04 
1069 1 1 0.368328 -0.249613 -0.957839 0 0 0 0.0638984 -0.006879 -0.264813 15.7589 -12.3753 -38.0797 0.317815 -1.43343 3.36816 0.04 