ITEM: TIMESTEP
81200
ITEM: NUMBER OF ATOMS
1500
ITEM: BOX BOUNDS ff ff ff
-1 1
-1 1
-1 1
ITEM: ATOMS id type type x y z ix iy iz vx vy vz fx fy fz omegax omegay omegaz radius 
137 1 1 -0.960112 -0.960145 -0.960204 0 0 0 -3.53537e-05 -3.05123e-05 7.71664e-05 -0.000581216 0.00216261 -0.00542975 0.00262817 -0.00125816 -0.000384808 0.04 
5 1 1 -0.830902 -0.960159 -0.960271 0 0 0 1.72316e-05 -0.000104094 -9.485e-06 0.0154894 0.00278237 0.00942542 0.00183008 0.000252668 -0.000677335 0.04 
239 1 1 -0.750987 -0.960144 -0.960248 0 0 0 3.26163e-06 -6.14733e-05 -2.1819e-05 0.0103225 0.000741428 0.00364241 0.000356015 0.000694877 0.00151625 0.04 
34 1 1 -0.671031 -0.960043 -0.960243 0 0 0 -2.30312e-05 -0.000156628 -1.55986e-05 0.0104335 -0.00496741 -0.00336063 0.00339079 -0.000215883 -0.00200193 0.04 
415 1 1 -0.591085 -0.96004 -0.960293 0 0 0 -0.000145773 -6.95237e-05 6.86072e-05 0.00396688 -0.00641155 -0.0165175 0.00101481 -0.00426734 0.00390625 0.04 
138 1 1 -0.511001 -0.960061 -0.960242 0 0 0 0.000941208 -5.08856e-06 0.000386728 -0.0171203 -0.0143488 -0.0112097 0.00283573 0.0235386 0.00969544 0.04 
323 1 1 -0.43101 -0.960003 -0.960152 0 0 0 0.000904999 3.78151e-05 -0.000473061 -0.0125742 0.0131192 0.0245101 -0.000929666 0.0225856 -0.0127547 0.04 
130 1 1 -0.351043 -0.960052 -0.960216 0 0 0 0.000665004 -0.000238656 0.000377856 -0.00302665 0.00296347 -0.0241424 0.00870561 0.0175845 -0.00593374 0.04 
502 1 1 -0.271092 -0.960102 -0.960299 0 0 0 0.000520772 5.66368e-05 0.000170419 -0.00480284 -0.0165874 -0.018526 0.00301233 0.00317258 -0.00697956 0.04 
494 1 1 -0.178973 -0.960131 -0.960227 0 0 0 0.0142515 0.000816867 -9.81658e-05 0.028602 -0.111159 0.0625898 -0.0202436 0.343033 -0.350944 0.04 
448 1 1 -0.0989278 -0.960013 -0.960273 0 0 0 0.0116498 -0.000404118 0.000501911 -0.0596654 -0.0233195 -0.116666 0.017493 0.300737 -0.146386 0.04 
147 1 1 -0.018993 -0.960038 -0.960223 0 0 0 0.00975004 0.00250472 -0.000326947 -0.199627 0.0249096 0.247549 -0.0801609 0.217413 -0.182429 0.04 
218 1 1 0.0609645 -0.960123 -0.960209 0 0 0 0.00834526 0.000845921 -0.000528977 0.32381 -0.0486458 0.040714 -0.0198415 0.213525 -0.200841 0.04 
339 1 1 0.152869 -0.96019 -0.960214 0 0 0 -0.00168186 0.000820714 -0.000354455 -0.0439029 0.011429 0.0680123 -0.0198514 -0.0352687 -0.000225125 0.04 
81 1 1 0.2328 -0.960097 -0.960163 0 0 0 -0.000770634 -0.000336609 -0.000327296 -0.0535189 -0.0203671 -0.0776511 -0.0057776 -0.0257103 0.0226925 0.04 
341 1 1 0.312705 -0.960057 -0.960159 0 0 0 1.68932e-05 0.000260805 0.000247403 -0.038364 0.00950293 -0.000360239 0.000751856 -0.000177029 0.00365983 0.04 
203 1 1 0.392659 -0.96009 -0.960226 0 0 0 0.000162913 0.00020733 0.000190986 -0.00522685 0.0557593 -0.0297134 -0.000130733 -0.0037839 -0.00321323 0.04 
1019 1 1 0.473823 -0.960017 -0.96021 0 0 0 0.000179294 0.000316417 -0.000125655 -0.00667922 -0.0145488 0.00372373 -0.00921985 0.000238307 -0.00885449 0.04 
821 1 1 0.553818 -0.96004 -0.960231 0 0 0 0.000129625 -8.52074e-05 0.000147889 -0.00333878 0.00403237 0.00930211 0.00361139 0.00202919 -0.00333454 0.04 
636 1 1 0.63381 -0.960466 -0.960201 0 0 0 0.000143609 -0.00012578 -3.11448e-05 0.00626734 -0.00145131 0.0205043 0.00140941 0.00555296 -0.00101579 0.04 
729 1 1 0.720237 -0.960012 -0.96016 0 0 0 0.000175079 -0.000176236 0.000311758 0.00319895 -0.0118945 -0.0107572 0.00733678 0.00491862 -0.00322256 0.04 
503 1 1 0.800199 -0.960027 -0.960138 0 0 0 4.52259e-05 -2.27496e-05 1.61052e-05 0.00195717 -0.00587482 0.0141063 -0.000347221 0.00332911 0.00333926 0.04 
424 1 1 0.880171 -0.960035 -0.960162 0 0 0 9.52415e-06 5.72901e-05 -2.27259e-05 0.00421944 0.00373669 -0.00568228 -0.00079518 -0.00107752 -0.0011163 0.04 
850 1 1 0.960098 -0.958939 -0.960221 0 0 0 -8.09801e-06 2.07548e-05 -8.23552e-06 0.0102769 -0.00408228 -0.000366874 -0.000346198 -0.000216856 -0.000348816 0.04 
778 1 1 -0.959898 -0.880366 -0.960214 0 0 0 0.000178637 6.92157e-05 0.000175463 0.0303505 0.00246982 5.55353e-05 -0.0027149 0.00696601 -0.00372955 0.04 
918 1 1 -0.880185 -0.897175 -0.960221 0 0 0 2.14152e-05 -0.000132108 0.000134394 0.0240388 0.00928006 0.0251038 0.0026353 -0.000833767 -0.000821414 0.04 
246 1 1 -0.791945 -0.890532 -0.960151 0 0 0 9.05319e-05 -1.66254e-05 3.86829e-05 0.0155526 0.00724396 -0.00674805 0.000139667 -6.39321e-05 0.000345526 0.04 
586 1 1 -0.711976 -0.890488 -0.960299 0 0 0 5.81652e-05 -8.4989e-05 3.39791e-05 -0.00133741 0.002383 -0.0153244 0.00392304 0.000345088 -0.00329731 0.04 
379 1 1 -0.630989 -0.890672 -0.960191 0 0 0 9.02548e-05 -0.000308002 1.48653e-05 -0.0105016 -0.0148379 -0.00644886 0.00826377 0.00209736 -0.00888852 0.04 
105 1 1 -0.550955 -0.890881 -0.960219 0 0 0 -0.000273354 -0.000336348 -8.76301e-05 -0.0100957 -0.01531 -0.00731191 0.00929981 -0.00395448 -0.00530207 0.04 
289 1 1 -0.471046 -0.890747 -0.960227 0 0 0 -0.000774364 -0.00075544 -0.000411183 -0.0261576 0.0267732 -0.0419958 0.0184533 -0.0180214 0.00266556 0.04 
345 1 1 -0.38939 -0.870554 -0.960118 0 0 0 -0.00262257 -0.00195746 -3.28003e-05 -5.32313e-05 1.213e-05 0.00166298 0.0490103 -0.0656549 0.149076 0.04 
209 1 1 -0.311072 -0.890847 -0.960244 0 0 0 0.000245705 -0.000267073 0.000697648 0.0600171 0.0332529 0.0226657 0.00401476 0.00409611 0.0150033 0.04 
647 1 1 -0.224981 -0.894825 -0.960217 0 0 0 0.0080381 -0.0040117 -0.000434026 0.0992912 0.0375855 -0.0432727 0.0986682 0.199421 0.0922828 0.04 
700 1 1 -0.14028 -0.890243 -0.960159 0 0 0 0.0186673 -0.000625813 0.000335167 0.0881911 -0.0989339 -0.107402 0.012212 0.459704 0.224875 0.04 
616 1 1 -0.0603044 -0.88988 -0.960225 0 0 0 0.0176482 -0.0060218 0.00010677 -0.0904417 -0.0766363 -0.0951915 0.14947 0.428217 -0.0318186 0.04 
87 1 1 0.0227377 -0.889963 -0.960147 0 0 0 0.0167711 0.00744287 0.000313049 0.173265 0.111268 -0.0194036 -0.189485 0.422516 -0.00570643 0.04 
655 1 1 0.107029 -0.894811 -0.960203 0 0 0 0.00247836 0.00509788 0.000541339 0.131199 -0.145443 -0.170118 -0.103468 0.0445062 0.136243 0.04 
977 1 1 0.192659 -0.890946 -0.960202 0 0 0 -0.00162826 1.4653e-05 0.000115076 -0.0923289 -0.00964441 0.056928 -0.00245606 -0.0545495 -0.00354999 0.04 
19 1 1 0.272634 -0.890838 -0.96024 0 0 0 -0.000621421 0.000362015 -0.000348049 -0.0316854 0.0235447 -0.0634301 -0.018788 -0.0147708 -0.00553986 0.04 
443 1 1 0.352679 -0.890825 -0.96022 0 0 0 -0.0002706 0.000450296 -0.000707884 -0.0575272 0.0175824 -0.0335009 0.000141993 -0.00415724 0.00666756 0.04 
664 1 1 0.433098 -0.891182 -0.960227 0 0 0 -5.24131e-06 0.00015182 0.000615172 -0.0116424 0.0374802 -0.0233245 -0.000479779 -0.000273192 0.00337191 0.04 
74 1 1 0.594465 -0.891192 -0.960227 0 0 0 0.000114369 -0.00015356 0.000164901 -0.00163777 0.00302915 0.0192396 0.00020434 -0.00164231 -0.000308499 0.04 
50 1 1 0.674318 -0.891968 -0.960176 0 0 0 5.02127e-05 -9.49422e-05 9.86515e-05 0.0331585 0.00154413 0.0103463 0.00506796 0.00385965 0.00539857 0.04 
1 1 1 0.749855 -0.866695 -0.960237 0 0 0 -4.71712e-05 2.3667e-05 -2.97231e-05 0.00498498 0.0101389 0.0129317 -0.00214598 0.000363173 -0.000393295 0.04 
812 1 1 0.87801 -0.880115 -0.960204 0 0 0 8.32925e-06 4.54097e-05 -3.08319e-06 0.000808774 0.0129415 -0.00641834 -0.000440563 5.39689e-05 0.00211898 0.04 
446 1 1 -0.960235 -0.800679 -0.960213 0 0 0 1.49304e-05 2.65702e-05 0.000101168 0.0155682 0.014205 0.00271439 0.00104052 -0.00135783 0.0035332 0.04 
352 1 1 -0.84105 -0.827429 -0.960339 0 0 0 -6.85913e-06 -0.000100338 0.000188406 0.00191613 -0.00968719 0.0242557 0.000992889 0.00351451 0.00516796 0.04 
894 1 1 -0.761851 -0.816578 -0.960285 0 0 0 6.50785e-05 -8.36608e-05 9.06359e-05 -0.000897706 0.0192286 -0.00600956 0.00138207 0.000199602 -0.000968323 0.04 
960 1 1 -0.681959 -0.816404 -0.960119 0 0 0 5.47544e-05 4.60987e-05 0.000108332 0.00919432 0.0107742 -0.0255759 -0.0018683 0.00100573 0.00406299 0.04 
380 1 1 -0.535314 -0.812415 -0.960165 0 0 0 2.40356e-05 -0.000157318 4.59887e-05 -0.0102415 0.00584405 -0.00758845 0.00229115 -0.00290952 0.0129035 0.04 
720 1 1 -0.258388 -0.822242 -0.96027 0 0 0 0.00527122 -0.00532557 0.00101635 0.0553144 -0.0200656 0.0183957 0.138302 0.125551 0.0985915 0.04 
161 1 1 -0.167324 -0.815015 -0.960312 0 0 0 -0.0108475 -0.0116172 -0.000401134 -0.0105924 -0.0323131 -0.000120698 0.302111 -0.272024 -0.141497 0.04 
385 1 1 -0.0885406 -0.801862 -0.960223 0 0 0 -0.00919657 -0.0264271 -0.00135596 0.022681 -0.166796 -0.0559277 0.51182 -0.0187095 -0.014779 0.04 
827 1 1 -0.0102155 -0.817136 -0.960246 0 0 0 -0.00498183 -0.00174585 0.00026232 0.0234139 -0.121514 0.137384 0.038686 -0.134334 0.593788 0.04 
784 1 1 0.0693389 -0.824441 -0.960239 0 0 0 -0.00597881 0.000330617 0.00159861 0.185928 -0.0135329 -0.0523831 0.00190954 -0.141876 -0.0988962 0.04 
211 1 1 0.151836 -0.822216 -0.960334 0 0 0 -0.00311196 0.000296227 0.000645576 0.103345 0.0336472 -0.0217987 -0.0106058 -0.0858894 0.0770434 0.04 
121 1 1 0.232348 -0.821622 -0.960188 0 0 0 -0.00524079 0.00127586 0.00150798 -0.0923343 0.00256002 0.030879 -0.0256218 -0.131134 0.0791737 0.04 
229 1 1 0.382914 -0.816835 -0.960267 0 0 0 -1.13971e-05 0.000376402 -0.000249846 0.000556481 0.0063802 0.0772438 -0.000899255 0.000391398 -0.0158995 0.04 
396 1 1 0.520779 -0.860757 -0.960257 0 0 0 0.000191055 -0.000110841 8.78467e-05 0.0544183 -0.00637833 -0.00306954 0.00250974 0.00307702 -0.00345687 0.04 
866 1 1 0.594006 -0.811408 -0.960291 0 0 0 -0.000202573 -3.6897e-05 -1.03443e-05 0.0102301 0.0190833 0.0138544 -0.00307677 -0.00738998 0.0115237 0.04 
628 1 1 0.673826 -0.812241 -0.960202 0 0 0 3.5351e-05 -2.48884e-06 0.000281559 0.0107616 -0.00588511 0.0368848 -4.76059e-05 0.00151275 -0.0102914 0.04 
554 1 1 0.818679 -0.826463 -0.960277 0 0 0 -4.44637e-05 3.1135e-05 -4.72913e-05 0.00588829 0.00563963 0.00557419 -0.000358787 -0.000527048 -0.000445325 0.04 
417 1 1 0.960146 -0.833978 -0.960255 0 0 0 5.16708e-05 6.60703e-05 -1.74341e-05 0.00916425 0.00951197 0.00387751 -0.00251352 0.000774524 -0.000431494 0.04 
282 1 1 -0.889468 -0.763967 -0.960208 0 0 0 -3.69259e-05 -7.49675e-05 0.000235002 0.0060966 0.0247828 -0.00136074 -0.00029891 -0.0021287 -0.0104548 0.04 
492 1 1 -0.810341 -0.753052 -0.960211 0 0 0 -9.7557e-05 -0.000215652 5.406e-05 0.00320083 0.0524151 -0.0681086 -5.57423e-05 0.000505233 0.0083164 0.04 
290 1 1 -0.609567 -0.782685 -0.960234 0 0 0 8.16615e-05 -6.60183e-05 1.74464e-05 0.000257482 0.00610447 -0.00510437 0.00249123 0.00124243 -0.0051272 0.04 
52 1 1 -0.453403 -0.788996 -0.960349 0 0 0 -0.000305053 0.000609244 -3.09948e-05 -0.0497382 0.024771 -0.0223886 -0.0191942 -0.00453916 0.0138173 0.04 
480 1 1 -0.37559 -0.770921 -0.960329 0 0 0 -0.00128177 0.00365046 -4.52711e-05 0.0166144 -0.0337432 -0.0498079 -0.0967639 -0.029458 0.0364087 0.04 
402 1 1 -0.297911 -0.7523 -0.96013 0 0 0 0.000649879 -0.00511198 -0.000201402 0.0284185 -0.0373563 -0.0453637 0.126931 0.0126178 0.11112 0.04 
322 1 1 -0.21804 -0.753258 -0.96016 0 0 0 0.001758 -0.00170364 0.000238244 -0.0525568 0.0617326 -0.0220185 0.0386206 0.0461337 -0.193693 0.04 
376 1 1 -0.139229 -0.740157 -0.960144 0 0 0 0.00490652 -0.0170819 -0.00175202 -0.0280043 -0.0962632 0.0738701 -0.298461 -0.0334697 -0.208316 0.04 
1122 1 1 0.0169606 -0.736207 -0.960205 0 0 0 0.0059461 -0.00733707 -0.000836648 -0.121808 0.0883958 0.198321 0.173453 0.143535 0.0363538 0.04 
773 1 1 0.0983815 -0.75015 -0.960253 0 0 0 0.00427807 -0.00279888 -0.00231468 0.0242339 0.0436953 0.0580862 0.0647412 0.0960124 -0.0693996 0.04 
725 1 1 0.195176 -0.75089 -0.960176 0 0 0 -0.0152267 -0.00361861 0.000549731 -0.177496 0.0326807 0.0231238 0.0978885 -0.380237 0.0859071 0.04 
354 1 1 0.306828 -0.792845 -0.960272 0 0 0 -0.00245241 -0.0073688 -9.37906e-05 -0.0833879 -0.0438879 0.0369976 0.178554 -0.0563503 0.220745 0.04 
688 1 1 0.486626 -0.750828 -0.960203 0 0 0 -0.00396218 0.00248465 0.000398754 0.0159426 0.0147602 0.0105196 -0.0635888 -0.104845 0.0413766 0.04 
757 1 1 0.565302 -0.736945 -0.960203 0 0 0 -0.00463554 -0.00170056 0.00015032 -0.00308624 -0.00905935 0.00482265 0.0435524 -0.0895973 -0.0786556 0.04 
519 1 1 0.645095 -0.737808 -0.96025 0 0 0 -0.00558823 -0.00264391 0.000580846 0.0291806 0.0194605 0.00549445 0.0314596 -0.0601342 0.173466 0.04 
742 1 1 0.749359 -0.786724 -0.960238 0 0 0 -2.83531e-05 2.64826e-05 2.79272e-05 0.00823937 0.000965078 0.0193367 0.000290417 0.00230553 0.00215757 0.04 
603 1 1 0.818356 -0.746592 -0.96013 0 0 0 -0.000184651 0.000105555 2.61559e-05 -0.00216594 0.0217259 0.00855158 0.00168617 0.000216973 0.00245853 0.04 
86 1 1 0.891234 -0.793664 -0.960272 0 0 0 -1.09468e-05 1.31777e-05 -5.04383e-06 0.0112926 0.0185492 0.00048812 -0.000156934 0.000484108 0.000794223 0.04 
972 1 1 0.960249 -0.753763 -0.960206 0 0 0 -1.25037e-05 1.80922e-05 -8.66129e-06 0.00525719 0.00205878 0.00753968 -0.000191627 -0.000168408 -0.000238661 0.04 
488 1 1 -0.960189 -0.720892 -0.960227 0 0 0 4.62026e-05 -5.03693e-05 0.000158519 -0.0216649 0.0125133 -0.00525409 0.000909296 -0.00373263 -0.00538673 0.04 
532 1 1 -0.889448 -0.684181 -0.960239 0 0 0 0.000271813 -0.000120454 0.000139116 -0.05091 0.00630957 0.0228921 0.00448354 0.00722048 0.00732205 0.04 
564 1 1 -0.744125 -0.70817 -0.960247 0 0 0 9.97742e-05 -0.000489021 -0.000372005 -0.000410486 -0.00637281 0.013583 0.00611889 0.000125172 0.00586446 0.04 
314 1 1 -0.666256 -0.726338 -0.960117 0 0 0 0.00019371 0.000160963 -0.000147035 -0.00557292 0.0323031 -0.0108063 -0.00901623 0.00268459 0.000876124 0.04 
783 1 1 -0.611466 -0.667463 -0.960233 0 0 0 -0.000123049 -0.000256776 -0.000267049 -0.0103274 -0.0312369 0.0194319 0.00391891 -0.00494356 0.0111143 0.04 
1127 1 1 -0.55522 -0.724255 -0.960256 0 0 0 0.000185919 5.52502e-05 -0.000164355 -0.0114888 0.0398523 0.000822528 -0.00486241 0.00328002 0.00494627 0.04 
241 1 1 -0.476214 -0.712449 -0.960184 0 0 0 0.000391379 0.00113843 0.000133787 0.0161553 0.064835 -0.0209914 0.00479319 -0.00756188 0.0206309 0.04 
85 1 1 -0.390809 -0.69251 -0.960236 0 0 0 -0.00125568 0.00370341 -7.06672e-05 0.0214384 -0.0395293 -0.0222412 0.0136499 0.017064 0.0543387 0.04 
511 1 1 -0.31318 -0.673807 -0.960162 0 0 0 0.000810182 -0.0044118 -0.000239866 -0.00516876 0.0593322 -0.0659571 0.111731 0.02417 -0.264946 0.04 
873 1 1 -0.233267 -0.674866 -0.960349 0 0 0 0.000675397 -0.00238282 0.00117327 -0.0629546 -0.085454 0.0478184 0.0590425 0.0146139 0.383948 0.04 
204 1 1 -0.0615582 -0.721058 -0.960324 0 0 0 0.00419229 -0.012741 0.000264902 0.00718223 0.131544 -0.0327311 0.321211 0.120625 -0.159434 0.04 
1088 1 1 0.110665 -0.671262 -0.960281 0 0 0 -0.00053351 -0.00172802 -0.00114909 -0.105028 0.0894827 0.0726673 0.0513703 -0.00975961 0.0585106 0.04 
862 1 1 0.20871 -0.672139 -0.960145 0 0 0 -0.00464744 -0.00495264 -0.000951723 0.0344477 -0.0115099 0.0929693 0.119575 -0.117817 -0.126267 0.04 
967 1 1 0.272171 -0.720822 -0.960246 0 0 0 -0.006633 -0.0094434 -0.000506545 0.124582 0.0380319 0.153155 0.23258 -0.15905 0.00206285 0.04 
159 1 1 0.351933 -0.72686 -0.96031 0 0 0 -0.0059315 -0.00572335 -0.000448874 0.050872 0.00277188 0.0580307 0.147426 -0.151758 0.114423 0.04 
451 1 1 0.438989 -0.686624 -0.960249 0 0 0 -0.00745351 0.000213647 0.00041643 -0.0427762 -0.00620466 0.0160177 -0.00184085 -0.182894 0.0396221 0.04 
177 1 1 0.517671 -0.672925 -0.960199 0 0 0 -0.00646045 -0.00328937 -0.000381463 -0.0663085 -0.0167933 0.060394 0.0916832 -0.121251 0.132753 0.04 
439 1 1 0.749019 -0.706783 -0.960185 0 0 0 -0.000269705 0.000306683 -0.00016397 -0.00119042 0.0175103 0.00366403 -0.00539132 -0.00653539 0.00263384 0.04 
662 1 1 0.818193 -0.666696 -0.960191 0 0 0 -5.23618e-05 0.000308999 0.000213548 0.014753 0.0166929 0.0017106 0.000388743 0.000165216 -0.0135967 0.04 
188 1 1 0.891068 -0.713767 -0.960246 0 0 0 -2.16521e-05 3.2133e-05 3.58357e-05 0.00856034 0.00716124 0.0123199 0.000893637 7.64201e-05 -0.00189667 0.04 
987 1 1 0.96018 -0.673823 -0.960185 0 0 0 3.81959e-05 -1.46463e-05 4.50626e-05 0.00477447 -0.00582925 0.00844548 0.000508209 0.00148364 -0.000632187 0.04 
990 1 1 -0.878359 -0.605248 -0.960242 0 0 0 0.0015663 -0.000439896 0.000445983 -0.132981 -0.0478557 0.0299857 0.00668972 0.0433139 -0.0420602 0.04 
826 1 1 -0.811804 -0.665802 -0.960157 0 0 0 0.000355023 -0.000437727 4.3599e-05 -0.0622692 -0.0382397 0.0568729 0.0104683 0.00437926 -0.0171309 0.04 
1152 1 1 -0.757281 -0.607406 -0.96025 0 0 0 -7.91038e-05 -4.33608e-05 8.22748e-06 -0.0922319 -0.0365125 0.11021 -0.00664953 0.0093831 -0.0108115 0.04 
567 1 1 -0.689467 -0.649824 -0.960196 0 0 0 -5.53439e-05 -0.000263238 -0.000321044 -0.070631 -0.00434476 0.10445 0.00526693 0.00354372 0.00683595 0.04 
170 1 1 -0.52767 -0.649227 -0.960293 0 0 0 -0.000668028 0.000147637 -0.000227983 -0.00335266 0.0131002 0.0127288 -0.00179182 -0.0185908 0.0300906 0.04 
375 1 1 -0.448623 -0.637581 -0.960354 0 0 0 -0.00129742 0.00263269 -6.52544e-05 0.0124842 -0.0383645 -0.0319307 -0.0610498 -0.0249958 -0.0373973 0.04 
709 1 1 -0.368243 -0.615791 -0.960118 0 0 0 0.00632811 0.00135828 -0.00015269 0.0489379 -0.0443372 0.042749 -0.0286394 0.156296 -0.0021691 0.04 
738 1 1 -0.123967 -0.661785 -0.960264 0 0 0 -0.00540704 -0.0158512 -0.000595453 0.0690737 -0.224497 0.127787 0.396066 -0.142259 0.163815 0.04 
1046 1 1 -0.0464632 -0.642421 -0.960228 0 0 0 -0.00452851 -0.0158954 0.00152704 -0.0190875 0.00067682 -0.193833 0.401651 -0.10451 0.0838436 0.04 
581 1 1 0.0319591 -0.657608 -0.96026 0 0 0 -0.00229508 -0.00829492 -0.000198948 0.0747351 0.0580708 0.174619 0.209536 -0.0361971 0.107632 0.04 
61 1 1 0.160089 -0.60868 -0.960276 0 0 0 -0.00117692 -0.00142257 -0.000340863 0.0805522 -0.00444585 0.177217 0.0146388 -0.0324482 0.00219161 0.04 
1052 1 1 0.253849 -0.606171 -0.960222 0 0 0 -0.00655067 -0.00412912 0.000365168 0.0665707 0.0132527 0.0428254 0.098477 -0.162906 -0.113889 0.04 
656 1 1 0.317266 -0.654822 -0.960189 0 0 0 -0.01075 -0.00821264 0.000522656 0.0377337 0.0793969 0.0417258 0.0548703 -0.104497 0.0110956 0.04 
1082 1 1 0.390555 -0.623176 -0.960242 0 0 0 -0.0135328 -0.00352344 5.76583e-05 0.00529482 -0.009326 0.0494804 0.0985112 -0.0456871 -0.00815183 0.04 
255 1 1 0.469208 -0.609414 -0.960244 0 0 0 -0.0132132 -0.00833639 0.000204673 -0.0165368 -0.0489673 0.00707492 0.0877757 -0.147995 -0.0129521 0.04 
880 1 1 0.60045 -0.659985 -0.960199 0 0 0 -0.00259983 0.0097056 0.000161209 0.0566752 0.0763664 -0.0138874 -0.243114 -0.0663763 0.0579968 0.04 
308 1 1 0.68016 -0.666216 -0.96022 0 0 0 -0.00325974 -0.00409205 5.64117e-06 0.0608428 0.0091294 7.62023e-05 -0.0646776 0.0279781 -0.245113 0.04 
543 1 1 0.749311 -0.626279 -0.960193 0 0 0 -0.00330931 -0.00430735 -4.05776e-05 0.0194569 0.0573636 -0.0377194 0.111147 -0.0836229 0.165892 0.04 
553 1 1 0.890975 -0.633896 -0.960252 0 0 0 6.4354e-05 -6.62955e-06 0.000101304 -0.000994495 -0.00912959 0.00591325 -0.00539204 0.00106678 0.000440171 0.04 
260 1 1 -0.959977 -0.596161 -0.960244 0 0 0 -0.000612976 0.00115284 0.000139806 -0.00040781 -0.0884203 0.00789731 -0.0203901 -0.017738 0.00864335 0.04 
565 1 1 -0.816939 -0.554136 -0.96024 0 0 0 0.000161521 0.000421645 0.00106378 0.00369604 -0.0397959 -0.0553288 -0.0100832 0.00258679 0.0226201 0.04 
1113 1 1 -0.702846 -0.549058 -0.960307 0 0 0 -0.000782546 -0.000372961 -0.00029386 -0.0381089 -0.0559426 0.111315 0.00646522 -0.0141264 0.0158629 0.04 
925 1 1 -0.635021 -0.591181 -0.960161 0 0 0 -0.000398332 -0.000232753 -0.000638906 -0.0522854 -0.0367815 0.0971364 -0.00815223 -0.00640744 -0.00204291 0.04 
893 1 1 -0.54437 -0.564646 -0.960166 0 0 0 -0.00200229 0.00176975 7.09372e-05 -0.0269115 -0.00283071 0.0346808 -0.0460303 -0.0495361 0.0695044 0.04 
1103 1 1 -0.455824 -0.558207 -0.960322 0 0 0 0.0105683 0.00321119 -0.000256759 0.0257349 -0.0970006 -0.0353234 -0.0834991 0.260063 0.0862407 0.04 
1448 1 1 -0.378853 -0.536538 -0.960117 0 0 0 0.0107258 0.00187842 -0.000417841 -0.0463478 0.00704248 -0.025341 -0.0387238 0.273597 -0.110387 0.04 
631 1 1 -0.304754 -0.566797 -0.960258 0 0 0 -0.00433862 0.0180544 -0.000502431 -0.0920172 -0.0391071 -0.0649377 -0.450903 -0.102837 -0.370632 0.04 
714 1 1 -0.230055 -0.59526 -0.960319 0 0 0 -0.0125403 -0.00280636 5.77305e-05 -0.106594 -0.163472 -0.0901745 -0.0344985 -0.227759 -0.0667502 0.04 
962 1 1 -0.166085 -0.547518 -0.96023 0 0 0 -0.0112024 -0.00475303 -0.000995626 0.0294182 -0.317483 0.0016791 0.0858989 -0.258669 -0.242715 0.04 
950 1 1 -0.091524 -0.576376 -0.96019 0 0 0 -0.0218726 -0.0294871 0.00135634 0.0482687 -0.111093 -0.0633753 0.739775 -0.552854 -0.112835 0.04 
716 1 1 0.00287802 -0.579551 -0.960229 0 0 0 -0.00588093 -0.0127388 -0.00114214 -0.00040698 -0.208717 0.0364637 0.308298 -0.157504 -0.0747308 0.04 
388 1 1 0.0813381 -0.594727 -0.960217 0 0 0 -0.00354912 -0.00832467 -0.000225767 0.030151 0.0477382 0.127997 0.205584 -0.0845357 0.109074 0.04 
867 1 1 0.205148 -0.542841 -0.960177 0 0 0 -0.0021428 -0.00170906 0.000120615 0.0263064 0.104942 0.0129529 0.0151012 -0.000155927 -0.0095783 0.04 
576 1 1 0.324358 -0.561216 -0.960225 0 0 0 -0.0041512 -0.00674513 0.000256694 -0.000403439 0.0511093 0.0281341 0.173239 -0.0923505 -0.0462046 0.04 
408 1 1 0.40514 -0.544734 -0.960204 0 0 0 8.91161e-05 -0.00609502 -0.000156647 -0.0187365 0.0382056 -0.0345627 0.0347945 -0.0281948 0.0364498 0.04 
1026 1 1 0.548464 -0.599218 -0.960232 0 0 0 -0.0143411 8.71079e-05 0.000142044 -0.0350701 0.0376466 -0.019558 -0.0282426 -0.284644 -0.136596 0.04 
1111 1 1 0.671418 -0.586853 -0.960192 0 0 0 0.0148406 -0.00251832 -0.000135481 0.0450771 -0.0178503 0.0865734 0.042609 0.355857 -0.167766 0.04 
1138 1 1 0.740653 -0.546885 -0.960242 0 0 0 0.0142983 -0.0016994 0.00153003 -0.0539177 0.0928021 -0.104317 0.0374506 0.34785 -0.232903 0.04 
58 1 1 0.814452 -0.577618 -0.960204 0 0 0 0.00628322 -0.022349 -0.000113165 -0.0286001 0.136524 -0.000444208 0.560279 0.149936 0.000100181 0.04 
1107 1 1 0.890856 -0.554032 -0.96023 0 0 0 1.46892e-05 -0.00021996 -0.00017827 0.00930864 -0.011805 0.0103698 0.00253105 -0.000814449 0.00146329 0.04 
252 1 1 0.960126 -0.593903 -0.960188 0 0 0 6.73193e-05 -4.46317e-05 -1.4563e-05 -0.000555272 -0.0039436 0.00271134 -0.000355392 0.000382491 0.000671811 0.04 
670 1 1 -0.960097 -0.516195 -0.96022 0 0 0 0.000381698 0.00173185 -3.13066e-05 -0.0614829 -0.0989373 -0.0112699 -0.0430881 0.0112524 -0.0274031 0.04 
644 1 1 -0.761126 -0.493015 -0.96025 0 0 0 -0.0011528 -0.000842269 0.000647284 0.0599297 -0.00924869 -0.0105632 0.0195932 -0.0291127 0.00832576 0.04 
833 1 1 -0.684187 -0.471555 -0.960259 0 0 0 -0.000663456 -0.000560005 -4.78028e-05 -0.0125457 -0.0155789 0.0778437 0.0061241 0.000429201 -0.0128598 0.04 
435 1 1 -0.616154 -0.51355 -0.960288 0 0 0 -0.000454928 -0.000919365 -0.000954443 -0.01554 -0.0309766 0.100362 0.01756 -0.0100642 0.00251553 0.04 
816 1 1 -0.501388 -0.492763 -0.960332 0 0 0 -0.00521839 -0.00891039 3.96421e-06 -0.147145 -0.144891 -0.0102647 -0.143776 0.136527 -0.0408691 0.04 
489 1 1 -0.316549 -0.486426 -0.960277 0 0 0 0.011138 -0.000274155 -0.000582944 0.0539763 -0.197125 0.0275756 0.000182616 0.283964 0.095204 0.04 
883 1 1 -0.242568 -0.516518 -0.96024 0 0 0 0.0105483 -0.0011036 -0.000511171 0.108393 -0.279616 -0.0140778 0.011094 0.246865 -0.365408 0.04 
305 1 1 -0.1787 -0.468619 -0.960177 0 0 0 0.0117922 -0.00238983 0.000804602 0.152637 -0.365709 -0.062182 0.0211503 0.191679 0.0748107 0.04 
675 1 1 -0.104093 -0.497119 -0.960196 0 0 0 0.00337108 -0.0228051 -0.000521651 0.104484 -0.243546 0.0955204 0.463302 0.0557702 -0.0861622 0.04 
1066 1 1 -0.0246403 -0.5046 -0.960297 0 0 0 0.00456789 -0.00779766 -0.00126042 0.0891392 -0.093806 -0.0352511 0.195184 0.114259 0.0522226 0.04 
143 1 1 0.0567318 -0.518652 -0.960118 0 0 0 0.00398799 -0.00623186 -4.99496e-05 0.0484632 -0.0188908 0.00988778 0.147864 0.0977219 -0.189464 0.04 
1346 1 1 0.153319 -0.48208 -0.960238 0 0 0 3.22632e-05 -0.000565064 0.000458125 0.0168603 0.0212032 -0.0382751 0.015873 -0.0021568 -0.0353374 0.04 
1000 1 1 0.272657 -0.500233 -0.960238 0 0 0 -0.00145464 -0.00440705 0.00037363 0.00827073 0.0428527 -0.0425906 0.119234 -0.0346307 -0.0474985 0.04 
792 1 1 0.351268 -0.485868 -0.960226 0 0 0 -0.00101516 -0.00760474 0.000398144 0.0313216 0.071609 0.00199031 0.127317 -0.0290962 -0.026361 0.04 
1361 1 1 0.432307 -0.469557 -0.960205 0 0 0 0.00452018 -0.00700493 0.000146983 -0.0206172 0.00228777 0.00936152 0.177583 0.118621 -0.0774748 0.04 
814 1 1 0.483807 -0.530932 -0.960269 0 0 0 0.00023614 -0.0108381 0.000163995 -0.0210555 -0.00837657 -0.00886833 0.189797 0.0629256 -0.152246 0.04 
584 1 1 0.533956 -0.46891 -0.960204 0 0 0 0.00597313 -0.0160591 -0.000724276 -0.0930047 0.102169 -0.0410432 0.400181 0.146229 -0.0319055 0.04 
1288 1 1 0.586708 -0.529115 -0.960217 0 0 0 0.0151433 -0.015943 0.000344926 0.138877 0.0486975 0.105267 0.417437 0.37221 -0.216442 0.04 
908 1 1 0.671425 -0.507004 -0.960249 0 0 0 0.0134738 -0.00235582 -0.000112777 -0.140384 -0.0508632 -0.0909224 0.0198901 0.283063 0.164046 0.04 
1309 1 1 0.79998 -0.493396 -0.960232 0 0 0 0.00991041 0.00446963 -0.000558207 0.0195398 0.000253907 0.0657908 -0.111817 0.261423 0.231591 0.04 
9 1 1 0.890902 -0.474134 -0.960183 0 0 0 8.09045e-05 -0.000124507 0.000129717 0.000835232 -0.0418049 0.00471872 0.00337068 0.00280708 -0.00162749 0.04 
771 1 1 0.960103 -0.514026 -0.960227 0 0 0 -1.84195e-05 -6.83236e-05 5.25861e-05 -0.0023371 0.00333171 -0.00870384 0.00226729 -0.00112043 0.00190955 0.04 
1055 1 1 -0.960056 -0.423668 -0.960208 0 0 0 0.000282304 0.00106445 0.000821543 -0.102295 -0.107108 -0.0223176 -0.0367114 -0.00493558 0.027937 0.04 
739 1 1 -0.890769 -0.463564 -0.960212 0 0 0 0.00101701 0.00115267 -0.00171016 0.00882333 0.0391788 0.0575884 -0.034474 0.0146382 -0.0160921 0.04 
1142 1 1 -0.821564 -0.423551 -0.960261 0 0 0 0.000341771 0.00124676 -0.000778345 0.0266873 -0.0992133 -0.0937459 -0.0297437 0.00206155 0.0361592 0.04 
613 1 1 -0.6364 -0.407782 -0.960419 0 0 0 -0.000270692 -0.000970615 0.000457384 -0.0885779 -0.0277908 0.0516299 0.00947559 -0.0249644 -0.0232437 0.04 
620 1 1 -0.56836 -0.449459 -0.960151 0 0 0 -0.000513013 -0.00135091 0.000823111 -0.0322979 -0.0163795 0.0735443 0.0451212 -0.0159183 -0.000630487 0.04 
1316 1 1 -0.468428 -0.420104 -0.960332 0 0 0 0.00685419 -0.0131599 -0.00147361 0.0570974 0.0566415 0.262975 0.363852 0.163177 -0.275351 0.04 
344 1 1 -0.39249 -0.457729 -0.960201 0 0 0 0.0302432 0.0059044 0.000551601 0.152388 0.0605604 0.0664809 -0.148673 0.755627 -0.206834 0.04 
247 1 1 -0.327418 -0.407221 -0.960258 0 0 0 0.0119564 -0.00113539 0.000482943 0.132316 -0.167999 0.103315 0.0211602 0.295916 -0.114263 0.04 
382 1 1 -0.253412 -0.437378 -0.960299 0 0 0 0.0120931 -0.00430755 0.000424078 0.211218 -0.286764 0.0758675 0.0747215 0.292163 0.112652 0.04 
1271 1 1 -0.103507 -0.417175 -0.960307 0 0 0 -0.0066991 -0.0231702 0.000261708 -0.0513963 -0.13402 0.0732042 0.578597 -0.161033 0.254402 0.04 
1249 1 1 0.0276539 -0.444179 -0.960242 0 0 0 0.00313117 -0.00711135 -0.000167452 0.0226932 0.0173187 -0.0425455 0.178735 0.0802575 0.130439 0.04 
1030 1 1 0.103598 -0.419553 -0.96029 0 0 0 0.000213662 -0.00075262 -0.000432769 0.0391376 -0.00717616 -0.0483742 0.015202 -0.00488064 0.0309297 0.04 
1148 1 1 0.220879 -0.439326 -0.960306 0 0 0 0.000979041 -0.00186751 0.00086448 -0.0165932 0.0426348 -0.0175524 0.0460043 0.0224324 -0.0307086 0.04 
772 1 1 0.299538 -0.424996 -0.960224 0 0 0 0.00152547 -0.00553996 1.29047e-05 -0.0183477 0.0400825 0.022323 0.0277284 0.0174316 -0.0616468 0.04 
845 1 1 0.378191 -0.410643 -0.960241 0 0 0 0.00218556 -0.00929375 -0.000907625 0.0314935 -0.0218307 -0.128584 0.228377 0.0497218 -0.0482895 0.04 
1047 1 1 0.612247 -0.453477 -0.960183 0 0 0 0.00531445 -0.0111163 0.000613216 -0.0307716 -0.0523788 -0.0518878 0.0129857 -0.108315 0.167089 0.04 
1474 1 1 0.688041 -0.428875 -0.960206 0 0 0 0.00302541 0.000278466 0.0015658 -0.0240441 -0.0594484 -0.0537527 -0.00308719 0.0697035 0.0764508 0.04 
840 1 1 0.767243 -0.420559 -0.960258 0 0 0 0.00317514 0.00156418 -0.000385685 0.0373735 0.0304796 0.0389366 0.0077397 -0.00754114 -0.0574943 0.04 
852 1 1 0.960073 -0.434085 -0.960245 0 0 0 0.000103759 -8.72139e-05 -3.93226e-05 0.00204158 -0.00156115 0.00720365 0.00238175 0.00391189 0.00129689 0.04 
982 1 1 -0.96008 -0.343695 -0.960223 0 0 0 0.000582371 0.000789747 -6.00081e-05 -0.0286934 -0.144631 0.0668362 -0.0177868 0.0101816 0.0114745 0.04 
326 1 1 -0.890819 -0.383598 -0.960221 0 0 0 0.000272609 0.00109715 -0.000639598 0.024465 -0.100041 0.0124405 -0.0282262 0.00517466 -0.0121323 0.04 
1215 1 1 -0.821532 -0.343523 -0.960218 0 0 0 0.00142682 0.0013484 -0.000852242 -0.00371629 -0.198374 -0.125812 -0.0350762 0.0348693 -0.00977652 0.04 
1246 1 1 -0.748896 -0.39025 -0.960132 0 0 0 -0.00167078 0.00635826 -0.000453 -0.026004 0.000269097 0.0299277 -0.161013 -0.0409384 -0.00627646 0.04 
969 1 1 -0.683921 -0.34366 -0.960216 0 0 0 0.00101415 0.000657287 0.000188329 0.0458966 -0.134687 -0.0136489 -0.0189684 0.0332534 -0.0310282 0.04 
230 1 1 -0.60467 -0.334706 -0.960261 0 0 0 -9.51674e-05 -0.000966396 0.0003186 -0.0617861 0.0256683 0.0033108 0.0160765 -0.028132 -0.00371773 0.04 
857 1 1 -0.533131 -0.373092 -0.960183 0 0 0 -0.0056743 -0.0242363 -0.00057823 -0.923043 -0.700167 -0.107324 0.369137 0.0433534 -0.207641 0.04 
92 1 1 -0.401318 -0.376966 -0.960247 0 0 0 0.00895907 -0.0115446 0.00159486 0.214822 0.125004 0.130356 0.346089 0.224193 0.267351 0.04 
1124 1 1 -0.264269 -0.358221 -0.960285 0 0 0 0.0188406 -0.00996976 -0.000578491 0.354059 0.033975 -0.135004 -0.0542653 0.282396 -0.267077 0.04 
868 1 1 -0.189404 -0.389558 -0.960229 0 0 0 0.012312 -0.00451764 -0.000330441 0.25391 -0.152756 0.118693 -0.0820436 0.117146 -0.085923 0.04 
1010 1 1 -0.125909 -0.340452 -0.960225 0 0 0 0.0107082 -0.0176428 0.00203104 -0.086382 0.128224 0.21652 0.456092 0.284579 -0.219359 0.04 
1223 1 1 -0.0217789 -0.373606 -0.960244 0 0 0 -4.00553e-05 -0.00631136 0.000256268 0.0426809 -0.172192 0.0401353 0.15801 0.000292459 -0.0204981 0.04 
144 1 1 0.0560449 -0.355354 -0.960184 0 0 0 -0.00131022 -0.00174659 -7.01452e-06 0.0587605 -0.0514491 -0.0121729 0.0394183 -0.0415617 0.00520903 0.04 
315 1 1 0.16845 -0.373025 -0.960135 0 0 0 0.00288395 -0.00366061 -0.000177464 0.0357951 -0.0318716 0.0136157 0.0917849 0.0686881 -0.0778423 0.04 