ITEM: TIMESTEP
99800
ITEM: NUMBER OF ATOMS
1500
ITEM: BOX BOUNDS ff ff ff
-1 1
-1 1
-1 1
ITEM: ATOMS id type type x y z ix iy iz vx vy vz fx fy fz omegax omegay omegaz radius 
137 1 1 -0.96011 -0.960152 -0.960202 0 0 0 -2.38699e-05 2.44359e-05 5.82964e-06 0.00136945 0.00141112 -0.00417471 -0.00043463 -0.000515565 0.000961379 0.04 
5 1 1 -0.830892 -0.960168 -0.960266 0 0 0 2.06161e-06 8.40567e-06 3.20737e-05 0.00390814 -0.00227364 -0.00473417 0.000260903 3.62066e-05 -0.00036825 0.04 
239 1 1 -0.750973 -0.96014 -0.960255 0 0 0 5.74537e-06 -1.12658e-05 3.42269e-05 0.00331538 -0.000984645 -0.00412888 0.000931933 0.000395931 0.000387115 0.04 
34 1 1 -0.671017 -0.960044 -0.960246 0 0 0 1.23964e-05 8.81358e-06 2.19508e-06 0.00459541 0.00306675 -0.00325704 -0.000204386 0.000164392 -0.000237466 0.04 
415 1 1 -0.591068 -0.960062 -0.960291 0 0 0 4.77921e-06 1.03335e-05 -1.12454e-05 0.00377647 0.00100892 -0.00248417 -0.000175616 0.000287977 -0.000188211 0.04 
138 1 1 -0.510834 -0.960069 -0.960241 0 0 0 1.93248e-06 -9.27708e-06 -1.09902e-05 0.00288731 -0.000406207 0.000431758 0.000147967 0.000189604 -0.000168197 0.04 
323 1 1 -0.43029 -0.959877 -0.960154 0 0 0 2.91091e-06 -1.91476e-05 -4.87505e-06 0.000920066 0.000490383 -0.00204917 0.000264506 -0.000164769 0.00162263 0.04 
130 1 1 -0.350318 -0.960038 -0.960252 0 0 0 1.42529e-05 2.10678e-05 9.67532e-06 0.000555386 -0.00263356 0.00174175 6.72808e-05 -1.83142e-05 -0.000284668 0.04 
502 1 1 -0.270343 -0.960118 -0.9603 0 0 0 2.7077e-05 1.13275e-05 1.41434e-05 -0.00125612 -0.00207926 0.00316142 -0.000147212 0.000251816 -8.32717e-05 0.04 
494 1 1 -0.1743 -0.960163 -0.960229 0 0 0 3.2967e-05 4.30324e-06 -9.45472e-06 -0.000887864 -0.00059364 0.00395573 -7.5077e-05 0.000532803 -0.000198027 0.04 
448 1 1 -0.0943155 -0.960146 -0.960266 0 0 0 2.01118e-05 6.38637e-06 -3.23267e-05 -0.00116316 -0.000622484 0.00480846 -0.000184364 0.000178565 0.000216659 0.04 
147 1 1 -0.0144649 -0.96016 -0.960215 0 0 0 -2.40884e-06 2.40889e-05 -1.78382e-05 -0.00138394 -0.00345837 0.0040603 -0.000436068 -0.000163367 0.000159641 0.04 
218 1 1 0.0655311 -0.960172 -0.960209 0 0 0 -1.26094e-05 2.24213e-05 -8.07154e-06 0.00228856 -0.00324502 0.00041711 -0.000331981 -0.000244908 0.000177478 0.04 
339 1 1 0.145757 -0.960145 -0.960214 0 0 0 -1.10386e-05 1.44719e-05 8.3661e-06 0.00660008 -0.00123687 0.0020904 1.9192e-05 -0.000530523 0.000316223 0.04 
81 1 1 0.225733 -0.960094 -0.960177 0 0 0 -4.40879e-06 1.69992e-05 2.56604e-05 0.00592513 -0.00201656 -0.0020531 0.000378495 0.000199002 2.08005e-05 0.04 
341 1 1 0.305651 -0.960069 -0.960156 0 0 0 -9.21078e-06 3.27835e-05 -1.3795e-05 0.000390361 0.00221425 -0.00637097 -0.000666197 0.000367333 0.000246316 0.04 
203 1 1 0.385622 -0.960081 -0.960219 0 0 0 -2.34269e-05 4.62702e-05 -5.08076e-06 -0.000839608 -0.0012675 0.00110786 -0.000720765 -0.000832845 0.000529308 0.04 
1019 1 1 0.473737 -0.960015 -0.960209 0 0 0 -3.01898e-05 -2.80033e-06 1.35708e-05 0.000634129 0.00243918 -0.000431664 0.000436008 -0.000166707 0.00023206 0.04 
821 1 1 0.553721 -0.960025 -0.960231 0 0 0 -2.07892e-05 6.39039e-06 1.3532e-06 -0.00141891 -0.00036435 0.000923687 -0.000143466 -4.39293e-05 0.000264734 0.04 
636 1 1 0.633693 -0.960458 -0.9602 0 0 0 -2.91842e-05 1.3183e-05 -3.78749e-05 -0.00271134 -0.00124172 -0.00346063 -0.000592157 -0.00014699 0.00033055 0.04 
729 1 1 0.720239 -0.960012 -0.960161 0 0 0 -5.89311e-05 -2.15917e-05 4.24982e-05 -0.00522853 -0.0066857 0.00638481 0.000904836 -0.00085089 0.00150716 0.04 
503 1 1 0.800202 -0.960037 -0.960138 0 0 0 -2.66463e-06 7.95718e-06 2.90029e-05 -0.00358208 -0.000897892 0.00271406 0.00049901 0.000517425 -0.000202856 0.04 
424 1 1 0.880173 -0.96004 -0.96016 0 0 0 7.99607e-06 -5.86098e-06 -4.99112e-06 9.36386e-05 0.00283135 -0.000741966 1.88904e-05 0.000194024 -0.000544425 0.04 
850 1 1 0.9601 -0.958946 -0.960223 0 0 0 1.53628e-05 -4.06834e-05 -2.60896e-05 0.000835301 0.00181979 -0.0018923 0.00156194 4.02864e-05 0.000638881 0.04 
778 1 1 -0.959929 -0.880402 -0.960216 0 0 0 -1.43395e-05 1.25205e-05 -2.34033e-05 0.00262789 0.00504409 -0.00330321 -0.000126118 -0.000299995 -0.00162367 0.04 
918 1 1 -0.880185 -0.897207 -0.960225 0 0 0 1.43513e-05 3.16824e-05 3.73378e-05 -0.00143351 -0.00345925 4.31788e-05 -0.000519085 -0.000216039 -0.000343883 0.04 
246 1 1 -0.791824 -0.890617 -0.960153 0 0 0 -1.66165e-05 2.1454e-05 1.40547e-05 0.00177745 -0.00428536 -0.000385038 -0.000795535 -0.00058916 0.000260533 0.04 
586 1 1 -0.71186 -0.890538 -0.960297 0 0 0 -3.30147e-05 1.87546e-05 8.84757e-05 -0.000983581 -0.00259685 0.00403016 0.000327083 -0.000986251 1.83695e-05 0.04 
379 1 1 -0.63091 -0.890721 -0.960191 0 0 0 -2.55298e-05 2.20589e-05 -7.959e-06 0.00390743 0.000730096 0.000762713 6.95782e-05 -0.000805453 0.000511899 0.04 
105 1 1 -0.550903 -0.890948 -0.960215 0 0 0 9.9896e-06 -9.91173e-07 3.07191e-06 0.00655657 -0.00059042 -4.39029e-05 0.000232085 -1.74611e-05 -0.00023453 0.04 
289 1 1 -0.471003 -0.890716 -0.96025 0 0 0 1.21431e-05 -1.1666e-05 -1.88478e-05 0.00684274 -0.00166348 -0.000403374 -2.51456e-05 0.000383233 -8.78876e-05 0.04 
345 1 1 -0.388976 -0.870285 -0.960118 0 0 0 0.00367121 0.00265485 -1.17947e-05 -1.48471e-07 -1.06548e-07 0.00179264 -0.0664694 0.091916 0.123384 0.04 
209 1 1 -0.310227 -0.890868 -0.960161 0 0 0 6.62995e-05 8.84956e-06 4.61962e-05 -0.000306118 -0.00208984 0.00058332 0.000540458 0.00124068 -0.00102593 0.04 
647 1 1 -0.222238 -0.896276 -0.960225 0 0 0 5.3337e-05 2.91762e-05 -5.64202e-06 -0.00436964 0.00561951 0.00386935 -0.000602107 0.00113865 -0.000108918 0.04 
700 1 1 -0.134298 -0.891095 -0.960196 0 0 0 2.72558e-05 1.07937e-05 -3.38633e-05 -0.00429168 -0.00202587 0.0101839 -0.00033706 0.000956096 7.32537e-05 0.04 
616 1 1 -0.0544215 -0.890853 -0.960233 0 0 0 2.77174e-05 3.78835e-05 -4.82423e-05 -0.00361863 0.00160114 0.0124985 -0.000592738 -0.000236827 0.000190196 0.04 
87 1 1 0.0254597 -0.891074 -0.960203 0 0 0 1.70107e-05 2.98761e-05 -1.09774e-05 -0.00105561 -0.00014993 0.00496624 -0.0002519 -0.000301062 -0.000927669 0.04 
655 1 1 0.105572 -0.891076 -0.960218 0 0 0 7.25989e-06 2.02598e-05 7.23537e-06 0.00371191 -0.00319953 0.0007 0.000191441 -6.08653e-05 -0.000734111 0.04 
977 1 1 0.185659 -0.890926 -0.960202 0 0 0 1.85135e-05 3.54791e-05 6.17374e-05 0.00427749 -0.00449973 -0.000222006 -2.92346e-05 0.000295923 -0.000216659 0.04 
19 1 1 0.265637 -0.890829 -0.960226 0 0 0 1.89364e-05 4.54188e-05 -4.30463e-05 3.71827e-05 -5.88215e-05 -0.00763557 -0.00169945 0.000860861 -0.000258124 0.04 
443 1 1 0.345634 -0.890855 -0.960247 0 0 0 6.97701e-07 4.03426e-05 -6.57843e-05 -0.00163825 0.000759909 -0.00556733 -0.000123739 0.000288545 -0.000905474 0.04 
664 1 1 0.4296 -0.89332 -0.960216 0 0 0 1.56937e-06 5.37475e-05 2.89596e-06 -0.00174743 -0.0029323 0.000904325 -0.00070495 -0.000273218 -0.00125436 0.04 
74 1 1 0.594359 -0.891144 -0.960225 0 0 0 -1.97721e-05 1.35663e-05 -3.83975e-05 -0.00207873 -0.000923933 0.00429013 -7.74169e-05 -0.000278873 -0.00043249 0.04 
50 1 1 0.674248 -0.892015 -0.960177 0 0 0 -4.24324e-05 8.40123e-06 -2.09208e-05 -0.00518335 -0.00184048 0.00297849 -0.00031272 -0.000640233 0.000267925 0.04 
1 1 1 0.749841 -0.866831 -0.960242 0 0 0 -2.77768e-05 -5.46369e-06 2.59588e-05 -0.00505531 0.000381356 0.00597739 0.000121479 -0.000690472 -0.000494098 0.04 
812 1 1 0.878013 -0.880136 -0.960204 0 0 0 2.54224e-06 1.14935e-05 1.67513e-05 -0.000711474 0.00194653 -0.00540211 0.000140456 6.89031e-05 0.000456951 0.04 
446 1 1 -0.960244 -0.800741 -0.960215 0 0 0 7.59866e-06 1.18504e-05 -1.44073e-05 -0.000436301 0.000678938 -0.00260317 0.000161598 0.000387348 0.00106543 0.04 
352 1 1 -0.840947 -0.82753 -0.960338 0 0 0 3.4613e-05 -1.41318e-06 7.72854e-05 -0.00587739 -0.00323403 0.0019697 0.00162995 0.00167513 -0.000531076 0.04 
894 1 1 -0.761751 -0.816672 -0.960285 0 0 0 2.49267e-06 3.46112e-05 -1.48347e-05 -0.00199984 -0.00245585 -0.00660476 -0.00132276 -0.000796779 -9.4319e-05 0.04 
960 1 1 -0.681852 -0.816441 -0.960115 0 0 0 4.12738e-06 6.79827e-05 3.37886e-05 -0.00451302 0.00669238 0.00143005 -0.00217507 -0.000185282 2.05572e-05 0.04 
380 1 1 -0.535214 -0.812503 -0.960157 0 0 0 1.94112e-05 8.23386e-06 -6.24859e-06 -0.000890969 -0.00451238 0.00238966 -8.18035e-05 0.000593019 0.000614576 0.04 
720 1 1 -0.25753 -0.82458 -0.96029 0 0 0 1.72531e-05 1.74237e-05 -2.48393e-06 5.22397e-05 0.00411194 -0.00408081 -0.000367956 0.000394364 0.00100496 0.04 
161 1 1 -0.175354 -0.822829 -0.960298 0 0 0 3.4626e-06 -1.65796e-06 -2.3732e-05 0.0012912 0.00338578 0.00989587 -0.000107733 0.000484602 -7.17838e-05 0.04 
385 1 1 -0.0954123 -0.82014 -0.960193 0 0 0 -4.18699e-05 9.99156e-06 2.79436e-05 -0.00486426 0.00342647 0.0168074 0.000115442 -0.00169505 0.00149254 0.04 
827 1 1 -0.0151054 -0.821238 -0.960265 0 0 0 -1.28418e-05 7.06041e-05 -3.51956e-05 -0.00385687 0.000750286 0.0142953 -0.00115817 -0.000514316 0.00167316 0.04 
784 1 1 0.065289 -0.822028 -0.960241 0 0 0 3.78654e-06 1.96982e-05 1.93134e-05 0.00196746 -0.00303798 0.000532514 0.000143935 -0.000262059 0.00113259 0.04 
211 1 1 0.145419 -0.821875 -0.960214 0 0 0 4.66793e-06 2.32725e-05 3.71348e-05 0.00301808 -0.00345146 -0.00082758 -0.000270935 -1.96677e-05 0.000627331 0.04 
121 1 1 0.225286 -0.821505 -0.960185 0 0 0 1.63996e-05 2.91343e-05 6.13451e-06 0.0023706 -0.00382147 -0.00350834 -0.000286102 0.000816896 -2.28843e-05 0.04 
354 1 1 0.302764 -0.802489 -0.960232 0 0 0 -4.00201e-06 -4.97523e-06 -1.23004e-05 0.00185199 0.00105958 -0.000819313 0.000587696 -0.000101478 -4.97458e-05 0.04 
229 1 1 0.380706 -0.819076 -0.960368 0 0 0 8.97179e-06 2.13273e-05 9.22851e-06 -0.00226371 -0.00282203 -0.00184634 -0.000793971 -0.000716892 0.00027815 0.04 
369 1 1 0.456121 -0.822155 -0.935181 0 0 0 3.51102e-05 4.90724e-05 5.17679e-05 -0.00631682 -0.00379403 -0.00407069 0.00104365 -0.000197413 0.000491003 0.04 
396 1 1 0.51956 -0.863497 -0.96024 0 0 0 1.67216e-05 3.46534e-05 2.43946e-06 -0.00237731 -0.00082319 0.000451824 -0.000216671 0.000786876 -0.000579633 0.04 
866 1 1 0.594027 -0.811307 -0.960335 0 0 0 2.41338e-05 3.59603e-05 1.142e-06 -0.0079839 -0.00287607 -0.0054428 -0.000718959 0.000615827 0.000784715 0.04 
628 1 1 0.673821 -0.812298 -0.960205 0 0 0 -1.33608e-05 1.48955e-05 1.93558e-05 -0.00706184 -0.00371959 0.00174492 0.000496182 -0.0004478 -0.00118329 0.04 
554 1 1 0.818679 -0.826524 -0.960283 0 0 0 -5.59169e-07 -5.09998e-06 3.31721e-05 -0.00205561 -0.00333219 0.00243466 5.68866e-05 0.000250572 3.43167e-05 0.04 
417 1 1 0.960154 -0.833966 -0.960253 0 0 0 9.29928e-06 3.12841e-05 -1.91782e-05 0.000238259 0.00174527 -0.000784619 -0.000368312 6.14784e-05 -0.000930295 0.04 
282 1 1 -0.889436 -0.764116 -0.960201 0 0 0 -5.53095e-06 6.08018e-05 1.60575e-05 -0.00159977 0.00040602 -0.000783966 -0.00228388 -0.00153275 0.000113674 0.04 
492 1 1 -0.810313 -0.753201 -0.960206 0 0 0 3.60299e-05 1.95985e-05 -8.53368e-06 0.00198882 0.00177566 -0.0048093 0.000199735 0.0018311 -0.000794199 0.04 
290 1 1 -0.609447 -0.782715 -0.960221 0 0 0 5.01079e-05 2.31135e-05 1.15909e-05 0.00416252 -0.00265545 0.00459429 -0.00010256 0.000299379 -0.001169 0.04 
52 1 1 -0.453377 -0.788995 -0.960332 0 0 0 4.83714e-05 -2.87452e-05 3.29022e-06 0.00410858 0.000906144 -0.00553537 0.0007536 -7.40066e-05 0.000381872 0.04 
480 1 1 -0.37566 -0.770534 -0.960361 0 0 0 6.16515e-05 -6.64038e-06 1.13294e-05 0.00191754 0.00245581 -0.00205004 -0.000877779 0.00139911 1.80688e-05 0.04 
402 1 1 -0.297581 -0.753571 -0.960118 0 0 0 1.38912e-05 -8.86898e-06 1.04563e-06 0.005157 0.0102745 0.00186312 0.00074838 -0.000112359 0.000426775 0.04 
322 1 1 -0.217705 -0.755339 -0.96013 0 0 0 1.72177e-05 9.92799e-06 -1.25837e-05 0.00314131 0.00850803 0.00620189 0.000774923 0.000661437 -0.000501351 0.04 
376 1 1 -0.137785 -0.752317 -0.960137 0 0 0 -2.64046e-05 -4.37831e-06 -2.1777e-05 0.00223842 0.00864869 0.00636286 -0.000229304 -0.000772926 -0.000431736 0.04 
204 1 1 -0.0595656 -0.735823 -0.960304 0 0 0 -1.89755e-05 4.12819e-06 1.84935e-05 -0.00483471 0.006032 0.007631 0.000408255 -0.000489821 0.000276068 0.04 
1122 1 1 0.0193153 -0.74896 -0.960158 0 0 0 2.69674e-05 2.85866e-05 2.51822e-05 -0.0119111 0.00629624 0.00934184 -0.000669042 0.000559928 0.000734915 0.04 
773 1 1 0.105142 -0.75305 -0.960328 0 0 0 1.27927e-05 4.60483e-05 2.3482e-05 -0.00416112 -0.00446063 -0.000474819 -0.000759149 -0.000209888 -0.00161849 0.04 
725 1 1 0.185119 -0.75234 -0.960163 0 0 0 1.14463e-05 6.98828e-06 1.62892e-06 0.000819841 -0.00462529 -0.000568749 -0.000562282 0.000370265 0.00026257 0.04 
159 1 1 0.345573 -0.735002 -0.960257 0 0 0 2.58573e-06 1.69489e-05 -1.06073e-05 0.000187824 -0.00155126 0.00694508 -0.000498198 0.000239061 0.000635345 0.04 
688 1 1 0.482791 -0.751116 -0.96023 0 0 0 2.66114e-05 2.50334e-05 6.2943e-05 -0.00726213 -0.00281511 -0.00437861 -0.000787389 0.000879567 -0.000305402 0.04 
757 1 1 0.561592 -0.738304 -0.960169 0 0 0 1.66825e-05 1.51395e-05 -4.22258e-06 -0.00650454 -0.0090577 -0.00566173 -0.000277766 0.00052324 4.80474e-05 0.04 
519 1 1 0.641385 -0.739389 -0.960172 0 0 0 1.25462e-05 4.57486e-05 1.2979e-05 -0.00548564 -0.00552174 -0.00172319 -0.00113823 -0.000395383 0.000165108 0.04 
742 1 1 0.749359 -0.786904 -0.960233 0 0 0 -1.10688e-06 -1.81132e-05 4.00211e-05 -0.000678802 -0.00361178 0.00625464 0.0003822 -0.00022267 0.000115997 0.04 
603 1 1 0.818346 -0.74666 -0.960129 0 0 0 6.8711e-08 -4.53015e-06 1.22258e-05 0.00166459 -0.00223119 0.00074464 -0.000505122 0.000258514 -0.000136568 0.04 
86 1 1 0.891232 -0.793683 -0.960276 0 0 0 1.29515e-05 7.69308e-06 2.35317e-05 -0.00191427 -0.000895726 0.000401425 6.16727e-05 0.00023301 0.000691862 0.04 
972 1 1 0.96024 -0.753737 -0.960208 0 0 0 -7.27431e-06 1.49138e-05 1.56074e-05 -0.00180703 0.000455156 0.0011748 -0.000265663 2.84545e-05 4.63498e-05 0.04 
488 1 1 -0.960206 -0.720977 -0.960237 0 0 0 -2.26624e-05 -1.83396e-05 -2.26838e-05 0.000129179 0.000143662 -0.000225652 4.22912e-05 0.00050538 -0.00104545 0.04 
532 1 1 -0.889466 -0.684333 -0.960246 0 0 0 -0.00014756 5.2803e-05 -6.68263e-05 -0.00127224 0.00140613 -0.00341876 -0.0010237 -0.00251665 0.00473377 0.04 
564 1 1 -0.744084 -0.708373 -0.960259 0 0 0 -4.63536e-05 -3.75341e-05 5.46845e-05 0.00240481 -0.00522951 -0.00512143 0.000928886 -0.00151321 -0.000211512 0.04 
314 1 1 -0.6662 -0.726449 -0.960118 0 0 0 5.91484e-05 6.15569e-07 9.47601e-06 0.00796491 -0.00885005 -0.000567303 -0.000754082 0.00192946 0.00180456 0.04 
783 1 1 -0.611383 -0.667463 -0.960259 0 0 0 5.33474e-05 1.41038e-05 6.09977e-05 0.0156681 -0.0011359 -0.0084923 -0.00219835 0.0019975 0.000123949 0.04 
1127 1 1 -0.555102 -0.724254 -0.960254 0 0 0 5.93486e-05 2.93804e-05 7.86569e-05 0.0111403 -0.0109365 0.00236567 0.000125137 -8.84038e-05 0.000367187 0.04 
241 1 1 -0.476075 -0.712363 -0.960183 0 0 0 5.01281e-05 1.15109e-05 2.97155e-05 0.0043422 -0.00177144 -0.00362387 0.000140539 0.00126429 0.000111735 0.04 
85 1 1 -0.391016 -0.692252 -0.960257 0 0 0 2.96686e-05 -1.34106e-06 6.81323e-06 0.000225731 0.00361946 0.00188078 0.000464891 0.000788143 0.000881824 0.04 
511 1 1 -0.313003 -0.675099 -0.960171 0 0 0 6.84545e-06 2.04327e-05 1.53171e-05 0.00452214 0.0149208 -0.0060026 -0.000551134 -0.000857121 -0.000163676 0.04 
873 1 1 -0.233104 -0.677236 -0.960335 0 0 0 3.63231e-05 6.40947e-05 7.96969e-06 0.00454067 0.00894214 -0.00606782 -0.00190533 0.000933617 0.00120119 0.04 
738 1 1 -0.122534 -0.673871 -0.960256 0 0 0 -2.0693e-05 -1.67278e-05 -1.5461e-05 -0.0037814 0.0140833 -0.00526974 -0.000915704 -0.000613445 0.00134079 0.04 
1088 1 1 0.110955 -0.673752 -0.960227 0 0 0 9.63646e-06 3.40336e-05 6.99306e-06 -0.0109123 0.00154143 -0.000940853 0.000211372 0.00118302 0.00200556 0.04 
862 1 1 0.208436 -0.675887 -0.960172 0 0 0 -3.27142e-05 -1.80183e-06 4.15732e-06 0.00286008 -0.00219415 0.0024403 0.000827592 -0.000889954 0.000798809 0.04 
967 1 1 0.265707 -0.731661 -0.960287 0 0 0 -1.24738e-05 1.91507e-05 -2.29279e-05 0.00276098 0.00816638 0.0106799 -0.000176147 -0.000486365 -0.00054511 0.04 
451 1 1 0.432784 -0.688737 -0.960201 0 0 0 4.39292e-05 2.54162e-05 8.28071e-05 -0.00515925 -0.000306248 0.00285012 -5.01588e-05 0.000792733 -0.000192089 0.04 
177 1 1 0.511718 -0.675931 -0.960227 0 0 0 2.9959e-05 1.35754e-05 1.56574e-05 0.00203838 -0.00710639 0.000928453 -0.000427851 0.00119345 -0.000267468 0.04 
308 1 1 0.678757 -0.668897 -0.960169 0 0 0 -2.27015e-06 1.09433e-05 3.54377e-05 0.00149793 0.00821529 0.00406782 0.000362205 -0.00062541 -0.000378615 0.04 
439 1 1 0.748962 -0.707084 -0.960209 0 0 0 3.42077e-06 -7.70665e-06 3.57695e-05 -0.00153416 -0.00398116 0.00514639 -0.000494111 0.00081896 0.000462318 0.04 
662 1 1 0.818044 -0.666736 -0.960231 0 0 0 -5.4307e-06 -2.36862e-05 -1.63211e-05 0.00322389 -0.00311581 0.0021363 0.000642375 0.00100444 0.000250261 0.04 
188 1 1 0.891037 -0.713775 -0.960247 0 0 0 -1.29192e-05 3.42959e-06 -5.91676e-06 0.000215227 -0.00072017 -0.000713318 -0.000261766 3.36645e-05 9.12246e-05 0.04 
987 1 1 0.960144 -0.673802 -0.960181 0 0 0 -2.70902e-05 8.35085e-06 1.23561e-05 -0.00178175 0.00104165 -0.000553798 -0.000121969 -0.00042529 0.000127103 0.04 
990 1 1 -0.877722 -0.605528 -0.96022 0 0 0 -0.000181197 6.88095e-06 -0.000191392 0.0105715 0.00298859 -0.00646449 -0.0011753 -0.0042114 -0.00400265 0.04 
826 1 1 -0.811813 -0.666091 -0.960159 0 0 0 -7.78804e-05 8.9176e-05 3.8141e-05 0.00584937 -0.00453425 0.00612679 -0.00105479 -0.00157366 -0.00326381 0.04 
1152 1 1 -0.757385 -0.607623 -0.960258 0 0 0 2.46863e-06 -3.4402e-05 0.000108823 0.00529228 -0.00704695 0.00325127 -0.00111244 -0.000572286 -0.000959012 0.04 
567 1 1 -0.68951 -0.64998 -0.960178 0 0 0 7.49931e-05 -8.0963e-05 0.000107786 0.0300777 -0.0128228 0.00312339 0.00248634 0.00306687 -0.00147611 0.04 
170 1 1 -0.527836 -0.64915 -0.960297 0 0 0 5.7179e-06 6.78289e-05 8.95659e-05 0.0032584 -0.004672 -0.00305099 -0.00141589 0.000259918 0.00148068 0.04 
375 1 1 -0.448831 -0.637332 -0.960304 0 0 0 3.33757e-05 2.91861e-05 3.78937e-05 0.00359205 -0.00128719 0.00116954 0.000143087 0.000288722 -0.00123051 0.04 
709 1 1 -0.36733 -0.616041 -0.960195 0 0 0 4.49869e-05 8.87385e-06 1.87609e-05 -0.00185477 0.00273911 0.0130399 -0.000424543 0.000928507 -0.000965518 0.04 
1046 1 1 -0.0467053 -0.648898 -0.960242 0 0 0 -6.66134e-05 1.37487e-05 4.74184e-05 -0.00643523 0.00122311 -0.00738879 1.27425e-05 -0.00110571 0.000932361 0.04 
581 1 1 0.0319306 -0.662363 -0.960297 0 0 0 -4.17756e-05 6.42947e-07 3.30899e-05 -0.00105424 -0.00115139 -0.00454214 -0.000455002 -8.09929e-05 -0.000417335 0.04 
61 1 1 0.160809 -0.611664 -0.960225 0 0 0 -4.28912e-05 2.93414e-05 -1.88602e-05 -0.00456489 0.00118411 -0.00210647 -0.000102289 -0.000894969 -0.00107742 0.04 
1052 1 1 0.252402 -0.609102 -0.960288 0 0 0 1.0829e-05 2.81388e-05 4.25337e-05 -0.00936364 -0.00611358 -0.00150708 0.00011803 0.000189003 0.000178593 0.04 
656 1 1 0.311911 -0.662487 -0.960129 0 0 0 1.19318e-05 -6.51829e-06 8.3396e-06 -0.000759695 -0.00767498 0.00389851 0.000376726 0.000533353 -0.000984061 0.04 
1082 1 1 0.383105 -0.626077 -0.960242 0 0 0 -2.12289e-06 2.84091e-05 6.05862e-05 -0.00332513 -0.00140623 2.89489e-05 0.000205609 -0.00102701 0.00162681 0.04 
255 1 1 0.461999 -0.613477 -0.960265 0 0 0 2.3228e-05 4.48932e-05 1.66058e-06 0.00615373 -0.00940124 -0.00130081 -0.00148862 0.000739662 -0.000929924 0.04 
880 1 1 0.598422 -0.666186 -0.960224 0 0 0 -6.33659e-06 3.24274e-05 5.44372e-05 -0.00187542 -0.00574557 -0.00236847 0.000190111 4.07739e-05 -0.00493938 0.04 
1026 1 1 0.543027 -0.601443 -0.960162 0 0 0 -9.05909e-05 -1.94327e-05 2.08752e-05 0.00195158 0.000937179 0.000789675 0.00133949 -0.0016895 0.00706338 0.04 
543 1 1 0.748548 -0.627317 -0.96016 0 0 0 -4.6954e-06 -1.55909e-05 2.93566e-05 0.00298494 -0.000928902 0.00848733 0.000475423 -0.000322252 -0.000197985 0.04 
553 1 1 0.890863 -0.6339 -0.960238 0 0 0 -3.53599e-05 9.05861e-06 -2.5575e-05 0.000613302 0.000648423 0.00401649 -0.000252799 -0.000584369 0.000222297 0.04 
260 1 1 -0.96 -0.595548 -0.960243 0 0 0 -7.14553e-05 -3.02269e-05 -3.4891e-05 -0.00636901 0.000971488 -0.00443462 0.00031946 -0.00240946 -0.000244767 0.04 
565 1 1 -0.81668 -0.553961 -0.960231 0 0 0 -6.17818e-05 -5.71611e-05 -4.98258e-05 -0.000714232 -0.00927793 0.00985228 0.0013933 -0.00144737 0.0017214 0.04 
1113 1 1 -0.703061 -0.549221 -0.960279 0 0 0 -3.99489e-05 -0.000119601 0.0001211 0.00537147 -0.00786039 0.0104037 0.000622663 -0.000392686 0.00192567 0.04 
925 1 1 -0.635197 -0.591292 -0.960146 0 0 0 4.86555e-05 -4.47171e-05 4.09898e-05 0.00969298 -0.00212127 -0.00835253 0.000111458 0.001681 0.000870522 0.04 
893 1 1 -0.547625 -0.562691 -0.960174 0 0 0 -7.38971e-05 8.85609e-05 5.62635e-05 0.00401904 -0.0124724 0.0159569 -0.00231977 -0.00040996 0.00740296 0.04 
1103 1 1 -0.454637 -0.557855 -0.960301 0 0 0 6.33262e-05 -3.472e-06 8.9883e-05 0.00830248 -0.0014614 0.0218822 -0.000600846 0.00192816 0.000735741 0.04 
1448 1 1 -0.377549 -0.536781 -0.960163 0 0 0 7.59634e-05 -1.83451e-05 -3.23542e-06 0.0074063 -0.000502913 0.0205413 6.81114e-05 0.00149252 -0.000228326 0.04 
631 1 1 -0.303804 -0.567605 -0.96024 0 0 0 4.10444e-05 3.76719e-05 -3.42361e-05 0.00586625 -0.00393267 0.00756958 -0.000707041 0.000264991 0.000412216 0.04 
714 1 1 -0.230011 -0.597896 -0.960352 0 0 0 -2.06972e-05 4.93231e-05 -1.8462e-05 0.00225497 0.00323808 0.00570664 0.000929716 -0.00135497 -0.000351211 0.04 
962 1 1 -0.165419 -0.550904 -0.960204 0 0 0 -6.13245e-05 4.89799e-05 3.91442e-05 0.00270065 0.0113417 -0.00701583 -0.000553333 -0.00193384 -0.00087491 0.04 
950 1 1 -0.0923584 -0.583304 -0.960249 0 0 0 -0.000103065 -9.2715e-06 7.93402e-05 0.000695693 0.00456858 -0.00789287 0.000462211 -0.000980708 -0.00156567 0.04 
716 1 1 0.00265799 -0.586034 -0.960218 0 0 0 -4.10845e-05 3.0009e-05 6.0203e-05 0.0010441 -0.00608824 -0.000484919 9.55999e-05 0.000616857 -0.000387037 0.04 
388 1 1 0.0814133 -0.599613 -0.960229 0 0 0 -5.80159e-05 1.28543e-05 3.82987e-05 -0.000510219 0.00492741 -0.00289207 -0.000249792 -0.00140367 -0.000228529 0.04 
867 1 1 0.204619 -0.545124 -0.960172 0 0 0 3.07775e-05 3.04271e-05 2.05003e-05 -0.00296651 -0.00828565 -0.00129918 -0.000586051 0.000716555 -0.000423545 0.04 
576 1 1 0.321589 -0.564046 -0.960232 0 0 0 -1.14297e-05 7.93276e-05 9.08323e-05 -0.00631964 -0.000533542 -0.00858453 -0.00206337 -0.000244546 0.000678628 0.04 
408 1 1 0.403788 -0.548892 -0.960207 0 0 0 1.22989e-05 8.07854e-05 0.000121304 0.000396018 -0.0115502 -0.00743276 -0.00137979 0.00139318 -0.000985318 0.04 
814 1 1 0.482705 -0.536363 -0.960226 0 0 0 5.9992e-05 7.70454e-05 -0.000126172 -0.0035041 -0.0137043 0.00163299 -0.00148519 0.00385343 0.000851215 0.04 
1288 1 1 0.589751 -0.536428 -0.960267 0 0 0 4.29501e-05 -4.75437e-07 -7.25079e-05 0.000154321 -0.0137267 -0.00194704 0.00176532 0.000821298 0.00251221 0.04 
1111 1 1 0.678413 -0.58909 -0.96026 0 0 0 4.11343e-05 2.29441e-05 5.37425e-05 0.00846037 0.0038116 0.00241335 -0.00030518 0.00140984 -0.000841399 0.04 
1138 1 1 0.747381 -0.547509 -0.960206 0 0 0 1.90569e-05 1.08371e-05 4.1958e-05 0.00287761 -0.000879204 -0.00222459 0.000632322 0.000898699 -0.00112559 0.04 
58 1 1 0.817503 -0.58598 -0.960207 0 0 0 -1.4905e-05 -1.62701e-05 -8.27899e-05 -0.00221792 -0.000811343 0.00272511 0.00104976 0.000376217 0.00101643 0.04 
1107 1 1 0.890822 -0.554039 -0.960246 0 0 0 -6.00783e-05 1.53206e-05 -3.91477e-05 -0.000273728 -0.00215253 0.00452142 -0.000215531 -0.000507537 0.000182621 0.04 
252 1 1 0.960091 -0.593929 -0.960182 0 0 0 -3.85789e-05 8.44711e-06 -1.93936e-06 -0.000406156 0.00105341 0.00109684 -0.000331375 -0.000516527 6.2273e-05 0.04 
670 1 1 -0.960083 -0.515581 -0.960206 0 0 0 -4.73464e-05 -3.06709e-05 4.41097e-05 0.000388935 -0.00231761 0.00228571 0.00168351 -0.000933717 -0.000373293 0.04 
644 1 1 -0.761222 -0.493806 -0.960279 0 0 0 -4.05912e-05 -0.000154098 -1.85607e-05 -0.000173406 -0.00885363 0.0148976 0.00443208 -0.00122536 0.00143147 0.04 
833 1 1 -0.684416 -0.471796 -0.960326 0 0 0 7.17013e-06 -0.000162159 4.77526e-06 -0.00824907 -0.00210081 0.0185711 0.00245461 0.00178802 -0.00395384 0.04 
435 1 1 -0.616324 -0.513721 -0.960225 0 0 0 -0.000141628 -5.6265e-05 8.18844e-07 -0.0115883 0.00507147 -0.00198307 -0.000411714 -0.00420647 0.00412218 0.04 
816 1 1 -0.503032 -0.494467 -0.960283 0 0 0 -3.96236e-05 -7.55055e-05 7.50017e-05 0.00924292 -0.00672368 0.0259617 0.000411174 -0.0016546 -9.71813e-05 0.04 
489 1 1 -0.313515 -0.488342 -0.96024 0 0 0 6.08798e-05 3.07717e-05 -1.29022e-05 0.0116546 -0.00593717 0.00788497 -0.000140993 0.000424646 0.000416558 0.04 
883 1 1 -0.239739 -0.519014 -0.960264 0 0 0 1.45808e-05 8.20745e-05 -8.35303e-06 0.00301169 0.00389972 0.00616913 -0.000903384 -0.000186193 0.00022642 0.04 
305 1 1 -0.175401 -0.471599 -0.960212 0 0 0 -7.42806e-06 7.98914e-05 2.38493e-05 -0.00667378 0.00497696 -0.00808493 -0.00071223 -0.000291829 0.000130088 0.04 
675 1 1 -0.101732 -0.502599 -0.960186 0 0 0 3.96147e-06 -1.32324e-05 5.05384e-05 0.0117526 -0.0055439 -0.0121707 0.000117987 0.000702651 -0.00169799 0.04 
1066 1 1 -0.0221842 -0.510122 -0.960311 0 0 0 -7.15447e-05 2.40429e-06 6.43203e-05 0.00513802 -0.00613775 -0.000840057 0.000539206 -0.00229942 0.000984526 0.04 
143 1 1 0.058978 -0.523024 -0.960125 0 0 0 -8.13735e-06 -1.36208e-05 1.27628e-05 -0.00549175 0.00593162 0.000342025 8.55554e-05 0.000298414 -6.13004e-05 0.04 
1346 1 1 0.153919 -0.483517 -0.960267 0 0 0 9.30296e-06 5.22815e-05 6.80475e-05 -0.00410789 -0.00503639 0.000964184 -0.00010299 -0.000342136 0.000203181 0.04 
1000 1 1 0.271508 -0.501727 -0.960222 0 0 0 -1.97116e-05 3.98099e-05 -1.13704e-05 0.00233207 -0.00311978 -0.0092183 -0.00110794 0.000407447 -0.000261674 0.04 
792 1 1 0.3505 -0.489392 -0.960248 0 0 0 -9.1045e-06 6.21158e-05 -7.85019e-06 -0.000817383 -0.00524871 -0.00774695 -0.00161537 -0.00144356 0.00122363 0.04 
1361 1 1 0.432907 -0.4738 -0.96021 0 0 0 -5.4769e-06 1.29319e-05 4.49056e-05 -0.00876124 -0.00957723 0.00115654 0.000726515 0.00012969 0.000889046 0.04 
584 1 1 0.536204 -0.477089 -0.960204 0 0 0 -7.16597e-05 -4.0105e-06 -7.48898e-05 0.00533282 -0.0156016 -0.0128122 0.000668567 -0.00398542 0.000173939 0.04 
908 1 1 0.677146 -0.50943 -0.960258 0 0 0 4.1294e-05 2.18365e-05 -1.43969e-05 -0.000964421 -0.0104911 -0.0155031 -0.00177213 0.000220902 9.77754e-05 0.04 
1309 1 1 0.804447 -0.491605 -0.960226 0 0 0 2.60743e-06 5.03783e-05 -1.90925e-05 0.000889107 -0.0114648 -0.00377802 -0.00149768 4.65436e-05 0.00159882 0.04 
9 1 1 0.890886 -0.474152 -0.96018 0 0 0 -4.75367e-05 4.37828e-05 -6.34984e-05 -0.00576239 -0.0122544 -0.00699379 -0.000605753 -0.00139043 -0.00131836 0.04 
771 1 1 0.960095 -0.514066 -0.960231 0 0 0 -5.77349e-05 -4.29957e-06 -2.1635e-05 -0.00339096 0.000267327 0.000709912 9.2766e-05 -0.00122283 -5.4836e-05 0.04 
1055 1 1 -0.960062 -0.423547 -0.960212 0 0 0 -1.87077e-05 -1.91198e-05 -9.72243e-05 0.000306175 0.00614384 -0.00203376 0.001395 0.000760852 -0.000744886 0.04 
739 1 1 -0.890752 -0.463397 -0.960241 0 0 0 -8.84076e-05 -5.28172e-05 -5.80287e-05 -0.0123493 0.00734109 0.00571635 -0.000909177 -0.000816086 -0.000783878 0.04 
1142 1 1 -0.821571 -0.423415 -0.96026 0 0 0 -8.10187e-05 -0.00016575 -5.98866e-05 -0.00626878 0.0102967 0.00768792 0.00284122 -0.00135836 -0.00266372 0.04 
613 1 1 -0.63693 -0.407836 -0.9603 0 0 0 9.37158e-05 -9.21234e-05 2.13447e-05 -0.0108925 0.00858695 0.0260763 -0.000210016 0.000609651 0.00423855 0.04 
620 1 1 -0.568908 -0.449471 -0.960231 0 0 0 1.34206e-05 -1.29228e-05 6.52728e-05 -0.00648965 0.0046982 0.0273879 -0.000403952 0.000661202 -0.00353137 0.04 
1316 1 1 -0.460837 -0.42664 -0.960332 0 0 0 8.92799e-05 -0.000105748 0.000135865 -0.00825125 0.00392521 0.0268125 0.00376264 0.00266577 0.000380681 0.04 
344 1 1 -0.387126 -0.457462 -0.960275 0 0 0 0.000105585 -1.7624e-05 -2.59508e-05 0.000810468 0.00544627 0.0257991 -0.001386 0.00304612 9.04648e-05 0.04 
247 1 1 -0.323487 -0.40902 -0.960225 0 0 0 3.72938e-05 5.68384e-05 -4.00305e-05 0.00292536 -0.001402 0.0147689 -0.000717225 -0.00123364 0.000950558 0.04 
382 1 1 -0.24987 -0.440011 -0.960247 0 0 0 -1.99783e-05 0.000111152 3.41986e-05 0.000785188 0.0103038 0.00149997 0.00063327 -0.000357657 0.00143864 0.04 
1271 1 1 -0.105193 -0.422597 -0.960247 0 0 0 -2.23682e-05 6.24142e-05 0.000136442 0.00900691 -0.000859491 -0.00231281 -0.000743218 -0.00101549 -0.00125431 0.04 
1249 1 1 0.0294276 -0.448871 -0.960288 0 0 0 -1.53779e-05 1.71697e-05 -1.89106e-05 0.00674451 0.00625908 0.01308 -0.00084458 0.000875662 -0.00109013 0.04 
1030 1 1 0.104305 -0.421015 -0.96028 0 0 0 -7.11016e-05 -4.01529e-05 1.70549e-05 0.00522749 0.00353316 0.00922449 0.00216055 -0.00361387 0.00254581 0.04 
1148 1 1 0.22083 -0.439836 -0.96025 0 0 0 -1.45067e-05 6.64881e-05 8.57736e-05 -0.00758093 -0.00410157 -0.00347377 -0.000138833 0.000654426 0.000554056 0.04 
772 1 1 0.300186 -0.427301 -0.96021 0 0 0 -2.00607e-05 1.40937e-05 -2.27441e-05 -0.00329733 0.000721753 -0.00277672 0.000639584 0.00075135 -0.000478285 0.04 
845 1 1 0.379043 -0.414708 -0.960221 0 0 0 -1.07863e-05 2.63704e-05 -5.14269e-05 -0.0104737 0.00232072 0.00275429 -0.00156308 -0.00024135 -2.16988e-05 0.04 
981 1 1 0.561051 -0.401066 -0.960201 0 0 0 -6.5272e-05 -3.13168e-05 7.58283e-05 0.00585917 -0.0139759 -0.000975984 0.00128323 -0.0026547 0.000659372 0.04 
1047 1 1 0.614308 -0.460356 -0.960195 0 0 0 1.05991e-06 -3.7655e-06 -9.36135e-06 -0.00573973 -0.019408 -0.0103456 0.000715865 0.00155111 -0.00031485 0.04 
1474 1 1 0.688414 -0.430481 -0.960201 0 0 0 1.16933e-05 -1.70978e-05 -5.13182e-05 -0.00869441 -0.0143061 -0.0235829 0.000670316 0.000741848 0.000867559 0.04 
840 1 1 0.767483 -0.420832 -0.960284 0 0 0 -9.87107e-06 -5.01764e-07 -0.000129793 -0.0021755 -0.00303144 -0.0174475 -0.000991509 -0.00113652 -0.000316349 0.04 
852 1 1 0.960097 -0.434152 -0.960265 0 0 0 -1.30907e-05 -1.59419e-05 2.31358e-05 -0.00604431 -0.00281362 -0.0032124 0.000668643 0.00010915 1.25077e-05 0.04 
982 1 1 -0.960098 -0.343565 -0.960223 0 0 0 1.54359e-05 -2.84415e-05 -1.93158e-05 0.00403898 8.57779e-05 -0.00859895 0.00100238 0.000348401 -0.000110553 0.04 