ITEM: TIMESTEP
96800
ITEM: NUMBER OF ATOMS
1500
ITEM: BOX BOUNDS ff ff ff
-1 1
-1 1
-1 1
ITEM: ATOMS id type type x y z ix iy iz vx vy vz fx fy fz omegax omegay omegaz radius 
137 1 1 -0.96011 -0.960152 -0.960203 0 0 0 -2.21054e-05 2.97691e-05 -1.5134e-06 -0.000736258 0.00252297 -0.000873247 -0.000472057 -0.000177319 0.00111366 0.04 
5 1 1 -0.830892 -0.960169 -0.960266 0 0 0 1.74888e-05 4.90922e-05 4.22232e-06 0.00292217 0.00499006 0.00217571 -0.000633988 0.000401498 0.000276406 0.04 
239 1 1 -0.750973 -0.960141 -0.960255 0 0 0 3.26155e-05 1.64463e-05 9.5528e-06 0.00516601 0.00320748 0.00277303 6.90696e-05 0.000161548 -0.000763425 0.04 
34 1 1 -0.671017 -0.960044 -0.960246 0 0 0 4.00837e-05 -7.89242e-06 1.80554e-05 0.00510079 -0.0038392 -0.00177111 0.000562217 0.000634448 -0.000433491 0.04 
415 1 1 -0.591068 -0.960062 -0.960291 0 0 0 2.35688e-05 5.94146e-06 2.27509e-06 0.000416033 -0.000694338 -0.00190318 -0.000310272 0.000531635 0.000448167 0.04 
138 1 1 -0.510834 -0.960068 -0.96024 0 0 0 2.13887e-06 -4.71784e-05 7.86406e-06 0.000122314 0.00156198 -0.00243749 0.00115979 1.17443e-05 0.000284204 0.04 
323 1 1 -0.430289 -0.959877 -0.960154 0 0 0 -1.5313e-05 -2.98586e-05 -3.11203e-05 -0.00156025 0.00429616 -0.000642164 0.000809376 -0.000437081 0.000277754 0.04 
130 1 1 -0.350317 -0.960038 -0.960252 0 0 0 -1.27946e-05 5.8226e-06 -5.58924e-06 -0.00400065 0.000653245 -0.00530981 -0.000389759 -0.000528361 0.000309237 0.04 
502 1 1 -0.270343 -0.960117 -0.9603 0 0 0 8.55346e-06 6.91473e-06 1.14098e-05 -0.00466168 -0.00868696 -0.00551955 -0.000532925 0.000643011 0.000446143 0.04 
494 1 1 -0.1743 -0.960163 -0.960228 0 0 0 3.52335e-05 -2.35509e-05 -3.14145e-05 -0.00673658 -0.00333222 -0.00569516 -0.000543601 0.00136678 0.000160854 0.04 
448 1 1 -0.0943155 -0.960146 -0.960267 0 0 0 2.90459e-05 -2.81081e-05 -6.07093e-05 -0.00573553 0.00339939 0.00645592 -7.61539e-05 -5.80272e-05 0.000320397 0.04 
147 1 1 -0.0144647 -0.96016 -0.960216 0 0 0 6.63908e-06 4.4055e-05 -1.6127e-05 -0.00347106 0.00159067 0.016697 -0.00111972 -7.9867e-05 0.000582732 0.04 
218 1 1 0.0655314 -0.960173 -0.960209 0 0 0 -1.4113e-05 5.15914e-05 1.94666e-05 -0.00726088 0.00879645 0.0106212 -0.00038221 -0.000849527 -8.43984e-05 0.04 
339 1 1 0.145758 -0.960146 -0.960215 0 0 0 -3.81085e-05 4.3045e-05 4.28499e-06 -0.00187887 -0.0004357 0.0113945 -0.000641357 -0.000133565 0.000419505 0.04 
81 1 1 0.225734 -0.960094 -0.960177 0 0 0 -5.50512e-05 6.53846e-05 -6.57463e-06 -0.00348705 0.010421 -0.00440221 -0.00132784 -0.000145931 0.000521001 0.04 
341 1 1 0.305651 -0.96007 -0.960156 0 0 0 -4.6101e-05 2.86071e-05 4.9807e-05 -0.00879268 0.00660627 -0.0122842 -0.000344607 -0.00123529 0.000466506 0.04 
203 1 1 0.385622 -0.960081 -0.960219 0 0 0 -3.2795e-05 6.68043e-05 -3.21715e-06 -0.00255484 -0.0082529 -0.00891734 -0.00105369 -0.000190418 0.00127176 0.04 
1019 1 1 0.473737 -0.960016 -0.960209 0 0 0 6.01922e-06 -9.01661e-06 5.08732e-05 0.00845211 0.00909996 -0.0184636 0.00118347 0.000278065 0.00341669 0.04 
821 1 1 0.553721 -0.960024 -0.960231 0 0 0 3.42703e-05 -2.36521e-05 3.45866e-05 -0.00363021 -0.00512315 -0.00373428 0.00123934 0.000130032 -0.00193051 0.04 
636 1 1 0.633692 -0.960458 -0.9602 0 0 0 3.8853e-05 -2.09522e-05 2.86756e-05 -0.00432019 -0.00293147 -0.00231768 0.000116767 6.87312e-05 0.000476203 0.04 
729 1 1 0.720239 -0.960012 -0.96016 0 0 0 1.23848e-05 2.67468e-05 -4.14063e-05 -0.00559229 -0.00796566 -0.00171886 -0.00125897 -0.000200773 -0.000588435 0.04 
503 1 1 0.800202 -0.960037 -0.960137 0 0 0 -1.20626e-06 9.50843e-06 -2.66751e-06 0.000942682 -0.00351578 0.0040489 -9.07161e-05 -0.000205287 0.000111809 0.04 
424 1 1 0.880173 -0.96004 -0.96016 0 0 0 2.92159e-06 4.70327e-06 -1.89673e-05 -0.00351144 -0.000967229 -0.00432574 -0.000384383 0.000174837 -0.000164153 0.04 
850 1 1 0.9601 -0.958945 -0.960223 0 0 0 -2.59506e-06 -1.27086e-05 -1.44685e-05 -0.00161109 -0.00500917 -0.00509237 0.000590525 -0.000327181 0.000117162 0.04 
778 1 1 -0.95993 -0.880402 -0.960216 0 0 0 2.80326e-05 1.84025e-05 -9.78489e-06 0.00406963 0.00230921 -0.0015984 0.000124536 0.000812829 -0.00298901 0.04 
918 1 1 -0.880186 -0.897209 -0.960225 0 0 0 7.83367e-05 7.88587e-05 8.91423e-05 0.00621992 0.00773921 0.00825388 0.000734816 0.000822243 -0.00123175 0.04 
246 1 1 -0.791825 -0.890618 -0.960152 0 0 0 3.54598e-05 3.52253e-05 5.06925e-05 -0.000585726 0.00414173 -0.00297781 0.00172423 0.000661403 -0.00162463 0.04 
586 1 1 -0.711861 -0.890539 -0.960297 0 0 0 9.33998e-05 -4.5745e-05 4.30511e-05 0.000419727 0.0122995 -0.000426086 0.00136454 0.000704616 -0.00168652 0.04 
379 1 1 -0.630911 -0.890722 -0.960191 0 0 0 9.85425e-05 -3.91092e-06 7.3193e-05 0.00881028 0.0144922 -0.00188098 1.25036e-05 0.00307456 -0.0014971 0.04 
105 1 1 -0.550904 -0.890948 -0.960215 0 0 0 4.08281e-05 -3.33965e-05 -1.51186e-05 0.00533406 0.0135881 -0.00532536 0.000526917 0.000253346 -0.00279987 0.04 
289 1 1 -0.471002 -0.890715 -0.96025 0 0 0 4.59022e-05 -9.4605e-05 -2.54614e-05 -0.000692791 0.00607924 0.003638 0.00258749 0.00040676 0.00274294 0.04 
345 1 1 -0.389527 -0.870683 -0.960118 0 0 0 0.00367121 0.00265485 -1.08329e-05 -1.35963e-06 -7.23975e-07 0.0120505 -0.0664695 0.0919161 0.123384 0.04 
209 1 1 -0.310225 -0.890866 -0.960161 0 0 0 1.42661e-05 -3.35505e-05 3.3083e-05 -0.00651531 -0.0070141 0.00089644 0.00155753 0.000438328 -0.00147972 0.04 
647 1 1 -0.222236 -0.896272 -0.960223 0 0 0 9.37875e-06 -7.0705e-05 -2.4161e-05 -0.00734194 -0.0119352 -0.00656022 0.00133642 0.000720953 -5.9248e-05 0.04 
700 1 1 -0.134298 -0.891092 -0.960196 0 0 0 2.01318e-05 -7.4746e-05 -8.22628e-05 -0.00117781 0.00051081 -0.000216899 -6.03636e-05 0.000392838 0.000649447 0.04 
616 1 1 -0.0544211 -0.890853 -0.960232 0 0 0 -1.07771e-05 -2.44615e-05 -0.000104625 -0.00950085 -0.000207301 0.0161655 0.000116659 -3.93232e-05 0.000454999 0.04 
87 1 1 0.02546 -0.891075 -0.960203 0 0 0 -1.16168e-05 4.57143e-05 -6.34484e-05 -0.00365461 0.00655677 0.00208268 -0.000881923 -0.000797121 6.16767e-05 0.04 
655 1 1 0.105572 -0.891077 -0.960218 0 0 0 -4.42559e-05 5.88501e-05 -4.08241e-05 -0.00150685 0.00806701 0.0114562 -0.00123607 -5.17086e-05 5.77885e-05 0.04 
977 1 1 0.18566 -0.890927 -0.960203 0 0 0 -8.44494e-05 6.31467e-05 -4.79887e-05 -0.0110294 0.0148192 0.00791115 -0.000581274 -0.000363008 0.000193625 0.04 
19 1 1 0.265637 -0.890829 -0.960226 0 0 0 -4.95661e-05 2.91136e-05 -0.000110421 -0.0122994 0.0176697 -0.0174927 -0.00199848 -0.00163292 -0.00167384 0.04 
443 1 1 0.345634 -0.890855 -0.960246 0 0 0 -4.6723e-05 4.50239e-05 -7.55674e-05 -0.000672977 -0.00140641 -0.0340624 -0.0013476 -0.000567162 -0.000471581 0.04 
664 1 1 0.4296 -0.89332 -0.960215 0 0 0 -8.52788e-05 2.23934e-05 0.000111418 -0.0086485 -0.0171496 -0.0213564 0.000327893 -0.002662 -0.000512641 0.04 
74 1 1 0.594359 -0.891143 -0.960225 0 0 0 1.38086e-05 -7.23319e-05 4.58e-05 -0.000378363 -0.00351153 -0.00334481 0.000502749 0.000662179 0.00132982 0.04 
50 1 1 0.674248 -0.892015 -0.960177 0 0 0 2.28726e-06 -6.55971e-06 -5.07211e-05 -0.0104891 -0.0086583 -0.00267467 9.12138e-05 0.000739256 0.000491408 0.04 
1 1 1 0.749841 -0.866831 -0.960242 0 0 0 2.75066e-05 1.51273e-05 -8.38013e-06 -0.00931955 0.00238672 -0.0112982 0.000279792 -0.000435652 0.000219739 0.04 
812 1 1 0.878013 -0.880136 -0.960204 0 0 0 2.06436e-05 -6.51817e-06 -4.09682e-05 -0.000461719 -0.00165529 -0.00575799 5.62805e-05 8.34649e-05 -0.000418358 0.04 
446 1 1 -0.960245 -0.800742 -0.960215 0 0 0 7.43114e-05 1.34839e-05 3.34132e-05 -0.00290848 -0.00304154 0.00665924 0.0006556 0.00024772 0.000995457 0.04 
352 1 1 -0.84095 -0.827532 -0.960338 0 0 0 8.12598e-05 0.000134343 0.00011924 0.00619931 0.00690944 0.00194874 -0.00253018 0.00124888 0.00136903 0.04 
894 1 1 -0.761754 -0.816672 -0.960284 0 0 0 0.000118741 -9.84905e-06 0.000152899 0.00749092 0.0154084 -0.00693567 1.1126e-05 0.00294018 -0.00265537 0.04 
960 1 1 -0.681855 -0.816441 -0.960115 0 0 0 5.87126e-05 2.05806e-05 1.58781e-05 -0.00547031 0.0168592 0.00180322 -0.000519418 0.000656855 0.00371342 0.04 
380 1 1 -0.535215 -0.812503 -0.960157 0 0 0 4.53063e-05 1.21302e-06 2.6156e-05 -0.00205443 0.0120606 -0.000762231 0.00059004 0.00106147 0.000428953 0.04 
720 1 1 -0.257518 -0.824571 -0.960292 0 0 0 2.29994e-05 -0.000190961 5.96047e-05 -0.00112639 -0.00942649 0.00869333 0.00447487 0.000555818 -0.0051565 0.04 
161 1 1 -0.175334 -0.822806 -0.960298 0 0 0 -0.000223536 -0.000467204 -0.000124527 -0.0160606 -0.00123635 0.000918614 0.0026967 -0.00592135 0.00876092 0.04 
385 1 1 -0.0953945 -0.820095 -0.960192 0 0 0 -0.000174691 -0.000442328 -0.000103374 0.00361304 -0.0148043 -0.00281058 0.00856302 -0.00304968 -0.00096831 0.04 
827 1 1 -0.0151043 -0.821238 -0.960264 0 0 0 -0.000108103 -2.32466e-05 3.98195e-05 -0.0175043 0.00461424 0.00467085 0.00168945 -0.00157074 0.0016629 0.04 
784 1 1 0.0652896 -0.822029 -0.96024 0 0 0 -3.5859e-05 5.32379e-05 -9.06228e-05 -0.0234021 0.00764447 -0.0120148 -0.000726432 -0.000765298 0.000343369 0.04 
211 1 1 0.14542 -0.821876 -0.960214 0 0 0 -7.02462e-05 5.64639e-05 -9.35537e-05 -0.010361 0.00951194 0.00293988 -0.000833228 -0.000500432 -6.0534e-05 0.04 
121 1 1 0.225286 -0.821505 -0.960185 0 0 0 -6.68562e-05 -6.13582e-06 -5.35977e-05 -0.00388195 0.0116736 0.0063377 -0.00117277 -0.00107532 -0.00147625 0.04 
354 1 1 0.302764 -0.802488 -0.960232 0 0 0 -6.07446e-05 -9.66431e-05 -4.18874e-05 0.00536283 0.0125859 -0.0023547 0.00260546 -0.000905686 8.85025e-05 0.04 
229 1 1 0.380707 -0.819076 -0.960367 0 0 0 -0.000114272 4.84644e-05 8.83375e-06 0.000780781 -0.0156759 -0.018501 -0.000116713 -0.00269765 0.00261441 0.04 
369 1 1 0.456122 -0.822154 -0.935179 0 0 0 -8.42295e-05 -2.69725e-05 0.000191725 -0.0126714 -0.023673 -0.0404433 0.00203512 -0.00156495 -0.00265919 0.04 
396 1 1 0.519561 -0.863496 -0.960238 0 0 0 -8.13985e-05 -0.000108781 6.00058e-05 0.00198078 -0.0197946 -0.0257817 0.00473415 -0.0023832 -0.00204228 0.04 
866 1 1 0.594028 -0.811306 -0.960337 0 0 0 -3.18566e-05 -3.70284e-05 6.43824e-05 -0.00912175 0.00753928 -0.00222636 -0.000683807 0.00109733 0.00274512 0.04 
628 1 1 0.673821 -0.812298 -0.960205 0 0 0 2.15691e-05 -1.68661e-05 6.67622e-06 -0.00975518 -0.00166426 -0.00771771 -9.81596e-05 -0.000802472 -0.000781742 0.04 
554 1 1 0.818679 -0.826524 -0.960283 0 0 0 3.63687e-05 -9.26443e-08 -2.73178e-05 -0.00106841 0.000367039 -0.00458775 0.000110095 0.00058936 -0.000268119 0.04 
417 1 1 0.960154 -0.833966 -0.960253 0 0 0 2.20306e-05 -6.95941e-05 -2.61071e-05 -0.000167759 0.00264754 0.000215868 0.00165415 4.65981e-05 0.0016582 0.04 
282 1 1 -0.889437 -0.764117 -0.960201 0 0 0 8.179e-05 9.37422e-05 5.91529e-05 0.00248597 0.00534468 0.000326549 -0.000655996 0.00114906 0.000102934 0.04 
492 1 1 -0.810313 -0.7532 -0.960205 0 0 0 0.000125074 0.000113931 5.20171e-07 -0.00467808 0.0171223 0.00589634 -0.00423134 0.000451999 -0.00304958 0.04 
290 1 1 -0.609448 -0.782716 -0.960222 0 0 0 5.30594e-05 7.42746e-05 4.47499e-05 -0.00633294 0.00422196 0.00509006 0.000705562 0.000206585 -0.00110707 0.04 
52 1 1 -0.453377 -0.788993 -0.960333 0 0 0 6.69577e-05 -0.000134951 -2.16664e-05 -0.00153619 0.00633447 0.000216746 0.00399681 0.00150397 -0.00274237 0.04 
480 1 1 -0.375658 -0.77053 -0.96036 0 0 0 -5.49644e-05 -6.43673e-05 4.03336e-06 -0.00685757 0.0116678 0.00233344 0.00249508 -0.000208753 0.00710565 0.04 
402 1 1 -0.29758 -0.75357 -0.960118 0 0 0 -2.8284e-05 -0.000209843 2.22981e-05 0.00534273 0.0109053 0.00341809 0.00564764 0.000842809 -0.011997 0.04 
322 1 1 -0.217703 -0.755322 -0.960131 0 0 0 -6.49901e-05 -0.000439653 -2.11563e-05 -0.00124256 -0.00679044 -0.00158855 0.0100263 -0.000628032 0.00758421 0.04 
376 1 1 -0.137782 -0.752282 -0.960136 0 0 0 -0.00017018 -0.000660745 -1.15145e-05 -0.00398713 -0.0101305 0.0037207 0.00347608 4.83176e-05 -0.00984876 0.04 
204 1 1 -0.0595811 -0.735713 -0.960305 0 0 0 0.000402253 -0.00294443 4.58407e-05 -0.00795185 0.0359617 -0.00557447 0.0727811 0.00942709 -0.0218589 0.04 
1122 1 1 0.019285 -0.748928 -0.960159 0 0 0 0.000918 -0.000773539 -0.000137603 -0.00155095 -0.0024999 0.0128992 0.0184461 0.0253469 0.0744243 0.04 
773 1 1 0.105142 -0.753051 -0.960327 0 0 0 1.64088e-05 7.03749e-05 -0.000120733 -0.00563067 0.013872 -0.0191932 -0.000572017 -0.000995158 -0.000931597 0.04 
725 1 1 0.185119 -0.75234 -0.960163 0 0 0 9.38616e-05 -1.57918e-05 -5.77644e-05 0.00731624 -0.00270465 0.00335608 0.000694268 0.000865664 -0.00216989 0.04 
159 1 1 0.345574 -0.735002 -0.960256 0 0 0 1.92902e-06 -3.14454e-05 -2.84361e-05 -0.0052161 0.0094583 0.00829951 0.000336588 0.000343099 0.000165936 0.04 
688 1 1 0.482792 -0.751116 -0.960229 0 0 0 2.61273e-05 1.2297e-05 0.000163673 -0.011611 -0.0083488 -0.00529938 -0.00125241 0.00215194 0.000357431 0.04 
757 1 1 0.561592 -0.738303 -0.96017 0 0 0 1.63234e-05 -0.000104131 9.24362e-05 -0.0123295 -0.0102615 0.00605959 0.00252648 -0.00141121 -0.00359292 0.04 
519 1 1 0.641385 -0.739389 -0.960173 0 0 0 5.55224e-05 -0.000149139 3.89353e-05 -0.00244091 0.0115414 0.00687986 0.00350917 0.00146744 0.00169527 0.04 
742 1 1 0.749359 -0.786904 -0.960233 0 0 0 7.1751e-05 1.07921e-05 5.29624e-06 -0.00169897 0.00155014 -0.00865028 -0.000238305 0.00164962 -0.000448324 0.04 
603 1 1 0.818345 -0.74666 -0.960129 0 0 0 7.15524e-05 -2.18127e-05 -1.29147e-05 -0.000953289 0.00353926 -0.00187233 0.00072979 0.000704607 -0.0012435 0.04 
86 1 1 0.891231 -0.793683 -0.960276 0 0 0 2.65323e-05 -4.11045e-05 -5.1551e-06 -0.000421218 0.000654026 0.000563237 -0.000225758 0.000197401 -0.00146931 0.04 
972 1 1 0.96024 -0.753737 -0.960208 0 0 0 1.5781e-05 -2.66698e-05 -2.65903e-05 -0.00127298 0.0006482 0.000410886 4.89492e-05 -0.000233045 0.000644561 0.04 
488 1 1 -0.960206 -0.720977 -0.960237 0 0 0 6.28497e-05 -6.65104e-06 8.81098e-05 -0.0105098 -0.00380047 0.00313941 0.000878303 -0.000230411 -0.000769127 0.04 
532 1 1 -0.889465 -0.684333 -0.960245 0 0 0 0.000149207 4.26869e-05 1.39523e-05 -0.00694219 2.51107e-05 0.00847694 -0.00078298 0.00213823 0.000262854 0.04 
564 1 1 -0.744084 -0.708372 -0.960258 0 0 0 0.000167228 -8.24502e-06 -4.03861e-05 0.000792036 0.0281647 -0.0437012 0.00198632 0.000956126 0.00218996 0.04 
314 1 1 -0.6662 -0.726449 -0.960117 0 0 0 0.000121538 0.000198772 -8.15677e-06 -0.0110733 -0.00633023 -0.0120793 -0.00447593 0.00143186 -0.000591724 0.04 
783 1 1 -0.611384 -0.667462 -0.960258 0 0 0 -0.000109617 1.55147e-05 0.000159073 0.0265122 -0.00959101 -0.0228867 -0.00284608 0.00097828 0.00511027 0.04 
1127 1 1 -0.555104 -0.724255 -0.960254 0 0 0 8.57661e-05 0.000123383 0.000109781 -0.00740424 -0.00805379 0.00510321 -0.000291614 0.00148609 -0.000202668 0.04 
241 1 1 -0.476079 -0.712365 -0.960184 0 0 0 0.000147223 9.9123e-05 5.0581e-05 -0.0102502 0.0124407 -0.002787 -0.00201371 0.00187792 -0.00200861 0.04 
85 1 1 -0.391003 -0.692244 -0.960255 0 0 0 -0.000162926 -1.65018e-05 6.7968e-05 -0.00812562 0.0113019 -0.00619209 -0.00350408 0.00357108 -0.00622524 0.04 
511 1 1 -0.312989 -0.675096 -0.960171 0 0 0 -0.000270215 -8.22435e-05 6.90356e-05 0.0186192 0.0133058 0.00797316 0.00180011 -0.00545568 0.00712123 0.04 
873 1 1 -0.23309 -0.677214 -0.960335 0 0 0 -0.000514482 -0.000616284 -0.000117424 0.0156865 -0.00283336 -0.0182061 -0.0103397 -0.00371844 0.00157873 0.04 
738 1 1 -0.122544 -0.673833 -0.960257 0 0 0 8.42284e-05 -0.000933702 3.08797e-05 -0.0161892 0.00600252 -0.0153268 0.0209397 -3.77591e-05 -0.00659002 0.04 
1088 1 1 0.110952 -0.673753 -0.960224 0 0 0 0.000214386 0.000141719 -6.98878e-05 -0.000618504 -0.0126171 -0.0246589 0.00342538 0.00295361 -0.00721879 0.04 
862 1 1 0.208434 -0.675886 -0.960172 0 0 0 0.000271708 -9.09744e-05 1.87535e-05 0.0105713 0.0168819 0.00410731 0.00366222 0.00943141 -0.00120523 0.04 
967 1 1 0.265707 -0.731659 -0.960287 0 0 0 2.99234e-06 -4.24378e-05 -7.36571e-05 0.0022741 0.016623 0.00741043 0.00135708 -0.00107935 -0.00145786 0.04 
451 1 1 0.432786 -0.688737 -0.960201 0 0 0 4.50059e-05 3.49819e-05 0.000127966 -0.00801219 -0.000649239 0.0155851 -0.00192257 0.000124147 0.000213142 0.04 
177 1 1 0.511719 -0.67593 -0.960228 0 0 0 8.27104e-05 -5.33226e-06 2.85634e-05 -0.0105199 -0.0124637 0.0207231 -0.000562706 0.00116175 -0.000294736 0.04 
308 1 1 0.678757 -0.668896 -0.96017 0 0 0 0.000121396 -5.30196e-05 6.88642e-05 -0.00816373 -0.000875939 0.00165134 0.000990794 0.00349873 -0.00206294 0.04 
439 1 1 0.748962 -0.707084 -0.960209 0 0 0 3.59519e-05 -5.20423e-07 -1.69867e-05 0.00116093 0.000419687 0.0104249 0.000167682 -0.00117431 0.00188303 0.04 
662 1 1 0.818044 -0.666736 -0.960231 0 0 0 3.53098e-05 -3.68138e-06 1.13128e-05 -0.00427983 0.00496234 0.0017374 5.73105e-06 -0.000190161 0.00216824 0.04 
188 1 1 0.891037 -0.713775 -0.960246 0 0 0 3.10258e-06 -3.9075e-05 -3.12899e-05 -0.00178286 0.00487607 -0.00337151 0.000105665 4.37486e-05 0.00129978 0.04 
987 1 1 0.960144 -0.673802 -0.960181 0 0 0 1.28991e-06 -1.89418e-05 -1.69128e-05 0.00170422 0.00109956 -0.000878019 0.000290248 -0.000350247 -0.000268565 0.04 
990 1 1 -0.877721 -0.605529 -0.96022 0 0 0 0.00025412 1.54586e-05 -5.20401e-06 -0.0303895 0.0292239 0.00691508 0.00331145 0.00388331 0.000767601 0.04 
826 1 1 -0.811813 -0.666089 -0.96016 0 0 0 0.000275795 -3.61284e-06 -2.31628e-05 -0.00131133 0.00675941 0.0199508 0.00434611 0.00510484 -0.00355242 0.04 
1152 1 1 -0.757384 -0.607622 -0.960258 0 0 0 0.000271858 1.38065e-05 -5.51361e-05 -0.0225057 -0.0202329 0.00260928 0.00172614 0.00406165 -0.0017685 0.04 
567 1 1 -0.68951 -0.649979 -0.960178 0 0 0 -7.1771e-05 0.0002053 -5.71511e-05 0.0188362 -0.00910298 0.00575828 -0.000750603 -0.000995508 0.00676357 0.04 
170 1 1 -0.527837 -0.64915 -0.960295 0 0 0 -8.93096e-05 0.000153037 5.51139e-05 0.008655 0.00446055 0.00216639 -0.00210253 -0.00191298 0.00591274 0.04 
375 1 1 -0.448829 -0.637339 -0.960301 0 0 0 -2.13365e-05 0.00048679 -2.16967e-05 0.0315646 0.0014597 -0.0156594 -0.00438254 0.00320521 -0.00435529 0.04 
709 1 1 -0.367344 -0.616019 -0.960196 0 0 0 0.000321119 -0.000147395 -9.0505e-06 0.0152823 -0.01075 -0.00721175 0.0025319 0.00531664 -0.00763935 0.04 
1046 1 1 -0.0467043 -0.648876 -0.960242 0 0 0 -9.74611e-05 -0.000939935 2.30744e-05 -0.018813 -0.00443765 -0.00802983 0.0227763 -0.00129139 0.0157466 0.04 
581 1 1 0.0319282 -0.662364 -0.960297 0 0 0 0.000128494 0.000114376 6.00296e-06 -0.0206158 -0.0152169 -0.0176361 -0.00460247 0.000681161 0.0105299 0.04 
61 1 1 0.160804 -0.611662 -0.960225 0 0 0 0.000381129 -0.000116478 3.56177e-05 -0.0121295 0.004587 -0.0004228 0.00459739 0.00772967 -0.00192836 0.04 
1052 1 1 0.252401 -0.609102 -0.960288 0 0 0 0.000113181 6.07193e-05 5.0839e-05 -0.0187678 0.0274679 0.00538736 -0.00262127 0.00113095 -0.00336643 0.04 
656 1 1 0.311911 -0.662486 -0.960129 0 0 0 3.79218e-05 -4.67032e-05 6.23293e-05 -0.00983011 0.0105167 0.019642 0.00108258 0.00157203 0.00026802 0.04 
1082 1 1 0.383107 -0.626077 -0.960243 0 0 0 -2.11497e-07 -1.18854e-05 3.05296e-05 -0.0108362 -0.0043029 0.00915787 0.000461465 -0.000143746 0.000215611 0.04 
255 1 1 0.462002 -0.613476 -0.960267 0 0 0 1.84173e-05 -1.8727e-05 9.18322e-06 -0.00939839 -0.00404837 0.017346 -0.000225931 0.000142639 0.00163795 0.04 
880 1 1 0.598421 -0.666184 -0.960224 0 0 0 4.47081e-06 -0.000167676 0.000100553 -0.00514101 -0.0218619 0.0180964 0.00621118 0.000265889 0.0054809 0.04 
1026 1 1 0.543025 -0.601441 -0.960162 0 0 0 -7.87221e-06 -0.00010645 -9.33569e-05 0.0589348 -0.0419443 0.0139292 0.000649396 0.000363289 0.00242047 0.04 
543 1 1 0.748548 -0.627317 -0.96016 0 0 0 -1.77042e-05 -9.82767e-06 -4.69406e-05 0.00301437 -0.00114015 0.00606857 -0.000361046 -2.80718e-05 -0.000942736 0.04 
553 1 1 0.890863 -0.6339 -0.960238 0 0 0 3.49122e-05 -4.80739e-06 -2.65797e-05 -0.00299796 0.00935184 0.00153516 0.000529835 0.000784209 -0.000439216 0.04 
260 1 1 -0.960001 -0.595549 -0.960244 0 0 0 1.34152e-05 -1.88189e-05 -8.1033e-05 0.000211073 0.00903778 -0.00261386 0.0010411 0.00097231 -0.00338254 0.04 
565 1 1 -0.816681 -0.553963 -0.96023 0 0 0 0.000342562 0.000334107 -4.1763e-05 -0.0166439 0.0305089 0.0219742 -0.00684164 0.00274517 0.000454844 0.04 
1113 1 1 -0.703062 -0.54922 -0.960279 0 0 0 5.99046e-05 0.000132945 1.89256e-05 -0.00488419 -0.0420953 0.0142779 0.000751445 0.000711539 0.00802102 0.04 
925 1 1 -0.635197 -0.59129 -0.960146 0 0 0 1.11032e-05 0.000115415 -7.97375e-05 0.0012329 -0.00488784 -0.0128709 -0.00453948 -0.00197883 -0.00920281 0.04 
893 1 1 -0.547629 -0.562687 -0.960175 0 0 0 7.97993e-05 7.61342e-05 0.000204294 0.00145028 -0.0217337 -0.000679196 -0.00295462 -5.25766e-05 -0.000377565 0.04 
1103 1 1 -0.454661 -0.557867 -0.9603 0 0 0 0.000688339 0.000735745 1.82346e-05 -0.0164935 0.00447341 0.00567878 -0.0164118 0.0199444 -0.00342244 0.04 
1448 1 1 -0.377583 -0.536755 -0.960161 0 0 0 0.00125343 -0.00013785 0.000302115 0.00210453 0.0187967 0.0205809 0.00310931 0.0293103 -0.0195004 0.04 
631 1 1 -0.303831 -0.567568 -0.960241 0 0 0 0.000692668 -0.000554903 -9.12731e-05 0.0233428 -0.0239847 0.0013664 0.0155616 0.0126172 -0.00793531 0.04 
714 1 1 -0.230037 -0.59787 -0.960352 0 0 0 0.000328566 -0.000803098 -0.00014622 0.00966432 0.0179115 0.00344902 0.00938512 -0.00086632 -0.0227652 0.04 
962 1 1 -0.165432 -0.550896 -0.960206 0 0 0 0.000409329 -0.000574345 9.32798e-05 0.0205841 0.0186667 0.00387675 0.014681 0.0090445 0.0160089 0.04 
950 1 1 -0.0923672 -0.583286 -0.960248 0 0 0 0.000208534 -0.000853953 -0.000175768 -0.0168957 0.0120125 -0.0188923 0.0210288 0.00469901 -0.0129718 0.04 
716 1 1 0.00265163 -0.586003 -0.960219 0 0 0 0.000299583 -0.00164264 -9.35546e-05 -0.0193225 0.0267884 0.00409759 0.04353 0.00832181 0.00641122 0.04 
388 1 1 0.0814072 -0.599613 -0.960229 0 0 0 0.000444718 7.7288e-05 0.000170585 -0.0127294 -0.0149264 -0.0150388 -0.00169409 0.00946702 0.00310292 0.04 
867 1 1 0.204618 -0.545122 -0.960171 0 0 0 5.72975e-05 3.40491e-06 -3.23244e-05 -0.00274292 0.00791944 -0.0156474 -0.00122917 0.00458035 0.00833912 0.04 
576 1 1 0.32159 -0.564044 -0.960232 0 0 0 -0.000115111 7.75762e-05 -6.05666e-05 -0.0403102 -0.0130671 -0.0148766 -0.0012676 -0.000570627 -0.00236432 0.04 
408 1 1 0.403789 -0.548891 -0.960207 0 0 0 -6.26997e-05 3.30654e-05 0.000239674 -0.0281326 0.0031945 0.00551022 0.00161747 0.000288289 -0.000655687 0.04 
814 1 1 0.482705 -0.536362 -0.960228 0 0 0 -2.43424e-06 -0.000169857 0.000105841 -0.0205733 -0.0169135 0.0248059 0.0033185 0.00119174 -0.00139859 0.04 
1288 1 1 0.589751 -0.536427 -0.960267 0 0 0 3.61371e-05 -0.000135229 -8.47314e-06 -0.00530714 -0.0144153 -0.00627202 0.00428699 0.00228268 0.000545563 0.04 
1111 1 1 0.678412 -0.58909 -0.96026 0 0 0 -1.63297e-05 -8.97446e-05 -3.56021e-05 0.0155779 0.00188942 0.00918934 0.00197038 -0.000437059 0.00214371 0.04 
1138 1 1 0.747379 -0.547509 -0.960206 0 0 0 -5.42439e-05 -3.88904e-05 -1.53813e-05 0.0101524 0.00233439 -0.00596721 6.23347e-05 0.000174832 0.000720153 0.04 
58 1 1 0.817503 -0.585979 -0.960206 0 0 0 3.17004e-05 -3.14405e-05 7.52239e-05 -0.0114686 -0.011087 -0.0250008 0.000266963 -0.00119089 0.00216249 0.04 
1107 1 1 0.890822 -0.554039 -0.960246 0 0 0 2.93881e-05 2.26965e-05 4.12244e-05 -0.00974122 -0.00511333 -0.0103814 0.000132821 0.00120816 -0.000550255 0.04 
252 1 1 0.960091 -0.593929 -0.960182 0 0 0 1.41543e-05 -2.34979e-05 -1.26724e-05 -0.00151226 -0.00244042 0.00177621 0.000401909 -0.000207246 0.000120212 0.04 
670 1 1 -0.960083 -0.515582 -0.960206 0 0 0 0.000171707 -9.81766e-06 -7.89842e-05 -0.0038925 0.00664413 -0.00325333 -0.000552737 0.00341072 -0.00224457 0.04 
644 1 1 -0.761224 -0.493804 -0.960276 0 0 0 0.000273256 0.000366155 -1.4276e-05 -0.00945754 -0.0310265 -0.00248535 -0.011366 0.00440289 0.00141485 0.04 
833 1 1 -0.684416 -0.471797 -0.960325 0 0 0 -2.42254e-05 6.93788e-05 7.16253e-05 -0.048392 -0.0128125 -0.0357543 -0.00131693 -0.00652328 -0.00616252 0.04 
435 1 1 -0.616325 -0.513721 -0.960224 0 0 0 0.000150777 -1.68333e-05 3.81518e-05 -0.0256444 -0.0218657 -0.013451 0.00510368 0.0018801 0.00536283 0.04 
816 1 1 -0.50304 -0.494477 -0.960283 0 0 0 0.000132783 0.000468363 -7.17914e-05 -0.0848845 -0.00102566 0.0454169 -0.00898266 0.00120829 0.0147649 0.04 
489 1 1 -0.313622 -0.488317 -0.960235 0 0 0 0.00251083 -0.000459204 0.00029167 0.036266 0.00481605 -0.0106659 0.00881703 0.0134304 -0.000264774 0.04 
883 1 1 -0.239844 -0.518994 -0.960264 0 0 0 0.00198787 -0.000722672 0.000145427 0.0588174 0.0109716 0.0267407 -0.00508856 0.0121275 -0.0198095 0.04 
305 1 1 -0.175476 -0.471606 -0.960211 0 0 0 0.0015081 -0.000423328 0.000110705 0.085846 0.0196485 -0.0446619 0.0124549 0.0402159 -0.00328857 0.04 
675 1 1 -0.101771 -0.502551 -0.960183 0 0 0 0.000920595 -0.000996206 0.000188106 0.0473807 0.0721628 -0.00279449 0.0252845 0.0200608 -0.0150366 0.04 
1066 1 1 -0.0222113 -0.510094 -0.960312 0 0 0 0.00088365 -0.00127696 -0.000267542 -0.0408728 0.0103888 0.0129858 0.0341379 0.023043 -0.0058661 0.04 
143 1 1 0.0589692 -0.523029 -0.960127 0 0 0 0.000320943 0.000104493 0.000170484 -0.0211531 -0.000289759 -0.00111912 -0.00191773 0.00974631 0.00146493 0.04 
1346 1 1 0.153915 -0.483514 -0.960266 0 0 0 0.000142203 -5.40398e-05 1.10203e-05 -0.0303506 0.00455005 -0.01264 0.00186422 0.00757665 -0.00225037 0.04 
1000 1 1 0.271508 -0.501726 -0.960222 0 0 0 -0.000171882 0.000156045 -0.000116363 0.00330106 0.00942692 -0.00825848 -0.000947588 -0.005766 0.000218438 0.04 
792 1 1 0.350499 -0.48939 -0.960248 0 0 0 -0.0001848 0.00010637 9.97692e-05 0.00744289 -0.0213387 0.00882206 0.00046753 -0.0014262 -0.000735116 0.04 
1361 1 1 0.432906 -0.4738 -0.96021 0 0 0 -3.58898e-05 -0.000183366 5.62148e-05 -0.0201931 0.023943 0.0157448 0.00453156 -0.00268075 -0.000732753 0.04 
584 1 1 0.536204 -0.477088 -0.960206 0 0 0 -1.16681e-05 -8.95216e-05 3.61336e-05 0.00690446 -0.0206578 0.014958 -0.00136237 -0.001068 0.000472054 0.04 
908 1 1 0.677145 -0.509429 -0.960259 0 0 0 -5.62491e-05 -6.48088e-05 2.32581e-05 0.0198246 -0.00458919 0.00233409 5.63453e-05 0.000765392 6.71094e-05 0.04 
1309 1 1 0.804445 -0.491606 -0.960225 0 0 0 -0.000127836 -0.000202471 -4.02119e-05 0.0250959 0.0119458 -0.0114713 0.00417228 -0.00141622 -0.00312947 0.04 
9 1 1 0.890886 -0.474152 -0.96018 0 0 0 2.77826e-05 8.82558e-06 7.97424e-05 0.0100492 -0.0062988 0.0189543 0.000609399 0.00158636 -0.000938177 0.04 
771 1 1 0.960095 -0.514066 -0.960231 0 0 0 4.3855e-05 -3.33464e-05 -8.62964e-06 -0.0026427 -0.00694603 -0.00151697 0.000494337 0.0010828 0.000198598 0.04 
1055 1 1 -0.960062 -0.423547 -0.960213 0 0 0 0.000205969 1.086e-05 -1.18643e-05 -0.00281596 -0.00220909 -0.00504188 -0.000582451 0.00225608 0.00126706 0.04 
739 1 1 -0.890752 -0.463397 -0.960241 0 0 0 0.000253748 6.05862e-06 -6.08617e-05 -0.0258352 0.0025334 0.0114821 0.00120748 0.00368608 -0.000465061 0.04 
1142 1 1 -0.821569 -0.423414 -0.960257 0 0 0 0.000193334 -2.27847e-05 -5.02874e-05 -0.0636955 -0.000593561 -0.0485198 -0.00381812 0.00209197 -0.00483857 0.04 
613 1 1 -0.636929 -0.407846 -0.960295 0 0 0 -0.000148823 9.93515e-05 5.33561e-05 -0.0387707 0.0236409 -0.019049 -0.00196432 -0.00127408 0.00782642 0.04 
620 1 1 -0.568904 -0.449472 -0.960227 0 0 0 -3.76312e-05 5.24996e-05 -6.10022e-05 -0.0523155 -0.0336395 0.010188 -0.00379038 0.00472564 0.000788899 0.04 
1316 1 1 -0.46094 -0.426606 -0.960321 0 0 0 0.00296975 -0.000935525 0.000394305 0.0595978 0.104324 0.0211333 0.0126661 0.0766798 -0.0155287 0.04 
344 1 1 -0.38723 -0.457435 -0.960271 0 0 0 0.00304353 -0.000143051 0.000370419 -0.0761998 -0.00739216 -0.0541923 -0.00721909 0.01372 -0.0219014 0.04 
247 1 1 -0.323591 -0.408991 -0.960224 0 0 0 0.00308756 -0.000270185 0.000501651 -0.145019 -0.011968 -0.0281411 -0.0115569 0.0168332 -0.0134779 0.04 
382 1 1 -0.249975 -0.439992 -0.960246 0 0 0 0.00267691 -0.000489356 0.000400407 0.0173928 0.00435724 -0.0397433 0.00112814 0.0190544 0.00166866 0.04 
1271 1 1 -0.105196 -0.422585 -0.960249 0 0 0 0.000250241 -0.00103969 -8.43733e-05 0.00379042 0.0286587 -0.0056229 0.0298545 0.00815121 -0.0393473 0.04 
1249 1 1 0.0294242 -0.448877 -0.960289 0 0 0 0.000206742 0.000307052 6.4669e-05 0.00280346 0.00508874 -0.0148527 -0.0094041 0.00784645 0.00111167 0.04 
1030 1 1 0.104299 -0.421008 -0.960282 0 0 0 -6.15415e-05 -0.000321736 -0.000100417 -0.000962275 0.00795748 0.0062825 0.00145688 -0.00471716 0.0065506 0.04 
1148 1 1 0.220829 -0.439835 -0.960252 0 0 0 0.00018239 -2.18644e-05 7.76803e-05 -0.0250903 -0.014389 -0.0135356 -0.00144136 0.00839503 0.00559949 0.04 
772 1 1 0.300185 -0.427299 -0.960209 0 0 0 -0.00019287 0.00016148 1.95394e-05 -0.0043119 -0.0487252 -0.0454102 -0.0036329 -0.0066168 -0.00158207 0.04 
845 1 1 0.379042 -0.414706 -0.960221 0 0 0 -9.81292e-05 2.8477e-05 0.00017021 -0.014152 0.0224558 0.00648435 0.000792421 0.000602927 0.0020902 0.04 
981 1 1 0.56105 -0.401065 -0.960201 0 0 0 8.8432e-05 -9.05661e-05 -1.87002e-05 0.0289915 -0.00693143 0.00333483 -0.000187568 0.00198884 -0.00220667 0.04 
1047 1 1 0.614308 -0.460355 -0.960196 0 0 0 -1.94769e-05 -9.86088e-05 5.63138e-05 0.00645917 -0.0197622 -0.0205994 5.13722e-05 -0.000579245 -0.000301581 0.04 
1474 1 1 0.688413 -0.43048 -0.960203 0 0 0 3.45168e-05 -6.96222e-05 8.02188e-05 0.00443121 -0.0101501 -0.00929037 0.00219709 0.00171661 -0.000820269 0.04 
840 1 1 0.767482 -0.420832 -0.960285 0 0 0 2.26915e-05 -6.57369e-05 -1.32924e-05 0.0149183 -0.0140472 -0.0108785 -0.000728467 -0.000458726 -0.00260872 0.04 
852 1 1 0.960097 -0.434151 -0.960265 0 0 0 1.5447e-05 -5.53102e-05 1.31474e-05 0.00171693 -0.00350632 0.00319885 0.000647379 0.000637408 0.000783715 0.04 
982 1 1 -0.960098 -0.343565 -0.960223 0 0 0 0.000137926 -1.08265e-05 -1.77363e-05 0.00512335 -0.00311049 0.00686517 0.000567552 0.00150621 0.000870797 0.04 
326 1 1 -0.890838 -0.383457 -0.960224 0 0 0 0.00026281 2.68838e-06 -6.78866e-05 -0.0183411 -0.00641019 0.0117279 -0.000386277 0.00302133 0.00164638 0.04 
1215 1 1 -0.821583 -0.343417 -0.960218 0 0 0 0.000205353 0.000152971 0.000122998 -0.00613799 -0.00996613 0.0340802 -0.00508895 0.00231701 0.00506477 0.04 
1246 1 1 -0.749776 -0.388394 -0.960129 0 0 0 -0.000198593 -0.000235684 -2.14158e-05 -0.0374994 -0.017705 -0.113346 0.00238407 -0.000696013 0.00907954 0.04 