ITEM: TIMESTEP
60400
ITEM: NUMBER OF ATOMS
1500
ITEM: BOX BOUNDS ff ff ff
-1 1
-1 1
-1 1
ITEM: ATOMS id type type x y z ix iy iz vx vy vz fx fy fz omegax omegay omegaz radius 
137 1 1 -0.960284 -0.958695 -0.960217 0 0 0 -0.0387413 0.013947 0.00719114 5.99896 0.764405 -5.53437 -0.331844 0.471407 0.330905 0.04 
5 1 1 -0.840987 -0.960244 -0.960561 0 0 0 0.0662278 0.0188795 0.0746515 9.75911 11.3245 -5.65457 0.418467 0.418356 0.0875707 0.04 
239 1 1 -0.761216 -0.96041 -0.960533 0 0 0 0.0329654 -0.0108735 0.0466289 12.3469 18.704 13.572 0.0721368 0.620563 -1.21682 0.04 
34 1 1 -0.680691 -0.960347 -0.960194 0 0 0 -0.0227201 -0.0345309 -0.00712514 -6.49974 12.3706 3.4943 -0.969062 0.103592 -0.250085 0.04 
415 1 1 -0.601041 -0.960016 -0.959985 0 0 0 0.0198849 0.0244488 0.00695935 0.681792 0.420336 -7.91677 0.214726 0.439782 0.0530603 0.04 
138 1 1 -0.52135 -0.96004 -0.960166 0 0 0 0.0293736 0.0299677 -0.019601 3.39439 -1.07485 0.859611 0.16721 0.477952 -0.0417541 0.04 
323 1 1 -0.441546 -0.959885 -0.960354 0 0 0 0.0918087 -0.107194 -0.0359911 -3.01289 -9.63907 13.8805 0.214839 0.184723 0.260682 0.04 
130 1 1 -0.361877 -0.959974 -0.960368 0 0 0 0.0446703 0.00467251 0.00588595 5.22121 -4.52066 -5.94702 -0.422715 0.957262 0.118049 0.04 
502 1 1 -0.282161 -0.95996 -0.960318 0 0 0 0.0856862 0.0204683 0.020779 1.43645 -2.21074 1.22276 -0.220048 -0.364349 0.222667 0.04 
494 1 1 -0.179705 -0.960369 -0.960333 0 0 0 -0.0536232 0.0423021 0.00495533 -0.331639 -2.31273 0.749652 -0.191787 -0.166416 -0.562614 0.04 
448 1 1 -0.0998584 -0.959383 -0.960113 0 0 0 -0.0104345 -0.0128204 0.0128502 -1.776 0.287353 -5.94346 0.273732 -0.287203 -0.094808 0.04 
147 1 1 -0.0200664 -0.960016 -0.960212 0 0 0 -0.00925147 0.00772608 0.00682961 2.72371 -0.0599422 -1.42062 0.126611 -0.641934 -0.0509217 0.04 
218 1 1 0.0599227 -0.959642 -0.960115 0 0 0 -0.0183357 0.0120918 -0.00391513 0.507841 0.174054 -0.0989783 -0.320597 -0.424207 0.423559 0.04 
339 1 1 0.180923 -0.959882 -0.960101 0 0 0 -0.0784512 0.0284739 -0.00895126 -2.2816 -0.167148 -5.58961 -0.589059 -1.08512 0.910861 0.04 
341 1 1 0.312483 -0.959885 -0.960248 0 0 0 -0.00547608 0.0100676 -0.020735 0.868866 -0.357002 3.20574 -0.260486 -0.407509 0.145494 0.04 
203 1 1 0.392373 -0.960083 -0.960148 0 0 0 0.00539773 0.00591592 -0.015032 -0.891012 -6.13104 -0.59405 0.315549 -0.206507 -0.109047 0.04 
1019 1 1 0.4724 -0.96017 -0.96013 0 0 0 -0.000956009 0.000992833 0.0470249 1.75433 4.86325 -1.69954 0.527452 -0.153753 -0.0971175 0.04 
821 1 1 0.552358 -0.960019 -0.960025 0 0 0 0.0166373 0.00972061 0.00956109 -2.57995 0.880516 -10.5477 0.298076 -0.260637 0.0905413 0.04 
636 1 1 0.632174 -0.960167 -0.959992 0 0 0 0.0147018 0.00912575 0.028858 1.94277 0.166653 -7.4182 -0.00372144 0.444055 0.123613 0.04 
729 1 1 0.720029 -0.959251 -0.960378 0 0 0 0.0672504 0.0176003 0.0623063 0.356634 0.0762047 11.741 -0.815538 1.13685 -0.62661 0.04 
503 1 1 0.800245 -0.960097 -0.960182 0 0 0 0.0961354 -0.0782298 0.0186344 -0.707911 6.74162 3.3317 0.401001 0.437785 -0.175123 0.04 
424 1 1 0.880543 -0.960139 -0.960091 0 0 0 0.0348648 0.0206532 0.00799897 -3.20926 -10.4918 -5.25716 0.0928125 0.216981 -1.64098 0.04 
850 1 1 0.960564 -0.95793 -0.9604 0 0 0 0.0338154 0.00899511 0.0409607 -27.5516 -0.288748 5.74872 -0.298666 0.847336 -0.146898 0.04 
918 1 1 -0.89226 -0.898866 -0.960169 0 0 0 -0.179902 -0.0864269 -0.026102 0.284941 0.37643 3.21635 0.430206 1.10829 3.11904 0.04 
246 1 1 -0.802874 -0.887538 -0.9594 0 0 0 0.096503 -0.0234788 0.00471845 -3.6579 -3.26949 -10.6121 -0.327248 2.21245 -1.41008 0.04 
586 1 1 -0.720837 -0.891446 -0.960437 0 0 0 0.0583024 -0.062768 -0.00438571 -1.03928 -1.27283 11.2249 1.92363 1.79542 -0.0804776 0.04 
379 1 1 -0.639588 -0.88939 -0.960246 0 0 0 0.166366 -0.0695594 0.0262863 -7.56744 2.19079 -10.952 0.33496 1.72917 1.09685 0.04 
105 1 1 -0.548751 -0.88492 -0.960194 0 0 0 -0.0459104 -0.00557479 0.0105142 1.25091 0.701947 2.95728 -0.160066 -0.264992 -0.385909 0.04 
289 1 1 -0.468741 -0.885025 -0.958837 0 0 0 -0.0884539 -0.068939 0.0504408 -3.4617 11.2115 -6.46708 1.27361 -0.140727 -0.362798 0.04 
345 1 1 -0.388743 -0.884398 -0.959967 0 0 0 -0.0309421 -0.0820978 -0.0499608 -5.9472 0.0530054 -6.26022 0.441477 0.292095 1.23845 0.04 
209 1 1 -0.308911 -0.884627 -0.960225 0 0 0 -0.0016012 0.0199275 0.0103635 -0.366613 2.53275 5.57385 0.255889 0.00765633 1.09478 0.04 
647 1 1 -0.230357 -0.898871 -0.960119 0 0 0 0.0292101 0.10366 0.0194049 1.67255 -14.8168 -4.62614 -0.373645 -0.127621 -0.473745 0.04 
700 1 1 -0.145258 -0.888553 -0.96051 0 0 0 -0.0184754 -0.00433482 0.0299305 -4.18549 1.41691 7.93385 0.18413 -0.261109 0.208292 0.04 
616 1 1 -0.0625387 -0.884651 -0.960387 0 0 0 0.0217125 0.00131929 -0.0234063 8.96681 -3.09616 0.381989 -0.476752 -0.956872 0.720723 0.04 
87 1 1 0.0180716 -0.888277 -0.959426 0 0 0 -0.0697851 0.0139418 -0.11218 0 0 -6.57473 -0.0675407 -1.62156 -0.0661654 0.04 
655 1 1 0.114003 -0.900229 -0.960133 0 0 0 0.0498705 -0.0253435 0.0112966 2.87714 -3.7041 -3.4022 -0.108931 0.323123 -2.13601 0.04 
977 1 1 0.192047 -0.880392 -0.960931 0 0 0 0.0754279 0.123383 0.122953 3.00002 5.90308 -25.9057 -1.22658 1.27544 -0.0181827 0.04 
19 1 1 0.27135 -0.891279 -0.960087 0 0 0 0.0274997 0.0340604 0.00328661 -0.147527 0.217952 -2.07842 -1.06463 0.93744 -0.585439 0.04 
443 1 1 0.351567 -0.889371 -0.960282 0 0 0 0.0486175 -0.0190167 0.0457515 -0.383562 4.94656 -0.101893 -0.0567343 0.368709 -0.115652 0.04 
664 1 1 0.432303 -0.891106 -0.96024 0 0 0 0.0207408 0.0329767 0.020277 -0.374001 4.30384 1.25566 -0.204648 0.345703 -0.135264 0.04 
396 1 1 0.513709 -0.880666 -0.959315 0 0 0 0.15659 0.0878056 -0.27573 -20.9062 2.07613 -5.45452 -0.641013 1.27701 1.15426 0.04 
74 1 1 0.592511 -0.890717 -0.960252 0 0 0 0.0464439 -0.110383 0.00115616 19.5871 3.04748 -1.5652 0.181344 0.326391 -0.784347 0.04 
50 1 1 0.675031 -0.892922 -0.960117 0 0 0 0.00283094 0.0492426 -0.00635769 -4.11977 6.81293 -7.49951 -0.449564 0.311671 -0.12065 0.04 
812 1 1 0.889404 -0.881153 -0.95924 0 0 0 0.0170516 0.148468 -0.0552909 -16.8776 17.5151 -35.0947 0.186421 1.84368 2.27509 0.04 
778 1 1 -0.95997 -0.852738 -0.958988 0 0 0 0.0865854 0.0357219 0.235904 0 0 -6.57473 0.638657 -2.19531 -2.35043 0.04 
352 1 1 -0.857925 -0.825979 -0.960668 0 0 0 -0.0759486 0.067663 0.277283 -1.37389 13.3203 4.40895 -0.765774 -1.94145 1.21596 0.04 
960 1 1 -0.689113 -0.818235 -0.959843 0 0 0 -0.0318924 0.0462686 0.0726943 -0.268919 0.239234 -14.8724 1.46069 -1.04921 0.759301 0.04 
380 1 1 -0.534926 -0.804524 -0.960263 0 0 0 0.0769031 -0.0334075 -0.0120685 1.98753 -0.156151 8.37338 -0.552322 -0.285294 1.09728 0.04 
720 1 1 -0.256139 -0.823709 -0.960374 0 0 0 -0.0103205 0.0554616 -0.116999 -10.0303 9.93479 16.8447 1.20945 0.178251 -0.152298 0.04 
161 1 1 -0.158355 -0.809764 -0.960264 0 0 0 -0.0013135 -0.0134594 0.0220081 1.09687 2.24827 0.863275 0.231856 -0.0727592 -0.771769 0.04 
827 1 1 -2.81686e-05 -0.809336 -0.960233 0 0 0 0.0699203 -0.0480548 -0.00122676 0.314872 -2.52672 -0.542359 -0.371767 0.821316 -0.459251 0.04 
784 1 1 0.0773421 -0.829418 -0.960163 0 0 0 0.00224416 -0.0196447 -0.0157708 -4.22538 -1.89489 -5.21376 -0.174145 0.119956 1.44489 0.04 
211 1 1 0.154772 -0.809993 -0.960193 0 0 0 0.0174504 0.00724447 -0.0131793 0.236584 4.59826 -7.19239 -0.490593 0.303355 -0.879735 0.04 
121 1 1 0.235 -0.813303 -0.960401 0 0 0 -0.0200622 0.0540761 0.100089 5.40387 5.47858 -0.994073 -0.466783 -0.957936 0.879201 0.04 
229 1 1 0.383014 -0.813869 -0.960324 0 0 0 0.0113203 0.00698813 -0.0455176 -3.12195 -0.982479 4.89857 -0.567958 0.481836 -0.929762 0.04 
866 1 1 0.597175 -0.810954 -0.960535 0 0 0 -0.0494994 -0.0333453 -0.0349895 -14.2574 4.48141 17.1923 0.0125925 -0.0851374 1.40486 0.04 
628 1 1 0.676593 -0.812996 -0.95984 0 0 0 0.00372476 0.0195278 -0.125174 4.6982 -4.41764 -4.40785 0.796925 0.668195 0.389358 0.04 
1 1 1 0.749485 -0.864395 -0.960066 0 0 0 0.0230265 -0.0468016 0.00893707 -3.49089 10.5669 -15.2611 -0.0990481 0.410078 0.0752982 0.04 
554 1 1 0.820349 -0.823679 -0.960755 0 0 0 0.00550034 -0.0380638 -0.0147026 -4.14756 5.05072 11.5618 -0.666358 0.116897 -0.590431 0.04 
417 1 1 0.959379 -0.840956 -0.959947 0 0 0 0.0877837 0.0504115 -0.0412209 1.82065 -6.02567 -15.7083 -1.06663 -0.0569151 -0.689801 0.04 
446 1 1 -0.960491 -0.772597 -0.959904 0 0 0 0.046431 -0.0332921 -0.0506741 26.4963 1.12811 -6.93095 1.04908 1.21185 -0.0773391 0.04 
894 1 1 -0.769036 -0.788294 -0.95988 0 0 0 0.0975979 -0.295862 0.0304803 0 0 -6.57473 1.77262 2.2721 -0.914614 0.04 
290 1 1 -0.612606 -0.785785 -0.960459 0 0 0 -0.0120331 -0.0153223 0.0465123 14.5459 5.26873 -12.0473 1.14888 0.0130814 0.176726 0.04 
52 1 1 -0.454213 -0.795135 -0.960037 0 0 0 -0.0254022 0.00444527 -0.0612393 0.129634 -0.059656 -3.72068 0.437478 0.556921 1.00531 0.04 
480 1 1 -0.375373 -0.773504 -0.960092 0 0 0 -0.00150024 0.0457613 -0.028117 -2.79622 10.2713 -11.0796 -1.05249 0.507323 0.395422 0.04 
402 1 1 -0.297348 -0.754977 -0.96025 0 0 0 0.016291 0.115835 0.0177868 0.0104276 -0.685939 7.14563 -1.33836 0.432385 -1.0622 0.04 
322 1 1 -0.216893 -0.754304 -0.959778 0 0 0 0.0897472 0.0933017 0.00547322 -8.4358 3.67166 -7.18353 1.13973 -0.0201139 -1.06257 0.04 
385 1 1 -0.0797596 -0.794985 -0.960157 0 0 0 0.00172662 -0.00714214 -0.0298627 0.48403 0.115753 2.58658 0.248541 -0.495857 0.817826 0.04 
773 1 1 0.107032 -0.741818 -0.960279 0 0 0 -0.0172748 -0.0967782 0.00402208 1.8718 2.04815 6.97441 0.727167 -0.245477 -0.0546315 0.04 
725 1 1 0.191851 -0.739489 -0.960062 0 0 0 0.116985 -0.026845 -0.0252359 2.15543 0.287131 -3.05951 0.192153 0.617013 -1.41818 0.04 
354 1 1 0.30917 -0.782805 -0.960213 0 0 0 0.00331526 0.108698 0.0103031 -1.94167 -0.532796 1.8251 -2.59179 0.0992416 -0.532811 0.04 
688 1 1 0.482998 -0.753767 -0.960305 0 0 0 0.0849274 0.0645368 -0.0175199 7.14634 -12.3103 6.41399 -0.0815817 1.48029 -0.718959 0.04 
757 1 1 0.571189 -0.735272 -0.960355 0 0 0 -0.13568 -0.0356211 -0.0879917 -2.00786 -12.8558 14.7778 1.06776 -1.78145 -0.745727 0.04 
519 1 1 0.650632 -0.736443 -0.960287 0 0 0 0.032917 -0.0383037 0.0652806 23.4627 -4.64155 -1.83481 0.0836131 -1.89276 -0.779129 0.04 
742 1 1 0.750822 -0.784381 -0.960469 0 0 0 0.00689337 -0.0421662 0.00507131 5.29796 -4.88008 9.97699 0.657905 -0.322299 -0.433267 0.04 
603 1 1 0.819359 -0.743794 -0.960305 0 0 0 0.0192161 -0.0189019 -0.0399612 10.955 -4.31115 12.5914 -0.849159 -0.419688 -0.122899 0.04 
86 1 1 0.894268 -0.794066 -0.960203 0 0 0 -0.0233427 -0.0199405 0.0719256 3.30733 0.83581 -4.83864 -0.316881 0.513961 0.661742 0.04 
972 1 1 0.960398 -0.749856 -0.960348 0 0 0 0.00822316 0.0239886 0.00523262 -8.59663 2.4915 5.97249 0.0460773 -0.010364 -0.198958 0.04 
488 1 1 -0.957847 -0.681903 -0.960333 0 0 0 0.00809608 -0.0159371 0.0467534 -4.86969 -1.68323 11.6338 0.199648 0.784601 -0.509821 0.04 
492 1 1 -0.826566 -0.732565 -0.959618 0 0 0 0.357701 -0.0897362 0.0798108 8.11519 -0.138487 -10.5366 0.371839 1.33694 -0.642841 0.04 
564 1 1 -0.742397 -0.711749 -0.960115 0 0 0 -0.0971598 -0.126784 0.0329212 0.178757 6.53049 -10.4132 2.644 -0.399288 0.611052 0.04 
314 1 1 -0.662909 -0.723892 -0.95967 0 0 0 0.0119661 -0.0732145 0.0332691 -4.59162 2.61153 -6.14575 0.267366 -0.221692 0.116272 0.04 
783 1 1 -0.603639 -0.666881 -0.960201 0 0 0 -0.0363912 0.103114 -0.000229286 7.0537 -21.3008 3.69791 1.06298 0.41997 -0.0161628 0.04 
1127 1 1 -0.54624 -0.724693 -0.960282 0 0 0 -0.018995 0.0685183 0.0760947 -0.192705 -0.711917 8.17602 -1.00601 -0.669945 -1.14952 0.04 
241 1 1 -0.464612 -0.710872 -0.960232 0 0 0 -0.109643 -0.0179045 -0.0270008 0.608209 0.263721 6.68374 -0.514009 -0.52856 1.13021 0.04 
85 1 1 -0.386351 -0.694181 -0.960123 0 0 0 -0.00185328 0.0505101 0.0142617 -7.63487 -7.34012 -4.63087 -0.423697 -0.76762 0.472649 0.04 
511 1 1 -0.304487 -0.674392 -0.960085 0 0 0 -0.217332 0.0144532 -0.0559562 -2.03021 -2.18966 -3.6715 -1.75109 -1.84229 -0.557457 0.04 
873 1 1 -0.216902 -0.674012 -0.960448 0 0 0 -0.0854474 0.0111888 -0.0426248 -7.54833 3.3425 1.37671 0.517441 -0.224037 -0.150833 0.04 
376 1 1 -0.140427 -0.732034 -0.960171 0 0 0 0.0534249 0.0194971 -0.015073 12.2193 5.84621 3.79543 -0.560125 0.520778 0.368767 0.04 
204 1 1 -0.062383 -0.713649 -0.96031 0 0 0 0.0169193 0.0227117 0.016177 -8.88203 0.791789 3.42596 0.214975 0.46523 0.87326 0.04 
1122 1 1 0.0157022 -0.729357 -0.960278 0 0 0 0.0552303 -0.0265225 -0.024622 4.10127 -8.07149 3.72643 -0.351933 0.461691 -0.832833 0.04 
967 1 1 0.278295 -0.700399 -0.960198 0 0 0 0.0517881 -0.075341 0.0230263 0.181516 -2.1815 -10.8965 0.174244 0.114383 0.0742983 0.04 
159 1 1 0.357434 -0.717715 -0.960272 0 0 0 0.134208 0.0856211 -0.0194183 -0.727493 -0.25175 8.82169 -1.06363 0.233819 0.25527 0.04 
451 1 1 0.434632 -0.690378 -0.960123 0 0 0 0.0695579 0.0826894 0.00657795 2.08214 -9.57721 -4.93415 -0.337941 1.07359 1.34996 0.04 
177 1 1 0.51393 -0.680204 -0.960244 0 0 0 0.0903751 0.0987322 -0.0402645 -6.72859 -15.181 -1.39607 0.229218 1.22819 0.0447085 0.04 
439 1 1 0.750166 -0.704481 -0.960206 0 0 0 0.164771 -0.0759173 0.0296688 -27.9902 -7.7636 -2.57153 -1.24873 -0.0382572 1.56195 0.04 
188 1 1 0.891191 -0.709563 -0.959778 0 0 0 -0.00502577 -0.0338164 -0.0109576 6.85521 2.5727 -6.88298 -0.196889 -0.558653 0.314512 0.04 
987 1 1 0.960283 -0.669713 -0.960161 0 0 0 0.0126912 -0.0395831 0.0106973 -7.19296 -5.41723 -4.22324 0.114551 0.29593 -0.0445846 0.04 
532 1 1 -0.880891 -0.660697 -0.960322 0 0 0 0.0465787 -0.0373218 0.0358566 -8.83238 6.47102 -5.83233 1.22786 0.489755 0.201356 0.04 
826 1 1 -0.801266 -0.656407 -0.960325 0 0 0 0.0140946 -0.125295 0.0219933 14.0971 -1.19211 -1.92809 0.342681 0.655075 0.45762 0.04 
567 1 1 -0.680856 -0.646089 -0.96035 0 0 0 0.0483799 0.0523187 -0.0157102 -3.70533 4.3473 13.3379 -0.115341 0.322167 -0.201804 0.04 
170 1 1 -0.520176 -0.637916 -0.960879 0 0 0 -0.0233336 -0.0140514 -0.121589 7.56145 -2.86142 35.6932 -1.13262 1.79311 -2.97683 0.04 
375 1 1 -0.440303 -0.634518 -0.960075 0 0 0 -0.0394292 0.119466 0.0285563 -1.93282 -1.39534 -2.43232 -0.488028 -0.369418 1.25914 0.04 
709 1 1 -0.362092 -0.618229 -0.960135 0 0 0 -0.0340458 0.132019 0.0583536 6.76145 9.52521 -0.134591 -1.17425 -1.59906 0.410695 0.04 
738 1 1 -0.124988 -0.653725 -0.960282 0 0 0 -0.0399439 0.0415756 -0.012683 -2.9107 2.38375 3.98558 0.385062 0.382586 0.779542 0.04 
1046 1 1 -0.0473123 -0.635107 -0.960205 0 0 0 -0.0286451 0.0408803 -0.00304825 -2.15058 -7.8344 -1.94378 0.0741318 -0.350412 0.118596 0.04 
581 1 1 0.0317687 -0.651321 -0.960378 0 0 0 -0.056274 0.0212626 -0.0629651 9.32838 10.9837 3.47103 -0.116561 -0.570218 -0.668517 0.04 
1088 1 1 0.117803 -0.662216 -0.960406 0 0 0 -0.0397686 -0.0475818 0.00283117 6.2322 6.72123 4.18515 0.704776 -0.245453 0.275719 0.04 
862 1 1 0.208645 -0.661581 -0.960439 0 0 0 -0.0280848 -0.0354996 -0.0163491 -4.4624 1.68492 10.0679 0.405811 0.0131977 0.633754 0.04 
656 1 1 0.325073 -0.635062 -0.960097 0 0 0 0.00598478 0.0276037 0.0336716 -0.1392 -0.204811 -1.62198 0.237961 -0.481536 0.0686347 0.04 
1082 1 1 0.406996 -0.615863 -0.96023 0 0 0 0.0204821 0.0459392 0.0298107 -2.80719 12.884 -8.09256 -0.166729 0.573222 -0.248266 0.04 
255 1 1 0.486238 -0.606038 -0.960168 0 0 0 0.000720371 0.0787936 0.0106005 -0.54207 10.7029 1.49194 -0.193609 -0.0983931 0.740826 0.04 
880 1 1 0.610532 -0.665569 -0.960494 0 0 0 -0.0449756 -0.0309575 -0.00330398 -5.5828 -11.2781 0.563018 -0.460311 -0.798338 -0.205093 0.04 
543 1 1 0.747139 -0.624187 -0.960204 0 0 0 -0.0242841 -0.0616 0.00527385 0.843137 -7.33601 4.49625 0.402827 -0.818157 -0.645961 0.04 
662 1 1 0.817569 -0.662791 -0.960153 0 0 0 0.0611197 0.0136748 -0.00874439 23.7995 13.6369 2.71501 -0.837495 -0.936538 0.240176 0.04 
553 1 1 0.890314 -0.629393 -0.960035 0 0 0 -0.0580352 0.0508425 -0.00798758 -0.558388 -2.25787 -4.52986 0.107347 -0.30058 0.0524237 0.04 
260 1 1 -0.959694 -0.587621 -0.960144 0 0 0 -0.0131726 -0.00899288 0.0362225 0.026518 -2.4269 -4.85867 -0.528479 -0.317278 -1.02928 0.04 
990 1 1 -0.879331 -0.580928 -0.960444 0 0 0 -0.0188626 -0.0883205 -0.018669 0.528775 0.611157 11.2462 0.964191 0.304094 0.203641 0.04 
565 1 1 -0.806694 -0.5476 -0.960039 0 0 0 0.0842972 -0.154807 0.0236235 -7.81264 7.12493 -7.4175 1.38938 0.43659 -0.0267096 0.04 
1152 1 1 -0.745727 -0.598831 -0.960265 0 0 0 0.0700143 0.0531404 -0.0579836 9.28294 -11.2713 9.13121 -0.126634 0.323187 0.755774 0.04 
1113 1 1 -0.687738 -0.543614 -0.960177 0 0 0 0.023913 0.0881424 -0.00763949 -24.4055 15.2922 3.74058 0.318718 0.436211 0.373693 0.04 
925 1 1 -0.623476 -0.589978 -0.960938 0 0 0 -0.153636 0.12462 -0.0579259 19.944 -19.0889 46.8672 0.484366 1.33522 2.03008 0.04 
893 1 1 -0.548539 -0.55981 -0.960504 0 0 0 0.00296831 -0.102617 -0.0277214 -0.114086 1.41827 21.8822 -0.754332 -0.193661 2.33883 0.04 
1103 1 1 -0.457763 -0.556039 -0.960223 0 0 0 -0.0929854 0.127777 -0.117202 15.7572 -18.2392 -2.7991 -0.134523 3.64147 0.834365 0.04 
1448 1 1 -0.378156 -0.538512 -0.960487 0 0 0 -0.017873 0.014254 -0.0131475 -1.40501 -4.86766 11.6446 -1.76755 0.0183359 -0.463568 0.04 
631 1 1 -0.29477 -0.574242 -0.960117 0 0 0 0.00769941 0.0827102 -0.0522752 2.31919 -3.21693 -13.3239 -1.39989 -0.140696 0.262251 0.04 
714 1 1 -0.216199 -0.593797 -0.96053 0 0 0 0.0504146 0.0502836 -0.0734016 -4.49158 -2.97733 19.0917 0.353014 -1.0931 -0.450176 0.04 
962 1 1 -0.155615 -0.54189 -0.960229 0 0 0 -0.0875491 0.0266361 0.00670333 10.5675 -3.05326 6.00148 0.0882071 -0.892036 0.071137 0.04 
950 1 1 -0.0777854 -0.560722 -0.959879 0 0 0 -0.0699012 0.0451608 0.0206787 -0.641883 0.110952 -7.85397 -0.576182 -0.693868 -0.358605 0.04 
716 1 1 0.00514191 -0.575229 -0.960141 0 0 0 -0.0137276 0.0530669 0.00809409 0.947825 -2.94466 -0.729875 -0.549355 0.0107888 -0.178627 0.04 
388 1 1 0.0833483 -0.590038 -0.960072 0 0 0 -0.0190209 -0.0970778 -0.0271147 3.94341 -3.85301 -12.6879 0.720879 -0.644502 -1.4549 0.04 
61 1 1 0.162875 -0.596112 -0.960264 0 0 0 -0.0318022 -0.0425517 -0.0203926 5.60475 -0.447318 5.13272 0.520215 -0.163664 0.374373 0.04 
1052 1 1 0.253423 -0.59586 -0.959994 0 0 0 0.0269115 -0.0460795 -0.0507908 4.36858 11.684 -6.26726 -1.83402 -0.291837 1.59054 0.04 
576 1 1 0.319692 -0.55133 -0.960172 0 0 0 0.0162062 0.0493649 0.0585728 15.8925 -1.04718 -12.8776 -0.373162 -0.505269 -0.0966696 0.04 
408 1 1 0.398269 -0.536398 -0.960152 0 0 0 0.0341843 0.0499841 -0.0208637 -5.02436 -0.805084 -11.1677 -0.170946 -1.01457 0.188414 0.04 
1026 1 1 0.56618 -0.599853 -0.960548 0 0 0 0.0134757 -0.0423961 -0.0460501 -7.27631 8.88807 6.6387 0.771431 0.262082 -0.175807 0.04 
1111 1 1 0.672259 -0.595955 -0.960201 0 0 0 -0.0367849 0.0481391 0.00702527 3.8795 3.55318 -3.20877 0.171139 -0.235841 0.0446699 0.04 
1138 1 1 0.734441 -0.545419 -0.960558 0 0 0 -0.0455181 -0.0692827 0.0156817 7.02994 0.125536 7.36151 0.851585 -0.487353 0.197861 0.04 
58 1 1 0.811673 -0.574797 -0.960166 0 0 0 0.0433236 -0.0802665 -0.0220687 -0.346002 0.329786 2.98511 1.07546 0.104019 -1.03728 0.04 
1107 1 1 0.889423 -0.549421 -0.960487 0 0 0 0.039979 -0.0711777 0.00327933 1.41194 6.24441 14.7371 0.381954 -0.0183752 -0.0703781 0.04 
252 1 1 0.959875 -0.589935 -0.960166 0 0 0 -0.00742498 -0.0118695 0.0133748 2.72852 -1.81858 -1.22256 0.218631 -0.241627 -0.132668 0.04 
670 1 1 -0.95915 -0.505969 -0.960132 0 0 0 -0.000820223 -0.108461 -0.0127938 -0.547815 -1.43035 -1.55765 0.819527 0.152022 0.269812 0.04 
644 1 1 -0.74955 -0.491586 -0.96029 0 0 0 -0.0196956 -0.0215606 0.0178678 1.4699 -3.27454 -4.39598 0.849798 -0.217658 -1.06324 0.04 
435 1 1 -0.613932 -0.511117 -0.96016 0 0 0 0.0291461 -0.0937962 0.0379576 14.0962 11.1326 1.24569 0.876479 -0.756839 -0.109925 0.04 
816 1 1 -0.488758 -0.482913 -0.960198 0 0 0 -0.14745 0.00791137 -0.0291962 -4.20813 16.3062 -2.9408 0.252201 -0.471841 -0.4028 0.04 
489 1 1 -0.317639 -0.48364 -0.96028 0 0 0 -0.0312324 0.10931 -0.0280692 9.54295 0.966222 -7.68987 -2.46159 -1.34582 -1.42707 0.04 
883 1 1 -0.240458 -0.515804 -0.959943 0 0 0 -0.0356489 0.0396511 -0.0699411 6.63482 2.02173 -16.2003 -0.218319 0.118244 -1.24279 0.04 
675 1 1 -0.101201 -0.48368 -0.952457 0 0 0 -0.0171072 0.0169426 -0.0120699 -8.18887 -0.885244 -4.97631 0.359836 -1.88224 -0.377856 0.04 
1066 1 1 -0.0238824 -0.501167 -0.960146 0 0 0 -0.0274928 0.0378155 -0.0442136 8.11839 6.516 -1.26975 0.289194 -0.510159 0.688634 0.04 
143 1 1 0.0566017 -0.513874 -0.960123 0 0 0 -0.0803935 -0.0603699 0.0238409 0.679869 -0.976033 -0.0758839 0.575281 -0.382502 -0.0251581 0.04 
1346 1 1 0.155265 -0.47016 -0.960119 0 0 0 -0.0724585 -0.106694 -0.00870559 -6.22714 4.5916 -11.8801 0.379095 -0.513208 1.0154 0.04 
867 1 1 0.20788 -0.530068 -0.959773 0 0 0 0.0545461 0.0375274 -0.0436619 5.7348 -7.12406 -6.41907 0.203559 0.772397 -0.689617 0.04 
1000 1 1 0.273483 -0.484329 -0.960125 0 0 0 -0.0988368 0.034521 -0.0863888 6.45286 -24.7085 -8.59288 -0.724379 -0.702158 1.08966 0.04 
792 1 1 0.353008 -0.470828 -0.960179 0 0 0 0.0495341 -0.0380996 0.00969685 -1.48487 2.48547 -8.73792 1.03268 -0.00443783 -0.402151 0.04 
814 1 1 0.477757 -0.527015 -0.960018 0 0 0 0.0211818 0.128614 0.0256652 -9.744 5.87098 -5.41738 0.886666 0.335339 -1.30627 0.04 
1288 1 1 0.578583 -0.520903 -0.960063 0 0 0 0.0986773 0.00225477 -0.0297021 -1.63323 2.14222 -4.6709 -0.0567816 -0.709139 -0.0264595 0.04 
908 1 1 0.662292 -0.506952 -0.960063 0 0 0 0.0640438 -0.0525326 -0.0347397 -0.0927233 0.174142 -2.62895 -0.12885 0.83389 0.124546 0.04 
1309 1 1 0.79592 -0.493755 -0.960018 0 0 0 -0.0255743 0.0248647 -0.0112614 -18.7816 4.27826 -30.4673 0.51357 -0.409356 2.2318 0.04 
9 1 1 0.890502 -0.469328 -0.960491 0 0 0 0.0412791 -0.106255 0.0137975 7.31224 -11.2921 9.76713 0.707958 -0.0466779 -0.332459 0.04 
771 1 1 0.960023 -0.510156 -0.960025 0 0 0 0.0632802 -0.0284238 0.0149533 -2.8961 -0.520661 -5.57003 0.0860841 0.406846 0.268604 0.04 
1055 1 1 -0.960162 -0.409789 -0.960485 0 0 0 -0.0113718 -0.110895 0.0322354 1.36608 2.32327 8.85653 1.2588 0.0419679 -0.632685 0.04 
739 1 1 -0.891249 -0.450299 -0.960193 0 0 0 0.0170276 -0.0045792 0.00372412 -2.7294 0.703545 -1.46187 1.29555 0.291163 -0.30885 0.04 
1142 1 1 -0.821665 -0.411079 -0.960191 0 0 0 0.0524456 -0.053473 0.00955545 1.81416 5.22587 -1.47164 1.0768 0.00325876 -0.674579 0.04 
833 1 1 -0.675486 -0.460755 -0.960266 0 0 0 -0.0258269 -0.116147 0.0617955 -10.7555 5.28509 3.1371 1.44998 0.471733 0.342668 0.04 
620 1 1 -0.55574 -0.430936 -0.960318 0 0 0 -0.0281368 -0.0293457 0.068848 -2.30981 -3.62994 -2.15169 0.566603 -0.0526745 0.380962 0.04 
1316 1 1 -0.468672 -0.405647 -0.960213 0 0 0 0.019717 0.0470776 -0.0287715 7.71451 6.58031 -6.79072 0.393041 0.417062 -1.50737 0.04 
344 1 1 -0.409017 -0.46309 -0.960111 0 0 0 -0.0984147 0.0835713 -0.000687726 0.301748 -0.0748395 -0.356926 -1.91654 -1.75558 -0.346318 0.04 
247 1 1 -0.327351 -0.404266 -0.960239 0 0 0 0.051402 -0.0273515 -0.00636201 -1.98427 0.36583 -1.75588 0.299077 0.275266 -0.0648394 0.04 
382 1 1 -0.252908 -0.434894 -0.960378 0 0 0 0.00693793 0.0063817 0.0249349 1.82581 -2.43993 4.50739 -0.927075 -0.15192 -0.0405017 0.04 
305 1 1 -0.178578 -0.465493 -0.960182 0 0 0 -0.00895324 -0.00531767 -0.0288152 3.70325 9.7694 -1.30466 -0.514097 0.121562 -0.61783 0.04 
1271 1 1 -0.0932195 -0.404525 -0.960276 0 0 0 -0.0393477 -0.00947825 0.0340049 -4.81908 6.36518 -1.24106 -0.271074 0.0333402 -0.0807273 0.04 
1249 1 1 0.032296 -0.437689 -0.960175 0 0 0 -0.00464432 -0.0403539 -0.014848 1.72914 1.43876 1.81746 0.352168 -0.0590648 -0.909495 0.04 
1030 1 1 0.106147 -0.406956 -0.960252 0 0 0 -0.0453833 -0.0531296 0.0380112 -10.3307 -10.2821 5.35667 0.477533 0.667321 -1.07687 0.04 
1148 1 1 0.220955 -0.424586 -0.959843 0 0 0 -0.112757 -0.0726437 -0.0178357 -5.44751 25.2852 -21.8003 0.81825 -0.823904 0.279761 0.04 
772 1 1 0.301936 -0.4099 -0.960057 0 0 0 -0.0352397 -0.0179233 0.065498 1.23173 2.89437 -24.0669 0.413835 -0.338736 1.05759 0.04 
1361 1 1 0.432286 -0.461319 -0.956982 0 0 0 -0.0237638 0.0818398 -0.0197064 2.8105 1.76876 -6.23794 -1.11905 -0.87584 0.930457 0.04 
584 1 1 0.524177 -0.462292 -0.95971 0 0 0 0.0747333 -0.0399853 0.125726 3.67873 4.68152 -7.49223 -0.365454 1.51629 -0.599517 0.04 
1047 1 1 0.608968 -0.446959 -0.960431 0 0 0 0.0713773 0.0772984 -0.0633875 3.46761 -3.10461 17.3367 -0.239117 0.64461 -1.38031 0.04 
1474 1 1 0.685479 -0.420149 -0.960117 0 0 0 -0.0861595 -0.116952 -0.0102529 22.5806 -18.6157 -21.3815 0.200864 0.29719 0.734011 0.04 
840 1 1 0.764917 -0.41392 -0.960071 0 0 0 0.0244354 0.00725774 -0.0793782 -16.7412 3.24024 -15.5741 -1.77792 0.699565 -0.0550523 0.04 
852 1 1 0.960144 -0.430396 -0.96021 0 0 0 -0.0168401 -0.0335775 -0.0197974 9.06186 -4.01848 -5.68779 0.35827 0.321065 0.0374715 0.04 
326 1 1 -0.890795 -0.370139 -0.960079 0 0 0 -0.0358732 -0.0443691 -0.00627977 0.0469842 -7.11705 -2.5163 0.707458 -0.204801 -0.150146 0.04 
1246 1 1 -0.74986 -0.375556 -0.960203 0 0 0 -0.000850645 -0.0432413 -0.0131929 -0.223442 -0.529738 4.92395 1.85367 -0.345875 -0.0810829 0.04 
613 1 1 -0.623591 -0.387212 -0.960425 0 0 0 -0.0725821 -0.0469303 -0.0232546 -3.91452 0.0182798 8.08792 1.00491 -0.960667 -0.00897382 0.04 
857 1 1 -0.53113 -0.350098 -0.96024 0 0 0 -0.0880566 -0.0440824 0.05661 3.86662 2.94315 1.60333 0.864095 -1.89828 0.380814 0.04 
92 1 1 -0.40175 -0.361808 -0.960427 0 0 0 -0.026958 -0.00489229 -0.0142381 -9.35836 1.56475 6.0243 -0.0271362 0.491447 1.39906 0.04 
1124 1 1 -0.263671 -0.355766 -0.960266 0 0 0 0.00272202 0.034581 0.0207029 0.620326 -5.96391 0.410849 -0.0895063 0.213193 -0.101236 0.04 
868 1 1 -0.189363 -0.386404 -0.960474 0 0 0 0.0759858 -0.0112122 -0.0516015 6.40522 1.76137 -1.36688 0.290388 0.835706 -0.449832 0.04 
1223 1 1 -0.0215574 -0.368722 -0.960117 0 0 0 0.0275371 0.00115515 -0.0125857 -0.826803 -0.0613049 0.099379 -0.238885 -0.352243 -0.204486 0.04 
144 1 1 0.0549915 -0.345521 -0.960185 0 0 0 0.0301552 -0.0340222 -0.00622097 -2.94737 0.42399 -6.06597 0.43913 0.545114 -1.35524 0.04 
315 1 1 0.171159 -0.361133 -0.96039 0 0 0 0.0474904 -0.0526502 -0.0352976 9.84337 1.13605 11.9552 0.302868 -1.0015 1.11736 0.04 
1187 1 1 0.250583 -0.349226 -0.960362 0 0 0 -0.0552055 -0.0312401 0.00216428 -0.331513 2.29096 -14.143 0.694793 -1.10324 -0.0335639 0.04 
220 1 1 0.330443 -0.335109 -0.960256 0 0 0 0.025279 -0.00293614 0.00979721 -3.77234 -2.89528 7.3158 0.382803 -0.57045 0.0649166 0.04 
845 1 1 0.383168 -0.395191 -0.960206 0 0 0 -0.0176094 -0.0188144 -0.0303145 1.25899 3.77092 -2.32972 -0.95825 -0.177409 1.54387 0.04 
677 1 1 0.462909 -0.386812 -0.960154 0 0 0 -0.0386104 -0.0457668 -0.00298181 -6.07936 -7.31281 2.28448 -1.07947 -0.294254 -1.97054 0.04 
981 1 1 0.554529 -0.388534 -0.960226 0 0 0 0.0974026 0.0474072 -0.000310898 0.344907 0.907283 0.779262 -0.894625 0.944054 0.342633 0.04 
361 1 1 0.630538 -0.362922 -0.960393 0 0 0 0.0560302 0.00993448 -0.0337209 -13.0984 15.2875 8.5407 0.316081 1.14521 -0.889367 0.04 
764 1 1 0.720509 -0.347136 -0.959936 0 0 0 -0.0350274 0.00970102 -0.0249614 -3.70379 -6.6974 -16.8389 -0.371984 0.630362 -0.363794 0.04 
499 1 1 0.801546 -0.342983 -0.960113 0 0 0 0.045588 -0.0253995 -0.0285619 -4.95339 -4.2633 -0.409377 0.95604 0.803778 -0.225668 0.04 
398 1 1 0.874462 -0.376175 -0.960434 0 0 0 0.0668893 0.0373411 0.00909009 0.722901 0.620612 16.2659 -0.20348 1.34736 1.41957 0.04 
975 1 1 0.952321 -0.351076 -0.960193 0 0 0 -0.0123749 0.00271371 0.0361375 0.921163 7.75909 -6.31135 -0.202279 0.220687 -0.0208112 0.04 
982 1 1 -0.960378 -0.329495 -0.960123 0 0 0 -0.0246632 -0.118304 -0.000792881 10.9366 -3.15401 -0.670567 0.58898 0.240903 -0.209179 0.04 
995 1 1 -0.890996 -0.290325 -0.960482 0 0 0 0.00277096 -0.0593965 -0.0164616 0.364963 6.19282 1.97635 0.433312 0.710577 -0.385041 0.04 
1215 1 1 -0.821138 -0.331014 -0.958937 0 0 0 -0.0607546 -0.080636 -0.108274 -10.0653 -4.03179 -8.56396 0.804852 0.195864 0.0292404 0.04 
76 1 1 -0.752031 -0.291526 -0.960228 0 0 0 0.000491267 -0.0741724 0.076304 3.4211 2.14482 3.64986 1.7838 0.0805333 0.0317255 0.04 
969 1 1 -0.681512 -0.332006 -0.960159 0 0 0 -0.0697047 -0.0767722 -0.027645 -0.929331 2.11399 -2.65201 1.35761 -0.870623 -0.0936935 0.04 
230 1 1 -0.601793 -0.310197 -0.960245 0 0 0 -0.0894926 -0.0371528 0.00845127 -1.34641 -0.740388 -3.05825 0.902455 -1.91595 -0.130969 0.04 
116 1 1 -0.465392 -0.303881 -0.960233 0 0 0 -0.0337403 -0.0494051 -0.00946231 -12.0183 -5.15142 1.20383 -0.456935 -0.413061 -0.0533188 0.04 
978 1 1 -0.349985 -0.301242 -0.960289 0 0 0 -0.0080958 0.0843799 -0.0296266 -3.05977 0.558808 0.322631 0.217276 -0.753379 0.516705 0.04 
1155 1 1 -0.274111 -0.276588 -0.960445 0 0 0 0.00369426 0.0218143 -0.00533718 2.83449 0.777749 4.14945 -0.473699 -0.203301 0.212818 0.04 
1214 1 1 -0.200167 -0.307409 -0.960161 0 0 0 -0.00235022 -0.00999432 0.00486972 1.50649 2.26317 -1.66745 -0.116245 0.313693 0.237194 0.04 
1010 1 1 -0.123837 -0.330696 -0.960278 0 0 0 -0.00714531 -0.0143212 0.00113367 3.81931 -3.88707 -0.359164 -0.238635 -0.0142916 0.0170425 0.04 
201 1 1 -0.0525154 -0.29458 -0.960311 0 0 0 1.66682e-05 0.0387644 -0.0174167 2.65565 -0.474173 6.58739 -0.861649 -0.265628 0.789786 0.04 
1062 1 1 0.028864 -0.269804 -0.959992 0 0 0 0.0463303 -0.0423653 0.0197483 0.643374 -2.04395 -6.56696 -0.615968 0.272503 1.28108 0.04 
404 1 1 0.118561 -0.296843 -0.960121 0 0 0 -0.0182392 0.0549941 -0.00749371 -0.290051 -0.181519 0.26862 -1.08672 -0.920352 0.205787 0.04 
1216 1 1 0.200794 -0.287029 -0.960095 0 0 0 -0.0700811 -0.0322922 -0.00604434 -0.329197 3.18421 -0.200604 0.294735 -0.815521 0.152202 0.04 
780 1 1 0.279544 -0.273414 -0.96029 0 0 0 -0.0540537 -0.0563511 -0.000159947 5.41225 -3.80925 4.33428 0.709077 -0.544248 -0.454784 0.04 
624 1 1 0.430614 -0.300461 -0.960227 0 0 0 0.0982415 0.077616 0.00127127 6.31638 -4.67987 5.86356 1.21134 0.549895 1.34216 0.04 
309 1 1 0.50991 -0.322399 -0.960605 0 0 0 -0.059992 -0.0852964 0.0282922 -5.67281 -1.29059 21.12 0.514241 -0.72514 0.701949 0.04 
1074 1 1 0.58441 -0.294109 -0.960722 0 0 0 0.00818123 -0.146317 -0.00541707 18.9305 -0.0214505 5.40584 1.5676 -0.881121 0.356964 0.04 
342 1 1 0.664105 -0.290056 -0.960242 0 0 0 0.0359675 -0.100345 -0.0250693 -0.211474 -9.69733 6.53067 -0.362028 -1.44117 1.72627 0.04 