ITEM: TIMESTEP
54400
ITEM: NUMBER OF ATOMS
1500
ITEM: BOX BOUNDS ff ff ff
-1 1
-1 1
-1 1
ITEM: ATOMS id type type x y z ix iy iz vx vy vz fx fy fz omegax omegay omegaz radius 
137 1 1 -0.960198 -0.958906 -0.960044 0 0 0 0.0401135 -0.0332824 0.0655329 1.97903 -14.267 -6.64097 1.29017 -0.595957 -1.21479 0.04 
5 1 1 -0.871045 -0.956237 -0.960781 0 0 0 -0.143724 0.0488522 -0.184152 -18.869 0.641978 -1.17982 -0.985641 1.22 -0.527166 0.04 
239 1 1 -0.788423 -0.957455 -0.959896 0 0 0 0.216332 0.161118 -0.0945047 -13.34 -1.00306 -7.32193 1.30823 -0.496716 -0.950322 0.04 
34 1 1 -0.70887 -0.954037 -0.959863 0 0 0 0.158892 -0.0303844 0.00266613 33.6664 -9.09638 -44.8735 -2.42352 1.00147 -2.31242 0.04 
415 1 1 -0.624706 -0.960289 -0.960039 0 0 0 0.127934 0.112009 -0.00672039 -0.683719 14.562 -4.07457 0.269395 3.23391 -2.22705 0.04 
138 1 1 -0.531881 -0.957808 -0.960736 0 0 0 -0.135747 0.0098576 0.368439 25.627 -25.1724 -12.8942 -1.06563 -0.946236 -2.53652 0.04 
323 1 1 -0.436756 -0.959169 -0.959963 0 0 0 -0.152736 -0.295526 0.0571245 0 0 -6.57473 0.221323 -2.51098 -3.12956 0.04 
130 1 1 -0.355399 -0.960296 -0.96018 0 0 0 -0.10331 -0.0200011 0.0137067 -16.2761 15.7988 1.22347 0.383781 -0.73198 1.31028 0.04 
502 1 1 -0.275867 -0.959628 -0.960028 0 0 0 -0.0880156 0.0211674 0.0245867 9.94589 -12.1447 -16.2593 -0.3402 -1.18383 0.56465 0.04 
494 1 1 -0.164152 -0.960003 -0.960238 0 0 0 -0.0721573 0.0187885 0.00828178 -10.7843 -1.27496 -9.8872 0.190503 -1.11712 0.991706 0.04 
448 1 1 -0.0843247 -0.959814 -0.96007 0 0 0 -0.128535 0.00550657 0.00892504 2.53507 0.233961 -2.7393 -0.226097 0.406707 -0.824017 0.04 
147 1 1 -0.00447322 -0.960597 -0.960134 0 0 0 -0.00730987 -0.0303685 -0.0893825 0.863251 26.3129 2.69547 -1.20181 0.212291 -0.00293161 0.04 
218 1 1 0.0756871 -0.959726 -0.960334 0 0 0 0.00881682 0.023261 0.0172592 -1.23553 -1.1322 2.59235 -0.3189 0.408115 0.815097 0.04 
339 1 1 0.190813 -0.959305 -0.959853 0 0 0 -0.171084 0.125685 -0.0122684 0 0 -6.57473 0.983425 -1.53221 -1.0481 0.04 
341 1 1 0.312451 -0.96004 -0.960669 0 0 0 -0.161656 -0.0377923 0.0162222 3.74233 3.79705 28.0774 -2.00167 -0.425261 0.960216 0.04 
203 1 1 0.392588 -0.959667 -0.960007 0 0 0 -0.00717153 0.0150986 0.0281029 -0.000125229 -5.27227e-05 -6.57744 -0.162094 -0.690934 1.28495 0.04 
1019 1 1 0.474254 -0.96006 -0.960364 0 0 0 -0.0461576 -0.118177 0.193533 -7.75717 -11.5052 10.4903 1.52489 -0.39233 2.81499 0.04 
821 1 1 0.554741 -0.958431 -0.960461 0 0 0 0.0800322 0.115317 0.0827331 0.142278 -1.18334 16.9605 0.26482 0.863887 1.5816 0.04 
636 1 1 0.636597 -0.959332 -0.958766 0 0 0 0.115608 -0.11483 0.0248139 8.09176 -15.8065 -7.20572 -0.486701 0.54493 0.116412 0.04 
729 1 1 0.720211 -0.959472 -0.959858 0 0 0 0.0235436 -0.0295312 0.0045618 0 0 -6.57473 0.776619 0.580853 -0.408388 0.04 
503 1 1 0.800816 -0.960174 -0.960257 0 0 0 -0.0387852 0.0519803 -0.0131384 -4.26098 -3.91653 -0.733098 0.657187 -0.388218 3.33239 0.04 
424 1 1 0.880583 -0.958438 -0.953835 0 0 0 0.0385941 0.151172 -0.252345 -9.75547 -0.250576 -5.232 -1.67638 0.261953 -0.508361 0.04 
850 1 1 0.959983 -0.95771 -0.960965 0 0 0 0.12303 0.00897443 0.114091 9.19784 -0.859679 27.4323 0.0627871 0.37852 0.504442 0.04 
918 1 1 -0.919157 -0.890798 -0.958226 0 0 0 0.0196391 0.0785952 -0.386111 22.0673 -3.3433 -20.1084 1.28763 0.651871 2.92985 0.04 
246 1 1 -0.835505 -0.879862 -0.961088 0 0 0 0.10106 0.0769745 0.0130166 3.44211 -6.68419 -5.97268 -2.86075 1.08451 -0.731031 0.04 
586 1 1 -0.745438 -0.883052 -0.960131 0 0 0 0.0752279 0.0519501 -0.0162226 -2.28301 4.10016 0.858561 -0.918427 1.09543 -1.52124 0.04 
379 1 1 -0.66277 -0.888736 -0.95901 0 0 0 0.338347 0.109512 -0.0533077 0.905503 -1.75516 -6.633 0.591862 0.335528 -0.411833 0.04 
105 1 1 -0.578021 -0.89319 -0.960227 0 0 0 0.111322 0.0606159 -0.204898 -14.2097 17.8623 9.93154 -0.212469 1.26077 2.10368 0.04 
289 1 1 -0.482201 -0.89007 -0.961186 0 0 0 0.0116356 0.0538965 0.0586538 -2.42463 2.19021 58.7731 -3.51072 -2.07693 -2.18647 0.04 
345 1 1 -0.376349 -0.88073 -0.960646 0 0 0 -0.16506 -0.0371791 0.0092387 12.8517 -9.58206 7.09481 -0.965913 -1.36351 -2.44062 0.04 
209 1 1 -0.29455 -0.88219 -0.96025 0 0 0 -0.0639714 0.0402452 -0.0634297 -2.21482 15.0969 -3.59625 0.715762 -1.61277 0.716376 0.04 
647 1 1 -0.216587 -0.899472 -0.960017 0 0 0 -0.0727105 -0.0255366 0.0210705 5.20871 -0.8571 -5.87557 -0.442269 -0.676651 -0.0969748 0.04 
700 1 1 -0.128273 -0.884329 -0.959856 0 0 0 0.14213 -0.177362 0.0236952 -0.752291 0.0391692 -6.54812 1.42095 1.39329 -0.239345 0.04 
616 1 1 -0.0483675 -0.887806 -0.960206 0 0 0 0.135492 -0.0654626 0.059412 0.329201 0.269258 4.06838 0.412677 1.68577 1.97589 0.04 
87 1 1 0.0324866 -0.890283 -0.95305 0 0 0 0.0440984 0.0276262 -0.431987 8.75513 -5.07026 -3.43328 2.19905 -0.0912448 0.688609 0.04 
655 1 1 0.132895 -0.90376 -0.960482 0 0 0 -0.086092 0.0823059 0.0407642 2.34093 2.0927 11.5939 -1.21054 -1.29348 -1.63968 0.04 
19 1 1 0.258462 -0.89984 -0.960145 0 0 0 -0.0948527 0.120268 0.0236255 0.162251 -0.354194 1.21703 -0.608029 -1.27436 -2.63051 0.04 
443 1 1 0.345173 -0.884778 -0.960123 0 0 0 -0.103326 0.253745 -0.0391153 0.359849 -0.338457 0.359244 -1.01671 -1.70741 1.61054 0.04 
664 1 1 0.43174 -0.888793 -0.960255 0 0 0 -0.109074 0.26107 -0.00127612 -2.46782 -8.60141 -6.02503 -0.931157 -0.725429 -0.11935 0.04 
396 1 1 0.512228 -0.890279 -0.958914 0 0 0 -0.0882033 0.0573607 0.359637 8.21854 17.0486 -6.06082 2.48983 -2.32628 1.55388 0.04 
74 1 1 0.599887 -0.88884 -0.959874 0 0 0 0.164765 0.0841893 -0.241833 -59.2291 13.1031 -5.97545 0.0776084 -3.9426 -4.39025 0.04 
50 1 1 0.678142 -0.880776 -0.959585 0 0 0 -0.119302 -0.0623671 -0.127588 43.5697 0.560141 -33.9294 -0.555942 0.414882 -0.393647 0.04 
812 1 1 0.879179 -0.878578 -0.960499 0 0 0 -0.0544271 0.0586744 0.042153 12.7338 -19.0472 0.766499 0.00700453 -0.0315086 0.174436 0.04 
417 1 1 0.95999 -0.870973 -0.959446 0 0 0 -0.00915456 0.112282 0.615999 0 0 -6.57473 -2.96428 0.92789 0.425157 0.04 
352 1 1 -0.88796 -0.818132 -0.9353 0 0 0 0.0802247 0.0801831 -0.0078927 20.1208 5.52309 -12.7073 2.77521 -6.40317 2.50923 0.04 
960 1 1 -0.684532 -0.811807 -0.958668 0 0 0 0.0333157 -0.0355858 -0.00216202 -17.7513 -2.78985 -5.41636 1.94716 5.00999 1.12399 0.04 
380 1 1 -0.531829 -0.814009 -0.960074 0 0 0 0.252025 0.0783141 0.00331731 -1.52744 -8.87902 -13.5613 -3.3393 0.265492 0.276939 0.04 
52 1 1 -0.451135 -0.815098 -0.960176 0 0 0 -0.00813083 0.0501186 -0.0590889 -26.8429 -24.672 -17.104 -1.28843 0.197678 -1.26774 0.04 
720 1 1 -0.233326 -0.821085 -0.957407 0 0 0 -0.101651 0.00951074 -0.702128 -6.65519 -15.4721 -5.13128 -3.61206 3.03827 0.0331803 0.04 
161 1 1 -0.154578 -0.807884 -0.960267 0 0 0 0.030706 -0.0409074 -0.653482 1.9157 -0.364592 16.5758 4.27138 -3.33364 -2.98325 0.04 
385 1 1 -0.0743176 -0.802184 -0.960095 0 0 0 0.050129 0.120562 0.0711795 3.56531 1.82889 -12.4953 -2.75419 -0.685981 2.74873 0.04 
827 1 1 0.00483697 -0.815956 -0.960202 0 0 0 -0.0015011 0.0425686 -0.120584 -5.94267 15.1116 -5.98551 -2.65611 0.696495 -0.18527 0.04 
784 1 1 0.0895937 -0.834269 -0.960242 0 0 0 -0.0973107 0.200962 0.0353801 1.30475 -0.516069 -5.20663 -2.30075 -0.86985 -2.92213 0.04 
211 1 1 0.171093 -0.827757 -0.960733 0 0 0 0.0233812 -0.0146757 -0.0280001 -1.24175 -2.93858 18.9775 0.0393962 0.78201 1.43338 0.04 
354 1 1 0.3097 -0.812305 -0.960276 0 0 0 -0.00660969 -0.026955 0.0515157 8.48451 -3.52969 -0.554093 -0.14767 -1.10037 -0.686686 0.04 
229 1 1 0.39177 -0.815843 -0.958573 0 0 0 0.0699512 0.106568 0.0185313 3.18637 -6.38162 -6.1318 -2.21557 0.73581 3.61918 0.04 
866 1 1 0.592555 -0.808839 -0.960436 0 0 0 0.00988537 -0.116403 -0.0241051 16.0944 0.412211 3.07852 -0.445722 1.96483 -1.52577 0.04 
554 1 1 0.81079 -0.83317 -0.957188 0 0 0 0.199158 0.0253356 -0.078791 -0.641912 -3.7407 -6.71571 -2.00598 0.583995 -2.17529 0.04 
446 1 1 -0.959099 -0.7774 -0.960146 0 0 0 0.0940188 -0.0718625 0.0761225 -0.262539 0.242675 0.575605 -1.44965 -1.16071 2.62475 0.04 
492 1 1 -0.855079 -0.735937 -0.960299 0 0 0 0.0277671 0.0265708 0.45822 -1.95125 3.55215 -42.2304 -0.716779 0.550316 -3.07419 0.04 
894 1 1 -0.774714 -0.783035 -0.959194 0 0 0 0.0124377 0.229639 -0.203748 0 0 -6.57473 -2.56815 2.66425 -1.09502 0.04 
290 1 1 -0.608383 -0.788823 -0.959668 0 0 0 -0.177129 0.0292295 -0.161644 17.2279 5.04137 -7.68572 -1.28217 1.08185 1.68518 0.04 
241 1 1 -0.479561 -0.740106 -0.958697 0 0 0 0.0355706 0.222098 0.0544712 0 0 -6.57473 -1.17379 -0.523677 2.9163 0.04 
480 1 1 -0.377391 -0.785455 -0.959752 0 0 0 -0.00621768 0.183709 -0.0959086 17.7181 6.12342 -6.34094 -2.07147 -1.48646 -2.04339 0.04 
402 1 1 -0.295774 -0.768385 -0.95984 0 0 0 -0.117002 0.139222 0.117848 0 0 -6.57473 -2.37405 -1.1326 -1.65036 0.04 
322 1 1 -0.213794 -0.743976 -0.959813 0 0 0 -0.0761693 0.0029708 0.142288 3.82517 15.1114 -7.82765 -0.493292 0.518705 -0.67916 0.04 
1122 1 1 0.0253507 -0.737771 -0.960022 0 0 0 -0.224584 0.176699 -0.0975796 7.05522 -12.4893 -20.5272 -2.88879 -1.50787 -1.32914 0.04 
773 1 1 0.113277 -0.756127 -0.960379 0 0 0 -0.0161743 0.116505 0.0558476 0.0926179 -1.01474 13.8044 -0.955413 -0.226397 1.10776 0.04 
725 1 1 0.212555 -0.753863 -0.960221 0 0 0 -0.130099 0.0667071 0.00317901 1.73407 -0.387075 4.55825 -2.12877 -2.40998 -1.69154 0.04 
159 1 1 0.353721 -0.74575 -0.960615 0 0 0 -0.164328 0.118803 -0.0953043 2.83348 12.3433 28.5384 -3.23069 -0.266783 -0.0987927 0.04 
688 1 1 0.467097 -0.783404 -0.958589 0 0 0 -0.211178 0.0172702 -0.215564 0 0 -6.57473 0.81551 -3.88535 0.454467 0.04 
519 1 1 0.666215 -0.736355 -0.960635 0 0 0 0.098783 0.134288 0.148068 -1.65629 -0.246537 26.9159 -3.12985 0.766766 1.67092 0.04 
742 1 1 0.725738 -0.794148 -0.957469 0 0 0 -0.175454 0.317194 0.119562 0 0 -6.57473 -3.85069 -3.08689 3.99104 0.04 
603 1 1 0.821804 -0.754287 -0.95111 0 0 0 0.160703 0.114445 -0.0358044 6.21986 3.81066 -28.4308 -1.14012 0.14513 0.124471 0.04 
972 1 1 0.959963 -0.787425 -0.959478 0 0 0 0.0289972 0.136083 -0.00558303 0 0 -6.57473 -3.21155 -0.128051 -1.85956 0.04 
488 1 1 -0.95941 -0.691679 -0.960957 0 0 0 -0.0130586 0.187308 -0.131501 -10.6802 14.514 24.254 -3.24398 -1.04556 -0.344384 0.04 
564 1 1 -0.744553 -0.708733 -0.957641 0 0 0 -0.224394 0.202134 -0.00924629 26.3552 -35.1879 -7.36467 -0.848782 -0.150091 3.10445 0.04 
314 1 1 -0.665973 -0.729097 -0.958013 0 0 0 -0.105597 0.0918807 -0.287573 0 0 -6.57473 -1.92965 -3.40027 4.76763 0.04 
1127 1 1 -0.558404 -0.726249 -0.960616 0 0 0 0.104339 0.0235055 -0.132782 13.4083 2.01001 8.84626 -0.0547047 1.44636 -0.758896 0.04 
85 1 1 -0.405159 -0.709902 -0.956456 0 0 0 -0.14592 -0.105573 0.155997 0 0 -6.57473 -2.72145 -0.552828 -0.39396 0.04 
511 1 1 -0.289959 -0.685054 -0.960412 0 0 0 0.217116 -0.0883243 -0.0931348 -40.9904 -9.11366 15.965 -0.0617765 -0.359765 -1.58283 0.04 
376 1 1 -0.135372 -0.726028 -0.959964 0 0 0 -0.120346 -0.0106883 -0.0687482 0 0 -6.57473 -1.35715 -1.19845 -0.119845 0.04 
204 1 1 -0.0547825 -0.710282 -0.959529 0 0 0 0.0804106 0.0575323 -0.117052 7.18688 2.45763 -19.7347 -3.12303 -0.350254 0.665214 0.04 
1088 1 1 0.126149 -0.672345 -0.960445 0 0 0 -0.167894 0.0778804 0.03919 1.20812 0.116657 17.7001 -2.28272 -0.858982 -1.09814 0.04 
862 1 1 0.206151 -0.672553 -0.960167 0 0 0 -0.0410828 -0.017456 0.0683773 -6.02068 3.30958 1.52027 -1.39221 -0.632805 -1.36659 0.04 
967 1 1 0.27843 -0.706331 -0.960146 0 0 0 0.0985351 -0.119951 0.0225485 5.88018 -2.57028 1.6236 -2.06256 -0.974106 0.0288438 0.04 
451 1 1 0.424687 -0.706273 -0.958951 0 0 0 -0.0357698 -0.0616579 0.00849187 0.680027 -9.2326 -6.05698 -0.607272 -0.950915 1.50393 0.04 
177 1 1 0.506639 -0.699159 -0.957823 0 0 0 0.00405317 0.209806 -0.030923 -12.9766 -13.5175 -23.9721 -1.53464 -1.38968 -0.482542 0.04 
757 1 1 0.58169 -0.72904 -0.953958 0 0 0 0.100199 -0.0362435 0.529968 0 0 -6.57473 2.39855 -0.704488 2.23352 0.04 
439 1 1 0.748758 -0.715527 -0.959351 0 0 0 0.329703 -0.0641626 -0.100619 0 0 -6.57473 -0.961161 1.43422 -1.51296 0.04 
662 1 1 0.818058 -0.670564 -0.954756 0 0 0 0.138189 0.26452 0.0457388 -3.90515 -2.01313 -6.22144 -1.38786 3.15701 -1.37435 0.04 
188 1 1 0.897932 -0.728812 -0.960777 0 0 0 0.029136 0.136705 -0.0449713 -3.46887 -3.9655 20.9915 -0.477245 -1.48376 -0.357986 0.04 
987 1 1 0.960079 -0.678898 -0.959353 0 0 0 -0.054369 0.23798 -0.0174459 5.88389 2.17791 -14.1783 -3.14097 0.46995 -4.73772 0.04 
260 1 1 -0.959773 -0.597418 -0.959608 0 0 0 0.0680929 0.205962 0.0151497 -2.17427 -5.85771 -20.6973 -2.23674 -0.0327778 0.0376484 0.04 
532 1 1 -0.878741 -0.658105 -0.960414 0 0 0 -0.0837042 0.0626781 -0.199079 -21.7053 1.93345 -26.7664 -1.27635 1.12848 3.76645 0.04 
826 1 1 -0.789836 -0.644149 -0.960181 0 0 0 0.209644 -0.128728 -0.295065 -26.7673 35.3281 7.51338 -1.8656 0.0453022 -2.11505 0.04 
567 1 1 -0.7014 -0.640369 -0.959808 0 0 0 0.00152255 0.159695 -0.253082 0 0 -6.57473 -1.37793 -0.486786 -4.14069 0.04 
170 1 1 -0.533127 -0.649761 -0.95982 0 0 0 0.286652 0.198417 0.00150375 0 0 -6.57473 0.892834 -0.97011 -1.80935 0.04 
375 1 1 -0.442218 -0.636885 -0.960082 0 0 0 -0.035054 -0.0160167 0.0171078 0.167819 0.136064 -2.25377 -1.79999 1.83719 0.442947 0.04 
709 1 1 -0.356075 -0.633823 -0.960331 0 0 0 0.273701 0.050567 0.0147561 -4.49981 -2.01296 2.42946 -1.2849 0.428709 -0.7359 0.04 
631 1 1 -0.275432 -0.599538 -0.959482 0 0 0 -0.0714063 0.0840043 -0.205526 -0.0159171 0.652739 -5.70445 -3.61289 0.558915 3.18446 0.04 
873 1 1 -0.214097 -0.663492 -0.959385 0 0 0 0.215628 0.158789 -0.250813 31.5347 12.7208 -15.1352 -1.53206 -1.54099 -0.532043 0.04 
738 1 1 -0.120657 -0.645885 -0.959896 0 0 0 -0.125302 0.148007 0.109211 0 0 -6.57473 -2.10271 -2.75801 0.77205 0.04 
1046 1 1 -0.0284726 -0.634616 -0.958316 0 0 0 -0.315587 0.105998 -0.0492797 -8.24764 -0.776463 -6.15241 -2.47474 1.71681 2.04044 0.04 
581 1 1 0.0471145 -0.659524 -0.960495 0 0 0 -0.134034 0.106176 -0.101994 18.805 -2.43897 16.0791 -1.38461 0.526427 -1.32154 0.04 
61 1 1 0.168256 -0.601399 -0.961171 0 0 0 -0.0268247 0.152702 -0.155444 11.8526 -12.3825 53.9274 -0.677171 -0.421663 0.49111 0.04 
1052 1 1 0.26936 -0.622481 -0.960254 0 0 0 0.00295038 0.0714966 0.100532 -10.7123 -16.3372 3.1781 -1.08903 -0.101666 2.38061 0.04 
656 1 1 0.3464 -0.663768 -0.959681 0 0 0 -0.111938 0.157617 0.0315882 -8.51507 -1.68174 -10.842 -3.07867 -2.30023 0.827253 0.04 
1082 1 1 0.417177 -0.626902 -0.959783 0 0 0 -0.119861 0.0224495 0.0103219 6.04292 13.132 -6.9401 0.0236193 -0.689801 0.128546 0.04 
255 1 1 0.497122 -0.618364 -0.960607 0 0 0 -0.0321373 0.0740962 0.139094 -0.536769 1.50959 25.469 -2.67146 -1.09568 -0.754308 0.04 
1026 1 1 0.575978 -0.601159 -0.960123 0 0 0 -0.0558125 0.0153691 0.016532 -2.23831 -0.551677 -3.77591 -0.638502 -0.123304 -1.46253 0.04 
880 1 1 0.631036 -0.661402 -0.960944 0 0 0 0.151086 0.0366873 0.0164129 -13.5865 3.19257 32.8811 -1.73534 0.96316 0.414492 0.04 
543 1 1 0.73979 -0.62902 -0.961566 0 0 0 0.0274339 -0.253748 -0.229148 2.77482 -18.5746 67.2978 0.198085 0.138455 1.51456 0.04 
553 1 1 0.890617 -0.637407 -0.959861 0 0 0 -0.0491331 -0.0257691 0.0134947 -2.34088 -1.52222 -6.65737 -1.64402 -0.439977 3.90941 0.04 
990 1 1 -0.884061 -0.571302 -0.960483 0 0 0 -0.0893322 -0.0145887 -0.133531 -17.5044 -19.8539 13.8932 -1.7091 -0.930014 -0.329126 0.04 
1152 1 1 -0.748515 -0.573643 -0.960154 0 0 0 -0.279966 -0.341171 -0.0130345 3.93093 -3.99667 -0.318265 1.51406 -1.08588 0.569366 0.04 
925 1 1 -0.632509 -0.591868 -0.960905 0 0 0 0.160801 0.254641 0.211546 7.72118 -33.8498 16.2303 -3.00175 1.54952 1.04177 0.04 
893 1 1 -0.546257 -0.569915 -0.960188 0 0 0 -0.101149 -0.097756 0.0801505 0.384669 0.274127 2.8723 -0.058001 0.984254 4.08026 0.04 
1448 1 1 -0.392916 -0.562497 -0.960114 0 0 0 0.163739 0.0390956 -0.104187 -0.372999 -0.0939385 1.1182 -0.245075 1.18599 1.36582 0.04 
962 1 1 -0.153072 -0.55341 -0.960484 0 0 0 -0.0723125 0.383065 0.0862972 5.95001 3.00366 14.397 -6.36007 0.320497 -0.322274 0.04 
950 1 1 -0.074721 -0.56955 -0.96023 0 0 0 -0.146974 0.0593403 -0.0131782 -5.78866 -0.189109 6.15149 -2.06955 -0.414042 -4.29873 0.04 
716 1 1 0.0143491 -0.565216 -0.959956 0 0 0 0.041475 -0.104367 0.196143 -15.9157 6.3731 -6.08681 3.345 2.34407 -1.8407 0.04 
388 1 1 0.0893846 -0.591623 -0.960128 0 0 0 0.0222448 0.028976 0.15518 -2.92274 -3.21166 -2.59765 -0.882885 1.35655 -0.381343 0.04 
867 1 1 0.206226 -0.531325 -0.960985 0 0 0 0.0665919 0.218923 -0.143574 0.416555 1.38532 42.1635 -1.8006 -0.0608323 -0.579729 0.04 
576 1 1 0.321642 -0.562536 -0.960156 0 0 0 0.000352205 0.0308501 0.00181208 17.0189 1.24697 3.33985 -0.779753 -1.39035 -1.32428 0.04 
408 1 1 0.400396 -0.548488 -0.960339 0 0 0 -0.152177 -0.124254 -0.0751526 1.93167 1.08694 13.3607 1.40665 -2.63751 0.518903 0.04 
814 1 1 0.498953 -0.538394 -0.959073 0 0 0 -0.257875 0.0839044 0.0260766 0 0 -6.57473 -1.13219 -5.2757 -0.471034 0.04 
1111 1 1 0.666777 -0.588985 -0.960727 0 0 0 -0.124737 -0.145982 -0.0226434 8.83107 2.52921 24.0306 1.20474 -1.6979 -0.560574 0.04 
1138 1 1 0.742969 -0.54992 -0.960224 0 0 0 -0.0354547 0.017779 0.152527 1.87069 9.67957 -9.31653 -0.619193 -1.41352 2.24852 0.04 
58 1 1 0.817404 -0.59035 -0.960595 0 0 0 0.00694041 0.0034905 -0.0578171 0.56895 -1.59737 27.3387 0.852054 0.509479 -1.88346 0.04 
1107 1 1 0.888209 -0.550573 -0.958862 0 0 0 -0.241338 0.258359 0.298285 -11.6755 -5.77994 -7.22019 -4.70838 0.282025 0.85493 0.04 
252 1 1 0.959112 -0.596524 -0.959332 0 0 0 0.00805572 0.20942 0.0182673 6.24603 3.53534 -6.84536 -2.45185 0.149173 -0.614276 0.04 
670 1 1 -0.959801 -0.503252 -0.959918 0 0 0 0.0790825 -0.000919655 0.0554768 0 0 -6.57473 -2.40221 -0.753228 1.46321 0.04 
565 1 1 -0.815864 -0.53062 -0.959938 0 0 0 0.0134307 -0.136872 0.0919274 14.6288 13.4563 -7.40906 -0.213223 0.318314 -0.190234 0.04 
1113 1 1 -0.681036 -0.531945 -0.943093 0 0 0 -0.4069 0.323217 -0.135891 -17.0909 22.5526 1.13551 -0.088849 -1.2467 2.88979 0.04 
435 1 1 -0.60119 -0.508042 -0.960353 0 0 0 0.0363085 0.0487302 0.000585672 -0.825262 -0.53249 13.0681 0.35124 -1.52905 -0.638575 0.04 
816 1 1 -0.488398 -0.49391 -0.960674 0 0 0 -0.0487614 0.214708 0.02466 17.3074 -0.389542 11.89 -1.64912 0.428271 0.8113 0.04 
344 1 1 -0.40939 -0.479546 -0.960357 0 0 0 0.0505025 0.0710663 0.0989116 0.780491 -0.644159 9.75058 -0.532909 0.608244 1.2062 0.04 
489 1 1 -0.327082 -0.505251 -0.959867 0 0 0 0.172163 0.110367 -0.014672 0.370106 0.0523065 -7.04004 -1.65075 0.70795 -0.734257 0.04 
883 1 1 -0.231154 -0.531133 -0.961234 0 0 0 0.0170277 0.0240627 -0.00358872 1.04052 -2.30754 39.4701 -2.03792 -0.870561 1.76244 0.04 
305 1 1 -0.176832 -0.473083 -0.959737 0 0 0 -0.05131 0.133814 0.0111848 12.2741 8.52604 -6.82626 -3.42751 -2.04458 0.176044 0.04 
1066 1 1 -0.0368324 -0.499325 -0.959355 0 0 0 0.174087 0.0656191 0.0495384 2.81071 5.54404 -6.77345 -0.554413 2.53106 0.211251 0.04 
143 1 1 0.07838 -0.511272 -0.960189 0 0 0 -0.00380919 0.0229414 0.0204835 -2.28587 1.49648 1.67971 -0.323274 2.36826 1.39695 0.04 
1346 1 1 0.151709 -0.471724 -0.957509 0 0 0 -0.0122739 0.0900469 0.0987008 0 0 -6.57473 -2.29891 0.307003 -0.0755479 0.04 
1000 1 1 0.278566 -0.495557 -0.960257 0 0 0 0.0888828 -0.0280468 -0.0113606 4.17676 -10.0266 -6.31067 -1.41649 0.669906 1.29621 0.04 
792 1 1 0.357248 -0.480993 -0.959962 0 0 0 -0.175628 0.13947 -0.079034 0 0 -6.57473 -0.494001 2.51287 -1.03136 0.04 
1361 1 1 0.439698 -0.476701 -0.959672 0 0 0 -0.132083 0.19179 -0.161645 0 0 -6.57473 -3.64868 -3.89575 -2.45427 0.04 
1288 1 1 0.595509 -0.523375 -0.958918 0 0 0 -0.0075182 0.0546246 -0.0151089 -10.2606 -3.0424 -6.82582 0.47671 0.507127 0.216927 0.04 
908 1 1 0.672699 -0.503401 -0.959887 0 0 0 -0.143378 -0.0148766 -0.123102 -8.96439 -16.4021 -23.3229 -2.31702 0.321076 0.411565 0.04 
1309 1 1 0.812064 -0.505518 -0.960772 0 0 0 -0.222455 0.156286 0.168001 -1.66969 2.25442 25.0516 -2.69685 -2.241 3.65157 0.04 
771 1 1 0.959949 -0.516033 -0.958801 0 0 0 -0.0688639 0.175334 -0.189815 11.6755 5.77994 -5.92926 -1.38461 -0.0276893 -2.50752 0.04 
1055 1 1 -0.960094 -0.412026 -0.959916 0 0 0 -0.103575 0.200141 0.147574 2.76371 1.99248 -7.00591 -2.23278 -0.414717 1.38586 0.04 
739 1 1 -0.8904 -0.451027 -0.959851 0 0 0 -0.0146484 0.206724 -0.136984 -2.33788 -4.49167 -34.4859 -2.28714 0.0648903 -3.98197 0.04 
1142 1 1 -0.820142 -0.410818 -0.960157 0 0 0 0.142873 0.0655435 0.0306428 -0.385367 -0.16354 1.79792 -0.704458 1.37007 0.150256 0.04 
644 1 1 -0.756089 -0.460628 -0.960754 0 0 0 -0.262421 -0.200368 -0.0670825 1.92933 -0.523125 33.7297 -0.00385011 2.36987 0.593772 0.04 
833 1 1 -0.671891 -0.453181 -0.9597 0 0 0 0.169103 0.167834 0.0416908 0 0 -6.57473 -1.29621 -0.174445 -0.919737 0.04 
620 1 1 -0.549792 -0.439362 -0.955841 0 0 0 0.183172 0.0491945 0.0855724 26.4202 -24.7926 -3.34161 -1.80628 0.171652 1.04102 0.04 
1316 1 1 -0.466325 -0.417204 -0.954067 0 0 0 -0.0597234 0.132477 0.114831 0 0 -6.57473 -0.184712 1.33034 -0.00493388 0.04 
247 1 1 -0.339282 -0.421356 -0.960393 0 0 0 0.193464 0.288773 0.00760709 22.8345 -21.2326 16.493 -0.92911 -0.0956092 4.42904 0.04 
382 1 1 -0.262156 -0.456871 -0.957751 0 0 0 -0.216127 0.0253763 -0.0858669 0 0 -6.57473 -0.497526 0.22245 2.26637 0.04 
1271 1 1 -0.0942985 -0.430459 -0.959822 0 0 0 0.175387 0.316552 0.0286141 -22.9468 -16.3366 -8.01712 -0.587807 -1.17729 -2.18405 0.04 
1249 1 1 0.0279277 -0.448989 -0.959242 0 0 0 -0.0406273 -0.0356134 0.230007 -0.122454 -1.04003 -7.97791 0.62156 -0.40123 -2.54797 0.04 
1030 1 1 0.100547 -0.407882 -0.959396 0 0 0 0.0422161 0.0301574 -0.0490737 0 0 -6.57473 -2.17018 1.25763 -1.58096 0.04 
1148 1 1 0.225653 -0.436676 -0.959692 0 0 0 0.0461141 0.056866 0.0383281 -15.2871 15.0701 -7.65591 -0.341378 1.77451 -1.40247 0.04 
772 1 1 0.304384 -0.418546 -0.959159 0 0 0 -0.155003 0.215524 -0.155456 8.92566 -9.84624 -7.14382 -1.47291 -0.77272 -1.33731 0.04 
845 1 1 0.387275 -0.405631 -0.960506 0 0 0 0.153889 0.101287 -0.301092 -1.60599 0.00801926 25.5456 -2.57269 -1.26566 -0.0740201 0.04 
1047 1 1 0.618674 -0.445133 -0.955019 0 0 0 0.062274 0.0132282 0.139075 -10.4713 10.9754 -6.37293 3.37555 1.94934 -3.2245 0.04 
1474 1 1 0.698102 -0.421653 -0.960489 0 0 0 -0.059506 0.0646286 -0.0482745 -6.19969 -0.440542 21.3674 -0.996013 -0.741667 -0.5528 0.04 
840 1 1 0.777829 -0.424789 -0.960365 0 0 0 0.0299967 0.0923543 -0.0415598 -0.518912 3.47938 3.68129 -1.29089 1.06078 -1.82353 0.04 
9 1 1 0.883036 -0.463326 -0.960142 0 0 0 -0.0402919 -0.244784 -0.0460392 0.140101 0.402698 1.95273 -1.36966 1.60024 -0.634006 0.04 
852 1 1 0.958418 -0.436037 -0.96065 0 0 0 -0.134804 0.307846 -0.231023 0.0762915 -1.95833 32.6216 -2.05039 -3.17396 2.35078 0.04 
326 1 1 -0.891056 -0.367632 -0.960281 0 0 0 0.0593747 0.0387756 -0.00138583 -6.71532 -8.46418 -5.74948 -1.15768 1.24034 -0.181676 0.04 
1246 1 1 -0.744065 -0.371637 -0.960105 0 0 0 -0.0804754 -0.139965 0.0109711 0.0928496 0.270407 -0.856647 -3.29453 0.319775 0.115437 0.04 
613 1 1 -0.608741 -0.386947 -0.959536 0 0 0 -0.113014 0.0433537 0.105891 -31.8593 24.2517 -17.808 -2.9583 0.194211 1.47416 0.04 
857 1 1 -0.524127 -0.35331 -0.960685 0 0 0 0.0592626 -0.0586982 -0.0887528 -1.04263 6.41954 17.0738 -2.67776 0.464181 -3.01809 0.04 
92 1 1 -0.400711 -0.37152 -0.96069 0 0 0 -0.173042 0.24077 0.0752694 -22.2831 18.9392 29.6131 -0.72943 0.21344 0.36579 0.04 
1124 1 1 -0.263069 -0.371736 -0.960679 0 0 0 0.112454 0.0891936 0.164406 -8.88727 8.37184 16.6564 -1.93509 1.28031 -1.7343 0.04 
868 1 1 -0.179994 -0.39327 -0.96083 0 0 0 -0.248932 0.160556 0.0567242 0.566501 3.87887 36.0957 -1.76121 -3.66938 1.16738 0.04 
1010 1 1 -0.108701 -0.348037 -0.959816 0 0 0 0.021274 -0.0247593 0.0288454 -1.58265 2.15764 -11.1809 0.567124 0.697461 -1.62001 0.04 
1223 1 1 -0.0288145 -0.385736 -0.959413 0 0 0 0.00467939 -0.00922227 -0.178162 22.8696 11.4647 -5.0149 0.977251 -1.44724 1.0434 0.04 
144 1 1 0.0435686 -0.35007 -0.960046 0 0 0 -0.140189 -0.0847482 0.0379377 2.26256 5.62122 -13.9129 -0.338396 -2.70093 0.641126 0.04 
315 1 1 0.174691 -0.375335 -0.960193 0 0 0 -0.0236283 0.0990104 0.00484357 -5.47628 6.45289 4.00613 -1.61877 -1.08551 1.47626 0.04 
1187 1 1 0.252775 -0.357836 -0.958817 0 0 0 0.0351911 0.0931026 -0.240897 -8.92566 9.84624 -6.00563 -0.41259 0.895076 0.327677 0.04 
677 1 1 0.468396 -0.394187 -0.960097 0 0 0 0.255229 -0.0165273 0.274109 -22.5762 -13.4137 -34.3605 -1.84393 3.20294 -0.258096 0.04 
981 1 1 0.549117 -0.400044 -0.959856 0 0 0 0.0332057 -0.228652 0.0941993 1.32731 10.2821 -11.4901 0.787413 0.316771 -1.55629 0.04 
361 1 1 0.633222 -0.366153 -0.958456 0 0 0 -0.0588235 0.18817 -0.0431881 0 0 -6.57473 -2.15897 -2.10181 3.40056 0.04 
499 1 1 0.791356 -0.345626 -0.960381 0 0 0 0.0895252 -0.0056579 0.0231609 -5.71485 -3.88628 14.5617 -0.503858 2.24659 0.22137 0.04 
398 1 1 0.862084 -0.385965 -0.96105 0 0 0 0.152322 -0.00882072 0.108002 -2.17851 1.84462 50.5164 -2.31434 0.861951 0.710841 0.04 
975 1 1 0.938427 -0.356579 -0.960741 0 0 0 0.395975 0.27771 -0.00124399 7.43933 17.607 8.38323 -2.2541 2.19982 0.841185 0.04 
982 1 1 -0.960232 -0.326249 -0.960508 0 0 0 0.0378042 -0.0179299 -0.0719451 12.9376 -4.99506 15.3387 0.616359 0.797044 0.170535 0.04 
995 1 1 -0.885203 -0.285872 -0.960662 0 0 0 -0.073326 -0.118672 0.0695731 -4.04502 -5.27608 10.7661 1.82887 0.425655 0.774709 0.04 
1215 1 1 -0.818868 -0.330067 -0.959988 0 0 0 0.136821 -0.00898744 -0.0455925 -2.9105 -5.71068 -19.8362 -0.822255 -0.406833 0.619745 0.04 
76 1 1 -0.750104 -0.289288 -0.95992 0 0 0 -0.046705 0.229455 -0.0269914 -8.59289 -6.43044 -6.27039 0.0220677 -0.996474 1.42929 0.04 
969 1 1 -0.670042 -0.328596 -0.960556 0 0 0 -0.0572976 0.138113 0.101478 -2.71676 19.1207 -7.49977 -1.73428 0.262933 0.0335222 0.04 
230 1 1 -0.590151 -0.307295 -0.960165 0 0 0 -0.0855285 -0.0988892 -0.0579168 18.7927 -29.3478 -12.5027 -0.587817 1.37327 -0.128083 0.04 
116 1 1 -0.45677 -0.303117 -0.960418 0 0 0 0.1158 0.0467869 -0.116527 -13.0596 1.213 5.18563 -2.47635 -1.10835 2.04073 0.04 
978 1 1 -0.349725 -0.308812 -0.960225 0 0 0 0.136204 0.06753 -0.0346142 -11.9524 -5.03757 6.55138 -2.08635 -0.966052 0.8394 0.04 
1155 1 1 -0.272534 -0.289155 -0.960189 0 0 0 0.0145287 0.195615 -0.0227295 18.5494 -11.8995 4.52783 -1.699 0.706496 -0.52841 0.04 
1214 1 1 -0.196446 -0.313213 -0.959208 0 0 0 -0.093471 0.0247063 -0.126739 14.0026 -3.33869 -19.5886 -2.63257 -0.977587 -4.12136 0.04 
1451 1 1 -0.117623 -0.265725 -0.960202 0 0 0 -0.0835713 -0.0993442 -0.0408051 -9.836 -9.76252 2.19214 -1.47035 0.599677 -1.21529 0.04 
201 1 1 -0.0311346 -0.305881 -0.959584 0 0 0 -0.112123 -0.118737 -0.0723815 0.0771534 4.87195 -6.69216 0.279528 0.333287 -1.00082 0.04 
1062 1 1 0.0432284 -0.27025 -0.955301 0 0 0 0.0007141 -0.0921849 -0.164161 3.52907 -5.80642 -5.4593 0.515376 -2.10451 0.0143696 0.04 
404 1 1 0.130728 -0.306345 -0.95992 0 0 0 -0.04576 0.083725 0.0671278 -0.905518 -24.3687 -31.912 -1.47855 0.65721 -0.741785 0.04 
1216 1 1 0.208774 -0.289415 -0.960178 0 0 0 0.0183417 0.222917 -0.0992098 11.6072 -13.8447 5.47748 -1.63458 0.896147 1.58473 0.04 
780 1 1 0.295997 -0.275492 -0.959132 0 0 0 0.0429283 0.0682133 0.000995175 9.22319 9.15586 -31.8829 1.09541 1.15362 -3.33906 0.04 
220 1 1 0.354491 -0.330383 -0.959968 0 0 0 0.04529 -0.0473092 -0.0174972 1.21093 3.85123 -11.5201 -1.35601 -0.909288 -0.612222 0.04 
624 1 1 0.440454 -0.294426 -0.960208 0 0 0 -0.203392 0.0293641 0.136822 1.87588 -0.886762 3.3487 -0.360576 -2.00429 -0.898225 0.04 
309 1 1 0.51223 -0.329274 -0.949515 0 0 0 -0.167083 0.0271562 -0.0790786 15.612 27.0237 -0.496284 0.907091 0.914934 1.9563 0.04 
1074 1 1 0.585035 -0.29688 -0.953735 0 0 0 -0.181178 0.279824 -0.107764 3.31727 1.0795 -6.45059 5.69756 0.668025 1.97006 0.04 
764 1 1 0.709263 -0.326785 -0.959824 0 0 0 0.0903006 0.0110021 0.0707998 -0.018115 0.0208024 -6.57585 -0.206515 -0.686581 1.26515 0.04 
1163 1 1 0.766825 -0.269449 -0.959144 0 0 0 0.193983 -0.0966998 0.070698 0 0 -6.57473 3.30645 0.942586 2.31318 0.04 
182 1 1 0.848457 -0.289861 -0.9607 0 0 0 0.00151137 -0.0243157 -0.0248252 8.63936 -0.379798 24.0877 -0.683831 -0.212125 -1.09053 0.04 
657 1 1 -0.960192 -0.24573 -0.960083 0 0 0 0.161463 -0.0444905 0.00664079 7.97445 -4.91309 -11.3674 0.345245 -0.752184 0.531863 0.04 
1056 1 1 -0.891078 -0.20384 -0.959469 0 0 0 0.0481706 -0.0434876 0.078476 -1.19468 17.5017 -36.6537 0.987764 1.63882 0.266104 0.04 
1279 1 1 -0.819537 -0.239317 -0.950835 0 0 0 0.0724106 0.0687029 0.0793005 0 0 -6.57473 -3.1664 0.422635 0.426351 0.04 
471 1 1 -0.750244 -0.199375 -0.95655 0 0 0 0.0014444 -0.171075 -0.304716 -5.71827 -14.4449 -57.8468 -2.08906 1.78753 2.05582 0.04 
905 1 1 -0.683077 -0.246165 -0.959768 0 0 0 -0.0428221 -0.26692 0.229367 11.6306 0.225417 -11.8586 -0.664545 0.737521 -0.333711 0.04 
1286 1 1 -0.60373 -0.229533 -0.960896 0 0 0 0.0800844 0.064278 0.126378 -8.57128 2.84032 -8.88947 -0.191663 1.6432 -1.93731 0.04 
1037 1 1 -0.522886 -0.257021 -0.960295 0 0 0 0.0167999 0.10753 0.171971 5.21009 18.8319 -20.5214 -0.757421 -0.520572 0.106769 0.04 
945 1 1 -0.464477 -0.19874 -0.95975 0 0 0 -0.028182 0.171014 0.0394942 3.06742 5.02654 -27.7182 -1.15347 0.739117 0.332014 0.04 
1205 1 1 -0.399859 -0.246587 -0.958607 0 0 0 -0.141432 -0.199986 0.00593914 -16.1322 -0.544469 -5.7938 0.129567 0.831823 1.14529 0.04 
710 1 1 -0.322626 -0.227493 -0.960227 0 0 0 -0.082334 0.100133 0.135782 2.35189 19.2921 2.66036 -2.65223 0.126017 0.0554977 0.04 
168 1 1 -0.212821 -0.234036 -0.959342 0 0 0 0.0895646 0.0149192 0.112689 -0.0290415 -0.372305 -6.94862 -0.848561 0.674734 -1.54487 0.04 
1348 1 1 -0.0734618 -0.199559 -0.961412 0 0 0 -0.0123754 0.00224612 0.146906 1.89773 1.74376 40.1238 -0.124429 0.0922654 2.44024 0.04 
1301 1 1 0.0940651 -0.208502 -0.960023 0 0 0 -0.0613715 -0.0480321 0.0128128 -3.43337 -5.17323 -9.21178 -0.794151 -1.18359 0.197149 0.04 
1201 1 1 0.173283 -0.218159 -0.959951 0 0 0 0.0320472 0.0312849 -0.0118155 -10.4297 3.41598 -21.3058 -0.602193 -1.34949 1.46704 0.04 
1139 1 1 0.254502 -0.200988 -0.959519 0 0 0 -0.0267962 0.0069439 0.0700372 10.3534 11.0286 -23.4833 0.515323 -1.41743 -2.85052 0.04 
1069 1 1 0.372432 -0.252402 -0.961295 0 0 0 -0.187485 -0.0142583 0.132239 8.91443 4.42307 49.8144 -0.573612 -1.52107 2.75253 0.04 