ITEM: TIMESTEP
22400
ITEM: NUMBER OF ATOMS
1448
ITEM: BOX BOUNDS ff ff ff
-1 1
-1 1
-1 1
ITEM: ATOMS id type type x y z ix iy iz vx vy vz fx fy fz omegax omegay omegaz radius 
137 1 1 -0.916281 -0.912874 -0.957998 0 0 0 0.378072 1.49304 0.566085 0 0 -6.57473 -18.0088 -0.971771 -8.381 0.04 
502 1 1 -0.209563 -0.949104 -0.946207 0 0 0 -0.21374 0.478358 -0.446727 0 0 -6.57473 1.05642 1.52846 4.8619 0.04 
341 1 1 0.347718 -0.935405 -0.954473 0 0 0 -0.389747 0.0719475 -0.263188 0 0 -6.57473 -2.01103 -10.5115 2.09251 0.04 
503 1 1 0.809893 -0.95561 -0.940883 0 0 0 -0.850417 1.74762 0.184809 0 0 -6.57473 12.2793 -0.717158 13.4721 0.04 
239 1 1 -0.839126 -0.853034 -0.939057 0 0 0 -0.48362 0.500977 0.492129 41.9397 -100.963 -11.7939 -0.37377 9.95659 -17.5548 0.04 
380 1 1 -0.522513 -0.866061 -0.961407 0 0 0 -0.796694 0.668184 -0.469199 3.70481 -2.0292 77.9079 -4.55766 2.44468 13.7357 0.04 
130 1 1 -0.383685 -0.875276 -0.949223 0 0 0 0.145394 -0.711297 -0.2265 -13.2607 -169.946 24.9729 -2.70544 6.66075 7.39557 0.04 
285 1 1 -0.223709 -0.861826 -0.96073 0 0 0 -0.104655 0.57041 0.328385 -1.72693 -0.578126 29.8479 -12.5253 -8.24317 2.20571 0.04 
421 1 1 -0.101632 -0.940934 -0.946907 0 0 0 0.970678 -1.39932 -0.184161 0 0 -6.57473 -8.49188 0.834129 21.1676 0.04 
19 1 1 0.233738 -0.948195 -0.948911 0 0 0 1.69925 -1.6276 -0.214594 0 0 -6.57473 -13.9113 0.201955 1.55403 0.04 
203 1 1 0.572452 -0.910686 -0.93105 0 0 0 -0.711856 -1.35734 1.28771 0 0 -6.57473 -13.3411 4.12169 14.7556 0.04 
488 1 1 -0.940029 -0.798899 -0.962604 0 0 0 -0.469096 -0.0456692 -0.171813 -87.0519 -22.8648 105.55 5.5928 0.30043 0.509371 0.04 
592 1 1 -0.713375 -0.833466 -0.940967 0 0 0 0.431021 -1.37156 0.328292 0 0 -6.57473 -13.6747 1.67102 2.83898 0.04 
242 1 1 -0.618808 -0.877139 -0.94364 0 0 0 -0.197364 -1.41915 0.724384 0 0 -6.57473 27.8781 -4.33306 1.88634 0.04 
402 1 1 -0.463772 -0.820086 -0.927711 0 0 0 -0.18507 0.582324 -1.19931 12.3183 114.315 -32.0765 -11.3137 10.2062 16.9349 0.04 
494 1 1 -0.105147 -0.837667 -0.957932 0 0 0 0.976506 1.01224 -0.220076 27.164 -127.769 -25.7327 3.61998 -10.8905 16.383 0.04 
385 1 1 -0.0162292 -0.838703 -0.958278 0 0 0 -1.32996 -1.27596 0.867024 0 0 -6.57473 20.3919 -10.5113 -3.55107 0.04 
1019 1 1 0.484959 -0.843105 -0.935421 0 0 0 -0.217325 -0.974802 0.283199 106.736 149.505 -77.6482 -7.86121 -9.04289 -1.57853 0.04 
554 1 1 0.874991 -0.855496 -0.933983 0 0 0 -0.509941 -1.50965 0.629536 -192.291 -28.9102 -97.9555 9.13302 15.0892 -9.98615 0.04 
379 1 1 -0.679072 -0.761045 -0.954853 0 0 0 2.77014 -0.287659 1.41236 0 0 -6.57473 3.73906 24.1712 15.7929 0.04 
322 1 1 -0.381325 -0.801542 -0.964538 0 0 0 0.39753 -0.878457 0.304275 17.7077 181.57 210.797 11.4856 15.815 -23.2051 0.04 
448 1 1 -0.117466 -0.762524 -0.948171 0 0 0 1.17743 -0.649952 -0.970323 -27.164 127.769 12.5833 -6.37082 17.5134 17.4442 0.04 
194 1 1 0.0724963 -0.788012 -0.929026 0 0 0 -0.447764 0.357774 0.475079 -14.4646 80.0392 -40.6203 23.9335 -6.04097 -4.90286 0.04 
218 1 1 0.159032 -0.718798 -0.941478 0 0 0 -0.678218 -0.551101 0.33559 -72.9676 -308.767 -45.5337 -5.16125 1.33309 0.345538 0.04 
159 1 1 0.419818 -0.779824 -0.951585 0 0 0 0.269363 -0.906293 -0.297443 -0.872249 39.2714 -101.282 -14.8333 -15.7924 -6.65018 0.04 
1 1 1 0.689462 -0.785528 -0.954361 0 0 0 -0.597085 0.506866 -0.232682 253.322 -238.042 -109.662 22.5696 -9.90369 8.99341 0.04 
729 1 1 0.776446 -0.793579 -0.959413 0 0 0 0.245505 -2.33399 -0.249265 0 0 -6.57473 -5.79336 14.8296 -23.3588 0.04 
682 1 1 0.850544 -0.776464 -0.933603 0 0 0 -1.43768 0.250177 0.619651 0 0 -6.57473 4.58379 -14.6807 10.1858 0.04 
290 1 1 -0.808623 -0.729508 -0.965201 0 0 0 2.28682 0.254095 -0.0771258 -14.5399 0.270484 284.274 -8.00396 -3.97082 -12.4759 0.04 
564 1 1 -0.696279 -0.63474 -0.93639 0 0 0 -1.21083 2.16261 1.11863 0 0 -6.57473 14.5564 -3.53335 -16.8568 0.04 
586 1 1 -0.567164 -0.702754 -0.963626 0 0 0 -0.347787 -0.722564 -0.0411446 -1.78712 9.9721 196.045 12.722 -10.1955 -28.6943 0.04 
161 1 1 -0.249491 -0.710492 -0.964947 0 0 0 -0.397438 0.182901 1.73571 0.229654 7.88787 246.626 -9.69829 -11.1051 2.29281 0.04 
656 1 1 0.257808 -0.707426 -0.912849 0 0 0 1.29248 0.0719522 1.75672 0 0 -6.57473 12.0152 10.3339 10.5019 0.04 
772 1 1 0.451062 -0.697764 -0.941306 0 0 0 1.01446 0.812639 0.584582 0 0 -6.57473 2.40916 40.33 -0.935688 0.04 
688 1 1 0.551192 -0.707541 -0.961528 0 0 0 1.65386 -1.13032 0.443385 -2.83471 2.77826 72.8086 -12.4101 0.0979877 -1.54043 0.04 
395 1 1 0.642276 -0.738225 -0.931652 0 0 0 0.681284 -1.48255 0.17014 -253.322 238.042 96.5127 -16.8661 3.85881 29.1268 0.04 
482 1 1 -0.771188 -0.641757 -0.900421 0 0 0 -1.29789 -0.713462 1.70914 0 0 -6.57473 6.36188 -15.1887 0.654359 0.04 
714 1 1 -0.323723 -0.682572 -0.938518 0 0 0 1.87636 -1.22807 -0.00943691 0 0 -6.57473 16.4333 8.96562 -7.62643 0.04 
384 1 1 -0.0341409 -0.671848 -0.958124 0 0 0 1.20272 -2.29741 1.22398 -204.421 43.2469 -187.867 -9.20205 -16.7653 -12.6483 0.04 
354 1 1 0.177919 -0.650999 -0.930618 0 0 0 0.368069 -0.472847 1.37189 166.641 215.012 -59.291 13.2665 -6.70308 -1.99579 0.04 
664 1 1 0.587569 -0.620285 -0.942409 0 0 0 -2.15546 -0.0579872 0.260382 0 0 -6.57473 6.45196 2.95821 4.60657 0.04 
279 1 1 0.670601 -0.587287 -0.963265 0 0 0 -1.17046 1.37779 -0.196238 0.897435 -9.18056 177.912 -6.25135 -27.5953 -10.9295 0.04 
631 1 1 -0.404781 -0.570084 -0.958997 0 0 0 1.43914 -1.66817 0.248612 0 0 -6.57473 16.3986 -3.84513 15.863 0.04 
675 1 1 -0.201953 -0.570596 -0.928228 0 0 0 0.861974 -1.81329 0.926385 0 0 -6.57473 9.16315 -10.86 17.6631 0.04 
616 1 1 0.00525914 -0.597783 -0.943555 0 0 0 -0.963233 -2.06173 1.61955 0 0 -6.57473 18.3112 -6.5841 1.10779 0.04 
845 1 1 0.334643 -0.56377 -0.957555 0 0 0 -0.887832 1.06717 2.41499 0 0 -6.57473 -25.4241 -17.7794 -4.71926 0.04 
840 1 1 0.873764 -0.590827 -0.960063 0 0 0 -2.41073 -0.559878 1.62507 -54.4481 -77.5569 -196.419 5.19116 0.343291 -1.85939 0.04 
532 1 1 -0.940973 -0.498682 -0.950466 0 0 0 0.889337 -0.276035 -0.864139 0 0 -6.57473 -3.98051 3.07069 -14.6044 0.04 
344 1 1 -0.523821 -0.490703 -0.949928 0 0 0 0.783214 0.320787 -0.0501229 12.952 21.7105 -7.63474 7.41259 -14.5849 2.28408 0.04 
201 1 1 -0.112466 -0.468895 -0.960164 0 0 0 0.953518 0.995883 -0.14339 -0.314814 -0.449829 4.40625 16.7136 -5.27027 14.0718 0.04 
784 1 1 0.114956 -0.525484 -0.944892 0 0 0 -0.182572 1.90823 1.27561 62.0667 -91.2161 -231.85 2.6769 -6.32616 0.741928 0.04 
297 1 1 0.219166 -0.477113 -0.954882 0 0 0 -0.253351 -0.154878 -0.917163 -155.049 42.4079 -172.524 1.64926 10.285 -2.44138 0.04 
561 1 1 0.425347 -0.561787 -0.96177 0 0 0 -0.0666038 -1.93403 0.08514 0.704126 4.8244 90.9355 7.05373 4.4845 -3.01602 0.04 
690 1 1 -0.724177 -0.466289 -0.931105 0 0 0 -1.62119 0.527434 -0.319323 12.3147 -28.96 -26.1061 -17.9019 -2.21365 12.8385 0.04 
1095 1 1 -0.315439 -0.419052 -0.952591 0 0 0 0.932338 -0.758326 1.98229 -28.7499 -37.1441 -12.3049 4.97429 18.9172 1.41151 0.04 
811 1 1 -0.21544 -0.447397 -0.951445 0 0 0 0.156148 -1.16253 1.19415 0 0 -6.57473 18.0885 -0.359461 12.1869 0.04 
277 1 1 -0.0537286 -0.410938 -0.953982 0 0 0 -0.880484 -0.651744 -0.953705 0 0 -6.57473 -2.65107 16.6399 6.53749 0.04 
752 1 1 0.162067 -0.41435 -0.954394 0 0 0 -0.386556 0.40352 1.64961 69.4474 -47.1627 -474.535 -8.05453 -10.2257 19.3206 0.04 
584 1 1 0.276788 -0.409461 -0.963477 0 0 0 1.6045 -0.233738 0.545586 -9.26507 1.13197 180.105 3.00923 16.555 1.80376 0.04 
981 1 1 0.500512 -0.44788 -0.940086 0 0 0 0.479612 -1.71118 -1.24098 0 0 -6.57473 -2.09648 19.7207 -23.5182 0.04 
312 1 1 -0.748277 -0.366056 -0.961836 0 0 0 -2.92199 0.453811 0.526843 4.69127 -0.881511 88.8926 6.3898 21.034 -14.6266 0.04 
857 1 1 -0.585217 -0.437006 -0.940876 0 0 0 0.250824 -3.13775 0.258411 16.1622 -21.4331 -30.3856 9.50424 0.540284 10.9649 0.04 
710 1 1 -0.468227 -0.39921 -0.952317 0 0 0 -0.373707 -0.920201 1.32787 0 0 -6.57473 19.1225 -5.93355 5.88424 0.04 
619 1 1 -0.269696 -0.355464 -0.945866 0 0 0 0.448944 0.318756 0.560877 28.7499 37.1441 -0.844549 10.7205 10.5551 -4.53178 0.04 
839 1 1 0.0676425 -0.365883 -0.960849 0 0 0 0.42098 1.1513 -1.62882 67.1344 125.39 -132.052 6.0231 16.4581 0.065797 0.04 
837 1 1 -0.95586 -0.312024 -0.957675 0 0 0 0.342008 -0.348026 -0.871706 0 0 -6.57473 15.5017 20.9273 -2.15877 0.04 
672 1 1 -0.58274 -0.25269 -0.951826 0 0 0 -0.157422 1.2473 0.725062 0 0 -6.57473 12.2052 12.8678 -11.9421 0.04 
618 1 1 -0.344447 -0.244334 -0.936159 0 0 0 0.917984 1.08971 0.325662 -40.0295 -204.351 -317.213 2.98478 -6.10449 8.07126 0.04 
800 1 1 -0.243998 -0.26454 -0.956795 0 0 0 -2.49529 -0.449441 -1.76709 0 0 -6.57473 3.59478 -1.46791 -5.19382 0.04 
807 1 1 -0.1369 -0.352757 -0.963556 0 0 0 -0.717497 -1.39405 0.388033 -0.28789 9.65332 186.578 17.1982 -19.366 1.61151 0.04 
759 1 1 -0.0371984 -0.311446 -0.95051 0 0 0 0.961569 1.46139 -0.388205 17.7312 -24.4538 -139.764 6.00708 -16.869 7.51286 0.04 
624 1 1 0.291662 -0.322529 -0.923245 0 0 0 -0.560343 -1.62372 2.83899 0 0 -6.57473 11.4309 -1.42059 21.0477 0.04 
1170 1 1 0.46567 -0.339287 -0.961167 0 0 0 -0.130692 0.113036 0.125694 2.42715 -2.03858 56.8189 12.2568 14.6918 -11.6299 0.04 
542 1 1 -0.437595 -0.261405 -0.965544 0 0 0 0.971555 -0.691957 0.641286 -12.4567 8.41411 294.069 -4.51267 -8.10252 2.34219 0.04 
798 1 1 -0.289934 -0.187041 -0.955554 0 0 0 -0.911169 1.45784 -1.27988 0 0 -6.57473 3.18995 6.9846 3.98223 0.04 
732 1 1 -0.114977 -0.259146 -0.953174 0 0 0 0.361011 -0.480092 -0.390879 -17.9186 -54.7961 -89.8074 21.6692 -17.0996 5.52786 0.04 
1044 1 1 -0.0386433 -0.176653 -0.952423 0 0 0 -0.525858 2.21359 -0.403304 -34.6885 -58.5155 -106.201 -5.81863 -26.3992 -14.7477 0.04 
911 1 1 0.264386 -0.187201 -0.95557 0 0 0 -2.53588 3.24661 -1.52008 76.6965 -147.509 -15.7404 21.2346 -7.01587 -18.8162 0.04 
208 1 1 0.381224 -0.168137 -0.958124 0 0 0 -1.89946 2.17745 0.76297 0 0 -6.57473 6.26747 -1.66765 -12.0221 0.04 
756 1 1 0.610419 -0.230218 -0.951201 0 0 0 -2.32822 -0.992212 1.26549 0 0 -6.57473 -7.0017 -24.3155 -18.671 0.04 
838 1 1 0.87775 -0.203432 -0.964307 0 0 0 0.654216 0.88068 0.587855 -5.23695 -10.3741 225.845 25.6092 -7.38454 12.7306 0.04 
569 1 1 0.956384 -0.255642 -0.937905 0 0 0 -0.145605 -0.28123 1.59626 0 0 -6.57473 -1.85715 -3.70905 -19.2031 0.04 
524 1 1 -0.741651 -0.20646 -0.950084 0 0 0 -0.0982613 -1.52998 1.00215 0 0 -6.57473 13.8802 10.0266 -18.379 0.04 
32 1 1 -0.493005 -0.16367 -0.94535 0 0 0 -1.04436 1.18317 -0.159526 0 0 -6.57473 -7.52331 0.878229 -0.621755 0.04 
651 1 1 -0.207932 -0.189346 -0.956346 0 0 0 1.13187 -0.322459 -0.769292 0 0 -6.57473 -3.35418 -11.2508 -9.64771 0.04 
724 1 1 0.108499 -0.172432 -0.946769 0 0 0 -0.571238 1.93763 2.18795 26.1617 26.8291 -12.6373 -14.6795 -33.2113 -5.07531 0.04 
389 1 1 -0.750791 -0.078313 -0.943853 0 0 0 -0.274664 -0.720359 1.75899 40.0241 -161.213 -15.4129 -30.3147 -17.8611 14.7719 0.04 
37 1 1 -0.564124 -0.0600294 -0.962611 0 0 0 0.149802 2.43428 -0.353741 -0.416803 -7.49212 143.499 6.37473 0.0168467 -7.51206 0.04 
774 1 1 -0.486669 -0.0748775 -0.939085 0 0 0 0.429934 1.78544 0.188731 0 0 -6.57473 15.0548 -1.95033 -4.63304 0.04 
809 1 1 -0.184134 -0.0929724 -0.940851 0 0 0 -0.0653429 1.52881 -0.248092 0 0 -6.57473 -3.70852 -15.0023 -0.969281 0.04 
512 1 1 0.0773397 -0.0834041 -0.916452 0 0 0 2.77308 1.91107 0.526577 155.537 -61.6649 -41.3377 -15.3661 4.68594 3.30187 0.04 
697 1 1 0.140519 -0.0339811 -0.961818 0 0 0 -2.55681 2.33579 -0.805984 4.36378 -3.49229 105.208 -8.62104 -1.51804 8.91026 0.04 
240 1 1 0.568481 -0.0898619 -0.952807 0 0 0 -0.527498 0.622977 0.32104 0 0 -6.57473 2.07387 -25.1262 -3.34193 0.04 
954 1 1 0.75855 -0.0941565 -0.963542 0 0 0 0.187923 1.52314 2.34139 -0.214659 -8.34837 160.448 -17.9776 4.37776 -4.80817 0.04 
637 1 1 -0.426195 -0.0240457 -0.952117 0 0 0 -0.748065 0.932361 0.333188 0 0 -6.57473 -8.86834 -3.57244 -9.79426 0.04 
910 1 1 -0.520034 0.0282084 -0.953483 0 0 0 0.308271 0.574165 -0.715373 -49.2381 -72.6841 -61.3302 -0.918383 6.36641 0.807877 0.04 
749 1 1 0.23854 0.0370675 -0.895086 0 0 0 -2.04255 0.941798 2.87795 0 0 -6.57473 -6.47178 -14.5656 10.9325 0.04 
391 1 1 0.364513 0.107603 -0.95489 0 0 0 -0.152031 2.5294 -1.09307 0 0 -6.57473 -7.19324 -3.80142 8.48765 0.04 
589 1 1 0.461094 0.0277458 -0.95837 0 0 0 -0.84242 1.16338 2.33338 0 0 -6.57473 -7.95268 4.87326 -20.5645 0.04 
605 1 1 -0.356967 0.102726 -0.941434 0 0 0 -0.0300309 2.20279 -0.778745 -23.9743 52.6098 -17.429 -3.771 9.16183 -23.9999 0.04 
545 1 1 -0.257217 0.113449 -0.920891 0 0 0 -0.581314 -0.547907 0.917036 0 0 -6.57473 2.67623 -24.4952 -5.99581 0.04 
886 1 1 0.775858 0.145227 -0.956018 0 0 0 0.44196 0.989118 0.571727 0 0 -6.57473 -3.42796 19.0045 -3.54055 0.04 
111 1 1 -0.674233 0.235619 -0.936534 0 0 0 -0.683283 2.13317 0.234945 0 0 -6.57473 10.3653 7.28179 -9.4052 0.04 
570 1 1 -0.334876 0.188254 -0.944998 0 0 0 0.748358 0.458285 -0.0742624 0 0 -6.57473 9.93496 9.57283 15.7245 0.04 
878 1 1 0.450087 0.218566 -0.940302 0 0 0 3.00052 2.31332 1.76678 0 0 -6.57473 -6.40078 18.1432 -10.6252 0.04 
356 1 1 0.538979 0.188697 -0.948118 0 0 0 -0.0295513 2.22349 1.37754 0 0 -6.57473 8.6747 -39.4603 -11.425 0.04 
353 1 1 0.687854 0.197381 -0.94274 0 0 0 -1.40319 1.76332 0.849594 0 0 -6.57473 10.2415 8.66242 15.8935 0.04 
359 1 1 0.826505 0.219973 -0.958852 0 0 0 -0.19662 2.5784 1.15627 0 0 -6.57473 -4.14154 12.2459 -1.69571 0.04 
726 1 1 0.941415 0.210053 -0.910625 0 0 0 -0.254781 0.925553 2.07706 0 0 -6.57473 19.4396 -18.536 -8.73049 0.04 
652 1 1 -0.407598 0.317509 -0.961176 0 0 0 2.50918 1.91118 0.49316 -2.36019 -1.78018 52.5507 -6.17198 7.55665 20.1418 0.04 
75 1 1 -0.17899 0.287746 -0.960147 0 0 0 0.401359 -0.857852 -0.679499 -0.405276 0.748419 10.4474 -3.28319 -3.36001 -4.51048 0.04 
364 1 1 0.695173 0.406292 -0.926734 0 0 0 -0.504702 1.94634 2.16747 0 0 -6.57473 -55.223 -10.6325 34.1662 0.04 
612 1 1 -0.742719 0.465986 -0.908493 0 0 0 0.535468 1.57812 1.7835 0 0 -6.57473 -21.0014 2.47378 12.0089 0.04 
286 1 1 -0.360365 0.494145 -0.953399 0 0 0 -1.28618 2.26288 0.334013 0 0 -6.57473 -11.8577 -11.4373 -8.10414 0.04 
394 1 1 0.00292541 0.455943 -0.954266 0 0 0 2.46165 2.15179 0.183879 0 0 -6.57473 -18.164 -1.3347 13.8873 0.04 
343 1 1 -0.532394 0.534903 -0.962135 0 0 0 -0.629878 0.900157 0.208139 3.72004 -4.46981 109.732 -0.802047 2.3971 3.07206 0.04 
735 1 1 -0.44164 0.55317 -0.960048 0 0 0 -0.306081 1.59629 0.4965 0.162398 -0.0940683 -10.3282 -30.6176 8.42323 6.91952 0.04 
680 1 1 0.182126 0.555098 -0.950135 0 0 0 -0.914888 0.396347 -0.208451 370.455 -515.666 -54.6427 -12.6749 7.49113 -18.1538 0.04 
107 1 1 0.549711 0.516291 -0.955051 0 0 0 1.21546 -1.84804 2.27905 -62.1013 -332.836 -256.624 9.13368 8.69172 12.3725 0.04 
335 1 1 -0.415148 0.635681 -0.961979 0 0 0 0.215573 2.56282 0.882057 -0.868471 -4.86651 92.2933 -6.52562 -5.03613 -29.6828 0.04 
393 1 1 0.25466 0.51771 -0.9455 0 0 0 -1.22338 -1.82245 -0.418379 0 0 -6.57473 -4.95795 17.4969 -27.6259 0.04 
189 1 1 0.938731 0.594871 -0.92217 0 0 0 -0.147588 3.16118 0.517015 0 0 -6.57473 1.68329 11.7519 -18.3313 0.04 
365 1 1 -0.62758 0.631006 -0.906334 0 0 0 0.152728 -0.094308 1.74046 0 0 -6.57473 3.7319 0.656953 3.97011 0.04 
190 1 1 -0.380219 0.708823 -0.938525 0 0 0 0.803723 3.16326 1.19357 0 0 -6.57473 13.3969 5.0093 -0.276588 0.04 
563 1 1 0.145711 0.605279 -0.942326 0 0 0 -1.23472 0.923765 3.33491 -370.455 515.666 41.4933 15.3728 22.2676 10.2246 0.04 
337 1 1 0.914739 0.669753 -0.953751 0 0 0 -1.3581 0.745236 -0.966954 0 0 -6.57473 0.488781 -6.3977 -10.4236 0.04 
24 1 1 -0.51218 0.703857 -0.964522 0 0 0 0.633244 1.27238 0.131051 -0.811642 -12.4893 243.738 16.0685 13.5461 1.93558 0.04 
464 1 1 0.127101 0.746273 -0.934044 0 0 0 -0.491762 1.49332 0.270427 0 0 -6.57473 16.5311 -18.8096 6.29212 0.04 
713 1 1 -0.889482 0.820384 -0.910411 0 0 0 1.39384 0.378396 1.17462 -245.573 86.1518 -85.8639 -31.4546 5.93759 -3.45289 0.04 
292 1 1 -0.814106 0.860766 -0.939037 0 0 0 -0.764511 0.55934 0.913432 2.28455 12.1059 -16.0178 -10.6837 6.60327 -3.57901 0.04 
403 1 1 -0.278559 0.827474 -0.955245 0 0 0 0.691443 0.534331 -0.300422 0 0 -6.57473 -6.66209 22.7392 -10.5698 0.04 
468 1 1 0.580725 0.798535 -0.960531 0 0 0 -1.80344 -0.952339 0.601975 0.984831 0.465446 15.2109 3.49543 -2.06995 25.5894 0.04 
329 1 1 -0.954373 0.860111 -0.942904 0 0 0 0.461247 0.120944 -0.69597 0 0 -6.57473 -8.22235 1.5542 -5.5723 0.04 
280 1 1 -0.689818 0.888547 -0.964201 0 0 0 0.234796 -1.48457 1.04948 3.15702 10.565 213.958 5.94843 16.1597 -16.8432 0.04 
882 1 1 -0.0344817 0.924815 -0.828484 0 0 0 -1.60324 1.87733 5.62364 0 0 -6.57473 -11.1813 -23.0093 11.2154 0.04 
271 1 1 0.92323 0.909973 -0.938695 0 0 0 -2.21943 1.29005 0.157426 0 0 -6.57473 -4.79702 -2.90287 -24.0912 0.04 
422 1 1 -0.869064 0.965313 -0.959676 0 0 0 -0.077553 -1.99423 -0.440562 13.0348 -270.265 -3.01084 10.2221 11.3469 3.45753 0.04 
723 1 1 -0.16634 0.953699 -0.955754 0 0 0 -0.952226 -0.071092 -1.06969 0 0 -6.57473 -6.67007 1.96317 -23.9862 0.04 
5 1 1 -0.82495 -0.951637 -0.923025 0 0 0 0.930547 -0.158847 -0.389817 0 0 -6.57473 -15.4942 -5.2968 0.489817 0.04 
105 1 1 -0.690266 -0.965892 -0.93186 0 0 0 0.71439 -0.226268 -0.565189 -12.8618 331.26 3.86115 13.7972 -6.09225 16.4598 0.04 
138 1 1 -0.512905 -0.954923 -0.921175 0 0 0 -1.48856 0.723901 -1.79346 -39.4777 -66.4672 -23.5887 -0.620932 14.4308 4.75761 0.04 
323 1 1 -0.415557 -0.956843 -0.912385 0 0 0 -0.41644 -0.247586 0.803987 -142.649 6.16466 -70.2709 3.61497 -1.81958 13.7312 0.04 
647 1 1 -0.34487 -0.959599 -0.884963 0 0 0 -0.641128 0.305813 -0.144183 142.649 -6.16466 57.1214 15.5565 2.47958 7.46084 0.04 
209 1 1 -0.179619 -0.958688 -0.860221 0 0 0 -1.3742 0.0519707 0.764715 0 0 -6.57473 15.2083 3.20544 0.178537 0.04 
147 1 1 -0.00261422 -0.943253 -0.924202 0 0 0 -0.0267531 -1.24009 -1.07605 -2.49772 4.60753 -3.60555 9.01393 -4.78848 0.279915 0.04 
636 1 1 0.651868 -0.945817 -0.927677 0 0 0 0.0541065 0.397546 -0.66263 -53.6256 -14.7823 -15.1429 -16.9076 -5.23788 -38.2673 0.04 
415 1 1 -0.748013 -0.903649 -0.911019 0 0 0 -0.0188799 -0.265222 0.453491 0 0 -6.57473 -8.85767 6.24745 -0.682558 0.04 
550 1 1 -0.472288 -0.891521 -0.901606 0 0 0 0.332073 -0.723137 0.119878 25.3425 -43.196 44.5171 14.1183 12.4538 -10.9899 0.04 
579 1 1 -0.280333 -0.870291 -0.888987 0 0 0 -0.484226 1.33896 0.902798 0 0 -6.57473 -0.923866 -1.92455 -5.38589 0.04 
396 1 1 0.691757 -0.856102 -0.902413 0 0 0 -0.667023 0.438262 2.09061 0 0 -6.57473 2.15256 0.317342 3.74051 0.04 
662 1 1 0.727849 -0.928949 -0.915824 0 0 0 -0.954955 -1.63192 0.263595 53.6256 14.7823 1.99348 7.75626 -27.3991 22.4734 0.04 
424 1 1 0.895772 -0.932694 -0.891973 0 0 0 2.5313 -0.495512 2.18758 0 0 -6.57473 10.8835 17.6427 -11.6889 0.04 
778 1 1 -0.86853 -0.781784 -0.939227 0 0 0 -0.0227712 0.409872 -0.603749 51.8866 120.934 33.852 19.6931 9.44452 10.2537 0.04 
170 1 1 -0.779022 -0.853253 -0.855241 0 0 0 -0.089659 -0.622634 -1.58077 -22.5703 -89.6022 -378.952 -13.1575 -2.49381 17.8042 0.04 
372 1 1 -0.644788 -0.816297 -0.895782 0 0 0 -1.39698 -0.609344 -0.478085 0 0 -6.57473 -9.79587 0.313533 28.4844 0.04 
52 1 1 -0.559264 -0.800023 -0.91085 0 0 0 1.23056 0.911494 -0.446349 0 0 -6.57473 20.7192 -23.0565 -8.48108 0.04 
517 1 1 -0.150753 -0.856411 -0.891819 0 0 0 -0.361603 -0.963902 1.30191 0 0 -6.57473 4.80002 -4.2994 -26.5561 0.04 
827 1 1 -0.0362911 -0.880298 -0.888318 0 0 0 -0.325959 -0.676779 0.477252 -28.8787 -22.7094 -52.561 -4.52933 -3.66681 -8.19781 0.04 
87 1 1 0.0836189 -0.857066 -0.895821 0 0 0 -0.909605 -0.821428 0.245963 -114.807 -136.841 74.3543 -0.182289 12.9857 -8.75518 0.04 
204 1 1 0.147763 -0.826972 -0.922879 0 0 0 -1.31657 -0.273499 -1.70265 129.272 56.8019 -53.4581 6.29345 -11.347 -3.73973 0.04 
947 1 1 0.310718 -0.823323 -0.927085 0 0 0 1.17777 -0.659509 0.0852407 0 0 -6.57473 7.14958 -9.41827 -8.23673 0.04 
74 1 1 0.422548 -0.812378 -0.881572 0 0 0 0.288885 0.250067 -0.00243216 0.872249 -39.2714 88.1322 -67.4305 -17.3283 0.868086 0.04 
972 1 1 0.78508 -0.823041 -0.870121 0 0 0 0.698369 -1.63904 -0.541885 -6.55001 13.5283 -26.2451 -2.72224 -7.66222 -12.6999 0.04 
371 1 1 0.940694 -0.841891 -0.902788 0 0 0 0.205037 0.134642 0.406853 192.291 28.9102 84.8061 -3.56512 -0.956888 4.24602 0.04 
92 1 1 -0.383905 -0.776083 -0.884543 0 0 0 0.201418 -0.763596 0.415743 0 0 -6.57473 7.77963 1.83303 -6.723 0.04 
669 1 1 -0.0478612 -0.782447 -0.905213 0 0 0 1.24287 -0.928336 1.21253 0 0 -6.57473 14.7426 0.74817 -3.73926 0.04 
81 1 1 0.216901 -0.81418 -0.871681 0 0 0 0.282239 -0.628461 0.980335 0 0 -6.57473 12.1393 -4.52883 -6.05533 0.04 
294 1 1 -0.929189 -0.729689 -0.862048 0 0 0 0.686715 -2.24927 2.09469 -10.8615 -49.433 -56.642 23.5454 -5.2639 9.82325 0.04 
567 1 1 -0.656076 -0.729488 -0.853845 0 0 0 0.572896 -0.81629 -0.0128356 0 0 -6.57473 4.78603 5.48038 8.17349 0.04 
511 1 1 -0.434485 -0.737854 -0.961765 0 0 0 -1.52669 -1.24122 -2.11701 2.74891 5.65744 119.224 -11.688 -17.8968 14.8238 0.04 
235 1 1 0.0197146 -0.679627 -0.909924 0 0 0 0.569315 -1.00404 0.605285 204.421 -43.2469 174.718 9.88231 23.5383 -7.00568 0.04 
226 1 1 0.361464 -0.760248 -0.88981 0 0 0 -0.633995 -3.37414 2.14945 59.2138 -63.9318 -104.149 15.5098 7.37623 -12.1685 0.04 
188 1 1 0.778483 -0.681633 -0.93373 0 0 0 1.85456 0.517535 -0.205867 0 0 -6.57473 29.7098 -2.14024 -6.23907 0.04 
812 1 1 0.824717 -0.70698 -0.845189 0 0 0 0.491338 -0.495268 0.218349 82.718 -75.4522 -99.7387 -8.71462 -26.4364 -0.520281 0.04 
850 1 1 0.912765 -0.726514 -0.922586 0 0 0 0.581812 -1.64275 -1.14765 0 0 -6.57473 -5.77104 7.45111 -1.91004 0.04 
260 1 1 -0.860151 -0.661605 -0.879666 0 0 0 -0.954799 -1.33832 -0.205314 0 0 -6.57473 8.28705 33.8914 -11.4378 0.04 
925 1 1 -0.613768 -0.630179 -0.918693 0 0 0 -0.505019 1.4425 0.189897 0 0 -6.57473 1.89195 22.3202 -0.509912 0.04 
110 1 1 -0.0243986 -0.622016 -0.85058 0 0 0 -1.20319 0.161381 2.05767 0 0 -6.57473 -6.72232 -23.2314 19.2524 0.04 
143 1 1 0.0936888 -0.598721 -0.957855 0 0 0 -0.432741 0.133923 -1.72431 -67.3214 -65.6365 -88.914 24.5047 6.42558 6.88166 0.04 
50 1 1 0.642085 -0.656337 -0.889521 0 0 0 -1.27646 -0.145289 1.95118 0 0 -6.57473 1.29601 2.87556 4.94799 0.04 
252 1 1 0.929731 -0.643497 -0.94696 0 0 0 -0.952415 -1.55215 -1.46413 46.8045 -44.4039 7.76273 -2.0255 -18.0207 3.58655 0.04 
670 1 1 -0.942562 -0.582801 -0.946667 0 0 0 0.78055 -0.684778 -1.51929 4.87408 -16.0073 -31.4665 3.4866 13.0241 -3.67828 0.04 
526 1 1 -0.641622 -0.577549 -0.8416 0 0 0 -1.10332 -0.567338 0.58505 42.0253 -2.54436 -170.64 -14.1177 27.4023 -5.02061 0.04 
480 1 1 -0.563587 -0.558694 -0.950503 0 0 0 -0.680096 -1.91569 -2.61578 -12.952 -21.7105 -5.51471 18.0922 -12.8417 -10.8648 0.04 
668 1 1 -0.322258 -0.599271 -0.884378 0 0 0 0.263237 -1.71729 0.578826 0 0 -6.57473 6.45975 -3.05035 -13.8942 0.04 
867 1 1 0.202065 -0.549062 -0.927388 0 0 0 1.04448 0.0487014 0.0774463 -10.6737 -37.7712 6.67381 -4.15783 10.1015 -1.17212 0.04 
821 1 1 0.492667 -0.628839 -0.882462 0 0 0 -0.751021 -2.34978 0.896716 10.3239 204.147 -339.426 4.98847 9.30022 -1.54915 0.04 
960 1 1 -0.79648 -0.503865 -0.863681 0 0 0 0.187564 -0.726533 -0.165942 230.839 13.6011 -146.252 -3.89553 4.67875 12.2541 0.04 
241 1 1 -0.667469 -0.537068 -0.91477 0 0 0 1.30751 -0.795766 -1.48805 0 0 -6.57473 11.2238 -2.47439 7.4106 0.04 
957 1 1 -0.484078 -0.549719 -0.884993 0 0 0 0.57048 -1.00456 0.420336 0 0 -6.57473 -8.78752 -3.07968 -8.87203 0.04 
305 1 1 -0.107131 -0.541832 -0.918158 0 0 0 0.43441 -2.15136 -0.612228 0 0 -6.57473 -1.82291 -1.55944 -6.69871 0.04 
805 1 1 -0.0219999 -0.512934 -0.913315 0 0 0 -2.35774 -0.0963612 -0.700912 0 0 -6.57473 -6.85162 -12.4116 -2.6972 0.04 
551 1 1 0.214622 -0.49317 -0.847485 0 0 0 1.38722 -0.642823 2.1276 0 0 -6.57473 15.5656 25.0563 9.14468 0.04 
220 1 1 0.273537 -0.474966 -0.905261 0 0 0 0.608528 0.510421 -0.158047 165.723 -4.63667 146.126 1.89807 -11.1623 3.98283 0.04 
880 1 1 0.548273 -0.558893 -0.885942 0 0 0 1.03128 -1.29569 -0.477548 0 0 -6.57473 6.38313 17.9386 4.99567 0.04 
987 1 1 0.880649 -0.545045 -0.901476 0 0 0 0.642954 -0.891291 0.906285 8.51533 122.086 151.318 -2.61743 -3.11934 -5.55629 0.04 
620 1 1 -0.552127 -0.433631 -0.845752 0 0 0 -0.957798 -0.0635909 1.51585 0 0 -6.57473 -11.7507 5.017 -0.0027633 0.04 
132 1 1 -0.282844 -0.468226 -0.894997 0 0 0 0.715744 -0.190372 -0.344012 0 0 -6.57473 -8.39947 9.9577 11.7519 0.04 
891 1 1 0.0506414 -0.403575 -0.900807 0 0 0 0.73053 -0.409771 0.620961 -66.5598 -128.757 187.222 4.81928 17.7797 -7.18105 0.04 
45 1 1 0.104984 -0.486572 -0.884261 0 0 0 -0.631534 -1.65765 -0.333595 -39.6958 167.972 228.213 2.36594 -18.6885 3.25886 0.04 
671 1 1 0.317024 -0.400378 -0.874738 0 0 0 2.61957 0.602101 0.761167 0 0 -6.57473 -19.1692 -8.83443 10.8835 0.04 
885 1 1 0.6986 -0.437195 -0.860561 0 0 0 2.20513 1.93975 -0.879521 0 0 -6.57473 10.9387 -2.08578 -2.27405 0.04 
644 1 1 -0.902239 -0.374427 -0.935182 0 0 0 -0.218078 0.379961 -2.52593 0 0 -6.57473 -17.2728 -1.40492 13.6353 0.04 
826 1 1 -0.747142 -0.404249 -0.887253 0 0 0 1.04929 -1.01012 -0.0890936 -12.3147 28.96 12.9566 4.2293 18.7818 15.0217 0.04 
946 1 1 0.516837 -0.364431 -0.877121 0 0 0 2.24251 0.991371 3.02071 -400.574 51.0423 88.4735 -0.128322 20.597 -3.70177 0.04 
973 1 1 0.813196 -0.355133 -0.924463 0 0 0 1.11445 1.40688 -1.33928 0 0 -6.57473 -12.3854 -33.4815 -14.1212 0.04 
553 1 1 0.898148 -0.391002 -0.955344 0 0 0 0.771969 0.425469 -2.13931 0 0 -6.57473 -39.006 -30.5777 -7.72901 0.04 
657 1 1 -0.831385 -0.328054 -0.878997 0 0 0 0.42322 -0.0425049 -0.345005 -3.64419 -16.6365 -0.408373 -8.15596 7.42862 -6.09814 0.04 
899 1 1 -0.732712 -0.30706 -0.881058 0 0 0 -0.0731453 1.81247 0.854028 0 0 -6.57473 13.0692 -18.5965 12.422 0.04 
964 1 1 -0.507543 -0.328903 -0.975458 0 0 0 1.24328 0.00637173 0.748745 98.4464 16.3931 703.897 4.03969 10.9334 5.17778 0.04 
883 1 1 -0.395858 -0.321689 -0.920129 0 0 0 0.980643 0.332058 -1.43214 0 0 -6.57473 25.0423 -0.655412 9.52752 0.04 
921 1 1 -0.139709 -0.323499 -0.879222 0 0 0 0.062124 0.0527626 -0.661076 0 0 -6.57473 -24.4746 -6.6649 -0.404314 0.04 
266 1 1 -0.0507567 -0.297019 -0.876872 0 0 0 -2.09395 0.707839 -0.611459 -17.7312 24.4538 126.615 37.3075 48.8523 0.381674 0.04 
741 1 1 0.592902 -0.308754 -0.84893 0 0 0 0.703751 -0.205557 1.27414 0 0 -6.57473 -15.1588 2.16646 12.8027 0.04 
924 1 1 -0.886435 -0.216779 -0.852242 0 0 0 0.739845 0.675183 1.22678 3.33769 15.6061 -12.519 4.13021 5.88475 2.80424 0.04 
328 1 1 -0.817609 -0.255827 -0.909259 0 0 0 0.367236 -0.277258 -0.869278 3.64419 16.6365 -12.7411 7.26352 19.5128 -9.93589 0.04 
319 1 1 -0.645042 -0.256878 -0.891454 0 0 0 -0.704956 0.383109 0.513649 0 0 -6.57473 0.918166 -6.92496 -3.71271 0.04 
527 1 1 -0.502771 -0.272875 -0.886509 0 0 0 -2.35419 -0.420486 -0.073909 40.5104 18.1005 -374.436 -8.52305 -19.3162 4.26566 0.04 
815 1 1 -0.405336 -0.213764 -0.903285 0 0 0 0.513388 -0.466167 -1.19411 -14.3995 76.0946 -49.4534 -8.00251 -3.6293 3.01801 0.04 
743 1 1 -0.178414 -0.235003 -0.882906 0 0 0 -0.77284 0.725135 1.44253 0 0 -6.57473 -18.2228 -19.8871 -11.8468 0.04 
983 1 1 0.053971 -0.228383 -0.938105 0 0 0 -2.61382 0.867941 -1.3101 -26.1617 -26.8291 -0.512121 -16.3165 -1.6422 -8.60284 0.04 
557 1 1 0.187632 -0.290543 -0.947943 0 0 0 -0.893081 -2.25288 -2.6665 0 0 -6.57473 3.06081 -6.72934 -16.2466 0.04 
900 1 1 -0.921905 -0.124074 -0.899505 0 0 0 0.102291 0.910192 -1.46563 0 0 -6.57473 4.94109 -0.146662 8.27073 0.04 
721 1 1 -0.378841 -0.133378 -0.892806 0 0 0 0.681576 2.0132 -2.37139 0 0 -6.57473 -8.86513 -11.37 14.9706 0.04 
366 1 1 -0.0941459 -0.0994307 -0.849204 0 0 0 -0.439336 1.93972 3.45506 0 0 -6.57473 -14.4641 -22.7512 15.8676 0.04 
580 1 1 -0.0163162 -0.142771 -0.88718 0 0 0 -1.7765 1.62988 -0.302054 34.6885 58.5155 93.0513 -6.51675 -13.2374 5.22012 0.04 
853 1 1 0.229548 -0.119498 -0.955167 0 0 0 0.413236 1.08545 -3.63383 -76.6965 147.509 2.59096 -3.84802 21.6486 -17.2572 0.04 
118 1 1 0.485177 -0.189813 -0.91118 0 0 0 -0.0427291 -0.00975334 0.49062 0 0 -6.57473 -20.4 3.091 -22.8508 0.04 
706 1 1 0.619751 -0.128646 -0.862468 0 0 0 -0.811403 1.02344 0.183366 0 0 -6.57473 -1.35439 14.5104 9.80365 0.04 
877 1 1 0.79823 -0.164705 -0.894453 0 0 0 -1.25482 0.680929 1.62332 0 0 -6.57473 -0.399733 4.64469 -1.61721 0.04 
818 1 1 0.952571 -0.160977 -0.925642 0 0 0 0.0967661 0.150235 -0.293706 0 0 -6.57473 -1.37885 -2.60696 -2.49398 0.04 
412 1 1 -0.632129 -0.10452 -0.932108 0 0 0 0.126424 0.84718 -0.824021 0 0 -6.57473 -2.45936 24.257 -1.02516 0.04 
851 1 1 -0.326731 -0.0413854 -0.893268 0 0 0 -0.50743 2.11552 -0.82544 0 0 -6.57473 -4.01776 4.39068 15.0622 0.04 
849 1 1 0.305034 -0.0476099 -0.918701 0 0 0 4.12039 1.88726 -0.312323 -41.3745 2.60963 -11.4683 -9.56937 12.7371 -1.98432 0.04 
529 1 1 0.457296 -0.0959248 -0.936437 0 0 0 -1.02784 1.10051 -0.443691 0 0 -6.57473 -0.91499 1.69295 5.67679 0.04 
717 1 1 0.872691 -0.132452 -0.891827 0 0 0 -1.12812 -1.25973 -1.03322 0 0 -6.57473 8.1095 -1.56654 -0.642639 0.04 
574 1 1 -0.834936 -0.00204149 -0.897762 0 0 0 0.5141 1.44632 -0.68518 -78.3454 2.15379 43.9826 -20.6402 4.70415 -4.15425 0.04 
401 1 1 -0.0936342 0.00514588 -0.938982 0 0 0 1.39987 0.796778 -2.15785 0 0 -6.57473 4.97961 28.8993 -29.7274 0.04 
461 1 1 0.0617051 0.0162807 -0.929061 0 0 0 2.52306 1.88044 -1.8042 0 0 -6.57473 -7.83234 -25.5789 -51.042 0.04 
425 1 1 0.225567 -0.0408443 -0.924498 0 0 0 -1.6271 1.09393 -2.08422 25.0657 54.541 -57.4542 -13.1277 3.35127 9.12775 0.04 
588 1 1 0.359021 0.0136021 -0.886604 0 0 0 0.971808 3.5782 -0.435613 -27.1012 -14.481 -30.9426 0.483392 -14.7141 -4.82598 0.04 
835 1 1 0.631112 0.0525283 -0.935208 0 0 0 1.38006 2.91034 -0.912082 0 0 -6.57473 -0.821441 -8.39183 0.427227 0.04 
296 1 1 0.765348 -0.00615682 -0.906832 0 0 0 -1.79157 -0.19504 -1.66371 0 0 -6.57473 9.19113 -14.3716 2.6977 0.04 
500 1 1 0.885895 -0.0727372 -0.9632 0 0 0 0.171641 -0.564211 -2.80629 -61.3979 6.57861 175.373 -4.63954 -10.3341 -24.2533 0.04 
649 1 1 0.952772 -0.0666454 -0.923698 0 0 0 1.16111 -0.564345 -1.01282 54.7204 1.82577 26.1612 -15.7552 -22.6771 4.05566 0.04 
842 1 1 -0.77134 -0.00601748 -0.942639 0 0 0 -2.51738 0.291495 -0.839268 38.3212 159.06 -48.294 -9.863 16.0874 8.31273 0.04 