ITEM: TIMESTEP
49000
ITEM: NUMBER OF ATOMS
1500
ITEM: BOX BOUNDS ff ff ff
-1 1
-1 1
-1 1
ITEM: ATOMS id type type x y z ix iy iz vx vy vz fx fy fz omegax omegay omegaz radius 
137 1 1 -0.958198 -0.959369 -0.958143 0 0 0 0.034169 -0.0288209 0.0148464 0 0 -6.57473 0.650801 1.2142 -0.846177 0.04 
5 1 1 -0.878196 -0.958821 -0.96037 0 0 0 -0.0154712 -0.0730482 0.0802806 0.140369 0.54793 13.008 2.08124 -0.451596 1.42818 0.04 
239 1 1 -0.790875 -0.958853 -0.95855 0 0 0 0.150318 0.0215957 -0.0109639 0 0 -6.57473 -0.893914 4.24134 -0.22302 0.04 
415 1 1 -0.657859 -0.959939 -0.959172 0 0 0 0.278276 0.049681 0.139551 5.07066 -17.2429 -6.92602 1.76793 3.27561 -0.697262 0.04 
138 1 1 -0.525497 -0.958806 -0.960413 0 0 0 0.0672191 0.207334 0.0921216 0.0793157 -1.06415 14.7812 0.397104 0.320141 2.53664 0.04 
323 1 1 -0.418923 -0.959875 -0.960817 0 0 0 0.0320354 -0.0345816 -0.0449325 -4.41172 -2.82472 33.4177 0.315982 0.192789 -3.08446 0.04 
130 1 1 -0.339187 -0.960981 -0.959238 0 0 0 -0.127872 -0.191918 -0.121617 12.0346 57.3356 -3.95314 0.48228 0.0156269 -0.118593 0.04 
502 1 1 -0.258199 -0.96001 -0.960425 0 0 0 -0.0626461 -0.0586336 0.0878174 -8.40886 -11.6239 14.8535 -0.478422 0.355579 0.610453 0.04 
494 1 1 -0.166588 -0.959877 -0.960778 0 0 0 0.0854182 -0.164366 -0.0315114 20.3349 -30.0356 37.376 0.902827 1.73906 -1.09578 0.04 
448 1 1 -0.0861931 -0.959855 -0.960464 0 0 0 0.104729 0.0737409 -0.00625251 -13.2393 -4.22676 -13.2612 -0.279675 1.37613 0.340754 0.04 
147 1 1 -0.00254695 -0.955286 -0.960318 0 0 0 0.101741 0.0587306 -0.105647 2.58981 -0.438127 6.84238 -0.426598 0.209911 0.633348 0.04 
218 1 1 0.0773992 -0.960138 -0.960286 0 0 0 0.0816296 0.0674365 0.077777 -11.3401 2.05498 1.79273 -0.836306 1.71392 -2.18436 0.04 
339 1 1 0.216884 -0.95986 -0.959671 0 0 0 0.0298818 0.0342717 0.0831321 2.88785 -1.42055 -6.59537 -0.320845 0.56649 -1.31885 0.04 
203 1 1 0.407259 -0.957619 -0.95979 0 0 0 -0.207611 -0.304719 -0.012204 3.47176 -10.5818 -8.78974 -1.16652 -1.13206 -2.29566 0.04 
1019 1 1 0.502271 -0.959284 -0.960674 0 0 0 -0.0171336 -0.344859 -0.15636 7.82788 -18.5834 19.1447 -0.436503 -3.1271 2.46013 0.04 
821 1 1 0.584395 -0.955338 -0.959827 0 0 0 -0.00439681 0.0939223 0.0740006 15.2288 -10.1341 -19.5767 -3.76271 -3.05268 3.90906 0.04 
636 1 1 0.665715 -0.95122 -0.95861 0 0 0 -0.0748249 -0.116996 -0.183705 5.17932 -19.0274 -5.80985 0.594719 -0.037388 1.98201 0.04 
729 1 1 0.74621 -0.939236 -0.960857 0 0 0 -0.149654 0.0590694 0.108797 4.80003 -16.8521 7.0257 -2.49577 -2.57179 -0.147047 0.04 
503 1 1 0.823683 -0.960218 -0.959192 0 0 0 -0.159978 0.0170868 -0.0730843 -27.4153 -4.07214 -48.6487 -0.759984 -3.56115 -0.640627 0.04 
850 1 1 0.960158 -0.957827 -0.960095 0 0 0 0.273067 0.126426 0.114826 2.48304 -0.358432 -13.103 1.7216 -0.0414928 0.562382 0.04 
918 1 1 -0.929305 -0.871584 -0.960281 0 0 0 -0.0444416 0.0731972 0.171242 0.552377 -0.383785 6.87757 -0.0259704 1.49109 0.321896 0.04 
246 1 1 -0.849425 -0.882254 -0.959845 0 0 0 0.298397 -0.103393 0.113521 3.6703 -4.5954 -13.8654 1.1733 0.334797 -0.82773 0.04 
379 1 1 -0.683838 -0.884834 -0.958963 0 0 0 -0.220362 0.0876213 0.142869 -5.07066 17.2429 -6.22343 1.62834 -0.782557 1.27284 0.04 
105 1 1 -0.60282 -0.901616 -0.959208 0 0 0 -0.0562729 0.177834 -0.0685343 0 0 -6.57473 -1.68785 -1.53388 0.312302 0.04 
52 1 1 -0.447589 -0.862124 -0.960682 0 0 0 0.243218 0.276524 -0.0223344 14.0745 39.5693 -2.41365 -0.54333 0.197013 -0.166767 0.04 
345 1 1 -0.371252 -0.884016 -0.943813 0 0 0 -0.119985 0.0740973 -0.262153 -39.9456 1.74637 2.22998 -1.53571 -1.06921 -1.04886 0.04 
209 1 1 -0.293917 -0.883721 -0.959364 0 0 0 -0.0826282 -0.0109083 -0.160007 39.9456 -1.74637 -15.3794 -0.0300627 -1.32761 -1.71379 0.04 
647 1 1 -0.211978 -0.895313 -0.958698 0 0 0 0.120686 -0.0762195 0.0386115 -11.3868 45.9929 -5.41734 3.04868 -3.00831 -1.35242 0.04 
700 1 1 -0.136251 -0.869181 -0.960571 0 0 0 0.0520648 0.0266227 -0.0430126 4.77028 2.84113 12.3885 -1.31243 0.270709 -0.0796578 0.04 
616 1 1 -0.056249 -0.88492 -0.960055 0 0 0 0.198804 -0.0133299 -0.0102495 -2.6634 -0.959276 -3.37077 -0.696684 -0.108788 1.94929 0.04 
655 1 1 0.146987 -0.921127 -0.959987 0 0 0 0.0703111 0.112807 0.0366954 -8.00132 -9.51391 -13.0032 -1.39854 0.0666603 3.19206 0.04 
19 1 1 0.260911 -0.88845 -0.961482 0 0 0 -0.308039 -0.121434 -0.380002 -30.888 -0.972865 42.6832 -0.482279 0.476682 0.242955 0.04 
341 1 1 0.326707 -0.942409 -0.960263 0 0 0 0.0679218 -0.224446 -0.111352 3.45347 -5.8902 -49.7019 -0.669369 0.0742799 -2.2669 0.04 
443 1 1 0.380736 -0.883512 -0.947585 0 0 0 -0.393708 -0.0819605 -0.454918 -13.4313 -5.68066 -25.811 -2.19134 -6.28792 -0.0388838 0.04 
664 1 1 0.461266 -0.891516 -0.961178 0 0 0 0.200025 -0.145438 -0.137047 -49.9119 26.4815 60.1318 -1.78152 -1.8396 -1.08559 0.04 
396 1 1 0.540447 -0.888992 -0.961615 0 0 0 -0.178914 0.21324 -0.0683115 55.7109 -5.01282 28.829 -1.52112 -0.219232 5.04437 0.04 
50 1 1 0.647876 -0.873775 -0.959245 0 0 0 0.108581 -0.133765 -0.0844322 -5.79585 14.2791 -19.3673 -0.673362 0.644217 -3.21461 0.04 
554 1 1 0.814368 -0.878213 -0.961007 0 0 0 -0.191312 0.261367 0.0271222 2.07404 -1.1518 48.1055 -0.84545 2.5973 -3.52251 0.04 
812 1 1 0.894281 -0.891081 -0.959915 0 0 0 -0.163502 -0.000999585 0.0802469 -1.16796 9.31566 -14.0375 0.0265665 0.76087 -1.29455 0.04 
586 1 1 -0.764381 -0.87666 -0.958627 0 0 0 0.04967 -0.283124 -0.0895264 17.4197 -2.26405 -32.6209 -0.469577 -0.218003 -1.69792 0.04 
290 1 1 -0.614214 -0.812366 -0.936954 0 0 0 -0.0823304 0.0863688 0.175204 -0.514115 -0.141184 -6.89151 -4.87269 6.17605 0.767954 0.04 
380 1 1 -0.527452 -0.85807 -0.959372 0 0 0 0.273736 0.207127 -0.25177 -1.16926 0.0989214 -6.51211 7.50853 0.162348 -4.15775 0.04 
480 1 1 -0.388517 -0.807563 -0.960078 0 0 0 0.322137 0.290183 -0.0348989 -0.213337 -0.106796 -1.80323 -2.59334 -1.26409 0.963633 0.04 
402 1 1 -0.303102 -0.798564 -0.961297 0 0 0 0.231908 0.15738 0.66896 -4.69815 -17.1762 50.8796 -1.78135 1.86559 -2.30705 0.04 
385 1 1 -0.0843879 -0.807822 -0.958284 0 0 0 -0.16451 -0.0680944 0.0830056 -18.5928 -1.34701 -22.0879 -2.5908 1.53789 1.59804 0.04 
827 1 1 0.016561 -0.851835 -0.960016 0 0 0 -0.136538 0.151394 -0.0501173 -25.5559 3.91563 -6.06051 -1.0283 0.41847 -0.185804 0.04 
784 1 1 0.0954221 -0.859178 -0.960975 0 0 0 -0.0223092 0.16767 -0.259167 28.2136 -5.85372 52.1591 -0.555581 -0.772333 -0.652359 0.04 
211 1 1 0.174668 -0.846429 -0.959895 0 0 0 -0.130211 0.101814 0.0255969 15.4654 -1.14046 -6.26412 -0.818107 -0.790248 -0.329192 0.04 
725 1 1 0.240538 -0.799667 -0.960169 0 0 0 -0.00374594 0.172522 -0.0563632 -0.370005 -0.345337 3.54775 -2.7278 -1.80176 -0.897395 0.04 
354 1 1 0.317709 -0.826392 -0.958226 0 0 0 0.116975 0.365127 -0.151439 0 0 -6.57473 -2.4607 -1.67794 0.467629 0.04 
159 1 1 0.394029 -0.792088 -0.96151 0 0 0 -0.498084 0.56778 -0.297512 -15.8157 15.893 57.0712 -1.77176 -3.16821 1.75308 0.04 
688 1 1 0.483442 -0.80376 -0.961007 0 0 0 0.305082 0.482665 -0.444671 -2.48818 -1.83726 55.2851 -1.51064 -6.77614 -1.82667 0.04 
866 1 1 0.587577 -0.813581 -0.959539 0 0 0 -0.0148164 -0.0549445 0.191567 0 0 -6.57473 1.4472 -0.530966 -3.01729 0.04 
742 1 1 0.732386 -0.857231 -0.959764 0 0 0 0.145413 0.13994 0.0997564 -3.37479 9.94352 -23.8731 -2.98176 1.79127 4.65115 0.04 
972 1 1 0.959975 -0.822504 -0.960744 0 0 0 0.0209362 -0.171585 -0.129067 -1.10873 -7.38771 24.2394 -1.59598 -0.545891 -0.134232 0.04 
488 1 1 -0.960006 -0.729617 -0.959855 0 0 0 0.0284807 0.215196 0.135717 -0.0100363 -0.000430155 -6.57498 -3.78703 -0.664806 0.82861 0.04 
446 1 1 -0.903365 -0.793296 -0.960444 0 0 0 -0.112755 0.232672 -0.0998265 -4.7279 11.9824 1.41425 -0.92723 -0.972633 0.169913 0.04 
894 1 1 -0.808011 -0.808708 -0.9613 0 0 0 -0.0136103 -0.271105 0.0533873 -12.6112 -1.77491 41.0104 -1.52316 -0.512949 -1.77855 0.04 
960 1 1 -0.724414 -0.795321 -0.960522 0 0 0 -0.0234739 -0.0159539 -0.0711161 -0.304458 1.46915 23.4326 -2.4177 -1.17478 -0.0671898 0.04 
1127 1 1 -0.546252 -0.73726 -0.958926 0 0 0 -0.0628089 0.0334725 0.0807448 -8.69674 6.22813 -6.4316 -2.35539 4.28539 -1.51615 0.04 
241 1 1 -0.483715 -0.786687 -0.958723 0 0 0 -0.124806 -0.0274496 0.0444228 -48.484 -31.6754 -55.3468 -0.0291513 -0.35539 2.51431 0.04 
511 1 1 -0.339419 -0.72763 -0.960141 0 0 0 -0.162457 -0.0962825 -0.0914095 -4.54072 10.5128 3.13162 0.78543 1.59222 1.81717 0.04 
322 1 1 -0.223691 -0.789927 -0.958421 0 0 0 0.0929186 0.0252082 0.182521 4.70328 4.60667 -10.6345 -0.697331 2.06993 6.33111 0.04 
376 1 1 -0.158014 -0.743409 -0.959269 0 0 0 0.137275 0.0961419 0.141704 0 0 -6.57473 -0.206656 -0.722085 -1.91153 0.04 
204 1 1 -0.0376241 -0.741238 -0.960904 0 0 0 -0.167878 0.166295 -0.0319403 -4.24461 -3.58473 32.6924 -2.0892 -2.49817 1.13378 0.04 
1122 1 1 0.0446907 -0.774935 -0.961088 0 0 0 -0.242175 0.254589 0.0151047 -2.78025 12.9478 29.9295 -1.27373 -2.57127 -2.00109 0.04 
773 1 1 0.127686 -0.782234 -0.960899 0 0 0 -0.098701 0.0399031 0.0411393 -36.9818 10.1244 11.2551 -1.17091 1.20276 2.50825 0.04 
967 1 1 0.304493 -0.746615 -0.960157 0 0 0 -0.430894 0.246394 0.183102 21.9157 3.23051 -29.8922 -2.80588 -3.54948 2.16214 0.04 
177 1 1 0.545644 -0.737145 -0.956225 0 0 0 0.130362 0.206001 -0.0504547 0 0 -6.57473 -3.04358 2.03298 -4.68264 0.04 
519 1 1 0.67294 -0.791554 -0.957109 0 0 0 0.169006 0.202864 0.040783 0 0 -6.57473 3.56595 0.0398104 4.00761 0.04 
439 1 1 0.761454 -0.760336 -0.960643 0 0 0 0.0590559 0.143253 -0.110238 -2.24079 -5.72065 30.8826 1.62913 3.67021 1.43331 0.04 
188 1 1 0.895173 -0.772484 -0.959815 0 0 0 -0.0154103 0.211657 0.196196 0 0 -6.57473 -2.57908 2.27777 -2.25405 0.04 
532 1 1 -0.897154 -0.678922 -0.959993 0 0 0 -0.0684739 0.116622 -0.0477042 -4.37366 5.97046 -10.4206 -1.78489 1.06391 0.301486 0.04 
564 1 1 -0.783819 -0.726321 -0.956902 0 0 0 0.309345 0.0167526 0.569018 4.89331 0.999025 -47.3527 -0.00866742 2.92157 -1.18525 0.04 
314 1 1 -0.678027 -0.721002 -0.960114 0 0 0 0.163348 -0.0344042 0.0585912 -0.266367 0.0808418 -1.00744 -0.584157 -0.67322 3.80282 0.04 
170 1 1 -0.588891 -0.664252 -0.956524 0 0 0 0.106787 0.0885428 0.52766 0 0 -6.57473 -0.39114 1.6686 -0.954038 0.04 
375 1 1 -0.485396 -0.679085 -0.960934 0 0 0 0.147995 0.3349 -0.401213 2.72908 -8.67734 18.9059 -1.08519 1.44368 -2.37171 0.04 
85 1 1 -0.426956 -0.732684 -0.950123 0 0 0 0.24537 0.0883953 -0.424953 29.0856 28.0212 0.563498 2.0961 0.23357 -1.94117 0.04 
873 1 1 -0.223431 -0.697071 -0.955666 0 0 0 -0.114275 0.378657 0.157005 0 0 -6.57473 -3.24679 2.06359 2.51154 0.04 
738 1 1 -0.0988951 -0.689124 -0.958713 0 0 0 0.0104784 0.419798 0.12222 0 0 -6.57473 -5.40705 -1.24051 -1.52032 0.04 
581 1 1 0.041908 -0.693768 -0.959792 0 0 0 0.101218 0.0571296 0.163534 0 0 -6.57473 -0.228022 0.599411 1.12877 0.04 
1088 1 1 0.123322 -0.700049 -0.960243 0 0 0 0.0179287 0.103253 0.126009 -7.27271 -17.2755 4.84452 1.99518 -3.21917 -0.386404 0.04 
862 1 1 0.224364 -0.706953 -0.960312 0 0 0 -0.238297 0.256555 -0.0657358 0.765844 -0.493777 11.6498 -1.45492 1.74935 -9.45745 0.04 
656 1 1 0.366002 -0.693861 -0.959236 0 0 0 -0.0738178 0.0661589 -0.076237 -9.34841 -6.336 -12.3589 -3.06871 -2.80242 1.91601 0.04 
451 1 1 0.452086 -0.729248 -0.962219 0 0 0 -0.355448 0.22094 0.0304726 -8.34616 5.19816 79.8164 -1.93704 -4.07619 -2.86055 0.04 
880 1 1 0.653271 -0.680946 -0.951966 0 0 0 -0.257304 -0.0763691 0.0996188 -3.02514 -29.8288 -6.33323 -2.41721 -3.04425 2.83721 0.04 
543 1 1 0.733951 -0.664649 -0.958793 0 0 0 -0.144548 0.244879 -0.140034 -32.4035 6.0843 -9.15906 -2.80726 -0.346499 -2.55093 0.04 
662 1 1 0.807054 -0.69475 -0.960713 0 0 0 -0.158176 0.198384 0.029419 16.2278 -16.2045 32.1415 -3.34058 -0.383565 -0.749074 0.04 
553 1 1 0.884357 -0.676463 -0.960708 0 0 0 0.0179933 0.0201273 0.239341 29.9966 -20.2051 -18.7732 -1.98678 -3.48289 -2.93677 0.04 
987 1 1 0.955647 -0.717154 -0.96006 0 0 0 0.217336 -0.257643 0.0456638 -0.0784436 0.111339 -3.85078 -2.84329 -1.10722 0.260058 0.04 
260 1 1 -0.957922 -0.61486 -0.961622 0 0 0 0.112215 0.202146 -0.215591 -1.42492 -8.33372 71.7771 -3.65749 2.19896 0.380085 0.04 
990 1 1 -0.877616 -0.596945 -0.958414 0 0 0 -0.00897503 0.0933852 0.0563688 1.75942 10.5572 -23.7659 -1.63877 -1.56887 0.0761607 0.04 
826 1 1 -0.814457 -0.646504 -0.962136 0 0 0 -0.0180845 0.16593 0.397559 -3.66949 -14.2879 39.1187 -4.88742 0.0601779 -0.6632 0.04 
567 1 1 -0.732703 -0.661733 -0.960823 0 0 0 0.208347 -0.0881801 0.24736 -2.00955 0.717447 36.1009 0.741192 1.09925 -1.86253 0.04 
925 1 1 -0.659389 -0.612525 -0.957754 0 0 0 0.091114 0.299691 -0.143039 1.36984 -8.9896 -17.4348 -5.28491 1.10219 0.0194945 0.04 
709 1 1 -0.390425 -0.653683 -0.958132 0 0 0 -0.0365158 -0.0745679 0.040885 4.8178 -8.22162 -5.57185 -5.13985 1.61973 -0.791158 0.04 
631 1 1 -0.303314 -0.653656 -0.961677 0 0 0 0.39919 0.0411058 0.491227 -3.704 2.2896 80.5157 -5.26391 3.39414 2.85525 0.04 
962 1 1 -0.163792 -0.609711 -0.951686 0 0 0 -0.0801122 0.110605 0.112573 0 0 -6.57473 -4.22971 -0.422735 2.11985 0.04 
950 1 1 -0.0838647 -0.60813 -0.955082 0 0 0 0.0731211 0.124406 0.0664472 19.1951 -56.0204 -58.1301 -7.08945 1.14878 -1.05708 0.04 
388 1 1 0.0765559 -0.62105 -0.95782 0 0 0 0.132167 -0.076688 -0.114321 0 0 -6.57473 -3.3748 -3.17709 -3.63852 0.04 
61 1 1 0.156902 -0.627977 -0.959657 0 0 0 0.56746 -0.189475 -0.0186201 -34.2271 24.9725 -59.1568 -0.651181 -1.6279 1.56374 0.04 
1052 1 1 0.294552 -0.657303 -0.961272 0 0 0 -0.331371 0.0789896 0.105938 4.93882 2.34059 54.3368 -2.8089 0.950261 4.89222 0.04 
1082 1 1 0.418716 -0.634536 -0.951606 0 0 0 -0.033424 0.0290195 -0.446417 -9.13626 -11.4584 0.250655 6.33167 -3.11623 -5.97031 0.04 
255 1 1 0.494798 -0.656374 -0.960173 0 0 0 -0.067549 -0.0892765 -0.0321064 12.92 -2.87269 -6.69649 -0.596046 -4.5092 -1.27367 0.04 
1026 1 1 0.576785 -0.64966 -0.960618 0 0 0 -0.132954 0.187297 -0.474414 -0.231976 -2.01678 34.0268 1.67678 -4.08242 -1.4376 0.04 
1111 1 1 0.665183 -0.602672 -0.952547 0 0 0 0.0743519 -0.0858036 -0.00276532 3.02514 29.8288 -6.81622 -1.17362 -2.58542 -2.26603 0.04 
58 1 1 0.815465 -0.614927 -0.961558 0 0 0 -0.102174 -0.0527653 0.0647326 -12.6641 -6.49013 75.5964 -3.0857 -1.8584 -0.992413 0.04 
252 1 1 0.952412 -0.632583 -0.960938 0 0 0 0.0400724 -0.168571 0.119117 1.38046 5.36574 17.8388 2.2304 -0.119091 -0.0966604 0.04 
670 1 1 -0.951104 -0.534701 -0.959812 0 0 0 -0.122941 0.145551 0.00502836 -10.1328 -7.78779 -5.84686 -1.43574 -0.44656 0.619083 0.04 
565 1 1 -0.821444 -0.534079 -0.959635 0 0 0 0.0149943 -0.0626922 -0.158143 -2.93136 -13.6596 -36.0857 -3.06109 1.41407 2.48241 0.04 
1152 1 1 -0.734295 -0.561759 -0.959981 0 0 0 0.306782 0.124169 -0.507862 0 0 -6.57473 -5.2995 -0.711207 0.363985 0.04 
435 1 1 -0.629777 -0.527464 -0.955708 0 0 0 0.345457 0.334878 0.0594546 16.5645 -6.19784 -17.0901 -4.91435 0.669951 -1.13786 0.04 
893 1 1 -0.572977 -0.585766 -0.957637 0 0 0 0.0376792 0.0682831 0.0623883 0 0 -6.57473 -7.24355 -0.244179 3.26994 0.04 
816 1 1 -0.50541 -0.538434 -0.959002 0 0 0 -0.342653 0.48663 -0.135187 0 0 -6.57473 -7.00178 -2.59317 2.21696 0.04 
1448 1 1 -0.43185 -0.585765 -0.962759 0 0 0 -0.292511 0.0577634 -0.0354556 -0.692982 1.70851 146.61 -0.149754 -6.81646 2.81956 0.04 
883 1 1 -0.246861 -0.583261 -0.957761 0 0 0 0.538867 0.624322 -0.622157 32.0118 7.67303 -77.6272 -2.81899 -2.66391 2.47167 0.04 
305 1 1 -0.172021 -0.515685 -0.960419 0 0 0 0.142078 0.704936 -0.280236 22.143 8.04359 -11.204 -4.66167 2.16362 0.584368 0.04 
1066 1 1 -0.0567163 -0.531266 -0.961829 0 0 0 0.132756 0.147963 0.327521 2.09988 0.949226 87.6603 -3.30178 2.6854 1.1703 0.04 
716 1 1 0.00257092 -0.586787 -0.959959 0 0 0 -0.245104 0.165266 0.253916 -1.65732 -1.27078 -9.19328 -1.4384 2.43076 1.77201 0.04 
867 1 1 0.201126 -0.556246 -0.959493 0 0 0 -0.0625538 -0.00207722 0.148221 0 0 -6.57473 -1.25818 -1.45034 -1.31917 0.04 
576 1 1 0.351175 -0.591002 -0.961246 0 0 0 -0.453578 0.391807 0.271596 4.42048 -31.4533 13.5 -1.97908 -3.60005 0.738694 0.04 
408 1 1 0.423398 -0.555787 -0.960061 0 0 0 -0.16518 0.173337 0.0224747 2.33858 23.1976 -6.65053 0.210604 -4.68415 3.03434 0.04 
814 1 1 0.531881 -0.568577 -0.959689 0 0 0 -0.388546 0.0863028 0.00482796 0 0 -6.57473 -3.51566 -4.51967 0.806717 0.04 
1288 1 1 0.615529 -0.537058 -0.952386 0 0 0 -0.191143 0.262728 0.141354 55.3677 42.664 -108.07 3.79291 2.88577 1.59075 0.04 
908 1 1 0.701524 -0.52761 -0.960001 0 0 0 -0.351858 0.305545 -0.152353 0.0819219 -0.0588354 -4.55752 -3.74325 -3.37255 -3.69035 0.04 
1309 1 1 0.808386 -0.5243 -0.960365 0 0 0 -0.111747 0.193307 -0.450814 0.866329 -0.982664 19.6257 0.702565 2.0924 5.86512 0.04 
1107 1 1 0.88656 -0.579585 -0.961404 0 0 0 0.113008 0.0719 -0.132955 -8.07225 1.98957 75.4306 -5.64189 -1.59151 1.78415 0.04 
771 1 1 0.959792 -0.549045 -0.960531 0 0 0 -0.0588174 0.0148986 0.206942 32.031 1.02236 2.27506 0.0667223 -2.24871 -0.902123 0.04 
739 1 1 -0.887617 -0.486667 -0.96041 0 0 0 0.0551546 0.231581 -0.0797263 3.88083 25.4862 -10.6837 -2.2394 1.33943 -1.74616 0.04 
833 1 1 -0.68456 -0.470015 -0.960576 0 0 0 -0.0139053 0.141349 -0.268283 -6.47025 13.35 27.6261 -3.20226 0.252233 -0.694366 0.04 
620 1 1 -0.554389 -0.473179 -0.959634 0 0 0 -0.18715 0.527153 -0.359778 24.9344 -33.1651 -20.4104 -3.73441 0.493214 0.598283 0.04 
344 1 1 -0.405798 -0.506226 -0.958029 0 0 0 0.0739901 0.0844234 -0.00580909 0 0 -6.57473 -0.0498797 -5.84571 2.30435 0.04 
247 1 1 -0.334658 -0.460358 -0.959285 0 0 0 0.13054 0.374903 -0.312506 0 0 -6.57473 -2.60838 -2.13325 2.89176 0.04 
382 1 1 -0.264005 -0.502723 -0.959199 0 0 0 0.151031 0.0887004 0.256413 0 0 -6.57473 -6.1396 4.40087 2.2144 0.04 
143 1 1 0.0805716 -0.517376 -0.961735 0 0 0 0.10434 0.311703 0.546752 6.37969 -11.577 82.5073 -5.69969 2.2328 4.53122 0.04 
1346 1 1 0.160379 -0.4856 -0.959687 0 0 0 -0.119468 0.0257186 -0.0158703 0 0 -6.57473 -3.81046 4.10852 3.511 0.04 
1000 1 1 0.289249 -0.517374 -0.959393 0 0 0 -0.335879 0.0323738 0.0569181 0 0 -6.57473 -2.68262 -4.89975 1.50684 0.04 
792 1 1 0.381396 -0.485986 -0.960025 0 0 0 -0.186468 -0.108595 0.0077003 0.0413223 0.0494927 -5.28522 0.280236 -2.62972 -0.128932 0.04 
1361 1 1 0.481356 -0.492744 -0.961257 0 0 0 -0.399998 -0.0132768 0.19615 3.18774 1.11073 60.9395 -1.9006 -3.7418 0.583016 0.04 
9 1 1 0.880379 -0.482271 -0.960544 0 0 0 -0.0111998 0.0432415 0.118026 0.175435 -0.978851 22.223 -1.41934 -0.341375 -3.0708 0.04 
1055 1 1 -0.960617 -0.452833 -0.959817 0 0 0 0.14574 0.0276864 -0.0123447 -2.36192 -24.6383 -4.99751 -3.51176 -0.407991 3.64193 0.04 
326 1 1 -0.899831 -0.402625 -0.960316 0 0 0 -0.48921 0.584958 0.12297 17.9619 32.96 7.35904 -2.96235 0.405817 0.457899 0.04 
1142 1 1 -0.827167 -0.434567 -0.960098 0 0 0 0.0125315 0.38241 0.125462 24.5907 -10.6983 -11.1263 -2.53407 0.62326 2.14009 0.04 
1246 1 1 -0.734037 -0.396292 -0.960029 0 0 0 0.0272276 0.222203 -0.0227279 -0.0185723 -0.0938378 -4.66156 -2.24879 0.0261594 0.750701 0.04 
613 1 1 -0.617767 -0.4256 -0.960085 0 0 0 -0.20017 0.0198424 0.156957 -23.3981 18.1878 -5.48237 -0.406022 -2.73345 4.79518 0.04 
857 1 1 -0.502215 -0.401695 -0.957841 0 0 0 0.0712152 0.671178 0.199888 0 0 -6.57473 -8.18542 0.466093 -5.05293 0.04 
92 1 1 -0.417708 -0.421345 -0.959905 0 0 0 0.0810401 0.252865 0.158113 0 0 -6.57473 -1.47902 0.133342 -1.38597 0.04 
1124 1 1 -0.238006 -0.426277 -0.960207 0 0 0 -0.0576042 0.639622 -0.0952695 -33.565 26.0467 -49.1668 -2.09096 0.149153 -0.546782 0.04 
868 1 1 -0.151532 -0.42952 -0.959951 0 0 0 0.013244 0.0225061 -0.205832 -7.56938 10.9008 -22.0057 -7.606 0.0504127 -2.05389 0.04 
1271 1 1 -0.0660748 -0.450338 -0.960658 0 0 0 -0.0871825 -0.0371669 -0.121928 -15.9899 -20.4721 28.9372 -4.31101 -1.99169 -1.29719 0.04 
1249 1 1 0.024212 -0.461021 -0.960464 0 0 0 -0.183026 0.197882 -0.0297385 -6.20433 5.96064 10.7456 -3.88888 -1.15945 -3.69124 0.04 
1030 1 1 0.103218 -0.42866 -0.957339 0 0 0 -0.199104 0.050164 -0.0102593 3.10136 -3.72369 -6.22154 -2.38464 2.68833 -2.59415 0.04 
1148 1 1 0.236771 -0.45105 -0.955374 0 0 0 -0.226574 0.032092 0.0573975 -63.8901 -9.37126 -10.0354 0.901999 -3.27548 -3.44795 0.04 
772 1 1 0.314085 -0.439376 -0.95508 0 0 0 0.03859 -0.00252955 -0.0115546 63.8901 9.37126 -3.11401 1.37604 -0.553218 1.0633 0.04 
677 1 1 0.451549 -0.414549 -0.954172 0 0 0 -0.146554 0.252817 -0.272835 0 0 -6.57473 -0.681638 5.13463 2.66945 0.04 
981 1 1 0.545911 -0.415415 -0.957874 0 0 0 0.176732 0.173684 -0.165381 0 0 -6.57473 1.11106 1.61262 -1.11733 0.04 
1047 1 1 0.616716 -0.457172 -0.950467 0 0 0 0.0665148 0.51178 -0.0499377 -0.0241383 1.14639 -6.50725 -2.67123 3.82961 -1.58256 0.04 
1474 1 1 0.695174 -0.41858 -0.959325 0 0 0 -0.281546 0.454587 -0.0970346 0 0 -6.57473 -0.497943 5.63201 2.98754 0.04 
852 1 1 0.948411 -0.428533 -0.956086 0 0 0 0.18403 -0.0241969 0.160664 26.6321 -15.3844 -20.5172 -1.8681 -4.40995 1.98687 0.04 
982 1 1 -0.961261 -0.34928 -0.960064 0 0 0 -0.0534804 0.242789 -0.048432 69.0256 -15.0208 -1.98113 -3.54483 0.940096 3.88031 0.04 
1215 1 1 -0.813584 -0.355889 -0.959158 0 0 0 0.0560545 0.21581 -0.051081 1.04669 6.39827 -6.1669 -6.07679 -2.10478 0.161068 0.04 
969 1 1 -0.663518 -0.358185 -0.959328 0 0 0 -0.0399104 0.179221 0.143148 0 0 -6.57473 -4.34204 -0.711796 -2.6436 0.04 
230 1 1 -0.578016 -0.355051 -0.960196 0 0 0 -0.251166 0.319644 0.11333 0.138146 -0.452767 2.89274 -3.15627 -4.81366 -0.200628 0.04 
116 1 1 -0.445706 -0.336353 -0.960152 0 0 0 -0.114787 0.0639609 0.0031687 -7.1884 -2.90179 -10.7361 -2.62965 1.10859 2.68791 0.04 
978 1 1 -0.36757 -0.3588 -0.959435 0 0 0 0.0976803 0.0792675 0.0442878 0 0 -6.57473 -3.66907 -0.95813 2.70988 0.04 
1155 1 1 -0.285388 -0.360138 -0.959476 0 0 0 -0.236614 0.366795 -0.283254 -14.7062 4.37158 -30.8804 -3.60042 1.30521 2.92992 0.04 
1214 1 1 -0.192 -0.355902 -0.957013 0 0 0 0.111879 0.556317 0.386607 -11.5067 -14.7574 -6.77171 -0.726674 -4.66632 -6.85798 0.04 
1010 1 1 -0.0996154 -0.364016 -0.959592 0 0 0 -0.347988 0.0792762 0.132935 0 0 -6.57473 -2.38124 3.45908 -0.0300295 0.04 
1223 1 1 -0.0222634 -0.384517 -0.955796 0 0 0 -0.0943762 0.163355 -0.340822 -37.0723 9.91814 1.65421 4.67332 0.979073 -1.85966 0.04 
144 1 1 0.053869 -0.365894 -0.959853 0 0 0 0.0704151 0.170249 0.006862 49.9888 16.1886 -12.4441 -6.55284 -0.334483 -0.663532 0.04 
315 1 1 0.177531 -0.388183 -0.960713 0 0 0 -0.0532008 0.011745 -0.0010769 -1.3529 1.45539 33.167 -2.76881 -3.64035 -0.159838 0.04 
1187 1 1 0.261342 -0.371617 -0.954396 0 0 0 -0.0795272 -0.0768118 -0.175047 5.23533 -1.71412 -16.5845 -5.16051 0.42137 -1.72618 0.04 
220 1 1 0.348915 -0.351308 -0.95936 0 0 0 -0.0238105 0.315227 0.350568 0 0 -6.57473 -6.61046 -0.0159391 -2.26139 0.04 
309 1 1 0.490254 -0.33572 -0.949807 0 0 0 -0.451841 0.340718 -0.209814 0 0 -6.57473 -2.18785 5.77091 0.95718 0.04 
361 1 1 0.615087 -0.346709 -0.960472 0 0 0 -0.133296 -0.111486 -0.0680881 9.08305 -30.4275 -12.4013 -4.33246 1.42286 -0.536075 0.04 
764 1 1 0.695352 -0.332712 -0.95736 0 0 0 -0.324248 0.200061 0.182618 -30.771 -21.5008 -4.97526 -1.68612 0.905424 0.17067 0.04 
499 1 1 0.767281 -0.370135 -0.960803 0 0 0 0.12645 0.34723 -0.46823 -2.22577 -1.22657 44.2524 -6.77521 -0.406095 -3.64667 0.04 
398 1 1 0.878793 -0.391242 -0.959691 0 0 0 -0.210062 0.0904766 -0.38221 -8.55941 39.8747 -42.3278 -6.82179 -0.462127 2.43949 0.04 
657 1 1 -0.956634 -0.269712 -0.959342 0 0 0 0.0853628 0.254595 -0.188976 -7.15462 -2.53774 -23.2539 -5.63549 -2.75819 2.00894 0.04 
995 1 1 -0.886751 -0.320384 -0.958353 0 0 0 -0.108021 0.524687 -0.248441 1.92308 0.63746 -6.52541 -7.36776 -0.038417 -1.11658 0.04 
1279 1 1 -0.799991 -0.25854 -0.960989 0 0 0 0.0977538 -0.248666 0.3667 -0.0214211 2.51849 43.7969 1.93864 2.44042 -0.211914 0.04 
76 1 1 -0.732112 -0.301324 -0.959586 0 0 0 -0.0741305 0.230993 0.163597 0 0 -6.57473 -2.76267 -0.660295 -2.39391 0.04 
905 1 1 -0.655273 -0.256915 -0.961124 0 0 0 -0.0568174 0.220831 -0.103726 -5.54794 -22.4031 57.423 -5.37887 -2.70287 -0.451927 0.04 
1037 1 1 -0.518443 -0.301436 -0.959291 0 0 0 -0.180312 0.237207 -0.0671353 -7.91075 -6.6293 -22.842 -0.912208 0.48501 -0.851552 0.04 
1205 1 1 -0.392237 -0.275302 -0.958884 0 0 0 7.07857e-05 -0.15917 -0.0850098 16.0966 -6.43688 -5.89033 -0.416382 1.37449 -1.05921 0.04 
710 1 1 -0.312402 -0.280169 -0.95565 0 0 0 -0.138684 0.507079 -0.473393 0 0 -6.57473 0.209203 1.93369 1.40991 0.04 
168 1 1 -0.223687 -0.277163 -0.959696 0 0 0 0.265756 0.364722 0.0425696 4.93263 -6.79193 -5.96595 -7.89589 -2.36159 -2.22705 0.04 
1451 1 1 -0.142754 -0.2935 -0.960122 0 0 0 0.145122 0.115753 -0.015638 11.2371 14.5338 0.627663 -2.37756 3.0586 0.524956 0.04 
201 1 1 -0.045608 -0.302869 -0.959952 0 0 0 -0.0014713 0.190593 -0.223722 0 0 -6.57473 -2.16814 0.345054 0.351176 0.04 
404 1 1 0.121644 -0.320805 -0.958474 0 0 0 0.193735 0.326806 -0.298292 0 0 -6.57473 -5.25758 -0.765383 -0.405149 0.04 
1216 1 1 0.203042 -0.311653 -0.960165 0 0 0 -0.149457 0.135947 -0.081555 0.447404 -0.247912 3.65524 -1.07818 0.456197 -1.10339 0.04 
780 1 1 0.281274 -0.293984 -0.961086 0 0 0 0.133786 -0.286266 0.183722 8.71051 -4.86009 41.1196 -0.782337 -0.777379 -3.38865 0.04 
624 1 1 0.411788 -0.297085 -0.958202 0 0 0 -0.128933 -0.0630572 -0.157508 6.1019 37.0995 -51.0505 2.86094 1.67736 -2.611 0.04 
1074 1 1 0.555113 -0.276381 -0.956979 0 0 0 0.0579933 -0.105688 0.256764 3.03711 -1.24692 -6.80338 -0.0385309 -3.02661 5.46309 0.04 
342 1 1 0.64151 -0.274505 -0.942684 0 0 0 0.199859 -0.146269 -0.214566 1.46602 22.1044 5.89793 1.12652 5.84382 5.41851 0.04 
1163 1 1 0.761498 -0.289527 -0.957659 0 0 0 -0.387518 0.145043 0.19591 30.771 21.5008 -8.17419 -3.52756 -1.18279 1.94474 0.04 
182 1 1 0.840815 -0.302508 -0.960713 0 0 0 0.0671284 -0.124754 0.0392982 -1.10829 1.61828 32.6536 -1.23528 -1.30782 -2.5641 0.04 
975 1 1 0.941915 -0.33206 -0.954568 0 0 0 -0.0566806 0.0164115 -0.211449 0 0 -6.57473 -1.83835 -1.11794 3.02928 0.04 
1239 1 1 -0.957033 -0.187073 -0.959375 0 0 0 -0.0298161 0.444081 0.152829 -2.06438 -20.2074 -10.0393 -5.76855 0.07766 1.36421 0.04 
1056 1 1 -0.88288 -0.239555 -0.95418 0 0 0 0.169695 0.11262 0.0967898 4.07325 -11.5401 -6.22368 0.0677675 2.63545 -0.325402 0.04 
471 1 1 -0.72645 -0.220027 -0.961293 0 0 0 -0.0273267 0.199462 -0.0410071 0.378954 -3.6089 66 3.25336 0.179472 -0.258786 0.04 
1286 1 1 -0.574154 -0.243481 -0.959834 0 0 0 -0.00592707 0.397027 -0.205771 -8.18327 -8.37901 -5.91518 0.558386 3.81944 -3.28957 0.04 
945 1 1 -0.464823 -0.242849 -0.959644 0 0 0 0.127488 0.305825 0.129302 8.97897 7.41341 -7.19794 -3.522 -2.14696 -0.599958 0.04 
1063 1 1 -0.352305 -0.205974 -0.960809 0 0 0 -0.00736667 0.339839 0.116901 0.49236 -2.12093 36.9718 -0.756972 1.63188 4.20275 0.04 
1202 1 1 -0.269545 -0.211895 -0.961687 0 0 0 0.463798 0.380512 0.211661 -9.07173 4.87107 84.0783 -5.2027 2.27997 2.61346 0.04 
128 1 1 -0.188432 -0.204025 -0.960404 0 0 0 0.405283 0.0314197 0.232797 9.19526 8.61104 -10.1292 -3.9716 0.165195 -2.77861 0.04 
1348 1 1 -0.0863658 -0.229411 -0.961196 0 0 0 0.485569 0.0948369 0.0110948 9.33587 3.74918 38.8572 -0.177221 0.268761 4.95352 0.04 
1378 1 1 -0.00385202 -0.232527 -0.959777 0 0 0 -0.124788 0.575777 -0.299847 -5.41983 10.1084 -12.3273 -4.03436 4.23638 1.06949 0.04 
1301 1 1 0.0749941 -0.248079 -0.960124 0 0 0 -0.208306 0.411295 0.110647 47.3585 39.7542 -36.3495 -2.10376 -2.38623 -3.30546 0.04 
1201 1 1 0.168147 -0.235947 -0.960197 0 0 0 0.294416 0.0785963 -0.284087 -0.728654 0.0682278 8.0621 -2.73935 -0.844292 1.95623 0.04 
1139 1 1 0.265403 -0.19778 -0.9609 0 0 0 0.272256 -0.149117 0.153673 31.9124 -32.9928 10.2836 -2.34757 2.04017 0.506146 0.04 
1078 1 1 0.479951 -0.249799 -0.951951 0 0 0 -0.161005 -0.297736 0.14483 -3.03711 1.24692 -6.34607 2.7957 -0.833029 -1.6021 0.04 
806 1 1 0.593804 -0.200653 -0.962397 0 0 0 -0.0505107 -0.179526 -0.726711 7.09375 -0.888611 136.409 4.69019 -0.292479 2.65109 0.04 
974 1 1 0.681665 -0.207946 -0.959217 0 0 0 -0.0923374 0.238712 -0.22477 -3.77886 1.34925 -32.6662 3.94911 1.35524 -1.6603 0.04 
1336 1 1 0.778653 -0.210891 -0.960317 0 0 0 0.0419253 0.0448649 -0.27581 1.05886 -0.0875975 14.6747 -0.941409 3.27447 -2.43312 0.04 
915 1 1 0.903449 -0.248468 -0.942736 0 0 0 0.145543 0.0740155 -0.00873232 0 0 -6.57473 -5.18612 -0.175403 -4.76975 0.04 
328 1 1 -0.880011 -0.160058 -0.951832 0 0 0 0.178466 0.334005 -0.0480012 0.753742 13.6724 -6.8034 -4.42013 -1.75487 -0.10968 0.04 
690 1 1 -0.800606 -0.17675 -0.959567 0 0 0 0.0197022 0.0213281 -0.00354226 0 0 -6.57473 0.395495 1.89315 3.64611 0.04 
1251 1 1 -0.716699 -0.1309 -0.96042 0 0 0 0.360046 0.0758846 -0.0523465 -1.19985 0.10102 17.5071 -2.56173 1.27223 2.69676 0.04 
283 1 1 -0.646207 -0.17805 -0.957222 0 0 0 -0.184193 -0.0569179 -0.111088 2.61816 21.1165 -6.57561 -7.4763 -1.24819 0.283856 0.04 
1436 1 1 -0.584638 -0.118833 -0.960287 0 0 0 -0.346554 0.445688 0.254747 30.2011 -59.3852 -4.57318 -3.78595 -1.14272 -0.00280514 0.04 
383 1 1 -0.519615 -0.185346 -0.960671 0 0 0 -0.264932 0.394482 0.0747573 -56.4206 -53.609 10.7156 -4.321 0.246434 2.49828 0.04 
1328 1 1 -0.443624 -0.164984 -0.960245 0 0 0 -0.137906 0.501966 -0.083363 46.4735 10.2646 10.3316 -3.54412 -2.90427 -4.3734 0.04 
1250 1 1 -0.305395 -0.138174 -0.959444 0 0 0 -0.427736 0.162037 -0.0243354 -1.71721 0.16182 -7.42634 -2.15418 2.55982 -3.37327 0.04 
902 1 1 -0.100727 -0.151845 -0.947171 0 0 0 -0.0621558 0.234826 -0.215326 52.3513 -16.4895 -30.0808 -0.516989 1.50545 -1.2651 0.04 
1276 1 1 -0.0128335 -0.148769 -0.954139 0 0 0 0.0511937 0.189709 0.0183939 -24.3759 -36.5127 -10.8292 -0.207955 -1.26664 -1.20758 0.04 
807 1 1 0.0741022 -0.167361 -0.960705 0 0 0 0.041576 0.414508 -0.0296415 0.21633 -1.97027 33.0675 -5.97309 1.54049 1.65696 0.04 
752 1 1 0.161937 -0.154457 -0.95943 0 0 0 -0.622353 0.149237 0.110887 -52.8446 -5.96687 -92.0071 -3.4039 1.42513 -0.855558 0.04 
1426 1 1 0.346105 -0.154668 -0.961051 0 0 0 -0.0505692 0.172268 -0.0409655 1.68464 -2.4268 52.5096 3.20665 3.97417 1.54114 0.04 
1475 1 1 0.431435 -0.183956 -0.955357 0 0 0 0.159531 0.207835 -0.0311974 3.68058 -17.6927 -6.1574 -7.84311 2.51178 -5.62077 0.04 
13 1 1 0.519835 -0.162088 -0.957705 0 0 0 -0.199406 -0.264413 0.162955 0 0 -6.57473 -5.22328 -3.03572 6.35551 0.04 