ITEM: TIMESTEP
116000
ITEM: NUMBER OF ATOMS
1500
ITEM: BOX BOUNDS ff ff ff
-1 1
-1 1
-1 1
ITEM: ATOMS id type type x y z ix iy iz vx vy vz fx fy fz omegax omegay omegaz radius 
137 1 1 -0.96011 -0.960152 -0.960202 0 0 0 3.20304e-06 9.20945e-07 -5.93712e-06 -0.000404201 0.000478215 -0.000350333 -1.38556e-05 0.0002467 -1.17365e-06 0.04 
5 1 1 -0.830892 -0.960169 -0.960266 0 0 0 7.15276e-06 2.9424e-07 6.22668e-06 0.00032086 4.7144e-05 0.000575369 9.85399e-05 0.000299251 -0.000215488 0.04 
239 1 1 -0.750973 -0.96014 -0.960255 0 0 0 1.42393e-06 -5.08896e-06 1.49826e-06 0.000721903 -0.00113692 0.00192422 0.000119457 1.29242e-05 6.14112e-05 0.04 
34 1 1 -0.671017 -0.960044 -0.960246 0 0 0 1.88791e-06 -5.58088e-06 4.08465e-06 0.000658488 -0.00141258 0.000724522 0.000181089 1.16983e-05 -5.85291e-05 0.04 
415 1 1 -0.591068 -0.960062 -0.960291 0 0 0 2.56594e-06 3.407e-07 -4.9513e-06 0.0002607 0.00059885 -0.000125628 -7.9312e-05 0.00016308 8.07349e-05 0.04 
138 1 1 -0.510834 -0.960069 -0.960241 0 0 0 1.02435e-05 -6.97406e-07 -1.13032e-06 -0.000804219 0.000697745 0.000460452 0.000156782 0.000231298 -0.000107019 0.04 
323 1 1 -0.43029 -0.959877 -0.960154 0 0 0 1.37317e-05 1.50896e-05 1.04103e-05 -0.000944235 0.00192561 -0.00173053 -0.000360798 0.00049035 0.000559838 0.04 
130 1 1 -0.350318 -0.960038 -0.960252 0 0 0 -3.81577e-06 2.16441e-05 -3.30369e-07 -5.38371e-06 0.00153764 0.000118165 -0.000343295 -0.00033977 -0.000296792 0.04 
502 1 1 -0.270343 -0.960119 -0.960299 0 0 0 -1.87683e-06 1.03607e-05 6.1787e-06 0.000236115 5.92888e-05 0.000787738 -8.61106e-05 -6.40266e-06 -0.000152279 0.04 
494 1 1 -0.174299 -0.960163 -0.960229 0 0 0 -4.39466e-06 -4.82397e-07 2.95448e-06 0.00017672 0.00101914 0.00192712 2.16471e-05 -0.000193864 9.11059e-05 0.04 
448 1 1 -0.0943154 -0.960146 -0.960266 0 0 0 -3.6875e-06 1.94835e-06 -2.43495e-07 -0.000233457 0.000262534 0.000970943 -0.000128853 6.74505e-05 -2.77666e-05 0.04 
147 1 1 -0.0144648 -0.96016 -0.960215 0 0 0 -2.64934e-06 -3.0435e-06 -1.91881e-06 -0.000488264 -0.000324539 0.00140426 2.35896e-05 -6.81546e-05 -2.67986e-05 0.04 
218 1 1 0.0655312 -0.960172 -0.960209 0 0 0 -1.58898e-06 -5.00666e-06 -3.19373e-07 -0.000360836 2.46762e-05 0.00146212 5.21932e-05 -2.70709e-05 1.04911e-05 0.04 
339 1 1 0.145757 -0.960145 -0.960214 0 0 0 7.02272e-07 -5.33729e-06 8.66674e-08 0.000176109 -0.000104597 0.00121376 7.69516e-05 2.22841e-05 2.96869e-05 0.04 
81 1 1 0.225734 -0.960094 -0.960177 0 0 0 6.1414e-07 -1.5764e-06 -4.70162e-06 0.000235578 -0.000255191 -2.64144e-05 -7.8919e-05 5.0119e-05 6.16022e-06 0.04 
341 1 1 0.305651 -0.960069 -0.960157 0 0 0 -1.68756e-06 1.59589e-06 -3.4426e-06 -0.000103607 -0.000810712 -0.000373102 -0.000137972 -6.46437e-05 6.63358e-05 0.04 
203 1 1 0.385622 -0.960081 -0.960219 0 0 0 -3.54503e-06 6.1136e-06 -2.54139e-06 -8.0238e-05 -0.00119868 2.39592e-05 -0.000165363 -5.86e-05 0.000105386 0.04 
1019 1 1 0.473737 -0.960015 -0.960209 0 0 0 -3.03708e-06 -4.69797e-06 7.64914e-06 9.58748e-05 0.00029442 -0.000856343 0.000149417 -2.30002e-05 0.000229038 0.04 
821 1 1 0.553721 -0.960025 -0.960231 0 0 0 4.80024e-06 3.42414e-06 8.71807e-06 0.000263673 9.7005e-05 3.12281e-05 9.4071e-05 3.27378e-05 -6.69632e-05 0.04 
636 1 1 0.633692 -0.960458 -0.9602 0 0 0 7.18789e-06 -3.28444e-06 -5.61743e-06 9.38565e-05 -0.000109007 -0.00139981 -4.93293e-06 0.000200012 -0.00014838 0.04 
729 1 1 0.720239 -0.960012 -0.960161 0 0 0 3.62513e-06 1.40362e-06 -6.19236e-06 -0.000118116 -0.000479048 0.00171977 -0.000105373 3.57926e-06 -9.07932e-05 0.04 
503 1 1 0.800202 -0.960037 -0.960137 0 0 0 -6.72372e-07 -4.39996e-07 -9.69186e-07 0.000214962 -0.000174133 0.000304626 3.61917e-06 -4.93111e-05 2.21503e-05 0.04 
424 1 1 0.880173 -0.96004 -0.96016 0 0 0 -1.52831e-06 1.22046e-06 -1.07057e-06 0.000268623 -0.000564771 -0.000376748 -3.27435e-05 -1.73405e-05 7.97453e-05 0.04 
850 1 1 0.9601 -0.958945 -0.960223 0 0 0 -1.12138e-06 4.3288e-06 1.00871e-06 0.00010782 -0.00170876 -0.000841329 -0.000142163 -8.53847e-06 -7.67079e-05 0.04 
778 1 1 -0.959929 -0.880401 -0.960216 0 0 0 -1.22222e-05 6.9764e-06 -3.56844e-06 -0.00102957 -8.12947e-05 -0.000900081 -7.82314e-05 -0.000384989 0.000235508 0.04 
918 1 1 -0.880185 -0.897208 -0.960224 0 0 0 3.55102e-07 3.25556e-06 1.91689e-05 0.000820435 0.00181048 -0.000645048 0.000133338 -9.42339e-05 0.000254815 0.04 
246 1 1 -0.791824 -0.890618 -0.960152 0 0 0 7.19695e-06 -5.82349e-07 1.94551e-05 0.00100385 -8.6874e-06 0.00135204 0.000207701 9.37752e-05 0.000258196 0.04 
586 1 1 -0.71186 -0.890539 -0.960297 0 0 0 3.49927e-06 -1.00655e-05 -2.40558e-06 0.00138074 0.000118755 0.00255195 1.06172e-06 2.15582e-05 -0.000489399 0.04 
379 1 1 -0.630909 -0.890721 -0.960191 0 0 0 -7.80481e-06 -3.92781e-06 -5.26112e-06 0.000427419 0.000438669 0.000672002 0.000154804 -0.000236196 8.79727e-05 0.04 
105 1 1 -0.550902 -0.890948 -0.960215 0 0 0 -7.42603e-07 8.4527e-07 7.02012e-06 -0.000624503 0.00094696 -0.000369144 0.000184021 -0.000127841 -1.13807e-05 0.04 
289 1 1 -0.471001 -0.890716 -0.96025 0 0 0 -9.85357e-06 2.74349e-05 2.41656e-05 -0.000856976 0.00267311 0.00103822 -0.000219312 -0.000385188 0.00094877 0.04 
345 1 1 -0.387511 -0.869161 -0.960118 0 0 0 -0.00161665 -0.00126345 -4.87097e-05 5.32067e-06 -2.38736e-07 0.00669007 0.0316327 -0.0404775 0.077917 0.04 
209 1 1 -0.310223 -0.890869 -0.960163 0 0 0 6.63244e-06 2.83736e-05 -2.88886e-05 -0.000572895 0.000218238 0.00147293 -0.000942083 0.000164729 0.000111596 0.04 
647 1 1 -0.222237 -0.896276 -0.960225 0 0 0 7.49032e-06 5.71279e-06 -1.55001e-06 -4.17048e-05 0.000161906 0.000349314 -0.000113604 6.15815e-05 -0.00041213 0.04 
700 1 1 -0.134298 -0.891095 -0.960196 0 0 0 3.02863e-06 -6.97917e-08 2.7997e-06 0.000374062 0.000654918 0.00158178 9.77859e-05 0.000268169 -0.000140745 0.04 
616 1 1 -0.0544215 -0.890853 -0.960232 0 0 0 3.28344e-06 -1.30889e-06 -5.28062e-06 0.000173638 2.32642e-06 0.000960942 -4.53238e-05 -2.64986e-05 -0.00010155 0.04 
87 1 1 0.0254597 -0.891074 -0.960203 0 0 0 1.11794e-06 -6.30425e-06 2.7683e-07 -0.000304614 0.000201856 0.00126182 7.00403e-05 -2.64338e-05 -8.16296e-05 0.04 
655 1 1 0.105572 -0.891076 -0.960218 0 0 0 1.17121e-06 -7.46605e-06 1.46968e-06 -0.000229587 0.000153834 0.00173068 6.62113e-05 7.42737e-08 -4.58435e-05 0.04 
977 1 1 0.18566 -0.890926 -0.960202 0 0 0 -1.65069e-07 -4.86468e-06 -9.15573e-07 -9.35273e-05 -0.000244715 0.000413457 8.36442e-05 -2.02394e-05 -4.20036e-05 0.04 
19 1 1 0.265637 -0.890829 -0.960227 0 0 0 -1.24833e-06 -7.42857e-06 2.7985e-06 -7.63816e-05 -0.00103367 0.000656916 0.000392075 5.64942e-05 2.04859e-05 0.04 
443 1 1 0.345634 -0.890855 -0.960248 0 0 0 -2.75355e-06 2.04559e-06 -1.77576e-05 -0.000170075 -0.00107283 0.00134479 -0.000101387 0.000126047 -1.93071e-05 0.04 
664 1 1 0.429599 -0.89332 -0.960215 0 0 0 1.45938e-06 -2.75419e-06 7.1913e-06 -0.000662709 -0.00110401 -0.000323651 0.000114632 -1.16283e-06 -0.000312384 0.04 
74 1 1 0.59436 -0.891144 -0.960225 0 0 0 1.9283e-05 1.5475e-06 1.11241e-06 0.000227706 -0.00037926 -0.00102039 -0.000155121 0.000574637 -0.000203063 0.04 
50 1 1 0.674248 -0.892015 -0.960177 0 0 0 9.90314e-07 1.85106e-06 -2.81173e-07 6.16847e-05 -0.000410788 -0.0010631 -8.96975e-05 -0.000232243 0.000323115 0.04 
1 1 1 0.749841 -0.866831 -0.960242 0 0 0 -3.44682e-06 6.64943e-06 7.28016e-06 8.26516e-05 -0.000629701 -0.000374839 -0.000167086 -4.37792e-06 -0.000180563 0.04 
812 1 1 0.878013 -0.880136 -0.960204 0 0 0 -2.01338e-06 -1.67692e-08 -5.10932e-06 0.000207434 -0.000130068 -0.000562353 3.82684e-06 1.03821e-05 -6.76117e-05 0.04 
446 1 1 -0.960244 -0.800741 -0.960215 0 0 0 -3.91608e-06 3.21776e-06 3.8824e-07 0.00136768 3.17404e-05 -0.000177024 2.96882e-05 -0.000106691 -0.000223688 0.04 
352 1 1 -0.840947 -0.82753 -0.960338 0 0 0 1.11227e-06 3.65502e-06 1.5361e-05 0.00242 0.000972847 -0.000263955 -0.000227455 -6.10361e-05 -0.000159057 0.04 
894 1 1 -0.761751 -0.816673 -0.960285 0 0 0 8.53317e-06 -5.26223e-06 1.10718e-05 0.00168065 9.23037e-05 -0.000908293 0.000214803 0.000415812 -0.000408843 0.04 
960 1 1 -0.681852 -0.816441 -0.960115 0 0 0 2.0955e-06 -4.81491e-06 -2.101e-06 0.000543629 -0.000601842 -0.000468317 8.77575e-05 2.65125e-05 0.000611398 0.04 
380 1 1 -0.535213 -0.812504 -0.960157 0 0 0 -1.12017e-05 1.81752e-05 8.43141e-06 -0.00163841 0.00213368 0.000313798 -0.000425902 -0.000328428 0.000590908 0.04 
720 1 1 -0.257532 -0.824582 -0.96029 0 0 0 1.50545e-05 2.12471e-05 -1.49138e-05 0.000929547 -0.000323436 0.0011105 -0.000336977 5.73027e-05 0.00022448 0.04 
161 1 1 -0.175356 -0.82283 -0.960298 0 0 0 1.06728e-06 4.75939e-06 1.27207e-05 0.00112531 0.00158289 0.0035946 -0.000138708 1.61854e-05 8.57412e-05 0.04 
385 1 1 -0.0954131 -0.82014 -0.960192 0 0 0 -1.5408e-06 -6.47738e-06 5.41714e-06 0.00097496 0.00108884 0.00196185 0.000135997 -2.63976e-05 -0.0003014 0.04 
827 1 1 -0.0151056 -0.821238 -0.960264 0 0 0 3.76887e-06 -6.7066e-07 -1.04943e-05 0.000299486 0.000566675 0.000662266 -8.60517e-05 1.37407e-05 0.000277796 0.04 
784 1 1 0.0652889 -0.822029 -0.960241 0 0 0 1.89101e-06 -7.41205e-06 2.28334e-06 0.000178526 0.000630726 0.000858317 0.000108749 3.74836e-05 6.7899e-05 0.04 
211 1 1 0.145419 -0.821876 -0.960214 0 0 0 2.56154e-06 -7.09572e-06 2.43866e-06 0.000161502 0.000142654 0.00106643 6.82196e-05 2.35111e-05 1.88008e-05 0.04 
121 1 1 0.225286 -0.821505 -0.960185 0 0 0 4.12702e-06 -6.37825e-06 1.23174e-06 0.00013474 -0.000447346 0.000690475 7.9693e-05 5.7989e-05 -4.07039e-05 0.04 
354 1 1 0.302764 -0.802489 -0.960232 0 0 0 5.99137e-06 -1.79348e-06 -6.46706e-07 -3.61353e-05 -0.000837052 -0.00017561 4.4979e-05 7.90888e-05 0.000125818 0.04 
229 1 1 0.380706 -0.819076 -0.960368 0 0 0 5.92393e-06 -2.40447e-06 -4.71297e-06 -0.000360042 -0.000931297 0.000172964 7.56329e-05 -3.26802e-05 -0.000260233 0.04 
369 1 1 0.456121 -0.822155 -0.935181 0 0 0 1.37648e-05 -1.12543e-05 6.44515e-06 -0.00114023 -0.00167563 -0.000575688 -0.000211591 -0.000272774 -3.77196e-05 0.04 
396 1 1 0.51956 -0.863497 -0.960239 0 0 0 1.48336e-05 -5.70424e-06 1.45537e-05 -0.000828401 -0.0013972 -0.000698122 0.00019393 0.000124999 0.000110337 0.04 
866 1 1 0.594027 -0.811307 -0.960336 0 0 0 2.45881e-07 4.13424e-06 -2.48859e-05 -0.000367842 -0.00109076 -0.000488379 7.7646e-05 -0.000150161 0.000298854 0.04 
628 1 1 0.673821 -0.812298 -0.960205 0 0 0 -3.43568e-06 5.95278e-06 -6.94705e-06 0.000153473 -0.000724047 -0.000783564 -6.43975e-05 -0.000184999 -0.000298164 0.04 
554 1 1 0.818679 -0.826524 -0.960283 0 0 0 6.79451e-08 1.08999e-06 -1.57614e-06 -0.000180808 -0.000543778 -0.000519728 -1.60908e-06 6.88029e-05 -8.58271e-06 0.04 
417 1 1 0.960154 -0.833965 -0.960253 0 0 0 -3.01627e-06 2.96412e-06 4.71438e-06 -0.000123229 -0.000680967 -0.000699558 -0.00010445 -2.50549e-05 -8.09296e-05 0.04 
282 1 1 -0.889436 -0.764116 -0.960201 0 0 0 3.59763e-06 7.59408e-10 1.11662e-05 0.00234635 0.000988812 -0.000365334 0.000131794 0.000132195 0.000335556 0.04 
492 1 1 -0.810313 -0.7532 -0.960206 0 0 0 9.63234e-06 2.6986e-05 6.94946e-08 0.00271855 0.00229443 -0.000682054 -0.0010352 0.000173316 3.41405e-05 0.04 
290 1 1 -0.609446 -0.782716 -0.960221 0 0 0 9.98017e-08 4.44276e-06 -3.20712e-06 -0.000852751 -0.000638252 0.000666002 3.48274e-05 1.88459e-05 -0.000410007 0.04 
52 1 1 -0.453375 -0.788996 -0.960332 0 0 0 -1.71768e-05 2.63919e-05 2.21822e-05 -0.00261651 0.00255912 0.00169259 -0.000676025 -0.000586013 -7.6188e-05 0.04 
480 1 1 -0.375659 -0.770535 -0.960362 0 0 0 -9.27964e-06 1.73685e-05 4.92157e-05 -0.00145104 0.00149815 0.00556723 -0.00045564 -0.000292983 -0.000211447 0.04 
402 1 1 -0.297581 -0.753571 -0.960118 0 0 0 1.68731e-05 1.7296e-05 1.45001e-05 0.000718009 0.00176499 0.00273539 -0.000472411 0.000669496 0.000140815 0.04 
322 1 1 -0.217706 -0.75534 -0.960131 0 0 0 1.2774e-05 1.7417e-05 -9.46592e-06 0.00223214 0.00206121 0.0011412 -0.000149397 6.2393e-05 -0.000206327 0.04 
376 1 1 -0.137785 -0.752317 -0.960137 0 0 0 8.93348e-06 3.00561e-06 -2.76137e-06 0.00221038 0.00119337 0.00139032 -0.000178731 -1.67164e-05 -0.000280124 0.04 
204 1 1 -0.059566 -0.735823 -0.960304 0 0 0 6.51267e-06 -8.7654e-06 1.2354e-06 0.000454016 0.00173198 -0.00176122 0.000303702 -0.000132329 0.00027068 0.04 
1122 1 1 0.0193149 -0.74896 -0.960158 0 0 0 1.80192e-05 -4.40437e-07 -9.43739e-06 0.000477975 0.00177393 3.84771e-05 -1.01518e-05 0.000469858 -7.62361e-05 0.04 
773 1 1 0.105142 -0.753051 -0.960328 0 0 0 8.96593e-06 -3.91574e-06 -6.10424e-06 0.00048955 0.000326447 0.000609605 -0.000209228 0.000111809 -0.000249283 0.04 
725 1 1 0.185119 -0.75234 -0.960163 0 0 0 3.13869e-06 -6.69343e-06 1.38233e-07 0.000503024 0.000293938 0.000614253 7.24346e-05 -0.000112198 5.71852e-05 0.04 
159 1 1 0.345573 -0.735002 -0.960256 0 0 0 5.00971e-06 -2.76289e-06 2.38156e-06 3.12974e-05 -0.000510605 -0.000495243 3.95921e-05 -4.93434e-07 -6.56364e-05 0.04 
688 1 1 0.482791 -0.751117 -0.96023 0 0 0 5.05611e-06 -8.93682e-06 -7.27861e-06 -0.000426857 -0.00149716 -0.000438146 5.64587e-05 9.42788e-05 0.000152067 0.04 
757 1 1 0.561591 -0.738304 -0.960169 0 0 0 -1.98903e-06 -5.82365e-06 -1.2113e-05 -0.000234322 -0.00189672 0.000286766 0.000218547 -1.69992e-05 -0.000229588 0.04 
519 1 1 0.641385 -0.739389 -0.960172 0 0 0 -1.24645e-06 2.37038e-06 -5.59925e-07 8.4588e-05 -0.00128017 -0.000113367 8.90138e-05 -4.82627e-05 0.000310224 0.04 
742 1 1 0.749359 -0.786904 -0.960233 0 0 0 1.21725e-06 6.2777e-07 -6.52775e-07 3.32229e-05 -0.000401755 -0.000850186 -3.89695e-05 3.36335e-05 8.35491e-05 0.04 
603 1 1 0.818346 -0.74666 -0.960129 0 0 0 2.06646e-06 6.04219e-07 -4.36821e-06 -0.000222409 -0.000398077 -0.000796334 -6.94715e-05 3.12424e-05 -1.3404e-05 0.04 
86 1 1 0.891232 -0.793682 -0.960276 0 0 0 -3.52178e-07 2.31743e-06 -7.26841e-06 -0.000438862 -0.000613424 -0.00122529 -7.96735e-05 -2.32201e-05 2.30915e-05 0.04 
972 1 1 0.96024 -0.753737 -0.960208 0 0 0 -7.15518e-07 1.03086e-06 -3.70533e-06 -0.000288586 -0.000624644 -0.000484935 -4.3356e-06 -8.37957e-05 -4.08974e-05 0.04 
488 1 1 -0.960206 -0.720977 -0.960237 0 0 0 4.61332e-06 6.02581e-06 2.87007e-06 0.000574159 0.000648024 0.000376644 -1.40168e-05 0.000106198 0.000201515 0.04 
532 1 1 -0.889466 -0.684333 -0.960246 0 0 0 4.5552e-06 -4.54714e-06 1.35274e-05 0.000336903 0.00109987 0.000113359 8.39098e-05 -0.000166822 -0.000650967 0.04 
564 1 1 -0.744084 -0.708374 -0.96026 0 0 0 7.01807e-06 -1.99932e-06 -3.32921e-06 0.00347291 0.000242196 0.000640141 0.000395364 -0.000256602 -0.000283527 0.04 
314 1 1 -0.6662 -0.726449 -0.960118 0 0 0 1.2287e-05 -1.83195e-07 -5.0403e-06 0.00161887 -0.000786471 -0.000565458 -0.000158703 0.000234042 0.000169076 0.04 
783 1 1 -0.611381 -0.667464 -0.960259 0 0 0 2.10983e-05 1.47793e-05 4.43577e-06 -0.0038687 0.000531366 -0.00390447 -0.000555701 0.000498025 -0.000350614 0.04 
1127 1 1 -0.5551 -0.724255 -0.960255 0 0 0 1.45364e-05 1.58369e-05 -6.61542e-06 -0.0020129 0.00215173 0.000644345 -0.000111688 0.000436141 0.000209755 0.04 
241 1 1 -0.476073 -0.712364 -0.960182 0 0 0 -2.8634e-06 2.74334e-05 -1.7777e-05 -0.00160573 0.00292405 -0.000244555 -0.000305507 -0.00014733 2.14065e-05 0.04 
85 1 1 -0.391017 -0.692253 -0.960257 0 0 0 -7.74982e-07 1.97947e-05 1.26652e-06 -0.00124706 0.00174496 0.00192388 -0.000569146 -9.12723e-05 -0.00014415 0.04 
511 1 1 -0.313004 -0.675099 -0.960171 0 0 0 1.43949e-05 9.74956e-06 8.54651e-06 0.000569295 0.00088729 0.000506524 7.39454e-05 0.000107423 -7.96798e-05 0.04 
873 1 1 -0.233105 -0.677236 -0.960335 0 0 0 1.79828e-05 1.93469e-05 -1.40597e-05 0.00117153 0.00127089 -0.000599383 -0.000495605 0.000528057 0.000208253 0.04 
738 1 1 -0.122534 -0.673871 -0.960256 0 0 0 1.92017e-05 6.28926e-06 -3.67306e-06 0.00232293 0.00276065 -0.000533522 -8.41377e-05 0.000203146 9.31885e-05 0.04 
1088 1 1 0.110954 -0.673752 -0.960227 0 0 0 1.01911e-05 -4.52437e-06 -1.54411e-05 0.000661942 0.000440965 0.000804528 0.000144153 0.000197333 0.000165292 0.04 
862 1 1 0.208436 -0.675887 -0.960172 0 0 0 4.95994e-06 -2.33803e-06 9.95672e-07 0.0013506 0.000551969 0.000663459 -5.64745e-05 2.43786e-05 4.22422e-05 0.04 
967 1 1 0.265708 -0.73166 -0.960287 0 0 0 9.11112e-06 -3.00967e-06 3.43296e-06 0.000796026 2.8582e-05 -5.45111e-05 3.79081e-05 0.000155747 -5.65008e-05 0.04 
451 1 1 0.432784 -0.688737 -0.960201 0 0 0 9.65587e-07 -1.01396e-05 -3.97075e-06 0.00016657 -0.00086898 4.94754e-06 0.000136515 5.90645e-05 -3.68951e-05 0.04 
177 1 1 0.511719 -0.675932 -0.960227 0 0 0 -4.28992e-06 -3.67864e-07 1.44355e-06 9.82924e-05 -0.00177151 0.00028685 0.000116853 -2.90421e-05 0.000202464 0.04 
308 1 1 0.678757 -0.668897 -0.960169 0 0 0 1.56618e-06 3.57834e-06 9.90372e-06 -3.08624e-05 -0.000631496 -0.000348684 8.54024e-05 1.72675e-05 -0.000220912 0.04 
439 1 1 0.748962 -0.707084 -0.960209 0 0 0 3.10241e-06 -2.99444e-06 -1.95366e-07 0.000381785 -0.000597554 -0.000371783 4.91686e-05 0.000147675 -4.07993e-05 0.04 
662 1 1 0.818044 -0.666736 -0.960231 0 0 0 4.55376e-06 -3.32685e-06 -5.66199e-06 -8.69869e-05 -0.000104749 -0.00110522 8.76823e-05 1.40759e-05 2.96322e-05 0.04 
188 1 1 0.891037 -0.713775 -0.960247 0 0 0 1.72729e-06 8.97142e-07 -6.0157e-06 -0.00019287 -0.000507302 -0.000649511 4.28504e-05 4.04774e-05 -1.96757e-05 0.04 
987 1 1 0.960144 -0.673802 -0.960181 0 0 0 9.1402e-07 -4.33836e-07 -1.74581e-06 -0.000138926 -0.000594526 -7.48651e-05 2.82027e-05 -3.57873e-05 5.14442e-07 0.04 
990 1 1 -0.877721 -0.605528 -0.96022 0 0 0 3.54124e-05 -1.28946e-05 2.48399e-05 -0.000627217 0.00088125 0.000799927 0.000353155 0.000917229 0.000106714 0.04 
826 1 1 -0.811813 -0.666091 -0.960159 0 0 0 1.24134e-05 -1.92443e-05 9.06788e-06 0.00112966 -6.33602e-05 0.00149098 0.000436163 0.000324188 0.000314524 0.04 
1152 1 1 -0.757384 -0.607624 -0.960258 0 0 0 9.32707e-06 -1.56025e-05 1.61934e-05 -0.0010397 0.000500755 0.00118134 0.000205538 6.42539e-05 9.89859e-05 0.04 
567 1 1 -0.689509 -0.64998 -0.960178 0 0 0 4.20969e-05 -5.1523e-06 3.96031e-07 0.00163698 0.000765637 -0.000203206 0.000103865 0.00111556 -0.000588438 0.04 
170 1 1 -0.527835 -0.64915 -0.960297 0 0 0 5.98423e-06 2.48835e-05 -2.52141e-05 -0.00314764 0.00145892 -0.00263698 -0.000451355 -7.86064e-05 -4.99829e-05 0.04 
375 1 1 -0.448831 -0.637332 -0.960304 0 0 0 1.46418e-05 2.06264e-05 -2.91229e-05 -0.00137343 0.00122177 -0.000977418 -0.000355897 0.000243381 -0.000331352 0.04 
709 1 1 -0.36733 -0.616042 -0.960195 0 0 0 1.28756e-05 4.99293e-06 -7.35693e-06 -0.000638715 0.000324086 -0.000286653 6.47735e-06 0.00020905 -0.000205737 0.04 
1046 1 1 -0.0467054 -0.648898 -0.960242 0 0 0 9.67493e-06 3.69348e-06 -3.26407e-06 0.000881694 0.00237853 -0.000237766 -9.62436e-05 6.95146e-05 -0.000229259 0.04 
581 1 1 0.0319302 -0.662364 -0.960298 0 0 0 6.82292e-06 -7.33163e-06 -1.04972e-05 0.00140733 0.00121602 -1.13752e-05 0.000274765 3.7426e-05 0.000102573 0.04 
61 1 1 0.160809 -0.611665 -0.960225 0 0 0 6.51799e-07 -4.84013e-06 -1.09496e-06 0.000767711 0.000684221 -0.000350691 0.000152411 -0.000140671 -1.68043e-05 0.04 
1052 1 1 0.252401 -0.609102 -0.960288 0 0 0 3.43049e-06 8.03129e-07 3.18694e-06 0.000162182 0.000464124 -0.000132282 7.07219e-06 7.64752e-06 6.21234e-05 0.04 
656 1 1 0.31191 -0.662487 -0.960129 0 0 0 4.94089e-06 2.14138e-06 5.11809e-06 0.000433072 -0.000248076 -0.000186472 -3.40954e-05 3.94065e-05 -6.11431e-06 0.04 
1082 1 1 0.383105 -0.626077 -0.960242 0 0 0 2.19596e-06 -9.43175e-07 6.57215e-06 0.000325053 -0.000548069 0.000193779 6.38646e-05 0.000195055 -0.000101661 0.04 
255 1 1 0.462 -0.613477 -0.960265 0 0 0 -1.71732e-05 -6.80984e-06 9.74328e-06 0.000419943 -0.00068025 0.00106105 0.000148706 -0.000362696 0.000149725 0.04 
880 1 1 0.598422 -0.666186 -0.960224 0 0 0 -9.64088e-06 -1.04558e-05 -3.47453e-06 0.000312438 -0.0024222 0.000235755 0.000236762 -0.000261457 -0.00103116 0.04 
1026 1 1 0.543027 -0.601443 -0.960162 0 0 0 1.00895e-05 -7.8141e-07 -7.11724e-06 -0.00243386 -0.00274328 -0.00204105 -0.000200288 0.000202775 -0.000569569 0.04 
543 1 1 0.748549 -0.627317 -0.960159 0 0 0 8.62806e-06 -5.41827e-06 7.84207e-07 -5.92353e-05 -0.000360384 -0.000788136 7.43893e-05 0.000184257 -3.76296e-05 0.04 
553 1 1 0.890863 -0.6339 -0.960238 0 0 0 3.26568e-06 -9.37945e-07 -2.71308e-06 -0.000127896 -0.000668066 -2.53711e-05 1.92221e-05 4.24305e-05 -3.37919e-05 0.04 
260 1 1 -0.960001 -0.595548 -0.960243 0 0 0 -1.08179e-05 -3.59629e-07 -1.66494e-05 0.000436415 0.000743264 0.00163314 0.000161024 -0.000310721 -1.42862e-05 0.04 
565 1 1 -0.81668 -0.553962 -0.96023 0 0 0 1.64857e-05 -1.9245e-05 3.97376e-05 3.02778e-05 0.00153053 -0.000657281 0.000545748 0.000109273 -7.75219e-05 0.04 
1113 1 1 -0.703061 -0.549222 -0.960278 0 0 0 2.16071e-05 -8.63815e-06 5.66061e-06 -0.0013971 0.000995354 -0.00113173 0.000140825 0.000488771 -0.000276165 0.04 
925 1 1 -0.635196 -0.591292 -0.960146 0 0 0 1.7915e-05 3.76022e-06 -6.92455e-06 -0.00251171 0.000546781 -0.000496457 0.000133949 -2.28325e-06 0.000733678 0.04 
893 1 1 -0.547624 -0.562691 -0.960174 0 0 0 1.3274e-05 1.73145e-05 -6.31959e-06 -0.00325794 0.000422782 0.00187734 -0.000441163 0.000165744 0.000431169 0.04 
1103 1 1 -0.454636 -0.557855 -0.9603 0 0 0 1.37383e-05 3.63673e-06 -2.66037e-05 -0.000933562 -5.22074e-05 -0.000460824 0.000107379 0.000131772 0.000301516 0.04 
1448 1 1 -0.377549 -0.536781 -0.960162 0 0 0 8.07813e-06 -1.70613e-06 -1.10074e-05 0.000539936 -0.00043089 0.000419049 0.000107213 -6.6045e-05 2.92967e-06 0.04 
631 1 1 -0.303804 -0.567605 -0.960239 0 0 0 1.20137e-05 -2.92517e-07 -1.56558e-05 0.000438262 6.25947e-05 0.000271044 1.15126e-05 0.000119282 6.35285e-05 0.04 
714 1 1 -0.230011 -0.597895 -0.960352 0 0 0 1.30102e-05 8.94059e-07 -2.34157e-05 0.000273508 0.000414934 0.000379421 0.000258344 0.000203552 -0.000234092 0.04 
962 1 1 -0.165419 -0.550903 -0.960204 0 0 0 1.01327e-05 2.31215e-06 -2.6431e-05 0.00152389 0.00101961 -0.000280664 -9.46808e-05 5.49848e-05 0.000166368 0.04 
950 1 1 -0.0923583 -0.583303 -0.960249 0 0 0 1.00845e-05 1.18893e-05 -2.2851e-05 0.00192247 0.00189657 -0.00143715 -0.000229429 4.22512e-05 0.000126413 0.04 
716 1 1 0.00265779 -0.586035 -0.960217 0 0 0 1.34515e-05 -5.13598e-07 -5.18555e-06 0.00164869 0.000258748 -0.000791458 -6.89369e-05 0.000161827 -7.21019e-05 0.04 
388 1 1 0.0814131 -0.599613 -0.960228 0 0 0 5.73904e-06 -4.17631e-06 1.89225e-07 0.000190842 0.000380908 -0.000670895 0.00014428 2.1511e-05 6.58609e-06 0.04 
867 1 1 0.204619 -0.545124 -0.960172 0 0 0 1.17141e-06 1.42216e-07 -4.64358e-06 -0.000192654 0.000535579 -0.00126003 -0.000203688 8.57673e-05 2.17603e-05 0.04 
576 1 1 0.321588 -0.564046 -0.960233 0 0 0 -9.66893e-06 -3.16279e-06 -2.26196e-05 -7.24669e-05 0.000440574 0.00197695 0.000135292 -6.26415e-05 -0.000268371 0.04 
408 1 1 0.403788 -0.548892 -0.960207 0 0 0 -7.26374e-06 6.41458e-06 5.60602e-06 -0.000439442 -0.000623705 -0.000171919 -0.000126977 0.000170048 0.000237035 0.04 
814 1 1 0.482705 -0.536364 -0.960226 0 0 0 -8.15948e-06 -1.04397e-05 1.14379e-05 -0.00125316 -0.000388543 0.0013553 0.00016445 -0.000271008 -0.000450461 0.04 
1288 1 1 0.589751 -0.536429 -0.960267 0 0 0 3.27903e-06 4.76228e-06 2.75902e-05 -0.00116097 -0.00326946 -0.00150384 -0.000273806 7.99657e-05 -0.000247148 0.04 
1111 1 1 0.678414 -0.58909 -0.96026 0 0 0 1.63409e-05 3.40576e-06 1.81962e-05 1.36835e-05 -0.00095128 -0.000505473 -1.64618e-05 0.000396221 -0.000190496 0.04 
1138 1 1 0.747381 -0.547509 -0.960207 0 0 0 2.45251e-05 -3.08682e-06 1.40641e-06 0.000255755 -0.000357511 8.38826e-05 2.54283e-05 0.000307994 -0.000417204 0.04 
58 1 1 0.817503 -0.585979 -0.960208 0 0 0 1.04297e-05 -1.34614e-05 -1.77195e-05 -0.000339588 -0.000921103 -0.000563198 0.000346704 0.000112914 0.000136146 0.04 
1107 1 1 0.890822 -0.554039 -0.960246 0 0 0 2.32974e-06 -3.79106e-06 -5.02199e-06 -0.00033155 -0.000683566 0.000381629 7.40308e-05 -0.000106337 0.000122663 0.04 
252 1 1 0.960091 -0.593929 -0.960182 0 0 0 1.72335e-06 -2.4844e-07 -1.04708e-07 -0.000122759 -0.000408792 0.000376542 2.69022e-05 -8.40941e-06 3.73657e-06 0.04 
670 1 1 -0.960083 -0.515581 -0.960206 0 0 0 6.79615e-06 -7.88844e-06 -2.03273e-06 0.000110759 0.00156052 0.00117064 0.000120418 0.000122316 -0.000310141 0.04 
644 1 1 -0.761222 -0.493807 -0.960278 0 0 0 1.06815e-05 -1.71394e-05 2.97852e-05 -5.48403e-05 0.00246068 -0.00138805 0.000448423 0.000314234 -0.000519127 0.04 
833 1 1 -0.684416 -0.471796 -0.960325 0 0 0 2.27758e-06 1.52317e-07 -1.89795e-06 -0.000871063 0.00037167 -0.00250707 -0.000278276 0.00019491 0.000850587 0.04 
435 1 1 -0.616325 -0.513721 -0.960225 0 0 0 7.2896e-06 1.18721e-05 -2.77557e-07 -0.00232627 0.000903264 0.00012373 -0.000180936 0.000212551 -0.000376516 0.04 
816 1 1 -0.503031 -0.494467 -0.960281 0 0 0 1.17237e-06 2.90275e-06 -1.83104e-05 -0.00110775 -0.000468892 -6.26423e-05 -7.56056e-05 -3.104e-05 -9.71047e-05 0.04 
489 1 1 -0.313515 -0.488342 -0.96024 0 0 0 7.01269e-06 -8.69664e-06 -5.83026e-06 0.000519099 -0.000258186 0.00116122 0.000182344 2.15363e-05 6.58713e-05 0.04 
883 1 1 -0.239739 -0.519014 -0.960264 0 0 0 1.181e-05 -4.08259e-06 -8.85901e-06 0.00121159 -0.000173049 0.000406994 0.000114246 0.000143081 0.000147067 0.04 
305 1 1 -0.175401 -0.471599 -0.960213 0 0 0 1.21643e-05 -3.72341e-06 -1.41349e-05 0.000761799 0.000237271 -0.000217884 0.000190734 0.00025138 -0.000207054 0.04 
675 1 1 -0.101731 -0.5026 -0.960187 0 0 0 5.55459e-06 2.79945e-06 -1.58137e-05 0.000937903 -0.00193341 0.000137105 -7.92097e-06 -0.000192542 0.000192647 0.04 
1066 1 1 -0.0221839 -0.510122 -0.960311 0 0 0 2.51339e-05 4.59778e-06 -2.12115e-05 0.00213265 0.000103884 -0.000948807 -0.000192375 0.000537295 -0.000213061 0.04 
143 1 1 0.0589779 -0.523024 -0.960124 0 0 0 1.01908e-05 7.65788e-06 6.00478e-06 0.000831257 -3.8851e-05 -0.000761501 -0.000141431 0.000172265 -0.000200566 0.04 
1346 1 1 0.153919 -0.483517 -0.960267 0 0 0 3.9005e-06 -6.86852e-07 -1.03531e-05 0.00104513 0.000312423 -0.00152104 3.21076e-05 3.32722e-05 -3.54732e-06 0.04 
1000 1 1 0.271508 -0.501727 -0.960223 0 0 0 -7.22719e-06 5.36716e-07 -1.24403e-05 -0.000113722 0.000210774 0.000400567 0.000102604 -5.20086e-05 3.77476e-05 0.04 
792 1 1 0.350499 -0.489392 -0.960249 0 0 0 -1.0543e-05 -1.53184e-06 -2.86841e-06 0.0001016 0.000565501 0.000413961 0.000229153 -0.000282701 -0.0001119 0.04 
1361 1 1 0.432907 -0.473801 -0.96021 0 0 0 -1.36112e-06 -4.34788e-06 -1.98684e-06 -0.00111547 6.64304e-05 -0.000572893 0.000175085 -0.00024104 0.000134831 0.04 
584 1 1 0.536204 -0.47709 -0.960204 0 0 0 4.17725e-06 -3.04862e-06 9.90085e-06 -0.00144863 -0.000791949 0.000418623 -0.000162254 5.20319e-05 0.000237222 0.04 
908 1 1 0.677146 -0.50943 -0.960259 0 0 0 1.91786e-05 3.96542e-06 1.43978e-05 4.77117e-05 -0.00127892 0.000553365 -0.00014971 0.000172403 0.000112317 0.04 
1309 1 1 0.804447 -0.491605 -0.960226 0 0 0 3.12148e-05 2.03534e-05 -1.04699e-05 0.000923819 0.00121057 -3.29521e-05 -0.000382096 0.000640456 0.00102696 0.04 
9 1 1 0.890886 -0.474152 -0.96018 0 0 0 7.39807e-06 5.27237e-06 -7.79397e-06 -0.0011447 -0.000425649 -0.00178583 -0.000236112 0.000122968 -0.00020344 0.04 
771 1 1 0.960095 -0.514066 -0.960231 0 0 0 2.31563e-06 1.24125e-06 -2.46609e-07 -0.000343735 0.000155867 0.000998759 -9.68708e-05 1.87751e-05 -3.42269e-05 0.04 
1055 1 1 -0.960062 -0.423547 -0.960212 0 0 0 -5.32901e-07 -4.50185e-06 -6.76242e-06 0.000259051 7.27192e-05 -0.00053486 0.00019706 -3.88387e-05 -0.000120168 0.04 
739 1 1 -0.890752 -0.463397 -0.960241 0 0 0 4.71554e-06 5.47284e-07 1.41815e-05 0.000555392 0.000421373 -0.00134552 -0.000377379 0.000199687 0.00018898 0.04 
1142 1 1 -0.821571 -0.423415 -0.96026 0 0 0 5.97943e-06 -7.28948e-06 -1.14871e-05 -0.000990233 0.000722152 0.000371314 6.4565e-05 0.00018198 -0.000503967 0.04 
613 1 1 -0.636931 -0.407836 -0.960299 0 0 0 -1.5219e-05 4.39807e-06 -1.17408e-05 -0.000753001 0.000880308 -0.00220566 0.000158323 -0.000366016 -0.000245025 0.04 
620 1 1 -0.568908 -0.449471 -0.96023 0 0 0 -4.20762e-06 3.61231e-06 -1.21775e-05 -0.00137159 -0.000412829 -0.000181741 -3.06767e-05 -3.95874e-06 0.0003611 0.04 
1316 1 1 -0.460836 -0.426641 -0.96033 0 0 0 -3.01732e-06 -4.43655e-06 -2.02185e-05 -0.00186069 6.07247e-05 -0.00112056 -0.0001565 -0.000211238 -6.84034e-05 0.04 
344 1 1 -0.387126 -0.457462 -0.960274 0 0 0 3.37916e-06 -9.97135e-06 -5.33748e-06 -0.000171188 -0.000232497 0.00216601 9.82528e-05 2.96933e-06 -1.48822e-05 0.04 
247 1 1 -0.323486 -0.40902 -0.960224 0 0 0 9.25309e-07 -9.84995e-06 1.87207e-06 -6.32204e-05 -7.27132e-05 0.00216931 0.000122938 -4.26962e-05 9.28431e-05 0.04 
382 1 1 -0.24987 -0.440011 -0.960247 0 0 0 6.85999e-06 -9.21637e-06 1.93901e-06 0.000479813 -0.000184949 0.00140888 0.000170411 7.39866e-05 -4.14303e-05 0.04 
1271 1 1 -0.105194 -0.422597 -0.960247 0 0 0 1.72284e-05 -7.08792e-06 -1.4409e-05 0.00240175 -0.00108709 -0.00140646 8.318e-05 0.000441199 0.000373003 0.04 
1249 1 1 0.0294278 -0.448871 -0.960288 0 0 0 1.88688e-05 1.01619e-05 6.37015e-06 0.00195798 0.000191073 -0.000998596 -9.18118e-05 0.000197866 0.000134603 0.04 
1030 1 1 0.104305 -0.421015 -0.96028 0 0 0 1.56676e-05 1.08888e-05 1.37626e-06 0.00103924 -0.000674364 -0.00239556 -0.000118731 0.000454742 -0.000218915 0.04 
1148 1 1 0.22083 -0.439836 -0.96025 0 0 0 -5.34849e-06 4.37639e-07 -2.36972e-06 -1.82037e-05 0.000587249 -0.00104627 7.8566e-05 -9.3383e-06 3.78239e-05 0.04 
772 1 1 0.300186 -0.427301 -0.96021 0 0 0 -7.76011e-06 -7.00574e-07 3.15903e-06 9.13934e-05 0.00053049 -4.41548e-05 0.000186924 -0.000115137 -3.61253e-05 0.04 
845 1 1 0.379043 -0.414708 -0.960221 0 0 0 -6.28155e-06 -2.34145e-06 6.89089e-06 -8.75519e-05 0.000809929 -0.000432016 3.62145e-05 -1.00769e-05 8.61761e-05 0.04 
981 1 1 0.561051 -0.401067 -0.9602 0 0 0 5.44216e-06 -2.06734e-06 -7.1883e-07 -0.000615483 -0.000953593 -0.000175417 -5.25657e-05 0.000133301 -0.000160911 0.04 
1047 1 1 0.614308 -0.460357 -0.960196 0 0 0 7.04087e-06 3.84445e-06 1.5422e-06 -0.000637959 -0.00215325 0.00146095 -0.000177118 9.80293e-05 0.00012581 0.04 
1474 1 1 0.688413 -0.430481 -0.960203 0 0 0 3.69054e-06 5.15027e-06 -5.62599e-06 -8.94389e-05 -0.00100335 0.00103433 -0.000122534 2.61072e-05 1.13504e-05 0.04 