ITEM: TIMESTEP
54600
ITEM: NUMBER OF ATOMS
1500
ITEM: BOX BOUNDS ff ff ff
-1 1
-1 1
-1 1
ITEM: ATOMS id type type x y z ix iy iz vx vy vz fx fy fz omegax omegay omegaz radius 
137 1 1 -0.959727 -0.959601 -0.959916 0 0 0 0.0486344 -0.0746745 -0.0367504 0 0 -6.57473 1.15902 -0.602441 -1.24025 0.04 
5 1 1 -0.872808 -0.95576 -0.959911 0 0 0 -0.169866 0.0458461 0.297254 2.00713 -2.65984 -6.607 -1.07601 -0.536013 -0.52556 0.04 
239 1 1 -0.78688 -0.955926 -0.960385 0 0 0 0.136454 0.145537 0.0656022 -0.643047 -0.803351 14.0057 0.69128 -0.0519547 -1.12339 0.04 
34 1 1 -0.70617 -0.954476 -0.960579 0 0 0 0.28291 -0.0408103 0.0669642 -1.36042 0.782011 24.8086 -2.25761 1.40952 -2.56701 0.04 
415 1 1 -0.623422 -0.959007 -0.960193 0 0 0 0.141981 0.100516 -0.00136003 6.46037 -13.0375 3.5076 -0.175456 3.19161 -2.32028 0.04 
138 1 1 -0.531052 -0.959094 -0.960132 0 0 0 0.195046 -0.180199 -0.142313 -0.350202 0.297848 2.61994 -1.02228 -1.62334 -2.45978 0.04 
323 1 1 -0.437565 -0.960871 -0.960653 0 0 0 0.123193 0.126117 -0.29938 31.2377 42.4659 -9.81367 -0.469599 -0.984467 -2.24679 0.04 
130 1 1 -0.35701 -0.959716 -0.96006 0 0 0 -0.173307 0.080988 -0.00563647 0.143067 -0.0932323 -3.15945 0.295674 -0.77293 1.48741 0.04 
502 1 1 -0.276578 -0.959782 -0.960378 0 0 0 -0.0733991 -0.0185337 0.00774152 0.83333 0.636128 14.3928 0.114715 -1.38366 0.122662 0.04 
494 1 1 -0.165155 -0.960048 -0.960197 0 0 0 -0.0618509 -0.0364512 0.022898 7.95419 0.584312 -1.5953 0.254392 -1.13564 0.718833 0.04 
448 1 1 -0.0851811 -0.959748 -0.960203 0 0 0 -0.0759891 0.00606005 -0.0404129 -2.34085 -0.130145 -1.96397 -0.278906 0.451249 -0.869178 0.04 
147 1 1 -0.00469348 -0.959874 -0.96036 0 0 0 -0.0102219 0.0485863 0.000851124 9.37047 -7.44723 -7.42115 -1.80076 -0.229212 0.330022 0.04 
218 1 1 0.0756138 -0.959557 -0.96027 0 0 0 -0.00514586 0.0129 0.00593156 3.3574 -0.463199 3.14769 -0.276063 -0.1988 0.779715 0.04 
339 1 1 0.189319 -0.958215 -0.960337 0 0 0 -0.0771563 0.0722211 -0.0599414 17.4 -4.15681 0.453817 0.95671 -1.34284 -0.930683 0.04 
341 1 1 0.311515 -0.959992 -0.960124 0 0 0 -0.0462049 0.0317523 -0.0488028 -5.07567 -0.147537 -14.2808 -1.14656 -1.27544 1.19349 0.04 
203 1 1 0.392458 -0.95953 -0.960251 0 0 0 -0.0464068 0.00473844 -0.0917824 -10.0636 -3.0049 -8.94952 -0.0719552 -0.733548 1.18256 0.04 
1019 1 1 0.473499 -0.960122 -0.959094 0 0 0 -0.0961415 0.128061 -0.0383244 3.69415 2.14518 -34.1499 2.48925 -0.386735 2.28874 0.04 
821 1 1 0.55569 -0.957312 -0.959768 0 0 0 0.108077 0.111207 0.00539784 0 0 -6.57473 0.140217 0.787989 1.63542 0.04 
636 1 1 0.637857 -0.96046 -0.959014 0 0 0 0.121783 -0.00844038 -0.0726177 -1.19745 25.7698 -6.09899 -0.654655 0.50767 -0.247741 0.04 
729 1 1 0.720426 -0.959769 -0.960236 0 0 0 0.00258045 -0.0310696 -0.0473836 -9.09748 -0.447126 7.32449 0.737972 0.495055 -0.474857 0.04 
503 1 1 0.800173 -0.960317 -0.9604 0 0 0 -0.0726251 -0.0631936 -0.0131752 5.47945 3.56016 2.74022 0.343634 -0.735748 2.64299 0.04 
424 1 1 0.880666 -0.957825 -0.956707 0 0 0 -0.0249838 -0.0881285 -0.316671 -11.5973 -15.543 -4.02381 -0.93601 0.0684179 -0.523949 0.04 
850 1 1 0.960286 -0.957711 -0.959979 0 0 0 -0.0936985 -0.00916062 -0.00653549 -2.61525 -0.214369 -6.92774 0.34471 0.884392 0.243861 0.04 
918 1 1 -0.918429 -0.890143 -0.961642 0 0 0 0.0710831 0.0459519 0.0413331 -3.77167 -1.53107 84.4024 -0.249138 1.45453 3.03933 0.04 
246 1 1 -0.834567 -0.879441 -0.960138 0 0 0 0.0717029 0.0222471 0.200748 -1.39288 -1.50786 -6.28237 -1.73297 2.11994 -1.20303 0.04 
586 1 1 -0.744727 -0.882521 -0.96012 0 0 0 0.0683558 0.05152 0.015311 -0.275763 -0.169666 -0.0991788 -1.12478 1.443 -1.51111 0.04 
379 1 1 -0.659326 -0.887925 -0.960038 0 0 0 0.334972 0.0904937 -0.149452 -6.72742 12.4385 -1.80116 0.470706 0.283813 -0.291587 0.04 
105 1 1 -0.577425 -0.892008 -0.960307 0 0 0 0.087932 0.0783843 0.115703 11.6554 -13.7008 -11.9602 -2.2534 1.22588 1.77848 0.04 
289 1 1 -0.482172 -0.889452 -0.958734 0 0 0 0.000970865 0.0635575 0.246846 0 0 -6.57473 -2.91373 -1.41793 -2.18647 0.04 
345 1 1 -0.377154 -0.88186 -0.960377 0 0 0 -0.0437321 -0.157484 0.0837483 -1.53966 -0.620681 11.5154 -0.365099 -1.19155 -2.83764 0.04 
209 1 1 -0.295177 -0.881621 -0.960235 0 0 0 -0.0501922 0.0284634 0.0682761 -1.23758 -3.34249 1.07242 -0.41614 -1.64159 0.66012 0.04 
647 1 1 -0.217323 -0.899553 -0.960188 0 0 0 -0.0938099 0.0237272 -0.0254298 2.54225 -0.456666 4.61665 -0.365877 -0.748841 -0.385245 0.04 
700 1 1 -0.126939 -0.886098 -0.960099 0 0 0 0.12746 -0.176252 -0.0652481 -0.127011 0.269967 -0.212977 1.44083 1.3627 -0.230116 0.04 
616 1 1 -0.0469763 -0.888511 -0.959985 0 0 0 0.13728 -0.0802185 -0.0428664 -0.360081 -0.432938 -7.40113 0.386348 1.65099 2.04248 0.04 
87 1 1 0.033452 -0.889826 -0.957694 0 0 0 0.124066 0.0942293 -0.50111 -5.21096 -2.41899 -5.09914 2.02033 0.170282 0.574609 0.04 
655 1 1 0.132056 -0.902546 -0.960158 0 0 0 -0.09966 0.15491 -0.00967866 -0.745701 -0.335921 -4.57027 -1.60147 -1.17907 -1.56482 0.04 
19 1 1 0.257998 -0.898776 -0.960363 0 0 0 0.0883662 0.0704273 -0.107754 21.1746 -5.73273 -1.96554 -0.416066 -1.19216 -2.04654 0.04 
443 1 1 0.344697 -0.883106 -0.960277 0 0 0 0.0469452 0.019849 0.00447567 7.62061 -7.59519 1.1879 -1.13388 -1.4652 1.87221 0.04 
664 1 1 0.431127 -0.887078 -0.960853 0 0 0 0.0111608 0.102259 0.0188644 5.91631 -5.56311 28.9132 -1.38234 -0.487392 0.115106 0.04 
396 1 1 0.512195 -0.889961 -0.956678 0 0 0 0.148787 -0.09779 -0.0208897 16.6737 -15.0404 -28.3214 1.50629 -2.11745 0.614752 0.04 
74 1 1 0.598513 -0.888809 -0.960558 0 0 0 -0.215385 -0.120994 0.201398 1.34309 -5.51598 21.609 0.165649 -3.85807 -4.07118 0.04 
50 1 1 0.679421 -0.881303 -0.96083 0 0 0 0.108045 -0.0657969 0.0147969 -22.9267 -3.15219 25.1998 -0.0872238 2.68437 -0.00756718 0.04 
812 1 1 0.879157 -0.878373 -0.960268 0 0 0 0.0521677 0.0538894 -0.0378808 8.7268 -4.44279 -9.98869 0.0498107 -0.439545 0.606879 0.04 
417 1 1 0.960392 -0.869867 -0.957743 0 0 0 0.0833044 0.108019 -0.511507 -13.0516 0.496926 -48.5103 -0.151043 -0.128685 0.786468 0.04 
352 1 1 -0.88673 -0.817202 -0.935992 0 0 0 0.127595 0.0944626 -0.11956 0 0 -6.57473 2.7582 -6.27897 2.58067 0.04 
960 1 1 -0.685618 -0.812269 -0.959081 0 0 0 -0.168686 -0.0476668 -0.0859809 0 0 -6.57473 2.08765 4.42214 1.18959 0.04 
380 1 1 -0.530336 -0.813392 -0.960174 0 0 0 -0.0420062 0.0622545 0.018098 -17.1031 0.80205 3.7789 -3.03815 0.0873023 -0.201956 0.04 
52 1 1 -0.450878 -0.815138 -0.960235 0 0 0 0.20344 -0.00719143 0.0947383 16.791 -0.326687 4.39542 -0.646853 -0.398783 -1.46973 0.04 
720 1 1 -0.234404 -0.821482 -0.96245 0 0 0 -0.0827969 -0.0267064 0.17454 4.75652 6.42009 127.506 -1.53376 0.685246 0.0361415 0.04 
161 1 1 -0.154527 -0.808499 -0.960517 0 0 0 -0.02102 -0.0819208 0.588585 -0.80473 -0.68868 14.609 1.75813 -0.106209 -2.97988 0.04 
385 1 1 -0.0738983 -0.801025 -0.96007 0 0 0 -0.0104059 0.0916864 -0.0785851 -11.7471 -4.37046 -8.44643 -2.61463 -0.728727 2.51752 0.04 
827 1 1 0.00470822 -0.815026 -0.960221 0 0 0 -0.00767824 0.0909719 0.0962113 0.350569 -1.74416 -10.6713 -2.62193 -0.251687 -0.179892 0.04 
784 1 1 0.0891109 -0.832841 -0.960427 0 0 0 0.0096545 0.0944944 -0.0155045 7.85345 7.51773 10.3689 -2.54516 -0.60862 -2.89569 0.04 
211 1 1 0.171297 -0.828114 -0.960182 0 0 0 -0.026916 -0.0554991 0.019523 -24.6793 -0.713203 -22.325 0.521349 0.653295 1.55858 0.04 
354 1 1 0.309152 -0.811795 -0.960735 0 0 0 -0.212641 0.203619 -0.292392 -20.7706 7.46398 -19.9606 -0.528895 -0.0700099 -0.30871 0.04 
229 1 1 0.392415 -0.814892 -0.958894 0 0 0 -0.00168086 0.0550454 -0.096565 -26.5441 -15.7888 -12.0843 -2.30712 0.885869 3.55916 0.04 
866 1 1 0.59345 -0.809192 -0.960201 0 0 0 0.111353 0.0830478 0.0879746 -2.54582 6.03542 2.41585 0.0381717 1.96117 -2.12555 0.04 
554 1 1 0.812775 -0.832947 -0.958468 0 0 0 0.194112 0.0205297 -0.178159 -6.58387 -2.48531 -8.25202 -1.99969 0.57666 -2.15436 0.04 
446 1 1 -0.958162 -0.778116 -0.95979 0 0 0 0.0936744 -0.0715441 -0.0129517 0 0 -6.57473 -1.42978 -1.13921 2.62475 0.04 
492 1 1 -0.855152 -0.735253 -0.960585 0 0 0 -0.0299423 0.090789 -0.24482 0.382886 -1.74571 29.1694 0.477369 -0.147682 -3.25996 0.04 
894 1 1 -0.774943 -0.78178 -0.960894 0 0 0 -0.0858295 -0.0717081 0.0323398 -6.72361 -21.7022 41.8789 -1.77023 1.52779 -1.78075 0.04 
290 1 1 -0.608781 -0.788152 -0.960648 0 0 0 0.0162068 0.0746471 0.100559 -1.06893 -1.37374 28.2378 -1.98849 0.305402 1.60195 0.04 
241 1 1 -0.479583 -0.738583 -0.958633 0 0 0 -0.0285671 0.0448875 -0.0343186 8.30764 -10.387 -4.84011 -0.879937 -0.693576 2.16902 0.04 
480 1 1 -0.37686 -0.784001 -0.960491 0 0 0 0.0905796 0.0370659 0.042055 3.02031 -11.0889 20.0546 -1.83048 -0.641519 -1.64991 0.04 
402 1 1 -0.296944 -0.766993 -0.959152 0 0 0 -0.117002 0.139222 0.0197484 0 0 -6.57473 -2.37405 -1.1326 -1.65036 0.04 
322 1 1 -0.214037 -0.743463 -0.959852 0 0 0 0.0180572 0.0380101 -0.239317 -8.79927 -5.29712 -24.904 -0.919024 0.86527 -1.04106 0.04 
1122 1 1 0.0238861 -0.737248 -0.960858 0 0 0 -0.096546 -0.00798583 0.112081 -0.769644 7.84305 29.6708 -1.16199 -1.94927 -1.53954 0.04 
773 1 1 0.11332 -0.755254 -0.96005 0 0 0 0.0509208 0.0217368 -0.0836778 6.79849 -10.3004 -14.676 -1.35927 -0.558574 1.25548 0.04 
725 1 1 0.211352 -0.753216 -0.960061 0 0 0 -0.108103 0.0600031 -0.00158239 1.9273 -0.910075 -5.01568 -1.92256 -2.60667 -1.73408 0.04 
159 1 1 0.352268 -0.744359 -0.95975 0 0 0 -0.138784 0.140934 0.140066 0 0 -6.57473 -3.29113 -1.28883 -0.0227898 0.04 
688 1 1 0.465073 -0.783207 -0.960923 0 0 0 -0.137838 0.0408383 -0.112342 24.6106 8.99397 46.6403 0.232519 -4.03935 0.336625 0.04 
519 1 1 0.667167 -0.735013 -0.958922 0 0 0 0.0960667 0.142634 0.124173 1.34603 9.02561 -13.5847 -3.13095 1.01491 1.6727 0.04 
742 1 1 0.724085 -0.79131 -0.957239 0 0 0 -0.133333 0.178118 -0.177527 11.2068 -18.8473 -38.1386 -3.49381 -2.50394 3.65817 0.04 
603 1 1 0.823172 -0.752906 -0.952499 0 0 0 0.00143943 0.208311 -0.213966 -27.591 12.8498 -10.0504 -0.943904 -0.104809 -0.324882 0.04 
972 1 1 0.960054 -0.786072 -0.960018 0 0 0 -0.0220865 0.134226 -0.101492 -2.62611 -0.120253 -4.11975 -3.2128 -0.237377 -1.97429 0.04 
488 1 1 -0.960271 -0.689047 -0.960483 0 0 0 -0.140629 0.256351 0.0909751 6.56738 -18.7374 -16.4549 -4.31131 -0.548798 -0.465443 0.04 
564 1 1 -0.744087 -0.708803 -0.958127 0 0 0 0.212365 0.0382996 -0.0851165 -11.0968 27.5734 -5.5544 -0.27946 -0.38098 1.36031 0.04 
314 1 1 -0.667028 -0.728188 -0.961092 0 0 0 -0.0901101 0.08182 -0.176782 16.6832 -5.30987 56.4902 -2.20182 -2.75288 4.71771 0.04 
1127 1 1 -0.557804 -0.725842 -0.960059 0 0 0 -0.0641677 0.0698658 0.145479 -17.1219 5.81641 -20.6706 -0.497477 2.51803 -0.432148 0.04 
85 1 1 -0.405581 -0.709898 -0.955362 0 0 0 0.108089 0.190585 0.0634513 13.8852 18.2815 -6.53486 -2.0375 -0.928642 -0.964292 0.04 
511 1 1 -0.289099 -0.686177 -0.959949 0 0 0 0.0614959 -0.112924 0.108604 0 0 -6.57473 0.58366 0.489615 -1.22719 0.04 
376 1 1 -0.136453 -0.726086 -0.960313 0 0 0 -0.0504023 0.0111453 0.0472279 18.0084 4.76957 9.19891 -0.818515 -1.81952 -0.103471 0.04 
204 1 1 -0.054068 -0.710134 -0.960658 0 0 0 0.0365067 -0.0642682 0.0377439 -4.07341 -8.28166 29.4183 -2.16761 -0.0720455 0.945049 0.04 
1088 1 1 0.124797 -0.671618 -0.959692 0 0 0 -0.0842063 0.063374 0.0467223 4.86474 -0.893896 -6.31815 -2.22426 -1.02021 -0.972769 0.04 
862 1 1 0.205646 -0.672651 -0.95997 0 0 0 -0.0798636 0.0181436 -0.0970312 -8.95541 8.43261 -27.5884 -1.55455 -0.492931 -1.21915 0.04 
967 1 1 0.279284 -0.707636 -0.960076 0 0 0 0.0369362 -0.158692 -0.0186889 -7.97422 -4.6844 -2.16849 -1.91716 -0.847949 0.264645 0.04 
451 1 1 0.424341 -0.707028 -0.959348 0 0 0 -0.0344952 -0.0765546 -0.0887213 0 0 -6.57473 -0.561908 -0.946501 1.51285 0.04 
177 1 1 0.506247 -0.697515 -0.959204 0 0 0 -0.047162 0.156072 -0.197872 0 0 -6.57473 -1.74987 -1.46431 -0.264201 0.04 
757 1 1 0.582692 -0.729402 -0.949151 0 0 0 0.0986542 -0.0342026 0.42572 -2.82187 3.72494 -17.7698 2.41861 -0.705044 2.2283 0.04 
439 1 1 0.752043 -0.716164 -0.960588 0 0 0 0.322851 -0.0615891 -0.0523419 -1.56542 0.587243 26.8642 -0.801151 1.8602 -1.51296 0.04 
662 1 1 0.818069 -0.669383 -0.954579 0 0 0 -0.0932504 -0.0338534 -0.0102864 -0.00227988 -1.33163 -6.42168 -0.87308 2.89195 -1.81636 0.04 
188 1 1 0.898181 -0.726834 -0.960336 0 0 0 0.00281697 0.279987 -0.041784 -17.7144 0.987459 -34.4511 -0.832676 -1.356 -0.567513 0.04 
987 1 1 0.960178 -0.676343 -0.9607 0 0 0 0.0868449 0.228919 -0.10039 9.6204 -13.8751 34.9994 -3.0312 0.610379 -4.34587 0.04 
260 1 1 -0.960394 -0.596075 -0.960382 0 0 0 -0.164247 0.0745844 -0.0685603 19.4394 -2.95105 16.609 -1.85836 -0.636363 -0.585482 0.04 
532 1 1 -0.880572 -0.657399 -0.960939 0 0 0 -0.225485 0.072647 0.280211 -4.60501 -0.234569 26.7872 -2.1696 -1.50163 4.24625 0.04 
826 1 1 -0.790702 -0.643419 -0.960386 0 0 0 -0.360984 -0.0761213 0.251546 -25.9443 -45.9806 9.04367 -2.69496 -0.0238328 -4.16706 0.04 
567 1 1 -0.701324 -0.639005 -0.960592 0 0 0 0.0487243 0.0553503 0.199719 12.3078 -18.2706 23.139 -2.83809 0.074965 -3.84039 0.04 
170 1 1 -0.53021 -0.648128 -0.960237 0 0 0 0.307412 0.051779 -0.0536345 2.55383 -19.3099 7.27309 0.907545 -0.835872 -1.3562 0.04 
375 1 1 -0.442558 -0.637037 -0.960136 0 0 0 -0.0325918 -0.0140204 -0.0175962 0.302911 0.245569 1.22423 -1.67535 1.68347 0.442947 0.04 
709 1 1 -0.354088 -0.63369 -0.960883 0 0 0 0.121091 -0.0167325 -0.0246984 -6.57429 -0.561341 29.9181 -1.44485 1.97984 -0.541 0.04 
631 1 1 -0.276094 -0.598664 -0.960778 0 0 0 -0.0541702 0.0949731 0.104116 1.7783 1.11697 35.4252 -2.93903 -0.508902 3.18457 0.04 
873 1 1 -0.211056 -0.661867 -0.961174 0 0 0 0.258104 0.0184342 0.012468 -19.3628 -38.3971 13.6655 -2.53038 -0.0399525 0.21119 0.04 
738 1 1 -0.121911 -0.644644 -0.959604 0 0 0 -0.125972 0.03046 -0.140706 -0.103287 -20.3998 -32.7293 -2.69058 -2.82166 0.823955 0.04 
1046 1 1 -0.0309879 -0.633869 -0.959231 0 0 0 -0.168232 0.0875958 -0.135362 6.02903 6.49287 -6.14157 -1.67661 1.97439 2.35549 0.04 
581 1 1 0.0460371 -0.658451 -0.960053 0 0 0 -0.134934 0.101714 0.113637 -2.75609 -0.684869 -11.3628 -1.59133 -0.343394 -1.03043 0.04 
61 1 1 0.168916 -0.600208 -0.959746 0 0 0 0.0792777 0.144741 0.112346 -10.6525 3.70608 -32.3037 -1.44493 0.604467 0.722849 0.04 
1052 1 1 0.268757 -0.622588 -0.959584 0 0 0 -0.103662 -0.0652032 0.0192522 -3.79766 -4.74791 -6.51031 -1.28626 0.00315115 1.91327 0.04 
656 1 1 0.34491 -0.662344 -0.959938 0 0 0 -0.126964 0.157168 -0.0753516 7.36813 4.59727 -6.50001 -3.16561 -2.19896 0.815715 0.04 
1082 1 1 0.416608 -0.626895 -0.960143 0 0 0 -0.00877488 -0.0781594 -0.0675176 2.14275 -5.66407 2.31847 0.300192 -0.543823 -0.218989 0.04 
255 1 1 0.496674 -0.617498 -0.959145 0 0 0 -0.102575 0.130168 0.0346194 -15.8998 10.1474 -25.9505 -2.55615 -0.760763 -0.486452 0.04 
1026 1 1 0.575416 -0.601007 -0.960104 0 0 0 -0.0545784 0.0155353 -0.0111138 0.292034 0.0565336 -0.625617 -0.587462 -0.340418 -1.46854 0.04 
880 1 1 0.631314 -0.661273 -0.959751 0 0 0 -0.0736849 -0.0635938 0.0941133 -3.4417 -5.87724 -7.19749 -1.34519 1.74985 -0.178712 0.04 
543 1 1 0.740775 -0.630988 -0.959643 0 0 0 0.192055 -0.0882852 0.195466 8.30142 9.63923 -46.9759 2.69938 0.171133 1.15782 0.04 
553 1 1 0.891302 -0.63693 -0.960276 0 0 0 0.091487 0.135394 -0.0580839 -21.1487 12.2095 8.78237 -1.49274 -0.3916 3.35992 0.04 
990 1 1 -0.884406 -0.571715 -0.960093 0 0 0 0.0620604 -0.0589927 0.117617 -1.92988 -13.2829 -13.6864 -0.682116 -1.69656 -0.882833 0.04 
1152 1 1 -0.749997 -0.576325 -0.960089 0 0 0 0.0416908 0.0641509 0.0310157 17.1349 62.2755 1.15569 1.35247 -0.919863 -0.668938 0.04 
925 1 1 -0.631453 -0.590471 -0.959776 0 0 0 0.068093 0.0969873 0.00180594 0 0 -6.57473 -4.09541 1.91476 1.4172 0.04 
893 1 1 -0.547316 -0.570538 -0.959742 0 0 0 -0.123274 0.0485484 -0.00369584 -3.22696 19.1326 -6.50065 0.0317604 0.957167 4.53341 0.04 
1448 1 1 -0.391348 -0.562122 -0.960207 0 0 0 0.150599 0.0388351 0.0866089 1.32522 5.23683 -4.83959 -0.468482 2.05643 1.35532 0.04 
962 1 1 -0.154029 -0.549854 -0.96005 0 0 0 -0.132249 0.239894 -0.0894622 16.6743 -19.3956 -13.3651 -6.14871 0.946933 -0.599996 0.04 
950 1 1 -0.076448 -0.568208 -0.960065 0 0 0 -0.155151 0.196129 0.00998357 11.9224 2.68621 -9.60532 -1.59078 -0.356956 -4.28696 0.04 
716 1 1 0.0136265 -0.565811 -0.958445 0 0 0 -0.134362 -0.0352805 0.104345 0 0 -6.57473 3.23435 2.01892 -1.36432 0.04 
388 1 1 0.0894853 -0.59145 -0.959074 0 0 0 0.00512105 0.0329425 0.0576247 -0.141336 4.67056 -6.45656 -0.92787 0.859366 0.33882 0.04 
867 1 1 0.206494 -0.529693 -0.959911 0 0 0 -0.0803216 0.0532378 0.127685 -23.0211 -11.2211 -23.2436 -3.90246 0.696202 -0.697421 0.04 
576 1 1 0.32166 -0.562809 -0.960108 0 0 0 -0.0512705 -0.0713541 -0.020466 1.50505 3.72505 -7.57812 -0.494613 -0.307304 -1.17253 0.04 
408 1 1 0.400096 -0.548825 -0.960016 0 0 0 0.118131 0.0688016 0.0222224 14.4023 -2.51723 -39.6372 1.73088 -1.71737 0.747322 0.04 
814 1 1 0.496374 -0.537553 -0.959303 0 0 0 -0.257741 0.0867383 -0.0720423 0.104099 2.30241 -6.6026 -1.13121 -5.27568 -0.462255 0.04 
1111 1 1 0.666649 -0.58974 -0.960219 0 0 0 0.111758 0.0333216 0.036334 7.11797 6.76789 -2.56111 0.94882 -1.13324 -1.1314 0.04 
1138 1 1 0.742764 -0.550882 -0.960154 0 0 0 -0.0134494 -0.175175 -0.0814082 -0.0853179 0.47494 3.07612 -1.30505 -1.35951 2.03993 0.04 
58 1 1 0.817513 -0.589631 -0.959789 0 0 0 0.00805345 0.170745 0.0979418 -6.17785 -2.13958 -6.78567 0.473189 0.330944 -1.5793 0.04 
1107 1 1 0.885609 -0.548082 -0.956379 0 0 0 -0.256093 0.25043 0.197777 9.98777 1.52377 -12.1324 -4.73227 0.34038 0.850196 0.04 
252 1 1 0.959242 -0.594402 -0.959643 0 0 0 0.0131071 0.211497 -0.0800337 -0.0940062 -2.16781 -6.46353 -2.44151 0.13427 -0.603193 0.04 
670 1 1 -0.95901 -0.503261 -0.959854 0 0 0 0.0790825 -0.000919655 -0.0426232 0 0 -6.57473 -2.40221 -0.753228 1.46321 0.04 
565 1 1 -0.815779 -0.531055 -0.959528 0 0 0 -0.0165836 0.0259244 -0.00580888 3.54312 7.19939 -6.10334 -0.143393 0.234805 -0.739925 0.04 
1113 1 1 -0.682713 -0.529238 -0.946226 0 0 0 0.0451666 0.0954996 -0.459 -4.93625 -39.5085 2.10181 0.861771 -0.17906 3.51583 0.04 
435 1 1 -0.600857 -0.507376 -0.960117 0 0 0 0.0336806 0.118433 -0.0410525 -0.00122428 5.55495 -7.00572 -0.188402 -0.94547 -0.482387 0.04 
816 1 1 -0.488432 -0.492237 -0.960016 0 0 0 0.0051284 0.0754447 0.0289144 14.4411 -18.4825 -12.8429 -1.71078 0.125609 0.820664 0.04 
344 1 1 -0.40855 -0.479232 -0.960613 0 0 0 0.0966727 -0.0220645 -0.0833282 -2.69738 -2.2282 25.5568 -0.00150555 0.406883 1.61962 0.04 
489 1 1 -0.326167 -0.504696 -0.960321 0 0 0 -0.0803769 -0.06264 -0.0271976 -17.8481 -13.1758 10.2112 -1.56698 0.8148 0.129169 0.04 
883 1 1 -0.230731 -0.530747 -0.95983 0 0 0 0.0179208 0.0956656 0.0842432 -26.4247 13.2044 -21.4993 -1.53944 -0.202146 1.50447 0.04 
305 1 1 -0.17685 -0.471367 -0.960095 0 0 0 0.0111529 0.182583 -0.0773856 -0.280955 -0.141306 -0.284957 -3.42085 -2.00523 0.357004 0.04 
1066 1 1 -0.0351035 -0.498652 -0.959351 0 0 0 0.138302 0.0423317 -0.0479352 -18.9902 -13.7298 -6.25866 -0.487374 2.45147 0.315092 0.04 
143 1 1 0.0777445 -0.510856 -0.96035 0 0 0 -0.0772378 0.00165593 -0.0231297 8.70762 -14.264 9.22783 -0.539404 2.13585 2.32745 0.04 
1346 1 1 0.151592 -0.470815 -0.957022 0 0 0 -0.00227915 0.0994904 -0.0147051 7.79285 4.27304 -17.4086 -2.24473 0.313746 -0.0238502 0.04 
1000 1 1 0.278253 -0.495591 -0.960201 0 0 0 -0.07131 0.0650151 0.0665703 19.1536 8.20103 3.03596 -0.674649 0.25286 1.59581 0.04 
792 1 1 0.356644 -0.479462 -0.960332 0 0 0 0.033609 0.161319 0.058801 0.253798 -0.848769 11.1433 -1.00322 1.75497 -0.498563 0.04 
1361 1 1 0.438352 -0.474836 -0.960611 0 0 0 -0.139673 0.175813 0.0959276 -0.607367 -1.32413 26.2368 -4.63984 -3.42488 -2.45427 0.04 
1288 1 1 0.59426 -0.523187 -0.959578 0 0 0 -0.189258 -0.00677059 -0.12972 -0.587099 -3.43869 -14.9673 0.488523 0.655734 -0.281462 0.04 
908 1 1 0.6723 -0.504061 -0.96053 0 0 0 0.0324239 -0.0625431 0.129677 -1.3168 1.0359 20.6071 -0.9767 0.372886 0.0737506 0.04 
1309 1 1 0.809757 -0.503872 -0.958931 0 0 0 -0.233069 0.166206 0.1401 -0.287961 -1.45911 -8.10367 -2.80369 -2.42943 3.68572 0.04 
771 1 1 0.959661 -0.514455 -0.961149 0 0 0 0.0133469 0.102302 -0.14143 7.26582 -9.35029 44.5056 -1.94836 0.242421 -2.60685 0.04 
1055 1 1 -0.960037 -0.410029 -0.958966 0 0 0 0.08149 0.20691 0.04328 -6.63511 4.04582 -6.78005 -2.18419 -0.65207 1.95298 0.04 
739 1 1 -0.890651 -0.449352 -0.960661 0 0 0 -0.0070655 0.124985 0.150256 5.29875 -11.125 19.1511 -3.3732 -0.301522 -4.08911 0.04 
1142 1 1 -0.818784 -0.41013 -0.960058 0 0 0 0.0861982 0.0955323 -0.0234985 -22.9909 8.73855 -2.59707 -0.774513 1.46227 -0.0269681 0.04 
644 1 1 -0.758699 -0.461833 -0.960312 0 0 0 -0.248993 0.0419377 -0.0851207 16.9622 10.6806 -21.5696 0.744199 0.631185 -0.348877 0.04 
833 1 1 -0.669915 -0.452735 -0.960781 0 0 0 0.237593 -0.0245904 -0.216214 3.72279 28.1266 22.1531 -0.485476 0.470733 -1.75766 0.04 
620 1 1 -0.547456 -0.43935 -0.955409 0 0 0 0.202988 0.0254002 -0.00311408 -18.5818 15.1191 -5.55001 -1.65093 0.371226 1.0422 0.04 
1316 1 1 -0.466914 -0.415568 -0.953381 0 0 0 -0.0831616 0.18959 0.0272502 -8.57228 -3.7629 -5.14767 0.173183 1.13796 0.212218 0.04 
247 1 1 -0.336963 -0.418858 -0.959839 0 0 0 0.2328 0.246838 0.029709 -3.12543 1.97243 -13.7059 -1.08331 0.295056 4.5239 0.04 
382 1 1 -0.263515 -0.456065 -0.95908 0 0 0 0.0365559 0.201561 -0.17509 18.4549 13.8567 -5.11948 -0.613401 0.342904 3.12955 0.04 
1271 1 1 -0.0947095 -0.428818 -0.960134 0 0 0 -0.16767 0.0969912 -0.0900442 2.7243 18.382 -9.85228 -1.08896 -0.388319 -2.89577 0.04 
1249 1 1 0.0272962 -0.449564 -0.958107 0 0 0 -0.0956413 0.0163614 0.017402 6.15527 30.7977 -6.73307 0.442949 -0.303286 -2.06637 0.04 
1030 1 1 0.10097 -0.407578 -0.96033 0 0 0 0.0425393 0.0324481 -0.100906 0.136756 0.975729 13.1306 -2.0274 1.23748 -1.58096 0.04 
1148 1 1 0.225494 -0.43551 -0.959804 0 0 0 -0.0362138 0.135199 -0.0586411 -0.0481788 -0.0546958 -6.4417 -0.137138 1.95724 -1.69851 0.04 
772 1 1 0.303783 -0.417471 -0.960791 0 0 0 -0.0178934 0.0545191 -0.0303499 -1.50871 1.63523 37.9232 -1.50095 -0.420577 -1.66951 0.04 
845 1 1 0.388633 -0.404466 -0.960306 0 0 0 0.117187 0.182463 0.101025 -9.52042 10.1207 -63.0352 -3.27617 1.2925 -0.0724432 0.04 
1047 1 1 0.618635 -0.444301 -0.954097 0 0 0 -0.026267 0.107323 0.0439666 0 0 -6.57473 3.64811 2.20879 -3.32947 0.04 
1474 1 1 0.697469 -0.421044 -0.959822 0 0 0 -0.0612356 0.0593696 0.0848538 0 0 -6.57473 -1.38616 -1.3417 -0.517041 0.04 
840 1 1 0.777681 -0.42382 -0.960521 0 0 0 -0.0048457 0.0844703 -0.0228598 15.1574 3.598 -8.74112 -0.976838 0.531849 -1.49969 0.04 
9 1 1 0.882649 -0.465729 -0.960134 0 0 0 -0.0372287 -0.235975 0.0423922 0.113712 0.326818 0.345978 -0.820685 1.40934 -0.634006 0.04 
852 1 1 0.957326 -0.433338 -0.960116 0 0 0 -0.0108551 0.182764 0.124916 22.4624 -16.3652 -28.9159 -3.36614 -2.86478 2.63035 0.04 
326 1 1 -0.890944 -0.367882 -0.960526 0 0 0 -0.0126042 -0.0583742 0.0501619 0.438269 0.970289 21.4881 -0.64503 0.696575 0.121081 0.04 
1246 1 1 -0.744821 -0.372772 -0.960387 0 0 0 -0.0630813 -0.0465093 -0.084666 2.11599 10.78 1.77256 -3.1025 -0.158083 -0.149892 0.04 
613 1 1 -0.610731 -0.38606 -0.959503 0 0 0 -0.216861 0.0769685 -0.0585892 -2.76237 -12.2829 -6.04615 -2.83115 0.555083 1.58638 0.04 
857 1 1 -0.523758 -0.353454 -0.960384 0 0 0 0.0241478 0.0299303 0.0504595 5.05595 3.72235 -10.2016 -1.22868 0.880776 -2.53356 0.04 
92 1 1 -0.402715 -0.36873 -0.959291 0 0 0 -0.162986 0.308633 0.106767 9.42797 6.41863 -7.86022 -0.864361 -0.0624552 0.596835 0.04 
1124 1 1 -0.262602 -0.370131 -0.959748 0 0 0 0.0160307 0.1955 0.00345302 0 0 -6.57473 -2.32434 0.968946 -1.96978 0.04 
868 1 1 -0.182724 -0.391313 -0.959764 0 0 0 -0.331008 0.222266 -0.0463184 -8.02478 -14.2998 -33.8169 -1.59164 -3.5294 1.08494 0.04 
1010 1 1 -0.108611 -0.348105 -0.960306 0 0 0 0.00577974 -0.000402084 -0.0650373 0.688161 -0.573271 11.3385 0.469699 0.696712 -1.55682 0.04 
1223 1 1 -0.0274251 -0.385776 -0.960758 0 0 0 0.0570425 -0.11226 0.0413691 -30.0666 -11.7983 33.0664 0.344241 0.845434 1.21378 0.04 
144 1 1 0.0431398 -0.350295 -0.960505 0 0 0 0.167064 0.0224908 0.00362314 30.4884 -2.04484 21.9303 -0.958976 -1.18438 1.17991 0.04 
315 1 1 0.174254 -0.374122 -0.960054 0 0 0 -0.0548803 0.133532 0.00100126 -0.785293 0.860427 -3.63289 -1.81817 -0.990091 1.55597 0.04 
1187 1 1 0.25218 -0.355858 -0.961035 0 0 0 -0.094477 0.23147 -0.0233717 9.83486 -14.9116 51.8612 -1.44868 0.222569 -0.0293209 0.04 
677 1 1 0.46942 -0.395027 -0.960255 0 0 0 0.0374211 -0.105074 -0.161681 0.267133 0.771513 9.7543 -2.93522 2.86705 0.62143 0.04 
981 1 1 0.549767 -0.399975 -0.960437 0 0 0 0.0876463 0.167717 -0.122655 -0.438715 -1.21985 19.3521 1.46179 0.161103 -1.78639 0.04 
361 1 1 0.632634 -0.364272 -0.959379 0 0 0 -0.0588235 0.18817 -0.141288 0 0 -6.57473 -2.15897 -2.10181 3.40056 0.04 
499 1 1 0.791911 -0.345974 -0.960151 0 0 0 0.0239304 0.049612 -0.109566 -1.68648 22.8174 -18.8379 0.0842799 1.34302 -0.300515 0.04 
398 1 1 0.862242 -0.385503 -0.960252 0 0 0 -0.238887 0.147353 -0.216213 -24.4606 9.27615 -16.3107 -2.47907 2.15203 1.48631 0.04 
975 1 1 0.942364 -0.353867 -0.960157 0 0 0 0.335301 0.119347 -0.00503478 -9.15646 -24.9791 -18.8518 -2.41053 2.3011 1.40841 0.04 
982 1 1 -0.959629 -0.326834 -0.960266 0 0 0 0.0579554 -0.108526 0.0472882 -0.177894 -8.07417 -5.32986 0.574826 1.11771 0.267805 0.04 
995 1 1 -0.885989 -0.287127 -0.959555 0 0 0 -0.0980275 -0.0928932 0.0501535 -9.84064 15.6021 -24.0165 2.08879 0.182151 0.82913 0.04 
1215 1 1 -0.818882 -0.330342 -0.960982 0 0 0 -0.131785 -0.0450347 0.0456928 -5.08511 1.4445 39.1412 -0.182995 -1.07714 1.34589 0.04 
76 1 1 -0.751546 -0.28775 -0.960301 0 0 0 -0.176646 0.118497 0.00427147 7.60925 3.49584 10.5503 -0.0830579 -1.541 0.949384 0.04 
969 1 1 -0.670291 -0.32616 -0.960396 0 0 0 0.0440077 0.205625 -0.0728868 12.6548 -34.0293 -3.6608 -1.21147 -0.05956 0.592317 0.04 
230 1 1 -0.590187 -0.309066 -0.960411 0 0 0 0.0229576 -0.16296 0.106802 -0.761067 16.1289 14.4439 0.667652 1.38163 -0.391312 0.04 
116 1 1 -0.457486 -0.303334 -0.960745 0 0 0 -0.227573 -0.0318789 -0.00136306 0.145303 18.1796 2.28084 -1.2756 -1.51828 1.60055 0.04 
978 1 1 -0.349157 -0.308546 -0.960054 0 0 0 0.00882749 0.00318371 0.0358999 -3.60128 -0.899739 -4.16559 -1.84483 -0.559684 1.33839 0.04 
1155 1 1 -0.272007 -0.287782 -0.960679 0 0 0 0.00883195 0.0275922 -0.136124 -2.15653 -21.7303 2.29989 -1.66829 0.489395 0.497668 0.04 
1214 1 1 -0.19617 -0.31312 -0.960907 0 0 0 0.0863799 0.0395197 -0.0100566 -6.74853 26.0006 42.9918 -1.64773 0.170101 -4.03361 0.04 
1451 1 1 -0.118621 -0.266878 -0.960095 0 0 0 -0.103564 -0.10828 0.0353362 -1.80594 2.7379 -6.06164 -0.93643 0.24638 -1.19661 0.04 
201 1 1 -0.0322328 -0.305961 -0.9605 0 0 0 -0.104954 0.098139 -0.0231817 1.02458 -1.14943 21.5999 0.0763752 -0.0428843 -0.328711 0.04 
1062 1 1 0.0431869 -0.270848 -0.957374 0 0 0 -0.0315251 -0.00228842 -0.244606 -7.24043 8.38922 -4.75575 0.295517 -2.1851 0.00677619 0.04 
404 1 1 0.130404 -0.3067 -0.960566 0 0 0 -0.0243466 -0.0639503 -0.00169307 0.805688 1.35814 25.0081 -0.884306 0.866769 -1.20683 0.04 
1216 1 1 0.209608 -0.288546 -0.960143 0 0 0 0.104632 0.0279985 0.0868898 -8.61113 12.6434 -0.197082 -1.65814 1.49336 1.79811 0.04 
780 1 1 0.295428 -0.274815 -0.96056 0 0 0 -0.187508 0.0349817 -0.138682 1.27913 -0.803316 26.454 1.60755 0.178677 -2.89525 0.04 
220 1 1 0.354937 -0.330822 -0.960263 0 0 0 0.0418855 -0.0405656 0.00660503 -0.4652 0.561988 8.01625 -1.06112 -0.670023 -0.619924 0.04 
624 1 1 0.438869 -0.294393 -0.959218 0 0 0 -0.0846066 -0.0399795 0.0536052 10.5343 -6.21534 -6.21195 -0.189138 -1.7564 -1.16016 0.04 
309 1 1 0.511538 -0.327155 -0.950431 0 0 0 -0.104777 0.254545 -0.124505 -16.596 -8.43452 -6.04285 0.621502 1.1717 2.66182 0.04 
1074 1 1 0.583571 -0.293911 -0.955297 0 0 0 -0.0861237 0.330185 -0.20362 2.10401 2.35834 -5.47849 5.52017 0.959244 1.41727 0.04 
764 1 1 0.710169 -0.326678 -0.959607 0 0 0 0.0941393 0.00610901 -0.0270543 2.53565 -3.18211 -6.36985 -0.201383 -0.681662 1.28286 0.04 
1163 1 1 0.768564 -0.269857 -0.9589 0 0 0 0.145214 0.0393357 -0.0211039 -4.75283 13.2225 -6.13385 3.05829 0.870305 1.94948 0.04 
182 1 1 0.849064 -0.290038 -0.959882 0 0 0 0.0979993 -0.0300913 0.0682486 1.78794 -1.83891 -9.97034 -0.244238 0.219979 -1.02742 0.04 
657 1 1 -0.958626 -0.246888 -0.960709 0 0 0 0.144645 -0.155242 0.0243704 -1.55536 5.08231 29.9099 0.377173 -0.363388 0.785463 0.04 
1056 1 1 -0.890631 -0.203773 -0.960036 0 0 0 0.0442035 0.0144277 -0.117937 0.0322899 -0.17444 -3.02666 1.19221 1.393 0.114971 0.04 
1279 1 1 -0.819366 -0.238965 -0.950494 0 0 0 -0.0506183 -0.00541493 -0.0094347 -0.690622 -0.412834 -6.49628 -3.36221 0.712439 0.147641 0.04 
471 1 1 -0.749852 -0.200867 -0.960902 0 0 0 0.104034 -0.104097 -0.410881 0.336724 3.17098 48.962 -1.84948 2.03546 1.65328 0.04 
905 1 1 -0.682401 -0.247775 -0.958711 0 0 0 0.0516049 -0.0254104 -0.107679 -18.3838 29.8388 -30.8705 -0.329396 -0.362129 -1.24694 0.04 
1286 1 1 -0.602966 -0.229545 -0.960845 0 0 0 0.0985067 -0.046309 0.0542455 -2.47394 -3.02982 37.9515 0.664404 1.34617 -1.68283 0.04 
1037 1 1 -0.522414 -0.255159 -0.960139 0 0 0 0.0676184 0.161203 -0.0460548 4.15225 -16.3601 2.1999 -0.160602 -0.563381 0.0559678 0.04 
945 1 1 -0.464431 -0.197034 -0.96069 0 0 0 0.0788646 0.0739132 -0.0100621 17.9311 -25.6848 33.0268 -1.48372 0.647068 0.201925 0.04 
1205 1 1 -0.400644 -0.247249 -0.959001 0 0 0 0.0138883 0.069151 -0.0824802 -6.73277 -0.0827245 -6.01897 0.238821 0.678972 0.428665 0.04 
710 1 1 -0.323776 -0.225874 -0.959292 0 0 0 -0.156118 0.137122 0.0442351 -1.27009 -7.33744 -10.0016 -2.31557 0.080947 0.125994 0.04 
168 1 1 -0.212239 -0.234156 -0.959479 0 0 0 -0.0409962 -0.102011 -0.179814 -16.7161 -18.2159 -10.7389 -0.716863 0.0210762 -0.733816 0.04 
1348 1 1 -0.0726487 -0.199217 -0.960284 0 0 0 0.116161 0.139182 -0.119897 -15.66 12.2121 -11.0305 -0.30162 -0.314906 1.32239 0.04 
1301 1 1 0.0933051 -0.208969 -0.960224 0 0 0 -0.0888085 -0.00943043 -0.013978 -0.0873887 9.19444 4.69311 -0.415165 -1.17756 0.274876 0.04 
1201 1 1 0.172604 -0.217436 -0.960631 0 0 0 -0.0820737 0.0637786 0.0187846 15.2073 -3.02344 12.4414 -0.553965 -1.52067 1.36362 0.04 