ITEM: TIMESTEP
60000
ITEM: NUMBER OF ATOMS
1500
ITEM: BOX BOUNDS ff ff ff
-1 1
-1 1
-1 1
ITEM: ATOMS id type type x y z ix iy iz vx vy vz fx fy fz omegax omegay omegaz radius 
137 1 1 -0.960107 -0.958845 -0.959826 0 0 0 -0.026391 0.00633663 -0.0310131 -0.747537 -0.162958 -12.6735 -0.132724 -0.0937236 0.126729 0.04 
5 1 1 -0.841101 -0.960088 -0.959864 0 0 0 0.0729622 -0.0357206 0.0483925 -3.93165 5.19734 -6.57887 0.376861 1.8494 0.372068 0.04 
239 1 1 -0.761194 -0.960245 -0.960298 0 0 0 0.0276219 -0.134211 -0.0565151 -2.23796 13.8449 11.5255 -0.0679955 1.69775 -0.836768 0.04 
34 1 1 -0.681331 -0.960159 -0.960195 0 0 0 0.0439525 0.000737056 -0.0921216 5.28953 8.981 5.76256 -0.575803 2.05312 -0.525341 0.04 
415 1 1 -0.601207 -0.960073 -0.960176 0 0 0 -0.0240672 0.0137919 -0.0250197 -21.1132 -2.3994 -16.149 0.855619 1.70901 -0.446567 0.04 
138 1 1 -0.521658 -0.960082 -0.96034 0 0 0 0.0958647 -0.0133652 -0.0669436 1.7615 -0.691268 -0.365762 -0.0758405 0.879632 -0.0779976 0.04 
323 1 1 -0.442262 -0.959693 -0.960355 0 0 0 0.00424047 0.00724075 0.0433015 -1.55984 0.167121 10.3183 -0.270624 -0.29141 -0.0529946 0.04 
130 1 1 -0.36291 -0.96007 -0.960314 0 0 0 0.0441338 0.000902781 -0.0174777 5.29566 -0.848852 -3.34717 0.0540379 0.343379 -0.074739 0.04 
502 1 1 -0.28333 -0.960187 -0.960218 0 0 0 -0.006145 -0.0112977 -0.0037325 6.70236 -4.04426 0.747618 -0.0288385 -0.260506 -0.0662565 0.04 
494 1 1 -0.178712 -0.960449 -0.960174 0 0 0 -0.0515869 -0.0122215 -0.00745836 0.976104 1.17767 -1.18725 0.264915 -0.177262 0.218901 0.04 
448 1 1 -0.0990933 -0.959178 -0.960244 0 0 0 -0.0768694 0.000643964 0.00901447 7.45302 0.927746 2.41754 0.118573 -0.269331 0.289592 0.04 
147 1 1 -0.019361 -0.959924 -0.960278 0 0 0 -0.0660382 -0.000555412 0.0140136 0.4339 -1.95363 -5.38674 0.446908 -0.98522 -0.222156 0.04 
218 1 1 0.0604934 -0.959935 -0.960127 0 0 0 -0.0594936 0.0190538 0.00258526 1.31418 -0.440618 -2.80069 0.0164505 -0.405263 0.410972 0.04 
339 1 1 0.182556 -0.960316 -0.960224 0 0 0 -0.0658357 0.0311249 0.0291482 -6.47789 -2.8854 -3.74201 -0.291281 -0.717829 0.656091 0.04 
341 1 1 0.312609 -0.960079 -0.960295 0 0 0 0.00691906 -0.000746527 -0.00818135 -3.12849 0.803144 3.17993 0.0727032 0.248611 -0.116555 0.04 
203 1 1 0.392407 -0.960245 -0.96024 0 0 0 0.0375989 0.0894832 -0.0160469 -2.58882 -5.7923 -2.5925 -0.18075 0.290115 -0.584813 0.04 
1019 1 1 0.47241 -0.960145 -0.960187 0 0 0 0.0286669 -0.0193053 -0.0248624 -4.02649 8.45418 4.55719 -0.0702349 0.232081 -0.0100784 0.04 
821 1 1 0.552321 -0.960032 -0.960412 0 0 0 -0.0146073 0.012088 -0.00458522 -3.86048 0.336141 7.62906 -0.0323683 0.573021 0.0724798 0.04 
636 1 1 0.631956 -0.960333 -0.960429 0 0 0 -0.0146264 -0.00309602 -0.0550357 0.122949 3.90661 10.4401 -0.202717 -0.0261954 -0.0845318 0.04 
729 1 1 0.718835 -0.960108 -0.96017 0 0 0 0.101482 0.0957037 -0.00945474 1.45182 -1.5493 2.9429 -0.87264 0.783771 -0.125772 0.04 
503 1 1 0.798788 -0.95936 -0.960219 0 0 0 0.117868 0.0347113 -0.0063517 -22.1247 -4.28571 4.27083 0.161114 0.689556 0.265853 0.04 
424 1 1 0.878204 -0.959429 -0.960116 0 0 0 0.0309096 -0.0259603 0.0309523 20.76 -11.5713 -1.76748 0.163618 -0.208788 -0.98604 0.04 
850 1 1 0.95932 -0.958004 -0.96018 0 0 0 0.0162702 0.000968926 0.0181777 -0.313954 -0.0495469 2.89987 -0.0141894 0.294292 -0.0223224 0.04 
918 1 1 -0.890709 -0.897292 -0.960237 0 0 0 -0.0220222 -0.058567 -0.0260209 -0.103725 -0.078089 5.76064 0.566931 1.49067 3.53796 0.04 
246 1 1 -0.805544 -0.887638 -0.960122 0 0 0 0.149408 0.00702435 -0.143423 3.25667 -0.663863 -3.2636 -0.706092 1.16155 -1.38237 0.04 
586 1 1 -0.723442 -0.889839 -0.96036 0 0 0 0.255441 -0.0945971 -0.0591577 6.9792 -6.50639 4.41373 3.18745 1.73919 -0.588072 0.04 
379 1 1 -0.642623 -0.888713 -0.960218 0 0 0 0.0493677 0.00985213 0.0363995 -2.37378 -3.09693 2.22792 -0.166099 1.55974 0.263178 0.04 
105 1 1 -0.54815 -0.884689 -0.960316 0 0 0 0.00879134 0.00895925 0.0141637 6.10868 -2.99647 3.92365 -0.088208 0.219219 0.433647 0.04 
289 1 1 -0.468235 -0.88139 -0.960587 0 0 0 -0.0132798 -0.207631 -0.102175 -7.96571 -8.22076 10.9819 -0.0241799 -0.0173898 -0.716674 0.04 
345 1 1 -0.38871 -0.882731 -0.960371 0 0 0 0.00844849 -0.0789713 -0.00807263 4.72618 -4.52529 7.85998 -0.0181117 0.100795 0.142615 0.04 
209 1 1 -0.309111 -0.884636 -0.960405 0 0 0 0.0140174 -0.0689889 -0.0227723 7.30086 5.40288 10.366 0.424454 -0.346312 -0.277265 0.04 
647 1 1 -0.230594 -0.900429 -0.959974 0 0 0 0.0299331 0.00154106 0.0164707 -5.57894 11.8185 -6.32616 -0.0952329 -0.779498 -0.3109 0.04 
700 1 1 -0.145265 -0.887956 -0.959477 0 0 0 -0.0573777 -0.0135631 -0.0182853 2.94783 -7.22805 -9.1093 0.354146 -1.27639 0.906138 0.04 
616 1 1 -0.0612795 -0.884478 -0.95997 0 0 0 -0.0815469 -0.0504107 -0.013145 0 0 -6.57473 -0.608412 -0.305156 0.629988 0.04 
87 1 1 0.0194673 -0.888556 -0.959144 0 0 0 -0.0697851 0.0139418 0.08402 0 0 -6.57473 -0.0675407 -1.62156 -0.0661654 0.04 
655 1 1 0.113473 -0.89994 -0.960214 0 0 0 -0.0128372 -0.0108433 -0.0240551 8.73407 -8.33764 0.791301 0.156402 0.0461707 -1.92845 0.04 
977 1 1 0.1912 -0.881411 -0.956374 0 0 0 0.02139 0.0361211 -0.347435 1.52006 1.1948 -10.7791 -0.333057 0.632633 0.206672 0.04 
19 1 1 0.270413 -0.892209 -0.959976 0 0 0 0.0624033 0.0434778 -0.0130671 -2.12606 2.07128 -7.15676 -0.465629 0.887208 -0.627052 0.04 
443 1 1 0.351306 -0.889338 -0.960337 0 0 0 0.0145973 -0.0238437 -0.0175814 -3.37638 6.40877 -0.267175 0.493777 0.369085 0.422432 0.04 
664 1 1 0.431886 -0.891186 -0.960263 0 0 0 0.00921071 -0.00732424 -0.0393454 3.01508 2.34423 1.36138 -0.285 0.403228 0.145719 0.04 
396 1 1 0.511681 -0.881871 -0.95937 0 0 0 0.0281678 0.0464551 0.225137 0 0 -6.57473 -1.11304 0.819708 0.89107 0.04 
74 1 1 0.592762 -0.890607 -0.960244 0 0 0 -0.0176216 0.126784 -0.0273687 0.47387 -1.53849 6.18277 0.0114088 0.909517 -0.828026 0.04 
50 1 1 0.674969 -0.893421 -0.960117 0 0 0 0.0367818 -0.000978132 0.00318905 -11.112 13.8043 -0.515106 0.865055 0.712795 -0.643193 0.04 
812 1 1 0.888384 -0.880396 -0.960714 0 0 0 0.14324 -0.147486 -0.0995502 -0.108032 5.9599 24.4051 -0.591399 1.07798 1.34038 0.04 
778 1 1 -0.959352 -0.852867 -0.960238 0 0 0 -0.0447517 -0.220764 0.166946 -3.5006 20.578 -27.9155 3.3442 -0.71281 -1.96075 0.04 
352 1 1 -0.855292 -0.823293 -0.958241 0 0 0 -0.159029 -0.289009 -0.104354 0 0 -6.57473 0.20169 -0.304483 1.0069 0.04 
960 1 1 -0.687545 -0.816734 -0.960129 0 0 0 -0.0850021 -0.149817 -0.00226539 -3.46229 -6.78964 -10.2221 1.61235 -0.595949 0.125319 0.04 
380 1 1 -0.534413 -0.804788 -0.96086 0 0 0 -0.0838854 0.0441784 0.0451708 8.80317 1.61034 30.1414 -0.30389 0.190556 0.924973 0.04 
720 1 1 -0.255722 -0.82493 -0.961095 0 0 0 0.00512453 0.0116721 0.254745 -3.21096 -5.21408 16.1553 0.697619 0.232169 -0.764237 0.04 
161 1 1 -0.158045 -0.809323 -0.960925 0 0 0 -0.00465779 -0.0442475 -0.0674104 -5.79764 1.08317 22.6839 0.168412 -0.481692 -0.562272 0.04 
827 1 1 -0.000884889 -0.809539 -0.9602 0 0 0 0.0422386 0.0390629 0.0312961 2.36842 4.68368 -9.1178 -0.0927019 0.474331 -0.422553 0.04 
784 1 1 0.0764242 -0.829574 -0.960154 0 0 0 0.0589992 0.015336 -0.000925631 -5.27162 6.78696 -10.2439 0.0610017 -0.156548 0.825913 0.04 
211 1 1 0.155224 -0.810503 -0.960504 0 0 0 -0.0433721 0.0588544 -0.0194226 -3.34573 -0.466346 -2.88047 -0.134574 0.41976 -0.53337 0.04 
121 1 1 0.235004 -0.814982 -0.960375 0 0 0 -0.010629 0.0810076 -0.0697897 5.77704 -0.0355028 7.46192 0.349109 -0.77189 0.518685 0.04 
229 1 1 0.384172 -0.814643 -0.960077 0 0 0 -0.143191 0.110568 -0.0234039 -1.80442 -4.57191 -5.39237 -0.844881 0.077467 -0.73972 0.04 
866 1 1 0.597494 -0.810772 -0.96016 0 0 0 0.05292 0.07525 -0.0542073 -15.1993 -4.99498 3.36646 0.031013 0.925542 0.494155 0.04 
628 1 1 0.676988 -0.813469 -0.958931 0 0 0 0.0213859 0.0123143 0.0388692 -1.20933 -7.87367 -6.61648 1.33736 0.880496 0.81654 0.04 
1 1 1 0.748944 -0.864203 -0.960075 0 0 0 -0.00556698 0.107548 0.001009 16.2966 1.50618 -2.56482 -0.0620481 1.18239 -0.285303 0.04 
554 1 1 0.820125 -0.823682 -0.959981 0 0 0 -0.0546772 -0.0411963 -0.0358582 5.99341 -3.4167 -9.15285 0.659851 -0.535644 -0.665958 0.04 
417 1 1 0.958477 -0.841967 -0.960001 0 0 0 -0.0711571 -0.0111713 -0.0609828 2.84934 1.41031 -5.76135 -0.80972 -0.81638 -1.09243 0.04 
446 1 1 -0.959509 -0.772242 -0.960183 0 0 0 -0.0215477 -0.0111047 -0.16766 -9.98687 3.36904 -8.96485 1.61666 2.23717 0.600456 0.04 
894 1 1 -0.771273 -0.782495 -0.960188 0 0 0 0.162465 -0.253226 0.0159945 -4.10101 -5.82538 -8.11599 1.13386 2.15037 -1.11008 0.04 
290 1 1 -0.611589 -0.785122 -0.959781 0 0 0 -0.035572 -0.0332129 0.0289942 -13.5457 9.60044 -11.6035 0.0258221 -0.571333 -0.110689 0.04 
52 1 1 -0.454036 -0.79498 -0.960632 0 0 0 0.0637937 -0.0622429 0.0291351 -7.57552 5.58933 21.5842 0.095708 -0.0122192 0.753791 0.04 
480 1 1 -0.375469 -0.775451 -0.960728 0 0 0 0.058179 0.135217 0.0639709 -6.49463 2.31306 11.546 -1.25419 0.915946 -0.152646 0.04 
402 1 1 -0.297743 -0.756385 -0.960179 0 0 0 0.0498454 0.0423254 0.00865729 -7.60402 -0.428104 2.90529 -0.946378 0.365818 -1.01189 0.04 
322 1 1 -0.217986 -0.753684 -0.95995 0 0 0 0.0671033 -0.0571996 -0.0883787 -0.85946 -1.95352 -5.77966 -0.0900429 -0.156872 -0.673259 0.04 
385 1 1 -0.0794333 -0.79478 -0.96022 0 0 0 -0.0515323 -0.0152912 -0.0244468 0.621043 0.808534 6.08882 0.369954 -0.651579 0.764794 0.04 
773 1 1 0.107423 -0.740135 -0.960198 0 0 0 -0.0138438 -0.0153053 0.0510891 0.090219 0.159502 3.28224 0.549281 -0.128481 0.157647 0.04 
725 1 1 0.190139 -0.738723 -0.960101 0 0 0 0.0842229 0.00303087 -0.0386802 1.6561 3.61296 -0.217494 0.420648 -0.116954 -1.20509 0.04 
354 1 1 0.3092 -0.785217 -0.960376 0 0 0 0.0178763 0.142121 -0.00493217 -2.40368 -2.47027 -3.40613 -2.33848 -0.551361 -0.848175 0.04 
688 1 1 0.481685 -0.755103 -0.960412 0 0 0 0.128285 0.0169699 -0.0590801 -11.8291 -12.0288 -22.2384 -0.836668 1.06856 0.415205 0.04 
757 1 1 0.57183 -0.735174 -0.959024 0 0 0 0.0209828 0.00499331 0.0121345 -4.80402 -1.98978 -6.67718 2.16081 -1.70465 -0.599468 0.04 
519 1 1 0.65345 -0.736974 -0.960412 0 0 0 -0.0775014 0.06917 0.027909 0.446332 -1.03778 16.019 0.308951 -1.06722 -1.07387 0.04 
742 1 1 0.750902 -0.784299 -0.960127 0 0 0 0.00397656 -0.0505741 0.0546518 -4.27111 13.348 -1.21914 0.814793 -0.167142 0.608987 0.04 
603 1 1 0.819178 -0.743232 -0.959959 0 0 0 -0.00858969 0.0531576 0.0782777 1.32607 1.00361 -7.09149 -1.11562 0.15396 -0.0547086 0.04 
86 1 1 0.894187 -0.793989 -0.959839 0 0 0 -0.04773 -0.0389092 -0.00286431 -3.65339 -3.32474 -6.48544 -0.923113 0.482414 1.85225 0.04 
972 1 1 0.960241 -0.749498 -0.960111 0 0 0 -0.00635883 0.114564 -0.0168332 10.9662 -8.88182 -0.268808 -0.198977 0.0533591 -0.643844 0.04 
488 1 1 -0.959351 -0.682023 -0.959735 0 0 0 0.089405 0.0106436 0.0302096 0 0 -6.57473 0.363097 0.518624 -0.358028 0.04 
492 1 1 -0.83217 -0.730735 -0.959489 0 0 0 0.197632 -0.0950739 -0.0902021 9.09858 1.48328 -12.0619 -0.0117216 0.533436 -0.489366 0.04 
564 1 1 -0.741474 -0.70762 -0.960476 0 0 0 0.017095 -0.00606168 0.0741916 2.50864 -14.8603 7.5811 0.264355 -0.121282 -0.569591 0.04 
314 1 1 -0.662736 -0.723643 -0.96005 0 0 0 -0.057508 0.0278804 -0.0995956 2.38884 7.37673 -19.5429 0.690073 -0.362981 0.740729 0.04 
783 1 1 -0.602407 -0.668855 -0.961083 0 0 0 -0.0358852 -0.156818 -0.212877 0.973035 3.00298 56.5591 -0.0165902 0.383329 -1.26271 0.04 
1127 1 1 -0.545708 -0.725568 -0.960305 0 0 0 -0.049584 -0.00474536 0.085062 0.629942 0.485856 9.33605 0.00678859 -1.09995 -1.53047 0.04 
241 1 1 -0.464958 -0.712487 -0.960445 0 0 0 0.0395751 0.0784355 0.0669643 1.8382 3.11341 12.5868 -0.679514 0.0417822 1.73968 0.04 
85 1 1 -0.385817 -0.695255 -0.960297 0 0 0 0.0453041 0.0753797 0.0182059 -5.55506 -1.98335 4.98729 -1.15236 0.155461 0.815391 0.04 
511 1 1 -0.301383 -0.676191 -0.960088 0 0 0 -0.215051 0.0457071 -0.0306993 5.2782 5.18125 -8.66735 -0.181792 -1.86727 -1.03043 0.04 
873 1 1 -0.216754 -0.673523 -0.96026 0 0 0 -0.0477346 -0.0142958 0.0395335 1.79239 -3.79986 -11.9145 -0.230767 -1.08968 0.639416 0.04 
376 1 1 -0.141304 -0.731626 -0.960211 0 0 0 -0.00832634 -0.117668 0.000563706 9.35801 3.48436 3.3148 0.614555 0.0821109 -0.154134 0.04 
204 1 1 -0.0630112 -0.714341 -0.960278 0 0 0 0.0138686 0.004868 -0.0169691 -4.03467 5.7453 -2.28998 0.604354 -0.173995 0.609581 0.04 
1122 1 1 0.0154338 -0.729712 -0.960153 0 0 0 0.00442252 0.0178726 -0.0145842 2.26572 -1.10488 1.50748 -0.589468 -0.143805 -0.626865 0.04 
967 1 1 0.277863 -0.699777 -0.960084 0 0 0 0.104262 -0.0229993 0.000492772 -0.207104 0.11031 -1.88173 -0.68817 0.236628 0.452434 0.04 
159 1 1 0.355409 -0.719724 -0.960157 0 0 0 0.0457539 0.122531 -0.0133903 -0.240496 -0.373939 2.31727 -0.820291 -0.300319 -0.050265 0.04 
451 1 1 0.433198 -0.691546 -0.960082 0 0 0 0.0161188 0.0597515 -0.0288119 2.30538 3.75937 -8.71921 -0.6752 0.638979 0.749438 0.04 
177 1 1 0.512531 -0.681558 -0.960167 0 0 0 0.0102101 0.0695294 0.0127137 9.58898 -15.8045 -1.46253 -0.851004 0.506946 -0.10746 0.04 
439 1 1 0.749278 -0.704199 -0.960405 0 0 0 0.0757854 -0.118216 -0.00470893 -0.926954 -17.4625 -14.9815 -0.416697 0.535439 2.15563 0.04 
188 1 1 0.891431 -0.709516 -0.960355 0 0 0 0.0179261 -0.0626798 -0.0660262 -16.4741 -1.93932 1.32087 -0.0443654 -0.294964 0.0778186 0.04 
987 1 1 0.960191 -0.669632 -0.960377 0 0 0 0.032975 0.0285722 -0.00859392 6.40638 3.31761 3.65761 0.0109026 -0.355256 0.0371861 0.04 
532 1 1 -0.882312 -0.659473 -0.960206 0 0 0 0.0762852 -0.0994704 0.00215224 -0.375047 0.433278 4.88635 0.280534 -0.00321971 0.344617 0.04 
826 1 1 -0.802297 -0.6559 -0.960162 0 0 0 0.114901 0.00373266 -0.065273 -7.15165 2.13577 3.70695 0.311177 0.542588 0.693054 0.04 
567 1 1 -0.682141 -0.646173 -0.960316 0 0 0 0.0796422 -0.0677991 -0.150877 -2.58818 6.01105 13.1877 1.18558 0.294398 -0.0225676 0.04 
170 1 1 -0.51896 -0.638231 -0.958109 0 0 0 -0.0555842 0.021879 -0.0449801 -4.82354 -0.0293763 -6.25542 -1.62759 2.32729 -3.17945 0.04 
375 1 1 -0.439204 -0.635021 -0.960471 0 0 0 0.00907872 0.0484777 -0.0197191 6.87602 -8.1196 2.57568 -0.790465 -0.35323 1.3335 0.04 
709 1 1 -0.360702 -0.619378 -0.96036 0 0 0 -0.0809592 0.0279056 -0.0129029 -1.5485 0.106474 9.11033 -0.744733 -1.15421 0.892343 0.04 
738 1 1 -0.125153 -0.653805 -0.960282 0 0 0 0.0676388 -0.0683047 -0.0224171 5.08094 10.2602 0.842505 1.34113 0.214671 0.399628 0.04 
1046 1 1 -0.0472731 -0.635673 -0.96049 0 0 0 0.00251224 0.00471741 0.0045837 2.20303 -7.09583 4.08876 -0.337658 -0.283119 0.133343 0.04 
581 1 1 0.033522 -0.650761 -0.960078 0 0 0 -0.0523747 0.0240878 -0.00023629 -4.58242 2.23434 -9.73837 -0.097228 -0.428936 -0.806329 0.04 
1088 1 1 0.118237 -0.660826 -0.960223 0 0 0 0.0109019 -0.125905 0.0049734 -0.387349 -5.22121 -1.39858 0.669568 -0.0782111 1.11052 0.04 
862 1 1 0.207868 -0.660773 -0.960583 0 0 0 0.0635747 -0.0276424 0.00229718 -4.04802 -2.57317 21.1046 -0.193788 0.653437 0.629135 0.04 
656 1 1 0.325452 -0.634871 -0.960018 0 0 0 -0.0551908 -0.0623595 0.027739 0.0175493 0.0274379 -5.92332 0.639483 -0.791745 0.250938 0.04 
1082 1 1 0.407208 -0.61594 -0.960218 0 0 0 0.00206698 0.0487308 0.0303191 -13.9175 -20.2997 -2.77704 -0.179236 0.662418 -1.00052 0.04 
255 1 1 0.48606 -0.606707 -0.960199 0 0 0 0.0127813 0.00485616 -0.0034884 11.7077 4.44362 -8.85134 -1.01848 0.424516 0.224055 0.04 
880 1 1 0.610552 -0.665412 -0.960088 0 0 0 -0.0452425 -0.0554108 0.0109843 8.61204 2.06365 -3.28795 -0.0787129 -1.5352 -0.889626 0.04 
1111 1 1 0.673602 -0.597147 -0.960097 0 0 0 0.00687661 0.0389176 -0.00488366 -20.151 -4.45442 -6.07516 0.319289 0.309809 -0.56365 0.04 
543 1 1 0.748351 -0.624393 -0.960193 0 0 0 0.00356905 -0.029455 0.0259173 5.17137 6.16028 2.70352 0.647681 -0.549961 -0.764422 0.04 
662 1 1 0.818418 -0.662389 -0.960936 0 0 0 -0.0926118 0.0689553 0.00493438 -6.33642 -12.4997 35.3258 -1.21095 -0.87355 0.0145568 0.04 
553 1 1 0.890925 -0.629465 -0.960087 0 0 0 0.0485154 0.00120441 0.000525221 -2.27319 0.0283414 -7.20447 0.269826 0.354756 -0.0338509 0.04 
260 1 1 -0.959542 -0.587836 -0.96051 0 0 0 0.013117 -0.041956 -0.0415403 -1.24068 1.87926 8.52666 0.642477 0.368243 -1.20178 0.04 
990 1 1 -0.879905 -0.579299 -0.960196 0 0 0 0.047058 -0.137266 0.0455842 -0.0455742 0.069507 3.40836 1.11473 0.559891 0.895711 0.04 
565 1 1 -0.807525 -0.545223 -0.960004 0 0 0 0.0185346 -0.036324 -0.00237892 -1.40078 -4.85026 -8.35659 0.675063 0.316497 0.150604 0.04 
1152 1 1 -0.746666 -0.598491 -0.959968 0 0 0 0.103149 -0.0502554 0.0838901 1.87993 -2.33887 -11.5014 0.0205058 0.773311 0.783717 0.04 
1113 1 1 -0.687888 -0.542922 -0.960209 0 0 0 -0.0483616 -0.148036 -0.00482426 -10.7161 8.47664 4.66944 -0.0439735 0.808615 1.05737 0.04 
925 1 1 -0.623539 -0.589788 -0.960491 0 0 0 0.121651 -0.0243716 0.0226741 9.95148 -9.41603 19.9156 2.06307 0.987211 1.26388 0.04 
893 1 1 -0.548462 -0.561684 -0.960038 0 0 0 -0.0152906 0.183135 -0.0958158 -12.9452 1.62679 -22.5992 -0.839373 -0.276148 1.89212 0.04 
1103 1 1 -0.458452 -0.557686 -0.959353 0 0 0 0.0536954 0.0959796 -0.280508 17.649 14.7449 -35.034 0.260766 0.846478 -0.786389 0.04 
1448 1 1 -0.378196 -0.540663 -0.960092 0 0 0 0.00773081 0.141311 0.00936602 0.0972522 -0.230375 -1.5735 -2.35883 0.690803 -0.487987 0.04 
631 1 1 -0.293815 -0.575623 -0.95994 0 0 0 -0.0995372 0.0472673 -0.0275604 -7.27567 -5.58474 -6.62928 -1.02986 0.162082 0.36571 0.04 
714 1 1 -0.216031 -0.593855 -0.960529 0 0 0 -0.00147205 -0.0715671 -0.113776 -3.53997 2.2458 14.6968 0.661651 -1.30195 -0.524419 0.04 
962 1 1 -0.154359 -0.543149 -0.96032 0 0 0 -0.0541935 0.0341997 0.0439892 1.78196 6.2178 7.57657 0.441238 -0.561924 0.209241 0.04 
950 1 1 -0.0766201 -0.561564 -0.960357 0 0 0 0.0331085 -0.0170669 -0.00408718 -7.85268 10.9164 3.22684 0.128501 -0.5165 -0.386065 0.04 
716 1 1 0.00520687 -0.575468 -0.960113 0 0 0 0.00437962 -0.0436356 0.0321587 1.08042 -7.1246 -1.82129 -0.282633 0.147951 0.0407843 0.04 
388 1 1 0.0839188 -0.58868 -0.959999 0 0 0 -0.0137159 -0.0580167 -0.00906619 1.13553 -3.45548 -9.75839 -0.0669053 -0.565073 -0.588946 0.04 
61 1 1 0.163831 -0.594097 -0.960329 0 0 0 -0.0745892 -0.10115 0.0197921 -8.09599 -15.5038 -9.47633 0.451765 -0.160068 0.727152 0.04 
1052 1 1 0.252693 -0.594668 -0.959806 0 0 0 0.0197631 -0.100444 -0.159313 3.12453 1.96431 -11.3672 -2.92737 -1.54019 1.98206 0.04 
576 1 1 0.320247 -0.551707 -0.959379 0 0 0 -0.0195305 -0.000337583 -0.0360289 -5.6045 -1.57035 -7.03412 0.495565 0.151868 -0.0885717 0.04 
408 1 1 0.398648 -0.536792 -0.96001 0 0 0 0.0673502 -5.13858e-05 -0.00402813 -7.43666 9.44967 -4.78243 -0.324216 -0.428389 0.654589 0.04 
1026 1 1 0.565409 -0.599615 -0.960313 0 0 0 0.0492246 -0.0363797 -0.00773747 -0.371981 1.14367 5.42853 0.78324 0.474713 -0.839719 0.04 
1138 1 1 0.734401 -0.54566 -0.960175 0 0 0 0.0150774 0.00373776 -0.0175931 12.0774 8.12532 -2.53087 0.570613 -0.220101 0.765316 0.04 
58 1 1 0.810753 -0.573141 -0.960216 0 0 0 0.0501475 -0.0867692 -0.0143898 -0.442504 0.421909 5.6534 0.669857 -0.321618 -1.03728 0.04 
1107 1 1 0.888861 -0.548693 -0.960172 0 0 0 0.0612178 0.069433 0.035265 2.52434 3.50262 -4.01458 -0.54063 -0.112512 0.316907 0.04 
252 1 1 0.960114 -0.589855 -0.960301 0 0 0 0.00858566 -0.0122764 0.00439582 3.54401 5.67983 -1.09964 0.111253 0.048094 0.436386 0.04 
670 1 1 -0.959388 -0.504419 -0.960059 0 0 0 0.0240056 -0.0531057 -0.00863667 -1.15464 -3.00955 -7.65984 0.290017 -0.226879 0.308422 0.04 
644 1 1 -0.748925 -0.490879 -0.960058 0 0 0 0.0389747 -0.0301249 0.00985365 1.65654 3.76514 -5.85041 1.44961 1.16124 -1.16818 0.04 
435 1 1 -0.613943 -0.509868 -0.959988 0 0 0 0.0209332 -0.0146097 0.0119854 1.29194 -8.59292 -12.2758 0.34511 -0.684472 -0.127898 0.04 
816 1 1 -0.487675 -0.482969 -0.960167 0 0 0 0.0481538 -0.0159289 -0.0482762 -0.307891 -12.2866 -2.78051 0.163206 -0.796617 -0.506305 0.04 
344 1 1 -0.407023 -0.464955 -0.960174 0 0 0 -0.099166 0.11024 -0.0129232 0.384394 -0.307384 3.26893 -1.69034 -1.14444 -0.287013 0.04 
489 1 1 -0.315416 -0.485679 -0.960461 0 0 0 -0.0952156 0.117496 0.0812718 -3.93584 -0.843557 4.31201 -3.007 -1.12763 -1.6424 0.04 
883 1 1 -0.239662 -0.517127 -0.960108 0 0 0 -0.0382749 0.0643623 -0.0643402 3.00938 11.7963 -9.30539 0.63254 0.4952 -0.903126 0.04 
675 1 1 -0.100386 -0.48355 -0.953817 0 0 0 -0.021392 0.00676055 0.15733 -10.281 -4.27295 -6.00768 0.393631 -2.54439 -0.324271 0.04 
1066 1 1 -0.0228746 -0.500952 -0.960529 0 0 0 -0.0139257 -0.0369941 -0.007712 -1.55331 1.59687 4.16447 0.0753336 -0.535248 0.368621 0.04 
143 1 1 0.0584004 -0.512823 -0.960073 0 0 0 -0.100585 -0.0348925 0.0258346 0.603878 -1.04064 -2.89179 0.331418 0.169892 0.0630708 0.04 
867 1 1 0.208378 -0.528256 -0.960567 0 0 0 -0.040659 -0.0831535 0.044244 -13.433 4.84524 20.2004 1.20684 0.947963 -0.902692 0.04 
1000 1 1 0.275218 -0.485542 -0.960219 0 0 0 -0.0793809 -0.0767306 -0.0176712 0.344528 20.1397 -4.86594 -0.28564 -0.984705 1.11427 0.04 
792 1 1 0.353232 -0.47115 -0.960083 0 0 0 -0.0413308 -0.0382606 0.0552893 22.0901 4.6533 -4.47179 0.988025 -0.277104 0.490015 0.04 
814 1 1 0.477742 -0.527708 -0.960945 0 0 0 -0.0434231 0.0266313 0.0953177 -4.78486 5.50341 23.6084 0.45946 -0.515838 -0.0231168 0.04 
1288 1 1 0.576936 -0.520549 -0.96015 0 0 0 0.0314316 -0.0087382 -0.011941 1.83598 2.47256 -6.19051 0.0119363 -1.20455 0.237982 0.04 
908 1 1 0.661437 -0.506349 -0.960142 0 0 0 0.00302871 0.0104062 -0.0454969 10.6526 -12.5644 1.81389 -0.673226 0.955999 -0.109963 0.04 
1309 1 1 0.796705 -0.493522 -0.959845 0 0 0 -0.125583 -0.0151551 -0.00176888 0.910157 -0.23083 -7.00952 -0.28126 -0.920071 2.59186 0.04 
771 1 1 0.959482 -0.509956 -0.96011 0 0 0 -0.0586411 -0.0208423 -0.0495802 1.64036 -6.73162 -2.0297 0.52662 0.578564 0.383078 0.04 
1055 1 1 -0.960497 -0.408476 -0.960131 0 0 0 0.00986039 -0.0580644 -0.00618626 6.8686 -4.02449 -1.54073 0.118295 0.0175961 -0.775138 0.04 
739 1 1 -0.891772 -0.449241 -0.960325 0 0 0 -0.000563614 -0.0577284 -0.0223745 0.433419 -0.333345 2.90047 0.747269 -0.0950341 -0.330299 0.04 
1142 1 1 -0.821786 -0.409904 -0.960235 0 0 0 0.0293047 -0.0746947 -0.00893921 1.5933 7.94069 -4.27015 0.782328 -0.314995 -0.649682 0.04 
833 1 1 -0.675588 -0.458926 -0.960099 0 0 0 -0.00402414 -0.0733892 0.0844482 -17.8773 -3.13165 -17.616 0.7628 0.945334 0.912106 0.04 
620 1 1 -0.555786 -0.430623 -0.960112 0 0 0 -0.0693526 -0.0112653 0.0984782 3.77605 1.00856 -6.58025 0.282706 -1.27659 0.142066 0.04 
1316 1 1 -0.469949 -0.405346 -0.960478 0 0 0 0.0907955 -0.0677216 0.131117 12.1649 17.2922 -6.45578 0.898835 0.500554 -1.47471 0.04 
247 1 1 -0.327348 -0.403648 -0.960246 0 0 0 -0.0248651 -0.00774914 -0.0170865 -1.65773 -0.812243 -1.49071 -0.0606954 0.102761 0.211532 0.04 
382 1 1 -0.252982 -0.435777 -0.960196 0 0 0 0.0827401 0.0529922 -0.0349151 -2.55275 -4.60096 -0.933304 0.15818 -0.00416001 0.231357 0.04 
305 1 1 -0.178352 -0.465735 -0.960169 0 0 0 -0.0327697 0.0735235 -0.0254919 3.5064 -0.826875 -1.02633 -0.502974 -0.0198278 -0.15357 0.04 
1271 1 1 -0.0934562 -0.404305 -0.960523 0 0 0 0.0219668 -0.0256706 0.0102637 0.946792 6.86757 2.46522 -0.425317 0.236388 -0.88463 0.04 
1249 1 1 0.0322765 -0.437241 -0.960244 0 0 0 -0.024325 -0.0155593 -0.00183461 7.92765 0.000647254 0.492035 0.0647523 -1.0596 -0.933446 0.04 
1030 1 1 0.106447 -0.405279 -0.959944 0 0 0 -0.0638702 -0.057946 -0.0366767 -0.410078 -3.48392 -5.38406 0.301048 -0.0594109 -1.03489 0.04 
1346 1 1 0.15618 -0.467503 -0.960257 0 0 0 0.00582195 -0.115804 -0.0124823 10.4495 -8.86231 -8.74977 0.184481 -0.432007 1.07153 0.04 
1148 1 1 0.222464 -0.422709 -0.960037 0 0 0 -0.0216374 0.0475574 -0.0329299 -2.35618 -5.99704 -6.66817 -0.476732 -0.874372 0.531258 0.04 
772 1 1 0.302374 -0.40969 -0.960465 0 0 0 -0.00423077 -0.0335569 -0.0391219 -4.28801 3.90883 20.2289 -0.984287 -0.576438 0.791787 0.04 
1361 1 1 0.432455 -0.460865 -0.95854 0 0 0 -0.0832805 -0.117909 0.176303 3.868 0.678078 -6.58851 -1.61703 -0.9334 1.42787 0.04 
584 1 1 0.522718 -0.462152 -0.960485 0 0 0 -0.0502678 -0.0472423 0.064818 5.03499 1.58075 2.2704 0.0575889 -0.340894 -1.13192 0.04 
1047 1 1 0.608504 -0.446977 -0.96037 0 0 0 -0.050353 0.0581866 -0.0163165 -9.71085 7.72098 9.74081 0.321181 1.14368 -2.24964 0.04 
1474 1 1 0.683969 -0.419056 -0.960244 0 0 0 0.0567283 -0.00382928 0.0306567 -3.52649 6.24992 -2.32699 -0.085098 0.435107 0.38954 0.04 
840 1 1 0.764967 -0.4145 -0.960582 0 0 0 0.0722374 0.0142852 -0.0954891 16.6263 14.2169 -25.3439 0.138428 -0.323922 -1.51266 0.04 
9 1 1 0.890065 -0.468035 -0.960554 0 0 0 0.0603658 -0.0178534 -0.033831 6.39763 -13.2352 8.10759 0.287349 0.10348 -0.402977 0.04 
852 1 1 0.960207 -0.430211 -0.960046 0 0 0 0.0334163 -0.0142304 -0.0700452 -1.39776 -1.1168 -1.9505 0.327046 0.360145 0.194022 0.04 
326 1 1 -0.891461 -0.369119 -0.960263 0 0 0 0.0217038 -0.0885393 -0.0140435 16.2012 -2.19975 0.3713 0.498746 0.227089 -0.30705 0.04 
1246 1 1 -0.750062 -0.374109 -0.96027 0 0 0 -0.0778379 -0.123546 -0.0450009 1.5721 0.580833 7.6529 1.83701 -0.637762 0.544348 0.04 
613 1 1 -0.622856 -0.386274 -0.960209 0 0 0 -0.0279096 -0.0358348 0.028735 0.23646 -0.744757 4.6672 0.876654 -0.709178 -0.231591 0.04 
857 1 1 -0.529923 -0.349663 -0.959954 0 0 0 -0.0519996 -0.0128052 0.060466 0 0 -6.57473 0.400078 -1.42292 0.494986 0.04 
92 1 1 -0.402441 -0.361288 -0.960406 0 0 0 0.00794178 -0.0225721 0.00758913 -3.06627 1.21052 12.3119 0.709902 0.498472 0.255672 0.04 
1124 1 1 -0.263613 -0.355619 -0.960276 0 0 0 -0.00941379 -0.0286034 -0.00845591 -3.04006 -4.43483 0.114227 0.244841 0.023328 -0.515472 0.04 
868 1 1 -0.18995 -0.386602 -0.960136 0 0 0 0.030992 0.0392107 0.0109106 -1.7242 2.29529 -7.1667 -0.117376 0.0338603 0.71586 0.04 
1223 1 1 -0.0215015 -0.368847 -0.960316 0 0 0 -0.00491426 0.0147875 -0.0178392 -1.44162 1.44412 -1.1629 -0.555962 -0.146201 -0.129841 0.04 
144 1 1 0.0547157 -0.344776 -0.960365 0 0 0 0.00413935 -0.0151449 0.0135925 -3.78662 1.45565 0.249707 -0.0315159 0.106208 -1.41462 0.04 
315 1 1 0.172331 -0.360018 -0.960382 0 0 0 -0.120949 -0.0830077 0.00389881 -3.20164 -5.24848 14.4942 0.0577329 -1.58667 1.20992 0.04 
1187 1 1 0.25134 -0.348203 -0.960382 0 0 0 -0.0809164 -0.0894773 0.0337821 10.2311 -0.538016 10.3684 0.756999 0.236308 -0.483117 0.04 
845 1 1 0.383722 -0.394331 -0.960284 0 0 0 -0.0249518 -0.0257613 0.023899 0.898845 -3.13635 -0.812519 -1.4203 -0.269828 1.53044 0.04 
220 1 1 0.330706 -0.334899 -0.960409 0 0 0 -0.0464 -0.0512052 -0.039924 -0.356147 8.10896 7.25476 0.407812 -0.266703 -0.0498619 0.04 
677 1 1 0.46317 -0.386821 -0.960158 0 0 0 -0.0715753 0.0143836 0.00195036 6.24817 -1.93222 2.37782 -1.5667 -0.377575 -2.50217 0.04 
981 1 1 0.553661 -0.388786 -0.959974 0 0 0 0.0527602 -0.0159387 -0.00413192 -0.369946 -0.0147449 -9.74005 0.784507 0.535527 -0.885534 0.04 
361 1 1 0.628289 -0.360688 -0.960045 0 0 0 0.175572 -0.219295 -0.0104815 3.48592 -4.51258 -4.24012 0.60094 0.917319 -0.809321 0.04 
764 1 1 0.720503 -0.347648 -0.96005 0 0 0 0.0110841 -0.0140095 0.0296737 2.3134 -5.97529 -15.3482 0.612878 1.10942 -0.224946 0.04 
499 1 1 0.800532 -0.341802 -0.960318 0 0 0 0.0551901 -0.107062 0.0405254 -4.64355 0.35357 -5.66977 0.809186 0.595309 0.0386894 0.04 
398 1 1 0.872099 -0.377427 -0.960332 0 0 0 0.16644 0.0710753 -0.107894 6.77412 7.22993 6.6892 0.495728 0.729049 1.76209 0.04 
975 1 1 0.952213 -0.351039 -0.960389 0 0 0 -0.0021316 -0.00907596 -0.0295012 1.38381 7.05325 3.04831 0.476274 0.310993 0.369385 0.04 
982 1 1 -0.959975 -0.328281 -0.960193 0 0 0 0.0425231 -0.00851643 0.0289968 -20.0912 -2.33337 -4.22817 0.0612845 0.579421 -0.207785 0.04 
995 1 1 -0.890703 -0.288911 -0.960197 0 0 0 0.0736122 -0.0254621 -0.00412794 -0.064983 -0.35721 4.05031 0.657086 0.431576 -0.95486 0.04 
1215 1 1 -0.821879 -0.32999 -0.960556 0 0 0 0.0502799 -0.036821 0.209651 3.70791 5.51604 21.2082 1.38817 0.288781 0.260834 0.04 
76 1 1 -0.752221 -0.290225 -0.959838 0 0 0 0.00419743 -0.0997841 0.13046 -4.20612 10.0662 -28.9677 1.43919 0.149553 0.0468203 0.04 
969 1 1 -0.680499 -0.330093 -0.960025 0 0 0 -0.0304083 0.016437 0.00351627 1.04256 -5.93328 -17.1653 0.119917 -0.906641 -0.287643 0.04 
230 1 1 -0.59973 -0.309696 -0.960121 0 0 0 -0.133052 -0.0191954 0.0243752 -0.71195 0.08097 -1.83129 0.621006 -1.88941 -0.211405 0.04 
116 1 1 -0.463999 -0.302618 -0.96067 0 0 0 -0.099089 -0.0416188 0.115171 -3.34687 -21.9803 -13.6313 -1.30739 -0.463952 0.300094 0.04 
978 1 1 -0.349401 -0.30154 -0.960295 0 0 0 -0.0420203 -0.0126934 0.0204167 -3.30717 0.109723 -4.09517 0.214719 -0.383313 0.481958 0.04 
1155 1 1 -0.273591 -0.276313 -0.960222 0 0 0 -0.0503469 -0.0333769 -0.000362205 -1.38756 -0.415597 0.652256 0.323721 -0.373396 0.292952 0.04 
1214 1 1 -0.200184 -0.307291 -0.960082 0 0 0 -0.0524037 -0.0202892 0.00067471 3.74952 -5.08247 -2.81856 -0.305892 0.0239425 0.422468 0.04 
1010 1 1 -0.124061 -0.330339 -0.960343 0 0 0 -0.0268652 -0.00546284 0.000966957 6.53338 -14.2164 5.87061 0.201426 0.173071 0.550832 0.04 
201 1 1 -0.0525699 -0.295037 -0.960298 0 0 0 -0.0196974 0.00747575 0.008965 8.60862 1.33157 -7.95805 -0.456134 -0.951225 0.765849 0.04 
1062 1 1 0.028276 -0.269646 -0.960461 0 0 0 0.0658662 -0.0527337 -0.067764 -7.40481 -0.0222415 5.275 -0.070068 0.742722 1.79997 0.04 
404 1 1 0.119331 -0.297761 -0.960222 0 0 0 -0.10553 0.0303249 0.0247403 1.17172 -1.93295 -4.42991 -1.08765 -0.907269 -0.209019 0.04 
1216 1 1 0.201644 -0.285823 -0.960121 0 0 0 0.00691517 -0.00658493 -0.0198087 0.197135 -4.41331 1.0157 0.0603639 -0.724627 -0.833908 0.04 
780 1 1 0.280492 -0.272959 -0.960062 0 0 0 -0.0479562 -0.0300449 -0.0601475 -1.15455 8.28229 -2.23989 -0.0277585 -0.560276 -1.37116 0.04 
624 1 1 0.430225 -0.301828 -0.961079 0 0 0 -0.0499125 -0.105372 0.0839409 1.94285 5.05876 40.0142 0.370678 0.831581 0.561412 0.04 
309 1 1 0.509996 -0.322083 -0.960122 0 0 0 0.0754577 0.0149162 -0.00336153 -3.89529 -9.88108 0.945556 0.402337 -0.640542 0.865546 0.04 
1074 1 1 0.584162 -0.291765 -0.959927 0 0 0 0.0386593 -0.0981928 0.0292683 0 0 -6.57473 0.694555 -0.64312 0.864642 0.04 
342 1 1 0.665262 -0.290054 -0.95997 0 0 0 -0.0362884 -0.0223463 -0.0677311 -2.44923 25.8347 -21.649 1.06148 0.470389 2.70436 0.04 
182 1 1 0.851863 -0.280454 -0.960522 0 0 0 0.0467708 -0.0639875 -0.0372249 -2.66709 -1.21253 3.27084 1.27442 0.692697 0.68096 0.04 