ITEM: TIMESTEP
9400
ITEM: NUMBER OF ATOMS
686
ITEM: BOX BOUNDS ff ff ff
-1 1
-1 1
-1 1
ITEM: ATOMS id type type x y z ix iy iz vx vy vz fx fy fz omegax omegay omegaz radius 
52 1 1 -0.570113 -0.853471 -0.943469 0 0 0 3.51771 -4.08752 -0.466547 0 0 -6.57473 16.409 -1.72717 9.30137 0.04 
117 1 1 0.587573 -0.604363 -0.95272 0 0 0 0.129213 -0.763305 3.9275 0 0 -6.57473 20.725 3.57761 2.14362 0.04 
92 1 1 -0.350952 -0.469772 -0.951321 0 0 0 -2.73144 -2.50421 -0.129203 0 0 -6.57473 6.20649 28.8488 12.469 0.04 
30 1 1 -0.0990792 -0.407698 -0.928928 0 0 0 -0.0739081 0.0279507 1.72984 336.83 30.8741 20.5825 5.60714 -29.9402 1.99001 0.04 
57 1 1 -0.370059 -0.354444 -0.914054 0 0 0 0.947518 -0.464249 3.53297 0 0 -6.57473 8.50631 18.2353 -0.210409 0.04 
351 1 1 0.598939 -0.336223 -0.940046 0 0 0 -2.61009 -1.0565 -2.99314 0 0 -6.57473 -20.9892 41.9698 -20.6578 0.04 
17 1 1 0.786737 -0.3767 -0.844803 0 0 0 1.51039 -0.571549 4.81206 -13.6 217.277 -325.538 25.0973 22.4883 4.05902 0.04 
88 1 1 -0.578745 -0.264064 -0.870544 0 0 0 0.91437 0.026962 4.50135 192.292 -298.168 -1.00273 -3.14161 -14.3978 3.47552 0.04 
83 1 1 -0.435754 -0.248326 -0.941694 0 0 0 1.84807 1.47275 2.54959 0 0 -6.57473 -14.105 17.6625 9.86433 0.04 
111 1 1 -0.188589 -0.278227 -0.90931 0 0 0 -0.00698704 -0.5867 4.05026 -104.121 -112.717 -103.702 19.6635 7.92459 1.23869 0.04 
35 1 1 -0.0386795 -0.336021 -0.91291 0 0 0 1.17446 -1.47176 2.62653 0 0 -6.57473 -25.6484 8.92888 -0.0152793 0.04 
447 1 1 0.59936 -0.213137 -0.845491 0 0 0 -4.0234 4.95557 1.94474 -557.416 9.7535 -459.272 43.6626 3.50399 -6.36254 0.04 
28 1 1 0.782261 -0.240483 -0.891549 0 0 0 0.17533 -0.361563 3.93564 0 0 -6.57473 17.5181 7.66546 -2.33672 0.04 
277 1 1 0.516235 -0.162992 -0.903989 0 0 0 -0.739224 0.177357 5.10138 0 0 -6.57473 -7.36037 -29.7038 -6.08131 0.04 
401 1 1 0.270254 -0.093468 -0.930147 0 0 0 0.499166 -0.0875167 6.35786 0 0 -6.57473 9.648 26.8837 -9.17847 0.04 
141 1 1 0.774888 -0.0686697 -0.862786 0 0 0 0.853834 1.40912 4.9785 0 0 -6.57473 -19.8269 9.6816 -0.548535 0.04 
280 1 1 0.924374 -0.0988906 -0.896724 0 0 0 0.655785 -0.0653277 4.36008 0 0 -6.57473 4.60835 24.4208 -9.74078 0.04 
237 1 1 -0.377198 -0.0340189 -0.862738 0 0 0 0.256373 0.0616282 3.89302 0 0 -6.57473 -1.58717 13.1484 -10.9583 0.04 
113 1 1 0.460154 0.0144356 -0.936322 0 0 0 0.156249 2.66543 3.79917 0 0 -6.57473 -7.71172 -1.59541 1.57002 0.04 
2 1 1 -0.914049 0.146861 -0.947575 0 0 0 -1.8232 3.05949 0.680233 0 0 -6.57473 12.5177 2.13389 0.202488 0.04 
9 1 1 0.561622 -0.88444 -0.860921 0 0 0 3.05595 -2.39823 1.49969 0 0 -6.57473 14.5837 18.7984 -9.74294 0.04 
19 1 1 0.262502 -0.810698 -0.969686 0 0 0 -1.22932 -1.37488 2.42314 18.8042 17.1032 501.802 14.2237 -7.51974 3.41348 0.04 
85 1 1 -0.881994 -0.702443 -0.963795 0 0 0 -2.72167 -0.799861 -2.36159 11.7939 2.72595 235.522 6.20816 -7.51512 -7.86466 0.04 
173 1 1 -0.770931 -0.784593 -0.964587 0 0 0 -0.236657 -3.06869 -1.84393 -1.34813 13.9103 272.936 -2.14322 -14.3447 -10.4354 0.04 
49 1 1 0.75451 -0.748222 -0.886678 0 0 0 -1.74111 -4.35064 2.07605 0 0 -6.57473 22.962 -11.8212 4.84016 0.04 
230 1 1 -0.679507 -0.65669 -0.865878 0 0 0 0.614263 -2.68862 3.44417 0 0 -6.57473 18.838 0.770472 -3.66615 0.04 
76 1 1 -0.0572681 -0.614343 -0.961632 0 0 0 -1.10759 -1.48321 -3.75993 4.34429 5.4684 133.105 -5.46167 6.1396 0.173325 0.04 
87 1 1 0.252831 -0.608743 -0.957994 0 0 0 2.42993 -5.30785 -3.01103 0 0 -6.57473 -9.88705 34.5112 -4.38294 0.04 
67 1 1 0.493747 -0.547588 -0.973821 0 0 0 0.445023 -2.61435 2.40016 -6.78045 36.3294 732.559 9.27107 0.421671 -21.969 0.04 
5 1 1 -0.632624 -0.397542 -0.969991 0 0 0 -1.8226 0.396657 -1.92946 28.9929 -2.37546 575.226 -7.75178 -9.21669 -4.92102 0.04 
34 1 1 -0.169487 -0.414604 -0.938153 0 0 0 3.13793 -0.258047 -1.11323 -336.83 -30.8741 -33.7319 -5.06201 13.8196 5.11308 0.04 
168 1 1 -0.141246 -0.435684 -0.794543 0 0 0 -2.14462 -0.959524 4.68437 0 0 -6.57473 4.4205 6.4195 -1.65986 0.04 
45 1 1 0.0126411 -0.483987 -0.961329 0 0 0 -0.859269 -1.28911 -3.10857 0.803018 5.66132 107.785 -12.6298 -15.3718 -2.44824 0.04 
110 1 1 0.944784 -0.42185 -0.96261 0 0 0 1.18922 -1.07613 3.00479 258.877 -166.065 -404.109 14.8022 12.7729 13.3343 0.04 
376 1 1 0.665868 -0.394927 -0.968516 0 0 0 -0.699311 -1.87979 0.00479641 11.6388 20.6766 467.971 11.1409 3.76172 -6.11693 0.04 
37 1 1 -0.870656 -0.341618 -0.910994 0 0 0 3.33569 -0.516872 -1.62408 0 0 -6.57473 13.5021 34.6959 -15.2108 0.04 
54 1 1 -0.0782117 -0.245159 -0.943822 0 0 0 -0.374095 2.09034 -3.16017 0 0 -6.57473 -11.488 -14.4961 -9.81788 0.04 
373 1 1 -0.952809 -0.303815 -0.969644 0 0 0 -3.65304 -2.72992 1.54592 21.942 13.7029 510.813 15.2628 -3.97354 -4.71832 0.04 
132 1 1 -0.659729 -0.332269 -0.906143 0 0 0 2.50435 -3.90201 -1.78953 0 0 -6.57473 9.5557 1.07549 5.52063 0.04 
13 1 1 -0.371076 -0.236837 -0.857792 0 0 0 0.0675385 0.0376484 3.65061 0 0 -6.57473 2.38009 7.7531 -2.50679 0.04 
337 1 1 0.851974 -0.201291 -0.853638 0 0 0 0.00235511 -0.000349854 3.84625 0 0 -6.57473 -1.62439 -2.68239 -4.11724 0.04 
127 1 1 -0.960112 -0.133795 -0.8377 0 0 0 0.95882 -0.627248 4.43784 -6.16001 0.0832462 -6.87126 -8.9038 -14.6065 11.3877 0.04 
332 1 1 -0.738423 -0.10937 -0.90437 0 0 0 -1.85621 3.37555 -0.725576 0 0 -6.57473 34.5732 22.9726 -10.7183 0.04 
119 1 1 -0.959659 -0.0496155 -0.878453 0 0 0 -1.24768 1.31393 2.39743 0 0 -6.57473 -7.56056 21.8112 0.784169 0.04 
167 1 1 -0.855378 -0.011913 -0.948913 0 0 0 1.77033 1.01597 -3.38855 15.2502 -109.448 -33.8251 -3.21394 6.83835 0.262393 0.04 
94 1 1 -0.0191487 0.0970679 -0.941308 0 0 0 -1.62618 4.08462 -1.64095 0 0 -6.57473 35.0244 12.3848 -2.7846 0.04 
16 1 1 0.959241 0.0686298 -0.930367 0 0 0 0.486697 1.44431 -1.97362 0 0 -6.57473 -1.70779 4.54374 -3.18645 0.04 
146 1 1 -0.866684 0.0615456 -0.92675 0 0 0 1.67419 -3.0277 -1.25476 -15.2502 109.448 20.6757 10.925 6.39864 0.591513 0.04 
24 1 1 -0.261591 0.163814 -0.737342 0 0 0 0.380151 -2.71828 7.04074 0 0 -6.57473 72.0571 1.33817 16.3669 0.04 
98 1 1 -0.896642 0.378228 -0.970102 0 0 0 0.212221 0.182491 2.81491 2.31067 4.159 519.931 -13.1589 11.5154 -1.37367 0.04 
192 1 1 0.223458 -0.912316 -0.867061 0 0 0 1.19594 6.00441 -1.88458 0 0 -6.57473 -34.3732 -0.220502 -26.9676 0.04 
80 1 1 0.561723 -0.700202 -0.897406 0 0 0 -1.05898 3.16254 -3.15227 0 0 -6.57473 -15.0141 -0.266217 -1.38394 0.04 
79 1 1 0.69393 -0.763216 -0.801062 0 0 0 2.2437 -1.27765 1.94855 0 0 -6.57473 10.7528 1.2359 -1.39219 0.04 
121 1 1 -0.415489 -0.728975 -0.906056 0 0 0 0.0383232 -1.39087 -4.20723 0 0 -6.57473 3.28199 -2.04437 -1.39031 0.04 
31 1 1 0.239127 -0.621486 -0.780011 0 0 0 0.382868 -1.0112 2.87346 13.2568 -96.6897 -424.282 20.8281 9.17557 3.64314 0.04 
137 1 1 -0.74263 -0.602789 -0.90167 0 0 0 -0.465456 -1.81297 -2.86574 0 0 -6.57473 -6.30363 -29.8973 -5.9605 0.04 
272 1 1 0.708107 -0.58256 -0.87891 0 0 0 -0.76183 -1.14372 -4.29298 0 0 -6.57473 10.6547 10.2466 23.1336 0.04 
95 1 1 0.183629 -0.536913 -0.879909 0 0 0 1.60845 -3.45888 -3.77245 0 0 -6.57473 3.58699 -0.411667 2.50488 0.04 
50 1 1 -0.847216 -0.499665 -0.760093 0 0 0 1.89374 -2.5717 2.2559 0 0 -6.57473 4.79204 22.8805 3.00904 0.04 
73 1 1 -0.488451 -0.43603 -0.825533 0 0 0 0.245541 -3.21185 -2.32221 0 0 -6.57473 -8.63748 -9.27456 2.04585 0.04 
103 1 1 0.0331308 -0.470642 -0.834415 0 0 0 -0.535 -0.73135 1.4602 0 0 -6.57473 7.85289 -12.8614 -11.0838 0.04 
238 1 1 0.117254 -0.37882 -0.809539 0 0 0 -0.780968 1.8008 2.45274 0 0 -6.57473 24.5215 21.6667 -19.8593 0.04 
72 1 1 -0.803764 -0.380216 -0.78463 0 0 0 0.935017 -1.96227 1.48803 0 0 -6.57473 -2.32563 -1.21451 4.09603 0.04 
148 1 1 0.313716 -0.367457 -0.871426 0 0 0 3.74813 0.312642 -2.64174 0 0 -6.57473 -12.7825 -1.5624 12.7255 0.04 
225 1 1 0.583161 -0.393516 -0.761614 0 0 0 -0.956784 -1.09613 3.53888 0 0 -6.57473 22.3842 -13.1293 -10.5683 0.04 
219 1 1 0.913756 -0.401984 -0.909408 0 0 0 -1.03253 -0.237027 -3.54337 -263.143 169.232 497.211 -3.21594 -5.15555 -1.99299 0.04 
498 1 1 -0.783897 -0.267753 -0.951217 0 0 0 -0.453831 0.39139 -4.82099 0 0 -6.57473 -15.6319 8.32089 -10.6031 0.04 
64 1 1 -0.144411 -0.229611 -0.872147 0 0 0 0.917331 1.8496 -4.34199 -356.061 -71.4583 133.521 15.2033 -16.8743 -4.30077 0.04 
315 1 1 0.171385 -0.361756 -0.87562 0 0 0 2.22243 -2.88375 -1.70282 0 0 -6.57473 -3.70127 -2.62628 -6.20284 0.04 
194 1 1 0.664165 -0.330227 -0.884388 0 0 0 3.82596 -1.33607 -0.657832 0 0 -6.57473 8.82882 8.11289 -5.54674 0.04 
153 1 1 -0.158422 -0.187417 -0.938325 0 0 0 -1.7143 2.43692 -4.29063 -0.592478 2.4884 -10.5012 -5.32337 -6.66694 -1.52371 0.04 
71 1 1 -0.0822934 -0.203212 -0.874588 0 0 0 -4.20388 1.04253 -1.85994 460.774 181.687 -45.6168 0.347803 13.5517 4.84469 0.04 
189 1 1 0.104943 -0.223716 -0.809607 0 0 0 2.6957 -0.0495457 -0.136412 0 0 -6.57473 5.87324 16.4644 -1.41442 0.04 
58 1 1 0.930957 -0.221865 -0.796692 0 0 0 -1.10549 2.00538 1.16102 0 0 -6.57473 33.1703 -20.5411 2.66596 0.04 
102 1 1 -0.616351 -0.20483 -0.875122 0 0 0 1.66869 0.350702 -1.24068 -192.292 298.168 -12.1467 2.45695 3.31611 -3.43117 0.04 
383 1 1 0.32544 -0.112165 -0.77477 0 0 0 -3.32098 -0.0639482 0.454114 0 0 -6.57473 -4.86939 57.6248 -9.12897 0.04 
333 1 1 -0.632035 0.172843 -0.863389 0 0 0 1.92445 4.51959 -0.292601 0 0 -6.57473 29.3287 -7.87605 -5.66243 0.04 
135 1 1 -0.493778 0.128328 -0.763764 0 0 0 0.661755 2.95378 2.54876 0 0 -6.57473 18.6763 -2.3107 18.8046 0.04 
182 1 1 0.924191 -0.805942 -0.801621 0 0 0 -1.57825 3.06109 -3.40147 0 0 -6.57473 -6.20913 -2.0353 -17.7033 0.04 
55 1 1 -0.153309 -0.865201 -0.772426 0 0 0 -1.22261 -3.81197 1.3352 0 0 -6.57473 9.76104 9.93534 -3.03896 0.04 
81 1 1 0.351614 -0.822314 -0.810378 0 0 0 -0.399218 -1.97046 -3.62924 0 0 -6.57473 -5.06028 2.55559 3.63156 0.04 
42 1 1 0.692594 -0.793697 -0.700935 0 0 0 0.66061 -2.94979 3.59461 0 0 -6.57473 24.0869 3.83997 0.80967 0.04 
231 1 1 0.931886 -0.7833 -0.683836 0 0 0 -0.703217 -1.40376 5.02538 0 0 -6.57473 10.3333 7.74265 5.74657 0.04 
161 1 1 0.021066 -0.657886 -0.802486 0 0 0 -1.51619 -1.98911 -2.76155 0 0 -6.57473 -13.8201 -10.2587 -5.03494 0.04 
379 1 1 -0.741696 -0.693093 -0.743084 0 0 0 -1.90473 -5.84091 0.554518 0 0 -6.57473 13.2594 -4.07655 -0.933963 0.04 
180 1 1 -0.54454 -0.603152 -0.863679 0 0 0 -0.0723594 -1.62011 -4.14606 0 0 -6.57473 2.63554 -0.674014 3.48857 0.04 
169 1 1 -0.0357037 -0.518594 -0.839763 0 0 0 0.442384 -1.21855 -4.20834 0 0 -6.57473 -2.09683 -4.42661 5.03296 0.04 
138 1 1 -0.416138 -0.457593 -0.857056 0 0 0 0.0413132 -1.10967 -4.13747 0 0 -6.57473 1.30716 4.80756 1.83186 0.04 
105 1 1 -0.241365 -0.464631 -0.82538 0 0 0 -1.49729 -2.93594 -1.52674 0 0 -6.57473 11.3913 -8.66371 -0.267835 0.04 
449 1 1 0.47133 -0.437538 -0.904388 0 0 0 1.67681 -1.39031 -6.37937 0 0 -6.57473 -1.53159 13.9736 -24.0345 0.04 
174 1 1 0.789015 -0.419288 -0.788536 0 0 0 1.44051 -0.923299 -2.2246 13.6 -217.277 312.388 31.0906 -9.41622 -10.0626 0.04 
181 1 1 -0.93945 -0.391779 -0.738664 0 0 0 -0.619069 -0.481741 1.83283 0 0 -6.57473 -2.87176 -6.75335 3.37049 0.04 
152 1 1 -0.629144 -0.352195 -0.820701 0 0 0 1.10838 -0.119212 -3.2225 0 0 -6.57473 -1.10593 3.41453 5.04629 0.04 
157 1 1 -0.0442306 -0.371678 -0.804975 0 0 0 -0.00551493 -1.2439 -3.77513 19.0755 1.62994 -25.0162 2.78764 3.60505 3.3825 0.04 
293 1 1 0.89222 -0.401307 -0.709165 0 0 0 1.26102 -2.23396 3.13069 0 0 -6.57473 20.5113 17.922 2.74999 0.04 
234 1 1 -0.368966 -0.291448 -0.708191 0 0 0 -1.88647 0.654371 2.47027 0 0 -6.57473 -15.1416 -5.83228 -3.32237 0.04 
163 1 1 -0.263845 -0.269715 -0.792846 0 0 0 -0.0452224 1.11948 -2.97044 0 0 -6.57473 -3.00959 4.21929 -6.542 0.04 
242 1 1 -0.189157 -0.338627 -0.805442 0 0 0 0.604361 -1.75969 -2.90552 0 0 -6.57473 -5.18113 7.71043 -5.1111 0.04 
145 1 1 0.0357313 -0.316788 -0.816973 0 0 0 -1.09208 0.0291462 -4.61214 0 0 -6.57473 2.502 -1.23904 -0.210297 0.04 
353 1 1 0.377016 -0.314062 -0.676053 0 0 0 -0.516853 -1.0812 4.3296 0 0 -6.57473 22.2861 -11.6323 5.98739 0.04 
227 1 1 -0.175471 -0.213253 -0.78214 0 0 0 -0.37814 1.2833 -1.22948 0 0 -6.57473 10.6191 -4.15287 6.61351 0.04 
291 1 1 0.646997 -0.215238 -0.810233 0 0 0 4.47684 0.746728 0.102973 557.416 -9.7535 446.123 3.28644 5.70042 0.0610972 0.04 
156 1 1 0.206939 -0.160743 -0.69423 0 0 0 0.861444 0.130112 3.8684 0 0 -6.57473 2.93611 12.1494 5.39873 0.04 
198 1 1 0.468651 -0.0917529 -0.725133 0 0 0 4.07488 1.18869 1.52744 0 0 -6.57473 -11.3753 8.65363 4.24304 0.04 
171 1 1 0.864643 -0.0724231 -0.815364 0 0 0 -0.705811 -0.235511 -4.05946 0 0 -6.57473 1.91504 -12.6102 -15.0165 0.04 
269 1 1 -0.952125 0.1269 -0.827837 0 0 0 -0.182421 -0.0984732 -4.05015 0 0 -6.57473 0.367869 -0.516513 -0.23913 0.04 
15 1 1 0.54232 0.286499 -0.776001 0 0 0 -2.88661 2.55453 -0.154238 0 0 -6.57473 5.23043 -22.7048 4.38371 0.04 
207 1 1 -0.507047 -0.737056 -0.794805 0 0 0 -0.0042347 -1.35058 -3.95432 0 0 -6.57473 3.4354 0.924978 -7.09851 0.04 
159 1 1 0.668204 -0.679894 -0.747214 0 0 0 0.539426 -1.34881 -3.71914 0 0 -6.57473 0.269956 0.327891 1.16264 0.04 
213 1 1 -0.385396 -0.631202 -0.763288 0 0 0 3.0941 -3.82508 -4.90311 0 0 -6.57473 -4.19605 -6.27782 6.49062 0.04 
118 1 1 0.12828 -0.616005 -0.730204 0 0 0 -0.100675 -1.23133 -2.33534 0 0 -6.57473 -3.70338 8.08034 2.38711 0.04 
177 1 1 0.830696 -0.501447 -0.736302 0 0 0 -1.15739 -0.596746 -3.12631 0 0 -6.57473 -3.33274 -10.4569 4.0822 0.04 
26 1 1 -0.930841 -0.499908 -0.750926 0 0 0 4.22799 -3.21689 -1.26997 0 0 -6.57473 10.7743 6.39261 -16.0494 0.04 
260 1 1 -0.688519 -0.40612 -0.773582 0 0 0 -0.466003 -0.299187 -4.32628 0 0 -6.57473 1.01189 1.30804 -1.63928 0.04 
188 1 1 0.465307 -0.470593 -0.747104 0 0 0 -0.765368 -0.963665 -3.48783 0 0 -6.57473 15.6534 18.6557 -9.95303 0.04 
116 1 1 -0.569196 -0.373147 -0.770556 0 0 0 0.644789 -0.79413 -3.37677 0 0 -6.57473 -3.04946 -1.78996 0.840713 0.04 
170 1 1 -0.491139 -0.388981 -0.754642 0 0 0 -0.0991035 1.2252 1.59689 0 0 -6.57473 -25.8666 -0.118003 -10.4049 0.04 
200 1 1 -0.101702 -0.372652 -0.750455 0 0 0 -0.283383 -0.184141 -3.65978 -19.0755 -1.62994 11.8668 -0.486147 -0.456811 -0.525479 0.04 
235 1 1 0.0205316 -0.383797 -0.730855 0 0 0 1.22228 -0.39094 -2.26043 0 0 -6.57473 -4.89192 -0.594501 4.49594 0.04 
86 1 1 0.19832 -0.374264 -0.701061 0 0 0 -0.220024 -1.34466 1.71134 0 0 -6.57473 15.971 13.27 4.81353 0.04 
27 1 1 -0.889191 -0.31762 -0.741815 0 0 0 2.46721 0.402853 -2.4242 0 0 -6.57473 -9.58019 22.3394 -0.829862 0.04 
143 1 1 0.466374 -0.266036 -0.800451 0 0 0 -0.715587 -3.28164 -3.92714 0 0 -6.57473 -2.45978 4.75473 8.85254 0.04 
129 1 1 -0.892539 -0.106348 -0.786164 0 0 0 -0.432951 1.49383 -4.45554 0 0 -6.57473 2.56058 2.0286 -6.70895 0.04 
264 1 1 -0.73623 -0.14085 -0.784753 0 0 0 0.416184 -0.0481131 -4.88673 0 0 -6.57473 2.84488 -3.31908 -1.00622 0.04 
244 1 1 -0.100125 -0.121337 -0.737482 0 0 0 0.543745 -0.33655 -3.28748 0 0 -6.57473 2.273 2.03231 -0.543686 0.04 
262 1 1 -0.781237 -0.0377407 -0.747936 0 0 0 0.887988 0.564927 -3.23589 0 0 -6.57473 -26.1918 -3.42718 16.9272 0.04 
197 1 1 -0.958534 0.0917507 -0.725521 0 0 0 -1.56262 2.19613 -3.165 0 0 -6.57473 -3.84955 2.269 0.852353 0.04 
288 1 1 0.0991328 0.0480921 -0.646328 0 0 0 1.0375 0.872343 3.15541 0 0 -6.57473 10.221 34.3302 -13.5137 0.04 
136 1 1 -0.666792 0.257019 -0.726653 0 0 0 3.14129 3.27335 -2.00578 0 0 -6.57473 -9.90942 -2.78167 18.6622 0.04 
255 1 1 0.330989 -0.801769 -0.722395 0 0 0 -0.273422 -1.40701 -3.80229 0 0 -6.57473 1.07585 0.373768 4.27758 0.04 
461 1 1 0.812898 -0.851523 -0.654587 0 0 0 1.92526 -7.82102 0.504839 0 0 -6.57473 19.4872 21.4007 -14.5324 0.04 
243 1 1 0.237146 -0.602399 -0.712975 0 0 0 0.999894 -2.97197 -3.64542 -13.2568 96.6897 411.133 5.9584 3.17115 3.49981 0.04 
60 1 1 0.444088 -0.589866 -0.567124 0 0 0 -0.208631 -0.379793 3.79032 0 0 -6.57473 28.4105 8.88283 3.02466 0.04 
232 1 1 -0.265851 -0.39199 -0.738366 0 0 0 0.536516 -1.69887 -4.48469 0 0 -6.57473 -7.15331 2.78291 2.26694 0.04 
222 1 1 0.549278 -0.420613 -0.668134 0 0 0 -2.41392 -2.57925 -2.7942 0 0 -6.57473 -3.17125 3.68753 -0.50766 0.04 
241 1 1 -0.724149 -0.333065 -0.627413 0 0 0 0.88908 -0.0867104 -0.79361 0 0 -6.57473 -4.90499 7.6698 1.56939 0.04 
578 1 1 0.272439 -0.352702 -0.793665 0 0 0 2.11535 -3.88205 -9.62356 0 0 -6.57473 -8.97179 18.4164 -16.3546 0.04 
191 1 1 0.855069 -0.213925 -0.691131 0 0 0 -1.76075 0.383297 -1.68535 171.752 -26.3065 -34.915 12.9276 9.77506 -3.7922 0.04 
201 1 1 -0.049882 -0.182303 -0.685543 0 0 0 -0.0359939 -0.169657 -3.68699 0 0 -6.57473 -0.341018 2.37431 -0.969154 0.04 
355 1 1 0.554628 -0.167024 -0.650079 0 0 0 2.07551 0.429959 0.574343 0 0 -6.57473 -9.74531 4.94492 -0.503774 0.04 
204 1 1 0.78116 -0.206404 -0.679172 0 0 0 -1.77733 -0.923897 -1.86845 -171.752 26.3065 21.7656 -5.74899 -12.925 -5.31954 0.04 
206 1 1 -0.8877 -0.0803472 -0.703481 0 0 0 -0.431238 0.85518 -2.60083 0 0 -6.57473 2.84757 -2.24447 0.788525 0.04 
276 1 1 -0.663959 -0.0825471 -0.545648 0 0 0 2.29678 1.78039 1.54342 467.388 233.363 -565.227 -8.73131 -13.9216 -8.5113 0.04 
271 1 1 0.70992 -0.127037 -0.720515 0 0 0 -1.95558 -0.123439 -3.86373 0 0 -6.57473 -2.18756 -3.40054 -9.65655 0.04 
304 1 1 0.733601 -0.0312914 -0.720584 0 0 0 -0.546487 1.392 -3.81515 0 0 -6.57473 0.531686 4.43345 -5.71752 0.04 
124 1 1 0.662146 0.208419 -0.571389 0 0 0 -2.22507 1.29579 1.88299 0 0 -6.57473 0.748191 -15.0646 6.77275 0.04 
107 1 1 -0.956189 0.217718 -0.714964 0 0 0 0.312237 -0.339 -3.6883 0 0 -6.57473 1.29827 0.749383 -0.15962 0.04 
263 1 1 0.768119 0.332588 -0.640104 0 0 0 0.259506 4.66169 -1.78545 0 0 -6.57473 -6.24788 4.33841 0.738234 0.04 
90 1 1 -0.954835 -0.949421 -0.474927 0 0 0 1.42012 -2.24219 3.62091 0 0 -6.57473 28.2377 -27.5848 -0.420098 0.04 
66 1 1 0.741162 -0.8251 -0.466924 0 0 0 0.584664 -1.76947 4.11204 0 0 -6.57473 32.405 8.86558 5.23465 0.04 
209 1 1 -0.252426 -0.532278 -0.585841 0 0 0 0.59822 -2.2336 -2.64102 0 0 -6.57473 3.77949 2.25243 4.11278 0.04 
210 1 1 0.509569 -0.531363 -0.626224 0 0 0 0.208287 -0.642411 -3.50002 0 0 -6.57473 3.26082 -0.864724 -0.0634411 0.04 
282 1 1 -0.324864 -0.459966 -0.63845 0 0 0 -0.614584 -1.62286 -3.35978 0 0 -6.57473 -11.6196 -1.60769 9.41816 0.04 
354 1 1 -0.0221947 -0.395572 -0.633542 0 0 0 0.261562 -1.71882 -4.25343 0 0 -6.57473 0.660297 -2.89309 5.10101 0.04 
253 1 1 0.49349 -0.38482 -0.585988 0 0 0 0.269282 -1.45183 -2.63958 0 0 -6.57473 4.92153 1.34921 3.06659 0.04 
220 1 1 0.948301 -0.421596 -0.540122 0 0 0 -0.365641 -3.98272 0.413975 0 0 -6.57473 9.13917 -6.44715 -1.972 0.04 
286 1 1 -0.15686 -0.304957 -0.613234 0 0 0 -0.363123 -0.931608 -3.98867 0 0 -6.57473 0.647351 -2.30598 2.76314 0.04 
349 1 1 0.180877 -0.29521 -0.640814 0 0 0 0.496761 -0.0113822 -3.34171 0 0 -6.57473 1.30493 1.29472 -2.09995 0.04 
221 1 1 -0.476941 -0.244997 -0.595777 0 0 0 -0.126503 0.0429848 -3.44273 0 0 -6.57473 2.09451 -0.858118 -4.11086 0.04 
97 1 1 0.0319345 -0.154597 -0.629179 0 0 0 -0.995026 2.74914 -3.84251 0 0 -6.57473 25.7129 8.94431 -10.8913 0.04 
10 1 1 0.943055 -0.186968 -0.535254 0 0 0 -1.80486 1.30556 3.07449 0 0 -6.57473 -20.7366 -8.38284 4.00034 0.04 
415 1 1 -0.950507 -0.172467 -0.642411 0 0 0 0.602344 -0.924622 -3.962 0 0 -6.57473 -1.07225 12.4885 -7.21632 0.04 
32 1 1 -0.424086 -0.153471 -0.613953 0 0 0 -1.78364 0.329293 -1.8108 0 0 -6.57473 7.48547 29.4642 7.3769 0.04 
247 1 1 -0.19017 -0.150756 -0.605212 0 0 0 -0.325099 0.0707995 -3.24662 0 0 -6.57473 0.330418 -1.82705 2.43856 0.04 
62 1 1 0.689879 -0.0865181 -0.606889 0 0 0 -1.04986 0.965045 -3.61068 0 0 -6.57473 60.3633 9.88868 -11.5444 0.04 
364 1 1 0.771361 -0.113564 -0.649934 0 0 0 -0.25058 0.609358 -4.05198 0 0 -6.57473 -14.9581 -17.727 29.6475 0.04 
190 1 1 -0.206168 -0.0313974 -0.631457 0 0 0 0 0 -3.51984 0 0 -6.57473 0 0 0 0.04 
359 1 1 0.0162107 0.0194126 -0.624242 0 0 0 0.00592161 0.0462182 -3.83778 0 0 -6.57473 -4.90265 3.31968 -0.610258 0.04 
63 1 1 -0.428421 0.161255 -0.532695 0 0 0 -3.76487 3.73049 0.694226 0 0 -6.57473 31.9273 36.112 8.79901 0.04 
493 1 1 0.0764191 0.114139 -0.607153 0 0 0 -0.330292 1.32958 -3.89101 0 0 -6.57473 -23.5345 15.3529 -22.3543 0.04 
476 1 1 0.768124 0.105674 -0.689689 0 0 0 -0.506182 0.55177 -5.10278 0 0 -6.57473 -10.8314 9.56279 -7.66199 0.04 
193 1 1 -0.180483 0.480762 -0.49895 0 0 0 -0.430072 3.16642 2.50246 0 0 -6.57473 -12.8489 29.3126 -14.3943 0.04 
326 1 1 -0.603447 -0.945709 -0.430256 0 0 0 -0.92731 -4.46572 3.94638 0 0 -6.57473 29.1166 1.87818 -7.39292 0.04 
38 1 1 -0.450541 -0.749714 -0.493198 0 0 0 -4.08771 -1.47577 1.977 0 0 -6.57473 -1.1018 39.2569 -17.8784 0.04 
218 1 1 -0.141673 -0.711559 -0.53211 0 0 0 -0.764669 -2.27387 -2.83363 0 0 -6.57473 -0.848814 2.926 9.94192 0.04 
252 1 1 0.603509 -0.702535 -0.590012 0 0 0 -0.0463723 -1.2119 -3.38471 0 0 -6.57473 -0.840326 -0.268147 -3.56061 0.04 
323 1 1 -0.347329 -0.659632 -0.570942 0 0 0 0.286978 -1.22787 -3.44666 0 0 -6.57473 -2.91672 -1.23434 2.27148 0.04 
342 1 1 0.293848 -0.621405 -0.566384 0 0 0 -0.0247144 -0.906175 -3.34083 0 0 -6.57473 1.52319 0.787402 -0.741232 0.04 
246 1 1 -0.943513 -0.575143 -0.488058 0 0 0 -0.970158 -2.4791 -0.0589757 0 0 -6.57473 9.81208 5.41417 5.90477 0.04 
205 1 1 -0.416114 -0.491982 -0.572018 0 0 0 -0.810614 -1.11472 -3.09846 0 0 -6.57473 0.0972414 -1.17657 -5.18082 0.04 
314 1 1 -0.497194 -0.41715 -0.544063 0 0 0 -0.302319 -0.463905 -3.37753 0 0 -6.57473 2.24766 -1.42541 -0.0670157 0.04 
309 1 1 0.837493 -0.493061 -0.581158 0 0 0 -0.365322 -1.74208 -3.95623 0 0 -6.57473 4.21119 -2.1448 3.08852 0.04 
281 1 1 -0.954248 -0.396284 -0.572989 0 0 0 0.674171 -0.477991 -3.30105 0 0 -6.57473 0.222322 4.1415 -3.39907 0.04 
298 1 1 0.73566 -0.375193 -0.569948 0 0 0 -0.275666 -3.94944 -5.23144 0 0 -6.57473 -5.58766 -1.79635 -1.93716 0.04 
352 1 1 -0.922803 -0.238813 -0.576048 0 0 0 -0.489949 0.171254 -3.44991 0 0 -6.57473 0.280079 -0.285211 -1.67422 0.04 
245 1 1 -0.319851 -0.227835 -0.556607 0 0 0 -0.821279 0.606898 -2.37204 0 0 -6.57473 -1.44395 4.69011 5.45396 0.04 
312 1 1 -0.861716 -0.174246 -0.56059 0 0 0 0.0091476 0.0209565 -3.31566 0 0 -6.57473 0.0416467 -0.014786 -0.0562919 0.04 
89 1 1 -0.700878 -0.0977483 -0.502248 0 0 0 0.28204 4.00164 2.30907 -467.388 -233.363 552.077 -39.7933 -23.2093 5.69881 0.04 
300 1 1 0.457502 -0.161132 -0.548521 0 0 0 0 0 -3.28059 0 0 -6.57473 0 0 0 0.04 
389 1 1 -0.515598 -0.0162664 -0.580709 0 0 0 0.0400491 -0.0828809 -3.74112 0 0 -6.57473 -3.7032 3.80834 -3.33127 0.04 
297 1 1 -0.118416 -0.0608615 -0.594017 0 0 0 0.0435651 -0.229727 -3.46636 0 0 -6.57473 1.27017 1.58607 -1.55375 0.04 
236 1 1 -0.634572 0.0779166 -0.581648 0 0 0 1.73464 1.03812 -4.26231 31.1849 49.7854 -34.2104 5.35372 -1.58776 1.43531 0.04 
329 1 1 -0.955196 0.166907 -0.595317 0 0 0 -0.369136 0.517628 -3.58174 0 0 -6.57473 1.66194 0.00650917 -1.56054 0.04 
296 1 1 -0.0269331 0.203159 -0.533452 0 0 0 2.13153 2.67965 -0.943909 0 0 -6.57473 -14.6276 11.594 -4.1191 0.04 
343 1 1 -0.898416 0.235524 -0.560737 0 0 0 0 0 -3.31692 0 0 -6.57473 0 0 0 0.04 
214 1 1 -0.081552 -0.962201 -0.341233 0 0 0 3.41012 -2.42648 3.43353 -5.65763 154.119 -11.8066 18.9394 37.5732 -12.6883 0.04 
208 1 1 0.39227 -0.730286 -0.445092 0 0 0 0.62988 -4.09977 -1.49468 0 0 -6.57473 -12.7674 -5.77537 -2.24115 0.04 
306 1 1 0.436312 -0.562784 -0.366298 0 0 0 1.01736 -1.74481 5.0782 0 0 -6.57473 25.3823 22.864 -10.9052 0.04 
151 1 1 0.446119 -0.425468 -0.445837 0 0 0 0.612425 -1.0236 -2.38033 0 0 -6.57473 -26.6462 -24.0956 8.68778 0.04 
287 1 1 -0.759544 -0.406583 -0.498457 0 0 0 0.193571 -1.69821 -2.82488 0 0 -6.57473 3.7654 -1.69614 -5.95988 0.04 
313 1 1 -0.682455 -0.40874 -0.522151 0 0 0 0.0653963 -0.786939 -3.20437 0 0 -6.57473 1.28609 -0.334735 -2.93684 0.04 
258 1 1 -0.246317 -0.357388 -0.510632 0 0 0 0.409313 -0.503638 -3.00081 0 0 -6.57473 -1.20701 1.13891 0.572759 0.04 
339 1 1 -0.148809 -0.369787 -0.475806 0 0 0 0 0 -3.0554 0 0 -6.57473 0 0 0 0.04 
344 1 1 -0.0283231 -0.367269 -0.484956 0 0 0 0 0 -3.08464 0 0 -6.57473 0 0 0 0.04 
341 1 1 0.26902 -0.393882 -0.480343 0 0 0 -0.0559388 -0.263634 -3.03439 0 0 -6.57473 0.00113462 1.32092 -1.81676 0.04 
456 1 1 -0.924638 -0.349456 -0.4865 0 0 0 -2.71977 -0.893289 -2.11093 -21.152 33.3112 -33.9172 4.86621 -0.806091 0.864139 0.04 
289 1 1 -0.323442 -0.328108 -0.477537 0 0 0 1.5588 -1.17072 -3.48728 0 0 -6.57473 0.182633 0.0570836 7.2281 0.04 
284 1 1 0.143363 -0.293895 -0.486616 0 0 0 0.553946 -0.163998 -2.14493 0 0 -6.57473 5.1512 -2.65716 -1.69385 0.04 
226 1 1 0.228333 -0.324097 -0.341511 0 0 0 -0.737048 -1.12658 2.91467 1.88254 -234.256 -396.313 9.64347 -14.3972 -4.38706 0.04 
229 1 1 0.686408 -0.42254 -0.523098 0 0 0 -0.0907186 -5.48093 -4.46662 0 0 -6.57473 -19.9432 -2.59757 12.125 0.04 
130 1 1 0.306863 -0.220738 -0.441473 0 0 0 -3.03914 0.870592 1.1986 0 0 -6.57473 26.3872 8.88868 -5.83066 0.04 
589 1 1 0.74783 -0.273402 -0.573549 0 0 0 0.405312 -0.364818 -6.25025 0 0 -6.57473 -12.8026 11.6183 -14.259 0.04 
319 1 1 -0.622497 -0.166822 -0.458142 0 0 0 -0.374553 -0.426362 -2.94528 0 0 -6.57473 -2.77773 -2.01296 1.85797 0.04 
572 1 1 -0.549251 -0.165871 -0.566667 0 0 0 -0.277309 -1.52214 -6.99395 0 0 -6.57473 -9.83107 10.5487 -9.35779 0.04 
529 1 1 0.612849 -0.132979 -0.556212 0 0 0 -0.7742 0.363038 -6.08887 0 0 -6.57473 -13.8186 8.1941 -5.18082 0.04 
292 1 1 -0.308394 -0.119779 -0.508495 0 0 0 -2.40597 0.60573 -3.24679 0 0 -6.57473 -20.6614 5.81152 -3.51122 0.04 
346 1 1 -0.105501 -0.0659365 -0.500922 0 0 0 1.03652 0.115252 -3.1836 0 0 -6.57473 -12.1397 2.46281 5.86349 0.04 
358 1 1 0.369071 -0.0159781 -0.490324 0 0 0 -0.0865523 0.165719 -3.25367 0 0 -6.57473 1.42021 6.08348 1.28185 0.04 
555 1 1 -0.673806 0.0177045 -0.551896 0 0 0 -0.965106 -0.815619 -5.69778 -31.1849 -49.7854 21.0609 -14.2676 8.03729 -8.69139 0.04 
377 1 1 0.718904 0.04097 -0.464175 0 0 0 1.19821 1.53608 -3.35197 0 0 -6.57473 -19.0888 12.3932 6.72014 0.04 
303 1 1 -0.855876 0.398237 -0.487886 0 0 0 0 0 -3.09395 0 0 -6.57473 0 0 0 0.04 
144 1 1 -0.763298 -0.833915 -0.345703 0 0 0 1.33735 2.33448 2.6775 0 0 -6.57473 37.1151 -15.5554 -13.4743 0.04 
239 1 1 -0.907839 -0.671657 -0.447779 0 0 0 -1.25697 -1.03764 -2.87689 0 0 -6.57473 -3.23171 1.85862 -3.553 0.04 
39 1 1 -0.409354 -0.552067 -0.29162 0 0 0 -1.54866 -0.734237 3.20108 0 0 -6.57473 13.8405 -26.3866 -5.19486 0.04 
301 1 1 0.0715832 -0.506375 -0.409056 0 0 0 -0.424646 -1.13784 -2.9328 0 0 -6.57473 -1.18165 1.03939 -3.35891 0.04 
147 1 1 0.87768 -0.441383 -0.407071 0 0 0 0.660598 -0.733753 -2.75962 0 0 -6.57473 -1.48203 -2.1634 -2 0.04 
328 1 1 -0.88661 -0.40242 -0.442915 0 0 0 0.354242 -0.794119 -2.29858 21.152 -33.3112 20.7678 -0.0831801 2.06582 2.54171 0.04 
294 1 1 -0.74758 -0.383539 -0.404702 0 0 0 0.267465 -0.0792052 -1.19755 0 0 -6.57473 -5.04435 -0.309768 0.779342 0.04 
285 1 1 -0.1788 -0.350655 -0.399051 0 0 0 0.305848 -0.177502 -2.83047 0 0 -6.57473 1.46061 1.75337 0.673016 0.04 
391 1 1 0.121794 -0.388287 -0.398767 0 0 0 -0.224701 -0.511105 -3.48919 0 0 -6.57473 1.08464 1.92384 -1.80086 0.04 
215 1 1 0.779947 -0.358689 -0.395284 0 0 0 -1.3525 -0.646224 -1.39574 0 0 -6.57473 -4.99642 -8.80456 17.2425 0.04 
320 1 1 -0.590605 -0.291487 -0.432127 0 0 0 0.201177 -0.543748 -2.88623 0 0 -6.57473 0.298891 -0.247911 -0.891987 0.04 
290 1 1 -0.727029 -0.260946 -0.406483 0 0 0 -0.109706 -1.33878 -3.75231 0 0 -6.57473 3.70604 -0.194206 3.5983 0.04 
454 1 1 -0.468664 -0.269417 -0.459151 0 0 0 0.826102 -2.57498 -3.93269 0 0 -6.57473 -3.28885 4.77341 -2.37047 0.04 
318 1 1 -0.00547326 -0.218342 -0.440295 0 0 0 -0.443867 -0.165709 -2.84704 0 0 -6.57473 3.61506 4.65362 6.73023 0.04 
295 1 1 0.906015 -0.246274 -0.395004 0 0 0 0.193018 -0.0906296 -2.71365 0 0 -6.57473 -0.564317 -0.244486 0.54839 0.04 
330 1 1 -0.18094 -0.22437 -0.392153 0 0 0 2.59752 -1.72616 -2.80549 0 0 -6.57473 4.06308 6.47874 -3.10656 0.04 
432 1 1 0.106839 -0.156899 -0.457442 0 0 0 0.148245 -1.15159 -5.29581 0 0 -6.57473 4.76654 2.92523 3.90561 0.04 
199 1 1 0.900478 -0.0801294 -0.429891 0 0 0 1.0703 0.433976 -2.5834 0 0 -6.57473 -2.34809 -0.775522 -1.48845 0.04 
468 1 1 0.52398 -0.0111588 -0.451516 0 0 0 -1.80814 0.164811 -4.49907 0 0 -6.57473 8.17907 -5.84493 -2.97132 0.04 
122 1 1 0.653627 -0.042693 -0.343862 0 0 0 1.57537 -0.954331 2.06187 0 0 -6.57473 -4.7884 25.402 0.244115 0.04 
347 1 1 -0.945025 0.152956 -0.406345 0 0 0 -0.282693 0.0339835 -2.83331 0 0 -6.57473 -0.131384 -0.795695 0.369393 0.04 
4 1 1 -0.888033 -0.844873 -0.227134 0 0 0 -0.126865 -1.5991 2.46765 0 0 -6.57473 25.1174 0.893851 -6.10577 0.04 
40 1 1 0.308949 -0.739585 -0.24435 0 0 0 1.06009 2.51149 2.51541 0 0 -6.57473 36.666 13.5103 -18.3885 0.04 
375 1 1 -0.293781 -0.50028 -0.374508 0 0 0 -0.255595 -0.699004 -2.69738 0 0 -6.57473 -0.733442 0.177237 -2.14923 0.04 
257 1 1 -0.0912744 -0.532817 -0.31473 0 0 0 -1.56273 -1.24719 -0.101297 0 0 -6.57473 8.08166 -0.734351 7.71283 0.04 
404 1 1 0.21585 -0.423923 -0.358223 0 0 0 -0.23302 -0.458365 -2.76058 0 0 -6.57473 -1.44999 -5.03212 1.48096 0.04 
430 1 1 0.326341 -0.419568 -0.304271 0 0 0 0.459135 -0.18973 -2.14498 0 0 -6.57473 -0.809329 -6.41715 -0.380745 0.04 
418 1 1 -0.805208 -0.341364 -0.345144 0 0 0 -0.504833 -0.137763 -2.73079 0 0 -6.57473 -0.528482 -0.531265 1.3083 0.04 
382 1 1 0.050783 -0.354555 -0.359612 0 0 0 -0.613791 0.10844 -2.43905 0 0 -6.57473 1.00815 3.1811 -0.485102 0.04 
395 1 1 0.928735 -0.346833 -0.37246 0 0 0 0.685021 -0.535113 -3.00985 0 0 -6.57473 0.733666 2.24531 -1.70086 0.04 
433 1 1 -0.470172 -0.367925 -0.366533 0 0 0 0.4386 -1.90683 -2.83897 0 0 -6.57473 0.946114 0.205201 8.80028 0.04 
410 1 1 -0.315991 -0.292266 -0.355604 0 0 0 0.957947 -0.472629 -2.68681 0 0 -6.57473 -4.6042 0.95971 -4.46037 0.04 
366 1 1 -0.115251 -0.275693 -0.362221 0 0 0 0.103852 0.0400488 -2.68922 0 0 -6.57473 -0.304048 -2.73981 1.29889 0.04 
439 1 1 0.460598 -0.307212 -0.360059 0 0 0 0.221327 -0.378537 -2.85619 26.7164 -39.5255 -25.5567 1.80342 0.955392 -0.426732 0.04 
363 1 1 -0.837944 -0.219063 -0.317336 0 0 0 -0.279714 -0.0643053 -2.54062 0 0 -6.57473 0.161115 -0.0519368 -0.828239 0.04 
325 1 1 0.0954899 -0.250229 -0.385892 0 0 0 -0.00722324 0.0249548 -3.1911 0 0 -6.57473 1.61254 17.6781 -7.39439 0.04 