ITEM: TIMESTEP
97000
ITEM: NUMBER OF ATOMS
1500
ITEM: BOX BOUNDS ff ff ff
-1 1
-1 1
-1 1
ITEM: ATOMS id type type x y z ix iy iz vx vy vz fx fy fz omegax omegay omegaz radius 
137 1 1 -0.96011 -0.960152 -0.960203 0 0 0 1.78413e-05 1.02773e-05 1.59943e-05 0.00206417 -0.00307052 0.000912761 -0.000103662 -0.000152053 -6.68509e-05 0.04 
5 1 1 -0.830892 -0.960168 -0.960266 0 0 0 3.77763e-05 2.63933e-05 6.02605e-05 -0.00107382 -0.00399792 -0.00276175 0.000405171 0.000512621 -0.000149537 0.04 
239 1 1 -0.750973 -0.960141 -0.960255 0 0 0 3.39879e-05 3.16557e-05 3.66724e-05 -0.00590467 -0.000145799 0.00241675 0.000857913 0.000737891 3.56128e-05 0.04 
34 1 1 -0.671017 -0.960044 -0.960246 0 0 0 1.01869e-05 4.77666e-05 -3.317e-05 -0.00310546 -0.000801289 -0.00182266 -0.0011326 0.00082917 -3.03202e-05 0.04 
415 1 1 -0.591068 -0.960062 -0.960291 0 0 0 -5.02099e-06 4.35333e-05 -2.59208e-05 -0.00159444 0.00161894 -0.00465711 -0.000565201 -0.000772734 0.000320233 0.04 
138 1 1 -0.510834 -0.960069 -0.960241 0 0 0 -3.78387e-06 6.66254e-06 -2.99351e-05 -4.10979e-05 0.00383849 0.00226796 0.000329454 -0.000844493 0.000214691 0.04 
323 1 1 -0.430289 -0.959877 -0.960154 0 0 0 -1.84724e-05 2.69046e-05 -1.05045e-05 0.000961434 0.00576184 0.00240452 -0.00100715 -0.000142799 -0.000246668 0.04 
130 1 1 -0.350318 -0.960038 -0.960252 0 0 0 -2.96288e-05 -9.22449e-07 -1.15646e-05 4.484e-05 0.00397864 0.00489295 -0.000485876 -0.00042508 4.38991e-05 0.04 
502 1 1 -0.270343 -0.960117 -0.9603 0 0 0 -6.59631e-05 -1.88631e-05 6.53095e-06 0.00219994 0.0034815 -0.00333768 0.00124052 -0.000277978 0.000672965 0.04 
494 1 1 -0.1743 -0.960163 -0.960229 0 0 0 -4.0236e-05 -3.32702e-05 -2.55649e-05 0.0128569 0.00671808 0.00395079 0.000127556 -0.00136543 0.000181214 0.04 
448 1 1 -0.0943157 -0.960146 -0.960267 0 0 0 -2.64496e-05 5.03409e-06 6.58157e-05 0.0057779 0.0027197 0.00351838 4.653e-06 -0.000894286 0.000357469 0.04 
147 1 1 -0.0144649 -0.96016 -0.960215 0 0 0 -2.02381e-05 3.09635e-06 8.97372e-05 0.00395962 -0.00171881 -0.00272221 0.00129518 -0.000294849 0.000485455 0.04 
218 1 1 0.0655312 -0.960172 -0.960209 0 0 0 -5.62351e-06 4.67317e-05 7.32488e-05 0.0023756 -0.00395862 -0.00333809 0.000543733 0.00117831 0.000899794 0.04 
339 1 1 0.145757 -0.960145 -0.960214 0 0 0 2.22438e-05 3.84328e-05 7.10552e-05 0.00436433 -0.0104708 0.000734948 0.000410117 -0.000414683 -0.000336342 0.04 
81 1 1 0.225733 -0.960093 -0.960177 0 0 0 4.63512e-05 2.47426e-05 1.88623e-05 0.00407118 -0.0074929 0.0052074 -9.54701e-05 0.00138999 -0.000353506 0.04 
341 1 1 0.305651 -0.960069 -0.960157 0 0 0 4.47236e-05 2.74967e-05 -6.6668e-05 0.0127538 -0.00976551 -0.00172036 -0.00139988 0.00135871 -0.000295872 0.04 
203 1 1 0.385621 -0.960081 -0.960219 0 0 0 3.79476e-05 -2.03766e-05 -8.20261e-05 0.0127552 -0.00138654 0.0057633 -0.000932074 -0.000369426 -0.00195678 0.04 
1019 1 1 0.473737 -0.960016 -0.960209 0 0 0 2.35536e-05 7.00738e-06 -8.82644e-05 0.00862467 0.00863284 -0.00659238 -0.00121695 -0.00146659 -0.000482571 0.04 
821 1 1 0.553721 -0.960025 -0.960231 0 0 0 -8.54809e-06 3.60514e-06 -2.70761e-05 0.00409116 0.00522338 -0.00637702 -0.000374432 4.91693e-05 0.000197636 0.04 
636 1 1 0.633693 -0.960458 -0.9602 0 0 0 -7.62056e-07 -4.16467e-06 -9.80987e-05 0.00108348 0.000489239 -0.00447524 -0.000812291 2.76399e-05 -0.000224857 0.04 
729 1 1 0.720239 -0.960012 -0.960161 0 0 0 -7.63859e-06 -4.32763e-05 1.0028e-05 -0.00159721 -0.000507831 -0.00343991 0.000794166 -0.000223522 0.00049009 0.04 
503 1 1 0.800202 -0.960037 -0.960137 0 0 0 -2.58349e-06 -1.48874e-05 -1.9398e-06 0.000434263 0.00145237 -0.00150713 4.63836e-06 0.000141557 0.000230797 0.04 
424 1 1 0.880173 -0.96004 -0.96016 0 0 0 7.17249e-06 -2.27941e-05 -8.45661e-06 0.00307863 0.00110815 -0.000484665 0.000131223 0.000111749 -0.00082512 0.04 
850 1 1 0.9601 -0.958946 -0.960223 0 0 0 -1.04076e-06 -6.02353e-05 -3.08747e-05 0.00442749 0.000515681 0.000557386 0.00196882 -0.000392196 0.00105324 0.04 
778 1 1 -0.959929 -0.880401 -0.960216 0 0 0 1.04777e-05 6.44893e-06 4.41579e-05 -0.00229485 -0.00356972 0.00574952 0.000525082 0.00026316 0.000887346 0.04 
918 1 1 -0.880185 -0.897208 -0.960224 0 0 0 0.000120968 5.52299e-05 0.000113708 -0.00466064 -0.00870638 -0.00618328 -0.000454404 0.00303218 -0.0018902 0.04 
246 1 1 -0.791825 -0.890617 -0.960152 0 0 0 0.000104753 7.03757e-05 -5.99843e-06 -0.00655824 -0.00111358 -0.010102 -0.00161323 0.00237891 -0.00159355 0.04 
586 1 1 -0.71186 -0.890539 -0.960296 0 0 0 7.03719e-05 0.000111342 -4.92679e-06 -0.0046952 -0.00214029 -0.00508395 -0.0027931 0.00163586 -0.000654601 0.04 
379 1 1 -0.63091 -0.890722 -0.96019 0 0 0 5.34683e-05 5.81292e-05 -4.29396e-05 -0.00557055 0.00287862 -0.0102653 -0.000888195 0.000993174 -0.00193803 0.04 
105 1 1 -0.550903 -0.890948 -0.960215 0 0 0 3.9583e-05 6.74494e-05 -2.98494e-05 -0.00683216 0.00114725 -0.00495175 -0.000772866 0.00166906 -0.00162282 0.04 
289 1 1 -0.471002 -0.890716 -0.96025 0 0 0 -2.54757e-05 6.80609e-05 -6.38167e-06 0.00144804 0.00437867 -0.0030247 -0.00168297 -0.000764503 0.000832686 0.04 
345 1 1 -0.38949 -0.870657 -0.960118 0 0 0 0.00367122 0.00265486 2.39587e-05 -1.52958e-07 -9.18197e-09 -0.0101796 -0.0664692 0.0919156 0.123384 0.04 
209 1 1 -0.310225 -0.890867 -0.960161 0 0 0 -0.000117272 -2.49466e-06 3.88206e-05 -0.016032 0.0100577 -0.00852003 0.000269533 -0.00256973 0.0013593 0.04 
647 1 1 -0.222236 -0.896274 -0.960224 0 0 0 -9.59565e-05 -0.000137342 -7.93541e-05 -0.00533467 0.00242768 -0.0109136 0.00257252 -0.00335354 0.00298745 0.04 
700 1 1 -0.134299 -0.891093 -0.960196 0 0 0 -5.87613e-05 -6.71956e-05 1.2183e-05 0.00104111 0.0131124 0.00410872 -0.000132084 -0.0018007 0.000997157 0.04 
616 1 1 -0.0544216 -0.890853 -0.960232 0 0 0 -4.45238e-05 8.52189e-06 4.76884e-05 0.00102629 0.00356858 -0.00653998 0.000890081 0.000107258 0.00154511 0.04 
87 1 1 0.0254597 -0.891074 -0.960203 0 0 0 -7.86108e-06 7.32285e-05 3.10124e-05 0.00575615 0.00294558 0.000338798 -0.00300483 -2.29072e-05 -0.000715007 0.04 
655 1 1 0.105572 -0.891076 -0.960218 0 0 0 3.49323e-05 6.80306e-05 3.01837e-05 0.00792524 -0.00628945 -0.00191661 -0.000927024 0.00093356 -0.00117003 0.04 
977 1 1 0.185659 -0.890926 -0.960203 0 0 0 7.16885e-05 5.06501e-05 8.89502e-05 0.00324642 -0.00524018 0.00246452 -0.000141457 0.00159758 -0.000383904 0.04 
19 1 1 0.265636 -0.890829 -0.960227 0 0 0 6.37946e-05 5.88494e-05 -0.000156595 0.00740029 -0.00517996 0.0161108 -0.00351265 0.00169251 0.000170811 0.04 
443 1 1 0.345633 -0.890855 -0.960248 0 0 0 -8.05881e-06 2.1856e-05 -0.00020035 0.010661 -0.00692555 0.0167377 -0.000622842 -0.000287338 0.00209708 0.04 
664 1 1 0.429599 -0.89332 -0.960215 0 0 0 -4.25548e-05 -7.84744e-05 -0.000109022 -0.00707739 0.00965058 0.00472112 0.00113371 -0.000297104 0.00296428 0.04 
74 1 1 0.59436 -0.891144 -0.960225 0 0 0 2.94597e-05 4.70746e-06 -8.0077e-05 0.00359814 0.00250753 -0.00082072 0.000262254 -1.25257e-05 -0.001275 0.04 
50 1 1 0.674248 -0.892015 -0.960178 0 0 0 1.90758e-05 -1.98999e-05 -3.67495e-05 0.00217576 0.00182984 0.00638217 0.000371202 3.27988e-05 0.000468124 0.04 
1 1 1 0.749841 -0.866831 -0.960242 0 0 0 -1.85825e-06 -1.22026e-05 -1.76743e-05 0.00357249 0.00409901 0.0056385 0.000621481 0.00026956 -0.000420029 0.04 
812 1 1 0.878013 -0.880136 -0.960205 0 0 0 -1.43583e-05 3.64844e-06 -2.4135e-05 0.00180486 0.0037111 0.00796783 -0.000458006 0.00053308 0.00146537 0.04 
446 1 1 -0.960244 -0.800741 -0.960215 0 0 0 5.69768e-05 4.22356e-05 6.37297e-05 -0.00153647 0.000372739 0.000671283 -0.000443271 -0.000450175 -0.000961544 0.04 
352 1 1 -0.840948 -0.82753 -0.960337 0 0 0 0.00015093 7.11627e-05 6.63598e-05 0.00137188 -0.0145587 -0.00485466 -0.000704788 0.00327001 0.00111118 0.04 
894 1 1 -0.761752 -0.816672 -0.960284 0 0 0 0.000145502 4.5865e-05 -0.000121218 -0.000688258 -0.0130573 -0.0106581 -0.000475962 0.00436145 0.000878578 0.04 
960 1 1 -0.681854 -0.816441 -0.960115 0 0 0 0.000162072 1.6703e-05 -5.86526e-05 0.0126175 -0.00865261 0.000612414 -0.00081312 -0.00763612 -0.00283067 0.04 
380 1 1 -0.535214 -0.812502 -0.960157 0 0 0 7.40808e-05 6.14737e-05 2.18301e-05 -0.000817346 0.00270178 -0.0109915 -0.00162431 0.00176347 -0.0022587 0.04 
720 1 1 -0.257519 -0.824573 -0.960291 0 0 0 -7.67593e-05 -0.000205245 2.49397e-05 -0.00578845 -0.00286217 0.0100971 0.00485248 -0.00115551 -0.00391698 0.04 
161 1 1 -0.175337 -0.822811 -0.960299 0 0 0 -0.000353027 -0.000500176 -4.6204e-05 -0.00629913 0.0141925 0.0102131 0.00577318 -0.00853308 0.0103893 0.04 
385 1 1 -0.0953966 -0.820101 -0.960193 0 0 0 -0.000286024 -0.000643413 -7.26276e-05 -0.00873974 -0.0108396 0.00591947 0.0146873 -0.00717959 0.00178979 0.04 
827 1 1 -0.0151062 -0.821238 -0.960263 0 0 0 -0.000200761 6.94824e-05 5.29596e-05 0.00453564 0.00180908 -0.0177734 -0.00227235 -0.00441386 0.00235081 0.04 
784 1 1 0.0652886 -0.822029 -0.960241 0 0 0 -4.86046e-05 7.54985e-05 -3.96558e-05 0.00767895 -0.00116234 0.0119229 -0.00124247 -0.0023742 0.00285888 0.04 
211 1 1 0.145419 -0.821875 -0.960215 0 0 0 -2.09149e-05 4.46885e-05 3.1097e-07 0.00807411 -0.00787196 0.00594541 -0.00140508 -0.00126479 0.00142325 0.04 
121 1 1 0.225286 -0.821505 -0.960185 0 0 0 -7.56749e-06 7.93385e-05 3.794e-05 0.00599668 -0.00328673 -0.00743767 -0.00124712 0.000302874 0.00138662 0.04 
354 1 1 0.302764 -0.802488 -0.960232 0 0 0 -4.65344e-05 4.59543e-05 -1.63512e-05 -0.00213843 -0.00133772 -0.0030202 -0.000950061 -0.000799074 -0.000362558 0.04 
229 1 1 0.380706 -0.819076 -0.960368 0 0 0 -7.48676e-05 -2.0797e-05 -2.41868e-05 0.00152568 0.0065032 0.0101719 0.00252089 -1.01431e-05 -0.000637537 0.04 
369 1 1 0.456121 -0.822156 -0.93518 0 0 0 -0.000144214 -9.63679e-05 -0.000250432 0.0047906 0.0249668 -0.00401557 -0.00103883 0.00515385 3.54727e-05 0.04 
396 1 1 0.51956 -0.863497 -0.960239 0 0 0 -4.30741e-05 1.50658e-05 -0.000259584 -0.00103773 0.00989137 0.01055 -0.00270437 -0.00188127 0.00416711 0.04 
866 1 1 0.594027 -0.811307 -0.960336 0 0 0 -1.89366e-05 -4.76962e-05 4.88857e-05 -0.00068876 -0.00498908 -0.000522757 0.00063538 -0.00115059 0.00191823 0.04 
628 1 1 0.673821 -0.812299 -0.960205 0 0 0 1.19295e-05 -7.90761e-06 -2.24199e-06 -0.00208862 -0.00274705 -0.000190474 0.000739958 0.000701115 -0.000997165 0.04 
554 1 1 0.818679 -0.826524 -0.960284 0 0 0 -1.38528e-06 -1.90079e-05 1.97753e-05 -0.000255781 0.00243679 0.00707876 0.000628124 0.000146289 -0.000616496 0.04 
417 1 1 0.960154 -0.833966 -0.960253 0 0 0 2.54274e-06 6.52511e-05 -6.08448e-07 -0.00463572 0.00623575 0.00417752 -0.00152845 0.000131554 -0.00162626 0.04 
282 1 1 -0.889436 -0.764116 -0.960201 0 0 0 4.53666e-05 3.63467e-05 7.13462e-05 -0.000415163 -0.00620572 -0.00965417 -0.00172123 0.00164539 0.00179309 0.04 
492 1 1 -0.810312 -0.753199 -0.960205 0 0 0 2.87056e-05 -6.10268e-05 -4.47896e-05 -0.0157543 -0.0209916 -0.0221526 0.00133784 0.00131438 -0.00151773 0.04 
290 1 1 -0.609448 -0.782715 -0.960221 0 0 0 6.51245e-05 2.78988e-05 9.09131e-05 0.0041209 0.000494864 0.000629716 -0.000471639 0.000910859 0.00294709 0.04 
52 1 1 -0.453376 -0.788994 -0.960333 0 0 0 4.12041e-05 2.69397e-05 -3.83768e-05 -0.00202533 -0.0018797 0.00374954 0.000796052 0.00128267 -0.00689862 0.04 
480 1 1 -0.375659 -0.770531 -0.96036 0 0 0 -6.06891e-06 -1.57894e-05 -5.92983e-07 0.0126005 -0.0105097 -0.0110147 0.00122751 -0.00157151 0.00789289 0.04 
402 1 1 -0.29758 -0.753571 -0.960118 0 0 0 1.41975e-05 -5.38773e-05 4.23596e-05 0.00145523 0.00778219 -0.00220977 0.0011155 0.0010454 -0.00895294 0.04 
322 1 1 -0.217703 -0.755326 -0.960131 0 0 0 1.64173e-05 -0.00030056 -4.22397e-05 0.00700528 0.0158746 0.00338287 0.0069142 0.000853426 0.00318791 0.04 
376 1 1 -0.137784 -0.752288 -0.960136 0 0 0 -0.000142781 -0.000641615 -1.84313e-05 0.00152881 -0.00416057 -0.00276276 0.00424524 -0.000886262 -0.0113919 0.04 
204 1 1 -0.0595775 -0.73574 -0.960304 0 0 0 0.00032182 -0.00248658 -4.06609e-05 -0.00316724 0.0265419 -0.00628407 0.061611 0.00873182 -0.0262553 0.04 
1122 1 1 0.0192932 -0.748936 -0.960159 0 0 0 0.000642979 -0.000798539 7.19673e-05 -0.027747 -0.00245906 0.00622443 0.020612 0.0161022 0.0634817 0.04 
773 1 1 0.105142 -0.75305 -0.960328 0 0 0 -2.18736e-05 8.67572e-05 -7.85977e-05 0.00436944 -0.01191 0.0217877 -0.00165999 -0.000143376 -0.0022613 0.04 
725 1 1 0.18512 -0.75234 -0.960163 0 0 0 -5.61028e-05 5.66429e-05 -1.04923e-05 0.00153911 0.0021749 0.0049856 -0.000658241 -0.00167471 0.00100775 0.04 
159 1 1 0.345573 -0.735002 -0.960256 0 0 0 -7.79332e-05 1.21799e-05 3.53455e-05 0.0144783 -0.00490392 -0.00112545 -0.000375363 -0.002156 -0.00135665 0.04 
688 1 1 0.482791 -0.751117 -0.960229 0 0 0 -0.000111731 -0.00011634 -6.76514e-05 0.00986715 0.00735208 -0.0164089 0.00336523 -0.00302098 0.00011395 0.04 
757 1 1 0.561592 -0.738304 -0.960168 0 0 0 -5.77927e-05 -0.000158047 9.11432e-05 -0.00261894 0.00877922 -0.0155601 0.00329496 -0.000218345 0.000189036 0.04 
519 1 1 0.641385 -0.73939 -0.960172 0 0 0 -5.19587e-06 -1.84742e-05 4.85699e-05 -0.00381914 -0.00368327 -0.0024718 0.000163676 0.000480429 0.00308266 0.04 
742 1 1 0.749359 -0.786904 -0.960233 0 0 0 1.24398e-06 -3.18999e-05 -1.64902e-05 -0.00299752 -0.00197324 -0.00276534 0.000244246 -0.000864779 0.000240013 0.04 
603 1 1 0.818346 -0.74666 -0.960129 0 0 0 1.43702e-05 1.60792e-05 -6.83258e-06 -0.00572928 -0.00078985 -0.000390884 -0.0012846 -4.85164e-05 0.000398575 0.04 
86 1 1 0.891232 -0.793683 -0.960276 0 0 0 1.0167e-05 1.72573e-05 6.68909e-06 -0.00351644 0.00105818 0.00029007 -0.000422279 -0.00014022 0.00166351 0.04 
972 1 1 0.96024 -0.753737 -0.960208 0 0 0 -2.36781e-06 2.06059e-05 -7.54665e-06 -0.000936821 0.00317442 0.00105274 -7.01489e-05 -0.000136191 -0.000198227 0.04 
488 1 1 -0.960206 -0.720977 -0.960237 0 0 0 1.06048e-05 7.10024e-05 -2.89097e-05 0.00111062 -0.00157874 -0.00740356 -0.00229835 0.00108191 0.00369673 0.04 
532 1 1 -0.889465 -0.684333 -0.960245 0 0 0 -0.000172489 8.13383e-05 -5.81223e-05 -0.0273958 0.0050746 -0.0151582 -0.000848629 -0.00264756 0.000970119 0.04 
564 1 1 -0.744083 -0.708372 -0.960259 0 0 0 -9.61351e-05 -0.000127081 -0.000101437 -0.0275325 -0.0303505 -0.00302008 0.000676909 -0.000687421 0.00283959 0.04 
314 1 1 -0.6662 -0.726448 -0.960118 0 0 0 -7.27125e-05 -0.000153331 -7.50053e-05 -0.00880861 -0.0110941 -0.00568656 0.00122179 -0.00143629 0.000549335 0.04 
783 1 1 -0.611383 -0.667461 -0.960258 0 0 0 0.000161425 1.58222e-05 -2.07332e-05 -0.00350055 -0.0241345 0.00374682 0.000546685 0.00242741 -0.00405814 0.04 
1127 1 1 -0.555103 -0.724254 -0.960253 0 0 0 6.63392e-05 6.09786e-05 -3.90553e-05 -0.00173821 -0.00369406 -0.00937448 -0.00179601 0.00248141 -0.0010708 0.04 
241 1 1 -0.476078 -0.712364 -0.960184 0 0 0 4.48019e-05 0.000149835 -9.5042e-06 0.00825323 0.00150067 -0.00124316 -0.00168797 8.72255e-05 0.00514546 0.04 
85 1 1 -0.391005 -0.692245 -0.960255 0 0 0 -0.000231244 -0.000115483 -6.1479e-05 0.0191307 -0.00353827 -0.00510372 -0.00433433 0.00137846 -0.00313212 0.04 
511 1 1 -0.312991 -0.675096 -0.960171 0 0 0 -0.000172079 -0.00010071 1.53213e-05 0.00805206 0.00525401 0.0021713 0.00158437 -0.00408777 0.000982201 0.04 
873 1 1 -0.233094 -0.677219 -0.960336 0 0 0 -0.000284047 -0.000351114 -5.1527e-05 0.00898646 0.0267096 0.0107243 -0.00540499 -0.00166981 0.00470449 0.04 
738 1 1 -0.122544 -0.673841 -0.960257 0 0 0 7.01807e-05 -0.000774524 7.6055e-05 0.0217275 -0.00107613 0.00850849 0.0217526 0.00406354 -0.00760927 0.04 
1088 1 1 0.110954 -0.673752 -0.960226 0 0 0 9.60603e-05 7.67621e-05 -0.000126526 -0.0241399 -0.00747192 0.00759603 0.00180448 0.00218444 -0.00106935 0.04 
862 1 1 0.208437 -0.675887 -0.960172 0 0 0 0.000180442 1.10847e-05 -3.3873e-05 -0.0233552 -0.00401427 -0.00945669 0.000671587 0.00615154 -0.00629855 0.04 
967 1 1 0.265708 -0.731659 -0.960288 0 0 0 -8.92102e-06 4.23397e-05 -2.28183e-05 0.00125605 -0.012435 0.00958371 -0.00176302 0.0016023 0.000898482 0.04 
451 1 1 0.432785 -0.688737 -0.9602 0 0 0 -9.97275e-05 -5.64722e-05 5.16495e-05 -0.000459632 -0.000226994 -0.0144207 0.0025417 -0.00156481 -0.0019102 0.04 
177 1 1 0.51172 -0.675931 -0.960227 0 0 0 -5.40789e-05 -0.000118069 0.00015189 -0.0102116 0.0133094 -0.0136761 0.00191193 -0.00112533 -0.000315039 0.04 
308 1 1 0.678757 -0.668897 -0.960169 0 0 0 -4.08061e-05 2.7753e-05 5.92036e-05 -0.00873055 0.0113475 -0.000342494 0.000429879 -0.000774267 -0.000569968 0.04 
439 1 1 0.748962 -0.707084 -0.960209 0 0 0 4.13817e-05 -2.95858e-05 -7.6256e-06 -0.00232086 0.00186835 0.00163861 -0.000315024 0.00227877 1.06753e-06 0.04 
662 1 1 0.818045 -0.666736 -0.960231 0 0 0 4.55047e-05 3.0711e-06 -2.74891e-05 0.000689746 -0.00370188 -0.00640493 -0.000372356 5.36661e-05 -0.000989911 0.04 
188 1 1 0.891037 -0.713775 -0.960247 0 0 0 4.05345e-06 2.8642e-06 -4.80314e-05 -0.00169694 -0.00184003 0.00200995 -0.000435557 0.000205966 -0.000354096 0.04 
987 1 1 0.960144 -0.673802 -0.960181 0 0 0 8.36405e-06 -6.41086e-06 -2.5851e-05 -0.0015063 0.00236893 0.00219335 -0.000278019 -0.000730463 -6.88914e-05 0.04 
990 1 1 -0.877721 -0.605528 -0.96022 0 0 0 -0.000283567 5.72083e-05 -9.33293e-05 -0.0199541 -0.0133087 -0.0208656 -0.00323391 -0.00469427 -0.00019045 0.04 
826 1 1 -0.811812 -0.66609 -0.960159 0 0 0 -0.000154753 -0.000145468 8.68513e-05 -0.0337277 0.0171416 0.00906238 0.00554944 -0.00298628 -0.00421514 0.04 
1152 1 1 -0.757384 -0.607622 -0.960258 0 0 0 -0.000262231 5.58384e-06 8.78125e-05 -0.00753672 -0.00112863 0.0255377 -0.00375059 -0.00208907 0.0073342 0.04 
567 1 1 -0.689509 -0.649979 -0.960178 0 0 0 0.000181998 -0.000256607 -4.11555e-05 -0.0268872 0.00410328 -0.014024 0.00275397 0.00529481 -0.00812242 0.04 
170 1 1 -0.527837 -0.649149 -0.960296 0 0 0 2.92748e-05 6.86731e-05 -0.000124617 0.00844802 -0.00292461 -0.0122522 -0.00122655 -0.000251038 0.00420105 0.04 
375 1 1 -0.448828 -0.637335 -0.960302 0 0 0 0.000119978 0.000347293 -0.000174753 0.000582013 -0.0136657 -0.0109504 -0.00639295 0.00415677 -0.0138586 0.04 
709 1 1 -0.367341 -0.616022 -0.960196 0 0 0 0.000350226 -0.000500724 5.57907e-06 -0.00642846 -0.00216592 0.0145704 0.0131938 0.0117285 -0.00785845 0.04 
1046 1 1 -0.0467064 -0.648884 -0.960243 0 0 0 -0.000228025 -0.000708403 -3.45757e-05 0.0149789 0.0158598 0.00981103 0.0163928 -0.00817525 0.0156757 0.04 
581 1 1 0.0319284 -0.662364 -0.960297 0 0 0 -7.7613e-05 1.77785e-05 4.68555e-07 -0.0114146 -0.000489433 -0.00749795 0.00146254 0.000576945 0.0025492 0.04 
61 1 1 0.160807 -0.611663 -0.960225 0 0 0 0.000107767 -7.17907e-05 4.64704e-05 -0.0247822 -0.0067614 0.00477424 0.00216163 0.00382533 0.00707412 0.04 
1052 1 1 0.252401 -0.609101 -0.960287 0 0 0 -0.000111121 -4.20336e-05 1.86317e-05 -0.0180582 -0.0180327 -0.023332 -0.00100034 -0.0021109 0.00372176 0.04 
656 1 1 0.311911 -0.662486 -0.960128 0 0 0 -9.3405e-05 5.1056e-06 4.25815e-05 0.0100475 -0.0127608 -0.00208729 0.000816429 -0.000633124 9.95504e-05 0.04 
1082 1 1 0.383106 -0.626077 -0.960242 0 0 0 -0.000138993 2.46827e-05 7.04132e-06 0.0188276 -0.00080684 -0.00315941 -0.0035613 -0.00089205 -0.000301039 0.04 
255 1 1 0.462001 -0.613477 -0.960266 0 0 0 -9.379e-05 -3.8117e-05 0.000125688 0.00294178 -0.00187817 0.00352369 0.000656606 -0.00171053 6.97139e-05 0.04 
880 1 1 0.598422 -0.666187 -0.960223 0 0 0 0.000111655 -0.000272233 -4.51472e-05 -0.0093884 -0.0112234 -0.0318316 0.0061897 0.00119284 -0.0163328 0.04 
1026 1 1 0.543027 -0.601443 -0.960163 0 0 0 8.38414e-05 -0.000120668 -0.000111646 -0.0228692 0.0251821 -0.00154507 -0.000291164 0.00301667 0.00698429 0.04 
543 1 1 0.748548 -0.627317 -0.96016 0 0 0 3.92137e-05 -4.77118e-05 -1.21913e-05 0.00172213 0.005705 0.00551035 0.00101937 0.000388596 0.000795452 0.04 
553 1 1 0.890863 -0.6339 -0.960238 0 0 0 3.17454e-05 -2.19133e-05 -6.32195e-05 -0.0025669 0.00196455 0.00195136 0.000158949 0.000991785 -9.46807e-05 0.04 
260 1 1 -0.960001 -0.595548 -0.960244 0 0 0 -2.9837e-06 9.54694e-05 0.000114727 -0.000435774 0.010843 0.0192531 -0.002183 0.000109141 -0.0042543 0.04 
565 1 1 -0.816681 -0.553961 -0.960231 0 0 0 -0.000286532 -1.32593e-05 -0.000152289 -0.0036132 -0.0254055 0.0184501 1.06377e-05 -0.00331301 -7.14889e-05 0.04 
1113 1 1 -0.703062 -0.549221 -0.960279 0 0 0 -8.65796e-05 -0.000156612 9.60273e-06 -0.00748626 0.0250253 0.00807104 0.00451671 -0.00159984 -0.0101671 0.04 
925 1 1 -0.635197 -0.59129 -0.960146 0 0 0 1.47878e-05 -0.000186348 -4.48016e-06 -0.00673347 -0.0132739 -0.0100316 0.00454416 -0.00230607 0.00981509 0.04 
893 1 1 -0.547629 -0.562688 -0.960174 0 0 0 4.7665e-05 -0.000191124 -7.61292e-05 0.022701 0.0055499 -0.0106506 0.00404397 -6.81899e-05 0.00227218 0.04 
1103 1 1 -0.454653 -0.557861 -0.960299 0 0 0 0.00092564 0.00041754 -7.54853e-06 -0.0212631 -0.012818 -0.0222856 -0.0155377 0.0224343 0.01279 0.04 
1448 1 1 -0.377572 -0.536756 -0.960159 0 0 0 0.000989744 -0.000159007 -0.000251956 -0.00318606 -0.00421162 -0.0375597 0.000962395 0.0209827 -0.0304358 0.04 
631 1 1 -0.303824 -0.567576 -0.960242 0 0 0 0.000531235 -0.000786541 -9.92054e-05 -0.0131389 0.00763211 0.00602761 0.0176831 0.0124625 -0.00141284 0.04 
714 1 1 -0.230032 -0.597876 -0.960353 0 0 0 0.000555776 -0.000477359 6.10065e-05 -0.0018971 -0.000974988 0.0106246 0.0106695 0.011466 -0.0262947 0.04 
962 1 1 -0.165427 -0.550901 -0.960205 0 0 0 0.000401959 -0.000335416 -0.000115252 -0.0225333 0.0293698 -0.033429 0.0136187 0.00995954 0.0117104 0.04 
950 1 1 -0.0923655 -0.583294 -0.960249 0 0 0 0.000198173 -0.000618451 -2.9567e-05 -0.00848816 0.0184948 0.0131782 0.0124612 0.00546256 -0.019378 0.04 
716 1 1 0.00265299 -0.586016 -0.960219 0 0 0 1.6903e-05 -0.000892145 0.000122219 0.000169031 0.0481756 0.0148096 0.0192326 0.000880287 -0.000665301 0.04 
388 1 1 0.0814096 -0.599613 -0.960228 0 0 0 -1.46575e-05 -3.948e-05 8.36746e-05 -0.0326743 -0.0157825 0.000806276 -0.000902999 0.00343267 0.00981047 0.04 
867 1 1 0.204618 -0.545122 -0.960172 0 0 0 -5.63576e-05 -0.000180431 -1.78556e-05 -0.0108003 -0.0267795 -0.0177133 0.00102669 0.000651284 -0.00390103 0.04 
576 1 1 0.321587 -0.564045 -0.960232 0 0 0 -0.000104218 -0.000149257 -0.000108584 0.0382775 -0.00918005 -0.0214973 0.00222648 -0.00332357 -0.00426326 0.04 
408 1 1 0.403787 -0.548891 -0.960206 0 0 0 -0.000250603 -9.69871e-05 -7.59647e-05 0.00322599 0.00631651 -0.0178276 0.00311705 -0.00531861 0.000775982 0.04 
814 1 1 0.482704 -0.536363 -0.960226 0 0 0 -0.000164258 -4.41306e-05 0.000263534 0.0138448 0.0220434 0.0227493 0.0026715 -0.00360414 0.000103507 0.04 
1288 1 1 0.589751 -0.536429 -0.960267 0 0 0 -8.91276e-05 -0.000103511 -1.13686e-05 -0.0184157 0.00865846 0.0223777 0.00167964 0.00134008 -0.00506128 0.04 
1111 1 1 0.678413 -0.58909 -0.96026 0 0 0 0.000126133 4.18708e-05 5.53881e-05 0.00871363 0.011379 -0.00492046 -0.00154108 0.0029475 -0.0038582 0.04 
1138 1 1 0.74738 -0.547509 -0.960207 0 0 0 0.000136238 -4.41618e-05 -3.75175e-05 0.00191879 -0.00142149 -0.00540752 -0.000699017 0.00167433 -0.00241607 0.04 
58 1 1 0.817503 -0.585979 -0.960207 0 0 0 6.0063e-05 -0.00011706 -0.000121304 0.0128791 -0.000314116 -0.00646915 0.00336915 0.00170486 -0.000192821 0.04 
1107 1 1 0.890822 -0.554039 -0.960246 0 0 0 -5.61172e-06 -5.03406e-05 -8.66814e-05 0.00075882 0.00428444 -0.00388357 0.000134508 -0.000871715 0.000195258 0.04 
252 1 1 0.960091 -0.593929 -0.960182 0 0 0 2.01759e-06 -1.72198e-05 -1.27582e-05 0.00381818 0.00313907 0.000352472 0.000593676 -0.000565537 0.000473943 0.04 
670 1 1 -0.960083 -0.515581 -0.960206 0 0 0 -0.00015094 0.000170673 3.68467e-05 -7.71428e-05 0.0112562 -0.00122357 -0.00209564 -0.0027435 0.00609119 0.04 
644 1 1 -0.761223 -0.493803 -0.960277 0 0 0 -6.49276e-05 -0.000328469 -0.000165437 -0.00365574 -0.0223059 -0.00328903 0.00782881 -0.00148138 -0.00333378 0.04 
833 1 1 -0.684418 -0.471797 -0.960326 0 0 0 -6.94449e-05 3.09398e-05 -3.65946e-05 0.0113239 0.0144597 0.020188 -0.00444358 -0.00288916 0.00975203 0.04 
435 1 1 -0.616325 -0.513721 -0.960223 0 0 0 -2.76624e-05 0.000116975 6.35381e-05 0.00232888 -0.0357989 -0.00996823 -0.00215805 0.00139879 -0.00522763 0.04 
816 1 1 -0.503039 -0.494473 -0.960283 0 0 0 0.000190867 0.000116437 -6.40299e-05 -0.0063803 -0.0490087 0.0145487 -0.00331769 0.00268505 0.0115519 0.04 
489 1 1 -0.313597 -0.488322 -0.960234 0 0 0 0.00220589 -0.000479345 -0.000263031 -0.0526699 0.0127004 -0.0403182 0.000470275 0.0102475 -0.00566537 0.04 
883 1 1 -0.239821 -0.519 -0.960262 0 0 0 0.00234727 -0.000289001 5.45071e-05 -0.0288718 0.0547432 -0.0157564 -0.0163323 0.0270123 -0.0153392 0.04 
305 1 1 -0.175457 -0.471607 -0.960212 0 0 0 0.00189658 0.00022967 -0.000192368 -0.0292897 0.0105153 0.0187803 -0.00324118 0.0471355 -0.00610317 0.04 
675 1 1 -0.10176 -0.50256 -0.960184 0 0 0 0.00106951 -0.00104332 -0.000496644 -0.0332335 -0.00897933 -0.0301661 0.0224452 0.0301636 -0.0269789 0.04 
1066 1 1 -0.0222045 -0.510106 -0.960314 0 0 0 0.000505785 -0.00102784 8.31287e-05 -0.0216114 0.0350349 0.0308625 0.0268861 0.00963767 -0.00750582 0.04 
143 1 1 0.0589708 -0.523028 -0.960126 0 0 0 1.62981e-05 3.68186e-05 -1.04419e-06 -0.0167507 0.00862304 -0.00481408 -0.00171786 -0.0030785 -0.0156028 0.04 
1346 1 1 0.153915 -0.483515 -0.960266 0 0 0 1.53467e-05 -0.000130703 -6.24933e-05 0.0175068 -0.0183283 -0.0342419 0.00158302 0.00384344 -0.000461051 0.04 
1000 1 1 0.271507 -0.501726 -0.960223 0 0 0 -4.53133e-05 -0.000176037 -6.80444e-05 0.00654524 0.00435355 0.00333751 0.00134074 0.00159906 0.00306561 0.04 
792 1 1 0.350498 -0.48939 -0.960248 0 0 0 -3.05331e-05 -0.000149756 -0.000119816 0.00634784 -0.0264748 -0.019558 0.00200238 -8.39914e-05 -0.00210945 0.04 
1361 1 1 0.432905 -0.473799 -0.960208 0 0 0 -2.91735e-05 6.79884e-05 0.000119654 0.0204185 -0.0160179 -0.0162949 -0.00402591 -0.000890076 -0.00184617 0.04 
584 1 1 0.536204 -0.477089 -0.960204 0 0 0 2.86851e-05 9.83865e-05 0.000193805 -0.00625583 0.0177964 0.00468253 -0.00135039 0.00373267 -0.00112885 0.04 
908 1 1 0.677145 -0.50943 -0.960259 0 0 0 0.000115834 -2.31186e-05 -4.98055e-05 0.00145522 -0.00286812 -0.000214352 2.54842e-05 -0.000174088 0.0026051 0.04 
1309 1 1 0.804446 -0.491606 -0.960226 0 0 0 0.000130764 0.000118471 -0.00017052 0.00766647 0.0147687 -0.00626932 -0.00286364 0.00252127 0.00522849 0.04 
9 1 1 0.890887 -0.474152 -0.960179 0 0 0 3.9474e-05 -9.21302e-05 -1.92687e-05 -0.0185674 0.00878127 -0.0201197 0.00226868 0.00055042 0.000131859 0.04 
771 1 1 0.960096 -0.514066 -0.960231 0 0 0 -3.01362e-06 -3.79412e-05 -2.4472e-05 -0.00541137 0.00239907 -0.000825566 -0.000524502 -0.000850205 -0.000229949 0.04 
1055 1 1 -0.960062 -0.423547 -0.960212 0 0 0 -6.39078e-05 0.000122546 0.000117744 -0.00144967 0.0137656 0.0110931 -0.00146333 -0.00254084 0.00255473 0.04 
739 1 1 -0.890751 -0.463396 -0.960241 0 0 0 -1.66235e-05 9.99673e-05 0.000115359 -0.00938178 -0.00897268 0.0197817 0.00121655 -0.00304878 -0.00255771 0.04 
1142 1 1 -0.821568 -0.423413 -0.960258 0 0 0 7.48234e-05 0.000239019 0.000186642 -0.0213388 -0.0100245 0.0210019 -0.0024142 0.000218258 0.00601577 0.04 
613 1 1 -0.63693 -0.407844 -0.960296 0 0 0 -1.65577e-05 0.000108308 -2.96157e-06 0.028439 -0.00757132 0.00058009 -6.07672e-05 -0.00443199 -0.00962103 0.04 
620 1 1 -0.568904 -0.449472 -0.960226 0 0 0 6.48177e-06 -0.000204707 7.91552e-05 -0.00733868 -0.033329 -0.00598259 0.00659872 -0.000862569 -0.00237572 0.04 
1316 1 1 -0.460911 -0.426611 -0.960321 0 0 0 0.00253239 -0.000506823 -0.000855889 -0.0423623 0.0174501 -0.10855 0.00387457 0.0743624 -0.0343609 0.04 
344 1 1 -0.387206 -0.457437 -0.960269 0 0 0 0.00217259 -0.000298589 -5.90799e-05 0.00365711 -0.0177092 -0.0644799 0.00283508 -0.00138747 0.00830578 0.04 
247 1 1 -0.323565 -0.408996 -0.960223 0 0 0 0.00243297 -0.000756937 -0.000162426 -0.048344 0.0138176 0.00547081 0.00182076 0.0185623 -0.00580639 0.04 
382 1 1 -0.249949 -0.439997 -0.960244 0 0 0 0.00249456 -0.000493998 0.000145921 -0.0175993 0.00225639 -0.0248149 0.00935308 0.0177749 0.0133145 0.04 
1271 1 1 -0.105193 -0.422593 -0.96025 0 0 0 6.05402e-05 -0.00020946 -0.000210949 -0.0281579 0.112055 0.0206853 0.0108174 0.00195462 -0.0357993 0.04 
1249 1 1 0.0294257 -0.448875 -0.960289 0 0 0 7.19367e-05 -4.19634e-05 -1.91919e-05 -0.00861859 -0.0281671 3.99215e-05 0.00197693 0.00230003 0.0195974 0.04 
1030 1 1 0.104299 -0.421011 -0.960282 0 0 0 0.000185964 -0.000289973 9.13628e-05 -0.0383446 0.0111024 -0.0041978 0.000513581 -0.00249453 -0.000319448 0.04 
1148 1 1 0.220829 -0.439837 -0.960252 0 0 0 -0.000133049 -0.000338628 -3.801e-05 -0.0297052 0.0256321 0.0272481 0.00471738 -0.00221789 -0.00796875 0.04 
772 1 1 0.300185 -0.4273 -0.96021 0 0 0 3.30369e-05 -0.000191416 -0.000200789 -0.00543379 0.00662278 -0.0198577 0.000681113 -0.000813093 -0.00451429 0.04 
845 1 1 0.379041 -0.414705 -0.96022 0 0 0 9.16672e-05 -0.000195713 -4.14639e-05 0.0304598 -0.0248753 -0.012489 5.32104e-05 -0.00218458 0.000760394 0.04 
981 1 1 0.561051 -0.401066 -0.960201 0 0 0 5.91461e-05 0.000127992 3.55658e-05 -0.038059 0.0250752 0.0246968 -0.0010307 0.00271189 -0.00199942 0.04 
1047 1 1 0.614308 -0.460357 -0.960196 0 0 0 2.61569e-05 -3.51479e-05 -5.09158e-05 0.0144932 0.0128246 0.00711294 -7.59171e-05 0.00155045 3.5574e-05 0.04 
1474 1 1 0.688414 -0.430481 -0.960203 0 0 0 6.02867e-05 -4.03499e-05 -6.32264e-05 0.00174073 0.00540142 0.0103775 0.00130471 -0.000199387 -0.00297375 0.04 
840 1 1 0.767483 -0.420833 -0.960286 0 0 0 4.61734e-05 -0.000101029 -8.10654e-05 -0.0140132 0.0126583 0.00402624 0.00274838 0.00137208 0.00169922 0.04 
852 1 1 0.960098 -0.434152 -0.960265 0 0 0 2.35024e-05 -4.3718e-05 2.58227e-05 -0.00818166 0.000382906 -0.00266859 0.000803441 0.00070395 0.000712472 0.04 
982 1 1 -0.960097 -0.343565 -0.960222 0 0 0 -0.000116646 0.000107833 9.44755e-05 -0.0116136 0.00462905 -0.00535502 -0.00145696 -0.00251677 -2.16172e-05 0.04 
326 1 1 -0.890837 -0.383456 -0.960224 0 0 0 -0.000105259 0.000116759 0.000132705 -0.0177032 -0.0210171 -0.0147369 -0.00136669 -0.00099384 0.00163506 0.04 
1215 1 1 -0.821583 -0.343415 -0.960216 0 0 0 -0.000204685 9.9325e-05 9.09153e-05 -0.0432669 -0.0105046 -0.0192401 -0.00163165 -0.00290297 -0.00266011 0.04 
1246 1 1 -0.749778 -0.388393 -0.960131 0 0 0 2.87376e-05 0.000449642 0.000114902 0.0219115 0.00540248 0.0626503 -0.00630673 0.00247307 -0.00571943 0.04 