ITEM: TIMESTEP
47800
ITEM: NUMBER OF ATOMS
1500
ITEM: BOX BOUNDS ff ff ff
-1 1
-1 1
-1 1
ITEM: ATOMS id type type x y z ix iy iz vx vy vz fx fy fz omegax omegay omegaz radius 
137 1 1 -0.959994 -0.958558 -0.957421 0 0 0 0.11798 -0.325399 -0.404868 -34.6276 -20.7075 -36.6626 1.49466 -1.95316 -1.45391 0.04 
5 1 1 -0.881113 -0.953584 -0.95906 0 0 0 0.0485604 -0.0395633 0.0157832 35.1815 0.991006 -8.56899 0.197925 -0.0801835 0.597177 0.04 
239 1 1 -0.798246 -0.959115 -0.961099 0 0 0 -0.179822 0.0190073 -0.0358801 16.6806 -2.21461 20.6788 -0.773189 1.8895 -1.44422 0.04 
415 1 1 -0.667404 -0.959258 -0.95925 0 0 0 0.0799235 -0.207091 -0.232661 20.9709 0.645368 -19.4803 0.236505 1.34789 -0.88596 0.04 
138 1 1 -0.52365 -0.954318 -0.958133 0 0 0 0.0745175 0.0055475 -0.379391 0 0 -6.57473 7.94144 0.484281 0.193703 0.04 
323 1 1 -0.419559 -0.957836 -0.959599 0 0 0 0.218859 -0.0295888 0.00527806 15.9651 -9.8889 -26.2843 -1.18812 2.12227 -3.97073 0.04 
130 1 1 -0.3382 -0.951057 -0.960155 0 0 0 0.129602 0.0553117 -0.0232103 8.413 -13.6118 0.656618 -1.58984 1.04727 -2.02285 0.04 
502 1 1 -0.25811 -0.959962 -0.959303 0 0 0 -0.0593602 -0.20356 -0.0410775 0 0 -6.57473 -1.35504 2.66015 -0.107482 0.04 
494 1 1 -0.170965 -0.959843 -0.960597 0 0 0 0.129933 -0.0569562 -0.0166009 10.2484 -1.04597 -0.103006 1.01062 2.475 -2.33727 0.04 
448 1 1 -0.0910725 -0.959662 -0.959939 0 0 0 0.262284 -0.127221 -0.0613968 -1.00766 -7.91387 -6.54888 0.324142 0.853366 0.844338 0.04 
147 1 1 -0.0104774 -0.957692 -0.960156 0 0 0 -0.0144978 -0.0177836 -0.0347644 -28.8959 1.8355 3.75825 0.896115 1.34586 1.01117 0.04 
218 1 1 0.0686804 -0.959982 -0.960719 0 0 0 0.0244404 -0.0145164 -0.0563417 37.6095 -14.3544 13.458 -0.499455 0.075377 -1.25602 0.04 
339 1 1 0.218543 -0.960068 -0.960785 0 0 0 -0.0580471 -0.12735 -0.00032789 -8.98112 8.0854 28.8132 0.965081 -1.58288 -0.567249 0.04 
203 1 1 0.428625 -0.960414 -0.96077 0 0 0 0.0702388 0.177616 -0.0338111 -9.18085 16.4322 20.7415 0.125152 -1.42798 -2.60326 0.04 
1019 1 1 0.50941 -0.958664 -0.959496 0 0 0 -0.477404 0.162345 0.0641416 8.80301 -15.3374 -5.73035 -0.0718936 -2.60866 -1.29924 0.04 
821 1 1 0.592329 -0.959688 -0.958893 0 0 0 0.0220834 -0.202121 -0.102202 0 0 -6.57473 -0.797373 -2.47175 1.25606 0.04 
636 1 1 0.671629 -0.94825 -0.960941 0 0 0 -0.466736 0.186984 -0.220583 -29.6274 2.11266 -43.6986 -0.930929 -1.30975 0.632465 0.04 
729 1 1 0.751131 -0.950304 -0.959933 0 0 0 -0.170401 0.188692 0.115065 14.8476 -0.335625 -7.12732 0.00313317 -0.13367 0.0319929 0.04 
503 1 1 0.831398 -0.959934 -0.960406 0 0 0 -0.0146974 0.0395772 0.0441059 -29.7486 1.0242 -12.8683 0.477959 -2.69958 -2.50505 0.04 
850 1 1 0.959943 -0.954087 -0.958321 0 0 0 0.0304336 -0.177612 0.187406 0 0 -6.57473 4.62318 0.68523 0.0910845 0.04 
918 1 1 -0.945909 -0.879018 -0.96034 0 0 0 0.192505 0.0449641 0.162019 12.7826 32.5624 -62.1169 1.05712 2.3805 0.302755 0.04 
246 1 1 -0.851614 -0.879213 -0.960802 0 0 0 0.0414046 -0.0606149 0.0783691 -1.98936 0.898009 37.0783 1.31704 0.570978 -0.778515 0.04 
586 1 1 -0.769734 -0.865239 -0.959637 0 0 0 0.140003 0.0463761 0.151467 0 0 -6.57473 -2.68367 -0.0952613 0.670987 0.04 
105 1 1 -0.603876 -0.910463 -0.960838 0 0 0 0.277171 0.0199749 -0.305352 -14.6763 -10.127 44.4512 -3.80478 -1.81595 1.05057 0.04 
52 1 1 -0.465126 -0.875726 -0.960683 0 0 0 0.374392 0.246101 -0.161222 -1.62818 26.9247 3.86051 -1.09938 -0.464831 1.4095 0.04 
345 1 1 -0.381996 -0.885751 -0.94818 0 0 0 0.0680247 0.0480786 0.340239 -8.85788 13.6428 -4.88676 -2.41257 0.0836261 0.252693 0.04 
209 1 1 -0.295874 -0.880306 -0.959506 0 0 0 0.0710739 -0.0251467 0.0345462 1.92641 -7.1429 -9.46144 -1.94903 0.527126 0.388674 0.04 
647 1 1 -0.215541 -0.891293 -0.959586 0 0 0 -0.137398 -0.00994712 -0.175603 0 0 -6.57473 0.873478 0.0694343 -1.78813 0.04 
700 1 1 -0.137984 -0.870638 -0.957811 0 0 0 -0.00107032 0.058758 -0.0911963 -0.0772853 0.0129699 -6.56936 -1.85154 1.81625 1.47673 0.04 
616 1 1 -0.0596106 -0.886397 -0.960217 0 0 0 0.10182 0.0784968 -0.0208777 3.44572 7.56577 5.61203 0.107495 -0.343388 2.01487 0.04 
655 1 1 0.143851 -0.927543 -0.960333 0 0 0 0.0572979 0.089839 -0.113124 -13.2281 -27.1534 11.9506 0.694914 -0.405194 2.99889 0.04 
19 1 1 0.25867 -0.889951 -0.957589 0 0 0 -0.0797829 -0.15109 -0.184088 0 0 -6.57473 -1.41496 -0.10869 1.31724 0.04 
341 1 1 0.32786 -0.930431 -0.961249 0 0 0 0.016765 0.0277163 0.279847 -33.1229 -18.9111 53.2274 -1.92693 2.41136 -2.45096 0.04 
664 1 1 0.47287 -0.888078 -0.961315 0 0 0 -0.0562424 0.463167 0.0610326 -5.30307 -10.8702 49.1719 -4.72701 -2.75671 -0.18098 0.04 
396 1 1 0.559642 -0.881082 -0.959697 0 0 0 0.189539 0.0730453 -0.136709 0 0 -6.57473 -0.930458 -0.754391 1.29917 0.04 
50 1 1 0.640756 -0.87467 -0.959823 0 0 0 -0.00674111 0.0929451 0.20622 7.71476 -1.59351 -14.4259 -1.09887 -0.667054 -3.19999 0.04 
554 1 1 0.820458 -0.879881 -0.955225 0 0 0 -0.271968 -0.0786512 -0.1021 0 0 -6.57473 0.896938 2.40662 1.34387 0.04 
812 1 1 0.900325 -0.896689 -0.959446 0 0 0 0.0796373 0.0435339 0.196368 0 0 -6.57473 0.152435 1.71268 -2.18209 0.04 
446 1 1 -0.901087 -0.799472 -0.960603 0 0 0 -0.00984093 0.0347983 0.215552 29.4202 -3.38713 -7.22887 -1.29413 -3.17043 -0.286581 0.04 
379 1 1 -0.687287 -0.868689 -0.960339 0 0 0 0.483006 -0.073237 -0.0170594 -0.950418 0.0869261 12.513 0.380823 -3.81345 -0.715748 0.04 
290 1 1 -0.622998 -0.821366 -0.954633 0 0 0 -0.150509 -0.0537 -0.833177 0 0 -6.57473 -0.0320893 1.21834 0.839259 0.04 
380 1 1 -0.544142 -0.857955 -0.958632 0 0 0 0.342164 -0.167002 0.552935 12.2973 10.9985 -6.92924 3.09196 4.15438 -1.44963 0.04 
480 1 1 -0.392313 -0.803839 -0.961116 0 0 0 -0.12996 0.258889 0.0901284 2.46199 -1.80153 54.4398 -4.71067 -0.760842 -0.960119 0.04 
322 1 1 -0.233215 -0.793225 -0.959627 0 0 0 0.304019 0.340335 -0.0499392 -0.382367 -5.4723 -6.46301 -2.62119 0.947355 5.46361 0.04 
385 1 1 -0.0855833 -0.803718 -0.957901 0 0 0 0.234498 0.0173972 0.17497 0 0 -6.57473 -1.13266 1.118 0.552165 0.04 
827 1 1 0.0186001 -0.862292 -0.9604 0 0 0 0.0175801 0.224254 0.0859604 -25.2945 -3.56692 14.9194 -0.133353 0.241257 -0.889713 0.04 
784 1 1 0.0978017 -0.858331 -0.960648 0 0 0 0.0790493 -0.00480161 0.122898 9.54883 3.81757 -17.2775 1.19562 -0.160958 1.27275 0.04 
211 1 1 0.178686 -0.856486 -0.960132 0 0 0 -0.0160242 0.212937 0.0778963 14.0393 27.5409 -1.67344 0.0383284 0.366723 -0.797469 0.04 
725 1 1 0.245081 -0.807807 -0.960331 0 0 0 -0.129609 0.105591 0.110948 0.737363 -0.423722 10.434 -2.15822 -2.39586 -0.253049 0.04 
354 1 1 0.323014 -0.830912 -0.958895 0 0 0 -0.0514057 0.0362587 -0.237016 1.49822 -11.7056 -5.96637 -1.39908 -0.526922 -0.242957 0.04 
159 1 1 0.40365 -0.803481 -0.959276 0 0 0 -0.135666 0.0851129 0.0173209 -23.1892 26.2056 -63.1667 -0.0615762 -1.95364 3.40787 0.04 
688 1 1 0.495979 -0.812484 -0.951658 0 0 0 -0.312873 -0.352026 -0.160779 5.5193 19.13 -5.09563 -4.55568 -1.19491 1.25003 0.04 
866 1 1 0.596124 -0.808795 -0.958475 0 0 0 -0.119321 -0.16704 -0.289137 -8.82804 13.9736 -5.65975 1.41064 3.37302 -2.58439 0.04 
742 1 1 0.722202 -0.865186 -0.959891 0 0 0 0.235524 0.0761715 -0.0401808 -13.1205 19.0547 -43.2665 -2.63543 -0.463208 4.85902 0.04 
972 1 1 0.958551 -0.820065 -0.960198 0 0 0 -0.00569767 -0.0725222 0.0506916 -0.108376 -3.41468 -1.27407 -1.57897 -0.645135 -0.060254 0.04 
488 1 1 -0.958446 -0.74393 -0.960001 0 0 0 -0.0296741 0.262019 -0.193082 -3.24389 2.83071 -3.83614 -0.982382 -0.96534 0.648086 0.04 
894 1 1 -0.820375 -0.798339 -0.960303 0 0 0 -0.0104049 0.0884795 0.0356246 -0.801986 0.170076 9.8217 -2.62032 -2.14616 -1.70871 0.04 
960 1 1 -0.732659 -0.791035 -0.958835 0 0 0 -0.0995371 -0.0341354 0.267278 15.913 -19.965 -15.2358 -3.82301 -2.5882 0.661842 0.04 
1127 1 1 -0.561999 -0.747832 -0.960443 0 0 0 0.361796 0.287462 0.356366 -2.50124 8.36234 2.87755 -4.79927 5.9085 -2.64262 0.04 
241 1 1 -0.490726 -0.785318 -0.961885 0 0 0 -0.181286 -0.475111 -0.0908232 -4.20506 -5.00583 69.6942 0.852301 -0.144051 4.40941 0.04 
511 1 1 -0.336981 -0.733645 -0.962064 0 0 0 0.0767286 -0.0749645 -0.154593 -2.07345 -7.4569 78.3342 -0.528986 1.38666 2.47061 0.04 
376 1 1 -0.158516 -0.761197 -0.958274 0 0 0 0.13106 0.460771 0.0775292 0 0 -6.57473 -0.0424206 -0.971319 -2.52783 0.04 
204 1 1 -0.0271468 -0.744262 -0.959524 0 0 0 -0.172988 0.224691 0.280635 -4.04904 -46.6152 -38.626 -7.00364 -2.94464 1.28542 0.04 
1122 1 1 0.0423046 -0.785297 -0.958574 0 0 0 -0.226249 0.293868 -0.220013 0 0 -6.57473 0.00374151 -3.37882 -3.59689 0.04 
773 1 1 0.134044 -0.785951 -0.959515 0 0 0 -0.137519 0.180649 0.0437867 1.07551 -5.95657 -6.89991 1.81161 -1.11921 3.19547 0.04 
967 1 1 0.310909 -0.752191 -0.959565 0 0 0 -0.3331 0.144888 -0.0895172 -1.49822 11.7056 -7.18308 -1.76488 -0.843829 2.68476 0.04 
451 1 1 0.456435 -0.735623 -0.958719 0 0 0 -0.418183 0.310352 0.0619803 0 0 -6.57473 -1.80855 -1.9352 -2.69699 0.04 
177 1 1 0.541379 -0.744376 -0.957004 0 0 0 -0.112865 -0.148644 -0.12769 0 0 -6.57473 -1.64205 1.58408 -3.47263 0.04 
519 1 1 0.678027 -0.795839 -0.959983 0 0 0 -0.320572 0.0861694 -0.00891051 0 0 -6.57473 2.97798 -0.67051 4.06982 0.04 
439 1 1 0.764448 -0.773085 -0.96003 0 0 0 -0.243537 0.372122 0.00991516 -13.9851 -14.5941 -4.73376 -1.71235 -1.64522 1.13708 0.04 
188 1 1 0.892172 -0.774695 -0.960409 0 0 0 0.279583 0.154099 -0.0156476 3.69078 82.7587 -99.9875 -0.195817 1.71321 -0.325388 0.04 
532 1 1 -0.9027 -0.683942 -0.959997 0 0 0 0.104128 0.285623 0.137835 27.2669 -4.65658 -32.7119 -4.32743 1.5961 -0.949421 0.04 
826 1 1 -0.821251 -0.664763 -0.960509 0 0 0 -0.0450085 0.35658 -0.102022 0.502358 -1.39728 23.1221 -3.94628 0.673974 -0.803168 0.04 
567 1 1 -0.739336 -0.664072 -0.953627 0 0 0 -0.000981213 0.255324 0.0954974 0 0 -6.57473 2.89687 -1.09224 0.649766 0.04 
314 1 1 -0.680853 -0.723212 -0.958108 0 0 0 -0.1461 0.161904 -0.0507359 0 0 -6.57473 -0.407147 -1.01342 3.66933 0.04 
170 1 1 -0.591013 -0.671508 -0.962496 0 0 0 -0.050548 -0.121908 0.0592576 -0.0552611 6.91492 131.728 2.17127 -1.30811 -1.93531 0.04 
375 1 1 -0.482047 -0.688653 -0.961078 0 0 0 0.141343 -0.00556128 0.290432 -24.3995 19.2828 38.6732 -3.70535 1.58175 -1.47939 0.04 
709 1 1 -0.396663 -0.660885 -0.958146 0 0 0 0.163329 0.250392 0.218235 34.3748 -29.8717 -58.3789 -6.55976 0.851292 -1.45058 0.04 
873 1 1 -0.228241 -0.713467 -0.957306 0 0 0 -0.0438809 -0.110457 -0.0138345 0.382367 5.4723 -6.68644 -3.378 1.35146 1.46141 0.04 
738 1 1 -0.101214 -0.704592 -0.959675 0 0 0 -0.0439854 0.198862 0.343047 0 0 -6.57473 -5.56592 -0.847826 -2.14809 0.04 
581 1 1 0.0408621 -0.701125 -0.959019 0 0 0 0.048543 0.0604994 -0.126537 13.571 -5.24952 -13.0164 0.91704 -1.43326 -0.494095 0.04 
1088 1 1 0.121423 -0.707023 -0.958882 0 0 0 -0.0317421 -0.288339 -0.114059 -1.07551 5.95657 -6.24954 5.32798 -4.9997 0.341193 0.04 
862 1 1 0.235306 -0.720848 -0.960503 0 0 0 0.273663 0.0187039 0.0574605 -1.35108 0.194274 20.7249 -1.2337 1.57837 -10.8256 0.04 
656 1 1 0.378705 -0.708498 -0.958864 0 0 0 -0.036176 0.162138 0.112289 0 0 -6.57473 -0.403935 -3.96121 2.30796 0.04 
880 1 1 0.651615 -0.701021 -0.960149 0 0 0 -0.118992 0.0492441 0.126043 -0.311988 -0.117198 0.0907629 -1.37812 -3.21296 0.116363 0.04 
543 1 1 0.741649 -0.675976 -0.960051 0 0 0 -0.110258 0.436592 0.0394279 3.50181 -4.00526 -4.23697 -4.6237 -0.417646 -3.28454 0.04 
662 1 1 0.816952 -0.713462 -0.959572 0 0 0 -0.302742 0.455194 -0.206135 14.0242 14.5269 -6.86116 -4.50452 3.55976 0.145424 0.04 
553 1 1 0.889261 -0.677132 -0.960418 0 0 0 -0.338836 0.0190388 -0.161738 2.21751 0.593256 18.885 -0.00209601 0.799844 -1.82127 0.04 
987 1 1 0.956757 -0.721979 -0.959573 0 0 0 -0.135697 0.139609 -0.00321441 0 0 -6.57473 -1.86002 -0.713545 1.30668 0.04 
260 1 1 -0.960676 -0.629008 -0.960158 0 0 0 0.262275 0.0951404 -0.423115 29.8305 5.59121 7.76221 -1.53066 7.75331 1.39317 0.04 
990 1 1 -0.879878 -0.602789 -0.960155 0 0 0 -0.116412 -0.0342769 0.0951577 -0.219144 0.298977 0.839073 -0.60484 -3.98904 -0.303977 0.04 
925 1 1 -0.664464 -0.634727 -0.956947 0 0 0 0.0895521 0.389875 -0.0840048 0 0 -6.57473 -3.72942 0.398161 0.118669 0.04 
631 1 1 -0.308235 -0.651658 -0.957803 0 0 0 -0.291912 0.0705731 -0.223225 -2.19253 -1.8662 -6.61376 -6.59262 -0.986811 4.46798 0.04 
883 1 1 -0.245164 -0.602783 -0.955146 0 0 0 -0.0323907 0.437005 -0.425965 9.13584 -19.644 -3.75132 -3.04227 2.80364 3.05391 0.04 
962 1 1 -0.164451 -0.617912 -0.960723 0 0 0 -0.146772 -0.0636718 -0.0951898 -50.77 20.2769 10.98 -3.56363 -0.363755 2.16339 0.04 
950 1 1 -0.0858722 -0.623112 -0.95679 0 0 0 -0.0882308 -0.101842 -0.230687 32.2093 -7.41497 -26.4632 -4.87042 0.275791 -3.20269 0.04 
388 1 1 0.0754821 -0.628813 -0.959666 0 0 0 -0.0760888 0.14908 -0.288447 0 0 -6.57473 -2.27295 0.586544 -1.36473 0.04 
61 1 1 0.160724 -0.632233 -0.955301 0 0 0 0.0201608 0.209904 0.211919 -19.0648 -22.2664 -5.72953 1.47 1.23818 2.38339 0.04 
1052 1 1 0.293603 -0.658328 -0.959842 0 0 0 0.194543 0.146727 0.0276762 0 0 -6.57473 -2.4496 4.59524 4.77905 0.04 
1082 1 1 0.43136 -0.649998 -0.938741 0 0 0 -0.214275 0.160875 0.153855 0 0 -6.57473 7.19371 -3.68417 -6.69655 0.04 
255 1 1 0.508744 -0.65599 -0.959846 0 0 0 -0.166895 -0.00372598 -0.0899386 -7.74321 0.0825701 -7.7568 0.551214 -4.41568 -1.72318 0.04 
1026 1 1 0.587866 -0.653533 -0.950028 0 0 0 -0.0999702 -0.0753559 0.210428 7.74321 -0.0825701 -5.39265 2.66739 -5.29637 -3.5087 0.04 
1111 1 1 0.686025 -0.618722 -0.962131 0 0 0 -0.281235 0.295536 -0.386236 1.60716 29.3006 52.3305 -0.155391 -1.67679 -2.87736 0.04 
58 1 1 0.816666 -0.631949 -0.959339 0 0 0 0.0768528 0.100329 -0.196731 -10.0768 -7.04314 -5.63325 -3.20915 -3.06078 1.57926 0.04 
252 1 1 0.95416 -0.630363 -0.960329 0 0 0 -0.0794054 -0.0364905 0.0624803 -0.0877397 -0.814853 10.8775 1.25067 -0.180007 -0.989818 0.04 
670 1 1 -0.956543 -0.545515 -0.960364 0 0 0 0.209842 0.0661002 0.0781269 -0.911502 0.311417 12.6899 -3.51313 -0.153064 2.14373 0.04 
565 1 1 -0.819694 -0.537367 -0.958099 0 0 0 0.10112 0.130417 0.183585 -0.738678 -6.94497 -37.159 -4.50706 0.0879249 1.12354 0.04 
1152 1 1 -0.748706 -0.57547 -0.947543 0 0 0 -0.093655 0.487099 0.0877986 -0.760052 8.81917 -18.6054 -4.78923 -0.329011 -1.43345 0.04 
435 1 1 -0.637591 -0.539014 -0.956384 0 0 0 -0.0827581 0.200966 -0.0748741 32.7547 -43.2789 -4.12212 -3.50747 -0.94374 0.746681 0.04 
893 1 1 -0.5753 -0.589481 -0.959612 0 0 0 -0.00332235 0.0270302 -0.0865306 0 0 -6.57473 0.798919 -0.285275 1.82343 0.04 
816 1 1 -0.495591 -0.561603 -0.960439 0 0 0 -0.019252 0.408221 0.0768776 0.0391725 -1.17232 16.8847 -3.46096 -0.256717 1.18788 0.04 
382 1 1 -0.26828 -0.527049 -0.961112 0 0 0 0.0814056 0.380668 0.147406 -6.02878 18.6501 50.6955 -7.17287 2.86059 1.42675 0.04 
305 1 1 -0.175467 -0.538352 -0.961134 0 0 0 0.0652195 0.395722 -0.14211 -0.731116 -3.16725 58.4361 -4.49116 0.37468 -1.72668 0.04 
1066 1 1 -0.080308 -0.541574 -0.96019 0 0 0 0.392562 0.162828 -0.0808079 -0.542515 0.209022 5.05305 -6.41108 3.78733 -1.22535 0.04 
716 1 1 -0.00320415 -0.596965 -0.958807 0 0 0 -0.256968 -0.312541 0.112585 -4.06471 -2.69721 -16.7054 -1.86294 1.58101 -0.22817 0.04 
867 1 1 0.209837 -0.570288 -0.960178 0 0 0 -0.218898 0.387135 -0.0292041 19.3538 21.8396 2.88755 -4.69886 -2.17256 0.449325 0.04 
576 1 1 0.365906 -0.596517 -0.959201 0 0 0 -0.142344 0.0481953 -0.217059 0 0 -6.57473 0.176875 0.214133 -2.1254 0.04 
408 1 1 0.437715 -0.55889 -0.960975 0 0 0 -0.29722 -0.241278 -0.15838 -16.9077 0.812931 29.8507 -2.79851 -4.52364 1.48713 0.04 
814 1 1 0.552301 -0.575494 -0.959503 0 0 0 -0.231009 0.176494 0.0973682 -0.184674 0.45007 -32.922 -2.54913 -3.41911 1.00857 0.04 
908 1 1 0.722712 -0.546928 -0.959916 0 0 0 -0.368929 0.321127 0.0488843 0 0 -6.57473 -2.5883 -2.79502 -3.20943 0.04 
1107 1 1 0.881958 -0.586382 -0.961448 0 0 0 0.0709765 0.27893 0.391068 7.50845 4.26844 68.1026 -6.07299 0.289801 2.68357 0.04 
771 1 1 0.957942 -0.550397 -0.96049 0 0 0 0.0151258 -0.0257255 0.0590691 1.02261 0.847574 19.9892 0.638706 0.39863 0.416715 0.04 
739 1 1 -0.889269 -0.497237 -0.959732 0 0 0 0.2232 0.179908 -0.00444117 16.7765 -12.9398 -10.8832 -3.13642 -0.171571 0.926058 0.04 
833 1 1 -0.684348 -0.475829 -0.956099 0 0 0 0.236087 -0.0568078 0.172916 -28.6905 36.9555 -8.69061 -5.42762 3.07165 -0.629033 0.04 
620 1 1 -0.546921 -0.497174 -0.962241 0 0 0 -0.127508 0.502633 -0.0714485 53.1975 -47.8355 114.571 -1.2129 -1.61846 -2.32013 0.04 
344 1 1 -0.406046 -0.519085 -0.957869 0 0 0 0.154864 0.556121 -0.145736 0 0 -6.57473 -2.56608 -6.40605 1.5394 0.04 
247 1 1 -0.335986 -0.477746 -0.960258 0 0 0 -0.18754 0.115292 0.02957 4.12962 -1.42114 3.06605 -3.88162 0.507073 4.39279 0.04 
143 1 1 0.0859722 -0.52533 -0.955238 0 0 0 0.0366059 0.345875 -0.185793 0 0 -6.57473 -2.88799 2.36487 3.08438 0.04 
1346 1 1 0.170822 -0.495129 -0.957422 0 0 0 -0.450378 0.0559738 0.08032 0 0 -6.57473 -8.27631 0.485946 2.49159 0.04 
1000 1 1 0.310152 -0.519728 -0.960167 0 0 0 -0.321654 0.318209 -0.161858 -3.77533 -27.6878 4.64921 -3.85953 -2.55864 2.35554 0.04 
792 1 1 0.397829 -0.484597 -0.959649 0 0 0 -0.367979 -0.0110589 -0.193749 0 0 -6.57473 -0.552387 -1.14868 0.792607 0.04 
1361 1 1 0.492552 -0.501482 -0.957118 0 0 0 -0.146848 0.284186 -0.174806 10.9593 10.7581 -5.23776 0.29092 -3.08441 1.10121 0.04 
9 1 1 0.885046 -0.49197 -0.957579 0 0 0 -0.171183 0.295883 0.0955509 0 0 -6.57473 2.55767 1.48005 -3.04601 0.04 
1055 1 1 -0.960025 -0.46122 -0.960371 0 0 0 -0.0386547 0.0703866 -0.100994 -16.0206 11.4038 15.1287 -2.38506 -0.569296 1.64085 0.04 
326 1 1 -0.894208 -0.414363 -0.957839 0 0 0 0.00325561 0.398254 -0.165947 4.51509 3.53203 -24.2987 -3.69998 -1.64834 -1.63584 0.04 
1142 1 1 -0.820822 -0.450457 -0.95979 0 0 0 0.0740104 0.0764611 0.0737494 0 0 -6.57473 -2.52429 0.0868345 1.39269 0.04 
1246 1 1 -0.730654 -0.411057 -0.960279 0 0 0 -0.0628638 0.0974125 -0.0664166 -3.27382 6.54204 9.48938 -2.19116 -1.04906 0.155748 0.04 
613 1 1 -0.608435 -0.448828 -0.960605 0 0 0 0.0921161 0.220653 -0.392802 -52.7208 39.8119 36.9035 1.64309 0.0976785 3.629 0.04 
857 1 1 -0.508327 -0.42554 -0.960497 0 0 0 0.182784 0.235819 0.0290814 -1.30197 -0.416125 20.7624 -5.03411 1.78696 -6.16094 0.04 
92 1 1 -0.421882 -0.429581 -0.958302 0 0 0 0.221394 0.0939678 -0.126423 -24.3857 0.810106 -80.3211 -3.0574 0.517873 -1.99238 0.04 
1124 1 1 -0.23601 -0.451811 -0.958884 0 0 0 -0.00186311 0.173164 -0.058471 0 0 -6.57473 -3.8621 -0.408778 1.14108 0.04 
868 1 1 -0.14951 -0.449438 -0.958659 0 0 0 0.060779 0.349906 -0.114609 -0.791162 -1.37263 -6.43366 -6.8634 1.57719 0.160511 0.04 
1271 1 1 -0.0645712 -0.452741 -0.961319 0 0 0 -0.551427 -0.178428 -0.188809 0.0412639 -1.90934 67.7724 -5.28221 -2.39441 -2.19732 0.04 
1249 1 1 0.0301296 -0.464842 -0.960032 0 0 0 0.00933235 -0.175395 0.0226738 0.00488695 0.072905 -5.11335 -4.32829 0.817575 -4.60064 0.04 
1030 1 1 0.110056 -0.43722 -0.956984 0 0 0 0.0251601 0.289468 -0.0302254 -1.21736 -20.0543 -4.72099 -8.15316 1.32212 -2.1294 0.04 
315 1 1 0.17873 -0.397012 -0.956787 0 0 0 0.131841 0.112693 -0.107656 13.2018 8.08712 -7.24623 -5.7508 -1.72216 -1.1113 0.04 
1148 1 1 0.241758 -0.453274 -0.953607 0 0 0 -0.410142 0.251703 -0.155002 -4.36447 -14.1561 -4.93598 -2.13537 -6.35308 -2.58948 0.04 
772 1 1 0.325583 -0.441979 -0.957639 0 0 0 0.139015 -0.0676188 0.121709 4.22851 27.3438 -6.41974 -0.511804 -0.0125929 2.37173 0.04 
677 1 1 0.455255 -0.419606 -0.953994 0 0 0 0.00254919 -0.0406883 0.273179 -6.42478 0.611909 -6.50095 -0.0177047 5.35307 3.4152 0.04 
981 1 1 0.534603 -0.425917 -0.958688 0 0 0 0.41756 0.111872 -0.271175 -25.1333 10.8351 -4.69889 3.24683 1.29977 -0.979086 0.04 
1047 1 1 0.607673 -0.456145 -0.961439 0 0 0 0.20878 0.0828975 -0.308777 56.4943 -2.23714 40.1841 -0.73746 0.71593 -0.441614 0.04 
1474 1 1 0.684631 -0.422821 -0.960605 0 0 0 0.0387516 0.285384 -0.12804 -1.60272 -0.751061 28.8248 -4.91443 -3.87419 1.70655 0.04 
398 1 1 0.881704 -0.389848 -0.958029 0 0 0 -0.203043 0.348707 -0.0810118 0 0 -6.57473 -4.96284 1.80041 3.78222 0.04 
852 1 1 0.959755 -0.452971 -0.95695 0 0 0 0.342165 0.572614 -0.132748 0 0 -6.57473 2.18363 -3.40982 3.94303 0.04 
982 1 1 -0.960578 -0.370354 -0.960563 0 0 0 0.0326085 0.164578 0.0638394 20.8936 6.53183 21.7822 -1.53855 -0.0680993 3.42601 0.04 
995 1 1 -0.884089 -0.333593 -0.957527 0 0 0 -0.0483022 0.275086 0.229563 0 0 -6.57473 -9.80548 -1.29869 2.45498 0.04 
1215 1 1 -0.800638 -0.369071 -0.960203 0 0 0 -0.120443 0.303861 -0.431863 0.512746 -2.2326 7.89058 -3.93578 0.14264 0.557012 0.04 
76 1 1 -0.731756 -0.325546 -0.959661 0 0 0 0.267899 0.340316 0.212763 0 0 -6.57473 -2.57144 -0.757118 -1.16 0.04 
969 1 1 -0.662375 -0.369184 -0.960809 0 0 0 0.0856995 0.218287 -0.0219906 -13.8386 4.91819 21.4824 -5.43054 -1.45656 -0.55345 0.04 
230 1 1 -0.574721 -0.372068 -0.958976 0 0 0 0.0620205 0.275359 -0.0843621 -6.03583 -6.94978 -5.96678 -4.61966 -3.04377 2.41007 0.04 
116 1 1 -0.445045 -0.350312 -0.959973 0 0 0 -0.0412158 0.312739 -0.00902741 0 0 -6.57473 -2.08944 2.69377 5.30249 0.04 
978 1 1 -0.365574 -0.373247 -0.960117 0 0 0 -0.241013 0.22531 -0.0870918 10.5631 9.11236 0.495346 -0.941704 -0.407024 3.28397 0.04 
1155 1 1 -0.284992 -0.378819 -0.96027 0 0 0 -0.174159 0.260425 -0.00332237 8.27153 0.316921 -5.53417 -2.22631 3.46608 6.71246 0.04 
1214 1 1 -0.187543 -0.372897 -0.949901 0 0 0 -0.226095 0.617803 -0.52313 0 0 -6.57473 1.9899 -8.33463 -4.83113 0.04 
1010 1 1 -0.108787 -0.380767 -0.961886 0 0 0 0.354214 0.496144 0.0500226 8.15584 7.10116 58.2057 -4.90911 2.52811 -0.284824 0.04 
144 1 1 0.0537343 -0.381152 -0.958554 0 0 0 -0.279437 0.350339 0.280778 17.4582 2.5275 -83.0769 -5.43232 0.262033 5.79227 0.04 
404 1 1 0.129664 -0.33301 -0.961181 0 0 0 -0.0703087 0.311823 0.187394 -1.01272 -3.0022 56.7933 -4.1741 -3.04824 1.75184 0.04 
1187 1 1 0.268212 -0.378505 -0.960074 0 0 0 0.0220595 0.214524 -0.0718619 4.33091 13.9054 -3.15371 -2.15709 0.115988 -1.37702 0.04 
220 1 1 0.362398 -0.358297 -0.961227 0 0 0 -0.486575 -0.215085 0.275283 2.43274 2.14152 58.2461 -6.56285 1.30326 -3.72739 0.04 
309 1 1 0.495217 -0.349163 -0.9549 0 0 0 0.235799 0.158401 -0.813015 0 0 -6.57473 -1.72844 -1.71793 1.24627 0.04 
361 1 1 0.616067 -0.356405 -0.959863 0 0 0 0.121882 0.247004 -0.0448431 0 0 -6.57473 -4.80343 1.13625 -0.0382586 0.04 
764 1 1 0.698856 -0.343603 -0.952921 0 0 0 -0.139334 0.363109 -0.0486024 41.7599 -61.6545 -9.5544 0.376631 -0.178875 1.93964 0.04 
499 1 1 0.769479 -0.393123 -0.949897 0 0 0 -0.0681893 0.368482 -0.498243 0 0 -6.57473 -9.8439 -0.24871 -3.81495 0.04 
975 1 1 0.945316 -0.333044 -0.959539 0 0 0 -0.0566806 0.0164115 0.377151 0 0 -6.57473 -1.83835 -1.11794 3.02928 0.04 
657 1 1 -0.95942 -0.290414 -0.957951 0 0 0 0.0398491 0.451747 -0.0290364 -2.25028 0.53903 -16.1685 -4.72645 -2.2901 1.81406 0.04 
1279 1 1 -0.801267 -0.275502 -0.961888 0 0 0 -0.00256488 0.376974 0.08399 1.97633 -4.81664 97.5519 -2.42405 2.90066 1.35529 0.04 
905 1 1 -0.654985 -0.270671 -0.962144 0 0 0 -0.200859 0.136322 -0.177425 5.92835 1.39387 115.225 -4.1378 -2.39935 -0.393765 0.04 
1037 1 1 -0.521418 -0.312782 -0.960493 0 0 0 0.207675 0.224345 0.204036 11.8264 -1.31764 17.908 -5.88988 1.93565 -0.590272 0.04 
945 1 1 -0.455414 -0.259154 -0.962745 0 0 0 -0.299913 0.300671 0.210875 -20.2053 -11.1931 141.573 -8.24487 -1.39363 -2.08427 0.04 
1205 1 1 -0.381533 -0.28783 -0.960885 0 0 0 -0.0940002 0.0354338 0.0863019 -28.476 -16.0279 25.1606 -1.42427 -1.18498 0.510643 0.04 
168 1 1 -0.232428 -0.301105 -0.95943 0 0 0 0.340837 0.319405 0.130021 9.79697 -0.555159 -9.93544 -7.99449 -4.56482 -2.26245 0.04 
1451 1 1 -0.152369 -0.294004 -0.958848 0 0 0 -0.191662 -0.344053 0.1889 -9.50188 -6.90241 -6.95957 -3.48762 -0.164126 2.503 0.04 
201 1 1 -0.0554173 -0.318395 -0.961442 0 0 0 0.0850552 0.158201 -0.00925367 23.9128 -66.2443 70.365 -2.74514 1.11723 -1.96821 0.04 
1301 1 1 0.0810596 -0.267815 -0.959341 0 0 0 0.0729136 0.464427 -0.138125 0 0 -6.57473 -1.90495 -2.28305 -3.33336 0.04 
1216 1 1 0.210364 -0.319095 -0.959807 0 0 0 0.33446 -0.0993179 -0.361077 -26.5739 -62.269 -76.7491 -4.42264 -0.894255 0.18031 0.04 
780 1 1 0.286346 -0.292002 -0.960951 0 0 0 -0.241538 0.0370822 0.104171 -1.73307 1.91266 45.0461 -1.63293 -6.17213 -1.19359 0.04 
624 1 1 0.420619 -0.290387 -0.95735 0 0 0 -0.124901 -0.0789314 -0.0764255 -15.0241 -12.4137 -8.59722 2.91054 3.14603 -2.72626 0.04 
1074 1 1 0.554621 -0.280562 -0.955784 0 0 0 0.0859933 0.203821 0.102003 0 0 -6.57473 -2.3493 -0.176243 5.8919 0.04 
342 1 1 0.649191 -0.283812 -0.945833 0 0 0 -0.155948 -0.0261585 0.341152 -47.5853 56.1431 -3.48388 -2.02029 7.96413 6.84463 0.04 
1163 1 1 0.759509 -0.291644 -0.953412 0 0 0 -0.233589 -0.167964 0.0333326 5.82545 5.51136 -6.68589 -5.97001 -4.21553 4.02482 0.04 
182 1 1 0.848909 -0.302498 -0.960017 0 0 0 0.0211138 0.0688522 -0.452343 -0.311751 0.133167 0.205304 -4.27525 -5.45011 0.601217 0.04 
1239 1 1 -0.956492 -0.210189 -0.959961 0 0 0 -0.29615 0.510103 -0.0419913 0 0 -6.57473 -4.70264 1.37938 0.544423 0.04 
1056 1 1 -0.887712 -0.252835 -0.959297 0 0 0 0.123992 0.302691 -0.15117 -1.50116 -24.5823 -8.34093 3.84856 2.74342 2.08198 0.04 
690 1 1 -0.799191 -0.190369 -0.960505 0 0 0 -0.0378907 0.592121 0.0164014 0.410716 -1.33583 21.3761 -2.53043 2.84904 2.61907 0.04 
471 1 1 -0.726226 -0.231163 -0.962058 0 0 0 -0.172181 -0.195094 -0.466474 5.22774 3.01878 114.16 1.14162 2.26514 -1.1532 0.04 
1286 1 1 -0.575187 -0.254002 -0.960063 0 0 0 -0.0816533 0.220321 0.266519 -7.02738 8.3569 -6.74811 -1.89274 1.03787 -2.06205 0.04 
383 1 1 -0.513561 -0.199235 -0.96013 0 0 0 -0.0176989 0.717034 -0.398476 1.41068 -1.97573 5.81139 -1.9816 1.38265 2.8373 0.04 
1063 1 1 -0.35383 -0.213521 -0.955415 0 0 0 0.0198371 0.21033 0.265713 -33.7996 25.1038 -6.15082 -3.02182 2.06375 2.94988 0.04 
1202 1 1 -0.276857 -0.230327 -0.95928 0 0 0 0.163733 0.474697 -0.220656 39.3734 -8.99579 -6.57446 -3.71173 -2.43771 2.01696 0.04 
128 1 1 -0.184854 -0.218506 -0.959852 0 0 0 -0.227659 0.277679 -0.00195536 0 0 -6.57473 -4.23685 -2.40778 -5.05407 0.04 
1348 1 1 -0.0876396 -0.247586 -0.960188 0 0 0 -0.185166 -0.21456 0.021255 -45.9197 82.1878 2.18293 -1.71844 -1.3503 -0.132369 0.04 
1378 1 1 -0.00875975 -0.240098 -0.959034 0 0 0 0.166235 0.238539 -0.610863 18.676 -41.1921 -17.0196 -1.13063 3.28535 3.09523 0.04 
807 1 1 0.0687863 -0.18547 -0.960017 0 0 0 0.25416 0.744388 0.00996109 -2.0677 -5.47193 -11.8216 -3.11848 2.45918 0.664869 0.04 
1201 1 1 0.159143 -0.245259 -0.959654 0 0 0 0.127175 0.146586 0.0540369 0 0 -6.57473 -1.61021 -2.44949 1.46185 0.04 
1139 1 1 0.259999 -0.206544 -0.95775 0 0 0 0.116663 0.18225 -0.0878093 3.0999 -1.79938 -11.0175 -4.53724 0.24778 0.150859 0.04 
1069 1 1 0.341236 -0.242899 -0.929678 0 0 0 -0.189724 0.357806 0.589252 0 0 -6.57473 7.0708 2.2767 5.12503 0.04 
1078 1 1 0.482377 -0.240592 -0.952991 0 0 0 0.0939645 -0.204243 -0.280142 15.0241 12.4137 -4.55223 4.40872 -3.70775 -0.374812 0.04 
806 1 1 0.598661 -0.209649 -0.959486 0 0 0 -0.165699 0.15795 0.608003 0 0 -6.57473 0.374951 -0.967255 1.39846 0.04 
974 1 1 0.693051 -0.213558 -0.955715 0 0 0 -0.0883222 0.249858 0.507191 -50.2075 -1.43253 -13.4983 2.73524 2.28988 0.830319 0.04 
1336 1 1 0.771473 -0.212128 -0.948788 0 0 0 -0.571922 -0.030547 -0.546924 50.2075 1.43253 0.348823 -4.92045 5.98225 -4.31671 0.04 
915 1 1 0.919076 -0.242178 -0.954403 0 0 0 -0.482017 -0.126128 0.745525 -28.8442 35.9795 -57.1928 -4.47847 -0.133468 -3.20874 0.04 
1324 1 1 -0.955242 -0.127576 -0.960036 0 0 0 0.305343 0.239503 0.0139995 -0.0834612 -0.0389038 -4.73307 -2.93668 1.08603 2.6866 0.04 
328 1 1 -0.884342 -0.173531 -0.957298 0 0 0 -0.102109 -0.0311549 -0.47151 -17.5236 49.2978 -47.7896 -1.19156 0.659618 -0.791343 0.04 
1251 1 1 -0.71794 -0.1478 -0.961039 0 0 0 0.292708 0.427339 0.264329 -3.4159 0.76935 42.6182 -3.08476 1.22507 3.633 0.04 
283 1 1 -0.641978 -0.1872 -0.960281 0 0 0 0.00521457 0.403774 0.159559 0.117379 -0.670232 7.03393 -6.93783 0.690261 0.159174 0.04 
1436 1 1 -0.572061 -0.14486 -0.957251 0 0 0 -0.305487 0.611199 -0.354521 17.3515 -16.2843 -7.34958 -3.07009 -1.07837 -3.38376 0.04 
1203 1 1 -0.49657 -0.122441 -0.941397 0 0 0 -0.236213 0.328152 0.0141295 11.906 -35.8904 2.41029 -0.961852 -0.675469 -4.1697 0.04 
1328 1 1 -0.434742 -0.182493 -0.958856 0 0 0 0.145528 -0.125831 0.016838 4.64071 20.3425 -6.20269 -4.12747 -3.7643 -3.5744 0.04 
1250 1 1 -0.302846 -0.147508 -0.960522 0 0 0 0.0146421 0.082248 0.193689 0.376548 1.27546 20.023 -2.00231 0.347543 -2.90359 0.04 
902 1 1 -0.0999496 -0.16621 -0.95924 0 0 0 0.182161 0.374307 0.582347 3.2126 -13.7108 -7.39018 -2.83614 1.77291 -1.01199 0.04 
1276 1 1 -0.0196559 -0.161987 -0.958224 0 0 0 0.0536804 0.424144 -0.194766 -5.72042 39.5932 -8.15408 -1.18917 -1.46797 0.265942 0.04 
752 1 1 0.163844 -0.162605 -0.955398 0 0 0 0.187965 0.182091 -0.238433 -0.826256 1.87656 -6.35518 -0.0977845 0.827774 1.82106 0.04 
1426 1 1 0.337558 -0.158326 -0.960476 0 0 0 0.356472 -0.0238369 -0.274418 -1.22403 -0.874907 23.5166 3.84917 4.41491 3.59888 0.04 
1475 1 1 0.408905 -0.195128 -0.960064 0 0 0 0.300681 0.109782 0.394449 -0.050383 0.0576372 -8.1058 -8.79742 2.23401 -4.71483 0.04 
13 1 1 0.530943 -0.155163 -0.960692 0 0 0 -0.381537 0.480988 -0.190026 1.60846 -1.27226 34.4414 -6.76924 -2.84624 4.79239 0.04 
885 1 1 0.648395 -0.140458 -0.960029 0 0 0 0.0573297 0.1744 -0.0683057 -17.5147 -42.7578 -4.62273 -6.63002 -5.48899 -0.0123282 0.04 
627 1 1 0.734248 -0.140745 -0.95992 0 0 0 -0.387276 0.553891 0.228686 0 0 -6.57473 -3.2854 0.370128 0.156332 0.04 
1206 1 1 0.858195 -0.183933 -0.960322 0 0 0 -0.167284 -0.0598512 0.120142 9.48957 22.9607 -12.5475 0.896292 -3.23583 -0.544094 0.04 
1130 1 1 0.959734 -0.154422 -0.9616 0 0 0 -0.091617 0.276403 0.126226 8.52213 -3.31108 77.8289 -7.00506 -2.20742 -4.09425 0.04 
1238 1 1 -0.883521 -0.0874088 -0.957099 0 0 0 0.44461 0.164812 0.235751 0 0 -6.57473 -4.13186 7.43061 -6.04377 0.04 
1484 1 1 -0.788097 -0.10402 -0.955089 0 0 0 -0.356022 0.31769 -0.0915611 0 0 -6.57473 -5.75659 4.43569 -4.55626 0.04 
948 1 1 -0.631697 -0.0924672 -0.957562 0 0 0 -0.180317 0.141991 -0.668395 -18.6917 17.6436 -5.7776 4.60814 -1.89125 3.30858 0.04 
95 1 1 -0.550572 -0.066231 -0.955589 0 0 0 0.0715849 0.507433 -0.158 -37.2976 -2.50825 -32.507 -6.21121 0.40783 -1.96523 0.04 