ITEM: TIMESTEP
63400
ITEM: NUMBER OF ATOMS
1500
ITEM: BOX BOUNDS ff ff ff
-1 1
-1 1
-1 1
ITEM: ATOMS id type type x y z ix iy iz vx vy vz fx fy fz omegax omegay omegaz radius 
137 1 1 -0.960209 -0.95926 -0.960254 0 0 0 -0.00177591 -0.0325035 0.0159935 9.81441 1.1282 5.15162 0.661925 -0.0841902 0.833691 0.04 
5 1 1 -0.836174 -0.959462 -0.960086 0 0 0 0.0451512 -0.0894023 0.0129866 10.8873 -10.4476 -13.9975 -0.276338 -0.378013 0.372077 0.04 
239 1 1 -0.75558 -0.960053 -0.960117 0 0 0 -0.0214405 -0.0529597 -0.0527192 -5.76316 -5.91909 -0.699246 0.0106759 0.352702 -0.131684 0.04 
34 1 1 -0.675454 -0.960004 -0.960149 0 0 0 -0.00848657 0.00149405 0.00438029 -11.1667 -3.70167 1.42986 0.0321788 0.671768 0.161585 0.04 
415 1 1 -0.595713 -0.960092 -0.96067 0 0 0 -3.2446e-07 0.0110097 -0.0389918 1.7289 2.17974 14.9363 0.364293 0.358935 -0.580417 0.04 
138 1 1 -0.515604 -0.960201 -0.960189 0 0 0 0.0247386 0.00280003 0.0100421 -3.88463 0.177065 1.81671 0.013413 0.513837 0.200803 0.04 
323 1 1 -0.435783 -0.959965 -0.960308 0 0 0 0.0240288 -0.00743381 0.0166296 0.684057 0.0267014 6.877 0.231432 0.442434 0.0367376 0.04 
130 1 1 -0.355977 -0.958848 -0.960316 0 0 0 0.0247744 0.0059406 -0.01175 1.81401 -0.0346893 5.15475 -0.152962 0.357282 0.251134 0.04 
502 1 1 -0.276183 -0.960074 -0.960216 0 0 0 0.0347169 -0.00858939 0.00222852 2.10047 -1.57993 -4.29821 -0.021118 0.257238 -0.186546 0.04 
494 1 1 -0.18145 -0.960369 -0.960226 0 0 0 -0.00776576 -0.0110191 -0.00942977 -2.93287 0.192232 -0.0677293 -0.116248 0.0215524 0.0245659 0.04 
448 1 1 -0.101634 -0.959984 -0.960302 0 0 0 -0.00599774 -0.00631422 0.00446667 -1.40258 -0.134831 2.51797 0.193546 -0.030277 -0.0800695 0.04 
147 1 1 -0.0218726 -0.960053 -0.960233 0 0 0 -0.033387 0.00545625 -0.0294617 -2.22477 1.51823 -4.08885 0.090293 -0.0687128 0.253723 0.04 
218 1 1 0.0579668 -0.959819 -0.960335 0 0 0 -0.0241287 0.00080261 0.0201912 -2.31806 -5.43436 0.732618 -0.451338 -0.458368 0.222125 0.04 
339 1 1 0.166117 -0.96023 -0.960189 0 0 0 -0.0611508 -4.53372e-05 0.00917187 2.67121 7.18769 -1.77659 0.0667278 -0.385958 0.726318 0.04 
341 1 1 0.312797 -0.960059 -0.960261 0 0 0 0.0190063 0.0222431 -0.0226669 -3.6763 -0.879198 3.20156 0.0600141 -0.423487 0.131738 0.04 
203 1 1 0.392576 -0.960149 -0.960191 0 0 0 0.0161472 0.00481497 0.0026444 2.32245 0.635914 1.33616 -0.101298 -0.00850468 -0.314058 0.04 
1019 1 1 0.472561 -0.95991 -0.960231 0 0 0 0.019743 -0.00921456 0.000712663 2.84393 -3.17871 0.976104 -0.0102868 0.062462 0.00639138 0.04 
821 1 1 0.552495 -0.96023 -0.96022 0 0 0 0.00847098 0.0110468 -0.00777809 0.912721 1.12966 -1.32189 0.013046 0.168899 0.0065425 0.04 
636 1 1 0.635863 -0.960293 -0.960177 0 0 0 -0.0163606 0.00244129 0.026195 -3.91433 1.46233 -2.56013 0.317617 0.104407 -0.202571 0.04 
729 1 1 0.718626 -0.959465 -0.96016 0 0 0 0.00730093 -0.0113507 0.0103909 0.242962 0.0234354 2.18403 0.379351 0.258659 0.0775267 0.04 
503 1 1 0.798616 -0.959958 -0.960162 0 0 0 0.0236143 0.0173689 -0.00598642 -0.394315 -2.02355 1.61721 0.000295597 0.213514 -0.0373356 0.04 
424 1 1 0.880087 -0.959628 -0.960185 0 0 0 0.000354142 0.0159624 -0.007831 0.0201348 -0.187493 3.84233 -0.356191 0.0404058 -0.522222 0.04 
850 1 1 0.960084 -0.958618 -0.960276 0 0 0 0.000769762 -0.00772263 0.000787564 -0.0417424 -0.190089 1.38975 0.173405 0.121095 0.190937 0.04 
918 1 1 -0.886837 -0.897992 -0.960549 0 0 0 0.0854657 0.00623762 -0.130326 1.52316 2.93844 26.1567 0.425682 1.49542 2.20472 0.04 
246 1 1 -0.799944 -0.888104 -0.960116 0 0 0 0.032815 -0.0459586 0.0144539 -8.42968 0.510335 -16.0922 0.577881 0.978966 -1.01756 0.04 
586 1 1 -0.716554 -0.890557 -0.960373 0 0 0 -0.0265359 -0.040186 -0.00278156 -0.0278698 2.9609 -1.93512 1.49062 -0.393646 0.281744 0.04 
379 1 1 -0.635887 -0.890616 -0.960196 0 0 0 -0.0250279 -0.0362174 -0.0111344 2.60891 6.70069 1.49047 0.564158 -0.0729997 0.96392 0.04 
105 1 1 -0.552536 -0.889593 -0.960393 0 0 0 -0.0163393 -0.031033 0.0155353 -5.33788 3.66287 4.47379 0.81214 -0.0772012 -0.420672 0.04 
289 1 1 -0.472768 -0.888925 -0.96023 0 0 0 -0.0206301 -0.0212499 0.00175425 8.10134 -0.472246 5.29947 0.661851 -0.653013 0.44999 0.04 
345 1 1 -0.39266 -0.884755 -0.960323 0 0 0 0.00640933 0.0213571 -0.0247704 3.48815 0.414736 4.85721 -0.487964 -0.294484 0.380559 0.04 
209 1 1 -0.312436 -0.887583 -0.960234 0 0 0 -0.04673 -0.0122457 -0.000340637 -2.30059 -1.29179 1.29544 0.441058 -0.481747 0.190842 0.04 
647 1 1 -0.228322 -0.896155 -0.960187 0 0 0 0.00256243 0.00565271 -0.0131005 -1.23367 1.43611 3.91666 0.0648716 0.274114 -0.504733 0.04 
700 1 1 -0.145027 -0.889362 -0.96024 0 0 0 -0.0168224 0.0162738 -0.00153959 -5.05564 2.03953 3.15861 0.176713 0.0403705 -0.208229 0.04 
616 1 1 -0.0653728 -0.885601 -0.960148 0 0 0 0.00168002 -0.0345045 -0.0234164 5.56511 -1.46657 -3.33833 0.396231 -0.341916 0.278552 0.04 
87 1 1 0.0145718 -0.888696 -0.960215 0 0 0 -0.0402231 -0.0450648 0.000657978 -2.84437 -3.67727 -0.629252 0.00858949 -0.0718856 -0.2952 0.04 
655 1 1 0.112243 -0.901368 -0.96015 0 0 0 -0.105178 0.0251549 -0.00345553 -1.78658 -4.52183 -5.25694 -0.247082 -0.21431 -1.77496 0.04 
977 1 1 0.189939 -0.883125 -0.959861 0 0 0 -0.044449 -0.0396928 0.00786984 0.631416 -4.27912 -6.95904 -0.704723 -0.328359 -0.128373 0.04 
19 1 1 0.269297 -0.892983 -0.960243 0 0 0 -0.0448005 -0.0179243 -0.00329732 3.15799 0.364481 0.0733875 0.152869 -0.894945 0.0369142 0.04 
443 1 1 0.350376 -0.88848 -0.960179 0 0 0 -0.0237784 0.011225 0.00033068 0.95579 0.0580005 -0.837711 -0.203178 -0.640495 -0.0402668 0.04 
664 1 1 0.432254 -0.890949 -0.960249 0 0 0 0.0386486 -0.00808729 0.0157718 -3.17261 4.99826 -0.364042 0.396684 0.305796 0.01556 0.04 
74 1 1 0.593968 -0.892201 -0.960155 0 0 0 0.0167296 0.018192 0.011556 4.06003 3.34293 -0.00366385 -0.0111886 -0.0772655 0.108173 0.04 
50 1 1 0.673733 -0.890212 -0.960225 0 0 0 0.00364035 -0.0297335 0.00359768 -0.412872 2.85776 1.03421 -0.229016 0.176363 -0.225916 0.04 
812 1 1 0.87989 -0.8796 -0.95995 0 0 0 -0.0438486 -0.0179612 -0.0669207 1.1886 -3.03536 -10.7355 0.86954 0.274492 1.49331 0.04 
778 1 1 -0.960331 -0.867206 -0.96038 0 0 0 0.078747 -0.138418 -0.0113646 4.29263 -8.82583 5.97974 1.80018 0.167144 -1.92662 0.04 
352 1 1 -0.848943 -0.821454 -0.960142 0 0 0 0.00543656 -0.12647 0.120674 1.88131 5.71218 -11.8425 1.43926 -0.0593521 0.411116 0.04 
894 1 1 -0.762986 -0.816958 -0.960138 0 0 0 0.104198 -0.0730865 0.0030809 -9.21609 -7.08774 -11.2811 1.81266 2.648 -1.41316 0.04 
960 1 1 -0.682261 -0.816624 -0.960452 0 0 0 0.131034 -0.151319 -0.0319182 4.14416 -4.18636 11.5728 1.24849 1.50216 0.793809 0.04 
380 1 1 -0.530005 -0.804484 -0.960239 0 0 0 0.0361935 -0.000328789 -0.0426661 -1.77863 -2.06262 3.94204 0.307327 -0.380455 1.20117 0.04 
720 1 1 -0.254369 -0.821014 -0.960275 0 0 0 0.0315846 -0.000126645 0.0278605 -2.58236 4.77535 1.62819 0.463768 0.345017 0.421628 0.04 
161 1 1 -0.155862 -0.808936 -0.96038 0 0 0 0.0284005 -0.0174702 0.00144862 2.18192 -2.50446 -0.0942536 -0.358167 0.119103 0.640343 0.04 
827 1 1 0.00119495 -0.809962 -0.960132 0 0 0 0.0194489 -0.0102948 0.0165293 -0.392335 -2.24009 -3.93796 0.222892 0.220836 -0.57782 0.04 
784 1 1 0.0803805 -0.828299 -0.960166 0 0 0 0.017935 0.114891 0.00792543 -1.96473 4.35791 -2.0448 -0.76649 1.01715 1.42189 0.04 
211 1 1 0.15856 -0.809411 -0.960328 0 0 0 0.00767845 0.0418676 -0.0100868 3.55164 2.46939 1.53599 -0.497001 0.276286 -0.689919 0.04 
121 1 1 0.238071 -0.819489 -0.960302 0 0 0 -0.0374073 -0.0094453 -0.0222257 -3.84192 0.817769 -0.255137 0.44291 0.291698 -0.969462 0.04 
229 1 1 0.383767 -0.80994 -0.960245 0 0 0 -0.00743417 -0.0364443 -0.0129178 -2.94634 -3.05971 2.36898 0.336233 -0.138375 0.339069 0.04 
369 1 1 0.458074 -0.820346 -0.933381 0 0 0 -0.0235471 -0.00919753 0.0724827 -1.75665 1.39426 0.763421 -0.24433 -0.257457 0.503051 0.04 
396 1 1 0.519552 -0.863422 -0.960084 0 0 0 0.0671509 0.0616368 0.0329769 1.0122 -4.01809 -5.978 -2.46936 0.905243 1.15743 0.04 
866 1 1 0.593857 -0.812374 -0.960211 0 0 0 0.00798928 0.038454 0.00834198 -0.815595 -0.647126 -1.89087 0.135973 -0.267819 -0.355834 0.04 
628 1 1 0.67361 -0.81042 -0.960421 0 0 0 0.00349344 0.000313924 0.0039542 1.39666 -2.87653 5.60168 0.143562 0.0542724 0.11112 0.04 
1 1 1 0.749598 -0.86601 -0.96024 0 0 0 0.01003 -0.0224747 0.00886708 0.633586 4.053 1.67185 0.136066 -0.0640784 0.198305 0.04 
554 1 1 0.818717 -0.825955 -0.960344 0 0 0 -0.00655167 -0.000634648 0.0309868 3.27106 2.45625 2.05293 0.322277 -0.194189 0.205329 0.04 
417 1 1 0.960012 -0.835427 -0.960321 0 0 0 0.00257922 0.0148375 -0.0150113 1.04543 -4.27443 0.0326493 -0.6296 -0.191866 -0.245939 0.04 
446 1 1 -0.960267 -0.787792 -0.960522 0 0 0 0.019844 -0.125157 -0.0440483 6.01617 -5.21998 9.76875 0.272403 0.554213 -1.75638 0.04 
282 1 1 -0.889423 -0.75405 -0.945979 0 0 0 0.00331646 -0.0526292 -0.230149 4.42238 1.58571 -2.96094 -0.177412 -0.311759 1.54973 0.04 
492 1 1 -0.810822 -0.750658 -0.960682 0 0 0 -0.00842424 -0.0385281 0.0091832 -1.64133 -11.5505 10.2291 1.19318 0.243923 -0.711942 0.04 
290 1 1 -0.607778 -0.786771 -0.960276 0 0 0 0.0387214 -0.00521724 -0.0107063 -3.21315 5.56891 -5.09912 -0.0861519 1.01047 -0.947082 0.04 
52 1 1 -0.452725 -0.784407 -0.960215 0 0 0 0.0018302 -0.113348 0.030946 5.1092 1.78158 -7.46683 -0.407554 0.344325 0.172315 0.04 
480 1 1 -0.374344 -0.76783 -0.960255 0 0 0 0.00381644 0.0124519 0.0253949 2.13871 0.641041 -2.96525 -0.686292 0.439254 -0.0945 0.04 
402 1 1 -0.295833 -0.752151 -0.96007 0 0 0 0.0491565 -0.0185588 0.0186317 -5.54586 -3.8362 -8.5905 -0.106708 0.287367 -0.477578 0.04 
322 1 1 -0.215866 -0.751249 -0.960031 0 0 0 0.019829 -0.00226916 0.116914 0.39198 -0.429318 -7.7591 0.0849799 0.707107 0.0281479 0.04 
385 1 1 -0.0772562 -0.793838 -0.960287 0 0 0 -0.000624063 -0.0235476 0.00941546 0.413204 0.678521 9.31399 0.314497 0.15259 -0.343382 0.04 
773 1 1 0.105023 -0.749839 -0.960125 0 0 0 -0.0721917 0.0220792 -0.00773297 0.218447 -0.275987 0.464825 0.76782 -0.762278 0.213101 0.04 
725 1 1 0.206583 -0.745334 -0.96029 0 0 0 0.10234 -0.046667 -0.0418107 -1.39499 -1.63732 8.70596 0.465813 2.11703 -0.850108 0.04 
354 1 1 0.308852 -0.78261 -0.960197 0 0 0 0.00979459 -0.0425467 0.032949 -5.90675 3.85817 -6.13527 1.36643 0.0344605 1.15896 0.04 
688 1 1 0.487234 -0.751354 -0.960515 0 0 0 0.00759648 0.00221481 0.0261128 -0.463252 0.675981 4.23808 0.0994821 0.0587925 -0.316278 0.04 
757 1 1 0.565713 -0.737635 -0.960089 0 0 0 0.00546586 0.000427811 -0.0168915 7.06859 -0.549379 -8.63218 -0.19185 -0.0220859 -0.093412 0.04 
519 1 1 0.645343 -0.735778 -0.960129 0 0 0 -0.0210984 -0.0164079 0.0306567 -2.08458 -4.634 -6.84594 0.536747 -0.355342 0.353302 0.04 
742 1 1 0.749493 -0.786081 -0.960217 0 0 0 -0.0161652 0.0147837 0.000486935 2.01861 2.67058 -2.42944 0.155214 -0.246494 0.0853175 0.04 
603 1 1 0.819075 -0.746191 -0.960101 0 0 0 -0.0417635 0.0175283 -0.0219487 -3.02883 5.57472 -6.45636 0.179825 -0.326346 -0.019215 0.04 
86 1 1 0.891733 -0.793561 -0.960122 0 0 0 -0.00703003 0.0250093 -0.00499907 2.62393 2.34656 -4.97775 -0.421667 -0.373666 0.372738 0.04 
972 1 1 0.960069 -0.752191 -0.960075 0 0 0 0.00269379 -0.0244523 -0.013923 1.10811 -4.24189 -2.22795 0.392506 0.123001 -0.0240806 0.04 
488 1 1 -0.960118 -0.708303 -0.961425 0 0 0 0.0195241 -0.184541 0.077095 1.8317 -3.02854 40.5394 2.1619 0.470885 0.525994 0.04 
532 1 1 -0.887313 -0.675485 -0.96024 0 0 0 0.011794 -0.0520269 -0.0280905 -1.85941 -4.34152 1.14267 1.92545 -1.81104 0.67852 0.04 
564 1 1 -0.737623 -0.719074 -0.960292 0 0 0 -0.0403111 -0.0456233 0.0266874 -4.16276 5.82403 -2.81221 1.1649 -0.253847 0.598831 0.04 
826 1 1 -0.800166 -0.668976 -0.960282 0 0 0 -0.171848 -0.0954564 -0.0529922 2.27854 -6.23048 3.40041 1.34624 -0.813329 0.00336718 0.04 
314 1 1 -0.658199 -0.724826 -0.960003 0 0 0 -0.0179478 -0.0724037 -0.00465703 6.51336 -1.10203 -6.11497 -0.175961 -0.049745 0.742299 0.04 
1127 1 1 -0.551491 -0.726327 -0.960073 0 0 0 -0.0431984 -0.0655113 -0.0120772 3.64396 -3.59084 -2.39712 0.835936 -1.18261 -0.609805 0.04 
241 1 1 -0.473505 -0.706783 -0.960219 0 0 0 -0.128251 -0.0335101 0.0325225 -0.697481 -5.72191 2.45924 -0.480246 -1.64035 -0.0303933 0.04 
85 1 1 -0.392888 -0.690369 -0.959982 0 0 0 -0.0339936 0.0123926 0.00390817 1.62581 -4.19594 -6.8802 0.366227 0.172991 0.957373 0.04 
511 1 1 -0.314294 -0.672989 -0.960164 0 0 0 -9.20787e-05 -0.00903392 0.00599251 0.197476 -2.40852 -2.72648 -0.504007 -0.580631 -0.125656 0.04 
873 1 1 -0.221295 -0.671676 -0.960314 0 0 0 -0.0087418 0.00219301 0.0105585 2.37375 -0.0802786 0.75014 -0.329299 -0.421986 0.822909 0.04 
376 1 1 -0.138694 -0.730934 -0.960187 0 0 0 0.0146026 -0.0096873 -0.0172673 1.30357 1.02773 0.313158 0.197951 0.238829 -0.428806 0.04 
204 1 1 -0.0603227 -0.715602 -0.960325 0 0 0 0.0373801 -0.0165445 0.00989735 -1.44575 -0.112245 2.52277 0.605336 0.151786 0.111717 0.04 
1122 1 1 0.01785 -0.731839 -0.960212 0 0 0 0.0128836 -0.00247557 0.00775602 2.88431 2.46136 0.485082 0.0222877 -0.00186845 0.186439 0.04 
967 1 1 0.278558 -0.708626 -0.960156 0 0 0 -0.0152409 -0.0749983 0.00843124 -1.87882 -1.30041 0.441239 0.681196 -0.362229 -0.604593 0.04 
159 1 1 0.359847 -0.716953 -0.96013 0 0 0 -0.00632876 -0.0043512 -0.0307241 -1.19537 -2.17788 -1.81389 -0.000977417 -0.0416712 0.855323 0.04 
451 1 1 0.439816 -0.687235 -0.960364 0 0 0 0.0343425 0.0126279 0.0172758 -0.672218 1.91125 -0.691784 0.0894773 0.861618 0.429352 0.04 
177 1 1 0.520151 -0.67208 -0.960213 0 0 0 -0.0522804 0.0144936 0.0177069 0.495252 -3.75819 1.21391 -0.111107 -0.221423 0.542103 0.04 
439 1 1 0.749895 -0.706176 -0.960218 0 0 0 -0.0213995 0.0344994 -0.0267182 7.57541 0.577976 3.35876 0.385112 -0.00869996 -0.0473108 0.04 
188 1 1 0.891037 -0.711836 -0.960079 0 0 0 -0.0229497 -0.0157695 0.0151357 -0.940612 -1.95119 -8.21382 -0.0095319 -0.481501 -0.277065 0.04 
987 1 1 0.960255 -0.672359 -0.960223 0 0 0 0.0147169 -0.0582489 -0.022937 -5.05338 11.7175 7.13409 0.0958786 0.00283994 0.274325 0.04 
1152 1 1 -0.749749 -0.602069 -0.960441 0 0 0 -0.0886077 0.032719 0.093313 2.84003 -12.5485 2.27943 0.258118 -1.43078 0.072067 0.04 
567 1 1 -0.681929 -0.648051 -0.960334 0 0 0 -0.0456885 0.0182269 0.0380437 3.14466 -0.43822 8.1267 -0.283656 -0.9374 -0.297397 0.04 
783 1 1 -0.604038 -0.666196 -0.960215 0 0 0 0.0284786 -0.00162014 -0.026492 -4.78649 -8.87379 -5.89398 -0.0702513 0.246445 -0.202738 0.04 
170 1 1 -0.527038 -0.643674 -0.960151 0 0 0 0.0696731 0.00861997 0.069943 -0.28902 2.21136 -3.41749 -0.125566 -0.395757 0.967539 0.04 
375 1 1 -0.446774 -0.631637 -0.960302 0 0 0 -0.0295855 -0.0203546 -0.00399161 -2.51937 0.0785494 3.77855 0.242775 -1.0539 -0.770332 0.04 
709 1 1 -0.368626 -0.614384 -0.960345 0 0 0 -0.0071609 0.0143977 0.0202966 1.95275 -1.81057 3.51778 -0.0817037 -0.356961 -0.199951 0.04 
738 1 1 -0.125549 -0.652113 -0.960311 0 0 0 0.021566 0.00112111 0.00430043 4.01684 -3.6733 -1.21579 0.168957 -0.40739 0.76692 0.04 
1046 1 1 -0.0463031 -0.636973 -0.960006 0 0 0 -0.0231256 -0.0144776 0.0140088 -4.76659 -3.08537 -10.2611 -0.103296 0.44877 -0.553748 0.04 
581 1 1 0.0328775 -0.653405 -0.960275 0 0 0 0.0288856 -0.00809224 -0.0235236 2.91102 3.94772 3.54486 0.363903 0.657189 0.0466221 0.04 
1088 1 1 0.11449 -0.665606 -0.96031 0 0 0 -0.00753013 0.011844 -0.0137224 -3.67407 -0.467307 -2.05954 -0.0153182 0.111013 -0.898936 0.04 
61 1 1 0.162942 -0.60204 -0.960235 0 0 0 0.0240564 -0.0170612 -0.0150465 -2.59463 -4.62248 -3.21348 0.240728 0.282208 0.121812 0.04 
862 1 1 0.211214 -0.665548 -0.960183 0 0 0 0.0127145 -0.035799 0.0173925 1.42995 0.287259 -5.30103 0.795034 -0.104712 -0.803109 0.04 
656 1 1 0.324341 -0.643125 -0.960119 0 0 0 -0.065619 -0.063385 0.0459033 3.34408 -0.714729 -5.3628 1.05921 -0.420659 0.652454 0.04 
1082 1 1 0.400149 -0.617883 -0.960261 0 0 0 -0.062628 -0.0614148 -0.00679656 -2.12903 1.2317 2.74056 0.782872 -0.523189 0.312348 0.04 
255 1 1 0.478717 -0.60391 -0.960335 0 0 0 -0.0560502 -0.00264692 0.010474 0.667331 -1.2071 3.97655 0.0127287 0.00410169 0.372708 0.04 
880 1 1 0.601749 -0.666197 -0.960238 0 0 0 -0.0458054 0.0166791 0.0101336 0.497798 -0.680599 0.720661 -0.206369 0.113357 1.32072 0.04 
308 1 1 0.681638 -0.664954 -0.95988 0 0 0 -0.020302 0.0150545 0.0413634 -2.20202 5.28369 -7.63527 -0.670273 -0.492245 -0.704172 0.04 
543 1 1 0.74757 -0.620005 -0.960245 0 0 0 -0.0145847 0.00292666 -0.0326376 -2.76257 -7.23969 8.50539 -0.175604 -0.131443 0.143442 0.04 
662 1 1 0.816083 -0.661298 -0.96013 0 0 0 0.0265561 0.028041 0.0244314 -0.54151 -0.0396339 0.285249 -0.393576 -0.0432867 -0.271545 0.04 
553 1 1 0.89049 -0.631955 -0.96016 0 0 0 -0.0139501 -0.0227847 -0.0187864 0.447088 2.45659 -3.21702 0.117957 -0.762255 -0.470697 0.04 
260 1 1 -0.959924 -0.596677 -0.960271 0 0 0 0.019204 -0.0627847 -0.00270101 -1.67944 1.98688 6.87681 1.5581 0.269696 -1.11805 0.04 
990 1 1 -0.879942 -0.596174 -0.960396 0 0 0 -0.0139402 -0.0778444 0.00736062 1.17731 4.70807 4.86549 1.6791 -0.0829018 -0.812053 0.04 
565 1 1 -0.813062 -0.552471 -0.96027 0 0 0 -0.0252173 -0.014441 -0.00975765 0.0520907 4.18251 4.75073 0.728525 -0.830874 0.983223 0.04 
1113 1 1 -0.693393 -0.54508 -0.960432 0 0 0 -0.0381942 -0.0694014 -0.0849222 1.14584 -3.84813 15.0772 0.716265 -0.763898 0.66454 0.04 
925 1 1 -0.62717 -0.58978 -0.960417 0 0 0 -0.00851515 -0.0152657 -0.038044 0.811904 -1.49997 5.07623 -0.00321103 -0.35495 0.0376301 0.04 
893 1 1 -0.549244 -0.566389 -0.959938 0 0 0 0.00545692 -0.00573374 0.00195645 0 0 -6.57473 0.536106 -0.168614 1.70726 0.04 
1103 1 1 -0.457131 -0.552864 -0.960244 0 0 0 0.0200965 -0.00190348 -0.0133286 4.72377 4.58365 -6.85556 0.445947 0.0915753 0.368474 0.04 
1448 1 1 -0.379379 -0.535295 -0.960158 0 0 0 0.00840318 0.0185778 0.00864831 3.31618 2.65047 1.63281 -0.0400733 -0.217152 -0.195561 0.04 
631 1 1 -0.300229 -0.572965 -0.960217 0 0 0 -0.0392789 -0.0103269 0.0112599 2.34919 -0.639036 0.0387523 -0.00250635 -0.985356 -0.141757 0.04 
714 1 1 -0.222317 -0.591977 -0.960277 0 0 0 -0.0258818 0.000415458 -0.000424499 2.2734 -0.264264 2.12219 -0.0483527 -0.792505 -0.419189 0.04 
962 1 1 -0.1578 -0.54484 -0.960149 0 0 0 0.00778752 -0.0368559 0.0288965 -1.4217 -1.47202 1.22101 0.788811 0.306116 -0.782278 0.04 
950 1 1 -0.0791186 -0.564153 -0.960053 0 0 0 0.0344103 -0.0087518 -0.0022747 -0.898695 0.345679 -3.79948 -0.0845675 0.816748 1.11396 0.04 
716 1 1 0.00561657 -0.576437 -0.960157 0 0 0 -0.001834 0.0153072 0.0135318 -2.3803 -1.02185 -4.72361 -0.280273 0.120113 0.27249 0.04 
388 1 1 0.0838197 -0.591791 -0.960283 0 0 0 0.0115157 0.00377415 0.00232702 -0.536654 0.676308 -0.67746 -0.0722311 0.215111 -0.365981 0.04 
1052 1 1 0.257065 -0.599934 -0.960311 0 0 0 -0.0172187 -0.0276003 0.00955871 -1.67218 -4.71146 4.33479 0.436784 -0.136612 -0.17032 0.04 
867 1 1 0.205989 -0.534877 -0.960161 0 0 0 0.00493992 -0.029505 0.00677073 -3.15224 -3.08087 -1.67324 0.31401 0.506991 -0.364277 0.04 
576 1 1 0.322922 -0.554161 -0.96019 0 0 0 0.0421054 -0.0291048 0.0468788 -0.19366 -0.0198306 3.05528 0.70271 0.56142 0.0241983 0.04 
408 1 1 0.401342 -0.537982 -0.960206 0 0 0 0.0146652 -0.0428477 -0.00123094 0.514962 -1.05878 -1.94794 -0.114298 -0.292694 -0.924791 0.04 
1026 1 1 0.558413 -0.599121 -0.960292 0 0 0 -0.0759087 0.0110157 -0.0119264 -1.51577 -1.99845 0.479107 -0.14353 -0.840657 0.176322 0.04 
1111 1 1 0.668451 -0.586295 -0.959958 0 0 0 -0.0497849 -0.00996315 -0.0225865 -3.17905 -13.8423 -7.02025 -0.153652 -0.298129 0.0279198 0.04 
1138 1 1 0.734372 -0.54125 -0.960149 0 0 0 0.0224311 -0.00222509 -0.0203629 -2.85042 1.53085 -0.0449058 -0.262559 -0.0563994 -0.839006 0.04 
58 1 1 0.816517 -0.580073 -0.960157 0 0 0 0.006333 0.034111 -0.0115644 0.673725 0.86793 1.08001 0.366637 -0.385206 -0.130978 0.04 
1107 1 1 0.891135 -0.552028 -0.960105 0 0 0 0.00324434 -0.000748988 -0.00283814 -1.79424 1.42655 -4.13607 0.094026 -0.238588 -0.284976 0.04 
252 1 1 0.960084 -0.592422 -0.960178 0 0 0 -0.0146245 -0.0179488 0.00401223 -0.663721 0.0405153 1.3295 0.362287 -0.175143 0.0442679 0.04 
670 1 1 -0.959802 -0.516633 -0.960158 0 0 0 -0.0336319 -0.0717423 0.0456148 0.421461 2.38725 -2.08923 1.64301 -0.725858 0.256532 0.04 
644 1 1 -0.756416 -0.496072 -0.960243 0 0 0 -0.0529844 -0.0411329 0.0385414 -2.02413 5.95827 -0.814597 1.10417 -0.56903 -1.05361 0.04 
435 1 1 -0.61566 -0.510592 -0.960164 0 0 0 0.00702375 -0.00282929 -0.0104118 -1.36513 -3.30115 -1.03492 0.339444 -0.258776 -0.273835 0.04 
816 1 1 -0.498217 -0.485031 -0.960229 0 0 0 -0.0356456 -0.0400327 0.00433429 -2.55547 4.12156 -2.24314 -0.108839 -0.596591 0.744987 0.04 
489 1 1 -0.317534 -0.484869 -0.960416 0 0 0 0.00718865 0.000503968 0.00915394 2.93477 2.52844 0.591206 0.0406687 0.0547349 -0.0260885 0.04 
883 1 1 -0.243691 -0.515111 -0.960156 0 0 0 0.00370947 0.010451 -0.00927837 0.515955 1.14246 2.29148 0.0432303 -0.104272 -0.436328 0.04 
305 1 1 -0.179404 -0.467711 -0.960227 0 0 0 0.031607 -0.0350537 0.0062775 -5.23178 -0.810297 0.178639 0.549107 0.116758 0.09762 0.04 
675 1 1 -0.102086 -0.48767 -0.958208 0 0 0 -0.0255475 -0.00686589 0.0119447 6.79411 -2.86984 -6.25935 0.710286 0.129895 0.586995 0.04 
1066 1 1 -0.0233899 -0.502214 -0.960299 0 0 0 -0.0360423 -0.0026863 0.00803192 -3.16025 0.956934 0.321104 0.138882 -0.375055 0.475788 0.04 
143 1 1 0.0585218 -0.51601 -0.960152 0 0 0 0.030454 0.00585124 0.0056931 -0.47903 -0.586717 -0.510132 -0.137232 0.878689 0.217285 0.04 
1346 1 1 0.154547 -0.473665 -0.960235 0 0 0 -0.00654113 -0.0348201 -0.00276384 0.718346 -1.22073 1.23588 0.760826 -0.163359 0.356768 0.04 
1000 1 1 0.271923 -0.490085 -0.960174 0 0 0 0.0145733 -0.0665133 -0.0167696 3.54757 1.26244 -1.26992 0.431432 0.11386 -0.186455 0.04 
792 1 1 0.350587 -0.476502 -0.960313 0 0 0 0.0103023 -0.0427398 0.0143992 -1.5733 0.293752 0.800663 1.07923 0.379979 0.165176 0.04 
814 1 1 0.480419 -0.524179 -0.960326 0 0 0 -0.00431852 0.0160636 -0.00727185 1.09263 -3.43487 0.590093 -0.208892 0.0572335 -0.668055 0.04 
1288 1 1 0.580358 -0.522462 -0.960181 0 0 0 -0.1089 0.00664091 0.0282349 -1.24987 -1.78364 -1.14742 -0.30353 -1.7631 -1.03233 0.04 
908 1 1 0.661459 -0.507122 -0.960094 0 0 0 0.000642299 -0.0228804 -0.00143968 -2.34113 13.1494 -4.18431 0.265925 -0.271724 -0.410993 0.04 
1309 1 1 0.79727 -0.492112 -0.960277 0 0 0 -0.0229659 -0.00239124 0.0150791 3.8916 5.59129 4.0724 -0.070789 0.0693194 0.406429 0.04 
9 1 1 0.891202 -0.472131 -0.960088 0 0 0 -0.00297727 0.0218921 0.00188208 -6.88033 -5.21479 -3.9448 0.237296 0.246859 -0.169499 0.04 
771 1 1 0.960275 -0.512388 -0.96021 0 0 0 -0.0114877 0.00351631 0.0740792 -1.25147 0.644327 -2.49665 0.446874 0.335889 -0.0266572 0.04 
1055 1 1 -0.960023 -0.422323 -0.960175 0 0 0 -0.00397462 -0.0415155 -0.00372216 0.194841 -0.298235 -0.199163 1.07138 -0.0884538 -1.52155 0.04 
739 1 1 -0.889291 -0.460603 -0.960117 0 0 0 -0.015411 -0.0471262 0.025946 0.253816 3.54189 -6.6573 0.976365 0.0559356 -0.530507 0.04 
1142 1 1 -0.820848 -0.419256 -0.960205 0 0 0 -0.00189186 -0.0616377 0.00218757 0.923939 1.07166 -2.74877 0.600137 0.375322 -0.26802 0.04 
833 1 1 -0.682022 -0.466063 -0.960223 0 0 0 -0.00494645 -0.0395635 0.00481837 -1.91865 2.37698 -0.463375 1.1016 -0.378873 0.445008 0.04 
620 1 1 -0.564042 -0.440522 -0.960137 0 0 0 -0.041654 -0.106983 -0.00911255 -0.663222 1.07398 0.206387 1.98629 -1.50241 0.744691 0.04 
1316 1 1 -0.473552 -0.409128 -0.960259 0 0 0 -0.00265482 -0.0327443 -0.00197161 -0.315839 1.74453 3.31032 0.4706 -0.110521 -0.707009 0.04 
344 1 1 -0.409791 -0.457772 -0.960139 0 0 0 0.0540339 0.00195116 -0.0322133 -0.33278 0.236595 1.59153 -0.584821 0.599249 0.581114 0.04 
247 1 1 -0.329778 -0.405931 -0.960398 0 0 0 -0.031102 -0.00639784 0.00376459 1.70182 -0.733803 5.18022 0.176228 -0.761149 0.275118 0.04 
382 1 1 -0.254968 -0.43522 -0.960379 0 0 0 0.00384154 -0.0145617 -0.00959362 -0.533486 0.0272261 1.30876 0.361489 0.0543264 -0.226543 0.04 
1271 1 1 -0.0960711 -0.408192 -0.960549 0 0 0 -0.0429327 -0.0182327 0.00433797 2.90557 1.2891 3.52234 0.524164 -1.22863 -0.00272764 0.04 
1249 1 1 0.0296514 -0.441475 -0.960125 0 0 0 -0.0484961 -0.0323225 0.0151136 -0.614277 1.79386 -0.995214 0.436546 -0.404827 0.0344923 0.04 
1030 1 1 0.103909 -0.411869 -0.960376 0 0 0 -0.015014 -0.0771047 -0.0754786 -2.26937 -5.98603 -9.8519 -0.00353965 0.175617 -0.222122 0.04 
1148 1 1 0.220655 -0.428757 -0.960345 0 0 0 -0.00573057 -0.0504708 -0.00610525 5.53351 2.42565 4.29497 1.08253 -0.144106 0.0183804 0.04 
772 1 1 0.299442 -0.415151 -0.960206 0 0 0 0.00434201 -0.0417724 -0.00163843 -0.243503 5.85534 -1.3297 0.193301 -0.00885867 0.0384126 0.04 
845 1 1 0.378142 -0.401718 -0.960327 0 0 0 -0.00590942 -0.0294089 0.000837976 -2.99447 1.72612 3.99185 0.926093 0.0430802 0.382101 0.04 
1361 1 1 0.429428 -0.46302 -0.960147 0 0 0 0.0166696 -0.025779 0.0409296 -1.90883 0.0423406 -11.0278 0.444471 0.523774 0.75957 0.04 
584 1 1 0.529252 -0.460898 -0.960021 0 0 0 -0.0126173 -0.0237092 0.0120955 -1.1137 1.60263 -5.64831 -0.226699 0.223251 0.405486 0.04 
1047 1 1 0.608072 -0.447698 -0.960257 0 0 0 0.0131629 -0.0406022 0.0165271 -2.18477 7.3133 -0.0620361 0.352234 -0.104347 -0.0105819 0.04 
1474 1 1 0.686073 -0.431123 -0.960033 0 0 0 0.0112917 -0.0609616 0.0286168 4.18343 5.03063 -5.29615 0.586457 -0.151946 -0.413152 0.04 
840 1 1 0.764945 -0.41888 -0.960265 0 0 0 -0.00398968 -0.0270061 -0.00233761 -2.05922 -2.16338 -0.808248 0.324674 0.170167 0.425945 0.04 
852 1 1 0.960206 -0.432295 -0.960314 0 0 0 -0.00253076 -0.0217759 0.0730712 0.400793 -2.75544 7.12739 0.017078 0.118409 0.0634097 0.04 
982 1 1 -0.960102 -0.340435 -0.960245 0 0 0 -0.00913965 -0.0529974 -0.0142822 1.53799 -0.972814 0.841318 1.1438 -0.138557 -1.10957 0.04 
326 1 1 -0.890869 -0.38057 -0.960178 0 0 0 0.0151111 -0.0257039 0.00745229 0.0446292 -1.86855 -1.05082 0.670167 0.220494 -0.116415 0.04 
1215 1 1 -0.821583 -0.339328 -0.960311 0 0 0 0.0247251 -0.0538309 -0.0178386 2.60837 -1.34171 4.78301 1.2409 0.322846 -0.193052 0.04 
1246 1 1 -0.751975 -0.378819 -0.960174 0 0 0 0.0255571 -0.0762468 -0.031644 -1.70543 -1.9115 -4.74082 0.518761 0.262421 0.32322 0.04 
969 1 1 -0.68419 -0.336884 -0.960243 0 0 0 0.0328832 -0.0379943 0.00837491 10.2606 -0.194659 -1.27294 0.516582 -0.511109 -0.232548 0.04 
613 1 1 -0.626756 -0.391697 -0.960343 0 0 0 -0.0102587 -0.0949208 -0.00948085 2.65354 0.86143 -0.537832 1.15137 -0.404763 -0.9868 0.04 
857 1 1 -0.533367 -0.355953 -0.960338 0 0 0 0.0270972 0.00206466 0.00121102 2.15938 -2.47091 0.675223 0.514471 -0.336002 0.974764 0.04 
92 1 1 -0.408797 -0.362255 -0.960337 0 0 0 -0.0101169 -0.0536183 0.0110217 -2.07109 5.34335 3.13982 0.776686 -0.381224 0.198807 0.04 
1124 1 1 -0.267329 -0.356196 -0.960224 0 0 0 -0.0363222 -0.0117131 0.00542012 1.46529 -0.382221 -3.08901 0.268617 -0.360704 0.281177 0.04 
868 1 1 -0.190198 -0.388465 -0.960281 0 0 0 0.00310433 -0.0225505 0.00668001 2.15752 -1.31558 -1.78953 0.641761 -0.0512277 0.169938 0.04 
1010 1 1 -0.126757 -0.334585 -0.960307 0 0 0 -0.0204542 -0.0206613 0.0101502 -0.482778 0.373588 1.1747 0.554767 -0.513829 -0.483412 0.04 
1223 1 1 -0.0228842 -0.36867 -0.960153 0 0 0 -0.0489244 0.0132976 0.0119981 0.671848 -2.94861 -0.334737 -0.141446 -0.441612 -0.0869715 0.04 
144 1 1 0.0549302 -0.348768 -0.960124 0 0 0 -0.00426381 -0.0442462 -0.00408788 0.222917 -1.72971 -1.24756 0.418723 -0.114081 0.177244 0.04 
315 1 1 0.16985 -0.366945 -0.960133 0 0 0 -0.00841717 -0.0246747 0.0182464 -1.15867 -0.797098 0.00573966 0.448022 -0.0535184 0.0298295 0.04 
1187 1 1 0.248564 -0.353688 -0.960275 0 0 0 0.00169791 -0.0385765 0.00561275 2.87601 0.474386 -0.424067 0.688451 -0.528962 -0.266937 0.04 
220 1 1 0.327325 -0.34014 -0.960279 0 0 0 0.00647525 -0.0346372 -0.0151362 3.66248 -1.75333 4.12602 0.787776 -0.565364 0.132268 0.04 
677 1 1 0.456628 -0.387996 -0.960154 0 0 0 -0.0154116 -0.0235415 0.00949803 -0.53164 -3.87167 -4.0946 -0.0941868 0.0312972 -0.535252 0.04 
981 1 1 0.557974 -0.385685 -0.960137 0 0 0 0.0233527 -0.0351888 0.00726727 -1.66381 1.09396 -0.196753 0.00308331 -0.0694157 -0.635064 0.04 
361 1 1 0.636235 -0.368249 -0.960291 0 0 0 0.0408755 -0.00729044 -0.0169245 -0.0645136 -9.01542 2.61068 -0.214905 1.07256 0.493141 0.04 
764 1 1 0.716715 -0.354531 -0.960237 0 0 0 -0.0597124 -0.0298685 -0.00787322 -3.1519 -3.4231 -7.04513 0.809095 -0.724398 -0.939141 0.04 
499 1 1 0.800808 -0.347743 -0.960215 0 0 0 0.0119226 -0.0173698 0.0113311 -1.24791 3.66636 0.413308 0.204142 0.150065 -0.556141 0.04 
398 1 1 0.876188 -0.373997 -0.960194 0 0 0 0.0207607 0.00611478 -0.00869394 0.360063 -0.030107 -2.71036 -0.250126 0.355411 1.23535 0.04 
975 1 1 0.956173 -0.352649 -0.960351 0 0 0 0.0246209 -0.00696035 -0.00593511 0.22229 -0.423136 -1.06959 0.107437 0.516835 -0.303884 0.04 
995 1 1 -0.891097 -0.300131 -0.960041 0 0 0 0.0102213 -0.0822227 0.00191202 0.135751 -0.000344757 -6.10945 1.12165 -0.0487405 0.8392 0.04 
76 1 1 -0.753287 -0.297717 -0.960116 0 0 0 0.0311313 -0.0971944 -0.029855 -1.99925 -4.08275 0.363962 0.699577 -0.100903 0.600798 0.04 
230 1 1 -0.606723 -0.314072 -0.960145 0 0 0 -0.0316277 -0.0621301 -0.00574023 0.116429 0.35404 1.52506 1.57239 -0.794982 0.172771 0.04 
116 1 1 -0.468563 -0.309207 -0.960328 0 0 0 0.0100708 -0.017795 0.0250508 5.11374 -4.08068 -2.14573 0.574088 0.0140004 -0.25121 0.04 
978 1 1 -0.350214 -0.307896 -0.960286 0 0 0 -0.00152855 -0.0502626 0.00487866 -0.10645 1.12803 -1.56456 1.42826 -0.0165564 -0.188437 0.04 
1155 1 1 -0.275788 -0.276768 -0.96022 0 0 0 -0.0219026 -0.0159489 -0.00660032 2.0155 0.495636 -0.404184 0.260439 -0.353529 -0.625995 0.04 
1214 1 1 -0.202522 -0.30954 -0.960299 0 0 0 -0.0196449 -0.0333141 -0.00177415 -0.840041 -0.632593 2.12155 0.197493 -0.189532 -0.0360528 0.04 
201 1 1 -0.0566697 -0.296253 -0.960428 0 0 0 -0.0128582 -0.0348346 0.00204494 -0.132185 2.30506 1.38911 0.885769 -0.256954 -0.0501889 0.04 
1062 1 1 0.0243451 -0.275046 -0.960141 0 0 0 -0.0722447 -0.0579722 0.00718465 -0.184124 0.270378 -0.00856426 0.8855 -1.67576 0.896007 0.04 
404 1 1 0.110222 -0.285994 -0.960289 0 0 0 0.00336014 -0.036062 0.00554844 2.4398 2.23706 4.84553 -0.0686784 -0.643042 -0.560489 0.04 
1216 1 1 0.197809 -0.292116 -0.960397 0 0 0 0.021215 -0.0128263 0.0429795 0.977355 -0.673602 -2.42814 0.344916 0.4847 -0.124273 0.04 