ITEM: TIMESTEP
53200
ITEM: NUMBER OF ATOMS
1500
ITEM: BOX BOUNDS ff ff ff
-1 1
-1 1
-1 1
ITEM: ATOMS id type type x y z ix iy iz vx vy vz fx fy fz omegax omegay omegaz radius 
137 1 1 -0.959258 -0.959087 -0.960234 0 0 0 0.00251741 0.0772169 0.0529547 -1.27747 -0.56297 5.71702 0.729067 0.253625 -2.00988 0.04 
5 1 1 -0.879317 -0.959226 -0.959197 0 0 0 0.0863253 0.0501396 -0.0127951 1.31939 -0.0531524 -6.51554 0.280719 -0.131979 -0.498052 0.04 
239 1 1 -0.795132 -0.953986 -0.960751 0 0 0 -0.0744915 -0.0967694 0.0959433 17.1289 -10.8656 -16.7969 0.803418 -1.40737 -0.189978 0.04 
34 1 1 -0.715098 -0.955811 -0.958251 0 0 0 0.19524 0.0782731 -0.22984 20.5478 -1.31022 -52.5602 -2.52318 2.12761 -0.5915 0.04 
415 1 1 -0.634159 -0.95996 -0.960788 0 0 0 0.0655767 -0.066713 0.0760222 -2.47568 -3.55389 8.36381 0.311217 2.25233 -1.39324 0.04 
138 1 1 -0.534067 -0.958504 -0.960253 0 0 0 -0.123714 0.054842 0.0246763 0.680862 -0.106398 7.20779 -1.18421 -1.8763 -0.293217 0.04 
323 1 1 -0.43058 -0.953315 -0.959627 0 0 0 -0.0938741 -0.0105743 0.0367604 0 0 -6.57473 -1.16911 -2.31692 -2.74456 0.04 
130 1 1 -0.349658 -0.960031 -0.960458 0 0 0 -0.122746 0.0713579 0.0627263 5.06338 -1.75012 -3.47542 0.0292222 -1.24751 0.0971055 0.04 
502 1 1 -0.269912 -0.957672 -0.960393 0 0 0 0.000785554 0.0277381 -0.0728857 -12.5041 -1.25362 -4.02678 -0.0751889 0.00470169 0.684496 0.04 
494 1 1 -0.162127 -0.960235 -0.960269 0 0 0 -0.00769489 0.0259091 0.0658216 -5.26129 7.22576 3.97584 0.215557 -0.237415 -0.0204263 0.04 
448 1 1 -0.0824405 -0.960102 -0.96012 0 0 0 -0.0063143 -0.00335291 0.0142592 -5.36868 5.77173 -5.5253 0.777453 -0.251086 -0.471877 0.04 
147 1 1 -0.0029702 -0.960131 -0.960007 0 0 0 -0.0544059 0.028823 -0.0268788 4.99026 -0.897531 -16.0948 0.572115 0.127039 0.729655 0.04 
218 1 1 0.0765903 -0.960232 -0.960188 0 0 0 0.0109032 -0.030369 0.0437386 11.547 14.2933 -1.49395 0.17607 -0.326378 1.10528 0.04 
339 1 1 0.202117 -0.959153 -0.959478 0 0 0 -0.113772 0.129519 -0.0382495 0 0 -6.57473 1.68725 -0.773858 -0.870128 0.04 
341 1 1 0.31297 -0.958281 -0.960089 0 0 0 0.061187 -0.0221976 -0.000840843 -11.7739 -16.7851 -1.88671 -0.171403 0.703715 -0.278526 0.04 
203 1 1 0.394445 -0.96033 -0.959357 0 0 0 0.0754137 0.105732 -0.14093 -0.151123 12.9298 -39.466 -0.550744 -1.64261 1.32604 0.04 
1019 1 1 0.47665 -0.960496 -0.958924 0 0 0 -0.16809 0.179405 0.0506442 21.8814 13.1817 -46.5438 3.53639 0.72169 1.4149 0.04 
821 1 1 0.556078 -0.952418 -0.959103 0 0 0 0.133139 -0.161305 -0.138303 16.3538 -24.4912 -5.52509 0.586867 0.500487 0.590139 0.04 
636 1 1 0.637145 -0.959752 -0.957725 0 0 0 0.0161376 -0.0540257 -0.182302 0 0 -6.57473 1.96541 -1.36509 0.780788 0.04 
729 1 1 0.717742 -0.959208 -0.955806 0 0 0 0.0484919 0.0342187 -0.142173 0 0 -6.57473 1.43479 -0.955323 -0.369547 0.04 
503 1 1 0.798126 -0.9579 -0.960118 0 0 0 -0.0150613 -0.0189014 -0.000398154 -0.32267 -0.0603204 -0.00952071 0.862772 -2.46085 4.61075 0.04 
424 1 1 0.879127 -0.958823 -0.957602 0 0 0 -0.0242732 0.0487975 0.500739 0 0 -6.57473 -1.28055 -0.645953 0.33282 0.04 
850 1 1 0.959935 -0.960071 -0.960041 0 0 0 -0.00667708 -0.0663453 0.0459931 0.348553 4.30762 -9.73565 1.87276 -0.725051 0.721043 0.04 
918 1 1 -0.91812 -0.887182 -0.96184 0 0 0 0.273562 -0.254856 0.150811 -49.9105 -12.6678 68.7319 0.365247 -0.872215 1.4293 0.04 
246 1 1 -0.839843 -0.88716 -0.960024 0 0 0 0.379307 0.0835556 0.0143404 63.0972 -5.38025 -2.22683 -1.79217 -0.0533397 1.99599 0.04 
586 1 1 -0.75625 -0.884588 -0.960213 0 0 0 0.00333774 0.0613272 0.166031 7.17031 13.4758 2.51875 -1.76631 -0.68271 -0.268358 0.04 
379 1 1 -0.670363 -0.888208 -0.960479 0 0 0 -0.0651475 -0.243528 -0.0236053 -13.5866 -9.07002 1.01482 1.06137 -2.25907 -0.0765362 0.04 
105 1 1 -0.584331 -0.893433 -0.960165 0 0 0 -0.0286794 0.158846 0.0962575 4.17269 -4.51586 -4.14776 -2.03912 -0.701546 1.86786 0.04 
289 1 1 -0.485588 -0.895126 -0.954447 0 0 0 -0.13112 0.147753 -0.606009 0 0 -6.57473 -1.1646 1.13834 0.59915 0.04 
345 1 1 -0.370527 -0.882416 -0.959206 0 0 0 -0.0261618 -0.0370503 0.0394346 0 0 -6.57473 -0.394749 -0.583521 -2.27575 0.04 
209 1 1 -0.29034 -0.878414 -0.960414 0 0 0 0.0360474 -0.150815 0.0489807 7.65347 6.479 -10.8687 0.166414 -0.0925644 -0.184158 0.04 
647 1 1 -0.213048 -0.898762 -0.9605 0 0 0 0.0166821 0.093499 0.0378317 -0.386774 -0.751421 19.5741 -1.05789 0.09018 -0.384055 0.04 
700 1 1 -0.132759 -0.880051 -0.959751 0 0 0 0.0638512 -0.0537096 0.0614072 0 0 -6.57473 0.491221 1.19437 0.126093 0.04 
616 1 1 -0.0524655 -0.885048 -0.960085 0 0 0 0.093904 -0.0473925 0.0111203 -3.22161 -2.06515 -8.98834 0.439839 0.951012 1.78707 0.04 
87 1 1 0.0357978 -0.895377 -0.934175 0 0 0 -0.123476 0.0734704 -0.197966 -10.3731 -12.1614 2.55828 2.21238 -1.23144 -0.162025 0.04 
655 1 1 0.138027 -0.908866 -0.960268 0 0 0 -0.0826769 0.112105 0.0518601 9.05925 -21.5873 -17.2787 0.0499727 -1.33188 -0.618111 0.04 
19 1 1 0.255941 -0.895079 -0.959464 0 0 0 0.00148946 -0.389264 0.0175247 18.6081 -2.109 -21.6216 1.12338 -2.59278 -1.67876 0.04 
443 1 1 0.354564 -0.890573 -0.959941 0 0 0 -0.266241 0.0599715 -0.062453 12.1842 16.9114 -19.567 0.0423274 -1.59536 0.190823 0.04 
664 1 1 0.436885 -0.88758 -0.95985 0 0 0 -0.0424239 -0.176858 0.0070264 3.90493 -6.84748 -7.34941 -2.01515 -2.19566 0.27831 0.04 
396 1 1 0.518667 -0.882573 -0.958921 0 0 0 -0.0843242 -0.242104 0.0858257 -12.3956 25.0831 -7.56645 1.05812 -0.434557 1.53982 0.04 
74 1 1 0.603231 -0.887252 -0.939118 0 0 0 -0.116154 -0.0241661 -0.365114 0 0 -6.57473 2.50037 -2.62682 -4.27209 0.04 
50 1 1 0.680657 -0.879518 -0.960201 0 0 0 0.30412 0.0172957 -0.0802601 -15.7787 -1.57982 -6.17959 -0.163162 2.12803 -1.73501 0.04 
812 1 1 0.878277 -0.878726 -0.960135 0 0 0 -0.0430501 -0.0398912 -0.0349824 -0.0348518 0.398276 1.42124 -0.488114 -1.20815 -2.09761 0.04 
417 1 1 0.959632 -0.87582 -0.944656 0 0 0 -0.0385611 0.0560941 0.136726 0 0 -6.57473 -1.5921 -1.55181 0.609334 0.04 
352 1 1 -0.876967 -0.816473 -0.957588 0 0 0 -0.245162 -0.0750276 0.680526 -1.39807 2.8401 -6.61294 2.32524 -5.85936 1.89307 0.04 
960 1 1 -0.695003 -0.808478 -0.959649 0 0 0 0.189679 -0.0370623 -0.301599 0 0 -6.57473 2.31064 2.83778 0.68484 0.04 
290 1 1 -0.614517 -0.801372 -0.958293 0 0 0 0.223149 0.1928 -0.0259353 6.896 36.9294 -47.3571 -0.165599 2.83135 1.86072 0.04 
380 1 1 -0.529009 -0.82575 -0.958778 0 0 0 -0.074573 0.215543 -0.0026246 -9.85827 6.77235 -19.6735 -3.17182 -1.01019 0.98724 0.04 
52 1 1 -0.44945 -0.821371 -0.960445 0 0 0 -0.227767 0.0709696 0.0206387 20.779 -12.8255 18.5025 -2.23855 -1.21473 -1.94415 0.04 
720 1 1 -0.234817 -0.826304 -0.934653 0 0 0 0.175592 0.036413 -0.333887 10.3154 -8.13948 0.972166 -2.89554 0.474693 1.82257 0.04 
385 1 1 -0.0821492 -0.80446 -0.960763 0 0 0 0.174467 0.0749474 -0.036561 12.5894 1.89083 18.3814 -1.38937 0.683899 1.66695 0.04 
827 1 1 0.00430143 -0.82693 -0.960185 0 0 0 -0.0991476 0.254169 0.0269076 -3.80801 8.08412 -0.400285 -2.18252 -0.79549 -0.876367 0.04 
784 1 1 0.0911166 -0.84503 -0.960477 0 0 0 -0.0635938 -0.0287492 -0.136783 -6.99869 21.9762 3.36869 -0.659138 -0.658941 -3.0241 0.04 
211 1 1 0.174643 -0.824617 -0.960104 0 0 0 0.176223 0.0776358 -0.0226697 -1.14829 -3.17969 -18.1117 -1.12929 0.994265 2.16177 0.04 
354 1 1 0.316676 -0.820159 -0.959051 0 0 0 0.0180127 0.488234 0.0783278 -15.7754 -1.29473 -7.76392 0.247329 -0.287179 -0.759801 0.04 
229 1 1 0.396272 -0.819089 -0.955789 0 0 0 -0.474012 -0.0882587 -0.530709 12.0942 7.6753 -4.62573 4.47171 1.99457 2.15502 0.04 
866 1 1 0.593896 -0.80855 -0.960038 0 0 0 -0.0160212 0.180899 -0.198622 8.41161 -8.41638 -8.53916 -2.19374 0.160705 1.46172 0.04 
742 1 1 0.732404 -0.803289 -0.957091 0 0 0 -0.0312893 0.335977 0.057803 0 0 -6.57473 -6.62938 -0.739784 4.65752 0.04 
554 1 1 0.804964 -0.839797 -0.960443 0 0 0 -0.067733 0.0999064 0.0431232 0.814627 0.657442 16.2461 -2.30745 -1.48393 -3.58058 0.04 
446 1 1 -0.950792 -0.779735 -0.960781 0 0 0 -0.184406 0.129305 -0.112212 4.53742 20.9123 3.11876 0.184276 -2.42591 2.28864 0.04 
492 1 1 -0.856682 -0.737647 -0.959277 0 0 0 0.0171528 0.0814324 -0.249989 0 0 -6.57473 0.176699 0.418493 -2.76573 0.04 
894 1 1 -0.7764 -0.799347 -0.958729 0 0 0 -0.0769988 0.116644 0.0657877 0 0 -6.57473 -1.73119 2.73886 -1.99205 0.04 
241 1 1 -0.483289 -0.749357 -0.959956 0 0 0 -0.0502235 0.150741 0.0794735 -7.24742 14.1024 -7.03562 -3.76977 -0.88877 4.95037 0.04 
480 1 1 -0.374336 -0.792501 -0.960085 0 0 0 0.14915 -0.0166463 0.128154 -23.0207 15.0527 -27.3814 -0.546939 -0.969244 -1.28197 0.04 
402 1 1 -0.289355 -0.774541 -0.960544 0 0 0 -0.0793115 -0.0206657 -0.0594259 -12.8971 11.342 18.1006 -2.31254 1.79979 -1.39978 0.04 
322 1 1 -0.213507 -0.749464 -0.959997 0 0 0 0.0240365 0.209534 -0.346249 19.9737 -4.32655 -30.5804 0.460969 2.84932 -1.40776 0.04 
376 1 1 -0.132989 -0.732425 -0.959955 0 0 0 0.149921 0.23871 0.0181696 -1.41458 0.0294272 -8.88787 1.42854 0.773228 -1.74588 0.04 
1122 1 1 0.0307204 -0.747777 -0.959699 0 0 0 0.0613025 0.197253 -0.0276451 -4.74164 -1.08765 -12.1552 -2.27928 1.11459 -1.68025 0.04 
773 1 1 0.10876 -0.767816 -0.960132 0 0 0 0.0881255 0.168622 -0.0940588 0.057858 24.1934 -3.14915 1.36639 -0.460611 1.04139 0.04 
725 1 1 0.222553 -0.760093 -0.960586 0 0 0 -0.14579 0.21724 0.0551339 4.94933 -9.15802 11.3785 -2.63489 0.0345603 -1.49934 0.04 
159 1 1 0.355298 -0.749648 -0.959901 0 0 0 0.0274311 0.106346 0.218134 -18.2601 -10.8008 -8.12599 -4.30431 0.746992 0.235169 0.04 
688 1 1 0.47718 -0.785909 -0.957447 0 0 0 0.283465 0.262544 -0.142676 0 0 -6.57473 1.95333 -6.12723 -0.603537 0.04 
519 1 1 0.661708 -0.745095 -0.960917 0 0 0 -0.147145 0.191749 0.0348927 4.56224 -2.29483 38.4913 -2.60452 -0.791526 1.82045 0.04 
603 1 1 0.817135 -0.758863 -0.957835 0 0 0 -0.0328704 0.079049 0.46259 0 0 -6.57473 -2.56848 -0.406577 -0.830048 0.04 
188 1 1 0.897157 -0.743038 -0.960556 0 0 0 -0.164236 0.0732877 0.0931133 3.85774 37.6308 -5.26274 1.28265 -2.67212 0.487755 0.04 
972 1 1 0.959612 -0.79507 -0.959565 0 0 0 0.0588751 0.127634 -0.0262799 0 0 -6.57473 -2.57032 -1.03518 -1.50044 0.04 
488 1 1 -0.960535 -0.69993 -0.960225 0 0 0 0.0524722 0.128534 -0.0544658 25.2759 3.36164 -2.1445 -2.55208 -0.397479 -1.37341 0.04 
564 1 1 -0.741547 -0.724851 -0.957993 0 0 0 0.154556 0.0957201 -0.447096 -6.81804 -7.19442 -9.07661 -0.197266 4.11756 5.18742 0.04 
314 1 1 -0.65994 -0.72582 -0.95643 0 0 0 -0.0459483 -0.155879 0.302385 -12.5031 9.16336 -25.275 -1.12981 -3.13592 5.28975 0.04 
1127 1 1 -0.560673 -0.727276 -0.960459 0 0 0 0.106245 0.147619 0.23133 -0.440679 -1.04057 16.0261 -2.66788 2.23149 -1.35822 0.04 
85 1 1 -0.408378 -0.712738 -0.959559 0 0 0 -0.0459132 0.380219 -0.322062 0 0 -6.57473 -0.538275 -0.442585 -1.56877 0.04 
511 1 1 -0.304401 -0.689551 -0.959604 0 0 0 0.242558 0.344709 -0.176145 0 0 -6.57473 -1.94737 2.30069 -1.19625 0.04 
873 1 1 -0.207316 -0.669381 -0.959603 0 0 0 0.090974 0.196358 -0.003925 -25.2078 8.473 -42.4967 -3.6923 2.88352 -0.609906 0.04 
204 1 1 -0.0550532 -0.713029 -0.959896 0 0 0 0.0627147 0.119386 -0.0269067 -15.7431 -4.68055 -20.7088 -3.16958 -0.541457 0.20447 0.04 
581 1 1 0.0525626 -0.67097 -0.960331 0 0 0 -0.228511 0.165831 0.0645986 -2.10806 5.96601 10.554 -1.40399 -1.62824 0.524678 0.04 
1088 1 1 0.132037 -0.678357 -0.958772 0 0 0 -0.0347626 0.255867 0.0349055 4.76426 -0.608031 -6.30587 -2.5105 0.452268 -0.0497577 0.04 
862 1 1 0.212444 -0.679279 -0.958047 0 0 0 -0.171246 0.0382509 0.0392562 -21.6552 16.535 -20.1977 -2.15422 -1.77321 -3.69577 0.04 
967 1 1 0.285303 -0.711004 -0.96028 0 0 0 -0.0971132 0.177562 0.175126 15.7392 -16.683 5.07595 -2.99889 0.121626 0.324659 0.04 
656 1 1 0.352854 -0.668847 -0.960309 0 0 0 0.0142938 0.00863437 -0.121534 -3.70343 1.56563 12.7339 -2.13283 0.152996 -1.27339 0.04 
451 1 1 0.425361 -0.712314 -0.957659 0 0 0 0.00973748 0.0785725 0.0464377 18.774 10.5286 -4.99346 -0.199147 1.36343 -1.13252 0.04 
177 1 1 0.505636 -0.71041 -0.959656 0 0 0 0.0805776 -0.056517 0.13218 0 0 -6.57473 -0.606029 -1.52863 -1.93477 0.04 
757 1 1 0.583445 -0.729508 -0.961927 0 0 0 -0.219462 0.1208 -0.363003 -3.01214 7.72906 105.914 -0.413523 -0.736283 4.66239 0.04 
439 1 1 0.744966 -0.721045 -0.961235 0 0 0 0.0313192 0.0015909 0.0475288 7.47298 13.0121 34.1338 -1.26745 0.678854 -2.34056 0.04 
662 1 1 0.809853 -0.67498 -0.954609 0 0 0 -0.122404 -0.232215 -0.205782 6.18632 4.22132 -5.59945 -1.44095 0.335082 -1.61768 0.04 
987 1 1 0.959876 -0.688188 -0.960584 0 0 0 0.204513 0.110368 -0.172358 18.3983 -1.52753 11.4464 -3.54782 1.42503 -3.24492 0.04 
260 1 1 -0.959827 -0.602887 -0.95916 0 0 0 -0.034782 0.0128163 -0.0866603 -9.84943 -3.74023 -5.96503 -1.59695 0.0292542 0.0264864 0.04 
532 1 1 -0.882817 -0.657333 -0.959093 0 0 0 0.126742 -0.0765328 0.0421554 0 0 -6.57473 -1.17372 2.06635 3.60926 0.04 
826 1 1 -0.801373 -0.631019 -0.961121 0 0 0 0.0512362 0.160276 -0.00380942 11.0668 -73.8111 -26.8837 -4.28166 -2.43091 -0.435669 0.04 
567 1 1 -0.702684 -0.655342 -0.961687 0 0 0 -0.11427 0.161678 0.221786 -1.23403 -3.45336 82.989 -1.93484 0.622836 -2.88036 0.04 
925 1 1 -0.643921 -0.601727 -0.960705 0 0 0 0.249594 0.111181 -0.0801101 8.46376 10.0821 34.2982 -1.92316 1.47739 1.86334 0.04 
170 1 1 -0.530021 -0.647679 -0.960932 0 0 0 0.0395897 -0.0809287 0.0256618 -27.5042 26.1953 12.7478 -0.547526 1.35506 0.594942 0.04 
375 1 1 -0.447525 -0.638266 -0.960865 0 0 0 0.212745 -0.0233323 -0.0653594 -1.74736 1.72146 42.4832 -3.80222 0.917972 -0.334372 0.04 
709 1 1 -0.362378 -0.632982 -0.960234 0 0 0 -0.0386005 -0.0513498 -0.0728258 -2.67916 -1.51994 0.0473437 -2.48576 1.07953 1.21251 0.04 
631 1 1 -0.268978 -0.613444 -0.959256 0 0 0 -0.172657 0.21583 -0.124564 0 0 -6.57473 -2.65195 2.14373 3.36087 0.04 
738 1 1 -0.110894 -0.649623 -0.958461 0 0 0 -0.191071 0.0820477 -0.165471 0 0 -6.57473 0.945838 -1.52132 0.906728 0.04 
1046 1 1 -0.0206318 -0.636978 -0.96111 0 0 0 -0.0553088 -0.00965092 -0.0440695 2.38064 2.02003 55.8687 -1.36468 0.495065 -0.0378447 0.04 
61 1 1 0.172492 -0.608839 -0.96094 0 0 0 -0.126077 0.0806767 -0.031024 3.77646 -30.8318 37.3842 -1.55874 1.18979 -0.238253 0.04 
1052 1 1 0.278032 -0.631574 -0.959674 0 0 0 -0.130669 0.224179 0.114533 -1.16498 8.19906 -6.48491 1.59713 1.15233 3.31307 0.04 
1082 1 1 0.423363 -0.63201 -0.958392 0 0 0 -0.1531 0.0510715 0.0729541 -12.5269 2.76954 -6.94992 1.62788 -1.26414 -3.05936 0.04 
255 1 1 0.502108 -0.62346 -0.959064 0 0 0 0.0225218 -0.0568011 0.102646 9.34715 0.466075 -6.89266 -1.31906 0.405453 0.759025 0.04 
880 1 1 0.627507 -0.66266 -0.959005 0 0 0 0.0491462 -0.131088 -0.0572975 0 0 -6.57473 -2.30903 0.0332853 1.19186 0.04 
543 1 1 0.742373 -0.631872 -0.959148 0 0 0 -0.224045 0.101476 -0.15007 15.1478 15.9534 -19.8749 0.189723 4.31966 0.0154056 0.04 
553 1 1 0.888152 -0.654281 -0.959892 0 0 0 0.168181 0.395966 0.0343379 -13.8384 -0.0859757 -24.0249 -0.799031 -1.5489 4.13713 0.04 
252 1 1 0.960356 -0.608355 -0.95972 0 0 0 0.021141 0.290417 -0.0169384 -19.9151 3.56567 -6.52552 0.427192 1.03019 1.27647 0.04 
990 1 1 -0.88522 -0.574805 -0.959793 0 0 0 -0.0560673 -0.0198194 0.0322233 7.09883 -15.6397 -28.38 -4.74148 -2.69219 -0.274434 0.04 
1152 1 1 -0.740183 -0.563628 -0.960233 0 0 0 -0.0985426 0.0903368 0.0186999 -15.0931 -7.57428 -2.20246 0.637906 -1.09274 1.17211 0.04 
893 1 1 -0.548895 -0.561954 -0.960716 0 0 0 0.178825 0.0702433 -0.00110151 10.5868 -18.8511 -6.81126 -1.65486 1.48458 3.7565 0.04 
1448 1 1 -0.40165 -0.562323 -0.958465 0 0 0 0.242703 0.307374 -0.0631696 -5.31822 -11.3337 -21.8011 -1.77176 0.681109 1.66286 0.04 
883 1 1 -0.22788 -0.540544 -0.959774 0 0 0 -0.0130579 0.184642 -0.120074 0 0 -6.57473 -3.7853 0.118024 1.25079 0.04 
962 1 1 -0.154092 -0.572241 -0.960424 0 0 0 -0.0682364 0.312826 0.0840209 7.60584 3.20103 -8.50026 -6.11666 0.0179652 -0.874165 0.04 
950 1 1 -0.0744852 -0.577037 -0.960256 0 0 0 -0.0796987 0.198594 0.0554575 9.49059 -0.581156 7.67868 -3.39493 0.487167 -1.9587 0.04 
716 1 1 0.007212 -0.556672 -0.960024 0 0 0 0.028318 -0.0457671 -0.20116 4.80417 -4.59077 -23.5148 0.0662903 1.95292 -2.10158 0.04 
388 1 1 0.0797325 -0.595012 -0.960099 0 0 0 0.171762 0.131015 0.0688203 -0.0531096 -4.11525 -1.79528 -3.36807 2.45015 -1.34916 0.04 
867 1 1 0.205853 -0.536664 -0.960462 0 0 0 -0.0303729 -0.0607363 -0.0525161 19.5466 22.353 10.1271 -1.41621 0.206455 -1.8564 0.04 
576 1 1 0.327317 -0.565895 -0.960287 0 0 0 -0.216192 0.151471 -0.080196 -18.5113 8.82771 -7.64682 -1.30643 -2.4534 0.669667 0.04 
408 1 1 0.405597 -0.5518 -0.954151 0 0 0 -0.0698506 0.150898 0.0988857 -7.72156 2.71273 -17.2851 1.17598 -4.70064 2.54661 0.04 
814 1 1 0.512502 -0.542094 -0.95718 0 0 0 -0.0754963 0.25119 0.0498056 -3.77146 -11.1425 -10.962 1.18416 -2.94182 -0.215666 0.04 
1026 1 1 0.577976 -0.599787 -0.961246 0 0 0 0.0215325 0.04029 -0.0492991 17.0657 4.71786 59.6058 -2.59478 2.06642 -1.12687 0.04 
1111 1 1 0.674549 -0.583207 -0.958876 0 0 0 -0.0888747 -0.055171 0.00764729 6.34127 -4.20404 -16.3236 -0.00622795 -0.328846 -0.554249 0.04 
1138 1 1 0.743855 -0.543439 -0.959668 0 0 0 -0.169256 0.297377 0.0874721 21.9767 -12.1128 -6.50387 -3.7252 -1.44016 1.88162 0.04 
58 1 1 0.811217 -0.590153 -0.960413 0 0 0 0.156971 0.254887 0.0370569 -0.496341 -1.01109 15.9522 3.01993 -0.682143 -1.48455 0.04 
1107 1 1 0.886822 -0.563605 -0.950381 0 0 0 0.0297085 0.0280231 -0.0297733 0 0 -6.57473 -0.956491 0.587109 1.61812 0.04 
670 1 1 -0.957969 -0.504592 -0.959072 0 0 0 0.0987145 0.102403 -0.0363977 0 0 -6.57473 -2.9645 0.573837 -0.126734 0.04 
565 1 1 -0.814292 -0.528579 -0.959832 0 0 0 0.0876888 0.0985652 -0.0910743 -1.38489 22.0066 -32.1322 -0.491542 2.42379 0.662566 0.04 
435 1 1 -0.605974 -0.505579 -0.959391 0 0 0 0.0887693 -0.352315 0.00758817 12.861 6.26202 -12.7237 1.82202 -0.411036 -0.185172 0.04 
816 1 1 -0.487314 -0.499816 -0.960444 0 0 0 0.0151345 0.157469 -0.168613 -11.3438 20.7218 -7.86833 -2.78647 0.0416039 3.24186 0.04 
344 1 1 -0.408266 -0.482095 -0.960386 0 0 0 0.0604504 0.0950311 0.214618 -2.64665 -11.0689 1.7869 -1.86782 0.419893 1.85862 0.04 
489 1 1 -0.324906 -0.530135 -0.961043 0 0 0 0.0327208 0.487429 0.103232 -30.2988 14.5072 5.79284 -1.1012 -0.582879 -0.599189 0.04 
305 1 1 -0.168186 -0.48106 -0.960296 0 0 0 0.0772826 0.170941 -0.0291255 -29.8989 1.01891 -14.0986 -3.07691 0.78706 -0.657569 0.04 
1066 1 1 -0.0460798 -0.496883 -0.960661 0 0 0 0.127646 -0.213936 0.0652904 9.60836 2.60095 18.4868 0.890535 2.06444 1.62383 0.04 
143 1 1 0.0781257 -0.515148 -0.960036 0 0 0 0.211378 0.170764 -0.00628884 -0.243745 4.04527 -4.675 -0.431559 2.0498 1.27694 0.04 
1346 1 1 0.151054 -0.478343 -0.956185 0 0 0 0.0413082 0.129796 0.0506155 0 0 -6.57473 -2.50542 2.51514 -0.167533 0.04 
1000 1 1 0.277171 -0.499497 -0.960236 0 0 0 -0.0882081 0.0370819 0.0679926 -1.01562 -3.39555 5.42729 -1.07102 -2.02442 2.3475 0.04 
792 1 1 0.357734 -0.483036 -0.960313 0 0 0 0.178507 0.147505 -0.302329 6.75433 -20.843 -4.98698 -1.39127 -1.1385 -0.0687434 0.04 
1361 1 1 0.45005 -0.485717 -0.960628 0 0 0 -0.179197 0.170496 0.0983846 3.56352 2.01442 26.9633 -3.44118 -3.51915 -3.11961 0.04 
1288 1 1 0.596513 -0.520673 -0.960526 0 0 0 -0.00526065 -0.0176787 0.161308 -8.72679 3.88113 7.74046 0.596005 -0.41938 -0.245447 0.04 
908 1 1 0.675872 -0.50231 -0.95963 0 0 0 0.165162 -0.116427 -0.0874802 -19.6862 13.2857 -6.70976 -4.14622 0.772363 0.492667 0.04 
1309 1 1 0.816736 -0.509296 -0.958529 0 0 0 -0.0713301 -0.119695 0.0204941 -3.97017 -2.38594 -6.57087 -1.64093 -1.32387 5.68443 0.04 
771 1 1 0.958513 -0.518232 -0.958732 0 0 0 -0.0332485 -0.178604 0.149398 0 0 -6.57473 -2.09732 1.40109 -1.29021 0.04 
1055 1 1 -0.959473 -0.418839 -0.956913 0 0 0 -0.0553085 0.210391 0.0562568 -0.0797997 7.47182 -19.9675 -4.16914 -1.89796 1.49519 0.04 
739 1 1 -0.887668 -0.46191 -0.959176 0 0 0 -0.00710539 0.222274 0.0197762 -6.39288 -5.62844 -6.30342 -1.97494 0.532009 -4.09214 0.04 
1142 1 1 -0.825923 -0.411336 -0.958922 0 0 0 0.0177231 -0.157719 0.0723187 5.31479 -20.5215 -7.55466 -1.20795 1.6559 1.49515 0.04 
644 1 1 -0.759101 -0.458157 -0.959841 0 0 0 -0.0168687 0.0950296 0.0241214 0.154166 0.856063 -6.54313 -0.506822 2.20298 -0.165636 0.04 
833 1 1 -0.672243 -0.456894 -0.959841 0 0 0 0.093625 0.0533381 0.16501 0 0 -6.57473 -2.25568 -0.132503 -0.429723 0.04 
620 1 1 -0.546987 -0.445662 -0.960234 0 0 0 -0.00991207 -0.160316 0.0630088 0.175615 0.586151 5.66314 -0.631907 1.14516 2.12244 0.04 
1316 1 1 -0.468542 -0.421708 -0.952219 0 0 0 0.184869 -0.142362 -0.256801 -1.78462 -15.0227 -3.44157 3.24948 1.58369 1.78482 0.04 
247 1 1 -0.340349 -0.431876 -0.960036 0 0 0 -0.0751801 0.0330495 0.250066 8.83472 -1.16232 -16.6337 -2.79324 -1.87281 3.69074 0.04 
382 1 1 -0.260721 -0.461699 -0.955796 0 0 0 0.0655759 0.304763 0.0747358 0 0 -6.57473 -3.49858 0.231337 2.30337 0.04 
868 1 1 -0.173022 -0.40155 -0.958811 0 0 0 -0.0241523 0.252522 -0.131555 2.5907 18.8854 -25.9606 0.956643 -4.08374 1.31325 0.04 
1271 1 1 -0.0988116 -0.433027 -0.959894 0 0 0 -0.202794 -0.185848 -0.11913 12.9616 3.09273 -23.844 -0.282895 -3.78097 -1.5905 0.04 
1249 1 1 0.0284275 -0.45156 -0.958523 0 0 0 0.0298857 0.0613754 -0.0487679 0 0 -6.57473 -1.24354 0.563663 -1.88245 0.04 
1030 1 1 0.101331 -0.414192 -0.958856 0 0 0 0.0574819 0.119689 -0.150697 5.70306 24.927 -42.4489 -1.90626 2.66795 -2.25967 0.04 
1148 1 1 0.223389 -0.440255 -0.959384 0 0 0 0.0011225 0.059744 -0.110199 -0.700536 -1.7418 -6.63091 0.931571 1.81591 -3.44915 0.04 
772 1 1 0.304176 -0.424375 -0.957198 0 0 0 -0.100367 0.0519161 -0.0468625 -5.67326 12.5968 -6.21757 -1.41992 -2.20219 1.04165 0.04 
845 1 1 0.384667 -0.406832 -0.957117 0 0 0 -0.152926 0.0369402 -0.247884 0 0 -6.57473 -3.97687 -2.41986 -0.829812 0.04 
1047 1 1 0.619077 -0.444103 -0.960547 0 0 0 0.138514 0.0266854 -0.0469554 -2.70319 -5.65798 23.7996 -0.744099 0.133116 -1.46159 0.04 
1474 1 1 0.697119 -0.422702 -0.959623 0 0 0 -0.158346 -0.325338 -0.0903973 0 0 -6.57473 -0.699876 -1.02944 0.443739 0.04 
840 1 1 0.782 -0.426595 -0.960299 0 0 0 0.030721 -0.0272115 -0.0665951 11.7034 14.1243 -3.46798 -1.00755 1.92896 -2.85014 0.04 
9 1 1 0.88306 -0.464828 -0.959136 0 0 0 -0.207209 0.267776 0.009264 3.38809 2.14768 -6.5618 0.941344 0.67492 1.26417 0.04 
852 1 1 0.95838 -0.438026 -0.959836 0 0 0 0.0353722 0.0857744 0.309456 11.5674 -28.287 -8.41438 -1.00474 -4.1832 3.56259 0.04 
326 1 1 -0.8942 -0.369198 -0.959531 0 0 0 0.0218975 -0.0308403 0.133584 -2.92062 9.30353 -20.3016 0.690268 1.04554 -1.74807 0.04 
1246 1 1 -0.744928 -0.379446 -0.960933 0 0 0 0.00798865 0.294024 0.243696 -0.47438 -3.278 42.2539 -4.91005 -0.13789 0.42463 0.04 
613 1 1 -0.612135 -0.38989 -0.957585 0 0 0 -0.246046 0.304226 -0.324494 0 0 -6.57473 -4.18218 3.26891 0.506303 0.04 
857 1 1 -0.51875 -0.360412 -0.960167 0 0 0 -0.00922577 0.18899 0.113241 0.901986 12.9374 -28.5216 -0.836986 1.22821 -2.4159 0.04 
92 1 1 -0.406515 -0.372191 -0.959528 0 0 0 0.0588206 0.0321988 0.0909879 13.392 -3.81248 -9.83021 -0.811681 0.277759 -1.75409 0.04 
1124 1 1 -0.257284 -0.381744 -0.959983 0 0 0 -0.0742017 0.07358 -0.00351764 -0.651326 0.511361 -7.60345 -2.79644 0.957571 -1.52979 0.04 
1010 1 1 -0.111169 -0.348657 -0.96035 0 0 0 0.0401528 0.209915 -0.0572147 0.773234 -6.19421 13.39 -0.768836 -0.0472465 -1.41125 0.04 
1223 1 1 -0.0266478 -0.383442 -0.960028 0 0 0 -0.0834717 -0.183704 0.197265 1.08075 -8.30933 -7.84896 -1.78248 -1.83599 2.56616 0.04 
144 1 1 0.0530153 -0.350556 -0.959907 0 0 0 -0.140992 -0.109718 0.162915 -11.942 -0.541083 -28.3433 -0.714784 -1.57252 -0.619943 0.04 
315 1 1 0.171749 -0.373304 -0.960483 0 0 0 0.151064 -0.256576 -0.0166099 -22.9828 0.0293324 20.1422 0.50769 1.34298 0.442141 0.04 
1187 1 1 0.250712 -0.365159 -0.959959 0 0 0 0.136441 0.191869 -0.226567 11.3134 -42.3651 -53.4539 -1.62953 1.13965 0.548304 0.04 
677 1 1 0.467739 -0.396431 -0.959815 0 0 0 -0.112342 0.207095 0.0960214 -19.1884 -32.8614 -4.30275 -3.39823 0.50324 -1.06998 0.04 
981 1 1 0.548752 -0.398442 -0.960033 0 0 0 0.00617984 -0.204376 -0.045742 25.1341 -59.8263 -26.0558 -2.2243 -1.23204 0.272011 0.04 
361 1 1 0.635018 -0.366102 -0.956477 0 0 0 -0.010461 -0.104237 -0.172009 2.71135 11.244 -5.56847 0.585789 -1.75769 1.47955 0.04 
764 1 1 0.708766 -0.332985 -0.958896 0 0 0 0.260749 0.147413 -0.0745017 -22.0491 4.68785 -5.72763 -0.380473 -1.12962 0.124759 0.04 
499 1 1 0.786938 -0.346891 -0.958931 0 0 0 0.235107 0.34151 0.128519 -14.2396 18.7313 -11.3432 -2.22805 1.55847 -0.122494 0.04 
398 1 1 0.852784 -0.389965 -0.953086 0 0 0 -0.129367 0.247552 0.0741309 36.3935 -21.4281 -2.71708 -2.00018 -0.925505 0.306218 0.04 
975 1 1 0.929697 -0.364253 -0.959068 0 0 0 -0.143078 0.0832283 -0.0114173 -28.0511 -6.26538 -36.4551 0.59051 1.81221 -0.0241285 0.04 
982 1 1 -0.960535 -0.32412 -0.960883 0 0 0 0.180738 -0.055222 0.00488818 25.4668 2.17105 41.0144 -0.208148 1.86213 -0.188432 0.04 
995 1 1 -0.888515 -0.289018 -0.959722 0 0 0 0.00857932 -0.0299498 -0.163279 -1.19704 2.7416 -11.3074 -0.857974 1.48365 -0.625753 0.04 
1215 1 1 -0.820553 -0.332258 -0.960128 0 0 0 -0.0134699 -0.0583746 -0.0811178 -24.2976 29.7459 -28.661 -1.14344 -1.54898 -0.493879 0.04 
76 1 1 -0.753811 -0.285383 -0.959943 0 0 0 0.158682 -0.196319 0.0769942 -18.9118 -15.2404 -7.33431 -2.19893 -1.59099 1.74695 0.04 
969 1 1 -0.671615 -0.327703 -0.960412 0 0 0 0.0620169 0.115464 0.00747691 4.05497 8.86773 -0.712858 -0.872519 -0.0217515 2.28333 0.04 
230 1 1 -0.593503 -0.309838 -0.960942 0 0 0 0.0926094 -0.0124887 0.0142186 0.793965 4.87465 39.4123 -2.65818 0.0831632 2.23216 0.04 
116 1 1 -0.456726 -0.310338 -0.958633 0 0 0 0.0915889 0.0327714 0.0106132 -7.38887 16.6919 -14.5113 -2.80853 -0.729195 0.505893 0.04 
978 1 1 -0.349643 -0.31611 -0.960377 0 0 0 0.139692 0.108932 -0.0951741 3.49339 -7.31606 -7.86759 -2.91515 -0.844199 3.29855 0.04 
1155 1 1 -0.271167 -0.302973 -0.960412 0 0 0 0.10544 0.173391 0.0288237 -2.85074 -12.1393 13.9597 -2.53623 0.196658 0.367374 0.04 
1214 1 1 -0.193343 -0.321224 -0.957241 0 0 0 -0.280151 0.261154 0.161604 -11.3999 5.1528 -36.4957 -1.1809 -1.3449 -4.0986 0.04 
1451 1 1 -0.128746 -0.270732 -0.959628 0 0 0 -0.0701412 0.0342084 -0.356374 -1.00195 5.20957 -6.32231 1.23412 0.515551 -1.51664 0.04 
201 1 1 -0.0339538 -0.304027 -0.960311 0 0 0 0.0981272 -0.0727532 -0.0623096 -7.86921 -34.2527 -31.8479 -0.0778402 0.39713 -2.57762 0.04 
1062 1 1 0.0429497 -0.270637 -0.957347 0 0 0 -0.10315 0.0330018 -0.557235 2.69649 -4.63429 -6.15049 0.953853 -0.717167 1.06122 0.04 
404 1 1 0.12653 -0.301155 -0.959254 0 0 0 0.065862 -0.113256 -0.137792 0 0 -6.57473 -0.494341 0.247832 0.433217 0.04 
1216 1 1 0.210774 -0.296159 -0.959749 0 0 0 -0.11766 0.100658 -0.164132 -4.52498 -13.8705 -50.7262 -1.1672 1.00155 1.371 0.04 
780 1 1 0.293099 -0.269737 -0.959625 0 0 0 0.19326 0.130888 -0.262271 -27.5963 -27.6579 -4.73597 -1.97935 0.707906 -3.78784 0.04 
220 1 1 0.355592 -0.331824 -0.960127 0 0 0 0.0956765 -0.0298628 -0.0485077 -0.375413 0.0796937 1.10084 0.11751 -0.573149 -2.05487 0.04 
624 1 1 0.439133 -0.292005 -0.958991 0 0 0 0.0987511 -0.0404577 -0.0133696 0 0 -6.57473 -0.803527 0.512744 -1.36448 0.04 
309 1 1 0.5102 -0.329886 -0.962098 0 0 0 0.104518 0.0341427 0.185415 -9.37053 43.5302 67.6598 1.83528 3.42115 0.416196 0.04 
1074 1 1 0.58581 -0.302786 -0.961433 0 0 0 0.203279 -0.378696 0.154357 -3.05433 2.41511 71.3012 5.06213 -0.617657 1.29891 0.04 
342 1 1 0.66111 -0.268249 -0.95915 0 0 0 0.145812 0.0535396 0.299941 0 0 -6.57473 -1.63693 4.18009 -0.638394 0.04 
1163 1 1 0.760551 -0.270594 -0.961152 0 0 0 -0.0458656 -0.0469652 -0.025255 6.29887 -13.0925 41.6395 1.08947 -0.33345 2.40748 0.04 
182 1 1 0.847246 -0.294189 -0.960175 0 0 0 0.199306 -0.00213047 0.0140833 -0.445614 0.171648 2.97588 -1.74832 0.316218 -1.99318 0.04 
657 1 1 -0.957166 -0.240924 -0.960649 0 0 0 0.0763666 0.0180071 -0.200146 -1.69124 -0.480044 30.2803 -2.02087 -1.51803 0.879595 0.04 
1279 1 1 -0.82068 -0.241959 -0.960181 0 0 0 -0.17406 -0.0272758 -0.175949 -5.59573 4.0385 6.02291 -1.90771 -0.87025 1.29683 0.04 
471 1 1 -0.748648 -0.203053 -0.960281 0 0 0 -0.0675759 0.0114459 -0.0469116 13.6281 -8.28691 10.9545 -1.29507 0.189511 0.799084 0.04 
905 1 1 -0.683462 -0.248895 -0.960174 0 0 0 0.0359813 0.0633868 0.00925085 14.7723 5.81382 3.66322 -0.0780026 -0.311651 0.479646 0.04 
1286 1 1 -0.607249 -0.226017 -0.959037 0 0 0 -0.0159147 0.0239498 0.113461 18.5741 -2.83552 -64.4247 -2.83647 -1.17346 -1.78602 0.04 
1037 1 1 -0.521545 -0.258118 -0.960522 0 0 0 -0.067735 -0.181782 0.234243 3.41877 13.1209 5.80043 -1.39707 -0.479977 0.224055 0.04 
945 1 1 -0.462339 -0.202029 -0.959228 0 0 0 0.0017088 0.0513186 0.156133 0.65679 12.1595 -19.4732 0.246099 0.177817 1.35385 0.04 
1205 1 1 -0.400591 -0.253097 -0.959501 0 0 0 0.142587 0.148172 -0.0149303 -39.8315 -4.91125 -5.82773 0.0298881 -1.07801 0.59973 0.04 
710 1 1 -0.322578 -0.241074 -0.95783 0 0 0 -0.0877707 0.281725 0.0682434 38.5593 14.7549 -21.5971 -0.112002 3.26331 0.0982739 0.04 
168 1 1 -0.220663 -0.241616 -0.96041 0 0 0 -0.172217 0.119133 0.03392 8.69748 21.1786 0.0485483 -1.51645 0.236729 -1.85758 0.04 
1348 1 1 -0.0746818 -0.208973 -0.960732 0 0 0 -0.153737 0.203948 0.0934074 -1.19184 -2.08139 32.9372 0.86139 -4.15849 -0.420244 0.04 
1378 1 1 0.0047375 -0.200551 -0.960336 0 0 0 0.369848 0.163009 0.121034 -1.80128 13.5934 -7.35764 0.22042 0.937727 -2.50501 0.04 
1301 1 1 0.0963981 -0.21038 -0.959511 0 0 0 -0.0126836 -0.00772323 -0.0817796 -0.757395 0.130086 -6.53239 0.0857892 -0.331587 0.738304 0.04 
1201 1 1 0.175415 -0.222596 -0.960147 0 0 0 0.11129 0.104818 -0.0111311 0.454498 -0.415919 1.71235 -0.049008 0.0535823 1.98448 0.04 
1069 1 1 0.36969 -0.250089 -0.960236 0 0 0 0.069814 -0.390359 0.0050671 37.9278 -4.00359 -25.1941 1.23191 -2.36355 -0.996951 0.04 
1078 1 1 0.522233 -0.251548 -0.961109 0 0 0 0.0753861 0.0182199 0.462208 2.25813 25.1301 48.2385 1.95888 -0.245864 -0.506807 0.04 
974 1 1 0.707988 -0.202639 -0.959711 0 0 0 0.0725943 0.179949 0.242511 0 0 -6.57473 1.45016 -0.0778502 2.76502 0.04 
915 1 1 0.918079 -0.256642 -0.959032 0 0 0 -0.219921 -0.0159998 0.0436699 0 0 -6.57473 -1.16392 -2.41368 -3.87748 0.04 
1239 1 1 -0.959384 -0.159185 -0.960414 0 0 0 0.0304385 -0.0221274 0.00969657 -1.63062 -24.8474 -15.6716 -1.16565 0.17655 1.55348 0.04 