ITEM: TIMESTEP
79400
ITEM: NUMBER OF ATOMS
1500
ITEM: BOX BOUNDS ff ff ff
-1 1
-1 1
-1 1
ITEM: ATOMS id type type x y z ix iy iz vx vy vz fx fy fz omegax omegay omegaz radius 
137 1 1 -0.960113 -0.960145 -0.960203 0 0 0 -7.51053e-05 1.75666e-05 8.45689e-05 0.0152111 -0.0101826 -0.00103217 0.000110599 -0.00354859 0.00130177 0.04 
5 1 1 -0.830903 -0.960159 -0.960271 0 0 0 -2.12698e-05 -7.82088e-05 -7.84012e-05 0.00425815 -0.00113245 -0.0020664 0.000400323 -0.00283759 0.000755518 0.04 
239 1 1 -0.75099 -0.960145 -0.960247 0 0 0 3.86613e-05 2.16746e-05 -0.000116202 0.000615704 0.00699153 0.0105419 -0.00323159 0.00280957 0.00109702 0.04 
34 1 1 -0.671035 -0.960042 -0.960242 0 0 0 5.56302e-05 -1.26119e-05 -0.000191238 -0.00957076 -0.0117168 0.00836172 -0.00118452 0.00176809 -0.0010042 0.04 
415 1 1 -0.59109 -0.960032 -0.960296 0 0 0 2.9368e-05 -3.09218e-05 -0.000161239 -0.0350356 -0.0287175 -0.021236 3.87652e-05 0.00229932 -0.000522918 0.04 
138 1 1 -0.51108 -0.960076 -0.960242 0 0 0 0.000389486 -8.0895e-05 2.31259e-06 0.00503029 -0.00627508 0.012089 0.00142827 0.00565205 -0.00769905 0.04 
323 1 1 -0.431092 -0.960001 -0.960143 0 0 0 0.000632277 0.000144847 -0.000286064 0.0270913 -0.000807057 0.0803064 -0.00340961 0.0146439 -0.00262331 0.04 
130 1 1 -0.351117 -0.960058 -0.96022 0 0 0 0.000647781 9.42866e-05 9.50412e-05 -0.00783 0.0499756 -0.00746744 0.00211798 0.014657 0.00163878 0.04 
502 1 1 -0.271168 -0.960079 -0.960286 0 0 0 0.000831011 -0.000681134 1.36587e-05 -0.0968011 0.00761273 -0.169156 0.0210083 0.0218381 -0.0345795 0.04 
494 1 1 -0.180289 -0.960154 -0.960212 0 0 0 0.0169907 -0.000226449 0.000434672 -0.0911562 -0.155837 -0.0859749 0.00083163 0.424444 -0.373439 0.04 
448 1 1 -0.100305 -0.960041 -0.960265 0 0 0 0.0183301 0.000443746 -0.000550733 -0.0994839 0.0750944 -0.0380302 -0.0336731 0.486222 -0.133759 0.04 
147 1 1 -0.0203409 -0.960027 -0.960221 0 0 0 0.0188886 -0.000528302 -0.00324841 -0.320341 -0.00845364 -0.271985 0.00230904 0.495201 -0.195303 0.04 
218 1 1 0.060519 -0.960029 -0.960177 0 0 0 0.0171245 -0.00279092 -0.00110379 -0.195189 -0.0529742 -0.182325 0.11325 0.444842 -0.370325 0.04 
339 1 1 0.153301 -0.960159 -0.960207 0 0 0 -0.0133226 -0.0065778 -0.00268353 -0.47699 -0.0696805 -0.218224 0.0534678 -0.0102162 -0.0116296 0.04 
81 1 1 0.233199 -0.960053 -0.960156 0 0 0 -0.0076935 -0.00234968 -0.00175425 -0.509735 -0.3381 0.325993 -0.00252574 -0.132958 0.221886 0.04 
341 1 1 0.313121 -0.960045 -0.960144 0 0 0 -0.0122948 0.000644283 0.0011109 0.442211 0.0751748 -0.0640403 -0.0213993 -0.371509 0.136121 0.04 
203 1 1 0.393075 -0.960104 -0.960234 0 0 0 -0.0141893 -0.000411823 0.00113493 0.0926127 0.0878406 0.114732 0.0335761 -0.378494 0.308797 0.04 
1019 1 1 0.473809 -0.960019 -0.960207 0 0 0 -0.00217589 -0.000302811 9.18037e-07 0.106406 0.0606658 0.158065 0.0125886 -0.0513073 0.0817641 0.04 
821 1 1 0.553831 -0.960039 -0.960237 0 0 0 -0.0018708 0.000235416 -0.000101062 0.0276801 0.0270204 0.065879 -0.0067341 -0.0392809 0.0487409 0.04 
636 1 1 0.63383 -0.960471 -0.960201 0 0 0 -0.00185261 0.000131054 0.000377203 0.044006 -0.00402272 0.0164975 0.00595745 -0.0429505 0.0449441 0.04 
729 1 1 0.720238 -0.960012 -0.96016 0 0 0 -0.000421324 3.14897e-05 0.000174957 0.00334927 -0.0187853 -0.0231856 -0.0025001 -0.00981818 0.00550774 0.04 
503 1 1 0.800202 -0.960026 -0.960137 0 0 0 -0.000300491 -2.92212e-05 -5.66028e-05 -0.0100034 -0.00495757 0.0113307 -0.000677516 -0.00812846 0.00672469 0.04 
424 1 1 0.880173 -0.960035 -0.960162 0 0 0 -0.000112961 -3.93742e-05 -8.6232e-05 0.00274138 -0.000832594 0.00883212 -0.00050337 -0.00254287 0.00214567 0.04 
850 1 1 0.960098 -0.958939 -0.960221 0 0 0 -3.65716e-05 1.11003e-05 -3.31017e-05 -0.00560146 -0.0086402 0.00178302 0.000251518 -0.00078685 -0.000614463 0.04 
778 1 1 -0.959896 -0.880365 -0.960213 0 0 0 -3.21317e-05 1.55858e-05 -4.84033e-05 -0.0286448 -0.0113467 -0.00118386 -0.00148109 0.000393292 -0.000928975 0.04 
918 1 1 -0.880186 -0.897174 -0.960219 0 0 0 -0.000129044 -0.0001171 1.36797e-05 0.00705355 -0.0318028 -0.006862 0.00462223 5.99774e-05 0.00178923 0.04 
246 1 1 -0.791953 -0.890526 -0.96015 0 0 0 -6.36044e-05 -0.000138281 5.50488e-05 -0.00596611 -0.0229215 -0.031853 0.00265186 -4.73533e-05 0.00144606 0.04 
586 1 1 -0.711986 -0.890484 -0.960304 0 0 0 -2.81616e-05 -0.000106564 3.55136e-05 -0.00302262 -0.0262409 0.0139856 0.00558486 -0.00245029 -0.000737617 0.04 
379 1 1 -0.631009 -0.890658 -0.960191 0 0 0 -0.000139738 -2.50961e-05 -0.000176716 0.0289348 -0.0231713 0.00106315 0.000100418 -0.00249285 0.00436344 0.04 
105 1 1 -0.55095 -0.890871 -0.96022 0 0 0 -9.04552e-05 7.9073e-05 -0.000376422 0.0639344 -0.0267074 0.0176164 -0.010544 -0.00676256 0.0178145 0.04 
289 1 1 -0.47102 -0.890676 -0.960221 0 0 0 0.000150586 0.000299077 -0.000304295 -0.0198318 -0.0178895 -0.0394583 -0.00751662 0.00767415 -0.0127355 0.04 
345 1 1 -0.389154 -0.870378 -0.960118 0 0 0 -0.00262522 -0.00195687 -6.71787e-05 0.000875605 -0.000195077 -0.00807026 0.0490469 -0.0654896 0.149076 0.04 
209 1 1 -0.311264 -0.890781 -0.960246 0 0 0 0.0037759 -0.000869512 0.000794925 0.0471157 0.0118783 -0.00944919 0.0102449 0.0972793 -0.0740284 0.04 
647 1 1 -0.225626 -0.894413 -0.960243 0 0 0 0.00836801 -0.00518831 -0.000854266 0.137092 -0.0669246 0.0343079 0.0664559 0.0902816 0.125426 0.04 
700 1 1 -0.142072 -0.890022 -0.96017 0 0 0 0.0187557 -0.00207045 0.000557512 0.527112 -0.256994 0.0333176 0.0798865 0.382444 0.481204 0.04 
616 1 1 -0.0619152 -0.889895 -0.960234 0 0 0 0.00360813 0.00645973 -0.000389351 0.0177341 0.0793964 -0.176825 -0.159372 0.109833 0.349158 0.04 
87 1 1 0.0212989 -0.890199 -0.960148 0 0 0 0.0141883 -0.000769937 -0.002631 0.390332 -0.469505 -0.0686207 0.0115634 0.340422 0.562561 0.04 
655 1 1 0.107117 -0.895032 -0.960265 0 0 0 0.00756695 0.000561831 0.00193612 -0.816914 0.200847 0.199497 0.062263 0.260183 0.233434 0.04 
977 1 1 0.19304 -0.890829 -0.960186 0 0 0 -0.0144754 0.000187341 0.000535989 0.550915 -0.475382 -0.626313 -0.120087 -0.439919 -0.144437 0.04 
19 1 1 0.273091 -0.890823 -0.960249 0 0 0 -0.0152886 0.00125705 0.00146553 0.187304 -0.065211 0.0146901 0.00564652 -0.412325 -0.14419 0.04 
443 1 1 0.353166 -0.890802 -0.96023 0 0 0 -0.0147166 -0.000688746 0.00166592 -0.154747 0.191494 -0.04874 0.0363255 -0.381283 -0.0259163 0.04 
664 1 1 0.43327 -0.891066 -0.960229 0 0 0 -0.0055627 -0.00298921 -0.000181651 0.124124 -0.155661 -0.0740729 0.0651391 -0.133724 -0.15732 0.04 
74 1 1 0.59449 -0.891201 -0.960231 0 0 0 -0.00138743 0.000294629 0.00045662 0.0533303 0.00932576 -0.00334328 0.00488885 0.0247725 -0.0556109 0.04 
50 1 1 0.674336 -0.89197 -0.960172 0 0 0 -0.00140001 0.000402615 7.75395e-05 0.00181182 -0.00891005 0.0239441 -0.0121107 0.000677491 -0.0221115 0.04 
1 1 1 0.749864 -0.86669 -0.960236 0 0 0 -0.000767029 -0.000236132 -0.000214642 0.0155441 -0.0201804 0.0165558 -0.00268983 -0.00206479 0.000339336 0.04 
812 1 1 0.878014 -0.880115 -0.960205 0 0 0 -0.000325257 -9.06916e-05 -0.00011986 -0.000853956 -0.00671801 0.00369358 0.000981237 -0.00740127 0.00399989 0.04 
446 1 1 -0.960235 -0.800676 -0.960211 0 0 0 -0.000149312 -3.33257e-05 -8.27341e-05 -0.0281424 -0.015249 -0.00885967 0.000807823 -0.00168783 0.000493345 0.04 
352 1 1 -0.841054 -0.827425 -0.960336 0 0 0 -0.000207023 -9.18711e-05 -1.86369e-05 -0.00542922 -0.0181657 -0.0368402 -0.000412599 -0.00431493 -0.00125717 0.04 
894 1 1 -0.761856 -0.81657 -0.960286 0 0 0 -0.000138413 -8.36499e-05 0.000123542 -5.45982e-05 -0.0175517 -0.0176002 0.00263448 0.00104978 0.00115891 0.04 
960 1 1 -0.681967 -0.816402 -0.960121 0 0 0 -0.000109433 0.000273996 0.000121254 0.0114205 -0.0538292 -0.00840193 -0.00723905 -0.00228498 0.0073225 0.04 
380 1 1 -0.535334 -0.812406 -0.960166 0 0 0 0.000282926 0.000109532 0.000165631 0.0291402 -0.0133668 -0.00533747 -0.0032372 0.00202967 0.00874042 0.04 
720 1 1 -0.258975 -0.821832 -0.960271 0 0 0 0.00730063 -0.00424531 0.000392059 0.114276 -0.152643 0.135106 0.0822666 0.192458 -0.0469696 0.04 
161 1 1 -0.1663 -0.813856 -0.960324 0 0 0 -0.00952013 -0.0106076 0.000637684 0.297311 -0.38746 0.0611915 0.239031 -0.26702 -0.252657 0.04 
827 1 1 -0.00966615 -0.816389 -0.960229 0 0 0 -0.00353106 -0.00478206 -0.00136567 -0.439672 -0.870358 0.448242 0.101587 -0.0995845 0.0867729 0.04 
784 1 1 0.0698736 -0.824443 -0.960273 0 0 0 -0.00226403 -0.00623036 -0.000884498 -0.497555 0.797097 -0.635638 0.213751 -0.111923 0.0457183 0.04 
211 1 1 0.152393 -0.821791 -0.960246 0 0 0 -0.0154415 0.00690218 -0.00733989 1.54427 -0.680226 -0.0275435 -0.222332 -0.473795 -0.375358 0.04 
121 1 1 0.232986 -0.821636 -0.960205 0 0 0 -0.00585133 0.00379812 -0.00412809 -0.453162 0.124831 -0.741476 -0.102499 -0.0940636 -0.121176 0.04 
229 1 1 0.383098 -0.816634 -0.96027 0 0 0 -0.00115213 -0.00745516 -0.000105218 0.0565902 -0.0265878 0.260237 0.18351 -0.00894493 0.115489 0.04 
396 1 1 0.520817 -0.860774 -0.960259 0 0 0 -0.000741008 0.0005493 0.00154156 0.025177 -0.00534697 0.0571183 -0.014035 -0.00865807 0.0386668 0.04 
866 1 1 0.594032 -0.811422 -0.960281 0 0 0 -6.16106e-05 0.000513463 0.000296557 0.0110715 0.0541961 -0.030835 -0.0123221 -0.00184817 0.0268474 0.04 
628 1 1 0.673835 -0.812235 -0.960197 0 0 0 -0.000257945 0.000712674 2.21986e-05 0.0648024 -0.0270033 -0.0301662 0.00242189 0.00528468 -0.0133633 0.04 
554 1 1 0.818684 -0.826462 -0.960277 0 0 0 -0.000290454 -0.000213561 4.09372e-06 -0.00672713 -0.00366709 -0.000592769 0.004936 -0.00196353 -0.00650649 0.04 
417 1 1 0.960147 -0.833979 -0.960255 0 0 0 -1.13749e-05 4.14487e-05 -2.53996e-05 -0.00862253 0.00608975 0.00607659 -0.00150662 -0.000681632 -0.00128737 0.04 
282 1 1 -0.889471 -0.763961 -0.960207 0 0 0 -0.000240861 -7.53745e-05 -9.76167e-05 0.00509839 -0.0202724 -0.0090478 -0.0011194 -0.000335359 0.00146065 0.04 
492 1 1 -0.810344 -0.753039 -0.960212 0 0 0 -0.00034504 3.49174e-05 0.000203361 0.031144 0.0124556 0.0327976 0.00316596 -0.00962744 0.000869816 0.04 
290 1 1 -0.609582 -0.782687 -0.96023 0 0 0 -4.18547e-06 8.87568e-05 6.45334e-05 -8.54085e-05 -0.0227554 0.0365452 -0.001034 0.00135686 -0.00964415 0.04 
52 1 1 -0.453505 -0.789038 -0.960355 0 0 0 0.000376854 0.00031254 0.000308182 0.0331452 -0.0680629 -0.0373071 -0.0168279 0.0104234 -1.62527e-05 0.04 
480 1 1 -0.375639 -0.771125 -0.960288 0 0 0 0.000237517 -0.000143783 -0.000476052 0.116109 -0.00875285 -0.0635331 0.0103314 0.0141448 -0.000476649 0.04 
402 1 1 -0.298123 -0.751765 -0.960155 0 0 0 0.000303872 -0.00281007 0.000293954 0.235209 -0.0359486 0.0085293 0.0766865 -0.0185838 0.0218001 0.04 
322 1 1 -0.218227 -0.753118 -0.960156 0 0 0 0.0019284 -0.00178827 -0.00019774 0.147714 0.0451642 0.0487335 0.0317111 0.0236877 -0.0435367 0.04 
376 1 1 -0.139654 -0.738548 -0.960137 0 0 0 0.00864459 -0.0176506 4.7284e-05 0.227149 -0.114454 -0.00495128 -0.317511 -0.0668648 -0.248095 0.04 
385 1 1 -0.0877194 -0.799276 -0.960235 0 0 0 -0.00747534 -0.0326479 -0.00331223 0.0527634 0.171339 -0.0319517 0.855771 -0.172404 -0.155878 0.04 
1122 1 1 0.0163656 -0.735361 -0.960171 0 0 0 0.0137175 -0.00946126 -0.00310838 -0.176648 0.0267519 -0.271565 0.235615 0.396857 -0.312017 0.04 
773 1 1 0.0979183 -0.749703 -0.960193 0 0 0 -0.00254411 -0.0081215 0.00816945 -0.16623 0.688216 -1.69205 0.210582 -0.0487911 -0.0731204 0.04 
725 1 1 0.196612 -0.750478 -0.960189 0 0 0 -0.0253685 -0.00101657 0.00126681 0.379092 -0.370296 -0.360569 -0.0427485 -0.682968 0.0216216 0.04 
354 1 1 0.307171 -0.792103 -0.96025 0 0 0 -0.00200783 -0.00734748 -2.81999e-05 0.0925094 0.297709 0.235415 0.182385 -0.0930814 -0.128705 0.04 
688 1 1 0.487048 -0.750911 -0.960236 0 0 0 -0.00475295 0.000948611 -0.000199286 0.0620984 0.0951539 0.195794 -0.0274054 -0.117315 0.0175747 0.04 
757 1 1 0.565706 -0.736836 -0.960207 0 0 0 -0.00587237 -0.00149085 -0.000410684 0.214837 0.0892205 -0.0568053 0.0215159 -0.0748354 0.0168543 0.04 
519 1 1 0.645514 -0.737618 -0.960258 0 0 0 -0.00641522 -0.00168566 0.000106819 0.167872 -0.0441826 0.00504037 -0.0310092 -0.00673314 0.110096 0.04 
742 1 1 0.749363 -0.786718 -0.960239 0 0 0 -9.64934e-05 -4.97733e-05 1.02499e-05 0.00395944 0.00941812 0.0158853 0.000560318 -0.00373072 -0.00716953 0.04 
603 1 1 0.818359 -0.746591 -0.960129 0 0 0 1.63118e-05 8.63614e-07 3.29312e-05 -0.0138017 -0.0121661 0.0294411 -0.00164576 -0.000394882 0.00111586 0.04 
86 1 1 0.891236 -0.793664 -0.960273 0 0 0 -1.91587e-05 -7.22991e-05 -4.20887e-05 -0.00359334 0.00787023 -0.00934276 -3.1837e-05 0.000929738 0.00293894 0.04 
972 1 1 0.960251 -0.753764 -0.960206 0 0 0 -2.07305e-06 1.83001e-05 -4.16407e-05 -0.00151792 0.000987889 -0.00490231 0.00105037 -0.000340974 -0.000577105 0.04 
488 1 1 -0.960191 -0.72089 -0.960229 0 0 0 -9.87315e-05 4.46902e-05 -0.000149073 -0.0212883 -0.0150894 0.0077242 -6.16481e-05 0.000304614 -0.00110969 0.04 
532 1 1 -0.889456 -0.684175 -0.960242 0 0 0 8.92356e-05 -0.000288906 -0.000217993 -0.0268846 -0.066453 0.043601 0.00472048 0.00335641 -0.0109635 0.04 
564 1 1 -0.744135 -0.70816 -0.960247 0 0 0 4.73878e-05 -9.66467e-05 0.000321724 0.000693711 -0.0162353 0.0318235 -0.000515335 0.00102594 -0.00875797 0.04 
314 1 1 -0.666268 -0.726342 -0.960119 0 0 0 0.000156201 6.38555e-05 0.000189944 -0.0513868 -0.0323583 0.0594247 -0.00114887 0.0045383 0.00700865 0.04 
783 1 1 -0.61148 -0.667487 -0.960239 0 0 0 -0.000737568 -1.19502e-06 0.000161514 -0.000159108 -0.0141877 0.00895345 0.00698701 -0.0175857 -0.0041482 0.04 
1127 1 1 -0.55525 -0.724256 -0.960259 0 0 0 -0.000270551 0.000144607 0.000162155 -0.00684986 -0.0137007 0.00011791 -0.00112635 0.000340232 0.0106019 0.04 
241 1 1 -0.476268 -0.712502 -0.960191 0 0 0 0.000117545 8.58195e-05 -0.000163391 -0.0318674 -0.068043 -0.0491995 -0.00556197 0.00926856 -0.00510087 0.04 
85 1 1 -0.390753 -0.692688 -0.960253 0 0 0 -3.87366e-05 -0.000124111 0.000391621 -0.00112008 -0.0827441 -0.0362418 -0.00397997 0.00759454 -0.00612192 0.04 
511 1 1 -0.313318 -0.673234 -0.960166 0 0 0 -0.000525884 -0.00315487 -9.02723e-06 0.0299257 -0.233656 0.0994798 0.0701567 -0.000384791 -0.0676394 0.04 
873 1 1 -0.233418 -0.674744 -0.960325 0 0 0 -0.000633097 -0.00238751 0.000909564 0.017326 -0.0827882 -0.0207993 0.0296415 -0.0290752 0.095876 0.04 
204 1 1 -0.0620086 -0.719424 -0.960323 0 0 0 0.0101823 -0.018828 -0.000718243 0.10847 -0.0889902 -0.169771 0.474629 0.25194 0.235158 0.04 
1088 1 1 0.110602 -0.670829 -0.960219 0 0 0 -0.000219518 -0.00739535 0.000517252 0.0573717 0.0555508 -0.485019 0.0190368 -0.0822422 -0.0139695 0.04 
862 1 1 0.209126 -0.671547 -0.960164 0 0 0 -0.00196128 -0.00706314 0.00142413 0.454362 0.0836362 0.0948776 0.139895 -0.0842004 -0.0524316 0.04 
967 1 1 0.272773 -0.719949 -0.960185 0 0 0 -0.00294919 -0.0103836 -0.00212572 0.0240948 0.115013 -0.353856 0.273365 -0.0905929 0.00845782 0.04 
159 1 1 0.352488 -0.726253 -0.960311 0 0 0 -0.00433628 -0.00682143 0.000353489 0.0802878 0.0293173 0.119453 0.169276 -0.137192 0.141364 0.04 
451 1 1 0.439645 -0.686513 -0.960259 0 0 0 -0.00725687 0.000331145 -0.000186573 0.0577572 0.195928 0.0807281 -0.0160282 -0.205408 0.132873 0.04 
177 1 1 0.518274 -0.672689 -0.960183 0 0 0 -0.00729159 -0.00226056 -0.000222216 0.126066 0.0504091 -0.134365 0.0740939 -0.0511276 0.0185404 0.04 
439 1 1 0.749018 -0.706775 -0.960186 0 0 0 0.000209248 1.43312e-05 6.14525e-05 -0.0183074 0.0173085 -0.00912423 0.000411975 0.0015935 0.00348672 0.04 
662 1 1 0.818198 -0.666695 -0.960186 0 0 0 4.51961e-05 0.000252139 -8.43939e-05 -0.0168282 -0.0038662 0.0290181 -0.00383914 0.00252525 -0.00282982 0.04 
188 1 1 0.891071 -0.713769 -0.960246 0 0 0 2.9714e-05 7.07912e-05 -6.2243e-05 -0.000130535 5.27588e-06 0.00718057 -0.00144221 0.00074386 -0.00158237 0.04 
987 1 1 0.960183 -0.673825 -0.960186 0 0 0 2.34586e-05 4.64299e-05 -7.3047e-05 0.00125374 0.00157318 -0.00775948 -0.00123979 -0.000964219 -0.000551127 0.04 
990 1 1 -0.878483 -0.605222 -0.960244 0 0 0 0.00157118 -0.000934679 -8.75446e-05 0.0699025 -0.0712694 0.0138524 0.0152218 0.0427714 -0.0271489 0.04 
826 1 1 -0.811815 -0.665786 -0.960158 0 0 0 5.1015e-05 -0.000200022 -0.000231939 0.0441062 -0.00930131 0.0286249 -0.00256185 -0.00250688 0.0100733 0.04 
1152 1 1 -0.757273 -0.607411 -0.960244 0 0 0 -9.08191e-05 -9.38204e-05 -0.000346696 -0.00591079 0.00968819 -0.00473056 0.00428065 -0.00165511 0.000216353 0.04 
567 1 1 -0.689467 -0.649827 -0.960195 0 0 0 -0.000189036 -0.000169079 0.000120062 -0.0345695 -0.0424282 0.0337221 0.00376082 0.00138957 0.00559601 0.04 
170 1 1 -0.527644 -0.649234 -0.960285 0 0 0 0.000955884 -0.000350283 -4.07078e-05 -0.0838908 0.0218842 -0.0146892 0.0144496 0.0320703 -0.0442568 0.04 
375 1 1 -0.448551 -0.637725 -0.960326 0 0 0 -0.000195796 0.000828125 -0.00131267 0.0345312 -0.0246993 0.0173556 -0.0286538 -0.0157916 0.00151884 0.04 
709 1 1 -0.369003 -0.615761 -0.960128 0 0 0 0.0119961 -0.00367688 0.00178546 -0.0249707 -0.00485975 -0.158967 0.0956533 0.302577 -0.0356773 0.04 
738 1 1 -0.123721 -0.660338 -0.960275 0 0 0 -0.000769172 -0.0152688 -0.00125774 -0.229838 -0.13851 -0.0278808 0.372466 -0.0090577 0.0853952 0.04 
1046 1 1 -0.0462616 -0.641005 -0.960235 0 0 0 -0.00112214 -0.0165082 0.000391796 -0.181185 0.0631989 -0.159308 0.412369 -0.0026641 0.0110565 0.04 
581 1 1 0.0320013 -0.656735 -0.960263 0 0 0 -0.0014565 -0.0102168 -0.00197516 0.214338 -0.0165632 -0.398083 0.269298 -0.0192365 0.0569237 0.04 
61 1 1 0.160281 -0.608342 -0.960281 0 0 0 -0.0033405 -0.00557406 -0.00133475 0.0230277 0.0226839 -0.10188 0.0971164 -0.080921 0.00211619 0.04 
1052 1 1 0.254435 -0.605663 -0.960219 0 0 0 -0.00643519 -0.0053081 0.000668718 -0.161959 -0.10047 0.199693 0.121125 -0.168528 -0.0892636 0.04 
656 1 1 0.318098 -0.654072 -0.960202 0 0 0 -0.00848363 -0.00780497 0.000806397 0.203893 0.290834 0.126866 0.187357 -0.226117 -0.0758984 0.04 
1082 1 1 0.391595 -0.622794 -0.960255 0 0 0 -0.0117367 -0.00361186 -0.000717429 0.0146765 0.0235221 0.0665445 0.13649 -0.0291165 -0.035824 0.04 
255 1 1 0.470261 -0.608827 -0.96024 0 0 0 -0.0119872 -0.00563988 0.000261807 0.00582764 -0.0589282 -0.0583226 0.111303 -0.241214 0.068254 0.04 
880 1 1 0.600536 -0.660918 -0.960197 0 0 0 -0.00115037 0.00832745 0.000114013 0.0375498 0.133413 -0.000385726 -0.211571 -0.0291695 0.127599 0.04 
308 1 1 0.68034 -0.665887 -0.960215 0 0 0 -0.00185533 -0.00415647 -0.000545357 0.0187535 -0.0597779 0.022109 0.00406578 -0.0106503 -0.245443 0.04 
543 1 1 0.749502 -0.625957 -0.960202 0 0 0 -0.00245449 -0.00250512 -0.000176434 -0.024731 -0.000399914 0.00286334 0.0630821 -0.0598524 0.10404 0.04 
553 1 1 0.89098 -0.633901 -0.960253 0 0 0 7.3461e-05 0.000111092 -0.000195938 0.000428845 -0.00168273 0.00411162 -0.00272105 -0.000189827 -0.000627318 0.04 
260 1 1 -0.959958 -0.596257 -0.960245 0 0 0 -0.000599918 0.00254522 0.000270559 -0.00402892 -0.123208 0.0328201 -0.0681721 -0.0140842 -0.0143919 0.04 
565 1 1 -0.816984 -0.554206 -0.960259 0 0 0 -2.65911e-05 -0.00035444 0.000284947 0.0381572 -0.0742325 0.0626931 0.0121425 0.004309 -0.0102281 0.04 
1113 1 1 -0.702827 -0.549077 -0.960302 0 0 0 0.000194117 -0.000206881 -0.000122574 -0.0107714 -0.016882 0.049648 0.0116751 0.0068118 -0.00971074 0.04 
925 1 1 -0.634981 -0.591195 -0.960154 0 0 0 -0.000805138 -0.000173543 -0.000265549 0.031481 -0.0143301 -0.00181991 -4.69219e-05 -0.0275971 0.00567473 0.04 
893 1 1 -0.544475 -0.564751 -0.960166 0 0 0 0.0063718 0.00141625 0.000101107 -0.0088049 -0.024573 0.0250803 -0.0402456 0.160141 0.0743083 0.04 
1103 1 1 -0.456648 -0.558482 -0.960342 0 0 0 0.00778505 0.00298074 -0.000159011 0.0146317 -0.0649599 0.022118 -0.0816509 0.191862 0.121279 0.04 
1448 1 1 -0.379756 -0.536518 -0.960114 0 0 0 0.0103013 -0.00363673 -0.000510577 -0.0857124 -0.0153487 -0.180884 0.0839577 0.257584 -0.1028 0.04 
631 1 1 -0.304388 -0.56865 -0.960279 0 0 0 -0.000491147 0.013261 -8.12463e-05 -0.212922 0.432361 0.180878 -0.323505 -0.00875464 -0.271723 0.04 
714 1 1 -0.229034 -0.595195 -0.960325 0 0 0 -0.00839187 -0.00406477 0.000101392 -0.139541 -0.115419 -0.0408476 -0.0546923 -0.044567 0.102057 0.04 
962 1 1 -0.16528 -0.547289 -0.960207 0 0 0 -0.00811318 -0.00528901 -0.00119063 -0.0395407 0.0264113 0.210612 0.0158021 -0.0790854 -0.245359 0.04 
950 1 1 -0.0899764 -0.57411 -0.960204 0 0 0 -0.0149174 -0.0244595 5.5527e-05 0.114715 0.309788 0.138743 0.601993 -0.381791 -0.0641151 0.04 
716 1 1 0.0033175 -0.578359 -0.960225 0 0 0 -0.00350115 -0.0136032 -0.000948896 -0.0494832 -0.0846034 -0.261568 0.346049 -0.0631774 -0.0846456 0.04 
388 1 1 0.0816423 -0.594054 -0.960204 0 0 0 -0.00437712 -0.0100129 -0.00118073 -0.152681 0.0800758 -0.264813 0.27632 -0.105919 0.163472 0.04 
867 1 1 0.205423 -0.542503 -0.960172 0 0 0 -0.00424441 -0.00497199 0.000294675 -0.115931 -0.0379524 0.136649 -0.0137867 -0.00218097 0.0288954 0.04 
576 1 1 0.324879 -0.560582 -0.960221 0 0 0 -0.00647431 -0.00582908 0.000376758 -0.0127333 -0.0248874 -0.0519293 0.139014 -0.16336 -0.114515 0.04 
408 1 1 0.405159 -0.544182 -0.960207 0 0 0 -0.00137448 -0.00650504 -0.00017749 0.0781198 -0.0536086 -0.0436619 0.0141564 -0.0519822 0.0231988 0.04 
1026 1 1 0.549623 -0.599238 -0.960234 0 0 0 -0.0124598 -0.000528635 -0.00021709 -0.0245298 0.0736003 -0.0267588 -0.017948 -0.22513 -0.123438 0.04 
1111 1 1 0.669969 -0.58671 -0.960186 0 0 0 0.0158598 -0.00202749 8.83432e-05 0.123451 -0.065297 -0.0293975 0.0340854 0.371971 -0.122741 0.04 
1138 1 1 0.739221 -0.546747 -0.960236 0 0 0 0.0142579 0.00037752 5.67933e-05 0.0789502 0.00540375 0.0239105 -0.0548585 0.265697 -0.26097 0.04 
58 1 1 0.813829 -0.575371 -0.960205 0 0 0 0.0059008 -0.0217785 0.000243937 0.0350846 -0.0425174 0.0155604 0.54559 0.147967 0.0578697 0.04 
1107 1 1 0.890863 -0.554036 -0.960218 0 0 0 -2.81805e-05 -5.40653e-05 -0.000172136 0.00385042 -0.00275164 -0.00405787 0.00217218 -0.0007403 0.00309137 0.04 
252 1 1 0.960129 -0.593904 -0.960187 0 0 0 1.32089e-05 5.1217e-05 -8.86896e-05 0.00218931 -0.000630188 -0.00343917 -0.00025329 -0.00162113 0.000233977 0.04 
670 1 1 -0.960098 -0.516296 -0.960216 0 0 0 -1.96701e-05 0.00147084 5.13294e-05 -0.102259 0.0351833 0.114808 -0.0271039 -0.00640826 0.0217689 0.04 
644 1 1 -0.761137 -0.492976 -0.960262 0 0 0 -0.000148689 -0.00120564 0.000670195 0.0121381 0.108947 0.0977161 0.0352837 0.00021079 -0.0161594 0.04 
833 1 1 -0.684175 -0.471572 -0.960246 0 0 0 -0.000216127 -0.000543175 0.000405348 0.0284095 0.0197446 -0.0173439 0.00813703 -0.00118095 0.0276923 0.04 
435 1 1 -0.616143 -0.513566 -0.960297 0 0 0 0.000584127 -0.000294073 0.000174967 -0.0257317 -0.0235633 0.0479234 0.00733753 0.0116092 -0.0355459 0.04 
816 1 1 -0.501291 -0.492472 -0.960317 0 0 0 -0.00113778 -0.00199481 0.000163888 -0.0573724 0.0287176 -0.0368617 -0.05954 0.0665964 0.0929517 0.04 
489 1 1 -0.317425 -0.486437 -0.960265 0 0 0 0.00852317 -2.9115e-05 -0.00129707 0.0199918 -0.00530832 -0.0129826 -0.00748923 0.213236 0.159324 0.04 
883 1 1 -0.243536 -0.516722 -0.960209 0 0 0 0.0104229 0.000990788 -0.000254288 -0.0303825 -0.0011367 0.0107256 -0.0249418 0.102811 -0.341675 0.04 
305 1 1 -0.179763 -0.468712 -0.960208 0 0 0 0.0131301 -0.00131514 -0.000140633 -0.027127 0.185239 0.0849853 0.0177492 0.0136813 0.19507 0.04 
675 1 1 -0.104521 -0.49546 -0.960192 0 0 0 0.00629112 -0.0203673 0.000828798 0.0339788 0.26082 -0.153457 0.282534 0.0620367 -0.201717 0.04 
1066 1 1 -0.0251817 -0.503806 -0.960314 0 0 0 0.00787791 -0.00951612 1.06589e-05 0.116259 -0.0709962 0.0209318 0.189318 0.153133 0.244876 0.04 
143 1 1 0.0566444 -0.518103 -0.960118 0 0 0 -0.00236989 -0.00963006 -4.30364e-05 0.0955598 -0.0114388 -0.0319152 0.25429 -0.0529108 -0.193362 0.04 
1346 1 1 0.153392 -0.481838 -0.960233 0 0 0 -0.00209947 -0.00496668 6.89635e-06 -0.00670225 0.023827 0.0686431 0.123361 -0.0561258 -0.0583809 0.04 
1000 1 1 0.272927 -0.499808 -0.960242 0 0 0 -0.0047742 -0.00458215 -0.000344592 -0.0335374 0.0175367 -0.0151474 0.115792 -0.113003 -0.0575998 0.04 
792 1 1 0.35149 -0.485112 -0.960224 0 0 0 -0.00415918 -0.0094771 0.000218271 -0.021635 -0.0498201 -0.0973938 0.174879 -0.099188 0.0371462 0.04 
1361 1 1 0.432053 -0.468939 -0.960198 0 0 0 -0.000133392 -0.00679524 -0.000212345 0.0468752 0.0227295 -0.0346029 0.166145 -0.00268176 0.0362217 0.04 
814 1 1 0.483807 -0.530133 -0.960266 0 0 0 -0.00153886 -0.00743708 -0.000143397 0.00351308 -0.00177808 0.025133 0.182971 -0.0396328 -0.0876489 0.04 
584 1 1 0.533265 -0.467494 -0.960209 0 0 0 0.00494226 -0.0130453 0.000134033 0.0496034 -0.0911531 0.00614411 0.233455 0.0796329 -0.0102436 0.04 
1288 1 1 0.585643 -0.527962 -0.960217 0 0 0 0.00680185 -0.0109961 0.000290235 0.0792373 -0.00810601 -0.00388013 0.257348 0.172733 -0.141432 0.04 
908 1 1 0.670054 -0.506856 -0.960223 0 0 0 0.0123345 -0.00161798 -1.50656e-05 0.123758 -0.0617887 0.032337 -0.0395627 0.105141 0.207046 0.04 
1309 1 1 0.79906 -0.493801 -0.960274 0 0 0 0.0115293 0.00317324 -0.00017227 0.0700099 0.0340447 0.00154999 -0.0799762 0.288152 0.173909 0.04 
9 1 1 0.890904 -0.474142 -0.960183 0 0 0 -0.000104726 1.52613e-05 -0.000101744 0.00843858 -0.0123591 0.0181045 -0.00088591 -0.00274002 -0.00157175 0.04 
771 1 1 0.960106 -0.514024 -0.960226 0 0 0 -7.5268e-05 5.00818e-06 -1.28665e-05 0.00463797 -0.00507377 0.0031079 0.00145976 -0.00164186 0.00040975 0.04 
1055 1 1 -0.960071 -0.423788 -0.960231 0 0 0 0.000206704 -0.000557354 0.000469052 -0.162419 -0.0675456 -0.179919 0.00942736 -0.0152652 0.017018 0.04 
739 1 1 -0.890799 -0.463688 -0.960219 0 0 0 0.000801071 -0.000741321 -0.000334789 0.0158468 -0.128617 0.0513612 0.00818358 0.0104321 -0.00302355 0.04 
1142 1 1 -0.821598 -0.423683 -0.960263 0 0 0 -0.000525201 0.00104515 0.00136012 0.00454862 -0.258102 -0.0317724 -0.0223858 -0.0287245 0.0826156 0.04 
613 1 1 -0.63637 -0.4078 -0.960407 0 0 0 -0.000696531 0.000177795 -0.000245093 0.0630928 0.0331472 -0.0315113 0.000741508 -0.0163058 0.0336826 0.04 
620 1 1 -0.568379 -0.449457 -0.960148 0 0 0 -0.000426912 0.000645348 0.000458313 -0.0186899 -0.0210017 -0.0642635 -0.0147538 -0.013444 -0.0515119 0.04 
1316 1 1 -0.468902 -0.419567 -0.960338 0 0 0 0.00147462 -0.00225218 -0.000410431 0.174716 0.0460103 0.146854 0.0616686 0.0199106 -0.162884 0.04 
344 1 1 -0.394627 -0.457928 -0.960208 0 0 0 0.0219172 -0.00130766 -0.000225724 0.0401539 0.0950042 -0.0213272 0.0415931 0.539061 0.0515772 0.04 
247 1 1 -0.328159 -0.407231 -0.960278 0 0 0 0.00631124 0.000834968 5.68686e-05 0.00284004 -0.122243 -0.0361366 -0.0288574 0.156007 -0.0693985 0.04 
382 1 1 -0.254189 -0.437473 -0.96029 0 0 0 0.00660315 0.00128012 -0.00117703 -0.0327815 0.0399053 0.0163023 -0.037974 0.153849 0.0147899 0.04 
1271 1 1 -0.103046 -0.415559 -0.960301 0 0 0 -0.00895904 -0.0192682 -0.000372215 0.201055 0.105501 -0.0546296 0.489434 -0.230594 0.301446 0.04 
1249 1 1 0.0274458 -0.443673 -0.960231 0 0 0 0.00195311 -0.00737452 -5.7812e-05 0.15944 0.0326597 -0.0442172 0.184633 0.0512924 0.102089 0.04 
1030 1 1 0.103544 -0.419369 -0.960278 0 0 0 0.000328324 -0.0037122 0.000524164 0.0280327 0.0421041 0.0287869 0.0284537 0.0104048 -0.00164715 0.04 
1148 1 1 0.220944 -0.439082 -0.960334 0 0 0 -0.0027172 -0.0027212 -0.00114408 -0.00948244 -0.00787489 -0.0501152 0.0637587 -0.0650287 0.0139518 0.04 
772 1 1 0.29953 -0.424433 -0.960214 0 0 0 -0.00136199 -0.00701939 6.14365e-05 -0.0345121 -0.0400542 -0.00861352 0.122784 -0.0136027 -0.08098 0.04 
845 1 1 0.378111 -0.409781 -0.960241 0 0 0 -0.00061248 -0.0110135 0.000261643 0.0505825 -0.0641312 0.0277046 0.274847 -0.0186112 -0.0560516 0.04 
1047 1 1 0.611683 -0.452504 -0.960193 0 0 0 0.0039309 -0.00989783 0.000243041 0.0616593 -0.105907 -0.0278241 -0.0204197 -0.04034 0.0914249 0.04 
1474 1 1 0.687857 -0.429001 -0.960239 0 0 0 0.000939475 0.000945659 0.000269221 0.0231666 -0.0391704 9.82327e-05 -0.0284705 0.0229044 0.0511497 0.04 
840 1 1 0.767082 -0.420604 -0.960224 0 0 0 0.00133152 -0.00137163 -9.32189e-05 -0.00864038 -0.00479327 0.0208732 0.00353242 0.000771401 -0.00144698 0.04 
852 1 1 0.960068 -0.434078 -0.96024 0 0 0 -1.83863e-05 -4.90612e-05 -4.29897e-05 0.00777727 -0.00614235 0.00541053 -0.000858533 -0.000914255 -0.000764513 0.04 
982 1 1 -0.960091 -0.343826 -0.960223 0 0 0 -0.000717692 -0.000656967 -0.000854099 0.075201 -0.203524 -0.0139252 -0.0212711 0.00707642 -0.00105979 0.04 
326 1 1 -0.890841 -0.383723 -0.960218 0 0 0 -0.00136511 -0.00110707 -0.000396086 0.0897774 -0.281592 -0.141141 0.00463452 -0.0335602 -0.00716615 0.04 
1215 1 1 -0.821534 -0.343633 -0.960218 0 0 0 0.000378858 0.00104942 -0.000754486 -0.00873356 -0.408504 -0.10535 -0.0429202 -0.000163784 -0.0166989 0.04 
1246 1 1 -0.748805 -0.390697 -0.960128 0 0 0 -0.00346091 0.00827676 0.00033921 0.136114 -0.150729 -0.0862534 -0.205943 -0.0797223 -0.00602896 0.04 
969 1 1 -0.684045 -0.343843 -0.960217 0 0 0 0.00152493 0.00219868 0.000758892 0.137625 -0.0401491 -0.111753 -0.0704142 0.0213188 -0.00635615 0.04 
230 1 1 -0.60486 -0.334611 -0.960265 0 0 0 0.000939909 -0.00054772 6.38507e-05 0.0908684 -0.0323898 0.0330722 0.00540555 -0.00226964 -0.0672204 0.04 
857 1 1 -0.533597 -0.372557 -0.960174 0 0 0 0.00202039 -0.0014572 0.00042183 0.172316 -0.0482884 0.0416503 0.0390048 0.0562206 -0.0606817 0.04 
92 1 1 -0.401805 -0.37642 -0.960224 0 0 0 0.0034452 -0.0037548 0.000939237 0.149648 0.138927 -0.0435854 0.0692717 0.0435656 0.0878663 0.04 
1124 1 1 -0.265024 -0.358248 -0.960276 0 0 0 0.00704439 0.00119396 -0.00171976 -0.0258943 0.178322 -0.120847 -0.0288252 0.187264 0.0509202 0.04 
868 1 1 -0.190172 -0.389599 -0.960293 0 0 0 0.00765212 0.000248515 0.00162531 -0.204181 0.0271065 0.344894 0.00115428 0.20145 -0.126906 0.04 
1010 1 1 -0.126278 -0.339092 -0.960193 0 0 0 0.00175443 -0.0158163 -0.00115796 0.0878448 0.163293 -0.135881 0.40022 0.0464129 -0.417805 0.04 
1223 1 1 -0.0217133 -0.373185 -0.960238 0 0 0 -0.00232461 -0.00727389 -0.000229963 -0.0255806 0.198819 0.0396175 0.189088 -0.0526172 -0.0751366 0.04 
144 1 1 0.0561449 -0.355061 -0.960189 0 0 0 -0.00372735 -0.00622607 0.000346704 0.0622362 0.0683595 -0.0381857 0.155762 -0.0999015 0.104789 0.04 
315 1 1 0.16825 -0.372612 -0.960127 0 0 0 0.00160209 -0.00514914 -0.000305339 0.034973 0.00125336 -0.00880491 0.0562342 0.0777254 -0.0495337 0.04 