ITEM: TIMESTEP
42200
ITEM: NUMBER OF ATOMS
1500
ITEM: BOX BOUNDS ff ff ff
-1 1
-1 1
-1 1
ITEM: ATOMS id type type x y z ix iy iz vx vy vz fx fy fz omegax omegay omegaz radius 
137 1 1 -0.959556 -0.955571 -0.960173 0 0 0 0.0348786 0.0289342 -0.00199996 -0.173287 -0.452009 3.10702 -0.27628 0.701876 0.180932 0.04 
5 1 1 -0.879488 -0.960752 -0.961789 0 0 0 0.157047 -0.150705 0.594222 4.24449 42.0519 -46.0799 1.93481 2.35833 -0.717564 0.04 
239 1 1 -0.799954 -0.956928 -0.959001 0 0 0 0.153433 0.229625 0.394397 11.9165 -0.022938 -6.14353 -6.59077 2.28164 -1.32914 0.04 
415 1 1 -0.70118 -0.960751 -0.961433 0 0 0 0.471303 0.275194 -0.109883 -13.4969 2.44715 74.7989 -5.37253 6.35528 -2.71953 0.04 
138 1 1 -0.540103 -0.959257 -0.959927 0 0 0 -0.132022 0.0926788 0.0568497 0 0 -6.57473 -2.53138 -0.263498 -3.19315 0.04 
323 1 1 -0.440455 -0.959831 -0.957787 0 0 0 -0.0700218 -0.0184837 0.125312 -1.44827 0.0148113 -6.61532 -0.594462 0.766658 -0.306607 0.04 
130 1 1 -0.360542 -0.960546 -0.959539 0 0 0 0.0524629 -0.0541389 0.00490562 11.2378 15.6115 -30.1054 1.54626 -0.813742 -0.678404 0.04 
502 1 1 -0.278681 -0.960084 -0.958997 0 0 0 0.170022 -0.10817 0.0812962 -0.272801 6.06534 -6.7072 -0.707728 0.53173 1.41474 0.04 
494 1 1 -0.19793 -0.954901 -0.959784 0 0 0 -0.011316 -0.164908 0.112388 -31.2996 -23.0451 -28.5605 1.63496 4.44332 -0.907627 0.04 
448 1 1 -0.118869 -0.955758 -0.960131 0 0 0 0.186881 -0.129565 -0.00214812 32.5687 -1.74889 0.70143 -1.13019 -0.170833 -0.689766 0.04 
147 1 1 -0.0365603 -0.958612 -0.959981 0 0 0 0.184649 0.266246 0.137637 22.1436 -18.259 -47.3781 -3.69337 2.15386 -1.28233 0.04 
218 1 1 0.0521961 -0.960431 -0.961029 0 0 0 0.0761742 0.119684 -0.198223 3.50827 10.4285 18.724 -0.00261558 0.532881 -3.07242 0.04 
655 1 1 0.149014 -0.952628 -0.961016 0 0 0 -0.335069 -0.00303108 -0.21665 6.04597 -25.0406 20.0234 -2.83463 -1.74875 1.92501 0.04 
339 1 1 0.228379 -0.960008 -0.960536 0 0 0 0.185744 0.0069516 0.00909386 5.31278 -0.157439 22.9071 -0.153013 -0.281094 0.508596 0.04 
341 1 1 0.368001 -0.947559 -0.959566 0 0 0 0.0231523 0.0833852 0.0498272 0 0 -6.57473 -1.8957 0.564272 1.29363 0.04 
203 1 1 0.451769 -0.955022 -0.958693 0 0 0 -0.491807 -0.250025 -0.491556 -79.8291 -28.5 -121.245 1.63176 -2.72149 -3.70584 0.04 
1019 1 1 0.529971 -0.957192 -0.959724 0 0 0 -0.16398 -0.325854 0.149247 81.6304 -9.09636 -47.9503 -1.63789 -2.90371 -1.89717 0.04 
821 1 1 0.61566 -0.957901 -0.961269 0 0 0 0.00631023 0.22218 0.424944 12.3605 -15.1354 -3.30672 -4.64331 -0.305197 4.97055 0.04 
636 1 1 0.700388 -0.958176 -0.961912 0 0 0 0.228678 0.142429 0.100823 10.7862 -33.344 83.179 -4.80353 1.88719 1.10641 0.04 
729 1 1 0.780129 -0.96067 -0.959608 0 0 0 0.015549 -0.177859 0.210241 8.67432 39.784 -8.41773 -1.29621 -2.14289 -1.41671 0.04 
503 1 1 0.88287 -0.956062 -0.959474 0 0 0 0.0947604 -0.0463267 -0.147209 0.875527 -1.42568 -6.47223 4.13454 -2.19033 5.14227 0.04 
850 1 1 0.960753 -0.93618 -0.960263 0 0 0 -0.255917 0.144255 0.26642 -19.0844 11.4579 -42.9045 0.786157 4.04816 -0.819734 0.04 
918 1 1 -0.960827 -0.870651 -0.95915 0 0 0 -0.104384 0.0258617 0.500882 36.7141 -2.64393 -17.2131 -0.10103 0.448175 1.41105 0.04 
246 1 1 -0.857693 -0.883968 -0.959661 0 0 0 -0.00291258 0.0240724 -0.308943 25.9553 -12.6172 -20.3948 1.30611 4.6299 0.620217 0.04 
586 1 1 -0.765504 -0.884379 -0.950358 0 0 0 0.27366 0.0472293 0.326715 27.6313 8.30179 -84.2031 1.71954 -0.578032 0.368519 0.04 
379 1 1 -0.686811 -0.882991 -0.959869 0 0 0 0.0594861 0.0433958 0.0524408 37.7242 12.3451 -44.8636 1.12341 0.10301 2.32176 0.04 
105 1 1 -0.614426 -0.92422 -0.959903 0 0 0 0.0213219 0.300112 -0.0629975 0 0 -6.57473 -3.77174 3.0254 0.909559 0.04 
52 1 1 -0.488991 -0.89554 -0.961493 0 0 0 -0.00894749 0.130013 0.0969082 -20.266 -18.0264 20.4444 -2.24767 2.21424 0.550532 0.04 
480 1 1 -0.412288 -0.871563 -0.959251 0 0 0 0.271377 0.209037 0.263062 8.58331 1.04451 -21.1686 -4.22454 3.35474 0.200977 0.04 
209 1 1 -0.326211 -0.889046 -0.937666 0 0 0 -0.208731 0.0796721 -0.447042 8.12883 -11.8649 -8.77733 -2.89628 -1.12578 -1.33401 0.04 
647 1 1 -0.247805 -0.879216 -0.960514 0 0 0 0.0706979 -0.102768 0.293998 -1.10795 0.562995 18.2809 1.76966 0.168396 -2.09023 0.04 
700 1 1 -0.166317 -0.882328 -0.960525 0 0 0 0.182804 0.171097 0.0983408 8.97207 25.2339 21.9722 1.53057 -3.53924 4.44499 0.04 
616 1 1 -0.0719063 -0.887124 -0.959322 0 0 0 0.150919 -0.04348 -0.0685799 -4.82112 9.99607 -5.93875 -1.10904 1.47996 4.95516 0.04 
827 1 1 0.0104474 -0.891842 -0.960866 0 0 0 0.154541 0.300204 -0.369776 -1.16387 -2.38316 46.4689 -4.31937 2.3096 1.40412 0.04 
784 1 1 0.104061 -0.875675 -0.959872 0 0 0 0.13161 0.254565 0.0793205 0 0 -6.57473 -0.313776 -1.71781 7.58916 0.04 
211 1 1 0.193312 -0.887234 -0.960572 0 0 0 -0.0559376 0.337904 0.193407 29.6183 29.3668 -0.408984 0.631456 -5.98104 3.11054 0.04 
19 1 1 0.273411 -0.893536 -0.956074 0 0 0 -0.355217 0.202673 0.211194 0 0 -6.57473 -0.747861 -3.47099 -0.0580062 0.04 
159 1 1 0.415367 -0.868091 -0.960712 0 0 0 -0.0905131 0.154113 -0.245423 -26.2122 2.45399 35.9989 -1.50214 -0.031 2.46717 0.04 
664 1 1 0.493118 -0.883596 -0.960665 0 0 0 -0.419116 -0.480266 -0.314015 -11.8846 -55.3247 -47.9905 -2.73025 -0.316098 -4.56045 0.04 
396 1 1 0.574254 -0.887802 -0.958519 0 0 0 0.236468 -0.394559 0.273533 0 0 -6.57473 2.04685 3.09848 0.0843981 0.04 
50 1 1 0.661511 -0.889511 -0.959425 0 0 0 -0.696171 -0.106825 -0.163021 -28.487 13.8549 -47.4222 3.75721 3.21021 -1.76956 0.04 
742 1 1 0.742927 -0.888742 -0.952849 0 0 0 -0.370047 0.394766 -0.300464 0 0 -6.57473 -4.95173 -1.04366 4.12968 0.04 
554 1 1 0.840694 -0.888091 -0.960389 0 0 0 -0.0133249 -0.365255 0.307287 -32.2709 -3.26437 -18.8712 1.598 -0.33053 0.670727 0.04 
446 1 1 -0.901266 -0.817512 -0.9603 0 0 0 0.082669 -0.140961 0.233144 4.94752 7.90643 4.70411 -1.67188 -1.52645 -0.891877 0.04 
894 1 1 -0.815627 -0.810304 -0.958777 0 0 0 -0.228593 0.0194243 0.100595 5.63305 -3.32994 -12.9313 1.27395 -4.22106 -3.48473 0.04 
290 1 1 -0.640133 -0.817291 -0.959916 0 0 0 0.187541 0.0852385 0.0686078 1.88573 -3.22089 -16.0946 -0.859077 1.33607 1.22334 0.04 
380 1 1 -0.558709 -0.856094 -0.95949 0 0 0 0.447357 0.324997 -0.365964 0.386735 -0.000114432 -7.04895 -1.77893 6.07193 -2.39785 0.04 
241 1 1 -0.484032 -0.814854 -0.959962 0 0 0 -0.00927663 0.245643 0.0329631 0 0 -6.57473 -1.01517 -0.535776 -2.43302 0.04 
322 1 1 -0.299113 -0.817775 -0.959967 0 0 0 0.292453 0.0728743 0.0307749 24.0486 16.0927 -54.001 0.825409 2.70509 -1.4448 0.04 
385 1 1 -0.120399 -0.815575 -0.960059 0 0 0 0.388819 0.146111 0.0449716 -0.119349 -0.0654816 -3.85207 2.64976 -1.7645 -0.367118 0.04 
773 1 1 0.175095 -0.799469 -0.960313 0 0 0 -0.32494 0.00577108 0.122444 39.1904 -62.7933 -30.7096 -2.80519 -1.41921 -2.87119 0.04 
725 1 1 0.257248 -0.801969 -0.960437 0 0 0 0.10016 -0.237838 0.0907185 10.6992 -18.1881 16.2906 -1.60447 -1.8267 1.40135 0.04 
451 1 1 0.506845 -0.801577 -0.961056 0 0 0 0.0967155 0.799599 -1.36639 -54.6376 97.1793 -78.7063 -3.99501 -3.41448 -1.26586 0.04 
866 1 1 0.622055 -0.819792 -0.958432 0 0 0 -0.104174 0.110583 -0.782888 0 0 -6.57473 -1.92588 4.46896 3.98682 0.04 
439 1 1 0.811904 -0.814061 -0.952944 0 0 0 0.070801 0.129591 -0.096281 16.0392 2.79017 -13.0891 -3.05241 1.91185 1.78421 0.04 
188 1 1 0.895467 -0.809366 -0.940546 0 0 0 0.0618825 0.0774528 -0.329015 -14.1644 -0.154074 -22.417 -0.444506 -0.347962 -2.66486 0.04 
972 1 1 0.959667 -0.853852 -0.959655 0 0 0 0.450519 0.21786 0.0461735 0 0 -6.57473 0.668033 -1.30605 -1.88543 0.04 
488 1 1 -0.95889 -0.762922 -0.961184 0 0 0 -0.315312 0.165513 0.091603 -8.82946 33.9349 20.3778 -0.566958 -4.22036 3.46267 0.04 
960 1 1 -0.727373 -0.80146 -0.961651 0 0 0 0.00416387 -0.411166 0.125006 -20.3119 -10.7109 65.1916 0.354186 -1.2253 -0.71196 0.04 
1127 1 1 -0.575195 -0.761213 -0.960991 0 0 0 -0.299396 0.183409 -0.290089 -13.7401 -1.13103 -23.9506 -2.14251 3.01507 2.87186 0.04 
511 1 1 -0.381365 -0.79002 -0.960012 0 0 0 0.223575 0.227941 0.0170136 8.70644 2.62619 -18.8999 -3.18477 2.7422 1.92863 0.04 
631 1 1 -0.313647 -0.736132 -0.957821 0 0 0 0.145141 0.266121 0.0583773 0 0 -6.57473 -3.19892 -0.698292 2.96246 0.04 
873 1 1 -0.229981 -0.777918 -0.960629 0 0 0 -0.0812634 0.527975 0.334751 5.67071 -2.93969 17.1476 -4.36513 0.333222 1.93266 0.04 
204 1 1 -0.0368057 -0.794408 -0.953748 0 0 0 0.248253 0.335061 0.0546444 0.532766 3.71211 -11.3993 -0.960609 2.51406 -2.15894 0.04 
581 1 1 0.028085 -0.742003 -0.960605 0 0 0 0.19313 0.471768 0.301749 -0.374648 -1.44197 23.2222 -3.86008 2.78085 -2.5954 0.04 
1122 1 1 0.0945568 -0.792813 -0.961704 0 0 0 -0.126807 0.178504 -0.406334 -21.7135 13.2343 46.7684 -0.675671 0.666317 -5.65033 0.04 
967 1 1 0.338457 -0.794407 -0.960103 0 0 0 -0.0614221 0.198024 0.0519509 -19.856 -12.3682 -2.75531 -0.680687 -1.25578 -0.349767 0.04 
656 1 1 0.406218 -0.753057 -0.959785 0 0 0 -0.0725546 0.0730781 -0.0465123 19.8701 12.1148 -5.31754 -0.799168 -3.36723 -2.25159 0.04 
177 1 1 0.593862 -0.741817 -0.950653 0 0 0 -0.878484 -0.185174 0.856364 75.8362 54.7232 -112.059 -5.29329 -1.18395 4.87862 0.04 
880 1 1 0.689554 -0.754985 -0.959425 0 0 0 -0.0263473 0.249211 0.208552 0 0 -6.57473 -0.155228 -0.142021 -3.69877 0.04 
543 1 1 0.769109 -0.742884 -0.95439 0 0 0 0.0427041 0.183723 0.0343277 3.8228 -8.95198 -13.1498 -1.52011 1.82577 -1.39464 0.04 
987 1 1 0.956569 -0.758763 -0.960813 0 0 0 -0.414403 0.229868 0.20474 10.7242 -2.44853 29.4352 -2.57404 -3.58758 0.135775 0.04 
532 1 1 -0.878607 -0.722476 -0.957852 0 0 0 -0.0358527 0.0826195 0.00649079 -34.5401 -15.9873 -4.75542 -3.09608 -0.510201 -4.39448 0.04 
826 1 1 -0.799655 -0.729123 -0.96114 0 0 0 -0.0750211 0.199035 0.102006 -23.8572 9.36533 -8.16832 -4.06278 -1.82466 -3.38714 0.04 
567 1 1 -0.716829 -0.706049 -0.961775 0 0 0 -0.217227 0.175627 0.109274 6.85562 -22.4441 47.0347 -3.693 -5.25617 0.062833 0.04 
925 1 1 -0.630209 -0.70001 -0.955308 0 0 0 -0.305324 0.118663 0.111299 0 0 -6.57473 -1.82931 -3.11628 -3.32545 0.04 
375 1 1 -0.505817 -0.724021 -0.959613 0 0 0 0.0469765 0.316968 -0.833939 38.449 21.3163 -3.69441 -2.75092 1.32233 -1.65173 0.04 
709 1 1 -0.396257 -0.709235 -0.960093 0 0 0 -0.332081 0.353577 -0.173494 0.30297 -0.215027 0.855683 -0.563268 3.36367 -2.62224 0.04 
883 1 1 -0.229074 -0.678381 -0.960311 0 0 0 -0.0708513 0.0301977 0.119225 0.628654 0.47558 9.19083 -3.40053 1.71469 0.642525 0.04 
962 1 1 -0.156561 -0.728327 -0.96119 0 0 0 0.117384 0.320062 -0.357505 -3.3214 -1.24518 64.368 -7.36708 1.01849 1.00971 0.04 
950 1 1 -0.0746725 -0.705858 -0.957442 0 0 0 0.204349 0.295082 0.21423 -21.7181 4.28152 -27.9691 -7.91344 4.83618 0.316514 0.04 
388 1 1 0.0795949 -0.675883 -0.95965 0 0 0 0.393293 0.326736 0.0629717 1.13384 3.3292 -12.1524 -1.57097 3.41078 -2.38102 0.04 
1088 1 1 0.14562 -0.731632 -0.93608 0 0 0 -0.412283 0.285529 0.117591 -74.7168 67.809 34.5601 7.44918 -7.8519 -2.41736 0.04 
862 1 1 0.219978 -0.732022 -0.961554 0 0 0 0.121738 0.500358 -0.211295 42.3875 26.044 30.1422 0.137207 0.121742 -2.36882 0.04 
1052 1 1 0.303811 -0.7141 -0.960058 0 0 0 -0.194545 -0.183681 -1.66908e-05 1.97686 28.1122 -67.0364 -2.95354 -2.16793 9.99622 0.04 
576 1 1 0.43313 -0.674002 -0.959417 0 0 0 -0.770018 0.537787 0.012424 0 0 -6.57473 1.07708 -1.22057 4.30392 0.04 
1082 1 1 0.511172 -0.699807 -0.944903 0 0 0 -0.321897 0.431198 -0.0858093 0 0 -6.57473 9.02349 -4.56446 -0.485851 0.04 
1111 1 1 0.687515 -0.66963 -0.959684 0 0 0 0.155909 0.844398 0.0659243 37.8936 33.202 -84.9246 -1.57229 -1.76976 0.481655 0.04 
58 1 1 0.81073 -0.673367 -0.958249 0 0 0 0.26575 -0.199423 -0.602867 0 0 -6.57473 -3.50793 -4.10363 1.06649 0.04 
553 1 1 0.888736 -0.717168 -0.954847 0 0 0 0.070892 0.453113 -0.53005 -45.1065 -20.4913 -7.71112 3.21938 6.73382 -2.31609 0.04 
252 1 1 0.955203 -0.675139 -0.9509 0 0 0 0.366082 0.444505 -0.481589 36.3599 25.618 -4.20863 4.29937 -3.08901 -0.650092 0.04 
670 1 1 -0.959995 -0.616165 -0.958415 0 0 0 0.0404042 0.672261 0.188881 -0.156665 -9.80476 -7.14359 3.43406 0.0743904 0.371787 0.04 
990 1 1 -0.850159 -0.648389 -0.960362 0 0 0 -0.205821 0.252553 -0.132131 9.50281 18.8483 14.4841 -1.49814 1.55722 1.19201 0.04 
565 1 1 -0.769955 -0.646494 -0.95878 0 0 0 0.13738 0.331773 -0.201242 -4.20483 4.28035 -6.43129 -5.08969 1.00335 -2.71921 0.04 
435 1 1 -0.622454 -0.611144 -0.960117 0 0 0 -0.0091485 -0.0198163 0.0321981 -0.159794 0.259798 -0.474583 -2.82416 -2.27128 -3.0996 0.04 
893 1 1 -0.556207 -0.656766 -0.957596 0 0 0 -0.229897 0.246935 -0.0460442 0 0 -6.57473 -1.02388 -1.45238 -1.27066 0.04 
344 1 1 -0.407387 -0.601981 -0.953673 0 0 0 0.46734 0.369131 -0.241161 0 0 -6.57473 -5.11504 -3.10392 2.91654 0.04 
382 1 1 -0.315704 -0.639551 -0.959821 0 0 0 -0.0890694 0.482293 -0.295291 6.92748 0.526895 -16.662 -5.7038 3.8766 0.0990738 0.04 
1066 1 1 -0.121214 -0.638113 -0.960224 0 0 0 0.30232 0.578445 -0.201693 -0.424632 -0.622325 8.49313 -9.07684 3.87794 -0.182008 0.04 
143 1 1 0.0122688 -0.630365 -0.95905 0 0 0 0.0284187 0.557759 0.305771 26.5389 1.30488 -27.7076 -6.68394 4.86733 1.12469 0.04 
1346 1 1 0.170974 -0.600844 -0.94491 0 0 0 0.103114 0.772793 -0.180436 0 0 -6.57473 -5.99416 1.39011 2.58356 0.04 
867 1 1 0.255666 -0.642185 -0.957153 0 0 0 -0.17077 -0.447729 0.412107 -0.569562 -30.2954 -17.5092 -1.62214 2.52015 3.75907 0.04 
1000 1 1 0.353602 -0.652504 -0.958337 0 0 0 -0.493743 1.33773 0.172369 13.9945 15.9044 -6.69429 -8.86692 -0.69425 2.99997 0.04 
408 1 1 0.500755 -0.604787 -0.953961 0 0 0 -0.0783387 0.558063 -0.369978 29.3709 8.21768 -61.8094 -5.86143 -1.2087 -1.01804 0.04 
255 1 1 0.588357 -0.657349 -0.944291 0 0 0 -0.405089 0.296974 -0.665596 0 0 -6.57473 5.05102 -0.578767 -1.27797 0.04 
1107 1 1 0.884206 -0.633956 -0.959877 0 0 0 -0.0596112 0.42808 0.0281179 0 0 -6.57473 -6.00528 -0.250181 2.28677 0.04 
1055 1 1 -0.95731 -0.536409 -0.95752 0 0 0 0.165522 0.307222 0.0306648 0.156665 9.80476 -6.00586 3.93346 -2.21213 0.433424 0.04 
739 1 1 -0.86646 -0.569613 -0.96101 0 0 0 0.0185616 0.32612 -0.116202 7.49251 11.6732 4.0996 -3.29521 -1.21029 0.0251356 0.04 
1142 1 1 -0.783888 -0.564663 -0.959433 0 0 0 -0.231428 0.475613 -0.0950286 0 0 -6.57473 -3.75824 1.14803 1.23307 0.04 
833 1 1 -0.70107 -0.572837 -0.959693 0 0 0 0.0217514 0.29814 -0.0950562 -9.89258 22.0836 -21.3113 -3.32616 -1.92842 -4.42645 0.04 
613 1 1 -0.634151 -0.533253 -0.941453 0 0 0 0.186281 0.223769 -0.450784 2.33394 20.5989 -42.8679 7.20096 4.39111 3.00548 0.04 
857 1 1 -0.477838 -0.540105 -0.961467 0 0 0 0.154382 0.659881 -0.227408 6.82653 -3.44078 17.9421 -4.08896 -0.69111 -5.87178 0.04 
247 1 1 -0.345502 -0.546818 -0.945595 0 0 0 0.316303 0.487961 -0.744292 0 0 -6.57473 3.08692 -3.61262 6.3614 0.04 
1124 1 1 -0.250239 -0.593791 -0.960503 0 0 0 0.059959 0.500824 0.051383 2.87484 0.697685 20.6015 -6.94886 1.16253 -1.79302 0.04 
868 1 1 -0.160363 -0.548692 -0.957726 0 0 0 -0.00464333 0.229866 -0.373819 25.18 -36.2488 -62.9423 -10.6302 -1.9631 4.21085 0.04 
1271 1 1 -0.0726487 -0.546918 -0.955795 0 0 0 0.0388083 -0.0986856 0.318666 -0.333988 0.620445 -6.49755 -5.26847 -4.215 0.511203 0.04 
1030 1 1 0.0961023 -0.557229 -0.959999 0 0 0 -0.12815 0.321752 0.165024 0 0 -6.57473 -7.95696 -3.07675 -5.59417 0.04 
772 1 1 0.3393 -0.559071 -0.957365 0 0 0 -0.592801 0.947954 -0.108517 0 0 -6.57473 -4.28462 0.793061 -1.04471 0.04 
792 1 1 0.421951 -0.553748 -0.958856 0 0 0 -0.204716 -0.05787 0.0461031 0 0 -6.57473 -9.891 4.81802 -2.09216 0.04 
1361 1 1 0.577582 -0.568316 -0.960463 0 0 0 -0.39078 0.172529 0.0542532 0.93807 -0.831523 18.4964 1.3756 -3.38046 -5.49855 0.04 
814 1 1 0.650811 -0.59914 -0.950743 0 0 0 -0.754441 0.122616 -0.313815 -1.18659 2.58717 -6.24007 -2.56534 -4.41068 4.72028 0.04 
908 1 1 0.757786 -0.589685 -0.964733 0 0 0 0.0545703 -0.0593505 -0.346339 -10.7834 -7.97407 261.655 4.01382 -1.87603 -6.13375 0.04 
771 1 1 0.960364 -0.560663 -0.961125 0 0 0 0.0673478 0.115447 -0.205037 -24.1465 -2.15669 59.4796 -1.9524 -0.118341 3.16372 0.04 
326 1 1 -0.861632 -0.489951 -0.961493 0 0 0 0.0297072 -0.0936483 -0.334313 -26.7752 -6.51117 15.9444 -3.61146 -1.15741 -3.29482 0.04 
1246 1 1 -0.738512 -0.498373 -0.955663 0 0 0 -0.0690213 0.217905 0.252677 0 0 -6.57473 -5.05405 -2.68645 5.08695 0.04 
230 1 1 -0.568643 -0.485963 -0.960052 0 0 0 0.225272 0.253934 0.0781626 -0.0778561 0.0521769 -4.70026 -7.97797 3.21018 2.97385 0.04 
1155 1 1 -0.264201 -0.506767 -0.948196 0 0 0 -0.00553158 0.463499 0.82638 0 0 -6.57473 -3.55374 1.42335 6.85168 0.04 
1010 1 1 -0.113774 -0.478838 -0.947725 0 0 0 0.216274 0.463036 0.0679167 0.333988 -0.620445 -6.6519 -3.70925 2.3082 -2.46009 0.04 
1249 1 1 0.00576629 -0.516543 -0.95816 0 0 0 -0.0410867 0.39319 0.202553 0 0 -6.57473 -7.4009 -2.86289 -0.697906 0.04 
315 1 1 0.197356 -0.517808 -0.958169 0 0 0 -0.40066 0.388071 -0.0268471 0 0 -6.57473 -5.63595 -1.42604 -3.39568 0.04 
677 1 1 0.469438 -0.486834 -0.947958 0 0 0 -0.236899 0.874082 -0.379302 -5.30768 -1.50876 -5.7831 7.0033 0.37137 5.65928 0.04 
981 1 1 0.546495 -0.468123 -0.956762 0 0 0 0.277322 0.396876 0.179068 5.30768 1.50876 -7.36635 -7.19486 -3.76831 -6.16548 0.04 
1047 1 1 0.642844 -0.513451 -0.952882 0 0 0 0.156053 0.258192 -0.35339 -8.58279 -6.32123 -6.40961 -7.34313 0.395297 -0.391399 0.04 
840 1 1 0.786408 -0.495425 -0.95954 0 0 0 0.154436 0.715527 -0.977155 0 0 -6.57473 -6.63881 -7.06966 -1.816 0.04 
9 1 1 0.861229 -0.525225 -0.959733 0 0 0 0.163332 0.386083 -0.471721 0.49549 -0.159613 -5.7927 -5.59742 2.02007 -1.99813 0.04 
852 1 1 0.924541 -0.468729 -0.956798 0 0 0 0.549673 0.0486938 -0.244922 0 0 -6.57473 -2.12502 1.14259 -1.87622 0.04 
982 1 1 -0.957507 -0.456151 -0.950991 0 0 0 0.0634562 0.131407 0.299641 0 0 -6.57473 0.255925 -3.09859 4.39618 0.04 
1215 1 1 -0.797006 -0.439561 -0.957561 0 0 0 0.101734 0.432136 0.138468 0 0 -6.57473 -8.4881 2.19119 6.56017 0.04 
76 1 1 -0.721888 -0.403472 -0.952929 0 0 0 -0.0470055 0.758416 -0.03565 0 0 -6.57473 1.30103 -5.9101 0.425242 0.04 
969 1 1 -0.660017 -0.460063 -0.96 0 0 0 0.205621 0.350853 0.132283 -2.01722 6.38962 -10.1125 -1.963 -0.554303 1.33308 0.04 
116 1 1 -0.457401 -0.423288 -0.956784 0 0 0 -0.0689961 0.632303 0.222905 0 0 -6.57473 -9.21742 -0.788442 -0.0257032 0.04 
978 1 1 -0.332944 -0.457789 -0.944735 0 0 0 0.126684 0.442538 0.139826 3.66821 -12.7022 -4.09907 -9.708 -1.94778 -0.241428 0.04 
168 1 1 -0.198826 -0.454916 -0.961768 0 0 0 0.0121358 0.70624 1.07455 3.01405 -2.96912 78.0424 -17.1227 1.50848 -7.187 0.04 
201 1 1 -0.0427583 -0.425159 -0.96028 0 0 0 0.142135 0.57197 -0.0286561 -0.509157 -0.616705 9.41985 -8.12677 -1.57156 3.13448 0.04 
404 1 1 0.140764 -0.447927 -0.955487 0 0 0 0.304291 0.453961 0.0763687 0 0 -6.57473 -10.8357 5.20767 -0.564184 0.04 
1216 1 1 0.209646 -0.405247 -0.960084 0 0 0 0.231045 0.306123 -0.157854 -11.6505 -55.444 -2.28618 -2.25486 3.42502 1.15791 0.04 
1187 1 1 0.301024 -0.459484 -0.942244 0 0 0 0.0142606 0.491714 -0.235843 0 0 -6.57473 -3.94894 -7.46365 2.69212 0.04 
220 1 1 0.378193 -0.416041 -0.9561 0 0 0 1.02291 0.833169 0.145842 0 0 -6.57473 -8.04086 -2.91949 -2.10535 0.04 
309 1 1 0.4709 -0.397462 -0.955015 0 0 0 -0.354344 0.441852 0.355663 0 0 -6.57473 -5.01662 -5.34514 4.70158 0.04 
361 1 1 0.618832 -0.432694 -0.957236 0 0 0 -0.0739335 0.382589 -0.0220649 1.18797 -0.357414 -8.31486 -4.50864 -0.661889 -2.78471 0.04 
1474 1 1 0.707361 -0.466585 -0.950167 0 0 0 0.0292258 -0.247468 0.00411507 8.58279 6.32123 -6.73984 -8.08919 -4.1892 -6.4677 0.04 
657 1 1 -0.961198 -0.374646 -0.960581 0 0 0 -0.0674499 0.740676 -0.224618 68.0393 -5.56496 27.7029 0.627877 2.80108 -0.0391532 0.04 
1279 1 1 -0.801803 -0.344619 -0.961112 0 0 0 0.0442067 0.222249 0.545993 2.70172 0.489215 48.3384 -6.14969 3.86663 -3.74539 0.04 
905 1 1 -0.640903 -0.367722 -0.959935 0 0 0 -0.330345 0.664938 0.279183 0 0 -6.57473 -4.83954 0.603866 -4.97353 0.04 
1037 1 1 -0.541363 -0.387005 -0.958284 0 0 0 -0.0454651 -0.338404 0.126282 17.1383 -29.3151 -5.967 -5.25889 -2.31608 -1.25465 0.04 
1205 1 1 -0.357378 -0.382969 -0.956513 0 0 0 -0.369917 0.491512 -0.159175 -3.66821 12.7022 -9.05038 -9.66874 -2.06182 -0.624117 0.04 
710 1 1 -0.262366 -0.395632 -0.948003 0 0 0 -0.217951 0.618698 0.862472 0 0 -6.57473 -12.9565 -4.28648 1.72534 0.04 
1451 1 1 -0.118357 -0.395946 -0.960724 0 0 0 0.0528123 -0.057332 0.0724746 54.1027 -53.4512 -43.629 -3.93021 -0.068201 6.15595 0.04 
1348 1 1 -0.0531329 -0.331627 -0.961149 0 0 0 0.0126069 0.764992 -0.385427 -14.6656 -18.5341 31.5177 -6.7704 -3.34153 -0.328012 0.04 
1378 1 1 0.029277 -0.385295 -0.958758 0 0 0 0.0229919 0.86205 0.158151 0 0 -6.57473 -7.91077 3.30532 -3.25082 0.04 
1201 1 1 0.131614 -0.348685 -0.960222 0 0 0 0.311438 0.280411 0.0463435 -0.578722 -0.112389 5.21595 -5.41415 -0.51236 5.62933 0.04 
780 1 1 0.287827 -0.381343 -0.958103 0 0 0 -0.505143 0.254826 0.0200502 2.62249 -3.04944 -33.4755 -8.01889 1.03398 -1.99118 0.04 
342 1 1 0.621308 -0.344538 -0.947347 0 0 0 0.139763 0.0159807 -0.224284 17.8794 -11.5151 -14.7235 -6.4531 9.56153 -1.93211 0.04 
1163 1 1 0.761793 -0.374613 -0.959842 0 0 0 0.246167 0.512868 0.458484 -31.0817 -57.0452 -16.5334 -10.6379 -2.98788 5.26782 0.04 
182 1 1 0.866497 -0.391055 -0.96305 0 0 0 0.000922899 -0.154774 -0.0674534 -2.37413 8.20618 164.279 -0.241958 -1.20737 -3.65744 0.04 
975 1 1 0.953293 -0.388115 -0.96031 0 0 0 0.681803 0.111202 -0.351333 -4.45145 -35.4817 12.6881 -5.04834 -1.64719 3.1856 0.04 
1239 1 1 -0.95614 -0.26897 -0.960112 0 0 0 0.129059 0.282702 0.202849 -43.3147 -23.2878 -4.75447 -6.27294 -1.29854 3.85856 0.04 
1056 1 1 -0.892048 -0.322601 -0.956432 0 0 0 0.264471 0.026914 0.969704 0 0 -6.57473 -0.73884 6.46591 -3.94405 0.04 
283 1 1 -0.668038 -0.283584 -0.953175 0 0 0 0.0114201 0.603336 -0.375794 0 0 -6.57473 -5.47827 3.86665 -0.410362 0.04 
1286 1 1 -0.578047 -0.317085 -0.958132 0 0 0 0.0903466 0.397123 -0.296456 -17.1383 29.3151 -7.18245 -5.5542 -2.3658 -8.3731 0.04 
945 1 1 -0.414676 -0.324184 -0.949613 0 0 0 -0.284554 0.141908 -0.172496 0 0 -6.57473 -8.93164 2.97353 -8.33987 0.04 
1063 1 1 -0.330749 -0.304356 -0.937442 0 0 0 -0.320315 0.219596 -0.305783 6.9436 -5.27383 -11.4108 5.00318 -4.74446 5.87842 0.04 
1202 1 1 -0.237758 -0.306759 -0.956679 0 0 0 -0.663413 -0.0910495 0.010617 0 0 -6.57473 -2.32071 -4.60439 -1.16607 0.04 
128 1 1 -0.154737 -0.326144 -0.961678 0 0 0 -0.48102 -0.0437001 -0.496579 -14.3106 45.3287 89.497 0.263536 -0.587316 -1.61214 0.04 
807 1 1 0.0472439 -0.306971 -0.960553 0 0 0 0.00956411 0.656466 0.13188 0.552661 -1.34507 22.5088 -1.14337 6.56158 -0.948212 0.04 
752 1 1 0.169499 -0.26286 -0.95581 0 0 0 -0.20913 0.837359 -0.346839 25.181 -119.143 -8.84634 -4.68839 -4.27656 -1.62557 0.04 
1139 1 1 0.222511 -0.327894 -0.958948 0 0 0 0.0650486 0.564966 -0.421174 11.5176 55.1362 -4.15907 -0.646415 -11.3617 -3.5612 0.04 
1069 1 1 0.3501 -0.329005 -0.963217 0 0 0 0.0789057 -0.0962613 -0.718717 -4.64569 8.20644 182.029 -1.81248 -0.386278 5.0966 0.04 
624 1 1 0.457395 -0.317455 -0.959922 0 0 0 0.659207 -0.0365842 -0.685505 0 0 -6.57473 -0.385406 4.13689 1.61575 0.04 
806 1 1 0.701576 -0.282205 -0.9501 0 0 0 -0.47394 1.15525 -0.405598 0 0 -6.57473 -7.30102 -7.22146 -2.95447 0.04 
1336 1 1 0.795321 -0.304912 -0.947916 0 0 0 -0.103527 0.578926 -0.375032 63.8725 61.3892 -64.1961 -12.285 2.02444 -10.4216 0.04 
915 1 1 0.957829 -0.309193 -0.957316 0 0 0 0.261948 -0.255056 -0.841697 3.36734 35.6081 -4.00845 3.9239 -4.00302 -5.46535 0.04 
328 1 1 -0.886671 -0.231995 -0.961145 0 0 0 -0.132286 0.386633 -0.388898 40.2538 -1.0354 -10.9852 0.286804 1.22628 3.08957 0.04 
1251 1 1 -0.749757 -0.262793 -0.956824 0 0 0 -0.0290231 0.487063 -0.213444 0 0 -6.57473 -6.91668 1.21478 2.30521 0.04 
1436 1 1 -0.581956 -0.231882 -0.956291 0 0 0 0.176341 -0.0854584 -0.899094 0 0 -6.57473 -10.3538 6.17817 -10.5293 0.04 
1203 1 1 -0.484373 -0.204358 -0.944566 0 0 0 0.749016 0.333219 0.559538 0 0 -6.57473 -5.37859 7.34801 3.13006 0.04 
1250 1 1 -0.291091 -0.228091 -0.960528 0 0 0 -0.518759 0.790705 0.28707 -30.8389 -86.3174 16.4671 -6.51273 2.58943 -7.01075 0.04 
902 1 1 -0.0869017 -0.255077 -0.962322 0 0 0 0.12876 0.139594 0.982051 0.574968 1.11464 110.11 -5.97261 4.48476 2.70797 0.04 
1276 1 1 -0.00579443 -0.235699 -0.961571 0 0 0 0.293745 0.826455 -0.294757 -2.88695 -3.53941 84.775 -7.88111 -3.26655 1.72646 0.04 
232 1 1 0.0715873 -0.210254 -0.960759 0 0 0 -0.345739 1.29757 -0.0300562 0.837078 -1.96212 36.0897 -10.0425 0.96102 0.657043 0.04 
557 1 1 0.246612 -0.228059 -0.958137 0 0 0 -0.580191 0.347577 0.460239 -19.771 -3.5802 -6.48411 -8.71962 -5.30291 -3.27295 0.04 
1426 1 1 0.324755 -0.214417 -0.96243 0 0 0 -0.529063 0.0525135 -0.740934 25.3793 -1.01418 138.333 11.6879 2.14971 -0.0519449 0.04 
1475 1 1 0.397351 -0.26433 -0.959131 0 0 0 -0.195041 0.372388 -0.719984 0 0 -6.57473 -6.63706 -4.73055 2.94134 0.04 
1078 1 1 0.476976 -0.241423 -0.942577 0 0 0 0.03688 -0.203419 -0.355426 0 0 -6.57473 2.60256 -3.70311 1.80766 0.04 
13 1 1 0.561104 -0.225098 -0.94329 0 0 0 0.0976812 0.0767739 0.13833 0 0 -6.57473 -9.54716 5.74403 0.523344 0.04 
885 1 1 0.650481 -0.21329 -0.961479 0 0 0 -0.0496863 0.416441 -0.1566 -4.11413 -0.950676 77.8762 -9.68201 -5.2175 6.21257 0.04 
627 1 1 0.774161 -0.221002 -0.957842 0 0 0 -0.539484 0.694345 0.22366 -64.2343 15.6033 -73.3804 -13.3051 2.36977 -0.236732 0.04 
1206 1 1 0.892422 -0.258101 -0.950339 0 0 0 0.503375 0.617829 -0.676044 0 0 -6.57473 -4.7885 6.90158 -1.68274 0.04 
1130 1 1 0.958754 -0.212412 -0.96286 0 0 0 0.563101 0.547137 0.507943 -1.28184 40.3352 -28.2198 -2.45514 7.54746 -1.52488 0.04 
1324 1 1 -0.950962 -0.17657 -0.958185 0 0 0 0.380279 0.408022 0.361367 0 0 -6.57473 0.140762 1.5024 1.40814 0.04 
1484 1 1 -0.775531 -0.147975 -0.938403 0 0 0 -0.495804 0.649565 0.680971 -21.882 -9.69123 -0.664406 -18.9018 0.864223 -4.83512 0.04 
1150 1 1 -0.619454 -0.158427 -0.953968 0 0 0 0.224229 0.367948 -0.511484 -1.25545 -2.73448 -4.05704 -2.63563 0.670885 -0.115135 0.04 
1192 1 1 -0.404734 -0.166083 -0.952138 0 0 0 -0.0772965 0.485057 -0.225207 0 0 -6.57473 2.00494 10.5969 -6.28934 0.04 
668 1 1 -0.260433 -0.156821 -0.958186 0 0 0 -0.123385 0.106465 -0.0733022 19.9158 99.7426 -14.1936 -2.36152 -1.03127 2.95986 0.04 
295 1 1 -0.141947 -0.189926 -0.948947 0 0 0 -0.464281 0.211575 0.914773 46.7558 13.2447 -28.3133 -6.74565 -1.50433 -1.193 0.04 
1102 1 1 -0.0569461 -0.168887 -0.953177 0 0 0 -0.134193 0.521589 -0.0451628 -5.84381 5.24915 -48.1664 -4.07039 -6.03769 -0.641255 0.04 
1012 1 1 0.152377 -0.188304 -0.950795 0 0 0 -0.549345 0.865734 0.382687 -83.4093 69.2535 -7.79626 -1.89135 -1.99215 -0.624425 0.04 
231 1 1 0.213829 -0.140464 -0.945893 0 0 0 -0.62037 0.0146623 0.357695 76.237 59.7532 -55.3716 -6.85752 4.304 5.97121 0.04 
685 1 1 0.419369 -0.144071 -0.959093 0 0 0 -0.148429 0.533615 -0.267009 -96.2537 16.4961 -20.8528 -7.87598 -0.726674 -9.95893 0.04 
1096 1 1 0.493719 -0.159192 -0.944914 0 0 0 0.306624 -0.115201 0.253595 96.2537 -16.4961 7.70332 -10.7719 -0.99195 -3.64804 0.04 
1033 1 1 0.817498 -0.132781 -0.960784 0 0 0 0.292437 0.242671 -0.210346 9.47048 20.2673 1.46397 -7.69621 -2.90271 2.55145 0.04 
1191 1 1 0.949257 -0.133451 -0.958181 0 0 0 -0.421799 0.806168 0.246207 19.5452 -9.31288 -9.6514 -7.95058 -6.56292 -4.52613 0.04 
1371 1 1 -0.946907 -0.0671371 -0.960363 0 0 0 0.107703 0.140266 0.155243 -0.360859 0.836041 11.6372 -4.62778 2.23083 8.71454 0.04 
1238 1 1 -0.876857 -0.1065 -0.944383 0 0 0 -0.559044 -0.00107996 -0.559786 0 0 -6.57473 1.91745 8.00463 -2.22844 0.04 
660 1 1 -0.804886 -0.0707462 -0.957266 0 0 0 -0.727628 0.759725 0.260837 0 0 -6.57473 -6.35216 3.23686 -0.153935 0.04 
1160 1 1 -0.705664 -0.114359 -0.954342 0 0 0 0.293708 0.813373 0.155119 21.882 9.69123 -12.485 -5.33761 2.00135 0.809886 0.04 
1208 1 1 -0.552878 -0.0780167 -0.954436 0 0 0 0.000479633 0.468616 -0.11717 0 0 -6.57473 -8.33602 -3.96179 0.689284 0.04 
1403 1 1 -0.47613 -0.116619 -0.961507 0 0 0 0.0507168 0.695217 0.486446 -24.2071 -2.08762 21.5125 -5.8928 4.16999 2.11243 0.04 
619 1 1 -0.334183 -0.124097 -0.941602 0 0 0 -0.18287 0.416517 0.738943 0 0 -6.57473 -4.91727 11.7489 3.47881 0.04 
1095 1 1 -0.265842 -0.0702384 -0.963243 0 0 0 -0.497927 -0.126426 0.166237 42.1887 -11.2998 144.898 -3.64896 5.76278 1.95487 0.04 
1198 1 1 -0.189217 -0.117977 -0.958252 0 0 0 -0.351105 0.303789 -0.00720992 0 0 -6.57473 -5.72942 -3.95561 1.09221 0.04 
1304 1 1 -0.111 -0.0888643 -0.946834 0 0 0 0.2716 0.814665 0.287983 0 0 -6.57473 -12.4034 -6.58096 4.24826 0.04 
1240 1 1 0.0109445 -0.0894131 -0.948792 0 0 0 0.286546 0.341741 -0.331217 0 0 -6.57473 1.50383 11.529 -9.16502 0.04 
906 1 1 0.095168 -0.103763 -0.956019 0 0 0 0.331681 -0.0258903 0.500597 0 0 -6.57473 -0.143801 0.46215 -2.59298 0.04 
1466 1 1 0.179773 -0.0606097 -0.95971 0 0 0 0.129011 1.10568 0.087108 0 0 -6.57473 -6.75995 -0.46771 2.69906 0.04 
1126 1 1 0.326892 -0.13009 -0.951454 0 0 0 0.342953 0.338556 -0.548003 -18.4696 -9.94651 -23.1345 5.23959 0.539509 -10.7291 0.04 
864 1 1 0.566333 -0.122402 -0.956832 0 0 0 -0.832572 0.731486 -0.151006 0 0 -6.57473 -1.14828 0.861327 4.6271 0.04 
952 1 1 0.64982 -0.116145 -0.95867 0 0 0 -0.233865 0.100677 0.673215 0 0 -6.57473 -5.00236 -4.10872 -4.41168 0.04 
1189 1 1 0.73218 -0.11688 -0.961463 0 0 0 -0.0183246 0.174207 0.0984241 41.5934 -72.058 65.9062 -8.98685 -3.20143 -2.27375 0.04 
539 1 1 0.893324 -0.077499 -0.950723 0 0 0 0.768284 0.581079 -0.826835 -81.4318 -19.5009 10.379 -3.86287 4.67084 2.72826 0.04 
837 1 1 -0.885621 -0.00554289 -0.956827 0 0 0 -0.709471 0.790794 0.477535 0 0 -6.57473 6.49584 -4.60738 -2.1947 0.04 
1471 1 1 -0.665058 -0.0429075 -0.955989 0 0 0 0.112746 0.248248 0.573468 0 0 -6.57473 -6.68263 2.21004 5.01662 0.04 
1235 1 1 -0.411527 -0.0531415 -0.959522 0 0 0 -0.0877476 0.669036 -0.020039 41.9081 -19.172 -29.4954 -5.52072 0.776153 -8.79566 0.04 
854 1 1 -0.10316 0.00307841 -0.958516 0 0 0 0.420899 0.523885 -0.0482178 0 0 -6.57473 -8.10808 3.13898 -1.1192 0.04 
638 1 1 -0.00894922 -0.00630772 -0.962042 0 0 0 0.043041 1.04228 -0.787649 0.356849 -6.18945 117.42 2.2132 2.7709 9.56056 0.04 
1164 1 1 0.511526 -0.05713 -0.956242 0 0 0 0.521043 -0.415414 -0.0612211 0 0 -6.57473 1.90562 0.343825 -7.01104 0.04 