ITEM: TIMESTEP
94000
ITEM: NUMBER OF ATOMS
1500
ITEM: BOX BOUNDS ff ff ff
-1 1
-1 1
-1 1
ITEM: ATOMS id type type x y z ix iy iz vx vy vz fx fy fz omegax omegay omegaz radius 
137 1 1 -0.96011 -0.960152 -0.960202 0 0 0 -3.65558e-05 1.17898e-05 6.32987e-06 0.000964133 0.00513308 -0.00314475 -0.000488521 -0.000750034 0.00114911 0.04 
5 1 1 -0.830892 -0.960168 -0.960266 0 0 0 -4.92193e-05 4.61761e-05 -2.25504e-05 0.00249302 -0.000726241 0.00159669 -0.000659119 -0.000441166 -4.36515e-06 0.04 
239 1 1 -0.750973 -0.96014 -0.960254 0 0 0 -6.70573e-05 6.14253e-06 -4.69375e-05 0.00117264 -0.00485897 -0.000912186 -0.00100109 -0.0009462 0.000337166 0.04 
34 1 1 -0.671017 -0.960043 -0.960246 0 0 0 -5.92402e-05 -2.26846e-05 -7.11347e-06 0.00186319 0.00112369 -0.0025784 0.000815507 -0.00100867 6.57191e-05 0.04 
415 1 1 -0.591069 -0.960061 -0.960291 0 0 0 -5.99158e-05 -1.29179e-05 2.76144e-05 0.0073532 0.00614654 0.00731176 0.000606682 -0.000887108 0.000758901 0.04 
138 1 1 -0.510835 -0.960068 -0.960241 0 0 0 -2.57459e-05 6.14202e-05 2.68221e-05 0.00288242 0.0108936 -0.00148438 -0.000869468 -0.00162313 0.00181532 0.04 
323 1 1 -0.43029 -0.959874 -0.960153 0 0 0 4.24511e-05 0.000145037 -3.14424e-06 0.0371226 -0.00510728 -0.0136646 -0.00403053 0.00159113 0.00674906 0.04 
130 1 1 -0.350317 -0.960037 -0.960252 0 0 0 2.64969e-05 -9.84072e-06 -0.000118099 0.0152597 -0.0118906 -0.0490776 -0.00107372 0.00123332 -0.00642275 0.04 
502 1 1 -0.270345 -0.960117 -0.960298 0 0 0 -1.988e-06 -0.000217011 -0.000228291 0.014129 0.0454203 -0.0203356 -1.62332e-05 0.00161936 -0.00168079 0.04 
494 1 1 -0.174301 -0.96016 -0.960226 0 0 0 -6.39456e-05 -4.76761e-05 4.73766e-05 -0.00750645 0.0184233 -0.0394205 -0.00178977 -0.00179762 -0.000480502 0.04 
448 1 1 -0.0943157 -0.960144 -0.960264 0 0 0 9.97322e-06 5.59228e-05 0.000209082 0.00156124 -0.0266602 0.017177 -0.000378025 -0.00295749 -0.00119149 0.04 
147 1 1 -0.0144565 -0.960163 -0.960218 0 0 0 -7.12193e-06 0.000382721 0.000129024 0.0186275 0.0273482 0.0278566 -0.0129554 0.00441457 0.00915652 0.04 
218 1 1 0.0655473 -0.960163 -0.960205 0 0 0 -7.31782e-05 -0.00047251 -0.000382146 0.0134686 -0.0190738 -0.015466 0.0100482 -9.28085e-05 0.0044311 0.04 
339 1 1 0.145883 -0.960148 -0.960213 0 0 0 -0.00746543 -0.000441205 -7.03992e-05 0.164474 0.0130099 0.0214348 0.00595478 -0.188462 0.19243 0.04 
81 1 1 0.225864 -0.960106 -0.960177 0 0 0 -0.00763106 -8.18026e-05 0.000450422 0.166414 0.0553772 0.0160656 0.00743611 -0.195986 0.196206 0.04 
341 1 1 0.305791 -0.960071 -0.960153 0 0 0 -0.00663901 -0.000445917 -0.000162794 0.094058 0.0793954 -0.062108 0.0115006 -0.164192 0.133856 0.04 
203 1 1 0.385747 -0.960067 -0.960224 0 0 0 -0.00524137 -0.000831893 -0.00063567 0.177138 0.0127985 -0.00226792 0.0249702 -0.117099 0.120103 0.04 
1019 1 1 0.473731 -0.960014 -0.960213 0 0 0 -2.87992e-05 -4.67815e-05 -0.000223053 0.0293306 -0.00803457 -0.0228389 -0.000346885 -0.00387624 -0.0255555 0.04 
821 1 1 0.553718 -0.960024 -0.96023 0 0 0 -0.000171494 9.2654e-05 -4.17809e-05 0.0147735 0.00649393 -0.0386485 -0.00484677 -0.00285083 -0.00231255 0.04 
636 1 1 0.633695 -0.960458 -0.960199 0 0 0 -6.84376e-05 -4.72913e-05 3.50725e-05 -0.0212176 0.0137979 -0.00978051 0.00150361 -0.00191778 0.000424485 0.04 
729 1 1 0.72024 -0.960012 -0.960159 0 0 0 -6.70102e-05 9.9951e-05 -0.000168376 -0.0137905 -0.00149724 -0.0187038 -0.00386768 -0.00287621 0.00167931 0.04 
503 1 1 0.800202 -0.960036 -0.960137 0 0 0 -3.68869e-05 2.41089e-05 3.68611e-05 -0.00744558 0.0134769 -0.00723277 0.000673894 -0.0018299 -0.00198008 0.04 
424 1 1 0.880173 -0.960038 -0.960162 0 0 0 1.67925e-06 -4.03738e-05 2.17694e-05 -0.00532398 -0.0156815 0.00335528 0.00139949 0.00340567 0.000975143 0.04 
850 1 1 0.960099 -0.958944 -0.960223 0 0 0 -6.38913e-05 -4.2962e-05 -9.8134e-05 0.00420415 -0.0206993 0.000940062 0.0017634 -0.00269919 -1.65588e-05 0.04 
778 1 1 -0.959929 -0.880402 -0.960216 0 0 0 -0.000103929 -1.20558e-05 2.55036e-06 -0.00582839 0.0175994 -0.00118121 0.000882741 -0.00301992 7.06974e-05 0.04 
918 1 1 -0.880186 -0.897208 -0.960224 0 0 0 -8.85257e-06 0.000120829 -6.81875e-05 0.00549362 0.00418603 0.000596694 -0.0023538 5.66981e-05 -0.000367014 0.04 
246 1 1 -0.791826 -0.890615 -0.960152 0 0 0 -6.4375e-05 2.28829e-06 7.34122e-06 -0.0160273 -0.0120572 -0.00232305 0.000628733 -0.00146362 -0.000737671 0.04 
586 1 1 -0.711861 -0.890536 -0.960297 0 0 0 -7.71506e-05 -7.75893e-05 -1.60997e-05 -0.0018208 -0.0116757 0.00534903 0.000550773 -0.00109581 -0.00149142 0.04 
379 1 1 -0.63091 -0.890719 -0.96019 0 0 0 -7.43785e-05 -8.52599e-05 -7.28397e-05 0.000493916 0.00308676 -0.0109667 0.000917382 -0.000917421 -0.00316745 0.04 
105 1 1 -0.550905 -0.890945 -0.960215 0 0 0 -2.31744e-05 2.3131e-05 -4.63599e-05 0.010772 0.0139522 0.00561974 -0.001342 0.000652711 0.000331636 0.04 
289 1 1 -0.471003 -0.890714 -0.960251 0 0 0 1.26866e-05 8.56278e-06 -4.00017e-05 0.0140932 0.0141804 0.0222072 0.000469943 -0.000265053 -0.0030989 0.04 
345 1 1 -0.390041 -0.871055 -0.960117 0 0 0 0.00367129 0.0026549 -7.66114e-05 -0.000141755 -7.29529e-05 -0.0441936 -0.0664665 0.0919112 0.123384 0.04 
209 1 1 -0.310216 -0.890859 -0.960161 0 0 0 4.587e-05 -0.000226727 -0.000317735 -0.0114786 0.0108494 0.0130129 0.00131769 0.00429127 0.00328525 0.04 
647 1 1 -0.222237 -0.896268 -0.960222 0 0 0 -0.000267852 -0.000187695 -0.000291797 0.0172818 -0.00591197 -0.0317191 -0.000704816 -0.00792684 0.00816534 0.04 
700 1 1 -0.134294 -0.891084 -0.96019 0 0 0 -0.000258911 -0.00024486 -0.000163787 -0.0122028 -0.0341141 -0.037459 -0.00116473 -0.00434897 0.00286022 0.04 
616 1 1 -0.0544132 -0.890859 -0.96023 0 0 0 -0.000275295 0.000508138 -0.000225577 -0.0270873 -0.0316009 0.0444197 -0.0173697 -0.00354898 0.0126851 0.04 
87 1 1 0.0254681 -0.891071 -0.960209 0 0 0 0.000141288 -0.000290923 0.000183167 0.0121491 -0.0158506 -0.0102885 0.00885247 0.000720773 -0.0243187 0.04 
655 1 1 0.105669 -0.891105 -0.960218 0 0 0 -0.00321755 0.00119915 -0.000217867 0.0262956 -0.0205406 0.0367298 -0.0307973 -0.0773142 -0.0557227 0.04 
977 1 1 0.18581 -0.890943 -0.960197 0 0 0 -0.00719237 -0.000343343 0.000430427 0.132585 0.0537473 -0.00138419 0.0155177 -0.191139 -0.167427 0.04 
19 1 1 0.265766 -0.890859 -0.960236 0 0 0 -0.00647305 -0.000454587 0.00248212 0.206935 0.121069 -0.102547 0.0056978 -0.170455 -0.215094 0.04 
443 1 1 0.345756 -0.89082 -0.960249 0 0 0 -0.00583687 -0.00200155 -0.000112634 0.164745 0.0512891 -0.00116835 0.0528461 -0.139656 -0.103931 0.04 
664 1 1 0.429667 -0.89326 -0.960206 0 0 0 -0.00346552 -0.00251308 -0.000897818 0.081132 0.0532646 -0.0390459 0.0634867 -0.0905133 0.183845 0.04 
74 1 1 0.59436 -0.891149 -0.960226 0 0 0 3.8753e-05 8.43741e-05 0.000236003 -0.0367837 0.0142115 0.00689372 -0.000611561 0.00481818 -0.00308047 0.04 
50 1 1 0.67425 -0.892014 -0.960179 0 0 0 -3.09175e-05 5.64591e-05 8.55292e-05 -0.0311188 0.0108117 0.00245825 -0.000789341 0.000177926 0.00100167 0.04 
1 1 1 0.749838 -0.866813 -0.960241 0 0 0 6.78096e-05 -2.33606e-05 -1.90366e-05 -0.0210642 0.014426 -0.00564005 -0.0018403 3.53976e-05 -0.00502771 0.04 
812 1 1 0.878005 -0.880131 -0.960204 0 0 0 0.000140513 -7.34994e-05 -0.000158295 0.011934 0.0144353 -0.00501169 0.00294639 0.00367491 -0.00217107 0.04 
446 1 1 -0.960244 -0.800741 -0.960214 0 0 0 1.30152e-05 3.90964e-05 8.63253e-06 -0.00295619 0.00227826 -0.00381257 -0.00140749 -0.000209915 -0.00168024 0.04 
352 1 1 -0.84095 -0.827529 -0.960338 0 0 0 3.73061e-05 0.000118181 -7.46755e-05 -0.00977488 -0.00636045 0.00131768 -0.00224357 0.000669672 -0.00163868 0.04 
894 1 1 -0.761755 -0.816667 -0.960285 0 0 0 -1.25234e-05 -4.93166e-05 0.00017678 -0.0178662 -0.000884289 -0.0117934 0.000846292 0.000609968 -0.00089598 0.04 
960 1 1 -0.681855 -0.816439 -0.960115 0 0 0 4.29141e-05 -0.000172964 4.27866e-06 -0.0196387 0.000823699 0.00399224 0.00401588 0.00349314 -0.000116844 0.04 
380 1 1 -0.535216 -0.8125 -0.960158 0 0 0 1.22997e-05 5.06172e-05 3.63172e-05 -0.00470627 0.0308265 0.0217406 0.00147408 -0.000361335 0.0037301 0.04 
720 1 1 -0.257501 -0.824556 -0.960295 0 0 0 -0.000160172 -0.000245047 -0.000166202 0.00470988 0.00294924 -0.000702085 0.00705418 -0.00290318 -0.00898674 0.04 
161 1 1 -0.175152 -0.822676 -0.960298 0 0 0 -0.00377394 -0.00267658 -0.000272073 -0.00516872 -0.0228446 -0.0302405 0.0704938 -0.0995966 0.115454 0.04 
385 1 1 -0.0952258 -0.819915 -0.960186 0 0 0 -0.00333334 -0.00415629 4.57993e-05 -0.00173793 0.0399443 0.00751392 0.101384 -0.084038 -0.128281 0.04 
827 1 1 -0.0150145 -0.821287 -0.960266 0 0 0 -0.00345575 0.0031847 -0.00114626 -0.0116612 -0.0467872 0.0211714 -0.089841 -0.0802074 0.131531 0.04 
784 1 1 0.0653953 -0.822071 -0.960254 0 0 0 -0.00310925 0.00141049 -4.1279e-05 0.0200251 -0.0414609 0.0393272 -0.0450313 -0.0780347 0.114664 0.04 
211 1 1 0.145565 -0.821925 -0.96022 0 0 0 -0.00473505 0.00204734 0.000502105 0.0548431 0.0261452 0.0325859 0.0412255 0.00581807 0.0943401 0.04 
121 1 1 0.22545 -0.821502 -0.960185 0 0 0 -0.00623824 -0.00147294 4.06571e-05 0.063349 0.113556 -0.15461 0.0303276 -0.0940542 -0.26551 0.04 
354 1 1 0.302863 -0.802083 -0.960225 0 0 0 -0.0050969 -0.00998768 -0.000204019 0.0492318 0.247182 -0.0729215 0.200576 0.0605812 0.11724 0.04 
229 1 1 0.380764 -0.818969 -0.960349 0 0 0 -0.0041071 -0.00365308 -0.000149438 -0.0238375 0.164715 0.0857413 0.0931585 -0.120684 0.0452778 0.04 
369 1 1 0.456172 -0.822091 -0.935126 0 0 0 -0.00282987 -0.0025348 -0.00165231 -0.0276548 0.0378029 0.0414343 -0.134609 0.166273 -0.0219679 0.04 
396 1 1 0.519588 -0.863426 -0.960243 0 0 0 -0.00172766 -0.00339715 0.000411972 -0.0302085 0.118367 -0.0612193 0.0856247 -0.0366644 0.104946 0.04 
866 1 1 0.59404 -0.811316 -0.960327 0 0 0 -0.000153162 0.000160406 0.000197781 -0.0419383 -0.0201054 -0.00193703 -0.00488303 -0.00129883 0.00578366 0.04 
628 1 1 0.673823 -0.812296 -0.960207 0 0 0 -3.80043e-05 9.79479e-05 0.000152267 -0.01226 0.0202782 0.00622295 6.68418e-05 0.00143371 -0.00250801 0.04 
554 1 1 0.818677 -0.826506 -0.96028 0 0 0 8.16047e-05 -0.00016048 2.45344e-05 0.000836985 0.011794 0.00228788 0.00610661 0.000496012 0.0024144 0.04 
417 1 1 0.960153 -0.833967 -0.960253 0 0 0 -3.28669e-05 7.25588e-05 -3.75198e-05 -0.00198416 0.00068752 -0.00285892 -0.00188312 -0.000455026 -0.00277218 0.04 
282 1 1 -0.889435 -0.764114 -0.960201 0 0 0 4.99209e-05 0.000103918 -8.44884e-06 0.00307106 -0.00063717 -0.00379797 -0.000511121 0.00102462 0.00375091 0.04 
492 1 1 -0.810309 -0.753186 -0.960208 0 0 0 1.17042e-05 0.000185314 6.06812e-05 0.0004427 -0.00821431 -0.00939107 -0.00642357 -0.000897576 -0.0034483 0.04 
290 1 1 -0.60945 -0.782712 -0.960224 0 0 0 -4.22946e-05 -0.000142504 4.26647e-06 -0.00472962 0.00979938 0.0218215 0.00486239 -0.00237619 -0.00146167 0.04 
52 1 1 -0.453376 -0.788987 -0.960332 0 0 0 0.000127653 -5.19173e-05 -3.50911e-05 -0.0418887 -0.0364481 0.0214768 0.000649943 0.00184608 -0.00318745 0.04 
480 1 1 -0.375652 -0.770515 -0.960356 0 0 0 2.99726e-06 -0.000208864 0.000219149 -0.0405308 0.00212659 -0.0107972 0.00221008 -0.00387195 0.00181415 0.04 
402 1 1 -0.297571 -0.753555 -0.960121 0 0 0 7.71976e-05 -0.000264885 -6.90257e-06 -0.0410285 0.00943737 0.0133757 0.00533157 0.00685972 -0.00391833 0.04 
322 1 1 -0.217688 -0.755289 -0.960141 0 0 0 -1.01702e-05 -0.000275748 0.000214121 0.0253529 -0.00160082 0.0403222 0.00167206 -0.00141235 0.00166805 0.04 
376 1 1 -0.137648 -0.752106 -0.960136 0 0 0 -0.0018263 -0.00355864 -0.000119128 -0.0181158 0.0413724 -0.0348782 0.0878612 -0.0449813 -0.161031 0.04 
204 1 1 -0.0596176 -0.734665 -0.960302 0 0 0 -0.0002111 -0.0115536 -0.000377024 -0.0858985 0.00731428 0.0126778 0.286765 -0.00798176 0.22874 0.04 
1122 1 1 0.0191429 -0.748507 -0.960156 0 0 0 0.000973059 -0.00067326 0.000247992 -0.0916669 -0.0558556 -0.06513 0.0111944 0.0249845 0.0613101 0.04 
773 1 1 0.105294 -0.753109 -0.960327 0 0 0 -0.00448785 0.00185738 -5.45854e-05 0.0998357 -0.0246299 0.0193704 -0.0254391 -0.0607095 -0.0801348 0.04 
725 1 1 0.185272 -0.752337 -0.960159 0 0 0 -0.00382703 0.000210849 0.000203429 0.0658395 -0.0273123 -0.0108566 -0.00650937 -0.0962949 0.020018 0.04 
159 1 1 0.345905 -0.734712 -0.960262 0 0 0 -0.0096225 -0.00816052 -6.16828e-05 0.0509351 0.152067 0.0294617 0.209452 -0.25069 0.0296966 0.04 
688 1 1 0.483017 -0.751111 -0.960244 0 0 0 -0.00555111 -0.00126121 0.000446021 -0.0351861 -0.0226127 -0.0277734 0.029622 -0.135045 -0.00805051 0.04 
757 1 1 0.561828 -0.738231 -0.960172 0 0 0 -0.00508797 -0.00178392 0.000205113 -0.0198946 -0.0250158 0.0201498 0.0666256 -0.0228104 -0.0301591 0.04 
519 1 1 0.641638 -0.739268 -0.960179 0 0 0 -0.00511959 -0.00227392 0.000192678 0.0299794 0.00713369 -0.00764786 -0.00167524 0.0227573 0.0189353 0.04 
742 1 1 0.749354 -0.78688 -0.960235 0 0 0 2.25209e-07 -0.000163847 -5.19118e-05 0.00283334 0.0190499 -0.0129681 0.00399614 0.000462722 -0.00463552 0.04 
603 1 1 0.818329 -0.746631 -0.96013 0 0 0 8.29457e-05 -0.000264501 3.09981e-05 0.00547626 -0.00507181 -0.0168795 -0.00712943 -0.0037384 0.000698736 0.04 
86 1 1 0.891232 -0.79368 -0.960276 0 0 0 -3.06784e-05 2.38007e-06 7.13907e-05 0.0078771 0.00974214 0.00504175 3.35922e-05 0.000822136 0.00328317 0.04 
972 1 1 0.960241 -0.753737 -0.960208 0 0 0 -4.73374e-05 7.68027e-05 5.58688e-05 0.0018404 0.00355364 0.00013753 -0.00222142 -0.000219504 -0.00128214 0.04 
488 1 1 -0.960206 -0.720976 -0.960237 0 0 0 2.38997e-05 0.000102591 -3.99252e-05 0.00333819 0.00116389 -0.00691507 -0.00138812 0.00120444 0.0025627 0.04 
532 1 1 -0.889467 -0.684331 -0.960246 0 0 0 -4.36368e-05 0.0001249 -7.18211e-05 0.0299854 -0.0193604 -0.00404954 -0.00200505 -0.00185863 -0.00306393 0.04 
564 1 1 -0.744079 -0.70835 -0.960259 0 0 0 2.3101e-05 -5.34597e-05 0.00015653 -0.0061258 -0.00747356 0.00521684 -0.0008888 -0.000553137 0.000187591 0.04 
314 1 1 -0.666197 -0.726436 -0.960118 0 0 0 7.55597e-05 -3.73554e-05 7.87656e-05 -0.0122145 -0.0246791 -0.0286056 -0.000496827 0.00354636 0.000259025 0.04 
783 1 1 -0.611379 -0.667436 -0.960254 0 0 0 3.10966e-05 1.72346e-05 -0.000112667 0.0230564 0.0253041 0.00214221 0.000123314 0.00132579 -0.00889243 0.04 
1127 1 1 -0.555111 -0.72425 -0.960255 0 0 0 7.78845e-06 2.23394e-05 0.000161617 0.0210638 0.0200185 0.0332681 -0.00133032 -0.00140019 0.00423164 0.04 
241 1 1 -0.476087 -0.712364 -0.960185 0 0 0 0.00033026 -2.12226e-05 0.000174915 0.0205302 -0.000204832 0.00210499 0.000802218 0.0123162 -0.00149603 0.04 
85 1 1 -0.390965 -0.69221 -0.960254 0 0 0 -0.000129618 -0.000358122 0.000146583 -0.0314875 -0.032628 0.00428058 -0.0039332 0.00886479 0.00565504 0.04 
511 1 1 -0.312948 -0.67507 -0.960171 0 0 0 -7.7923e-06 -0.00032825 0.000231393 0.0101959 -0.030704 0.00778504 0.0119602 -0.00361764 -0.00142366 0.04 
873 1 1 -0.233041 -0.677146 -0.960338 0 0 0 4.28903e-05 -0.000296926 0.000225982 -0.00651993 0.0214567 0.0617058 0.00719493 0.00105014 -0.00174587 0.04 
738 1 1 -0.122608 -0.673587 -0.960256 0 0 0 0.00128243 -0.00448552 -0.000234376 -0.0384947 0.0369824 0.0126019 0.113279 0.0313928 0.0179098 0.04 
1088 1 1 0.110944 -0.673802 -0.960226 0 0 0 -0.00013002 0.00125899 -0.000327441 0.0263726 0.00484054 0.0130475 0.00761967 -0.0167281 -0.0428701 0.04 
862 1 1 0.20834 -0.675803 -0.960171 0 0 0 0.000965341 -0.000900123 -0.000400408 0.103223 -0.040055 0.0277977 0.0185859 0.0280869 -0.110917 0.04 
967 1 1 0.26606 -0.731111 -0.960293 0 0 0 -0.00955469 -0.0114419 0.0012466 0.109081 -0.0589888 0.0325964 0.278353 -0.24849 -0.176094 0.04 
451 1 1 0.433162 -0.688599 -0.960197 0 0 0 -0.00789483 -0.00395146 0.000725729 0.0130022 0.0339376 0.00637431 0.101556 -0.198429 -0.00843922 0.04 
177 1 1 0.512104 -0.675739 -0.96021 0 0 0 -0.00740658 -0.00346808 -0.000150494 -0.0202744 0.0159682 0.0140883 0.0852018 -0.183159 0.09828 0.04 
308 1 1 0.678836 -0.66867 -0.960164 0 0 0 -0.00190273 -0.00418843 -1.42105e-05 0.00760674 0.0155592 -0.01092 0.00447744 -0.000141111 -0.113954 0.04 
439 1 1 0.748941 -0.707047 -0.960205 0 0 0 0.00020147 -0.000238387 -0.000211253 -0.00924913 -0.00474379 0.0126538 0.00523697 0.00416398 -0.000623287 0.04 
662 1 1 0.818024 -0.666707 -0.96023 0 0 0 0.000146716 -0.000194003 -3.68814e-05 -0.0350608 0.0191309 0.00887277 0.00431535 0.00366489 0.000571837 0.04 
188 1 1 0.891036 -0.713775 -0.960246 0 0 0 -4.7611e-05 -1.38867e-05 2.04245e-05 -0.000349603 -0.00548582 -0.0106053 0.000846836 0.000307083 0.00344633 0.04 
987 1 1 0.960144 -0.673802 -0.960182 0 0 0 1.86045e-05 4.61901e-05 4.27385e-06 0.00260603 0.00307316 0.00478799 0.000141497 0.000236947 -0.00180085 0.04 
990 1 1 -0.877724 -0.605525 -0.960221 0 0 0 0.000179507 6.73653e-05 2.29432e-05 -0.00236867 -0.0160672 -0.0104437 0.00137901 0.00150251 -0.00356248 0.04 
826 1 1 -0.811817 -0.666075 -0.960158 0 0 0 -3.47594e-07 -5.93437e-05 -1.79667e-05 0.00122721 -0.0247463 -0.00152379 -0.000319341 -0.0012173 -0.00139203 0.04 
1152 1 1 -0.757382 -0.607612 -0.960256 0 0 0 -4.58893e-05 -0.000104781 -5.15399e-05 0.0215199 -0.00452244 -0.00045664 -0.00137572 -0.00274587 -0.00247127 0.04 
567 1 1 -0.689492 -0.64996 -0.960179 0 0 0 4.28754e-05 -7.99537e-05 5.08238e-05 0.000729486 -0.0220266 -0.0203197 -0.000298949 -0.00125307 -0.000908616 0.04 
170 1 1 -0.527837 -0.649146 -0.960296 0 0 0 8.31959e-05 7.6152e-05 6.5305e-05 0.0161863 -0.0276384 -0.0206859 -0.00145827 0.00457673 0.00281205 0.04 
375 1 1 -0.44882 -0.637348 -0.960307 0 0 0 -0.000172614 4.08017e-05 -5.23453e-05 -0.0212809 -0.0225681 0.00184089 -0.00569462 -0.00403426 -0.00800932 0.04 
709 1 1 -0.367356 -0.615949 -0.960201 0 0 0 9.70167e-05 -0.000612701 -0.000276563 -0.00754771 -0.0153718 -0.0273787 0.011077 -0.000647599 -0.0147229 0.04 
1046 1 1 -0.0466968 -0.648794 -0.960241 0 0 0 -1.60375e-05 -0.000777849 -0.000609125 -0.0101894 0.0623239 -0.0104992 0.0214605 0.000920781 0.061981 0.04 
581 1 1 0.031909 -0.662445 -0.960299 0 0 0 0.000380711 0.00246255 -0.00095331 -0.0229328 -0.000136879 -0.000288391 -0.0554655 0.0137761 0.0200555 0.04 
61 1 1 0.160682 -0.61161 -0.960229 0 0 0 0.00200206 -0.000699542 0.000142885 -0.0468036 0.0515715 0.0878826 0.0223202 0.0511639 -0.0209996 0.04 
1052 1 1 0.252404 -0.609076 -0.960294 0 0 0 0.000282501 -0.000592288 -0.000236292 -0.0529465 -0.00510712 0.0292175 0.0208754 0.00465461 -0.059139 0.04 
656 1 1 0.312193 -0.662193 -0.960125 0 0 0 -0.0055378 -0.0066954 -1.42077e-05 0.0473459 0.0805016 -0.0439732 0.166392 -0.137398 -0.148226 0.04 
1082 1 1 0.383484 -0.62593 -0.960244 0 0 0 -0.00735296 -0.00362528 -0.000460524 0.0866144 0.0422766 -0.0528598 0.0968668 -0.192457 -0.00703808 0.04 
255 1 1 0.462383 -0.613263 -0.960265 0 0 0 -0.00721303 -0.00350065 0.000130393 0.0333311 -0.00300268 0.0135978 0.0853535 -0.179977 -0.108775 0.04 
880 1 1 0.598735 -0.66585 -0.96023 0 0 0 -0.00493178 -0.00537192 -0.00033454 0.0244014 0.0579053 -0.0184119 0.135497 -0.123984 -0.12019 0.04 
1026 1 1 0.543373 -0.601713 -0.960177 0 0 0 -0.0027113 0.000185666 -0.000275218 -0.00910727 0.0457729 0.0180943 -0.00505031 -0.0670662 -0.142336 0.04 
543 1 1 0.748539 -0.627259 -0.960163 0 0 0 -5.49344e-05 -0.00044027 0.00026951 -0.0184374 0.011911 0.00910507 0.0116668 -0.0003357 0.004268 0.04 
553 1 1 0.890861 -0.633901 -0.960238 0 0 0 6.48588e-05 -2.61662e-05 6.47499e-06 0.00286764 0.00338196 0.000213492 0.000195165 0.0002278 0.00211946 0.04 
260 1 1 -0.960001 -0.595548 -0.960243 0 0 0 -1.99e-05 2.52359e-06 -0.00010752 -0.00698926 -0.00963036 0.0116719 -0.000145608 -0.000129686 -0.00344789 0.04 
565 1 1 -0.816685 -0.553957 -0.960231 0 0 0 0.00015842 3.4973e-05 3.78311e-05 -0.00293341 -0.0363578 -0.0384858 -1.84361e-05 0.00266333 0.00202812 0.04 
1113 1 1 -0.703066 -0.549201 -0.96028 0 0 0 6.22243e-05 -0.000145695 -1.78376e-05 0.0313918 -0.0258639 -0.023479 0.00220376 0.00146311 0.00243563 0.04 
925 1 1 -0.635184 -0.591248 -0.960147 0 0 0 0.000249757 -1.48393e-06 2.29434e-05 -0.00525442 -0.0048331 -0.0197367 -0.000996528 0.00300369 0.00132806 0.04 
893 1 1 -0.547622 -0.56265 -0.960173 0 0 0 0.000280693 1.22169e-07 -2.21844e-05 -0.0208206 -0.0527354 0.00720004 -0.00363276 0.00883977 -0.0100575 0.04 
1103 1 1 -0.454725 -0.557909 -0.960296 0 0 0 0.000347306 0.000108883 -0.000388871 -0.0127575 -0.00107314 0.0227821 -0.00505767 0.0080084 -0.00671568 0.04 
1448 1 1 -0.377679 -0.53667 -0.96017 0 0 0 0.000601739 -0.00077026 -3.07192e-05 -0.0150836 -0.038995 -0.00358866 0.015562 0.0155252 -0.00771728 0.04 
631 1 1 -0.303895 -0.567433 -0.960243 0 0 0 0.000460846 -0.00126058 0.000128654 -0.0285181 -0.0162474 -0.00576398 0.0277316 0.0150218 -0.00235694 0.04 
714 1 1 -0.230099 -0.597766 -0.960347 0 0 0 0.000848787 -0.000470648 0.00027008 -0.0124912 0.00429065 -0.00773749 -0.0116623 0.015397 -0.0119152 0.04 
962 1 1 -0.16547 -0.550816 -0.96021 0 0 0 0.000546887 -0.000660001 -0.000208325 0.0153745 0.0312629 -0.0436825 0.0170279 0.00996441 0.00742619 0.04 
950 1 1 -0.0924058 -0.583228 -0.960253 0 0 0 0.000493494 -0.000505788 0.000229589 0.00887491 -0.0171736 -0.012713 0.0147418 0.0088762 -0.0541602 0.04 
716 1 1 0.0025992 -0.585847 -0.960223 0 0 0 0.000730092 -0.00153848 -0.000384279 0.0357954 -0.0129617 0.0336276 0.0480335 0.0215227 -0.0316257 0.04 
388 1 1 0.0813411 -0.599685 -0.960223 0 0 0 0.00121828 0.00148104 -0.000499817 -0.0129751 0.0393011 -0.0143935 -0.0194779 0.0328191 0.014269 0.04 
867 1 1 0.204568 -0.545104 -0.960174 0 0 0 0.000540618 -0.000411822 0.000274173 0.0197503 0.0818122 -0.0258848 0.0121544 0.00662097 0.0526356 0.04 
576 1 1 0.32157 -0.563845 -0.960233 0 0 0 -0.00185159 -0.00318815 0.00029639 0.031863 -0.0339594 -0.0214293 0.0767083 -0.0483686 -0.156089 0.04 
408 1 1 0.403696 -0.548596 -0.960206 0 0 0 -0.000600768 -0.00529073 0.000513398 0.012277 0.0403286 -0.0138047 0.131838 -0.0163753 0.0173723 0.04 
814 1 1 0.482614 -0.535999 -0.960226 0 0 0 -0.000254264 -0.00524102 -0.000263065 0.0212352 0.0111614 0.00609125 0.0288023 0.0759219 -0.0351021 0.04 
1288 1 1 0.589578 -0.536082 -0.960265 0 0 0 0.00143979 -0.00501992 -0.000112975 0.0334594 -0.00919222 0.0186469 0.127566 0.0391568 -0.0876268 0.04 
1111 1 1 0.678491 -0.588858 -0.960262 0 0 0 -0.00245123 -0.00375929 6.38619e-05 0.0153654 0.0290891 -0.00936187 0.0946854 -0.0625594 0.06413 0.04 
1138 1 1 0.747147 -0.547439 -0.960221 0 0 0 0.00145715 -0.000750501 4.9258e-05 0.0201464 -0.000705349 0.0213439 0.0203228 0.0338685 0.0169156 0.04 
58 1 1 0.817378 -0.585696 -0.960199 0 0 0 0.000826669 -0.00167532 -0.00020166 0.0161128 -0.0246944 0.0113242 0.0427413 0.0178768 0.0305622 0.04 
1107 1 1 0.890822 -0.55404 -0.960246 0 0 0 9.42859e-05 -4.21201e-05 1.14652e-05 0.00802488 -0.0052488 0.0101072 4.85672e-05 0.00208557 -0.000730104 0.04 
252 1 1 0.960091 -0.593929 -0.960183 0 0 0 6.50941e-05 1.56384e-06 1.54144e-05 0.0061558 0.00340774 0.0181847 -0.000284629 0.000943355 9.11254e-05 0.04 
670 1 1 -0.960082 -0.515581 -0.960206 0 0 0 6.86944e-05 -5.65655e-05 -0.000109268 -0.00815433 -0.00165561 -0.0283672 0.00106637 0.00281273 -0.000592018 0.04 
644 1 1 -0.76122 -0.493778 -0.960276 0 0 0 0.000206075 -0.000124695 2.20749e-05 -0.00357191 -0.0373409 -0.0297126 0.00217796 0.00391838 -0.00234586 0.04 
833 1 1 -0.684407 -0.471771 -0.960316 0 0 0 7.38671e-06 -0.000193752 -5.96873e-05 0.00397951 -0.0174528 -0.0523852 -3.80353e-05 -0.00140891 0.00068545 0.04 
435 1 1 -0.616298 -0.513661 -0.96022 0 0 0 0.00014975 -6.85512e-05 9.05289e-05 0.00187253 -0.0236124 -0.026251 0.00370442 0.000809843 0.00491542 0.04 
816 1 1 -0.503037 -0.494491 -0.960287 0 0 0 2.35455e-05 -6.32513e-05 -1.23784e-05 -0.0112634 0.00318525 -0.0234888 -0.000367638 0.00750567 -0.00721592 0.04 
489 1 1 -0.313911 -0.488204 -0.96023 0 0 0 0.001595 -0.00129959 -0.000136496 0.0146611 0.00968708 -0.0201506 0.00830289 0.00214968 0.00382651 0.04 
883 1 1 -0.240114 -0.51889 -0.960268 0 0 0 0.00180411 -0.00052817 9.02981e-05 -0.021668 -0.00857342 -0.0455895 -0.00470955 0.0393716 -0.0036616 0.04 
305 1 1 -0.175702 -0.471539 -0.960205 0 0 0 0.00177747 -0.000305386 -0.000333054 -0.00404819 0.00524128 -0.0624873 0.00593025 0.0462282 -0.00364464 0.04 
675 1 1 -0.101909 -0.502337 -0.960186 0 0 0 0.00095279 -0.00138927 -8.80939e-05 -0.0165865 0.0140291 -0.0341499 0.0350856 0.020997 -0.0219403 0.04 
1066 1 1 -0.0223401 -0.509945 -0.960301 0 0 0 0.00101779 -0.000355008 7.0093e-05 -0.00920858 -0.0112564 0.00599482 0.0037484 0.0211357 0.00367369 0.04 
143 1 1 0.0589902 -0.523094 -0.960134 0 0 0 -0.000281562 0.00122288 -1.1373e-05 -0.0189749 0.0319191 -0.0164006 0.02461 0.0109375 0.0216195 0.04 
1346 1 1 0.153859 -0.483469 -0.960267 0 0 0 0.00067214 -0.000966453 0.000139074 -0.0357392 0.0462618 -0.00235468 0.0248722 0.0168626 -0.00503076 0.04 
1000 1 1 0.271396 -0.501593 -0.96022 0 0 0 0.000762844 -0.00123274 0.000334972 0.0115538 -0.0209829 -0.0592125 0.0252982 0.0185251 -0.0705642 0.04 
792 1 1 0.350349 -0.489128 -0.960241 0 0 0 0.00135459 -0.00347693 0.000498646 0.00318932 -0.00121649 -0.0155412 0.0872587 0.034721 -0.0307317 0.04 
1361 1 1 0.432743 -0.473467 -0.960211 0 0 0 0.00151457 -0.00390667 0.000115388 -0.0140381 -0.0155515 0.0121372 0.0992233 0.0383178 -0.0398949 0.04 
584 1 1 0.536103 -0.476695 -0.96022 0 0 0 0.000438527 -0.00570737 0.000350067 0.0129884 -0.0220492 -0.00108953 0.0914434 0.0242225 0.016353 0.04 
908 1 1 0.677016 -0.509191 -0.960247 0 0 0 0.000886561 -0.0030336 -0.000226453 -0.00721762 -0.0335302 0.0122358 -0.0301283 0.0104643 0.0153794 0.04 
1309 1 1 0.804309 -0.491632 -0.960228 0 0 0 0.000958309 -0.000207061 -0.000159814 0.0114831 0.0110412 -0.000327685 -0.00192901 -0.00474734 -0.000562833 0.04 
9 1 1 0.890889 -0.474153 -0.960179 0 0 0 -6.24968e-05 -9.01217e-05 -4.11701e-05 -0.0179437 -0.0101893 -0.0015312 0.000909801 -0.000824333 0.00460601 0.04 
771 1 1 0.960096 -0.514067 -0.960232 0 0 0 5.60552e-06 -2.39359e-06 -4.20213e-05 0.00218307 -0.00720794 0.0126741 -0.00101638 -0.000562144 0.00135058 0.04 
1055 1 1 -0.96006 -0.423546 -0.960212 0 0 0 3.93028e-05 -0.000109193 -0.000199062 -0.0074263 -0.00401227 -0.0231495 0.000617207 0.00263506 -0.000716081 0.04 
739 1 1 -0.890746 -0.463393 -0.960239 0 0 0 0.000104868 -0.000130373 -0.000254082 0.00732117 -0.0119049 -0.0400426 0.000944935 0.00210166 0.00146622 0.04 
1142 1 1 -0.821556 -0.423406 -0.960258 0 0 0 6.58228e-05 -8.3007e-05 -0.000358382 0.00323902 -0.0388882 -0.0130258 -0.000807705 0.00184574 0.00139901 0.04 
613 1 1 -0.636885 -0.407817 -0.9603 0 0 0 -3.78445e-05 -0.000126768 -8.16878e-05 0.036746 -0.00799915 -0.0330744 0.000952049 -0.00384436 -0.002436 0.04 
620 1 1 -0.568839 -0.449419 -0.960229 0 0 0 -0.000186352 0.000115994 0.000252855 0.00149205 -0.0240742 -0.0358646 -0.00330647 -0.00137946 0.00475926 0.04 
1316 1 1 -0.461259 -0.426472 -0.960316 0 0 0 0.00152648 -0.00134976 -0.000384753 0.000455769 -0.0129796 -0.0537096 0.0284056 0.0355667 -0.0242773 0.04 
344 1 1 -0.387547 -0.457339 -0.960271 0 0 0 0.00169194 -0.00100714 -1.59781e-05 0.0188861 0.000931741 -0.0150995 -0.000864218 0.00238466 -0.0186893 0.04 
247 1 1 -0.323928 -0.408876 -0.960231 0 0 0 0.00177873 -0.00103319 0.000135284 0.0026417 0.050437 0.0378478 0.00418536 0.00972625 -0.00830281 0.04 
382 1 1 -0.250283 -0.43988 -0.960245 0 0 0 0.00166846 -0.000974372 -0.000136888 0.0156988 0.0230316 -0.0208294 0.00355256 0.00843433 0.00548111 0.04 
1271 1 1 -0.105094 -0.422388 -0.960248 0 0 0 -0.000837508 -0.00118732 0.000221558 0.00686273 -0.0139212 -0.00642532 0.0281574 -0.0227997 -0.080892 0.04 
1249 1 1 0.0294766 -0.448938 -0.960294 0 0 0 -0.000739981 0.00127167 -0.000302693 -0.0279322 0.0150077 -0.0212694 -0.0326668 -0.0190277 -0.00752664 0.04 
1030 1 1 0.104292 -0.420901 -0.960285 0 0 0 0.000630476 -0.00118128 0.000155287 -0.0421709 0.0104699 0.0259486 0.0239824 0.0192467 -0.0139131 0.04 
1148 1 1 0.220718 -0.439711 -0.960256 0 0 0 0.000917709 -0.00116026 0.000206804 0.00125881 0.0202784 -0.0181508 0.0295433 0.0183198 0.00181925 0.04 
772 1 1 0.299941 -0.427087 -0.960207 0 0 0 0.00220132 -0.00260247 0.000183933 0.00576454 -0.000397018 -0.0192225 0.0469582 0.0430601 0.0110129 0.04 
845 1 1 0.378811 -0.414417 -0.960217 0 0 0 0.00192483 -0.0036216 -5.07806e-05 -0.00551289 -0.014498 0.00529369 0.0894396 0.0476912 -0.0398118 0.04 
981 1 1 0.561011 -0.400696 -0.960192 0 0 0 -0.000365475 -0.00547242 -0.00023123 0.00716819 -0.012806 0.00312603 0.00964059 -0.0392519 0.0111944 0.04 
1047 1 1 0.614235 -0.46003 -0.960196 0 0 0 0.000193009 -0.00448823 -9.1813e-05 0.0128094 -0.0390422 0.00943304 0.0189485 0.00195711 0.0175343 0.04 
1474 1 1 0.688384 -0.430251 -0.960198 0 0 0 -0.000355924 -0.00283308 -0.000462912 0.00136399 -0.0439857 0.0135128 0.0272237 0.000166548 0.0192745 0.04 
840 1 1 0.767479 -0.420798 -0.96028 0 0 0 -0.000312477 -0.000577956 -0.000119928 -0.00641321 0.0145372 0.0208391 0.00766324 -0.0084437 0.0334836 0.04 
852 1 1 0.960098 -0.434152 -0.960266 0 0 0 -8.84984e-06 1.46915e-05 -5.99183e-05 -0.00864043 -0.00668227 0.00760291 -0.000113618 0.000616781 -0.00203248 0.04 
982 1 1 -0.960097 -0.343565 -0.960222 0 0 0 -4.01069e-05 -0.000159496 -0.000137939 -0.0121136 -0.0118249 -0.00783817 0.00208695 0.00152096 0.000177296 0.04 
326 1 1 -0.890833 -0.383455 -0.960225 0 0 0 -1.10904e-05 -0.000130925 -0.000257564 -0.00845502 -0.0191755 -0.0082726 0.00133396 0.000419317 0.000999919 0.04 
1215 1 1 -0.82158 -0.343413 -0.960218 0 0 0 -6.19918e-05 -9.25272e-05 -0.000276824 -0.00339855 -0.027553 0.00167552 0.0032941 -0.00276102 -0.00243975 0.04 
1246 1 1 -0.749751 -0.388368 -0.960128 0 0 0 -7.33962e-05 -0.000104959 -0.000285631 0.0324678 -0.0595574 -0.0159597 0.00360788 -0.00016997 -0.000629023 0.04 
969 1 1 -0.683818 -0.343234 -0.960204 0 0 0 -2.40955e-05 -0.000135627 -0.000224028 0.0161618 -0.0140867 0.00620343 0.00146421 9.28159e-05 -0.000389502 0.04 
230 1 1 -0.604583 -0.33504 -0.960168 0 0 0 -0.000147636 0.000342372 -4.55439e-05 0.0137587 -0.0255907 -0.0124689 -0.00513076 -0.00405346 0.016646 0.04 
857 1 1 -0.528984 -0.380166 -0.960193 0 0 0 -0.000130679 -0.000459809 -0.00134934 -0.00935755 -0.0637566 -0.0154685 0.00882728 0.00102195 -0.159694 0.04 
116 1 1 -0.46394 -0.333913 -0.960269 0 0 0 0.00135176 -0.00457728 -0.000685935 0.0396489 -0.0453581 0.0335882 0.0165828 -0.00958766 0.0572332 0.04 