ITEM: TIMESTEP
87600
ITEM: NUMBER OF ATOMS
1500
ITEM: BOX BOUNDS ff ff ff
-1 1
-1 1
-1 1
ITEM: ATOMS id type type x y z ix iy iz vx vy vz fx fy fz omegax omegay omegaz radius 
137 1 1 -0.96011 -0.960152 -0.960202 0 0 0 1.84394e-05 6.73899e-06 -1.85334e-05 -0.00131228 0.00654668 -0.00396805 -0.00154299 2.08989e-05 4.72719e-05 0.04 
5 1 1 -0.830892 -0.960168 -0.960265 0 0 0 1.31157e-05 -1.83753e-05 -8.29268e-05 0.0027953 0.0015915 -0.00651122 -0.00126445 -5.23572e-05 5.86833e-05 0.04 
239 1 1 -0.750973 -0.960139 -0.960253 0 0 0 8.76988e-06 -2.89905e-05 -0.000103424 0.00495965 -0.00192866 -0.00113422 -0.00169359 8.17699e-06 -0.000939036 0.04 
34 1 1 -0.671018 -0.960044 -0.960245 0 0 0 -3.53362e-05 5.00197e-06 -6.63399e-05 0.00300855 -0.00266405 -0.000917085 -0.000809922 -0.000711558 0.000984505 0.04 
415 1 1 -0.59107 -0.96006 -0.960292 0 0 0 -1.58743e-05 -1.78448e-05 3.90665e-05 0.00460347 -0.00203904 -0.010746 0.00153101 -0.000603297 -0.000276391 0.04 
138 1 1 -0.510862 -0.960069 -0.960228 0 0 0 -8.63414e-06 -2.93556e-05 -7.94773e-06 -0.00200849 -0.00213337 0.00115826 0.00105922 0.000400318 0.000989965 0.04 
323 1 1 -0.43077 -0.959924 -0.960162 0 0 0 0.000410927 1.90516e-05 0.000116447 -0.0277435 0.00664696 -0.0013214 -0.000976433 0.0112293 0.00731995 0.04 
130 1 1 -0.350801 -0.960038 -0.960248 0 0 0 0.000286724 -8.93783e-05 -2.05424e-05 -0.0124153 -0.0247619 0.0162428 0.000608821 0.00702638 -0.00863156 0.04 
502 1 1 -0.270823 -0.96012 -0.960298 0 0 0 0.000381846 0.000275848 -0.000309931 -0.0144107 0.0183224 0.00429508 -0.00817914 0.0141223 -0.00748087 0.04 
494 1 1 -0.176195 -0.96013 -0.960224 0 0 0 0.00358639 -0.000108909 0.000242746 0.0339172 0.0241605 -0.0139716 0.00465584 0.0868617 -0.0916583 0.04 
448 1 1 -0.0962024 -0.960078 -0.960264 0 0 0 0.00371038 -0.000356278 0.000366892 0.0338261 -0.0139241 -0.00157503 0.0104596 0.0929179 -0.0876356 0.04 
147 1 1 -0.0162985 -0.960121 -0.960226 0 0 0 0.00372246 9.91074e-05 -0.000139225 0.0428588 -0.0329297 0.013243 -0.00348572 0.0926179 -0.0939398 0.04 
218 1 1 0.0639014 -0.960085 -0.960203 0 0 0 0.00730867 -0.000101064 0.000468974 -0.0288113 0.0104382 -0.00689 0.0085777 0.18571 -0.1853 0.04 
339 1 1 0.151371 -0.960076 -0.960194 0 0 0 -0.0123936 -0.000715907 0.000501542 -0.0956611 -0.0579068 -0.00568721 0.0173824 -0.311034 0.21851 0.04 
81 1 1 0.231343 -0.960087 -0.960194 0 0 0 -0.0120981 -0.000347617 -3.36813e-05 -0.0938005 0.0409576 -0.0032766 0.0093835 -0.305744 0.294277 0.04 
341 1 1 0.311269 -0.960045 -0.960155 0 0 0 -0.0113938 -0.000156012 -0.000156652 -0.123368 0.0240184 -0.0117994 0.00433465 -0.285422 0.0405567 0.04 
203 1 1 0.391243 -0.960101 -0.960225 0 0 0 -0.0106167 -6.56325e-05 -0.000102315 -0.105441 -0.00617238 -0.00433411 -0.00143859 -0.267246 0.182021 0.04 
1019 1 1 0.473784 -0.96003 -0.960209 0 0 0 -6.59491e-05 -0.000281876 -9.65304e-05 0.0249567 -0.0199665 -0.00773108 0.00603022 -0.00244211 0.00358831 0.04 
821 1 1 0.553774 -0.960036 -0.96023 0 0 0 -0.000273085 -5.84876e-05 -0.000304286 0.0270167 -0.0478717 -0.0156633 -0.00493173 -0.000819397 0.00721732 0.04 
636 1 1 0.633763 -0.960469 -0.960197 0 0 0 -0.000310911 6.45739e-05 -0.000457576 0.0120547 -0.0259761 0.00939704 -0.00264056 -0.0100165 0.00557794 0.04 
729 1 1 0.720237 -0.960012 -0.96016 0 0 0 -0.00037012 7.54806e-05 -0.000323686 -0.0122585 -0.0439913 -0.00470467 -0.00876167 -0.0111841 -0.0122413 0.04 
503 1 1 0.800201 -0.96003 -0.960138 0 0 0 -0.000143971 -0.000310251 0.000200278 -0.00172236 0.0303684 -0.0427965 0.00640338 -0.00155766 0.0035475 0.04 
424 1 1 0.880172 -0.960036 -0.960164 0 0 0 -2.73808e-05 -0.000370228 0.000183319 -0.0142381 0.0370336 0.0291697 0.00804684 0.00113327 0.00139883 0.04 
850 1 1 0.960097 -0.95894 -0.960223 0 0 0 0.000142356 -0.000322171 6.81126e-05 0.0221358 -0.0291781 0.0256772 0.0122472 0.00258599 0.00231296 0.04 
778 1 1 -0.959928 -0.880401 -0.960215 0 0 0 -0.000118856 -9.35525e-05 -7.06799e-05 0.00877155 0.0196001 0.00914708 0.00275487 -0.00342633 0.00391273 0.04 
918 1 1 -0.880189 -0.897209 -0.960225 0 0 0 5.8771e-05 -1.6101e-05 -6.72132e-05 -0.00444467 -0.00443607 -0.00952307 0.000572997 0.0037101 9.07599e-05 0.04 
246 1 1 -0.791841 -0.890606 -0.960148 0 0 0 6.79594e-07 -0.000135946 -7.32664e-05 -0.00550334 -0.0143511 -0.0191175 0.00273456 0.000268781 -0.000616869 0.04 
586 1 1 -0.711877 -0.890522 -0.960293 0 0 0 3.96988e-05 -0.000128658 -0.000111602 -0.000147229 -0.0024977 0.0021574 0.00344146 0.000426312 0.0014345 0.04 
379 1 1 -0.630924 -0.890717 -0.96019 0 0 0 6.09579e-05 -7.36531e-05 0.000107306 0.00779375 0.00227157 -0.0144137 0.000371517 0.00202965 0.000234762 0.04 
105 1 1 -0.55093 -0.890932 -0.960218 0 0 0 9.6025e-06 -4.75202e-06 5.27084e-05 0.00245937 -0.013143 -0.00825732 0.000160035 0.00141533 -0.000244112 0.04 
289 1 1 -0.471033 -0.890717 -0.960249 0 0 0 -7.139e-05 -3.2991e-06 0.000105357 -0.00294351 -0.00990989 0.00220612 -0.000317329 -0.00289173 -0.000839237 0.04 
345 1 1 -0.390229 -0.87118 -0.960118 0 0 0 -0.0026225 -0.00195748 3.44598e-07 -1.72967e-09 -2.47064e-09 -0.000289275 0.0490093 -0.0656593 0.149076 0.04 
209 1 1 -0.310713 -0.890856 -0.960157 0 0 0 -0.000164278 -0.000158819 0.000109947 -0.00940925 -0.0105424 0.0240887 0.00805025 -0.00309043 0.0239477 0.04 
647 1 1 -0.223469 -0.895731 -0.960236 0 0 0 0.00242655 -0.000850686 0.000271819 0.00589697 -0.0185434 -0.0639244 0.0184234 0.0662182 0.0591503 0.04 
700 1 1 -0.136248 -0.890957 -0.960159 0 0 0 0.00443053 -0.000801559 -0.000277988 0.0311794 0.0343106 -0.0211535 0.0240691 0.110302 0.129924 0.04 
616 1 1 -0.056275 -0.890763 -0.960229 0 0 0 0.00463425 -0.000391126 0.000387749 0.0216877 -0.0155533 -0.0462204 0.00902524 0.116269 -0.179249 0.04 
87 1 1 0.0237113 -0.891005 -0.960158 0 0 0 0.00513252 -0.000772306 -2.50567e-05 -0.0224795 0.0312567 0.0541205 0.0234215 0.129417 0.210223 0.04 
655 1 1 0.10765 -0.893137 -0.960239 0 0 0 -0.0017997 0.00556181 0.000249532 0.0240675 -0.0830833 -0.0327782 -0.136275 -0.0381413 -0.132516 0.04 
977 1 1 0.191109 -0.890704 -0.960161 0 0 0 -0.0124205 -0.00180396 -0.000458412 -0.0117394 -0.0828415 -0.0593559 0.0339176 -0.306361 -0.0929923 0.04 
19 1 1 0.271107 -0.890785 -0.960244 0 0 0 -0.0118167 -0.00107497 -0.000488946 0.00780089 -0.0328421 -0.00045489 0.0297371 -0.300424 -0.0523015 0.04 
443 1 1 0.351297 -0.890839 -0.96023 0 0 0 -0.0100594 -0.000837752 1.56449e-05 0.0105245 0.0578764 0.0314803 0.025155 -0.248629 -0.0406758 0.04 
664 1 1 0.432395 -0.891617 -0.960231 0 0 0 -0.00399585 -0.00305189 -0.000221573 -0.0247912 0.00329078 -0.0206086 0.0812224 -0.0958402 -0.0453501 0.04 
74 1 1 0.594411 -0.891181 -0.960227 0 0 0 -0.000347697 -5.41472e-05 -0.000591436 -0.0614697 -0.0623424 0.087508 0.00208016 -0.012441 0.000921366 0.04 
50 1 1 0.674289 -0.892016 -0.960186 0 0 0 -0.000460508 -0.000255807 9.72292e-06 -0.0597698 -0.0606994 0.0998201 0.00299133 -0.00883741 -0.0104296 0.04 
1 1 1 0.749845 -0.866744 -0.960238 0 0 0 -8.71818e-05 -0.000607562 0.000313802 -0.0865859 -0.0770299 -0.0124426 0.000724744 -0.00650287 0.0113392 0.04 
812 1 1 0.878006 -0.880119 -0.960206 0 0 0 -0.00023175 -0.000323639 0.00041996 0.0109863 0.0788415 0.0215843 0.00322476 0.00217558 -0.00540006 0.04 
446 1 1 -0.960241 -0.800739 -0.960212 0 0 0 -3.56097e-05 -8.40509e-05 2.81641e-05 0.00853102 0.0120113 0.00816319 -0.000565138 -0.00144747 -0.00393252 0.04 
352 1 1 -0.840964 -0.827526 -0.960339 0 0 0 1.87046e-05 -4.99496e-05 -3.64861e-05 -0.00231534 -0.0148367 -0.011407 0.0025242 -0.00123757 -0.00228923 0.04 
894 1 1 -0.761775 -0.816649 -0.960287 0 0 0 -2.68671e-05 -0.000126369 5.7046e-05 -0.00308237 -0.00509165 0.00194687 0.0004095 -0.0014119 0.00152073 0.04 
960 1 1 -0.68188 -0.81643 -0.960116 0 0 0 -1.72181e-05 -9.98002e-05 5.65936e-05 0.0232706 -0.00914567 -0.000790902 0.00177179 0.00134475 0.000182524 0.04 
380 1 1 -0.535247 -0.812448 -0.96016 0 0 0 -0.000100686 -0.00026996 8.30318e-05 0.0245362 0.00227517 -0.00227054 0.00583443 -0.00167188 -0.00245881 0.04 
720 1 1 -0.257556 -0.823443 -0.960302 0 0 0 -0.000186576 -0.00213349 0.000294323 -0.0130565 -0.0168898 0.0523276 0.0570331 -0.00557168 0.012969 0.04 
161 1 1 -0.172252 -0.81973 -0.960314 0 0 0 -0.0113749 -0.00935456 0.000848094 -0.0519886 -0.0253685 0.00803751 0.234872 -0.283055 -0.00902804 0.04 
385 1 1 -0.0926256 -0.813195 -0.960224 0 0 0 -0.00985253 -0.0244624 -0.000589259 -0.0245936 -0.0537753 -0.02375 0.609886 -0.248622 -0.000775925 0.04 
827 1 1 -0.0130064 -0.81999 -0.960249 0 0 0 -0.00853856 -0.0077434 -0.000283094 -0.149177 0.048986 0.040732 0.198409 -0.215043 0.08842 0.04 
784 1 1 0.067308 -0.824113 -0.960234 0 0 0 -0.00233528 0.00498559 -0.00136131 0.0060112 -0.08116 0.0310677 -0.139477 -0.0515953 -0.11371 0.04 
211 1 1 0.14893 -0.822756 -0.960355 0 0 0 -0.0105991 -0.000881191 0.000627999 0.205867 -0.0221813 0.0484159 0.0349408 -0.260417 -0.107776 0.04 
121 1 1 0.228871 -0.820212 -0.960164 0 0 0 -0.00963988 -0.00425599 0.00046618 0.265289 -0.268233 0.172416 0.110151 -0.239568 0.0929347 0.04 
229 1 1 0.382299 -0.817168 -0.960331 0 0 0 -0.00286453 -0.00372653 7.2063e-05 0.1373 0.036216 0.0564151 0.0970375 -0.0737794 0.0175961 0.04 
369 1 1 0.457259 -0.820594 -0.933411 0 0 0 -0.00232025 -0.00179832 -0.00162811 0.0334156 -0.0496156 0.0646791 -0.0768718 0.121523 0.0346448 0.04 
396 1 1 0.520584 -0.861004 -0.960259 0 0 0 -0.000695781 -0.0013158 -0.000495806 -0.0207462 -0.0442382 0.0449867 0.027987 -0.0111167 0.0378902 0.04 
866 1 1 0.594045 -0.811383 -0.960289 0 0 0 -0.000109122 0.000279317 0.00015104 -0.0462783 0.0495485 0.0157671 0.0182653 -0.00482666 -0.00907814 0.04 
628 1 1 0.673858 -0.812331 -0.960209 0 0 0 -0.000314422 -0.000736834 0.000453185 -0.0444492 -0.17148 0.142879 0.0191776 0.00514336 0.00612283 0.04 
554 1 1 0.818678 -0.826469 -0.96028 0 0 0 -0.000200567 0.000261849 0.000864733 0.0243243 0.087256 -0.015701 0.00455546 0.00611755 -0.000248325 0.04 
417 1 1 0.960148 -0.833969 -0.960254 0 0 0 -0.000284388 5.22709e-05 2.1123e-05 0.00439029 0.0040475 0.0255566 0.00589004 -0.0024803 -0.00260716 0.04 
282 1 1 -0.889431 -0.764107 -0.960198 0 0 0 -2.74083e-05 -2.24727e-05 -3.70764e-06 0.0152478 0.0114995 0.00100277 -0.00167975 0.000240318 0.0032612 0.04 
492 1 1 -0.810298 -0.753138 -0.960215 0 0 0 -5.65781e-05 -9.29365e-05 -2.23677e-06 -0.0130073 -0.0111108 0.00454025 0.00218339 -0.00185779 -0.00349898 0.04 
290 1 1 -0.609488 -0.782703 -0.960233 0 0 0 -1.21762e-05 -8.11568e-05 3.06762e-05 0.0102534 -0.000419934 0.000817362 -0.00057821 -0.001759 -0.00209189 0.04 
52 1 1 -0.453323 -0.788929 -0.960354 0 0 0 -0.000150285 -0.000226878 -8.40915e-05 -0.00939536 0.0192866 -0.000278637 0.0041825 -0.0045114 -0.00217172 0.04 
480 1 1 -0.375592 -0.770457 -0.960348 0 0 0 -0.000304507 -0.00025406 1.7033e-05 -0.0327084 -0.00163655 -0.0153367 0.00144691 -0.00516584 0.00251315 0.04 
402 1 1 -0.297632 -0.752997 -0.960117 0 0 0 -0.000322711 -0.00112229 2.97332e-05 0.041935 0.000738823 -0.0367727 0.0307147 -0.0102789 -0.0083847 0.04 
322 1 1 -0.217757 -0.754189 -0.960143 0 0 0 -0.00041391 -0.00214293 -0.000449319 0.00428004 0.0151483 -0.0186766 -0.0123192 0.0191272 -0.016939 0.04 
376 1 1 -0.138114 -0.747448 -0.960133 0 0 0 0.000500643 -0.0158452 -0.000706388 -0.0358744 0.0515431 0.113466 0.368523 0.0310015 -0.328629 0.04 
1122 1 1 0.0183496 -0.740135 -0.960223 0 0 0 -0.00265681 -0.01353 -0.000227952 -0.0278415 -0.116415 0.0995762 0.346459 -0.0785642 -0.163196 0.04 
773 1 1 0.101057 -0.75183 -0.960176 0 0 0 0.0261408 -0.00854781 -0.000314674 0.176698 -0.0963856 0.0644618 0.214092 0.659236 -0.114249 0.04 
725 1 1 0.187409 -0.751884 -0.960197 0 0 0 -0.0160099 -0.00763402 0.000366498 0.213494 -0.184913 -0.01987 0.179622 -0.407969 -0.200687 0.04 
354 1 1 0.305201 -0.796461 -0.960245 0 0 0 -0.00605886 -0.0185449 -0.000726866 0.0805155 0.135242 0.191487 0.467229 -0.147577 0.314768 0.04 
688 1 1 0.484971 -0.750589 -0.960187 0 0 0 -0.00807531 0.000655786 0.000328068 -0.224205 0.0749194 0.00385396 -0.00688388 -0.150703 0.0668599 0.04 
757 1 1 0.563717 -0.737547 -0.960194 0 0 0 -0.0101896 -0.00178468 0.00128461 0.105432 -0.0158403 0.155641 0.0906744 -0.114192 -0.192965 0.04 
519 1 1 0.643463 -0.738621 -0.960265 0 0 0 -0.010519 -0.00753617 -0.00249236 0.468755 0.134881 0.560128 -0.0901341 0.0932107 0.213512 0.04 
742 1 1 0.749361 -0.786787 -0.960234 0 0 0 -0.000496176 -0.00117002 0.000724048 -0.0733252 -0.106266 -0.167798 0.0166018 -0.000309114 -0.00257058 0.04 
603 1 1 0.818328 -0.746556 -0.960126 0 0 0 -0.00105297 0.0021406 3.41649e-05 -0.188504 0.202756 -0.0954539 -0.0492095 -0.0171713 -0.0044656 0.04 
86 1 1 0.89123 -0.793666 -0.960274 0 0 0 -0.000585667 0.000139476 0.000468063 0.0453169 0.0443734 0.00303669 -0.00220022 -0.00223912 -0.000166711 0.04 
972 1 1 0.960242 -0.753751 -0.960207 0 0 0 -0.000216834 -3.35775e-05 7.47973e-05 0.0206996 0.0194204 0.00988554 -0.00811075 0.000983268 -0.00265065 0.04 
488 1 1 -0.960204 -0.720974 -0.960237 0 0 0 -9.13797e-06 -6.1214e-05 -0.000112993 -0.0023317 0.000792227 0.0207108 0.00137792 0.00172975 0.00180381 0.04 
532 1 1 -0.889465 -0.684325 -0.960245 0 0 0 1.89794e-05 8.2991e-06 -0.000197084 -0.00178456 0.0276402 0.0139334 -0.00234689 -0.00288229 -0.00269965 0.04 
564 1 1 -0.744065 -0.708284 -0.960258 0 0 0 0.000128308 -0.000134475 -9.14985e-05 -0.0293063 0.0305483 0.00700298 -0.00143385 0.000151478 -0.00355451 0.04 
314 1 1 -0.666193 -0.726394 -0.96012 0 0 0 0.000116277 -0.000208252 -0.000151653 -0.037524 -0.00262973 0.0170688 0.00207204 0.00316615 0.00187173 0.04 
783 1 1 -0.611348 -0.667359 -0.960245 0 0 0 -5.27813e-05 7.16442e-05 -0.000310356 -0.00755901 -0.00852137 0.000669368 -0.00448839 -0.00143796 -0.00167077 0.04 
1127 1 1 -0.555153 -0.724246 -0.960258 0 0 0 -2.66764e-05 0.000198181 -3.06332e-05 0.000703585 0.0126342 -0.0066347 -0.0036613 -0.00164177 0.00562197 0.04 
241 1 1 -0.476125 -0.712353 -0.96017 0 0 0 0.00010955 9.98572e-06 -6.29516e-05 0.00195387 0.00358218 -0.00336238 -0.000200481 0.00314246 -0.00676757 0.04 
85 1 1 -0.390808 -0.692072 -0.960247 0 0 0 -0.000741456 -0.000309173 3.52644e-05 0.000738983 0.00525656 -0.0114451 0.00438651 0.00261229 0.00598788 0.04 
511 1 1 -0.312911 -0.674502 -0.960166 0 0 0 -0.000600508 -0.00136133 -0.000142768 0.00564845 0.0113957 -0.0154747 0.0338472 -0.0165593 -0.0460148 0.04 
873 1 1 -0.233013 -0.675952 -0.96035 0 0 0 -0.000351705 -0.00298204 -0.00043432 0.0528222 -0.0432302 -0.0249657 0.0102303 0.0210928 0.0157078 0.04 
738 1 1 -0.1237 -0.668836 -0.960197 0 0 0 0.000618761 -0.0163565 -0.000255044 0.0734194 0.0941792 0.00175559 0.404483 0.014387 0.144719 0.04 
204 1 1 -0.0606215 -0.72789 -0.960341 0 0 0 -0.000898294 -0.0174955 -1.77859e-05 0.00717161 -0.0434856 0.116478 0.44448 -0.0330161 0.266406 0.04 
1088 1 1 0.110502 -0.672625 -0.960238 0 0 0 0.00228526 -0.00605972 -0.000607197 -0.000291998 -0.204537 -0.197941 0.107851 0.0587149 0.207576 0.04 
862 1 1 0.207539 -0.674539 -0.960159 0 0 0 -0.00300604 -0.0115833 0.000747493 0.225418 0.0110822 0.0286156 0.276406 -0.0830793 -0.00259392 0.04 
967 1 1 0.269834 -0.724718 -0.960279 0 0 0 -0.00929423 -0.0198722 -0.000706081 0.173424 0.0386236 -0.0139692 0.509557 -0.231284 -0.255758 0.04 
159 1 1 0.349571 -0.729936 -0.960259 0 0 0 -0.0100418 -0.0163421 0.000523739 0.166022 0.0789053 0.0751014 0.416204 -0.256343 0.446284 0.04 
451 1 1 0.436308 -0.6872 -0.960235 0 0 0 -0.0102253 -0.00154142 0.00082293 -0.00382306 0.065456 0.0202875 0.0377829 -0.247124 0.0418603 0.04 
177 1 1 0.51519 -0.674162 -0.960259 0 0 0 -0.0107884 -0.00297621 -0.000852408 -0.106929 -0.0944026 0.03783 0.0687003 -0.237603 0.214326 0.04 
308 1 1 0.679396 -0.667516 -0.960271 0 0 0 -0.011328 -0.0069562 0.0100557 0.207572 -0.725343 0.540465 0.125415 -0.306603 -0.21999 0.04 
439 1 1 0.748923 -0.70691 -0.960171 0 0 0 -0.00441098 -0.00447029 9.5082e-06 -0.324857 -0.435012 -0.899685 0.0334388 -0.0370414 0.119105 0.04 
188 1 1 0.891048 -0.713758 -0.960244 0 0 0 -0.000250318 2.34614e-05 -0.000436474 0.0676313 0.0703874 -0.11036 -0.0184475 -0.0046236 -0.014304 0.04 
987 1 1 0.960164 -0.673814 -0.960184 0 0 0 -0.000212672 -0.000102864 -0.000624062 -0.0253412 0.071828 -0.102452 -0.00501385 -0.0130115 0.00156047 0.04 
990 1 1 -0.877725 -0.60552 -0.960223 0 0 0 9.23624e-05 4.71591e-06 -0.000266886 -0.00130688 0.0209555 0.00140986 -0.00419275 0.00230584 0.00174632 0.04 
826 1 1 -0.811814 -0.666046 -0.96016 0 0 0 0.000244404 -7.45685e-05 -0.000153184 0.00164624 0.0237151 0.00382393 0.000777316 0.0057348 0.000338036 0.04 
1152 1 1 -0.757362 -0.607585 -0.960251 0 0 0 0.000130738 -1.40096e-05 -0.000539687 0.00528646 0.0246363 0.0163834 0.000591005 0.00771968 -0.000257547 0.04 
567 1 1 -0.689431 -0.649905 -0.960183 0 0 0 0.000214733 -0.000340818 0.000271836 -0.0269988 0.0235749 -0.00409182 0.0101634 0.00329895 -0.0020447 0.04 
170 1 1 -0.527841 -0.649166 -0.960295 0 0 0 -0.000150216 0.000403338 -0.000135736 0.0207985 0.00073633 -0.0336135 -0.0110554 -0.00401228 0.00543667 0.04 
375 1 1 -0.448831 -0.63737 -0.960334 0 0 0 -7.04759e-05 5.32826e-05 0.000127157 0.025746 0.0190202 -0.00113965 -0.000569217 -0.00139469 -0.0174076 0.04 
709 1 1 -0.36744 -0.615655 -0.960164 0 0 0 -0.000460726 -0.000583276 0.000254286 0.0218811 0.0211913 -0.0306734 0.0160304 -0.0107314 -0.0208515 0.04 
1046 1 1 -0.0470221 -0.646491 -0.960231 0 0 0 -0.00163155 -0.00782318 -1.51051e-05 0.141535 -0.0792537 -0.0289088 0.181188 -0.0633489 0.0518928 0.04 
581 1 1 0.03147 -0.661143 -0.960289 0 0 0 0.000247054 -0.0100598 0.000884209 0.0303732 -0.0228003 0.0887444 0.239688 -0.0267455 -0.087962 0.04 
61 1 1 0.160073 -0.610181 -0.960235 0 0 0 0.00396888 -0.00709323 0.000358382 -0.0226157 0.0937348 -0.131274 0.18785 0.108696 -0.195391 0.04 
1052 1 1 0.251993 -0.608089 -0.960269 0 0 0 -0.00609929 -0.0100634 -0.000143314 0.0449641 0.176652 -0.0466537 0.25854 -0.147962 -0.382664 0.04 
656 1 1 0.314283 -0.658205 -0.960148 0 0 0 -0.0119047 -0.0168241 0.00103425 0.0430205 0.13188 -0.0556709 0.423197 -0.294592 0.0527371 0.04 
1082 1 1 0.386783 -0.624491 -0.960254 0 0 0 -0.0170934 -0.00593817 0.000688438 -0.029769 0.0290925 0.115189 0.118126 -0.234788 -0.00459258 0.04 
255 1 1 0.46564 -0.611591 -0.96027 0 0 0 -0.0172258 -0.00703368 -0.000599966 0.00684034 -0.121815 0.101263 0.159233 -0.28545 -0.0902946 0.04 
880 1 1 0.599769 -0.658471 -0.960186 0 0 0 -0.0145887 -0.0188008 0.00578473 -0.114495 -0.504842 0.35318 0.485712 -0.383109 -0.215823 0.04 
543 1 1 0.748394 -0.627023 -0.96022 0 0 0 -0.0231542 -0.0141748 -0.0094222 -0.287857 0.319099 2.26751 0.061238 -0.357474 -0.108861 0.04 
662 1 1 0.817938 -0.666565 -0.960168 0 0 0 -0.0087378 0.00546202 5.26486e-05 0.308628 0.236214 -1.14934 -0.088505 -0.156655 0.0239108 0.04 
553 1 1 0.8909 -0.633893 -0.960228 0 0 0 -0.00229767 -0.000923426 -0.00187004 -0.0524266 0.0574177 -0.0762157 0.0170326 -0.0388112 -0.00839104 0.04 
260 1 1 -0.959999 -0.59555 -0.960241 0 0 0 3.7915e-05 -1.30587e-06 -0.000137076 -0.0188824 0.00637718 -0.030605 -0.00377 0.000110075 0.0057967 0.04 
565 1 1 -0.816685 -0.553952 -0.960229 0 0 0 -0.000161326 3.23586e-05 -0.000213157 0.00855454 0.0383472 0.00693079 0.00443012 -0.00466128 0.00432585 0.04 
1113 1 1 -0.703054 -0.549156 -0.960286 0 0 0 -8.86975e-05 -0.000311607 -0.000489472 -0.0158788 0.00725977 0.00438972 0.00624293 -0.00262376 0.00158655 0.04 
925 1 1 -0.635138 -0.591136 -0.960152 0 0 0 -4.52876e-05 -0.00012366 -0.000406384 -0.018734 -0.0171572 -0.00768612 0.00468281 -0.00202423 0.00485045 0.04 
893 1 1 -0.546717 -0.563072 -0.960167 0 0 0 -0.000444193 0.000587699 9.82897e-05 -0.0355044 -0.00575071 -0.00220598 -0.0177422 -0.0142184 0.0186563 0.04 
1103 1 1 -0.455387 -0.55797 -0.960301 0 0 0 0.00035356 4.51885e-05 6.67025e-06 0.029916 0.0117786 -0.0139979 -0.000606334 0.00552342 0.00825619 0.04 
1448 1 1 -0.37843 -0.536435 -0.960162 0 0 0 0.000694393 -0.000361494 5.68106e-05 0.0407433 0.0183718 -0.0155221 0.00787274 0.0169108 -0.0180999 0.04 
631 1 1 -0.304373 -0.566546 -0.960249 0 0 0 0.000352203 -0.00177142 -0.000250591 0.000804253 0.01169 0.000841697 0.0417219 0.00837956 -0.00941449 0.04 
714 1 1 -0.23037 -0.596498 -0.960355 0 0 0 -0.000211094 -0.00332554 0.000225697 0.00989582 -0.0013684 0.00220712 0.00448999 0.00638386 -0.0220248 0.04 
962 1 1 -0.165958 -0.54928 -0.960211 0 0 0 0.00133369 -0.00579376 0.000110606 -0.00171797 0.0492434 -0.00288048 0.0667435 0.0519136 -0.0499744 0.04 
950 1 1 -0.092419 -0.58068 -0.960272 0 0 0 0.000225179 -0.00651737 -0.000530607 -0.0096399 0.00352515 0.100811 0.168102 -0.000111347 -0.140496 0.04 
716 1 1 0.00236596 -0.583652 -0.96022 0 0 0 0.001652 -0.0115462 0.00026445 -0.136012 0.0572471 -0.0441001 0.242344 0.0227222 0.0426552 0.04 
388 1 1 0.0809356 -0.598346 -0.960222 0 0 0 0.00032744 -0.00932279 0.000802449 -0.144153 0.0775143 0.0339774 0.17795 -0.0177337 -0.0566095 0.04 
867 1 1 0.204477 -0.54392 -0.960172 0 0 0 0.000847181 -0.00592159 0.00022457 -0.0077722 0.119941 -0.0390902 -0.135469 -0.00415053 0.174996 0.04 
576 1 1 0.322833 -0.562863 -0.960234 0 0 0 -0.00621674 -0.00567543 0.000531437 0.0343092 0.0131436 0.0177453 0.13649 -0.15547 -0.122288 0.04 
408 1 1 0.404525 -0.546625 -0.960212 0 0 0 -0.00362359 -0.00765271 0.000181833 0.0145006 -0.0397822 -0.0467313 0.125884 -0.106987 0.0171643 0.04 
814 1 1 0.483338 -0.53376 -0.960228 0 0 0 -0.00284239 -0.00949283 0.000823983 0.0678594 -0.025629 -0.0920203 0.0364289 0.119532 -0.0669009 0.04 
1026 1 1 0.545034 -0.599964 -0.960172 0 0 0 -0.00797294 -0.00478139 -0.000696407 0.107811 -0.0574094 -0.3288 0.106358 -0.197136 -0.162448 0.04 
1111 1 1 0.675686 -0.587857 -0.960163 0 0 0 0.020381 -0.00853896 0.00353143 0.0808069 0.897322 -0.0471757 0.0486816 0.337208 -0.295088 0.04 
1138 1 1 0.74451 -0.547205 -0.960193 0 0 0 0.0165919 -0.00715632 0.00581531 0.486892 -0.501663 -0.496141 0.144434 0.362497 -0.0592873 0.04 
58 1 1 0.81636 -0.583005 -0.960208 0 0 0 0.00440119 -0.0216003 0.0163113 -1.5072 0.223904 -0.430176 0.537838 0.198508 0.595134 0.04 
1107 1 1 0.890864 -0.554023 -0.960241 0 0 0 0.00121389 0.000313908 -0.00123781 -0.538931 -0.125577 0.17317 -0.0235555 0.0902013 -0.0419868 0.04 
252 1 1 0.960113 -0.593915 -0.960185 0 0 0 0.000142957 -0.000804693 -0.000567875 -0.217802 0.0029035 -0.107519 0.0147315 -0.00331457 -0.018096 0.04 
670 1 1 -0.960082 -0.515581 -0.960206 0 0 0 -0.00012131 3.59272e-05 -0.000266449 0.0187426 -0.00736363 -0.00357901 -0.00178323 0.00365371 0.000979145 0.04 
644 1 1 -0.761233 -0.493758 -0.960281 0 0 0 -0.000204218 5.25381e-05 -0.000150468 0.00080541 0.0384364 0.00382831 -0.00363178 -0.00162865 0.0059804 0.04 
833 1 1 -0.684433 -0.471715 -0.960309 0 0 0 -0.000118673 -0.000170823 -0.000108185 -0.0279458 0.0145561 0.0272366 0.00603187 -0.00334487 -0.00844374 0.04 
435 1 1 -0.616237 -0.513488 -0.960245 0 0 0 -0.000216767 -0.000207375 3.22433e-05 -0.036549 -0.0065035 -0.0337001 0.00510583 -0.00526159 -0.000855766 0.04 
816 1 1 -0.502467 -0.493664 -0.960275 0 0 0 -0.00113879 -0.00116195 -6.50456e-05 -0.00845668 0.0162103 -0.0205311 0.027143 -0.0296297 0.0127184 0.04 
489 1 1 -0.314751 -0.487312 -0.960224 0 0 0 0.00136297 -0.00197417 -3.61678e-05 0.00575777 0.00583634 0.0346366 0.0218073 0.0133188 -0.0178081 0.04 
883 1 1 -0.240809 -0.517623 -0.960251 0 0 0 0.000885645 -0.00369685 -0.000137682 0.00456326 0.00336222 -0.0258673 -0.0112619 0.0121177 -0.00357526 0.04 
305 1 1 -0.176639 -0.470069 -0.960206 0 0 0 0.00315917 -0.00611333 -0.00037162 0.0240813 0.00711617 0.0276151 0.0187544 -0.0181117 -0.0100271 0.04 
675 1 1 -0.102739 -0.500418 -0.960195 0 0 0 0.00327556 -0.00758595 0.000153016 -0.00968115 0.0478085 -0.0116023 0.0440313 -0.025223 -0.0188231 0.04 
1066 1 1 -0.0232665 -0.508011 -0.960287 0 0 0 0.00374442 -0.0115426 0.000610122 -0.0491669 0.0915911 -0.000867524 0.296451 0.107476 -0.0654689 0.04 
143 1 1 0.0591807 -0.52145 -0.960126 0 0 0 -0.00106426 -0.0121768 3.87759e-05 -0.129824 0.257449 -0.0667408 0.303711 -0.0272389 -0.01154 0.04 
1346 1 1 0.153312 -0.482688 -0.960247 0 0 0 0.0026656 -0.00484204 0.000432742 0.0271819 0.00236457 0.0311598 0.123367 0.0692952 -0.167531 0.04 
1000 1 1 0.271899 -0.501233 -0.960235 0 0 0 -0.00245104 -0.00181339 0.000334495 -0.00472835 0.00866431 -0.0256344 0.041342 -0.0619398 -0.0351772 0.04 
792 1 1 0.350649 -0.48776 -0.960231 0 0 0 -0.00210859 -0.00550966 -0.000261148 0.000303768 0.0312843 0.0145849 0.144866 -0.0487285 -0.0889756 0.04 
1361 1 1 0.432699 -0.471628 -0.960208 0 0 0 0.000103365 -0.00730973 -0.000141503 -0.0122666 -0.0391537 0.0791443 0.183424 0.00559228 0.075508 0.04 
584 1 1 0.5353 -0.473218 -0.960237 0 0 0 0.00486431 -0.0159501 5.38409e-05 0.246103 -0.108235 -0.09092 0.251576 0.0418113 -0.14401 0.04 
1288 1 1 0.588542 -0.532867 -0.960245 0 0 0 0.00725139 -0.015203 0.00181714 0.0536041 -0.179946 -0.0340533 0.38247 0.19563 -0.0865952 0.04 
908 1 1 0.674754 -0.508079 -0.960276 0 0 0 0.0148525 -0.00674952 0.00186172 0.434539 0.300826 -0.716507 0.0245656 0.263959 0.306711 0.04 
1309 1 1 0.802597 -0.492368 -0.96023 0 0 0 0.00810466 0.00372263 -8.09309e-05 -0.1504 0.241787 -0.0379192 -0.0958878 0.203337 0.232878 0.04 
9 1 1 0.890895 -0.474135 -0.960183 0 0 0 0.00043416 -1.89958e-05 -0.000143157 0.110776 -0.181273 -0.0273299 0.00487863 -0.00262876 9.60058e-06 0.04 
771 1 1 0.9601 -0.514045 -0.96023 0 0 0 0.000791347 -0.000124208 -0.00013103 -0.0337821 -0.064188 -0.0774255 0.00662467 0.00797709 0.00370529 0.04 
1055 1 1 -0.960057 -0.423544 -0.960214 0 0 0 7.52784e-06 0.00011053 0.000178541 -0.0043018 -0.0465297 0.0165511 -0.000146008 -0.000905106 0.00287259 0.04 
739 1 1 -0.89074 -0.46339 -0.960239 0 0 0 -1.88987e-05 0.000289757 -0.000156822 0.0169685 -0.0148812 0.0101312 -0.000872506 0.000204218 0.00236531 0.04 
1142 1 1 -0.821544 -0.423398 -0.960257 0 0 0 -0.000106724 0.000199469 -0.000211074 0.00242679 -0.00133413 0.00302249 -0.00220961 -0.00366728 -0.00475939 0.04 
613 1 1 -0.636866 -0.40778 -0.960352 0 0 0 0.000129866 -4.19095e-05 0.000253952 -0.0264982 -0.0057526 0.010215 0.00288969 0.00502906 0.00831605 0.04 
620 1 1 -0.568691 -0.449213 -0.960218 0 0 0 -0.000505587 -0.000679374 -0.00026819 -0.0345362 -0.0260925 0.0245324 0.0217819 -0.00898963 -0.0315443 0.04 
1316 1 1 -0.464544 -0.42346 -0.960317 0 0 0 0.00938243 -0.00709945 0.000524658 -0.00194878 -0.0356045 -0.0176386 0.180355 0.235023 -0.0759668 0.04 
344 1 1 -0.388726 -0.457113 -0.960272 0 0 0 0.00212968 -0.000117236 0.000349804 0.00338708 0.0112278 0.00749022 0.00412324 0.0507654 -0.0979324 0.04 
247 1 1 -0.325123 -0.408048 -0.96022 0 0 0 0.00327822 -0.00180111 7.90829e-05 0.00969138 -0.0156063 0.00611504 0.0212549 0.0437352 -0.0776074 0.04 
382 1 1 -0.251347 -0.438595 -0.960267 0 0 0 0.00270722 -0.00386394 0.000104954 0.0215641 -0.00764821 0.0230486 0.0147834 0.00737082 -0.0401579 0.04 
1271 1 1 -0.10504 -0.42047 -0.960274 0 0 0 -0.000491994 -0.0075631 -5.58581e-05 0.00470696 0.00645033 -0.018158 0.190825 -0.0122958 -0.0478617 0.04 
1249 1 1 0.0288994 -0.447481 -0.960293 0 0 0 0.00510126 -0.0128113 1.73897e-06 -0.0789843 0.142241 -0.00452085 0.33126 0.130784 0.118107 0.04 
1030 1 1 0.103857 -0.42007 -0.960283 0 0 0 0.00214638 -0.00437163 -0.000343877 0.000481068 0.0314956 0.0109715 0.0715479 0.025563 0.116477 0.04 
1148 1 1 0.220772 -0.439768 -0.960286 0 0 0 -0.000118975 -0.000171368 -3.60716e-05 0.0240827 0.0385743 0.0273943 0.00956862 -0.00855568 -0.0372658 0.04 
772 1 1 0.299605 -0.426306 -0.96022 0 0 0 0.00074229 -0.00291895 8.69538e-05 0.0041925 0.0135406 0.00258284 0.0256237 0.0185537 -0.0314858 0.04 
845 1 1 0.378448 -0.412846 -0.960229 0 0 0 0.00104272 -0.0064782 -2.80575e-05 0.0551813 0.00834199 -0.0329717 0.162614 0.029824 -0.0811714 0.04 
1047 1 1 0.61344 -0.456953 -0.96018 0 0 0 0.00569808 -0.0146742 0.00192505 0.0839474 -0.18083 -0.194902 -0.177393 -0.0783914 0.171432 0.04 
1474 1 1 0.688328 -0.429419 -0.96019 0 0 0 0.000280206 -0.00168871 0.000923175 0.0749754 -0.121593 -0.158662 -0.0181533 0.00890995 0.0490978 0.04 
840 1 1 0.76749 -0.420634 -0.960273 0 0 0 0.000310855 0.000229697 -0.000694759 0.0447023 -0.00688763 0.00739548 -0.0210454 0.0152084 -0.00921967 0.04 
852 1 1 0.960089 -0.434128 -0.960259 0 0 0 0.00067519 -0.000164893 -0.000101868 -0.0161488 -0.00300358 -0.038622 -0.00250291 0.011531 0.00231916 0.04 
982 1 1 -0.960097 -0.343563 -0.960223 0 0 0 3.28726e-05 9.74425e-05 0.000143838 0.00836525 -0.0305049 0.0444636 -0.0028524 -0.000282344 -0.000347777 0.04 
326 1 1 -0.89083 -0.383453 -0.960226 0 0 0 -1.22561e-05 0.000256804 -8.27501e-05 0.00029087 -0.016 0.0354007 -0.000989485 0.00413872 0.00105203 0.04 
1215 1 1 -0.82158 -0.343406 -0.960221 0 0 0 1.54394e-05 0.000233744 -0.000231559 0.0175064 -0.0189347 -0.0292997 -0.00534578 0.00201088 0.000235706 0.04 
1246 1 1 -0.749773 -0.388232 -0.960124 0 0 0 0.000155063 -0.000123611 -0.000128404 0.0315586 -0.0035214 -0.0427077 0.00119549 0.00270239 -0.0043035 0.04 
969 1 1 -0.683757 -0.343174 -0.960206 0 0 0 9.7564e-05 -1.61138e-05 -0.000237453 0.00960642 -0.0246365 -0.0931313 0.00177806 0.00265282 0.00593986 0.04 
230 1 1 -0.604473 -0.334977 -0.960198 0 0 0 -0.000245494 -5.36337e-05 0.000287005 -0.0104954 0.0165364 -0.0436365 -0.00145215 -0.0133658 -0.00435318 0.04 
857 1 1 -0.530211 -0.377783 -0.960179 0 0 0 0.00561962 -0.0127694 -0.000141679 0.00573805 -0.0223855 0.0224157 0.318804 0.142731 -0.227008 0.04 
92 1 1 -0.399026 -0.377932 -0.960273 0 0 0 0.00438117 6.11922e-05 0.000391753 0.00961299 -0.0274967 0.0108687 -0.00786572 -0.0257921 0.0395387 0.04 
1124 1 1 -0.261696 -0.359382 -0.960309 0 0 0 0.00458159 -0.00398517 0.000277722 0.00054959 0.0111291 0.0200083 0.0443853 0.0785714 -0.0415517 0.04 
868 1 1 -0.187331 -0.390949 -0.96019 0 0 0 0.00441805 -0.00577916 0.000189811 0.0139789 -0.00744192 0.0117177 -0.00195506 -0.00206858 -0.0236125 0.04 
1010 1 1 -0.123715 -0.342717 -0.960277 0 0 0 0.0049925 -0.00613211 8.13538e-05 -0.0135572 -0.0168342 0.000861188 0.155316 0.126379 0.00834828 0.04 
1223 1 1 -0.0215418 -0.374722 -0.960213 0 0 0 -0.00075033 -0.00523037 -0.000135349 0.0201884 0.0335072 -0.0152908 0.137089 -0.0170325 0.0564522 0.04 