ITEM: TIMESTEP
62000
ITEM: NUMBER OF ATOMS
1500
ITEM: BOX BOUNDS ff ff ff
-1 1
-1 1
-1 1
ITEM: ATOMS id type type x y z ix iy iz vx vy vz fx fy fz omegax omegay omegaz radius 
137 1 1 -0.960002 -0.958771 -0.960602 0 0 0 0.0380139 0.079627 -0.086482 -3.5279 -1.67431 25.9147 1.29992 0.41994 0.24567 0.04 
5 1 1 -0.838007 -0.95949 -0.960068 0 0 0 0.0447337 0.0597043 -0.0470025 6.33813 -0.486257 -7.82546 -0.161296 1.11433 0.434754 0.04 
239 1 1 -0.757886 -0.960054 -0.960097 0 0 0 0.0446992 -0.00450208 0.00440977 3.34068 0.0274483 -7.19645 0.33333 0.634224 -0.370875 0.04 
34 1 1 -0.677676 -0.959902 -0.960088 0 0 0 0.0529932 -0.0557501 0.0278532 -0.323117 -0.988449 -5.89294 0.640438 0.768736 -0.00635062 0.04 
415 1 1 -0.597741 -0.960119 -0.960428 0 0 0 0.0511228 0.0161104 6.38417e-05 -3.09165 2.80199 9.04509 -0.0592597 1.17706 -1.10538 0.04 
138 1 1 -0.517951 -0.959621 -0.960147 0 0 0 0.0434167 0.022776 0.00304922 4.75135 -0.568819 -2.42151 -0.552213 0.523425 0.251175 0.04 
323 1 1 -0.438043 -0.960087 -0.960098 0 0 0 0.0239594 -0.0416805 0.0248952 2.12905 1.5809 -4.19854 -0.270505 0.240556 0.260794 0.04 
130 1 1 -0.358164 -0.959533 -0.960139 0 0 0 0.0474201 0.0183093 -0.00467491 4.53103 -0.564951 -5.22002 -0.407354 0.502292 -0.0127078 0.04 
502 1 1 -0.278233 -0.960214 -0.960299 0 0 0 0.0647253 -0.0338004 -0.00853683 -0.151414 5.26568 -0.435596 -0.16836 0.437382 -0.615818 0.04 
494 1 1 -0.180354 -0.960269 -0.960183 0 0 0 -0.0277169 0.000335314 0.0108073 -3.20813 -3.24532 -2.01311 0.0746981 -0.0360539 0.204485 0.04 
448 1 1 -0.100648 -0.959806 -0.960282 0 0 0 -0.0263221 0.00568606 0.0375744 1.28688 0.509926 0.354279 -0.0811714 -0.405439 -0.180289 0.04 
147 1 1 -0.0210284 -0.960157 -0.960319 0 0 0 -0.021969 0.0195786 -0.00452723 -2.14526 7.80418 -2.34194 0.500331 0.0754061 -0.506467 0.04 
218 1 1 0.0587028 -0.960143 -0.960267 0 0 0 -0.0574031 0.0667623 0.000171469 -5.91527 -4.32171 0.665064 -0.398401 -0.191366 0.263374 0.04 
339 1 1 0.170585 -0.960053 -0.960144 0 0 0 -0.0402904 0.0241807 -0.00229728 -1.61719 -6.36639 -0.516318 -0.0751912 -1.13782 1.67268 0.04 
341 1 1 0.312128 -0.95969 -0.960293 0 0 0 0.0261168 -0.0068362 -0.00686871 9.14294 -2.12455 -4.21059 0.0689055 -0.162452 -0.0638574 0.04 
203 1 1 0.391842 -0.96025 -0.960213 0 0 0 -0.0202213 -0.00550821 0.00497049 0.0162687 -0.405298 -1.06692 0.0709902 -0.0517883 0.443634 0.04 
1019 1 1 0.472225 -0.96014 -0.960233 0 0 0 -0.0133326 -0.00582587 -0.00488637 0.712834 1.554 -0.0256498 0.111805 -0.199009 0.437971 0.04 
821 1 1 0.552149 -0.960137 -0.960152 0 0 0 -0.00603867 0.00688369 -0.00129515 -0.00598435 -0.808991 -0.723886 0.0527658 -0.253103 0.21034 0.04 
636 1 1 0.635687 -0.960356 -0.960107 0 0 0 -0.00153855 0.0155096 0.00408317 -4.95001 -9.33727 -7.50148 0.222777 0.150977 -0.0136093 0.04 
729 1 1 0.718304 -0.959718 -0.960089 0 0 0 0.00234184 -0.0548675 -0.0292803 2.43981 -1.44877 -5.93888 0.88959 -1.24203 -0.0323631 0.04 
503 1 1 0.798762 -0.960097 -0.960112 0 0 0 -0.00974038 0.0357515 -0.0354507 -2.09017 -6.45751 -5.67727 0.378469 -0.218992 -0.0724854 0.04 
424 1 1 0.87983 -0.960272 -0.960034 0 0 0 0.0485373 -0.101173 0.018105 1.05317 16.756 -8.87807 0.528886 -0.0978059 -0.538228 0.04 
850 1 1 0.960081 -0.95841 -0.960263 0 0 0 -0.0126244 -0.00965944 0.0307651 -0.856271 -0.203897 1.59432 0.271065 0.00891744 0.256622 0.04 
918 1 1 -0.891459 -0.898145 -0.960029 0 0 0 0.156517 0.057243 -0.0576572 10.4211 -7.10971 -4.15055 -0.428705 0.751244 2.32382 0.04 
246 1 1 -0.798711 -0.885843 -0.960361 0 0 0 0.0253155 0.0472617 0.0631616 -1.96 1.75703 2.76623 -0.449032 0.864165 -1.3702 0.04 
586 1 1 -0.716228 -0.88785 -0.960114 0 0 0 0.076225 0.0300993 -0.0400125 -6.36295 -4.35883 -8.33733 -0.626853 1.89486 0.0759338 0.04 
379 1 1 -0.635342 -0.88923 -0.960154 0 0 0 0.0229593 -0.0859134 -0.0716814 3.48718 -1.94855 -2.08676 -0.151441 0.255681 0.551142 0.04 
105 1 1 -0.5509 -0.886346 -0.960419 0 0 0 0.00417667 -0.0231548 -0.00953861 -3.33827 -3.6354 11.8025 0.311568 0.127355 -0.290259 0.04 
289 1 1 -0.47108 -0.887384 -0.960172 0 0 0 -0.028731 0.0188334 -0.0250657 5.84944 1.1696 1.21027 -0.0211475 -0.647967 0.253385 0.04 
345 1 1 -0.390914 -0.886011 -0.9602 0 0 0 -0.0318241 0.0219623 0.00624719 -0.962167 -0.471628 4.47739 -0.27245 -0.4972 0.692003 0.04 
209 1 1 -0.310952 -0.885426 -0.96007 0 0 0 -0.0351182 -0.0493534 -0.00238785 2.30999 -0.932844 -8.45347 0.832726 -0.290283 0.375115 0.04 
647 1 1 -0.22917 -0.897242 -0.960157 0 0 0 -0.0182958 0.0134823 -0.00108223 1.14323 -0.284012 0.425067 -0.12258 0.0624218 -0.878976 0.04 
700 1 1 -0.146563 -0.888068 -0.960344 0 0 0 0.0532651 -0.0438007 -0.0215915 15.685 0.760182 -2.84459 -0.245701 -0.231147 0.281691 0.04 
616 1 1 -0.0651763 -0.884179 -0.960344 0 0 0 -0.0365547 0.00393292 -0.0377463 -6.28018 -4.84352 2.52169 -0.428049 -0.477895 -0.12131 0.04 
87 1 1 0.0163677 -0.889364 -0.960382 0 0 0 -0.00730059 -0.0121361 0.0352444 -8.89096 3.21828 2.40136 -0.231308 0.0697757 -0.416754 0.04 
655 1 1 0.114388 -0.903281 -0.960237 0 0 0 -0.0160805 0.0817751 -0.0233194 18.7535 -9.33146 8.51214 0.443605 -0.222924 -1.51687 0.04 
977 1 1 0.191772 -0.883059 -0.959267 0 0 0 -0.0446248 -0.0687345 -0.033578 3.54839 3.57507 -6.31016 1.52272 -0.408444 0.678072 0.04 
19 1 1 0.271626 -0.89051 -0.960108 0 0 0 -0.0442646 -0.0363214 -0.0320837 -3.68295 -3.29207 -5.92119 -0.138868 -0.150038 -0.282155 0.04 
443 1 1 0.351771 -0.888807 -0.96015 0 0 0 -0.00149959 0.0216424 -0.0158493 -2.24514 0.179623 -4.76891 0.339777 -0.290161 -0.454528 0.04 
664 1 1 0.431672 -0.891419 -0.960313 0 0 0 -0.0248165 -0.0103129 0.00392652 0.855227 2.25464 1.4417 0.0236457 0.140027 -0.40609 0.04 
396 1 1 0.516535 -0.872971 -0.958491 0 0 0 0.0726044 0.113447 -0.0931579 7.43458 2.06788 -17.4391 -2.37842 0.706276 1.13527 0.04 
74 1 1 0.594213 -0.892383 -0.96018 0 0 0 -0.025137 0.00392419 0.0375769 -0.934181 -2.68142 -1.63592 -0.188118 -0.517273 0.0266686 0.04 
50 1 1 0.674616 -0.890956 -0.960316 0 0 0 0.00912997 -0.0036195 0.00915677 -1.16291 -2.78128 11.4823 -0.517926 -0.199126 0.345188 0.04 
812 1 1 0.883071 -0.880104 -0.959219 0 0 0 -0.00616407 0.00382042 0.12525 0.627863 -1.29185 -8.73283 2.34376 -0.0635722 1.79102 0.04 
778 1 1 -0.959695 -0.857049 -0.959813 0 0 0 -0.00222108 -0.208011 0.0351291 -14.2548 3.962 -10.9038 1.23178 0.042737 -2.22519 0.04 
352 1 1 -0.848206 -0.815228 -0.959047 0 0 0 -0.194112 0.213424 0.0750208 5.85926 -0.138746 -10.9482 -0.700344 0.27676 1.11592 0.04 
960 1 1 -0.688499 -0.811672 -0.960173 0 0 0 0.0603075 0.0556283 0.0286703 -0.430805 -0.174028 2.71783 -0.878666 0.235824 1.06256 0.04 
380 1 1 -0.53287 -0.802642 -0.960143 0 0 0 0.0796653 0.0102956 -0.0209946 3.59981 2.9254 -4.88811 -0.36561 -0.13152 1.88485 0.04 
720 1 1 -0.254945 -0.821845 -0.960039 0 0 0 0.026592 -0.00770484 0.0188921 -3.23923 -4.68057 -7.18409 -0.25158 0.153755 0.249932 0.04 
161 1 1 -0.156866 -0.808698 -0.960521 0 0 0 0.0384557 -0.00742394 0.0281719 1.53703 -1.97475 7.06043 -0.11564 0.995233 1.23149 0.04 
827 1 1 0.000610606 -0.810712 -0.960508 0 0 0 -0.0337749 0.031185 0.0105241 -1.82953 3.94879 2.28767 0.135326 -0.781637 -0.939346 0.04 
784 1 1 0.077108 -0.833251 -0.960188 0 0 0 -0.00876069 0.0817228 0.0128993 3.77188 1.26971 -11.6885 0.498729 -0.531017 1.52473 0.04 
211 1 1 0.15599 -0.811591 -0.960319 0 0 0 0.101354 -0.024033 -0.00384175 -1.93844 2.20898 9.95288 0.717358 1.3366 -1.02559 0.04 
121 1 1 0.23776 -0.815562 -0.960305 0 0 0 0.0209936 -0.0295044 -0.0147877 1.09771 2.03527 3.30037 1.11697 0.40335 0.642976 0.04 
229 1 1 0.38297 -0.810412 -0.960249 0 0 0 0.0506604 0.0301255 -0.0262421 -10.6219 -6.03946 -2.27372 -1.17497 0.239094 -0.24919 0.04 
866 1 1 0.595668 -0.812941 -0.960051 0 0 0 0.0295901 -0.0261174 0.0128403 -0.343395 3.49896 -4.39451 0.117951 0.063582 0.471621 0.04 
628 1 1 0.675492 -0.811396 -0.960817 0 0 0 -0.0432083 0.0532435 0.0385119 -4.37897 2.45772 28.4737 -0.84526 -0.400023 -0.325262 0.04 
1 1 1 0.750074 -0.864982 -0.960307 0 0 0 -0.0146806 0.0361138 -0.0170649 -0.592667 -0.166264 5.52663 -0.0833233 -0.0862139 -0.880562 0.04 
554 1 1 0.819268 -0.825127 -0.960292 0 0 0 0.046674 -0.025662 0.00432242 -1.74988 1.41155 0.870793 0.532978 0.195303 -0.434393 0.04 
417 1 1 0.960215 -0.837158 -0.96018 0 0 0 0.05331 0.031944 -0.0197342 -8.79123 4.54289 -9.29304 -0.708391 0.0187724 -0.395061 0.04 
446 1 1 -0.960415 -0.775973 -0.959638 0 0 0 0.0234888 -0.138363 0.100643 21.5533 0.72627 -7.13783 0.0479381 -1.29586 -1.58571 0.04 
282 1 1 -0.890779 -0.744695 -0.935889 0 0 0 0.136071 -0.0625813 -0.139857 -9.28131 3.86095 -3.22944 1.44211 -0.476403 1.61076 0.04 
492 1 1 -0.814977 -0.741787 -0.960289 0 0 0 0.0568192 -0.188487 -0.00145718 -0.761924 -1.4636 5.45971 1.81028 0.514386 -0.952782 0.04 
894 1 1 -0.76859 -0.806966 -0.960056 0 0 0 -0.0932879 -0.261066 0.0526811 -3.64384 -3.57809 -11.0889 2.86508 0.574992 -1.24032 0.04 
290 1 1 -0.611172 -0.787639 -0.960121 0 0 0 0.02801 0.00472359 0.0394038 0.171992 -11.8576 -1.10762 -0.405749 0.925055 -0.359059 0.04 
52 1 1 -0.452612 -0.78647 -0.960154 0 0 0 0.0730901 0.150594 0.0267941 -3.27234 -6.39911 -16.3964 -1.45498 0.191957 0.269522 0.04 
480 1 1 -0.374369 -0.769472 -0.960435 0 0 0 -0.0323567 -0.0286033 0.0150163 5.15929 3.26066 0.421306 -0.486121 -0.243279 -0.607654 0.04 
402 1 1 -0.296078 -0.753416 -0.960138 0 0 0 -0.0270454 -0.0331538 0.0328032 -4.72287 -10.3211 -5.50797 -0.253493 -0.272177 0.929705 0.04 
322 1 1 -0.21619 -0.752228 -0.960163 0 0 0 -0.00603047 -0.0213586 0.00828582 -1.50042 -3.85642 3.22136 -0.183279 0.420119 0.322966 0.04 
385 1 1 -0.0778606 -0.795291 -0.960286 0 0 0 -0.0194013 -0.0392553 -0.00319394 -5.84857 -2.36659 2.97914 0.246822 0.404696 0.871613 0.04 
773 1 1 0.106932 -0.747436 -0.960081 0 0 0 -0.00154941 -0.0668014 -0.0105868 0.00323838 -0.00643889 -1.90047 1.67853 -0.0358528 -0.124637 0.04 
725 1 1 0.199757 -0.744444 -0.960472 0 0 0 0.0404601 -0.00696447 -0.0160129 0.526502 2.81384 4.65585 0.597757 0.828732 -1.34383 0.04 
354 1 1 0.309482 -0.778937 -0.960226 0 0 0 0.0488471 -0.0402716 0.00937482 -4.26195 1.51579 3.08978 0.479386 0.0581613 0.88517 0.04 
688 1 1 0.487427 -0.750359 -0.96027 0 0 0 0.00728197 -0.0250371 -0.0332685 -3.48816 -2.81767 0.929063 -0.25543 0.257444 -0.644443 0.04 
757 1 1 0.565938 -0.739207 -0.960092 0 0 0 -0.000109235 -0.0376552 -0.0194324 2.49906 2.08505 -2.01846 -0.189799 -0.954128 0.235475 0.04 
519 1 1 0.645603 -0.737124 -0.960192 0 0 0 0.0192902 -0.00717608 -0.0417212 4.65448 -11.7824 2.07597 0.648361 -0.154605 0.753572 0.04 
742 1 1 0.750429 -0.784893 -0.960259 0 0 0 0.0224257 -0.0198549 0.0321391 -3.11416 -1.77119 1.03819 0.304455 0.664589 0.176667 0.04 
603 1 1 0.819371 -0.745035 -0.960224 0 0 0 -0.0028228 -0.0245969 -0.023146 -1.18459 -6.13297 7.96592 0.212489 0.0903361 0.0376612 0.04 
86 1 1 0.892721 -0.794228 -0.960468 0 0 0 0.00795574 0.00408895 0.0415508 3.86346 1.05215 12.545 0.012336 0.193199 0.863778 0.04 
972 1 1 0.960078 -0.751277 -0.960263 0 0 0 0.0217112 -0.0166825 -0.023288 -0.12895 0.068858 4.52789 0.0700354 -0.128397 -0.140041 0.04 
488 1 1 -0.95953 -0.692774 -0.960295 0 0 0 0.00849031 -0.222756 -0.00101922 -5.47502 -0.634853 9.84536 -0.0942546 0.532893 -0.488905 0.04 
564 1 1 -0.739073 -0.717649 -0.960122 0 0 0 0.0440851 -0.0409241 0.0168358 5.6872 -11.2828 -5.22924 1.67867 0.136281 0.556954 0.04 
314 1 1 -0.659894 -0.724747 -0.959993 0 0 0 0.0234586 -0.00282802 0.00543755 9.17999 12.1322 -5.21229 -0.0580552 -0.415742 -0.0745754 0.04 
783 1 1 -0.603758 -0.667699 -0.960241 0 0 0 -0.0121887 0.11601 -0.0386211 -0.370851 3.479 3.13283 0.241876 -0.084885 0.628534 0.04 
1127 1 1 -0.546502 -0.7237 -0.960255 0 0 0 -0.0584291 -0.0375986 0.0235968 6.79681 0.301085 -3.03555 0.343523 -0.719257 -0.551114 0.04 
241 1 1 -0.468577 -0.706018 -0.960212 0 0 0 -0.0390278 -0.00753189 0.00683715 -1.07972 0.491792 5.11381 -1.24776 -0.326196 0.715375 0.04 
85 1 1 -0.390072 -0.691312 -0.960225 0 0 0 -0.0194723 0.0353062 -0.0152436 -6.80827 1.21195 5.74301 -0.556658 -0.256701 -0.31911 0.04 
511 1 1 -0.311861 -0.675335 -0.960114 0 0 0 -0.0786558 -0.00557396 -0.00839414 6.13303 12.3539 0.844096 0.0278874 -1.75487 0.165588 0.04 
873 1 1 -0.219841 -0.672647 -0.960293 0 0 0 -0.0159753 -0.022876 0.00777677 5.00662 4.14736 0.873563 0.0541098 -0.565695 0.33963 0.04 
376 1 1 -0.139457 -0.730826 -0.960282 0 0 0 0.00445787 0.00995965 0.00775987 -8.77285 0.934724 3.23926 -0.000847757 -0.197317 -0.755184 0.04 
204 1 1 -0.0615649 -0.714974 -0.960212 0 0 0 0.0334896 -0.0201543 0.00214187 1.84551 2.47943 -3.81083 0.358486 0.0059864 0.232411 0.04 
1122 1 1 0.0166851 -0.730423 -0.960271 0 0 0 0.0338363 0.00934065 0.0130341 -0.424486 0.288109 -1.05233 0.22405 -0.260033 -0.481885 0.04 
967 1 1 0.279161 -0.704074 -0.960133 0 0 0 0.00993161 -0.0371978 0.0212522 3.14009 -3.17777 -7.5208 0.241502 -0.190449 0.0620378 0.04 
159 1 1 0.361312 -0.717253 -0.960161 0 0 0 -0.00990943 -0.0101184 -0.0150438 -0.703631 0.735043 1.7686 0.325462 0.124942 0.578155 0.04 
451 1 1 0.438316 -0.687722 -0.960317 0 0 0 0.0209911 -0.0174167 -0.0479066 1.0105 7.01542 3.26624 -0.695521 0.727278 0.947767 0.04 
177 1 1 0.518616 -0.674921 -0.960218 0 0 0 0.0576259 0.0392058 0.0132162 0.579197 -1.49901 0.875756 -0.931756 1.59595 0.48549 0.04 
880 1 1 0.603293 -0.668947 -0.960191 0 0 0 -0.086745 -0.0179821 0.0199792 5.43244 -0.862328 1.30212 0.152934 0.15697 0.61773 0.04 
308 1 1 0.68164 -0.667567 -0.945873 0 0 0 0.00734575 0.0241746 -0.289905 2.35097 18.8964 1.54607 -0.206252 0.777319 -0.265139 0.04 
439 1 1 0.75029 -0.705081 -0.960049 0 0 0 -0.026885 -0.0190546 -0.0273659 -1.24098 -5.90245 -7.1923 -0.209194 -0.619952 0.249954 0.04 
188 1 1 0.891053 -0.710883 -0.959409 0 0 0 -0.00456298 -0.0488894 0.0484606 8.12187 4.34165 -7.76885 -0.150613 -0.223951 0.219947 0.04 
987 1 1 0.960154 -0.671263 -0.960193 0 0 0 -0.0110057 0.0113613 -0.00273229 3.29341 1.17467 3.20274 -0.0142296 -0.116244 0.167234 0.04 
532 1 1 -0.883427 -0.668624 -0.960329 0 0 0 -0.0251832 -0.0810834 0.00851296 -0.827402 3.10049 4.4102 1.65235 -0.889661 1.14163 0.04 
826 1 1 -0.797421 -0.663601 -0.960195 0 0 0 0.0155878 -0.0608452 -0.0114751 -19.4332 0.280274 -14.5294 1.3739 0.824685 0.495237 0.04 
567 1 1 -0.681124 -0.647078 -0.960188 0 0 0 -0.0172004 0.0225327 0.01933 6.81516 -4.17079 4.02872 -1.01071 -0.507632 -0.261101 0.04 
170 1 1 -0.524814 -0.638977 -0.960308 0 0 0 -0.122211 -0.0757103 -0.14267 0.960373 3.54571 8.48565 -0.0569632 -1.63546 0.687234 0.04 
375 1 1 -0.443452 -0.629808 -0.960369 0 0 0 -0.0742554 -0.0362519 0.0160676 -8.23793 2.33446 2.65928 -0.355651 -0.664973 -0.193316 0.04 
709 1 1 -0.364958 -0.615573 -0.96044 0 0 0 -0.0943285 0.0198767 0.00295832 8.40195 7.56338 12.5713 -0.127944 -0.49699 -0.214738 0.04 
738 1 1 -0.12649 -0.651997 -0.960392 0 0 0 0.0697706 0.00427251 0.0139593 1.98282 -2.78951 6.84329 -0.261286 0.505057 0.978195 0.04 
1046 1 1 -0.0480345 -0.636235 -0.960233 0 0 0 -0.00429511 -0.0125373 0.0194875 -0.35534 -0.93958 -2.82216 0.00322844 -0.176608 -0.369972 0.04 
581 1 1 0.03078 -0.651735 -0.960062 0 0 0 0.0322385 0.004282 -0.0135209 -0.326003 0.722016 -4.81849 0.378011 0.470357 0.0381612 0.04 
1088 1 1 0.115186 -0.664711 -0.96025 0 0 0 -0.0223276 -0.0179215 -0.0245839 -3.68332 -1.76236 2.59915 0.339771 -0.164881 0.562791 0.04 
862 1 1 0.210621 -0.66327 -0.960244 0 0 0 0.0183715 -0.0175168 -0.0171837 0.980923 2.22827 -7.5283 0.0838112 -0.00765129 -0.19096 0.04 
656 1 1 0.328847 -0.637371 -0.960234 0 0 0 -0.0316059 -0.0915481 -0.0195791 -6.60868 -2.72648 2.65715 1.1093 0.73734 0.803018 0.04 
1082 1 1 0.405422 -0.615138 -0.960277 0 0 0 -0.0763331 0.0133865 -0.0345706 3.62633 -13.1873 1.9397 0.148722 0.326752 -0.93265 0.04 
255 1 1 0.484232 -0.60297 -0.960216 0 0 0 -0.0931979 0.0261197 -0.0101203 -5.63752 4.05585 1.38343 -0.175716 -0.173217 0.579478 0.04 
1026 1 1 0.563771 -0.599919 -0.960208 0 0 0 -0.0545731 -0.0140023 0.0129985 -3.09856 3.80217 -2.46965 -0.218473 -0.755748 -1.15137 0.04 
543 1 1 0.746876 -0.623333 -0.960135 0 0 0 0.0297552 0.0540241 0.0196234 -5.76685 -9.28501 0.104788 -0.0644664 -0.408958 -0.457304 0.04 
662 1 1 0.816935 -0.66152 -0.959982 0 0 0 0.00823945 0.00637444 -0.0233812 5.36806 -0.942847 -6.24082 -0.0426617 0.27968 0.18826 0.04 
553 1 1 0.890428 -0.630875 -0.960206 0 0 0 -0.000540403 -0.00625805 -0.0222267 6.73684 -2.59629 0.487125 -0.262346 0.05388 -0.262488 0.04 
260 1 1 -0.958859 -0.592313 -0.960472 0 0 0 -0.00561467 -0.0684294 0.0377509 -0.567109 -2.51134 2.15489 1.12374 -0.351957 -1.15419 0.04 
990 1 1 -0.878687 -0.588813 -0.960297 0 0 0 -0.0404562 -0.147857 -0.0523985 -3.71003 1.25349 1.17812 1.60555 0.396502 -0.271104 0.04 
565 1 1 -0.808319 -0.551072 -0.960077 0 0 0 -0.128523 -0.00512194 0.0349406 1.37643 -14.8293 -17.1004 0.642739 -0.557768 0.97969 0.04 
1152 1 1 -0.746286 -0.601044 -0.959923 0 0 0 0.00927415 0.0144175 0.0841458 2.24927 -3.11079 -7.33816 0.949199 -0.96313 0.504317 0.04 
1113 1 1 -0.688619 -0.541397 -0.960303 0 0 0 -0.0187379 -0.0262119 -0.03986 -3.73181 -4.59133 7.54727 -0.431596 -0.532931 1.20945 0.04 
925 1 1 -0.624782 -0.589785 -0.960174 0 0 0 -0.0671354 0.0595875 -0.0272276 -0.460732 0.175394 2.53025 -0.10507 0.152757 -0.109869 0.04 
893 1 1 -0.54913 -0.562398 -0.960005 0 0 0 0.0202111 -0.144328 -0.0134762 -0.00696609 0.0207714 -6.13656 0.414065 -0.565979 2.35755 0.04 
1103 1 1 -0.457519 -0.551093 -0.960097 0 0 0 0.0562883 -0.00297975 -0.0170699 10.7331 -5.17946 -10.9845 0.00313958 0.0385383 1.07398 0.04 
1448 1 1 -0.378684 -0.536567 -0.960214 0 0 0 0.022622 0.0340269 -0.0482502 -0.381741 -0.496958 5.95832 0.265512 -0.292079 -0.250748 0.04 
631 1 1 -0.296791 -0.572966 -0.960222 0 0 0 -0.0529829 0.00612757 0.011271 -1.72345 -1.3297 2.79903 -0.116382 -0.733547 0.275177 0.04 
714 1 1 -0.219331 -0.592768 -0.960293 0 0 0 -0.0120187 0.015266 -0.00371712 -1.94622 -2.85833 -0.383973 0.0912605 -0.58589 -0.403106 0.04 
962 1 1 -0.157134 -0.542831 -0.960234 0 0 0 -0.0198477 -0.0166331 -0.030155 0.18075 1.24248 -4.8538 0.383652 0.466032 -0.633487 0.04 
950 1 1 -0.0795736 -0.562626 -0.960084 0 0 0 -0.0010112 -0.0417711 0.0349812 -1.20627 0.326079 -4.33152 0.941929 -0.0780767 0.106078 0.04 
716 1 1 0.0043868 -0.57614 -0.960151 0 0 0 0.0248662 -0.0119766 -0.00397265 4.3849 -2.91541 -9.35025 0.103292 0.131086 0.383145 0.04 
388 1 1 0.0826893 -0.590973 -0.960386 0 0 0 -0.0083178 0.00286927 0.0145448 4.00684 -1.79695 -0.103008 -0.367304 -0.0905098 -0.140015 0.04 
61 1 1 0.162018 -0.60004 -0.960306 0 0 0 -0.0103692 -0.0257044 0.0187807 -0.520409 -1.72527 -0.0963104 0.231928 0.140102 0.186525 0.04 
1052 1 1 0.255981 -0.596649 -0.960124 0 0 0 -0.0402533 -0.0235043 -0.0257855 0.331166 -5.5747 -4.94589 0.610901 0.065231 0.831638 0.04 
576 1 1 0.32252 -0.552238 -0.960208 0 0 0 0.0048541 -0.037909 -0.00658679 1.30333 -0.719221 2.74235 0.964345 -0.105764 -0.150382 0.04 
408 1 1 0.400843 -0.53584 -0.960216 0 0 0 -0.0406465 0.0162034 -0.0122876 5.95863 -10.0413 5.21845 0.194976 -0.00762221 -0.355502 0.04 
1111 1 1 0.668566 -0.589009 -0.960148 0 0 0 0.0113501 0.0895377 0.00670787 -2.92692 -2.23102 1.64542 -1.4831 -0.503702 0.226952 0.04 
1138 1 1 0.734983 -0.544557 -0.960376 0 0 0 0.017771 0.00798648 0.00966321 1.01928 12.9205 3.65177 0.334597 0.514597 0.0874024 0.04 
58 1 1 0.814401 -0.579898 -0.960219 0 0 0 0.0280519 -0.0569095 -0.00485107 0.267139 -0.156211 4.13583 1.41548 0.665703 -0.757841 0.04 
1107 1 1 0.890737 -0.551071 -0.960191 0 0 0 -0.0254322 -0.0116573 -0.023796 0.874724 -1.86443 0.0854249 0.215486 0.130857 0.256726 0.04 
252 1 1 0.9599 -0.59139 -0.96023 0 0 0 -0.0180883 0.017502 -0.0228615 4.98881 -1.47104 -0.667043 -0.248861 -0.371039 0.0601287 0.04 
670 1 1 -0.959782 -0.509996 -0.959878 0 0 0 -0.0339256 -0.106942 -0.0201759 0 0 -6.57473 1.28574 -0.252337 0.072333 0.04 
644 1 1 -0.753023 -0.493311 -0.960322 0 0 0 -0.030051 -0.0483858 0.00747341 8.55581 -4.3848 -7.04186 0.664337 -0.689719 -0.871266 0.04 
435 1 1 -0.615085 -0.51008 -0.960191 0 0 0 -0.0446081 -0.0111843 0.0348069 7.18626 -3.21111 -7.2301 -0.493188 -1.68537 -0.626609 0.04 
816 1 1 -0.497061 -0.482001 -0.960081 0 0 0 -0.0793689 -0.0152872 -0.02479 0.275382 -4.77343 -2.06333 0.407037 -1.03545 0.428507 0.04 
489 1 1 -0.317549 -0.48342 -0.960173 0 0 0 -0.00645096 -0.0460937 -0.0050512 -0.139993 -0.413867 2.29128 0.143916 0.097491 -0.463765 0.04 
883 1 1 -0.242739 -0.514106 -0.960056 0 0 0 -0.0174965 -0.0157911 -0.0255546 -0.258618 0.371966 -3.27013 0.169904 0.00930189 -0.784961 0.04 
675 1 1 -0.101422 -0.485739 -0.957001 0 0 0 -0.0138792 -0.0383292 0.0977551 -1.70455 -0.276897 -6.70561 1.18389 -0.0833627 0.154553 0.04 
1066 1 1 -0.023189 -0.501399 -0.960221 0 0 0 -0.00995284 -0.0337538 0.00762747 1.35089 3.1695 -3.40862 0.423936 -0.0728362 0.0732913 0.04 
143 1 1 0.0566341 -0.515465 -0.960254 0 0 0 0.0428288 -0.00511178 0.0282182 -1.11394 -0.470412 3.55809 0.230709 0.166467 0.560549 0.04 
1346 1 1 0.154363 -0.473222 -0.960233 0 0 0 0.010789 0.0129238 0.0068457 0.026868 1.97634 -1.67127 0.139928 0.268475 0.670272 0.04 
867 1 1 0.206473 -0.533856 -0.960218 0 0 0 -0.0154764 -0.0143513 -0.00173928 2.16262 2.03282 2.20818 0.315502 0.0157787 -0.424702 0.04 
1000 1 1 0.271801 -0.487919 -0.960085 0 0 0 0.00634417 -0.0221063 -0.0154296 -1.89937 -0.41169 -5.58841 0.662212 -0.123849 0.00714279 0.04 
792 1 1 0.350446 -0.474458 -0.960137 0 0 0 -0.0101309 -0.000541387 0.0103401 -4.07897 -1.18547 -0.895932 0.232017 0.039225 0.319935 0.04 
814 1 1 0.479757 -0.523238 -0.960495 0 0 0 -0.0426709 0.0732034 -0.066686 -1.34474 -4.64699 9.46151 -0.678282 -0.629062 -0.38424 0.04 
1288 1 1 0.584735 -0.523009 -0.96009 0 0 0 -0.0116891 -0.00802869 0.0279402 0.182039 1.11501 -2.59558 0.269088 0.3717 0.085241 0.04 
908 1 1 0.662777 -0.505141 -0.960219 0 0 0 -0.00407057 0.00844346 -0.0164189 2.69146 -17.9341 -4.26656 -1.12601 -0.0972762 -0.196792 0.04 
1309 1 1 0.795546 -0.492176 -0.96023 0 0 0 0.0490815 -0.0398258 -0.0324783 -0.241899 0.616992 6.67963 -0.432265 0.669556 1.35886 0.04 
9 1 1 0.891134 -0.471169 -0.960319 0 0 0 -0.0418824 -0.0207083 -0.00382973 1.45426 -4.25939 1.69567 -0.172437 -0.665997 0.120378 0.04 
771 1 1 0.960095 -0.511455 -0.960327 0 0 0 0.00610279 0.0291633 -0.01433 5.04693 -4.39014 4.5173 0.0174898 0.0569348 0.113677 0.04 
1055 1 1 -0.960063 -0.417603 -0.960255 0 0 0 6.0658e-05 -0.0794158 -0.00568393 2.56085 3.69598 3.83985 2.12785 -0.0898423 -1.09285 0.04 
739 1 1 -0.890197 -0.456575 -0.960177 0 0 0 0.00697711 -0.100588 0.0232493 -1.39806 -4.67843 -1.53806 1.93893 0.329191 -0.213445 0.04 
1142 1 1 -0.820797 -0.416518 -0.96019 0 0 0 -0.0115734 -0.0536895 -0.0105119 1.01767 9.38303 -1.77613 0.669411 0.0341023 0.535359 0.04 
833 1 1 -0.678892 -0.462191 -0.960336 0 0 0 -0.108074 -0.048369 0.0269685 -2.37372 5.85389 6.01611 0.733122 -0.766833 -0.0325758 0.04 
620 1 1 -0.560964 -0.434426 -0.960248 0 0 0 -0.060431 -0.00540815 0.0321517 -4.31371 -0.150426 -2.15 0.732511 -0.929317 -0.666899 0.04 
1316 1 1 -0.471672 -0.406443 -0.960165 0 0 0 -0.0116819 -0.0161456 0.00869609 0.676575 6.28449 -2.94802 0.707723 -0.901421 -0.98536 0.04 
344 1 1 -0.411375 -0.459057 -0.959933 0 0 0 0.0227702 0.0190913 0.00654487 -1.5463 1.07342 -8.66279 -0.966752 0.023902 0.424169 0.04 
247 1 1 -0.328321 -0.404192 -0.96023 0 0 0 -0.0513937 -0.0294117 -0.00807176 3.17292 0.100127 -4.86893 0.162551 -0.699512 0.573783 0.04 
382 1 1 -0.253684 -0.434355 -0.960293 0 0 0 0.000750645 0.00235891 -0.0107613 -2.57993 3.69135 -1.37126 0.0284194 0.128036 0.365469 0.04 
305 1 1 -0.178967 -0.46594 -0.960256 0 0 0 -0.00814798 -0.0161858 0.0119499 1.89292 2.10675 -1.01868 0.144253 -0.115109 0.524832 0.04 
1271 1 1 -0.0946166 -0.406266 -0.960349 0 0 0 -0.00664541 -0.0199014 0.00160278 0.606115 -0.947434 -1.50417 0.532735 -0.343013 -0.00497415 0.04 
1249 1 1 0.0313762 -0.43965 -0.960156 0 0 0 -0.0126229 -0.00583415 0.0020673 -3.89653 0.338489 1.08136 0.305577 0.147473 -0.0948903 0.04 
1030 1 1 0.105086 -0.408941 -0.960218 0 0 0 0.000967799 -0.0260975 0.000938305 0.684981 3.69123 -1.02984 0.332512 -0.0759167 -0.0633984 0.04 
1148 1 1 0.221182 -0.426129 -0.960268 0 0 0 -0.00844361 -0.0182423 -0.0229557 -6.26808 -2.30209 1.79422 0.496012 -0.0209383 0.623839 0.04 
772 1 1 0.29984 -0.412851 -0.960141 0 0 0 -0.058173 -0.0172911 0.00298328 -10.2712 -2.50738 -3.29043 0.447938 0.141988 -0.315665 0.04 
1361 1 1 0.429393 -0.461551 -0.959924 0 0 0 0.0269438 0.0250339 0.0253674 10.6234 10.6779 -37.1046 0.372659 -0.891827 0.803778 0.04 
584 1 1 0.529052 -0.460511 -0.959875 0 0 0 -0.087595 0.0854605 -0.0118123 -2.56035 0.237208 -12.3181 -0.446202 -0.107833 0.507571 0.04 
1047 1 1 0.607558 -0.446597 -0.960142 0 0 0 -0.0653928 0.00932592 -0.0434817 9.0311 -4.83556 1.58888 0.143789 -0.398406 -1.86543 0.04 
1474 1 1 0.68512 -0.428805 -0.960086 0 0 0 0.00519935 -0.0159248 -0.0252521 6.51972 8.75503 0.784693 0.99621 0.125417 -0.113838 0.04 
840 1 1 0.763808 -0.417404 -0.960444 0 0 0 -0.0535815 0.000528042 -0.00402783 -1.62971 2.0234 5.84306 0.055402 0.420027 1.0841 0.04 
852 1 1 0.960206 -0.431319 -0.960105 0 0 0 -0.0163727 -0.00928159 -0.00737061 -1.64464 -5.56367 -0.279251 0.0280912 -0.0532452 -0.308836 0.04 
326 1 1 -0.890074 -0.376654 -0.960111 0 0 0 -0.0112452 -0.102772 0.0413744 -4.66865 1.17199 -5.85035 0.827045 0.0597367 0.820164 0.04 
1246 1 1 -0.751109 -0.377311 -0.960067 0 0 0 -0.0587684 -0.012139 0.0215445 1.63425 0.744915 -3.0633 0.290264 -0.589907 0.772778 0.04 
969 1 1 -0.684079 -0.333514 -0.960168 0 0 0 -0.0310118 -0.0080582 -0.0297815 -0.215023 -3.32693 0.99807 0.166551 -0.268312 0.0765538 0.04 
613 1 1 -0.625848 -0.387999 -0.960218 0 0 0 -0.0460092 0.05168 0.0374615 0.121134 -3.06267 1.16216 -0.123132 -0.0557616 -0.327964 0.04 
857 1 1 -0.531626 -0.35332 -0.960123 0 0 0 -0.0724135 0.00893081 0.00789063 1.44426 0.121376 -5.67882 1.19322 0.0728755 0.943756 0.04 
92 1 1 -0.40598 -0.360936 -0.960269 0 0 0 -0.0745043 0.0470542 0.00174791 0.998713 0.265818 7.05321 -0.57019 -1.31619 0.888834 0.04 
1124 1 1 -0.265043 -0.355133 -0.960204 0 0 0 -0.0563056 0.00180827 -0.00532016 -0.114259 0.187826 2.7459 -0.113194 -0.588123 -0.331656 0.04 
868 1 1 -0.189339 -0.386379 -0.960332 0 0 0 -0.073196 0.013303 0.00351812 0.776802 -7.18977 2.14904 0.0678249 -0.370626 0.514708 0.04 
1223 1 1 -0.0222869 -0.368364 -0.960329 0 0 0 0.0153139 -0.0066966 -0.0206576 -5.09224 0.256912 5.41954 0.225704 -0.0931733 -0.284232 0.04 
144 1 1 0.0547259 -0.346888 -0.960158 0 0 0 -0.0108048 -0.0460287 0.00936851 2.58936 -6.6055 -1.01145 0.0236651 0.0063652 -0.631859 0.04 
315 1 1 0.170941 -0.363938 -0.960123 0 0 0 0.0255385 -0.0330069 0.0137126 -1.9923 -0.988008 -0.890386 0.411282 0.320452 -0.384044 0.04 
1187 1 1 0.249737 -0.350826 -0.96026 0 0 0 0.00902766 -0.0529984 -0.00595438 -1.67253 3.77995 -0.867034 0.462682 -0.3698 0.450048 0.04 
220 1 1 0.328669 -0.337288 -0.960376 0 0 0 0.00517075 -0.00686277 0.038594 -3.1604 2.47365 9.80754 0.0981289 0.169796 0.108772 0.04 
845 1 1 0.378238 -0.399763 -0.960189 0 0 0 -0.0470734 0.0352026 0.00202962 13.0489 -1.28066 0.491802 -0.000244869 -0.145929 0.984125 0.04 
677 1 1 0.456735 -0.386561 -0.960154 0 0 0 0.00499447 -0.030341 0.00648782 6.37953 -1.61236 2.39012 -1.03005 -0.61251 -1.20084 0.04 
981 1 1 0.557399 -0.384842 -0.960486 0 0 0 0.0652532 0.0707343 -0.0426162 -0.792855 2.7469 16.8217 -0.757797 0.766248 0.480968 0.04 
361 1 1 0.635354 -0.36649 -0.960165 0 0 0 0.00246676 -0.0479872 0.0133774 -4.08211 4.03897 1.96114 0.149779 0.319111 -1.56132 0.04 
764 1 1 0.718933 -0.34954 -0.960091 0 0 0 -0.0201285 -0.128448 0.0183549 8.50035 -7.84152 -1.60043 0.544896 -0.307625 -1.3186 0.04 
499 1 1 0.801044 -0.346763 -0.960162 0 0 0 0.00383914 -0.00963203 -0.00783841 -6.36863 6.23573 -2.75884 0.297961 -0.163018 -0.41659 0.04 
398 1 1 0.875864 -0.374432 -0.960277 0 0 0 -0.0184294 0.000820326 -0.0109345 4.19281 -0.628916 2.23133 -0.0230237 0.396097 1.90043 0.04 
975 1 1 0.954003 -0.351852 -0.960426 0 0 0 0.027547 -0.0140138 -0.0112785 -1.41096 -2.67757 2.11315 0.372045 0.879961 0.0645321 0.04 
982 1 1 -0.959953 -0.337587 -0.96019 0 0 0 0.00251674 -0.0515054 -0.00689681 -0.669634 -1.02059 -0.262728 1.42105 0.210186 -1.30345 0.04 
995 1 1 -0.891873 -0.295443 -0.960118 0 0 0 -8.06993e-05 -0.0398885 0.0144697 2.19877 -2.41415 -3.15367 0.620741 -0.276536 0.383337 0.04 
1215 1 1 -0.821783 -0.335037 -0.960344 0 0 0 -0.0384356 -0.0651267 0.0496488 -4.55992 0.458338 6.11359 1.17588 -0.248547 0.30779 0.04 
76 1 1 -0.753312 -0.293939 -0.960342 0 0 0 -0.0678727 -0.0494215 -0.00425081 5.4641 -8.39879 10.8729 -0.0778899 -0.182318 0.0328177 0.04 
230 1 1 -0.605084 -0.310173 -0.960122 0 0 0 -0.0237094 -0.00586734 -0.0219665 1.3207 0.0740284 -1.35352 0.132091 -0.691289 0.219711 0.04 
116 1 1 -0.466584 -0.306921 -0.960129 0 0 0 -0.0620871 -0.0185753 0.00486861 0.631869 -7.31239 -5.44282 -0.22794 -0.475741 -1.05362 0.04 
978 1 1 -0.35044 -0.303445 -0.960242 0 0 0 -0.019279 -0.045782 -0.0182546 0.846772 1.45437 -3.78444 0.876165 -0.312599 -0.0508165 0.04 
1155 1 1 -0.275321 -0.275826 -0.960334 0 0 0 -0.020281 -0.00316981 0.00428194 1.0517 -2.49112 2.1251 -0.168434 -0.438672 -0.103767 0.04 
1214 1 1 -0.200814 -0.307432 -0.960168 0 0 0 -0.0107075 -0.0283274 0.0125692 -3.19139 -0.391753 -2.79751 -0.0201216 -0.181763 -0.648595 0.04 
1010 1 1 -0.12492 -0.332433 -0.960187 0 0 0 -0.0220346 -0.0421418 -0.00927684 0.524796 2.9379 -1.28031 0.837653 -0.230621 -0.348427 0.04 
201 1 1 -0.0546319 -0.294337 -0.960308 0 0 0 -0.0262884 -0.0488508 0.0121236 -1.80289 -1.31828 -1.47942 0.314579 -0.517697 1.32892 0.04 
1062 1 1 0.0278831 -0.271799 -0.96026 0 0 0 -0.0204671 -0.0225821 0.020444 -1.38444 1.75148 -1.14784 0.607752 -0.462063 0.687066 0.04 
404 1 1 0.113128 -0.290703 -0.960344 0 0 0 -0.0848489 0.108829 0.0168064 0.747171 -0.74132 11.747 -2.26801 -1.94893 0.255932 0.04 
1216 1 1 0.198876 -0.289194 -0.960333 0 0 0 0.0164588 -0.0355437 -0.00402118 0.955878 -1.04305 3.83334 0.277888 -0.10832 -0.160229 0.04 
780 1 1 0.277611 -0.275946 -0.96023 0 0 0 -0.00545736 -0.0490811 0.00895327 0.432492 2.28956 -1.45828 0.89659 -0.129141 -0.405044 0.04 