ITEM: TIMESTEP
47000
ITEM: NUMBER OF ATOMS
1500
ITEM: BOX BOUNDS ff ff ff
-1 1
-1 1
-1 1
ITEM: ATOMS id type type x y z ix iy iz vx vy vz fx fy fz omegax omegay omegaz radius 
137 1 1 -0.960224 -0.960158 -0.953303 0 0 0 -0.057877 0.189594 0.102555 13.5219 5.67604 -6.68011 1.84661 -2.71205 -0.301954 0.04 
5 1 1 -0.880602 -0.954851 -0.95991 0 0 0 0.135063 0.0880737 0.0216267 -4.0362 0.124791 -6.40788 -2.05589 2.50734 1.87626 0.04 
239 1 1 -0.800836 -0.959569 -0.959913 0 0 0 0.0553021 0.00737129 -0.0045105 4.0362 -0.124791 -6.74157 -1.2199 1.19785 -2.06518 0.04 
415 1 1 -0.6758 -0.960187 -0.959492 0 0 0 0.272418 -0.0678916 -0.148136 -14.1518 2.24321 -42.264 2.2825 -1.15924 -0.160279 0.04 
138 1 1 -0.526603 -0.954535 -0.950838 0 0 0 0.0419747 0.000455724 0.0510306 16.2184 2.51029 -25.5936 8.0342 0.574144 0.285145 0.04 
323 1 1 -0.426093 -0.960587 -0.956945 0 0 0 0.272538 -0.236579 -0.014595 -1.57422 35.7781 -7.42443 -2.40934 1.57998 -2.98938 0.04 
130 1 1 -0.340771 -0.957848 -0.960197 0 0 0 0.0473054 0.211551 -0.00437508 -0.813888 -2.77595 4.29978 -0.784629 0.465565 -2.16911 0.04 
502 1 1 -0.260859 -0.958586 -0.958906 0 0 0 0.128814 0.0351259 -0.0444438 2.11722 0.0779654 -6.58152 -1.03099 1.14394 -0.864695 0.04 
494 1 1 -0.177959 -0.959783 -0.959871 0 0 0 0.126719 0.0355733 0.0766136 0 0 -6.57473 -0.84406 3.50699 -3.47585 0.04 
448 1 1 -0.0964957 -0.960212 -0.96005 0 0 0 0.346333 0.0253792 -0.0113506 -11.2702 -7.57753 -3.67908 1.70669 1.61107 0.0336534 0.04 
147 1 1 -0.0121309 -0.95689 -0.959045 0 0 0 -0.0163666 -0.0108601 -0.0317313 -22.8023 0.535165 -20.3684 0.10862 2.09156 -0.0956626 0.04 
218 1 1 0.0668656 -0.959718 -0.95973 0 0 0 0.147357 -0.0331842 0.0572226 41.518 -17.0501 -27.6549 -0.190441 1.22622 -2.85521 0.04 
339 1 1 0.223485 -0.960069 -0.960233 0 0 0 -0.35304 -0.0745979 -0.100057 -6.13247 1.82776 -1.66066 -0.985229 -0.578832 -2.29626 0.04 
203 1 1 0.427728 -0.95985 -0.959727 0 0 0 0.058339 0.109733 0.202621 12.1422 -0.599017 -20.2641 1.66658 -1.34778 -0.61891 0.04 
1019 1 1 0.512307 -0.957451 -0.959447 0 0 0 0.37104 -0.227691 -0.000408021 0 0 -6.57473 1.37347 0.849587 0.231317 0.04 
821 1 1 0.592289 -0.958819 -0.955965 0 0 0 0.0662279 0.0640612 -0.197905 0 0 -6.57473 -0.0792665 -2.49037 2.95537 0.04 
636 1 1 0.678907 -0.95119 -0.956138 0 0 0 -0.206512 0.000725434 -0.0237247 0 0 -6.57473 -0.219757 -4.11354 2.59783 0.04 
729 1 1 0.761069 -0.957336 -0.959486 0 0 0 -0.233991 0.178414 0.110838 -18.229 0.0433278 -6.90567 0.809897 -0.990694 2.26321 0.04 
503 1 1 0.840533 -0.960285 -0.960899 0 0 0 -0.372144 0.0348468 -0.0166496 -20.7059 12.0351 4.00667 1.07709 -1.75047 -0.304018 0.04 
850 1 1 0.957557 -0.947741 -0.960799 0 0 0 0.368859 -0.182471 -0.163856 45.264 8.49462 -6.58175 4.24753 -1.87316 -0.262591 0.04 
918 1 1 -0.950476 -0.877345 -0.960031 0 0 0 0.0394832 -0.202941 0.112205 1.62767 4.96365 -19.3993 -3.58999 -0.324202 -0.30723 0.04 
246 1 1 -0.853252 -0.876999 -0.957575 0 0 0 0.0648886 -0.0870031 -0.126477 0 0 -6.57473 0.981117 -0.271525 -1.13175 0.04 
586 1 1 -0.769735 -0.867714 -0.959081 0 0 0 -0.213638 0.0762744 0.0936053 0 0 -6.57473 -2.54247 1.391 2.63886 0.04 
379 1 1 -0.688466 -0.865656 -0.959768 0 0 0 -0.430951 -0.0897187 -0.0487114 0 0 -6.57473 -0.199425 -4.69608 0.711237 0.04 
105 1 1 -0.613136 -0.911576 -0.950614 0 0 0 0.3031 0.105757 -0.0817408 5.00862 3.57432 -5.69582 -3.67476 -2.53223 1.56138 0.04 
52 1 1 -0.472494 -0.878209 -0.959979 0 0 0 -0.049764 0.125022 -0.0124748 0 0 -6.57473 -0.881168 0.376561 0.950296 0.04 
345 1 1 -0.38516 -0.89139 -0.958448 0 0 0 -0.00871143 0.146198 -0.633331 -1.39038 2.1526 -6.39653 1.29371 1.33496 -1.26004 0.04 
209 1 1 -0.297481 -0.879146 -0.958329 0 0 0 0.320933 -0.0286939 -0.138405 0 0 -6.57473 -2.44102 -0.153527 0.686013 0.04 
647 1 1 -0.217476 -0.885842 -0.959521 0 0 0 -0.14076 -0.148255 0.195743 0 0 -6.57473 1.04267 2.73291 -3.15343 0.04 
700 1 1 -0.139158 -0.866611 -0.96095 0 0 0 0.0355422 -0.219606 -0.0504931 1.03869 2.46966 47.0092 -3.111 4.54412 0.392053 0.04 
616 1 1 -0.0613205 -0.888962 -0.960251 0 0 0 0.0398963 -0.102801 0.0414074 10.0598 19.4383 7.03529 1.31582 -0.675286 -0.354255 0.04 
655 1 1 0.146967 -0.92912 -0.959754 0 0 0 0.316783 0.0145212 -0.0695493 0 0 -6.57473 0.0552977 2.46203 -0.466908 0.04 
19 1 1 0.260888 -0.888473 -0.960132 0 0 0 -0.18358 -0.194953 -0.0361044 -16.8403 19.8007 -21.8975 -1.35704 -1.24735 0.46027 0.04 
341 1 1 0.330114 -0.925808 -0.960096 0 0 0 -0.142544 -0.287313 0.194134 52.271 -19.1247 -17.386 -0.842078 -1.02641 -3.29605 0.04 
664 1 1 0.473788 -0.880055 -0.951273 0 0 0 0.0644297 -0.418356 -0.10645 -3.59627 -50.869 -11.6768 -0.162036 -2.90464 -0.179835 0.04 
396 1 1 0.552694 -0.884067 -0.960447 0 0 0 0.00854828 0.0941579 -0.147975 16.3794 -2.5454 18.6208 -0.570817 -1.99344 0.691303 0.04 
50 1 1 0.636124 -0.874834 -0.95962 0 0 0 0.177328 -0.0531466 -0.00683395 0 0 -6.57473 0.957805 -0.0223032 -2.89313 0.04 
554 1 1 0.81809 -0.873085 -0.957755 0 0 0 0.301246 -0.233406 0.2411 0 0 -6.57473 0.884809 2.64282 0.476326 0.04 
812 1 1 0.898883 -0.891286 -0.95494 0 0 0 -0.000851914 -0.29676 -0.401134 0 0 -6.57473 -0.462116 2.65626 -3.08757 0.04 
446 1 1 -0.895011 -0.805459 -0.960168 0 0 0 -0.101511 0.128271 0.0486927 0.428933 -0.0729374 2.12708 -2.56862 1.24983 -0.515435 0.04 
290 1 1 -0.62567 -0.813109 -0.952621 0 0 0 0.264066 0.133014 0.71803 20.8399 -3.29986 -32.5202 4.3808 1.77753 1.53545 0.04 
380 1 1 -0.555535 -0.852044 -0.959939 0 0 0 0.386948 -0.163534 -0.0110395 0 0 -6.57473 1.92668 2.94016 -3.55841 0.04 
480 1 1 -0.38648 -0.809388 -0.958436 0 0 0 0.102709 0.16067 -0.0597194 -40.2835 -3.32599 -27.5806 -2.09177 1.03292 -0.566279 0.04 
322 1 1 -0.239585 -0.806574 -0.960552 0 0 0 -0.22874 0.218567 0.0513429 3.05195 14.8049 -4.33943 -2.15762 1.46074 3.8923 0.04 
385 1 1 -0.0839806 -0.806452 -0.958954 0 0 0 -0.263575 0.112308 0.0332105 0.29546 -0.0265608 -6.32639 -2.00806 2.59161 -0.491912 0.04 
827 1 1 0.015967 -0.864364 -0.95813 0 0 0 -0.0556585 -0.10469 -0.119107 0 0 -6.57473 -0.00174342 -1.57882 0.265288 0.04 
784 1 1 0.0957324 -0.857797 -0.959569 0 0 0 0.119624 0.0299064 -0.0495034 -2.48697 -0.0974846 -10.2253 -0.750811 -0.347076 4.42918 0.04 
211 1 1 0.186034 -0.858734 -0.959703 0 0 0 -0.502742 -0.035344 -0.0260903 -3.40613 -2.58206 -6.29009 -1.17892 1.88778 -1.68462 0.04 
725 1 1 0.249045 -0.809857 -0.961122 0 0 0 0.0494576 0.263243 -0.0121617 -2.43478 7.83811 47.1593 -1.27219 -0.140708 -1.71876 0.04 
354 1 1 0.325865 -0.838977 -0.956867 0 0 0 -0.0731382 0.217207 0.144509 0 0 -6.57473 -1.8985 -0.601484 -0.490996 0.04 
159 1 1 0.410985 -0.808812 -0.957772 0 0 0 -0.208596 0.187688 0.0286724 -24.0573 13.545 -54.2571 -1.88663 -0.520223 2.66479 0.04 
688 1 1 0.511961 -0.812507 -0.959618 0 0 0 -0.708715 -0.114229 -0.584047 38.4218 61.551 -12.5759 -1.43336 2.18183 0.851751 0.04 
742 1 1 0.715909 -0.861473 -0.955598 0 0 0 0.236169 -0.322062 -0.170725 -0.222126 -5.08334 -27.1674 -2.44842 -2.7977 2.71858 0.04 
972 1 1 0.958673 -0.824249 -0.95792 0 0 0 -0.00279769 0.134293 0.0374094 0 0 -6.57473 -3.34629 -0.0666089 -0.653999 0.04 
488 1 1 -0.960163 -0.751863 -0.959985 0 0 0 0.0224924 0.206887 0.21163 8.96071 -3.61947 -10.7968 -0.856622 -0.859183 0.909365 0.04 
894 1 1 -0.810987 -0.793135 -0.959713 0 0 0 -0.1588 -0.349124 -0.0851119 -31.8971 18.8364 -63.8928 -4.05054 -2.01321 -2.64956 0.04 
960 1 1 -0.728523 -0.789991 -0.954519 0 0 0 0.00552865 0.186096 0.0135737 -2.49895 -19.3804 -32.92 -5.16195 -2.68926 1.8831 0.04 
314 1 1 -0.679016 -0.72857 -0.958883 0 0 0 0.117199 -0.147206 -0.0969987 14.9378 17.2932 -79.0095 2.25296 -4.05277 4.29223 0.04 
1127 1 1 -0.575499 -0.747449 -0.960516 0 0 0 -0.086889 -0.464919 0.319135 17.9742 -41.9178 -12.0128 -1.46163 3.13623 -1.94577 0.04 
241 1 1 -0.493742 -0.782533 -0.958212 0 0 0 0.307384 -0.166687 0.174633 0 0 -6.57473 -1.70617 2.97279 4.2471 0.04 
511 1 1 -0.341621 -0.739206 -0.959933 0 0 0 0.125272 0.180695 -0.114888 0 0 -6.57473 0.669335 1.26314 1.80808 0.04 
376 1 1 -0.164587 -0.779691 -0.95699 0 0 0 0.160547 0.470668 -0.106248 5.56639 1.91125 -6.02698 1.60355 -1.67136 -2.45209 0.04 
204 1 1 -0.0243515 -0.749468 -0.960073 0 0 0 -0.13127 0.18994 0.00387221 0.784808 -9.21566 -6.79851 -5.75959 -3.35453 0.572085 0.04 
1122 1 1 0.0493498 -0.790277 -0.957633 0 0 0 -0.0700079 0.165455 -0.113939 -21.3202 -11.9192 -30.8911 1.73144 -3.79227 -4.43887 0.04 
773 1 1 0.141864 -0.78991 -0.960098 0 0 0 -0.13868 -0.119701 -0.0475252 -14.8444 0.641848 -41.4713 2.03335 -0.328154 3.61465 0.04 
967 1 1 0.314463 -0.758166 -0.959517 0 0 0 -0.0879625 0.182572 -0.0177915 7.27369 0.475128 -15.1443 -1.46598 -0.394358 3.27053 0.04 
451 1 1 0.467208 -0.742835 -0.952198 0 0 0 -0.194872 0.0655974 -0.260125 0 0 -6.57473 0.795929 -0.329224 -2.84164 0.04 
866 1 1 0.60642 -0.799907 -0.957679 0 0 0 -0.42891 -0.26168 -0.0489108 24.9473 5.4763 -46.7093 0.772263 6.25135 -2.60243 0.04 
519 1 1 0.685555 -0.788449 -0.960301 0 0 0 -0.0545683 -0.363366 0.0392252 -29.25 -12.87 -37.8209 1.34722 -0.423301 3.19713 0.04 
439 1 1 0.767631 -0.779542 -0.958504 0 0 0 0.0107846 0.0435995 0.0383007 0 0 -6.57473 -1.28026 -0.159971 0.0626835 0.04 
188 1 1 0.889277 -0.775586 -0.957312 0 0 0 0.0026506 0.0780948 -0.0130567 0 0 -6.57473 -3.12939 -0.82378 0.469078 0.04 
532 1 1 -0.906318 -0.692614 -0.960451 0 0 0 0.174876 0.145719 -0.195096 -6.26059 4.87375 16.0652 -1.58021 1.28617 -0.993364 0.04 
826 1 1 -0.827909 -0.666507 -0.958833 0 0 0 0.216377 -0.0305805 -0.0135934 3.79309 -4.42512 -6.18554 -5.93633 -0.776429 -0.38886 0.04 
567 1 1 -0.74 -0.667856 -0.960478 0 0 0 -0.0377991 0.340119 -0.224011 -24.3227 -23.4822 -2.96386 -1.62755 -0.348145 1.57085 0.04 
375 1 1 -0.485737 -0.691926 -0.958511 0 0 0 0.0279926 0.178081 0.193675 0 0 -6.57473 -4.71129 0.256238 -0.940904 0.04 
709 1 1 -0.396861 -0.670341 -0.956461 0 0 0 -0.13841 0.134649 0.173079 0 0 -6.57473 -3.97976 1.01144 -1.5403 0.04 
631 1 1 -0.30911 -0.664934 -0.957106 0 0 0 0.0631073 0.366082 0.180184 0 0 -6.57473 -7.02448 -0.515291 5.73855 0.04 
873 1 1 -0.226368 -0.709165 -0.960072 0 0 0 -0.0617265 -0.00403465 0.072167 1.02595 -13.0436 -37.7467 -4.19486 1.70458 1.64194 0.04 
738 1 1 -0.0976372 -0.716913 -0.956328 0 0 0 0.209162 0.177519 -0.204247 0 0 -6.57473 -0.745673 -2.72338 0.0989561 0.04 
581 1 1 0.041105 -0.70115 -0.959674 0 0 0 -0.0553667 -0.249618 0.0107805 0 0 -6.57473 -0.456381 -0.553484 0.32541 0.04 
1088 1 1 0.121815 -0.702394 -0.953567 0 0 0 0.107081 0.225517 -0.675893 0 0 -6.57473 1.14579 -4.21856 -0.987117 0.04 
862 1 1 0.223863 -0.721524 -0.960603 0 0 0 0.294257 0.0157391 0.0344418 -1.6418 0.235737 26.5981 -1.41795 0.298572 -10.8256 0.04 
1052 1 1 0.285713 -0.66452 -0.960695 0 0 0 0.206212 0.128139 0.113485 -2.16923 5.61301 4.92889 -1.57284 4.23385 4.8056 0.04 
656 1 1 0.382873 -0.715802 -0.958998 0 0 0 -0.0119243 0.307765 0.0457402 0 0 -6.57473 -1.47995 -1.20509 2.56677 0.04 
177 1 1 0.548074 -0.736924 -0.961027 0 0 0 0.162601 -0.139315 -0.210595 -0.551964 2.94766 53.4032 -6.9978 2.14568 -1.72145 0.04 
880 1 1 0.656837 -0.705336 -0.96044 0 0 0 -0.265397 0.321974 -0.0647353 0.575341 -1.1294 18.7754 -0.809203 -2.96051 -1.23637 0.04 
543 1 1 0.749685 -0.691775 -0.960809 0 0 0 -0.435304 0.150312 -0.142389 -23.7222 -0.904609 -57.3093 -2.89328 1.87255 -3.02174 0.04 
662 1 1 0.823794 -0.721081 -0.953704 0 0 0 -0.105825 0.00343346 0.00437681 -27.1347 24.7324 -84.6195 -6.7732 4.41751 -0.421709 0.04 
553 1 1 0.891975 -0.677914 -0.959569 0 0 0 0.275595 -0.197569 0.176013 0 0 -6.57473 -0.648027 0.790114 -2.65724 0.04 
987 1 1 0.960072 -0.72381 -0.959645 0 0 0 -0.0238951 0.165542 0.116771 -3.67561 -0.160807 -6.6637 -3.6178 1.29146 -1.17335 0.04 
260 1 1 -0.956437 -0.628934 -0.955924 0 0 0 -0.0845212 0.3899 0.460252 0 0 -6.57473 1.94617 6.46303 0.224965 0.04 
990 1 1 -0.878794 -0.605016 -0.960415 0 0 0 0.278445 0.0845165 -0.0866048 -1.7342 17.2925 -4.34869 -3.31933 -2.87447 0.131207 0.04 
925 1 1 -0.664015 -0.645056 -0.961136 0 0 0 -0.125369 0.152121 -0.0173463 27.3243 7.73864 55.8275 -3.29647 -0.268969 -0.181311 0.04 
893 1 1 -0.577647 -0.595445 -0.960379 0 0 0 0.284975 0.486057 0.253646 42.9769 -42.488 -0.665948 0.610819 -0.202188 -0.0784209 0.04 
883 1 1 -0.238834 -0.615147 -0.942712 0 0 0 -0.146324 0.427391 -0.167031 0 0 -6.57473 -4.17184 4.23775 4.80858 0.04 
962 1 1 -0.162156 -0.635902 -0.958687 0 0 0 0.189606 0.46636 -0.0501262 -3.78123 14.5795 -26.9211 -3.75239 -0.856371 2.80623 0.04 
950 1 1 -0.0809752 -0.627853 -0.956756 0 0 0 -0.112273 0.19089 -0.22751 -8.16723 -8.55531 -13.2266 -4.60637 -0.164055 -2.96579 0.04 
388 1 1 0.0805148 -0.631221 -0.955641 0 0 0 -0.221438 -0.108055 0.0798291 0 0 -6.57473 -2.05195 0.529051 -2.02336 0.04 
61 1 1 0.169433 -0.636723 -0.96005 0 0 0 -0.712135 0.0641553 0.011964 0.129072 -0.0170501 -3.97087 1.23579 3.68977 -0.0411747 0.04 
576 1 1 0.366019 -0.594468 -0.956706 0 0 0 0.12717 -0.183089 0.175814 -0.793302 -5.14353 -12.3145 0.155436 -0.416108 -3.6362 0.04 
1082 1 1 0.437932 -0.648218 -0.948988 0 0 0 -0.135802 -0.225289 0.379219 0 0 -6.57473 6.39673 -4.04461 -7.95226 0.04 
255 1 1 0.518419 -0.654746 -0.95993 0 0 0 -0.359856 -0.0739505 -0.175298 -22.963 -0.582504 -7.42137 0.463006 -6.33387 -2.90843 0.04 
1026 1 1 0.597678 -0.651255 -0.960684 0 0 0 -0.183079 -0.0685736 -0.51087 22.4259 -1.58916 39.014 6.4223 -5.93488 -5.691 0.04 
1111 1 1 0.688906 -0.627691 -0.959985 0 0 0 -0.00664997 0.279344 -0.158227 0 0 -6.57473 -0.227976 0.6553 -2.49065 0.04 
58 1 1 0.809832 -0.638932 -0.959416 0 0 0 0.0282003 0.236821 0.344289 19.8024 -7.3467 -26.0932 -2.87844 -2.39733 1.73817 0.04 
252 1 1 0.959581 -0.628538 -0.960489 0 0 0 0.289441 0.0875188 -0.0938685 -2.14357 -12.6254 3.27429 0.855997 0.666094 -1.78395 0.04 
670 1 1 -0.959612 -0.548779 -0.960018 0 0 0 0.170925 0.00152692 -0.173373 -3.68271 -18.801 -30.9361 -4.56752 -1.36198 2.92049 0.04 
565 1 1 -0.82 -0.54348 -0.959528 0 0 0 0.0634221 0.939441 0.157158 -1.95646 -30.4747 -7.34855 -6.23764 1.67654 0.793942 0.04 
1152 1 1 -0.745679 -0.584768 -0.955915 0 0 0 -0.0181638 0.096609 -0.582464 -6.66249 33.6704 -59.8928 -2.12556 -3.8181 -1.90709 0.04 
435 1 1 -0.63864 -0.546273 -0.960875 0 0 0 0.0884884 0.184615 0.259262 -16.8987 15.3892 26.8401 -3.59269 -1.64866 1.60006 0.04 
816 1 1 -0.496197 -0.573315 -0.9581 0 0 0 -0.0234899 0.164124 -0.398675 8.90244 -8.43109 -6.25767 -6.06197 -1.82578 1.81297 0.04 
344 1 1 -0.40855 -0.522866 -0.955064 0 0 0 0.074478 0.14168 0.0404153 -21.81 -41.9128 -59.0744 -1.29934 -2.15446 1.93941 0.04 
489 1 1 -0.347867 -0.573308 -0.929163 0 0 0 -0.17493 -0.204662 0.588989 -4.05981 6.70514 -11.5793 2.78971 -0.0175463 -1.99659 0.04 
382 1 1 -0.270017 -0.539562 -0.954319 0 0 0 -0.0547779 0.290854 -0.0113708 13.6942 -12.5989 -4.54072 -7.05467 2.4467 2.61476 0.04 
305 1 1 -0.179995 -0.543656 -0.961256 0 0 0 0.123159 0.326766 -0.422907 -3.42905 -1.57361 68.8829 -5.9378 -1.99533 -2.26505 0.04 
1066 1 1 -0.093142 -0.549407 -0.956712 0 0 0 0.191684 0.334479 -0.0780532 -3.76975 21.5938 -7.57663 -5.17836 0.402235 0.360267 0.04 
716 1 1 -0.00579143 -0.587991 -0.959784 0 0 0 0.204328 -0.206453 0.159551 0 0 -6.57473 -3.09738 1.21017 -1.23749 0.04 
143 1 1 0.0771667 -0.532239 -0.961395 0 0 0 0.280066 0.155778 0.010687 -11.3473 -16.1657 70.5256 -1.63602 1.37221 2.30438 0.04 
867 1 1 0.226445 -0.57804 -0.960266 0 0 0 -0.593157 0.0344045 -0.000316181 0.71456 0.193726 8.23239 -4.66343 -0.860345 -0.672027 0.04 
1000 1 1 0.316316 -0.531946 -0.958598 0 0 0 -0.224215 0.175767 0.430227 20.1491 -15.7874 -95.6559 -2.09746 -1.55522 4.10435 0.04 
408 1 1 0.444794 -0.559552 -0.960022 0 0 0 -0.390332 0.107493 0.0140734 -10.1985 26.5811 -71.9366 -1.31094 -4.23398 0.509442 0.04 
814 1 1 0.560356 -0.577737 -0.960275 0 0 0 -0.106122 -0.203111 -0.154282 0.0756073 0.863945 10.7702 -0.757493 -2.14974 1.04194 0.04 
908 1 1 0.730941 -0.554922 -0.959178 0 0 0 -0.150717 0.153442 0.052677 0 0 -6.57473 -1.37826 -3.00877 -3.80511 0.04 
1107 1 1 0.88344 -0.596512 -0.946378 0 0 0 -0.0473138 0.251763 -0.276089 0 0 -6.57473 -3.16036 0.743164 2.60607 0.04 
771 1 1 0.95896 -0.543698 -0.959284 0 0 0 -0.123628 0.157128 0.138016 -0.026631 -3.08305 -8.56922 -2.32655 0.248121 1.44892 0.04 
1055 1 1 -0.960125 -0.462652 -0.959454 0 0 0 -0.115832 0.0876938 0.0448566 8.72253 -15.8174 -5.73864 -3.36393 -0.773403 -1.51743 0.04 
739 1 1 -0.891079 -0.506865 -0.959985 0 0 0 -0.272539 0.413716 0.0949089 -6.54445 -56.988 -12.248 -2.9285 -0.821144 -0.286189 0.04 
1142 1 1 -0.814457 -0.464265 -0.960673 0 0 0 -0.245832 -0.205119 -0.466639 -19.0661 -5.27549 -13.0558 -5.15897 -1.48743 1.56072 0.04 
833 1 1 -0.689443 -0.486163 -0.956758 0 0 0 -0.0257217 0.565139 -0.00675871 -27.7253 10.7754 -27.0159 -4.37316 2.31012 -2.91978 0.04 
620 1 1 -0.552787 -0.517211 -0.95662 0 0 0 0.359313 0.291902 0.136709 -8.90244 8.43109 -6.89178 -0.121552 1.21679 -1.3554 0.04 
247 1 1 -0.327466 -0.484852 -0.95924 0 0 0 -0.249301 0.150363 0.10203 -13.6942 12.5989 -8.60873 -1.50848 -1.90699 6.00604 0.04 
1124 1 1 -0.239331 -0.458812 -0.959171 0 0 0 0.260674 0.320458 -0.135157 20.3301 -41.0838 -4.16244 -3.91813 -2.72988 0.156244 0.04 
868 1 1 -0.157045 -0.464486 -0.959706 0 0 0 -0.0858092 0.285294 -0.0321796 0 0 -6.57473 -7.46843 0.462605 -0.306825 0.04 
1271 1 1 -0.0503528 -0.467324 -0.960579 0 0 0 -0.140843 0.556268 0.0313392 -73.998 -8.75687 23.6932 -7.08883 -1.31195 -0.97134 0.04 
1249 1 1 0.0275132 -0.463541 -0.95997 0 0 0 -0.0823889 0.245722 -0.0193175 74.4117 7.21935 -4.99853 -6.33551 0.221767 -4.92331 0.04 
1030 1 1 0.110922 -0.460348 -0.958712 0 0 0 0.326535 0.605137 -0.36498 -42.4163 15.2693 -50.631 -6.61558 0.431239 -0.828797 0.04 
1346 1 1 0.176884 -0.504426 -0.957029 0 0 0 -0.0237775 0.507305 -0.198963 21.9242 -13.2111 -5.57968 -9.7007 0.588974 4.26071 0.04 
1148 1 1 0.253371 -0.461073 -0.961915 0 0 0 -0.24092 0.0678711 0.11398 -13.9816 -9.14089 98.4647 -1.76322 -3.67522 0.0334048 0.04 
792 1 1 0.404033 -0.48389 -0.958869 0 0 0 0.162874 -0.190773 0.145298 -0.223927 0.513846 -6.02223 -0.407135 -0.78029 4.09587 0.04 
1361 1 1 0.510184 -0.506985 -0.956683 0 0 0 -0.383184 0.406923 0.173921 0 0 -6.57473 0.604641 -3.26053 1.09192 0.04 
1047 1 1 0.605221 -0.459566 -0.959376 0 0 0 0.264985 0.15271 -0.008115 0 0 -6.57473 -0.761974 -1.86106 -3.12562 0.04 
840 1 1 0.756583 -0.484059 -0.92857 0 0 0 0.0607656 0.42405 0.146995 0 0 -6.57473 0.212178 2.08656 0.287797 0.04 
9 1 1 0.876031 -0.512266 -0.956806 0 0 0 0.309613 0.807821 0.12253 0 0 -6.57473 4.30093 -1.44572 -3.82739 0.04 
326 1 1 -0.887676 -0.428624 -0.960023 0 0 0 -0.287574 0.321095 -0.138929 -7.38511 39.9227 -45.7494 -3.66035 -2.95966 -2.40406 0.04 
1246 1 1 -0.728443 -0.416612 -0.959697 0 0 0 0.0382263 0.149328 0.0405204 -4.83423 9.36563 -7.34512 -2.02962 -1.20012 0.954228 0.04 
613 1 1 -0.616648 -0.456396 -0.953239 0 0 0 -0.034982 0.292456 0.145846 43.6625 19.2856 -6.42284 0.0998855 2.48781 3.3117 0.04 
857 1 1 -0.512025 -0.433709 -0.958856 0 0 0 -0.185756 0.267372 0.0577513 46.8122 -33.4533 -3.69812 -4.67456 0.608327 -5.7063 0.04 
92 1 1 -0.429488 -0.441844 -0.958061 0 0 0 -0.0557427 0.286062 0.302005 0 0 -6.57473 -3.50377 0.725218 -3.99191 0.04 
978 1 1 -0.359544 -0.386767 -0.958595 0 0 0 -0.0398865 0.814291 -0.232863 0 0 -6.57473 -0.579121 -0.410286 2.98745 0.04 
1010 1 1 -0.0940667 -0.395308 -0.955112 0 0 0 -0.491119 0.428796 -0.0056033 0 0 -6.57473 -4.46184 1.78378 -0.479745 0.04 
144 1 1 0.058869 -0.389478 -0.959068 0 0 0 0.192723 0.187068 -0.463432 0 0 -6.57473 -5.95086 -1.10905 0.681547 0.04 
315 1 1 0.183149 -0.407958 -0.959699 0 0 0 -0.353122 0.542303 0.243505 0 0 -6.57473 -6.87515 -2.42429 -0.706507 0.04 
772 1 1 0.328103 -0.434183 -0.96011 0 0 0 -0.197783 -0.142921 0.338298 56.1526 -21.0784 -4.89631 -1.70418 -1.35149 4.36087 0.04 
677 1 1 0.436841 -0.407031 -0.958442 0 0 0 0.710471 -0.60828 0.0510787 25.0894 -23.0265 -11.9663 -1.67169 3.22722 3.82771 0.04 
981 1 1 0.53216 -0.424432 -0.961563 0 0 0 -0.0128424 -0.291532 -0.0577263 -0.165351 4.38943 81.2761 2.33004 -0.51991 0.0949771 0.04 
1474 1 1 0.694223 -0.436923 -0.958862 0 0 0 -0.45035 0.375945 0.138499 0 0 -6.57473 -5.14452 -4.80257 -0.105354 0.04 
499 1 1 0.776712 -0.398811 -0.939454 0 0 0 -0.437763 0.0335988 -0.0752496 0 0 -6.57473 -11.1813 -1.15287 -4.97537 0.04 
398 1 1 0.88808 -0.405885 -0.960448 0 0 0 0.0833334 0.694334 -0.209854 -10.6452 -4.41976 6.94902 -3.75031 2.47609 5.00808 0.04 
852 1 1 0.960917 -0.463777 -0.960759 0 0 0 -0.0916177 -0.211202 -0.469544 -51.7464 6.42724 44.2932 3.24208 -4.40807 3.08802 0.04 
982 1 1 -0.959902 -0.383119 -0.960343 0 0 0 -0.0734167 0.298311 0.149463 0.00341526 14.5822 9.71435 -1.57698 0.105319 3.78232 0.04 
995 1 1 -0.887185 -0.34121 -0.960564 0 0 0 0.533754 0.208761 -0.577411 -5.68917 1.80188 39.6398 -8.09512 -5.00431 0.686602 0.04 
1215 1 1 -0.815181 -0.377813 -0.957876 0 0 0 0.192578 0.172642 0.27194 -1.80081 6.3406 -17.4061 -5.19593 0.770225 3.3804 0.04 
76 1 1 -0.742663 -0.337236 -0.958945 0 0 0 0.21901 0.109013 -0.0387678 0 0 -6.57473 0.182051 -1.83578 -0.837912 0.04 
969 1 1 -0.656358 -0.374642 -0.960983 0 0 0 -0.281836 0.174976 0.126757 2.65133 0.177227 46.5701 -4.75655 -2.25597 -0.664007 0.04 
230 1 1 -0.574686 -0.386581 -0.959353 0 0 0 -0.19115 0.482794 -0.129844 -39.354 12.0395 -24.4467 -4.88859 -0.698252 1.89102 0.04 
116 1 1 -0.449981 -0.355249 -0.959467 0 0 0 0.215697 0.0251199 0.0460385 0 0 -6.57473 -2.65192 2.53584 4.66378 0.04 
1155 1 1 -0.276082 -0.389166 -0.959953 0 0 0 -0.172541 0.0997598 0.0412627 -20.3301 41.0838 -8.98701 -2.11177 4.26521 6.59635 0.04 
201 1 1 -0.057836 -0.323995 -0.961357 0 0 0 0.0827469 -0.0360866 0.211953 0.299744 -1.97327 66.2009 -2.75959 0.624668 -1.72335 0.04 
404 1 1 0.129181 -0.347595 -0.96128 0 0 0 0.0370881 0.134863 -0.15684 -48.7452 -19.2554 57.5724 -7.14994 -2.95344 1.33331 0.04 
1216 1 1 0.204885 -0.326188 -0.959268 0 0 0 -0.29546 -0.071427 -0.206126 28.7954 11.3925 -4.16087 0.666602 0.959027 -1.25441 0.04 
1187 1 1 0.268693 -0.382523 -0.960217 0 0 0 0.170464 0.227429 0.107553 -45.5075 -8.81346 -8.31495 -3.31 1.26135 0.0394017 0.04 
220 1 1 0.378268 -0.354982 -0.949814 0 0 0 -0.203218 0.144785 -0.193069 -32.4895 22.5338 -13.8784 -9.38677 4.12005 -3.75115 0.04 
309 1 1 0.49668 -0.35524 -0.940133 0 0 0 -0.535347 0.0205344 0.109025 0 0 -6.57473 -1.24482 -3.64371 1.08689 0.04 
361 1 1 0.610945 -0.366464 -0.959834 0 0 0 0.13352 0.255453 0.0602061 0 0 -6.57473 -4.27744 0.411781 -0.0382586 0.04 
764 1 1 0.70978 -0.356965 -0.959626 0 0 0 -0.0976358 0.109735 0.426004 0 0 -6.57473 -1.44729 -1.21477 2.12617 0.04 
975 1 1 0.94426 -0.347832 -0.959037 0 0 0 -0.160175 0.280221 0.0398591 1.37502 4.64889 -12.4232 -4.57333 -0.813467 3.57299 0.04 
657 1 1 -0.958852 -0.302065 -0.959506 0 0 0 0.0258145 0.224912 0.183902 0 0 -6.57473 -3.33424 1.38262 2.22075 0.04 
1279 1 1 -0.80947 -0.291918 -0.954024 0 0 0 0.252055 0.661024 0.0803943 28.1302 -14.8528 -4.31768 -1.84041 3.48667 -0.309988 0.04 
905 1 1 -0.652241 -0.278726 -0.947571 0 0 0 0.0711712 0.253386 0.0252733 8.52715 1.58777 -21.4136 -4.55286 -1.86692 -0.436436 0.04 
1037 1 1 -0.523973 -0.319702 -0.960653 0 0 0 0.0894338 0.205615 -0.216845 -6.67266 5.65883 -16.6704 -6.00582 1.52331 0.0572008 0.04 
945 1 1 -0.447375 -0.269969 -0.960986 0 0 0 -0.233076 0.486485 0.629801 2.01418 -1.1914 40.2285 -10.6917 -3.11214 -3.02831 0.04 
1205 1 1 -0.373854 -0.305496 -0.96033 0 0 0 -0.0153104 0.0671514 0.0447938 -6.44999 24.397 -32.7776 -1.09095 -1.77759 -1.04881 0.04 
168 1 1 -0.22862 -0.313835 -0.955606 0 0 0 -0.336587 0.30073 0.155495 -31.2503 2.29803 -30.7459 -9.59451 -2.45669 -5.64634 0.04 
1451 1 1 -0.149764 -0.307851 -0.958093 0 0 0 -0.270457 0.399932 0.267956 34.8879 8.29084 -7.3988 -3.70199 -1.33994 1.20735 0.04 
1378 1 1 -0.00263887 -0.26396 -0.959047 0 0 0 -0.250558 0.590205 0.351001 -5.83449 1.83085 -6.65735 -3.70475 2.13515 2.24542 0.04 
1301 1 1 0.0730096 -0.289265 -0.961664 0 0 0 -0.232037 0.326959 0.0711357 22.5259 20.1342 15.3901 -4.18037 -5.06292 -3.2249 0.04 
1201 1 1 0.152496 -0.263872 -0.960222 0 0 0 0.187694 0.663807 0.102078 -0.267934 -0.482781 4.46821 -2.24399 -3.28494 1.12247 0.04 
780 1 1 0.281249 -0.304623 -0.959709 0 0 0 0.205243 0.123852 0.164834 -3.24598 27.4613 -12.5604 -3.44403 -5.96617 -1.64112 0.04 
624 1 1 0.426131 -0.284526 -0.960359 0 0 0 -0.159573 -0.213765 -0.263396 -68.1993 -74.7786 -0.0308768 1.04453 5.13445 -2.11496 0.04 
1074 1 1 0.547101 -0.290849 -0.961219 0 0 0 0.385445 0.330864 -0.207898 -2.63412 -2.35126 64.0426 1.30118 -1.08267 5.91835 0.04 
342 1 1 0.642803 -0.286616 -0.961286 0 0 0 0.219352 0.372518 -0.545593 5.3593 -13.4733 69.3174 2.6918 7.20332 7.28654 0.04 
1163 1 1 0.767383 -0.294002 -0.961153 0 0 0 -0.155655 0.274461 -0.311838 -2.99075 1.6493 61.7327 -7.13997 -4.32194 4.88042 0.04 
182 1 1 0.847774 -0.308624 -0.952324 0 0 0 0.0489576 0.38085 0.177833 0 0 -6.57473 -4.00553 -4.75581 -0.34517 0.04 
1239 1 1 -0.957956 -0.217695 -0.961052 0 0 0 0.207188 0.386074 -0.0992512 -4.97328 0.539218 48.3416 -7.16268 -0.985738 0.366575 0.04 
1056 1 1 -0.881077 -0.258561 -0.960014 0 0 0 0.0385517 -0.810107 0.202415 -28.1243 14.9453 -10.6858 3.68162 2.0588 -0.86378 0.04 
690 1 1 -0.798678 -0.212305 -0.961336 0 0 0 0.137255 0.276789 0.289005 23.127 -25.9343 -25.651 -1.70784 4.86901 0.878957 0.04 
471 1 1 -0.725243 -0.243023 -0.961006 0 0 0 -0.0936257 0.534598 -0.396484 16.4955 -9.67517 55.5373 -0.268386 1.73384 -0.37673 0.04 
283 1 1 -0.643992 -0.200636 -0.959954 0 0 0 0.402841 0.326309 0.206663 1.53587 17.5674 -10.2065 -6.43185 1.2547 -1.48252 0.04 
1286 1 1 -0.577358 -0.252951 -0.959235 0 0 0 -0.0905757 -0.137763 0.0201748 0.260173 -1.49152 -12.6563 0.0505045 -0.9792 -4.18551 0.04 
383 1 1 -0.503961 -0.211118 -0.962005 0 0 0 -0.276777 0.231259 -0.106377 5.3962 -1.69468 106.546 -3.24379 1.45011 1.27161 0.04 
1328 1 1 -0.425945 -0.189277 -0.959179 0 0 0 -0.359536 0.400295 0.0948487 0 0 -6.57473 -3.04855 -3.05871 -1.07329 0.04 
1063 1 1 -0.352166 -0.221575 -0.962647 0 0 0 -0.226032 0.196598 0.320793 4.77149 -5.34802 136.769 -0.573781 -1.82281 3.23079 0.04 
1202 1 1 -0.271136 -0.245432 -0.960593 0 0 0 -0.169981 0.356564 0.180579 0.447772 -1.46911 24.142 -4.26408 -2.84419 1.88118 0.04 
128 1 1 -0.182364 -0.21355 -0.960185 0 0 0 -0.0165225 -0.23697 0.0967047 -0.097095 0.442088 2.47776 -6.55444 -3.15775 -5.73632 0.04 
1348 1 1 -0.0855336 -0.249193 -0.960007 0 0 0 -0.134485 0.258976 -0.0078583 -1.67917 5.32207 -5.96894 -1.46438 -2.60339 -3.27718 0.04 
807 1 1 0.0517879 -0.202264 -0.958907 0 0 0 0.67488 0.152475 -0.16953 -4.91041 -6.10619 -12.9064 -2.53776 0.943529 2.36078 0.04 
1139 1 1 0.257828 -0.215681 -0.958537 0 0 0 0.0306033 0.264892 -0.145008 9.66977 -5.65682 -20.542 -3.82051 -1.33739 -0.142201 0.04 
1069 1 1 0.346475 -0.261038 -0.950133 0 0 0 0.030573 0.643616 0.586276 29.1606 17.6953 -3.26572 7.78922 2.61925 6.71384 0.04 
1475 1 1 0.407067 -0.196562 -0.960782 0 0 0 -0.0296747 0.323176 0.286558 -1.91885 0.534067 33.261 -8.15298 -0.544614 -5.41638 0.04 
1078 1 1 0.480421 -0.231102 -0.948579 0 0 0 0.347216 0.00991233 -0.0416279 69.2634 75.2673 10.3014 5.25372 -5.1463 -1.90784 0.04 
806 1 1 0.60628 -0.21782 -0.944391 0 0 0 -0.143122 0.139783 -0.452158 5.07679 3.67576 -0.90829 4.08421 1.83019 1.33869 0.04 
974 1 1 0.701233 -0.214896 -0.948434 0 0 0 -0.234728 -0.102831 -0.452214 -35.0467 -1.64302 -6.60737 7.28051 3.89514 1.21225 0.04 
1336 1 1 0.780051 -0.211012 -0.944419 0 0 0 -0.114773 -0.104136 0.186681 35.0467 1.64302 -6.54208 -7.35204 7.7028 -2.69127 0.04 
915 1 1 0.930188 -0.239721 -0.960959 0 0 0 0.0517906 0.202782 0.6487 -11.4845 -20.6543 38.154 -8.73287 -0.415741 -2.41201 0.04 
1324 1 1 -0.960018 -0.136225 -0.960292 0 0 0 0.00822448 -0.197863 -0.635048 0.266031 11.7057 -5.21184 -1.74905 -1.21597 1.09607 0.04 
328 1 1 -0.883832 -0.170492 -0.955064 0 0 0 -0.0337299 0.0894539 0.146981 0 0 -6.57473 0.323519 1.07457 -0.557646 0.04 
1251 1 1 -0.714993 -0.162123 -0.959048 0 0 0 -0.246524 0.492417 -0.156461 0 0 -6.57473 -3.34422 -0.438221 4.75267 0.04 
1436 1 1 -0.572317 -0.164551 -0.950611 0 0 0 -0.125988 0.320751 -0.020439 0 0 -6.57473 -3.66889 -0.678533 -4.58606 0.04 
1203 1 1 -0.492663 -0.134057 -0.94126 0 0 0 -0.156486 0.0238087 0.378389 -6.10969 37.2949 -56.1105 -1.12317 -0.512832 0.831978 0.04 
1250 1 1 -0.311453 -0.149436 -0.960743 0 0 0 0.382473 0.0606145 -0.0833668 -3.80253 -5.60283 24.1338 -3.49139 0.612523 -3.28247 0.04 
902 1 1 -0.109886 -0.171516 -0.943907 0 0 0 0.365902 -0.0234769 -0.507998 0 0 -6.57473 -4.11487 -0.517593 -3.05945 0.04 
1276 1 1 -0.0247992 -0.17367 -0.957741 0 0 0 0.151921 0.317057 -0.222045 0 0 -6.57473 -1.53848 -2.85572 0.399418 0.04 
752 1 1 0.159445 -0.172563 -0.959134 0 0 0 0.164105 0.0766269 0.393285 0 0 -6.57473 -3.15258 -0.448184 1.37744 0.04 
557 1 1 0.223401 -0.112686 -0.960464 0 0 0 0.197988 -0.0319458 -0.212661 -0.246068 1.41672 21.4684 -11.5136 -0.264386 -1.69369 0.04 
1426 1 1 0.326591 -0.154347 -0.959961 0 0 0 0.284544 0.183441 -0.43042 -11.9638 -72.5134 -5.64017 6.2841 3.18798 3.2529 0.04 
13 1 1 0.539164 -0.177776 -0.959448 0 0 0 -0.726882 0.27103 0.25029 7.51888 -1.27419 -36.386 -6.17971 -4.02782 3.69765 0.04 
885 1 1 0.649767 -0.152027 -0.9581 0 0 0 -0.232442 0.275408 -0.250338 0 0 -6.57473 -7.4452 -3.35629 -0.11796 0.04 
627 1 1 0.733188 -0.141669 -0.959902 0 0 0 0.404568 -0.248466 -0.123513 0 0 -6.57473 -5.13802 -0.0136009 -0.0959751 0.04 
1206 1 1 0.866627 -0.191306 -0.959166 0 0 0 -0.503808 0.239589 0.117426 0.332346 -0.23233 -6.57216 -3.28334 -0.113012 2.09034 0.04 
1130 1 1 0.958509 -0.165691 -0.958717 0 0 0 0.197391 0.320964 0.155497 9.97386 22.8039 -6.29869 -6.66538 -1.43579 -4.53858 0.04 
1238 1 1 -0.894573 -0.0876301 -0.962495 0 0 0 0.338797 0.212603 0.00473732 -62.9034 -63.9792 113.429 0.457182 6.07477 -1.82433 0.04 
1484 1 1 -0.791874 -0.105255 -0.959066 0 0 0 0.0133362 0.306353 0.359165 0 0 -6.57473 -5.53711 3.70578 -5.27527 0.04 
1150 1 1 -0.645752 -0.0282776 -0.960254 0 0 0 -0.0915502 0.759672 0.0831815 -3.96504 -67.9603 7.87907 -5.56346 -1.23002 2.68048 0.04 
95 1 1 -0.550787 -0.0819292 -0.958692 0 0 0 -0.272281 -0.201522 -0.105224 0.176866 -0.152886 -6.51093 -5.77817 0.743685 1.25386 0.04 