ITEM: TIMESTEP
79000
ITEM: NUMBER OF ATOMS
1500
ITEM: BOX BOUNDS ff ff ff
-1 1
-1 1
-1 1
ITEM: ATOMS id type type x y z ix iy iz vx vy vz fx fy fz omegax omegay omegaz radius 
137 1 1 -0.960113 -0.960144 -0.960203 0 0 0 1.65329e-05 -7.34043e-05 -2.37347e-05 0.00611761 -0.0123401 -0.00263055 0.00148053 0.00120359 -0.00188471 0.04 
5 1 1 -0.830903 -0.960159 -0.960272 0 0 0 -3.11917e-06 1.6387e-05 6.87493e-05 -0.00360414 0.000156959 0.0178321 0.000153923 0.000344015 -0.000671148 0.04 
239 1 1 -0.75099 -0.960146 -0.960248 0 0 0 -1.70758e-05 -6.01589e-05 7.82412e-05 0.00100509 0.0152996 0.0351319 0.003279 0.000128652 0.000858154 0.04 
34 1 1 -0.671035 -0.960043 -0.960243 0 0 0 -8.6047e-05 6.16442e-05 5.62781e-05 -0.00815381 0.00772048 0.0231606 -0.000699461 -0.000776264 0.00183145 0.04 
415 1 1 -0.591092 -0.960034 -0.960298 0 0 0 -0.000190597 0.000114026 0.000148256 -0.0218386 0.0100139 0.0131993 6.91241e-06 0.0039791 0.00880786 0.04 
138 1 1 -0.511084 -0.960079 -0.960243 0 0 0 -3.50108e-05 8.1338e-05 -2.21997e-05 0.0471148 0.0439109 -0.00698344 -0.00408369 0.000314234 0.0130967 0.04 
323 1 1 -0.431096 -0.960001 -0.96014 0 0 0 0.000121543 5.11501e-05 3.95831e-05 0.00266882 0.0224466 -0.016213 -0.00174952 0.00434791 -0.00950945 0.04 
130 1 1 -0.35113 -0.960063 -0.960221 0 0 0 4.94667e-05 0.000527426 9.87788e-05 0.12053 0.0274858 0.06807 -0.0208339 -0.00580973 0.0163384 0.04 
502 1 1 -0.271189 -0.960079 -0.960303 0 0 0 9.39309e-05 0.000530224 0.00122025 0.0486865 -0.0343974 -0.0467414 0.00200691 6.60094e-05 -0.0109142 0.04 
494 1 1 -0.180645 -0.960156 -0.960232 0 0 0 0.0165213 -0.00135361 0.00015175 0.215213 0.0335422 0.150294 0.0521001 0.419251 -0.141567 0.04 
448 1 1 -0.100671 -0.960028 -0.960251 0 0 0 0.0173522 -0.00168603 -0.000136787 0.0186913 0.0615508 0.0133964 0.0646324 0.415743 -0.0352746 0.04 
147 1 1 -0.0207093 -0.960022 -0.960222 0 0 0 0.0172805 0.000630664 0.00146206 -0.100651 -0.141361 0.118534 -0.0149641 0.406 -0.279053 0.04 
218 1 1 0.0601272 -0.960069 -0.960217 0 0 0 0.0242472 0.00828001 0.0024638 -0.315872 -0.543848 -0.0361519 -0.255273 0.55528 -0.460022 0.04 
339 1 1 0.153284 -0.960133 -0.960198 0 0 0 -0.00499065 0.00103954 -0.00110579 1.05243 -0.375893 0.0145249 -0.0348517 -0.098306 0.214252 0.04 
81 1 1 0.233499 -0.960116 -0.960181 0 0 0 -0.0145215 0.00416617 0.0012376 -0.0221905 0.0262008 0.519867 -0.0617543 -0.361343 0.230034 0.04 
341 1 1 0.313411 -0.960041 -0.960162 0 0 0 -0.0144239 -0.000113659 0.000348618 -0.0581686 0.0646343 -0.0153145 -0.0108733 -0.373982 0.194898 0.04 
203 1 1 0.393346 -0.960099 -0.960229 0 0 0 -0.0162006 0.000356751 -0.000188458 0.389332 0.0266443 -0.124251 -0.00585279 -0.420792 0.324336 0.04 
1019 1 1 0.473888 -0.96003 -0.960197 0 0 0 -0.00552378 0.00275724 0.000351254 0.118669 -0.0384267 -0.116902 -0.0815379 -0.144989 0.151475 0.04 
821 1 1 0.553888 -0.960044 -0.960225 0 0 0 -0.00363963 0.000509481 -0.000549353 -0.010161 0.0211693 -0.0764736 -0.0135419 -0.0996805 0.0386831 0.04 
636 1 1 0.633875 -0.960471 -0.960203 0 0 0 -0.00227667 3.56422e-05 -0.000137483 -0.0187579 -0.0356948 0.0334178 -0.00128122 -0.0614553 0.0587812 0.04 
729 1 1 0.720244 -0.960014 -0.960164 0 0 0 -0.000149995 4.12455e-06 0.000180689 0.0117133 0.0207974 0.0398033 0.0020816 -0.00416404 0.00033054 0.04 
503 1 1 0.800205 -0.960026 -0.960136 0 0 0 -0.000185562 -9.56422e-05 6.52435e-05 0.0119897 0.0129578 0.0156599 0.00231396 -0.00456213 0.00734129 0.04 
424 1 1 0.880175 -0.960035 -0.960161 0 0 0 -0.000141987 5.53941e-05 -8.17243e-05 0.00619865 0.00811584 0.0160526 -0.00219607 -0.00325922 0.00337531 0.04 
850 1 1 0.960099 -0.95894 -0.960221 0 0 0 -0.000134343 0.000112987 -1.72572e-05 0.00709771 -0.00643872 0.00898068 -0.00330663 -0.00238043 -0.00213589 0.04 
778 1 1 -0.959897 -0.880365 -0.960214 0 0 0 -1.4313e-05 -3.0175e-05 7.91904e-05 0.0319322 2.49459e-05 -0.00142659 7.63793e-05 0.000349538 0.00288534 0.04 
918 1 1 -0.880186 -0.897175 -0.960221 0 0 0 2.27935e-05 -4.92815e-05 0.000193963 -0.0163724 -0.0151137 0.00678359 0.00390785 -0.000185734 -0.00240632 0.04 
246 1 1 -0.791954 -0.890528 -0.960152 0 0 0 0.000150993 5.58971e-05 -9.07447e-06 -0.01713 0.0209425 -0.0174492 -0.002273 0.00404002 -0.00147254 0.04 
586 1 1 -0.711988 -0.890487 -0.960304 0 0 0 0.000154359 0.000108826 0.000140907 0.00195709 0.0103284 0.0100924 -0.00731877 0.00810948 0.00913437 0.04 
379 1 1 -0.631007 -0.89066 -0.960191 0 0 0 0.000354547 0.000153043 0.000453928 -0.0201489 0.0160671 0.0410249 -0.00254785 0.00805102 -0.0244453 0.04 
105 1 1 -0.550945 -0.890873 -0.960219 0 0 0 3.04791e-05 -9.03513e-05 0.000280633 -0.0544804 -0.0132884 -0.0072649 0.00948344 0.00291946 -0.018513 0.04 
289 1 1 -0.471021 -0.890685 -0.960225 0 0 0 0.000101858 9.25538e-05 0.000293706 -0.0193401 0.036597 0.0196995 4.19738e-05 -0.000900457 0.0241676 0.04 
345 1 1 -0.389101 -0.870339 -0.960118 0 0 0 -0.00261696 -0.00195872 -9.72771e-05 0.00138355 -0.000306464 -0.000517995 0.048932 -0.0660053 0.149076 0.04 
209 1 1 -0.311316 -0.890779 -0.960251 0 0 0 0.00206147 0.000292899 -0.000240629 0.0320483 0.062117 -0.0635863 -0.0115792 0.0555882 -0.0533047 0.04 
647 1 1 -0.225779 -0.894313 -0.960227 0 0 0 0.00766952 -0.00516908 -0.0002583 0.0990028 -0.107636 -0.104094 -0.0442271 -0.00439856 0.193744 0.04 
700 1 1 -0.142277 -0.890085 -0.96016 0 0 0 0.00177282 0.00550265 0.00162381 0.514102 0.296241 -0.131225 -0.100563 0.00813846 0.361821 0.04 
616 1 1 -0.0619797 -0.890041 -0.960242 0 0 0 0.00305159 0.0075311 -0.000443731 -0.0587072 0.116661 0.581313 -0.194229 0.0763962 0.342188 0.04 
87 1 1 0.0210484 -0.890309 -0.960166 0 0 0 0.0128324 0.0118837 0.00246184 -0.100032 -0.187466 -0.0490313 -0.347715 0.291091 0.632154 0.04 
655 1 1 0.106847 -0.895158 -0.960254 0 0 0 0.0172492 0.0151536 -0.00568317 -0.885555 0.00648539 0.117453 -0.380937 0.54799 0.492862 0.04 
977 1 1 0.193386 -0.891009 -0.960203 0 0 0 -0.00903903 0.00735166 -0.00150472 -0.0660904 0.392019 0.418657 -0.0836012 -0.167381 -0.154619 0.04 
19 1 1 0.273362 -0.890836 -0.960251 0 0 0 -0.00514004 0.00371839 -0.00407039 -0.309001 -0.313957 -0.198197 -0.125905 -0.0487563 -0.168359 0.04 
443 1 1 0.353455 -0.890775 -0.960223 0 0 0 -0.0181313 0.000923326 -0.00139435 0.308109 -0.173999 -0.236393 -0.03823 -0.455627 -0.10408 0.04 
664 1 1 0.433468 -0.891026 -0.96022 0 0 0 -0.0158389 -0.000711829 0.000465528 0.321371 -0.183855 -0.260221 0.000633414 -0.420294 -0.202283 0.04 
74 1 1 0.594522 -0.891196 -0.96023 0 0 0 -0.00141628 -0.000468292 -0.000281 0.0288853 -0.0151438 -0.0379419 0.0130885 0.0222285 -0.0734685 0.04 
50 1 1 0.674366 -0.891982 -0.960171 0 0 0 -0.00160684 0.000691351 -0.000210772 -0.0173445 0.00619088 0.0385324 -0.0176856 -0.018849 -0.0219313 0.04 
1 1 1 0.74988 -0.866692 -0.960236 0 0 0 -0.00129192 0.000111257 0.000186058 0.0658552 0.0258467 0.00251929 -0.0149047 -0.00462208 0.00520575 0.04 
812 1 1 0.878026 -0.880116 -0.960206 0 0 0 -0.000825647 4.64392e-05 3.92594e-05 0.00748266 0.00785941 0.0187841 -0.000518682 -0.0203609 0.00947246 0.04 
446 1 1 -0.960235 -0.800678 -0.960213 0 0 0 3.20125e-05 -5.25062e-05 0.000234193 -0.006349 -0.00191637 0.0170194 0.00143055 -0.00398814 -0.00499842 0.04 
352 1 1 -0.841054 -0.827426 -0.960338 0 0 0 0.000132711 -4.58439e-05 0.000166305 -0.018951 0.0232399 -0.0217489 0.000663201 0.00467381 -0.00299995 0.04 
894 1 1 -0.761856 -0.816573 -0.960286 0 0 0 0.000225283 6.82639e-05 -0.000256586 0.00189822 0.012295 -0.0239712 -0.00189759 0.00325247 0.00181853 0.04 
960 1 1 -0.681964 -0.81641 -0.960121 0 0 0 7.16671e-05 -0.000245269 5.69532e-05 -0.0211718 0.0578852 -0.00380738 0.0094458 -0.00372028 -0.00780922 0.04 
380 1 1 -0.535332 -0.812413 -0.960167 0 0 0 7.21197e-06 0.000343434 0.000316709 -0.0393752 0.0441967 -0.0454297 -0.00889325 0.000165541 -0.000575464 0.04 
720 1 1 -0.259079 -0.821751 -0.960271 0 0 0 0.00316521 -0.00475303 0.000338848 0.0674302 0.0625061 0.00703745 0.125443 0.0689101 -0.0936119 0.04 
161 1 1 -0.165992 -0.813716 -0.960307 0 0 0 -0.0208026 -0.00433025 -0.000543162 0.420566 -0.528674 -0.140149 0.0637443 -0.571645 0.11746 0.04 
827 1 1 -0.00965255 -0.81646 -0.960248 0 0 0 -0.00382595 0.00919599 -0.00452629 0.887132 0.288468 0.370392 -0.31288 -0.145031 0.0843883 0.04 
784 1 1 0.069909 -0.824331 -0.960232 0 0 0 -0.00281235 0.00585368 -0.000898132 0.667989 0.290889 0.3457 -0.0348612 -0.076776 0.0654586 0.04 
211 1 1 0.152808 -0.822131 -0.960318 0 0 0 -0.00668529 0.0124625 0.00824016 -1.64134 1.1304 0.892074 -0.159119 0.0181676 -0.440729 0.04 
121 1 1 0.233135 -0.821705 -0.960188 0 0 0 -0.0100469 0.00488335 0.000685507 0.026459 -0.487157 0.163056 -0.0520311 -0.248386 0.154893 0.04 
229 1 1 0.383167 -0.816508 -0.960245 0 0 0 -0.00476288 -0.00463029 -0.00136543 -0.0322903 -0.0843051 0.00127759 0.122381 -0.10783 0.109066 0.04 
396 1 1 0.520837 -0.860778 -0.960259 0 0 0 -0.00104044 -0.000507276 -0.000639897 0.0920674 -0.0102273 -0.0925063 0.00789229 -0.0262031 0.0709255 0.04 
866 1 1 0.594039 -0.811418 -0.960285 0 0 0 -0.000940913 -0.000773046 -0.000184604 0.133101 -0.00993048 0.0258116 0.0188484 -0.0224558 0.05415 0.04 
628 1 1 0.673847 -0.812256 -0.960196 0 0 0 -0.00160453 0.00151802 2.03368e-05 0.0918947 -0.0217225 -0.00180924 0.0211771 0.0117967 0.0168352 0.04 
554 1 1 0.818692 -0.826464 -0.960278 0 0 0 -0.000885264 0.000132664 1.74525e-05 0.0432867 0.0312824 0.0078893 -0.00706012 -0.0024596 -0.00941418 0.04 
417 1 1 0.960147 -0.833979 -0.960256 0 0 0 -0.000150539 5.21051e-05 9.31692e-05 0.0131831 -0.00375548 0.00252408 -0.00232525 -0.000695873 -0.00098899 0.04 
282 1 1 -0.889469 -0.763963 -0.960208 0 0 0 6.04324e-05 0.000142393 7.85359e-05 -0.0399168 -0.00247171 -0.00270494 -0.00451586 0.000376548 0.00886487 0.04 
492 1 1 -0.810343 -0.753041 -0.960209 0 0 0 0.000371065 0.00030337 -0.000465862 -0.0112551 -0.00884807 -0.0112568 -0.012156 0.011889 -0.00593413 0.04 
290 1 1 -0.609583 -0.782691 -0.960231 0 0 0 0.000222705 6.50111e-05 2.88379e-05 -0.0228182 0.0395547 0.0403672 -0.00775975 0.00747652 0.00668888 0.04 
52 1 1 -0.453505 -0.789054 -0.960362 0 0 0 0.000155372 0.000600539 4.61242e-05 0.0153684 0.0549251 0.0425015 0.000877287 0.00714252 0.0126231 0.04 
480 1 1 -0.375632 -0.771134 -0.960284 0 0 0 -0.000261112 0.000867337 -0.000305852 -0.0230801 0.0332616 0.0317703 -0.0145118 -0.00615967 -0.0073444 0.04 
402 1 1 -0.298103 -0.75173 -0.960146 0 0 0 -0.000150911 -0.00108899 -0.000319996 -0.119466 0.0622177 -0.0808545 0.0242347 0.00432549 -0.0315818 0.04 
322 1 1 -0.218202 -0.753141 -0.960159 0 0 0 -0.00166395 0.000305742 -0.000392886 -0.486921 0.501964 -0.0335753 0.0308533 -0.00624576 0.0348237 0.04 
376 1 1 -0.139759 -0.738237 -0.960147 0 0 0 0.00378497 -0.0138952 0.000411009 0.0490565 0.102084 0.203807 -0.20122 -0.0555666 -0.389873 0.04 
385 1 1 -0.0875004 -0.798624 -0.960228 0 0 0 -0.016983 -0.0339909 0.00396043 0.365214 0.0421143 0.149494 0.602373 -0.306451 -0.243992 0.04 
1122 1 1 0.0161483 -0.735128 -0.960205 0 0 0 0.0079309 -0.0139223 0.000259487 0.116686 0.0512204 -0.225653 0.345738 0.213715 -0.370039 0.04 
773 1 1 0.097978 -0.74951 -0.960419 0 0 0 -0.00718551 0.00871278 -0.0107612 -0.155596 -3.18145 7.21687 0.193277 0.0401833 -0.352184 0.04 
725 1 1 0.197103 -0.750413 -0.960203 0 0 0 -0.0238706 -0.00413179 0.00282549 0.220599 -0.373235 -0.411202 0.107465 -0.596988 -0.117049 0.04 
354 1 1 0.307239 -0.791926 -0.960252 0 0 0 -0.00541641 -0.00868612 0.0049238 0.307151 0.0711047 -0.776449 0.18312 -0.108257 0.0142367 0.04 
688 1 1 0.487165 -0.750889 -0.960214 0 0 0 -0.00600278 -0.00268277 -0.00264697 -0.0615107 0.0525729 0.19095 0.0793106 -0.144115 -0.00137382 0.04 
757 1 1 0.565843 -0.736792 -0.960202 0 0 0 -0.00733966 -0.00283929 -0.000318279 0.205097 0.0858209 -0.0138956 0.0663946 -0.119824 0.0561813 0.04 
519 1 1 0.645665 -0.737598 -0.960258 0 0 0 -0.00880195 -0.000933227 -1.39189e-05 0.0307184 0.0135797 0.0205416 -0.0333491 -0.0297909 0.133382 0.04 
742 1 1 0.74937 -0.786718 -0.960237 0 0 0 -0.00091816 -5.70965e-05 -0.000121959 0.0224893 0.0235015 -0.0230334 0.00453722 -0.0239405 -0.0147934 0.04 
603 1 1 0.818363 -0.746592 -0.960128 0 0 0 -0.000630378 -1.09787e-05 -2.85302e-05 0.0338028 0.0375376 0.0092523 0.00104551 0.00366229 0.00181936 0.04 
86 1 1 0.891238 -0.793664 -0.960275 0 0 0 -0.000301298 1.00874e-05 5.93181e-05 0.00748009 0.00463321 0.0290462 -0.000473357 -0.00376984 0.00190678 0.04 
972 1 1 0.960252 -0.753765 -0.960206 0 0 0 -0.000117156 4.26993e-05 6.35084e-05 0.00681347 0.00056462 0.000675661 -0.000905614 0.000115293 -0.00200999 0.04 
488 1 1 -0.96019 -0.720892 -0.960226 0 0 0 -5.14548e-05 0.000158893 7.36615e-05 -0.0109198 0.00737904 -0.0128284 -0.0039346 -0.00161004 0.00939685 0.04 
532 1 1 -0.889458 -0.684178 -0.960238 0 0 0 2.9028e-05 0.000419938 -0.000208426 0.00108675 -0.0145652 -0.0163962 -0.0102018 -0.00144045 -0.0124988 0.04 
564 1 1 -0.744136 -0.708161 -0.960246 0 0 0 0.000211942 0.000193754 -0.000158113 0.0271414 0.00777491 0.0217103 0.00416933 0.0038879 0.00281001 0.04 
314 1 1 -0.666273 -0.72635 -0.960117 0 0 0 7.37129e-05 0.000231152 -0.000100448 -0.0306508 0.0188379 0.0368732 -0.00346867 -0.00275689 -0.00543093 0.04 
783 1 1 -0.611481 -0.667492 -0.960238 0 0 0 0.000108591 0.000731941 0.000384105 0.0630702 -0.002724 -0.00326919 -0.00663602 0.00393341 -0.00601395 0.04 
1127 1 1 -0.555253 -0.724259 -0.960257 0 0 0 0.000316251 0.000380568 -0.000539709 0.0397861 -0.000946994 -0.0138554 0.00106322 0.0156899 0.00533825 0.04 
241 1 1 -0.476279 -0.712527 -0.960195 0 0 0 0.000924421 0.00131316 -0.000187707 -0.0494186 0.0367696 0.0782915 0.00218362 -0.0161901 0.00739165 0.04 
85 1 1 -0.390751 -0.6927 -0.960251 0 0 0 -0.000163524 0.000896415 -0.00151208 -0.0129006 -0.0281836 0.0878642 -0.0195305 0.012805 -0.000397768 0.04 
511 1 1 -0.313312 -0.673188 -0.960159 0 0 0 -0.000623684 -0.00263534 -0.000145234 -0.124339 -0.120154 0.0177528 0.0660881 -0.0116699 -0.0444487 0.04 
873 1 1 -0.23341 -0.674724 -0.960336 0 0 0 0.00118609 -0.000339825 0.000546688 -0.145491 -0.090778 0.0475233 0.00076589 0.0354443 0.0579067 0.04 
204 1 1 -0.062156 -0.719066 -0.960341 0 0 0 0.00562562 -0.0188805 0.00211026 0.114834 0.1996 0.22302 0.477794 0.107803 0.271643 0.04 
1088 1 1 0.110611 -0.670713 -0.960256 0 0 0 0.000326592 -5.40285e-05 -0.0035925 -0.406953 1.15338 0.355185 0.188151 -0.0034287 0.141755 0.04 
862 1 1 0.209233 -0.671429 -0.96015 0 0 0 -0.0036421 -0.00602546 0.000606639 -0.0133544 0.0509392 -0.332339 0.137774 -0.0720681 -0.0068956 0.04 
967 1 1 0.272932 -0.719731 -0.960209 0 0 0 -0.00930302 -0.0107373 0.000475114 -0.187761 0.00567206 0.039768 0.291198 -0.253349 -0.167811 0.04 
159 1 1 0.352614 -0.72609 -0.960324 0 0 0 -0.00818001 -0.0106939 -0.000127696 -0.184873 0.228873 0.0341404 0.265947 -0.205068 0.241714 0.04 
451 1 1 0.439814 -0.686477 -0.96025 0 0 0 -0.00958104 -0.00369123 -0.000697708 -0.0627175 0.196269 0.0619702 0.0987165 -0.218223 0.119366 0.04 
177 1 1 0.518438 -0.672625 -0.960188 0 0 0 -0.00917429 -0.00380157 0.000629207 0.0928742 0.0622697 -0.0800022 0.0844901 -0.0370423 -0.0238616 0.04 
439 1 1 0.749022 -0.706776 -0.960186 0 0 0 -0.000581564 0.000192425 -4.29407e-05 -0.0189853 0.0227007 -0.0292075 -0.00311479 -0.0183516 0.00165668 0.04 
662 1 1 0.818203 -0.666699 -0.960186 0 0 0 -0.000250099 6.15967e-05 0.00011019 -0.0311634 0.0210795 0.0116735 0.00208919 -0.000694955 -0.000516304 0.04 
188 1 1 0.891074 -0.71377 -0.960246 0 0 0 -0.000259708 3.59291e-05 1.82197e-05 0.00838532 0.0182557 0.0102483 -0.000177526 -0.00462319 -0.00315914 0.04 
987 1 1 0.960183 -0.673825 -0.960186 0 0 0 -3.53286e-05 -6.95842e-06 2.26284e-05 -0.00416194 -0.00224438 0.00359968 -0.00102144 0.000907574 -9.72502e-05 0.04 
990 1 1 -0.878494 -0.605225 -0.960238 0 0 0 -0.00014941 0.000899656 -0.000112549 0.0713548 -0.0152861 0.0110616 -0.0214963 -0.00938554 0.0176775 0.04 
826 1 1 -0.811815 -0.665786 -0.960157 0 0 0 3.68051e-06 -9.40239e-05 8.99861e-05 0.00492407 0.0197905 0.00198417 0.00825602 -0.00297646 0.00725455 0.04 
1152 1 1 -0.757262 -0.607417 -0.960242 0 0 0 -0.000824279 0.000862877 -6.0826e-05 -0.011642 0.0156622 -1.96059e-06 -0.021898 -0.0146376 0.0213687 0.04 
567 1 1 -0.689461 -0.64983 -0.960193 0 0 0 -0.000310686 0.000779643 -0.000791499 -0.0141134 -0.0505722 0.0180814 -0.028471 -0.0105594 0.00973118 0.04 
170 1 1 -0.527686 -0.649216 -0.960287 0 0 0 0.00294122 -0.000702901 -5.07532e-05 0.00182762 -0.105056 -0.0230116 0.0142547 0.0852129 -0.026145 0.04 
375 1 1 -0.44856 -0.63776 -0.960321 0 0 0 0.00211661 0.00222021 -0.000379139 -0.0870046 -0.0535073 0.0602779 -0.0310891 0.0574369 -0.0561036 0.04 
709 1 1 -0.369229 -0.615712 -0.960157 0 0 0 0.011377 -0.00179151 0.000699354 -0.15305 0.107355 -0.060597 0.0568539 0.267952 -0.0643016 0.04 
738 1 1 -0.123738 -0.660051 -0.960269 0 0 0 0.00204588 -0.0148803 0.00046614 -0.1694 0.187326 0.00634637 0.374178 0.0541633 0.0497986 0.04 
1046 1 1 -0.0462821 -0.640664 -0.960266 0 0 0 0.0022985 -0.017985 0.000202312 0.0280113 0.106431 0.195668 0.441861 0.0550703 0.00109137 0.04 
581 1 1 0.0320069 -0.656487 -0.960258 0 0 0 0.00181281 -0.0162885 0.000405069 -0.150813 0.264762 0.289871 0.410731 0.0943093 0.0730369 0.04 
61 1 1 0.160334 -0.608255 -0.960275 0 0 0 -0.00319912 -0.00432256 0.000607909 0.140758 0.250204 0.291104 0.0655322 -0.0957303 -0.0596842 0.04 
1052 1 1 0.25452 -0.605539 -0.960217 0 0 0 -0.00254514 -0.0071315 -0.000480275 -0.0336113 -0.0918291 0.197853 0.174423 -0.0505212 -0.0072688 0.04 
656 1 1 0.31827 -0.65386 -0.960202 0 0 0 -0.0070302 -0.0111556 0.00065213 -0.10353 0.0182832 0.116251 0.278123 -0.164956 -0.148869 0.04 
1082 1 1 0.391824 -0.622715 -0.960243 0 0 0 -0.0109211 -0.00553951 -0.000360253 -0.0643445 0.111734 -0.095801 0.178076 -0.125795 -0.064268 0.04 
255 1 1 0.470492 -0.608723 -0.960243 0 0 0 -0.0108601 -0.00469354 0.000299318 -0.0252114 -0.0252403 -0.0314005 0.113865 -0.261652 0.0613561 0.04 
880 1 1 0.600571 -0.661056 -0.960203 0 0 0 -0.00219134 0.0056797 0.000349751 -0.00169238 0.116646 0.0540183 -0.141248 -0.0554229 0.134922 0.04 
308 1 1 0.680385 -0.665815 -0.960206 0 0 0 -0.00277931 -0.00369165 -0.000333366 0.0122841 -0.0166733 0.0142743 0.00245542 -0.0225016 -0.303892 0.04 
543 1 1 0.749551 -0.625905 -0.960196 0 0 0 -0.00232107 -0.00271278 2.0471e-05 -0.0339576 0.0152949 0.00269998 0.0702914 -0.0499801 0.0882835 0.04 
553 1 1 0.890981 -0.633902 -0.960251 0 0 0 -1.49559e-05 4.80573e-05 4.68077e-06 -0.0156778 0.0115495 0.00682547 -0.00214513 0.00170517 -0.00266588 0.04 
260 1 1 -0.959951 -0.596329 -0.960245 0 0 0 -0.000129633 0.00334667 -0.000306211 -0.0792086 0.0518999 -0.0149745 -0.0818351 -6.82633e-05 -0.0261199 0.04 
565 1 1 -0.816985 -0.554227 -0.960253 0 0 0 -0.000249574 0.0027631 -9.88379e-05 0.056449 -0.0703356 0.00144147 -0.0714723 -0.00239896 -0.00332119 0.04 
1113 1 1 -0.702818 -0.549077 -0.9603 0 0 0 -0.000994701 0.000604622 -0.000201567 -0.0220111 -0.0546186 -0.0112101 -0.0103538 -0.0107788 -0.0207059 0.04 
925 1 1 -0.634971 -0.5912 -0.960151 0 0 0 -0.000966362 0.000857621 0.000357985 0.115234 -0.02723 -0.137501 0.00518563 -0.012038 0.034475 0.04 
893 1 1 -0.544601 -0.564779 -0.960168 0 0 0 0.0058204 0.0014142 0.00020001 0.0579436 0.0230671 -0.0557165 -0.0427725 0.146052 0.0987682 0.04 
1103 1 1 -0.456807 -0.558562 -0.960348 0 0 0 0.00816505 0.00472643 0.00056331 0.133916 -0.0116452 0.125834 -0.13331 0.209635 0.130562 0.04 
1448 1 1 -0.37997 -0.536464 -0.960115 0 0 0 0.00980839 -0.000932042 -0.00122874 0.0737705 -0.044707 -0.0924458 0.0090487 0.218028 -0.0828321 0.04 
631 1 1 -0.304421 -0.568839 -0.960241 0 0 0 0.00363583 0.00707467 -0.00331256 -0.107268 0.0685069 0.0480085 -0.158804 0.093228 -0.183938 0.04 
714 1 1 -0.228924 -0.595144 -0.960338 0 0 0 -0.0022889 -0.0028286 0.000284528 -0.209226 0.0886065 -0.0595758 -0.00729109 -0.00917954 0.0413763 0.04 
962 1 1 -0.165151 -0.547184 -0.960194 0 0 0 -0.00485308 -0.00473457 0.00178092 -0.337059 -0.053277 -0.301819 0.117892 -0.13321 -0.0904383 0.04 
950 1 1 -0.0896798 -0.573549 -0.960194 0 0 0 -0.0150343 -0.0282366 -0.000729355 0.0966361 -0.0772589 -0.0693008 0.67537 -0.403958 0.00937042 0.04 
716 1 1 0.00339144 -0.578112 -0.96023 0 0 0 -0.00466022 -0.0118057 0.00163222 0.170852 0.00517244 -0.0679987 0.281472 -0.130219 -0.0912251 0.04 
388 1 1 0.0817048 -0.593861 -0.960209 0 0 0 -0.00473463 -0.0106442 0.00215547 0.14723 0.140672 -0.110736 0.260321 -0.131675 0.134204 0.04 
867 1 1 0.205482 -0.542392 -0.960171 0 0 0 -0.00298085 -0.0070695 0.000176871 0.0766211 -0.0775641 0.138768 -0.0733741 -0.0089946 0.0162586 0.04 
576 1 1 0.32499 -0.56046 -0.960231 0 0 0 -0.00445259 -0.00619339 -0.000659814 -0.0247197 0.0767426 0.114464 0.163642 -0.106979 -0.0953225 0.04 
408 1 1 0.405194 -0.544058 -0.960206 0 0 0 -0.00115018 -0.00683958 -0.000678972 -0.0326339 -0.000193472 0.0368478 -0.0195531 -0.0401327 0.0379954 0.04 
1026 1 1 0.549869 -0.59921 -0.960231 0 0 0 -0.0116249 -0.002193 -0.000164984 -0.112834 0.0183336 0.01451 0.0195758 -0.171658 -0.150132 0.04 
1111 1 1 0.669678 -0.586682 -0.960201 0 0 0 0.0137657 -0.00105802 0.001327 0.0849606 -0.0420161 0.00151194 0.018368 0.33848 -0.0984849 0.04 
1138 1 1 0.738957 -0.54675 -0.960237 0 0 0 0.012394 -9.22103e-05 0.00014975 0.0219436 0.0172617 0.0127981 -0.0465999 0.198439 -0.240431 0.04 
58 1 1 0.813721 -0.574943 -0.960208 0 0 0 0.00510507 -0.0209953 6.93358e-05 0.00803816 -0.0346888 0.00599141 0.526277 0.127757 0.0692768 0.04 
1107 1 1 0.890865 -0.554035 -0.960216 0 0 0 -6.29299e-05 -9.53292e-05 -5.6756e-05 -0.0047171 -0.00119813 0.00572487 0.00140192 -0.000629211 0.00230136 0.04 
252 1 1 0.96013 -0.593905 -0.960187 0 0 0 7.42966e-06 -1.99094e-05 -1.70433e-05 -0.00919562 -0.00526735 0.00640718 -9.54899e-06 -0.000568111 0.000579589 0.04 
670 1 1 -0.960095 -0.516352 -0.960211 0 0 0 -0.000569967 0.00325894 -0.000167394 0.018181 0.0132936 0.0556975 -0.0855686 -0.00471844 0.0803855 0.04 
644 1 1 -0.76113 -0.49297 -0.96026 0 0 0 -0.000649707 0.00130442 -0.000170308 -0.0147019 -0.0189263 0.0349383 -0.0320298 -0.0158069 -0.0268198 0.04 
833 1 1 -0.684164 -0.471572 -0.960238 0 0 0 -0.000937854 0.000610116 -0.000619489 -0.0156582 -0.0221968 -0.0229022 -0.0161734 -0.0237653 -0.00193813 0.04 
435 1 1 -0.616133 -0.513568 -0.960296 0 0 0 -0.00149438 0.00121399 -0.00017209 -0.0028286 -0.0877285 -0.0152077 -0.0320475 -0.0390013 -0.0243752 0.04 
816 1 1 -0.501263 -0.492431 -0.96032 0 0 0 -0.00151091 -0.00078647 -0.000133432 -0.107912 -0.145315 0.0537961 -0.00465965 -0.0266845 0.0553769 0.04 
489 1 1 -0.317591 -0.486455 -0.96026 0 0 0 0.00794532 0.00195042 0.000575663 0.0870902 -0.0593529 0.00843861 -0.0438554 0.21174 0.168306 0.04 
883 1 1 -0.24372 -0.516747 -0.960199 0 0 0 0.00908298 0.000908279 0.000364186 -0.0921847 0.261012 -0.156976 0.00975182 -0.0218978 -0.305533 0.04 
305 1 1 -0.180017 -0.468674 -0.960203 0 0 0 0.0145787 -0.00403902 0.00230364 -0.203944 0.317257 -0.161694 -0.00355215 -0.0220203 0.0665264 0.04 
675 1 1 -0.104651 -0.494997 -0.960205 0 0 0 0.00655602 -0.0248052 -0.000173435 0.330355 0.175113 0.164042 0.502654 0.0910042 -0.205244 0.04 
1066 1 1 -0.0253224 -0.503617 -0.960306 0 0 0 0.00501702 -0.00962728 -0.00111728 0.294628 -0.038247 0.0698033 0.22205 0.0793731 0.146351 0.04 
143 1 1 0.0567141 -0.517906 -0.960117 0 0 0 -0.00449541 -0.0102352 -7.73942e-05 0.0983431 -0.0420213 -0.0394064 0.257084 -0.121599 -0.197287 0.04 
1346 1 1 0.15343 -0.481746 -0.96023 0 0 0 -0.00143848 -0.00424476 -0.000693899 -0.0611563 -0.0790497 -0.00389246 0.0950637 -0.0330573 -0.0559244 0.04 
1000 1 1 0.273017 -0.499701 -0.960245 0 0 0 -0.00445801 -0.0056734 4.93875e-05 0.0130921 -0.0333683 0.0861098 0.147606 -0.12335 -0.0483872 0.04 
792 1 1 0.351568 -0.484938 -0.960235 0 0 0 -0.00381675 -0.00817779 -2.44273e-05 0.0261462 -0.0455021 0.0395916 0.172483 -0.0956759 0.0382735 0.04 
1361 1 1 0.432059 -0.468797 -0.960203 0 0 0 -0.000136283 -0.00675674 0.00026674 -0.0251578 -0.0891292 0.00694368 0.17122 -0.00403953 0.0202681 0.04 
814 1 1 0.483838 -0.529985 -0.960262 0 0 0 -0.00144546 -0.00687324 0.000299581 -0.0330438 -0.0190629 -0.00471869 0.176392 -0.0350787 -0.0637326 0.04 
584 1 1 0.533181 -0.467253 -0.960205 0 0 0 0.00432675 -0.0112023 4.13659e-05 -0.0463107 -0.0751425 -0.0296275 0.188816 0.0685634 -0.0168228 0.04 
1288 1 1 0.585519 -0.527756 -0.960218 0 0 0 0.00595207 -0.00975356 -0.000360797 -0.0130143 -0.0295932 0.0031485 0.189403 0.16854 -0.118879 0.04 
908 1 1 0.669825 -0.506833 -0.960219 0 0 0 0.0107144 -0.000662563 -0.000584363 0.0428344 -0.0397664 0.0347484 -0.0477282 0.0958803 0.163403 0.04 
1309 1 1 0.798848 -0.493858 -0.960273 0 0 0 0.00980496 0.00264909 0.000138028 0.042133 0.0198842 -0.0305032 -0.0661494 0.245304 0.15863 0.04 
9 1 1 0.890904 -0.474143 -0.960181 0 0 0 -4.2702e-05 4.31442e-06 4.68482e-05 0.0226214 0.00530027 0.008945 0.000888927 -0.000602345 -0.00199321 0.04 
771 1 1 0.960107 -0.514024 -0.960225 0 0 0 -3.43598e-05 -3.36849e-05 1.06479e-05 -0.000940483 -0.00560138 -0.00718932 0.000957297 -0.00025542 0.000225222 0.04 
1055 1 1 -0.960056 -0.423842 -0.960206 0 0 0 -0.000971394 0.00896706 -0.00119631 -0.0571476 -0.626098 -0.154139 -0.255114 -0.0198995 0.0184359 0.04 
739 1 1 -0.890772 -0.463749 -0.960219 0 0 0 -0.00360125 0.00732414 0.00108987 0.0733755 -0.137062 0.0302425 -0.217646 -0.096516 -0.0415027 0.04 
1142 1 1 -0.821571 -0.423776 -0.960266 0 0 0 -0.00246931 0.00706695 -0.000537816 0.0593712 -0.126318 -0.0338093 -0.172961 -0.0656708 0.0513256 0.04 
613 1 1 -0.636362 -0.407796 -0.960396 0 0 0 -0.000401898 0.000239031 -0.000665269 0.0105413 -0.0600201 -0.0840267 -0.0205039 -0.0165236 -0.0154257 0.04 
620 1 1 -0.568373 -0.449457 -0.960155 0 0 0 -0.000520765 0.000752464 0.000113979 0.0804002 -0.166275 0.0347548 -0.00920993 -0.00497432 -0.00417927 0.04 
1316 1 1 -0.468906 -0.419522 -0.960332 0 0 0 0.000260662 -0.00208647 0.000733852 -0.0210281 -0.0285262 0.0227226 0.0409423 0.00554743 -0.122346 0.04 
344 1 1 -0.395084 -0.457917 -0.960203 0 0 0 0.0239365 0.000583328 0.000770434 0.0196347 0.0130716 -0.181993 0.00337438 0.614291 0.0829525 0.04 
247 1 1 -0.328286 -0.407265 -0.96029 0 0 0 0.00582773 0.00210019 0.00103324 0.161827 -0.0738654 0.00850543 -0.0317483 0.171564 -0.0990324 0.04 
382 1 1 -0.254309 -0.437495 -0.960276 0 0 0 0.00514762 0.000794592 0.000456305 -0.0263394 0.0345362 -0.136179 -0.030183 0.13628 0.0165602 0.04 
1271 1 1 -0.102803 -0.415094 -0.960323 0 0 0 -0.015115 -0.0272808 0.00184434 0.159621 0.0985642 0.113933 0.616223 -0.358728 0.325681 0.04 
1249 1 1 0.027414 -0.443514 -0.960243 0 0 0 0.00196904 -0.00800745 0.000192964 -0.0273126 -0.0866637 0.175825 0.194548 0.055867 0.0857937 0.04 
1030 1 1 0.103539 -0.419305 -0.960274 0 0 0 0.000119618 -0.00305537 -0.000926321 -0.0464692 0.0923875 0.0392155 0.00839924 -0.0295684 -0.00121433 0.04 
1148 1 1 0.220991 -0.439019 -0.960337 0 0 0 -0.00232141 -0.00337018 0.00157478 0.0263452 -0.0704772 0.00639305 0.0777384 -0.053705 0.0100034 0.04 
772 1 1 0.29956 -0.4243 -0.96022 0 0 0 -0.00155705 -0.00624425 -5.92296e-05 -0.0477891 -0.0567384 0.10428 0.101504 -0.0159418 -0.0629862 0.04 
845 1 1 0.378132 -0.409582 -0.960241 0 0 0 -0.00130857 -0.00845169 -0.000177924 -0.00705719 -0.123064 0.0474462 0.206893 -0.0261781 -0.042774 0.04 
1047 1 1 0.611611 -0.452329 -0.960196 0 0 0 0.00344279 -0.00798214 -4.05322e-05 -0.0152926 -0.0315844 0.0103572 0.0101394 -0.0325509 0.096239 0.04 
1474 1 1 0.687838 -0.429029 -0.960242 0 0 0 0.00104135 0.00165395 0.000182943 0.00557265 -0.00770358 -0.00786557 -0.0133806 0.0253912 0.0618862 0.04 
840 1 1 0.767053 -0.42058 -0.96022 0 0 0 0.00150603 -0.00116245 1.99062e-05 0.0135778 -0.00148151 -0.0202502 0.0030915 -0.00458744 -0.0186528 0.04 
852 1 1 0.960069 -0.434078 -0.960238 0 0 0 2.40428e-05 -3.97125e-05 6.33038e-05 -0.00409044 -0.00866146 -0.0224354 0.000625072 0.00142075 -0.000227361 0.04 
982 1 1 -0.960085 -0.343863 -0.960226 0 0 0 -4.26221e-05 0.00522048 -0.000184034 0.223865 -0.453579 0.101089 -0.122031 0.00688397 0.154701 0.04 
326 1 1 -0.890815 -0.383773 -0.960228 0 0 0 -0.000538228 0.00729417 0.000477616 0.0973795 -0.289265 -0.0438 -0.201226 -0.0053139 -0.0681535 0.04 
1215 1 1 -0.821559 -0.34373 -0.960207 0 0 0 -2.82214e-07 0.00769408 -0.000787728 0.153163 -0.061131 -0.150655 -0.207941 -0.0103389 -0.114647 0.04 
1246 1 1 -0.748716 -0.390906 -0.960138 0 0 0 -0.00474127 0.0112812 0.000459304 -0.0183721 0.034868 0.0208714 -0.283658 -0.120716 -0.00516862 0.04 
969 1 1 -0.68407 -0.34387 -0.960222 0 0 0 0.00201373 0.000972048 -0.00059348 0.0883857 -0.133798 -0.00710741 -0.0255513 0.0435684 -0.0330363 0.04 
230 1 1 -0.60488 -0.334596 -0.960261 0 0 0 0.00114718 -0.0004558 -0.000645217 0.10573 -0.0759866 -0.0201357 0.00644068 -0.046284 -0.00500284 0.04 
857 1 1 -0.53361 -0.372536 -0.960169 0 0 0 0.000430644 -0.0019468 4.61022e-05 -0.14546 0.0222179 -0.156594 0.0515819 0.00454748 -0.00421789 0.04 
92 1 1 -0.40185 -0.376335 -0.960239 0 0 0 0.00199355 -0.00417288 0.00110265 0.1685 -0.122854 0.0558099 0.0589408 0.0252088 0.0858323 0.04 
1124 1 1 -0.265186 -0.358264 -0.960274 0 0 0 0.00877211 0.000804195 0.000267182 0.109665 -0.0565941 0.00335448 -0.042709 0.222024 -0.0134644 0.04 
868 1 1 -0.190331 -0.389561 -0.960282 0 0 0 0.00841205 -0.00384033 -0.000580206 0.0869261 -0.0728619 -0.0270934 0.0523101 0.184816 -0.0996517 0.04 
1010 1 1 -0.126306 -0.338715 -0.960193 0 0 0 0.0021578 -0.0228888 0.00173286 -0.102319 0.365797 -0.225291 0.579633 0.0511692 -0.436432 0.04 
1223 1 1 -0.0216799 -0.373027 -0.960234 0 0 0 -0.000807758 -0.00698558 3.78538e-05 -0.0248854 -0.0848421 0.0865151 0.175465 -0.0162584 0.0148675 0.04 
144 1 1 0.0562034 -0.354941 -0.960204 0 0 0 -0.00166074 -0.00486188 -1.80594e-05 -0.0402698 -0.0642448 0.0595988 0.119287 -0.0471115 0.0527861 0.04 
315 1 1 0.168226 -0.372512 -0.960128 0 0 0 0.00089804 -0.00509254 8.96248e-06 0.0125132 -0.00900445 0.020986 0.0567944 0.0486112 -0.0416086 0.04 
1187 1 1 0.24764 -0.36365 -0.960242 0 0 0 0.000582276 -0.0047734 0.000206647 -0.00953658 -0.0879614 0.0662306 0.0703666 -0.00612534 -0.0507453 0.04 
220 1 1 0.326155 -0.348857 -0.96022 0 0 0 0.000840214 -0.00648656 0.000340777 0.00937276 -0.119847 0.0799071 0.155715 0.0305582 0.0141507 0.04 