ITEM: TIMESTEP
43400
ITEM: NUMBER OF ATOMS
1500
ITEM: BOX BOUNDS ff ff ff
-1 1
-1 1
-1 1
ITEM: ATOMS id type type x y z ix iy iz vx vy vz fx fy fz omegax omegay omegaz radius 
137 1 1 -0.957585 -0.960789 -0.960174 0 0 0 0.0222177 0.187482 -0.0170079 0.907596 26.99 4.8407 -0.411608 0.802584 -1.00474 0.04 
5 1 1 -0.874997 -0.959609 -0.955135 0 0 0 -0.0476058 0.0665091 0.148455 0 0 -6.57473 -0.6175 2.89524 -1.82222 0.04 
239 1 1 -0.792298 -0.960557 -0.953567 0 0 0 0.0308486 0.200613 -0.198314 -13.652 -10.286 -2.11033 -5.0344 1.99757 -1.69084 0.04 
415 1 1 -0.697779 -0.959325 -0.96059 0 0 0 -0.170176 0.04596 0.116124 1.54731 -0.252387 24.7805 0.392755 5.21868 -2.83878 0.04 
138 1 1 -0.532342 -0.958965 -0.961624 0 0 0 0.771221 -0.0563003 -0.0729944 -16.5673 -0.830479 8.23648 -0.622621 2.72885 -3.56362 0.04 
323 1 1 -0.43545 -0.959796 -0.960572 0 0 0 0.0500171 0.0884465 -0.166257 3.11868 -2.82287 -7.25768 1.34558 -0.503387 -1.98213 0.04 
130 1 1 -0.356065 -0.960924 -0.959893 0 0 0 0.0608321 0.169199 -0.0330015 1.50641 47.4195 -8.11668 -0.949213 0.0749815 0.720547 0.04 
502 1 1 -0.276604 -0.959761 -0.960291 0 0 0 0.239943 -0.0149782 -0.330451 9.21062 1.27096 3.63495 0.715507 0.0693583 0.220312 0.04 
494 1 1 -0.187666 -0.958072 -0.960202 0 0 0 -0.0297187 0.0456906 -0.296581 -7.90004 -12.2938 4.12734 0.608145 2.85634 -1.41234 0.04 
448 1 1 -0.105818 -0.958116 -0.960603 0 0 0 0.0214109 0.0361912 -0.167546 -0.0344202 -1.78754 29.1827 1.2849 0.496658 -0.587249 0.04 
147 1 1 -0.0249746 -0.960373 -0.960016 0 0 0 -0.0148257 -0.216239 -0.0264278 -77.1779 27.0306 -6.04987 -1.77541 1.29356 0.186411 0.04 
218 1 1 0.0529833 -0.959953 -0.960041 0 0 0 -0.234334 -0.0583241 -0.0914107 76.8565 -3.34708 -3.48818 -0.914865 0.810163 -0.361657 0.04 
655 1 1 0.133617 -0.952207 -0.960731 0 0 0 0.0144318 0.0419639 -0.175928 -0.130453 -1.97869 36.4407 -1.0298 0.361455 1.65692 0.04 
339 1 1 0.218454 -0.960797 -0.957466 0 0 0 -0.341685 0.125391 -0.0549614 -7.77341 27.959 -6.21977 0.14634 -2.73482 -0.664518 0.04 
341 1 1 0.33687 -0.941793 -0.95733 0 0 0 -0.347018 0.181888 -0.260556 4.84087 1.27045 -11.8029 -3.86998 -3.75233 3.65573 0.04 
203 1 1 0.430935 -0.95935 -0.953503 0 0 0 -0.417661 0.0464915 -0.156195 0 0 -6.57473 1.41028 -12.5218 3.29268 0.04 
1019 1 1 0.522216 -0.957001 -0.948669 0 0 0 -0.392655 0.0848292 -0.0271789 9.74516 -13.3205 -4.93028 -2.4778 1.86697 -2.46631 0.04 
821 1 1 0.614409 -0.959412 -0.957773 0 0 0 -0.347163 0.00761641 0.51838 0 0 -6.57473 -1.92826 -1.96663 4.22291 0.04 
636 1 1 0.701684 -0.958256 -0.958792 0 0 0 -0.116091 -0.233161 0.0555824 -27.0374 -11.2305 -42.439 -3.55634 2.24983 1.48053 0.04 
729 1 1 0.783966 -0.957542 -0.962918 0 0 0 0.505815 -0.0128067 -0.270086 24.5895 -14.8942 102.79 -1.59802 -2.20917 -0.919402 0.04 
503 1 1 0.875765 -0.960057 -0.962534 0 0 0 0.261868 -0.119552 -0.570808 -25.3057 5.40261 116.163 1.64472 -2.0182 4.71237 0.04 
918 1 1 -0.955866 -0.881061 -0.960356 0 0 0 0.0401937 -0.454529 0.059267 -0.168709 15.015 11.9363 0.117849 1.00977 2.16516 0.04 
246 1 1 -0.844882 -0.883531 -0.960168 0 0 0 -0.199613 0.010604 -0.259798 0.611525 -0.170991 6.12489 1.71119 2.06959 -2.99592 0.04 
586 1 1 -0.762706 -0.88784 -0.961409 0 0 0 0.323329 -0.0641686 0.0225475 10.4036 38.7852 65.9334 2.01635 1.66208 -0.327835 0.04 
379 1 1 -0.678464 -0.874555 -0.958996 0 0 0 0.295277 -0.0692319 -0.150479 -6.29211 14.6631 -24.2154 5.0203 3.90475 1.64162 0.04 
105 1 1 -0.607883 -0.921708 -0.959162 0 0 0 0.0585734 -0.224352 -0.021535 -1.61231 1.91058 -10.1148 -0.986125 2.55999 0.927434 0.04 
52 1 1 -0.483753 -0.893044 -0.960792 0 0 0 0.0681037 0.0496182 -0.0770167 1.59213 1.59768 38.5362 -3.45947 3.91839 -0.112735 0.04 
209 1 1 -0.328276 -0.885028 -0.959774 0 0 0 -0.172501 0.212753 0.127773 0 0 -6.57473 -3.40115 3.98807 1.19281 0.04 
647 1 1 -0.238817 -0.884237 -0.957984 0 0 0 0.194797 -0.0654813 0.290997 0 0 -6.57473 1.46991 2.0589 -2.47272 0.04 
700 1 1 -0.148309 -0.888816 -0.958717 0 0 0 0.556285 -0.468759 0.15446 42.2379 16.122 -66.7936 0.528061 -1.99357 4.55155 0.04 
616 1 1 -0.066705 -0.888299 -0.959015 0 0 0 -0.0577542 0.0783904 -0.0736487 -2.72214 -26.3959 -5.5508 0.992126 1.5839 2.27817 0.04 
827 1 1 0.0115869 -0.874594 -0.961254 0 0 0 0.0664166 0.208716 0.26434 47.7131 -23.8368 12.3253 -5.49647 0.308241 0.509404 0.04 
784 1 1 0.10579 -0.866274 -0.961094 0 0 0 -0.0724541 0.183594 -0.192781 13.0215 -5.5505 36.3032 -0.0411771 -2.55913 7.43684 0.04 
211 1 1 0.185493 -0.87229 -0.961217 0 0 0 -0.122569 -0.0703025 0.339964 1.23123 6.5073 56.6134 -0.502265 -3.7242 -1.12486 0.04 
19 1 1 0.265622 -0.896803 -0.95879 0 0 0 0.0556029 -0.133945 -0.0453795 5.02845 11.3419 -14.6422 2.68309 0.245658 -0.904055 0.04 
664 1 1 0.47554 -0.892711 -0.952603 0 0 0 -0.0947762 0.329109 -0.0956604 -9.74516 13.3205 -8.21917 -3.7885 -3.88118 -6.98438 0.04 
396 1 1 0.570349 -0.877659 -0.960019 0 0 0 -0.100231 0.142639 0.400998 0.130775 -0.160089 -10.709 -0.691599 -0.157594 0.621073 0.04 
50 1 1 0.655282 -0.878809 -0.959982 0 0 0 0.0549511 0.380716 0.274556 0 0 -6.57473 -2.87588 -0.0220585 -3.00085 0.04 
742 1 1 0.738643 -0.879896 -0.952192 0 0 0 0.229019 0.235761 -0.110056 -7.80945 56.0157 -59.1174 -5.21554 -5.21328 2.12722 0.04 
554 1 1 0.826105 -0.887972 -0.960554 0 0 0 -0.525399 -0.0316187 -0.162052 18.8431 -29.8001 -26.9905 0.240354 0.809329 0.193055 0.04 
850 1 1 0.959889 -0.926548 -0.959869 0 0 0 -0.0172538 0.0961023 -0.014938 0 0 -6.57473 0.338441 2.43937 0.0108458 0.04 
446 1 1 -0.893123 -0.813823 -0.960022 0 0 0 0.261354 0.0654995 0.0826601 -0.00667569 -0.000132062 -6.44119 -1.50529 -0.169284 0.922612 0.04 
894 1 1 -0.812453 -0.801113 -0.96008 0 0 0 0.291825 0.0945097 0.0421649 -0.194317 -0.013283 -2.67933 -1.65006 -3.15752 -2.51658 0.04 
960 1 1 -0.728979 -0.808495 -0.952918 0 0 0 0.0318216 0.0651229 0.191095 0 0 -6.57473 4.63431 2.62033 0.523116 0.04 
290 1 1 -0.629165 -0.808359 -0.959944 0 0 0 -0.190523 0.138045 -0.082644 3.88504 -12.3516 -15.9506 -2.76809 1.53211 0.552499 0.04 
380 1 1 -0.553065 -0.832033 -0.956242 0 0 0 -0.238021 0.0477226 0.16338 -0.46574 -24.5514 -28.259 -4.91447 2.00443 -0.456633 0.04 
241 1 1 -0.474331 -0.808565 -0.959059 0 0 0 0.138867 0.357783 -0.135556 0 0 -6.57473 0.42039 1.8911 0.561244 0.04 
480 1 1 -0.409088 -0.855198 -0.960341 0 0 0 0.107424 0.294065 -0.308068 0.0236368 -1.15059 16.442 -3.50888 2.77541 -0.785852 0.04 
322 1 1 -0.29476 -0.811779 -0.960337 0 0 0 0.318339 0.153591 -0.284883 21.2672 5.06438 -12.1372 -1.37543 -3.96619 3.49419 0.04 
385 1 1 -0.104205 -0.818407 -0.960462 0 0 0 0.128124 -0.217558 -0.0271528 -14.5968 24.5767 19.8267 1.42796 0.475332 0.456215 0.04 
725 1 1 0.249615 -0.807251 -0.960163 0 0 0 0.147198 0.0578186 -0.0376317 -0.478717 -0.0311464 3.01986 -1.07253 -2.0896 3.67302 0.04 
354 1 1 0.335178 -0.862256 -0.940852 0 0 0 0.149134 0.0556044 -0.354968 -0.11071 -9.27772 -3.93729 0.158035 2.05045 2.92085 0.04 
159 1 1 0.412235 -0.840625 -0.957816 0 0 0 0.110879 0.579965 -0.0729658 0 0 -6.57473 -2.86719 -2.76055 1.93538 0.04 
866 1 1 0.613809 -0.803999 -0.937361 0 0 0 -0.142348 0.284511 0.254256 0 0 -6.57473 -3.82708 -0.0509082 3.38227 0.04 
439 1 1 0.802557 -0.805697 -0.959165 0 0 0 -0.0190814 0.201415 0.117639 -0.195516 1.49121 -8.96383 -2.22688 -2.87204 0.552733 0.04 
188 1 1 0.891703 -0.796984 -0.961458 0 0 0 -0.0179891 0.372982 -0.205699 -0.869928 -4.10546 77.3576 -3.59924 -1.70571 -1.68172 0.04 
972 1 1 0.960251 -0.841215 -0.96061 0 0 0 0.0277623 0.215779 -0.0476287 -14.013 -6.55495 20.9857 -0.828976 0.335456 -1.87246 0.04 
488 1 1 -0.960785 -0.75945 -0.959064 0 0 0 -0.0126223 -0.105372 0.136847 43.6644 4.54643 -15.7083 -1.2569 -0.463088 4.12281 0.04 
1127 1 1 -0.578996 -0.741988 -0.957236 0 0 0 -0.347511 -0.0581217 -0.362505 3.41863 1.40828 -5.79688 -0.747748 -1.09929 1.20685 0.04 
511 1 1 -0.366262 -0.77113 -0.959529 0 0 0 0.220049 0.219607 0.113354 -15.5303 -17.2444 -14.9375 -3.84298 3.78114 1.57767 0.04 
873 1 1 -0.22433 -0.749878 -0.960768 0 0 0 -0.150428 0.489167 0.122869 -20.8798 -19.6134 4.35698 -7.37801 -0.265842 1.98205 0.04 
204 1 1 -0.0269152 -0.778118 -0.959686 0 0 0 0.207879 0.0754821 0.00238636 16.0098 -7.3301 -24.7538 -4.54032 0.379554 0.833796 0.04 
1122 1 1 0.0894477 -0.788066 -0.96111 0 0 0 -0.456745 0.0860834 0.117851 -34.4203 11.4562 36.7474 -0.771686 -1.33729 -4.93121 0.04 
773 1 1 0.168394 -0.794141 -0.961086 0 0 0 -0.41673 0.374419 0.0234625 32.7849 -9.3185 54.5396 -0.314658 -2.11338 1.86474 0.04 
967 1 1 0.327327 -0.786097 -0.961533 0 0 0 -0.191533 0.397022 0.0383051 -2.38626 18.1346 71.0749 -4.94502 -5.14197 2.42538 0.04 
656 1 1 0.411635 -0.754796 -0.958117 0 0 0 -0.357351 -0.0619383 -0.166983 0 0 -6.57473 -2.06141 -0.587815 -0.515411 0.04 
451 1 1 0.495891 -0.748559 -0.948415 0 0 0 0.29345 0.479344 -0.257605 -2.4494 6.3296 -8.68319 -9.91242 -0.321078 -0.177364 0.04 
880 1 1 0.681688 -0.735643 -0.95907 0 0 0 -0.544187 0.434945 -0.104231 26.6841 16.123 -115.525 -1.55158 0.731073 -2.15152 0.04 
543 1 1 0.762429 -0.731266 -0.959801 0 0 0 -0.162364 0.460055 -0.292321 0 0 -6.57473 0.399236 0.683731 -2.31854 0.04 
987 1 1 0.960628 -0.749501 -0.959447 0 0 0 -0.0310974 0.202011 0.165374 -34.584 -0.940796 -8.0256 -0.656034 -1.59735 -1.33032 0.04 
532 1 1 -0.895863 -0.711585 -0.960053 0 0 0 -0.0328066 0.132954 -0.0638435 -14.4018 -23.9037 -2.24018 -1.20313 -2.62625 0.918091 0.04 
826 1 1 -0.810655 -0.715548 -0.961933 0 0 0 -0.583347 0.306112 -0.0899166 -57.9903 36.2116 35.7128 -5.41925 -8.34045 -2.15122 0.04 
567 1 1 -0.718369 -0.694853 -0.957737 0 0 0 -0.0366003 0.295597 -0.221912 5.6894 -0.644469 -17.3507 -3.60061 2.88196 1.58902 0.04 
925 1 1 -0.636145 -0.678599 -0.958212 0 0 0 -0.371691 0.621075 0.155487 0 0 -6.57473 -3.12378 2.16487 -6.06048 0.04 
375 1 1 -0.506521 -0.710633 -0.944454 0 0 0 0.114441 0.148909 -0.154205 -26.0898 -67.801 10.833 -8.1334 1.51066 0.33887 0.04 
709 1 1 -0.396991 -0.69766 -0.959373 0 0 0 0.00375336 0.398725 0.36885 -4.2358 10.6459 -7.08902 -3.71462 0.479412 -2.61479 0.04 
631 1 1 -0.305227 -0.720377 -0.958199 0 0 0 0.237686 0.348942 -0.0115977 16.4068 14.2094 -7.20419 -3.9696 0.276158 2.69568 0.04 
883 1 1 -0.234124 -0.66333 -0.960446 0 0 0 -0.0318514 0.374255 0.240777 -10.0085 21.4345 -16.4452 -8.76152 -0.6623 0.429284 0.04 
962 1 1 -0.156132 -0.711441 -0.950453 0 0 0 -0.133244 0.279401 -0.0239644 32.9718 20.4944 -2.487 -7.74635 1.7373 0.395089 0.04 
950 1 1 -0.0762054 -0.691092 -0.959894 0 0 0 0.0247348 0.437442 0.050188 2.05761 30.1649 -33.7404 -6.28102 1.0321 -1.41611 0.04 
581 1 1 0.0427205 -0.722739 -0.960547 0 0 0 0.175164 0.498349 -0.170082 -0.312186 -1.7085 25.9494 -4.74603 3.22774 -2.66107 0.04 
1088 1 1 0.133121 -0.717791 -0.951991 0 0 0 -0.13903 0.355051 -0.574714 0 0 -6.57473 2.78221 -6.79745 -1.39368 0.04 
862 1 1 0.215889 -0.722214 -0.95907 0 0 0 0.12356 0.3683 0.0815288 2.33115 2.57837 -19.9333 -1.15251 0.320113 -2.92711 0.04 
1052 1 1 0.304053 -0.7006 -0.960785 0 0 0 -0.0965244 0.46119 0.169226 0.00183292 -2.07752 34.9757 -2.26878 -2.42927 7.66475 0.04 
1082 1 1 0.48829 -0.666824 -0.959121 0 0 0 -0.659433 -0.0368041 0.51517 0 0 -6.57473 3.52165 -5.69739 -3.88918 0.04 
177 1 1 0.577927 -0.727911 -0.957793 0 0 0 -0.514767 -0.169019 0.0171619 2.80168 -16.7865 -7.15413 -8.74268 1.92046 7.0193 0.04 
58 1 1 0.820937 -0.666169 -0.960283 0 0 0 -0.0771107 0.317106 0.290199 -0.00448947 -0.0536322 5.09738 -1.2721 -0.523925 2.89343 0.04 
553 1 1 0.899715 -0.696049 -0.958947 0 0 0 0.0799614 0.205696 0.17509 0 0 -6.57473 -2.54222 1.89948 -1.23307 0.04 
670 1 1 -0.959918 -0.600292 -0.960151 0 0 0 -0.0275518 0.211646 0.242777 0.118308 -0.233903 -1.33231 -3.32463 0.310033 -0.585901 0.04 
990 1 1 -0.857913 -0.642077 -0.959488 0 0 0 -0.140104 0.480463 0.0180415 14.2805 23.7602 -7.15127 -1.60736 0.597806 0.405903 0.04 
565 1 1 -0.777203 -0.642006 -0.960635 0 0 0 -0.120048 0.242234 0.217174 -22.243 20.0299 23.2823 -2.75545 -0.0123921 -1.29238 0.04 
435 1 1 -0.621926 -0.595352 -0.960152 0 0 0 0.274069 0.507287 0.0306598 -0.263635 -0.30596 1.50277 -4.02203 -0.61822 -2.33199 0.04 
893 1 1 -0.560707 -0.647481 -0.960276 0 0 0 0.107437 0.265326 -0.191981 -71.9626 -10.5096 -9.33091 -2.29463 -0.447992 -2.54902 0.04 
816 1 1 -0.482938 -0.637861 -0.960444 0 0 0 -0.138334 -0.44187 -0.32618 71.0551 93.0199 -23.6425 -3.62589 0.122432 0.687475 0.04 
382 1 1 -0.309971 -0.607473 -0.963109 0 0 0 0.416759 0.655316 0.761111 62.2088 -13.8912 113.347 -11.1439 -1.29563 0.255793 0.04 
1066 1 1 -0.108 -0.610519 -0.95991 0 0 0 0.312467 0.409425 0.20798 -54.4745 18.1729 -54.5841 -7.12282 2.60188 -1.09135 0.04 
143 1 1 0.0241119 -0.59121 -0.958927 0 0 0 0.0213272 0.78184 -0.0506007 0 0 -6.57473 -7.16383 5.17091 2.10164 0.04 
388 1 1 0.0925676 -0.643305 -0.957656 0 0 0 0.273545 0.534433 -0.0671649 0 0 -6.57473 -3.36109 2.88503 -3.51201 0.04 
867 1 1 0.251804 -0.638056 -0.948809 0 0 0 -0.402401 -0.189399 -0.130549 0.871162 -47.2463 -3.3808 2.07126 1.2231 2.3232 0.04 
1000 1 1 0.323073 -0.590335 -0.955319 0 0 0 0.510037 0.301494 0.00601599 96.7089 -81.3103 -3.7049 -6.57828 -1.31394 3.31497 0.04 
576 1 1 0.387572 -0.642251 -0.959848 0 0 0 -0.744016 0.521856 0.0496233 2.47942 6.47422 -11.965 -0.146694 -2.73786 4.31663 0.04 
255 1 1 0.568763 -0.648993 -0.95472 0 0 0 -0.166007 0.0391793 -0.368721 -35.6371 30.6334 -21.4655 -2.34273 -2.74451 -2.43506 0.04 
1111 1 1 0.70009 -0.634842 -0.958385 0 0 0 0.513385 0.139837 0.540665 0 0 -6.57473 -1.98157 3.48305 0.200455 0.04 
1107 1 1 0.882857 -0.604732 -0.957699 0 0 0 0.140914 0.647846 0.0763239 10.1983 -10.6036 -17.6538 -6.536 -2.86464 2.70201 0.04 
252 1 1 0.95747 -0.639252 -0.958643 0 0 0 -0.411956 0.303394 -0.115646 14.5028 -28.5013 -44.0709 1.70222 -0.295113 -1.01884 0.04 
739 1 1 -0.874523 -0.559969 -0.960118 0 0 0 -0.171829 0.19795 -0.0275663 0.321669 14.675 -27.5522 -2.21456 -1.34496 0.700303 0.04 
1142 1 1 -0.783357 -0.545026 -0.960851 0 0 0 0.0265581 0.356709 0.184184 0.229373 -2.24126 38.4846 -6.9404 0.884792 -0.48342 0.04 
833 1 1 -0.701721 -0.552948 -0.959954 0 0 0 -0.0527396 0.580538 -0.1049 -4.84524 32.7173 -25.2635 -4.90951 -0.686145 -3.92536 0.04 
620 1 1 -0.544695 -0.547535 -0.954286 0 0 0 0.263385 0.163692 -0.703592 0 0 -6.57473 2.40879 0.525012 5.99767 0.04 
344 1 1 -0.383732 -0.584691 -0.963144 0 0 0 -0.624134 0.317763 0.224213 -82.5464 29.9049 167.965 -4.08895 -4.55631 7.75099 0.04 
1124 1 1 -0.254961 -0.549896 -0.959496 0 0 0 0.275189 0.75108 -0.235335 7.8193 7.79461 -5.58978 -7.7798 0.413772 -3.23916 0.04 
868 1 1 -0.162775 -0.532029 -0.961006 0 0 0 0.25378 0.459854 0.424036 29.0561 19.7871 -10.036 -4.35379 2.2796 4.05337 0.04 
1271 1 1 -0.0595927 -0.546395 -0.954378 0 0 0 0.359184 0.0272777 -0.689813 -21.6922 -4.54965 -50.2905 -1.93517 -4.51003 0.343754 0.04 
1030 1 1 0.100834 -0.537286 -0.95352 0 0 0 -0.0621896 0.56953 -0.136464 0 0 -6.57473 -6.37692 2.7028 -5.03844 0.04 
1346 1 1 0.176775 -0.574529 -0.962189 0 0 0 0.834496 0.427545 -0.0349851 -61.5119 -12.702 92.6955 -2.72793 0.797682 3.43429 0.04 
1148 1 1 0.252739 -0.559451 -0.950992 0 0 0 0.0466116 0.186242 0.584543 -32.9003 107.209 -2.19298 -3.53649 1.60176 1.35934 0.04 
792 1 1 0.418406 -0.536679 -0.955354 0 0 0 -0.199596 0.38521 -0.0710826 0 0 -6.57473 -8.09336 3.24368 -3.00272 0.04 
408 1 1 0.481772 -0.587087 -0.954859 0 0 0 -0.318082 0.717016 0.233351 -11.3901 -52.7147 -35.5183 -2.99851 -4.42907 -2.08771 0.04 
1361 1 1 0.558393 -0.548382 -0.959865 0 0 0 -0.399811 0.294741 0.207485 8.54812 -3.89881 -12.317 -4.52532 -8.87096 -4.56495 0.04 
814 1 1 0.633122 -0.589129 -0.953686 0 0 0 0.0197965 0.140206 0.194137 0 0 -6.57473 -2.17129 -4.56307 4.08169 0.04 
771 1 1 0.957474 -0.553756 -0.961094 0 0 0 -0.175801 -0.12703 -0.0492947 2.34872 1.99298 55.0319 -1.86697 1.53887 3.77241 0.04 
1055 1 1 -0.958755 -0.518676 -0.960044 0 0 0 -0.104935 0.266328 0.0745741 0.0361565 -0.0653042 -5.08182 -4.54579 -1.45321 0.536459 0.04 
326 1 1 -0.862852 -0.474064 -0.956301 0 0 0 0.00160171 0.300512 -0.172493 0 0 -6.57473 -2.10136 -1.06899 -2.30669 0.04 
1246 1 1 -0.736574 -0.47672 -0.957605 0 0 0 0.073271 0.41745 -0.322842 0 0 -6.57473 -4.52537 -3.0432 4.73377 0.04 
613 1 1 -0.625666 -0.508742 -0.960303 0 0 0 0.0195788 0.647777 0.340893 0.170865 -0.600765 5.91709 1.55022 5.55603 2.74474 0.04 
230 1 1 -0.557419 -0.45921 -0.95981 0 0 0 0.148322 0.653771 -0.0550928 0 0 -6.57473 -7.37941 3.85643 2.26087 0.04 
857 1 1 -0.476244 -0.50169 -0.958745 0 0 0 -0.12181 0.675135 -0.108259 0 0 -6.57473 -6.56415 0.373789 -6.33675 0.04 
247 1 1 -0.328593 -0.520296 -0.939087 0 0 0 0.260857 0.414137 0.510457 0 0 -6.57473 -1.38591 -0.253266 6.3614 0.04 
1155 1 1 -0.26596 -0.464466 -0.956073 0 0 0 0.142442 0.916969 -0.557475 0 0 -6.57473 -0.19341 1.92925 2.93548 0.04 
1010 1 1 -0.102297 -0.472332 -0.954812 0 0 0 0.0546439 0.336065 -0.386583 0 0 -6.57473 -1.73164 2.49904 -0.883123 0.04 
1249 1 1 0.0131531 -0.510122 -0.959519 0 0 0 0.0104653 0.171193 0.139301 0 0 -6.57473 -4.32152 0.0959324 1.23362 0.04 
315 1 1 0.201493 -0.498108 -0.95879 0 0 0 0.167531 0.134067 0.188853 0 0 -6.57473 -3.02251 2.19695 -2.62746 0.04 
772 1 1 0.328612 -0.511676 -0.959714 0 0 0 0.207939 0.501636 0.0179714 6.70952 25.4178 -9.84734 -3.34431 -1.36048 0.496417 0.04 
677 1 1 0.444747 -0.46098 -0.960407 0 0 0 -0.704711 0.707591 -0.184147 0.723219 -1.02469 18.5094 6.12224 -0.837446 5.72237 0.04 
1047 1 1 0.636735 -0.507894 -0.950304 0 0 0 -0.111957 0.0960417 0.142945 -1.32813 -0.808102 -6.37444 -3.7761 -2.11123 -0.569878 0.04 
840 1 1 0.786233 -0.472966 -0.951858 0 0 0 -0.0592345 0.417216 -0.635213 0 0 -6.57473 -6.65116 -2.35771 1.86607 0.04 
9 1 1 0.873468 -0.512296 -0.959816 0 0 0 0.380046 0.116883 0.0342921 6.81774 9.4254 -16.8666 -5.60113 3.39742 -2.65976 0.04 
852 1 1 0.940937 -0.462605 -0.954858 0 0 0 -0.0379322 0.320193 -0.00524021 -5.71098 -59.7306 -0.710388 -0.207188 3.7926 -1.22272 0.04 
982 1 1 -0.955032 -0.438301 -0.952986 0 0 0 0.126912 0.382622 -0.494569 0 0 -6.57473 0.914329 -2.47259 4.70168 0.04 
995 1 1 -0.888519 -0.39872 -0.9268 0 0 0 -0.139361 -0.0773345 0.287291 -18.8069 -31.6707 -60.2782 -1.37321 -0.0595561 0.889592 0.04 
1215 1 1 -0.793447 -0.41613 -0.958583 0 0 0 -0.308223 0.0627812 0.151254 0 0 -6.57473 -10.5821 2.78388 5.09813 0.04 
969 1 1 -0.658194 -0.435276 -0.960331 0 0 0 0.0112688 0.340135 0.140587 -5.1968 -3.68538 5.77101 -3.67574 -0.671912 1.38759 0.04 
978 1 1 -0.341595 -0.436885 -0.950485 0 0 0 -0.303062 0.166289 -0.319698 31.325 6.42303 -19.2573 -6.11099 0.660484 -2.09889 0.04 
168 1 1 -0.212778 -0.39521 -0.959841 0 0 0 -0.365455 0.765171 0.570511 0 0 -6.57473 -14.4201 -2.48726 -8.84915 0.04 
201 1 1 -0.029504 -0.406641 -0.958511 0 0 0 0.0883375 0.424045 0.0630017 1.3303 12.2239 -17.6173 -4.20992 -1.40276 4.71656 0.04 
404 1 1 0.147295 -0.433897 -0.956645 0 0 0 0.192334 0.208921 0.108805 -10.1834 11.6106 -46.647 -4.35749 -0.0361289 2.85259 0.04 
1187 1 1 0.3 -0.437376 -0.961376 0 0 0 -0.517181 0.538261 -0.0599786 13.3833 -56.3555 66.0032 -3.05707 -2.32703 3.08744 0.04 
981 1 1 0.548513 -0.452169 -0.960772 0 0 0 0.0931351 -0.133588 0.189731 11.3058 -33.9709 21.3351 -6.01292 -1.82867 -5.94176 0.04 
361 1 1 0.619098 -0.415648 -0.953948 0 0 0 -0.0621062 0.331102 0.28918 5.2848 7.14755 -15.8628 -6.78138 -3.6201 -1.40267 0.04 
1474 1 1 0.702545 -0.463362 -0.959408 0 0 0 -0.263536 0.160792 0.368191 1.32813 0.808102 -6.77501 -4.78438 -6.48668 -4.83502 0.04 
657 1 1 -0.949941 -0.344415 -0.95843 0 0 0 0.154897 -0.0917179 0.0206197 -2.27903 -1.08583 -25.0154 -0.480712 2.27902 -0.101381 0.04 
1279 1 1 -0.807599 -0.33452 -0.960633 0 0 0 -0.103186 0.353103 -0.335984 -37.7202 30.4042 -99.8628 -1.88381 4.55406 -4.35041 0.04 
76 1 1 -0.728747 -0.368347 -0.960932 0 0 0 0.18493 0.182394 0.224947 -2.43072 -0.31513 42.4464 -3.5547 -3.50171 -1.84387 0.04 
905 1 1 -0.650912 -0.342023 -0.960688 0 0 0 0.0700744 -0.000661158 0.18163 -0.556097 1.71046 29.397 -1.43837 1.29587 -2.40072 0.04 
1037 1 1 -0.539077 -0.380121 -0.961124 0 0 0 -0.473325 0.78463 0.439709 28.9476 6.15721 30.1222 -10.3235 -3.94474 -0.58436 0.04 
116 1 1 -0.444891 -0.395181 -0.958684 0 0 0 0.24901 0.136713 -0.0142138 -46.6074 -19.586 -8.7751 -9.54546 0.415843 0.970526 0.04 
1205 1 1 -0.373147 -0.363645 -0.951554 0 0 0 -0.202022 0.276707 0.267327 40.5198 20.324 -3.49829 -9.19818 -2.33919 0.525608 0.04 
1451 1 1 -0.118944 -0.375654 -0.960232 0 0 0 -0.0509969 0.434363 0.153997 0.106984 -0.537091 4.37812 -2.83223 0.326604 6.99687 0.04 
1378 1 1 0.0355846 -0.348773 -0.960193 0 0 0 0.0651642 0.127515 0.397832 -0.0921852 -1.90912 -6.26875 -5.19658 1.8478 -1.23976 0.04 
1216 1 1 0.204531 -0.379339 -0.953783 0 0 0 0.137765 0.14449 0.00807046 17.7893 37.1641 -18.743 -3.96656 0.564825 -2.0627 0.04 
780 1 1 0.284062 -0.360855 -0.957871 0 0 0 -0.139582 0.502264 -0.0126767 1.01274 42.0834 -5.07481 -6.79525 1.74855 -1.85527 0.04 
220 1 1 0.385327 -0.382551 -0.957523 0 0 0 -0.140857 0.385185 0.214214 0 0 -6.57473 -10.1601 -3.53153 -5.60232 0.04 
309 1 1 0.510914 -0.385947 -0.940307 0 0 0 0.197268 0.564598 -0.591748 -19.3719 32.5188 5.47961 -3.69806 -8.56548 -2.57089 0.04 
342 1 1 0.629762 -0.336341 -0.943879 0 0 0 -0.234179 0.477832 -0.191366 -33.2864 19.8161 -75.2854 -6.97983 4.59995 -1.79253 0.04 
764 1 1 0.710521 -0.384144 -0.93937 0 0 0 0.543006 -0.215325 -0.752619 -52.4103 18.5414 -111.953 7.84195 -1.68019 5.43036 0.04 
1163 1 1 0.784649 -0.343548 -0.95347 0 0 0 0.40567 0.0819715 0.137168 0 0 -6.57473 -10.1264 -0.104457 6.24756 0.04 
182 1 1 0.860945 -0.371536 -0.960725 0 0 0 -0.14178 0.589968 -0.465142 0.410462 -2.28601 39.8766 5.47624 0.0791146 -3.71163 0.04 
975 1 1 0.947251 -0.384676 -0.96055 0 0 0 -0.304076 0.180695 -0.177717 1.96421 9.54867 21.0257 -4.29302 2.06196 6.96157 0.04 
1056 1 1 -0.881015 -0.303858 -0.937887 0 0 0 -0.136102 0.422911 -0.0721813 -0.281171 -0.16273 -6.64566 1.8252 5.63115 -5.283 0.04 
1286 1 1 -0.570162 -0.304361 -0.958411 0 0 0 0.173415 0.187932 0.138544 0 0 -6.57473 -6.24241 0.52183 -8.50592 0.04 
945 1 1 -0.434093 -0.304429 -0.960135 0 0 0 -0.264119 -0.209458 0.320062 -3.25581 -8.00415 -2.49764 -7.57111 -0.974107 -4.69582 0.04 
1063 1 1 -0.346209 -0.289272 -0.962274 0 0 0 -0.467015 0.180433 0.247035 7.32709 3.11914 115.521 0.208797 -6.54158 5.79445 0.04 
1202 1 1 -0.267105 -0.30051 -0.956809 0 0 0 -0.34957 0.0196245 0.428064 0 0 -6.57473 -2.51126 -9.64322 -3.26755 0.04 
128 1 1 -0.175282 -0.308799 -0.957862 0 0 0 -0.270779 0.245225 0.163641 0 0 -6.57473 -2.55705 -6.63351 -1.35854 0.04 
1348 1 1 -0.0598817 -0.312722 -0.961192 0 0 0 -0.217562 0.406597 0.388193 1.74849 -1.31406 54.827 -10.8822 -6.18683 -1.35454 0.04 
807 1 1 0.0527822 -0.264121 -0.959652 0 0 0 0.154316 0.631263 -0.140099 0 0 -6.57473 -3.04491 4.03075 0.677534 0.04 
1201 1 1 0.149654 -0.317234 -0.954325 0 0 0 -0.0215811 0.298331 -0.456141 -1.04043 -67.8343 -84.285 -4.48513 2.34679 3.76058 0.04 
1139 1 1 0.239077 -0.295587 -0.960374 0 0 0 0.441406 0.605691 -0.333993 -17.3256 22.9561 1.60767 -1.31915 -6.00951 -3.88598 0.04 
1069 1 1 0.344685 -0.308443 -0.962222 0 0 0 -0.253108 0.433761 0.354062 2.34829 -5.47904 112.647 4.9464 0.390854 3.22607 0.04 
624 1 1 0.469275 -0.316301 -0.95819 0 0 0 0.0742409 -0.0502579 0.120132 0 0 -6.57473 -3.42505 7.26693 1.16643 0.04 
1336 1 1 0.79335 -0.263533 -0.959291 0 0 0 -0.250145 0.70012 -0.268089 0 0 -6.57473 -12.9616 0.61428 -7.6933 0.04 
915 1 1 0.959022 -0.306915 -0.959362 0 0 0 0.181577 -0.0269446 -0.0880779 5.39402 50.1489 -7.08779 -0.862722 -1.18021 -6.79286 0.04 
1239 1 1 -0.957633 -0.26309 -0.961115 0 0 0 0.0905956 0.391371 -0.210554 -2.11344 -5.97518 37.702 -5.10083 0.0168477 1.85645 0.04 
328 1 1 -0.89459 -0.21147 -0.954349 0 0 0 0.248746 0.203246 -0.0950045 0 0 -6.57473 -0.308722 1.63847 4.71772 0.04 
1251 1 1 -0.75248 -0.231916 -0.957914 0 0 0 -0.285818 1.12013 -0.486034 -2.46245 13.2631 -15.0088 -8.07682 0.395183 3.29544 0.04 
283 1 1 -0.674988 -0.25445 -0.95945 0 0 0 0.0850607 0.522 0.101896 0 0 -6.57473 -6.55441 0.712796 0.33094 0.04 
1436 1 1 -0.575068 -0.20696 -0.952038 0 0 0 -0.0876483 0.735845 -0.261121 0 0 -6.57473 -1.70948 6.01095 -9.85707 0.04 
1328 1 1 -0.40523 -0.230323 -0.962942 0 0 0 -0.224674 0.771652 1.07737 3.98845 0.686131 142.708 -5.35283 -4.65539 3.47546 0.04 
1250 1 1 -0.32574 -0.205919 -0.960417 0 0 0 -0.151246 0.47192 -0.276663 0.301306 -1.30627 20.2367 -2.34289 -1.60556 -4.71679 0.04 
902 1 1 -0.0975363 -0.236636 -0.940501 0 0 0 -0.336683 0.475917 -0.527799 0 0 -6.57473 -3.11019 6.12906 0.391813 0.04 
1276 1 1 -0.0183093 -0.210282 -0.957528 0 0 0 -0.491453 0.430254 0.14655 -0.0247595 -9.1753e-05 -6.6033 -11.5395 -4.50165 2.47983 0.04 
752 1 1 0.166875 -0.240923 -0.954536 0 0 0 0.11082 0.243492 0.0283474 13.0517 63.9468 -9.72383 -2.23297 -0.946161 1.05265 0.04 
557 1 1 0.232548 -0.192726 -0.955962 0 0 0 -0.0317183 0.728584 0.367259 0 0 -6.57473 -9.88722 -5.66333 -1.6024 0.04 
1475 1 1 0.39144 -0.237942 -0.940058 0 0 0 0.245511 0.576154 0.160717 0 0 -6.57473 -7.93645 -4.9851 2.95468 0.04 
1078 1 1 0.475174 -0.224 -0.95793 0 0 0 -0.560902 0.256409 0.446393 0 0 -6.57473 -2.18618 -4.96234 0.590101 0.04 
13 1 1 0.555602 -0.196398 -0.962159 0 0 0 0.0362213 0.446481 -0.229323 2.27467 -55.2518 99.204 -7.94773 4.70203 -1.3866 0.04 
806 1 1 0.687494 -0.257958 -0.954449 0 0 0 -0.0400526 -0.26263 -0.489199 17.8832 -26.366 -2.34841 -6.8104 -2.10919 -2.25113 0.04 
1206 1 1 0.889286 -0.235667 -0.961395 0 0 0 -0.314006 0.769133 0.24842 19.1725 -13.5107 48.9121 -6.43848 -1.3342 1.72419 0.04 
1324 1 1 -0.959678 -0.161365 -0.960522 0 0 0 -0.800395 -0.229569 0.608799 0.930819 0.507657 14.6304 -1.99696 -5.88988 -1.09101 0.04 
1150 1 1 -0.612776 -0.12798 -0.96166 0 0 0 -0.442674 0.554728 0.320732 3.62006 -2.53092 81.7663 -5.51944 1.06522 -0.0716694 0.04 
1192 1 1 -0.408498 -0.139704 -0.961237 0 0 0 -0.0379602 0.278216 -0.362604 16.7719 7.08088 58.2798 -0.154047 9.48469 -4.41485 0.04 
668 1 1 -0.272448 -0.138986 -0.959823 0 0 0 0.536338 0.695089 0.120089 -37.2135 -21.6053 -45.5242 -0.966377 -3.34887 -0.290914 0.04 
295 1 1 -0.157145 -0.167796 -0.946747 0 0 0 -0.410513 0.318854 0.829422 0 0 -6.57473 -6.98874 -9.42858 -3.82307 0.04 
1102 1 1 -0.0635919 -0.140321 -0.954993 0 0 0 0.204488 -0.166115 0.162463 16.7665 -35.8849 -6.80237 -5.16269 -4.58684 -1.40226 0.04 
232 1 1 0.0590823 -0.155497 -0.958485 0 0 0 -0.0373635 0.699031 -0.310145 0 0 -6.57473 -10.9798 -3.12338 2.73545 0.04 
1012 1 1 0.156887 -0.159736 -0.961589 0 0 0 0.09536 0.827916 0.608253 -1.80119 -3.60762 74.0707 -6.17429 -5.03553 -0.56027 0.04 
685 1 1 0.422831 -0.145752 -0.94678 0 0 0 0.242743 -0.356554 -0.0267927 -33.4521 3.87016 -13.7192 -4.84196 -0.300506 -3.59715 0.04 
1096 1 1 0.499651 -0.150908 -0.929084 0 0 0 0.521644 0.237538 0.369812 14.8199 11.6117 10.2751 -8.50681 -1.02536 -1.50763 0.04 
885 1 1 0.643951 -0.192266 -0.961011 0 0 0 0.105905 0.151663 0.224016 -20.4591 27.0713 42.6139 -4.59914 -1.15143 -0.494762 0.04 
627 1 1 0.746609 -0.190565 -0.958466 0 0 0 0.0222724 0.353641 -0.0714411 0 0 -6.57473 -9.18381 0.565554 -1.07767 0.04 
1130 1 1 0.954841 -0.188112 -0.958632 0 0 0 -0.112641 0.472398 -0.343149 9.85623 37.2921 -89.5174 -0.608628 -0.117421 -8.56735 0.04 
1238 1 1 -0.875687 -0.10902 -0.949844 0 0 0 -0.514814 0.31593 -0.00548873 11.1982 -1.43239 -15.7374 4.29849 5.87638 -7.35786 0.04 
1160 1 1 -0.701314 -0.0902273 -0.961333 0 0 0 0.0364144 0.322276 -0.027372 -0.763468 4.05836 53.344 -5.15706 1.11158 0.229235 0.04 
1403 1 1 -0.47535 -0.0843266 -0.962862 0 0 0 0.188469 0.0300829 -0.121274 1.95755 9.41215 153.802 -2.68985 4.79521 1.25805 0.04 
1198 1 1 -0.188478 -0.0873694 -0.959479 0 0 0 0.0650602 0.536529 -0.12896 0 0 -6.57473 -6.59134 -3.61709 -0.163865 0.04 
1304 1 1 -0.0988323 -0.0698989 -0.95752 0 0 0 -0.152132 0.383738 -0.531927 -15.62 35.4904 -7.84459 -7.30283 -6.99277 2.59007 0.04 
1240 1 1 0.0139877 -0.0714806 -0.960089 0 0 0 -0.382501 0.198589 0.490338 0.0678422 -0.0142995 -7.96138 -1.25305 8.06264 -8.04905 0.04 
906 1 1 0.105731 -0.0671282 -0.943929 0 0 0 0.380722 0.868436 -0.0475374 0 0 -6.57473 -0.421586 0.448607 2.57208 0.04 
231 1 1 0.226246 -0.112062 -0.961885 0 0 0 0.319838 0.388404 -0.409499 -4.35253 -3.3904 103.769 -5.22915 2.14346 3.77374 0.04 
1126 1 1 0.34379 -0.117346 -0.950228 0 0 0 -0.471371 0.319805 -0.0520802 0 0 -6.57473 -0.586847 0.460923 -7.14858 0.04 
864 1 1 0.581438 -0.122357 -0.959138 0 0 0 0.522899 0.330043 0.0388511 16.6439 53.0559 -6.57878 1.06277 5.62066 2.99824 0.04 
952 1 1 0.664158 -0.098029 -0.962184 0 0 0 0.0669877 0.606939 -0.2749 -13.3696 -3.65571 118.414 -4.60354 -6.15041 -4.70859 0.04 
1189 1 1 0.7434 -0.105746 -0.958653 0 0 0 0.234032 0.62775 0.241272 -56.2923 24.2719 -7.04019 -8.14621 -2.7827 -4.33269 0.04 
1033 1 1 0.814773 -0.137235 -0.959626 0 0 0 0.128263 -0.342531 0.214152 65.982 -25.6852 -5.81964 -4.36681 -2.66424 0.923252 0.04 
539 1 1 0.874142 -0.0683343 -0.963732 0 0 0 -0.207538 0.422872 -0.364094 5.95539 -8.81164 206.133 -4.3858 -0.942666 4.93075 0.04 
1191 1 1 0.954791 -0.103594 -0.958453 0 0 0 0.244665 0.101577 -0.202435 0.902974 -23.2963 -5.22713 -6.95937 -5.58835 -8.44685 0.04 
1371 1 1 -0.959795 -0.0565972 -0.958032 0 0 0 0.197809 0.375187 0.573763 0 0 -6.57473 -1.82182 -1.27065 3.09239 0.04 
660 1 1 -0.814887 -0.0505955 -0.952529 0 0 0 0.192567 -0.00566072 0.616864 -47.1326 -1.30322 -57.464 1.44989 7.91982 1.72866 0.04 
1471 1 1 -0.648546 -0.0101733 -0.940063 0 0 0 0.449526 -0.206678 -0.265968 -15.4579 -6.22229 -11.6136 -4.93551 -0.156556 2.00805 0.04 
1208 1 1 -0.559716 -0.0604397 -0.957616 0 0 0 -0.149676 0.902159 0.239121 1.54036 27.546 -64.2406 -2.14535 -1.01925 -2.13599 0.04 
724 1 1 -0.498948 0.00882486 -0.961248 0 0 0 0.217833 0.805928 0.688379 67.1712 -13.3179 47.7952 -13.3501 -5.42272 10.2396 0.04 
1235 1 1 -0.41921 -0.0196892 -0.95616 0 0 0 0.202627 0.732551 -0.277394 12.4038 -9.921 -53.2077 -6.43614 -3.03809 -4.21597 0.04 
1095 1 1 -0.26448 -0.0613392 -0.95199 0 0 0 0.0672809 0.392966 -0.109155 8.97793 58.8958 0.0670362 -1.93429 1.83218 0.834031 0.04 
1466 1 1 0.19476 -0.0348627 -0.960453 0 0 0 0.2366 -0.184258 -0.0028909 -0.710302 1.04679 18.7259 -5.19312 -0.718604 5.83391 0.04 