ITEM: TIMESTEP
52800
ITEM: NUMBER OF ATOMS
1500
ITEM: BOX BOUNDS ff ff ff
-1 1
-1 1
-1 1
ITEM: ATOMS id type type x y z ix iy iz vx vy vz fx fy fz omegax omegay omegaz radius 
137 1 1 -0.960377 -0.960416 -0.960719 0 0 0 -0.0972101 -0.111359 -0.0234207 22.9452 21.5927 31.3221 0.235341 0.219051 -2.93553 0.04 
5 1 1 -0.879659 -0.96021 -0.960602 0 0 0 -0.00488758 0.0103989 0.0263428 1.4471 10.1733 26.7826 0.65808 0.0528738 -0.811679 0.04 
239 1 1 -0.795478 -0.955988 -0.958006 0 0 0 0.000146773 0.208796 -0.166149 -13.1684 0.207241 -6.20058 0.375828 -4.44088 -1.15708 0.04 
34 1 1 -0.71594 -0.957711 -0.960275 0 0 0 0.211325 0.0909973 0.225636 12.9387 -0.234989 4.7726 -2.08274 0.356266 -0.916353 0.04 
415 1 1 -0.635133 -0.959637 -0.959738 0 0 0 -0.179567 0.0157778 -0.044809 0 0 -6.57473 -0.260369 1.36854 -1.79432 0.04 
138 1 1 -0.531609 -0.959818 -0.960117 0 0 0 -0.122822 0.0689595 0.0515367 0.268301 -0.115706 -0.730978 -1.00062 -1.3918 -0.296016 0.04 
323 1 1 -0.428466 -0.953632 -0.959857 0 0 0 -0.00867589 0.0184841 -0.113729 -9.30582 1.05466 -6.81049 -1.3419 -0.957907 -2.83992 0.04 
130 1 1 -0.348875 -0.959068 -0.960437 0 0 0 -0.177279 -0.100927 -0.0319501 5.54235 -5.9774 8.54324 -0.807159 -0.949343 -0.596609 0.04 
502 1 1 -0.26826 -0.958282 -0.960185 0 0 0 -0.101234 0.0341371 -0.034061 -3.2044 -0.267492 -0.0474433 -0.367479 -0.412013 1.17223 0.04 
494 1 1 -0.161593 -0.959774 -0.960568 0 0 0 -0.0320237 -0.0356812 0.0444563 -7.17068 0.409757 14.5375 1.09256 -0.822235 0.925963 0.04 
448 1 1 -0.0818533 -0.959576 -0.960339 0 0 0 -0.124574 -0.0250608 0.0715165 7.30531 -0.394366 -0.0813721 0.236556 -1.17519 -1.51305 0.04 
147 1 1 -0.00200006 -0.960232 -0.960235 0 0 0 -0.1259 0.0653091 -0.0193015 -1.26458 2.07208 -8.59202 0.598765 -0.258613 0.4674 0.04 
218 1 1 0.0777375 -0.960338 -0.960101 0 0 0 -0.0655223 0.103621 0.0018852 5.16546 11.7272 -1.9248 0.0166471 -0.476948 1.58016 0.04 
339 1 1 0.204238 -0.959623 -0.96072 0 0 0 -0.0635734 -0.15137 0.0809088 -5.90593 2.00459 24.7048 1.1131 -0.852394 -1.70188 0.04 
341 1 1 0.311361 -0.958762 -0.960333 0 0 0 0.0282132 0.0340559 0.0223127 1.70636 -0.863869 9.12593 -0.104887 0.0484409 -0.689016 0.04 
203 1 1 0.39728 -0.960662 -0.960357 0 0 0 -0.105617 -0.208551 -0.0175848 -30.0023 26.856 -44.2481 0.215527 1.35551 0.406178 0.04 
1019 1 1 0.477128 -0.957255 -0.959894 0 0 0 -0.175765 -0.111166 -0.0218607 39.6892 -45.6595 -34.1719 -0.0119055 -0.462855 0.663499 0.04 
821 1 1 0.558519 -0.950717 -0.958785 0 0 0 -0.0242199 -0.103247 0.144325 -5.71402 0.724831 -6.94823 0.313567 -0.850625 0.411968 0.04 
636 1 1 0.637953 -0.958812 -0.957086 0 0 0 -0.118314 -0.0271339 0.177554 -25.9746 0.13145 -8.6068 1.82002 -1.80701 0.435736 0.04 
729 1 1 0.717049 -0.959899 -0.954905 0 0 0 -0.0989005 0.0380569 0.0432981 31.6886 -0.856281 -4.16915 1.43252 -1.39607 -0.496228 0.04 
503 1 1 0.797856 -0.95889 -0.960016 0 0 0 0.0364246 0.100169 -0.0874002 -0.0683546 -0.0742648 -4.55605 1.96951 -3.20736 4.33128 0.04 
424 1 1 0.879969 -0.96026 -0.95757 0 0 0 -0.0609951 0.0727867 -0.572436 -2.32916 13.4732 -5.70767 1.93106 1.6615 0.327249 0.04 
850 1 1 0.959838 -0.95926 -0.960105 0 0 0 0.0523544 0.00468314 -0.103029 3.95221 -2.48107 -21.8626 0.638964 -0.4364 0.378657 0.04 
918 1 1 -0.925225 -0.888807 -0.958416 0 0 0 0.301613 0.21039 -0.107705 1.55482 3.3549 -6.30229 0.822287 -1.71604 -0.559009 0.04 
246 1 1 -0.840438 -0.889626 -0.960347 0 0 0 -0.0235273 0.0676195 0.075177 4.33843 -0.751809 0.318549 -2.21593 -0.390894 0.64352 0.04 
586 1 1 -0.754416 -0.882139 -0.958742 0 0 0 -0.103024 -0.156969 -0.080307 -4.07097 -1.68338 -12.5694 -2.98707 -0.491011 -0.195678 0.04 
379 1 1 -0.66771 -0.885096 -0.959866 0 0 0 -0.236042 -0.126903 -0.236576 0 0 -6.57473 0.325073 -0.981302 0.411175 0.04 
105 1 1 -0.583686 -0.895873 -0.960206 0 0 0 -0.0371711 0.0659417 0.000795262 0.511529 -0.259525 4.89724 -1.25224 -0.142182 2.05585 0.04 
289 1 1 -0.483397 -0.897295 -0.94411 0 0 0 -0.095737 0.0893786 -0.423356 0 0 -6.57473 -0.980272 1.25178 0.589544 0.04 
345 1 1 -0.370221 -0.881665 -0.960557 0 0 0 0.00213255 -0.0185266 -0.00453361 13.0824 -6.62796 -14.0526 -1.02222 -1.19814 -1.92214 0.04 
209 1 1 -0.290831 -0.875828 -0.960161 0 0 0 -0.0490628 -0.154829 0.025064 15.0089 2.18265 2.44198 -0.549671 0.255106 -0.715393 0.04 
647 1 1 -0.214233 -0.899118 -0.959208 0 0 0 0.0318195 -0.00151746 -0.00153565 0 0 -6.57473 -0.441744 -0.275955 -0.223667 0.04 
700 1 1 -0.134192 -0.878825 -0.959664 0 0 0 0.100099 -0.070094 -0.0733166 -0.156156 0.0835416 -10.9774 -0.425332 0.837107 0.16611 0.04 
616 1 1 -0.0544445 -0.884111 -0.960039 0 0 0 0.0767214 -0.0472293 0.0150186 2.90893 -0.086357 -4.75432 0.220969 0.453167 1.81154 0.04 
655 1 1 0.140444 -0.911008 -0.960029 0 0 0 -0.0217538 0.135174 -0.00116282 -2.13866 0.312696 -11.7028 0.625028 0.106183 -0.963878 0.04 
19 1 1 0.257506 -0.888033 -0.96084 0 0 0 0.106021 -0.10157 0.0036247 -3.53818 -32.8307 -16.1083 0.391363 -1.72828 -2.287 0.04 
443 1 1 0.360504 -0.889449 -0.960329 0 0 0 -0.221738 -0.150251 -0.0184178 -3.02159 -7.61734 11.4845 0.105855 -1.35176 0.421211 0.04 
664 1 1 0.440199 -0.887663 -0.959815 0 0 0 -0.220118 -0.0767913 -0.0756981 -9.50128 39.7865 -7.82483 -1.71129 -1.24936 -0.381873 0.04 
396 1 1 0.5192 -0.875285 -0.960078 0 0 0 -0.0205838 -0.39421 -0.199318 0.119179 0.223718 0.220483 -0.787935 -0.624846 1.32184 0.04 
50 1 1 0.677988 -0.879686 -0.960578 0 0 0 0.15264 0.0184734 -0.0749495 -13.0567 -1.53276 14.9247 -0.730638 3.08016 -2.35006 0.04 
812 1 1 0.879038 -0.878182 -0.960321 0 0 0 -0.0221779 0.00784969 -0.0307487 -1.61913 -2.44274 9.46567 -0.883288 -1.54943 -2.18919 0.04 
417 1 1 0.960018 -0.876946 -0.949371 0 0 0 0.0421648 0.0570089 0.336866 -1.57014 -0.0157314 -6.65164 -1.5921 -1.79773 0.666432 0.04 
352 1 1 -0.872664 -0.816336 -0.955915 0 0 0 -0.198734 0.165919 -0.748368 0 0 -6.57473 0.746694 -3.29234 2.35134 0.04 
894 1 1 -0.776995 -0.801489 -0.960543 0 0 0 0.188832 0.0980613 -0.158237 -1.49037 -0.624907 25.7469 -1.11972 1.53727 -2.26992 0.04 
960 1 1 -0.696592 -0.808878 -0.956982 0 0 0 0.0724614 0.0862282 0.0183356 -40.1851 -1.7303 -4.79877 2.33499 3.33919 -0.189933 0.04 
290 1 1 -0.618119 -0.801562 -0.960698 0 0 0 0.0695286 0.270673 -0.255666 37.2447 -32.2464 -1.68823 -3.56791 3.2317 0.964884 0.04 
380 1 1 -0.527756 -0.828923 -0.960342 0 0 0 0.0434431 0.163847 -0.224714 -14.3376 -2.94581 13.7748 -2.48862 -0.418068 0.539485 0.04 
52 1 1 -0.448158 -0.826131 -0.959411 0 0 0 -0.0792827 0.292916 0.0183022 13.6699 0.101519 -6.98393 -2.42491 -0.254032 -1.03885 0.04 
385 1 1 -0.0840428 -0.805529 -0.960193 0 0 0 0.130426 0.0647521 0.000421013 -0.536978 0.018611 4.17128 -1.71425 0.627536 1.56015 0.04 
827 1 1 0.00651108 -0.831789 -0.960249 0 0 0 -0.0908876 0.167283 -0.0533889 -6.5979 14.3637 0.110669 -2.17279 -1.06289 -0.861856 0.04 
784 1 1 0.091436 -0.847571 -0.960346 0 0 0 -0.0409881 0.177956 -0.0545448 -0.723973 0.153391 10.3781 -1.1876 -0.0263153 -2.47087 0.04 
211 1 1 0.17098 -0.826313 -0.960056 0 0 0 0.187795 0.0863816 0.00216739 -0.148518 -0.0433798 -3.48025 -0.929724 0.482503 2.14273 0.04 
354 1 1 0.313387 -0.825145 -0.960431 0 0 0 0.116351 0.0631843 -0.0575312 30.7217 5.30247 -10.9991 0.426157 -1.18815 0.409408 0.04 
866 1 1 0.596492 -0.812689 -0.960892 0 0 0 -0.118063 0.228781 -0.0972984 -3.84036 -0.974401 36.5272 -1.88814 1.15422 1.28939 0.04 
742 1 1 0.733014 -0.809685 -0.960499 0 0 0 -0.0277323 0.256784 0.304844 0.219093 -0.830472 17.2725 -6.93954 -0.807036 4.59481 0.04 
554 1 1 0.806472 -0.841866 -0.959431 0 0 0 -0.0768723 0.104415 0.0113802 0 0 -6.57473 -1.89688 -0.907602 -3.58601 0.04 
972 1 1 0.959951 -0.797267 -0.960282 0 0 0 -0.0590265 0.102619 -0.143851 0.877452 0.0287484 10.9837 -2.6392 0.518671 -1.41665 0.04 
446 1 1 -0.946217 -0.781542 -0.959293 0 0 0 -0.25444 0.195962 0.00563114 0 0 -6.57473 -0.215703 -2.32492 2.2767 0.04 
492 1 1 -0.856492 -0.736618 -0.956101 0 0 0 -0.0455433 -0.231937 -0.066885 0 0 -6.57473 -0.198679 0.466484 -2.23634 0.04 
564 1 1 -0.745682 -0.728365 -0.951014 0 0 0 0.235912 0.225281 -0.252895 0 0 -6.57473 -0.152699 4.0987 5.17707 0.04 
241 1 1 -0.482898 -0.751015 -0.95959 0 0 0 -0.0296174 0.0636877 -0.0237899 2.83747 1.64309 -9.97088 -4.81672 -1.22386 5.15187 0.04 
480 1 1 -0.372679 -0.790601 -0.960447 0 0 0 -0.135852 0.0690016 0.132579 4.18554 -16.476 10.1779 -1.22055 -1.44094 0.555504 0.04 
402 1 1 -0.290551 -0.773449 -0.960185 0 0 0 0.118629 0.0685862 0.213333 3.96799 -27.2645 -7.28614 -3.08419 1.28649 -1.2095 0.04 
322 1 1 -0.211891 -0.755022 -0.959903 0 0 0 0.117569 0.336411 0.137292 0 0 -6.57473 0.136085 1.50779 -2.00544 0.04 
376 1 1 -0.133126 -0.736046 -0.959912 0 0 0 -0.113369 0.140453 -0.0567663 -40.5232 -12.3911 -5.11615 2.16901 0.607652 -2.19437 0.04 
1122 1 1 0.0291451 -0.750805 -0.960543 0 0 0 0.0371565 0.0872867 -0.0375496 10.1703 1.00031 3.40896 -2.15661 0.094202 -1.77949 0.04 
773 1 1 0.107411 -0.766325 -0.960072 0 0 0 -0.00840431 0.0158595 -0.161813 -3.84303 -30.3368 -34.94 -1.86702 -0.836725 1.01017 0.04 
725 1 1 0.223315 -0.764733 -0.960166 0 0 0 0.000920064 0.272275 0.103308 -4.54094 -8.4142 -10.4597 -3.08351 1.0833 -1.67706 0.04 
159 1 1 0.355601 -0.752914 -0.95878 0 0 0 0.0673594 0.00286868 -0.101187 38.0816 -20.7754 -4.10956 -4.41925 0.443585 1.63373 0.04 
688 1 1 0.476789 -0.790546 -0.959267 0 0 0 -0.54973 0.0969875 0.385834 0 0 -6.57473 0.75041 -3.56199 -1.57985 0.04 
757 1 1 0.586364 -0.731166 -0.950187 0 0 0 -0.127263 0.0775108 -0.511551 0 0 -6.57473 0.210181 0.507956 4.7858 0.04 
519 1 1 0.665096 -0.749309 -0.958597 0 0 0 -0.174728 0.214571 -0.0567406 0 0 -6.57473 -2.141 0.641453 2.19121 0.04 
603 1 1 0.817615 -0.760667 -0.957706 0 0 0 -0.00961601 0.108268 -0.526757 0 0 -6.57473 -0.782189 -1.82848 -0.830048 0.04 
188 1 1 0.900313 -0.743311 -0.959717 0 0 0 -0.00164541 0.231286 0.0427803 -8.17049 -6.21941 -6.12439 0.521871 -0.990866 0.38409 0.04 
488 1 1 -0.958783 -0.70224 -0.960024 0 0 0 -0.0458336 0.155916 -0.0516713 -5.90377 -15.4239 -21.4524 -3.77274 0.444129 -1.32568 0.04 
314 1 1 -0.658464 -0.725171 -0.960109 0 0 0 -0.0383641 0.10492 -0.38943 -50.9992 25.7649 -58.2227 3.72537 -0.0867628 5.9543 0.04 
1127 1 1 -0.565122 -0.727764 -0.960055 0 0 0 0.319074 -0.0968026 0.0165984 -0.127562 0.0611666 -3.74534 -0.565215 1.75308 -0.961185 0.04 
85 1 1 -0.406866 -0.718795 -0.956591 0 0 0 -0.105569 0.171515 0.055319 -5.90032 11.9795 -6.57083 -0.682615 -1.04337 -2.11992 0.04 
511 1 1 -0.309262 -0.696409 -0.958042 0 0 0 0.255425 0.300661 0.0181653 -6.75437 23.0912 -5.47083 -1.90187 2.30817 -1.0599 0.04 
873 1 1 -0.209588 -0.673481 -0.959843 0 0 0 0.0130797 0.322383 -0.111306 17.323 -18.047 -5.80551 -3.09991 2.40627 -0.746652 0.04 
204 1 1 -0.0569904 -0.715596 -0.959933 0 0 0 -0.0282599 0.0913783 -0.0552549 40.5232 12.3911 -8.0333 -3.23127 -1.08499 0.299378 0.04 
581 1 1 0.0549142 -0.674009 -0.960893 0 0 0 -0.179686 0.249446 -0.140774 21.2747 -9.80415 33.9462 -0.101438 0.502852 0.973901 0.04 
1088 1 1 0.135209 -0.683957 -0.960696 0 0 0 -0.0857406 0.28918 -0.0449287 -9.93135 4.42064 27.0964 -1.84385 1.41236 -0.847912 0.04 
862 1 1 0.214934 -0.680187 -0.960952 0 0 0 -0.130541 0.0579523 0.0286251 -5.45972 4.35402 45.6936 -1.8741 -1.05911 -5.27354 0.04 
967 1 1 0.286331 -0.715499 -0.959978 0 0 0 -0.0477995 0.35373 0.122786 -27.6273 14.1079 -8.70692 -3.85491 -0.517916 0.661148 0.04 
656 1 1 0.351683 -0.669274 -0.959579 0 0 0 0.0280224 0.0785473 0.0913769 22.0979 -10.614 -5.22676 -2.57006 0.494771 -1.45545 0.04 
451 1 1 0.424848 -0.712989 -0.960483 0 0 0 0.0522506 0.00973615 0.208877 0.984794 1.95938 17.495 -0.323682 1.01418 -1.03874 0.04 
177 1 1 0.505964 -0.709258 -0.959437 0 0 0 -0.144668 0.00272161 -0.0243715 7.39198 -11.4986 -21.0886 -1.96267 -3.06873 -1.98271 0.04 
880 1 1 0.628352 -0.662556 -0.960016 0 0 0 -0.0186445 0.0335788 0.200488 -16.6269 4.25291 -21.0179 -1.88693 0.16289 0.986983 0.04 
439 1 1 0.747424 -0.722114 -0.959341 0 0 0 0.149255 0.373242 -0.0251579 0 0 -6.57473 -3.8003 3.28388 0.102371 0.04 
662 1 1 0.809654 -0.672085 -0.950572 0 0 0 -0.121628 -0.339626 -0.196253 -0.587911 -8.42781 -5.18222 -3.08767 1.74997 -1.40823 0.04 
987 1 1 0.961946 -0.692735 -0.960494 0 0 0 -0.0515456 0.202043 0.0417852 -85.0792 -3.1961 14.077 -4.14719 0.791931 -2.63932 0.04 
260 1 1 -0.959932 -0.603433 -0.959338 0 0 0 0.00944336 0.0291636 0.107383 0.0295712 -0.74143 -8.01057 -1.64463 0.159009 -0.0087427 0.04 
532 1 1 -0.885381 -0.656527 -0.96046 0 0 0 0.112594 0.184071 -0.0893279 12.5877 -29.4665 2.83865 -1.21252 1.47143 2.90764 0.04 
826 1 1 -0.796586 -0.631097 -0.959247 0 0 0 -0.415221 -0.259335 -0.352966 0 0 -6.57473 -2.86293 -4.6128 0.115068 0.04 
567 1 1 -0.705425 -0.658792 -0.955736 0 0 0 0.403033 0.232706 0.0321093 -2.19671 -4.79791 -13.0465 0.197993 4.3255 -2.42277 0.04 
925 1 1 -0.643341 -0.600971 -0.960947 0 0 0 -0.181528 -0.0636875 0.00460488 -1.74314 -1.81302 39.2191 -1.65496 1.46307 3.13417 0.04 
170 1 1 -0.532599 -0.644393 -0.957719 0 0 0 0.231287 -0.172568 -0.126967 -23.6849 0.41601 -5.41754 -1.55495 1.41491 0.234716 0.04 
375 1 1 -0.453333 -0.6419 -0.960802 0 0 0 0.173907 0.217105 -0.127997 36.9375 26.9429 4.83796 -3.2208 0.87718 -1.65951 0.04 
709 1 1 -0.362887 -0.634894 -0.959874 0 0 0 0.0616322 0.228798 -0.0859458 -7.82075 -5.30491 -30.0322 -3.15147 1.75675 2.02473 0.04 
631 1 1 -0.265789 -0.617487 -0.958736 0 0 0 -0.0558012 0.0950829 0.0758119 -17.323 18.047 -7.34394 -2.97585 1.82172 3.10945 0.04 
738 1 1 -0.10732 -0.652671 -0.957796 0 0 0 -0.146567 0.246667 0.0783528 0 0 -6.57473 0.889443 -1.59174 1.4118 0.04 
1046 1 1 -0.0163866 -0.639806 -0.956245 0 0 0 -0.249828 0.2276 -0.197519 -24.9764 13.536 -4.6692 -2.77471 0.65787 0.0648606 0.04 
388 1 1 0.0766493 -0.596636 -0.959746 0 0 0 0.114296 -0.0694156 -0.000707196 0.239951 -6.68594 -6.15297 -3.40825 1.69051 -0.500755 0.04 
61 1 1 0.173965 -0.610602 -0.959447 0 0 0 0.0119895 -0.0104888 0.0858505 0 0 -6.57473 -1.41566 1.76706 -0.290058 0.04 
1052 1 1 0.280397 -0.63447 -0.960006 0 0 0 -0.0154209 0.026104 0.153179 -24.6278 25.2562 -38.0414 2.31044 1.22548 3.60143 0.04 
1082 1 1 0.423512 -0.632558 -0.960723 0 0 0 0.00958163 0.107343 -0.144445 -16.3995 -26.6118 35.7797 2.29328 -2.61483 -3.58889 0.04 
255 1 1 0.502597 -0.625017 -0.960255 0 0 0 0.11539 0.133526 -0.0611366 -0.950899 27.2922 -24.5729 0.612713 -1.01204 1.00067 0.04 
1026 1 1 0.580367 -0.597915 -0.956299 0 0 0 -0.237472 0.204665 0.0351371 13.1581 -45.3973 -38.105 -3.0553 2.06491 -1.11048 0.04 
543 1 1 0.739569 -0.631941 -0.960961 0 0 0 0.349694 -0.0245481 -0.00457163 -2.65402 0.366785 47.0103 -0.216361 2.78815 -0.715813 0.04 
553 1 1 0.88935 -0.660182 -0.958925 0 0 0 -0.211733 0.210194 -0.191822 -2.65259 -7.73919 -25.0742 -0.277903 0.110434 2.0318 0.04 
252 1 1 0.958292 -0.610944 -0.960271 0 0 0 0.106132 0.112167 -0.0508917 6.08302 -12.1475 -11.523 0.485921 0.362004 1.65317 0.04 
990 1 1 -0.883673 -0.577252 -0.958656 0 0 0 -0.0883326 0.0348383 -0.173781 0.391355 1.56919 -29.6517 -2.91863 -1.42631 -1.57116 0.04 
1152 1 1 -0.741036 -0.567886 -0.960364 0 0 0 0.0524071 0.34821 0.0449077 -0.33688 -0.926682 13.1456 1.34216 -2.35091 1.29053 0.04 
893 1 1 -0.548344 -0.563584 -0.959404 0 0 0 0.165809 0.0450202 0.0022955 -19.9366 2.32918 -17.5944 -1.50115 3.72463 4.0123 0.04 
1448 1 1 -0.406774 -0.566677 -0.960955 0 0 0 0.214945 0.113858 0.189482 3.20379 0.150433 40.8528 -2.28861 0.875401 2.13877 0.04 
489 1 1 -0.331722 -0.537605 -0.958842 0 0 0 0.614784 0.281688 0.086675 -5.20153 1.56235 -12.2404 -0.524106 -1.59163 0.835951 0.04 
883 1 1 -0.227618 -0.544237 -0.959334 0 0 0 -0.0130579 0.184642 0.0761263 0 0 -6.57473 -3.7853 0.118024 1.25079 0.04 
962 1 1 -0.154103 -0.578603 -0.960385 0 0 0 0.0635733 0.297647 0.0698099 -0.603922 -0.830278 13.959 -5.67085 0.282505 -0.951105 0.04 
950 1 1 -0.0721101 -0.580635 -0.960126 0 0 0 -0.159911 0.131767 -0.0379363 0.372297 0.0565911 0.956753 -4.02717 0.784274 -0.869796 0.04 
716 1 1 0.00435248 -0.556754 -0.958981 0 0 0 0.162077 0.0316296 -0.284852 16.4351 -10.4839 -35.6253 -1.46036 1.10631 -2.39188 0.04 
867 1 1 0.205905 -0.535002 -0.960041 0 0 0 0.175592 0.0344138 -0.0659448 -29.6682 -7.64995 -6.56902 -2.71995 1.22674 -1.8462 0.04 
576 1 1 0.329847 -0.567342 -0.960664 0 0 0 -0.421805 0.0514194 -0.0333296 -10.8522 -2.64035 30.6792 -1.50901 -4.12113 1.19725 0.04 
408 1 1 0.408399 -0.554684 -0.958953 0 0 0 -0.112942 0.047229 0.374044 7.44296 26.9468 -8.25233 0.7754 -5.36996 2.80365 0.04 
814 1 1 0.514311 -0.54485 -0.960172 0 0 0 -0.115178 -0.0279844 0.245832 -0.047077 0.316346 -0.178122 0.840406 -2.90284 -0.444855 0.04 
1111 1 1 0.675128 -0.582952 -0.960675 0 0 0 0.000159 -0.0101858 -0.0431125 -8.06637 -1.26334 31.4454 -0.893814 -0.223914 -0.971839 0.04 
1138 1 1 0.74725 -0.548903 -0.959497 0 0 0 -0.0298712 0.294177 -0.105246 7.3277 3.02181 -6.44863 -3.35698 -0.282165 2.32203 0.04 
58 1 1 0.814342 -0.593092 -0.95967 0 0 0 -0.0474533 0.251279 0.0599343 -21.3222 -1.67282 -10.1133 3.54082 -1.26445 -1.31823 0.04 
1107 1 1 0.887621 -0.56353 -0.951622 0 0 0 -0.342761 -0.15778 0.157245 7.05773 13.287 -22.1059 -1.12912 0.669398 2.88022 0.04 
670 1 1 -0.959944 -0.50664 -0.960295 0 0 0 0.0996878 0.102199 0.14046 -0.714795 0.148058 8.02464 -2.97718 0.513162 -0.126734 0.04 
739 1 1 -0.887613 -0.466491 -0.960495 0 0 0 -0.00472399 0.241877 -0.0941659 0.229466 -1.42115 22.2164 -1.03256 0.696755 -4.07807 0.04 
565 1 1 -0.816327 -0.527632 -0.959609 0 0 0 0.104665 -0.0459351 -0.114801 0.257196 -16.3894 -21.3693 -2.70743 2.12889 0.528022 0.04 
644 1 1 -0.759445 -0.463297 -0.960228 0 0 0 0.0660433 0.173747 0.139068 -9.47217 34.5696 -43.9147 0.256254 2.80606 0.276921 0.04 
833 1 1 -0.675217 -0.457385 -0.958833 0 0 0 0.287046 -0.0527734 -0.136579 0 0 -6.57473 -2.67214 -1.40862 0.136255 0.04 
435 1 1 -0.606736 -0.498841 -0.960368 0 0 0 -0.0942374 -0.268583 -0.0973669 1.18476 -4.54334 7.19902 1.00909 -0.168853 0.420878 0.04 
816 1 1 -0.489683 -0.499553 -0.960033 0 0 0 0.185083 0.145404 -0.0238021 -5.8638 -24.974 -9.55988 -2.27267 -0.605891 3.50809 0.04 
344 1 1 -0.411396 -0.482853 -0.960327 0 0 0 0.251675 -0.0492469 0.0331879 -0.8333 0.308793 11.1988 -1.2945 -0.511608 2.50331 0.04 
382 1 1 -0.260882 -0.468049 -0.96086 0 0 0 -0.0212479 0.327212 0.325278 0.400357 -2.14778 37.1207 -3.66415 0.322339 2.02935 0.04 
305 1 1 -0.171058 -0.486022 -0.960149 0 0 0 0.147962 0.264952 0.0498375 -0.235486 -0.303276 1.1046 -2.70037 0.649891 -1.05545 0.04 
1066 1 1 -0.0477627 -0.495966 -0.95991 0 0 0 0.054827 0.049664 -0.0364419 -0.263512 0.937311 -18.0942 -1.39311 1.83896 2.30364 0.04 
143 1 1 0.0744705 -0.516874 -0.960842 0 0 0 0.0774469 0.0202253 -0.068556 10.8638 -2.91701 33.6915 -0.680484 1.66839 1.73837 0.04 
1346 1 1 0.148502 -0.478485 -0.960336 0 0 0 0.00068661 -0.0537919 0.577324 10.6832 -7.72897 -11.5346 -2.1716 2.86602 1.0788 0.04 
1000 1 1 0.277382 -0.500681 -0.960579 0 0 0 -0.0304447 0.0481893 -0.0749325 23.6712 11.0401 26.6325 -1.52729 -2.9438 1.34391 0.04 
792 1 1 0.356697 -0.490113 -0.960556 0 0 0 -0.123834 0.382355 -0.00408304 0.0862042 -1.54963 24.4658 -0.443655 -2.60671 -0.964553 0.04 
1361 1 1 0.454269 -0.488749 -0.958472 0 0 0 -0.226625 0.134252 -0.069313 0 0 -6.57473 -2.67085 -2.68053 -3.15315 0.04 
1288 1 1 0.596011 -0.52067 -0.960676 0 0 0 -0.373794 0.0101866 0.156524 1.5107 10.9349 15.2101 0.214883 -0.949461 0.423753 0.04 
908 1 1 0.672581 -0.500083 -0.959827 0 0 0 -0.0258122 0.0384944 0.100089 61.453 -29.8228 -5.07895 -4.58838 0.303888 0.901142 0.04 
1309 1 1 0.816133 -0.507446 -0.961185 0 0 0 -0.00129871 -0.171485 -0.0321747 -1.89726 4.44939 55.8273 -3.18049 -1.14133 5.72778 0.04 
9 1 1 0.887044 -0.469849 -0.96068 0 0 0 -0.191681 0.237979 0.0150033 -5.04403 -0.640482 13.1678 1.69407 0.762501 1.12842 0.04 
771 1 1 0.959156 -0.521183 -0.959754 0 0 0 -0.0359808 0.312689 -0.239233 0 0 -6.57473 0.129554 2.04596 -1.70798 0.04 
1055 1 1 -0.958373 -0.422415 -0.960965 0 0 0 -0.0574817 0.175352 0.167244 2.38654 0.188596 45.0054 -4.41789 -1.766 1.48431 0.04 
1142 1 1 -0.825862 -0.41159 -0.960264 0 0 0 -0.119237 0.103058 -0.180248 12.2004 -8.2492 10.8031 -1.17657 3.04431 1.68252 0.04 
613 1 1 -0.611375 -0.394634 -0.959276 0 0 0 0.167709 0.179909 0.487217 0 0 -6.57473 -4.05346 3.43929 0.137501 0.04 
620 1 1 -0.546736 -0.442279 -0.959759 0 0 0 -0.0133512 -0.171802 0.0194177 0 0 -6.57473 -1.34705 1.3593 2.12244 0.04 
1316 1 1 -0.469821 -0.423757 -0.947656 0 0 0 0.044999 0.0233426 -0.199188 4.36208 23.6937 -1.099 2.83291 0.964103 2.2275 0.04 
247 1 1 -0.339217 -0.43158 -0.959002 0 0 0 0.0489817 -0.129006 0.0593598 -3.64954 3.70039 -13.7187 -3.92558 -1.57335 3.27288 0.04 
868 1 1 -0.171776 -0.404683 -0.960876 0 0 0 0.0485803 0.259829 -0.083532 -1.40602 -2.0619 43.3384 1.94967 -4.57966 1.27968 0.04 
1271 1 1 -0.0937686 -0.429045 -0.960448 0 0 0 -0.259143 -0.205919 0.00280114 0.55465 1.11533 18.3379 -0.478218 -3.70274 -1.45648 0.04 
1249 1 1 0.0276534 -0.452524 -0.959507 0 0 0 0.0973318 -0.0372268 0.148186 -9.0241 12.5825 -7.08147 -1.40711 0.450483 -2.10763 0.04 
1030 1 1 0.101152 -0.414235 -0.960763 0 0 0 -0.0443104 0.0513412 -0.115238 -6.83643 -0.387986 37.8979 -2.88304 4.43066 -2.2483 0.04 
1148 1 1 0.220393 -0.443909 -0.961007 0 0 0 0.301508 0.0458186 0.282792 2.74779 2.14976 46.087 -0.576228 2.12879 -3.25557 0.04 
772 1 1 0.307274 -0.425694 -0.957938 0 0 0 -0.211594 0.116611 0.127473 0 0 -6.57473 -2.20418 -2.89902 1.37368 0.04 
845 1 1 0.387726 -0.407571 -0.954122 0 0 0 -0.152926 0.0369402 -0.0516842 0 0 -6.57473 -3.97687 -2.41986 -0.829812 0.04 
677 1 1 0.468258 -0.402093 -0.961008 0 0 0 0.0023482 0.106974 0.0443864 1.5904 2.2812 49.0428 -3.96599 0.936214 -0.75359 0.04 
1047 1 1 0.617629 -0.443988 -0.959049 0 0 0 0.00647132 0.109459 0.0303531 -30.1554 41.9094 -7.46 -0.327676 -0.350402 -1.08898 0.04 
1474 1 1 0.700291 -0.416199 -0.959793 0 0 0 -0.164347 -0.321548 0.125126 3.04733 -1.93416 -16.482 -0.643013 -1.00084 0.45579 0.04 
840 1 1 0.781546 -0.431151 -0.960844 0 0 0 0.152162 0.263268 0.182134 -17.4371 3.97967 16.9823 -2.51445 1.95568 -1.84577 0.04 
852 1 1 0.960574 -0.437218 -0.957195 0 0 0 0.282807 -0.112241 -0.335002 -31.662 -11.1298 -4.18109 0.0918312 -1.08346 4.6821 0.04 
326 1 1 -0.892698 -0.368251 -0.960007 0 0 0 -0.108061 -0.215878 0.129848 -12.4159 17.1171 -20.6589 -0.0426573 0.597578 -2.92794 0.04 
1246 1 1 -0.745884 -0.380923 -0.960741 0 0 0 0.0814274 -0.0445984 0.221345 -0.905047 1.69542 31.8625 -1.55077 0.627287 0.116818 0.04 
969 1 1 -0.671799 -0.330166 -0.959306 0 0 0 -0.0129835 0.247932 -0.0716297 0 0 -6.57473 -2.5874 -1.43558 1.8994 0.04 
857 1 1 -0.522552 -0.359707 -0.96011 0 0 0 0.284141 0.0721242 0.160705 5.29921 -19.9437 -27.0891 -2.82943 0.855929 -2.62895 0.04 
92 1 1 -0.408919 -0.373493 -0.960123 0 0 0 0.116798 0.00296783 -0.0909187 8.69516 -33.5828 -3.51693 -1.2215 -2.03017 -2.39425 0.04 
1124 1 1 -0.255222 -0.385813 -0.959995 0 0 0 -0.123834 0.294648 -0.0229584 0 0 -6.57473 -3.0564 1.37127 -1.48239 0.04 
1214 1 1 -0.189074 -0.325729 -0.959901 0 0 0 -0.21839 0.255795 -0.462529 -12.4133 -11.5518 -6.77927 0.847936 0.0914263 -4.0886 0.04 
1010 1 1 -0.111915 -0.35098 -0.960251 0 0 0 -0.0535308 -0.0391206 -0.143963 -2.22514 5.01494 0.373932 -0.903206 -0.246868 -0.724269 0.04 
1223 1 1 -0.0240172 -0.381823 -0.960189 0 0 0 -0.164306 -0.193802 0.102841 0.149699 0.434311 2.613 -4.34473 -0.945952 3.3647 0.04 
144 1 1 0.0550495 -0.348908 -0.958952 0 0 0 -0.0196916 -0.0187589 -0.022103 -8.86674 -1.6336 -23.3295 -1.73913 -0.639129 -0.777378 0.04 
315 1 1 0.166257 -0.368157 -0.959431 0 0 0 0.277132 -0.259444 0.0290362 10.8402 -3.66225 -6.26145 0.093667 1.16021 0.0559913 0.04 
1187 1 1 0.249669 -0.369428 -0.960637 0 0 0 0.0242144 0.21714 -0.0379159 -0.20144 20.8915 -35.1269 -2.43226 0.970071 -0.901566 0.04 
981 1 1 0.550776 -0.400363 -0.959371 0 0 0 0.0575372 -0.302738 -0.115354 -7.21567 1.74761 -10.7154 -0.511645 -0.598597 0.538116 0.04 
361 1 1 0.629955 -0.364936 -0.954428 0 0 0 0.31431 -0.0373786 -0.0352269 29.6246 -42.7186 -4.80578 0.429924 -0.706808 0.7827 0.04 
499 1 1 0.785003 -0.350375 -0.959474 0 0 0 -0.0733008 0.46322 -0.248297 -8.18527 -7.92142 -6.03015 -5.00093 2.39021 -0.570261 0.04 
398 1 1 0.856511 -0.396243 -0.956306 0 0 0 -0.0594203 0.367952 0.253229 -6.88091 3.82407 -6.39291 -1.96583 -1.29676 1.09304 0.04 
975 1 1 0.929504 -0.363901 -0.959788 0 0 0 -0.0704873 -0.157316 -0.223575 0.195246 12.7333 -7.29511 1.24098 0.973706 1.35114 0.04 
982 1 1 -0.960549 -0.324523 -0.960236 0 0 0 0.06752 0.0135498 -0.0866244 28.3951 7.49489 -1.06232 -1.76012 0.0866887 0.766642 0.04 
995 1 1 -0.889074 -0.286654 -0.958842 0 0 0 0.0644421 -0.175922 0.117557 -0.630499 -25.305 -38.5195 -1.30996 1.3275 0.192869 0.04 
1215 1 1 -0.820912 -0.328908 -0.960052 0 0 0 0.0783395 -0.0363459 -0.0188862 -7.98458 -4.39409 -3.75899 -1.23546 -2.36801 -0.418285 0.04 
76 1 1 -0.753304 -0.286547 -0.959422 0 0 0 -0.171809 0.0872381 -0.0760162 -15.6113 -8.9688 -5.16408 -0.862475 -1.89919 0.0652125 0.04 
230 1 1 -0.594217 -0.307979 -0.959709 0 0 0 0.00414162 -0.126818 0.0533385 0 0 -6.57473 -2.92454 -0.493526 2.56174 0.04 
116 1 1 -0.458067 -0.311744 -0.96164 0 0 0 -0.0637107 0.0511564 0.0128503 -19.5205 32.333 80.551 -2.7221 0.890787 0.81833 0.04 
978 1 1 -0.350731 -0.319365 -0.960164 0 0 0 0.0588145 0.223266 0.0894785 5.96708 4.91029 -16.7244 -4.41685 -0.598863 2.93917 0.04 
1155 1 1 -0.269973 -0.306405 -0.960244 0 0 0 -0.112291 0.138072 0.12163 0.599627 0.0368242 5.44041 -3.57651 -0.971518 0.732993 0.04 
1451 1 1 -0.129882 -0.272925 -0.955345 0 0 0 0.396918 0.163374 0.136447 -6.77472 23.8489 -33.1144 -0.225907 1.94985 -0.648694 0.04 
201 1 1 -0.0372412 -0.301782 -0.959572 0 0 0 0.180898 -0.162558 -0.0276591 0 0 -6.57473 -0.199685 -0.0763651 -2.33601 0.04 
404 1 1 0.125433 -0.29973 -0.959986 0 0 0 0.0527387 -0.0575993 0.169135 -4.67999 8.33713 -7.04713 -0.157764 0.415524 0.375546 0.04 
1216 1 1 0.21217 -0.297588 -0.959468 0 0 0 -0.118928 -0.09721 -0.073842 22.1903 9.51381 -44.082 -1.60657 2.10041 0.0718881 0.04 
780 1 1 0.289974 -0.270701 -0.960311 0 0 0 0.0694091 -0.0878444 0.323254 3.77497 -13.8834 6.34506 -1.44897 1.70321 -2.89135 0.04 
220 1 1 0.353638 -0.331218 -0.960294 0 0 0 0.104049 -0.031641 -0.0233148 -0.817057 0.173576 10.1311 0.00670878 -1.09483 -2.05487 0.04 
624 1 1 0.437041 -0.291143 -0.960574 0 0 0 0.0252949 0.00909452 0.0960213 21.5202 -13.2984 22.0761 -0.865627 0.73494 -1.54926 0.04 
309 1 1 0.507062 -0.331682 -0.957562 0 0 0 0.135009 0.207882 -0.353145 -3.84125 1.32088 -10.9765 -0.357548 1.17443 0.496151 0.04 
1074 1 1 0.58326 -0.30203 -0.960097 0 0 0 0.141405 0.0691376 -0.100646 -22.5034 36.0966 -2.10704 2.41522 -3.72164 0.741012 0.04 
342 1 1 0.657537 -0.269611 -0.958273 0 0 0 0.252739 0.00266413 -0.154679 -3.13456 29.9048 -51.9867 -0.00842558 2.68763 -0.253111 0.04 
764 1 1 0.705784 -0.333091 -0.959679 0 0 0 0.0676616 -0.0398352 0.151245 6.12632 -7.82588 -7.22667 -0.634236 0.342007 -1.36703 0.04 
182 1 1 0.843964 -0.296754 -0.960159 0 0 0 0.0948062 0.211077 -0.165953 7.86727 7.47257 3.88244 -0.540169 -0.995257 -1.55322 0.04 
657 1 1 -0.95867 -0.242713 -0.95961 0 0 0 0.0734307 0.119899 0.0989682 0 0 -6.57473 -1.52308 -1.80711 0.921327 0.04 
1056 1 1 -0.89106 -0.198614 -0.961201 0 0 0 0.316314 0.0973125 -0.0131637 -13.1036 25.731 14.2019 0.163487 4.17266 2.69969 0.04 
1279 1 1 -0.822377 -0.237654 -0.958069 0 0 0 -0.0599277 -0.157101 -0.0216761 32.0413 -16.1893 -5.50486 -1.54772 -0.175685 1.32835 0.04 
471 1 1 -0.747691 -0.203612 -0.960713 0 0 0 -0.00855409 0.193555 0.263721 14.5777 -30.6053 -2.95016 -1.83495 -0.905759 0.533289 0.04 
905 1 1 -0.683033 -0.249904 -0.960213 0 0 0 -0.0851986 0.0299811 0.0198229 38.1724 4.02293 4.85199 -1.85336 -0.91313 -0.689443 0.04 
1286 1 1 -0.605578 -0.22812 -0.958402 0 0 0 -0.153978 0.14198 -0.281857 -2.90475 2.2228 -31.2121 -0.739342 -2.29901 -1.68689 0.04 
1037 1 1 -0.520049 -0.255948 -0.961231 0 0 0 -0.0360973 0.116939 0.204942 4.18457 -8.08314 59.1291 -1.3762 0.61183 0.848046 0.04 
945 1 1 -0.460911 -0.201074 -0.960126 0 0 0 -0.257211 -0.0332227 -0.0617223 -14.4496 -2.75216 -7.92431 0.0779623 0.993638 1.90298 0.04 
1205 1 1 -0.401792 -0.253963 -0.960491 0 0 0 -0.0966887 0.0314207 -0.0333708 18.6408 -17.512 21.589 -0.184044 -0.652132 1.17151 0.04 
710 1 1 -0.322313 -0.244481 -0.961013 0 0 0 0.131702 0.188053 -0.0570569 -6.67041 -11.057 50.7214 -0.316699 3.57423 0.863769 0.04 
168 1 1 -0.217983 -0.243625 -0.960357 0 0 0 0.158017 0.306103 -0.031963 -16.6273 -19.8482 -10.5077 -1.33735 1.08175 -0.753262 0.04 
1348 1 1 -0.0757697 -0.212369 -0.961097 0 0 0 -0.115318 -0.00546725 0.0788285 2.50587 1.85435 53.5075 -0.381135 -2.22518 0.500515 0.04 
1378 1 1 0.00728392 -0.201478 -0.960563 0 0 0 -0.128175 0.138885 0.20495 -22.9407 14.9779 -2.32228 -1.02354 1.56702 -0.337055 0.04 
1301 1 1 0.0964487 -0.211327 -0.959893 0 0 0 -0.136721 0.0408657 0.151682 -2.73114 13.6385 -10.2467 -0.0861741 0.332139 0.408597 0.04 
1201 1 1 0.174875 -0.225117 -0.960157 0 0 0 -0.0273622 0.14177 -0.00831258 12.7904 -2.83233 2.8487 0.536959 0.0497002 1.7029 0.04 
1069 1 1 0.371051 -0.247209 -0.957489 0 0 0 -0.0308209 -0.0549883 -0.386514 -17.9191 0.356631 -35.7129 2.09497 -1.52581 -0.388805 0.04 
1475 1 1 0.455593 -0.194746 -0.959956 0 0 0 0.109068 -0.207143 -0.253906 -53.6758 -52.143 -26.6849 -1.10296 -0.855642 -4.80107 0.04 
1078 1 1 0.5221 -0.250915 -0.959899 0 0 0 -0.0305322 0.0583184 -0.483513 -20.4225 5.60769 -20.8467 -2.03826 2.66346 -1.84065 0.04 
806 1 1 0.593182 -0.196072 -0.95477 0 0 0 -0.0574376 -0.0224667 0.293694 -10.2598 -8.18827 -12.566 -2.46986 -3.84714 -0.218299 0.04 
974 1 1 0.705413 -0.205837 -0.959809 0 0 0 0.20783 0.0578936 0.0288878 5.10504 7.05507 -7.15054 2.45293 -0.225791 3.46504 0.04 
1163 1 1 0.762352 -0.272019 -0.959828 0 0 0 -0.0281057 -0.162141 -0.00742152 0 0 -6.57473 0.0366996 0.0232213 1.81476 0.04 
915 1 1 0.921703 -0.257347 -0.960264 0 0 0 -0.146516 0.104362 -0.229309 -11.1285 -12.8591 -5.09111 0.134137 -0.682002 -4.14551 0.04 
1239 1 1 -0.960755 -0.161243 -0.959433 0 0 0 0.0247317 0.113707 0.027155 14.6215 7.71547 -11.9598 -0.888708 -0.465065 0.739311 0.04 