ITEM: TIMESTEP
23800
ITEM: NUMBER OF ATOMS
1500
ITEM: BOX BOUNDS ff ff ff
-1 1
-1 1
-1 1
ITEM: ATOMS id type type x y z ix iy iz vx vy vz fx fy fz omegax omegay omegaz radius 
5 1 1 -0.834571 -0.929926 -0.94886 0 0 0 -0.407764 0.795597 0.867962 0 0 -6.57473 -20.9934 -11.0997 0.473792 0.04 
105 1 1 -0.638937 -0.960447 -0.961101 0 0 0 0.0738334 -0.349539 -0.848762 -3.01539 26.8926 67.2071 20.7189 -10.1172 11.0988 0.04 
138 1 1 -0.556845 -0.957566 -0.931979 0 0 0 0.544214 -0.450196 0.577018 0 0 -6.57473 -3.99865 3.53277 -0.980354 0.04 
502 1 1 -0.230283 -0.937116 -0.957212 0 0 0 -0.492871 -0.456317 1.04228 0 0 -6.57473 2.53248 -8.23134 7.92802 0.04 
421 1 1 -0.0888076 -0.923515 -0.955972 0 0 0 -0.727694 -0.469973 1.3386 43.9291 -46.1403 -46.1076 -7.21463 -5.18963 8.11628 0.04 
147 1 1 0.0390308 -0.961244 -0.933184 0 0 0 0.951272 -0.271204 0.808203 -2.75551 72.8255 -8.95507 -2.29494 2.83608 2.27892 0.04 
19 1 1 0.217243 -0.946465 -0.955362 0 0 0 0.811917 -0.346746 0.160265 0 0 -6.57473 -12.5847 -0.00767021 -12.7808 0.04 
341 1 1 0.384986 -0.96305 -0.945373 0 0 0 0.657616 -0.727682 -0.0369886 -8.95108 179.401 -5.99134 -0.086847 -9.40343 -4.96655 0.04 
636 1 1 0.591477 -0.930668 -0.939117 0 0 0 -0.779446 -0.12447 -0.310225 4.24608 -21.8871 -51.4253 -15.1004 -12.378 -41.1232 0.04 
137 1 1 -0.95343 -0.894345 -0.959401 0 0 0 0.802393 -1.06743 -0.238701 -29.9308 -44.2966 -60.432 -15.4116 0.796158 -10.0161 0.04 
130 1 1 -0.366372 -0.961874 -0.955915 0 0 0 -0.0161723 0.991823 -0.211496 -52.1042 61.1007 -80.4809 -1.26434 7.65026 1.42903 0.04 
385 1 1 -0.018649 -0.881259 -0.958741 0 0 0 0.228875 -0.373315 1.3 0 0 -6.57473 8.68311 -1.8543 -9.99728 0.04 
626 1 1 0.426864 -0.910426 -0.89955 0 0 0 0.499198 -1.61055 2.11481 -121.796 55.4177 58.7449 -18.0126 20.3493 18.4976 0.04 
503 1 1 0.793543 -0.94886 -0.961965 0 0 0 0.518114 -0.557635 -0.582346 -4.14094 4.13405 110.451 2.31114 1.27945 -1.7743 0.04 
554 1 1 0.878142 -0.886989 -0.963163 0 0 0 -0.750081 1.06354 0.0869803 6.06255 -6.32055 168.587 3.40325 10.2938 -15.6791 0.04 
488 1 1 -0.956978 -0.805907 -0.96528 0 0 0 0.865094 -0.668812 1.08416 -27.3704 26.5584 244.719 10.9306 5.34983 3.91565 0.04 
239 1 1 -0.835132 -0.811096 -0.948687 0 0 0 0.262876 0.76439 0.846873 0 0 -6.57473 -6.66073 10.299 -16.5443 0.04 
592 1 1 -0.714609 -0.87798 -0.928131 0 0 0 0.359923 -0.617173 0.587327 0 0 -6.57473 -0.983655 -0.780207 3.25731 0.04 
380 1 1 -0.545102 -0.842697 -0.959933 0 0 0 0.634507 -1.13255 0.126504 -18.4706 -50.6359 -14.7878 -17.2147 -0.563456 15.9798 0.04 
402 1 1 -0.439074 -0.833953 -0.957145 0 0 0 -1.05296 -1.0895 -0.774526 -149.113 -32.8163 14.9213 -8.01866 2.1312 4.33856 0.04 
322 1 1 -0.365457 -0.819239 -0.964203 0 0 0 1.19978 -1.51999 0.315322 136.828 42.0413 197.216 9.19949 -1.24377 -14.0082 0.04 
285 1 1 -0.231203 -0.821952 -0.958353 0 0 0 -0.107083 0.569616 -0.30898 0 0 -6.57473 -12.5746 -8.09235 2.20571 0.04 
494 1 1 -0.153601 -0.880555 -0.947406 0 0 0 -1.34841 -0.794166 -0.0548003 -52.8511 35.4424 3.65753 5.28849 -13.7992 4.67775 0.04 
204 1 1 0.0792251 -0.874195 -0.927487 0 0 0 -0.628784 0.020861 -0.679403 0 0 -6.57473 5.36666 -9.33385 -7.12429 0.04 
947 1 1 0.272492 -0.863136 -0.957651 0 0 0 -1.23626 -0.274121 0.642916 0 0 -6.57473 11.1101 -13.8204 -2.53125 0.04 
159 1 1 0.434605 -0.824673 -0.924655 0 0 0 -0.00495439 -1.54483 0.669391 -18.0682 -172.211 15.6671 -7.78781 -12.0845 0.19814 0.04 
1019 1 1 0.538752 -0.835392 -0.966792 0 0 0 -1.19742 -0.751225 -0.875935 -39.2953 23.7534 272.086 -3.07697 -16.478 0.0371111 0.04 
1 1 1 0.695361 -0.826465 -0.905957 0 0 0 -0.547042 -0.252541 0.876263 0 0 -6.57473 27.8013 2.24469 6.73183 0.04 
729 1 1 0.777896 -0.86487 -0.944784 0 0 0 -0.0986377 -0.379647 0.463714 0 0 -6.57473 3.36109 4.96117 -28.6951 0.04 
778 1 1 -0.860597 -0.728308 -0.943712 0 0 0 0.634409 -1.70507 0.597003 -0.250178 2.08615 -6.92397 6.65649 7.15723 5.8178 0.04 
448 1 1 -0.0847915 -0.836807 -0.923631 0 0 0 -0.0579533 -0.0240203 -1.65749 -24.4796 77.1125 -48.9023 -10.3985 -4.15329 14.3893 0.04 
218 1 1 0.154494 -0.810492 -0.958253 0 0 0 0.209286 -2.19764 -1.44441 -155.744 -40.2077 -78.8078 -14.5065 1.88341 -3.98527 0.04 
850 1 1 0.945104 -0.821685 -0.958376 0 0 0 0.187931 -0.759293 -0.718847 -9.87452 29.2598 -116.151 -0.124876 4.74319 -3.01515 0.04 
586 1 1 -0.59225 -0.734557 -0.95575 0 0 0 -1.37299 -1.76562 -1.75211 -118.39 -149.002 -39.3594 7.6091 4.17634 -17.872 0.04 
511 1 1 -0.462126 -0.713519 -0.929633 0 0 0 0.567819 0.51008 -0.756581 0 0 -6.57473 -2.0542 -21.2571 5.67928 0.04 
384 1 1 0.012038 -0.739495 -0.912441 0 0 0 -0.542526 -2.17994 1.02442 0 0 -6.57473 -14.6495 -10.1525 -8.66336 0.04 
772 1 1 0.444142 -0.751218 -0.937477 0 0 0 0.507701 -1.5373 -1.35727 62.9496 119.33 -127.547 7.3266 27.5164 12.0364 0.04 
688 1 1 0.560561 -0.74593 -0.955058 0 0 0 0.300602 0.0365996 -0.576529 0 0 -6.57473 -6.15206 -11.6894 2.16679 0.04 
188 1 1 0.806587 -0.686167 -0.947289 0 0 0 -0.566718 0.261399 1.01367 0 0 -6.57473 16.3404 -7.77933 -7.20712 0.04 
252 1 1 0.933347 -0.741923 -0.905013 0 0 0 1.55291 -1.16498 0.411087 0 0 -6.57473 5.94365 -20.4681 -1.28548 0.04 
670 1 1 -0.871652 -0.649831 -0.953196 0 0 0 1.036 -0.608174 -0.711993 47.7673 -321.736 -179.954 8.9953 9.01304 -0.225437 0.04 
382 1 1 -0.434991 -0.639734 -0.96014 0 0 0 2.08492 -0.540909 -0.79926 -0.776956 0.469309 11.5792 -14.0619 6.5058 16.4299 0.04 
631 1 1 -0.350542 -0.644924 -0.957777 0 0 0 0.455079 -0.140222 -1.77006 0 0 -6.57473 17.5518 -3.26676 14.4719 0.04 
305 1 1 -0.0667821 -0.630799 -0.929863 0 0 0 -0.770041 -1.27683 1.98659 -147.266 31.1867 51.642 -11.9909 15.276 -1.35196 0.04 
143 1 1 0.00157406 -0.642532 -0.959499 0 0 0 -0.130258 -0.321327 0.646397 147.266 -31.1867 -64.7915 6.83823 -2.11483 16.7939 0.04 
561 1 1 0.428336 -0.663502 -0.952223 0 0 0 0.104319 -0.0258883 1.56957 0 0 -6.57473 1.56735 1.69322 -5.99159 0.04 
664 1 1 0.50457 -0.688931 -0.963798 0 0 0 -0.691571 0.0132508 0.00760361 10.4847 -1.39801 204.976 2.08741 0.101941 -1.61918 0.04 
564 1 1 -0.765348 -0.62039 -0.924254 0 0 0 -0.99735 -1.8422 0.486952 0 0 -6.57473 8.28975 -9.57865 -5.27396 0.04 
241 1 1 -0.655136 -0.577133 -0.921733 0 0 0 0.370864 -1.72124 0.365558 0 0 -6.57473 8.92583 -3.84306 3.72584 0.04 
480 1 1 -0.548756 -0.675314 -0.943641 0 0 0 0.78271 -1.53735 -0.48169 103.516 157.015 25.3567 17.2909 -18.9446 -13.8184 0.04 
675 1 1 -0.175368 -0.605153 -0.946817 0 0 0 0.68858 -2.56038 0.948457 0 0 -6.57473 7.01193 -6.45283 9.44538 0.04 
867 1 1 0.177006 -0.572161 -0.947597 0 0 0 0.0497879 -0.347195 0.703131 173.564 -33.9441 13.721 5.36889 -5.82467 1.77747 0.04 
279 1 1 0.591382 -0.516841 -0.958657 0 0 0 -2.09167 1.08346 1.62682 127.386 114.153 -5.09804 -10.3748 -24.2051 -13.8731 0.04 
852 1 1 0.674965 -0.530218 -0.962132 0 0 0 -0.578498 -0.539989 0.0308398 4.31098 4.05937 111.853 -3.58555 3.67836 -0.667078 0.04 
840 1 1 0.808584 -0.581649 -0.908641 0 0 0 0.37058 -0.226121 0.649821 0 0 -6.57473 6.14819 7.254 2.27136 0.04 
532 1 1 -0.885789 -0.512591 -0.929774 0 0 0 1.58856 -1.5297 0.216024 -165.937 -17.3314 -15.3985 -6.81855 2.66553 -9.58533 0.04 
690 1 1 -0.81094 -0.501769 -0.923443 0 0 0 -0.685905 -0.956107 0.669485 180.962 -6.18916 -13.327 -8.98694 -6.12444 11.904 0.04 
344 1 1 -0.456574 -0.541427 -0.955197 0 0 0 -0.0140048 -0.614964 -0.984009 -31.1196 -97.482 -42.6723 18.0563 -10.3455 11.8161 0.04 
811 1 1 -0.234115 -0.543215 -0.948689 0 0 0 0.217187 -1.20864 1.7052 0 0 -6.57473 25.3298 6.43072 0.90257 0.04 
201 1 1 -0.11978 -0.47899 -0.941255 0 0 0 -0.416349 0.509412 0.570085 76.1117 -84.2617 -14.704 11.4166 -0.148002 1.79529 0.04 
805 1 1 -0.0509696 -0.548934 -0.964501 0 0 0 0.904888 0.0131069 -2.54144 -14.1241 -1.36075 277.215 1.75242 1.99849 -6.2386 0.04 
784 1 1 0.114459 -0.531729 -0.966704 0 0 0 1.52008 -0.925671 -1.77286 -104.707 248.405 319.393 -7.70555 -5.91148 -9.50565 0.04 
297 1 1 0.224468 -0.481158 -0.921817 0 0 0 0.558685 -0.201572 0.34353 0 0 -6.57473 7.48552 6.53877 3.72205 0.04 
845 1 1 0.300765 -0.533952 -0.95482 0 0 0 0.0277716 -0.0731219 1.09391 0 0 -6.57473 -13.9732 -8.92691 -4.63849 0.04 
981 1 1 0.537926 -0.569776 -0.959564 0 0 0 0.475898 -2.31959 1.0562 -18.3521 -143.502 -57.147 8.2319 15.3597 -21.6443 0.04 
710 1 1 -0.435134 -0.473975 -0.92618 0 0 0 0.0966215 1.26281 1.82896 31.1196 97.482 29.5229 27.6078 -1.06246 2.7987 0.04 
1095 1 1 -0.252344 -0.432144 -0.921004 0 0 0 1.26838 0.459897 -0.571414 27.7116 14.3181 -104.939 14.1066 5.61705 -5.89322 0.04 
807 1 1 -0.146414 -0.409371 -0.96133 0 0 0 0.440628 1.03389 1.00246 -41.8211 88.444 28.957 9.76363 -11.4551 -3.52486 0.04 
752 1 1 0.168427 -0.421357 -0.955049 0 0 0 0.533189 -0.21395 1.13367 0 0 -6.57473 -2.11992 11.7458 14.8276 0.04 
584 1 1 0.359841 -0.432624 -0.954704 0 0 0 1.56109 -0.785363 -0.845154 0 0 -6.57473 5.43432 14.2573 -0.883586 0.04 
644 1 1 -0.947486 -0.432032 -0.966117 0 0 0 2.5326 0.163333 -0.0635204 -16.921 2.35935 335.12 -10.7458 23.1584 6.76937 0.04 
312 1 1 -0.850344 -0.446352 -0.883199 0 0 0 -1.81652 -1.55781 1.53052 110.726 -8.95101 -71.9921 22.696 -0.809435 -2.33524 0.04 
990 1 1 -0.671055 -0.342347 -0.960889 0 0 0 -2.71385 -1.0507 -0.584649 2.71206 0.895569 50.5473 6.99859 -9.36432 -2.16831 0.04 
883 1 1 -0.343545 -0.398293 -0.943775 0 0 0 -0.248546 -1.42176 0.404682 0 0 -6.57473 24.9846 15.2652 14.8278 0.04 
619 1 1 -0.220018 -0.362283 -0.937507 0 0 0 0.840516 1.03996 -0.740764 42.3177 45.0056 -82.8144 14.2733 8.45214 -0.968284 0.04 
277 1 1 -0.00866045 -0.362307 -0.959913 0 0 0 1.23437 0.159804 -2.24345 0 0 -6.57473 -5.46847 17.8349 5.23806 0.04 
557 1 1 0.175844 -0.330949 -0.916633 0 0 0 1.26427 -0.458247 -0.158119 44.6378 -128.426 -215.838 -10.7705 -7.20282 -13.4323 0.04 
1170 1 1 0.531148 -0.292804 -0.941357 0 0 0 1.71837 1.79651 1.1547 0 0 -6.57473 9.06694 13.935 -7.42287 0.04 
915 1 1 0.717835 -0.407054 -0.879917 0 0 0 3.25041 -1.71956 1.00818 334.75 161.323 -179.972 -9.86413 30.8943 16.0411 0.04 
553 1 1 0.876337 -0.454965 -0.941391 0 0 0 -0.300352 -2.85696 0.99139 150.277 0.919397 -1.74993 -26.0187 -9.08393 -12.4854 0.04 
837 1 1 -0.952508 -0.29773 -0.96498 0 0 0 0.315072 -0.147603 -1.58374 9.95924 -11.0869 291.49 6.96189 11.0149 -1.41479 0.04 
328 1 1 -0.839938 -0.287351 -0.961262 0 0 0 -1.06842 -0.316778 0.00208512 3.51317 -0.0687019 63.7022 8.58474 0.395691 -10.2685 0.04 
800 1 1 -0.194707 -0.286562 -0.960186 0 0 0 0.774078 -0.396094 1.16738 -0.2346 0.0398137 -11.3338 4.70678 -11.3543 -5.60037 0.04 
732 1 1 -0.0766454 -0.305917 -0.93704 0 0 0 -1.64781 0.306689 -0.503273 0 0 -6.57473 17.1234 2.12462 6.4323 0.04 
759 1 1 -0.0160387 -0.234739 -0.954778 0 0 0 -0.866032 1.41613 0.255044 0 0 -6.57473 -2.43394 -14.7064 4.75722 0.04 
1039 1 1 0.346449 -0.361096 -0.879306 0 0 0 0.303916 -1.00924 0.859169 -3.14633 7.87592 -15.6878 14.3865 -11.2066 -3.92721 0.04 
973 1 1 0.939556 -0.316788 -0.948966 0 0 0 2.36765 -2.42195 1.02809 0 0 -6.57473 -4.49815 -19.3746 5.62703 0.04 
524 1 1 -0.74106 -0.117318 -0.939806 0 0 0 0.819984 0.485839 0.0653295 104.026 -271.946 -128.592 1.66734 9.81531 -11.1993 0.04 
672 1 1 -0.661186 -0.185949 -0.916506 0 0 0 -1.16693 -0.270354 0.196217 -2.60215 -18.5376 -4.12584 10.0971 4.4456 0.3575 0.04 
527 1 1 -0.586644 -0.248248 -0.959075 0 0 0 -2.32213 0.781048 -0.287007 -138.764 211.58 -231.338 -7.98314 16.365 6.52958 0.04 
542 1 1 -0.49878 -0.255778 -0.959722 0 0 0 -1.75168 -0.251058 -0.0582308 0 0 -6.57473 -7.28255 -0.520506 5.40878 0.04 
618 1 1 -0.376475 -0.222095 -0.959724 0 0 0 -0.562547 -0.776556 -2.97951 2.55807 -20.9186 -57.1142 -5.88666 -3.85471 -7.02947 0.04 
651 1 1 -0.11466 -0.226796 -0.960923 0 0 0 2.30167 1.08817 -0.840646 -2.9281 -1.07064 55.7793 -6.55322 0.870523 -1.62423 0.04 
838 1 1 0.888967 -0.19577 -0.959369 0 0 0 1.55619 0.584585 -0.568237 374.082 -134.789 -143.33 13.7608 -7.72225 24.6683 0.04 
798 1 1 -0.380822 -0.122581 -0.909405 0 0 0 -1.09247 2.41652 0.973817 -5.5036 261.46 -95.0034 -1.00201 1.67826 5.57894 0.04 
1085 1 1 -0.249128 -0.113029 -0.962359 0 0 0 -0.164006 0.754714 0.731277 -3.38405 -5.07334 115.393 -0.0678309 -17.167 -0.00608925 0.04 
983 1 1 -0.0218997 -0.16433 -0.909473 0 0 0 0.0685343 0.629731 2.28615 0 0 -6.57473 -19.1601 4.18123 -7.64592 0.04 
911 1 1 0.145078 -0.191876 -0.92969 0 0 0 -2.02711 -0.687144 -0.0101965 0 0 -6.57473 5.53907 -13.407 -20.3747 0.04 
118 1 1 0.573553 -0.133341 -0.920027 0 0 0 1.70539 -0.163602 1.93242 0 0 -6.57473 -18.1743 13.6122 -10.526 0.04 
818 1 1 0.960298 -0.141758 -0.9394 0 0 0 0.896758 -0.0432905 0.224161 -21.6036 15.8564 -68.7902 1.37103 -1.0545 -6.82559 0.04 
900 1 1 -0.915136 -0.0745169 -0.961899 0 0 0 -1.3698 1.07663 -1.09743 -34.1128 23.8221 86.5038 -8.52583 -6.62107 2.9566 0.04 
412 1 1 -0.632593 0.000136819 -0.962257 0 0 0 -0.917483 2.40677 -0.751793 -106.4 111.505 -25.7127 -3.61257 19.1392 -2.38231 0.04 
32 1 1 -0.572492 -0.102288 -0.962162 0 0 0 -1.33169 -0.686798 -0.484658 4.63262 4.32644 120.2 -14.3834 0.0860321 -5.05341 0.04 
721 1 1 -0.318198 -0.0510474 -0.916944 0 0 0 0.998856 0.352733 0.765824 0 0 -6.57473 -24.0877 1.0467 12.0476 0.04 
1044 1 1 -0.114136 -0.0480873 -0.955952 0 0 0 -1.19962 1.64411 -0.569678 81.8699 -226.703 -330.466 -13.877 -23.4055 -14.4988 0.04 
853 1 1 0.113711 -0.0127965 -0.932198 0 0 0 -1.4961 0.600431 1.56939 0 0 -6.57473 -37.1871 -3.88093 -27.3099 0.04 
208 1 1 0.30036 -0.0267528 -0.956417 0 0 0 -1.08109 2.50315 -0.557796 0 0 -6.57473 2.32159 -5.14085 -8.62795 0.04 
529 1 1 0.465771 -0.12079 -0.939415 0 0 0 -0.440855 -0.470411 0.477271 -101.874 -94.5245 -129.906 2.38284 -1.88058 10.4392 0.04 
240 1 1 0.526814 -0.0298767 -0.962228 0 0 0 -0.724792 1.21982 0.347449 -1.40829 -5.81476 113.083 -2.4822 -25.6455 -4.91479 0.04 
649 1 1 0.958366 -0.060774 -0.93969 0 0 0 0.833635 1.76314 0.306694 0 0 -6.57473 -8.02455 -19.9457 12.2968 0.04 
37 1 1 -0.562748 0.0529255 -0.938646 0 0 0 -0.618563 1.444 1.18494 0 0 -6.57473 -8.47738 -2.50941 -12.654 0.04 
691 1 1 -0.437296 -0.0690315 -0.934719 0 0 0 -0.237628 -0.937443 1.827 0 0 -6.57473 22.5406 -9.1563 4.17591 0.04 
809 1 1 -0.189803 -0.0253991 -0.931719 0 0 0 -0.716009 0.126768 0.554721 -184.574 -49.9952 -109.01 -12.4497 -9.39694 1.46265 0.04 
980 1 1 -0.0184958 -0.0443066 -0.929128 0 0 0 -1.36006 -2.11683 -0.156353 -7.97201 -45.2482 -43.7748 -5.30068 -2.34446 17.9813 0.04 
697 1 1 0.0615828 0.0588943 -0.951326 0 0 0 -1.70803 2.83994 -0.769072 0 0 -6.57473 -17.1936 4.94933 4.21753 0.04 
1054 1 1 0.667903 -0.0657763 -0.935964 0 0 0 0.427016 -0.601722 1.52083 0 0 -6.57473 -10.6068 5.17076 0.711273 0.04 
842 1 1 -0.783772 0.0189816 -0.943721 0 0 0 -0.0291626 1.52654 -1.01537 -34.1162 -49.2655 -53.7188 -5.28269 8.30412 5.403 0.04 
1014 1 1 -0.716603 0.0834088 -0.957433 0 0 0 -0.84001 1.98258 -1.39643 89.1367 42.253 -156.586 19.923 12.6898 -16.5148 0.04 
910 1 1 -0.501143 0.106501 -0.960257 0 0 0 0.709246 1.6793 -0.23176 -0.123607 -0.858189 10.7662 -17.7127 14.2727 -5.08518 0.04 
637 1 1 -0.376904 0.0700166 -0.919212 0 0 0 -0.226356 2.23591 -1.35195 -222.681 26.7758 17.5699 -15.2085 -5.82634 -8.61496 0.04 
401 1 1 -0.0106855 0.0137212 -0.8778 0 0 0 -0.670687 0.232548 1.06454 -281.596 408.878 -231.228 -8.94646 32.9086 -17.1082 0.04 
425 1 1 0.223311 0.192668 -0.939675 0 0 0 2.32741 0.674293 -0.293534 0 0 -6.57473 -18.3438 -1.80265 27.0334 0.04 
988 1 1 0.556349 0.109087 -0.80943 0 0 0 1.93221 3.20851 3.46991 0 0 -6.57473 -11.0085 11.4018 -28.5185 0.04 
296 1 1 0.68368 0.111344 -0.931727 0 0 0 -0.584025 2.25553 1.02269 0 0 -6.57473 -5.75208 -12.545 8.31742 0.04 
779 1 1 -0.617546 0.213233 -0.946707 0 0 0 -0.0158055 2.11636 -0.784586 -82.7624 -261.454 -64.0685 -1.90484 -6.96389 6.60144 0.04 
498 1 1 -0.432118 0.200044 -0.947735 0 0 0 0.543134 2.77972 -0.14891 248.163 90.4956 -142.613 -11.3847 -3.2152 0.100408 0.04 
684 1 1 -0.33254 0.124957 -0.953161 0 0 0 0.263329 1.22165 0.802693 38.7858 48.7015 -40.4036 -6.7891 -6.17738 -1.39926 0.04 
588 1 1 0.333611 0.188471 -0.919974 0 0 0 -0.480395 1.98799 1.76297 0 0 -6.57473 -4.38186 -16.7761 -7.54603 0.04 
617 1 1 0.643143 0.23389 -0.964356 0 0 0 1.24533 4.10861 0.532579 -0.97834 -11.7519 229.275 -0.286527 23.9149 -23.115 0.04 
442 1 1 -0.962066 0.197228 -0.923462 0 0 0 1.03829 1.31888 -0.263588 -14.7504 -5.6981 -26.7088 8.98596 11.515 22.3356 0.04 
605 1 1 -0.344089 0.283083 -0.926537 0 0 0 0.202212 3.35644 0.900581 0 0 -6.57473 -3.91136 2.79286 -21.9777 0.04 
318 1 1 0.0054922 0.233277 -0.88917 0 0 0 0.567522 2.79738 0.774643 101.142 -84.4002 9.50587 17.9294 -13.5362 -11.3417 0.04 
461 1 1 0.0736582 0.317107 -0.938263 0 0 0 -0.680925 3.40481 0.229951 -36.331 -71.1849 -28.33 -11.7765 -24.1708 -60.8163 0.04 
391 1 1 0.357239 0.316283 -0.925302 0 0 0 -0.0711598 3.33816 0.340909 0 0 -6.57473 -11.1991 -4.09545 8.27477 0.04 
835 1 1 0.725362 0.252215 -0.930139 0 0 0 1.34849 2.76203 0.643286 19.3065 -35.3488 -38.7912 -6.54206 -4.81477 0.471106 0.04 
886 1 1 0.818778 0.244568 -0.956709 0 0 0 0.659312 1.53564 -0.417262 0 0 -6.57473 -1.54558 18.2485 -3.55304 0.04 
970 1 1 -0.961223 0.297098 -0.917812 0 0 0 0.252619 1.12452 1.95119 64.8621 -1.90251 -9.20117 -18.9195 -7.74748 -1.73195 0.04 
707 1 1 -0.702911 0.297284 -0.932189 0 0 0 1.43852 2.46211 -0.956728 0 0 -6.57473 -19.3252 -3.1381 -2.03556 0.04 
570 1 1 -0.245873 0.261014 -0.955038 0 0 0 1.98622 0.740797 0.553292 0 0 -6.57473 4.00513 14.5912 9.42669 0.04 
75 1 1 -0.219218 0.293126 -0.881834 0 0 0 -0.340463 0.0285663 2.36878 0 0 -6.57473 4.67309 -5.91761 -1.78092 0.04 
538 1 1 -0.0541225 0.281222 -0.894908 0 0 0 1.52058 1.56362 1.81537 -101.142 84.4002 -22.6553 1.15191 -2.84521 13.1754 0.04 
111 1 1 -0.696805 0.395337 -0.933993 0 0 0 0.15362 1.57791 0.420282 -1.61215 -37.2539 -26.6294 3.69612 5.19591 -5.05827 0.04 
269 1 1 -0.586462 0.277614 -0.964165 0 0 0 0.541674 -1.21729 -0.217084 50.631 -88.0488 43.7748 -3.34191 -0.662772 -12.5211 0.04 
750 1 1 -0.267952 0.373245 -0.942265 0 0 0 -0.647543 2.55569 1.11258 0 0 -6.57473 0.23792 1.01501 -28.2214 0.04 
830 1 1 0.10728 0.382629 -0.914209 0 0 0 0.972681 3.6623 1.61171 36.331 71.1849 15.1806 -8.63577 -10.0396 12.2921 0.04 
903 1 1 0.25514 0.323389 -0.922874 0 0 0 1.11956 -0.715643 2.29981 150.85 182.113 80.3822 -22.8734 -0.552799 16.0065 0.04 
356 1 1 0.560884 0.369103 -0.948951 0 0 0 -0.519869 2.60543 0.952795 90.5597 -30.2073 -19.1606 10.9905 -33.4277 -16.6913 0.04 
359 1 1 0.814147 0.345615 -0.959593 0 0 0 -0.163826 1.4334 -0.737193 0 0 -6.57473 -0.967325 9.53845 0.953443 0.04 
548 1 1 -0.464027 0.406839 -0.923053 0 0 0 0.448597 1.32801 0.714348 0 0 -6.57473 -17.6826 -3.30219 8.52834 0.04 
652 1 1 -0.391425 0.472473 -0.89647 0 0 0 -0.38795 2.29333 2.12493 0 0 -6.57473 -12.8727 9.78126 11.9188 0.04 
582 1 1 -0.583807 0.496557 -0.936582 0 0 0 -1.8226 1.93253 2.17453 0 0 -6.57473 -30.5439 -5.27579 3.21531 0.04 
754 1 1 -0.0471936 0.479916 -0.952155 0 0 0 2.89627 -2.55143 0.464539 0 0 -6.57473 -4.7067 -3.33279 -0.855158 0.04 
393 1 1 0.182519 0.424022 -0.937424 0 0 0 -1.81745 -1.07013 0.737236 0 0 -6.57473 -2.82747 12.5848 -23.5378 0.04 
237 1 1 0.749609 0.429139 -0.941848 0 0 0 1.76651 -0.760609 0.965224 0 0 -6.57473 -13.3302 16.7273 -6.16529 0.04 
394 1 1 0.124606 0.618416 -0.959431 0 0 0 0.743088 2.53046 0.337276 0 0 -6.57473 -20.7443 -1.1934 8.8108 0.04 
680 1 1 0.207008 0.517193 -0.941088 0 0 0 1.0667 2.00125 0.284541 0 0 -6.57473 -6.91323 5.31558 -29.9332 0.04 
107 1 1 0.634722 0.533881 -0.944023 0 0 0 -0.950081 1.98787 0.127161 0 0 -6.57473 -0.74255 5.20038 -0.586376 0.04 
343 1 1 -0.57556 0.596804 -0.942879 0 0 0 -0.616367 0.883942 -0.0593174 0 0 -6.57473 -1.79539 1.5694 3.07206 0.04 
286 1 1 -0.406731 0.620287 -0.948957 0 0 0 -0.379655 1.59311 -0.246942 0 0 -6.57473 -9.81413 -8.6969 -8.26574 0.04 
1027 1 1 0.868692 0.626683 -0.85794 0 0 0 1.12683 -2.19277 1.85397 0 0 -6.57473 -20.3504 2.96689 8.86335 0.04 
735 1 1 -0.512936 0.667157 -0.950837 0 0 0 -1.36024 1.18883 0.00640611 0 0 -6.57473 -29.3326 -8.37476 8.17453 0.04 
236 1 1 -0.127891 0.571414 -0.899354 0 0 0 -1.36758 0.42042 2.78394 -8.0983 -25.8028 -31.1428 25.902 18.8208 44.8906 0.04 
407 1 1 0.035573 0.645239 -0.872014 0 0 0 1.95971 2.27755 0.341144 0 0 -6.57473 17.9736 27.9796 -7.69508 0.04 
661 1 1 -0.842432 0.754798 -0.892805 0 0 0 1.51062 1.3805 1.59351 0 0 -6.57473 -22.8453 31.1035 3.01273 0.04 
335 1 1 -0.390094 0.813433 -0.915906 0 0 0 0.657348 2.50535 0.288202 0 0 -6.57473 -6.82023 -5.01399 -28.3078 0.04 
337 1 1 0.822639 0.743951 -0.962936 0 0 0 -0.923839 0.968912 0.793436 4.22014 -6.40032 146.753 -6.73241 -11.8471 -7.4561 0.04 
15 1 1 -0.745738 0.733244 -0.904702 0 0 0 0.926206 -0.827171 1.9255 0 0 -6.57473 -6.50667 -11.6579 -16.9603 0.04 
468 1 1 0.593782 0.717469 -0.949505 0 0 0 1.21679 -1.25846 -0.251444 0 0 -6.57473 4.06078 5.36149 21.8672 0.04 
329 1 1 -0.949726 0.825986 -0.938666 0 0 0 0.989122 -0.932742 0.347529 0 0 -6.57473 -6.75774 2.42897 -8.55187 0.04 
403 1 1 -0.228728 0.862978 -0.952825 0 0 0 0.719203 0.497438 -0.0652179 0 0 -6.57473 -8.9334 21.0299 -10.5698 0.04 
422 1 1 -0.876279 0.918068 -0.947314 0 0 0 0.229206 0.242842 0.190096 0 0 -6.57473 7.70406 8.21414 8.03489 0.04 
280 1 1 -0.768905 0.933641 -0.93076 0 0 0 -1.4245 1.5933 1.04138 0 0 -6.57473 0.802387 15.3405 -6.73907 0.04 
36 1 1 -0.485868 0.942497 -0.88773 0 0 0 1.19513 0.558382 1.38542 0 0 -6.57473 -9.71938 13.7051 -12.6529 0.04 
271 1 1 0.925135 0.916636 -0.943866 0 0 0 0.35658 -0.0771053 -0.397922 0 0 -6.57473 -6.67806 -5.71109 -16.4747 0.04 
723 1 1 -0.226583 0.950769 -0.920276 0 0 0 -0.846778 -0.0374376 0.452949 0 0 -6.57473 -4.64388 -4.38471 -23.9862 0.04 
62 1 1 0.692077 0.953313 -0.951786 0 0 0 -2.52884 -0.509125 -0.0465648 0 0 -6.57473 12.5095 -11.0782 -9.41378 0.04 
415 1 1 -0.748765 -0.960204 -0.942241 0 0 0 -0.617843 -0.534318 -0.468582 0.910544 18.3193 -6.47522 -10.251 -2.91596 1.95089 0.04 
323 1 1 -0.438106 -0.951268 -0.908543 0 0 0 -0.18924 0.398495 -0.201931 0 0 -6.57473 0.191531 -0.986461 7.7334 0.04 
647 1 1 -0.324304 -0.935737 -0.896144 0 0 0 0.699642 1.17041 -2.41865 54.7318 48.2975 24.0453 16.2136 -1.63615 6.51145 0.04 
655 1 1 0.121102 -0.948203 -0.953504 0 0 0 -1.45913 -1.6434 -0.00636513 0 0 -6.57473 0.755474 -7.54052 7.48827 0.04 
203 1 1 0.488002 -0.937082 -0.936165 0 0 0 -1.16777 0.919054 -1.17512 121.796 -55.4177 -71.8943 -10.5802 6.22127 18.8197 0.04 
662 1 1 0.649842 -0.947399 -0.85902 0 0 0 -0.770457 -0.158515 0.950258 0 0 -6.57473 3.85355 -25.9999 5.75289 0.04 
424 1 1 0.913214 -0.942791 -0.895407 0 0 0 -0.474499 -1.2103 1.05095 0 0 -6.57473 9.54589 -9.09103 -13.1234 0.04 
242 1 1 -0.623353 -0.916847 -0.856918 0 0 0 0.782955 -0.0886958 0.501796 145.236 14.6468 -206.974 24.4732 -6.81295 -0.412072 0.04 
550 1 1 -0.461688 -0.878439 -0.879159 0 0 0 0.359784 -0.221513 0.806201 0 0 -6.57473 7.17347 1.00638 -14.5364 0.04 
517 1 1 -0.233447 -0.87114 -0.892789 0 0 0 -0.696349 1.04838 -0.714025 15.0099 -0.0418551 -26.9331 5.00588 1.70684 -21.149 0.04 
827 1 1 -0.0639739 -0.899909 -0.884609 0 0 0 0.466996 -1.06241 0.880987 -21.7189 11.7704 14.5598 -12.4097 -0.107235 -15.287 0.04 
87 1 1 0.0507714 -0.913041 -0.860157 0 0 0 0.694141 -1.12436 1.0696 2.33452 -26.5959 -59.6909 -4.80161 9.7 -2.73651 0.04 
446 1 1 -0.92567 -0.846451 -0.904807 0 0 0 0.54174 0.365125 -0.0286764 44.2897 22.9298 76.1693 -4.15554 -9.39036 5.27957 0.04 
170 1 1 -0.762095 -0.822275 -0.891217 0 0 0 0.248406 0.890973 -0.0964353 0 0 -6.57473 -15.2267 -3.749 14.2359 0.04 
372 1 1 -0.706335 -0.839055 -0.82826 0 0 0 -1.57778 0.408959 1.2798 0 0 -6.57473 -10.4177 -5.80011 19.2313 0.04 
579 1 1 -0.316569 -0.830678 -0.90198 0 0 0 0.400421 -0.933474 0.220158 4.0552 -1.18204 -1.7105 -2.25025 8.40598 -3.44822 0.04 
669 1 1 0.00150154 -0.825955 -0.881733 0 0 0 0.471979 0.10275 0.628228 0 0 -6.57473 9.20648 4.91373 -4.12515 0.04 
74 1 1 0.504976 -0.848731 -0.868926 0 0 0 -0.178331 -0.648168 0.405432 -192.039 -23.169 74.7282 -63.782 -12.9664 7.88383 0.04 
396 1 1 0.572089 -0.836933 -0.897992 0 0 0 0.232276 1.96196 -0.336003 172.885 282.806 -109.218 -9.16642 2.03627 8.30423 0.04 
972 1 1 0.824223 -0.884455 -0.865612 0 0 0 0.299104 -1.26555 0.591177 0 0 -6.57473 -1.57948 -3.38838 -11.5281 0.04 
371 1 1 0.950433 -0.845007 -0.885012 0 0 0 0.14556 -0.768732 -2.06034 9.87452 -29.2598 103.001 2.14984 0.0521986 2.47594 0.04 
379 1 1 -0.647291 -0.793927 -0.947798 0 0 0 -1.52115 -0.385761 -0.400301 0 0 -6.57473 -1.89427 16.7901 21.2258 0.04 
52 1 1 -0.520524 -0.768714 -0.951293 0 0 0 -0.733328 -0.062029 -1.39832 33.3449 42.6226 2.49162 13.7563 -15.7569 -5.60585 0.04 
194 1 1 0.08412 -0.79915 -0.884232 0 0 0 -0.6106 0.492623 -0.909109 -146.661 -59.8998 -53.5284 24.4017 -1.35006 -22.7016 0.04 
395 1 1 0.594541 -0.762172 -0.87452 0 0 0 -0.57328 -0.471446 1.0026 0 0 -6.57473 -12.2649 4.98062 11.4327 0.04 
682 1 1 0.766873 -0.784996 -0.900974 0 0 0 -1.20199 -0.464002 0.230361 0 0 -6.57473 0.539324 -14.8255 10.7042 0.04 
260 1 1 -0.949421 -0.752231 -0.900789 0 0 0 -0.893536 -1.79112 -0.155455 0 0 -6.57473 12.7963 28.3682 -10.917 0.04 
290 1 1 -0.704494 -0.75091 -0.911828 0 0 0 -0.695753 -1.82561 -0.444293 0 0 -6.57473 -5.65973 -3.09941 -3.04022 0.04 
714 1 1 -0.373374 -0.743503 -0.934416 0 0 0 -1.24567 0.310711 0.0537795 0 0 -6.57473 6.74204 -1.94023 1.87784 0.04 
700 1 1 -0.208576 -0.678584 -0.957944 0 0 0 0.281088 0.0575832 -2.30357 0 0 -6.57473 -3.56976 -19.6318 -6.97068 0.04 
161 1 1 -0.162906 -0.759354 -0.90842 0 0 0 1.71064 -0.530816 -0.119211 0.381241 -35.233 -73.2729 -12.3177 -25.3975 -3.09297 0.04 
581 1 1 -0.0782148 -0.753116 -0.964893 0 0 0 0.351913 -1.56772 -0.0643263 -9.55157 9.78797 266.948 11.1356 -20.4921 -12.8046 0.04 
235 1 1 0.0864555 -0.704136 -0.953828 0 0 0 -1.18305 -0.295331 -1.85063 0 0 -6.57473 4.43081 3.20862 0.653131 0.04 
656 1 1 0.296667 -0.699798 -0.952379 0 0 0 0.922371 0.192696 0.416679 52.3185 144.408 -311.023 16.1648 15.7509 7.45463 0.04 
894 1 1 -0.91274 -0.667828 -0.871939 0 0 0 1.22266 -0.390088 0.830711 -62.5675 19.4085 -34.1785 -7.04591 8.13052 -21.7874 0.04 
925 1 1 -0.630016 -0.657399 -0.869686 0 0 0 1.49283 0.473722 0.817883 35.1449 -35.3446 -34.1925 -4.58236 7.17782 1.01677 0.04 
668 1 1 -0.315571 -0.603689 -0.892368 0 0 0 -0.184051 0.404933 0.157 0 0 -6.57473 -1.41492 -5.24051 -5.78442 0.04 
616 1 1 -0.0534216 -0.698041 -0.863588 0 0 0 -0.678939 -1.1943 0.38096 0 0 -6.57473 16.1366 -5.69055 3.20504 0.04 
354 1 1 0.162573 -0.650902 -0.92479 0 0 0 0.379838 0.172788 -0.380875 77.4753 -71.9382 23.9724 13.9235 -8.2785 2.10135 0.04 
156 1 1 0.414914 -0.721253 -0.873729 0 0 0 0.294526 -2.34841 1.64629 -44.8814 52.8817 92.1561 -0.171683 13.4542 12.6833 0.04 
821 1 1 0.482434 -0.662671 -0.87136 0 0 0 0.628621 -0.749795 0.61725 0 0 -6.57473 1.67905 -1.57923 -0.583624 0.04 
880 1 1 0.573757 -0.646167 -0.941705 0 0 0 0.400844 -0.295464 -1.72651 -44.8087 18.6322 -22.7749 -2.93989 17.8564 4.13084 0.04 
50 1 1 0.640972 -0.675225 -0.91327 0 0 0 0.273799 -0.324324 -0.699071 44.8087 -18.6322 9.62541 -4.75951 9.51255 0.82275 0.04 
1055 1 1 -0.90408 -0.600582 -0.911978 0 0 0 -1.08454 0.295339 -1.48084 -113.227 226.499 150.33 -4.81852 0.32966 -5.04946 0.04 
960 1 1 -0.835759 -0.582641 -0.956251 0 0 0 -0.918504 -0.204262 -2.26194 71.2129 123.213 -6.99384 -8.00078 4.06652 15.9188 0.04 
957 1 1 -0.435425 -0.582139 -0.881912 0 0 0 0.529812 1.46292 0.24513 0 0 -6.57473 -10.6151 -2.61322 -3.47704 0.04 
986 1 1 0.0190578 -0.625511 -0.870055 0 0 0 0.584403 -2.05846 1.64285 0 0 -6.57473 -10.2602 7.31376 -10.6963 0.04 
773 1 1 0.106132 -0.603535 -0.947167 0 0 0 -1.07667 -1.70131 -0.74593 -162.397 -130.899 13.1821 -11.5401 17.7979 -10.8488 0.04 
725 1 1 0.267734 -0.640094 -0.885779 0 0 0 0.496079 -2.23154 -1.01096 0 0 -6.57473 -2.95689 10.2055 -9.84822 0.04 
361 1 1 0.468443 -0.550922 -0.932446 0 0 0 1.44582 -0.789796 -1.46249 109.722 -217.252 -26.3914 -3.59601 -14.057 -25.6799 0.04 
857 1 1 -0.581882 -0.544951 -0.940236 0 0 0 0.748867 -0.488187 -0.743205 0 0 -6.57473 -1.6834 4.14905 9.5701 0.04 
873 1 1 -0.313445 -0.556282 -0.965156 0 0 0 -1.36941 -1.93792 -1.81793 18.6069 -10.4166 299.858 -12.7286 -13.1525 2.01785 0.04 
132 1 1 -0.235811 -0.592536 -0.848834 0 0 0 1.18892 -1.33502 1.0311 0 0 -6.57473 -4.58312 11.9428 4.67162 0.04 
962 1 1 -0.127441 -0.571255 -0.876264 0 0 0 -1.12691 -2.20035 1.59577 3.14666 2.14239 -5.97063 5.97913 15.5678 12.3911 0.04 
1010 1 1 -0.0861343 -0.462598 -0.855542 0 0 0 1.27859 -0.788717 -0.191431 -75.8433 203.712 -41.3601 -19.223 -5.74517 -8.11743 0.04 
950 1 1 -0.0118556 -0.475965 -0.955689 0 0 0 -0.141505 -1.73413 -0.364598 0 0 -6.57473 -19.7108 -13.7754 -9.82199 0.04 
171 1 1 0.207562 -0.564888 -0.872837 0 0 0 1.51151 -1.46275 0.616253 0 0 -6.57473 4.91008 -0.51132 -13.8343 0.04 
220 1 1 0.424397 -0.498553 -0.915051 0 0 0 1.91091 0.96411 -0.616048 -241.676 217.173 83.3601 8.41674 -13.3169 -4.4163 0.04 
1142 1 1 -0.644446 -0.479688 -0.95329 0 0 0 0.865202 -2.00208 -2.04645 0 0 -6.57473 -14.1438 15.0869 -18.2441 0.04 
230 1 1 -0.558522 -0.471988 -0.898224 0 0 0 0.573624 -0.145954 -0.198236 0 0 -6.57473 8.18164 -7.52708 1.93437 0.04 
978 1 1 -0.347504 -0.486203 -0.950007 0 0 0 0.464109 -2.14383 -0.790489 -13.2889 25.024 -2.10037 0.392972 -1.14449 5.46298 0.04 
891 1 1 0.0932694 -0.378007 -0.8602 0 0 0 -0.820616 1.29553 -1.43082 26.6418 -116.231 134.225 6.54006 26.5926 -3.79839 0.04 
657 1 1 -0.901767 -0.329406 -0.896287 0 0 0 -1.505 -0.382259 -0.201228 167.861 78.0737 -250.284 -11.4652 -2.56176 -0.145147 0.04 
826 1 1 -0.766473 -0.384863 -0.948092 0 0 0 -1.23276 -2.29858 -2.63809 0 0 -6.57473 17.7812 23.9836 -1.19972 0.04 
964 1 1 -0.452015 -0.372003 -0.954795 0 0 0 -0.990288 -0.334789 2.74625 0 0 -6.57473 5.99687 -15.6833 -0.15206 0.04 
478 1 1 -0.244295 -0.372727 -0.864588 0 0 0 -0.178787 -1.68657 0.981988 -22.8421 -6.1763 62.1206 3.35941 -17.5826 -4.71732 0.04 
469 1 1 0.297818 -0.269599 -0.950789 0 0 0 0.555248 2.54371 -2.80294 0 0 -6.57473 15.637 12.561 -5.07477 0.04 
624 1 1 0.296629 -0.422251 -0.895821 0 0 0 -0.70505 -2.20882 -1.20601 0 0 -6.57473 1.58878 1.67493 9.38886 0.04 
671 1 1 0.468703 -0.446818 -0.956156 0 0 0 0.48922 -1.77613 1.27661 22.9197 29.4274 -27.5973 4.3452 -0.030435 12.477 0.04 