ITEM: TIMESTEP
62600
ITEM: NUMBER OF ATOMS
1500
ITEM: BOX BOUNDS ff ff ff
-1 1
-1 1
-1 1
ITEM: ATOMS id type type x y z ix iy iz vx vy vz fx fy fz omegax omegay omegaz radius 
137 1 1 -0.960076 -0.957072 -0.960296 0 0 0 0.026126 -0.00215276 0.0760522 -0.643017 -12.9014 -12.2706 -0.805872 0.405947 0.946035 0.04 
5 1 1 -0.835604 -0.95893 -0.960153 0 0 0 0.0618247 -0.0268614 0.00937657 -6.27329 -7.40867 -13.0947 0.162745 0.71753 0.65049 0.04 
239 1 1 -0.756001 -0.960029 -0.960133 0 0 0 0.0586967 0.00899591 0.00967299 -2.67899 0.33081 0.568442 0.138411 0.337807 -0.133207 0.04 
34 1 1 -0.676444 -0.959891 -0.960112 0 0 0 0.0223334 -0.0108262 -0.0125587 -2.70797 -0.208695 -4.44632 -0.16773 0.689061 0.390958 0.04 
415 1 1 -0.596892 -0.960045 -0.960736 0 0 0 0.0145994 0.00469197 0.0154648 4.73509 1.67794 14.9868 0.262736 0.123434 -0.398283 0.04 
138 1 1 -0.517009 -0.959663 -0.960241 0 0 0 0.0204762 -0.0185815 0.00592373 -2.44368 0.646977 0.278926 0.244742 0.179665 0.499754 0.04 
323 1 1 -0.437058 -0.959796 -0.960174 0 0 0 0.00182207 -0.0235806 -5.71534e-05 2.00037 0.569021 3.08593 -0.0946739 0.130324 0.0178306 0.04 
130 1 1 -0.357039 -0.959193 -0.960119 0 0 0 0.0205254 0.0084424 0.0102065 -1.09036 -0.0294989 -5.5145 -0.1876 0.599908 0.218898 0.04 
502 1 1 -0.277145 -0.96007 -0.96029 0 0 0 0.0103309 -0.0108021 0.00291549 1.44162 0.71637 0.0602619 0.14245 0.328047 -0.133385 0.04 
494 1 1 -0.181185 -0.960252 -0.960326 0 0 0 -0.0176253 0.0121244 -0.00353418 1.32019 0.182021 4.31571 -0.0649964 -0.212785 -0.153383 0.04 
448 1 1 -0.101446 -0.960072 -0.960359 0 0 0 -0.0311079 -0.00308172 -0.00503496 4.22444 2.93724 6.40448 0.225177 -0.454562 -0.306366 0.04 
147 1 1 -0.0216754 -0.960204 -0.960334 0 0 0 -0.00599699 0.0083785 0.016522 2.2003 6.96425 6.27009 0.103884 -0.0525724 0.254301 0.04 
218 1 1 0.0582569 -0.959884 -0.960307 0 0 0 0.0184873 -0.00326866 -0.0368686 4.27551 0.454129 -1.70359 0.112894 -0.0190817 0.255587 0.04 
339 1 1 0.169323 -0.960104 -0.960295 0 0 0 -0.00888241 0.00778328 0.0113007 -6.39418 -2.72419 2.87474 -0.178391 -0.138708 0.636599 0.04 
341 1 1 0.312598 -0.960173 -0.960224 0 0 0 0.0211125 0.0418204 0.0132244 1.03049 1.38623 -0.118802 -0.001629 0.0722047 -0.182317 0.04 
203 1 1 0.392281 -0.96014 -0.96022 0 0 0 0.0216869 -0.0050734 -0.0156007 -3.5299 1.57438 3.49425 0.159857 0.156115 0.197036 0.04 
1019 1 1 0.472048 -0.95989 -0.960238 0 0 0 0.0326275 7.42851e-05 -0.0168572 3.78323 -0.925055 3.72007 -0.114115 -0.0862467 -0.153693 0.04 
821 1 1 0.551888 -0.960176 -0.960299 0 0 0 0.00280483 -0.00170161 0.00334489 3.52344 1.61163 -2.67002 0.241489 -0.293436 0.140579 0.04 
636 1 1 0.635319 -0.960318 -0.960172 0 0 0 0.00434066 0.00424754 0.00179952 3.64517 -2.46274 -0.129563 0.197443 -0.0777283 0.205845 0.04 
729 1 1 0.718207 -0.959404 -0.9603 0 0 0 -0.0068754 0.0241806 -0.00366525 2.85249 -2.68142 4.63945 0.216357 -0.386534 -0.0329669 0.04 
503 1 1 0.798178 -0.959942 -0.960213 0 0 0 0.00284336 0.00507994 0.0140025 0.457608 -0.332358 5.14903 0.123854 -0.27075 -0.134357 0.04 
424 1 1 0.880038 -0.960062 -0.960253 0 0 0 0.000492827 0.012486 -0.0043906 -0.0268646 3.85289 7.56608 -0.197952 -0.0179116 -0.866694 0.04 
850 1 1 0.960052 -0.958579 -0.960304 0 0 0 0.00540974 -0.00519902 0.0106851 -0.531178 -0.215517 3.17359 0.184181 -0.0212613 0.162199 0.04 
918 1 1 -0.886405 -0.897093 -0.960603 0 0 0 0.0491328 -0.0193043 -0.133981 -15.0694 -9.63636 0.614542 -0.316192 2.1822 2.09938 0.04 
246 1 1 -0.800732 -0.887114 -0.960457 0 0 0 -0.148749 -0.149119 -0.00177672 4.45146 11.5726 13.3279 -0.98595 0.532211 -1.57977 0.04 
586 1 1 -0.715797 -0.88854 -0.960466 0 0 0 0.00283909 -0.0307883 -0.00456074 -0.981884 -3.5694 -4.67469 0.526475 -0.0212929 0.268979 0.04 
379 1 1 -0.635397 -0.889773 -0.960537 0 0 0 -0.0296452 0.0308246 -0.00107474 0.682157 3.23979 -0.543185 -0.152718 -0.251723 0.82949 0.04 
105 1 1 -0.551309 -0.887364 -0.96023 0 0 0 -0.0203428 -0.0410951 0.0301975 -4.62106 -1.79392 1.99248 0.665224 -0.155669 -0.265991 0.04 
289 1 1 -0.47152 -0.887526 -0.960318 0 0 0 -0.0310963 -0.0310995 -0.00709945 1.6416 -3.03619 0.399985 0.0773153 -0.175397 0.270842 0.04 
345 1 1 -0.391686 -0.885434 -0.960068 0 0 0 -0.0341544 0.0167437 0.0114309 5.28626 -0.0755485 -2.82536 -0.461195 -0.569257 0.361363 0.04 
209 1 1 -0.311491 -0.886421 -0.96022 0 0 0 -0.011964 -0.0175929 0.0285496 -1.09549 0.238927 -3.85747 0.650716 -0.205437 0.273651 0.04 
647 1 1 -0.228752 -0.896465 -0.960133 0 0 0 -0.000550926 0.0209618 0.00250091 -3.09412 1.17959 0.926186 0.140461 0.462386 -0.267566 0.04 
700 1 1 -0.145438 -0.888706 -0.960138 0 0 0 0.0133523 0.0291665 0.013439 1.01786 -0.606724 -0.105043 -0.148822 0.327277 0.148211 0.04 
616 1 1 -0.0650733 -0.884849 -0.960422 0 0 0 0.0357789 -0.0412113 0.0248879 -2.80424 6.5427 5.79421 0.163941 -0.290093 0.15838 0.04 
87 1 1 0.0149274 -0.889205 -0.960314 0 0 0 -0.013864 0.0389413 0.0132586 -1.2366 -3.21561 4.94618 -0.417358 -0.270241 0.047544 0.04 
655 1 1 0.114107 -0.902457 -0.960381 0 0 0 0.00259186 0.0238769 0.0177281 -4.72655 1.84577 8.40307 -0.224017 0.224429 -1.8288 0.04 
977 1 1 0.191665 -0.883381 -0.959593 0 0 0 -0.0202596 -0.00910602 0.0193957 -5.24836 -3.78416 -7.2982 0.339069 -0.676827 -0.167405 0.04 
19 1 1 0.270776 -0.892204 -0.960278 0 0 0 -0.108998 -0.0326462 0.0200388 6.19784 -2.37071 -1.1123 0.256225 -0.746323 0.235667 0.04 
443 1 1 0.351412 -0.888794 -0.96024 0 0 0 -0.0239046 -0.00170515 0.00790493 -1.32992 -0.403019 2.90588 -0.154001 -0.382437 -0.225756 0.04 
664 1 1 0.431737 -0.890808 -0.960253 0 0 0 0.0323035 0.00620754 0.0174442 0.710167 -5.07799 -0.807173 -0.0935697 -0.125691 0.0638495 0.04 
396 1 1 0.517797 -0.868884 -0.959994 0 0 0 0.0586841 0.185518 -0.104086 -11.5606 2.96328 -6.37838 -2.74838 0.0691259 1.12638 0.04 
74 1 1 0.593922 -0.892394 -0.960384 0 0 0 0.00954718 -0.000288604 0.00479999 4.57588 -1.38159 1.96235 -0.0872214 -0.548283 -0.0362565 0.04 
50 1 1 0.674534 -0.890759 -0.960068 0 0 0 -0.0277871 0.0233377 0.022687 -1.50752 -5.85927 -6.79493 -0.381072 0.165452 -0.371757 0.04 
812 1 1 0.881493 -0.87937 -0.96028 0 0 0 0.0123423 -0.089247 -0.116629 1.71924 -3.92219 4.07994 0.678101 0.306147 1.6221 0.04 
778 1 1 -0.960218 -0.862838 -0.960423 0 0 0 -0.00208794 -0.147709 -0.0588743 11.6549 15.9883 0.504675 1.66518 0.230304 -2.13164 0.04 
352 1 1 -0.85047 -0.816 -0.958745 0 0 0 0.0155943 -0.0868743 0.0505858 8.97479 -0.661671 -12.7925 1.33569 -0.967938 0.589424 0.04 
894 1 1 -0.767735 -0.81333 -0.960529 0 0 0 0.14302 -0.133123 0.147356 3.13161 -4.33178 -1.20857 2.14787 1.94871 -1.55141 0.04 
960 1 1 -0.686053 -0.811066 -0.960437 0 0 0 0.0932301 -0.0833188 0.0837698 -10.55 -1.60623 16.2867 -0.255809 1.60597 1.26016 0.04 
380 1 1 -0.531724 -0.802961 -0.960174 0 0 0 0.0807547 -0.0110884 -0.000885074 14.5362 -7.11448 -5.30003 -0.163197 -0.211941 2.10042 0.04 
720 1 1 -0.255393 -0.821428 -0.960264 0 0 0 0.00557919 0.014291 0.0681533 5.97971 -2.75525 -1.82128 -0.0412674 -1.07631 0.927857 0.04 
161 1 1 -0.156447 -0.808578 -0.960333 0 0 0 0.0321437 -0.000405413 -0.0123913 3.20258 -0.357393 3.01371 0.210989 0.571095 1.24069 0.04 
827 1 1 0.00075906 -0.810636 -0.960322 0 0 0 0.00699403 -0.0127289 0.00270647 4.20302 1.73686 4.81389 0.171097 -0.0449416 -0.814883 0.04 
784 1 1 0.0781404 -0.830777 -0.960343 0 0 0 0.0524898 0.0947175 -0.00767961 1.64745 -2.90508 11.0209 -0.0630357 0.13809 1.67931 0.04 
211 1 1 0.158734 -0.810776 -0.960372 0 0 0 0.0266471 -0.0114955 -0.00390398 -12.351 0.689771 1.93524 0.175139 1.6199 -0.621131 0.04 
121 1 1 0.238261 -0.817276 -0.960294 0 0 0 0.0213688 -0.0604333 -0.0282144 6.23359 2.94747 -6.40475 1.39663 0.200927 0.123731 0.04 
229 1 1 0.382927 -0.809715 -0.960133 0 0 0 0.0489487 0.00813283 -0.0116262 -1.18634 2.68723 -2.22906 -0.52116 -0.0902312 0.00957431 0.04 
369 1 1 0.458394 -0.820108 -0.934973 0 0 0 -0.0379959 -0.00799388 0.0321343 0.687022 1.90225 -0.118783 -0.0450048 -0.381527 0.288641 0.04 
866 1 1 0.595551 -0.812776 -0.960234 0 0 0 -0.03012 -0.0290224 -0.00482081 -7.28215 -3.34404 -7.67693 0.507027 0.2735 -0.00358575 0.04 
628 1 1 0.675297 -0.811078 -0.960412 0 0 0 -0.0183792 0.0195302 0.049214 -11.0221 8.43187 8.9813 -0.507529 0.0310283 -0.310931 0.04 
1 1 1 0.75021 -0.865209 -0.960169 0 0 0 -0.00194268 -0.00861116 -0.0312146 -5.21116 -6.21964 -1.00526 -0.116344 -0.255437 -0.164394 0.04 
554 1 1 0.81953 -0.825547 -0.960421 0 0 0 -0.00295515 0.0126202 0.0426886 -1.293 -3.22596 -0.312577 -0.147062 -0.243747 0.0533093 0.04 
417 1 1 0.960093 -0.836319 -0.960082 0 0 0 -0.00422695 0.015586 0.00263398 0.292812 -2.76172 -8.45041 -1.22333 0.538946 -0.850493 0.04 
446 1 1 -0.960246 -0.781182 -0.960287 0 0 0 -0.0518936 -0.139726 0.0678157 -8.55832 0.77744 -4.83624 0.677936 -0.605723 -1.8787 0.04 
282 1 1 -0.890377 -0.749429 -0.939461 0 0 0 0.0260968 -0.189689 -0.164232 14.2401 8.73547 -0.551547 0.899945 -0.467093 1.86385 0.04 
492 1 1 -0.812997 -0.744694 -0.960066 0 0 0 0.0347527 -0.146052 0.0300113 1.13811 -4.19728 -9.1697 2.38053 0.478716 -1.39915 0.04 
290 1 1 -0.609723 -0.788107 -0.960294 0 0 0 0.0985477 -0.00443382 -0.0928396 -4.88077 4.8112 1.46787 0.0428993 0.824846 -1.07295 0.04 
52 1 1 -0.453671 -0.785595 -0.960296 0 0 0 -0.0590706 -0.0155643 0.0338106 4.50837 -7.24684 3.74026 -0.711106 -0.811612 0.180409 0.04 
480 1 1 -0.375027 -0.768006 -0.960358 0 0 0 0.00225922 0.0637822 0.0102488 -2.19479 -3.70402 -1.64411 -1.73334 -0.217901 -0.455571 0.04 
402 1 1 -0.296544 -0.753088 -0.960296 0 0 0 -0.0112978 0.0474825 0.0688095 -3.71915 2.03562 1.40075 -0.748966 0.241824 -0.81884 0.04 
322 1 1 -0.216421 -0.751814 -0.958877 0 0 0 -0.00343461 -0.00296261 0.0841014 0.432527 2.47862 -6.73721 -0.469432 -0.461313 -0.432651 0.04 
385 1 1 -0.0775305 -0.795144 -0.960473 0 0 0 0.0665691 0.159662 -0.0768002 1.95375 17.1645 -0.269001 0.208356 -0.424696 0.0951671 0.04 
773 1 1 0.106887 -0.749442 -0.960156 0 0 0 -0.00150559 -0.0668811 0.0002806 -0.00287072 0.00725132 2.12161 1.67355 -0.0385885 -0.124637 0.04 
725 1 1 0.202605 -0.744172 -0.960123 0 0 0 0.121834 -0.0352501 -0.0154512 -0.0658021 4.90985 -3.44447 0.356937 1.18746 -0.787475 0.04 
354 1 1 0.308761 -0.779737 -0.960173 0 0 0 -0.00235829 -0.0191283 0.019788 7.59826 -1.62511 -3.62397 0.578321 -0.1744 1.12853 0.04 
688 1 1 0.487118 -0.750242 -0.960513 0 0 0 0.00722278 -0.0353834 0.0222638 0.378558 -2.68938 1.81231 -0.592155 -0.188903 -0.61658 0.04 
757 1 1 0.565842 -0.738815 -0.960023 0 0 0 -0.00061574 0.0088171 0.00961701 4.19349 -4.99537 -4.96821 -0.288249 -0.321613 -0.054413 0.04 
519 1 1 0.645637 -0.736797 -0.960253 0 0 0 -0.0434979 0.0234989 -0.000592442 -3.10687 3.27431 -5.73813 -0.0113565 -0.174338 -0.0517107 0.04 
742 1 1 0.750517 -0.785426 -0.960202 0 0 0 -0.0195123 0.00195309 -0.0280403 -11.3493 3.47763 -7.38457 0.384314 -0.097854 -0.131873 0.04 
603 1 1 0.819485 -0.7458 -0.960063 0 0 0 0.0134815 -0.0201978 0.00541256 1.32619 7.62544 -4.04072 0.341853 0.204504 -0.275822 0.04 
86 1 1 0.892545 -0.793658 -0.960069 0 0 0 -0.0404733 0.031162 0.0235577 2.88118 -0.182422 -6.79057 -0.455114 -0.0237667 0.507537 0.04 
972 1 1 0.960239 -0.751455 -0.960184 0 0 0 -0.0058511 -0.0225019 0.0146669 2.91231 -2.15697 0.777993 0.393055 -0.104825 -0.0302265 0.04 
488 1 1 -0.960069 -0.699466 -0.960067 0 0 0 0.00609472 -0.214026 0.0353979 3.75278 0.345421 -3.33282 0.912461 0.377471 -0.475022 0.04 
532 1 1 -0.884888 -0.67204 -0.960051 0 0 0 -0.0512075 -0.153318 -0.0115375 -0.170579 -2.97662 -3.74203 1.79725 -1.12354 0.865788 0.04 
564 1 1 -0.737454 -0.718485 -0.960033 0 0 0 0.0284713 -0.0150598 0.0225703 1.08494 0.253164 -5.01906 0.963616 0.478573 0.994028 0.04 
314 1 1 -0.657375 -0.723993 -0.959646 0 0 0 0.014901 -0.00843819 0.0221527 -1.6447 -13.8779 -6.63663 -0.736927 0.786198 0.726682 0.04 
1127 1 1 -0.548387 -0.724911 -0.960234 0 0 0 -0.0309274 -0.0721691 0.027982 -9.22434 6.30608 5.75824 0.931009 -0.779462 -0.864762 0.04 
241 1 1 -0.470485 -0.707664 -0.960208 0 0 0 -0.0944026 -0.00951416 -0.0165828 2.13167 13.7882 0.672486 -0.213611 -0.516675 0.823242 0.04 
85 1 1 -0.392231 -0.690337 -0.960194 0 0 0 -0.0903853 0.0117198 0.011001 3.69158 0.763152 -0.617424 -0.295798 -0.523437 0.620211 0.04 
511 1 1 -0.312865 -0.674407 -0.960199 0 0 0 -0.0146969 0.0646524 -0.0100828 1.26595 2.26163 1.67985 -0.772405 -0.946944 0.0106409 0.04 
873 1 1 -0.220626 -0.672035 -0.960194 0 0 0 -0.0324487 -0.0126927 -0.0233319 4.00341 -2.16191 -4.4475 -0.647554 -0.353822 0.554925 0.04 
376 1 1 -0.139394 -0.730584 -0.960137 0 0 0 0.00146048 0.0231962 0.00712851 -0.642959 0.531335 0.841754 -0.163847 -0.103551 -0.869149 0.04 
204 1 1 -0.0609861 -0.715369 -0.960311 0 0 0 0.0120653 -0.0192075 -0.0037407 -2.0679 -2.87909 -4.37559 0.224166 0.321178 0.195403 0.04 
1122 1 1 0.0174456 -0.731133 -0.960332 0 0 0 0.00433267 -0.0332524 -0.00673338 -5.08363 0.182935 5.38934 0.381547 -0.0132135 -0.159751 0.04 
967 1 1 0.279537 -0.705336 -0.960175 0 0 0 -0.0157338 -0.0426444 -0.00610368 -6.11318 -7.16466 -0.910542 0.517818 0.0873561 -0.10085 0.04 
159 1 1 0.360886 -0.717407 -0.960202 0 0 0 -0.0458995 0.0169392 0.010369 -2.09346 1.41438 2.53601 -0.0941965 -0.573582 0.747195 0.04 
451 1 1 0.438841 -0.687065 -0.96042 0 0 0 -0.0118116 0.00748041 0.0173555 -0.863091 7.4599 2.77469 -0.0771403 0.143222 0.643939 0.04 
177 1 1 0.520383 -0.673209 -0.960337 0 0 0 0.0269041 0.00807586 -0.0145108 -4.16927 -0.280838 7.94345 -0.965973 1.23103 0.747019 0.04 
880 1 1 0.602157 -0.667908 -0.960225 0 0 0 -0.0201893 0.0719741 -0.014352 5.83784 -0.668128 2.54575 -0.508323 0.978 1.39273 0.04 
439 1 1 0.750513 -0.705551 -0.960126 0 0 0 0.0141502 -0.023072 -0.00620945 3.68561 3.01666 -0.530294 -0.320534 -0.577885 -0.0567311 0.04 
188 1 1 0.891203 -0.711532 -0.960395 0 0 0 0.0138361 -0.0208836 -0.0519615 2.20964 8.13832 16.3371 0.732521 0.511976 0.000273936 0.04 
987 1 1 0.960214 -0.671505 -0.960219 0 0 0 -0.00551368 -0.0435055 -0.00811226 2.38026 -1.82627 0.826497 0.377307 -0.141045 0.119162 0.04 
826 1 1 -0.798118 -0.665143 -0.959983 0 0 0 -0.0150083 -0.0632785 0.0366011 0.517041 -4.37899 -11.2109 0.840264 -0.496882 -0.490851 0.04 
1152 1 1 -0.746606 -0.600567 -0.960081 0 0 0 -0.0227463 -0.0197132 0.0636413 -2.89507 -12.0808 -12.0598 0.0853037 -0.46246 0.486413 0.04 
567 1 1 -0.681794 -0.648212 -0.96017 0 0 0 -0.0394584 -0.0560981 -0.01133 -3.21664 12.4348 1.18899 0.164588 -0.475467 -0.0397044 0.04 
783 1 1 -0.602465 -0.665976 -0.960034 0 0 0 -0.0525093 -0.00141932 -0.0209749 -5.46209 -3.35518 -4.47918 -0.531632 0.832571 0.459028 0.04 
170 1 1 -0.526421 -0.642162 -0.960568 0 0 0 0.111893 -0.0706291 0.0115747 10.1702 -3.37269 24.7138 0.553994 -1.30189 -0.0420469 0.04 
375 1 1 -0.445587 -0.631128 -0.960288 0 0 0 -0.0819385 0.0137156 -0.00404238 -5.7455 3.6197 2.97171 0.423199 -1.16823 -0.68398 0.04 
709 1 1 -0.366752 -0.614886 -0.960211 0 0 0 -0.0851787 0.0634346 0.0304063 -0.54522 1.24249 0.98535 -0.478051 -1.2287 -0.876156 0.04 
738 1 1 -0.126001 -0.651841 -0.960399 0 0 0 0.0437099 0.0294973 -0.00573276 -1.057 -0.757766 4.12393 -0.239568 0.204769 0.546448 0.04 
1046 1 1 -0.0476769 -0.636579 -0.960265 0 0 0 0.0485932 -0.0159999 0.0274651 5.54546 0.287694 -0.671172 0.208759 0.448279 -0.614294 0.04 
581 1 1 0.0316501 -0.652475 -0.960125 0 0 0 0.0319942 -0.0322867 -0.00518431 -0.754966 -0.688861 -4.13248 0.677919 0.933865 -0.016671 0.04 
1088 1 1 0.114609 -0.665321 -0.960225 0 0 0 -0.0112839 -0.0111672 -0.018256 -1.98097 2.36069 -0.0281316 0.414403 -0.266091 -0.277841 0.04 
61 1 1 0.162587 -0.601338 -0.960232 0 0 0 0.010679 -0.0214381 -0.0168765 -0.875914 -0.664922 -3.45856 0.446278 0.321686 0.304998 0.04 
862 1 1 0.210717 -0.664702 -0.960176 0 0 0 0.0433015 0.0188618 0.0162768 3.52406 -4.65364 -9.04925 0.562941 -0.414154 0.199524 0.04 
656 1 1 0.327036 -0.641307 -0.960089 0 0 0 -0.0345159 -0.120167 -0.0237585 6.25365 9.02069 -0.856275 1.57355 -0.114028 0.845676 0.04 
1082 1 1 0.402934 -0.615919 -0.96034 0 0 0 -0.093465 -0.0420852 -0.0198947 -2.5282 -7.38561 8.1458 0.265989 -0.520119 -0.200392 0.04 
255 1 1 0.481859 -0.60325 -0.9602 0 0 0 -0.109934 -0.0594543 -0.00241584 1.56373 0.345723 -1.95142 0.0509613 -0.213411 0.792517 0.04 
308 1 1 0.68181 -0.665287 -0.956147 0 0 0 0.05341 0.0774902 -0.383553 -4.30521 -10.6802 -9.40104 -0.26376 0.81138 -0.387465 0.04 
543 1 1 0.748071 -0.620873 -0.959645 0 0 0 0.0473545 0.118049 0.00811318 -1.99999 0.453228 -6.82331 -0.910912 0.54897 0.0290649 0.04 
662 1 1 0.817048 -0.661122 -0.95999 0 0 0 -0.019864 -0.011541 0.0170441 -4.56736 -5.98941 -6.12606 -0.185204 0.293226 -0.685152 0.04 
553 1 1 0.891089 -0.631538 -0.960155 0 0 0 0.000413293 -0.0373857 0.0191519 -1.52965 -0.674415 0.666736 0.168046 0.316555 -0.284648 0.04 
260 1 1 -0.96022 -0.594238 -0.960269 0 0 0 0.00011449 -0.0389546 -0.028457 11.2543 -0.431986 -4.18717 1.54189 -0.597571 -1.11079 0.04 
990 1 1 -0.879368 -0.592314 -0.960313 0 0 0 -0.0318171 -0.16682 -0.000553765 -2.51429 3.37737 2.63073 1.83585 -0.100734 -0.603089 0.04 
565 1 1 -0.81077 -0.551344 -0.960101 0 0 0 -0.098187 -0.0199889 -0.00245005 -1.64831 -3.42024 -1.13533 0.0730667 -0.714636 1.17196 0.04 
1113 1 1 -0.690954 -0.543342 -0.960025 0 0 0 -0.0777232 -0.0362928 0.0211758 0.388626 10.3032 -8.41162 0.580624 -0.752219 1.19453 0.04 
925 1 1 -0.625884 -0.589582 -0.960102 0 0 0 -0.0862846 0.0273119 -0.0151791 -0.606931 2.08921 -7.82088 0.363602 -0.76983 0.993326 0.04 
893 1 1 -0.549183 -0.565691 -0.960009 0 0 0 -0.0142044 -0.0960863 0.0471888 -1.82616 7.46197 -6.55822 1.40011 -0.180561 1.82859 0.04 
1103 1 1 -0.456864 -0.5521 -0.960066 0 0 0 0.0333472 -0.0275786 0.0448573 -3.97564 5.1182 -10.505 0.497914 -0.211806 0.819363 0.04 
1448 1 1 -0.378114 -0.535803 -0.960007 0 0 0 -0.00068121 0.0455239 0.023151 -2.34865 -4.40149 -15.6988 -0.517701 0.392453 -0.513639 0.04 
631 1 1 -0.298424 -0.57377 -0.960158 0 0 0 -0.0346031 0.00703477 -0.0317194 3.40894 5.62515 2.58755 0.266942 -0.516059 0.0728248 0.04 
714 1 1 -0.220727 -0.592252 -0.960281 0 0 0 -0.0298211 0.00437294 -0.00215963 -1.67017 -1.64597 -3.31757 -0.23533 -0.481144 -0.0629026 0.04 
962 1 1 -0.157828 -0.543334 -0.960193 0 0 0 -0.00337557 -0.0266744 -0.0104393 5.08711 -0.317907 4.62641 0.144736 0.164156 -0.730851 0.04 
950 1 1 -0.0804887 -0.563576 -0.960216 0 0 0 0.0109094 -0.0422079 0.0104859 1.2708 -0.327558 5.24326 0.913114 -0.301488 0.51726 0.04 
716 1 1 0.00482599 -0.576513 -0.960106 0 0 0 0.03466 -0.0179566 0.00251859 -1.11387 0.738451 -4.02246 0.149553 0.0621963 0.368737 0.04 
388 1 1 0.0833294 -0.591579 -0.960254 0 0 0 0.0291353 -0.0281997 -0.0123825 -4.76003 1.65318 2.44902 -0.00449765 0.539784 -0.252268 0.04 
1052 1 1 0.256852 -0.598147 -0.96053 0 0 0 0.0275663 -0.0346062 0.0740787 -23.2498 -9.41039 -19.1472 0.21773 1.52777 0.649682 0.04 
867 1 1 0.205914 -0.534367 -0.960167 0 0 0 -0.0297661 -0.00789519 -0.00630434 0.60687 1.33529 0.495781 0.15531 -0.11387 -0.0327301 0.04 
576 1 1 0.322804 -0.553492 -0.960155 0 0 0 0.0478655 -0.0105931 0.0148566 5.07059 6.15712 2.37189 0.9215 0.446381 -0.0487215 0.04 
408 1 1 0.400839 -0.53645 -0.960173 0 0 0 -0.00667304 -0.0361084 -0.0158327 4.98711 -2.75643 1.32494 0.223409 -0.0518756 -1.03684 0.04 
1026 1 1 0.561704 -0.599351 -0.960447 0 0 0 -0.107188 0.045097 0.0230047 -1.95003 2.25515 3.13663 -0.455405 -0.989774 -0.485036 0.04 
1111 1 1 0.668473 -0.586741 -0.960241 0 0 0 0.00742781 -0.0155274 0.0264051 -5.84348 -13.9651 4.51118 -0.961338 -0.356296 0.716989 0.04 
1138 1 1 0.734677 -0.5421 -0.960169 0 0 0 -0.0185267 0.132839 -0.0087881 4.19915 -0.254603 0.0690365 -0.377129 0.370748 -0.214276 0.04 
58 1 1 0.816671 -0.579872 -0.960282 0 0 0 0.0655309 0.0222218 0.0129945 -10.9856 -6.19829 3.91585 0.577792 0.778118 -1.11767 0.04 
1107 1 1 0.891031 -0.551671 -0.960223 0 0 0 0.0777029 0.00419223 -0.0164466 5.50095 2.52118 2.51335 0.133142 -0.115303 0.509937 0.04 
252 1 1 0.960194 -0.591609 -0.960237 0 0 0 0.0126932 -0.0290525 -0.00186323 1.04796 -4.42553 -0.210162 0.0564515 0.0636096 0.250299 0.04 
670 1 1 -0.959661 -0.512941 -0.960156 0 0 0 0.0262606 -0.0930065 -0.0478978 -0.420685 0.202502 2.763 1.96786 -0.0933493 -0.114189 0.04 
644 1 1 -0.754468 -0.494786 -0.960296 0 0 0 -0.0760617 -0.0394162 -0.0279926 -1.51172 4.79501 -5.21741 0.751744 -0.290414 -1.45242 0.04 
435 1 1 -0.616124 -0.510014 -0.960233 0 0 0 -0.024221 0.00739692 -0.0361108 3.36133 -5.96299 -0.988971 -0.0128907 -0.844719 -0.613283 0.04 
816 1 1 -0.497648 -0.483469 -0.960101 0 0 0 -0.0254445 -0.0656043 -0.00395511 -1.98452 1.37045 -3.66089 0.324476 -0.602648 0.710904 0.04 
489 1 1 -0.317213 -0.483937 -0.960375 0 0 0 -0.00664843 -0.0615524 -0.00962923 -1.39279 -2.27149 -1.91839 -0.228003 0.418905 -0.282508 0.04 
883 1 1 -0.243134 -0.514441 -0.960194 0 0 0 -0.0126952 -0.0107522 0.00442397 0.0269302 0.00896481 4.1487 0.263946 -0.296539 -0.787536 0.04 
675 1 1 -0.10178 -0.486474 -0.958064 0 0 0 -0.0167772 -0.0488409 -0.154403 3.58523 -0.509976 -5.22116 1.00617 -0.0282802 0.0698753 0.04 
1066 1 1 -0.0234033 -0.501766 -0.960265 0 0 0 -0.0024855 -0.0176045 0.00540619 0.0933633 -2.31331 -2.15358 0.0386082 -0.194004 0.182764 0.04 
143 1 1 0.057004 -0.516046 -0.960192 0 0 0 0.00917658 -0.021736 -0.00559846 2.28785 -1.74926 1.65409 0.500598 0.0983432 0.556017 0.04 
1346 1 1 0.154889 -0.472684 -0.960228 0 0 0 0.00737577 -0.00092675 -0.00564025 0.450298 -1.33325 1.96658 -0.159053 0.236203 0.808929 0.04 
1000 1 1 0.271512 -0.488854 -0.96013 0 0 0 0.0204659 -0.0638623 -0.000959766 1.80195 -0.312056 -5.30226 0.26973 -0.309437 -0.294335 0.04 
792 1 1 0.350192 -0.475068 -0.960292 0 0 0 0.00320234 -0.0240717 0.0090737 -1.73345 1.67269 2.5245 0.720063 0.144904 0.488972 0.04 
814 1 1 0.479719 -0.523519 -0.960206 0 0 0 -0.00371632 -0.0282947 0.0243792 4.41726 1.09733 -6.99329 0.966023 -0.565274 -0.60272 0.04 
1288 1 1 0.583936 -0.522784 -0.960197 0 0 0 -0.066187 0.00845706 -0.0142831 -3.0854 -6.158 2.58494 -0.162512 -0.585146 -0.580724 0.04 
908 1 1 0.662671 -0.507494 -0.960178 0 0 0 -0.037859 -0.000472832 -0.00676519 -2.57509 21.3628 0.757153 -0.163206 0.37908 0.120329 0.04 
1309 1 1 0.796803 -0.491948 -0.960097 0 0 0 0.0420816 0.00470288 -0.0148419 5.77471 3.06356 -12.2103 -0.409629 0.36643 0.630037 0.04 
9 1 1 0.890902 -0.471775 -0.96019 0 0 0 -0.00671022 0.00521709 -0.00185081 0.976657 -1.71768 0.206383 0.122369 0.153121 -0.140677 0.04 
771 1 1 0.960128 -0.511789 -0.960272 0 0 0 0.00661245 0.00349823 -0.00405466 3.05566 -0.439192 0.400394 -0.215868 -0.0924045 0.126072 0.04 
1055 1 1 -0.960069 -0.419899 -0.960305 0 0 0 0.00804374 -0.0471931 0.00961941 1.63168 -1.031 5.39819 1.42496 -0.0829802 -1.35971 0.04 
739 1 1 -0.889589 -0.458966 -0.960196 0 0 0 0.00177843 -0.079661 0.0175802 0.938502 5.07665 -3.28264 1.7411 0.497925 -0.164386 0.04 
1142 1 1 -0.821224 -0.417437 -0.96027 0 0 0 -0.00795394 -0.0163096 -0.0127528 2.9605 -4.14646 1.22645 0.790828 -0.14452 0.713705 0.04 
833 1 1 -0.681085 -0.46348 -0.960404 0 0 0 0.00129473 -0.0635914 0.0296229 2.12404 -3.5427 -3.19958 0.489836 -0.874875 -0.069927 0.04 
620 1 1 -0.562375 -0.436488 -0.960285 0 0 0 -0.0471525 -0.0925732 0.0248187 5.65983 -5.04887 1.28071 1.63637 -1.47455 -0.66445 0.04 
1316 1 1 -0.472706 -0.407537 -0.960239 0 0 0 -0.0288104 -0.0204809 -0.0172619 0.114342 -4.89977 -0.567573 0.680308 -0.808003 -0.533892 0.04 
344 1 1 -0.410869 -0.458441 -0.960132 0 0 0 0.0200086 0.0100795 -0.0201955 -2.87725 1.74562 -2.50872 -0.378948 0.445934 0.546773 0.04 
247 1 1 -0.328858 -0.404828 -0.960339 0 0 0 -0.028219 -0.0239926 -0.00887662 0.443375 2.03809 -0.491112 0.703262 -0.421194 0.245152 0.04 
382 1 1 -0.25454 -0.434676 -0.960321 0 0 0 -0.0190778 0.0316261 -0.0138252 -4.63886 0.488348 -0.574966 0.133824 -0.508032 0.513337 0.04 
305 1 1 -0.179043 -0.46634 -0.960279 0 0 0 -0.0279529 -0.0456562 0.00813908 -2.08022 -1.78421 2.16476 0.145393 -0.185621 0.373396 0.04 
1271 1 1 -0.0950618 -0.406897 -0.960335 0 0 0 -0.00776696 -0.0305139 0.00751447 0.00221123 -2.11862 0.248655 0.686533 -0.279859 0.446504 0.04 
1249 1 1 0.0308884 -0.440519 -0.960183 0 0 0 -0.035994 -0.0484195 -0.0179056 -1.60984 1.62774 1.69633 0.601415 -0.128424 -0.555288 0.04 
1030 1 1 0.104863 -0.410418 -0.960197 0 0 0 -0.0399102 -0.0575597 -0.00784004 -1.69319 4.11716 0.48505 0.384753 0.139814 0.118559 0.04 
1148 1 1 0.220572 -0.427361 -0.96037 0 0 0 0.0235872 -0.0200943 0.0188552 2.64628 2.5381 2.53558 0.519296 0.190506 0.0732744 0.04 
772 1 1 0.299266 -0.413877 -0.960268 0 0 0 0.0206764 -0.0387395 0.0138228 -0.338673 1.72498 2.89799 0.158189 -0.191948 -0.216894 0.04 
1361 1 1 0.428969 -0.461894 -0.959706 0 0 0 -0.0069179 -0.0337351 -0.0395852 -1.67984 -0.0767499 -4.66954 -0.169869 -1.0909 0.529002 0.04 
584 1 1 0.528311 -0.460179 -0.960202 0 0 0 0.0160705 -0.0382633 0.0514835 1.34771 -0.891649 -3.71201 -1.14713 -0.129867 0.207622 0.04 
1047 1 1 0.607055 -0.446749 -0.960332 0 0 0 0.00517589 -0.0170223 0.00777743 3.63319 -0.951434 2.76489 0.385621 0.31254 -0.614221 0.04 
1474 1 1 0.684945 -0.43056 -0.960264 0 0 0 0.00645168 -0.0458613 -0.0213958 2.9621 5.87445 -1.82741 0.585783 0.304429 -0.532995 0.04 
840 1 1 0.763782 -0.41798 -0.960232 0 0 0 0.0522436 0.0122576 -0.0196973 0.325079 9.54933 -8.19227 -0.0211041 -0.217194 1.20477 0.04 
852 1 1 0.960086 -0.431901 -0.960167 0 0 0 0.00480528 -0.00459183 0.00598302 0.375054 0.119558 0.945385 0.103717 -0.0167537 -0.159661 0.04 
982 1 1 -0.960216 -0.339175 -0.960257 0 0 0 0.00838611 -0.0372549 -0.00662838 -0.571261 2.12258 0.493787 1.07881 0.148231 -1.14594 0.04 
326 1 1 -0.891082 -0.379031 -0.960216 0 0 0 -0.0244632 -0.0497416 0.0250105 -4.31055 2.22406 -2.90044 1.34898 -0.164334 0.524003 0.04 
1215 1 1 -0.82266 -0.336566 -0.96028 0 0 0 0.0260918 -0.0697276 0.0079746 7.05482 -0.110845 1.21328 1.36512 -0.177516 0.0931371 0.04 
1246 1 1 -0.752063 -0.377603 -0.960098 0 0 0 -0.0324185 -0.0248494 -0.0154016 4.57584 2.81486 -0.677193 -0.0343478 -0.275326 0.0380625 0.04 
969 1 1 -0.684572 -0.334766 -0.960228 0 0 0 0.018357 -0.0357355 -0.00833327 1.17847 1.81931 -0.962617 0.273936 -0.521934 0.324048 0.04 
613 1 1 -0.626093 -0.388671 -0.960401 0 0 0 0.0008804 -0.0558451 0.030958 -3.67815 -2.90219 -1.33377 0.650847 -0.0374148 -0.38279 0.04 
857 1 1 -0.533201 -0.354375 -0.96018 0 0 0 -0.0253475 -0.0668634 -0.020713 0.952182 1.10813 -4.92308 1.24685 -0.154285 1.17713 0.04 
92 1 1 -0.407714 -0.360798 -0.960346 0 0 0 -0.0761224 -0.0226198 -0.00121779 -0.332284 -2.13209 1.51249 0.646679 -0.86512 0.656983 0.04 
1124 1 1 -0.266044 -0.355385 -0.960401 0 0 0 -0.00873542 -0.0387812 -0.00627726 -2.23261 -2.41164 1.86331 0.409875 -0.331236 0.018721 0.04 
868 1 1 -0.190363 -0.387352 -0.960368 0 0 0 -0.026845 -0.0224188 0.00850913 5.84834 -1.56689 0.133259 0.383188 -0.822633 0.163077 0.04 
1223 1 1 -0.0226824 -0.368565 -0.960125 0 0 0 0.000721102 -0.00731873 0.0113208 0.920711 -0.15778 -1.45733 0.130621 -0.282002 0.00496877 0.04 
144 1 1 0.0549076 -0.348012 -0.960154 0 0 0 0.0256639 -0.0296261 0.00408184 0.410184 0.0075326 -3.19436 0.402828 -0.0558493 -0.26432 0.04 
315 1 1 0.170553 -0.365165 -0.960245 0 0 0 -0.0432572 -0.036637 0.00426024 0.39766 0.0774712 -2.71133 0.176321 -0.331378 0.685401 0.04 
1187 1 1 0.249423 -0.351807 -0.960353 0 0 0 -0.0188189 -0.0545931 0.0070594 -2.95237 3.90721 -0.298186 0.516858 -0.377057 0.825343 0.04 
220 1 1 0.328185 -0.33789 -0.960145 0 0 0 -0.0119512 -0.042032 -0.0108374 -4.07072 4.0449 -3.30755 0.358577 -0.348654 0.411452 0.04 
845 1 1 0.377963 -0.400111 -0.960215 0 0 0 0.00182338 0.0148013 -0.0785886 1.02058 0.375213 -6.03151 -0.273415 -0.431953 0.253252 0.04 
677 1 1 0.456741 -0.387383 -0.960107 0 0 0 -0.0191725 -0.0357541 0.000134297 0.454599 1.05068 -1.81938 -0.128664 -0.31304 -0.841557 0.04 
981 1 1 0.557678 -0.384521 -0.960245 0 0 0 -0.0450042 -0.0420508 0.00982142 -2.23804 5.51219 -9.1048 -0.378014 0.293737 -0.0252658 0.04 
361 1 1 0.63576 -0.367545 -0.960439 0 0 0 -0.017258 -0.0739329 0.0576701 0.993479 1.69842 12.3849 1.19799 -0.21215 -1.0863 0.04 
764 1 1 0.718254 -0.351891 -0.960406 0 0 0 -0.0632871 -0.0793327 0.0239939 0.912218 0.639871 15.7105 1.09126 -0.304016 -1.34743 0.04 
499 1 1 0.800805 -0.347327 -0.960198 0 0 0 -0.0115042 -0.00912723 0.0103021 2.97011 5.09171 -1.3313 0.207543 -0.177234 -0.121397 0.04 
398 1 1 0.875865 -0.374739 -0.960303 0 0 0 -0.00174725 0.00747043 0.01037 -0.685907 0.342285 -1.08115 -0.436042 0.173416 1.62949 0.04 
975 1 1 0.954879 -0.352256 -0.960376 0 0 0 0.0343832 -0.0128577 0.0045793 0.802879 0.315637 -1.53264 0.368323 0.92538 -0.450145 0.04 
995 1 1 -0.892097 -0.2975 -0.960206 0 0 0 0.0208571 -0.0630207 0.0145313 -0.0588203 0.971589 1.72913 1.08057 -0.396472 0.401038 0.04 
76 1 1 -0.753874 -0.295702 -0.96026 0 0 0 0.0407297 -0.0499963 -0.027117 -3.27859 3.91945 1.796 0.318288 -0.711415 -0.315885 0.04 
230 1 1 -0.605366 -0.311218 -0.960141 0 0 0 -0.0145822 -0.055596 -0.0226847 -3.02025 0.050117 -7.46338 0.76681 -0.426492 0.250505 0.04 
116 1 1 -0.46808 -0.308255 -0.96019 0 0 0 -0.0292414 0.0017747 0.0647213 5.23596 4.72049 0.0917132 0.743767 -1.0375 -0.675838 0.04 
978 1 1 -0.350283 -0.305038 -0.960197 0 0 0 0.0134039 -0.0677811 0.00460204 -0.347432 -0.048971 -2.02719 1.15359 -0.0641301 0.149486 0.04 
1155 1 1 -0.275372 -0.276045 -0.960247 0 0 0 0.00807367 -0.0143693 -0.00552007 -1.01114 -3.14593 -0.116828 0.281208 0.0857233 0.140331 0.04 
1214 1 1 -0.201559 -0.308441 -0.960223 0 0 0 -0.0275398 -0.0302891 -0.00796538 2.14746 0.974354 -1.31944 -0.190018 -0.182192 -0.776145 0.04 
1010 1 1 -0.125717 -0.333284 -0.960226 0 0 0 -0.0350733 -0.0466761 -0.00153968 -1.63033 -0.059404 -1.77752 0.857825 -0.530993 0.0696851 0.04 
201 1 1 -0.0556538 -0.294912 -0.960405 0 0 0 -0.0528755 -0.0307543 -0.0140728 -1.93313 -0.560491 -0.0207237 0.681771 -1.18793 0.598811 0.04 
1062 1 1 0.0267988 -0.273222 -0.96015 0 0 0 -0.0443012 -0.0512685 0.00571426 -0.305444 0.324003 -0.231356 0.724599 -0.935436 1.03619 0.04 
404 1 1 0.111536 -0.286674 -0.960352 0 0 0 -0.0159323 0.134583 -0.0224785 -0.109261 -6.78884 2.10188 -2.86447 -1.35563 0.481005 0.04 
1216 1 1 0.198341 -0.290545 -0.960102 0 0 0 -0.0515356 -0.0456023 -0.00804829 0.603154 4.11117 0.172753 -0.340901 -0.271838 -0.239495 0.04 