ITEM: TIMESTEP
61000
ITEM: NUMBER OF ATOMS
1500
ITEM: BOX BOUNDS ff ff ff
-1 1
-1 1
-1 1
ITEM: ATOMS id type type x y z ix iy iz vx vy vz fx fy fz omegax omegay omegaz radius 
137 1 1 -0.959927 -0.958078 -0.960101 0 0 0 0.00953781 0.0220829 -0.0300113 -0.299654 -0.0273822 -0.556682 -0.519893 -0.120357 0.486259 0.04 
5 1 1 -0.840006 -0.959371 -0.960346 0 0 0 0.0142831 0.000467828 -0.0475964 1.9842 -3.03664 13.4805 -0.235489 0.221986 0.505243 0.04 
239 1 1 -0.760051 -0.959934 -0.959927 0 0 0 0.0187041 -0.00212088 0.0252999 5.88869 -3.23054 -13.6367 -0.313415 0.331847 -0.261208 0.04 
34 1 1 -0.680033 -0.95937 -0.960419 0 0 0 0.0308145 0.0105254 -0.00856152 0.438064 -0.00621144 14.6371 -0.451372 0.606769 -0.531546 0.04 
415 1 1 -0.599766 -0.960076 -0.960623 0 0 0 0.0309028 -0.0372867 -0.0108122 -3.54235 0.0265789 11.6328 0.7878 1.25516 -0.594057 0.04 
138 1 1 -0.519919 -0.960075 -0.960348 0 0 0 0.0745651 -0.00346582 -0.0245895 4.65639 -0.623593 -0.939848 -0.0784856 0.496406 0.0764146 0.04 
323 1 1 -0.439801 -0.960056 -0.960005 0 0 0 0.0600361 0.0017786 -0.0310879 -2.48581 3.09619 -5.70355 0.0945435 0.0956239 0.0029 0.04 
130 1 1 -0.359863 -0.959976 -0.96031 0 0 0 0.0539303 0.00429202 -0.0230913 1.43724 -1.03436 0.225553 0.111471 1.12131 -0.278509 0.04 
502 1 1 -0.280047 -0.960161 -0.96024 0 0 0 0.0414985 0.0118099 -0.00180059 -2.99664 1.69724 3.19426 -0.131787 -0.223623 0.237778 0.04 
494 1 1 -0.180359 -0.960159 -0.960256 0 0 0 -0.0348266 0.0132413 -0.00540491 0.353877 5.04922 -0.210595 0.0966248 0.125123 0.121414 0.04 
448 1 1 -0.100545 -0.959941 -0.96035 0 0 0 -0.00875953 -0.0325256 -0.00805113 -0.821261 -0.664706 -2.04545 0.621656 -0.14328 -0.149319 0.04 
147 1 1 -0.02077 -0.959982 -0.960243 0 0 0 -0.000913102 -0.00487225 -0.0123103 3.97254 -2.06442 -2.63317 0.0525756 -0.425982 0.357595 0.04 
218 1 1 0.0591631 -0.959327 -0.96002 0 0 0 -0.0138594 0.00954045 -0.0264204 1.54189 0.0557224 -5.67872 -0.232184 -0.823339 0.192096 0.04 
339 1 1 0.177345 -0.959794 -0.960139 0 0 0 -0.147589 -0.0408323 0.0153833 -2.06742 0.22209 -1.73347 -0.164884 -1.65792 0.560332 0.04 
341 1 1 0.312432 -0.96014 -0.960261 0 0 0 0.0115763 -0.0207408 0.00753484 0.509063 0.0427892 -1.81346 0.387148 -0.138488 -0.0265367 0.04 
203 1 1 0.392299 -0.960154 -0.960256 0 0 0 -0.00406276 -0.0161357 0.0132782 1.47295 -2.56687 2.01216 0.269023 -0.144281 0.172382 0.04 
1019 1 1 0.472363 -0.960009 -0.960259 0 0 0 0.0307688 -0.0407581 -0.00844284 4.23502 -5.39065 5.34142 0.456097 0.0805035 0.0999376 0.04 
821 1 1 0.552467 -0.960189 -0.960253 0 0 0 -0.0423208 0.0415375 0.0160602 -3.09175 1.25544 -1.10824 0.109908 -0.123406 0.342885 0.04 
636 1 1 0.634919 -0.960265 -0.960089 0 0 0 0.0252347 0.00647554 -0.0224157 -9.26272 -7.72488 0.114374 0.153332 0.616246 -0.875088 0.04 
729 1 1 0.719986 -0.958737 -0.96021 0 0 0 -0.0920468 0.0193003 0.057058 0.545809 0.0422668 4.37413 -0.667016 0.0583755 -0.511403 0.04 
503 1 1 0.800294 -0.960065 -0.960004 0 0 0 -0.0615024 -0.0231108 -0.0058559 0.192929 3.90592 -6.22506 0.526249 -0.32325 0.0196153 0.04 
424 1 1 0.880331 -0.959691 -0.960041 0 0 0 -0.0221907 0.00599489 -0.0437767 -4.3253 -0.0381644 -3.45577 -0.449338 -0.0798169 -0.20371 0.04 
850 1 1 0.960183 -0.957881 -0.960409 0 0 0 0.00293468 -0.00132122 0.00172089 -3.34241 -0.353763 14.0253 0.0500691 0.105019 0.0835217 0.04 
918 1 1 -0.89494 -0.90138 -0.96028 0 0 0 0.0130073 0.00859116 0.0297032 -2.63235 10.8548 1.36473 0.871241 0.481875 2.43562 0.04 
246 1 1 -0.800179 -0.8871 -0.960016 0 0 0 0.0731277 0.0925493 -0.0657279 -9.06855 0.248075 -4.35542 -9.46098e-05 2.12059 -1.43238 0.04 
586 1 1 -0.720449 -0.889699 -0.960394 0 0 0 -0.0310423 0.0517524 -0.00129114 10.1105 -3.51484 10.1184 -0.367296 1.09885 -0.0588369 0.04 
379 1 1 -0.636498 -0.888951 -0.960398 0 0 0 0.101895 0.00981316 0.0522783 -4.2138 -3.44474 11.4317 -0.229638 2.33866 0.706703 0.04 
105 1 1 -0.549802 -0.885988 -0.960066 0 0 0 -0.0506049 -0.0104052 -0.043973 1.71355 1.29128 -5.18902 0.721566 -0.161387 -0.278998 0.04 
289 1 1 -0.469808 -0.884713 -0.960568 0 0 0 -0.0285694 0.0479882 0.0653723 -3.04626 -1.53571 24.088 0.103205 -0.252087 0.0280279 0.04 
345 1 1 -0.389907 -0.885776 -0.960264 0 0 0 -0.0517265 -0.0137876 -0.03548 -4.77773 -3.72217 6.27717 0.680409 -0.549218 1.06756 0.04 
209 1 1 -0.310185 -0.884184 -0.960247 0 0 0 -0.053019 -0.00950968 0.0100102 5.88973 -0.788591 -2.06344 -0.00946607 -0.650787 0.803572 0.04 
647 1 1 -0.230322 -0.897803 -0.960179 0 0 0 0.0279811 0.0201069 -0.00727698 2.08608 -5.37154 -2.00586 -0.297471 0.0260326 -0.335916 0.04 
700 1 1 -0.144644 -0.888269 -0.960312 0 0 0 0.0339526 -0.00967847 0.0332346 -0.807172 0.259393 10.3818 -0.0490798 -0.056452 0.383447 0.04 
616 1 1 -0.0636368 -0.883772 -0.960429 0 0 0 -0.109358 -0.0211482 -0.0553773 3.51226 -5.50195 2.52908 -0.240512 -0.543474 0.0207107 0.04 
87 1 1 0.0172378 -0.887905 -0.959738 0 0 0 -0.182187 0.0490387 -0.270162 -28.492 4.11609 -44.5702 0.0267506 0.154219 -0.342903 0.04 
655 1 1 0.116551 -0.901696 -0.960886 0 0 0 0.123053 -0.108994 -0.0467024 -8.52702 -1.10752 29.724 0.497065 -0.00543295 -1.384 0.04 
977 1 1 0.193291 -0.880764 -0.958873 0 0 0 0.0719965 0.0487516 -0.0263271 -0.371564 3.03407 -5.97786 -0.304005 0.396341 0.539171 0.04 
19 1 1 0.27218 -0.891231 -0.960245 0 0 0 0.0450786 -0.0593226 -0.0418506 1.30395 -0.980891 -3.90003 -0.561274 0.389593 -0.34858 0.04 
443 1 1 0.352126 -0.888868 -0.960124 0 0 0 -0.0417605 0.00707203 -0.0142693 5.37841 -3.46146 -4.74224 -0.23451 0.491806 -0.47166 0.04 
664 1 1 0.432108 -0.891115 -0.960533 0 0 0 -0.0142024 -0.0889545 0.0286749 -0.261227 1.14905 8.97891 -0.0343058 0.0887895 -0.0134621 0.04 
396 1 1 0.514853 -0.878084 -0.957831 0 0 0 0.107781 0.09689 -0.0392599 0 0 -6.57473 -2.01348 0.27654 1.19571 0.04 
74 1 1 0.593672 -0.891828 -0.960273 0 0 0 -0.00817584 -0.0459673 0.00235971 2.2535 -0.545837 8.47674 0.74063 -0.112225 0.0631974 0.04 
50 1 1 0.67526 -0.891878 -0.960151 0 0 0 0.0247158 0.0338671 -0.0244422 -4.06216 6.55077 1.65464 0.0586729 -0.0843856 0.758618 0.04 
812 1 1 0.885818 -0.87751 -0.959096 0 0 0 -0.103669 -0.00568218 -0.116049 0 0 -6.57473 -0.479696 1.70146 1.82969 0.04 
778 1 1 -0.959786 -0.853139 -0.956294 0 0 0 -0.0947635 -0.0122393 -0.0582161 0.0166138 0.688703 -7.43972 0.52261 -1.8014 -2.49582 0.04 
352 1 1 -0.850413 -0.8235 -0.959095 0 0 0 0.290627 0.19077 -0.0721254 0 0 -6.57473 0.306867 1.15944 2.01045 0.04 
960 1 1 -0.689238 -0.814937 -0.960152 0 0 0 0.0793957 0.0719621 0.0363802 13.8263 -4.55073 1.14376 0.0528184 -0.305516 0.841783 0.04 
380 1 1 -0.534068 -0.803534 -0.960342 0 0 0 0.0462864 0.0351538 0.00332789 0.83476 -3.21104 5.34376 -1.06192 0.0238665 0.426532 0.04 
720 1 1 -0.255511 -0.822156 -0.960205 0 0 0 -0.0856646 -0.0731362 -0.0188985 -0.687709 -6.83746 4.84553 0.375494 -0.370671 0.611813 0.04 
161 1 1 -0.159088 -0.809571 -0.960485 0 0 0 -0.0195006 -0.0261777 -0.00870177 2.85147 2.35484 -0.468151 -0.24162 -0.865195 -0.0562205 0.04 
827 1 1 0.000762049 -0.809627 -0.960146 0 0 0 0.0119451 -0.0208365 0.0109227 -0.245916 0.390247 0.0133522 0.410211 0.537233 -1.166 0.04 
784 1 1 0.0776404 -0.83162 -0.96035 0 0 0 0.0187184 -0.099795 -0.0167904 -0.150155 -3.80235 2.89561 0.889436 0.131217 1.86518 0.04 
211 1 1 0.155356 -0.810239 -0.960205 0 0 0 -0.0339795 -0.0136211 -0.00371581 1.64223 -3.51846 -3.30644 0.000917152 0.478465 -1.41783 0.04 
121 1 1 0.23533 -0.812754 -0.960311 0 0 0 0.0914649 -0.0679926 -0.0456128 1.87551 7.67664 -1.57872 0.141195 -0.455052 0.68223 0.04 
229 1 1 0.382703 -0.813216 -0.960072 0 0 0 -0.0146438 0.0298526 0.00594385 -0.84576 -1.81201 -3.97772 -0.427149 -0.064487 -0.762462 0.04 
866 1 1 0.595959 -0.812152 -0.960214 0 0 0 -0.000177216 -0.0295537 -0.031112 5.79725 -10.1407 -3.06535 -0.0929502 -0.839628 1.96538 0.04 
628 1 1 0.67564 -0.812037 -0.959929 0 0 0 -0.0503929 0.00906028 0.037383 0.332522 -5.95849 -7.69776 -0.0128846 -0.965561 -0.184895 0.04 
1 1 1 0.750162 -0.865036 -0.960207 0 0 0 0.0617809 0.021692 -0.0295129 13.8608 0.0167022 5.33371 0.497004 0.565148 0.0380789 0.04 
554 1 1 0.820009 -0.824608 -0.960221 0 0 0 -0.0644754 0.021248 -0.00407174 -5.30596 6.80156 -6.53009 0.0704348 -0.345353 -0.115645 0.04 
417 1 1 0.960111 -0.839048 -0.95994 0 0 0 -0.0036587 0.0294076 0.0311674 -6.14874 -0.233953 -6.77418 -1.39088 0.729775 -0.546596 0.04 
446 1 1 -0.960247 -0.773028 -0.960174 0 0 0 0.0131875 0.0338294 -0.0844994 6.1281 -5.73582 1.15481 0.789796 1.46912 -0.399155 0.04 
894 1 1 -0.766389 -0.795405 -0.960035 0 0 0 -0.0286352 -0.0969215 0.0493786 -14.7871 -3.37754 -14.4618 2.45135 1.80496 -0.788798 0.04 
290 1 1 -0.61157 -0.78623 -0.960584 0 0 0 -0.100363 -0.0196878 -0.0114935 -11.4735 7.33938 14.7849 0.601979 0.472972 1.28067 0.04 
52 1 1 -0.45495 -0.79458 -0.960388 0 0 0 0.0370478 0.0663778 0.0517564 8.80451 3.04346 9.30767 -0.252097 -0.184361 0.383689 0.04 
480 1 1 -0.375154 -0.771314 -0.960373 0 0 0 0.0224239 0.063087 0.00151855 4.88357 4.22434 3.66719 -0.97361 -0.435912 0.119565 0.04 
402 1 1 -0.296708 -0.753913 -0.960113 0 0 0 0.0376251 0.0151218 -0.0303013 -15.068 16.2874 -5.10953 -0.107133 -0.0630974 -1.19033 0.04 
322 1 1 -0.217058 -0.752314 -0.960152 0 0 0 0.00429053 -0.0429371 -0.0388791 15.1282 -8.24395 2.12495 -0.256691 0.163525 -1.0404 0.04 
385 1 1 -0.0795188 -0.795143 -0.960152 0 0 0 0.00924657 -0.00489761 0.0222348 0.137366 0.028444 1.58789 0.137824 0.16115 0.777903 0.04 
773 1 1 0.107008 -0.744094 -0.960079 0 0 0 -0.00156327 -0.0667488 0.0205449 -0.0787521 0.189743 -2.466 1.68183 -0.0349792 -0.124637 0.04 
725 1 1 0.195903 -0.740925 -0.960196 0 0 0 0.124518 -0.0945277 0.00425978 -1.30757 -3.56203 4.25566 0.752803 1.4401 -1.14465 0.04 
354 1 1 0.308552 -0.779234 -0.960206 0 0 0 0.0106204 0.101931 -0.0163503 5.39651 -2.69431 -0.763883 -2.82652 -0.441432 -0.393799 0.04 
688 1 1 0.485376 -0.752506 -0.960161 0 0 0 0.106359 0.0332916 0.0342419 3.1799 -1.83768 -2.1941 -1.11636 2.32391 -1.08211 0.04 
757 1 1 0.568762 -0.737432 -0.960356 0 0 0 -0.105663 -0.0856427 -0.0303378 -4.07816 -6.74312 13.1696 1.03183 -1.90747 -1.21448 0.04 
519 1 1 0.648939 -0.736859 -0.959834 0 0 0 -0.127325 0.0166653 -0.0617606 -1.14117 6.25576 -6.0472 0.0550459 -1.46455 0.147774 0.04 
742 1 1 0.75056 -0.785188 -0.960125 0 0 0 -0.0529884 0.0188661 0.0119078 3.87356 6.88809 -11.396 0.330545 0.737976 0.0625718 0.04 
603 1 1 0.819319 -0.744749 -0.959815 0 0 0 -0.00783679 0.0066254 -0.00703885 6.51152 -2.48472 -6.51906 0.0421542 0.817696 -0.219309 0.04 
86 1 1 0.893621 -0.794278 -0.959785 0 0 0 -0.0291694 0.0330515 -0.00116474 6.81354 1.73049 -6.43136 0.393393 0.509762 1.07394 0.04 
972 1 1 0.960315 -0.750429 -0.960205 0 0 0 -0.00723877 -0.103658 -0.00849616 -1.60193 0.424239 5.13604 -0.275836 -0.094928 0.44763 0.04 
488 1 1 -0.958855 -0.683645 -0.961516 0 0 0 -0.0132032 0.0621278 0.115101 -0.341052 -9.22297 60.9026 0.721023 0.164976 -0.0221575 0.04 
492 1 1 -0.819436 -0.735662 -0.960411 0 0 0 0.133043 -0.109343 -0.0921553 -1.50668 0.829684 10.4564 1.43161 0.877552 -0.427022 0.04 
564 1 1 -0.742394 -0.715847 -0.960125 0 0 0 0.19563 -0.0933666 -0.0493095 -24.8321 -6.62933 -13.842 3.01648 -1.10888 -0.11942 0.04 
314 1 1 -0.664029 -0.725944 -0.959845 0 0 0 0.0125161 -0.0738254 0.025469 34.7857 -0.958741 -7.93419 1.28499 -0.656351 0.237442 0.04 
783 1 1 -0.603064 -0.667546 -0.960069 0 0 0 0.0679913 0.00575213 0.0183261 -1.70833 2.83412 -3.04014 0.673002 0.122729 1.22092 0.04 
1127 1 1 -0.54628 -0.723701 -0.96074 0 0 0 0.00631115 0.0467273 -0.00160019 8.73701 -2.34726 15.4218 -0.6238 -0.10397 -0.49031 0.04 
241 1 1 -0.46627 -0.708875 -0.960262 0 0 0 -0.0803261 0.124973 -0.0375828 0.381643 -0.650396 8.50726 -1.143 -0.8461 1.04544 0.04 
85 1 1 -0.387684 -0.692429 -0.960292 0 0 0 -0.0379731 0.0578799 0.0071325 -1.90397 4.55273 7.47152 -0.688054 -0.718784 0.0113879 0.04 
511 1 1 -0.308377 -0.674718 -0.960337 0 0 0 -0.0226182 0.0154136 0.0412381 -0.861691 0.297372 11.6565 -0.724871 -1.54722 -0.548324 0.04 
873 1 1 -0.218494 -0.672776 -0.960558 0 0 0 0.00377401 -0.023565 -0.0587838 1.55238 1.35113 8.53153 0.258235 -0.849088 0.895786 0.04 
376 1 1 -0.139704 -0.732161 -0.960388 0 0 0 -0.0049049 0.0179213 0.0259532 -4.45951 3.89609 5.31344 0.530649 0.0666583 -0.795705 0.04 
204 1 1 -0.0617701 -0.714608 -0.960181 0 0 0 0.000884593 -0.0423332 -0.00821966 0.156944 0.604772 1.43606 0.824623 -0.0558142 0.825907 0.04 
1122 1 1 0.0167784 -0.729537 -0.960135 0 0 0 -0.00264074 -0.0203101 -0.014507 -2.18259 -1.60828 -3.10975 0.2035 0.623343 -0.788272 0.04 
967 1 1 0.279319 -0.702602 -0.96028 0 0 0 0.0379454 -0.0752055 -0.0201979 -4.9352 1.88281 1.99328 1.17131 0.420752 -0.10756 0.04 
159 1 1 0.360234 -0.717076 -0.960143 0 0 0 0.102273 -0.0247319 -0.0405218 -2.32472 1.91135 -0.621629 -0.677954 0.706827 0.54192 0.04 
451 1 1 0.436074 -0.689301 -0.96029 0 0 0 0.0409598 0.051629 0.042261 1.86719 6.69725 -4.62473 -0.421487 0.996699 1.15979 0.04 
177 1 1 0.515331 -0.678367 -0.960139 0 0 0 0.0226049 0.0115514 0.0290406 -2.29684 -0.949283 -14.0694 -0.756385 1.14989 -0.0954761 0.04 
439 1 1 0.750302 -0.704998 -0.960485 0 0 0 0.0109822 0.0633741 -0.00616964 -11.1054 -3.95674 17.2147 -0.823263 -1.15381 0.0595387 0.04 
188 1 1 0.891282 -0.710623 -0.960456 0 0 0 0.0110603 -0.048472 -0.0232006 -3.33796 9.48768 18.5683 -0.215908 -0.479557 -0.218993 0.04 
987 1 1 0.960144 -0.670178 -0.960139 0 0 0 0.00658184 -0.0422669 0.00600382 5.4545 -1.96243 0.205442 -0.0533577 -0.0391837 0.671346 0.04 
532 1 1 -0.881227 -0.663152 -0.960249 0 0 0 -0.0563063 -0.161054 -0.0079343 -5.56099 3.46967 -0.789378 1.43562 -0.429712 0.971303 0.04 
826 1 1 -0.799355 -0.657912 -0.959898 0 0 0 0.00684708 -0.0922047 0.021023 0 0 -6.57473 0.557155 0.775084 0.481647 0.04 
567 1 1 -0.680423 -0.647464 -0.960192 0 0 0 0.0253305 -0.0805428 0.0433307 2.47756 -2.97302 3.23986 0.317794 -0.19926 -1.02209 0.04 
170 1 1 -0.520134 -0.635362 -0.959582 0 0 0 -0.122273 -0.0310677 -0.0220898 -5.24794 0.0525922 -6.4761 -2.07733 0.566746 -1.26465 0.04 
375 1 1 -0.440374 -0.632224 -0.960456 0 0 0 0.0222644 0.112976 -0.0443966 -7.13834 -1.50297 11.2224 -0.27312 0.511977 0.965125 0.04 
709 1 1 -0.362459 -0.615626 -0.960223 0 0 0 0.0133141 -0.00121248 -0.0389298 2.11817 -7.06617 0.171336 -0.624113 -0.690696 -0.436415 0.04 
738 1 1 -0.126242 -0.653209 -0.960501 0 0 0 -0.00119914 0.0375977 -0.0530409 2.89568 -1.14829 12.0922 0.463879 -0.40922 0.408881 0.04 
1046 1 1 -0.0482922 -0.63558 -0.960136 0 0 0 -0.00248446 -0.021992 -0.00691555 0.369096 3.03679 -0.887493 0.168282 -0.420361 0.23609 0.04 
581 1 1 0.0302157 -0.650817 -0.960294 0 0 0 -0.0135713 0.0197613 -0.0193966 -0.743609 -4.27893 4.57879 -0.460086 -0.678534 -0.439435 0.04 
1088 1 1 0.116816 -0.663814 -0.960349 0 0 0 -0.052427 -0.00244369 0.0067552 4.42773 2.68135 5.30444 0.644031 -1.30434 0.750846 0.04 
862 1 1 0.21008 -0.662313 -0.960279 0 0 0 0.0437071 -0.0315589 0.0516598 -3.90232 5.34313 -1.23835 0.968297 0.0977896 0.682475 0.04 
656 1 1 0.325452 -0.634578 -0.960412 0 0 0 0.0589083 -0.0235314 -0.0403376 1.59122 -1.44558 11.3011 0.18121 0.156654 0.31247 0.04 
1082 1 1 0.406723 -0.614736 -0.960342 0 0 0 0.0406282 0.0226962 0.0226299 7.04251 -0.118744 -1.69601 -0.441527 0.53496 -0.563088 0.04 
255 1 1 0.48605 -0.604414 -0.960456 0 0 0 0.0143196 0.0336929 0.0580095 -0.206291 2.38301 1.60979 -0.390785 0.31013 0.203954 0.04 
880 1 1 0.607901 -0.668206 -0.96036 0 0 0 -0.0238589 -0.143386 -0.0549255 3.48177 13.1116 -0.505076 -0.553464 -1.05116 -0.923118 0.04 
543 1 1 0.746425 -0.625126 -0.960073 0 0 0 -0.0302058 0.0662044 0.0072448 -0.00203423 0.983597 -2.63536 0.178446 -0.699959 -0.687288 0.04 
662 1 1 0.817793 -0.662377 -0.960121 0 0 0 -0.03648 0.0100718 0.00182946 0.000732799 1.28399 -0.183318 -0.555155 -0.222514 -0.332785 0.04 
553 1 1 0.890986 -0.630541 -0.960481 0 0 0 0.00111635 -0.0768769 -0.0761774 -0.768303 6.12549 16.9656 1.03286 -0.0407044 -0.0530796 0.04 
260 1 1 -0.960099 -0.588416 -0.960311 0 0 0 -0.0219422 -0.0392258 -0.0429689 -3.82674 5.17589 5.45293 0.037473 -0.192305 -0.830015 0.04 
990 1 1 -0.880516 -0.58302 -0.96016 0 0 0 -0.0660992 -0.103701 -0.000665804 10.1408 -3.05643 -1.00312 0.671855 -0.0536106 -0.580845 0.04 
565 1 1 -0.807231 -0.550578 -0.960229 0 0 0 -0.0744445 0.0242561 -0.0825929 -4.26764 19.0898 -8.21583 0.813689 0.196321 0.442524 0.04 
1152 1 1 -0.744183 -0.599478 -0.960034 0 0 0 -0.0556616 -0.0514165 -0.0105151 -8.35654 -16.2231 -9.84662 0.124515 0.547695 0.0315915 0.04 
1113 1 1 -0.689534 -0.541623 -0.960021 0 0 0 -0.0434653 -0.00498221 0.0599557 16.357 6.54068 -6.83481 -0.0257009 -0.975474 0.56619 0.04 
925 1 1 -0.624683 -0.589177 -0.959935 0 0 0 0.025181 -0.0207263 0.0404987 0 0 -6.57473 0.146533 0.218204 0.57672 0.04 
893 1 1 -0.548724 -0.560329 -0.960323 0 0 0 -0.0548553 0.135335 0.0307008 0.293482 -0.828661 11.0072 -1.08942 -0.559657 2.45605 0.04 
1103 1 1 -0.457098 -0.55346 -0.960271 0 0 0 -0.0353449 0.0392805 -0.0462109 3.81268 -7.22593 9.29724 0.211127 2.04465 1.30151 0.04 
1448 1 1 -0.378305 -0.536887 -0.960245 0 0 0 0.0401594 0.0430979 0.0274853 -1.68449 -4.11804 0.214918 -1.88432 -0.0901471 0.195254 0.04 
631 1 1 -0.29475 -0.573812 -0.959861 0 0 0 -0.0778706 0.0368075 -0.0528385 -3.8696 11.2636 -6.15586 -0.294963 -0.144559 0.760805 0.04 
714 1 1 -0.217598 -0.592984 -0.960204 0 0 0 -0.0425429 -0.00179924 0.00679208 10.0813 -7.02285 -1.94602 0.0433644 -1.40136 -0.263462 0.04 
962 1 1 -0.156512 -0.541744 -0.960528 0 0 0 -0.0249957 0.00127378 0.0562091 8.93597 2.96978 22.2229 0.439884 -0.292609 -0.63155 0.04 
950 1 1 -0.0786105 -0.56049 -0.960245 0 0 0 -0.0344795 -0.0494464 0.055203 -0.774361 -1.03192 2.82588 0.0155006 0.0701393 -0.111369 0.04 
716 1 1 0.00447206 -0.575337 -0.960157 0 0 0 0.0141676 0.0129698 -0.0183237 5.40264 -3.9158 -5.1095 0.0257658 0.146018 -0.362129 0.04 
388 1 1 0.082951 -0.59074 -0.96013 0 0 0 -0.029783 0.0104146 -0.00957873 -1.67239 1.35469 0.870292 0.13515 -0.34251 -1.40952 0.04 
61 1 1 0.16248 -0.598026 -0.960332 0 0 0 0.00505067 -0.0725303 0.0163239 -2.02519 -7.465 -0.0015591 1.20092 -0.0751305 0.611242 0.04 
1052 1 1 0.255011 -0.595816 -0.96032 0 0 0 0.0358983 -0.00912938 -0.0123631 1.69648 -2.26265 11.5572 -0.934005 0.266678 1.0115 0.04 
576 1 1 0.321673 -0.550968 -0.960155 0 0 0 0.0750537 0.00805449 -0.00818624 -0.210897 -0.120523 1.91339 0.0805252 0.0548154 0.105693 0.04 
408 1 1 0.400174 -0.535041 -0.960055 0 0 0 0.0951623 0.00637029 -0.0735229 1.93978 -11.2755 -1.78639 -0.220514 -0.278344 0.933913 0.04 
1026 1 1 0.565847 -0.600711 -0.960651 0 0 0 -0.00533433 -0.0275646 0.0832201 -3.38448 8.85488 1.51654 1.65428 0.374784 -0.73258 0.04 
1111 1 1 0.670313 -0.593981 -0.960101 0 0 0 -0.0975986 0.0918266 0.0318553 -0.203045 2.34725 -2.3048 -0.403747 -0.806231 -0.0914215 0.04 
1138 1 1 0.734199 -0.545624 -0.960156 0 0 0 0.00323198 0.0197618 -0.0462619 -0.037934 -0.464144 2.73911 0.315016 0.0147494 -0.00392538 0.04 
58 1 1 0.812973 -0.57703 -0.960403 0 0 0 0.0218337 -0.0576078 -0.028945 3.63185 -0.766353 4.92451 1.52869 0.461516 -1.13847 0.04 
1107 1 1 0.890528 -0.550305 -0.96036 0 0 0 0.044473 -0.00312806 0.0261812 3.60439 -6.57654 6.32628 -0.15391 0.804029 0.266711 0.04 
252 1 1 0.960025 -0.590019 -0.960347 0 0 0 0.0154725 -0.026359 0.00701137 -0.902698 -5.08104 6.90699 -0.327894 0.0126008 -0.264643 0.04 
670 1 1 -0.959149 -0.508196 -0.960323 0 0 0 0.00300769 0.0223515 -0.000849656 -0.0153168 -0.901286 11.4536 0.659802 0.0546188 0.317553 0.04 
644 1 1 -0.751961 -0.491899 -0.96011 0 0 0 0.0284735 -0.0238088 0.0529963 2.56234 7.40567 -25.8308 0.485143 0.134422 -0.0941701 0.04 
435 1 1 -0.613165 -0.509855 -0.96019 0 0 0 -0.0128063 -0.0267474 0.0921512 0.603433 -10.3249 -12.1421 -0.0308338 -0.278569 -0.618509 0.04 
816 1 1 -0.492694 -0.482061 -0.960167 0 0 0 -0.125741 0.0696877 0.00908655 -1.19525 7.62016 -3.95677 0.597261 -0.934774 -0.133987 0.04 
489 1 1 -0.318005 -0.483765 -0.960089 0 0 0 -0.0439515 -0.0523073 -0.00594275 -2.19144 3.22361 -6.21712 -1.24147 -0.33891 -0.490408 0.04 
883 1 1 -0.241618 -0.514006 -0.960283 0 0 0 -0.0790235 0.0554349 0.0449019 -4.21436 -4.90835 8.33876 -1.06576 -0.654074 -0.538867 0.04 
675 1 1 -0.101388 -0.484023 -0.9552 0 0 0 -0.00943327 -0.0511112 -0.148911 0.769588 -5.03608 -3.68751 0.59465 -1.17804 -0.00992587 0.04 
1066 1 1 -0.0235183 -0.500752 -0.960169 0 0 0 0.0306146 -0.00556654 -0.00912094 0.017878 0.403849 -10.3373 0.0929118 -0.11267 0.0461097 0.04 
143 1 1 0.0565909 -0.514504 -0.960156 0 0 0 0.00034944 -0.045769 -0.0296526 -1.39682 -1.9437 0.0108018 0.601802 0.263758 0.0900079 0.04 
1346 1 1 0.15321 -0.472089 -0.960217 0 0 0 -0.0290177 -0.0414044 -0.00192034 4.85304 -3.93517 -4.99109 0.819051 -1.06959 1.19536 0.04 
867 1 1 0.207037 -0.531922 -0.960282 0 0 0 -0.0230828 -0.0596571 0.0539869 4.40726 12.0442 8.7503 1.13309 -0.08322 -0.515918 0.04 
1000 1 1 0.273275 -0.486563 -0.960147 0 0 0 -0.0801086 -0.0684738 0.00679738 -8.1965 0.897368 -1.73487 1.3785 -0.371056 0.316933 0.04 
792 1 1 0.351662 -0.471942 -0.960153 0 0 0 -0.0265115 -0.0591025 0.0106974 6.25135 3.10737 -1.99179 0.699964 0.302114 0.0692018 0.04 
814 1 1 0.479354 -0.524898 -0.959977 0 0 0 0.103754 0.0466478 -0.0217052 0.822314 -8.3379 -5.89786 0.0844895 0.769487 -1.12974 0.04 
1288 1 1 0.581072 -0.522055 -0.960358 0 0 0 0.0280714 -0.0630962 -0.00816196 -5.7306 7.68882 6.30705 -0.0434595 -0.287823 -0.0121461 0.04 
908 1 1 0.663008 -0.507044 -0.959832 0 0 0 0.00134228 0.024046 0.00332253 0 0 -6.57473 -0.429078 0.157515 0.00330411 0.04 
1309 1 1 0.794301 -0.492524 -0.960242 0 0 0 -0.0443679 0.0413052 0.0461471 0.242389 -0.596547 6.30349 -0.20637 -0.775687 1.52113 0.04 
9 1 1 0.890804 -0.470358 -0.960146 0 0 0 -0.0208257 -0.0254274 -0.0186504 -3.65844 2.06415 -8.68326 0.246615 0.327271 -0.419271 0.04 
771 1 1 0.96015 -0.510111 -0.960287 0 0 0 0.0340834 -0.00508982 -0.0218437 -6.94899 0.922055 8.08724 -0.158451 0.274901 0.280839 0.04 
1055 1 1 -0.960134 -0.412347 -0.960172 0 0 0 0.0235139 -0.107996 -0.00819094 1.57357 -1.61004 -6.66699 1.00339 -0.0593587 -0.860031 0.04 
739 1 1 -0.890815 -0.452174 -0.960251 0 0 0 -0.00767383 -0.0915961 -0.0048894 -0.609197 -2.89569 -0.875464 1.30349 0.115302 0.176942 0.04 
1142 1 1 -0.821538 -0.41221 -0.96022 0 0 0 -0.0251932 0.0178028 0.0368567 -5.50805 5.18772 -8.45114 1.16284 -0.654898 0.161869 0.04 
833 1 1 -0.677923 -0.461792 -0.960517 0 0 0 0.00766184 0.0404239 0.0936225 4.19845 -13.3584 12.2954 0.0497855 -0.390004 0.109737 0.04 
620 1 1 -0.557269 -0.432938 -0.960255 0 0 0 -0.0647173 -0.0798051 0.0197798 -0.00937327 0.602865 6.86221 1.11699 -1.08871 0.449963 0.04 
1316 1 1 -0.469199 -0.405587 -0.960151 0 0 0 -0.0968905 0.0184587 -0.0104528 -9.8819 4.35047 -4.99089 0.708882 -0.835574 -1.41535 0.04 
344 1 1 -0.41168 -0.460744 -0.960117 0 0 0 -0.0400303 0.0296454 0.00135004 7.50231 -7.73911 0.309093 -1.8021 -1.99901 -0.194037 0.04 
247 1 1 -0.327768 -0.403798 -0.960349 0 0 0 0.0243991 0.0180775 0.0298019 3.13221 0.0665165 -2.87064 -0.403259 0.161308 0.358817 0.04 
382 1 1 -0.253417 -0.434886 -0.96029 0 0 0 -0.027239 0.00485104 0.0228232 0.852572 0.795322 2.18817 -0.243041 -0.669206 0.0845168 0.04 
305 1 1 -0.178663 -0.464931 -0.9602 0 0 0 -0.0289073 0.0137424 -0.00333373 1.90871 -2.95731 -0.854647 0.0921013 0.339771 -0.839685 0.04 
1271 1 1 -0.0941283 -0.404729 -0.960367 0 0 0 0.00467807 0.0145605 -0.0117735 -1.39249 -4.89886 -2.40086 0.581579 -0.117811 0.0807735 0.04 
1249 1 1 0.0315302 -0.438168 -0.960233 0 0 0 0.0234321 -0.016957 0.00132416 -2.42023 -3.51427 0.0848055 0.0734186 -0.152305 -0.800915 0.04 
1030 1 1 0.105254 -0.40788 -0.960271 0 0 0 -0.0372589 -0.0174446 0.0226886 9.29601 2.15781 3.06607 0.746973 -0.27978 -0.132692 0.04 
1148 1 1 0.221996 -0.424571 -0.960471 0 0 0 -0.004329 -0.0575159 -0.0289287 -17.7397 -9.96004 7.06499 0.977144 0.895264 0.115147 0.04 
772 1 1 0.300374 -0.41093 -0.960217 0 0 0 0.0466518 -0.0874566 -0.0269191 12.9571 5.97979 6.14865 0.3911 -0.414176 -1.13678 0.04 
1361 1 1 0.431241 -0.461213 -0.960526 0 0 0 -0.056532 -0.0497929 -0.162917 -4.7715 3.09719 25.1962 -0.108293 -0.816871 1.33067 0.04 
584 1 1 0.527923 -0.461783 -0.960409 0 0 0 0.106501 -0.0411253 0.117301 4.03992 -7.18625 5.85898 0.0572915 1.80641 0.245132 0.04 
1047 1 1 0.608546 -0.446413 -0.960139 0 0 0 -0.0364641 0.0425295 -0.0384269 4.03412 -1.69034 -3.2412 0.0444832 -0.022299 -1.3312 0.04 
1474 1 1 0.685529 -0.423267 -0.960273 0 0 0 0.0220446 -0.185113 -0.0257708 6.37549 -1.56873 -0.439719 0.721534 -0.510771 0.378492 0.04 
840 1 1 0.765187 -0.415972 -0.960468 0 0 0 0.0341975 -0.0499624 -0.0711986 -9.55084 3.80762 15.4016 -1.25929 0.191732 0.589651 0.04 
852 1 1 0.960056 -0.430114 -0.960293 0 0 0 4.81961e-05 -0.0219022 -0.0143169 0.841866 -9.13554 5.26212 -0.201539 -0.104743 -0.270423 0.04 
326 1 1 -0.890922 -0.372246 -0.960272 0 0 0 0.0164133 -0.103814 0.00602646 -2.27918 -1.86025 3.89933 0.426711 0.262298 0.832589 0.04 
1246 1 1 -0.750183 -0.376459 -0.96002 0 0 0 -0.0396251 -0.0363965 -0.00218241 -0.127443 -0.754697 -5.44359 0.78685 -0.0168258 0.0280788 0.04 
613 1 1 -0.625012 -0.387845 -0.960241 0 0 0 -0.00230838 -0.0168387 0.00149412 1.00129 -8.28664 -3.87891 0.00793256 -1.12533 0.28746 0.04 
857 1 1 -0.531794 -0.350981 -0.960484 0 0 0 0.00530928 -0.0256247 0.0709634 -0.733088 -0.544811 13.3401 0.484269 0.49122 0.198182 0.04 
92 1 1 -0.402659 -0.361549 -0.959965 0 0 0 -0.0440378 -0.0438922 -0.0216624 5.53591 0.744043 -8.70355 -0.84024 -0.233413 1.205 0.04 
1124 1 1 -0.263717 -0.355646 -0.960209 0 0 0 -0.00374885 0.0199501 -0.00214291 0.166861 2.22518 1.45351 -0.0108049 -0.103191 -0.200936 0.04 
868 1 1 -0.188484 -0.385856 -0.960137 0 0 0 0.0173698 0.0212422 -3.7213e-05 -1.4043 1.14222 -2.01611 -0.193425 0.288236 0.222169 0.04 
1223 1 1 -0.0220392 -0.368229 -0.960199 0 0 0 -0.0539191 0.0255954 0.00364441 -2.91546 0.135879 1.13185 -0.397634 -0.929864 -0.124667 0.04 
144 1 1 0.0547678 -0.345947 -0.960194 0 0 0 -0.0296435 -0.00757238 0.0268464 1.81068 -3.03945 -4.38998 0.00618686 -0.855598 -1.07269 0.04 
315 1 1 0.170928 -0.362536 -0.96022 0 0 0 -0.0211356 -0.0338797 -0.0405381 -0.991304 4.65931 4.97919 0.256604 -0.469068 0.639748 0.04 
1187 1 1 0.249643 -0.349381 -0.960246 0 0 0 0.0085074 -0.0349856 -0.0152712 5.85407 -6.04218 -2.30788 0.650236 -0.321215 -0.137502 0.04 
220 1 1 0.329718 -0.335856 -0.960257 0 0 0 -0.0646442 0.00108634 0.0322047 0.176044 0.905218 4.76314 0.374892 -0.287398 0.0338065 0.04 
845 1 1 0.380657 -0.397497 -0.960197 0 0 0 -0.0989654 -0.107701 0.00903233 0.658904 4.20167 -0.87172 0.530043 -1.25592 1.45927 0.04 
677 1 1 0.461639 -0.387337 -0.96011 0 0 0 -0.0931487 -0.0196267 -0.0312756 -0.636056 0.488027 -0.0504979 -0.0333768 -0.541848 -1.15902 0.04 
981 1 1 0.555195 -0.387011 -0.960361 0 0 0 0.0260621 -0.00471473 0.0634118 3.16059 -4.59167 4.53928 -0.290676 -0.097432 1.44695 0.04 
361 1 1 0.631781 -0.364339 -0.96021 0 0 0 0.0464065 -0.128187 0.0206593 -1.21361 7.72471 4.55837 0.201919 0.013051 -1.3209 0.04 
764 1 1 0.721242 -0.347771 -0.960269 0 0 0 0.00121687 -0.059177 -0.00495794 -2.34304 -3.91204 0.0629823 0.0820318 0.983683 -0.85726 0.04 
499 1 1 0.801175 -0.344409 -0.96014 0 0 0 -0.0115895 -0.0851319 0.00425302 1.69481 -3.79014 -6.25855 1.57592 -0.22448 -0.547519 0.04 
398 1 1 0.87508 -0.375102 -0.960185 0 0 0 0.0395704 0.0232254 -0.00352167 0.727354 1.5987 2.46357 -0.420954 0.646159 1.19529 0.04 
975 1 1 0.952615 -0.350683 -0.960171 0 0 0 -5.61766e-05 0.0156953 -0.0235853 -1.14497 2.48405 -1.12491 0.136203 0.226232 0.17692 0.04 
982 1 1 -0.960246 -0.332476 -0.96046 0 0 0 -0.00941823 -0.0796074 0.0247799 8.36478 -3.89593 4.93807 1.32224 -0.196458 -0.287051 0.04 
995 1 1 -0.891174 -0.292232 -0.960136 0 0 0 -0.0278501 -0.0812217 -0.0115367 1.19268 -9.33297 0.5932 1.24446 0.44937 0.919881 0.04 
1215 1 1 -0.821892 -0.332041 -0.960837 0 0 0 0.0277863 -0.0243908 -0.0524989 0.915082 -0.430858 40.9686 0.59209 0.171917 0.227149 0.04 
76 1 1 -0.752345 -0.292671 -0.960115 0 0 0 -0.0367776 -0.0593117 -0.0501255 0.426556 -6.62095 -11.2679 -0.0734421 0.342186 -0.452047 0.04 
969 1 1 -0.683065 -0.333305 -0.960317 0 0 0 -0.0694888 -0.0371129 0.0197858 -3.4921 3.61757 1.56088 0.520246 -0.435635 0.1639 0.04 
230 1 1 -0.603681 -0.310908 -0.960106 0 0 0 -0.0356561 0.0385348 0.000220068 2.1229 4.93009 -1.22726 0.402373 -1.40542 -0.089262 0.04 
116 1 1 -0.465552 -0.306343 -0.960131 0 0 0 0.0864457 -0.00540391 -0.0109075 3.52136 9.97092 -7.98099 0.358088 -0.230566 -0.564005 0.04 
978 1 1 -0.350163 -0.301247 -0.960213 0 0 0 -0.0215971 -0.0153879 -0.00669336 -3.55775 -1.36647 2.53614 0.0483907 -0.0607597 0.143551 0.04 
1155 1 1 -0.274338 -0.276144 -0.960302 0 0 0 -0.00623738 -0.00621532 -0.0126346 -1.524 -1.51662 2.88249 -0.113875 -0.10549 0.44756 0.04 
1214 1 1 -0.200242 -0.307013 -0.960234 0 0 0 -0.0232026 0.0162194 -0.000331969 -2.12337 0.0860635 -0.0997291 -0.277051 -0.230174 -0.00805327 0.04 
1010 1 1 -0.124115 -0.330909 -0.960381 0 0 0 -0.0411341 -0.0262302 -0.0192741 -1.03821 2.77434 -0.132446 0.00215844 -0.230305 -0.293973 0.04 
201 1 1 -0.0533261 -0.294305 -0.96043 0 0 0 -0.066798 0.0258732 0.00656384 3.78971 5.01675 3.05106 0.0369511 -0.91011 0.878331 0.04 
1062 1 1 0.0296314 -0.270175 -0.960391 0 0 0 -0.00385439 -0.0146612 -0.0217906 -1.71334 6.65074 15.4455 -0.156632 0.242977 1.19789 0.04 
404 1 1 0.117271 -0.294943 -0.960127 0 0 0 -0.0488453 0.0658205 -0.0269569 0.330618 -0.148527 0.865662 -1.64392 -1.21514 0.26779 0.04 
1216 1 1 0.199227 -0.287638 -0.960389 0 0 0 -0.015852 -0.0182668 -0.0186049 -1.95813 -0.674967 -0.68171 0.189589 -0.23357 0.353234 0.04 
780 1 1 0.278021 -0.274749 -0.960254 0 0 0 -0.0208111 -0.00161206 0.0047589 9.78864 -0.37211 -0.231102 0.313956 -0.681222 -0.18298 0.04 
624 1 1 0.432082 -0.298808 -0.960129 0 0 0 -0.118004 -0.0580266 0.0387743 16.1521 -25.7173 -0.986791 0.173082 0.449343 0.119196 0.04 
309 1 1 0.50854 -0.32268 -0.960147 0 0 0 -0.0309538 -0.00558021 0.0490501 -6.62332 4.2699 1.15034 0.898039 -0.377757 -0.403566 0.04 
1074 1 1 0.585139 -0.299413 -0.960468 0 0 0 -0.0299085 0.0220545 0.0277042 -16.4481 -12.939 5.45947 0.963929 -0.261248 -0.798094 0.04 