ITEM: TIMESTEP
119000
ITEM: NUMBER OF ATOMS
1500
ITEM: BOX BOUNDS ff ff ff
-1 1
-1 1
-1 1
ITEM: ATOMS id type type x y z ix iy iz vx vy vz fx fy fz omegax omegay omegaz radius 
137 1 1 -0.96011 -0.960152 -0.960202 0 0 0 8.97487e-07 1.90074e-06 -1.53759e-06 -0.000206435 0.000254357 0.000108149 -6.84665e-05 4.63492e-05 4.9548e-05 0.04 
5 1 1 -0.830892 -0.960168 -0.960266 0 0 0 6.64042e-06 -2.03183e-06 -9.9459e-07 1.4295e-05 8.52012e-05 0.000318342 3.58688e-05 0.000170613 -7.8234e-05 0.04 
239 1 1 -0.750973 -0.96014 -0.960255 0 0 0 5.59064e-06 -5.90837e-06 -3.88884e-06 2.63902e-05 0.000158309 0.000103742 8.7787e-05 6.4596e-05 -3.59165e-05 0.04 
34 1 1 -0.671017 -0.960044 -0.960246 0 0 0 6.07565e-06 -5.59647e-06 -1.67142e-06 7.89001e-05 -0.000235387 -0.000205688 0.000102301 4.96621e-05 -5.52399e-05 0.04 
415 1 1 -0.591068 -0.960062 -0.960291 0 0 0 6.43453e-06 -8.22482e-06 -5.06702e-06 -0.000101519 -0.000167124 -0.000438202 0.000117916 0.000113188 -0.000150933 0.04 
138 1 1 -0.510834 -0.960069 -0.960241 0 0 0 7.25357e-06 1.64142e-06 5.00217e-06 -0.000565417 0.000357259 0.000265596 7.07067e-05 -1.576e-05 -0.000261156 0.04 
323 1 1 -0.43029 -0.959877 -0.960154 0 0 0 -1.9129e-06 -1.09231e-05 -1.01262e-05 0.000371275 0.00136649 0.0013226 0.000261563 -0.000206754 0.000548733 0.04 
130 1 1 -0.350318 -0.960038 -0.960251 0 0 0 2.96659e-06 4.19006e-06 2.11395e-06 0.000317844 -0.000357063 -3.90029e-05 -3.2991e-05 4.58105e-05 -0.000138953 0.04 
502 1 1 -0.270343 -0.960119 -0.960299 0 0 0 4.34107e-06 1.68163e-06 1.25908e-06 0.000156976 -0.00116324 -0.000955834 -5.01451e-05 -5.95709e-05 -2.7712e-06 0.04 
494 1 1 -0.174299 -0.960163 -0.960229 0 0 0 3.04675e-06 4.89987e-06 4.84793e-06 0.000236238 -0.000433201 -0.000508892 2.04092e-06 7.65918e-05 -8.7568e-05 0.04 
448 1 1 -0.0943154 -0.960146 -0.960266 0 0 0 7.22903e-07 3.30809e-06 2.53198e-06 0.000186713 0.000143769 -4.58548e-06 4.1819e-05 -9.26836e-06 3.24708e-06 0.04 
147 1 1 -0.0144648 -0.96016 -0.960215 0 0 0 -2.10531e-06 2.36231e-06 4.72015e-06 -1.65292e-05 0.000256518 -8.83819e-06 2.44738e-05 -6.01725e-05 1.02791e-05 0.04 
218 1 1 0.0655312 -0.960172 -0.960209 0 0 0 -2.1901e-06 1.35472e-06 4.91246e-06 -8.11699e-05 0.000308573 -0.00018322 4.8607e-05 1.79142e-05 7.27868e-06 0.04 
339 1 1 0.145757 -0.960145 -0.960214 0 0 0 -2.09702e-06 -6.81999e-07 1.9539e-07 -0.000136281 0.000152379 -6.94794e-05 1.11199e-05 2.11276e-05 7.98134e-06 0.04 
81 1 1 0.225734 -0.960094 -0.960177 0 0 0 -1.48041e-06 -1.95072e-06 -9.23548e-07 -0.000126214 -4.65996e-05 0.000132255 9.15134e-06 9.39459e-06 2.1587e-05 0.04 
341 1 1 0.305651 -0.960069 -0.960157 0 0 0 -1.81591e-06 -1.30521e-06 -6.02153e-06 -2.50561e-05 -0.000323368 0.000303748 -6.59866e-05 5.9533e-05 7.33986e-06 0.04 
203 1 1 0.385622 -0.960081 -0.960219 0 0 0 -3.3111e-06 2.46399e-06 -5.7193e-06 0.000217623 -0.000811388 0.000577988 -0.000121825 -3.44818e-05 0.000134505 0.04 
1019 1 1 0.473737 -0.960015 -0.960209 0 0 0 -4.02433e-06 -3.84391e-06 5.31191e-06 0.000454872 0.000403574 -0.000545979 0.000134205 6.3124e-05 0.000102609 0.04 
821 1 1 0.553721 -0.960025 -0.960231 0 0 0 -3.20334e-06 -8.01422e-09 -1.10502e-06 0.00021543 -0.000190646 -2.30485e-06 -6.71218e-05 4.98775e-06 2.14932e-05 0.04 
636 1 1 0.633692 -0.960458 -0.9602 0 0 0 -4.00684e-06 8.5858e-07 -2.1977e-06 0.000140194 5.02926e-05 -0.00019899 7.09889e-06 -6.34374e-05 2.66543e-05 0.04 
729 1 1 0.720239 -0.960012 -0.96016 0 0 0 -5.84368e-06 -3.98747e-06 2.00905e-06 0.000190625 -8.52283e-05 0.000994283 0.000106651 -0.000151891 0.000202421 0.04 
503 1 1 0.800202 -0.960037 -0.960137 0 0 0 1.83419e-06 2.08928e-06 2.54366e-06 1.81308e-05 2.80074e-05 2.12875e-05 1.12153e-05 9.05253e-05 -4.51641e-05 0.04 
424 1 1 0.880173 -0.96004 -0.96016 0 0 0 2.40934e-06 -1.90335e-06 -1.42599e-06 -8.43697e-05 6.44061e-05 9.8138e-05 9.76081e-06 4.47958e-05 -0.000133152 0.04 
850 1 1 0.9601 -0.958945 -0.960223 0 0 0 1.44937e-06 -8.71011e-06 -4.46221e-06 -1.6614e-06 3.86798e-05 6.94954e-05 0.000299731 -3.0284e-05 0.000140656 0.04 
778 1 1 -0.959929 -0.880401 -0.960216 0 0 0 2.19686e-06 9.18157e-08 -4.54331e-06 -0.000288465 -0.000302233 6.31896e-06 2.31006e-05 3.12928e-05 -0.000142971 0.04 
918 1 1 -0.880185 -0.897208 -0.960225 0 0 0 6.36108e-06 -3.69489e-06 1.247e-05 -0.000123934 0.000492774 0.000555898 0.000180404 0.00019122 3.83309e-05 0.04 
246 1 1 -0.791824 -0.890618 -0.960152 0 0 0 6.698e-06 -1.18271e-06 8.02184e-06 -0.000273625 0.000299142 4.79978e-05 1.8116e-05 -1.62862e-05 0.000106838 0.04 
586 1 1 -0.71186 -0.890539 -0.960297 0 0 0 6.04556e-06 -6.69562e-06 -8.32202e-06 -0.000402657 0.000433627 0.000914661 1.4355e-05 0.000155957 -0.000166213 0.04 
379 1 1 -0.630909 -0.890721 -0.960191 0 0 0 5.22013e-06 -1.18402e-05 2.92763e-06 -0.000631135 -0.000554883 -0.00128098 0.000173961 8.66893e-05 0.000240261 0.04 
105 1 1 -0.550902 -0.890948 -0.960215 0 0 0 8.05695e-06 -4.62793e-06 5.26919e-06 -0.000725156 -0.000743375 -0.00137459 3.84942e-05 -3.67839e-05 0.000208035 0.04 
289 1 1 -0.471001 -0.890716 -0.960249 0 0 0 2.34401e-05 1.37605e-05 -6.54779e-06 -0.000576238 -0.0021117 -0.000246058 -0.000306528 0.000630791 0.000305048 0.04 
345 1 1 -0.387754 -0.869351 -0.960118 0 0 0 -0.00161666 -0.00126345 -1.36298e-05 1.26936e-07 5.07192e-08 -0.000327887 0.0316328 -0.0404763 0.077917 0.04 
209 1 1 -0.310223 -0.890869 -0.960163 0 0 0 1.23063e-05 -2.42212e-06 3.82914e-06 0.000397739 -0.00217214 0.000325937 0.000145685 0.000263362 -0.000173126 0.04 
647 1 1 -0.222237 -0.896276 -0.960225 0 0 0 5.58921e-06 8.40975e-06 -5.26931e-07 0.00045363 -0.00146346 -0.00171541 -0.000239096 0.000200887 9.95909e-05 0.04 
700 1 1 -0.134298 -0.891095 -0.960196 0 0 0 4.15814e-06 9.09312e-06 4.67033e-06 0.000122809 -0.000377651 -0.000327799 -0.000151351 2.23324e-05 4.23427e-05 0.04 
616 1 1 -0.0544215 -0.890853 -0.960232 0 0 0 9.17206e-07 7.95062e-06 5.44885e-06 0.000264515 0.000361907 -0.000435912 -8.90675e-05 -1.39678e-05 -1.89063e-05 0.04 
87 1 1 0.0254597 -0.891074 -0.960203 0 0 0 -2.95821e-06 4.40923e-06 7.05186e-06 4.79051e-05 0.000381002 -0.000228077 -3.509e-05 -2.89096e-05 2.70224e-05 0.04 
655 1 1 0.105572 -0.891076 -0.960218 0 0 0 -3.36534e-06 8.45589e-07 4.32627e-06 4.82643e-05 0.000354171 -0.000209911 5.87747e-06 -2.84284e-05 1.96259e-06 0.04 
977 1 1 0.185659 -0.890926 -0.960202 0 0 0 -1.9558e-06 -3.29214e-06 8.34612e-07 4.31633e-05 0.000182319 0.000155004 6.55299e-05 4.25623e-05 -2.2687e-05 0.04 
19 1 1 0.265637 -0.890829 -0.960227 0 0 0 -1.87457e-06 -2.24573e-06 -5.32639e-06 -3.61901e-05 -9.49383e-05 0.000117495 6.72683e-07 2.33378e-05 3.57062e-05 0.04 
443 1 1 0.345634 -0.890855 -0.960248 0 0 0 -4.23209e-06 -3.13544e-06 -9.19008e-06 -3.24642e-05 -0.000393667 0.00134759 2.93077e-05 8.91039e-06 -2.60399e-05 0.04 
664 1 1 0.429599 -0.89332 -0.960215 0 0 0 -7.23905e-06 2.93109e-07 -3.57495e-06 -0.000160257 -0.000465869 0.000338131 -7.22568e-05 -0.000135314 2.34372e-05 0.04 
74 1 1 0.59436 -0.891144 -0.960225 0 0 0 -7.47959e-06 -1.02238e-06 -5.76411e-06 -0.000255275 3.09113e-05 0.000597264 9.67585e-05 -0.000363302 4.22248e-05 0.04 
50 1 1 0.674248 -0.892015 -0.960177 0 0 0 -6.35042e-07 1.17477e-06 1.53374e-05 0.000136914 7.60557e-05 -0.000356701 4.96897e-06 -8.68229e-05 -5.18987e-05 0.04 
1 1 1 0.749841 -0.866831 -0.960242 0 0 0 3.75747e-06 2.4842e-06 3.78234e-06 9.74215e-05 0.000168628 -0.000120826 -0.000117154 5.2981e-05 1.0578e-05 0.04 
812 1 1 0.878013 -0.880136 -0.960204 0 0 0 7.76095e-06 3.10385e-06 -3.29406e-06 -7.26745e-05 0.000259815 0.000559244 -9.84426e-05 0.000223295 -3.03295e-05 0.04 
446 1 1 -0.960244 -0.800741 -0.960215 0 0 0 4.49227e-06 1.09449e-06 -7.81936e-07 -8.0397e-05 0.000358543 0.000260519 7.57646e-05 0.000106636 0.000105659 0.04 
352 1 1 -0.840947 -0.82753 -0.960338 0 0 0 2.54852e-06 -6.82057e-06 -1.16296e-06 -8.34132e-05 0.000422774 0.000242177 -4.5032e-05 5.73785e-05 1.74607e-05 0.04 
894 1 1 -0.761751 -0.816673 -0.960285 0 0 0 1.30847e-06 -2.66145e-06 -1.62991e-05 -9.00176e-05 0.00026561 -0.000240465 -0.000128463 0.000328409 -2.31478e-05 0.04 
960 1 1 -0.681852 -0.816441 -0.960115 0 0 0 1.79125e-06 -7.54163e-06 -1.32034e-05 -0.000130522 0.000708998 0.000270354 4.97314e-05 -4.4915e-05 8.04628e-06 0.04 
380 1 1 -0.535213 -0.812503 -0.960157 0 0 0 -1.03703e-06 -3.9544e-06 -7.08744e-06 -2.91834e-05 -0.00204271 -0.00165488 -3.08575e-05 4.9112e-05 0.00014182 0.04 
720 1 1 -0.257532 -0.824582 -0.96029 0 0 0 5.92358e-06 4.53775e-06 -3.44552e-06 9.24827e-05 -0.00245343 -0.00027913 5.29795e-05 1.59605e-05 -0.000113937 0.04 
161 1 1 -0.175356 -0.82283 -0.960298 0 0 0 1.46509e-05 1.0007e-05 5.64891e-06 -0.00035538 -0.000817268 -0.00112028 -0.000229729 0.00047621 -0.000167845 0.04 
385 1 1 -0.095413 -0.82014 -0.960192 0 0 0 1.36911e-05 1.20716e-05 -1.82946e-05 -0.00106274 -0.000443732 0.000499163 -3.00757e-05 0.000202951 0.000224903 0.04 
827 1 1 -0.0151056 -0.821238 -0.960264 0 0 0 6.30213e-06 9.87655e-06 -9.1952e-06 -0.00040601 0.000443388 -0.00082617 -0.000192921 0.000154345 4.00555e-05 0.04 
784 1 1 0.0652889 -0.822028 -0.960241 0 0 0 1.1887e-06 4.60385e-06 3.97225e-06 -0.000110967 0.000390693 -0.000251125 -9.60453e-05 1.40435e-05 -0.000169993 0.04 
211 1 1 0.145419 -0.821876 -0.960214 0 0 0 2.81964e-07 -2.43586e-07 4.45026e-06 7.43909e-06 0.000226643 -0.000117306 1.83001e-06 -3.28001e-06 -8.71865e-05 0.04 
121 1 1 0.225286 -0.821505 -0.960185 0 0 0 -3.47196e-07 -4.99948e-06 7.55054e-06 -5.96198e-05 0.00038008 0.000227521 -1.79494e-05 -5.57084e-05 -2.53174e-05 0.04 
354 1 1 0.302764 -0.802489 -0.960232 0 0 0 3.43533e-06 -5.00947e-06 -3.84932e-07 -0.000298412 0.000162025 0.000473137 9.35224e-05 0.000154387 2.34155e-05 0.04 
229 1 1 0.380706 -0.819076 -0.960368 0 0 0 -2.50279e-06 -4.91888e-06 -1.3162e-07 -0.000435968 -0.000299421 0.000769144 2.23012e-06 -0.000109228 -6.45242e-05 0.04 
369 1 1 0.456121 -0.822155 -0.935181 0 0 0 -6.33606e-06 -8.7587e-07 -1.52437e-05 -0.000805044 -0.000209388 -0.000281052 -0.000114598 0.000427243 3.46802e-05 0.04 
396 1 1 0.51956 -0.863497 -0.960239 0 0 0 -7.39128e-06 -1.31378e-06 -1.7616e-05 -0.00059659 -7.58359e-05 -0.000314476 -9.3016e-05 -0.000115385 9.18984e-05 0.04 
866 1 1 0.594027 -0.811307 -0.960336 0 0 0 2.56898e-07 -3.54403e-06 1.46798e-05 -0.000427851 0.000241806 0.000647995 -0.000104353 8.56073e-05 0.000167269 0.04 
628 1 1 0.673821 -0.812298 -0.960205 0 0 0 1.70669e-06 3.96092e-06 5.44316e-06 -0.000244836 -3.26081e-05 0.000489159 -8.67105e-05 0.000143819 1.00485e-05 0.04 
554 1 1 0.818679 -0.826524 -0.960283 0 0 0 4.35261e-06 3.22693e-06 5.2718e-06 6.70111e-05 0.000284577 0.000261578 -2.50453e-07 1.28568e-05 4.59376e-05 0.04 
417 1 1 0.960154 -0.833965 -0.960253 0 0 0 8.8395e-07 1.16543e-05 9.49816e-06 0.000143693 -0.0001864 -0.00052119 -0.00026975 0.000115463 -0.000209083 0.04 
282 1 1 -0.889436 -0.764116 -0.960201 0 0 0 6.03739e-06 1.84184e-06 -1.49267e-06 -0.000324761 0.000275933 0.00100676 -9.54894e-05 8.95923e-05 -0.000250848 0.04 
492 1 1 -0.810312 -0.7532 -0.960206 0 0 0 -3.22315e-06 -3.02434e-06 -6.87673e-07 0.000847563 0.000561387 0.000625293 0.000132043 -3.36646e-05 0.000244273 0.04 
290 1 1 -0.609446 -0.782716 -0.960221 0 0 0 -3.63558e-06 -1.35441e-05 -1.44393e-05 0.000799498 -0.000272678 -0.000962516 0.000130001 -6.44407e-05 4.833e-05 0.04 
52 1 1 -0.453376 -0.788996 -0.960332 0 0 0 -2.51551e-07 1.30726e-05 2.88129e-05 0.00011568 -0.00143096 -0.00262051 -0.000203083 3.18889e-05 -0.00016952 0.04 
480 1 1 -0.37566 -0.770535 -0.960362 0 0 0 1.05196e-05 -1.57628e-05 -6.09087e-06 -9.7933e-05 -0.0013236 -0.00154403 2.13718e-05 0.000283435 -0.000529934 0.04 
402 1 1 -0.297581 -0.75357 -0.960118 0 0 0 1.29359e-05 -6.92116e-06 -5.08473e-06 -0.00100622 -0.00159499 -0.00101821 0.000198193 2.40222e-05 0.000649082 0.04 
322 1 1 -0.217705 -0.755339 -0.96013 0 0 0 1.98442e-05 9.89948e-06 -1.28953e-06 -0.000785519 -0.00148247 -0.000562729 -0.000178147 8.0397e-05 -0.00027669 0.04 
376 1 1 -0.137785 -0.752317 -0.960137 0 0 0 1.54411e-05 2.59025e-06 -3.57241e-06 -0.000847298 -0.000415731 -0.000421564 0.000100489 0.000176028 -1.89131e-05 0.04 
204 1 1 -0.0595659 -0.735823 -0.960305 0 0 0 1.64593e-05 8.42058e-06 -1.33487e-05 -0.000495157 0.000188221 0.00137103 -0.000188927 0.000342291 2.39139e-05 0.04 
1122 1 1 0.019315 -0.74896 -0.960158 0 0 0 4.35314e-06 1.5363e-05 -3.89686e-06 0.000619915 0.00051218 -0.000341087 -0.000298443 -0.000171312 0.000220779 0.04 
773 1 1 0.105142 -0.753051 -0.960328 0 0 0 -7.2414e-07 6.32678e-07 3.2714e-06 0.000273359 0.000634922 -0.000670321 3.89796e-06 -1.37392e-05 0.0001469 0.04 
725 1 1 0.185119 -0.75234 -0.960163 0 0 0 3.32369e-06 -6.95753e-07 3.58999e-06 -0.000157684 0.000138778 -0.000252944 -1.25769e-05 6.60315e-05 -0.000123367 0.04 
159 1 1 0.345573 -0.735002 -0.960256 0 0 0 2.98418e-06 -5.19111e-06 -1.98302e-06 4.65403e-05 2.34425e-05 0.000735383 9.09348e-05 7.31047e-05 -3.98597e-05 0.04 
688 1 1 0.482791 -0.751117 -0.96023 0 0 0 -5.05855e-06 -3.03934e-06 -1.07448e-05 -0.00072575 -6.77007e-05 -0.000423178 0.000132583 -0.000151333 1.16166e-05 0.04 
757 1 1 0.561591 -0.738304 -0.960169 0 0 0 -6.00047e-06 -4.3014e-06 1.64625e-06 -0.000657792 0.000146331 0.000281258 4.63515e-05 -0.000117944 2.5624e-05 0.04 
519 1 1 0.641385 -0.739389 -0.960172 0 0 0 -3.66158e-06 4.25402e-06 4.02958e-06 -0.000371073 0.000257133 0.00012459 -0.000119928 -3.25827e-05 9.76605e-05 0.04 
742 1 1 0.749359 -0.786904 -0.960233 0 0 0 3.97259e-07 1.96585e-06 1.49266e-06 -1.55693e-05 0.000165863 0.000158505 1.66631e-06 -3.9021e-05 3.10937e-05 0.04 
603 1 1 0.818346 -0.74666 -0.960129 0 0 0 -1.26657e-06 5.88537e-06 1.79812e-06 8.86752e-05 0.000158654 9.03512e-05 -8.63259e-05 1.36276e-05 0.000110058 0.04 
86 1 1 0.891232 -0.793683 -0.960276 0 0 0 7.42365e-07 9.60354e-06 -1.21939e-06 0.000179217 1.92864e-05 -7.25723e-05 -9.60784e-05 1.29701e-05 0.000168721 0.04 
972 1 1 0.96024 -0.753737 -0.960208 0 0 0 -3.08323e-06 8.38496e-06 -8.67787e-08 0.000102805 -8.41035e-05 -7.79048e-05 -0.000123314 -5.15298e-05 -0.00013522 0.04 
488 1 1 -0.960206 -0.720977 -0.960237 0 0 0 -3.08074e-06 -2.73972e-06 -1.77961e-06 -1.85134e-05 0.000807624 -0.000200874 -6.2657e-05 -5.7334e-05 2.85267e-05 0.04 
532 1 1 -0.889466 -0.684333 -0.960246 0 0 0 -1.93425e-06 3.02594e-06 -9.51977e-06 0.000379523 0.000249882 0.000214019 -1.55572e-06 0.000131201 0.000288869 0.04 
564 1 1 -0.744084 -0.708374 -0.96026 0 0 0 -1.0908e-05 -4.46041e-06 2.02515e-06 0.00146173 -0.000436895 0.00117184 -7.93276e-05 -0.000155602 -0.00023753 0.04 
314 1 1 -0.6662 -0.726449 -0.960118 0 0 0 -4.63268e-06 -1.40749e-05 -4.36876e-06 0.0019233 0.000352026 7.2944e-05 0.000214548 1.87396e-05 -1.31042e-05 0.04 
783 1 1 -0.611381 -0.667464 -0.96026 0 0 0 2.11273e-05 3.8057e-06 8.88165e-06 0.000454788 -0.000863976 -0.00078632 -0.0002995 0.000626103 -0.000573629 0.04 
1127 1 1 -0.555101 -0.724255 -0.960254 0 0 0 -6.18062e-06 -1.51859e-05 -1.8295e-05 0.000690059 -0.00153443 -0.000925556 0.00025716 -0.000286771 0.000111337 0.04 
241 1 1 -0.476074 -0.712363 -0.960182 0 0 0 3.00129e-06 7.23862e-06 1.52448e-05 2.63062e-05 -0.00183802 -0.0012937 -0.00042831 -0.000112722 0.000402322 0.04 
85 1 1 -0.391017 -0.692252 -0.960257 0 0 0 2.15496e-05 -1.48814e-05 -2.25558e-05 -0.000324961 -0.00106159 -0.000519894 0.000374722 0.000181627 0.000557293 0.04 
511 1 1 -0.313004 -0.675098 -0.960171 0 0 0 1.03653e-05 -2.04082e-06 -2.20724e-06 -0.000820604 -0.00225994 -0.00124149 -3.12014e-05 -0.000211441 -0.000346393 0.04 
873 1 1 -0.233104 -0.677235 -0.960336 0 0 0 3.24835e-05 1.10444e-05 -1.25163e-05 -0.00320193 -0.00333227 0.000693767 -0.00032139 0.000909158 0.000528411 0.04 
738 1 1 -0.122534 -0.673871 -0.960256 0 0 0 1.95135e-05 -2.44217e-06 -7.21449e-06 -0.000913859 0.000219953 0.000412089 8.66505e-05 0.000406138 -2.6862e-06 0.04 
1088 1 1 0.110954 -0.673752 -0.960227 0 0 0 -8.71494e-07 2.0141e-06 5.1708e-06 0.000251529 0.000588641 -0.00130022 -7.86594e-05 -0.000241598 -0.000199559 0.04 
862 1 1 0.208436 -0.675887 -0.960172 0 0 0 7.15603e-06 -1.04465e-06 -3.49599e-06 -0.00039461 0.000191971 0.000198105 -0.000102872 0.00017308 2.25467e-05 0.04 
967 1 1 0.265708 -0.73166 -0.960287 0 0 0 5.90678e-06 -1.52961e-06 1.19528e-06 0.00045673 -1.25008e-05 0.000570414 -6.37445e-05 6.84543e-05 -4.02015e-05 0.04 
451 1 1 0.432784 -0.688738 -0.960201 0 0 0 -2.82851e-06 -5.3307e-06 -1.03709e-05 -0.000604972 -5.05938e-05 -0.000390387 0.000133211 -4.01197e-05 -3.51457e-05 0.04 
177 1 1 0.511719 -0.675932 -0.960227 0 0 0 -7.85403e-06 -5.72307e-06 -2.27373e-07 -0.00089245 -0.000238291 -0.000105145 0.000117289 -0.000212123 5.4705e-05 0.04 
308 1 1 0.678757 -0.668897 -0.960169 0 0 0 -3.02957e-06 1.92471e-06 -1.56727e-06 3.21793e-05 -0.000277316 -0.000546187 -8.35268e-05 -7.44436e-05 -6.11233e-05 0.04 
439 1 1 0.748962 -0.707084 -0.960209 0 0 0 -8.80151e-07 1.31532e-06 4.72874e-06 2.83062e-05 -2.61684e-05 6.40078e-05 5.8769e-05 -1.4613e-05 5.17369e-06 0.04 
662 1 1 0.818044 -0.666736 -0.960232 0 0 0 -4.50179e-06 8.29544e-06 -4.57992e-06 -2.34323e-05 0.00059148 -3.67904e-05 -0.000149157 -8.51426e-05 -7.49586e-05 0.04 
188 1 1 0.891037 -0.713775 -0.960247 0 0 0 -2.32693e-06 9.23011e-06 -4.31109e-07 -1.13378e-05 -2.52693e-05 -0.000490654 -4.94794e-05 -1.40468e-05 -8.36416e-06 0.04 
987 1 1 0.960144 -0.673802 -0.960181 0 0 0 -1.30037e-06 5.98201e-06 -2.60567e-07 -4.94161e-05 -8.38151e-05 -0.000126629 -3.07641e-05 -7.12415e-06 -3.67575e-05 0.04 
990 1 1 -0.877722 -0.605528 -0.96022 0 0 0 -2.31596e-05 7.37413e-06 -3.2369e-06 0.00176361 -0.000212818 0.00033709 -0.000138314 -0.000651995 0.000126911 0.04 
826 1 1 -0.811813 -0.666091 -0.960159 0 0 0 -1.09169e-05 6.77976e-06 -1.28581e-06 0.0012275 -0.00122986 0.000783098 4.91383e-06 -0.000324224 -7.6909e-05 0.04 
1152 1 1 -0.757385 -0.607624 -0.960257 0 0 0 -7.21011e-06 -3.63572e-06 2.35146e-05 0.00131446 -0.000986965 0.000454082 -0.00025438 -0.000376737 -6.92098e-05 0.04 
567 1 1 -0.689509 -0.64998 -0.960178 0 0 0 2.31164e-05 -9.59196e-06 -7.41731e-06 0.00206294 -0.0003944 0.000721502 -6.99926e-05 0.00042116 -0.000668262 0.04 
170 1 1 -0.527836 -0.64915 -0.960297 0 0 0 1.03909e-05 -1.43056e-05 1.59437e-05 0.000621856 -0.00108887 0.000246933 0.000298415 0.000385579 -9.84952e-05 0.04 
375 1 1 -0.448831 -0.637331 -0.960304 0 0 0 9.25335e-06 -1.30668e-05 -5.87063e-06 -0.000719271 -0.000754096 -0.000475723 6.27141e-06 0.000177794 -0.000371231 0.04 
709 1 1 -0.36733 -0.616041 -0.960195 0 0 0 9.61661e-06 -1.71602e-05 -5.74474e-06 -0.00133264 0.000347088 -9.4435e-05 0.000364712 0.000271202 -5.62323e-05 0.04 
1046 1 1 -0.0467053 -0.648898 -0.960242 0 0 0 9.61508e-06 6.93997e-06 -7.35823e-06 0.000279663 0.00025914 -0.000234069 4.81303e-05 -0.000207555 0.00030154 0.04 
581 1 1 0.0319304 -0.662364 -0.960298 0 0 0 1.08393e-05 1.75875e-05 6.16093e-06 -0.000131587 -4.13317e-06 -0.00154969 -0.000354405 0.000187081 -0.000169131 0.04 
61 1 1 0.160809 -0.611665 -0.960225 0 0 0 9.90558e-06 3.9043e-07 2.94707e-06 -0.000775864 0.00036281 1.04936e-05 -6.50874e-05 0.000240639 -6.15323e-05 0.04 
1052 1 1 0.252402 -0.609102 -0.960288 0 0 0 3.77038e-07 -9.83373e-06 -2.10263e-06 -0.000179327 0.000508015 3.85139e-05 0.000138818 -0.000173444 -0.000120734 0.04 
656 1 1 0.31191 -0.662487 -0.960129 0 0 0 8.09863e-07 -6.87431e-06 2.66036e-06 -0.000154446 0.000393683 0.000330184 0.000101571 -4.79322e-05 0.000136258 0.04 
1082 1 1 0.383105 -0.626077 -0.960242 0 0 0 1.21576e-06 -2.79421e-06 4.83965e-06 -2.48815e-05 3.64237e-05 -1.35116e-06 0.000123633 0.000171816 -1.61697e-05 0.04 
255 1 1 0.462 -0.613477 -0.960265 0 0 0 -3.96826e-07 -4.13772e-06 -3.2538e-06 -0.000468515 -8.84677e-05 -8.42755e-05 6.50338e-05 -4.72865e-05 -0.000200691 0.04 
880 1 1 0.598422 -0.666187 -0.960224 0 0 0 -1.89567e-05 1.3824e-06 5.7099e-07 -0.0014719 0.000271082 -0.000217867 -6.23952e-05 -0.000415959 7.10615e-06 0.04 
1026 1 1 0.543027 -0.601443 -0.960162 0 0 0 -2.07726e-05 1.11158e-06 1.20737e-05 -0.00149861 -0.000613501 -0.00238615 0.000172866 -0.000467381 -0.000234901 0.04 
543 1 1 0.748549 -0.627317 -0.960159 0 0 0 -4.73197e-06 5.05406e-06 -1.04475e-06 -0.000120551 -0.000197074 -0.000566712 -8.24934e-05 3.31086e-06 4.6515e-05 0.04 
553 1 1 0.890863 -0.6339 -0.960238 0 0 0 -3.46943e-06 7.18258e-06 5.89513e-08 0.000236139 9.86613e-05 -0.000715642 -5.51669e-05 -7.79486e-05 1.74299e-05 0.04 
260 1 1 -0.960001 -0.595548 -0.960243 0 0 0 9.69029e-06 -2.84964e-06 1.28898e-05 7.37908e-05 -0.000930898 0.000993851 -7.1445e-05 0.000356899 0.000219168 0.04 
565 1 1 -0.81668 -0.553962 -0.96023 0 0 0 -5.90601e-09 6.17192e-06 -5.36889e-06 0.00171405 -0.000920816 0.00124665 -0.000310437 4.9923e-05 -0.000391856 0.04 
1113 1 1 -0.703061 -0.549222 -0.960278 0 0 0 5.35887e-06 -1.20551e-05 1.31847e-05 0.00184607 -0.00117376 6.54096e-05 -5.83224e-05 7.11444e-05 -0.000218464 0.04 
925 1 1 -0.635196 -0.591292 -0.960146 0 0 0 2.20771e-05 -3.93719e-06 -8.7873e-07 0.000771254 -0.000436462 -0.00061105 0.00015864 0.000317498 0.000686511 0.04 
893 1 1 -0.547624 -0.562691 -0.960173 0 0 0 2.18063e-05 -8.2912e-06 1.13421e-05 0.000941002 -0.000531444 0.000327066 0.00011243 0.000327976 0.000864421 0.04 
1103 1 1 -0.454637 -0.557855 -0.9603 0 0 0 1.44243e-05 -1.64143e-05 -1.10292e-05 -0.000609133 -0.000126178 -0.00080175 0.000186686 0.000176878 0.000373908 0.04 
1448 1 1 -0.377548 -0.536781 -0.960162 0 0 0 2.51074e-06 -1.05784e-05 -3.64993e-06 -0.000466171 -3.46982e-06 -0.000217029 8.62101e-06 -0.000111734 1.84707e-05 0.04 
631 1 1 -0.303804 -0.567605 -0.960239 0 0 0 6.17422e-06 -9.57511e-06 -3.02734e-06 -0.000327831 -0.000354266 0.000994332 0.00013784 7.75082e-05 0.000185853 0.04 
714 1 1 -0.230011 -0.597895 -0.960352 0 0 0 1.14712e-05 -2.90195e-06 -1.04107e-05 -0.00107288 -0.00140516 0.00259905 0.000211579 8.71512e-05 3.62182e-05 0.04 
962 1 1 -0.165419 -0.550903 -0.960204 0 0 0 9.22441e-06 -3.44033e-06 6.89393e-07 0.000372653 -0.000546093 0.000754962 9.97376e-05 7.54128e-05 0.000149837 0.04 
950 1 1 -0.0923582 -0.583303 -0.960249 0 0 0 1.14207e-05 3.63857e-06 -2.57885e-07 0.000583715 0.000423624 -6.12938e-06 -0.000247393 0.000312959 -4.22269e-05 0.04 
716 1 1 0.00265789 -0.586035 -0.960217 0 0 0 7.62125e-06 1.44149e-05 -1.13133e-06 0.000243774 0.000175252 -0.000436751 -0.000199122 8.7336e-05 -0.000101403 0.04 
388 1 1 0.0814132 -0.599613 -0.960229 0 0 0 1.5091e-05 8.56752e-06 -8.06339e-06 -0.000287688 0.000435491 0.000212633 -7.22498e-05 0.000320715 -5.16619e-05 0.04 
867 1 1 0.204619 -0.545124 -0.960172 0 0 0 8.80153e-06 -5.16799e-06 -3.0132e-06 0.00042804 0.000287192 0.000280568 8.16932e-05 0.000189047 -9.18596e-05 0.04 
576 1 1 0.321588 -0.564046 -0.960233 0 0 0 -3.37271e-06 -1.12115e-05 -2.31187e-05 -0.000140006 -0.000839454 -0.00116271 0.00027079 3.0832e-05 -0.000206071 0.04 
408 1 1 0.403787 -0.548892 -0.960207 0 0 0 -2.47502e-07 -4.62669e-06 1.22057e-05 0.000241446 7.95658e-05 -0.000272286 1.24735e-05 -3.96573e-05 6.35114e-05 0.04 
814 1 1 0.482705 -0.536364 -0.960226 0 0 0 1.29753e-06 6.16755e-06 -6.60991e-06 1.15493e-05 -6.56544e-05 0.000551274 -0.000184474 0.000291577 0.000225791 0.04 
1288 1 1 0.589751 -0.536429 -0.960267 0 0 0 -7.19467e-06 7.79099e-07 -1.30132e-05 0.000347064 -0.000740003 -0.0012693 3.80547e-05 -0.000270527 0.000161527 0.04 
1111 1 1 0.678414 -0.58909 -0.96026 0 0 0 -1.15127e-05 -1.41384e-06 -3.70492e-06 -0.000454896 -0.000668304 -0.000416572 5.16765e-05 -0.00021826 0.000211348 0.04 
1138 1 1 0.747381 -0.547509 -0.960207 0 0 0 -1.0157e-05 9.76854e-07 1.30942e-06 0.000131366 -0.000813376 -5.6442e-05 0.000123293 -0.000175879 6.80259e-05 0.04 
58 1 1 0.817503 -0.58598 -0.960208 0 0 0 -7.00496e-06 5.9302e-06 2.55797e-07 0.000491486 -0.000266046 0.000930075 -0.000128998 -4.113e-07 -8.40849e-06 0.04 
1107 1 1 0.890822 -0.554039 -0.960246 0 0 0 -5.87353e-06 6.15394e-06 -8.67296e-07 0.000523463 -1.22029e-05 -0.000568208 -7.05399e-05 -9.71854e-05 2.13217e-05 0.04 
252 1 1 0.96009 -0.593929 -0.960182 0 0 0 -2.43049e-06 4.85403e-06 2.1071e-07 0.000164478 -7.6047e-05 -0.000194942 -4.95705e-05 -9.78726e-06 -3.07943e-05 0.04 
670 1 1 -0.960083 -0.515581 -0.960206 0 0 0 -5.16325e-06 6.94128e-06 3.50409e-06 0.000639789 -0.000988876 0.000279449 -4.97894e-05 -0.000125759 0.000244498 0.04 
644 1 1 -0.761222 -0.493806 -0.960278 0 0 0 5.30662e-06 -5.3589e-06 -2.22985e-06 0.00162394 -0.00262352 0.00124403 3.28987e-05 1.10846e-05 -0.000259247 0.04 
833 1 1 -0.684416 -0.471796 -0.960325 0 0 0 3.33493e-06 -8.73732e-06 6.53057e-07 -0.000167089 -0.000613821 -0.000276006 -6.2554e-05 3.983e-05 0.000395242 0.04 
435 1 1 -0.616325 -0.513721 -0.960225 0 0 0 8.81173e-06 -2.62258e-06 4.44551e-07 0.000572978 0.000360333 -0.000103217 -7.45031e-06 0.000183095 -0.000275862 0.04 
816 1 1 -0.503031 -0.494467 -0.960281 0 0 0 4.12089e-06 -1.34226e-05 -5.15904e-06 -0.000521306 0.000646498 -0.000343939 0.000133119 3.31734e-05 -0.000235854 0.04 
489 1 1 -0.313515 -0.488342 -0.96024 0 0 0 -1.76359e-06 -1.02681e-05 -2.20161e-06 -0.000389723 -6.4499e-05 0.000489556 6.86745e-05 -0.000105237 3.1333e-05 0.04 
883 1 1 -0.239739 -0.519014 -0.960264 0 0 0 1.87018e-06 -5.423e-06 -1.30659e-06 0.000116656 7.6588e-05 0.000938728 4.63861e-05 2.73987e-05 0.000118586 0.04 
305 1 1 -0.1754 -0.471599 -0.960213 0 0 0 2.30203e-06 -3.12723e-06 -2.16299e-06 -2.16703e-05 0.00023841 -0.000214338 3.82272e-06 2.95611e-05 -9.74855e-06 0.04 
675 1 1 -0.101731 -0.5026 -0.960187 0 0 0 4.08307e-06 5.75499e-06 -1.12475e-06 -0.000131415 -0.000178001 0.000152127 -0.000128389 3.00743e-05 0.00019392 0.04 
1066 1 1 -0.0221837 -0.510122 -0.960311 0 0 0 7.20438e-06 1.51865e-05 -3.49618e-06 0.000208852 -0.000128551 0.000160076 -0.000205592 0.000166539 3.00171e-05 0.04 
143 1 1 0.058978 -0.523024 -0.960124 0 0 0 9.8439e-06 8.4904e-06 4.05167e-06 3.51348e-05 0.000763569 -0.00040187 3.02206e-05 0.000271756 0.000197589 0.04 
1346 1 1 0.153919 -0.483517 -0.960267 0 0 0 5.07124e-06 1.78301e-06 2.50617e-06 0.000333064 0.00070282 -0.000387512 -4.75612e-05 6.77023e-05 6.04105e-05 0.04 
1000 1 1 0.271508 -0.501727 -0.960223 0 0 0 1.1175e-06 -6.83444e-06 -4.26331e-06 0.000561121 0.000451572 0.000382916 0.000189116 6.53775e-05 6.99939e-05 0.04 
792 1 1 0.350499 -0.489392 -0.960249 0 0 0 -3.66008e-06 -5.64949e-06 -5.19084e-06 0.000125746 4.24457e-05 0.00149047 2.15382e-05 -0.000120359 -3.87048e-05 0.04 
1361 1 1 0.432907 -0.473801 -0.96021 0 0 0 -5.32349e-06 -9.49998e-07 9.2094e-06 0.000409691 0.000435847 0.000631281 8.0909e-05 -5.67787e-06 9.05672e-06 0.04 
584 1 1 0.536204 -0.47709 -0.960204 0 0 0 -7.34731e-06 3.83289e-06 -1.36029e-05 0.000738817 -0.000479461 0.000429831 1.52882e-05 -6.24697e-05 -9.31112e-05 0.04 
908 1 1 0.677146 -0.50943 -0.960259 0 0 0 -1.30071e-05 -5.25439e-07 -4.64004e-06 0.000347701 -0.000572937 0.00034574 -9.84778e-05 -6.96503e-05 -9.78882e-05 0.04 
1309 1 1 0.804447 -0.491605 -0.960226 0 0 0 -1.14784e-05 7.36634e-06 3.40342e-06 0.00115634 -0.000639726 -1.67685e-05 -0.000304174 -0.000208976 0.000324423 0.04 
9 1 1 0.890886 -0.474152 -0.96018 0 0 0 2.04712e-07 8.0234e-06 -5.86462e-06 0.000903385 0.000387436 -0.00035255 -0.000166461 1.89133e-05 -0.000181062 0.04 
771 1 1 0.960095 -0.514066 -0.960231 0 0 0 -2.68433e-06 3.20224e-06 -8.54951e-07 0.000370247 7.37813e-05 2.29467e-05 -4.23375e-05 -4.79821e-05 -3.57487e-05 0.04 
1055 1 1 -0.960063 -0.423547 -0.960212 0 0 0 1.61044e-06 -6.62112e-07 -1.44198e-06 0.00101584 -0.00012544 0.000620042 -3.05973e-05 8.61514e-05 2.93837e-05 0.04 
739 1 1 -0.890753 -0.463397 -0.960241 0 0 0 2.27763e-06 -1.62448e-06 -1.24848e-05 0.000937373 -0.000405334 -0.000747818 0.000179206 -4.04288e-05 4.33891e-06 0.04 
1142 1 1 -0.821571 -0.423415 -0.96026 0 0 0 1.2445e-06 -1.01389e-07 -4.45636e-06 0.00132743 -0.000279496 -0.000913591 4.60555e-05 2.85499e-05 0.000162272 0.04 
613 1 1 -0.636931 -0.407836 -0.9603 0 0 0 -4.51987e-06 -1.20335e-05 -6.81159e-07 -0.00179651 -0.000250332 -0.000655638 3.42496e-05 -0.000178387 -0.000141463 0.04 
620 1 1 -0.568908 -0.449471 -0.96023 0 0 0 4.73136e-06 -9.1609e-06 -1.23237e-06 -0.00105097 -9.32526e-05 -0.000648889 9.54116e-05 4.08786e-06 0.000311891 0.04 
1316 1 1 -0.460836 -0.426641 -0.960331 0 0 0 2.52451e-06 -1.13642e-05 -1.76905e-06 -0.00101333 0.00067619 -3.89705e-05 0.00013017 0.000160497 0.000277624 0.04 
344 1 1 -0.387126 -0.457461 -0.960274 0 0 0 -1.38079e-06 -1.11874e-05 -7.33135e-06 -0.00060984 -4.86948e-05 0.000372175 1.02937e-05 4.10698e-05 -6.55275e-05 0.04 
247 1 1 -0.323486 -0.409019 -0.960224 0 0 0 -1.33818e-06 -1.12684e-05 -1.37318e-06 -0.000688687 0.000145733 0.000668526 0.000108771 -0.000106364 4.17035e-05 0.04 
382 1 1 -0.249869 -0.440011 -0.960247 0 0 0 -1.44491e-06 -8.03669e-06 3.28466e-06 -0.000410099 3.83989e-05 0.000863637 0.000128568 9.89966e-07 9.47694e-06 0.04 
1271 1 1 -0.105193 -0.422597 -0.960247 0 0 0 3.33908e-06 6.28882e-06 1.8424e-06 0.000248168 -0.000138915 -0.000999698 -0.000122926 1.84578e-05 0.000116983 0.04 
1249 1 1 0.029428 -0.44887 -0.960288 0 0 0 4.19592e-06 1.66001e-05 9.3816e-06 -7.05175e-05 -9.21858e-05 -0.00198512 -0.000237582 -2.19983e-05 1.14952e-07 0.04 
1030 1 1 0.104305 -0.421015 -0.96028 0 0 0 9.23811e-06 1.21842e-05 1.20418e-05 -0.000278639 -6.0533e-05 -0.00210671 -0.000116499 0.000283615 -0.000241549 0.04 
1148 1 1 0.22083 -0.439836 -0.96025 0 0 0 1.05699e-06 -3.93441e-06 1.01846e-05 0.000327665 0.000338871 -0.000612798 0.000114119 4.94616e-05 -0.000107057 0.04 
772 1 1 0.300186 -0.427301 -0.96021 0 0 0 1.10897e-07 -2.63834e-06 1.3571e-06 0.000333648 0.000538348 0.000445517 0.000110742 8.8241e-05 3.0233e-06 0.04 
845 1 1 0.379043 -0.414708 -0.960221 0 0 0 -4.48141e-06 -1.61806e-06 3.48394e-06 9.85671e-05 0.000357799 0.000663919 8.39962e-05 -0.000119554 -5.48651e-06 0.04 
981 1 1 0.561051 -0.401067 -0.9602 0 0 0 -6.58644e-06 2.62175e-06 -1.02477e-05 0.000889314 -0.00054875 0.000190406 -7.49242e-06 -0.000100176 1.78366e-05 0.04 
1047 1 1 0.614308 -0.460357 -0.960196 0 0 0 -9.30785e-06 1.15095e-07 -1.44013e-05 0.000661835 -0.000476021 0.000752878 6.54568e-05 -8.75133e-05 -8.20644e-05 0.04 
1474 1 1 0.688413 -0.430481 -0.960203 0 0 0 -5.89389e-06 -4.94606e-06 -7.6503e-07 0.00132107 -0.000425962 0.000852867 0.0002212 -1.81737e-06 1.24404e-05 0.04 