ITEM: TIMESTEP
90200
ITEM: NUMBER OF ATOMS
1500
ITEM: BOX BOUNDS ff ff ff
-1 1
-1 1
-1 1
ITEM: ATOMS id type type x y z ix iy iz vx vy vz fx fy fz omegax omegay omegaz radius 
137 1 1 -0.96011 -0.960152 -0.960202 0 0 0 -2.96603e-05 -1.22633e-06 2.70275e-05 -0.00122212 0.000186547 -0.000300375 0.000577396 -0.000786995 0.000516808 0.04 
5 1 1 -0.830892 -0.960169 -0.960266 0 0 0 -1.75418e-05 1.97857e-05 -1.38094e-05 -0.0106514 -0.00976098 0.0011553 -0.000303627 -0.000259711 -6.78949e-05 0.04 
239 1 1 -0.750973 -0.96014 -0.960254 0 0 0 -1.3668e-05 -9.64932e-06 -2.43688e-05 -0.0120907 -0.000605425 0.00253893 -0.00015562 4.04736e-05 5.63541e-05 0.04 
34 1 1 -0.671018 -0.960044 -0.960246 0 0 0 1.01297e-06 5.47539e-06 -2.20129e-05 -0.00853682 0.00422262 0.00253809 -0.000325364 8.9557e-05 0.000411401 0.04 
415 1 1 -0.59107 -0.96006 -0.960292 0 0 0 9.78729e-06 1.28108e-05 5.55723e-05 -0.0184736 0.00786787 0.00870715 5.49233e-05 -0.000402831 0.000303498 0.04 
138 1 1 -0.510856 -0.960068 -0.960233 0 0 0 -0.000177423 -6.07713e-05 6.38089e-05 -0.0089966 0.0233011 0.0218125 0.00225645 -0.00954729 -0.00281751 0.04 
323 1 1 -0.430612 -0.959902 -0.960158 0 0 0 0.00128222 0.000399503 -0.000650969 -0.19382 0.00278404 0.035532 -0.0107047 0.0248408 0.041944 0.04 
130 1 1 -0.350646 -0.960049 -0.960236 0 0 0 0.00188831 0.000844475 0.00080811 -0.0257757 0.0476022 -0.110187 0.00376675 0.0483892 -0.0323941 0.04 
502 1 1 -0.270671 -0.960124 -0.9603 0 0 0 0.00264823 -0.000994294 0.00198799 0.138233 0.12467 -0.0422009 0.05846 0.0483989 -0.115063 0.04 
494 1 1 -0.175334 -0.960118 -0.96022 0 0 0 0.0119612 0.00112173 -0.000131602 0.180331 -0.219954 0.0102466 -0.00764193 0.288275 -0.3001 0.04 
448 1 1 -0.0952829 -0.960099 -0.960265 0 0 0 0.0135116 0.000390133 0.000901088 -0.171866 -0.154063 0.290914 0.00878435 0.304408 -0.320378 0.04 
147 1 1 -0.0153945 -0.960127 -0.960233 0 0 0 0.0141278 -0.000450101 0.000128086 -0.034693 -0.118335 0.141774 0.0106694 0.370599 -0.342801 0.04 
218 1 1 0.0648423 -0.960095 -0.960202 0 0 0 0.0169991 -0.000360873 -0.000450718 0.22231 0.0798376 0.0187128 0.0122949 0.419908 -0.387473 0.04 
339 1 1 0.149599 -0.960103 -0.960206 0 0 0 -0.0176223 0.0010117 0.000343857 -0.148361 0.039278 0.0394738 -0.0182537 -0.443432 0.403863 0.04 
81 1 1 0.229569 -0.960063 -0.960194 0 0 0 -0.0165954 0.000436565 0.000178585 -0.123487 -0.0446538 0.0471575 -0.0156481 -0.411194 0.349248 0.04 
341 1 1 0.309493 -0.96004 -0.960156 0 0 0 -0.0162744 0.000490956 0.000262032 -0.0210613 -0.0080056 -0.0122872 -0.0145762 -0.407418 0.0761777 0.04 
203 1 1 0.389472 -0.960078 -0.960229 0 0 0 -0.0163157 -0.000365756 -0.000107669 -0.0485075 -0.00754236 0.024436 0.0105393 -0.408546 0.147974 0.04 
1019 1 1 0.473762 -0.960029 -0.960205 0 0 0 -0.000352697 -0.000111902 5.57902e-05 -0.00546495 -0.00213107 -0.00307215 0.00320016 -0.00894821 0.00682076 0.04 
821 1 1 0.553748 -0.960031 -0.960233 0 0 0 -0.000438941 -6.04135e-06 1.79066e-05 -0.0102041 0.0231433 0.0218417 -0.00136844 -0.0123422 0.00878052 0.04 
636 1 1 0.633725 -0.960464 -0.960198 0 0 0 -0.000593217 5.77963e-05 -0.000132921 0.000485038 0.00098091 -0.00112981 -0.00242585 -0.0136563 0.0167225 0.04 
729 1 1 0.720239 -0.960013 -0.960161 0 0 0 6.80255e-05 2.22289e-05 1.09122e-05 -0.0357086 0.0262451 0.00209386 -1.08451e-05 0.00157773 0.000545796 0.04 
503 1 1 0.800202 -0.960027 -0.960136 0 0 0 6.45339e-05 7.94352e-05 6.34074e-05 0.00986683 0.0343076 0.015848 0.000289836 -0.000745195 -0.000849992 0.04 
424 1 1 0.880172 -0.960035 -0.960164 0 0 0 0.000117373 0.000165542 -0.000117174 0.0101652 0.006601 0.0066616 -0.00385837 0.00768142 0.00129357 0.04 
850 1 1 0.960098 -0.958942 -0.960224 0 0 0 -0.000117033 0.000259525 -0.000177444 -0.0168769 0.00607428 -0.0144788 -0.0090788 -0.00587129 -0.00319857 0.04 
778 1 1 -0.959927 -0.880401 -0.960215 0 0 0 3.70936e-05 9.82524e-06 4.22947e-05 -0.0259602 -0.00598448 -0.0104931 -0.000401796 0.00129886 -0.0022888 0.04 
918 1 1 -0.880189 -0.89721 -0.960225 0 0 0 -6.58882e-07 1.97218e-05 4.88845e-05 -0.000473956 -0.0114077 -0.00244791 0.00121387 -0.000297576 -0.000933647 0.04 
246 1 1 -0.791839 -0.890608 -0.960149 0 0 0 2.65372e-05 2.74597e-05 2.65589e-05 -0.00948776 -0.00344622 -0.00100424 0.000256479 -1.81469e-05 -0.000444956 0.04 
586 1 1 -0.711875 -0.890525 -0.960295 0 0 0 3.75485e-05 -5.61461e-05 -4.72828e-05 -0.0111871 -0.00746138 0.00138139 0.00151912 0.00159075 -0.00216092 0.04 
379 1 1 -0.630923 -0.890718 -0.960189 0 0 0 5.2075e-05 1.4196e-05 1.08504e-05 -0.0073794 0.00634398 0.00819123 -0.000295468 0.00229877 -0.000667388 0.04 
105 1 1 -0.550926 -0.890936 -0.960215 0 0 0 5.14376e-05 -5.14093e-05 6.84403e-05 -0.0173771 0.00217568 -0.0106024 0.00233254 0.00263893 -0.00205846 0.04 
289 1 1 -0.471032 -0.890705 -0.960254 0 0 0 -6.53064e-05 0.000393333 -9.93734e-05 -0.012227 0.0102894 0.0266946 -0.0135365 0.0024604 0.013335 0.04 
345 1 1 -0.39057 -0.871435 -0.960118 0 0 0 -0.00257193 -0.00192582 -8.45721e-05 0.0445376 0.0279867 -0.0744236 0.0487049 -0.0654496 0.148967 0.04 
209 1 1 -0.310578 -0.890873 -0.960155 0 0 0 0.00657225 0.000338978 0.001543 0.105824 0.19838 -0.145985 0.00249604 0.167309 0.12788 0.04 
647 1 1 -0.223005 -0.895988 -0.960237 0 0 0 0.00753889 -0.00296627 0.00352389 0.734447 0.41535 0.0964155 0.115346 0.150252 0.135979 0.04 
700 1 1 -0.135261 -0.891004 -0.960191 0 0 0 0.0136495 -6.63311e-05 -0.00409252 -0.104764 -0.128196 0.353184 -0.0883838 0.137932 0.432386 0.04 
616 1 1 -0.0553165 -0.890784 -0.960242 0 0 0 0.0148877 -0.00294398 -0.000672803 -0.155579 -0.171511 0.222296 0.0637641 0.364836 -0.319158 0.04 
87 1 1 0.0246416 -0.891035 -0.96016 0 0 0 0.0144441 -0.00110056 0.00173142 -0.198779 0.0185767 0.26629 0.0598238 0.0726027 0.505232 0.04 
655 1 1 0.107251 -0.892298 -0.960237 0 0 0 -0.00346989 0.011695 0.000855918 0.0327221 0.0693833 0.0691364 -0.293062 -0.0861949 -0.0883723 0.04 
977 1 1 0.189146 -0.890653 -0.960173 0 0 0 -0.0223454 0.00452377 -0.000321571 -0.189266 0.0518876 -0.0577769 -0.115349 -0.557155 -0.220282 0.04 
19 1 1 0.269372 -0.890742 -0.960236 0 0 0 -0.0153616 -4.20648e-05 -6.02865e-05 -0.084445 -0.0997943 -0.0351545 1.13699e-05 -0.381698 -0.0196783 0.04 
443 1 1 0.349506 -0.890816 -0.960235 0 0 0 -0.0147931 3.03944e-05 0.0005569 -0.0850011 0.00822259 0.0532307 0.00511882 -0.371608 -0.0404153 0.04 
664 1 1 0.431544 -0.892118 -0.960222 0 0 0 -0.00833695 -0.00516539 -0.000336909 -0.0871257 -0.0381309 0.0386994 0.127893 -0.20346 0.0392357 0.04 
74 1 1 0.594367 -0.891156 -0.960226 0 0 0 -0.000800135 0.000161241 6.05419e-05 -0.0030488 0.02085 0.018515 0.00358359 -0.00548126 0.00637145 0.04 
50 1 1 0.674267 -0.892031 -0.96018 0 0 0 -0.000414335 0.000291037 -7.03929e-05 0.0617728 0.00222854 0.00500242 -0.00683944 -0.00593805 -0.0184505 0.04 
1 1 1 0.749836 -0.866765 -0.960238 0 0 0 -9.43271e-05 -8.82599e-05 0.000104435 0.0398355 0.00498215 0.00939934 -0.00497213 0.000232603 0.0025927 0.04 
812 1 1 0.877992 -0.880116 -0.960206 0 0 0 2.62498e-05 0.000227194 -0.000425525 0.0210479 0.00683705 0.0490709 -0.00655128 -0.00269071 0.000864313 0.04 
446 1 1 -0.960241 -0.800739 -0.960212 0 0 0 2.50444e-05 -1.28435e-05 6.61799e-05 -0.00655116 -0.00632036 -0.0153702 -0.000385061 -0.00160601 0.000370271 0.04 
352 1 1 -0.840963 -0.827528 -0.960339 0 0 0 4.41227e-05 -5.38149e-06 0.000120638 0.00534149 -0.00815485 -0.0120599 0.00201151 0.00158777 0.000654224 0.04 
894 1 1 -0.761773 -0.816652 -0.960286 0 0 0 8.48291e-05 9.58697e-06 3.72025e-05 -0.00595841 -0.0107151 0.00727972 -0.00188888 0.000209399 -0.000918874 0.04 
960 1 1 -0.681877 -0.816433 -0.960115 0 0 0 0.000106393 -2.91959e-05 5.4633e-05 0.00761277 -0.0125731 0.013156 0.000830637 0.000560302 0.000767539 0.04 
380 1 1 -0.535251 -0.812471 -0.960162 0 0 0 9.60782e-05 -0.000300345 1.69375e-05 0.00177721 -0.0123914 0.0233597 0.00625751 0.00189054 -0.00793125 0.04 
720 1 1 -0.257693 -0.82398 -0.960303 0 0 0 -0.000569522 -0.00573429 0.00201558 0.012784 0.0341852 -0.0255723 0.119404 -0.0271242 -0.110535 0.04 
161 1 1 -0.173982 -0.821268 -0.96035 0 0 0 -0.00982192 -0.00993974 -0.0035482 0.114828 -0.00568403 0.756735 0.221662 -0.260621 -0.167841 0.04 
385 1 1 -0.0941727 -0.816685 -0.960207 0 0 0 -0.0136072 -0.0264837 0.000621881 0.175416 -0.114004 0.0353265 0.680655 -0.349278 0.178207 0.04 
827 1 1 -0.0143332 -0.821214 -0.960248 0 0 0 -0.0159137 -0.0188299 0.00103088 0.0217131 0.0352309 0.109174 0.486167 -0.395941 0.162831 0.04 
784 1 1 0.0668598 -0.823306 -0.960318 0 0 0 -0.00642512 0.010451 -0.000618314 -0.0777086 0.0366892 -0.0320159 -0.257171 -0.165255 -0.00177706 0.04 
211 1 1 0.147315 -0.822452 -0.96027 0 0 0 -0.0249252 0.00463699 0.00143898 -0.303188 0.125614 -0.104391 -0.111765 -0.626916 0.0645389 0.04 
121 1 1 0.22747 -0.820506 -0.960181 0 0 0 -0.0160313 0.00131587 -0.000966525 -0.0377379 -0.0186619 0.0774502 -0.0355045 -0.40374 -0.015739 0.04 
229 1 1 0.38181 -0.817696 -0.960349 0 0 0 -0.00590762 -0.00324926 -0.000189998 0.0126067 0.0212455 0.0387454 0.0810342 -0.137553 0.0193991 0.04 
369 1 1 0.456845 -0.821051 -0.93384 0 0 0 -0.00446424 -0.00453001 -0.00578673 0.0405307 0.00660886 -0.0549541 -0.100137 0.274735 -0.0637023 0.04 
396 1 1 0.520216 -0.861731 -0.960259 0 0 0 -0.00562077 -0.0100505 -1.80554e-09 -0.0011434 0.0210401 0.0292863 0.253627 -0.147192 0.173977 0.04 
866 1 1 0.594037 -0.811322 -0.960312 0 0 0 -0.000366235 7.24013e-05 -0.000137954 0.0350258 -0.00684065 0.0220323 -0.00374851 -0.00981547 -0.0203058 0.04 
628 1 1 0.673841 -0.812341 -0.960194 0 0 0 -0.000680522 0.000308661 2.01384e-05 0.0381048 -0.0260998 -0.0370118 0.0116231 0.00249125 0.0268565 0.04 
554 1 1 0.818676 -0.826447 -0.960273 0 0 0 -1.7267e-05 6.90394e-05 -0.000216058 0.0231195 0.0104091 0.0227378 -0.00148859 -0.00236308 0.00848657 0.04 
417 1 1 0.96015 -0.833966 -0.960254 0 0 0 -9.77328e-05 2.04528e-05 -0.00019573 0.0105041 0.00300576 0.0337274 -0.000376685 -0.00284432 0.00259716 0.04 
282 1 1 -0.889432 -0.764109 -0.960199 0 0 0 -2.98961e-05 -4.89297e-05 0.000135973 0.00266101 0.000111457 -0.0144359 -0.0011671 -0.000776067 -3.2048e-05 0.04 
492 1 1 -0.8103 -0.753143 -0.960213 0 0 0 5.31685e-05 -0.000127866 8.01161e-05 -0.0161572 0.00794222 -0.0141284 0.00286909 0.00270672 0.00225611 0.04 
290 1 1 -0.609484 -0.782704 -0.960231 0 0 0 0.000109429 -7.61812e-06 0.000111229 0.00833593 -0.00668306 0.0119088 0.000596542 0.00015621 0.000738842 0.04 
52 1 1 -0.453384 -0.788962 -0.960347 0 0 0 -0.00026096 -0.000551311 0.00041995 -0.025616 0.021074 0.0210014 0.0163802 -0.00783709 0.0110839 0.04 
480 1 1 -0.375682 -0.770479 -0.960352 0 0 0 -0.000657159 -0.000561964 0.000389668 -0.033689 -0.00671404 -0.0331108 0.00317424 -0.0125864 0.00130126 0.04 
402 1 1 -0.297713 -0.753204 -0.960124 0 0 0 -0.00115061 -0.00192844 -0.000284367 -0.118641 0.0337427 0.0846942 0.0403105 0.0359801 -0.023889 0.04 
322 1 1 -0.217879 -0.754712 -0.960159 0 0 0 -0.00127924 -0.00540982 -0.000181173 0.194051 -0.0560714 0.358692 0.107516 -0.0306141 -0.0611402 0.04 
376 1 1 -0.138107 -0.749869 -0.960133 0 0 0 -9.56246e-05 -0.017341 -0.000774615 0.0481619 -0.1044 -0.000306048 0.299878 0.0541003 -0.234989 0.04 
1122 1 1 0.0182534 -0.744101 -0.960228 0 0 0 -0.00218532 -0.0510155 0.000312565 0.0776596 -0.381318 0.198952 1.27863 -0.0563272 -0.238057 0.04 
773 1 1 0.10495 -0.753179 -0.960197 0 0 0 0.0308381 -0.00911362 0.000329185 0.170363 -0.0948865 -0.114997 0.233645 0.771035 -0.260072 0.04 
725 1 1 0.185759 -0.752317 -0.960185 0 0 0 -0.0162891 0.000935702 -0.000284604 0.140157 0.00831382 0.103723 -0.0266423 -0.407402 -0.310881 0.04 
354 1 1 0.304327 -0.798655 -0.960238 0 0 0 -0.0100312 -0.0190301 0.000395147 0.0125669 -0.0496223 0.00142786 0.472262 -0.266079 0.193041 0.04 
688 1 1 0.484095 -0.750688 -0.960189 0 0 0 -0.00639541 -0.0014521 0.000342971 0.0336722 -0.0231427 -0.03022 0.0383366 -0.162328 0.033064 0.04 
757 1 1 0.562863 -0.737775 -0.960163 0 0 0 -0.00589709 -0.00216267 5.98738e-05 -0.0357383 -0.104067 0.03388 0.0643061 -0.023482 -0.0737889 0.04 
519 1 1 0.642647 -0.73892 -0.960247 0 0 0 -0.00597876 -0.00233765 9.36573e-05 -0.0881046 -0.0575471 0.0642178 -0.0143539 0.00206623 0.112974 0.04 
742 1 1 0.749349 -0.786817 -0.960233 0 0 0 -0.000119615 -0.000566405 -0.000382714 0.000238304 -0.000723937 -0.0112235 0.00779806 -0.00443755 -0.0141502 0.04 
603 1 1 0.818281 -0.74651 -0.960134 0 0 0 0.000108082 -0.000438302 -0.000218726 -0.00445202 -0.00727978 0.0386468 0.0119197 0.00383878 0.0162969 0.04 
86 1 1 0.891234 -0.793664 -0.960275 0 0 0 -8.72534e-05 0.000273693 -0.000133313 0.0034878 -0.032844 0.0331352 -0.00257697 0.00370721 -0.00697556 0.04 
972 1 1 0.960241 -0.753736 -0.960209 0 0 0 -6.32351e-05 6.74721e-05 -0.000206863 -0.00882661 -0.0089266 -0.00370345 -0.00100434 -0.00421895 0.000794857 0.04 
488 1 1 -0.960205 -0.720975 -0.960236 0 0 0 4.24492e-05 -2.53301e-05 5.35338e-06 0.0114395 0.000836917 -0.00213427 0.00223331 0.00156923 0.000205026 0.04 
532 1 1 -0.889466 -0.684327 -0.960244 0 0 0 -0.000104425 -2.41818e-06 1.27851e-05 0.0253608 0.0156425 -0.0178663 -0.000273823 0.000301485 0.00165461 0.04 
564 1 1 -0.744069 -0.708288 -0.96026 0 0 0 -0.000124955 -0.000106429 8.93022e-05 -0.0148738 -0.0295016 0.00191595 0.000165775 -0.00101203 0.00041608 0.04 
314 1 1 -0.666197 -0.726401 -0.960121 0 0 0 -5.85097e-05 -9.74521e-05 4.34493e-05 0.00401496 -0.0184418 -0.00126787 0.00140249 -0.00109233 0.00160884 0.04 
783 1 1 -0.611365 -0.667368 -0.960246 0 0 0 -0.000146064 -0.000465082 -8.77104e-05 -0.000597952 -0.0237653 -0.0268909 0.00524325 -0.00624844 -2.90071e-05 0.04 
1127 1 1 -0.555155 -0.724237 -0.960257 0 0 0 0.000188782 -7.8127e-05 0.000116068 0.00150663 0.00840767 0.00175337 -0.000685638 0.00100091 -0.00252429 0.04 
241 1 1 -0.476125 -0.712359 -0.960176 0 0 0 0.000240746 -0.000246944 8.21559e-05 -0.0148199 0.0228638 0.0149241 0.00297086 0.00205523 -0.00233461 0.04 
85 1 1 -0.390896 -0.692131 -0.960247 0 0 0 -0.00128649 -0.00130082 0.000146656 -0.0503495 -0.0219096 -0.042578 -0.0195447 0.0439917 0.0146529 0.04 
511 1 1 -0.312962 -0.674698 -0.960166 0 0 0 -0.000978269 -0.00176685 -6.97274e-05 -0.0112077 -0.0213779 0.0225172 0.0433161 -0.0284954 -0.0275766 0.04 
873 1 1 -0.23307 -0.676504 -0.960344 0 0 0 -5.65043e-05 -0.00565484 0.000742631 0.174287 -0.0257139 0.212048 -0.0113129 0.0254079 -0.0500599 0.04 
738 1 1 -0.122926 -0.671412 -0.960246 0 0 0 0.00544057 -0.0190814 -0.00155181 0.0937414 0.505635 1.10636 0.430377 0.0840803 0.158322 0.04 
204 1 1 -0.0605302 -0.730789 -0.960321 0 0 0 0.00102177 -0.0265282 0.00359861 -0.167003 0.0866728 0.0754754 0.649622 0.0192053 -0.101063 0.04 
1088 1 1 0.110986 -0.6736 -0.960264 0 0 0 0.00372886 -0.0066397 0.000126633 -0.0242108 -0.00827572 -0.0181781 0.166098 0.0906312 0.284886 0.04 
862 1 1 0.207547 -0.675425 -0.960156 0 0 0 0.00303407 -0.00399942 0.000350149 -0.0465579 -0.0754631 0.00499014 0.0955662 0.0748938 -0.0846315 0.04 
967 1 1 0.268464 -0.72719 -0.960306 0 0 0 -0.0128072 -0.0215975 -0.000517854 -0.0545799 -0.102041 0.0631633 0.543485 -0.329588 -0.199659 0.04 
159 1 1 0.348247 -0.731836 -0.960238 0 0 0 -0.0118162 -0.0173559 -3.89991e-05 -0.0516896 -0.0839528 0.0246633 0.434822 -0.289292 0.316552 0.04 
451 1 1 0.434946 -0.687647 -0.960213 0 0 0 -0.00936264 -0.00448919 -1.13002e-05 0.0313794 0.0128824 -0.00761015 0.109544 -0.223654 -0.0121917 0.04 
177 1 1 0.513859 -0.674705 -0.960264 0 0 0 -0.00906655 -0.00470215 -1.10477e-05 0.0515119 -0.00149507 0.0812946 0.119374 -0.226268 0.17736 0.04 
308 1 1 0.679118 -0.668037 -0.960189 0 0 0 -0.00181297 -0.00520062 -1.1436e-05 -0.0895499 0.141654 0.17254 -0.0104176 -0.00592148 -0.239695 0.04 
439 1 1 0.748867 -0.706959 -0.960195 0 0 0 0.000501453 -0.000700533 0.000278016 -0.0252935 0.0264454 0.113305 0.0164616 0.0202746 0.00334422 0.04 
188 1 1 0.89103 -0.713763 -0.96025 0 0 0 -9.97207e-05 0.000135828 -0.000235356 0.00400587 -0.027521 0.0476402 2.38318e-05 0.00153709 -0.000505781 0.04 
987 1 1 0.960137 -0.6738 -0.960183 0 0 0 -7.72276e-05 5.93193e-05 -3.88574e-05 0.0415387 -0.0260474 0.00515857 0.00222606 -0.00261555 -0.00297552 0.04 
990 1 1 -0.877727 -0.605521 -0.960222 0 0 0 -0.000253477 3.25853e-05 -0.000222193 0.0177628 0.0268952 -0.02624 -0.00617155 -0.00451554 0.000490429 0.04 
826 1 1 -0.811818 -0.666048 -0.960161 0 0 0 -0.000254056 -0.00010162 -4.84544e-05 -0.00148507 -0.00884119 -0.0150454 -0.000529687 -0.0036843 0.00143131 0.04 
1152 1 1 -0.757368 -0.607591 -0.960252 0 0 0 -0.000460714 -6.91035e-05 2.69734e-05 -0.019728 -0.00380252 -0.00390732 0.00133894 -0.00924764 0.00501656 0.04 
567 1 1 -0.689438 -0.649912 -0.960183 0 0 0 -0.000383201 -0.000352625 0.000175577 -0.0173545 -0.0497993 0.00960883 0.00744828 -0.00798884 0.00792404 0.04 
170 1 1 -0.527849 -0.649149 -0.960297 0 0 0 -0.000198468 4.41188e-06 -5.83868e-05 0.00767332 0.027704 -0.00610929 -0.00236412 -0.00379922 0.0178369 0.04 
375 1 1 -0.448834 -0.63736 -0.960319 0 0 0 -0.000255605 1.04978e-06 0.000360795 -0.000843006 0.0118408 0.00380799 -0.00412083 -0.00671889 -0.0540734 0.04 
709 1 1 -0.367416 -0.615793 -0.96018 0 0 0 0.000504879 -0.00213664 -4.33925e-05 -0.00110207 -0.0305013 0.0244816 0.0570724 0.0127773 -0.0585448 0.04 
1046 1 1 -0.0466666 -0.647635 -0.960222 0 0 0 0.00338717 -0.0105653 0.000338582 0.044029 -0.126865 -0.0299254 0.255122 0.0861316 0.0564477 0.04 
581 1 1 0.0318792 -0.662275 -0.96028 0 0 0 0.00406253 -0.00747849 0.000186129 -0.0122887 -0.00513128 0.0166723 0.186498 0.112408 -0.136268 0.04 
61 1 1 0.160346 -0.610926 -0.960239 0 0 0 0.00198053 -0.00583194 -0.000505526 -0.0104122 -0.0738515 0.00872038 0.140701 0.040114 -0.0619458 0.04 
1052 1 1 0.25173 -0.608787 -0.960266 0 0 0 0.00327258 -0.00312824 0.000589169 -0.074201 -0.0634669 0.0739004 0.0425503 0.0645916 -0.0157248 0.04 
656 1 1 0.313078 -0.660046 -0.960155 0 0 0 -0.00474939 -0.0137918 -0.000457691 0.00732603 -0.0783771 -0.0538138 0.347542 -0.123453 -0.352712 0.04 
1082 1 1 0.385019 -0.625191 -0.960244 0 0 0 -0.0086021 -0.00382717 0.00023155 0.0336338 0.0319625 -0.0378251 0.0984838 -0.211777 0.0212448 0.04 
255 1 1 0.463883 -0.61247 -0.960277 0 0 0 -0.00786943 -0.0042428 0.000145312 0.0363127 0.0290364 0.0419446 0.102738 -0.191455 -0.158897 0.04 
880 1 1 0.598809 -0.662228 -0.960209 0 0 0 0.00203029 -0.0287325 0.000446717 -0.00695249 -0.0147511 0.0352114 0.72235 0.0551783 -0.693046 0.04 
1026 1 1 0.543909 -0.600575 -0.960157 0 0 0 -0.00506955 -0.00625487 -0.000604713 0.0472103 -0.0447098 -0.00498213 0.154011 -0.127783 -0.093132 0.04 
543 1 1 0.74801 -0.627092 -0.960218 0 0 0 -0.000443729 -0.00101252 0.0015155 0.00661696 0.022794 0.0941081 0.0241101 -0.011774 0.0124744 0.04 
662 1 1 0.817731 -0.666301 -0.960207 0 0 0 0.000222207 0.000274733 -0.000410283 0.014496 -0.029892 0.0545078 -0.0064822 0.00431121 0.00913317 0.04 
553 1 1 0.89083 -0.6339 -0.960242 0 0 0 -1.71899e-05 8.45884e-05 -0.000181826 0.0396866 -0.0433436 0.0779333 0.00218538 0.00153263 -0.0012621 0.04 
260 1 1 -0.959998 -0.59555 -0.960241 0 0 0 2.07976e-05 -0.000120905 -8.17826e-05 -0.00435886 -0.00512713 -0.0293732 0.000544521 0.000674728 0.000928112 0.04 
565 1 1 -0.816686 -0.553954 -0.960229 0 0 0 -0.0002433 -0.000121221 -0.000315774 -0.0181402 0.0105044 -0.006953 -0.000574731 -0.00271052 -0.00506563 0.04 
1113 1 1 -0.703063 -0.549168 -0.960285 0 0 0 -0.000156144 -0.000426849 8.85217e-05 -0.0150851 -0.01631 -0.0228067 -0.00440261 0.00190588 -0.0176855 0.04 
925 1 1 -0.635152 -0.591153 -0.960153 0 0 0 -0.000387829 -0.000814762 0.000156884 -0.00908792 -0.043684 -0.00757594 0.015424 -0.0116974 0.00791303 0.04 
893 1 1 -0.546857 -0.562989 -0.96016 0 0 0 -0.00212867 0.00075678 0.000162769 -0.00410812 0.0519899 0.0266988 -0.0171983 -0.0522706 0.103687 0.04 
1103 1 1 -0.455185 -0.557959 -0.96031 0 0 0 0.00244147 0.000245777 0.000220434 -0.000183901 0.0258355 0.0346225 -0.000263476 0.0555443 0.00217963 0.04 
1448 1 1 -0.378175 -0.536549 -0.960168 0 0 0 0.00347525 -0.00158164 0.000116567 0.0134402 -0.0232788 -0.0230828 0.0370736 0.0887979 -0.0091212 0.04 
631 1 1 -0.304204 -0.566935 -0.960256 0 0 0 0.0025793 -0.00482156 -3.86489e-05 0.00262524 -0.00603083 -0.00787908 0.0916419 0.0464521 -0.0254275 0.04 
714 1 1 -0.23027 -0.597081 -0.960345 0 0 0 0.00195083 -0.00618331 -0.000318652 0.0234816 -0.0074073 -0.0604644 -0.00663376 0.0528854 -0.00863947 0.04 
962 1 1 -0.165546 -0.550212 -0.960211 0 0 0 0.00381935 -0.00854318 0.000146412 0.00328532 -0.00319839 0.0267075 0.221414 0.0965301 -0.0609663 0.04 
950 1 1 -0.0920305 -0.581748 -0.960268 0 0 0 0.00369795 -0.00988453 0.000360345 -0.0300731 -0.111991 0.0155001 0.242829 0.0978387 0.11923 0.04 
716 1 1 0.00268171 -0.584793 -0.960213 0 0 0 0.00246361 -0.00863026 -0.00039897 -0.077176 -0.0473228 -0.0463575 0.211207 0.0681809 -0.0110723 0.04 
388 1 1 0.0812293 -0.599403 -0.960221 0 0 0 0.00239685 -0.0072595 -0.000387057 0.0116351 0.0160521 0.0255056 0.130795 0.0401682 0.0527103 0.04 
867 1 1 0.204436 -0.544445 -0.960176 0 0 0 2.8473e-05 -0.00494594 0.000250849 -0.030962 -0.0335607 0.039471 -0.0965023 -0.00390232 0.109888 0.04 
576 1 1 0.322167 -0.563293 -0.960234 0 0 0 -0.00431108 -0.00239502 0.000232523 0.0219754 -0.013394 0.00288508 0.0637054 -0.111276 -0.110386 0.04 
408 1 1 0.404017 -0.547575 -0.960209 0 0 0 -0.00366179 -0.00530496 -4.19594e-05 0.040337 0.00205006 -0.0364694 0.133415 -0.0922965 -0.0299523 0.04 
814 1 1 0.482901 -0.534925 -0.960222 0 0 0 -0.00362582 -0.00553416 4.56581e-05 0.0160076 0.022879 -0.0134466 0.0214442 0.10813 0.0221654 0.04 
1288 1 1 0.58924 -0.534667 -0.960262 0 0 0 0.00240662 -0.0115268 3.68361e-05 -0.000704675 0.0479574 -0.0381861 0.290441 0.0607986 -0.100434 0.04 
1111 1 1 0.677614 -0.588317 -0.960205 0 0 0 0.0127591 -0.0049011 -0.000154407 -0.089664 0.119086 -0.00110528 0.00531612 0.15504 -0.120481 0.04 
1138 1 1 0.74617 -0.54723 -0.960229 0 0 0 0.010772 -0.000624002 0.000589898 0.101381 0.024743 0.119729 0.0154695 0.26491 -0.0446304 0.04 
58 1 1 0.816895 -0.58454 -0.960199 0 0 0 0.00505395 -0.0119348 -0.000128398 -0.0368454 -0.083849 0.12388 0.302576 0.131814 0.183615 0.04 
1107 1 1 0.890818 -0.554036 -0.960248 0 0 0 2.47909e-05 2.42097e-05 -0.000168903 0.0289865 -0.0568687 -0.00311434 -0.000504604 0.0033539 0.000402897 0.04 
252 1 1 0.960083 -0.59393 -0.960184 0 0 0 -1.24302e-05 2.87732e-05 0.000122454 0.0358287 -0.0361191 -0.00118128 0.000478344 -0.00374744 -0.00115775 0.04 
670 1 1 -0.960082 -0.515582 -0.960206 0 0 0 -4.82071e-05 -9.67765e-05 -0.000141635 -0.0163633 0.00778726 -0.004681 0.00166507 0.000916171 -0.000423875 0.04 
644 1 1 -0.761228 -0.493762 -0.960281 0 0 0 3.37949e-05 -0.000202452 -9.52964e-05 0.0116955 0.0112621 0.0188294 0.00424712 6.24917e-05 -0.0145113 0.04 
833 1 1 -0.68442 -0.471733 -0.960309 0 0 0 0.000301131 -0.000360229 -0.000233582 -0.0344757 -0.0545028 0.0238092 0.0017505 0.0052579 0.0118543 0.04 
435 1 1 -0.616258 -0.513533 -0.960236 0 0 0 -0.000469975 -0.0020058 0.00042048 -0.0235345 -0.0345639 0.00112753 0.0171439 -0.00951257 -0.0167371 0.04 
816 1 1 -0.50265 -0.493956 -0.960288 0 0 0 -0.00222579 -0.00304102 -8.14514e-05 0.00241004 0.0680496 -0.0304178 0.0512861 -0.0578653 0.0414341 0.04 
489 1 1 -0.314461 -0.487711 -0.960227 0 0 0 0.00345961 -0.0048313 0.000254761 0.0304389 -0.0393967 -0.0132687 0.0321996 0.0404753 -0.0115814 0.04 
883 1 1 -0.240597 -0.518246 -0.960273 0 0 0 0.00273569 -0.00646765 0.000221864 0.052427 -0.0130195 -0.00225859 0.010374 0.0478952 -0.00645809 0.04 
305 1 1 -0.176182 -0.470952 -0.960202 0 0 0 0.00386625 -0.0073818 -0.000136736 0.0319824 0.0250017 -0.0346647 0.115554 0.0541802 -0.0315985 0.04 
675 1 1 -0.102291 -0.501381 -0.960196 0 0 0 0.00338833 -0.00808649 9.27893e-05 -0.0802257 -0.000819343 0.0161675 0.145265 0.054194 0.0569893 0.04 
1066 1 1 -0.0228081 -0.509107 -0.960286 0 0 0 0.00374899 -0.0080665 -0.000206508 -0.0307071 -0.0152409 0.000293419 0.192314 0.0959976 -0.0298376 0.04 
143 1 1 0.0588921 -0.522694 -0.960127 0 0 0 -0.000151151 -0.00856696 0.000591686 0.0351672 0.0892963 0.0403101 0.136407 -0.0323903 -0.0336797 0.04 
1346 1 1 0.153563 -0.482971 -0.960249 0 0 0 0.00161964 -0.002874 -0.000464824 0.021454 -0.0459061 0.00626672 0.0655072 0.0390822 -0.129627 0.04 
1000 1 1 0.271609 -0.501352 -0.960225 0 0 0 -0.00229604 -0.00101283 0.000238561 -0.0182657 -0.025841 0.0447057 0.0260759 -0.0449267 0.00508221 0.04 
792 1 1 0.350457 -0.488343 -0.960234 0 0 0 -0.00177959 -0.0036333 0.000552804 0.0176115 -0.0115696 -0.0141399 0.0918579 -0.0455781 -0.0483718 0.04 
1361 1 1 0.432694 -0.472461 -0.960208 0 0 0 -0.00027883 -0.00503168 -0.000272109 0.0407436 -0.0256711 0.0358571 0.123857 -0.005951 0.0865844 0.04 
584 1 1 0.535821 -0.475158 -0.960218 0 0 0 0.00277682 -0.0111136 -8.64575e-05 -0.0285372 0.0410039 -0.0192414 0.277603 0.0719132 -0.149636 0.04 
908 1 1 0.676186 -0.50858 -0.960269 0 0 0 0.00938482 -0.00529281 0.000878418 0.0276065 -0.14702 0.193226 0.0232535 0.188768 0.202394 0.04 
1309 1 1 0.803732 -0.491842 -0.960222 0 0 0 0.00733875 0.00283546 5.4115e-05 0.036032 0.0148408 -0.0152428 -0.0806598 0.177919 0.220607 0.04 
9 1 1 0.890893 -0.47415 -0.960182 0 0 0 0.000170962 -4.77435e-05 0.000272994 0.00607337 -0.0144938 0.0325068 0.0063918 0.00412633 -0.00395604 0.04 
771 1 1 0.960095 -0.514065 -0.960233 0 0 0 4.29425e-05 2.82482e-05 0.000245248 -0.0119411 -0.0225192 0.00435858 -0.000554195 0.000334569 -0.0010059 0.04 
1055 1 1 -0.960058 -0.423547 -0.960214 0 0 0 -0.000123608 1.26512e-05 -3.90449e-07 -0.0115741 -0.000545686 0.0256004 0.000775783 -0.00201787 0.000858425 0.04 
739 1 1 -0.890742 -0.463392 -0.96024 0 0 0 -0.000145304 -0.000103558 -4.66367e-05 -0.0160401 0.0078121 0.0230311 0.0037647 -0.00257413 -0.0043239 0.04 
1142 1 1 -0.821549 -0.423405 -0.960258 0 0 0 -0.000138418 0.000169185 0.000299228 -0.0166939 0.0191211 0.0121338 -8.20164e-06 -0.00374182 0.0127225 0.04 
613 1 1 -0.636864 -0.407787 -0.960336 0 0 0 -0.000439964 -0.000336469 -0.000166892 -0.0388137 -0.00343575 -0.00228131 0.00735103 -0.00150499 0.00206503 0.04 
620 1 1 -0.568731 -0.449302 -0.960238 0 0 0 -0.00144803 -0.00273862 -0.000681611 -0.0393372 0.162314 -0.0191568 0.0748889 -0.039973 -0.058033 0.04 
1316 1 1 -0.463005 -0.424722 -0.960312 0 0 0 0.0141071 -0.0121343 -0.000106267 0.0753543 -0.00248189 0.0120768 0.307315 0.350473 -0.18339 0.04 
344 1 1 -0.388314 -0.4572 -0.960273 0 0 0 0.00449513 -0.00136044 0.000325163 0.0172261 -0.0700382 0.00820577 0.0286975 0.113039 -0.122869 0.04 
247 1 1 -0.324581 -0.408425 -0.960228 0 0 0 0.00532693 -0.00442875 0.000285475 -0.0202329 0.018011 0.0697634 0.0745701 0.0763529 -0.112444 0.04 
382 1 1 -0.250893 -0.439247 -0.960262 0 0 0 0.00484765 -0.0064702 0.000243064 0.00954995 -0.0262483 0.0473752 0.00519339 0.0235659 -0.0317057 0.04 
1271 1 1 -0.105042 -0.421452 -0.960264 0 0 0 -0.000788051 -0.00812258 0.000343933 -0.00799827 0.0195287 -0.0838558 0.201967 -0.0202345 -0.0219717 0.04 
1249 1 1 0.0293018 -0.448482 -0.960285 0 0 0 0.00299761 -0.007221 0.000390084 -0.0522003 0.0298419 -0.0538384 0.187658 0.0700773 0.0046775 0.04 
1030 1 1 0.10404 -0.420387 -0.960291 0 0 0 0.00155084 -0.00234121 0.000368473 0.0455332 -0.0652141 0.0458007 -0.00820662 0.00569217 0.119418 0.04 
1148 1 1 0.220759 -0.439628 -0.96027 0 0 0 -0.00158176 0.000782699 0.000259756 0.0163005 -0.0189328 0.0137078 -0.0245618 -0.0489121 -0.0700721 0.04 
772 1 1 0.299717 -0.426589 -0.960222 0 0 0 7.78146e-05 -0.00216148 0.00043039 0.0379477 -0.0334091 0.0322483 0.0333085 0.00406732 -0.0253214 0.04 
845 1 1 0.378598 -0.41354 -0.960218 0 0 0 0.000422007 -0.00443982 0.000496274 0.0429226 -0.0580184 0.00663837 0.109835 0.0116167 -0.0394243 0.04 
1047 1 1 0.613932 -0.458643 -0.96019 0 0 0 0.00309756 -0.0120955 0.000150597 0.0212368 -0.0195239 0.0456934 -0.108371 -0.045532 0.123823 0.04 
1474 1 1 0.688366 -0.429731 -0.960186 0 0 0 -0.000131802 -0.00311618 0.00013418 0.00897131 -0.0672736 -0.000819807 -0.00667952 0.00546475 0.0407004 0.04 
840 1 1 0.767505 -0.420685 -0.960275 0 0 0 -0.000184092 -0.00138357 2.54734e-05 0.0748936 0.0419104 -0.00582392 0.00057009 0.00117742 -0.000310189 0.04 
852 1 1 0.960093 -0.434147 -0.960264 0 0 0 0.00022299 -6.35648e-05 0.000130613 -0.017504 -0.0117719 -0.0105845 -0.000777139 0.00665112 0.00123179 0.04 
982 1 1 -0.960096 -0.343566 -0.960221 0 0 0 -1.76264e-06 5.0781e-05 -0.000114416 -0.00329986 0.0281567 -0.0313519 -0.00222159 0.00164081 -0.00173944 0.04 
326 1 1 -0.89083 -0.383456 -0.960225 0 0 0 -8.2384e-05 -0.000103225 1.93186e-05 -0.0236513 0.0172448 -0.010622 -0.000168324 -0.00305371 -0.00232093 0.04 
1215 1 1 -0.821578 -0.343411 -0.96022 0 0 0 1.91228e-05 9.14245e-05 -7.58194e-05 -0.0385255 -0.00222772 -0.00755168 -0.00273678 0.000399271 0.00425423 0.04 
1246 1 1 -0.749767 -0.388293 -0.960125 0 0 0 3.25782e-05 6.11507e-06 0.000153734 -0.0569163 0.0493961 0.0311322 -0.00104177 0.00401626 -0.0240356 0.04 
969 1 1 -0.68379 -0.343207 -0.960212 0 0 0 1.07615e-05 0.000312387 -9.69877e-06 -0.0126257 0.0319792 0.0186284 -0.00592295 -0.00266135 0.0307376 0.04 
230 1 1 -0.60454 -0.334979 -0.960187 0 0 0 0.000291527 -0.000683546 0.000223014 0.0298509 0.0312904 -0.0436349 0.00606233 0.00141433 -0.0650877 0.04 
857 1 1 -0.529213 -0.379801 -0.960152 0 0 0 0.0114454 -0.00893277 0.000831007 -0.460887 0.178782 -0.276941 0.221086 0.289748 -0.258536 0.04 
92 1 1 -0.398359 -0.377986 -0.960275 0 0 0 0.00635554 -0.00151666 -0.000122422 0.00313472 -0.00751845 -0.0271545 -0.0150107 -0.0320632 0.0688941 0.04 
1124 1 1 -0.260941 -0.360054 -0.960317 0 0 0 0.00696017 -0.00656035 0.000156736 0.0031433 -0.0232416 0.0835207 -0.015334 0.044589 -0.0233345 0.04 
868 1 1 -0.18675 -0.39174 -0.960198 0 0 0 0.00477129 -0.00624854 -1.64843e-05 0.0214482 0.0330247 0.0178755 0.102606 0.0844919 0.0323488 0.04 
1010 1 1 -0.123071 -0.343554 -0.960274 0 0 0 0.00503048 -0.00687102 9.07068e-05 0.0523307 -0.0297536 -0.0133357 0.169019 0.113776 -0.0545613 0.04 
1223 1 1 -0.021726 -0.375397 -0.960205 0 0 0 -0.00317351 -0.00506964 0.000923697 0.0288005 -0.0026615 -0.104541 0.129794 -0.075514 0.0829758 0.04 
144 1 1 0.0559626 -0.356687 -0.960181 0 0 0 -0.00301588 -0.00459732 -2.23986e-05 0.0371448 -0.0215397 -0.0459097 0.0670181 -0.103046 0.0101827 0.04 