ITEM: TIMESTEP
41200
ITEM: NUMBER OF ATOMS
1500
ITEM: BOX BOUNDS ff ff ff
-1 1
-1 1
-1 1
ITEM: ATOMS id type type x y z ix iy iz vx vy vz fx fy fz omegax omegay omegaz radius 
137 1 1 -0.959594 -0.958386 -0.960073 0 0 0 -0.144007 0.304219 -0.0115318 -9.4785 -0.153552 -1.88858 0.0647178 -0.199688 -2.2687 0.04 
5 1 1 -0.87989 -0.960523 -0.960605 0 0 0 -0.122629 0.163325 0.0697796 -21.5818 -18.3809 2.89998 -2.70813 1.58142 0.540359 0.04 
239 1 1 -0.800522 -0.956577 -0.961864 0 0 0 -0.126516 -0.00109829 -0.104292 24.4847 0.858385 98.9016 0.654262 -0.187028 -0.0611906 0.04 
415 1 1 -0.71512 -0.958368 -0.959459 0 0 0 0.0249624 -0.0381345 0.41897 -5.1687 -19.8741 -6.35411 -1.86709 0.581238 -1.06113 0.04 
105 1 1 -0.627027 -0.931055 -0.960317 0 0 0 0.218834 0.390537 0.273921 -46.6742 16.765 5.15888 -3.48384 3.90659 -0.0160599 0.04 
138 1 1 -0.554174 -0.960412 -0.959996 0 0 0 0.581183 -0.0851369 -0.0857843 49.6197 3.37249 -39.0947 1.14746 -1.31579 -4.09981 0.04 
323 1 1 -0.441203 -0.95977 -0.957333 0 0 0 0.0247147 -0.0120329 -0.0675609 4.83042 -0.00755029 -11.6284 -0.488042 2.13769 1.61669 0.04 
130 1 1 -0.36045 -0.956467 -0.960152 0 0 0 -0.0139423 0.258273 0.000737801 0.126249 -0.403548 1.88198 1.58088 2.16921 -0.0130314 0.04 
502 1 1 -0.280053 -0.95566 -0.960909 0 0 0 0.172544 0.296257 0.102281 -11.2545 -13.777 29.2799 -0.39249 1.08149 -0.660488 0.04 
494 1 1 -0.200597 -0.959664 -0.959683 0 0 0 0.066187 0.240712 -0.0135697 -23.6624 0.0958329 -5.10014 2.55534 1.86265 -2.98841 0.04 
448 1 1 -0.121701 -0.959901 -0.960149 0 0 0 0.0892321 0.270116 0.0497248 4.15075 -4.80824 -14.0434 -0.936532 -1.25601 0.5979 0.04 
147 1 1 -0.0425516 -0.959023 -0.958579 0 0 0 0.110086 0.129061 0.0539703 30.3248 1.74876 -5.41553 -2.00624 -0.962108 1.12299 0.04 
218 1 1 0.052727 -0.956554 -0.960485 0 0 0 0.0393276 -0.100504 -0.0480885 -0.707217 1.18736 21.0657 -0.0672543 -0.556482 -2.6087 0.04 
655 1 1 0.155675 -0.953063 -0.958199 0 0 0 -0.154762 -0.219082 0.120894 -33.6809 -53.1758 -4.91482 -0.473889 -0.385039 3.88278 0.04 
339 1 1 0.235979 -0.960668 -0.958829 0 0 0 -0.236985 -0.0537891 -0.466159 6.39821 27.8366 -4.36319 -2.61021 2.54142 -3.03841 0.04 
341 1 1 0.373043 -0.951668 -0.960324 0 0 0 0.0218291 0.119626 -0.0120179 -102.049 -3.67391 17.6506 -3.22329 -1.63073 1.38561 0.04 
203 1 1 0.450237 -0.948848 -0.961065 0 0 0 0.0110837 0.0118026 0.324354 97.4704 6.51723 34.4296 -1.02373 -2.08964 -4.10822 0.04 
1019 1 1 0.539874 -0.95613 -0.956375 0 0 0 0.088595 0.356326 -0.23756 0 0 -6.57473 -2.33884 0.156337 -2.02777 0.04 
821 1 1 0.620584 -0.94744 -0.956488 0 0 0 0.0203952 -0.403665 0.0138915 -20.4131 -5.43596 -5.28427 -4.00594 0.324096 1.10349 0.04 
636 1 1 0.699304 -0.956282 -0.960069 0 0 0 0.179781 0.0825593 -0.0508736 1.93464 -11.8985 -37.7334 0.806501 -2.71884 1.87559 0.04 
729 1 1 0.79115 -0.955736 -0.955707 0 0 0 -0.414433 -0.0241204 0.303951 0 0 -6.57473 0.318511 -4.09755 3.76733 0.04 
503 1 1 0.884261 -0.95593 -0.960889 0 0 0 0.174194 0.28722 -0.143796 -9.28917 -15.6657 13.2687 1.44972 -0.981118 0.197111 0.04 
850 1 1 0.960674 -0.934866 -0.961174 0 0 0 0.0912914 -0.246718 0.024084 -12.1981 -6.24544 57.9165 -2.88068 -0.754886 -1.13747 0.04 
918 1 1 -0.960481 -0.878195 -0.961133 0 0 0 0.00480738 0.0403404 -0.204461 28.4751 -2.66887 60.5569 2.79823 2.16261 1.38767 0.04 
246 1 1 -0.849238 -0.887959 -0.960656 0 0 0 0.158429 0.317604 -0.469328 2.81903 14.8737 39.0399 2.78109 2.84391 1.46507 0.04 
379 1 1 -0.691321 -0.882596 -0.96052 0 0 0 0.262078 -0.0401813 0.442793 70.6348 10.3747 -18.2099 3.02252 0.000480776 1.04897 0.04 
380 1 1 -0.572105 -0.868855 -0.957046 0 0 0 0.138442 0.21081 0.134016 26.1012 1.39703 -32.6831 -2.41342 3.35281 -3.23588 0.04 
52 1 1 -0.491665 -0.896906 -0.960788 0 0 0 0.158436 -0.0985757 -0.239514 -26.8727 -4.54994 -14.9087 0.661971 3.34278 -1.86944 0.04 
480 1 1 -0.412026 -0.877633 -0.954597 0 0 0 -0.124483 0.0163281 0.100821 0 0 -6.57473 -2.74904 1.18585 0.0320609 0.04 
647 1 1 -0.245326 -0.878412 -0.958027 0 0 0 -0.384797 0.0649903 0.264636 0 0 -6.57473 0.1672 0.124286 -1.52116 0.04 
700 1 1 -0.1622 -0.888073 -0.960288 0 0 0 -0.471672 -0.15426 0.0516367 0.768721 -0.0397536 8.82023 4.29673 -3.59377 3.54076 0.04 
616 1 1 -0.0811235 -0.887271 -0.958533 0 0 0 0.120533 0.0938723 0.125131 0 0 -6.57473 -0.245414 -2.69778 4.0088 0.04 
827 1 1 0.000777235 -0.891727 -0.953053 0 0 0 0.127601 0.147388 -0.655389 0 0 -6.57473 -4.0101 0.896808 2.49261 0.04 
784 1 1 0.0969667 -0.889025 -0.959999 0 0 0 0.153885 0.281529 -0.12876 0 0 -6.57473 1.36294 -3.10292 7.58916 0.04 
211 1 1 0.20074 -0.889095 -0.960982 0 0 0 0.141066 -0.482569 -0.0137946 28.0422 65.9505 45.777 -0.532685 0.657651 1.11019 0.04 
19 1 1 0.285347 -0.893809 -0.9594 0 0 0 -0.283165 0.21067 0.104655 0 0 -6.57473 -1.58431 -0.762187 0.0226727 0.04 
159 1 1 0.418713 -0.873923 -0.958362 0 0 0 -0.360791 0.150368 -0.111053 0 0 -6.57473 -0.0691682 0.48227 3.13702 0.04 
664 1 1 0.501205 -0.88497 -0.959792 0 0 0 -0.166452 -0.0822645 0.0135119 1.07505 -5.75648 -8.21479 -1.95723 -0.500949 -1.92374 0.04 
396 1 1 0.5884 -0.874589 -0.957845 0 0 0 -0.0841599 -0.102051 0.388777 -111.292 16.7234 -9.48125 2.33372 2.51259 2.93855 0.04 
50 1 1 0.665316 -0.880104 -0.960061 0 0 0 -0.367996 0.0366625 -0.135829 102.157 -17.838 -32.4366 0.622872 -2.72756 1.08541 0.04 
742 1 1 0.757778 -0.883409 -0.947485 0 0 0 -0.378797 -0.0931892 0.482028 0 0 -6.57473 -0.293712 -1.27949 5.6547 0.04 
554 1 1 0.851293 -0.881977 -0.959653 0 0 0 -0.254146 -0.368655 -0.0462868 64.2029 -99.4584 -3.31386 -0.544491 1.40601 0.164606 0.04 
446 1 1 -0.899025 -0.823527 -0.959897 0 0 0 -0.267284 0.203982 -0.0490916 0 0 -6.57473 -1.11261 -0.336832 -0.912077 0.04 
894 1 1 -0.81096 -0.818491 -0.960108 0 0 0 0.132877 0.0988387 0.289092 2.15903 19.2416 -5.24444 1.39133 -2.98477 -3.25484 0.04 
290 1 1 -0.63974 -0.820885 -0.959992 0 0 0 -0.0311646 0.0376797 0.0298914 0 0 -6.57473 -0.510518 3.47036 0.81606 0.04 
241 1 1 -0.482075 -0.817167 -0.959839 0 0 0 -0.0609761 -0.0934588 0.0286011 0 0 -6.57473 -0.828145 -0.350855 -3.32238 0.04 
511 1 1 -0.386056 -0.80103 -0.960575 0 0 0 0.186693 0.0803712 -0.0179719 -3.63873 4.92783 12.828 -1.98017 3.20372 -0.439218 0.04 
322 1 1 -0.308245 -0.82747 -0.959692 0 0 0 -0.0667488 -0.00631277 0.122482 4.08768 0.474148 -11.8585 -2.01513 1.11723 -1.94172 0.04 
385 1 1 -0.116331 -0.814993 -0.955676 0 0 0 -0.287633 0.348841 -0.326029 -28.0807 -4.16369 -4.62185 6.3599 -2.22704 -1.14089 0.04 
204 1 1 -0.0375636 -0.807749 -0.960293 0 0 0 -0.491958 0.649533 -0.0631546 30.0065 0.525399 8.76214 -2.73973 -3.12255 -2.59814 0.04 
773 1 1 0.180276 -0.808499 -0.954779 0 0 0 0.0375583 -0.576528 -0.0158985 69.2424 -7.74443 -1.59221 -0.459433 0.989202 -4.23264 0.04 
725 1 1 0.266971 -0.813952 -0.958757 0 0 0 0.190939 -0.321716 0.171834 0 0 -6.57473 -0.369735 0.875588 2.37423 0.04 
451 1 1 0.489184 -0.808209 -0.941442 0 0 0 0.277464 0.224128 -0.954031 -3.42036 0.0265778 -13.0183 -5.26617 -5.02699 0.284738 0.04 
439 1 1 0.812775 -0.815663 -0.960466 0 0 0 -0.0280184 0.280762 0.246157 -63.6182 98.4824 12.9189 1.0714 4.1834 -2.68287 0.04 
188 1 1 0.891652 -0.808548 -0.940157 0 0 0 -0.710161 0.315036 0.0386624 21.9126 -68.6903 10.2073 1.92954 3.11971 -2.31773 0.04 
972 1 1 0.95574 -0.855602 -0.961056 0 0 0 -0.435784 -0.111017 -0.00427562 2.5476 21.1311 52.2598 0.462884 -3.34686 -2.20819 0.04 
488 1 1 -0.956622 -0.766043 -0.958878 0 0 0 -0.25287 0.000142808 -0.143084 0 0 -6.57473 0.043397 -2.95549 0.953803 0.04 
826 1 1 -0.795571 -0.736795 -0.962067 0 0 0 -0.242439 0.423245 -0.327313 10.1511 -21.1636 79.6401 -4.81919 -1.29871 -2.11467 0.04 
960 1 1 -0.736581 -0.789948 -0.95766 0 0 0 0.146113 -0.134995 0.752791 19.4628 -4.10408 -6.72106 0.473849 -1.64889 -3.01044 0.04 
1127 1 1 -0.569714 -0.773285 -0.960133 0 0 0 -0.327038 0.0853255 0.0540333 0.336561 -0.00115174 0.156527 -2.09727 3.3385 2.756 0.04 
631 1 1 -0.316478 -0.745388 -0.959731 0 0 0 0.0613978 0.258888 -0.146054 -34.7905 -26.1263 -55.9152 -1.92251 1.15992 -0.0378943 0.04 
873 1 1 -0.228711 -0.796303 -0.96078 0 0 0 0.0976548 0.266547 0.5485 -3.07978 -0.519199 26.0386 -4.10034 2.66276 2.7713 0.04 
962 1 1 -0.154834 -0.745116 -0.960787 0 0 0 -0.220849 0.191276 -0.268989 -28.445 -16.2554 -7.98162 -5.62806 3.99483 0.669661 0.04 
581 1 1 0.0313731 -0.756295 -0.9612 0 0 0 -0.25421 -0.129255 0.332008 -40.7048 -49.1677 31.8999 -2.87042 2.20297 -1.9419 0.04 
1122 1 1 0.103361 -0.796085 -0.959422 0 0 0 -0.113974 0.221169 0.134356 -69.2424 7.74443 -11.5572 -2.47638 0.301155 -1.50005 0.04 
967 1 1 0.346168 -0.795419 -0.959242 0 0 0 -0.271959 0.0341523 0.0480064 -23.2898 -13.921 -7.85661 -0.80663 -2.16582 2.24393 0.04 
656 1 1 0.414648 -0.755395 -0.959382 0 0 0 -0.474368 -0.171922 -0.354436 6.75063 21.572 -66.955 -1.55251 -0.991481 -1.91809 0.04 
177 1 1 0.617012 -0.740043 -0.956966 0 0 0 -0.307702 0.346942 -0.315992 -6.68937 -10.5361 -16.3544 -3.35958 0.213958 2.26425 0.04 
880 1 1 0.69988 -0.779943 -0.961942 0 0 0 -0.431132 0.208998 -0.136056 -0.601262 1.30424 96.493 1.33139 5.22595 -1.66209 0.04 
543 1 1 0.780582 -0.735267 -0.959389 0 0 0 -0.392358 -0.107258 0.00961979 0 0 -6.57473 -4.39681 3.61182 0.0360599 0.04 
553 1 1 0.871731 -0.735756 -0.960073 0 0 0 0.798102 0.279422 -0.386488 -22.2087 68.3455 -14.2679 9.84138 5.60326 1.60722 0.04 
987 1 1 0.957425 -0.765576 -0.959735 0 0 0 -0.0581897 0.137859 0.110032 -0.911895 13.3841 -29.2891 -0.82943 -2.06147 -1.04025 0.04 
532 1 1 -0.884386 -0.730382 -0.960394 0 0 0 0.058625 0.232298 0.0275477 -15.5085 18.9002 -9.54247 -3.4076 0.141672 -1.91551 0.04 
567 1 1 -0.702615 -0.715964 -0.961563 0 0 0 -0.447224 0.25537 0.522206 3.75996 -1.41067 73.7429 -4.13858 -5.06803 -0.507821 0.04 
925 1 1 -0.615453 -0.70621 -0.957097 0 0 0 -0.203375 0.0328626 0.258575 -7.93574 2.13748 -26.4299 -1.86201 -2.34845 -4.20002 0.04 
375 1 1 -0.486445 -0.718627 -0.951979 0 0 0 -0.317762 0.0894872 0.920182 0 0 -6.57473 -1.84854 -1.67969 -0.465382 0.04 
709 1 1 -0.401028 -0.720737 -0.960425 0 0 0 0.397838 0.362407 -0.15016 -0.928353 -0.883861 19.0616 -1.74688 2.26675 -2.22788 0.04 
382 1 1 -0.319187 -0.663116 -0.960579 0 0 0 0.0839348 0.480936 -0.21734 0.650945 -1.62986 28.526 -4.14072 5.29525 0.280961 0.04 
883 1 1 -0.221652 -0.689838 -0.960552 0 0 0 -0.217446 0.416298 -0.0983851 1.328 -0.897794 25.4853 -4.68111 3.10252 0.908216 0.04 
950 1 1 -0.0790858 -0.725762 -0.961268 0 0 0 0.107246 0.393322 -0.412182 60.2601 13.3436 68.1105 -8.74293 -0.103324 1.87813 0.04 
388 1 1 0.070007 -0.689167 -0.958361 0 0 0 -0.00507736 -0.0410821 0.00285458 21.3666 94.614 -23.7459 4.18509 5.74066 -1.00218 0.04 
862 1 1 0.220665 -0.720392 -0.957345 0 0 0 -0.57549 -0.328688 -0.622978 0 0 -6.57473 2.35609 3.18921 -4.31486 0.04 
1052 1 1 0.307054 -0.71628 -0.961905 0 0 0 -0.0535342 -0.0470244 -0.00552023 -3.16237 4.26616 99.6339 -7.04002 -7.48194 4.55522 0.04 
1000 1 1 0.378755 -0.677976 -0.961202 0 0 0 -0.0750715 0.35974 -0.52921 10.197 15.8498 43.6247 -9.11106 0.889682 -0.286202 0.04 
576 1 1 0.459935 -0.686706 -0.960388 0 0 0 -0.221182 0.0902944 -0.0387221 -53.1658 -52.9784 14.8497 1.42057 -3.43217 6.42514 0.04 
1082 1 1 0.547256 -0.702464 -0.959687 0 0 0 0.155343 0.00283362 -1.27297 -69.5269 -7.36927 -27.3692 4.02232 -0.733678 0.865571 0.04 
1111 1 1 0.673066 -0.684434 -0.959463 0 0 0 -0.139452 0.517135 0.550559 66.9129 -47.1505 -90.3983 0.820283 -4.21752 0.91109 0.04 
252 1 1 0.957124 -0.687926 -0.939034 0 0 0 -0.257066 0.350257 -0.0385615 15.4409 -9.15006 -2.32551 4.45882 -3.88698 0.159604 0.04 
670 1 1 -0.95925 -0.640715 -0.954869 0 0 0 0.0215404 0.433546 0.129 -0.225252 0.860391 -7.26647 -0.652497 -4.45808 -0.972708 0.04 
990 1 1 -0.855235 -0.653632 -0.96131 0 0 0 0.0978491 -0.0552597 -0.169943 0.771406 -7.77047 58.2631 0.256289 -0.135809 -0.973771 0.04 
565 1 1 -0.764071 -0.663094 -0.960623 0 0 0 -0.0245661 0.318487 0.227281 1.01158 -1.22603 25.2149 -6.66204 0.512244 -3.52353 0.04 
435 1 1 -0.617766 -0.613828 -0.961515 0 0 0 -0.084998 -0.00120601 0.0354949 7.92516 15.1496 46.9411 -1.48203 -1.56702 -3.75244 0.04 
893 1 1 -0.546898 -0.66641 -0.958476 0 0 0 -0.20272 -0.187442 -0.0378322 4.12695 6.53086 -18.965 2.04687 -1.48941 0.24237 0.04 
344 1 1 -0.417226 -0.617691 -0.96114 0 0 0 -0.0982073 0.277001 0.568313 0.624798 -2.73779 49.5888 -6.30283 -2.33237 4.48957 0.04 
1124 1 1 -0.252322 -0.607624 -0.961113 0 0 0 0.182332 0.484835 -0.415588 -15.9527 -0.350687 37.7007 -4.55067 -1.18447 -1.60508 0.04 
1066 1 1 -0.130858 -0.660808 -0.960742 0 0 0 0.139891 0.21738 -0.279146 -2.04333 0.934798 38.3654 -7.36375 -0.587413 -1.35191 0.04 
143 1 1 0.00286548 -0.646945 -0.957986 0 0 0 0.398764 0.0802498 0.185658 -15.8011 14.0582 -10.8655 -3.76741 6.03331 -0.443884 0.04 
1346 1 1 0.165511 -0.639479 -0.9481 0 0 0 0.295884 0.770668 0.278963 -47.7968 -0.108573 0.742834 -5.89855 1.34431 3.17753 0.04 
867 1 1 0.243106 -0.643185 -0.960588 0 0 0 0.251485 0.0843327 0.0233453 46.3681 -0.65883 18.5431 0.0678554 1.89564 5.01287 0.04 
772 1 1 0.322454 -0.597508 -0.959997 0 0 0 0.916219 0.615999 0.11826 0 0 -6.57473 -0.403506 3.36252 1.91136 0.04 
408 1 1 0.513451 -0.629988 -0.961403 0 0 0 -0.524589 0.277294 -0.135563 59.1515 48.6356 73.9873 -5.97782 -0.148358 -2.43181 0.04 
814 1 1 0.683076 -0.606994 -0.951061 0 0 0 -0.512289 0.296998 0.503921 15.5875 39.5735 1.42463 -2.69091 -6.08141 4.94169 0.04 
58 1 1 0.80499 -0.660168 -0.945026 0 0 0 0.125725 -0.229337 0.141238 -17.0125 -18.9148 -22.7747 -2.63718 -4.84308 1.29708 0.04 
1107 1 1 0.88896 -0.651912 -0.958557 0 0 0 -0.222093 0.114731 -0.0382957 -15.4409 9.15006 -10.8239 -0.490167 2.85651 0.0239753 0.04 
1055 1 1 -0.95962 -0.554568 -0.955299 0 0 0 -0.167015 0.420645 -0.338426 0 0 -6.57473 -7.39756 -0.717235 -1.38991 0.04 
739 1 1 -0.872712 -0.575741 -0.959298 0 0 0 0.172184 0.189226 0.108197 1.20633 -19.9201 -7.29571 0.357699 -1.37873 0.225864 0.04 
1142 1 1 -0.7869 -0.583425 -0.961232 0 0 0 -0.0390959 0.527357 -0.24105 10.8095 -10.6343 38.267 0.806609 2.0963 2.82123 0.04 
833 1 1 -0.698789 -0.580478 -0.961027 0 0 0 -0.1516 0.247564 0.0493504 -42.1712 -32.1912 19.4279 -5.07947 -3.1127 -2.76764 0.04 
857 1 1 -0.485159 -0.570055 -0.9568 0 0 0 0.0012772 0.305327 0.292883 71.5703 23.9475 -47.2281 -2.76861 -1.85942 -3.82536 0.04 
92 1 1 -0.414743 -0.52649 -0.951151 0 0 0 -0.0614915 0.843059 -1.26502 0 0 -6.57473 -18.9191 -3.6702 -1.15986 0.04 
868 1 1 -0.149633 -0.57969 -0.961406 0 0 0 -0.11275 0.515114 0.152389 -21.7149 -9.97658 68.5673 -6.99572 1.41818 4.76379 0.04 
1271 1 1 -0.0735065 -0.557405 -0.961349 0 0 0 -0.14039 0.711336 -0.176544 13.9779 -32.2581 74.4131 -8.72505 -4.12385 -0.673082 0.04 
1249 1 1 0.00399788 -0.5417 -0.959174 0 0 0 0.217712 0.693419 0.102534 29.2983 7.00675 -6.82597 -4.73875 -4.04879 -0.0243384 0.04 
1030 1 1 0.102521 -0.573326 -0.95986 0 0 0 -0.128974 0.322525 0.18156 0 0 -6.57473 -7.90894 -3.0254 -5.59417 0.04 
315 1 1 0.210751 -0.537403 -0.96023 0 0 0 -0.0802346 0.371818 0.107773 0.134529 -0.553626 4.82001 -4.89395 -0.93557 -2.31063 0.04 
792 1 1 0.434277 -0.572922 -0.954535 0 0 0 -0.397022 0.397511 0.00313015 0 0 -6.57473 -6.09871 5.21657 -1.1843 0.04 
1361 1 1 0.595736 -0.593379 -0.954638 0 0 0 -0.407073 0.707516 -0.289941 -7.60019 69.9474 -44.0335 4.93215 -0.538098 -6.08104 0.04 
1047 1 1 0.651033 -0.53421 -0.946783 0 0 0 -0.0545984 -0.0215324 0.142714 -22.3834 7.57301 -21.6292 -6.8582 -0.0311251 -0.1704 0.04 
9 1 1 0.856348 -0.539461 -0.960313 0 0 0 0.0596491 0.194354 0.342539 0.615601 0.212471 6.45 -5.58327 3.53091 -0.816028 0.04 
771 1 1 0.96058 -0.570163 -0.959623 0 0 0 0.0190529 0.302584 -0.447166 -32.5629 -0.969201 -5.26648 -0.515606 2.76951 2.76206 0.04 
982 1 1 -0.959509 -0.470775 -0.952844 0 0 0 -0.0959286 0.100078 -0.404143 -6.72746 -26.3528 -3.39645 2.91033 -5.72642 1.4997 0.04 
326 1 1 -0.876757 -0.496487 -0.959794 0 0 0 0.37452 0.198392 -0.139802 -2.07855 23.5158 -5.93394 -5.06239 -1.5617 -3.756 0.04 
1246 1 1 -0.737278 -0.50823 -0.952249 0 0 0 0.0121724 0.169191 -0.188532 0 0 -6.57473 -3.85137 -5.30064 5.31914 0.04 
969 1 1 -0.657311 -0.471718 -0.959264 0 0 0 -0.0198405 0.182311 0.0701156 -2.62499 8.86922 -10.7826 -3.3878 0.712876 1.20907 0.04 
230 1 1 -0.570794 -0.506116 -0.960853 0 0 0 0.170323 0.246268 -0.531346 -2.1611 -1.65391 47.8523 -4.01599 1.42731 0.505946 0.04 
978 1 1 -0.33152 -0.486064 -0.952362 0 0 0 -0.141125 0.365372 0.100134 8.7261 28.2854 -113.304 -8.77383 -2.22516 -1.32607 0.04 
168 1 1 -0.198966 -0.486613 -0.958952 0 0 0 -0.0461917 0.592152 0.636529 0 0 -6.57473 -13.7679 6.45622 -4.8501 0.04 
1010 1 1 -0.119018 -0.492621 -0.962109 0 0 0 0.183411 0.273024 0.0773009 -40.0035 8.93023 107.915 -3.45902 2.96462 -0.532202 0.04 
404 1 1 0.128656 -0.471695 -0.960217 0 0 0 -0.313627 0.480388 0.304714 -66.1256 -46.7778 -5.94756 -11.0838 2.71871 -2.46084 0.04 
1187 1 1 0.297389 -0.491302 -0.963516 0 0 0 0.0285323 0.76163 -0.257181 -3.68907 -9.25642 192.715 -4.68214 -5.31665 0.575844 0.04 
981 1 1 0.54878 -0.49631 -0.958169 0 0 0 -0.105983 0.80892 -0.0760697 0 0 -6.57473 -7.31321 -1.70993 -5.22687 0.04 
1474 1 1 0.712475 -0.47 -0.959237 0 0 0 -0.226063 -0.074528 -0.0969557 15.2573 52.8544 -98.0928 -10.1089 -5.49846 -4.39607 0.04 
840 1 1 0.769672 -0.526524 -0.931849 0 0 0 0.370493 0.376197 0.0183137 -3.33884 -2.09764 -30.2666 -15.1563 -3.48924 -4.80457 0.04 
852 1 1 0.904128 -0.474093 -0.954039 0 0 0 0.351528 0.161863 -0.651231 0 0 -6.57473 0.164579 -1.08985 -1.93524 0.04 
1215 1 1 -0.802699 -0.461841 -0.96156 0 0 0 0.0999657 0.429985 0.122472 -1.61472 -3.95038 78.7783 -6.14489 0.578575 6.52469 0.04 
76 1 1 -0.729796 -0.42694 -0.961486 0 0 0 0.0990477 0.299204 0.000906039 -3.06233 -2.78564 76.2206 1.3094 -7.29496 2.43333 0.04 
116 1 1 -0.467854 -0.455165 -0.960016 0 0 0 0.54799 0.495932 -0.0373222 -0.0626698 -0.0245898 -5.2283 -7.00724 -0.0434079 1.94752 0.04 
1205 1 1 -0.3428 -0.400108 -0.961155 0 0 0 -0.225651 0.702041 -0.418183 1.10609 -3.30774 63.1808 -6.4823 -1.93678 -0.220169 0.04 
710 1 1 -0.251855 -0.422373 -0.9505 0 0 0 -0.167683 0.315758 0.0199925 0 0 -6.57473 -7.0227 -4.25726 0.507079 0.04 
1451 1 1 -0.121402 -0.412814 -0.960114 0 0 0 0.227978 0.144532 0.154865 -0.452808 5.92385 -2.37621 -5.77212 1.62241 3.24885 0.04 
201 1 1 -0.0499515 -0.453369 -0.960066 0 0 0 0.0873446 0.559871 -0.071577 14.4732 4.75202 -7.36788 -6.94868 -2.88954 3.10891 0.04 
1378 1 1 0.0241403 -0.419426 -0.960717 0 0 0 0.232864 0.426476 -0.190442 -1.36526 -1.62486 35.8711 -6.52818 2.32145 -2.59956 0.04 
1216 1 1 0.194068 -0.430047 -0.954719 0 0 0 0.129455 0.250314 -0.241833 65.8619 51.205 -3.86452 0.0876669 1.73359 0.658682 0.04 
780 1 1 0.314482 -0.405751 -0.957864 0 0 0 -0.522917 0.730105 0.0646878 -18.2711 -21.4534 -10.9001 -11.3846 -2.54325 -2.98289 0.04 
220 1 1 0.388253 -0.451367 -0.947366 0 0 0 -0.743677 0.921571 0.0535903 -28.0296 -11.3062 -52.7763 -12.1061 2.90563 -4.21474 0.04 
309 1 1 0.489019 -0.423891 -0.953922 0 0 0 -0.334377 0.760465 0.174678 0 0 -6.57473 -2.58144 -4.87814 5.53428 0.04 
361 1 1 0.62377 -0.454897 -0.955215 0 0 0 0.241558 0.501601 0.0567993 0 0 -6.57473 -4.92264 1.40746 -2.46447 0.04 
1163 1 1 0.758221 -0.39971 -0.961624 0 0 0 -0.241968 0.348585 0.10224 5.74435 -7.50328 83.0064 -8.68159 -5.82509 2.44502 0.04 
182 1 1 0.856893 -0.39177 -0.96024 0 0 0 0.362458 1.10391 0.213687 -43.941 0.719219 3.2594 -4.35097 -1.58777 3.11047 0.04 
657 1 1 -0.941639 -0.393812 -0.95849 0 0 0 -0.173564 0.377672 0.0766559 -38.4738 55.9595 -48.9747 2.16158 3.01201 -1.65639 0.04 
1279 1 1 -0.809052 -0.358176 -0.958372 0 0 0 0.266658 0.326482 0.0667135 -6.22671 -2.60205 -40.0114 -6.74128 4.5743 -3.35976 0.04 
905 1 1 -0.631805 -0.391748 -0.960921 0 0 0 0.228712 0.584192 -0.14407 -0.576563 -2.59721 46.634 -1.32056 2.79722 -5.54738 0.04 
1037 1 1 -0.535964 -0.396165 -0.960396 0 0 0 -0.00119008 0.231513 -0.0559979 -0.435983 -1.05162 16.1936 -3.42055 -1.0229 0.0616928 0.04 
945 1 1 -0.40548 -0.349181 -0.958544 0 0 0 -0.216677 0.26383 -0.338596 13.5262 125.083 -111.97 -3.40557 3.2199 -7.13701 0.04 
128 1 1 -0.133751 -0.330132 -0.954137 0 0 0 -0.369448 0.56397 0.00628994 0 0 -6.57473 -1.27331 -4.59589 -0.130593 0.04 
1348 1 1 -0.0444834 -0.373496 -0.958646 0 0 0 -0.339892 0.722415 -0.174278 -19.0875 44.9805 -76.3989 -5.53241 -2.74974 -1.1368 0.04 
807 1 1 0.0401958 -0.337749 -0.960026 0 0 0 0.520408 0.453077 0.185845 -0.0192769 -0.0434206 -7.52487 0.336906 7.83457 -1.77458 0.04 
1201 1 1 0.117343 -0.373565 -0.960266 0 0 0 0.126415 1.00221 0.00742406 -0.129171 -0.724304 8.13991 -5.93537 -0.253779 4.54474 0.04 
1139 1 1 0.228751 -0.355326 -0.956811 0 0 0 0.292359 0.308109 0.207069 0 0 -6.57473 -4.80661 -17.6402 -1.87762 0.04 
1069 1 1 0.365192 -0.346968 -0.941975 0 0 0 -0.75642 0.677771 0.574806 16.5524 22.9911 -11.9193 -7.64915 -4.90387 5.94622 0.04 
624 1 1 0.444985 -0.343538 -0.957397 0 0 0 0.109822 0.760931 0.301008 0 0 -6.57473 -0.207308 5.06502 -1.96131 0.04 
342 1 1 0.605796 -0.353424 -0.955954 0 0 0 0.406658 0.346858 -0.92528 0 0 -6.57473 -1.94066 6.45145 -0.593816 0.04 
806 1 1 0.718624 -0.330404 -0.963892 0 0 0 -0.27255 0.405495 0.893723 6.19757 0.335508 198.323 -10.6356 -8.60489 -2.80429 0.04 
975 1 1 0.935565 -0.397709 -0.959959 0 0 0 -0.122879 0.195686 -0.00593847 23.4227 9.00404 -78.6836 -4.19355 -1.76072 4.07782 0.04 
1239 1 1 -0.951996 -0.276466 -0.957342 0 0 0 -0.377625 0.180538 0.167227 -1.03891 -63.7428 -17.3869 -5.65485 -0.847767 2.57066 0.04 
1056 1 1 -0.896866 -0.330016 -0.93544 0 0 0 -0.121897 0.184678 -0.22401 1.73306 -1.71412 -5.74844 -4.4597 -1.31671 -3.04086 0.04 
1251 1 1 -0.744348 -0.283772 -0.958077 0 0 0 0.359186 0.269599 -0.219324 -6.33759 -18.2564 -66.9101 -5.1834 2.13021 0.846452 0.04 
283 1 1 -0.670914 -0.316555 -0.942959 0 0 0 0.0855699 0.835683 -0.147364 0 0 -6.57473 -5.07709 4.06134 0.483729 0.04 
1286 1 1 -0.586136 -0.317506 -0.95934 0 0 0 -0.418862 0.806754 0.612045 0 0 -6.57473 -5.35336 -2.61115 -1.47122 0.04 
383 1 1 -0.492721 -0.301985 -0.932595 0 0 0 -0.257163 0.410702 0.496665 0 0 -6.57473 -5.24458 -5.78501 3.05717 0.04 
1250 1 1 -0.287178 -0.265465 -0.959184 0 0 0 0.63948 0.676414 -0.3279 0 0 -6.57473 -4.31976 7.31566 -7.8912 0.04 
1202 1 1 -0.215312 -0.314651 -0.960497 0 0 0 0.298939 0.860996 0.00473647 -0.589719 -1.24905 21.0506 -4.49516 -0.583642 0.268688 0.04 
1276 1 1 -0.0235926 -0.273754 -0.95813 0 0 0 -0.151294 0.849202 -0.470943 28.0132 -8.29704 -41.9209 -3.66442 -4.18272 0.707824 0.04 
232 1 1 0.0927229 -0.270616 -0.958831 0 0 0 -0.249333 1.00199 -0.406188 -27.9129 10.7655 -6.52626 -7.43462 1.75752 -0.0321548 0.04 
752 1 1 0.165742 -0.301048 -0.962299 0 0 0 -0.415339 0.589762 -0.760482 33.2388 -15.1499 131.345 -8.32313 -2.5247 -0.37283 0.04 
1475 1 1 0.404385 -0.270932 -0.939333 0 0 0 0.0564039 0.315607 -0.116212 0 0 -6.57473 -5.50425 -1.89694 0.279832 0.04 
1336 1 1 0.802374 -0.328219 -0.953886 0 0 0 0.999966 0.292964 -0.782697 0 0 -6.57473 -11.5851 2.83477 -6.70776 0.04 
1206 1 1 0.87767 -0.280749 -0.947893 0 0 0 -0.268946 0.433877 0.497658 0 0 -6.57473 -8.5477 5.64932 3.00351 0.04 
328 1 1 -0.875959 -0.248815 -0.953832 0 0 0 -0.0351679 0.254222 0.204602 -1.95316 0.794486 -7.71461 0.650772 1.9823 3.72872 0.04 
1484 1 1 -0.786336 -0.196561 -0.959087 0 0 0 0.117668 0.849862 -0.162751 0 0 -6.57473 -8.39691 -3.6429 -6.21291 0.04 
1203 1 1 -0.516057 -0.220452 -0.949701 0 0 0 0.266951 0.466869 -0.553197 -1.67139 -4.34967 -5.8461 -4.25094 2.43465 5.49041 0.04 
1192 1 1 -0.408651 -0.196429 -0.952945 0 0 0 0.603606 1.01349 0.254067 0 0 -6.57473 3.47764 8.75544 -6.29492 0.04 
1344 1 1 -0.211756 -0.232245 -0.958356 0 0 0 0.117353 -0.0861474 0.901623 0.138342 2.23959 -22.0365 -2.03956 -5.97763 -3.15783 0.04 
295 1 1 -0.124531 -0.194246 -0.945318 0 0 0 -0.721701 0.370871 -0.220231 -41.9609 -109.455 18.1465 -4.44818 0.0125708 -0.10774 0.04 
557 1 1 0.265356 -0.253027 -0.958593 0 0 0 -0.190794 0.764165 0.602221 0 0 -6.57473 -9.61143 -4.73406 -2.22543 0.04 
1078 1 1 0.481304 -0.2347 -0.937148 0 0 0 -0.11292 0.0346079 0.227953 -110.062 -3.83577 29.6143 -0.801772 -3.66406 2.40328 0.04 
13 1 1 0.552989 -0.230482 -0.964346 0 0 0 -0.000135669 0.37331 -0.299074 119.479 -4.08106 203.303 -5.37349 2.6279 1.33848 0.04 
885 1 1 0.652013 -0.237803 -0.95408 0 0 0 -0.0268846 0.558165 0.167814 0 0 -6.57473 -9.2229 -6.68935 6.60257 0.04 
627 1 1 0.753562 -0.237432 -0.959918 0 0 0 0.669383 0.207983 0.148341 0 0 -6.57473 -14.1607 -0.266991 -2.1422 0.04 
1130 1 1 0.947657 -0.240439 -0.960217 0 0 0 0.0713865 0.237369 -0.0349054 2.1308 2.75768 -12.7049 -2.97141 -2.3108 -5.8346 0.04 
1324 1 1 -0.952582 -0.198663 -0.949417 0 0 0 -0.451993 0.181641 -0.198246 -0.694144 65.4569 3.41115 3.44127 -2.13046 -0.5039 0.04 
1150 1 1 -0.615121 -0.165921 -0.962409 0 0 0 -0.260349 0.361949 0.249582 5.41467 -3.68706 124.441 -3.52678 1.81613 -2.01944 0.04 
1403 1 1 -0.486424 -0.146698 -0.958277 0 0 0 -0.0626326 0.238117 -0.227472 1.67139 4.34967 -7.30335 -1.8365 5.3861 4.51151 0.04 
619 1 1 -0.341214 -0.146374 -0.948405 0 0 0 -0.0497304 0.774847 -0.51349 -17.3522 6.04661 -2.61951 -3.84305 3.37999 4.54837 0.04 
668 1 1 -0.267619 -0.173177 -0.961364 0 0 0 0.527988 0.721144 -0.164648 14.5317 -8.74839 67.5847 -3.29306 -2.3966 3.02621 0.04 
1198 1 1 -0.177433 -0.133644 -0.960649 0 0 0 -0.516862 0.396695 -0.103223 1.80919 -0.497078 30.9499 -6.14603 0.992646 0.630827 0.04 
1102 1 1 -0.0232253 -0.190925 -0.955992 0 0 0 -1.12772 0.642674 -0.0697186 -1.57943 -3.20053 -13.5519 -2.57867 -5.10129 -0.52774 0.04 
1012 1 1 0.163935 -0.196737 -0.961371 0 0 0 -0.0406899 -0.333533 0.262627 0.551256 3.60875 66.4375 0.820832 0.137149 -2.34874 0.04 
231 1 1 0.225867 -0.14586 -0.966526 0 0 0 0.239319 0.167801 -0.424449 -4.23827 -26.1698 305.377 -4.73838 3.64291 15.0235 0.04 
685 1 1 0.388016 -0.166748 -0.960286 0 0 0 -0.10616 0.953908 -0.202102 0.0996206 -0.922968 11.9918 -7.70056 -0.911439 -11.1728 0.04 
1096 1 1 0.498225 -0.158398 -0.962578 0 0 0 0.0901994 -0.343847 -0.0632806 0.995876 13.9491 33.4457 -15.2427 1.80665 -4.42515 0.04 
864 1 1 0.582771 -0.150939 -0.960924 0 0 0 -0.0944554 -0.216948 0.178262 -0.583217 2.38745 42.5784 1.28283 -3.41798 8.50893 0.04 
952 1 1 0.663023 -0.141064 -0.951227 0 0 0 0.0871366 1.11447 -0.684229 0 0 -6.57473 0.560219 -8.34946 -5.39041 0.04 
1189 1 1 0.74802 -0.142791 -0.960639 0 0 0 -0.211734 0.564098 -0.264275 -107.857 -2.69612 21.3006 -4.90624 -2.11128 -0.296656 0.04 
1033 1 1 0.824557 -0.147978 -0.953651 0 0 0 0.0212084 -0.404941 0.298857 -31.3553 -20.5855 -74.6637 -7.8002 -4.16144 2.24392 0.04 
1191 1 1 0.954185 -0.145086 -0.955026 0 0 0 -0.0622713 0.405718 0.32994 67.0545 -10.5764 -71.1602 -10.4466 -4.76009 -9.23009 0.04 
1371 1 1 -0.952694 -0.0732389 -0.960469 0 0 0 0.117365 0.118321 0.167205 -0.481177 1.09734 17.3893 -5.98968 1.63124 8.71454 0.04 
660 1 1 -0.767705 -0.109604 -0.960089 0 0 0 -0.419449 0.730146 0.304969 -112.63 19.1602 -8.00682 -3.83302 5.28702 0.822454 0.04 
1160 1 1 -0.692641 -0.125954 -0.960004 0 0 0 -0.185485 0.157703 -0.269723 112.839 -19.1295 -0.454344 -8.76111 8.14253 -4.18663 0.04 
1208 1 1 -0.552904 -0.101449 -0.960797 0 0 0 0.00291478 0.47074 0.310338 -1.51553 -1.33605 33.8326 -8.20417 -4.11293 0.689284 0.04 
1235 1 1 -0.405894 -0.0901023 -0.960839 0 0 0 0.122718 0.830972 -0.147695 -0.346394 -2.40718 42.0649 -3.49147 0.581767 -8.25882 0.04 
1095 1 1 -0.245424 -0.0909867 -0.960003 0 0 0 0.363612 0.112622 0.23699 0.175135 0.139949 -9.48679 -2.95058 9.26068 3.83043 0.04 
1304 1 1 -0.0952398 -0.124599 -0.958213 0 0 0 -0.202119 0.720667 -0.0289105 41.9609 109.455 -31.296 -5.31946 -8.25119 3.62897 0.04 
1240 1 1 -0.0108159 -0.107112 -0.951796 0 0 0 -0.108929 -0.0215179 -0.27906 0 0 -6.57473 -3.01036 0.127358 -9.08322 0.04 
906 1 1 0.077809 -0.116937 -0.951488 0 0 0 0.159116 0.587536 -0.823178 -38.7942 -4.14077 -0.531118 -0.507593 -6.50418 -3.97387 0.04 
1466 1 1 0.155698 -0.108145 -0.959677 0 0 0 0.80995 0.75325 -0.061178 36.0871 5.43228 -12.4034 -4.63511 -0.421769 5.14154 0.04 
1429 1 1 0.24836 -0.0720453 -0.947454 0 0 0 0.00922835 0.480066 0.537418 4.28895 14.5326 -3.61211 6.7477 3.65521 -0.982353 0.04 
1126 1 1 0.321126 -0.123745 -0.948768 0 0 0 0.380238 -0.694567 0.55947 0 0 -6.57473 3.08939 -4.98024 -5.0567 0.04 
1170 1 1 0.391713 -0.0621586 -0.955377 0 0 0 -0.573368 1.55698 0.484938 0 0 -6.57473 -13.1014 -3.98858 -2.14145 0.04 
671 1 1 0.617377 -0.0718579 -0.958746 0 0 0 0.249831 0.632588 0.318863 0 0 -6.57473 -9.5409 2.27661 -4.98629 0.04 
539 1 1 0.887056 -0.105278 -0.944112 0 0 0 0.356247 0.20696 0.424323 68.7859 99.215 7.98876 -6.3378 -1.36366 -2.41494 0.04 
837 1 1 -0.860051 -0.0437053 -0.960993 0 0 0 -0.363553 0.11098 -0.394631 2.62593 -1.49417 53.8505 2.87336 0.786547 4.33857 0.04 
1471 1 1 -0.658757 -0.0470372 -0.961139 0 0 0 -0.547299 -0.383169 -0.40531 1.58267 3.04989 62.147 -13.7538 -1.69756 3.68266 0.04 
1236 1 1 -0.182346 -0.00691908 -0.95754 0 0 0 -0.0350355 0.533486 -0.0161356 0 0 -6.57473 -6.24007 -4.5872 6.60555 0.04 
854 1 1 -0.103992 -0.0274037 -0.958127 0 0 0 -0.183929 0.66446 -0.0701426 0 0 -6.57473 -6.93061 2.68203 0.327692 0.04 
1164 1 1 0.496712 -0.0477345 -0.959123 0 0 0 0.12486 -0.0781899 -0.66456 -34.9327 -68.5009 -4.30253 9.34548 -4.78234 -8.12913 0.04 
409 1 1 0.696883 -0.0620448 -0.954851 0 0 0 -0.306383 0.216546 0.0467047 -6.34515 -67.4176 -15.9085 -6.28975 -0.829321 -2.53732 0.04 
696 1 1 0.78555 -0.0324049 -0.959944 0 0 0 -0.0917775 0.582349 -0.329054 0 0 -6.57473 0.431916 1.03297 1.12105 0.04 
1156 1 1 0.871271 -0.0216534 -0.960657 0 0 0 -0.139977 0.312606 0.998909 -0.0260695 -1.18366 17.1043 -0.519452 -3.69504 1.60116 0.04 
717 1 1 0.959848 -0.0639452 -0.953063 0 0 0 -0.941363 -0.0253131 0.149344 0 0 -6.57473 -6.65814 1.39278 -2.20654 0.04 
474 1 1 -0.869206 0.0359094 -0.953603 0 0 0 0.268219 0.454625 -0.648183 0 0 -6.57473 -9.01354 8.25609 -4.82056 0.04 
955 1 1 -0.727766 0.0111947 -0.934628 0 0 0 0.584917 0.450124 0.0308656 0 0 -6.57473 -0.0634625 7.51343 -0.30868 0.04 
319 1 1 -0.565611 0.0173211 -0.955867 0 0 0 -0.810357 0.492988 -0.389305 15.5998 -37.9947 -91.0511 -5.38964 4.37393 -0.949288 0.04 
983 1 1 -0.465658 0.0381442 -0.948654 0 0 0 0.337518 1.50862 0.587927 0 0 -6.57473 -18.0402 -0.9487 -8.86729 0.04 