ITEM: TIMESTEP
43200
ITEM: NUMBER OF ATOMS
1500
ITEM: BOX BOUNDS ff ff ff
-1 1
-1 1
-1 1
ITEM: ATOMS id type type x y z ix iy iz vx vy vz fx fy fz omegax omegay omegaz radius 
137 1 1 -0.957877 -0.959308 -0.96007 0 0 0 0.0344881 -0.318077 0.0166079 -0.00049675 0.182816 -2.91839 -0.94962 0.838749 -0.190047 0.04 
5 1 1 -0.874519 -0.960223 -0.957112 0 0 0 -0.0484271 0.0279461 0.248316 0.244251 12.0579 -7.12593 -0.727316 2.89524 -1.87345 0.04 
239 1 1 -0.793192 -0.960053 -0.952051 0 0 0 0.120012 -0.342973 -0.0946383 -4.02384 -1.36734 -6.09909 -7.17651 2.14362 -0.0504327 0.04 
415 1 1 -0.695953 -0.959805 -0.95972 0 0 0 -0.189326 0.049084 -0.173848 0 0 -6.57473 0.586503 6.40638 -2.83878 0.04 
138 1 1 -0.538158 -0.958426 -0.960728 0 0 0 0.346852 -0.0554082 -0.056021 20.8884 -0.240313 2.92896 -1.59381 0.811387 -3.84203 0.04 
323 1 1 -0.436209 -0.960414 -0.960598 0 0 0 0.243716 -0.0501079 0.0580383 -34.8985 20.5422 15.1459 1.26065 0.699123 -0.999059 0.04 
130 1 1 -0.357267 -0.959309 -0.960219 0 0 0 0.180325 -0.195922 0.0715164 -3.12776 -38.3739 4.30735 -1.68102 -0.80112 2.2954 0.04 
502 1 1 -0.277818 -0.959594 -0.958772 0 0 0 -0.0459897 -0.00849935 -0.00196924 21.4146 -0.72752 -5.33313 0.472031 -0.466652 -0.168462 0.04 
494 1 1 -0.188054 -0.958897 -0.961191 0 0 0 0.059068 0.10407 0.308671 2.23868 -2.17071 55.791 -0.912149 3.29 -1.00867 0.04 
448 1 1 -0.106302 -0.958779 -0.958659 0 0 0 0.13872 0.123931 -0.127058 -16.3434 -6.46491 -21.8211 1.28304 0.940644 -0.324089 0.04 
147 1 1 -0.0269501 -0.957809 -0.960194 0 0 0 0.137011 -0.238572 0.0437196 35.8978 -18.3554 1.54212 -1.88652 1.55409 -0.236664 0.04 
218 1 1 0.0561965 -0.959584 -0.95979 0 0 0 -0.0044569 -0.0110937 0.0953884 -47.8678 -2.71496 -21.899 -0.627519 -0.394667 -1.48898 0.04 
655 1 1 0.134827 -0.952565 -0.958369 0 0 0 -0.449105 0.00955036 -0.219654 41.5288 3.35036 -3.76946 -0.536404 -1.06707 1.40612 0.04 
339 1 1 0.221088 -0.960099 -0.957358 0 0 0 -0.155363 -0.111067 0.0284551 -16.4926 -20.6113 -4.63779 0.18474 -2.62826 -1.26815 0.04 
341 1 1 0.341474 -0.943319 -0.95637 0 0 0 -0.536107 0.133137 0.0279421 0 0 -6.57473 -3.58387 -4.54215 3.73778 0.04 
203 1 1 0.434098 -0.96117 -0.952529 0 0 0 -0.197773 0.214772 -0.042722 -2.31526 56.8845 -4.07413 2.97075 -13.2124 3.28025 0.04 
1019 1 1 0.526561 -0.958419 -0.948818 0 0 0 -0.44397 0.154791 0.0624756 0 0 -6.57473 -2.69114 1.70812 -2.48684 0.04 
821 1 1 0.617943 -0.959473 -0.962175 0 0 0 -0.377919 -0.000107532 -0.0150097 5.89053 1.47069 114.852 -2.40049 -0.0862944 4.22291 0.04 
636 1 1 0.700546 -0.956783 -0.962122 0 0 0 0.205765 -0.134896 0.060931 -3.11665 4.97894 110.904 -3.61935 0.850231 0.686846 0.04 
729 1 1 0.782124 -0.959091 -0.960081 0 0 0 -0.0252599 0.263301 -0.067409 -0.107642 -0.247134 -1.18355 2.35387 -4.52736 0.796206 0.04 
503 1 1 0.873953 -0.959108 -0.957438 0 0 0 -0.126601 -0.047094 0.0259193 29.7199 -3.15636 -45.0167 3.1038 -4.05532 6.2952 0.04 
918 1 1 -0.956277 -0.876717 -0.960216 0 0 0 0.0465498 -0.262425 0.0942728 -2.26817 -52.5915 -45.9489 -0.296169 1.54792 1.6017 0.04 
246 1 1 -0.84347 -0.883644 -0.957991 0 0 0 0.103751 0.0142938 -0.166139 -57.4768 -1.08422 -7.34344 1.71356 1.68307 -2.15447 0.04 
586 1 1 -0.765037 -0.88574 -0.958546 0 0 0 -0.0276329 -0.272252 -0.346143 61.3074 9.84291 -6.59667 1.21183 0.0227773 0.944265 0.04 
379 1 1 -0.681502 -0.873665 -0.958218 0 0 0 0.304416 -0.090426 -0.0270283 0 0 -6.57473 5.0748 3.98363 1.6879 0.04 
105 1 1 -0.60874 -0.919102 -0.960076 0 0 0 0.0963675 -0.275611 0.16637 -0.00182613 0.10429 -4.48861 -1.11432 2.27124 0.816171 0.04 
52 1 1 -0.484376 -0.893486 -0.958959 0 0 0 0.0557318 0.044136 -0.156114 2.45919 -3.14369 -21.058 -3.89344 4.34992 -0.137328 0.04 
209 1 1 -0.326382 -0.886901 -0.960588 0 0 0 -0.266181 0.0478324 -0.0831553 22.0529 42.378 26.5034 -3.50416 5.02626 0.668016 0.04 
647 1 1 -0.240776 -0.883581 -0.961179 0 0 0 0.203545 -0.0660479 0.215212 -3.14005 0.208573 56.3647 1.43487 1.51793 -2.47272 0.04 
700 1 1 -0.153108 -0.88385 -0.961336 0 0 0 0.482729 -0.507855 0.0468828 -2.77509 2.434 67.2507 0.0475194 -2.39558 4.77277 0.04 
616 1 1 -0.0668529 -0.889302 -0.9587 0 0 0 0.0342653 0.029347 0.0162953 -10.5869 24.2963 -5.83994 0.820408 2.1535 2.4108 0.04 
827 1 1 0.0131067 -0.877288 -0.959499 0 0 0 -0.21741 0.279923 -0.506305 0 0 -6.57473 -5.20156 3.47962 0.173932 0.04 
784 1 1 0.107779 -0.867845 -0.960538 0 0 0 -0.172071 0.0608844 0.286064 -28.4634 17.5447 -21.5631 -0.195867 -2.73511 7.14027 0.04 
211 1 1 0.187358 -0.874168 -0.95943 0 0 0 -0.209732 0.348521 -0.33609 -21.6442 25.5337 -61.9514 0.330439 -3.66083 -1.89076 0.04 
19 1 1 0.265227 -0.894477 -0.960258 0 0 0 0.0698382 -0.353786 0.338413 -8.70565 17.991 -8.17833 2.95983 -0.00723172 -0.406453 0.04 
664 1 1 0.477089 -0.893846 -0.952098 0 0 0 -0.267392 -0.0909836 -0.0126645 3.55558 5.51222 -6.21264 -2.94709 -4.73066 -6.76716 0.04 
396 1 1 0.571671 -0.879421 -0.960758 0 0 0 -0.220428 0.26152 -0.356659 19.2696 -17.0801 25.4344 1.84373 1.78345 0.897969 0.04 
50 1 1 0.654698 -0.882679 -0.960615 0 0 0 0.0684416 0.347536 -0.203587 -3.20256 25.4318 -1.98562 -0.656914 -0.275136 -2.87987 0.04 
742 1 1 0.736111 -0.880237 -0.953451 0 0 0 0.25655 0.00531505 0.211284 0 0 -6.57473 -4.60748 -5.28912 1.9172 0.04 
554 1 1 0.832409 -0.889343 -0.960608 0 0 0 -0.625901 0.200442 -0.034068 -36.6421 -3.90837 1.67342 0.186198 0.55329 0.876709 0.04 
850 1 1 0.960054 -0.927511 -0.960192 0 0 0 -0.0104058 0.0971845 0.0627509 -2.51971 -0.487191 3.33577 0.383524 2.49281 0.033313 0.04 
446 1 1 -0.895788 -0.81448 -0.960303 0 0 0 0.274357 0.0657694 -0.0793554 -0.894326 -0.0184138 11.3156 -1.4885 -0.978197 0.922612 0.04 
894 1 1 -0.815411 -0.802061 -0.960201 0 0 0 0.298928 0.0966763 -0.038618 4.60234 -4.12789 -1.91795 -1.60209 -3.70987 -2.51693 0.04 
960 1 1 -0.729288 -0.809169 -0.955338 0 0 0 0.017365 0.100673 0.318178 9.40069 -23.5652 -25.7916 4.71367 2.72064 0.439706 0.04 
290 1 1 -0.627476 -0.809778 -0.959691 0 0 0 -0.160589 0.139816 0.0240607 -3.2355 1.06587 -6.45257 -2.69223 1.65592 0.633971 0.04 
380 1 1 -0.551152 -0.83328 -0.958882 0 0 0 0.0725092 0.1961 0.315601 -68.5856 -17.3663 -5.09647 -5.00044 2.10676 -1.23172 0.04 
241 1 1 -0.475974 -0.812504 -0.959141 0 0 0 0.0295658 0.40452 0.208573 48.8928 13.6779 -25.1357 -0.229726 1.60326 0.322473 0.04 
480 1 1 -0.410407 -0.857701 -0.958079 0 0 0 0.215351 0.0906828 0.0158939 -9.40497 27.677 -45.0727 -3.79798 3.43979 -0.0348544 0.04 
322 1 1 -0.295491 -0.81297 -0.960726 0 0 0 -0.205888 0.0894455 0.3761 24.6806 2.42354 0.885739 -3.11232 -3.19791 2.18969 0.04 
385 1 1 -0.105703 -0.815866 -0.959624 0 0 0 0.151852 -0.257428 -0.0612187 0 0 -6.57473 1.16176 0.290082 0.544906 0.04 
725 1 1 0.249221 -0.808024 -0.959963 0 0 0 -0.247414 0.133294 0.0121372 31.0356 -6.67703 -5.21856 -1.20018 -3.04713 2.98367 0.04 
354 1 1 0.334668 -0.86434 -0.936848 0 0 0 -0.0666299 0.247634 -0.42555 5.68812 26.8358 -10.1422 -0.318299 0.944679 1.24968 0.04 
159 1 1 0.411126 -0.846424 -0.957577 0 0 0 0.110879 0.579965 0.0251342 0 0 -6.57473 -2.86719 -2.76055 1.93538 0.04 
866 1 1 0.615232 -0.806844 -0.940394 0 0 0 -0.142348 0.284511 0.352356 0 0 -6.57473 -3.82708 -0.0509082 3.38227 0.04 
439 1 1 0.802962 -0.807714 -0.960776 0 0 0 -0.141968 0.213623 0.141699 27.682 -3.855 22.8877 -1.85331 -2.48472 0.484458 0.04 
188 1 1 0.891856 -0.800836 -0.957379 0 0 0 -0.015063 0.387431 -0.401291 0.486813 -0.29695 -6.56142 -2.71289 -1.89495 -1.68188 0.04 
972 1 1 0.959506 -0.843462 -0.959336 0 0 0 0.0830902 0.226304 -0.107476 -0.486813 0.29695 -6.58803 -0.349439 0.320389 -1.73822 0.04 
488 1 1 -0.959967 -0.759035 -0.960847 0 0 0 0.175229 0.153642 0.107628 -45.7078 -29.3273 38.9722 -0.4716 -1.34474 3.884 0.04 
1127 1 1 -0.578455 -0.742654 -0.954442 0 0 0 0.252169 0.193551 -0.190933 4.20331 -6.07294 -8.88714 -1.54909 0.744199 1.2111 0.04 
511 1 1 -0.368837 -0.775506 -0.960722 0 0 0 0.276639 0.511391 0.0515284 -9.82306 13.5018 10.2346 -4.25138 3.69606 1.54949 0.04 
873 1 1 -0.224367 -0.755544 -0.961472 0 0 0 0.221972 0.497651 -0.0391561 -30.0626 11.4066 21.9246 -6.22349 0.476457 1.76546 0.04 
204 1 1 -0.0297688 -0.778825 -0.961409 0 0 0 0.423421 0.0386023 0.0442759 -5.42301 1.66983 69.4355 -4.4286 0.769033 0.908585 0.04 
1122 1 1 0.0918821 -0.787832 -0.960843 0 0 0 -0.146471 -0.0879014 -0.0875809 -1.24721 -11.1542 11.6087 -1.10892 0.545208 -5.36076 0.04 
773 1 1 0.171171 -0.79432 -0.960783 0 0 0 0.210788 -0.432123 0.191568 -35.6032 23.2991 1.9639 1.27783 -0.932747 -0.5589 0.04 
967 1 1 0.328939 -0.787471 -0.958974 0 0 0 -0.142459 -0.0628951 -0.285374 0 0 -6.57473 -5.62012 -6.31886 1.98518 0.04 
656 1 1 0.415151 -0.754175 -0.956947 0 0 0 -0.277443 -0.0644934 -0.0565211 -47.8004 1.72281 -14.042 -2.02862 -0.685055 -0.747496 0.04 
451 1 1 0.493014 -0.753352 -0.946321 0 0 0 0.213633 0.481663 -0.171788 47.8004 -1.72281 0.892549 -9.88039 -0.418539 -0.409224 0.04 
880 1 1 0.686336 -0.739698 -0.960898 0 0 0 -0.187467 0.414057 0.159806 -28.2392 -2.69862 38.8934 -1.90862 -0.462474 -3.03689 0.04 
543 1 1 0.765436 -0.735829 -0.957292 0 0 0 -0.546573 0.450832 -0.199075 -2.58192 -0.937644 -22.3877 0.423697 -0.583724 -2.86646 0.04 
987 1 1 0.959179 -0.751588 -0.960863 0 0 0 0.207015 0.216752 -0.0531579 -2.04424 -1.32852 42.1855 -0.100986 -3.04153 -0.971461 0.04 
532 1 1 -0.895119 -0.714465 -0.960026 0 0 0 -0.4369 0.271554 0.0943681 55.7519 18.5698 -11.2871 -1.4301 -3.17242 -1.41685 0.04 
826 1 1 -0.808507 -0.716147 -0.959718 0 0 0 0.0404013 -0.0452636 -0.195357 -7.48416 -15.214 -6.2112 -5.69851 -4.63937 -1.86204 0.04 
567 1 1 -0.71784 -0.697739 -0.956652 0 0 0 -0.0445593 0.272339 -0.0263383 1.12353 1.76934 -8.11056 -4.63638 2.05866 1.68714 0.04 
925 1 1 -0.633189 -0.685212 -0.960268 0 0 0 -0.0503508 0.789581 0.254262 -49.9555 -15.4954 2.32016 -2.94253 1.80268 -5.0175 0.04 
375 1 1 -0.505146 -0.71207 -0.942743 0 0 0 -0.438143 0.0224776 -0.156247 1.85757 4.47297 -9.53334 -9.32705 3.44613 0.17538 0.04 
709 1 1 -0.397683 -0.700226 -0.961227 0 0 0 0.122802 0.184338 -0.274892 -6.07847 2.20774 55.9066 -3.26674 -1.7368 -3.04704 0.04 
631 1 1 -0.306724 -0.723095 -0.958598 0 0 0 0.12479 0.249732 0.0895462 0 0 -6.57473 -4.21495 0.563369 2.96246 0.04 
883 1 1 -0.233603 -0.666563 -0.96076 0 0 0 -0.188049 0.305879 -0.180896 20.8978 14.8862 -14.4125 -6.51252 1.61199 0.550018 0.04 
962 1 1 -0.153786 -0.713601 -0.950578 0 0 0 -0.25164 0.205323 0.0593396 0 0 -6.57473 -7.90593 1.92046 0.754917 0.04 
950 1 1 -0.0765724 -0.694056 -0.960909 0 0 0 0.0401991 0.266562 -0.139097 0.825861 -2.49009 45.8947 -6.25496 1.07339 -1.41031 0.04 
581 1 1 0.0406643 -0.7278 -0.95912 0 0 0 0.282551 0.4494 -0.0276484 -12.969 23.1423 -20.0662 -4.65338 3.52842 -2.29444 0.04 
1088 1 1 0.134512 -0.721342 -0.946734 0 0 0 -0.13903 0.355051 -0.476614 0 0 -6.57473 2.78221 -6.79745 -1.39368 0.04 
862 1 1 0.214702 -0.725846 -0.960585 0 0 0 0.119256 0.365769 0.136858 -0.481534 -1.46477 24.2631 -1.01155 0.307647 -2.9296 0.04 
1052 1 1 0.305019 -0.705383 -0.959557 0 0 0 -0.0965518 0.487334 -0.255554 0 0 -6.57473 -0.651919 -2.42757 7.66475 0.04 
1082 1 1 0.495095 -0.670867 -0.961823 0 0 0 -0.534619 0.972867 -0.349501 -58.9769 -27.5866 90.9979 6.18898 -4.56699 -0.794041 0.04 
177 1 1 0.583265 -0.727287 -0.958499 0 0 0 -0.539681 -0.0305148 0.121041 0 0 -6.57473 -8.80731 1.89075 7.45002 0.04 
58 1 1 0.821456 -0.668255 -0.960748 0 0 0 -0.0152844 0.0428111 -0.245251 -3.84771 20.5078 23.1979 0.0876412 -0.146509 2.99794 0.04 
553 1 1 0.898915 -0.69812 -0.960904 0 0 0 0.0803679 0.214914 0.0898417 -0.112458 -2.45932 42.663 -1.9709 1.87429 -1.23307 0.04 
670 1 1 -0.959581 -0.602531 -0.960322 0 0 0 -0.0409391 0.239626 -0.255367 0.407353 -3.83322 5.988 -1.66363 1.12312 -0.581379 0.04 
990 1 1 -0.855648 -0.644907 -0.960224 0 0 0 -0.130793 0.192556 0.120659 -37.7497 -1.43803 2.30416 -2.12867 0.371331 -0.315527 0.04 
565 1 1 -0.776694 -0.643239 -0.959823 0 0 0 -0.196612 0.0187349 -0.287853 45.7697 16.5213 -4.89376 -3.47875 0.0401152 -1.53754 0.04 
435 1 1 -0.624949 -0.600253 -0.960125 0 0 0 0.373965 0.439691 -0.0316169 -7.49887 5.04917 0.559984 -3.84463 -1.20848 -2.15071 0.04 
893 1 1 -0.562673 -0.650147 -0.959605 0 0 0 -0.0851124 0.190928 -0.00206499 49.1441 18.0784 -4.9887 -2.57039 -0.887951 -0.668798 0.04 
816 1 1 -0.480982 -0.630535 -0.960252 0 0 0 -0.153796 -0.774982 0.171608 -7.5452 -40.7986 -35.502 -2.89699 -0.257962 0.219624 0.04 
382 1 1 -0.308337 -0.616503 -0.959507 0 0 0 -0.150563 0.837099 -0.645078 -73.0589 58.1553 -123.41 -7.74269 1.62754 -0.971784 0.04 
1066 1 1 -0.110936 -0.614157 -0.961744 0 0 0 0.0208196 0.367479 -0.187952 36.5948 8.50453 49.8813 -6.15766 1.47856 -1.22846 0.04 
143 1 1 0.0238987 -0.599029 -0.958911 0 0 0 0.0213272 0.78184 0.0474993 0 0 -6.57473 -7.16383 5.17091 2.10164 0.04 
388 1 1 0.0898322 -0.648649 -0.957474 0 0 0 0.273545 0.534433 0.0309351 0 0 -6.57473 -3.36109 2.88503 -3.51201 0.04 
867 1 1 0.255917 -0.638851 -0.947775 0 0 0 -0.390364 0.165475 -0.0640717 -27.2389 -14.5473 -5.51471 1.29095 1.30658 2.99892 0.04 
1000 1 1 0.323132 -0.597898 -0.955682 0 0 0 -0.185018 0.870563 0.108803 28.2662 16.3888 -22.353 -8.33434 -2.97177 2.24836 0.04 
576 1 1 0.395043 -0.647446 -0.960426 0 0 0 -0.752011 0.523292 -0.0161275 0.933316 -0.751142 17.386 0.175232 -2.341 4.30392 0.04 
255 1 1 0.569125 -0.647439 -0.952167 0 0 0 -0.224616 -0.286532 -0.223485 60.4306 22.4835 1.97461 -2.23904 -3.54934 -1.83467 0.04 
1111 1 1 0.695512 -0.636793 -0.962113 0 0 0 0.289935 0.362728 -0.21598 30.1109 -30.5447 112.745 -0.890698 0.946983 -0.406686 0.04 
1107 1 1 0.881511 -0.611276 -0.959021 0 0 0 0.134484 0.654542 0.181425 0 0 -6.57473 -6.55054 -2.8484 2.67313 0.04 
252 1 1 0.961884 -0.644004 -0.96016 0 0 0 -0.143802 0.547475 0.281889 -103.109 -4.64492 -4.00617 0.701124 -1.54099 0.0892677 0.04 
739 1 1 -0.872741 -0.561342 -0.960467 0 0 0 -0.187515 0.123969 -0.0671175 1.30769 -0.31474 20.3258 -2.20017 -0.905485 0.482088 0.04 
1142 1 1 -0.783606 -0.548773 -0.959503 0 0 0 0.0289122 0.377346 -0.270236 -5.37885 7.63835 -17.6495 -5.21553 1.09728 -0.455678 0.04 
833 1 1 -0.701471 -0.556734 -0.960457 0 0 0 -0.0142167 0.306782 0.0767325 -0.40955 -1.15388 17.9135 -5.28671 -1.21945 -4.5727 0.04 
620 1 1 -0.547329 -0.549172 -0.94774 0 0 0 0.263385 0.163692 -0.605492 0 0 -6.57473 2.40879 0.525012 5.99767 0.04 
344 1 1 -0.385041 -0.584821 -0.956673 0 0 0 0.4654 -0.0251596 -0.68745 5.385 -47.8026 -109.799 -6.15273 -2.982 4.05439 0.04 
1124 1 1 -0.256924 -0.55653 -0.957596 0 0 0 0.0531085 0.496512 -0.140711 23.7963 28.3489 -7.48825 -8.38904 0.932317 -2.90242 0.04 
868 1 1 -0.164 -0.534636 -0.960732 0 0 0 0.0155125 0.186534 -0.563684 26.5014 -21.3929 0.995525 -5.64506 0.802232 4.34762 0.04 
1271 1 1 -0.0649041 -0.547077 -0.951383 0 0 0 0.600882 0.0856829 -0.112485 0 0 -6.57473 -3.29143 -5.05695 1.09523 0.04 
1030 1 1 0.101114 -0.541983 -0.953949 0 0 0 0.0451806 0.364806 0.193607 -20.1786 9.98563 -5.46705 -7.22312 1.92677 -5.31305 0.04 
1346 1 1 0.171657 -0.577514 -0.961764 0 0 0 0.00866013 0.151934 0.0292979 32.4837 -6.28236 79.314 -4.44564 -0.718839 2.36392 0.04 
1148 1 1 0.249398 -0.55727 -0.957408 0 0 0 0.152709 0.00244239 0.691506 46.2055 -52.9295 -6.84109 -3.69777 1.58931 1.65007 0.04 
792 1 1 0.420238 -0.540892 -0.955115 0 0 0 -0.149527 0.493207 0.0214995 -3.00041 -6.07208 -6.30249 -8.06901 3.21353 -3.37207 0.04 
408 1 1 0.484055 -0.591434 -0.958077 0 0 0 -0.151174 -0.00542219 0.355027 0 0 -6.57473 -3.46171 -4.65288 0.459319 0.04 
1361 1 1 0.562564 -0.551476 -0.960602 0 0 0 -0.426141 0.324742 -0.200928 -0.783204 -0.704834 29.3586 -3.12665 -8.2027 -4.57905 0.04 
814 1 1 0.632267 -0.590024 -0.956054 0 0 0 0.279829 -0.0599198 0.272828 -32.0384 24.7321 -5.15023 -2.49425 -4.91785 3.47338 0.04 
771 1 1 0.959582 -0.551992 -0.959218 0 0 0 -0.263719 -0.259522 -0.0861456 6.20773 9.86275 -19.5359 -2.46033 1.68982 3.37401 0.04 
1055 1 1 -0.957692 -0.521411 -0.960336 0 0 0 -0.101279 0.30271 -0.0145426 -3.35252 -10.9623 -11.9268 -3.97736 -1.25042 0.617472 0.04 
326 1 1 -0.862868 -0.477069 -0.955066 0 0 0 0.00160171 0.300512 -0.0743928 0 0 -6.57473 -2.10136 -1.06899 -2.30669 0.04 
1246 1 1 -0.737307 -0.480894 -0.954867 0 0 0 0.073271 0.41745 -0.224742 0 0 -6.57473 -4.52537 -3.0432 4.73377 0.04 
613 1 1 -0.625808 -0.51541 -0.960253 0 0 0 0.00854982 0.686944 -0.374809 0.259249 -0.912367 12.395 3.96478 6.23596 2.74474 0.04 
230 1 1 -0.558902 -0.465748 -0.95975 0 0 0 0.148322 0.653771 0.0430072 0 0 -6.57473 -7.37941 3.85643 2.26087 0.04 
857 1 1 -0.475026 -0.508441 -0.958153 0 0 0 -0.12181 0.675135 -0.0101585 0 0 -6.57473 -6.56415 0.373789 -6.33675 0.04 
247 1 1 -0.331202 -0.524437 -0.944682 0 0 0 0.260857 0.414137 0.608557 0 0 -6.57473 -1.38591 -0.253266 6.3614 0.04 
1155 1 1 -0.267061 -0.4738 -0.951001 0 0 0 0.0117523 0.984671 -0.454616 15.7456 -8.68281 -7.01548 -0.268475 1.81515 2.49844 0.04 
1010 1 1 -0.102844 -0.475693 -0.951437 0 0 0 0.0546439 0.336065 -0.288483 0 0 -6.57473 -1.73164 2.49904 -0.883123 0.04 
1249 1 1 0.0130155 -0.511831 -0.960749 0 0 0 0.0240548 0.170156 -0.0340484 -2.10476 0.145784 35.6213 -4.38582 -0.746774 1.23362 0.04 
315 1 1 0.198526 -0.497973 -0.960959 0 0 0 0.626668 -0.389857 0.121564 -48.1113 54.6877 45.5509 -1.85339 3.12152 -2.11378 0.04 
772 1 1 0.327787 -0.518283 -0.960327 0 0 0 -0.0564487 1.03013 0.036618 5.62426 -15.5061 12.1368 -5.65503 -1.92381 -0.735372 0.04 
677 1 1 0.451969 -0.467712 -0.958679 0 0 0 -0.756013 0.601343 -0.123334 3.00041 6.07208 -6.84696 6.25554 -0.790748 5.35302 0.04 
1047 1 1 0.637852 -0.508857 -0.952224 0 0 0 -0.11169 0.0962044 0.241004 0 0 -6.57473 -3.77634 -2.11106 -0.570817 0.04 
840 1 1 0.786921 -0.476488 -0.947458 0 0 0 -0.0927474 0.20114 -0.0473807 3.16731 18.0575 -48.7403 -8.28225 -2.4472 1.71577 0.04 
9 1 1 0.869734 -0.513344 -0.960435 0 0 0 0.377863 0.101681 0.00127733 -1.08043 0.550183 17.6742 -5.84352 3.04219 -2.64356 0.04 
852 1 1 0.941126 -0.467941 -0.955078 0 0 0 -0.0148687 0.579211 0.0660921 0 0 -6.57473 -0.764411 3.83883 -1.25819 0.04 
982 1 1 -0.956301 -0.442128 -0.948531 0 0 0 0.126912 0.382622 -0.396469 0 0 -6.57473 0.914329 -2.47259 4.70168 0.04 
995 1 1 -0.888831 -0.400953 -0.935269 0 0 0 0.110246 0.365395 1.13736 0 0 -6.57473 -4.01057 0.352071 1.5226 0.04 
1215 1 1 -0.791942 -0.418075 -0.960539 0 0 0 0.0853647 0.394038 0.207638 -14.0473 -13.3804 20.1923 -10.2087 2.46417 6.51257 0.04 
969 1 1 -0.658547 -0.438911 -0.96011 0 0 0 0.071096 0.392837 -0.153751 -9.00324 -5.53064 -4.80915 -2.43545 -1.06147 1.47715 0.04 
978 1 1 -0.338405 -0.438776 -0.94784 0 0 0 -0.229687 0.155689 -0.220167 -15.7456 8.68281 -6.13397 -6.45347 0.459795 -2.62326 0.04 
168 1 1 -0.208919 -0.403014 -0.96097 0 0 0 -0.415264 0.802552 -0.574288 2.47313 -1.82496 54.8968 -12.1369 0.55508 -8.84915 0.04 
201 1 1 -0.0303718 -0.410737 -0.959762 0 0 0 0.086692 0.408813 0.174835 0 0 -6.57473 -4.19075 -1.36305 4.7629 0.04 
404 1 1 0.145844 -0.435005 -0.962063 0 0 0 0.075998 0.135121 0.657945 0.99097 -9.76989 88.1941 -4.33122 1.51146 3.96201 0.04 
1187 1 1 0.303144 -0.442549 -0.961893 0 0 0 0.00347084 0.241941 0.23512 -22.1843 12.7468 60.5086 -4.29274 -4.61861 2.76325 0.04 
981 1 1 0.548344 -0.453627 -0.959992 0 0 0 0.0029233 0.274744 -0.309514 0 0 -6.57473 -7.29849 -3.5228 -5.2751 0.04 
361 1 1 0.620379 -0.418411 -0.957812 0 0 0 -0.169938 0.246795 0.458103 -0.281626 -2.43582 -6.78383 -7.09348 -3.52147 -1.71674 0.04 
1474 1 1 0.705216 -0.464852 -0.961163 0 0 0 -0.274306 0.124667 -0.281318 0.950133 3.2888 61.8913 -6.99568 -5.84093 -4.83596 0.04 
657 1 1 -0.951391 -0.344586 -0.959408 0 0 0 0.103819 0.34632 0.133018 7.34667 -57.7365 -3.53999 -1.30945 2.22447 0.759688 0.04 
1279 1 1 -0.808367 -0.335983 -0.961232 0 0 0 0.114572 0.0702657 -0.167408 2.14392 2.81969 64.2689 -5.57659 5.79145 -3.61963 0.04 
76 1 1 -0.729163 -0.369177 -0.959713 0 0 0 -0.22554 0.0994798 -0.13722 29.8563 -67.0189 -71.2039 -2.67478 -6.09691 0.0868014 0.04 
905 1 1 -0.651664 -0.341859 -0.959681 0 0 0 0.0782695 -0.0257728 -0.24857 0 0 -6.57473 -2.99204 0.788843 -2.40072 0.04 
1037 1 1 -0.53384 -0.388129 -0.959499 0 0 0 -0.540912 0.817302 -0.575512 0 0 -6.57473 -7.86174 -1.55852 -0.674381 0.04 
116 1 1 -0.448382 -0.396965 -0.959076 0 0 0 0.360307 0.183081 0.0886194 0 0 -6.57473 -9.67743 0.744432 0.855225 0.04 
1205 1 1 -0.370353 -0.365538 -0.954788 0 0 0 -0.306251 0.150095 0.431319 10.7495 10.0505 -28.879 -9.69633 -2.23151 0.29128 0.04 
1451 1 1 -0.118413 -0.380102 -0.960146 0 0 0 -0.0551288 0.455152 -0.171814 0.101353 -0.508754 3.80031 -1.5419 0.583061 6.99687 0.04 
1378 1 1 0.0348031 -0.350594 -0.961587 0 0 0 0.118443 0.328767 -0.169919 -6.849 -35.1771 15.1071 -6.91034 1.89007 -1.82394 0.04 
1216 1 1 0.20409 -0.379809 -0.954451 0 0 0 -0.0673478 0.108415 0.110189 37.7543 -36.7705 -4.7757 -4.09045 0.335464 -1.49739 0.04 
780 1 1 0.285181 -0.364 -0.958545 0 0 0 -0.0994153 0.26895 0.139164 0 0 -6.57473 -7.56581 1.37172 -1.12224 0.04 
220 1 1 0.386736 -0.386403 -0.960156 0 0 0 -0.140827 0.385084 0.312202 -0.140961 0.305838 -1.91534 -10.1663 -3.53339 -5.60232 0.04 
309 1 1 0.504053 -0.388712 -0.938171 0 0 0 1.07843 0.130616 0.195065 0 0 -6.57473 -2.77586 -5.87166 -2.04678 0.04 
342 1 1 0.630014 -0.339806 -0.947091 0 0 0 0.0467186 0.29869 0.536567 0.281626 2.43582 -6.36562 -8.62349 3.23597 -1.44621 0.04 
764 1 1 0.703625 -0.381547 -0.93581 0 0 0 0.697101 -0.259999 -0.226277 0 0 -6.57473 7.32721 -0.67103 6.03358 0.04 
1163 1 1 0.78017 -0.346479 -0.955168 0 0 0 0.517287 0.613749 0.196334 -3.52054 -14.0815 -5.78815 -11.0406 -0.0153522 4.84611 0.04 
182 1 1 0.862367 -0.377463 -0.956007 0 0 0 -0.142301 0.592872 -0.426048 0 0 -6.57473 5.6567 0.11149 -3.71163 0.04 
975 1 1 0.950327 -0.386594 -0.959769 0 0 0 -0.307693 0.260584 0.155182 0.0860082 -6.06378 -22.8383 -5.69205 1.60286 7.81844 0.04 
1056 1 1 -0.88028 -0.308484 -0.937818 0 0 0 0.00766327 0.516815 0.0636592 -8.13892 -5.82681 -8.8388 1.56292 5.86637 -4.86663 0.04 
1286 1 1 -0.571896 -0.30624 -0.960284 0 0 0 0.173883 0.187745 0.227426 -0.59754 0.238149 6.29024 -6.2541 0.492649 -8.50592 0.04 
945 1 1 -0.43374 -0.307313 -0.960331 0 0 0 0.166921 0.730922 -0.305856 16.9621 9.14116 -3.18747 -6.78286 -1.742 -7.06441 0.04 
1063 1 1 -0.341867 -0.291022 -0.960308 0 0 0 -0.396726 0.133259 0.258504 5.45206 5.44548 -117.592 0.659952 -6.17332 6.02728 0.04 
1202 1 1 -0.262666 -0.300795 -0.961423 0 0 0 -0.584051 0.0386701 0.362863 11.8711 0.128009 68.2572 -2.62969 -8.85524 -2.76425 0.04 
128 1 1 -0.172574 -0.311251 -0.959989 0 0 0 -0.270779 0.245225 0.261741 0 0 -6.57473 -2.55705 -6.63351 -1.35854 0.04 
1348 1 1 -0.0574673 -0.316974 -0.959341 0 0 0 -0.253362 0.4323 -0.511741 -5.52778 7.88671 -18.5596 -9.02711 -3.76094 -1.33416 0.04 
807 1 1 0.0512391 -0.270434 -0.958742 0 0 0 0.154316 0.631263 -0.0419991 0 0 -6.57473 -3.04491 4.03075 0.677534 0.04 
1201 1 1 0.150062 -0.322834 -0.954753 0 0 0 0.0319533 0.534878 0.236536 -37.7543 36.7705 -8.37375 -5.55275 0.597134 4.73448 0.04 
1139 1 1 0.234282 -0.301013 -0.958675 0 0 0 0.484691 0.529503 -0.0581067 0 0 -6.57473 -1.91859 -5.98072 -3.66403 0.04 
1069 1 1 0.347378 -0.313157 -0.958067 0 0 0 -0.276145 0.487529 -0.717752 0 0 -6.57473 8.21775 1.79244 3.22607 0.04 
624 1 1 0.468533 -0.315798 -0.959882 0 0 0 0.0742409 -0.0502579 0.218232 0 0 -6.57473 -3.42505 7.26693 1.16643 0.04 
1336 1 1 0.796275 -0.268423 -0.957265 0 0 0 -0.361762 0.168343 -0.131055 3.52054 14.0815 -7.3613 -13.8758 0.703385 -9.09474 0.04 
915 1 1 0.957389 -0.304782 -0.959 0 0 0 0.159367 -0.256157 0.0136298 0 0 -6.57473 -1.255 -1.133 -6.20291 0.04 
1239 1 1 -0.958833 -0.266467 -0.960458 0 0 0 0.172788 0.0421952 0.133775 -8.12978 58.6309 14.1659 -4.67918 0.955916 2.49714 0.04 
328 1 1 -0.8967 -0.213891 -0.953841 0 0 0 0.0441543 0.4181 -0.020762 41.1422 -45.3024 -2.79411 -0.0628012 1.77352 3.85596 0.04 
1251 1 1 -0.750782 -0.239557 -0.955751 0 0 0 -0.010574 0.470634 0.0101343 -8.20376 10.7204 -15.0716 -8.96262 0.450466 2.34821 0.04 
283 1 1 -0.674192 -0.260063 -0.960765 0 0 0 -0.36297 0.630671 0.0515207 24.1383 -6.86076 34.9005 -5.88099 1.77651 1.32371 0.04 
1436 1 1 -0.574192 -0.214318 -0.949917 0 0 0 -0.0876483 0.735845 -0.163021 0 0 -6.57473 -1.70948 6.01095 -9.85707 0.04 
1328 1 1 -0.400279 -0.233618 -0.95821 0 0 0 -0.735835 -0.0862432 -1.44796 -14.9239 -4.16739 -5.94506 0.0108332 -0.0357564 1.12883 0.04 
1250 1 1 -0.324241 -0.210678 -0.957824 0 0 0 -0.124094 0.516541 -0.216197 -11.4915 -30.0495 -3.78609 -2.38255 -1.46548 -4.74362 0.04 
902 1 1 -0.0940107 -0.240865 -0.93606 0 0 0 -0.417831 0.211382 -0.257658 15.3907 47.3839 -36.7601 -2.58329 5.55548 -0.241652 0.04 
1276 1 1 -0.0147966 -0.214563 -0.96117 0 0 0 -0.186344 0.423241 0.550607 -5.84352 0.305114 41.8688 -11.1276 -5.76483 2.05288 0.04 
752 1 1 0.166377 -0.24313 -0.955301 0 0 0 0.0250946 0.796651 0.100487 0.92524 -99.1019 -4.56474 -1.20242 -0.187372 2.53951 0.04 
557 1 1 0.23305 -0.199899 -0.960145 0 0 0 -0.12675 0.669493 0.477155 13.3154 8.64216 -6.48024 -10.0524 -5.41964 -1.75824 0.04 
1475 1 1 0.389836 -0.244067 -0.942286 0 0 0 0.0142396 0.676836 0.293386 9.67995 -4.50892 -7.89111 -8.24609 -5.53241 2.47722 0.04 
1078 1 1 0.480714 -0.226623 -0.961931 0 0 0 -0.458251 0.310402 0.0477909 -55.3374 -23.3476 93.2906 -1.26927 -4.00096 0.587919 0.04 
13 1 1 0.55483 -0.202164 -0.956926 0 0 0 -0.00772481 0.466704 -0.507769 65.3139 18.1015 -3.58757 -6.5642 5.39379 -0.701556 0.04 
806 1 1 0.690316 -0.256681 -0.952407 0 0 0 -0.555618 -0.143869 0.331597 18.6975 7.30715 -45.8481 -6.31329 -4.81259 -1.75853 0.04 
1206 1 1 0.892805 -0.24375 -0.958995 0 0 0 -0.360215 0.821503 -0.462909 0 0 -6.57473 -4.22368 -0.2418 1.73586 0.04 
1324 1 1 -0.951756 -0.158527 -0.960339 0 0 0 -0.650697 -0.443372 -0.618018 -44.8187 3.83671 -27.5292 -4.02471 -2.2537 -1.84202 0.04 
1150 1 1 -0.608915 -0.133673 -0.95898 0 0 0 -0.153173 0.561015 -0.45424 -39.6799 3.28487 -20.2683 -3.66799 2.59054 -0.481642 0.04 
1192 1 1 -0.406795 -0.141766 -0.957348 0 0 0 -0.228394 0.210094 -0.237403 -0.625798 -20.465 -50.087 -0.384162 9.58332 -4.97202 0.04 
668 1 1 -0.278109 -0.146995 -0.960917 0 0 0 0.434647 0.876563 -0.106337 50.6705 11.2337 27.0357 0.176215 -3.64749 -0.932325 0.04 
295 1 1 -0.15304 -0.170984 -0.955531 0 0 0 -0.410513 0.318854 0.927522 0 0 -6.57473 -6.98874 -9.42858 -3.82307 0.04 
1102 1 1 -0.0634257 -0.142935 -0.956956 0 0 0 -0.136954 0.49234 0.236594 0 0 -6.57473 -6.3963 -5.20064 -0.610264 0.04 
232 1 1 0.0594559 -0.162487 -0.955874 0 0 0 -0.0374186 0.699033 -0.212137 0.375636 -0.0167164 -5.94916 -10.98 -3.1236 2.73558 0.04 
1012 1 1 0.155379 -0.166362 -0.959218 0 0 0 0.25996 0.109527 -0.765728 -14.27 90.3712 -6.8125 -0.431643 -7.03561 0.545306 0.04 
685 1 1 0.419311 -0.142476 -0.947538 0 0 0 -0.158334 -0.103231 0.133862 129.664 -48.8712 -4.15876 -4.29978 0.440177 -7.55548 0.04 
1096 1 1 0.496835 -0.153257 -0.932423 0 0 0 0.16375 0.230938 0.340776 0.33477 5.02743 -2.38404 -8.4348 -0.895294 -2.91813 0.04 
885 1 1 0.64148 -0.191918 -0.959497 0 0 0 0.302676 -0.105655 -0.349173 0 0 -6.57473 -6.54671 -3.41378 -0.201634 0.04 
627 1 1 0.746387 -0.194101 -0.958242 0 0 0 0.0222724 0.353641 0.0266589 0 0 -6.57473 -9.18381 0.565554 -1.07767 0.04 
1130 1 1 0.956521 -0.191194 -0.959608 0 0 0 -0.182191 0.265906 0.248445 0 0 -6.57473 -2.25984 -0.157419 -8.84213 0.04 
1238 1 1 -0.875082 -0.11109 -0.952329 0 0 0 0.41871 0.0991892 0.506065 0 0 -6.57473 2.89423 4.64721 -4.83088 0.04 
1160 1 1 -0.701675 -0.0935617 -0.958429 0 0 0 0.0358086 0.337487 -0.325036 0 0 -6.57473 -3.94225 1.18461 0.230144 0.04 
1403 1 1 -0.476555 -0.0840407 -0.956265 0 0 0 -0.0181627 0.0423624 -0.566485 32.3301 -44.6003 -70.9105 -4.64089 4.39174 1.95824 0.04 
1198 1 1 -0.189129 -0.0927347 -0.95868 0 0 0 0.0650602 0.536529 -0.0308602 0 0 -6.57473 -6.59134 -3.61709 -0.163865 0.04 
1304 1 1 -0.099375 -0.0694836 -0.953041 0 0 0 0.133755 -0.268333 -0.334276 6.37787 -0.239694 -15.4498 -8.38903 -7.81764 3.50888 0.04 
1240 1 1 0.01805 -0.0735173 -0.96063 0 0 0 -0.436459 0.210127 -0.515011 2.04366 -0.433827 35.2092 -0.545833 11.37 -8.04905 0.04 
906 1 1 0.101924 -0.0758125 -0.943944 0 0 0 0.380722 0.868436 0.0505626 0 0 -6.57473 -0.421586 0.448607 2.57208 0.04 
231 1 1 0.22294 -0.116029 -0.955566 0 0 0 0.331998 0.397826 -0.619058 0 0 -6.57473 -4.64966 1.39553 3.77374 0.04 
1126 1 1 0.346685 -0.119852 -0.950259 0 0 0 0.369511 0.00355076 0.0727195 -137.48 50.3647 -10.4886 -0.361087 0.838246 -9.79956 0.04 
864 1 1 0.576925 -0.12331 -0.960049 0 0 0 0.433706 0.0363678 0.141855 -0.0442236 -0.0108187 -5.66417 0.312079 5.85494 3.51637 0.04 
952 1 1 0.660639 -0.103924 -0.955926 0 0 0 0.691724 0.553339 -0.669234 -16.6455 2.01404 -4.79781 -3.3838 -5.37984 -5.56219 0.04 
1189 1 1 0.739806 -0.110938 -0.961272 0 0 0 0.170556 0.516396 0.10752 13.8934 -4.13335 61.1189 -7.87254 -2.60598 -3.64664 0.04 
1033 1 1 0.817832 -0.134966 -0.961197 0 0 0 -0.506845 -0.224835 -0.099892 11.1607 8.14571 44.8542 -5.50359 -2.35124 2.69996 0.04 
539 1 1 0.878475 -0.0731531 -0.955013 0 0 0 -0.737329 0.496592 -0.725427 10.9279 30.9444 -27.1479 -1.77537 -1.10969 5.78066 0.04 
1191 1 1 0.955164 -0.102818 -0.958101 0 0 0 -0.358312 -0.258673 0.147262 3.74168 -28.1507 -4.35888 -7.15548 -5.60115 -8.51124 0.04 
1371 1 1 -0.960703 -0.0595302 -0.963301 0 0 0 -0.124001 0.0976465 0.0872823 33.1483 45.1179 119.169 0.838717 -0.424 2.05999 0.04 
660 1 1 -0.817725 -0.0505596 -0.960192 0 0 0 0.292858 -0.00332282 0.82719 0.000102686 -0.000904146 -6.59292 1.61875 7.51522 1.5885 0.04 
1471 1 1 -0.650639 -0.0114516 -0.939486 0 0 0 -0.0893934 0.524419 0.190115 -5.09043 -14.2576 -21.0854 -5.60831 1.44496 3.27093 0.04 
1208 1 1 -0.558991 -0.064313 -0.962939 0 0 0 -0.00153318 0.0521899 0.246022 -2.62717 7.58635 153.993 -6.82773 -1.95662 -2.60521 0.04 
724 1 1 -0.496658 -0.000456409 -0.959619 0 0 0 -0.397696 0.992035 -0.832613 0 0 -6.57473 -8.89827 -6.83836 9.05245 0.04 
1235 1 1 -0.420586 -0.0275929 -0.956561 0 0 0 0.110053 0.80917 0.193385 10.0561 9.71315 -7.25709 -7.60987 -2.97402 -4.51242 0.04 
1095 1 1 -0.26494 -0.0639218 -0.95123 0 0 0 0.0433308 0.241873 -0.0289529 0 0 -6.57473 -1.80225 1.86502 0.37968 0.04 
1466 1 1 0.19236 -0.0329702 -0.959709 0 0 0 0.24104 -0.190805 -0.0630022 0 0 -6.57473 -5.60054 -0.994906 5.83391 0.04 