ITEM: TIMESTEP
11000
ITEM: NUMBER OF ATOMS
770
ITEM: BOX BOUNDS ff ff ff
-1 1
-1 1
-1 1
ITEM: ATOMS id type type x y z ix iy iz vx vy vz fx fy fz omegax omegay omegaz radius 
52 1 1 -0.309811 -0.802653 -0.94307 0 0 0 3.08304 3.65708 0.204429 0 0 -6.57473 10.6284 1.71001 -11.2266 0.04 
19 1 1 0.33119 -0.947136 -0.95934 0 0 0 0.579478 -3.05001 -0.57568 0 0 -6.57473 -27.7465 -4.66539 20.8635 0.04 
137 1 1 -0.752922 -0.763273 -0.953965 0 0 0 0.696655 -2.76843 -2.44892 0 0 -6.57473 9.35628 -12.2111 -9.4126 0.04 
180 1 1 -0.549623 -0.710802 -0.788276 0 0 0 -0.0588334 -1.19919 3.472 0 0 -6.57473 25.209 -1.39814 3.48857 0.04 
95 1 1 0.247874 -0.619776 -0.908712 0 0 0 0.105645 1.12436 0.490162 0 0 -6.57473 33.4656 10.135 -1.34726 0.04 
80 1 1 0.435248 -0.559947 -0.818596 0 0 0 -1.40899 -0.303796 1.5548 57.0405 -449.189 -221.139 -28.0842 -18.3602 -1.73074 0.04 
272 1 1 0.625624 -0.710469 -0.777387 0 0 0 -1.96903 -2.78401 3.24507 0 0 -6.57473 18.6989 -4.17289 21.2379 0.04 
92 1 1 -0.438858 -0.75156 -0.828921 0 0 0 -0.798046 -3.68276 2.12002 0 0 -6.57473 12.3542 19.6385 7.95273 0.04 
5 1 1 -0.772889 -0.689033 -0.906346 0 0 0 -1.7908 -4.09949 0.619502 0 0 -6.57473 -1.35966 -12.9236 -15.3291 0.04 
45 1 1 0.0780432 -0.393455 -0.953098 0 0 0 0.830958 1.6623 2.07467 0 0 -6.57473 9.23413 -10.1123 -0.38499 0.04 
578 1 1 0.488643 -0.765104 -0.781067 0 0 0 4.16904 -6.7437 2.58532 0 0 -6.57473 18.9174 -4.01632 -11.2381 0.04 
110 1 1 0.748921 -0.547255 -0.958216 0 0 0 -3.33298 0.96578 0.737513 0 0 -6.57473 4.03206 -5.85938 37.9164 0.04 
138 1 1 -0.51875 -0.439139 -0.942516 0 0 0 -1.57035 0.522708 0.786699 0 0 -6.57473 -5.0452 -8.17445 -1.97893 0.04 
34 1 1 -0.118646 -0.465277 -0.92874 0 0 0 0.198162 -2.01449 -1.66949 0 0 -6.57473 -3.30795 8.00393 5.3591 0.04 
37 1 1 -0.672044 -0.292619 -0.917295 0 0 0 1.69517 1.70419 0.844897 0 0 -6.57473 19.295 48.7074 -18.8195 0.04 
132 1 1 -0.592661 -0.355203 -0.866617 0 0 0 0.475798 0.100123 2.23151 0 0 -6.57473 -2.09018 17.9201 -0.49146 0.04 
35 1 1 -0.0073276 -0.314122 -0.873656 0 0 0 0.326923 0.655765 2.3977 0 0 -6.57473 -13.6604 6.44435 6.42627 0.04 
148 1 1 0.648584 -0.280859 -0.896783 0 0 0 3.39111 1.5717 1.31868 0 0 -6.57473 -3.31047 7.40379 11.9628 0.04 
219 1 1 0.90436 -0.327731 -0.854763 0 0 0 1.95381 0.868906 2.99286 0 0 -6.57473 -11.1125 15.7119 5.69051 0.04 
64 1 1 -0.30617 -0.329652 -0.921058 0 0 0 -1.14172 -2.14589 1.23929 0 0 -6.57473 21.262 -38.9221 -4.46382 0.04 
264 1 1 -0.699208 -0.146428 -0.822211 0 0 0 1.46126 -0.164159 2.8308 0 0 -6.57473 -2.51835 8.46552 -4.53954 0.04 
171 1 1 0.788115 -0.0785652 -0.835705 0 0 0 -0.837653 -0.0567649 3.49825 0 0 -6.57473 1.84677 -31.6719 -14.7575 0.04 
167 1 1 -0.845603 -0.0176316 -0.965866 0 0 0 -1.14801 -0.936445 1.14031 10.974 11.097 305.562 -9.122 3.01955 15.7737 0.04 
146 1 1 -0.750619 0.109052 -0.953143 0 0 0 3.30749 0.155715 -0.964807 0 0 -6.57473 12.6695 -0.0211121 -1.38661 0.04 
269 1 1 -0.929076 0.105155 -0.866251 0 0 0 1.82414 -0.682604 1.5153 0 0 -6.57473 -0.972274 -7.97675 -3.55142 0.04 
16 1 1 0.934753 0.171034 -0.873187 0 0 0 -0.365884 1.23093 1.33113 0 0 -6.57473 -12.757 -2.10945 -4.64329 0.04 
94 1 1 -0.145291 0.413633 -0.885537 0 0 0 -1.56417 3.92449 1.00129 0 0 -6.57473 25.5918 8.73205 -2.7846 0.04 
173 1 1 -0.789497 -0.938872 -0.839124 0 0 0 -0.126326 2.58097 1.15723 0 0 -6.57473 23.0376 -13.2774 -3.11758 0.04 
81 1 1 0.417654 -0.941358 -0.954677 0 0 0 3.32147 4.42738 0.482174 0 0 -6.57473 21.589 -11.277 -9.5711 0.04 
207 1 1 -0.506955 -0.830487 -0.849996 0 0 0 0.0081287 -0.932974 3.61979 0 0 -6.57473 25.8384 0.257826 -7.09851 0.04 
121 1 1 -0.41463 -0.814427 -0.75595 0 0 0 0.0028028 -0.975596 3.34085 0 0 -6.57473 25.5769 -0.130027 -1.39031 0.04 
213 1 1 -0.149629 -0.923088 -0.820047 0 0 0 2.76897 -3.43476 4.45071 0 0 -6.57473 16.0148 10.5595 6.49062 0.04 
87 1 1 0.496439 -0.869538 -0.852464 0 0 0 3.66772 -1.61205 0.747011 0 0 -6.57473 13.4642 32.8441 -10.2316 0.04 
85 1 1 -0.874795 -0.75891 -0.825824 0 0 0 2.23672 -0.668794 1.47274 0 0 -6.57473 9.35707 -33.8443 -12.214 0.04 
161 1 1 -0.0927207 -0.823636 -0.912517 0 0 0 -0.940333 -2.98257 2.72505 0 0 -6.57473 -1.47254 -19.0026 -3.9846 0.04 
31 1 1 0.271709 -0.703821 -0.841917 0 0 0 0.218705 0.833617 1.75133 0 0 -6.57473 11.4301 5.61454 10.7173 0.04 
182 1 1 0.833435 -0.639447 -0.958151 0 0 0 0.896701 -1.72629 -3.96723 0 0 -6.57473 -18.1136 -23.3248 -8.16211 0.04 
76 1 1 -0.141367 -0.731582 -0.733761 0 0 0 -0.674502 0.505915 3.41989 21.2078 151.082 62.5818 14.5828 -7.13227 1.85248 0.04 
73 1 1 -0.488637 -0.697695 -0.929596 0 0 0 -0.0958704 -3.11977 2.19881 0 0 -6.57473 6.58612 -8.08022 3.14753 0.04 
105 1 1 -0.360854 -0.698877 -0.965016 0 0 0 -1.41558 -2.7614 1.54294 5.49398 11.758 252.99 21.4638 -13.3788 -0.267835 0.04 
169 1 1 -0.126702 -0.743943 -0.925646 0 0 0 -1.82497 -1.95514 1.52802 0 0 -6.57473 13.3794 -13.8155 8.72298 0.04 
449 1 1 0.605251 -0.523582 -0.644764 0 0 0 0.978746 0.199835 4.80285 0 0 -6.57473 18.5416 26.2877 -16.7371 0.04 
260 1 1 -0.67094 -0.508669 -0.860584 0 0 0 0.896039 -2.91132 2.16411 23.064 -301.607 -446.328 23.4924 11.1723 -4.96021 0.04 
232 1 1 -0.306015 -0.537829 -0.871213 0 0 0 1.14634 -2.26674 3.76831 466.262 -120.314 -33.7916 13.0364 -20.74 -1.42122 0.04 
242 1 1 -0.174478 -0.593611 -0.869784 0 0 0 0.077471 -3.33652 0.261503 0 0 -6.57473 7.82094 -2.52227 2.03546 0.04 
30 1 1 -0.0409281 -0.588671 -0.943118 0 0 0 0.920349 -3.75961 0.951506 0 0 -6.57473 14.1819 -23.734 0.236522 0.04 
315 1 1 0.156423 -0.506081 -0.930429 0 0 0 -1.76681 -1.09014 -0.18732 0 0 -6.57473 -9.66509 -14.1279 -7.41025 0.04 
376 1 1 0.614464 -0.537325 -0.816664 0 0 0 -0.639365 -1.77497 1.56347 3.80703 5.48419 -3.25914 16.9984 0.42724 -6.1153 0.04 
373 1 1 -0.776994 -0.471905 -0.816846 0 0 0 0.255773 0.221602 -1.31255 0 0 -6.57473 26.1552 -10.8024 -16.9885 0.04 
143 1 1 0.341042 -0.520486 -0.89848 0 0 0 -3.24511 -2.08562 1.24829 0 0 -6.57473 1.83581 -12.7728 13.3638 0.04 
351 1 1 0.54659 -0.450505 -0.636986 0 0 0 1.14167 -1.10197 5.63957 0 0 -6.57473 -8.9737 12.7628 -25.7805 0.04 
194 1 1 0.645148 -0.514964 -0.950075 0 0 0 -3.13888 -3.90668 -2.40903 0 0 -6.57473 4.07762 29.7867 -0.855291 0.04 
145 1 1 0.198264 -0.156248 -0.89368 0 0 0 3.46387 2.98729 1.61234 0 0 -6.57473 -13.1025 14.4832 4.40325 0.04 
498 1 1 -0.769004 -0.0960609 -0.767009 0 0 0 -0.530262 3.58345 3.10255 0 0 -6.57473 -6.80726 -13.4725 -10.6562 0.04 
83 1 1 -0.3218 -0.121919 -0.72107 0 0 0 0.797618 1.73817 3.27065 0 0 -6.57473 -11.2313 22.1336 11.0724 0.04 
163 1 1 -0.365547 -0.0984298 -0.901585 0 0 0 -1.75138 2.72515 -0.518663 0 0 -6.57473 -13.6381 9.95724 -12.34 0.04 
102 1 1 -0.532794 -0.104207 -0.933139 0 0 0 0.953888 1.16802 1.52722 0 0 -6.57473 -8.82205 8.18158 -3.87437 0.04 
54 1 1 -0.178281 -0.255092 -0.947021 0 0 0 -2.17318 -1.79774 -1.40202 0 0 -6.57473 -40.4845 -4.39677 -11.9169 0.04 
153 1 1 -0.34418 0.097069 -0.912676 0 0 0 -3.54864 3.95975 -1.69068 0 0 -6.57473 -11.4894 -10.0248 -5.64775 0.04 
71 1 1 -0.006979 0.0736316 -0.970831 0 0 0 -0.541853 2.17659 -0.163213 13.2662 -27.2264 599.155 -15.0467 7.63969 3.14518 0.04 
129 1 1 -0.888233 -0.0753452 -0.928561 0 0 0 3.46876 -0.458889 -0.497454 0 0 -6.57473 3.5925 10.0445 -13.1158 0.04 
332 1 1 -0.544356 0.00711843 -0.935159 0 0 0 -0.0263769 2.69276 -2.05444 -161.515 113.335 -145.58 32.3788 27.966 -4.58475 0.04 
2 1 1 -0.913931 0.425886 -0.909011 0 0 0 0.965727 3.85851 2.63863 0 0 -6.57473 4.79883 1.00534 7.32943 0.04 
333 1 1 -0.489643 0.508587 -0.968168 0 0 0 1.57435 3.72697 -0.418463 -7.74368 -21.6893 454.029 22.9402 -1.40867 -7.63373 0.04 
9 1 1 0.702904 -0.871048 -0.775631 0 0 0 0.548408 2.96841 0.586599 0 0 -6.57473 25.478 21.731 -17.2172 0.04 
49 1 1 0.705952 -0.77226 -0.740918 0 0 0 0.740835 2.83511 2.48707 0 0 -6.57473 4.1402 -9.71545 24.7826 0.04 
255 1 1 0.190818 -0.929351 -0.875653 0 0 0 -3.59929 3.85839 0.999394 0 0 -6.57473 16.6895 -16.8129 23.7099 0.04 
192 1 1 0.205641 -0.718319 -0.586949 0 0 0 0.921803 1.07895 4.25554 0 0 -6.57473 -54.8247 1.61632 -25.8199 0.04 
159 1 1 0.721695 -0.764638 -0.922702 0 0 0 2.47227 1.38609 0.698386 0 0 -6.57473 29.8254 1.359 1.86495 0.04 
118 1 1 0.120226 -0.714511 -0.948424 0 0 0 -0.100675 -1.23133 -3.12014 0 0 -6.57473 -3.70338 8.08034 2.38711 0.04 
67 1 1 0.503388 -0.836905 -0.704478 0 0 0 -0.220959 -4.84228 2.30944 0 0 -6.57473 7.17363 3.25637 -21.424 0.04 
177 1 1 0.827684 -0.862612 -0.901011 0 0 0 0.134013 -5.13663 -2.23046 0 0 -6.57473 6.0623 -10.9863 -4.87264 0.04 
117 1 1 0.664904 -0.577675 -0.66359 0 0 0 2.64706 -1.13496 2.92069 0 0 -6.57473 22.9817 -1.27971 6.71766 0.04 
188 1 1 0.423937 -0.558251 -0.929206 0 0 0 1.01412 -2.16676 2.07797 0 0 -6.57473 19.7691 -7.36092 -6.51961 0.04 
116 1 1 -0.37057 -0.520606 -0.870733 0 0 0 0.873509 -1.59251 1.08146 -466.262 120.314 20.6422 5.93828 4.97965 -4.74341 0.04 
157 1 1 -0.083716 -0.5098 -0.860559 0 0 0 -0.235084 -1.59804 2.79108 0 0 -6.57473 -15.1993 -6.28154 4.14193 0.04 
235 1 1 0.0861085 -0.438762 -0.886312 0 0 0 0.977738 -0.935292 0.642411 0 0 -6.57473 6.06811 0.429641 4.87555 0.04 
174 1 1 0.828059 -0.437171 -0.86644 0 0 0 0.322749 0.270231 -1.47948 0 0 -6.57473 52.4866 -9.75416 -19.4191 0.04 
57 1 1 -0.346016 -0.398769 -0.769431 0 0 0 -1.56095 -0.809882 -2.3398 0 0 -6.57473 6.47597 32.7197 -0.231913 0.04 
200 1 1 -0.106165 -0.345836 -0.969317 0 0 0 0.157996 0.425156 1.74428 -16.8944 -18.1983 490.054 -13.8094 6.06613 3.08388 0.04 
27 1 1 -0.730992 -0.420448 -0.871765 0 0 0 1.59541 -2.63365 -1.08922 0 0 -6.57473 0.265332 21.9238 2.65044 0.04 
152 1 1 -0.538643 -0.232018 -0.777821 0 0 0 1.07479 1.84635 0.837567 0 0 -6.57473 -5.04779 -2.42248 5.45626 0.04 
111 1 1 -0.332371 -0.316116 -0.760395 0 0 0 -2.27664 -0.0376089 0.800058 136.712 -0.254222 -54.7508 21.4498 15.9868 3.93189 0.04 
189 1 1 0.32434 -0.214261 -0.85757 0 0 0 2.8019 0.328962 -1.07988 0 0 -6.57473 6.81682 15.9012 -2.12302 0.04 
28 1 1 0.815006 -0.234637 -0.803131 0 0 0 0.459874 -0.0865254 -0.478119 0 0 -6.57473 9.01175 4.79703 0.57409 0.04 
227 1 1 -0.197475 -0.112229 -0.961885 0 0 0 -0.0723721 1.22312 -3.79047 -0.440733 -7.69605 147.598 15.8359 -4.54205 7.5227 0.04 
201 1 1 -0.00400492 -0.219874 -0.962567 0 0 0 1.217 -0.658859 -3.07778 -7.60236 5.08733 176.375 -0.028911 5.93201 -1.7596 0.04 
337 1 1 0.968077 -0.151693 -0.905678 0 0 0 -0.929173 0.732853 -2.15562 -438.061 -5.44473 14.6408 -0.637095 -5.93672 -6.54542 0.04 
244 1 1 -0.100026 -0.0443465 -0.963858 0 0 0 -1.11909 1.0152 3.67365 50.3799 166.097 -128.025 -19.6722 -21.0914 5.55006 0.04 
277 1 1 0.175231 -0.172636 -0.76796 0 0 0 -3.89079 -1.34853 0.58293 0 0 -6.57473 -13.361 -21.159 -2.40903 0.04 
271 1 1 0.561183 -0.134776 -0.917449 0 0 0 -1.14163 0.96661 2.59552 139.261 327.729 -347.377 4.41011 -28.1753 -10.0984 0.04 
119 1 1 -0.958821 0.139656 -0.799496 0 0 0 0.369193 3.05413 0.497687 0 0 -6.57473 -2.4377 17.1622 3.28376 0.04 
262 1 1 -0.817797 0.120423 -0.843382 0 0 0 -0.846573 4.0862 1.59832 0 0 -6.57473 -29.6403 -13.7844 21.0408 0.04 
304 1 1 0.597686 0.117318 -0.950469 0 0 0 -5.5066 1.75211 1.12908 0 0 -6.57473 -30.0271 -2.11175 -1.15777 0.04 
113 1 1 0.472654 0.22767 -0.66378 0 0 0 0.156249 2.66543 3.01437 0 0 -6.57473 -7.71172 -1.59541 1.57002 0.04 
476 1 1 0.766406 0.171248 -0.873463 0 0 0 2.59419 2.70529 4.47998 0 0 -6.57473 -10.361 -19.6432 -9.1372 0.04 
197 1 1 -0.82541 0.163798 -0.953719 0 0 0 1.3166 1.84102 -1.9476 0 0 -6.57473 -13.234 10.757 8.35341 0.04 
107 1 1 -0.905249 0.277616 -0.919411 0 0 0 1.19373 1.58959 -2.04414 -17.5144 55.4166 -107.872 10.0619 -4.53599 1.32429 0.04 
98 1 1 -0.920539 0.383977 -0.782927 0 0 0 -2.31192 -0.470711 -2.19363 0 0 -6.57473 -12.8213 25.2365 -2.52674 0.04 
55 1 1 -0.289902 -0.91019 -0.728546 0 0 0 -3.30462 -0.97109 -0.588379 0 0 -6.57473 11.8546 15.9036 4.78143 0.04 
79 1 1 0.873426 -0.865428 -0.67657 0 0 0 2.2437 -1.27765 1.16375 0 0 -6.57473 10.7528 1.2359 -1.39219 0.04 
230 1 1 -0.630366 -0.87178 -0.621736 0 0 0 0.614263 -2.68862 2.65937 0 0 -6.57473 18.838 0.770472 -3.66615 0.04 
26 1 1 -0.748649 -0.730877 -0.776892 0 0 0 1.3124 -2.0413 2.51317 0 0 -6.57473 10.5297 14.5019 -18.1876 0.04 
282 1 1 -0.374031 -0.589795 -0.938625 0 0 0 -0.614584 -1.62286 -4.14458 0 0 -6.57473 -11.6196 -1.60769 9.41816 0.04 
103 1 1 0.0669289 -0.643378 -0.812449 0 0 0 -2.10209 -1.65847 -3.40547 0 0 -6.57473 -8.12871 -22.7731 -2.43858 0.04 
222 1 1 0.268997 -0.534313 -0.842415 0 0 0 -3.71108 -0.00380008 -1.36042 0 0 -6.57473 -4.8205 -1.46706 7.91616 0.04 
298 1 1 0.750345 -0.645066 -0.969042 0 0 0 0.733511 -2.22008 4.47942 -5.64256 21.5664 439.271 15.8624 8.52196 -2.37211 0.04 
72 1 1 -0.709643 -0.550693 -0.76902 0 0 0 3.19548 -4.15572 -0.019758 0 0 -6.57473 12.3064 7.32493 4.41301 0.04 
354 1 1 0.0284734 -0.494061 -0.662494 0 0 0 0.830944 -0.940658 1.62386 0 0 -6.57473 -13.4731 5.66934 6.34204 0.04 
286 1 1 -0.139568 -0.373303 -0.887358 0 0 0 -0.0974707 1.5507 -0.659385 4.83549 9.04072 -15.2865 -6.95568 0.107259 3.33359 0.04 
238 1 1 0.0761362 -0.25983 -0.722125 0 0 0 -1.04773 0.178881 -3.78326 0 0 -6.57473 15.0502 10.0728 -16.2982 0.04 
349 1 1 0.216877 -0.30954 -0.933884 0 0 0 0.390563 -0.38989 -3.96784 0 0 -6.57473 2.24851 0.731534 -2.80855 0.04 
589 1 1 0.82489 -0.349332 -0.880871 0 0 0 1.42355 0.0634826 -1.49753 0 0 -6.57473 -15.0739 20.9282 -12.8863 0.04 
17 1 1 0.953367 -0.441374 -0.708955 0 0 0 -3.01527 -2.0234 1.27135 0 0 -6.57473 26.7573 26.4526 29.6288 0.04 
415 1 1 -0.783405 -0.355519 -0.957033 0 0 0 2.62094 -2.59701 -4.56241 0 0 -6.57473 4.07578 11.6628 -10.5154 0.04 
572 1 1 -0.566799 -0.273517 -0.860365 0 0 0 -0.0523443 -0.837747 6.62023 0 0 -6.57473 22.4779 -0.143145 -9.35779 0.04 
13 1 1 -0.405226 -0.318561 -0.737699 0 0 0 -1.21924 -2.22346 -0.767372 -136.712 0.254222 41.6013 -9.22895 8.43568 0.5074 0.04 
204 1 1 0.54096 -0.181045 -0.873688 0 0 0 -3.55071 -0.443216 -1.57519 -139.261 -327.729 334.227 4.00969 -14.8233 -0.590975 0.04 
127 1 1 -0.886001 -0.0408112 -0.773176 0 0 0 1.5532 1.88111 -0.539034 0 0 -6.57473 1.31614 -3.37454 22.6454 0.04 
291 1 1 0.823605 -0.0876816 -0.731487 0 0 0 0.928483 2.13783 0.892047 0 0 -6.57473 -2.80504 11.4801 -12.2568 0.04 
58 1 1 0.918983 -0.169769 -0.640775 0 0 0 -0.183639 -0.118128 1.96884 0 0 -6.57473 32.184 -19.1387 -0.537718 0.04 
97 1 1 -0.015806 0.0348935 -0.885484 0 0 0 0.473419 2.23089 -0.139001 0 0 -6.57473 18.9575 2.58947 -8.23954 0.04 
401 1 1 0.262491 0.0976473 -0.695672 0 0 0 -0.924208 4.04566 1.99164 0 0 -6.57473 12.765 18.093 -21.6482 0.04 
447 1 1 0.487804 0.0230217 -0.690876 0 0 0 -1.46349 2.11217 0.781699 0 0 -6.57473 31.2555 18.5712 5.55989 0.04 
364 1 1 0.715078 -0.0112786 -0.941895 0 0 0 -0.503209 1.4242 -3.76168 0 0 -6.57473 -25.7496 -26.2147 28.5022 0.04 
280 1 1 0.873667 -0.00275637 -0.675174 0 0 0 -3.63933 2.54503 -0.275248 0 0 -6.57473 9.20651 37.5924 -22.1727 0.04 
206 1 1 -0.836867 -0.0993089 -0.867847 0 0 0 1.29879 -0.701125 -1.94995 20.8636 70.8042 -19.7122 9.74445 1.22899 -2.64942 0.04 
237 1 1 -0.299404 -0.0330333 -0.617949 0 0 0 3.18663 -0.127174 1.36246 9.20292 13.3787 -2.86395 -1.74674 3.7004 -10.193 0.04 
190 1 1 -0.149643 -0.032696 -0.811589 0 0 0 1.65791 0.0474598 -0.0241189 0 0 -6.57473 8.36509 10.4378 -3.6053 0.04 
62 1 1 0.697194 0.122515 -0.91742 0 0 0 1.44658 1.92493 0.717623 0 0 -6.57473 48.1665 21.5364 -14.9207 0.04 
359 1 1 0.0691105 0.129197 -0.921059 0 0 0 3.15345 4.48462 -1.42546 0 0 -6.57473 -9.10535 13.6355 -12.1642 0.04 
136 1 1 -0.403988 0.544532 -0.864738 0 0 0 3.45599 3.96638 -1.3356 0 0 -6.57473 -10.5406 1.63948 16.691 0.04 
15 1 1 0.311391 0.490862 -0.819732 0 0 0 -2.88661 2.55453 -0.939038 0 0 -6.57473 5.23043 -22.7048 4.38371 0.04 
379 1 1 -0.878152 -0.837004 -0.726986 0 0 0 -1.21442 5.17241 -0.152569 187.093 -102.497 -43.1112 7.61978 -4.36225 27.1032 0.04 
252 1 1 0.597909 -0.799571 -0.892015 0 0 0 -0.190765 -1.21788 -4.1564 0 0 -6.57473 -0.881706 0.0474251 -3.88344 0.04 
323 1 1 -0.32437 -0.757861 -0.878067 0 0 0 0.286978 -1.22787 -4.23146 0 0 -6.57473 -2.91672 -1.23434 2.27148 0.04 
209 1 1 -0.204568 -0.710966 -0.828515 0 0 0 0.59822 -2.2336 -3.42582 0 0 -6.57473 3.77949 2.25243 4.11278 0.04 
243 1 1 0.127202 -0.646362 -0.735099 0 0 0 0.630267 -0.228137 1.56199 0 0 -6.57473 -18.7444 11.0584 14.5689 0.04 
50 1 1 -0.571295 -0.700697 -0.600474 0 0 0 3.56226 -2.50798 1.61583 0 0 -6.57473 4.85618 18.0936 4.32291 0.04 
210 1 1 0.575286 -0.594955 -0.855658 0 0 0 1.26343 0.0311966 -2.44612 -3.80703 -5.48419 -9.89031 -3.6525 2.60093 5.39864 0.04 
309 1 1 0.788426 -0.609302 -0.833112 0 0 0 -2.06967 0.178567 3.24146 0 0 -6.57473 16.7515 -13.8233 8.45135 0.04 
205 1 1 -0.480963 -0.581159 -0.851286 0 0 0 -0.810614 -1.11472 -3.88326 0 0 -6.57473 0.0972414 -1.17657 -5.18082 0.04 
181 1 1 -0.911039 -0.412733 -0.880463 0 0 0 1.17036 -0.178689 -3.29643 0 0 -6.57473 -0.491086 12.6133 2.876 0.04 
253 1 1 0.426519 -0.499253 -0.793039 0 0 0 -2.55503 0.49244 -1.25653 -57.0405 449.189 207.99 -0.396139 -8.4633 5.89055 0.04 
225 1 1 0.613215 -0.418029 -0.579061 0 0 0 0.346131 -0.213618 1.37573 -243.75 -32.2395 -195.187 25.7553 -17.1155 -9.62286 0.04 
170 1 1 -0.51149 -0.369921 -0.701481 0 0 0 -1.0241 -0.173343 -0.712112 0 0 -6.57473 -13.1337 13.4219 -9.79997 0.04 
88 1 1 -0.575048 -0.223545 -0.678644 0 0 0 -0.433277 2.75795 -1.05273 0 0 -6.57473 8.07114 -7.22411 10.2916 0.04 
221 1 1 -0.435167 -0.174933 -0.884346 0 0 0 1.00658 1.43462 -3.8427 0 0 -6.57473 -2.20061 2.32849 -3.52526 0.04 
355 1 1 0.512493 -0.334007 -0.860518 0 0 0 -0.879014 -2.43762 -3.39071 0 0 -6.57473 -20.9756 9.92786 5.47266 0.04 
191 1 1 0.760208 -0.224112 -0.580357 0 0 0 -1.2307 -0.265242 2.17014 0 0 -6.57473 16.7483 4.17438 -1.95088 0.04 
312 1 1 -0.861031 -0.172747 -0.857195 0 0 0 -0.038915 -0.154514 -4.06309 -20.8636 -70.8042 6.56276 0.450799 -0.201481 -0.406437 0.04 
32 1 1 -0.566777 -0.127127 -0.790209 0 0 0 -1.78364 0.329293 -2.5956 0 0 -6.57473 7.48547 29.4642 7.3769 0.04 
247 1 1 -0.224426 -0.143454 -0.846326 0 0 0 -0.631081 0.127283 -2.18133 0 0 -6.57473 5.77453 -2.22939 3.34775 0.04 
297 1 1 -0.108437 -0.0835865 -0.904119 0 0 0 0.375884 -0.662126 -4.01145 -42.9369 -169.91 282.132 3.06639 2.93625 -1.65147 0.04 
383 1 1 0.0293807 -0.193634 -0.493365 0 0 0 -3.75432 -0.928809 4.11401 0 0 -6.57473 -0.396899 45.7045 -11.606 0.04 
555 1 1 -0.633372 -0.0800062 -0.901053 0 0 0 2.13465 -1.65201 -2.91384 0 0 -6.57473 -6.04842 16.3377 -13.9086 0.04 
389 1 1 -0.497411 -0.0299167 -0.894724 0 0 0 4.09835 -2.21124 -0.214053 161.515 -113.335 132.431 8.191 6.32266 -13.2255 0.04 
198 1 1 0.684148 0.176924 -0.632828 0 0 0 2.13317 4.7118 1.05136 0 0 -6.57473 -11.8139 15.2152 -5.81586 0.04 
141 1 1 0.935757 0.0866223 -0.553079 0 0 0 2.3325 2.19439 3.26764 0 0 -6.57473 -17.4736 4.63546 -1.13949 0.04 
236 1 1 -0.494488 0.163055 -0.955183 0 0 0 1.75109 1.06429 -5.06163 0 0 -6.57473 5.43907 -1.66084 1.40038 0.04 
329 1 1 -0.948882 0.195576 -0.907041 0 0 0 -0.215814 -0.472401 -3.91184 0 0 -6.57473 5.04648 -0.134959 -1.99072 0.04 
493 1 1 0.0288202 0.278072 -0.9292 0 0 0 -0.60455 2.07442 -4.4105 0 0 -6.57473 -25.6243 14.2462 -21.4276 0.04 
343 1 1 -0.895125 0.237902 -0.854259 0 0 0 0.226283 0.0155754 -3.69119 17.5144 -55.4166 94.7227 1.3719 -0.849187 -0.372156 0.04 
135 1 1 -0.440837 0.36463 -0.591255 0 0 0 0.661755 2.95378 1.76396 0 0 -6.57473 18.6763 -2.3107 18.8046 0.04 
263 1 1 0.788879 0.705524 -0.814332 0 0 0 0.259506 4.66169 -2.57025 0 0 -6.57473 -6.24788 4.33841 0.738234 0.04 
461 1 1 0.92248 -0.573972 -0.645774 0 0 0 1.12248 6.59067 -1.7196 0 0 -6.57473 16.9109 18.9559 -47.398 0.04 
218 1 1 -0.149436 -0.797667 -0.767819 0 0 0 1.15749 -0.0917537 -3.10348 -21.2078 -151.082 -75.7313 -1.79102 7.18244 1.9843 0.04 
342 1 1 0.485624 -0.713693 -0.624544 0 0 0 3.21821 -1.23569 -0.123448 0 0 -6.57473 2.02574 14.3944 -0.0253163 0.04 
229 1 1 0.65991 -0.847004 -0.915107 0 0 0 -2.49761 -6.0776 -3.8067 0 0 -6.57473 -17.5291 -10.1743 13.535 0.04 
293 1 1 0.904223 -0.606848 -0.558618 0 0 0 -2.59467 -2.53439 1.811 0 0 -6.57473 19.4247 9.58904 18.1037 0.04 
281 1 1 -0.86385 -0.501891 -0.713891 0 0 0 1.04135 -1.99528 -2.7706 0 0 -6.57473 -6.06427 11.8513 -2.21797 0.04 
313 1 1 -0.674383 -0.468832 -0.80822 0 0 0 0.311146 0.191845 -2.61622 -23.064 301.607 433.178 -3.39304 -0.47643 -1.84975 0.04 
314 1 1 -0.521379 -0.454263 -0.845657 0 0 0 -0.302319 -0.463905 -4.16233 0 0 -6.57473 2.24766 -1.42541 -0.0670157 0.04 
168 1 1 -0.278771 -0.477021 -0.459826 0 0 0 -0.732317 0.514427 3.55911 0 0 -6.57473 8.80928 2.45259 -0.594656 0.04 
86 1 1 0.1648 -0.485197 -0.658959 0 0 0 -1.20459 -1.56423 -2.93939 0 0 -6.57473 6.3544 18.1789 6.97826 0.04 
241 1 1 -0.641529 -0.33968 -0.731101 0 0 0 1.46986 -0.0688739 -2.01869 0 0 -6.57473 -4.42166 5.56634 2.12098 0.04 
258 1 1 -0.167934 -0.429728 -0.838505 0 0 0 0.864811 -0.997226 -4.73165 -4.83549 -9.04072 2.13709 -1.83063 -0.877417 2.02977 0.04 
234 1 1 -0.510112 -0.243764 -0.539749 0 0 0 -1.71703 0.57346 1.72405 0 0 -6.57473 -15.3997 -6.37362 -3.32346 0.04 
352 1 1 -0.949246 -0.312554 -0.676197 0 0 0 0.762103 -1.36353 -0.435012 -30.0202 18.6392 -25.6146 -6.76076 -5.94791 -10.103 0.04 
245 1 1 -0.346183 -0.0945442 -0.637133 0 0 0 0.218134 2.86341 0.561483 -9.20292 -13.3787 -10.2855 -13.2007 5.94871 7.94223 0.04 
432 1 1 0.117283 -0.222305 -0.910853 0 0 0 -0.75639 -0.953582 -5.33198 0 0 -6.57473 4.63979 -0.35508 3.81527 0.04 
300 1 1 0.457502 -0.161132 -0.84236 0 0 0 0 0 -4.06539 0 0 -6.57473 0 0 0 0.04 
292 1 1 -0.500871 -0.0713207 -0.79963 0 0 0 -2.40597 0.60573 -4.03159 0 0 -6.57473 -20.6614 5.81152 -3.51122 0.04 
529 1 1 0.812182 -0.0903407 -0.648287 0 0 0 3.57579 -0.0970347 -0.0746262 0 0 -6.57473 -23.5243 19.5519 -10.5333 0.04 
346 1 1 -0.0225787 -0.0567163 -0.787002 0 0 0 1.03652 0.115252 -3.9684 0 0 -6.57473 -12.1397 2.46281 5.86349 0.04 
42 1 1 0.743839 -0.926228 -0.449684 0 0 0 0.573502 2.65478 2.54287 0 0 -6.57473 39.1821 3.83997 -4.11881 0.04 
231 1 1 0.873439 -0.893493 -0.313078 0 0 0 -0.973286 -1.14724 4.25835 0 0 -6.57473 10.9436 8.3307 6.53233 0.04 
239 1 1 -0.944864 -0.804023 -0.716358 0 0 0 0.658804 -1.75395 -3.70553 -187.093 102.497 29.9618 -0.770893 7.35193 -5.62618 0.04 
287 1 1 -0.732446 -0.561091 -0.645549 0 0 0 0.613351 -2.391 0.424039 0 0 -6.57473 10.2161 -4.35633 -7.10421 0.04 
341 1 1 0.264545 -0.414973 -0.754486 0 0 0 -0.0559388 -0.263634 -3.81919 0 0 -6.57473 0.00113462 1.32092 -1.81676 0.04 
456 1 1 -0.887196 -0.347609 -0.640853 0 0 0 -0.522455 0.582271 -3.37207 30.0202 -18.6392 12.4651 5.7518 7.61684 -10.9106 0.04 
454 1 1 -0.308996 -0.517796 -0.718403 0 0 0 3.5073 -3.79712 -2.25928 0 0 -6.57473 2.90558 12.8833 -5.03571 0.04 
289 1 1 -0.231578 -0.388648 -0.6471 0 0 0 1.09266 -1.21722 1.15781 -167.459 -215.697 -94.6637 -4.32774 19.5279 8.20218 0.04 
339 1 1 -0.114363 -0.365075 -0.729639 0 0 0 0.7219 0.0980801 -3.4185 25.451 1.74111 -41.6362 -0.65043 -2.12202 1.42598 0.04 
344 1 1 -0.0283231 -0.367269 -0.763119 0 0 0 0 0 -3.86944 0 0 -6.57473 0 0 0 0.04 
353 1 1 0.312324 -0.328152 -0.428975 0 0 0 -2.60841 1.41175 -0.274814 0 0 -6.57473 31.9112 -2.06939 5.68525 0.04 
284 1 1 0.187678 -0.307015 -0.689602 0 0 0 0.553946 -0.163998 -2.92973 0 0 -6.57473 5.1512 -2.65716 -1.69385 0.04 
319 1 1 -0.652461 -0.200931 -0.725156 0 0 0 -0.374553 -0.426362 -3.73008 0 0 -6.57473 -2.77773 -2.01296 1.85797 0.04 
156 1 1 0.246552 -0.166693 -0.432848 0 0 0 -1.34973 -1.10352 1.87412 0 0 -6.57473 -0.864964 19.161 5.16897 0.04 
276 1 1 -0.35384 0.122985 -0.605714 0 0 0 3.73714 2.79236 -1.19584 0 0 -6.57473 -12.7279 -13.1802 -13.7478 0.04 
358 1 1 0.325873 -0.00508506 -0.772856 0 0 0 -1.25247 0.0894705 -3.74108 0 0 -6.57473 1.215 9.70892 1.41334 0.04 
468 1 1 0.415603 0.00439059 -0.851988 0 0 0 -0.642229 0.241059 -5.58126 0 0 -6.57473 7.97386 -2.2195 -2.83983 0.04 
288 1 1 0.203309 0.0603123 -0.445912 0 0 0 1.31176 0.1275 2.1053 0 0 -6.57473 8.13117 33.2236 -12.5871 0.04 
377 1 1 0.814761 0.163857 -0.763724 0 0 0 1.19821 1.53608 -4.13677 0 0 -6.57473 -19.0888 12.3932 6.72014 0.04 
296 1 1 0.143589 0.417531 -0.640357 0 0 0 2.13153 2.67965 -1.72871 0 0 -6.57473 -14.6276 11.594 -4.1191 0.04 
303 1 1 -0.813177 0.409819 -0.676213 0 0 0 2.54726 0.687822 1.40595 0 0 -6.57473 -1.64921 15.0498 -1.15307 0.04 
208 1 1 0.44034 -0.91178 -0.589101 0 0 0 0.506737 3.68976 -1.90918 0 0 -6.57473 -32.8498 -5.77537 -8.92135 0.04 
246 1 1 -0.904922 -0.716242 -0.515497 0 0 0 1.07187 -1.51989 -0.697279 0 0 -6.57473 12.3489 6.31158 -1.51126 0.04 
301 1 1 0.0376115 -0.597402 -0.675072 0 0 0 -0.424646 -1.13784 -3.7176 0 0 -6.57473 -1.18165 1.03939 -3.35891 0.04 
220 1 1 0.919049 -0.740214 -0.538396 0 0 0 -0.365641 -3.98272 -0.370825 0 0 -6.57473 9.13917 -6.44715 -1.972 0.04 
328 1 1 -0.826269 -0.492055 -0.622323 0 0 0 1.40428 -1.48934 -1.71242 0 0 -6.57473 -0.0728797 -0.510412 1.29174 0.04 
391 1 1 0.103818 -0.429175 -0.709294 0 0 0 -0.224701 -0.511105 -4.27399 0 0 -6.57473 1.08464 1.92384 -1.80086 0.04 
151 1 1 0.493424 -0.509311 -0.667285 0 0 0 0.189254 -1.51218 -3.09248 0 0 -6.57473 -25.1415 -25.3855 8.74563 0.04 
147 1 1 0.868558 -0.462954 -0.582474 0 0 0 -1.05545 0.298215 -1.44069 0 0 -6.57473 -6.67571 -8.45722 -3.14295 0.04 
285 1 1 -0.163816 -0.36725 -0.668015 0 0 0 1.4384 0.1466 -4.25244 161.886 55.2415 -18.8822 1.75399 7.17245 -0.718601 0.04 
395 1 1 0.945537 -0.389328 -0.642763 0 0 0 -0.616512 -0.524355 -3.73034 0 0 -6.57473 0.733666 -1.6848 -1.04337 0.04 
290 1 1 -0.747299 -0.368369 -0.729253 0 0 0 -0.690486 -1.35661 -4.09683 0 0 -6.57473 4.18937 -2.29767 4.14989 0.04 
320 1 1 -0.60048 -0.389825 -0.611361 0 0 0 -0.908006 -2.92818 -0.128198 0 0 -6.57473 11.7239 -0.477832 2.51048 0.04 
330 1 1 -0.108561 -0.257844 -0.722711 0 0 0 0.0222847 -0.521776 -4.76668 2.7375 1.10763 -5.49154 0.256134 -1.66293 -2.86321 0.04 
318 1 1 -0.0374171 -0.230424 -0.698779 0 0 0 0.314234 0.088295 -3.4788 -2.7375 -1.10763 -7.65791 4.23815 2.36224 7.44443 0.04 
325 1 1 0.101493 -0.245849 -0.594478 0 0 0 0.517303 0.422217 1.54097 0 0 -6.57473 -4.22612 6.50294 -3.96001 0.04 
295 1 1 0.921456 -0.253525 -0.643488 0 0 0 0.193018 -0.0906296 -3.49845 0 0 -6.57473 -0.564317 -0.244486 0.54839 0.04 
199 1 1 0.959442 -0.0546689 -0.630083 0 0 0 -0.698083 -0.278303 -0.497856 0 0 -6.57473 2.28099 -2.6845 -0.405427 0.04 
368 1 1 -0.468328 -0.0287664 -0.671326 0 0 0 -2.5912 -0.0960883 -2.85919 0 0 -6.57473 5.55085 -11.4851 0.0195161 0.04 
357 1 1 0.00400116 0.0121542 -0.673297 0 0 0 1.27083 0.828015 -4.36081 0 0 -6.57473 3.06971 -0.631696 3.92749 0.04 
580 1 1 0.0541955 0.0344849 -0.739976 0 0 0 0.333196 0.0889296 -5.15197 0 0 -6.57473 -9.48824 9.2853 -9.04226 0.04 
24 1 1 -0.38092 0.0734854 -0.465507 0 0 0 -3.93097 0.95936 -1.8478 0 0 -6.57473 70.1038 25.6189 23.6739 0.04 
347 1 1 -0.955897 0.155671 -0.663814 0 0 0 0.254421 0.033832 -3.5912 0 0 -6.57473 -0.131384 0.871068 0.378778 0.04 
124 1 1 0.48414 0.312083 -0.452141 0 0 0 -2.22507 1.29579 1.09819 0 0 -6.57473 0.748191 -15.0646 6.77275 0.04 
63 1 1 -0.72961 0.459694 -0.508549 0 0 0 -3.76487 3.73049 -0.0905744 0 0 -6.57473 31.9273 36.112 8.79901 0.04 
61 1 1 0.126957 -0.727155 -0.689027 0 0 0 -1.11996 4.23789 -6.1116 0 0 -6.57473 -74.6627 -15.1141 6.83685 0.04 
38 1 1 -0.777558 -0.867775 -0.366431 0 0 0 -4.08771 -1.47577 1.1922 0 0 -6.57473 -1.1018 39.2569 -17.8784 0.04 
60 1 1 0.427397 -0.62025 -0.29529 0 0 0 -0.208631 -0.379793 3.00552 0 0 -6.57473 28.4105 8.88283 3.02466 0.04 
375 1 1 -0.348273 -0.591625 -0.61305 0 0 0 -1.6679 -2.17296 -3.14172 0 0 -6.57473 3.65534 -3.78967 -1.08403 0.04 
433 1 1 -0.42873 -0.519123 -0.639874 0 0 0 0.656392 -1.85988 -4.13429 0 0 -6.57473 1.99342 1.44058 9.35995 0.04 
404 1 1 0.213126 -0.457231 -0.547048 0 0 0 0.751544 -0.238796 0.320554 0 0 -6.57473 -11.0666 -0.12321 3.64569 0.04 
418 1 1 -0.804784 -0.343787 -0.557752 0 0 0 2.06797 0.35422 -1.41397 0 0 -6.57473 5.95854 -6.66655 -2.94702 0.04 
294 1 1 -0.73335 -0.397568 -0.583722 0 0 0 0.114481 -0.244001 -3.09154 0 0 -6.57473 -3.73089 -3.44965 1.06493 0.04 
382 1 1 0.00167975 -0.34588 -0.586128 0 0 0 -0.613791 0.10844 -3.22385 0 0 -6.57473 1.00815 3.1811 -0.485102 0.04 
215 1 1 0.672095 -0.41034 -0.53805 0 0 0 -0.908254 -0.586446 -1.82224 243.75 32.2395 182.038 -5.19912 -7.14194 17.2162 0.04 
410 1 1 -0.23938 -0.329853 -0.601727 0 0 0 0.92465 -0.185881 -3.20619 -19.8778 158.714 128.883 -5.72053 0.664915 -4.28486 0.04 
366 1 1 -0.0973478 -0.376003 -0.604708 0 0 0 0.215688 -1.26822 -3.32819 0 0 -6.57473 -6.49314 -12.1169 4.44929 0.04 
439 1 1 0.482041 -0.343009 -0.622628 0 0 0 0.268492 -0.44813 -3.67484 0 0 -6.57473 2.04436 1.09791 -0.383997 0.04 
363 1 1 -0.860321 -0.224208 -0.551977 0 0 0 -0.279714 -0.0643053 -3.32542 0 0 -6.57473 0.161115 -0.0519368 -0.828239 0.04 
396 1 1 0.521817 -0.243391 -0.584078 0 0 0 0.0825962 -0.0535954 -3.55809 0 0 -6.57473 0.700601 -0.558889 0.176007 0.04 
442 1 1 -0.876397 -0.176414 -0.649796 0 0 0 -1.48867 0.042564 -4.0383 0 0 -6.57473 -22.7736 -3.43023 12.049 0.04 
130 1 1 0.0637315 -0.151091 -0.376977 0 0 0 -3.03914 0.870592 0.413801 0 0 -6.57473 26.3872 8.88868 -5.83066 0.04 
10 1 1 0.941481 -0.153093 -0.466673 0 0 0 1.89709 -0.534285 -1.47857 0 0 -6.57473 -30.6757 -17.7016 -1.24106 0.04 
405 1 1 -0.0987321 -0.093207 -0.593912 0 0 0 0.360851 -0.373778 -3.55988 0 0 -6.57473 3.26805 4.67949 6.45882 0.04 
370 1 1 0.534844 -0.108305 -0.620572 0 0 0 0.0607375 -0.173833 -3.65097 0 0 -6.57473 1.19958 -0.453392 -2.01205 0.04 
414 1 1 0.352784 0.069755 -0.570737 0 0 0 -0.470129 1.09215 -3.42911 0 0 -6.57473 -2.02949 0.56626 7.56366 0.04 
193 1 1 -0.214889 0.734076 -0.330145 0 0 0 -0.430072 3.16642 1.71766 0 0 -6.57473 -12.8489 29.3126 -14.3943 0.04 
90 1 1 -0.848613 -0.830081 -0.229662 0 0 0 1.31471 2.01795 2.65047 0 0 -6.57473 39.0002 -27.5848 -6.53253 0.04 
66 1 1 0.78791 -0.965233 -0.169419 0 0 0 0.566793 -0.746807 3.27933 -5.21063 301.282 -20.7089 35.2629 8.86558 4.16842 0.04 
420 1 1 0.073373 -0.574485 -0.486801 0 0 0 0.138154 -0.670624 -3.07714 0 0 -6.57473 -2.06837 -0.414698 0.0991884 0.04 
371 1 1 0.848842 -0.535792 -0.512268 0 0 0 0.210141 -0.7199 -3.22859 0 0 -6.57473 2.13326 0.426076 0.874398 0.04 
514 1 1 -0.437179 -0.547214 -0.546867 0 0 0 1.31235 -2.50981 -3.40082 0 0 -6.57473 -11.575 -1.49738 3.95332 0.04 