ITEM: TIMESTEP
28400
ITEM: NUMBER OF ATOMS
1500
ITEM: BOX BOUNDS ff ff ff
-1 1
-1 1
-1 1
ITEM: ATOMS id type type x y z ix iy iz vx vy vz fx fy fz omegax omegay omegaz radius 
137 1 1 -0.962448 -0.941683 -0.958859 0 0 0 0.433387 -0.0669226 0.145911 5.33576 -29.2981 -13.8815 -5.69051 -4.95769 -0.726955 0.04 
5 1 1 -0.88605 -0.953072 -0.962001 0 0 0 0.491337 -0.322503 0.210362 93.7882 -7.32543 101.598 -0.356004 2.32509 -1.50181 0.04 
415 1 1 -0.740547 -0.960819 -0.954334 0 0 0 1.14244 0.645462 -0.0572608 2.43561 4.85099 -32.0472 -1.67784 -4.94856 2.89359 0.04 
105 1 1 -0.660365 -0.957175 -0.961117 0 0 0 -0.0133903 -0.0398892 -0.246082 -16.369 10.5236 -52.3273 -8.0607 -10.6751 -0.190531 0.04 
138 1 1 -0.576802 -0.957914 -0.95752 0 0 0 0.0721031 1.013 -0.297634 20.532 -64.0386 -58.945 -1.9778 -1.23233 0.193345 0.04 
130 1 1 -0.418672 -0.960972 -0.957598 0 0 0 0.012382 -0.291654 -0.50607 0.645177 57.9308 -3.75095 11.9993 4.01162 -5.97629 0.04 
502 1 1 -0.316134 -0.95692 -0.959568 0 0 0 -0.3932 0.227825 -0.104962 0 0 -6.57473 7.78295 -0.337521 -7.38237 0.04 
494 1 1 -0.209 -0.952348 -0.961099 0 0 0 -0.132015 -0.275672 0.452163 1.14975 1.60781 48.8344 7.71723 -3.86108 -0.00988882 0.04 
448 1 1 -0.122055 -0.94239 -0.951875 0 0 0 -0.327796 0.761155 -0.0268694 0 0 -6.57473 5.66095 2.91787 4.34953 0.04 
147 1 1 -0.0337834 -0.959228 -0.942005 0 0 0 -0.0986908 0.937959 -0.217561 0 0 -6.57473 2.79156 -13.3553 6.92078 0.04 
339 1 1 0.244102 -0.95187 -0.926071 0 0 0 0.699751 0.0561599 0.544241 -4.4121 -115.51 -78.4068 1.09815 11.1952 0.128088 0.04 
341 1 1 0.359175 -0.962182 -0.955772 0 0 0 0.537074 0.589129 -0.54096 18.0481 48.0009 -108.135 6.33305 -9.98566 1.99813 0.04 
203 1 1 0.437503 -0.957823 -0.947783 0 0 0 -0.67541 0.8441 0.402759 -11.8017 -169.194 -154.997 5.22655 0.348422 3.04088 0.04 
1019 1 1 0.538687 -0.958794 -0.960918 0 0 0 -0.19116 0.549851 -0.0191461 -36.7692 -25.7206 -6.17114 1.15455 -12.038 -1.08049 0.04 
636 1 1 0.647285 -0.963685 -0.935224 0 0 0 -0.0326266 0.502688 0.590699 83.7998 161.61 -62.1465 2.31155 0.464887 -6.79898 0.04 
729 1 1 0.745435 -0.955347 -0.950253 0 0 0 -0.00598882 0.604194 -0.191308 -140.65 -90.9859 7.97758 13.5395 2.23378 -5.47289 0.04 
503 1 1 0.877581 -0.958715 -0.960676 0 0 0 -0.11431 -1.035 0.366093 0.43399 1.58889 26.3672 7.45196 2.21099 -2.81334 0.04 
446 1 1 -0.918365 -0.876456 -0.95634 0 0 0 0.382292 -0.34573 -0.0874914 27.5938 38.3883 -3.12942 1.61524 -1.41872 -6.85079 0.04 
239 1 1 -0.807767 -0.919661 -0.962797 0 0 0 -0.0656011 1.16042 -0.222003 -11.3983 12.4258 128.909 1.72278 -3.42747 -11.6613 0.04 
52 1 1 -0.496132 -0.874792 -0.952338 0 0 0 -0.124577 -0.192128 -0.0640857 0 0 -6.57473 -5.23687 3.71468 -3.4023 0.04 
322 1 1 -0.369456 -0.895993 -0.959239 0 0 0 0.831475 -0.509635 -0.468381 0 0 -6.57473 0.832466 2.15215 -8.91966 0.04 
647 1 1 -0.263549 -0.889861 -0.950196 0 0 0 0.381921 0.470465 -0.379612 0 0 -6.57473 13.6272 2.05738 -2.84185 0.04 
385 1 1 -0.0760954 -0.877083 -0.961713 0 0 0 0.908234 -0.218251 0.0380908 9.64365 -162.832 75.2587 -4.99352 -5.41773 4.38309 0.04 
211 1 1 0.186086 -0.892099 -0.961099 0 0 0 -0.239773 0.541041 -0.135288 5.07331 -18.0404 52.9053 -7.00881 6.09101 -1.70113 0.04 
19 1 1 0.304299 -0.906609 -0.959052 0 0 0 0.491261 1.29485 -0.811135 -87.9919 18.975 -8.50127 -6.1297 6.42648 -11.0855 0.04 
688 1 1 0.471736 -0.890093 -0.961903 0 0 0 0.285207 0.565306 -0.0595937 40.0711 90.9315 76.317 -11.4681 -3.60085 2.46172 0.04 
396 1 1 0.562047 -0.882488 -0.956791 0 0 0 0.277063 0.525596 -0.449469 0.710241 2.60928 -6.32889 2.80282 -1.98506 4.11855 0.04 
50 1 1 0.647378 -0.886058 -0.95504 0 0 0 -0.590779 0.560355 -0.554947 0 0 -6.57473 -0.811563 5.03497 6.93643 0.04 
554 1 1 0.809617 -0.915643 -0.953345 0 0 0 -0.0862232 -0.131929 0.861196 140.65 90.9859 -21.127 4.47352 8.05577 0.826705 0.04 
850 1 1 0.955878 -0.925925 -0.964212 0 0 0 -0.0866412 -0.184952 -0.0249577 78.2015 -33.2885 139.355 0.486199 -0.488417 1.661 0.04 
894 1 1 -0.834214 -0.841653 -0.953117 0 0 0 0.473355 -0.809745 -0.1913 78.4982 -148.119 -135.502 4.39921 4.48738 -12.0603 0.04 
379 1 1 -0.724623 -0.86159 -0.959902 0 0 0 -0.206538 -1.05646 -0.0870035 -27.6182 -43.1615 -2.17323 3.72196 7.81807 7.61048 0.04 
380 1 1 -0.628618 -0.852114 -0.959834 0 0 0 0.0370736 0.053936 0.0492327 71.4873 -81.5354 -6.08139 0.192189 -0.132003 6.73747 0.04 
241 1 1 -0.561625 -0.793585 -0.958029 0 0 0 1.0001 -0.140759 0.242487 26.7986 -17.1906 -51.774 0.0624362 -1.7203 -4.42323 0.04 
480 1 1 -0.432637 -0.824031 -0.958176 0 0 0 -0.295517 0.113778 0.0274528 -56.492 -155.634 -6.18298 1.88796 6.48136 -0.89517 0.04 
714 1 1 -0.35597 -0.804093 -0.950638 0 0 0 -0.917812 -0.509594 -0.640526 64.4522 -46.125 11.5673 -4.68324 -2.47005 4.53416 0.04 
631 1 1 -0.277314 -0.810959 -0.956598 0 0 0 0.498463 0.347106 -0.611917 49.4915 -57.2964 -60.6772 7.08528 4.68434 2.47694 0.04 
700 1 1 -0.196677 -0.816643 -0.960789 0 0 0 -0.204031 -0.0515069 -0.13869 1.12646 -1.99044 39.1669 10.1779 -0.126453 -1.28745 0.04 
675 1 1 -0.109719 -0.808193 -0.961792 0 0 0 0.509507 -0.260325 -0.0100886 -17.6953 -2.83415 4.62327 6.00844 1.66787 6.11846 0.04 
581 1 1 -0.0353639 -0.815004 -0.936973 0 0 0 0.328464 -0.656343 0.37418 85.8776 71.3823 7.11133 3.446 -0.426314 -7.05297 0.04 
204 1 1 0.0608883 -0.875895 -0.951804 0 0 0 -0.0373324 -1.14487 1.21517 0 0 -6.57473 12.0843 4.07911 4.16582 0.04 
773 1 1 0.175357 -0.815805 -0.940678 0 0 0 0.374087 -0.380194 0.392572 -2.31819 16.5114 -3.03581 7.32794 11.2865 -6.27537 0.04 
725 1 1 0.273258 -0.828301 -0.931591 0 0 0 0.872339 -0.552104 0.285327 -8.12817 40.435 -173.86 6.32351 4.69849 2.0619 0.04 
967 1 1 0.372111 -0.866572 -0.952169 0 0 0 -0.904209 -0.205813 0.126486 42.2229 24.7313 -4.7465 2.17115 8.16981 -6.18358 0.04 
880 1 1 0.60434 -0.808585 -0.958444 0 0 0 -0.025311 0.103945 -1.33795 0 0 -6.57473 11.6316 8.67653 -3.24002 0.04 
987 1 1 0.900333 -0.828859 -0.940741 0 0 0 0.430894 0.255867 1.28831 -120.202 134.418 -271.5 -0.0751331 21.1347 -1.66344 0.04 
488 1 1 -0.959108 -0.795204 -0.962315 0 0 0 0.32247 0.154411 0.802512 -10.0035 6.17103 25.6847 -2.76422 5.59487 3.13501 0.04 
960 1 1 -0.768163 -0.773394 -0.951807 0 0 0 -0.0755622 0.0984149 -0.372789 0 0 -6.57473 -10.0896 13.7495 9.94889 0.04 
290 1 1 -0.681542 -0.796014 -0.962822 0 0 0 0.116975 -0.742886 0.0123038 -34.4414 32.7907 105.389 3.23082 13.323 -9.39061 0.04 
1127 1 1 -0.610458 -0.732096 -0.959821 0 0 0 -0.0723743 0.270155 0.50177 -8.77894 -32.0901 -49.1585 -0.49464 3.39353 6.14045 0.04 
511 1 1 -0.411784 -0.751064 -0.961629 0 0 0 -0.444357 -0.569138 -0.191906 2.93025 142.197 38.8508 2.08604 5.50226 11.4518 0.04 
962 1 1 -0.152757 -0.74578 -0.950924 0 0 0 -0.15621 -0.574978 0.246475 -94.3941 -39.7009 -3.39502 -0.1467 8.5843 -4.33891 0.04 
772 1 1 0.363296 -0.764754 -0.954398 0 0 0 -1.14774 -0.318902 -0.365825 0 0 -6.57473 4.30352 1.95159 -1.18633 0.04 
981 1 1 0.491399 -0.734629 -0.957247 0 0 0 0.337944 0.80658 -0.730269 0 0 -6.57473 8.10463 8.67538 -6.39226 0.04 
408 1 1 0.581964 -0.727417 -0.948347 0 0 0 -1.33531 0.193163 -1.5318 -209.65 -170.682 -100.528 2.15236 3.40039 1.38842 0.04 
543 1 1 0.688473 -0.739768 -0.943807 0 0 0 -0.276396 -0.0127218 -0.75844 88.2681 -11.6016 -83.6994 20.6456 -0.833865 -7.11012 0.04 
553 1 1 0.831999 -0.765351 -0.957519 0 0 0 1.04263 0.186904 -0.611615 0 0 -6.57473 9.67037 -13.3863 12.2928 0.04 
252 1 1 0.95941 -0.746597 -0.948747 0 0 0 -0.889651 0.804484 -2.06216 0 0 -6.57473 7.10693 -9.19997 3.73458 0.04 
670 1 1 -0.928616 -0.719506 -0.952863 0 0 0 -0.313959 -0.435015 -0.734661 0 0 -6.57473 5.27284 -2.40543 -10.6553 0.04 
826 1 1 -0.851987 -0.680052 -0.962208 0 0 0 0.528139 -0.214751 0.654042 1.10979 4.83738 107.984 6.71253 13.5001 0.659151 0.04 
1142 1 1 -0.748652 -0.682527 -0.958767 0 0 0 0.221784 -0.310836 0.865493 15.8742 -69.4379 -11.9974 0.5871 5.00036 -11.7449 0.04 
857 1 1 -0.547062 -0.688769 -0.953929 0 0 0 0.689063 0.603643 0.655909 -25.5444 -157.557 -18.347 3.53644 7.88708 -6.44992 0.04 
709 1 1 -0.480675 -0.727722 -0.935913 0 0 0 -0.248762 -0.421823 0.6636 -56.6245 -14.4592 8.25053 3.88302 -2.49474 -7.98714 0.04 
382 1 1 -0.344884 -0.711701 -0.958879 0 0 0 0.0860525 0.951926 -0.0951754 67.5731 35.9933 -5.88886 -0.123429 3.66484 2.62642 0.04 
873 1 1 -0.244118 -0.717805 -0.953982 0 0 0 0.0389457 -0.227776 0.548231 0 0 -6.57473 -1.52834 6.2756 -13.1887 0.04 
143 1 1 0.0133072 -0.712331 -0.930232 0 0 0 -0.0319342 0.317524 0.882304 6.80337 -11.9137 -17.588 2.17931 -0.531176 4.48508 0.04 
1122 1 1 0.0918516 -0.723859 -0.941541 0 0 0 1.06081 -0.651613 0.478403 -98.8207 -144.192 -65.7854 4.40922 5.12929 -8.69271 0.04 
1346 1 1 0.191659 -0.677922 -0.958332 0 0 0 -0.728152 -0.231435 -0.292375 0 0 -6.57473 11.937 -8.56935 6.41567 0.04 
867 1 1 0.295993 -0.688145 -0.93827 0 0 0 0.00802832 -0.401525 -0.394789 -102.092 -45.8878 -89.0595 -1.04633 -6.08771 -1.88086 0.04 
361 1 1 0.517912 -0.653676 -0.958885 0 0 0 0.474802 0.806462 1.43492 -138.671 -41.8514 -172.348 6.9746 5.49555 -21.1284 0.04 
506 1 1 0.892093 -0.692871 -0.959234 0 0 0 -1.28256 -0.156485 1.23604 -80.0035 -102.081 -33.2939 -4.77134 6.89994 4.9725 0.04 
1055 1 1 -0.961431 -0.644346 -0.949671 0 0 0 -0.434892 -0.442963 -0.37852 -102.223 -128.302 12.9727 2.70998 2.20733 -5.094 0.04 
435 1 1 -0.628257 -0.643109 -0.953994 0 0 0 -0.833315 -0.515922 0.273729 -37.6266 -15.8865 -7.68933 9.77244 -4.12136 -0.491075 0.04 
344 1 1 -0.480046 -0.6508 -0.947563 0 0 0 0.853886 -1.53774 -0.98773 90.0919 142.798 -3.05559 9.31619 -10.6876 6.84542 0.04 
868 1 1 -0.142043 -0.67276 -0.964587 0 0 0 0.19312 -0.0487861 -0.636427 -195.95 184.38 47.0512 -8.67364 1.8451 -4.38539 0.04 
950 1 1 -0.0682626 -0.668786 -0.953742 0 0 0 -0.0638766 -0.617069 -0.255897 254.859 -48.9571 -32.0209 -5.40762 -4.3133 5.00921 0.04 
1030 1 1 0.092985 -0.649291 -0.959026 0 0 0 0.661587 -0.227881 1.22441 7.79069 119.584 -36.2049 11.4104 6.90225 -3.16205 0.04 
845 1 1 0.316658 -0.592899 -0.936009 0 0 0 0.525426 -0.265702 1.07698 26.2619 -81.407 -54.1744 -16.4114 15.0309 -2.43236 0.04 
792 1 1 0.369434 -0.672304 -0.94764 0 0 0 -0.413904 -1.5443 0.537822 25.6906 -65.0468 -110.332 4.27528 5.86079 -7.60394 0.04 
771 1 1 0.940535 -0.635173 -0.946631 0 0 0 -0.645906 -0.251394 -0.207239 80.0035 102.081 20.1444 9.76393 -0.699549 16.2027 0.04 
990 1 1 -0.900498 -0.602399 -0.951182 0 0 0 -0.929793 -1.57433 0.619078 187.528 130.726 -22.6124 6.39829 -3.35472 -10.8401 0.04 
1023 1 1 -0.775912 -0.609695 -0.955814 0 0 0 -0.0691206 -0.21594 1.21724 -23.8974 74.8508 -4.32377 5.11997 -1.4102 6.18516 0.04 
230 1 1 -0.555148 -0.613802 -0.958745 0 0 0 -0.444739 -1.51729 -0.35786 24.2061 193.811 -13.4414 0.773092 4.86251 -0.829469 0.04 
1037 1 1 -0.485789 -0.566193 -0.953363 0 0 0 0.0340263 -0.377684 -0.668937 0 0 -6.57473 -2.01849 12.3178 10.8864 0.04 
116 1 1 -0.370381 -0.564361 -0.959365 0 0 0 -0.964554 -1.37751 -0.0142357 0 0 -6.57473 12.3767 -1.4643 -16.6582 0.04 
883 1 1 -0.279889 -0.617515 -0.957352 0 0 0 0.27914 -1.90782 0.23848 -1.72149 -1.02412 -12.7881 22.1034 5.99394 12.1998 0.04 
1066 1 1 -0.0372901 -0.574049 -0.95531 0 0 0 -1.23889 -1.23811 -0.310597 0 0 -6.57473 -0.82507 24.711 3.44013 0.04 
1047 1 1 0.573077 -0.557215 -0.955127 0 0 0 -0.548691 -0.95512 -0.466593 0 0 -6.57473 -16.8445 -7.22902 -6.60806 0.04 
182 1 1 0.746311 -0.564008 -0.964822 0 0 0 1.08757 0.540946 -1.89348 -13.4708 -7.02646 289.833 3.68717 -8.93264 -5.43296 0.04 
739 1 1 -0.866652 -0.528849 -0.960906 0 0 0 -0.465478 0.510923 0.148247 2.24441 0.92876 42.005 -19.4279 3.95278 16.2249 0.04 
1215 1 1 -0.809735 -0.456248 -0.947926 0 0 0 1.05335 0.109299 0.025342 -4.97952 4.37508 -6.51317 0.863338 -1.98947 20.009 0.04 
1084 1 1 -0.585073 -0.533388 -0.956547 0 0 0 0.379652 -0.0407403 0.600386 0 0 -6.57473 19.39 -2.63818 1.58742 0.04 
1124 1 1 -0.29027 -0.5355 -0.943833 0 0 0 0.322168 -0.736962 -0.335891 0 0 -6.57473 4.85516 -16.9326 8.93171 0.04 
201 1 1 -0.140112 -0.540371 -0.963994 0 0 0 -0.0839489 -0.937826 -0.476843 0.887994 12.304 187.116 13.2545 -5.37105 -1.61287 0.04 
1216 1 1 0.130308 -0.493216 -0.961906 0 0 0 -0.0288855 -0.357098 -0.0369363 2.62239 4.64654 100.135 -3.5284 6.41236 2.16303 0.04 
297 1 1 0.233438 -0.524959 -0.924989 0 0 0 0.0866227 -1.22062 -0.351295 -46.5737 -160.334 -90.1681 -0.242314 10.1344 3.07629 0.04 
220 1 1 0.416495 -0.539906 -0.952245 0 0 0 2.4604 -0.93585 0.861075 0 0 -6.57473 -22.4363 -2.788 -5.40553 0.04 
1206 1 1 0.897753 -0.497153 -0.964176 0 0 0 0.854781 0.559503 1.42481 -233.423 90.2027 130.894 -10.146 14.606 2.56706 0.04 
975 1 1 0.960501 -0.526767 -0.940189 0 0 0 -1.30947 -0.174713 1.54377 212.309 -93.0751 69.652 1.1371 -4.50245 -7.92758 0.04 
657 1 1 -0.952472 -0.45402 -0.929606 0 0 0 0.540421 -0.237218 0.39248 0 0 -6.57473 4.17201 -13.6087 -6.24242 0.04 
76 1 1 -0.7104 -0.452343 -0.945809 0 0 0 -0.0396597 -0.436805 -0.461805 -349.056 56.623 -170.528 8.39828 -16.9987 3.72476 0.04 
710 1 1 -0.354014 -0.461279 -0.957162 0 0 0 0.186847 0.3214 0.306649 0 0 -6.57473 17.0162 -9.38596 9.99717 0.04 
1095 1 1 -0.222836 -0.444723 -0.944808 0 0 0 0.396837 -0.347121 1.54554 -10.6254 -74.6071 3.56704 5.86876 10.6735 4.38636 0.04 
807 1 1 -0.0482292 -0.424917 -0.957514 0 0 0 1.61993 -0.208536 0.397952 0 0 -6.57473 -10.3367 -7.99732 7.55491 0.04 
1102 1 1 0.0365464 -0.4367 -0.941345 0 0 0 0.846707 -0.881401 -0.205626 0 0 -6.57473 -10.9719 -3.49794 6.89942 0.04 
1012 1 1 0.184128 -0.427263 -0.959961 0 0 0 0.698817 -0.305863 0.0459526 0 0 -6.57473 0.287964 -7.80212 -6.29638 0.04 
752 1 1 0.290349 -0.44646 -0.949428 0 0 0 -0.214001 0.301321 0.16437 248.1 80.3509 -401.731 2.28219 -6.94286 1.51957 0.04 
1069 1 1 0.431408 -0.446952 -0.956912 0 0 0 -0.0155792 -1.38471 1.1863 18.8995 51.5451 -216.102 3.8423 -0.0525048 -7.86012 0.04 
279 1 1 0.522629 -0.374906 -0.954823 0 0 0 0.192468 2.10525 0.462198 -73.6756 -151.987 -42.7637 -9.38115 -2.86313 -6.90432 0.04 
671 1 1 0.59099 -0.412361 -0.9641 0 0 0 -0.669491 -0.0813266 -0.924972 57.5129 -19.5867 229.719 -0.432956 -12.7828 -7.56231 0.04 
627 1 1 0.773366 -0.450778 -0.964242 0 0 0 -0.242715 -0.284526 0.278075 -7.36691 9.01127 226.212 0.967165 -11.7655 6.04503 0.04 
328 1 1 -0.867804 -0.401705 -0.950159 0 0 0 -1.26555 1.16572 1.21998 37.6473 94.8953 -130.978 27.6284 2.86121 -9.2064 0.04 
283 1 1 -0.756432 -0.387304 -0.946332 0 0 0 -0.399069 0.0796452 0.234593 -4.06133 5.65442 -6.96524 -6.86262 24.2055 -1.68976 0.04 
1208 1 1 -0.584363 -0.344893 -0.960148 0 0 0 -0.383823 1.66253 1.11075 -120.468 -68.987 -3.72058 -3.14499 -4.57588 6.29555 0.04 
619 1 1 -0.213095 -0.368617 -0.958907 0 0 0 -0.0433973 -0.825473 0.772412 10.6254 74.6071 -16.7165 -17.9129 -5.58104 1.97537 0.04 
557 1 1 0.295554 -0.341152 -0.958286 0 0 0 1.52062 -0.19193 0.203366 0 0 -6.57473 -5.03489 -4.82067 -2.83102 0.04 
685 1 1 0.354255 -0.398036 -0.949717 0 0 0 0.832056 -0.559317 -0.0589432 0 0 -6.57473 10.8481 15.8921 -6.02209 0.04 
539 1 1 0.6958 -0.37101 -0.955903 0 0 0 -2.15286 -0.788039 -1.27445 0 0 -6.57473 -5.5984 18.0511 17.2761 0.04 
522 1 1 0.83797 -0.370446 -0.957451 0 0 0 -0.968025 1.50175 1.29797 -36.2008 123 -291.09 -0.183607 -9.0562 8.94485 0.04 
659 1 1 0.953691 -0.39868 -0.957506 0 0 0 1.18003 -0.103985 0.18121 0 0 -6.57473 -8.60123 -27.1106 -12.7421 0.04 
474 1 1 -0.953531 -0.259933 -0.959875 0 0 0 0.461894 1.455 0.370559 0 0 -6.57473 -20.9688 12.7236 7.0855 0.04 
660 1 1 -0.819915 -0.338284 -0.964455 0 0 0 0.647519 -0.773524 1.19781 -31.0732 -6.49217 222.646 8.55679 12.3537 -1.94872 0.04 
1160 1 1 -0.754895 -0.293379 -0.958859 0 0 0 -0.43592 0.380357 -0.648522 26.277 17.0959 -3.03559 10.2843 -23.4694 -0.978922 0.04 
1209 1 1 -0.516409 -0.31039 -0.966126 0 0 0 -0.900792 0.218702 0.909438 136.839 66.4837 314.035 -1.9299 -2.46885 13.0983 0.04 
732 1 1 -0.122465 -0.29261 -0.937993 0 0 0 -0.0619351 1.82257 0.739655 2.82481 0.0356422 -6.9156 -3.11255 5.27604 9.00436 0.04 
1137 1 1 -0.0378784 -0.278439 -0.946639 0 0 0 -0.221872 0.237743 2.2867 -85.1148 -79.1166 -172.917 -10.7405 5.85361 -2.84661 0.04 
837 1 1 -0.874003 -0.24412 -0.955588 0 0 0 0.221906 -0.149917 0.0856714 -18.4028 -4.30251 -107.622 -4.5679 7.17434 -6.57593 0.04 
1166 1 1 -0.638982 -0.261899 -0.962547 0 0 0 2.1532 0.551254 0.459302 -6.12905 -2.94623 129.433 6.91955 11.5944 -5.64457 0.04 
1315 1 1 -0.519014 -0.219641 -0.940939 0 0 0 -1.21584 -0.0460697 0.865517 0 0 -6.57473 7.5533 -16.4736 -0.3102 0.04 
1024 1 1 -0.396699 -0.217038 -0.94923 0 0 0 0.222587 0.977431 0.397646 0 0 -6.57473 -3.16243 9.27458 3.95836 0.04 
1017 1 1 -0.312188 -0.211152 -0.947278 0 0 0 0.159352 1.08973 -0.340196 0 0 -6.57473 -10.4079 -14.2637 -3.90966 0.04 
266 1 1 -0.114609 -0.200406 -0.963535 0 0 0 2.09107 1.86455 -0.622328 -6.76903 -7.70186 198.499 -3.2695 14.6973 -6.97984 0.04 
1329 1 1 0.0821302 -0.202452 -0.941341 0 0 0 -0.846538 -0.0731559 0.669046 0 0 -6.57473 11.5409 -20.3082 10.1602 0.04 
1170 1 1 0.444639 -0.273336 -0.946839 0 0 0 -0.990905 -0.49968 -0.576032 0 0 -6.57473 15.0502 7.40872 -0.123117 0.04 
1353 1 1 0.529281 -0.208079 -0.959356 0 0 0 0.104763 1.19934 -1.45563 0 0 -6.57473 -5.15595 17.8212 8.86604 0.04 
846 1 1 0.613316 -0.205992 -0.952858 0 0 0 -0.825458 0.335792 -0.780707 0 0 -6.57473 4.19354 -2.67718 -0.35664 0.04 
263 1 1 0.811925 -0.244006 -0.942245 0 0 0 0.468556 -0.395217 1.3113 0 0 -6.57473 -2.74158 -7.57068 -4.3852 0.04 
973 1 1 0.891692 -0.248027 -0.951761 0 0 0 -0.460201 -0.653182 0.223363 0 0 -6.57473 -25.1616 -6.09905 8.58969 0.04 
542 1 1 -0.671798 -0.17272 -0.928561 0 0 0 -1.12349 -0.216638 1.00544 0 0 -6.57473 -3.27665 -7.3906 18.1496 0.04 
1128 1 1 -0.581005 -0.126187 -0.949853 0 0 0 0.0259587 1.08683 0.340458 0 0 -6.57473 11.9677 4.96118 -5.88911 0.04 
1197 1 1 0.24333 -0.142608 -0.936671 0 0 0 -1.69531 -0.145196 0.406153 0 0 -6.57473 -18.5598 3.97505 23.5903 0.04 
1247 1 1 0.893072 -0.146977 -0.96122 0 0 0 0.573241 0.567216 -0.958605 -184.247 82.9511 -399.751 -2.47556 13.8126 2.24404 0.04 
924 1 1 -0.963014 -0.109345 -0.959974 0 0 0 -0.519223 0.0855042 -0.803793 142.336 13.9833 -54.2144 7.12288 0.816204 10.9172 0.04 
572 1 1 -0.823193 -0.103134 -0.95421 0 0 0 1.03501 0.280474 0.0953693 7.26589 -8.62142 -28.0774 -2.59315 1.36587 5.75958 0.04 
1036 1 1 -0.721126 -0.080535 -0.924854 0 0 0 -0.189442 1.55774 0.608274 82.941 -141.156 31.7053 -6.43639 1.8278 12.551 0.04 
527 1 1 -0.647313 -0.0664495 -0.94445 0 0 0 -0.42308 1.84855 0.507879 81.9353 14.7036 -32.6828 -8.01988 10.1264 -4.97087 0.04 
1119 1 1 -0.560176 -0.0420897 -0.946586 0 0 0 0.767121 2.46439 1.45697 0 0 -6.57473 -12.6155 3.75009 -0.425714 0.04 
1043 1 1 -0.318821 -0.0890249 -0.958704 0 0 0 -0.347965 1.93804 0.475481 0 0 -6.57473 -18.5429 -7.33587 -9.55518 0.04 
1213 1 1 0.130826 -0.0554222 -0.954333 0 0 0 -0.455783 0.855575 -0.211606 0 0 -6.57473 -18.1358 -26.3777 5.69985 0.04 
877 1 1 0.534448 -0.113185 -0.955011 0 0 0 -1.74269 0.112276 1.39616 0 0 -6.57473 -1.09562 -13.2006 -9.4462 0.04 
409 1 1 0.685349 -0.0853798 -0.950785 0 0 0 -3.13974 0.713292 -0.185084 -80.3518 -27.4532 -51.7659 -10.0431 7.64384 -3.41409 0.04 
838 1 1 0.781655 -0.139345 -0.962048 0 0 0 -1.40659 -0.697592 0.786392 5.11412 0.920169 97.3502 11.1942 1.21111 28.0388 0.04 
630 1 1 0.947521 -0.0835982 -0.917591 0 0 0 -0.628351 0.156039 2.29889 -1.62769 8.38432 -4.39636 -56.2796 -11.336 -9.52725 0.04 
597 1 1 -0.856556 -0.0293483 -0.945084 0 0 0 0.655246 0.489442 -0.981736 -5.89412 28.3708 -43.9811 1.11154 16.1773 7.5684 0.04 
730 1 1 -0.77813 -0.0325634 -0.927638 0 0 0 0.556791 0.860727 0.935587 -164.876 126.453 -18.7467 -6.48597 7.38849 8.82585 0.04 
1362 1 1 -0.471418 -0.0263475 -0.965707 0 0 0 2.32077 1.94197 -0.690317 -12.791 -10.1809 320.388 -8.83606 7.89992 6.95468 0.04 
1058 1 1 -0.343417 -0.00904172 -0.958057 0 0 0 1.08847 3.16298 0.128358 0 0 -6.57473 -5.81612 -31.6367 16.9075 0.04 
1015 1 1 0.48568 -0.044279 -0.945937 0 0 0 -0.188489 0.507139 -0.288864 0 0 -6.57473 19.9645 -1.73053 10.974 0.04 
1181 1 1 0.606283 -0.0627285 -0.939182 0 0 0 -1.23759 -0.786067 1.63178 0 0 -6.57473 13.5503 -21.3839 -16.9582 0.04 
954 1 1 0.784048 0.0272464 -0.933464 0 0 0 0.438462 1.67863 0.618292 -7.49952 23.4338 -111.28 -21.225 2.45691 3.41801 0.04 
1028 1 1 0.848768 -0.0258204 -0.925919 0 0 0 1.68003 2.30909 -0.00362229 0 0 -6.57473 -2.2502 -10.3179 6.62086 0.04 
818 1 1 0.941955 0.0393332 -0.961269 0 0 0 -1.85836 2.83553 1.0225 2.19974 -1.84981 50.908 -25.8015 7.77641 -28.8292 0.04 
1167 1 1 -0.738688 0.0479753 -0.966521 0 0 0 1.23505 1.19089 -0.170926 -11.9036 -13.8731 359.025 -6.34862 11.2445 11.183 0.04 
1391 1 1 -0.6437 0.0495192 -0.953338 0 0 0 -2.69218 2.07254 2.16831 0 0 -6.57473 -20.3335 -7.99069 1.75288 0.04 
243 1 1 0.664159 -0.00233728 -0.956913 0 0 0 -1.01282 -0.582692 0.741426 0 0 -6.57473 -12.7341 11.7533 4.32128 0.04 
1418 1 1 0.7422 0.0974889 -0.965986 0 0 0 0.0969652 2.72692 2.01197 1.15097 -15.3319 300.925 -21.3515 6.58106 2.07427 0.04 
992 1 1 -0.56957 0.122085 -0.937688 0 0 0 0.0981519 1.88242 0.378756 -87.5099 17.4849 -58.8375 -18.503 3.61957 7.16167 0.04 
691 1 1 -0.397134 0.115017 -0.941402 0 0 0 0.105729 1.21127 -0.0851894 -163.091 -23.7666 34.6799 19.8193 -4.27045 1.86165 0.04 
721 1 1 -0.32406 0.125825 -0.956019 0 0 0 0.81555 1.64608 1.6603 155.246 43.1039 -73.4024 -24.3915 -5.15139 6.33451 0.04 
1123 1 1 0.320625 0.123069 -0.932418 0 0 0 1.13427 0.670711 0.360193 0 0 -6.57473 -5.82761 5.17412 8.24057 0.04 
1035 1 1 0.664618 0.126844 -0.959137 0 0 0 0.803504 0.14723 1.83591 13.7059 14.5924 -36.1277 -6.90705 18.4378 9.57119 0.04 
1031 1 1 0.781796 0.184648 -0.952445 0 0 0 -0.0169804 3.31644 1.26819 0 0 -6.57473 4.97654 -12.9899 9.02592 0.04 
900 1 1 -0.948079 0.174244 -0.961 0 0 0 0.619541 0.522182 -0.927974 -2.97383 -1.62086 61.1626 -1.86678 -5.13901 0.605899 0.04 
389 1 1 -0.807452 0.172783 -0.953295 0 0 0 0.789329 1.73067 -0.326506 0 0 -6.57473 -5.89126 -3.50371 3.57105 0.04 
774 1 1 -0.594754 0.210091 -0.958286 0 0 0 -0.593978 1.66719 0.0874112 -16.7683 1.76749 -7.997 -19.2941 -9.00592 -7.54111 0.04 
851 1 1 -0.516456 0.201935 -0.947666 0 0 0 -0.303383 1.52544 1.75107 16.7683 -1.76749 -5.15245 -19.5912 -6.60863 -0.773556 0.04 
1131 1 1 -0.93072 0.253164 -0.954963 0 0 0 0.0654381 0.971037 0.175103 0 0 -6.57473 1.18962 1.86144 9.97407 0.04 
1140 1 1 -0.752274 0.235693 -0.937045 0 0 0 0.465632 -0.283295 0.847404 0 0 -6.57473 -3.04381 7.12965 2.02663 0.04 
744 1 1 -0.674454 0.211918 -0.939347 0 0 0 -0.634173 0.0651775 -0.47777 0 0 -6.57473 -10.529 9.73855 -2.43609 0.04 
753 1 1 -0.184288 0.268128 -0.9534 0 0 0 -1.06306 1.66555 0.349072 0 0 -6.57473 -1.13164 5.61981 -6.02337 0.04 
186 1 1 0.264281 0.255933 -0.943009 0 0 0 0.270308 1.28535 1.3492 0 0 -6.57473 -30.3764 9.52753 4.93756 0.04 
1094 1 1 0.484029 0.24 -0.951892 0 0 0 -0.090659 1.44941 1.01727 0 0 -6.57473 12.077 -15.3083 -10.1856 0.04 
347 1 1 -0.814288 0.301906 -0.963691 0 0 0 1.3104 1.36472 -0.710452 -7.22905 -7.95081 208.343 0.773038 1.1186 -3.91598 0.04 
842 1 1 -0.687219 0.314201 -0.941741 0 0 0 1.63618 1.34294 -0.0109619 0 0 -6.57473 -20.6182 8.97082 3.11323 0.04 
683 1 1 -0.339822 0.313063 -0.932859 0 0 0 -0.471789 0.817177 0.394422 0 0 -6.57473 -11.7926 6.31548 13.3322 0.04 
1180 1 1 0.0935922 0.325312 -0.960805 0 0 0 -0.165946 1.23391 1.26861 30.0794 -17.7602 22.3556 -13.6097 -13.0839 14.3672 0.04 
479 1 1 -0.957082 0.37284 -0.967626 0 0 0 -0.510536 1.23889 1.0627 -4.43328 -20.0766 404.631 -2.02133 -21.302 5.54521 0.04 
1014 1 1 -0.784342 0.39322 -0.952943 0 0 0 1.23652 1.94904 -0.685796 6.71569 -4.00514 -10.9506 10.1447 4.5031 -16.4825 0.04 
165 1 1 0.0255004 0.365146 -0.959332 0 0 0 -0.637141 1.87326 2.32394 -30.7151 16.4907 -7.10959 -0.585447 23.083 4.92683 0.04 
849 1 1 0.275378 0.436476 -0.916496 0 0 0 0.134634 2.3059 1.63804 0 0 -6.57473 -24.7161 1.12626 -2.34594 0.04 
529 1 1 0.629611 0.362641 -0.950627 0 0 0 0.805995 1.57495 -0.617646 0 0 -6.57473 -6.21792 -12.4193 -7.13753 0.04 
820 1 1 -0.842878 0.426702 -0.910885 0 0 0 1.27099 1.75534 2.14573 -6.71569 4.00514 -2.19881 -9.10039 13.6301 7.88618 0.04 
206 1 1 -0.713222 0.447116 -0.961277 0 0 0 -0.513308 0.203969 0.520946 2.63468 -1.85077 57.8206 5.51233 2.17997 -5.82342 0.04 
779 1 1 -0.494683 0.458822 -0.938748 0 0 0 1.39847 3.32681 0.630724 0 0 -6.57473 -11.5748 4.89129 -14.6922 0.04 
545 1 1 -0.226185 0.462344 -0.963523 0 0 0 -0.448391 1.95025 -0.65967 1.53912 -10.1265 198.282 -4.03851 -4.58463 -6.20941 0.04 
1083 1 1 -0.0323805 0.444826 -0.958304 0 0 0 -0.253223 -0.337516 1.10609 0 0 -6.57473 7.9769 -5.31229 -2.97314 0.04 
985 1 1 0.396713 0.444223 -0.952385 0 0 0 0.254999 1.48998 -1.02402 0 0 -6.57473 1.52134 -2.46622 -5.82206 0.04 
296 1 1 0.626343 0.481281 -0.920128 0 0 0 0.521375 3.17112 0.980269 0 0 -6.57473 5.27402 -1.0072 0.554367 0.04 
152 1 1 -0.944554 0.500708 -0.951108 0 0 0 -0.147864 1.67988 -0.249431 0 0 -6.57473 -11.5015 9.79641 9.81777 0.04 
205 1 1 -0.836704 0.562039 -0.939941 0 0 0 -0.239504 2.06808 0.680846 -56.4458 -46.7882 -24.2898 -12.7802 16.9465 -9.90453 0.04 
727 1 1 -0.642816 0.541384 -0.943414 0 0 0 0.772906 1.72281 0.524737 0 0 -6.57473 -0.927104 -8.6998 7.03599 0.04 
269 1 1 -0.295615 0.544301 -0.933254 0 0 0 -0.748998 0.683488 0.05788 0 0 -6.57473 -2.10638 14.5287 -8.30587 0.04 
684 1 1 -0.080297 0.527796 -0.939625 0 0 0 -0.571378 0.918409 -0.709053 -9.42507 -2.01219 -12.0957 -5.92705 -5.71031 2.54359 0.04 
393 1 1 0.285555 0.566223 -0.94222 0 0 0 1.03265 2.56621 1.7946 0 0 -6.57473 -18.8035 20.0256 -8.7423 0.04 
855 1 1 0.436399 0.541652 -0.96375 0 0 0 0.42727 2.42887 -0.0301962 -164.038 -19.0439 187.154 -34.9042 -5.12684 12.2106 0.04 
432 1 1 0.511544 0.542722 -0.957076 0 0 0 1.44541 2.04535 0.468881 158.626 10.0822 9.07688 -19.1831 -12.8612 -12.5347 0.04 
910 1 1 -0.499428 0.606072 -0.958413 0 0 0 0.0724763 2.40736 -0.314403 0 0 -6.57473 -19.7699 15.3276 -0.638477 0.04 
580 1 1 0.0309725 0.61823 -0.947927 0 0 0 0.76177 1.64234 -0.846801 0 0 -6.57473 5.2177 -13.7922 7.01316 0.04 
617 1 1 0.766182 0.599913 -0.958631 0 0 0 -0.745454 0.0934964 -0.406703 0 0 -6.57473 -0.566182 16.473 1.20918 0.04 
442 1 1 -0.898864 0.635903 -0.951765 0 0 0 -1.1244 1.42653 0.173976 88.5808 -55.6105 -35.9229 -3.68182 13.5133 6.12379 0.04 
707 1 1 -0.377104 0.664447 -0.953976 0 0 0 1.84325 0.927108 0.721221 0 0 -6.57473 -23.8725 19.4069 3.61044 0.04 
608 1 1 -0.223991 0.662174 -0.945727 0 0 0 0.860203 1.03083 0.423209 -13.3829 -91.8555 -142.133 -17.3904 -5.77301 -5.67144 0.04 
1073 1 1 0.223429 0.678364 -0.933679 0 0 0 0.0745944 1.87042 -0.19029 -123.982 -220.803 -118.401 -20.3158 24.6565 10.2427 0.04 
755 1 1 0.43299 0.68734 -0.959801 0 0 0 -1.14059 1.7576 0.212289 0 0 -6.57473 -5.57204 -5.12938 6.9738 0.04 
1110 1 1 0.634731 0.68767 -0.934206 0 0 0 -0.486773 1.65689 0.613525 -24.6318 -35.8628 2.50677 -20.4719 -10.7752 -10.3067 0.04 
94 1 1 -0.963756 0.672305 -0.929624 0 0 0 1.03864 -0.706061 -0.0525328 107.248 64.5509 18.781 -21.7638 7.96847 -4.66717 0.04 
796 1 1 -0.810826 0.681717 -0.92667 0 0 0 0.0191581 -0.512726 2.1693 -0.451129 -5.64863 -4.99807 -27.7766 20.4208 4.10375 0.04 
262 1 1 -0.496185 0.698888 -0.946267 0 0 0 -0.446212 0.101954 -0.770343 0 0 -6.57473 6.23823 -4.34371 16.7724 0.04 
498 1 1 -0.151134 0.698157 -0.948747 0 0 0 1.21746 -0.274515 -0.108174 0 0 -6.57473 -10.8334 0.587002 8.11029 0.04 
244 1 1 0.0191105 0.744578 -0.957712 0 0 0 -0.737946 1.94522 1.35396 0 0 -6.57473 -3.19581 16.1157 -10.3891 0.04 
324 1 1 0.561573 0.707723 -0.959112 0 0 0 -0.283113 1.66803 0.154904 -5.69797 1.24888 -8.54982 -26.3526 4.03268 29.0832 0.04 
356 1 1 0.708401 0.713606 -0.944311 0 0 0 2.41465 0.781975 -0.180552 180.672 -146.07 3.99933 2.54281 -14.7078 -5.90864 0.04 
359 1 1 0.928756 0.742017 -0.95571 0 0 0 0.72949 2.07716 0.0288072 0 0 -6.57473 -8.71966 4.72384 -6.36081 0.04 
819 1 1 -0.869553 0.800597 -0.962057 0 0 0 -0.0341306 1.49185 -0.601056 -2.59154 -2.11964 115.308 -4.56787 15.0889 -8.85577 0.04 
566 1 1 -0.803719 0.756765 -0.951593 0 0 0 -0.0965262 1.06635 -0.099651 5.66142 2.2371 -7.6385 -0.581744 0.125668 0.751547 0.04 
343 1 1 -0.554432 0.792262 -0.957187 0 0 0 -0.874586 0.723194 -0.479962 0 0 -6.57473 3.3593 1.25958 -2.64496 0.04 
286 1 1 -0.442145 0.775652 -0.948565 0 0 0 0.123477 1.14919 0.714971 0 0 -6.57473 -8.02892 -2.50425 3.47932 0.04 
35 1 1 0.419101 0.801201 -0.956623 0 0 0 0.305749 0.157774 1.24066 -44.7378 10.0661 -32.2225 -3.87306 10.6448 3.43564 0.04 
337 1 1 0.65418 0.763513 -0.946718 0 0 0 0.981932 1.26813 0.230952 -150.342 180.684 -24.2552 -0.130061 0.414956 -11.3931 0.04 
225 1 1 -0.615667 0.857886 -0.958049 0 0 0 0.748032 -0.489023 -0.858236 0 0 -6.57473 7.27752 15.2627 -4.27518 0.04 
695 1 1 -0.225793 0.85421 -0.947226 0 0 0 1.87903 0.120182 0.311687 0 0 -6.57473 -15.5573 -3.66781 -0.127588 0.04 
640 1 1 -0.116457 0.788079 -0.938919 0 0 0 -0.57131 -1.16282 0.701075 0 0 -6.57473 18.3404 25.8396 2.93261 0.04 
332 1 1 -0.0170664 0.88438 -0.961882 0 0 0 -0.76234 2.48728 0.80553 0.966189 -4.62233 87.8699 14.6725 -3.14172 6.47869 0.04 
200 1 1 0.531603 0.884982 -0.945623 0 0 0 -1.48463 -0.414497 0.732709 -45.9689 -58.0149 -11.7713 -13.2433 11.8134 -19.3761 0.04 
949 1 1 0.936619 0.863056 -0.919628 0 0 0 -1.18606 1.96341 0.809958 0 0 -6.57473 -6.73571 28.668 -15.9791 0.04 
280 1 1 -0.664204 0.913747 -0.918895 0 0 0 -0.261175 -0.840905 -1.9831 42.1937 -152.008 -455.073 11.0804 11.9433 -4.29301 0.04 
24 1 1 -0.326543 0.899426 -0.957835 0 0 0 -1.51863 1.19396 -1.22091 -8.04127 -3.96458 -8.09065 -3.32855 -6.86349 -4.45848 0.04 
929 1 1 0.129289 0.896583 -0.959677 0 0 0 1.25491 -0.0564721 -0.531487 0 0 -6.57473 -9.4321 15.4598 -10.0363 0.04 
407 1 1 0.343273 0.912312 -0.934209 0 0 0 0.761526 1.09751 0.430273 0 0 -6.57473 1.91163 24.1811 -18.7346 0.04 
713 1 1 -0.936017 0.958698 -0.94926 0 0 0 0.34518 0.570741 1.27917 0 0 -6.57473 -19.6993 9.34449 -1.11309 0.04 
292 1 1 -0.584606 0.941553 -0.917639 0 0 0 0.449753 0.549281 1.14424 0 0 -6.57473 -9.78441 -6.71217 -1.3936 0.04 
190 1 1 -0.254826 0.93098 -0.942509 0 0 0 -0.833472 -2.12198 0.245649 8.04127 3.96458 -5.0588 -23.5134 12.8542 11.3624 0.04 