ITEM: TIMESTEP
78400
ITEM: NUMBER OF ATOMS
1500
ITEM: BOX BOUNDS ff ff ff
-1 1
-1 1
-1 1
ITEM: ATOMS id type type x y z ix iy iz vx vy vz fx fy fz omegax omegay omegaz radius 
137 1 1 -0.960113 -0.960145 -0.960203 0 0 0 -2.41271e-05 -4.94442e-06 0.000110907 0.0313809 0.00173359 -0.0209235 0.00262976 -0.00228083 -0.000594959 0.04 
5 1 1 -0.830904 -0.96016 -0.960272 0 0 0 -2.21837e-05 6.37002e-05 7.83798e-05 0.00167935 0.0105567 0.00456314 0.000803531 -0.000157337 0.00146454 0.04 
239 1 1 -0.750991 -0.960147 -0.960248 0 0 0 0.000115606 0.000164501 9.34549e-05 0.000917555 0.00114226 -0.006701 -0.00150692 0.000482202 -0.00165775 0.04 
34 1 1 -0.671036 -0.960042 -0.960243 0 0 0 0.000136575 2.50827e-05 4.13397e-05 -0.00139097 -0.0147923 0.0144704 0.00143187 0.00105938 -0.00253189 0.04 
415 1 1 -0.591094 -0.960031 -0.9603 0 0 0 0.000196324 -0.000126142 -3.67871e-05 -0.0101343 0.00309479 0.0334116 0.0014107 0.00382685 -0.00209293 0.04 
138 1 1 -0.511096 -0.960081 -0.960243 0 0 0 0.000501102 0.000146682 8.80756e-05 0.00962269 0.0191784 -0.0235108 0.000353043 0.0140029 0.0088916 0.04 
323 1 1 -0.431114 -0.960006 -0.960141 0 0 0 0.000773629 0.000218122 -0.000149288 0.0364628 0.0322758 0.0265426 -0.00534825 0.0215844 0.00477433 0.04 
130 1 1 -0.351149 -0.960066 -0.960225 0 0 0 0.00147996 -0.00034722 0.000433029 -0.0466127 -0.0916346 -0.154557 0.011325 0.0406914 -0.036122 0.04 
502 1 1 -0.271202 -0.960088 -0.960303 0 0 0 0.00145898 0.000188704 -0.000469485 -0.0788543 0.0662741 0.129838 0.0058086 0.0532474 -0.030771 0.04 
494 1 1 -0.181091 -0.96016 -0.960217 0 0 0 0.0116249 -0.000253006 -0.000189881 0.221521 0.179297 -0.0189535 0.00359659 0.289881 -0.175741 0.04 
448 1 1 -0.101133 -0.960056 -0.960249 0 0 0 0.0127015 0.00139855 0.00287255 0.200047 0.41434 0.00635455 -0.00272226 0.302376 -0.128732 0.04 
147 1 1 -0.0211652 -0.960041 -0.960256 0 0 0 0.0100621 0.00241284 -0.000866893 0.013323 -0.337418 0.402923 -0.0620989 0.241443 -0.293991 0.04 
218 1 1 0.0592713 -0.960265 -0.960185 0 0 0 0.0359898 -0.00120265 0.00277436 -0.204619 2.24588 -1.35617 0.177365 0.505076 -0.374335 0.04 
339 1 1 0.15342 -0.960115 -0.960283 0 0 0 -0.00686766 -0.00428698 -0.00919406 0.535946 0.0181164 1.83828 0.0218744 -0.236392 0.115787 0.04 
81 1 1 0.233904 -0.960104 -0.960157 0 0 0 -0.00711278 -0.00561731 -0.0055761 0.0856374 1.2228 0.310362 0.076936 -0.360303 0.309443 0.04 
341 1 1 0.313898 -0.960021 -0.960145 0 0 0 -0.0230225 0.00212721 -0.000389184 0.248468 -0.447331 0.030358 -0.0796492 -0.533668 0.2258 0.04 
203 1 1 0.393927 -0.96008 -0.960217 0 0 0 -0.0187758 0.000277668 -0.000972376 -0.499611 -0.0419368 -0.203234 -0.0206369 -0.485923 0.194435 0.04 
1019 1 1 0.474052 -0.960058 -0.960226 0 0 0 -0.00573454 0.000286328 -0.000388851 0.026669 -0.0149017 -0.0716778 -0.0136318 -0.163996 0.151073 0.04 
821 1 1 0.554007 -0.960046 -0.960229 0 0 0 -0.00485193 0.00030743 -2.89952e-05 0.0333888 -0.0302655 0.0505017 -0.00854214 -0.113141 0.0632216 0.04 
636 1 1 0.633973 -0.960474 -0.960205 0 0 0 -0.0043827 0.000173826 -1.45234e-05 0.0105725 0.0181939 0.0456647 -0.00187316 -0.0774801 0.105346 0.04 
729 1 1 0.720244 -0.960012 -0.96016 0 0 0 -2.63863e-05 3.46367e-06 -0.000163936 0.0284245 0.00370119 0.0195542 -0.00249607 -0.00137126 -0.00026473 0.04 
503 1 1 0.80021 -0.960024 -0.960135 0 0 0 -0.000202279 -2.3328e-06 2.08653e-06 0.00597551 -0.00303004 -0.00662217 -9.91251e-05 -0.00666162 0.00590218 0.04 
424 1 1 0.880181 -0.960035 -0.960157 0 0 0 -5.07014e-05 2.41796e-05 -1.87239e-05 -0.00159177 -0.00662223 -0.00447938 -0.000253204 0.00120826 0.00135386 0.04 
850 1 1 0.960102 -0.958942 -0.960221 0 0 0 -9.81999e-05 6.01809e-05 -2.6276e-05 -0.00915849 -0.0119749 -0.0106823 -0.00239716 -0.00228487 -0.000772721 0.04 
778 1 1 -0.959896 -0.880365 -0.960214 0 0 0 2.53459e-05 0.000128576 0.000169916 -0.0410851 0.00974092 0.00388498 -0.00442108 0.0031597 0.00305048 0.04 
918 1 1 -0.880187 -0.897176 -0.96022 0 0 0 -0.000111964 3.87463e-05 8.90792e-05 0.0112025 0.00446484 0.00891601 -0.00135046 0.000194966 5.54829e-05 0.04 
246 1 1 -0.791961 -0.890527 -0.960151 0 0 0 -2.25582e-05 5.56749e-05 0.00021175 -0.027042 -0.00192359 -0.0268125 0.000769968 -0.000569569 -0.00223095 0.04 
586 1 1 -0.711998 -0.890489 -0.960309 0 0 0 6.97435e-05 0.000275722 0.000309552 0.0133146 -0.0101954 -0.0222042 -0.00178918 -0.0015857 0.00774581 0.04 
379 1 1 -0.631018 -0.890655 -0.960189 0 0 0 0.000100487 -0.000191318 0.000336671 0.010352 -0.0218015 0.0123042 0.00244607 0.000988164 -0.00808517 0.04 
105 1 1 -0.55094 -0.890874 -0.960221 0 0 0 -0.001027 0.000101314 1.53197e-05 -0.0644864 0.00996107 0.0540386 -0.000831011 -0.0227692 0.0275984 0.04 
289 1 1 -0.47102 -0.890681 -0.96022 0 0 0 -0.0012003 -0.000371337 -3.22391e-05 0.0724733 0.0692794 -0.0845207 0.00491578 -0.0262802 -0.0209612 0.04 
345 1 1 -0.389022 -0.87028 -0.960118 0 0 0 -0.00263146 -0.00195547 9.81174e-05 -0.00590079 0.00131255 -0.0171822 0.0491342 -0.0651 0.149076 0.04 
209 1 1 -0.31141 -0.890756 -0.960264 0 0 0 0.00413002 -0.00156783 -0.000244547 -0.0918691 -0.0032081 -0.0022493 0.0497653 0.0874718 -0.0383136 0.04 
647 1 1 -0.225981 -0.894198 -0.960222 0 0 0 0.00649253 -0.00336261 0.00053682 -0.112987 0.122607 0.126662 0.0389743 0.0752736 0.131649 0.04 
700 1 1 -0.142283 -0.890296 -0.960168 0 0 0 0.00192032 0.00599853 0.00363415 -0.196583 0.530838 0.476827 -0.149484 0.055402 0.265629 0.04 
616 1 1 -0.0621022 -0.890273 -0.960214 0 0 0 0.00740269 0.00953503 0.00449944 0.286837 0.322825 -0.274873 -0.138999 0.121902 0.226792 0.04 
87 1 1 0.0206141 -0.890507 -0.960188 0 0 0 0.0165137 -0.00335518 0.00915438 1.08808 0.777798 -1.9765 -0.120458 0.174368 0.699637 0.04 
655 1 1 0.106238 -0.895627 -0.960209 0 0 0 0.0168238 0.00883253 0.000238199 0.152156 0.332252 0.326152 -0.146918 0.212587 0.387396 0.04 
977 1 1 0.193646 -0.891044 -0.960197 0 0 0 -0.0179226 -0.00319151 -0.00803089 0.205193 0.600103 0.936162 0.130654 -0.250518 -0.187289 0.04 
19 1 1 0.273787 -0.89083 -0.960212 0 0 0 -0.0267445 -0.00471281 -0.00374544 0.980374 -0.369711 0.157871 -0.0320672 -0.571467 -0.314137 0.04 
443 1 1 0.35397 -0.890791 -0.960226 0 0 0 -0.0139267 0.00202084 0.000705909 -0.0433255 -0.227431 0.135598 -0.0969027 -0.339912 0.00259111 0.04 
664 1 1 0.433963 -0.890924 -0.960256 0 0 0 -0.012021 -0.0035697 0.000271751 -0.352884 -0.167598 0.122027 0.0920223 -0.295245 -0.129248 0.04 
74 1 1 0.594612 -0.891188 -0.960229 0 0 0 -0.00418453 -0.000152285 -0.000391172 0.00689092 0.0307404 0.0226899 0.0113262 0.0260129 -0.100459 0.04 
50 1 1 0.674448 -0.892002 -0.960165 0 0 0 -0.00406506 0.00069434 -4.44646e-05 -0.00516608 0.0279228 -0.039302 -0.0363855 -0.0116725 -0.0981534 0.04 
812 1 1 0.878047 -0.880115 -0.960208 0 0 0 -0.000412159 4.20888e-05 9.8207e-05 -0.0130664 -0.00852782 0.0125409 0.000649631 -0.00516551 0.00732258 0.04 
446 1 1 -0.960236 -0.800678 -0.960213 0 0 0 -0.000111771 -4.56255e-06 5.71337e-05 -0.0103895 0.0122736 0.00809577 -0.000906879 -0.00434047 -0.00277581 0.04 
352 1 1 -0.841056 -0.827426 -0.960338 0 0 0 -0.000153519 6.518e-05 -2.27949e-05 0.0132849 0.0140446 -0.0246938 -0.00210379 -0.00466756 -0.00122303 0.04 
894 1 1 -0.76186 -0.816573 -0.960287 0 0 0 -0.000199512 2.42758e-05 0.000324954 0.00977209 -0.00718049 -0.0131727 0.00187625 -0.00219603 0.00617285 0.04 
960 1 1 -0.681969 -0.816415 -0.960121 0 0 0 -0.000130905 0.000345605 0.000458871 0.0683767 -0.00971328 -0.000250188 -0.00561151 -0.00600223 0.00160332 0.04 
380 1 1 -0.535334 -0.812419 -0.960169 0 0 0 0.000250441 0.000261102 0.000802233 0.0405649 0.025994 -0.0229506 -0.00346937 0.00590758 -0.0185323 0.04 
720 1 1 -0.25918 -0.821622 -0.960272 0 0 0 0.00497816 -0.00389271 -0.000643417 -0.215312 -0.0656583 -0.0252122 0.125155 0.153227 -0.0494311 0.04 
161 1 1 -0.16518 -0.813641 -0.960319 0 0 0 -0.0252628 -0.00515927 0.00232401 -0.39064 0.202284 -0.126879 0.123872 -0.626408 0.231467 0.04 
827 1 1 -0.00949018 -0.816607 -0.960229 0 0 0 -0.0179523 -0.0109122 0.00542464 0.687873 0.511684 -1.14366 0.539695 -0.50028 0.328277 0.04 
784 1 1 0.070203 -0.824322 -0.960302 0 0 0 -0.0111861 -0.00416708 -0.000980837 0.193276 0.354416 -0.462516 0.00956007 -0.334197 0.0355209 0.04 
211 1 1 0.152676 -0.822397 -0.960353 0 0 0 0.00882957 0.00992233 0.00961556 -0.0577339 -0.661011 -0.771328 -0.293463 0.224898 -0.530879 0.04 
121 1 1 0.233496 -0.82176 -0.96018 0 0 0 -0.0165481 -0.00232214 -0.00271743 -0.47782 -0.344346 0.11452 0.135233 -0.371592 0.197655 0.04 
229 1 1 0.383331 -0.816393 -0.960224 0 0 0 -0.00403908 -0.00249685 -0.000752597 0.062286 -0.0362395 -0.102625 0.0828657 -0.0897447 0.0414093 0.04 
396 1 1 0.52091 -0.86077 -0.960264 0 0 0 -0.0032959 0.00108427 -0.00106603 0.0675831 -0.101186 0.090249 -0.0314289 -0.0903152 0.088381 0.04 
866 1 1 0.59409 -0.811407 -0.960286 0 0 0 -0.00127568 -0.000251699 0.000606551 -0.0663923 0.0211229 -0.0294382 0.00983393 -0.0312959 0.0284121 0.04 
628 1 1 0.673895 -0.81229 -0.960202 0 0 0 -0.0011201 0.00063938 8.81661e-05 -0.0549039 0.108926 0.0371569 0.0214381 -0.000636231 0.0188683 0.04 
1 1 1 0.749928 -0.866677 -0.96024 0 0 0 -0.00176491 -0.000991571 0.000117261 -0.0160627 0.0221213 -0.0386516 0.00524707 -0.0108263 0.0320645 0.04 
554 1 1 0.818721 -0.82646 -0.960278 0 0 0 -0.000953198 -0.000228764 0.000161093 -0.00886785 -0.00280425 0.00700806 -0.00639903 0.00692459 -0.0193127 0.04 
417 1 1 0.960149 -0.833978 -0.960256 0 0 0 -5.5538e-05 -9.47155e-06 -5.41888e-05 -0.00872201 -0.010621 0.0157024 5.40605e-05 -0.00145296 -0.00104144 0.04 
282 1 1 -0.889472 -0.763965 -0.960207 0 0 0 -0.000182237 -3.88526e-05 5.86495e-05 0.0308012 0.00712169 -0.0108768 0.00146924 0.00137749 0.00482376 0.04 
492 1 1 -0.810344 -0.753041 -0.960211 0 0 0 -0.0002053 -9.16687e-06 2.33118e-05 -0.0109577 -0.0329059 -0.0158239 0.000138938 -0.000285269 -0.00524591 0.04 
290 1 1 -0.609589 -0.782702 -0.960232 0 0 0 0.00023206 0.000677544 0.000661122 0.0542576 0.0346162 -0.00944777 -0.00746177 -0.00352471 0.00457258 0.04 
52 1 1 -0.453549 -0.78908 -0.960358 0 0 0 0.00474676 0.00193775 -0.00035023 -0.146367 -0.00731866 -0.0062391 -0.0688374 0.137227 -0.0965104 0.04 
480 1 1 -0.375672 -0.77112 -0.960285 0 0 0 0.00424338 -0.0021178 -0.001724 -0.196612 0.223821 -0.0921343 0.0482231 0.10985 0.0524829 0.04 
402 1 1 -0.298132 -0.751646 -0.960141 0 0 0 0.00378475 -0.00474332 0.000213306 -0.168534 0.0491188 0.239781 0.123205 0.0863655 -0.0311188 0.04 
322 1 1 -0.218211 -0.75309 -0.960166 0 0 0 0.00203548 -0.00248233 0.0012981 -0.259223 0.0984654 -0.0658066 0.0679859 0.0716079 0.00120172 0.04 
376 1 1 -0.139827 -0.737831 -0.960154 0 0 0 0.000273539 -0.0110031 0.00159414 -0.288486 0.376654 -0.625467 -0.132398 -0.104487 -0.294133 0.04 
385 1 1 -0.0869523 -0.797596 -0.960232 0 0 0 -0.0218201 -0.0346259 0.00199239 0.573247 -0.243263 0.0710733 0.537159 -0.188326 -0.576775 0.04 
773 1 1 0.0978154 -0.749339 -0.960151 0 0 0 0.0080645 -0.0152125 0.000694482 0.483714 0.715601 -0.801316 0.439745 0.152892 -0.329289 0.04 
725 1 1 0.197855 -0.750304 -0.960198 0 0 0 -0.0243656 -0.0060405 0.00321393 -0.244173 -0.342931 0.682587 0.20523 -0.610485 -0.24793 0.04 
354 1 1 0.307479 -0.791562 -0.960276 0 0 0 -0.00930664 -0.0154067 0.00314925 -0.0247405 0.525929 -0.535688 0.407269 -0.147258 0.0943255 0.04 
688 1 1 0.48736 -0.750802 -0.960188 0 0 0 -0.00512962 -0.00098034 0.000345335 0.125253 0.0124283 -0.281647 0.0398008 -0.143827 0.00925149 0.04 
757 1 1 0.566042 -0.736713 -0.960198 0 0 0 -0.00573943 -0.0025844 0.000241218 0.0532986 -0.0464078 0.031433 0.0599457 -0.0685675 0.00886942 0.04 
519 1 1 0.645867 -0.737574 -0.960252 0 0 0 -0.00498675 -0.000943549 0.00025629 -0.100387 -0.0291685 -0.0591699 -0.013404 -0.0137059 0.0889958 0.04 
742 1 1 0.749393 -0.786713 -0.960237 0 0 0 -0.000242941 -0.000223583 9.92107e-05 0.0131245 0.0263065 -0.0132967 -0.00151599 -0.00500698 -0.00289127 0.04 
603 1 1 0.818378 -0.746589 -0.960127 0 0 0 -8.08113e-05 -3.8198e-05 -2.06276e-05 -0.0100988 -0.0035074 -0.0123481 -0.000775158 -0.00340929 -0.00107214 0.04 
86 1 1 0.891245 -0.793659 -0.960274 0 0 0 -0.000122903 -0.000151992 -6.74558e-05 -0.00115641 -0.00586722 0.00281142 0.00159202 -0.00180761 0.0034952 0.04 
972 1 1 0.960255 -0.753765 -0.960207 0 0 0 -7.54079e-05 -1.39892e-05 -2.28877e-05 0.0159558 -0.00784057 0.00423368 0.000405345 -0.00102632 -4.76284e-05 0.04 
488 1 1 -0.960191 -0.720892 -0.960228 0 0 0 -6.31309e-05 0.000124326 -0.000202143 0.0171433 0.0151815 0.0113712 -0.00185676 0.000689722 0.006579 0.04 
532 1 1 -0.889457 -0.684186 -0.960247 0 0 0 0.000169529 0.00011944 0.00020283 0.00844124 0.0560522 0.0206895 0.0110743 0.000746948 -0.015931 0.04 
564 1 1 -0.744135 -0.708169 -0.960247 0 0 0 -0.000137986 -0.000184562 7.54762e-05 -0.0130848 -0.0260048 0.0184947 0.00334907 -0.00586881 0.00434107 0.04 
314 1 1 -0.666279 -0.726363 -0.960117 0 0 0 -3.98297e-05 0.000226359 0.000321375 -0.00518353 0.0309811 0.0261462 -0.00467778 0.00201145 0.00823016 0.04 
783 1 1 -0.611507 -0.667515 -0.960238 0 0 0 0.00125333 0.000825699 0.000265587 0.0595506 0.0130767 0.0239671 -0.0296818 0.0329962 0.0293912 0.04 
1127 1 1 -0.555286 -0.724271 -0.960243 0 0 0 0.00158225 0.000464264 -0.000214357 0.0399096 0.0519355 -0.00374218 -0.0029487 0.0385442 -0.0275374 0.04 
241 1 1 -0.476329 -0.712572 -0.960201 0 0 0 0.00317704 0.00154025 0.000360046 -0.0591611 0.0893576 -0.119624 0.0628425 0.00598806 0.144002 0.04 
85 1 1 -0.390761 -0.692684 -0.960251 0 0 0 0.00160071 -0.00230096 0.00191005 -0.0435128 0.129641 0.266005 0.0104342 0.0233921 0.0243301 0.04 
511 1 1 -0.31337 -0.673112 -0.960164 0 0 0 0.0030361 -0.00425416 -0.000595647 0.0105515 0.090928 0.213295 0.0829662 0.0880202 -0.0934311 0.04 
873 1 1 -0.233488 -0.674698 -0.960331 0 0 0 0.00352131 -0.00222307 0.00194375 -0.35635 0.24906 0.185279 0.061793 0.10946 0.0721108 0.04 
204 1 1 -0.0622497 -0.718431 -0.960309 0 0 0 0.00347151 -0.0223404 0.00408154 -0.333469 0.223568 -0.0214496 0.567846 0.132779 0.215322 0.04 
1122 1 1 0.0160426 -0.734595 -0.960194 0 0 0 0.00464394 -0.0210618 0.00328567 -0.282153 0.0189762 -0.899781 0.511105 0.12419 -0.460192 0.04 
1088 1 1 0.110433 -0.670342 -0.960266 0 0 0 0.00649667 -0.0171412 0.00195965 0.126519 0.0651104 0.445112 0.376164 0.0809315 0.114461 0.04 
862 1 1 0.2093 -0.671261 -0.960162 0 0 0 0.00181321 -0.00492537 0.00225324 -0.194694 0.0602014 -0.23896 0.0618734 0.00220053 -0.070955 0.04 
967 1 1 0.273126 -0.719378 -0.960223 0 0 0 -0.00366335 -0.0119501 0.00403123 0.161193 -0.325274 0.232652 0.308496 -0.114788 -0.0922912 0.04 
159 1 1 0.35283 -0.725695 -0.960312 0 0 0 -0.00416913 -0.00907346 -0.00330232 -0.280947 -0.500884 -0.1939 0.176752 -0.0848527 0.143095 0.04 
451 1 1 0.440044 -0.686354 -0.960249 0 0 0 -0.00550041 -0.00171678 0.000530354 0.126113 0.0582088 -0.11391 0.0589578 -0.132681 0.0443173 0.04 
177 1 1 0.518666 -0.672521 -0.960199 0 0 0 -0.00653778 -0.00300284 0.000605952 -0.00958237 -0.00917445 -0.0187706 0.0412692 -0.0443019 0.0104246 0.04 
439 1 1 0.749032 -0.706776 -0.960188 0 0 0 1.00176e-05 -1.16628e-05 0.000115266 0.00474892 0.0361413 0.00737272 0.00257508 0.00512756 0.000341137 0.04 
662 1 1 0.818207 -0.666697 -0.960185 0 0 0 0.000225346 7.06286e-05 -9.52419e-05 0.0202038 -0.0341091 -0.0148752 -0.00241255 -0.000193755 -0.00321845 0.04 
188 1 1 0.891081 -0.713769 -0.960245 0 0 0 -5.94721e-05 -2.10398e-05 1.346e-05 0.0153075 -0.0191201 0.00309308 0.000671835 0.00131912 -0.000900535 0.04 
987 1 1 0.960185 -0.673824 -0.960187 0 0 0 -4.48377e-05 -1.08638e-05 -2.88526e-05 0.0162695 -0.00966451 0.00013676 0.000127494 -0.00100776 -0.000457692 0.04 
990 1 1 -0.87848 -0.605267 -0.960238 0 0 0 0.000160607 0.00124968 0.000150166 -0.00263799 0.0207575 0.0826775 -0.0304701 0.00149954 0.0146878 0.04 
826 1 1 -0.811812 -0.665787 -0.960159 0 0 0 0.000276576 -0.000713567 0.000180494 -0.0809963 0.0429477 0.0646017 0.0187808 0.00334406 0.0044147 0.04 
1152 1 1 -0.757244 -0.607436 -0.960243 0 0 0 -0.00101457 -0.000157107 -6.77571e-05 0.00209931 0.12403 -0.00895693 0.00127123 -0.0108302 0.0134667 0.04 
567 1 1 -0.689461 -0.649846 -0.960191 0 0 0 -0.000194054 -0.000167139 0.000536248 -0.0258505 0.0483114 -0.025052 0.00606777 -0.0099646 0.00316353 0.04 
170 1 1 -0.527752 -0.649226 -0.960295 0 0 0 0.00171274 0.000667188 -0.000332378 0.0495776 0.0411799 0.14155 -0.000855354 0.0292685 0.0243749 0.04 
375 1 1 -0.448627 -0.637839 -0.960327 0 0 0 0.00260117 0.00237156 0.00114228 -0.0470241 0.0371548 -0.0444869 -0.0534729 0.0617954 -0.149789 0.04 
709 1 1 -0.369554 -0.615594 -0.960175 0 0 0 0.00616245 -0.00435488 -0.000483426 0.37796 -0.328405 0.19085 0.0654227 0.137768 -0.0342009 0.04 
738 1 1 -0.123833 -0.659628 -0.96027 0 0 0 0.00306988 -0.0136835 -0.000813674 0.166843 -0.112278 -0.101612 0.276465 0.046013 0.0415299 0.04 
1046 1 1 -0.0464105 -0.640029 -0.960215 0 0 0 0.00532476 -0.0230895 -0.000796881 0.12409 -0.0372581 -0.149058 0.36299 0.0265898 -0.0612334 0.04 
581 1 1 0.0318676 -0.65591 -0.960241 0 0 0 0.00575958 -0.0196073 9.27174e-05 0.275727 -0.333839 -0.0103721 0.483 0.0708818 -0.00960846 0.04 
61 1 1 0.160482 -0.608073 -0.960263 0 0 0 -0.00495158 -0.00559308 -0.000195716 -0.211505 -0.355075 -0.0309341 0.0159491 -0.110282 0.029333 0.04 
1052 1 1 0.254593 -0.605402 -0.960209 0 0 0 0.0021879 -0.000661264 -0.000210011 -0.386616 0.142688 -0.0229425 -0.00285487 0.0928662 0.0662062 0.04 
656 1 1 0.318461 -0.653507 -0.96021 0 0 0 -0.00515086 -0.00914838 0.00164672 -0.097872 0.213675 0.234457 0.225749 -0.134498 -0.112933 0.04 
1082 1 1 0.392094 -0.622573 -0.960242 0 0 0 -0.00807881 -0.00355513 0.000971668 0.0709639 -0.0379192 -0.159096 0.0703188 -0.124362 -0.0138951 0.04 
255 1 1 0.470757 -0.608577 -0.960239 0 0 0 -0.00815058 -0.00495547 9.85438e-06 0.0261274 0.018631 -0.0531501 0.0982172 -0.150074 0.0435115 0.04 
880 1 1 0.600632 -0.661155 -0.960202 0 0 0 -0.00146213 0.00104163 -0.000234125 -0.0208696 0.0560695 0.0220447 -0.0221582 -0.0310752 0.0992192 0.04 
308 1 1 0.680455 -0.665728 -0.960191 0 0 0 -0.00171396 -0.0024652 -0.000455544 -0.0598731 -0.165354 0.0375802 0.00745909 0.0239501 -0.179956 0.04 
543 1 1 0.749607 -0.62582 -0.960197 0 0 0 -0.00134331 -0.00303509 -0.000105315 0.0891756 0.0169915 0.00551619 0.0753943 -0.0341452 0.0950571 0.04 
553 1 1 0.890983 -0.633902 -0.960251 0 0 0 2.13618e-05 4.15623e-05 -5.2372e-05 0.0231072 -0.019969 -0.00189017 -0.00104994 0.000176321 -0.000663059 0.04 
260 1 1 -0.959957 -0.596402 -0.960242 0 0 0 -0.00019822 0.00159151 -0.000349455 0.0130613 -0.0124848 0.0212517 -0.0415231 -0.00256524 -0.020119 0.04 
565 1 1 -0.81697 -0.554311 -0.960265 0 0 0 -0.000958613 0.00132311 4.75169e-05 -0.0196687 0.0846304 0.0943002 -0.0250904 -0.0296901 0.0137232 0.04 
1113 1 1 -0.702802 -0.549097 -0.96031 0 0 0 -0.000725943 0.000146908 -0.000445409 0.0747727 0.0710754 0.0314006 0.00461298 -0.0138718 -0.0243022 0.04 
925 1 1 -0.634961 -0.591219 -0.960159 0 0 0 -0.000331068 -0.000334191 2.47701e-05 0.0774543 0.061364 0.126338 0.0123324 -0.00580177 0.029148 0.04 
893 1 1 -0.544738 -0.564812 -0.960176 0 0 0 0.00135547 0.000920607 0.000923894 0.282161 -0.107651 0.0703168 -0.0258745 0.0241577 0.0683141 0.04 
1103 1 1 -0.457058 -0.558709 -0.960331 0 0 0 0.00877719 0.00459207 0.000225278 0.0583461 0.0658161 0.0826133 -0.132011 0.225202 0.208976 0.04 
1448 1 1 -0.380311 -0.536355 -0.960116 0 0 0 0.00945556 -0.00734682 0.00207735 0.787234 0.0541004 -0.143828 0.159327 0.151512 -0.0502193 0.04 
631 1 1 -0.304513 -0.569025 -0.960231 0 0 0 0.0012303 0.00525378 -0.000327285 -0.0551697 0.0618383 -0.126001 -0.145078 0.0248145 0.042919 0.04 
714 1 1 -0.228926 -0.595109 -0.960334 0 0 0 -0.000234465 -0.000767428 -0.00110056 -0.0863494 0.0280328 0.0454932 0.0328449 -0.0174242 0.00384724 0.04 
962 1 1 -0.165127 -0.547078 -0.960199 0 0 0 0.00305678 -0.00203885 -0.000468833 0.173779 0.217368 -0.0868092 0.0651042 0.0799768 -0.144386 0.04 
950 1 1 -0.0893712 -0.572623 -0.960194 0 0 0 -0.00546635 -0.0289394 0.00126269 0.0187665 -0.406573 -0.0930808 0.667813 -0.147602 -0.0255383 0.04 
716 1 1 0.00363594 -0.57774 -0.960232 0 0 0 -0.00827331 -0.012825 0.000564978 -0.095157 -0.140103 -0.0468069 0.280431 -0.174705 -0.0554552 0.04 
388 1 1 0.0819152 -0.593561 -0.960218 0 0 0 -0.00518746 -0.00840693 -0.000203365 -0.279915 -0.120665 -0.123479 0.22396 -0.0789006 0.143705 0.04 
867 1 1 0.20559 -0.542208 -0.960174 0 0 0 -0.00134055 -0.00385331 0.000683171 -0.186712 -0.217956 0.0706871 -0.00387844 0.00728843 -0.00393568 0.04 
576 1 1 0.325129 -0.560331 -0.960221 0 0 0 -0.00394107 -0.00348097 -0.000992321 -0.100541 0.152251 0.0516305 0.0923065 -0.0901613 -0.170615 0.04 
408 1 1 0.405238 -0.543903 -0.960207 0 0 0 -0.00148133 -0.00476224 0.000316819 0.00724525 0.0176852 -0.0187407 -0.0177027 -0.0312843 -0.00724628 0.04 
1026 1 1 0.550137 -0.599148 -0.960232 0 0 0 -0.00789931 -0.00236273 -0.00033457 -0.0362826 0.0285873 -0.0308804 0.0100865 -0.0535665 -0.101273 0.04 
1111 1 1 0.669324 -0.58666 -0.960238 0 0 0 0.00997779 -0.000890286 0.00101314 -0.0281026 -0.0182775 0.0878414 0.01102 0.257999 -0.0980464 0.04 
1138 1 1 0.738618 -0.546729 -0.96023 0 0 0 0.0100774 -0.00101656 2.48943e-05 0.0496453 0.0709722 -0.108157 -0.0279603 0.166513 -0.197579 0.04 
58 1 1 0.813576 -0.574363 -0.960208 0 0 0 0.00460348 -0.0168774 8.10761e-05 0.0223841 -0.130409 0.0157518 0.423133 0.120428 0.0712173 0.04 
1107 1 1 0.890867 -0.554034 -0.960214 0 0 0 6.67982e-05 -4.65889e-05 -5.62288e-05 0.00714324 -0.00121249 0.00531049 0.00108687 -0.000579027 -0.000353652 0.04 
252 1 1 0.96013 -0.593904 -0.960187 0 0 0 4.21627e-06 -1.60555e-05 -1.43413e-05 0.00938136 -0.0062807 0.00590289 0.000590612 -0.000577041 -0.00013826 0.04 
670 1 1 -0.960088 -0.516431 -0.960202 0 0 0 -5.36963e-05 0.0016429 0.000417362 -0.067408 0.0630818 0.0406205 -0.0461186 -0.00754807 0.0377756 0.04 
644 1 1 -0.761103 -0.493002 -0.960272 0 0 0 -0.000936851 -2.80413e-06 0.000256859 -0.0179981 0.0374421 0.0954715 -0.00574685 -0.0100757 0.0053361 0.04 
833 1 1 -0.684147 -0.471593 -0.960242 0 0 0 -0.000569519 0.000391583 -0.000604693 0.0531004 -0.0314923 0.073364 -0.0101903 -0.00519906 0.0106303 0.04 
435 1 1 -0.616122 -0.513595 -0.9603 0 0 0 -0.000391376 2.42189e-05 0.000222329 0.0524294 0.0704706 0.121327 0.00118551 -0.0197056 -0.0197059 0.04 
816 1 1 -0.501228 -0.492413 -0.960297 0 0 0 -0.00124675 -0.00261539 0.000715835 0.179313 0.275657 -0.21783 0.0172662 -0.00215465 -0.103509 0.04 
489 1 1 -0.317814 -0.486484 -0.96025 0 0 0 0.0044249 -0.000189883 -0.00039905 0.222128 -0.0944979 -0.2575 -0.00769457 0.10809 0.104473 0.04 
883 1 1 -0.243943 -0.51677 -0.960189 0 0 0 0.00686741 0.000779605 -0.000604561 -0.0914631 0.0271427 -0.218506 0.0127438 -0.000670632 -0.127536 0.04 
305 1 1 -0.180311 -0.468633 -0.960227 0 0 0 0.00596674 -2.94732e-06 -0.000176614 0.206718 -0.0609124 0.0141567 0.0131527 0.121521 0.121744 0.04 
675 1 1 -0.104688 -0.494145 -0.96021 0 0 0 -0.00249725 -0.0282779 0.00119027 0.0271963 -0.449036 0.225531 0.39089 -0.0845501 -0.23156 0.04 
1066 1 1 -0.0253856 -0.503365 -0.960281 0 0 0 0.00123641 -0.00745662 1.68085e-05 0.00680171 -0.058637 -0.153922 0.190057 0.0370384 0.018728 0.04 
143 1 1 0.0568682 -0.517623 -0.960138 0 0 0 -0.00298912 -0.00777648 0.0011533 -0.301702 -0.132481 0.594039 0.1905 -0.085647 -0.156627 0.04 
1346 1 1 0.153466 -0.48162 -0.960228 0 0 0 -0.00117468 -0.00225646 0.000727846 -0.070666 -0.233877 0.0829042 0.0566853 -0.027351 -0.0256979 0.04 
1000 1 1 0.273138 -0.499581 -0.96024 0 0 0 -0.00242441 -0.00172523 -0.000694038 -0.142006 -0.0884507 -0.0490223 0.039966 -0.0504617 -0.00565782 0.04 
792 1 1 0.35166 -0.484752 -0.960231 0 0 0 -0.00180163 -0.00568822 0.000183325 -0.0215813 0.0455385 -0.00891632 0.124968 -0.0419195 -0.0194419 0.04 
1361 1 1 0.43205 -0.468637 -0.960205 0 0 0 3.27012e-05 -0.00499819 2.68993e-05 0.0201457 -0.000347689 -0.0177122 0.126798 -0.00412593 0.0197129 0.04 
814 1 1 0.483872 -0.529803 -0.960263 0 0 0 -0.00140361 -0.00596434 -0.000182055 0.0323662 -0.01948 0.0210923 0.14968 -0.0327133 -0.038443 0.04 
1288 1 1 0.585327 -0.527499 -0.960219 0 0 0 0.00603172 -0.00824719 -5.61171e-05 -0.00563748 0.0345554 -0.014239 0.118173 0.160805 -0.133696 0.04 
908 1 1 0.669516 -0.506822 -0.9602 0 0 0 0.00996932 -0.000750033 -0.000113042 0.0598126 -0.00859617 -0.00864884 -0.0479714 0.0527213 0.115082 0.04 
1309 1 1 0.798583 -0.493915 -0.960278 0 0 0 0.00785203 0.00121373 -3.58998e-06 0.0241715 0.0161107 0.0119356 -0.0258333 0.199695 0.137275 0.04 
9 1 1 0.890904 -0.474142 -0.96018 0 0 0 6.07181e-05 -0.000137702 -7.99812e-06 0.0190277 0.0145512 -0.0227064 0.00131657 -0.000458449 0.00216013 0.04 
771 1 1 0.960107 -0.514024 -0.960225 0 0 0 3.07999e-05 -1.91756e-05 6.99021e-05 0.00938809 -0.00169559 0.00186586 0.00115755 0.000304987 0.000111149 0.04 
1055 1 1 -0.960049 -0.424145 -0.960208 0 0 0 0.000665123 0.00633779 0.000915279 -0.0610914 0.225493 -0.0160704 -0.162138 0.0225775 0.0382523 0.04 
739 1 1 -0.890702 -0.46395 -0.960234 0 0 0 -0.000349754 0.00347243 0.00042769 -0.0653076 0.234932 0.116811 -0.0623737 -0.00711838 0.0236018 0.04 
1142 1 1 -0.821521 -0.423948 -0.960249 0 0 0 7.87695e-05 0.00235101 -4.22322e-05 -0.0707163 0.0558338 0.0680596 -0.0589235 0.00721813 3.90763e-05 0.04 
613 1 1 -0.636336 -0.407819 -0.960392 0 0 0 -0.000582394 0.000210207 -0.000838473 -0.0395586 -0.0179143 0.197074 0.00161258 -0.0171039 -0.00439089 0.04 
620 1 1 -0.568363 -0.449481 -0.960156 0 0 0 0.000323455 0.000796537 0.000307524 0.0242375 0.0582158 0.0845826 -0.0246062 -0.00116692 0.0106908 0.04 
1316 1 1 -0.468995 -0.419447 -0.96032 0 0 0 0.00587454 -0.00469424 0.00173281 -0.169323 0.268448 -0.207069 0.115456 0.159344 -0.0167759 0.04 
344 1 1 -0.395706 -0.457885 -0.960186 0 0 0 0.0234256 -0.00164381 -0.00051402 -0.295361 0.14294 -0.502783 -0.00722236 0.579954 0.111633 0.04 
247 1 1 -0.328446 -0.407292 -0.960282 0 0 0 0.00419631 0.000543259 -0.00151972 0.0416065 -0.254164 -0.123825 -0.0314466 0.0945656 -0.0927873 0.04 
382 1 1 -0.254477 -0.437518 -0.960271 0 0 0 0.00468783 -0.000119405 2.57064e-05 -0.038221 0.0090825 -0.323783 0.0173972 0.122799 -0.00935843 0.04 
1271 1 1 -0.102348 -0.414206 -0.960342 0 0 0 -0.0111457 -0.0270548 0.000579251 -0.181161 -0.268625 0.102763 0.435894 -0.129273 0.287698 0.04 
1249 1 1 0.02737 -0.443299 -0.960232 0 0 0 0.00225758 -0.00666384 3.61841e-05 -0.0304461 -0.086864 -0.224826 0.167131 0.0513756 0.120417 0.04 
1030 1 1 0.103529 -0.419245 -0.960276 0 0 0 -1.41047e-05 -0.000115916 -0.000504356 -0.0437289 -0.0122437 -0.0267548 0.0102396 -0.0033592 -0.0212472 0.04 
1148 1 1 0.22105 -0.43895 -0.960341 0 0 0 -0.00142416 -0.00125143 -0.000173884 -0.0487028 0.0168629 -0.000224385 0.0379322 -0.0260916 -0.0239027 0.04 
772 1 1 0.299594 -0.424157 -0.960217 0 0 0 -0.000365268 -0.00390228 0.000779103 -0.0181885 0.050022 -0.00532495 0.0686635 0.00213805 -0.0462689 0.04 
845 1 1 0.378143 -0.409383 -0.960234 0 0 0 0.000149613 -0.00656756 0.000247017 -0.00942567 0.0699809 -0.0306742 0.163844 0.00269581 -0.0396848 0.04 
584 1 1 0.533054 -0.466954 -0.960211 0 0 0 0.0038512 -0.0101648 0.000137677 0.035938 -0.0211173 0.0634569 0.20913 0.0591784 -0.0338693 0.04 
1047 1 1 0.611509 -0.452121 -0.960196 0 0 0 0.00314786 -0.00660236 0.000237142 -0.00730516 -0.0577339 0.0326148 0.0263132 -0.0194537 0.121461 0.04 
1474 1 1 0.687809 -0.429076 -0.960245 0 0 0 0.00091895 0.0016677 -0.000123252 0.0158512 -0.0126793 -0.00381651 -0.0405797 0.023959 0.072032 0.04 
840 1 1 0.767013 -0.420542 -0.960222 0 0 0 0.00123825 -0.0013123 8.31457e-05 0.0398934 -0.0192196 0.0189227 -0.00689846 -0.0194089 0.000797896 0.04 
852 1 1 0.960069 -0.434078 -0.960238 0 0 0 -3.08241e-05 1.05486e-05 4.17403e-05 0.00155691 0.00596237 -0.0145741 -0.00126101 -0.000819081 0.00113674 0.04 
982 1 1 -0.960086 -0.344132 -0.960225 0 0 0 0.000904345 0.00824385 -0.000257182 -0.00596134 0.0795798 -0.106197 -0.208103 0.0312364 0.0959316 0.04 
326 1 1 -0.890805 -0.384006 -0.96022 0 0 0 0.000482363 0.00519228 0.000115236 -0.0380032 0.244148 -0.0616176 -0.135763 0.0164491 -0.0764887 0.04 
1215 1 1 -0.821553 -0.34394 -0.960208 0 0 0 0.000693236 0.00477383 0.000645739 -0.00266543 0.196141 0.00763718 -0.117909 0.0260996 -0.0474716 0.04 
1246 1 1 -0.748616 -0.391173 -0.960134 0 0 0 -0.00189469 0.0060486 -0.000512328 -0.0347598 0.153865 -0.141503 -0.15694 -0.0430664 -0.0114325 0.04 
969 1 1 -0.684089 -0.343954 -0.960204 0 0 0 0.000713784 0.00224668 -0.000927574 -0.124371 0.0215433 -0.161766 -0.02678 0.0285716 -0.0640782 0.04 
230 1 1 -0.604898 -0.334594 -0.960252 0 0 0 0.000706207 -0.000927638 -0.00091113 -0.088848 -0.0719392 0.082162 -0.0315495 -0.0376224 -0.0172924 0.04 
857 1 1 -0.533702 -0.372481 -0.960173 0 0 0 0.00635207 -0.00459684 -0.000233184 -0.196974 0.112922 0.0283357 0.113418 0.179478 -0.143171 0.04 
92 1 1 -0.401931 -0.376285 -0.960217 0 0 0 0.00274716 -0.000530067 -0.00105679 0.0124423 -0.0712505 -0.180404 0.0318761 0.00966735 0.108906 0.04 
1124 1 1 -0.265384 -0.358295 -0.960263 0 0 0 0.00572418 0.000400756 0.000402798 -0.153805 0.19398 -0.191881 -0.0166444 0.132612 -0.00990961 0.04 
868 1 1 -0.190525 -0.38953 -0.960262 0 0 0 0.00558761 0.000631351 -0.000173173 -0.0321054 -0.0392131 -0.170007 -0.022083 0.132567 -0.137548 0.04 
1010 1 1 -0.126372 -0.338 -0.96021 0 0 0 0.0013076 -0.021514 1.14321e-05 0.0252456 -0.116075 -0.323542 0.40752 0.00847639 -0.377288 0.04 
1223 1 1 -0.0216702 -0.37286 -0.960216 0 0 0 0.000495443 -0.00538593 -0.0011958 -0.0430785 -0.104457 0.0822638 0.138226 0.0106157 0.0767594 0.04 
144 1 1 0.0562321 -0.354858 -0.960201 0 0 0 -0.000326719 -0.000914768 -0.000205642 -0.028464 0.0409364 -0.0551172 0.0306455 -0.00490795 0.0455504 0.04 
315 1 1 0.16819 -0.37242 -0.960126 0 0 0 0.00117712 -0.00208968 8.57582e-05 0.111312 0.0450764 0.0627958 0.0452314 0.0322072 -0.0568729 0.04 
1187 1 1 0.247601 -0.363555 -0.96024 0 0 0 0.00139762 -0.0027671 4.18633e-05 0.0430725 0.0560204 0.0228045 0.0443037 0.00720948 -0.0398376 0.04 
220 1 1 0.326105 -0.348699 -0.96022 0 0 0 0.00162726 -0.00504266 0.000189349 0.0310498 0.0014996 0.0280284 0.125439 0.0337055 -0.00963592 0.04 