ITEM: TIMESTEP
76800
ITEM: NUMBER OF ATOMS
1500
ITEM: BOX BOUNDS ff ff ff
-1 1
-1 1
-1 1
ITEM: ATOMS id type type x y z ix iy iz vx vy vz fx fy fz omegax omegay omegaz radius 
137 1 1 -0.960113 -0.960144 -0.960205 0 0 0 2.3287e-05 -3.86682e-05 -4.85199e-05 0.00277227 -0.000668284 -0.00151457 0.00139608 0.002274 -0.000928045 0.04 
5 1 1 -0.830905 -0.960159 -0.960274 0 0 0 -0.000115947 -1.77523e-05 -0.000124847 0.0128973 -0.00121531 0.0504616 -0.00216772 -0.000492874 0.00169902 0.04 
239 1 1 -0.750994 -0.960148 -0.960249 0 0 0 -0.000152687 5.61604e-06 -0.000221969 0.00853366 0.00267774 0.0302862 -0.00219042 0.000827631 0.00473849 0.04 
34 1 1 -0.67104 -0.960043 -0.960244 0 0 0 -9.98097e-05 -1.32137e-05 -1.56619e-05 0.0337602 0.0233765 0.0439475 0.00199232 -0.00569482 -0.00452005 0.04 
415 1 1 -0.591099 -0.960028 -0.9603 0 0 0 0.000132312 -0.000161689 0.000201588 0.0192752 0.0922201 0.0353343 0.00133071 0.00147586 0.00371239 0.04 
138 1 1 -0.511112 -0.960085 -0.96024 0 0 0 0.00018299 3.24647e-05 -0.00033797 -0.0487735 0.0370597 -0.088458 -0.00846636 0.0132733 0.00142076 0.04 
323 1 1 -0.431141 -0.960005 -0.960141 0 0 0 -7.7003e-05 0.000199131 -0.000809016 0.0322353 -0.0827713 0.0532201 -0.00172872 -0.00193941 -0.00901774 0.04 
130 1 1 -0.351195 -0.960065 -0.960236 0 0 0 9.07324e-05 -0.000161612 -0.000175497 0.0406251 0.0955332 -0.0246369 -3.48045e-05 -0.00908274 -0.00141279 0.04 
502 1 1 -0.271288 -0.9601 -0.960284 0 0 0 0.00117336 0.000193557 -0.000789568 0.0849933 -0.0389493 -0.0999042 -0.0199241 0.0432139 -0.0412153 0.04 
494 1 1 -0.182057 -0.960218 -0.960228 0 0 0 0.00661343 0.00114256 -0.00142659 0.210711 0.126701 -0.300036 -0.080981 0.129408 -0.0832369 0.04 
448 1 1 -0.102121 -0.960044 -0.960265 0 0 0 0.0081885 0.000764377 -0.000674632 -0.11984 -0.240555 0.235013 -0.0375627 0.214444 -0.0471808 0.04 
147 1 1 -0.0221589 -0.960024 -0.960222 0 0 0 0.00914806 -0.00024188 -0.00306446 -0.0910581 -0.0800146 -0.195213 0.0265463 0.378807 -0.0273601 0.04 
218 1 1 0.0581122 -0.960027 -0.960124 0 0 0 0.0288905 -0.00562032 -0.00175449 -2.90838 -1.62558 0.119971 0.00275849 0.580959 0.171758 0.04 
339 1 1 0.154303 -0.960034 -0.960111 0 0 0 -0.0391561 -0.00210234 -0.00927918 1.49842 -1.19248 -0.189513 -0.063128 -0.305123 0.0118493 0.04 
81 1 1 0.234687 -0.960148 -0.960225 0 0 0 -0.00803834 -0.00269795 -0.00516237 0.0924208 -0.327054 0.0688073 -0.0628039 -0.252853 0.204623 0.04 
341 1 1 0.314635 -0.960111 -0.96017 0 0 0 -0.00819149 -0.000975851 -0.000907599 0.174582 0.137548 0.182151 0.0235772 -0.193025 0.0470984 0.04 
203 1 1 0.394524 -0.960064 -0.960223 0 0 0 -0.00840359 -0.00127899 -0.000367824 0.300352 -0.0617877 0.0208456 0.0237776 -0.190612 0.109522 0.04 
1019 1 1 0.474458 -0.96006 -0.960216 0 0 0 -0.00805519 0.000439604 0.000501115 0.126882 -0.0210713 -0.254607 -0.020826 -0.203432 0.160848 0.04 
821 1 1 0.554349 -0.960056 -0.96022 0 0 0 -0.00682043 0.000978071 0.000788433 -0.160844 -0.0336642 -0.0141948 -0.0326851 -0.105603 -0.0573686 0.04 
636 1 1 0.634232 -0.96049 -0.960203 0 0 0 -0.00283674 4.88739e-05 -0.000353414 -0.238303 0.04926 0.016839 0.00215201 -0.033187 0.0492894 0.04 
729 1 1 0.720261 -0.960013 -0.960161 0 0 0 -0.000709124 0.000346972 -0.000226212 0.0194921 -0.0284339 -0.0141231 -0.00751387 -0.0203883 0.0188893 0.04 
503 1 1 0.800226 -0.960025 -0.960133 0 0 0 -0.000456718 8.21402e-05 -8.4214e-05 -0.052368 0.00121549 -0.00583747 -0.000770436 -0.0135848 -0.00860116 0.04 
424 1 1 0.880187 -0.960036 -0.960156 0 0 0 -0.000151608 3.72923e-07 2.2747e-05 -0.0185003 -0.00814904 0.000786305 -0.00081563 -0.00117807 0.00426998 0.04 
850 1 1 0.960103 -0.958944 -0.960222 0 0 0 -2.21938e-05 4.41557e-05 2.15571e-05 -0.00329094 0.0118102 -0.0116582 0.000187568 -8.74968e-06 -0.0023205 0.04 
778 1 1 -0.959898 -0.880363 -0.960216 0 0 0 -0.000269539 7.74512e-05 5.48312e-05 0.0138871 0.000553782 0.0425233 -0.00139227 -0.00785779 0.00609359 0.04 
918 1 1 -0.880182 -0.897172 -0.960222 0 0 0 -7.4512e-05 -0.000122999 -8.68122e-05 -0.0205088 -0.019992 0.0326558 0.00593893 -0.00519606 -0.0015955 0.04 
246 1 1 -0.791968 -0.890521 -0.960153 0 0 0 -0.000117125 -3.47932e-05 -8.60469e-05 0.00556654 0.0102497 0.0192645 0.00218595 -0.00327774 -0.00530599 0.04 
586 1 1 -0.712005 -0.890483 -0.960314 0 0 0 -0.000220651 -0.000280518 -9.34179e-05 0.0148835 0.0161991 -0.00954378 0.00988638 -0.00431252 -0.00742072 0.04 
379 1 1 -0.631027 -0.890629 -0.960184 0 0 0 -0.000168873 -0.00123798 -0.000237392 0.0551496 -0.0194286 -0.0270394 0.0241628 -0.00229972 0.0331294 0.04 
105 1 1 -0.550922 -0.89087 -0.960213 0 0 0 -0.000294304 -0.000454082 -0.000406564 0.0622948 0.129382 -0.0202247 0.0128996 -0.0216579 0.0252849 0.04 
289 1 1 -0.470986 -0.890648 -0.960202 0 0 0 0.000155089 0.00106077 0.000261382 0.00559673 0.00323494 -0.0365137 -0.0290394 0.00756828 0.0171385 0.04 
345 1 1 -0.388827 -0.87012 -0.960118 0 0 0 -0.00145529 -0.00221178 -0.000296589 -1.83117e-05 7.20848e-06 -0.0183854 0.0553773 -0.0364299 0.153825 0.04 
209 1 1 -0.311508 -0.890725 -0.960278 0 0 0 -0.00205293 0.00161833 0.00123901 -0.321433 0.162024 0.116719 -0.0333415 -0.0662856 0.0735607 0.04 
647 1 1 -0.226454 -0.894002 -0.960165 0 0 0 0.00280851 -0.000302454 -0.00309539 0.162662 0.244642 0.273993 -0.0152042 0.0264647 0.187948 0.04 
700 1 1 -0.142376 -0.890876 -0.96017 0 0 0 -0.00242005 0.00606706 0.00184817 -0.0495203 0.64195 0.13944 -0.0851903 -0.0419916 0.0619045 0.04 
616 1 1 -0.0623228 -0.890697 -0.96023 0 0 0 0.0026727 0.00484746 -0.000643599 0.263279 0.121738 0.170769 -0.141086 0.0471119 -0.108368 0.04 
87 1 1 0.0200781 -0.889638 -0.960174 0 0 0 0.00108625 -0.0177352 0.00779721 0.583605 -0.0102099 -0.0697115 0.4908 -0.00668858 -0.30165 0.04 
655 1 1 0.106174 -0.896218 -0.960354 0 0 0 -0.000875345 0.015233 -0.00169214 0.524464 2.12926 2.45254 -0.0589259 -0.0869307 -0.0289247 0.04 
977 1 1 0.194633 -0.890985 -0.960204 0 0 0 -0.0175509 -0.0061939 0.00627722 -1.39447 -0.651622 0.320509 0.0683094 -0.207622 -0.237082 0.04 
19 1 1 0.274644 -0.891018 -0.960267 0 0 0 -0.00626569 -0.00117808 -0.0042598 -0.245027 0.0149507 0.336381 0.030951 -0.126032 -0.115467 0.04 
443 1 1 0.354568 -0.890777 -0.960228 0 0 0 -0.00679779 -0.00173378 -0.00100123 0.0456354 0.0972615 -0.0782682 0.0487996 -0.158356 0.102966 0.04 
664 1 1 0.434502 -0.89085 -0.960243 0 0 0 -0.00988875 -6.18715e-05 -7.16012e-05 0.396363 -0.128823 0.0450416 -0.00193827 -0.258196 -0.129935 0.04 
74 1 1 0.594863 -0.891167 -0.960212 0 0 0 -0.00219155 -0.000345758 -0.00045733 -0.150031 -0.0582793 -0.0648024 0.00397696 0.00761405 -0.0468969 0.04 
50 1 1 0.674669 -0.892072 -0.960169 0 0 0 -0.00178375 0.000809695 -0.00041134 -0.126343 0.0216974 -0.0188648 -0.0109677 -0.00560364 -0.0458197 0.04 
812 1 1 0.878066 -0.88012 -0.960211 0 0 0 -8.66643e-05 1.13708e-05 4.7008e-05 -0.021008 0.0113731 0.0108792 0.000684497 3.355e-05 -0.00531418 0.04 
446 1 1 -0.960236 -0.800677 -0.960212 0 0 0 -6.97464e-05 -1.2438e-05 7.63634e-05 0.0291145 0.0132801 0.0122124 0.00064644 -0.00207318 -0.00265945 0.04 
352 1 1 -0.841058 -0.827413 -0.960339 0 0 0 -5.36348e-05 -0.000105753 -8.20651e-05 0.00410487 -0.0208266 0.00888718 0.00319302 0.00027936 0.0120217 0.04 
894 1 1 -0.761861 -0.816565 -0.960287 0 0 0 6.5954e-05 -0.000388317 9.91762e-05 -0.0136448 -0.0156911 -0.000338126 0.00274092 0.00368447 -0.00295588 0.04 
960 1 1 -0.681968 -0.816411 -0.960116 0 0 0 -0.000178962 0.000161953 6.1869e-05 -0.0225054 0.0360672 -0.0544938 -0.0116446 -0.00431643 0.0108331 0.04 
380 1 1 -0.535349 -0.812408 -0.96017 0 0 0 -0.00107474 -0.000416644 -0.000226629 -0.185187 0.101618 -0.086436 0.00415525 -0.0292303 -0.00831788 0.04 
720 1 1 -0.259372 -0.821421 -0.960351 0 0 0 -0.0074024 0.00193412 -0.000256666 0.377648 -0.438683 0.389649 0.0191768 -0.170823 -0.021535 0.04 
161 1 1 -0.162716 -0.813512 -0.960284 0 0 0 -0.0394148 0.00110653 -0.00254274 -1.29031 -0.0135652 -0.510039 -0.0485337 -0.745062 0.862764 0.04 
827 1 1 -0.0072024 -0.810995 -0.960295 0 0 0 -0.0341891 -0.0515041 0.00725546 1.39564 -0.48143 -0.459946 1.16611 -0.948461 0.411069 0.04 
784 1 1 0.0716334 -0.824125 -0.960182 0 0 0 -0.0196618 -0.00151067 0.00506027 0.262733 -0.535315 0.117149 -0.114586 -0.560793 0.445476 0.04 
211 1 1 0.151758 -0.822933 -0.960088 0 0 0 -0.0321906 -0.00385402 0.00161812 0.0815968 7.98224e-05 -1.6933 0.0964439 -0.858285 -0.395365 0.04 
121 1 1 0.234762 -0.821892 -0.960295 0 0 0 -0.00440933 -0.00269666 -0.000350474 -0.737502 -0.232671 0.42758 0.0785371 -0.0196954 0.0294198 0.04 
229 1 1 0.383835 -0.816171 -0.960216 0 0 0 -0.00283699 -0.00531048 -0.000289702 -0.0621942 0.0712135 -0.100613 0.116462 -0.0804285 0.0197677 0.04 
396 1 1 0.52108 -0.860927 -0.960257 0 0 0 -0.000811421 0.00136088 0.000632113 -0.000839333 -0.0801485 0.103478 -0.0397211 -0.0160204 -0.0119172 0.04 
866 1 1 0.594175 -0.811385 -0.960297 0 0 0 -0.00112137 -0.000260252 -0.000228917 -0.0436913 -0.000641087 -0.00369936 0.00324258 -0.0126153 0.0360601 0.04 
628 1 1 0.673972 -0.812351 -0.960214 0 0 0 -0.000862911 0.000546865 0.000269488 -0.0565938 0.0367039 0.0433456 -0.0155801 -0.0113742 -0.00864138 0.04 
1 1 1 0.750008 -0.86663 -0.960239 0 0 0 -0.000390792 -0.000148793 -0.000273071 -0.021567 -0.0421511 -0.00145574 0.00211263 -0.00771461 0.00527782 0.04 
554 1 1 0.818761 -0.826457 -0.960279 0 0 0 -0.000159825 9.09759e-05 4.14283e-05 -0.0187037 -0.00647471 0.00233321 0.0015237 -0.00343739 0.00146737 0.04 
417 1 1 0.960154 -0.833979 -0.960255 0 0 0 4.30144e-05 -0.000160527 0.000214635 -0.0225605 0.0202916 0.00802993 0.00252815 0.002614 0.00459027 0.04 
282 1 1 -0.889472 -0.763961 -0.960208 0 0 0 0.00010169 -0.000334676 1.84641e-05 -0.0186758 0.0167714 -0.013254 0.00573078 0.00366015 -0.0150824 0.04 
492 1 1 -0.810346 -0.753029 -0.960212 0 0 0 6.54222e-05 -0.000685846 0.000197718 0.0111412 0.0365115 -0.033468 0.0200633 -0.00115836 0.0110521 0.04 
290 1 1 -0.609586 -0.782687 -0.960227 0 0 0 -0.000283566 -5.61592e-05 -0.000176455 -0.0603679 -0.0139516 -0.0707519 0.00229167 0.00370293 -0.00317315 0.04 
52 1 1 -0.453588 -0.789236 -0.960364 0 0 0 -0.00736259 0.00220561 0.00134976 -0.0903119 -0.0131232 -0.212389 -0.0541731 -0.179983 0.16086 0.04 
480 1 1 -0.375819 -0.771096 -0.96027 0 0 0 -0.00703051 0.00162706 0.00231909 0.24532 0.00780108 0.439063 -0.0415657 -0.0923536 -0.136951 0.04 
402 1 1 -0.298377 -0.751598 -0.960142 0 0 0 -0.00512497 0.00166517 0.000153462 0.734001 -0.34515 -0.298216 -0.0637489 -0.0151122 -0.0211689 0.04 
322 1 1 -0.21855 -0.75289 -0.960189 0 0 0 -0.00477449 0.00539115 -0.000596046 0.227392 -0.0520803 -0.229652 -0.13996 -0.103682 0.155036 0.04 
376 1 1 -0.140435 -0.736768 -0.960186 0 0 0 -0.00427257 -0.00481622 0.00232052 0.157019 0.0985297 -0.345952 0.0290844 -0.0661479 -0.42031 0.04 
385 1 1 -0.0852071 -0.794381 -0.960221 0 0 0 -0.0354877 -0.0250667 0.00168593 1.10156 -0.253823 0.0225109 0.397776 -0.362394 -0.535556 0.04 
773 1 1 0.0965335 -0.748249 -0.96017 0 0 0 0.00793086 -0.00361706 -0.00301268 0.299456 -0.676039 0.112473 0.0183305 0.222977 -0.536335 0.04 
725 1 1 0.19926 -0.750382 -0.960251 0 0 0 -0.00686889 -0.00275886 0.00256487 -0.143902 -0.0646632 0.309088 0.0604188 -0.174051 0.0594465 0.04 
354 1 1 0.308226 -0.790758 -0.960283 0 0 0 -0.00313047 -0.00414164 -0.00256856 -0.190207 -0.116389 0.230912 0.0845485 -0.0642384 -0.0348118 0.04 
688 1 1 0.487716 -0.750703 -0.960189 0 0 0 -0.00343173 -0.00283668 -0.000342861 0.105103 0.0397063 -0.0813951 0.0730046 -0.07875 0.115025 0.04 
757 1 1 0.56636 -0.736574 -0.9602 0 0 0 -0.00260107 -0.00107911 3.73158e-05 -0.0515318 0.0042539 0.0970013 0.025076 -0.0416345 0.0131556 0.04 
519 1 1 0.646159 -0.737547 -0.960241 0 0 0 -0.00110131 -0.000104773 8.16601e-05 -0.0557127 -0.0072494 -0.0923708 0.00330041 -0.0171925 0.0106581 0.04 
742 1 1 0.749434 -0.786705 -0.960231 0 0 0 -0.000302522 2.70716e-05 3.79988e-05 -0.00645323 -0.0168917 0.0267385 0.000553615 0.000617911 -0.00188644 0.04 
603 1 1 0.818402 -0.746585 -0.960124 0 0 0 -4.7297e-05 -2.63056e-05 7.2776e-05 -0.0158362 -0.0172889 -0.020034 -0.000225698 0.000307946 0.000430577 0.04 
86 1 1 0.891255 -0.793657 -0.960277 0 0 0 6.31588e-05 4.96771e-05 0.000191655 -0.0138207 0.022322 0.0039164 -0.00294937 0.000621045 -0.00594058 0.04 
972 1 1 0.96026 -0.753765 -0.960208 0 0 0 0.0001629 -8.20928e-05 9.04618e-05 -0.00749816 0.0126058 0.0172372 0.00126281 0.00325447 0.00191879 0.04 
488 1 1 -0.960189 -0.720892 -0.960226 0 0 0 4.26185e-05 -0.000187263 0.000282149 0.0110422 0.0122025 0.0314596 0.00111762 -0.0026207 -0.00116464 0.04 
532 1 1 -0.889444 -0.684183 -0.960246 0 0 0 3.9094e-06 -0.000133516 1.28184e-05 0.0227528 0.00714934 0.0515346 0.00273024 0.00749472 0.00615243 0.04 
564 1 1 -0.744135 -0.708149 -0.960245 0 0 0 -0.000162855 -0.000482253 0.000203253 -0.0405729 0.0252102 -0.00725614 0.00352604 -0.00517014 0.00256691 0.04 
314 1 1 -0.666283 -0.726355 -0.960118 0 0 0 0.000416754 0.00014923 0.000146334 -0.0281094 0.0290257 -0.0688056 -0.00842821 0.0251291 -0.00498189 0.04 
783 1 1 -0.611491 -0.667524 -0.960241 0 0 0 -0.00160375 -0.000250616 -0.000684434 -0.162706 0.0687396 0.0158734 0.00827726 -0.0227537 -0.0495372 0.04 
1127 1 1 -0.555264 -0.724254 -0.960246 0 0 0 -0.00340918 0.000723325 -0.00114595 -0.212523 -0.0239306 -0.0581133 -0.0135455 -0.00217523 0.0361813 0.04 
241 1 1 -0.47633 -0.712709 -0.960245 0 0 0 -0.00503418 0.00262569 -0.00124375 0.106679 -0.0142697 0.049042 -0.048685 -0.162469 -0.0402682 0.04 
85 1 1 -0.39041 -0.692583 -0.960217 0 0 0 -0.00159208 0.000502887 0.000814789 -0.132455 -0.11313 0.363498 -0.0138253 -0.0362897 0.0961371 0.04 
511 1 1 -0.312933 -0.672975 -0.960167 0 0 0 -0.00207909 0.00092114 0.00068736 0.194649 -0.42022 -0.0112274 -0.0359101 -0.0259424 -0.0520909 0.04 
873 1 1 -0.232017 -0.674248 -0.960353 0 0 0 -0.0472885 -0.000563916 -0.0006332 0.308883 0.150429 0.307011 -0.00337344 -1.22949 -0.437524 0.04 
204 1 1 -0.0630024 -0.717014 -0.960233 0 0 0 -0.0028455 -0.0139091 -0.00139598 0.598356 -0.0954311 -0.543802 0.356794 -0.0594193 -0.106527 0.04 
1122 1 1 0.0153516 -0.732959 -0.960262 0 0 0 -0.00409513 -0.0141883 0.00154951 -0.0280315 -0.179371 0.0790027 0.357522 -0.108238 -0.151708 0.04 
1088 1 1 0.109981 -0.669487 -0.960253 0 0 0 0.00549328 -0.00677382 0.0020003 0.207826 0.0173376 0.199007 0.174725 0.153277 0.168168 0.04 
862 1 1 0.209384 -0.67114 -0.960205 0 0 0 -0.00152563 -0.00148129 -0.00208339 0.0347434 0.1144 0.345373 0.0130463 -0.0330399 -0.0698134 0.04 
967 1 1 0.273608 -0.718746 -0.960164 0 0 0 -0.0036244 -0.00471352 -0.000154772 0.0933764 0.030201 0.235202 0.123261 -0.109358 -0.0104765 0.04 
159 1 1 0.353418 -0.724826 -0.960332 0 0 0 -0.00345438 -0.00397628 -0.00092978 -0.0243719 -0.0751142 0.260593 0.0929182 -0.0897655 0.0374791 0.04 
451 1 1 0.440465 -0.686176 -0.960262 0 0 0 -0.00447871 -0.00426262 -6.81334e-05 -0.0298834 0.162512 0.0805937 0.114296 -0.125408 0.0567118 0.04 
177 1 1 0.519064 -0.672301 -0.960206 0 0 0 -0.00430078 -0.00230334 -0.000140985 -0.0396655 -0.0161666 -0.0566238 0.016129 -0.0143975 0.0350025 0.04 
439 1 1 0.749055 -0.706786 -0.960189 0 0 0 -3.9953e-06 -1.6401e-05 9.0603e-05 -0.0088172 0.00212938 0.0066049 0.000999633 0.000336226 -0.00609257 0.04 
662 1 1 0.818214 -0.666699 -0.960186 0 0 0 0.0001222 -6.1978e-05 7.26686e-06 -0.0128055 -0.00387421 0.0213886 -0.000401956 0.00158602 0.000132616 0.04 
188 1 1 0.891089 -0.713771 -0.960245 0 0 0 0.00014922 -5.10294e-06 8.89161e-05 -0.0150409 0.00292516 0.00066669 -0.00112415 0.000814572 -7.18628e-05 0.04 
987 1 1 0.960187 -0.673824 -0.960187 0 0 0 0.000126823 -3.96559e-05 4.50023e-05 -0.00589759 0.00956041 -0.00142833 -0.000580826 0.00208248 0.000460831 0.04 
990 1 1 -0.878489 -0.605268 -0.960236 0 0 0 -0.000446426 -0.00040457 8.01195e-05 0.00853334 -0.116819 -0.0614281 0.00545439 -0.00558218 0.00680081 0.04 
826 1 1 -0.811796 -0.665743 -0.960161 0 0 0 -0.000109335 -3.3816e-05 -0.000665772 -0.0269496 0.0396666 0.0792254 -0.000177451 0.00263079 -0.00765441 0.04 
1152 1 1 -0.757207 -0.607389 -0.960244 0 0 0 -0.00020674 -0.000722064 -0.000345191 0.0166411 -0.0337063 0.0248458 0.0190807 -0.00689491 -0.00547207 0.04 
567 1 1 -0.689442 -0.649829 -0.960196 0 0 0 -0.000501488 -0.000301393 -0.000752161 -0.043945 0.0593982 -0.0441762 0.00921767 0.000742908 0.0286982 0.04 
170 1 1 -0.527796 -0.649176 -0.960282 0 0 0 0.00206855 -0.00107297 0.00030482 -0.0544062 -0.0624901 -0.106196 0.0237927 0.053845 -0.00978425 0.04 
375 1 1 -0.448624 -0.637999 -0.960364 0 0 0 0.00128176 0.000181705 -0.000429087 -0.0348077 0.216059 -0.0214245 0.00387132 0.000869037 -0.156086 0.04 
709 1 1 -0.369657 -0.615401 -0.960122 0 0 0 0.00843968 -0.000858097 0.00199509 0.151235 -0.26236 0.0925494 -0.00114978 0.21465 -0.00633539 0.04 
738 1 1 -0.12402 -0.658682 -0.960289 0 0 0 0.00529123 -0.0109172 0.00291562 -0.0186678 0.101517 0.167905 0.297875 0.145446 0.111688 0.04 
1046 1 1 -0.046685 -0.638793 -0.960285 0 0 0 0.00369649 -0.0138997 -0.00236186 -0.11947 -0.309474 0.0244436 -0.0476539 0.0204533 0.0477267 0.04 
581 1 1 0.0315247 -0.654633 -0.960205 0 0 0 0.00404348 -0.0140143 3.58475e-05 -0.295388 0.0527424 -0.0985063 0.230085 -0.0920563 -0.0171635 0.04 
61 1 1 0.160698 -0.607813 -0.960247 0 0 0 -0.00142581 -0.00209084 -0.000767145 0.0928368 -0.0549044 0.0358183 0.0614048 -0.0305736 0.0822043 0.04 
1052 1 1 0.254513 -0.60516 -0.960197 0 0 0 0.000273215 -0.00179598 -6.6763e-05 -0.104159 0.0352979 -0.0874968 0.044424 0.0142054 0.0173088 0.04 
656 1 1 0.31874 -0.652782 -0.960231 0 0 0 -0.00272931 -0.00458212 6.4094e-06 -0.116752 0.00119311 -0.112702 0.119164 -0.0713188 0.0122354 0.04 
1082 1 1 0.392555 -0.622351 -0.960223 0 0 0 -0.00409929 -0.00327488 -0.000124048 0.0110609 -0.0315916 -0.131394 0.0817304 -0.107502 -0.0704974 0.04 
255 1 1 0.471203 -0.608286 -0.960244 0 0 0 -0.00486954 -0.00403671 7.76324e-05 -0.0707048 -0.0101766 -0.0183379 0.107984 -0.129765 -0.00993831 0.04 
880 1 1 0.60075 -0.661234 -0.960203 0 0 0 0.00030789 0.00493482 0.000391052 -0.0368653 -0.161905 -0.0579613 -0.125104 0.00555641 0.0373356 0.04 
308 1 1 0.680577 -0.665606 -0.960182 0 0 0 -0.000238368 -0.000247972 5.82922e-06 -0.023244 -0.000104486 0.0264409 -0.000768447 -0.000910954 -0.0238085 0.04 
543 1 1 0.749715 -0.625657 -0.960192 0 0 0 -6.48765e-05 -0.000626886 0.000169805 -0.0217839 -0.0475281 -0.00326542 0.014221 -0.000385615 0.00866288 0.04 
553 1 1 0.890985 -0.633903 -0.96025 0 0 0 0.000121468 -3.19895e-05 -3.09328e-05 -0.00960045 0.00632635 -0.00337348 -0.00118164 0.000299092 0.000158328 0.04 
260 1 1 -0.959965 -0.596432 -0.960244 0 0 0 0.000341868 -0.000144632 -0.0001202 -0.0461804 0.0351007 0.00525433 -0.0103991 0.00665847 0.00754317 0.04 
565 1 1 -0.816971 -0.55432 -0.960266 0 0 0 0.000227672 -0.000545179 -0.000434513 0.0813034 0.00794376 -0.0772229 -0.00999796 0.00668533 -0.0169204 0.04 
1113 1 1 -0.702739 -0.549041 -0.9603 0 0 0 -0.000663819 -0.00113791 -0.000685409 -0.0571042 -0.0973391 -0.0304673 -0.0230567 0.0261406 0.00857644 0.04 
925 1 1 -0.634908 -0.591206 -0.960158 0 0 0 2.84663e-05 -0.000263593 -0.000373126 0.0383343 -0.0278585 -0.0105853 -4.16061e-06 -0.00531616 0.00572462 0.04 
893 1 1 -0.544868 -0.564963 -0.960191 0 0 0 -0.000150163 -7.36517e-05 0.000275797 0.104634 0.0472186 -0.0103196 0.00802423 -0.00353199 0.0716494 0.04 
1103 1 1 -0.45747 -0.558847 -0.960331 0 0 0 0.00435405 -0.000367404 0.000579861 0.253782 0.00783162 0.0626394 0.0220932 0.0894522 0.0952782 0.04 
1448 1 1 -0.380763 -0.536251 -0.960119 0 0 0 0.00560378 -0.00110186 0.00148182 0.00275108 0.179631 0.102659 0.046818 0.139424 -0.049925 0.04 
631 1 1 -0.304233 -0.569381 -0.960214 0 0 0 -0.00281731 0.00703514 -0.00170943 0.0418653 0.079923 -0.0865037 -0.175569 -0.0544452 0.0796232 0.04 
714 1 1 -0.228402 -0.594698 -0.960302 0 0 0 -0.00953299 -0.00280938 0.00135967 -0.243795 0.214378 0.043523 0.0209467 -0.302635 -0.519287 0.04 
962 1 1 -0.164646 -0.546636 -0.960208 0 0 0 -0.0106458 -0.00453968 -0.00117125 -0.15816 0.205567 0.556806 0.179413 -0.261922 -0.186726 0.04 
950 1 1 -0.0885188 -0.570917 -0.960226 0 0 0 -0.0168551 -0.0247723 0.00203937 -0.0934724 0.115994 0.559594 0.41883 -0.357386 0.285218 0.04 
716 1 1 0.00387909 -0.576946 -0.960244 0 0 0 -0.00122476 -0.0114597 6.91031e-05 0.123284 -0.0702479 0.114034 0.30053 -0.0146531 0.0268571 0.04 
388 1 1 0.0821885 -0.592779 -0.960221 0 0 0 -0.0023541 -0.0061918 0.00099706 0.0138631 -0.285262 0.145715 0.147352 -0.0737584 0.128178 0.04 
867 1 1 0.205677 -0.541863 -0.960174 0 0 0 -0.00191485 -0.00371779 -0.000576688 0.0240465 -0.0644837 0.0907429 -0.0332491 0.00109881 -0.0420097 0.04 
576 1 1 0.325365 -0.56007 -0.960201 0 0 0 -0.00481917 -0.00370463 0.000329379 -0.00674483 -0.0601597 -0.0584302 0.0946712 -0.127812 -0.0968315 0.04 
408 1 1 0.405277 -0.543624 -0.960203 0 0 0 0.00099525 -0.00330914 7.13213e-05 -0.00403108 0.00719322 0.0158994 -0.043005 -0.0160362 0.0168042 0.04 
1026 1 1 0.550578 -0.598974 -0.960232 0 0 0 -0.00559178 -3.01555e-05 -0.000103254 0.015946 -0.11681 0.000330432 -0.00464144 -0.131669 -0.0898875 0.04 
1111 1 1 0.668741 -0.58664 -0.960262 0 0 0 0.00498432 0.00013907 -0.000130276 0.0394735 0.0197343 0.0188806 -0.00419021 0.128068 -0.0804565 0.04 
1138 1 1 0.738031 -0.546687 -0.960224 0 0 0 0.00522557 -0.000158081 -0.000276923 0.0391158 0.00445647 -0.0181794 -0.023709 0.0773822 -0.113886 0.04 
58 1 1 0.81333 -0.573373 -0.960211 0 0 0 0.00203729 -0.00959905 0.000265508 0.0183599 -0.00518338 0.0182867 0.240223 0.0508102 0.0442641 0.04 
1107 1 1 0.890868 -0.554034 -0.960211 0 0 0 -6.59495e-05 -0.000126198 -3.16785e-06 0.00479779 0.00598274 -0.00767314 0.00296956 -0.00203073 0.00209887 0.04 
252 1 1 0.960131 -0.593904 -0.960186 0 0 0 3.19944e-05 -2.69796e-05 6.48132e-06 0.0061318 0.00699639 -0.0165001 0.000766233 0.000426587 0.00185528 0.04 
670 1 1 -0.960099 -0.516467 -0.960216 0 0 0 5.51801e-05 -0.000748117 0.00039422 0.0393582 0.000897828 0.0157608 0.0252498 -0.00175665 -0.00930642 0.04 
644 1 1 -0.761099 -0.492848 -0.96025 0 0 0 0.000118276 -0.00356723 -0.00227076 0.171608 -0.0898177 -0.0677725 0.0852144 0.0017967 0.0753121 0.04 
833 1 1 -0.684102 -0.471506 -0.96023 0 0 0 -0.000436747 -0.00227308 -0.00149983 0.0621617 -0.0748575 -0.0671847 0.0142078 0.00958695 -0.0265855 0.04 
435 1 1 -0.616112 -0.513566 -0.960296 0 0 0 -0.000146243 -0.000338487 -0.000579686 -0.00422031 0.0135624 -0.086499 -0.000859935 -0.00702327 0.0132663 0.04 
816 1 1 -0.501125 -0.492177 -0.960313 0 0 0 -0.00156824 -0.00218557 -0.00135919 0.110643 -0.146759 -0.168809 -0.0504604 0.00270567 0.0175586 0.04 
489 1 1 -0.318172 -0.486483 -0.960256 0 0 0 0.0073809 -0.00184567 -0.00124752 -0.174259 0.27026 -0.0230741 0.0538573 0.174911 0.0403589 0.04 
883 1 1 -0.244226 -0.516564 -0.960257 0 0 0 0.00559265 -0.00226493 -0.000201373 0.0847538 -0.119398 0.0486426 0.0655512 0.112186 0.191714 0.04 
305 1 1 -0.180723 -0.468402 -0.960266 0 0 0 0.00560724 -0.00186942 -0.00211405 0.183539 0.107228 0.667055 0.0388609 0.109706 -0.200947 0.04 
675 1 1 -0.104822 -0.492796 -0.960259 0 0 0 0.000751525 -0.0173209 -0.00327623 0.0477776 0.413183 1.71959 -0.0931918 -0.00772955 -0.272115 0.04 
1066 1 1 -0.0256444 -0.502788 -0.960325 0 0 0 0.00146749 -0.00913155 -2.05675e-06 -0.135862 0.181578 0.387235 0.254556 0.0707492 0.182158 0.04 
143 1 1 0.0568474 -0.516948 -0.960118 0 0 0 -0.0041111 -0.0068491 0.000274416 0.11634 -0.187587 -0.0492246 0.181963 -0.111331 0.00106396 0.04 
1346 1 1 0.153502 -0.48135 -0.960257 0 0 0 -0.000927365 -0.00284945 -0.00101937 -0.0284514 -0.0974914 -0.106241 0.0647395 -0.0332118 -0.00264111 0.04 
1000 1 1 0.273307 -0.499369 -0.960235 0 0 0 -0.00300757 -0.00159651 -0.0002584 0.00989688 -0.0461575 -0.0219626 0.0344146 -0.0726563 0.0119154 0.04 
792 1 1 0.351805 -0.484381 -0.960241 0 0 0 -0.00202339 -0.00482641 0.000352478 -0.0451737 0.0364666 0.0386589 0.121156 -0.0501929 0.0382349 0.04 
1361 1 1 0.432023 -0.468345 -0.960199 0 0 0 0.00133249 -0.00324555 0.00010863 -0.0142636 0.0666433 -0.0408432 0.0820869 0.0347924 -0.0124152 0.04 
814 1 1 0.4839 -0.529418 -0.960265 0 0 0 0.0013089 -0.00490109 -0.00034623 0.00537575 -0.00755268 -0.0352097 0.117431 0.0361553 -0.0554156 0.04 
1288 1 1 0.58492 -0.526965 -0.96022 0 0 0 0.00492805 -0.00445855 -0.000632507 0.0454062 -0.0731287 0.00927724 0.10206 0.121522 -0.0179698 0.04 
908 1 1 0.668936 -0.506801 -0.960201 0 0 0 0.00550831 0.000127178 5.7778e-05 0.0413838 0.0164591 0.0205845 0.00912159 0.0286226 0.068703 0.04 
1309 1 1 0.798102 -0.493998 -0.960284 0 0 0 0.00449473 0.00068611 0.000188044 0.00996737 0.0133479 0.0137444 -0.018417 0.110284 0.0817566 0.04 
9 1 1 0.890904 -0.474146 -0.960178 0 0 0 4.04024e-05 -6.46498e-06 0.00014817 0.00864695 0.00833009 -0.0136263 0.000750088 0.00116943 -0.00283126 0.04 
771 1 1 0.960108 -0.514023 -0.960224 0 0 0 -2.58531e-05 -2.46782e-05 9.45715e-05 0.00976513 0.000638285 -0.00416333 0.000385584 0.000624159 -0.000948243 0.04 
1055 1 1 -0.960064 -0.42416 -0.960219 0 0 0 0.000192534 -0.0022484 -0.0020414 0.0186092 0.146357 -0.0997935 0.0607293 0.0345057 -0.0492849 0.04 
739 1 1 -0.890724 -0.46396 -0.960238 0 0 0 0.000669426 -0.00208778 0.000455915 -0.00889738 0.0886398 0.0865858 0.0593428 0.0119585 -0.0166074 0.04 
1142 1 1 -0.821557 -0.423947 -0.960255 0 0 0 0.000590275 -0.00130827 -0.000137226 -0.0227182 -0.0673075 0.0131016 0.0379503 -0.0115089 0.106112 0.04 
613 1 1 -0.636248 -0.407732 -0.960404 0 0 0 -0.000169216 -0.00228641 -0.00099826 -0.0169298 0.0624053 0.108188 0.0721894 -0.00756619 0.0715752 0.04 
620 1 1 -0.56835 -0.449455 -0.960143 0 0 0 -0.000501027 -0.00140937 -0.00154867 0.125856 -0.142535 -0.0107271 0.0303643 -0.0147614 -0.041297 0.04 
1316 1 1 -0.469595 -0.418879 -0.960297 0 0 0 0.00501614 -0.0044999 -0.00176914 0.0335093 -0.287138 -0.134745 0.110612 0.135007 -0.193228 0.04 
344 1 1 -0.396431 -0.45786 -0.960164 0 0 0 -0.0273101 -0.00662432 0.00118268 -0.637332 0.21604 -0.0154801 0.133673 -0.688666 0.56123 0.04 
247 1 1 -0.329114 -0.407284 -0.960252 0 0 0 0.0091416 -0.00338377 -0.0030127 0.0864683 0.153233 -0.191628 0.0844921 0.208151 0.0899886 0.04 
382 1 1 -0.25506 -0.437377 -0.960285 0 0 0 0.009502 -0.00211932 -0.000562234 -0.0812395 -0.00154009 -0.00433532 0.0445694 0.246383 -0.0493466 0.04 
1271 1 1 -0.102163 -0.412967 -0.960344 0 0 0 -0.00157257 -0.0151258 0.000538482 0.258226 0.0685044 -0.0613422 0.372294 -0.037049 0.335187 0.04 
1249 1 1 0.0271263 -0.442739 -0.960236 0 0 0 0.000796458 -0.00606475 -0.000492141 0.138515 -0.0235885 0.256479 0.139599 0.0182235 -0.0433786 0.04 
1030 1 1 0.103427 -0.419082 -0.960268 0 0 0 -0.00142617 -0.00305352 -0.00126366 0.170465 0.0673739 -0.00734162 0.0624488 -0.0387338 0.0760288 0.04 
1148 1 1 0.221129 -0.438798 -0.960323 0 0 0 -0.00199044 -0.000917992 -0.000122197 0.0355533 -0.0388712 0.0309324 0.0326541 -0.0535787 -0.00576994 0.04 
772 1 1 0.299638 -0.423884 -0.960218 0 0 0 -0.000574788 -0.00333423 0.00027298 -0.0826061 0.0306835 0.00968013 0.0305379 0.0250768 -0.0527855 0.04 
845 1 1 0.378162 -0.408972 -0.960244 0 0 0 -9.64941e-05 -0.00516226 -0.000277791 -0.0388982 6.49074e-05 -0.0686776 0.136964 0.000249125 0.00294691 0.04 
584 1 1 0.532798 -0.46631 -0.960208 0 0 0 0.0027017 -0.00592961 -4.8894e-05 -0.00234719 0.0275314 0.0523771 0.119811 0.0480922 0.022337 0.04 
1047 1 1 0.611323 -0.451706 -0.960189 0 0 0 0.00216236 -0.00319386 -9.49987e-05 -0.0137123 0.02481 0.0162847 -0.0218531 -0.0263913 0.0470049 0.04 
1474 1 1 0.687749 -0.42916 -0.960249 0 0 0 0.000889978 0.00133748 0.000142356 0.00557187 0.0153964 0.0285023 -0.0142973 0.0194446 0.0360327 0.04 
840 1 1 0.766934 -0.420458 -0.960213 0 0 0 0.00122384 -0.000793709 -6.85019e-05 0.0114974 0.0318804 -0.00815818 -0.0150299 -0.0143769 -0.00542457 0.04 
852 1 1 0.960067 -0.434075 -0.960237 0 0 0 8.43388e-05 -3.74922e-07 5.34083e-05 0.0194552 -0.00897214 0.00129852 -0.000743582 0.00290232 0.00057105 0.04 
982 1 1 -0.960105 -0.34418 -0.960227 0 0 0 0.000160159 -0.000355238 0.00185441 0.147957 0.150089 0.320626 0.026514 -0.00819179 -0.0118953 0.04 
326 1 1 -0.890848 -0.384034 -0.960224 0 0 0 0.000604228 -0.00123455 0.000295804 -0.0497876 0.138205 0.11127 0.0586198 0.0223832 0.012035 0.04 
1215 1 1 -0.821554 -0.343961 -0.960217 0 0 0 -0.00128741 -4.40483e-05 0.000991772 -0.0223894 0.165494 0.185614 0.0137302 -0.0157095 -0.00697822 0.04 
1246 1 1 -0.748608 -0.391291 -0.960134 0 0 0 0.00177218 -0.00133418 0.000472417 -0.121995 -0.141626 0.0235859 0.0403259 0.0342089 -0.112742 0.04 
969 1 1 -0.68416 -0.344003 -0.960212 0 0 0 0.0018277 -0.000828712 0.00019579 -0.338142 0.120395 0.150195 0.0216421 0.00892975 0.134764 0.04 
230 1 1 -0.60501 -0.334407 -0.960245 0 0 0 0.00359119 -0.00296525 -0.000518477 -0.236534 0.198999 0.0106631 -0.0219137 -0.00341858 -0.169445 0.04 
857 1 1 -0.534139 -0.371652 -0.960187 0 0 0 0.00301985 -0.00832504 -0.000653039 -0.116113 -0.430711 -0.210409 0.181129 0.0955658 -0.299296 0.04 
92 1 1 -0.402481 -0.375728 -0.960238 0 0 0 0.00793909 -0.0110448 -9.92882e-05 -0.189697 -0.380999 -0.0127694 0.268915 0.156072 0.0440636 0.04 
1124 1 1 -0.266007 -0.358198 -0.960271 0 0 0 0.00771973 -0.00397246 -0.000504182 0.0773118 -0.086542 -0.0842155 0.0486702 0.176312 0.0414249 0.04 
868 1 1 -0.191102 -0.389419 -0.960235 0 0 0 0.010976 -0.00391002 0.00122251 0.170107 -0.0629129 0.115551 0.00531664 0.216848 0.0681346 0.04 
1010 1 1 -0.126656 -0.336983 -0.960242 0 0 0 0.00852142 -0.0111762 0.00020389 0.477886 -0.443682 -0.270477 0.0898826 0.0328308 -0.100119 0.04 
1223 1 1 -0.0217123 -0.372354 -0.960201 0 0 0 -0.00367653 -0.00877434 0.0017364 -0.00749815 0.0216007 0.0970331 0.229756 -0.0889979 0.0689422 0.04 
144 1 1 0.0562724 -0.35458 -0.960173 0 0 0 -0.00483134 -0.00535246 -0.00124723 0.0625699 0.12018 -0.0731769 0.120683 -0.131375 -0.020845 0.04 
315 1 1 0.168093 -0.3722 -0.960141 0 0 0 -0.00120325 -0.00274592 -0.0018986 0.128019 0.0119165 0.0387659 0.065035 -0.0215018 -0.0382317 0.04 
1187 1 1 0.247538 -0.363356 -0.960223 0 0 0 -0.000304669 -0.00265544 -5.70956e-06 -0.0588771 0.0834282 -0.134865 0.0625674 -0.00966368 -0.0225144 0.04 
220 1 1 0.326025 -0.348381 -0.960216 0 0 0 0.00085144 -0.00327466 0.000453789 -0.0191036 0.0189194 -0.0154952 0.0732673 0.0222563 0.0103402 0.04 