# vtk DataFile Version 2.0
Generated by lpp.py
ASCII
DATASET POLYDATA
POINTS 354 float
-0.216729 -0.463055 -0.683095
0.464253 -0.288773 -0.52062
0.541944 -0.27521 -0.48046
-0.634933 -0.861126 -0.505345
-0.00554382 -0.945332 -0.885845
-0.421435 -0.708667 -0.962357
-0.859669 -0.490882 -0.962917
0.137714 -0.364848 -0.970796
0.0670091 -0.613392 -0.900486
0.291916 -0.480132 -0.932964
-0.315968 -0.0637563 -0.880286
0.35151 -0.599882 -0.975616
-0.765873 -0.26031 -0.939597
0.232863 -0.283498 -0.963394
0.625342 -0.229628 -0.773287
0.375629 -0.0218152 -0.752645
0.688157 -0.472651 -0.232951
-0.837697 -0.53296 -0.75348
-0.045741 -0.381172 -0.739542
-0.54087 -0.232465 -0.755999
0.964018 0.0214045 -0.661041
-0.643098 -0.778977 -0.658426
-0.858485 -0.37838 -0.648438
0.0614063 -0.245145 -0.647163
0.708494 -0.278939 -0.738756
-0.607737 -0.391655 -0.488621
-0.109612 -0.396644 -0.496193
-0.0862039 -0.411238 -0.649486
0.374489 -0.340279 -0.561369
-0.513035 -0.22915 -0.604359
0.187588 -0.174485 -0.470846
-0.4227 -0.0756143 -0.648105
-0.207123 0.0304866 -0.582587
-0.898929 -0.399297 -0.413169
-0.818387 -0.366864 -0.408657
-0.729812 -0.33461 -0.427551
-0.502767 -0.355777 -0.393498
-0.350007 -0.367333 -0.4121
-0.263194 -0.439751 -0.380187
-0.0255146 -0.351147 -0.404899
0.0470042 -0.376073 -0.428951
0.403973 -0.406413 -0.470344
0.59264 -0.388091 -0.429776
-0.883174 -0.316962 -0.447569
0.13331 -0.361052 -0.400109
0.576478 -0.326565 -0.387197
-0.709092 -0.272847 -0.380697
-0.612418 -0.229799 -0.399485
-0.57845 -0.329881 -0.448653
-0.49511 -0.293359 -0.46314
0.0454067 -0.227463 -0.399541
0.644525 -0.300066 -0.486755
-0.0380554 -0.232391 -0.448621
0.878317 -0.194313 -0.407864
-0.288187 -0.0737912 -0.48956
0.429575 -0.164787 -0.560441
0.810186 -0.0962652 -0.443008
0.903009 -0.176376 -0.487226
0.875956 -0.00481865 -0.39267
0.498825 -0.535905 -0.305691
0.119998 -0.387384 -0.30694
0.805976 -0.341001 -0.349589
-0.113322 -0.298872 -0.308855
-0.00573194 -0.286152 -0.365697
0.298652 -0.311502 -0.315494
0.89841 -0.277116 -0.341177
-0.431862 -0.216872 -0.329796
-0.216712 -0.274052 -0.284593
0.358422 -0.295936 -0.40264
0.48016 -0.261095 -0.354708
-0.550406 -0.200647 -0.312286
-0.00534818 -0.195576 -0.325179
-0.84533 -0.166154 -0.388261
0.245152 -0.224699 -0.475934
0.474129 -0.139511 -0.402655
0.605864 -0.136158 -0.433071
-0.730677 -0.395484 -0.236987
-0.0209375 -0.398372 -0.271745
0.661814 -0.398752 -0.247373
0.893682 -0.395474 -0.226731
-0.346981 -0.333932 -0.232057
0.439442 -0.388814 -0.249347
0.549143 -0.347286 -0.26044
0.680034 -0.296313 -0.261059
-0.800158 -0.200673 -0.254799
-0.0903123 -0.212791 -0.239394
0.0804746 -0.273049 -0.238358
0.788215 -0.208071 -0.306971
-0.8914 -0.158888 -0.278129
-0.663254 -0.180083 -0.233533
0.716465 -0.167067 -0.288346
0.828211 -0.175088 -0.223862
-0.648337 -0.14962 -0.315156
-0.897167 -0.0417488 -0.304367
-0.803562 -0.0262618 -0.271203
-0.479422 -0.0448177 -0.278477
0.0156001 -0.123852 -0.31314
0.107697 -0.0923563 -0.259849
0.838985 -0.141831 -0.367174
-0.879158 0.0816051 -0.236242
-0.863015 0.151453 -0.30064
-0.944186 0.285183 -0.270845
-0.865511 -0.377988 -0.165596
-0.655278 -0.384664 -0.137363
-0.495493 -0.428914 -0.155546
-0.42392 -0.422984 -0.217866
-0.149027 -0.399995 -0.193827
-0.0854038 -0.347428 -0.139579
0.133823 -0.374184 -0.169926
0.273546 -0.364156 -0.218663
0.54953 -0.383155 -0.166406
-0.772972 -0.327848 -0.167771
-0.625387 -0.303859 -0.178293
-0.268105 -0.28813 -0.170734
0.0645402 -0.325197 -0.162138
0.33028 -0.301842 -0.24001
0.836211 -0.319828 -0.144281
-0.8565 -0.262885 -0.201124
-0.725622 -0.236859 -0.19991
-0.537764 -0.272532 -0.190885
-0.26974 -0.226457 -0.22409
0.00604694 -0.221047 -0.131241
0.171728 -0.268822 -0.18898
0.513978 -0.283677 -0.193179
0.803108 -0.236298 -0.14501
-0.580736 -0.154023 -0.18895
-0.391178 -0.230638 -0.19774
0.89078 -0.204829 -0.150517
-0.494182 -0.176141 -0.188112
-0.248055 -0.118352 -0.212316
0.0811071 -0.134848 -0.153929
0.259343 -0.101907 -0.166462
0.519277 -0.125859 -0.161811
0.739081 -0.225257 -0.213263
-0.384532 -0.127029 -0.235571
0.374639 -0.326186 -0.322643
0.596737 -0.258521 -0.389625
0.922243 -0.0349325 -0.143576
-0.198113 -0.122431 -0.371261
-0.911992 0.148564 -0.174205
0.129752 0.203534 -0.0540817
-0.431145 0.300432 -0.0672125
-0.350746 0.229534 -0.0634347
0.362687 0.241299 -0.0675165
0.546105 0.27084 -0.065948
-0.891691 0.292932 -0.134299
-0.514031 0.30647 -0.0629646
0.277878 0.410873 -0.0665487
0.0459486 0.48957 -0.0470197
0.620919 0.470061 -0.0342613
0.391142 -0.492226 -0.123293
-0.887684 -0.399727 -0.0323791
-0.751345 -0.382282 -0.0280246
-0.631305 -0.443377 -0.0522649
-0.410265 -0.390301 -0.0502612
-0.335477 -0.33562 -0.0807678
-0.244875 -0.363587 -0.0948701
-0.148809 -0.369787 -0.0410199
-0.0283231 -0.367269 -0.0437369
0.0480356 -0.384671 -0.0946784
0.126685 -0.335721 -0.0294136
0.183768 -0.342613 -0.0885649
0.299285 -0.422046 -0.0688029
0.357099 -0.348681 -0.103622
0.463746 -0.390033 -0.0936219
0.514661 -0.395084 -0.018063
0.613711 -0.435917 -0.0827787
0.694051 -0.39373 -0.0477955
0.759815 -0.350732 -0.0991178
0.86059 -0.383814 -0.0601929
-0.845047 -0.312949 -0.0711157
-0.588328 -0.276419 -0.0296042
-0.429683 -0.318139 -0.0359256
-0.170539 -0.291904 -0.113674
-0.0204789 -0.306734 -0.111569
0.281326 -0.335883 -0.0501788
0.643744 -0.30245 -0.11752
-0.896017 -0.250418 -0.072121
-0.758074 -0.247809 -0.070416
-0.67818 -0.253161 -0.0169924
-0.45031 -0.250605 -0.0780781
-0.340499 -0.253306 -0.0750891
-0.244746 -0.26311 -0.0170738
-0.125978 -0.227597 -0.0668639
-0.0452905 -0.223466 -0.058798
0.120888 -0.257006 -0.0455895
0.243528 -0.232828 -0.113838
0.327797 -0.246191 -0.0508923
0.531826 -0.249424 -0.110976
0.732349 -0.279958 -0.037357
0.875069 -0.231731 -0.0259555
-0.862807 -0.176745 -0.0684181
-0.781192 -0.133942 -0.101206
-0.63109 -0.187538 -0.033156
-0.51439 -0.243116 -0.0106812
-0.325543 -0.197827 0.00373383
-0.247524 -0.151234 -0.0243383
-0.199978 -0.192419 -0.130102
-0.118915 -0.151218 -0.110796
-0.034827 -0.14977 -0.113382
0.0921776 -0.181886 -0.0513483
0.1545 -0.205588 -0.114199
0.457502 -0.161132 -0.0641939
0.685065 -0.159234 -0.0300985
0.755881 -0.136839 -0.129734
0.82023 -0.152237 -0.0498805
-0.853585 -0.0900511 -0.121233
-0.71028 -0.169295 -0.0735676
-0.573657 -0.132608 -0.0368543
-0.417311 -0.270447 0.0344167
-0.309428 -0.15237 -0.0896578
0.0104206 -0.142185 -0.00931435
0.143319 -0.108415 -0.0538662
0.332766 -0.107218 -0.0173614
0.880402 -0.121726 -0.109581
-0.922384 -0.0211041 -0.125692
-0.664327 -0.0850456 -0.037427
-0.661855 -0.119591 -0.148719
-0.43727 -0.145782 -0.078321
-0.340026 -0.0734444 -0.0473753
-0.275662 -0.0607679 -0.148879
-0.206168 -0.0313974 -0.0944943
-0.130735 -0.0769113 -0.139349
0.014367 -0.0264037 -0.0520207
0.106344 -0.0359641 -0.0173371
0.228622 -0.113624 0.00119474
0.282332 -0.0146802 -0.0510383
0.427849 -0.0627588 -0.0655328
0.696102 -0.0420813 -0.171235
0.74412 -0.0841595 -0.0661783
-0.883123 0.0659101 -0.0543957
-0.781697 -0.0651457 -0.195699
-0.722101 -0.0145097 -0.260483
-0.588343 -0.0794329 -0.277144
-0.288429 -0.0349237 -0.39735
-0.128 -0.0103215 -0.068819
0.191117 -0.111569 -0.311025
0.473641 -0.174559 -0.329277
0.488283 -0.0601095 -0.239319
0.793999 -0.000570951 -0.110633
0.923994 -0.104222 -0.268951
-0.804215 0.129331 -0.0247812
-0.703604 0.12523 -0.00945979
-0.617488 0.118272 -0.0138941
-0.507309 0.130261 -0.0239515
0.167615 0.133394 -0.0292994
0.291305 0.145305 -0.0344825
0.489982 0.12147 -0.011428
0.601395 0.218279 0.0593435
0.795269 0.141008 -0.0350265
0.878404 0.132256 -0.0287409
-0.892858 0.14668 -0.0213913
-0.839283 0.170918 -0.107514
-0.743359 0.186276 -0.0591506
-0.672557 0.202804 -0.0281116
-0.574735 0.185676 0.000867695
-0.479112 0.209612 -0.0533843
-0.407223 0.167753 -0.0608682
-0.324539 0.139403 -0.0224528
-0.195568 0.226891 -0.0675251
-0.186282 0.153421 -0.0408322
-0.102882 0.20628 -0.00238162
-0.0332839 0.160467 -0.0479868
0.217606 0.21614 -0.0423484
0.382723 0.154155 -0.0495201
0.52359 0.183863 -0.062078
0.615238 0.199209 -0.0691814
0.694891 0.210909 -0.058366
0.959197 0.180204 -0.0331143
-0.898416 0.235524 -0.0684168
-0.602799 0.230252 -0.0668058
-0.410258 0.2176 0.00236553
-0.0580887 0.234971 -0.062819
0.0460289 0.203582 -0.0355134
0.0995392 0.279237 -0.0161306
0.310433 0.220653 -0.0100003
0.43875 0.209032 -0.0192066
0.609039 0.257922 -0.014555
0.725371 0.285065 -0.0592601
0.802403 0.240232 -0.038757
0.895053 0.232971 -0.0658833
-0.785348 0.297918 -0.0541957
-0.670247 0.316815 -0.0348151
-0.315848 0.344986 -0.0158839
-0.217222 0.308868 -0.057643
-0.128693 0.263427 -0.050883
-0.0711889 0.325568 -0.0528533
0.0254683 0.314543 -0.0540976
0.292822 0.30294 -0.030987
0.365044 0.354644 -0.0525158
0.449583 0.29648 -0.060779
0.50619 0.348365 -0.0367042
0.830933 0.323912 -0.0699535
0.919045 0.310858 -0.0328703
-0.855876 0.398237 -0.0446199
-0.731303 0.359428 -0.0595201
-0.595511 0.37939 -0.0696032
-0.462719 0.409149 -0.0473853
-0.389291 0.37667 -0.0584975
-0.201012 0.383694 -0.0183799
-0.0978834 0.403735 -0.0537191
-0.017365 0.395532 -0.033835
0.111085 0.348586 -0.0604208
0.192243 0.376454 -0.0699657
0.428341 0.40151 -0.0227656
0.573463 0.386013 -0.0573476
0.681349 0.355062 -0.0521484
0.76307 0.362882 -0.0538685
0.866974 0.381538 -0.0293495
-0.744102 0.470602 -0.0652295
-0.557846 0.488226 -0.0675203
-0.324396 0.425666 -0.0559186
-0.204698 0.488049 -0.0216856
0.141963 0.456914 -0.035454
0.225655 0.457999 -0.029349
0.323799 0.464179 -0.0182273
0.462197 0.476984 -0.0426678
0.716168 0.426936 -0.0346319
0.802356 0.434412 -0.0565165
0.92138 0.449508 -0.0655829
0.546223 -0.363004 0.091038
0.570341 -0.286322 0.0201442
0.405555 -0.235999 0.0469089
0.580436 -0.150602 0.0147369
0.870851 -0.0937118 0.020701
-0.175257 0.368934 0.412698
-0.0244875 0.198087 0.267467
0.682118 0.192662 0.0697682
0.138753 0.221851 0.0393017
-0.318069 0.265084 0.0385225
0.186842 0.322682 0.0123897
0.504565 0.255327 0.0114677
-0.649252 0.303197 0.0584564
-0.501554 0.31907 0.0331939
0.0022556 0.339261 0.0303442
0.40648 0.31689 0.0153335
0.726952 0.28444 0.0380642
-0.585338 0.426751 0.0720216
-0.69502 0.439737 0.0151951
0.601134 0.489785 0.0406557
-0.204258 0.356581 0.199528
0.863045 0.378948 0.0955176
-0.770701 0.596982 0.140712
0.627214 0.307288 0.147152
-0.618128 0.194471 0.404279
0.847464 0.420207 0.232667
0.27943 0.824426 0.222925
0.533918 0.489779 0.41101
-0.0603765 0.796284 0.607409
-0.735485 0.894104 0.604389
-0.419568 0.883629 0.337901
0.397428 0.867436 0.929844
0.110348 0.379718 0.815618
0.462266 0.51569 0.849596
VERTICES 354 708
1 0
1 1
1 2
1 3
1 4
1 5
1 6
1 7
1 8
1 9
1 10
1 11
1 12
1 13
1 14
1 15
1 16
1 17
1 18
1 19
1 20
1 21
1 22
1 23
1 24
1 25
1 26
1 27
1 28
1 29
1 30
1 31
1 32
1 33
1 34
1 35
1 36
1 37
1 38
1 39
1 40
1 41
1 42
1 43
1 44
1 45
1 46
1 47
1 48
1 49
1 50
1 51
1 52
1 53
1 54
1 55
1 56
1 57
1 58
1 59
1 60
1 61
1 62
1 63
1 64
1 65
1 66
1 67
1 68
1 69
1 70
1 71
1 72
1 73
1 74
1 75
1 76
1 77
1 78
1 79
1 80
1 81
1 82
1 83
1 84
1 85
1 86
1 87
1 88
1 89
1 90
1 91
1 92
1 93
1 94
1 95
1 96
1 97
1 98
1 99
1 100
1 101
1 102
1 103
1 104
1 105
1 106
1 107
1 108
1 109
1 110
1 111
1 112
1 113
1 114
1 115
1 116
1 117
1 118
1 119
1 120
1 121
1 122
1 123
1 124
1 125
1 126
1 127
1 128
1 129
1 130
1 131
1 132
1 133
1 134
1 135
1 136
1 137
1 138
1 139
1 140
1 141
1 142
1 143
1 144
1 145
1 146
1 147
1 148
1 149
1 150
1 151
1 152
1 153
1 154
1 155
1 156
1 157
1 158
1 159
1 160
1 161
1 162
1 163
1 164
1 165
1 166
1 167
1 168
1 169
1 170
1 171
1 172
1 173
1 174
1 175
1 176
1 177
1 178
1 179
1 180
1 181
1 182
1 183
1 184
1 185
1 186
1 187
1 188
1 189
1 190
1 191
1 192
1 193
1 194
1 195
1 196
1 197
1 198
1 199
1 200
1 201
1 202
1 203
1 204
1 205
1 206
1 207
1 208
1 209
1 210
1 211
1 212
1 213
1 214
1 215
1 216
1 217
1 218
1 219
1 220
1 221
1 222
1 223
1 224
1 225
1 226
1 227
1 228
1 229
1 230
1 231
1 232
1 233
1 234
1 235
1 236
1 237
1 238
1 239
1 240
1 241
1 242
1 243
1 244
1 245
1 246
1 247
1 248
1 249
1 250
1 251
1 252
1 253
1 254
1 255
1 256
1 257
1 258
1 259
1 260
1 261
1 262
1 263
1 264
1 265
1 266
1 267
1 268
1 269
1 270
1 271
1 272
1 273
1 274
1 275
1 276
1 277
1 278
1 279
1 280
1 281
1 282
1 283
1 284
1 285
1 286
1 287
1 288
1 289
1 290
1 291
1 292
1 293
1 294
1 295
1 296
1 297
1 298
1 299
1 300
1 301
1 302
1 303
1 304
1 305
1 306
1 307
1 308
1 309
1 310
1 311
1 312
1 313
1 314
1 315
1 316
1 317
1 318
1 319
1 320
1 321
1 322
1 323
1 324
1 325
1 326
1 327
1 328
1 329
1 330
1 331
1 332
1 333
1 334
1 335
1 336
1 337
1 338
1 339
1 340
1 341
1 342
1 343
1 344
1 345
1 346
1 347
1 348
1 349
1 350
1 351
1 352
1 353
POINT_DATA 354
VECTORS i float
0.0 0.0 0.0
0.0 0.0 0.0
0.0 0.0 0.0
0.0 0.0 0.0
0.0 0.0 0.0
0.0 0.0 0.0
0.0 0.0 0.0
0.0 0.0 0.0
0.0 0.0 0.0
0.0 0.0 0.0
0.0 0.0 0.0
0.0 0.0 0.0
0.0 0.0 0.0
0.0 0.0 0.0
0.0 0.0 0.0
0.0 0.0 0.0
0.0 0.0 0.0
0.0 0.0 0.0
0.0 0.0 0.0
0.0 0.0 0.0
0.0 0.0 0.0
0.0 0.0 0.0
0.0 0.0 0.0
0.0 0.0 0.0
0.0 0.0 0.0
0.0 0.0 0.0
0.0 0.0 0.0
0.0 0.0 0.0
0.0 0.0 0.0
0.0 0.0 0.0
0.0 0.0 0.0
0.0 0.0 0.0
0.0 0.0 0.0
0.0 0.0 0.0
0.0 0.0 0.0
0.0 0.0 0.0
0.0 0.0 0.0
0.0 0.0 0.0
0.0 0.0 0.0
0.0 0.0 0.0
0.0 0.0 0.0
0.0 0.0 0.0
0.0 0.0 0.0
0.0 0.0 0.0
0.0 0.0 0.0
0.0 0.0 0.0
0.0 0.0 0.0
0.0 0.0 0.0
0.0 0.0 0.0
0.0 0.0 0.0
0.0 0.0 0.0
0.0 0.0 0.0
0.0 0.0 0.0
0.0 0.0 0.0
0.0 0.0 0.0
0.0 0.0 0.0
0.0 0.0 0.0
0.0 0.0 0.0
0.0 0.0 0.0
0.0 0.0 0.0
0.0 0.0 0.0
0.0 0.0 0.0
0.0 0.0 0.0
0.0 0.0 0.0
0.0 0.0 0.0
0.0 0.0 0.0
0.0 0.0 0.0
0.0 0.0 0.0
0.0 0.0 0.0
0.0 0.0 0.0
0.0 0.0 0.0
0.0 0.0 0.0
0.0 0.0 0.0
0.0 0.0 0.0
0.0 0.0 0.0
0.0 0.0 0.0
0.0 0.0 0.0
0.0 0.0 0.0
0.0 0.0 0.0
0.0 0.0 0.0
0.0 0.0 0.0
0.0 0.0 0.0
0.0 0.0 0.0
0.0 0.0 0.0
0.0 0.0 0.0
0.0 0.0 0.0
0.0 0.0 0.0
0.0 0.0 0.0
0.0 0.0 0.0
0.0 0.0 0.0
0.0 0.0 0.0
0.0 0.0 0.0
0.0 0.0 0.0
0.0 0.0 0.0
0.0 0.0 0.0
0.0 0.0 0.0
0.0 0.0 0.0
0.0 0.0 0.0
0.0 0.0 0.0
0.0 0.0 0.0
0.0 0.0 0.0
0.0 0.0 0.0
0.0 0.0 0.0
0.0 0.0 0.0
0.0 0.0 0.0
0.0 0.0 0.0
0.0 0.0 0.0
0.0 0.0 0.0
0.0 0.0 0.0
0.0 0.0 0.0
0.0 0.0 0.0
0.0 0.0 0.0
0.0 0.0 0.0
0.0 0.0 0.0
0.0 0.0 0.0
0.0 0.0 0.0
0.0 0.0 0.0
0.0 0.0 0.0
0.0 0.0 0.0
0.0 0.0 0.0
0.0 0.0 0.0
0.0 0.0 0.0
0.0 0.0 0.0
0.0 0.0 0.0
0.0 0.0 0.0
0.0 0.0 0.0
0.0 0.0 0.0
0.0 0.0 0.0
0.0 0.0 0.0
0.0 0.0 0.0
0.0 0.0 0.0
0.0 0.0 0.0
0.0 0.0 0.0
0.0 0.0 0.0
0.0 0.0 0.0
0.0 0.0 0.0
0.0 0.0 0.0
0.0 0.0 0.0
0.0 0.0 0.0
0.0 0.0 0.0
0.0 0.0 0.0
0.0 0.0 0.0
0.0 0.0 0.0
0.0 0.0 0.0
0.0 0.0 0.0
0.0 0.0 0.0
0.0 0.0 0.0
0.0 0.0 0.0
0.0 0.0 0.0
0.0 0.0 0.0
0.0 0.0 0.0
0.0 0.0 0.0
0.0 0.0 0.0
0.0 0.0 0.0
0.0 0.0 0.0
0.0 0.0 0.0
0.0 0.0 0.0
0.0 0.0 0.0
0.0 0.0 0.0
0.0 0.0 0.0
0.0 0.0 0.0
0.0 0.0 0.0
0.0 0.0 0.0
0.0 0.0 0.0
0.0 0.0 0.0
0.0 0.0 0.0
0.0 0.0 0.0
0.0 0.0 0.0
0.0 0.0 0.0
0.0 0.0 0.0
0.0 0.0 0.0
0.0 0.0 0.0
0.0 0.0 0.0
0.0 0.0 0.0
0.0 0.0 0.0
0.0 0.0 0.0
0.0 0.0 0.0
0.0 0.0 0.0
0.0 0.0 0.0
0.0 0.0 0.0
0.0 0.0 0.0
0.0 0.0 0.0
0.0 0.0 0.0
0.0 0.0 0.0
0.0 0.0 0.0
0.0 0.0 0.0
0.0 0.0 0.0
0.0 0.0 0.0
0.0 0.0 0.0
0.0 0.0 0.0
0.0 0.0 0.0
0.0 0.0 0.0
0.0 0.0 0.0
0.0 0.0 0.0
0.0 0.0 0.0
0.0 0.0 0.0
0.0 0.0 0.0
0.0 0.0 0.0
0.0 0.0 0.0
0.0 0.0 0.0
0.0 0.0 0.0
0.0 0.0 0.0
0.0 0.0 0.0
0.0 0.0 0.0
0.0 0.0 0.0
0.0 0.0 0.0
0.0 0.0 0.0
0.0 0.0 0.0
0.0 0.0 0.0
0.0 0.0 0.0
0.0 0.0 0.0
0.0 0.0 0.0
0.0 0.0 0.0
0.0 0.0 0.0
0.0 0.0 0.0
0.0 0.0 0.0
0.0 0.0 0.0
0.0 0.0 0.0
0.0 0.0 0.0
0.0 0.0 0.0
0.0 0.0 0.0
0.0 0.0 0.0
0.0 0.0 0.0
0.0 0.0 0.0
0.0 0.0 0.0
0.0 0.0 0.0
0.0 0.0 0.0
0.0 0.0 0.0
0.0 0.0 0.0
0.0 0.0 0.0
0.0 0.0 0.0
0.0 0.0 0.0
0.0 0.0 0.0
0.0 0.0 0.0
0.0 0.0 0.0
0.0 0.0 0.0
0.0 0.0 0.0
0.0 0.0 0.0
0.0 0.0 0.0
0.0 0.0 0.0
0.0 0.0 0.0
0.0 0.0 0.0
0.0 0.0 0.0
0.0 0.0 0.0
0.0 0.0 0.0
0.0 0.0 0.0
0.0 0.0 0.0
0.0 0.0 0.0
0.0 0.0 0.0
0.0 0.0 0.0
0.0 0.0 0.0
0.0 0.0 0.0
0.0 0.0 0.0
0.0 0.0 0.0
0.0 0.0 0.0
0.0 0.0 0.0
0.0 0.0 0.0
0.0 0.0 0.0
0.0 0.0 0.0
0.0 0.0 0.0
0.0 0.0 0.0
0.0 0.0 0.0
0.0 0.0 0.0
0.0 0.0 0.0
0.0 0.0 0.0
0.0 0.0 0.0
0.0 0.0 0.0
0.0 0.0 0.0
0.0 0.0 0.0
0.0 0.0 0.0
0.0 0.0 0.0
0.0 0.0 0.0
0.0 0.0 0.0
0.0 0.0 0.0
0.0 0.0 0.0
0.0 0.0 0.0
0.0 0.0 0.0
0.0 0.0 0.0
0.0 0.0 0.0
0.0 0.0 0.0
0.0 0.0 0.0
0.0 0.0 0.0
0.0 0.0 0.0
0.0 0.0 0.0
0.0 0.0 0.0
0.0 0.0 0.0
0.0 0.0 0.0
0.0 0.0 0.0
0.0 0.0 0.0
0.0 0.0 0.0
0.0 0.0 0.0
0.0 0.0 0.0
0.0 0.0 0.0
0.0 0.0 0.0
0.0 0.0 0.0
0.0 0.0 0.0
0.0 0.0 0.0
0.0 0.0 0.0
0.0 0.0 0.0
0.0 0.0 0.0
0.0 0.0 0.0
0.0 0.0 0.0
0.0 0.0 0.0
0.0 0.0 0.0
0.0 0.0 0.0
0.0 0.0 0.0
0.0 0.0 0.0
0.0 0.0 0.0
0.0 0.0 0.0
0.0 0.0 0.0
0.0 0.0 0.0
0.0 0.0 0.0
0.0 0.0 0.0
0.0 0.0 0.0
0.0 0.0 0.0
0.0 0.0 0.0
0.0 0.0 0.0
0.0 0.0 0.0
0.0 0.0 0.0
0.0 0.0 0.0
0.0 0.0 0.0
0.0 0.0 0.0
0.0 0.0 0.0
0.0 0.0 0.0
0.0 0.0 0.0
0.0 0.0 0.0
0.0 0.0 0.0
0.0 0.0 0.0
0.0 0.0 0.0
0.0 0.0 0.0
0.0 0.0 0.0
0.0 0.0 0.0
0.0 0.0 0.0
0.0 0.0 0.0
0.0 0.0 0.0
0.0 0.0 0.0
0.0 0.0 0.0
0.0 0.0 0.0
0.0 0.0 0.0
0.0 0.0 0.0
0.0 0.0 0.0
0.0 0.0 0.0
0.0 0.0 0.0
0.0 0.0 0.0
0.0 0.0 0.0
0.0 0.0 0.0
0.0 0.0 0.0
0.0 0.0 0.0
0.0 0.0 0.0
0.0 0.0 0.0
0.0 0.0 0.0
0.0 0.0 0.0
0.0 0.0 0.0
0.0 0.0 0.0
VECTORS f float
0.0 0.0 -6.57473
0.0 0.0 -6.57473
0.0 0.0 -6.57473
0.0 0.0 -6.57473
0.0 0.0 -6.57473
1.25311 2.8581 55.84
2.46079 11.0388 219.621
7.87242 25.2855 523.079
0.0 0.0 -6.57473
0.0 0.0 -6.57473
0.0 0.0 -6.57473
9.32097 47.2203 956.055
0.0 0.0 -6.57473
1.68853 3.50978 71.3218
0.0 0.0 -6.57473
0.0 0.0 -6.57473
11.022 -32.1853 -2.0097
0.0 0.0 -6.57473
0.0 0.0 -6.57473
0.0 0.0 -6.57473
-231.194 -0.637847 4.96736
0.0 0.0 -6.57473
0.0 0.0 -6.57473
0.0 0.0 -6.57473
0.0 0.0 -6.57473
-0.845609 -1.64117 -7.55539
0.0 0.0 -6.57473
0.0 0.0 -6.57473
0.0 0.0 -6.57473
0.0 0.0 -6.57473
-88.1412 72.0652 -3.38142
0.0 0.0 -6.57473
0.0 0.0 -6.57473
0.0 0.0 -6.57473
0.0 0.0 -6.57473
0.0 0.0 -6.57473
0.0 0.0 -6.57473
0.0 0.0 -6.57473
0.0 0.0 -6.57473
-15.9312 -43.2234 -33.114
0.0 0.0 -6.57473
0.0 0.0 -6.57473
27.0039 -124.481 -85.6517
0.0 0.0 -6.57473
0.0 0.0 -6.57473
-105.351 -166.693 70.0469
0.0 0.0 -6.57473
0.0 0.0 -6.57473
0.845609 1.64117 -5.59406
0.0 0.0 -6.57473
0.0 0.0 -6.57473
0.0 0.0 -6.57473
0.0 0.0 -6.57473
55.0971 -82.8893 -70.349
0.0 0.0 -6.57473
0.0 0.0 -6.57473
0.0 0.0 -6.57473
0.0 0.0 -6.57473
0.0 0.0 -6.57473
0.0 0.0 -6.57473
0.0 0.0 -6.57473
0.0 0.0 -6.57473
0.0 0.0 -6.57473
15.9312 43.2234 19.9646
-73.8099 10.4548 0.309669
0.0 0.0 -6.57473
0.0 0.0 -6.57473
0.0 0.0 -6.57473
0.0 0.0 -6.57473
0.0 0.0 -6.57473
0.0 0.0 -6.57473
-39.6279 -156.738 -38.4105
0.0 0.0 -6.57473
88.1412 -72.0652 -9.76803
0.0 0.0 -6.57473
0.0 0.0 -6.57473
0.0 0.0 -6.57473
0.0 0.0 -6.57473
-11.022 32.1853 -11.1397
0.0 0.0 -6.57473
0.0 0.0 -6.57473
0.0 0.0 -6.57473
0.0 0.0 -6.57473
0.0 0.0 -6.57473
0.0 0.0 -6.57473
0.0 0.0 -6.57473
0.0 0.0 -6.57473
0.0 0.0 -6.57473
0.0 0.0 -6.57473
0.0 0.0 -6.57473
0.0 0.0 -6.57473
0.0 0.0 -6.57473
0.0 0.0 -6.57473
0.0 0.0 -6.57473
0.0 0.0 -6.57473
0.0 0.0 -6.57473
39.6279 156.738 25.261
0.0 0.0 -6.57473
-55.0971 82.8893 57.1995
0.0 0.0 -6.57473
0.0 0.0 -6.57473
0.0 0.0 -6.57473
0.0 0.0 -6.57473
0.0 0.0 -6.57473
0.0 0.0 -6.57473
0.0 0.0 -6.57473
0.0 0.0 -6.57473
0.0 0.0 -6.57473
0.0 0.0 -6.57473
0.0 0.0 -6.57473
0.0 0.0 -6.57473
0.0 0.0 -6.57473
0.0 0.0 -6.57473
0.0 0.0 -6.57473
0.0 0.0 -6.57473
0.0 0.0 -6.57473
0.0 0.0 -6.57473
0.0 0.0 -6.57473
0.0 0.0 -6.57473
0.0 0.0 -6.57473
0.0 0.0 -6.57473
0.0 0.0 -6.57473
0.0 0.0 -6.57473
0.0 0.0 -6.57473
0.0 0.0 -6.57473
0.0 0.0 -6.57473
0.0 0.0 -6.57473
0.0 0.0 -6.57473
0.0 0.0 -6.57473
0.0 0.0 -6.57473
0.0 0.0 -6.57473
0.0 0.0 -6.57473
0.0 0.0 -6.57473
0.0 0.0 -6.57473
0.0 0.0 -6.57473
73.8099 -10.4548 -13.4591
78.3475 291.173 -4.11946
0.0 0.0 -6.57473
0.0 0.0 -6.57473
0.0 0.0 -6.57473
0.0 0.0 -6.57473
0.0 0.0 -6.57473
0.0 0.0 -6.57473
0.0 0.0 -6.57473
0.0 0.0 -6.57473
0.0 0.0 -6.57473
0.0 0.0 -6.57473
9.82637 -8.01981 -13.6843
0.0 0.0 -6.57473
-0.303269 0.274479 -5.61685
0.0 0.0 -6.57473
0.0 0.0 -6.57473
0.0 0.0 -6.57473
0.0 0.0 -6.57473
32.0618 -135.503 -39.1179
0.0 0.0 -6.57473
0.0 0.0 -6.57473
0.0 0.0 -6.57473
0.0 0.0 -6.57473
0.0 0.0 -6.57473
0.0 0.0 -6.57473
0.0 0.0 -6.57473
0.0 0.0 -6.57473
0.0 0.0 -6.57473
0.0 0.0 -6.57473
0.0 0.0 -6.57473
0.0 0.0 -6.57473
0.0 0.0 -6.57473
0.0 0.0 -6.57473
0.0 0.0 -6.57473
0.0 0.0 -6.57473
0.0 0.0 -6.57473
-32.0618 135.503 25.9684
0.0 0.0 -6.57473
0.0 0.0 -6.57473
0.0 0.0 -6.57473
0.0 0.0 -6.57473
0.0 0.0 -6.57473
0.0 0.0 -6.57473
0.0 0.0 -6.57473
0.0 0.0 -6.57473
0.0 0.0 -6.57473
0.0 0.0 -6.57473
0.0 0.0 -6.57473
0.0 0.0 -6.57473
0.0 0.0 -6.57473
0.0 0.0 -6.57473
0.0 0.0 -6.57473
0.0 0.0 -6.57473
0.0 0.0 -6.57473
0.0 0.0 -6.57473
0.0 0.0 -6.57473
0.0 0.0 -6.57473
-12.467 -12.9411 -5.21979
0.0 0.0 -6.57473
0.0 0.0 -6.57473
0.0 0.0 -6.57473
0.0 0.0 -6.57473
0.0 0.0 -6.57473
0.0 0.0 -6.57473
0.0 0.0 -6.57473
0.0 0.0 -6.57473
0.0 0.0 -6.57473
0.0 0.0 -6.57473
0.0 0.0 -6.57473
0.0 0.0 -6.57473
0.0 0.0 -6.57473
0.0 0.0 -6.57473
12.467 12.9411 -7.92966
0.0 0.0 -6.57473
0.0 0.0 -6.57473
0.0 0.0 -6.57473
0.0 0.0 -6.57473
0.0 0.0 -6.57473
0.0 0.0 -6.57473
0.0 0.0 -6.57473
0.0 0.0 -6.57473
0.0 0.0 -6.57473
0.0 0.0 -6.57473
0.0 0.0 -6.57473
0.0 0.0 -6.57473
0.0 0.0 -6.57473
0.0 0.0 -6.57473
0.0 0.0 -6.57473
0.0 0.0 -6.57473
0.0 0.0 -6.57473
0.0 0.0 -6.57473
0.0 0.0 -6.57473
0.0 0.0 -6.57473
0.0 0.0 -6.57473
0.0 0.0 -6.57473
0.0 0.0 -6.57473
0.0 0.0 -6.57473
0.0 0.0 -6.57473
0.0 0.0 -6.57473
0.0 0.0 -6.57473
0.0 0.0 -6.57473
0.0 0.0 -6.57473
0.0 0.0 -6.57473
0.0 0.0 -6.57473
0.0 0.0 -6.57473
-0.16935 2.117 -4.45158
0.0 0.0 -6.57473
1.77805 25.1143 18.6519
0.0 0.0 -6.57473
2.21157 31.2392 24.7864
0.0 0.0 -6.57473
0.0 0.0 -6.57473
0.0 0.0 -6.57473
0.0 0.0 -6.57473
3.49943 49.5409 42.8786
0.0 0.0 -6.57473
84.3574 0.80825 -2.62954
-31.3664 -7.49537 -22.2814
31.3664 7.49537 9.13192
0.0 0.0 -6.57473
0.0 0.0 -6.57473
0.0 0.0 -6.57473
0.0 0.0 -6.57473
-67.2805 11.8065 -43.5973
7.33308 -46.28 12.0344
9.17187 -22.5008 13.8539
2.63019 -6.75562 -5.27583
0.0 0.0 -6.57473
1.30641 18.4523 11.9678
0.0 0.0 -6.57473
4.56432 -0.0407106 84.7153
0.0 0.0 -6.57473
0.0 0.0 -6.57473
0.0 0.0 -6.57473
0.0 0.0 -6.57473
0.0 0.0 -6.57473
97.0885 -31.8883 -19.4012
0.0 0.0 -6.57473
0.0 0.0 -6.57473
0.0 0.0 -6.57473
0.0 0.0 -6.57473
0.0 0.0 -6.57473
0.0 0.0 -6.57473
0.0 0.0 -6.57473
0.0 0.0 -6.57473
0.0 0.0 -6.57473
43.6925 -30.7633 14.1626
0.0 0.0 -6.57473
0.0 0.0 -6.57473
-48.9431 95.6182 2.93767
0.0 0.0 -6.57473
0.0 0.0 -6.57473
0.0 0.0 -6.57473
0.0 0.0 -6.57473
0.0 0.0 -6.57473
-4.57877 -2.65414 -4.88266
-2.1342 -23.7854 123.168
0.0 0.0 -6.57473
0.0 0.0 -6.57473
-43.6925 30.7633 -27.3121
5.44995 -0.400296 102.718
0.0 0.0 -6.57473
0.0 0.0 -6.57473
0.0 0.0 -6.57473
0.0 0.0 -6.57473
0.0 0.0 -6.57473
0.0 0.0 -6.57473
5.96356 -0.871786 113.964
0.0 0.0 -6.57473
4.57877 2.65414 -8.26679
0.0 0.0 -6.57473
-4.08847 2.21418 -5.82826
13.4224 21.5722 6.93107
0.0 0.0 -6.57473
0.0 0.0 -6.57473
0.0 0.0 -6.57473
0.0 0.0 -6.57473
0.0 0.0 -6.57473
-9.82637 8.01981 0.534876
0.0 0.0 -6.57473
0.0 0.0 -6.57473
0.0 0.0 -6.57473
0.0 0.0 -6.57473
0.0 0.0 -6.57473
0.0 0.0 -6.57473
0.0 0.0 -6.57473
0.0 0.0 -6.57473
0.0 0.0 -6.57473
0.0 0.0 -6.57473
0.0 0.0 -6.57473
0.0 0.0 -6.57473
0.0 0.0 -6.57473
0.0 0.0 -6.57473
0.0 0.0 -6.57473
0.0 0.0 -6.57473
0.0 0.0 -6.57473
0.0 0.0 -6.57473
0.0 0.0 -6.57473
0.0 0.0 -6.57473
0.0 0.0 -6.57473
0.0 0.0 -6.57473
0.0 0.0 -6.57473
0.0 0.0 -6.57473
0.303269 -0.274479 -7.5326
0.0 0.0 -6.57473
0.0 0.0 -6.57473
0.0 0.0 -6.57473
0.0 0.0 -6.57473
0.0 0.0 -6.57473
0.0 0.0 -6.57473
0.0 0.0 -6.57473
0.0 0.0 -6.57473
0.0 0.0 -6.57473
0.0 0.0 -6.57473
0.0 0.0 -6.57473
0.0 0.0 -6.57473
0.0 0.0 -6.57473
0.0 0.0 -6.57473
VECTORS omega float
39.8209 -9.57107 -2.65393
31.5142 8.57171 -14.2554
25.7518 15.118 -14.5148
54.2137 11.6873 -11.5188
57.9565 25.6733 -25.1183
28.6961 -2.75943 -7.20249
0.705731 5.96023 -6.10577
22.6711 10.4548 -17.0679
-3.10265 5.55561 -15.6213
32.181 3.05991 -13.0739
5.60425 0.767157 2.80934
-0.681804 9.05601 -10.507
3.57563 -2.76563 -2.83359
21.6707 39.899 -5.24782
-3.33166 8.19587 -6.63235
-5.5011 1.44887 -0.662921
65.7991 14.7116 -14.4291
3.0516 7.24955 -3.02406
3.75617 -1.69568 -5.19486
-4.56407 2.19043 -3.68179
2.87361 -5.39676 3.00214
-0.00123231 5.85967 -16.3032
0.783245 17.4519 -12.4095
-9.74345 29.9626 -20.6897
3.21804 -8.05157 4.26665
5.66222 -6.41178 5.28762
-1.9652 -4.22282 -3.44311
-25.0194 5.91146 -17.2322
6.38223 -6.87369 -9.41747
-11.3647 -18.1158 15.517
1.65826 2.12286 -2.19882
-8.87458 10.6121 -10.5154
-21.4533 15.7461 -15.6656
0.0 0.0 0.0
0.0 0.0 0.0
0.0 0.0 0.0
0.0 0.0 0.0
0.0193355 -0.756053 -1.59753
-2.66576 0.446819 -4.48848
-1.53697 -0.254541 4.28128
0.637276 2.31304 -0.62612
1.6032 -0.413811 2.48955
0.331945 -0.0982297 0.267873
0.0 0.0 0.0
1.65411 0.913393 3.69672
-9.15522 2.94671 -6.26189
-2.40385 0.77839 2.79675
0.0 0.0 0.0
0.306691 -2.57877 14.3482
-6.94729 9.62 3.83845
-2.56466 1.1584 2.66397
2.46223 -0.231052 0.384975
-6.71805 17.0468 -15.7322
0.020649 -0.243302 0.336093
2.52199 -2.2573 4.90112
-4.07093 7.76813 -3.95979
3.64258 -8.8104 3.35902
-1.47021 -17.9925 5.12749
0.0 0.0 0.0
3.92385 0.75246 -1.41463
-1.93702 2.486 0.845869
0.0 0.0 0.0
0.384982 0.722066 0.812376
-0.26426 -0.312744 3.22004
8.50017 0.360425 -13.7747
0.0 0.0 0.0
-5.64911 -5.28123 -2.50679
-0.625067 2.38581 2.7002
-10.6525 -4.8032 2.51498
-12.5918 1.82595 18.0935
-2.16137 -1.42728 1.62929
-1.20865 0.228983 -0.861242
1.41802 2.23508 -3.49097
8.16815 2.63757 -4.69009
-14.9489 -11.4839 3.57292
1.21848 -1.11467 -2.79077
0.0 0.0 0.0
0.0 0.0 0.0
-0.0098081 -0.00299262 0.0025804
0.0 0.0 0.0
1.98249 -3.78323 -6.30787
-5.06028 2.55559 3.63156
-1.75884 1.05907 2.14362
0.0 0.0 0.0
0.0 0.0 0.0
0.0 0.0 0.0
-1.97106 0.449975 -4.08532
0.0 0.0 0.0
0.0 0.0 0.0
0.466479 -1.11239 0.177166
0.0 0.0 0.0
-4.34639 -1.62453 0.789815
-0.372888 8.39753 -9.71723
0.0 0.0 0.0
0.0 0.0 0.0
-2.37052 0.426871 -10.9583
-4.16277 -12.2267 6.9483
-1.97994 5.19802 -3.28912
12.3758 10.8278 -14.9351
0.0 0.0 0.0
-0.719777 -2.09756 -0.247046
-0.139541 0.470524 -1.83114
0.0 0.0 0.0
0.0 0.0 0.0
3.67393 0.738174 -7.16944
3.28199 -2.04437 -1.39031
0.0 0.0 0.0
0.0 0.0 0.0
0.0 0.0 0.0
-1.25653 0.994648 -0.227431
0.269956 0.327891 1.16264
0.0 0.0 0.0
0.0 0.0 0.0
0.0 0.0 0.0
-0.914347 0.964982 -1.65568
-2.69277 1.89703 -1.67912
-0.383737 -0.178212 -1.27373
0.0 0.0 0.0
0.0 0.0 0.0
0.550938 0.121626 2.72115
0.424466 -0.0124902 2.78536
-0.742151 1.16236 -0.0529876
0.123065 -0.0893663 0.411409
-7.46205 0.189629 -6.57388
0.405302 1.31293 0.263036
1.08359 -2.1793 2.69959
0.744666 4.25727 1.11416
-1.51555 -0.0190214 1.38248
-13.4217 2.62852 -8.60609
0.0 0.0 0.0
-0.846666 -1.76089 -0.953591
-2.28113 -2.17245 0.472512
-0.816184 0.997417 2.30676
-15.3591 -3.07114 2.1419
-6.33738 5.73925 -7.46064
8.5025 17.079 -8.63385
-18.9931 -22.5002 11.9028
-1.97438 -8.14019 6.31824
-5.08011 3.16601 -4.17587
0.367869 -0.516513 -0.23913
-2.35014 -10.765 1.77253
0.730309 -5.1738 -2.3202
2.8779 -16.843 -4.44659
2.28542 -5.34203 0.823613
-1.98732 -9.35531 1.07929
1.29827 -1.28185 0.0344172
-1.78718 -13.8827 -1.88892
-1.95982 -7.48953 0.373489
-1.6626 -1.25651 -1.34072
-2.77975 -5.72244 -0.243455
1.07585 0.373768 4.27758
0.0 0.0 0.0
0.0 0.0 0.0
-3.23171 1.85862 -3.553
-1.6722 -0.704051 1.30189
0.0 0.0 0.0
0.0 0.0 0.0
0.0 0.0 0.0
0.0 0.0 0.0
0.0 0.0 0.0
-0.0492487 0.648714 -0.11463
0.763753 -0.183951 -2.47866
1.52319 0.787402 -0.741232
-2.20469 0.693299 1.30874
3.26082 -0.864724 -0.0634411
0.0 0.0 0.0
-0.840326 -0.268147 -3.56061
0.0 0.0 0.0
0.0 0.0 0.0
0.0 0.0 0.0
0.0 0.0 0.0
0.0 0.0 0.0
3.08118 -0.315662 0.146512
0.0 0.0 0.0
0.109065 0.127135 0.802012
0.00113462 1.32092 -1.81676
-1.00353 -2.65932 -1.57525
0.0 0.0 0.0
0.0 0.0 0.0
0.0 0.0 0.0
1.68351 -0.278658 -2.92773
0.485998 0.416057 2.069
2.44034 2.32238 0.358679
0.0 0.0 0.0
-0.000459123 0.104581 -0.00501042
0.521514 0.36405 1.93432
0.38918 -0.58412 -0.783216
1.00172 -0.18442 -3.23844
2.08979 -1.34085 1.41186
-1.48203 -2.1634 -2.0
0.0 0.0 0.0
0.0 0.0 0.0
0.0 0.0 0.0
-0.450136 -0.135863 0.729819
-1.13881 4.6465 -1.63798
-0.323977 3.39035 3.77345
0.0 0.0 0.0
0.0 0.0 0.0
-0.589491 -0.06879 0.0639764
0.0 0.0 0.0
3.61506 4.65362 6.73023
0.150396 0.718525 -3.20779
0.0 0.0 0.0
-2.77535 -2.0869 -0.293718
0.0 0.0 0.0
1.96607 -0.721405 -0.775043
0.0 0.0 0.0
-3.36 1.14568 -0.598873
-2.15644 1.60019 6.05067
4.46588 -1.52325 2.12915
-10.3686 2.14331 -1.15446
2.61678 0.675497 -2.41691
1.04449 -1.2881 -0.195708
0.321734 1.0493 3.01295
-0.831812 1.3673 2.01254
0.238485 2.90904 -2.75078
-2.81895 -2.95236 1.4518
-13.4947 -6.85225 12.0491
-11.427 -1.51208 11.5316
-12.3112 2.89138 6.79168
-4.5217 7.14396 -7.08011
0.0 0.0 0.0
0.611622 -0.171818 0.199332
-3.93739 -3.50299 -2.98224
0.0 0.0 0.0
-3.83753 -1.5694 2.56489
-0.627982 0.663536 -0.700312
0.0 0.0 0.0
-6.51743 2.50739 -9.74078
-2.19349 -2.76609 -1.68268
0.0 0.0 0.0
-2.63991 7.32989 -7.95202
-7.75395 6.65452 -6.14058
-6.48934 6.94762 -6.58691
-14.6927 17.57 -16.7492
1.27017 1.58607 -1.55375
-4.95316 13.2924 -10.9052
-4.27246 4.04651 7.90071
-4.40205 -1.25861 5.89703
-1.00004 3.00912 -3.08365
3.21049 14.2434 -15.9053
-1.76105 -0.952612 1.62857
-0.946692 -0.624077 2.82494
0.275904 -1.48922 1.30072
1.30402 -2.38241 3.33656
1.55754 -3.4636 3.15199
0.119106 -1.59349 1.46706
-0.266463 -4.12166 0.527875
-1.02141 -5.76395 5.93199
2.19387 -2.80567 2.10119
1.52494 -4.15402 1.99497
0.0 0.0 0.0
1.72543 -2.91232 0.410165
-4.09253 -9.22788 1.75152
-1.19879 0.741905 -0.323148
3.52023 1.29498 -0.236873
0.273964 -8.35445 5.09352
0.2096 -5.4793 2.13001
-1.48439 -3.6148 -5.98663
0.112477 -14.7935 -5.39136
0.289762 -4.96607 3.36
1.30944 -6.81931 0.708771
0.385624 -2.16932 2.98258
1.5569 -8.04205 -1.37798
0.395023 -3.41517 6.10958
-4.59429 -8.56422 5.1157
-1.76582 -3.60645 2.63627
1.48904 -9.98976 3.37531
1.309 -1.13752 2.26305
0.0 0.0 0.0
-1.78088 -12.5239 0.0576352
3.43637 0.189368 -1.04906
0.906627 -1.77325 1.2296
1.88097 -4.09606 2.09808
0.333612 -8.43181 -0.480286
0.215119 -3.99414 1.88476
0.604014 1.21563 -0.329768
1.53942 1.25152 -0.365685
1.3856 -11.038 1.13386
2.12026 -8.41726 -0.728333
-2.67228 -13.2976 -2.2076
0.569091 -5.58011 -0.663083
-4.09094 4.36602 -2.84284
-5.03347 -5.61372 1.36294
0.0925608 -8.6337 -1.56984
5.0759 -9.00469 -0.294481
-2.02059 3.36931 -0.401977
-1.81889 -7.8303 -3.1853
-0.166429 -6.53074 0.71186
6.68891 -4.58453 5.07277
0.952182 -7.19577 0.71083