# vtk DataFile Version 2.0
Generated by lpp.py
ASCII
DATASET POLYDATA
POINTS 275 float
-0.663956 -0.777749 -0.953055
0.648708 -0.910936 -0.727567
0.405539 -0.186598 -0.868638
0.506183 -0.175988 -0.886146
-0.189307 -0.303028 -0.750935
-0.177195 -0.574914 -0.600242
-0.841655 -0.325022 -0.591336
-0.314556 -0.39324 -0.573029
-0.0339742 -0.351709 -0.521379
0.114015 -0.17269 -0.53063
-0.381069 -0.038682 -0.481423
0.116434 -0.306787 -0.374376
-0.686645 -0.286521 -0.401008
-0.365838 -0.135862 -0.392491
0.645998 -0.128303 -0.401696
0.243925 -0.0172949 -0.405428
0.856901 0.0131457 -0.36138
-0.598837 -0.378928 -0.267821
-0.883174 -0.316962 -0.241892
-0.360633 -0.318957 -0.280076
-0.15515 -0.308234 -0.25424
-0.530386 -0.262897 -0.255729
0.407448 -0.258356 -0.282162
0.189969 -0.175917 -0.258773
-0.742742 -0.128475 -0.360812
-0.898929 -0.399297 -0.216785
-0.818387 -0.366864 -0.21352
-0.729812 -0.33461 -0.227236
-0.502767 -0.355777 -0.202602
-0.322844 -0.371952 -0.214192
-0.219765 -0.357531 -0.217531
-0.0660191 -0.347845 -0.231679
0.0427891 -0.374689 -0.227593
0.59263 -0.38804 -0.228836
0.805976 -0.341001 -0.171463
-0.000466142 -0.281974 -0.185764
0.101063 -0.281479 -0.21112
0.16348 -0.335352 -0.168403
0.374555 -0.339758 -0.240642
0.590071 -0.299708 -0.203722
-0.612418 -0.229799 -0.206905
0.319259 -0.264722 -0.168794
0.63272 -0.239877 -0.239791
-0.734631 -0.186366 -0.225054
-0.471553 -0.180716 -0.171956
-0.292897 -0.258541 -0.264126
0.0698967 -0.186574 -0.218649
0.271397 -0.175515 -0.192312
0.878287 -0.194265 -0.21292
-0.441901 -0.109456 -0.229373
-0.177364 -0.168203 -0.203308
-0.0532919 -0.132281 -0.202398
0.0899479 -0.114427 -0.26533
0.41191 -0.175446 -0.310798
0.883867 -0.107729 -0.217068
-0.780594 -0.136372 -0.275596
0.153079 -0.104029 -0.295741
0.34306 -0.131514 -0.357356
0.651739 -0.094796 -0.260012
0.875956 -0.00481865 -0.202008
-0.730677 -0.395484 -0.0958709
-0.0209375 -0.398372 -0.11841
0.474385 -0.425816 -0.146001
0.661814 -0.398752 -0.102517
-0.132305 -0.286383 -0.14475
0.45259 -0.300581 -0.138722
0.680034 -0.296313 -0.111393
0.89841 -0.277116 -0.165587
-0.800158 -0.200673 -0.107317
-0.423609 -0.264031 -0.126093
-0.199234 -0.2374 -0.155524
-0.0903123 -0.212791 -0.0974043
0.543097 -0.260078 -0.114556
0.788215 -0.208071 -0.142032
-0.8914 -0.158888 -0.122637
-0.00966435 -0.190577 -0.158505
0.0943782 -0.208806 -0.0908444
0.511467 -0.157742 -0.158135
0.716465 -0.167067 -0.129452
-0.772358 -0.107976 -0.151968
-0.602372 -0.141131 -0.152106
0.329686 -0.0936173 -0.125319
0.818742 -0.116496 -0.107617
-0.897167 -0.0417488 -0.140258
-0.803562 -0.0262618 -0.118053
-0.508105 -0.127213 -0.204394
-0.452324 -0.0179284 -0.207041
-0.277848 -0.0164309 -0.210109
-0.0194231 -0.0565492 -0.0939326
0.187344 -0.0767752 -0.144665
0.526033 -0.089749 -0.184648
0.6791 -0.0500797 -0.163788
0.802526 -0.0709572 -0.174155
-0.879158 0.0816051 -0.0953974
-0.848622 0.161913 -0.145781
-0.910926 0.25051 -0.122722
0.0820007 0.264535 -0.0508026
0.544639 0.251012 -0.0665816
-0.534408 0.294116 -0.0646305
-0.334789 0.293222 -0.0580339
0.281565 0.373441 -0.0637001
0.563163 0.339092 -0.0613093
0.684389 0.40053 -0.0573777
-0.865511 -0.377988 -0.0527818
-0.655278 -0.384664 -0.0374168
-0.555034 -0.380243 -0.01451
-0.433584 -0.3792 -0.0794972
-0.335477 -0.33562 -0.0114521
-0.244875 -0.363587 -0.0171146
-0.149027 -0.399995 -0.0692098
-0.0854038 -0.347428 -0.0385773
0.0480356 -0.384671 -0.0170333
0.133823 -0.374184 -0.0552453
0.209332 -0.334188 -0.0113288
0.279371 -0.357019 -0.0849631
0.400146 -0.400328 -0.0268177
0.536087 -0.349546 -0.0571905
0.616946 -0.350337 -0.0150777
0.759815 -0.350732 -0.0189453
0.893682 -0.395474 -0.0893893
-0.772972 -0.327848 -0.0540126
-0.625387 -0.303859 -0.0600589
-0.488691 -0.290482 -0.0339636
-0.268105 -0.28813 -0.0557062
-0.170539 -0.291904 -0.025589
-0.0146049 -0.295721 -0.0257982
0.10149 -0.295439 -0.0525576
0.360205 -0.32986 -0.0286209
0.461785 -0.321241 -0.0138499
0.82997 -0.310182 -0.0407851
-0.8565 -0.262885 -0.0735973
-0.725622 -0.236859 -0.0728633
-0.550834 -0.209144 -0.0675669
-0.374019 -0.238142 -0.0100445
-0.309007 -0.210534 -0.0839666
0.0307951 -0.221731 -0.0425527
0.16752 -0.24191 -0.0577405
0.256897 -0.233628 -0.0222588
0.346156 -0.259224 -0.0578499
0.61843 -0.264375 -0.0212881
0.763043 -0.23792 -0.0333965
-0.781192 -0.133942 -0.0198643
-0.649467 -0.173334 -0.0898454
-0.466231 -0.22164 -0.0270431
-0.379016 -0.1576 -0.077108
-0.199978 -0.192419 -0.0336741
-0.119113 -0.149871 -0.0244123
-0.034827 -0.14977 -0.0254507
0.199849 -0.169468 -0.036642
0.372161 -0.203767 0.000231946
0.445057 -0.212686 -0.0800231
0.568913 -0.206451 -0.0243792
0.679523 -0.213303 -0.0147256
0.755881 -0.136839 -0.0334872
0.877537 -0.192573 -0.0523676
-0.853585 -0.0900511 -0.0292394
-0.701943 -0.110525 -0.0158218
-0.566539 -0.125996 -0.0678935
-0.463549 -0.101719 -0.0676223
-0.319354 -0.0795837 -0.0134806
-0.248055 -0.118352 -0.0804265
0.0382987 -0.103398 -0.0565724
0.19214 -0.08392 -0.0460865
0.469238 -0.0931255 -0.0458025
0.896184 -0.102591 -0.0267284
-0.858929 -0.00626868 -0.0218144
-0.722706 -0.0709857 -0.107835
-0.645272 -0.0395817 -0.0156522
-0.51947 -0.0485663 -0.087357
-0.386546 -0.0374815 -0.0569612
-0.206168 -0.0313974 -0.0169553
-0.130347 -0.0622612 -0.0328577
0.0884577 -0.03194 -0.0756863
0.534192 -0.0158662 -0.0322637
0.628247 -0.0715737 -0.0385625
0.730939 -0.0494448 -0.0116343
0.835613 -0.0342898 -0.101941
0.934717 -0.0276626 -0.0459324
-0.789906 0.112418 -0.00737162
-0.418312 0.13705 -0.0260433
-0.0331515 0.133464 -0.0247306
0.17405 0.116083 -0.00884148
0.308887 0.117088 -0.0092946
0.491365 0.119497 -0.0116195
0.778018 0.131052 -0.0240341
0.887326 0.128512 -0.00934197
-0.899497 0.155311 -0.0550284
-0.741563 0.173911 -0.0667789
-0.628304 0.201929 -0.0581853
-0.491109 0.173501 -0.0694779
-0.343909 0.208739 -0.0665083
-0.29266 0.13642 -0.0294265
-0.0985555 0.183798 -0.0175345
0.0245791 0.187816 -0.0296698
0.143783 0.173729 -0.055463
0.218663 0.194509 -0.0673538
0.384822 0.136151 -0.030692
0.494117 0.186897 -0.0558617
0.606872 0.172642 -0.0666751
0.689778 0.158017 -0.0547559
0.934932 0.18711 -0.0709536
-0.830722 0.193244 -0.0318839
-0.783455 0.266709 -0.0461799
-0.676677 0.276279 -0.0279389
-0.540334 0.246117 -0.00105524
-0.471976 0.248692 -0.0525738
-0.208876 0.202086 -0.0495516
-0.040612 0.227776 -0.0711628
0.297544 0.207353 -0.0370313
0.381562 0.216482 -0.0600942
0.656171 0.241805 -0.056677
0.765296 0.20775 -0.0294386
0.839623 0.221657 -0.0667285
-0.863936 0.320304 -0.0406532
-0.725016 0.32928 -0.0680667
-0.557117 0.330312 -0.00185529
-0.235094 0.280259 -0.0265273
-0.15433 0.279791 -0.0420949
-0.0819191 0.306527 -0.0245975
-0.00160615 0.324495 -0.0460026
0.252352 0.311493 -0.0186904
0.330855 0.311259 -0.0659693
0.416238 0.288316 -0.0674951
0.503325 0.304509 -0.0228733
0.650912 0.330064 -0.0455484
0.717161 0.280051 0.00612523
0.830406 0.29565 -0.0136734
0.909856 0.310858 -0.0146534
-0.680555 0.384973 -0.00315529
-0.618333 0.350153 -0.0517845
-0.545747 0.414218 -0.042375
-0.482811 0.351635 -0.0293246
-0.404351 0.350331 -0.0470198
-0.310494 0.379742 -0.062326
-0.249396 0.404511 -0.0171854
-0.189765 0.35349 -0.0220322
-0.103425 0.389793 -0.0260745
0.0731941 0.346502 -0.052689
0.115273 0.410381 -0.0106176
0.173853 0.353417 -0.0432579
0.399101 0.388608 -0.0481731
0.33782 0.404304 -0.000479094
0.492023 0.404398 -0.0629554
0.744118 0.340137 -0.0410442
0.823426 0.392012 -0.0499905
-0.76264 0.41266 -0.0383895
0.0162008 0.425284 -0.049799
0.225356 0.411349 -0.00443601
0.605521 0.426201 -0.0488172
0.941596 0.413468 -0.0463541
-0.73623 0.578054 0.00626812
0.505392 -0.240581 0.0222599
0.381444 -0.113416 0.0115307
0.570354 -0.107579 0.007055
-0.710401 0.123602 0.000433975
-0.583256 0.144972 0.137211
-0.211492 0.187534 0.0742385
0.0969412 0.152913 0.00555571
-0.616452 0.272656 0.0318931
-0.307794 0.2307 0.00871748
0.175763 0.272747 0.0111742
0.393961 0.327736 0.0091431
0.707392 0.386209 0.0328196
-0.0965377 0.312436 0.214771
0.689736 0.216446 0.124314
-0.0105924 0.273998 0.0741659
0.839044 0.292325 0.0958572
0.940282 0.283531 0.174313
0.532131 0.318815 0.269675
0.257366 0.564836 0.227608
-0.762014 0.538882 0.381396
0.330424 0.675899 0.631819
0.103183 0.835013 0.859456
0.426718 0.929759 0.84068
-0.483255 0.785133 0.838058
VERTICES 275 550
1 0
1 1
1 2
1 3
1 4
1 5
1 6
1 7
1 8
1 9
1 10
1 11
1 12
1 13
1 14
1 15
1 16
1 17
1 18
1 19
1 20
1 21
1 22
1 23
1 24
1 25
1 26
1 27
1 28
1 29
1 30
1 31
1 32
1 33
1 34
1 35
1 36
1 37
1 38
1 39
1 40
1 41
1 42
1 43
1 44
1 45
1 46
1 47
1 48
1 49
1 50
1 51
1 52
1 53
1 54
1 55
1 56
1 57
1 58
1 59
1 60
1 61
1 62
1 63
1 64
1 65
1 66
1 67
1 68
1 69
1 70
1 71
1 72
1 73
1 74
1 75
1 76
1 77
1 78
1 79
1 80
1 81
1 82
1 83
1 84
1 85
1 86
1 87
1 88
1 89
1 90
1 91
1 92
1 93
1 94
1 95
1 96
1 97
1 98
1 99
1 100
1 101
1 102
1 103
1 104
1 105
1 106
1 107
1 108
1 109
1 110
1 111
1 112
1 113
1 114
1 115
1 116
1 117
1 118
1 119
1 120
1 121
1 122
1 123
1 124
1 125
1 126
1 127
1 128
1 129
1 130
1 131
1 132
1 133
1 134
1 135
1 136
1 137
1 138
1 139
1 140
1 141
1 142
1 143
1 144
1 145
1 146
1 147
1 148
1 149
1 150
1 151
1 152
1 153
1 154
1 155
1 156
1 157
1 158
1 159
1 160
1 161
1 162
1 163
1 164
1 165
1 166
1 167
1 168
1 169
1 170
1 171
1 172
1 173
1 174
1 175
1 176
1 177
1 178
1 179
1 180
1 181
1 182
1 183
1 184
1 185
1 186
1 187
1 188
1 189
1 190
1 191
1 192
1 193
1 194
1 195
1 196
1 197
1 198
1 199
1 200
1 201
1 202
1 203
1 204
1 205
1 206
1 207
1 208
1 209
1 210
1 211
1 212
1 213
1 214
1 215
1 216
1 217
1 218
1 219
1 220
1 221
1 222
1 223
1 224
1 225
1 226
1 227
1 228
1 229
1 230
1 231
1 232
1 233
1 234
1 235
1 236
1 237
1 238
1 239
1 240
1 241
1 242
1 243
1 244
1 245
1 246
1 247
1 248
1 249
1 250
1 251
1 252
1 253
1 254
1 255
1 256
1 257
1 258
1 259
1 260
1 261
1 262
1 263
1 264
1 265
1 266
1 267
1 268
1 269
1 270
1 271
1 272
1 273
1 274
POINT_DATA 275
VECTORS i float
0.0 0.0 0.0
0.0 0.0 0.0
0.0 0.0 0.0
0.0 0.0 0.0
0.0 0.0 0.0
0.0 0.0 0.0
0.0 0.0 0.0
0.0 0.0 0.0
0.0 0.0 0.0
0.0 0.0 0.0
0.0 0.0 0.0
0.0 0.0 0.0
0.0 0.0 0.0
0.0 0.0 0.0
0.0 0.0 0.0
0.0 0.0 0.0
0.0 0.0 0.0
0.0 0.0 0.0
0.0 0.0 0.0
0.0 0.0 0.0
0.0 0.0 0.0
0.0 0.0 0.0
0.0 0.0 0.0
0.0 0.0 0.0
0.0 0.0 0.0
0.0 0.0 0.0
0.0 0.0 0.0
0.0 0.0 0.0
0.0 0.0 0.0
0.0 0.0 0.0
0.0 0.0 0.0
0.0 0.0 0.0
0.0 0.0 0.0
0.0 0.0 0.0
0.0 0.0 0.0
0.0 0.0 0.0
0.0 0.0 0.0
0.0 0.0 0.0
0.0 0.0 0.0
0.0 0.0 0.0
0.0 0.0 0.0
0.0 0.0 0.0
0.0 0.0 0.0
0.0 0.0 0.0
0.0 0.0 0.0
0.0 0.0 0.0
0.0 0.0 0.0
0.0 0.0 0.0
0.0 0.0 0.0
0.0 0.0 0.0
0.0 0.0 0.0
0.0 0.0 0.0
0.0 0.0 0.0
0.0 0.0 0.0
0.0 0.0 0.0
0.0 0.0 0.0
0.0 0.0 0.0
0.0 0.0 0.0
0.0 0.0 0.0
0.0 0.0 0.0
0.0 0.0 0.0
0.0 0.0 0.0
0.0 0.0 0.0
0.0 0.0 0.0
0.0 0.0 0.0
0.0 0.0 0.0
0.0 0.0 0.0
0.0 0.0 0.0
0.0 0.0 0.0
0.0 0.0 0.0
0.0 0.0 0.0
0.0 0.0 0.0
0.0 0.0 0.0
0.0 0.0 0.0
0.0 0.0 0.0
0.0 0.0 0.0
0.0 0.0 0.0
0.0 0.0 0.0
0.0 0.0 0.0
0.0 0.0 0.0
0.0 0.0 0.0
0.0 0.0 0.0
0.0 0.0 0.0
0.0 0.0 0.0
0.0 0.0 0.0
0.0 0.0 0.0
0.0 0.0 0.0
0.0 0.0 0.0
0.0 0.0 0.0
0.0 0.0 0.0
0.0 0.0 0.0
0.0 0.0 0.0
0.0 0.0 0.0
0.0 0.0 0.0
0.0 0.0 0.0
0.0 0.0 0.0
0.0 0.0 0.0
0.0 0.0 0.0
0.0 0.0 0.0
0.0 0.0 0.0
0.0 0.0 0.0
0.0 0.0 0.0
0.0 0.0 0.0
0.0 0.0 0.0
0.0 0.0 0.0
0.0 0.0 0.0
0.0 0.0 0.0
0.0 0.0 0.0
0.0 0.0 0.0
0.0 0.0 0.0
0.0 0.0 0.0
0.0 0.0 0.0
0.0 0.0 0.0
0.0 0.0 0.0
0.0 0.0 0.0
0.0 0.0 0.0
0.0 0.0 0.0
0.0 0.0 0.0
0.0 0.0 0.0
0.0 0.0 0.0
0.0 0.0 0.0
0.0 0.0 0.0
0.0 0.0 0.0
0.0 0.0 0.0
0.0 0.0 0.0
0.0 0.0 0.0
0.0 0.0 0.0
0.0 0.0 0.0
0.0 0.0 0.0
0.0 0.0 0.0
0.0 0.0 0.0
0.0 0.0 0.0
0.0 0.0 0.0
0.0 0.0 0.0
0.0 0.0 0.0
0.0 0.0 0.0
0.0 0.0 0.0
0.0 0.0 0.0
0.0 0.0 0.0
0.0 0.0 0.0
0.0 0.0 0.0
0.0 0.0 0.0
0.0 0.0 0.0
0.0 0.0 0.0
0.0 0.0 0.0
0.0 0.0 0.0
0.0 0.0 0.0
0.0 0.0 0.0
0.0 0.0 0.0
0.0 0.0 0.0
0.0 0.0 0.0
0.0 0.0 0.0
0.0 0.0 0.0
0.0 0.0 0.0
0.0 0.0 0.0
0.0 0.0 0.0
0.0 0.0 0.0
0.0 0.0 0.0
0.0 0.0 0.0
0.0 0.0 0.0
0.0 0.0 0.0
0.0 0.0 0.0
0.0 0.0 0.0
0.0 0.0 0.0
0.0 0.0 0.0
0.0 0.0 0.0
0.0 0.0 0.0
0.0 0.0 0.0
0.0 0.0 0.0
0.0 0.0 0.0
0.0 0.0 0.0
0.0 0.0 0.0
0.0 0.0 0.0
0.0 0.0 0.0
0.0 0.0 0.0
0.0 0.0 0.0
0.0 0.0 0.0
0.0 0.0 0.0
0.0 0.0 0.0
0.0 0.0 0.0
0.0 0.0 0.0
0.0 0.0 0.0
0.0 0.0 0.0
0.0 0.0 0.0
0.0 0.0 0.0
0.0 0.0 0.0
0.0 0.0 0.0
0.0 0.0 0.0
0.0 0.0 0.0
0.0 0.0 0.0
0.0 0.0 0.0
0.0 0.0 0.0
0.0 0.0 0.0
0.0 0.0 0.0
0.0 0.0 0.0
0.0 0.0 0.0
0.0 0.0 0.0
0.0 0.0 0.0
0.0 0.0 0.0
0.0 0.0 0.0
0.0 0.0 0.0
0.0 0.0 0.0
0.0 0.0 0.0
0.0 0.0 0.0
0.0 0.0 0.0
0.0 0.0 0.0
0.0 0.0 0.0
0.0 0.0 0.0
0.0 0.0 0.0
0.0 0.0 0.0
0.0 0.0 0.0
0.0 0.0 0.0
0.0 0.0 0.0
0.0 0.0 0.0
0.0 0.0 0.0
0.0 0.0 0.0
0.0 0.0 0.0
0.0 0.0 0.0
0.0 0.0 0.0
0.0 0.0 0.0
0.0 0.0 0.0
0.0 0.0 0.0
0.0 0.0 0.0
0.0 0.0 0.0
0.0 0.0 0.0
0.0 0.0 0.0
0.0 0.0 0.0
0.0 0.0 0.0
0.0 0.0 0.0
0.0 0.0 0.0
0.0 0.0 0.0
0.0 0.0 0.0
0.0 0.0 0.0
0.0 0.0 0.0
0.0 0.0 0.0
0.0 0.0 0.0
0.0 0.0 0.0
0.0 0.0 0.0
0.0 0.0 0.0
0.0 0.0 0.0
0.0 0.0 0.0
0.0 0.0 0.0
0.0 0.0 0.0
0.0 0.0 0.0
0.0 0.0 0.0
0.0 0.0 0.0
0.0 0.0 0.0
0.0 0.0 0.0
0.0 0.0 0.0
0.0 0.0 0.0
0.0 0.0 0.0
0.0 0.0 0.0
0.0 0.0 0.0
0.0 0.0 0.0
0.0 0.0 0.0
0.0 0.0 0.0
0.0 0.0 0.0
0.0 0.0 0.0
0.0 0.0 0.0
0.0 0.0 0.0
0.0 0.0 0.0
0.0 0.0 0.0
0.0 0.0 0.0
0.0 0.0 0.0
0.0 0.0 0.0
0.0 0.0 0.0
0.0 0.0 0.0
0.0 0.0 0.0
0.0 0.0 0.0
0.0 0.0 0.0
0.0 0.0 0.0
0.0 0.0 0.0
0.0 0.0 0.0
0.0 0.0 0.0
0.0 0.0 0.0
VECTORS f float
0.0 0.0 -6.57473
0.0 0.0 -6.57473
0.0 0.0 -6.57473
0.0 0.0 -6.57473
0.0 0.0 -6.57473
0.0 0.0 -6.57473
0.0 0.0 -6.57473
0.0 0.0 -6.57473
0.0 0.0 -6.57473
0.0 0.0 -6.57473
0.0 0.0 -6.57473
0.0 0.0 -6.57473
0.0 0.0 -6.57473
0.0 0.0 -6.57473
0.0 0.0 -6.57473
0.0 0.0 -6.57473
0.0 0.0 -6.57473
0.0 0.0 -6.57473
0.0 0.0 -6.57473
0.0 0.0 -6.57473
0.0 0.0 -6.57473
0.0 0.0 -6.57473
0.0 0.0 -6.57473
0.0 0.0 -6.57473
0.0 0.0 -6.57473
0.0 0.0 -6.57473
0.0 0.0 -6.57473
0.0 0.0 -6.57473
0.0 0.0 -6.57473
0.0 0.0 -6.57473
0.0 0.0 -6.57473
0.0 0.0 -6.57473
0.0 0.0 -6.57473
0.0 0.0 -6.57473
0.0 0.0 -6.57473
0.0 0.0 -6.57473
0.0 0.0 -6.57473
0.0 0.0 -6.57473
0.0 0.0 -6.57473
0.0 0.0 -6.57473
0.0 0.0 -6.57473
0.0 0.0 -6.57473
0.0 0.0 -6.57473
0.0 0.0 -6.57473
149.255 -216.431 109.047
0.0 0.0 -6.57473
0.0 0.0 -6.57473
0.0 0.0 -6.57473
0.0 0.0 -6.57473
244.419 52.4398 -102.089
0.0 0.0 -6.57473
0.0 0.0 -6.57473
-328.955 -52.3189 131.902
0.0 0.0 -6.57473
0.0 0.0 -6.57473
0.0 0.0 -6.57473
328.955 52.3189 -145.052
0.0 0.0 -6.57473
0.0 0.0 -6.57473
0.0 0.0 -6.57473
0.0 0.0 -6.57473
0.0 0.0 -6.57473
0.0 0.0 -6.57473
0.0 0.0 -6.57473
0.0 0.0 -6.57473
0.0 0.0 -6.57473
0.0 0.0 -6.57473
0.0 0.0 -6.57473
0.0 0.0 -6.57473
0.0 0.0 -6.57473
0.0 0.0 -6.57473
0.0 0.0 -6.57473
0.0 0.0 -6.57473
0.0 0.0 -6.57473
0.0 0.0 -6.57473
0.0 0.0 -6.57473
0.0 0.0 -6.57473
-39.9959 -181.209 53.8204
0.0 0.0 -6.57473
-93.7248 -79.0444 -95.8084
0.0 0.0 -6.57473
0.0 0.0 -6.57473
0.0 0.0 -6.57473
0.0 0.0 -6.57473
0.0 0.0 -6.57473
-393.674 163.991 -26.6827
0.0 0.0 -6.57473
0.0 0.0 -6.57473
0.0 0.0 -6.57473
0.0 0.0 -6.57473
39.9959 181.209 -66.9699
0.0 0.0 -6.57473
0.0 0.0 -6.57473
0.0 0.0 -6.57473
0.0 0.0 -6.57473
0.0 0.0 -6.57473
0.0 0.0 -6.57473
0.0 0.0 -6.57473
-12.6762 -37.5531 -148.601
0.0 0.0 -6.57473
-11.7691 15.554 -6.88711
25.9561 17.026 -24.1763
16.0187 36.9447 -14.2009
0.0 0.0 -6.57473
0.0 0.0 -6.57473
0.0 0.0 -6.57473
0.0 0.0 -6.57473
0.0 0.0 -6.57473
0.0 0.0 -6.57473
0.0 0.0 -6.57473
0.0 0.0 -6.57473
0.0 0.0 -6.57473
0.0 0.0 -6.57473
0.0 0.0 -6.57473
0.0 0.0 -6.57473
0.0 0.0 -6.57473
0.0 0.0 -6.57473
0.0 0.0 -6.57473
0.0 0.0 -6.57473
0.0 0.0 -6.57473
0.0 0.0 -6.57473
0.0 0.0 -6.57473
-70.9247 -247.053 -22.1007
0.0 0.0 -6.57473
0.0 0.0 -6.57473
0.0 0.0 -6.57473
0.0 0.0 -6.57473
13.5522 -74.6629 20.1066
0.0 0.0 -6.57473
0.0 0.0 -6.57473
0.0 0.0 -6.57473
0.0 0.0 -6.57473
0.0 0.0 -6.57473
0.0 0.0 -6.57473
0.0 0.0 -6.57473
0.0 0.0 -6.57473
0.0 0.0 -6.57473
0.0 0.0 -6.57473
-13.5522 74.6629 -33.256
81.5267 -105.001 -4.25393
0.0 0.0 -6.57473
0.0 0.0 -6.57473
0.0 0.0 -6.57473
70.9247 247.053 8.95127
0.0 0.0 -6.57473
0.0 0.0 -6.57473
0.0 0.0 -6.57473
0.0 0.0 -6.57473
0.0 0.0 -6.57473
0.0 0.0 -6.57473
0.0 0.0 -6.57473
-81.7965 104.759 -8.91213
0.269791 0.241724 -6.55811
0.0 0.0 -6.57473
0.0 0.0 -6.57473
0.0 0.0 -6.57473
0.0 0.0 -6.57473
0.0 0.0 -6.57473
3.29602 -2.83249 -5.51613
0.0 0.0 -6.57473
0.0 0.0 -6.57473
0.0 0.0 -6.57473
0.0 0.0 -6.57473
0.0 0.0 -6.57473
0.0 0.0 -6.57473
0.0 0.0 -6.57473
93.7248 79.0444 82.6589
0.0 0.0 -6.57473
-3.29602 2.83249 -7.63332
0.0 0.0 -6.57473
0.0 0.0 -6.57473
0.0 0.0 -6.57473
0.0 0.0 -6.57473
0.0 0.0 -6.57473
0.0 0.0 -6.57473
0.0 0.0 -6.57473
0.0 0.0 -6.57473
0.0 0.0 -6.57473
0.42365 5.98432 -0.568189
0.0 0.0 -6.57473
-17.3006 -17.1531 -6.10084
0.0 0.0 -6.57473
0.0 0.0 -6.57473
0.0 0.0 -6.57473
14.5015 -77.9494 2.6167
0.0 0.0 -6.57473
0.0 0.0 -6.57473
0.0 0.0 -6.57473
0.0 0.0 -6.57473
3.9031 16.9312 134.882
0.0 0.0 -6.57473
0.0 0.0 -6.57473
0.0 0.0 -6.57473
17.3006 17.1531 -7.04861
-38.6327 -12.1718 -10.4339
49.1857 16.2822 -15.1674
0.0 0.0 -6.57473
0.0 0.0 -6.57473
0.0 0.0 -6.57473
3.84316 54.2929 48.0967
9.37387 0.154333 180.928
0.0 0.0 -6.57473
0.0 0.0 -6.57473
0.0 0.0 -6.57473
-0.415859 -2.50894 -2.91041
59.3126 -20.5152 12.3997
0.0 0.0 -6.57473
9.77766 0.31416 189.079
0.0 0.0 -6.57473
0.0 0.0 -6.57473
0.0 0.0 -6.57473
-14.5015 77.9494 -15.7661
0.0 0.0 -6.57473
0.0 0.0 -6.57473
0.638768 -0.0292232 6.21401
-42.0698 79.3071 117.799
0.0 0.0 -6.57473
-26.0791 -8.84161 -14.0642
26.0791 8.84161 0.91474
-66.5075 -22.445 -2.73582
0.0 0.0 -6.57473
11.7691 -15.554 -6.26234
0.0 0.0 -6.57473
-25.9561 -17.026 11.0268
-16.0187 -36.9447 1.0514
0.0 0.0 -6.57473
0.0 0.0 -6.57473
0.0 0.0 -6.57473
0.0 0.0 -6.57473
0.0 0.0 -6.57473
0.0 0.0 -6.57473
0.0 0.0 -6.57473
0.0 0.0 -6.57473
-4.09676 -1.69156 -9.2965
-32.082 33.2435 1.48513
36.1788 -31.552 -11.9128
0.0 0.0 -6.57473
66.5075 22.445 -10.4136
0.0 0.0 -6.57473
0.0 0.0 -6.57473
21.8991 -4.58466 -24.7318
-21.8991 4.58466 11.5824
0.0 0.0 -6.57473
0.0 0.0 -6.57473
0.0 0.0 -6.57473
0.0 0.0 -6.57473
0.0 0.0 -6.57473
0.0 0.0 -6.57473
0.0 0.0 -6.57473
0.0 0.0 -6.57473
0.0 0.0 -6.57473
0.0 0.0 -6.57473
0.0 0.0 -6.57473
0.0 0.0 -6.57473
0.0 0.0 -6.57473
0.0 0.0 -6.57473
0.0 0.0 -6.57473
-10.553 -4.11043 5.87704
0.0 0.0 -6.57473
0.0 0.0 -6.57473
0.0 0.0 -6.57473
0.0 0.0 -6.57473
0.0 0.0 -6.57473
0.0 0.0 -6.57473
0.0 0.0 -6.57473
0.0 0.0 -6.57473
0.0 0.0 -6.57473
0.0 0.0 -6.57473
0.0 0.0 -6.57473
0.0 0.0 -6.57473
0.0 0.0 -6.57473
0.0 0.0 -6.57473
0.0 0.0 -6.57473
0.0 0.0 -6.57473
0.0 0.0 -6.57473
VECTORS omega float
32.488 11.6873 -11.7346
65.8089 14.7146 -14.4316
-10.8405 13.8046 -14.0217
-12.5398 14.3226 -14.5148
5.33731 -7.42345 -2.65393
2.74676 16.9572 -17.8107
0.327637 6.0451 -6.10577
2.26221 8.18246 -7.20249
-3.10265 5.55561 -15.6213
-3.32632 16.1574 -18.1348
5.60425 0.767157 2.80934
3.75617 -1.69568 -5.19486
3.0516 7.24955 -3.02406
-4.56407 2.19043 -3.68179
-3.33166 8.19587 -6.63235
-5.5011 1.44887 -0.662921
2.87361 -3.01561 3.13542
0.0 0.0 0.0
0.0 0.0 0.0
-0.00123231 5.85967 -16.3032
1.46054 0.842527 -6.96833
0.0 0.0 0.0
1.93048 0.697567 -9.20171
0.0 0.0 0.0
3.57563 -2.76563 -2.83359
0.0 0.0 0.0
0.0 0.0 0.0
0.0 0.0 0.0
0.0 0.0 0.0
0.0 0.0 0.0
-2.6851 1.20287 -2.89095
0.0 0.0 0.0
0.0 0.0 0.0
0.0 0.0 0.0
0.0 0.0 0.0
0.0 0.0 0.0
0.0 0.0 0.0
-1.93702 2.486 0.845869
1.6032 -0.413811 2.48955
0.0 0.0 0.0
0.0 0.0 0.0
10.3825 -0.00930135 -12.1169
3.22052 -0.505852 0.828243
-2.40385 0.77839 2.79675
-1.73227 -1.3693 -0.347371
-23.6128 9.50849 -17.733
-4.10963 -0.541517 -2.36986
-7.08544 -2.88516 -0.566623
0.0 0.0 0.0
0.670334 -0.162951 1.65935
-4.5904 4.86594 -8.10461
-6.3674 17.2388 -15.849
-8.94023 21.3339 -21.0651
-4.73683 9.89516 -10.525
0.0 0.0 0.0
0.783245 -0.947559 -0.853134
-9.0147 9.92558 -6.69005
-6.27265 11.151 -13.0739
3.21804 -8.05157 4.26665
0.0 0.0 0.0
0.0 0.0 0.0
0.0 0.0 0.0
3.92385 0.75246 -1.41463
0.0 0.0 0.0
0.0 0.0 0.0
-0.398923 0.146628 0.369958
0.0 0.0 0.0
0.0 0.0 0.0
0.0 0.0 0.0
0.0 0.0 0.0
0.0 0.0 0.0
0.0 0.0 0.0
-2.2866 0.346721 2.23148
0.0 0.0 0.0
0.0 0.0 0.0
0.0 0.0 0.0
-1.97106 0.449975 -4.08532
-9.37033 0.869746 7.35285
0.0 0.0 0.0
0.410592 0.627745 -0.982378
-2.16137 -1.42728 1.62929
-16.344 -14.3501 2.60919
-1.82456 -1.85159 -0.831987
0.0 0.0 0.0
0.0 0.0 0.0
-5.05935 -14.5284 12.4339
-8.87458 10.6121 -10.5154
-21.4533 15.7461 -15.6656
-1.90145 -3.64407 0.927484
-2.00377 -7.2701 5.75036
-2.92247 7.47537 -4.08533
1.21848 -1.11467 -2.79077
0.0842505 -3.85605 3.40287
0.0 0.0 0.0
-0.719777 -2.09756 -0.247046
-0.139541 0.470524 -1.83114
0.0 -6.9062 0.0
-2.58896 -7.24608 1.52109
-5.84324 -16.0848 -0.510067
-5.28958 -6.81023 0.514532
-1.54576 -5.47223 0.78373
-4.16 -10.6844 4.32419
0.201864 -6.94222 -0.562509
0.0 0.0 0.0
0.0 0.0 0.0
0.0 0.0 0.0
0.0 0.0 0.0
0.0 0.0 0.0
0.0 0.0 0.0
0.0 0.0 0.0
0.0 0.0 0.0
0.0 0.0 0.0
0.0 0.0 0.0
0.0 0.0 0.0
0.0 0.0 0.0
0.0492469 0.0413178 0.50155
0.0 0.0 0.0
0.0 0.0 0.0
0.0 0.0 0.0
0.0 0.0 0.0
0.0 0.0 0.0
0.0 0.0 0.0
4.06146 -0.888047 -4.18941
0.0 0.0 0.0
0.0 0.0 0.0
0.0 0.0 0.0
0.0 0.0 0.0
-2.28495 -0.283164 0.683477
3.46372 -0.45503 -2.7295
0.0 0.0 0.0
0.0 0.0 0.0
0.0 0.0 0.0
0.0 0.0 0.0
0.0 0.0 0.0
0.0 0.0 0.0
-0.850756 0.930643 -0.84999
1.03741 -1.05435 2.06709
0.0 0.0 0.0
0.386116 0.425825 -2.02369
-0.684925 -1.02453 1.72568
0.0 0.0 0.0
0.0 0.0 0.0
0.0 0.0 0.0
0.587191 -0.760243 -3.59408
-1.51842 1.56188 0.555545
0.0 0.0 0.0
0.0 0.0 0.0
0.0 0.0 0.0
-0.3922 -1.89519 -1.49446
-3.25678 -6.30941 -8.22199
-7.9273 0.381409 -8.67289
2.82247 0.184013 -0.557786
-3.19299 -2.58075 -2.85103
0.0 0.0 0.0
0.0 0.0 0.0
0.0 0.0 0.0
-1.85408 -0.358903 0.295098
-1.31772 0.102695 -3.22144
-13.4583 -1.49649 -2.64887
-2.38652 -0.430434 -0.0341737
0.0 0.0 0.0
-0.846666 -1.76089 -0.953591
-1.59089 -1.87989 2.41781
0.914757 0.93164 1.67105
0.0 0.0 0.0
0.0 0.0 0.0
-1.38032 6.7902 -7.20864
0.0 0.0 0.0
-2.37084 0.428722 -10.9525
-0.498997 2.26781 -2.88067
0.0 0.0 0.0
0.0 0.0 0.0
-1.52123 2.63098 -2.09307
-4.73989 -5.24885 -1.90225
-3.47432 3.67963 -0.22975
0.0 0.0 0.0
1.45552 7.42665 -9.22485
-1.14257 -2.71721 2.55435
-0.0291584 -0.940667 0.940667
-1.20786 -3.36269 -0.278417
-0.180943 -1.95816 1.96472
0.0 0.0 0.0
0.0 0.0 0.0
-0.862504 -1.66455 0.801541
0.406506 -1.91769 1.76157
0.0 0.0 0.0
0.0 0.0 0.0
-2.28547 -7.37143 2.15506
-0.152659 -2.38506 2.38506
0.412712 -4.88825 5.64307
-1.00776 -11.4192 -2.30142
2.49234 -1.46362 2.1349
0.0 -6.90546 0.0
0.55826 -4.86903 0.79543
-2.59279 -8.53984 2.09558
0.150528 -8.50971 -0.441179
0.726617 -1.96443 4.28179
-2.94579 2.00819 4.28595
-1.75205 -0.074596 -0.042643
1.43765 -4.91896 2.36675
0.85117 -1.09932 -0.246077
1.3451 -0.735517 0.417993
-0.41224 -4.80182 -1.03239
-2.24062 1.35696 -1.32492
-9.19791 5.57113 -0.515688
-1.60925 -1.36719 -0.96469
2.52137 -4.18489 1.15838
1.03415 -4.38667 0.0276299
0.362586 -7.40979 1.59239
2.2144 -1.75236 0.45671
1.85268 2.93815 0.784653
1.03186 -7.14324 0.397173
-4.04904 -9.03888 0.174878
1.29827 -1.28185 0.0344172
-1.83541 -5.44826 -0.217928
1.07375 1.62308 -1.22827
0.516275 -8.22171 -0.66871
5.48546 -5.22221 1.60001
-1.34164 1.9895 0.122311
-0.148714 -7.67113 -1.65852
-0.352891 -6.29676 0.601948
1.86194 1.93643 -0.608311
0.478648 -8.57421 0.284181
-0.247656 2.75307 4.6899
1.96138 -5.28367 0.200782
0.374011 0.788635 1.5506
-1.21661 0.701012 -0.830541
0.0 -6.90472 0.0
-1.1184 -2.30607 0.249283
-1.91958 -9.53431 0.311008
3.24762 -6.56812 -1.28368
-0.644283 0.264255 -1.36685
0.662196 -6.10535 -0.417191
-2.71004 1.4621 -0.591538
-0.941727 -3.02421 0.0324262
1.35118 -7.50196 1.28802
-0.111494 -5.37416 0.00226679
-1.89148 -5.9111 -0.129279
-1.75754 0.587305 1.11072
1.84108 -8.91046 2.38191
-0.202012 -7.11354 -0.19062
-1.46335 2.15311 -2.22001
-1.72021 -2.11593 1.54866
-0.795221 -7.21203 -0.0595218
-1.4647 -11.3662 -5.1904
1.29827 -8.18803 0.0344172
-2.21157 2.08304 -0.660009
-1.53123 -1.12575 0.880546
-2.2155 1.2027 -0.328518
0.325025 -9.56157 -2.07949
2.84678 -11.0795 -2.9349
-2.6219 -0.634443 -5.54555
-7.18913 0.434674 2.68434
2.57297 2.1608 -8.52681
0.24324 1.25006 0.829568
-10.08 -8.53514 8.95598
-1.96161 -7.235 7.29877
0.600126 0.358062 2.4957
-1.79623 -6.55407 2.00544
-1.81092 -5.78791 2.12826
-0.338549 0.270516 -1.15171
-0.117253 -0.414791 -2.16373
-5.57336 -3.71039 2.6504
-0.509072 -13.794 13.794
-2.48222 -3.66049 4.33796
-1.00602 -3.49841 3.66161
-8.76984 -2.33544 6.15085
-2.89868 -6.26048 2.97898
-3.1646 -8.00151 7.80757
-2.59 -7.1605 6.66555
-0.279055 -11.321 11.321
-2.45103 -15.0019 14.5756
-31.396 -13.4047 10.7087
-28.6019 -13.545 13.5659
22.0624 -17.5477 15.4861
VECTORS v float
0.361242 -4.22742 6.14834
0.493119 5.47857 6.5751
0.557299 -2.10077 -8.74298
0.465621 -1.96353 -9.00077
-0.370463 -2.43247 -7.40366
2.2033 -5.88025 -6.15886
-0.225173 -2.07327 -4.25274
-1.35038 -3.97762 -5.22705
1.26229 -3.27104 -4.34644
0.552276 -2.18097 -5.59249
0.813753 -0.313429 -4.59339
-2.02718 -0.929817 -4.17217
-1.88816 -3.08049 -4.0135
-2.18791 -1.20753 -4.15146
-0.258202 -1.26657 -4.25248
1.64629 -0.0565034 -3.94781
1.35282 0.103274 -3.35405
0.0 0.0 -2.29237
0.0 0.0 -2.17857
-3.53081 -5.75024 -4.33698
0.539955 -0.971362 -2.7462
0.0 0.0 -2.24002
-0.188365 -0.834088 -3.26682
0.0 0.0 -2.25331
-0.289144 -1.64794 -6.84242
0.0 0.0 -2.0624
0.0 0.0 -2.04682
0.0 0.0 -2.11154
0.0 0.0 -1.99379
0.0 0.0 -2.05003
-0.882399 -0.970004 -1.67221
0.0 0.0 -2.13208
0.0 0.0 -2.1132
0.0 0.0 -2.11896
0.0 0.0 -1.83417
0.0 0.0 -1.90914
0.0 0.0 -2.03528
-0.543534 -0.650405 -1.33931
0.367722 -0.833193 -2.47887
0.0 0.0 -1.9993
0.0 0.0 -2.01486
-0.233055 -0.502081 -1.44856
0.00630094 -0.935161 -2.56631
0.319238 -1.08102 -1.55314
0.411779 -0.587618 -1.56652
3.1813 -2.07795 -3.94833
0.0217709 -1.58111 -1.76529
0.963521 -1.2131 -2.10897
0.0 0.0 -2.04394
0.581206 0.0402761 -2.37858
-4.47569 -2.3618 -2.31789
0.245832 -1.30771 -2.61151
2.29674 -1.31112 -5.92774
-0.756593 -5.3529 -7.89301
0.0 0.0 -2.06375
-4.22873 -3.11184 -4.40617
-1.89129 -2.87191 -7.79267
-0.660009 -4.45665 -8.8228
0.709437 -2.30179 -5.59189
0.0 0.0 -1.99087
0.0 0.0 -1.37155
0.0 0.0 -1.52429
0.305502 -1.37611 -1.60372
0.0 0.0 -1.4183
0.0 0.0 -1.68523
0.126015 -0.0369753 -1.36117
0.0 0.0 -1.47843
0.0 0.0 -1.80247
0.0 0.0 -1.45113
0.0 0.0 -1.57296
0.0 0.0 -1.74683
0.0 0.0 -1.38248
0.025527 -1.04388 -1.35967
0.0 0.0 -1.66933
0.0 0.0 -1.55125
0.0 0.0 -1.76349
-0.173794 -0.803041 -1.45151
-1.01833 -1.89033 -1.65473
0.0 0.0 -1.59378
-0.247123 -0.21891 -1.96832
0.649563 -0.743942 -1.60984
1.36041 -0.62356 -2.89811
0.348637 -0.599763 -0.902967
0.0 0.0 -1.65896
0.0 0.0 -1.52198
1.91595 -2.87681 -4.1249
0.370308 -0.721073 -5.1209
0.884063 0.586468 -4.26357
0.316259 -0.00480982 -1.5683
3.03298 -1.19582 -1.84092
-1.28379 -1.29978 -4.17483
-0.915448 -1.07598 -2.97365
2.24536 -1.24346 -3.75078
0.0 0.0 -1.36816
-0.179917 -0.130748 -1.54333
-0.41575 0.433409 -1.45913
0.114894 0.0 0.858129
0.0984964 0.240184 0.0443969
0.436379 1.22462 1.05327
0.148427 -0.271249 0.899426
-0.0617083 0.460071 -0.0461659
0.657054 0.245854 0.357946
0.288006 0.13727 0.919285
0.0 0.0 -1.01778
0.0 0.0 -0.856933
0.0 0.0 -0.533614
0.0 0.0 -1.24893
0.0 0.0 -0.474046
0.0 0.0 -0.579543
0.0 0.0 -1.16531
0.0 0.0 -0.870121
0.0 0.0 -0.578164
0.0 0.0 -1.04111
0.0 0.0 -0.471485
0.0 0.0 -1.29116
0.0706021 -0.146205 -0.721907
0.0 0.0 -1.05929
0.0 0.0 -0.543956
0.0 0.0 -0.609756
0.0 0.0 -1.32437
0.0 0.0 -1.02958
0.0 0.0 -1.08553
-0.520743 -1.99913 -0.895269
0.0 0.0 -1.04545
0.0 0.0 -0.708661
0.0 0.0 -0.711552
0.0 0.0 -1.01562
0.0786709 -0.671139 -0.53641
-0.423214 -1.3881 -0.72039
0.0 0.0 -0.894673
0.0 0.0 -1.20169
0.0 0.0 -1.19568
0.0 0.0 -1.1514
0.0 0.0 -0.443945
0.0 0.0 -1.28357
-0.399656 -0.128626 -0.672382
-0.409259 -0.708384 -1.20984
0.0 0.0 -0.660938
-0.255743 -0.79442 -1.85872
0.353846 -1.07392 -0.645809
0.0 0.0 -0.809588
0.0 0.0 -0.624373
0.0 0.0 -1.32775
0.501153 -1.03372 -0.213142
-0.453773 -0.525922 -1.13201
0.0 0.0 -0.812946
0.0 0.0 -0.692175
0.0 0.0 -0.706744
-0.681318 0.182643 -0.568557
2.17578 -1.99046 1.52748
1.19211 -1.25999 -0.85753
-0.360969 -0.903128 -0.832816
0.946134 -1.13301 -0.171656
0.0 0.0 -0.810686
0.0 0.0 -1.01378
0.0 0.0 -0.757525
0.149991 -0.515641 -0.334547
-0.36768 -1.08756 -1.05156
0.891455 -1.05125 -1.22721
0.103703 -0.661795 -0.324404
0.0 0.0 -1.25621
0.535105 -0.393129 -0.824559
0.805589 -0.804375 -1.01282
0.61555 -0.250609 -1.10127
0.0 0.0 -0.724268
0.0 0.0 -0.654306
0.264588 -1.49124 -2.79206
0.0 0.0 -0.554225
0.499761 0.0477864 -1.99694
-0.147777 -0.892402 -1.58195
0.0 0.0 -0.576838
0.0 0.0 -0.803031
-0.694128 -0.765187 -2.02363
0.734846 0.155477 -0.760521
0.268395 -0.31145 -1.01814
0.0 0.0 -0.477804
0.29945 -1.1353 -2.2281
1.22681 -0.349853 -0.823788
0.0213532 0.301555 -0.220881
0.0830215 0.292407 -0.178155
0.0304865 0.632814 -0.151361
0.0 0.0 -0.416498
0.0 0.0 -0.427043
0.0412407 0.142985 -0.0453397
0.0809461 0.456151 -0.099068
0.0 0.0 -0.428131
0.0 0.0 -1.03921
-0.255648 -0.107197 0.267049
0.0553507 0.779414 -0.867613
0.112904 0.316636 -0.457754
0.244548 0.683116 -0.196133
0.637715 0.341949 0.50796
0.114881 0.0 0.289182
-0.397045 0.339071 0.0573053
-0.168514 0.278647 0.302948
-0.187116 -0.00826632 1.02597
-0.310593 0.185976 -0.176306
0.464939 -0.033222 -0.998439
-0.185978 0.203147 -0.465853
-0.0189617 0.581322 -0.306106
0.583369 -0.186965 -0.0642782
-0.273022 -0.363492 -0.61095
0.00939137 0.427178 0.282299
0.137084 0.776549 -0.464054
0.485208 0.914564 0.816655
0.208586 0.632903 -0.713826
-0.631696 -0.256486 -1.03949
-0.0696908 -0.35768 0.206576
-0.306658 0.0725651 0.495273
-0.156349 -0.0289343 -0.207588
1.12818 0.595814 -0.655774
0.211761 -0.0145745 0.195723
0.696987 -0.156039 -0.538422
-0.346934 -0.34214 -0.778168
0.510493 0.497216 1.0033
-0.0586747 0.716018 0.544979
0.621104 0.381396 -0.0805104
0.288987 -0.00391438 -0.362146
0.587034 0.262413 -0.273558
0.436398 -0.00294895 -0.207104
0.0627174 -0.157472 0.330253
0.56657 0.425603 -0.894048
0.0230563 0.285936 0.531309
0.429998 0.763312 -0.0382518
-0.319823 0.37515 0.00451746
0.0173165 -0.0238978 0.397297
-0.024292 0.386583 -0.306095
0.114868 0.0 0.164688
-0.529825 0.318986 0.125411
0.447793 -0.104041 0.143211
-0.156669 0.925678 -0.0311661
0.125606 0.0912568 -0.304719
-0.139659 0.241724 -0.31175
0.474612 0.904631 -0.906722
-0.109716 0.649419 -0.347749
0.245109 0.54834 0.380885
-0.352081 -0.0337649 0.113965
-0.268194 -0.364844 0.311613
0.0558258 0.654099 -0.038025