# vtk DataFile Version 2.0
Generated by lpp.py
ASCII
DATASET POLYDATA
POINTS 1150 float
-0.951599 -0.935444 -0.943198
-0.363269 -0.930642 -0.962114
-0.0833373 -0.952526 -0.967892
0.901561 -0.943757 -0.961125
-0.290454 -0.882398 -0.946367
-0.217909 -0.88815 -0.958116
0.260972 -0.901936 -0.971446
-0.896786 -0.860396 -0.947183
-0.671208 -0.813907 -0.957832
0.619421 -0.827367 -0.950459
-0.951349 -0.766602 -0.957205
-0.616343 -0.776841 -0.935329
-0.470756 -0.810463 -0.936389
-0.13676 -0.769529 -0.944793
0.12983 -0.750733 -0.952598
0.294861 -0.804507 -0.963244
-0.964798 -0.680188 -0.954599
-0.675761 -0.714698 -0.94791
0.811348 -0.714624 -0.954805
-0.153591 -0.665998 -0.95727
-0.0355834 -0.648452 -0.92843
0.0396393 -0.681738 -0.941127
0.420377 -0.613062 -0.951129
0.525359 -0.669569 -0.963651
0.666059 -0.630931 -0.938147
0.96309 -0.654858 -0.968926
-0.891538 -0.532432 -0.962312
-0.785395 -0.584654 -0.961863
-0.104181 -0.583784 -0.957215
0.520082 -0.561433 -0.967086
-0.417618 -0.509083 -0.920767
0.897268 -0.477658 -0.967302
-0.567054 -0.424824 -0.964417
-0.173298 -0.423896 -0.949339
0.465946 -0.452065 -0.941106
-0.939101 -0.358265 -0.953168
-0.173074 -0.336614 -0.953917
0.715397 -0.386002 -0.936877
0.83946 -0.337881 -0.951284
-0.871282 -0.273241 -0.935323
-0.744081 -0.300254 -0.945293
-0.667451 -0.291773 -0.947572
-0.68024 -0.203413 -0.951505
-0.213708 -0.240427 -0.947241
0.304869 -0.233323 -0.951479
-0.808829 -0.166191 -0.945969
-0.404823 -0.193289 -0.98028
-0.306733 -0.155361 -0.958872
-0.221683 -0.12739 -0.954918
-0.127593 -0.207261 -0.940786
0.119141 -0.145363 -0.965668
0.230294 -0.152343 -0.9519
0.377931 -0.166649 -0.951742
-0.895469 -0.102156 -0.947481
-0.485086 -0.105623 -0.949386
0.740573 -0.10787 -0.960685
0.890764 -0.127725 -0.958798
0.0962567 -0.0312613 -0.953552
0.330784 -0.00490182 -0.977495
0.889232 -0.0362588 -0.962098
-0.342668 0.065358 -0.954887
0.400572 0.0361479 -0.949681
-0.93762 0.115945 -0.936668
-0.752439 0.107265 -0.947285
-0.610567 0.0938552 -0.924345
-0.45985 0.127792 -0.938439
0.236235 0.112308 -0.968591
-0.675471 0.196639 -0.953037
-0.477528 0.204874 -0.955795
-0.140576 0.157537 -0.965432
0.0976305 0.180316 -0.943467
0.59429 0.151193 -0.936122
0.944131 0.15163 -0.945381
-0.934928 0.204293 -0.936799
0.453165 0.22774 -0.954477
0.834515 0.302412 -0.964953
0.938604 0.276913 -0.948011
0.349091 0.36117 -0.962211
0.539639 0.382391 -0.95553
0.152196 0.457448 -0.921002
0.74228 0.544323 -0.945066
-0.933862 0.586235 -0.951958
-0.561796 0.538838 -0.928423
0.0410064 0.721535 -0.927469
-0.905745 0.805536 -0.964293
-0.781156 0.771261 -0.968523
0.700014 0.761074 -0.939519
0.801616 0.744227 -0.91845
-0.871622 0.867799 -0.934728
-0.316701 0.804452 -0.937506
-0.957789 0.906484 -0.943805
-0.144542 0.884449 -0.938987
-0.205644 -0.952251 -0.883017
0.0302078 -0.961959 -0.91776
0.155167 -0.932764 -0.895208
0.859979 -0.933249 -0.880033
-0.690717 -0.92552 -0.881803
-0.108902 -0.896579 -0.908744
-0.0220245 -0.854129 -0.929097
0.392226 -0.898132 -0.922268
-0.961846 -0.847212 -0.909006
-0.868838 -0.820419 -0.894728
0.100821 -0.858882 -0.889085
0.161241 -0.810729 -0.920737
0.935938 -0.854919 -0.884716
-0.592297 -0.755864 -0.868948
-0.408142 -0.753645 -0.893391
0.391938 -0.798547 -0.864111
0.735851 -0.738309 -0.905351
-0.478938 -0.705321 -0.896643
-0.0677182 -0.711086 -0.896748
0.878942 -0.734389 -0.916286
-0.608915 -0.603896 -0.925919
-0.390588 -0.67203 -0.892642
-0.313628 -0.615556 -0.9089
0.218679 -0.671671 -0.916743
0.435328 -0.61166 -0.885172
0.587564 -0.639702 -0.916592
0.658509 -0.623407 -0.871287
0.731607 -0.592588 -0.883113
-0.925242 -0.605547 -0.917966
-0.672975 -0.572295 -0.937003
-0.515237 -0.571534 -0.872841
0.0177952 -0.558426 -0.897301
0.0889292 -0.548396 -0.868221
0.194692 -0.541711 -0.953502
0.131535 -0.589924 -0.929872
0.934733 -0.573893 -0.945876
-0.940596 -0.501963 -0.925362
-0.73837 -0.487441 -0.876365
-0.0361158 -0.509183 -0.889742
0.128351 -0.50125 -0.919666
0.272977 -0.52876 -0.882514
0.344852 -0.52895 -0.873611
0.606753 -0.512955 -0.898701
0.796551 -0.518405 -0.895067
-0.690262 -0.45129 -0.927603
-0.482406 -0.455639 -0.921871
0.623035 -0.424365 -0.908206
0.763238 -0.431064 -0.892561
-0.97165 -0.3756 -0.890412
-0.838247 -0.390879 -0.918213
-0.590305 -0.371193 -0.888171
-0.371706 -0.343283 -0.891288
-0.23688 -0.36877 -0.917557
-0.013725 -0.364299 -0.944996
0.0595482 -0.32839 -0.883946
0.194944 -0.375528 -0.935452
-0.188793 -0.298419 -0.896934
0.327023 -0.298423 -0.921002
0.67673 -0.265397 -0.896238
-0.765977 -0.207522 -0.894036
-0.584569 -0.260695 -0.910609
-0.529324 -0.187327 -0.915527
-0.46851 -0.230763 -0.928024
-0.393461 -0.226962 -0.891013
-0.290695 -0.238984 -0.881247
0.0652391 -0.264681 -0.935329
0.408424 -0.257945 -0.925636
0.586636 -0.247591 -0.903468
0.781317 -0.196037 -0.948137
0.931 -0.219593 -0.931199
-0.918903 -0.211847 -0.901
-0.858084 -0.155486 -0.883928
-0.35211 -0.13773 -0.897974
-0.244481 -0.17613 -0.884954
0.193274 -0.125514 -0.898454
0.583759 -0.16354 -0.889123
0.659701 -0.137919 -0.889374
-0.567624 -0.102348 -0.9208
-0.149668 -0.065321 -0.872266
0.172104 -0.0756021 -0.941464
0.402578 -0.0640492 -0.884178
0.82624 -0.0555445 -0.922523
-0.818497 -0.0478446 -0.907945
-0.723248 -0.0017502 -0.860361
-0.419208 -0.0150985 -0.897115
-0.0234359 -0.0165571 -0.884963
0.536833 -0.0425766 -0.891202
0.662087 -0.0401772 -0.947756
-0.934987 0.0305759 -0.90801
-0.649392 0.0267217 -0.917347
-0.172749 0.0536975 -0.887636
-0.800488 0.095207 -0.895957
-0.663469 0.135441 -0.88499
-0.184519 0.151827 -0.863647
0.28789 0.16178 -0.895458
0.496573 0.148251 -0.954759
-0.737871 0.248895 -0.889294
-0.659022 0.277738 -0.876695
-0.79872 0.348105 -0.891705
-0.513362 0.294385 -0.915233
-0.940752 0.397709 -0.876289
-0.169906 0.403905 -0.889108
0.047438 0.381237 -0.91927
-0.303868 0.377641 -0.92415
0.579659 0.462259 -0.878975
-0.872327 0.480095 -0.913649
-0.151371 0.519276 -0.882419
0.899596 0.482342 -0.912594
-0.344768 0.612804 -0.928642
-0.240689 0.568248 -0.880682
-0.70403 0.699572 -0.872713
0.557559 0.668289 -0.907035
0.916681 0.777007 -0.910027
-0.0143845 0.858613 -0.882405
-0.468597 0.896786 -0.844897
-0.905429 0.964799 -0.877302
0.527223 0.969972 -0.848042
-0.417096 -0.936847 -0.813382
-0.114888 -0.960143 -0.850728
-0.0472482 -0.952265 -0.824371
-0.848452 -0.886617 -0.825942
-0.447087 -0.882082 -0.862593
-0.277844 -0.907893 -0.852107
0.227867 -0.908987 -0.801243
0.873599 -0.922542 -0.803351
-0.8043 -0.822491 -0.84804
-0.623843 -0.814637 -0.834998
0.19809 -0.812817 -0.82986
-0.523037 -0.763715 -0.82138
-0.360113 -0.804137 -0.854177
-0.0283569 -0.784917 -0.837656
0.322412 -0.760444 -0.869332
0.60965 -0.731538 -0.820121
0.523655 -0.788481 -0.848708
0.763871 -0.735284 -0.832338
-0.942567 -0.720905 -0.821008
-0.779029 -0.687614 -0.851067
-0.556976 -0.70269 -0.794764
-0.185789 -0.731229 -0.82676
0.375108 -0.717054 -0.802361
0.85132 -0.6817 -0.811242
-0.935817 -0.65633 -0.868711
-0.849225 -0.635048 -0.830289
-0.00354454 -0.657586 -0.777171
0.227111 -0.649422 -0.826556
0.52026 -0.687089 -0.840996
-0.923853 -0.589935 -0.814913
-0.734297 -0.601841 -0.850739
-0.182419 -0.576307 -0.837465
0.543632 -0.599779 -0.863746
-0.896151 -0.49435 -0.861705
-0.56713 -0.521349 -0.844463
-0.110491 -0.54084 -0.887558
0.855129 -0.487961 -0.821424
-0.64085 -0.41373 -0.844016
-0.263761 -0.468263 -0.852401
-0.175083 -0.416523 -0.871864
0.899332 -0.446993 -0.872621
-0.767145 -0.391191 -0.866618
-0.437818 -0.364872 -0.837011
-0.0149454 -0.335744 -0.853213
0.216193 -0.355864 -0.864914
0.311901 -0.380174 -0.858417
0.656867 -0.331199 -0.860669
0.934547 -0.353805 -0.788048
-0.6904 -0.328944 -0.819368
-0.347996 -0.290355 -0.811338
-0.261599 -0.339247 -0.822211
0.40603 -0.312598 -0.826876
0.577973 -0.306531 -0.830755
0.727526 -0.289295 -0.810222
-0.544053 -0.20322 -0.840267
-0.490933 -0.249105 -0.822553
-0.184101 -0.217605 -0.845365
-0.0427346 -0.255441 -0.872864
0.0927265 -0.198882 -0.830973
0.245869 -0.256514 -0.823072
0.82453 -0.246648 -0.843727
-0.137351 -0.17766 -0.794102
0.825931 -0.140339 -0.853018
-0.809517 -0.10721 -0.81449
-0.323928 -0.0873403 -0.869709
-0.00950155 0.0655494 -0.782179
0.918133 0.0634736 -0.834002
0.384957 0.168669 -0.810782
0.886234 0.196652 -0.857408
-0.537497 0.266973 -0.809745
0.543124 0.307863 -0.828778
-0.547886 0.364224 -0.819154
-0.155787 0.343774 -0.838314
0.475023 0.42717 -0.779888
0.796322 0.41118 -0.852018
0.441812 0.451165 -0.879744
-0.64893 0.526849 -0.897094
-0.0925365 0.586354 -0.788336
0.0919612 0.586967 -0.851242
-0.544696 0.650663 -0.83453
-0.202218 0.637684 -0.863067
-0.938215 0.705723 -0.827724
-0.218697 0.720812 -0.866801
-0.330098 0.789367 -0.860263
0.249333 0.824656 -0.874281
-0.813215 0.930222 -0.850877
0.164914 -0.956359 -0.755258
-0.957463 -0.917846 -0.804929
-0.721683 -0.905509 -0.770991
-0.487398 -0.962954 -0.793409
-0.433173 -0.865305 -0.758278
-0.336402 -0.892409 -0.751689
-0.0700495 -0.875356 -0.735678
-0.365113 -0.812251 -0.739472
-0.209148 -0.844178 -0.78582
0.551714 -0.865451 -0.796469
0.643995 -0.811249 -0.786391
0.801483 -0.843441 -0.758407
0.954428 -0.859066 -0.761478
-0.909064 -0.778731 -0.742945
-0.00224438 -0.766091 -0.735785
0.0637117 -0.75426 -0.793264
0.282215 -0.768023 -0.775111
0.364665 -0.796849 -0.781061
0.445536 -0.788739 -0.732941
-0.427692 -0.678241 -0.809245
-0.353037 -0.690767 -0.754799
0.118115 -0.6772 -0.782164
0.468752 -0.687865 -0.770045
0.761979 -0.733646 -0.76192
0.212314 -0.66173 -0.742058
-0.716976 -0.564841 -0.752573
-0.258677 -0.590438 -0.79278
0.521006 -0.537817 -0.806712
-0.688922 -0.473876 -0.735073
-0.29943 -0.471771 -0.755301
-0.787206 -0.417122 -0.80651
-0.487685 -0.430823 -0.795139
-0.35491 -0.436794 -0.770212
0.308599 -0.441176 -0.792884
-0.846613 -0.352387 -0.800388
-0.559572 -0.34523 -0.78452
0.0130317 -0.372042 -0.796059
0.109019 -0.356503 -0.793411
0.302114 -0.332811 -0.762393
0.510554 -0.348491 -0.817039
0.790183 -0.414652 -0.767448
0.818592 -0.3211 -0.791132
-0.426498 -0.249137 -0.786151
-0.0628554 -0.245891 -0.793263
[...]
POINT_DATA 1150
VECTORS i float
0.0 0.0 0.0
0.0 0.0 0.0
0.0 0.0 0.0
0.0 0.0 0.0
0.0 0.0 0.0
0.0 0.0 0.0
0.0 0.0 0.0
0.0 0.0 0.0
0.0 0.0 0.0
0.0 0.0 0.0
0.0 0.0 0.0
0.0 0.0 0.0
0.0 0.0 0.0
0.0 0.0 0.0
0.0 0.0 0.0
0.0 0.0 0.0
0.0 0.0 0.0
0.0 0.0 0.0
0.0 0.0 0.0
0.0 0.0 0.0
0.0 0.0 0.0
0.0 0.0 0.0
0.0 0.0 0.0
0.0 0.0 0.0
0.0 0.0 0.0
0.0 0.0 0.0
0.0 0.0 0.0
0.0 0.0 0.0
0.0 0.0 0.0
0.0 0.0 0.0
0.0 0.0 0.0
0.0 0.0 0.0
0.0 0.0 0.0
0.0 0.0 0.0
0.0 0.0 0.0
0.0 0.0 0.0
0.0 0.0 0.0
0.0 0.0 0.0
0.0 0.0 0.0
0.0 0.0 0.0
0.0 0.0 0.0
0.0 0.0 0.0
0.0 0.0 0.0
0.0 0.0 0.0
0.0 0.0 0.0
0.0 0.0 0.0
0.0 0.0 0.0
0.0 0.0 0.0
0.0 0.0 0.0
0.0 0.0 0.0
0.0 0.0 0.0
0.0 0.0 0.0
0.0 0.0 0.0
0.0 0.0 0.0
0.0 0.0 0.0
0.0 0.0 0.0
0.0 0.0 0.0
0.0 0.0 0.0
0.0 0.0 0.0
0.0 0.0 0.0
0.0 0.0 0.0
0.0 0.0 0.0
0.0 0.0 0.0
0.0 0.0 0.0
0.0 0.0 0.0
0.0 0.0 0.0
0.0 0.0 0.0
0.0 0.0 0.0
0.0 0.0 0.0
0.0 0.0 0.0
0.0 0.0 0.0
0.0 0.0 0.0
0.0 0.0 0.0
0.0 0.0 0.0
0.0 0.0 0.0
0.0 0.0 0.0
0.0 0.0 0.0
0.0 0.0 0.0
0.0 0.0 0.0
0.0 0.0 0.0
0.0 0.0 0.0
0.0 0.0 0.0
0.0 0.0 0.0
0.0 0.0 0.0
0.0 0.0 0.0
0.0 0.0 0.0
0.0 0.0 0.0
0.0 0.0 0.0
0.0 0.0 0.0
0.0 0.0 0.0
0.0 0.0 0.0
0.0 0.0 0.0
0.0 0.0 0.0
0.0 0.0 0.0
0.0 0.0 0.0
0.0 0.0 0.0
0.0 0.0 0.0
0.0 0.0 0.0
0.0 0.0 0.0
0.0 0.0 0.0
0.0 0.0 0.0
0.0 0.0 0.0
0.0 0.0 0.0
0.0 0.0 0.0
0.0 0.0 0.0
0.0 0.0 0.0
0.0 0.0 0.0
0.0 0.0 0.0
0.0 0.0 0.0
0.0 0.0 0.0
0.0 0.0 0.0
0.0 0.0 0.0
0.0 0.0 0.0
0.0 0.0 0.0
0.0 0.0 0.0
0.0 0.0 0.0
0.0 0.0 0.0
0.0 0.0 0.0
0.0 0.0 0.0
0.0 0.0 0.0
0.0 0.0 0.0
0.0 0.0 0.0
0.0 0.0 0.0
0.0 0.0 0.0
0.0 0.0 0.0
0.0 0.0 0.0
0.0 0.0 0.0
0.0 0.0 0.0
0.0 0.0 0.0
0.0 0.0 0.0
0.0 0.0 0.0
0.0 0.0 0.0
0.0 0.0 0.0
0.0 0.0 0.0
0.0 0.0 0.0
0.0 0.0 0.0
0.0 0.0 0.0
0.0 0.0 0.0
0.0 0.0 0.0
0.0 0.0 0.0
0.0 0.0 0.0
0.0 0.0 0.0
0.0 0.0 0.0
0.0 0.0 0.0
0.0 0.0 0.0
0.0 0.0 0.0
0.0 0.0 0.0
0.0 0.0 0.0
0.0 0.0 0.0
0.0 0.0 0.0
0.0 0.0 0.0
0.0 0.0 0.0
0.0 0.0 0.0
0.0 0.0 0.0
0.0 0.0 0.0
0.0 0.0 0.0
0.0 0.0 0.0
0.0 0.0 0.0
0.0 0.0 0.0
0.0 0.0 0.0
0.0 0.0 0.0
0.0 0.0 0.0
0.0 0.0 0.0
0.0 0.0 0.0
0.0 0.0 0.0
0.0 0.0 0.0
0.0 0.0 0.0
0.0 0.0 0.0
0.0 0.0 0.0
0.0 0.0 0.0
0.0 0.0 0.0
0.0 0.0 0.0
0.0 0.0 0.0
0.0 0.0 0.0
0.0 0.0 0.0
0.0 0.0 0.0
0.0 0.0 0.0
0.0 0.0 0.0
0.0 0.0 0.0
0.0 0.0 0.0
0.0 0.0 0.0
0.0 0.0 0.0
0.0 0.0 0.0
0.0 0.0 0.0
0.0 0.0 0.0
0.0 0.0 0.0
0.0 0.0 0.0
0.0 0.0 0.0
0.0 0.0 0.0
0.0 0.0 0.0
0.0 0.0 0.0
0.0 0.0 0.0
0.0 0.0 0.0
0.0 0.0 0.0
0.0 0.0 0.0
0.0 0.0 0.0
0.0 0.0 0.0
0.0 0.0 0.0
0.0 0.0 0.0
0.0 0.0 0.0
0.0 0.0 0.0
0.0 0.0 0.0
0.0 0.0 0.0
0.0 0.0 0.0
0.0 0.0 0.0
0.0 0.0 0.0
0.0 0.0 0.0
0.0 0.0 0.0
0.0 0.0 0.0
0.0 0.0 0.0
0.0 0.0 0.0
0.0 0.0 0.0
0.0 0.0 0.0
0.0 0.0 0.0
0.0 0.0 0.0
0.0 0.0 0.0
0.0 0.0 0.0
0.0 0.0 0.0
0.0 0.0 0.0
0.0 0.0 0.0
0.0 0.0 0.0
0.0 0.0 0.0
0.0 0.0 0.0
0.0 0.0 0.0
0.0 0.0 0.0
0.0 0.0 0.0
0.0 0.0 0.0
0.0 0.0 0.0
0.0 0.0 0.0
0.0 0.0 0.0
0.0 0.0 0.0
0.0 0.0 0.0
0.0 0.0 0.0
0.0 0.0 0.0
0.0 0.0 0.0
0.0 0.0 0.0
0.0 0.0 0.0
0.0 0.0 0.0
0.0 0.0 0.0
0.0 0.0 0.0
0.0 0.0 0.0
0.0 0.0 0.0
0.0 0.0 0.0
0.0 0.0 0.0
0.0 0.0 0.0
0.0 0.0 0.0
0.0 0.0 0.0
0.0 0.0 0.0
0.0 0.0 0.0
0.0 0.0 0.0
0.0 0.0 0.0
0.0 0.0 0.0
0.0 0.0 0.0
0.0 0.0 0.0
0.0 0.0 0.0
0.0 0.0 0.0
0.0 0.0 0.0
0.0 0.0 0.0
0.0 0.0 0.0
0.0 0.0 0.0
0.0 0.0 0.0
0.0 0.0 0.0
0.0 0.0 0.0
0.0 0.0 0.0
0.0 0.0 0.0
0.0 0.0 0.0
0.0 0.0 0.0
0.0 0.0 0.0
0.0 0.0 0.0
0.0 0.0 0.0
0.0 0.0 0.0
0.0 0.0 0.0
0.0 0.0 0.0
0.0 0.0 0.0
0.0 0.0 0.0
0.0 0.0 0.0
0.0 0.0 0.0
0.0 0.0 0.0
0.0 0.0 0.0
0.0 0.0 0.0
0.0 0.0 0.0
0.0 0.0 0.0
0.0 0.0 0.0
0.0 0.0 0.0
0.0 0.0 0.0
0.0 0.0 0.0
0.0 0.0 0.0
0.0 0.0 0.0
0.0 0.0 0.0
0.0 0.0 0.0
0.0 0.0 0.0
0.0 0.0 0.0
0.0 0.0 0.0
0.0 0.0 0.0
0.0 0.0 0.0
0.0 0.0 0.0
0.0 0.0 0.0
0.0 0.0 0.0
0.0 0.0 0.0
0.0 0.0 0.0
0.0 0.0 0.0
0.0 0.0 0.0
0.0 0.0 0.0
0.0 0.0 0.0
0.0 0.0 0.0
0.0 0.0 0.0
0.0 0.0 0.0
0.0 0.0 0.0
0.0 0.0 0.0
0.0 0.0 0.0
0.0 0.0 0.0
0.0 0.0 0.0
0.0 0.0 0.0
0.0 0.0 0.0
0.0 0.0 0.0
0.0 0.0 0.0
0.0 0.0 0.0
0.0 0.0 0.0
0.0 0.0 0.0
0.0 0.0 0.0
0.0 0.0 0.0
0.0 0.0 0.0
0.0 0.0 0.0
0.0 0.0 0.0
0.0 0.0 0.0
0.0 0.0 0.0
0.0 0.0 0.0
0.0 0.0 0.0
0.0 0.0 0.0
0.0 0.0 0.0
0.0 0.0 0.0
0.0 0.0 0.0
0.0 0.0 0.0
0.0 0.0 0.0
0.0 0.0 0.0
0.0 0.0 0.0
0.0 0.0 0.0
0.0 0.0 0.0
0.0 0.0 0.0
0.0 0.0 0.0
0.0 0.0 0.0
0.0 0.0 0.0
0.0 0.0 0.0
0.0 0.0 0.0
0.0 0.0 0.0
0.0 0.0 0.0
0.0 0.0 0.0
0.0 0.0 0.0
0.0 0.0 0.0
0.0 0.0 0.0
0.0 0.0 0.0
0.0 0.0 0.0
0.0 0.0 0.0
0.0 0.0 0.0
0.0 0.0 0.0
0.0 0.0 0.0
0.0 0.0 0.0
0.0 0.0 0.0
0.0 0.0 0.0
0.0 0.0 0.0
0.0 0.0 0.0
0.0 0.0 0.0
0.0 0.0 0.0
0.0 0.0 0.0
0.0 0.0 0.0
0.0 0.0 0.0
0.0 0.0 0.0
0.0 0.0 0.0
0.0 0.0 0.0
0.0 0.0 0.0
0.0 0.0 0.0
0.0 0.0 0.0
0.0 0.0 0.0
0.0 0.0 0.0
0.0 0.0 0.0
0.0 0.0 0.0
0.0 0.0 0.0
0.0 0.0 0.0
0.0 0.0 0.0
0.0 0.0 0.0
0.0 0.0 0.0
0.0 0.0 0.0
0.0 0.0 0.0
0.0 0.0 0.0
0.0 0.0 0.0
0.0 0.0 0.0
0.0 0.0 0.0
0.0 0.0 0.0
0.0 0.0 0.0
0.0 0.0 0.0
0.0 0.0 0.0
0.0 0.0 0.0
0.0 0.0 0.0
0.0 0.0 0.0
0.0 0.0 0.0
0.0 0.0 0.0
0.0 0.0 0.0
0.0 0.0 0.0
0.0 0.0 0.0
0.0 0.0 0.0
0.0 0.0 0.0
0.0 0.0 0.0
0.0 0.0 0.0
0.0 0.0 0.0
0.0 0.0 0.0
0.0 0.0 0.0
0.0 0.0 0.0
0.0 0.0 0.0
0.0 0.0 0.0
0.0 0.0 0.0
0.0 0.0 0.0
0.0 0.0 0.0
0.0 0.0 0.0
0.0 0.0 0.0
0.0 0.0 0.0
0.0 0.0 0.0
0.0 0.0 0.0
0.0 0.0 0.0
0.0 0.0 0.0
0.0 0.0 0.0
0.0 0.0 0.0
0.0 0.0 0.0
0.0 0.0 0.0
0.0 0.0 0.0
0.0 0.0 0.0
0.0 0.0 0.0
0.0 0.0 0.0
0.0 0.0 0.0
0.0 0.0 0.0
0.0 0.0 0.0
0.0 0.0 0.0
0.0 0.0 0.0
0.0 0.0 0.0
0.0 0.0 0.0
0.0 0.0 0.0
0.0 0.0 0.0
0.0 0.0 0.0
0.0 0.0 0.0
0.0 0.0 0.0
0.0 0.0 0.0
0.0 0.0 0.0
0.0 0.0 0.0
0.0 0.0 0.0
0.0 0.0 0.0
0.0 0.0 0.0
0.0 0.0 0.0
0.0 0.0 0.0
0.0 0.0 0.0
0.0 0.0 0.0
0.0 0.0 0.0
0.0 0.0 0.0
0.0 0.0 0.0
0.0 0.0 0.0
0.0 0.0 0.0
0.0 0.0 0.0
0.0 0.0 0.0
0.0 0.0 0.0
0.0 0.0 0.0
0.0 0.0 0.0
0.0 0.0 0.0
0.0 0.0 0.0
0.0 0.0 0.0
0.0 0.0 0.0
0.0 0.0 0.0
0.0 0.0 0.0
0.0 0.0 0.0
0.0 0.0 0.0
0.0 0.0 0.0
0.0 0.0 0.0
0.0 0.0 0.0
0.0 0.0 0.0
0.0 0.0 0.0
0.0 0.0 0.0
0.0 0.0 0.0
0.0 0.0 0.0
0.0 0.0 0.0
0.0 0.0 0.0
0.0 0.0 0.0
0.0 0.0 0.0
0.0 0.0 0.0
0.0 0.0 0.0
0.0 0.0 0.0
0.0 0.0 0.0
0.0 0.0 0.0
0.0 0.0 0.0
0.0 0.0 0.0
0.0 0.0 0.0
0.0 0.0 0.0
0.0 0.0 0.0
0.0 0.0 0.0
0.0 0.0 0.0
0.0 0.0 0.0
0.0 0.0 0.0
0.0 0.0 0.0
0.0 0.0 0.0
0.0 0.0 0.0
0.0 0.0 0.0
0.0 0.0 0.0
0.0 0.0 0.0
0.0 0.0 0.0
0.0 0.0 0.0
0.0 0.0 0.0
0.0 0.0 0.0
0.0 0.0 0.0
0.0 0.0 0.0
0.0 0.0 0.0
0.0 0.0 0.0
0.0 0.0 0.0
0.0 0.0 0.0
0.0 0.0 0.0
0.0 0.0 0.0
0.0 0.0 0.0
0.0 0.0 0.0
0.0 0.0 0.0
0.0 0.0 0.0
0.0 0.0 0.0
0.0 0.0 0.0
0.0 0.0 0.0
0.0 0.0 0.0
0.0 0.0 0.0
0.0 0.0 0.0
0.0 0.0 0.0
0.0 0.0 0.0
0.0 0.0 0.0
0.0 0.0 0.0
0.0 0.0 0.0
0.0 0.0 0.0
0.0 0.0 0.0
0.0 0.0 0.0
0.0 0.0 0.0
0.0 0.0 0.0
0.0 0.0 0.0
0.0 0.0 0.0
0.0 0.0 0.0
0.0 0.0 0.0
0.0 0.0 0.0
0.0 0.0 0.0
0.0 0.0 0.0
0.0 0.0 0.0
0.0 0.0 0.0
0.0 0.0 0.0
0.0 0.0 0.0
0.0 0.0 0.0
0.0 0.0 0.0
0.0 0.0 0.0
0.0 0.0 0.0
0.0 0.0 0.0
0.0 0.0 0.0
0.0 0.0 0.0
0.0 0.0 0.0
0.0 0.0 0.0
0.0 0.0 0.0
0.0 0.0 0.0
0.0 0.0 0.0
0.0 0.0 0.0
0.0 0.0 0.0
0.0 0.0 0.0
0.0 0.0 0.0
0.0 0.0 0.0
0.0 0.0 0.0
0.0 0.0 0.0
0.0 0.0 0.0
0.0 0.0 0.0
0.0 0.0 0.0
0.0 0.0 0.0
0.0 0.0 0.0
0.0 0.0 0.0
0.0 0.0 0.0
0.0 0.0 0.0
0.0 0.0 0.0
0.0 0.0 0.0
0.0 0.0 0.0
0.0 0.0 0.0
0.0 0.0 0.0
0.0 0.0 0.0
0.0 0.0 0.0
0.0 0.0 0.0
0.0 0.0 0.0
0.0 0.0 0.0
0.0 0.0 0.0
0.0 0.0 0.0
0.0 0.0 0.0
0.0 0.0 0.0
0.0 0.0 0.0
0.0 0.0 0.0
0.0 0.0 0.0
0.0 0.0 0.0
0.0 0.0 0.0
0.0 0.0 0.0
0.0 0.0 0.0
0.0 0.0 0.0
0.0 0.0 0.0
0.0 0.0 0.0
0.0 0.0 0.0
0.0 0.0 0.0
0.0 0.0 0.0
0.0 0.0 0.0
0.0 0.0 0.0
0.0 0.0 0.0
0.0 0.0 0.0
0.0 0.0 0.0
0.0 0.0 0.0
0.0 0.0 0.0
0.0 0.0 0.0
0.0 0.0 0.0
0.0 0.0 0.0
0.0 0.0 0.0
0.0 0.0 0.0
0.0 0.0 0.0
0.0 0.0 0.0
0.0 0.0 0.0
0.0 0.0 0.0
0.0 0.0 0.0
0.0 0.0 0.0
0.0 0.0 0.0
0.0 0.0 0.0
0.0 0.0 0.0
0.0 0.0 0.0
0.0 0.0 0.0
0.0 0.0 0.0
0.0 0.0 0.0
0.0 0.0 0.0
0.0 0.0 0.0
0.0 0.0 0.0
0.0 0.0 0.0
0.0 0.0 0.0
0.0 0.0 0.0
0.0 0.0 0.0
0.0 0.0 0.0
0.0 0.0 0.0
0.0 0.0 0.0
0.0 0.0 0.0
0.0 0.0 0.0
0.0 0.0 0.0
0.0 0.0 0.0
0.0 0.0 0.0
0.0 0.0 0.0
0.0 0.0 0.0
0.0 0.0 0.0
0.0 0.0 0.0
0.0 0.0 0.0
0.0 0.0 0.0
0.0 0.0 0.0
0.0 0.0 0.0
0.0 0.0 0.0
0.0 0.0 0.0
0.0 0.0 0.0
0.0 0.0 0.0
0.0 0.0 0.0
0.0 0.0 0.0
0.0 0.0 0.0
0.0 0.0 0.0
0.0 0.0 0.0
0.0 0.0 0.0
0.0 0.0 0.0
0.0 0.0 0.0
0.0 0.0 0.0
0.0 0.0 0.0
0.0 0.0 0.0
0.0 0.0 0.0
0.0 0.0 0.0
0.0 0.0 0.0
0.0 0.0 0.0
0.0 0.0 0.0
0.0 0.0 0.0
0.0 0.0 0.0
0.0 0.0 0.0
0.0 0.0 0.0
0.0 0.0 0.0
0.0 0.0 0.0
0.0 0.0 0.0
0.0 0.0 0.0
0.0 0.0 0.0
0.0 0.0 0.0
0.0 0.0 0.0
0.0 0.0 0.0
0.0 0.0 0.0
0.0 0.0 0.0
0.0 0.0 0.0
0.0 0.0 0.0
0.0 0.0 0.0
0.0 0.0 0.0
0.0 0.0 0.0
0.0 0.0 0.0
0.0 0.0 0.0
0.0 0.0 0.0
0.0 0.0 0.0
0.0 0.0 0.0
0.0 0.0 0.0
0.0 0.0 0.0
0.0 0.0 0.0
0.0 0.0 0.0
0.0 0.0 0.0
0.0 0.0 0.0
0.0 0.0 0.0
0.0 0.0 0.0
0.0 0.0 0.0
0.0 0.0 0.0
0.0 0.0 0.0
0.0 0.0 0.0
0.0 0.0 0.0
0.0 0.0 0.0
0.0 0.0 0.0
0.0 0.0 0.0
0.0 0.0 0.0
0.0 0.0 0.0
0.0 0.0 0.0
0.0 0.0 0.0
0.0 0.0 0.0
0.0 0.0 0.0
0.0 0.0 0.0
0.0 0.0 0.0
0.0 0.0 0.0
0.0 0.0 0.0
0.0 0.0 0.0
0.0 0.0 0.0
0.0 0.0 0.0
0.0 0.0 0.0
0.0 0.0 0.0
0.0 0.0 0.0
0.0 0.0 0.0
0.0 0.0 0.0
0.0 0.0 0.0
0.0 0.0 0.0
0.0 0.0 0.0
0.0 0.0 0.0
0.0 0.0 0.0
0.0 0.0 0.0
0.0 0.0 0.0
0.0 0.0 0.0
0.0 0.0 0.0
0.0 0.0 0.0
0.0 0.0 0.0
0.0 0.0 0.0
0.0 0.0 0.0
0.0 0.0 0.0
0.0 0.0 0.0
0.0 0.0 0.0
0.0 0.0 0.0
0.0 0.0 0.0
0.0 0.0 0.0
0.0 0.0 0.0
0.0 0.0 0.0
0.0 0.0 0.0
0.0 0.0 0.0
0.0 0.0 0.0
0.0 0.0 0.0
0.0 0.0 0.0
0.0 0.0 0.0
0.0 0.0 0.0
0.0 0.0 0.0
0.0 0.0 0.0
0.0 0.0 0.0
0.0 0.0 0.0
0.0 0.0 0.0
0.0 0.0 0.0
0.0 0.0 0.0
0.0 0.0 0.0
0.0 0.0 0.0
0.0 0.0 0.0
0.0 0.0 0.0
0.0 0.0 0.0
0.0 0.0 0.0
0.0 0.0 0.0
0.0 0.0 0.0
0.0 0.0 0.0
0.0 0.0 0.0
0.0 0.0 0.0
0.0 0.0 0.0
0.0 0.0 0.0
0.0 0.0 0.0
0.0 0.0 0.0
0.0 0.0 0.0
0.0 0.0 0.0
0.0 0.0 0.0
0.0 0.0 0.0
0.0 0.0 0.0
0.0 0.0 0.0
0.0 0.0 0.0
0.0 0.0 0.0
0.0 0.0 0.0
0.0 0.0 0.0
0.0 0.0 0.0
0.0 0.0 0.0
0.0 0.0 0.0
0.0 0.0 0.0
0.0 0.0 0.0
0.0 0.0 0.0
0.0 0.0 0.0
0.0 0.0 0.0
0.0 0.0 0.0
0.0 0.0 0.0
0.0 0.0 0.0
0.0 0.0 0.0
0.0 0.0 0.0
0.0 0.0 0.0
0.0 0.0 0.0
0.0 0.0 0.0
0.0 0.0 0.0
0.0 0.0 0.0
0.0 0.0 0.0
0.0 0.0 0.0
0.0 0.0 0.0
0.0 0.0 0.0
0.0 0.0 0.0
0.0 0.0 0.0
0.0 0.0 0.0
0.0 0.0 0.0
0.0 0.0 0.0
0.0 0.0 0.0
0.0 0.0 0.0
0.0 0.0 0.0
0.0 0.0 0.0
0.0 0.0 0.0
0.0 0.0 0.0
0.0 0.0 0.0
0.0 0.0 0.0
0.0 0.0 0.0
0.0 0.0 0.0
0.0 0.0 0.0
0.0 0.0 0.0
0.0 0.0 0.0
0.0 0.0 0.0
0.0 0.0 0.0
0.0 0.0 0.0
0.0 0.0 0.0
0.0 0.0 0.0
0.0 0.0 0.0
0.0 0.0 0.0
0.0 0.0 0.0
0.0 0.0 0.0
0.0 0.0 0.0
0.0 0.0 0.0
0.0 0.0 0.0
0.0 0.0 0.0
0.0 0.0 0.0
0.0 0.0 0.0
0.0 0.0 0.0
0.0 0.0 0.0
0.0 0.0 0.0
0.0 0.0 0.0
0.0 0.0 0.0
0.0 0.0 0.0
0.0 0.0 0.0
0.0 0.0 0.0
0.0 0.0 0.0
0.0 0.0 0.0
0.0 0.0 0.0
0.0 0.0 0.0
0.0 0.0 0.0
0.0 0.0 0.0
0.0 0.0 0.0
0.0 0.0 0.0
0.0 0.0 0.0
0.0 0.0 0.0
0.0 0.0 0.0
0.0 0.0 0.0
0.0 0.0 0.0
0.0 0.0 0.0
0.0 0.0 0.0
0.0 0.0 0.0
0.0 0.0 0.0
0.0 0.0 0.0
0.0 0.0 0.0
0.0 0.0 0.0
0.0 0.0 0.0
0.0 0.0 0.0
0.0 0.0 0.0
0.0 0.0 0.0
0.0 0.0 0.0
0.0 0.0 0.0
0.0 0.0 0.0
0.0 0.0 0.0
0.0 0.0 0.0
0.0 0.0 0.0
0.0 0.0 0.0
0.0 0.0 0.0
0.0 0.0 0.0
0.0 0.0 0.0
0.0 0.0 0.0
0.0 0.0 0.0
0.0 0.0 0.0
0.0 0.0 0.0
0.0 0.0 0.0
0.0 0.0 0.0
0.0 0.0 0.0
0.0 0.0 0.0
0.0 0.0 0.0
0.0 0.0 0.0
0.0 0.0 0.0
0.0 0.0 0.0
0.0 0.0 0.0
0.0 0.0 0.0
0.0 0.0 0.0
0.0 0.0 0.0
0.0 0.0 0.0
0.0 0.0 0.0
0.0 0.0 0.0
0.0 0.0 0.0
0.0 0.0 0.0
0.0 0.0 0.0
0.0 0.0 0.0
0.0 0.0 0.0
0.0 0.0 0.0
0.0 0.0 0.0
0.0 0.0 0.0
0.0 0.0 0.0
0.0 0.0 0.0
0.0 0.0 0.0
0.0 0.0 0.0
0.0 0.0 0.0
0.0 0.0 0.0
0.0 0.0 0.0
0.0 0.0 0.0
0.0 0.0 0.0
0.0 0.0 0.0
0.0 0.0 0.0
0.0 0.0 0.0
0.0 0.0 0.0
0.0 0.0 0.0
0.0 0.0 0.0
0.0 0.0 0.0
0.0 0.0 0.0
0.0 0.0 0.0
0.0 0.0 0.0
0.0 0.0 0.0
0.0 0.0 0.0
0.0 0.0 0.0
0.0 0.0 0.0
0.0 0.0 0.0
0.0 0.0 0.0
0.0 0.0 0.0
0.0 0.0 0.0
0.0 0.0 0.0
0.0 0.0 0.0
0.0 0.0 0.0
0.0 0.0 0.0
0.0 0.0 0.0
0.0 0.0 0.0
0.0 0.0 0.0
0.0 0.0 0.0
0.0 0.0 0.0
0.0 0.0 0.0
0.0 0.0 0.0
0.0 0.0 0.0
0.0 0.0 0.0
0.0 0.0 0.0
0.0 0.0 0.0
0.0 0.0 0.0
0.0 0.0 0.0
0.0 0.0 0.0
0.0 0.0 0.0
0.0 0.0 0.0
0.0 0.0 0.0
0.0 0.0 0.0
0.0 0.0 0.0
0.0 0.0 0.0
0.0 0.0 0.0
0.0 0.0 0.0
0.0 0.0 0.0
0.0 0.0 0.0
0.0 0.0 0.0
0.0 0.0 0.0
0.0 0.0 0.0
0.0 0.0 0.0
0.0 0.0 0.0
0.0 0.0 0.0
0.0 0.0 0.0
0.0 0.0 0.0
0.0 0.0 0.0
0.0 0.0 0.0
0.0 0.0 0.0
0.0 0.0 0.0
0.0 0.0 0.0
0.0 0.0 0.0
0.0 0.0 0.0
0.0 0.0 0.0
0.0 0.0 0.0
0.0 0.0 0.0
0.0 0.0 0.0
0.0 0.0 0.0
0.0 0.0 0.0
0.0 0.0 0.0
0.0 0.0 0.0
0.0 0.0 0.0
0.0 0.0 0.0
0.0 0.0 0.0
0.0 0.0 0.0
0.0 0.0 0.0
0.0 0.0 0.0
0.0 0.0 0.0
0.0 0.0 0.0
0.0 0.0 0.0
0.0 0.0 0.0
0.0 0.0 0.0
0.0 0.0 0.0
0.0 0.0 0.0
0.0 0.0 0.0
0.0 0.0 0.0
0.0 0.0 0.0
0.0 0.0 0.0
0.0 0.0 0.0
0.0 0.0 0.0
0.0 0.0 0.0
0.0 0.0 0.0
0.0 0.0 0.0
0.0 0.0 0.0
0.0 0.0 0.0
0.0 0.0 0.0
0.0 0.0 0.0
0.0 0.0 0.0
0.0 0.0 0.0
0.0 0.0 0.0
0.0 0.0 0.0
0.0 0.0 0.0
0.0 0.0 0.0
0.0 0.0 0.0
0.0 0.0 0.0
0.0 0.0 0.0
0.0 0.0 0.0
0.0 0.0 0.0
0.0 0.0 0.0
0.0 0.0 0.0
0.0 0.0 0.0
0.0 0.0 0.0
0.0 0.0 0.0
0.0 0.0 0.0
0.0 0.0 0.0
0.0 0.0 0.0
0.0 0.0 0.0
0.0 0.0 0.0
0.0 0.0 0.0
0.0 0.0 0.0
0.0 0.0 0.0
0.0 0.0 0.0
0.0 0.0 0.0
0.0 0.0 0.0
0.0 0.0 0.0
0.0 0.0 0.0
0.0 0.0 0.0
0.0 0.0 0.0
0.0 0.0 0.0
0.0 0.0 0.0
0.0 0.0 0.0
0.0 0.0 0.0
0.0 0.0 0.0
0.0 0.0 0.0
0.0 0.0 0.0
0.0 0.0 0.0
0.0 0.0 0.0
0.0 0.0 0.0
0.0 0.0 0.0
0.0 0.0 0.0
0.0 0.0 0.0
0.0 0.0 0.0
0.0 0.0 0.0
0.0 0.0 0.0
0.0 0.0 0.0
0.0 0.0 0.0
0.0 0.0 0.0
0.0 0.0 0.0
0.0 0.0 0.0
0.0 0.0 0.0
0.0 0.0 0.0
0.0 0.0 0.0
0.0 0.0 0.0
0.0 0.0 0.0
0.0 0.0 0.0
0.0 0.0 0.0
0.0 0.0 0.0
0.0 0.0 0.0
0.0 0.0 0.0
0.0 0.0 0.0
0.0 0.0 0.0
0.0 0.0 0.0
0.0 0.0 0.0
0.0 0.0 0.0
0.0 0.0 0.0
0.0 0.0 0.0
0.0 0.0 0.0
0.0 0.0 0.0
0.0 0.0 0.0
0.0 0.0 0.0
0.0 0.0 0.0
0.0 0.0 0.0
0.0 0.0 0.0
0.0 0.0 0.0
0.0 0.0 0.0
0.0 0.0 0.0
0.0 0.0 0.0
0.0 0.0 0.0
0.0 0.0 0.0
0.0 0.0 0.0
0.0 0.0 0.0
0.0 0.0 0.0
0.0 0.0 0.0
0.0 0.0 0.0
0.0 0.0 0.0
0.0 0.0 0.0
0.0 0.0 0.0
0.0 0.0 0.0
0.0 0.0 0.0
0.0 0.0 0.0
0.0 0.0 0.0
0.0 0.0 0.0
0.0 0.0 0.0
0.0 0.0 0.0
0.0 0.0 0.0
0.0 0.0 0.0
0.0 0.0 0.0
0.0 0.0 0.0
0.0 0.0 0.0
0.0 0.0 0.0
0.0 0.0 0.0
0.0 0.0 0.0
0.0 0.0 0.0
0.0 0.0 0.0
0.0 0.0 0.0
0.0 0.0 0.0
0.0 0.0 0.0
0.0 0.0 0.0
0.0 0.0 0.0
0.0 0.0 0.0
0.0 0.0 0.0
0.0 0.0 0.0
0.0 0.0 0.0
0.0 0.0 0.0
0.0 0.0 0.0
0.0 0.0 0.0
0.0 0.0 0.0
0.0 0.0 0.0
0.0 0.0 0.0
0.0 0.0 0.0
0.0 0.0 0.0
0.0 0.0 0.0
0.0 0.0 0.0
0.0 0.0 0.0
0.0 0.0 0.0
0.0 0.0 0.0
0.0 0.0 0.0
0.0 0.0 0.0
0.0 0.0 0.0
0.0 0.0 0.0
0.0 0.0 0.0
0.0 0.0 0.0
0.0 0.0 0.0
0.0 0.0 0.0
0.0 0.0 0.0
0.0 0.0 0.0
0.0 0.0 0.0
VECTORS f float
0.0 0.0 -6.57473
-0.937377 -4.88551 92.9177
-7.58712 -21.1149 442.159
2.7125 -1.78239 58.3393
-233.751 22.0129 19.901
233.751 -22.0129 -33.0504
13.7203 26.8557 596.575
-5.98755 -180.727 -298.841
-306.441 -196.041 -112.649
0.0 0.0 -6.57473
0.0 0.0 -6.57473
221.897 111.112 -126.942
0.0 0.0 -6.57473
0.0 0.0 -6.57473
-79.3035 160.846 -101.023
1.89823 8.77102 172.907
287.732 12.1255 -14.3172
0.0 0.0 -6.57473
0.0 0.0 -6.57473
0.0 0.0 -6.57473
54.491 94.4199 -52.885
0.0 0.0 -6.57473
-107.086 10.4196 -433.401
-1.21138 11.7623 229.916
39.1035 -25.6029 -406.287
-152.847 28.7914 535.005
270.857 -196.173 -92.6333
2.00203 4.75986 96.7004
0.0 0.0 -6.57473
-2.28418 21.5393 426.627
0.0 0.0 -6.57473
-14.4222 -12.9204 380.691
-9.56056 -7.85578 240.907
5.405 -6.90603 -80.2944
0.0 0.0 -6.57473
108.119 60.0644 -242.957
82.4444 -188.944 -322.137
8.56814 -7.21585 1.31013
0.0 0.0 -6.57473
0.0 0.0 -6.57473
-117.667 -18.7022 -4.93742
117.667 18.7022 -8.21204
0.0 0.0 -6.57473
0.0 0.0 -6.57473
-49.679 162.591 -90.4255
-19.7996 21.1114 -43.2294
-48.3605 27.1996 1103.12
28.5537 -13.3453 -48.4168
0.0 0.0 -6.57473
0.0 0.0 -6.57473
-17.359 4.00645 349.733
184.028 -134.693 -301.774
0.0 0.0 -6.57473
0.0 0.0 -6.57473
0.0 0.0 -6.57473
-1.17698 2.72849 52.8557
0.0 0.0 -6.57473
0.0 0.0 -6.57473
41.5647 -24.748 960.914
75.2415 16.5135 72.1514
0.0 0.0 -6.57473
0.0 0.0 -6.57473
0.0 0.0 -6.57473
215.996 53.3316 -261.385
71.6104 19.8718 -48.2236
0.0 0.0 -6.57473
-19.1719 -14.4608 473.708
0.0 0.0 -6.57473
0.0 0.0 -6.57473
11.58 -8.84944 284.91
0.0 0.0 -6.57473
0.0 0.0 -6.57473
0.0 0.0 -6.57473
0.0 0.0 -6.57473
0.0 0.0 -6.57473
13.1034 0.31153 255.567
0.0 0.0 -6.57473
2.43326 -4.65092 98.4049
0.0 0.0 -6.57473
0.0 0.0 -6.57473
0.0 0.0 -6.57473
0.0 0.0 -6.57473
0.0 0.0 -6.57473
0.0 0.0 -6.57473
-47.0815 -109.287 177.27
-22.6233 8.4608 476.498
0.0 0.0 -6.57473
0.0 0.0 -6.57473
52.0794 99.2396 34.022
1.67504 2.32014 -15.9171
0.0 0.0 -6.57473
0.0 0.0 -6.57473
0.0 0.0 -6.57473
0.343306 87.8098 -10.9518
0.0 0.0 -6.57473
-12.2435 -9.83491 -62.8592
0.0 0.0 -6.57473
0.0 0.0 -6.57473
0.0 0.0 -6.57473
0.0 0.0 -6.57473
-27.178 19.4051 74.2941
126.568 162.43 206.341
0.0 0.0 -6.57473
79.3035 -160.846 87.8737
0.0 0.0 -6.57473
172.218 233.112 124.781
-9.52803 9.84029 -15.1989
29.6028 -17.086 -5.8584
-14.8922 -3.57131 -49.0618
0.0 0.0 -6.57473
-54.491 -94.4199 39.7355
0.0 0.0 -6.57473
225.298 -121.911 24.5171
0.0 0.0 -6.57473
0.0 0.0 -6.57473
0.0 0.0 -6.57473
107.086 -10.4196 420.252
10.437 -9.13527 -20.172
-39.1035 25.6029 393.138
0.0 0.0 -6.57473
54.9645 230.507 -212.045
-225.298 121.911 -37.6666
56.2291 -58.2644 -34.8969
141.471 -176.309 -42.9155
54.4791 8.8287 12.8568
0.0 0.0 -6.57473
0.0 0.0 -6.57473
0.0 0.0 -6.57473
-322.393 189.604 139.414
-26.8816 -20.3439 19.3447
-195.951 167.48 10.3345
0.0 0.0 -6.57473
-264.591 4.27847 -26.4945
264.591 -4.27847 13.345
0.0 0.0 -6.57473
0.0 0.0 -6.57473
26.8816 20.3439 -32.4941
0.0 0.0 -6.57473
0.0 0.0 -6.57473
-8.56814 7.21585 -14.4596
544.018 -92.3003 234.712
0.0 0.0 -6.57473
19.1369 17.3796 -22.4464
0.0 0.0 -6.57473
0.0 0.0 -6.57473
0.0 0.0 -6.57473
0.0 0.0 -6.57473
-38.2075 -28.7992 -113.743
-82.4444 188.944 308.987
49.679 -162.591 77.276
21.4192 71.9172 -50.2785
26.0983 -22.9662 21.6303
0.0 0.0 -6.57473
-116.471 98.1316 -43.9515
128.269 -89.1232 -24.9979
0.0 0.0 -6.57473
-46.9741 -57.6568 -2.58584
0.0 0.0 -6.57473
0.0 0.0 -6.57473
0.0 0.0 -6.57473
0.0 0.0 -6.57473
0.0 0.0 -6.57473
0.0 0.0 -6.57473
-6.29868 1.85477 1.87484
-257.983 -453.801 -210.938
46.9741 57.6568 -10.5636
-51.2516 -136.693 515.736
0.0 0.0 -6.57473
0.0 0.0 -6.57473
0.0 0.0 -6.57473
0.0 0.0 -6.57473
-132.777 271.387 -233.686
0.0 0.0 -6.57473
-79.2315 -21.8429 47.8496
0.0 0.0 -6.57473
0.0 0.0 -6.57473
0.0 0.0 -6.57473
0.0 0.0 -6.57473
0.0 0.0 -6.57473
0.0 0.0 -6.57473
0.0 0.0 -6.57473
-30.4504 -56.097 1.90758
0.0 0.0 -6.57473
-215.996 -53.3316 248.236
-41.16 36.2252 26.5918
0.0 0.0 -6.57473
0.0 0.0 -6.57473
0.0 0.0 -6.57473
0.0 0.0 -6.57473
0.0 0.0 -6.57473
0.0 0.0 -6.57473
0.0 0.0 -6.57473
0.0 0.0 -6.57473
1.61977 -8.23248 -0.233127
0.0 0.0 -6.57473
0.0 0.0 -6.57473
0.0 0.0 -6.57473
0.0 0.0 -6.57473
0.0 0.0 -6.57473
0.0 0.0 -6.57473
0.0 0.0 -6.57473
0.0 0.0 -6.57473
0.0 0.0 -6.57473
0.0 0.0 -6.57473
0.0 0.0 -6.57473
0.0 0.0 -6.57473
0.0 0.0 -6.57473
-13.9274 -279.908 -7.95303
15.5075 -556.654 -29.687
97.2702 7.14706 -13.0122
-263.436 20.022 -106.033
261.623 16.4578 93.084
0.0 0.0 -6.57473
-12.1637 19.5418 -23.8609
0.0 0.0 -6.57473
0.0 0.0 -6.57473
12.2435 9.83491 49.7098
4.09692 -0.21237 -3.30137
-87.6751 -148.183 88.5109
0.0 0.0 -6.57473
70.057 -131.143 -71.4792
9.52803 -9.84029 2.04943
0.0 0.0 -6.57473
-29.6028 17.086 -7.29105
0.0 0.0 -6.57473
0.0 0.0 -6.57473
12.1118 -17.4606 -318.833
0.0 0.0 -6.57473
0.0 0.0 -6.57473
-70.057 131.143 58.3298
0.0 0.0 -6.57473
0.0 0.0 -6.57473
0.0 0.0 -6.57473
-54.9645 -230.507 198.895
0.0 0.0 -6.57473
0.0 0.0 -6.57473
0.0 0.0 -6.57473
0.0 0.0 -6.57473
0.0 0.0 -6.57473
0.0 0.0 -6.57473
0.0 0.0 -6.57473
-10.437 9.13527 7.02259
44.99 6.38269 64.4747
-56.2291 58.2644 21.7475
0.0 0.0 -6.57473
-21.9532 -18.8861 16.0531
-19.1369 -17.3796 9.29699
0.0 0.0 -6.57473
-5.405 6.90603 67.145
21.9532 18.8861 -29.2026
117.891 138.741 -379.645
0.0 0.0 -6.57473
-93.4487 105.422 -192.239
38.2075 28.7992 100.593
0.0 0.0 -6.57473
-21.4192 -71.9172 37.1291
157.056 -100.728 -288.576
0.0 0.0 -6.57473
0.0 0.0 -6.57473
0.0 0.0 -6.57473
0.0 0.0 -6.57473
0.0 0.0 -6.57473
0.0 0.0 -6.57473
-232.92 168.568 -11.6545
45.6139 -178.223 -56.7279
0.0 0.0 -6.57473
0.0 0.0 -6.57473
0.0 0.0 -6.57473
0.0 0.0 -6.57473
0.0 0.0 -6.57473
-62.9836 -34.9791 -55.2441
9.3551 7.56104 -64.389
0.0 0.0 -6.57473
229.429 467.146 239.63
0.0 0.0 -6.57473
0.0 0.0 -6.57473
0.0 0.0 -6.57473
0.0 0.0 -6.57473
0.0 0.0 -6.57473
0.0 0.0 -6.57473
0.0 0.0 -6.57473
-1.61977 8.23248 -12.9163
0.0 0.0 -6.57473
0.0 0.0 -6.57473
0.0 0.0 -6.57473
0.0 0.0 -6.57473
0.0 0.0 -6.57473
0.0 0.0 -6.57473
0.0 0.0 -6.57473
0.0 0.0 -6.57473
-1.1617 -60.9671 -100.1
0.0 0.0 -6.57473
-1.67504 -2.32014 2.7676
0.0 0.0 -6.57473
0.0 0.0 -6.57473
0.0 0.0 -6.57473
0.0 0.0 -6.57473
0.0 0.0 -6.57473
-92.8015 195.689 25.1749
0.0 0.0 -6.57473