# vtk DataFile Version 2.0
Generated by lpp.py
ASCII
DATASET POLYDATA
POINTS 188 float
0.623804 -0.767481 -0.909156
-0.681994 -0.538032 -0.70719
-0.830396 -0.221358 -0.390961
-0.170784 -0.181404 -0.393015
0.377674 -0.0815594 -0.443752
0.482902 -0.0778117 -0.44837
-0.247037 -0.194359 -0.323939
-0.0970889 -0.188157 -0.31632
-0.28736 -0.280902 -0.304562
-0.592237 -0.132496 -0.212595
-0.421756 -0.0230106 -0.264016
0.0864012 -0.063642 -0.263268
0.161611 -0.0144698 -0.2203
0.78926 0.00798204 -0.20594
-0.898929 -0.399297 -0.125927
-0.818387 -0.366864 -0.123442
-0.729812 -0.33461 -0.133921
-0.598837 -0.378928 -0.165465
-0.502767 -0.355777 -0.115175
-0.322844 -0.371952 -0.123953
-0.209852 -0.346526 -0.130041
-0.0660191 -0.347845 -0.137337
0.0427891 -0.374689 -0.134196
0.59263 -0.38804 -0.13515
0.805976 -0.341001 -0.092017
-0.883174 -0.316962 -0.145226
-0.339111 -0.281288 -0.164285
-0.000466142 -0.281974 -0.102569
0.101063 -0.281479 -0.121619
0.190657 -0.302831 -0.1137
0.359702 -0.30605 -0.132588
0.590071 -0.299708 -0.11602
-0.612418 -0.229799 -0.118425
-0.530386 -0.262897 -0.15599
0.217793 -0.260296 -0.17803
0.327379 -0.231666 -0.105001
-0.736217 -0.180329 -0.134521
-0.472006 -0.180075 -0.0925811
-0.147941 -0.222171 -0.145335
0.0695903 -0.175769 -0.12881
0.189969 -0.175917 -0.15837
0.416866 -0.216651 -0.131084
0.632405 -0.193118 -0.123738
0.878287 -0.194265 -0.122986
-0.437723 -0.106256 -0.1361
-0.113869 -0.115584 -0.119619
-0.0366109 -0.088467 -0.101159
0.223221 -0.11486 -0.0991257
0.883867 -0.107729 -0.126143
-0.718884 -0.0643061 -0.164165
-0.256443 -0.0754856 -0.19718
0.658908 -0.0649746 -0.201334
0.875956 -0.00481865 -0.114727
0.026823 0.182887 -0.0584466
0.741318 0.209758 -0.0505953
-0.0219248 0.318249 -0.0538253
-0.19727 0.348193 -0.0530237
0.164314 0.344218 -0.0508366
-0.730677 -0.395484 -0.0395559
-0.433584 -0.3792 -0.029313
-0.149027 -0.399995 -0.0232066
-0.0209375 -0.398372 -0.0544585
0.133823 -0.374184 -0.0154522
0.279371 -0.357019 -0.0326675
0.462186 -0.370906 -0.0769382
0.536087 -0.349546 -0.0164887
0.661814 -0.398752 -0.0438646
0.893682 -0.395474 -0.0354333
-0.625387 -0.303859 -0.0180448
-0.268105 -0.28813 -0.0156964
-0.132305 -0.286383 -0.0727508
0.443213 -0.284837 -0.0840649
0.680034 -0.296313 -0.0497343
0.89841 -0.277116 -0.0877265
-0.8565 -0.262885 -0.0257753
-0.800158 -0.200673 -0.0470235
-0.725622 -0.236859 -0.0253417
-0.550834 -0.209144 -0.0222595
-0.423609 -0.264031 -0.0597071
-0.309007 -0.210534 -0.0320507
-0.199234 -0.2374 -0.0804447
-0.0903123 -0.212791 -0.040543
0.170576 -0.236678 -0.0161762
0.343938 -0.246825 -0.0218181
0.542102 -0.218009 -0.0569787
0.788215 -0.208071 -0.0708281
-0.8914 -0.158888 -0.0573367
-0.649467 -0.173334 -0.0357207
-0.00966435 -0.190577 -0.0825926
0.120461 -0.163074 -0.0418255
0.251322 -0.148414 -0.0138117
0.716465 -0.167067 -0.0620259
-0.772086 -0.107729 -0.0776983
-0.63485 -0.103934 -0.0838768
-0.561638 -0.111226 -0.0233318
-0.356327 -0.131304 -0.0327699
-0.248055 -0.118352 -0.0298783
0.0331871 -0.0996504 -0.017437
0.385451 -0.149686 -0.0494091
0.478909 -0.165955 0.00189766
0.543334 -0.132747 -0.0697658
0.644058 -0.144682 -0.0177586
0.816716 -0.113096 -0.0493007
-0.897167 -0.0417488 -0.0695719
-0.803562 -0.0262618 -0.0542161
-0.605524 -0.0186553 -0.0645874
-0.466206 -0.0566816 -0.0193735
-0.301812 -0.0655811 -0.0778898
-0.0568797 -0.0403994 -0.0379501
0.0858269 -0.0350705 -0.0744479
0.265813 -0.0486739 -0.03283
0.604555 -0.0353055 -0.0783487
0.775173 -0.026233 -0.0572597
-0.879158 0.0816051 -0.039252
-0.421865 0.130862 -0.0209593
0.400765 0.131826 -0.0269917
0.683073 0.141872 -0.0273415
-0.839626 0.16845 -0.0808769
-0.728565 0.183347 -0.0676706
-0.631072 0.162958 -0.0270672
-0.499645 0.145266 -0.0409889
-0.370608 0.191992 -0.0611168
-0.1043 0.183798 -0.044256
0.146615 0.180221 -0.0590389
0.227074 0.195664 -0.0303144
0.305799 0.204032 -0.0710002
0.469203 0.194264 -0.0251139
0.601375 0.158968 -0.0308661
-0.890138 0.228839 -0.0620277
-0.786015 0.24235 -0.065572
-0.693429 0.236274 -0.0213058
-0.606948 0.252471 -0.00407959
-0.552181 0.197332 -0.0042378
-0.534943 0.270015 -0.059254
-0.465228 0.232739 -0.0191173
-0.0341321 0.244683 -0.0298162
0.0792881 0.264535 -0.0454765
0.174425 0.270623 0.0019548
0.40164 0.202842 -0.0608427
0.544669 0.228275 -0.0684718
0.615459 0.244147 -0.0287507
0.83243 0.225029 -0.0695686
0.908097 0.196497 -0.0333116
-0.734758 0.317796 -0.030269
-0.47892 0.334012 -0.0178316
-0.401131 0.335016 -0.0479401
-0.346478 0.275369 -0.0364623
-0.253792 0.270481 -0.043493
-0.156855 0.273209 -0.0612565
0.241409 0.307766 -0.0388376
0.318903 0.272486 -0.0334231
0.417936 0.281549 -0.0684357
0.493248 0.273491 -0.0160895
0.556862 0.311079 -0.0531109
0.659742 0.312015 -0.0633606
0.904113 0.310858 -0.0351503
-0.846589 0.337411 -0.0140073
-0.785731 0.395553 -0.0435864
-0.619145 0.343132 -0.0552298
-0.553548 0.386628 -0.0637279
-0.326922 0.364412 -0.0217049
-0.0861368 0.391458 -0.0441365
-0.0112872 0.396879 -0.021448
0.0829279 0.351683 -0.0522308
0.281292 0.378555 -0.0686699
0.395887 0.388631 -0.0486242
0.504378 0.389383 -0.0232966
0.599503 0.398521 -0.0184731
0.676642 0.399982 -0.0381484
0.737952 0.338449 -0.0672046
0.823387 0.364046 -0.039971
0.900005 0.399274 -0.0694307
-0.708612 0.478416 -0.0233592
0.0870252 0.130774 0.0130353
-0.200049 0.179921 -0.00554832
0.728813 0.159669 0.078158
-0.316296 0.221439 0.0103496
0.824044 0.238185 0.0641869
0.772697 0.322992 0.0120484
0.531014 0.211962 0.149459
0.931505 0.195579 0.103764
-0.0167442 0.226146 0.0761793
-0.778595 0.316868 0.210143
0.243576 0.402592 0.198653
0.287662 0.391455 0.336034
0.404548 0.761886 0.623977
0.100765 0.842951 0.64063
-0.524483 0.582958 0.840129
VERTICES 188 376
1 0
1 1
1 2
1 3
1 4
1 5
1 6
1 7
1 8
1 9
1 10
1 11
1 12
1 13
1 14
1 15
1 16
1 17
1 18
1 19
1 20
1 21
1 22
1 23
1 24
1 25
1 26
1 27
1 28
1 29
1 30
1 31
1 32
1 33
1 34
1 35
1 36
1 37
1 38
1 39
1 40
1 41
1 42
1 43
1 44
1 45
1 46
1 47
1 48
1 49
1 50
1 51
1 52
1 53
1 54
1 55
1 56
1 57
1 58
1 59
1 60
1 61
1 62
1 63
1 64
1 65
1 66
1 67
1 68
1 69
1 70
1 71
1 72
1 73
1 74
1 75
1 76
1 77
1 78
1 79
1 80
1 81
1 82
1 83
1 84
1 85
1 86
1 87
1 88
1 89
1 90
1 91
1 92
1 93
1 94
1 95
1 96
1 97
1 98
1 99
1 100
1 101
1 102
1 103
1 104
1 105
1 106
1 107
1 108
1 109
1 110
1 111
1 112
1 113
1 114
1 115
1 116
1 117
1 118
1 119
1 120
1 121
1 122
1 123
1 124
1 125
1 126
1 127
1 128
1 129
1 130
1 131
1 132
1 133
1 134
1 135
1 136
1 137
1 138
1 139
1 140
1 141
1 142
1 143
1 144
1 145
1 146
1 147
1 148
1 149
1 150
1 151
1 152
1 153
1 154
1 155
1 156
1 157
1 158
1 159
1 160
1 161
1 162
1 163
1 164
1 165
1 166
1 167
1 168
1 169
1 170
1 171
1 172
1 173
1 174
1 175
1 176
1 177
1 178
1 179
1 180
1 181
1 182
1 183
1 184
1 185
1 186
1 187
POINT_DATA 188
VECTORS i float
0.0 0.0 0.0
0.0 0.0 0.0
0.0 0.0 0.0
0.0 0.0 0.0
0.0 0.0 0.0
0.0 0.0 0.0
0.0 0.0 0.0
0.0 0.0 0.0
0.0 0.0 0.0
0.0 0.0 0.0
0.0 0.0 0.0
0.0 0.0 0.0
0.0 0.0 0.0
0.0 0.0 0.0
0.0 0.0 0.0
0.0 0.0 0.0
0.0 0.0 0.0
0.0 0.0 0.0
0.0 0.0 0.0
0.0 0.0 0.0
0.0 0.0 0.0
0.0 0.0 0.0
0.0 0.0 0.0
0.0 0.0 0.0
0.0 0.0 0.0
0.0 0.0 0.0
0.0 0.0 0.0
0.0 0.0 0.0
0.0 0.0 0.0
0.0 0.0 0.0
0.0 0.0 0.0
0.0 0.0 0.0
0.0 0.0 0.0
0.0 0.0 0.0
0.0 0.0 0.0
0.0 0.0 0.0
0.0 0.0 0.0
0.0 0.0 0.0
0.0 0.0 0.0
0.0 0.0 0.0
0.0 0.0 0.0
0.0 0.0 0.0
0.0 0.0 0.0
0.0 0.0 0.0
0.0 0.0 0.0
0.0 0.0 0.0
0.0 0.0 0.0
0.0 0.0 0.0
0.0 0.0 0.0
0.0 0.0 0.0
0.0 0.0 0.0
0.0 0.0 0.0
0.0 0.0 0.0
0.0 0.0 0.0
0.0 0.0 0.0
0.0 0.0 0.0
0.0 0.0 0.0
0.0 0.0 0.0
0.0 0.0 0.0
0.0 0.0 0.0
0.0 0.0 0.0
0.0 0.0 0.0
0.0 0.0 0.0
0.0 0.0 0.0
0.0 0.0 0.0
0.0 0.0 0.0
0.0 0.0 0.0
0.0 0.0 0.0
0.0 0.0 0.0
0.0 0.0 0.0
0.0 0.0 0.0
0.0 0.0 0.0
0.0 0.0 0.0
0.0 0.0 0.0
0.0 0.0 0.0
0.0 0.0 0.0
0.0 0.0 0.0
0.0 0.0 0.0
0.0 0.0 0.0
0.0 0.0 0.0
0.0 0.0 0.0
0.0 0.0 0.0
0.0 0.0 0.0
0.0 0.0 0.0
0.0 0.0 0.0
0.0 0.0 0.0
0.0 0.0 0.0
0.0 0.0 0.0
0.0 0.0 0.0
0.0 0.0 0.0
0.0 0.0 0.0
0.0 0.0 0.0
0.0 0.0 0.0
0.0 0.0 0.0
0.0 0.0 0.0
0.0 0.0 0.0
0.0 0.0 0.0
0.0 0.0 0.0
0.0 0.0 0.0
0.0 0.0 0.0
0.0 0.0 0.0
0.0 0.0 0.0
0.0 0.0 0.0
0.0 0.0 0.0
0.0 0.0 0.0
0.0 0.0 0.0
0.0 0.0 0.0
0.0 0.0 0.0
0.0 0.0 0.0
0.0 0.0 0.0
0.0 0.0 0.0
0.0 0.0 0.0
0.0 0.0 0.0
0.0 0.0 0.0
0.0 0.0 0.0
0.0 0.0 0.0
0.0 0.0 0.0
0.0 0.0 0.0
0.0 0.0 0.0
0.0 0.0 0.0
0.0 0.0 0.0
0.0 0.0 0.0
0.0 0.0 0.0
0.0 0.0 0.0
0.0 0.0 0.0
0.0 0.0 0.0
0.0 0.0 0.0
0.0 0.0 0.0
0.0 0.0 0.0
0.0 0.0 0.0
0.0 0.0 0.0
0.0 0.0 0.0
0.0 0.0 0.0
0.0 0.0 0.0
0.0 0.0 0.0
0.0 0.0 0.0
0.0 0.0 0.0
0.0 0.0 0.0
0.0 0.0 0.0
0.0 0.0 0.0
0.0 0.0 0.0
0.0 0.0 0.0
0.0 0.0 0.0
0.0 0.0 0.0
0.0 0.0 0.0
0.0 0.0 0.0
0.0 0.0 0.0
0.0 0.0 0.0
0.0 0.0 0.0
0.0 0.0 0.0
0.0 0.0 0.0
0.0 0.0 0.0
0.0 0.0 0.0
0.0 0.0 0.0
0.0 0.0 0.0
0.0 0.0 0.0
0.0 0.0 0.0
0.0 0.0 0.0
0.0 0.0 0.0
0.0 0.0 0.0
0.0 0.0 0.0
0.0 0.0 0.0
0.0 0.0 0.0
0.0 0.0 0.0
0.0 0.0 0.0
0.0 0.0 0.0
0.0 0.0 0.0
0.0 0.0 0.0
0.0 0.0 0.0
0.0 0.0 0.0
0.0 0.0 0.0
0.0 0.0 0.0
0.0 0.0 0.0
0.0 0.0 0.0
0.0 0.0 0.0
0.0 0.0 0.0
0.0 0.0 0.0
0.0 0.0 0.0
0.0 0.0 0.0
0.0 0.0 0.0
0.0 0.0 0.0
0.0 0.0 0.0
0.0 0.0 0.0
0.0 0.0 0.0
0.0 0.0 0.0
0.0 0.0 0.0
0.0 0.0 0.0
0.0 0.0 0.0
VECTORS f float
0.0 0.0 -6.57473
0.0 0.0 -6.57473
0.0 0.0 -6.57473
0.0 0.0 -6.57473
0.0 0.0 -6.57473
0.0 0.0 -6.57473
0.0 0.0 -6.57473
0.0 0.0 -6.57473
0.0 0.0 -6.57473
0.0 0.0 -6.57473
0.0 0.0 -6.57473
0.0 0.0 -6.57473
0.0 0.0 -6.57473
0.0 0.0 -6.57473
0.0 0.0 -6.57473
0.0 0.0 -6.57473
0.0 0.0 -6.57473
0.0 0.0 -6.57473
0.0 0.0 -6.57473
0.0 0.0 -6.57473
0.0 0.0 -6.57473
0.0 0.0 -6.57473
0.0 0.0 -6.57473
0.0 0.0 -6.57473
0.0 0.0 -6.57473
0.0 0.0 -6.57473
0.0 0.0 -6.57473
0.0 0.0 -6.57473
0.0 0.0 -6.57473
0.0 0.0 -6.57473
0.0 0.0 -6.57473
0.0 0.0 -6.57473
0.0 0.0 -6.57473
0.0 0.0 -6.57473
0.0 0.0 -6.57473
0.0 0.0 -6.57473
0.0 0.0 -6.57473
0.0 0.0 -6.57473
0.0 0.0 -6.57473
0.0 0.0 -6.57473
0.0 0.0 -6.57473
0.0 0.0 -6.57473
0.0 0.0 -6.57473
0.0 0.0 -6.57473
0.0 0.0 -6.57473
0.0 0.0 -6.57473
0.0 0.0 -6.57473
0.0 0.0 -6.57473
0.0 0.0 -6.57473
0.0 0.0 -6.57473
0.0 0.0 -6.57473
0.0 0.0 -6.57473
0.0 0.0 -6.57473
0.0 0.0 -6.57473
0.0 0.0 -6.57473
9.62106 59.3531 -29.2971
0.0 0.0 -6.57473
0.0 0.0 -6.57473
0.0 0.0 -6.57473
0.0 0.0 -6.57473
0.0 0.0 -6.57473
0.0 0.0 -6.57473
0.0 0.0 -6.57473
0.0 0.0 -6.57473
0.0 0.0 -6.57473
0.0 0.0 -6.57473
0.0 0.0 -6.57473
0.0 0.0 -6.57473
0.0 0.0 -6.57473
0.0 0.0 -6.57473
0.0 0.0 -6.57473
0.0 0.0 -6.57473
0.0 0.0 -6.57473
0.0 0.0 -6.57473
0.0 0.0 -6.57473
0.0 0.0 -6.57473
0.0 0.0 -6.57473
0.0 0.0 -6.57473
0.0 0.0 -6.57473
0.0 0.0 -6.57473
0.0 0.0 -6.57473
0.0 0.0 -6.57473
0.0 0.0 -6.57473
0.0 0.0 -6.57473
0.0 0.0 -6.57473
0.0 0.0 -6.57473
0.0 0.0 -6.57473
0.0 0.0 -6.57473
0.0 0.0 -6.57473
0.0 0.0 -6.57473
0.0 0.0 -6.57473
0.0 0.0 -6.57473
0.0 0.0 -6.57473
0.0 0.0 -6.57473
0.0 0.0 -6.57473
0.0 0.0 -6.57473
0.0 0.0 -6.57473
0.0 0.0 -6.57473
0.0 0.0 -6.57473
0.0 0.0 -6.57473
0.0 0.0 -6.57473
0.0 0.0 -6.57473
0.0 0.0 -6.57473
0.0 0.0 -6.57473
0.0 0.0 -6.57473
0.0 0.0 -6.57473
0.0 0.0 -6.57473
0.0 0.0 -6.57473
0.0 0.0 -6.57473
0.0 0.0 -6.57473
0.0 0.0 -6.57473
0.0 0.0 -6.57473
0.0 0.0 -6.57473
0.0 0.0 -6.57473
0.0 0.0 -6.57473
0.392482 -35.1498 30.5388
0.0 0.0 -6.57473
0.0 0.0 -6.57473
-18.1867 -27.8906 -35.4718
0.0 0.0 -6.57473
1.93476 27.3354 20.9643
0.0 0.0 -6.57473
0.0 0.0 -6.57473
0.0 0.0 -6.57473
0.0 0.0 -6.57473
5.20065 -22.9151 168.334
97.5133 -14.2259 51.2162
0.0 0.0 -6.57473
0.0 0.0 -6.57473
0.0 0.0 -6.57473
18.2824 27.8951 20.4075
-59.1018 55.1208 -9.01079
59.1018 -55.1208 -4.13866
0.0 0.0 -6.57473
0.0 0.0 -6.57473
-9.62106 -59.3531 16.1477
0.0 0.0 -6.57473
0.0 0.0 -6.57473
-97.0732 61.1362 -89.67
2.45745 -0.238815 42.8059
0.0 0.0 -6.57473
5.50044 -0.001296 103.434
0.0 0.0 -6.57473
0.0 0.0 -6.57473
0.0 0.0 -6.57473
0.0 0.0 -6.57473
-36.0932 63.5646 -56.4279
0.0 0.0 -6.57473
0.0 0.0 -6.57473
0.0 0.0 -6.57473
4.24563 22.7933 7.45744
3.04176 0.0 54.2604
0.0 0.0 -6.57473
0.0 0.0 -6.57473
0.0 0.0 -6.57473
0.0 0.0 -6.57473
0.0 0.0 -6.57473
0.0 0.0 -6.57473
-26.2205 -17.746 -1.57499
26.2205 17.746 -11.5745
0.0 0.0 -6.57473
-55.1162 -3.98699 -26.3433
55.1162 3.98699 13.1939
0.0 0.0 -6.57473
3.6823 0.0 67.0712
0.0 0.0 -6.57473
0.0 0.0 -6.57473
-13.2894 -0.755065 -3.65528
13.2894 0.755065 -9.49417
0.0 0.0 -6.57473
0.0 0.0 -6.57473
5.74032 0.0 108.232
0.0 0.0 -6.57473
0.0 0.0 -6.57473
0.0 0.0 -6.57473
0.0 0.0 -6.57473
36.0932 -63.5646 43.2784
0.0 0.0 -6.57473
0.0 0.0 -6.57473
0.0 0.0 -6.57473
0.0 0.0 -6.57473
0.0 0.0 -6.57473
0.0 0.0 -6.57473
0.0 0.0 -6.57473
0.0 0.0 -6.57473
0.0 0.0 -6.57473
0.0 0.0 -6.57473
0.0 0.0 -6.57473
VECTORS omega float
0.32204 14.2632 -14.2632
0.529438 11.7346 -11.7346
0.327637 6.0451 -6.10577
5.33731 -7.42345 -2.65393
-10.8405 13.8046 -14.0217
-12.5398 14.3226 -14.5148
2.26221 8.18246 -7.20249
-3.10265 5.55561 -15.6213
2.74676 16.9572 -17.8107
3.0516 7.24955 -3.02406
5.60425 0.767157 2.80934
-3.32632 16.1574 -18.1348
-5.5011 1.44887 -0.662921
2.87361 -3.01561 3.13542
0.0 0.0 0.0
0.0 0.0 0.0
0.0 0.0 0.0
0.0 0.0 0.0
0.0 0.0 0.0
0.0 0.0 0.0
0.0 0.0 0.0
0.0 0.0 0.0
0.0 0.0 0.0
0.0 0.0 0.0
0.0 0.0 0.0
0.0 0.0 0.0
0.0 0.0 0.0
0.0 0.0 0.0
0.0 0.0 0.0
-1.93702 2.486 0.845869
0.0 0.0 0.0
0.0 0.0 0.0
0.0 0.0 0.0
0.0 0.0 0.0
3.75617 -1.69568 -5.19486
8.77927 0.40451 -14.6065
0.0 0.0 0.0
0.0 0.0 0.0
4.14564 -0.360345 -4.07738
0.0 0.0 0.0
0.0 0.0 0.0
1.93048 0.697567 -9.20171
3.22052 -0.505852 0.828243
0.0 0.0 0.0
-0.176274 0.140679 -0.313007
-3.17108 -0.994193 -0.707714
-0.623228 0.521266 1.77276
-7.08544 -2.88516 -0.566623
0.0 0.0 0.0
-1.88299 4.36088 -4.15888
-4.56407 2.19043 -3.68179
-3.33166 8.19587 -6.63235
0.0 0.0 0.0
0.0 -6.90518 0.0
0.0 -6.90514 0.0
0.437068 -6.98712 -0.028194
0.0 -6.90545 0.0
-0.0509388 -7.45758 0.00220543
0.0 0.0 0.0
0.0 0.0 0.0
0.0 0.0 0.0
0.0 0.0 0.0
0.0 0.0 0.0
0.0 0.0 0.0
0.0 0.0 0.0
0.0 0.0 0.0
0.0 0.0 0.0
0.0 0.0 0.0
0.0 0.0 0.0
0.0 0.0 0.0
0.0 0.0 0.0
-4.32277 -0.605832 1.78458
0.0 0.0 0.0
0.0 0.0 0.0
0.0 0.0 0.0
0.0 0.0 0.0
0.0 0.0 0.0
0.0 0.0 0.0
0.0 0.0 0.0
0.0 0.0 0.0
0.0 0.0 0.0
0.0 0.0 0.0
0.0 0.0 0.0
-1.3361 -0.0635661 0.301695
0.0 0.0 0.0
0.0 0.0 0.0
0.0 0.0 0.0
0.0 0.0 0.0
0.0 0.0 0.0
-1.12031 -0.480668 -3.23533
-1.42961 -0.840843 -3.56155
0.0 0.0 0.0
0.0 0.0 0.0
-2.16137 -1.42728 1.62929
0.0 0.0 0.0
-1.51842 1.56188 0.555545
0.0 0.0 0.0
0.0 0.0 0.0
-7.9273 0.381409 -8.67289
-6.08561 -0.179414 -2.81606
-2.13709 -0.790454 4.52542
-3.54216 -2.28824 -1.81675
0.0 0.0 0.0
0.0 0.0 0.0
0.0 0.0 0.0
-0.519405 0.713334 -0.745499
0.0 0.0 0.0
-3.71378 2.84324 -0.830403
-1.05478 -1.88318 1.88108
-1.17689 -2.01774 0.173
-0.18382 -0.685542 0.769788
-2.23319 4.25972 -1.45154
0.0 0.0 0.0
0.0 0.0 0.0
-1.19373 -2.02149 -1.61962
-0.816472 -1.21486 2.64448
0.075218 -1.97156 1.9258
-0.719777 -2.09756 -0.247046
-2.47829 -6.3886 1.33459
-0.152659 -2.38506 2.38506
1.70446 -3.30373 4.02839
-3.50755 -8.77613 -1.45126
0.0 -6.90546 0.0
-2.62128 -5.77068 -0.168254
0.0 0.0 0.0
0.501822 -5.61642 1.26142
-2.42559 1.31597 1.65746
-0.858766 2.2343 -0.321469
-0.139541 0.470524 -1.83114
0.131231 0.946273 -1.23246
-2.54952 2.25379 -0.652709
-2.06749 -7.24273 2.57987
4.2769 -0.537113 -2.15928
-0.488153 -6.77521 -1.71068
-0.58839 -2.49996 -0.578992
-0.55183 -0.0845413 0.138306
0.0 0.0 0.0
-2.62128 1.13561 -0.168254
0.196185 -5.52369 0.414282
-0.311065 -5.09333 2.63255
2.05518 2.17863 3.15977
-2.4177 -10.1279 0.948454
0.802842 1.84259 -0.246077
0.0 0.0 0.0
-1.93664 1.52073 -0.0488739
1.32519 -5.62057 0.435698
-1.78311 0.70864 0.929715
0.0 -6.90396 0.0
0.0 -6.90596 0.0
0.0 -6.90387 0.0
0.867082 0.671529 -1.48506
0.0 -0.128473 0.0
0.502692 0.557092 1.37141
-0.278216 -3.61139 3.38639
0.0 -6.90621 0.0
0.0 -6.90472 0.0
1.29827 -1.28185 0.0344172
1.29827 -8.18803 0.0344172
-0.963566 -0.171879 0.165901
0.121896 -7.09769 -0.042614
0.0 0.0 0.0
-0.061306 -6.06091 0.00103362
-0.061306 0.843995 0.00103362
-0.0509388 -0.552959 0.00220543
0.0 -0.193126 0.0
0.0 0.0 0.0
0.0 0.0 0.0
-2.19115 1.11921 -0.239368
-0.048572 0.165965 -0.178513
0.0 0.0 0.0
-1.78973 -8.71115 -3.11091
0.0 -0.507476 0.0
4.32402 -5.20167 2.94293
-0.00562317 -1.65388 1.65388
-0.0257676 -2.02049 2.02049
-2.48222 -3.66049 4.33796
-1.68268 -4.05316 2.85973
-8.76984 -2.33544 6.15085
-5.15471 -3.34619 2.5803
-3.1646 -8.00151 7.80757
-2.89868 -11.0834 8.53075
-1.00602 -3.49841 3.66161
-0.279055 -11.321 11.321
-2.59 -7.1605 6.66555
-2.45103 -15.0019 14.5756
-0.0857868 -13.545 13.545
-0.79219 -13.4047 13.3361
-7.91213 -15.174 15.4861
VECTORS v float
0.50723 -6.88414 -8.25625
0.360672 -4.88469 -6.47834
-0.225173 -2.07327 -3.76224
-0.370463 -2.43247 -6.91316
0.557299 -2.10077 -8.25248
0.465621 -1.96353 -8.51027
-1.35038 -3.97762 -4.73655
1.26229 -3.27104 -3.85594
2.2033 -5.88025 -5.66836
-1.88816 -3.08049 -3.523
0.813753 -0.313429 -4.10289
0.552276 -2.18097 -5.10199
1.64629 -0.0565034 -3.45731
1.35282 0.103274 -2.86355
0.0 0.0 -1.5719
0.0 0.0 -1.55632
0.0 0.0 -1.62104
0.0 0.0 -1.80187
0.0 0.0 -1.50329
0.0 0.0 -1.55953
0.0 0.0 -1.59738
0.0 0.0 -1.64158
0.0 0.0 -1.6227
0.0 0.0 -1.62846
0.0 0.0 -1.34367
0.0 0.0 -1.68807
0.0 0.0 -1.79543
0.0 0.0 -1.41864
0.0 0.0 -1.54478
-0.543534 -0.650405 -0.848814
0.0 0.0 -1.61295
0.0 0.0 -1.5088
0.0 0.0 -1.52436
0.0 0.0 -1.74952
-2.02718 -0.929817 -3.68167
0.134667 -1.33527 -1.33349
0.0 0.0 -1.62466
0.0 0.0 -1.34779
-0.342444 -1.94137 -1.84003
0.0 0.0 -1.5898
0.0 0.0 -1.76281
-0.188365 -0.834088 -2.77632
0.00630094 -0.935161 -2.07581
0.0 0.0 -1.55344
-0.0987771 -0.0659908 -1.61398
0.123664 -0.471037 -1.24518
0.59359 0.130114 -1.25599
0.963521 -1.2131 -1.61847
0.0 0.0 -1.57325
-0.502144 -1.2016 -3.1641
-2.18791 -1.20753 -3.66096
-0.258202 -1.26657 -3.76198
0.0 0.0 -1.50037
0.114872 0.0 0.940324
0.114876 0.0 0.855712
0.136097 0.132733 0.836536
0.114877 0.0 0.881944
0.288321 -0.0161282 0.816296
0.0 0.0 -0.88105
0.0 0.0 -0.758434
0.0 0.0 -0.674814
0.0 0.0 -1.03379
0.0 0.0 -0.550611
0.0 0.0 -0.800662
0.0 0.0 -1.22864
0.0 0.0 -0.568786
0.0 0.0 -0.927798
0.0 0.0 -0.83387
0.0 0.0 -0.595031
0.0 0.0 -0.554946
0.0 0.0 -1.19473
0.431517 -1.41309 -0.755258
0.0 0.0 -0.987928
0.0 0.0 -1.31197
0.0 0.0 -0.71119
0.0 0.0 -0.960626
0.0 0.0 -0.705181
0.0 0.0 -0.660898
0.0 0.0 -1.08246
0.0 0.0 -0.793067
0.0 0.0 -1.25633
0.0 0.0 -0.891976
0.0 0.0 -0.563367
0.0964032 -0.19842 -0.345644
0.0 0.0 -1.05744
0.0 0.0 -1.17883
0.0 0.0 -1.06075
0.0 0.0 -0.837246
0.0 0.0 -1.27299
-0.57345 -0.931666 -0.701841
-1.09058 -0.525741 -0.234027
0.0 0.0 -1.10328
0.0 0.0 -1.23469
0.649563 -0.743942 -1.11934
0.0 0.0 -0.676632
-0.453773 -0.525922 -0.641513
0.0 0.0 -0.765714
0.0 0.0 -0.58492
1.19211 -1.25999 -0.36703
0.388644 -1.95986 0.551026
-0.59624 -1.25331 -1.39003
0.687994 -1.39458 0.304839
0.0 0.0 -0.983612
0.0 0.0 -1.16846
0.0 0.0 -1.03148
-0.326455 -0.167018 -1.08691
0.0 0.0 -0.616555
-0.137973 -0.125219 -1.23855
0.851364 -0.397939 -0.826936
0.52062 -0.261972 -0.844882
0.284549 0.0975004 -0.704697
0.702957 -0.0341244 -1.68313
0.0 0.0 -1.06004
0.0 0.0 -0.877659
0.0523709 -0.140261 -0.120647
-0.320115 0.370164 -0.269705
0.467977 0.670438 -0.366499
-0.179917 -0.130748 -1.05283
-0.187728 -0.36433 0.433549
0.0553507 0.779414 -0.377113
0.0557536 0.505333 -0.424058
0.744978 0.0486197 -0.555386
0.114881 0.0 0.779682
-0.0837474 -0.566118 -0.120381
0.0 0.0 -0.771283
0.0015369 0.105204 0.0248946
0.319603 0.647946 -0.485538
0.168606 0.0588655 -0.833541
-0.41575 0.433409 -0.968633
0.0323419 0.571975 -1.01452
0.487776 0.796969 0.161988
0.0434164 0.332689 0.796064
-0.285644 -0.602621 0.181919
-0.212137 0.221519 -0.412527
-0.154204 0.280167 -0.439008
-0.0601012 0.0954335 -0.789472
0.0 0.0 -0.944692
0.198643 0.566118 0.0219171
-0.291469 0.137804 0.665865
-0.0809416 0.972388 -0.0782333
0.781444 -0.118365 -0.374235
-0.0471957 0.0966077 -0.0401435
0.534761 -0.187764 -0.546051
0.0 0.0 -0.770705
0.39121 0.513838 -0.30448
-0.255323 0.450814 0.598812
0.355768 0.426497 -0.830795
0.114855 0.0 0.769995
0.114886 0.0 0.969169
0.114853 0.0 0.708217
0.12052 0.787988 -0.40909
0.0020686 0.0 -1.11761
-0.415395 -0.183684 -0.374198
-0.21222 0.418994 -0.539889
0.11489 0.0 0.990227
0.114868 0.0 0.655188
-0.346934 -0.34214 -0.287668
0.461823 0.34214 0.349189
-0.0467479 0.313459 -1.00009
0.175593 0.0414632 0.980345
0.0 0.0 -0.65261
-0.141006 -0.0184649 0.674505
0.255873 0.0184649 -0.551317
-0.173454 0.0161282 -0.977062
0.00311567 0.0 -1.09874
0.0 0.0 -0.97684
0.0 0.0 -0.676122
0.158095 0.555443 -0.370211
0.0781107 0.00554122 -0.88098
0.0 0.0 -1.14841
0.726128 0.843195 -0.205345
0.00823947 0.0 -1.00335
-0.570539 2.25606 0.579088
0.0384669 0.541264 -0.0238968
0.0472127 0.665212 -0.618371
-0.78153 1.13553 1.16837
0.32976 0.555432 -0.112582
0.300007 1.08279 0.878656
-1.30573 1.24835 0.580112
0.022343 2.13706 2.64958
1.28915 1.80114 1.69284
0.123036 0.957047 0.204982
0.331614 4.44027 3.67032
0.275803 3.24487 0.824362
0.855251 5.68888 6.16096
0.443559 5.92635 4.70788
0.0198557 6.54553 4.95627
0.850061 4.3628 6.59976
SCALARS radius float 1
LOOKUP_TABLE default
0.04
0.04
0.04
0.04
0.04
0.04
0.04
0.04
0.04
0.04
0.04
0.04
0.04
0.04
0.04
0.04
0.04
0.04
0.04
0.04
0.04
0.04
0.04
0.04
0.04
0.04
0.04
0.04
0.04
0.04
0.04
0.04
0.04
0.04
0.04
0.04
0.04
0.04
0.04
0.04
0.04
0.04
0.04
0.04
0.04
0.04
0.04
0.04
0.04
0.04
0.04
0.04
0.04
0.04
0.04
0.04
0.04
0.04
0.04
0.04
0.04
0.04
0.04
0.04
0.04
0.04
0.04
0.04
0.04
0.04
0.04
0.04
0.04
0.04
0.04
0.04
0.04
0.04
0.04
0.04
0.04
0.04
0.04
0.04
0.04
0.04
0.04
0.04
0.04
0.04
0.04
0.04
0.04
0.04
0.04
0.04
0.04
0.04
0.04
0.04
0.04
0.04
0.04
0.04
0.04
0.04
0.04
0.04
0.04
0.04
0.04
0.04
0.04
0.04
0.04
0.04
0.04
0.04
0.04
0.04
0.04
0.04
0.04
0.04
0.04
0.04
0.04
0.04
0.04
0.04
0.04
0.04
0.04
0.04
0.04
0.04
0.04
0.04
0.04
0.04
0.04
0.04
0.04
0.04
0.04
0.04
0.04
0.04
0.04
0.04
0.04
0.04
0.04
0.04
0.04
0.04
0.04
0.04
0.04
0.04
0.04
0.04
0.04
0.04
0.04
0.04
0.04
0.04
0.04
0.04
0.04
0.04
0.04
0.04
0.04
0.04
0.04
0.04
0.04
0.04
0.04
0.04
0.04
0.04
0.04
0.04
0.04
0.04
SCALARS type float 1
LOOKUP_TABLE default
1.0
1.0
1.0
1.0
1.0
1.0
1.0
1.0
1.0
1.0
1.0
1.0
1.0
1.0
1.0
1.0
1.0
1.0
1.0
1.0
1.0
1.0
1.0
1.0
1.0
1.0
1.0
1.0
1.0
1.0
1.0
1.0
1.0
1.0
1.0
1.0
1.0
1.0
1.0
1.0
1.0
1.0
1.0
1.0
1.0
1.0
1.0
1.0
1.0
1.0
1.0
1.0
1.0
1.0
1.0
1.0
1.0
1.0
1.0
1.0
1.0
1.0
1.0
1.0
1.0
1.0
1.0
1.0
1.0
1.0
1.0
1.0
1.0
1.0
1.0
1.0
1.0
1.0
1.0
1.0
1.0
1.0
1.0
1.0
1.0
1.0
1.0
1.0
1.0
1.0
1.0
1.0
1.0
1.0
1.0
1.0
1.0
1.0
1.0
1.0
1.0
1.0
1.0
1.0
1.0
1.0
1.0
1.0
1.0
1.0
1.0
1.0
1.0
1.0
1.0
1.0
1.0
1.0
1.0
1.0
1.0
1.0
1.0
1.0
1.0
1.0
1.0
1.0
1.0
1.0
1.0
1.0
1.0
1.0
1.0
1.0
1.0
1.0
1.0
1.0
1.0
1.0
1.0
1.0
1.0
1.0
1.0
1.0
1.0
1.0
1.0
1.0
1.0
1.0
1.0
1.0
1.0
1.0
1.0
1.0
1.0
1.0
1.0
1.0
1.0
1.0
1.0
1.0
1.0
1.0
1.0
1.0
1.0
1.0
1.0
1.0
1.0
1.0
1.0
1.0
1.0
1.0
1.0
1.0
1.0
1.0
1.0
1.0
SCALARS id float 1
LOOKUP_TABLE default
62.0
91.0
4.0
3.0
174.0
188.0
134.0
40.0
140.0
144.0
32.0
97.0
122.0
15.0
50.0
85.0
52.0
90.0
73.0
92.0
5.0
45.0
87.0
66.0
17.0
72.0
89.0
30.0
31.0
76.0
60.0
19.0
26.0
83.0
39.0
54.0
27.0
13.0
55.0
71.0
94.0
9.0
42.0
58.0
63.0
88.0
64.0
79.0
10.0
127.0
137.0
130.0
16.0
65.0
8.0
14.0
84.0
6.0
173.0
121.0
169.0
168.0
95.0
118.0
80.0
159.0
182.0
177.0
116.0
163.0
35.0
81.0
110.0
49.0
129.0
181.0
152.0
180.0
105.0
153.0
34.0
157.0
148.0
161.0
117.0
28.0
136.0
132.0
86.0
103.0
145.0
141.0
37.0
57.0
102.0
138.0
111.0
143.0
67.0
1.0
151.0
147.0
171.0
119.0
167.0
135.0
170.0
38.0
156.0
23.0
113.0
100.0
124.0
146.0
187.0
101.0
20.0
2.0
7.0
133.0
59.0
69.0
43.0
68.0
114.0
46.0
178.0
183.0
98.0
160.0
109.0
29.0
115.0
51.0
172.0
108.0
142.0
164.0
11.0
44.0
104.0
25.0
106.0
96.0
125.0
18.0
176.0
77.0
22.0
12.0
154.0
184.0
112.0
78.0
47.0
21.0
107.0
75.0
175.0
56.0
139.0
48.0
166.0
179.0
131.0
165.0
149.0
123.0
185.0
150.0
53.0
126.0
36.0
158.0
70.0
128.0
33.0
41.0
155.0
120.0
162.0
82.0
186.0
93.0
99.0
74.0
61.0
24.0

