# vtk DataFile Version 2.0
Generated by lpp.py
ASCII
DATASET POLYDATA
POINTS 999 float
-0.889152 -0.962084 -0.949121
-0.261936 -0.855052 -0.958925
-0.362439 -0.957377 -0.929125
0.380938 -0.786209 -0.954435
-0.495223 -0.844227 -0.928597
-0.401649 -0.811382 -0.963527
-0.255698 -0.694659 -0.960562
-0.831359 -0.563179 -0.94159
-0.317711 -0.642276 -0.939088
-0.000390981 -0.667943 -0.966086
0.534511 -0.707598 -0.906409
-0.42092 -0.546138 -0.960446
-0.178748 -0.590511 -0.94892
0.394953 -0.543424 -0.958499
0.719829 -0.563475 -0.964591
0.675466 -0.509198 -0.937222
-0.958035 -0.460653 -0.942396
-0.372969 -0.47404 -0.92454
-0.0907371 -0.472409 -0.961188
0.271809 -0.397927 -0.963477
0.797804 -0.425437 -0.851092
-0.93925 -0.392242 -0.956441
-0.567509 -0.379006 -0.9442
-0.24356 -0.377103 -0.963597
0.355566 -0.372853 -0.942255
0.959798 -0.348984 -0.940963
-0.428644 -0.272337 -0.951122
0.0139501 -0.265966 -0.964485
0.761707 -0.248804 -0.953653
0.613697 -0.278411 -0.942255
-0.873856 -0.122706 -0.951754
0.87526 -0.183146 -0.959823
-0.762167 -0.107996 -0.972091
-0.141996 0.0600187 -0.910837
-0.542633 0.134224 -0.928434
-0.738572 0.177794 -0.924332
-0.876812 0.220897 -0.9545
-0.956992 0.424278 -0.947906
-0.228044 0.626935 -0.962475
-0.0869069 0.624961 -0.96269
-0.381833 0.865632 -0.945394
-0.599265 -0.931279 -0.882701
0.475194 -0.93346 -0.968971
-0.43766 -0.935698 -0.890228
-0.358959 -0.963112 -0.834409
0.068699 -0.967578 -0.890006
0.253341 -0.931645 -0.95157
-0.235695 -0.844591 -0.890465
0.21102 -0.859894 -0.858401
-0.142912 -0.829165 -0.865819
-0.0793554 -0.774283 -0.865044
0.126766 -0.780443 -0.871191
0.173282 -0.751908 -0.921313
0.83232 -0.703733 -0.814311
-0.943571 -0.638939 -0.948754
-0.672678 -0.644796 -0.849181
-0.595175 -0.585629 -0.972601
-0.359714 -0.537798 -0.955173
0.473778 -0.546331 -0.968302
-0.781573 -0.475519 -0.914666
-0.611009 -0.489245 -0.883403
-0.498528 -0.581914 -0.881736
-0.211402 -0.508801 -0.951577
0.042314 -0.456221 -0.962705
0.912882 -0.52573 -0.932037
0.946155 -0.465551 -0.85853
0.638608 -0.408847 -0.872582
-0.865991 -0.403785 -0.897494
-0.65424 -0.405518 -0.873866
-0.439427 -0.347172 -0.906354
-0.255371 -0.350157 -0.857061
-0.145198 -0.35455 -0.965406
-0.0521561 -0.38021 -0.928282
0.181165 -0.358411 -0.912351
0.644519 -0.336859 -0.834906
0.82319 -0.329392 -0.838167
-0.902526 -0.299444 -0.934682
0.475045 -0.31368 -0.966409
-0.942135 -0.228974 -0.849793
-0.855726 -0.226856 -0.872513
-0.674132 -0.299619 -0.873464
-0.182102 -0.193328 -0.827789
-0.0277221 -0.178879 -0.89934
0.357 -0.230156 -0.817919
0.669505 -0.20684 -0.934608
0.954375 -0.262573 -0.967001
-0.739104 -0.197991 -0.903108
-0.570855 -0.149431 -0.882953
-0.409721 -0.171986 -0.969353
-0.348636 -0.217759 -0.91895
0.0247121 -0.159065 -0.940532
0.409967 -0.116191 -0.90941
0.58815 -0.158142 -0.966624
-0.528427 -0.115273 -0.953839
-0.364674 -0.0319322 -0.850486
-0.242294 -0.0368268 -0.929018
0.277296 -0.102156 -0.958092
0.425568 -0.118447 -0.82915
0.79276 -0.0750164 -0.868323
-0.894302 0.0291679 -0.884087
0.364978 0.0505284 -0.905323
-0.894796 0.0740971 -0.965422
-0.38452 0.0399403 -0.924302
-0.254008 0.148151 -0.899629
-0.0260129 -0.00318649 -0.929205
0.549713 0.0718163 -0.915073
0.758673 0.0211497 -0.932015
0.684092 0.0961874 -0.837093
0.876806 0.155486 -0.904527
-0.498613 0.197531 -0.85285
0.235943 0.211349 -0.956917
0.290922 0.157078 -0.974804
0.69992 0.197498 -0.922849
0.662978 0.257295 -0.890085
-0.935632 0.280445 -0.870529
-0.880139 0.330115 -0.935855
-0.338436 0.415177 -0.900279
0.940322 0.396712 -0.888928
0.7484 0.563955 -0.908532
0.281474 0.597686 -0.950761
-0.93258 0.713438 -0.920667
0.596399 0.919406 -0.917446
-0.449734 -0.949636 -0.812618
0.777369 -0.902321 -0.878172
-0.814658 -0.863151 -0.895065
0.151383 -0.896477 -0.818775
-0.664446 -0.775201 -0.878969
-0.592987 -0.858028 -0.847445
-0.0675494 -0.91768 -0.83091
0.865455 -0.815443 -0.854499
-0.3891 -0.761387 -0.81659
0.702477 -0.757964 -0.85575
-0.781712 -0.727401 -0.774766
0.00626619 -0.707257 -0.809656
-0.261155 -0.647768 -0.869092
0.13415 -0.656204 -0.831502
0.217654 -0.672502 -0.893318
0.339547 -0.559729 -0.905044
0.432377 -0.623989 -0.822832
0.527919 -0.627974 -0.969761
0.682221 -0.524684 -0.87535
-0.698706 -0.501363 -0.811907
-0.436457 -0.500554 -0.88114
-0.399772 -0.596529 -0.825834
-0.210375 -0.543564 -0.863463
0.0354052 -0.540383 -0.862131
0.930372 -0.549169 -0.818905
-0.809584 -0.441437 -0.826009
-0.545732 -0.450748 -0.86802
-0.0486275 -0.492808 -0.908096
0.1845 -0.413992 -0.831931
0.910752 -0.370803 -0.901135
-0.521847 -0.371143 -0.867216
-0.385834 -0.419599 -0.792161
0.539051 -0.413365 -0.852113
-0.463272 -0.257708 -0.877574
0.277078 -0.323991 -0.976329
0.878927 -0.256163 -0.873489
-0.600685 -0.256839 -0.827895
-0.389086 -0.284993 -0.901839
-0.108579 -0.280693 -0.868284
0.223295 -0.237757 -0.8701
-0.859755 -0.141031 -0.856976
-0.421249 -0.165591 -0.881287
0.477175 -0.194716 -0.97882
0.810935 -0.171287 -0.830019
-0.959643 -0.090085 -0.848174
-0.75329 -0.105709 -0.889498
-0.152699 -0.0926896 -0.797711
-0.0960257 -0.0615939 -0.92093
0.286935 -0.0727463 -0.840972
-0.450356 -0.0154667 -0.879717
-0.0857127 0.0717289 -0.868803
-0.867891 0.112785 -0.917347
-0.931995 0.152344 -0.891545
0.173567 0.265539 -0.804024
0.301587 0.247829 -0.772477
0.254981 0.429899 -0.863721
-0.897861 0.451416 -0.813126
-0.619158 0.450903 -0.802385
-0.455267 0.572688 -0.802371
0.58481 0.865462 -0.838878
0.149064 0.777601 -0.842302
-0.400862 0.893015 -0.863095
-0.722925 -0.961732 -0.775184
0.451379 -0.918787 -0.755595
0.894268 -0.936068 -0.838438
-0.844617 -0.879839 -0.766883
0.37061 -0.830308 -0.823301
0.562795 -0.930697 -0.804595
0.640276 -0.878068 -0.782068
-0.958258 -0.814556 -0.75407
-0.166177 -0.822503 -0.744359
-0.735847 -0.789443 -0.718533
0.041369 -0.759915 -0.740122
0.163152 -0.689657 -0.723992
0.51302 -0.738416 -0.72249
0.585888 -0.670524 -0.764169
-0.577824 -0.650536 -0.773098
-0.399073 -0.649664 -0.6941
-0.192965 -0.694602 -0.829595
0.911413 -0.659359 -0.828764
-0.937987 -0.582751 -0.805688
-0.485148 -0.599454 -0.814329
-0.0647881 -0.604517 -0.84091
0.722571 -0.604315 -0.843218
-0.278249 -0.496036 -0.845599
-0.728021 -0.414917 -0.82126
0.350718 -0.454399 -0.74165
0.49916 -0.426146 -0.767642
0.600923 -0.40289 -0.749576
-0.809064 -0.303656 -0.785896
-0.670459 -0.339907 -0.819728
-0.302063 -0.3319 -0.758774
-0.163132 -0.351969 -0.774197
0.404724 -0.401563 -0.844989
0.783639 -0.355716 -0.79781
-0.522887 -0.323668 -0.753383
-0.443605 -0.324861 -0.752314
0.0328165 -0.29033 -0.729602
0.622543 -0.290675 -0.712462
-0.696076 -0.26205 -0.777374
-0.73763 -0.157111 -0.82893
0.204694 -0.112165 -0.801396
-0.280343 -0.109914 -0.701526
0.224218 -0.0468834 -0.696586
0.622686 -0.0863193 -0.735562
0.622192 0.077473 -0.757131
0.557632 0.0212977 -0.807667
0.706429 0.0444954 -0.756752
-0.355058 0.0951763 -0.891098
-0.0257101 0.183363 -0.766664
-0.692896 0.130373 -0.801117
-0.286592 0.198832 -0.705844
-0.926003 0.215203 -0.844611
-0.858489 0.324888 -0.772977
-0.124683 0.340315 -0.782089
0.494733 0.389732 -0.750937
-0.921547 0.529894 -0.795431
-0.406975 0.629941 -0.748397
0.822499 0.540179 -0.745251
-0.241468 0.847481 -0.731769
0.65021 0.85156 -0.791725
-0.190414 -0.879302 -0.696678
-0.624803 -0.968287 -0.675272
-0.915042 -0.781346 -0.692092
-0.615903 -0.785707 -0.671415
-0.324773 -0.810806 -0.70496
-0.75396 -0.713224 -0.660207
-0.038036 -0.669491 -0.664135
0.207246 -0.779665 -0.719066
0.654373 -0.631838 -0.70408
-0.922363 -0.6209 -0.705917
-0.777867 -0.654645 -0.766454
-0.304634 -0.591327 -0.756309
0.27554 -0.575014 -0.70922
0.558137 -0.574961 -0.713518
-0.841694 -0.512982 -0.68483
-0.628921 -0.501668 -0.768869
-0.239778 -0.510057 -0.780034
0.28633 -0.495356 -0.695002
0.502956 -0.500259 -0.73117
-0.480804 -0.46198 -0.792998
0.877374 -0.487852 -0.768397
-0.208551 -0.359537 -0.672467
0.0408873 -0.383566 -0.710777
0.162477 -0.37527 -0.743457
0.282881 -0.374179 -0.802328
0.41052 -0.368143 -0.712645
0.192327 -0.306277 -0.699821
0.344848 -0.306363 -0.724815
0.77994 -0.266841 -0.739745
-0.580748 -0.232351 -0.735301
0.287213 -0.243138 -0.750702
-0.465329 -0.237357 -0.737607
-0.0496659 -0.234041 -0.730055
0.820522 -0.152391 -0.739931
-0.489218 -0.0795157 -0.768431
-0.883703 -0.00989226 -0.738466
-0.149325 -0.00930565 -0.645487
0.135481 0.0568096 -0.722537
0.412615 0.0357222 -0.74091
-0.0833821 0.216242 -0.723903
0.226564 0.245438 -0.707603
-0.909784 0.22307 -0.752184
-0.742868 0.339502 -0.781154
0.239011 0.382091 -0.699742
-0.243881 0.45222 -0.687431
0.423031 0.677558 -0.767888
-0.961587 0.81507 -0.713422
-0.753002 0.884165 -0.718936
-0.481958 -0.844615 -0.646616
-0.325119 -0.80535 -0.623308
0.234331 -0.826066 -0.645176
0.810003 -0.875518 -0.681899
-0.686329 -0.780337 -0.613874
0.0749659 -0.813547 -0.600647
0.674725 -0.774575 -0.69531
-0.238029 -0.655659 -0.621545
-0.293553 -0.496286 -0.688574
-0.771454 -0.448083 -0.722638
-0.643737 -0.414213 -0.699823
-0.150392 -0.446018 -0.724904
0.178185 -0.468068 -0.697377
-0.899787 -0.386468 -0.709368
-0.0487181 -0.416256 -0.655835
0.555799 -0.389391 -0.666085
0.614282 -0.3327 -0.647918
0.750905 -0.340177 -0.672954
0.451366 -0.29642 -0.664054
0.920688 -0.307277 -0.664131
0.415667 -0.217405 -0.712014
0.640754 -0.149963 -0.672345
-0.637735 -0.143329 -0.641252
0.0305143 -0.185281 -0.686075
-0.891709 -0.104688 -0.637977
0.298377 -0.0877863 -0.677297
0.0509608 -0.000397559 -0.688426
0.192157 -0.0050593 -0.570521
-0.518237 0.0469418 -0.623895
0.322571 0.0887093 -0.605003
0.471191 0.0479806 -0.66511
0.184445 0.16179 -0.604163
-0.742112 0.192438 -0.655132
-0.185145 0.232585 -0.67507
0.937059 0.225408 -0.706856
-0.467169 0.24966 -0.714264
0.017116 0.262044 -0.673622
0.911592 0.282459 -0.595196
0.322997 -0.935719 -0.599608
0.255629 -0.884538 -0.540664
0.948907 -0.88192 -0.517061
-0.683338 -0.718367 -0.529321
-0.12368 -0.781468 -0.52783
0.852143 -0.55543 -0.486976
-0.181114 -0.554759 -0.628377
0.13073 -0.524189 -0.555431
0.52995 -0.516557 -0.592139
0.097089 -0.482561 -0.628951
[...]
POINT_DATA 999
VECTORS i float
0.0 0.0 0.0
0.0 0.0 0.0
0.0 0.0 0.0
0.0 0.0 0.0
0.0 0.0 0.0
0.0 0.0 0.0
0.0 0.0 0.0
0.0 0.0 0.0
0.0 0.0 0.0
0.0 0.0 0.0
0.0 0.0 0.0
0.0 0.0 0.0
0.0 0.0 0.0
0.0 0.0 0.0
0.0 0.0 0.0
0.0 0.0 0.0
0.0 0.0 0.0
0.0 0.0 0.0
0.0 0.0 0.0
0.0 0.0 0.0
0.0 0.0 0.0
0.0 0.0 0.0
0.0 0.0 0.0
0.0 0.0 0.0
0.0 0.0 0.0
0.0 0.0 0.0
0.0 0.0 0.0
0.0 0.0 0.0
0.0 0.0 0.0
0.0 0.0 0.0
0.0 0.0 0.0
0.0 0.0 0.0
0.0 0.0 0.0
0.0 0.0 0.0
0.0 0.0 0.0
0.0 0.0 0.0
0.0 0.0 0.0
0.0 0.0 0.0
0.0 0.0 0.0
0.0 0.0 0.0
0.0 0.0 0.0
0.0 0.0 0.0
0.0 0.0 0.0
0.0 0.0 0.0
0.0 0.0 0.0
0.0 0.0 0.0
0.0 0.0 0.0
0.0 0.0 0.0
0.0 0.0 0.0
0.0 0.0 0.0
0.0 0.0 0.0
0.0 0.0 0.0
0.0 0.0 0.0
0.0 0.0 0.0
0.0 0.0 0.0
0.0 0.0 0.0
0.0 0.0 0.0
0.0 0.0 0.0
0.0 0.0 0.0
0.0 0.0 0.0
0.0 0.0 0.0
0.0 0.0 0.0
0.0 0.0 0.0
0.0 0.0 0.0
0.0 0.0 0.0
0.0 0.0 0.0
0.0 0.0 0.0
0.0 0.0 0.0
0.0 0.0 0.0
0.0 0.0 0.0
0.0 0.0 0.0
0.0 0.0 0.0
0.0 0.0 0.0
0.0 0.0 0.0
0.0 0.0 0.0
0.0 0.0 0.0
0.0 0.0 0.0
0.0 0.0 0.0
0.0 0.0 0.0
0.0 0.0 0.0
0.0 0.0 0.0
0.0 0.0 0.0
0.0 0.0 0.0
0.0 0.0 0.0
0.0 0.0 0.0
0.0 0.0 0.0
0.0 0.0 0.0
0.0 0.0 0.0
0.0 0.0 0.0
0.0 0.0 0.0
0.0 0.0 0.0
0.0 0.0 0.0
0.0 0.0 0.0
0.0 0.0 0.0
0.0 0.0 0.0
0.0 0.0 0.0
0.0 0.0 0.0
0.0 0.0 0.0
0.0 0.0 0.0
0.0 0.0 0.0
0.0 0.0 0.0
0.0 0.0 0.0
0.0 0.0 0.0
0.0 0.0 0.0
0.0 0.0 0.0
0.0 0.0 0.0
0.0 0.0 0.0
0.0 0.0 0.0
0.0 0.0 0.0
0.0 0.0 0.0
0.0 0.0 0.0
0.0 0.0 0.0
0.0 0.0 0.0
0.0 0.0 0.0
0.0 0.0 0.0
0.0 0.0 0.0
0.0 0.0 0.0
0.0 0.0 0.0
0.0 0.0 0.0
0.0 0.0 0.0
0.0 0.0 0.0
0.0 0.0 0.0
0.0 0.0 0.0
0.0 0.0 0.0
0.0 0.0 0.0
0.0 0.0 0.0
0.0 0.0 0.0
0.0 0.0 0.0
0.0 0.0 0.0
0.0 0.0 0.0
0.0 0.0 0.0
0.0 0.0 0.0
0.0 0.0 0.0
0.0 0.0 0.0
0.0 0.0 0.0
0.0 0.0 0.0
0.0 0.0 0.0
0.0 0.0 0.0
0.0 0.0 0.0
0.0 0.0 0.0
0.0 0.0 0.0
0.0 0.0 0.0
0.0 0.0 0.0
0.0 0.0 0.0
0.0 0.0 0.0
0.0 0.0 0.0
0.0 0.0 0.0
0.0 0.0 0.0
0.0 0.0 0.0
0.0 0.0 0.0
0.0 0.0 0.0
0.0 0.0 0.0
0.0 0.0 0.0
0.0 0.0 0.0
0.0 0.0 0.0
0.0 0.0 0.0
0.0 0.0 0.0
0.0 0.0 0.0
0.0 0.0 0.0
0.0 0.0 0.0
0.0 0.0 0.0
0.0 0.0 0.0
0.0 0.0 0.0
0.0 0.0 0.0
0.0 0.0 0.0
0.0 0.0 0.0
0.0 0.0 0.0
0.0 0.0 0.0
0.0 0.0 0.0
0.0 0.0 0.0
0.0 0.0 0.0
0.0 0.0 0.0
0.0 0.0 0.0
0.0 0.0 0.0
0.0 0.0 0.0
0.0 0.0 0.0
0.0 0.0 0.0
0.0 0.0 0.0
0.0 0.0 0.0
0.0 0.0 0.0
0.0 0.0 0.0
0.0 0.0 0.0
0.0 0.0 0.0
0.0 0.0 0.0
0.0 0.0 0.0
0.0 0.0 0.0
0.0 0.0 0.0
0.0 0.0 0.0
0.0 0.0 0.0
0.0 0.0 0.0
0.0 0.0 0.0
0.0 0.0 0.0
0.0 0.0 0.0
0.0 0.0 0.0
0.0 0.0 0.0
0.0 0.0 0.0
0.0 0.0 0.0
0.0 0.0 0.0
0.0 0.0 0.0
0.0 0.0 0.0
0.0 0.0 0.0
0.0 0.0 0.0
0.0 0.0 0.0
0.0 0.0 0.0
0.0 0.0 0.0
0.0 0.0 0.0
0.0 0.0 0.0
0.0 0.0 0.0
0.0 0.0 0.0
0.0 0.0 0.0
0.0 0.0 0.0
0.0 0.0 0.0
0.0 0.0 0.0
0.0 0.0 0.0
0.0 0.0 0.0
0.0 0.0 0.0
0.0 0.0 0.0
0.0 0.0 0.0
0.0 0.0 0.0
0.0 0.0 0.0
0.0 0.0 0.0
0.0 0.0 0.0
0.0 0.0 0.0
0.0 0.0 0.0
0.0 0.0 0.0
0.0 0.0 0.0
0.0 0.0 0.0
0.0 0.0 0.0
0.0 0.0 0.0
0.0 0.0 0.0
0.0 0.0 0.0
0.0 0.0 0.0
0.0 0.0 0.0
0.0 0.0 0.0
0.0 0.0 0.0
0.0 0.0 0.0
0.0 0.0 0.0
0.0 0.0 0.0
0.0 0.0 0.0
0.0 0.0 0.0
0.0 0.0 0.0
0.0 0.0 0.0
0.0 0.0 0.0
0.0 0.0 0.0
0.0 0.0 0.0
0.0 0.0 0.0
0.0 0.0 0.0
0.0 0.0 0.0
0.0 0.0 0.0
0.0 0.0 0.0
0.0 0.0 0.0
0.0 0.0 0.0
0.0 0.0 0.0
0.0 0.0 0.0
0.0 0.0 0.0
0.0 0.0 0.0
0.0 0.0 0.0
0.0 0.0 0.0
0.0 0.0 0.0
0.0 0.0 0.0
0.0 0.0 0.0
0.0 0.0 0.0
0.0 0.0 0.0
0.0 0.0 0.0
0.0 0.0 0.0
0.0 0.0 0.0
0.0 0.0 0.0
0.0 0.0 0.0
0.0 0.0 0.0
0.0 0.0 0.0
0.0 0.0 0.0
0.0 0.0 0.0
0.0 0.0 0.0
0.0 0.0 0.0
0.0 0.0 0.0
0.0 0.0 0.0
0.0 0.0 0.0
0.0 0.0 0.0
0.0 0.0 0.0
0.0 0.0 0.0
0.0 0.0 0.0
0.0 0.0 0.0
0.0 0.0 0.0
0.0 0.0 0.0
0.0 0.0 0.0
0.0 0.0 0.0
0.0 0.0 0.0
0.0 0.0 0.0
0.0 0.0 0.0
0.0 0.0 0.0
0.0 0.0 0.0
0.0 0.0 0.0
0.0 0.0 0.0
0.0 0.0 0.0
0.0 0.0 0.0
0.0 0.0 0.0
0.0 0.0 0.0
0.0 0.0 0.0
0.0 0.0 0.0
0.0 0.0 0.0
0.0 0.0 0.0
0.0 0.0 0.0
0.0 0.0 0.0
0.0 0.0 0.0
0.0 0.0 0.0
0.0 0.0 0.0
0.0 0.0 0.0
0.0 0.0 0.0
0.0 0.0 0.0
0.0 0.0 0.0
0.0 0.0 0.0
0.0 0.0 0.0
0.0 0.0 0.0
0.0 0.0 0.0
0.0 0.0 0.0
0.0 0.0 0.0
0.0 0.0 0.0
0.0 0.0 0.0
0.0 0.0 0.0
0.0 0.0 0.0
0.0 0.0 0.0
0.0 0.0 0.0
0.0 0.0 0.0
0.0 0.0 0.0
0.0 0.0 0.0
0.0 0.0 0.0
0.0 0.0 0.0
0.0 0.0 0.0
0.0 0.0 0.0
0.0 0.0 0.0
0.0 0.0 0.0
0.0 0.0 0.0
0.0 0.0 0.0
0.0 0.0 0.0
0.0 0.0 0.0
0.0 0.0 0.0
0.0 0.0 0.0
0.0 0.0 0.0
0.0 0.0 0.0
0.0 0.0 0.0
0.0 0.0 0.0
0.0 0.0 0.0
0.0 0.0 0.0
0.0 0.0 0.0
0.0 0.0 0.0
0.0 0.0 0.0
0.0 0.0 0.0
0.0 0.0 0.0
0.0 0.0 0.0
0.0 0.0 0.0
0.0 0.0 0.0
0.0 0.0 0.0
0.0 0.0 0.0
0.0 0.0 0.0
0.0 0.0 0.0
0.0 0.0 0.0
0.0 0.0 0.0
0.0 0.0 0.0
0.0 0.0 0.0
0.0 0.0 0.0
0.0 0.0 0.0
0.0 0.0 0.0
0.0 0.0 0.0
0.0 0.0 0.0
0.0 0.0 0.0
0.0 0.0 0.0
0.0 0.0 0.0
0.0 0.0 0.0
0.0 0.0 0.0
0.0 0.0 0.0
0.0 0.0 0.0
0.0 0.0 0.0
0.0 0.0 0.0
0.0 0.0 0.0
0.0 0.0 0.0
0.0 0.0 0.0
0.0 0.0 0.0
0.0 0.0 0.0
0.0 0.0 0.0
0.0 0.0 0.0
0.0 0.0 0.0
0.0 0.0 0.0
0.0 0.0 0.0
0.0 0.0 0.0
0.0 0.0 0.0
0.0 0.0 0.0
0.0 0.0 0.0
0.0 0.0 0.0
0.0 0.0 0.0
0.0 0.0 0.0
0.0 0.0 0.0
0.0 0.0 0.0
0.0 0.0 0.0
0.0 0.0 0.0
0.0 0.0 0.0
0.0 0.0 0.0
0.0 0.0 0.0
0.0 0.0 0.0
0.0 0.0 0.0
0.0 0.0 0.0
0.0 0.0 0.0
0.0 0.0 0.0
0.0 0.0 0.0
0.0 0.0 0.0
0.0 0.0 0.0
0.0 0.0 0.0
0.0 0.0 0.0
0.0 0.0 0.0
0.0 0.0 0.0
0.0 0.0 0.0
0.0 0.0 0.0
0.0 0.0 0.0
0.0 0.0 0.0
0.0 0.0 0.0
0.0 0.0 0.0
0.0 0.0 0.0
0.0 0.0 0.0
0.0 0.0 0.0
0.0 0.0 0.0
0.0 0.0 0.0
0.0 0.0 0.0
0.0 0.0 0.0
0.0 0.0 0.0
0.0 0.0 0.0
0.0 0.0 0.0
0.0 0.0 0.0
0.0 0.0 0.0
0.0 0.0 0.0
0.0 0.0 0.0
0.0 0.0 0.0
0.0 0.0 0.0
0.0 0.0 0.0
0.0 0.0 0.0
0.0 0.0 0.0
0.0 0.0 0.0
0.0 0.0 0.0
0.0 0.0 0.0
0.0 0.0 0.0
0.0 0.0 0.0
0.0 0.0 0.0
0.0 0.0 0.0
0.0 0.0 0.0
0.0 0.0 0.0
0.0 0.0 0.0
0.0 0.0 0.0
0.0 0.0 0.0
0.0 0.0 0.0
0.0 0.0 0.0
0.0 0.0 0.0
0.0 0.0 0.0
0.0 0.0 0.0
0.0 0.0 0.0
0.0 0.0 0.0
0.0 0.0 0.0
0.0 0.0 0.0
0.0 0.0 0.0
0.0 0.0 0.0
0.0 0.0 0.0
0.0 0.0 0.0
0.0 0.0 0.0
0.0 0.0 0.0
0.0 0.0 0.0
0.0 0.0 0.0
0.0 0.0 0.0
0.0 0.0 0.0
0.0 0.0 0.0
0.0 0.0 0.0
0.0 0.0 0.0
0.0 0.0 0.0
0.0 0.0 0.0
0.0 0.0 0.0
0.0 0.0 0.0
0.0 0.0 0.0
0.0 0.0 0.0
0.0 0.0 0.0
0.0 0.0 0.0
0.0 0.0 0.0
0.0 0.0 0.0
0.0 0.0 0.0
0.0 0.0 0.0
0.0 0.0 0.0
0.0 0.0 0.0
0.0 0.0 0.0
0.0 0.0 0.0
0.0 0.0 0.0
0.0 0.0 0.0
0.0 0.0 0.0
0.0 0.0 0.0
0.0 0.0 0.0
0.0 0.0 0.0
0.0 0.0 0.0
0.0 0.0 0.0
0.0 0.0 0.0
0.0 0.0 0.0
0.0 0.0 0.0
0.0 0.0 0.0
0.0 0.0 0.0
0.0 0.0 0.0
0.0 0.0 0.0
0.0 0.0 0.0
0.0 0.0 0.0
0.0 0.0 0.0
0.0 0.0 0.0
0.0 0.0 0.0
0.0 0.0 0.0
0.0 0.0 0.0
0.0 0.0 0.0
0.0 0.0 0.0
0.0 0.0 0.0
0.0 0.0 0.0
0.0 0.0 0.0
0.0 0.0 0.0
0.0 0.0 0.0
0.0 0.0 0.0
0.0 0.0 0.0
0.0 0.0 0.0
0.0 0.0 0.0
0.0 0.0 0.0
0.0 0.0 0.0
0.0 0.0 0.0
0.0 0.0 0.0
0.0 0.0 0.0
0.0 0.0 0.0
0.0 0.0 0.0
0.0 0.0 0.0
0.0 0.0 0.0
0.0 0.0 0.0
0.0 0.0 0.0
0.0 0.0 0.0
0.0 0.0 0.0
0.0 0.0 0.0
0.0 0.0 0.0
0.0 0.0 0.0
0.0 0.0 0.0
0.0 0.0 0.0
0.0 0.0 0.0
0.0 0.0 0.0
0.0 0.0 0.0
0.0 0.0 0.0
0.0 0.0 0.0
0.0 0.0 0.0
0.0 0.0 0.0
0.0 0.0 0.0
0.0 0.0 0.0
0.0 0.0 0.0
0.0 0.0 0.0
0.0 0.0 0.0
0.0 0.0 0.0
0.0 0.0 0.0
0.0 0.0 0.0
0.0 0.0 0.0
0.0 0.0 0.0
0.0 0.0 0.0
0.0 0.0 0.0
0.0 0.0 0.0
0.0 0.0 0.0
0.0 0.0 0.0
0.0 0.0 0.0
0.0 0.0 0.0
0.0 0.0 0.0
0.0 0.0 0.0
0.0 0.0 0.0
0.0 0.0 0.0
0.0 0.0 0.0
0.0 0.0 0.0
0.0 0.0 0.0
0.0 0.0 0.0
0.0 0.0 0.0
0.0 0.0 0.0
0.0 0.0 0.0
0.0 0.0 0.0
0.0 0.0 0.0
0.0 0.0 0.0
0.0 0.0 0.0
0.0 0.0 0.0
0.0 0.0 0.0
0.0 0.0 0.0
0.0 0.0 0.0
0.0 0.0 0.0
0.0 0.0 0.0
0.0 0.0 0.0
0.0 0.0 0.0
0.0 0.0 0.0
0.0 0.0 0.0
0.0 0.0 0.0
0.0 0.0 0.0
0.0 0.0 0.0
0.0 0.0 0.0
0.0 0.0 0.0
0.0 0.0 0.0
0.0 0.0 0.0
0.0 0.0 0.0
0.0 0.0 0.0
0.0 0.0 0.0
0.0 0.0 0.0
0.0 0.0 0.0
0.0 0.0 0.0
0.0 0.0 0.0
0.0 0.0 0.0
0.0 0.0 0.0
0.0 0.0 0.0
0.0 0.0 0.0
0.0 0.0 0.0
0.0 0.0 0.0
0.0 0.0 0.0
0.0 0.0 0.0
0.0 0.0 0.0
0.0 0.0 0.0
0.0 0.0 0.0
0.0 0.0 0.0
0.0 0.0 0.0
0.0 0.0 0.0
0.0 0.0 0.0
0.0 0.0 0.0
0.0 0.0 0.0
0.0 0.0 0.0
0.0 0.0 0.0
0.0 0.0 0.0
0.0 0.0 0.0
0.0 0.0 0.0
0.0 0.0 0.0
0.0 0.0 0.0
0.0 0.0 0.0
0.0 0.0 0.0
0.0 0.0 0.0
0.0 0.0 0.0
0.0 0.0 0.0
0.0 0.0 0.0
0.0 0.0 0.0
0.0 0.0 0.0
0.0 0.0 0.0
0.0 0.0 0.0
0.0 0.0 0.0
0.0 0.0 0.0
0.0 0.0 0.0
0.0 0.0 0.0
0.0 0.0 0.0
0.0 0.0 0.0
0.0 0.0 0.0
0.0 0.0 0.0
0.0 0.0 0.0
0.0 0.0 0.0
0.0 0.0 0.0
0.0 0.0 0.0
0.0 0.0 0.0
0.0 0.0 0.0
0.0 0.0 0.0
0.0 0.0 0.0
0.0 0.0 0.0
0.0 0.0 0.0
0.0 0.0 0.0
0.0 0.0 0.0
0.0 0.0 0.0
0.0 0.0 0.0
0.0 0.0 0.0
0.0 0.0 0.0
0.0 0.0 0.0
0.0 0.0 0.0
0.0 0.0 0.0
0.0 0.0 0.0
0.0 0.0 0.0
0.0 0.0 0.0
0.0 0.0 0.0
0.0 0.0 0.0
0.0 0.0 0.0
0.0 0.0 0.0
0.0 0.0 0.0
0.0 0.0 0.0
0.0 0.0 0.0
0.0 0.0 0.0
0.0 0.0 0.0
0.0 0.0 0.0
0.0 0.0 0.0
0.0 0.0 0.0
0.0 0.0 0.0
0.0 0.0 0.0
0.0 0.0 0.0
0.0 0.0 0.0
0.0 0.0 0.0
0.0 0.0 0.0
0.0 0.0 0.0
0.0 0.0 0.0
0.0 0.0 0.0
0.0 0.0 0.0
0.0 0.0 0.0
0.0 0.0 0.0
0.0 0.0 0.0
0.0 0.0 0.0
0.0 0.0 0.0
0.0 0.0 0.0
0.0 0.0 0.0
0.0 0.0 0.0
0.0 0.0 0.0
0.0 0.0 0.0
0.0 0.0 0.0
0.0 0.0 0.0
0.0 0.0 0.0
0.0 0.0 0.0
0.0 0.0 0.0
0.0 0.0 0.0
0.0 0.0 0.0
0.0 0.0 0.0
0.0 0.0 0.0
0.0 0.0 0.0
0.0 0.0 0.0
0.0 0.0 0.0
0.0 0.0 0.0
0.0 0.0 0.0
0.0 0.0 0.0
0.0 0.0 0.0
0.0 0.0 0.0
0.0 0.0 0.0
0.0 0.0 0.0
0.0 0.0 0.0
0.0 0.0 0.0
0.0 0.0 0.0
0.0 0.0 0.0
0.0 0.0 0.0
0.0 0.0 0.0
0.0 0.0 0.0
0.0 0.0 0.0
0.0 0.0 0.0
0.0 0.0 0.0
0.0 0.0 0.0
0.0 0.0 0.0
0.0 0.0 0.0
0.0 0.0 0.0
0.0 0.0 0.0
0.0 0.0 0.0
0.0 0.0 0.0
0.0 0.0 0.0
0.0 0.0 0.0
0.0 0.0 0.0
0.0 0.0 0.0
0.0 0.0 0.0
0.0 0.0 0.0
0.0 0.0 0.0
0.0 0.0 0.0
0.0 0.0 0.0
0.0 0.0 0.0
0.0 0.0 0.0
0.0 0.0 0.0
0.0 0.0 0.0
0.0 0.0 0.0
0.0 0.0 0.0
0.0 0.0 0.0
0.0 0.0 0.0
0.0 0.0 0.0
0.0 0.0 0.0
0.0 0.0 0.0
0.0 0.0 0.0
0.0 0.0 0.0
0.0 0.0 0.0
0.0 0.0 0.0
0.0 0.0 0.0
0.0 0.0 0.0
0.0 0.0 0.0
0.0 0.0 0.0
0.0 0.0 0.0
0.0 0.0 0.0
0.0 0.0 0.0
0.0 0.0 0.0
0.0 0.0 0.0
0.0 0.0 0.0
0.0 0.0 0.0
0.0 0.0 0.0
0.0 0.0 0.0
0.0 0.0 0.0
0.0 0.0 0.0
0.0 0.0 0.0
0.0 0.0 0.0
0.0 0.0 0.0
0.0 0.0 0.0
0.0 0.0 0.0
0.0 0.0 0.0
0.0 0.0 0.0
0.0 0.0 0.0
0.0 0.0 0.0
0.0 0.0 0.0
0.0 0.0 0.0
0.0 0.0 0.0
0.0 0.0 0.0
0.0 0.0 0.0
0.0 0.0 0.0
0.0 0.0 0.0
0.0 0.0 0.0
0.0 0.0 0.0
0.0 0.0 0.0
0.0 0.0 0.0
0.0 0.0 0.0
0.0 0.0 0.0
0.0 0.0 0.0
0.0 0.0 0.0
0.0 0.0 0.0
0.0 0.0 0.0
0.0 0.0 0.0
0.0 0.0 0.0
0.0 0.0 0.0
0.0 0.0 0.0
0.0 0.0 0.0
0.0 0.0 0.0
0.0 0.0 0.0
0.0 0.0 0.0
0.0 0.0 0.0
0.0 0.0 0.0
0.0 0.0 0.0
0.0 0.0 0.0
0.0 0.0 0.0
0.0 0.0 0.0
0.0 0.0 0.0
0.0 0.0 0.0
0.0 0.0 0.0
0.0 0.0 0.0
0.0 0.0 0.0
0.0 0.0 0.0
0.0 0.0 0.0
0.0 0.0 0.0
0.0 0.0 0.0
0.0 0.0 0.0
0.0 0.0 0.0
0.0 0.0 0.0
0.0 0.0 0.0
0.0 0.0 0.0
0.0 0.0 0.0
0.0 0.0 0.0
0.0 0.0 0.0
0.0 0.0 0.0
0.0 0.0 0.0
0.0 0.0 0.0
0.0 0.0 0.0
0.0 0.0 0.0
0.0 0.0 0.0
0.0 0.0 0.0
0.0 0.0 0.0
0.0 0.0 0.0
0.0 0.0 0.0
0.0 0.0 0.0
0.0 0.0 0.0
0.0 0.0 0.0
0.0 0.0 0.0
0.0 0.0 0.0
0.0 0.0 0.0
0.0 0.0 0.0
0.0 0.0 0.0
0.0 0.0 0.0
0.0 0.0 0.0
0.0 0.0 0.0
0.0 0.0 0.0
0.0 0.0 0.0
0.0 0.0 0.0
0.0 0.0 0.0
0.0 0.0 0.0
0.0 0.0 0.0
0.0 0.0 0.0
0.0 0.0 0.0
0.0 0.0 0.0
0.0 0.0 0.0
0.0 0.0 0.0
0.0 0.0 0.0
0.0 0.0 0.0
0.0 0.0 0.0
0.0 0.0 0.0
0.0 0.0 0.0
0.0 0.0 0.0
0.0 0.0 0.0
0.0 0.0 0.0
0.0 0.0 0.0
0.0 0.0 0.0
0.0 0.0 0.0
0.0 0.0 0.0
0.0 0.0 0.0
0.0 0.0 0.0
0.0 0.0 0.0
0.0 0.0 0.0
0.0 0.0 0.0
0.0 0.0 0.0
0.0 0.0 0.0
0.0 0.0 0.0
0.0 0.0 0.0
0.0 0.0 0.0
0.0 0.0 0.0
0.0 0.0 0.0
0.0 0.0 0.0
0.0 0.0 0.0
0.0 0.0 0.0
0.0 0.0 0.0
0.0 0.0 0.0
0.0 0.0 0.0
0.0 0.0 0.0
0.0 0.0 0.0
0.0 0.0 0.0
0.0 0.0 0.0
0.0 0.0 0.0
0.0 0.0 0.0
0.0 0.0 0.0
0.0 0.0 0.0
0.0 0.0 0.0
0.0 0.0 0.0
0.0 0.0 0.0
0.0 0.0 0.0
0.0 0.0 0.0
0.0 0.0 0.0
0.0 0.0 0.0
0.0 0.0 0.0
0.0 0.0 0.0
0.0 0.0 0.0
0.0 0.0 0.0
0.0 0.0 0.0
0.0 0.0 0.0
0.0 0.0 0.0
0.0 0.0 0.0
0.0 0.0 0.0
0.0 0.0 0.0
0.0 0.0 0.0
0.0 0.0 0.0
0.0 0.0 0.0
0.0 0.0 0.0
0.0 0.0 0.0
0.0 0.0 0.0
0.0 0.0 0.0
0.0 0.0 0.0
0.0 0.0 0.0
0.0 0.0 0.0
0.0 0.0 0.0
0.0 0.0 0.0
0.0 0.0 0.0
0.0 0.0 0.0
0.0 0.0 0.0
0.0 0.0 0.0
0.0 0.0 0.0
0.0 0.0 0.0
0.0 0.0 0.0
0.0 0.0 0.0
0.0 0.0 0.0
0.0 0.0 0.0
0.0 0.0 0.0
0.0 0.0 0.0
0.0 0.0 0.0
0.0 0.0 0.0
0.0 0.0 0.0
0.0 0.0 0.0
0.0 0.0 0.0
0.0 0.0 0.0
0.0 0.0 0.0
0.0 0.0 0.0
0.0 0.0 0.0
0.0 0.0 0.0
0.0 0.0 0.0
0.0 0.0 0.0
0.0 0.0 0.0
0.0 0.0 0.0
0.0 0.0 0.0
0.0 0.0 0.0
0.0 0.0 0.0
0.0 0.0 0.0
0.0 0.0 0.0
0.0 0.0 0.0
0.0 0.0 0.0
0.0 0.0 0.0
0.0 0.0 0.0
0.0 0.0 0.0
0.0 0.0 0.0
0.0 0.0 0.0
0.0 0.0 0.0
0.0 0.0 0.0
0.0 0.0 0.0
0.0 0.0 0.0
0.0 0.0 0.0
0.0 0.0 0.0
0.0 0.0 0.0
0.0 0.0 0.0
0.0 0.0 0.0
0.0 0.0 0.0
0.0 0.0 0.0
0.0 0.0 0.0
0.0 0.0 0.0
0.0 0.0 0.0
0.0 0.0 0.0
0.0 0.0 0.0
0.0 0.0 0.0
0.0 0.0 0.0
0.0 0.0 0.0
0.0 0.0 0.0
0.0 0.0 0.0
0.0 0.0 0.0
0.0 0.0 0.0
0.0 0.0 0.0
0.0 0.0 0.0
0.0 0.0 0.0
0.0 0.0 0.0
0.0 0.0 0.0
0.0 0.0 0.0
0.0 0.0 0.0
0.0 0.0 0.0
0.0 0.0 0.0
0.0 0.0 0.0
0.0 0.0 0.0
0.0 0.0 0.0
0.0 0.0 0.0
VECTORS f float
6.243 132.807 -4.31219
-72.1465 -40.3325 -212.017
0.0 0.0 -6.57473
0.0 0.0 -6.57473
0.0 0.0 -6.57473
-0.451874 9.38362 181.315
-2.48343 -0.44932 43.9003
0.0 0.0 -6.57473
0.0 0.0 -6.57473
6.1871 14.3197 305.408
0.0 0.0 -6.57473
-650.181 -96.1158 -81.5753
0.0 0.0 -6.57473
-9.46257 5.56799 -25.2104
99.5928 -93.6596 185.086
-137.66 219.695 -524.001
-89.7942 -273.039 53.6005
-54.5835 261.447 103.132
-185.022 91.965 -178.856
4.37636 -169.101 212.517
0.0 0.0 -6.57473
89.7942 273.039 -66.75
0.0 0.0 -6.57473
0.300467 6.83326 130.223
0.0 0.0 -6.57473
339.998 155.766 -313.684
-335.116 86.0012 -446.352
8.16952 -8.7418 232.724
0.0 0.0 -6.57473
0.0 0.0 -6.57473
0.0 0.0 -6.57473
0.0 0.0 -6.57473
-31.5754 9.62664 653.63
-237.32 -48.2406 -202.883
0.0 0.0 -6.57473
0.0 0.0 -6.57473
0.0 0.0 -6.57473
0.0 0.0 -6.57473
-0.088308 -7.16844 136.805
1.91557 -7.04026 139.349
0.0 0.0 -6.57473
0.0 0.0 -6.57473
11.6325 -25.2112 548.734
2.80884 3.12324 -21.0184
3.91384 107.342 -10.2473
-16.2576 406.538 -18.7761
0.0 0.0 -6.57473
72.1465 40.3325 198.868
0.0 0.0 -6.57473
0.0 0.0 -6.57473
0.0 0.0 -6.57473
-155.472 -97.8368 146.185
155.472 97.8368 -159.335
0.0 0.0 -6.57473
0.0 0.0 -6.57473
0.0 0.0 -6.57473
-23.9371 -24.3971 677.006
705.412 -165.133 -27.7323
48.1125 15.1145 407.826
0.0 0.0 -6.57473
-80.7794 -50.9655 -30.0249
-64.0494 83.5355 -311.942
0.0 0.0 -6.57473
-2.09858 -5.02001 102.245
0.0 0.0 -6.57473
0.0 0.0 -6.57473
0.0 0.0 -6.57473
0.0 0.0 -6.57473
0.0 0.0 -6.57473
0.0 0.0 -6.57473
0.0 0.0 -6.57473
15.2503 -3.91104 308.302
0.0 0.0 -6.57473
0.0 0.0 -6.57473
0.0 0.0 -6.57473
397.167 258.584 -451.234
0.0 0.0 -6.57473
5.75817 19.6303 402.573
0.0 0.0 -6.57473
0.0 0.0 -6.57473
-12.7961 296.77 -369.709
0.0 0.0 -6.57473
-296.969 -110.718 202.858
0.0 0.0 -6.57473
0.0 0.0 -6.57473
0.524512 20.9063 411.684
0.0 0.0 -6.57473
0.0 0.0 -6.57473
25.2479 -1.44645 499.211
0.0 0.0 -6.57473
296.969 110.718 -216.007
0.0 0.0 -6.57473
3.38899 -15.5399 311.528
0.0 0.0 -6.57473
0.0 0.0 -6.57473
0.0 0.0 -6.57473
0.0 0.0 -6.57473
0.0 0.0 -6.57473
0.0 0.0 -6.57473
0.0 0.0 -6.57473
0.0 0.0 -6.57473
-167.651 -234.222 -72.2841
-146.293 -260.761 -183.392
0.0 0.0 -6.57473
0.0 0.0 -6.57473
0.0 0.0 -6.57473
0.0 0.0 -6.57473
0.0 0.0 -6.57473
0.0 0.0 -6.57473
0.0 0.0 -6.57473
-1.82803 1.75584 -6.11507
-39.8634 1.31595 829.055
38.3967 -56.3563 -35.9948
-38.3967 56.3563 22.8454
-40.1839 280.32 -134.491
0.0 0.0 -6.57473
0.0 0.0 -6.57473
0.0 0.0 -6.57473
0.0 0.0 -6.57473
0.0 0.0 -6.57473
0.0 0.0 -6.57473
0.0 0.0 -6.57473
-2.80884 -3.12324 7.8689
0.0 0.0 -6.57473
0.0 0.0 -6.57473
0.0 0.0 -6.57473
0.0 0.0 -6.57473
0.0 0.0 -6.57473
0.0 0.0 -6.57473
0.0 0.0 -6.57473
0.0 0.0 -6.57473
0.0 0.0 -6.57473
-16.131 -222.294 -42.4535
0.0 0.0 -6.57473
0.0 0.0 -6.57473
0.0 0.0 -6.57473
0.0 0.0 -6.57473
-24.1219 -5.5341 17.4395
0.0 0.0 -6.57473
1.25746 31.0612 615.158
47.4992 -117.815 569.427
0.0 0.0 -6.57473
0.0 0.0 -6.57473
0.0 0.0 -6.57473
0.0 0.0 -6.57473
0.0 0.0 -6.57473
0.0 0.0 -6.57473
0.0 0.0 -6.57473
80.7794 50.9655 16.8754
189.264 -90.3175 256.729
0.0 0.0 -6.57473
-339.998 -155.766 300.535
0.0 0.0 -6.57473
0.0 0.0 -6.57473
0.0 0.0 -6.57473
0.0 0.0 -6.57473
-42.5032 176.077 935.171
0.0 0.0 -6.57473
0.0 0.0 -6.57473
335.116 -86.0012 433.202
0.0 0.0 -6.57473
0.0 0.0 -6.57473
0.0 0.0 -6.57473
0.0 0.0 -6.57473
-54.3049 -8.93762 1094.14
0.0 0.0 -6.57473
0.0 0.0 -6.57473
0.0 0.0 -6.57473
0.0 0.0 -6.57473
0.0 0.0 -6.57473
0.0 0.0 -6.57473
0.0 0.0 -6.57473
237.32 48.2406 189.734
207.469 223.788 318.376
-40.7643 -27.3558 -29.9038
0.0 0.0 -6.57473
0.0 0.0 -6.57473
0.0 0.0 -6.57473
0.0 0.0 -6.57473
0.0 0.0 -6.57473
0.0 0.0 -6.57473
0.0 0.0 -6.57473
0.0 0.0 -6.57473
0.0 0.0 -6.57473
-1.32833 79.5649 -2.8248
0.0 0.0 -6.57473
0.0 0.0 -6.57473
0.0 0.0 -6.57473
0.0 0.0 -6.57473
0.0 0.0 -6.57473
0.0 0.0 -6.57473
0.0 0.0 -6.57473
24.8482 70.0443 -63.1906
0.0 0.0 -6.57473
0.0 0.0 -6.57473
0.0 0.0 -6.57473
0.0 0.0 -6.57473
0.0 0.0 -6.57473
0.0 0.0 -6.57473
0.0 0.0 -6.57473
0.0 0.0 -6.57473
0.0 0.0 -6.57473
0.0 0.0 -6.57473
64.0494 -83.5355 298.792
0.0 0.0 -6.57473
0.0 0.0 -6.57473
-57.8974 16.071 -97.4103
0.0 0.0 -6.57473
0.0 0.0 -6.57473
0.0 0.0 -6.57473
0.0 0.0 -6.57473
0.0 0.0 -6.57473
12.7961 -296.77 356.56
0.0 0.0 -6.57473
0.0 0.0 -6.57473
0.0 0.0 -6.57473
-397.167 -258.584 438.084
-18.8565 1.20225 -7.04714
18.8565 -1.20225 -6.10231
0.0 0.0 -6.57473
5.81596 20.0708 -39.0009
0.0 0.0 -6.57473
0.0 0.0 -6.57473
0.0 0.0 -6.57473
0.0 0.0 -6.57473
0.0 0.0 -6.57473
0.0 0.0 -6.57473
0.0 0.0 -6.57473
0.0 0.0 -6.57473
0.0 0.0 -6.57473
146.293 260.761 170.242
35.7363 -22.1557 -31.399
0.0 0.0 -6.57473
0.0 0.0 -6.57473
47.9788 -230.65 159.676
0.0 0.0 -6.57473
0.0 0.0 -6.57473
0.0 0.0 -6.57473
0.0 0.0 -6.57473
0.0 0.0 -6.57473
0.0 0.0 -6.57473
0.0 0.0 -6.57473
0.0 0.0 -6.57473
-24.8482 -70.0443 50.0411
-9.91164 458.449 14.094
0.0 0.0 -6.57473
0.0 0.0 -6.57473
0.0 0.0 -6.57473
0.0 0.0 -6.57473
0.0 0.0 -6.57473
0.0 0.0 -6.57473
0.0 0.0 -6.57473
0.0 0.0 -6.57473
16.131 222.294 29.304
0.0 0.0 -6.57473
0.0 0.0 -6.57473
0.0 0.0 -6.57473
0.0 0.0 -6.57473
0.0 0.0 -6.57473
57.8974 -16.071 84.2609
0.0 0.0 -6.57473
0.0 0.0 -6.57473
0.0 0.0 -6.57473
0.0 0.0 -6.57473
0.0 0.0 -6.57473
0.0 0.0 -6.57473
0.0 0.0 -6.57473
0.0 0.0 -6.57473
0.0 0.0 -6.57473
0.0 0.0 -6.57473
0.0 0.0 -6.57473
0.0 0.0 -6.57473
0.0 0.0 -6.57473
0.0 0.0 -6.57473
0.0 0.0 -6.57473
0.0 0.0 -6.57473
0.0 0.0 -6.57473
0.0 0.0 -6.57473
0.0 0.0 -6.57473
0.0 0.0 -6.57473
0.0 0.0 -6.57473
0.0 0.0 -6.57473
-35.7363 22.1557 18.2496
0.0 0.0 -6.57473
0.0 0.0 -6.57473
0.0 0.0 -6.57473
0.0 0.0 -6.57473
0.0 0.0 -6.57473
0.0 0.0 -6.57473
97.2314 -4.77883 -5.68161
0.0 0.0 -6.57473
0.0 0.0 -6.57473
-79.3397 -252.071 -362.938
0.0 0.0 -6.57473
0.0 0.0 -6.57473
0.0 0.0 -6.57473
0.0 0.0 -6.57473
0.0 0.0 -6.57473
0.0 0.0 -6.57473
0.0 0.0 -6.57473
0.0 0.0 -6.57473
0.0 0.0 -6.57473
0.0 0.0 -6.57473
0.0 0.0 -6.57473
0.0 0.0 -6.57473
0.0 0.0 -6.57473
0.0 0.0 -6.57473
-5.81596 -20.0708 25.8515
0.0 0.0 -6.57473
0.0 0.0 -6.57473
0.0 0.0 -6.57473
0.0 0.0 -6.57473
0.0 0.0 -6.57473
0.0 0.0 -6.57473
0.0 0.0 -6.57473
0.0 0.0 -6.57473
0.0 0.0 -6.57473
0.0 0.0 -6.57473
0.0 0.0 -6.57473
0.0 0.0 -6.57473
0.0 0.0 -6.57473
0.0 0.0 -6.57473
0.0 0.0 -6.57473
0.0 0.0 -6.57473
0.0 0.0 -6.57473
0.0 0.0 -6.57473
0.0 0.0 -6.57473
0.0 0.0 -6.57473
0.0 0.0 -6.57473
0.0 0.0 -6.57473
0.0 0.0 -6.57473
0.0 0.0 -6.57473
0.0 0.0 -6.57473
0.0 0.0 -6.57473
0.0 0.0 -6.57473
0.0 0.0 -6.57473
0.0 0.0 -6.57473
0.0 0.0 -6.57473
0.0 0.0 -6.57473
0.0 0.0 -6.57473
0.0 0.0 -6.57473
0.0 0.0 -6.57473
0.0 0.0 -6.57473
0.0 0.0 -6.57473
0.0 0.0 -6.57473
0.0 0.0 -6.57473
1.80692 0.164655 -8.36325
0.0 0.0 -6.57473
0.0 0.0 -6.57473
-78.6977 -155.719 -201.816
0.0 0.0 -6.57473
0.0 0.0 -6.57473
0.0 0.0 -6.57473
0.0 0.0 -6.57473
0.0 0.0 -6.57473
0.0 0.0 -6.57473
0.0 0.0 -6.57473
0.0 0.0 -6.57473
0.0 0.0 -6.57473
-8.6593 -154.788 94.4497
0.0 0.0 -6.57473
8.6593 154.788 -107.599
-10.6067 -2.97213 -3.76371
10.6067 2.97213 -9.38574
23.2904 -586.639 11.2556
0.0 0.0 -6.57473
0.0 0.0 -6.57473
79.3397 252.071 349.788
0.0 0.0 -6.57473
0.0 0.0 -6.57473
0.0 0.0 -6.57473
110.853 -405.447 -36.1715
0.0 0.0 -6.57473
0.0 0.0 -6.57473
0.0 0.0 -6.57473
-1.80692 -0.164655 -4.7862
0.0 0.0 -6.57473
0.0 0.0 -6.57473
-1.29732 -0.672985 -6.56601
0.0 0.0 -6.57473
0.0 0.0 -6.57473
-83.3053 30.7374 48.657
0.0 0.0 -6.57473
1.29732 0.672985 -6.58344
0.0 0.0 -6.57473
0.0 0.0 -6.57473
0.0 0.0 -6.57473
0.0 0.0 -6.57473
0.0 0.0 -6.57473
0.0 0.0 -6.57473
0.0 0.0 -6.57473
0.0 0.0 -6.57473
0.0 0.0 -6.57473
0.0 0.0 -6.57473
0.0 0.0 -6.57473
0.0 0.0 -6.57473
0.0 0.0 -6.57473
0.0 0.0 -6.57473
0.0 0.0 -6.57473
0.0 0.0 -6.57473
0.0 0.0 -6.57473
0.0 0.0 -6.57473
0.0 0.0 -6.57473
0.0 0.0 -6.57473
0.0 0.0 -6.57473
0.0 0.0 -6.57473
0.0 0.0 -6.57473
145.007 85.8397 -7.85262
0.0 0.0 -6.57473
-96.7554 -2.70187 -46.6479
0.0 0.0 -6.57473
0.0 0.0 -6.57473
0.0 0.0 -6.57473
0.0 0.0 -6.57473
0.0 0.0 -6.57473
0.0 0.0 -6.57473
0.0 0.0 -6.57473
0.0 0.0 -6.57473
0.0 0.0 -6.57473