# vtk DataFile Version 2.0
Generated by lpp.py
ASCII
DATASET POLYDATA
POINTS 443 float
-0.466776 -0.846797 -0.757516
0.327041 -0.78197 -0.722245
-0.865197 -0.557036 -0.830234
0.131655 -0.460382 -0.732267
0.284343 -0.319761 -0.628192
-0.774385 -0.303214 -0.781779
0.0698071 -0.755912 -0.676849
0.11392 -0.733025 -0.878634
0.272941 -0.622906 -0.601499
-0.292249 -0.0747699 -0.889393
-0.913224 -0.656179 -0.95326
-0.126828 -0.418365 -0.945668
0.736465 -0.370092 -0.98158
-0.628386 -0.280766 -0.961294
0.615121 -0.280023 -0.976849
0.441481 -0.0240753 -0.949797
-0.216284 -0.543309 -0.439477
-0.783216 -0.971644 -0.869647
0.00150328 -0.483178 -0.878327
-0.706253 -0.49429 -0.850289
-0.512766 -0.258227 -0.832609
0.0437209 -0.310862 -0.859412
-0.407887 -0.104457 -0.892181
0.919957 0.0252639 -0.829532
0.267205 -0.439452 -0.67714
0.38138 -0.202148 -0.77194
-0.171761 0.0539453 -0.79237
-0.620326 -0.70894 -0.314753
0.418685 -0.439773 -0.608786
-0.681969 -0.502702 -0.674539
-0.0923893 -0.444009 -0.641643
0.532959 -0.301921 -0.469807
0.623346 -0.324304 -0.30868
0.651118 -0.329326 -0.634476
0.164694 -0.342197 -0.780485
0.144889 -0.146028 -0.604966
0.816878 -0.214732 -0.646779
-0.213484 -0.101354 -0.738893
-0.898929 -0.399297 -0.534905
-0.818387 -0.366864 -0.52977
-0.732786 -0.343136 -0.557965
-0.372571 -0.363471 -0.535439
-0.023644 -0.37771 -0.515304
0.0775223 -0.386234 -0.559567
0.154099 -0.41228 -0.517403
0.621598 -0.472097 -0.620341
-0.883174 -0.316962 -0.573952
-0.650273 -0.328674 -0.524104
-0.530522 -0.309816 -0.615583
0.418277 -0.399201 -0.541596
-0.610704 -0.231083 -0.524469
-0.0309591 -0.281918 -0.595976
0.0391869 -0.225738 -0.519714
0.512431 -0.150484 -0.575003
0.624029 -0.185345 -0.603588
0.916447 -0.243138 -0.568363
0.780644 -0.0913227 -0.65232
-0.28931 -0.470086 -0.475851
-0.502767 -0.355777 -0.512489
0.805976 -0.341001 -0.462196
-0.704294 -0.302812 -0.466497
-0.00765111 -0.307027 -0.471713
0.522886 -0.489743 -0.444492
0.89841 -0.277116 -0.452516
0.388872 -0.28445 -0.299626
0.725126 -0.251452 -0.617121
-0.882617 -0.195832 -0.530648
0.791257 -0.192424 -0.497756
-0.336415 -0.221035 -0.622801
-0.211565 -0.0151992 -0.599054
0.875956 -0.00481865 -0.511545
0.511045 -0.590949 -0.40908
-0.0209375 -0.398372 -0.371957
0.0982563 -0.4134 -0.399753
-0.226209 -0.296102 -0.375159
-0.100913 -0.307028 -0.414134
0.257353 -0.337919 -0.424018
0.337843 -0.597191 -0.46718
-0.524424 -0.230404 -0.41592
-0.419269 -0.221451 -0.440418
0.788215 -0.208071 -0.412984
-0.8914 -0.158888 -0.379419
-0.638455 -0.232663 -0.446988
-0.0182463 -0.214629 -0.423729
0.558878 -0.186584 -0.508187
0.716465 -0.167067 -0.391337
-0.618576 -0.0993577 -0.481419
0.0527157 -0.136206 -0.469688
0.239713 -0.20626 -0.550657
0.950003 -0.173691 -0.411446
-0.898413 -0.0419727 -0.410591
-0.832145 -0.0293708 -0.370808
-0.459398 -0.0429435 -0.397581
-0.870212 0.146223 -0.401613
-0.960758 0.302518 -0.368447
0.68486 -0.303085 -0.102725
-0.422387 -0.478619 -0.307676
-0.730677 -0.395484 -0.331089
-0.285958 -0.352851 -0.31137
0.260325 -0.380337 -0.307274
0.423473 -0.467632 -0.316037
0.556195 -0.394608 -0.362691
0.675519 -0.425989 -0.340801
0.893682 -0.395474 -0.318946
0.0735229 -0.305171 -0.335658
0.321169 -0.316114 -0.341336
0.732174 -0.271412 -0.345042
-0.800158 -0.200673 -0.352084
-0.8565 -0.262885 -0.288432
-0.725622 -0.236859 -0.286977
-0.23775 -0.236592 -0.315901
-0.0903123 -0.212791 -0.333933
0.829343 -0.353848 -0.355825
-0.67642 -0.18653 -0.331695
0.823739 -0.198233 -0.314873
-0.373149 -0.177133 -0.358706
-0.239781 -0.140546 -0.324921
0.117248 -0.123489 -0.365776
-0.732616 -0.0360797 -0.453708
0.468969 -0.1062 -0.413572
-0.879158 0.0816051 -0.330208
-0.498157 -0.485524 -0.236816
-0.865511 -0.377988 -0.245547
-0.655278 -0.384664 -0.210881
-0.149027 -0.399995 -0.279679
-0.0875053 -0.348739 -0.214565
0.133823 -0.374184 -0.250811
0.571107 -0.437108 -0.236692
-0.772972 -0.327848 -0.248194
-0.625387 -0.303859 -0.260955
-0.531515 -0.311532 -0.276309
-0.268105 -0.28813 -0.251792
0.0429917 -0.342544 -0.240213
0.176906 -0.279811 -0.278404
0.522658 -0.284114 -0.284634
0.851454 -0.334231 -0.226399
-0.401102 -0.269188 -0.280163
0.821526 -0.226516 -0.225466
0.906168 -0.219044 -0.213633
-0.593149 -0.166775 -0.291885
-0.505986 -0.236847 -0.265894
0.123109 -0.153765 -0.237941
-0.701707 -0.147251 -0.246863
-0.131972 -0.0827387 -0.221415
0.293187 -0.107301 -0.250822
0.545392 -0.15899 -0.238653
-0.777406 -0.120388 -0.347061
-0.260015 -0.0668742 -0.251351
0.739149 -0.0531864 -0.302862
0.898821 -0.0225533 -0.219787
-0.919289 0.144625 -0.257732
-0.905568 0.279247 -0.204665
0.380205 -0.548507 -0.196904
0.298296 -0.458293 -0.123956
0.611856 -0.484393 -0.139687
-0.335265 -0.343703 -0.139577
-0.244875 -0.363587 -0.157292
0.0480356 -0.384671 -0.157045
0.158484 -0.35256 -0.159168
0.357579 -0.353159 -0.165961
0.472078 -0.415729 -0.155143
0.810691 -0.318824 -0.153544
-0.845047 -0.312949 -0.126218
-0.170539 -0.291904 -0.18126
-0.0232441 -0.314553 -0.176219
0.639177 -0.307387 -0.204633
-0.896017 -0.250418 -0.127556
-0.77286 -0.27215 -0.123578
-0.45417 -0.252734 -0.135008
-0.31925 -0.263549 -0.12889
-0.125978 -0.227597 -0.120532
-0.00777309 -0.226507 -0.200392
0.153603 -0.236441 -0.195493
0.235709 -0.232554 -0.185887
0.520056 -0.26495 -0.16859
-0.862807 -0.176745 -0.122615
-0.781192 -0.133942 -0.165421
-0.714615 -0.188812 -0.127932
-0.398956 -0.196431 -0.152204
-0.298541 -0.194904 -0.168347
-0.199978 -0.192419 -0.20186
-0.121201 -0.158672 -0.175451
-0.0433705 -0.151761 -0.18081
0.755881 -0.136839 -0.201402
-0.853585 -0.0900511 -0.190774
0.85966 -0.146932 -0.169247
-0.961231 -0.0325438 -0.206229
-0.206168 -0.0313974 -0.156808
-0.126258 -0.0195106 -0.128994
0.808253 -0.0117025 -0.193403
-0.809178 0.15452 -0.162553
0.625535 0.196721 -0.0656647
-0.898416 0.235524 -0.122614
-0.57907 0.235425 -0.0670386
-0.195579 0.249674 -0.0669652
0.370267 0.25904 -0.0683241
-0.420655 0.3248 -0.0664141
0.836651 0.324592 -0.0517769
-0.598254 0.409875 -0.0673318
0.204556 0.421964 -0.0465491
-0.561223 0.524786 -0.0500867
-0.681584 -0.484882 -0.0888605
-0.887684 -0.399727 -0.0721116
-0.751345 -0.382282 -0.0655354
-0.398985 -0.438615 -0.109465
-0.148809 -0.369787 -0.0847559
-0.0283231 -0.367269 -0.0886425
0.121385 -0.3545 -0.0599234
0.279089 -0.346428 -0.0930744
0.514661 -0.395084 -0.0497238
0.699555 -0.424101 0.0115299
0.86059 -0.383814 -0.111515
-0.620228 -0.291153 -0.0811184
-0.442777 -0.333647 -0.0950292
0.758772 -0.309308 -0.0692617
-0.687333 -0.254744 -0.0449032
-0.504206 -0.27993 -0.0232404
-0.22668 -0.299129 -0.0493203
-0.0463803 -0.223434 -0.109187
0.126575 -0.263277 -0.0923661
0.33193 -0.249408 -0.101467
0.875069 -0.231731 -0.06235
-0.626286 -0.198239 -0.0709834
-0.247524 -0.151234 -0.059829
-0.00337422 -0.155347 -0.0293442
0.0744229 -0.188514 -0.0867499
0.457502 -0.161132 -0.116937
0.688179 -0.173465 -0.0500387
0.813588 -0.183941 -0.103394
-0.633469 -0.115381 -0.0760728
-0.552365 -0.150799 -0.0699242
-0.294461 -0.0800931 -0.0902844
0.133101 -0.107041 -0.108327
0.360316 -0.120699 -0.0515064
0.766985 -0.112233 -0.10215
0.0401038 -0.177572 -0.21623
0.0865866 -0.056054 -0.0481037
0.348659 -0.0644069 -0.167305
0.442121 -0.0781336 -0.141684
-0.888752 0.0737345 -0.109526
-0.815675 0.140487 -0.0417489
-0.703607 0.128699 -0.0229798
-0.620359 0.1336 -0.0287253
-0.48989 0.145039 -0.0317238
0.488137 0.124292 -0.0189418
0.87437 0.133721 -0.0181864
-0.89414 0.146839 -0.05527
-0.745257 0.193729 -0.0692017
-0.405969 0.180643 -0.066564
-0.354853 0.13201 -0.0126426
-0.192488 0.170278 -0.0380601
-0.02427 0.166595 -0.056278
0.160854 0.148039 -0.0371462
0.281907 0.168308 -0.0587876
0.379791 0.169576 -0.0664361
0.514411 0.189732 -0.0629134
0.792632 0.159507 -0.0521285
0.961057 0.182087 -0.0380341
-0.665905 0.216548 -0.0567739
-0.470671 0.23138 -0.0691594
-0.351988 0.252926 -0.0694892
-0.0883077 0.21181 -0.000557559
-0.123 0.286129 -0.0455187
-0.0439436 0.243441 -0.0664698
0.0466283 0.203627 -0.0581915
0.130079 0.221592 -0.0573997
0.223714 0.23824 -0.0585228
0.311547 0.217157 -0.00276905
0.43611 0.215332 -0.0336128
0.618912 0.271938 -0.0211118
0.713656 0.229362 -0.0591365
0.834955 0.224537 -0.0540546
0.911255 0.237845 -0.0687849
-0.795344 0.302599 -0.0653133
-0.667764 0.326536 -0.0439664
-0.500627 0.304879 -0.0681186
-0.224104 0.328435 -0.0596963
-0.060341 0.337192 -0.0605398
0.0322041 0.309066 -0.0565447
0.108518 0.293432 -0.0250312
0.290592 0.292334 -0.0564361
0.463352 0.292518 -0.0623219
0.541588 0.281363 -0.0664005
0.750896 0.304885 -0.0460819
0.930243 0.336576 -0.0543431
-0.855876 0.398237 -0.0898978
-0.741155 0.387178 -0.0660651
-0.390228 0.402398 -0.0672143
-0.286998 0.378372 -0.0100318
-0.211569 0.405535 -0.0356902
3.05211e-05 0.416158 -0.0665141
0.136903 0.360621 -0.0621061
0.40075 0.371883 -0.0516474
0.50518 0.370336 -0.0588585
0.583317 0.416092 -0.0616193
0.675727 0.373256 -0.0680665
0.771924 0.379859 -0.0653213
0.875703 0.392644 -0.0360714
-0.467584 0.447664 -0.0690849
-0.327102 0.45294 -0.0675506
-0.105544 0.420274 -0.0560518
0.146776 0.474856 -0.0640795
0.241914 0.508321 -0.0513445
0.290976 0.417763 -0.067368
0.323055 0.493885 -0.0501551
0.497822 0.439248 -0.0103195
0.718993 0.444893 -0.044777
0.805933 0.468557 -0.0662167
0.905361 0.475484 -0.0512087
-0.737016 0.506444 -0.0491519
-0.176405 0.532448 -0.0419347
0.040765 0.525618 -0.0516506
0.458098 0.52918 -0.0502176
0.630976 0.490355 -0.0323033
-0.393445 -0.356236 0.0897912
0.593279 -0.31389 -0.000598538
0.429734 -0.280494 0.048209
-0.330588 -0.218989 -0.00126432
0.585477 -0.172113 -0.00496615
0.240599 -0.144275 -0.0047484
0.880321 -0.122808 0.0228198
-0.574027 0.191779 9.36299e-05
-0.400439 0.221422 0.00497298
-0.323318 0.292075 0.0601366
0.1417 0.227274 0.0514705
0.496728 0.282592 0.00421071
0.606696 0.292073 0.0935912
-0.665652 0.318468 0.0481941
-0.47818 0.349602 0.0316722
0.18028 0.357646 0.0415267
0.411967 0.310783 -0.00180852
0.736016 0.289761 0.0456012
0.00684615 0.351498 0.00951054
-0.696343 0.470905 0.00932995
0.546676 0.543279 0.0319386
0.633254 -0.442622 0.112897
0.686912 0.261933 0.101762
0.875045 0.422259 0.0718038
-0.599803 0.475531 0.0863027
0.59577 0.355926 0.137532
-0.200641 0.441105 0.238628
-0.787937 0.606445 0.18439
0.801055 0.488545 0.2383
0.290462 0.954221 0.19704
-0.0967678 0.272016 0.444803
-0.38814 0.748316 0.0735187
-0.635564 0.219221 0.514269
-0.126016 0.575897 0.701409
0.534812 0.575261 0.458133
-0.042304 0.948948 0.775718
-0.722003 0.903019 0.683899
0.114384 0.15746 0.66228
0.480099 0.314773 0.708498
0.428765 0.679618 0.756096
0.547087 -0.0261489 -0.0988779
0.756623 -0.21905 -0.0113262
-0.0681191 -0.034769 -0.0459632
0.38465 -0.0458078 -0.063585
0.0151448 0.0110934 -0.092364
0.319299 0.256204 0.183047
0.292619 -0.209168 -0.0178128
-0.35364 -0.0118042 -0.0109127
-0.777226 -0.190951 -0.0225137
0.874457 0.000267626 -0.0395052
-0.88545 0.288039 -0.00881471
-0.134843 -0.282789 -0.0372378
0.710639 -0.103779 0.000227679
-0.42947 -0.0475646 -0.0170366
0.413018 -0.17444 -0.00768897
0.522885 -0.0670339 -0.0247166
0.806076 -0.389269 -0.0135721
-0.836796 -0.281055 -0.0197999
-0.738086 -0.0321276 -0.173942
0.560079 0.231877 0.0125749
-0.254947 -0.394035 -0.0470693
0.659774 -0.0464568 -0.139943
0.791883 -0.0086726 -0.0270927
-0.259682 0.231602 -0.0141366
-0.678237 -0.0849366 -0.173684
-0.125434 -0.167346 -0.0165197
-0.120695 0.268219 0.158782
0.0214725 -0.324089 -0.0320438
0.132681 -0.0362176 -0.229289
0.39975 -0.35428 -0.00683072
-0.545181 -0.383899 -0.019794
-0.704544 -0.161324 -0.00352265
-0.628362 -0.365338 -0.0179115
-0.39218 0.250162 0.180226
-0.522807 -0.00134788 -0.0662287
-0.859911 -0.144792 -0.00692758
0.156833 -0.183199 -0.0265296
-0.797247 -0.0883779 -0.0203134
-0.213878 -0.0187741 -0.0195225
-0.406352 -0.158063 -0.00773014
0.881698 -0.310098 -0.0353703
0.510932 -0.24865 -0.03242
0.679021 0.137285 -0.0291895
0.652485 -0.251 -0.034395
0.0792709 0.135926 -0.0067788
0.263484 0.370596 -0.00249701
0.208482 -0.0126342 -0.093275
-0.317162 -0.330353 -0.0150079
-0.790731 0.226875 -0.00655067
0.228815 -0.39949 -0.0373419
-0.13881 -0.07753 -0.0317558
-0.520844 0.399564 -0.0228696
0.228938 -0.286697 -0.0184903
-0.240318 0.249539 0.166156
0.607904 -0.0597134 -0.00936081
-0.481995 -0.187941 -0.0336633
-0.598382 0.296686 -0.00631753
-0.900761 -0.0641854 0.00118592
0.77391 0.218344 0.135347
0.500022 -0.145316 -0.0153869
-0.857373 -0.00408535 -0.078267
-0.491801 -0.0989277 -0.0406048
0.603444 -0.397994 -0.0448027
-0.753264 -0.29641 -0.0340709
-0.370541 0.307364 -0.00609078
0.037457 -0.400141 -0.0183219
-0.0594885 -0.29418 -0.0216049
-0.796656 0.360959 -0.0117778
0.420391 0.207567 0.0934035
0.793051 -0.0887261 -0.00928099
0.00588885 -0.242302 -0.0185214
0.674584 -0.32189 -0.00773546
-0.822885 -0.364528 -0.00678438
0.0732686 -0.162086 0.00601739
-0.0223118 0.270929 0.0128602
0.329702 -0.396415 -0.0245848
0.069253 0.402122 -0.0193805
0.161783 -0.0969763 -0.0207861
-0.577468 -0.0692907 -0.0187633
-0.0434217 0.230405 0.105386
-0.897298 -0.220389 -0.00796513
-0.527826 0.256148 -0.0104314
-0.46034 -0.408759 -0.00448211
0.674743 0.189856 0.183643
0.469797 -0.317924 -0.0410902
-0.125114 0.361627 -0.00821387
0.617097 0.351483 -0.00595888
-0.708704 -0.0718665 -0.0106471
0.329501 -0.303473 -0.00746045
VERTICES 443 886
1 0
1 1
1 2
1 3
1 4
1 5
1 6
1 7
1 8
1 9
1 10
1 11
1 12
1 13
1 14
1 15
1 16
1 17
1 18
1 19
1 20
1 21
1 22
1 23
1 24
1 25
1 26
1 27
1 28
1 29
1 30
1 31
1 32
1 33
1 34
1 35
1 36
1 37
1 38
1 39
1 40
1 41
1 42
1 43
1 44
1 45
1 46
1 47
1 48
1 49
1 50
1 51
1 52
1 53
1 54
1 55
1 56
1 57
1 58
1 59
1 60
1 61
1 62
1 63
1 64
1 65
1 66
1 67
1 68
1 69
1 70
1 71
1 72
1 73
1 74
1 75
1 76
1 77
1 78
1 79
1 80
1 81
1 82
1 83
1 84
1 85
1 86
1 87
1 88
1 89
1 90
1 91
1 92
1 93
1 94
1 95
1 96
1 97
1 98
1 99
1 100
1 101
1 102
1 103
1 104
1 105
1 106
1 107
1 108
1 109
1 110
1 111
1 112
1 113
1 114
1 115
1 116
1 117
1 118
1 119
1 120
1 121
1 122
1 123
1 124
1 125
1 126
1 127
1 128
1 129
1 130
1 131
1 132
1 133
1 134
1 135
1 136
1 137
1 138
1 139
1 140
1 141
1 142
1 143
1 144
1 145
1 146
1 147
1 148
1 149
1 150
1 151
1 152
1 153
1 154
1 155
1 156
1 157
1 158
1 159
1 160
1 161
1 162
1 163
1 164
1 165
1 166
1 167
1 168
1 169
1 170
1 171
1 172
1 173
1 174
1 175
1 176
1 177
1 178
1 179
1 180
1 181
1 182
1 183
1 184
1 185
1 186
1 187
1 188
1 189
1 190
1 191
1 192
1 193
1 194
1 195
1 196
1 197
1 198
1 199
1 200
1 201
1 202
1 203
1 204
1 205
1 206
1 207
1 208
1 209
1 210
1 211
1 212
1 213
1 214
1 215
1 216
1 217
1 218
1 219
1 220
1 221
1 222
1 223
1 224
1 225
1 226
1 227
1 228
1 229
1 230
1 231
1 232
1 233
1 234
1 235
1 236
1 237
1 238
1 239
1 240
1 241
1 242
1 243
1 244
1 245
1 246
1 247
1 248
1 249
1 250
1 251
1 252
1 253
1 254
1 255
1 256
1 257
1 258
1 259
1 260
1 261
1 262
1 263
1 264
1 265
1 266
1 267
1 268
1 269
1 270
1 271
1 272
1 273
1 274
1 275
1 276
1 277
1 278
1 279
1 280
1 281
1 282
1 283
1 284
1 285
1 286
1 287
1 288
1 289
1 290
1 291
1 292
1 293
1 294
1 295
1 296
1 297
1 298
1 299
1 300
1 301
1 302
1 303
1 304
1 305
1 306
1 307
1 308
1 309
1 310
1 311
1 312
1 313
1 314
1 315
1 316
1 317
1 318
1 319
1 320
1 321
1 322
1 323
1 324
1 325
1 326
1 327
1 328
1 329
1 330
1 331
1 332
1 333
1 334
1 335
1 336
1 337
1 338
1 339
1 340
1 341
1 342
1 343
1 344
1 345
1 346
1 347
1 348
1 349
1 350
1 351
1 352
1 353
1 354
1 355
1 356
1 357
1 358
1 359
1 360
1 361
1 362
1 363
1 364
1 365
1 366
1 367
1 368
1 369
1 370
1 371
1 372
1 373
1 374
1 375
1 376
1 377
1 378
1 379
1 380
1 381
1 382
1 383
1 384
1 385
1 386
1 387
1 388
1 389
1 390
1 391
1 392
1 393
1 394
1 395
1 396
1 397
1 398
1 399
1 400
1 401
1 402
1 403
1 404
1 405
1 406
1 407
1 408
1 409
1 410
1 411
1 412
1 413
1 414
1 415
1 416
1 417
1 418
1 419
1 420
1 421
1 422
1 423
1 424
1 425
1 426
1 427
1 428
1 429
1 430
1 431
1 432
1 433
1 434
1 435
1 436
1 437
1 438
1 439
1 440
1 441
1 442
POINT_DATA 443
VECTORS i float
0.0 0.0 0.0
0.0 0.0 0.0
0.0 0.0 0.0
0.0 0.0 0.0
0.0 0.0 0.0
0.0 0.0 0.0
0.0 0.0 0.0
0.0 0.0 0.0
0.0 0.0 0.0
0.0 0.0 0.0
0.0 0.0 0.0
0.0 0.0 0.0
0.0 0.0 0.0
0.0 0.0 0.0
0.0 0.0 0.0
0.0 0.0 0.0
0.0 0.0 0.0
0.0 0.0 0.0
0.0 0.0 0.0
0.0 0.0 0.0
0.0 0.0 0.0
0.0 0.0 0.0
0.0 0.0 0.0
0.0 0.0 0.0
0.0 0.0 0.0
0.0 0.0 0.0
0.0 0.0 0.0
0.0 0.0 0.0
0.0 0.0 0.0
0.0 0.0 0.0
0.0 0.0 0.0
0.0 0.0 0.0
0.0 0.0 0.0
0.0 0.0 0.0
0.0 0.0 0.0
0.0 0.0 0.0
0.0 0.0 0.0
0.0 0.0 0.0
0.0 0.0 0.0
0.0 0.0 0.0
0.0 0.0 0.0
0.0 0.0 0.0
0.0 0.0 0.0
0.0 0.0 0.0
0.0 0.0 0.0
0.0 0.0 0.0
0.0 0.0 0.0
0.0 0.0 0.0
0.0 0.0 0.0
0.0 0.0 0.0
0.0 0.0 0.0
0.0 0.0 0.0
0.0 0.0 0.0
0.0 0.0 0.0
0.0 0.0 0.0
0.0 0.0 0.0
0.0 0.0 0.0
0.0 0.0 0.0
0.0 0.0 0.0
0.0 0.0 0.0
0.0 0.0 0.0
0.0 0.0 0.0
0.0 0.0 0.0
0.0 0.0 0.0
0.0 0.0 0.0
0.0 0.0 0.0
0.0 0.0 0.0
0.0 0.0 0.0
0.0 0.0 0.0
0.0 0.0 0.0
0.0 0.0 0.0
0.0 0.0 0.0
0.0 0.0 0.0
0.0 0.0 0.0
0.0 0.0 0.0
0.0 0.0 0.0
0.0 0.0 0.0
0.0 0.0 0.0
0.0 0.0 0.0
0.0 0.0 0.0
0.0 0.0 0.0
0.0 0.0 0.0
0.0 0.0 0.0
0.0 0.0 0.0
0.0 0.0 0.0
0.0 0.0 0.0
0.0 0.0 0.0
0.0 0.0 0.0
0.0 0.0 0.0
0.0 0.0 0.0
0.0 0.0 0.0
0.0 0.0 0.0
0.0 0.0 0.0
0.0 0.0 0.0
0.0 0.0 0.0
0.0 0.0 0.0
0.0 0.0 0.0
0.0 0.0 0.0
0.0 0.0 0.0
0.0 0.0 0.0
0.0 0.0 0.0
0.0 0.0 0.0
0.0 0.0 0.0
0.0 0.0 0.0
0.0 0.0 0.0
0.0 0.0 0.0
0.0 0.0 0.0
0.0 0.0 0.0
0.0 0.0 0.0
0.0 0.0 0.0
0.0 0.0 0.0
0.0 0.0 0.0
0.0 0.0 0.0
0.0 0.0 0.0
0.0 0.0 0.0
0.0 0.0 0.0
0.0 0.0 0.0
0.0 0.0 0.0
0.0 0.0 0.0
0.0 0.0 0.0
0.0 0.0 0.0
0.0 0.0 0.0
0.0 0.0 0.0
0.0 0.0 0.0
0.0 0.0 0.0
0.0 0.0 0.0
0.0 0.0 0.0
0.0 0.0 0.0
0.0 0.0 0.0
0.0 0.0 0.0
0.0 0.0 0.0
0.0 0.0 0.0
0.0 0.0 0.0
0.0 0.0 0.0
0.0 0.0 0.0
0.0 0.0 0.0
0.0 0.0 0.0
0.0 0.0 0.0
0.0 0.0 0.0
0.0 0.0 0.0
0.0 0.0 0.0
0.0 0.0 0.0
0.0 0.0 0.0
0.0 0.0 0.0
0.0 0.0 0.0
0.0 0.0 0.0
0.0 0.0 0.0
0.0 0.0 0.0
0.0 0.0 0.0
0.0 0.0 0.0
0.0 0.0 0.0
0.0 0.0 0.0
0.0 0.0 0.0
0.0 0.0 0.0
0.0 0.0 0.0
0.0 0.0 0.0
0.0 0.0 0.0
0.0 0.0 0.0
0.0 0.0 0.0
0.0 0.0 0.0
0.0 0.0 0.0
0.0 0.0 0.0
0.0 0.0 0.0
0.0 0.0 0.0
0.0 0.0 0.0
0.0 0.0 0.0
0.0 0.0 0.0
0.0 0.0 0.0
0.0 0.0 0.0
0.0 0.0 0.0
0.0 0.0 0.0
0.0 0.0 0.0
0.0 0.0 0.0
0.0 0.0 0.0
0.0 0.0 0.0
0.0 0.0 0.0
0.0 0.0 0.0
0.0 0.0 0.0
0.0 0.0 0.0
0.0 0.0 0.0
0.0 0.0 0.0
0.0 0.0 0.0
0.0 0.0 0.0
0.0 0.0 0.0
0.0 0.0 0.0
0.0 0.0 0.0
0.0 0.0 0.0
0.0 0.0 0.0
0.0 0.0 0.0
0.0 0.0 0.0
0.0 0.0 0.0
0.0 0.0 0.0
0.0 0.0 0.0
0.0 0.0 0.0
0.0 0.0 0.0
0.0 0.0 0.0
0.0 0.0 0.0
0.0 0.0 0.0
0.0 0.0 0.0
0.0 0.0 0.0
0.0 0.0 0.0
0.0 0.0 0.0
0.0 0.0 0.0
0.0 0.0 0.0
0.0 0.0 0.0
0.0 0.0 0.0
0.0 0.0 0.0
0.0 0.0 0.0
0.0 0.0 0.0
0.0 0.0 0.0
0.0 0.0 0.0
0.0 0.0 0.0
0.0 0.0 0.0
0.0 0.0 0.0
0.0 0.0 0.0
0.0 0.0 0.0
0.0 0.0 0.0
0.0 0.0 0.0
0.0 0.0 0.0
0.0 0.0 0.0
0.0 0.0 0.0
0.0 0.0 0.0
0.0 0.0 0.0
0.0 0.0 0.0
0.0 0.0 0.0
0.0 0.0 0.0
0.0 0.0 0.0
0.0 0.0 0.0
0.0 0.0 0.0
0.0 0.0 0.0
0.0 0.0 0.0
0.0 0.0 0.0
0.0 0.0 0.0
0.0 0.0 0.0
0.0 0.0 0.0
0.0 0.0 0.0
0.0 0.0 0.0
0.0 0.0 0.0
0.0 0.0 0.0
0.0 0.0 0.0
0.0 0.0 0.0
0.0 0.0 0.0
0.0 0.0 0.0
0.0 0.0 0.0
0.0 0.0 0.0
0.0 0.0 0.0
0.0 0.0 0.0
0.0 0.0 0.0
0.0 0.0 0.0
0.0 0.0 0.0
0.0 0.0 0.0
0.0 0.0 0.0
0.0 0.0 0.0
0.0 0.0 0.0
0.0 0.0 0.0
0.0 0.0 0.0
0.0 0.0 0.0
0.0 0.0 0.0
0.0 0.0 0.0
0.0 0.0 0.0
0.0 0.0 0.0
0.0 0.0 0.0
0.0 0.0 0.0
0.0 0.0 0.0
0.0 0.0 0.0
0.0 0.0 0.0
0.0 0.0 0.0
0.0 0.0 0.0
0.0 0.0 0.0
0.0 0.0 0.0
0.0 0.0 0.0
0.0 0.0 0.0
0.0 0.0 0.0
0.0 0.0 0.0
0.0 0.0 0.0
0.0 0.0 0.0
0.0 0.0 0.0
0.0 0.0 0.0
0.0 0.0 0.0
0.0 0.0 0.0
0.0 0.0 0.0
0.0 0.0 0.0
0.0 0.0 0.0
0.0 0.0 0.0
0.0 0.0 0.0
0.0 0.0 0.0
0.0 0.0 0.0
0.0 0.0 0.0
0.0 0.0 0.0
0.0 0.0 0.0
0.0 0.0 0.0
0.0 0.0 0.0
0.0 0.0 0.0
0.0 0.0 0.0
0.0 0.0 0.0
0.0 0.0 0.0
0.0 0.0 0.0
0.0 0.0 0.0
0.0 0.0 0.0
0.0 0.0 0.0
0.0 0.0 0.0
0.0 0.0 0.0
0.0 0.0 0.0
0.0 0.0 0.0
0.0 0.0 0.0
0.0 0.0 0.0
0.0 0.0 0.0
0.0 0.0 0.0
0.0 0.0 0.0
0.0 0.0 0.0
0.0 0.0 0.0
0.0 0.0 0.0
0.0 0.0 0.0
0.0 0.0 0.0
0.0 0.0 0.0
0.0 0.0 0.0
0.0 0.0 0.0
0.0 0.0 0.0
0.0 0.0 0.0
0.0 0.0 0.0
0.0 0.0 0.0
0.0 0.0 0.0
0.0 0.0 0.0
0.0 0.0 0.0
0.0 0.0 0.0
0.0 0.0 0.0
0.0 0.0 0.0
0.0 0.0 0.0
0.0 0.0 0.0
0.0 0.0 0.0
0.0 0.0 0.0
0.0 0.0 0.0
0.0 0.0 0.0
0.0 0.0 0.0
0.0 0.0 0.0
0.0 0.0 0.0
0.0 0.0 0.0
0.0 0.0 0.0
0.0 0.0 0.0
0.0 0.0 0.0
0.0 0.0 0.0
0.0 0.0 0.0
0.0 0.0 0.0
0.0 0.0 0.0
0.0 0.0 0.0
0.0 0.0 0.0
0.0 0.0 0.0
0.0 0.0 0.0
0.0 0.0 0.0
0.0 0.0 0.0
0.0 0.0 0.0
0.0 0.0 0.0
0.0 0.0 0.0
0.0 0.0 0.0
0.0 0.0 0.0
0.0 0.0 0.0
0.0 0.0 0.0
0.0 0.0 0.0
0.0 0.0 0.0
0.0 0.0 0.0
0.0 0.0 0.0
0.0 0.0 0.0
0.0 0.0 0.0
0.0 0.0 0.0
0.0 0.0 0.0
0.0 0.0 0.0
0.0 0.0 0.0
0.0 0.0 0.0
0.0 0.0 0.0
0.0 0.0 0.0
0.0 0.0 0.0
0.0 0.0 0.0
0.0 0.0 0.0
0.0 0.0 0.0
0.0 0.0 0.0
0.0 0.0 0.0
0.0 0.0 0.0
0.0 0.0 0.0
0.0 0.0 0.0
0.0 0.0 0.0
0.0 0.0 0.0
0.0 0.0 0.0
0.0 0.0 0.0
0.0 0.0 0.0
0.0 0.0 0.0
0.0 0.0 0.0
0.0 0.0 0.0
0.0 0.0 0.0
0.0 0.0 0.0
0.0 0.0 0.0
0.0 0.0 0.0
0.0 0.0 0.0
0.0 0.0 0.0
0.0 0.0 0.0
0.0 0.0 0.0
0.0 0.0 0.0
0.0 0.0 0.0
0.0 0.0 0.0
0.0 0.0 0.0
0.0 0.0 0.0
0.0 0.0 0.0
0.0 0.0 0.0
0.0 0.0 0.0
0.0 0.0 0.0
0.0 0.0 0.0
0.0 0.0 0.0
0.0 0.0 0.0
0.0 0.0 0.0
0.0 0.0 0.0
0.0 0.0 0.0
0.0 0.0 0.0
0.0 0.0 0.0
0.0 0.0 0.0
0.0 0.0 0.0
0.0 0.0 0.0
0.0 0.0 0.0
0.0 0.0 0.0
0.0 0.0 0.0
0.0 0.0 0.0
0.0 0.0 0.0
0.0 0.0 0.0
0.0 0.0 0.0
0.0 0.0 0.0
0.0 0.0 0.0
0.0 0.0 0.0
0.0 0.0 0.0
0.0 0.0 0.0
0.0 0.0 0.0
0.0 0.0 0.0
0.0 0.0 0.0
0.0 0.0 0.0
0.0 0.0 0.0
0.0 0.0 0.0
0.0 0.0 0.0
0.0 0.0 0.0
0.0 0.0 0.0
0.0 0.0 0.0
0.0 0.0 0.0
0.0 0.0 0.0
0.0 0.0 0.0
0.0 0.0 0.0
0.0 0.0 0.0
0.0 0.0 0.0
VECTORS f float
0.0 0.0 -6.57473
0.0 0.0 -6.57473
0.0 0.0 -6.57473
0.0 0.0 -6.57473
0.0 0.0 -6.57473
0.0 0.0 -6.57473
0.0 0.0 -6.57473
0.0 0.0 -6.57473
0.0 0.0 -6.57473
0.0 0.0 -6.57473
0.0 0.0 -6.57473
0.0 0.0 -6.57473
-22.9856 54.5089 1176.57
6.0058 3.66423 134.132
16.9296 44.9793 954.622
0.0 0.0 -6.57473
0.0 0.0 -6.57473
17.6937 594.369 17.3024
0.0 0.0 -6.57473
0.0 0.0 -6.57473
0.0 0.0 -6.57473
0.0 0.0 -6.57473
0.0 0.0 -6.57473
0.0 0.0 -6.57473
0.0 0.0 -6.57473
0.0 0.0 -6.57473
0.0 0.0 -6.57473
0.0 0.0 -6.57473
2.16303 -33.633 -57.57
0.0 0.0 -6.57473
0.0 0.0 -6.57473
0.0 0.0 -6.57473
0.0 0.0 -6.57473
0.0 0.0 -6.57473
0.0 0.0 -6.57473
0.0 0.0 -6.57473
0.0 0.0 -6.57473
0.0 0.0 -6.57473
0.0 0.0 -6.57473
0.0 0.0 -6.57473
0.0 0.0 -6.57473
0.0 0.0 -6.57473
0.0 0.0 -6.57473
0.0 0.0 -6.57473
0.0 0.0 -6.57473
0.0 0.0 -6.57473
0.0 0.0 -6.57473
0.0 0.0 -6.57473
0.0 0.0 -6.57473
-2.16303 33.633 44.4206
0.0 0.0 -6.57473
0.0 0.0 -6.57473
0.0 0.0 -6.57473
0.0 0.0 -6.57473
0.0 0.0 -6.57473
0.0 0.0 -6.57473
0.0 0.0 -6.57473
0.0 0.0 -6.57473
0.0 0.0 -6.57473
0.0 0.0 -6.57473
0.0 0.0 -6.57473
0.0 0.0 -6.57473
0.0 0.0 -6.57473
0.0 0.0 -6.57473
0.0 0.0 -6.57473
0.0 0.0 -6.57473
0.0 0.0 -6.57473
0.0 0.0 -6.57473
0.0 0.0 -6.57473
0.0 0.0 -6.57473
0.0 0.0 -6.57473
0.0 0.0 -6.57473
0.0 0.0 -6.57473
0.0 0.0 -6.57473
0.0 0.0 -6.57473
0.0 0.0 -6.57473
0.0 0.0 -6.57473
0.0 0.0 -6.57473
0.0 0.0 -6.57473
0.0 0.0 -6.57473
0.0 0.0 -6.57473
0.0 0.0 -6.57473
0.0 0.0 -6.57473
0.0 0.0 -6.57473
0.0 0.0 -6.57473
0.0 0.0 -6.57473
0.0 0.0 -6.57473
0.0 0.0 -6.57473
0.0 0.0 -6.57473
0.0 0.0 -6.57473
-51.6823 -9.45432 -34.1467
51.6823 9.45432 20.9972
0.0 0.0 -6.57473
0.0 0.0 -6.57473
46.6335 -0.442549 -4.28543
0.0 0.0 -6.57473
0.0 0.0 -6.57473
0.0 0.0 -6.57473
0.0 0.0 -6.57473
0.0 0.0 -6.57473
0.0 0.0 -6.57473
0.0 0.0 -6.57473
0.0 0.0 -6.57473
0.0 0.0 -6.57473
0.0 0.0 -6.57473
0.0 0.0 -6.57473
0.0 0.0 -6.57473
0.0 0.0 -6.57473
0.0 0.0 -6.57473
0.0 0.0 -6.57473
0.0 0.0 -6.57473
0.0 0.0 -6.57473
0.0 0.0 -6.57473
0.0 0.0 -6.57473
0.0 0.0 -6.57473
0.0 0.0 -6.57473
0.0 0.0 -6.57473
0.0 0.0 -6.57473
0.0 0.0 -6.57473
0.0 0.0 -6.57473
0.0 0.0 -6.57473
0.0 0.0 -6.57473
0.0 0.0 -6.57473
0.0 0.0 -6.57473
0.0 0.0 -6.57473
0.0 0.0 -6.57473
0.0 0.0 -6.57473
0.0 0.0 -6.57473
0.0 0.0 -6.57473
0.0 0.0 -6.57473
-2.98786 -8.28502 -7.31714
0.0 0.0 -6.57473
0.0 0.0 -6.57473
0.0 0.0 -6.57473
0.0 0.0 -6.57473
0.0 0.0 -6.57473
0.0 0.0 -6.57473
0.0 0.0 -6.57473
0.0 0.0 -6.57473
0.0 0.0 -6.57473
2.98786 8.28502 -5.83231
0.0 0.0 -6.57473
0.0 0.0 -6.57473
0.0 0.0 -6.57473
0.0 0.0 -6.57473
0.0 0.0 -6.57473
0.0 0.0 -6.57473
0.0 0.0 -6.57473
0.0 0.0 -6.57473
0.0 0.0 -6.57473
0.0 0.0 -6.57473
0.0 0.0 -6.57473
0.0 0.0 -6.57473
0.0 0.0 -6.57473
0.0 0.0 -6.57473
0.0 0.0 -6.57473
0.0 0.0 -6.57473
0.0 0.0 -6.57473
0.0 0.0 -6.57473
0.0 0.0 -6.57473
0.0 0.0 -6.57473
0.0 0.0 -6.57473
0.0 0.0 -6.57473
0.0 0.0 -6.57473
0.0 0.0 -6.57473
0.0 0.0 -6.57473
0.0 0.0 -6.57473
0.0 0.0 -6.57473
0.0 0.0 -6.57473
0.0 0.0 -6.57473
0.0 0.0 -6.57473
-222.905 -244.718 57.6406
0.0 0.0 -6.57473
0.0 0.0 -6.57473
0.0 0.0 -6.57473
0.0 0.0 -6.57473
0.0 0.0 -6.57473
0.0 0.0 -6.57473
0.0 0.0 -6.57473
0.0 0.0 -6.57473
0.0 0.0 -6.57473
-54.7886 -7.37058 -2.09694
54.7886 7.37058 -11.0525
0.0 0.0 -6.57473
0.0 0.0 -6.57473
0.0 0.0 -6.57473
54.5035 0.228582 -3.85915
0.0 0.0 -6.57473
0.0 0.0 -6.57473
0.0 0.0 -6.57473
0.0 0.0 -6.57473
0.0 0.0 -6.57473
0.0 0.0 -6.57473
-22.6743 -11.0087 -31.6237
0.0 0.0 -6.57473
1.8619 -0.0677824 30.6879
0.0 0.0 -6.57473
0.0 0.0 -6.57473
0.0 0.0 -6.57473
0.0 0.0 -6.57473
3.63897 -51.9389 44.8753
0.0 0.0 -6.57473
0.0 0.0 -6.57473
0.0 0.0 -6.57473
0.0 0.0 -6.57473
0.0 0.0 -6.57473
0.0 0.0 -6.57473
0.0 0.0 -6.57473
0.0 0.0 -6.57473
0.0 0.0 -6.57473
0.0 0.0 -6.57473
0.0 0.0 -6.57473
0.0 0.0 -6.57473
0.0 0.0 -6.57473
0.0 0.0 -6.57473
41.7991 23.568 -13.4931
0.0 0.0 -6.57473
0.0 0.0 -6.57473
0.0 0.0 -6.57473
0.0 0.0 -6.57473
0.0 0.0 -6.57473
0.0 0.0 -6.57473
0.0 0.0 -6.57473
0.0 0.0 -6.57473
0.0 0.0 -6.57473
0.0 0.0 -6.57473
0.0 0.0 -6.57473
0.0 0.0 -6.57473
0.0 0.0 -6.57473
0.0 0.0 -6.57473
0.0 0.0 -6.57473
0.0 0.0 -6.57473
0.0 0.0 -6.57473
0.0386424 0.138308 -6.60094
0.0 0.0 -6.57473
222.905 244.718 -70.7901
0.0 0.0 -6.57473
0.0 0.0 -6.57473
0.0 0.0 -6.57473
0.0 0.0 -6.57473
-4.94579 13.5741 7.68857
0.0 0.0 -6.57473
-6.0486 1.31461 0.0273951
0.0 0.0 -6.57473
0.0 0.0 -6.57473
0.0 0.0 -6.57473
-2.61057 0.271669 -6.90607
4.56858 0.00232282 84.797
0.0 0.0 -6.57473
0.0 0.0 -6.57473
0.0 0.0 -6.57473
-0.394937 1.93008 -6.80335
0.0 0.0 -6.57473
0.0 0.0 -6.57473
-4.0849 52.4758 48.4137
0.0 0.0 -6.57473
-43.9857 -75.352 -5.43168
-59.6542 2.77774 -5.48812
0.0 0.0 -6.57473
13.1877 -19.8166 73.7629
5.42287 -0.316348 102.067
0.0 0.0 -6.57473
0.0 0.0 -6.57473
0.394937 -1.93008 -6.3461
0.0 0.0 -6.57473
0.0 0.0 -6.57473
0.0 0.0 -6.57473
0.0 0.0 -6.57473
8.24709 6.31785 -2.39743
37.4186 27.365 -26.3173
0.0 0.0 -6.57473
-2.8915 69.0878 -0.230028
50.2272 6.27897 52.9384
1.4746 -24.4606 -31.0133
0.0 0.0 -6.57473
-7.73592 19.5863 22.2206
0.0 0.0 -6.57473
0.0 0.0 -6.57473
0.0 0.0 -6.57473
0.0 0.0 -6.57473
0.0 0.0 -6.57473
-109.521 36.4927 -164.229
27.4692 -4.07678 -6.62839
0.0 0.0 -6.57473
0.0 0.0 -6.57473
0.0 0.0 -6.57473
0.0 0.0 -6.57473
0.0 0.0 -6.57473
0.0 0.0 -6.57473
0.0 0.0 -6.57473
0.0 0.0 -6.57473
0.0 0.0 -6.57473
-2.82055 13.0931 -18.3275
0.0 0.0 -6.57473
0.0 0.0 -6.57473
0.899687 -0.0496563 11.4464
0.0 0.0 -6.57473
0.0 0.0 -6.57473
3.7097 -0.330911 67.9138
0.0 0.0 -6.57473
16.4193 44.9667 -47.1822
0.0 0.0 -6.57473
0.0 0.0 -6.57473
0.0 0.0 -6.57473
0.0 0.0 -6.57473
0.0 0.0 -6.57473
0.0 0.0 -6.57473
0.0 0.0 -6.57473
0.0 0.0 -6.57473
-4.99848 4.53151 -14.6302
3.30726 -46.8364 40.156
8.12521 -115.18 108.202
12.156 -172.776 165.134
0.0 0.0 -6.57473
0.0 0.0 -6.57473
0.0 0.0 -6.57473
0.0 0.0 -6.57473
0.0 0.0 -6.57473
0.0 0.0 -6.57473
0.0 0.0 -6.57473
0.0 0.0 -6.57473
7.15571 9.6475 -2.80425
0.0 0.0 -6.57473
0.0 0.0 -6.57473
0.0 0.0 -6.57473
82.0517 -32.4159 151.134
5.61153 -44.4148 -39.2746
0.0 0.0 -6.57473
0.0 0.0 -6.57473
0.0 0.0 -6.57473
2.82055 -13.0931 5.17807
7.9352 5.09127 -15.3982
0.0 0.0 -6.57473
4.99848 -4.53151 1.48072
0.0 0.0 -6.57473
0.0 0.0 -6.57473
-7.9352 -5.09127 2.24874
0.0 0.0 -6.57473
0.0 0.0 -6.57473
-5.61153 44.4148 26.1252
0.0 0.0 -6.57473
0.0 0.0 -6.57473
0.0 0.0 -6.57473
0.0 0.0 -6.57473
0.0 0.0 -6.57473
0.0 0.0 -6.57473
0.0 0.0 -6.57473
0.0 0.0 -6.57473
0.0 0.0 -6.57473
0.0 0.0 -6.57473
0.0 0.0 -6.57473
0.0 0.0 -6.57473
0.0 0.0 -6.57473
0.0 0.0 -6.57473
0.0 0.0 -6.57473
0.0 0.0 -6.57473
0.0 0.0 -6.57473
-0.0386424 -0.138308 -6.54851
0.0 0.0 -6.57473
0.0 0.0 -6.57473
0.0 0.0 -6.57473
0.0 0.0 -6.57473
0.0 0.0 -6.57473
0.0 0.0 -6.57473
0.0 0.0 -6.57473
-80.9005 10.0963 -19.6759
0.0 0.0 -6.57473
0.0 0.0 -6.57473
0.0 0.0 -6.57473
0.0 0.0 -6.57473
0.0 0.0 -6.57473
0.0 0.0 -6.57473
-5.0982 4.07416 -6.66645
-37.4186 -27.365 13.1679
0.0 0.0 -6.57473
0.0 0.0 -6.57473
0.0 0.0 -6.57473
0.0 0.0 -6.57473
5.0982 -4.07416 -6.483
0.0 0.0 -6.57473
0.0 0.0 -6.57473
-7.18838 34.608 -11.0114
0.0 0.0 -6.57473
0.0 0.0 -6.57473
0.0 0.0 -6.57473
0.0 0.0 -6.57473
0.0 0.0 -6.57473
0.0 0.0 -6.57473
0.0 0.0 -6.57473
0.0 0.0 -6.57473
0.0 0.0 -6.57473
0.0 0.0 -6.57473
0.0 0.0 -6.57473
0.0 0.0 -6.57473
0.0 0.0 -6.57473
0.0 0.0 -6.57473
0.0 0.0 -6.57473
-11.4798 34.6202 -17.7674
0.0 0.0 -6.57473
0.0 0.0 -6.57473
0.0 0.0 -6.57473
0.0 0.0 -6.57473
0.0 0.0 -6.57473
0.0 0.0 -6.57473
0.0 0.0 -6.57473
0.0 0.0 -6.57473
0.0 0.0 -6.57473
0.0 0.0 -6.57473
0.0 0.0 -6.57473
0.0 0.0 -6.57473
0.0 0.0 -6.57473
0.0 0.0 -6.57473
0.0 0.0 -6.57473
0.0 0.0 -6.57473
0.0 0.0 -6.57473
0.0 0.0 -6.57473
0.0 0.0 -6.57473
-41.7991 -23.568 0.343601
0.0 0.0 -6.57473
7.18838 -34.608 -2.13806
80.9005 -10.0963 6.52646
-1.4746 24.4606 17.8638
0.0 0.0 -6.57473
0.0 0.0 -6.57473
0.0 0.0 -6.57473
11.4798 -34.6202 4.61791
0.0 0.0 -6.57473
0.0 0.0 -6.57473
0.0 0.0 -6.57473
0.0 0.0 -6.57473
0.0 0.0 -6.57473
0.0 0.0 -6.57473
0.0 0.0 -6.57473
0.0 0.0 -6.57473
0.0 0.0 -6.57473
22.3048 10.4664 18.5909
0.0 0.0 -6.57473
0.0 0.0 -6.57473
0.0 0.0 -6.57473
-16.4193 -44.9667 34.0328
0.0 0.0 -6.57473
0.0 0.0 -6.57473
0.0 0.0 -6.57473
VECTORS omega float
28.7524 -2.78429 -7.20249
31.8099 2.8727 -10.507
25.1174 0.893851 -6.10577
24.4009 9.87978 -17.0679
21.7121 39.7927 -5.24782
36.9595 -7.14748 -2.83359
57.9565 25.6733 -25.1183
21.8157 13.5103 -15.6213
32.181 3.05991 -13.0739
9.23193 21.7923 2.80934
3.0516 7.24955 -3.02406
3.75617 -1.69568 -5.19486
21.5829 -0.0445655 4.26665
-4.50555 2.09457 -3.68179
5.85242 4.59929 -6.63235
-5.5011 1.44887 -0.662921
35.1006 -14.3591 -3.08647
-20.1649 5.85967 -1.3691
-25.0194 5.91146 -17.2322
0.783245 17.4519 -12.4095
-11.3647 -18.1158 15.517
-9.74345 29.9626 -20.6897
-8.87458 10.6121 -10.5154
2.87361 -10.7039 2.71036
6.38223 -6.87369 -9.41747
-4.07093 7.76813 -3.95979
-21.4533 15.7461 -15.6656
54.2137 11.6873 -11.5188
1.82427 -0.269356 2.40364