# vtk DataFile Version 2.0
Generated by lpp.py
ASCII
DATASET POLYDATA
POINTS 928 float
-0.100837 -0.915847 -0.868838
0.797417 -0.813331 -0.89158
0.36499 -0.757077 -0.956916
-0.632615 -0.845629 -0.960396
-0.312444 -0.826926 -0.953239
0.180688 -0.833655 -0.894426
-0.0495413 -0.739488 -0.959443
0.65314 -0.54344 -0.959301
0.0892169 -0.722342 -0.947943
-0.596873 -0.67307 -0.921173
-0.0375863 -0.589402 -0.922124
0.449768 -0.460298 -0.931178
0.0122143 -0.431083 -0.890935
0.131337 -0.430947 -0.868358
0.260991 -0.434741 -0.853381
0.848868 -0.414753 -0.965924
0.911418 -0.377175 -0.951729
-0.261293 -0.347696 -0.942661
0.109544 -0.222844 -0.955862
-0.0914079 -0.213007 -0.852592
-0.348384 -0.219113 -0.938162
-0.82928 -0.143151 -0.894969
-0.681345 -0.128724 -0.930514
-0.369679 -0.0948248 -0.863365
0.0757071 -0.0457419 -0.826965
-0.843763 0.122261 -0.943819
-0.111262 0.0992387 -0.892689
0.115175 -0.0145193 -0.892835
0.228498 0.0316497 -0.836666
-0.578633 0.11957 -0.948352
-0.875422 0.215621 -0.83735
0.347657 0.524551 -0.893466
-0.0963119 0.897968 -0.927223
0.809241 0.861377 -0.89443
-0.801714 -0.878669 -0.924556
-0.699331 -0.953961 -0.82063
0.377432 -0.809873 -0.772087
-0.932865 -0.83229 -0.94209
-0.0145077 -0.813203 -0.963728
0.234198 -0.929556 -0.91736
0.695866 -0.732103 -0.737324
-0.388311 -0.841387 -0.88656
-0.169136 -0.892873 -0.886214
0.970817 -0.685468 -0.91991
-0.176856 -0.755518 -0.889916
-0.550317 -0.662473 -0.788375
0.00255363 -0.693351 -0.924799
0.379755 -0.747215 -0.857394
-0.40134 -0.545698 -0.922174
-0.104535 -0.655202 -0.918104
0.102584 -0.628764 -0.965799
-0.773186 -0.587838 -0.92969
-0.521699 -0.599005 -0.96283
-0.841503 -0.43876 -0.799427
-0.569562 -0.517647 -0.953284
-0.328023 -0.489947 -0.914454
-0.166875 -0.440065 -0.811314
0.439448 -0.533075 -0.805732
-0.842044 -0.309467 -0.947309
-0.590046 -0.442828 -0.870748
-0.430261 -0.389221 -0.93764
-0.36331 -0.383588 -0.921928
-0.0567272 -0.43006 -0.940582
0.382182 -0.475621 -0.961079
0.308716 -0.355299 -0.946106
-0.835034 -0.299022 -0.88444
-0.583338 -0.300555 -0.868064
0.00106063 -0.286189 -0.87421
0.300788 -0.236198 -0.938834
-0.604449 -0.22103 -0.883885
-0.484071 -0.0850614 -0.906115
0.578821 -0.196737 -0.956418
-0.316065 -0.0812904 -0.806193
0.243984 -0.0584929 -0.804663
0.790862 -0.0382561 -0.894342
-0.777123 0.103366 -0.934192
0.158016 0.107784 -0.772309
-0.94724 0.247998 -0.830457
-0.434952 0.243314 -0.815363
-0.168211 0.306766 -0.924504
-0.715786 0.31643 -0.853597
-0.0493341 0.358875 -0.924272
0.102092 0.275008 -0.888582
0.827386 0.295759 -0.892565
0.883374 0.348598 -0.961513
-0.407762 0.388402 -0.853072
-0.918451 0.371187 -0.946473
-0.715242 0.437336 -0.855103
-0.0229438 0.699459 -0.897747
-0.35196 0.83276 -0.807396
0.822155 -0.926655 -0.824478
-0.48229 -0.951748 -0.834836
-0.646231 -0.659568 -0.829499
-0.575214 -0.937341 -0.885407
-0.102621 -0.635452 -0.739497
-0.489555 -0.882364 -0.961232
-0.279183 -0.685965 -0.777075
0.118863 -0.701486 -0.841972
0.512619 -0.764382 -0.775828
0.895168 -0.768644 -0.709696
-0.770753 -0.679246 -0.956881
-0.374072 -0.715996 -0.904707
0.762434 -0.540187 -0.93528
0.219719 -0.506696 -0.737523
0.510189 -0.644819 -0.972403
-0.568402 -0.616195 -0.844522
0.0792585 -0.529575 -0.825782
0.043769 -0.355881 -0.954416
0.56542 -0.382024 -0.931969
-0.570871 -0.348733 -0.815869
-0.160481 -0.400286 -0.959916
0.1367 -0.371973 -0.784266
0.172411 -0.287174 -0.867877
0.504405 -0.382467 -0.97315
0.836175 -0.446631 -0.873334
-0.720403 -0.227006 -0.956259
-0.295413 -0.276547 -0.791058
-0.0690359 -0.327657 -0.955288
0.161609 -0.293321 -0.714424
0.885291 -0.313379 -0.910564
-0.934443 -0.169038 -0.927198
-0.0710595 -0.13591 -0.953173
0.11246 -0.0556487 -0.697266
0.796867 -0.168553 -0.847342
-0.467115 -0.126917 -0.833402
0.119444 -0.137183 -0.891649
0.539368 -0.106091 -0.97254
-0.692777 0.0196098 -0.92601
-0.135272 0.0552175 -0.789347
-0.0225219 -0.0235204 -0.845641
0.412286 -0.0409991 -0.632144
0.542196 0.0923028 -0.848926
0.469745 0.123542 -0.8192
0.654986 0.0968994 -0.73279
-0.903316 0.0149876 -0.840357
-0.829513 0.155269 -0.817032
-0.0560475 0.190603 -0.798501
-0.937653 0.451108 -0.848026
-0.00297015 0.440004 -0.695131
0.688792 0.555925 -0.840427
-0.286067 0.766837 -0.835151
0.383646 0.748378 -0.775622
-0.5974 -0.930109 -0.777112
-0.172576 -0.870401 -0.717018
-0.804128 -0.863812 -0.777534
-0.418104 -0.835275 -0.789715
0.333696 -0.758484 -0.787006
0.617613 -0.66401 -0.760716
0.837451 -0.644108 -0.857681
-0.489872 -0.659786 -0.74009
0.291392 -0.628795 -0.724027
0.49076 -0.707061 -0.714558
-0.682112 -0.438575 -0.892892
-0.55879 -0.531377 -0.841008
-0.0436459 -0.523359 -0.904989
-0.780745 -0.377659 -0.901317
-0.632934 -0.304171 -0.759421
-0.607893 -0.420516 -0.738342
-0.0509298 -0.346139 -0.842381
-0.895998 -0.354529 -0.82353
-0.423107 -0.308936 -0.766607
0.950149 -0.266556 -0.931422
-0.115202 -0.311053 -0.724288
0.525436 -0.254572 -0.939309
0.962515 -0.0836148 -0.811447
-0.509638 -0.159392 -0.709956
-0.56658 0.0133729 -0.808494
-0.0934438 -0.0683224 -0.8799
-0.676843 0.00927698 -0.809984
0.310473 0.168049 -0.919088
0.947753 0.145273 -0.677979
-0.626597 0.286087 -0.594763
-0.893988 0.488181 -0.739264
0.299725 0.488867 -0.633035
-0.827015 0.773153 -0.711265
-0.61651 -0.966111 -0.570143
-0.382588 -0.962574 -0.671835
0.876257 -0.687013 -0.63789
0.486896 -0.580824 -0.799342
0.794017 -0.630569 -0.583413
-0.810959 -0.546825 -0.66506
-0.302627 -0.784471 -0.719949
0.607725 -0.592602 -0.579698
-0.635367 -0.523234 -0.832462
-0.104874 -0.653624 -0.649093
0.293797 -0.561124 -0.660239
0.895293 -0.563844 -0.823351
0.783079 -0.485907 -0.843908
-0.930465 -0.423019 -0.75768
-0.365789 -0.423318 -0.845354
-0.17235 -0.22927 -0.853639
0.37953 -0.302514 -0.857301
0.907409 -0.299263 -0.684858
-0.892184 -0.182659 -0.844006
-0.455798 -0.238861 -0.885569
0.918952 -0.182147 -0.752036
-0.847663 -0.089695 -0.851491
-0.694198 0.0162681 -0.691259
-0.40127 0.0201463 -0.910776
0.712727 -0.0836741 -0.560594
0.459629 -0.0591848 -0.851704
0.83618 0.073303 -0.717468
0.546127 0.226297 -0.739677
-0.0174977 0.374298 -0.75307
0.0743199 -0.739381 -0.491218
0.518868 -0.943641 -0.72108
0.426178 -0.794338 -0.447393
0.924778 -0.939599 -0.669742
-0.64608 -0.879682 -0.593841
-0.418931 -0.906788 -0.504251
-0.554918 -0.818729 -0.515526
0.729721 -0.742344 -0.55697
-0.677244 -0.776281 -0.647116
0.0546392 -0.842059 -0.554726
0.0956374 -0.680041 -0.762603
0.7737 -0.519757 -0.554608
-0.682201 -0.653361 -0.662629
0.599259 -0.597004 -0.711661
-0.236524 -0.617676 -0.681112
-0.05254 -0.558851 -0.74587
-0.209469 -0.582062 -0.855154
-0.0559023 -0.424618 -0.801473
0.811789 -0.365136 -0.84621
0.195144 -0.386636 -0.739392
0.754332 -0.407498 -0.802297
-0.822386 -0.26545 -0.727251
0.651242 -0.337866 -0.784697
-0.921998 -0.257853 -0.807506
-0.35188 -0.195936 -0.806809
0.461144 -0.239308 -0.806177
-0.406352 -0.158063 -0.744909
-0.138853 -0.166426 -0.825072
0.822961 -0.227927 -0.666239
-0.0213853 -0.13546 -0.909041
-0.209075 0.0231571 -0.578376
0.856241 0.00245336 -0.678481
-0.816727 0.22645 -0.52751
0.35609 0.213117 -0.660254
-0.948562 0.283444 -0.748054
0.179312 0.461757 -0.556155
-0.583923 0.471723 -0.589408
0.849114 -0.881871 -0.553166
-0.808454 -0.853032 -0.617983
-0.20054 -0.67443 -0.460054
0.432638 -0.768751 -0.639839
0.663254 -0.790755 -0.658352
0.0873756 -0.52591 -0.567249
0.257459 -0.51763 -0.609756
0.536976 -0.497767 -0.674825
0.741441 -0.497673 -0.638399
0.847696 -0.51273 -0.656838
0.916405 -0.561111 -0.522582
-0.841035 -0.360268 -0.742468
-0.783048 -0.405365 -0.659033
-0.634726 -0.422599 -0.632916
0.626181 -0.307675 -0.565859
-0.592138 -0.292707 -0.376319
-0.418731 -0.352793 -0.705334
-0.878348 -0.13883 -0.724224
-0.211676 -0.163189 -0.780903
-0.00936588 0.0277925 -0.659289
0.296125 -0.023302 -0.693519
0.579404 -0.0280094 -0.6797
-0.898977 0.0392815 -0.691885
-0.734707 0.159828 -0.67154
-0.36608 0.202975 -0.555879
0.876134 0.600986 -0.577936
-0.578925 -0.847998 -0.434872
-0.246138 -0.921858 -0.485533
0.670703 -0.834943 -0.435358
0.849026 -0.727174 -0.520193
0.278383 -0.764695 -0.643324
0.902199 -0.66631 -0.43317
-0.877626 -0.53074 -0.603598
-0.425477 -0.624959 -0.685865
0.186074 -0.548197 -0.602335
-0.52877 -0.529813 -0.627348
-0.231114 -0.464855 -0.654162
0.197905 -0.412375 -0.559702
0.369991 -0.47878 -0.637413
-0.897643 -0.396818 -0.647687
0.0440808 -0.421256 -0.651362
0.823364 -0.317495 -0.618799
-0.381228 -0.272911 -0.609054
-0.21405 -0.287837 -0.707449
0.121884 -0.315313 -0.602668
0.277971 -0.328544 -0.589804
0.475653 -0.362952 -0.692878
-0.119246 -0.362911 -0.59305
0.0656785 -0.172765 -0.595372
0.231616 -0.187825 -0.539072
-0.521023 -0.0944546 -0.543743
0.489044 -0.231709 -0.635244
0.584018 -0.132135 -0.525539
0.881312 -0.198856 -0.582974
-0.321479 -0.134268 -0.651706
-0.0908413 -0.0590617 -0.472876
0.325331 -0.0922635 -0.651236
0.563519 -0.129838 -0.651511
0.613651 0.0299514 -0.738696
0.281413 0.0647466 -0.629897
-0.961754 0.258402 -0.605307
-0.938121 0.360226 -0.640413
0.486716 0.467559 -0.432217
-0.381279 0.63047 -0.47223
-0.899333 0.787071 -0.557721
0.215895 -0.918336 -0.55103
-0.356939 -0.74484 -0.473705
0.0893468 -0.872093 -0.48287
-0.187959 -0.481684 -0.513003
0.316725 -0.457154 -0.395863
0.733349 -0.524785 -0.270618
-0.737341 -0.42843 -0.552832
-0.546865 -0.452219 -0.577111
-0.301615 -0.438131 -0.573034
-0.447551 -0.351396 -0.572583
0.174135 -0.37151 -0.457782
0.468352 -0.414701 -0.530092
-0.23447 -0.353807 -0.587858
-0.941037 -0.269021 -0.591737
0.0193635 -0.255163 -0.498889
0.57412 -0.181672 -0.464331
0.953342 -0.282287 -0.561154
-0.753133 -0.137512 -0.5702
0.962403 -0.139434 -0.468565
-0.302433 -0.102346 -0.554902
-0.940991 0.0285136 -0.6036
-0.787067 -0.069679 -0.610173
-0.0384994 -0.0136328 -0.584988
0.1578 -0.0224555 -0.576626
0.731684 -0.00215591 -0.534982
0.371193 0.0075108 -0.605265
0.815771 0.274363 -0.312058
0.283883 0.428704 -0.393034
0.795454 -0.687298 -0.260556
0.288603 -0.621213 -0.243681
0.302643 -0.603035 -0.439172
-0.352489 -0.519206 -0.471472
[...]
POINT_DATA 928
VECTORS i float
0.0 0.0 0.0
0.0 0.0 0.0
0.0 0.0 0.0
0.0 0.0 0.0
0.0 0.0 0.0
0.0 0.0 0.0
0.0 0.0 0.0
0.0 0.0 0.0
0.0 0.0 0.0
0.0 0.0 0.0
0.0 0.0 0.0
0.0 0.0 0.0
0.0 0.0 0.0
0.0 0.0 0.0
0.0 0.0 0.0
0.0 0.0 0.0
0.0 0.0 0.0
0.0 0.0 0.0
0.0 0.0 0.0
0.0 0.0 0.0
0.0 0.0 0.0
0.0 0.0 0.0
0.0 0.0 0.0
0.0 0.0 0.0
0.0 0.0 0.0
0.0 0.0 0.0
0.0 0.0 0.0
0.0 0.0 0.0
0.0 0.0 0.0
0.0 0.0 0.0
0.0 0.0 0.0
0.0 0.0 0.0
0.0 0.0 0.0
0.0 0.0 0.0
0.0 0.0 0.0
0.0 0.0 0.0
0.0 0.0 0.0
0.0 0.0 0.0
0.0 0.0 0.0
0.0 0.0 0.0
0.0 0.0 0.0
0.0 0.0 0.0
0.0 0.0 0.0
0.0 0.0 0.0
0.0 0.0 0.0
0.0 0.0 0.0
0.0 0.0 0.0
0.0 0.0 0.0
0.0 0.0 0.0
0.0 0.0 0.0
0.0 0.0 0.0
0.0 0.0 0.0
0.0 0.0 0.0
0.0 0.0 0.0
0.0 0.0 0.0
0.0 0.0 0.0
0.0 0.0 0.0
0.0 0.0 0.0
0.0 0.0 0.0
0.0 0.0 0.0
0.0 0.0 0.0
0.0 0.0 0.0
0.0 0.0 0.0
0.0 0.0 0.0
0.0 0.0 0.0
0.0 0.0 0.0
0.0 0.0 0.0
0.0 0.0 0.0
0.0 0.0 0.0
0.0 0.0 0.0
0.0 0.0 0.0
0.0 0.0 0.0
0.0 0.0 0.0
0.0 0.0 0.0
0.0 0.0 0.0
0.0 0.0 0.0
0.0 0.0 0.0
0.0 0.0 0.0
0.0 0.0 0.0
0.0 0.0 0.0
0.0 0.0 0.0
0.0 0.0 0.0
0.0 0.0 0.0
0.0 0.0 0.0
0.0 0.0 0.0
0.0 0.0 0.0
0.0 0.0 0.0
0.0 0.0 0.0
0.0 0.0 0.0
0.0 0.0 0.0
0.0 0.0 0.0
0.0 0.0 0.0
0.0 0.0 0.0
0.0 0.0 0.0
0.0 0.0 0.0
0.0 0.0 0.0
0.0 0.0 0.0
0.0 0.0 0.0
0.0 0.0 0.0
0.0 0.0 0.0
0.0 0.0 0.0
0.0 0.0 0.0
0.0 0.0 0.0
0.0 0.0 0.0
0.0 0.0 0.0
0.0 0.0 0.0
0.0 0.0 0.0
0.0 0.0 0.0
0.0 0.0 0.0
0.0 0.0 0.0
0.0 0.0 0.0
0.0 0.0 0.0
0.0 0.0 0.0
0.0 0.0 0.0
0.0 0.0 0.0
0.0 0.0 0.0
0.0 0.0 0.0
0.0 0.0 0.0
0.0 0.0 0.0
0.0 0.0 0.0
0.0 0.0 0.0
0.0 0.0 0.0
0.0 0.0 0.0
0.0 0.0 0.0
0.0 0.0 0.0
0.0 0.0 0.0
0.0 0.0 0.0
0.0 0.0 0.0
0.0 0.0 0.0
0.0 0.0 0.0
0.0 0.0 0.0
0.0 0.0 0.0
0.0 0.0 0.0
0.0 0.0 0.0
0.0 0.0 0.0
0.0 0.0 0.0
0.0 0.0 0.0
0.0 0.0 0.0
0.0 0.0 0.0
0.0 0.0 0.0
0.0 0.0 0.0
0.0 0.0 0.0
0.0 0.0 0.0
0.0 0.0 0.0
0.0 0.0 0.0
0.0 0.0 0.0
0.0 0.0 0.0
0.0 0.0 0.0
0.0 0.0 0.0
0.0 0.0 0.0
0.0 0.0 0.0
0.0 0.0 0.0
0.0 0.0 0.0
0.0 0.0 0.0
0.0 0.0 0.0
0.0 0.0 0.0
0.0 0.0 0.0
0.0 0.0 0.0
0.0 0.0 0.0
0.0 0.0 0.0
0.0 0.0 0.0
0.0 0.0 0.0
0.0 0.0 0.0
0.0 0.0 0.0
0.0 0.0 0.0
0.0 0.0 0.0
0.0 0.0 0.0
0.0 0.0 0.0
0.0 0.0 0.0
0.0 0.0 0.0
0.0 0.0 0.0
0.0 0.0 0.0
0.0 0.0 0.0
0.0 0.0 0.0
0.0 0.0 0.0
0.0 0.0 0.0
0.0 0.0 0.0
0.0 0.0 0.0
0.0 0.0 0.0
0.0 0.0 0.0
0.0 0.0 0.0
0.0 0.0 0.0
0.0 0.0 0.0
0.0 0.0 0.0
0.0 0.0 0.0
0.0 0.0 0.0
0.0 0.0 0.0
0.0 0.0 0.0
0.0 0.0 0.0
0.0 0.0 0.0
0.0 0.0 0.0
0.0 0.0 0.0
0.0 0.0 0.0
0.0 0.0 0.0
0.0 0.0 0.0
0.0 0.0 0.0
0.0 0.0 0.0
0.0 0.0 0.0
0.0 0.0 0.0
0.0 0.0 0.0
0.0 0.0 0.0
0.0 0.0 0.0
0.0 0.0 0.0
0.0 0.0 0.0
0.0 0.0 0.0
0.0 0.0 0.0
0.0 0.0 0.0
0.0 0.0 0.0
0.0 0.0 0.0
0.0 0.0 0.0
0.0 0.0 0.0
0.0 0.0 0.0
0.0 0.0 0.0
0.0 0.0 0.0
0.0 0.0 0.0
0.0 0.0 0.0
0.0 0.0 0.0
0.0 0.0 0.0
0.0 0.0 0.0
0.0 0.0 0.0
0.0 0.0 0.0
0.0 0.0 0.0
0.0 0.0 0.0
0.0 0.0 0.0
0.0 0.0 0.0
0.0 0.0 0.0
0.0 0.0 0.0
0.0 0.0 0.0
0.0 0.0 0.0
0.0 0.0 0.0
0.0 0.0 0.0
0.0 0.0 0.0
0.0 0.0 0.0
0.0 0.0 0.0
0.0 0.0 0.0
0.0 0.0 0.0
0.0 0.0 0.0
0.0 0.0 0.0
0.0 0.0 0.0
0.0 0.0 0.0
0.0 0.0 0.0
0.0 0.0 0.0
0.0 0.0 0.0
0.0 0.0 0.0
0.0 0.0 0.0
0.0 0.0 0.0
0.0 0.0 0.0
0.0 0.0 0.0
0.0 0.0 0.0
0.0 0.0 0.0
0.0 0.0 0.0
0.0 0.0 0.0
0.0 0.0 0.0
0.0 0.0 0.0
0.0 0.0 0.0
0.0 0.0 0.0
0.0 0.0 0.0
0.0 0.0 0.0
0.0 0.0 0.0
0.0 0.0 0.0
0.0 0.0 0.0
0.0 0.0 0.0
0.0 0.0 0.0
0.0 0.0 0.0
0.0 0.0 0.0
0.0 0.0 0.0
0.0 0.0 0.0
0.0 0.0 0.0
0.0 0.0 0.0
0.0 0.0 0.0
0.0 0.0 0.0
0.0 0.0 0.0
0.0 0.0 0.0
0.0 0.0 0.0
0.0 0.0 0.0
0.0 0.0 0.0
0.0 0.0 0.0
0.0 0.0 0.0
0.0 0.0 0.0
0.0 0.0 0.0
0.0 0.0 0.0
0.0 0.0 0.0
0.0 0.0 0.0
0.0 0.0 0.0
0.0 0.0 0.0
0.0 0.0 0.0
0.0 0.0 0.0
0.0 0.0 0.0
0.0 0.0 0.0
0.0 0.0 0.0
0.0 0.0 0.0
0.0 0.0 0.0
0.0 0.0 0.0
0.0 0.0 0.0
0.0 0.0 0.0
0.0 0.0 0.0
0.0 0.0 0.0
0.0 0.0 0.0
0.0 0.0 0.0
0.0 0.0 0.0
0.0 0.0 0.0
0.0 0.0 0.0
0.0 0.0 0.0
0.0 0.0 0.0
0.0 0.0 0.0
0.0 0.0 0.0
0.0 0.0 0.0
0.0 0.0 0.0
0.0 0.0 0.0
0.0 0.0 0.0
0.0 0.0 0.0
0.0 0.0 0.0
0.0 0.0 0.0
0.0 0.0 0.0
0.0 0.0 0.0
0.0 0.0 0.0
0.0 0.0 0.0
0.0 0.0 0.0
0.0 0.0 0.0
0.0 0.0 0.0
0.0 0.0 0.0
0.0 0.0 0.0
0.0 0.0 0.0
0.0 0.0 0.0
0.0 0.0 0.0
0.0 0.0 0.0
0.0 0.0 0.0
0.0 0.0 0.0
0.0 0.0 0.0
0.0 0.0 0.0
0.0 0.0 0.0
0.0 0.0 0.0
0.0 0.0 0.0
0.0 0.0 0.0
0.0 0.0 0.0
0.0 0.0 0.0
0.0 0.0 0.0
0.0 0.0 0.0
0.0 0.0 0.0
0.0 0.0 0.0
0.0 0.0 0.0
0.0 0.0 0.0
0.0 0.0 0.0
0.0 0.0 0.0
0.0 0.0 0.0
0.0 0.0 0.0
0.0 0.0 0.0
0.0 0.0 0.0
0.0 0.0 0.0
0.0 0.0 0.0
0.0 0.0 0.0
0.0 0.0 0.0
0.0 0.0 0.0
0.0 0.0 0.0
0.0 0.0 0.0
0.0 0.0 0.0
0.0 0.0 0.0
0.0 0.0 0.0
0.0 0.0 0.0
0.0 0.0 0.0
0.0 0.0 0.0
0.0 0.0 0.0
0.0 0.0 0.0
0.0 0.0 0.0
0.0 0.0 0.0
0.0 0.0 0.0
0.0 0.0 0.0
0.0 0.0 0.0
0.0 0.0 0.0
0.0 0.0 0.0
0.0 0.0 0.0
0.0 0.0 0.0
0.0 0.0 0.0
0.0 0.0 0.0
0.0 0.0 0.0
0.0 0.0 0.0
0.0 0.0 0.0
0.0 0.0 0.0
0.0 0.0 0.0
0.0 0.0 0.0
0.0 0.0 0.0
0.0 0.0 0.0
0.0 0.0 0.0
0.0 0.0 0.0
0.0 0.0 0.0
0.0 0.0 0.0
0.0 0.0 0.0
0.0 0.0 0.0
0.0 0.0 0.0
0.0 0.0 0.0
0.0 0.0 0.0
0.0 0.0 0.0
0.0 0.0 0.0
0.0 0.0 0.0
0.0 0.0 0.0
0.0 0.0 0.0
0.0 0.0 0.0
0.0 0.0 0.0
0.0 0.0 0.0
0.0 0.0 0.0
0.0 0.0 0.0
0.0 0.0 0.0
0.0 0.0 0.0
0.0 0.0 0.0
0.0 0.0 0.0
0.0 0.0 0.0
0.0 0.0 0.0
0.0 0.0 0.0
0.0 0.0 0.0
0.0 0.0 0.0
0.0 0.0 0.0
0.0 0.0 0.0
0.0 0.0 0.0
0.0 0.0 0.0
0.0 0.0 0.0
0.0 0.0 0.0
0.0 0.0 0.0
0.0 0.0 0.0
0.0 0.0 0.0
0.0 0.0 0.0
0.0 0.0 0.0
0.0 0.0 0.0
0.0 0.0 0.0
0.0 0.0 0.0
0.0 0.0 0.0
0.0 0.0 0.0
0.0 0.0 0.0
0.0 0.0 0.0
0.0 0.0 0.0
0.0 0.0 0.0
0.0 0.0 0.0
0.0 0.0 0.0
0.0 0.0 0.0
0.0 0.0 0.0
0.0 0.0 0.0
0.0 0.0 0.0
0.0 0.0 0.0
0.0 0.0 0.0
0.0 0.0 0.0
0.0 0.0 0.0
0.0 0.0 0.0
0.0 0.0 0.0
0.0 0.0 0.0
0.0 0.0 0.0
0.0 0.0 0.0
0.0 0.0 0.0
0.0 0.0 0.0
0.0 0.0 0.0
0.0 0.0 0.0
0.0 0.0 0.0
0.0 0.0 0.0
0.0 0.0 0.0
0.0 0.0 0.0
0.0 0.0 0.0
0.0 0.0 0.0
0.0 0.0 0.0
0.0 0.0 0.0
0.0 0.0 0.0
0.0 0.0 0.0
0.0 0.0 0.0
0.0 0.0 0.0
0.0 0.0 0.0
0.0 0.0 0.0
0.0 0.0 0.0
0.0 0.0 0.0
0.0 0.0 0.0
0.0 0.0 0.0
0.0 0.0 0.0
0.0 0.0 0.0
0.0 0.0 0.0
0.0 0.0 0.0
0.0 0.0 0.0
0.0 0.0 0.0
0.0 0.0 0.0
0.0 0.0 0.0
0.0 0.0 0.0
0.0 0.0 0.0
0.0 0.0 0.0
0.0 0.0 0.0
0.0 0.0 0.0
0.0 0.0 0.0
0.0 0.0 0.0
0.0 0.0 0.0
0.0 0.0 0.0
0.0 0.0 0.0
0.0 0.0 0.0
0.0 0.0 0.0
0.0 0.0 0.0
0.0 0.0 0.0
0.0 0.0 0.0
0.0 0.0 0.0
0.0 0.0 0.0
0.0 0.0 0.0
0.0 0.0 0.0
0.0 0.0 0.0
0.0 0.0 0.0
0.0 0.0 0.0
0.0 0.0 0.0
0.0 0.0 0.0
0.0 0.0 0.0
0.0 0.0 0.0
0.0 0.0 0.0
0.0 0.0 0.0
0.0 0.0 0.0
0.0 0.0 0.0
0.0 0.0 0.0
0.0 0.0 0.0
0.0 0.0 0.0
0.0 0.0 0.0
0.0 0.0 0.0
0.0 0.0 0.0
0.0 0.0 0.0
0.0 0.0 0.0
0.0 0.0 0.0
0.0 0.0 0.0
0.0 0.0 0.0
0.0 0.0 0.0
0.0 0.0 0.0
0.0 0.0 0.0
0.0 0.0 0.0
0.0 0.0 0.0
0.0 0.0 0.0
0.0 0.0 0.0
0.0 0.0 0.0
0.0 0.0 0.0
0.0 0.0 0.0
0.0 0.0 0.0
0.0 0.0 0.0
0.0 0.0 0.0
0.0 0.0 0.0
0.0 0.0 0.0
0.0 0.0 0.0
0.0 0.0 0.0
0.0 0.0 0.0
0.0 0.0 0.0
0.0 0.0 0.0
0.0 0.0 0.0
0.0 0.0 0.0
0.0 0.0 0.0
0.0 0.0 0.0
0.0 0.0 0.0
0.0 0.0 0.0
0.0 0.0 0.0
0.0 0.0 0.0
0.0 0.0 0.0
0.0 0.0 0.0
0.0 0.0 0.0
0.0 0.0 0.0
0.0 0.0 0.0
0.0 0.0 0.0
0.0 0.0 0.0
0.0 0.0 0.0
0.0 0.0 0.0
0.0 0.0 0.0
0.0 0.0 0.0
0.0 0.0 0.0
0.0 0.0 0.0
0.0 0.0 0.0
0.0 0.0 0.0
0.0 0.0 0.0
0.0 0.0 0.0
0.0 0.0 0.0
0.0 0.0 0.0
0.0 0.0 0.0
0.0 0.0 0.0
0.0 0.0 0.0
0.0 0.0 0.0
0.0 0.0 0.0
0.0 0.0 0.0
0.0 0.0 0.0
0.0 0.0 0.0
0.0 0.0 0.0
0.0 0.0 0.0
0.0 0.0 0.0
0.0 0.0 0.0
0.0 0.0 0.0
0.0 0.0 0.0
0.0 0.0 0.0
0.0 0.0 0.0
0.0 0.0 0.0
0.0 0.0 0.0
0.0 0.0 0.0
0.0 0.0 0.0
0.0 0.0 0.0
0.0 0.0 0.0
0.0 0.0 0.0
0.0 0.0 0.0
0.0 0.0 0.0
0.0 0.0 0.0
0.0 0.0 0.0
0.0 0.0 0.0
0.0 0.0 0.0
0.0 0.0 0.0
0.0 0.0 0.0
0.0 0.0 0.0
0.0 0.0 0.0
0.0 0.0 0.0
0.0 0.0 0.0
0.0 0.0 0.0
0.0 0.0 0.0
0.0 0.0 0.0
0.0 0.0 0.0
0.0 0.0 0.0
0.0 0.0 0.0
0.0 0.0 0.0
0.0 0.0 0.0
0.0 0.0 0.0
0.0 0.0 0.0
0.0 0.0 0.0
0.0 0.0 0.0
0.0 0.0 0.0
0.0 0.0 0.0
0.0 0.0 0.0
0.0 0.0 0.0
0.0 0.0 0.0
0.0 0.0 0.0
0.0 0.0 0.0
0.0 0.0 0.0
0.0 0.0 0.0
0.0 0.0 0.0
0.0 0.0 0.0
0.0 0.0 0.0
0.0 0.0 0.0
0.0 0.0 0.0
0.0 0.0 0.0
0.0 0.0 0.0
0.0 0.0 0.0
0.0 0.0 0.0
0.0 0.0 0.0
0.0 0.0 0.0
0.0 0.0 0.0
0.0 0.0 0.0
0.0 0.0 0.0
0.0 0.0 0.0
0.0 0.0 0.0
0.0 0.0 0.0
0.0 0.0 0.0
0.0 0.0 0.0
0.0 0.0 0.0
0.0 0.0 0.0
0.0 0.0 0.0
0.0 0.0 0.0
0.0 0.0 0.0
0.0 0.0 0.0
0.0 0.0 0.0
0.0 0.0 0.0
0.0 0.0 0.0
0.0 0.0 0.0
0.0 0.0 0.0
0.0 0.0 0.0
0.0 0.0 0.0
0.0 0.0 0.0
0.0 0.0 0.0
0.0 0.0 0.0
0.0 0.0 0.0
0.0 0.0 0.0
0.0 0.0 0.0
0.0 0.0 0.0
0.0 0.0 0.0
0.0 0.0 0.0
0.0 0.0 0.0
0.0 0.0 0.0
0.0 0.0 0.0
0.0 0.0 0.0
0.0 0.0 0.0
0.0 0.0 0.0
0.0 0.0 0.0
0.0 0.0 0.0
0.0 0.0 0.0
0.0 0.0 0.0
0.0 0.0 0.0
0.0 0.0 0.0
0.0 0.0 0.0
0.0 0.0 0.0
0.0 0.0 0.0
0.0 0.0 0.0
0.0 0.0 0.0
0.0 0.0 0.0
0.0 0.0 0.0
0.0 0.0 0.0
0.0 0.0 0.0
0.0 0.0 0.0
0.0 0.0 0.0
0.0 0.0 0.0
0.0 0.0 0.0
0.0 0.0 0.0
0.0 0.0 0.0
0.0 0.0 0.0
0.0 0.0 0.0
0.0 0.0 0.0
0.0 0.0 0.0
0.0 0.0 0.0
0.0 0.0 0.0
0.0 0.0 0.0
0.0 0.0 0.0
0.0 0.0 0.0
0.0 0.0 0.0
0.0 0.0 0.0
0.0 0.0 0.0
0.0 0.0 0.0
0.0 0.0 0.0
0.0 0.0 0.0
0.0 0.0 0.0
0.0 0.0 0.0
0.0 0.0 0.0
0.0 0.0 0.0
0.0 0.0 0.0
0.0 0.0 0.0
0.0 0.0 0.0
0.0 0.0 0.0
0.0 0.0 0.0
0.0 0.0 0.0
0.0 0.0 0.0
0.0 0.0 0.0
0.0 0.0 0.0
0.0 0.0 0.0
0.0 0.0 0.0
0.0 0.0 0.0
0.0 0.0 0.0
0.0 0.0 0.0
0.0 0.0 0.0
0.0 0.0 0.0
0.0 0.0 0.0
0.0 0.0 0.0
0.0 0.0 0.0
0.0 0.0 0.0
0.0 0.0 0.0
0.0 0.0 0.0
0.0 0.0 0.0
0.0 0.0 0.0
0.0 0.0 0.0
0.0 0.0 0.0
0.0 0.0 0.0
0.0 0.0 0.0
0.0 0.0 0.0
0.0 0.0 0.0
0.0 0.0 0.0
0.0 0.0 0.0
0.0 0.0 0.0
0.0 0.0 0.0
0.0 0.0 0.0
0.0 0.0 0.0
0.0 0.0 0.0
0.0 0.0 0.0
0.0 0.0 0.0
0.0 0.0 0.0
0.0 0.0 0.0
0.0 0.0 0.0
0.0 0.0 0.0
0.0 0.0 0.0
0.0 0.0 0.0
0.0 0.0 0.0
0.0 0.0 0.0
0.0 0.0 0.0
0.0 0.0 0.0
0.0 0.0 0.0
0.0 0.0 0.0
0.0 0.0 0.0
0.0 0.0 0.0
0.0 0.0 0.0
0.0 0.0 0.0
0.0 0.0 0.0
0.0 0.0 0.0
0.0 0.0 0.0
0.0 0.0 0.0
0.0 0.0 0.0
0.0 0.0 0.0
0.0 0.0 0.0
0.0 0.0 0.0
0.0 0.0 0.0
0.0 0.0 0.0
0.0 0.0 0.0
0.0 0.0 0.0
0.0 0.0 0.0
0.0 0.0 0.0
0.0 0.0 0.0
0.0 0.0 0.0
0.0 0.0 0.0
0.0 0.0 0.0
0.0 0.0 0.0
0.0 0.0 0.0
0.0 0.0 0.0
0.0 0.0 0.0
0.0 0.0 0.0
0.0 0.0 0.0
0.0 0.0 0.0
0.0 0.0 0.0
0.0 0.0 0.0
0.0 0.0 0.0
0.0 0.0 0.0
0.0 0.0 0.0
0.0 0.0 0.0
0.0 0.0 0.0
0.0 0.0 0.0
0.0 0.0 0.0
0.0 0.0 0.0
0.0 0.0 0.0
0.0 0.0 0.0
0.0 0.0 0.0
0.0 0.0 0.0
0.0 0.0 0.0
0.0 0.0 0.0
0.0 0.0 0.0
0.0 0.0 0.0
0.0 0.0 0.0
0.0 0.0 0.0
0.0 0.0 0.0
0.0 0.0 0.0
0.0 0.0 0.0
0.0 0.0 0.0
0.0 0.0 0.0
0.0 0.0 0.0
0.0 0.0 0.0
0.0 0.0 0.0
0.0 0.0 0.0
0.0 0.0 0.0
0.0 0.0 0.0
0.0 0.0 0.0
0.0 0.0 0.0
0.0 0.0 0.0
0.0 0.0 0.0
0.0 0.0 0.0
0.0 0.0 0.0
0.0 0.0 0.0
0.0 0.0 0.0
0.0 0.0 0.0
0.0 0.0 0.0
0.0 0.0 0.0
0.0 0.0 0.0
0.0 0.0 0.0
0.0 0.0 0.0
0.0 0.0 0.0
0.0 0.0 0.0
0.0 0.0 0.0
0.0 0.0 0.0
0.0 0.0 0.0
0.0 0.0 0.0
0.0 0.0 0.0
0.0 0.0 0.0
0.0 0.0 0.0
0.0 0.0 0.0
0.0 0.0 0.0
0.0 0.0 0.0
0.0 0.0 0.0
0.0 0.0 0.0
0.0 0.0 0.0
0.0 0.0 0.0
0.0 0.0 0.0
0.0 0.0 0.0
0.0 0.0 0.0
0.0 0.0 0.0
0.0 0.0 0.0
0.0 0.0 0.0
0.0 0.0 0.0
0.0 0.0 0.0
0.0 0.0 0.0
0.0 0.0 0.0
0.0 0.0 0.0
0.0 0.0 0.0
0.0 0.0 0.0
0.0 0.0 0.0
0.0 0.0 0.0
0.0 0.0 0.0
0.0 0.0 0.0
0.0 0.0 0.0
0.0 0.0 0.0
0.0 0.0 0.0
0.0 0.0 0.0
0.0 0.0 0.0
0.0 0.0 0.0
0.0 0.0 0.0
0.0 0.0 0.0
0.0 0.0 0.0
0.0 0.0 0.0
0.0 0.0 0.0
0.0 0.0 0.0
0.0 0.0 0.0
0.0 0.0 0.0
0.0 0.0 0.0
0.0 0.0 0.0
0.0 0.0 0.0
0.0 0.0 0.0
0.0 0.0 0.0
0.0 0.0 0.0
0.0 0.0 0.0
0.0 0.0 0.0
0.0 0.0 0.0
0.0 0.0 0.0
0.0 0.0 0.0
0.0 0.0 0.0
0.0 0.0 0.0
0.0 0.0 0.0
0.0 0.0 0.0
0.0 0.0 0.0
0.0 0.0 0.0
0.0 0.0 0.0
0.0 0.0 0.0
0.0 0.0 0.0
0.0 0.0 0.0
0.0 0.0 0.0
0.0 0.0 0.0
0.0 0.0 0.0
0.0 0.0 0.0
0.0 0.0 0.0
0.0 0.0 0.0
0.0 0.0 0.0
0.0 0.0 0.0
0.0 0.0 0.0
0.0 0.0 0.0
0.0 0.0 0.0
0.0 0.0 0.0
0.0 0.0 0.0
0.0 0.0 0.0
0.0 0.0 0.0
0.0 0.0 0.0
0.0 0.0 0.0
0.0 0.0 0.0
0.0 0.0 0.0
0.0 0.0 0.0
0.0 0.0 0.0
0.0 0.0 0.0
0.0 0.0 0.0
0.0 0.0 0.0
0.0 0.0 0.0
0.0 0.0 0.0
0.0 0.0 0.0
0.0 0.0 0.0
0.0 0.0 0.0
VECTORS f float
189.197 -73.7259 38.1644
0.0 0.0 -6.57473
0.0 0.0 -6.57473
0.743535 0.166741 8.6653
0.0 0.0 -6.57473
0.0 0.0 -6.57473
-56.3917 -45.8161 -39.89
0.0 0.0 -6.57473
0.0 0.0 -6.57473
0.0 0.0 -6.57473
62.4478 -440.082 -114.833
149.361 26.6861 63.7833
0.0 0.0 -6.57473
0.0 0.0 -6.57473
0.0 0.0 -6.57473
-183.546 -126.99 240.83
183.103 111.984 46.2883
0.0 0.0 -6.57473
0.0 0.0 -6.57473
195.432 -190.594 -135.854
0.0 0.0 -6.57473
74.6303 -224.078 -207.542
0.0 0.0 -6.57473
-15.2802 -3.69701 -21.2979
0.0 0.0 -6.57473
-355.317 85.106 -68.1856
0.0 0.0 -6.57473
0.0 0.0 -6.57473
0.0 0.0 -6.57473
0.0 0.0 -6.57473
12.6842 15.5566 -22.3678
0.0 0.0 -6.57473
0.0 0.0 -6.57473
0.0 0.0 -6.57473
0.0 0.0 -6.57473
0.0 0.0 -6.57473
265.169 -312.644 62.8018
0.0 0.0 -6.57473
-10.9599 3.49103 223.474
0.0 0.0 -6.57473
0.0 0.0 -6.57473
0.0 0.0 -6.57473
-189.197 73.7259 -51.3139
-621.809 -30.8929 -3.07518
0.0 0.0 -6.57473
-2.12446 -123.512 86.3689
56.3917 45.8161 26.7406
0.0 0.0 -6.57473
0.0 0.0 -6.57473
0.0 0.0 -6.57473
12.3286 12.0899 338.772
0.0 0.0 -6.57473
1.02873 8.53427 165.346
0.0 0.0 -6.57473
0.0 0.0 -6.57473
0.0 0.0 -6.57473
0.0 0.0 -6.57473
-311.497 334.048 -67.8583
-34.7258 -99.7996 -565.998
0.0 0.0 -6.57473
-404.915 -17.4436 -114.435
404.915 17.4436 101.286
0.0 0.0 -6.57473
-148.474 -24.574 -31.1154
0.0 0.0 -6.57473
34.7258 99.7996 552.848
-38.7198 194.556 -202.425
0.0 0.0 -6.57473
0.0 0.0 -6.57473
0.0 0.0 -6.57473
0.0 0.0 -6.57473
0.0 0.0 -6.57473
15.2802 3.69701 8.14847
0.0 0.0 -6.57473
0.0 0.0 -6.57473
355.317 -85.106 55.0362
0.0 0.0 -6.57473
-33.5415 13.944 -1.91139
0.0 0.0 -6.57473
0.0 0.0 -6.57473
0.0 0.0 -6.57473
0.0 0.0 -6.57473
0.0 0.0 -6.57473
0.0 0.0 -6.57473
3.64235 -4.05247 102.401
0.0 0.0 -6.57473
0.0 0.0 -6.57473
0.0 0.0 -6.57473
0.0 0.0 -6.57473
0.0 0.0 -6.57473
0.0 0.0 -6.57473
0.0 0.0 -6.57473
0.0 0.0 -6.57473
0.0 0.0 -6.57473
0.0 0.0 -6.57473
2.34663 5.52274 113.437
0.0 0.0 -6.57473
0.0 0.0 -6.57473
0.0 0.0 -6.57473
0.0 0.0 -6.57473
0.0 0.0 -6.57473
0.0 0.0 -6.57473
0.0 0.0 -6.57473
0.0 0.0 -6.57473
-13.6429 30.9712 670.284
-54.8915 123.899 -147.943
0.0 0.0 -6.57473
0.0 0.0 -6.57473
206.203 0.0706374 118.172
38.7198 -194.556 189.275
0.0 0.0 -6.57473
-142.418 36.5292 -127.901
0.0 0.0 -6.57473
-170.834 1.73991 576.966
185.282 135.126 -122.699
0.0 0.0 -6.57473
0.0 0.0 -6.57473
0.0 0.0 -6.57473
0.0 0.0 -6.57473
0.0 0.0 -6.57473
0.0 0.0 -6.57473
-387.571 -6.94313 -386.913
0.0 0.0 -6.57473
0.0 0.0 -6.57473
0.0 0.0 -6.57473
0.0 0.0 -6.57473
-0.389991 -34.8358 690.185
0.0 0.0 -6.57473
0.0 0.0 -6.57473
0.0 0.0 -6.57473
210.666 -246.238 -163.017
0.0 0.0 -6.57473
0.0 0.0 -6.57473
20.9184 33.7701 -5.58205
0.0 0.0 -6.57473
20.8573 -29.5006 4.55498
0.0 0.0 -6.57473
0.0 0.0 -6.57473
0.0 0.0 -6.57473
0.0 0.0 -6.57473
0.0 0.0 -6.57473
0.0 0.0 -6.57473
0.0 0.0 -6.57473
0.0 0.0 -6.57473
0.0 0.0 -6.57473
0.0 0.0 -6.57473
-265.169 312.644 -75.9513
0.0 0.0 -6.57473
0.0 0.0 -6.57473
57.016 -0.38695 41.8498
0.0 0.0 -6.57473
0.0 0.0 -6.57473
0.0 0.0 -6.57473
115.487 -6.47002 -20.0545
-62.4478 440.082 101.684
0.0 0.0 -6.57473
0.0 0.0 -6.57473
0.0 0.0 -6.57473
0.0 0.0 -6.57473
0.0 0.0 -6.57473
-10.8554 84.9718 -138.439
0.0 0.0 -6.57473
0.0 0.0 -6.57473
0.0 0.0 -6.57473
-153.363 -7.58368 -5.43976
0.0 0.0 -6.57473
0.0 0.0 -6.57473
0.0 0.0 -6.57473
0.0 0.0 -6.57473
0.0 0.0 -6.57473
0.0 0.0 -6.57473
0.0 0.0 -6.57473
0.0 0.0 -6.57473
0.0 0.0 -6.57473
0.0 0.0 -6.57473
-1.0618 350.92 -24.0886
-4.42391 116.869 -10.3924
0.0 0.0 -6.57473
311.497 -334.048 54.7088
0.0 0.0 -6.57473
0.0 0.0 -6.57473
0.0 0.0 -6.57473
0.0 0.0 -6.57473
-115.487 6.47002 6.90504
0.0 0.0 -6.57473
58.4494 -79.6888 -97.7578
0.0 0.0 -6.57473
-185.282 -135.126 109.549
0.0 0.0 -6.57473
0.0 0.0 -6.57473
-53.4897 -88.7138 -49.3229
0.0 0.0 -6.57473
0.0 0.0 -6.57473
0.0 0.0 -6.57473
0.0 0.0 -6.57473
0.0 0.0 -6.57473
-74.6303 224.078 194.393
0.0 0.0 -6.57473
0.0 0.0 -6.57473
0.0 0.0 -6.57473
0.0 0.0 -6.57473
0.0 0.0 -6.57473
0.0 0.0 -6.57473
0.0 0.0 -6.57473
0.0 0.0 -6.57473
0.0 0.0 -6.57473
0.0 0.0 -6.57473
0.0 0.0 -6.57473
0.0 0.0 -6.57473
0.0 0.0 -6.57473
0.0 0.0 -6.57473
0.0 0.0 -6.57473
0.0 0.0 -6.57473
0.0 0.0 -6.57473
0.0 0.0 -6.57473
0.0 0.0 -6.57473
0.0 0.0 -6.57473
0.0 0.0 -6.57473
0.0 0.0 -6.57473
0.0 0.0 -6.57473
0.0 0.0 -6.57473
0.0 0.0 -6.57473
0.0 0.0 -6.57473
142.418 -36.5292 114.751
0.0 0.0 -6.57473
0.0 0.0 -6.57473
0.0 0.0 -6.57473
0.0 0.0 -6.57473
0.0 0.0 -6.57473
0.0 0.0 -6.57473
0.0 0.0 -6.57473
-141.942 279.308 165.453
0.0 0.0 -6.57473
387.571 6.94313 373.763
0.0 0.0 -6.57473
0.0 0.0 -6.57473
0.0 0.0 -6.57473
0.0 0.0 -6.57473
0.0 0.0 -6.57473
0.0 0.0 -6.57473
0.0 0.0 -6.57473
0.0 0.0 -6.57473
0.0 0.0 -6.57473
0.0 0.0 -6.57473
0.0 0.0 -6.57473
0.0 0.0 -6.57473
0.0 0.0 -6.57473
16.6801 109.825 73.2291
0.0 0.0 -6.57473
0.0 0.0 -6.57473
0.0 0.0 -6.57473
0.0 0.0 -6.57473
0.0 0.0 -6.57473
0.0 0.0 -6.57473
0.0 0.0 -6.57473
0.0 0.0 -6.57473
0.0 0.0 -6.57473
10.8554 -84.9718 125.29
0.0 0.0 -6.57473
0.0 0.0 -6.57473
0.0 0.0 -6.57473
0.0 0.0 -6.57473
0.0 0.0 -6.57473
0.0 0.0 -6.57473
0.0 0.0 -6.57473
0.0 0.0 -6.57473
0.0 0.0 -6.57473
0.0 0.0 -6.57473
0.0 0.0 -6.57473
0.0 0.0 -6.57473
0.0 0.0 -6.57473
0.0 0.0 -6.57473
0.0 0.0 -6.57473
0.0 0.0 -6.57473
0.0 0.0 -6.57473
-75.1295 -30.1359 4.80448
0.0 0.0 -6.57473
0.0 0.0 -6.57473
0.0 0.0 -6.57473
0.0 0.0 -6.57473
0.0 0.0 -6.57473
0.0 0.0 -6.57473
0.0 0.0 -6.57473
0.0 0.0 -6.57473
0.0 0.0 -6.57473
0.0 0.0 -6.57473
0.0 0.0 -6.57473
0.0 0.0 -6.57473
0.0 0.0 -6.57473
0.0 0.0 -6.57473
0.0 0.0 -6.57473
0.0 0.0 -6.57473
0.0 0.0 -6.57473
1.3512 4.80501 -12.5172
0.0 0.0 -6.57473
0.0 0.0 -6.57473
0.0 0.0 -6.57473
0.0 0.0 -6.57473
0.0 0.0 -6.57473
-20.9184 -33.7701 -7.5674
0.0 0.0 -6.57473
100.777 -0.262796 -1.54275
0.0 0.0 -6.57473
0.0 0.0 -6.57473
0.0 0.0 -6.57473
0.0 0.0 -6.57473
0.0 0.0 -6.57473
0.0 0.0 -6.57473
0.0 0.0 -6.57473
0.0 0.0 -6.57473
0.0 0.0 -6.57473
-67.6868 -14.8977 -33.5491
0.0 0.0 -6.57473
0.0 0.0 -6.57473
0.0 0.0 -6.57473
0.0 0.0 -6.57473
0.0 0.0 -6.57473
0.0 0.0 -6.57473
0.0 0.0 -6.57473
0.0 0.0 -6.57473
0.0 0.0 -6.57473
-1.3512 -4.80501 -0.632236
0.0 0.0 -6.57473
0.0 0.0 -6.57473
-153.056 5.60835 -1.36781
0.0 0.0 -6.57473
0.0 0.0 -6.57473
0.0 0.0 -6.57473
0.0 0.0 -6.57473
0.0 0.0 -6.57473
0.0 0.0 -6.57473
-210.666 246.238 149.868
0.0 0.0 -6.57473
0.0 0.0 -6.57473
0.0 0.0 -6.57473
0.0 0.0 -6.57473
0.0 0.0 -6.57473
0.0 0.0 -6.57473
0.0 0.0 -6.57473
0.0 0.0 -6.57473
0.0 0.0 -6.57473
0.0 0.0 -6.57473
0.0 0.0 -6.57473
0.0 0.0 -6.57473
0.0 0.0 -6.57473
0.0 0.0 -6.57473
-4.58945 -195.363 -102.304
0.0 0.0 -6.57473
8.8767 -3.95025 0.451759
0.0 0.0 -6.57473
0.0 0.0 -6.57473
0.0 0.0 -6.57473
0.0 0.0 -6.57473
0.0 0.0 -6.57473
0.0 0.0 -6.57473
0.0 0.0 -6.57473
0.0 0.0 -6.57473
4.58945 195.363 89.1543
-8.8767 3.95025 -13.6012
0.0 0.0 -6.57473
0.0 0.0 -6.57473
0.0 0.0 -6.57473
0.0 0.0 -6.57473
0.0 0.0 -6.57473
0.0 0.0 -6.57473
0.0 0.0 -6.57473
0.0 0.0 -6.57473
0.0 0.0 -6.57473
0.0 0.0 -6.57473
0.0 0.0 -6.57473
0.0 0.0 -6.57473
0.0 0.0 -6.57473
0.0 0.0 -6.57473
0.0 0.0 -6.57473
0.0 0.0 -6.57473
0.0 0.0 -6.57473
0.0 0.0 -6.57473
0.0 0.0 -6.57473
0.0 0.0 -6.57473
0.0 0.0 -6.57473
0.0 0.0 -6.57473
-6.88303 -172.367 71.6233
0.0 0.0 -6.57473
0.0 0.0 -6.57473
0.0 0.0 -6.57473
0.0 0.0 -6.57473
0.0 0.0 -6.57473
0.0 0.0 -6.57473
0.0 0.0 -6.57473
0.0 0.0 -6.57473
0.0 0.0 -6.57473
0.0 0.0 -6.57473
0.0 0.0 -6.57473
0.0 0.0 -6.57473
0.0 0.0 -6.57473
0.0 0.0 -6.57473
0.0 0.0 -6.57473
0.0 0.0 -6.57473
0.0 0.0 -6.57473
0.0 0.0 -6.57473
-264.087 -74.4786 -117.848
0.0 0.0 -6.57473
0.0 0.0 -6.57473
0.0 0.0 -6.57473
0.0 0.0 -6.57473
0.0 0.0 -6.57473
0.0 0.0 -6.57473
0.0 0.0 -6.57473
0.0 0.0 -6.57473
0.0 0.0 -6.57473
-22.9665 -72.4128 2.90408
0.0 0.0 -6.57473
0.0 0.0 -6.57473
0.0 0.0 -6.57473
0.0 0.0 -6.57473
6.88303 172.367 -84.7728
0.0 0.0 -6.57473
22.9665 72.4128 -16.0535
0.0 0.0 -6.57473
40.5772 -0.10155 -4.54841
0.0 0.0 -6.57473
0.0 0.0 -6.57473
0.0 0.0 -6.57473
0.0 0.0 -6.57473
0.0 0.0 -6.57473
0.0 0.0 -6.57473
0.0 0.0 -6.57473
0.0 0.0 -6.57473
67.6868 14.8977 20.3997
0.0 0.0 -6.57473
0.0 0.0 -6.57473
0.0 0.0 -6.57473
264.087 74.4786 104.698
0.0 0.0 -6.57473
0.0 0.0 -6.57473
0.0 0.0 -6.57473
40.8443 80.7232 -74.5567
19.6566 -15.313 -29.0381
0.0 0.0 -6.57473
0.0 0.0 -6.57473
0.0 0.0 -6.57473
0.0 0.0 -6.57473
0.0 0.0 -6.57473
0.0 0.0 -6.57473
0.0 0.0 -6.57473
0.0 0.0 -6.57473
0.0 0.0 -6.57473
-19.6566 15.313 15.8887
0.0 0.0 -6.57473
0.0 0.0 -6.57473
-7.15237 -38.7032 -25.0418
0.0 0.0 -6.57473
0.0 0.0 -6.57473
125.263 -40.9295 -64.9824
0.0 0.0 -6.57473
0.0 0.0 -6.57473
0.0 0.0 -6.57473
0.0 0.0 -6.57473
7.15237 38.7032 11.8924
0.0 0.0 -6.57473
0.0 0.0 -6.57473
0.0 0.0 -6.57473
0.0 0.0 -6.57473
0.0 0.0 -6.57473
0.0 0.0 -6.57473
0.0 0.0 -6.57473
0.0 0.0 -6.57473
0.0 0.0 -6.57473
0.0 0.0 -6.57473
0.0 0.0 -6.57473
0.0 0.0 -6.57473
0.0 0.0 -6.57473
0.0 0.0 -6.57473
0.0 0.0 -6.57473