# vtk DataFile Version 2.0
Generated by lpp.py
ASCII
DATASET POLYDATA
POINTS 686 float
-0.534936 -0.894346 -0.948625
0.589712 -0.610348 -0.914022
-0.377998 -0.494954 -0.953506
-0.0785207 -0.405074 -0.908157
-0.360584 -0.359087 -0.879215
0.572925 -0.34675 -0.968582
0.800614 -0.359217 -0.820676
-0.564334 -0.272208 -0.824937
-0.417273 -0.233598 -0.916688
-0.196982 -0.293996 -0.873352
-0.027232 -0.349467 -0.891292
0.556389 -0.165348 -0.829042
0.784014 -0.244099 -0.852683
0.502076 -0.158795 -0.85764
0.275246 -0.0943431 -0.867059
0.783427 -0.0545785 -0.813492
0.932038 -0.0999571 -0.854014
-0.374634 -0.0334026 -0.824298
0.461716 0.0410899 -0.898821
-0.932281 0.177456 -0.941263
0.592181 -0.908422 -0.846415
0.25095 -0.823359 -0.936884
-0.907795 -0.71011 -0.958821
-0.773416 -0.813992 -0.957657
0.737099 -0.791729 -0.866408
-0.673365 -0.683576 -0.831926
-0.0671701 -0.627689 -0.961842
0.276883 -0.660636 -0.964387
0.49803 -0.572844 -0.932379
-0.647892 -0.403087 -0.961869
-0.15943 -0.419555 -0.953752
-0.162692 -0.445279 -0.74819
0.00432157 -0.495335 -0.961578
0.971308 -0.443707 -0.956527
0.659343 -0.4129 -0.950037
-0.837299 -0.346786 -0.927726
-0.0819785 -0.22452 -0.970594
-0.968509 -0.330075 -0.942375
-0.636468 -0.361816 -0.915456
-0.370401 -0.23646 -0.821777
0.851636 -0.201263 -0.815859
-0.956293 -0.143359 -0.795455
-0.756985 -0.0756145 -0.912116
-0.961309 -0.0366781 -0.855471
-0.83561 -0.017734 -0.973849
-0.0354105 0.137914 -0.958208
0.961014 0.0829934 -0.950461
-0.852715 0.0476141 -0.933099
-0.25779 0.136631 -0.667425
-0.894314 0.380361 -0.932755
0.235054 -0.853021 -0.885382
0.550286 -0.670225 -0.929333
0.716367 -0.775993 -0.782067
-0.415106 -0.742884 -0.948618
0.243779 -0.641821 -0.796479
-0.747285 -0.620919 -0.930818
0.700488 -0.593997 -0.92233
0.199713 -0.571501 -0.918124
-0.820654 -0.525139 -0.737617
-0.485995 -0.468148 -0.849246
0.0277808 -0.477956 -0.820303
0.109444 -0.360812 -0.785502
-0.794414 -0.399839 -0.77024
0.360645 -0.363938 -0.908162
0.574774 -0.403478 -0.728057
0.884875 -0.393047 -0.921337
-0.78703 -0.263579 -0.971144
-0.165389 -0.218438 -0.912496
0.193609 -0.390594 -0.893139
0.702425 -0.343587 -0.891457
-0.17536 -0.163359 -0.974316
-0.0858861 -0.175409 -0.893306
0.1319 -0.224211 -0.811461
0.920264 -0.201842 -0.785379
-0.604931 -0.19291 -0.889103
0.29223 -0.112804 -0.77072
-0.612791 0.218039 -0.866806
-0.48716 0.157866 -0.738767
0.908408 -0.775331 -0.836127
-0.165535 -0.903321 -0.759564
0.347621 -0.842019 -0.847161
0.6992 -0.823194 -0.66548
0.924854 -0.797338 -0.634072
0.00590407 -0.677777 -0.830592
-0.760744 -0.751502 -0.738029
-0.545263 -0.619353 -0.90563
-0.0312798 -0.53078 -0.882337
-0.415994 -0.46855 -0.898518
-0.256338 -0.49399 -0.841138
0.488089 -0.451429 -0.968352
0.803956 -0.449779 -0.788719
-0.945641 -0.396596 -0.720826
-0.617754 -0.353159 -0.851399
-0.0447009 -0.385885 -0.840059
0.90483 -0.423646 -0.678348
-0.387831 -0.284904 -0.683979
-0.264297 -0.258521 -0.823041
-0.183087 -0.356375 -0.83487
0.0258309 -0.315952 -0.862847
0.371848 -0.324874 -0.633248
-0.179252 -0.20042 -0.794926
0.701271 -0.208427 -0.803011
0.215553 -0.159442 -0.656036
0.509399 -0.0798659 -0.710349
0.856478 -0.074365 -0.85605
-0.953949 0.125915 -0.868829
0.513454 0.312044 -0.778034
-0.50709 -0.750562 -0.834838
0.673598 -0.693382 -0.784896
-0.354455 -0.669453 -0.81281
0.127273 -0.628318 -0.754048
0.819814 -0.509356 -0.767106
-0.896186 -0.532319 -0.764524
-0.693179 -0.409112 -0.817336
0.457653 -0.48023 -0.782473
-0.562342 -0.381242 -0.804468
-0.49213 -0.376729 -0.739163
-0.104819 -0.374515 -0.78727
0.0327544 -0.387706 -0.75395
0.19612 -0.38771 -0.684438
-0.864519 -0.313592 -0.766548
0.459218 -0.298852 -0.840213
-0.891117 -0.0881171 -0.829568
-0.732069 -0.141331 -0.834111
-0.0946871 -0.124702 -0.770847
-0.772357 -0.0320914 -0.780786
-0.96251 0.11338 -0.757183
0.111485 0.0513873 -0.617317
-0.635379 0.289752 -0.747202
0.328255 -0.815839 -0.760908
0.832151 -0.929734 -0.650029
0.246323 -0.621895 -0.705207
0.442001 -0.593664 -0.529711
-0.260486 -0.408979 -0.783704
0.523958 -0.447406 -0.695225
-0.715258 -0.333932 -0.635839
0.284145 -0.391915 -0.880563
0.843947 -0.21091 -0.709518
-0.0502419 -0.184 -0.722904
0.572281 -0.165322 -0.648717
0.756902 -0.214826 -0.697304
-0.892012 -0.0717954 -0.72998
-0.626306 -0.0588981 -0.547258
0.690364 -0.128272 -0.759643
0.728136 -0.0173714 -0.759226
0.639895 0.221377 -0.553049
-0.953067 0.214328 -0.752338
0.770714 0.379205 -0.658449
-0.940744 -0.967385 -0.439402
0.747008 -0.842795 -0.426294
-0.246444 -0.554614 -0.612742
0.511652 -0.537787 -0.661715
-0.33101 -0.476195 -0.672539
-0.019579 -0.412761 -0.676566
0.496182 -0.399338 -0.612875
0.944644 -0.461423 -0.536473
-0.160491 -0.314273 -0.653611
0.185845 -0.295324 -0.674722
-0.478206 -0.244567 -0.630695
0.0219843 -0.127105 -0.668095
0.925006 -0.173912 -0.505
-0.944484 -0.181713 -0.682522
-0.441922 -0.150178 -0.632551
-0.193421 -0.150048 -0.638169
0.67938 -0.0768677 -0.643487
0.768855 -0.107471 -0.690944
-0.206168 -0.0313974 -0.667145
0.0162699 0.0198748 -0.66311
-0.46607 0.198559 -0.526244
0.0711387 0.132863 -0.6445
0.763063 0.111191 -0.741207
-0.184784 0.512426 -0.474416
-0.612397 -0.973433 -0.392066
-0.491419 -0.764471 -0.473919
-0.14932 -0.734298 -0.560937
0.603045 -0.714654 -0.62435
-0.344459 -0.67191 -0.605899
0.293601 -0.630467 -0.600283
-0.953214 -0.599934 -0.489139
-0.42422 -0.503129 -0.603493
-0.500217 -0.421789 -0.578329
0.83384 -0.510482 -0.62121
-0.947507 -0.401064 -0.60649
0.732903 -0.414687 -0.622753
-0.927702 -0.237101 -0.611038
-0.328064 -0.221766 -0.580818
-0.861625 -0.174037 -0.594237
-0.712742 -0.063577 -0.463094
0.457502 -0.161132 -0.581817
-0.515198 -0.0170953 -0.618611
-0.11798 -0.0631588 -0.629171
-0.617064 0.0885541 -0.624903
-0.958887 0.172084 -0.631625
-0.00561783 0.229956 -0.543382
-0.898416 0.235524 -0.594396
-0.0484237 -0.960048 -0.308282
0.398569 -0.771284 -0.460529
0.446485 -0.580232 -0.316007
0.452243 -0.435704 -0.470131
-0.757609 -0.423565 -0.527196
-0.681801 -0.41661 -0.554685
-0.241656 -0.362617 -0.541371
-0.148809 -0.369787 -0.50685
-0.0283231 -0.367269 -0.516293
0.26846 -0.396519 -0.511177
-0.951969 -0.35818 -0.508271
-0.308422 -0.339623 -0.512661
0.148902 -0.295535 -0.508556
0.220514 -0.35026 -0.332357
0.685501 -0.477349 -0.568255
0.276472 -0.212032 -0.429978
0.751884 -0.277051 -0.636542
-0.626242 -0.171085 -0.488085
-0.552024 -0.181093 -0.637097
0.60821 -0.126752 -0.6137
-0.332453 -0.113722 -0.541453
-0.0951354 -0.0647839 -0.533248
0.368206 -0.0143209 -0.523351
-0.683618 0.00929197 -0.609222
0.730886 0.0563308 -0.498185
-0.855876 0.398237 -0.519316
-0.749924 -0.81057 -0.319419
-0.920409 -0.682033 -0.477038
-0.427108 -0.550155 -0.271451
0.0673367 -0.517754 -0.438874
0.884286 -0.448721 -0.435157
-0.882934 -0.41057 -0.46622
-0.744905 -0.384331 -0.417168
-0.175742 -0.35243 -0.427846
0.119547 -0.393398 -0.43415
0.766422 -0.365151 -0.409732
-0.588594 -0.296925 -0.46148
-0.728126 -0.274333 -0.444497
-0.460403 -0.295167 -0.498969
-0.00991193 -0.219999 -0.469256
0.907945 -0.247181 -0.422631
-0.159782 -0.237794 -0.423225
0.108321 -0.168415 -0.510891
0.911181 -0.0757897 -0.456215
0.505899 -0.00951064 -0.496997
0.669381 -0.0522363 -0.323734
-0.947852 0.153296 -0.435168
-0.889302 -0.860864 -0.202948
0.31955 -0.71447 -0.219686
-0.296337 -0.50727 -0.401973
-0.106902 -0.545289 -0.316233
0.21352 -0.428506 -0.38632
0.330932 -0.421466 -0.326212
-0.810257 -0.342742 -0.372942
0.0446451 -0.353471 -0.384493
0.935586 -0.352184 -0.403049
-0.465786 -0.386994 -0.395413
-0.306412 -0.296992 -0.382962
-0.109395 -0.279131 -0.387076
0.463247 -0.31164 -0.389424
-0.840741 -0.219706 -0.343232
0.0954177 -0.249979 -0.418294
0.419427 -0.250507 -0.349764
0.516114 -0.239877 -0.35947
-0.77219 -0.179394 -0.391149
-0.270875 -0.152374 -0.32331
-0.527782 -0.106133 -0.26
-0.13824 -0.0773709 -0.359166
0.530592 -0.0961368 -0.389039
-0.423429 -0.0256224 -0.406861
-0.0681191 -0.034769 -0.403493
0.385693 -0.00669577 -0.354734
0.0308718 0.0282598 -0.403372
0.817305 -0.811783 -0.246868
0.0637023 -0.527541 -0.295436
0.367263 -0.537078 -0.266795
-0.0211623 -0.432113 -0.26659
0.834132 -0.485399 -0.310301
-0.727223 -0.373235 -0.316584
-0.307682 -0.359804 -0.307444
-0.0533944 -0.363934 -0.296201
-0.869886 -0.314146 -0.314874
-0.537936 -0.373465 -0.311938
-0.460579 -0.280739 -0.277445
-0.015378 -0.286196 -0.337094
0.229195 -0.266068 -0.279678
0.84749 -0.267231 -0.319168
-0.908223 -0.236974 -0.281154
0.502147 -0.202727 -0.290769
0.783743 -0.142749 -0.303787
-0.825875 -0.0921221 -0.32363
-0.19733 -0.0959306 -0.317686
0.297708 -0.106224 -0.273449
-0.208599 -0.00259318 -0.321201
-0.272464 0.0286507 -0.266753
-0.913041 0.286031 -0.261758
0.82242 -0.695663 -0.0109945
-0.394944 -0.617837 -0.230727
0.545049 -0.525395 -0.235011
0.469439 -0.436042 -0.255464
-0.897643 -0.396818 -0.202886
-0.822885 -0.364528 -0.253178
0.33089 -0.394806 -0.213675
0.645303 -0.37777 -0.211286
0.776144 -0.349109 -0.219635
0.891346 -0.379818 -0.220501
-0.36403 -0.29006 -0.227107
-0.139713 -0.300441 -0.22505
0.00784327 -0.366235 -0.197649
0.390647 -0.320545 -0.237946
0.504548 -0.299636 -0.184347
0.394221 -0.246756 -0.192342
-0.87025 -0.14432 -0.247812
-0.50665 -0.213928 -0.220752
-0.406352 -0.158063 -0.258801
-0.3159 -0.222068 -0.248907
-0.134069 -0.154373 -0.184727
0.590074 -0.170577 -0.256415
0.0775976 -0.174984 -0.226885
0.466384 -0.0416912 -0.27051
-0.898977 0.0392815 -0.227944
-0.753004 0.200262 -0.184565
-0.908371 0.364028 -0.199044
-0.164431 -0.858487 0.0308478
0.133554 -0.898265 -0.280426
-0.66383 -0.505263 -0.0453826
-0.116175 -0.503226 -0.171027
-0.799255 -0.442748 -0.179694
0.159584 -0.484441 -0.139699
-0.51964 -0.410079 -0.104631
-0.365256 -0.384751 -0.141278
-0.255479 -0.371058 -0.158173
-0.134565 -0.368507 -0.138073
-0.0715104 -0.425994 -0.172499
0.230788 -0.370265 -0.176584
0.591331 -0.32752 -0.110049
0.745203 -0.370944 -0.137075
-0.654186 -0.330502 -0.152096
-0.564499 -0.35288 -0.140596
-0.417618 -0.316101 -0.150933
-0.187997 -0.294462 -0.159787
0.153559 -0.327284 -0.178219
[...]
POINT_DATA 686
VECTORS i float
0.0 0.0 0.0
0.0 0.0 0.0
0.0 0.0 0.0
0.0 0.0 0.0
0.0 0.0 0.0
0.0 0.0 0.0
0.0 0.0 0.0
0.0 0.0 0.0
0.0 0.0 0.0
0.0 0.0 0.0
0.0 0.0 0.0
0.0 0.0 0.0
0.0 0.0 0.0
0.0 0.0 0.0
0.0 0.0 0.0
0.0 0.0 0.0
0.0 0.0 0.0
0.0 0.0 0.0
0.0 0.0 0.0
0.0 0.0 0.0
0.0 0.0 0.0
0.0 0.0 0.0
0.0 0.0 0.0
0.0 0.0 0.0
0.0 0.0 0.0
0.0 0.0 0.0
0.0 0.0 0.0
0.0 0.0 0.0
0.0 0.0 0.0
0.0 0.0 0.0
0.0 0.0 0.0
0.0 0.0 0.0
0.0 0.0 0.0
0.0 0.0 0.0
0.0 0.0 0.0
0.0 0.0 0.0
0.0 0.0 0.0
0.0 0.0 0.0
0.0 0.0 0.0
0.0 0.0 0.0
0.0 0.0 0.0
0.0 0.0 0.0
0.0 0.0 0.0
0.0 0.0 0.0
0.0 0.0 0.0
0.0 0.0 0.0
0.0 0.0 0.0
0.0 0.0 0.0
0.0 0.0 0.0
0.0 0.0 0.0
0.0 0.0 0.0
0.0 0.0 0.0
0.0 0.0 0.0
0.0 0.0 0.0
0.0 0.0 0.0
0.0 0.0 0.0
0.0 0.0 0.0
0.0 0.0 0.0
0.0 0.0 0.0
0.0 0.0 0.0
0.0 0.0 0.0
0.0 0.0 0.0
0.0 0.0 0.0
0.0 0.0 0.0
0.0 0.0 0.0
0.0 0.0 0.0
0.0 0.0 0.0
0.0 0.0 0.0
0.0 0.0 0.0
0.0 0.0 0.0
0.0 0.0 0.0
0.0 0.0 0.0
0.0 0.0 0.0
0.0 0.0 0.0
0.0 0.0 0.0
0.0 0.0 0.0
0.0 0.0 0.0
0.0 0.0 0.0
0.0 0.0 0.0
0.0 0.0 0.0
0.0 0.0 0.0
0.0 0.0 0.0
0.0 0.0 0.0
0.0 0.0 0.0
0.0 0.0 0.0
0.0 0.0 0.0
0.0 0.0 0.0
0.0 0.0 0.0
0.0 0.0 0.0
0.0 0.0 0.0
0.0 0.0 0.0
0.0 0.0 0.0
0.0 0.0 0.0
0.0 0.0 0.0
0.0 0.0 0.0
0.0 0.0 0.0
0.0 0.0 0.0
0.0 0.0 0.0
0.0 0.0 0.0
0.0 0.0 0.0
0.0 0.0 0.0
0.0 0.0 0.0
0.0 0.0 0.0
0.0 0.0 0.0
0.0 0.0 0.0
0.0 0.0 0.0
0.0 0.0 0.0
0.0 0.0 0.0
0.0 0.0 0.0
0.0 0.0 0.0
0.0 0.0 0.0
0.0 0.0 0.0
0.0 0.0 0.0
0.0 0.0 0.0
0.0 0.0 0.0
0.0 0.0 0.0
0.0 0.0 0.0
0.0 0.0 0.0
0.0 0.0 0.0
0.0 0.0 0.0
0.0 0.0 0.0
0.0 0.0 0.0
0.0 0.0 0.0
0.0 0.0 0.0
0.0 0.0 0.0
0.0 0.0 0.0
0.0 0.0 0.0
0.0 0.0 0.0
0.0 0.0 0.0
0.0 0.0 0.0
0.0 0.0 0.0
0.0 0.0 0.0
0.0 0.0 0.0
0.0 0.0 0.0
0.0 0.0 0.0
0.0 0.0 0.0
0.0 0.0 0.0
0.0 0.0 0.0
0.0 0.0 0.0
0.0 0.0 0.0
0.0 0.0 0.0
0.0 0.0 0.0
0.0 0.0 0.0
0.0 0.0 0.0
0.0 0.0 0.0
0.0 0.0 0.0
0.0 0.0 0.0
0.0 0.0 0.0
0.0 0.0 0.0
0.0 0.0 0.0
0.0 0.0 0.0
0.0 0.0 0.0
0.0 0.0 0.0
0.0 0.0 0.0
0.0 0.0 0.0
0.0 0.0 0.0
0.0 0.0 0.0
0.0 0.0 0.0
0.0 0.0 0.0
0.0 0.0 0.0
0.0 0.0 0.0
0.0 0.0 0.0
0.0 0.0 0.0
0.0 0.0 0.0
0.0 0.0 0.0
0.0 0.0 0.0
0.0 0.0 0.0
0.0 0.0 0.0
0.0 0.0 0.0
0.0 0.0 0.0
0.0 0.0 0.0
0.0 0.0 0.0
0.0 0.0 0.0
0.0 0.0 0.0
0.0 0.0 0.0
0.0 0.0 0.0
0.0 0.0 0.0
0.0 0.0 0.0
0.0 0.0 0.0
0.0 0.0 0.0
0.0 0.0 0.0
0.0 0.0 0.0
0.0 0.0 0.0
0.0 0.0 0.0
0.0 0.0 0.0
0.0 0.0 0.0
0.0 0.0 0.0
0.0 0.0 0.0
0.0 0.0 0.0
0.0 0.0 0.0
0.0 0.0 0.0
0.0 0.0 0.0
0.0 0.0 0.0
0.0 0.0 0.0
0.0 0.0 0.0
0.0 0.0 0.0
0.0 0.0 0.0
0.0 0.0 0.0
0.0 0.0 0.0
0.0 0.0 0.0
0.0 0.0 0.0
0.0 0.0 0.0
0.0 0.0 0.0
0.0 0.0 0.0
0.0 0.0 0.0
0.0 0.0 0.0
0.0 0.0 0.0
0.0 0.0 0.0
0.0 0.0 0.0
0.0 0.0 0.0
0.0 0.0 0.0
0.0 0.0 0.0
0.0 0.0 0.0
0.0 0.0 0.0
0.0 0.0 0.0
0.0 0.0 0.0
0.0 0.0 0.0
0.0 0.0 0.0
0.0 0.0 0.0
0.0 0.0 0.0
0.0 0.0 0.0
0.0 0.0 0.0
0.0 0.0 0.0
0.0 0.0 0.0
0.0 0.0 0.0
0.0 0.0 0.0
0.0 0.0 0.0
0.0 0.0 0.0
0.0 0.0 0.0
0.0 0.0 0.0
0.0 0.0 0.0
0.0 0.0 0.0
0.0 0.0 0.0
0.0 0.0 0.0
0.0 0.0 0.0
0.0 0.0 0.0
0.0 0.0 0.0
0.0 0.0 0.0
0.0 0.0 0.0
0.0 0.0 0.0
0.0 0.0 0.0
0.0 0.0 0.0
0.0 0.0 0.0
0.0 0.0 0.0
0.0 0.0 0.0
0.0 0.0 0.0
0.0 0.0 0.0
0.0 0.0 0.0
0.0 0.0 0.0
0.0 0.0 0.0
0.0 0.0 0.0
0.0 0.0 0.0
0.0 0.0 0.0
0.0 0.0 0.0
0.0 0.0 0.0
0.0 0.0 0.0
0.0 0.0 0.0
0.0 0.0 0.0
0.0 0.0 0.0
0.0 0.0 0.0
0.0 0.0 0.0
0.0 0.0 0.0
0.0 0.0 0.0
0.0 0.0 0.0
0.0 0.0 0.0
0.0 0.0 0.0
0.0 0.0 0.0
0.0 0.0 0.0
0.0 0.0 0.0
0.0 0.0 0.0
0.0 0.0 0.0
0.0 0.0 0.0
0.0 0.0 0.0
0.0 0.0 0.0
0.0 0.0 0.0
0.0 0.0 0.0
0.0 0.0 0.0
0.0 0.0 0.0
0.0 0.0 0.0
0.0 0.0 0.0
0.0 0.0 0.0
0.0 0.0 0.0
0.0 0.0 0.0
0.0 0.0 0.0
0.0 0.0 0.0
0.0 0.0 0.0
0.0 0.0 0.0
0.0 0.0 0.0
0.0 0.0 0.0
0.0 0.0 0.0
0.0 0.0 0.0
0.0 0.0 0.0
0.0 0.0 0.0
0.0 0.0 0.0
0.0 0.0 0.0
0.0 0.0 0.0
0.0 0.0 0.0
0.0 0.0 0.0
0.0 0.0 0.0
0.0 0.0 0.0
0.0 0.0 0.0
0.0 0.0 0.0
0.0 0.0 0.0
0.0 0.0 0.0
0.0 0.0 0.0
0.0 0.0 0.0
0.0 0.0 0.0
0.0 0.0 0.0
0.0 0.0 0.0
0.0 0.0 0.0
0.0 0.0 0.0
0.0 0.0 0.0
0.0 0.0 0.0
0.0 0.0 0.0
0.0 0.0 0.0
0.0 0.0 0.0
0.0 0.0 0.0
0.0 0.0 0.0
0.0 0.0 0.0
0.0 0.0 0.0
0.0 0.0 0.0
0.0 0.0 0.0
0.0 0.0 0.0
0.0 0.0 0.0
0.0 0.0 0.0
0.0 0.0 0.0
0.0 0.0 0.0
0.0 0.0 0.0
0.0 0.0 0.0
0.0 0.0 0.0
0.0 0.0 0.0
0.0 0.0 0.0
0.0 0.0 0.0
0.0 0.0 0.0
0.0 0.0 0.0
0.0 0.0 0.0
0.0 0.0 0.0
0.0 0.0 0.0
0.0 0.0 0.0
0.0 0.0 0.0
0.0 0.0 0.0
0.0 0.0 0.0
0.0 0.0 0.0
0.0 0.0 0.0
0.0 0.0 0.0
0.0 0.0 0.0
0.0 0.0 0.0
0.0 0.0 0.0
0.0 0.0 0.0
0.0 0.0 0.0
0.0 0.0 0.0
0.0 0.0 0.0
0.0 0.0 0.0
0.0 0.0 0.0
0.0 0.0 0.0
0.0 0.0 0.0
0.0 0.0 0.0
0.0 0.0 0.0
0.0 0.0 0.0
0.0 0.0 0.0
0.0 0.0 0.0
0.0 0.0 0.0
0.0 0.0 0.0
0.0 0.0 0.0
0.0 0.0 0.0
0.0 0.0 0.0
0.0 0.0 0.0
0.0 0.0 0.0
0.0 0.0 0.0
0.0 0.0 0.0
0.0 0.0 0.0
0.0 0.0 0.0
0.0 0.0 0.0
0.0 0.0 0.0
0.0 0.0 0.0
0.0 0.0 0.0
0.0 0.0 0.0
0.0 0.0 0.0
0.0 0.0 0.0
0.0 0.0 0.0
0.0 0.0 0.0
0.0 0.0 0.0
0.0 0.0 0.0
0.0 0.0 0.0
0.0 0.0 0.0
0.0 0.0 0.0
0.0 0.0 0.0
0.0 0.0 0.0
0.0 0.0 0.0
0.0 0.0 0.0
0.0 0.0 0.0
0.0 0.0 0.0
0.0 0.0 0.0
0.0 0.0 0.0
0.0 0.0 0.0
0.0 0.0 0.0
0.0 0.0 0.0
0.0 0.0 0.0
0.0 0.0 0.0
0.0 0.0 0.0
0.0 0.0 0.0
0.0 0.0 0.0
0.0 0.0 0.0
0.0 0.0 0.0
0.0 0.0 0.0
0.0 0.0 0.0
0.0 0.0 0.0
0.0 0.0 0.0
0.0 0.0 0.0
0.0 0.0 0.0
0.0 0.0 0.0
0.0 0.0 0.0
0.0 0.0 0.0
0.0 0.0 0.0
0.0 0.0 0.0
0.0 0.0 0.0
0.0 0.0 0.0
0.0 0.0 0.0
0.0 0.0 0.0
0.0 0.0 0.0
0.0 0.0 0.0
0.0 0.0 0.0
0.0 0.0 0.0
0.0 0.0 0.0
0.0 0.0 0.0
0.0 0.0 0.0
0.0 0.0 0.0
0.0 0.0 0.0
0.0 0.0 0.0
0.0 0.0 0.0
0.0 0.0 0.0
0.0 0.0 0.0
0.0 0.0 0.0
0.0 0.0 0.0
0.0 0.0 0.0
0.0 0.0 0.0
0.0 0.0 0.0
0.0 0.0 0.0
0.0 0.0 0.0
0.0 0.0 0.0
0.0 0.0 0.0
0.0 0.0 0.0
0.0 0.0 0.0
0.0 0.0 0.0
0.0 0.0 0.0
0.0 0.0 0.0
0.0 0.0 0.0
0.0 0.0 0.0
0.0 0.0 0.0
0.0 0.0 0.0
0.0 0.0 0.0
0.0 0.0 0.0
0.0 0.0 0.0
0.0 0.0 0.0
0.0 0.0 0.0
0.0 0.0 0.0
0.0 0.0 0.0
0.0 0.0 0.0
0.0 0.0 0.0
0.0 0.0 0.0
0.0 0.0 0.0
0.0 0.0 0.0
0.0 0.0 0.0
0.0 0.0 0.0
0.0 0.0 0.0
0.0 0.0 0.0
0.0 0.0 0.0
0.0 0.0 0.0
0.0 0.0 0.0
0.0 0.0 0.0
0.0 0.0 0.0
0.0 0.0 0.0
0.0 0.0 0.0
0.0 0.0 0.0
0.0 0.0 0.0
0.0 0.0 0.0
0.0 0.0 0.0
0.0 0.0 0.0
0.0 0.0 0.0
0.0 0.0 0.0
0.0 0.0 0.0
0.0 0.0 0.0
0.0 0.0 0.0
0.0 0.0 0.0
0.0 0.0 0.0
0.0 0.0 0.0
0.0 0.0 0.0
0.0 0.0 0.0
0.0 0.0 0.0
0.0 0.0 0.0
0.0 0.0 0.0
0.0 0.0 0.0
0.0 0.0 0.0
0.0 0.0 0.0
0.0 0.0 0.0
0.0 0.0 0.0
0.0 0.0 0.0
0.0 0.0 0.0
0.0 0.0 0.0
0.0 0.0 0.0
0.0 0.0 0.0
0.0 0.0 0.0
0.0 0.0 0.0
0.0 0.0 0.0
0.0 0.0 0.0
0.0 0.0 0.0
0.0 0.0 0.0
0.0 0.0 0.0
0.0 0.0 0.0
0.0 0.0 0.0
0.0 0.0 0.0
0.0 0.0 0.0
0.0 0.0 0.0
0.0 0.0 0.0
0.0 0.0 0.0
0.0 0.0 0.0
0.0 0.0 0.0
0.0 0.0 0.0
0.0 0.0 0.0
0.0 0.0 0.0
0.0 0.0 0.0
0.0 0.0 0.0
0.0 0.0 0.0
0.0 0.0 0.0
0.0 0.0 0.0
0.0 0.0 0.0
0.0 0.0 0.0
0.0 0.0 0.0
0.0 0.0 0.0
0.0 0.0 0.0
0.0 0.0 0.0
0.0 0.0 0.0
0.0 0.0 0.0
0.0 0.0 0.0
0.0 0.0 0.0
0.0 0.0 0.0
0.0 0.0 0.0
0.0 0.0 0.0
0.0 0.0 0.0
0.0 0.0 0.0
0.0 0.0 0.0
0.0 0.0 0.0
0.0 0.0 0.0
0.0 0.0 0.0
0.0 0.0 0.0
0.0 0.0 0.0
0.0 0.0 0.0
0.0 0.0 0.0
0.0 0.0 0.0
0.0 0.0 0.0
0.0 0.0 0.0
0.0 0.0 0.0
0.0 0.0 0.0
0.0 0.0 0.0
0.0 0.0 0.0
0.0 0.0 0.0
0.0 0.0 0.0
0.0 0.0 0.0
0.0 0.0 0.0
0.0 0.0 0.0
0.0 0.0 0.0
0.0 0.0 0.0
0.0 0.0 0.0
0.0 0.0 0.0
0.0 0.0 0.0
0.0 0.0 0.0
0.0 0.0 0.0
0.0 0.0 0.0
0.0 0.0 0.0
0.0 0.0 0.0
0.0 0.0 0.0
0.0 0.0 0.0
0.0 0.0 0.0
0.0 0.0 0.0
0.0 0.0 0.0
0.0 0.0 0.0
0.0 0.0 0.0
0.0 0.0 0.0
0.0 0.0 0.0
0.0 0.0 0.0
0.0 0.0 0.0
0.0 0.0 0.0
0.0 0.0 0.0
0.0 0.0 0.0
0.0 0.0 0.0
0.0 0.0 0.0
0.0 0.0 0.0
0.0 0.0 0.0
0.0 0.0 0.0
0.0 0.0 0.0
0.0 0.0 0.0
0.0 0.0 0.0
0.0 0.0 0.0
0.0 0.0 0.0
0.0 0.0 0.0
0.0 0.0 0.0
0.0 0.0 0.0
0.0 0.0 0.0
0.0 0.0 0.0
0.0 0.0 0.0
0.0 0.0 0.0
0.0 0.0 0.0
0.0 0.0 0.0
0.0 0.0 0.0
0.0 0.0 0.0
0.0 0.0 0.0
0.0 0.0 0.0
0.0 0.0 0.0
0.0 0.0 0.0
0.0 0.0 0.0
0.0 0.0 0.0
0.0 0.0 0.0
0.0 0.0 0.0
0.0 0.0 0.0
0.0 0.0 0.0
0.0 0.0 0.0
0.0 0.0 0.0
0.0 0.0 0.0
0.0 0.0 0.0
0.0 0.0 0.0
0.0 0.0 0.0
0.0 0.0 0.0
0.0 0.0 0.0
0.0 0.0 0.0
0.0 0.0 0.0
0.0 0.0 0.0
0.0 0.0 0.0
0.0 0.0 0.0
0.0 0.0 0.0
0.0 0.0 0.0
0.0 0.0 0.0
0.0 0.0 0.0
0.0 0.0 0.0
0.0 0.0 0.0
0.0 0.0 0.0
0.0 0.0 0.0
0.0 0.0 0.0
0.0 0.0 0.0
0.0 0.0 0.0
0.0 0.0 0.0
0.0 0.0 0.0
0.0 0.0 0.0
0.0 0.0 0.0
0.0 0.0 0.0
0.0 0.0 0.0
0.0 0.0 0.0
0.0 0.0 0.0
0.0 0.0 0.0
0.0 0.0 0.0
0.0 0.0 0.0
0.0 0.0 0.0
0.0 0.0 0.0
0.0 0.0 0.0
0.0 0.0 0.0
0.0 0.0 0.0
0.0 0.0 0.0
0.0 0.0 0.0
0.0 0.0 0.0
0.0 0.0 0.0
0.0 0.0 0.0
0.0 0.0 0.0
0.0 0.0 0.0
0.0 0.0 0.0
0.0 0.0 0.0
0.0 0.0 0.0
0.0 0.0 0.0
0.0 0.0 0.0
0.0 0.0 0.0
0.0 0.0 0.0
0.0 0.0 0.0
0.0 0.0 0.0
0.0 0.0 0.0
0.0 0.0 0.0
0.0 0.0 0.0
0.0 0.0 0.0
0.0 0.0 0.0
0.0 0.0 0.0
0.0 0.0 0.0
0.0 0.0 0.0
0.0 0.0 0.0
0.0 0.0 0.0
0.0 0.0 0.0
0.0 0.0 0.0
0.0 0.0 0.0
0.0 0.0 0.0
0.0 0.0 0.0
VECTORS f float
0.0 0.0 -6.57473
125.001 198.287 32.3134
168.687 -103.245 -258.517
-112.467 -106.002 -122.047
0.0 0.0 -6.57473
22.8338 10.0367 492.271
0.0 0.0 -6.57473
0.0 0.0 -6.57473
0.0 0.0 -6.57473
-36.3244 177.712 -127.947
-117.571 171.082 -612.092
570.566 -100.134 308.078
0.0 0.0 -6.57473
-570.566 100.134 -321.228
0.0 0.0 -6.57473
0.0 0.0 -6.57473
-10.2761 3.37829 -7.38394
0.0 0.0 -6.57473
0.0 0.0 -6.57473
0.0 0.0 -6.57473
0.0 0.0 -6.57473
195.968 376.925 -591.398
0.0 0.0 -6.57473
0.0 0.0 -6.57473
0.0 0.0 -6.57473
0.0 0.0 -6.57473
1.81545 2.27263 51.5998
-2.04188 10.4013 205.422
0.0 0.0 -6.57473
-79.9223 -380.467 -353.246
0.0 0.0 -6.57473
0.0 0.0 -6.57473
0.276293 2.54692 44.6625
-644.781 32.0923 -3.50187
0.0 0.0 -6.57473
0.0 0.0 -6.57473
-2.18626 -29.6942 588.917
444.127 15.2976 -22.6715
-59.7364 346.518 -18.9949
0.0 0.0 -6.57473
-170.468 7.72487 -90.0861
0.0 0.0 -6.57473
0.0 0.0 -6.57473
58.8751 -1.10898 -9.3016
-21.267 -5.40952 728.03
0.0 0.0 -6.57473
-51.9522 -1.31204 -4.33282
-7.48292 29.8992 14.1486
0.0 0.0 -6.57473
0.0 0.0 -6.57473
-195.968 -376.925 578.248
-125.001 -198.287 -45.4628
0.0 0.0 -6.57473
0.0 0.0 -6.57473
0.0 0.0 -6.57473
0.0 0.0 -6.57473
0.0 0.0 -6.57473
0.0 0.0 -6.57473
0.0 0.0 -6.57473
0.0 0.0 -6.57473
0.0 0.0 -6.57473
0.0 0.0 -6.57473
0.0 0.0 -6.57473
0.0 0.0 -6.57473
121.916 104.517 -95.2327
0.0 0.0 -6.57473
14.1208 0.935172 572.349
0.0 0.0 -6.57473
0.0 0.0 -6.57473
0.0 0.0 -6.57473
22.1729 -33.517 797.173
0.0 0.0 -6.57473
0.0 0.0 -6.57473
170.468 -7.72487 76.9366
0.0 0.0 -6.57473
0.0 0.0 -6.57473
0.0 0.0 -6.57473
0.0 0.0 -6.57473
0.0 0.0 -6.57473
0.0 0.0 -6.57473
0.0 0.0 -6.57473
0.0 0.0 -6.57473
0.0 0.0 -6.57473
0.0 0.0 -6.57473
0.0 0.0 -6.57473
0.0 0.0 -6.57473
0.0 0.0 -6.57473
-168.687 103.245 245.367
0.0 0.0 -6.57473
-17.0002 21.053 534.622
-150.461 493.285 -209.041
0.0 0.0 -6.57473
80.4354 66.0289 404.096
-92.5024 -258.209 523.141
0.0 0.0 -6.57473
0.0 0.0 -6.57473
0.0 0.0 -6.57473
36.3244 -177.712 114.798
322.541 193.129 184.699
0.0 0.0 -6.57473
0.0 0.0 -6.57473
0.0 0.0 -6.57473
0.0 0.0 -6.57473
0.0 0.0 -6.57473
10.2761 -3.37829 -5.76551
0.0 0.0 -6.57473
0.0 0.0 -6.57473
0.0 0.0 -6.57473
0.0 0.0 -6.57473
0.0 0.0 -6.57473
0.0 0.0 -6.57473
150.461 -493.285 195.891
0.0 0.0 -6.57473
0.0 0.0 -6.57473
0.0 0.0 -6.57473
60.6634 -27.0291 46.887
0.0 0.0 -6.57473
0.0 0.0 -6.57473
0.0 0.0 -6.57473
0.0 0.0 -6.57473
0.0 0.0 -6.57473
0.0 0.0 -6.57473
0.0 0.0 -6.57473
0.0 0.0 -6.57473
0.0 0.0 -6.57473
0.0 0.0 -6.57473
123.585 -3.47543 -1.4655
0.0 0.0 -6.57473
0.0 0.0 -6.57473
0.0 0.0 -6.57473
0.0 0.0 -6.57473
0.0 0.0 -6.57473
0.0 0.0 -6.57473
0.0 0.0 -6.57473
-121.916 -104.517 82.0832
0.0 0.0 -6.57473
0.0 0.0 -6.57473
0.0 0.0 -6.57473
0.0 0.0 -6.57473
-347.399 -350.103 -365.494
0.0 0.0 -6.57473
0.0 0.0 -6.57473
0.0 0.0 -6.57473
0.0 0.0 -6.57473
0.0 0.0 -6.57473
0.0 0.0 -6.57473
0.0 0.0 -6.57473
0.0 0.0 -6.57473
-10.0922 411.973 -24.5317
0.0 0.0 -6.57473
0.0 0.0 -6.57473
0.0 0.0 -6.57473
0.0 0.0 -6.57473
0.0 0.0 -6.57473
0.0 0.0 -6.57473
0.0 0.0 -6.57473
0.0 0.0 -6.57473
0.0 0.0 -6.57473
0.0 0.0 -6.57473
0.0 0.0 -6.57473
0.0 0.0 -6.57473
0.0 0.0 -6.57473
0.0 0.0 -6.57473
0.0 0.0 -6.57473
0.0 0.0 -6.57473
0.0 0.0 -6.57473
0.0 0.0 -6.57473
0.0 0.0 -6.57473
0.0 0.0 -6.57473
0.0 0.0 -6.57473
0.0 0.0 -6.57473
0.0 0.0 -6.57473
13.6353 726.336 -40.2346
0.0 0.0 -6.57473
0.0 0.0 -6.57473
0.0 0.0 -6.57473
0.0 0.0 -6.57473
0.0 0.0 -6.57473
0.0 0.0 -6.57473
0.0 0.0 -6.57473
0.0 0.0 -6.57473
0.0 0.0 -6.57473
0.0 0.0 -6.57473
0.0 0.0 -6.57473
0.0 0.0 -6.57473
0.0 0.0 -6.57473
0.0 0.0 -6.57473
0.0 0.0 -6.57473
0.0 0.0 -6.57473
0.0 0.0 -6.57473
0.0 0.0 -6.57473
0.0 0.0 -6.57473
0.0 0.0 -6.57473
0.0 0.0 -6.57473
0.0 0.0 -6.57473
-1.01599 -27.0909 -7.47059
0.0 0.0 -6.57473
0.0 0.0 -6.57473
0.0 0.0 -6.57473
0.0 0.0 -6.57473
0.0 0.0 -6.57473
124.44 -42.8947 -59.6728
0.0 0.0 -6.57473
0.0 0.0 -6.57473
0.0 0.0 -6.57473
0.0 0.0 -6.57473
-124.44 42.8947 46.5233
0.0 0.0 -6.57473
0.0 0.0 -6.57473
0.0 0.0 -6.57473
0.0 0.0 -6.57473
0.0 0.0 -6.57473
0.0 0.0 -6.57473
0.0 0.0 -6.57473
347.399 350.103 352.345
0.0 0.0 -6.57473
0.0 0.0 -6.57473
0.0 0.0 -6.57473
0.0 0.0 -6.57473
0.0 0.0 -6.57473
0.0 0.0 -6.57473
0.0 0.0 -6.57473
0.0 0.0 -6.57473
0.0 0.0 -6.57473
0.0 0.0 -6.57473
0.0 0.0 -6.57473
0.0 0.0 -6.57473
0.0 0.0 -6.57473
0.0 0.0 -6.57473
0.0 0.0 -6.57473
0.0 0.0 -6.57473
0.0 0.0 -6.57473
0.0 0.0 -6.57473
0.0 0.0 -6.57473
0.0 0.0 -6.57473
0.0 0.0 -6.57473
-130.823 106.423 -89.4134
0.0 0.0 -6.57473
0.0 0.0 -6.57473
0.0 0.0 -6.57473
0.0 0.0 -6.57473
0.0 0.0 -6.57473
0.0 0.0 -6.57473
0.0 0.0 -6.57473
0.0 0.0 -6.57473
0.0 0.0 -6.57473
0.0 0.0 -6.57473
0.0 0.0 -6.57473
0.0 0.0 -6.57473
0.0 0.0 -6.57473
0.0 0.0 -6.57473
0.0 0.0 -6.57473
0.0 0.0 -6.57473
130.823 -106.423 76.2639
0.0 0.0 -6.57473
0.0 0.0 -6.57473
0.0 0.0 -6.57473
0.0 0.0 -6.57473
3.53359 -12.7291 -28.3619
0.0 0.0 -6.57473
0.0 0.0 -6.57473
0.0 0.0 -6.57473
171.08 48.1591 -114.808
0.0 0.0 -6.57473
0.0 0.0 -6.57473
0.0 0.0 -6.57473
0.0 0.0 -6.57473
0.0 0.0 -6.57473
0.0 0.0 -6.57473
0.0 0.0 -6.57473
0.0 0.0 -6.57473
0.0 0.0 -6.57473
0.0 0.0 -6.57473
0.0 0.0 -6.57473
0.0 0.0 -6.57473
0.0 0.0 -6.57473
0.0 0.0 -6.57473
0.0 0.0 -6.57473
0.0 0.0 -6.57473
0.0 0.0 -6.57473
0.0 0.0 -6.57473
0.0 0.0 -6.57473
0.0 0.0 -6.57473
-3.53359 12.7291 15.2124
0.0 0.0 -6.57473
0.0 0.0 -6.57473
-171.08 -48.1591 101.659
0.0 0.0 -6.57473
0.0 0.0 -6.57473
0.0 0.0 -6.57473
0.0 0.0 -6.57473
0.0 0.0 -6.57473
0.0 0.0 -6.57473
0.0 0.0 -6.57473
0.0 0.0 -6.57473
0.0 0.0 -6.57473
0.0 0.0 -6.57473
0.0 0.0 -6.57473
0.0 0.0 -6.57473
0.0 0.0 -6.57473
-58.7022 -42.5135 -68.0846
0.0 0.0 -6.57473
0.0 0.0 -6.57473
0.0 0.0 -6.57473
0.0 0.0 -6.57473
0.0 0.0 -6.57473
0.0 0.0 -6.57473
0.0 0.0 -6.57473
0.0 0.0 -6.57473
0.0 0.0 -6.57473
0.0 0.0 -6.57473
0.0 0.0 -6.57473
0.0 0.0 -6.57473
0.0 0.0 -6.57473
0.0 0.0 -6.57473
0.0 0.0 -6.57473
0.0 0.0 -6.57473
0.0 0.0 -6.57473
0.0 0.0 -6.57473
0.0 0.0 -6.57473
0.0 0.0 -6.57473
0.0 0.0 -6.57473
0.0 0.0 -6.57473
0.0 0.0 -6.57473
0.0 0.0 -6.57473
0.0 0.0 -6.57473
0.0 0.0 -6.57473
0.0 0.0 -6.57473
0.0 0.0 -6.57473
0.0 0.0 -6.57473
-28.3476 -65.896 -9.21094
0.0 0.0 -6.57473
0.0 0.0 -6.57473
0.0 0.0 -6.57473
0.0 0.0 -6.57473
0.0 0.0 -6.57473
0.0 0.0 -6.57473
0.0 0.0 -6.57473
58.7022 42.5135 54.9352
0.0 0.0 -6.57473
0.0 0.0 -6.57473
0.0 0.0 -6.57473
33.8873 -36.4656 21.0793
0.0 0.0 -6.57473
0.0 0.0 -6.57473
0.0 0.0 -6.57473
0.0 0.0 -6.57473
28.3476 65.896 -3.93851
0.0 0.0 -6.57473
0.0 0.0 -6.57473
0.0 0.0 -6.57473
0.0 0.0 -6.57473
0.0 0.0 -6.57473
0.0 0.0 -6.57473
-6.69818 -31.8177 -54.2716
0.0 0.0 -6.57473
0.0 0.0 -6.57473
0.0 0.0 -6.57473
0.0 0.0 -6.57473
0.0 0.0 -6.57473
0.0 0.0 -6.57473
0.0 0.0 -6.57473
0.0 0.0 -6.57473
0.0 0.0 -6.57473
0.0 0.0 -6.57473
0.0 0.0 -6.57473
0.0 0.0 -6.57473
0.0 0.0 -6.57473
0.0 0.0 -6.57473
1.09333 0.0338934 15.3023
-14.5777 2.31897 49.477
0.0 0.0 -6.57473
11.0595 -0.711943 215.074
0.0 0.0 -6.57473
1.46752 -0.031006 22.7822
1.81658 -0.0328489 29.7628
-1.34271 -0.688713 29.7499
0.0 0.0 -6.57473
0.0 0.0 -6.57473
2.43649 -61.6964 10.4973
0.0 0.0 -6.57473
0.0 0.0 -6.57473
1.97837 -0.0808074 33.0258
0.0 0.0 -6.57473
0.0 0.0 -6.57473
-6.61666 -18.1666 -18.9845
0.0 0.0 -6.57473
0.203969 0.0100042 -2.49044
0.154926 -0.00799161 -3.47209
0.0 0.0 -6.57473
0.0 0.0 -6.57473
0.0 0.0 -6.57473
0.0 0.0 -6.57473
5.07274 -0.449422 95.2775
0.0 0.0 -6.57473
0.0 0.0 -6.57473
0.0 0.0 -6.57473
0.622123 -0.0137663 5.87077
0.0 0.0 -6.57473
0.0 0.0 -6.57473
0.0 0.0 -6.57473
0.0 0.0 -6.57473
0.0 0.0 -6.57473
0.0 0.0 -6.57473
0.0 0.0 -6.57473
0.0 0.0 -6.57473
0.0 0.0 -6.57473
0.0 0.0 -6.57473
0.0 0.0 -6.57473
0.0 0.0 -6.57473
0.0 0.0 -6.57473
0.0 0.0 -6.57473
0.0 0.0 -6.57473
0.0 0.0 -6.57473
0.0 0.0 -6.57473
0.0 0.0 -6.57473
0.0 0.0 -6.57473
0.0 0.0 -6.57473
0.0 0.0 -6.57473
0.0 0.0 -6.57473
0.0 0.0 -6.57473
0.0 0.0 -6.57473
0.0 0.0 -6.57473
0.0 0.0 -6.57473
0.0 0.0 -6.57473
0.0 0.0 -6.57473
0.0 0.0 -6.57473
0.0 0.0 -6.57473
0.0 0.0 -6.57473
0.0 0.0 -6.57473
0.0 0.0 -6.57473
0.0 0.0 -6.57473
0.0 0.0 -6.57473
0.0 0.0 -6.57473
0.0 0.0 -6.57473
0.0 0.0 -6.57473
0.0 0.0 -6.57473
-37.022 -83.8544 32.7207
0.0 0.0 -6.57473
0.0 0.0 -6.57473
0.0 0.0 -6.57473
0.0 0.0 -6.57473
0.0 0.0 -6.57473
0.0 0.0 -6.57473
0.0 0.0 -6.57473
0.0 0.0 -6.57473
0.0 0.0 -6.57473
-3.04466 -32.7902 15.5781
6.29927 -17.9923 -5.54315
0.0 0.0 -6.57473
0.0 0.0 -6.57473
0.0 0.0 -6.57473
0.0 0.0 -6.57473
8.86401 -9.72001 -7.24718
0.0 0.0 -6.57473
0.0 0.0 -6.57473
0.0 0.0 -6.57473
0.0 0.0 -6.57473
0.0 0.0 -6.57473
3.04466 32.7902 -28.7276
-1.65285 10.2404 -8.44884
0.0 0.0 -6.57473
0.0 0.0 -6.57473
0.0 0.0 -6.57473
37.022 83.8544 -45.8702
0.0 0.0 -6.57473
-8.86401 9.72001 -5.90227
0.0 0.0 -6.57473
-12.614 -20.0065 -1.47131
0.0 0.0 -6.57473
0.0 0.0 -6.57473
0.0 0.0 -6.57473
0.0 0.0 -6.57473
0.0 0.0 -6.57473
13.1633 -70.6736 -27.2448
0.0 0.0 -6.57473
0.0 0.0 -6.57473
-27.1891 68.2833 13.4681
0.0 0.0 -6.57473
12.614 20.0065 -11.6781
24.4142 -23.6834 -6.79454
-4.64642 7.75192 -5.73218
-13.1633 70.6736 14.0954
0.0 0.0 -6.57473
0.0 0.0 -6.57473
0.0 0.0 -6.57473
0.0 0.0 -6.57473
0.0 0.0 -6.57473
0.0 0.0 -6.57473
0.0 0.0 -6.57473
0.0 0.0 -6.57473
-24.4142 23.6834 -6.35491
0.0 0.0 -6.57473
0.0 0.0 -6.57473
0.0 0.0 -6.57473
0.0 0.0 -6.57473
0.0 0.0 -6.57473
0.0 0.0 -6.57473
2.11259 13.1922 15.1691
0.0 0.0 -6.57473
0.0 0.0 -6.57473
0.0 0.0 -6.57473
0.0 0.0 -6.57473
-67.7079 -48.3188 2.99432
5.82196 -0.213827 109.943
0.0 0.0 -6.57473
0.0 0.0 -6.57473
0.0 0.0 -6.57473
0.0 0.0 -6.57473
-67.7318 26.9745 -67.1944
67.7318 -26.9745 54.0449
0.0 0.0 -6.57473
119.462 -90.2655 11.6342
0.0 0.0 -6.57473
-18.261 -17.3308 13.1317
30.5601 -5.13705 0.260617
0.0 0.0 -6.57473
0.0 0.0 -6.57473
67.7079 48.3188 -16.1438
0.0 0.0 -6.57473
4.05675 -4.39319 -7.69745
0.692258 -0.100513 7.41561
0.0 0.0 -6.57473
0.0 0.0 -6.57473
0.0 0.0 -6.57473
-0.587064 8.35646 -6.6863
0.0 0.0 -6.57473
0.0 0.0 -6.57473
-4.60838 -22.6687 5.05573
-38.639 49.3733 -72.8786
3.41063 -0.00496601 -5.09046
4.58033 18.871 -17.8109
1.24956 1.06129 -6.77316
0.0 0.0 -6.57473
0.0 0.0 -6.57473
-4.05675 4.39319 -5.452
0.0 0.0 -6.57473
0.0 0.0 -6.57473
0.0 0.0 -6.57473
0.0 0.0 -6.57473
-18.0185 5.39936 -42.5665
-3.41063 0.00496601 -8.05899
0.0 0.0 -6.57473
3.42393 0.669934 -1.27338
0.0 0.0 -6.57473
-39.4219 10.2979 6.96349
39.4219 -10.2979 -20.1129
0.483475 61.6126 34.7767
0.0 0.0 -6.57473
0.0 0.0 -6.57473
0.0 0.0 -6.57473
0.554642 0.00183098 4.51819
-24.9179 10.6741 1.87789
-21.8057 29.1983 -44.7558
0.0 0.0 -6.57473
-50.9653 -66.3321 -11.1898
0.0 0.0 -6.57473
0.0 0.0 -6.57473
8.39722 -0.313427 161.487
0.0 0.0 -6.57473
-35.1188 -33.1233 20.262
0.0 0.0 -6.57473
0.0 0.0 -6.57473
0.0 0.0 -6.57473
0.0 0.0 -6.57473
5.67051 0.0773531 106.846
31.5346 7.4925 -2.61759
0.0 0.0 -6.57473
65.7681 90.6125 -63.7838
-15.3178 2.78437 -14.1941
15.3178 -2.78437 1.04464
0.0 0.0 -6.57473
0.0 0.0 -6.57473
35.1188 33.1233 -33.4114
-41.1519 24.8682 -1.92699
41.1519 -24.8682 -11.2225
0.0 0.0 -6.57473
0.0 0.0 -6.57473
0.0 0.0 -6.57473
0.0 0.0 -6.57473
0.0 0.0 -6.57473
1.35203 -0.0709463 20.5032
0.0 0.0 -6.57473
0.0 0.0 -6.57473
14.745 4.66103 -11.2487
0.0 0.0 -6.57473
2.62895 -37.1712 30.6129
0.0 0.0 -6.57473
0.0 0.0 -6.57473
0.0 0.0 -6.57473
0.0 0.0 -6.57473
0.0 0.0 -6.57473
0.0 0.0 -6.57473
0.0 0.0 -6.57473
0.0 0.0 -6.57473
0.0 0.0 -6.57473
0.0 0.0 -6.57473
0.0 0.0 -6.57473
0.0 0.0 -6.57473
0.0 0.0 -6.57473
0.0 0.0 -6.57473
0.0 0.0 -6.57473
0.0 0.0 -6.57473
0.0 0.0 -6.57473
0.0 0.0 -6.57473
0.0 0.0 -6.57473
0.0 0.0 -6.57473
0.0 0.0 -6.57473
0.0 0.0 -6.57473
0.0 0.0 -6.57473
0.0 0.0 -6.57473
0.0 0.0 -6.57473
-81.5125 31.0706 45.5769
0.0 0.0 -6.57473
28.71 -40.8796 -9.63226
0.0 0.0 -6.57473
-4.87356 14.441 22.7614
0.0 0.0 -6.57473
49.9958 -16.5483 22.5748
0.0 0.0 -6.57473
0.0 0.0 -6.57473