# vtk DataFile Version 2.0
Generated by lpp.py
ASCII
DATASET POLYDATA
POINTS 525 float
-0.809367 -0.693084 -0.944181
0.676796 -0.630335 -0.97599
-0.505205 -0.458381 -0.926083
0.324344 -0.37065 -0.98011
0.950845 -0.137251 -0.935899
0.732378 -0.084417 -0.933216
-0.0622495 -0.526897 -0.933948
0.444517 -0.524619 -0.933132
-0.592493 -0.338616 -0.920128
0.734022 -0.368333 -0.964766
0.311241 -0.257138 -0.828579
0.753557 -0.263137 -0.96172
-0.0592669 0.00938353 -0.91596
0.849215 0.0287439 -0.836767
-0.133175 0.132455 -0.833571
-0.958676 -0.630323 -0.773601
-0.457162 -0.681738 -0.778731
0.217026 -0.613988 -0.870801
0.0587623 -0.428959 -0.773677
0.665579 -0.459457 -0.897952
-0.0506168 -0.344921 -0.876545
0.944105 -0.334935 -0.890538
-0.569091 -0.208837 -0.85396
-0.107403 -0.165564 -0.768198
0.470846 -0.156876 -0.889909
0.711731 -0.145291 -0.850993
-0.652135 -0.100017 -0.869273
0.0700934 -0.0961661 -0.877439
-0.915443 -0.843043 -0.710919
-0.0008936 -0.587379 -0.770018
0.0440828 -0.519441 -0.703062
0.522937 -0.553448 -0.778232
-0.951438 -0.4119 -0.797816
-0.706108 -0.493122 -0.765805
-0.239001 -0.471301 -0.70309
-0.0278061 -0.467677 -0.772058
0.13198 -0.403903 -0.825906
-0.411929 -0.356715 -0.789095
-0.883174 -0.316962 -0.83289
-0.947869 -0.247769 -0.817594
-0.618525 -0.250884 -0.772587
0.118897 -0.153617 -0.780771
-0.741323 -0.0727853 -0.829764
-0.383287 -0.125469 -0.692956
0.525985 -0.0233964 -0.712023
0.190479 -0.50193 -0.760438
-0.836466 -0.479381 -0.688496
-0.752973 -0.348125 -0.693282
-0.558912 -0.337575 -0.716704
-0.484002 -0.359141 -0.764392
0.882974 -0.357701 -0.719366
0.564436 -0.288369 -0.697895
0.0283023 -0.222718 -0.767785
0.701954 -0.274074 -0.758329
0.43517 -0.186857 -0.756282
0.875956 -0.00481865 -0.757344
0.435948 -0.916134 -0.691411
0.191534 -0.928365 -0.584706
0.768229 -0.490251 -0.587344
0.904753 -0.538306 -0.70853
-0.422862 -0.441872 -0.631065
-0.65706 -0.400976 -0.673528
-0.00321185 -0.345969 -0.689513
0.104412 -0.405735 -0.638583
0.793552 -0.343617 -0.695771
-0.478955 -0.28248 -0.635047
-0.0791974 -0.321302 -0.636142
-0.397232 -0.229464 -0.671774
0.0874589 -0.265972 -0.660395
0.788215 -0.208071 -0.636276
0.875864 -0.208448 -0.659148
-0.748029 -0.148949 -0.650164
-0.264512 -0.0916147 -0.575811
-0.939276 -0.0493759 -0.654269
-0.424357 -0.0396638 -0.643782
0.543035 -0.847989 -0.580788
-0.874078 -0.668972 -0.557927
0.422942 -0.636466 -0.613056
0.060206 -0.458932 -0.599941
0.568538 -0.477423 -0.579399
-0.236433 -0.346263 -0.584228
-0.021031 -0.398398 -0.585138
0.632532 -0.347505 -0.556085
-0.783771 -0.327646 -0.580191
-0.35323 -0.264813 -0.611959
-0.0424091 -0.206291 -0.614323
-0.939803 -0.108232 -0.561499
-0.85621 -0.195374 -0.603843
-0.218707 -0.196704 -0.57789
0.716465 -0.167067 -0.60934
0.226732 -0.103327 -0.650016
-0.853176 -0.0288419 -0.562725
-0.882806 0.137071 -0.616085
-0.937152 0.332362 -0.574432
-0.542263 -0.878208 -0.446618
-0.419704 -0.57598 -0.502611
0.0926481 -0.459912 -0.447737
-0.730179 -0.465636 -0.554281
-0.734273 -0.338166 -0.512167
-0.208621 -0.37381 -0.497661
0.0486724 -0.385086 -0.552424
0.138006 -0.403833 -0.554276
0.113409 -0.260738 -0.567379
0.839789 -0.306331 -0.555238
-0.835923 -0.26439 -0.552294
-0.188163 -0.242752 -0.501528
-0.0903123 -0.212791 -0.537145
0.467242 -0.252236 -0.507242
-0.81181 -0.173667 -0.526481
-0.705329 -0.199225 -0.544404
-0.631053 -0.179426 -0.508195
0.354296 -0.204806 -0.508829
-0.753977 -0.107975 -0.540348
0.81448 -0.0726204 -0.570977
-0.879158 0.0816051 -0.532418
0.812945 -0.72227 -0.488912
0.395528 -0.605564 -0.470512
-0.53658 -0.42494 -0.466963
-0.119574 -0.412144 -0.457965
0.199225 -0.467795 -0.457306
0.958009 -0.435805 -0.451759
0.133823 -0.374184 -0.430127
0.549497 -0.36459 -0.422793
0.921445 -0.358872 -0.456039
-0.772972 -0.327848 -0.426703
-0.625387 -0.303859 -0.44338
-0.488591 -0.306177 -0.43483
-0.418469 -0.33665 -0.462171
-0.268105 -0.28813 -0.431412
0.185968 -0.299041 -0.472663
-0.857117 -0.262967 -0.477418
0.50191 -0.182905 -0.493919
0.644451 -0.163927 -0.4783
0.352413 -0.116741 -0.436221
0.955472 -0.0628659 -0.436343
-0.239227 -0.060243 -0.450307
-0.932059 0.137732 -0.441671
0.361066 -0.646997 -0.363493
-0.50282 -0.584592 -0.416806
0.608867 -0.531525 -0.39746
-0.865511 -0.377988 -0.42323
-0.655278 -0.384664 -0.377305
-0.0932368 -0.355563 -0.385104
0.00528164 -0.372901 -0.414612
-0.132966 -0.277281 -0.406931
0.132348 -0.288427 -0.376933
-0.202115 -0.205534 -0.391846
0.591095 -0.216968 -0.410894
0.853758 -0.209396 -0.404033
0.933098 -0.24392 -0.361855
-0.68318 -0.19386 -0.434219
0.755881 -0.136839 -0.364588
-0.134136 -0.0929367 -0.402797
-0.89965 -0.0392176 -0.383358
0.789821 -0.0295959 -0.363435
0.901208 -0.00247668 -0.40351
-0.929853 0.255297 -0.365576
-0.333141 0.511519 -0.426918
0.286827 -0.88173 -0.230546
0.230085 -0.59205 -0.253223
0.0542064 -0.408081 -0.296214
0.486658 -0.460698 -0.300573
-0.252391 -0.374555 -0.301155
0.142455 -0.360178 -0.324582
0.346491 -0.361806 -0.304513
-0.340965 -0.290969 -0.314584
-0.217826 -0.296226 -0.315944
0.499458 -0.29212 -0.307184
-0.292636 -0.224342 -0.354808
0.241711 -0.234082 -0.348334
-0.776439 -0.136946 -0.313419
-0.154409 -0.158544 -0.307434
-0.0459226 -0.163641 -0.339325
0.525382 -0.157429 -0.369325
0.82336 -0.191043 -0.311432
-0.841467 -0.099751 -0.34665
-0.206168 -0.0313974 -0.303625
0.165077 -0.0508376 -0.331459
-0.742324 0.122611 -0.28615
0.60861 -0.569226 -0.277045
-0.378896 -0.524566 -0.251159
0.296566 -0.521726 -0.258243
-0.0575594 -0.461434 -0.279761
-0.892157 -0.342924 -0.26244
-0.463939 -0.366121 -0.231885
-0.338544 -0.380451 -0.283358
0.529071 -0.366417 -0.177589
0.86059 -0.383814 -0.239097
-0.764774 -0.311671 -0.250655
-0.291342 -0.301988 -0.239894
0.378752 -0.312872 -0.243351
-0.897911 -0.248142 -0.262396
-0.463025 -0.249725 -0.276428
-0.126285 -0.227613 -0.25226
-0.0479805 -0.223363 -0.235096
0.80688 -0.255476 -0.233635
0.957426 -0.22605 -0.242209
-0.862723 -0.176552 -0.255217
-0.7054 -0.202084 -0.2645
0.273151 -0.198908 -0.283561
0.457502 -0.161132 -0.247007
0.724391 -0.173359 -0.227541
-0.690374 -0.123017 -0.336281
0.127394 -0.170526 -0.275752
0.568253 -0.119067 -0.294654
0.632001 -0.156623 -0.26129
-0.904222 -0.06967 -0.26041
-0.520003 -0.00714954 -0.228536
-0.123208 -0.0355915 -0.272068
0.112751 -0.0321153 -0.238493
0.685441 -0.0706174 -0.313868
0.0155593 0.0143286 -0.261437
-0.914591 0.109968 -0.260676
-0.898416 0.235524 -0.255226
0.0740761 -0.859105 -0.117862
-0.127659 -0.765056 -0.100883
-0.769572 -0.557517 -0.190671
-0.887684 -0.399727 -0.179412
-0.751345 -0.382282 -0.168948
-0.148809 -0.369787 -0.199062
-0.0283231 -0.367269 -0.204996
0.112559 -0.392567 -0.150055
0.275173 -0.364883 -0.20591
0.805014 -0.36067 -0.162863
-0.663291 -0.33073 -0.220754
0.136079 -0.269048 -0.213023
-0.612735 -0.231675 -0.173992
0.237546 -0.244865 -0.162755
0.658915 -0.222048 -0.187209
0.884783 -0.236305 -0.155853
-0.624369 -0.136472 -0.187188
-0.483037 -0.206957 -0.167323
-0.242727 -0.164348 -0.152774
0.0433522 -0.200114 -0.186471
-0.739551 -0.153739 -0.240337
-0.219518 -0.0786142 -0.210076
-0.0373542 -0.144415 -0.182188
0.782824 -0.127811 -0.205041
0.953823 -0.153414 -0.237548
0.378592 -0.0342071 -0.191771
0.823804 0.0449788 -0.187734
-0.913929 0.149218 -0.154031
-0.855876 0.398237 -0.206903
-0.508095 -0.449898 -0.0720997
-0.265666 -0.42339 -0.137147
0.0471238 -0.447066 -0.0792162
0.585303 -0.412892 -0.131883
-0.681664 -0.365205 -0.0843958
0.0341807 -0.336287 -0.122523
0.228815 -0.39949 -0.121303
0.3297 -0.397403 -0.0978317
0.467377 -0.398822 -0.142041
-0.849358 -0.278343 -0.0848833
-0.769846 -0.316248 -0.113158
-0.212443 -0.33113 -0.14705
-0.126675 -0.280098 -0.125757
-0.0515135 -0.318421 -0.0820551
0.142398 -0.311224 -0.119235
0.228938 -0.286697 -0.0846941
0.468938 -0.314769 -0.127409
0.881698 -0.310098 -0.117728
-0.804141 -0.20715 -0.0982636
-0.703654 -0.245024 -0.137631
-0.421365 -0.240276 -0.119405
0.00612996 -0.233524 -0.0924711
0.510941 -0.248635 -0.11229
-0.128316 -0.167252 -0.0795366
-0.055641 -0.177689 -0.0971847
0.380603 -0.180801 -0.126073
0.700045 -0.135973 -0.114154
-0.810143 -0.0919442 -0.0901054
-0.530291 -0.150547 -0.0995596
-0.442935 -0.112292 -0.147851
-0.13881 -0.07753 -0.111054
0.111602 -0.0968445 -0.0830532
0.451159 -0.125912 -0.0916581
0.523304 -0.0752768 -0.103959
-0.523349 -0.0675791 -0.0989185
-0.213878 -0.0187741 -0.0868874
-0.0681191 -0.034769 -0.136483
0.72864 -0.070976 -0.128385
-0.829876 0.174631 -0.0857444
-0.0229819 0.176293 -0.067331
0.769647 0.177314 -0.066537
-0.555403 0.248071 -0.0684647
-0.268158 0.272966 -0.0617383
0.369004 0.215485 -0.065018
0.633985 0.214705 -0.0660834
0.846978 0.20029 -0.0676219
-0.182461 0.278849 -0.0673087
0.372419 0.299964 -0.0672581
0.562035 0.295556 -0.0680234
0.664845 0.294602 -0.061797
0.960893 0.271765 -0.0677175
-0.487493 0.338608 -0.0677986
-0.409009 0.355736 -0.0679064
-0.236131 0.343904 -0.0686774
0.198976 0.372747 -0.066192
0.685133 0.395804 -0.0686331
-0.744432 0.442033 -0.0665071
-0.512457 0.418634 -0.0661294
0.319247 0.426461 -0.0662696
0.887348 0.434695 -0.0685374
-0.0878173 0.470937 -0.0690043
-0.639889 -0.477926 -0.0322389
-0.418017 -0.44333 -0.047189
0.492526 -0.411064 -0.0336892
0.642626 -0.400546 -0.0164137
-0.897643 -0.396818 -0.034094
-0.822885 -0.364528 -0.056359
-0.740477 -0.376754 -0.0265739
-0.49149 -0.368146 -0.0727474
-0.365256 -0.384751 -0.012121
-0.255479 -0.371058 -0.0174059
-0.134565 -0.368507 -0.0111956
-0.0504967 -0.399477 -0.0257357
0.117052 -0.403944 -0.0202283
0.0731749 -0.34257 -0.0510434
0.256598 -0.354136 -0.0277008
0.411814 -0.363295 -0.0564775
0.5951 -0.349743 -0.0619684
0.727896 -0.379193 -0.011607
0.808915 -0.399011 -0.0759058
0.892613 -0.378915 -0.0410174
-0.702649 -0.309185 -0.00660536
-0.564451 -0.32102 -0.0122884
-0.417618 -0.316101 -0.0150611
-0.317162 -0.330353 -0.0770333
-0.187997 -0.294462 -0.0179439
0.162424 -0.330633 -0.024497
0.329546 -0.333226 -0.0513655
0.403106 -0.284356 -0.0506243
0.521848 -0.310298 -0.0260947
0.703492 -0.295355 -0.0303375
0.782962 -0.321432 -0.048133
-0.897836 -0.220695 -0.0595752
-0.661323 -0.226128 -0.0271168
-0.584351 -0.21673 -0.0143892
-0.339416 -0.256023 -0.0477796
-0.207477 -0.208067 -0.0118488
-0.10199 -0.239286 -0.0125323
0.200244 -0.218982 -0.00939351
0.33836 -0.24592 -0.013116
0.79345 -0.2448 -0.0748044
0.888978 -0.249112 -0.0158784
-0.864176 -0.148435 -0.0553104
-0.753133 -0.137512 -0.0182191
-0.639403 -0.152428 -0.0453952
-0.481457 -0.168465 -0.01466
-0.406352 -0.158063 -0.0590278
0.128174 -0.172308 -0.0183885
0.273209 -0.181215 -0.0294906
0.439139 -0.201031 -0.0464712
0.559777 -0.160461 -0.0569485
0.639389 -0.152685 -0.0341563
0.750983 -0.208507 -0.0187195
0.896159 -0.15015 -0.00682954
-0.960731 -0.13895 -0.0196464
-0.67917 -0.0753962 -0.0564216
-0.316916 -0.0945814 -0.0134226
-0.236812 -0.130208 -0.0162016
-0.0566672 -0.0911255 -0.0279024
0.0348253 -0.121342 -0.0419643
0.316968 -0.105663 -0.00835185
0.40819 -0.100829 -0.0227826
0.582828 -0.0830686 -0.0503175
0.802858 -0.126197 -0.0433363
-0.841259 -0.0152962 -0.0196069
-0.426206 -0.0354868 -0.0718063
-0.330334 -0.000185999 -0.0647115
-0.111814 -0.0229177 -0.0123781
0.0047613 -0.0395235 -0.0271011
0.184398 -0.0274364 -0.017172
0.254688 -0.0718838 -0.0383832
0.335429 -0.0169112 -0.0169145
0.459555 -0.0299691 -0.0350773
0.543135 -0.0109631 -0.0477476
0.852389 -0.0413326 -0.011532
-0.898977 0.0392815 -0.0447958
-0.839423 0.0941048 -0.0104526
-0.553139 0.111135 -0.00472438
0.760443 0.10949 -0.00554867
-0.883142 0.187643 -0.0300312
-0.699997 0.139035 -0.0348156
-0.617972 0.169749 -0.0617833
-0.48283 0.17445 -0.0627418
-0.385923 0.20246 -0.062665
-0.274691 0.192806 -0.0213102
-0.202022 0.196325 -0.0698004
-0.0993905 0.143609 -0.0289298
0.082591 0.145317 -0.0364925
0.159053 0.169975 -0.0633281
0.328576 0.146145 -0.0358773
0.479068 0.141229 -0.0339754
0.606131 0.14165 -0.023541
0.689541 0.150699 -0.0391199
0.876486 0.137057 -0.0333878
0.952623 0.158725 -0.048539
-0.812633 0.224085 -0.0181367
-0.744626 0.219814 -0.0605643
-0.721502 0.265761 -0.000750239
-0.653146 0.242296 -0.0467331
-0.44891 0.258207 -0.0492696
-0.0729513 0.217465 -0.0194145
0.0507615 0.224844 -0.0443658
0.136817 0.25274 -0.0630869
0.214658 0.253248 -0.0657265
0.278067 0.204426 -0.0581834
0.499396 0.258926 -0.0086883
0.558233 0.200472 -0.0480238
0.684459 0.231778 -0.00706162
0.734461 0.260158 -0.0657745
0.7901 0.236909 -0.0123578
-0.8864 0.287972 -0.0618439
-0.806844 0.295923 -0.0621108
-0.588683 0.31689 -0.0390113
-0.349662 0.272322 -0.0641948
-0.281776 0.315358 -0.000820894
-0.105305 0.290393 -0.0581267
-0.0266417 0.265402 -0.0670315
0.0430869 0.307636 -0.0585714
0.130456 0.335016 -0.0535485
0.21581 0.325064 -0.00534769
0.279592 0.30281 -0.0690332
0.460284 0.303814 -0.0684924
0.785006 0.33123 -0.0524995
-0.886059 0.36688 -0.0328259
-0.805402 0.390626 -0.0254656
-0.66289 0.345132 -0.0701843
-0.627057 0.393913 -0.016871
-0.360107 0.339937 -0.00672517
-0.0591237 0.358009 -0.0606384
0.045799 0.386478 -0.0184906
0.269133 0.391296 -0.00383692
0.365204 0.388199 -0.0103841
0.597907 0.375538 -0.0278191
0.861531 0.352766 -0.0560673
0.956417 0.394064 -0.0466326
-0.617472 0.462112 -0.066607
-0.39027 0.452791 -0.0629751
-0.261215 0.426267 -0.0278571
-0.0180191 0.459065 -0.0418622
0.120161 0.428359 -0.0616642
0.217939 0.453422 -0.052317
0.437971 0.428773 -0.0222498
0.531515 0.406966 -0.0501579
0.626119 0.447307 -0.0624872
0.796133 0.430512 -0.0557134
-0.758305 0.529323 -0.0389603
-0.462549 0.528558 -0.0483943
-0.311711 0.513817 -0.0604208
-0.19702 0.495333 -0.0568121
0.04656 0.520681 -0.011873
0.12722 0.521966 -0.0430353
0.374792 0.486534 -0.0295422
0.647665 0.521473 -0.048027
0.720895 0.48559 -0.0569448
0.809048 0.514774 -0.0496313
0.911777 0.520689 -0.0502845
-0.563952 0.543443 -0.0124434
0.0662573 -0.279414 0.0379601
0.456916 -0.325434 0.0318856
0.660405 -0.240336 0.0199994
-0.595481 -0.102287 0.0290869
0.728139 -0.12226 0.0197717
-0.567657 0.188413 0.00973719
-0.366315 0.169455 0.0116859
0.255268 0.175103 0.0129201
-0.386999 0.253994 0.00305765
-0.022709 0.258908 0.0324565
0.146858 0.236763 0.0349975
0.331648 0.213657 0.0107889
0.423317 0.239016 0.0108867
0.893499 0.237072 0.00281055
-0.508871 0.271299 0.000536316
0.363847 0.305726 0.0322752
0.576456 0.301707 0.0441909
0.756142 0.302231 0.0174367
-0.700076 0.345878 0.00794179
-0.42392 0.382701 0.00859856
-0.141545 0.373738 -2.50856e-06
0.477666 0.395904 0.0498479
0.168797 0.418834 0.0547478
-0.659884 0.493227 0.0131156
-0.132365 0.51236 0.0136306
0.2632 0.523507 0.0199092
0.459877 0.495185 0.0201171
0.590405 0.511343 0.00855405
0.891385 0.482029 0.0269816
0.457992 0.578753 0.0460039
0.838042 -0.504431 0.113369
-0.155354 0.234637 0.124624
0.418079 0.209356 0.0963201
-0.0120991 0.268896 0.162566
-0.322889 0.335312 0.0712102
0.626087 0.376344 0.0798134
0.695692 0.379911 0.128352
0.536113 0.501646 0.129378
-0.625117 0.560895 0.0735261
-0.35168 -0.506366 0.148928
-0.254412 0.175723 0.211058
0.117996 0.239831 0.187219
0.309075 0.792611 0.133436
0.68696 -0.627473 0.236308
-0.46173 0.291856 0.276965
0.439272 0.465477 0.277086
0.719839 0.608137 0.21039
-0.818099 0.623007 0.223059
-0.0205932 0.534887 0.327491
-0.194312 0.589021 0.269285
0.121446 -0.231491 0.356169
0.797064 0.528525 0.39162
0.511307 -0.0368318 0.423809
0.483603 0.350938 0.414268
-0.211645 0.639304 0.49348
-0.0903977 0.681467 0.491993
-0.362827 0.649984 0.53133
0.350286 0.670276 0.542042
0.536376 0.724855 0.50283
0.841681 0.408357 0.584643
-0.666077 0.262533 0.668983
-0.223258 0.401393 0.717371
-0.698025 0.623285 0.770478
-0.0671813 0.908938 0.818036
0.0164181 0.579385 0.964127
VERTICES 525 1050
1 0
1 1
1 2
1 3
1 4
1 5
1 6
1 7
1 8
1 9
1 10
1 11
1 12
1 13
1 14
1 15
1 16
1 17
1 18
1 19
1 20
1 21
1 22
1 23
1 24
1 25
1 26
1 27
1 28
1 29
1 30
1 31
1 32
1 33
1 34
1 35
1 36
1 37
1 38
1 39
1 40
1 41
1 42
1 43
1 44
1 45
1 46
1 47
1 48
1 49
1 50
1 51
1 52
1 53
1 54
1 55
1 56
1 57
1 58
1 59
1 60
1 61
1 62
1 63
1 64
1 65
1 66
1 67
1 68
1 69
1 70
1 71
1 72
1 73
1 74
1 75
1 76
1 77
1 78
1 79
1 80
1 81
1 82
1 83
1 84
1 85
1 86
1 87
1 88
1 89
1 90
1 91
1 92
1 93
1 94
1 95
1 96
1 97
1 98
1 99
1 100
1 101
1 102
1 103
1 104
1 105
1 106
1 107
1 108
1 109
1 110
1 111
1 112
1 113
1 114
1 115
1 116
1 117
1 118
1 119
1 120
1 121
1 122
1 123
1 124
1 125
1 126
1 127
1 128
1 129
1 130
1 131
1 132
1 133
1 134
1 135
1 136
1 137
1 138
1 139
1 140
1 141
1 142
1 143
1 144
1 145
1 146
1 147
1 148
1 149
1 150
1 151
1 152
1 153
1 154
1 155
1 156
1 157
1 158
1 159
1 160
1 161
1 162
1 163
1 164
1 165
1 166
1 167
1 168
1 169
1 170
1 171
1 172
1 173
1 174
1 175
1 176
1 177
1 178
1 179
1 180
1 181
1 182
1 183
1 184
1 185
1 186
1 187
1 188
1 189
1 190
1 191
1 192
1 193
1 194
1 195
1 196
1 197
1 198
1 199
1 200
1 201
1 202
1 203
1 204
1 205
1 206
1 207
1 208
1 209
1 210
1 211
1 212
1 213
1 214
1 215
1 216
1 217
1 218
1 219
1 220
1 221
1 222
1 223
1 224
1 225
1 226
1 227
1 228
1 229
1 230
1 231
1 232
1 233
1 234
1 235
1 236
1 237
1 238
1 239
1 240
1 241
1 242
1 243
1 244
1 245
1 246
1 247
1 248
1 249
1 250
1 251
1 252
1 253
1 254
1 255
1 256
1 257
1 258
1 259
1 260
1 261
1 262
1 263
1 264
1 265
1 266
1 267
1 268
1 269
1 270
1 271
1 272
1 273
1 274
1 275
1 276
1 277
1 278
1 279
1 280
1 281
1 282
1 283
1 284
1 285
1 286
1 287
1 288
1 289
1 290
1 291
1 292
1 293
1 294
1 295
1 296
1 297
1 298
1 299
1 300
1 301
1 302
1 303
1 304
1 305
1 306
1 307
1 308
1 309
1 310
1 311
1 312
1 313
1 314
1 315
1 316
1 317
1 318
1 319
1 320
1 321
1 322
1 323
1 324
1 325
1 326
1 327
1 328
1 329
1 330
1 331
1 332
1 333
1 334
1 335
1 336
1 337
1 338
1 339
1 340
1 341
1 342
1 343
1 344
1 345
1 346
1 347
1 348
1 349
1 350
1 351
1 352
1 353
1 354
1 355
1 356
1 357
1 358
1 359
1 360
1 361
1 362
1 363
1 364
1 365
1 366
1 367
1 368
1 369
1 370
1 371
1 372
1 373
1 374
1 375
1 376
1 377
1 378
1 379
1 380
1 381
1 382
1 383
1 384
1 385
1 386
1 387
1 388
1 389
1 390
1 391
1 392
1 393
1 394
1 395
1 396
1 397
1 398
1 399
1 400
1 401
1 402
1 403
1 404
1 405
1 406
1 407
1 408
1 409
1 410
1 411
1 412
1 413
1 414
1 415
1 416
1 417
1 418
1 419
1 420
1 421
1 422
1 423
1 424
1 425
1 426
1 427
1 428
1 429
1 430
1 431
1 432
1 433
1 434
1 435
1 436
1 437
1 438
1 439
1 440
1 441
1 442
1 443
1 444
1 445
1 446
1 447
1 448
1 449
1 450
1 451
1 452
1 453
1 454
1 455
1 456
1 457
1 458
1 459
1 460
1 461
1 462
1 463
1 464
1 465
1 466
1 467
1 468
1 469
1 470
1 471
1 472
1 473
1 474
1 475
1 476
1 477
1 478
1 479
1 480
1 481
1 482
1 483
1 484
1 485
1 486
1 487
1 488
1 489
1 490
1 491
1 492
1 493
1 494
1 495
1 496
1 497
1 498
1 499
1 500
1 501
1 502
1 503
1 504
1 505
1 506
1 507
1 508
1 509
1 510
1 511
1 512
1 513
1 514
1 515
1 516
1 517
1 518
1 519
1 520
1 521
1 522
1 523
1 524
POINT_DATA 525
VECTORS i float
0.0 0.0 0.0
0.0 0.0 0.0
0.0 0.0 0.0
0.0 0.0 0.0
0.0 0.0 0.0
0.0 0.0 0.0
0.0 0.0 0.0
0.0 0.0 0.0
0.0 0.0 0.0
0.0 0.0 0.0
0.0 0.0 0.0
0.0 0.0 0.0
0.0 0.0 0.0
0.0 0.0 0.0
0.0 0.0 0.0
0.0 0.0 0.0
0.0 0.0 0.0
0.0 0.0 0.0
0.0 0.0 0.0
0.0 0.0 0.0
0.0 0.0 0.0
0.0 0.0 0.0
0.0 0.0 0.0
0.0 0.0 0.0
0.0 0.0 0.0
0.0 0.0 0.0
0.0 0.0 0.0
0.0 0.0 0.0
0.0 0.0 0.0
0.0 0.0 0.0
0.0 0.0 0.0
0.0 0.0 0.0
0.0 0.0 0.0
0.0 0.0 0.0
0.0 0.0 0.0
0.0 0.0 0.0
0.0 0.0 0.0
0.0 0.0 0.0
0.0 0.0 0.0
0.0 0.0 0.0
0.0 0.0 0.0
0.0 0.0 0.0
0.0 0.0 0.0
0.0 0.0 0.0
0.0 0.0 0.0
0.0 0.0 0.0
0.0 0.0 0.0
0.0 0.0 0.0
0.0 0.0 0.0
0.0 0.0 0.0
0.0 0.0 0.0
0.0 0.0 0.0
0.0 0.0 0.0
0.0 0.0 0.0
0.0 0.0 0.0
0.0 0.0 0.0
0.0 0.0 0.0
0.0 0.0 0.0
0.0 0.0 0.0
0.0 0.0 0.0
0.0 0.0 0.0
0.0 0.0 0.0
0.0 0.0 0.0
0.0 0.0 0.0
0.0 0.0 0.0
0.0 0.0 0.0
0.0 0.0 0.0
0.0 0.0 0.0
0.0 0.0 0.0
0.0 0.0 0.0
0.0 0.0 0.0
0.0 0.0 0.0
0.0 0.0 0.0
0.0 0.0 0.0
0.0 0.0 0.0
0.0 0.0 0.0
0.0 0.0 0.0
0.0 0.0 0.0
0.0 0.0 0.0
0.0 0.0 0.0
0.0 0.0 0.0
0.0 0.0 0.0
0.0 0.0 0.0
0.0 0.0 0.0
0.0 0.0 0.0
0.0 0.0 0.0
0.0 0.0 0.0
0.0 0.0 0.0
0.0 0.0 0.0
0.0 0.0 0.0
0.0 0.0 0.0
0.0 0.0 0.0
0.0 0.0 0.0
0.0 0.0 0.0
0.0 0.0 0.0
0.0 0.0 0.0
0.0 0.0 0.0
0.0 0.0 0.0
0.0 0.0 0.0
0.0 0.0 0.0
0.0 0.0 0.0
0.0 0.0 0.0
0.0 0.0 0.0
0.0 0.0 0.0
0.0 0.0 0.0
0.0 0.0 0.0
0.0 0.0 0.0
0.0 0.0 0.0
0.0 0.0 0.0
0.0 0.0 0.0
0.0 0.0 0.0
0.0 0.0 0.0
0.0 0.0 0.0
0.0 0.0 0.0
0.0 0.0 0.0
0.0 0.0 0.0
0.0 0.0 0.0
0.0 0.0 0.0
0.0 0.0 0.0
0.0 0.0 0.0
0.0 0.0 0.0
0.0 0.0 0.0
0.0 0.0 0.0
0.0 0.0 0.0
0.0 0.0 0.0
0.0 0.0 0.0
0.0 0.0 0.0
0.0 0.0 0.0
0.0 0.0 0.0
0.0 0.0 0.0
0.0 0.0 0.0
0.0 0.0 0.0
0.0 0.0 0.0
0.0 0.0 0.0
0.0 0.0 0.0
0.0 0.0 0.0
0.0 0.0 0.0
0.0 0.0 0.0
0.0 0.0 0.0
0.0 0.0 0.0
0.0 0.0 0.0
0.0 0.0 0.0
0.0 0.0 0.0
0.0 0.0 0.0
0.0 0.0 0.0
0.0 0.0 0.0
0.0 0.0 0.0
0.0 0.0 0.0
0.0 0.0 0.0
0.0 0.0 0.0
0.0 0.0 0.0
0.0 0.0 0.0
0.0 0.0 0.0
0.0 0.0 0.0
0.0 0.0 0.0
0.0 0.0 0.0
0.0 0.0 0.0
0.0 0.0 0.0
0.0 0.0 0.0
0.0 0.0 0.0
0.0 0.0 0.0
0.0 0.0 0.0
0.0 0.0 0.0
0.0 0.0 0.0
0.0 0.0 0.0
0.0 0.0 0.0
0.0 0.0 0.0
0.0 0.0 0.0
0.0 0.0 0.0
0.0 0.0 0.0
0.0 0.0 0.0
0.0 0.0 0.0
0.0 0.0 0.0
0.0 0.0 0.0
0.0 0.0 0.0
0.0 0.0 0.0
0.0 0.0 0.0
0.0 0.0 0.0
0.0 0.0 0.0
0.0 0.0 0.0
0.0 0.0 0.0
0.0 0.0 0.0
0.0 0.0 0.0
0.0 0.0 0.0
0.0 0.0 0.0
0.0 0.0 0.0
0.0 0.0 0.0
0.0 0.0 0.0
0.0 0.0 0.0
0.0 0.0 0.0
0.0 0.0 0.0
0.0 0.0 0.0
0.0 0.0 0.0
0.0 0.0 0.0
0.0 0.0 0.0
0.0 0.0 0.0
0.0 0.0 0.0
0.0 0.0 0.0
0.0 0.0 0.0
0.0 0.0 0.0
0.0 0.0 0.0
0.0 0.0 0.0
0.0 0.0 0.0
0.0 0.0 0.0
0.0 0.0 0.0
0.0 0.0 0.0
0.0 0.0 0.0
0.0 0.0 0.0
0.0 0.0 0.0
0.0 0.0 0.0
0.0 0.0 0.0
0.0 0.0 0.0
0.0 0.0 0.0
0.0 0.0 0.0
0.0 0.0 0.0
0.0 0.0 0.0
0.0 0.0 0.0
0.0 0.0 0.0
0.0 0.0 0.0
0.0 0.0 0.0
0.0 0.0 0.0
0.0 0.0 0.0
0.0 0.0 0.0
0.0 0.0 0.0
0.0 0.0 0.0
0.0 0.0 0.0
0.0 0.0 0.0
0.0 0.0 0.0
0.0 0.0 0.0
0.0 0.0 0.0
0.0 0.0 0.0
0.0 0.0 0.0
0.0 0.0 0.0
0.0 0.0 0.0
0.0 0.0 0.0
0.0 0.0 0.0
0.0 0.0 0.0
0.0 0.0 0.0
0.0 0.0 0.0
0.0 0.0 0.0
0.0 0.0 0.0
0.0 0.0 0.0
0.0 0.0 0.0
0.0 0.0 0.0
0.0 0.0 0.0
0.0 0.0 0.0
0.0 0.0 0.0
0.0 0.0 0.0
0.0 0.0 0.0
0.0 0.0 0.0
0.0 0.0 0.0
0.0 0.0 0.0
0.0 0.0 0.0
0.0 0.0 0.0
0.0 0.0 0.0
0.0 0.0 0.0
0.0 0.0 0.0
0.0 0.0 0.0
0.0 0.0 0.0
0.0 0.0 0.0
0.0 0.0 0.0
0.0 0.0 0.0
0.0 0.0 0.0
0.0 0.0 0.0
0.0 0.0 0.0
0.0 0.0 0.0
0.0 0.0 0.0
0.0 0.0 0.0
0.0 0.0 0.0
0.0 0.0 0.0
0.0 0.0 0.0
0.0 0.0 0.0
0.0 0.0 0.0
0.0 0.0 0.0
0.0 0.0 0.0
0.0 0.0 0.0
0.0 0.0 0.0
0.0 0.0 0.0
0.0 0.0 0.0
0.0 0.0 0.0
0.0 0.0 0.0
0.0 0.0 0.0
0.0 0.0 0.0
0.0 0.0 0.0
0.0 0.0 0.0
0.0 0.0 0.0
0.0 0.0 0.0
0.0 0.0 0.0
0.0 0.0 0.0
0.0 0.0 0.0
0.0 0.0 0.0
0.0 0.0 0.0
0.0 0.0 0.0
0.0 0.0 0.0
0.0 0.0 0.0
0.0 0.0 0.0
0.0 0.0 0.0
0.0 0.0 0.0
0.0 0.0 0.0
0.0 0.0 0.0
0.0 0.0 0.0
0.0 0.0 0.0
0.0 0.0 0.0
0.0 0.0 0.0
0.0 0.0 0.0
0.0 0.0 0.0
0.0 0.0 0.0
0.0 0.0 0.0
0.0 0.0 0.0
0.0 0.0 0.0
0.0 0.0 0.0
0.0 0.0 0.0
0.0 0.0 0.0
0.0 0.0 0.0
0.0 0.0 0.0
0.0 0.0 0.0
0.0 0.0 0.0
0.0 0.0 0.0
0.0 0.0 0.0
0.0 0.0 0.0
0.0 0.0 0.0
0.0 0.0 0.0
0.0 0.0 0.0
0.0 0.0 0.0
0.0 0.0 0.0
0.0 0.0 0.0
0.0 0.0 0.0
0.0 0.0 0.0
0.0 0.0 0.0
0.0 0.0 0.0
0.0 0.0 0.0
0.0 0.0 0.0
0.0 0.0 0.0
0.0 0.0 0.0
0.0 0.0 0.0
0.0 0.0 0.0
0.0 0.0 0.0
0.0 0.0 0.0
0.0 0.0 0.0
0.0 0.0 0.0
0.0 0.0 0.0
0.0 0.0 0.0
0.0 0.0 0.0
0.0 0.0 0.0
0.0 0.0 0.0
0.0 0.0 0.0
0.0 0.0 0.0
0.0 0.0 0.0
0.0 0.0 0.0
0.0 0.0 0.0
0.0 0.0 0.0
0.0 0.0 0.0
0.0 0.0 0.0
0.0 0.0 0.0
0.0 0.0 0.0
0.0 0.0 0.0
0.0 0.0 0.0
0.0 0.0 0.0
0.0 0.0 0.0
0.0 0.0 0.0
0.0 0.0 0.0
0.0 0.0 0.0
0.0 0.0 0.0
0.0 0.0 0.0
0.0 0.0 0.0
0.0 0.0 0.0
0.0 0.0 0.0
0.0 0.0 0.0
0.0 0.0 0.0
0.0 0.0 0.0
0.0 0.0 0.0
0.0 0.0 0.0
0.0 0.0 0.0
0.0 0.0 0.0
0.0 0.0 0.0
0.0 0.0 0.0
0.0 0.0 0.0
0.0 0.0 0.0
0.0 0.0 0.0
0.0 0.0 0.0
0.0 0.0 0.0
0.0 0.0 0.0
0.0 0.0 0.0
0.0 0.0 0.0
0.0 0.0 0.0
0.0 0.0 0.0
0.0 0.0 0.0
0.0 0.0 0.0
0.0 0.0 0.0
0.0 0.0 0.0
0.0 0.0 0.0
0.0 0.0 0.0
0.0 0.0 0.0
0.0 0.0 0.0
0.0 0.0 0.0
0.0 0.0 0.0
0.0 0.0 0.0
0.0 0.0 0.0
0.0 0.0 0.0
0.0 0.0 0.0
0.0 0.0 0.0
0.0 0.0 0.0
0.0 0.0 0.0
0.0 0.0 0.0
0.0 0.0 0.0
0.0 0.0 0.0
0.0 0.0 0.0
0.0 0.0 0.0
0.0 0.0 0.0
0.0 0.0 0.0
0.0 0.0 0.0
0.0 0.0 0.0
0.0 0.0 0.0
0.0 0.0 0.0
0.0 0.0 0.0
0.0 0.0 0.0
0.0 0.0 0.0
0.0 0.0 0.0
0.0 0.0 0.0
0.0 0.0 0.0
0.0 0.0 0.0
0.0 0.0 0.0
0.0 0.0 0.0
0.0 0.0 0.0
0.0 0.0 0.0
0.0 0.0 0.0
0.0 0.0 0.0
0.0 0.0 0.0
0.0 0.0 0.0
0.0 0.0 0.0
0.0 0.0 0.0
0.0 0.0 0.0
0.0 0.0 0.0
0.0 0.0 0.0
0.0 0.0 0.0
0.0 0.0 0.0
0.0 0.0 0.0
0.0 0.0 0.0
0.0 0.0 0.0
0.0 0.0 0.0
0.0 0.0 0.0
0.0 0.0 0.0
0.0 0.0 0.0
0.0 0.0 0.0
0.0 0.0 0.0
0.0 0.0 0.0
0.0 0.0 0.0
0.0 0.0 0.0
0.0 0.0 0.0
0.0 0.0 0.0
0.0 0.0 0.0
0.0 0.0 0.0
0.0 0.0 0.0
0.0 0.0 0.0
0.0 0.0 0.0
0.0 0.0 0.0
0.0 0.0 0.0
0.0 0.0 0.0
0.0 0.0 0.0
0.0 0.0 0.0
0.0 0.0 0.0
0.0 0.0 0.0
0.0 0.0 0.0
0.0 0.0 0.0
0.0 0.0 0.0
0.0 0.0 0.0
0.0 0.0 0.0
0.0 0.0 0.0
0.0 0.0 0.0
0.0 0.0 0.0
0.0 0.0 0.0
0.0 0.0 0.0
0.0 0.0 0.0
0.0 0.0 0.0
0.0 0.0 0.0
0.0 0.0 0.0
0.0 0.0 0.0
0.0 0.0 0.0
0.0 0.0 0.0
0.0 0.0 0.0
0.0 0.0 0.0
0.0 0.0 0.0
0.0 0.0 0.0
0.0 0.0 0.0
0.0 0.0 0.0
0.0 0.0 0.0
0.0 0.0 0.0
0.0 0.0 0.0
0.0 0.0 0.0
0.0 0.0 0.0
0.0 0.0 0.0
0.0 0.0 0.0
0.0 0.0 0.0
0.0 0.0 0.0
0.0 0.0 0.0
0.0 0.0 0.0
0.0 0.0 0.0
0.0 0.0 0.0
0.0 0.0 0.0
0.0 0.0 0.0
0.0 0.0 0.0
0.0 0.0 0.0
0.0 0.0 0.0
0.0 0.0 0.0
0.0 0.0 0.0
0.0 0.0 0.0
0.0 0.0 0.0
0.0 0.0 0.0
0.0 0.0 0.0
0.0 0.0 0.0
0.0 0.0 0.0
0.0 0.0 0.0
0.0 0.0 0.0
0.0 0.0 0.0
0.0 0.0 0.0
0.0 0.0 0.0
0.0 0.0 0.0
0.0 0.0 0.0
0.0 0.0 0.0
0.0 0.0 0.0
0.0 0.0 0.0
0.0 0.0 0.0
0.0 0.0 0.0
0.0 0.0 0.0
0.0 0.0 0.0
VECTORS f float
0.0 0.0 -6.57473
-16.2305 39.4668 846.903
0.0 0.0 -6.57473
-17.1344 51.3808 1076.67
0.0 0.0 -6.57473
0.0 0.0 -6.57473
0.0 0.0 -6.57473
0.0 0.0 -6.57473
0.0 0.0 -6.57473
-4.48878 15.9386 324.599
0.0 0.0 -6.57473
-7.32087 3.84773 158.834
0.0 0.0 -6.57473
0.0 0.0 -6.57473
0.0 0.0 -6.57473
0.0 0.0 -6.57473
0.0 0.0 -6.57473
0.0 0.0 -6.57473
0.0 0.0 -6.57473
0.0 0.0 -6.57473
0.0 0.0 -6.57473
0.0 0.0 -6.57473
0.0 0.0 -6.57473
0.0 0.0 -6.57473
0.0 0.0 -6.57473
0.0 0.0 -6.57473
0.0 0.0 -6.57473
0.0 0.0 -6.57473
0.0 0.0 -6.57473
0.0 0.0 -6.57473
0.0 0.0 -6.57473
0.0 0.0 -6.57473
0.0 0.0 -6.57473
0.0 0.0 -6.57473
0.0 0.0 -6.57473
0.0 0.0 -6.57473
0.0 0.0 -6.57473
145.894 -2.57662 -54.7008
0.0 0.0 -6.57473
0.0 0.0 -6.57473
0.0 0.0 -6.57473
0.0 0.0 -6.57473
0.0 0.0 -6.57473
0.0 0.0 -6.57473
0.0 0.0 -6.57473
0.0 0.0 -6.57473
0.0 0.0 -6.57473
0.0 0.0 -6.57473
0.0 0.0 -6.57473
-145.894 2.57662 41.5513
0.0 0.0 -6.57473
0.0 0.0 -6.57473
0.0 0.0 -6.57473
0.0 0.0 -6.57473
0.0 0.0 -6.57473
0.0 0.0 -6.57473
0.0 0.0 -6.57473
0.0 0.0 -6.57473
0.0 0.0 -6.57473
0.0 0.0 -6.57473
0.0 0.0 -6.57473
0.0 0.0 -6.57473
0.0 0.0 -6.57473
22.5627 24.802 -23.9801
0.0 0.0 -6.57473
0.0 0.0 -6.57473
0.0 0.0 -6.57473
0.0 0.0 -6.57473
0.0 0.0 -6.57473
0.0 0.0 -6.57473
0.0 0.0 -6.57473
0.0 0.0 -6.57473
0.0 0.0 -6.57473
0.0 0.0 -6.57473
0.0 0.0 -6.57473
0.0 0.0 -6.57473
0.0 0.0 -6.57473
0.0 0.0 -6.57473
-22.5627 -24.802 10.8307
0.0 0.0 -6.57473
0.0 0.0 -6.57473
-65.1321 -16.099 -36.6397
0.0 0.0 -6.57473
0.0 0.0 -6.57473
0.0 0.0 -6.57473
0.0 0.0 -6.57473
0.0 0.0 -6.57473
0.0 0.0 -6.57473
0.0 0.0 -6.57473
0.0 0.0 -6.57473
0.0 0.0 -6.57473
0.0 0.0 -6.57473
0.0 0.0 -6.57473
0.0 0.0 -6.57473
0.0 0.0 -6.57473
0.0 0.0 -6.57473
0.0 0.0 -6.57473
0.0 0.0 -6.57473
0.0 0.0 -6.57473
0.0 0.0 -6.57473
65.1321 16.099 23.4902
0.0 0.0 -6.57473
0.0 0.0 -6.57473
0.0 0.0 -6.57473
23.9686 0.277183 -78.7239
0.0 0.0 -6.57473
0.0 0.0 -6.57473
-13.0938 -29.7104 -12.6418
0.0 0.0 -6.57473
0.0 0.0 -6.57473
0.0 0.0 -6.57473
0.0 0.0 -6.57473
0.0 0.0 -6.57473
0.0 0.0 -6.57473
0.0 0.0 -6.57473
0.0 0.0 -6.57473
0.0 0.0 -6.57473
0.0 0.0 -6.57473
0.0 0.0 -6.57473
0.0 0.0 -6.57473
0.0 0.0 -6.57473
0.0 0.0 -6.57473
0.0 0.0 -6.57473
0.0 0.0 -6.57473
0.0 0.0 -6.57473
0.0 0.0 -6.57473
0.0 0.0 -6.57473
0.0 0.0 -6.57473
0.0 0.0 -6.57473
0.0 0.0 -6.57473
-23.9686 -0.277183 65.5744
13.0938 29.7104 -0.50766
0.0 0.0 -6.57473
0.0 0.0 -6.57473
0.0 0.0 -6.57473
0.0 0.0 -6.57473
0.0 0.0 -6.57473
0.0 0.0 -6.57473
0.0 0.0 -6.57473
0.0 0.0 -6.57473
0.0 0.0 -6.57473
0.0 0.0 -6.57473
0.0 0.0 -6.57473
0.0 0.0 -6.57473
0.0 0.0 -6.57473
0.0 0.0 -6.57473
0.0 0.0 -6.57473
0.0 0.0 -6.57473
0.0 0.0 -6.57473
0.0 0.0 -6.57473
0.0 0.0 -6.57473
0.0 0.0 -6.57473
0.0 0.0 -6.57473
0.0 0.0 -6.57473
0.0 0.0 -6.57473
0.0 0.0 -6.57473
0.0 0.0 -6.57473
0.0 0.0 -6.57473
0.0 0.0 -6.57473
0.0 0.0 -6.57473
0.0 0.0 -6.57473
0.0 0.0 -6.57473
0.0 0.0 -6.57473
0.0 0.0 -6.57473
0.0 0.0 -6.57473
0.0 0.0 -6.57473
0.0 0.0 -6.57473
0.0 0.0 -6.57473
0.0 0.0 -6.57473
0.0 0.0 -6.57473
0.0 0.0 -6.57473
0.0 0.0 -6.57473
0.0 0.0 -6.57473
0.0 0.0 -6.57473
0.0 0.0 -6.57473
0.0 0.0 -6.57473
0.0 0.0 -6.57473
0.0 0.0 -6.57473
0.0 0.0 -6.57473
0.0 0.0 -6.57473
0.0 0.0 -6.57473
0.0 0.0 -6.57473
0.0 0.0 -6.57473
0.0 0.0 -6.57473
0.0 0.0 -6.57473
0.0 0.0 -6.57473
26.0895 14.3681 -23.5705
0.0 0.0 -6.57473
0.0 0.0 -6.57473
0.0 0.0 -6.57473
0.0 0.0 -6.57473
0.0 0.0 -6.57473
0.0 0.0 -6.57473
0.0 0.0 -6.57473
0.0 0.0 -6.57473
0.0 0.0 -6.57473
0.915891 -296.644 -31.1522
0.0 0.0 -6.57473
292.32 -457.042 -245.026
0.0 0.0 -6.57473
0.0 0.0 -6.57473
-69.2895 -48.902 -30.4538
0.0 0.0 -6.57473
0.0 0.0 -6.57473
0.0 0.0 -6.57473
0.0 0.0 -6.57473
0.0 0.0 -6.57473
0.0 0.0 -6.57473
0.0 0.0 -6.57473
0.0 0.0 -6.57473
0.0 0.0 -6.57473
0.0 0.0 -6.57473
0.0 0.0 -6.57473
0.0 0.0 -6.57473
0.0 0.0 -6.57473
0.0 0.0 -6.57473
0.0 0.0 -6.57473
0.0 0.0 -6.57473
0.0 0.0 -6.57473
0.0 0.0 -6.57473
0.0 0.0 -6.57473
0.0 0.0 -6.57473
0.0 0.0 -6.57473
0.0 0.0 -6.57473
0.0 0.0 -6.57473
0.0 0.0 -6.57473
0.0 0.0 -6.57473
0.0 0.0 -6.57473
0.0 0.0 -6.57473
0.0 0.0 -6.57473
0.0 0.0 -6.57473
0.0 0.0 -6.57473
0.0 0.0 -6.57473
0.0 0.0 -6.57473
-292.32 457.042 231.876
0.0 0.0 -6.57473
0.0 0.0 -6.57473
69.2895 48.902 17.3044
-0.915891 296.644 18.0027
0.0 0.0 -6.57473
0.0 0.0 -6.57473
0.0 0.0 -6.57473
0.0 0.0 -6.57473
0.0 0.0 -6.57473
0.0 0.0 -6.57473
0.0 0.0 -6.57473
0.0 0.0 -6.57473
0.0 0.0 -6.57473
0.0 0.0 -6.57473
0.0 0.0 -6.57473
0.189082 -21.5255 -20.5856
-26.0895 -14.3681 10.421
11.9285 -14.2077 -11.7928
0.0 0.0 -6.57473
0.0 0.0 -6.57473
0.0 0.0 -6.57473
0.0 0.0 -6.57473
0.0 0.0 -6.57473
0.0 0.0 -6.57473
-4.03934 -6.91287 -7.83813
0.0 0.0 -6.57473
0.0 0.0 -6.57473
0.0 0.0 -6.57473
0.0 0.0 -6.57473
0.0 0.0 -6.57473
4.03934 6.91287 -5.31132
-152.949 15.2298 34.7873
152.949 -15.2298 -47.9367
0.0 0.0 -6.57473
-111.205 -237.284 34.0134
0.0 0.0 -6.57473
0.0 0.0 -6.57473
0.0 0.0 -6.57473
0.0 0.0 -6.57473
0.0 0.0 -6.57473
0.0 0.0 -6.57473
0.0 0.0 -6.57473
0.0 0.0 -6.57473
0.0 0.0 -6.57473
0.0 0.0 -6.57473
111.205 237.284 -47.1628