# vtk DataFile Version 2.0
Generated by lpp.py
ASCII
DATASET POLYDATA
POINTS 354 float
-0.653119 -0.904572 -0.77302
0.663502 -0.746579 -0.534729
0.421437 -0.237436 -0.891325
0.519774 -0.220442 -0.871478
-0.200417 -0.375923 -0.975886
-0.111096 -0.751322 -0.789422
-0.84841 -0.38722 -0.723332
-0.355067 -0.512569 -0.734254
0.00389452 -0.44984 -0.656187
0.130583 -0.238119 -0.702819
-0.356656 -0.0480849 -0.623639
0.0556181 -0.334681 -0.503956
-0.74329 -0.378935 -0.525827
-0.431475 -0.172088 -0.521449
0.638252 -0.1663 -0.533685
0.293314 -0.01899 -0.528277
0.897486 0.016244 -0.466416
-0.598837 -0.378928 -0.341007
-0.883174 -0.316962 -0.311663
-0.466557 -0.491465 -0.414599
-0.138765 -0.337432 -0.34092
-0.530455 -0.263207 -0.327313
0.401759 -0.28461 -0.383554
0.189969 -0.175917 -0.330787
-0.751416 -0.177913 -0.570499
-0.898929 -0.399297 -0.283071
-0.818387 -0.366864 -0.279339
-0.729812 -0.33461 -0.294996
-0.502767 -0.355777 -0.26683
-0.322944 -0.37194 -0.280115
-0.246137 -0.386644 -0.272105
-0.0660191 -0.347845 -0.300055
0.0427891 -0.374689 -0.295404
0.59263 -0.38804 -0.296819
0.805976 -0.341001 -0.230903
-0.000466142 -0.281974 -0.247452
0.107324 -0.297016 -0.275563
0.147174 -0.354864 -0.212997
0.385587 -0.364753 -0.319423
0.586706 -0.304071 -0.265064
-0.612418 -0.229799 -0.271765
0.312267 -0.279785 -0.216665
0.636274 -0.263568 -0.324247
-0.725054 -0.218796 -0.276063
-0.447603 -0.211148 -0.213591
-0.197645 -0.320823 -0.387111
0.0642892 -0.21847 -0.277053
0.300303 -0.211908 -0.259995
0.878287 -0.194265 -0.278653
-0.385945 -0.0966496 -0.319005
-0.312044 -0.223147 -0.291515
-0.0469257 -0.170482 -0.2865
0.0835129 -0.162998 -0.403923
0.38925 -0.334801 -0.55303
0.929776 -0.127363 -0.305947
-0.907455 -0.229727 -0.412196
0.171678 -0.180948 -0.577589
0.323259 -0.265214 -0.626454
0.673022 -0.16385 -0.432184
0.875956 -0.00481865 -0.266149
-0.730677 -0.395484 -0.141432
-0.0209375 -0.398372 -0.168553
0.48355 -0.467099 -0.198527
0.661814 -0.398752 -0.149481
-0.128834 -0.288676 -0.199328
0.456371 -0.301691 -0.183971
0.680034 -0.296313 -0.160161
0.89841 -0.277116 -0.224076
-0.800158 -0.200673 -0.155266
-0.411464 -0.285551 -0.164481
-0.202296 -0.251016 -0.19848
-0.0903123 -0.212791 -0.143293
0.543863 -0.291395 -0.159761
0.788215 -0.208071 -0.196527
-0.8914 -0.158888 -0.173589
-0.00865556 -0.191607 -0.214482
0.0891643 -0.232897 -0.138804
0.478617 -0.225109 -0.208359
0.716465 -0.167067 -0.18168
-0.798721 -0.129056 -0.23235
-0.582885 -0.163449 -0.204816
0.370498 -0.112324 -0.216677
0.827808 -0.140644 -0.13867
-0.897167 -0.0417488 -0.194441
-0.803562 -0.0262618 -0.168127
-0.512818 -0.190481 -0.341716
-0.441215 -0.0395606 -0.365082
-0.251326 0.00116317 -0.342431
-0.0100521 -0.0567025 -0.145407
0.278334 -0.11265 -0.204308
0.489819 -0.118086 -0.318139
0.651637 -0.0823591 -0.257412
0.823977 -0.0886274 -0.268541
-0.879158 0.0816051 -0.140857
-0.854019 0.157991 -0.196496
-0.923398 0.263512 -0.17091
0.0854476 0.264535 -0.0294732
0.547682 0.258216 -0.0679011
-0.536506 0.309584 -0.0692653
-0.329154 0.29828 -0.0330001
0.279476 0.387613 -0.0686402
0.570613 0.353414 -0.064408
0.695617 0.409724 -0.0379774
-0.865511 -0.377988 -0.0877297
-0.655278 -0.384664 -0.0675393
-0.568456 -0.391495 -0.0285929
-0.433584 -0.3792 -0.12138
-0.335477 -0.33562 -0.030088
-0.244875 -0.363587 -0.0389154
-0.149027 -0.399995 -0.108584
-0.0854038 -0.347428 -0.0690954
0.0480356 -0.384671 -0.0387927
0.133823 -0.374184 -0.0908932
0.209332 -0.334188 -0.0298878
0.279371 -0.357019 -0.128112
0.404813 -0.421876 -0.0533507
0.536087 -0.349546 -0.0933836
0.616029 -0.375322 -0.0337158
0.759815 -0.350732 -0.0416525
0.893682 -0.395474 -0.133535
-0.772972 -0.327848 -0.0893144
-0.625387 -0.303859 -0.0970393
-0.49621 -0.357125 -0.0728368
-0.268105 -0.28813 -0.0914841
-0.170539 -0.291904 -0.0512633
-0.0146317 -0.29577 -0.0515478
0.0914759 -0.303514 -0.086617
0.356785 -0.342754 -0.0478929
0.453332 -0.357912 -0.0387934
0.82997 -0.310182 -0.0720398
-0.8565 -0.262885 -0.114063
-0.725622 -0.236859 -0.113148
-0.547002 -0.227825 -0.106465
-0.370097 -0.238645 -0.0271602
-0.309003 -0.210535 -0.126889
0.0188418 -0.225541 -0.0671567
0.165255 -0.255087 -0.0992738
0.256897 -0.233628 -0.0465015
0.337546 -0.27802 -0.119913
0.633341 -0.281585 -0.0477672
0.774555 -0.239941 -0.0660466
-0.781192 -0.133942 -0.04301
-0.649467 -0.173334 -0.134092
-0.449799 -0.234228 -0.0372084
-0.382042 -0.181179 -0.116273
-0.199978 -0.192419 -0.0624769
-0.119113 -0.149871 -0.0495921
-0.034827 -0.14977 -0.0510675
0.178678 -0.176876 -0.0559148
0.437434 -0.263481 0.0416417
0.48082 -0.250486 -0.110163
0.551782 -0.225569 -0.0539759
0.699319 -0.24327 -0.0195487
0.755881 -0.136839 -0.0622223
0.877537 -0.192573 -0.0871954
-0.853585 -0.0900511 -0.0563796
-0.697444 -0.125995 -0.0302727
-0.581402 -0.139941 -0.103913
-0.44742 -0.125426 -0.108073
-0.316243 -0.0994345 -0.0276282
-0.248055 -0.118352 -0.122527
0.0543519 -0.115191 -0.0857236
0.217039 -0.0951641 -0.0830841
0.487704 -0.100644 -0.0832552
0.896184 -0.102591 -0.052871
-0.860786 -0.0068378 -0.0465652
-0.695819 -0.10121 -0.179094
-0.642115 -0.0483385 -0.0383238
-0.504452 -0.0471604 -0.15167
-0.390979 -0.0642536 -0.108834
-0.206168 -0.0313974 -0.0386749
-0.130348 -0.0623747 -0.0614353
0.0677507 -0.0548866 -0.140799
0.562613 -0.0242801 -0.0690855
0.636299 -0.0809172 -0.0735213
0.730625 -0.0499217 -0.0304274
0.84599 -0.062194 -0.17365
0.961639 -0.0380329 -0.0745826
-0.789344 0.122307 -0.0172182
-0.415821 0.145822 -0.0358024
-0.0353333 0.138192 -0.0338501
0.175073 0.125391 -0.0152618
0.303547 0.125134 -0.0151958
0.492557 0.123563 -0.0172162
0.784018 0.131832 -0.0248793
0.887364 0.129049 -0.0260612
-0.902871 0.153487 -0.0918703
-0.749081 0.170884 -0.0633406
-0.62414 0.223398 -0.06149
-0.486709 0.184044 -0.0566001
-0.338331 0.215783 -0.0687155
-0.277072 0.152762 -0.0205595
-0.105269 0.186341 -0.0099264
0.0330065 0.2022 -0.0272403
0.139625 0.184899 -0.0669791
0.216257 0.196526 -0.0466356
0.381755 0.143925 -0.0393148
0.509609 0.184386 -0.0631678
0.602468 0.18042 -0.0623137
0.689565 0.180291 -0.0633879
0.953841 0.181524 -0.0492111
-0.835539 0.184163 -0.0533759
-0.783174 0.279525 -0.0421254
-0.660072 0.286274 -0.0348503
-0.525791 0.273475 0.0191447
-0.454467 0.262852 -0.0689242
-0.226799 0.194411 -0.0646886
-0.0486431 0.224635 -0.0549664
0.298058 0.211195 -0.0228343
0.376891 0.217168 -0.0694329
0.690801 0.25971 -0.0649493
0.768404 0.224829 -0.0299069
0.861869 0.217023 -0.0606055
-0.874344 0.310039 -0.0684128
-0.725326 0.350489 -0.0594825
-0.567257 0.365776 0.0320977
-0.220701 0.291879 -0.0324938
-0.145858 0.277713 -0.0595254
-0.0780262 0.312435 -0.0316159
0.00731581 0.321296 -0.0595121
0.254234 0.306769 -0.0131973
0.345097 0.325228 -0.0556277
0.422112 0.295138 -0.0556346
0.508339 0.322743 -0.023491
0.659127 0.33385 -0.044392
0.71768 0.279334 0.0136296
0.829677 0.307247 -0.0272707
0.913302 0.310858 -0.0141272
-0.691976 0.399575 0.00273132
-0.6049 0.347032 -0.0519027
-0.550447 0.441988 -0.0477244
-0.476039 0.369421 -0.0316124
-0.398141 0.357453 -0.0628092
-0.30906 0.400277 -0.0623323
-0.240064 0.432537 -0.0184354
-0.185671 0.365729 -0.014893
-0.108308 0.390891 -0.0275269
0.0874745 0.342414 -0.0491877
0.116948 0.430004 -0.0161729
0.173479 0.352119 -0.0624696
0.408083 0.38916 -0.0336981
0.332664 0.426733 0.000141751
0.474134 0.427966 -0.0578853
0.751899 0.349131 -0.038881
0.815357 0.405651 -0.0650355
-0.751221 0.426703 -0.0469495
0.0341228 0.447326 -0.0691412
0.225609 0.428729 -0.00652828
0.609619 0.442783 -0.0684816
0.957483 0.424631 -0.0427175
-0.749157 0.585152 0.0640422
0.529748 -0.257734 0.028824
0.375356 -0.180348 0.0232276
0.574135 -0.123712 0.0172932
-0.707712 0.115195 -0.00761787
-0.596333 0.163534 0.244719
-0.20878 0.250927 0.128579
0.102348 0.158405 0.0157548
-0.628752 0.284109 0.0492118
-0.308756 0.230783 0.0048252
0.174414 0.266692 0.0105844
0.399602 0.324554 0.0147598
0.667937 0.424828 0.0391828
-0.0829772 0.493879 0.369368
0.66629 0.250512 0.140236
-0.00690132 0.30271 0.0611858
0.848044 0.324808 0.103087
0.905475 0.334785 0.203553
0.532801 0.382926 0.330033
0.26564 0.662182 0.23321
-0.752065 0.67209 0.472376
0.356082 0.846565 0.797519
0.105372 0.658357 0.968951
0.440003 0.769749 0.945864
-0.459202 0.897895 0.654062
-0.517851 0.00284985 -0.03087
0.297704 -0.00560515 -0.0158322
-0.6173 0.107742 -0.00254024
0.865554 -0.0449243 0.00101001
0.619886 0.000419378 -0.0327081
-0.845047 -0.312949 -0.0243107
-0.475691 -0.0532436 -0.0187486
0.0649517 0.104429 0.0240075
0.119809 -0.253251 -0.0107621
-0.270562 -0.236358 -0.000446727
-0.125978 -0.227597 -0.0218518
-0.758074 -0.247809 -0.0239023
-0.374198 0.0108565 -0.0449188
-0.584664 -0.108169 -0.0174943
-0.67818 -0.253161 -0.000384802
0.427849 -0.0627588 -0.0210937
0.106344 -0.0359641 -0.000438027
0.443611 0.0154518 -0.0560322
-0.751345 -0.382282 -0.00320864
0.875069 -0.231731 -0.0025348
-0.301092 -0.00561247 -0.0156099
-0.130171 0.00169806 -0.0153175
0.829672 -0.134211 -0.00919615
0.594906 0.121301 -0.00787723
0.457502 -0.161132 -0.020337
0.128901 -0.335818 -0.00423433
0.427029 0.210916 -0.0053107
-0.855876 0.398237 -0.0100951
0.776386 0.0136366 -0.0292271
-0.398881 -0.12146 -0.000545642
0.189166 0.00813101 -0.0396988
0.514661 -0.395084 -0.00055945
0.675951 0.105945 0.00789188
0.86059 -0.383814 -0.018113
0.294615 -0.0932446 -0.00057573
-0.179825 0.143 -0.00942832
-0.862807 -0.176745 -0.0227442
-0.588328 -0.276419 -0.00375742
-0.428434 -0.309327 -0.00353539
-0.0131821 -0.0235927 -0.0216352
0.672773 -0.13786 -0.0214021
-0.42108 0.225487 -0.00265433
0.0793397 -0.150213 -0.0138186
-0.72942 -0.0401461 -0.0139301
-0.638008 -0.181461 -0.0064547
0.600855 0.256792 -0.00261159
0.017765 -0.0993793 -0.00511641
-0.41056 -0.388963 -0.0126934
-0.236838 0.110214 0.0297548
0.329257 -0.234109 -0.00782721
-0.0577591 0.0207947 -0.0626583
0.215555 -0.0518609 -0.00489756
-0.887684 -0.399727 -0.004786
-0.883123 0.0659101 -0.014999
-0.247524 -0.151234 -0.00204738
-0.675228 0.196019 -0.00314313
-0.787287 0.0046817 -0.0286762
-0.671818 0.016947 -0.0408947
-0.0204042 0.385168 -0.00239857
-0.51859 -0.152955 -0.00578184
-0.576485 0.183606 -0.00109525
0.871201 0.0145753 -0.0487208
0.504788 0.231951 -0.000156547
-0.148809 -0.369787 -0.00842233
-0.518553 0.119495 -0.0148619
0.286982 -0.306279 -0.0140325
0.305209 -0.397996 -0.0242905
-0.898416 0.235524 -0.0227435
-0.0283231 -0.367269 -0.00967738
0.694051 -0.39373 -0.0116343
-0.391882 -0.0509259 -0.0145343
-0.892858 0.14668 -0.00126036
-0.333742 -0.1724 -0.000833352
0.149923 -0.109574 -0.0120729
0.874724 0.391609 -0.0077793
0.364667 0.00994073 -0.0611333
-0.896017 -0.250418 -0.0249
0.519952 0.0158238 -0.0455197
-0.0439497 -0.223504 -0.0178682
VERTICES 354 708
1 0
1 1
1 2
1 3
1 4
1 5
1 6
1 7
1 8
1 9
1 10
1 11
1 12
1 13
1 14
1 15
1 16
1 17
1 18
1 19
1 20
1 21
1 22
1 23
1 24
1 25
1 26
1 27
1 28
1 29
1 30
1 31
1 32
1 33
1 34
1 35
1 36
1 37
1 38
1 39
1 40
1 41
1 42
1 43
1 44
1 45
1 46
1 47
1 48
1 49
1 50
1 51
1 52
1 53
1 54
1 55
1 56
1 57
1 58
1 59
1 60
1 61
1 62
1 63
1 64
1 65
1 66
1 67
1 68
1 69
1 70
1 71
1 72
1 73
1 74
1 75
1 76
1 77
1 78
1 79
1 80
1 81
1 82
1 83
1 84
1 85
1 86
1 87
1 88
1 89
1 90
1 91
1 92
1 93
1 94
1 95
1 96
1 97
1 98
1 99
1 100
1 101
1 102
1 103
1 104
1 105
1 106
1 107
1 108
1 109
1 110
1 111
1 112
1 113
1 114
1 115
1 116
1 117
1 118
1 119
1 120
1 121
1 122
1 123
1 124
1 125
1 126
1 127
1 128
1 129
1 130
1 131
1 132
1 133
1 134
1 135
1 136
1 137
1 138
1 139
1 140
1 141
1 142
1 143
1 144
1 145
1 146
1 147
1 148
1 149
1 150
1 151
1 152
1 153
1 154
1 155
1 156
1 157
1 158
1 159
1 160
1 161
1 162
1 163
1 164
1 165
1 166
1 167
1 168
1 169
1 170
1 171
1 172
1 173
1 174
1 175
1 176
1 177
1 178
1 179
1 180
1 181
1 182
1 183
1 184
1 185
1 186
1 187
1 188
1 189
1 190
1 191
1 192
1 193
1 194
1 195
1 196
1 197
1 198
1 199
1 200
1 201
1 202
1 203
1 204
1 205
1 206
1 207
1 208
1 209
1 210
1 211
1 212
1 213
1 214
1 215
1 216
1 217
1 218
1 219
1 220
1 221
1 222
1 223
1 224
1 225
1 226
1 227
1 228
1 229
1 230
1 231
1 232
1 233
1 234
1 235
1 236
1 237
1 238
1 239
1 240
1 241
1 242
1 243
1 244
1 245
1 246
1 247
1 248
1 249
1 250
1 251
1 252
1 253
1 254
1 255
1 256
1 257
1 258
1 259
1 260
1 261
1 262
1 263
1 264
1 265
1 266
1 267
1 268
1 269
1 270
1 271
1 272
1 273
1 274
1 275
1 276
1 277
1 278
1 279
1 280
1 281
1 282
1 283
1 284
1 285
1 286
1 287
1 288
1 289
1 290
1 291
1 292
1 293
1 294
1 295
1 296
1 297
1 298
1 299
1 300
1 301
1 302
1 303
1 304
1 305
1 306
1 307
1 308
1 309
1 310
1 311
1 312
1 313
1 314
1 315
1 316
1 317
1 318
1 319
1 320
1 321
1 322
1 323
1 324
1 325
1 326
1 327
1 328
1 329
1 330
1 331
1 332
1 333
1 334
1 335
1 336
1 337
1 338
1 339
1 340
1 341
1 342
1 343
1 344
1 345
1 346
1 347
1 348
1 349
1 350
1 351
1 352
1 353
POINT_DATA 354
VECTORS i float
0.0 0.0 0.0
0.0 0.0 0.0
0.0 0.0 0.0
0.0 0.0 0.0
0.0 0.0 0.0
0.0 0.0 0.0
0.0 0.0 0.0
0.0 0.0 0.0
0.0 0.0 0.0
0.0 0.0 0.0
0.0 0.0 0.0
0.0 0.0 0.0
0.0 0.0 0.0
0.0 0.0 0.0
0.0 0.0 0.0
0.0 0.0 0.0
0.0 0.0 0.0
0.0 0.0 0.0
0.0 0.0 0.0
0.0 0.0 0.0
0.0 0.0 0.0
0.0 0.0 0.0
0.0 0.0 0.0
0.0 0.0 0.0
0.0 0.0 0.0
0.0 0.0 0.0
0.0 0.0 0.0
0.0 0.0 0.0
0.0 0.0 0.0
0.0 0.0 0.0
0.0 0.0 0.0
0.0 0.0 0.0
0.0 0.0 0.0
0.0 0.0 0.0
0.0 0.0 0.0
0.0 0.0 0.0
0.0 0.0 0.0
0.0 0.0 0.0
0.0 0.0 0.0
0.0 0.0 0.0
0.0 0.0 0.0
0.0 0.0 0.0
0.0 0.0 0.0
0.0 0.0 0.0
0.0 0.0 0.0
0.0 0.0 0.0
0.0 0.0 0.0
0.0 0.0 0.0
0.0 0.0 0.0
0.0 0.0 0.0
0.0 0.0 0.0
0.0 0.0 0.0
0.0 0.0 0.0
0.0 0.0 0.0
0.0 0.0 0.0
0.0 0.0 0.0
0.0 0.0 0.0
0.0 0.0 0.0
0.0 0.0 0.0
0.0 0.0 0.0
0.0 0.0 0.0
0.0 0.0 0.0
0.0 0.0 0.0
0.0 0.0 0.0
0.0 0.0 0.0
0.0 0.0 0.0
0.0 0.0 0.0
0.0 0.0 0.0
0.0 0.0 0.0
0.0 0.0 0.0
0.0 0.0 0.0
0.0 0.0 0.0
0.0 0.0 0.0
0.0 0.0 0.0
0.0 0.0 0.0
0.0 0.0 0.0
0.0 0.0 0.0
0.0 0.0 0.0
0.0 0.0 0.0
0.0 0.0 0.0
0.0 0.0 0.0
0.0 0.0 0.0
0.0 0.0 0.0
0.0 0.0 0.0
0.0 0.0 0.0
0.0 0.0 0.0
0.0 0.0 0.0
0.0 0.0 0.0
0.0 0.0 0.0
0.0 0.0 0.0
0.0 0.0 0.0
0.0 0.0 0.0
0.0 0.0 0.0
0.0 0.0 0.0
0.0 0.0 0.0
0.0 0.0 0.0
0.0 0.0 0.0
0.0 0.0 0.0
0.0 0.0 0.0
0.0 0.0 0.0
0.0 0.0 0.0
0.0 0.0 0.0
0.0 0.0 0.0
0.0 0.0 0.0
0.0 0.0 0.0
0.0 0.0 0.0
0.0 0.0 0.0
0.0 0.0 0.0
0.0 0.0 0.0
0.0 0.0 0.0
0.0 0.0 0.0
0.0 0.0 0.0
0.0 0.0 0.0
0.0 0.0 0.0
0.0 0.0 0.0
0.0 0.0 0.0
0.0 0.0 0.0
0.0 0.0 0.0
0.0 0.0 0.0
0.0 0.0 0.0
0.0 0.0 0.0
0.0 0.0 0.0
0.0 0.0 0.0
0.0 0.0 0.0
0.0 0.0 0.0
0.0 0.0 0.0
0.0 0.0 0.0
0.0 0.0 0.0
0.0 0.0 0.0
0.0 0.0 0.0
0.0 0.0 0.0
0.0 0.0 0.0
0.0 0.0 0.0
0.0 0.0 0.0
0.0 0.0 0.0
0.0 0.0 0.0
0.0 0.0 0.0
0.0 0.0 0.0
0.0 0.0 0.0
0.0 0.0 0.0
0.0 0.0 0.0
0.0 0.0 0.0
0.0 0.0 0.0
0.0 0.0 0.0
0.0 0.0 0.0
0.0 0.0 0.0
0.0 0.0 0.0
0.0 0.0 0.0
0.0 0.0 0.0
0.0 0.0 0.0
0.0 0.0 0.0
0.0 0.0 0.0
0.0 0.0 0.0
0.0 0.0 0.0
0.0 0.0 0.0
0.0 0.0 0.0
0.0 0.0 0.0
0.0 0.0 0.0
0.0 0.0 0.0
0.0 0.0 0.0
0.0 0.0 0.0
0.0 0.0 0.0
0.0 0.0 0.0
0.0 0.0 0.0
0.0 0.0 0.0
0.0 0.0 0.0
0.0 0.0 0.0
0.0 0.0 0.0
0.0 0.0 0.0
0.0 0.0 0.0
0.0 0.0 0.0
0.0 0.0 0.0
0.0 0.0 0.0
0.0 0.0 0.0
0.0 0.0 0.0
0.0 0.0 0.0
0.0 0.0 0.0
0.0 0.0 0.0
0.0 0.0 0.0
0.0 0.0 0.0
0.0 0.0 0.0
0.0 0.0 0.0
0.0 0.0 0.0
0.0 0.0 0.0
0.0 0.0 0.0
0.0 0.0 0.0
0.0 0.0 0.0
0.0 0.0 0.0
0.0 0.0 0.0
0.0 0.0 0.0
0.0 0.0 0.0
0.0 0.0 0.0
0.0 0.0 0.0
0.0 0.0 0.0
0.0 0.0 0.0
0.0 0.0 0.0
0.0 0.0 0.0
0.0 0.0 0.0
0.0 0.0 0.0
0.0 0.0 0.0
0.0 0.0 0.0
0.0 0.0 0.0
0.0 0.0 0.0
0.0 0.0 0.0
0.0 0.0 0.0
0.0 0.0 0.0
0.0 0.0 0.0
0.0 0.0 0.0
0.0 0.0 0.0
0.0 0.0 0.0
0.0 0.0 0.0
0.0 0.0 0.0
0.0 0.0 0.0
0.0 0.0 0.0
0.0 0.0 0.0
0.0 0.0 0.0
0.0 0.0 0.0
0.0 0.0 0.0
0.0 0.0 0.0
0.0 0.0 0.0
0.0 0.0 0.0
0.0 0.0 0.0
0.0 0.0 0.0
0.0 0.0 0.0
0.0 0.0 0.0
0.0 0.0 0.0
0.0 0.0 0.0
0.0 0.0 0.0
0.0 0.0 0.0
0.0 0.0 0.0
0.0 0.0 0.0
0.0 0.0 0.0
0.0 0.0 0.0
0.0 0.0 0.0
0.0 0.0 0.0
0.0 0.0 0.0
0.0 0.0 0.0
0.0 0.0 0.0
0.0 0.0 0.0
0.0 0.0 0.0
0.0 0.0 0.0
0.0 0.0 0.0
0.0 0.0 0.0
0.0 0.0 0.0
0.0 0.0 0.0
0.0 0.0 0.0
0.0 0.0 0.0
0.0 0.0 0.0
0.0 0.0 0.0
0.0 0.0 0.0
0.0 0.0 0.0
0.0 0.0 0.0
0.0 0.0 0.0
0.0 0.0 0.0
0.0 0.0 0.0
0.0 0.0 0.0
0.0 0.0 0.0
0.0 0.0 0.0
0.0 0.0 0.0
0.0 0.0 0.0
0.0 0.0 0.0
0.0 0.0 0.0
0.0 0.0 0.0
0.0 0.0 0.0
0.0 0.0 0.0
0.0 0.0 0.0
0.0 0.0 0.0
0.0 0.0 0.0
0.0 0.0 0.0
0.0 0.0 0.0
0.0 0.0 0.0
0.0 0.0 0.0
0.0 0.0 0.0
0.0 0.0 0.0
0.0 0.0 0.0
0.0 0.0 0.0
0.0 0.0 0.0
0.0 0.0 0.0
0.0 0.0 0.0
0.0 0.0 0.0
0.0 0.0 0.0
0.0 0.0 0.0
0.0 0.0 0.0
0.0 0.0 0.0
0.0 0.0 0.0
0.0 0.0 0.0
0.0 0.0 0.0
0.0 0.0 0.0
0.0 0.0 0.0
0.0 0.0 0.0
0.0 0.0 0.0
0.0 0.0 0.0
0.0 0.0 0.0
0.0 0.0 0.0
0.0 0.0 0.0
0.0 0.0 0.0
0.0 0.0 0.0
0.0 0.0 0.0
0.0 0.0 0.0
0.0 0.0 0.0
0.0 0.0 0.0
0.0 0.0 0.0
0.0 0.0 0.0
0.0 0.0 0.0
0.0 0.0 0.0
0.0 0.0 0.0
0.0 0.0 0.0
0.0 0.0 0.0
0.0 0.0 0.0
0.0 0.0 0.0
0.0 0.0 0.0
0.0 0.0 0.0
0.0 0.0 0.0
0.0 0.0 0.0
0.0 0.0 0.0
0.0 0.0 0.0
0.0 0.0 0.0
0.0 0.0 0.0
0.0 0.0 0.0
0.0 0.0 0.0
0.0 0.0 0.0
0.0 0.0 0.0
0.0 0.0 0.0
0.0 0.0 0.0
0.0 0.0 0.0
0.0 0.0 0.0
0.0 0.0 0.0
0.0 0.0 0.0
0.0 0.0 0.0
0.0 0.0 0.0
0.0 0.0 0.0
0.0 0.0 0.0
0.0 0.0 0.0
0.0 0.0 0.0
0.0 0.0 0.0
0.0 0.0 0.0
0.0 0.0 0.0
0.0 0.0 0.0
0.0 0.0 0.0
0.0 0.0 0.0
0.0 0.0 0.0
0.0 0.0 0.0
0.0 0.0 0.0
0.0 0.0 0.0
0.0 0.0 0.0
0.0 0.0 0.0
0.0 0.0 0.0
0.0 0.0 0.0
0.0 0.0 0.0
0.0 0.0 0.0
0.0 0.0 0.0
0.0 0.0 0.0
0.0 0.0 0.0
0.0 0.0 0.0
VECTORS f float
0.0 0.0 -6.57473
0.0 0.0 -6.57473
0.0 0.0 -6.57473
0.0 0.0 -6.57473
2.68699 47.9642 954.214
0.0 0.0 -6.57473
0.0 0.0 -6.57473
0.0 0.0 -6.57473
0.0 0.0 -6.57473
0.0 0.0 -6.57473
0.0 0.0 -6.57473
0.0 0.0 -6.57473
0.0 0.0 -6.57473
0.0 0.0 -6.57473
0.0 0.0 -6.57473
0.0 0.0 -6.57473
0.0 0.0 -6.57473
0.0 0.0 -6.57473
0.0 0.0 -6.57473
0.0 0.0 -6.57473
103.546 -30.5007 66.9017
-32.3663 -141.599 14.1779
0.0 0.0 -6.57473
0.0 0.0 -6.57473
0.0 0.0 -6.57473
0.0 0.0 -6.57473
0.0 0.0 -6.57473
0.0 0.0 -6.57473
0.0 0.0 -6.57473
-53.5043 7.74205 -10.9594
53.5043 -7.74205 -2.19005
0.0 0.0 -6.57473
0.0 0.0 -6.57473
0.0 0.0 -6.57473
0.0 0.0 -6.57473
0.0 0.0 -6.57473
0.0 0.0 -6.57473
0.0 0.0 -6.57473
0.0 0.0 -6.57473
0.0 0.0 -6.57473
0.0 0.0 -6.57473
0.0 0.0 -6.57473
0.0 0.0 -6.57473
0.0 0.0 -6.57473
0.0 0.0 -6.57473
-103.546 30.5007 -80.0511
0.0 0.0 -6.57473
0.0 0.0 -6.57473
0.0 0.0 -6.57473
0.0 0.0 -6.57473
0.0 0.0 -6.57473
0.0 0.0 -6.57473
0.0 0.0 -6.57473
0.0 0.0 -6.57473
0.0 0.0 -6.57473
0.0 0.0 -6.57473
0.0 0.0 -6.57473
0.0 0.0 -6.57473
0.0 0.0 -6.57473
0.0 0.0 -6.57473
0.0 0.0 -6.57473
0.0 0.0 -6.57473
0.0 0.0 -6.57473
0.0 0.0 -6.57473
0.0 0.0 -6.57473
0.0 0.0 -6.57473
0.0 0.0 -6.57473
0.0 0.0 -6.57473
0.0 0.0 -6.57473
0.0 0.0 -6.57473
0.0 0.0 -6.57473
0.0 0.0 -6.57473
0.0 0.0 -6.57473
0.0 0.0 -6.57473
0.0 0.0 -6.57473
0.0 0.0 -6.57473
0.0 0.0 -6.57473
0.0 0.0 -6.57473
0.0 0.0 -6.57473
0.0 0.0 -6.57473
0.0 0.0 -6.57473
0.0 0.0 -6.57473
0.0 0.0 -6.57473
0.0 0.0 -6.57473
0.0 0.0 -6.57473
32.3663 141.599 -27.3274
0.0 0.0 -6.57473
0.0 0.0 -6.57473
-80.2512 -5.30692 -13.4485
0.0 0.0 -6.57473
0.0 0.0 -6.57473
0.0 0.0 -6.57473
0.0 0.0 -6.57473
0.0 0.0 -6.57473
0.0 0.0 -6.57473
0.0 0.0 -6.57473
0.0 0.0 -6.57473
0.744862 -0.0106164 8.32403
13.5065 -5.00674 82.8902
0.0 0.0 -6.57473
2.86652 -0.120126 50.8059
0.0 0.0 -6.57473
0.0 0.0 -6.57473
0.0 0.0 -6.57473
0.0 0.0 -6.57473
0.0 0.0 -6.57473
0.0 0.0 -6.57473
0.0 0.0 -6.57473
0.0 0.0 -6.57473
0.0 0.0 -6.57473
0.0 0.0 -6.57473
0.0 0.0 -6.57473
0.0 0.0 -6.57473
0.0 0.0 -6.57473
0.0 0.0 -6.57473
0.0 0.0 -6.57473
0.0 0.0 -6.57473
0.0 0.0 -6.57473
0.0 0.0 -6.57473
0.0 0.0 -6.57473
0.0 0.0 -6.57473
0.0 0.0 -6.57473
0.0 0.0 -6.57473
0.0 0.0 -6.57473
0.0 0.0 -6.57473
-11.7564 -21.7446 -1.5316
0.0 0.0 -6.57473
19.7081 22.8051 -14.8834
0.0 0.0 -6.57473
0.0 0.0 -6.57473
0.0 0.0 -6.57473
0.0 0.0 -6.57473
0.0 0.0 -6.57473
0.0 0.0 -6.57473
25.5803 -11.8092 -10.3023
16.3811 21.6226 -14.8894
0.0 0.0 -6.57473
0.0 0.0 -6.57473
0.0 0.0 -6.57473
0.0 0.0 -6.57473
0.0 0.0 -6.57473
0.0 0.0 -6.57473
0.0 0.0 -6.57473
0.0 0.0 -6.57473
-25.5803 11.8092 -2.84719
0.0 0.0 -6.57473
0.0 0.0 -6.57473
0.0 0.0 -6.57473
0.0 0.0 -6.57473
0.0 0.0 -6.57473
0.0 0.0 -6.57473
0.0 0.0 -6.57473
0.0 0.0 -6.57473
0.0 0.0 -6.57473
0.0 0.0 -6.57473
0.0 0.0 -6.57473
0.0 0.0 -6.57473
0.0 0.0 -6.57473
0.0 0.0 -6.57473
3.04493 13.9161 -10.9308
0.0 0.0 -6.57473
0.0 0.0 -6.57473
0.0 0.0 -6.57473
0.0 0.0 -6.57473
0.0 0.0 -6.57473
-118.894 -22.9498 -40.4134
0.0 0.0 -6.57473
112.136 -260.478 -9.34087
0.0 0.0 -6.57473
0.0 0.0 -6.57473
0.0 0.0 -6.57473
-0.36962 -33.7929 -28.4453
80.2512 5.30692 0.299069
133.878 -478.305 -381.004
0.0 0.0 -6.57473
-34.3585 -50.5623 -10.0794
0.0 0.0 -6.57473
-77.974 0.913312 -2.78451
-36.2457 -40.3962 36.8352
0.0 0.0 -6.57473
2.00077 28.2625 21.7906
0.0 0.0 -6.57473
0.0 0.0 -6.57473
-12.1992 -55.4692 36.5317
0.0 0.0 -6.57473
4.57015 64.5509 58.3062
0.0 0.0 -6.57473
36.5986 45.3815 -44.9812
47.3563 -78.9522 -45.3297
0.0 0.0 -6.57473
3.19496 0.0234731 57.3262
-71.5467 5.1676 -14.1075
0.0 0.0 -6.57473
0.0 0.0 -6.57473
0.0 0.0 -6.57473
0.0 0.0 -6.57473
2.75178 -1.63597 22.6844
12.7119 39.6379 -71.8655
0.0 0.0 -6.57473
0.514873 -20.6597 -5.56195
0.0 0.0 -6.57473
0.0 0.0 -6.57473
0.0 0.0 -6.57473
-47.3563 78.9522 32.1802
0.0 0.0 -6.57473
3.23961 -0.145813 58.2831
36.4418 34.097 -40.3223
0.0 0.0 -6.57473
0.0 0.0 -6.57473
3.6564 20.7736 84.4183
-0.514873 20.6597 -7.5875
0.0 0.0 -6.57473
0.0 0.0 -6.57473
0.0 0.0 -6.57473
0.0 0.0 -6.57473
0.0 0.0 -6.57473
0.0 0.0 -6.57473
0.0 0.0 -6.57473
0.0 0.0 -6.57473
0.0 0.0 -6.57473
0.0 0.0 -6.57473
0.0 0.0 -6.57473
4.16409 -6.75085 -21.0948
0.0 0.0 -6.57473
0.0 0.0 -6.57473
0.0 0.0 -6.57473
0.0 0.0 -6.57473
0.0 0.0 -6.57473
0.0 0.0 -6.57473
-8.94683 4.92085 -4.83069
0.0 0.0 -6.57473
0.0 0.0 -6.57473
0.0 0.0 -6.57473
0.0 0.0 -6.57473
0.0 0.0 -6.57473
0.0 0.0 -6.57473
0.0 0.0 -6.57473
0.0 0.0 -6.57473
0.0 0.0 -6.57473
0.0 0.0 -6.57473
0.0 0.0 -6.57473
0.0 0.0 -6.57473
0.0 0.0 -6.57473
0.0 0.0 -6.57473
0.0 0.0 -6.57473
0.0 0.0 -6.57473
3.76105 -0.25693 68.8216
0.0 0.0 -6.57473
1.84185 -0.0864204 30.3027
0.0 0.0 -6.57473
0.0 0.0 -6.57473
0.0 0.0 -6.57473
50.6161 63.7099 25.6601
0.0 0.0 -6.57473
0.0 0.0 -6.57473
0.0 0.0 -6.57473
0.0 0.0 -6.57473
271.301 414.321 -47.4607
0.0 0.0 -6.57473
0.0 0.0 -6.57473
0.0 0.0 -6.57473
-4.16409 6.75085 7.94536
0.0 0.0 -6.57473
0.0 0.0 -6.57473
0.0 0.0 -6.57473
0.0 0.0 -6.57473
0.0 0.0 -6.57473
0.0 0.0 -6.57473
0.0 0.0 -6.57473
0.0 0.0 -6.57473
0.0 0.0 -6.57473
0.0 0.0 -6.57473
2.22451 26.2803 -534.061
0.0 0.0 -6.57473
0.0 0.0 -6.57473
-176.693 247.656 -45.5889
0.0 0.0 -6.57473
0.256381 3.62336 -2.94564
-4.4921 -50.8919 31.8068
241.787 92.1562 133.109
0.0 0.0 -6.57473
176.693 -247.656 32.4395
-271.301 -414.321 34.3112
0.0 0.0 -6.57473
0.0 0.0 -6.57473
0.0 0.0 -6.57473
0.0 0.0 -6.57473
72.755 267.226 -121.431
0.0 0.0 -6.57473
0.0 0.0 -6.57473
0.0 0.0 -6.57473
0.0 0.0 -6.57473
-102.147 5.24261 -19.3445
0.0 0.0 -6.57473
0.0 0.0 -6.57473
0.0 0.0 -6.57473
0.36962 33.7929 15.2958
0.0 0.0 -6.57473
0.0 0.0 -6.57473
0.0 0.0 -6.57473
0.0 0.0 -6.57473
0.0 0.0 -6.57473
0.0 0.0 -6.57473
34.3585 50.5623 -3.07002
-41.2093 -293.555 42.7205
-70.9124 167.751 -92.2886
0.0 0.0 -6.57473
0.0 0.0 -6.57473
0.0 0.0 -6.57473
0.0 0.0 -6.57473
86.7064 52.5276 -60.8377
0.0 0.0 -6.57473
0.0 0.0 -6.57473
0.0 0.0 -6.57473
93.1749 -97.9533 73.279
0.0 0.0 -6.57473
0.0 0.0 -6.57473
0.0 0.0 -6.57473
149.332 -121.58 23.4919
0.0 0.0 -6.57473
0.0 0.0 -6.57473
0.0 0.0 -6.57473
0.0 0.0 -6.57473
-51.6015 -91.7923 88.9686
-50.6161 -63.7099 -38.8096
-93.1749 97.9533 -86.4284
70.9124 -167.751 79.1391
0.0 0.0 -6.57473
0.0 0.0 -6.57473
0.0 0.0 -6.57473
0.0 0.0 -6.57473
-30.4381 144.53 -2.80272
-112.136 260.478 -3.80858
0.0 0.0 -6.57473
0.0 0.0 -6.57473
0.0 0.0 -6.57473
4.4921 50.8919 -44.9563
-0.51273 15.8313 15.6096
0.0 0.0 -6.57473
1.50031 21.1926 14.6989
0.0 0.0 -6.57473
-19.7081 -22.8051 1.73391
0.0 0.0 -6.57473
0.0 0.0 -6.57473
0.0 0.0 -6.57473
-31.5457 26.3289 58.9867
0.0 0.0 -6.57473
-3.04493 -13.9161 -2.21863
0.0 0.0 -6.57473
0.0 0.0 -6.57473
-24.3999 -0.854338 -7.26802
0.0 0.0 -6.57473
-249.119 381.76 241.634
-4.6247 0.122063 -3.30314
VECTORS omega float
32.488 11.6873 -11.7346
65.8089 14.7146 -14.4316
26.8559 16.1644 -14.0217
25.7518 15.118 -14.5148
10.4295 -7.66459 -2.65393
2.74676 16.9572 -17.8107
0.327637 6.0451 -6.10577
2.26221 8.18246 -7.20249
-3.10265 5.55561 -15.6213
-3.32632 16.1574 -18.1348
5.60425 0.767157 2.80934
3.75617 -1.69568 -5.19486
3.0516 7.24955 -3.02406
-4.56407 2.19043 -3.68179
-3.33166 8.19587 -6.63235
-5.5011 1.44887 -0.662921
2.87361 -3.01561 3.13542
0.0 0.0 0.0
0.0 0.0 0.0
-0.00123231 5.85967 -16.3032
1.14969 0.105582 -6.83366
-0.9573 0.184265 -0.27812
1.72396 0.718979 -9.18371
0.0 0.0 0.0
3.57563 -2.76563 -2.83359
0.0 0.0 0.0
0.0 0.0 0.0
0.0 0.0 0.0
0.0 0.0 0.0
0.00416624 -0.152241 -0.316682
-2.68093 1.05063 -3.20763
0.0 0.0 0.0
0.0 0.0 0.0
0.0 0.0 0.0
0.0 0.0 0.0
0.0 0.0 0.0
1.65411 0.913393 3.69672
-1.93702 2.486 0.845869
1.6032 -0.413811 2.48955
-0.758291 0.2748 -0.443268
0.0 0.0 0.0
10.3825 -0.00930135 -12.1169
2.46223 -0.231052 0.384975
-2.40385 0.77839 2.79675
-5.64911 -5.28123 -2.50679
-23.9237 8.77155 -17.5983
-2.45552 0.371875 1.32686
-7.08544 -2.88516 -0.566623
0.0 0.0 0.0
2.52199 -2.2573 4.90112
-5.60045 6.52968 -6.21678
-6.71805 17.0468 -15.7322
-9.74345 29.9626 -20.6897
-4.94335 9.91657 -10.507
-1.47021 -5.32275 1.6626
0.783245 -0.947559 -0.853134
-9.81792 18.5542 -6.3147
-6.27265 11.151 -13.0739
3.21804 -8.05157 4.26665
0.0 0.0 0.0
0.0 0.0 0.0
0.0 0.0 0.0
3.92385 0.75246 -1.41463
0.0 0.0 0.0
0.384982 0.722066 0.812376
-0.398923 0.146628 0.369958
0.0 0.0 0.0
0.0 0.0 0.0
0.0 0.0 0.0
0.231491 -1.67617 -2.99547
-0.625067 2.38581 2.7002
0.0 0.0 0.0
-2.2866 0.346721 2.23148
0.0 0.0 0.0
0.0 0.0 0.0
-0.35065 -0.191939 0.116839
-1.97106 0.449975 -4.08532
-10.5188 1.1625 7.47839
0.0 0.0 0.0
1.41802 2.23508 -3.49097
-2.16137 -1.42728 1.62929
-16.344 -14.3501 2.60919
-2.83085 -1.60551 -0.592664
0.0 0.0 0.0
0.0 0.0 0.0
-8.31331 -18.6742 16.2336
-8.87458 10.6121 -10.5154
-21.4533 15.7461 -15.6656
-1.88424 -3.40383 0.538274
-2.00377 -7.2701 5.75036
-4.07093 7.76813 -3.95979
1.21848 -1.11467 -2.79077
-1.38596 -9.1788 5.06546
0.0 0.0 0.0
-0.719777 -2.09756 -0.247046
-0.139541 0.470524 -1.83114
0.0 -6.9062 0.0
-2.60574 -8.42096 1.52109
-3.01038 -14.8789 -2.04572
-2.78042 -6.88378 0.223913
-1.55629 -6.58412 0.807398
-4.05396 -7.3885 1.3934
0.122602 -7.95893 -1.00538
0.0 0.0 0.0
0.0 0.0 0.0
-3.23171 1.85862 -3.553
0.0 0.0 0.0
0.0 0.0 0.0
0.0 0.0 0.0
0.0 0.0 0.0
0.0 0.0 0.0
0.0 0.0 0.0
0.0 0.0 0.0
0.0 0.0 0.0
0.0 0.0 0.0
1.07585 0.373768 4.27758
0.0 0.0 0.0
-0.840326 -0.268147 -3.56061
0.0 0.0 0.0
0.0 0.0 0.0
0.0 0.0 0.0
0.0 0.0 0.0
2.14295 0.675489 -9.09153
0.0 0.0 0.0
0.0 0.0 0.0
0.0281663 0.0259183 0.177542
-0.914347 0.964982 -1.65568
-1.79909 0.507048 1.75396
3.26082 -0.864724 -0.0634411
0.0 0.0 0.0
0.0 0.0 0.0
0.0 0.0 0.0
0.550938 0.121626 2.72115
-0.216872 0.776666 2.01547
0.00670798 -0.000322003 0.0472144
-0.824758 0.996263 -0.676833
0.123065 -0.0893663 0.411409
0.0 0.0 0.0
-0.168512 0.386636 -1.85301
-1.00353 -2.65932 -1.57525
0.78904 1.49115 1.53676
0.0 0.0 0.0
0.0 0.0 0.0
1.68351 -0.278658 -2.92773
0.326908 4.26944 -1.62399
0.0 0.0 0.0
0.0 0.0 0.0
0.0 0.0 0.0
-1.08243 -2.18775 -3.43976
-3.25678 -6.30941 -8.22199
-7.9273 0.381409 -8.67289
2.42227 -0.108831 0.387632
-1.48203 -2.1634 -2.0
0.0 0.0 0.0
0.0 0.0 0.0
0.0 0.0 0.0
-1.85408 -0.358903 0.295098
-0.766777 0.224322 -0.500293
-11.6194 1.20955 -4.88148
-2.41726 -0.427441 -0.0461051
0.0 0.0 0.0
-0.846666 -1.76089 -0.953591
-2.28113 -2.17245 0.472512
0.914757 0.93164 1.67105
0.0 0.0 0.0
0.214518 1.76796 -1.9482
-0.372888 8.39753 -9.71723
-7.25434 -3.29221 3.73527
-2.37052 0.426871 -10.9583
-0.498997 2.26781 -2.88067
0.0 0.0 0.0
0.350973 -0.0294461 0.0404077
-1.50401 2.87123 -2.48228
-5.88231 -15.485 8.5231
-3.47432 3.67963 -0.22975
-0.64521 0.472849 -0.514014
0.449232 7.67273 -8.98553
-1.14257 -9.27472 4.25024
-0.629934 -1.02383 1.28269
-1.20786 -3.36269 -0.278417
0.454121 -0.932811 1.75148
0.010204 -1.47383 1.5438
-0.0344816 -1.59776 1.67065
-0.597432 -2.09224 0.329817
2.19387 -2.80567 2.10119
-0.0644865 -0.915489 0.91549
0.367869 -0.516513 -0.23913
-2.85368 -7.0048 2.04729
-2.92836 -9.14962 1.39728
-0.0167279 -8.33119 5.89791
0.810216 -13.0237 -2.76343
-3.38996 -4.14298 4.42119
-0.214238 -4.3219 -0.202393
0.541158 -2.98767 2.06943
-2.21415 -7.01605 1.83544
-0.0400977 -7.63133 -1.71352
0.11064 -2.55521 5.22629
-4.70028 -6.26113 4.57264
-1.81247 -3.12571 0.172501
1.5121 -5.45897 2.72617
0.901196 -4.143 -0.246077
1.71297 -1.25203 0.178863
-0.41224 -4.80182 -1.03239
-2.35265 2.4094 -2.37051
-9.18389 5.57579 -0.51085
-1.23225 -4.94747 -1.39412
2.58976 -11.3746 1.07925
0.236601 -3.55228 1.4909
0.00854278 -5.39358 1.61345
1.53956 -3.91868 0.67757
1.6123 -2.02139 0.610061
2.83577 -6.89616 -0.398275
-3.92371 -12.6 0.174878
1.29827 -1.28185 0.0344172
2.25427 -3.66476 -2.94911
3.74852 1.67267 -0.231264
0.467374 -7.56649 -1.04584
5.61611 -5.76803 2.36147
-2.0532 3.35588 -0.26889
-1.18554 -4.85364 -3.96383
-0.352891 -6.29676 0.601948
2.16512 -2.09866 -1.18225
1.23703 -7.21593 -0.186848
-0.945891 3.35437 3.98868
3.1559 -2.84426 -2.4601
0.374011 0.788635 1.5506
-1.21661 0.701012 -0.830541
0.0 -6.90472 0.0
0.85618 -2.98016 -0.719976
-1.91716 -9.52998 0.311189
3.24762 -6.56812 -1.28368
-1.35612 3.69313 -3.76179
0.645478 -4.71257 -0.538804
-4.06141 -3.61516 -0.685035
-2.00579 -1.18704 -0.00168977
0.340471 -5.78226 0.63328
-0.903179 -3.39267 -0.711857
-2.0372 -5.66102 -0.904796
-1.75754 0.587305 1.11072
1.84108 -8.91046 2.38191
0.170315 -7.20908 -0.14881
-1.69324 1.91552 -2.43832
-2.09034 -7.52972 1.54866
-0.795221 -7.21203 -0.0595218
-1.4647 -11.3662 -5.1904
0.760856 -8.39806 -1.49624
-2.5929 -3.48747 -0.660009
-1.53123 -1.12575 0.880546
-2.51014 -5.04668 -0.328518
0.325025 -4.36171 -5.74631
2.84678 -11.0795 -2.9349
-2.6219 -0.634443 -5.54555
-3.86635 -0.728557 -0.21097
2.57297 2.1608 -8.52681
0.24324 1.25006 0.829568
-10.08 -8.53514 8.95598
-1.96161 -7.235 7.29877
-4.92567 6.37836 -0.630542
-1.79623 -6.55407 2.00544
-1.71234 -4.12069 1.8807
-0.338549 0.270516 -1.15171
0.692065 -0.420466 -1.77704
-6.04287 -4.47192 2.63883
-0.509072 -13.794 13.794
-2.48222 -3.66049 4.33796
-1.00602 -3.49841 3.66161
-8.76984 -2.33544 6.15085
-2.89868 -6.26048 2.97898
-3.1646 -8.00151 7.80757
-2.59 -7.1605 6.66555
-0.279055 -11.321 11.321
-2.45103 -15.0019 14.5756
-35.2541 -13.0581 10.7087
-28.6019 -13.545 13.5659
22.0624 -17.5477 15.4861