# vtk DataFile Version 2.0
Generated by lpp.py
ASCII
DATASET POLYDATA
POINTS 94 float
0.46009 -0.0330799 -0.00783839
-0.81532 0.143092 -0.0268477
-0.19681 -0.0443441 -0.102123
-0.812383 -0.0554963 -0.121374
-0.209852 -0.346526 -0.0336428
0.160158 0.344349 -0.0217718
-0.733231 0.140508 -0.0258821
0.738577 0.209758 -0.0217099
0.424947 -0.137413 -0.0157838
0.883867 -0.107729 -0.0316749
0.400789 0.202685 -0.015241
0.236942 0.307766 -0.0326322
-0.472006 -0.180075 -0.0161503
-0.0242687 0.318125 -0.0194104
0.728376 0.00361832 -0.0471247
0.875956 -0.00481865 -0.0260898
0.805976 -0.341001 -0.0159152
-0.401253 0.331054 -0.0253827
0.590071 -0.299708 -0.026708
0.663496 0.112799 0.000925832
0.899024 0.310858 -0.037103
-0.158255 0.273209 -0.0147616
0.0671472 -0.0256661 -0.0160286
-0.592488 0.233934 0.280756
0.820327 0.207449 -0.0438639
-0.612418 -0.229799 -0.0278681
-0.736217 -0.180329 -0.0359403
0.788215 -0.208071 -0.00791344
-0.640793 0.230811 -0.0478218
-0.000466142 -0.281974 -0.0204704
0.101063 -0.281479 -0.0294285
-0.446172 -0.00918836 -0.0517836
-0.322638 0.141625 0.0145373
-0.199234 -0.2374 -0.0113303
-0.132305 -0.286383 -0.00856439
-0.663861 0.308519 -0.0495041
-0.772086 -0.107729 -0.0103148
-0.279056 -0.044326 -0.0132317
0.272963 -0.227801 -0.0411702
-0.0509311 -0.0064463 -0.0452583
0.814672 0.138056 0.0137901
0.632285 -0.168547 -0.0226928
-0.10793 0.183798 -0.027064
0.541297 0.165228 -0.0447043
-0.0660191 -0.347845 -0.0374028
0.301822 0.145639 -0.0358713
0.658589 0.312015 -0.0136286
-0.0893746 0.39149 -0.0273683
0.89841 -0.277116 -0.014161
-0.898929 -0.399297 -0.0315667
-0.530529 0.269136 -0.0391531
-0.729812 -0.33461 -0.0356306
0.813887 0.358036 -0.0386318
0.345904 -0.172772 -0.0206342
-0.139572 -0.174275 -0.03935
-0.554717 0.386589 -0.0134448
-0.654381 -0.081485 -0.015137
0.878287 -0.194265 -0.030103
-0.504558 0.114868 -0.00766714
0.359702 -0.30605 -0.0349446
0.0991762 0.319308 0.212736
0.583226 -0.21675 -0.280048
-0.434083 -0.103819 -0.0372542
-0.0433868 -0.089735 -0.0207629
0.0250855 0.182887 -0.0163877
0.59263 -0.38804 -0.0362658
0.349243 -0.0353987 -0.0162042
0.148358 0.201368 -0.0416396
-0.396879 0.20309 -0.0523145
-0.203826 0.126704 0.0125294
0.0695903 -0.175769 -0.0330183
-0.883174 -0.316962 -0.0415721
-0.502767 -0.355777 -0.0263034
0.369063 0.287778 0.215955
-0.796545 0.389506 -0.0341643
0.193701 -0.299254 -0.0272956
-0.257535 0.270481 -0.0277869
0.563486 0.318331 -0.0512026
0.178847 -0.0544734 -0.0151555
0.462186 -0.370906 -0.0100391
0.439388 -0.272194 -0.0146716
-0.025276 0.141912 0.0360156
-0.530386 -0.262897 -0.0474209
-0.199692 0.348193 -0.0199361
-0.818387 -0.366864 -0.0303287
-0.00966435 -0.190577 -0.0121451
0.0427891 -0.374689 -0.0357722
-0.124887 -0.0771351 -0.0380321
-0.339111 -0.281288 -0.0520426
-0.598837 -0.378928 -0.0527076
-0.710848 -0.147258 -0.220314
-0.322844 -0.371952 -0.0305822
0.198503 0.185436 0.0800395
0.189969 -0.175917 -0.0487372
VERTICES 94 188
1 0
1 1
1 2
1 3
1 4
1 5
1 6
1 7
1 8
1 9
1 10
1 11
1 12
1 13
1 14
1 15
1 16
1 17
1 18
1 19
1 20
1 21
1 22
1 23
1 24
1 25
1 26
1 27
1 28
1 29
1 30
1 31
1 32
1 33
1 34
1 35
1 36
1 37
1 38
1 39
1 40
1 41
1 42
1 43
1 44
1 45
1 46
1 47
1 48
1 49
1 50
1 51
1 52
1 53
1 54
1 55
1 56
1 57
1 58
1 59
1 60
1 61
1 62
1 63
1 64
1 65
1 66
1 67
1 68
1 69
1 70
1 71
1 72
1 73
1 74
1 75
1 76
1 77
1 78
1 79
1 80
1 81
1 82
1 83
1 84
1 85
1 86
1 87
1 88
1 89
1 90
1 91
1 92
1 93
POINT_DATA 94
VECTORS i float
0.0 0.0 0.0
0.0 0.0 0.0
0.0 0.0 0.0
0.0 0.0 0.0
0.0 0.0 0.0
0.0 0.0 0.0
0.0 0.0 0.0
0.0 0.0 0.0
0.0 0.0 0.0
0.0 0.0 0.0
0.0 0.0 0.0
0.0 0.0 0.0
0.0 0.0 0.0
0.0 0.0 0.0
0.0 0.0 0.0
0.0 0.0 0.0
0.0 0.0 0.0
0.0 0.0 0.0
0.0 0.0 0.0
0.0 0.0 0.0
0.0 0.0 0.0
0.0 0.0 0.0
0.0 0.0 0.0
0.0 0.0 0.0
0.0 0.0 0.0
0.0 0.0 0.0
0.0 0.0 0.0
0.0 0.0 0.0
0.0 0.0 0.0
0.0 0.0 0.0
0.0 0.0 0.0
0.0 0.0 0.0
0.0 0.0 0.0
0.0 0.0 0.0
0.0 0.0 0.0
0.0 0.0 0.0
0.0 0.0 0.0
0.0 0.0 0.0
0.0 0.0 0.0
0.0 0.0 0.0
0.0 0.0 0.0
0.0 0.0 0.0
0.0 0.0 0.0
0.0 0.0 0.0
0.0 0.0 0.0
0.0 0.0 0.0
0.0 0.0 0.0
0.0 0.0 0.0
0.0 0.0 0.0
0.0 0.0 0.0
0.0 0.0 0.0
0.0 0.0 0.0
0.0 0.0 0.0
0.0 0.0 0.0
0.0 0.0 0.0
0.0 0.0 0.0
0.0 0.0 0.0
0.0 0.0 0.0
0.0 0.0 0.0
0.0 0.0 0.0
0.0 0.0 0.0
0.0 0.0 0.0
0.0 0.0 0.0
0.0 0.0 0.0
0.0 0.0 0.0
0.0 0.0 0.0
0.0 0.0 0.0
0.0 0.0 0.0
0.0 0.0 0.0
0.0 0.0 0.0
0.0 0.0 0.0
0.0 0.0 0.0
0.0 0.0 0.0
0.0 0.0 0.0
0.0 0.0 0.0
0.0 0.0 0.0
0.0 0.0 0.0
0.0 0.0 0.0
0.0 0.0 0.0
0.0 0.0 0.0
0.0 0.0 0.0
0.0 0.0 0.0
0.0 0.0 0.0
0.0 0.0 0.0
0.0 0.0 0.0
0.0 0.0 0.0
0.0 0.0 0.0
0.0 0.0 0.0
0.0 0.0 0.0
0.0 0.0 0.0
0.0 0.0 0.0
0.0 0.0 0.0
0.0 0.0 0.0
0.0 0.0 0.0
VECTORS f float
0.0 0.0 -6.57473
0.0 0.0 -6.57473
0.0 0.0 -6.57473
0.0 0.0 -6.57473
0.0 0.0 -6.57473
0.0 0.0 -6.57473
0.0 0.0 -6.57473
0.0 0.0 -6.57473
0.0 0.0 -6.57473
0.0 0.0 -6.57473
0.0 0.0 -6.57473
0.0 0.0 -6.57473
0.0 0.0 -6.57473
0.0 0.0 -6.57473
0.0 0.0 -6.57473
0.0 0.0 -6.57473
0.0 0.0 -6.57473
0.0 0.0 -6.57473
0.0 0.0 -6.57473
0.0 0.0 -6.57473
0.0 0.0 -6.57473
0.0 0.0 -6.57473
0.0 0.0 -6.57473
0.0 0.0 -6.57473
0.0 0.0 -6.57473
0.0 0.0 -6.57473
0.0 0.0 -6.57473
0.0 0.0 -6.57473
0.0 0.0 -6.57473
0.0 0.0 -6.57473
0.0 0.0 -6.57473
0.0 0.0 -6.57473
0.0 0.0 -6.57473
0.0 0.0 -6.57473
0.0 0.0 -6.57473
0.0 0.0 -6.57473
0.0 0.0 -6.57473
0.0 0.0 -6.57473
0.0 0.0 -6.57473
0.0 0.0 -6.57473
0.0 0.0 -6.57473
0.0 0.0 -6.57473
0.0 0.0 -6.57473
0.0 0.0 -6.57473
0.0 0.0 -6.57473
0.0 0.0 -6.57473
0.0 0.0 -6.57473
0.0 0.0 -6.57473
0.0 0.0 -6.57473
0.0 0.0 -6.57473
0.0 0.0 -6.57473
0.0 0.0 -6.57473
0.0 0.0 -6.57473
0.0 0.0 -6.57473
0.0 0.0 -6.57473
0.0 0.0 -6.57473
0.0 0.0 -6.57473
0.0 0.0 -6.57473
0.0 0.0 -6.57473
0.0 0.0 -6.57473
0.0 0.0 -6.57473
0.0 0.0 -6.57473
0.0 0.0 -6.57473
0.0 0.0 -6.57473
0.0 0.0 -6.57473
0.0 0.0 -6.57473
0.0 0.0 -6.57473
0.0 0.0 -6.57473
0.0 0.0 -6.57473
0.0 0.0 -6.57473
0.0 0.0 -6.57473
0.0 0.0 -6.57473
0.0 0.0 -6.57473
0.0 0.0 -6.57473
0.0 0.0 -6.57473
0.0 0.0 -6.57473
0.0 0.0 -6.57473
0.0 0.0 -6.57473
0.0 0.0 -6.57473
0.0 0.0 -6.57473
0.0 0.0 -6.57473
0.0 0.0 -6.57473
0.0 0.0 -6.57473
0.0 0.0 -6.57473
0.0 0.0 -6.57473
0.0 0.0 -6.57473
0.0 0.0 -6.57473
0.0 0.0 -6.57473
0.0 0.0 -6.57473
0.0 0.0 -6.57473
0.0 0.0 -6.57473
0.0 0.0 -6.57473
0.0 0.0 -6.57473
0.0 0.0 -6.57473
VECTORS omega float
0.0 0.0 0.0
0.0 0.0 0.0
-0.380818 5.49256 -5.427
0.327637 6.0451 -6.10577
0.0 0.0 0.0
0.0 0.0 0.0
-0.122382 -1.89813 1.89813
0.0 0.0 0.0
0.0 0.0 0.0
0.0 0.0 0.0
0.0 0.0 0.0
0.0 0.0 0.0
0.0 0.0 0.0
0.0 0.0 0.0
0.0 0.0 0.0
0.0 0.0 0.0
0.0 0.0 0.0
0.0 0.0 0.0
0.0 0.0 0.0
-0.00223718 -0.749511 0.749512
0.0 0.0 0.0
0.0 0.0 0.0
0.0 0.0 0.0
-7.91213 -15.174 15.4861
-1.56878 0.0943312 -0.0755125
0.0 0.0 0.0
0.0 0.0 0.0
0.0 0.0 0.0
-7.72725 -0.623189 0.935247
0.0 0.0 0.0
0.0 0.0 0.0
0.0 0.0 0.0
-0.0944947 -3.0277 3.0277
0.0 0.0 0.0
0.0 0.0 0.0
0.0 0.0 0.0
0.0 0.0 0.0
-0.597499 0.601395 -0.535832
0.0 0.0 0.0
0.0390781 0.891023 -0.891024
-1.69716 -3.12973 3.14855
0.0 0.0 0.0
0.0 0.0 0.0
0.0 0.0 0.0
0.0 0.0 0.0
0.0 0.0 0.0
0.0 0.0 0.0
0.0 0.0 0.0
0.0 0.0 0.0
0.0 0.0 0.0
0.0 0.0 0.0
0.0 0.0 0.0
0.0 0.0 0.0
0.0 0.0 0.0
0.0 0.0 0.0
0.0 0.0 0.0
0.0 0.0 0.0
0.0 0.0 0.0
-0.0230237 -0.830294 0.830295
0.0 0.0 0.0
-0.79219 -13.4047 13.3361
0.32204 14.2632 -14.2632
0.0 0.0 0.0
0.0 0.0 0.0
0.0 0.0 0.0
0.0 0.0 0.0
0.0 0.0 0.0
0.0 0.0 0.0
0.0 0.0 0.0
-0.0257676 -2.02049 2.02049
0.0 0.0 0.0
0.0 0.0 0.0
0.0 0.0 0.0
-0.0857868 -13.545 13.545
0.0 0.0 0.0
0.0 0.0 0.0
0.0 0.0 0.0
0.0 0.0 0.0
0.0 0.0 0.0
0.0 0.0 0.0
0.0 0.0 0.0
-0.0171214 -3.49511 3.49511
0.0 0.0 0.0
0.0 0.0 0.0
0.0 0.0 0.0
0.0 0.0 0.0
0.0 0.0 0.0
0.0 0.0 0.0
0.0 0.0 0.0
0.0 0.0 0.0
0.529438 11.7346 -11.7346
0.0 0.0 0.0
-0.210232 -6.16338 6.09472
0.0 0.0 0.0
VECTORS v float
0.0 0.0 -0.39216
0.0 0.0 -0.72589
0.375688 -1.53792 -2.609
-0.225173 -2.07327 -2.97744
0.0 0.0 -0.812575
0.0 0.0 -0.653676
0.0435715 0.614205 -0.305195
0.0 0.0 -0.652744
0.0 0.0 -0.55656
0.0 0.0 -0.788451
0.0 0.0 -0.546904
0.0 0.0 -0.800278
0.0 0.0 -0.562985
0.0 0.0 -0.617205
0.0 0.0 -0.961699
0.0 0.0 -0.71557
0.0 0.0 -0.558873
0.0 0.0 -0.705807
0.0 0.0 -0.723998
0.0171602 0.241528 -0.160515
0.0 0.0 -0.853339
0.0 0.0 -0.538232
0.0 0.0 -0.56086
0.850061 4.3628 7.38456
0.0369624 0.480499 -1.064
0.0 0.0 -0.739556
0.0 0.0 -0.839862
0.0 0.0 -0.394034
-0.34024 2.53432 -1.55766
0.0 0.0 -0.633836
0.0 0.0 -0.759979
0.0 0.0 -1.00812
0.0717904 1.01089 0.330296
0.0 0.0 -0.47153
0.0 0.0 -0.409929
0.0 0.0 -0.985678
0.0 0.0 -0.449894
-0.253039 -0.189725 -0.481566
0.0 0.0 -0.898893
0.0206189 -0.289989 -1.10695
0.0396135 0.597586 0.482082
0.0 0.0 -0.667359
0.0 0.0 -0.728808
0.0 0.0 -0.936678
0.0 0.0 -0.856779
0.0 0.0 -0.839056
0.0 0.0 -0.51716
0.0 0.0 -0.732894
0.0 0.0 -0.527168
0.0 0.0 -0.787104
0.0 0.0 -0.876597
0.0 0.0 -0.836236
0.0 0.0 -0.870741
0.0 0.0 -0.636366
0.0 0.0 -0.878798
0.0 0.0 -0.51366
0.0 0.0 -0.545035
0.0 0.0 -0.768639
0.018898 0.266516 -0.271445
0.0 0.0 -0.828147
0.0198557 6.54553 5.74107
0.50723 -6.88414 -7.47145
0.0 0.0 -0.855076
0.0 0.0 -0.638348
0.0 0.0 -0.567109
0.0 0.0 -0.843657
0.0 0.0 -0.563925
0.0 0.0 -0.904002
0.0 0.0 -1.01327
0.0472127 0.665212 0.166429
0.0 0.0 -0.804998
0.0 0.0 -0.90327
0.0 0.0 -0.718494
0.443559 5.92635 5.49268
0.0 0.0 -0.818849
0.0 0.0 -0.73192
0.0 0.0 -0.738478
0.0 0.0 -1.00244
0.0 0.0 -0.545368
0.0 0.0 -0.443838
0.0 0.0 -0.536589
0.0841482 1.18521 0.763627
0.0 0.0 -0.964717
0.0 0.0 -0.625508
0.0 0.0 -0.771515
0.0 0.0 -0.488194
0.0 0.0 -0.837896
0.0 0.0 -0.863957
0.0 0.0 -1.01063
0.0 0.0 -1.01707
0.360672 -4.88469 -5.69354
0.0 0.0 -0.774732
0.655904 2.54269 1.95888
0.0 0.0 -0.978013
SCALARS radius float 1
LOOKUP_TABLE default
0.04
0.04
0.04
0.04
0.04
0.04
0.04
0.04
0.04
0.04
0.04
0.04
0.04
0.04
0.04
0.04
0.04
0.04
0.04
0.04
0.04
0.04
0.04
0.04
0.04
0.04
0.04
0.04
0.04
0.04
0.04
0.04
0.04
0.04
0.04
0.04
0.04
0.04
0.04
0.04
0.04
0.04
0.04
0.04
0.04
0.04
0.04
0.04
0.04
0.04
0.04
0.04
0.04
0.04
0.04
0.04
0.04
0.04
0.04
0.04
0.04
0.04
0.04
0.04
0.04
0.04
0.04
0.04
0.04
0.04
0.04
0.04
0.04
0.04
0.04
0.04
0.04
0.04
0.04
0.04
0.04
0.04
0.04
0.04
0.04
0.04
0.04
0.04
0.04
0.04
0.04
0.04
0.04
0.04
SCALARS type float 1
LOOKUP_TABLE default
1.0
1.0
1.0
1.0
1.0
1.0
1.0
1.0
1.0
1.0
1.0
1.0
1.0
1.0
1.0
1.0
1.0
1.0
1.0
1.0
1.0
1.0
1.0
1.0
1.0
1.0
1.0
1.0
1.0
1.0
1.0
1.0
1.0
1.0
1.0
1.0
1.0
1.0
1.0
1.0
1.0
1.0
1.0
1.0
1.0
1.0
1.0
1.0
1.0
1.0
1.0
1.0
1.0
1.0
1.0
1.0
1.0
1.0
1.0
1.0
1.0
1.0
1.0
1.0
1.0
1.0
1.0
1.0
1.0
1.0
1.0
1.0
1.0
1.0
1.0
1.0
1.0
1.0
1.0
1.0
1.0
1.0
1.0
1.0
1.0
1.0
1.0
1.0
1.0
1.0
1.0
1.0
1.0
1.0
SCALARS id float 1
LOOKUP_TABLE default
1.0
2.0
3.0
4.0
5.0
6.0
7.0
8.0
9.0
10.0
11.0
12.0
13.0
14.0
15.0
16.0
17.0
18.0
19.0
20.0
21.0
22.0
23.0
24.0
25.0
26.0
27.0
28.0
29.0
30.0
31.0
32.0
33.0
34.0
35.0
36.0
37.0
38.0
39.0
40.0
41.0
42.0
43.0
44.0
45.0
46.0
47.0
48.0
49.0
50.0
51.0
52.0
53.0
54.0
55.0
56.0
57.0
58.0
59.0
60.0
61.0
62.0
63.0
64.0
65.0
66.0
67.0
68.0
69.0
70.0
71.0
72.0
73.0
74.0
75.0
76.0
77.0
78.0
79.0
80.0
81.0
82.0
83.0
84.0
85.0
86.0
87.0
88.0
89.0
90.0
91.0
92.0
93.0
94.0

